Protein in water t=   0.00000 step= 0
325732
    1DG5    H5T    1   4.887   4.635   5.289
    1DG5    O5'    2   4.978   4.664   5.288
    1DG5    C5'    3   4.990   4.807   5.302
    1DG5   H5'1    4   4.945   4.840   5.396
    1DG5   H5'2    5   4.945   4.863   5.220
    1DG5    C4'    6   5.133   4.856   5.302
    1DG5    H4'    7   5.182   4.797   5.380
    1DG5    O4'    8   5.197   4.817   5.174
    1DG5    C1'    9   5.284   4.928   5.146
    1DG5    H1'   10   5.369   4.923   5.214
    1DG5     N9   11   5.351   4.909   5.018
    1DG5     C8   12   5.316   4.964   4.897
    1DG5     H8   13   5.233   5.031   4.875
    1DG5     N7   14   5.403   4.943   4.802
    1DG5     C5   15   5.500   4.869   4.862
    1DG5     C6   16   5.620   4.808   4.810
    1DG5     O6   17   5.655   4.809   4.690
    1DG5     N1   18   5.696   4.737   4.894
    1DG5     H1   19   5.782   4.696   4.861
    1DG5     C2   20   5.654   4.722   5.021
    1DG5     N2   21   5.747   4.675   5.100
    1DG5    H21   22   5.838   4.651   5.063
    1DG5    H22   23   5.728   4.670   5.199
    1DG5     N3   24   5.543   4.766   5.079
    1DG5     C4   25   5.472   4.846   4.996
    1DG5    C3'   26   5.157   5.009   5.316
    1DG5    H3'   27   5.067   5.067   5.339
    1DG5    C2'   28   5.195   5.051   5.169
    1DG5   H2'1   29   5.112   5.057   5.099
    1DG5   H2'2   30   5.250   5.146   5.169
    1DG5    O3'   31   5.265   5.033   5.406
    2DC       P   32   5.239   5.079   5.557
    2DC     O1P   33   5.132   4.988   5.605
    2DC     O2P   34   5.211   5.227   5.553
    2DC     O5'   35   5.374   5.048   5.640
    2DC     C5'   36   5.427   4.916   5.652
    2DC    H5'1   37   5.375   4.834   5.603
    2DC    H5'2   38   5.422   4.896   5.759
    2DC     C4'   39   5.575   4.910   5.615
    2DC     H4'   40   5.622   4.824   5.663
    2DC     O4'   41   5.586   4.914   5.472
    2DC     C1'   42   5.663   5.021   5.442
    2DC     H1'   43   5.764   4.980   5.443
    2DC      N1   44   5.633   5.071   5.311
    2DC      C6   45   5.536   5.163   5.277
    2DC      H6   46   5.468   5.196   5.354
    2DC      C5   47   5.527   5.211   5.147
    2DC      H5   48   5.445   5.279   5.133
    2DC      C4   49   5.629   5.166   5.048
    2DC      N4   50   5.628   5.194   4.922
    2DC     H41   51   5.703   5.165   4.860
    2DC     H42   52   5.547   5.235   4.876
    2DC      N3   53   5.719   5.074   5.080
    2DC      C2   54   5.726   5.030   5.210
    2DC      O2   55   5.816   4.957   5.239
    2DC     C3'   56   5.655   5.038   5.681
    2DC     H3'   57   5.611   5.091   5.766
    2DC     C2'   58   5.658   5.119   5.556
    2DC    H2'1   59   5.569   5.179   5.541
    2DC    H2'2   60   5.746   5.183   5.559
    2DC     O3'   61   5.785   4.993   5.734
    3DA       P   62   5.906   5.096   5.745
    3DA     O1P   63   5.996   5.042   5.852
    3DA     O2P   64   5.856   5.234   5.758
    3DA     O5'   65   5.979   5.088   5.599
    3DA     C5'   66   6.048   4.972   5.557
    3DA    H5'1   67   5.979   4.896   5.519
    3DA    H5'2   68   6.088   4.928   5.648
    3DA     C4'   69   6.151   5.003   5.452
    3DA     H4'   70   6.209   4.911   5.442
    3DA     O4'   71   6.092   5.030   5.329
    3DA     C1'   72   6.158   5.146   5.281
    3DA     H1'   73   6.239   5.117   5.215
    3DA      N9   74   6.047   5.224   5.218
    3DA      C8   75   5.935   5.271   5.278
    3DA      H8   76   5.914   5.254   5.382
    3DA      N7   77   5.858   5.340   5.201
    3DA      C5   78   5.929   5.338   5.079
    3DA      C6   79   5.909   5.391   4.951
    3DA      N6   80   5.811   5.463   4.903
    3DA     H61   81   5.795   5.461   4.803
    3DA     H62   82   5.736   5.480   4.968
    3DA      N1   83   5.993   5.356   4.850
    3DA      C2   84   6.101   5.281   4.878
    3DA      H2   85   6.161   5.261   4.791
    3DA      N3   86   6.136   5.225   4.994
    3DA      C4   87   6.042   5.261   5.087
    3DA     C3'   88   6.258   5.104   5.495
    3DA     H3'   89   6.248   5.128   5.601
    3DA     C2'   90   6.222   5.217   5.401
    3DA    H2'1   91   6.159   5.282   5.461
    3DA    H2'2   92   6.309   5.269   5.361
    3DA     O3'   93   6.387   5.053   5.463
    4DT       P   94   6.515   5.152   5.496
    4DT     O1P   95   6.640   5.071   5.498
    4DT     O2P   96   6.482   5.244   5.608
    4DT     O5'   97   6.533   5.243   5.366
    4DT     C5'   98   6.556   5.188   5.239
    4DT    H5'1   99   6.480   5.115   5.212
    4DT    H5'2  100   6.643   5.121   5.231
    4DT     C4'  101   6.534   5.292   5.132
    4DT     H4'  102   6.573   5.246   5.041
    4DT     O4'  103   6.396   5.332   5.122
    4DT     C1'  104   6.400   5.445   5.039
    4DT     H1'  105   6.417   5.420   4.934
    4DT      N1  106   6.278   5.531   5.058
    4DT      C6  107   6.212   5.533   5.181
    4DT      H6  108   6.263   5.478   5.259
    4DT      C5  109   6.094   5.595   5.200
    4DT      C7  110   6.035   5.611   5.331
    4DT     H71  111   5.940   5.661   5.316
    4DT     H72  112   6.022   5.517   5.385
    4DT     H73  113   6.108   5.675   5.382
    4DT      C4  114   6.031   5.667   5.082
    4DT      O4  115   5.921   5.728   5.084
    4DT      N3  116   6.104   5.655   4.963
    4DT      H3  117   6.056   5.675   4.877
    4DT      C2  118   6.227   5.600   4.947
    4DT      O2  119   6.269   5.590   4.836
    4DT     C3'  120   6.615   5.426   5.151
    4DT     H3'  121   6.615   5.458   5.255
    4DT     C2'  122   6.526   5.527   5.073
    4DT    H2'1  123   6.495   5.607   5.140
    4DT    H2'2  124   6.574   5.563   4.982
    4DT     O3'  125   6.740   5.430   5.091
    5DG       P  126   6.839   5.549   5.104
    5DG     O1P  127   6.979   5.498   5.093
    5DG     O2P  128   6.802   5.623   5.228
    5DG     O5'  129   6.799   5.641   4.975
    5DG     C5'  130   6.822   5.594   4.842
    5DG    H5'1  131   6.762   5.506   4.818
    5DG    H5'2  132   6.923   5.553   4.844
    5DG     C4'  133   6.812   5.698   4.730
    5DG     H4'  134   6.845   5.650   4.639
    5DG     O4'  135   6.686   5.753   4.701
    5DG     C1'  136   6.675   5.878   4.757
    5DG     H1'  137   6.657   5.952   4.679
    5DG      N9  138   6.556   5.894   4.851
    5DG      C8  139   6.537   5.853   4.984
    5DG      H8  140   6.610   5.815   5.054
    5DG      N7  141   6.421   5.893   5.040
    5DG      C5  142   6.358   5.934   4.924
    5DG      C6  143   6.216   5.967   4.907
    5DG      O6  144   6.124   5.975   4.990
    5DG      N1  145   6.185   5.998   4.774
    5DG      H1  146   6.087   6.014   4.755
    5DG      C2  147   6.272   5.991   4.671
    5DG      N2  148   6.219   5.999   4.551
    5DG     H21  149   6.122   6.029   4.547
    5DG     H22  150   6.283   5.999   4.473
    5DG      N3  151   6.401   5.961   4.680
    5DG      C4  152   6.433   5.932   4.807
    5DG     C3'  153   6.908   5.815   4.758
    5DG     H3'  154   6.990   5.790   4.826
    5DG     C2'  155   6.808   5.908   4.821
    5DG    H2'1  156   6.804   5.876   4.925
    5DG    H2'2  157   6.830   6.014   4.818
    5DG     O3'  158   6.954   5.867   4.640
    6DT       P  159   7.057   5.991   4.615
    6DT     O1P  160   7.146   5.951   4.502
    6DT     O2P  161   7.120   6.024   4.743
    6DT     O5'  162   6.962   6.111   4.563
    6DT     C5'  163   6.900   6.101   4.430
    6DT    H5'1  164   6.848   6.007   4.415
    6DT    H5'2  165   6.980   6.095   4.356
    6DT     C4'  166   6.807   6.220   4.377
    6DT     H4'  167   6.792   6.205   4.270
    6DT     O4'  168   6.681   6.227   4.434
    6DT     C1'  169   6.673   6.341   4.510
    6DT     H1'  170   6.608   6.413   4.461
    6DT      N1  171   6.603   6.315   4.640
    6DT      C6  172   6.673   6.282   4.757
    6DT      H6  173   6.775   6.247   4.759
    6DT      C5  174   6.601   6.277   4.874
    6DT      C7  175   6.676   6.224   4.997
    6DT     H71  176   6.648   6.278   5.088
    6DT     H72  177   6.643   6.120   5.002
    6DT     H73  178   6.784   6.235   4.984
    6DT      C4  179   6.456   6.297   4.882
    6DT      O4  180   6.383   6.286   4.977
    6DT      N3  181   6.399   6.342   4.761
    6DT      H3  182   6.299   6.331   4.750
    6DT      C2  183   6.463   6.332   4.641
    6DT      O2  184   6.397   6.336   4.538
    6DT     C3'  185   6.884   6.347   4.395
    6DT     H3'  186   6.989   6.338   4.421
    6DT     C2'  187   6.813   6.399   4.524
    6DT    H2'1  188   6.866   6.372   4.615
    6DT    H2'2  189   6.800   6.508   4.521
    6DT     O3'  190   6.869   6.424   4.274
    7DG       P  191   6.919   6.578   4.269
    7DG     O1P  192   6.947   6.617   4.131
    7DG     O2P  193   7.020   6.590   4.372
    7DG     O5'  194   6.796   6.658   4.324
    7DG     C5'  195   6.674   6.649   4.258
    7DG    H5'1  196   6.639   6.547   4.243
    7DG    H5'2  197   6.685   6.690   4.158
    7DG     C4'  198   6.564   6.722   4.331
    7DG     H4'  199   6.477   6.712   4.267
    7DG     O4'  200   6.535   6.652   4.453
    7DG     C1'  201   6.488   6.747   4.543
    7DG     H1'  202   6.384   6.777   4.528
    7DG      N9  203   6.500   6.690   4.676
    7DG      C8  204   6.613   6.657   4.747
    7DG      H8  205   6.708   6.687   4.706
    7DG      N7  206   6.586   6.612   4.868
    7DG      C5  207   6.448   6.628   4.882
    7DG      C6  208   6.352   6.613   4.998
    7DG      O6  209   6.373   6.583   5.116
    7DG      N1  210   6.221   6.640   4.965
    7DG      H1  211   6.151   6.635   5.037
    7DG      C2  212   6.186   6.674   4.844
    7DG      N2  213   6.056   6.675   4.827
    7DG     H21  214   5.996   6.677   4.908
    7DG     H22  215   6.027   6.676   4.730
    7DG      N3  216   6.263   6.678   4.730
    7DG      C4  217   6.395   6.655   4.757
    7DG     C3'  218   6.589   6.867   4.359
    7DG     H3'  219   6.692   6.900   4.345
    7DG     C2'  220   6.577   6.867   4.514
    7DG    H2'1  221   6.675   6.859   4.560
    7DG    H2'2  222   6.535   6.960   4.554
    7DG     O3'  223   6.498   6.955   4.301
    8DC       P  224   6.527   7.111   4.272
    8DC     O1P  225   6.443   7.163   4.162
    8DC     O2P  226   6.672   7.150   4.271
    8DC     O5'  227   6.485   7.180   4.408
    8DC     C5'  228   6.349   7.183   4.449
    8DC    H5'1  229   6.305   7.083   4.444
    8DC    H5'2  230   6.287   7.244   4.383
    8DC     C4'  231   6.330   7.224   4.595
    8DC     H4'  232   6.223   7.246   4.605
    8DC     O4'  233   6.363   7.113   4.680
    8DC     C1'  234   6.416   7.171   4.795
    8DC     H1'  235   6.339   7.225   4.850
    8DC      N1  236   6.475   7.071   4.881
    8DC      C6  237   6.606   7.027   4.875
    8DC      H6  238   6.666   7.051   4.788
    8DC      C5  239   6.662   6.955   4.980
    8DC      H5  240   6.764   6.920   4.972
    8DC      C4  241   6.578   6.919   5.093
    8DC      N4  242   6.624   6.864   5.202
    8DC     H41  243   6.554   6.820   5.261
    8DC     H42  244   6.718   6.828   5.211
    8DC      N3  245   6.452   6.958   5.095
    8DC      C2  246   6.400   7.030   4.991
    8DC      O2  247   6.278   7.049   4.998
    8DC     C3'  248   6.424   7.342   4.636
    8DC     H3'  249   6.486   7.382   4.556
    8DC     C2'  250   6.510   7.286   4.752
    8DC    H2'1  251   6.603   7.244   4.714
    8DC    H2'2  252   6.516   7.363   4.829
    8DC     O3'  253   6.331   7.437   4.690
    9DG       P  254   6.265   7.551   4.604
    9DG     O1P  255   6.215   7.489   4.480
    9DG     O2P  256   6.350   7.670   4.599
    9DG     O5'  257   6.134   7.589   4.696
    9DG     C5'  258   6.018   7.512   4.685
    9DG    H5'1  259   5.959   7.535   4.596
    9DG    H5'2  260   6.045   7.407   4.677
    9DG     C4'  261   5.923   7.510   4.810
    9DG     H4'  262   5.829   7.471   4.772
    9DG     O4'  263   5.970   7.423   4.914
    9DG     C1'  264   6.023   7.514   5.012
    9DG     H1'  265   5.960   7.496   5.099
    9DG      N9  266   6.159   7.458   5.061
    9DG      C8  267   6.283   7.470   5.008
    9DG      H8  268   6.299   7.538   4.925
    9DG      N7  269   6.380   7.406   5.070
    9DG      C5  270   6.311   7.337   5.171
    9DG      C6  271   6.351   7.259   5.278
    9DG      O6  272   6.466   7.222   5.298
    9DG      N1  273   6.252   7.221   5.363
    9DG      H1  274   6.278   7.186   5.455
    9DG      C2  275   6.125   7.260   5.346
    9DG      N2  276   6.045   7.215   5.442
    9DG     H21  277   6.089   7.182   5.527
    9DG     H22  278   5.951   7.250   5.435
    9DG      N3  279   6.074   7.332   5.247
    9DG      C4  280   6.174   7.366   5.161
    9DG     C3'  281   5.907   7.658   4.865
    9DG     H3'  282   5.926   7.740   4.796
    9DG     C2'  283   6.018   7.658   4.968
    9DG    H2'1  284   6.114   7.672   4.918
    9DG    H2'2  285   6.009   7.729   5.050
    9DG     O3'  286   5.773   7.669   4.913
   10DT       P  287   5.735   7.783   5.015
   10DT     O1P  288   5.583   7.804   5.025
   10DT     O2P  289   5.823   7.903   5.005
   10DT     O5'  290   5.774   7.710   5.151
   10DT     C5'  291   5.694   7.606   5.206
   10DT    H5'1  292   5.719   7.508   5.166
   10DT    H5'2  293   5.587   7.616   5.190
   10DT     C4'  294   5.719   7.602   5.359
   10DT     H4'  295   5.657   7.522   5.397
   10DT     O4'  296   5.848   7.547   5.381
   10DT     C1'  297   5.925   7.635   5.463
   10DT     H1'  298   5.921   7.604   5.568
   10DT      N1  299   6.066   7.629   5.424
   10DT      C6  300   6.110   7.707   5.318
   10DT      H6  301   6.033   7.762   5.267
   10DT      C5  302   6.240   7.708   5.291
   10DT      C7  303   6.283   7.796   5.184
   10DT     H71  304   6.369   7.850   5.223
   10DT     H72  305   6.323   7.731   5.105
   10DT     H73  306   6.206   7.859   5.138
   10DT      C4  307   6.332   7.632   5.366
   10DT      O4  308   6.457   7.640   5.351
   10DT      N3  309   6.281   7.546   5.457
   10DT      H3  310   6.348   7.500   5.517
   10DT      C2  311   6.148   7.540   5.490
   10DT      O2  312   6.113   7.458   5.574
   10DT     C3'  313   5.703   7.728   5.445
   10DT     H3'  314   5.645   7.801   5.388
   10DT     C2'  315   5.855   7.776   5.458
   10DT    H2'1  316   5.877   7.840   5.373
   10DT    H2'2  317   5.874   7.832   5.550
   10DT     O3'  318   5.636   7.686   5.560
   11DA       P  319   5.599   7.788   5.674
   11DA     O1P  320   5.498   7.714   5.749
   11DA     O2P  321   5.571   7.924   5.621
   11DA     O5'  322   5.731   7.796   5.776
   11DA     C5'  323   5.771   7.682   5.851
   11DA    H5'1  324   5.764   7.590   5.792
   11DA    H5'2  325   5.699   7.673   5.932
   11DA     C4'  326   5.916   7.690   5.903
   11DA     H4'  327   5.931   7.607   5.972
   11DA     O4'  328   6.009   7.677   5.788
   11DA     C1'  329   6.124   7.754   5.823
   11DA     H1'  330   6.198   7.681   5.856
   11DA      N9  331   6.204   7.815   5.712
   11DA      C8  332   6.171   7.900   5.609
   11DA      H8  333   6.068   7.930   5.601
   11DA      N7  334   6.271   7.942   5.534
   11DA      C5  335   6.383   7.879   5.592
   11DA      C6  336   6.522   7.876   5.563
   11DA      N6  337   6.582   7.915   5.448
   11DA     H61  338   6.678   7.885   5.445
   11DA     H62  339   6.529   7.943   5.366
   11DA      N1  340   6.607   7.806   5.635
   11DA      C2  341   6.563   7.741   5.740
   11DA      H2  342   6.637   7.690   5.800
   11DA      N3  343   6.432   7.736   5.781
   11DA      C4  344   6.345   7.803   5.700
   11DA     C3'  345   5.953   7.823   5.975
   11DA     H3'  346   5.895   7.910   5.942
   11DA     C2'  347   6.097   7.849   5.937
   11DA    H2'1  348   6.096   7.952   5.901
   11DA    H2'2  349   6.168   7.827   6.017
   11DA     O3'  350   5.946   7.804   6.121
   12DT       P  351   5.980   7.929   6.217
   12DT     O1P  352   5.903   7.904   6.342
   12DT     O2P  353   5.952   8.058   6.143
   12DT     O5'  354   6.138   7.909   6.249
   12DT     C5'  355   6.176   7.792   6.317
   12DT    H5'1  356   6.177   7.717   6.238
   12DT    H5'2  357   6.114   7.763   6.402
   12DT     C4'  358   6.319   7.800   6.362
   12DT     H4'  359   6.335   7.704   6.411
   12DT     O4'  360   6.399   7.815   6.248
   12DT     C1'  361   6.497   7.917   6.257
   12DT     H1'  362   6.589   7.871   6.292
   12DT      N1  363   6.526   7.985   6.126
   12DT      C6  364   6.427   8.052   6.059
   12DT      H6  365   6.329   8.065   6.102
   12DT      C5  366   6.451   8.100   5.935
   12DT      C7  367   6.335   8.165   5.864
   12DT     H71  368   6.317   8.103   5.776
   12DT     H72  369   6.248   8.172   5.929
   12DT     H73  370   6.370   8.264   5.836
   12DT      C4  371   6.574   8.076   5.862
   12DT      O4  372   6.602   8.108   5.746
   12DT      N3  373   6.670   8.003   5.934
   12DT      H3  374   6.756   7.982   5.886
   12DT      C2  375   6.649   7.957   6.062
   12DT      O2  376   6.737   7.881   6.110
   12DT     C3'  377   6.351   7.914   6.457
   12DT     H3'  378   6.256   7.958   6.487
   12DT     C2'  379   6.435   8.003   6.366
   12DT    H2'1  380   6.377   8.083   6.319
   12DT    H2'2  381   6.519   8.051   6.416
   12DT     O3'  382   6.424   7.870   6.569
   13DG       P  383   6.472   7.972   6.690
   13DG     O1P  384   6.516   7.900   6.810
   13DG     O2P  385   6.361   8.065   6.710
   13DG     O5'  386   6.604   8.054   6.646
   13DG     C5'  387   6.731   7.985   6.622
   13DG    H5'1  388   6.703   7.901   6.559
   13DG    H5'2  389   6.764   7.948   6.718
   13DG     C4'  390   6.842   8.079   6.563
   13DG     H4'  391   6.938   8.039   6.593
   13DG     O4'  392   6.822   8.093   6.422
   13DG     C1'  393   6.859   8.225   6.387
   13DG     H1'  394   6.968   8.229   6.386
   13DG      N9  395   6.793   8.271   6.261
   13DG      C8  396   6.671   8.318   6.235
   13DG      H8  397   6.593   8.330   6.309
   13DG      N7  398   6.650   8.369   6.112
   13DG      C5  399   6.775   8.346   6.056
   13DG      C6  400   6.819   8.376   5.923
   13DG      O6  401   6.772   8.438   5.829
   13DG      N1  402   6.948   8.323   5.900
   13DG      H1  403   6.986   8.332   5.807
   13DG      C2  404   7.022   8.258   5.994
   13DG      N2  405   7.143   8.214   5.964
   13DG     H21  406   7.183   8.229   5.873
   13DG     H22  407   7.198   8.166   6.034
   13DG      N3  408   6.984   8.230   6.116
   13DG      C4  409   6.860   8.281   6.140
   13DG     C3'  410   6.854   8.227   6.623
   13DG     H3'  411   6.787   8.246   6.707
   13DG     C2'  412   6.805   8.314   6.509
   13DG    H2'1  413   6.696   8.325   6.510
   13DG    H2'2  414   6.843   8.415   6.512
   13DG     O3'  415   6.989   8.275   6.659
   14DC       P  416   7.072   8.221   6.780
   14DC     O1P  417   7.021   8.088   6.824
   14DC     O2P  418   7.078   8.330   6.877
   14DC     O5'  419   7.217   8.196   6.714
   14DC     C5'  420   7.260   8.066   6.672
   14DC    H5'1  421   7.177   7.995   6.662
   14DC    H5'2  422   7.328   8.019   6.743
   14DC     C4'  423   7.340   8.050   6.537
   14DC     H4'  424   7.342   7.943   6.515
   14DC     O4'  425   7.267   8.120   6.442
   14DC     C1'  426   7.345   8.227   6.385
   14DC     H1'  427   7.395   8.183   6.298
   14DC      N1  428   7.277   8.356   6.342
   14DC      C6  429   7.191   8.415   6.429
   14DC      H6  430   7.197   8.376   6.530
   14DC      C5  431   7.094   8.500   6.394
   14DC      H5  432   7.010   8.531   6.454
   14DC      C4  433   7.096   8.542   6.258
   14DC      N4  434   6.991   8.606   6.219
   14DC     H41  435   6.978   8.599   6.119
   14DC     H42  436   6.920   8.628   6.287
   14DC      N3  437   7.181   8.488   6.169
   14DC      C2  438   7.272   8.399   6.210
   14DC      O2  439   7.357   8.356   6.132
   14DC     C3'  440   7.480   8.112   6.541
   14DC     H3'  441   7.529   8.108   6.638
   14DC     C2'  442   7.452   8.256   6.495
   14DC    H2'1  443   7.413   8.325   6.571
   14DC    H2'2  444   7.544   8.296   6.452
   14DC     O3'  445   7.565   8.049   6.449
   15DG       P  446   7.721   8.096   6.430
   15DG     O1P  447   7.798   7.979   6.382
   15DG     O2P  448   7.759   8.165   6.555
   15DG     O5'  449   7.726   8.202   6.315
   15DG     C5'  450   7.732   8.172   6.176
   15DG    H5'1  451   7.795   8.084   6.176
   15DG    H5'2  452   7.640   8.148   6.123
   15DG     C4'  453   7.798   8.285   6.094
   15DG     H4'  454   7.826   8.221   6.010
   15DG     O4'  455   7.705   8.383   6.051
   15DG     C1'  456   7.748   8.512   6.098
   15DG     H1'  457   7.786   8.578   6.020
   15DG      N9  458   7.642   8.583   6.176
   15DG      C8  459   7.588   8.553   6.298
   15DG      H8  460   7.620   8.468   6.358
   15DG      N7  461   7.485   8.626   6.333
   15DG      C5  462   7.470   8.704   6.219
   15DG      C6  463   7.362   8.794   6.188
   15DG      O6  464   7.258   8.823   6.250
   15DG      N1  465   7.371   8.848   6.065
   15DG      H1  466   7.296   8.914   6.051
   15DG      C2  467   7.472   8.819   5.980
   15DG      N2  468   7.468   8.870   5.864
   15DG     H21  469   7.388   8.928   5.844
   15DG     H22  470   7.539   8.849   5.795
   15DG      N3  471   7.574   8.735   6.000
   15DG      C4  472   7.569   8.680   6.126
   15DG     C3'  473   7.925   8.356   6.149
   15DG     H3'  474   7.973   8.291   6.221
   15DG     C2'  475   7.865   8.479   6.202
   15DG    H2'1  476   7.816   8.458   6.297
   15DG    H2'2  477   7.927   8.564   6.231
   15DG     O3'  478   8.017   8.368   6.040
   16DT3      P  479   8.147   8.452   6.048
   16DT3    O1P  480   8.239   8.394   5.947
   16DT3    O2P  481   8.194   8.459   6.188
   16DT3    O5'  482   8.108   8.598   6.000
   16DT3    C5'  483   8.060   8.620   5.869
   16DT3   H5'1  484   7.982   8.551   5.835
   16DT3   H5'2  485   8.141   8.603   5.799
   16DT3    C4'  486   8.001   8.757   5.844
   16DT3    H4'  487   7.968   8.767   5.740
   16DT3    O4'  488   7.891   8.780   5.923
   16DT3    C1'  489   7.892   8.922   5.941
   16DT3    H1'  490   7.852   8.979   5.857
   16DT3     N1  491   7.811   8.944   6.061
   16DT3     C6  492   7.842   8.885   6.185
   16DT3     H6  493   7.913   8.804   6.184
   16DT3     C5  494   7.757   8.899   6.290
   16DT3     C7  495   7.791   8.823   6.415
   16DT3    H71  496   7.892   8.782   6.421
   16DT3    H72  497   7.781   8.903   6.489
   16DT3    H73  498   7.718   8.745   6.439
   16DT3     C4  499   7.637   8.979   6.279
   16DT3     O4  500   7.546   8.988   6.355
   16DT3     N3  501   7.634   9.049   6.165
   16DT3     H3  502   7.542   9.089   6.156
   16DT3     C2  503   7.703   9.029   6.049
   16DT3     O2  504   7.676   9.101   5.948
   16DT3    C3'  505   8.108   8.858   5.879
   16DT3    H3'  506   8.190   8.812   5.933
   16DT3    C2'  507   8.035   8.967   5.955
   16DT3   H2'1  508   8.066   8.953   6.059
   16DT3   H2'2  509   8.048   9.068   5.915
   16DT3    O3'  510   8.160   8.904   5.752
   16DT3    H3T  511   8.105   8.969   5.706
   17DC5    H5T  512  10.686  12.231   8.977
   17DC5    O5'  513  10.722  12.148   9.009
   17DC5    C5'  514  10.686  12.126   9.139
   17DC5   H5'1  515  10.735  12.208   9.193
   17DC5   H5'2  516  10.723  12.031   9.178
   17DC5    C4'  517  10.528  12.121   9.158
   17DC5    H4'  518  10.507  12.105   9.264
   17DC5    O4'  519  10.472  12.246   9.124
   17DC5    C1'  520  10.352  12.211   9.053
   17DC5    H1'  521  10.273  12.188   9.124
   17DC5     N1  522  10.309  12.325   8.963
   17DC5     C6  523  10.348  12.341   8.832
   17DC5     H6  524  10.411  12.269   8.781
   17DC5     C5  525  10.297  12.455   8.770
   17DC5     H5  526  10.336  12.479   8.672
   17DC5     C4  527  10.197  12.535   8.832
   17DC5     N4  528  10.157  12.649   8.778
   17DC5    H41  529  10.075  12.696   8.815
   17DC5    H42  530  10.198  12.674   8.689
   17DC5     N3  531  10.163  12.510   8.956
   17DC5     C2  532  10.216  12.409   9.026
   17DC5     O2  533  10.184  12.398   9.146
   17DC5    C3'  534  10.445  12.010   9.085
   17DC5    H3'  535  10.510  11.933   9.043
   17DC5    C2'  536  10.378  12.086   8.974
   17DC5   H2'1  537  10.446  12.083   8.889
   17DC5   H2'2  538  10.284  12.039   8.946
   17DC5    O3'  539  10.345  11.948   9.166
   18DG       P  540  10.381  11.829   9.268
   18DG     O1P  541  10.453  11.881   9.384
   18DG     O2P  542  10.440  11.720   9.191
   18DG     O5'  543  10.238  11.772   9.317
   18DG     C5'  544  10.170  11.801   9.438
   18DG    H5'1  545  10.216  11.892   9.477
   18DG    H5'2  546  10.175  11.720   9.511
   18DG     C4'  547  10.021  11.839   9.409
   18DG     H4'  548   9.978  11.833   9.509
   18DG     O4'  549  10.004  11.969   9.350
   18DG     C1'  550   9.902  11.948   9.250
   18DG     H1'  551   9.802  11.959   9.292
   18DG      N9  552   9.920  12.051   9.145
   18DG      C8  553  10.011  12.051   9.040
   18DG      H8  554  10.079  11.968   9.027
   18DG      N7  555   9.994  12.139   8.953
   18DG      C5  556   9.891  12.217   9.008
   18DG      C6  557   9.817  12.330   8.946
   18DG      O6  558   9.845  12.394   8.845
   18DG      N1  559   9.704  12.358   9.019
   18DG      H1  560   9.652  12.436   8.982
   18DG      C2  561   9.671  12.309   9.143
   18DG      N2  562   9.559  12.345   9.195
   18DG     H21  563   9.507  12.426   9.162
   18DG     H22  564   9.529  12.314   9.287
   18DG      N3  565   9.732  12.205   9.196
   18DG      C4  566   9.839  12.160   9.123
   18DG     C3'  567   9.952  11.734   9.316
   18DG     H3'  568  10.016  11.649   9.292
   18DG     C2'  569   9.918  11.810   9.193
   18DG    H2'1  570  10.005  11.798   9.128
   18DG    H2'2  571   9.834  11.773   9.134
   18DG     O3'  572   9.839  11.688   9.384
   19DC       P  573   9.754  11.568   9.327
   19DC     O1P  574   9.699  11.489   9.438
   19DC     O2P  575   9.840  11.496   9.236
   19DC     O5'  576   9.635  11.630   9.236
   19DC     C5'  577   9.550  11.721   9.294
   19DC    H5'1  578   9.610  11.797   9.344
   19DC    H5'2  579   9.485  11.673   9.368
   19DC     C4'  580   9.479  11.788   9.177
   19DC     H4'  581   9.402  11.854   9.219
   19DC     O4'  582   9.573  11.872   9.111
   19DC     C1'  583   9.517  11.886   8.985
   19DC     H1'  584   9.421  11.937   8.993
   19DC      N1  585   9.602  11.954   8.880
   19DC      C6  586   9.710  11.890   8.827
   19DC      H6  587   9.731  11.788   8.854
   19DC      C5  588   9.788  11.952   8.736
   19DC      H5  589   9.861  11.897   8.679
   19DC      C4  590   9.749  12.081   8.691
   19DC      N4  591   9.801  12.129   8.579
   19DC     H41  592   9.753  12.207   8.537
   19DC     H42  593   9.852  12.061   8.524
   19DC      N3  594   9.650  12.149   8.750
   19DC      C2  595   9.578  12.092   8.846
   19DC      O2  596   9.494  12.155   8.909
   19DC     C3'  597   9.414  11.696   9.075
   19DC     H3'  598   9.445  11.592   9.088
   19DC     C2'  599   9.486  11.743   8.943
   19DC    H2'1  600   9.569  11.672   8.942
   19DC    H2'2  601   9.427  11.740   8.851
   19DC     O3'  602   9.280  11.734   9.047
   20DA       P  603   9.154  11.669   9.106
   20DA     O1P  604   9.189  11.629   9.242
   20DA     O2P  605   9.116  11.564   9.017
   20DA     O5'  606   9.033  11.777   9.113
   20DA     C5'  607   9.040  11.905   9.178
   20DA    H5'1  608   8.973  11.903   9.264
   20DA    H5'2  609   9.143  11.924   9.207
   20DA     C4'  610   9.004  12.027   9.095
   20DA     H4'  611   8.997  12.114   9.161
   20DA     O4'  612   9.097  12.062   8.999
   20DA     C1'  613   9.027  12.083   8.878
   20DA     H1'  614   8.996  12.188   8.875
   20DA      N9  615   9.123  12.044   8.769
   20DA      C8  616   9.226  11.956   8.783
   20DA      H8  617   9.229  11.884   8.863
   20DA      N7  618   9.315  11.958   8.686
   20DA      C5  619   9.267  12.063   8.606
   20DA      C6  620   9.314  12.133   8.495
   20DA      N6  621   9.435  12.107   8.444
   20DA     H61  622   9.459  12.156   8.360
   20DA     H62  623   9.490  12.027   8.473
   20DA      N1  624   9.265  12.239   8.438
   20DA      C2  625   9.144  12.275   8.492
   20DA      H2  626   9.110  12.369   8.451
   20DA      N3  627   9.082  12.221   8.599
   20DA      C4  628   9.149  12.114   8.656
   20DA     C3'  629   8.869  12.004   9.029
   20DA     H3'  630   8.818  11.915   9.064
   20DA     C2'  631   8.907  11.980   8.884
   20DA    H2'1  632   8.939  11.877   8.867
   20DA    H2'2  633   8.819  12.001   8.823
   20DA     O3'  634   8.785  12.115   9.030
   21DC       P  635   8.628  12.097   9.040
   21DC     O1P  636   8.568  12.225   9.086
   21DC     O2P  637   8.608  11.972   9.120
   21DC     O5'  638   8.568  12.073   8.891
   21DC     C5'  639   8.565  12.177   8.797
   21DC    H5'1  640   8.639  12.255   8.816
   21DC    H5'2  641   8.469  12.228   8.805
   21DC     C4'  642   8.589  12.132   8.647
   21DC     H4'  643   8.570  12.214   8.578
   21DC     O4'  644   8.727  12.105   8.622
   21DC     C1'  645   8.727  12.016   8.514
   21DC     H1'  646   8.685  12.058   8.423
   21DC      N1  647   8.866  11.964   8.487
   21DC      C6  648   8.931  11.871   8.565
   21DC      H6  649   8.884  11.836   8.656
   21DC      C5  650   9.045  11.814   8.518
   21DC      H5  651   9.085  11.735   8.581
   21DC      C4  652   9.105  11.864   8.393
   21DC      N4  653   9.221  11.831   8.356
   21DC     H41  654   9.254  11.877   8.272
   21DC     H42  655   9.278  11.768   8.410
   21DC      N3  656   9.057  11.967   8.334
   21DC      C2  657   8.934  12.011   8.374
   21DC      O2  658   8.888  12.112   8.321
   21DC     C3'  659   8.525  12.005   8.602
   21DC     H3'  660   8.457  11.969   8.679
   21DC     C2'  661   8.628  11.910   8.563
   21DC    H2'1  662   8.663  11.848   8.645
   21DC    H2'2  663   8.604  11.847   8.477
   21DC     O3'  664   8.456  12.040   8.480
   22DG       P  665   8.316  12.120   8.466
   22DG     O1P  666   8.324  12.233   8.557
   22DG     O2P  667   8.206  12.029   8.481
   22DG     O5'  668   8.312  12.159   8.310
   22DG     C5'  669   8.379  12.281   8.280
   22DG    H5'1  670   8.468  12.289   8.342
   22DG    H5'2  671   8.312  12.362   8.309
   22DG     C4'  672   8.403  12.287   8.132
   22DG     H4'  673   8.395  12.393   8.108
   22DG     O4'  674   8.526  12.229   8.107
   22DG     C1'  675   8.521  12.117   8.022
   22DG     H1'  676   8.543  12.145   7.919
   22DG      N9  677   8.603  12.004   8.069
   22DG      C8  678   8.589  11.926   8.178
   22DG      H8  679   8.504  11.943   8.242
   22DG      N7  680   8.687  11.844   8.198
   22DG      C5  681   8.778  11.871   8.098
   22DG      C6  682   8.911  11.824   8.075
   22DG      O6  683   8.980  11.741   8.137
   22DG      N1  684   8.967  11.868   7.961
   22DG      H1  685   9.060  11.845   7.929
   22DG      C2  686   8.900  11.954   7.880
   22DG      N2  687   8.974  11.998   7.782
   22DG     H21  688   9.054  11.942   7.755
   22DG     H22  689   8.922  12.060   7.721
   22DG      N3  690   8.783  12.022   7.905
   22DG      C4  691   8.726  11.972   8.018
   22DG     C3'  692   8.301  12.208   8.048
   22DG     H3'  693   8.205  12.194   8.100
   22DG     C2'  694   8.373  12.081   8.020
   22DG    H2'1  695   8.350  12.019   8.107
   22DG    H2'2  696   8.347  12.049   7.919
   22DG     O3'  697   8.287  12.283   7.930
   23DC       P  698   8.180  12.257   7.818
   23DC     O1P  699   8.148  12.388   7.759
   23DC     O2P  700   8.070  12.168   7.867
   23DC     O5'  701   8.263  12.175   7.713
   23DC     C5'  702   8.380  12.221   7.650
   23DC    H5'1  703   8.439  12.292   7.707
   23DC    H5'2  704   8.344  12.283   7.568
   23DC     C4'  705   8.474  12.107   7.605
   23DC     H4'  706   8.558  12.145   7.547
   23DC     O4'  707   8.521  12.032   7.715
   23DC     C1'  708   8.508  11.889   7.682
   23DC     H1'  709   8.581  11.866   7.605
   23DC      N1  710   8.531  11.794   7.794
   23DC      C6  711   8.435  11.771   7.891
   23DC      H6  712   8.334  11.809   7.890
   23DC      C5  713   8.470  11.682   7.986
   23DC      H5  714   8.395  11.652   8.057
   23DC      C4  715   8.597  11.620   7.991
   23DC      N4  716   8.626  11.536   8.088
   23DC     H41  717   8.715  11.491   8.072
   23DC     H42  718   8.560  11.533   8.165
   23DC      N3  719   8.683  11.639   7.893
   23DC      C2  720   8.655  11.728   7.794
   23DC      O2  721   8.742  11.742   7.706
   23DC     C3'  722   8.392  12.006   7.523
   23DC     H3'  723   8.293  12.045   7.499
   23DC     C2'  724   8.374  11.883   7.610
   23DC    H2'1  725   8.287  11.897   7.674
   23DC    H2'2  726   8.362  11.786   7.560
   23DC     O3'  727   8.456  11.967   7.407
   24DA       P  728   8.388  11.990   7.264
   24DA     O1P  729   8.362  12.135   7.252
   24DA     O2P  730   8.276  11.896   7.251
   24DA     O5'  731   8.509  11.938   7.162
   24DA     C5'  732   8.641  12.000   7.158
   24DA    H5'1  733   8.674  12.035   7.256
   24DA    H5'2  734   8.627  12.083   7.089
   24DA     C4'  735   8.742  11.899   7.101
   24DA     H4'  736   8.816  11.957   7.046
   24DA     O4'  737   8.809  11.812   7.193
   24DA     C1'  738   8.746  11.683   7.183
   24DA     H1'  739   8.824  11.615   7.148
   24DA      N9  740   8.696  11.633   7.320
   24DA      C8  741   8.589  11.665   7.395
   24DA      H8  742   8.521  11.745   7.368
   24DA      N7  743   8.569  11.594   7.500
   24DA      C5  744   8.671  11.501   7.489
   24DA      C6  745   8.710  11.385   7.563
   24DA      N6  746   8.662  11.352   7.681
   24DA     H61  747   8.695  11.274   7.735
   24DA     H62  748   8.596  11.414   7.725
   24DA      N1  749   8.808  11.304   7.522
   24DA      C2  750   8.859  11.330   7.409
   24DA      H2  751   8.949  11.277   7.383
   24DA      N3  752   8.844  11.437   7.332
   24DA      C4  753   8.748  11.525   7.383
   24DA     C3'  754   8.686  11.808   6.996
   24DA     H3'  755   8.598  11.858   6.955
   24DA     C2'  756   8.633  11.685   7.074
   24DA    H2'1  757   8.540  11.710   7.126
   24DA    H2'2  758   8.627  11.598   7.009
   24DA     O3'  759   8.789  11.772   6.902
   25DC       P  760   8.759  11.722   6.754
   25DC     O1P  761   8.880  11.759   6.680
   25DC     O2P  762   8.631  11.779   6.717
   25DC     O5'  763   8.740  11.559   6.764
   25DC     C5'  764   8.842  11.474   6.803
   25DC    H5'1  765   8.897  11.534   6.876
   25DC    H5'2  766   8.905  11.453   6.717
   25DC     C4'  767   8.794  11.341   6.873
   25DC     H4'  768   8.879  11.273   6.876
   25DC     O4'  769   8.751  11.370   7.006
   25DC     C1'  770   8.643  11.274   7.023
   25DC     H1'  771   8.685  11.174   7.027
   25DC      N1  772   8.552  11.289   7.141
   25DC      C6  773   8.447  11.372   7.145
   25DC      H6  774   8.427  11.439   7.062
   25DC      C5  775   8.363  11.380   7.248
   25DC      H5  776   8.282  11.451   7.248
   25DC      C4  777   8.388  11.289   7.356
   25DC      N4  778   8.314  11.288   7.464
   25DC     H41  779   8.352  11.230   7.538
   25DC     H42  780   8.237  11.352   7.474
   25DC      N3  781   8.491  11.207   7.359
   25DC      C2  782   8.575  11.205   7.250
   25DC      O2  783   8.654  11.116   7.252
   25DC     C3'  784   8.693  11.264   6.801
   25DC     H3'  785   8.660  11.305   6.706
   25DC     C2'  786   8.570  11.276   6.889
   25DC    H2'1  787   8.522  11.372   6.872
   25DC    H2'2  788   8.496  11.196   6.882
   25DC     O3'  789   8.725  11.124   6.781
   26DG       P  790   8.819  11.081   6.660
   26DG     O1P  791   8.929  11.180   6.651
   26DG     O2P  792   8.734  11.049   6.540
   26DG     O5'  793   8.868  10.942   6.713
   26DG     C5'  794   8.986  10.930   6.795
   26DG    H5'1  795   8.974  11.013   6.863
   26DG    H5'2  796   9.077  10.945   6.736
   26DG     C4'  797   9.004  10.817   6.893
   26DG     H4'  798   9.109  10.814   6.922
   26DG     O4'  799   8.914  10.831   7.008
   26DG     C1'  800   8.801  10.742   6.993
   26DG     H1'  801   8.816  10.659   7.062
   26DG      N9  802   8.672  10.811   7.029
   26DG      C8  803   8.590  10.887   6.948
   26DG      H8  804   8.613  10.912   6.845
   26DG      N7  805   8.486  10.935   7.008
   26DG      C5  806   8.486  10.868   7.132
   26DG      C6  807   8.390  10.863   7.233
   26DG      O6  808   8.286  10.920   7.241
   26DG      N1  809   8.429  10.777   7.340
   26DG      H1  810   8.367  10.787   7.419
   26DG      C2  811   8.528  10.685   7.335
   26DG      N2  812   8.539  10.596   7.435
   26DG     H21  813   8.476  10.599   7.514
   26DG     H22  814   8.634  10.563   7.433
   26DG      N3  815   8.623  10.688   7.244
   26DG      C4  816   8.593  10.781   7.140
   26DG     C3'  817   8.968  10.686   6.818
   26DG     H3'  818   8.990  10.687   6.711
   26DG     C2'  819   8.814  10.681   6.855
   26DG    H2'1  820   8.765  10.748   6.785
   26DG    H2'2  821   8.767  10.583   6.853
   26DG     O3'  822   9.045  10.583   6.887
   27DC       P  823   9.009  10.434   6.857
   27DC     O1P  824   9.139  10.363   6.857
   27DC     O2P  825   8.926  10.423   6.735
   27DC     O5'  826   8.927  10.394   6.984
   27DC     C5'  827   8.976  10.391   7.116
   27DC    H5'1  828   8.968  10.494   7.151
   27DC    H5'2  829   9.082  10.367   7.113
   27DC     C4'  830   8.907  10.293   7.213
   27DC     H4'  831   8.972  10.285   7.300
   27DC     O4'  832   8.779  10.342   7.247
   27DC     C1'  833   8.673  10.253   7.203
   27DC     H1'  834   8.633  10.190   7.282
   27DC      N1  835   8.568  10.345   7.149
   27DC      C6  836   8.588  10.413   7.032
   27DC      H6  837   8.676  10.403   6.970
   27DC      C5  838   8.484  10.489   6.986
   27DC      H5  839   8.499  10.542   6.894
   27DC      C4  840   8.373  10.500   7.077
   27DC      N4  841   8.270  10.573   7.044
   27DC     H41  842   8.193  10.588   7.107
   27DC     H42  843   8.257  10.594   6.946
   27DC      N3  844   8.357  10.435   7.190
   27DC      C2  845   8.458  10.362   7.235
   27DC      O2  846   8.455  10.312   7.349
   27DC     C3'  847   8.889  10.150   7.162
   27DC     H3'  848   8.973  10.147   7.093
   27DC     C2'  849   8.743  10.157   7.107
   27DC    H2'1  850   8.751  10.194   7.005
   27DC    H2'2  851   8.690  10.062   7.103
   27DC     O3'  852   8.916  10.057   7.264
   28DG       P  853   8.878   9.905   7.249
   28DG     O1P  854   8.950   9.826   7.348
   28DG     O2P  855   8.891   9.869   7.108
   28DG     O5'  856   8.723   9.903   7.276
   28DG     C5'  857   8.668   9.889   7.406
   28DG    H5'1  858   8.682   9.975   7.472
   28DG    H5'2  859   8.715   9.804   7.455
   28DG     C4'  860   8.523   9.853   7.401
   28DG     H4'  861   8.513   9.825   7.506
   28DG     O4'  862   8.449   9.960   7.347
   28DG     C1'  863   8.366   9.920   7.238
   28DG     H1'  864   8.275   9.893   7.292
   28DG      N9  865   8.332  10.024   7.137
   28DG      C8  866   8.381  10.043   7.014
   28DG      H8  867   8.461   9.983   6.972
   28DG      N7  868   8.330  10.137   6.941
   28DG      C5  869   8.231  10.193   7.024
   28DG      C6  870   8.138  10.295   7.008
   28DG      O6  871   8.122  10.370   6.913
   28DG      N1  872   8.050  10.314   7.112
   28DG      H1  873   7.987  10.392   7.109
   28DG      C2  874   8.052  10.234   7.219
   28DG      N2  875   7.959  10.254   7.304
   28DG     H21  876   7.893  10.328   7.285
   28DG     H22  877   7.941  10.179   7.369
   28DG      N3  878   8.145  10.137   7.246
   28DG      C4  879   8.231  10.120   7.143
   28DG     C3'  880   8.488   9.732   7.311
   28DG     H3'  881   8.578   9.670   7.302
   28DG     C2'  882   8.445   9.800   7.184
   28DG    H2'1  883   8.534   9.836   7.134
   28DG    H2'2  884   8.388   9.732   7.120
   28DG     O3'  885   8.377   9.665   7.370
   29DC       P  886   8.356   9.512   7.364
   29DC     O1P  887   8.468   9.448   7.444
   29DC     O2P  888   8.333   9.471   7.225
   29DC     O5'  889   8.223   9.494   7.442
   29DC     C5'  890   8.220   9.549   7.571
   29DC    H5'1  891   8.297   9.625   7.580
   29DC    H5'2  892   8.231   9.474   7.650
   29DC     C4'  893   8.080   9.629   7.593
   29DC     H4'  894   8.079   9.663   7.697
   29DC     O4'  895   8.065   9.748   7.506
   29DC     C1'  896   7.953   9.728   7.415
   29DC     H1'  897   7.865   9.776   7.458
   29DC      N1  898   7.978   9.784   7.283
   29DC      C6  899   8.068   9.726   7.197
   29DC      H6  900   8.130   9.643   7.227
   29DC      C5  901   8.094   9.783   7.080
   29DC      H5  902   8.172   9.739   7.020
   29DC      C4  903   8.008   9.889   7.038
   29DC      N4  904   8.009   9.939   6.924
   29DC     H41  905   7.947  10.016   6.904
   29DC     H42  906   8.086   9.914   6.863
   29DC      N3  907   7.909   9.929   7.117
   29DC      C2  908   7.891   9.884   7.239
   29DC      O2  909   7.795   9.930   7.307
   29DC     C3'  910   7.958   9.548   7.559
   29DC     H3'  911   7.979   9.441   7.566
   29DC     C2'  912   7.922   9.576   7.414
   29DC    H2'1  913   7.993   9.522   7.350
   29DC    H2'2  914   7.823   9.543   7.385
   29DC     O3'  915   7.853   9.584   7.650
   30DA       P  916   7.708   9.521   7.660
   30DA     O1P  917   7.666   9.559   7.798
   30DA     O2P  918   7.716   9.388   7.605
   30DA     O5'  919   7.629   9.604   7.547
   30DA     C5'  920   7.570   9.728   7.578
   30DA    H5'1  921   7.642   9.805   7.556
   30DA    H5'2  922   7.540   9.728   7.683
   30DA     C4'  923   7.442   9.755   7.508
   30DA     H4'  924   7.391   9.828   7.571
   30DA     O4'  925   7.458   9.817   7.379
   30DA     C1'  926   7.405   9.744   7.273
   30DA     H1'  927   7.321   9.794   7.226
   30DA      N9  928   7.511   9.726   7.175
   30DA      C8  929   7.621   9.647   7.185
   30DA      H8  930   7.640   9.577   7.265
   30DA      N7  931   7.696   9.641   7.082
   30DA      C5  932   7.633   9.729   6.996
   30DA      C6  933   7.666   9.775   6.869
   30DA      N6  934   7.765   9.749   6.790
   30DA     H61  935   7.755   9.791   6.699
   30DA     H62  936   7.826   9.674   6.820
   30DA      N1  937   7.600   9.880   6.820
   30DA      C2  938   7.494   9.930   6.883
   30DA      H2  939   7.446  10.016   6.840
   30DA      N3  940   7.442   9.874   6.996
   30DA      C4  941   7.520   9.776   7.049
   30DA     C3'  942   7.338   9.642   7.481
   30DA     H3'  943   7.352   9.550   7.537
   30DA     C2'  944   7.361   9.612   7.332
   30DA    H2'1  945   7.435   9.532   7.333
   30DA    H2'2  946   7.274   9.570   7.280
   30DA     O3'  947   7.207   9.695   7.499
   31DT       P  948   7.071   9.615   7.476
   31DT     O1P  949   6.963   9.687   7.547
   31DT     O2P  950   7.092   9.467   7.499
   31DT     O5'  951   7.046   9.634   7.325
   31DT     C5'  952   7.015   9.762   7.279
   31DT    H5'1  953   7.091   9.834   7.310
   31DT    H5'2  954   6.918   9.791   7.320
   31DT     C4'  955   7.015   9.778   7.130
   31DT     H4'  956   6.978   9.880   7.115
   31DT     O4'  957   7.144   9.769   7.060
   31DT     C1'  958   7.119   9.712   6.926
   31DT     H1'  959   7.091   9.790   6.855
   31DT      N1  960   7.240   9.642   6.876
   31DT      C6  961   7.304   9.544   6.955
   31DT      H6  962   7.247   9.512   7.041
   31DT      C5  963   7.419   9.483   6.916
   31DT      C7  964   7.476   9.376   7.010
   31DT     H71  965   7.454   9.280   6.962
   31DT     H72  966   7.585   9.380   7.012
   31DT     H73  967   7.433   9.370   7.110
   31DT      C4  968   7.482   9.524   6.785
   31DT      O4  969   7.588   9.484   6.741
   31DT      N3  970   7.417   9.622   6.717
   31DT      H3  971   7.471   9.669   6.645
   31DT      C2  972   7.302   9.688   6.758
   31DT      O2  973   7.256   9.777   6.685
   31DT     C3'  974   6.918   9.688   7.057
   31DT     H3'  975   6.890   9.613   7.131
   31DT     C2'  976   6.991   9.633   6.942
   31DT    H2'1  977   7.009   9.528   6.965
   31DT    H2'2  978   6.933   9.653   6.852
   31DT     O3'  979   6.798   9.753   7.017
   32DA       P  980   6.676   9.694   6.950
   32DA     O1P  981   6.557   9.786   6.971
   32DA     O2P  982   6.665   9.552   6.985
   32DA     O5'  983   6.714   9.701   6.797
   32DA     C5'  984   6.720   9.825   6.731
   32DA    H5'1  985   6.785   9.888   6.791
   32DA    H5'2  986   6.621   9.871   6.740
   32DA     C4'  987   6.764   9.815   6.587
   32DA     H4'  988   6.737   9.914   6.549
   32DA     O4'  989   6.902   9.787   6.572
   32DA     C1'  990   6.917   9.672   6.478
   32DA     H1'  991   6.922   9.698   6.372
   32DA      N9  992   7.035   9.583   6.502
   32DA      C8  993   7.059   9.485   6.596
   32DA      H8  994   6.980   9.475   6.669
   32DA      N7  995   7.170   9.419   6.589
   32DA      C5  996   7.230   9.482   6.481
   32DA      C6  997   7.350   9.467   6.410
   32DA      N6  998   7.439   9.388   6.460
   32DA     H61  999   7.516   9.356   6.404
   32DA     H62 1000   7.406   9.341   6.543
   32DA      N1 1001   7.383   9.537   6.302
   32DA      C2 1002   7.300   9.629   6.266
   32DA      H2 1003   7.321   9.688   6.178
   32DA      N3 1004   7.174   9.650   6.312
   32DA      C4 1005   7.149   9.578   6.424
   32DA     C3' 1006   6.693   9.708   6.500
   32DA     H3' 1007   6.602   9.677   6.550
   32DA     C2' 1008   6.794   9.594   6.499
   32DA    H2'1 1009   6.782   9.548   6.598
   32DA    H2'2 1010   6.784   9.516   6.424
   32DA     O3' 1011   6.662   9.762   6.370
   33DA       P 1012   6.636   9.672   6.239
   33DA     O1P 1013   6.546   9.755   6.155
   33DA     O2P 1014   6.583   9.537   6.278
   33DA     O5' 1015   6.773   9.654   6.161
   33DA     C5' 1016   6.855   9.767   6.119
   33DA    H5'1 1017   6.931   9.788   6.194
   33DA    H5'2 1018   6.794   9.854   6.094
   33DA     C4' 1019   6.935   9.734   5.987
   33DA     H4' 1020   6.970   9.833   5.956
   33DA     O4' 1021   7.049   9.651   6.016
   33DA     C1' 1022   7.023   9.518   5.971
   33DA     H1' 1023   7.102   9.504   5.897
   33DA      N9 1024   7.054   9.424   6.080
   33DA      C8 1025   6.984   9.391   6.197
   33DA      H8 1026   6.890   9.439   6.221
   33DA      N7 1027   7.038   9.299   6.275
   33DA      C5 1028   7.159   9.283   6.210
   33DA      C6 1029   7.277   9.200   6.233
   33DA      N6 1030   7.296   9.120   6.332
   33DA     H61 1031   7.382   9.066   6.338
   33DA     H62 1032   7.215   9.100   6.388
   33DA      N1 1033   7.382   9.197   6.152
   33DA      C2 1034   7.373   9.271   6.039
   33DA      H2 1035   7.456   9.272   5.969
   33DA      N3 1036   7.278   9.350   6.002
   33DA      C4 1037   7.167   9.353   6.093
   33DA     C3' 1038   6.852   9.655   5.880
   33DA     H3' 1039   6.748   9.687   5.886
   33DA     C2' 1040   6.886   9.513   5.911
   33DA    H2'1 1041   6.807   9.476   5.977
   33DA    H2'2 1042   6.896   9.459   5.816
   33DA     O3' 1043   6.893   9.684   5.748
   34DC       P 1044   6.812   9.623   5.621
   34DC     O1P 1045   6.828   9.719   5.509
   34DC     O2P 1046   6.678   9.575   5.659
   34DC     O5' 1047   6.899   9.490   5.575
   34DC     C5' 1048   7.025   9.495   5.503
   34DC    H5'1 1049   7.092   9.562   5.556
   34DC    H5'2 1050   7.008   9.512   5.396
   34DC     C4' 1051   7.084   9.353   5.504
   34DC     H4' 1052   7.178   9.358   5.450
   34DC     O4' 1053   7.112   9.308   5.638
   34DC     C1' 1054   7.051   9.179   5.658
   34DC     H1' 1055   7.115   9.107   5.607
   34DC      N1 1056   7.037   9.132   5.798
   34DC      C6 1057   6.925   9.157   5.874
   34DC      H6 1058   6.840   9.214   5.839
   34DC      C5 1059   6.916   9.112   6.004
   34DC      H5 1060   6.831   9.143   6.063
   34DC      C4 1061   7.028   9.030   6.046
   34DC      N4 1062   7.020   8.964   6.158
   34DC     H41 1063   7.105   8.917   6.183
   34DC     H42 1064   6.936   8.955   6.213
   34DC      N3 1065   7.134   9.004   5.975
   34DC      C2 1066   7.140   9.052   5.849
   34DC      O2 1067   7.236   9.015   5.783
   34DC     C3' 1068   6.990   9.247   5.445
   34DC     H3' 1069   6.920   9.291   5.374
   34DC     C2' 1070   6.930   9.176   5.563
   34DC    H2'1 1071   6.846   9.234   5.601
   34DC    H2'2 1072   6.900   9.075   5.534
   34DC     O3' 1073   7.069   9.158   5.366
   35DG       P 1074   7.090   9.182   5.207
   35DG     O1P 1075   7.153   9.313   5.175
   35DG     O2P 1076   6.959   9.155   5.141
   35DG     O5' 1077   7.198   9.061   5.173
   35DG     C5' 1078   7.331   9.069   5.227
   35DG    H5'1 1079   7.396   9.097   5.144
   35DG    H5'2 1080   7.327   9.146   5.304
   35DG     C4' 1081   7.397   8.940   5.280
   35DG     H4' 1082   7.505   8.945   5.288
   35DG     O4' 1083   7.339   8.918   5.412
   35DG     C1' 1084   7.302   8.779   5.413
   35DG     H1' 1085   7.384   8.717   5.447
   35DG      N9 1086   7.196   8.777   5.516
   35DG      C8 1087   7.072   8.837   5.511
   35DG      H8 1088   7.036   8.896   5.428
   35DG      N7 1089   7.004   8.816   5.619
   35DG      C5 1090   7.084   8.744   5.704
   35DG      C6 1091   7.064   8.682   5.835
   35DG      O6 1092   6.965   8.673   5.912
   35DG      N1 1093   7.174   8.603   5.880
   35DG      H1 1094   7.166   8.555   5.968
   35DG      C2 1095   7.284   8.580   5.805
   35DG      N2 1096   7.385   8.506   5.848
   35DG     H21 1097   7.390   8.461   5.938
   35DG     H22 1098   7.470   8.510   5.793
   35DG      N3 1099   7.301   8.637   5.691
   35DG      C4 1100   7.201   8.714   5.638
   35DG     C3' 1101   7.371   8.824   5.184
   35DG     H3' 1102   7.326   8.863   5.092
   35DG     C2' 1103   7.268   8.747   5.264
   35DG    H2'1 1104   7.166   8.778   5.243
   35DG    H2'2 1105   7.276   8.641   5.239
   35DG     O3' 1106   7.492   8.757   5.143
   36DC       P 1107   7.490   8.613   5.077
   36DC     O1P 1108   7.621   8.608   5.004
   36DC     O2P 1109   7.367   8.593   5.003
   36DC     O5' 1110   7.503   8.504   5.190
   36DC     C5' 1111   7.616   8.508   5.283
   36DC    H5'1 1112   7.623   8.607   5.326
   36DC    H5'2 1113   7.711   8.487   5.234
   36DC     C4' 1114   7.588   8.410   5.398
   36DC     H4' 1115   7.675   8.422   5.463
   36DC     O4' 1116   7.467   8.449   5.461
   36DC     C1' 1117   7.406   8.331   5.500
   36DC     H1' 1118   7.440   8.297   5.597
   36DC      N1 1119   7.253   8.348   5.505
   36DC      C6 1120   7.186   8.403   5.396
   36DC      H6 1121   7.231   8.422   5.299
   36DC      C5 1122   7.056   8.443   5.412
   36DC      H5 1123   6.997   8.482   5.331
   36DC      C4 1124   7.000   8.423   5.541
   36DC      N4 1125   6.880   8.459   5.577
   36DC     H41 1126   6.851   8.427   5.668
   36DC     H42 1127   6.818   8.493   5.505
   36DC      N3 1128   7.059   8.360   5.639
   36DC      C2 1129   7.184   8.322   5.621
   36DC      O2 1130   7.240   8.252   5.706
   36DC     C3' 1131   7.581   8.265   5.357
   36DC     H3' 1132   7.583   8.263   5.248
   36DC     C2' 1133   7.447   8.226   5.402
   36DC    H2'1 1134   7.381   8.227   5.315
   36DC    H2'2 1135   7.437   8.133   5.460
   36DC     O3' 1136   7.676   8.198   5.438
   37DA       P 1137   7.760   8.069   5.375
   37DA     O1P 1138   7.891   8.070   5.442
   37DA     O2P 1139   7.756   8.065   5.228
   37DA     O5' 1140   7.672   7.953   5.449
   37DA     C5' 1141   7.714   7.872   5.562
   37DA    H5'1 1142   7.742   7.938   5.645
   37DA    H5'2 1143   7.793   7.807   5.524
   37DA     C4' 1144   7.597   7.781   5.606
   37DA     H4' 1145   7.622   7.717   5.691
   37DA     O4' 1146   7.489   7.856   5.649
   37DA     C1' 1147   7.375   7.784   5.618
   37DA     H1' 1148   7.349   7.719   5.701
   37DA      N9 1149   7.265   7.884   5.584
   37DA      C8 1150   7.241   7.960   5.475
   37DA      H8 1151   7.307   7.950   5.390
   37DA      N7 1152   7.125   8.020   5.464
   37DA      C5 1153   7.067   7.981   5.589
   37DA      C6 1154   6.942   7.999   5.651
   37DA      N6 1155   6.847   8.082   5.608
   37DA     H61 1156   6.759   8.095   5.657
   37DA     H62 1157   6.860   8.143   5.529
   37DA      N1 1158   6.908   7.942   5.770
   37DA      C2 1159   7.000   7.867   5.827
   37DA      H2 1160   6.976   7.824   5.923
   37DA      N3 1161   7.115   7.831   5.775
   37DA      C4 1162   7.147   7.893   5.657
   37DA     C3' 1163   7.556   7.684   5.498
   37DA     H3' 1164   7.607   7.711   5.405
   37DA     C2' 1165   7.403   7.696   5.499
   37DA    H2'1 1166   7.375   7.742   5.404
   37DA    H2'2 1167   7.341   7.609   5.521
   37DA     O3' 1168   7.606   7.558   5.540
   38DT       P 1169   7.580   7.417   5.466
   38DT     O1P 1170   7.687   7.326   5.515
   38DT     O2P 1171   7.564   7.446   5.329
   38DT     O5' 1172   7.434   7.359   5.519
   38DT     C5' 1173   7.420   7.345   5.659
   38DT    H5'1 1174   7.479   7.419   5.714
   38DT    H5'2 1175   7.473   7.253   5.682
   38DT     C4' 1176   7.279   7.329   5.721
   38DT     H4' 1177   7.298   7.306   5.826
   38DT     O4' 1178   7.201   7.447   5.693
   38DT     C1' 1179   7.090   7.408   5.618
   38DT     H1' 1180   7.023   7.361   5.691
   38DT      N1 1181   7.028   7.522   5.555
   38DT      C6 1182   7.063   7.561   5.423
   38DT      H6 1183   7.148   7.511   5.378
   38DT      C5 1184   7.014   7.675   5.365
   38DT      C7 1185   7.070   7.737   5.240
   38DT     H71 1186   7.129   7.824   5.266
   38DT     H72 1187   7.119   7.658   5.182
   38DT     H73 1188   6.989   7.782   5.183
   38DT      C4 1189   6.897   7.731   5.429
   38DT      O4 1190   6.839   7.827   5.391
   38DT      N3 1191   6.850   7.681   5.550
   38DT      H3 1192   6.767   7.722   5.591
   38DT      C2 1193   6.909   7.574   5.614
   38DT      O2 1194   6.865   7.534   5.719
   38DT     C3' 1195   7.199   7.213   5.651
   38DT     H3' 1196   7.266   7.141   5.603
   38DT     C2' 1197   7.136   7.288   5.531
   38DT    H2'1 1198   7.196   7.309   5.443
   38DT    H2'2 1199   7.045   7.233   5.506
   38DT     O3' 1200   7.105   7.142   5.728
   39DA       P 1201   7.156   7.033   5.824
   39DA     O1P 1202   7.266   7.091   5.905
   39DA     O2P 1203   7.187   6.909   5.751
   39DA     O5' 1204   7.024   7.016   5.931
   39DA     C5' 1205   7.005   7.112   6.034
   39DA    H5'1 1206   7.024   7.213   5.996
   39DA    H5'2 1207   7.086   7.089   6.104
   39DA     C4' 1208   6.863   7.104   6.095
   39DA     H4' 1209   6.865   7.145   6.195
   39DA     O4' 1210   6.775   7.184   6.023
   39DA     C1' 1211   6.692   7.097   5.942
   39DA     H1' 1212   6.588   7.097   5.976
   39DA      N9 1213   6.699   7.152   5.806
   39DA      C8 1214   6.797   7.133   5.711
   39DA      H8 1215   6.879   7.064   5.725
   39DA      N7 1216   6.781   7.205   5.602
   39DA      C5 1217   6.663   7.280   5.622
   39DA      C6 1218   6.592   7.387   5.564
   39DA      N6 1219   6.632   7.450   5.459
   39DA     H61 1220   6.558   7.503   5.416
   39DA     H62 1221   6.716   7.410   5.418
   39DA      N1 1222   6.478   7.431   5.613
   39DA      C2 1223   6.439   7.375   5.725
   39DA      H2 1224   6.350   7.421   5.768
   39DA      N3 1225   6.494   7.285   5.797
   39DA      C4 1226   6.612   7.238   5.740
   39DA     C3' 1227   6.806   6.956   6.096
   39DA     H3' 1228   6.887   6.885   6.108
   39DA     C2' 1229   6.738   6.949   5.958
   39DA    H2'1 1230   6.815   6.918   5.887
   39DA    H2'2 1231   6.652   6.885   5.939
   39DA     O3' 1232   6.720   6.948   6.213
   40DC       P 1233   6.614   6.829   6.229
   40DC     O1P 1234   6.574   6.825   6.372
   40DC     O2P 1235   6.664   6.707   6.167
   40DC     O5' 1236   6.484   6.879   6.140
   40DC     C5' 1237   6.418   7.001   6.174
   40DC    H5'1 1238   6.474   7.086   6.135
   40DC    H5'2 1239   6.410   7.010   6.283
   40DC     C4' 1240   6.265   6.996   6.130
   40DC     H4' 1241   6.215   7.069   6.194
   40DC     O4' 1242   6.264   7.046   5.999
   40DC     C1' 1243   6.209   6.954   5.899
   40DC     H1' 1244   6.114   6.985   5.857
   40DC      N1 1245   6.302   6.959   5.779
   40DC      C6 1246   6.417   6.891   5.775
   40DC      H6 1247   6.447   6.826   5.856
   40DC      C5 1248   6.513   6.909   5.683
   40DC      H5 1249   6.606   6.853   5.682
   40DC      C4 1250   6.472   6.996   5.577
   40DC      N4 1251   6.553   7.020   5.478
   40DC     H41 1252   6.520   7.086   5.409
   40DC     H42 1253   6.652   6.998   5.482
   40DC      N3 1254   6.362   7.063   5.567
   40DC      C2 1255   6.282   7.056   5.681
   40DC      O2 1256   6.170   7.117   5.674
   40DC     C3' 1257   6.186   6.867   6.126
   40DC     H3' 1258   6.226   6.806   6.206
   40DC     C2' 1259   6.207   6.826   5.981
   40DC    H2'1 1260   6.311   6.792   5.983
   40DC    H2'2 1261   6.127   6.760   5.948
   40DC     O3' 1262   6.048   6.898   6.169
   41DG       P 1263   5.920   6.810   6.152
   41DG     O1P 1264   5.822   6.876   6.232
   41DG     O2P 1265   5.945   6.670   6.191
   41DG     O5' 1266   5.879   6.821   6.003
   41DG     C5' 1267   5.803   6.922   5.942
   41DG    H5'1 1268   5.721   6.956   6.005
   41DG    H5'2 1269   5.859   7.015   5.937
   41DG     C4' 1270   5.757   6.887   5.797
   41DG     H4' 1271   5.680   6.958   5.768
   41DG     O4' 1272   5.878   6.891   5.719
   41DG     C1' 1273   5.890   6.773   5.638
   41DG     H1' 1274   5.836   6.796   5.547
   41DG      N9 1275   6.030   6.746   5.612
   41DG      C8 1276   6.118   6.669   5.685
   41DG      H8 1277   6.095   6.617   5.777
   41DG      N7 1278   6.241   6.668   5.637
   41DG      C5 1279   6.232   6.746   5.520
   41DG      C6 1280   6.321   6.766   5.406
   41DG      O6 1281   6.435   6.728   5.379
   41DG      N1 1282   6.271   6.854   5.311
   41DG      H1 1283   6.332   6.888   5.238
   41DG      C2 1284   6.140   6.891   5.311
   41DG      N2 1285   6.108   6.958   5.207
   41DG     H21 1286   6.181   7.006   5.157
   41DG     H22 1287   6.013   6.948   5.173
   41DG      N3 1288   6.051   6.855   5.400
   41DG      C4 1289   6.101   6.788   5.502
   41DG     C3' 1290   5.697   6.748   5.768
   41DG     H3' 1291   5.665   6.700   5.861
   41DG     C2' 1292   5.821   6.664   5.719
   41DG    H2'1 1293   5.878   6.624   5.802
   41DG    H2'2 1294   5.794   6.586   5.647
   41DG     O3' 1295   5.592   6.773   5.681
   42DC       P 1296   5.469   6.661   5.693
   42DC     O1P 1297   5.354   6.712   5.765
   42DC     O2P 1298   5.528   6.532   5.719
   42DC     O5' 1299   5.433   6.655   5.536
   42DC     C5' 1300   5.419   6.775   5.457
   42DC    H5'1 1301   5.432   6.868   5.511
   42DC    H5'2 1302   5.318   6.787   5.419
   42DC     C4' 1303   5.500   6.773   5.326
   42DC     H4' 1304   5.480   6.871   5.284
   42DC     O4' 1305   5.638   6.748   5.342
   42DC     C1' 1306   5.679   6.698   5.222
   42DC     H1' 1307   5.693   6.780   5.152
   42DC      N1 1308   5.807   6.623   5.243
   42DC      C6 1309   5.827   6.545   5.352
   42DC      H6 1310   5.745   6.531   5.420
   42DC      C5 1311   5.950   6.485   5.371
   42DC      H5 1312   5.971   6.421   5.455
   42DC      C4 1313   6.050   6.510   5.270
   42DC      N4 1314   6.170   6.472   5.289
   42DC     H41 1315   6.249   6.502   5.233
   42DC     H42 1316   6.196   6.413   5.367
   42DC      N3 1317   6.032   6.595   5.171
   42DC      C2 1318   5.908   6.641   5.151
   42DC      O2 1319   5.888   6.707   5.051
   42DC     C3' 1320   5.450   6.659   5.231
   42DC     H3' 1321   5.420   6.574   5.292
   42DC     C2' 1322   5.581   6.609   5.162
   42DC    H2'1 1323   5.595   6.502   5.177
   42DC    H2'2 1324   5.573   6.613   5.053
   42DC     O3' 1325   5.356   6.703   5.139
   43DA       P 1326   5.277   6.598   5.042
   43DA     O1P 1327   5.154   6.671   5.006
   43DA     O2P 1328   5.269   6.463   5.097
   43DA     O5' 1329   5.367   6.587   4.906
   43DA     C5' 1330   5.381   6.702   4.814
   43DA    H5'1 1331   5.428   6.785   4.866
   43DA    H5'2 1332   5.281   6.740   4.792
   43DA     C4' 1333   5.451   6.669   4.678
   43DA     H4' 1334   5.446   6.761   4.621
   43DA     O4' 1335   5.585   6.639   4.704
   43DA     C1' 1336   5.619   6.509   4.664
   43DA     H1' 1337   5.678   6.529   4.574
   43DA      N9 1338   5.709   6.453   4.769
   43DA      C8 1339   5.689   6.415   4.901
   43DA      H8 1340   5.590   6.410   4.943
   43DA      N7 1341   5.796   6.381   4.962
   43DA      C5 1342   5.893   6.385   4.865
   43DA      C6 1343   6.030   6.344   4.860
   43DA      N6 1344   6.105   6.322   4.968
   43DA     H61 1345   6.205   6.308   4.962
   43DA     H62 1346   6.050   6.324   5.053
   43DA      N1 1347   6.099   6.348   4.744
   43DA      C2 1348   6.032   6.382   4.635
   43DA      H2 1349   6.081   6.367   4.539
   43DA      N3 1350   5.908   6.428   4.625
   43DA      C4 1351   5.843   6.423   4.748
   43DA     C3' 1352   5.395   6.548   4.603
   43DA     H3' 1353   5.291   6.529   4.630
   43DA     C2' 1354   5.482   6.439   4.642
   43DA    H2'1 1355   5.438   6.391   4.729
   43DA    H2'2 1356   5.491   6.362   4.565
   43DA     O3' 1357   5.406   6.578   4.464
   44DC       P 1358   5.320   6.495   4.353
   44DC     O1P 1359   5.304   6.577   4.235
   44DC     O2P 1360   5.199   6.436   4.412
   44DC     O5' 1361   5.424   6.383   4.327
   44DC     C5' 1362   5.531   6.403   4.233
   44DC    H5'1 1363   5.583   6.492   4.267
   44DC    H5'2 1364   5.487   6.405   4.133
   44DC     C4' 1365   5.624   6.286   4.247
   44DC     H4' 1366   5.695   6.302   4.167
   44DC     O4' 1367   5.689   6.279   4.375
   44DC     C1' 1368   5.700   6.143   4.403
   44DC     H1' 1369   5.783   6.111   4.340
   44DC      N1 1370   5.730   6.121   4.549
   44DC      C6 1371   5.636   6.115   4.655
   44DC      H6 1372   5.531   6.128   4.632
   44DC      C5 1373   5.674   6.078   4.779
   44DC      H5 1374   5.597   6.075   4.854
   44DC      C4 1375   5.811   6.048   4.805
   44DC      N4 1376   5.853   6.040   4.927
   44DC     H41 1377   5.947   6.005   4.943
   44DC     H42 1378   5.792   6.051   5.007
   44DC      N3 1379   5.901   6.055   4.709
   44DC      C2 1380   5.864   6.089   4.581
   44DC      O2 1381   5.953   6.091   4.502
   44DC     C3' 1382   5.566   6.149   4.217
   44DC     H3' 1383   5.463   6.158   4.181
   44DC     C2' 1384   5.566   6.089   4.354
   44DC    H2'1 1385   5.490   6.134   4.418
   44DC    H2'2 1386   5.565   5.980   4.355
   44DC     O3' 1387   5.658   6.075   4.135
   45DA       P 1388   5.610   6.001   4.011
   45DA     O1P 1389   5.597   6.091   3.901
   45DA     O2P 1390   5.491   5.926   4.048
   45DA     O5' 1391   5.739   5.904   3.983
   45DA     C5' 1392   5.863   5.944   3.935
   45DA    H5'1 1393   5.885   6.042   3.978
   45DA    H5'2 1394   5.854   5.957   3.827
   45DA     C4' 1395   5.974   5.855   3.968
   45DA     H4' 1396   6.058   5.891   3.908
   45DA     O4' 1397   6.012   5.865   4.104
   45DA     C1' 1398   6.001   5.734   4.161
   45DA     H1' 1399   6.100   5.699   4.188
   45DA      N9 1400   5.924   5.750   4.286
   45DA      C8 1401   5.790   5.790   4.302
   45DA      H8 1402   5.735   5.824   4.216
   45DA      N7 1403   5.749   5.790   4.423
   45DA      C5 1404   5.864   5.750   4.501
   45DA      C6 1405   5.899   5.739   4.638
   45DA      N6 1406   5.809   5.726   4.739
   45DA     H61 1407   5.844   5.706   4.831
   45DA     H62 1408   5.712   5.724   4.712
   45DA      N1 1409   6.021   5.711   4.677
   45DA      C2 1410   6.115   5.701   4.580
   45DA      H2 1411   6.216   5.675   4.607
   45DA      N3 1412   6.098   5.713   4.453
   45DA      C4 1413   5.972   5.739   4.412
   45DA     C3' 1414   5.956   5.706   3.932
   45DA     H3' 1415   5.869   5.687   3.868
   45DA     C2' 1416   5.930   5.636   4.069
   45DA    H2'1 1417   5.823   5.627   4.086
   45DA    H2'2 1418   5.984   5.541   4.067
   45DA     O3' 1419   6.076   5.674   3.863
   46DT       P 1420   6.093   5.533   3.794
   46DT     O1P 1421   6.190   5.538   3.687
   46DT     O2P 1422   5.962   5.469   3.756
   46DT     O5' 1423   6.164   5.438   3.893
   46DT     C5' 1424   6.298   5.475   3.945
   46DT    H5'1 1425   6.301   5.580   3.972
   46DT    H5'2 1426   6.369   5.459   3.863
   46DT     C4' 1427   6.334   5.395   4.071
   46DT     H4' 1428   6.432   5.434   4.097
   46DT     O4' 1429   6.259   5.445   4.175
   46DT     C1' 1430   6.206   5.336   4.249
   46DT     H1' 1431   6.293   5.302   4.306
   46DT      N1 1432   6.090   5.370   4.338
   46DT      C6 1433   5.959   5.359   4.290
   46DT      H6 1434   5.938   5.345   4.185
   46DT      C5 1435   5.856   5.385   4.373
   46DT      C7 1436   5.718   5.384   4.319
   46DT     H71 1437   5.704   5.390   4.211
   46DT     H72 1438   5.675   5.292   4.359
   46DT     H73 1439   5.667   5.467   4.368
   46DT      C4 1440   5.872   5.412   4.514
   46DT      O4 1441   5.781   5.427   4.598
   46DT      N3 1442   6.006   5.409   4.557
   46DT      H3 1443   6.031   5.416   4.655
   46DT      C2 1444   6.112   5.387   4.473
   46DT      O2 1445   6.222   5.376   4.533
   46DT     C3' 1446   6.318   5.241   4.065
   46DT     H3' 1447   6.302   5.209   3.962
   46DT     C2' 1448   6.192   5.217   4.150
   46DT    H2'1 1449   6.098   5.240   4.100
   46DT    H2'2 1450   6.183   5.123   4.205
   46DT     O3' 1451   6.429   5.178   4.114
   47DG       P 1452   6.449   5.021   4.158
   47DG     O1P 1453   6.591   4.989   4.137
   47DG     O2P 1454   6.341   4.947   4.093
   47DG     O5' 1455   6.421   5.005   4.315
   47DG     C5' 1456   6.504   5.065   4.408
   47DG    H5'1 1457   6.468   5.165   4.434
   47DG    H5'2 1458   6.606   5.073   4.371
   47DG     C4' 1459   6.522   4.981   4.537
   47DG     H4' 1460   6.612   5.014   4.590
   47DG     O4' 1461   6.414   4.994   4.629
   47DG     C1' 1462   6.340   4.872   4.640
   47DG     H1' 1463   6.358   4.835   4.741
   47DG      N9 1464   6.202   4.924   4.616
   47DG      C8 1465   6.148   4.979   4.503
   47DG      H8 1466   6.208   4.984   4.414
   47DG      N7 1467   6.032   5.039   4.523
   47DG      C5 1468   6.003   5.004   4.658
   47DG      C6 1469   5.891   5.035   4.743
   47DG      O6 1470   5.795   5.107   4.712
   47DG      N1 1471   5.899   4.982   4.870
   47DG      H1 1472   5.826   4.997   4.938
   47DG      C2 1473   6.009   4.913   4.916
   47DG      N2 1474   6.009   4.888   5.043
   47DG     H21 1475   5.930   4.923   5.097
   47DG     H22 1476   6.082   4.831   5.083
   47DG      N3 1477   6.118   4.896   4.843
   47DG      C4 1478   6.111   4.937   4.713
   47DG     C3' 1479   6.543   4.832   4.507
   47DG     H3' 1480   6.583   4.825   4.406
   47DG     C2' 1481   6.397   4.784   4.527
   47DG    H2'1 1482   6.336   4.796   4.438
   47DG    H2'2 1483   6.405   4.678   4.549
   47DG     O3' 1484   6.633   4.768   4.596
   48DC3      P 1485   6.648   4.610   4.598
   48DC3    O1P 1486   6.784   4.572   4.642
   48DC3    O2P 1487   6.591   4.548   4.478
   48DC3    O5' 1488   6.547   4.562   4.714
   48DC3    C5' 1489   6.578   4.572   4.857
   48DC3   H5'1 1490   6.596   4.679   4.871
   48DC3   H5'2 1491   6.663   4.507   4.877
   48DC3    C4' 1492   6.456   4.527   4.951
   48DC3    H4' 1493   6.484   4.552   5.054
   48DC3    O4' 1494   6.338   4.591   4.899
   48DC3    C1' 1495   6.233   4.496   4.894
   48DC3    H1' 1496   6.185   4.485   4.991
   48DC3     N1 1497   6.141   4.552   4.794
   48DC3     C6 1498   6.170   4.567   4.661
   48DC3     H6 1499   6.274   4.548   4.639
   48DC3     C5 1500   6.077   4.615   4.579
   48DC3     H5 1501   6.098   4.647   4.478
   48DC3     C4 1502   5.937   4.631   4.622
   48DC3     N4 1503   5.839   4.667   4.545
   48DC3    H41 1504   5.752   4.693   4.591
   48DC3    H42 1505   5.855   4.696   4.450
   48DC3     N3 1506   5.902   4.610   4.746
   48DC3     C2 1507   6.006   4.585   4.834
   48DC3     O2 1508   5.971   4.573   4.952
   48DC3    C3' 1509   6.426   4.380   4.946
   48DC3    H3' 1510   6.505   4.324   4.896
   48DC3    C2' 1511   6.298   4.363   4.864
   48DC3   H2'1 1512   6.325   4.343   4.760
   48DC3   H2'2 1513   6.229   4.287   4.900
   48DC3    O3' 1514   6.399   4.337   5.079
   48DC3    H3T 1515   6.437   4.248   5.076
   49DT5    H5T 1516   7.795   9.238   5.574
   49DT5    O5' 1517   7.851   9.282   5.510
   49DT5    C5' 1518   7.900   9.412   5.549
   49DT5   H5'1 1519   7.963   9.450   5.469
   49DT5   H5'2 1520   7.947   9.415   5.647
   49DT5    C4' 1521   7.785   9.512   5.562
   49DT5    H4' 1522   7.732   9.513   5.466
   49DT5    O4' 1523   7.703   9.474   5.673
   49DT5    C1' 1524   7.721   9.567   5.778
   49DT5    H1' 1525   7.640   9.638   5.768
   49DT5     N1 1526   7.713   9.497   5.903
   49DT5     C6 1527   7.816   9.421   5.949
   49DT5     H6 1528   7.905   9.408   5.890
   49DT5     C5 1529   7.808   9.369   6.075
   49DT5     C7 1530   7.934   9.299   6.133
   49DT5    H71 1531   7.995   9.263   6.051
   49DT5    H72 1532   7.986   9.371   6.196
   49DT5    H73 1533   7.902   9.215   6.194
   49DT5     C4 1534   7.694   9.394   6.162
   49DT5     O4 1535   7.683   9.351   6.276
   49DT5     N3 1536   7.598   9.478   6.109
   49DT5     H3 1537   7.521   9.506   6.168
   49DT5     C2 1538   7.603   9.530   5.985
   49DT5     O2 1539   7.502   9.593   5.946
   49DT5    C3' 1540   7.849   9.647   5.592
   49DT5    H3' 1541   7.953   9.655   5.558
   49DT5    C2' 1542   7.843   9.650   5.747
   49DT5   H2'1 1543   7.935   9.615   5.794
   49DT5   H2'2 1544   7.842   9.753   5.782
   49DT5    O3' 1545   7.763   9.742   5.521
   50DA       P 1546   7.775   9.899   5.529
   50DA     O1P 1547   7.678   9.954   5.431
   50DA     O2P 1548   7.912   9.939   5.528
   50DA     O5' 1549   7.728   9.920   5.684
   50DA     C5' 1550   7.587   9.936   5.710
   50DA    H5'1 1551   7.533   9.842   5.716
   50DA    H5'2 1552   7.541   9.993   5.630
   50DA     C4' 1553   7.567  10.008   5.845
   50DA     H4' 1554   7.475  10.065   5.854
   50DA     O4' 1555   7.577   9.909   5.949
   50DA     C1' 1556   7.655   9.961   6.049
   50DA     H1' 1557   7.597  10.031   6.108
   50DA      N9 1558   7.691   9.840   6.133
   50DA      C8 1559   7.804   9.767   6.129
   50DA      H8 1560   7.873   9.769   6.046
   50DA      N7 1561   7.821   9.687   6.229
   50DA      C5 1562   7.711   9.719   6.309
   50DA      C6 1563   7.671   9.682   6.437
   50DA      N6 1564   7.718   9.584   6.509
   50DA     H61 1565   7.670   9.548   6.590
   50DA     H62 1566   7.805   9.547   6.474
   50DA      N1 1567   7.573   9.743   6.496
   50DA      C2 1568   7.511   9.841   6.432
   50DA      H2 1569   7.434   9.892   6.488
   50DA      N3 1570   7.528   9.881   6.307
   50DA      C4 1571   7.633   9.816   6.255
   50DA     C3' 1572   7.683  10.110   5.874
   50DA     H3' 1573   7.748  10.124   5.787
   50DA     C2' 1574   7.771  10.037   5.975
   50DA    H2'1 1575   7.836   9.972   5.916
   50DA    H2'2 1576   7.828  10.106   6.037
   50DA     O3' 1577   7.637  10.225   5.936
   51DT       P 1578   7.717  10.367   5.920
   51DT     O1P 1579   7.672  10.422   5.793
   51DT     O2P 1580   7.862  10.353   5.938
   51DT     O5' 1581   7.656  10.457   6.041
   51DT     C5' 1582   7.518  10.477   6.047
   51DT    H5'1 1583   7.466  10.425   5.966
   51DT    H5'2 1584   7.497  10.584   6.044
   51DT     C4' 1585   7.453  10.429   6.182
   51DT     H4' 1586   7.353  10.394   6.157
   51DT     O4' 1587   7.517  10.310   6.222
   51DT     C1' 1588   7.507  10.292   6.364
   51DT     H1' 1589   7.405  10.264   6.391
   51DT      N1 1590   7.610  10.201   6.417
   51DT      C6 1591   7.732  10.181   6.352
   51DT      H6 1592   7.742  10.231   6.257
   51DT      C5 1593   7.822  10.087   6.410
   51DT      C7 1594   7.951  10.067   6.334
   51DT     H71 1595   8.038  10.065   6.399
   51DT     H72 1596   7.947   9.970   6.285
   51DT     H73 1597   7.962  10.142   6.255
   51DT      C4 1598   7.790  10.012   6.532
   51DT      O4 1599   7.852   9.923   6.583
   51DT      N3 1600   7.673  10.047   6.590
   51DT      H3 1601   7.653  10.001   6.678
   51DT      C2 1602   7.580  10.135   6.539
   51DT      O2 1603   7.468  10.149   6.593
   51DT     C3' 1604   7.455  10.518   6.302
   51DT     H3' 1605   7.514  10.607   6.281
   51DT     C2' 1606   7.524  10.436   6.409
   51DT    H2'1 1607   7.629  10.463   6.413
   51DT    H2'2 1608   7.477  10.446   6.507
   51DT     O3' 1609   7.322  10.547   6.336
   52DG       P 1610   7.286  10.670   6.441
   52DG     O1P 1611   7.150  10.716   6.412
   52DG     O2P 1612   7.395  10.770   6.435
   52DG     O5' 1613   7.280  10.613   6.589
   52DG     C5' 1614   7.174  10.518   6.621
   52DG    H5'1 1615   7.199  10.426   6.568
   52DG    H5'2 1616   7.077  10.556   6.586
   52DG     C4' 1617   7.157  10.491   6.766
   52DG     H4' 1618   7.059  10.449   6.784
   52DG     O4' 1619   7.247  10.388   6.805
   52DG     C1' 1620   7.329  10.440   6.904
   52DG     H1' 1621   7.305  10.401   7.003
   52DG      N9 1622   7.470  10.400   6.872
   52DG      C8 1623   7.554  10.454   6.773
   52DG      H8 1624   7.511  10.514   6.694
   52DG      N7 1625   7.670  10.390   6.763
   52DG      C5 1626   7.666  10.300   6.868
   52DG      C6 1627   7.760  10.199   6.902
   52DG      O6 1628   7.857  10.163   6.837
   52DG      N1 1629   7.726  10.127   7.012
   52DG      H1 1630   7.788  10.054   7.045
   52DG      C2 1631   7.616  10.155   7.086
   52DG      N2 1632   7.589  10.074   7.188
   52DG     H21 1633   7.656  10.004   7.216
   52DG     H22 1634   7.505  10.090   7.241
   52DG      N3 1635   7.517  10.241   7.044
   52DG      C4 1636   7.551  10.315   6.940
   52DG     C3' 1637   7.176  10.609   6.865
   52DG     H3' 1638   7.164  10.703   6.811
   52DG     C2' 1639   7.319  10.594   6.907
   52DG    H2'1 1640   7.384  10.641   6.833
   52DG    H2'2 1641   7.332  10.627   7.011
   52DG     O3' 1642   7.080  10.588   6.971
   53DC       P 1643   7.046  10.693   7.094
   53DC     O1P 1644   6.926  10.647   7.166
   53DC     O2P 1645   7.039  10.829   7.029
   53DC     O5' 1646   7.171  10.687   7.199
   53DC     C5' 1647   7.177  10.570   7.286
   53DC    H5'1 1648   7.148  10.479   7.233
   53DC    H5'2 1649   7.106  10.587   7.367
   53DC     C4' 1650   7.316  10.539   7.350
   53DC     H4' 1651   7.301  10.459   7.422
   53DC     O4' 1652   7.414  10.507   7.249
   53DC     C1' 1653   7.522  10.589   7.283
   53DC     H1' 1654   7.570  10.562   7.377
   53DC      N1 1655   7.623  10.586   7.177
   53DC      C6 1656   7.616  10.675   7.075
   53DC      H6 1657   7.530  10.741   7.073
   53DC      C5 1658   7.717  10.675   6.979
   53DC      H5 1659   7.708  10.738   6.892
   53DC      C4 1660   7.819  10.579   7.000
   53DC      N4 1661   7.904  10.556   6.905
   53DC     H41 1662   7.971  10.481   6.914
   53DC     H42 1663   7.923  10.627   6.835
   53DC      N3 1664   7.820  10.487   7.100
   53DC      C2 1665   7.720  10.488   7.187
   53DC      O2 1666   7.713  10.401   7.269
   53DC     C3' 1667   7.356  10.671   7.419
   53DC     H3' 1668   7.277  10.747   7.418
   53DC     C2' 1669   7.460  10.722   7.321
   53DC    H2'1 1670   7.416  10.778   7.239
   53DC    H2'2 1671   7.536  10.781   7.372
   53DC     O3' 1672   7.426  10.649   7.537
   54DG       P 1673   7.364  10.665   7.685
   54DG     O1P 1674   7.237  10.582   7.694
   54DG     O2P 1675   7.363  10.811   7.723
   54DG     O5' 1676   7.472  10.607   7.795
   54DG     C5' 1677   7.505  10.467   7.815
   54DG    H5'1 1678   7.504  10.412   7.721
   54DG    H5'2 1679   7.430  10.423   7.881
   54DG     C4' 1680   7.637  10.434   7.880
   54DG     H4' 1681   7.617  10.337   7.926
   54DG     O4' 1682   7.741  10.420   7.778
   54DG     C1' 1683   7.838  10.518   7.796
   54DG     H1' 1684   7.928  10.478   7.842
   54DG      N9 1685   7.872  10.571   7.662
   54DG      C8 1686   7.785  10.645   7.583
   54DG      H8 1687   7.692  10.680   7.625
   54DG      N7 1688   7.839  10.662   7.465
   54DG      C5 1689   7.963  10.604   7.468
   54DG      C6 1690   8.062  10.591   7.361
   54DG      O6 1691   8.066  10.647   7.257
   54DG      N1 1692   8.160  10.502   7.395
   54DG      H1 1693   8.233  10.475   7.330
   54DG      C2 1694   8.167  10.437   7.518
   54DG      N2 1695   8.266  10.352   7.530
   54DG     H21 1696   8.332  10.349   7.453
   54DG     H22 1697   8.291  10.312   7.619
   54DG      N3 1698   8.083  10.454   7.616
   54DG      C4 1699   7.979  10.538   7.583
   54DG     C3' 1700   7.686  10.534   7.981
   54DG     H3' 1701   7.612  10.602   8.024
   54DG     C2' 1702   7.783  10.617   7.892
   54DG    H2'1 1703   7.735  10.706   7.851
   54DG    H2'2 1704   7.868  10.655   7.948
   54DG     O3' 1705   7.741  10.454   8.090
   55DC       P 1706   7.833  10.518   8.202
   55DC     O1P 1707   7.845  10.410   8.303
   55DC     O2P 1708   7.778  10.651   8.239
   55DC     O5' 1709   7.976  10.547   8.138
   55DC     C5' 1710   8.059  10.436   8.114
   55DC    H5'1 1711   7.998  10.363   8.061
   55DC    H5'2 1712   8.096  10.400   8.210
   55DC     C4' 1713   8.184  10.476   8.027
   55DC     H4' 1714   8.251  10.391   8.019
   55DC     O4' 1715   8.135  10.537   7.909
   55DC     C1' 1716   8.214  10.653   7.894
   55DC     H1' 1717   8.306  10.605   7.862
   55DC      N1 1718   8.180  10.746   7.783
   55DC      C6 1719   8.071  10.827   7.786
   55DC      H6 1720   8.006  10.827   7.873
   55DC      C5 1721   8.045  10.904   7.670
   55DC      H5 1722   7.961  10.971   7.666
   55DC      C4 1723   8.145  10.902   7.568
   55DC      N4 1724   8.137  10.988   7.466
   55DC     H41 1725   8.212  10.999   7.400
   55DC     H42 1726   8.063  11.057   7.462
   55DC      N3 1727   8.251  10.828   7.568
   55DC      C2 1728   8.272  10.750   7.680
   55DC      O2 1729   8.372  10.677   7.664
   55DC     C3' 1730   8.255  10.587   8.107
   55DC     H3' 1731   8.231  10.589   8.213
   55DC     C2' 1732   8.230  10.720   8.038
   55DC    H2'1 1733   8.132  10.764   8.056
   55DC    H2'2 1734   8.316  10.787   8.048
   55DC     O3' 1735   8.394  10.557   8.094
   56DG       P 1736   8.475  10.515   8.221
   56DG     O1P 1737   8.428  10.387   8.261
   56DG     O2P 1738   8.462  10.629   8.313
   56DG     O5' 1739   8.619  10.502   8.169
   56DG     C5' 1740   8.657  10.411   8.060
   56DG    H5'1 1741   8.575  10.401   7.989
   56DG    H5'2 1742   8.672  10.318   8.115
   56DG     C4' 1743   8.789  10.451   7.990
   56DG     H4' 1744   8.825  10.351   7.965
   56DG     O4' 1745   8.760  10.533   7.866
   56DG     C1' 1746   8.784  10.667   7.910
   56DG     H1' 1747   8.863  10.712   7.851
   56DG      N9 1748   8.665  10.757   7.896
   56DG      C8 1749   8.570  10.797   7.982
   56DG      H8 1750   8.563  10.759   8.083
   56DG      N7 1751   8.501  10.904   7.941
   56DG      C5 1752   8.547  10.918   7.812
   56DG      C6 1753   8.509  11.015   7.710
   56DG      O6 1754   8.429  11.111   7.722
   56DG      N1 1755   8.578  11.005   7.595
   56DG      H1 1756   8.558  11.074   7.523
   56DG      C2 1757   8.684  10.920   7.581
   56DG      N2 1758   8.743  10.934   7.462
   56DG     H21 1759   8.700  10.996   7.395
   56DG     H22 1760   8.828  10.883   7.441
   56DG      N3 1761   8.728  10.835   7.674
   56DG      C4 1762   8.654  10.839   7.787
   56DG     C3' 1763   8.898  10.517   8.064
   56DG     H3' 1764   8.896  10.483   8.168
   56DG     C2' 1765   8.853  10.670   8.045
   56DG    H2'1 1766   8.788  10.710   8.123
   56DG    H2'2 1767   8.934  10.742   8.034
   56DG     O3' 1768   9.017  10.491   8.001
   57DT       P 1769   9.156  10.549   8.051
   57DT     O1P 1770   9.245  10.437   8.071
   57DT     O2P 1771   9.147  10.643   8.166
   57DT     O5' 1772   9.218  10.635   7.927
   57DT     C5' 1773   9.242  10.571   7.797
   57DT    H5'1 1774   9.144  10.539   7.761
   57DT    H5'2 1775   9.304  10.482   7.795
   57DT     C4' 1776   9.293  10.672   7.698
   57DT     H4' 1777   9.326  10.620   7.608
   57DT     O4' 1778   9.190  10.767   7.668
   57DT     C1' 1779   9.238  10.894   7.715
   57DT     H1' 1780   9.282  10.943   7.628
   57DT      N1 1781   9.119  10.965   7.763
   57DT      C6 1782   9.070  10.949   7.890
   57DT      H6 1783   9.121  10.884   7.959
   57DT      C5 1784   8.958  11.012   7.931
   57DT      C7 1785   8.897  11.007   8.077
   57DT     H71 1786   8.957  10.939   8.137
   57DT     H72 1787   8.907  11.104   8.126
   57DT     H73 1788   8.793  10.975   8.082
   57DT      C4 1789   8.880  11.102   7.842
   57DT      O4 1790   8.784  11.167   7.878
   57DT      N3 1791   8.936  11.104   7.715
   57DT      H3 1792   8.900  11.173   7.651
   57DT      C2 1793   9.059  11.049   7.674
   57DT      O2 1794   9.104  11.082   7.564
   57DT     C3' 1795   9.413  10.752   7.747
   57DT     H3' 1796   9.472  10.693   7.817
   57DT     C2' 1797   9.357  10.881   7.811
   57DT    H2'1 1798   9.338  10.866   7.917
   57DT    H2'2 1799   9.427  10.963   7.809
   57DT     O3' 1800   9.491  10.781   7.631
   58DG       P 1801   9.643  10.822   7.639
   58DG     O1P 1802   9.706  10.789   7.513
   58DG     O2P 1803   9.704  10.770   7.765
   58DG     O5' 1804   9.636  10.981   7.651
   58DG     C5' 1805   9.586  11.058   7.539
   58DG    H5'1 1806   9.493  11.008   7.513
   58DG    H5'2 1807   9.659  11.060   7.459
   58DG     C4' 1808   9.550  11.207   7.565
   58DG     H4' 1809   9.548  11.256   7.468
   58DG     O4' 1810   9.424  11.209   7.629
   58DG     C1' 1811   9.429  11.316   7.718
   58DG     H1' 1812   9.430  11.415   7.672
   58DG      N9 1813   9.324  11.315   7.822
   58DG      C8 1814   9.324  11.262   7.945
   58DG      H8 1815   9.399  11.193   7.980
   58DG      N7 1816   9.217  11.293   8.015
   58DG      C5 1817   9.134  11.367   7.926
   58DG      C6 1818   8.999  11.419   7.941
   58DG      O6 1819   8.925  11.405   8.035
   58DG      N1 1820   8.952  11.489   7.834
   58DG      H1 1821   8.866  11.541   7.840
   58DG      C2 1822   9.037  11.518   7.728
   58DG      N2 1823   8.982  11.600   7.644
   58DG     H21 1824   8.907  11.664   7.666
   58DG     H22 1825   9.033  11.623   7.559
   58DG      N3 1826   9.160  11.468   7.702
   58DG      C4 1827   9.204  11.387   7.811
   58DG     C3' 1828   9.657  11.278   7.654
   58DG     H3' 1829   9.750  11.223   7.671
   58DG     C2' 1830   9.572  11.297   7.780
   58DG    H2'1 1831   9.576  11.207   7.841
   58DG    H2'2 1832   9.601  11.387   7.835
   58DG     O3' 1833   9.683  11.410   7.604
   59DC       P 1834   9.825  11.461   7.574
   59DC     O1P 1835   9.881  11.384   7.460
   59DC     O2P 1836   9.898  11.477   7.703
   59DC     O5' 1837   9.809  11.608   7.518
   59DC     C5' 1838   9.727  11.630   7.401
   59DC    H5'1 1839   9.691  11.542   7.347
   59DC    H5'2 1840   9.785  11.686   7.327
   59DC     C4' 1841   9.596  11.709   7.437
   59DC     H4' 1842   9.534  11.694   7.348
   59DC     O4' 1843   9.522  11.658   7.552
   59DC     C1' 1844   9.454  11.763   7.606
   59DC     H1' 1845   9.377  11.795   7.536
   59DC      N1 1846   9.407  11.737   7.742
   59DC      C6 1847   9.487  11.666   7.825
   59DC      H6 1848   9.577  11.621   7.787
   59DC      C5 1849   9.440  11.629   7.944
   59DC      H5 1850   9.509  11.572   8.005
   59DC      C4 1851   9.312  11.679   7.977
   59DC      N4 1852   9.263  11.661   8.095
   59DC     H41 1853   9.171  11.703   8.102
   59DC     H42 1854   9.299  11.593   8.159
   59DC      N3 1855   9.235  11.757   7.907
   59DC      C2 1856   9.281  11.786   7.782
   59DC      O2 1857   9.210  11.845   7.702
   59DC     C3' 1858   9.629  11.857   7.475
   59DC     H3' 1859   9.738  11.857   7.475
   59DC     C2' 1860   9.567  11.864   7.613
   59DC    H2'1 1861   9.640  11.854   7.693
   59DC    H2'2 1862   9.524  11.964   7.622
   59DC     O3' 1863   9.576  11.948   7.384
   60DG       P 1864   9.625  12.096   7.386
   60DG     O1P 1865   9.625  12.140   7.248
   60DG     O2P 1866   9.757  12.095   7.456
   60DG     O5' 1867   9.523  12.184   7.460
   60DG     C5' 1868   9.400  12.217   7.404
   60DG    H5'1 1869   9.337  12.133   7.430
   60DG    H5'2 1870   9.408  12.233   7.297
   60DG     C4' 1871   9.330  12.343   7.449
   60DG     H4' 1872   9.259  12.366   7.368
   60DG     O4' 1873   9.251  12.308   7.563
   60DG     C1' 1874   9.320  12.356   7.680
   60DG     H1' 1875   9.247  12.417   7.733
   60DG      N9 1876   9.355  12.244   7.770
   60DG      C8 1877   9.465  12.167   7.777
   60DG      H8 1878   9.545  12.189   7.708
   60DG      N7 1879   9.467  12.082   7.873
   60DG      C5 1880   9.348  12.105   7.939
   60DG      C6 1881   9.296  12.060   8.065
   60DG      O6 1882   9.339  11.971   8.139
   60DG      N1 1883   9.185  12.124   8.111
   60DG      H1 1884   9.138  12.083   8.191
   60DG      C2 1885   9.117  12.215   8.036
   60DG      N2 1886   9.011  12.264   8.101
   60DG     H21 1887   8.970  12.215   8.178
   60DG     H22 1888   8.962  12.342   8.059
   60DG      N3 1889   9.159  12.258   7.917
   60DG      C4 1890   9.272  12.200   7.873
   60DG     C3' 1891   9.420  12.463   7.484
   60DG     H3' 1892   9.517  12.464   7.435
   60DG     C2' 1893   9.442  12.448   7.633
   60DG    H2'1 1894   9.543  12.412   7.654
   60DG    H2'2 1895   9.439  12.547   7.678
   60DG     O3' 1896   9.349  12.580   7.451
   61DT       P 1897   9.406  12.727   7.473
   61DT     O1P 1898   9.347  12.822   7.375
   61DT     O2P 1899   9.558  12.719   7.479
   61DT     O5' 1900   9.353  12.775   7.616
   61DT     C5' 1901   9.216  12.764   7.649
   61DT    H5'1 1902   9.184  12.667   7.611
   61DT    H5'2 1903   9.164  12.852   7.614
   61DT     C4' 1904   9.187  12.758   7.802
   61DT     H4' 1905   9.079  12.770   7.817
   61DT     O4' 1906   9.227  12.634   7.862
   61DT     C1' 1907   9.270  12.655   7.995
   61DT     H1' 1908   9.176  12.672   8.048
   61DT      N1 1909   9.345  12.534   8.047
   61DT      C6 1910   9.470  12.501   7.996
   61DT      H6 1911   9.502  12.561   7.913
   61DT      C5 1912   9.542  12.403   8.051
   61DT      C7 1913   9.683  12.375   7.995
   61DT     H71 1914   9.699  12.416   7.895
   61DT     H72 1915   9.748  12.425   8.066
   61DT     H73 1916   9.719  12.272   7.998
   61DT      C4 1917   9.495  12.330   8.164
   61DT      O4 1918   9.546  12.228   8.213
   61DT      N3 1919   9.380  12.383   8.221
   61DT      H3 1920   9.357  12.347   8.313
   61DT      C2 1921   9.303  12.477   8.168
   61DT      O2 1922   9.196  12.504   8.223
   61DT     C3' 1923   9.258  12.866   7.888
   61DT     H3' 1924   9.319  12.935   7.829
   61DT     C2' 1925   9.350  12.780   7.980
   61DT    H2'1 1926   9.446  12.754   7.935
   61DT    H2'2 1927   9.361  12.823   8.080
   61DT     O3' 1928   9.160  12.937   7.967
   62DG       P 1929   9.193  13.068   8.045
   62DG     O1P 1930   9.086  13.170   8.018
   62DG     O2P 1931   9.336  13.104   8.019
   62DG     O5' 1932   9.187  13.037   8.198
   62DG     C5' 1933   9.067  12.982   8.253
   62DG    H5'1 1934   9.033  12.906   8.183
   62DG    H5'2 1935   8.995  13.063   8.262
   62DG     C4' 1936   9.079  12.907   8.385
   62DG     H4' 1937   8.986  12.860   8.416
   62DG     O4' 1938   9.180  12.808   8.363
   62DG     C1' 1939   9.256  12.799   8.482
   62DG     H1' 1940   9.202  12.747   8.561
   62DG      N9 1941   9.374  12.707   8.465
   62DG      C8 1942   9.465  12.715   8.366
   62DG      H8 1943   9.443  12.791   8.292
   62DG      N7 1944   9.563  12.633   8.372
   62DG      C5 1945   9.528  12.553   8.481
   62DG      C6 1946   9.589  12.439   8.544
   62DG      O6 1947   9.699  12.385   8.514
   62DG      N1 1948   9.521  12.380   8.644
   62DG      H1 1949   9.575  12.310   8.692
   62DG      C2 1950   9.401  12.437   8.692
   62DG      N2 1951   9.355  12.378   8.806
   62DG     H21 1952   9.404  12.298   8.844
   62DG     H22 1953   9.279  12.418   8.859
   62DG      N3 1954   9.348  12.552   8.653
   62DG      C4 1955   9.414  12.600   8.540
   62DG     C3' 1956   9.138  12.997   8.494
   62DG     H3' 1957   9.147  13.095   8.448
   62DG     C2' 1958   9.278  12.941   8.522
   62DG    H2'1 1959   9.351  12.979   8.451
   62DG    H2'2 1960   9.298  12.950   8.629
   62DG     O3' 1961   9.060  12.982   8.611
   63DC       P 1962   9.049  13.099   8.724
   63DC     O1P 1963   8.916  13.161   8.727
   63DC     O2P 1964   9.161  13.193   8.714
   63DC     O5' 1965   9.085  13.014   8.851
   63DC     C5' 1966   8.984  12.920   8.907
   63DC    H5'1 1967   8.957  12.844   8.833
   63DC    H5'2 1968   8.892  12.974   8.929
   63DC     C4' 1969   9.034  12.839   9.027
   63DC     H4' 1970   8.951  12.777   9.062
   63DC     O4' 1971   9.139  12.749   8.992
   63DC     C1' 1972   9.249  12.785   9.077
   63DC     H1' 1973   9.251  12.731   9.172
   63DC      N1 1974   9.386  12.750   9.009
   63DC      C6 1975   9.415  12.839   8.909
   63DC      H6 1976   9.355  12.924   8.882
   63DC      C5 1977   9.521  12.808   8.831
   63DC      H5 1978   9.539  12.868   8.742
   63DC      C4 1979   9.586  12.684   8.857
   63DC      N4 1980   9.676  12.644   8.768
   63DC     H41 1981   9.735  12.568   8.797
   63DC     H42 1982   9.700  12.709   8.694
   63DC      N3 1983   9.553  12.602   8.952
   63DC      C2 1984   9.452  12.635   9.035
   63DC      O2 1985   9.417  12.568   9.132
   63DC     C3' 1986   9.085  12.933   9.139
   63DC     H3' 1987   9.033  13.028   9.126
   63DC     C2' 1988   9.231  12.932   9.124
   63DC    H2'1 1989   9.267  13.001   9.048
   63DC    H2'2 1990   9.281  12.953   9.218
   63DC     O3' 1991   9.040  12.877   9.261
   64DG3      P 1992   9.038  12.958   9.399
   64DG3    O1P 1993   8.933  12.888   9.473
   64DG3    O2P 1994   9.016  13.102   9.373
   64DG3    O5' 1995   9.171  12.926   9.480
   64DG3    C5' 1996   9.212  12.793   9.510
   64DG3   H5'1 1997   9.179  12.728   9.429
   64DG3   H5'2 1998   9.169  12.758   9.605
   64DG3    C4' 1999   9.360  12.760   9.509
   64DG3    H4' 2000   9.369  12.664   9.559
   64DG3    O4' 2001   9.413  12.751   9.381
   64DG3    C1' 2002   9.552  12.785   9.394
   64DG3    H1' 2003   9.609  12.702   9.436
   64DG3     N9 2004   9.622  12.818   9.258
   64DG3     C8 2005   9.610  12.932   9.181
   64DG3     H8 2006   9.533  13.006   9.199
   64DG3     N7 2007   9.697  12.936   9.081
   64DG3     C5 2008   9.774  12.825   9.099
   64DG3     C6 2009   9.891  12.775   9.033
   64DG3     O6 2010   9.952  12.815   8.932
   64DG3     N1 2011   9.949  12.665   9.088
   64DG3     H1 2012  10.033  12.623   9.051
   64DG3     C2 2013   9.894  12.596   9.188
   64DG3     N2 2014   9.963  12.503   9.241
   64DG3    H21 2015  10.036  12.448   9.199
   64DG3    H22 2016   9.930  12.466   9.329
   64DG3     N3 2017   9.790  12.637   9.260
   64DG3     C4 2018   9.731  12.751   9.207
   64DG3    C3' 2019   9.449  12.853   9.592
   64DG3    H3' 2020   9.399  12.940   9.634
   64DG3    C2' 2021   9.548  12.901   9.490
   64DG3   H2'1 2022   9.505  12.991   9.447
   64DG3   H2'2 2023   9.645  12.933   9.529
   64DG3    O3' 2024   9.516  12.798   9.709
   64DG3    H3T 2025   9.457  12.799   9.784
   65SOL     OW 2026   2.207   2.293   5.058
   65SOL    HW1 2027   2.285   2.239   5.047
   65SOL    HW2 2028   2.173   2.304   4.969
   66SOL     OW 2029   9.274   6.116   0.667
   66SOL    HW1 2030   9.297   6.024   0.680
   66SOL    HW2 2031   9.228   6.141   0.747
   67SOL     OW 2032   2.875   3.258  10.310
   67SOL    HW1 2033   2.780   3.264  10.314
   67SOL    HW2 2034   2.895   3.168  10.335
   68SOL     OW 2035   4.505  14.876   8.936
   68SOL    HW1 2036   4.483  14.795   8.982
   68SOL    HW2 2037   4.422   0.042   8.932
   69SOL     OW 2038   2.972   0.083  11.653
   69SOL    HW1 2039   3.048   0.094  11.709
   69SOL    HW2 2040   2.993   0.132  11.574
   70SOL     OW 2041  11.593   3.781   6.887
   70SOL    HW1 2042  11.516   3.830   6.857
   70SOL    HW2 2043  11.645   3.844   6.936
   71SOL     OW 2044  14.581   9.573   1.905
   71SOL    HW1 2045  14.669   9.568   1.942
   71SOL    HW2 2046  14.534   9.500   1.946
   72SOL     OW 2047   0.005  12.847  10.066
   72SOL    HW1 2048  14.821  12.898  10.114
   72SOL    HW2 2049   0.006  12.885   9.979
   73SOL     OW 2050   5.834  13.689   1.855
   73SOL    HW1 2051   5.812  13.700   1.763
   73SOL    HW2 2052   5.757  13.647   1.893
   74SOL     OW 2053   0.569   2.059   1.542
   74SOL    HW1 2054   0.546   2.147   1.512
   74SOL    HW2 2055   0.663   2.052   1.528
   75SOL     OW 2056  10.351   2.520  14.509
   75SOL    HW1 2057  10.339   2.521  14.604
   75SOL    HW2 2058  10.344   2.611  14.483
   76SOL     OW 2059  11.019   4.421   7.086
   76SOL    HW1 2060  11.072   4.364   7.030
   76SOL    HW2 2061  11.028   4.384   7.173
   77SOL     OW 2062   3.481  13.857  12.317
   77SOL    HW1 2063   3.545  13.898  12.374
   77SOL    HW2 2064   3.499  13.763  12.323
   78SOL     OW 2065   1.571   3.828   2.540
   78SOL    HW1 2066   1.631   3.894   2.574
   78SOL    HW2 2067   1.499   3.879   2.503
   79SOL     OW 2068  14.726   3.087  14.050
   79SOL    HW1 2069  14.691   3.176  14.062
   79SOL    HW2 2070  14.725   3.050  14.138
   80SOL     OW 2071   0.780   5.471   8.429
   80SOL    HW1 2072   0.691   5.456   8.461
   80SOL    HW2 2073   0.775   5.552   8.380
   81SOL     OW 2074   9.198   5.941   0.351
   81SOL    HW1 2075   9.282   5.894   0.349
   81SOL    HW2 2076   9.155   5.909   0.430
   82SOL     OW 2077  13.614   3.408   1.222
   82SOL    HW1 2078  13.624   3.498   1.253
   82SOL    HW2 2079  13.692   3.363   1.252
   83SOL     OW 2080   5.146   3.141   5.542
   83SOL    HW1 2081   5.168   3.196   5.616
   83SOL    HW2 2082   5.148   3.200   5.466
   84SOL     OW 2083  12.652  14.778  11.378
   84SOL    HW1 2084  12.605  14.732  11.447
   84SOL    HW2 2085  12.604  14.756  11.298
   85SOL     OW 2086   4.389   3.392   6.069
   85SOL    HW1 2087   4.346   3.380   5.985
   85SOL    HW2 2088   4.451   3.319   6.075
   86SOL     OW 2089   2.855  11.186  12.311
   86SOL    HW1 2090   2.814  11.197  12.226
   86SOL    HW2 2091   2.876  11.275  12.339
   87SOL     OW 2092   1.311  13.685   8.319
   87SOL    HW1 2093   1.271  13.741   8.385
   87SOL    HW2 2094   1.270  13.600   8.331
   88SOL     OW 2095   0.985   2.566   3.110
   88SOL    HW1 2096   0.996   2.580   3.016
   88SOL    HW2 2097   0.964   2.652   3.145
   89SOL     OW 2098   3.193   4.810   4.854
   89SOL    HW1 2099   3.170   4.801   4.947
   89SOL    HW2 2100   3.287   4.795   4.851
   90SOL     OW 2101   3.586  12.510   2.870
   90SOL    HW1 2102   3.545  12.445   2.813
   90SOL    HW2 2103   3.520  12.527   2.938
   91SOL     OW 2104  12.703   4.936   5.605
   91SOL    HW1 2105  12.788   4.978   5.591
   91SOL    HW2 2106  12.716   4.876   5.678
   92SOL     OW 2107  14.014   2.640  11.417
   92SOL    HW1 2108  14.074   2.688  11.474
   92SOL    HW2 2109  14.065   2.564  11.388
   93SOL     OW 2110  13.924   7.813   2.336
   93SOL    HW1 2111  13.924   7.852   2.423
   93SOL    HW2 2112  13.858   7.744   2.341
   94SOL     OW 2113   3.064   2.383   2.500
   94SOL    HW1 2114   2.998   2.360   2.435
   94SOL    HW2 2115   3.015   2.398   2.581
   95SOL     OW 2116   4.064   4.555   1.286
   95SOL    HW1 2117   4.095   4.622   1.346
   95SOL    HW2 2118   4.046   4.479   1.342
   96SOL     OW 2119   9.218  13.603   2.778
   96SOL    HW1 2120   9.282  13.673   2.790
   96SOL    HW2 2121   9.151  13.621   2.844
   97SOL     OW 2122  13.150   3.162  10.327
   97SOL    HW1 2123  13.198   3.143  10.408
   97SOL    HW2 2124  13.121   3.077  10.295
   98SOL     OW 2125   8.574  11.372   5.418
   98SOL    HW1 2126   8.557  11.338   5.506
   98SOL    HW2 2127   8.670  11.373   5.411
   99SOL     OW 2128   9.741   0.222   1.905
   99SOL    HW1 2129   9.722   0.313   1.928
   99SOL    HW2 2130   9.815   0.199   1.961
  100SOL     OW 2131  10.414  13.052   6.342
  100SOL    HW1 2132  10.426  13.026   6.433
  100SOL    HW2 2133  10.358  12.983   6.305
  101SOL     OW 2134  13.806  10.909  14.099
  101SOL    HW1 2135  13.768  10.902  14.011
  101SOL    HW2 2136  13.743  10.963  14.147
  102SOL     OW 2137   8.098   6.274   8.665
  102SOL    HW1 2138   8.052   6.348   8.627
  102SOL    HW2 2139   8.190   6.290   8.647
  103SOL     OW 2140   3.265  13.050  10.677
  103SOL    HW1 2141   3.245  12.968  10.632
  103SOL    HW2 2142   3.217  13.045  10.760
  104SOL     OW 2143  13.057   0.158   6.263
  104SOL    HW1 2144  13.019   0.154   6.351
  104SOL    HW2 2145  13.041   0.248   6.234
  105SOL     OW 2146  11.656  11.728  12.868
  105SOL    HW1 2147  11.696  11.741  12.783
  105SOL    HW2 2148  11.726  11.691  12.923
  106SOL     OW 2149   2.276   5.075   8.920
  106SOL    HW1 2150   2.262   5.110   8.831
  106SOL    HW2 2151   2.277   5.153   8.976
  107SOL     OW 2152  13.819   6.276  10.671
  107SOL    HW1 2153  13.743   6.224  10.696
  107SOL    HW2 2154  13.892   6.238  10.721
  108SOL     OW 2155   9.819   3.380  12.189
  108SOL    HW1 2156   9.853   3.463  12.224
  108SOL    HW2 2157   9.735   3.367  12.232
  109SOL     OW 2158   7.194   4.054   3.861
  109SOL    HW1 2159   7.155   4.127   3.909
  109SOL    HW2 2160   7.128   4.031   3.795
  110SOL     OW 2161  10.690   1.309   0.944
  110SOL    HW1 2162  10.670   1.252   0.870
  110SOL    HW2 2163  10.637   1.388   0.928
  111SOL     OW 2164  10.230   5.894  12.744
  111SOL    HW1 2165  10.259   5.805  12.762
  111SOL    HW2 2166  10.149   5.883  12.694
  112SOL     OW 2167   9.838  14.570   0.184
  112SOL    HW1 2168   9.873  14.647   0.141
  112SOL    HW2 2169   9.809  14.601   0.270
  113SOL     OW 2170   8.590   8.362   6.520
  113SOL    HW1 2171   8.579   8.267   6.524
  113SOL    HW2 2172   8.518   8.397   6.572
  114SOL     OW 2173   5.931  10.462   3.067
  114SOL    HW1 2174   5.888  10.483   3.150
  114SOL    HW2 2175   6.023  10.449   3.091
  115SOL     OW 2176   5.050  11.234  10.326
  115SOL    HW1 2177   5.013  11.215  10.412
  115SOL    HW2 2178   5.136  11.272  10.344
  116SOL     OW 2179  14.586  12.739   5.846
  116SOL    HW1 2180  14.624  12.813   5.894
  116SOL    HW2 2181  14.505  12.773   5.809
  117SOL     OW 2182  13.089   3.631   5.215
  117SOL    HW1 2183  13.178   3.617   5.183
  117SOL    HW2 2184  13.070   3.722   5.191
  118SOL     OW 2185   9.927   1.713  11.479
  118SOL    HW1 2186  10.013   1.692  11.517
  118SOL    HW2 2187   9.887   1.627  11.462
  119SOL     OW 2188   5.014  11.562   4.203
  119SOL    HW1 2189   5.084  11.578   4.139
  119SOL    HW2 2190   5.038  11.616   4.279
  120SOL     OW 2191   2.868   0.228   0.432
  120SOL    HW1 2192   2.835   0.173   0.360
  120SOL    HW2 2193   2.791   0.278   0.461
  121SOL     OW 2194   0.788   3.247   7.375
  121SOL    HW1 2195   0.811   3.333   7.339
  121SOL    HW2 2196   0.805   3.256   7.469
  122SOL     OW 2197   6.026   0.544  14.329
  122SOL    HW1 2198   5.994   0.461  14.294
  122SOL    HW2 2199   6.070   0.586  14.255
  123SOL     OW 2200  13.939   1.652   1.748
  123SOL    HW1 2201  13.951   1.709   1.824
  123SOL    HW2 2202  13.889   1.705   1.686
  124SOL     OW 2203  11.001   7.235   3.888
  124SOL    HW1 2204  10.970   7.278   3.809
  124SOL    HW2 2205  11.015   7.143   3.862
  125SOL     OW 2206  14.844  14.649   8.528
  125SOL    HW1 2207  14.815  14.573   8.477
  125SOL    HW2 2208   0.047  14.673   8.491
  126SOL     OW 2209   3.389   4.658  14.465
  126SOL    HW1 2210   3.474   4.654  14.508
  126SOL    HW2 2211   3.392   4.588  14.398
  127SOL     OW 2212   9.015   4.133   5.120
  127SOL    HW1 2213   9.057   4.220   5.124
  127SOL    HW2 2214   9.001   4.118   5.026
  128SOL     OW 2215   9.598  11.849  11.178
  128SOL    HW1 2216   9.542  11.780  11.142
  128SOL    HW2 2217   9.639  11.808  11.255
  129SOL     OW 2218  11.777  10.806   9.301
  129SOL    HW1 2219  11.761  10.785   9.209
  129SOL    HW2 2220  11.864  10.771   9.319
  130SOL     OW 2221   7.430   4.723  12.270
  130SOL    HW1 2222   7.491   4.796  12.284
  130SOL    HW2 2223   7.442   4.699  12.178
  131SOL     OW 2224  12.815   6.193  10.879
  131SOL    HW1 2225  12.728   6.153  10.882
  131SOL    HW2 2226  12.823   6.227  10.790
  132SOL     OW 2227   3.921   7.532   6.377
  132SOL    HW1 2228   3.900   7.534   6.284
  132SOL    HW2 2229   3.838   7.547   6.421
  133SOL     OW 2230   1.463  10.153  13.467
  133SOL    HW1 2231   1.493  10.087  13.529
  133SOL    HW2 2232   1.544  10.186  13.427
  134SOL     OW 2233   3.507   9.740  14.053
  134SOL    HW1 2234   3.593   9.779  14.035
  134SOL    HW2 2235   3.525   9.648  14.068
  135SOL     OW 2236  13.388   1.221  12.029
  135SOL    HW1 2237  13.475   1.214  12.069
  135SOL    HW2 2238  13.356   1.131  12.024
  136SOL     OW 2239   9.686  14.350   7.710
  136SOL    HW1 2240   9.635  14.308   7.780
  136SOL    HW2 2241   9.754  14.287   7.688
  137SOL     OW 2242  10.693   8.103   6.450
  137SOL    HW1 2243  10.766   8.045   6.428
  137SOL    HW2 2244  10.697   8.111   6.545
  138SOL     OW 2245   5.239  14.847  14.419
  138SOL    HW1 2246   5.306  14.803  14.367
  138SOL    HW2 2247   5.267   0.057  14.420
  139SOL     OW 2248  14.711  10.097   3.749
  139SOL    HW1 2249  14.622  10.081   3.720
  139SOL    HW2 2250  14.703  10.109   3.844
  140SOL     OW 2251   8.155  12.041   5.646
  140SOL    HW1 2252   8.186  12.127   5.673
  140SOL    HW2 2253   8.219  12.011   5.582
  141SOL     OW 2254   3.913   3.974   1.276
  141SOL    HW1 2255   3.869   3.893   1.248
  141SOL    HW2 2256   3.972   3.996   1.205
  142SOL     OW 2257   0.055   9.731  13.695
  142SOL    HW1 2258   0.055   9.777  13.779
  142SOL    HW2 2259   0.056   9.638  13.720
  143SOL     OW 2260   8.008   2.772   8.612
  143SOL    HW1 2261   7.943   2.702   8.617
  143SOL    HW2 2262   7.996   2.809   8.524
  144SOL     OW 2263   5.039  13.834   3.181
  144SOL    HW1 2264   4.979  13.825   3.107
  144SOL    HW2 2265   5.089  13.913   3.162
  145SOL     OW 2266  11.833   2.711   1.478
  145SOL    HW1 2267  11.905   2.652   1.458
  145SOL    HW2 2268  11.816   2.758   1.397
  146SOL     OW 2269  14.810   5.698   9.347
  146SOL    HW1 2270  14.730   5.689   9.398
  146SOL    HW2 2271  14.828   5.610   9.314
  147SOL     OW 2272   2.727   0.891   4.583
  147SOL    HW1 2273   2.657   0.882   4.519
  147SOL    HW2 2274   2.681   0.905   4.666
  148SOL     OW 2275   5.975   3.832   5.173
  148SOL    HW1 2276   5.911   3.899   5.150
  148SOL    HW2 2277   5.954   3.757   5.117
  149SOL     OW 2278   6.457   1.614  10.288
  149SOL    HW1 2279   6.522   1.634  10.355
  149SOL    HW2 2280   6.375   1.606  10.336
  150SOL     OW 2281   1.546   4.214   7.104
  150SOL    HW1 2282   1.618   4.274   7.126
  150SOL    HW2 2283   1.471   4.271   7.089
  151SOL     OW 2284  14.271   1.960   0.614
  151SOL    HW1 2285  14.195   1.943   0.670
  151SOL    HW2 2286  14.249   1.919   0.531
  152SOL     OW 2287   5.368   6.248   4.959
  152SOL    HW1 2288   5.444   6.247   5.017
  152SOL    HW2 2289   5.308   6.312   4.998
  153SOL     OW 2290   3.977   0.921  14.848
  153SOL    HW1 2291   3.925   0.882  14.778
  153SOL    HW2 2292   4.067   0.899  14.826
  154SOL     OW 2293   0.819   2.979  11.992
  154SOL    HW1 2294   0.837   2.885  11.990
  154SOL    HW2 2295   0.832   3.008  11.901
  155SOL     OW 2296  14.438  12.149   7.941
  155SOL    HW1 2297  14.414  12.132   8.032
  155SOL    HW2 2298  14.459  12.243   7.938
  156SOL     OW 2299   4.446  14.091  10.925
  156SOL    HW1 2300   4.367  14.066  10.876
  156SOL    HW2 2301   4.515  14.035  10.890
  157SOL     OW 2302   3.834  13.253  13.904
  157SOL    HW1 2303   3.879  13.322  13.952
  157SOL    HW2 2304   3.898  13.182  13.899
  158SOL     OW 2305   4.431  10.718   2.246
  158SOL    HW1 2306   4.390  10.656   2.306
  158SOL    HW2 2307   4.362  10.740   2.183
  159SOL     OW 2308   3.087   1.769   6.305
  159SOL    HW1 2309   3.036   1.765   6.224
  159SOL    HW2 2310   3.055   1.847   6.350
  160SOL     OW 2311   4.125   3.132   2.066
  160SOL    HW1 2312   4.060   3.170   2.007
  160SOL    HW2 2313   4.187   3.204   2.082
  161SOL     OW 2314   1.124   3.109  11.005
  161SOL    HW1 2315   1.082   3.178  10.953
  161SOL    HW2 2316   1.073   3.030  10.985
  162SOL     OW 2317   5.795  10.911   6.529
  162SOL    HW1 2318   5.743  10.941   6.454
  162SOL    HW2 2319   5.818  10.992   6.576
  163SOL     OW 2320   5.691   3.060   4.866
  163SOL    HW1 2321   5.742   3.140   4.855
  163SOL    HW2 2322   5.600   3.089   4.869
  164SOL     OW 2323   5.402   0.769   0.159
  164SOL    HW1 2324   5.412   0.694   0.101
  164SOL    HW2 2325   5.466   0.833   0.128
  165SOL     OW 2326   7.874   0.745   0.440
  165SOL    HW1 2327   7.909   0.810   0.379
  165SOL    HW2 2328   7.925   0.757   0.520
  166SOL     OW 2329   6.673  14.012   6.582
  166SOL    HW1 2330   6.644  14.102   6.566
  166SOL    HW2 2331   6.766  14.021   6.605
  167SOL     OW 2332  11.272  13.712   5.369
  167SOL    HW1 2333  11.279  13.675   5.457
  167SOL    HW2 2334  11.189  13.760   5.369
  168SOL     OW 2335  11.044  10.519   9.475
  168SOL    HW1 2336  10.957  10.517   9.514
  168SOL    HW2 2337  11.078  10.430   9.487
  169SOL     OW 2338  11.070  11.721  11.576
  169SOL    HW1 2339  11.017  11.663  11.631
  169SOL    HW2 2340  11.007  11.756  11.512
  170SOL     OW 2341   2.035   8.139  14.387
  170SOL    HW1 2342   2.042   8.054  14.430
  170SOL    HW2 2343   2.111   8.143  14.329
  171SOL     OW 2344   3.029  12.322   7.803
  171SOL    HW1 2345   3.040  12.227   7.811
  171SOL    HW2 2346   3.118  12.356   7.801
  172SOL     OW 2347  13.634   5.565   3.036
  172SOL    HW1 2348  13.666   5.494   3.092
  172SOL    HW2 2349  13.626   5.640   3.095
  173SOL     OW 2350  11.233   3.851  14.783
  173SOL    HW1 2351  11.225   3.899  14.866
  173SOL    HW2 2352  11.155   3.796  14.779
  174SOL     OW 2353   7.951   5.131   3.372
  174SOL    HW1 2354   7.903   5.051   3.396
  174SOL    HW2 2355   8.040   5.101   3.354
  175SOL     OW 2356  13.055   3.999   6.013
  175SOL    HW1 2357  13.031   4.088   6.041
  175SOL    HW2 2358  13.003   3.984   5.935
  176SOL     OW 2359   3.392  10.785   5.633
  176SOL    HW1 2360   3.447  10.745   5.565
  176SOL    HW2 2361   3.307  10.741   5.624
  177SOL     OW 2362   4.364  13.052   2.831
  177SOL    HW1 2363   4.318  13.017   2.907
  177SOL    HW2 2364   4.315  13.131   2.808
  178SOL     OW 2365   3.723   7.529   7.487
  178SOL    HW1 2366   3.653   7.545   7.423
  178SOL    HW2 2367   3.801   7.564   7.445
  179SOL     OW 2368   9.183   6.595   3.829
  179SOL    HW1 2369   9.208   6.564   3.741
  179SOL    HW2 2370   9.257   6.648   3.858
  180SOL     OW 2371   2.095   8.860   8.651
  180SOL    HW1 2372   2.140   8.776   8.653
  180SOL    HW2 2373   2.027   8.849   8.585
  181SOL     OW 2374  10.826   2.543   8.285
  181SOL    HW1 2375  10.808   2.453   8.314
  181SOL    HW2 2376  10.751   2.593   8.318
  182SOL     OW 2377  10.942  12.393   9.845
  182SOL    HW1 2378  10.986  12.477   9.835
  182SOL    HW2 2379  10.970  12.342   9.769
  183SOL     OW 2380   4.675   3.384   4.025
  183SOL    HW1 2381   4.596   3.340   3.992
  183SOL    HW2 2382   4.673   3.471   3.985
  184SOL     OW 2383   3.317  11.481   2.538
  184SOL    HW1 2384   3.294  11.497   2.629
  184SOL    HW2 2385   3.233  11.477   2.492
  185SOL     OW 2386   7.038   2.138   6.082
  185SOL    HW1 2387   7.040   2.177   6.170
  185SOL    HW2 2388   6.961   2.082   6.083
  186SOL     OW 2389   7.471   4.812  14.409
  186SOL    HW1 2390   7.514   4.734  14.374
  186SOL    HW2 2391   7.380   4.804  14.380
  187SOL     OW 2392   0.469   6.165   1.686
  187SOL    HW1 2393   0.426   6.102   1.628
  187SOL    HW2 2394   0.508   6.229   1.626
  188SOL     OW 2395  14.611  12.588  11.145
  188SOL    HW1 2396  14.567  12.649  11.086
  188SOL    HW2 2397  14.591  12.620  11.233
  189SOL     OW 2398   1.736   3.744  10.598
  189SOL    HW1 2399   1.720   3.747  10.692
  189SOL    HW2 2400   1.831   3.756  10.590
  190SOL     OW 2401  10.134   2.865   5.474
  190SOL    HW1 2402  10.096   2.864   5.386
  190SOL    HW2 2403  10.227   2.848   5.461
  191SOL     OW 2404   6.054   6.613   0.310
  191SOL    HW1 2405   6.056   6.673   0.385
  191SOL    HW2 2406   6.039   6.527   0.349
  192SOL     OW 2407   3.256  14.337   4.899
  192SOL    HW1 2408   3.317  14.317   4.827
  192SOL    HW2 2409   3.186  14.273   4.889
  193SOL     OW 2410   2.146   3.680   0.707
  193SOL    HW1 2411   2.083   3.673   0.635
  193SOL    HW2 2412   2.125   3.763   0.750
  194SOL     OW 2413  13.382   3.462   2.298
  194SOL    HW1 2414  13.426   3.447   2.382
  194SOL    HW2 2415  13.289   3.461   2.320
  195SOL     OW 2416  11.677  10.106   0.242
  195SOL    HW1 2417  11.742  10.082   0.176
  195SOL    HW2 2418  11.632  10.182   0.205
  196SOL     OW 2419   4.186  14.145  11.744
  196SOL    HW1 2420   4.099  14.165  11.780
  196SOL    HW2 2421   4.222  14.079  11.802
  197SOL     OW 2422   1.149   1.824   1.744
  197SOL    HW1 2423   1.229   1.773   1.756
  197SOL    HW2 2424   1.117   1.839   1.833
  198SOL     OW 2425  11.274  14.828   8.455
  198SOL    HW1 2426  11.186  14.803   8.428
  198SOL    HW2 2427  11.323  14.745   8.456
  199SOL     OW 2428  13.169   0.512   5.377
  199SOL    HW1 2429  13.223   0.588   5.355
  199SOL    HW2 2430  13.084   0.530   5.337
  200SOL     OW 2431  13.138   6.445  11.131
  200SOL    HW1 2432  13.178   6.437  11.045
  200SOL    HW2 2433  13.191   6.389  11.188
  201SOL     OW 2434   0.694   2.616   4.303
  201SOL    HW1 2435   0.698   2.711   4.289
  201SOL    HW2 2436   0.743   2.602   4.384
  202SOL     OW 2437   5.938   0.246   4.703
  202SOL    HW1 2438   5.987   0.319   4.665
  202SOL    HW2 2439   5.999   0.172   4.701
  203SOL     OW 2440   8.891   0.243  13.484
  203SOL    HW1 2441   8.971   0.199  13.456
  203SOL    HW2 2442   8.896   0.330  13.444
  204SOL     OW 2443   5.533   6.464   1.838
  204SOL    HW1 2444   5.614   6.423   1.869
  204SOL    HW2 2445   5.550   6.487   1.747
  205SOL     OW 2446   7.974  13.743   0.342
  205SOL    HW1 2447   7.971  13.652   0.372
  205SOL    HW2 2448   8.024  13.740   0.261
  206SOL     OW 2449  12.887   9.228   8.231
  206SOL    HW1 2450  12.913   9.143   8.266
  206SOL    HW2 2451  12.945   9.291   8.274
  207SOL     OW 2452   3.617   2.925   5.529
  207SOL    HW1 2453   3.625   3.019   5.544
  207SOL    HW2 2454   3.691   2.904   5.472
  208SOL     OW 2455   3.606  14.874   8.022
  208SOL    HW1 2456   3.690  14.846   8.059
  208SOL    HW2 2457   3.549   0.004   8.099
  209SOL     OW 2458   5.345   3.799   3.751
  209SOL    HW1 2459   5.302   3.827   3.670
  209SOL    HW2 2460   5.293   3.839   3.821
  210SOL     OW 2461  13.216   9.774   1.406
  210SOL    HW1 2462  13.155   9.819   1.464
  210SOL    HW2 2463  13.190   9.682   1.411
  211SOL     OW 2464   4.881   2.321  12.721
  211SOL    HW1 2465   4.872   2.402  12.771
  211SOL    HW2 2466   4.908   2.255  12.785
  212SOL     OW 2467   3.564   4.908   3.580
  212SOL    HW1 2468   3.556   4.933   3.487
  212SOL    HW2 2469   3.657   4.918   3.599
  213SOL     OW 2470  11.019  11.466   8.868
  213SOL    HW1 2471  10.979  11.511   8.942
  213SOL    HW2 2472  10.963  11.488   8.793
  214SOL     OW 2473  11.409  12.574  10.019
  214SOL    HW1 2474  11.464  12.551  10.094
  214SOL    HW2 2475  11.418  12.670  10.012
  215SOL     OW 2476   7.634   2.224   7.251
  215SOL    HW1 2477   7.602   2.311   7.274
  215SOL    HW2 2478   7.589   2.165   7.313
  216SOL     OW 2479   8.199  13.610  12.156
  216SOL    HW1 2480   8.171  13.557  12.082
  216SOL    HW2 2481   8.293  13.618  12.147
  217SOL     OW 2482  13.297  12.769   5.582
  217SOL    HW1 2483  13.379  12.786   5.536
  217SOL    HW2 2484  13.320  12.704   5.648
  218SOL     OW 2485   7.623  11.305   4.922
  218SOL    HW1 2486   7.705  11.256   4.927
  218SOL    HW2 2487   7.583  11.278   4.840
  219SOL     OW 2488  13.667   9.356   8.431
  219SOL    HW1 2489  13.758   9.367   8.402
  219SOL    HW2 2490  13.617   9.349   8.350
  220SOL     OW 2491  12.406   3.775   4.592
  220SOL    HW1 2492  12.394   3.837   4.520
  220SOL    HW2 2493  12.432   3.829   4.666
  221SOL     OW 2494   9.422   3.210  12.697
  221SOL    HW1 2495   9.450   3.278  12.636
  221SOL    HW2 2496   9.338   3.181  12.663
  222SOL     OW 2497   8.306  10.182   9.017
  222SOL    HW1 2498   8.363  10.175   9.094
  222SOL    HW2 2499   8.306  10.275   8.996
  223SOL     OW 2500  12.721   1.157   5.231
  223SOL    HW1 2501  12.681   1.195   5.153
  223SOL    HW2 2502  12.808   1.130   5.203
  224SOL     OW 2503   7.595   9.080  12.595
  224SOL    HW1 2504   7.655   9.087  12.669
  224SOL    HW2 2505   7.524   9.024  12.626
  225SOL     OW 2506  13.334   2.182   7.288
  225SOL    HW1 2507  13.370   2.093   7.282
  225SOL    HW2 2508  13.412   2.238   7.289
  226SOL     OW 2509   3.064  13.603   9.123
  226SOL    HW1 2510   3.124  13.531   9.102
  226SOL    HW2 2511   2.977  13.566   9.111
  227SOL     OW 2512  13.988  10.937   8.097
  227SOL    HW1 2513  13.982  10.985   8.180
  227SOL    HW2 2514  13.967  11.002   8.030
  228SOL     OW 2515   6.426   6.781   2.716
  228SOL    HW1 2516   6.362   6.822   2.774
  228SOL    HW2 2517   6.400   6.807   2.628
  229SOL     OW 2518  13.507  11.916   0.096
  229SOL    HW1 2519  13.438  11.887   0.036
  229SOL    HW2 2520  13.484  11.874   0.180
  230SOL     OW 2521   0.875   4.616  13.296
  230SOL    HW1 2522   0.883   4.685  13.229
  230SOL    HW2 2523   0.882   4.534  13.246
  231SOL     OW 2524   6.926   4.550  14.211
  231SOL    HW1 2525   6.951   4.516  14.297
  231SOL    HW2 2526   6.955   4.483  14.149
  232SOL     OW 2527   6.178   2.351   4.497
  232SOL    HW1 2528   6.095   2.385   4.531
  232SOL    HW2 2529   6.162   2.258   4.481
  233SOL     OW 2530  12.732   7.679  10.304
  233SOL    HW1 2531  12.817   7.636  10.313
  233SOL    HW2 2532  12.721   7.691  10.210
  234SOL     OW 2533   6.431  12.156  12.925
  234SOL    HW1 2534   6.518  12.144  12.886
  234SOL    HW2 2535   6.431  12.246  12.957
  235SOL     OW 2536   8.912   7.342   1.650
  235SOL    HW1 2537   8.870   7.332   1.736
  235SOL    HW2 2538   8.885   7.264   1.601
  236SOL     OW 2539   6.973  10.299   4.748
  236SOL    HW1 2540   7.049  10.246   4.770
  236SOL    HW2 2541   6.993  10.386   4.784
  237SOL     OW 2542  11.818   8.220   7.575
  237SOL    HW1 2543  11.808   8.293   7.514
  237SOL    HW2 2544  11.771   8.247   7.654
  238SOL     OW 2545   1.211   0.543   7.747
  238SOL    HW1 2546   1.246   0.625   7.713
  238SOL    HW2 2547   1.117   0.548   7.730
  239SOL     OW 2548   2.809  11.177   1.773
  239SOL    HW1 2549   2.816  11.169   1.678
  239SOL    HW2 2550   2.832  11.269   1.790
  240SOL     OW 2551   2.481   3.578   5.349
  240SOL    HW1 2552   2.416   3.554   5.414
  240SOL    HW2 2553   2.563   3.584   5.397
  241SOL     OW 2554   7.224   7.898  13.946
  241SOL    HW1 2555   7.234   7.820  14.001
  241SOL    HW2 2556   7.314   7.923  13.924
  242SOL     OW 2557   6.802   6.856   8.472
  242SOL    HW1 2558   6.889   6.835   8.506
  242SOL    HW2 2559   6.770   6.925   8.530
  243SOL     OW 2560   3.717   2.459   4.260
  243SOL    HW1 2561   3.804   2.423   4.275
  243SOL    HW2 2562   3.733   2.545   4.221
  244SOL     OW 2563   4.089   4.707   3.991
  244SOL    HW1 2564   4.003   4.747   3.977
  244SOL    HW2 2565   4.108   4.662   3.908
  245SOL     OW 2566   0.961   9.308   2.072
  245SOL    HW1 2567   0.971   9.399   2.042
  245SOL    HW2 2568   0.895   9.313   2.141
  246SOL     OW 2569   1.985  12.857   2.035
  246SOL    HW1 2570   2.060  12.844   2.093
  246SOL    HW2 2571   1.913  12.877   2.095
  247SOL     OW 2572   0.545   4.267   4.927
  247SOL    HW1 2573   0.597   4.247   5.005
  247SOL    HW2 2574   0.610   4.287   4.860
  248SOL     OW 2575   6.202   5.104   2.722
  248SOL    HW1 2576   6.276   5.133   2.775
  248SOL    HW2 2577   6.230   5.020   2.685
  249SOL     OW 2578   1.422   6.439  11.735
  249SOL    HW1 2579   1.448   6.377  11.802
  249SOL    HW2 2580   1.415   6.523  11.782
  250SOL     OW 2581   3.011   1.317   7.077
  250SOL    HW1 2582   2.970   1.259   7.142
  250SOL    HW2 2583   3.086   1.355   7.123
  251SOL     OW 2584  12.987   8.079   7.490
  251SOL    HW1 2585  13.044   8.153   7.512
  251SOL    HW2 2586  13.030   8.038   7.415
  252SOL     OW 2587  13.267   7.499  10.674
  252SOL    HW1 2588  13.173   7.510  10.687
  252SOL    HW2 2589  13.278   7.405  10.658
  253SOL     OW 2590  11.421   3.487  11.748
  253SOL    HW1 2591  11.418   3.451  11.659
  253SOL    HW2 2592  11.448   3.578  11.737
  254SOL     OW 2593   9.986  13.952   4.954
  254SOL    HW1 2594  10.054  13.885   4.961
  254SOL    HW2 2595   9.907  13.904   4.928
  255SOL     OW 2596  12.971  10.536   4.397
  255SOL    HW1 2597  12.977  10.561   4.489
  255SOL    HW2 2598  12.919  10.456   4.397
  256SOL     OW 2599   3.644   1.743  11.558
  256SOL    HW1 2600   3.557   1.720  11.527
  256SOL    HW2 2601   3.667   1.822  11.510
  257SOL     OW 2602   8.121  14.531   7.613
  257SOL    HW1 2603   8.216  14.526   7.598
  257SOL    HW2 2604   8.106  14.622   7.637
  258SOL     OW 2605   7.688   1.899  11.403
  258SOL    HW1 2606   7.756   1.942  11.350
  258SOL    HW2 2607   7.606   1.921  11.360
  259SOL     OW 2608  10.109  11.344  14.128
  259SOL    HW1 2609  10.183  11.312  14.179
  259SOL    HW2 2610  10.032  11.305  14.169
  260SOL     OW 2611   7.839   5.005  13.487
  260SOL    HW1 2612   7.872   4.920  13.457
  260SOL    HW2 2613   7.797   5.043  13.410
  261SOL     OW 2614   3.154   1.773  14.127
  261SOL    HW1 2615   3.119   1.862  14.136
  261SOL    HW2 2616   3.151   1.737  14.216
  262SOL     OW 2617  10.084  13.407  10.399
  262SOL    HW1 2618  10.006  13.398  10.454
  262SOL    HW2 2619  10.126  13.488  10.431
  263SOL     OW 2620  11.191  13.753  14.798
  263SOL    HW1 2621  11.175  13.722  14.709
  263SOL    HW2 2622  11.281  13.726  14.816
  264SOL     OW 2623   1.893   7.413  10.604
  264SOL    HW1 2624   1.816   7.407  10.548
  264SOL    HW2 2625   1.965   7.383  10.549
  265SOL     OW 2626   7.103   8.378  11.073
  265SOL    HW1 2627   7.103   8.363  11.168
  265SOL    HW2 2628   7.015   8.410  11.054
  266SOL     OW 2629   4.491  11.252   0.581
  266SOL    HW1 2630   4.441  11.184   0.537
  266SOL    HW2 2631   4.437  11.331   0.572
  267SOL     OW 2632   0.765   3.649   3.739
  267SOL    HW1 2633   0.757   3.681   3.829
  267SOL    HW2 2634   0.704   3.703   3.689
  268SOL     OW 2635  10.812   2.995   5.550
  268SOL    HW1 2636  10.741   2.954   5.599
  268SOL    HW2 2637  10.832   2.933   5.480
  269SOL     OW 2638   2.677   0.601   7.687
  269SOL    HW1 2639   2.679   0.586   7.781
  269SOL    HW2 2640   2.623   0.679   7.676
  270SOL     OW 2641   3.665  12.998  12.714
  270SOL    HW1 2642   3.574  13.010  12.743
  270SOL    HW2 2643   3.657  12.953  12.629
  271SOL     OW 2644   8.782   3.099  14.801
  271SOL    HW1 2645   8.717   3.028  14.805
  271SOL    HW2 2646   8.794   3.115  14.707
  272SOL     OW 2647  10.835   6.544   1.694
  272SOL    HW1 2648  10.902   6.513   1.632
  272SOL    HW2 2649  10.754   6.506   1.663
  273SOL     OW 2650   4.866   7.810  11.177
  273SOL    HW1 2651   4.814   7.731  11.167
  273SOL    HW2 2652   4.802   7.881  11.176
  274SOL     OW 2653  13.049   5.987   5.366
  274SOL    HW1 2654  12.993   6.060   5.338
  274SOL    HW2 2655  13.125   5.992   5.308
  275SOL     OW 2656   4.389   6.062   9.371
  275SOL    HW1 2657   4.392   6.053   9.467
  275SOL    HW2 2658   4.390   6.156   9.356
  276SOL     OW 2659   6.412   6.132  10.796
  276SOL    HW1 2660   6.418   6.076  10.719
  276SOL    HW2 2661   6.478   6.200  10.780
  277SOL     OW 2662  12.962   0.463   0.777
  277SOL    HW1 2663  12.874   0.488   0.749
  277SOL    HW2 2664  12.948   0.402   0.849
  278SOL     OW 2665   6.359   0.404   5.880
  278SOL    HW1 2666   6.316   0.489   5.894
  278SOL    HW2 2667   6.318   0.346   5.944
  279SOL     OW 2668   0.594   2.609   4.643
  279SOL    HW1 2669   0.608   2.678   4.708
  279SOL    HW2 2670   0.498   2.603   4.636
  280SOL     OW 2671   4.971   7.558   1.859
  280SOL    HW1 2672   4.896   7.498   1.855
  280SOL    HW2 2673   4.933   7.645   1.849
  281SOL     OW 2674   7.778  14.032  12.855
  281SOL    HW1 2675   7.712  14.065  12.915
  281SOL    HW2 2676   7.757  14.075  12.771
  282SOL     OW 2677   2.765   9.085  12.949
  282SOL    HW1 2678   2.776   9.145  13.022
  282SOL    HW2 2679   2.770   9.141  12.871
  283SOL     OW 2680   5.125   4.639  10.762
  283SOL    HW1 2681   5.218   4.620  10.759
  283SOL    HW2 2682   5.109   4.695  10.686
  284SOL     OW 2683  10.152  14.482  14.639
  284SOL    HW1 2684  10.163  14.434  14.721
  284SOL    HW2 2685  10.148  14.414  14.572
  285SOL     OW 2686   3.642  13.475   9.309
  285SOL    HW1 2687   3.594  13.451   9.230
  285SOL    HW2 2688   3.582  13.533   9.357
  286SOL     OW 2689   1.716   4.646  12.227
  286SOL    HW1 2690   1.683   4.706  12.293
  286SOL    HW2 2691   1.643   4.632  12.167
  287SOL     OW 2692  10.365   7.199  12.916
  287SOL    HW1 2693  10.449   7.157  12.901
  287SOL    HW2 2694  10.302   7.127  12.919
  288SOL     OW 2695   9.999   4.745   2.479
  288SOL    HW1 2696   9.908   4.738   2.508
  288SOL    HW2 2697  10.019   4.659   2.443
  289SOL     OW 2698   2.305   5.014   9.634
  289SOL    HW1 2699   2.230   5.020   9.574
  289SOL    HW2 2700   2.267   5.031   9.721
  290SOL     OW 2701   5.313   9.470  12.363
  290SOL    HW1 2702   5.408   9.483  12.362
  290SOL    HW2 2703   5.277   9.558  12.362
  291SOL     OW 2704   3.552   4.155  13.322
  291SOL    HW1 2705   3.593   4.074  13.291
  291SOL    HW2 2706   3.467   4.128  13.357
  292SOL     OW 2707   8.083   6.726   5.746
  292SOL    HW1 2708   8.160   6.753   5.796
  292SOL    HW2 2709   8.064   6.801   5.689
  293SOL     OW 2710   5.981  10.760  12.764
  293SOL    HW1 2711   6.047  10.827  12.750
  293SOL    HW2 2712   5.919  10.771  12.692
  294SOL     OW 2713   1.278   2.615   8.084
  294SOL    HW1 2714   1.249   2.679   8.019
  294SOL    HW2 2715   1.198   2.588   8.129
  295SOL     OW 2716   8.140  13.095  12.872
  295SOL    HW1 2717   8.120  13.039  12.947
  295SOL    HW2 2718   8.232  13.079  12.854
  296SOL     OW 2719  12.296   8.655   4.142
  296SOL    HW1 2720  12.209   8.649   4.104
  296SOL    HW2 2721  12.355   8.665   4.067
  297SOL     OW 2722   2.269   1.061   1.716
  297SOL    HW1 2723   2.277   1.049   1.811
  297SOL    HW2 2724   2.322   0.990   1.679
  298SOL     OW 2725   6.352   1.088   8.940
  298SOL    HW1 2726   6.273   1.043   8.908
  298SOL    HW2 2727   6.359   1.061   9.031
  299SOL     OW 2728  11.923   1.228   8.595
  299SOL    HW1 2729  12.002   1.180   8.623
  299SOL    HW2 2730  11.954   1.286   8.526
  300SOL     OW 2731   2.963  13.519   1.661
  300SOL    HW1 2732   3.030  13.584   1.683
  300SOL    HW2 2733   2.884  13.551   1.705
  301SOL     OW 2734   4.904   9.644  14.589
  301SOL    HW1 2735   4.918   9.738  14.603
  301SOL    HW2 2736   4.814   9.638  14.557
  302SOL     OW 2737   3.724   7.972   7.461
  302SOL    HW1 2738   3.712   7.958   7.367
  302SOL    HW2 2739   3.818   7.961   7.476
  303SOL     OW 2740  13.575   9.187   7.051
  303SOL    HW1 2741  13.627   9.267   7.046
  303SOL    HW2 2742  13.608   9.132   6.980
  304SOL     OW 2743   8.736  10.789   4.135
  304SOL    HW1 2744   8.812  10.836   4.168
  304SOL    HW2 2745   8.764  10.698   4.126
  305SOL     OW 2746  13.594   6.333   6.440
  305SOL    HW1 2747  13.554   6.280   6.370
  305SOL    HW2 2748  13.546   6.308   6.519
  306SOL     OW 2749   0.203  13.728  13.690
  306SOL    HW1 2750   0.145  13.663  13.730
  306SOL    HW2 2751   0.144  13.781  13.636
  307SOL     OW 2752   5.790   0.349  10.139
  307SOL    HW1 2753   5.869   0.308  10.175
  307SOL    HW2 2754   5.818   0.385  10.055
  308SOL     OW 2755   0.617   5.418  12.595
  308SOL    HW1 2756   0.523   5.408  12.579
  308SOL    HW2 2757   0.656   5.417  12.508
  309SOL     OW 2758   5.788   7.876   3.751
  309SOL    HW1 2759   5.758   7.862   3.841
  309SOL    HW2 2760   5.868   7.824   3.744
  310SOL     OW 2761   8.203  11.813   1.656
  310SOL    HW1 2762   8.220  11.847   1.568
  310SOL    HW2 2763   8.166  11.726   1.641
  311SOL     OW 2764   8.043   3.106  13.623
  311SOL    HW1 2765   8.020   3.199  13.622
  311SOL    HW2 2766   8.125   3.102  13.673
  312SOL     OW 2767  13.876   4.102   9.791
  312SOL    HW1 2768  13.836   4.019   9.765
  312SOL    HW2 2769  13.874   4.101   9.887
  313SOL     OW 2770   5.657   1.920   1.445
  313SOL    HW1 2771   5.693   1.979   1.512
  313SOL    HW2 2772   5.635   1.978   1.372
  314SOL     OW 2773   8.641   9.551  13.184
  314SOL    HW1 2774   8.620   9.463  13.152
  314SOL    HW2 2775   8.645   9.605  13.105
  315SOL     OW 2776  10.137   9.777   7.995
  315SOL    HW1 2777  10.068   9.716   8.022
  315SOL    HW2 2778  10.178   9.805   8.077
  316SOL     OW 2779   7.416   6.820  10.987
  316SOL    HW1 2780   7.505   6.794  11.010
  316SOL    HW2 2781   7.364   6.741  11.002
  317SOL     OW 2782  12.013   4.744   0.870
  317SOL    HW1 2783  11.950   4.807   0.905
  317SOL    HW2 2784  11.975   4.716   0.787
  318SOL     OW 2785   9.771  10.066   1.753
  318SOL    HW1 2786   9.783  10.158   1.731
  318SOL    HW2 2787   9.763  10.064   1.848
  319SOL     OW 2788  11.497  13.704  12.578
  319SOL    HW1 2789  11.409  13.675  12.553
  319SOL    HW2 2790  11.502  13.794  12.545
  320SOL     OW 2791   4.244   0.134  11.032
  320SOL    HW1 2792   4.251   0.057  11.088
  320SOL    HW2 2793   4.325   0.133  10.981
  321SOL     OW 2794  11.554   7.019   7.693
  321SOL    HW1 2795  11.557   6.924   7.689
  321SOL    HW2 2796  11.500   7.045   7.618
  322SOL     OW 2797   2.763   8.524  11.192
  322SOL    HW1 2798   2.675   8.519  11.153
  322SOL    HW2 2799   2.790   8.433  11.203
  323SOL     OW 2800  11.540   2.491  13.341
  323SOL    HW1 2801  11.523   2.583  13.321
  323SOL    HW2 2802  11.547   2.487  13.436
  324SOL     OW 2803   5.177  11.495   9.251
  324SOL    HW1 2804   5.266  11.463   9.268
  324SOL    HW2 2805   5.177  11.516   9.157
  325SOL     OW 2806  13.956  10.320   2.118
  325SOL    HW1 2807  13.934  10.390   2.179
  325SOL    HW2 2808  13.877  10.266   2.114
  326SOL     OW 2809   9.871   9.215   6.710
  326SOL    HW1 2810   9.894   9.142   6.653
  326SOL    HW2 2811   9.796   9.183   6.761
  327SOL     OW 2812   1.105   9.389   7.427
  327SOL    HW1 2813   1.013   9.407   7.444
  327SOL    HW2 2814   1.122   9.306   7.472
  328SOL     OW 2815  14.581  11.157   8.646
  328SOL    HW1 2816  14.523  11.144   8.721
  328SOL    HW2 2817  14.542  11.104   8.576
  329SOL     OW 2818   8.431   3.674   1.384
  329SOL    HW1 2819   8.433   3.672   1.288
  329SOL    HW2 2820   8.506   3.728   1.408
  330SOL     OW 2821  13.704  14.357   2.703
  330SOL    HW1 2822  13.669  14.301   2.634
  330SOL    HW2 2823  13.798  14.355   2.691
  331SOL     OW 2824   5.306   2.629   5.284
  331SOL    HW1 2825   5.401   2.624   5.298
  331SOL    HW2 2826   5.296   2.636   5.189
  332SOL     OW 2827  14.193  10.622  12.161
  332SOL    HW1 2828  14.156  10.651  12.078
  332SOL    HW2 2829  14.117  10.615  12.219
  333SOL     OW 2830   5.968  11.745   6.965
  333SOL    HW1 2831   6.020  11.665   6.980
  333SOL    HW2 2832   6.013  11.788   6.892
  334SOL     OW 2833   2.802   2.490  13.246
  334SOL    HW1 2834   2.771   2.554  13.182
  334SOL    HW2 2835   2.862   2.538  13.303
  335SOL     OW 2836   3.265  14.844  13.665
  335SOL    HW1 2837   3.202  14.861  13.735
  335SOL    HW2 2838   3.215  14.860  13.585
  336SOL     OW 2839   4.183   0.226   9.471
  336SOL    HW1 2840   4.144   0.143   9.444
  336SOL    HW2 2841   4.188   0.277   9.390
  337SOL     OW 2842   5.670   9.220  14.513
  337SOL    HW1 2843   5.597   9.210  14.574
  337SOL    HW2 2844   5.734   9.154  14.541
  338SOL     OW 2845   0.506   8.359  13.441
  338SOL    HW1 2846   0.549   8.287  13.397
  338SOL    HW2 2847   0.570   8.430  13.440
  339SOL     OW 2848   4.813  14.554   2.825
  339SOL    HW1 2849   4.752  14.554   2.751
  339SOL    HW2 2850   4.900  14.560   2.786
  340SOL     OW 2851   1.423   5.114  11.503
  340SOL    HW1 2852   1.392   5.038  11.553
  340SOL    HW2 2853   1.518   5.116  11.518
  341SOL     OW 2854   6.556   5.891   6.771
  341SOL    HW1 2855   6.607   5.867   6.693
  341SOL    HW2 2856   6.617   5.879   6.844
  342SOL     OW 2857   9.691   5.895   3.980
  342SOL    HW1 2858   9.707   5.884   4.074
  342SOL    HW2 2859   9.635   5.822   3.956
  343SOL     OW 2860   7.270   8.678  10.405
  343SOL    HW1 2861   7.225   8.600  10.439
  343SOL    HW2 2862   7.305   8.650  10.321
  344SOL     OW 2863  10.579   3.280   2.936
  344SOL    HW1 2864  10.635   3.266   2.860
  344SOL    HW2 2865  10.567   3.192   2.973
  345SOL     OW 2866   9.419   3.842   0.473
  345SOL    HW1 2867   9.367   3.792   0.410
  345SOL    HW2 2868   9.388   3.814   0.558
  346SOL     OW 2869   8.540   4.602  11.264
  346SOL    HW1 2870   8.450   4.572  11.279
  346SOL    HW2 2871   8.594   4.525  11.278
  347SOL     OW 2872  13.854   8.920   1.109
  347SOL    HW1 2873  13.921   8.920   1.178
  347SOL    HW2 2874  13.884   8.986   1.047
  348SOL     OW 2875  14.184  10.762   2.976
  348SOL    HW1 2876  14.215  10.739   2.889
  348SOL    HW2 2877  14.147  10.681   3.011
  349SOL     OW 2878   5.033  13.602   7.909
  349SOL    HW1 2879   5.123  13.583   7.936
  349SOL    HW2 2880   5.024  13.696   7.918
  350SOL     OW 2881   5.047   6.575   2.357
  350SOL    HW1 2882   5.053   6.615   2.443
  350SOL    HW2 2883   5.036   6.648   2.297
  351SOL     OW 2884   3.013   8.701   8.312
  351SOL    HW1 2885   3.004   8.782   8.362
  351SOL    HW2 2886   2.924   8.670   8.299
  352SOL     OW 2887   3.525  11.289   2.301
  352SOL    HW1 2888   3.549  11.368   2.254
  352SOL    HW2 2889   3.508  11.224   2.232
  353SOL     OW 2890   7.646   5.236   9.761
  353SOL    HW1 2891   7.599   5.221   9.843
  353SOL    HW2 2892   7.695   5.155   9.745
  354SOL     OW 2893   8.588  12.365   3.037
  354SOL    HW1 2894   8.633  12.361   3.122
  354SOL    HW2 2895   8.592  12.457   3.012
  355SOL     OW 2896  10.569  13.900   0.174
  355SOL    HW1 2897  10.605  13.967   0.116
  355SOL    HW2 2898  10.645  13.844   0.196
  356SOL     OW 2899   3.633   9.348   5.722
  356SOL    HW1 2900   3.650   9.408   5.794
  356SOL    HW2 2901   3.674   9.390   5.646
  357SOL     OW 2902   9.380   6.314   2.423
  357SOL    HW1 2903   9.388   6.260   2.501
  357SOL    HW2 2904   9.330   6.391   2.451
  358SOL     OW 2905   3.627  11.089   9.128
  358SOL    HW1 2906   3.626  11.007   9.179
  358SOL    HW2 2907   3.703  11.136   9.161
  359SOL     OW 2908  12.025  10.389  13.414
  359SOL    HW1 2909  12.019  10.381  13.319
  359SOL    HW2 2910  12.043  10.300  13.444
  360SOL     OW 2911  11.416   7.660  11.029
  360SOL    HW1 2912  11.465   7.714  11.091
  360SOL    HW2 2913  11.355   7.609  11.083
  361SOL     OW 2914   0.579  13.518   5.888
  361SOL    HW1 2915   0.514  13.501   5.956
  361SOL    HW2 2916   0.537  13.584   5.832
  362SOL     OW 2917   2.497   5.976   9.381
  362SOL    HW1 2918   2.494   6.046   9.316
  362SOL    HW2 2919   2.445   5.905   9.343
  363SOL     OW 2920   9.060  11.570   2.209
  363SOL    HW1 2921   8.989  11.509   2.228
  363SOL    HW2 2922   9.134  11.538   2.261
  364SOL     OW 2923   6.595   5.012   3.255
  364SOL    HW1 2924   6.626   4.942   3.313
  364SOL    HW2 2925   6.594   5.090   3.310
  365SOL     OW 2926   1.428  12.091   6.062
  365SOL    HW1 2927   1.402  12.016   6.117
  365SOL    HW2 2928   1.523  12.096   6.072
  366SOL     OW 2929  13.229  11.688   3.282
  366SOL    HW1 2930  13.308  11.636   3.292
  366SOL    HW2 2931  13.183  11.678   3.365
  367SOL     OW 2932  11.138  11.258   0.025
  367SOL    HW1 2933  11.049  11.252   0.060
  367SOL    HW2 2934  11.188  11.298   0.096
  368SOL     OW 2935   8.969  13.097   2.930
  368SOL    HW1 2936   8.961  13.167   2.995
  368SOL    HW2 2937   8.917  13.128   2.856
  369SOL     OW 2938   1.409   5.683   6.961
  369SOL    HW1 2939   1.379   5.744   7.029
  369SOL    HW2 2940   1.330   5.636   6.935
  370SOL     OW 2941  12.971   8.784   5.132
  370SOL    HW1 2942  12.978   8.788   5.036
  370SOL    HW2 2943  13.044   8.838   5.164
  371SOL     OW 2944   8.046  14.433  14.758
  371SOL    HW1 2945   8.045  14.351  14.708
  371SOL    HW2 2946   7.955  14.460  14.763
  372SOL     OW 2947  14.690  10.351   7.010
  372SOL    HW1 2948  14.622  10.301   7.056
  372SOL    HW2 2949  14.642  10.422   6.968
  373SOL     OW 2950   4.615   7.752   9.763
  373SOL    HW1 2951   4.625   7.817   9.832
  373SOL    HW2 2952   4.612   7.803   9.682
  374SOL     OW 2953  13.021  11.395   7.635
  374SOL    HW1 2954  12.960  11.460   7.601
  374SOL    HW2 2955  12.968  11.339   7.692
  375SOL     OW 2956   4.655   0.412   5.704
  375SOL    HW1 2957   4.728   0.448   5.754
  375SOL    HW2 2958   4.669   0.445   5.615
  376SOL     OW 2959   5.135   4.508   5.997
  376SOL    HW1 2960   5.178   4.524   5.913
  376SOL    HW2 2961   5.094   4.592   6.020
  377SOL     OW 2962  13.413   0.583   1.840
  377SOL    HW1 2963  13.503   0.560   1.816
  377SOL    HW2 2964  13.410   0.573   1.935
  378SOL     OW 2965   8.489   6.817  11.847
  378SOL    HW1 2966   8.438   6.892  11.817
  378SOL    HW2 2967   8.447   6.791  11.929
  379SOL     OW 2968  13.911  12.299   2.065
  379SOL    HW1 2969  13.906  12.355   2.142
  379SOL    HW2 2970  13.994  12.252   2.075
  380SOL     OW 2971  13.829   4.559  12.073
  380SOL    HW1 2972  13.889   4.581  12.145
  380SOL    HW2 2973  13.831   4.636  12.016
  381SOL     OW 2974   9.618   3.610   8.513
  381SOL    HW1 2975   9.533   3.577   8.483
  381SOL    HW2 2976   9.604   3.704   8.528
  382SOL     OW 2977   4.639  14.101   4.361
  382SOL    HW1 2978   4.708  14.158   4.396
  382SOL    HW2 2979   4.668  14.012   4.383
  383SOL     OW 2980   4.727   7.624   5.040
  383SOL    HW1 2981   4.775   7.620   4.957
  383SOL    HW2 2982   4.694   7.535   5.053
  384SOL     OW 2983   4.143   8.637   1.757
  384SOL    HW1 2984   4.155   8.655   1.850
  384SOL    HW2 2985   4.085   8.561   1.755
  385SOL     OW 2986   6.855   9.747  11.573
  385SOL    HW1 2987   6.905   9.767  11.494
  385SOL    HW2 2988   6.830   9.655  11.562
  386SOL     OW 2989  10.230  13.915  12.917
  386SOL    HW1 2990  10.142  13.952  12.921
  386SOL    HW2 2991  10.249  13.889  13.007
  387SOL     OW 2992   8.902   9.579   6.553
  387SOL    HW1 2993   8.830   9.633   6.586
  387SOL    HW2 2994   8.884   9.569   6.460
  388SOL     OW 2995   8.444   3.735   4.211
  388SOL    HW1 2996   8.437   3.752   4.305
  388SOL    HW2 2997   8.395   3.654   4.198
  389SOL     OW 2998  10.784   5.849   6.993
  389SOL    HW1 2999  10.735   5.820   7.070
  389SOL    HW2 3000  10.752   5.793   6.922
  390SOL     OW 3001   7.329   0.848   6.779
  390SOL    HW1 3002   7.274   0.920   6.811
  390SOL    HW2 3003   7.336   0.863   6.685
  391SOL     OW 3004   2.857   3.058   9.560
  391SOL    HW1 3005   2.819   3.131   9.609
  391SOL    HW2 3006   2.935   3.034   9.610
  392SOL     OW 3007  11.748   4.070   6.362
  392SOL    HW1 3008  11.800   3.996   6.332
  392SOL    HW2 3009  11.674   4.031   6.408
  393SOL     OW 3010   8.239   7.810   6.266
  393SOL    HW1 3011   8.191   7.881   6.310
  393SOL    HW2 3012   8.246   7.839   6.175
  394SOL     OW 3013   4.232   7.996   8.796
  394SOL    HW1 3014   4.243   7.905   8.823
  394SOL    HW2 3015   4.141   8.016   8.816
  395SOL     OW 3016   5.150   0.056  11.033
  395SOL    HW1 3017   5.198   0.111  11.094
  395SOL    HW2 3018   5.108  14.872  11.089
  396SOL     OW 3019  14.578  13.227  14.251
  396SOL    HW1 3020  14.653  13.264  14.298
  396SOL    HW2 3021  14.562  13.288  14.179
  397SOL     OW 3022  14.807   0.830   5.329
  397SOL    HW1 3023   0.003   0.808   5.278
  397SOL    HW2 3024  14.777   0.913   5.291
  398SOL     OW 3025  10.974   9.794  10.262
  398SOL    HW1 3026  10.968   9.700  10.273
  398SOL    HW2 3027  11.055   9.819  10.307
  399SOL     OW 3028  12.595   1.178   8.819
  399SOL    HW1 3029  12.586   1.084   8.803
  399SOL    HW2 3030  12.510   1.204   8.854
  400SOL     OW 3031   3.614   2.055   0.268
  400SOL    HW1 3032   3.535   2.074   0.217
  400SOL    HW2 3033   3.686   2.091   0.216
  401SOL     OW 3034  14.399   5.476  12.771
  401SOL    HW1 3035  14.474   5.478  12.711
  401SOL    HW2 3036  14.368   5.386  12.767
  402SOL     OW 3037  13.044   7.674   2.931
  402SOL    HW1 3038  13.050   7.652   2.838
  402SOL    HW2 3039  13.104   7.748   2.942
  403SOL     OW 3040   5.800  14.331   0.330
  403SOL    HW1 3041   5.731  14.368   0.274
  403SOL    HW2 3042   5.792  14.237   0.319
  404SOL     OW 3043   5.539   0.471   5.557
  404SOL    HW1 3044   5.559   0.534   5.626
  404SOL    HW2 3045   5.615   0.414   5.553
  405SOL     OW 3046  10.943   2.145   5.297
  405SOL    HW1 3047  11.034   2.118   5.279
  405SOL    HW2 3048  10.890   2.090   5.239
  406SOL     OW 3049  13.960  12.112  10.382
  406SOL    HW1 3050  13.920  12.168  10.448
  406SOL    HW2 3051  14.036  12.161  10.351
  407SOL     OW 3052   4.331   8.490   8.144
  407SOL    HW1 3053   4.332   8.571   8.092
  407SOL    HW2 3054   4.419   8.453   8.131
  408SOL     OW 3055  11.288   9.626  11.086
  408SOL    HW1 3056  11.339   9.625  11.167
  408SOL    HW2 3057  11.254   9.715  11.080
  409SOL     OW 3058   5.365   9.742   2.851
  409SOL    HW1 3059   5.397   9.654   2.831
  409SOL    HW2 3060   5.289   9.753   2.794
  410SOL     OW 3061   0.829  11.611   7.808
  410SOL    HW1 3062   0.756  11.618   7.869
  410SOL    HW2 3063   0.793  11.567   7.731
  411SOL     OW 3064   3.823  13.690   0.534
  411SOL    HW1 3065   3.841  13.612   0.587
  411SOL    HW2 3066   3.742  13.726   0.569
  412SOL     OW 3067   2.011   0.026  12.443
  412SOL    HW1 3068   2.060   0.017  12.525
  412SOL    HW2 3069   2.074   0.006  12.374
  413SOL     OW 3070  14.136  14.021   2.900
  413SOL    HW1 3071  14.148  14.109   2.935
  413SOL    HW2 3072  14.096  14.034   2.814
  414SOL     OW 3073   1.576   6.272   8.259
  414SOL    HW1 3074   1.625   6.317   8.328
  414SOL    HW2 3075   1.535   6.343   8.209
  415SOL     OW 3076  10.639  14.217   1.489
  415SOL    HW1 3077  10.641  14.248   1.399
  415SOL    HW2 3078  10.556  14.169   1.496
  416SOL     OW 3079   6.237   7.334   9.995
  416SOL    HW1 3080   6.266   7.256  10.044
  416SOL    HW2 3081   6.305   7.346   9.929
  417SOL     OW 3082  12.969   9.985  11.237
  417SOL    HW1 3083  12.907  10.058  11.234
  417SOL    HW2 3084  12.936   9.929  11.307
  418SOL     OW 3085   1.790   9.075   7.496
  418SOL    HW1 3086   1.715   9.020   7.475
  418SOL    HW2 3087   1.771   9.159   7.455
  419SOL     OW 3088   9.253   5.249  11.828
  419SOL    HW1 3089   9.242   5.154  11.817
  419SOL    HW2 3090   9.344   5.265  11.803
  420SOL     OW 3091   3.309   1.435   6.505
  420SOL    HW1 3092   3.294   1.444   6.411
  420SOL    HW2 3093   3.360   1.355   6.514
  421SOL     OW 3094   9.878  11.046  13.594
  421SOL    HW1 3095   9.804  11.070  13.538
  421SOL    HW2 3096   9.883  11.117  13.658
  422SOL     OW 3097   6.072   2.906   7.329
  422SOL    HW1 3098   6.100   2.921   7.419
  422SOL    HW2 3099   6.009   2.834   7.335
  423SOL     OW 3100  13.711   9.416  14.471
  423SOL    HW1 3101  13.799   9.386  14.445
  423SOL    HW2 3102  13.656   9.397  14.395
  424SOL     OW 3103   5.683   4.909  10.080
  424SOL    HW1 3104   5.614   4.956  10.128
  424SOL    HW2 3105   5.755   4.972  10.074
  425SOL     OW 3106   2.234  11.316   8.049
  425SOL    HW1 3107   2.208  11.406   8.031
  425SOL    HW2 3108   2.198  11.297   8.136
  426SOL     OW 3109  14.682   3.068   2.997
  426SOL    HW1 3110  14.669   2.983   2.955
  426SOL    HW2 3111  14.594   3.099   3.017
  427SOL     OW 3112   8.170   8.392   9.552
  427SOL    HW1 3113   8.102   8.334   9.588
  427SOL    HW2 3114   8.228   8.333   9.504
  428SOL     OW 3115   0.735  14.056  13.806
  428SOL    HW1 3116   0.643  14.030  13.805
  428SOL    HW2 3117   0.780  13.988  13.756
  429SOL     OW 3118   0.518   7.413   6.078
  429SOL    HW1 3119   0.546   7.416   5.986
  429SOL    HW2 3120   0.590   7.455   6.126
  430SOL     OW 3121   9.046   0.048   4.037
  430SOL    HW1 3122   9.109   0.102   3.989
  430SOL    HW2 3123   9.073   0.057   4.129
  431SOL     OW 3124   7.590  11.374   0.795
  431SOL    HW1 3125   7.510  11.427   0.799
  431SOL    HW2 3126   7.576  11.305   0.860
  432SOL     OW 3127  11.044   1.316   7.877
  432SOL    HW1 3128  11.124   1.300   7.827
  432SOL    HW2 3129  11.074   1.328   7.967
  433SOL     OW 3130  13.980   6.067  11.858
  433SOL    HW1 3131  13.938   6.081  11.774
  433SOL    HW2 3132  14.074   6.072  11.840
  434SOL     OW 3133  14.249  12.030   7.787
  434SOL    HW1 3134  14.289  12.072   7.864
  434SOL    HW2 3135  14.209  11.950   7.821
  435SOL     OW 3136   5.126  13.965  14.521
  435SOL    HW1 3137   5.160  14.051  14.547
  435SOL    HW2 3138   5.048  13.985  14.470
  436SOL     OW 3139   8.149  14.149  14.583
  436SOL    HW1 3140   8.214  14.144  14.653
  436SOL    HW2 3141   8.193  14.113  14.506
  437SOL     OW 3142   2.165   7.703   6.998
  437SOL    HW1 3143   2.243   7.648   6.987
  437SOL    HW2 3144   2.096   7.642   7.023
  438SOL     OW 3145   2.840  12.015   4.143
  438SOL    HW1 3146   2.752  12.010   4.107
  438SOL    HW2 3147   2.879  11.930   4.124
  439SOL     OW 3148  14.076   2.616  13.956
  439SOL    HW1 3149  14.154   2.670  13.944
  439SOL    HW2 3150  14.023   2.664  14.020
  440SOL     OW 3151   7.341  14.008   7.447
  440SOL    HW1 3152   7.346  13.920   7.487
  440SOL    HW2 3153   7.432  14.033   7.434
  441SOL     OW 3154   9.792   6.813  12.467
  441SOL    HW1 3155   9.724   6.850  12.523
  441SOL    HW2 3156   9.874   6.841  12.508
  442SOL     OW 3157   3.885   2.864   3.869
  442SOL    HW1 3158   3.884   2.907   3.954
  442SOL    HW2 3159   3.878   2.770   3.888
  443SOL     OW 3160  10.451   9.017   1.374
  443SOL    HW1 3161  10.490   9.093   1.416
  443SOL    HW2 3162  10.526   8.959   1.356
  444SOL     OW 3163   1.152   9.958  13.518
  444SOL    HW1 3164   1.206  10.001  13.583
  444SOL    HW2 3165   1.166  10.009  13.438
  445SOL     OW 3166   2.066  12.048   0.902
  445SOL    HW1 3167   2.142  11.991   0.894
  445SOL    HW2 3168   2.080  12.117   0.837
  446SOL     OW 3169  11.493   2.561  11.944
  446SOL    HW1 3170  11.414   2.508  11.956
  446SOL    HW2 3171  11.548   2.508  11.886
  447SOL     OW 3172  11.040  13.405  10.977
  447SOL    HW1 3173  11.052  13.311  10.981
  447SOL    HW2 3174  11.128  13.441  10.987
  448SOL     OW 3175  11.161  14.400   7.061
  448SOL    HW1 3176  11.154  14.495   7.072
  448SOL    HW2 3177  11.250  14.386   7.028
  449SOL     OW 3178   7.911  13.309   1.907
  449SOL    HW1 3179   7.870  13.385   1.867
  449SOL    HW2 3180   7.940  13.256   1.833
  450SOL     OW 3181   8.653  10.578   3.131
  450SOL    HW1 3182   8.735  10.597   3.175
  450SOL    HW2 3183   8.648  10.643   3.060
  451SOL     OW 3184  14.437   9.318   0.492
  451SOL    HW1 3185  14.363   9.258   0.483
  451SOL    HW2 3186  14.462   9.311   0.584
  452SOL     OW 3187   2.666   5.424   3.799
  452SOL    HW1 3188   2.589   5.401   3.851
  452SOL    HW2 3189   2.701   5.503   3.841
  453SOL     OW 3190   7.780   0.776  13.914
  453SOL    HW1 3191   7.725   0.838  13.961
  453SOL    HW2 3192   7.830   0.731  13.983
  454SOL     OW 3193  10.353   4.944   2.119
  454SOL    HW1 3194  10.400   4.962   2.201
  454SOL    HW2 3195  10.295   5.020   2.108
  455SOL     OW 3196   6.089   8.881   2.880
  455SOL    HW1 3197   6.111   8.802   2.829
  455SOL    HW2 3198   6.106   8.953   2.820
  456SOL     OW 3199  12.622  11.229   7.581
  456SOL    HW1 3200  12.532  11.203   7.563
  456SOL    HW2 3201  12.675  11.157   7.548
  457SOL     OW 3202   9.803  10.642  10.422
  457SOL    HW1 3203   9.875  10.705  10.417
  457SOL    HW2 3204   9.774  10.632  10.331
  458SOL     OW 3205  11.793   2.410   1.761
  458SOL    HW1 3206  11.730   2.400   1.690
  458SOL    HW2 3207  11.862   2.466   1.725
  459SOL     OW 3208   7.225   7.632  12.793
  459SOL    HW1 3209   7.309   7.586  12.787
  459SOL    HW2 3210   7.209   7.640  12.886
  460SOL     OW 3211  12.957   8.378  11.369
  460SOL    HW1 3212  13.016   8.321  11.418
  460SOL    HW2 3213  12.898   8.317  11.324
  461SOL     OW 3214   1.308  10.924   9.675
  461SOL    HW1 3215   1.288  10.888   9.761
  461SOL    HW2 3216   1.286  11.017   9.681
  462SOL     OW 3217  10.252  10.534   1.621
  462SOL    HW1 3218  10.321  10.521   1.557
  462SOL    HW2 3219  10.225  10.625   1.609
  463SOL     OW 3220  11.956   6.582  12.335
  463SOL    HW1 3221  11.935   6.489  12.340
  463SOL    HW2 3222  11.912   6.612  12.255
  464SOL     OW 3223  12.376  12.385   7.639
  464SOL    HW1 3224  12.452  12.435   7.670
  464SOL    HW2 3225  12.400  12.294   7.653
  465SOL     OW 3226   1.651   4.745  14.859
  465SOL    HW1 3227   1.638   4.734   0.071
  465SOL    HW2 3228   1.563   4.744  14.822
  466SOL     OW 3229   1.329   8.231   5.417
  466SOL    HW1 3230   1.346   8.151   5.467
  466SOL    HW2 3231   1.406   8.286   5.433
  467SOL     OW 3232   6.222   4.615  13.227
  467SOL    HW1 3233   6.179   4.653  13.304
  467SOL    HW2 3234   6.198   4.523  13.230
  468SOL     OW 3235   1.177  12.790  10.055
  468SOL    HW1 3236   1.116  12.833   9.994
  468SOL    HW2 3237   1.143  12.701  10.064
  469SOL     OW 3238   7.325   4.764   2.749
  469SOL    HW1 3239   7.373   4.846   2.761
  469SOL    HW2 3240   7.374   4.700   2.800
  470SOL     OW 3241   7.913   1.411   4.969
  470SOL    HW1 3242   7.899   1.328   4.923
  470SOL    HW2 3243   8.007   1.413   4.986
  471SOL     OW 3244   3.780  13.772  10.796
  471SOL    HW1 3245   3.718  13.818  10.851
  471SOL    HW2 3246   3.742  13.685  10.783
  472SOL     OW 3247  13.753   3.756   9.225
  472SOL    HW1 3248  13.768   3.777   9.317
  472SOL    HW2 3249  13.841   3.747   9.188
  473SOL     OW 3250   6.826   9.783  11.997
  473SOL    HW1 3251   6.838   9.852  11.931
  473SOL    HW2 3252   6.804   9.831  12.077
  474SOL     OW 3253   3.882  14.786   3.422
  474SOL    HW1 3254   3.945  14.853   3.450
  474SOL    HW2 3255   3.937  14.710   3.401
  475SOL     OW 3256  11.827   4.916   7.667
  475SOL    HW1 3257  11.816   4.994   7.612
  475SOL    HW2 3258  11.787   4.845   7.616
  476SOL     OW 3259  14.305   4.301   8.246
  476SOL    HW1 3260  14.384   4.332   8.201
  476SOL    HW2 3261  14.242   4.285   8.176
  477SOL     OW 3262   9.391   1.952  14.777
  477SOL    HW1 3263   9.311   1.977  14.823
  477SOL    HW2 3264   9.393   1.856  14.781
  478SOL     OW 3265   9.843   1.540   9.899
  478SOL    HW1 3266   9.900   1.587   9.837
  478SOL    HW2 3267   9.789   1.484   9.844
  479SOL     OW 3268   5.318   8.395   4.918
  479SOL    HW1 3269   5.229   8.385   4.883
  479SOL    HW2 3270   5.360   8.457   4.860
  480SOL     OW 3271   1.940  12.529  11.476
  480SOL    HW1 3272   1.858  12.578  11.465
  480SOL    HW2 3273   1.957  12.532  11.570
  481SOL     OW 3274   6.036   7.588   8.932
  481SOL    HW1 3275   6.014   7.626   8.847
  481SOL    HW2 3276   6.131   7.601   8.940
  482SOL     OW 3277   0.055   2.769  13.284
  482SOL    HW1 3278   0.060   2.739  13.375
  482SOL    HW2 3279   0.071   2.691  13.231
  483SOL     OW 3280  10.084   6.137   8.564
  483SOL    HW1 3281  10.075   6.162   8.656
  483SOL    HW2 3282  10.134   6.209   8.524
  484SOL     OW 3283   1.133   7.040  13.810
  484SOL    HW1 3284   1.049   7.034  13.855
  484SOL    HW2 3285   1.191   6.982  13.859
  485SOL     OW 3286  13.421  12.150   7.084
  485SOL    HW1 3287  13.434  12.071   7.033
  485SOL    HW2 3288  13.428  12.221   7.020
  486SOL     OW 3289  10.286  11.408   7.235
  486SOL    HW1 3290  10.233  11.453   7.301
  486SOL    HW2 3291  10.251  11.439   7.152
  487SOL     OW 3292   9.374   9.607   8.028
  487SOL    HW1 3293   9.455   9.590   8.075
  487SOL    HW2 3294   9.366   9.703   8.028
  488SOL     OW 3295   6.726   6.568  11.113
  488SOL    HW1 3296   6.695   6.480  11.091
  488SOL    HW2 3297   6.661   6.602  11.173
  489SOL     OW 3298  14.464  14.060  14.538
  489SOL    HW1 3299  14.377  14.092  14.558
  489SOL    HW2 3300  14.457  13.965  14.543
  490SOL     OW 3301   1.596   0.287   9.786
  490SOL    HW1 3302   1.641   0.204   9.773
  490SOL    HW2 3303   1.515   0.263   9.831
  491SOL     OW 3304   1.411   2.056   7.925
  491SOL    HW1 3305   1.417   1.999   7.848
  491SOL    HW2 3306   1.501   2.061   7.957
  492SOL     OW 3307   3.287  11.741   0.716
  492SOL    HW1 3308   3.254  11.820   0.758
  492SOL    HW2 3309   3.212  11.682   0.712
  493SOL     OW 3310   2.463  12.581  14.824
  493SOL    HW1 3311   2.498  12.506  14.776
  493SOL    HW2 3312   2.389  12.545  14.873
  494SOL     OW 3313   2.135   5.831  14.010
  494SOL    HW1 3314   2.201   5.776  13.967
  494SOL    HW2 3315   2.066   5.841  13.944
  495SOL     OW 3316   5.047   7.938   2.680
  495SOL    HW1 3317   5.026   7.910   2.590
  495SOL    HW2 3318   5.042   7.857   2.731
  496SOL     OW 3319   2.284   6.060  10.984
  496SOL    HW1 3320   2.287   6.000  11.058
  496SOL    HW2 3321   2.365   6.111  10.990
  497SOL     OW 3322   4.595   5.109  11.222
  497SOL    HW1 3323   4.541   5.030  11.222
  497SOL    HW2 3324   4.684   5.077  11.205
  498SOL     OW 3325   0.900   5.571   4.251
  498SOL    HW1 3326   0.912   5.660   4.218
  498SOL    HW2 3327   0.839   5.579   4.324
  499SOL     OW 3328   5.701  13.614   9.414
  499SOL    HW1 3329   5.752  13.540   9.381
  499SOL    HW2 3330   5.623  13.616   9.359
  500SOL     OW 3331   4.576   7.832   3.398
  500SOL    HW1 3332   4.493   7.875   3.417
  500SOL    HW2 3333   4.589   7.844   3.303
  501SOL     OW 3334  11.897   8.039   9.907
  501SOL    HW1 3335  11.953   8.044   9.829
  501SOL    HW2 3336  11.950   8.078   9.977
  502SOL     OW 3337   1.848   6.496   1.540
  502SOL    HW1 3338   1.841   6.589   1.563
  502SOL    HW2 3339   1.855   6.496   1.445
  503SOL     OW 3340   1.935  14.379  12.696
  503SOL    HW1 3341   1.842  14.380  12.673
  503SOL    HW2 3342   1.959  14.287  12.695
  504SOL     OW 3343  11.352   1.438   4.581
  504SOL    HW1 3344  11.438   1.480   4.572
  504SOL    HW2 3345  11.334   1.441   4.675
  505SOL     OW 3346   9.382  14.459   4.871
  505SOL    HW1 3347   9.364  14.433   4.780
  505SOL    HW2 3348   9.478  14.464   4.875
  506SOL     OW 3349  12.999   6.599   2.983
  506SOL    HW1 3350  12.956   6.560   2.907
  506SOL    HW2 3351  13.053   6.669   2.947
  507SOL     OW 3352   2.310   4.407   2.930
  507SOL    HW1 3353   2.292   4.324   2.976
  507SOL    HW2 3354   2.354   4.381   2.849
  508SOL     OW 3355   9.492   7.292   1.718
  508SOL    HW1 3356   9.518   7.339   1.639
  508SOL    HW2 3357   9.419   7.343   1.753
  509SOL     OW 3358   7.337   3.630  12.262
  509SOL    HW1 3359   7.342   3.540  12.230
  509SOL    HW2 3360   7.247   3.640  12.291
  510SOL     OW 3361   1.400  10.446   8.167
  510SOL    HW1 3362   1.328  10.420   8.224
  510SOL    HW2 3363   1.435  10.363   8.133
  511SOL     OW 3364   0.542   2.128   2.410
  511SOL    HW1 3365   0.552   2.186   2.334
  511SOL    HW2 3366   0.457   2.085   2.396
  512SOL     OW 3367   8.316   9.894   5.944
  512SOL    HW1 3368   8.268   9.902   5.861
  512SOL    HW2 3369   8.280   9.962   6.000
  513SOL     OW 3370   1.733   7.663   7.414
  513SOL    HW1 3371   1.718   7.724   7.342
  513SOL    HW2 3372   1.826   7.673   7.435
  514SOL     OW 3373   1.965  12.200  14.571
  514SOL    HW1 3374   1.935  12.234  14.656
  514SOL    HW2 3375   1.941  12.268  14.508
  515SOL     OW 3376  13.596   4.288   8.839
  515SOL    HW1 3377  13.600   4.368   8.786
  515SOL    HW2 3378  13.600   4.217   8.775
  516SOL     OW 3379   6.336   6.633  13.797
  516SOL    HW1 3380   6.308   6.541  13.798
  516SOL    HW2 3381   6.266   6.679  13.843
  517SOL     OW 3382   5.358   1.023   5.209
  517SOL    HW1 3383   5.346   1.075   5.289
  517SOL    HW2 3384   5.307   0.944   5.224
  518SOL     OW 3385  11.564  13.908  13.639
  518SOL    HW1 3386  11.642  13.952  13.607
  518SOL    HW2 3387  11.514  13.977  13.683
  519SOL     OW 3388   2.190   0.846   7.609
  519SOL    HW1 3389   2.274   0.871   7.570
  519SOL    HW2 3390   2.186   0.894   7.692
  520SOL     OW 3391   0.617   0.490  10.254
  520SOL    HW1 3392   0.586   0.427  10.319
  520SOL    HW2 3393   0.588   0.453  10.170
  521SOL     OW 3394   7.570   6.650   7.399
  521SOL    HW1 3395   7.572   6.673   7.492
  521SOL    HW2 3396   7.488   6.602   7.388
  522SOL     OW 3397   0.185   1.221   4.197
  522SOL    HW1 3398   0.092   1.199   4.199
  522SOL    HW2 3399   0.188   1.316   4.204
  523SOL     OW 3400   8.408   5.255   1.715
  523SOL    HW1 3401   8.376   5.257   1.625
  523SOL    HW2 3402   8.390   5.166   1.745
  524SOL     OW 3403  11.158   1.885   4.073
  524SOL    HW1 3404  11.232   1.936   4.041
  524SOL    HW2 3405  11.171   1.880   4.167
  525SOL     OW 3406  11.160   9.859  10.449
  525SOL    HW1 3407  11.255   9.847  10.441
  525SOL    HW2 3408  11.150   9.954  10.462
  526SOL     OW 3409   5.525   4.236   3.381
  526SOL    HW1 3410   5.503   4.280   3.464
  526SOL    HW2 3411   5.517   4.143   3.400
  527SOL     OW 3412   3.280  12.232   2.078
  527SOL    HW1 3413   3.345  12.165   2.102
  527SOL    HW2 3414   3.286  12.297   2.147
  528SOL     OW 3415   2.150   7.089   0.585
  528SOL    HW1 3416   2.143   7.172   0.631
  528SOL    HW2 3417   2.061   7.070   0.556
  529SOL     OW 3418   4.858   6.560  11.941
  529SOL    HW1 3419   4.850   6.507  12.020
  529SOL    HW2 3420   4.859   6.651  11.973
  530SOL     OW 3421  13.870   8.166   9.566
  530SOL    HW1 3422  13.951   8.133   9.526
  530SOL    HW2 3423  13.882   8.149   9.660
  531SOL     OW 3424   1.917   1.785   1.941
  531SOL    HW1 3425   1.977   1.807   1.869
  531SOL    HW2 3426   1.960   1.820   2.019
  532SOL     OW 3427   1.496   3.936   0.740
  532SOL    HW1 3428   1.559   3.924   0.669
  532SOL    HW2 3429   1.514   3.863   0.800
  533SOL     OW 3430   7.406  12.963   5.216
  533SOL    HW1 3431   7.483  12.948   5.161
  533SOL    HW2 3432   7.341  12.901   5.183
  534SOL     OW 3433   4.126   0.261  12.766
  534SOL    HW1 3434   4.126   0.174  12.805
  534SOL    HW2 3435   4.198   0.307  12.810
  535SOL     OW 3436   3.099   5.408   7.896
  535SOL    HW1 3437   3.085   5.501   7.918
  535SOL    HW2 3438   3.194   5.400   7.888
  536SOL     OW 3439  10.054  11.995  14.237
  536SOL    HW1 3440   9.962  12.014  14.255
  536SOL    HW2 3441  10.098  12.003  14.322
  537SOL     OW 3442  13.230  11.036  13.431
  537SOL    HW1 3443  13.160  11.020  13.494
  537SOL    HW2 3444  13.216  11.126  13.401
  538SOL     OW 3445   0.039  12.043   0.949
  538SOL    HW1 3446   0.094  11.968   0.926
  538SOL    HW2 3447  14.855  12.046   0.878
  539SOL     OW 3448  10.311   3.762   7.951
  539SOL    HW1 3449  10.355   3.712   7.883
  539SOL    HW2 3450  10.282   3.696   8.014
  540SOL     OW 3451   0.806   2.909  11.050
  540SOL    HW1 3452   0.895   2.879  11.035
  540SOL    HW2 3453   0.786   2.965  10.975
  541SOL     OW 3454  10.662  14.848  13.136
  541SOL    HW1 3455  10.674  14.783  13.066
  541SOL    HW2 3456  10.719   0.039  13.111
  542SOL     OW 3457   7.227  11.884  11.863
  542SOL    HW1 3458   7.179  11.963  11.887
  542SOL    HW2 3459   7.203  11.868  11.771
  543SOL     OW 3460   4.398   1.671   3.394
  543SOL    HW1 3461   4.446   1.622   3.461
  543SOL    HW2 3462   4.322   1.707   3.440
  544SOL     OW 3463   3.030  14.259  14.726
  544SOL    HW1 3464   2.975  14.181  14.723
  544SOL    HW2 3465   2.970  14.330  14.750
  545SOL     OW 3466  10.158  10.065   5.538
  545SOL    HW1 3467  10.183  10.082   5.628
  545SOL    HW2 3468  10.082  10.006   5.544
  546SOL     OW 3469  12.864   2.806  10.551
  546SOL    HW1 3470  12.873   2.728  10.606
  546SOL    HW2 3471  12.835   2.771  10.467
  547SOL     OW 3472  10.758  10.400   1.627
  547SOL    HW1 3473  10.836  10.363   1.587
  547SOL    HW2 3474  10.769  10.495   1.617
  548SOL     OW 3475   8.957   2.917   5.898
  548SOL    HW1 3476   9.002   3.002   5.894
  548SOL    HW2 3477   8.880   2.933   5.953
  549SOL     OW 3478  12.075   7.462   9.370
  549SOL    HW1 3479  12.067   7.373   9.404
  549SOL    HW2 3480  12.106   7.514   9.445
  550SOL     OW 3481  10.074   7.227  12.413
  550SOL    HW1 3482   9.991   7.273  12.407
  550SOL    HW2 3483  10.140   7.295  12.406
  551SOL     OW 3484  14.602  11.131   1.760
  551SOL    HW1 3485  14.583  11.089   1.676
  551SOL    HW2 3486  14.691  11.105   1.781
  552SOL     OW 3487   0.185  12.574   1.654
  552SOL    HW1 3488   0.106  12.557   1.604
  552SOL    HW2 3489   0.155  12.586   1.744
  553SOL     OW 3490   2.909  12.665  13.863
  553SOL    HW1 3491   2.892  12.692  13.772
  553SOL    HW2 3492   2.980  12.723  13.892
  554SOL     OW 3493  10.448   7.950   8.143
  554SOL    HW1 3494  10.494   7.945   8.059
  554SOL    HW2 3495  10.416   7.861   8.158
  555SOL     OW 3496  12.972  14.436   4.365
  555SOL    HW1 3497  12.932  14.437   4.452
  555SOL    HW2 3498  13.003  14.526   4.353
  556SOL     OW 3499  12.069   9.872  14.058
  556SOL    HW1 3500  12.070   9.799  13.997
  556SOL    HW2 3501  12.029   9.837  14.138
  557SOL     OW 3502   3.923  14.466   4.860
  557SOL    HW1 3503   3.898  14.513   4.780
  557SOL    HW2 3504   4.017  14.479   4.868
  558SOL     OW 3505   2.097   2.759   2.528
  558SOL    HW1 3506   2.102   2.678   2.478
  558SOL    HW2 3507   2.110   2.733   2.619
  559SOL     OW 3508  14.817   1.585  11.492
  559SOL    HW1 3509  14.834   1.675  11.463
  559SOL    HW2 3510  14.722   1.580  11.499
  560SOL     OW 3511  14.133   7.381   5.628
  560SOL    HW1 3512  14.196   7.315   5.600
  560SOL    HW2 3513  14.185   7.461   5.639
  561SOL     OW 3514   4.141   9.436   3.210
  561SOL    HW1 3515   4.195   9.428   3.132
  561SOL    HW2 3516   4.051   9.430   3.178
  562SOL     OW 3517   5.119   9.048  10.322
  562SOL    HW1 3518   5.203   9.077  10.287
  562SOL    HW2 3519   5.061   9.123  10.313
  563SOL     OW 3520   3.855   1.113   7.056
  563SOL    HW1 3521   3.857   1.020   7.035
  563SOL    HW2 3522   3.917   1.153   6.995
  564SOL     OW 3523   3.047  11.533   4.904
  564SOL    HW1 3524   3.087  11.610   4.946
  564SOL    HW2 3525   3.010  11.483   4.977
  565SOL     OW 3526   6.524   6.879   1.657
  565SOL    HW1 3527   6.567   6.796   1.674
  565SOL    HW2 3528   6.434   6.866   1.688
  566SOL     OW 3529   4.039   1.960  12.849
  566SOL    HW1 3530   4.073   1.989  12.764
  566SOL    HW2 3531   4.076   1.873  12.861
  567SOL     OW 3532  12.746  14.417   2.060
  567SOL    HW1 3533  12.700  14.358   2.120
  567SOL    HW2 3534  12.678  14.449   2.001
  568SOL     OW 3535   3.173  11.559   8.947
  568SOL    HW1 3536   3.239  11.629   8.942
  568SOL    HW2 3537   3.202  11.505   9.021
  569SOL     OW 3538   5.638   5.261   5.953
  569SOL    HW1 3539   5.553   5.305   5.943
  569SOL    HW2 3540   5.689   5.290   5.877
  570SOL     OW 3541   2.253   2.330   5.829
  570SOL    HW1 3542   2.284   2.241   5.812
  570SOL    HW2 3543   2.265   2.376   5.745
  571SOL     OW 3544   8.565  11.067   9.334
  571SOL    HW1 3545   8.576  11.145   9.280
  571SOL    HW2 3546   8.644  11.016   9.318
  572SOL     OW 3547   1.332   7.338   4.901
  572SOL    HW1 3548   1.248   7.294   4.887
  572SOL    HW2 3549   1.386   7.312   4.827
  573SOL     OW 3550  10.533   2.443  10.881
  573SOL    HW1 3551  10.508   2.352  10.870
  573SOL    HW2 3552  10.451   2.491  10.887
  574SOL     OW 3553  14.011  14.002   7.036
  574SOL    HW1 3554  14.016  14.097   7.020
  574SOL    HW2 3555  13.920  13.979   7.019
  575SOL     OW 3556  14.361   1.435  12.491
  575SOL    HW1 3557  14.313   1.390  12.561
  575SOL    HW2 3558  14.301   1.504  12.462
  576SOL     OW 3559  14.440  14.758   8.441
  576SOL    HW1 3560  14.506  14.827   8.449
  576SOL    HW2 3561  14.369  14.787   8.498
  577SOL     OW 3562   6.296  11.998   8.676
  577SOL    HW1 3563   6.306  12.088   8.707
  577SOL    HW2 3564   6.323  11.944   8.750
  578SOL     OW 3565   5.110   5.614   4.011
  578SOL    HW1 3566   5.056   5.648   4.083
  578SOL    HW2 3567   5.151   5.692   3.973
  579SOL     OW 3568   3.467   6.693  11.646
  579SOL    HW1 3569   3.415   6.614  11.660
  579SOL    HW2 3570   3.551   6.674  11.688
  580SOL     OW 3571   5.723   5.644  13.789
  580SOL    HW1 3572   5.780   5.571  13.814
  580SOL    HW2 3573   5.696   5.624  13.699
  581SOL     OW 3574   4.321   6.691  12.885
  581SOL    HW1 3575   4.263   6.644  12.824
  581SOL    HW2 3576   4.278   6.684  12.970
  582SOL     OW 3577   3.982   7.271   0.132
  582SOL    HW1 3578   3.913   7.330   0.160
  582SOL    HW2 3579   4.053   7.287   0.194
  583SOL     OW 3580  14.748  11.523   2.351
  583SOL    HW1 3581  14.704  11.588   2.405
  583SOL    HW2 3582  14.695  11.517   2.272
  584SOL     OW 3583   2.603   5.706  10.318
  584SOL    HW1 3584   2.576   5.770  10.252
  584SOL    HW2 3585   2.644   5.635  10.267
  585SOL     OW 3586   4.758  11.236  11.623
  585SOL    HW1 3587   4.796  11.155  11.657
  585SOL    HW2 3588   4.706  11.209  11.547
  586SOL     OW 3589   9.099  11.458   0.623
  586SOL    HW1 3590   9.173  11.515   0.599
  586SOL    HW2 3591   9.023  11.500   0.582
  587SOL     OW 3592   0.160   0.979   2.322
  587SOL    HW1 3593   0.240   0.936   2.292
  587SOL    HW2 3594   0.092   0.947   2.262
  588SOL     OW 3595  10.843   5.131   6.042
  588SOL    HW1 3596  10.801   5.054   6.080
  588SOL    HW2 3597  10.804   5.205   6.089
  589SOL     OW 3598   9.272   9.950  12.901
  589SOL    HW1 3599   9.178   9.959  12.887
  589SOL    HW2 3600   9.280   9.885  12.970
  590SOL     OW 3601   2.419   0.660   7.940
  590SOL    HW1 3602   2.337   0.612   7.949
  590SOL    HW2 3603   2.424   0.715   8.018
  591SOL     OW 3604   7.458  14.745   9.082
  591SOL    HW1 3605   7.518  14.774   9.012
  591SOL    HW2 3606   7.509  14.755   9.162
  592SOL     OW 3607   4.485   8.682   3.412
  592SOL    HW1 3608   4.498   8.632   3.493
  592SOL    HW2 3609   4.569   8.726   3.397
  593SOL     OW 3610  11.809  10.304  14.268
  593SOL    HW1 3611  11.827  10.287  14.360
  593SOL    HW2 3612  11.874  10.369  14.243
  594SOL     OW 3613  12.394  10.257   0.892
  594SOL    HW1 3614  12.486  10.230   0.883
  594SOL    HW2 3615  12.394  10.350   0.871
  595SOL     OW 3616   9.060   6.981  10.509
  595SOL    HW1 3617   8.988   6.996  10.570
  595SOL    HW2 3618   9.068   7.063  10.460
  596SOL     OW 3619   2.615   6.605  10.209
  596SOL    HW1 3620   2.587   6.607  10.118
  596SOL    HW2 3621   2.645   6.695  10.227
  597SOL     OW 3622   3.331  11.146   2.752
  597SOL    HW1 3623   3.296  11.235   2.759
  597SOL    HW2 3624   3.254  11.089   2.753
  598SOL     OW 3625   0.240   8.004   8.699
  598SOL    HW1 3626   0.185   8.057   8.756
  598SOL    HW2 3627   0.302   7.962   8.759
  599SOL     OW 3628  14.144   8.653  10.497
  599SOL    HW1 3629  14.208   8.590  10.465
  599SOL    HW2 3630  14.092   8.676  10.419
  600SOL     OW 3631   3.710   0.321   3.934
  600SOL    HW1 3632   3.677   0.235   3.962
  600SOL    HW2 3633   3.655   0.343   3.859
  601SOL     OW 3634   1.441   9.057   8.594
  601SOL    HW1 3635   1.535   9.056   8.612
  601SOL    HW2 3636   1.402   9.094   8.673
  602SOL     OW 3637   2.642   3.342   0.076
  602SOL    HW1 3638   2.654   3.300   0.161
  602SOL    HW2 3639   2.651   3.436   0.094
  603SOL     OW 3640   4.141   0.899   0.285
  603SOL    HW1 3641   4.094   0.841   0.225
  603SOL    HW2 3642   4.196   0.841   0.336
  604SOL     OW 3643   5.608  10.228  12.176
  604SOL    HW1 3644   5.677  10.230  12.242
  604SOL    HW2 3645   5.530  10.261  12.222
  605SOL     OW 3646   3.461   5.456   7.307
  605SOL    HW1 3647   3.394   5.505   7.355
  605SOL    HW2 3648   3.463   5.497   7.221
  606SOL     OW 3649   1.226   6.288   2.416
  606SOL    HW1 3650   1.237   6.367   2.363
  606SOL    HW2 3651   1.137   6.294   2.450
  607SOL     OW 3652  11.530  11.554  12.395
  607SOL    HW1 3653  11.550  11.590  12.481
  607SOL    HW2 3654  11.558  11.462  12.400
  608SOL     OW 3655  11.390   7.960   9.853
  608SOL    HW1 3656  11.428   7.876   9.828
  608SOL    HW2 3657  11.450   8.025   9.815
  609SOL     OW 3658  13.664   8.761   3.234
  609SOL    HW1 3659  13.732   8.829   3.228
  609SOL    HW2 3660  13.582   8.808   3.220
  610SOL     OW 3661  11.557   7.693  12.038
  610SOL    HW1 3662  11.598   7.716  12.121
  610SOL    HW2 3663  11.510   7.772  12.012
  611SOL     OW 3664   9.330   2.222  12.951
  611SOL    HW1 3665   9.238   2.243  12.932
  611SOL    HW2 3666   9.380   2.276  12.890
  612SOL     OW 3667   9.536   4.820   6.178
  612SOL    HW1 3668   9.581   4.883   6.122
  612SOL    HW2 3669   9.506   4.871   6.253
  613SOL     OW 3670   9.921   7.522   6.973
  613SOL    HW1 3671   9.937   7.601   7.026
  613SOL    HW2 3672   9.971   7.537   6.892
  614SOL     OW 3673   6.675   8.043   0.893
  614SOL    HW1 3674   6.724   7.960   0.894
  614SOL    HW2 3675   6.743   8.111   0.898
  615SOL     OW 3676   7.429  12.871   9.418
  615SOL    HW1 3677   7.495  12.810   9.385
  615SOL    HW2 3678   7.347  12.841   9.379
  616SOL     OW 3679   0.976  10.362   7.132
  616SOL    HW1 3680   0.913  10.346   7.062
  616SOL    HW2 3681   0.976  10.281   7.184
  617SOL     OW 3682  14.369   4.903  10.952
  617SOL    HW1 3683  14.338   4.816  10.977
  617SOL    HW2 3684  14.323   4.922  10.870
  618SOL     OW 3685  12.592   3.771   7.834
  618SOL    HW1 3686  12.603   3.685   7.795
  618SOL    HW2 3687  12.656   3.826   7.789
  619SOL     OW 3688  14.006   0.928   6.593
  619SOL    HW1 3689  13.938   0.995   6.594
  619SOL    HW2 3690  14.089   0.977   6.595
  620SOL     OW 3691   7.037   1.936   4.587
  620SOL    HW1 3692   6.951   1.928   4.629
  620SOL    HW2 3693   7.023   2.000   4.517
  621SOL     OW 3694   2.099   8.099   9.868
  621SOL    HW1 3695   2.193   8.117   9.872
  621SOL    HW2 3696   2.069   8.151   9.793
  622SOL     OW 3697  11.978   9.933   4.837
  622SOL    HW1 3698  11.955  10.004   4.778
  622SOL    HW2 3699  11.999   9.977   4.920
  623SOL     OW 3700  11.198   1.949  11.609
  623SOL    HW1 3701  11.149   1.876  11.646
  623SOL    HW2 3702  11.133   2.018  11.597
  624SOL     OW 3703   2.791  13.167  12.174
  624SOL    HW1 3704   2.810  13.211  12.257
  624SOL    HW2 3705   2.695  13.171  12.167
  625SOL     OW 3706   9.610   9.856   5.805
  625SOL    HW1 3707   9.524   9.890   5.832
  625SOL    HW2 3708   9.615   9.874   5.711
  626SOL     OW 3709  13.464   6.357  13.254
  626SOL    HW1 3710  13.479   6.443  13.294
  626SOL    HW2 3711  13.478   6.295  13.325
  627SOL     OW 3712   9.860   0.648   2.100
  627SOL    HW1 3713   9.929   0.588   2.129
  627SOL    HW2 3714   9.901   0.735   2.102
  628SOL     OW 3715  10.829   4.046   2.896
  628SOL    HW1 3716  10.886   4.057   2.972
  628SOL    HW2 3717  10.795   4.134   2.878
  629SOL     OW 3718  13.338   3.915   3.129
  629SOL    HW1 3719  13.265   3.933   3.069
  629SOL    HW2 3720  13.315   3.960   3.210
  630SOL     OW 3721   7.802  11.661   0.683
  630SOL    HW1 3722   7.744  11.596   0.724
  630SOL    HW2 3723   7.861  11.688   0.753
  631SOL     OW 3724  14.636   7.675   3.188
  631SOL    HW1 3725  14.551   7.702   3.224
  631SOL    HW2 3726  14.632   7.701   3.096
  632SOL     OW 3727   6.959   6.744   6.880
  632SOL    HW1 3728   6.947   6.654   6.911
  632SOL    HW2 3729   7.032   6.777   6.930
  633SOL     OW 3730   4.134   0.439  12.495
  633SOL    HW1 3731   4.145   0.369  12.559
  633SOL    HW2 3732   4.220   0.449  12.454
  634SOL     OW 3733   5.430  12.667   8.858
  634SOL    HW1 3734   5.345  12.700   8.889
  634SOL    HW2 3735   5.494  12.724   8.900
  635SOL     OW 3736   7.939  11.111  11.120
  635SOL    HW1 3737   7.978  11.176  11.061
  635SOL    HW2 3738   8.014  11.063  11.155
  636SOL     OW 3739   7.148   4.231   9.292
  636SOL    HW1 3740   7.174   4.323   9.288
  636SOL    HW2 3741   7.089   4.226   9.367
  637SOL     OW 3742   9.241   6.123   1.687
  637SOL    HW1 3743   9.332   6.116   1.715
  637SOL    HW2 3744   9.198   6.049   1.730
  638SOL     OW 3745   1.986  14.701   8.564
  638SOL    HW1 3746   2.028  14.777   8.605
  638SOL    HW2 3747   2.016  14.626   8.616
  639SOL     OW 3748   6.126  14.257   4.482
  639SOL    HW1 3749   6.084  14.185   4.435
  639SOL    HW2 3750   6.054  14.314   4.509
  640SOL     OW 3751   0.602   8.570   6.592
  640SOL    HW1 3752   0.654   8.574   6.511
  640SOL    HW2 3753   0.586   8.661   6.615
  641SOL     OW 3754   1.904   3.680   1.736
  641SOL    HW1 3755   1.992   3.678   1.698
  641SOL    HW2 3756   1.919   3.666   1.830
  642SOL     OW 3757  11.131   2.760   5.708
  642SOL    HW1 3758  11.089   2.674   5.713
  642SOL    HW2 3759  11.064   2.821   5.741
  643SOL     OW 3760  12.341   7.811   3.207
  643SOL    HW1 3761  12.394   7.738   3.174
  643SOL    HW2 3762  12.373   7.887   3.158
  644SOL     OW 3763  13.378   9.896   6.443
  644SOL    HW1 3764  13.336   9.833   6.383
  644SOL    HW2 3765  13.321   9.896   6.521
  645SOL     OW 3766   3.868   7.123   3.270
  645SOL    HW1 3767   3.775   7.145   3.257
  645SOL    HW2 3768   3.915   7.201   3.240
  646SOL     OW 3769  12.435   8.803   9.542
  646SOL    HW1 3770  12.379   8.727   9.557
  646SOL    HW2 3771  12.511   8.767   9.496
  647SOL     OW 3772   6.392   5.421  13.843
  647SOL    HW1 3773   6.347   5.504  13.829
  647SOL    HW2 3774   6.348   5.360  13.785
  648SOL     OW 3775   4.474  11.719  13.147
  648SOL    HW1 3776   4.516  11.803  13.130
  648SOL    HW2 3777   4.544  11.654  13.135
  649SOL     OW 3778   5.842   1.410   3.151
  649SOL    HW1 3779   5.932   1.442   3.156
  649SOL    HW2 3780   5.789   1.487   3.170
  650SOL     OW 3781   6.394  11.566  12.857
  650SOL    HW1 3782   6.396  11.557  12.762
  650SOL    HW2 3783   6.472  11.618  12.877
  651SOL     OW 3784  11.807   9.605  13.582
  651SOL    HW1 3785  11.732   9.664  13.566
  651SOL    HW2 3786  11.873   9.634  13.519
  652SOL     OW 3787  11.343   4.465  12.812
  652SOL    HW1 3788  11.300   4.432  12.892
  652SOL    HW2 3789  11.420   4.409  12.802
  653SOL     OW 3790   1.905   0.891   1.239
  653SOL    HW1 3791   1.870   0.845   1.163
  653SOL    HW2 3792   1.981   0.839   1.266
  654SOL     OW 3793  12.554  14.079   9.733
  654SOL    HW1 3794  12.542  14.149   9.670
  654SOL    HW2 3795  12.545  14.122   9.818
  655SOL     OW 3796   8.199   5.158   7.861
  655SOL    HW1 3797   8.172   5.103   7.788
  655SOL    HW2 3798   8.130   5.224   7.869
  656SOL     OW 3799   5.553   9.702   6.425
  656SOL    HW1 3800   5.624   9.644   6.396
  656SOL    HW2 3801   5.491   9.644   6.469
  657SOL     OW 3802  14.424   1.437  11.846
  657SOL    HW1 3803  14.410   1.342  11.843
  657SOL    HW2 3804  14.499   1.451  11.788
  658SOL     OW 3805   0.349  11.063  10.070
  658SOL    HW1 3806   0.432  11.039  10.028
  658SOL    HW2 3807   0.366  11.053  10.164
  659SOL     OW 3808  14.371  11.940  14.094
  659SOL    HW1 3809  14.357  11.896  14.011
  659SOL    HW2 3810  14.458  11.913  14.122
  660SOL     OW 3811  12.242  10.127   1.822
  660SOL    HW1 3812  12.194  10.060   1.774
  660SOL    HW2 3813  12.177  10.166   1.881
  661SOL     OW 3814  10.807   8.069   7.573
  661SOL    HW1 3815  10.723   8.060   7.529
  661SOL    HW2 3816  10.805   8.003   7.642
  662SOL     OW 3817   2.432   1.280   7.277
  662SOL    HW1 3818   2.527   1.292   7.283
  662SOL    HW2 3819   2.401   1.356   7.229
  663SOL     OW 3820   8.974   2.312   8.669
  663SOL    HW1 3821   8.986   2.260   8.749
  663SOL    HW2 3822   9.040   2.279   8.608
  664SOL     OW 3823   8.900   2.368   2.389
  664SOL    HW1 3824   8.894   2.280   2.353
  664SOL    HW2 3825   8.851   2.362   2.472
  665SOL     OW 3826  10.719   6.532   3.213
  665SOL    HW1 3827  10.711   6.439   3.234
  665SOL    HW2 3828  10.716   6.576   3.297
  666SOL     OW 3829   1.183   3.047   9.279
  666SOL    HW1 3830   1.248   3.062   9.209
  666SOL    HW2 3831   1.111   3.107   9.258
  667SOL     OW 3832   8.905   0.255   7.987
  667SOL    HW1 3833   8.962   0.194   7.939
  667SOL    HW2 3834   8.919   0.232   8.079
  668SOL     OW 3835   6.042  14.418   8.612
  668SOL    HW1 3836   6.062  14.501   8.568
  668SOL    HW2 3837   6.128  14.375   8.622
  669SOL     OW 3838   7.561   5.266   1.157
  669SOL    HW1 3839   7.619   5.282   1.082
  669SOL    HW2 3840   7.473   5.262   1.119
  670SOL     OW 3841   7.460   1.844   3.138
  670SOL    HW1 3842   7.545   1.809   3.166
  670SOL    HW2 3843   7.451   1.927   3.185
  671SOL     OW 3844   7.503   7.877   6.220
  671SOL    HW1 3845   7.481   7.941   6.152
  671SOL    HW2 3846   7.505   7.929   6.301
  672SOL     OW 3847   6.158  10.755  11.034
  672SOL    HW1 3848   6.171  10.715  11.120
  672SOL    HW2 3849   6.117  10.687  10.981
  673SOL     OW 3850  12.821   1.902   5.163
  673SOL    HW1 3851  12.766   1.934   5.091
  673SOL    HW2 3852  12.766   1.909   5.241
  674SOL     OW 3853  12.469  12.818  11.800
  674SOL    HW1 3854  12.540  12.755  11.787
  674SOL    HW2 3855  12.428  12.792  11.882
  675SOL     OW 3856  10.731  13.172  10.078
  675SOL    HW1 3857  10.728  13.262  10.044
  675SOL    HW2 3858  10.718  13.182  10.173
  676SOL     OW 3859   4.095  13.968   4.185
  676SOL    HW1 3860   4.106  13.935   4.096
  676SOL    HW2 3861   4.182  14.002   4.208
  677SOL     OW 3862   2.932  13.398  14.101
  677SOL    HW1 3863   2.895  13.313  14.079
  677SOL    HW2 3864   3.024  13.380  14.122
  678SOL     OW 3865   5.769   8.778   7.734
  678SOL    HW1 3866   5.754   8.816   7.647
  678SOL    HW2 3867   5.754   8.850   7.795
  679SOL     OW 3868  14.391   5.922  12.222
  679SOL    HW1 3869  14.439   5.946  12.143
  679SOL    HW2 3870  14.330   5.854  12.194
  680SOL     OW 3871  10.421   6.859  10.421
  680SOL    HW1 3872  10.346   6.897  10.466
  680SOL    HW2 3873  10.384   6.809  10.349
  681SOL     OW 3874  13.111   9.417   9.185
  681SOL    HW1 3875  13.129   9.364   9.107
  681SOL    HW2 3876  13.075   9.355   9.248
  682SOL     OW 3877   4.902  13.932   7.561
  682SOL    HW1 3878   4.991  13.950   7.589
  682SOL    HW2 3879   4.910  13.861   7.497
  683SOL     OW 3880   7.718   2.105   0.414
  683SOL    HW1 3881   7.804   2.143   0.431
  683SOL    HW2 3882   7.664   2.133   0.488
  684SOL     OW 3883  11.528   3.931  10.485
  684SOL    HW1 3884  11.521   3.848  10.438
  684SOL    HW2 3885  11.617   3.961  10.470
  685SOL     OW 3886  14.748  11.055   7.239
  685SOL    HW1 3887  14.662  11.096   7.244
  685SOL    HW2 3888  14.801  11.100   7.304
  686SOL     OW 3889   8.173   2.754  11.925
  686SOL    HW1 3890   8.261   2.790  11.916
  686SOL    HW2 3891   8.172   2.713  12.012
  687SOL     OW 3892  10.355   4.920  12.944
  687SOL    HW1 3893  10.322   4.889  13.028
  687SOL    HW2 3894  10.306   5.000  12.926
  688SOL     OW 3895   1.646   9.058   5.484
  688SOL    HW1 3896   1.709   9.124   5.515
  688SOL    HW2 3897   1.619   9.012   5.563
  689SOL     OW 3898  10.773   6.053  12.342
  689SOL    HW1 3899  10.865   6.029  12.354
  689SOL    HW2 3900  10.768   6.085  12.251
  690SOL     OW 3901  13.660   1.240   4.742
  690SOL    HW1 3902  13.567   1.228   4.763
  690SOL    HW2 3903  13.660   1.286   4.658
  691SOL     OW 3904   5.752   2.851   0.291
  691SOL    HW1 3905   5.759   2.932   0.343
  691SOL    HW2 3906   5.693   2.874   0.220
  692SOL     OW 3907   2.102   2.000   4.044
  692SOL    HW1 3908   2.044   2.008   4.119
  692SOL    HW2 3909   2.050   2.029   3.970
  693SOL     OW 3910   8.547   5.812   1.883
  693SOL    HW1 3911   8.613   5.825   1.952
  693SOL    HW2 3912   8.531   5.718   1.882
  694SOL     OW 3913   1.366   1.232   2.389
  694SOL    HW1 3914   1.419   1.152   2.380
  694SOL    HW2 3915   1.414   1.298   2.339
  695SOL     OW 3916   9.679  12.199  12.874
  695SOL    HW1 3917   9.759  12.150  12.893
  695SOL    HW2 3918   9.634  12.204  12.958
  696SOL     OW 3919   6.576  10.440   0.148
  696SOL    HW1 3920   6.505  10.496   0.118
  696SOL    HW2 3921   6.610  10.398   0.069
  697SOL     OW 3922  13.351   9.381   6.107
  697SOL    HW1 3923  13.297   9.399   6.184
  697SOL    HW2 3924  13.314   9.435   6.038
  698SOL     OW 3925   3.115  10.705   1.148
  698SOL    HW1 3926   3.182  10.658   1.198
  698SOL    HW2 3927   3.033  10.663   1.173
  699SOL     OW 3928   9.168   1.170  12.890
  699SOL    HW1 3929   9.119   1.087  12.897
  699SOL    HW2 3930   9.200   1.170  12.800
  700SOL     OW 3931   5.475   6.988   6.141
  700SOL    HW1 3932   5.528   6.909   6.129
  700SOL    HW2 3933   5.389   6.964   6.107
  701SOL     OW 3934  14.258   7.020   3.484
  701SOL    HW1 3935  14.258   7.015   3.580
  701SOL    HW2 3936  14.264   7.113   3.465
  702SOL     OW 3937   3.120   6.551  11.535
  702SOL    HW1 3938   3.118   6.456  11.529
  702SOL    HW2 3939   3.065   6.572  11.610
  703SOL     OW 3940   5.382   7.013   7.633
  703SOL    HW1 3941   5.385   7.072   7.709
  703SOL    HW2 3942   5.414   7.067   7.561
  704SOL     OW 3943   9.251  13.588   4.468
  704SOL    HW1 3944   9.169  13.566   4.424
  704SOL    HW2 3945   9.232  13.578   4.561
  705SOL     OW 3946  14.016   7.700  12.278
  705SOL    HW1 3947  14.061   7.705  12.193
  705SOL    HW2 3948  13.971   7.784  12.286
  706SOL     OW 3949  12.207  14.712   5.741
  706SOL    HW1 3950  12.158  14.788   5.708
  706SOL    HW2 3951  12.271  14.749   5.801
  707SOL     OW 3952   3.342   7.167   5.417
  707SOL    HW1 3953   3.311   7.119   5.340
  707SOL    HW2 3954   3.435   7.182   5.399
  708SOL     OW 3955  11.997  13.722   8.078
  708SOL    HW1 3956  11.998  13.768   7.995
  708SOL    HW2 3957  12.022  13.787   8.143
  709SOL     OW 3958  10.623   4.667  13.006
  709SOL    HW1 3959  10.557   4.598  13.001
  709SOL    HW2 3960  10.598   4.728  12.936
  710SOL     OW 3961   3.895  14.440   1.106
  710SOL    HW1 3962   3.861  14.376   1.043
  710SOL    HW2 3963   3.829  14.443   1.175
  711SOL     OW 3964  14.600   9.406   4.068
  711SOL    HW1 3965  14.537   9.339   4.092
  711SOL    HW2 3966  14.577   9.430   3.978
  712SOL     OW 3967   9.104  13.690  13.226
  712SOL    HW1 3968   9.061  13.657  13.147
  712SOL    HW2 3969   9.048  13.762  13.255
  713SOL     OW 3970   4.500  12.251   7.022
  713SOL    HW1 3971   4.453  12.179   6.980
  713SOL    HW2 3972   4.503  12.319   6.955
  714SOL     OW 3973  10.559   5.570   6.483
  714SOL    HW1 3974  10.638   5.622   6.468
  714SOL    HW2 3975  10.590   5.479   6.481
  715SOL     OW 3976  11.110   4.791   9.195
  715SOL    HW1 3977  11.178   4.751   9.249
  715SOL    HW2 3978  11.153   4.867   9.155
  716SOL     OW 3979   2.351   3.159   0.390
  716SOL    HW1 3980   2.327   3.143   0.482
  716SOL    HW2 3981   2.275   3.204   0.353
  717SOL     OW 3982   6.875  14.551   6.454
  717SOL    HW1 3983   6.790  14.548   6.410
  717SOL    HW2 3984   6.862  14.503   6.535
  718SOL     OW 3985  10.963   1.588  11.400
  718SOL    HW1 3986  10.913   1.669  11.415
  718SOL    HW2 3987  11.042   1.617  11.353
  719SOL     OW 3988   2.363   0.434   7.378
  719SOL    HW1 3989   2.383   0.518   7.419
  719SOL    HW2 3990   2.426   0.373   7.415
  720SOL     OW 3991   5.215   5.709   0.198
  720SOL    HW1 3992   5.195   5.741   0.286
  720SOL    HW2 3993   5.299   5.665   0.207
  721SOL     OW 3994   1.962   9.903  12.090
  721SOL    HW1 3995   1.888   9.924  12.148
  721SOL    HW2 3996   1.933   9.825  12.042
  722SOL     OW 3997  14.126   7.698  14.129
  722SOL    HW1 3998  14.127   7.638  14.054
  722SOL    HW2 3999  14.158   7.647  14.202
  723SOL     OW 4000   5.494  12.368   7.276
  723SOL    HW1 4001   5.539  12.302   7.328
  723SOL    HW2 4002   5.483  12.328   7.190
  724SOL     OW 4003   7.249  10.575   1.956
  724SOL    HW1 4004   7.313  10.505   1.966
  724SOL    HW2 4005   7.217  10.566   1.866
  725SOL     OW 4006   0.029  13.052   1.896
  725SOL    HW1 4007   0.017  13.084   1.807
  725SOL    HW2 4008   0.115  13.086   1.922
  726SOL     OW 4009   5.114   2.695   3.923
  726SOL    HW1 4010   5.040   2.755   3.931
  726SOL    HW2 4011   5.190   2.753   3.917
  727SOL     OW 4012   1.906   8.859   8.435
  727SOL    HW1 4013   1.913   8.949   8.469
  727SOL    HW2 4014   1.876   8.870   8.345
  728SOL     OW 4015   8.041   2.183   6.072
  728SOL    HW1 4016   8.130   2.193   6.108
  728SOL    HW2 4017   8.015   2.272   6.047
  729SOL     OW 4018   1.173   4.483  10.471
  729SOL    HW1 4019   1.210   4.520  10.551
  729SOL    HW2 4020   1.236   4.507  10.402
  730SOL     OW 4021  13.118  11.835   3.787
  730SOL    HW1 4022  13.067  11.899   3.738
  730SOL    HW2 4023  13.064  11.813   3.863
  731SOL     OW 4024  10.806   6.167   4.026
  731SOL    HW1 4025  10.858   6.109   3.971
  731SOL    HW2 4026  10.808   6.251   3.980
  732SOL     OW 4027   2.156   6.791  14.854
  732SOL    HW1 4028   2.069   6.823  14.877
  732SOL    HW2 4029   2.145   6.748  14.769
  733SOL     OW 4030   0.392   4.867  14.461
  733SOL    HW1 4031   0.457   4.892  14.395
  733SOL    HW2 4032   0.445   4.840  14.536
  734SOL     OW 4033  12.507  12.118  13.428
  734SOL    HW1 4034  12.448  12.107  13.503
  734SOL    HW2 4035  12.455  12.092  13.352
  735SOL     OW 4036  14.556  12.149   6.513
  735SOL    HW1 4037  14.622  12.165   6.445
  735SOL    HW2 4038  14.570  12.218   6.577
  736SOL     OW 4039   6.109   3.689  10.421
  736SOL    HW1 4040   6.203   3.679  10.436
  736SOL    HW2 4041   6.089   3.777  10.452
  737SOL     OW 4042   2.874   1.530   1.190
  737SOL    HW1 4043   2.857   1.622   1.207
  737SOL    HW2 4044   2.797   1.484   1.223
  738SOL     OW 4045   4.999  12.925  12.705
  738SOL    HW1 4046   5.077  12.884  12.745
  738SOL    HW2 4047   4.951  12.851  12.667
  739SOL     OW 4048   2.920   6.186   2.972
  739SOL    HW1 4049   2.948   6.209   3.060
  739SOL    HW2 4050   2.839   6.136   2.984
  740SOL     OW 4051  12.879  12.843  13.534
  740SOL    HW1 4052  12.804  12.829  13.592
  740SOL    HW2 4053  12.955  12.830  13.590
  741SOL     OW 4054   8.201   4.288   2.579
  741SOL    HW1 4055   8.252   4.272   2.658
  741SOL    HW2 4056   8.115   4.313   2.610
  742SOL     OW 4057   2.171   5.621  10.946
  742SOL    HW1 4058   2.164   5.536  10.990
  742SOL    HW2 4059   2.086   5.663  10.962
  743SOL     OW 4060   4.478  10.786  11.143
  743SOL    HW1 4061   4.487  10.755  11.233
  743SOL    HW2 4062   4.397  10.745  11.113
  744SOL     OW 4063   5.383  11.356   2.937
  744SOL    HW1 4064   5.435  11.277   2.923
  744SOL    HW2 4065   5.298  11.338   2.897
  745SOL     OW 4066   0.728  14.626   8.311
  745SOL    HW1 4067   0.761  14.706   8.351
  745SOL    HW2 4068   0.688  14.655   8.229
  746SOL     OW 4069  13.787  14.434   4.703
  746SOL    HW1 4070  13.717  14.446   4.638
  746SOL    HW2 4071  13.859  14.395   4.653
  747SOL     OW 4072   8.501   8.800   5.640
  747SOL    HW1 4073   8.422   8.756   5.671
  747SOL    HW2 4074   8.532   8.850   5.715
  748SOL     OW 4075  12.073   3.031   7.019
  748SOL    HW1 4076  12.045   3.006   7.108
  748SOL    HW2 4077  12.105   3.121   7.029
  749SOL     OW 4078   4.873   7.281   2.681
  749SOL    HW1 4079   4.800   7.252   2.735
  749SOL    HW2 4080   4.924   7.338   2.739
  750SOL     OW 4081  13.694  11.864  13.296
  750SOL    HW1 4082  13.682  11.773  13.270
  750SOL    HW2 4083  13.608  11.891  13.327
  751SOL     OW 4084   3.930   8.489   6.827
  751SOL    HW1 4085   3.926   8.396   6.807
  751SOL    HW2 4086   4.023   8.508   6.835
  752SOL     OW 4087   5.475  14.057   2.686
  752SOL    HW1 4088   5.417  14.073   2.760
  752SOL    HW2 4089   5.541  14.126   2.691
  753SOL     OW 4090  10.701   7.691   1.105
  753SOL    HW1 4091  10.709   7.773   1.154
  753SOL    HW2 4092  10.698   7.717   1.014
  754SOL     OW 4093  13.876  10.558   5.945
  754SOL    HW1 4094  13.910  10.469   5.936
  754SOL    HW2 4095  13.873  10.573   6.039
  755SOL     OW 4096   2.033  10.313  13.488
  755SOL    HW1 4097   2.055  10.314  13.395
  755SOL    HW2 4098   2.004  10.403  13.507
  756SOL     OW 4099  10.952   7.465   5.500
  756SOL    HW1 4100  10.866   7.425   5.509
  756SOL    HW2 4101  10.936   7.547   5.452
  757SOL     OW 4102  10.903   6.795   7.615
  757SOL    HW1 4103  10.865   6.728   7.672
  757SOL    HW2 4104  10.869   6.774   7.528
  758SOL     OW 4105  10.592   3.038  10.410
  758SOL    HW1 4106  10.609   2.946  10.428
  758SOL    HW2 4107  10.654   3.061  10.341
  759SOL     OW 4108   6.716  12.935   6.662
  759SOL    HW1 4109   6.712  12.840   6.676
  759SOL    HW2 4110   6.750  12.969   6.745
  760SOL     OW 4111  10.842   5.685   4.673
  760SOL    HW1 4112  10.904   5.758   4.682
  760SOL    HW2 4113  10.757   5.727   4.664
  761SOL     OW 4114   8.216  11.779   0.908
  761SOL    HW1 4115   8.152  11.708   0.904
  761SOL    HW2 4116   8.163  11.859   0.902
  762SOL     OW 4117  10.598   1.435   3.726
  762SOL    HW1 4118  10.675   1.390   3.691
  762SOL    HW2 4119  10.558   1.372   3.786
  763SOL     OW 4120  10.193   0.511   5.414
  763SOL    HW1 4121  10.220   0.462   5.492
  763SOL    HW2 4122  10.144   0.586   5.448
  764SOL     OW 4123   1.575  12.182  14.620
  764SOL    HW1 4124   1.600  12.152  14.707
  764SOL    HW2 4125   1.590  12.276  14.622
  765SOL     OW 4126   1.579   4.186   5.004
  765SOL    HW1 4127   1.647   4.197   5.069
  765SOL    HW2 4128   1.533   4.106   5.029
  766SOL     OW 4129   8.750  12.295   7.902
  766SOL    HW1 4130   8.689  12.270   7.972
  766SOL    HW2 4131   8.792  12.213   7.876
  767SOL     OW 4132   0.360   9.259  12.624
  767SOL    HW1 4133   0.266   9.266  12.637
  767SOL    HW2 4134   0.370   9.200  12.549
  768SOL     OW 4135  13.706  11.156   2.618
  768SOL    HW1 4136  13.626  11.104   2.621
  768SOL    HW2 4137  13.677  11.245   2.598
  769SOL     OW 4138   5.685   6.133   8.759
  769SOL    HW1 4139   5.684   6.053   8.811
  769SOL    HW2 4140   5.708   6.202   8.821
  770SOL     OW 4141   2.120  13.949  10.883
  770SOL    HW1 4142   2.127  13.993  10.967
  770SOL    HW2 4143   2.192  13.886  10.883
  771SOL     OW 4144   8.751  13.101  12.493
  771SOL    HW1 4145   8.671  13.146  12.520
  771SOL    HW2 4146   8.729  13.008  12.500
  772SOL     OW 4147   1.082  10.888   9.015
  772SOL    HW1 4148   1.146  10.866   8.947
  772SOL    HW2 4149   0.997  10.879   8.972
  773SOL     OW 4150   5.645   3.108   3.216
  773SOL    HW1 4151   5.579   3.120   3.284
  773SOL    HW2 4152   5.594   3.088   3.137
  774SOL     OW 4153   7.051   9.552   8.202
  774SOL    HW1 4154   6.974   9.495   8.197
  774SOL    HW2 4155   7.028   9.628   8.149
  775SOL     OW 4156   1.812   7.113  13.943
  775SOL    HW1 4157   1.852   7.027  13.955
  775SOL    HW2 4158   1.828   7.135  13.852
  776SOL     OW 4159   4.037  14.016   8.122
  776SOL    HW1 4160   4.121  14.061   8.121
  776SOL    HW2 4161   4.058  13.927   8.151
  777SOL     OW 4162   8.786  14.370   1.606
  777SOL    HW1 4163   8.723  14.300   1.625
  777SOL    HW2 4164   8.817  14.350   1.518
  778SOL     OW 4165   5.512   4.405  13.897
  778SOL    HW1 4166   5.441   4.423  13.836
  778SOL    HW2 4167   5.482   4.331  13.949
  779SOL     OW 4168   4.085  11.930  12.362
  779SOL    HW1 4169   4.068  11.837  12.379
  779SOL    HW2 4170   4.060  11.943  12.270
  780SOL     OW 4171   5.086   0.568   0.429
  780SOL    HW1 4172   5.128   0.620   0.497
  780SOL    HW2 4173   5.051   0.491   0.474
  781SOL     OW 4174   8.100  14.571  12.945
  781SOL    HW1 4175   8.149  14.589  13.025
  781SOL    HW2 4176   8.077  14.478  12.951
  782SOL     OW 4177   1.120   3.392   1.400
  782SOL    HW1 4178   1.115   3.384   1.495
  782SOL    HW2 4179   1.041   3.440   1.376
  783SOL     OW 4180  11.418   6.676  12.233
  783SOL    HW1 4181  11.361   6.599  12.234
  783SOL    HW2 4182  11.358   6.749  12.218
  784SOL     OW 4183   7.736   6.893   2.185
  784SOL    HW1 4184   7.669   6.960   2.201
  784SOL    HW2 4185   7.743   6.845   2.268
  785SOL     OW 4186   2.474  11.235   6.668
  785SOL    HW1 4187   2.542  11.217   6.732
  785SOL    HW2 4188   2.398  11.261   6.720
  786SOL     OW 4189  14.710   7.274   7.601
  786SOL    HW1 4190  14.804   7.294   7.599
  786SOL    HW2 4191  14.689   7.248   7.512
  787SOL     OW 4192  13.550  13.334  11.197
  787SOL    HW1 4193  13.569  13.240  11.195
  787SOL    HW2 4194  13.609  13.370  11.263
  788SOL     OW 4195   8.342  11.397  13.361
  788SOL    HW1 4196   8.280  11.324  13.357
  788SOL    HW2 4197   8.288  11.475  13.346
  789SOL     OW 4198   5.720   0.128   7.227
  789SOL    HW1 4199   5.766   0.206   7.259
  789SOL    HW2 4200   5.640   0.162   7.186
  790SOL     OW 4201   5.400   4.831  14.687
  790SOL    HW1 4202   5.323   4.823  14.744
  790SOL    HW2 4203   5.373   4.791  14.605
  791SOL     OW 4204   9.743   6.074   9.808
  791SOL    HW1 4205   9.780   6.160   9.784
  791SOL    HW2 4206   9.714   6.086   9.898
  792SOL     OW 4207   2.393   7.914  11.659
  792SOL    HW1 4208   2.395   7.903  11.564
  792SOL    HW2 4209   2.454   7.848  11.691
  793SOL     OW 4210   2.524  14.813  13.167
  793SOL    HW1 4211   2.563  14.877  13.226
  793SOL    HW2 4212   2.567  14.730  13.189
  794SOL     OW 4213   9.542   7.952  13.512
  794SOL    HW1 4214   9.516   8.043  13.529
  794SOL    HW2 4215   9.636   7.951  13.531
  795SOL     OW 4216   0.350  12.849   8.664
  795SOL    HW1 4217   0.301  12.926   8.694
  795SOL    HW2 4218   0.314  12.777   8.716
  796SOL     OW 4219  14.372   9.803  14.135
  796SOL    HW1 4220  14.289   9.759  14.117
  796SOL    HW2 4221  14.400   9.837  14.049
  797SOL     OW 4222   3.937   9.247   3.376
  797SOL    HW1 4223   3.894   9.332   3.369
  797SOL    HW2 4224   4.021   9.259   3.332
  798SOL     OW 4225   4.685   6.031   6.357
  798SOL    HW1 4226   4.767   6.003   6.317
  798SOL    HW2 4227   4.683   5.986   6.441
  799SOL     OW 4228   4.911   3.563  12.994
  799SOL    HW1 4229   4.833   3.514  13.021
  799SOL    HW2 4230   4.890   3.597  12.907
  800SOL     OW 4231   8.316   1.993  12.470
  800SOL    HW1 4232   8.344   2.076  12.509
  800SOL    HW2 4233   8.371   1.983  12.393
  801SOL     OW 4234   4.538   4.833  12.212
  801SOL    HW1 4235   4.499   4.915  12.182
  801SOL    HW2 4236   4.510   4.826  12.303
  802SOL     OW 4237   8.774  14.121   0.068
  802SOL    HW1 4238   8.756  14.203   0.115
  802SOL    HW2 4239   8.817  14.065   0.133
  803SOL     OW 4240  12.937   4.630   2.060
  803SOL    HW1 4241  12.993   4.564   2.100
  803SOL    HW2 4242  12.848   4.596   2.072
  804SOL     OW 4243  14.345   3.646  13.533
  804SOL    HW1 4244  14.338   3.718  13.596
  804SOL    HW2 4245  14.378   3.687  13.453
  805SOL     OW 4246   3.363   1.406  11.800
  805SOL    HW1 4247   3.296   1.473  11.791
  805SOL    HW2 4248   3.394   1.415  11.890
  806SOL     OW 4249   6.000  13.813   9.512
  806SOL    HW1 4250   5.930  13.755   9.540
  806SOL    HW2 4251   6.019  13.867   9.589
  807SOL     OW 4252   2.158   9.219   5.304
  807SOL    HW1 4253   2.175   9.169   5.224
  807SOL    HW2 4254   2.196   9.305   5.286
  808SOL     OW 4255   0.017  13.240  10.158
  808SOL    HW1 4256  14.843  13.228  10.081
  808SOL    HW2 4257   0.002  13.162  10.211
  809SOL     OW 4258   5.022   6.884  12.486
  809SOL    HW1 4259   5.087   6.921  12.546
  809SOL    HW2 4260   4.999   6.956  12.428
  810SOL     OW 4261   9.775  14.426  11.152
  810SOL    HW1 4262   9.767  14.413  11.057
  810SOL    HW2 4263   9.734  14.512  11.168
  811SOL     OW 4264   8.727   3.067  11.274
  811SOL    HW1 4265   8.731   2.982  11.230
  811SOL    HW2 4266   8.777   3.125  11.217
  812SOL     OW 4267  11.580   8.816   3.423
  812SOL    HW1 4268  11.511   8.756   3.396
  812SOL    HW2 4269  11.659   8.763   3.424
  813SOL     OW 4270   0.582   1.658   2.889
  813SOL    HW1 4271   0.668   1.683   2.923
  813SOL    HW2 4272   0.593   1.566   2.864
  814SOL     OW 4273   6.379  14.834   1.997
  814SOL    HW1 4274   6.460  14.876   2.026
  814SOL    HW2 4275   6.407  14.772   1.929
  815SOL     OW 4276   6.729   7.093  13.837
  815SOL    HW1 4277   6.687   7.134  13.762
  815SOL    HW2 4278   6.732   6.999  13.815
  816SOL     OW 4279  10.317  10.396  10.168
  816SOL    HW1 4280  10.231  10.361  10.190
  816SOL    HW2 4281  10.361  10.405  10.253
  817SOL     OW 4282   7.244   0.055   1.534
  817SOL    HW1 4283   7.161   0.068   1.580
  817SOL    HW2 4284   7.225   0.078   1.443
  818SOL     OW 4285  11.371  14.225  13.328
  818SOL    HW1 4286  11.364  14.196  13.237
  818SOL    HW2 4287  11.300  14.288  13.338
  819SOL     OW 4288   8.297   0.687  13.825
  819SOL    HW1 4289   8.278   0.777  13.852
  819SOL    HW2 4290   8.303   0.639  13.908
  820SOL     OW 4291  11.875   8.068   5.622
  820SOL    HW1 4292  11.887   8.140   5.684
  820SOL    HW2 4293  11.873   8.110   5.537
  821SOL     OW 4294   3.391   5.640  10.977
  821SOL    HW1 4295   3.405   5.557  11.022
  821SOL    HW2 4296   3.475   5.685  10.982
  822SOL     OW 4297  11.465   5.319   2.830
  822SOL    HW1 4298  11.435   5.404   2.862
  822SOL    HW2 4299  11.463   5.262   2.907
  823SOL     OW 4300  12.186  10.537   7.088
  823SOL    HW1 4301  12.111  10.509   7.036
  823SOL    HW2 4302  12.161  10.623   7.123
  824SOL     OW 4303   7.869   0.075   6.693
  824SOL    HW1 4304   7.836   0.018   6.762
  824SOL    HW2 4305   7.867   0.021   6.614
  825SOL     OW 4306   2.843  10.605   8.884
  825SOL    HW1 4307   2.932  10.624   8.912
  825SOL    HW2 4308   2.803  10.561   8.959
  826SOL     OW 4309   4.982   1.479   7.546
  826SOL    HW1 4310   4.998   1.572   7.530
  826SOL    HW2 4311   4.955   1.445   7.461
  827SOL     OW 4312  13.985   0.351  10.759
  827SOL    HW1 4313  14.030   0.408  10.822
  827SOL    HW2 4314  13.987   0.264  10.801
  828SOL     OW 4315   8.515   5.840  11.078
  828SOL    HW1 4316   8.452   5.804  11.141
  828SOL    HW2 4317   8.507   5.783  11.001
  829SOL     OW 4318   1.781  12.363   1.659
  829SOL    HW1 4319   1.870  12.343   1.632
  829SOL    HW2 4320   1.766  12.452   1.627
  830SOL     OW 4321   4.983   0.063   4.330
  830SOL    HW1 4322   4.909   0.124   4.335
  830SOL    HW2 4323   5.047   0.108   4.274
  831SOL     OW 4324   4.800  12.271  11.089
  831SOL    HW1 4325   4.834  12.326  11.160
  831SOL    HW2 4326   4.837  12.184  11.107
  832SOL     OW 4327  13.407   1.642   7.227
  832SOL    HW1 4328  13.313   1.634   7.213
  832SOL    HW2 4329  13.416   1.670   7.318
  833SOL     OW 4330  14.551  13.826   3.223
  833SOL    HW1 4331  14.646  13.812   3.224
  833SOL    HW2 4332  14.514  13.738   3.223
  834SOL     OW 4333   3.685   2.816   4.902
  834SOL    HW1 4334   3.605   2.766   4.884
  834SOL    HW2 4335   3.680   2.836   4.996
  835SOL     OW 4336   2.034  13.386  13.826
  835SOL    HW1 4337   2.046  13.478  13.801
  835SOL    HW2 4338   1.964  13.387  13.891
  836SOL     OW 4339   1.815   9.701   7.634
  836SOL    HW1 4340   1.741   9.641   7.626
  836SOL    HW2 4341   1.880   9.653   7.685
  837SOL     OW 4342   5.563   6.984   8.119
  837SOL    HW1 4343   5.480   6.962   8.077
  837SOL    HW2 4344   5.615   7.024   8.049
  838SOL     OW 4345   8.757   1.193   3.741
  838SOL    HW1 4346   8.804   1.274   3.759
  838SOL    HW2 4347   8.687   1.218   3.680
  839SOL     OW 4348   2.776   1.707  12.738
  839SOL    HW1 4349   2.811   1.621  12.761
  839SOL    HW2 4350   2.813   1.766  12.804
  840SOL     OW 4351  10.552  12.662   4.293
  840SOL    HW1 4352  10.595  12.732   4.341
  840SOL    HW2 4353  10.616  12.636   4.226
  841SOL     OW 4354  13.320   4.014   5.505
  841SOL    HW1 4355  13.325   4.092   5.449
  841SOL    HW2 4356  13.407   4.005   5.541
  842SOL     OW 4357  14.219   6.534   6.381
  842SOL    HW1 4358  14.247   6.450   6.345
  842SOL    HW2 4359  14.148   6.563   6.324
  843SOL     OW 4360   1.969   5.895   8.671
  843SOL    HW1 4361   1.984   5.888   8.577
  843SOL    HW2 4362   2.035   5.958   8.701
  844SOL     OW 4363   8.060   9.202  13.840
  844SOL    HW1 4364   7.968   9.187  13.819
  844SOL    HW2 4365   8.058   9.262  13.914
  845SOL     OW 4366   9.800  10.024   1.423
  845SOL    HW1 4367   9.765  10.095   1.478
  845SOL    HW2 4368   9.820  10.065   1.339
  846SOL     OW 4369   3.773   4.154   0.260
  846SOL    HW1 4370   3.711   4.224   0.243
  846SOL    HW2 4371   3.813   4.136   0.174
  847SOL     OW 4372   7.861  11.839   2.019
  847SOL    HW1 4373   7.809  11.910   2.057
  847SOL    HW2 4374   7.852  11.851   1.925
  848SOL     OW 4375   5.929   7.686   3.567
  848SOL    HW1 4376   5.883   7.611   3.605
  848SOL    HW2 4377   5.859   7.740   3.530
  849SOL     OW 4378   9.391   0.374   0.727
  849SOL    HW1 4379   9.360   0.318   0.657
  849SOL    HW2 4380   9.451   0.318   0.777
  850SOL     OW 4381   5.275   7.270   2.061
  850SOL    HW1 4382   5.195   7.257   2.112
  850SOL    HW2 4383   5.251   7.333   1.993
  851SOL     OW 4384   3.426  12.015  14.383
  851SOL    HW1 4385   3.377  12.004  14.301
  851SOL    HW2 4386   3.385  12.091  14.425
  852SOL     OW 4387   6.731   9.444   9.919
  852SOL    HW1 4388   6.657   9.385   9.906
  852SOL    HW2 4389   6.806   9.398   9.882
  853SOL     OW 4390  14.475   1.747   6.133
  853SOL    HW1 4391  14.563   1.773   6.162
  853SOL    HW2 4392  14.476   1.652   6.136
  854SOL     OW 4393  13.959   8.019   5.041
  854SOL    HW1 4394  13.898   7.988   5.108
  854SOL    HW2 4395  14.008   8.089   5.083
  855SOL     OW 4396   4.201   6.048   7.260
  855SOL    HW1 4397   4.182   6.141   7.250
  855SOL    HW2 4398   4.117   6.004   7.248
  856SOL     OW 4399  10.886   7.292   1.454
  856SOL    HW1 4400  10.795   7.304   1.483
  856SOL    HW2 4401  10.922   7.227   1.514
  857SOL     OW 4402  14.597   3.399  12.550
  857SOL    HW1 4403  14.639   3.447  12.479
  857SOL    HW2 4404  14.669   3.375  12.608
  858SOL     OW 4405   1.874  13.109  12.102
  858SOL    HW1 4406   1.931  13.160  12.044
  858SOL    HW2 4407   1.806  13.171  12.129
  859SOL     OW 4408   5.753  12.802   1.212
  859SOL    HW1 4409   5.761  12.850   1.294
  859SOL    HW2 4410   5.725  12.714   1.239
  860SOL     OW 4411   9.351   0.578   3.918
  860SOL    HW1 4412   9.313   0.653   3.962
  860SOL    HW2 4413   9.316   0.502   3.964
  861SOL     OW 4414  11.574   0.183  12.814
  861SOL    HW1 4415  11.638   0.234  12.764
  861SOL    HW2 4416  11.524   0.248  12.863
  862SOL     OW 4417   7.411   3.108   8.166
  862SOL    HW1 4418   7.454   3.049   8.105
  862SOL    HW2 4419   7.449   3.194   8.148
  863SOL     OW 4420   5.368  14.652   2.643
  863SOL    HW1 4421   5.310  14.709   2.592
  863SOL    HW2 4422   5.393  14.583   2.582
  864SOL     OW 4423  11.152   2.273   9.908
  864SOL    HW1 4424  11.061   2.264   9.879
  864SOL    HW2 4425  11.182   2.354   9.867
  865SOL     OW 4426  14.173  11.553   3.014
  865SOL    HW1 4427  14.260  11.561   2.975
  865SOL    HW2 4428  14.188  11.504   3.096
  866SOL     OW 4429  11.006   6.012   6.960
  866SOL    HW1 4430  10.913   6.010   6.982
  866SOL    HW2 4431  11.033   5.920   6.958
  867SOL     OW 4432   9.101   0.382   9.134
  867SOL    HW1 4433   9.084   0.373   9.040
  867SOL    HW2 4434   9.028   0.434   9.167
  868SOL     OW 4435   3.301   0.569  12.982
  868SOL    HW1 4436   3.256   0.499  12.934
  868SOL    HW2 4437   3.230   0.624  13.015
  869SOL     OW 4438  13.834   3.201   6.072
  869SOL    HW1 4439  13.766   3.186   6.138
  869SOL    HW2 4440  13.910   3.152   6.105
  870SOL     OW 4441   9.597   3.656   1.613
  870SOL    HW1 4442   9.629   3.566   1.614
  870SOL    HW2 4443   9.505   3.648   1.585
  871SOL     OW 4444   5.886  11.611   8.242
  871SOL    HW1 4445   5.934  11.642   8.319
  871SOL    HW2 4446   5.858  11.690   8.197
  872SOL     OW 4447  14.226  14.483   2.010
  872SOL    HW1 4448  14.180  14.562   2.037
  872SOL    HW2 4449  14.226  14.428   2.089
  873SOL     OW 4450   8.047   0.874   5.434
  873SOL    HW1 4451   8.042   0.935   5.508
  873SOL    HW2 4452   8.114   0.811   5.460
  874SOL     OW 4453   8.450   4.671  10.836
  874SOL    HW1 4454   8.493   4.612  10.774
  874SOL    HW2 4455   8.372   4.622  10.864
  875SOL     OW 4456   4.891   1.759   7.985
  875SOL    HW1 4457   4.902   1.836   8.041
  875SOL    HW2 4458   4.980   1.740   7.954
  876SOL     OW 4459  13.718   4.788   0.790
  876SOL    HW1 4460  13.804   4.748   0.806
  876SOL    HW2 4461  13.738   4.877   0.761
  877SOL     OW 4462   4.980   5.544  12.547
  877SOL    HW1 4463   5.051   5.561  12.609
  877SOL    HW2 4464   4.960   5.451  12.559
  878SOL     OW 4465  11.537   5.438   9.175
  878SOL    HW1 4466  11.454   5.464   9.215
  878SOL    HW2 4467  11.521   5.351   9.140
  879SOL     OW 4468  14.244   0.164   9.534
  879SOL    HW1 4469  14.244   0.234   9.599
  879SOL    HW2 4470  14.337   0.145   9.519
  880SOL     OW 4471  12.315  12.812   0.949
  880SOL    HW1 4472  12.343  12.883   0.891
  880SOL    HW2 4473  12.388  12.750   0.948
  881SOL     OW 4474   0.034   9.988  12.485
  881SOL    HW1 4475  14.855   9.917  12.504
  881SOL    HW2 4476   0.004  10.061  12.539
  882SOL     OW 4477  11.893   7.150   6.162
  882SOL    HW1 4478  11.895   7.117   6.072
  882SOL    HW2 4479  11.951   7.225   6.161
  883SOL     OW 4480   0.736  11.736  11.206
  883SOL    HW1 4481   0.689  11.819  11.205
  883SOL    HW2 4482   0.828  11.761  11.214
  884SOL     OW 4483   1.597   6.287  13.167
  884SOL    HW1 4484   1.528   6.332  13.119
  884SOL    HW2 4485   1.677   6.333  13.143
  885SOL     OW 4486  11.656   9.908   6.061
  885SOL    HW1 4487  11.707   9.846   6.009
  885SOL    HW2 4488  11.571   9.865   6.072
  886SOL     OW 4489   6.751   5.386   8.882
  886SOL    HW1 4490   6.756   5.468   8.932
  886SOL    HW2 4491   6.774   5.411   8.793
  887SOL     OW 4492   5.825   3.835  10.204
  887SOL    HW1 4493   5.812   3.848  10.110
  887SOL    HW2 4494   5.858   3.746  10.211
  888SOL     OW 4495   0.493  11.686  12.737
  888SOL    HW1 4496   0.567  11.644  12.781
  888SOL    HW2 4497   0.451  11.616  12.688
  889SOL     OW 4498   3.963   6.237   7.616
  889SOL    HW1 4499   3.960   6.143   7.632
  889SOL    HW2 4500   4.035   6.248   7.553
  890SOL     OW 4501   8.259   6.837   3.338
  890SOL    HW1 4502   8.261   6.812   3.246
  890SOL    HW2 4503   8.179   6.888   3.348
  891SOL     OW 4504  11.809  10.717  10.266
  891SOL    HW1 4505  11.814  10.721  10.362
  891SOL    HW2 4506  11.721  10.747  10.245
  892SOL     OW 4507   4.654   4.177  14.271
  892SOL    HW1 4508   4.711   4.107  14.301
  892SOL    HW2 4509   4.588   4.186  14.339
  893SOL     OW 4510  13.132  12.789  14.600
  893SOL    HW1 4511  13.113  12.699  14.627
  893SOL    HW2 4512  13.157  12.782  14.508
  894SOL     OW 4513  13.825  14.881  13.251
  894SOL    HW1 4514  13.840  14.854  13.160
  894SOL    HW2 4515  13.746   0.053  13.247
  895SOL     OW 4516  14.192   1.621  14.630
  895SOL    HW1 4517  14.242   1.599  14.709
  895SOL    HW2 4518  14.109   1.575  14.641
  896SOL     OW 4519  11.182   3.772  10.299
  896SOL    HW1 4520  11.159   3.814  10.216
  896SOL    HW2 4521  11.117   3.702  10.309
  897SOL     OW 4522  12.357  13.979   2.697
  897SOL    HW1 4523  12.391  14.054   2.649
  897SOL    HW2 4524  12.346  13.911   2.630
  898SOL     OW 4525  12.998   7.217   2.118
  898SOL    HW1 4526  12.994   7.306   2.153
  898SOL    HW2 4527  12.934   7.168   2.170
  899SOL     OW 4528   0.978   8.617  13.893
  899SOL    HW1 4529   1.034   8.608  13.970
  899SOL    HW2 4530   0.939   8.530  13.882
  900SOL     OW 4531   9.789   2.301   0.542
  900SOL    HW1 4532   9.797   2.350   0.624
  900SOL    HW2 4533   9.878   2.298   0.507
  901SOL     OW 4534  12.868  11.538   8.691
  901SOL    HW1 4535  12.897  11.457   8.732
  901SOL    HW2 4536  12.865  11.518   8.597
  902SOL     OW 4537   9.015   8.580   6.417
  902SOL    HW1 4538   9.041   8.518   6.485
  902SOL    HW2 4539   9.075   8.562   6.344
  903SOL     OW 4540   1.317  12.183  11.249
  903SOL    HW1 4541   1.252  12.114  11.259
  903SOL    HW2 4542   1.328  12.192  11.154
  904SOL     OW 4543   9.913   2.145  13.304
  904SOL    HW1 4544   9.823   2.169  13.324
  904SOL    HW2 4545   9.928   2.181  13.216
  905SOL     OW 4546   6.241  13.977   3.934
  905SOL    HW1 4547   6.192  13.968   3.852
  905SOL    HW2 4548   6.202  14.053   3.978
  906SOL     OW 4549   4.063   6.495   4.280
  906SOL    HW1 4550   4.007   6.486   4.356
  906SOL    HW2 4551   4.061   6.409   4.238
  907SOL     OW 4552   9.594   1.018   6.122
  907SOL    HW1 4553   9.512   0.988   6.085
  907SOL    HW2 4554   9.661   0.962   6.083
  908SOL     OW 4555   1.423  13.618   1.071
  908SOL    HW1 4556   1.438  13.681   1.141
  908SOL    HW2 4557   1.332  13.633   1.044
  909SOL     OW 4558   3.460   8.669  12.525
  909SOL    HW1 4559   3.397   8.604  12.496
  909SOL    HW2 4560   3.445   8.677  12.619
  910SOL     OW 4561   9.662   6.818   1.264
  910SOL    HW1 4562   9.720   6.892   1.281
  910SOL    HW2 4563   9.641   6.784   1.351
  911SOL     OW 4564   0.607   0.502   7.331
  911SOL    HW1 4565   0.588   0.408   7.321
  911SOL    HW2 4566   0.692   0.514   7.288
  912SOL     OW 4567   5.509   0.126  12.551
  912SOL    HW1 4568   5.570   0.164  12.489
  912SOL    HW2 4569   5.564   0.073  12.610
  913SOL     OW 4570  10.646   3.123   4.197
  913SOL    HW1 4571  10.715   3.144   4.134
  913SOL    HW2 4572  10.688   3.131   4.282
  914SOL     OW 4573   6.889   8.855  10.531
  914SOL    HW1 4574   6.863   8.921  10.465
  914SOL    HW2 4575   6.941   8.905  10.594
  915SOL     OW 4576  13.239   4.028   4.402
  915SOL    HW1 4577  13.270   3.962   4.341
  915SOL    HW2 4578  13.159   4.062   4.363
  916SOL     OW 4579   5.021   1.029  14.129
  916SOL    HW1 4580   5.050   0.999  14.215
  916SOL    HW2 4581   5.064   1.114  14.118
  917SOL     OW 4582   7.307  10.305   1.464
  917SOL    HW1 4583   7.211  10.312   1.467
  917SOL    HW2 4584   7.322  10.214   1.436
  918SOL     OW 4585   3.194  14.108   6.792
  918SOL    HW1 4586   3.225  14.164   6.863
  918SOL    HW2 4587   3.158  14.169   6.728
  919SOL     OW 4588   0.112   3.622   6.258
  919SOL    HW1 4589   0.073   3.706   6.283
  919SOL    HW2 4590   0.109   3.570   6.338
  920SOL     OW 4591   8.110   9.226   3.383
  920SOL    HW1 4592   8.033   9.179   3.352
  920SOL    HW2 4593   8.152   9.257   3.302
  921SOL     OW 4594   2.616  14.800   2.473
  921SOL    HW1 4595   2.677  14.772   2.542
  921SOL    HW2 4596   2.648   0.005   2.447
  922SOL     OW 4597   0.577  11.176  13.040
  922SOL    HW1 4598   0.524  11.134  13.108
  922SOL    HW2 4599   0.643  11.226  13.088
  923SOL     OW 4600  12.560  11.672   4.718
  923SOL    HW1 4601  12.528  11.740   4.659
  923SOL    HW2 4602  12.488  11.609   4.723
  924SOL     OW 4603   0.575   6.943  13.341
  924SOL    HW1 4604   0.514   6.872  13.361
  924SOL    HW2 4605   0.573   6.952  13.246
  925SOL     OW 4606  10.429   6.164  14.539
  925SOL    HW1 4607  10.467   6.235  14.486
  925SOL    HW2 4608  10.499   6.099  14.545
  926SOL     OW 4609   6.381   0.595   1.695
  926SOL    HW1 4610   6.442   0.664   1.667
  926SOL    HW2 4611   6.320   0.586   1.622
  927SOL     OW 4612   8.522  10.625   4.053
  927SOL    HW1 4613   8.452  10.655   3.995
  927SOL    HW2 4614   8.569  10.705   4.077
  928SOL     OW 4615  11.664  11.534  13.782
  928SOL    HW1 4616  11.642  11.571  13.696
  928SOL    HW2 4617  11.734  11.471  13.763
  929SOL     OW 4618   4.711  13.716  13.770
  929SOL    HW1 4619   4.765  13.755  13.701
  929SOL    HW2 4620   4.633  13.770  13.773
  930SOL     OW 4621   4.416  14.342   3.898
  930SOL    HW1 4622   4.413  14.259   3.852
  930SOL    HW2 4623   4.349  14.334   3.966
  931SOL     OW 4624  11.008   1.252   5.013
  931SOL    HW1 4625  10.932   1.280   4.961
  931SOL    HW2 4626  10.986   1.277   5.102
  932SOL     OW 4627   5.066   1.117  10.978
  932SOL    HW1 4628   5.021   1.191  10.936
  932SOL    HW2 4629   5.039   1.122  11.070
  933SOL     OW 4630   5.014   6.488   5.337
  933SOL    HW1 4631   5.002   6.538   5.418
  933SOL    HW2 4632   4.972   6.541   5.269
  934SOL     OW 4633  11.767   5.246   0.651
  934SOL    HW1 4634  11.803   5.170   0.606
  934SOL    HW2 4635  11.675   5.249   0.625
  935SOL     OW 4636  14.640  14.651   1.359
  935SOL    HW1 4637  14.615  14.742   1.346
  935SOL    HW2 4638  14.583  14.620   1.430
  936SOL     OW 4639   6.498   8.858   3.455
  936SOL    HW1 4640   6.477   8.910   3.376
  936SOL    HW2 4641   6.484   8.919   3.527
  937SOL     OW 4642  11.049  11.171   8.089
  937SOL    HW1 4643  11.095  11.091   8.061
  937SOL    HW2 4644  10.977  11.140   8.144
  938SOL     OW 4645   5.107   1.217   0.101
  938SOL    HW1 4646   5.061   1.294   0.135
  938SOL    HW2 4647   5.116   1.233   0.007
  939SOL     OW 4648   2.182  11.221   8.314
  939SOL    HW1 4649   2.136  11.139   8.298
  939SOL    HW2 4650   2.244  11.201   8.383
  940SOL     OW 4651  11.721  11.585   1.586
  940SOL    HW1 4652  11.710  11.560   1.677
  940SOL    HW2 4653  11.743  11.679   1.589
  941SOL     OW 4654   6.002   8.012   7.788
  941SOL    HW1 4655   6.037   8.101   7.785
  941SOL    HW2 4656   6.079   7.956   7.783
  942SOL     OW 4657  14.416   9.550   0.345
  942SOL    HW1 4658  14.413   9.479   0.280
  942SOL    HW2 4659  14.419   9.506   0.429
  943SOL     OW 4660   1.272   4.505   4.675
  943SOL    HW1 4661   1.235   4.417   4.688
  943SOL    HW2 4662   1.334   4.516   4.747
  944SOL     OW 4663   0.524   5.388  10.903
  944SOL    HW1 4664   0.553   5.346  10.984
  944SOL    HW2 4665   0.437   5.352  10.886
  945SOL     OW 4666   7.806  14.711   2.535
  945SOL    HW1 4667   7.869  14.644   2.563
  945SOL    HW2 4668   7.773  14.749   2.616
  946SOL     OW 4669   5.791   0.916   9.279
  946SOL    HW1 4670   5.758   0.865   9.352
  946SOL    HW2 4671   5.780   1.007   9.305
  947SOL     OW 4672   2.280  13.965   5.885
  947SOL    HW1 4673   2.290  14.013   5.967
  947SOL    HW2 4674   2.214  13.899   5.904
  948SOL     OW 4675  12.484   3.035   8.129
  948SOL    HW1 4676  12.495   3.011   8.221
  948SOL    HW2 4677  12.415   3.101   8.129
  949SOL     OW 4678   0.612  13.202   3.182
  949SOL    HW1 4679   0.649  13.276   3.231
  949SOL    HW2 4680   0.639  13.125   3.232
  950SOL     OW 4681  12.069  14.621  14.266
  950SOL    HW1 4682  12.014  14.673  14.207
  950SOL    HW2 4683  12.029  14.533  14.263
  951SOL     OW 4684   3.804   0.043  11.584
  951SOL    HW1 4685   3.894   0.047  11.617
  951SOL    HW2 4686   3.803   0.105  11.510
  952SOL     OW 4687  14.289  10.120  12.353
  952SOL    HW1 4688  14.322  10.103  12.265
  952SOL    HW2 4689  14.320  10.046  12.405
  953SOL     OW 4690  12.544   9.677  12.836
  953SOL    HW1 4691  12.626   9.661  12.883
  953SOL    HW2 4692  12.478   9.631  12.887
  954SOL     OW 4693   7.962   1.982  10.867
  954SOL    HW1 4694   7.934   1.962  10.957
  954SOL    HW2 4695   7.985   1.897  10.830
  955SOL     OW 4696   0.014   3.094   1.282
  955SOL    HW1 4697   0.053   3.053   1.204
  955SOL    HW2 4698   0.088   3.135   1.326
  956SOL     OW 4699  10.587  13.488  11.005
  956SOL    HW1 4700  10.584  13.392  10.998
  956SOL    HW2 4701  10.496  13.516  10.998
  957SOL     OW 4702  14.129   8.293  10.096
  957SOL    HW1 4703  14.060   8.305  10.162
  957SOL    HW2 4704  14.169   8.379  10.088
  958SOL     OW 4705   6.900   2.231   9.080
  958SOL    HW1 4706   6.917   2.232   9.174
  958SOL    HW2 4707   6.852   2.150   9.065
  959SOL     OW 4708   7.906   7.451   2.465
  959SOL    HW1 4709   7.871   7.532   2.501
  959SOL    HW2 4710   8.001   7.466   2.459
  960SOL     OW 4711   1.675   6.653   5.936
  960SOL    HW1 4712   1.664   6.640   5.842
  960SOL    HW2 4713   1.690   6.565   5.971
  961SOL     OW 4714   0.331  10.669   4.778
  961SOL    HW1 4715   0.292  10.738   4.831
  961SOL    HW2 4716   0.270  10.596   4.786
  962SOL     OW 4717   4.064  10.534   2.373
  962SOL    HW1 4718   4.149  10.544   2.418
  962SOL    HW2 4719   4.025  10.621   2.377
  963SOL     OW 4720   5.846   2.524   0.469
  963SOL    HW1 4721   5.889   2.450   0.514
  963SOL    HW2 4722   5.910   2.551   0.402
  964SOL     OW 4723  10.163   4.211   0.969
  964SOL    HW1 4724  10.094   4.228   0.905
  964SOL    HW2 4725  10.202   4.128   0.941
  965SOL     OW 4726   6.770   8.532   7.976
  965SOL    HW1 4727   6.764   8.479   7.897
  965SOL    HW2 4728   6.733   8.477   8.046
  966SOL     OW 4729   7.728   6.970   0.059
  966SOL    HW1 4730   7.708   6.912   0.133
  966SOL    HW2 4731   7.820   6.952   0.038
  967SOL     OW 4732   2.761   9.634   1.939
  967SOL    HW1 4733   2.791   9.723   1.921
  967SOL    HW2 4734   2.674   9.629   1.900
  968SOL     OW 4735   5.649   2.232  10.944
  968SOL    HW1 4736   5.598   2.313  10.946
  968SOL    HW2 4737   5.734   2.258  10.909
  969SOL     OW 4738   6.302   3.880   6.227
  969SOL    HW1 4739   6.303   3.963   6.179
  969SOL    HW2 4740   6.210   3.862   6.244
  970SOL     OW 4741   2.254   7.120  13.114
  970SOL    HW1 4742   2.197   7.196  13.103
  970SOL    HW2 4743   2.286   7.126  13.204
  971SOL     OW 4744   3.360   1.116   1.278
  971SOL    HW1 4745   3.324   1.034   1.313
  971SOL    HW2 4746   3.338   1.113   1.185
  972SOL     OW 4747   0.497  14.700   7.337
  972SOL    HW1 4748   0.585  14.702   7.299
  972SOL    HW2 4749   0.512  14.678   7.429
  973SOL     OW 4750   3.213   8.310   6.289
  973SOL    HW1 4751   3.252   8.249   6.227
  973SOL    HW2 4752   3.245   8.396   6.262
  974SOL     OW 4753  11.551  12.817   4.983
  974SOL    HW1 4754  11.596  12.771   5.054
  974SOL    HW2 4755  11.593  12.903   4.980
  975SOL     OW 4756   7.582  11.614   5.215
  975SOL    HW1 4757   7.610  11.658   5.295
  975SOL    HW2 4758   7.590  11.521   5.235
  976SOL     OW 4759   4.668  10.505   1.324
  976SOL    HW1 4760   4.762  10.520   1.335
  976SOL    HW2 4761   4.651  10.522   1.231
  977SOL     OW 4762   8.480   8.127   7.980
  977SOL    HW1 4763   8.439   8.187   7.918
  977SOL    HW2 4764   8.553   8.090   7.931
  978SOL     OW 4765   8.039   2.670   4.476
  978SOL    HW1 4766   8.020   2.665   4.570
  978SOL    HW2 4767   8.085   2.589   4.456
  979SOL     OW 4768   3.998  13.020   0.146
  979SOL    HW1 4769   3.992  13.080   0.072
  979SOL    HW2 4770   3.911  12.981   0.152
  980SOL     OW 4771   5.293  13.652   3.752
  980SOL    HW1 4772   5.219  13.602   3.716
  980SOL    HW2 4773   5.265  13.744   3.747
  981SOL     OW 4774   0.035  13.325   5.389
  981SOL    HW1 4775   0.061  13.349   5.479
  981SOL    HW2 4776  14.828  13.357   5.381
  982SOL     OW 4777  13.566   0.708  14.388
  982SOL    HW1 4778  13.598   0.650  14.319
  982SOL    HW2 4779  13.572   0.656  14.468
  983SOL     OW 4780   5.975   0.808   7.909
  983SOL    HW1 4781   6.023   0.869   7.965
  983SOL    HW2 4782   5.959   0.856   7.828
  984SOL     OW 4783  12.669   8.895  10.950
  984SOL    HW1 4784  12.582   8.927  10.974
  984SOL    HW2 4785  12.652   8.812  10.905
  985SOL     OW 4786  12.986  14.479   2.946
  985SOL    HW1 4787  12.911  14.482   3.006
  985SOL    HW2 4788  13.059  14.453   3.002
  986SOL     OW 4789  10.269   3.742   2.605
  986SOL    HW1 4790  10.253   3.648   2.607
  986SOL    HW2 4791  10.297   3.760   2.515
  987SOL     OW 4792  14.861   1.075   0.934
  987SOL    HW1 4793  14.880   0.987   0.965
  987SOL    HW2 4794   0.065   1.113   0.916
  988SOL     OW 4795   2.752  12.284  10.034
  988SOL    HW1 4796   2.820  12.329  10.084
  988SOL    HW2 4797   2.764  12.191  10.056
  989SOL     OW 4798   0.451   5.989   7.386
  989SOL    HW1 4799   0.383   6.049   7.416
  989SOL    HW2 4800   0.506   6.043   7.328
  990SOL     OW 4801  11.486  13.188  11.285
  990SOL    HW1 4802  11.542  13.111  11.275
  990SOL    HW2 4803  11.481  13.226  11.197
  991SOL     OW 4804  11.186  14.460  11.502
  991SOL    HW1 4805  11.263  14.439  11.451
  991SOL    HW2 4806  11.123  14.496  11.439
  992SOL     OW 4807   4.511   2.482   3.819
  992SOL    HW1 4808   4.596   2.445   3.843
  992SOL    HW2 4809   4.533   2.561   3.769
  993SOL     OW 4810   8.531   9.609   8.952
  993SOL    HW1 4811   8.520   9.608   9.047
  993SOL    HW2 4812   8.599   9.543   8.936
  994SOL     OW 4813   7.893   3.164   3.369
  994SOL    HW1 4814   7.821   3.203   3.419
  994SOL    HW2 4815   7.937   3.107   3.431
  995SOL     OW 4816   2.554   2.974  12.608
  995SOL    HW1 4817   2.477   3.000  12.557
  995SOL    HW2 4818   2.525   2.898  12.659
  996SOL     OW 4819   6.010   8.994   7.906
  996SOL    HW1 4820   6.031   9.080   7.868
  996SOL    HW2 4821   6.030   9.003   7.999
  997SOL     OW 4822   5.015  14.160   8.897
  997SOL    HW1 4823   4.992  14.183   8.807
  997SOL    HW2 4824   4.962  14.083   8.916
  998SOL     OW 4825   1.913   9.772  11.038
  998SOL    HW1 4826   1.891   9.692  11.085
  998SOL    HW2 4827   2.009   9.777  11.042
  999SOL     OW 4828   3.561   8.018   3.913
  999SOL    HW1 4829   3.615   7.982   3.843
  999SOL    HW2 4830   3.621   8.034   3.985
 1000SOL     OW 4831  11.025   0.291  13.183
 1000SOL    HW1 4832  11.060   0.375  13.154
 1000SOL    HW2 4833  11.035   0.293  13.279
 1001SOL     OW 4834  12.861   0.555   3.872
 1001SOL    HW1 4835  12.826   0.532   3.787
 1001SOL    HW2 4836  12.956   0.551   3.861
 1002SOL     OW 4837  10.675  10.719   4.394
 1002SOL    HW1 4838  10.626  10.779   4.339
 1002SOL    HW2 4839  10.716  10.657   4.333
 1003SOL     OW 4840  13.355   1.107   6.352
 1003SOL    HW1 4841  13.348   1.012   6.340
 1003SOL    HW2 4842  13.271   1.133   6.391
 1004SOL     OW 4843  10.909  12.098  14.075
 1004SOL    HW1 4844  10.970  12.161  14.034
 1004SOL    HW2 4845  10.863  12.058  14.001
 1005SOL     OW 4846   6.436   3.059   4.299
 1005SOL    HW1 4847   6.345   3.037   4.282
 1005SOL    HW2 4848   6.480   3.046   4.215
 1006SOL     OW 4849   2.014  11.031   1.824
 1006SOL    HW1 4850   2.068  11.106   1.850
 1006SOL    HW2 4851   1.924  11.061   1.835
 1007SOL     OW 4852   5.690  12.010   0.539
 1007SOL    HW1 4853   5.689  11.975   0.628
 1007SOL    HW2 4854   5.662  11.937   0.483
 1008SOL     OW 4855   4.341  11.337   8.674
 1008SOL    HW1 4856   4.312  11.393   8.602
 1008SOL    HW2 4857   4.395  11.270   8.632
 1009SOL     OW 4858   8.316   8.257   3.339
 1009SOL    HW1 4859   8.225   8.285   3.346
 1009SOL    HW2 4860   8.312   8.162   3.329
 1010SOL     OW 4861   0.567   3.578   8.323
 1010SOL    HW1 4862   0.493   3.522   8.299
 1010SOL    HW2 4863   0.610   3.598   8.240
 1011SOL     OW 4864   7.569   3.574   3.652
 1011SOL    HW1 4865   7.508   3.534   3.713
 1011SOL    HW2 4866   7.654   3.571   3.697
 1012SOL     OW 4867   3.047   6.245   8.861
 1012SOL    HW1 4868   2.982   6.304   8.823
 1012SOL    HW2 4869   3.075   6.190   8.787
 1013SOL     OW 4870   6.090  11.456   4.729
 1013SOL    HW1 4871   6.012  11.440   4.676
 1013SOL    HW2 4872   6.069  11.533   4.781
 1014SOL     OW 4873   9.538   6.428  10.452
 1014SOL    HW1 4874   9.542   6.341  10.413
 1014SOL    HW2 4875   9.571   6.416  10.541
 1015SOL     OW 4876   3.605  12.112   4.352
 1015SOL    HW1 4877   3.622  12.030   4.305
 1015SOL    HW2 4878   3.512  12.127   4.341
 1016SOL     OW 4879   7.439  12.879  14.543
 1016SOL    HW1 4880   7.460  12.878  14.636
 1016SOL    HW2 4881   7.457  12.789  14.514
 1017SOL     OW 4882   5.436  13.541  13.587
 1017SOL    HW1 4883   5.521  13.511  13.557
 1017SOL    HW2 4884   5.439  13.532  13.683
 1018SOL     OW 4885  14.206  10.842   5.296
 1018SOL    HW1 4886  14.130  10.792   5.327
 1018SOL    HW2 4887  14.266  10.844   5.371
 1019SOL     OW 4888   6.124   0.054   4.633
 1019SOL    HW1 4889   6.212   0.086   4.611
 1019SOL    HW2 4890   6.126  14.843   4.609
 1020SOL     OW 4891   2.609   8.454   3.992
 1020SOL    HW1 4892   2.577   8.386   3.933
 1020SOL    HW2 4893   2.531   8.482   4.040
 1021SOL     OW 4894  10.026   7.558   3.402
 1021SOL    HW1 4895   9.987   7.613   3.469
 1021SOL    HW2 4896   9.966   7.484   3.394
 1022SOL     OW 4897   8.714   2.286   1.427
 1022SOL    HW1 4898   8.710   2.300   1.522
 1022SOL    HW2 4899   8.786   2.223   1.415
 1023SOL     OW 4900  11.223  14.703   9.311
 1023SOL    HW1 4901  11.312  14.712   9.344
 1023SOL    HW2 4902  11.230  14.715   9.216
 1024SOL     OW 4903   7.294   4.660   2.102
 1024SOL    HW1 4904   7.275   4.630   2.191
 1024SOL    HW2 4905   7.240   4.603   2.046
 1025SOL     OW 4906  13.680  14.467  10.079
 1025SOL    HW1 4907  13.755  14.520  10.051
 1025SOL    HW2 4908  13.683  14.472  10.175
 1026SOL     OW 4909   6.411  12.265   9.203
 1026SOL    HW1 4910   6.427  12.360   9.198
 1026SOL    HW2 4911   6.466  12.236   9.276
 1027SOL     OW 4912   4.219   8.476   4.460
 1027SOL    HW1 4913   4.238   8.404   4.400
 1027SOL    HW2 4914   4.132   8.457   4.493
 1028SOL     OW 4915   0.517   7.381  13.524
 1028SOL    HW1 4916   0.478   7.386  13.612
 1028SOL    HW2 4917   0.449   7.414  13.466
 1029SOL     OW 4918   4.286  11.782   4.846
 1029SOL    HW1 4919   4.337  11.804   4.924
 1029SOL    HW2 4920   4.198  11.767   4.879
 1030SOL     OW 4921   8.638   9.481   3.768
 1030SOL    HW1 4922   8.668   9.396   3.737
 1030SOL    HW2 4923   8.601   9.523   3.690
 1031SOL     OW 4924   1.361   7.867  10.994
 1031SOL    HW1 4925   1.396   7.952  11.022
 1031SOL    HW2 4926   1.343   7.821  11.076
 1032SOL     OW 4927   1.277   5.975   8.260
 1032SOL    HW1 4928   1.347   5.922   8.298
 1032SOL    HW2 4929   1.301   5.983   8.168
 1033SOL     OW 4930   8.670   5.386   6.791
 1033SOL    HW1 4931   8.595   5.344   6.750
 1033SOL    HW2 4932   8.633   5.458   6.842
 1034SOL     OW 4933   3.763   8.563   9.111
 1034SOL    HW1 4934   3.853   8.597   9.110
 1034SOL    HW2 4935   3.772   8.474   9.143
 1035SOL     OW 4936   3.227  10.381   3.583
 1035SOL    HW1 4937   3.308  10.358   3.537
 1035SOL    HW2 4938   3.213  10.473   3.562
 1036SOL     OW 4939  11.313  13.646  14.022
 1036SOL    HW1 4940  11.298  13.716  13.959
 1036SOL    HW2 4941  11.355  13.689  14.097
 1037SOL     OW 4942  12.029   5.490   4.707
 1037SOL    HW1 4943  11.944   5.446   4.700
 1037SOL    HW2 4944  12.012   5.580   4.677
 1038SOL     OW 4945   6.043   3.598  13.527
 1038SOL    HW1 4946   6.039   3.601  13.622
 1038SOL    HW2 4947   5.953   3.586  13.499
 1039SOL     OW 4948  10.848   7.239  11.162
 1039SOL    HW1 4949  10.767   7.235  11.112
 1039SOL    HW2 4950  10.874   7.331  11.159
 1040SOL     OW 4951   2.074   6.897   1.316
 1040SOL    HW1 4952   2.027   6.826   1.271
 1040SOL    HW2 4953   2.006   6.963   1.331
 1041SOL     OW 4954   5.837   9.552   4.601
 1041SOL    HW1 4955   5.871   9.639   4.624
 1041SOL    HW2 4956   5.903   9.491   4.634
 1042SOL     OW 4957   8.970   5.163   6.072
 1042SOL    HW1 4958   8.983   5.068   6.079
 1042SOL    HW2 4959   8.996   5.197   6.157
 1043SOL     OW 4960   8.571  10.800   2.952
 1043SOL    HW1 4961   8.577  10.848   2.869
 1043SOL    HW2 4962   8.536  10.863   3.014
 1044SOL     OW 4963   2.065  12.321  13.407
 1044SOL    HW1 4964   2.114  12.277  13.476
 1044SOL    HW2 4965   1.974  12.293  13.421
 1045SOL     OW 4966  10.347   3.977   2.812
 1045SOL    HW1 4967  10.400   4.046   2.773
 1045SOL    HW2 4968  10.401   3.898   2.806
 1046SOL     OW 4969   9.811  11.131   2.080
 1046SOL    HW1 4970   9.827  11.195   2.011
 1046SOL    HW2 4971   9.720  11.145   2.105
 1047SOL     OW 4972   1.685   3.476  13.635
 1047SOL    HW1 4973   1.748   3.544  13.661
 1047SOL    HW2 4974   1.650   3.507  13.552
 1048SOL     OW 4975  10.426  12.425   3.488
 1048SOL    HW1 4976  10.490  12.454   3.424
 1048SOL    HW2 4977  10.404  12.505   3.537
 1049SOL     OW 4978   0.030   0.599   0.868
 1049SOL    HW1 4979  14.862   0.521   0.891
 1049SOL    HW2 4980   0.107   0.566   0.822
 1050SOL     OW 4981   5.079   7.405   5.757
 1050SOL    HW1 4982   5.068   7.310   5.758
 1050SOL    HW2 4983   5.162   7.420   5.802
 1051SOL     OW 4984  12.851  11.586  12.767
 1051SOL    HW1 4985  12.795  11.546  12.834
 1051SOL    HW2 4986  12.798  11.656  12.730
 1052SOL     OW 4987   9.738   2.051  10.031
 1052SOL    HW1 4988   9.686   2.023   9.955
 1052SOL    HW2 4989   9.789   2.125   9.998
 1053SOL     OW 4990  10.779   2.091  11.197
 1053SOL    HW1 4991  10.861   2.139  11.206
 1053SOL    HW2 4992  10.720   2.153  11.152
 1054SOL     OW 4993   3.679  13.081   1.474
 1054SOL    HW1 4994   3.737  13.010   1.447
 1054SOL    HW2 4995   3.736  13.157   1.482
 1055SOL     OW 4996   2.077  11.236   7.818
 1055SOL    HW1 4997   2.138  11.171   7.854
 1055SOL    HW2 4998   2.103  11.244   7.726
 1056SOL     OW 4999  12.802   1.998  13.160
 1056SOL    HW1 5000  12.747   1.920  13.169
 1056SOL    HW2 5001  12.892   1.964  13.156
 1057SOL     OW 5002   9.399   7.960   6.832
 1057SOL    HW1 5003   9.413   7.947   6.738
 1057SOL    HW2 5004   9.312   7.999   6.839
 1058SOL     OW 5005   8.247   4.422   9.367
 1058SOL    HW1 5006   8.167   4.471   9.387
 1058SOL    HW2 5007   8.226   4.331   9.389
 1059SOL     OW 5008   0.019  13.862  13.523
 1059SOL    HW1 5009   0.006  13.930  13.456
 1059SOL    HW2 5010  14.881  13.780  13.478
 1060SOL     OW 5011   9.033  12.974   5.907
 1060SOL    HW1 5012   9.121  12.984   5.870
 1060SOL    HW2 5013   9.046  12.982   6.002
 1061SOL     OW 5014   9.057   2.108   2.710
 1061SOL    HW1 5015   8.981   2.109   2.768
 1061SOL    HW2 5016   9.036   2.041   2.645
 1062SOL     OW 5017  10.465   0.046  10.263
 1062SOL    HW1 5018  10.543  14.882  10.295
 1062SOL    HW2 5019  10.394  14.864  10.269
 1063SOL     OW 5020   8.766   1.185   1.698
 1063SOL    HW1 5021   8.778   1.264   1.750
 1063SOL    HW2 5022   8.792   1.114   1.757
 1064SOL     OW 5023   3.719   2.829   8.031
 1064SOL    HW1 5024   3.754   2.760   7.975
 1064SOL    HW2 5025   3.645   2.788   8.075
 1065SOL     OW 5026   6.200   2.906  14.685
 1065SOL    HW1 5027   6.255   2.925  14.609
 1065SOL    HW2 5028   6.138   2.979  14.688
 1066SOL     OW 5029   0.481   9.995   4.072
 1066SOL    HW1 5030   0.505   9.978   4.163
 1066SOL    HW2 5031   0.418   9.927   4.050
 1067SOL     OW 5032   9.444  11.823   2.142
 1067SOL    HW1 5033   9.471  11.887   2.075
 1067SOL    HW2 5034   9.401  11.754   2.093
 1068SOL     OW 5035  10.072  14.026   8.354
 1068SOL    HW1 5036  10.134  13.953   8.353
 1068SOL    HW2 5037  10.066  14.050   8.446
 1069SOL     OW 5038   9.413  11.165  11.887
 1069SOL    HW1 5039   9.346  11.186  11.822
 1069SOL    HW2 5040   9.365  11.121  11.957
 1070SOL     OW 5041   8.816   6.839   0.937
 1070SOL    HW1 5042   8.826   6.841   0.842
 1070SOL    HW2 5043   8.751   6.771   0.953
 1071SOL     OW 5044   9.707   7.174   9.620
 1071SOL    HW1 5045   9.642   7.229   9.665
 1071SOL    HW2 5046   9.730   7.225   9.542
 1072SOL     OW 5047  10.203   9.880  11.005
 1072SOL    HW1 5048  10.262   9.846  11.072
 1072SOL    HW2 5049  10.261   9.910  10.935
 1073SOL     OW 5050   0.605   4.984   8.143
 1073SOL    HW1 5051   0.625   4.946   8.058
 1073SOL    HW2 5052   0.675   5.047   8.159
 1074SOL     OW 5053   2.429   5.651   7.678
 1074SOL    HW1 5054   2.481   5.618   7.605
 1074SOL    HW2 5055   2.478   5.725   7.712
 1075SOL     OW 5056  10.588   1.632   2.006
 1075SOL    HW1 5057  10.671   1.632   1.959
 1075SOL    HW2 5058  10.551   1.718   1.990
 1076SOL     OW 5059   9.831   4.131   8.618
 1076SOL    HW1 5060   9.864   4.049   8.583
 1076SOL    HW2 5061   9.893   4.197   8.585
 1077SOL     OW 5062  14.603   4.627  14.550
 1077SOL    HW1 5063  14.596   4.649  14.643
 1077SOL    HW2 5064  14.694   4.647  14.527
 1078SOL     OW 5065   7.192   8.271   0.140
 1078SOL    HW1 5066   7.123   8.219   0.100
 1078SOL    HW2 5067   7.175   8.267   0.234
 1079SOL     OW 5068   8.062   4.547   6.423
 1079SOL    HW1 5069   8.009   4.614   6.467
 1079SOL    HW2 5070   8.104   4.499   6.495
 1080SOL     OW 5071   8.933   0.629  11.464
 1080SOL    HW1 5072   9.006   0.567  11.474
 1080SOL    HW2 5073   8.877   0.613  11.540
 1081SOL     OW 5074   2.587  14.539   3.944
 1081SOL    HW1 5075   2.492  14.532   3.942
 1081SOL    HW2 5076   2.604  14.633   3.950
 1082SOL     OW 5077   0.440  10.980  12.408
 1082SOL    HW1 5078   0.409  10.990  12.498
 1082SOL    HW2 5079   0.361  10.976  12.355
 1083SOL     OW 5080   3.303  11.130   7.874
 1083SOL    HW1 5081   3.388  11.168   7.854
 1083SOL    HW2 5082   3.292  11.145   7.968
 1084SOL     OW 5083   5.133   9.247   7.994
 1084SOL    HW1 5084   5.214   9.297   7.984
 1084SOL    HW2 5085   5.145   9.170   7.938
 1085SOL     OW 5086   7.572   1.195   0.339
 1085SOL    HW1 5087   7.542   1.238   0.419
 1085SOL    HW2 5088   7.573   1.264   0.273
 1086SOL     OW 5089  14.297  12.519  12.594
 1086SOL    HW1 5090  14.308  12.442  12.538
 1086SOL    HW2 5091  14.211  12.507  12.634
 1087SOL     OW 5092   4.696  12.144  11.916
 1087SOL    HW1 5093   4.700  12.192  11.999
 1087SOL    HW2 5094   4.753  12.194  11.857
 1088SOL     OW 5095   1.702  10.435   7.539
 1088SOL    HW1 5096   1.713  10.344   7.565
 1088SOL    HW2 5097   1.769  10.449   7.472
 1089SOL     OW 5098   8.349   3.010   2.560
 1089SOL    HW1 5099   8.427   2.966   2.527
 1089SOL    HW2 5100   8.382   3.091   2.599
 1090SOL     OW 5101  13.595   7.248   6.336
 1090SOL    HW1 5102  13.536   7.175   6.356
 1090SOL    HW2 5103  13.682   7.216   6.360
 1091SOL     OW 5104  14.041  14.341  10.402
 1091SOL    HW1 5105  14.117  14.282  10.404
 1091SOL    HW2 5106  14.032  14.364  10.309
 1092SOL     OW 5107   7.201   9.265   0.195
 1092SOL    HW1 5108   7.199   9.176   0.158
 1092SOL    HW2 5109   7.164   9.255   0.283
 1093SOL     OW 5110   4.773  11.948   4.636
 1093SOL    HW1 5111   4.826  12.026   4.618
 1093SOL    HW2 5112   4.757  11.951   4.730
 1094SOL     OW 5113   2.615   7.043   0.131
 1094SOL    HW1 5114   2.535   6.992   0.120
 1094SOL    HW2 5115   2.608   7.083   0.217
 1095SOL     OW 5116  10.764   6.536  10.881
 1095SOL    HW1 5117  10.802   6.621  10.858
 1095SOL    HW2 5118  10.739   6.545  10.973
 1096SOL     OW 5119  14.483   9.341  11.394
 1096SOL    HW1 5120  14.413   9.375  11.450
 1096SOL    HW2 5121  14.503   9.412  11.333
 1097SOL     OW 5122   7.125  14.290  14.064
 1097SOL    HW1 5123   7.106  14.227  14.134
 1097SOL    HW2 5124   7.215  14.272  14.040
 1098SOL     OW 5125   5.079   1.163   4.345
 1098SOL    HW1 5126   5.041   1.124   4.267
 1098SOL    HW2 5127   5.174   1.156   4.332
 1099SOL     OW 5128  13.009  13.677  13.103
 1099SOL    HW1 5129  12.978  13.587  13.098
 1099SOL    HW2 5130  12.979  13.709  13.188
 1100SOL     OW 5131  14.739   8.567   3.619
 1100SOL    HW1 5132  14.643   8.569   3.624
 1100SOL    HW2 5133  14.757   8.521   3.537
 1101SOL     OW 5134   0.267   1.702   7.032
 1101SOL    HW1 5135   0.311   1.639   6.974
 1101SOL    HW2 5136   0.229   1.767   6.973
 1102SOL     OW 5137   8.247   0.427  10.932
 1102SOL    HW1 5138   8.329   0.476  10.924
 1102SOL    HW2 5139   8.183   0.477  10.881
 1103SOL     OW 5140   7.885   6.800   1.995
 1103SOL    HW1 5141   7.948   6.750   2.046
 1103SOL    HW2 5142   7.819   6.826   2.059
 1104SOL     OW 5143   2.165   2.220   7.249
 1104SOL    HW1 5144   2.205   2.307   7.241
 1104SOL    HW2 5145   2.140   2.214   7.341
 1105SOL     OW 5146   1.199   1.357  13.655
 1105SOL    HW1 5147   1.143   1.356  13.733
 1105SOL    HW2 5148   1.168   1.283  13.603
 1106SOL     OW 5149   7.732   5.447  10.137
 1106SOL    HW1 5150   7.747   5.358  10.168
 1106SOL    HW2 5151   7.813   5.471  10.093
 1107SOL     OW 5152   8.528   9.132   8.115
 1107SOL    HW1 5153   8.539   9.117   8.021
 1107SOL    HW2 5154   8.486   9.217   8.122
 1108SOL     OW 5155   7.224  12.259   6.832
 1108SOL    HW1 5156   7.174  12.288   6.909
 1108SOL    HW2 5157   7.157  12.231   6.769
 1109SOL     OW 5158   6.336   4.063   2.732
 1109SOL    HW1 5159   6.266   4.087   2.793
 1109SOL    HW2 5160   6.305   4.095   2.647
 1110SOL     OW 5161  14.783   9.951   6.698
 1110SOL    HW1 5162  14.779   9.887   6.626
 1110SOL    HW2 5163  14.709   9.929   6.754
 1111SOL     OW 5164   1.655   9.106   2.403
 1111SOL    HW1 5165   1.682   9.159   2.477
 1111SOL    HW2 5166   1.664   9.015   2.434
 1112SOL     OW 5167   5.032   6.548  10.195
 1112SOL    HW1 5168   5.087   6.473  10.218
 1112SOL    HW2 5169   5.058   6.572  10.106
 1113SOL     OW 5170   2.211   4.837   8.650
 1113SOL    HW1 5171   2.172   4.758   8.686
 1113SOL    HW2 5172   2.227   4.893   8.726
 1114SOL     OW 5173   2.373   6.050   6.231
 1114SOL    HW1 5174   2.315   6.071   6.157
 1114SOL    HW2 5175   2.335   6.099   6.304
 1115SOL     OW 5176  10.754   6.057   3.429
 1115SOL    HW1 5177  10.792   6.002   3.361
 1115SOL    HW2 5178  10.720   6.134   3.383
 1116SOL     OW 5179   1.043  13.386   2.389
 1116SOL    HW1 5180   1.028  13.364   2.297
 1116SOL    HW2 5181   1.018  13.307   2.438
 1117SOL     OW 5182   0.075   0.177   5.727
 1117SOL    HW1 5183   0.077   0.263   5.769
 1117SOL    HW2 5184   0.109   0.117   5.794
 1118SOL     OW 5185   7.992   1.666  10.510
 1118SOL    HW1 5186   8.043   1.735  10.467
 1118SOL    HW2 5187   8.024   1.585  10.472
 1119SOL     OW 5188  10.203  13.748   1.320
 1119SOL    HW1 5189  10.217  13.706   1.235
 1119SOL    HW2 5190  10.265  13.706   1.379
 1120SOL     OW 5191   5.466  10.007   5.354
 1120SOL    HW1 5192   5.550   9.963   5.346
 1120SOL    HW2 5193   5.411   9.945   5.403
 1121SOL     OW 5194   3.796   1.353  11.544
 1121SOL    HW1 5195   3.732   1.400  11.490
 1121SOL    HW2 5196   3.760   1.356  11.632
 1122SOL     OW 5197   7.224  14.834   7.378
 1122SOL    HW1 5198   7.213  14.767   7.311
 1122SOL    HW2 5199   7.169   0.025   7.349
 1123SOL     OW 5200   5.078  11.672  12.098
 1123SOL    HW1 5201   5.090  11.646  12.006
 1123SOL    HW2 5202   4.985  11.690  12.105
 1124SOL     OW 5203   1.028   2.047   9.896
 1124SOL    HW1 5204   0.989   2.048   9.984
 1124SOL    HW2 5205   1.111   2.093   9.907
 1125SOL     OW 5206  14.409   8.974   6.048
 1125SOL    HW1 5207  14.352   8.959   6.124
 1125SOL    HW2 5208  14.493   8.937   6.073
 1126SOL     OW 5209   3.174   6.470   4.287
 1126SOL    HW1 5210   3.118   6.547   4.285
 1126SOL    HW2 5211   3.254   6.499   4.332
 1127SOL     OW 5212   1.225   3.365   7.532
 1127SOL    HW1 5213   1.222   3.392   7.440
 1127SOL    HW2 5214   1.137   3.334   7.551
 1128SOL     OW 5215  13.629   0.513   4.150
 1128SOL    HW1 5216  13.668   0.439   4.195
 1128SOL    HW2 5217  13.663   0.507   4.061
 1129SOL     OW 5218  10.879   1.118  14.242
 1129SOL    HW1 5219  10.809   1.102  14.180
 1129SOL    HW2 5220  10.950   1.061  14.214
 1130SOL     OW 5221   7.153  10.428   3.508
 1130SOL    HW1 5222   7.121  10.370   3.439
 1130SOL    HW2 5223   7.249  10.423   3.500
 1131SOL     OW 5224   1.412  11.017  13.839
 1131SOL    HW1 5225   1.436  11.086  13.900
 1131SOL    HW2 5226   1.390  10.942  13.895
 1132SOL     OW 5227   5.190  14.175  12.124
 1132SOL    HW1 5228   5.275  14.210  12.148
 1132SOL    HW2 5229   5.191  14.170  12.029
 1133SOL     OW 5230   6.668   8.136   7.420
 1133SOL    HW1 5231   6.682   8.224   7.384
 1133SOL    HW2 5232   6.755   8.107   7.448
 1134SOL     OW 5233  12.778  10.131   0.724
 1134SOL    HW1 5234  12.761  10.137   0.818
 1134SOL    HW2 5235  12.704  10.081   0.689
 1135SOL     OW 5236   6.661   3.101  12.384
 1135SOL    HW1 5237   6.611   3.020  12.373
 1135SOL    HW2 5238   6.649   3.124  12.476
 1136SOL     OW 5239  11.632  11.297   5.147
 1136SOL    HW1 5240  11.561  11.356   5.170
 1136SOL    HW2 5241  11.631  11.229   5.214
 1137SOL     OW 5242  10.196   3.227   4.834
 1137SOL    HW1 5243  10.150   3.240   4.752
 1137SOL    HW2 5244  10.274   3.176   4.811
 1138SOL     OW 5245  14.578   2.551  13.872
 1138SOL    HW1 5246  14.631   2.615  13.921
 1138SOL    HW2 5247  14.602   2.565  13.781
 1139SOL     OW 5248  12.636   3.431   5.972
 1139SOL    HW1 5249  12.711   3.431   6.032
 1139SOL    HW2 5250  12.659   3.495   5.904
 1140SOL     OW 5251   8.875   7.141   6.377
 1140SOL    HW1 5252   8.931   7.127   6.301
 1140SOL    HW2 5253   8.805   7.077   6.367
 1141SOL     OW 5254  10.589   0.962   7.667
 1141SOL    HW1 5255  10.563   0.939   7.578
 1141SOL    HW2 5256  10.559   1.052   7.678
 1142SOL     OW 5257   3.630  13.433  14.644
 1142SOL    HW1 5258   3.543  13.470  14.631
 1142SOL    HW2 5259   3.646  13.380  14.566
 1143SOL     OW 5260  14.750   1.934   5.549
 1143SOL    HW1 5261  14.824   1.941   5.489
 1143SOL    HW2 5262  14.700   2.014   5.535
 1144SOL     OW 5263  12.066  11.007   5.875
 1144SOL    HW1 5264  12.144  11.052   5.844
 1144SOL    HW2 5265  11.995  11.071   5.864
 1145SOL     OW 5266   7.237   7.586  10.852
 1145SOL    HW1 5267   7.189   7.640  10.915
 1145SOL    HW2 5268   7.181   7.584  10.774
 1146SOL     OW 5269   5.969  10.044   0.372
 1146SOL    HW1 5270   6.010  10.020   0.455
 1146SOL    HW2 5271   6.041  10.078   0.318
 1147SOL     OW 5272   6.920   9.340  12.401
 1147SOL    HW1 5273   6.845   9.377  12.354
 1147SOL    HW2 5274   6.955   9.273  12.342
 1148SOL     OW 5275   2.690   3.877   7.151
 1148SOL    HW1 5276   2.673   3.789   7.183
 1148SOL    HW2 5277   2.604   3.912   7.129
 1149SOL     OW 5278   8.741   8.422   4.339
 1149SOL    HW1 5279   8.652   8.389   4.330
 1149SOL    HW2 5280   8.781   8.407   4.253
 1150SOL     OW 5281  10.062   1.621   2.973
 1150SOL    HW1 5282   9.991   1.683   2.960
 1150SOL    HW2 5283  10.142   1.672   2.957
 1151SOL     OW 5284   3.115   6.197  11.279
 1151SOL    HW1 5285   3.201   6.174  11.245
 1151SOL    HW2 5286   3.114   6.292  11.283
 1152SOL     OW 5287  14.073   8.811  12.557
 1152SOL    HW1 5288  14.131   8.735  12.558
 1152SOL    HW2 5289  14.121   8.878  12.605
 1153SOL     OW 5290   1.815   2.230   1.575
 1153SOL    HW1 5291   1.739   2.288   1.568
 1153SOL    HW2 5292   1.888   2.283   1.543
 1154SOL     OW 5293  14.478   0.453   3.307
 1154SOL    HW1 5294  14.400   0.505   3.330
 1154SOL    HW2 5295  14.544   0.480   3.371
 1155SOL     OW 5296   2.848  14.241   1.730
 1155SOL    HW1 5297   2.893  14.275   1.653
 1155SOL    HW2 5298   2.903  14.170   1.761
 1156SOL     OW 5299   6.270  12.585   1.277
 1156SOL    HW1 5300   6.206  12.627   1.219
 1156SOL    HW2 5301   6.238  12.605   1.365
 1157SOL     OW 5302   7.566   6.716   0.142
 1157SOL    HW1 5303   7.600   6.736   0.055
 1157SOL    HW2 5304   7.641   6.681   0.190
 1158SOL     OW 5305   2.556   9.288   4.090
 1158SOL    HW1 5306   2.488   9.239   4.045
 1158SOL    HW2 5307   2.511   9.364   4.127
 1159SOL     OW 5308   0.664   3.836  13.595
 1159SOL    HW1 5309   0.727   3.813  13.527
 1159SOL    HW2 5310   0.578   3.819  13.554
 1160SOL     OW 5311  13.244   4.193   9.941
 1160SOL    HW1 5312  13.296   4.114   9.929
 1160SOL    HW2 5313  13.292   4.260   9.893
 1161SOL     OW 5314  13.768   3.685   2.206
 1161SOL    HW1 5315  13.804   3.752   2.147
 1161SOL    HW2 5316  13.702   3.640   2.154
 1162SOL     OW 5317   8.077   3.662  10.127
 1162SOL    HW1 5318   8.153   3.719  10.117
 1162SOL    HW2 5319   8.050   3.673  10.218
 1163SOL     OW 5320   3.305   4.793   2.628
 1163SOL    HW1 5321   3.325   4.783   2.535
 1163SOL    HW2 5322   3.347   4.718   2.669
 1164SOL     OW 5323  13.762  14.079   9.662
 1164SOL    HW1 5324  13.740  14.016   9.593
 1164SOL    HW2 5325  13.847  14.049   9.695
 1165SOL     OW 5326   5.589   2.004   0.589
 1165SOL    HW1 5327   5.643   1.991   0.511
 1165SOL    HW2 5328   5.648   2.045   0.652
 1166SOL     OW 5329   3.508   0.775   8.700
 1166SOL    HW1 5330   3.460   0.776   8.783
 1166SOL    HW2 5331   3.584   0.831   8.716
 1167SOL     OW 5332  14.505   6.564   3.965
 1167SOL    HW1 5333  14.558   6.512   4.025
 1167SOL    HW2 5334  14.568   6.611   3.911
 1168SOL     OW 5335   3.049   8.458   8.925
 1168SOL    HW1 5336   2.966   8.492   8.892
 1168SOL    HW2 5337   3.080   8.524   8.987
 1169SOL     OW 5338   2.392   0.861  11.066
 1169SOL    HW1 5339   2.408   0.839  11.158
 1169SOL    HW2 5340   2.434   0.947  11.055
 1170SOL     OW 5341   8.896  11.123   2.359
 1170SOL    HW1 5342   8.923  11.104   2.269
 1170SOL    HW2 5343   8.978  11.142   2.405
 1171SOL     OW 5344  14.460   4.862   6.465
 1171SOL    HW1 5345  14.386   4.906   6.425
 1171SOL    HW2 5346  14.461   4.893   6.556
 1172SOL     OW 5347   4.456   1.752   1.698
 1172SOL    HW1 5348   4.445   1.676   1.640
 1172SOL    HW2 5349   4.528   1.727   1.756
 1173SOL     OW 5350   2.242   8.053   5.661
 1173SOL    HW1 5351   2.258   8.147   5.651
 1173SOL    HW2 5352   2.320   8.011   5.624
 1174SOL     OW 5353   6.512   0.636  11.723
 1174SOL    HW1 5354   6.530   0.542  11.717
 1174SOL    HW2 5355   6.432   0.648  11.672
 1175SOL     OW 5356   9.330   0.876  12.638
 1175SOL    HW1 5357   9.309   0.969  12.631
 1175SOL    HW2 5358   9.286   0.847  12.718
 1176SOL     OW 5359  10.616  11.011   0.311
 1176SOL    HW1 5360  10.699  10.974   0.280
 1176SOL    HW2 5361  10.550  10.975   0.252
 1177SOL     OW 5362  13.571   4.119   1.550
 1177SOL    HW1 5363  13.626   4.047   1.583
 1177SOL    HW2 5364  13.495   4.119   1.608
 1178SOL     OW 5365   7.195  10.174   6.673
 1178SOL    HW1 5366   7.277  10.127   6.657
 1178SOL    HW2 5367   7.221  10.252   6.723
 1179SOL     OW 5368   4.109   9.187   5.336
 1179SOL    HW1 5369   4.037   9.129   5.311
 1179SOL    HW2 5370   4.115   9.177   5.431
 1180SOL     OW 5371   3.006  13.774  11.608
 1180SOL    HW1 5372   3.006  13.697  11.551
 1180SOL    HW2 5373   3.024  13.848  11.549
 1181SOL     OW 5374   1.742  14.672   8.949
 1181SOL    HW1 5375   1.697  14.609   8.894
 1181SOL    HW2 5376   1.689  14.676   9.029
 1182SOL     OW 5377   5.662   9.820   8.925
 1182SOL    HW1 5378   5.583   9.850   8.970
 1182SOL    HW2 5379   5.685   9.891   8.866
 1183SOL     OW 5380   5.073   1.506  10.562
 1183SOL    HW1 5381   5.150   1.500  10.619
 1183SOL    HW2 5382   5.076   1.426  10.509
 1184SOL     OW 5383  12.992   9.271  10.193
 1184SOL    HW1 5384  12.925   9.293  10.258
 1184SOL    HW2 5385  12.979   9.333  10.122
 1185SOL     OW 5386  12.723   0.290   0.122
 1185SOL    HW1 5387  12.747   0.280   0.030
 1185SOL    HW2 5388  12.753   0.377   0.146
 1186SOL     OW 5389   7.183   7.450   1.898
 1186SOL    HW1 5390   7.130   7.421   1.824
 1186SOL    HW2 5391   7.273   7.440   1.869
 1187SOL     OW 5392  13.696   9.589   8.679
 1187SOL    HW1 5393  13.702   9.511   8.624
 1187SOL    HW2 5394  13.604   9.595   8.702
 1188SOL     OW 5395  13.209   0.015   2.517
 1188SOL    HW1 5396  13.117  14.876   2.537
 1188SOL    HW2 5397  13.253  14.812   2.516
 1189SOL     OW 5398  12.358  14.516  13.150
 1189SOL    HW1 5399  12.263  14.509  13.153
 1189SOL    HW2 5400  12.379  14.590  13.206
 1190SOL     OW 5401  10.312   8.990  12.658
 1190SOL    HW1 5402  10.376   8.981  12.586
 1190SOL    HW2 5403  10.342   8.927  12.723
 1191SOL     OW 5404  10.630  11.470  12.180
 1191SOL    HW1 5405  10.551  11.514  12.149
 1191SOL    HW2 5406  10.618  11.461  12.274
 1192SOL     OW 5407  10.124   3.740   6.493
 1192SOL    HW1 5408  10.156   3.688   6.419
 1192SOL    HW2 5409  10.068   3.807   6.452
 1193SOL     OW 5410   5.965  12.551  10.399
 1193SOL    HW1 5411   5.890  12.603  10.371
 1193SOL    HW2 5412   6.021  12.546  10.321
 1194SOL     OW 5413   5.299   3.356   0.558
 1194SOL    HW1 5414   5.372   3.332   0.500
 1194SOL    HW2 5415   5.241   3.408   0.502
 1195SOL     OW 5416   0.721  12.879   6.259
 1195SOL    HW1 5417   0.769  12.907   6.337
 1195SOL    HW2 5418   0.768  12.919   6.186
 1196SOL     OW 5419  10.945   7.503  10.998
 1196SOL    HW1 5420  10.890   7.528  10.924
 1196SOL    HW2 5421  11.034   7.497  10.962
 1197SOL     OW 5422   8.446   5.893  10.708
 1197SOL    HW1 5423   8.467   5.984  10.686
 1197SOL    HW2 5424   8.425   5.852  10.625
 1198SOL     OW 5425  12.105   2.032   4.143
 1198SOL    HW1 5426  12.153   1.981   4.077
 1198SOL    HW2 5427  12.143   2.119   4.138
 1199SOL     OW 5428  13.126  14.715   8.916
 1199SOL    HW1 5429  13.091  14.796   8.953
 1199SOL    HW2 5430  13.175  14.744   8.839
 1200SOL     OW 5431   6.447   2.085  12.095
 1200SOL    HW1 5432   6.512   2.113  12.030
 1200SOL    HW2 5433   6.498   2.060  12.171
 1201SOL     OW 5434  11.717   4.235   1.007
 1201SOL    HW1 5435  11.716   4.329   0.989
 1201SOL    HW2 5436  11.804   4.218   1.042
 1202SOL     OW 5437   7.013  13.894  10.733
 1202SOL    HW1 5438   6.948  13.884  10.803
 1202SOL    HW2 5439   6.967  13.864  10.654
 1203SOL     OW 5440  12.519  12.815   1.848
 1203SOL    HW1 5441  12.592  12.812   1.910
 1203SOL    HW2 5442  12.441  12.807   1.902
 1204SOL     OW 5443  12.100   0.107  10.208
 1204SOL    HW1 5444  12.094   0.191  10.254
 1204SOL    HW2 5445  12.177   0.065  10.245
 1205SOL     OW 5446   8.239   5.629   2.712
 1205SOL    HW1 5447   8.243   5.678   2.630
 1205SOL    HW2 5448   8.257   5.694   2.780
 1206SOL     OW 5449   7.682   0.121  13.986
 1206SOL    HW1 5450   7.733   0.106  14.066
 1206SOL    HW2 5451   7.636   0.203  14.003
 1207SOL     OW 5452  11.698  11.456  14.519
 1207SOL    HW1 5453  11.659  11.371  14.535
 1207SOL    HW2 5454  11.745  11.446  14.437
 1208SOL     OW 5455   5.906   0.402   0.184
 1208SOL    HW1 5456   5.945   0.348   0.116
 1208SOL    HW2 5457   5.895   0.342   0.258
 1209SOL     OW 5458   5.223  14.761  10.042
 1209SOL    HW1 5459   5.282  14.835  10.024
 1209SOL    HW2 5460   5.266  14.712  10.112
 1210SOL     OW 5461   0.565   7.690   6.253
 1210SOL    HW1 5462   0.555   7.613   6.309
 1210SOL    HW2 5463   0.645   7.674   6.203
 1211SOL     OW 5464   7.566   5.631  13.052
 1211SOL    HW1 5465   7.519   5.608  12.972
 1211SOL    HW2 5466   7.497   5.661  13.112
 1212SOL     OW 5467   3.521   3.431   8.174
 1212SOL    HW1 5468   3.464   3.483   8.231
 1212SOL    HW2 5469   3.553   3.494   8.109
 1213SOL     OW 5470   4.615   1.248   3.698
 1213SOL    HW1 5471   4.620   1.344   3.707
 1213SOL    HW2 5472   4.608   1.217   3.788
 1214SOL     OW 5473   8.780   2.060   2.919
 1214SOL    HW1 5474   8.844   2.053   2.989
 1214SOL    HW2 5475   8.788   1.979   2.870
 1215SOL     OW 5476   6.376  12.094  14.222
 1215SOL    HW1 5477   6.436  12.019  14.231
 1215SOL    HW2 5478   6.416  12.148  14.154
 1216SOL     OW 5479   4.450   8.704   0.316
 1216SOL    HW1 5480   4.483   8.616   0.334
 1216SOL    HW2 5481   4.525   8.761   0.330
 1217SOL     OW 5482   9.939   0.324   1.705
 1217SOL    HW1 5483   9.917   0.308   1.797
 1217SOL    HW2 5484   9.905   0.412   1.687
 1218SOL     OW 5485  10.363   2.292   3.014
 1218SOL    HW1 5486  10.395   2.225   3.073
 1218SOL    HW2 5487  10.267   2.288   3.022
 1219SOL     OW 5488   3.287   7.991   4.003
 1219SOL    HW1 5489   3.233   7.937   3.945
 1219SOL    HW2 5490   3.371   8.000   3.958
 1220SOL     OW 5491   1.710   7.082  12.078
 1220SOL    HW1 5492   1.715   7.167  12.121
 1220SOL    HW2 5493   1.638   7.091  12.016
 1221SOL     OW 5494   4.264   3.629  12.135
 1221SOL    HW1 5495   4.278   3.641  12.230
 1221SOL    HW2 5496   4.229   3.713  12.106
 1222SOL     OW 5497  14.342  11.967   3.558
 1222SOL    HW1 5498  14.342  11.880   3.518
 1222SOL    HW2 5499  14.272  12.014   3.512
 1223SOL     OW 5500   8.359   2.145   9.500
 1223SOL    HW1 5501   8.334   2.067   9.550
 1223SOL    HW2 5502   8.454   2.150   9.509
 1224SOL     OW 5503   1.133   1.060  13.919
 1224SOL    HW1 5504   1.206   1.045  13.860
 1224SOL    HW2 5505   1.083   1.131  13.879
 1225SOL     OW 5506   8.658   2.003   9.857
 1225SOL    HW1 5507   8.576   1.953   9.854
 1225SOL    HW2 5508   8.638   2.077   9.914
 1226SOL     OW 5509   3.504   2.669  12.853
 1226SOL    HW1 5510   3.441   2.709  12.912
 1226SOL    HW2 5511   3.546   2.743  12.810
 1227SOL     OW 5512   0.680  11.220   9.034
 1227SOL    HW1 5513   0.727  11.177   8.963
 1227SOL    HW2 5514   0.649  11.302   8.995
 1228SOL     OW 5515   7.829   5.144   3.113
 1228SOL    HW1 5516   7.740   5.165   3.140
 1228SOL    HW2 5517   7.881   5.147   3.194
 1229SOL     OW 5518   0.037   4.358   1.889
 1229SOL    HW1 5519   0.014   4.443   1.927
 1229SOL    HW2 5520   0.113   4.377   1.834
 1230SOL     OW 5521   5.825  14.749   5.549
 1230SOL    HW1 5522   5.785  14.777   5.631
 1230SOL    HW2 5523   5.813  14.654   5.547
 1231SOL     OW 5524   9.418   6.866   7.012
 1231SOL    HW1 5525   9.398   6.959   7.020
 1231SOL    HW2 5526   9.431   6.836   7.102
 1232SOL     OW 5527   1.531  13.926  12.052
 1232SOL    HW1 5528   1.462  13.868  12.020
 1232SOL    HW2 5529   1.599  13.866  12.085
 1233SOL     OW 5530  10.417   2.754   8.966
 1233SOL    HW1 5531  10.434   2.661   8.981
 1233SOL    HW2 5532  10.335   2.757   8.918
 1234SOL     OW 5533  13.742   0.177  11.616
 1234SOL    HW1 5534  13.778   0.104  11.666
 1234SOL    HW2 5535  13.686   0.136  11.550
 1235SOL     OW 5536   5.802  11.780  13.078
 1235SOL    HW1 5537   5.823  11.812  13.166
 1235SOL    HW2 5538   5.722  11.730  13.090
 1236SOL     OW 5539  10.454   5.698  12.796
 1236SOL    HW1 5540  10.549   5.691  12.782
 1236SOL    HW2 5541  10.434   5.627  12.858
 1237SOL     OW 5542   1.117   0.568   4.483
 1237SOL    HW1 5543   1.091   0.592   4.394
 1237SOL    HW2 5544   1.134   0.474   4.479
 1238SOL     OW 5545  12.462  12.822   6.653
 1238SOL    HW1 5546  12.528  12.764   6.691
 1238SOL    HW2 5547  12.380  12.794   6.692
 1239SOL     OW 5548   8.106  12.962  10.372
 1239SOL    HW1 5549   8.129  13.034  10.314
 1239SOL    HW2 5550   8.187  12.913  10.384
 1240SOL     OW 5551   8.474   7.250   7.290
 1240SOL    HW1 5552   8.445   7.328   7.337
 1240SOL    HW2 5553   8.532   7.284   7.222
 1241SOL     OW 5554   6.229   9.470  11.751
 1241SOL    HW1 5555   6.261   9.485  11.840
 1241SOL    HW2 5556   6.245   9.377  11.735
 1242SOL     OW 5557   0.315   3.350   1.052
 1242SOL    HW1 5558   0.348   3.387   1.134
 1242SOL    HW2 5559   0.221   3.367   1.054
 1243SOL     OW 5560   8.687   4.207   9.940
 1243SOL    HW1 5561   8.714   4.243   9.855
 1243SOL    HW2 5562   8.636   4.277   9.980
 1244SOL     OW 5563  10.738   5.143  10.726
 1244SOL    HW1 5564  10.663   5.106  10.773
 1244SOL    HW2 5565  10.710   5.233  10.704
 1245SOL     OW 5566  12.501   1.856   0.795
 1245SOL    HW1 5567  12.467   1.766   0.791
 1245SOL    HW2 5568  12.423   1.910   0.807
 1246SOL     OW 5569   1.073   6.750   2.240
 1246SOL    HW1 5570   1.132   6.811   2.285
 1246SOL    HW2 5571   0.996   6.745   2.296
 1247SOL     OW 5572   6.564   6.303   5.796
 1247SOL    HW1 5573   6.538   6.232   5.854
 1247SOL    HW2 5574   6.482   6.349   5.777
 1248SOL     OW 5575  12.316   4.428   3.498
 1248SOL    HW1 5576  12.272   4.511   3.520
 1248SOL    HW2 5577  12.367   4.407   3.576
 1249SOL     OW 5578   6.939   7.353   7.727
 1249SOL    HW1 5579   7.004   7.283   7.722
 1249SOL    HW2 5580   6.873   7.329   7.662
 1250SOL     OW 5581  13.806   6.933  10.361
 1250SOL    HW1 5582  13.790   6.936  10.456
 1250SOL    HW2 5583  13.896   6.902  10.353
 1251SOL     OW 5584  13.492   5.199  11.941
 1251SOL    HW1 5585  13.567   5.259  11.947
 1251SOL    HW2 5586  13.526   5.115  11.973
 1252SOL     OW 5587   3.674   8.699   7.125
 1252SOL    HW1 5588   3.723   8.639   7.069
 1252SOL    HW2 5589   3.594   8.719   7.076
 1253SOL     OW 5590   8.049   4.687   3.342
 1253SOL    HW1 5591   8.039   4.649   3.429
 1253SOL    HW2 5592   7.976   4.748   3.333
 1254SOL     OW 5593  11.540   9.233  10.492
 1254SOL    HW1 5594  11.475   9.233  10.563
 1254SOL    HW2 5595  11.556   9.326  10.475
 1255SOL     OW 5596   2.804   9.809   4.496
 1255SOL    HW1 5597   2.777   9.898   4.517
 1255SOL    HW2 5598   2.899   9.808   4.512
 1256SOL     OW 5599   5.051   8.315  11.622
 1256SOL    HW1 5600   5.072   8.398  11.581
 1256SOL    HW2 5601   5.134   8.283  11.656
 1257SOL     OW 5602  11.649  10.317   2.616
 1257SOL    HW1 5603  11.659  10.240   2.673
 1257SOL    HW2 5604  11.580  10.369   2.659
 1258SOL     OW 5605  13.613   2.370   3.091
 1258SOL    HW1 5606  13.669   2.292   3.099
 1258SOL    HW2 5607  13.640   2.411   3.009
 1259SOL     OW 5608   7.805   7.174  10.338
 1259SOL    HW1 5609   7.883   7.164  10.282
 1259SOL    HW2 5610   7.791   7.086  10.375
 1260SOL     OW 5611  11.203  12.245   9.193
 1260SOL    HW1 5612  11.139  12.231   9.124
 1260SOL    HW2 5613  11.240  12.331   9.175
 1261SOL     OW 5614  14.684  10.466  10.102
 1261SOL    HW1 5615  14.629  10.437  10.029
 1261SOL    HW2 5616  14.773  10.446  10.073
 1262SOL     OW 5617  13.812  12.929   3.888
 1262SOL    HW1 5618  13.753  12.854   3.889
 1262SOL    HW2 5619  13.766  12.994   3.835
 1263SOL     OW 5620   3.049  10.332   9.545
 1263SOL    HW1 5621   3.120  10.321   9.483
 1263SOL    HW2 5622   3.079  10.287   9.624
 1264SOL     OW 5623   3.036   9.660   2.799
 1264SOL    HW1 5624   3.128   9.667   2.775
 1264SOL    HW2 5625   3.005   9.580   2.755
 1265SOL     OW 5626  13.523   1.596   8.813
 1265SOL    HW1 5627  13.588   1.582   8.743
 1265SOL    HW2 5628  13.459   1.526   8.800
 1266SOL     OW 5629   7.540   4.235   6.287
 1266SOL    HW1 5630   7.578   4.304   6.232
 1266SOL    HW2 5631   7.566   4.258   6.376
 1267SOL     OW 5632   7.492   6.677   4.504
 1267SOL    HW1 5633   7.431   6.634   4.443
 1267SOL    HW2 5634   7.449   6.760   4.526
 1268SOL     OW 5635   3.078   2.614   5.669
 1268SOL    HW1 5636   3.068   2.686   5.607
 1268SOL    HW2 5637   2.989   2.580   5.681
 1269SOL     OW 5638   7.385   7.694   1.301
 1269SOL    HW1 5639   7.361   7.610   1.261
 1269SOL    HW2 5640   7.454   7.728   1.245
 1270SOL     OW 5641  12.326   5.557   2.751
 1270SOL    HW1 5642  12.236   5.547   2.783
 1270SOL    HW2 5643  12.318   5.556   2.656
 1271SOL     OW 5644  10.010   2.917   1.995
 1271SOL    HW1 5645   9.931   2.877   1.959
 1271SOL    HW2 5646  10.045   2.851   2.055
 1272SOL     OW 5647  14.654   8.174  14.346
 1272SOL    HW1 5648  14.602   8.220  14.412
 1272SOL    HW2 5649  14.610   8.090  14.334
 1273SOL     OW 5650   1.685   4.113   5.312
 1273SOL    HW1 5651   1.626   4.053   5.267
 1273SOL    HW2 5652   1.772   4.074   5.301
 1274SOL     OW 5653   3.558   5.421   2.746
 1274SOL    HW1 5654   3.464   5.422   2.724
 1274SOL    HW2 5655   3.586   5.332   2.727
 1275SOL     OW 5656   2.771  12.283   9.115
 1275SOL    HW1 5657   2.763  12.272   9.020
 1275SOL    HW2 5658   2.853  12.240   9.137
 1276SOL     OW 5659   7.781  14.591  14.859
 1276SOL    HW1 5660   7.776  14.673  14.810
 1276SOL    HW2 5661   7.846  14.608   0.045
 1277SOL     OW 5662  14.084  13.954  13.571
 1277SOL    HW1 5663  14.092  13.860  13.588
 1277SOL    HW2 5664  14.174  13.986  13.569
 1278SOL     OW 5665   5.750   6.335   7.126
 1278SOL    HW1 5666   5.668   6.287   7.122
 1278SOL    HW2 5667   5.744   6.388   7.205
 1279SOL     OW 5668   0.440   7.881  14.834
 1279SOL    HW1 5669   0.524   7.914  14.804
 1279SOL    HW2 5670   0.460   7.796  14.873
 1280SOL     OW 5671  11.543  10.711   4.227
 1280SOL    HW1 5672  11.635  10.699   4.205
 1280SOL    HW2 5673  11.500  10.632   4.196
 1281SOL     OW 5674   0.413   7.779   1.298
 1281SOL    HW1 5675   0.331   7.824   1.320
 1281SOL    HW2 5676   0.393   7.686   1.310
 1282SOL     OW 5677   7.395   3.826   4.052
 1282SOL    HW1 5678   7.475   3.795   4.011
 1282SOL    HW2 5679   7.425   3.874   4.129
 1283SOL     OW 5680  10.580   1.507   9.529
 1283SOL    HW1 5681  10.622   1.565   9.592
 1283SOL    HW2 5682  10.523   1.564   9.478
 1284SOL     OW 5683   9.399   4.555   5.932
 1284SOL    HW1 5684   9.308   4.587   5.929
 1284SOL    HW2 5685   9.415   4.537   6.025
 1285SOL     OW 5686   8.579   7.688  12.916
 1285SOL    HW1 5687   8.509   7.630  12.945
 1285SOL    HW2 5688   8.633   7.701  12.994
 1286SOL     OW 5689  10.650  10.686  14.208
 1286SOL    HW1 5690  10.608  10.698  14.293
 1286SOL    HW2 5691  10.578  10.689  14.145
 1287SOL     OW 5692   7.682   2.164  11.664
 1287SOL    HW1 5693   7.757   2.123  11.620
 1287SOL    HW2 5694   7.718   2.242  11.706
 1288SOL     OW 5695  13.977   3.494   1.385
 1288SOL    HW1 5696  14.033   3.447   1.446
 1288SOL    HW2 5697  13.939   3.425   1.329
 1289SOL     OW 5698  14.596  12.668   2.060
 1289SOL    HW1 5699  14.674  12.719   2.082
 1289SOL    HW2 5700  14.530  12.734   2.037
 1290SOL     OW 5701   1.642   0.830  12.779
 1290SOL    HW1 5702   1.599   0.883  12.846
 1290SOL    HW2 5703   1.717   0.792  12.824
 1291SOL     OW 5704  11.404   9.719  13.192
 1291SOL    HW1 5705  11.380   9.810  13.212
 1291SOL    HW2 5706  11.437   9.685  13.275
 1292SOL     OW 5707   8.008   1.312   5.964
 1292SOL    HW1 5708   8.079   1.376   5.957
 1292SOL    HW2 5709   7.952   1.330   5.888
 1293SOL     OW 5710   8.957  12.406   7.740
 1293SOL    HW1 5711   9.027  12.371   7.795
 1293SOL    HW2 5712   8.879  12.357   7.766
 1294SOL     OW 5713   8.509   5.516   1.760
 1294SOL    HW1 5714   8.464   5.439   1.724
 1294SOL    HW2 5715   8.532   5.492   1.849
 1295SOL     OW 5716  11.623   5.185   5.957
 1295SOL    HW1 5717  11.566   5.180   6.033
 1295SOL    HW2 5718  11.687   5.253   5.980
 1296SOL     OW 5719  14.262   8.512   1.964
 1296SOL    HW1 5720  14.290   8.545   1.879
 1296SOL    HW2 5721  14.309   8.429   1.973
 1297SOL     OW 5722  14.323  11.057   8.693
 1297SOL    HW1 5723  14.245  11.035   8.745
 1297SOL    HW2 5724  14.356  10.973   8.663
 1298SOL     OW 5725  14.552  14.600  12.520
 1298SOL    HW1 5726  14.534  14.614  12.613
 1298SOL    HW2 5727  14.641  14.566  12.517
 1299SOL     OW 5728   5.232   4.023  14.328
 1299SOL    HW1 5729   5.177   4.042  14.405
 1299SOL    HW2 5730   5.261   3.933  14.341
 1300SOL     OW 5731   9.920   2.638   4.542
 1300SOL    HW1 5732   9.971   2.565   4.508
 1300SOL    HW2 5733   9.949   2.647   4.633
 1301SOL     OW 5734   3.407   0.272   9.299
 1301SOL    HW1 5735   3.500   0.261   9.278
 1301SOL    HW2 5736   3.366   0.289   9.214
 1302SOL     OW 5737   4.405  11.648  14.688
 1302SOL    HW1 5738   4.413  11.566  14.640
 1302SOL    HW2 5739   4.312  11.672  14.680
 1303SOL     OW 5740   7.622   6.332  12.569
 1303SOL    HW1 5741   7.688   6.360  12.505
 1303SOL    HW2 5742   7.540   6.369  12.536
 1304SOL     OW 5743  10.787  10.542   9.620
 1304SOL    HW1 5744  10.728  10.498   9.680
 1304SOL    HW2 5745  10.730  10.600   9.569
 1305SOL     OW 5746   0.887   0.150  13.756
 1305SOL    HW1 5747   0.902   0.204  13.678
 1305SOL    HW2 5748   0.867   0.213  13.825
 1306SOL     OW 5749   6.400   4.842   9.267
 1306SOL    HW1 5750   6.423   4.926   9.228
 1306SOL    HW2 5751   6.432   4.776   9.205
 1307SOL     OW 5752   6.013  14.580   6.230
 1307SOL    HW1 5753   6.019  14.632   6.310
 1307SOL    HW2 5754   6.103  14.570   6.201
 1308SOL     OW 5755   9.524  13.634   3.751
 1308SOL    HW1 5756   9.446  13.580   3.736
 1308SOL    HW2 5757   9.596  13.580   3.719
 1309SOL     OW 5758   2.561  12.222   1.202
 1309SOL    HW1 5759   2.629  12.188   1.144
 1309SOL    HW2 5760   2.604  12.227   1.288
 1310SOL     OW 5761   3.086  11.802  11.459
 1310SOL    HW1 5762   3.070  11.720  11.507
 1310SOL    HW2 5763   3.147  11.777  11.389
 1311SOL     OW 5764  14.599   6.413   9.617
 1311SOL    HW1 5765  14.580   6.433   9.526
 1311SOL    HW2 5766  14.516   6.380   9.652
 1312SOL     OW 5767   0.903   1.434  13.182
 1312SOL    HW1 5768   0.911   1.359  13.241
 1312SOL    HW2 5769   0.993   1.453  13.156
 1313SOL     OW 5770   4.795   8.562  10.060
 1313SOL    HW1 5771   4.815   8.582  10.151
 1313SOL    HW2 5772   4.730   8.491  10.064
 1314SOL     OW 5773   9.870   1.978  12.526
 1314SOL    HW1 5774   9.868   2.029  12.607
 1314SOL    HW2 5775   9.963   1.969  12.505
 1315SOL     OW 5776   0.988   5.058   9.457
 1315SOL    HW1 5777   1.021   5.135   9.503
 1315SOL    HW2 5778   1.046   5.049   9.381
 1316SOL     OW 5779   3.949  14.036   4.438
 1316SOL    HW1 5780   3.900  13.977   4.495
 1316SOL    HW2 5781   4.012  13.980   4.394
 1317SOL     OW 5782  11.223  14.582   0.672
 1317SOL    HW1 5783  11.304  14.595   0.622
 1317SOL    HW2 5784  11.214  14.661   0.725
 1318SOL     OW 5785   8.639   6.372   6.113
 1318SOL    HW1 5786   8.731   6.396   6.124
 1318SOL    HW2 5787   8.640   6.297   6.054
 1319SOL     OW 5788   4.620   9.744  14.223
 1319SOL    HW1 5789   4.603   9.654  14.196
 1319SOL    HW2 5790   4.715   9.754  14.214
 1320SOL     OW 5791  13.005  13.418  10.269
 1320SOL    HW1 5792  13.037  13.481  10.333
 1320SOL    HW2 5793  13.078  13.356  10.258
 1321SOL     OW 5794  13.823   3.710   5.948
 1321SOL    HW1 5795  13.752   3.773   5.960
 1321SOL    HW2 5796  13.867   3.708   6.033
 1322SOL     OW 5797   1.138   0.741   0.345
 1322SOL    HW1 5798   1.175   0.695   0.420
 1322SOL    HW2 5799   1.204   0.806   0.321
 1323SOL     OW 5800  10.802   6.704  12.027
 1323SOL    HW1 5801  10.795   6.781  12.082
 1323SOL    HW2 5802  10.767   6.731  11.942
 1324SOL     OW 5803   7.195   7.147   2.866
 1324SOL    HW1 5804   7.112   7.178   2.830
 1324SOL    HW2 5805   7.256   7.219   2.851
 1325SOL     OW 5806   5.292   5.683   8.587
 1325SOL    HW1 5807   5.330   5.618   8.528
 1325SOL    HW2 5808   5.236   5.632   8.646
 1326SOL     OW 5809   1.674   5.053   3.438
 1326SOL    HW1 5810   1.586   5.069   3.471
 1326SOL    HW2 5811   1.664   5.047   3.343
 1327SOL     OW 5812   7.483  13.468  11.721
 1327SOL    HW1 5813   7.569  13.508  11.735
 1327SOL    HW2 5814   7.497  13.375  11.739
 1328SOL     OW 5815   2.748  12.853   8.722
 1328SOL    HW1 5816   2.793  12.864   8.638
 1328SOL    HW2 5817   2.655  12.851   8.699
 1329SOL     OW 5818   0.833  13.858   5.677
 1329SOL    HW1 5819   0.767  13.877   5.611
 1329SOL    HW2 5820   0.803  13.903   5.756
 1330SOL     OW 5821  11.638   4.682   2.366
 1330SOL    HW1 5822  11.577   4.631   2.313
 1330SOL    HW2 5823  11.725   4.655   2.335
 1331SOL     OW 5824   4.111   5.325   3.333
 1331SOL    HW1 5825   4.061   5.382   3.391
 1331SOL    HW2 5826   4.199   5.323   3.372
 1332SOL     OW 5827   6.764   1.079  13.822
 1332SOL    HW1 5828   6.713   1.131  13.884
 1332SOL    HW2 5829   6.702   1.013  13.790
 1333SOL     OW 5830   6.042   6.699   0.048
 1333SOL    HW1 5831   6.113   6.760   0.027
 1333SOL    HW2 5832   6.058   6.675   0.139
 1334SOL     OW 5833   6.847  12.981   4.424
 1334SOL    HW1 5834   6.902  12.902   4.422
 1334SOL    HW2 5835   6.890  13.039   4.487
 1335SOL     OW 5836   8.461  13.903  11.217
 1335SOL    HW1 5837   8.548  13.865  11.202
 1335SOL    HW2 5838   8.410  13.832  11.256
 1336SOL     OW 5839   7.058  13.077   9.172
 1336SOL    HW1 5840   7.115  13.001   9.179
 1336SOL    HW2 5841   7.097  13.131   9.103
 1337SOL     OW 5842   5.983   3.216  12.636
 1337SOL    HW1 5843   5.933   3.274  12.694
 1337SOL    HW2 5844   5.938   3.132  12.640
 1338SOL     OW 5845   2.541  13.859  14.253
 1338SOL    HW1 5846   2.493  13.827  14.330
 1338SOL    HW2 5847   2.618  13.904  14.290
 1339SOL     OW 5848  14.536   9.195  11.109
 1339SOL    HW1 5849  14.618   9.170  11.152
 1339SOL    HW2 5850  14.563   9.243  11.031
 1340SOL     OW 5851   1.052   9.948   7.937
 1340SOL    HW1 5852   0.981   9.938   8.000
 1340SOL    HW2 5853   1.041  10.036   7.901
 1341SOL     OW 5854   4.472  11.618   7.209
 1341SOL    HW1 5855   4.414  11.643   7.281
 1341SOL    HW2 5856   4.524  11.696   7.191
 1342SOL     OW 5857  12.723  10.895   3.065
 1342SOL    HW1 5858  12.807  10.872   3.105
 1342SOL    HW2 5859  12.686  10.812   3.036
 1343SOL     OW 5860   0.983  10.958   4.201
 1343SOL    HW1 5861   1.031  10.892   4.251
 1343SOL    HW2 5862   0.996  11.039   4.250
 1344SOL     OW 5863   0.051   4.544   8.084
 1344SOL    HW1 5864   0.114   4.495   8.136
 1344SOL    HW2 5865   0.104   4.607   8.035
 1345SOL     OW 5866  13.167  14.404  14.140
 1345SOL    HW1 5867  13.211  14.486  14.160
 1345SOL    HW2 5868  13.074  14.421  14.157
 1346SOL     OW 5869   3.586   6.990   6.359
 1346SOL    HW1 5870   3.620   6.948   6.280
 1346SOL    HW2 5871   3.552   6.919   6.412
 1347SOL     OW 5872  13.391  12.388  14.089
 1347SOL    HW1 5873  13.413  12.335  14.166
 1347SOL    HW2 5874  13.447  12.353  14.019
 1348SOL     OW 5875   8.717  11.532  11.490
 1348SOL    HW1 5876   8.714  11.627  11.487
 1348SOL    HW2 5877   8.808  11.511  11.510
 1349SOL     OW 5878  11.442  14.820  13.901
 1349SOL    HW1 5879  11.408  14.731  13.907
 1349SOL    HW2 5880  11.516  14.822  13.962
 1350SOL     OW 5881   9.632  14.317   0.315
 1350SOL    HW1 5882   9.688  14.306   0.238
 1350SOL    HW2 5883   9.652  14.242   0.370
 1351SOL     OW 5884  10.293   9.871   4.713
 1351SOL    HW1 5885  10.250   9.787   4.701
 1351SOL    HW2 5886  10.222   9.936   4.709
 1352SOL     OW 5887   4.896   2.961   2.756
 1352SOL    HW1 5888   4.954   2.951   2.831
 1352SOL    HW2 5889   4.955   2.971   2.681
 1353SOL     OW 5890   0.821  12.864   2.156
 1353SOL    HW1 5891   0.790  12.887   2.068
 1353SOL    HW2 5892   0.742  12.862   2.209
 1354SOL     OW 5893   7.259  13.505   5.597
 1354SOL    HW1 5894   7.321  13.471   5.662
 1354SOL    HW2 5895   7.259  13.599   5.610
 1355SOL     OW 5896   5.892   9.029   2.304
 1355SOL    HW1 5897   5.820   9.035   2.367
 1355SOL    HW2 5898   5.912   8.935   2.299
 1356SOL     OW 5899   6.414  14.725  10.472
 1356SOL    HW1 5900   6.476  14.664  10.512
 1356SOL    HW2 5901   6.431  14.809  10.515
 1357SOL     OW 5902   6.059   9.284   5.211
 1357SOL    HW1 5903   6.040   9.369   5.251
 1357SOL    HW2 5904   6.045   9.297   5.117
 1358SOL     OW 5905   5.799   8.641  14.851
 1358SOL    HW1 5906   5.860   8.666   0.038
 1358SOL    HW2 5907   5.837   8.564  14.811
 1359SOL     OW 5908   9.805   3.093   4.886
 1359SOL    HW1 5909   9.861   3.042   4.829
 1359SOL    HW2 5910   9.773   3.030   4.951
 1360SOL     OW 5911   5.978  11.775   6.252
 1360SOL    HW1 5912   6.052  11.833   6.230
 1360SOL    HW2 5913   5.902  11.833   6.254
 1361SOL     OW 5914  13.285   7.834  14.162
 1361SOL    HW1 5915  13.285   7.885  14.081
 1361SOL    HW2 5916  13.251   7.749  14.137
 1362SOL     OW 5917   6.474  13.906  12.176
 1362SOL    HW1 5918   6.427  13.872  12.100
 1362SOL    HW2 5919   6.474  13.833  12.238
 1363SOL     OW 5920  10.753  14.448   3.000
 1363SOL    HW1 5921  10.706  14.511   2.946
 1363SOL    HW2 5922  10.803  14.502   3.061
 1364SOL     OW 5923  10.932  14.621   3.167
 1364SOL    HW1 5924  10.958  14.685   3.101
 1364SOL    HW2 5925  10.972  14.653   3.248
 1365SOL     OW 5926  10.977   3.687   8.264
 1365SOL    HW1 5927  10.889   3.703   8.298
 1365SOL    HW2 5928  11.035   3.727   8.329
 1366SOL     OW 5929   0.417  12.339   8.405
 1366SOL    HW1 5930   0.450  12.298   8.325
 1366SOL    HW2 5931   0.350  12.278   8.437
 1367SOL     OW 5932  11.356   5.891   5.365
 1367SOL    HW1 5933  11.277   5.874   5.314
 1367SOL    HW2 5934  11.329   5.879   5.456
 1368SOL     OW 5935   7.782   1.196  10.616
 1368SOL    HW1 5936   7.753   1.217  10.705
 1368SOL    HW2 5937   7.778   1.280  10.570
 1369SOL     OW 5938   6.643   2.838   4.837
 1369SOL    HW1 5939   6.637   2.889   4.757
 1369SOL    HW2 5940   6.569   2.867   4.890
 1370SOL     OW 5941   7.927   2.628   4.171
 1370SOL    HW1 5942   8.014   2.593   4.194
 1370SOL    HW2 5943   7.874   2.611   4.249
 1371SOL     OW 5944   5.002   5.561   8.593
 1371SOL    HW1 5945   4.915   5.524   8.612
 1371SOL    HW2 5946   5.062   5.487   8.598
 1372SOL     OW 5947  11.223   1.877  14.234
 1372SOL    HW1 5948  11.315   1.894  14.250
 1372SOL    HW2 5949  11.222   1.807  14.169
 1373SOL     OW 5950   6.794  13.441  11.136
 1373SOL    HW1 5951   6.885  13.410  11.137
 1373SOL    HW2 5952   6.800  13.532  11.108
 1374SOL     OW 5953   0.895   4.280  14.721
 1374SOL    HW1 5954   0.959   4.220  14.760
 1374SOL    HW2 5955   0.810   4.245  14.747
 1375SOL     OW 5956   7.051  14.505   9.294
 1375SOL    HW1 5957   7.137  14.534   9.325
 1375SOL    HW2 5958   7.069  14.427   9.243
 1376SOL     OW 5959   4.163   3.549  14.849
 1376SOL    HW1 5960   4.201   3.637  14.853
 1376SOL    HW2 5961   4.190   3.515  14.763
 1377SOL     OW 5962   3.705  14.458   9.690
 1377SOL    HW1 5963   3.791  14.418   9.676
 1377SOL    HW2 5964   3.725  14.542   9.731
 1378SOL     OW 5965   1.046   8.215  12.934
 1378SOL    HW1 5966   1.000   8.259  13.006
 1378SOL    HW2 5967   1.117   8.167  12.976
 1379SOL     OW 5968   1.406   9.158   2.515
 1379SOL    HW1 5969   1.349   9.132   2.442
 1379SOL    HW2 5970   1.495   9.147   2.481
 1380SOL     OW 5971  14.632  10.043  10.373
 1380SOL    HW1 5972  14.706   9.989  10.400
 1380SOL    HW2 5973  14.668  10.099  10.304
 1381SOL     OW 5974   6.349   4.641   7.645
 1381SOL    HW1 5975   6.402   4.564   7.624
 1381SOL    HW2 5976   6.289   4.650   7.570
 1382SOL     OW 5977   1.889   5.751   2.631
 1382SOL    HW1 5978   1.850   5.671   2.666
 1382SOL    HW2 5979   1.942   5.723   2.557
 1383SOL     OW 5980   8.903  14.245  13.833
 1383SOL    HW1 5981   8.883  14.325  13.785
 1383SOL    HW2 5982   8.850  14.250  13.912
 1384SOL     OW 5983   0.193  11.361   5.954
 1384SOL    HW1 5984   0.153  11.320   6.031
 1384SOL    HW2 5985   0.185  11.455   5.971
 1385SOL     OW 5986   0.002  13.364   3.459
 1385SOL    HW1 5987  14.827  13.386   3.386
 1385SOL    HW2 5988  14.831  13.308   3.516
 1386SOL     OW 5989  11.427   2.281   6.079
 1386SOL    HW1 5990  11.333   2.274   6.062
 1386SOL    HW2 5991  11.448   2.202   6.129
 1387SOL     OW 5992   5.268  10.597   0.449
 1387SOL    HW1 5993   5.271  10.692   0.432
 1387SOL    HW2 5994   5.313  10.586   0.533
 1388SOL     OW 5995   1.253   1.942   1.361
 1388SOL    HW1 5996   1.219   1.867   1.312
 1388SOL    HW2 5997   1.340   1.956   1.326
 1389SOL     OW 5998  13.101   3.472  13.296
 1389SOL    HW1 5999  13.132   3.421  13.371
 1389SOL    HW2 6000  13.179   3.517  13.263
 1390SOL     OW 6001   7.991   2.820   3.119
 1390SOL    HW1 6002   8.019   2.828   3.027
 1390SOL    HW2 6003   7.949   2.904   3.138
 1391SOL     OW 6004   4.436   5.840   6.832
 1391SOL    HW1 6005   4.487   5.804   6.905
 1391SOL    HW2 6006   4.411   5.764   6.780
 1392SOL     OW 6007   6.760   3.954   7.644
 1392SOL    HW1 6008   6.826   3.922   7.705
 1392SOL    HW2 6009   6.808   4.009   7.582
 1393SOL     OW 6010   1.905  13.791   2.358
 1393SOL    HW1 6011   1.999  13.796   2.344
 1393SOL    HW2 6012   1.867  13.850   2.292
 1394SOL     OW 6013   8.885   9.315   7.416
 1394SOL    HW1 6014   8.966   9.362   7.439
 1394SOL    HW2 6015   8.909   9.261   7.341
 1395SOL     OW 6016   0.297   2.125  11.886
 1395SOL    HW1 6017   0.372   2.185  11.880
 1395SOL    HW2 6018   0.258   2.128  11.798
 1396SOL     OW 6019   1.552   6.402   7.731
 1396SOL    HW1 6020   1.611   6.402   7.806
 1396SOL    HW2 6021   1.583   6.331   7.675
 1397SOL     OW 6022   9.338   6.012   7.204
 1397SOL    HW1 6023   9.336   5.936   7.146
 1397SOL    HW2 6024   9.373   5.977   7.287
 1398SOL     OW 6025  12.240   8.887   4.738
 1398SOL    HW1 6026  12.166   8.826   4.742
 1398SOL    HW2 6027  12.316   8.831   4.726
 1399SOL     OW 6028   6.358   5.850  11.852
 1399SOL    HW1 6029   6.279   5.846  11.798
 1399SOL    HW2 6030   6.399   5.933  11.829
 1400SOL     OW 6031   5.779   0.094   1.598
 1400SOL    HW1 6032   5.860   0.069   1.643
 1400SOL    HW2 6033   5.772   0.031   1.526
 1401SOL     OW 6034   9.570  10.781  14.300
 1401SOL    HW1 6035   9.658  10.782  14.262
 1401SOL    HW2 6036   9.519  10.837  14.241
 1402SOL     OW 6037   2.759   3.493   3.276
 1402SOL    HW1 6038   2.827   3.434   3.244
 1402SOL    HW2 6039   2.779   3.577   3.235
 1403SOL     OW 6040   4.168  13.285   8.837
 1403SOL    HW1 6041   4.107  13.325   8.776
 1403SOL    HW2 6042   4.183  13.197   8.802
 1404SOL     OW 6043   4.797   7.829  12.046
 1404SOL    HW1 6044   4.752   7.911  12.067
 1404SOL    HW2 6045   4.838   7.802  12.128
 1405SOL     OW 6046   1.445   9.077   2.790
 1405SOL    HW1 6047   1.475   9.135   2.860
 1405SOL    HW2 6048   1.434   9.134   2.714
 1406SOL     OW 6049   9.545   9.492   3.533
 1406SOL    HW1 6050   9.500   9.576   3.538
 1406SOL    HW2 6051   9.492   9.440   3.472
 1407SOL     OW 6052   3.802   7.062   7.463
 1407SOL    HW1 6053   3.878   7.094   7.414
 1407SOL    HW2 6054   3.790   6.973   7.432
 1408SOL     OW 6055   0.521   4.362   6.371
 1408SOL    HW1 6056   0.460   4.345   6.443
 1408SOL    HW2 6057   0.607   4.339   6.408
 1409SOL     OW 6058   9.055   5.112  14.654
 1409SOL    HW1 6059   9.085   5.198  14.682
 1409SOL    HW2 6060   9.134   5.066  14.625
 1410SOL     OW 6061   0.747   1.444   6.848
 1410SOL    HW1 6062   0.692   1.467   6.773
 1410SOL    HW2 6063   0.826   1.496   6.837
 1411SOL     OW 6064  13.310  13.506  10.211
 1411SOL    HW1 6065  13.260  13.495  10.292
 1411SOL    HW2 6066  13.264  13.575  10.164
 1412SOL     OW 6067   0.465  10.336  11.048
 1412SOL    HW1 6068   0.498  10.424  11.034
 1412SOL    HW2 6069   0.391  10.347  11.108
 1413SOL     OW 6070  14.365   1.653   9.488
 1413SOL    HW1 6071  14.286   1.665   9.542
 1413SOL    HW2 6072  14.344   1.696   9.405
 1414SOL     OW 6073  14.466   0.856   7.422
 1414SOL    HW1 6074  14.475   0.951   7.407
 1414SOL    HW2 6075  14.372   0.840   7.414
 1415SOL     OW 6076   7.768  10.764   8.494
 1415SOL    HW1 6077   7.693  10.823   8.491
 1415SOL    HW2 6078   7.787  10.743   8.403
 1416SOL     OW 6079  10.741   2.637  10.852
 1416SOL    HW1 6080  10.678   2.570  10.878
 1416SOL    HW2 6081  10.760   2.619  10.760
 1417SOL     OW 6082   9.271   4.376  12.278
 1417SOL    HW1 6083   9.345   4.415  12.324
 1417SOL    HW2 6084   9.218   4.451  12.250
 1418SOL     OW 6085   0.597   7.111   2.247
 1418SOL    HW1 6086   0.568   7.093   2.337
 1418SOL    HW2 6087   0.523   7.154   2.206
 1419SOL     OW 6088  13.793   4.263   3.605
 1419SOL    HW1 6089  13.876   4.268   3.558
 1419SOL    HW2 6090  13.756   4.351   3.599
 1420SOL     OW 6091   2.606   2.636   7.947
 1420SOL    HW1 6092   2.634   2.657   8.036
 1420SOL    HW2 6093   2.512   2.654   7.946
 1421SOL     OW 6094  13.433  10.983   3.093
 1421SOL    HW1 6095  13.366  10.938   3.042
 1421SOL    HW2 6096  13.415  10.958   3.184
 1422SOL     OW 6097  14.566   4.763   7.568
 1422SOL    HW1 6098  14.495   4.757   7.632
 1422SOL    HW2 6099  14.640   4.798   7.618
 1423SOL     OW 6100   8.767  14.568   4.017
 1423SOL    HW1 6101   8.839  14.630   4.012
 1423SOL    HW2 6102   8.688  14.620   4.000
 1424SOL     OW 6103   8.240  14.442  10.096
 1424SOL    HW1 6104   8.238  14.396  10.012
 1424SOL    HW2 6105   8.321  14.493  10.094
 1425SOL     OW 6106   1.643  12.214   0.726
 1425SOL    HW1 6107   1.666  12.301   0.692
 1425SOL    HW2 6108   1.695  12.205   0.806
 1426SOL     OW 6109  10.674   9.167  13.867
 1426SOL    HW1 6110  10.589   9.189  13.905
 1426SOL    HW2 6111  10.697   9.243  13.814
 1427SOL     OW 6112  10.833  13.801   0.244
 1427SOL    HW1 6113  10.885  13.790   0.164
 1427SOL    HW2 6114  10.890  13.852   0.302
 1428SOL     OW 6115   9.215   4.786   6.953
 1428SOL    HW1 6116   9.252   4.726   6.889
 1428SOL    HW2 6117   9.130   4.812   6.917
 1429SOL     OW 6118   9.748   2.565   3.955
 1429SOL    HW1 6119   9.741   2.631   4.025
 1429SOL    HW2 6120   9.661   2.524   3.953
 1430SOL     OW 6121   1.365  11.098   5.184
 1430SOL    HW1 6122   1.374  11.005   5.207
 1430SOL    HW2 6123   1.421  11.109   5.107
 1431SOL     OW 6124  10.767   4.877   9.750
 1431SOL    HW1 6125  10.759   4.972   9.740
 1431SOL    HW2 6126  10.689   4.851   9.800
 1432SOL     OW 6127   3.832   4.419   2.959
 1432SOL    HW1 6128   3.737   4.420   2.966
 1432SOL    HW2 6129   3.863   4.447   3.045
 1433SOL     OW 6130   0.590   7.613   4.975
 1433SOL    HW1 6131   0.628   7.699   4.995
 1433SOL    HW2 6132   0.539   7.626   4.895
 1434SOL     OW 6133   8.970  13.538  13.480
 1434SOL    HW1 6134   9.010  13.596  13.546
 1434SOL    HW2 6135   9.037  13.471  13.464
 1435SOL     OW 6136   6.268   9.092   1.176
 1435SOL    HW1 6137   6.364   9.092   1.169
 1435SOL    HW2 6138   6.238   9.059   1.091
 1436SOL     OW 6139   2.491  13.006   5.921
 1436SOL    HW1 6140   2.569  13.034   5.873
 1436SOL    HW2 6141   2.450  12.941   5.864
 1437SOL     OW 6142  11.229  12.921   1.119
 1437SOL    HW1 6143  11.180  12.998   1.093
 1437SOL    HW2 6144  11.253  12.936   1.211
 1438SOL     OW 6145  13.221   9.045   1.396
 1438SOL    HW1 6146  13.312   9.074   1.399
 1438SOL    HW2 6147  13.175   9.113   1.347
 1439SOL     OW 6148  11.827   3.528   4.067
 1439SOL    HW1 6149  11.855   3.511   3.977
 1439SOL    HW2 6150  11.742   3.484   4.073
 1440SOL     OW 6151   5.456   1.550   9.811
 1440SOL    HW1 6152   5.519   1.528   9.881
 1440SOL    HW2 6153   5.508   1.547   9.731
 1441SOL     OW 6154   1.630   5.619   6.624
 1441SOL    HW1 6155   1.537   5.624   6.603
 1441SOL    HW2 6156   1.667   5.701   6.591
 1442SOL     OW 6157  12.244  13.048   4.095
 1442SOL    HW1 6158  12.228  12.953   4.092
 1442SOL    HW2 6159  12.169  13.086   4.051
 1443SOL     OW 6160  10.922   4.587   3.121
 1443SOL    HW1 6161  10.961   4.665   3.161
 1443SOL    HW2 6162  10.994   4.523   3.118
 1444SOL     OW 6163   6.093   9.155  12.916
 1444SOL    HW1 6164   6.163   9.179  12.857
 1444SOL    HW2 6165   6.029   9.226  12.907
 1445SOL     OW 6166   3.608   4.282  10.535
 1445SOL    HW1 6167   3.642   4.197  10.562
 1445SOL    HW2 6168   3.572   4.267  10.448
 1446SOL     OW 6169   1.826   7.880   1.332
 1446SOL    HW1 6170   1.786   7.963   1.306
 1446SOL    HW2 6171   1.755   7.816   1.325
 1447SOL     OW 6172   8.851   0.083   3.818
 1447SOL    HW1 6173   8.920   0.142   3.849
 1447SOL    HW2 6174   8.859   0.083   3.723
 1448SOL     OW 6175   4.877   9.793   7.349
 1448SOL    HW1 6176   4.912   9.762   7.433
 1448SOL    HW2 6177   4.782   9.781   7.357
 1449SOL     OW 6178   3.760   1.084  11.902
 1449SOL    HW1 6179   3.711   1.140  11.842
 1449SOL    HW2 6180   3.778   1.005  11.852
 1450SOL     OW 6181  14.096   7.245  14.657
 1450SOL    HW1 6182  14.183   7.283  14.666
 1450SOL    HW2 6183  14.039   7.301  14.710
 1451SOL     OW 6184  12.114   2.435   7.511
 1451SOL    HW1 6185  12.179   2.364   7.513
 1451SOL    HW2 6186  12.157   2.507   7.556
 1452SOL     OW 6187   9.190   6.183   3.319
 1452SOL    HW1 6188   9.281   6.211   3.323
 1452SOL    HW2 6189   9.147   6.232   3.389
 1453SOL     OW 6190  12.933  10.426  10.260
 1453SOL    HW1 6191  13.017  10.472  10.263
 1453SOL    HW2 6192  12.951  10.347  10.209
 1454SOL     OW 6193  13.117   7.457  12.159
 1454SOL    HW1 6194  13.049   7.493  12.102
 1454SOL    HW2 6195  13.076   7.455  12.246
 1455SOL     OW 6196   2.889   5.342  13.896
 1455SOL    HW1 6197   2.960   5.323  13.958
 1455SOL    HW2 6198   2.880   5.261  13.845
 1456SOL     OW 6199   7.105   6.820   1.735
 1456SOL    HW1 6200   7.170   6.779   1.678
 1456SOL    HW2 6201   7.111   6.771   1.817
 1457SOL     OW 6202  14.687   4.490  12.806
 1457SOL    HW1 6203  14.754   4.500  12.738
 1457SOL    HW2 6204  14.732   4.511  12.888
 1458SOL     OW 6205  14.448  11.992   1.555
 1458SOL    HW1 6206  14.481  11.902   1.559
 1458SOL    HW2 6207  14.487  12.035   1.631
 1459SOL     OW 6208   4.523   1.007   9.875
 1459SOL    HW1 6209   4.539   1.084   9.930
 1459SOL    HW2 6210   4.436   0.977   9.902
 1460SOL     OW 6211   0.908   4.213   6.873
 1460SOL    HW1 6212   0.880   4.123   6.854
 1460SOL    HW2 6213   0.944   4.245   6.790
 1461SOL     OW 6214   3.088  10.962   5.175
 1461SOL    HW1 6215   3.007  10.966   5.124
 1461SOL    HW2 6216   3.061  10.929   5.260
 1462SOL     OW 6217  13.267   5.245  10.431
 1462SOL    HW1 6218  13.281   5.261  10.524
 1462SOL    HW2 6219  13.183   5.286  10.411
 1463SOL     OW 6220  13.172   8.915   2.575
 1463SOL    HW1 6221  13.157   8.950   2.663
 1463SOL    HW2 6222  13.124   8.833   2.573
 1464SOL     OW 6223  14.852   8.029   2.940
 1464SOL    HW1 6224  14.843   8.078   2.858
 1464SOL    HW2 6225  14.878   7.941   2.912
 1465SOL     OW 6226   9.508   1.534  10.703
 1465SOL    HW1 6227   9.494   1.461  10.643
 1465SOL    HW2 6228   9.427   1.584  10.701
 1466SOL     OW 6229   8.140   7.236   2.987
 1466SOL    HW1 6230   8.165   7.192   2.905
 1466SOL    HW2 6231   8.186   7.188   3.055
 1467SOL     OW 6232   5.368   2.603  14.651
 1467SOL    HW1 6233   5.319   2.625  14.730
 1467SOL    HW2 6234   5.418   2.682  14.631
 1468SOL     OW 6235   6.972  11.245  13.162
 1468SOL    HW1 6236   6.968  11.315  13.227
 1468SOL    HW2 6237   6.897  11.262  13.105
 1469SOL     OW 6238  11.258   5.368   3.120
 1469SOL    HW1 6239  11.331   5.385   3.180
 1469SOL    HW2 6240  11.202   5.444   3.128
 1470SOL     OW 6241  13.673   3.220   5.132
 1470SOL    HW1 6242  13.703   3.147   5.186
 1470SOL    HW2 6243  13.702   3.298   5.178
 1471SOL     OW 6244  11.760  11.750  12.561
 1471SOL    HW1 6245  11.773  11.776  12.469
 1471SOL    HW2 6246  11.681  11.797  12.588
 1472SOL     OW 6247  10.315  12.544  12.498
 1472SOL    HW1 6248  10.353  12.613  12.445
 1472SOL    HW2 6249  10.275  12.590  12.572
 1473SOL     OW 6250   7.714  11.338   4.402
 1473SOL    HW1 6251   7.799  11.383   4.401
 1473SOL    HW2 6252   7.656  11.398   4.448
 1474SOL     OW 6253   5.340   3.691  14.802
 1474SOL    HW1 6254   5.408   3.755  14.781
 1474SOL    HW2 6255   5.297   3.726  14.879
 1475SOL     OW 6256  14.808   1.755   5.154
 1475SOL    HW1 6257   0.018   1.781   5.154
 1475SOL    HW2 6258  14.800   1.696   5.229
 1476SOL     OW 6259  12.856   0.854   1.350
 1476SOL    HW1 6260  12.885   0.945   1.361
 1476SOL    HW2 6261  12.836   0.847   1.256
 1477SOL     OW 6262   6.858   5.438   8.396
 1477SOL    HW1 6263   6.778   5.463   8.350
 1477SOL    HW2 6264   6.912   5.395   8.330
 1478SOL     OW 6265   4.307   9.048  12.418
 1478SOL    HW1 6266   4.215   9.070  12.405
 1478SOL    HW2 6267   4.313   8.955  12.397
 1479SOL     OW 6268   1.787   2.362   7.878
 1479SOL    HW1 6269   1.852   2.313   7.927
 1479SOL    HW2 6270   1.782   2.318   7.793
 1480SOL     OW 6271  11.042   3.767  10.697
 1480SOL    HW1 6272  11.076   3.678  10.684
 1480SOL    HW2 6273  11.118   3.823  10.682
 1481SOL     OW 6274   3.165  11.812  14.105
 1481SOL    HW1 6275   3.143  11.848  14.191
 1481SOL    HW2 6276   3.146  11.719  14.112
 1482SOL     OW 6277   2.975   1.898   3.702
 1482SOL    HW1 6278   3.038   1.874   3.770
 1482SOL    HW2 6279   2.981   1.828   3.637
 1483SOL     OW 6280   1.506  10.096  14.594
 1483SOL    HW1 6281   1.420  10.055  14.601
 1483SOL    HW2 6282   1.516  10.116  14.501
 1484SOL     OW 6283   5.496  12.300   9.758
 1484SOL    HW1 6284   5.581  12.318   9.718
 1484SOL    HW2 6285   5.465  12.385   9.788
 1485SOL     OW 6286   3.337   3.933   8.594
 1485SOL    HW1 6287   3.368   4.022   8.579
 1485SOL    HW2 6288   3.282   3.913   8.518
 1486SOL     OW 6289  10.595   5.811  10.220
 1486SOL    HW1 6290  10.591   5.900  10.185
 1486SOL    HW2 6291  10.514   5.770  10.191
 1487SOL     OW 6292   1.058   6.962   1.635
 1487SOL    HW1 6293   0.986   6.979   1.574
 1487SOL    HW2 6294   1.018   6.968   1.722
 1488SOL     OW 6295   7.110   9.340  12.778
 1488SOL    HW1 6296   7.067   9.258  12.755
 1488SOL    HW2 6297   7.107   9.393  12.698
 1489SOL     OW 6298   0.060   9.328  10.637
 1489SOL    HW1 6299   0.060   9.236  10.663
 1489SOL    HW2 6300  14.851   9.356  10.647
 1490SOL     OW 6301   2.267  10.031  12.232
 1490SOL    HW1 6302   2.211  10.105  12.206
 1490SOL    HW2 6303   2.296  10.054  12.321
 1491SOL     OW 6304   7.258  11.271   6.233
 1491SOL    HW1 6305   7.296  11.359   6.230
 1491SOL    HW2 6306   7.264  11.240   6.142
 1492SOL     OW 6307   8.367   2.901  12.875
 1492SOL    HW1 6308   8.416   2.984  12.878
 1492SOL    HW2 6309   8.286   2.919  12.923
 1493SOL     OW 6310  13.381   6.073   6.030
 1493SOL    HW1 6311  13.318   6.004   6.012
 1493SOL    HW2 6312  13.333   6.155   6.013
 1494SOL     OW 6313   6.992   9.257   1.717
 1494SOL    HW1 6314   7.076   9.214   1.701
 1494SOL    HW2 6315   6.931   9.185   1.734
 1495SOL     OW 6316   2.228   9.326   5.902
 1495SOL    HW1 6317   2.258   9.347   5.813
 1495SOL    HW2 6318   2.180   9.244   5.892
 1496SOL     OW 6319   6.221   1.609   6.535
 1496SOL    HW1 6320   6.168   1.636   6.459
 1496SOL    HW2 6321   6.303   1.578   6.497
 1497SOL     OW 6322  14.672   8.109  11.865
 1497SOL    HW1 6323  14.714   8.130  11.782
 1497SOL    HW2 6324  14.695   8.017  11.881
 1498SOL     OW 6325  10.942   1.829  13.937
 1498SOL    HW1 6326  10.864   1.862  13.893
 1498SOL    HW2 6327  11.013   1.886  13.907
 1499SOL     OW 6328  13.883   9.396   2.407
 1499SOL    HW1 6329  13.848   9.485   2.412
 1499SOL    HW2 6330  13.845   9.360   2.327
 1500SOL     OW 6331   2.395   6.039   8.488
 1500SOL    HW1 6332   2.332   5.970   8.508
 1500SOL    HW2 6333   2.388   6.051   8.393
 1501SOL     OW 6334   4.120  11.677  14.746
 1501SOL    HW1 6335   4.043  11.734  14.742
 1501SOL    HW2 6336   4.114  11.635  14.832
 1502SOL     OW 6337  13.494   8.230  12.253
 1502SOL    HW1 6338  13.499   8.326  12.254
 1502SOL    HW2 6339  13.585   8.202  12.252
 1503SOL     OW 6340  12.733   4.790  13.996
 1503SOL    HW1 6341  12.821   4.756  14.012
 1503SOL    HW2 6342  12.685   4.716  13.958
 1504SOL     OW 6343   3.505  12.120   2.167
 1504SOL    HW1 6344   3.601  12.118   2.170
 1504SOL    HW2 6345   3.478  12.039   2.210
 1505SOL     OW 6346   2.057   3.972  14.682
 1505SOL    HW1 6347   1.964   3.950  14.672
 1505SOL    HW2 6348   2.086   3.989  14.592
 1506SOL     OW 6349   1.324   0.484  14.276
 1506SOL    HW1 6350   1.337   0.391  14.261
 1506SOL    HW2 6351   1.249   0.489  14.335
 1507SOL     OW 6352   3.531  11.033   5.633
 1507SOL    HW1 6353   3.464  10.967   5.621
 1507SOL    HW2 6354   3.532  11.082   5.551
 1508SOL     OW 6355   4.685  13.134   4.954
 1508SOL    HW1 6356   4.725  13.182   4.881
 1508SOL    HW2 6357   4.719  13.177   5.032
 1509SOL     OW 6358   3.517   0.572   6.217
 1509SOL    HW1 6359   3.519   0.505   6.149
 1509SOL    HW2 6360   3.596   0.558   6.268
 1510SOL     OW 6361  11.346   0.518   0.994
 1510SOL    HW1 6362  11.402   0.451   1.032
 1510SOL    HW2 6363  11.314   0.480   0.912
 1511SOL     OW 6364   3.062   1.717   0.496
 1511SOL    HW1 6365   2.987   1.710   0.556
 1511SOL    HW2 6366   3.083   1.810   0.495
 1512SOL     OW 6367   3.989   1.152  11.466
 1512SOL    HW1 6368   4.047   1.227  11.468
 1512SOL    HW2 6369   3.904   1.186  11.496
 1513SOL     OW 6370  10.148   7.035   1.952
 1513SOL    HW1 6371  10.063   7.063   1.986
 1513SOL    HW2 6372  10.211   7.098   1.988
 1514SOL     OW 6373   4.819   7.984  13.540
 1514SOL    HW1 6374   4.911   7.972  13.560
 1514SOL    HW2 6375   4.818   8.023  13.452
 1515SOL     OW 6376   8.865  14.627  10.357
 1515SOL    HW1 6377   8.893  14.548  10.403
 1515SOL    HW2 6378   8.852  14.691  10.427
 1516SOL     OW 6379   1.485  12.124   2.409
 1516SOL    HW1 6380   1.540  12.150   2.483
 1516SOL    HW2 6381   1.492  12.198   2.348
 1517SOL     OW 6382   4.784   9.537   2.153
 1517SOL    HW1 6383   4.874   9.548   2.182
 1517SOL    HW2 6384   4.744   9.480   2.219
 1518SOL     OW 6385   7.213   1.988  11.900
 1518SOL    HW1 6386   7.144   2.046  11.930
 1518SOL    HW2 6387   7.294   2.031  11.925
 1519SOL     OW 6388  12.375   3.889   0.205
 1519SOL    HW1 6389  12.359   3.921   0.294
 1519SOL    HW2 6390  12.315   3.939   0.150
 1520SOL     OW 6391   9.037   0.043   4.512
 1520SOL    HW1 6392   9.041   0.090   4.596
 1520SOL    HW2 6393   8.943   0.039   4.491
 1521SOL     OW 6394   7.963   4.569   4.131
 1521SOL    HW1 6395   7.882   4.595   4.086
 1521SOL    HW2 6396   7.933   4.516   4.204
 1522SOL     OW 6397   1.762  13.344   8.011
 1522SOL    HW1 6398   1.777  13.284   8.085
 1522SOL    HW2 6399   1.725  13.422   8.052
 1523SOL     OW 6400   9.166  14.053  12.812
 1523SOL    HW1 6401   9.121  14.050  12.896
 1523SOL    HW2 6402   9.237  14.116  12.824
 1524SOL     OW 6403  11.887  14.388   9.988
 1524SOL    HW1 6404  11.874  14.300  10.022
 1524SOL    HW2 6405  11.968  14.383   9.937
 1525SOL     OW 6406  13.259   1.832   4.562
 1525SOL    HW1 6407  13.235   1.803   4.650
 1525SOL    HW2 6408  13.193   1.898   4.540
 1526SOL     OW 6409   2.326  14.664   0.705
 1526SOL    HW1 6410   2.409  14.622   0.729
 1526SOL    HW2 6411   2.335  14.682   0.611
 1527SOL     OW 6412   1.711   4.795   9.280
 1527SOL    HW1 6413   1.676   4.821   9.365
 1527SOL    HW2 6414   1.790   4.849   9.269
 1528SOL     OW 6415   6.593   5.942   8.827
 1528SOL    HW1 6416   6.538   5.989   8.764
 1528SOL    HW2 6417   6.539   5.937   8.906
 1529SOL     OW 6418   8.437  12.602   4.540
 1529SOL    HW1 6419   8.527  12.631   4.527
 1529SOL    HW2 6420   8.404  12.658   4.611
 1530SOL     OW 6421  12.637   5.810   3.200
 1530SOL    HW1 6422  12.709   5.866   3.229
 1530SOL    HW2 6423  12.638   5.736   3.260
 1531SOL     OW 6424   0.544   9.172  14.278
 1531SOL    HW1 6425   0.512   9.082  14.281
 1531SOL    HW2 6426   0.541   9.196  14.185
 1532SOL     OW 6427   3.811  10.140   1.137
 1532SOL    HW1 6428   3.864  10.203   1.186
 1532SOL    HW2 6429   3.736  10.122   1.194
 1533SOL     OW 6430  11.383  11.328   4.094
 1533SOL    HW1 6431  11.415  11.300   4.180
 1533SOL    HW2 6432  11.291  11.301   4.094
 1534SOL     OW 6433  12.611   6.685   0.986
 1534SOL    HW1 6434  12.616   6.663   1.079
 1534SOL    HW2 6435  12.547   6.623   0.951
 1535SOL     OW 6436   4.798   0.880  14.035
 1535SOL    HW1 6437   4.823   0.972  14.049
 1535SOL    HW2 6438   4.709   0.886  13.999
 1536SOL     OW 6439  14.057  11.272   9.694
 1536SOL    HW1 6440  14.088  11.225   9.616
 1536SOL    HW2 6441  13.986  11.327   9.662
 1537SOL     OW 6442  13.603   9.931   7.962
 1537SOL    HW1 6443  13.527   9.941   8.020
 1537SOL    HW2 6444  13.633  10.021   7.946
 1538SOL     OW 6445   8.696   1.781  14.803
 1538SOL    HW1 6446   8.657   1.867  14.811
 1538SOL    HW2 6447   8.622   1.720  14.806
 1539SOL     OW 6448   4.279   3.929   4.711
 1539SOL    HW1 6449   4.263   3.917   4.617
 1539SOL    HW2 6450   4.233   4.010   4.733
 1540SOL     OW 6451   6.892   6.130  12.495
 1540SOL    HW1 6452   6.917   6.074  12.422
 1540SOL    HW2 6453   6.965   6.190  12.506
 1541SOL     OW 6454  10.229  14.480   6.447
 1541SOL    HW1 6455  10.139  14.471   6.480
 1541SOL    HW2 6456  10.250  14.394   6.411
 1542SOL     OW 6457  11.504   2.675  10.622
 1542SOL    HW1 6458  11.580   2.644  10.672
 1542SOL    HW2 6459  11.525   2.767  10.603
 1543SOL     OW 6460   6.293   5.467  12.507
 1543SOL    HW1 6461   6.242   5.536  12.465
 1543SOL    HW2 6462   6.227   5.402  12.534
 1544SOL     OW 6463   5.651   1.930   8.853
 1544SOL    HW1 6464   5.573   1.877   8.869
 1544SOL    HW2 6465   5.628   2.017   8.886
 1545SOL     OW 6466   4.595   7.896   2.466
 1545SOL    HW1 6467   4.567   7.817   2.512
 1545SOL    HW2 6468   4.517   7.951   2.462
 1546SOL     OW 6469  13.602   0.132  13.153
 1546SOL    HW1 6470  13.617   0.223  13.126
 1546SOL    HW2 6471  13.531   0.102  13.097
 1547SOL     OW 6472   4.917   6.790   8.939
 1547SOL    HW1 6473   4.888   6.873   8.977
 1547SOL    HW2 6474   5.005   6.807   8.907
 1548SOL     OW 6475   9.368   5.307  14.128
 1548SOL    HW1 6476   9.335   5.392  14.099
 1548SOL    HW2 6477   9.305   5.279  14.194
 1549SOL     OW 6478  14.818   4.812   2.449
 1549SOL    HW1 6479  14.813   4.888   2.507
 1549SOL    HW2 6480   0.029   4.804   2.427
 1550SOL     OW 6481   3.287   7.562   5.425
 1550SOL    HW1 6482   3.335   7.598   5.500
 1550SOL    HW2 6483   3.239   7.487   5.460
 1551SOL     OW 6484   6.092   8.756   3.149
 1551SOL    HW1 6485   6.085   8.816   3.075
 1551SOL    HW2 6486   6.186   8.738   3.158
 1552SOL     OW 6487  12.229   9.748  13.593
 1552SOL    HW1 6488  12.257   9.673  13.646
 1552SOL    HW2 6489  12.184   9.805  13.655
 1553SOL     OW 6490   1.600   0.700  12.308
 1553SOL    HW1 6491   1.620   0.615  12.269
 1553SOL    HW2 6492   1.684   0.729  12.345
 1554SOL     OW 6493   0.661   1.754   0.922
 1554SOL    HW1 6494   0.693   1.669   0.891
 1554SOL    HW2 6495   0.670   1.750   1.017
 1555SOL     OW 6496  10.340  13.916   4.625
 1555SOL    HW1 6497  10.251  13.887   4.603
 1555SOL    HW2 6498  10.392  13.836   4.627
 1556SOL     OW 6499   9.395   6.355   0.890
 1556SOL    HW1 6500   9.347   6.274   0.909
 1556SOL    HW2 6501   9.464   6.328   0.830
 1557SOL     OW 6502   3.730  12.741   0.152
 1557SOL    HW1 6503   3.725  12.834   0.174
 1557SOL    HW2 6504   3.787  12.703   0.219
 1558SOL     OW 6505   1.674   1.679   9.482
 1558SOL    HW1 6506   1.598   1.621   9.468
 1558SOL    HW2 6507   1.703   1.702   9.393
 1559SOL     OW 6508   0.248   4.582  14.627
 1559SOL    HW1 6509   0.296   4.514  14.580
 1559SOL    HW2 6510   0.292   4.588  14.712
 1560SOL     OW 6511   9.492   2.387   6.008
 1560SOL    HW1 6512   9.453   2.318   6.061
 1560SOL    HW2 6513   9.529   2.342   5.932
 1561SOL     OW 6514   7.930   2.175   4.980
 1561SOL    HW1 6515   7.997   2.240   4.958
 1561SOL    HW2 6516   7.968   2.125   5.052
 1562SOL     OW 6517   7.827  13.538   1.733
 1562SOL    HW1 6518   7.746  13.585   1.713
 1562SOL    HW2 6519   7.848  13.491   1.652
 1563SOL     OW 6520   6.977   0.804   5.967
 1563SOL    HW1 6521   6.957   0.897   5.951
 1563SOL    HW2 6522   6.901   0.757   5.932
 1564SOL     OW 6523  11.200  10.642  11.927
 1564SOL    HW1 6524  11.223  10.735  11.931
 1564SOL    HW2 6525  11.148  10.634  11.847
 1565SOL     OW 6526   5.834   3.269   4.968
 1565SOL    HW1 6527   5.794   3.336   5.024
 1565SOL    HW2 6528   5.893   3.318   4.910
 1566SOL     OW 6529  10.045  13.574   5.274
 1566SOL    HW1 6530  10.001  13.493   5.247
 1566SOL    HW2 6531  10.014  13.589   5.363
 1567SOL     OW 6532   7.518   5.842   9.085
 1567SOL    HW1 6533   7.491   5.900   9.156
 1567SOL    HW2 6534   7.453   5.856   9.017
 1568SOL     OW 6535   7.736   0.032   2.803
 1568SOL    HW1 6536   7.664   0.081   2.762
 1568SOL    HW2 6537   7.711   0.024   2.895
 1569SOL     OW 6538  14.729   8.854  14.872
 1569SOL    HW1 6539  14.809   8.875  14.825
 1569SOL    HW2 6540  14.759   8.823   0.076
 1570SOL     OW 6541  14.068   1.342  11.935
 1570SOL    HW1 6542  13.978   1.310  11.930
 1570SOL    HW2 6543  14.063   1.418  11.993
 1571SOL     OW 6544   6.852   0.521   4.838
 1571SOL    HW1 6545   6.861   0.444   4.894
 1571SOL    HW2 6546   6.812   0.487   4.757
 1572SOL     OW 6547   7.338  13.232   0.962
 1572SOL    HW1 6548   7.286  13.192   1.032
 1572SOL    HW2 6549   7.288  13.217   0.882
 1573SOL     OW 6550  12.678  12.081  12.237
 1573SOL    HW1 6551  12.647  12.158  12.189
 1573SOL    HW2 6552  12.605  12.057  12.293
 1574SOL     OW 6553   7.508  13.774  10.980
 1574SOL    HW1 6554   7.593  13.798  10.943
 1574SOL    HW2 6555   7.488  13.846  11.040
 1575SOL     OW 6556   4.165  10.169   0.437
 1575SOL    HW1 6557   4.236  10.159   0.500
 1575SOL    HW2 6558   4.091  10.123   0.477
 1576SOL     OW 6559  12.524   5.553   0.379
 1576SOL    HW1 6560  12.488   5.470   0.348
 1576SOL    HW2 6561  12.467   5.578   0.452
 1577SOL     OW 6562   4.908   7.608   8.931
 1577SOL    HW1 6563   4.970   7.564   8.873
 1577SOL    HW2 6564   4.917   7.701   8.910
 1578SOL     OW 6565  10.656   8.207  12.637
 1578SOL    HW1 6566  10.627   8.283  12.587
 1578SOL    HW2 6567  10.578   8.153  12.647
 1579SOL     OW 6568   6.549   9.143   1.131
 1579SOL    HW1 6569   6.574   9.183   1.047
 1579SOL    HW2 6570   6.594   9.059   1.131
 1580SOL     OW 6571   3.946  12.692   0.325
 1580SOL    HW1 6572   3.904  12.628   0.382
 1580SOL    HW2 6573   3.991  12.751   0.385
 1581SOL     OW 6574   4.347  10.466   9.764
 1581SOL    HW1 6575   4.412  10.423   9.708
 1581SOL    HW2 6576   4.267  10.465   9.712
 1582SOL     OW 6577   3.428  13.028  10.197
 1582SOL    HW1 6578   3.413  12.994  10.109
 1582SOL    HW2 6579   3.474  13.111  10.183
 1583SOL     OW 6580   3.939   5.519   8.292
 1583SOL    HW1 6581   3.977   5.514   8.380
 1583SOL    HW2 6582   3.964   5.436   8.251
 1584SOL     OW 6583  13.668  10.168   3.085
 1584SOL    HW1 6584  13.709  10.140   3.003
 1584SOL    HW2 6585  13.575  10.175   3.065
 1585SOL     OW 6586   6.804   7.413  11.652
 1585SOL    HW1 6587   6.717   7.417  11.613
 1585SOL    HW2 6588   6.850   7.489  11.617
 1586SOL     OW 6589   0.304   9.138  14.653
 1586SOL    HW1 6590   0.327   9.075  14.721
 1586SOL    HW2 6591   0.244   9.199  14.696
 1587SOL     OW 6592  12.008   5.630   9.810
 1587SOL    HW1 6593  12.006   5.536   9.791
 1587SOL    HW2 6594  11.917   5.651   9.833
 1588SOL     OW 6595   8.154   6.379  11.665
 1588SOL    HW1 6596   8.131   6.395  11.573
 1588SOL    HW2 6597   8.195   6.461  11.694
 1589SOL     OW 6598   9.722   8.974   7.385
 1589SOL    HW1 6599   9.798   8.928   7.421
 1589SOL    HW2 6600   9.671   8.906   7.341
 1590SOL     OW 6601   8.497   7.135   4.405
 1590SOL    HW1 6602   8.464   7.225   4.415
 1590SOL    HW2 6603   8.565   7.128   4.471
 1591SOL     OW 6604  10.900   4.063  12.475
 1591SOL    HW1 6605  10.954   4.136  12.505
 1591SOL    HW2 6606  10.810   4.089  12.493
 1592SOL     OW 6607   2.513   6.211  10.630
 1592SOL    HW1 6608   2.435   6.204  10.685
 1592SOL    HW2 6609   2.480   6.209  10.540
 1593SOL     OW 6610   4.142   3.436   6.226
 1593SOL    HW1 6611   4.165   3.457   6.316
 1593SOL    HW2 6612   4.225   3.408   6.186
 1594SOL     OW 6613  11.974  11.866  11.779
 1594SOL    HW1 6614  11.884  11.837  11.764
 1594SOL    HW2 6615  12.022  11.785  11.796
 1595SOL     OW 6616   7.698  10.329   9.109
 1595SOL    HW1 6617   7.761  10.363   9.173
 1595SOL    HW2 6618   7.616  10.323   9.157
 1596SOL     OW 6619  10.081  13.928   7.896
 1596SOL    HW1 6620  10.142  13.879   7.952
 1596SOL    HW2 6621  10.011  13.956   7.955
 1597SOL     OW 6622  11.073  12.448   7.223
 1597SOL    HW1 6623  11.142  12.409   7.169
 1597SOL    HW2 6624  10.992  12.408   7.191
 1598SOL     OW 6625   0.641  12.368  12.756
 1598SOL    HW1 6626   0.633  12.397  12.847
 1598SOL    HW2 6627   0.554  12.376  12.719
 1599SOL     OW 6628  10.727   9.730   7.703
 1599SOL    HW1 6629  10.821   9.748   7.693
 1599SOL    HW2 6630  10.718   9.706   7.795
 1600SOL     OW 6631   6.661  10.794   7.571
 1600SOL    HW1 6632   6.700  10.737   7.505
 1600SOL    HW2 6633   6.661  10.742   7.651
 1601SOL     OW 6634  12.447   4.293   9.268
 1601SOL    HW1 6635  12.528   4.264   9.311
 1601SOL    HW2 6636  12.426   4.223   9.207
 1602SOL     OW 6637   6.501   5.004   0.653
 1602SOL    HW1 6638   6.497   5.038   0.563
 1602SOL    HW2 6639   6.429   4.941   0.658
 1603SOL     OW 6640   0.429  10.784   3.862
 1603SOL    HW1 6641   0.368  10.713   3.841
 1603SOL    HW2 6642   0.513  10.756   3.825
 1604SOL     OW 6643   5.774  11.159   8.349
 1604SOL    HW1 6644   5.763  11.132   8.440
 1604SOL    HW2 6645   5.851  11.217   8.350
 1605SOL     OW 6646   5.089  14.672   5.466
 1605SOL    HW1 6647   5.043  14.739   5.518
 1605SOL    HW2 6648   5.133  14.722   5.397
 1606SOL     OW 6649  11.286   2.369  13.583
 1606SOL    HW1 6650  11.237   2.448  13.605
 1606SOL    HW2 6651  11.352   2.399  13.520
 1607SOL     OW 6652  14.517   0.909  10.639
 1607SOL    HW1 6653  14.574   0.985  10.646
 1607SOL    HW2 6654  14.437   0.934  10.683
 1608SOL     OW 6655   4.033  14.574  10.033
 1608SOL    HW1 6656   4.054  14.509  10.099
 1608SOL    HW2 6657   4.106  14.637  10.037
 1609SOL     OW 6658   4.372   3.195  11.894
 1609SOL    HW1 6659   4.338   3.282  11.914
 1609SOL    HW2 6660   4.320   3.166  11.819
 1610SOL     OW 6661  11.311   5.290  10.461
 1610SOL    HW1 6662  11.268   5.205  10.450
 1610SOL    HW2 6663  11.370   5.278  10.535
 1611SOL     OW 6664  11.253  11.565   4.288
 1611SOL    HW1 6665  11.219  11.635   4.343
 1611SOL    HW2 6666  11.229  11.485   4.335
 1612SOL     OW 6667   9.869   5.646   5.740
 1612SOL    HW1 6668   9.776   5.641   5.762
 1612SOL    HW2 6669   9.876   5.722   5.683
 1613SOL     OW 6670  12.205   3.639   4.815
 1613SOL    HW1 6671  12.112   3.652   4.829
 1613SOL    HW2 6672  12.216   3.544   4.811
 1614SOL     OW 6673  12.240   6.190  12.431
 1614SOL    HW1 6674  12.332   6.212  12.447
 1614SOL    HW2 6675  12.232   6.191  12.335
 1615SOL     OW 6676  12.996   0.761  12.085
 1615SOL    HW1 6677  12.947   0.687  12.050
 1615SOL    HW2 6678  12.930   0.830  12.097
 1616SOL     OW 6679  14.397  12.537   1.350
 1616SOL    HW1 6680  14.389  12.594   1.426
 1616SOL    HW2 6681  14.353  12.456   1.376
 1617SOL     OW 6682   5.871   8.900   6.705
 1617SOL    HW1 6683   5.944   8.838   6.705
 1617SOL    HW2 6684   5.886   8.954   6.783
 1618SOL     OW 6685  13.230   1.407   1.642
 1618SOL    HW1 6686  13.149   1.439   1.604
 1618SOL    HW2 6687  13.295   1.417   1.572
 1619SOL     OW 6688   5.129   3.222   2.341
 1619SOL    HW1 6689   5.190   3.150   2.359
 1619SOL    HW2 6690   5.095   3.246   2.427
 1620SOL     OW 6691   9.174   5.657  13.414
 1620SOL    HW1 6692   9.104   5.701  13.463
 1620SOL    HW2 6693   9.207   5.724  13.354
 1621SOL     OW 6694  10.313  11.820  10.090
 1621SOL    HW1 6695  10.229  11.803  10.132
 1621SOL    HW2 6696  10.316  11.915  10.077
 1622SOL     OW 6697   6.726   4.147  14.579
 1622SOL    HW1 6698   6.756   4.056  14.573
 1622SOL    HW2 6699   6.801   4.195  14.614
 1623SOL     OW 6700   9.388   0.562   8.543
 1623SOL    HW1 6701   9.355   0.479   8.577
 1623SOL    HW2 6702   9.447   0.594   8.611
 1624SOL     OW 6703  10.975   6.487   1.918
 1624SOL    HW1 6704  10.978   6.559   1.981
 1624SOL    HW2 6705  10.916   6.517   1.849
 1625SOL     OW 6706  11.363   5.824  11.812
 1625SOL    HW1 6707  11.279   5.795  11.776
 1625SOL    HW2 6708  11.426   5.800  11.745
 1626SOL     OW 6709   8.521   6.400   9.528
 1626SOL    HW1 6710   8.462   6.332   9.495
 1626SOL    HW2 6711   8.557   6.441   9.449
 1627SOL     OW 6712   0.076  13.907   2.044
 1627SOL    HW1 6713   0.167  13.918   2.016
 1627SOL    HW2 6714   0.036  13.854   1.975
 1628SOL     OW 6715   7.498  10.664   8.278
 1628SOL    HW1 6716   7.588  10.647   8.249
 1628SOL    HW2 6717   7.506  10.732   8.344
 1629SOL     OW 6718  13.930  10.968   0.729
 1629SOL    HW1 6719  13.909  10.915   0.806
 1629SOL    HW2 6720  13.930  10.906   0.656
 1630SOL     OW 6721   7.355   8.241  11.430
 1630SOL    HW1 6722   7.355   8.173  11.497
 1630SOL    HW2 6723   7.435   8.226  11.381
 1631SOL     OW 6724   9.732   2.155  11.461
 1631SOL    HW1 6725   9.777   2.162  11.546
 1631SOL    HW2 6726   9.766   2.074  11.422
 1632SOL     OW 6727   0.527   8.741   2.806
 1632SOL    HW1 6728   0.590   8.748   2.734
 1632SOL    HW2 6729   0.551   8.659   2.850
 1633SOL     OW 6730  14.760   6.107   7.207
 1633SOL    HW1 6731  14.702   6.117   7.131
 1633SOL    HW2 6732  14.716   6.156   7.277
 1634SOL     OW 6733   6.017  10.977   5.418
 1634SOL    HW1 6734   5.974  11.062   5.422
 1634SOL    HW2 6735   6.071  10.980   5.340
 1635SOL     OW 6736  14.269   5.734   7.829
 1635SOL    HW1 6737  14.226   5.815   7.856
 1635SOL    HW2 6738  14.209   5.696   7.765
 1636SOL     OW 6739  13.015  10.774  10.558
 1636SOL    HW1 6740  13.083  10.803  10.497
 1636SOL    HW2 6741  13.058  10.708  10.612
 1637SOL     OW 6742  10.760  13.542  14.339
 1637SOL    HW1 6743  10.758  13.539  14.434
 1637SOL    HW2 6744  10.794  13.456  14.313
 1638SOL     OW 6745   7.230  10.181   4.509
 1638SOL    HW1 6746   7.136  10.191   4.493
 1638SOL    HW2 6747   7.249  10.091   4.481
 1639SOL     OW 6748  12.274   9.405   5.831
 1639SOL    HW1 6749  12.353   9.456   5.814
 1639SOL    HW2 6750  12.269   9.399   5.927
 1640SOL     OW 6751   9.157  11.035   0.960
 1640SOL    HW1 6752   9.085  11.082   1.001
 1640SOL    HW2 6753   9.163  10.953   1.010
 1641SOL     OW 6754  11.843   4.614   8.343
 1641SOL    HW1 6755  11.756   4.577   8.328
 1641SOL    HW2 6756  11.850   4.622   8.438
 1642SOL     OW 6757  13.202  11.298   6.700
 1642SOL    HW1 6758  13.162  11.212   6.710
 1642SOL    HW2 6759  13.295  11.279   6.686
 1643SOL     OW 6760   3.319   9.682  11.671
 1643SOL    HW1 6761   3.318   9.739  11.594
 1643SOL    HW2 6762   3.382   9.723  11.730
 1644SOL     OW 6763   0.940  12.256  14.069
 1644SOL    HW1 6764   0.993  12.225  14.142
 1644SOL    HW2 6765   0.983  12.336  14.039
 1645SOL     OW 6766   5.453   8.944  10.741
 1645SOL    HW1 6767   5.398   9.022  10.742
 1645SOL    HW2 6768   5.521   8.964  10.677
 1646SOL     OW 6769  14.266  14.655   9.194
 1646SOL    HW1 6770  14.290  14.748   9.201
 1646SOL    HW2 6771  14.339  14.616   9.146
 1647SOL     OW 6772   6.799   1.998   9.024
 1647SOL    HW1 6773   6.858   1.979   8.952
 1647SOL    HW2 6774   6.720   1.946   9.006
 1648SOL     OW 6775   6.984  10.133   2.574
 1648SOL    HW1 6776   6.983  10.051   2.624
 1648SOL    HW2 6777   7.045  10.189   2.622
 1649SOL     OW 6778   3.313  14.776  13.140
 1649SOL    HW1 6779   3.332  14.713  13.208
 1649SOL    HW2 6780   3.217  14.776  13.133
 1650SOL     OW 6781   6.998   2.148   1.764
 1650SOL    HW1 6782   6.970   2.059   1.787
 1650SOL    HW2 6783   7.063   2.136   1.695
 1651SOL     OW 6784  11.374   9.765   0.742
 1651SOL    HW1 6785  11.466   9.780   0.767
 1651SOL    HW2 6786  11.323   9.801   0.814
 1652SOL     OW 6787   1.451  10.176  12.052
 1652SOL    HW1 6788   1.440  10.183  11.957
 1652SOL    HW2 6789   1.470  10.265  12.081
 1653SOL     OW 6790   8.383   9.658  13.440
 1653SOL    HW1 6791   8.305   9.618  13.479
 1653SOL    HW2 6792   8.450   9.590  13.445
 1654SOL     OW 6793   2.823   1.959   4.795
 1654SOL    HW1 6794   2.790   2.027   4.736
 1654SOL    HW2 6795   2.843   1.885   4.737
 1655SOL     OW 6796  13.951   9.934  12.251
 1655SOL    HW1 6797  13.903  10.008  12.286
 1655SOL    HW2 6798  13.937   9.939  12.156
 1656SOL     OW 6799  11.138   4.165   8.286
 1656SOL    HW1 6800  11.047   4.191   8.278
 1656SOL    HW2 6801  11.144   4.082   8.237
 1657SOL     OW 6802  10.493   4.157  13.097
 1657SOL    HW1 6803  10.505   4.077  13.149
 1657SOL    HW2 6804  10.505   4.129  13.006
 1658SOL     OW 6805   1.513   0.393   8.970
 1658SOL    HW1 6806   1.534   0.357   9.056
 1658SOL    HW2 6807   1.422   0.369   8.956
 1659SOL     OW 6808   6.628   0.451  12.221
 1659SOL    HW1 6809   6.633   0.462  12.316
 1659SOL    HW2 6810   6.666   0.531  12.185
 1660SOL     OW 6811  10.015   7.513   8.516
 1660SOL    HW1 6812   9.974   7.570   8.452
 1660SOL    HW2 6813   9.953   7.509   8.589
 1661SOL     OW 6814   4.285   2.816   3.683
 1661SOL    HW1 6815   4.199   2.841   3.649
 1661SOL    HW2 6816   4.273   2.816   3.778
 1662SOL     OW 6817   2.752   8.188   7.669
 1662SOL    HW1 6818   2.676   8.131   7.678
 1662SOL    HW2 6819   2.787   8.194   7.758
 1663SOL     OW 6820   0.240  14.772   9.279
 1663SOL    HW1 6821   0.232  14.862   9.312
 1663SOL    HW2 6822   0.247  14.718   9.358
 1664SOL     OW 6823   4.615   3.985   1.752
 1664SOL    HW1 6824   4.694   4.000   1.699
 1664SOL    HW2 6825   4.638   4.021   1.838
 1665SOL     OW 6826   1.480   8.609  14.352
 1665SOL    HW1 6827   1.547   8.541  14.355
 1665SOL    HW2 6828   1.524   8.685  14.312
 1666SOL     OW 6829  10.315   3.978  12.563
 1666SOL    HW1 6830  10.389   4.038  12.549
 1666SOL    HW2 6831  10.313   3.965  12.658
 1667SOL     OW 6832   8.153  12.300   7.203
 1667SOL    HW1 6833   8.227  12.243   7.222
 1667SOL    HW2 6834   8.076  12.249   7.231
 1668SOL     OW 6835   1.751   2.231  10.494
 1668SOL    HW1 6836   1.679   2.234  10.556
 1668SOL    HW2 6837   1.824   2.195  10.543
 1669SOL     OW 6838  13.974  10.753  10.795
 1669SOL    HW1 6839  13.953  10.725  10.706
 1669SOL    HW2 6840  14.061  10.792  10.788
 1670SOL     OW 6841   0.791   6.933  14.688
 1670SOL    HW1 6842   0.830   7.019  14.703
 1670SOL    HW2 6843   0.841   6.898  14.614
 1671SOL     OW 6844   7.134   2.383  14.377
 1671SOL    HW1 6845   7.067   2.441  14.341
 1671SOL    HW2 6846   7.174   2.340  14.301
 1672SOL     OW 6847   0.044   9.018  11.419
 1672SOL    HW1 6848   0.086   9.068  11.489
 1672SOL    HW2 6849   0.112   8.959  11.387
 1673SOL     OW 6850  10.044   8.261   1.026
 1673SOL    HW1 6851  10.020   8.328   0.961
 1673SOL    HW2 6852  10.132   8.235   1.000
 1674SOL     OW 6853  10.400   1.163   0.400
 1674SOL    HW1 6854  10.391   1.119   0.485
 1674SOL    HW2 6855  10.339   1.237   0.405
 1675SOL     OW 6856  11.589  11.997   7.694
 1675SOL    HW1 6857  11.566  11.974   7.784
 1675SOL    HW2 6858  11.672  11.952   7.678
 1676SOL     OW 6859   2.510   6.424   6.726
 1676SOL    HW1 6860   2.536   6.472   6.647
 1676SOL    HW2 6861   2.539   6.334   6.711
 1677SOL     OW 6862   7.185   1.939   7.234
 1677SOL    HW1 6863   7.141   1.868   7.283
 1677SOL    HW2 6864   7.203   1.901   7.148
 1678SOL     OW 6865   5.903   5.826   2.108
 1678SOL    HW1 6866   5.845   5.834   2.184
 1678SOL    HW2 6867   5.878   5.742   2.069
 1679SOL     OW 6868  14.614   1.158   6.384
 1679SOL    HW1 6869  14.526   1.182   6.414
 1679SOL    HW2 6870  14.671   1.225   6.421
 1680SOL     OW 6871   9.629   6.393  10.737
 1680SOL    HW1 6872   9.580   6.412  10.818
 1680SOL    HW2 6873   9.634   6.297  10.734
 1681SOL     OW 6874  14.313  12.325   1.510
 1681SOL    HW1 6875  14.309  12.306   1.604
 1681SOL    HW2 6876  14.274  12.248   1.468
 1682SOL     OW 6877   8.403   8.375   4.831
 1682SOL    HW1 6878   8.323   8.416   4.798
 1682SOL    HW2 6879   8.418   8.300   4.773
 1683SOL     OW 6880  10.249  12.644   3.326
 1683SOL    HW1 6881  10.339  12.652   3.295
 1683SOL    HW2 6882  10.234  12.550   3.333
 1684SOL     OW 6883   1.835   5.869   9.339
 1684SOL    HW1 6884   1.789   5.929   9.398
 1684SOL    HW2 6885   1.911   5.919   9.309
 1685SOL     OW 6886   8.421  14.395   4.446
 1685SOL    HW1 6887   8.385  14.474   4.487
 1685SOL    HW2 6888   8.488  14.365   4.507
 1686SOL     OW 6889   0.830  13.613   5.877
 1686SOL    HW1 6890   0.746  13.568   5.869
 1686SOL    HW2 6891   0.811  13.688   5.934
 1687SOL     OW 6892   3.154   1.504  11.228
 1687SOL    HW1 6893   3.246   1.480  11.219
 1687SOL    HW2 6894   3.127   1.530  11.140
 1688SOL     OW 6895   5.962   8.282   8.453
 1688SOL    HW1 6896   5.904   8.210   8.428
 1688SOL    HW2 6897   6.040   8.269   8.398
 1689SOL     OW 6898   9.383   3.509   9.543
 1689SOL    HW1 6899   9.295   3.542   9.525
 1689SOL    HW2 6900   9.369   3.424   9.584
 1690SOL     OW 6901   2.416  14.461   3.349
 1690SOL    HW1 6902   2.396  14.540   3.400
 1690SOL    HW2 6903   2.485  14.417   3.398
 1691SOL     OW 6904   7.932   5.067   6.517
 1691SOL    HW1 6905   7.972   5.152   6.499
 1691SOL    HW2 6906   7.848   5.069   6.471
 1692SOL     OW 6907  13.230   7.379   7.885
 1692SOL    HW1 6908  13.276   7.298   7.909
 1692SOL    HW2 6909  13.197   7.413   7.968
 1693SOL     OW 6910   8.909  12.882  10.652
 1693SOL    HW1 6911   8.869  12.955  10.604
 1693SOL    HW2 6912   8.946  12.825  10.584
 1694SOL     OW 6913   7.545   0.982   4.852
 1694SOL    HW1 6914   7.588   0.928   4.918
 1694SOL    HW2 6915   7.454   0.986   4.879
 1695SOL     OW 6916   7.264   9.831   4.732
 1695SOL    HW1 6917   7.305   9.796   4.811
 1695SOL    HW2 6918   7.178   9.790   4.729
 1696SOL     OW 6919  14.107  12.131   7.582
 1696SOL    HW1 6920  14.173  12.098   7.643
 1696SOL    HW2 6921  14.128  12.089   7.499
 1697SOL     OW 6922   0.938   1.701   2.424
 1697SOL    HW1 6923   0.940   1.794   2.449
 1697SOL    HW2 6924   0.873   1.696   2.354
 1698SOL     OW 6925   7.449  12.222   0.148
 1698SOL    HW1 6926   7.401  12.299   0.177
 1698SOL    HW2 6927   7.464  12.237   0.054
 1699SOL     OW 6928   9.772  12.363   0.613
 1699SOL    HW1 6929   9.803  12.286   0.661
 1699SOL    HW2 6930   9.771  12.433   0.678
 1700SOL     OW 6931   8.048   7.481   8.824
 1700SOL    HW1 6932   8.069   7.468   8.917
 1700SOL    HW2 6933   7.952   7.485   8.822
 1701SOL     OW 6934  13.962   4.751  11.201
 1701SOL    HW1 6935  14.020   4.780  11.131
 1701SOL    HW2 6936  13.921   4.672  11.167
 1702SOL     OW 6937   4.552   5.107   5.076
 1702SOL    HW1 6938   4.644   5.114   5.099
 1702SOL    HW2 6939   4.548   5.032   5.017
 1703SOL     OW 6940   3.246   6.021   7.821
 1703SOL    HW1 6941   3.156   6.003   7.792
 1703SOL    HW2 6942   3.290   6.053   7.742
 1704SOL     OW 6943  10.713   9.549  13.195
 1704SOL    HW1 6944  10.646   9.481  13.191
 1704SOL    HW2 6945  10.729   9.573  13.104
 1705SOL     OW 6946  12.416  11.737   2.542
 1705SOL    HW1 6947  12.454  11.820   2.570
 1705SOL    HW2 6948  12.454  11.672   2.602
 1706SOL     OW 6949   0.942   2.528  10.744
 1706SOL    HW1 6950   0.929   2.440  10.710
 1706SOL    HW2 6951   1.036   2.533  10.763
 1707SOL     OW 6952  12.861  10.847   2.524
 1707SOL    HW1 6953  12.838  10.861   2.432
 1707SOL    HW2 6954  12.938  10.903   2.538
 1708SOL     OW 6955   4.053   0.169  12.209
 1708SOL    HW1 6956   3.976   0.206  12.251
 1708SOL    HW2 6957   4.076   0.232  12.140
 1709SOL     OW 6958   3.320   6.051  12.228
 1709SOL    HW1 6959   3.257   6.122  12.216
 1709SOL    HW2 6960   3.325   6.039  12.323
 1710SOL     OW 6961  13.418   3.684  14.331
 1710SOL    HW1 6962  13.379   3.750  14.274
 1710SOL    HW2 6963  13.368   3.605  14.315
 1711SOL     OW 6964  10.639   4.194   1.391
 1711SOL    HW1 6965  10.593   4.124   1.345
 1711SOL    HW2 6966  10.731   4.167   1.392
 1712SOL     OW 6967  14.668  10.562   0.594
 1712SOL    HW1 6968  14.753  10.553   0.636
 1712SOL    HW2 6969  14.640  10.472   0.576
 1713SOL     OW 6970   9.374   7.139   7.042
 1713SOL    HW1 6971   9.307   7.162   7.106
 1713SOL    HW2 6972   9.349   7.186   6.962
 1714SOL     OW 6973   6.022  13.141  13.189
 1714SOL    HW1 6974   6.087  13.083  13.227
 1714SOL    HW2 6975   6.062  13.173  13.108
 1715SOL     OW 6976  13.095  10.266   8.426
 1715SOL    HW1 6977  13.003  10.247   8.445
 1715SOL    HW2 6978  13.095  10.356   8.393
 1716SOL     OW 6979   1.628   2.721  10.929
 1716SOL    HW1 6980   1.639   2.795  10.870
 1716SOL    HW2 6981   1.664   2.751  11.013
 1717SOL     OW 6982   3.906   2.940  10.624
 1717SOL    HW1 6983   3.883   2.901  10.539
 1717SOL    HW2 6984   3.866   3.027  10.622
 1718SOL     OW 6985   1.663   1.922   4.219
 1718SOL    HW1 6986   1.614   1.942   4.299
 1718SOL    HW2 6987   1.597   1.926   4.150
 1719SOL     OW 6988   4.150  11.256   8.413
 1719SOL    HW1 6989   4.227  11.204   8.433
 1719SOL    HW2 6990   4.080  11.192   8.403
 1720SOL     OW 6991  13.467   9.045  12.937
 1720SOL    HW1 6992  13.475   8.995  13.018
 1720SOL    HW2 6993  13.376   9.073  12.935
 1721SOL     OW 6994   5.321   2.798  10.147
 1721SOL    HW1 6995   5.326   2.746  10.227
 1721SOL    HW2 6996   5.389   2.763  10.091
 1722SOL     OW 6997   4.731   1.314   6.582
 1722SOL    HW1 6998   4.804   1.253   6.594
 1722SOL    HW2 6999   4.726   1.363   6.664
 1723SOL     OW 7000   6.923   1.792   7.135
 1723SOL    HW1 7001   6.994   1.779   7.197
 1723SOL    HW2 7002   6.912   1.708   7.092
 1724SOL     OW 7003  10.068   1.413   5.455
 1724SOL    HW1 7004  10.069   1.410   5.359
 1724SOL    HW2 7005  10.100   1.327   5.481
 1725SOL     OW 7006   4.223   0.831  14.831
 1725SOL    HW1 7007   4.255   0.787  14.753
 1725SOL    HW2 7008   4.259   0.781   0.022
 1726SOL     OW 7009  10.419   6.146  13.576
 1726SOL    HW1 7010  10.458   6.091  13.508
 1726SOL    HW2 7011  10.435   6.235  13.546
 1727SOL     OW 7012  11.953  10.272   0.614
 1727SOL    HW1 7013  11.912  10.297   0.531
 1727SOL    HW2 7014  11.997  10.351   0.643
 1728SOL     OW 7015  11.103   9.980   8.221
 1728SOL    HW1 7016  11.105   9.900   8.274
 1728SOL    HW2 7017  11.073  10.048   8.282
 1729SOL     OW 7018  13.984   7.145   2.786
 1729SOL    HW1 7019  13.948   7.234   2.789
 1729SOL    HW2 7020  14.057   7.151   2.724
 1730SOL     OW 7021  13.701   8.167   8.232
 1730SOL    HW1 7022  13.737   8.254   8.215
 1730SOL    HW2 7023  13.749   8.136   8.308
 1731SOL     OW 7024   1.749   3.046   6.266
 1731SOL    HW1 7025   1.838   3.081   6.260
 1731SOL    HW2 7026   1.716   3.077   6.350
 1732SOL     OW 7027   4.735   7.904   1.601
 1732SOL    HW1 7028   4.666   7.929   1.663
 1732SOL    HW2 7029   4.689   7.889   1.519
 1733SOL     OW 7030   6.979  12.034   8.199
 1733SOL    HW1 7031   6.961  12.128   8.197
 1733SOL    HW2 7032   6.969  12.010   8.291
 1734SOL     OW 7033   0.919   8.426   5.790
 1734SOL    HW1 7034   0.918   8.377   5.708
 1734SOL    HW2 7035   0.921   8.518   5.763
 1735SOL     OW 7036   5.456  11.431   1.138
 1735SOL    HW1 7037   5.526  11.371   1.111
 1735SOL    HW2 7038   5.499  11.490   1.200
 1736SOL     OW 7039   9.300   6.434  11.483
 1736SOL    HW1 7040   9.278   6.341  11.494
 1736SOL    HW2 7041   9.356   6.436  11.405
 1737SOL     OW 7042  14.337  12.523   9.309
 1737SOL    HW1 7043  14.403  12.464   9.273
 1737SOL    HW2 7044  14.273  12.534   9.239
 1738SOL     OW 7045   3.696   6.524   9.707
 1738SOL    HW1 7046   3.660   6.600   9.753
 1738SOL    HW2 7047   3.690   6.548   9.614
 1739SOL     OW 7048   0.255   3.316  10.392
 1739SOL    HW1 7049   0.293   3.360  10.315
 1739SOL    HW2 7050   0.172   3.362  10.407
 1740SOL     OW 7051  14.331   8.547   5.691
 1740SOL    HW1 7052  14.422   8.527   5.673
 1740SOL    HW2 7053  14.293   8.564   5.604
 1741SOL     OW 7054   0.658   1.544  14.586
 1741SOL    HW1 7055   0.675   1.637  14.596
 1741SOL    HW2 7056   0.613   1.520  14.667
 1742SOL     OW 7057  14.675   6.409   2.627
 1742SOL    HW1 7058  14.690   6.479   2.691
 1742SOL    HW2 7059  14.747   6.417   2.565
 1743SOL     OW 7060  10.629   6.409  10.379
 1743SOL    HW1 7061  10.693   6.339  10.367
 1743SOL    HW2 7062  10.564   6.373  10.439
 1744SOL     OW 7063   9.620   5.209  14.068
 1744SOL    HW1 7064   9.661   5.290  14.037
 1744SOL    HW2 7065   9.529   5.234  14.088
 1745SOL     OW 7066  13.857  11.525  11.990
 1745SOL    HW1 7067  13.768  11.494  12.001
 1745SOL    HW2 7068  13.905  11.450  11.954
 1746SOL     OW 7069  14.274   6.001   6.401
 1746SOL    HW1 7070  14.343   5.937   6.419
 1746SOL    HW2 7071  14.199   5.947   6.374
 1747SOL     OW 7072   1.559   9.969   3.680
 1747SOL    HW1 7073   1.524   9.909   3.746
 1747SOL    HW2 7074   1.605  10.036   3.730
 1748SOL     OW 7075   1.203   9.332   8.380
 1748SOL    HW1 7076   1.296   9.320   8.396
 1748SOL    HW2 7077   1.197   9.363   8.290
 1749SOL     OW 7078   5.970   0.131   6.312
 1749SOL    HW1 7079   5.890   0.094   6.350
 1749SOL    HW2 7080   5.995   0.069   6.244
 1750SOL     OW 7081   7.555  14.721   7.075
 1750SOL    HW1 7082   7.508  14.797   7.111
 1750SOL    HW2 7083   7.631  14.710   7.132
 1751SOL     OW 7084   2.655   2.977   1.225
 1751SOL    HW1 7085   2.684   2.904   1.170
 1751SOL    HW2 7086   2.725   2.989   1.289
 1752SOL     OW 7087   1.912   8.403   4.672
 1752SOL    HW1 7088   1.852   8.357   4.614
 1752SOL    HW2 7089   1.918   8.348   4.750
 1753SOL     OW 7090   9.136  13.824  11.372
 1753SOL    HW1 7091   9.117  13.911  11.335
 1753SOL    HW2 7092   9.221  13.801  11.336
 1754SOL     OW 7093   8.536   7.215  13.322
 1754SOL    HW1 7094   8.474   7.260  13.379
 1754SOL    HW2 7095   8.534   7.265  13.240
 1755SOL     OW 7096   9.987   6.539   3.988
 1755SOL    HW1 7097  10.012   6.560   3.898
 1755SOL    HW2 7098   9.910   6.594   4.005
 1756SOL     OW 7099   2.249  12.934   3.782
 1756SOL    HW1 7100   2.194  13.009   3.804
 1756SOL    HW2 7101   2.325  12.943   3.839
 1757SOL     OW 7102   9.588  11.218   7.165
 1757SOL    HW1 7103   9.510  11.252   7.209
 1757SOL    HW2 7104   9.658  11.278   7.189
 1758SOL     OW 7105   4.124   8.785  14.505
 1758SOL    HW1 7106   4.170   8.819  14.427
 1758SOL    HW2 7107   4.063   8.721  14.470
 1759SOL     OW 7108   6.569   6.566   9.886
 1759SOL    HW1 7109   6.628   6.639   9.868
 1759SOL    HW2 7110   6.522   6.551   9.804
 1760SOL     OW 7111   5.052   3.254  10.293
 1760SOL    HW1 7112   5.008   3.256  10.378
 1760SOL    HW2 7113   5.145   3.241  10.315
 1761SOL     OW 7114  11.964  14.379   4.705
 1761SOL    HW1 7115  11.959  14.417   4.793
 1761SOL    HW2 7116  12.012  14.296   4.717
 1762SOL     OW 7117   1.670  13.060   7.322
 1762SOL    HW1 7118   1.642  13.144   7.286
 1762SOL    HW2 7119   1.718  13.083   7.401
 1763SOL     OW 7120   2.916   6.762   9.280
 1763SOL    HW1 7121   2.985   6.780   9.216
 1763SOL    HW2 7122   2.960   6.713   9.350
 1764SOL     OW 7123   2.408   5.784   2.539
 1764SOL    HW1 7124   2.328   5.827   2.571
 1764SOL    HW2 7125   2.376   5.707   2.492
 1765SOL     OW 7126   1.313   8.576  12.860
 1765SOL    HW1 7127   1.388   8.571  12.919
 1765SOL    HW2 7128   1.290   8.485  12.842
 1766SOL     OW 7129   9.885   1.853  13.304
 1766SOL    HW1 7130   9.922   1.940  13.290
 1766SOL    HW2 7131   9.804   1.870  13.353
 1767SOL     OW 7132   9.306  10.923   6.583
 1767SOL    HW1 7133   9.358  10.980   6.527
 1767SOL    HW2 7134   9.304  10.968   6.667
 1768SOL     OW 7135   4.869  14.803   5.601
 1768SOL    HW1 7136   4.851  14.761   5.686
 1768SOL    HW2 7137   4.879   0.014   5.622
 1769SOL     OW 7138   3.295  10.127  11.085
 1769SOL    HW1 7139   3.321  10.216  11.107
 1769SOL    HW2 7140   3.293  10.125  10.989
 1770SOL     OW 7141  14.332   2.991   4.029
 1770SOL    HW1 7142  14.275   3.067   4.028
 1770SOL    HW2 7143  14.324   2.953   3.942
 1771SOL     OW 7144   0.152   2.349   3.065
 1771SOL    HW1 7145   0.171   2.275   3.006
 1771SOL    HW2 7146   0.225   2.409   3.052
 1772SOL     OW 7147   6.424  11.654   4.918
 1772SOL    HW1 7148   6.491  11.647   4.850
 1772SOL    HW2 7149   6.411  11.565   4.949
 1773SOL     OW 7150   5.556   2.293   5.233
 1773SOL    HW1 7151   5.618   2.219   5.236
 1773SOL    HW2 7152   5.487   2.264   5.174
 1774SOL     OW 7153   9.673  11.457  10.039
 1774SOL    HW1 7154   9.726  11.387  10.077
 1774SOL    HW2 7155   9.583  11.437  10.066
 1775SOL     OW 7156  12.241   4.058   9.295
 1775SOL    HW1 7157  12.305   3.999   9.335
 1775SOL    HW2 7158  12.241   4.135   9.353
 1776SOL     OW 7159  11.361   3.407   4.004
 1776SOL    HW1 7160  11.289   3.362   3.961
 1776SOL    HW2 7161  11.393   3.470   3.939
 1777SOL     OW 7162   6.779   9.074   1.732
 1777SOL    HW1 7163   6.683   9.077   1.732
 1777SOL    HW2 7164   6.802   9.042   1.645
 1778SOL     OW 7165   4.087  11.490   1.568
 1778SOL    HW1 7166   4.167  11.537   1.541
 1778SOL    HW2 7167   4.016  11.542   1.531
 1779SOL     OW 7168   0.888  14.697   3.835
 1779SOL    HW1 7169   0.900  14.724   3.926
 1779SOL    HW2 7170   0.900  14.602   3.837
 1780SOL     OW 7171   4.256   0.782   2.291
 1780SOL    HW1 7172   4.269   0.725   2.367
 1780SOL    HW2 7173   4.342   0.820   2.274
 1781SOL     OW 7174   8.583   6.350   0.286
 1781SOL    HW1 7175   8.524   6.294   0.336
 1781SOL    HW2 7176   8.582   6.434   0.332
 1782SOL     OW 7177  11.319   5.468   7.412
 1782SOL    HW1 7178  11.371   5.489   7.490
 1782SOL    HW2 7179  11.237   5.516   7.423
 1783SOL     OW 7180  12.405   3.696   7.586
 1783SOL    HW1 7181  12.376   3.695   7.494
 1783SOL    HW2 7182  12.383   3.784   7.617
 1784SOL     OW 7183  12.474   8.967  14.168
 1784SOL    HW1 7184  12.464   8.872  14.175
 1784SOL    HW2 7185  12.452   8.987  14.078
 1785SOL     OW 7186   4.770   8.465   5.417
 1785SOL    HW1 7187   4.719   8.418   5.351
 1785SOL    HW2 7188   4.753   8.558   5.398
 1786SOL     OW 7189  10.761   6.122   7.104
 1786SOL    HW1 7190  10.738   6.114   7.012
 1786SOL    HW2 7191  10.694   6.179   7.141
 1787SOL     OW 7192   8.973   0.641   2.395
 1787SOL    HW1 7193   8.923   0.565   2.364
 1787SOL    HW2 7194   8.948   0.649   2.487
 1788SOL     OW 7195   4.980  11.129  14.877
 1788SOL    HW1 7196   4.948  11.039  14.868
 1788SOL    HW2 7197   5.074  11.123  14.858
 1789SOL     OW 7198  14.208  13.342   7.591
 1789SOL    HW1 7199  14.207  13.250   7.564
 1789SOL    HW2 7200  14.288  13.377   7.553
 1790SOL     OW 7201   4.163  11.605  10.499
 1790SOL    HW1 7202   4.105  11.559  10.559
 1790SOL    HW2 7203   4.176  11.544  10.426
 1791SOL     OW 7204   5.420   9.801   7.021
 1791SOL    HW1 7205   5.511   9.826   7.006
 1791SOL    HW2 7206   5.396   9.749   6.944
 1792SOL     OW 7207   3.274  11.964  11.618
 1792SOL    HW1 7208   3.260  11.968  11.713
 1792SOL    HW2 7209   3.190  11.935  11.583
 1793SOL     OW 7210   8.800  14.540   0.352
 1793SOL    HW1 7211   8.869  14.599   0.321
 1793SOL    HW2 7212   8.833  14.506   0.435
 1794SOL     OW 7213   3.369   5.329  13.941
 1794SOL    HW1 7214   3.397   5.350  13.852
 1794SOL    HW2 7215   3.406   5.399  13.995
 1795SOL     OW 7216  10.284  13.844   8.708
 1795SOL    HW1 7217  10.246  13.782   8.771
 1795SOL    HW2 7218  10.333  13.789   8.647
 1796SOL     OW 7219   8.468   6.156   8.191
 1796SOL    HW1 7220   8.542   6.096   8.180
 1796SOL    HW2 7221   8.425   6.157   8.106
 1797SOL     OW 7222  11.351   1.232   1.717
 1797SOL    HW1 7223  11.401   1.203   1.641
 1797SOL    HW2 7224  11.381   1.177   1.789
 1798SOL     OW 7225  12.931   2.871  14.057
 1798SOL    HW1 7226  12.892   2.924  13.988
 1798SOL    HW2 7227  13.025   2.888  14.050
 1799SOL     OW 7228   4.054   8.251   1.580
 1799SOL    HW1 7229   3.989   8.320   1.564
 1799SOL    HW2 7230   4.072   8.214   1.494
 1800SOL     OW 7231   2.087   7.681  13.674
 1800SOL    HW1 7232   2.177   7.685  13.707
 1800SOL    HW2 7233   2.054   7.597  13.706
 1801SOL     OW 7234   9.003   5.696   6.640
 1801SOL    HW1 7235   8.994   5.745   6.721
 1801SOL    HW2 7236   8.913   5.674   6.615
 1802SOL     OW 7237   1.609   4.521   6.290
 1802SOL    HW1 7238   1.550   4.467   6.238
 1802SOL    HW2 7239   1.556   4.552   6.364
 1803SOL     OW 7240  11.865  12.897  11.367
 1803SOL    HW1 7241  11.832  12.913  11.456
 1803SOL    HW2 7242  11.955  12.929  11.370
 1804SOL     OW 7243   1.270   1.553   3.435
 1804SOL    HW1 7244   1.323   1.588   3.507
 1804SOL    HW2 7245   1.180   1.558   3.467
 1805SOL     OW 7246   8.700   3.067   7.791
 1805SOL    HW1 7247   8.796   3.063   7.784
 1805SOL    HW2 7248   8.675   2.982   7.827
 1806SOL     OW 7249   3.292   7.365   8.659
 1806SOL    HW1 7250   3.379   7.369   8.620
 1806SOL    HW2 7251   3.234   7.341   8.587
 1807SOL     OW 7252  10.215   4.931  11.591
 1807SOL    HW1 7253  10.208   4.920  11.496
 1807SOL    HW2 7254  10.307   4.911  11.610
 1808SOL     OW 7255   9.857   2.391  10.967
 1808SOL    HW1 7256   9.836   2.371  11.058
 1808SOL    HW2 7257   9.859   2.487  10.964
 1809SOL     OW 7258   7.885  12.369  10.239
 1809SOL    HW1 7259   7.887  12.454  10.195
 1809SOL    HW2 7260   7.803  12.329  10.210
 1810SOL     OW 7261   0.032   6.571   0.865
 1810SOL    HW1 7262   0.071   6.637   0.807
 1810SOL    HW2 7263   0.097   6.560   0.934
 1811SOL     OW 7264  10.559   3.017   5.247
 1811SOL    HW1 7265  10.583   3.074   5.174
 1811SOL    HW2 7266  10.629   2.951   5.250
 1812SOL     OW 7267   2.504   6.640  12.249
 1812SOL    HW1 7268   2.517   6.560  12.299
 1812SOL    HW2 7269   2.591   6.667  12.222
 1813SOL     OW 7270   1.887   1.021   3.992
 1813SOL    HW1 7271   1.941   0.973   4.054
 1813SOL    HW2 7272   1.804   1.034   4.037
 1814SOL     OW 7273   8.137   6.154   3.091
 1814SOL    HW1 7274   8.085   6.230   3.067
 1814SOL    HW2 7275   8.099   6.125   3.174
 1815SOL     OW 7276  13.447  10.037   2.482
 1815SOL    HW1 7277  13.361  10.068   2.513
 1815SOL    HW2 7278  13.437   9.942   2.475
 1816SOL     OW 7279   5.260   5.397  14.687
 1816SOL    HW1 7280   5.204   5.320  14.675
 1816SOL    HW2 7281   5.328   5.368  14.748
 1817SOL     OW 7282  14.008  10.383  10.041
 1817SOL    HW1 7283  14.071  10.401   9.972
 1817SOL    HW2 7284  13.960  10.465  10.052
 1818SOL     OW 7285   0.522  13.306   1.290
 1818SOL    HW1 7286   0.470  13.364   1.234
 1818SOL    HW2 7287   0.459  13.241   1.322
 1819SOL     OW 7288   1.215   9.820   5.445
 1819SOL    HW1 7289   1.120   9.817   5.456
 1819SOL    HW2 7290   1.240   9.904   5.483
 1820SOL     OW 7291   0.119  12.760   3.663
 1820SOL    HW1 7292   0.081  12.807   3.738
 1820SOL    HW2 7293   0.043  12.733   3.611
 1821SOL     OW 7294  10.276   2.480  10.651
 1821SOL    HW1 7295  10.235   2.424  10.717
 1821SOL    HW2 7296  10.209   2.489  10.583
 1822SOL     OW 7297  12.204  12.346  12.047
 1822SOL    HW1 7298  12.211  12.357  11.952
 1822SOL    HW2 7299  12.189  12.253  12.059
 1823SOL     OW 7300  11.785   4.264   9.837
 1823SOL    HW1 7301  11.768   4.202   9.766
 1823SOL    HW2 7302  11.796   4.348   9.792
 1824SOL     OW 7303   0.323   1.886   8.498
 1824SOL    HW1 7304   0.260   1.822   8.531
 1824SOL    HW2 7305   0.401   1.873   8.552
 1825SOL     OW 7306   1.252   9.184   4.490
 1825SOL    HW1 7307   1.316   9.137   4.437
 1825SOL    HW2 7308   1.275   9.163   4.580
 1826SOL     OW 7309   4.907   3.432  10.961
 1826SOL    HW1 7310   4.836   3.432  10.897
 1826SOL    HW2 7311   4.986   3.420  10.909
 1827SOL     OW 7312   3.275   9.256   2.179
 1827SOL    HW1 7313   3.255   9.196   2.107
 1827SOL    HW2 7314   3.313   9.199   2.247
 1828SOL     OW 7315  14.255   7.994  13.126
 1828SOL    HW1 7316  14.340   7.989  13.082
 1828SOL    HW2 7317  14.212   8.071  13.088
 1829SOL     OW 7318   0.254   1.867   2.665
 1829SOL    HW1 7319   0.346   1.878   2.686
 1829SOL    HW2 7320   0.220   1.809   2.733
 1830SOL     OW 7321  13.580   8.012  13.968
 1830SOL    HW1 7322  13.590   7.987  14.060
 1830SOL    HW2 7323  13.650   8.075  13.953
 1831SOL     OW 7324   8.525   8.096   6.529
 1831SOL    HW1 7325   8.431   8.080   6.525
 1831SOL    HW2 7326   8.557   8.080   6.440
 1832SOL     OW 7327   0.252  11.786   1.873
 1832SOL    HW1 7328   0.315  11.805   1.943
 1832SOL    HW2 7329   0.286  11.833   1.797
 1833SOL     OW 7330  10.847   9.070   4.025
 1833SOL    HW1 7331  10.859   8.976   4.038
 1833SOL    HW2 7332  10.822   9.103   4.112
 1834SOL     OW 7333   1.701   9.723  10.501
 1834SOL    HW1 7334   1.616   9.726  10.456
 1834SOL    HW2 7335   1.689   9.657  10.570
 1835SOL     OW 7336   1.856  12.419   3.899
 1835SOL    HW1 7337   1.771  12.454   3.927
 1835SOL    HW2 7338   1.900  12.396   3.981
 1836SOL     OW 7339   4.325   5.377   9.185
 1836SOL    HW1 7340   4.340   5.286   9.162
 1836SOL    HW2 7341   4.320   5.377   9.281
 1837SOL     OW 7342   5.721  11.240  12.139
 1837SOL    HW1 7343   5.652  11.306  12.147
 1837SOL    HW2 7344   5.676  11.157  12.147
 1838SOL     OW 7345   5.873  12.512   4.456
 1838SOL    HW1 7346   5.959  12.503   4.496
 1838SOL    HW2 7347   5.828  12.578   4.510
 1839SOL     OW 7348  10.888  11.868   8.704
 1839SOL    HW1 7349  10.943  11.946   8.704
 1839SOL    HW2 7350  10.949  11.795   8.692
 1840SOL     OW 7351   1.268  11.822   4.060
 1840SOL    HW1 7352   1.321  11.802   4.138
 1840SOL    HW2 7353   1.304  11.765   3.992
 1841SOL     OW 7354   6.459   0.877   3.226
 1841SOL    HW1 7355   6.443   0.809   3.160
 1841SOL    HW2 7356   6.545   0.912   3.202
 1842SOL     OW 7357   0.780  11.551   2.169
 1842SOL    HW1 7358   0.716  11.488   2.202
 1842SOL    HW2 7359   0.755  11.634   2.208
 1843SOL     OW 7360   1.118   3.853   5.835
 1843SOL    HW1 7361   1.197   3.826   5.883
 1843SOL    HW2 7362   1.152   3.887   5.752
 1844SOL     OW 7363  10.435   8.180   1.481
 1844SOL    HW1 7364  10.398   8.178   1.569
 1844SOL    HW2 7365  10.493   8.104   1.477
 1845SOL     OW 7366  14.585   2.593   0.119
 1845SOL    HW1 7367  14.584   2.531   0.045
 1845SOL    HW2 7368  14.623   2.543   0.191
 1846SOL     OW 7369   5.127  13.611  11.580
 1846SOL    HW1 7370   5.072  13.532  11.583
 1846SOL    HW2 7371   5.095  13.666  11.650
 1847SOL     OW 7372   2.378   0.215   6.784
 1847SOL    HW1 7373   2.348   0.145   6.726
 1847SOL    HW2 7374   2.464   0.239   6.749
 1848SOL     OW 7375   0.486   9.824   5.785
 1848SOL    HW1 7376   0.556   9.835   5.850
 1848SOL    HW2 7377   0.436   9.905   5.790
 1849SOL     OW 7378   3.347   7.473   6.815
 1849SOL    HW1 7379   3.380   7.455   6.903
 1849SOL    HW2 7380   3.384   7.402   6.761
 1850SOL     OW 7381   1.010   0.824   8.364
 1850SOL    HW1 7382   1.044   0.735   8.376
 1850SOL    HW2 7383   1.025   0.866   8.449
 1851SOL     OW 7384   8.049  10.933   0.846
 1851SOL    HW1 7385   8.101  11.001   0.802
 1851SOL    HW2 7386   8.112  10.865   0.868
 1852SOL     OW 7387   3.047   7.826   4.803
 1852SOL    HW1 7388   3.132   7.795   4.772
 1852SOL    HW2 7389   3.066   7.870   4.886
 1853SOL     OW 7390   6.718   7.231  14.859
 1853SOL    HW1 7391   6.688   7.142  14.842
 1853SOL    HW2 7392   6.641   7.286  14.843
 1854SOL     OW 7393  11.239   0.179   3.315
 1854SOL    HW1 7394  11.274   0.091   3.331
 1854SOL    HW2 7395  11.308   0.223   3.265
 1855SOL     OW 7396   3.781   1.284  14.162
 1855SOL    HW1 7397   3.819   1.372  14.164
 1855SOL    HW2 7398   3.830   1.234  14.226
 1856SOL     OW 7399   8.452   8.737   8.498
 1856SOL    HW1 7400   8.415   8.822   8.474
 1856SOL    HW2 7401   8.524   8.724   8.436
 1857SOL     OW 7402   2.175  14.691   8.053
 1857SOL    HW1 7403   2.086  14.724   8.044
 1857SOL    HW2 7404   2.230  14.769   8.051
 1858SOL     OW 7405   4.157  11.391   9.471
 1858SOL    HW1 7406   4.159  11.360   9.381
 1858SOL    HW2 7407   4.064  11.399   9.492
 1859SOL     OW 7408   1.054   9.780   9.192
 1859SOL    HW1 7409   1.058   9.774   9.096
 1859SOL    HW2 7410   0.995   9.853   9.209
 1860SOL     OW 7411   7.587   1.511   6.289
 1860SOL    HW1 7412   7.539   1.562   6.224
 1860SOL    HW2 7413   7.529   1.507   6.364
 1861SOL     OW 7414   9.473   9.605   5.073
 1861SOL    HW1 7415   9.537   9.534   5.076
 1861SOL    HW2 7416   9.440   9.611   5.163
 1862SOL     OW 7417   9.988   4.200  12.522
 1862SOL    HW1 7418  10.039   4.280  12.507
 1862SOL    HW2 7419   9.932   4.192  12.445
 1863SOL     OW 7420   9.823  14.434   6.167
 1863SOL    HW1 7421   9.917  14.442   6.182
 1863SOL    HW2 7422   9.814  14.446   6.072
 1864SOL     OW 7423   9.272   9.974   1.544
 1864SOL    HW1 7424   9.364   9.954   1.557
 1864SOL    HW2 7425   9.225   9.910   1.598
 1865SOL     OW 7426   6.245  10.881  12.177
 1865SOL    HW1 7427   6.249  10.872  12.272
 1865SOL    HW2 7428   6.213  10.797  12.146
 1866SOL     OW 7429   2.816   0.239   3.868
 1866SOL    HW1 7430   2.739   0.230   3.812
 1866SOL    HW2 7431   2.804   0.324   3.911
 1867SOL     OW 7432  10.184  14.172   3.274
 1867SOL    HW1 7433  10.196  14.078   3.289
 1867SOL    HW2 7434  10.220  14.188   3.187
 1868SOL     OW 7435   6.880   8.810  10.082
 1868SOL    HW1 7436   6.811   8.793  10.146
 1868SOL    HW2 7437   6.957   8.832  10.135
 1869SOL     OW 7438   9.851   5.467   3.366
 1869SOL    HW1 7439   9.811   5.527   3.302
 1869SOL    HW2 7440   9.825   5.380   3.336
 1870SOL     OW 7441  14.139   2.250  12.018
 1870SOL    HW1 7442  14.082   2.226  12.091
 1870SOL    HW2 7443  14.164   2.166  11.978
 1871SOL     OW 7444  13.943  12.498   8.951
 1871SOL    HW1 7445  13.932  12.407   8.924
 1871SOL    HW2 7446  13.893  12.548   8.887
 1872SOL     OW 7447  13.369   0.674   2.902
 1872SOL    HW1 7448  13.398   0.614   2.971
 1872SOL    HW2 7449  13.297   0.629   2.858
 1873SOL     OW 7450   2.757   2.464   5.086
 1873SOL    HW1 7451   2.777   2.437   4.996
 1873SOL    HW2 7452   2.801   2.399   5.141
 1874SOL     OW 7453   5.929   7.216   1.142
 1874SOL    HW1 7454   6.011   7.177   1.174
 1874SOL    HW2 7455   5.885   7.247   1.221
 1875SOL     OW 7456   4.558  11.149  12.012
 1875SOL    HW1 7457   4.500  11.098  12.068
 1875SOL    HW2 7458   4.623  11.086  11.979
 1876SOL     OW 7459  13.668   6.667   7.316
 1876SOL    HW1 7460  13.730   6.712   7.259
 1876SOL    HW2 7461  13.585   6.715   7.303
 1877SOL     OW 7462   6.869   4.169   7.219
 1877SOL    HW1 7463   6.891   4.123   7.300
 1877SOL    HW2 7464   6.799   4.117   7.180
 1878SOL     OW 7465   6.832   0.343   5.327
 1878SOL    HW1 7466   6.821   0.438   5.329
 1878SOL    HW2 7467   6.789   0.313   5.407
 1879SOL     OW 7468   2.382   8.431   6.637
 1879SOL    HW1 7469   2.315   8.376   6.595
 1879SOL    HW2 7470   2.379   8.513   6.587
 1880SOL     OW 7471   6.123  10.177   4.984
 1880SOL    HW1 7472   6.106  10.130   4.903
 1880SOL    HW2 7473   6.202  10.229   4.966
 1881SOL     OW 7474   1.212   4.230   7.229
 1881SOL    HW1 7475   1.122   4.196   7.229
 1881SOL    HW2 7476   1.227   4.259   7.140
 1882SOL     OW 7477   0.417   5.641   6.374
 1882SOL    HW1 7478   0.343   5.605   6.423
 1882SOL    HW2 7479   0.381   5.661   6.287
 1883SOL     OW 7480  11.585   4.782   3.709
 1883SOL    HW1 7481  11.585   4.791   3.804
 1883SOL    HW2 7482  11.662   4.830   3.680
 1884SOL     OW 7483   3.616  13.684   6.765
 1884SOL    HW1 7484   3.602  13.658   6.856
 1884SOL    HW2 7485   3.528  13.686   6.727
 1885SOL     OW 7486  11.685  11.405   3.049
 1885SOL    HW1 7487  11.619  11.440   2.990
 1885SOL    HW2 7488  11.673  11.454   3.131
 1886SOL     OW 7489   3.738   3.339  12.197
 1886SOL    HW1 7490   3.741   3.428  12.162
 1886SOL    HW2 7491   3.816   3.333  12.252
 1887SOL     OW 7492  10.270   5.506   4.382
 1887SOL    HW1 7493  10.202   5.562   4.344
 1887SOL    HW2 7494  10.232   5.474   4.464
 1888SOL     OW 7495  10.525  13.511   8.065
 1888SOL    HW1 7496  10.503  13.418   8.054
 1888SOL    HW2 7497  10.617  13.510   8.091
 1889SOL     OW 7498   6.696   8.569  11.624
 1889SOL    HW1 7499   6.744   8.591  11.704
 1889SOL    HW2 7500   6.619   8.626  11.627
 1890SOL     OW 7501  11.849   2.287  14.558
 1890SOL    HW1 7502  11.824   2.289  14.650
 1890SOL    HW2 7503  11.932   2.239  14.556
 1891SOL     OW 7504  10.492   8.037  10.174
 1891SOL    HW1 7505  10.520   7.958  10.127
 1891SOL    HW2 7506  10.551   8.106  10.143
 1892SOL     OW 7507  12.072   7.375   4.619
 1892SOL    HW1 7508  11.984   7.392   4.585
 1892SOL    HW2 7509  12.131   7.419   4.559
 1893SOL     OW 7510   7.046  11.255   0.721
 1893SOL    HW1 7511   6.955  11.228   0.707
 1893SOL    HW2 7512   7.044  11.350   0.717
 1894SOL     OW 7513   7.025   2.482  12.057
 1894SOL    HW1 7514   7.008   2.432  12.137
 1894SOL    HW2 7515   6.960   2.553  12.059
 1895SOL     OW 7516   1.499  14.606   1.121
 1895SOL    HW1 7517   1.457  14.616   1.036
 1895SOL    HW2 7518   1.538  14.519   1.119
 1896SOL     OW 7519   9.354  13.372  13.393
 1896SOL    HW1 7520   9.272  13.350  13.349
 1896SOL    HW2 7521   9.387  13.289  13.426
 1897SOL     OW 7522  11.293   0.021  10.126
 1897SOL    HW1 7523  11.290   0.116  10.114
 1897SOL    HW2 7524  11.208  14.880  10.163
 1898SOL     OW 7525  13.751   7.514   3.494
 1898SOL    HW1 7526  13.810   7.502   3.420
 1898SOL    HW2 7527  13.672   7.550   3.456
 1899SOL     OW 7528   2.712   6.647   6.943
 1899SOL    HW1 7529   2.648   6.657   6.873
 1899SOL    HW2 7530   2.752   6.734   6.952
 1900SOL     OW 7531   2.294  13.310   6.296
 1900SOL    HW1 7532   2.310  13.340   6.386
 1900SOL    HW2 7533   2.348  13.232   6.287
 1901SOL     OW 7534   8.320   9.373  11.212
 1901SOL    HW1 7535   8.398   9.424  11.192
 1901SOL    HW2 7536   8.250   9.414  11.162
 1902SOL     OW 7537  13.807   1.332  10.491
 1902SOL    HW1 7538  13.803   1.332  10.587
 1902SOL    HW2 7539  13.728   1.379  10.464
 1903SOL     OW 7540  12.071   5.195   8.214
 1903SOL    HW1 7541  12.161   5.215   8.188
 1903SOL    HW2 7542  12.051   5.261   8.280
 1904SOL     OW 7543   4.780   3.695   1.467
 1904SOL    HW1 7544   4.771   3.659   1.555
 1904SOL    HW2 7545   4.725   3.639   1.412
 1905SOL     OW 7546   0.751  13.003  10.510
 1905SOL    HW1 7547   0.827  12.952  10.539
 1905SOL    HW2 7548   0.730  12.967  10.424
 1906SOL     OW 7549  10.625   8.666   4.856
 1906SOL    HW1 7550  10.544   8.713   4.837
 1906SOL    HW2 7551  10.669   8.720   4.922
 1907SOL     OW 7552   2.844   8.297   6.680
 1907SOL    HW1 7553   2.908   8.368   6.689
 1907SOL    HW2 7554   2.868   8.253   6.599
 1908SOL     OW 7555  10.644  12.860   1.588
 1908SOL    HW1 7556  10.704  12.840   1.516
 1908SOL    HW2 7557  10.593  12.934   1.557
 1909SOL     OW 7558  13.189   5.775  13.070
 1909SOL    HW1 7559  13.122   5.756  13.136
 1909SOL    HW2 7560  13.143   5.767  12.986
 1910SOL     OW 7561   0.500  10.650   4.126
 1910SOL    HW1 7562   0.426  10.706   4.149
 1910SOL    HW2 7563   0.563  10.709   4.085
 1911SOL     OW 7564   7.039   6.030   7.512
 1911SOL    HW1 7565   7.009   6.120   7.524
 1911SOL    HW2 7566   6.983   5.978   7.571
 1912SOL     OW 7567   4.207   4.251   7.091
 1912SOL    HW1 7568   4.281   4.287   7.043
 1912SOL    HW2 7569   4.130   4.282   7.043
 1913SOL     OW 7570   0.248   6.804   8.260
 1913SOL    HW1 7571   0.257   6.820   8.167
 1913SOL    HW2 7572   0.322   6.748   8.282
 1914SOL     OW 7573  14.662   5.864   8.433
 1914SOL    HW1 7574  14.641   5.803   8.362
 1914SOL    HW2 7575  14.634   5.819   8.513
 1915SOL     OW 7576  11.401   8.105   3.414
 1915SOL    HW1 7577  11.492   8.125   3.438
 1915SOL    HW2 7578  11.407   8.067   3.327
 1916SOL     OW 7579  11.139  14.398   0.513
 1916SOL    HW1 7580  11.218  14.346   0.497
 1916SOL    HW2 7581  11.166  14.463   0.579
 1917SOL     OW 7582   0.267  10.538   0.723
 1917SOL    HW1 7583   0.243  10.518   0.814
 1917SOL    HW2 7584   0.199  10.495   0.671
 1918SOL     OW 7585  14.385  14.387   7.980
 1918SOL    HW1 7586  14.292  14.364   7.974
 1918SOL    HW2 7587  14.425  14.312   8.024
 1919SOL     OW 7588   7.784   0.791  11.355
 1919SOL    HW1 7589   7.812   0.722  11.415
 1919SOL    HW2 7590   7.759   0.745  11.275
 1920SOL     OW 7591   5.950  11.980  12.684
 1920SOL    HW1 7592   6.028  11.926  12.676
 1920SOL    HW2 7593   5.983  12.070  12.679
 1921SOL     OW 7594  14.540   3.606  11.914
 1921SOL    HW1 7595  14.494   3.578  11.993
 1921SOL    HW2 7596  14.488   3.680  11.882
 1922SOL     OW 7597   8.751   0.913   3.804
 1922SOL    HW1 7598   8.754   1.009   3.808
 1922SOL    HW2 7599   8.738   0.894   3.712
 1923SOL     OW 7600   2.038   6.976   2.055
 1923SOL    HW1 7601   2.045   7.025   2.138
 1923SOL    HW2 7602   2.024   6.885   2.082
 1924SOL     OW 7603   9.355   8.318   0.734
 1924SOL    HW1 7604   9.446   8.302   0.710
 1924SOL    HW2 7605   9.322   8.232   0.760
 1925SOL     OW 7606  10.430   2.596   8.553
 1925SOL    HW1 7607  10.506   2.647   8.524
 1925SOL    HW2 7608  10.399   2.552   8.474
 1926SOL     OW 7609   4.710   6.674   0.907
 1926SOL    HW1 7610   4.743   6.586   0.925
 1926SOL    HW2 7611   4.777   6.714   0.851
 1927SOL     OW 7612  14.602  14.339  10.703
 1927SOL    HW1 7613  14.608  14.280  10.627
 1927SOL    HW2 7614  14.521  14.389  10.688
 1928SOL     OW 7615   1.915  11.405  13.455
 1928SOL    HW1 7616   1.861  11.416  13.533
 1928SOL    HW2 7617   2.000  11.377  13.488
 1929SOL     OW 7618   1.672  10.324   1.703
 1929SOL    HW1 7619   1.679  10.279   1.618
 1929SOL    HW2 7620   1.660  10.416   1.680
 1930SOL     OW 7621   4.775  14.396   5.328
 1930SOL    HW1 7622   4.868  14.391   5.306
 1930SOL    HW2 7623   4.774  14.417   5.422
 1931SOL     OW 7624   0.585   0.829   3.537
 1931SOL    HW1 7625   0.536   0.901   3.578
 1931SOL    HW2 7626   0.522   0.757   3.533
 1932SOL     OW 7627  12.676   0.631  10.950
 1932SOL    HW1 7628  12.584   0.614  10.929
 1932SOL    HW2 7629  12.723   0.614  10.868
 1933SOL     OW 7630   8.893  14.302   2.704
 1933SOL    HW1 7631   8.810  14.346   2.721
 1933SOL    HW2 7632   8.869  14.214   2.675
 1934SOL     OW 7633   4.463  11.506   2.309
 1934SOL    HW1 7634   4.421  11.545   2.232
 1934SOL    HW2 7635   4.391  11.482   2.366
 1935SOL     OW 7636   3.612   5.050   1.704
 1935SOL    HW1 7637   3.542   4.991   1.674
 1935SOL    HW2 7638   3.675   4.992   1.747
 1936SOL     OW 7639   1.333   5.015   8.882
 1936SOL    HW1 7640   1.287   4.966   8.950
 1936SOL    HW2 7641   1.398   5.067   8.930
 1937SOL     OW 7642   9.706   3.671   9.102
 1937SOL    HW1 7643   9.646   3.736   9.139
 1937SOL    HW2 7644   9.651   3.616   9.047
 1938SOL     OW 7645   1.656   4.348  12.895
 1938SOL    HW1 7646   1.704   4.423  12.931
 1938SOL    HW2 7647   1.576   4.386  12.859
 1939SOL     OW 7648   7.866   5.080   8.658
 1939SOL    HW1 7649   7.836   5.091   8.748
 1939SOL    HW2 7650   7.842   5.162   8.615
 1940SOL     OW 7651   1.502  11.486   0.030
 1940SOL    HW1 7652   1.503  11.556  14.847
 1940SOL    HW2 7653   1.592  11.455   0.033
 1941SOL     OW 7654  11.572   0.081   5.371
 1941SOL    HW1 7655  11.533   0.099   5.286
 1941SOL    HW2 7656  11.654   0.129   5.371
 1942SOL     OW 7657   3.903   9.238   5.045
 1942SOL    HW1 7658   3.902   9.186   5.125
 1942SOL    HW2 7659   3.980   9.208   4.997
 1943SOL     OW 7660  13.537   1.660   1.603
 1943SOL    HW1 7661  13.625   1.697   1.596
 1943SOL    HW2 7662  13.540   1.605   1.681
 1944SOL     OW 7663   0.802   7.981  14.283
 1944SOL    HW1 7664   0.799   8.042  14.357
 1944SOL    HW2 7665   0.847   7.904  14.318
 1945SOL     OW 7666   5.054   3.446  12.402
 1945SOL    HW1 7667   5.055   3.382  12.331
 1945SOL    HW2 7668   5.004   3.520  12.368
 1946SOL     OW 7669  12.350   9.037   8.640
 1946SOL    HW1 7670  12.269   9.012   8.684
 1946SOL    HW2 7671  12.328   9.036   8.546
 1947SOL     OW 7672   4.361   4.435   9.362
 1947SOL    HW1 7673   4.410   4.499   9.413
 1947SOL    HW2 7674   4.278   4.479   9.340
 1948SOL     OW 7675   5.756   5.370   1.473
 1948SOL    HW1 7676   5.832   5.375   1.414
 1948SOL    HW2 7677   5.793   5.341   1.556
 1949SOL     OW 7678  12.583  10.913   0.124
 1949SOL    HW1 7679  12.561  11.006   0.119
 1949SOL    HW2 7680  12.529  10.871   0.057
 1950SOL     OW 7681   2.649   0.604  14.374
 1950SOL    HW1 7682   2.566   0.633  14.411
 1950SOL    HW2 7683   2.673   0.673  14.312
 1951SOL     OW 7684   6.357   8.867   5.942
 1951SOL    HW1 7685   6.428   8.854   6.004
 1951SOL    HW2 7686   6.341   8.781   5.905
 1952SOL     OW 7687   4.099   8.614   7.888
 1952SOL    HW1 7688   4.179   8.640   7.932
 1952SOL    HW2 7689   4.120   8.617   7.795
 1953SOL     OW 7690   8.425  13.699   9.421
 1953SOL    HW1 7691   8.429  13.624   9.361
 1953SOL    HW2 7692   8.432  13.776   9.364
 1954SOL     OW 7693   7.814   9.706  14.446
 1954SOL    HW1 7694   7.883   9.750  14.495
 1954SOL    HW2 7695   7.816   9.615  14.478
 1955SOL     OW 7696  10.140   9.797   6.479
 1955SOL    HW1 7697  10.080   9.722   6.486
 1955SOL    HW2 7698  10.205   9.782   6.547
 1956SOL     OW 7699   3.930  10.035   0.918
 1956SOL    HW1 7700   3.872  10.058   0.991
 1956SOL    HW2 7701   3.930   9.940   0.916
 1957SOL     OW 7702   5.723  10.657   6.553
 1957SOL    HW1 7703   5.755  10.747   6.544
 1957SOL    HW2 7704   5.800  10.603   6.540
 1958SOL     OW 7705   1.173   8.107   7.774
 1958SOL    HW1 7706   1.266   8.128   7.770
 1958SOL    HW2 7707   1.133   8.164   7.708
 1959SOL     OW 7708  13.871  12.439  13.906
 1959SOL    HW1 7709  13.862  12.394  13.990
 1959SOL    HW2 7710  13.858  12.370  13.840
 1960SOL     OW 7711   3.756   0.761   2.917
 1960SOL    HW1 7712   3.783   0.670   2.904
 1960SOL    HW2 7713   3.718   0.762   3.005
 1961SOL     OW 7714  12.454   8.638   2.872
 1961SOL    HW1 7715  12.394   8.712   2.879
 1961SOL    HW2 7716  12.461   8.603   2.961
 1962SOL     OW 7717   2.854  14.257   0.310
 1962SOL    HW1 7718   2.862  14.341   0.354
 1962SOL    HW2 7719   2.779  14.215   0.352
 1963SOL     OW 7720   0.363  11.783   8.573
 1963SOL    HW1 7721   0.273  11.815   8.581
 1963SOL    HW2 7722   0.356  11.689   8.589
 1964SOL     OW 7723   8.494   7.182   0.511
 1964SOL    HW1 7724   8.556   7.110   0.517
 1964SOL    HW2 7725   8.413   7.146   0.548
 1965SOL     OW 7726  12.359   1.406  10.433
 1965SOL    HW1 7727  12.314   1.338  10.483
 1965SOL    HW2 7728  12.386   1.470  10.498
 1966SOL     OW 7729   1.764   4.081   0.218
 1966SOL    HW1 7730   1.821   4.130   0.277
 1966SOL    HW2 7731   1.675   4.103   0.246
 1967SOL     OW 7732   7.738   7.176  12.171
 1967SOL    HW1 7733   7.735   7.098  12.115
 1967SOL    HW2 7734   7.796   7.151  12.243
 1968SOL     OW 7735  10.683  14.668   5.102
 1968SOL    HW1 7736  10.623  14.609   5.057
 1968SOL    HW2 7737  10.694  14.629   5.189
 1969SOL     OW 7738  11.456  10.651  14.251
 1969SOL    HW1 7739  11.377  10.638  14.199
 1969SOL    HW2 7740  11.428  10.634  14.341
 1970SOL     OW 7741   6.337   7.397  13.421
 1970SOL    HW1 7742   6.409   7.353  13.376
 1970SOL    HW2 7743   6.380   7.463  13.476
 1971SOL     OW 7744  10.599  14.540   0.292
 1971SOL    HW1 7745  10.515  14.511   0.326
 1971SOL    HW2 7746  10.579  14.580   0.207
 1972SOL     OW 7747  10.302   6.685   8.341
 1972SOL    HW1 7748  10.313   6.743   8.266
 1972SOL    HW2 7749  10.389   6.675   8.378
 1973SOL     OW 7750   5.002   3.500   9.370
 1973SOL    HW1 7751   4.957   3.478   9.288
 1973SOL    HW2 7752   5.093   3.475   9.354
 1974SOL     OW 7753  10.128  10.458   6.050
 1974SOL    HW1 7754  10.181  10.530   6.018
 1974SOL    HW2 7755  10.188  10.405   6.102
 1975SOL     OW 7756   2.126  10.700  11.736
 1975SOL    HW1 7757   2.197  10.637  11.722
 1975SOL    HW2 7758   2.054  10.648  11.772
 1976SOL     OW 7759  10.226  13.249   5.074
 1976SOL    HW1 7760  10.229  13.191   5.150
 1976SOL    HW2 7761  10.133  13.264   5.058
 1977SOL     OW 7762   7.303   4.875   9.331
 1977SOL    HW1 7763   7.370   4.893   9.397
 1977SOL    HW2 7764   7.350   4.828   9.262
 1978SOL     OW 7765   2.972  12.871   4.408
 1978SOL    HW1 7766   3.023  12.887   4.487
 1978SOL    HW2 7767   2.938  12.782   4.419
 1979SOL     OW 7768   2.399   8.984   6.441
 1979SOL    HW1 7769   2.305   8.969   6.442
 1979SOL    HW2 7770   2.425   8.970   6.350
 1980SOL     OW 7771  10.556   3.039  13.073
 1980SOL    HW1 7772  10.534   3.083  12.991
 1980SOL    HW2 7773  10.644   3.004  13.059
 1981SOL     OW 7774   4.838  10.388   3.108
 1981SOL    HW1 7775   4.925  10.425   3.097
 1981SOL    HW2 7776   4.797  10.442   3.174
 1982SOL     OW 7777   6.576   3.897  13.326
 1982SOL    HW1 7778   6.495   3.883  13.276
 1982SOL    HW2 7779   6.562   3.981  13.370
 1983SOL     OW 7780  12.227  12.024   8.219
 1983SOL    HW1 7781  12.207  12.107   8.175
 1983SOL    HW2 7782  12.226  12.047   8.312
 1984SOL     OW 7783   8.260  13.776  14.187
 1984SOL    HW1 7784   8.219  13.704  14.234
 1984SOL    HW2 7785   8.292  13.737  14.106
 1985SOL     OW 7786   3.469   4.629   9.107
 1985SOL    HW1 7787   3.398   4.618   9.044
 1985SOL    HW2 7788   3.535   4.564   9.082
 1986SOL     OW 7789   1.439   1.169  11.310
 1986SOL    HW1 7790   1.511   1.121  11.351
 1986SOL    HW2 7791   1.479   1.210  11.233
 1987SOL     OW 7792   1.332   2.442   8.794
 1987SOL    HW1 7793   1.328   2.493   8.713
 1987SOL    HW2 7794   1.266   2.483   8.850
 1988SOL     OW 7795   2.107   0.444  11.304
 1988SOL    HW1 7796   2.029   0.412  11.348
 1988SOL    HW2 7797   2.163   0.367  11.294
 1989SOL     OW 7798   6.902   7.759   1.181
 1989SOL    HW1 7799   6.912   7.780   1.089
 1989SOL    HW2 7800   6.819   7.800   1.206
 1990SOL     OW 7801   1.732  12.285  11.780
 1990SOL    HW1 7802   1.680  12.331  11.713
 1990SOL    HW2 7803   1.764  12.355  11.837
 1991SOL     OW 7804  10.588   7.310  11.862
 1991SOL    HW1 7805  10.680   7.293  11.880
 1991SOL    HW2 7806  10.589   7.367  11.785
 1992SOL     OW 7807   7.121  10.052  12.756
 1992SOL    HW1 7808   7.081   9.997  12.688
 1992SOL    HW2 7809   7.113  10.001  12.836
 1993SOL     OW 7810   2.304   5.725  13.358
 1993SOL    HW1 7811   2.352   5.721  13.276
 1993SOL    HW2 7812   2.292   5.819  13.375
 1994SOL     OW 7813   6.924  11.940   4.534
 1994SOL    HW1 7814   6.991  11.972   4.474
 1994SOL    HW2 7815   6.894  12.019   4.580
 1995SOL     OW 7816  12.605   3.944   3.039
 1995SOL    HW1 7817  12.612   3.936   3.134
 1995SOL    HW2 7818  12.515   3.975   3.024
 1996SOL     OW 7819  13.455   5.361   5.841
 1996SOL    HW1 7820  13.548   5.379   5.831
 1996SOL    HW2 7821  13.444   5.339   5.934
 1997SOL     OW 7822  11.945   9.049   7.991
 1997SOL    HW1 7823  11.939   9.028   8.085
 1997SOL    HW2 7824  12.012   8.990   7.957
 1998SOL     OW 7825   1.972   4.856  11.424
 1998SOL    HW1 7826   1.890   4.858  11.473
 1998SOL    HW2 7827   1.948   4.817  11.340
 1999SOL     OW 7828   2.761  11.085   9.566
 1999SOL    HW1 7829   2.812  11.004   9.554
 1999SOL    HW2 7830   2.676  11.065   9.526
 2000SOL     OW 7831   0.112   5.850   5.617
 2000SOL    HW1 7832   0.054   5.826   5.544
 2000SOL    HW2 7833   0.056   5.897   5.678
 2001SOL     OW 7834   2.367   7.308   1.980
 2001SOL    HW1 7835   2.410   7.252   1.915
 2001SOL    HW2 7836   2.430   7.315   2.051
 2002SOL     OW 7837  14.792  13.920   6.748
 2002SOL    HW1 7838  14.788  13.910   6.843
 2002SOL    HW2 7839  14.872  13.874   6.723
 2003SOL     OW 7840   8.739   9.685  11.218
 2003SOL    HW1 7841   8.811   9.732  11.176
 2003SOL    HW2 7842   8.689   9.753  11.263
 2004SOL     OW 7843  10.470   1.887  10.297
 2004SOL    HW1 7844  10.398   1.930  10.251
 2004SOL    HW2 7845  10.489   1.809  10.245
 2005SOL     OW 7846   8.405   5.029  14.869
 2005SOL    HW1 7847   8.411   5.044   0.081
 2005SOL    HW2 7848   8.312   5.041  14.849
 2006SOL     OW 7849  11.869  11.444  14.306
 2006SOL    HW1 7850  11.912  11.495  14.374
 2006SOL    HW2 7851  11.940  11.418  14.247
 2007SOL     OW 7852  13.941   1.652   1.253
 2007SOL    HW1 7853  13.989   1.668   1.172
 2007SOL    HW2 7854  14.006   1.667   1.322
 2008SOL     OW 7855  12.275   7.546   0.810
 2008SOL    HW1 7856  12.295   7.630   0.851
 2008SOL    HW2 7857  12.279   7.563   0.716
 2009SOL     OW 7858  11.061   3.176   4.186
 2009SOL    HW1 7859  11.085   3.084   4.174
 2009SOL    HW2 7860  11.093   3.198   4.274
 2010SOL     OW 7861   6.550   6.114  13.341
 2010SOL    HW1 7862   6.503   6.064  13.273
 2010SOL    HW2 7863   6.487   6.122  13.413
 2011SOL     OW 7864  12.558  12.940  12.414
 2011SOL    HW1 7865  12.590  13.027  12.389
 2011SOL    HW2 7866  12.534  12.950  12.507
 2012SOL     OW 7867   3.637   6.199  13.160
 2012SOL    HW1 7868   3.635   6.270  13.095
 2012SOL    HW2 7869   3.607   6.241  13.241
 2013SOL     OW 7870   2.516  14.408   5.653
 2013SOL    HW1 7871   2.579  14.430   5.722
 2013SOL    HW2 7872   2.524  14.479   5.590
 2014SOL     OW 7873  10.686   5.391  13.223
 2014SOL    HW1 7874  10.644   5.356  13.302
 2014SOL    HW2 7875  10.721   5.314  13.179
 2015SOL     OW 7876   0.250   0.484   5.065
 2015SOL    HW1 7877   0.240   0.394   5.097
 2015SOL    HW2 7878   0.328   0.517   5.108
 2016SOL     OW 7879   1.287   2.241   3.620
 2016SOL    HW1 7880   1.223   2.309   3.601
 2016SOL    HW2 7881   1.258   2.165   3.570
 2017SOL     OW 7882   0.538   8.471   4.098
 2017SOL    HW1 7883   0.525   8.512   4.013
 2017SOL    HW2 7884   0.532   8.543   4.161
 2018SOL     OW 7885  10.902  12.116  14.346
 2018SOL    HW1 7886  10.897  12.101  14.252
 2018SOL    HW2 7887  10.884  12.209  14.357
 2019SOL     OW 7888  11.247  10.871  12.930
 2019SOL    HW1 7889  11.308  10.942  12.910
 2019SOL    HW2 7890  11.189  10.868  12.854
 2020SOL     OW 7891   9.822   2.546   3.684
 2020SOL    HW1 7892   9.770   2.617   3.646
 2020SOL    HW2 7893   9.803   2.549   3.778
 2021SOL     OW 7894   4.840   4.427   7.106
 2021SOL    HW1 7895   4.922   4.471   7.082
 2021SOL    HW2 7896   4.816   4.377   7.028
 2022SOL     OW 7897  11.537   4.516   1.798
 2022SOL    HW1 7898  11.493   4.464   1.731
 2022SOL    HW2 7899  11.625   4.478   1.804
 2023SOL     OW 7900   3.751  12.015  11.086
 2023SOL    HW1 7901   3.778  12.065  11.009
 2023SOL    HW2 7902   3.665  11.980  11.063
 2024SOL     OW 7903   6.973  10.714   3.818
 2024SOL    HW1 7904   7.040  10.773   3.854
 2024SOL    HW2 7905   6.926  10.683   3.895
 2025SOL     OW 7906   0.459  12.188   6.618
 2025SOL    HW1 7907   0.400  12.127   6.664
 2025SOL    HW2 7908   0.547  12.152   6.633
 2026SOL     OW 7909   5.717   0.987  10.845
 2026SOL    HW1 7910   5.712   0.892  10.848
 2026SOL    HW2 7911   5.628   1.016  10.826
 2027SOL     OW 7912   1.593  11.669   6.153
 2027SOL    HW1 7913   1.526  11.677   6.222
 2027SOL    HW2 7914   1.544  11.673   6.071
 2028SOL     OW 7915   9.248   5.753   6.431
 2028SOL    HW1 7916   9.155   5.737   6.416
 2028SOL    HW2 7917   9.287   5.665   6.434
 2029SOL     OW 7918   5.474   2.825   4.649
 2029SOL    HW1 7919   5.379   2.829   4.653
 2029SOL    HW2 7920   5.498   2.891   4.584
 2030SOL     OW 7921   4.564   3.021   9.212
 2030SOL    HW1 7922   4.531   2.931   9.214
 2030SOL    HW2 7923   4.635   3.022   9.275
 2031SOL     OW 7924  10.932   8.400   1.061
 2031SOL    HW1 7925  10.854   8.443   1.095
 2031SOL    HW2 7926  11.005   8.444   1.105
 2032SOL     OW 7927   1.865  14.090  13.287
 2032SOL    HW1 7928   1.885  14.016  13.344
 2032SOL    HW2 7929   1.947  14.139  13.283
 2033SOL     OW 7930  14.297   7.328   2.050
 2033SOL    HW1 7931  14.272   7.279   1.972
 2033SOL    HW2 7932  14.245   7.288   2.121
 2034SOL     OW 7933   3.910   9.644  12.004
 2034SOL    HW1 7934   3.831   9.640  11.950
 2034SOL    HW2 7935   3.878   9.640  12.094
 2035SOL     OW 7936   1.422  10.856  13.578
 2035SOL    HW1 7937   1.362  10.834  13.650
 2035SOL    HW2 7938   1.365  10.884  13.507
 2036SOL     OW 7939   3.636   5.261   2.403
 2036SOL    HW1 7940   3.657   5.267   2.310
 2036SOL    HW2 7941   3.705   5.310   2.447
 2037SOL     OW 7942  11.836   5.687  12.547
 2037SOL    HW1 7943  11.811   5.708  12.637
 2037SOL    HW2 7944  11.853   5.593  12.547
 2038SOL     OW 7945   1.487  10.969   2.406
 2038SOL    HW1 7946   1.534  11.052   2.396
 2038SOL    HW2 7947   1.544  10.915   2.460
 2039SOL     OW 7948   2.623   0.964   4.968
 2039SOL    HW1 7949   2.597   0.980   5.059
 2039SOL    HW2 7950   2.677   1.040   4.945
 2040SOL     OW 7951   8.054   9.159   0.474
 2040SOL    HW1 7952   7.979   9.204   0.514
 2040SOL    HW2 7953   8.048   9.180   0.381
 2041SOL     OW 7954  11.900   3.637   5.958
 2041SOL    HW1 7955  11.872   3.657   5.869
 2041SOL    HW2 7956  11.925   3.545   5.956
 2042SOL     OW 7957   7.157   5.659   5.914
 2042SOL    HW1 7958   7.211   5.718   5.967
 2042SOL    HW2 7959   7.147   5.706   5.830
 2043SOL     OW 7960  12.013   2.396   3.544
 2043SOL    HW1 7961  12.041   2.463   3.607
 2043SOL    HW2 7962  12.056   2.421   3.462
 2044SOL     OW 7963   5.271  10.988  13.417
 2044SOL    HW1 7964   5.178  11.008  13.435
 2044SOL    HW2 7965   5.299  11.058  13.357
 2045SOL     OW 7966   8.470   6.090   0.424
 2045SOL    HW1 7967   8.375   6.098   0.417
 2045SOL    HW2 7968   8.486   6.080   0.518
 2046SOL     OW 7969   1.474   1.382   1.736
 2046SOL    HW1 7970   1.413   1.438   1.687
 2046SOL    HW2 7971   1.473   1.299   1.690
 2047SOL     OW 7972   1.965  12.965   9.536
 2047SOL    HW1 7973   1.907  13.010   9.476
 2047SOL    HW2 7974   1.910  12.901   9.581
 2048SOL     OW 7975  12.050   7.840   6.028
 2048SOL    HW1 7976  11.959   7.848   5.998
 2048SOL    HW2 7977  12.084   7.929   6.023
 2049SOL     OW 7978   6.217   9.593   9.081
 2049SOL    HW1 7979   6.220   9.687   9.098
 2049SOL    HW2 7980   6.125   9.569   9.094
 2050SOL     OW 7981  10.529   7.589  10.379
 2050SOL    HW1 7982  10.542   7.527  10.308
 2050SOL    HW2 7983  10.439   7.619  10.369
 2051SOL     OW 7984  14.145  13.593  11.582
 2051SOL    HW1 7985  14.220  13.550  11.623
 2051SOL    HW2 7986  14.153  13.685  11.607
 2052SOL     OW 7987   8.898   3.983  14.845
 2052SOL    HW1 7988   8.977   3.965   0.014
 2052SOL    HW2 7989   8.871   3.897  14.813
 2053SOL     OW 7990   3.405  13.512  10.824
 2053SOL    HW1 7991   3.421  13.422  10.796
 2053SOL    HW2 7992   3.331  13.505  10.884
 2054SOL     OW 7993   6.339  12.807   5.811
 2054SOL    HW1 7994   6.374  12.754   5.882
 2054SOL    HW2 7995   6.330  12.747   5.738
 2055SOL     OW 7996   2.221  11.097   0.897
 2055SOL    HW1 7997   2.241  11.139   0.813
 2055SOL    HW2 7998   2.132  11.064   0.886
 2056SOL     OW 7999   0.986  13.790  12.620
 2056SOL    HW1 8000   0.951  13.716  12.570
 2056SOL    HW2 8001   0.919  13.858  12.611
 2057SOL     OW 8002   1.044   7.638  14.677
 2057SOL    HW1 8003   1.010   7.548  14.676
 2057SOL    HW2 8004   1.131   7.631  14.637
 2058SOL     OW 8005  14.692   3.002  10.234
 2058SOL    HW1 8006  14.683   2.993  10.329
 2058SOL    HW2 8007  14.700   3.096  10.220
 2059SOL     OW 8008   5.654  10.309   7.650
 2059SOL    HW1 8009   5.596  10.322   7.575
 2059SOL    HW2 8010   5.741  10.298   7.612
 2060SOL     OW 8011  14.841   6.886  14.294
 2060SOL    HW1 8012   0.021   6.828  14.338
 2060SOL    HW2 8013  14.812   6.837  14.217
 2061SOL     OW 8014   7.323   3.289   3.720
 2061SOL    HW1 8015   7.351   3.370   3.764
 2061SOL    HW2 8016   7.255   3.316   3.660
 2062SOL     OW 8017  10.052   9.446  14.185
 2062SOL    HW1 8018  10.048   9.541  14.187
 2062SOL    HW2 8019  10.143   9.425  14.206
 2063SOL     OW 8020  11.062   3.616   7.430
 2063SOL    HW1 8021  10.975   3.584   7.455
 2063SOL    HW2 8022  11.044   3.689   7.371
 2064SOL     OW 8023  14.484   5.533  13.662
 2064SOL    HW1 8024  14.416   5.573  13.608
 2064SOL    HW2 8025  14.524   5.467  13.605
 2065SOL     OW 8026   6.414   3.011   7.177
 2065SOL    HW1 8027   6.375   2.925   7.164
 2065SOL    HW2 8028   6.353   3.072   7.134
 2066SOL     OW 8029   1.389   1.024   7.146
 2066SOL    HW1 8030   1.376   0.983   7.061
 2066SOL    HW2 8031   1.477   0.999   7.173
 2067SOL     OW 8032   5.742  10.595  13.668
 2067SOL    HW1 8033   5.686  10.598  13.590
 2067SOL    HW2 8034   5.800  10.520  13.654
 2068SOL     OW 8035   2.277  11.232   1.941
 2068SOL    HW1 8036   2.286  11.277   2.026
 2068SOL    HW2 8037   2.246  11.300   1.881
 2069SOL     OW 8038   8.567  14.685  10.542
 2069SOL    HW1 8039   8.662  14.690  10.541
 2069SOL    HW2 8040   8.544  14.632  10.466
 2070SOL     OW 8041  11.206   8.930   7.413
 2070SOL    HW1 8042  11.279   8.951   7.471
 2070SOL    HW2 8043  11.248   8.907   7.330
 2071SOL     OW 8044   5.409  11.069   7.460
 2071SOL    HW1 8045   5.436  11.004   7.395
 2071SOL    HW2 8046   5.359  11.019   7.525
 2072SOL     OW 8047   6.333  14.474   4.636
 2072SOL    HW1 8048   6.277  14.551   4.649
 2072SOL    HW2 8049   6.276  14.399   4.657
 2073SOL     OW 8050   2.099   6.731   4.660
 2073SOL    HW1 8051   2.122   6.641   4.684
 2073SOL    HW2 8052   2.161   6.753   4.590
 2074SOL     OW 8053   0.243  10.406  14.022
 2074SOL    HW1 8054   0.219  10.465  14.094
 2074SOL    HW2 8055   0.160  10.383  13.981
 2075SOL     OW 8056   0.174  11.164  12.930
 2075SOL    HW1 8057   0.239  11.208  12.875
 2075SOL    HW2 8058   0.113  11.125  12.868
 2076SOL     OW 8059   8.284   4.543   1.455
 2076SOL    HW1 8060   8.193   4.571   1.443
 2076SOL    HW2 8061   8.336   4.620   1.429
 2077SOL     OW 8062   8.738  11.968   0.321
 2077SOL    HW1 8063   8.801  11.896   0.311
 2077SOL    HW2 8064   8.751  12.022   0.243
 2078SOL     OW 8065  11.154   5.975   5.180
 2078SOL    HW1 8066  11.167   5.911   5.110
 2078SOL    HW2 8067  11.221   6.042   5.164
 2079SOL     OW 8068   3.304  10.033  13.589
 2079SOL    HW1 8069   3.278  10.100  13.526
 2079SOL    HW2 8070   3.289   9.950  13.543
 2080SOL     OW 8071  10.329   9.821   9.710
 2080SOL    HW1 8072  10.260   9.769   9.751
 2080SOL    HW2 8073  10.329   9.795   9.618
 2081SOL     OW 8074   0.771   2.999   4.591
 2081SOL    HW1 8075   0.688   3.027   4.629
 2081SOL    HW2 8076   0.832   3.070   4.609
 2082SOL     OW 8077  12.348   0.359  12.703
 2082SOL    HW1 8078  12.348   0.384  12.796
 2082SOL    HW2 8079  12.327   0.266  12.703
 2083SOL     OW 8080  12.996  14.677   0.134
 2083SOL    HW1 8081  12.986  14.608   0.068
 2083SOL    HW2 8082  13.065  14.734   0.100
 2084SOL     OW 8083  13.088   1.881   7.974
 2084SOL    HW1 8084  13.080   1.884   8.070
 2084SOL    HW2 8085  13.170   1.927   7.955
 2085SOL     OW 8086   4.030  11.420   8.876
 2085SOL    HW1 8087   3.939  11.448   8.877
 2085SOL    HW2 8088   4.062  11.438   8.964
 2086SOL     OW 8089   2.354  11.138   5.620
 2086SOL    HW1 8090   2.349  11.225   5.582
 2086SOL    HW2 8091   2.446  11.112   5.609
 2087SOL     OW 8092   3.061   3.342  11.915
 2087SOL    HW1 8093   3.113   3.268  11.947
 2087SOL    HW2 8094   3.117   3.384  11.850
 2088SOL     OW 8095   8.082   2.111   2.978
 2088SOL    HW1 8096   8.135   2.032   2.975
 2088SOL    HW2 8097   8.145   2.183   2.978
 2089SOL     OW 8098  11.011   7.135   6.090
 2089SOL    HW1 8099  10.916   7.131   6.099
 2089SOL    HW2 8100  11.043   7.055   6.132
 2090SOL     OW 8101   2.662   7.285   7.445
 2090SOL    HW1 8102   2.615   7.345   7.503
 2090SOL    HW2 8103   2.655   7.325   7.358
 2091SOL     OW 8104  13.295   3.662  13.253
 2091SOL    HW1 8105  13.366   3.725  13.263
 2091SOL    HW2 8106  13.249   3.690  13.174
 2092SOL     OW 8107  10.125  10.603   9.689
 2092SOL    HW1 8108  10.148  10.606   9.781
 2092SOL    HW2 8109  10.032  10.581   9.688
 2093SOL     OW 8110  10.814   3.534  13.959
 2093SOL    HW1 8111  10.720   3.547  13.944
 2093SOL    HW2 8112  10.853   3.542  13.872
 2094SOL     OW 8113  11.682   8.823   8.785
 2094SOL    HW1 8114  11.616   8.776   8.836
 2094SOL    HW2 8115  11.736   8.868   8.850
 2095SOL     OW 8116  10.598   7.886  12.767
 2095SOL    HW1 8117  10.673   7.943  12.753
 2095SOL    HW2 8118  10.536   7.910  12.698
 2096SOL     OW 8119  10.387   9.819   0.596
 2096SOL    HW1 8120  10.369   9.750   0.532
 2096SOL    HW2 8121  10.301   9.841   0.632
 2097SOL     OW 8122   0.930   8.918  10.625
 2097SOL    HW1 8123   0.991   8.887  10.692
 2097SOL    HW2 8124   0.939   9.014  10.627
 2098SOL     OW 8125   8.628   4.905  13.279
 2098SOL    HW1 8126   8.689   4.964  13.324
 2098SOL    HW2 8127   8.575   4.962  13.224
 2099SOL     OW 8128   9.715  14.217   8.232
 2099SOL    HW1 8129   9.767  14.287   8.192
 2099SOL    HW2 8130   9.631  14.221   8.187
 2100SOL     OW 8131   0.944   9.710   1.137
 2100SOL    HW1 8132   0.957   9.757   1.219
 2100SOL    HW2 8133   0.978   9.622   1.153
 2101SOL     OW 8134   0.677  13.353   6.641
 2101SOL    HW1 8135   0.698  13.334   6.732
 2101SOL    HW2 8136   0.614  13.425   6.644
 2102SOL     OW 8137   2.971   2.319   7.276
 2102SOL    HW1 8138   2.982   2.250   7.341
 2102SOL    HW2 8139   2.879   2.345   7.284
 2103SOL     OW 8140   0.025   8.978   6.397
 2103SOL    HW1 8141  14.859   8.895   6.395
 2103SOL    HW2 8142   0.078   8.976   6.317
 2104SOL     OW 8143   9.440   4.701   5.691
 2104SOL    HW1 8144   9.412   4.675   5.778
 2104SOL    HW2 8145   9.382   4.774   5.668
 2105SOL     OW 8146   0.490   9.123  10.009
 2105SOL    HW1 8147   0.565   9.064  10.020
 2105SOL    HW2 8148   0.432   9.077   9.949
 2106SOL     OW 8149   7.668   7.894   3.183
 2106SOL    HW1 8150   7.740   7.882   3.245
 2106SOL    HW2 8151   7.608   7.822   3.202
 2107SOL     OW 8152   3.959   2.341   8.901
 2107SOL    HW1 8153   3.985   2.313   8.813
 2107SOL    HW2 8154   4.041   2.371   8.941
 2108SOL     OW 8155   3.591  12.026  12.422
 2108SOL    HW1 8156   3.539  11.947  12.411
 2108SOL    HW2 8157   3.586  12.045  12.516
 2109SOL     OW 8158  13.040   9.188   4.452
 2109SOL    HW1 8159  13.105   9.238   4.501
 2109SOL    HW2 8160  13.004   9.251   4.390
 2110SOL     OW 8161   9.890   5.602  10.891
 2110SOL    HW1 8162   9.929   5.597  10.978
 2110SOL    HW2 8163   9.962   5.584  10.831
 2111SOL     OW 8164   4.915   7.520  12.755
 2111SOL    HW1 8165   4.911   7.426  12.736
 2111SOL    HW2 8166   4.930   7.524  12.850
 2112SOL     OW 8167   6.058   8.672   4.204
 2112SOL    HW1 8168   6.036   8.583   4.177
 2112SOL    HW2 8169   5.977   8.722   4.194
 2113SOL     OW 8170  12.677   1.624  12.816
 2113SOL    HW1 8171  12.674   1.631  12.720
 2113SOL    HW2 8172  12.660   1.532  12.834
 2114SOL     OW 8173   8.846  10.698   5.772
 2114SOL    HW1 8174   8.926  10.737   5.809
 2114SOL    HW2 8175   8.877  10.623   5.721
 2115SOL     OW 8176  14.094   0.694   5.832
 2115SOL    HW1 8177  14.143   0.740   5.763
 2115SOL    HW2 8178  14.010   0.672   5.790
 2116SOL     OW 8179  13.059   8.593   5.504
 2116SOL    HW1 8180  12.980   8.568   5.455
 2116SOL    HW2 8181  13.100   8.511   5.528
 2117SOL     OW 8182   0.810   3.507   8.669
 2117SOL    HW1 8183   0.775   3.441   8.609
 2117SOL    HW2 8184   0.807   3.589   8.619
 2118SOL     OW 8185   0.365   7.747   4.011
 2118SOL    HW1 8186   0.454   7.766   3.982
 2118SOL    HW2 8187   0.319   7.830   4.006
 2119SOL     OW 8188  12.933  11.348   5.752
 2119SOL    HW1 8189  12.962  11.435   5.727
 2119SOL    HW2 8190  12.941  11.347   5.847
 2120SOL     OW 8191   0.587  11.415  11.778
 2120SOL    HW1 8192   0.566  11.426  11.871
 2120SOL    HW2 8193   0.683  11.410  11.776
 2121SOL     OW 8194  14.615  11.974   8.650
 2121SOL    HW1 8195  14.660  11.999   8.730
 2121SOL    HW2 8196  14.574  11.889   8.670
 2122SOL     OW 8197   8.410   6.435   5.004
 2122SOL    HW1 8198   8.429   6.419   5.097
 2122SOL    HW2 8199   8.337   6.496   5.005
 2123SOL     OW 8200   9.820   8.352   5.253
 2123SOL    HW1 8201   9.820   8.304   5.336
 2123SOL    HW2 8202   9.745   8.316   5.205
 2124SOL     OW 8203   8.406   7.056   2.989
 2124SOL    HW1 8204   8.417   7.151   2.981
 2124SOL    HW2 8205   8.358   7.043   3.070
 2125SOL     OW 8206  11.991   6.371   5.069
 2125SOL    HW1 8207  11.929   6.438   5.098
 2125SOL    HW2 8208  11.967   6.354   4.978
 2126SOL     OW 8209   9.935  14.236   1.108
 2126SOL    HW1 8210   9.887  14.197   1.182
 2126SOL    HW2 8211   9.923  14.330   1.120
 2127SOL     OW 8212   3.767   0.807  13.042
 2127SOL    HW1 8213   3.726   0.805  12.956
 2127SOL    HW2 8214   3.729   0.732  13.088
 2128SOL     OW 8215  11.447  12.210   8.791
 2128SOL    HW1 8216  11.427  12.171   8.706
 2128SOL    HW2 8217  11.457  12.136   8.851
 2129SOL     OW 8218  10.458   3.020  11.760
 2129SOL    HW1 8219  10.470   2.925  11.761
 2129SOL    HW2 8220  10.470   3.045  11.668
 2130SOL     OW 8221   6.377   9.975   2.231
 2130SOL    HW1 8222   6.351   9.957   2.321
 2130SOL    HW2 8223   6.317   9.922   2.178
 2131SOL     OW 8224   9.750   8.832  10.390
 2131SOL    HW1 8225   9.794   8.903  10.344
 2131SOL    HW2 8226   9.698   8.788  10.323
 2132SOL     OW 8227  14.604  11.422  12.634
 2132SOL    HW1 8228  14.597  11.411  12.540
 2132SOL    HW2 8229  14.693  11.392  12.655
 2133SOL     OW 8230   6.906   9.412   9.626
 2133SOL    HW1 8231   6.842   9.341   9.618
 2133SOL    HW2 8232   6.868   9.485   9.578
 2134SOL     OW 8233   8.262   3.089   6.260
 2134SOL    HW1 8234   8.239   3.088   6.353
 2134SOL    HW2 8235   8.192   3.038   6.218
 2135SOL     OW 8236  10.708   4.544   0.698
 2135SOL    HW1 8237  10.732   4.622   0.748
 2135SOL    HW2 8238  10.721   4.471   0.759
 2136SOL     OW 8239   6.549   1.921   4.725
 2136SOL    HW1 8240   6.579   1.835   4.694
 2136SOL    HW2 8241   6.611   1.983   4.687
 2137SOL     OW 8242   0.997   4.223   5.579
 2137SOL    HW1 8243   1.092   4.235   5.573
 2137SOL    HW2 8244   0.964   4.308   5.609
 2138SOL     OW 8245   8.931  13.850  14.632
 2138SOL    HW1 8246   8.998  13.797  14.587
 2138SOL    HW2 8247   8.962  13.940  14.624
 2139SOL     OW 8248  12.622  13.745   1.310
 2139SOL    HW1 8249  12.686  13.676   1.327
 2139SOL    HW2 8250  12.628  13.803   1.386
 2140SOL     OW 8251  12.760   9.104   1.604
 2140SOL    HW1 8252  12.693   9.042   1.631
 2140SOL    HW2 8253  12.776   9.083   1.512
 2141SOL     OW 8254  13.867   0.408  11.491
 2141SOL    HW1 8255  13.868   0.486  11.548
 2141SOL    HW2 8256  13.817   0.343  11.541
 2142SOL     OW 8257   9.302   5.922   5.032
 2142SOL    HW1 8258   9.230   5.983   5.043
 2142SOL    HW2 8259   9.336   5.909   5.121
 2143SOL     OW 8260   3.573   6.275   2.224
 2143SOL    HW1 8261   3.579   6.356   2.274
 2143SOL    HW2 8262   3.527   6.300   2.144
 2144SOL     OW 8263  11.355  12.332   8.012
 2144SOL    HW1 8264  11.417  12.259   8.018
 2144SOL    HW2 8265  11.288  12.300   7.952
 2145SOL     OW 8266   6.595   7.964   7.653
 2145SOL    HW1 8267   6.637   8.009   7.580
 2145SOL    HW2 8268   6.637   7.998   7.731
 2146SOL     OW 8269   7.578   2.734  11.282
 2146SOL    HW1 8270   7.514   2.720  11.352
 2146SOL    HW2 8271   7.617   2.819  11.303
 2147SOL     OW 8272   4.125   0.755   5.580
 2147SOL    HW1 8273   4.128   0.698   5.502
 2147SOL    HW2 8274   4.043   0.803   5.571
 2148SOL     OW 8275  11.362  11.707  10.977
 2148SOL    HW1 8276  11.319  11.678  11.058
 2148SOL    HW2 8277  11.407  11.787  11.002
 2149SOL     OW 8278   9.640   4.018  13.392
 2149SOL    HW1 8279   9.715   4.051  13.441
 2149SOL    HW2 8280   9.676   3.989  13.309
 2150SOL     OW 8281  11.140  12.867   2.313
 2150SOL    HW1 8282  11.206  12.900   2.374
 2150SOL    HW2 8283  11.165  12.905   2.229
 2151SOL     OW 8284   7.308   8.979  11.674
 2151SOL    HW1 8285   7.355   8.901  11.701
 2151SOL    HW2 8286   7.284   8.964  11.583
 2152SOL     OW 8287   5.517  13.666   6.123
 2152SOL    HW1 8288   5.482  13.612   6.193
 2152SOL    HW2 8289   5.567  13.735   6.167
 2153SOL     OW 8290   7.335   2.980   5.247
 2153SOL    HW1 8291   7.337   3.019   5.334
 2153SOL    HW2 8292   7.336   2.885   5.264
 2154SOL     OW 8293   1.204   8.134  11.133
 2154SOL    HW1 8294   1.219   8.090  11.049
 2154SOL    HW2 8295   1.142   8.203  11.112
 2155SOL     OW 8296   6.317   4.518   9.504
 2155SOL    HW1 8297   6.228   4.489   9.520
 2155SOL    HW2 8298   6.369   4.438   9.505
 2156SOL     OW 8299  14.562  13.106  13.686
 2156SOL    HW1 8300  14.567  13.070  13.597
 2156SOL    HW2 8301  14.651  13.138  13.704
 2157SOL     OW 8302   6.911   4.332   9.478
 2157SOL    HW1 8303   6.870   4.295   9.400
 2157SOL    HW2 8304   6.967   4.402   9.443
 2158SOL     OW 8305  14.139   1.764   4.739
 2158SOL    HW1 8306  14.069   1.827   4.718
 2158SOL    HW2 8307  14.119   1.688   4.684
 2159SOL     OW 8308   6.162  14.784   3.969
 2159SOL    HW1 8309   6.145  14.701   4.013
 2159SOL    HW2 8310   6.159  14.849   4.040
 2160SOL     OW 8311   4.738   0.209   1.219
 2160SOL    HW1 8312   4.677   0.255   1.277
 2160SOL    HW2 8313   4.693   0.128   1.196
 2161SOL     OW 8314  10.757   9.553   5.659
 2161SOL    HW1 8315  10.823   9.610   5.699
 2161SOL    HW2 8316  10.783   9.548   5.567
 2162SOL     OW 8317   7.070  12.913   2.893
 2162SOL    HW1 8318   7.147  12.897   2.838
 2162SOL    HW2 8319   6.998  12.924   2.831
 2163SOL     OW 8320   8.823  12.610  12.457
 2163SOL    HW1 8321   8.776  12.673  12.402
 2163SOL    HW2 8322   8.855  12.662  12.531
 2164SOL     OW 8323   7.886   6.831   3.541
 2164SOL    HW1 8324   7.885   6.903   3.604
 2164SOL    HW2 8325   7.882   6.752   3.594
 2165SOL     OW 8326   7.501   3.876   5.769
 2165SOL    HW1 8327   7.453   3.808   5.722
 2165SOL    HW2 8328   7.549   3.830   5.837
 2166SOL     OW 8329   6.170   9.912  12.319
 2166SOL    HW1 8330   6.102   9.861  12.274
 2166SOL    HW2 8331   6.177   9.872  12.405
 2167SOL     OW 8332  14.135   0.183   0.342
 2167SOL    HW1 8333  14.189   0.181   0.262
 2167SOL    HW2 8334  14.152   0.098   0.383
 2168SOL     OW 8335   6.739   4.698   8.234
 2168SOL    HW1 8336   6.798   4.717   8.161
 2168SOL    HW2 8337   6.779   4.744   8.309
 2169SOL     OW 8338  14.632  13.984  12.502
 2169SOL    HW1 8339  14.585  13.904  12.478
 2169SOL    HW2 8340  14.701  13.955  12.561
 2170SOL     OW 8341  12.985  13.171   2.749
 2170SOL    HW1 8342  13.046  13.158   2.677
 2170SOL    HW2 8343  12.924  13.237   2.717
 2171SOL     OW 8344   8.147   0.359   7.296
 2171SOL    HW1 8345   8.209   0.288   7.282
 2171SOL    HW2 8346   8.062   0.316   7.306
 2172SOL     OW 8347   3.357  10.717  14.546
 2172SOL    HW1 8348   3.341  10.632  14.586
 2172SOL    HW2 8349   3.423  10.700  14.478
 2173SOL     OW 8350   9.072  13.455   7.651
 2173SOL    HW1 8351   9.134  13.509   7.602
 2173SOL    HW2 8352   8.996  13.512   7.665
 2174SOL     OW 8353   8.241   2.379  13.786
 2174SOL    HW1 8354   8.280   2.310  13.733
 2174SOL    HW2 8355   8.241   2.456  13.729
 2175SOL     OW 8356  12.696  13.184   9.931
 2175SOL    HW1 8357  12.717  13.261   9.984
 2175SOL    HW2 8358  12.637  13.217   9.863
 2176SOL     OW 8359   4.964   3.711   3.859
 2176SOL    HW1 8360   4.948   3.720   3.765
 2176SOL    HW2 8361   5.025   3.782   3.879
 2177SOL     OW 8362   8.051   6.939  10.571
 2177SOL    HW1 8363   8.038   7.032  10.587
 2177SOL    HW2 8364   7.963   6.902  10.573
 2178SOL     OW 8365   0.070   9.479   5.453
 2178SOL    HW1 8366   0.069   9.451   5.361
 2178SOL    HW2 8367  14.869   9.527   5.463
 2179SOL     OW 8368   8.832  11.863   0.704
 2179SOL    HW1 8369   8.743  11.895   0.692
 2179SOL    HW2 8370   8.872  11.872   0.617
 2180SOL     OW 8371   5.188  10.474   3.072
 2180SOL    HW1 8372   5.191  10.552   3.128
 2180SOL    HW2 8373   5.266  10.425   3.095
 2181SOL     OW 8374  13.384   1.508   9.506
 2181SOL    HW1 8375  13.322   1.565   9.459
 2181SOL    HW2 8376  13.458   1.566   9.527
 2182SOL     OW 8377   7.196   3.846   9.656
 2182SOL    HW1 8378   7.111   3.803   9.658
 2182SOL    HW2 8379   7.240   3.818   9.737
 2183SOL     OW 8380   0.022   7.379   3.441
 2183SOL    HW1 8381   0.076   7.404   3.365
 2183SOL    HW2 8382  14.844   7.453   3.453
 2184SOL     OW 8383   3.506   1.070  13.685
 2184SOL    HW1 8384   3.512   1.138  13.752
 2184SOL    HW2 8385   3.537   0.991  13.729
 2185SOL     OW 8386   6.968  12.151   6.787
 2185SOL    HW1 8387   6.892  12.161   6.729
 2185SOL    HW2 8388   6.930  12.126   6.872
 2186SOL     OW 8389  12.860   8.393   4.652
 2186SOL    HW1 8390  12.881   8.368   4.562
 2186SOL    HW2 8391  12.864   8.311   4.701
 2187SOL     OW 8392  11.134  13.144   3.532
 2187SOL    HW1 8393  11.131  13.234   3.564
 2187SOL    HW2 8394  11.120  13.090   3.610
 2188SOL     OW 8395   7.910   7.153   8.757
 2188SOL    HW1 8396   7.862   7.231   8.787
 2188SOL    HW2 8397   7.906   7.093   8.831
 2189SOL     OW 8398  11.469   2.076   0.745
 2189SOL    HW1 8399  11.560   2.094   0.721
 2189SOL    HW2 8400  11.474   2.009   0.813
 2190SOL     OW 8401   0.698   8.995   9.404
 2190SOL    HW1 8402   0.755   9.032   9.336
 2190SOL    HW2 8403   0.631   8.947   9.356
 2191SOL     OW 8404   5.309  12.370  10.588
 2191SOL    HW1 8405   5.229  12.326  10.562
 2191SOL    HW2 8406   5.351  12.395  10.505
 2192SOL     OW 8407  11.677  10.177   9.137
 2192SOL    HW1 8408  11.656  10.116   9.207
 2192SOL    HW2 8409  11.625  10.255   9.157
 2193SOL     OW 8410   1.682  12.142  11.498
 2193SOL    HW1 8411   1.605  12.189  11.467
 2193SOL    HW2 8412   1.648  12.082  11.564
 2194SOL     OW 8413   3.833  14.532  12.359
 2194SOL    HW1 8414   3.834  14.507  12.451
 2194SOL    HW2 8415   3.925  14.534  12.333
 2195SOL     OW 8416   5.794   2.219  12.332
 2195SOL    HW1 8417   5.889   2.211  12.344
 2195SOL    HW2 8418   5.757   2.148  12.384
 2196SOL     OW 8419   1.909   9.090   8.566
 2196SOL    HW1 8420   1.853   9.086   8.643
 2196SOL    HW2 8421   1.923   9.183   8.551
 2197SOL     OW 8422   6.558   8.571   5.711
 2197SOL    HW1 8423   6.594   8.658   5.691
 2197SOL    HW2 8424   6.634   8.520   5.740
 2198SOL     OW 8425   5.676  14.353  11.594
 2198SOL    HW1 8426   5.696  14.285  11.658
 2198SOL    HW2 8427   5.632  14.421  11.645
 2199SOL     OW 8428   0.060   3.266   0.078
 2199SOL    HW1 8429   0.117   3.202   0.035
 2199SOL    HW2 8430   0.114   3.344   0.086
 2200SOL     OW 8431  10.299   3.962   0.942
 2200SOL    HW1 8432  10.319   3.879   0.898
 2200SOL    HW2 8433  10.382   3.987   0.983
 2201SOL     OW 8434  10.981   0.581   2.945
 2201SOL    HW1 8435  11.036   0.518   2.992
 2201SOL    HW2 8436  10.905   0.530   2.917
 2202SOL     OW 8437   4.375   4.328   9.909
 2202SOL    HW1 8438   4.399   4.318   9.817
 2202SOL    HW2 8439   4.300   4.270   9.922
 2203SOL     OW 8440   6.180  11.625   7.617
 2203SOL    HW1 8441   6.262  11.588   7.649
 2203SOL    HW2 8442   6.115  11.599   7.682
 2204SOL     OW 8443  13.210   4.659   3.101
 2204SOL    HW1 8444  13.227   4.746   3.065
 2204SOL    HW2 8445  13.151   4.618   3.038
 2205SOL     OW 8446  13.339  12.449  14.514
 2205SOL    HW1 8447  13.302  12.505  14.447
 2205SOL    HW2 8448  13.426  12.425  14.481
 2206SOL     OW 8449   8.671   2.791   8.102
 2206SOL    HW1 8450   8.596   2.826   8.055
 2206SOL    HW2 8451   8.739   2.780   8.035
 2207SOL     OW 8452   5.848  12.937   6.105
 2207SOL    HW1 8453   5.883  12.915   6.191
 2207SOL    HW2 8454   5.889  13.021   6.083
 2208SOL     OW 8455   7.495   4.896   6.047
 2208SOL    HW1 8456   7.431   4.905   6.117
 2208SOL    HW2 8457   7.447   4.914   5.966
 2209SOL     OW 8458   7.721   0.021   9.266
 2209SOL    HW1 8459   7.814   0.046   9.268
 2209SOL    HW2 8460   7.677   0.098   9.230
 2210SOL     OW 8461  12.394   7.746   4.379
 2210SOL    HW1 8462  12.400   7.841   4.390
 2210SOL    HW2 8463  12.479   7.713   4.409
 2211SOL     OW 8464   4.763  10.052   4.140
 2211SOL    HW1 8465   4.738  10.136   4.103
 2211SOL    HW2 8466   4.844  10.029   4.094
 2212SOL     OW 8467   0.680  10.126  10.736
 2212SOL    HW1 8468   0.732  10.048  10.720
 2212SOL    HW2 8469   0.669  10.129  10.831
 2213SOL     OW 8470   6.098  10.243   0.092
 2213SOL    HW1 8471   6.014  10.284   0.113
 2213SOL    HW2 8472   6.139  10.228   0.178
 2214SOL     OW 8473  13.692   0.557  13.282
 2214SOL    HW1 8474  13.661   0.485  13.226
 2214SOL    HW2 8475  13.776   0.525  13.316
 2215SOL     OW 8476  12.673   4.455  14.592
 2215SOL    HW1 8477  12.763   4.424  14.598
 2215SOL    HW2 8478  12.682   4.551  14.587
 2216SOL     OW 8479  12.397  14.591   4.396
 2216SOL    HW1 8480  12.484  14.568   4.427
 2216SOL    HW2 8481  12.343  14.595   4.475
 2217SOL     OW 8482  11.345   5.093  12.038
 2217SOL    HW1 8483  11.311   5.145  11.965
 2217SOL    HW2 8484  11.381   5.014  11.998
 2218SOL     OW 8485   6.657   2.008   6.316
 2218SOL    HW1 8486   6.578   1.954   6.313
 2218SOL    HW2 8487   6.641   2.077   6.252
 2219SOL     OW 8488   3.227  10.017   5.228
 2219SOL    HW1 8489   3.244   9.944   5.168
 2219SOL    HW2 8490   3.313  10.050   5.251
 2220SOL     OW 8491   6.333   1.775   3.724
 2220SOL    HW1 8492   6.308   1.745   3.812
 2220SOL    HW2 8493   6.342   1.694   3.673
 2221SOL     OW 8494   5.505  11.122   2.839
 2221SOL    HW1 8495   5.482  11.057   2.905
 2221SOL    HW2 8496   5.500  11.075   2.756
 2222SOL     OW 8497   0.189   1.924   1.484
 2222SOL    HW1 8498   0.255   1.908   1.552
 2222SOL    HW2 8499   0.239   1.947   1.406
 2223SOL     OW 8500  12.403   3.815   8.155
 2223SOL    HW1 8501  12.314   3.842   8.175
 2223SOL    HW2 8502  12.458   3.879   8.200
 2224SOL     OW 8503   9.714   9.337   8.303
 2224SOL    HW1 8504   9.627   9.361   8.336
 2224SOL    HW2 8505   9.695   9.277   8.231
 2225SOL     OW 8506   4.775  14.858  13.560
 2225SOL    HW1 8507   4.751  14.824  13.647
 2225SOL    HW2 8508   4.845  14.800  13.531
 2226SOL     OW 8509   6.302  13.836  10.682
 2226SOL    HW1 8510   6.375  13.818  10.742
 2226SOL    HW2 8511   6.252  13.904  10.726
 2227SOL     OW 8512   3.567  14.313   3.818
 2227SOL    HW1 8513   3.659  14.305   3.793
 2227SOL    HW2 8514   3.530  14.226   3.800
 2228SOL     OW 8515   1.269   3.680   8.259
 2228SOL    HW1 8516   1.267   3.593   8.219
 2228SOL    HW2 8517   1.242   3.666   8.349
 2229SOL     OW 8518  10.085   0.493   3.036
 2229SOL    HW1 8519  10.143   0.467   2.964
 2229SOL    HW2 8520   9.999   0.503   2.995
 2230SOL     OW 8521  11.270   3.831  10.038
 2230SOL    HW1 8522  11.276   3.925  10.020
 2230SOL    HW2 8523  11.354   3.796  10.011
 2231SOL     OW 8524   7.992  12.862  14.491
 2231SOL    HW1 8525   8.039  12.942  14.516
 2231SOL    HW2 8526   7.917  12.894  14.440
 2232SOL     OW 8527  14.554   4.818  12.993
 2232SOL    HW1 8528  14.565   4.794  13.085
 2232SOL    HW2 8529  14.584   4.909  12.988
 2233SOL     OW 8530   6.841   1.644  14.876
 2233SOL    HW1 8531   6.894   1.627   0.072
 2233SOL    HW2 8532   6.751   1.654   0.028
 2234SOL     OW 8533   1.443   0.850   7.840
 2234SOL    HW1 8534   1.361   0.880   7.881
 2234SOL    HW2 8535   1.427   0.758   7.819
 2235SOL     OW 8536   6.161  10.341   7.853
 2235SOL    HW1 8537   6.193  10.290   7.779
 2235SOL    HW2 8538   6.166  10.432   7.823
 2236SOL     OW 8539   7.284  11.535   9.486
 2236SOL    HW1 8540   7.225  11.583   9.428
 2236SOL    HW2 8541   7.312  11.599   9.551
 2237SOL     OW 8542   0.878   0.112   1.435
 2237SOL    HW1 8543   0.890   0.182   1.499
 2237SOL    HW2 8544   0.958   0.061   1.440
 2238SOL     OW 8545   4.199  12.806   5.294
 2238SOL    HW1 8546   4.264  12.875   5.301
 2238SOL    HW2 8547   4.118  12.844   5.329
 2239SOL     OW 8548   1.625   5.119   7.561
 2239SOL    HW1 8549   1.649   5.056   7.493
 2239SOL    HW2 8550   1.708   5.140   7.604
 2240SOL     OW 8551   2.830   0.845   1.007
 2240SOL    HW1 8552   2.749   0.867   1.052
 2240SOL    HW2 8553   2.828   0.897   0.927
 2241SOL     OW 8554  10.083   7.046   3.483
 2241SOL    HW1 8555  10.060   7.133   3.516
 2241SOL    HW2 8556  10.000   7.009   3.453
 2242SOL     OW 8557  14.328  14.615  13.731
 2242SOL    HW1 8558  14.294  14.699  13.698
 2242SOL    HW2 8559  14.361  14.636  13.818
 2243SOL     OW 8560   3.735  12.355  10.638
 2243SOL    HW1 8561   3.681  12.301  10.581
 2243SOL    HW2 8562   3.734  12.441  10.597
 2244SOL     OW 8563   4.763   0.001  14.690
 2244SOL    HW1 8564   4.829  14.879  14.621
 2244SOL    HW2 8565   4.806   0.048  14.761
 2245SOL     OW 8566  14.154   5.472   1.143
 2245SOL    HW1 8567  14.187   5.542   1.087
 2245SOL    HW2 8568  14.064   5.459   1.114
 2246SOL     OW 8569   2.720   1.164   1.702
 2246SOL    HW1 8570   2.636   1.202   1.678
 2246SOL    HW2 8571   2.723   1.081   1.654
 2247SOL     OW 8572   7.143   4.616   5.120
 2247SOL    HW1 8573   7.109   4.659   5.198
 2247SOL    HW2 8574   7.066   4.602   5.065
 2248SOL     OW 8575  10.446   8.040   3.075
 2248SOL    HW1 8576  10.370   8.028   3.017
 2248SOL    HW2 8577  10.442   8.132   3.101
 2249SOL     OW 8578   6.382   9.016  13.004
 2249SOL    HW1 8579   6.317   9.043  13.069
 2249SOL    HW2 8580   6.429   9.096  12.981
 2250SOL     OW 8581   3.895  12.781   1.209
 2250SOL    HW1 8582   3.832  12.754   1.276
 2250SOL    HW2 8583   3.930  12.698   1.175
 2251SOL     OW 8584  14.077  13.617   9.345
 2251SOL    HW1 8585  14.112  13.693   9.299
 2251SOL    HW2 8586  14.088  13.637   9.438
 2252SOL     OW 8587  14.294   5.205   0.062
 2252SOL    HW1 8588  14.306   5.147  14.868
 2252SOL    HW2 8589  14.205   5.188   0.091
 2253SOL     OW 8590   9.231   2.550   6.996
 2253SOL    HW1 8591   9.274   2.582   7.075
 2253SOL    HW2 8592   9.288   2.578   6.925
 2254SOL     OW 8593   8.176  13.570  13.255
 2254SOL    HW1 8594   8.232  13.512  13.306
 2254SOL    HW2 8595   8.229  13.648  13.240
 2255SOL     OW 8596   1.055  10.298   8.087
 2255SOL    HW1 8597   0.965  10.331   8.098
 2255SOL    HW2 8598   1.051  10.247   8.006
 2256SOL     OW 8599   6.863   3.928   4.170
 2256SOL    HW1 8600   6.854   3.897   4.260
 2256SOL    HW2 8601   6.958   3.934   4.156
 2257SOL     OW 8602   9.663   2.108  10.298
 2257SOL    HW1 8603   9.679   2.094  10.205
 2257SOL    HW2 8604   9.737   2.066  10.342
 2258SOL     OW 8605   4.668   9.788  11.744
 2258SOL    HW1 8606   4.731   9.729  11.701
 2258SOL    HW2 8607   4.712   9.816  11.824
 2259SOL     OW 8608   0.956  11.858   7.797
 2259SOL    HW1 8609   0.906  11.776   7.808
 2259SOL    HW2 8610   0.919  11.898   7.719
 2260SOL     OW 8611   3.149  13.584  12.924
 2260SOL    HW1 8612   3.231  13.540  12.900
 2260SOL    HW2 8613   3.143  13.659  12.865
 2261SOL     OW 8614   8.075   6.432   2.555
 2261SOL    HW1 8615   8.025   6.456   2.477
 2261SOL    HW2 8616   8.009   6.413   2.622
 2262SOL     OW 8617  14.276  14.512   6.750
 2262SOL    HW1 8618  14.278  14.551   6.663
 2262SOL    HW2 8619  14.196  14.544   6.790
 2263SOL     OW 8620   7.609  11.572   0.505
 2263SOL    HW1 8621   7.601  11.478   0.493
 2263SOL    HW2 8622   7.698  11.585   0.538
 2264SOL     OW 8623  14.470   2.689  12.425
 2264SOL    HW1 8624  14.450   2.700  12.518
 2264SOL    HW2 8625  14.520   2.767  12.402
 2265SOL     OW 8626  10.175  13.090   1.845
 2265SOL    HW1 8627  10.241  13.134   1.791
 2265SOL    HW2 8628  10.109  13.060   1.782
 2266SOL     OW 8629   9.368   9.631  10.294
 2266SOL    HW1 8630   9.373   9.605  10.202
 2266SOL    HW2 8631   9.459   9.646  10.319
 2267SOL     OW 8632   1.273  14.240   3.847
 2267SOL    HW1 8633   1.284  14.335   3.838
 2267SOL    HW2 8634   1.317  14.203   3.771
 2268SOL     OW 8635   4.292   6.252   4.126
 2268SOL    HW1 8636   4.352   6.316   4.164
 2268SOL    HW2 8637   4.257   6.205   4.202
 2269SOL     OW 8638  13.716   2.538   2.884
 2269SOL    HW1 8639  13.743   2.513   2.796
 2269SOL    HW2 8640  13.780   2.603   2.911
 2270SOL     OW 8641   0.142   6.861   9.180
 2270SOL    HW1 8642   0.122   6.835   9.090
 2270SOL    HW2 8643   0.199   6.792   9.213
 2271SOL     OW 8644   2.080   7.480   9.390
 2271SOL    HW1 8645   2.174   7.467   9.389
 2271SOL    HW2 8646   2.050   7.438   9.471
 2272SOL     OW 8647   6.837   2.935  14.081
 2272SOL    HW1 8648   6.745   2.906  14.082
 2272SOL    HW2 8649   6.879   2.877  14.017
 2273SOL     OW 8650   5.336   2.419   9.623
 2273SOL    HW1 8651   5.343   2.488   9.689
 2273SOL    HW2 8652   5.243   2.395   9.624
 2274SOL     OW 8653  14.848   3.986   5.359
 2274SOL    HW1 8654  14.863   4.059   5.300
 2274SOL    HW2 8655  14.752   3.975   5.360
 2275SOL     OW 8656   1.990   8.660   4.739
 2275SOL    HW1 8657   1.905   8.702   4.726
 2275SOL    HW2 8658   1.978   8.571   4.707
 2276SOL     OW 8659   9.887   3.900  14.149
 2276SOL    HW1 8660   9.891   3.912  14.244
 2276SOL    HW2 8661   9.978   3.896  14.121
 2277SOL     OW 8662   7.544  10.789  10.636
 2277SOL    HW1 8663   7.592  10.737  10.571
 2277SOL    HW2 8664   7.507  10.862  10.586
 2278SOL     OW 8665  14.509   8.999  13.096
 2278SOL    HW1 8666  14.468   8.917  13.123
 2278SOL    HW2 8667  14.442   9.044  13.044
 2279SOL     OW 8668   4.982   2.717   4.881
 2279SOL    HW1 8669   4.933   2.680   4.954
 2279SOL    HW2 8670   4.934   2.796   4.857
 2280SOL     OW 8671  10.671   7.707  11.097
 2280SOL    HW1 8672  10.583   7.745  11.097
 2280SOL    HW2 8673  10.676   7.656  11.017
 2281SOL     OW 8674  13.042   0.545   1.656
 2281SOL    HW1 8675  13.096   0.481   1.701
 2281SOL    HW2 8676  13.103   0.613   1.627
 2282SOL     OW 8677   3.519   9.315   3.165
 2282SOL    HW1 8678   3.429   9.300   3.134
 2282SOL    HW2 8679   3.510   9.327   3.260
 2283SOL     OW 8680   3.678   7.625  14.063
 2283SOL    HW1 8681   3.625   7.546  14.057
 2283SOL    HW2 8682   3.674   7.649  14.155
 2284SOL     OW 8683  14.460   4.018  10.785
 2284SOL    HW1 8684  14.488   4.021  10.876
 2284SOL    HW2 8685  14.366   4.001  10.789
 2285SOL     OW 8686   1.365   5.502  10.280
 2285SOL    HW1 8687   1.276   5.522  10.252
 2285SOL    HW2 8688   1.411   5.586  10.276
 2286SOL     OW 8689  14.159  13.962   3.637
 2286SOL    HW1 8690  14.249  13.931   3.642
 2286SOL    HW2 8691  14.145  14.011   3.718
 2287SOL     OW 8692   2.875   4.838   1.432
 2287SOL    HW1 8693   2.852   4.800   1.517
 2287SOL    HW2 8694   2.792   4.871   1.397
 2288SOL     OW 8695   8.123   4.945  12.323
 2288SOL    HW1 8696   8.194   4.970  12.382
 2288SOL    HW2 8697   8.144   4.988  12.240
 2289SOL     OW 8698  14.497  13.173   7.552
 2289SOL    HW1 8699  14.459  13.098   7.505
 2289SOL    HW2 8700  14.463  13.249   7.506
 2290SOL     OW 8701  10.067   7.631   4.900
 2290SOL    HW1 8702  10.080   7.544   4.861
 2290SOL    HW2 8703   9.993   7.619   4.960
 2291SOL     OW 8704  12.605   3.923   8.293
 2291SOL    HW1 8705  12.638   3.998   8.342
 2291SOL    HW2 8706  12.663   3.916   8.217
 2292SOL     OW 8707  14.414   0.267   5.528
 2292SOL    HW1 8708  14.416   0.320   5.448
 2292SOL    HW2 8709  14.452   0.323   5.595
 2293SOL     OW 8710  14.336   1.760   2.268
 2293SOL    HW1 8711  14.262   1.707   2.298
 2293SOL    HW2 8712  14.319   1.847   2.304
 2294SOL     OW 8713   9.124   5.876   2.042
 2294SOL    HW1 8714   9.146   5.786   2.018
 2294SOL    HW2 8715   9.120   5.875   2.138
 2295SOL     OW 8716  12.852   6.366  14.612
 2295SOL    HW1 8717  12.853   6.444  14.668
 2295SOL    HW2 8718  12.944   6.337  14.609
 2296SOL     OW 8719   2.922  12.939   7.379
 2296SOL    HW1 8720   2.978  12.976   7.311
 2296SOL    HW2 8721   2.962  12.854   7.400
 2297SOL     OW 8722   5.561  12.273   1.108
 2297SOL    HW1 8723   5.582  12.261   1.201
 2297SOL    HW2 8724   5.583  12.190   1.067
 2298SOL     OW 8725   4.241  13.289   2.747
 2298SOL    HW1 8726   4.256  13.353   2.677
 2298SOL    HW2 8727   4.245  13.341   2.828
 2299SOL     OW 8728   9.266  10.950  11.151
 2299SOL    HW1 8729   9.357  10.938  11.122
 2299SOL    HW2 8730   9.233  11.019  11.094
 2300SOL     OW 8731   2.317   6.387  12.317
 2300SOL    HW1 8732   2.247   6.437  12.275
 2300SOL    HW2 8733   2.295   6.295  12.299
 2301SOL     OW 8734   0.707   3.945   9.521
 2301SOL    HW1 8735   0.719   4.006   9.593
 2301SOL    HW2 8736   0.655   3.995   9.457
 2302SOL     OW 8737  14.057   2.871   1.215
 2302SOL    HW1 8738  14.091   2.959   1.200
 2302SOL    HW2 8739  14.135   2.815   1.214
 2303SOL     OW 8740  12.146   3.932   4.343
 2303SOL    HW1 8741  12.097   4.006   4.306
 2303SOL    HW2 8742  12.236   3.963   4.349
 2304SOL     OW 8743   4.881   0.558   3.272
 2304SOL    HW1 8744   4.968   0.547   3.312
 2304SOL    HW2 8745   4.829   0.487   3.309
 2305SOL     OW 8746  11.413   8.825  13.447
 2305SOL    HW1 8747  11.347   8.883  13.409
 2305SOL    HW2 8748  11.487   8.832  13.387
 2306SOL     OW 8749  13.999   3.465   4.886
 2306SOL    HW1 8750  13.992   3.475   4.791
 2306SOL    HW2 8751  14.094   3.470   4.903
 2307SOL     OW 8752  13.247   1.065   6.651
 2307SOL    HW1 8753  13.246   1.073   6.746
 2307SOL    HW2 8754  13.157   1.042   6.628
 2308SOL     OW 8755   5.414  12.475   2.592
 2308SOL    HW1 8756   5.327  12.514   2.590
 2308SOL    HW2 8757   5.468  12.540   2.638
 2309SOL     OW 8758   2.644   7.793   9.767
 2309SOL    HW1 8759   2.726   7.768   9.725
 2309SOL    HW2 8760   2.637   7.736   9.843
 2310SOL     OW 8761   1.380   1.948   9.553
 2310SOL    HW1 8762   1.305   1.924   9.608
 2310SOL    HW2 8763   1.376   1.884   9.481
 2311SOL     OW 8764  10.671   7.545  14.359
 2311SOL    HW1 8765  10.726   7.569  14.285
 2311SOL    HW2 8766  10.639   7.457  14.338
 2312SOL     OW 8767   2.976   7.315   1.090
 2312SOL    HW1 8768   2.915   7.287   1.022
 2312SOL    HW2 8769   2.950   7.267   1.168
 2313SOL     OW 8770   0.187   0.378   6.678
 2313SOL    HW1 8771   0.212   0.316   6.747
 2313SOL    HW2 8772   0.227   0.461   6.704
 2314SOL     OW 8773   7.607   7.434  10.928
 2314SOL    HW1 8774   7.511   7.441  10.923
 2314SOL    HW2 8775   7.622   7.374  11.001
 2315SOL     OW 8776  12.549   3.575  10.131
 2315SOL    HW1 8777  12.605   3.632  10.184
 2315SOL    HW2 8778  12.592   3.490  10.133
 2316SOL     OW 8779   4.547   2.650  13.548
 2316SOL    HW1 8780   4.597   2.688  13.621
 2316SOL    HW2 8781   4.514   2.567  13.582
 2317SOL     OW 8782   7.772  14.627   4.957
 2317SOL    HW1 8783   7.804  14.643   4.868
 2317SOL    HW2 8784   7.749  14.534   4.958
 2318SOL     OW 8785   0.320  12.835  13.391
 2318SOL    HW1 8786   0.374  12.793  13.457
 2318SOL    HW2 8787   0.366  12.916  13.369
 2319SOL     OW 8788   5.051  11.127  11.995
 2319SOL    HW1 8789   5.071  11.126  11.901
 2319SOL    HW2 8790   5.059  11.219  12.020
 2320SOL     OW 8791  11.272   8.204   6.698
 2320SOL    HW1 8792  11.241   8.291   6.722
 2320SOL    HW2 8793  11.268   8.153   6.779
 2321SOL     OW 8794  12.558   6.130  14.605
 2321SOL    HW1 8795  12.591   6.182  14.532
 2321SOL    HW2 8796  12.489   6.183  14.644
 2322SOL     OW 8797   8.471   1.187   3.181
 2322SOL    HW1 8798   8.401   1.242   3.217
 2322SOL    HW2 8799   8.528   1.248   3.134
 2323SOL     OW 8800   9.616   1.736   7.552
 2323SOL    HW1 8801   9.679   1.695   7.492
 2323SOL    HW2 8802   9.635   1.830   7.546
 2324SOL     OW 8803   3.650   9.664   9.429
 2324SOL    HW1 8804   3.728   9.718   9.440
 2324SOL    HW2 8805   3.682   9.582   9.391
 2325SOL     OW 8806   4.940  10.514   7.505
 2325SOL    HW1 8807   5.019  10.555   7.538
 2325SOL    HW2 8808   4.940  10.426   7.543
 2326SOL     OW 8809   3.757   7.303  11.745
 2326SOL    HW1 8810   3.757   7.245  11.669
 2326SOL    HW2 8811   3.702   7.258  11.810
 2327SOL     OW 8812   2.844  10.265   6.260
 2327SOL    HW1 8813   2.751  10.285   6.248
 2327SOL    HW2 8814   2.848  10.219   6.343
 2328SOL     OW 8815  10.482   9.447   7.406
 2328SOL    HW1 8816  10.478   9.353   7.424
 2328SOL    HW2 8817  10.396   9.469   7.370
 2329SOL     OW 8818  14.320   0.336   4.580
 2329SOL    HW1 8819  14.296   0.292   4.662
 2329SOL    HW2 8820  14.250   0.313   4.519
 2330SOL     OW 8821   9.192   6.721  13.888
 2330SOL    HW1 8822   9.182   6.755  13.977
 2330SOL    HW2 8823   9.121   6.658  13.878
 2331SOL     OW 8824   9.708   3.341   4.441
 2331SOL    HW1 8825   9.659   3.371   4.365
 2331SOL    HW2 8826   9.695   3.246   4.442
 2332SOL     OW 8827   5.005   2.652   3.273
 2332SOL    HW1 8828   4.930   2.697   3.311
 2332SOL    HW2 8829   4.967   2.580   3.223
 2333SOL     OW 8830   8.343  11.366   3.725
 2333SOL    HW1 8831   8.338  11.331   3.814
 2333SOL    HW2 8832   8.412  11.431   3.728
 2334SOL     OW 8833   6.070   3.087   3.019
 2334SOL    HW1 8834   6.031   3.030   3.086
 2334SOL    HW2 8835   6.119   3.027   2.962
 2335SOL     OW 8836  13.208   1.997   2.517
 2335SOL    HW1 8837  13.271   1.956   2.577
 2335SOL    HW2 8838  13.232   2.090   2.517
 2336SOL     OW 8839   1.673   9.943  14.034
 2336SOL    HW1 8840   1.617  10.012  13.999
 2336SOL    HW2 8841   1.756   9.988  14.054
 2337SOL     OW 8842   8.473   1.266   8.706
 2337SOL    HW1 8843   8.454   1.174   8.722
 2337SOL    HW2 8844   8.566   1.275   8.726
 2338SOL     OW 8845  12.353   4.816   7.176
 2338SOL    HW1 8846  12.301   4.735   7.176
 2338SOL    HW2 8847  12.443   4.786   7.163
 2339SOL     OW 8848  12.257   3.390  14.769
 2339SOL    HW1 8849  12.309   3.470  14.772
 2339SOL    HW2 8850  12.287   3.344  14.690
 2340SOL     OW 8851   3.350  14.563   5.582
 2340SOL    HW1 8852   3.275  14.554   5.640
 2340SOL    HW2 8853   3.423  14.585   5.640
 2341SOL     OW 8854   7.519   6.389   9.174
 2341SOL    HW1 8855   7.535   6.462   9.115
 2341SOL    HW2 8856   7.537   6.311   9.122
 2342SOL     OW 8857   4.208   0.508   6.400
 2342SOL    HW1 8858   4.132   0.467   6.440
 2342SOL    HW2 8859   4.174   0.588   6.361
 2343SOL     OW 8860  14.598  13.443   1.510
 2343SOL    HW1 8861  14.597  13.531   1.471
 2343SOL    HW2 8862  14.564  13.456   1.599
 2344SOL     OW 8863   1.785   1.446   7.865
 2344SOL    HW1 8864   1.813   1.356   7.850
 2344SOL    HW2 8865   1.722   1.463   7.794
 2345SOL     OW 8866  10.665  11.827  11.859
 2345SOL    HW1 8867  10.624  11.823  11.945
 2345SOL    HW2 8868  10.728  11.898  11.866
 2346SOL     OW 8869  10.442   5.598  13.927
 2346SOL    HW1 8870  10.403   5.636  13.848
 2346SOL    HW2 8871  10.498   5.667  13.961
 2347SOL     OW 8872   0.911   1.901   4.672
 2347SOL    HW1 8873   0.973   1.830   4.653
 2347SOL    HW2 8874   0.847   1.896   4.602
 2348SOL     OW 8875  12.275  12.834   2.962
 2348SOL    HW1 8876  12.309  12.917   2.994
 2348SOL    HW2 8877  12.181  12.850   2.947
 2349SOL     OW 8878  12.798  14.242   1.729
 2349SOL    HW1 8879  12.815  14.334   1.708
 2349SOL    HW2 8880  12.738  14.245   1.803
 2350SOL     OW 8881   2.839   4.455  11.431
 2350SOL    HW1 8882   2.746   4.434  11.441
 2350SOL    HW2 8883   2.869   4.476  11.519
 2351SOL     OW 8884   6.510   4.810   1.321
 2351SOL    HW1 8885   6.508   4.842   1.231
 2351SOL    HW2 8886   6.435   4.751   1.327
 2352SOL     OW 8887   2.985   7.433  13.076
 2352SOL    HW1 8888   2.987   7.479  12.992
 2352SOL    HW2 8889   2.911   7.374  13.068
 2353SOL     OW 8890  13.704  10.332   1.401
 2353SOL    HW1 8891  13.746  10.381   1.473
 2353SOL    HW2 8892  13.775  10.281   1.362
 2354SOL     OW 8893   9.058  10.735  13.780
 2354SOL    HW1 8894   8.980  10.693  13.817
 2354SOL    HW2 8895   9.081  10.804  13.844
 2355SOL     OW 8896   7.653   3.300   9.699
 2355SOL    HW1 8897   7.563   3.291   9.731
 2355SOL    HW2 8898   7.646   3.361   9.625
 2356SOL     OW 8899   2.715   9.677   5.903
 2356SOL    HW1 8900   2.628   9.675   5.942
 2356SOL    HW2 8901   2.712   9.747   5.838
 2357SOL     OW 8902  14.607   3.588   0.382
 2357SOL    HW1 8903  14.602   3.656   0.449
 2357SOL    HW2 8904  14.654   3.516   0.425
 2358SOL     OW 8905  10.558   3.535   4.670
 2358SOL    HW1 8906  10.620   3.586   4.722
 2358SOL    HW2 8907  10.501   3.600   4.629
 2359SOL     OW 8908   6.243  10.346   6.078
 2359SOL    HW1 8909   6.236  10.421   6.137
 2359SOL    HW2 8910   6.257  10.271   6.137
 2360SOL     OW 8911   3.316  10.227   8.500
 2360SOL    HW1 8912   3.295  10.233   8.407
 2360SOL    HW2 8913   3.352  10.139   8.511
 2361SOL     OW 8914   0.033   2.440  10.328
 2361SOL    HW1 8915   0.077   2.511  10.281
 2361SOL    HW2 8916   0.070   2.443  10.416
 2362SOL     OW 8917  11.458   9.953   3.650
 2362SOL    HW1 8918  11.455  10.049   3.643
 2362SOL    HW2 8919  11.550   9.931   3.636
 2363SOL     OW 8920   9.958  13.410   6.842
 2363SOL    HW1 8921   9.977  13.326   6.884
 2363SOL    HW2 8922   9.877  13.395   6.793
 2364SOL     OW 8923   5.586  10.206  11.906
 2364SOL    HW1 8924   5.610  10.225  11.997
 2364SOL    HW2 8925   5.501  10.162  11.912
 2365SOL     OW 8926  11.155   8.680   8.402
 2365SOL    HW1 8927  11.150   8.627   8.481
 2365SOL    HW2 8928  11.224   8.744   8.420
 2366SOL     OW 8929   8.014  11.426   3.865
 2366SOL    HW1 8930   7.972  11.372   3.798
 2366SOL    HW2 8931   8.077  11.368   3.907
 2367SOL     OW 8932   0.747  14.032   3.832
 2367SOL    HW1 8933   0.714  14.081   3.757
 2367SOL    HW2 8934   0.839  14.056   3.838
 2368SOL     OW 8935   9.572  11.274   1.242
 2368SOL    HW1 8936   9.660  11.240   1.227
 2368SOL    HW2 8937   9.548  11.318   1.161
 2369SOL     OW 8938  13.335   7.428   1.206
 2369SOL    HW1 8939  13.303   7.345   1.242
 2369SOL    HW2 8940  13.372   7.404   1.121
 2370SOL     OW 8941   1.489  11.365   1.011
 2370SOL    HW1 8942   1.442  11.426   1.068
 2370SOL    HW2 8943   1.581  11.389   1.020
 2371SOL     OW 8944  14.282   6.016   8.559
 2371SOL    HW1 8945  14.326   6.001   8.642
 2371SOL    HW2 8946  14.351   6.050   8.501
 2372SOL     OW 8947   0.224   0.438  12.906
 2372SOL    HW1 8948   0.169   0.416  12.831
 2372SOL    HW2 8949   0.260   0.524  12.885
 2373SOL     OW 8950   4.053   5.519  11.302
 2373SOL    HW1 8951   4.127   5.578  11.290
 2373SOL    HW2 8952   4.071   5.475  11.386
 2374SOL     OW 8953   7.268   1.482   8.135
 2374SOL    HW1 8954   7.361   1.503   8.126
 2374SOL    HW2 8955   7.266   1.389   8.155
 2375SOL     OW 8956   5.952   6.813  12.631
 2375SOL    HW1 8957   6.005   6.805  12.552
 2375SOL    HW2 8958   5.922   6.905  12.631
 2376SOL     OW 8959   7.605   4.570  10.908
 2376SOL    HW1 8960   7.614   4.482  10.944
 2376SOL    HW2 8961   7.517   4.597  10.935
 2377SOL     OW 8962   0.572  12.411   4.914
 2377SOL    HW1 8963   0.541  12.500   4.931
 2377SOL    HW2 8964   0.530  12.386   4.832
 2378SOL     OW 8965   2.368   7.018  11.076
 2378SOL    HW1 8966   2.307   7.026  11.002
 2378SOL    HW2 8967   2.454   7.007  11.035
 2379SOL     OW 8968   8.228   9.260   3.125
 2379SOL    HW1 8969   8.152   9.294   3.078
 2379SOL    HW2 8970   8.297   9.325   3.109
 2380SOL     OW 8971  12.477  10.407  14.538
 2380SOL    HW1 8972  12.439  10.446  14.459
 2380SOL    HW2 8973  12.408  10.414  14.603
 2381SOL     OW 8974   8.965  12.090   2.154
 2381SOL    HW1 8975   8.967  11.996   2.135
 2381SOL    HW2 8976   8.898  12.125   2.096
 2382SOL     OW 8977   3.415   1.741  10.743
 2382SOL    HW1 8978   3.394   1.647  10.744
 2382SOL    HW2 8979   3.402   1.770  10.833
 2383SOL     OW 8980   9.075  12.581   8.769
 2383SOL    HW1 8981   9.084  12.651   8.834
 2383SOL    HW2 8982   9.164  12.563   8.740
 2384SOL     OW 8983  14.214   1.476   2.324
 2384SOL    HW1 8984  14.225   1.534   2.399
 2384SOL    HW2 8985  14.119   1.472   2.312
 2385SOL     OW 8986   0.518   5.650   1.268
 2385SOL    HW1 8987   0.551   5.621   1.353
 2385SOL    HW2 8988   0.513   5.745   1.274
 2386SOL     OW 8989   7.505   4.650   1.965
 2386SOL    HW1 8990   7.574   4.623   2.025
 2386SOL    HW2 8991   7.431   4.671   2.022
 2387SOL     OW 8992   4.686   8.334   2.540
 2387SOL    HW1 8993   4.728   8.321   2.455
 2387SOL    HW2 8994   4.693   8.249   2.584
 2388SOL     OW 8995   8.445  10.581  14.036
 2388SOL    HW1 8996   8.407  10.554  13.952
 2388SOL    HW2 8997   8.539  10.566  14.026
 2389SOL     OW 8998  10.100   2.628   6.848
 2389SOL    HW1 8999  10.011   2.646   6.877
 2389SOL    HW2 9000  10.155   2.684   6.903
 2390SOL     OW 9001  13.071   8.629   2.273
 2390SOL    HW1 9002  12.989   8.580   2.281
 2390SOL    HW2 9003  13.055   8.692   2.203
 2391SOL     OW 9004   0.360  10.148  13.114
 2391SOL    HW1 9005   0.434  10.200  13.081
 2391SOL    HW2 9006   0.337  10.090  13.041
 2392SOL     OW 9007   8.254   3.385   2.328
 2392SOL    HW1 9008   8.285   3.410   2.241
 2392SOL    HW2 9009   8.334   3.361   2.376
 2393SOL     OW 9010   0.799   2.178  12.628
 2393SOL    HW1 9011   0.711   2.151  12.655
 2393SOL    HW2 9012   0.840   2.098  12.594
 2394SOL     OW 9013   8.249   2.285   4.086
 2394SOL    HW1 9014   8.199   2.221   4.136
 2394SOL    HW2 9015   8.263   2.243   4.001
 2395SOL     OW 9016  11.120   4.905  14.417
 2395SOL    HW1 9017  11.058   4.955  14.471
 2395SOL    HW2 9018  11.197   4.961  14.411
 2396SOL     OW 9019   5.536   6.252  12.863
 2396SOL    HW1 9020   5.574   6.316  12.802
 2396SOL    HW2 9021   5.537   6.169  12.816
 2397SOL     OW 9022  13.840  11.971   3.752
 2397SOL    HW1 9023  13.927  11.955   3.789
 2397SOL    HW2 9024  13.838  12.065   3.734
 2398SOL     OW 9025  14.120  10.078   5.197
 2398SOL    HW1 9026  14.164  10.001   5.162
 2398SOL    HW2 9027  14.190  10.133   5.232
 2399SOL     OW 9028   2.738   8.442  11.582
 2399SOL    HW1 9029   2.746   8.363  11.636
 2399SOL    HW2 9030   2.826   8.480  11.583
 2400SOL     OW 9031  11.691  13.796   5.525
 2400SOL    HW1 9032  11.652  13.724   5.475
 2400SOL    HW2 9033  11.653  13.787   5.613
 2401SOL     OW 9034   7.924  14.240   4.431
 2401SOL    HW1 9035   7.964  14.171   4.378
 2401SOL    HW2 9036   7.899  14.307   4.368
 2402SOL     OW 9037   5.615   0.162   5.022
 2402SOL    HW1 9038   5.685   0.177   5.085
 2402SOL    HW2 9039   5.600   0.248   4.982
 2403SOL     OW 9040   0.190   1.426  12.717
 2403SOL    HW1 9041   0.114   1.469  12.676
 2403SOL    HW2 9042   0.172   1.431  12.811
 2404SOL     OW 9043  11.959  10.443   6.931
 2404SOL    HW1 9044  11.929  10.492   6.855
 2404SOL    HW2 9045  11.954  10.352   6.905
 2405SOL     OW 9046   7.873   9.090  12.482
 2405SOL    HW1 9047   7.777   9.094  12.485
 2405SOL    HW2 9048   7.892   8.999  12.458
 2406SOL     OW 9049  10.658   9.441  11.240
 2406SOL    HW1 9050  10.636   9.463  11.331
 2406SOL    HW2 9051  10.618   9.355  11.226
 2407SOL     OW 9052  13.083  14.123  14.187
 2407SOL    HW1 9053  13.004  14.101  14.236
 2407SOL    HW2 9054  13.092  14.218  14.197
 2408SOL     OW 9055  10.131   6.764  14.642
 2408SOL    HW1 9056  10.189   6.826  14.688
 2408SOL    HW2 9057  10.164   6.762  14.552
 2409SOL     OW 9058   6.907  14.685   1.796
 2409SOL    HW1 9059   6.864  14.600   1.799
 2409SOL    HW2 9060   6.999  14.667   1.812
 2410SOL     OW 9061   8.069   8.859   9.055
 2410SOL    HW1 9062   8.097   8.858   8.964
 2410SOL    HW2 9063   8.133   8.805   9.101
 2411SOL     OW 9064   4.453   2.924   3.037
 2411SOL    HW1 9065   4.471   2.900   2.946
 2411SOL    HW2 9066   4.377   2.873   3.062
 2412SOL     OW 9067   4.748   2.219   9.359
 2412SOL    HW1 9068   4.785   2.134   9.333
 2412SOL    HW2 9069   4.697   2.247   9.283
 2413SOL     OW 9070  14.126  11.366   1.352
 2413SOL    HW1 9071  14.118  11.275   1.382
 2413SOL    HW2 9072  14.043  11.383   1.307
 2414SOL     OW 9073   0.149  14.882   6.399
 2414SOL    HW1 9074   0.184  14.877   6.488
 2414SOL    HW2 9075   0.219  14.849   6.344
 2415SOL     OW 9076  12.970   5.710   7.096
 2415SOL    HW1 9077  13.002   5.648   7.162
 2415SOL    HW2 9078  12.978   5.796   7.138
 2416SOL     OW 9079   8.749  10.632   9.083
 2416SOL    HW1 9080   8.780  10.648   8.994
 2416SOL    HW2 9081   8.720  10.717   9.115
 2417SOL     OW 9082   6.939  11.239   1.189
 2417SOL    HW1 9083   6.849  11.238   1.157
 2417SOL    HW2 9084   6.989  11.192   1.122
 2418SOL     OW 9085  12.435  12.162   5.303
 2418SOL    HW1 9086  12.409  12.176   5.212
 2418SOL    HW2 9087  12.370  12.102   5.338
 2419SOL     OW 9088   6.931   9.107   0.606
 2419SOL    HW1 9089   6.946   9.181   0.665
 2419SOL    HW2 9090   6.974   9.033   0.649
 2420SOL     OW 9091  14.864  11.369   7.891
 2420SOL    HW1 9092  14.861  11.298   7.827
 2420SOL    HW2 9093  14.851  11.326   7.976
 2421SOL     OW 9094  10.332   5.327  10.782
 2421SOL    HW1 9095  10.279   5.393  10.826
 2421SOL    HW2 9096  10.387   5.377  10.721
 2422SOL     OW 9097   8.099   9.913  14.308
 2422SOL    HW1 9098   8.059   9.945  14.389
 2422SOL    HW2 9099   8.160   9.982  14.283
 2423SOL     OW 9100  10.880  12.371   5.889
 2423SOL    HW1 9101  10.911  12.371   5.799
 2423SOL    HW2 9102  10.875  12.279   5.913
 2424SOL     OW 9103   5.454   6.660   9.227
 2424SOL    HW1 9104   5.491   6.695   9.308
 2424SOL    HW2 9105   5.466   6.729   9.163
 2425SOL     OW 9106   1.937   7.623   4.286
 2425SOL    HW1 9107   2.005   7.661   4.341
 2425SOL    HW2 9108   1.920   7.689   4.219
 2426SOL     OW 9109  13.591   0.535   1.130
 2426SOL    HW1 9110  13.519   0.483   1.165
 2426SOL    HW2 9111  13.612   0.494   1.046
 2427SOL     OW 9112   2.902  14.762   2.621
 2427SOL    HW1 9113   2.885  14.778   2.713
 2427SOL    HW2 9114   2.974  14.821   2.599
 2428SOL     OW 9115   6.249   9.924  14.385
 2428SOL    HW1 9116   6.232  10.011  14.420
 2428SOL    HW2 9117   6.307   9.883  14.449
 2429SOL     OW 9118  10.802  12.871   6.520
 2429SOL    HW1 9119  10.756  12.820   6.453
 2429SOL    HW2 9120  10.765  12.959   6.511
 2430SOL     OW 9121   0.136   6.003   8.027
 2430SOL    HW1 9122   0.144   5.944   7.952
 2430SOL    HW2 9123   0.226   6.019   8.055
 2431SOL     OW 9124   6.556   2.729  10.215
 2431SOL    HW1 9125   6.498   2.801  10.190
 2431SOL    HW2 9126   6.637   2.746  10.166
 2432SOL     OW 9127   0.619   5.659   5.014
 2432SOL    HW1 9128   0.604   5.679   5.107
 2432SOL    HW2 9129   0.533   5.631   4.982
 2433SOL     OW 9130  10.893   8.885   4.238
 2433SOL    HW1 9131  10.830   8.821   4.270
 2433SOL    HW2 9132  10.860   8.970   4.267
 2434SOL     OW 9133   4.291  11.670   4.594
 2434SOL    HW1 9134   4.290  11.722   4.674
 2434SOL    HW2 9135   4.247  11.725   4.529
 2435SOL     OW 9136   8.069  14.559  14.444
 2435SOL    HW1 9137   8.036  14.606  14.521
 2435SOL    HW2 9138   8.012  14.483  14.435
 2436SOL     OW 9139   1.322   5.317  11.362
 2436SOL    HW1 9140   1.271   5.272  11.295
 2436SOL    HW2 9141   1.358   5.247  11.417
 2437SOL     OW 9142   8.682  13.105   2.995
 2437SOL    HW1 9143   8.663  13.041   3.064
 2437SOL    HW2 9144   8.643  13.067   2.916
 2438SOL     OW 9145  13.399  11.307   4.735
 2438SOL    HW1 9146  13.451  11.238   4.776
 2438SOL    HW2 9147  13.411  11.383   4.792
 2439SOL     OW 9148   1.347   2.404   7.183
 2439SOL    HW1 9149   1.311   2.482   7.142
 2439SOL    HW2 9150   1.275   2.368   7.235
 2440SOL     OW 9151   0.155  11.470  13.396
 2440SOL    HW1 9152   0.122  11.553  13.363
 2440SOL    HW2 9153   0.122  11.464  13.485
 2441SOL     OW 9154   4.467   4.915   6.886
 2441SOL    HW1 9155   4.407   4.912   6.961
 2441SOL    HW2 9156   4.433   4.986   6.831
 2442SOL     OW 9157  12.585   3.569  13.806
 2442SOL    HW1 9158  12.515   3.619  13.849
 2442SOL    HW2 9159  12.620   3.630  13.741
 2443SOL     OW 9160   5.655  14.119   7.379
 2443SOL    HW1 9161   5.743  14.128   7.417
 2443SOL    HW2 9162   5.595  14.133   7.452
 2444SOL     OW 9163  14.595   8.004   3.216
 2444SOL    HW1 9164  14.664   8.069   3.225
 2444SOL    HW2 9165  14.582   7.996   3.121
 2445SOL     OW 9166   8.945  11.341  10.418
 2445SOL    HW1 9167   9.036  11.372  10.408
 2445SOL    HW2 9168   8.916  11.380  10.501
 2446SOL     OW 9169   4.555   9.139  10.392
 2446SOL    HW1 9170   4.641   9.099  10.410
 2446SOL    HW2 9171   4.572   9.233  10.395
 2447SOL     OW 9172   7.380   2.701  11.474
 2447SOL    HW1 9173   7.352   2.769  11.412
 2447SOL    HW2 9174   7.300   2.677  11.520
 2448SOL     OW 9175   4.681   6.884  11.795
 2448SOL    HW1 9176   4.718   6.870  11.883
 2448SOL    HW2 9177   4.736   6.952  11.757
 2449SOL     OW 9178   5.781   7.348   4.536
 2449SOL    HW1 9179   5.700   7.398   4.525
 2449SOL    HW2 9180   5.778   7.316   4.626
 2450SOL     OW 9181   1.120   9.589   5.002
 2450SOL    HW1 9182   1.036   9.561   4.965
 2450SOL    HW2 9183   1.117   9.559   5.093
 2451SOL     OW 9184   6.280  11.277   5.557
 2451SOL    HW1 9185   6.272  11.194   5.604
 2451SOL    HW2 9186   6.326  11.335   5.617
 2452SOL     OW 9187  11.344   5.417  12.642
 2452SOL    HW1 9188  11.358   5.410  12.547
 2452SOL    HW2 9189  11.268   5.363  12.659
 2453SOL     OW 9190   5.241  12.007   2.412
 2453SOL    HW1 9191   5.249  11.919   2.449
 2453SOL    HW2 9192   5.262  12.066   2.484
 2454SOL     OW 9193   9.696   0.820  10.335
 2454SOL    HW1 9194   9.707   0.911  10.306
 2454SOL    HW2 9195   9.695   0.826  10.431
 2455SOL     OW 9196   5.464   4.737  13.412
 2455SOL    HW1 9197   5.558   4.756  13.417
 2455SOL    HW2 9198   5.453   4.694  13.327
 2456SOL     OW 9199   5.880  10.088   1.151
 2456SOL    HW1 9200   5.853  10.044   1.070
 2456SOL    HW2 9201   5.953  10.037   1.183
 2457SOL     OW 9202  11.098   1.830   0.004
 2457SOL    HW1 9203  11.099   1.764  14.816
 2457SOL    HW2 9204  11.006   1.856   0.011
 2458SOL     OW 9205   6.009   1.074   5.490
 2458SOL    HW1 9206   6.100   1.099   5.475
 2458SOL    HW2 9207   5.967   1.084   5.404
 2459SOL     OW 9208   3.807  13.539   3.239
 2459SOL    HW1 9209   3.813  13.444   3.237
 2459SOL    HW2 9210   3.724  13.556   3.285
 2460SOL     OW 9211   0.837   6.302   2.935
 2460SOL    HW1 9212   0.829   6.227   2.993
 2460SOL    HW2 9213   0.790   6.276   2.855
 2461SOL     OW 9214  10.028   2.093   3.972
 2461SOL    HW1 9215   9.937   2.110   3.997
 2461SOL    HW2 9216  10.076   2.091   4.054
 2462SOL     OW 9217   1.236   4.388  11.912
 2462SOL    HW1 9218   1.188   4.462  11.876
 2462SOL    HW2 9219   1.327   4.418  11.917
 2463SOL     OW 9220   4.763   9.275   6.555
 2463SOL    HW1 9221   4.808   9.191   6.548
 2463SOL    HW2 9222   4.794   9.326   6.480
 2464SOL     OW 9223  11.753   3.958   7.026
 2464SOL    HW1 9224  11.734   4.051   7.038
 2464SOL    HW2 9225  11.817   3.955   6.955
 2465SOL     OW 9226  12.506   0.570   1.748
 2465SOL    HW1 9227  12.554   0.611   1.676
 2465SOL    HW2 9228  12.561   0.584   1.825
 2466SOL     OW 9229   5.350   2.559   6.577
 2466SOL    HW1 9230   5.333   2.535   6.486
 2466SOL    HW2 9231   5.304   2.493   6.629
 2467SOL     OW 9232  12.949   5.918   6.618
 2467SOL    HW1 9233  13.042   5.936   6.605
 2467SOL    HW2 9234  12.921   5.982   6.684
 2468SOL     OW 9235   4.210  10.234  13.471
 2468SOL    HW1 9236   4.296  10.192  13.476
 2468SOL    HW2 9237   4.206  10.267  13.381
 2469SOL     OW 9238   9.108   3.959  11.202
 2469SOL    HW1 9239   9.064   3.876  11.220
 2469SOL    HW2 9240   9.138   3.989  11.287
 2470SOL     OW 9241  13.811   2.558   8.766
 2470SOL    HW1 9242  13.866   2.484   8.742
 2470SOL    HW2 9243  13.795   2.547   8.860
 2471SOL     OW 9244   0.451  12.966   3.951
 2471SOL    HW1 9245   0.408  12.950   3.867
 2471SOL    HW2 9246   0.477  12.879   3.981
 2472SOL     OW 9247   2.814   6.438   9.327
 2472SOL    HW1 9248   2.803   6.452   9.233
 2472SOL    HW2 9249   2.898   6.392   9.335
 2473SOL     OW 9250  12.692   3.819   9.503
 2473SOL    HW1 9251  12.727   3.901   9.468
 2473SOL    HW2 9252  12.689   3.760   9.428
 2474SOL     OW 9253   8.750  12.413   0.925
 2474SOL    HW1 9254   8.824  12.365   0.889
 2474SOL    HW2 9255   8.750  12.496   0.878
 2475SOL     OW 9256   0.258   5.789  13.202
 2475SOL    HW1 9257   0.204   5.863  13.173
 2475SOL    HW2 9258   0.344   5.827  13.218
 2476SOL     OW 9259   2.267   8.302  11.159
 2476SOL    HW1 9260   2.184   8.318  11.114
 2476SOL    HW2 9261   2.243   8.291  11.251
 2477SOL     OW 9262   1.778   8.726  11.684
 2477SOL    HW1 9263   1.787   8.643  11.637
 2477SOL    HW2 9264   1.722   8.705  11.759
 2478SOL     OW 9265   3.717  11.546   4.701
 2478SOL    HW1 9266   3.713  11.453   4.679
 2478SOL    HW2 9267   3.665  11.554   4.781
 2479SOL     OW 9268   0.183  14.514  13.780
 2479SOL    HW1 9269   0.263  14.463  13.782
 2479SOL    HW2 9270   0.211  14.602  13.755
 2480SOL     OW 9271   3.973   1.719   8.093
 2480SOL    HW1 9272   3.901   1.742   8.034
 2480SOL    HW2 9273   3.931   1.667   8.161
 2481SOL     OW 9274   7.770   2.810   4.413
 2481SOL    HW1 9275   7.802   2.817   4.503
 2481SOL    HW2 9276   7.805   2.887   4.368
 2482SOL     OW 9277   1.156   1.475   4.764
 2482SOL    HW1 9278   1.235   1.497   4.813
 2482SOL    HW2 9279   1.111   1.410   4.819
 2483SOL     OW 9280  12.415   8.751   0.801
 2483SOL    HW1 9281  12.352   8.754   0.729
 2483SOL    HW2 9282  12.362   8.746   0.880
 2484SOL     OW 9283   4.011  10.688   4.533
 2484SOL    HW1 9284   3.998  10.752   4.604
 2484SOL    HW2 9285   4.106  10.676   4.528
 2485SOL     OW 9286   8.853  10.201   7.548
 2485SOL    HW1 9287   8.889  10.172   7.465
 2485SOL    HW2 9288   8.763  10.228   7.528
 2486SOL     OW 9289  11.671   9.888   7.152
 2486SOL    HW1 9290  11.629   9.921   7.231
 2486SOL    HW2 9291  11.643   9.948   7.083
 2487SOL     OW 9292   2.514   9.861   4.230
 2487SOL    HW1 9293   2.486   9.827   4.316
 2487SOL    HW2 9294   2.533   9.953   4.247
 2488SOL     OW 9295   4.553  10.100   4.409
 2488SOL    HW1 9296   4.593  10.014   4.402
 2488SOL    HW2 9297   4.617  10.153   4.457
 2489SOL     OW 9298   7.421  12.943  13.698
 2489SOL    HW1 9299   7.403  12.956  13.605
 2489SOL    HW2 9300   7.336  12.921  13.736
 2490SOL     OW 9301   7.460  14.740   0.972
 2490SOL    HW1 9302   7.484  14.831   0.955
 2490SOL    HW2 9303   7.519  14.712   1.042
 2491SOL     OW 9304   6.380  14.731   7.635
 2491SOL    HW1 9305   6.337  14.647   7.620
 2491SOL    HW2 9306   6.324  14.795   7.590
 2492SOL     OW 9307  10.426   3.757  10.458
 2492SOL    HW1 9308  10.340   3.726  10.428
 2492SOL    HW2 9309  10.433   3.724  10.547
 2493SOL     OW 9310  13.168  14.118  11.764
 2493SOL    HW1 9311  13.213  14.034  11.774
 2493SOL    HW2 9312  13.210  14.159  11.689
 2494SOL     OW 9313   8.682  10.010   5.522
 2494SOL    HW1 9314   8.600  10.054   5.500
 2494SOL    HW2 9315   8.665   9.968   5.606
 2495SOL     OW 9316   4.037   5.257   2.523
 2495SOL    HW1 9317   4.036   5.172   2.567
 2495SOL    HW2 9318   3.996   5.317   2.585
 2496SOL     OW 9319   5.437  13.139   4.860
 2496SOL    HW1 9320   5.356  13.187   4.842
 2496SOL    HW2 9321   5.506  13.206   4.858
 2497SOL     OW 9322   2.416  10.000   2.646
 2497SOL    HW1 9323   2.334  10.040   2.674
 2497SOL    HW2 9324   2.465  10.072   2.606
 2498SOL     OW 9325   0.740  10.516   5.962
 2498SOL    HW1 9326   0.770  10.445   5.906
 2498SOL    HW2 9327   0.654  10.540   5.928
 2499SOL     OW 9328  14.082  14.681  10.556
 2499SOL    HW1 9329  14.081  14.667  10.461
 2499SOL    HW2 9330  14.075  14.593  10.593
 2500SOL     OW 9331   6.337  12.202   2.777
 2500SOL    HW1 9332   6.347  12.247   2.693
 2500SOL    HW2 9333   6.326  12.272   2.841
 2501SOL     OW 9334   5.752   7.331   7.134
 2501SOL    HW1 9335   5.685   7.263   7.132
 2501SOL    HW2 9336   5.707   7.410   7.104
 2502SOL     OW 9337   8.082   5.770   8.521
 2502SOL    HW1 9338   8.171   5.797   8.497
 2502SOL    HW2 9339   8.046   5.843   8.570
 2503SOL     OW 9340  14.358   5.634   8.441
 2503SOL    HW1 9341  14.335   5.703   8.503
 2503SOL    HW2 9342  14.435   5.667   8.396
 2504SOL     OW 9343  10.188   0.243   1.627
 2504SOL    HW1 9344  10.218   0.333   1.619
 2504SOL    HW2 9345  10.096   0.250   1.650
 2505SOL     OW 9346   5.554  13.499   0.299
 2505SOL    HW1 9347   5.459  13.505   0.287
 2505SOL    HW2 9348   5.585  13.452   0.221
 2506SOL     OW 9349   3.085   7.997  12.431
 2506SOL    HW1 9350   3.180   8.006  12.438
 2506SOL    HW2 9351   3.072   7.954  12.346
 2507SOL     OW 9352  14.547   5.357   8.204
 2507SOL    HW1 9353  14.545   5.329   8.113
 2507SOL    HW2 9354  14.628   5.320   8.239
 2508SOL     OW 9355  12.709   4.704  11.781
 2508SOL    HW1 9356  12.744   4.713  11.692
 2508SOL    HW2 9357  12.784   4.675  11.833
 2509SOL     OW 9358   0.735  10.174  14.158
 2509SOL    HW1 9359   0.778  10.092  14.132
 2509SOL    HW2 9360   0.691  10.153  14.240
 2510SOL     OW 9361   4.080   9.380   4.342
 2510SOL    HW1 9362   4.157   9.391   4.285
 2510SOL    HW2 9363   4.087   9.451   4.406
 2511SOL     OW 9364   1.983  10.026   8.073
 2511SOL    HW1 9365   1.922   9.959   8.106
 2511SOL    HW2 9366   1.935  10.108   8.081
 2512SOL     OW 9367   2.114   5.939   9.275
 2512SOL    HW1 9368   2.179   5.880   9.312
 2512SOL    HW2 9369   2.127   5.935   9.180
 2513SOL     OW 9370   7.755   5.003   4.383
 2513SOL    HW1 9371   7.805   4.936   4.336
 2513SOL    HW2 9372   7.732   4.962   4.466
 2514SOL     OW 9373   7.032   4.778   2.210
 2514SOL    HW1 9374   7.073   4.744   2.130
 2514SOL    HW2 9375   6.951   4.818   2.180
 2515SOL     OW 9376  12.652   7.144   0.675
 2515SOL    HW1 9377  12.639   7.171   0.766
 2515SOL    HW2 9378  12.695   7.059   0.681
 2516SOL     OW 9379  10.275   7.239  13.184
 2516SOL    HW1 9380  10.327   7.249  13.104
 2516SOL    HW2 9381  10.316   7.166  13.230
 2517SOL     OW 9382   2.560  13.841  10.827
 2517SOL    HW1 9383   2.471  13.862  10.856
 2517SOL    HW2 9384   2.599  13.926  10.806
 2518SOL     OW 9385   1.974   7.572   1.528
 2518SOL    HW1 9386   2.007   7.549   1.615
 2518SOL    HW2 9387   1.892   7.619   1.545
 2519SOL     OW 9388   6.366   6.955   6.752
 2519SOL    HW1 9389   6.356   7.005   6.671
 2519SOL    HW2 9390   6.321   6.872   6.735
 2520SOL     OW 9391   3.802   7.386  10.970
 2520SOL    HW1 9392   3.781   7.392  11.063
 2520SOL    HW2 9393   3.812   7.477  10.942
 2521SOL     OW 9394  10.716   2.148   2.991
 2521SOL    HW1 9395  10.772   2.157   3.069
 2521SOL    HW2 9396  10.776   2.123   2.921
 2522SOL     OW 9397   0.494   4.639   8.742
 2522SOL    HW1 9398   0.468   4.615   8.653
 2522SOL    HW2 9399   0.588   4.623   8.744
 2523SOL     OW 9400  10.210  11.936   0.275
 2523SOL    HW1 9401  10.292  11.903   0.314
 2523SOL    HW2 9402  10.181  12.005   0.335
 2524SOL     OW 9403   7.214  10.938   8.937
 2524SOL    HW1 9404   7.303  10.952   8.969
 2524SOL    HW2 9405   7.225  10.913   8.845
 2525SOL     OW 9406  10.396   8.581   8.049
 2525SOL    HW1 9407  10.447   8.564   7.970
 2525SOL    HW2 9408  10.305   8.585   8.020
 2526SOL     OW 9409  14.362   8.694   0.659
 2526SOL    HW1 9410  14.294   8.667   0.597
 2526SOL    HW2 9411  14.406   8.613   0.683
 2527SOL     OW 9412  13.510   2.404   3.429
 2527SOL    HW1 9413  13.578   2.349   3.391
 2527SOL    HW2 9414  13.553   2.488   3.445
 2528SOL     OW 9415  11.718   6.797   8.795
 2528SOL    HW1 9416  11.708   6.702   8.789
 2528SOL    HW2 9417  11.768   6.821   8.717
 2529SOL     OW 9418   7.561   9.182   0.903
 2529SOL    HW1 9419   7.547   9.100   0.856
 2529SOL    HW2 9420   7.570   9.248   0.833
 2530SOL     OW 9421  13.185   0.968   5.211
 2530SOL    HW1 9422  13.197   1.050   5.259
 2530SOL    HW2 9423  13.242   0.976   5.134
 2531SOL     OW 9424  14.381   2.173   3.711
 2531SOL    HW1 9425  14.472   2.194   3.732
 2531SOL    HW2 9426  14.340   2.157   3.796
 2532SOL     OW 9427  11.890   4.854   9.969
 2532SOL    HW1 9428  11.964   4.797   9.948
 2532SOL    HW2 9429  11.930   4.932  10.008
 2533SOL     OW 9430   1.707   1.929   1.004
 2533SOL    HW1 9431   1.678   2.015   1.032
 2533SOL    HW2 9432   1.634   1.871   1.026
 2534SOL     OW 9433  13.953   7.940   5.907
 2534SOL    HW1 9434  13.891   7.902   5.970
 2534SOL    HW2 9435  13.933   7.895   5.825
 2535SOL     OW 9436   3.350  10.741   2.248
 2535SOL    HW1 9437   3.388  10.656   2.270
 2535SOL    HW2 9438   3.423  10.802   2.251
 2536SOL     OW 9439   8.350  12.098   3.584
 2536SOL    HW1 9440   8.255  12.084   3.582
 2536SOL    HW2 9441   8.386  12.025   3.535
 2537SOL     OW 9442  10.625   1.683  14.302
 2537SOL    HW1 9443  10.573   1.697  14.382
 2537SOL    HW2 9444  10.693   1.750  14.307
 2538SOL     OW 9445   1.948   0.460   8.430
 2538SOL    HW1 9446   1.970   0.541   8.384
 2538SOL    HW2 9447   1.852   0.456   8.426
 2539SOL     OW 9448   4.975  14.292   0.194
 2539SOL    HW1 9449   5.062  14.330   0.205
 2539SOL    HW2 9450   4.988  14.221   0.131
 2540SOL     OW 9451   9.377   3.547   0.571
 2540SOL    HW1 9452   9.404   3.464   0.531
 2540SOL    HW2 9453   9.397   3.537   0.664
 2541SOL     OW 9454  12.506   4.325  14.761
 2541SOL    HW1 9455  12.474   4.368  14.841
 2541SOL    HW2 9456  12.572   4.385  14.727
 2542SOL     OW 9457  13.596   4.507  10.070
 2542SOL    HW1 9458  13.629   4.469   9.989
 2542SOL    HW2 9459  13.542   4.438  10.109
 2543SOL     OW 9460   4.117   9.079   9.909
 2543SOL    HW1 9461   4.101   8.995   9.952
 2543SOL    HW2 9462   4.079   9.070   9.822
 2544SOL     OW 9463   5.726  13.724   1.065
 2544SOL    HW1 9464   5.803  13.779   1.046
 2544SOL    HW2 9465   5.757  13.635   1.052
 2545SOL     OW 9466  12.261   1.074   1.104
 2545SOL    HW1 9467  12.349   1.106   1.084
 2545SOL    HW2 9468  12.204   1.148   1.086
 2546SOL     OW 9469  11.615   0.319  11.952
 2546SOL    HW1 9470  11.547   0.316  12.019
 2546SOL    HW2 9471  11.677   0.384  11.983
 2547SOL     OW 9472  11.695  13.019  14.729
 2547SOL    HW1 9473  11.703  12.999  14.636
 2547SOL    HW2 9474  11.721  13.111  14.736
 2548SOL     OW 9475   5.781  13.482   1.613
 2548SOL    HW1 9476   5.779  13.399   1.662
 2548SOL    HW2 9477   5.788  13.455   1.522
 2549SOL     OW 9478  12.889   0.598   4.971
 2549SOL    HW1 9479  12.924   0.542   5.040
 2549SOL    HW2 9480  12.844   0.669   5.017
 2550SOL     OW 9481  14.352   9.113   1.508
 2550SOL    HW1 9482  14.365   9.019   1.492
 2550SOL    HW2 9483  14.433   9.154   1.478
 2551SOL     OW 9484   6.447  11.490   9.650
 2551SOL    HW1 9485   6.496  11.439   9.715
 2551SOL    HW2 9486   6.360  11.449   9.648
 2552SOL     OW 9487  11.205   9.638   3.325
 2552SOL    HW1 9488  11.235   9.728   3.342
 2552SOL    HW2 9489  11.136   9.623   3.389
 2553SOL     OW 9490   9.943   0.278  14.176
 2553SOL    HW1 9491   9.885   0.354  14.173
 2553SOL    HW2 9492  10.015   0.306  14.232
 2554SOL     OW 9493   0.853   4.300   4.028
 2554SOL    HW1 9494   0.880   4.390   4.011
 2554SOL    HW2 9495   0.914   4.246   3.978
 2555SOL     OW 9496  11.113   5.693   8.377
 2555SOL    HW1 9497  11.072   5.725   8.297
 2555SOL    HW2 9498  11.043   5.690   8.442
 2556SOL     OW 9499   2.992   7.637  12.515
 2556SOL    HW1 9500   2.974   7.656  12.423
 2556SOL    HW2 9501   3.085   7.654  12.525
 2557SOL     OW 9502   1.578   9.827   8.707
 2557SOL    HW1 9503   1.618   9.749   8.667
 2557SOL    HW2 9504   1.548   9.796   8.793
 2558SOL     OW 9505   8.023   5.840   3.390
 2558SOL    HW1 9506   7.953   5.826   3.326
 2558SOL    HW2 9507   7.977   5.848   3.473
 2559SOL     OW 9508   5.322  10.072   5.752
 2559SOL    HW1 9509   5.377  10.036   5.821
 2559SOL    HW2 9510   5.364  10.044   5.670
 2560SOL     OW 9511  10.513   5.641   0.886
 2560SOL    HW1 9512  10.607   5.635   0.903
 2560SOL    HW2 9513  10.505   5.634   0.791
 2561SOL     OW 9514  12.022  14.798  10.976
 2561SOL    HW1 9515  12.093  14.734  10.976
 2561SOL    HW2 9516  12.034  14.848  10.895
 2562SOL     OW 9517  14.601  14.422  13.085
 2562SOL    HW1 9518  14.647  14.412  13.169
 2562SOL    HW2 9519  14.640  14.500  13.046
 2563SOL     OW 9520  14.475   1.746   7.305
 2563SOL    HW1 9521  14.513   1.805   7.370
 2563SOL    HW2 9522  14.388   1.726   7.339
 2564SOL     OW 9523   8.754   2.105   3.961
 2564SOL    HW1 9524   8.844   2.080   3.981
 2564SOL    HW2 9525   8.761   2.194   3.927
 2565SOL     OW 9526   4.141   7.019  13.158
 2565SOL    HW1 9527   4.131   7.022  13.253
 2565SOL    HW2 9528   4.232   6.993  13.144
 2566SOL     OW 9529  14.034   3.395   5.719
 2566SOL    HW1 9530  14.049   3.351   5.635
 2566SOL    HW2 9531  14.003   3.325   5.777
 2567SOL     OW 9532   1.328  14.078   9.241
 2567SOL    HW1 9533   1.322  14.139   9.168
 2567SOL    HW2 9534   1.259  14.107   9.302
 2568SOL     OW 9535   9.372   9.117   7.451
 2568SOL    HW1 9536   9.422   9.169   7.389
 2568SOL    HW2 9537   9.381   9.163   7.535
 2569SOL     OW 9538   6.655   7.563   1.894
 2569SOL    HW1 9539   6.594   7.592   1.962
 2569SOL    HW2 9540   6.705   7.642   1.872
 2570SOL     OW 9541   4.852   2.927  13.603
 2570SOL    HW1 9542   4.839   2.999  13.541
 2570SOL    HW2 9543   4.917   2.871  13.561
 2571SOL     OW 9544   8.346   4.777  10.348
 2571SOL    HW1 9545   8.411   4.848  10.352
 2571SOL    HW2 9546   8.371   4.726  10.272
 2572SOL     OW 9547   9.365   5.078   5.049
 2572SOL    HW1 9548   9.310   5.005   5.079
 2572SOL    HW2 9549   9.393   5.122   5.129
 2573SOL     OW 9550   7.954   8.078   0.049
 2573SOL    HW1 9551   7.873   8.034   0.074
 2573SOL    HW2 9552   7.926   8.146  14.869
 2574SOL     OW 9553   6.534   4.388   2.641
 2574SOL    HW1 9554   6.476   4.350   2.707
 2574SOL    HW2 9555   6.508   4.480   2.636
 2575SOL     OW 9556  10.931  10.172   9.475
 2575SOL    HW1 9557  10.876  10.095   9.466
 2575SOL    HW2 9558  10.888  10.239   9.421
 2576SOL     OW 9559   2.059  10.520  12.985
 2576SOL    HW1 9560   1.999  10.595  12.988
 2576SOL    HW2 9561   2.102  10.527  12.900
 2577SOL     OW 9562  10.550   7.120  13.906
 2577SOL    HW1 9563  10.488   7.093  13.973
 2577SOL    HW2 9564  10.526   7.211  13.887
 2578SOL     OW 9565  10.312   2.380   0.502
 2578SOL    HW1 9566  10.245   2.428   0.550
 2578SOL    HW2 9567  10.333   2.436   0.427
 2579SOL     OW 9568   9.673   6.371   3.797
 2579SOL    HW1 9569   9.762   6.356   3.767
 2579SOL    HW2 9570   9.678   6.361   3.892
 2580SOL     OW 9571   5.941   3.275   3.515
 2580SOL    HW1 9572   5.988   3.350   3.551
 2580SOL    HW2 9573   5.983   3.259   3.430
 2581SOL     OW 9574   7.834   3.278   3.828
 2581SOL    HW1 9575   7.811   3.285   3.736
 2581SOL    HW2 9576   7.755   3.247   3.871
 2582SOL     OW 9577   6.463   7.804  13.009
 2582SOL    HW1 9578   6.504   7.724  13.043
 2582SOL    HW2 9579   6.413   7.775  12.933
 2583SOL     OW 9580   5.874   8.624  14.327
 2583SOL    HW1 9581   5.955   8.673  14.337
 2583SOL    HW2 9582   5.806   8.684  14.356
 2584SOL     OW 9583   7.193   7.060  11.251
 2584SOL    HW1 9584   7.211   7.148  11.283
 2584SOL    HW2 9585   7.101   7.063  11.224
 2585SOL     OW 9586   2.320   2.141  12.606
 2585SOL    HW1 9587   2.394   2.081  12.596
 2585SOL    HW2 9588   2.301   2.171  12.517
 2586SOL     OW 9589   0.427   3.606   0.506
 2586SOL    HW1 9590   0.332   3.598   0.495
 2586SOL    HW2 9591   0.439   3.687   0.556
 2587SOL     OW 9592  11.108  13.573   7.874
 2587SOL    HW1 9593  11.086  13.523   7.796
 2587SOL    HW2 9594  11.203  13.577   7.875
 2588SOL     OW 9595   4.407   3.490  11.247
 2588SOL    HW1 9596   4.365   3.442  11.318
 2588SOL    HW2 9597   4.484   3.529  11.288
 2589SOL     OW 9598  11.586   5.956  12.724
 2589SOL    HW1 9599  11.591   6.044  12.762
 2589SOL    HW2 9600  11.495   5.929  12.739
 2590SOL     OW 9601   1.768   5.800   7.469
 2590SOL    HW1 9602   1.785   5.729   7.531
 2590SOL    HW2 9603   1.691   5.845   7.504
 2591SOL     OW 9604   2.456  10.189  11.572
 2591SOL    HW1 9605   2.470  10.150  11.658
 2591SOL    HW2 9606   2.426  10.116  11.517
 2592SOL     OW 9607   0.035   9.556   1.040
 2592SOL    HW1 9608   0.125   9.580   1.058
 2592SOL    HW2 9609   0.007   9.506   1.116
 2593SOL     OW 9610   3.712  14.740   6.374
 2593SOL    HW1 9611   3.710  14.648   6.345
 2593SOL    HW2 9612   3.779  14.742   6.442
 2594SOL     OW 9613   6.678   0.694   3.535
 2594SOL    HW1 9614   6.617   0.626   3.506
 2594SOL    HW2 9615   6.759   0.674   3.488
 2595SOL     OW 9616   7.835   9.885  11.463
 2595SOL    HW1 9617   7.901   9.878  11.393
 2595SOL    HW2 9618   7.880   9.932  11.534
 2596SOL     OW 9619   5.291   0.978  13.800
 2596SOL    HW1 9620   5.356   1.043  13.776
 2596SOL    HW2 9621   5.335   0.924  13.867
 2597SOL     OW 9622  10.339   9.470   7.093
 2597SOL    HW1 9623  10.372   9.415   7.022
 2597SOL    HW2 9624  10.417   9.500   7.139
 2598SOL     OW 9625   8.268  13.438   9.588
 2598SOL    HW1 9626   8.280  13.387   9.508
 2598SOL    HW2 9627   8.241  13.525   9.558
 2599SOL     OW 9628   8.402   3.651   0.689
 2599SOL    HW1 9629   8.365   3.569   0.723
 2599SOL    HW2 9630   8.333   3.687   0.634
 2600SOL     OW 9631   8.166  10.289   4.180
 2600SOL    HW1 9632   8.086  10.270   4.131
 2600SOL    HW2 9633   8.169  10.222   4.248
 2601SOL     OW 9634  11.168  12.936   2.047
 2601SOL    HW1 9635  11.256  12.928   2.011
 2601SOL    HW2 9636  11.147  13.029   2.038
 2602SOL     OW 9637   1.049   7.743  14.139
 2602SOL    HW1 9638   1.059   7.649  14.153
 2602SOL    HW2 9639   1.036   7.779  14.226
 2603SOL     OW 9640  10.967   7.033   2.384
 2603SOL    HW1 9641  10.986   7.120   2.350
 2603SOL    HW2 9642  11.032   6.975   2.345
 2604SOL     OW 9643  10.513  10.180   1.344
 2604SOL    HW1 9644  10.509  10.100   1.396
 2604SOL    HW2 9645  10.446  10.169   1.277
 2605SOL     OW 9646  10.497   7.204   7.667
 2605SOL    HW1 9647  10.483   7.290   7.628
 2605SOL    HW2 9648  10.544   7.154   7.601
 2606SOL     OW 9649   1.875  13.057   9.265
 2606SOL    HW1 9650   1.915  12.981   9.223
 2606SOL    HW2 9651   1.932  13.130   9.243
 2607SOL     OW 9652   5.783   4.606   5.564
 2607SOL    HW1 9653   5.824   4.656   5.494
 2607SOL    HW2 9654   5.855   4.559   5.606
 2608SOL     OW 9655   7.007   6.123   1.934
 2608SOL    HW1 9656   7.090   6.154   1.899
 2608SOL    HW2 9657   7.012   6.142   2.028
 2609SOL     OW 9658   2.914   7.187  10.969
 2609SOL    HW1 9659   2.912   7.154  11.059
 2609SOL    HW2 9660   3.007   7.199  10.951
 2610SOL     OW 9661   0.067  12.668   4.554
 2610SOL    HW1 9662  14.868  12.719   4.568
 2610SOL    HW2 9663   0.113  12.674   4.638
 2611SOL     OW 9664  10.762   9.433   9.162
 2611SOL    HW1 9665  10.843   9.402   9.122
 2611SOL    HW2 9666  10.693   9.404   9.102
 2612SOL     OW 9667   0.012   2.945   1.715
 2612SOL    HW1 9668  14.868   2.933   1.806
 2612SOL    HW2 9669   0.101   2.909   1.711
 2613SOL     OW 9670   8.092   1.575   4.697
 2613SOL    HW1 9671   8.000   1.582   4.722
 2613SOL    HW2 9672   8.104   1.481   4.681
 2614SOL     OW 9673   6.599  14.264  14.597
 2614SOL    HW1 9674   6.529  14.252  14.662
 2614SOL    HW2 9675   6.680  14.257  14.647
 2615SOL     OW 9676   3.661  13.655   6.114
 2615SOL    HW1 9677   3.649  13.676   6.206
 2615SOL    HW2 9678   3.756  13.660   6.100
 2616SOL     OW 9679   8.594  13.924  11.466
 2616SOL    HW1 9680   8.504  13.908  11.437
 2616SOL    HW2 9681   8.648  13.880  11.400
 2617SOL     OW 9682  13.095   9.054   2.814
 2617SOL    HW1 9683  13.185   9.082   2.798
 2617SOL    HW2 9684  13.041   9.131   2.796
 2618SOL     OW 9685  13.660  11.545   4.401
 2618SOL    HW1 9686  13.674  11.501   4.317
 2618SOL    HW2 9687  13.580  11.504   4.435
 2619SOL     OW 9688   1.936   5.562   8.565
 2619SOL    HW1 9689   1.851   5.562   8.611
 2619SOL    HW2 9690   1.916   5.599   8.479
 2620SOL     OW 9691  10.895   6.282   8.328
 2620SOL    HW1 9692  10.911   6.351   8.264
 2620SOL    HW2 9693  10.812   6.242   8.300
 2621SOL     OW 9694   2.876   7.447  13.975
 2621SOL    HW1 9695   2.815   7.472  13.905
 2621SOL    HW2 9696   2.898   7.529  14.019
 2622SOL     OW 9697   5.950   9.487  12.576
 2622SOL    HW1 9698   5.971   9.461  12.666
 2622SOL    HW2 9699   5.912   9.409  12.537
 2623SOL     OW 9700   7.718  13.204   4.201
 2623SOL    HW1 9701   7.634  13.249   4.209
 2623SOL    HW2 9702   7.733  13.166   4.287
 2624SOL     OW 9703   2.320   1.522   8.418
 2624SOL    HW1 9704   2.362   1.557   8.496
 2624SOL    HW2 9705   2.388   1.469   8.376
 2625SOL     OW 9706   6.608   3.444   1.271
 2625SOL    HW1 9707   6.626   3.538   1.274
 2625SOL    HW2 9708   6.535   3.432   1.331
 2626SOL     OW 9709  11.917   3.900  13.605
 2626SOL    HW1 9710  11.871   3.946  13.674
 2626SOL    HW2 9711  11.887   3.809  13.612
 2627SOL     OW 9712   0.048   2.932  12.239
 2627SOL    HW1 9713   0.117   2.951  12.303
 2627SOL    HW2 9714   0.038   3.014  12.190
 2628SOL     OW 9715   9.168  13.962   2.423
 2628SOL    HW1 9716   9.201  13.889   2.475
 2628SOL    HW2 9717   9.125  13.921   2.349
 2629SOL     OW 9718   7.209   9.835   0.199
 2629SOL    HW1 9719   7.161   9.785   0.132
 2629SOL    HW2 9720   7.153   9.911   0.216
 2630SOL     OW 9721  11.925   8.539  14.490
 2630SOL    HW1 9722  12.001   8.519  14.435
 2630SOL    HW2 9723  11.871   8.460  14.486
 2631SOL     OW 9724  12.900  10.781   1.603
 2631SOL    HW1 9725  12.845  10.850   1.566
 2631SOL    HW2 9726  12.853  10.700   1.586
 2632SOL     OW 9727   9.142   0.752  11.110
 2632SOL    HW1 9728   9.073   0.816  11.126
 2632SOL    HW2 9729   9.201   0.795  11.048
 2633SOL     OW 9730  13.567   1.626   2.214
 2633SOL    HW1 9731  13.556   1.718   2.240
 2633SOL    HW2 9732  13.598   1.583   2.293
 2634SOL     OW 9733   0.293   8.133   5.020
 2634SOL    HW1 9734   0.339   8.049   5.024
 2634SOL    HW2 9735   0.217   8.122   5.078
 2635SOL     OW 9736  12.093  13.917   3.495
 2635SOL    HW1 9737  12.019  13.879   3.542
 2635SOL    HW2 9738  12.140  13.968   3.561
 2636SOL     OW 9739   6.006   8.518  10.783
 2636SOL    HW1 9740   5.960   8.527  10.700
 2636SOL    HW2 9741   5.966   8.441  10.825
 2637SOL     OW 9742   5.083  12.126  10.527
 2637SOL    HW1 9743   5.069  12.122  10.433
 2637SOL    HW2 9744   5.055  12.215  10.552
 2638SOL     OW 9745   5.879   4.702   5.337
 2638SOL    HW1 9746   5.867   4.793   5.312
 2638SOL    HW2 9747   5.969   4.682   5.312
 2639SOL     OW 9748   1.813   2.088   0.131
 2639SOL    HW1 9749   1.755   2.164   0.130
 2639SOL    HW2 9750   1.892   2.118   0.085
 2640SOL     OW 9751  12.370   9.566  13.744
 2640SOL    HW1 9752  12.325   9.486  13.716
 2640SOL    HW2 9753  12.458   9.557  13.707
 2641SOL     OW 9754   4.383  13.544   0.315
 2641SOL    HW1 9755   4.442  13.608   0.355
 2641SOL    HW2 9756   4.326  13.597   0.259
 2642SOL     OW 9757   9.516  12.544  13.500
 2642SOL    HW1 9758   9.431  12.588  13.488
 2642SOL    HW2 9759   9.529  12.495  13.419
 2643SOL     OW 9760   6.976   2.935   6.430
 2643SOL    HW1 9761   6.888   2.901   6.422
 2643SOL    HW2 9762   7.028   2.882   6.369
 2644SOL     OW 9763   1.320   1.296  12.551
 2644SOL    HW1 9764   1.392   1.359  12.552
 2644SOL    HW2 9765   1.345   1.230  12.616
 2645SOL     OW 9766  13.490   6.608   4.432
 2645SOL    HW1 9767  13.570   6.557   4.416
 2645SOL    HW2 9768  13.513   6.666   4.505
 2646SOL     OW 9769   5.688  11.417   7.245
 2646SOL    HW1 9770   5.733  11.418   7.329
 2646SOL    HW2 9771   5.602  11.380   7.264
 2647SOL     OW 9772   1.039  13.280   1.883
 2647SOL    HW1 9773   1.114  13.304   1.830
 2647SOL    HW2 9774   1.064  13.305   1.972
 2648SOL     OW 9775  12.244   7.250  11.331
 2648SOL    HW1 9776  12.307   7.284  11.268
 2648SOL    HW2 9777  12.271   7.289  11.415
 2649SOL     OW 9778   4.334  14.474   0.845
 2649SOL    HW1 9779   4.363  14.565   0.848
 2649SOL    HW2 9780   4.414  14.422   0.847
 2650SOL     OW 9781   7.433   8.624  12.505
 2650SOL    HW1 9782   7.454   8.574  12.426
 2650SOL    HW2 9783   7.410   8.711  12.474
 2651SOL     OW 9784   8.876   5.914   2.933
 2651SOL    HW1 9785   8.794   5.890   2.974
 2651SOL    HW2 9786   8.918   5.973   2.995
 2652SOL     OW 9787  13.783   5.974   6.810
 2652SOL    HW1 9788  13.873   5.952   6.786
 2652SOL    HW2 9789  13.745   5.891   6.837
 2653SOL     OW 9790   2.059   8.314   0.150
 2653SOL    HW1 9791   1.993   8.256   0.113
 2653SOL    HW2 9792   2.010   8.393   0.177
 2654SOL     OW 9793   6.271  14.566   4.296
 2654SOL    HW1 9794   6.341  14.630   4.313
 2654SOL    HW2 9795   6.310  14.481   4.316
 2655SOL     OW 9796   6.826  14.729   3.140
 2655SOL    HW1 9797   6.808  14.667   3.070
 2655SOL    HW2 9798   6.824  14.675   3.220
 2656SOL     OW 9799  10.704   2.178   6.465
 2656SOL    HW1 9800  10.660   2.221   6.538
 2656SOL    HW2 9801  10.644   2.110   6.437
 2657SOL     OW 9802   1.404  12.759   9.786
 2657SOL    HW1 9803   1.399  12.664   9.780
 2657SOL    HW2 9804   1.423  12.777   9.878
 2658SOL     OW 9805   4.665   3.820   6.018
 2658SOL    HW1 9806   4.587   3.866   6.048
 2658SOL    HW2 9807   4.725   3.890   5.993
 2659SOL     OW 9808  12.372   0.005   2.837
 2659SOL    HW1 9809  12.361  14.813   2.778
 2659SOL    HW2 9810  12.305  14.874   2.905
 2660SOL     OW 9811   9.380   3.008  13.687
 2660SOL    HW1 9812   9.396   3.100  13.708
 2660SOL    HW2 9813   9.349   3.009  13.596
 2661SOL     OW 9814   8.521   8.203  14.763
 2661SOL    HW1 9815   8.483   8.271  14.709
 2661SOL    HW2 9816   8.477   8.123  14.735
 2662SOL     OW 9817  14.699   1.173   4.520
 2662SOL    HW1 9818  14.684   1.083   4.550
 2662SOL    HW2 9819  14.774   1.203   4.571
 2663SOL     OW 9820   6.164   5.630   0.074
 2663SOL    HW1 9821   6.071   5.643   0.090
 2663SOL    HW2 9822   6.168   5.561   0.008
 2664SOL     OW 9823   2.537   8.210   5.829
 2664SOL    HW1 9824   2.475   8.154   5.875
 2664SOL    HW2 9825   2.604   8.232   5.894
 2665SOL     OW 9826   0.604   9.214   7.371
 2665SOL    HW1 9827   0.539   9.144   7.362
 2665SOL    HW2 9828   0.680   9.184   7.321
 2666SOL     OW 9829  12.102   0.367   5.556
 2666SOL    HW1 9830  12.065   0.453   5.533
 2666SOL    HW2 9831  12.129   0.330   5.472
 2667SOL     OW 9832   2.887   8.215   5.533
 2667SOL    HW1 9833   2.806   8.172   5.561
 2667SOL    HW2 9834   2.858   8.286   5.476
 2668SOL     OW 9835   5.746   9.835   2.638
 2668SOL    HW1 9836   5.710   9.887   2.566
 2668SOL    HW2 9837   5.756   9.747   2.602
 2669SOL     OW 9838  13.041   7.091  13.181
 2669SOL    HW1 9839  13.006   7.002  13.183
 2669SOL    HW2 9840  13.053   7.114  13.273
 2670SOL     OW 9841  14.050  13.191   0.609
 2670SOL    HW1 9842  14.051  13.252   0.536
 2670SOL    HW2 9843  13.980  13.224   0.666
 2671SOL     OW 9844   1.908  10.145   2.027
 2671SOL    HW1 9845   1.981  10.083   2.021
 2671SOL    HW2 9846   1.917  10.201   1.950
 2672SOL     OW 9847   6.001   9.835  10.208
 2672SOL    HW1 9848   5.925   9.891  10.218
 2672SOL    HW2 9849   6.025   9.810  10.298
 2673SOL     OW 9850   8.472  10.660   5.005
 2673SOL    HW1 9851   8.457  10.569   5.031
 2673SOL    HW2 9852   8.390  10.705   5.023
 2674SOL     OW 9853   4.603   5.210   8.027
 2674SOL    HW1 9854   4.660   5.279   7.994
 2674SOL    HW2 9855   4.514   5.246   8.022
 2675SOL     OW 9856   1.074   4.354  14.511
 2675SOL    HW1 9857   1.036   4.271  14.482
 2675SOL    HW2 9858   1.013   4.387  14.576
 2676SOL     OW 9859   2.889  13.908   5.817
 2676SOL    HW1 9860   2.949  13.871   5.882
 2676SOL    HW2 9861   2.873  13.836   5.756
 2677SOL     OW 9862  10.317  12.031  13.824
 2677SOL    HW1 9863  10.297  11.986  13.907
 2677SOL    HW2 9864  10.329  11.959  13.761
 2678SOL     OW 9865   7.238   8.566   8.060
 2678SOL    HW1 9866   7.324   8.537   8.027
 2678SOL    HW2 9867   7.258   8.645   8.110
 2679SOL     OW 9868   3.266   6.528   7.070
 2679SOL    HW1 9869   3.179   6.568   7.068
 2679SOL    HW2 9870   3.263   6.460   7.002
 2680SOL     OW 9871  13.843   3.451   1.909
 2680SOL    HW1 9872  13.755   3.414   1.916
 2680SOL    HW2 9873  13.879   3.443   1.997
 2681SOL     OW 9874  10.417  11.008   4.368
 2681SOL    HW1 9875  10.430  11.013   4.463
 2681SOL    HW2 9876  10.324  10.989   4.358
 2682SOL     OW 9877   5.594   3.019   0.134
 2682SOL    HW1 9878   5.528   2.991   0.070
 2682SOL    HW2 9879   5.645   3.085   0.088
 2683SOL     OW 9880   3.342  13.043  11.114
 2683SOL    HW1 9881   3.331  13.017  11.206
 2683SOL    HW2 9882   3.381  13.131  11.118
 2684SOL     OW 9883  12.738  13.846   4.075
 2684SOL    HW1 9884  12.772  13.864   3.987
 2684SOL    HW2 9885  12.677  13.918   4.092
 2685SOL     OW 9886   5.976   7.042   3.152
 2685SOL    HW1 9887   6.016   7.093   3.222
 2685SOL    HW2 9888   6.044   6.979   3.127
 2686SOL     OW 9889   2.529   2.507   9.682
 2686SOL    HW1 9890   2.607   2.451   9.682
 2686SOL    HW2 9891   2.562   2.595   9.702
 2687SOL     OW 9892   9.232   6.784   5.236
 2687SOL    HW1 9893   9.189   6.701   5.256
 2687SOL    HW2 9894   9.322   6.761   5.216
 2688SOL     OW 9895   5.179  12.887   2.516
 2688SOL    HW1 9896   5.229  12.836   2.452
 2688SOL    HW2 9897   5.089  12.882   2.483
 2689SOL     OW 9898   2.213  12.422  11.846
 2689SOL    HW1 9899   2.198  12.334  11.880
 2689SOL    HW2 9900   2.243  12.409  11.757
 2690SOL     OW 9901  13.490   7.747  12.665
 2690SOL    HW1 9902  13.528   7.779  12.583
 2690SOL    HW2 9903  13.466   7.826  12.713
 2691SOL     OW 9904   2.973   6.952   6.929
 2691SOL    HW1 9905   2.995   6.906   7.010
 2691SOL    HW2 9906   3.054   6.994   6.902
 2692SOL     OW 9907   3.230   4.654   6.530
 2692SOL    HW1 9908   3.305   4.596   6.539
 2692SOL    HW2 9909   3.255   4.715   6.461
 2693SOL     OW 9910   0.507   2.367   0.619
 2693SOL    HW1 9911   0.522   2.441   0.560
 2693SOL    HW2 9912   0.413   2.350   0.612
 2694SOL     OW 9913   8.248   7.717   1.287
 2694SOL    HW1 9914   8.180   7.765   1.241
 2694SOL    HW2 9915   8.297   7.784   1.334
 2695SOL     OW 9916   5.564  10.452   7.122
 2695SOL    HW1 9917   5.558  10.510   7.046
 2695SOL    HW2 9918   5.631  10.492   7.178
 2696SOL     OW 9919  11.101   8.269   7.837
 2696SOL    HW1 9920  11.010   8.299   7.848
 2696SOL    HW2 9921  11.098   8.175   7.856
 2697SOL     OW 9922   5.457   6.030   9.590
 2697SOL    HW1 9923   5.432   5.940   9.612
 2697SOL    HW2 9924   5.467   6.074   9.675
 2698SOL     OW 9925   2.215   2.534  12.376
 2698SOL    HW1 9926   2.124   2.514  12.398
 2698SOL    HW2 9927   2.265   2.459  12.410
 2699SOL     OW 9928   8.894  13.231  11.862
 2699SOL    HW1 9929   8.989  13.238  11.851
 2699SOL    HW2 9930   8.882  13.175  11.938
 2700SOL     OW 9931  13.706   7.957   8.045
 2700SOL    HW1 9932  13.797   7.929   8.037
 2700SOL    HW2 9933  13.707   8.020   8.116
 2701SOL     OW 9934   6.413   7.040   7.194
 2701SOL    HW1 9935   6.339   7.088   7.156
 2701SOL    HW2 9936   6.429   6.969   7.131
 2702SOL     OW 9937  10.987   8.208  11.819
 2702SOL    HW1 9938  11.054   8.234  11.757
 2702SOL    HW2 9939  10.953   8.125  11.784
 2703SOL     OW 9940   4.515   4.642   4.609
 2703SOL    HW1 9941   4.424   4.617   4.625
 2703SOL    HW2 9942   4.512   4.738   4.608
 2704SOL     OW 9943   1.784   2.808   0.591
 2704SOL    HW1 9944   1.723   2.818   0.518
 2704SOL    HW2 9945   1.744   2.740   0.646
 2705SOL     OW 9946  13.724   8.806   1.341
 2705SOL    HW1 9947  13.738   8.826   1.249
 2705SOL    HW2 9948  13.800   8.753   1.367
 2706SOL     OW 9949  12.477   6.719   2.348
 2706SOL    HW1 9950  12.510   6.791   2.295
 2706SOL    HW2 9951  12.419   6.760   2.412
 2707SOL     OW 9952  14.328   1.256  13.062
 2707SOL    HW1 9953  14.357   1.243  12.972
 2707SOL    HW2 9954  14.346   1.348  13.080
 2708SOL     OW 9955   8.775   3.687  12.909
 2708SOL    HW1 9956   8.778   3.777  12.877
 2708SOL    HW2 9957   8.727   3.694  12.992
 2709SOL     OW 9958  13.061  14.756  10.727
 2709SOL    HW1 9959  13.011  14.838  10.736
 2709SOL    HW2 9960  13.036  14.705  10.803
 2710SOL     OW 9961   4.844   9.797   4.885
 2710SOL    HW1 9962   4.893   9.729   4.837
 2710SOL    HW2 9963   4.911   9.843   4.936
 2711SOL     OW 9964   5.378   7.832   4.396
 2711SOL    HW1 9965   5.402   7.915   4.437
 2711SOL    HW2 9966   5.455   7.776   4.408
 2712SOL     OW 9967  13.917   7.271  13.969
 2712SOL    HW1 9968  13.911   7.182  14.004
 2712SOL    HW2 9969  13.930   7.326  14.047
 2713SOL     OW 9970  13.299  11.369  10.177
 2713SOL    HW1 9971  13.262  11.323  10.252
 2713SOL    HW2 9972  13.235  11.437  10.157
 2714SOL     OW 9973   6.296   1.608  12.683
 2714SOL    HW1 9974   6.379   1.600  12.636
 2714SOL    HW2 9975   6.275   1.701  12.681
 2715SOL     OW 9976   9.300   5.120   5.387
 2715SOL    HW1 9977   9.355   5.093   5.460
 2715SOL    HW2 9978   9.318   5.214   5.377
 2716SOL     OW 9979   6.581  10.682  13.921
 2716SOL    HW1 9980   6.511  10.737  13.956
 2716SOL    HW2 9981   6.549  10.651  13.837
 2717SOL     OW 9982  13.656   5.121  12.696
 2717SOL    HW1 9983  13.605   5.098  12.774
 2717SOL    HW2 9984  13.719   5.049  12.687
 2718SOL     OW 9985   8.096  14.841  12.599
 2718SOL    HW1 9986   8.141  14.766  12.638
 2718SOL    HW2 9987   8.047  14.805  12.525
 2719SOL     OW 9988   7.729  11.059   3.608
 2719SOL    HW1 9989   7.807  11.033   3.560
 2719SOL    HW2 9990   7.762  11.101   3.687
 2720SOL     OW 9991   5.776   4.024   8.208
 2720SOL    HW1 9992   5.849   4.018   8.269
 2720SOL    HW2 9993   5.815   4.006   8.122
 2721SOL     OW 9994   2.778   3.177  14.803
 2721SOL    HW1 9995   2.745   3.255  14.848
 2721SOL    HW2 9996   2.851   3.148  14.858
 2722SOL     OW 9997   5.878   2.947  11.675
 2722SOL    HW1 9998   5.844   2.938  11.764
 2722SOL    HW2 9999   5.930   2.867  11.662
 2723SOL     OW10000  10.802   1.905   5.153
 2723SOL    HW110001  10.787   1.879   5.244
 2723SOL    HW210002  10.775   1.829   5.102
 2724SOL     OW10003  11.001   5.143   9.319
 2724SOL    HW110004  10.917   5.153   9.273
 2724SOL    HW210005  11.067   5.165   9.254
 2725SOL     OW10006   2.574   8.942   8.893
 2725SOL    HW110007   2.650   8.922   8.948
 2725SOL    HW210008   2.561   9.036   8.903
 2726SOL     OW10009   8.851  11.223  11.596
 2726SOL    HW110010   8.760  11.251  11.603
 2726SOL    HW210011   8.892  11.290  11.540
 2727SOL     OW10012  12.009   0.901   8.395
 2727SOL    HW110013  11.937   0.944   8.442
 2727SOL    HW210014  12.069   0.873   8.464
 2728SOL     OW10015   2.169  14.424   2.305
 2728SOL    HW110016   2.224  14.502   2.292
 2728SOL    HW210017   2.088  14.458   2.342
 2729SOL     OW10018   7.446   4.509  10.565
 2729SOL    HW110019   7.526   4.515  10.513
 2729SOL    HW210020   7.396   4.587  10.541
 2730SOL     OW10021  10.572   7.861   3.506
 2730SOL    HW110022  10.511   7.930   3.478
 2730SOL    HW210023  10.656   7.888   3.469
 2731SOL     OW10024   7.608  12.780   9.783
 2731SOL    HW110025   7.623  12.687   9.764
 2731SOL    HW210026   7.680  12.804   9.841
 2732SOL     OW10027   9.027   9.754   4.289
 2732SOL    HW110028   9.026   9.820   4.359
 2732SOL    HW210029   8.954   9.695   4.311
 2733SOL     OW10030   4.227   2.020   8.957
 2733SOL    HW110031   4.187   1.934   8.950
 2733SOL    HW210032   4.279   2.017   9.037
 2734SOL     OW10033   8.586   3.285   2.113
 2734SOL    HW110034   8.584   3.345   2.187
 2734SOL    HW210035   8.645   3.215   2.140
 2735SOL     OW10036   0.721   9.389   2.851
 2735SOL    HW110037   0.642   9.351   2.812
 2735SOL    HW210038   0.792   9.334   2.821
 2736SOL     OW10039   1.112   5.716   0.119
 2736SOL    HW110040   1.171   5.685   0.188
 2736SOL    HW210041   1.037   5.657   0.124
 2737SOL     OW10042   6.593   0.451  12.840
 2737SOL    HW110043   6.582   0.392  12.765
 2737SOL    HW210044   6.687   0.468  12.843
 2738SOL     OW10045  10.595   3.828  13.855
 2738SOL    HW110046  10.565   3.822  13.764
 2738SOL    HW210047  10.684   3.795  13.853
 2739SOL     OW10048  14.587   0.027   7.599
 2739SOL    HW110049  14.497  14.877   7.590
 2739SOL    HW210050  14.579   0.122   7.597
 2740SOL     OW10051  13.415   3.959   5.212
 2740SOL    HW110052  13.346   3.913   5.164
 2740SOL    HW210053  13.375   3.981   5.296
 2741SOL     OW10054   1.210   5.536   0.876
 2741SOL    HW110055   1.304   5.525   0.858
 2741SOL    HW210056   1.182   5.453   0.913
 2742SOL     OW10057  10.902  12.712   0.643
 2742SOL    HW110058  10.868  12.714   0.733
 2742SOL    HW210059  10.995  12.689   0.653
 2743SOL     OW10060   5.004  11.225   8.718
 2743SOL    HW110061   5.060  11.213   8.795
 2743SOL    HW210062   4.989  11.136   8.686
 2744SOL     OW10063   0.332  14.381   4.704
 2744SOL    HW110064   0.311  14.471   4.727
 2744SOL    HW210065   0.392  14.352   4.773
 2745SOL     OW10066   2.295   5.886  14.354
 2745SOL    HW110067   2.285   5.871  14.448
 2745SOL    HW210068   2.250   5.969  14.339
 2746SOL     OW10069   5.042   1.146  11.267
 2746SOL    HW110070   5.026   1.132  11.361
 2746SOL    HW210071   5.133   1.176  11.263
 2747SOL     OW10072   7.002   3.321   3.876
 2747SOL    HW110073   7.011   3.414   3.895
 2747SOL    HW210074   6.913   3.300   3.904
 2748SOL     OW10075   3.027   1.473   2.902
 2748SOL    HW110076   2.979   1.428   2.971
 2748SOL    HW210077   3.023   1.413   2.827
 2749SOL     OW10078  12.426   8.806   6.919
 2749SOL    HW110079  12.383   8.873   6.972
 2749SOL    HW210080  12.477   8.856   6.854
 2750SOL     OW10081   5.475   8.544   7.923
 2750SOL    HW110082   5.539   8.601   7.967
 2750SOL    HW210083   5.434   8.495   7.994
 2751SOL     OW10084  13.751   6.558  14.160
 2751SOL    HW110085  13.771   6.491  14.224
 2751SOL    HW210086  13.677   6.606  14.197
 2752SOL     OW10087   0.833   2.597   3.817
 2752SOL    HW110088   0.899   2.611   3.884
 2752SOL    HW210089   0.837   2.675   3.762
 2753SOL     OW10090  10.561   5.712   4.640
 2753SOL    HW110091  10.514   5.629   4.647
 2753SOL    HW210092  10.501   5.776   4.680
 2754SOL     OW10093  12.592  12.315   9.758
 2754SOL    HW110094  12.572  12.237   9.810
 2754SOL    HW210095  12.649  12.283   9.688
 2755SOL     OW10096  11.887   6.341  12.278
 2755SOL    HW110097  11.921   6.251  12.287
 2755SOL    HW210098  11.890   6.358  12.184
 2756SOL     OW10099  12.524   1.072   1.045
 2756SOL    HW110100  12.552   0.981   1.040
 2756SOL    HW210101  12.605   1.123   1.037
 2757SOL     OW10102  11.031  11.522   8.374
 2757SOL    HW110103  11.066  11.432   8.377
 2757SOL    HW210104  11.063  11.557   8.291
 2758SOL     OW10105  13.951   5.982  10.651
 2758SOL    HW110106  13.946   6.030  10.568
 2758SOL    HW210107  13.998   6.041  10.710
 2759SOL     OW10108   1.448   3.437   4.403
 2759SOL    HW110109   1.397   3.504   4.358
 2759SOL    HW210110   1.439   3.359   4.348
 2760SOL     OW10111   9.648  13.071   4.689
 2760SOL    HW110112   9.630  13.007   4.620
 2760SOL    HW210113   9.589  13.144   4.671
 2761SOL     OW10114  11.354   0.957   8.897
 2761SOL    HW110115  11.372   0.883   8.953
 2761SOL    HW210116  11.258   0.962   8.894
 2762SOL     OW10117  12.626   3.983   5.555
 2762SOL    HW110118  12.545   4.028   5.532
 2762SOL    HW210119  12.649   3.933   5.477
 2763SOL     OW10120   9.837  14.320   9.707
 2763SOL    HW110121   9.755  14.282   9.674
 2763SOL    HW210122   9.883  14.247   9.747
 2764SOL     OW10123   5.558   1.619  11.869
 2764SOL    HW110124   5.649   1.638  11.888
 2764SOL    HW210125   5.550   1.524  11.881
 2765SOL     OW10126   4.797   2.599   2.505
 2765SOL    HW110127   4.735   2.583   2.433
 2765SOL    HW210128   4.827   2.688   2.491
 2766SOL     OW10129   4.492   8.864  12.212
 2766SOL    HW110130   4.532   8.947  12.240
 2766SOL    HW210131   4.488   8.871  12.116
 2767SOL     OW10132   9.235  14.461  12.089
 2767SOL    HW110133   9.214  14.429  12.177
 2767SOL    HW210134   9.327  14.487  12.094
 2768SOL     OW10135   0.893  12.502  13.803
 2768SOL    HW110136   0.932  12.450  13.873
 2768SOL    HW210137   0.955  12.495  13.731
 2769SOL     OW10138   5.543   3.927  11.633
 2769SOL    HW110139   5.519   3.937  11.541
 2769SOL    HW210140   5.460   3.908  11.677
 2770SOL     OW10141   4.190  14.333   6.085
 2770SOL    HW110142   4.251  14.259   6.087
 2770SOL    HW210143   4.160  14.337   5.995
 2771SOL     OW10144   7.647   7.170  11.083
 2771SOL    HW110145   7.729   7.191  11.128
 2771SOL    HW210146   7.579   7.184  11.148
 2772SOL     OW10147   8.217  13.509  13.762
 2772SOL    HW110148   8.148  13.525  13.698
 2772SOL    HW210149   8.279  13.452  13.717
 2773SOL     OW10150  11.223   9.856   0.952
 2773SOL    HW110151  11.183   9.928   1.000
 2773SOL    HW210152  11.177   9.778   0.982
 2774SOL     OW10153   2.623  12.974  13.617
 2774SOL    HW110154   2.545  13.011  13.659
 2774SOL    HW210155   2.609  12.991  13.523
 2775SOL     OW10156   7.095   7.949   0.410
 2775SOL    HW110157   7.020   7.893   0.428
 2775SOL    HW210158   7.100   7.952   0.315
 2776SOL     OW10159   8.175   1.373   4.028
 2776SOL    HW110160   8.209   1.424   4.102
 2776SOL    HW210161   8.093   1.336   4.059
 2777SOL     OW10162  11.211  10.541   9.141
 2777SOL    HW110163  11.140  10.480   9.163
 2777SOL    HW210164  11.204  10.610   9.207
 2778SOL     OW10165  12.805   8.759   8.053
 2778SOL    HW110166  12.788   8.670   8.022
 2778SOL    HW210167  12.805   8.813   7.974
 2779SOL     OW10168   7.969   2.518  14.533
 2779SOL    HW110169   7.943   2.560  14.451
 2779SOL    HW210170   7.887   2.511  14.583
 2780SOL     OW10171   3.870   4.380   4.606
 2780SOL    HW110172   3.844   4.472   4.611
 2780SOL    HW210173   3.939   4.377   4.540
 2781SOL     OW10174   9.390   2.981  14.569
 2781SOL    HW110175   9.369   2.922  14.641
 2781SOL    HW210176   9.462   2.939  14.523
 2782SOL     OW10177   2.079   6.187   2.965
 2782SOL    HW110178   2.119   6.121   3.022
 2782SOL    HW210179   2.097   6.270   3.009
 2783SOL     OW10180  10.869  14.366   5.361
 2783SOL    HW110181  10.908  14.452   5.346
 2783SOL    HW210182  10.834  14.371   5.450
 2784SOL     OW10183   8.017  11.317  14.827
 2784SOL    HW110184   7.956  11.324  14.753
 2784SOL    HW210185   7.968  11.352   0.020
 2785SOL     OW10186   5.906   1.852  11.012
 2785SOL    HW110187   5.870   1.781  11.064
 2785SOL    HW210188   5.831   1.884  10.960
 2786SOL     OW10189   0.987   3.399   0.887
 2786SOL    HW110190   0.930   3.463   0.930
 2786SOL    HW210191   0.999   3.330   0.953
 2787SOL     OW10192  11.485   5.524   9.630
 2787SOL    HW110193  11.516   5.614   9.636
 2787SOL    HW210194  11.534   5.486   9.557
 2788SOL     OW10195   9.237  10.805   1.142
 2788SOL    HW110196   9.310  10.744   1.138
 2788SOL    HW210197   9.257  10.864   1.214
 2789SOL     OW10198  10.008   0.331   5.718
 2789SOL    HW110199   9.915   0.308   5.718
 2789SOL    HW210200  10.011   0.417   5.761
 2790SOL     OW10201   4.501   1.964   8.406
 2790SOL    HW110202   4.489   2.052   8.441
 2790SOL    HW210203   4.445   1.909   8.461
 2791SOL     OW10204  11.250  13.878  11.690
 2791SOL    HW110205  11.314  13.869  11.619
 2791SOL    HW210206  11.279  13.956  11.738
 2792SOL     OW10207   1.484   5.441   3.253
 2792SOL    HW110208   1.437   5.490   3.185
 2792SOL    HW210209   1.424   5.370   3.277
 2793SOL     OW10210  11.991  10.353  10.065
 2793SOL    HW110211  11.932  10.405  10.010
 2793SOL    HW210212  12.073  10.351  10.016
 2794SOL     OW10213   1.546   2.193   7.680
 2794SOL    HW110214   1.516   2.187   7.771
 2794SOL    HW210215   1.475   2.238   7.634
 2795SOL     OW10216   1.588  11.210  11.767
 2795SOL    HW110217   1.672  11.182  11.730
 2795SOL    HW210218   1.591  11.306  11.765
 2796SOL     OW10219   1.232  13.712   0.836
 2796SOL    HW110220   1.238  13.796   0.791
 2796SOL    HW210221   1.175  13.729   0.910
 2797SOL     OW10222   0.262   2.880  12.730
 2797SOL    HW110223   0.343   2.922  12.761
 2797SOL    HW210224   0.285   2.788  12.718
 2798SOL     OW10225   7.228   4.706  14.340
 2798SOL    HW110226   7.222   4.688  14.246
 2798SOL    HW210227   7.204   4.623  14.382
 2799SOL     OW10228   1.861   5.840   3.022
 2799SOL    HW110229   1.767   5.850   3.005
 2799SOL    HW210230   1.865   5.793   3.105
 2800SOL     OW10231   4.994   7.552  11.018
 2800SOL    HW110232   4.998   7.489  11.090
 2800SOL    HW210233   5.086   7.572  10.999
 2801SOL     OW10234   7.863   0.578   8.950
 2801SOL    HW110235   7.955   0.603   8.964
 2801SOL    HW210236   7.826   0.652   8.902
 2802SOL     OW10237   0.929   0.627  13.935
 2802SOL    HW110238   0.878   0.692  13.983
 2802SOL    HW210239   0.970   0.573  14.003
 2803SOL     OW10240  13.078   5.369   5.985
 2803SOL    HW110241  13.029   5.417   5.918
 2803SOL    HW210242  13.014   5.309   6.023
 2804SOL     OW10243   5.367   6.794   8.665
 2804SOL    HW110244   5.404   6.842   8.591
 2804SOL    HW210245   5.376   6.702   8.641
 2805SOL     OW10246   6.803   6.297   3.974
 2805SOL    HW110247   6.778   6.387   3.953
 2805SOL    HW210248   6.861   6.305   4.049
 2806SOL     OW10249  11.409   7.864   5.734
 2806SOL    HW110250  11.414   7.940   5.677
 2806SOL    HW210251  11.360   7.895   5.810
 2807SOL     OW10252   7.338   9.924  11.429
 2807SOL    HW110253   7.280   9.945  11.356
 2807SOL    HW210254   7.420   9.967  11.408
 2808SOL     OW10255   2.794  10.234  14.450
 2808SOL    HW110256   2.824  10.312  14.497
 2808SOL    HW210257   2.721  10.265  14.396
 2809SOL     OW10258   6.388   2.787   4.567
 2809SOL    HW110259   6.345   2.774   4.651
 2809SOL    HW210260   6.397   2.700   4.530
 2810SOL     OW10261   6.196   8.542   3.928
 2810SOL    HW110262   6.120   8.589   3.895
 2810SOL    HW210263   6.258   8.543   3.856
 2811SOL     OW10264   1.096  13.607   8.982
 2811SOL    HW110265   1.048  13.588   8.901
 2811SOL    HW210266   1.185  13.578   8.964
 2812SOL     OW10267  14.170   2.068  12.635
 2812SOL    HW110268  14.213   2.024  12.561
 2812SOL    HW210269  14.153   2.156  12.603
 2813SOL     OW10270   9.335   1.229  14.756
 2813SOL    HW110271   9.411   1.209  14.810
 2813SOL    HW210272   9.354   1.314  14.717
 2814SOL     OW10273   3.619  10.226   4.206
 2814SOL    HW110274   3.580  10.202   4.122
 2814SOL    HW210275   3.663  10.146   4.236
 2815SOL     OW10276  14.075   3.480   6.060
 2815SOL    HW110277  14.021   3.475   6.139
 2815SOL    HW210278  14.044   3.407   6.006
 2816SOL     OW10279   2.714  11.383   3.320
 2816SOL    HW110280   2.754  11.296   3.310
 2816SOL    HW210281   2.753  11.418   3.400
 2817SOL     OW10282  14.039   0.125  10.007
 2817SOL    HW110283  14.101   0.070   9.960
 2817SOL    HW210284  13.955   0.081   9.995
 2818SOL     OW10285  13.762  13.177   7.199
 2818SOL    HW110286  13.699  13.247   7.212
 2818SOL    HW210287  13.718  13.098   7.229
 2819SOL     OW10288   3.157   4.257   3.405
 2819SOL    HW110289   3.164   4.341   3.451
 2819SOL    HW210290   3.244   4.244   3.366
 2820SOL     OW10291   9.933  12.365   0.081
 2820SOL    HW110292  10.023  12.397   0.078
 2820SOL    HW210293   9.879  12.442   0.066
 2821SOL     OW10294   1.087  11.335   4.006
 2821SOL    HW110295   1.135  11.409   4.043
 2821SOL    HW210296   1.155  11.272   3.982
 2822SOL     OW10297  13.754  13.667  13.651
 2822SOL    HW110298  13.669  13.709  13.659
 2822SOL    HW210299  13.790  13.700  13.568
 2823SOL     OW10300   9.827   9.534   9.473
 2823SOL    HW110301   9.893   9.576   9.418
 2823SOL    HW210302   9.759   9.600   9.482
 2824SOL     OW10303   2.841   8.881   7.281
 2824SOL    HW110304   2.776   8.940   7.242
 2824SOL    HW210305   2.814   8.871   7.372
 2825SOL     OW10306   5.585  11.287  10.371
 2825SOL    HW110307   5.670  11.297  10.327
 2825SOL    HW210308   5.567  11.372  10.410
 2826SOL     OW10309  11.986   0.287   6.482
 2826SOL    HW110310  11.987   0.299   6.577
 2826SOL    HW210311  11.894   0.274   6.460
 2827SOL     OW10312   4.695   2.261  10.570
 2827SOL    HW110313   4.623   2.203  10.543
 2827SOL    HW210314   4.728   2.222  10.651
 2828SOL     OW10315   0.700   0.993   7.229
 2828SOL    HW110316   0.750   0.918   7.196
 2828SOL    HW210317   0.730   1.067   7.177
 2829SOL     OW10318  14.363   2.796  12.657
 2829SOL    HW110319  14.290   2.807  12.597
 2829SOL    HW210320  14.323   2.793  12.744
 2830SOL     OW10321  11.808   3.383   3.331
 2830SOL    HW110322  11.902   3.364   3.334
 2830SOL    HW210323  11.767   3.306   3.370
 2831SOL     OW10324   2.124   4.916   6.169
 2831SOL    HW110325   2.198   4.928   6.109
 2831SOL    HW210326   2.149   4.963   6.248
 2832SOL     OW10327  11.434   9.363  14.773
 2832SOL    HW110328  11.340   9.364  14.793
 2832SOL    HW210329  11.446   9.432  14.709
 2833SOL     OW10330  10.410   1.734  12.780
 2833SOL    HW110331  10.412   1.756  12.687
 2833SOL    HW210332  10.422   1.639  12.783
 2834SOL     OW10333   6.523   0.665  14.122
 2834SOL    HW110334   6.509   0.594  14.059
 2834SOL    HW210335   6.435   0.692  14.148
 2835SOL     OW10336   3.111  10.259  10.543
 2835SOL    HW110337   3.063  10.342  10.533
 2835SOL    HW210338   3.175  10.260  10.471
 2836SOL     OW10339   0.543   5.176   7.838
 2836SOL    HW110340   0.584   5.197   7.921
 2836SOL    HW210341   0.602   5.212   7.772
 2837SOL     OW10342   6.188   3.655   5.779
 2837SOL    HW110343   6.263   3.660   5.720
 2837SOL    HW210344   6.217   3.696   5.860
 2838SOL     OW10345   3.933  11.035  14.330
 2838SOL    HW110346   3.932  11.128  14.309
 2838SOL    HW210347   3.854  11.000  14.288
 2839SOL     OW10348   9.417   7.065  10.195
 2839SOL    HW110349   9.415   7.161  10.197
 2839SOL    HW210350   9.494   7.044  10.143
 2840SOL     OW10351   8.637   0.892  11.044
 2840SOL    HW110352   8.582   0.969  11.061
 2840SOL    HW210353   8.610   0.863  10.957
 2841SOL     OW10354  10.516  12.343  10.001
 2841SOL    HW110355  10.567  12.400   9.943
 2841SOL    HW210356  10.425  12.354   9.972
 2842SOL     OW10357   7.578   2.607   6.418
 2842SOL    HW110358   7.520   2.658   6.474
 2842SOL    HW210359   7.534   2.604   6.333
 2843SOL     OW10360   3.891   0.487  11.323
 2843SOL    HW110361   3.817   0.497  11.263
 2843SOL    HW210362   3.969   0.492  11.267
 2844SOL     OW10363   8.611   2.174   9.540
 2844SOL    HW110364   8.669   2.106   9.574
 2844SOL    HW210365   8.579   2.219   9.618
 2845SOL     OW10366   2.640   4.728   2.599
 2845SOL    HW110367   2.627   4.711   2.693
 2845SOL    HW210368   2.601   4.814   2.585
 2846SOL     OW10369   9.483   3.319   2.605
 2846SOL    HW110370   9.420   3.367   2.658
 2846SOL    HW210371   9.551   3.292   2.667
 2847SOL     OW10372   1.220  12.427   3.397
 2847SOL    HW110373   1.296  12.435   3.456
 2847SOL    HW210374   1.201  12.333   3.396
 2848SOL     OW10375   9.655   6.325   1.706
 2848SOL    HW110376   9.703   6.282   1.635
 2848SOL    HW210377   9.579   6.268   1.721
 2849SOL     OW10378   2.683   8.873  11.214
 2849SOL    HW110379   2.764   8.840  11.254
 2849SOL    HW210380   2.684   8.838  11.125
 2850SOL     OW10381   0.359  14.560   1.113
 2850SOL    HW110382   0.302  14.614   1.058
 2850SOL    HW210383   0.303  14.535   1.187
 2851SOL     OW10384  11.689   1.712  14.270
 2851SOL    HW110385  11.721   1.728  14.359
 2851SOL    HW210386  11.769   1.711  14.216
 2852SOL     OW10387   7.769   6.144   7.168
 2852SOL    HW110388   7.810   6.230   7.166
 2852SOL    HW210389   7.743   6.128   7.077
 2853SOL     OW10390   7.809  11.557  13.967
 2853SOL    HW110391   7.869  11.561  13.892
 2853SOL    HW210392   7.734  11.507  13.935
 2854SOL     OW10393   6.477  12.032   3.859
 2854SOL    HW110394   6.463  12.050   3.766
 2854SOL    HW210395   6.436  11.947   3.873
 2855SOL     OW10396  13.326   1.764   8.733
 2855SOL    HW110397  13.362   1.849   8.758
 2855SOL    HW210398  13.401   1.705   8.731
 2856SOL     OW10399  11.946   1.323   9.308
 2856SOL    HW110400  11.928   1.393   9.245
 2856SOL    HW210401  12.009   1.266   9.263
 2857SOL     OW10402  13.825   5.176   2.084
 2857SOL    HW110403  13.867   5.245   2.135
 2857SOL    HW210404  13.855   5.191   1.994
 2858SOL     OW10405   8.701  14.825  11.434
 2858SOL    HW110406   8.738  14.773  11.505
 2858SOL    HW210407   8.648  14.762  11.385
 2859SOL     OW10408   2.590  14.561   5.340
 2859SOL    HW110409   2.526  14.492   5.321
 2859SOL    HW210410   2.550  14.641   5.307
 2860SOL     OW10411  10.248  14.380   3.418
 2860SOL    HW110412  10.210  14.445   3.358
 2860SOL    HW210413  10.223  14.296   3.381
 2861SOL     OW10414   5.534  11.615  12.522
 2861SOL    HW110415   5.456  11.635  12.574
 2861SOL    HW210416   5.511  11.644  12.434
 2862SOL     OW10417   9.689   0.099  12.616
 2862SOL    HW110418   9.625   0.045  12.569
 2862SOL    HW210419   9.658   0.098  12.707
 2863SOL     OW10420   9.134   0.420   5.313
 2863SOL    HW110421   9.040   0.440   5.321
 2863SOL    HW210422   9.172   0.454   5.394
 2864SOL     OW10423   4.004   3.657   4.747
 2864SOL    HW110424   3.978   3.741   4.708
 2864SOL    HW210425   3.921   3.609   4.756
 2865SOL     OW10426  12.788   1.584  10.408
 2865SOL    HW110427  12.875   1.548  10.396
 2865SOL    HW210428  12.733   1.532  10.349
 2866SOL     OW10429   6.203   3.293   1.547
 2866SOL    HW110430   6.242   3.251   1.624
 2866SOL    HW210431   6.195   3.223   1.483
 2867SOL     OW10432   5.097  11.639   0.812
 2867SOL    HW110433   5.138  11.679   0.889
 2867SOL    HW210434   5.037  11.574   0.848
 2868SOL     OW10435  13.284  12.482   7.352
 2868SOL    HW110436  13.341  12.552   7.384
 2868SOL    HW210437  13.281  12.495   7.257
 2869SOL     OW10438   0.322   3.205   1.469
 2869SOL    HW110439   0.281   3.289   1.445
 2869SOL    HW210440   0.315   3.151   1.390
 2870SOL     OW10441   6.161  10.203  12.664
 2870SOL    HW110442   6.113  10.193  12.746
 2870SOL    HW210443   6.251  10.221  12.691
 2871SOL     OW10444   4.927  14.768  12.014
 2871SOL    HW110445   4.996  14.781  11.948
 2871SOL    HW210446   4.896  14.678  11.998
 2872SOL     OW10447   9.241  11.290  14.348
 2872SOL    HW110448   9.241  11.200  14.316
 2872SOL    HW210449   9.329  11.302  14.385
 2873SOL     OW10450  14.641   1.688  13.892
 2873SOL    HW110451  14.643   1.598  13.858
 2873SOL    HW210452  14.694   1.738  13.830
 2874SOL     OW10453   9.522   4.817  11.676
 2874SOL    HW110454   9.436   4.777  11.662
 2874SOL    HW210455   9.577   4.745  11.706
 2875SOL     OW10456   3.400   2.531   4.167
 2875SOL    HW110457   3.456   2.601   4.133
 2875SOL    HW210458   3.434   2.514   4.255
 2876SOL     OW10459   1.379   8.001   9.738
 2876SOL    HW110460   1.309   8.058   9.771
 2876SOL    HW210461   1.335   7.920   9.715
 2877SOL     OW10462   2.795  12.498   4.678
 2877SOL    HW110463   2.773  12.431   4.743
 2877SOL    HW210464   2.861  12.551   4.721
 2878SOL     OW10465  14.743   4.699   8.654
 2878SOL    HW110466  14.787   4.701   8.739
 2878SOL    HW210467  14.738   4.606   8.631
 2879SOL     OW10468   0.530  10.965   2.697
 2879SOL    HW110469   0.489  10.969   2.783
 2879SOL    HW210470   0.491  10.888   2.655
 2880SOL     OW10471  13.997   8.291   4.034
 2880SOL    HW110472  13.960   8.213   3.993
 2880SOL    HW210473  14.091   8.285   4.016
 2881SOL     OW10474   8.203   7.314  13.229
 2881SOL    HW110475   8.197   7.252  13.301
 2881SOL    HW210476   8.266   7.380  13.258
 2882SOL     OW10477   1.584   4.424  12.572
 2882SOL    HW110478   1.513   4.406  12.510
 2882SOL    HW210479   1.654   4.364  12.548
 2883SOL     OW10480   2.519   7.158   5.239
 2883SOL    HW110481   2.573   7.186   5.313
 2883SOL    HW210482   2.448   7.222   5.236
 2884SOL     OW10483   0.737  10.645  14.381
 2884SOL    HW110484   0.781  10.574  14.333
 2884SOL    HW210485   0.788  10.723  14.359
 2885SOL     OW10486   9.769   8.594   3.312
 2885SOL    HW110487   9.780   8.676   3.263
 2885SOL    HW210488   9.692   8.609   3.367
 2886SOL     OW10489  14.026   7.510   4.642
 2886SOL    HW110490  14.080   7.583   4.673
 2886SOL    HW210491  14.077   7.432   4.664
 2887SOL     OW10492   8.317   1.593   1.777
 2887SOL    HW110493   8.292   1.685   1.768
 2887SOL    HW210494   8.382   1.592   1.847
 2888SOL     OW10495  12.289  10.017   1.002
 2888SOL    HW110496  12.326  10.093   0.957
 2888SOL    HW210497  12.362   9.980   1.051
 2889SOL     OW10498   6.501   9.216   9.871
 2889SOL    HW110499   6.519   9.214   9.777
 2889SOL    HW210500   6.421   9.165   9.881
 2890SOL     OW10501   5.886   8.056   5.690
 2890SOL    HW110502   5.803   8.103   5.695
 2890SOL    HW210503   5.943   8.112   5.637
 2891SOL     OW10504   3.698   4.968   9.716
 2891SOL    HW110505   3.602   4.969   9.713
 2891SOL    HW210506   3.718   4.936   9.804
 2892SOL     OW10507   9.387   9.839  13.157
 2892SOL    HW110508   9.324   9.775  13.190
 2892SOL    HW210509   9.471   9.792  13.155
 2893SOL     OW10510  14.286   3.124   5.302
 2893SOL    HW110511  14.219   3.176   5.347
 2893SOL    HW210512  14.244   3.039   5.287
 2894SOL     OW10513   8.239  12.008   3.106
 2894SOL    HW110514   8.322  11.959   3.106
 2894SOL    HW210515   8.181  11.954   3.160
 2895SOL     OW10516   6.336   1.592   1.883
 2895SOL    HW110517   6.327   1.639   1.800
 2895SOL    HW210518   6.287   1.645   1.946
 2896SOL     OW10519   1.953   9.663   1.728
 2896SOL    HW110520   1.983   9.673   1.638
 2896SOL    HW210521   1.871   9.712   1.732
 2897SOL     OW10522   7.026   2.805   2.362
 2897SOL    HW110523   6.987   2.861   2.294
 2897SOL    HW210524   7.066   2.733   2.313
 2898SOL     OW10525   4.378   6.586   4.046
 2898SOL    HW110526   4.412   6.526   4.112
 2898SOL    HW210527   4.377   6.672   4.089
 2899SOL     OW10528   0.869   7.869   5.151
 2899SOL    HW110529   0.818   7.890   5.073
 2899SOL    HW210530   0.946   7.925   5.145
 2900SOL     OW10531  13.649  13.404   6.739
 2900SOL    HW110532  13.609  13.357   6.666
 2900SOL    HW210533  13.693  13.336   6.791
 2901SOL     OW10534   0.955   1.401   7.218
 2901SOL    HW110535   1.023   1.335   7.233
 2901SOL    HW210536   1.004   1.481   7.201
 2902SOL     OW10537   3.000   9.585  12.629
 2902SOL    HW110538   2.917   9.586  12.582
 2902SOL    HW210539   2.977   9.567  12.720
 2903SOL     OW10540  10.460   5.249   6.643
 2903SOL    HW110541  10.426   5.331   6.679
 2903SOL    HW210542  10.530   5.223   6.703
 2904SOL     OW10543  13.461   3.066   5.090
 2904SOL    HW110544  13.522   3.135   5.118
 2904SOL    HW210545  13.380   3.113   5.069
 2905SOL     OW10546   9.487   7.545  11.042
 2905SOL    HW110547   9.407   7.499  11.068
 2905SOL    HW210548   9.554   7.512  11.102
 2906SOL     OW10549  12.269  11.988   0.506
 2906SOL    HW110550  12.280  11.969   0.412
 2906SOL    HW210551  12.318  11.918   0.549
 2907SOL     OW10552   8.406   0.194   1.770
 2907SOL    HW110553   8.382   0.282   1.741
 2907SOL    HW210554   8.394   0.139   1.692
 2908SOL     OW10555   7.475  10.096   9.281
 2908SOL    HW110556   7.515  10.034   9.221
 2908SOL    HW210557   7.479  10.180   9.236
 2909SOL     OW10558   2.671  11.140   7.957
 2909SOL    HW110559   2.580  11.119   7.978
 2909SOL    HW210560   2.675  11.138   7.861
 2910SOL     OW10561  11.242  13.308   6.204
 2910SOL    HW110562  11.196  13.356   6.273
 2910SOL    HW210563  11.332  13.301   6.235
 2911SOL     OW10564  11.464   3.727  10.274
 2911SOL    HW110565  11.513   3.681  10.206
 2911SOL    HW210566  11.374   3.731  10.242
 2912SOL     OW10567  13.108   2.653   5.627
 2912SOL    HW110568  13.181   2.607   5.668
 2912SOL    HW210569  13.140   2.742   5.614
 2913SOL     OW10570  11.714  14.466  14.785
 2913SOL    HW110571  11.629  14.491  14.821
 2913SOL    HW210572  11.762  14.548  14.777
 2914SOL     OW10573   0.617  12.622   1.287
 2914SOL    HW110574   0.534  12.638   1.333
 2914SOL    HW210575   0.664  12.561   1.344
 2915SOL     OW10576   6.385  10.125   0.915
 2915SOL    HW110577   6.402  10.157   1.004
 2915SOL    HW210578   6.358  10.203   0.866
 2916SOL     OW10579   6.192  10.137   6.269
 2916SOL    HW110580   6.135  10.147   6.346
 2916SOL    HW210581   6.245  10.060   6.289
 2917SOL     OW10582  13.110   6.258  14.550
 2917SOL    HW110583  13.050   6.200  14.503
 2917SOL    HW210584  13.186   6.204  14.569
 2918SOL     OW10585   9.534   0.386   3.193
 2918SOL    HW110586   9.449   0.406   3.153
 2918SOL    HW210587   9.566   0.471   3.224
 2919SOL     OW10588   9.517  11.277   4.192
 2919SOL    HW110589   9.481  11.193   4.220
 2919SOL    HW210590   9.529  11.326   4.273
 2920SOL     OW10591   0.462  12.430   7.719
 2920SOL    HW110592   0.372  12.449   7.746
 2920SOL    HW210593   0.517  12.469   7.788
 2921SOL     OW10594  11.932   6.289   8.782
 2921SOL    HW110595  11.872   6.236   8.836
 2921SOL    HW210596  11.989   6.225   8.740
 2922SOL     OW10597  11.384   9.823   8.804
 2922SOL    HW110598  11.422   9.796   8.721
 2922SOL    HW210599  11.452   9.875   8.846
 2923SOL     OW10600  14.356   7.073   5.490
 2923SOL    HW110601  14.266   7.057   5.517
 2923SOL    HW210602  14.387   7.141   5.549
 2924SOL     OW10603   1.102   4.040   7.033
 2924SOL    HW110604   1.112   4.132   7.009
 2924SOL    HW210605   1.075   3.997   6.952
 2925SOL     OW10606   1.762  14.448  11.455
 2925SOL    HW110607   1.767  14.464  11.549
 2925SOL    HW210608   1.674  14.477  11.430
 2926SOL     OW10609   0.762  10.962   0.835
 2926SOL    HW110610   0.847  10.993   0.803
 2926SOL    HW210611   0.698  10.997   0.773
 2927SOL     OW10612   0.584   0.818  12.942
 2927SOL    HW110613   0.599   0.913  12.942
 2927SOL    HW210614   0.580   0.795  13.035
 2928SOL     OW10615  12.794   7.635  11.247
 2928SOL    HW110616  12.759   7.644  11.158
 2928SOL    HW210617  12.857   7.706  11.256
 2929SOL     OW10618   4.137  11.055   1.021
 2929SOL    HW110619   4.045  11.044   0.996
 2929SOL    HW210620   4.153  11.149   1.011
 2930SOL     OW10621  10.341  13.922   9.233
 2930SOL    HW110622  10.254  13.892   9.260
 2930SOL    HW210623  10.379  13.847   9.188
 2931SOL     OW10624   2.708   0.002   4.243
 2931SOL    HW110625   2.621  14.855   4.218
 2931SOL    HW210626   2.694   0.083   4.292
 2932SOL     OW10627   9.689  14.323  11.918
 2932SOL    HW110628   9.640  14.247  11.888
 2932SOL    HW210629   9.731  14.294  11.999
 2933SOL     OW10630   9.771   5.712   2.488
 2933SOL    HW110631   9.854   5.675   2.458
 2933SOL    HW210632   9.787   5.740   2.578
 2934SOL     OW10633  11.227   1.176   5.242
 2934SOL    HW110634  11.237   1.201   5.150
 2934SOL    HW210635  11.233   1.081   5.243
 2935SOL     OW10636  11.854   9.448   4.821
 2935SOL    HW110637  11.846   9.525   4.878
 2935SOL    HW210638  11.783   9.390   4.848
 2936SOL     OW10639  10.194   4.588  10.342
 2936SOL    HW110640  10.193   4.628  10.255
 2936SOL    HW210641  10.182   4.661  10.403
 2937SOL     OW10642  11.130   1.157   0.391
 2937SOL    HW110643  11.115   1.158   0.486
 2937SOL    HW210644  11.051   1.118   0.355
 2938SOL     OW10645   4.144  11.373   0.373
 2938SOL    HW110646   4.125  11.459   0.410
 2938SOL    HW210647   4.152  11.315   0.448
 2939SOL     OW10648   6.903   7.001   2.203
 2939SOL    HW110649   6.980   6.944   2.198
 2939SOL    HW210650   6.940   7.088   2.222
 2940SOL     OW10651  14.008   8.129   4.767
 2940SOL    HW110652  14.004   8.127   4.862
 2940SOL    HW210653  14.072   8.197   4.746
 2941SOL     OW10654   8.203  14.781   1.129
 2941SOL    HW110655   8.201  14.756   1.036
 2941SOL    HW210656   8.229  14.700   1.174
 2942SOL     OW10657  11.738   7.790   1.882
 2942SOL    HW110658  11.824   7.787   1.926
 2942SOL    HW210659  11.695   7.709   1.909
 2943SOL     OW10660   0.746  11.950   0.026
 2943SOL    HW110661   0.762  11.867  14.862
 2943SOL    HW210662   0.664  11.935   0.073
 2944SOL     OW10663  12.891   7.827   4.926
 2944SOL    HW110664  12.965   7.869   4.971
 2944SOL    HW210665  12.824   7.895   4.924
 2945SOL     OW10666   3.776   5.036  14.616
 2945SOL    HW110667   3.863   5.076  14.622
 2945SOL    HW210668   3.793   4.945  14.591
 2946SOL     OW10669   7.525  11.537   4.575
 2946SOL    HW110670   7.504  11.618   4.529
 2946SOL    HW210671   7.573  11.566   4.653
 2947SOL     OW10672  14.189  14.762   4.898
 2947SOL    HW110673  14.112  14.723   4.858
 2947SOL    HW210674  14.206  14.708   4.975
 2948SOL     OW10675   9.847   2.723  12.897
 2948SOL    HW110676   9.843   2.780  12.820
 2948SOL    HW210677   9.819   2.779  12.970
 2949SOL     OW10678  13.565  14.242  14.707
 2949SOL    HW110679  13.620  14.259  14.784
 2949SOL    HW210680  13.598  14.159  14.673
 2950SOL     OW10681   4.063   8.541   4.188
 2950SOL    HW110682   4.094   8.506   4.105
 2950SOL    HW210683   3.969   8.558   4.174
 2951SOL     OW10684   1.871   0.735   2.498
 2951SOL    HW110685   1.950   0.683   2.487
 2951SOL    HW210686   1.802   0.683   2.455
 2952SOL     OW10687  10.589   6.988   5.836
 2952SOL    HW110688  10.626   6.920   5.892
 2952SOL    HW210689  10.495   6.968   5.831
 2953SOL     OW10690   3.624  10.861   9.289
 2953SOL    HW110691   3.533  10.851   9.259
 2953SOL    HW210692   3.617  10.857   9.385
 2954SOL     OW10693  14.812   1.927  12.008
 2954SOL    HW110694  14.802   1.955  12.098
 2954SOL    HW210695  14.782   1.836  12.007
 2955SOL     OW10696   8.823   4.444   7.052
 2955SOL    HW110697   8.876   4.374   7.090
 2955SOL    HW210698   8.885   4.498   7.003
 2956SOL     OW10699   4.495   5.597   6.109
 2956SOL    HW110700   4.424   5.657   6.131
 2956SOL    HW210701   4.527   5.565   6.194
 2957SOL     OW10702  13.632  12.090  12.047
 2957SOL    HW110703  13.632  12.039  11.966
 2957SOL    HW210704  13.553  12.144  12.041
 2958SOL     OW10705  14.604   6.866   5.431
 2958SOL    HW110706  14.542   6.936   5.450
 2958SOL    HW210707  14.563   6.815   5.362
 2959SOL     OW10708   1.483   5.961  14.678
 2959SOL    HW110709   1.449   5.946  14.766
 2959SOL    HW210710   1.574   5.930  14.682
 2960SOL     OW10711  12.159   5.184   7.433
 2960SOL    HW110712  12.221   5.202   7.362
 2960SOL    HW210713  12.151   5.089   7.435
 2961SOL     OW10714  12.095   6.470  12.586
 2961SOL    HW110715  12.023   6.408  12.583
 2961SOL    HW210716  12.103   6.502  12.496
 2962SOL     OW10717  13.328  14.126  14.864
 2962SOL    HW110718  13.294  14.188   0.047
 2962SOL    HW210719  13.279  14.144  14.784
 2963SOL     OW10720  11.687  14.510   0.875
 2963SOL    HW110721  11.650  14.459   0.802
 2963SOL    HW210722  11.779  14.520   0.853
 2964SOL     OW10723   7.766   3.642   9.722
 2964SOL    HW110724   7.696   3.611   9.779
 2964SOL    HW210725   7.777   3.573   9.656
 2965SOL     OW10726   2.750   1.955  10.219
 2965SOL    HW110727   2.842   1.978  10.230
 2965SOL    HW210728   2.750   1.860  10.207
 2966SOL     OW10729  12.494   6.803   5.035
 2966SOL    HW110730  12.409   6.810   5.080
 2966SOL    HW210731  12.477   6.834   4.947
 2967SOL     OW10732   8.908   8.717   5.929
 2967SOL    HW110733   8.891   8.683   5.841
 2967SOL    HW210734   8.912   8.812   5.918
 2968SOL     OW10735   5.159  11.311   7.206
 2968SOL    HW110736   5.155  11.249   7.279
 2968SOL    HW210737   5.073  11.351   7.204
 2969SOL     OW10738  12.624   7.149   5.846
 2969SOL    HW110739  12.701   7.203   5.865
 2969SOL    HW210740  12.563   7.168   5.918
 2970SOL     OW10741   4.912   1.351   0.493
 2970SOL    HW110742   4.937   1.386   0.579
 2970SOL    HW210743   4.933   1.258   0.498
 2971SOL     OW10744   8.448   9.016   9.781
 2971SOL    HW110745   8.504   9.044   9.853
 2971SOL    HW210746   8.504   9.020   9.704
 2972SOL     OW10747   5.995   1.481   1.557
 2972SOL    HW110748   5.930   1.551   1.561
 2972SOL    HW210749   5.968   1.427   1.482
 2973SOL     OW10750  10.759   5.243  14.511
 2973SOL    HW110751  10.702   5.173  14.542
 2973SOL    HW210752  10.779   5.220  14.420
 2974SOL     OW10753   7.861  13.001   0.581
 2974SOL    HW110754   7.792  13.003   0.646
 2974SOL    HW210755   7.832  13.061   0.512
 2975SOL     OW10756   0.415   9.026   8.051
 2975SOL    HW110757   0.400   9.071   7.967
 2975SOL    HW210758   0.382   8.937   8.037
 2976SOL     OW10759   0.745   1.574   7.683
 2976SOL    HW110760   0.774   1.620   7.604
 2976SOL    HW210761   0.758   1.636   7.754
 2977SOL     OW10762   2.889  10.359  11.346
 2977SOL    HW110763   2.820  10.293  11.343
 2977SOL    HW210764   2.854  10.428  11.402
 2978SOL     OW10765   7.675  12.509  12.704
 2978SOL    HW110766   7.757  12.552  12.680
 2978SOL    HW210767   7.681  12.498  12.799
 2979SOL     OW10768   7.762   6.626  13.152
 2979SOL    HW110769   7.772   6.716  13.120
 2979SOL    HW210770   7.691   6.631  13.216
 2980SOL     OW10771   5.094   0.134   0.382
 2980SOL    HW110772   5.077   0.040   0.379
 2980SOL    HW210773   5.140   0.153   0.300
 2981SOL     OW10774  13.969   5.530   3.187
 2981SOL    HW110775  13.945   5.485   3.268
 2981SOL    HW210776  13.960   5.623   3.207
 2982SOL     OW10777  14.183   0.552  11.610
 2982SOL    HW110778  14.178   0.573  11.517
 2982SOL    HW210779  14.129   0.474  11.620
 2983SOL     OW10780  11.908   2.196  12.535
 2983SOL    HW110781  11.847   2.124  12.516
 2983SOL    HW210782  11.906   2.204  12.631
 2984SOL     OW10783   1.888   8.653   1.398
 2984SOL    HW110784   1.887   8.672   1.305
 2984SOL    HW210785   1.952   8.583   1.408
 2985SOL     OW10786   7.954  14.631   1.881
 2985SOL    HW110787   8.015  14.679   1.936
 2985SOL    HW210788   7.881  14.610   1.940
 2986SOL     OW10789   9.878  11.284  10.137
 2986SOL    HW110790   9.882  11.334  10.055
 2986SOL    HW210791   9.924  11.203  10.118
 2987SOL     OW10792   2.992  12.630   5.901
 2987SOL    HW110793   2.994  12.538   5.876
 2987SOL    HW210794   2.956  12.675   5.825
 2988SOL     OW10795   5.412  12.767  14.584
 2988SOL    HW110796   5.354  12.757  14.508
 2988SOL    HW210797   5.353  12.768  14.660
 2989SOL     OW10798  13.268   6.069  12.124
 2989SOL    HW110799  13.344   6.121  12.099
 2989SOL    HW210800  13.248   6.097  12.213
 2990SOL     OW10801  11.429   1.595  13.685
 2990SOL    HW110802  11.333   1.597  13.694
 2990SOL    HW210803  11.460   1.649  13.758
 2991SOL     OW10804  10.785  14.292  14.184
 2991SOL    HW110805  10.775  14.374  14.233
 2991SOL    HW210806  10.795  14.224  14.251
 2992SOL     OW10807   2.686   3.585   8.654
 2992SOL    HW110808   2.634   3.630   8.586
 2992SOL    HW210809   2.722   3.656   8.706
 2993SOL     OW10810   6.726  13.758   3.236
 2993SOL    HW110811   6.803  13.804   3.271
 2993SOL    HW210812   6.763  13.696   3.172
 2994SOL     OW10813   8.302  11.966   6.861
 2994SOL    HW110814   8.381  11.993   6.815
 2994SOL    HW210815   8.334  11.909   6.930
 2995SOL     OW10816  13.175   6.563   4.264
 2995SOL    HW110817  13.182   6.593   4.173
 2995SOL    HW210818  13.186   6.642   4.316
 2996SOL     OW10819   8.955   9.234  10.873
 2996SOL    HW110820   8.953   9.292  10.797
 2996SOL    HW210821   8.876   9.255  10.922
 2997SOL     OW10822   0.955   1.895   9.516
 2997SOL    HW110823   0.887   1.889   9.582
 2997SOL    HW210824   0.908   1.902   9.433
 2998SOL     OW10825   7.543   5.692   3.402
 2998SOL    HW110826   7.484   5.620   3.423
 2998SOL    HW210827   7.583   5.715   3.486
 2999SOL     OW10828  10.220   0.310   6.879
 2999SOL    HW110829  10.190   0.287   6.791
 2999SOL    HW210830  10.277   0.386   6.866
 3000SOL     OW10831   1.317  14.395  13.393
 3000SOL    HW110832   1.323  14.489  13.379
 3000SOL    HW210833   1.366  14.357  13.320
 3001SOL     OW10834  10.842   7.874   6.072
 3001SOL    HW110835  10.818   7.783   6.057
 3001SOL    HW210836  10.902   7.895   6.000
 3002SOL     OW10837  12.473   7.901  12.024
 3002SOL    HW110838  12.401   7.842  12.048
 3002SOL    HW210839  12.447   7.986  12.059
 3003SOL     OW10840   3.865   7.896  11.551
 3003SOL    HW110841   3.941   7.888  11.609
 3003SOL    HW210842   3.801   7.947  11.601
 3004SOL     OW10843  11.033   4.267  11.262
 3004SOL    HW110844  11.011   4.209  11.189
 3004SOL    HW210845  11.119   4.239  11.290
 3005SOL     OW10846  12.193   5.978   0.789
 3005SOL    HW110847  12.251   5.914   0.830
 3005SOL    HW210848  12.242   6.060   0.795
 3006SOL     OW10849   7.457  10.529   0.431
 3006SOL    HW110850   7.364  10.550   0.436
 3006SOL    HW210851   7.501  10.607   0.466
 3007SOL     OW10852   0.912   8.796   6.892
 3007SOL    HW110853   0.942   8.793   6.983
 3007SOL    HW210854   0.889   8.888   6.878
 3008SOL     OW10855   3.637   9.569  11.855
 3008SOL    HW110856   3.625   9.588  11.948
 3008SOL    HW210857   3.629   9.474  11.849
 3009SOL     OW10858   4.900  11.442   7.230
 3009SOL    HW110859   4.821  11.406   7.269
 3009SOL    HW210860   4.927  11.512   7.290
 3010SOL     OW10861  11.282   7.717   6.627
 3010SOL    HW110862  11.321   7.641   6.584
 3010SOL    HW210863  11.197   7.728   6.583
 3011SOL     OW10864   8.819  11.008   9.047
 3011SOL    HW110865   8.732  11.000   9.007
 3011SOL    HW210866   8.805  10.990   9.140
 3012SOL     OW10867   7.464   5.716  12.630
 3012SOL    HW110868   7.408   5.640  12.614
 3012SOL    HW210869   7.450   5.738  12.722
 3013SOL     OW10870   1.745  14.877  13.300
 3013SOL    HW110871   1.735  14.831  13.216
 3013SOL    HW210872   1.818   0.055  13.286
 3014SOL     OW10873  13.304   2.824   7.708
 3014SOL    HW110874  13.302   2.763   7.633
 3014SOL    HW210875  13.220   2.810   7.751
 3015SOL     OW10876   1.045  13.940   0.838
 3015SOL    HW110877   0.955  13.950   0.867
 3015SOL    HW210878   1.089  14.020   0.868
 3016SOL     OW10879   0.313  13.920   6.484
 3016SOL    HW110880   0.231  13.932   6.436
 3016SOL    HW210881   0.357  14.005   6.477
 3017SOL     OW10882  11.068  11.636   6.949
 3017SOL    HW110883  11.160  11.616   6.930
 3017SOL    HW210884  11.020  11.591   6.880
 3018SOL     OW10885   6.889  10.462   2.613
 3018SOL    HW110886   6.853  10.523   2.678
 3018SOL    HW210887   6.897  10.379   2.661
 3019SOL     OW10888  13.144   1.139   8.894
 3019SOL    HW110889  13.057   1.123   8.931
 3019SOL    HW210890  13.204   1.131   8.969
 3020SOL     OW10891   3.221   7.389   3.825
 3020SOL    HW110892   3.173   7.419   3.748
 3020SOL    HW210893   3.267   7.468   3.856
 3021SOL     OW10894   5.909  10.513  11.993
 3021SOL    HW110895   5.893  10.607  11.998
 3021SOL    HW210896   5.862  10.486  11.914
 3022SOL     OW10897   9.686   2.424   8.575
 3022SOL    HW110898   9.646   2.384   8.497
 3022SOL    HW210899   9.646   2.378   8.649
 3023SOL     OW10900   9.888   0.944  11.884
 3023SOL    HW110901   9.943   1.010  11.926
 3023SOL    HW210902   9.949   0.889  11.835
 3024SOL     OW10903  14.232   8.270   6.358
 3024SOL    HW110904  14.258   8.186   6.397
 3024SOL    HW210905  14.315   8.311   6.333
 3025SOL     OW10906   8.331   8.240   9.407
 3025SOL    HW110907   8.404   8.214   9.352
 3025SOL    HW210908   8.288   8.158   9.431
 3026SOL     OW10909   8.698   0.478  13.512
 3026SOL    HW110910   8.645   0.434  13.579
 3026SOL    HW210911   8.788   0.464  13.540
 3027SOL     OW10912  14.875  14.149  12.940
 3027SOL    HW110913   0.037  14.064  12.944
 3027SOL    HW210914  14.802  14.142  13.002
 3028SOL     OW10915   1.210  12.342  14.389
 3028SOL    HW110916   1.147  12.410  14.365
 3028SOL    HW210917   1.157  12.269  14.418
 3029SOL     OW10918  11.713  11.737  11.758
 3029SOL    HW110919  11.624  11.745  11.794
 3029SOL    HW210920  11.702  11.684  11.679
 3030SOL     OW10921  13.113   6.059   8.896
 3030SOL    HW110922  13.184   6.113   8.863
 3030SOL    HW210923  13.132   5.971   8.865
 3031SOL     OW10924   2.997  13.481   3.131
 3031SOL    HW110925   2.980  13.495   3.224
 3031SOL    HW210926   2.910  13.480   3.090
 3032SOL     OW10927   1.531  10.591  13.388
 3032SOL    HW110928   1.514  10.518  13.447
 3032SOL    HW210929   1.504  10.560  13.302
 3033SOL     OW10930   9.875  13.253   4.695
 3033SOL    HW110931   9.905  13.223   4.782
 3033SOL    HW210932   9.795  13.203   4.680
 3034SOL     OW10933  12.307   7.130   4.166
 3034SOL    HW110934  12.251   7.120   4.243
 3034SOL    HW210935  12.303   7.045   4.122
 3035SOL     OW10936   8.430   3.065  10.080
 3035SOL    HW110937   8.394   3.020  10.156
 3035SOL    HW210938   8.524   3.067  10.096
 3036SOL     OW10939   6.276  14.025   1.953
 3036SOL    HW110940   6.344  14.092   1.948
 3036SOL    HW210941   6.323  13.942   1.939
 3037SOL     OW10942  10.597  12.790   0.687
 3037SOL    HW110943  10.650  12.713   0.710
 3037SOL    HW210944  10.558  12.768   0.602
 3038SOL     OW10945  13.935   6.200   1.597
 3038SOL    HW110946  13.905   6.117   1.559
 3038SOL    HW210947  13.894   6.268   1.543
 3039SOL     OW10948   2.509   3.711   8.315
 3039SOL    HW110949   2.513   3.725   8.220
 3039SOL    HW210950   2.421   3.742   8.340
 3040SOL     OW10951   7.772  10.514   0.157
 3040SOL    HW110952   7.732  10.551   0.078
 3040SOL    HW210953   7.818  10.436   0.126
 3041SOL     OW10954  14.274   4.273   5.492
 3041SOL    HW110955  14.336   4.225   5.438
 3041SOL    HW210956  14.282   4.364   5.462
 3042SOL     OW10957   0.316   2.906   0.895
 3042SOL    HW110958   0.259   2.894   0.971
 3042SOL    HW210959   0.289   2.990   0.857
 3043SOL     OW10960  10.271   2.860   2.879
 3043SOL    HW110961  10.257   2.910   2.798
 3043SOL    HW210962  10.310   2.778   2.849
 3044SOL     OW10963  10.381   5.704   8.104
 3044SOL    HW110964  10.299   5.689   8.152
 3044SOL    HW210965  10.442   5.639   8.138
 3045SOL     OW10966   4.389   1.149  11.484
 3045SOL    HW110967   4.464   1.129  11.429
 3045SOL    HW210968   4.381   1.074  11.543
 3046SOL     OW10969   4.506  14.220   9.940
 3046SOL    HW110970   4.594  14.190   9.920
 3046SOL    HW210971   4.459  14.141   9.967
 3047SOL     OW10972   2.136   6.295   4.442
 3047SOL    HW110973   2.102   6.206   4.448
 3047SOL    HW210974   2.182   6.297   4.358
 3048SOL     OW10975   0.103   3.082  11.832
 3048SOL    HW110976   0.193   3.054  11.815
 3048SOL    HW210977   0.099   3.093  11.927
 3049SOL     OW10978   4.328   7.090   1.451
 3049SOL    HW110979   4.282   7.044   1.522
 3049SOL    HW210980   4.387   7.150   1.495
 3050SOL     OW10981   0.215  11.549   0.392
 3050SOL    HW110982   0.218  11.478   0.327
 3050SOL    HW210983   0.209  11.504   0.476
 3051SOL     OW10984   6.947   3.731   3.383
 3051SOL    HW110985   6.953   3.673   3.308
 3051SOL    HW210986   7.027   3.784   3.378
 3052SOL     OW10987   9.521   5.080   5.771
 3052SOL    HW110988   9.547   5.081   5.679
 3052SOL    HW210989   9.546   5.167   5.804
 3053SOL     OW10990  11.046   6.499   5.448
 3053SOL    HW110991  11.104   6.495   5.524
 3053SOL    HW210992  10.981   6.430   5.463
 3054SOL     OW10993   3.463  14.093   8.925
 3054SOL    HW110994   3.468  14.010   8.879
 3054SOL    HW210995   3.404  14.147   8.872
 3055SOL     OW10996   7.685  14.475  13.895
 3055SOL    HW110997   7.735  14.552  13.866
 3055SOL    HW210998   7.594  14.505  13.892
 3056SOL     OW10999   3.836  13.369   6.245
 3056SOL    HW111000   3.822  13.399   6.335
 3056SOL    HW211001   3.908  13.306   6.252
 3057SOL     OW11002   5.477   7.776   6.014
 3057SOL    HW111003   5.395   7.731   5.994
 3057SOL    HW211004   5.518   7.790   5.929
 3058SOL     OW11005   0.189   3.606   4.718
 3058SOL    HW111006   0.118   3.660   4.684
 3058SOL    HW211007   0.146   3.527   4.750
 3059SOL     OW11008   9.712   6.132  10.684
 3059SOL    HW111009   9.807   6.120  10.684
 3059SOL    HW211010   9.677   6.044  10.670
 3060SOL     OW11011   3.097   8.966   5.000
 3060SOL    HW111012   3.048   8.907   5.058
 3060SOL    HW211013   3.074   9.054   5.031
 3061SOL     OW11014   9.907   7.300   2.551
 3061SOL    HW111015   9.940   7.236   2.487
 3061SOL    HW211016   9.885   7.377   2.499
 3062SOL     OW11017   0.614   7.895   0.212
 3062SOL    HW111018   0.569   7.811   0.200
 3062SOL    HW211019   0.653   7.888   0.300
 3063SOL     OW11020  12.079   8.954  10.221
 3063SOL    HW111021  12.011   8.976  10.157
 3063SOL    HW211022  12.158   8.995  10.187
 3064SOL     OW11023  13.331   3.609   3.184
 3064SOL    HW111024  13.253   3.588   3.133
 3064SOL    HW211025  13.312   3.694   3.224
 3065SOL     OW11026  12.077   9.548   4.672
 3065SOL    HW111027  12.042   9.492   4.742
 3065SOL    HW211028  12.170   9.556   4.692
 3066SOL     OW11029   5.536  11.657   2.334
 3066SOL    HW111030   5.629  11.678   2.343
 3066SOL    HW211031   5.528  11.568   2.369
 3067SOL     OW11032  11.076   0.031  11.633
 3067SOL    HW111033  11.090   0.126  11.638
 3067SOL    HW211034  11.096  14.882  11.721
 3068SOL     OW11035  11.414   8.451  12.715
 3068SOL    HW111036  11.371   8.537  12.713
 3068SOL    HW211037  11.492   8.464  12.768
 3069SOL     OW11038  13.472   3.570   7.398
 3069SOL    HW111039  13.422   3.507   7.450
 3069SOL    HW211040  13.407   3.610   7.341
 3070SOL     OW11041   6.673   8.114   4.364
 3070SOL    HW111042   6.682   8.021   4.387
 3070SOL    HW211043   6.758   8.137   4.325
 3071SOL     OW11044  14.649  10.180  12.421
 3071SOL    HW111045  14.569  10.176  12.474
 3071SOL    HW211046  14.718  10.204  12.483
 3072SOL     OW11047  12.604   4.778  12.842
 3072SOL    HW111048  12.665   4.737  12.903
 3072SOL    HW211049  12.524   4.792  12.893
 3073SOL     OW11050  11.600   8.904   3.678
 3073SOL    HW111051  11.611   8.925   3.586
 3073SOL    HW211052  11.519   8.948   3.703
 3074SOL     OW11053   4.444  10.308  10.520
 3074SOL    HW111054   4.510  10.345  10.461
 3074SOL    HW211055   4.477  10.220  10.540
 3075SOL     OW11056   8.300   5.682  11.541
 3075SOL    HW111057   8.265   5.665  11.629
 3075SOL    HW211058   8.228   5.722  11.493
 3076SOL     OW11059   3.034   5.179   8.974
 3076SOL    HW111060   2.979   5.153   9.048
 3076SOL    HW211061   3.098   5.239   9.012
 3077SOL     OW11062   3.100   2.257   8.004
 3077SOL    HW111063   3.065   2.178   8.043
 3077SOL    HW211064   3.187   2.232   7.972
 3078SOL     OW11065   3.893   9.895  13.684
 3078SOL    HW111066   3.919   9.976  13.641
 3078SOL    HW211067   3.966   9.874  13.743
 3079SOL     OW11068   0.776   9.154   3.684
 3079SOL    HW111069   0.733   9.071   3.700
 3079SOL    HW211070   0.868   9.139   3.709
 3080SOL     OW11071  13.267   4.368   2.785
 3080SOL    HW111072  13.244   4.279   2.813
 3080SOL    HW211073  13.353   4.384   2.824
 3081SOL     OW11074   9.277   3.770   7.986
 3081SOL    HW111075   9.204   3.832   7.978
 3081SOL    HW211076   9.351   3.823   8.016
 3082SOL     OW11077   5.094   0.634   4.975
 3082SOL    HW111078   5.145   0.565   5.017
 3082SOL    HW211079   5.007   0.627   5.015
 3083SOL     OW11080   6.371   5.192   9.682
 3083SOL    HW111081   6.319   5.263   9.642
 3083SOL    HW211082   6.329   5.112   9.652
 3084SOL     OW11083   7.662   2.888  12.268
 3084SOL    HW111084   7.654   2.802  12.309
 3084SOL    HW211085   7.582   2.898  12.217
 3085SOL     OW11086   3.006   9.445   2.651
 3085SOL    HW111087   3.036   9.472   2.564
 3085SOL    HW211088   2.968   9.359   2.637
 3086SOL     OW11089   4.095   0.161   6.158
 3086SOL    HW111090   4.033   0.121   6.219
 3086SOL    HW211091   4.049   0.236   6.122
 3087SOL     OW11092   4.533  10.174  12.684
 3087SOL    HW111093   4.567  10.263  12.675
 3087SOL    HW211094   4.533  10.140  12.595
 3088SOL     OW11095  10.967   8.191  11.525
 3088SOL    HW111096  10.912   8.266  11.549
 3088SOL    HW211097  10.918   8.115  11.556
 3089SOL     OW11098   6.776  10.474  13.761
 3089SOL    HW111099   6.797  10.474  13.854
 3089SOL    HW211100   6.858  10.450  13.718
 3090SOL     OW11101   4.784   4.493   5.905
 3090SOL    HW111102   4.817   4.407   5.878
 3090SOL    HW211103   4.689   4.487   5.895
 3091SOL     OW11104  14.536  10.869   0.886
 3091SOL    HW111105  14.489  10.829   0.960
 3091SOL    HW211106  14.535  10.963   0.905
 3092SOL     OW11107   5.958   1.383   9.217
 3092SOL    HW111108   5.972   1.418   9.129
 3092SOL    HW211109   6.004   1.443   9.275
 3093SOL     OW11110  13.419   4.739   7.119
 3093SOL    HW111111  13.419   4.670   7.052
 3093SOL    HW211112  13.482   4.708   7.184
 3094SOL     OW11113   5.423   1.888  13.301
 3094SOL    HW111114   5.408   1.794  13.311
 3094SOL    HW211115   5.492   1.907  13.365
 3095SOL     OW11116   1.767   2.761   6.912
 3095SOL    HW111117   1.792   2.674   6.882
 3095SOL    HW211118   1.794   2.819   6.841
 3096SOL     OW11119   5.424   0.417   5.030
 3096SOL    HW111120   5.430   0.435   5.124
 3096SOL    HW211121   5.465   0.493   4.989
 3097SOL     OW11122   9.346  10.849   3.577
 3097SOL    HW111123   9.320  10.758   3.589
 3097SOL    HW211124   9.293  10.879   3.503
 3098SOL     OW11125  11.158   8.380  11.066
 3098SOL    HW111126  11.174   8.420  11.151
 3098SOL    HW211127  11.232   8.320  11.053
 3099SOL     OW11128   9.111   4.766  11.995
 3099SOL    HW111129   9.089   4.743  11.905
 3099SOL    HW211130   9.104   4.861  11.998
 3100SOL     OW11131  14.016   8.449   2.714
 3100SOL    HW111132  13.976   8.531   2.683
 3100SOL    HW211133  13.969   8.427   2.794
 3101SOL     OW11134   0.728   9.100   3.058
 3101SOL    HW111135   0.655   9.039   3.072
 3101SOL    HW211136   0.743   9.098   2.963
 3102SOL     OW11137   3.549   8.272   7.332
 3102SOL    HW111138   3.634   8.314   7.318
 3102SOL    HW211139   3.549   8.197   7.274
 3103SOL     OW11140   9.365   4.219   4.396
 3103SOL    HW111141   9.435   4.264   4.349
 3103SOL    HW211142   9.311   4.289   4.433
 3104SOL     OW11143   3.690   7.750  12.763
 3104SOL    HW111144   3.785   7.764  12.765
 3104SOL    HW211145   3.670   7.713  12.849
 3105SOL     OW11146   8.801   2.423   4.687
 3105SOL    HW111147   8.740   2.383   4.626
 3105SOL    HW211148   8.822   2.508   4.648
 3106SOL     OW11149   4.381   9.201   9.674
 3106SOL    HW111150   4.351   9.116   9.708
 3106SOL    HW211151   4.441   9.234   9.741
 3107SOL     OW11152   4.511   5.682   0.820
 3107SOL    HW111153   4.565   5.731   0.758
 3107SOL    HW211154   4.573   5.647   0.885
 3108SOL     OW11155   6.802   6.151   9.397
 3108SOL    HW111156   6.741   6.211   9.441
 3108SOL    HW211157   6.841   6.204   9.327
 3109SOL     OW11158   1.254   4.139   4.088
 3109SOL    HW111159   1.200   4.146   4.009
 3109SOL    HW211160   1.277   4.230   4.109
 3110SOL     OW11161   4.134  14.800  12.163
 3110SOL    HW111162   4.104   0.009  12.169
 3110SOL    HW211163   4.203  14.802  12.097
 3111SOL     OW11164   1.947   2.466   9.525
 3111SOL    HW111165   2.014   2.482   9.459
 3111SOL    HW211166   1.922   2.374   9.514
 3112SOL     OW11167   0.866   6.678  13.291
 3112SOL    HW111168   0.909   6.756  13.257
 3112SOL    HW211169   0.911   6.605  13.247
 3113SOL     OW11170   6.506   1.173   7.315
 3113SOL    HW111171   6.558   1.222   7.378
 3113SOL    HW211172   6.547   1.086   7.311
 3114SOL     OW11173   7.397   8.341   2.475
 3114SOL    HW111174   7.473   8.384   2.436
 3114SOL    HW211175   7.413   8.247   2.463
 3115SOL     OW11176   8.687  12.919   6.135
 3115SOL    HW111177   8.603  12.951   6.102
 3115SOL    HW211178   8.746  12.994   6.126
 3116SOL     OW11179  10.759   2.211   2.237
 3116SOL    HW111180  10.739   2.131   2.187
 3116SOL    HW211181  10.678   2.230   2.284
 3117SOL     OW11182   1.898   3.650   4.082
 3117SOL    HW111183   1.978   3.615   4.043
 3117SOL    HW211184   1.912   3.744   4.087
 3118SOL     OW11185   6.950  10.278   8.223
 3118SOL    HW111186   6.993  10.248   8.142
 3118SOL    HW211187   6.864  10.237   8.221
 3119SOL     OW11188  13.031   3.576  14.001
 3119SOL    HW111189  12.956   3.573  14.061
 3119SOL    HW211190  13.031   3.665  13.966
 3120SOL     OW11191   1.298  12.136   6.522
 3120SOL    HW111192   1.362  12.207   6.519
 3120SOL    HW211193   1.213  12.179   6.513
 3121SOL     OW11194   7.131   0.950   4.643
 3121SOL    HW111195   7.055   0.941   4.700
 3121SOL    HW211196   7.121   1.037   4.603
 3122SOL     OW11197  10.127   6.689   1.445
 3122SOL    HW111198  10.053   6.683   1.506
 3122SOL    HW211199  10.116   6.775   1.403
 3123SOL     OW11200  13.248  10.534   6.219
 3123SOL    HW111201  13.204  10.482   6.152
 3123SOL    HW211202  13.199  10.616   6.223
 3124SOL     OW11203   8.510   8.077  14.107
 3124SOL    HW111204   8.416   8.094  14.102
 3124SOL    HW211205   8.518   8.002  14.165
 3125SOL     OW11206   5.188   3.819   8.814
 3125SOL    HW111207   5.160   3.728   8.824
 3125SOL    HW211208   5.169   3.859   8.899
 3126SOL     OW11209   7.810   3.057   5.866
 3126SOL    HW111210   7.767   3.123   5.812
 3126SOL    HW211211   7.819   3.097   5.952
 3127SOL     OW11212   9.544   1.104   0.068
 3127SOL    HW111213   9.530   1.025   0.015
 3127SOL    HW211214   9.634   1.096   0.100
 3128SOL     OW11215   5.218   9.494   5.352
 3128SOL    HW111216   5.228   9.406   5.316
 3128SOL    HW211217   5.246   9.552   5.282
 3129SOL     OW11218   2.252   5.973   0.957
 3129SOL    HW111219   2.220   5.975   0.866
 3129SOL    HW211220   2.180   6.011   1.008
 3130SOL     OW11221  10.325   6.152   5.691
 3130SOL    HW111222  10.408   6.113   5.664
 3130SOL    HW211223  10.332   6.162   5.786
 3131SOL     OW11224  13.755   3.372   7.800
 3131SOL    HW111225  13.836   3.346   7.843
 3131SOL    HW211226  13.688   3.365   7.868
 3132SOL     OW11227   9.903   0.386   0.438
 3132SOL    HW111228   9.839   0.337   0.387
 3132SOL    HW211229   9.853   0.422   0.511
 3133SOL     OW11230  10.714   6.991  10.484
 3133SOL    HW111231  10.633   6.943  10.499
 3133SOL    HW211232  10.773   6.961  10.553
 3134SOL     OW11233   6.737   4.997  12.921
 3134SOL    HW111234   6.756   5.010  12.829
 3134SOL    HW211235   6.641   5.002  12.927
 3135SOL     OW11236  10.153   6.839   9.903
 3135SOL    HW111237  10.117   6.793   9.979
 3135SOL    HW211238  10.076   6.868   9.854
 3136SOL     OW11239   1.513   2.103   4.406
 3136SOL    HW111240   1.434   2.066   4.368
 3136SOL    HW211241   1.483   2.157   4.479
 3137SOL     OW11242   8.286   8.396   2.064
 3137SOL    HW111243   8.361   8.445   2.030
 3137SOL    HW211244   8.306   8.381   2.156
 3138SOL     OW11245   6.596   8.007  13.347
 3138SOL    HW111246   6.635   8.075  13.292
 3138SOL    HW211247   6.670   7.968  13.393
 3139SOL     OW11248   4.377   0.259   6.197
 3139SOL    HW111249   4.415   0.231   6.114
 3139SOL    HW211250   4.283   0.249   6.185
 3140SOL     OW11251   3.383   2.000   3.479
 3140SOL    HW111252   3.369   1.965   3.391
 3140SOL    HW211253   3.395   2.094   3.465
 3141SOL     OW11254  11.194   6.961   7.708
 3141SOL    HW111255  11.183   7.052   7.678
 3141SOL    HW211256  11.134   6.911   7.653
 3142SOL     OW11257  10.124  10.689   8.151
 3142SOL    HW111258  10.052  10.717   8.096
 3142SOL    HW211259  10.157  10.769   8.191
 3143SOL     OW11260  12.256  12.139   9.217
 3143SOL    HW111261  12.165  12.122   9.193
 3143SOL    HW211262  12.303  12.058   9.196
 3144SOL     OW11263   4.588   6.986  10.761
 3144SOL    HW111264   4.494   6.981  10.781
 3144SOL    HW211265   4.593   7.042  10.684
 3145SOL     OW11266   0.615   3.967   2.042
 3145SOL    HW111267   0.611   4.061   2.029
 3145SOL    HW211268   0.639   3.956   2.134
 3146SOL     OW11269  10.928  11.208   6.504
 3146SOL    HW111270  10.867  11.238   6.572
 3146SOL    HW211271  10.876  11.147   6.452
 3147SOL     OW11272   6.428   8.536   8.772
 3147SOL    HW111273   6.410   8.537   8.866
 3147SOL    HW211274   6.475   8.454   8.759
 3148SOL     OW11275   0.653   3.809   5.160
 3148SOL    HW111276   0.671   3.750   5.233
 3148SOL    HW211277   0.696   3.891   5.184
 3149SOL     OW11278  14.343  13.404   6.499
 3149SOL    HW111279  14.275  13.459   6.459
 3149SOL    HW211280  14.361  13.337   6.432
 3150SOL     OW11281   6.629  13.603   6.037
 3150SOL    HW111282   6.546  13.592   5.990
 3150SOL    HW211283   6.615  13.680   6.092
 3151SOL     OW11284   9.496   1.797   9.578
 3151SOL    HW111285   9.483   1.709   9.542
 3151SOL    HW211286   9.408   1.832   9.588
 3152SOL     OW11287   8.283   2.132   3.872
 3152SOL    HW111288   8.304   2.039   3.876
 3152SOL    HW211289   8.253   2.146   3.782
 3153SOL     OW11290   7.766   2.959   2.841
 3153SOL    HW111291   7.713   3.016   2.786
 3153SOL    HW211292   7.842   3.012   2.864
 3154SOL     OW11293   2.083   9.532   3.255
 3154SOL    HW111294   2.131   9.471   3.312
 3154SOL    HW211295   1.998   9.490   3.241
 3155SOL     OW11296   5.722   9.219   2.798
 3155SOL    HW111297   5.762   9.136   2.825
 3155SOL    HW211298   5.691   9.202   2.710
 3156SOL     OW11299   9.189   1.633   6.530
 3156SOL    HW111300   9.244   1.607   6.456
 3156SOL    HW211301   9.112   1.577   6.523
 3157SOL     OW11302   3.764   3.078   4.827
 3157SOL    HW111303   3.712   3.003   4.854
 3157SOL    HW211304   3.735   3.149   4.884
 3158SOL     OW11305  10.181  11.685  10.869
 3158SOL    HW111306  10.267  11.669  10.830
 3158SOL    HW211307  10.155  11.771  10.836
 3159SOL     OW11308   0.427   8.739  12.843
 3159SOL    HW111309   0.403   8.828  12.871
 3159SOL    HW211310   0.521   8.732  12.862
 3160SOL     OW11311   0.611  11.514   1.885
 3160SOL    HW111312   0.654  11.599   1.877
 3160SOL    HW211313   0.676  11.457   1.926
 3161SOL     OW11314  13.841   7.630   1.550
 3161SOL    HW111315  13.793   7.577   1.614
 3161SOL    HW211316  13.845   7.717   1.589
 3162SOL     OW11317   1.444   0.642  13.670
 3162SOL    HW111318   1.467   0.550  13.669
 3162SOL    HW211319   1.358   0.644  13.714
 3163SOL     OW11320   2.768   6.798   6.040
 3163SOL    HW111321   2.845   6.814   5.984
 3163SOL    HW211322   2.693   6.816   5.983
 3164SOL     OW11323   2.653  12.275  11.147
 3164SOL    HW111324   2.570  12.237  11.175
 3164SOL    HW211325   2.667  12.350  11.205
 3165SOL     OW11326   6.666  12.224   7.215
 3165SOL    HW111327   6.671  12.320   7.208
 3165SOL    HW211328   6.644  12.208   7.307
 3166SOL     OW11329  14.842   4.699   6.520
 3166SOL    HW111330  14.859   4.651   6.439
 3166SOL    HW211331  14.835   4.791   6.492
 3167SOL     OW11332  12.901   8.279   2.554
 3167SOL    HW111333  12.858   8.317   2.630
 3167SOL    HW211334  12.837   8.217   2.519
 3168SOL     OW11335   2.073   4.488   0.356
 3168SOL    HW111336   2.096   4.556   0.419
 3168SOL    HW211337   2.156   4.446   0.334
 3169SOL     OW11338   1.805   8.574  13.018
 3169SOL    HW111339   1.738   8.507  13.000
 3169SOL    HW211340   1.802   8.631  12.942
 3170SOL     OW11341   6.859   0.646   3.763
 3170SOL    HW111342   6.824   0.659   3.675
 3170SOL    HW211343   6.798   0.583   3.803
 3171SOL     OW11344   9.990   5.633   0.487
 3171SOL    HW111345   9.895   5.625   0.478
 3171SOL    HW211346  10.002   5.700   0.555
 3172SOL     OW11347   4.535   3.027  11.289
 3172SOL    HW111348   4.512   2.934  11.282
 3172SOL    HW211349   4.592   3.043  11.213
 3173SOL     OW11350   6.128  12.630   0.867
 3173SOL    HW111351   6.191  12.558   0.866
 3173SOL    HW211352   6.182  12.709   0.866
 3174SOL     OW11353   9.983  10.341   4.559
 3174SOL    HW111354   9.891  10.316   4.548
 3174SOL    HW211355  10.007  10.381   4.476
 3175SOL     OW11356   7.437  12.219   5.273
 3175SOL    HW111357   7.487  12.137   5.280
 3175SOL    HW211358   7.430  12.250   5.364
 3176SOL     OW11359   5.814   7.581   9.090
 3176SOL    HW111360   5.866   7.658   9.117
 3176SOL    HW211361   5.853   7.554   9.007
 3177SOL     OW11362   6.766   3.395   4.894
 3177SOL    HW111363   6.721   3.315   4.866
 3177SOL    HW211364   6.695   3.454   4.920
 3178SOL     OW11365   9.413   7.582   9.454
 3178SOL    HW111366   9.360   7.651   9.415
 3178SOL    HW211367   9.365   7.501   9.435
 3179SOL     OW11368  12.742   4.833  10.582
 3179SOL    HW111369  12.675   4.793  10.638
 3179SOL    HW211370  12.696   4.853  10.500
 3180SOL     OW11371   7.631   9.184   8.524
 3180SOL    HW111372   7.712   9.208   8.480
 3180SOL    HW211373   7.659   9.146   8.607
 3181SOL     OW11374   1.872   1.720   5.724
 3181SOL    HW111375   1.884   1.688   5.635
 3181SOL    HW211376   1.926   1.663   5.779
 3182SOL     OW11377  11.757   1.160  13.438
 3182SOL    HW111378  11.706   1.150  13.358
 3182SOL    HW211379  11.702   1.122  13.507
 3183SOL     OW11380   7.388   9.505   8.839
 3183SOL    HW111381   7.295   9.501   8.813
 3183SOL    HW211382   7.414   9.414   8.849
 3184SOL     OW11383   4.406  10.610  12.141
 3184SOL    HW111384   4.345  10.641  12.074
 3184SOL    HW211385   4.492  10.617  12.100
 3185SOL     OW11386   3.221   3.171   6.998
 3185SOL    HW111387   3.290   3.236   7.013
 3185SOL    HW211388   3.157   3.188   7.068
 3186SOL     OW11389  12.102   3.777   5.406
 3186SOL    HW111390  12.166   3.765   5.336
 3186SOL    HW211391  12.080   3.870   5.402
 3187SOL     OW11392  12.872   9.045  12.427
 3187SOL    HW111393  12.858   9.040  12.522
 3187SOL    HW211394  12.809   8.983  12.390
 3188SOL     OW11395  12.820   5.612  10.854
 3188SOL    HW111396  12.794   5.624  10.762
 3188SOL    HW211397  12.859   5.524  10.856
 3189SOL     OW11398  11.742  12.312   0.540
 3189SOL    HW111399  11.836  12.297   0.549
 3189SOL    HW211400  11.711  12.240   0.486
 3190SOL     OW11401  14.424   3.606  12.194
 3190SOL    HW111402  14.351   3.664  12.175
 3190SOL    HW211403  14.384   3.521  12.209
 3191SOL     OW11404  12.473   5.692   3.407
 3191SOL    HW111405  12.455   5.777   3.365
 3191SOL    HW211406  12.449   5.705   3.498
 3192SOL     OW11407  12.220   4.537   3.982
 3192SOL    HW111408  12.230   4.618   3.933
 3192SOL    HW211409  12.138   4.499   3.950
 3193SOL     OW11410   3.469  11.501   9.885
 3193SOL    HW111411   3.483  11.409   9.864
 3193SOL    HW211412   3.409  11.501   9.960
 3194SOL     OW11413   2.192   3.485  14.128
 3194SOL    HW111414   2.214   3.440  14.210
 3194SOL    HW211415   2.261   3.459  14.067
 3195SOL     OW11416   4.162  11.356   0.096
 3195SOL    HW111417   4.128  11.433   0.051
 3195SOL    HW211418   4.177  11.386   0.186
 3196SOL     OW11419   5.139  10.520   3.353
 3196SOL    HW111420   5.115  10.428   3.360
 3196SOL    HW211421   5.225  10.526   3.396
 3197SOL     OW11422  12.779   6.177   7.909
 3197SOL    HW111423  12.727   6.171   7.829
 3197SOL    HW211424  12.791   6.087   7.937
 3198SOL     OW11425  14.623  14.658   2.982
 3198SOL    HW111426  14.610  14.596   3.053
 3198SOL    HW211427  14.611  14.744   3.022
 3199SOL     OW11428  12.276   6.605  13.945
 3199SOL    HW111429  12.341   6.536  13.958
 3199SOL    HW211430  12.253   6.634  14.033
 3200SOL     OW11431  13.224   9.411   5.511
 3200SOL    HW111432  13.281   9.382   5.440
 3200SOL    HW211433  13.284   9.428   5.584
 3201SOL     OW11434   7.943   4.394  10.104
 3201SOL    HW111435   7.855   4.364  10.126
 3201SOL    HW211436   7.950   4.481  10.143
 3202SOL     OW11437   2.267   5.697   0.483
 3202SOL    HW111438   2.255   5.634   0.555
 3202SOL    HW211439   2.358   5.686   0.457
 3203SOL     OW11440  14.625  10.791  11.968
 3203SOL    HW111441  14.574  10.710  11.966
 3203SOL    HW211442  14.716  10.762  11.966
 3204SOL     OW11443   2.977  13.505   1.173
 3204SOL    HW111444   3.027  13.424   1.181
 3204SOL    HW211445   2.927  13.510   1.255
 3205SOL     OW11446  12.070   2.482   9.417
 3205SOL    HW111447  12.079   2.392   9.387
 3205SOL    HW211448  11.980   2.506   9.392
 3206SOL     OW11449   4.194  11.426  12.983
 3206SOL    HW111450   4.227  11.467  12.903
 3206SOL    HW211451   4.099  11.422  12.971
 3207SOL     OW11452   1.432  11.637  10.599
 3207SOL    HW111453   1.516  11.606  10.634
 3207SOL    HW211454   1.367  11.579  10.637
 3208SOL     OW11455   6.096   1.432   4.271
 3208SOL    HW111456   6.065   1.411   4.183
 3208SOL    HW211457   6.173   1.375   4.283
 3209SOL     OW11458  13.991  11.584  12.228
 3209SOL    HW111459  13.933  11.596  12.152
 3209SOL    HW211460  14.052  11.658  12.222
 3210SOL     OW11461   8.629   4.991   2.540
 3210SOL    HW111462   8.565   5.027   2.602
 3210SOL    HW211463   8.619   4.896   2.548
 3211SOL     OW11464   3.751  12.147  10.838
 3211SOL    HW111465   3.657  12.134  10.837
 3211SOL    HW211466   3.772  12.186  10.753
 3212SOL     OW11467  11.254  10.542   3.211
 3212SOL    HW111468  11.334  10.578   3.251
 3212SOL    HW211469  11.278  10.527   3.120
 3213SOL     OW11470   1.561   9.072  11.089
 3213SOL    HW111471   1.620   9.055  11.015
 3213SOL    HW211472   1.605   9.141  11.138
 3214SOL     OW11473   3.808   4.063   5.927
 3214SOL    HW111474   3.767   4.035   6.008
 3214SOL    HW211475   3.747   4.036   5.858
 3215SOL     OW11476   3.744   1.424  12.387
 3215SOL    HW111477   3.696   1.504  12.408
 3215SOL    HW211478   3.684   1.375  12.331
 3216SOL     OW11479   9.902   1.458   9.561
 3216SOL    HW111480   9.970   1.518   9.531
 3216SOL    HW211481   9.836   1.459   9.492
 3217SOL     OW11482   2.822   0.131   6.749
 3217SOL    HW111483   2.782   0.137   6.835
 3217SOL    HW211484   2.869   0.048   6.750
 3218SOL     OW11485  14.875   7.780   8.314
 3218SOL    HW111486  14.798   7.825   8.279
 3218SOL    HW211487   0.037   7.846   8.368
 3219SOL     OW11488  10.534   4.397   6.236
 3219SOL    HW111489  10.500   4.484   6.215
 3219SOL    HW211490  10.622   4.413   6.271
 3220SOL     OW11491   5.194   6.547   0.039
 3220SOL    HW111492   5.201   6.495  14.841
 3220SOL    HW211493   5.115   6.516   0.081
 3221SOL     OW11494  12.262   9.292   0.162
 3221SOL    HW111495  12.194   9.284   0.096
 3221SOL    HW211496  12.290   9.202   0.178
 3222SOL     OW11497   6.383  10.079  10.917
 3222SOL    HW111498   6.346  10.158  10.877
 3222SOL    HW211499   6.440  10.111  10.987
 3223SOL     OW11500   8.338  11.922  12.317
 3223SOL    HW111501   8.251  11.914  12.354
 3223SOL    HW211502   8.347  11.845  12.260
 3224SOL     OW11503  14.020  12.250   4.710
 3224SOL    HW111504  13.938  12.300   4.709
 3224SOL    HW211505  14.016  12.195   4.631
 3225SOL     OW11506   0.084   6.108   0.828
 3225SOL    HW111507   0.153   6.126   0.891
 3225SOL    HW211508   0.026   6.184   0.833
 3226SOL     OW11509  14.525  11.084   2.023
 3226SOL    HW111510  14.579  11.094   1.944
 3226SOL    HW211511  14.558  11.004   2.065
 3227SOL     OW11512   6.686  14.538   5.768
 3227SOL    HW111513   6.632  14.460   5.781
 3227SOL    HW211514   6.757  14.530   5.833
 3228SOL     OW11515   2.334   0.030   8.107
 3228SOL    HW111516   2.375   0.071   8.184
 3228SOL    HW211517   2.347   0.094   8.037
 3229SOL     OW11518   4.777   6.487   6.106
 3229SOL    HW111519   4.854   6.497   6.162
 3229SOL    HW211520   4.706   6.462   6.165
 3230SOL     OW11521   9.097  10.317   9.696
 3230SOL    HW111522   9.151  10.359   9.629
 3230SOL    HW211523   9.122  10.224   9.692
 3231SOL     OW11524  10.269  12.989  12.244
 3231SOL    HW111525  10.239  13.076  12.270
 3231SOL    HW211526  10.189  12.936  12.241
 3232SOL     OW11527   6.553  13.652   3.424
 3232SOL    HW111528   6.463  13.623   3.409
 3232SOL    HW211529   6.592  13.657   3.337
 3233SOL     OW11530  14.283  12.440   7.443
 3233SOL    HW111531  14.292  12.403   7.530
 3233SOL    HW211532  14.237  12.373   7.392
 3234SOL     OW11533   5.343   1.855   6.775
 3234SOL    HW111534   5.360   1.949   6.776
 3234SOL    HW211535   5.416   1.817   6.726
 3235SOL     OW11536  11.045  11.478  10.485
 3235SOL    HW111537  11.082  11.521  10.408
 3235SOL    HW211538  10.976  11.421  10.450
 3236SOL     OW11539   3.284   0.902   0.459
 3236SOL    HW111540   3.193   0.920   0.480
 3236SOL    HW211541   3.334   0.952   0.524
 3237SOL     OW11542  13.287   9.602   9.110
 3237SOL    HW111543  13.226   9.672   9.089
 3237SOL    HW211544  13.231   9.528   9.134
 3238SOL     OW11545   7.317  11.251  13.478
 3238SOL    HW111546   7.296  11.232  13.387
 3238SOL    HW211547   7.360  11.336  13.476
 3239SOL     OW11548   6.207   7.831   8.055
 3239SOL    HW111549   6.182   7.822   7.963
 3239SOL    HW211550   6.299   7.806   8.057
 3240SOL     OW11551   0.517  14.798   2.059
 3240SOL    HW111552   0.500  14.708   2.085
 3240SOL    HW211553   0.553  14.839   2.138
 3241SOL     OW11554   4.367  14.221   6.965
 3241SOL    HW111555   4.329  14.242   7.050
 3241SOL    HW211556   4.322  14.141   6.937
 3242SOL     OW11557  14.485  12.398  12.146
 3242SOL    HW111558  14.396  12.365  12.128
 3242SOL    HW211559  14.535  12.377  12.067
 3243SOL     OW11560   8.529   7.327  11.426
 3243SOL    HW111561   8.512   7.295  11.514
 3243SOL    HW211562   8.599   7.270  11.393
 3244SOL     OW11563   8.731  11.794  11.562
 3244SOL    HW111564   8.645  11.787  11.604
 3244SOL    HW211565   8.790  11.823  11.632
 3245SOL     OW11566   9.780   1.236  13.640
 3245SOL    HW111567   9.724   1.158  13.646
 3245SOL    HW211568   9.842   1.214  13.571
 3246SOL     OW11569   6.695   0.087   3.048
 3246SOL    HW111570   6.612   0.053   3.017
 3246SOL    HW211571   6.728   0.020   3.107
 3247SOL     OW11572  11.223   5.829   1.814
 3247SOL    HW111573  11.240   5.915   1.777
 3247SOL    HW211574  11.257   5.834   1.903
 3248SOL     OW11575  13.560   2.517   7.066
 3248SOL    HW111576  13.601   2.582   7.009
 3248SOL    HW211577  13.496   2.473   7.010
 3249SOL     OW11578   2.479   8.562  11.872
 3249SOL    HW111579   2.417   8.552  11.943
 3249SOL    HW211580   2.425   8.575  11.794
 3250SOL     OW11581  10.022  11.619   1.204
 3250SOL    HW111582  10.071  11.654   1.130
 3250SOL    HW211583  10.085  11.567   1.253
 3251SOL     OW11584  12.405   8.992   1.890
 3251SOL    HW111585  12.336   8.948   1.840
 3251SOL    HW211586  12.465   8.922   1.915
 3252SOL     OW11587   6.039  10.207  10.000
 3252SOL    HW111588   6.095  10.144  10.045
 3252SOL    HW211589   5.968  10.154   9.963
 3253SOL     OW11590  12.477   0.238   5.902
 3253SOL    HW111591  12.493   0.323   5.942
 3253SOL    HW211592  12.424   0.257   5.824
 3254SOL     OW11593   3.883   3.562   7.080
 3254SOL    HW111594   3.902   3.648   7.119
 3254SOL    HW211595   3.923   3.499   7.140
 3255SOL     OW11596   6.201  14.343  12.859
 3255SOL    HW111597   6.277  14.378  12.906
 3255SOL    HW211598   6.135  14.412  12.866
 3256SOL     OW11599   1.804   4.940   1.833
 3256SOL    HW111600   1.896   4.932   1.858
 3256SOL    HW211601   1.761   4.866   1.875
 3257SOL     OW11602  13.663   9.968  14.845
 3257SOL    HW111603  13.686   9.950  14.754
 3257SOL    HW211604  13.740   9.943   0.014
 3258SOL     OW11605  13.667   1.944   2.118
 3258SOL    HW111606  13.622   1.894   2.050
 3258SOL    HW211607  13.622   1.919   2.199
 3259SOL     OW11608  10.485  11.068   4.671
 3259SOL    HW111609  10.519  11.005   4.734
 3259SOL    HW211610  10.391  11.051   4.668
 3260SOL     OW11611  10.995   4.630  11.950
 3260SOL    HW111612  10.989   4.592  11.862
 3260SOL    HW211613  11.022   4.558  12.006
 3261SOL     OW11614   9.871  11.981  11.819
 3261SOL    HW111615   9.959  12.001  11.786
 3261SOL    HW211616   9.877  11.994  11.913
 3262SOL     OW11617  14.022   1.786   9.726
 3262SOL    HW111618  13.941   1.813   9.769
 3262SOL    HW211619  13.996   1.716   9.667
 3263SOL     OW11620  14.516   7.025   7.808
 3263SOL    HW111621  14.515   7.008   7.714
 3263SOL    HW211622  14.609   7.024   7.831
 3264SOL     OW11623  12.238   3.263   0.938
 3264SOL    HW111624  12.171   3.247   0.872
 3264SOL    HW211625  12.189   3.297   1.013
 3265SOL     OW11626  11.023   6.405   9.685
 3265SOL    HW111627  11.113   6.374   9.694
 3265SOL    HW211628  11.030   6.493   9.650
 3266SOL     OW11629  12.547   1.588   5.785
 3266SOL    HW111630  12.462   1.630   5.799
 3266SOL    HW211631  12.565   1.543   5.868
 3267SOL     OW11632  14.011  12.251   0.342
 3267SOL    HW111633  13.923  12.245   0.305
 3267SOL    HW211634  14.003  12.317   0.412
 3268SOL     OW11635   8.966   8.044  14.411
 3268SOL    HW111636   9.040   8.009  14.362
 3268SOL    HW211637   8.889   8.009  14.367
 3269SOL     OW11638   7.006  10.110   5.382
 3269SOL    HW111639   7.059  10.129   5.459
 3269SOL    HW211640   7.034  10.023   5.355
 3270SOL     OW11641   5.824   8.574   3.659
 3270SOL    HW111642   5.753   8.625   3.618
 3270SOL    HW211643   5.904   8.620   3.634
 3271SOL     OW11644   5.555   6.759  10.742
 3271SOL    HW111645   5.586   6.790  10.827
 3271SOL    HW211646   5.566   6.664  10.745
 3272SOL     OW11647   7.898   1.323   6.566
 3272SOL    HW111648   7.968   1.261   6.545
 3272SOL    HW211649   7.838   1.318   6.492
 3273SOL     OW11650  13.064   8.510  12.515
 3273SOL    HW111651  13.134   8.453  12.548
 3273SOL    HW211652  13.108   8.573  12.459
 3274SOL     OW11653   1.742  12.885   5.581
 3274SOL    HW111654   1.756  12.791   5.566
 3274SOL    HW211655   1.823  12.915   5.623
 3275SOL     OW11656   3.805   4.316   9.302
 3275SOL    HW111657   3.865   4.259   9.254
 3275SOL    HW211658   3.822   4.403   9.267
 3276SOL     OW11659   9.899   2.961   7.081
 3276SOL    HW111660   9.945   3.045   7.084
 3276SOL    HW211661   9.899   2.930   7.171
 3277SOL     OW11662   0.493   8.584   0.910
 3277SOL    HW111663   0.489   8.490   0.923
 3277SOL    HW211664   0.483   8.596   0.816
 3278SOL     OW11665   2.864   7.893   0.042
 3278SOL    HW111666   2.867   7.942   0.124
 3278SOL    HW211667   2.925   7.821   0.055
 3279SOL     OW11668  12.461   2.979  14.288
 3279SOL    HW111669  12.500   3.000  14.372
 3279SOL    HW211670  12.535   2.977  14.227
 3280SOL     OW11671  13.816  14.488   8.854
 3280SOL    HW111672  13.746  14.544   8.819
 3280SOL    HW211673  13.798  14.483   8.948
 3281SOL     OW11674   1.320  13.820  11.470
 3281SOL    HW111675   1.287  13.792  11.384
 3281SOL    HW211676   1.415  13.815  11.463
 3282SOL     OW11677  10.910   2.794   4.407
 3282SOL    HW111678  10.866   2.852   4.470
 3282SOL    HW211679  10.840   2.763   4.350
 3283SOL     OW11680   5.805  14.024   2.866
 3283SOL    HW111681   5.779  13.935   2.891
 3283SOL    HW211682   5.754  14.081   2.924
 3284SOL     OW11683   4.874   4.089   9.039
 3284SOL    HW111684   4.813   4.057   8.973
 3284SOL    HW211685   4.831   4.166   9.077
 3285SOL     OW11686   5.415   1.726  13.903
 3285SOL    HW111687   5.457   1.641  13.901
 3285SOL    HW211688   5.392   1.745  13.812
 3286SOL     OW11689  14.858   4.630   1.901
 3286SOL    HW111690   0.037   4.704   1.894
 3286SOL    HW211691  14.848   4.615   1.995
 3287SOL     OW11692   1.212   2.492  11.035
 3287SOL    HW111693   1.283   2.552  11.059
 3287SOL    HW211694   1.251   2.405  11.038
 3288SOL     OW11695   9.827   1.495  12.886
 3288SOL    HW111696   9.907   1.510  12.936
 3288SOL    HW211697   9.758   1.490  12.951
 3289SOL     OW11698   0.489  14.140   0.445
 3289SOL    HW111699   0.542  14.201   0.496
 3289SOL    HW211700   0.424  14.195   0.402
 3290SOL     OW11701   1.124   5.951  11.676
 3290SOL    HW111702   1.041   5.915  11.643
 3290SOL    HW211703   1.128   5.923  11.767
 3291SOL     OW11704  12.443  13.825   9.776
 3291SOL    HW111705  12.466  13.747   9.724
 3291SOL    HW211706  12.499  13.894   9.741
 3292SOL     OW11707   3.796  12.644   9.516
 3292SOL    HW111708   3.758  12.726   9.484
 3292SOL    HW211709   3.816  12.661   9.608
 3293SOL     OW11710   5.208  12.984  14.637
 3293SOL    HW111711   5.155  13.062  14.622
 3293SOL    HW211712   5.222  12.947  14.550
 3294SOL     OW11713   6.169   1.129  10.678
 3294SOL    HW111714   6.206   1.171  10.756
 3294SOL    HW211715   6.160   1.200  10.615
 3295SOL     OW11716   8.407   6.507   1.252
 3295SOL    HW111717   8.475   6.456   1.209
 3295SOL    HW211718   8.344   6.526   1.183
 3296SOL     OW11719   0.743   5.511   3.422
 3296SOL    HW111720   0.650   5.529   3.438
 3296SOL    HW211721   0.743   5.435   3.364
 3297SOL     OW11722   1.069   2.881  14.039
 3297SOL    HW111723   1.122   2.960  14.047
 3297SOL    HW211724   1.120   2.813  14.084
 3298SOL     OW11725  12.094   9.857   3.146
 3298SOL    HW111726  12.186   9.830   3.157
 3298SOL    HW211727  12.055   9.844   3.232
 3299SOL     OW11728  13.577   3.169  13.762
 3299SOL    HW111729  13.627   3.106  13.711
 3299SOL    HW211730  13.630   3.249  13.760
 3300SOL     OW11731   0.396  11.450   1.758
 3300SOL    HW111732   0.470  11.485   1.809
 3300SOL    HW211733   0.429  11.370   1.719
 3301SOL     OW11734  10.255   0.453   8.288
 3301SOL    HW111735  10.164   0.474   8.270
 3301SOL    HW211736  10.252   0.374   8.342
 3302SOL     OW11737  14.231  10.917  10.770
 3302SOL    HW111738  14.293  10.908  10.698
 3302SOL    HW211739  14.278  10.969  10.836
 3303SOL     OW11740  11.716  14.311  12.930
 3303SOL    HW111741  11.740  14.315  13.023
 3303SOL    HW211742  11.798  14.288  12.885
 3304SOL     OW11743   5.861  14.077  13.995
 3304SOL    HW111744   5.798  14.023  13.946
 3304SOL    HW211745   5.810  14.113  14.068
 3305SOL     OW11746  12.778   2.272   2.566
 3305SOL    HW111747  12.815   2.359   2.552
 3305SOL    HW211748  12.775   2.233   2.479
 3306SOL     OW11749   3.236   9.865   4.396
 3306SOL    HW111750   3.316   9.825   4.361
 3306SOL    HW211751   3.169   9.844   4.330
 3307SOL     OW11752   8.638   8.198  13.557
 3307SOL    HW111753   8.589   8.252  13.620
 3307SOL    HW211754   8.709   8.160  13.608
 3308SOL     OW11755   3.770   0.024   5.101
 3308SOL    HW111756   3.804   0.112   5.086
 3308SOL    HW211757   3.820  14.873   5.176
 3309SOL     OW11758   7.919   5.306   2.553
 3309SOL    HW111759   7.964   5.363   2.615
 3309SOL    HW211760   7.908   5.224   2.600
 3310SOL     OW11761   5.876   6.522   3.964
 3310SOL    HW111762   5.841   6.433   3.959
 3310SOL    HW211763   5.859   6.559   3.877
 3311SOL     OW11764  13.528   8.647   7.692
 3311SOL    HW111765  13.590   8.577   7.713
 3311SOL    HW211766  13.552   8.673   7.603
 3312SOL     OW11767   3.608   2.079  14.302
 3312SOL    HW111768   3.550   2.098  14.228
 3312SOL    HW211769   3.556   2.100  14.380
 3313SOL     OW11770   5.233  13.588   0.567
 3313SOL    HW111771   5.180  13.512   0.544
 3313SOL    HW211772   5.237  13.587   0.662
 3314SOL     OW11773   9.519   6.943   6.395
 3314SOL    HW111774   9.479   7.010   6.450
 3314SOL    HW211775   9.490   6.860   6.434
 3315SOL     OW11776   7.362   8.715   7.790
 3315SOL    HW111777   7.361   8.621   7.808
 3315SOL    HW211778   7.429   8.750   7.849
 3316SOL     OW11779   4.377   2.344   4.270
 3316SOL    HW111780   4.330   2.274   4.225
 3316SOL    HW211781   4.387   2.413   4.205
 3317SOL     OW11782   1.475   2.937   6.022
 3317SOL    HW111783   1.521   3.017   6.049
 3317SOL    HW211784   1.504   2.923   5.932
 3318SOL     OW11785   1.106   3.770   0.679
 3318SOL    HW111786   1.088   3.732   0.593
 3318SOL    HW211787   1.111   3.695   0.738
 3319SOL     OW11788  13.200  12.765   2.373
 3319SOL    HW111789  13.243  12.700   2.318
 3319SOL    HW211790  13.240  12.848   2.347
 3320SOL     OW11791  10.525   9.629   8.944
 3320SOL    HW111792  10.525   9.692   8.871
 3320SOL    HW211793  10.454   9.569   8.923
 3321SOL     OW11794   4.923   2.519   1.925
 3321SOL    HW111795   5.012   2.483   1.915
 3321SOL    HW211796   4.869   2.443   1.949
 3322SOL     OW11797   7.013  13.759   4.907
 3322SOL    HW111798   7.061  13.834   4.942
 3322SOL    HW211799   7.072  13.722   4.841
 3323SOL     OW11800  10.659   7.186   2.189
 3323SOL    HW111801  10.663   7.242   2.266
 3323SOL    HW211802  10.705   7.106   2.216
 3324SOL     OW11803   1.167   0.788   1.152
 3324SOL    HW111804   1.106   0.820   1.218
 3324SOL    HW211805   1.120   0.798   1.069
 3325SOL     OW11806  13.510  10.955   1.661
 3325SOL    HW111807  13.452  10.940   1.735
 3325SOL    HW211808  13.532  10.868   1.628
 3326SOL     OW11809   8.660  12.759  12.245
 3326SOL    HW111810   8.597  12.794  12.182
 3326SOL    HW211811   8.743  12.760  12.198
 3327SOL     OW11812   8.946   0.205   1.740
 3327SOL    HW111813   8.942   0.196   1.836
 3327SOL    HW211814   8.923   0.297   1.724
 3328SOL     OW11815   1.026   1.504  14.476
 3328SOL    HW111816   0.942   1.463  14.454
 3328SOL    HW211817   1.021   1.591  14.438
 3329SOL     OW11818   3.542   6.657   1.452
 3329SOL    HW111819   3.599   6.610   1.391
 3329SOL    HW211820   3.526   6.741   1.410
 3330SOL     OW11821  14.485  14.491   5.146
 3330SOL    HW111822  14.479  14.397   5.165
 3330SOL    HW211823  14.456  14.499   5.055
 3331SOL     OW11824   0.907   9.472   1.436
 3331SOL    HW111825   0.969   9.545   1.441
 3331SOL    HW211826   0.957   9.396   1.468
 3332SOL     OW11827  10.768  14.030   5.176
 3332SOL    HW111828  10.679  13.998   5.165
 3332SOL    HW211829  10.758  14.116   5.217
 3333SOL     OW11830  14.772   2.864   5.928
 3333SOL    HW111831  14.789   2.796   5.993
 3333SOL    HW211832  14.752   2.816   5.847
 3334SOL     OW11833   6.306  10.382   8.789
 3334SOL    HW111834   6.242  10.311   8.785
 3334SOL    HW211835   6.319  10.408   8.698
 3335SOL     OW11836   1.383  11.825   5.255
 3335SOL    HW111837   1.442  11.753   5.276
 3335SOL    HW211838   1.384  11.881   5.333
 3336SOL     OW11839   4.878  14.077   6.877
 3336SOL    HW111840   4.877  14.059   6.971
 3336SOL    HW211841   4.807  14.024   6.841
 3337SOL     OW11842   7.101   0.974  11.718
 3337SOL    HW111843   7.055   0.927  11.788
 3337SOL    HW211844   7.190   0.939  11.720
 3338SOL     OW11845   4.870   3.463  14.871
 3338SOL    HW111846   4.949   3.500   0.028
 3338SOL    HW211847   4.883   3.368  14.876
 3339SOL     OW11848   5.873   6.915   6.837
 3339SOL    HW111849   5.808   6.861   6.791
 3339SOL    HW211850   5.950   6.857   6.846
 3340SOL     OW11851   1.628  11.347   2.655
 3340SOL    HW111852   1.637  11.299   2.573
 3340SOL    HW211853   1.717  11.373   2.679
 3341SOL     OW11854  12.054   1.773   8.869
 3341SOL    HW111855  12.042   1.816   8.784
 3341SOL    HW211856  11.999   1.695   8.864
 3342SOL     OW11857   9.376   7.778   9.648
 3342SOL    HW111858   9.405   7.699   9.604
 3342SOL    HW211859   9.290   7.756   9.684
 3343SOL     OW11860  13.639  12.634  10.108
 3343SOL    HW111861  13.575  12.587  10.163
 3343SOL    HW211862  13.596  12.716  10.086
 3344SOL     OW11863   3.003   2.406  14.255
 3344SOL    HW111864   3.098   2.402  14.252
 3344SOL    HW211865   2.975   2.382  14.166
 3345SOL     OW11866   2.086   3.847   6.358
 3345SOL    HW111867   2.115   3.898   6.434
 3345SOL    HW211868   2.011   3.896   6.324
 3346SOL     OW11869   0.305   8.644   4.954
 3346SOL    HW111870   0.374   8.623   5.017
 3346SOL    HW211871   0.327   8.591   4.877
 3347SOL     OW11872   0.230   7.613   0.301
 3347SOL    HW111873   0.273   7.658   0.374
 3347SOL    HW211874   0.195   7.533   0.340
 3348SOL     OW11875   5.504   8.638   9.917
 3348SOL    HW111876   5.520   8.604  10.005
 3348SOL    HW211877   5.570   8.596   9.862
 3349SOL     OW11878   2.119  10.102   9.749
 3349SOL    HW111879   2.068  10.058   9.817
 3349SOL    HW211880   2.075  10.077   9.667
 3350SOL     OW11881   5.565   8.263  12.151
 3350SOL    HW111882   5.570   8.240  12.058
 3350SOL    HW211883   5.488   8.215  12.182
 3351SOL     OW11884   5.099   7.845  11.027
 3351SOL    HW111885   5.052   7.896  10.961
 3351SOL    HW211886   5.032   7.820  11.090
 3352SOL     OW11887   8.347   8.218  12.778
 3352SOL    HW111888   8.267   8.168  12.758
 3352SOL    HW211889   8.382   8.176  12.856
 3353SOL     OW11890   5.813   3.503   0.712
 3353SOL    HW111891   5.805   3.548   0.796
 3353SOL    HW211892   5.722   3.493   0.682
 3354SOL     OW11893   0.272   6.464  11.406
 3354SOL    HW111894   0.367   6.474  11.403
 3354SOL    HW211895   0.249   6.482  11.497
 3355SOL     OW11896  14.599  13.030  11.481
 3355SOL    HW111897  14.602  12.944  11.439
 3355SOL    HW211898  14.526  13.075  11.438
 3356SOL     OW11899   6.295   0.233  12.533
 3356SOL    HW111900   6.220   0.243  12.475
 3356SOL    HW211901   6.267   0.273  12.616
 3357SOL     OW11902   7.327  13.063   2.611
 3357SOL    HW111903   7.263  13.065   2.540
 3357SOL    HW211904   7.312  12.979   2.654
 3358SOL     OW11905  11.041   0.116   2.331
 3358SOL    HW111906  11.080   0.031   2.310
 3358SOL    HW211907  10.997   0.143   2.251
 3359SOL     OW11908  14.360   6.712   3.198
 3359SOL    HW111909  14.313   6.640   3.240
 3359SOL    HW211910  14.436   6.727   3.254
 3360SOL     OW11911   5.885   2.707   7.447
 3360SOL    HW111912   5.810   2.673   7.496
 3360SOL    HW211913   5.857   2.703   7.355
 3361SOL     OW11914  14.807   5.326   0.983
 3361SOL    HW111915  14.795   5.289   1.070
 3361SOL    HW211916  14.751   5.273   0.926
 3362SOL     OW11917   8.972  12.101   4.894
 3362SOL    HW111918   8.900  12.147   4.851
 3362SOL    HW211919   9.047  12.113   4.836
 3363SOL     OW11920   6.193   4.366   6.451
 3363SOL    HW111921   6.185   4.275   6.481
 3363SOL    HW211922   6.143   4.368   6.369
 3364SOL     OW11923  13.245   7.156   3.806
 3364SOL    HW111924  13.283   7.105   3.878
 3364SOL    HW211925  13.316   7.161   3.741
 3365SOL     OW11926  13.060   9.177   0.807
 3365SOL    HW111927  13.138   9.193   0.753
 3365SOL    HW211928  12.996   9.240   0.775
 3366SOL     OW11929   4.701  10.660   1.974
 3366SOL    HW111930   4.678  10.641   1.883
 3366SOL    HW211931   4.747  10.744   1.970
 3367SOL     OW11932   1.376  10.102   9.742
 3367SOL    HW111933   1.352  10.192   9.720
 3367SOL    HW211934   1.328  10.049   9.678
 3368SOL     OW11935   4.858   5.895   0.264
 3368SOL    HW111936   4.931   5.916   0.207
 3368SOL    HW211937   4.833   5.806   0.240
 3369SOL     OW11938  10.638   8.056   0.948
 3369SOL    HW111939  10.719   8.080   0.992
 3369SOL    HW211940  10.574   8.045   1.019
 3370SOL     OW11941  11.419   3.209  11.651
 3370SOL    HW111942  11.477   3.168  11.715
 3370SOL    HW211943  11.332   3.174  11.672
 3371SOL     OW11944   3.580   8.686   7.884
 3371SOL    HW111945   3.648   8.691   7.952
 3371SOL    HW211946   3.628   8.664   7.804
 3372SOL     OW11947  14.518  11.367   1.421
 3372SOL    HW111948  14.482  11.429   1.484
 3372SOL    HW211949  14.573  11.420   1.364
 3373SOL     OW11950   9.169  11.277   1.958
 3373SOL    HW111951   9.258  11.307   1.974
 3373SOL    HW211952   9.148  11.222   2.033
 3374SOL     OW11953   9.893   9.495   5.895
 3374SOL    HW111954   9.803   9.517   5.871
 3374SOL    HW211955   9.904   9.403   5.869
 3375SOL     OW11956   0.336  12.732   0.254
 3375SOL    HW111957   0.355  12.825   0.271
 3375SOL    HW211958   0.246  12.733   0.221
 3376SOL     OW11959   5.279   8.991  13.894
 3376SOL    HW111960   5.228   9.071  13.886
 3376SOL    HW211961   5.218   8.927  13.932
 3377SOL     OW11962   1.080   6.312   6.438
 3377SOL    HW111963   0.994   6.337   6.403
 3377SOL    HW211964   1.062   6.284   6.528
 3378SOL     OW11965  14.856  12.376   3.822
 3378SOL    HW111966   0.033  12.405   3.752
 3378SOL    HW211967   0.029  12.323   3.880
 3379SOL     OW11968   0.893   7.019  13.925
 3379SOL    HW111969   0.832   6.955  13.888
 3379SOL    HW211970   0.885   7.008  14.020
 3380SOL     OW11971  12.301   8.658  10.399
 3380SOL    HW111972  12.285   8.611  10.318
 3380SOL    HW211973  12.233   8.725  10.402
 3381SOL     OW11974  13.638   8.066   7.544
 3381SOL    HW111975  13.668   8.126   7.612
 3381SOL    HW211976  13.545   8.084   7.535
 3382SOL     OW11977  14.393   4.001   0.214
 3382SOL    HW111978  14.336   3.981   0.140
 3382SOL    HW211979  14.340   3.984   0.292
 3383SOL     OW11980   2.341  14.765  14.625
 3383SOL    HW111981   2.420  14.765  14.679
 3383SOL    HW211982   2.270  14.742  14.685
 3384SOL     OW11983   0.886  10.878   2.150
 3384SOL    HW111984   0.795  10.862   2.172
 3384SOL    HW211985   0.926  10.908   2.232
 3385SOL     OW11986  11.866  12.413   2.902
 3385SOL    HW111987  11.943  12.468   2.912
 3385SOL    HW211988  11.818  12.422   2.985
 3386SOL     OW11989   8.389   4.794  12.267
 3386SOL    HW111990   8.415   4.712  12.309
 3386SOL    HW211991   8.304   4.815  12.306
 3387SOL     OW11992   1.626  12.603   3.649
 3387SOL    HW111993   1.658  12.515   3.670
 3387SOL    HW211994   1.698  12.643   3.601
 3388SOL     OW11995   3.076  12.181   3.189
 3388SOL    HW111996   3.123  12.116   3.136
 3388SOL    HW211997   3.000  12.133   3.224
 3389SOL     OW11998   3.110   9.740   6.919
 3389SOL    HW111999   3.117   9.807   6.851
 3389SOL    HW212000   3.058   9.782   6.988
 3390SOL     OW12001   0.658   2.491   3.389
 3390SOL    HW112002   0.588   2.433   3.360
 3390SOL    HW212003   0.736   2.435   3.392
 3391SOL     OW12004   1.751   0.522   2.753
 3391SOL    HW112005   1.747   0.511   2.849
 3391SOL    HW212006   1.828   0.473   2.727
 3392SOL     OW12007   0.160  14.062  10.317
 3392SOL    HW112008   0.130  14.016  10.238
 3392SOL    HW212009   0.255  14.062  10.309
 3393SOL     OW12010   3.928  13.673   5.285
 3393SOL    HW112011   3.855  13.710   5.334
 3393SOL    HW212012   3.896  13.666   5.195
 3394SOL     OW12013  12.373   7.938   7.027
 3394SOL    HW112014  12.348   7.971   7.113
 3394SOL    HW212015  12.301   7.964   6.969
 3395SOL     OW12016   3.039   9.215   5.115
 3395SOL    HW112017   2.969   9.279   5.128
 3395SOL    HW212018   3.112   9.266   5.079
 3396SOL     OW12019   6.094   0.053  14.684
 3396SOL    HW112020   6.184   0.024  14.700
 3396SOL    HW212021   6.055  14.865  14.631
 3397SOL     OW12022   5.126  14.799   6.524
 3397SOL    HW112023   5.146  14.871   6.585
 3397SOL    HW212024   5.176  14.819   6.446
 3398SOL     OW12025   3.496   0.132  11.053
 3398SOL    HW112026   3.535   0.101  10.971
 3398SOL    HW212027   3.537   0.080  11.121
 3399SOL     OW12028   1.043  14.447  13.580
 3399SOL    HW112029   1.046  14.451  13.484
 3399SOL    HW212030   0.966  14.394  13.600
 3400SOL     OW12031  14.110  13.265   9.843
 3400SOL    HW112032  14.160  13.236   9.766
 3400SOL    HW212033  14.177  13.287   9.908
 3401SOL     OW12034   7.186   5.456  14.347
 3401SOL    HW112035   7.204   5.471  14.440
 3401SOL    HW212036   7.165   5.542  14.312
 3402SOL     OW12037  14.861   8.799   0.246
 3402SOL    HW112038   0.059   8.839   0.282
 3402SOL    HW212039  14.791   8.833   0.301
 3403SOL     OW12040   4.641   3.527   0.209
 3403SOL    HW112041   4.663   3.620   0.219
 3403SOL    HW212042   4.712   3.491   0.156
 3404SOL     OW12043   1.853   2.376   5.646
 3404SOL    HW112044   1.903   2.325   5.709
 3404SOL    HW212045   1.890   2.352   5.561
 3405SOL     OW12046   3.558   0.444   5.959
 3405SOL    HW112047   3.557   0.349   5.966
 3405SOL    HW212048   3.543   0.462   5.866
 3406SOL     OW12049   2.651   3.750   1.897
 3406SOL    HW112050   2.634   3.711   1.810
 3406SOL    HW212051   2.746   3.761   1.899
 3407SOL     OW12052   0.830  11.106   2.658
 3407SOL    HW112053   0.778  11.186   2.663
 3407SOL    HW212054   0.771  11.041   2.620
 3408SOL     OW12055   2.429   5.050   7.955
 3408SOL    HW112056   2.447   5.085   8.043
 3408SOL    HW212057   2.514   5.047   7.912
 3409SOL     OW12058   2.541   6.518   9.919
 3409SOL    HW112059   2.582   6.529   9.834
 3409SOL    HW212060   2.451   6.493   9.899
 3410SOL     OW12061   4.132   7.842   8.034
 3410SOL    HW112062   4.076   7.782   7.984
 3410SOL    HW212063   4.185   7.784   8.090
 3411SOL     OW12064   3.052  13.961   9.376
 3411SOL    HW112065   2.988  13.891   9.389
 3411SOL    HW212066   3.111  13.927   9.309
 3412SOL     OW12067   2.631  13.462   9.374
 3412SOL    HW112068   2.668  13.375   9.357
 3412SOL    HW212069   2.605  13.460   9.465
 3413SOL     OW12070   5.844   9.679   3.552
 3413SOL    HW112071   5.761   9.644   3.519
 3413SOL    HW212072   5.911   9.627   3.508
 3414SOL     OW12073   9.435  11.144   9.579
 3414SOL    HW112074   9.393  11.067   9.541
 3414SOL    HW212075   9.496  11.174   9.512
 3415SOL     OW12076   8.906   5.888   6.814
 3415SOL    HW112077   8.820   5.898   6.773
 3415SOL    HW212078   8.911   5.958   6.879
 3416SOL     OW12079  11.294   4.736  11.377
 3416SOL    HW112080  11.256   4.820  11.350
 3416SOL    HW212081  11.343   4.756  11.456
 3417SOL     OW12082   8.908   5.798   3.599
 3417SOL    HW112083   8.981   5.736   3.612
 3417SOL    HW212084   8.919   5.862   3.669
 3418SOL     OW12085   1.394   3.834   5.915
 3418SOL    HW112086   1.426   3.880   5.992
 3418SOL    HW212087   1.458   3.764   5.900
 3419SOL     OW12088  11.002   7.155   9.433
 3419SOL    HW112089  11.044   7.128   9.514
 3419SOL    HW212090  10.909   7.143   9.447
 3420SOL     OW12091  11.604  10.693  10.854
 3420SOL    HW112092  11.574  10.754  10.787
 3420SOL    HW212093  11.551  10.615  10.841
 3421SOL     OW12094  12.103   8.987   1.457
 3421SOL    HW112095  12.162   9.061   1.442
 3421SOL    HW212096  12.028   9.005   1.401
 3422SOL     OW12097   5.294   1.910   8.347
 3422SOL    HW112098   5.386   1.885   8.349
 3422SOL    HW212099   5.294   2.005   8.360
 3423SOL     OW12100   0.269   6.359  12.312
 3423SOL    HW112101   0.202   6.291  12.314
 3423SOL    HW212102   0.221   6.440  12.301
 3424SOL     OW12103  13.984  13.934   0.901
 3424SOL    HW112104  14.071  13.973   0.908
 3424SOL    HW212105  13.932  13.979   0.967
 3425SOL     OW12106   2.924  12.920   1.618
 3425SOL    HW112107   3.005  12.875   1.642
 3425SOL    HW212108   2.921  12.915   1.523
 3426SOL     OW12109   7.150  12.060  14.024
 3426SOL    HW112110   7.062  12.091  14.002
 3426SOL    HW212111   7.147  11.966  14.007
 3427SOL     OW12112   9.266   9.503   1.059
 3427SOL    HW112113   9.330   9.491   0.989
 3427SOL    HW212114   9.292   9.586   1.100
 3428SOL     OW12115   0.445   8.311   5.154
 3428SOL    HW112116   0.408   8.339   5.238
 3428SOL    HW212117   0.381   8.249   5.119
 3429SOL     OW12118   7.012   4.174   0.830
 3429SOL    HW112119   7.021   4.088   0.789
 3429SOL    HW212120   6.995   4.154   0.922
 3430SOL     OW12121  13.170  11.932   6.815
 3430SOL    HW112122  13.139  11.854   6.770
 3430SOL    HW212123  13.092  11.970   6.854
 3431SOL     OW12124   3.379   9.112   0.110
 3431SOL    HW112125   3.409   9.024   0.088
 3431SOL    HW212126   3.385   9.117   0.205
 3432SOL     OW12127  10.121  10.875  12.557
 3432SOL    HW112128  10.150  10.794  12.515
 3432SOL    HW212129  10.184  10.941  12.529
 3433SOL     OW12130   0.124  11.994   9.925
 3433SOL    HW112131   0.143  12.084   9.897
 3433SOL    HW212132   0.036  11.978   9.893
 3434SOL     OW12133  10.304   5.746   6.010
 3434SOL    HW112134  10.355   5.668   6.031
 3434SOL    HW212135  10.308   5.752   5.915
 3435SOL     OW12136   1.789   6.392  14.533
 3435SOL    HW112137   1.808   6.298  14.523
 3435SOL    HW212138   1.706   6.404  14.487
 3436SOL     OW12139   7.286  10.861  10.309
 3436SOL    HW112140   7.228  10.902  10.374
 3436SOL    HW212141   7.261  10.769  10.309
 3437SOL     OW12142   6.753   9.621   8.904
 3437SOL    HW112143   6.705   9.681   8.848
 3437SOL    HW212144   6.746   9.536   8.860
 3438SOL     OW12145  13.269   6.098   5.204
 3438SOL    HW112146  13.282   6.193   5.201
 3438SOL    HW212147  13.265   6.073   5.112
 3439SOL     OW12148   7.229   0.025   3.409
 3439SOL    HW112149   7.164   0.069   3.355
 3439SOL    HW212150   7.205  14.815   3.406
 3440SOL     OW12151   3.462   4.295   6.854
 3440SOL    HW112152   3.376   4.301   6.895
 3440SOL    HW212153   3.470   4.202   6.829
 3441SOL     OW12154  10.824   1.217  10.431
 3441SOL    HW112155  10.883   1.237  10.359
 3441SOL    HW212156  10.755   1.163  10.392
 3442SOL     OW12157  14.776   6.220   9.627
 3442SOL    HW112158  14.728   6.153   9.578
 3442SOL    HW212159  14.720   6.298   9.621
 3443SOL     OW12160   2.946   8.566   5.013
 3443SOL    HW112161   3.008   8.612   5.070
 3443SOL    HW212162   2.989   8.566   4.927
 3444SOL     OW12163   6.092   0.305   1.665
 3444SOL    HW112164   6.177   0.268   1.690
 3444SOL    HW212165   6.028   0.250   1.712
 3445SOL     OW12166   5.821  11.813  10.837
 3445SOL    HW112167   5.873  11.878  10.790
 3445SOL    HW212168   5.876  11.735  10.841
 3446SOL     OW12169   2.958   6.575   2.797
 3446SOL    HW112170   2.974   6.492   2.841
 3446SOL    HW212171   3.021   6.635   2.837
 3447SOL     OW12172  10.930   9.362  11.145
 3447SOL    HW112173  10.955   9.435  11.202
 3447SOL    HW212174  10.835   9.354  11.156
 3448SOL     OW12175   5.667   6.245   0.381
 3448SOL    HW112176   5.679   6.182   0.311
 3448SOL    HW212177   5.728   6.218   0.449
 3449SOL     OW12178   5.081   6.996   0.741
 3449SOL    HW112179   5.130   7.034   0.814
 3449SOL    HW212180   5.140   7.003   0.666
 3450SOL     OW12181   7.401   0.873   5.244
 3450SOL    HW112182   7.421   0.830   5.327
 3450SOL    HW212183   7.306   0.867   5.236
 3451SOL     OW12184   9.229   9.130   0.371
 3451SOL    HW112185   9.151   9.082   0.343
 3451SOL    HW212186   9.264   9.078   0.444
 3452SOL     OW12187  14.337  14.612  10.330
 3452SOL    HW112188  14.287  14.693  10.319
 3452SOL    HW212189  14.365  14.589  10.241
 3453SOL     OW12190   1.541   0.072   1.852
 3453SOL    HW112191   1.474   0.100   1.914
 3453SOL    HW212192   1.614   0.041   1.906
 3454SOL     OW12193   4.532   7.697  14.643
 3454SOL    HW112194   4.583   7.694  14.561
 3454SOL    HW212195   4.485   7.614  14.645
 3455SOL     OW12196   9.736   3.664   0.374
 3455SOL    HW112197   9.755   3.571   0.391
 3455SOL    HW212198   9.649   3.664   0.335
 3456SOL     OW12199  14.316   3.312   4.595
 3456SOL    HW112200  14.362   3.229   4.611
 3456SOL    HW212201  14.245   3.289   4.535
 3457SOL     OW12202   6.520   9.058   6.842
 3457SOL    HW112203   6.451   9.121   6.865
 3457SOL    HW212204   6.537   9.012   6.924
 3458SOL     OW12205  14.695   4.771   4.041
 3458SOL    HW112206  14.780   4.810   4.020
 3458SOL    HW212207  14.699   4.755   4.135
 3459SOL     OW12208   5.925   1.212  10.181
 3459SOL    HW112209   5.878   1.202  10.097
 3459SOL    HW212210   5.884   1.287  10.222
 3460SOL     OW12211   4.957  12.216   6.469
 3460SOL    HW112212   4.965  12.289   6.531
 3460SOL    HW212213   5.029  12.229   6.407
 3461SOL     OW12214   0.742   0.883   4.895
 3461SOL    HW112215   0.777   0.971   4.908
 3461SOL    HW212216   0.661   0.881   4.946
 3462SOL     OW12217   2.678   0.482  11.203
 3462SOL    HW112218   2.621   0.486  11.279
 3462SOL    HW212219   2.675   0.571  11.167
 3463SOL     OW12220  10.257   2.741   3.410
 3463SOL    HW112221  10.313   2.802   3.361
 3463SOL    HW212222  10.277   2.655   3.373
 3464SOL     OW12223  12.152   1.351   0.053
 3464SOL    HW112224  12.074   1.382   0.098
 3464SOL    HW212225  12.125   1.269   0.011
 3465SOL     OW12226   1.525  13.119   5.619
 3465SOL    HW112227   1.546  13.058   5.689
 3465SOL    HW212228   1.601  13.116   5.561
 3466SOL     OW12229  11.638  13.333   8.770
 3466SOL    HW112230  11.680  13.247   8.775
 3466SOL    HW212231  11.691  13.388   8.827
 3467SOL     OW12232   1.691   0.567   6.979
 3467SOL    HW112233   1.780   0.587   7.009
 3467SOL    HW212234   1.655   0.651   6.952
 3468SOL     OW12235   0.342  12.824   5.111
 3468SOL    HW112236   0.276  12.887   5.140
 3468SOL    HW212237   0.384  12.795   5.192
 3469SOL     OW12238   1.644   2.716   8.728
 3469SOL    HW112239   1.642   2.811   8.734
 3469SOL    HW212240   1.618   2.697   8.638
 3470SOL     OW12241  14.638   2.911  10.896
 3470SOL    HW112242  14.700   2.839  10.905
 3470SOL    HW212243  14.623   2.940  10.986
 3471SOL     OW12244   9.612  10.864   2.314
 3471SOL    HW112245   9.540  10.915   2.353
 3471SOL    HW212246   9.652  10.819   2.389
 3472SOL     OW12247   5.566   7.290  10.863
 3472SOL    HW112248   5.632   7.243  10.812
 3472SOL    HW212249   5.570   7.380  10.830
 3473SOL     OW12250  13.096  14.036   0.763
 3473SOL    HW112251  13.190  14.025   0.771
 3473SOL    HW212252  13.060  13.993   0.840
 3474SOL     OW12253   6.854   1.453   6.918
 3474SOL    HW112254   6.760   1.475   6.924
 3474SOL    HW212255   6.858   1.361   6.943
 3475SOL     OW12256   8.089   5.686   9.461
 3475SOL    HW112257   8.028   5.673   9.388
 3475SOL    HW212258   8.107   5.598   9.494
 3476SOL     OW12259   0.089  14.238   6.956
 3476SOL    HW112260   0.135  14.278   7.030
 3476SOL    HW212261   0.101  14.143   6.968
 3477SOL     OW12262   1.809   6.016  14.132
 3477SOL    HW112263   1.717   5.999  14.155
 3477SOL    HW212264   1.855   5.936  14.156
 3478SOL     OW12265   2.448  14.500   6.868
 3478SOL    HW112266   2.432  14.452   6.950
 3478SOL    HW212267   2.435  14.592   6.891
 3479SOL     OW12268  14.791   9.086   4.546
 3479SOL    HW112269  14.749   9.000   4.553
 3479SOL    HW212270  14.736   9.143   4.600
 3480SOL     OW12271   5.337   6.097   2.244
 3480SOL    HW112272   5.395   6.159   2.287
 3480SOL    HW212273   5.250   6.116   2.281
 3481SOL     OW12274   6.339   6.743   1.361
 3481SOL    HW112275   6.422   6.788   1.350
 3481SOL    HW212276   6.305   6.776   1.445
 3482SOL     OW12277  12.359  10.017   4.163
 3482SOL    HW112278  12.322  10.084   4.105
 3482SOL    HW212279  12.448  10.047   4.181
 3483SOL     OW12280   0.919  10.118   3.314
 3483SOL    HW112281   0.875  10.060   3.376
 3483SOL    HW212282   0.877  10.099   3.230
 3484SOL     OW12283  14.587   0.862   3.323
 3484SOL    HW112284  14.613   0.949   3.291
 3484SOL    HW212285  14.666   0.810   3.318
 3485SOL     OW12286   5.225   4.828   9.271
 3485SOL    HW112287   5.152   4.810   9.213
 3485SOL    HW212288   5.224   4.923   9.281
 3486SOL     OW12289  11.117   1.103   9.743
 3486SOL    HW112290  11.130   1.197   9.748
 3486SOL    HW212291  11.129   1.072   9.833
 3487SOL     OW12292  13.876  10.701  11.734
 3487SOL    HW112293  13.818  10.694  11.810
 3487SOL    HW212294  13.842  10.775  11.685
 3488SOL     OW12295   8.668   4.601   3.137
 3488SOL    HW112296   8.742   4.569   3.086
 3488SOL    HW212297   8.705   4.623   3.223
 3489SOL     OW12298  14.416  10.839   8.500
 3489SOL    HW112299  14.344  10.795   8.544
 3489SOL    HW212300  14.492  10.783   8.516
 3490SOL     OW12301   3.872   7.091   8.088
 3490SOL    HW112302   3.856   7.163   8.027
 3490SOL    HW212303   3.957   7.111   8.127
 3491SOL     OW12304   9.916   0.631  12.036
 3491SOL    HW112305   9.976   0.630  11.961
 3491SOL    HW212306   9.974   0.633  12.112
 3492SOL     OW12307   4.615   3.239   8.613
 3492SOL    HW112308   4.685   3.263   8.674
 3492SOL    HW212309   4.550   3.308   8.621
 3493SOL     OW12310   7.843  13.889  11.961
 3493SOL    HW112311   7.830  13.983  11.950
 3493SOL    HW212312   7.937  13.879  11.974
 3494SOL     OW12313   0.270   5.391   9.076
 3494SOL    HW112314   0.287   5.302   9.105
 3494SOL    HW212315   0.313   5.397   8.991
 3495SOL     OW12316  10.864   8.390  11.949
 3495SOL    HW112317  10.895   8.327  11.885
 3495SOL    HW212318  10.795   8.344  11.997
 3496SOL     OW12319  12.235   3.212   5.069
 3496SOL    HW112320  12.235   3.129   5.020
 3496SOL    HW212321  12.142   3.235   5.077
 3497SOL     OW12322   6.333   5.524   1.273
 3497SOL    HW112323   6.322   5.610   1.315
 3497SOL    HW212324   6.345   5.463   1.346
 3498SOL     OW12325   6.470   3.328   4.580
 3498SOL    HW112326   6.415   3.404   4.598
 3498SOL    HW212327   6.412   3.253   4.591
 3499SOL     OW12328   9.891  13.641  10.869
 3499SOL    HW112329   9.947  13.712  10.902
 3499SOL    HW212330   9.834  13.619  10.943
 3500SOL     OW12331   2.927   3.591   1.723
 3500SOL    HW112332   2.917   3.531   1.649
 3500SOL    HW212333   3.018   3.581   1.750
 3501SOL     OW12334   8.181   1.122   9.026
 3501SOL    HW112335   8.146   1.196   8.977
 3501SOL    HW212336   8.250   1.159   9.080
 3502SOL     OW12337   3.127  12.838   7.883
 3502SOL    HW112338   3.216  12.815   7.909
 3502SOL    HW212339   3.081  12.754   7.880
 3503SOL     OW12340  14.876   4.991   1.763
 3503SOL    HW112341  14.867   5.087   1.764
 3503SOL    HW212342  14.838   4.964   1.680
 3504SOL     OW12343   9.339   9.942   2.195
 3504SOL    HW112344   9.353  10.000   2.120
 3504SOL    HW212345   9.297   9.864   2.158
 3505SOL     OW12346   7.804  10.245   0.558
 3505SOL    HW112347   7.718  10.279   0.581
 3505SOL    HW212348   7.842  10.312   0.502
 3506SOL     OW12349   0.301   7.854   3.507
 3506SOL    HW112350   0.266   7.801   3.578
 3506SOL    HW212351   0.263   7.815   3.428
 3507SOL     OW12352  10.956  11.802   0.323
 3507SOL    HW112353  11.022  11.736   0.302
 3507SOL    HW212354  11.005  11.885   0.324
 3508SOL     OW12355   2.982  11.873   5.253
 3508SOL    HW112356   2.979  11.884   5.348
 3508SOL    HW212357   2.947  11.785   5.238
 3509SOL     OW12358   0.419  14.829  10.666
 3509SOL    HW112359   0.421   0.006  10.741
 3509SOL    HW212360   0.390  14.745  10.701
 3510SOL     OW12361  10.666  11.015   3.566
 3510SOL    HW112362  10.703  10.955   3.631
 3510SOL    HW212363  10.710  11.098   3.583
 3511SOL     OW12364   0.495   9.675   8.352
 3511SOL    HW112365   0.446   9.725   8.417
 3511SOL    HW212366   0.521   9.741   8.287
 3512SOL     OW12367   0.883   4.306   4.692
 3512SOL    HW112368   0.918   4.225   4.655
 3512SOL    HW212369   0.788   4.295   4.690
 3513SOL     OW12370   2.865   2.977  11.670
 3513SOL    HW112371   2.956   2.973  11.642
 3513SOL    HW212372   2.866   2.950  11.761
 3514SOL     OW12373   0.825   7.598  11.582
 3514SOL    HW112374   0.745   7.577  11.533
 3514SOL    HW212375   0.795   7.612  11.672
 3515SOL     OW12376   5.192  12.573   5.227
 3515SOL    HW112377   5.286  12.591   5.226
 3515SOL    HW212378   5.164  12.589   5.136
 3516SOL     OW12379  10.082   6.526  10.178
 3516SOL    HW112380  10.046   6.607  10.143
 3516SOL    HW212381  10.081   6.465  10.104
 3517SOL     OW12382   9.600   2.101   7.794
 3517SOL    HW112383   9.593   2.193   7.768
 3517SOL    HW212384   9.681   2.097   7.844
 3518SOL     OW12385  13.386  14.014   0.377
 3518SOL    HW112386  13.365  14.100   0.413
 3518SOL    HW212387  13.400  14.030   0.283
 3519SOL     OW12388  10.892   4.328   7.350
 3519SOL    HW112389  10.877   4.264   7.420
 3519SOL    HW212390  10.970   4.297   7.305
 3520SOL     OW12391   5.018   5.410   6.207
 3520SOL    HW112392   5.009   5.380   6.117
 3520SOL    HW212393   5.041   5.503   6.199
 3521SOL     OW12394   2.153   6.879  10.921
 3521SOL    HW112395   2.078   6.911  10.972
 3521SOL    HW212396   2.195   6.815  10.978
 3522SOL     OW12397  11.571   5.284  11.871
 3522SOL    HW112398  11.561   5.366  11.919
 3522SOL    HW212399  11.658   5.252  11.898
 3523SOL     OW12400  14.691   8.545   3.945
 3523SOL    HW112401  14.661   8.632   3.922
 3523SOL    HW212402  14.771   8.532   3.894
 3524SOL     OW12403   3.841   9.313   2.352
 3524SOL    HW112404   3.853   9.248   2.283
 3524SOL    HW212405   3.747   9.334   2.349
 3525SOL     OW12406   8.746   7.087   9.506
 3525SOL    HW112407   8.835   7.120   9.513
 3525SOL    HW212408   8.691   7.165   9.520
 3526SOL     OW12409   3.180   0.500  10.326
 3526SOL    HW112410   3.136   0.563  10.382
 3526SOL    HW212411   3.109   0.448  10.289
 3527SOL     OW12412   0.308   2.577  10.314
 3527SOL    HW112413   0.278   2.488  10.291
 3527SOL    HW212414   0.314   2.622  10.229
 3528SOL     OW12415   2.162   3.492  11.744
 3528SOL    HW112416   2.135   3.460  11.658
 3528SOL    HW212417   2.087   3.542  11.775
 3529SOL     OW12418   7.990  13.994   2.969
 3529SOL    HW112419   7.903  13.961   2.994
 3529SOL    HW212420   8.005  14.067   3.029
 3530SOL     OW12421   9.497   5.163  12.098
 3530SOL    HW112422   9.410   5.200  12.109
 3530SOL    HW212423   9.482   5.077  12.058
 3531SOL     OW12424  10.199  13.440   3.387
 3531SOL    HW112425  10.225  13.434   3.295
 3531SOL    HW212426  10.106  13.420   3.388
 3532SOL     OW12427  14.260   0.625   5.405
 3532SOL    HW112428  14.304   0.670   5.333
 3532SOL    HW212429  14.199   0.565   5.363
 3533SOL     OW12430   0.229   8.352   6.426
 3533SOL    HW112431   0.190   8.315   6.506
 3533SOL    HW212432   0.231   8.279   6.365
 3534SOL     OW12433   5.347   4.767   0.728
 3534SOL    HW112434   5.402   4.834   0.686
 3534SOL    HW212435   5.281   4.746   0.662
 3535SOL     OW12436  13.770   7.150   4.919
 3535SOL    HW112437  13.784   7.115   4.831
 3535SOL    HW212438  13.833   7.221   4.927
 3536SOL     OW12439   7.165   1.488  11.264
 3536SOL    HW112440   7.092   1.548  11.275
 3536SOL    HW212441   7.216   1.497  11.345
 3537SOL     OW12442   3.445   0.444  11.918
 3537SOL    HW112443   3.457   0.350  11.906
 3537SOL    HW212444   3.517   0.470  11.976
 3538SOL     OW12445  13.539   1.836   3.765
 3538SOL    HW112446  13.590   1.853   3.845
 3538SOL    HW212447  13.506   1.922   3.739
 3539SOL     OW12448   1.632   0.071   7.418
 3539SOL    HW112449   1.719   0.105   7.438
 3539SOL    HW212450   1.598   0.130   7.350
 3540SOL     OW12451   2.016   0.862   4.952
 3540SOL    HW112452   2.080   0.791   4.955
 3540SOL    HW212453   1.975   0.860   5.038
 3541SOL     OW12454  13.173  11.379   4.505
 3541SOL    HW112455  13.099  11.372   4.445
 3541SOL    HW212456  13.137  11.422   4.583
 3542SOL     OW12457  10.522   8.867   8.736
 3542SOL    HW112458  10.430   8.851   8.754
 3542SOL    HW212459  10.541   8.813   8.659
 3543SOL     OW12460   4.324   8.999  13.873
 3543SOL    HW112461   4.411   8.983  13.909
 3543SOL    HW212462   4.285   8.912  13.863
 3544SOL     OW12463   5.811  11.132   0.537
 3544SOL    HW112464   5.807  11.226   0.555
 3544SOL    HW212465   5.802  11.090   0.622
 3545SOL     OW12466   9.143   6.839   6.778
 3545SOL    HW112467   9.104   6.764   6.731
 3545SOL    HW212468   9.141   6.910   6.715
 3546SOL     OW12469   5.293   3.897   1.746
 3546SOL    HW112470   5.251   3.977   1.714
 3546SOL    HW212471   5.231   3.859   1.807
 3547SOL     OW12472   7.016   5.695   4.153
 3547SOL    HW112473   7.070   5.774   4.154
 3547SOL    HW212474   6.981   5.688   4.241
 3548SOL     OW12475  13.403   4.825   9.669
 3548SOL    HW112476  13.310   4.803   9.673
 3548SOL    HW212477  13.444   4.750   9.628
 3549SOL     OW12478   1.038   6.022   1.434
 3549SOL    HW112479   1.076   6.104   1.465
 3549SOL    HW212480   1.094   5.953   1.470
 3550SOL     OW12481   4.953   8.159   1.053
 3550SOL    HW112482   4.898   8.167   1.132
 3550SOL    HW212483   4.943   8.243   1.008
 3551SOL     OW12484  12.027   1.041   9.443
 3551SOL    HW112485  11.999   0.985   9.371
 3551SOL    HW212486  11.946   1.078   9.478
 3552SOL     OW12487  12.335  14.293  12.221
 3552SOL    HW112488  12.357  14.215  12.170
 3552SOL    HW212489  12.240  14.301  12.211
 3553SOL     OW12490  12.694   7.133   5.069
 3553SOL    HW112491  12.775   7.091   5.097
 3553SOL    HW212492  12.654   7.163   5.151
 3554SOL     OW12493   7.479   7.957  11.722
 3554SOL    HW112494   7.552   8.008  11.685
 3554SOL    HW212495   7.401   7.997  11.685
 3555SOL     OW12496  10.623   8.642   2.028
 3555SOL    HW112497  10.696   8.597   1.986
 3555SOL    HW212498  10.547   8.621   1.974
 3556SOL     OW12499  11.161  12.668   4.474
 3556SOL    HW112500  11.221  12.722   4.525
 3556SOL    HW212501  11.075  12.706   4.490
 3557SOL     OW12502   5.976   7.466  11.667
 3557SOL    HW112503   5.904   7.458  11.731
 3557SOL    HW212504   5.948   7.413  11.593
 3558SOL     OW12505   7.587   8.581   3.685
 3558SOL    HW112506   7.511   8.537   3.724
 3558SOL    HW212507   7.576   8.570   3.591
 3559SOL     OW12508   5.211   8.454  14.074
 3559SOL    HW112509   5.219   8.519  14.004
 3559SOL    HW212510   5.290   8.399  14.064
 3560SOL     OW12511  11.810   5.719  12.073
 3560SOL    HW112512  11.847   5.630  12.073
 3560SOL    HW212513  11.817   5.748  12.163
 3561SOL     OW12514  14.838   5.863   2.675
 3561SOL    HW112515  14.758   5.887   2.721
 3561SOL    HW212516  14.808   5.828   2.591
 3562SOL     OW12517   7.678  14.070   1.474
 3562SOL    HW112518   7.618  14.143   1.493
 3562SOL    HW212519   7.763  14.101   1.505
 3563SOL     OW12520   1.889   0.869   3.047
 3563SOL    HW112521   1.887   0.962   3.071
 3563SOL    HW212522   1.818   0.859   2.984
 3564SOL     OW12523   5.253   0.768   3.406
 3564SOL    HW112524   5.340   0.794   3.438
 3564SOL    HW212525   5.194   0.785   3.480
 3565SOL     OW12526  11.070   2.825  11.374
 3565SOL    HW112527  11.116   2.907  11.390
 3565SOL    HW212528  11.008   2.818  11.447
 3566SOL     OW12529   7.609   0.857  10.836
 3566SOL    HW112530   7.605   0.762  10.834
 3566SOL    HW212531   7.522   0.886  10.808
 3567SOL     OW12532  11.120  12.465   1.421
 3567SOL    HW112533  11.204  12.447   1.463
 3567SOL    HW212534  11.142  12.525   1.349
 3568SOL     OW12535   7.077   6.288   6.496
 3568SOL    HW112536   7.019   6.343   6.549
 3568SOL    HW212537   7.092   6.339   6.416
 3569SOL     OW12538   4.236   0.844   4.203
 3569SOL    HW112539   4.253   0.828   4.110
 3569SOL    HW212540   4.164   0.785   4.225
 3570SOL     OW12541  13.610   4.068   3.826
 3570SOL    HW112542  13.633   3.977   3.805
 3570SOL    HW212543  13.685   4.119   3.794
 3571SOL     OW12544   5.761   0.995   4.625
 3571SOL    HW112545   5.776   0.963   4.714
 3571SOL    HW212546   5.690   1.059   4.633
 3572SOL     OW12547   2.494   5.665  14.089
 3572SOL    HW112548   2.557   5.606  14.048
 3572SOL    HW212549   2.416   5.659  14.033
 3573SOL     OW12550   3.498   5.621  11.336
 3573SOL    HW112551   3.580   5.593  11.295
 3573SOL    HW212552   3.524   5.693  11.394
 3574SOL     OW12553  10.610   3.747   1.249
 3574SOL    HW112554  10.586   3.740   1.341
 3574SOL    HW212555  10.661   3.668   1.231
 3575SOL     OW12556   3.052   4.107   3.603
 3575SOL    HW112557   3.075   4.164   3.530
 3575SOL    HW212558   3.008   4.164   3.666
 3576SOL     OW12559   2.656  13.445   0.675
 3576SOL    HW112560   2.735  13.498   0.684
 3576SOL    HW212561   2.646  13.401   0.759
 3577SOL     OW12562   1.103   4.308   2.560
 3577SOL    HW112563   1.101   4.391   2.512
 3577SOL    HW212564   1.094   4.241   2.492
 3578SOL     OW12565   8.290  10.759   2.424
 3578SOL    HW112566   8.327  10.698   2.361
 3578SOL    HW212567   8.197  10.737   2.427
 3579SOL     OW12568  12.594   1.207   1.265
 3579SOL    HW112569  12.534   1.281   1.256
 3579SOL    HW212570  12.550   1.135   1.219
 3580SOL     OW12571   4.728   7.926   4.118
 3580SOL    HW112572   4.744   7.927   4.212
 3580SOL    HW212573   4.750   7.837   4.091
 3581SOL     OW12574   1.671  14.064   2.908
 3581SOL    HW112575   1.738  14.133   2.916
 3581SOL    HW212576   1.716  13.984   2.935
 3582SOL     OW12577  10.610   6.730  10.562
 3582SOL    HW112578  10.538   6.761  10.507
 3582SOL    HW212579  10.581   6.747  10.652
 3583SOL     OW12580   4.515  10.670   0.658
 3583SOL    HW112581   4.483  10.711   0.577
 3583SOL    HW212582   4.466  10.588   0.664
 3584SOL     OW12583   5.649   0.125  13.507
 3584SOL    HW112584   5.730   0.173  13.491
 3584SOL    HW212585   5.584   0.169  13.453
 3585SOL     OW12586   7.871   1.381   0.379
 3585SOL    HW112587   7.839   1.455   0.326
 3585SOL    HW212588   7.946   1.416   0.427
 3586SOL     OW12589   3.245   7.636   7.563
 3586SOL    HW112590   3.203   7.578   7.499
 3586SOL    HW212591   3.318   7.585   7.597
 3587SOL     OW12592  13.399   5.459  14.724
 3587SOL    HW112593  13.418   5.396  14.655
 3587SOL    HW212594  13.351   5.408  14.789
 3588SOL     OW12595  11.561   9.954   5.390
 3588SOL    HW112596  11.556   9.944   5.485
 3588SOL    HW212597  11.542  10.046   5.375
 3589SOL     OW12598   3.342  11.535  14.017
 3589SOL    HW112599   3.352  11.445  13.986
 3589SOL    HW212600   3.359  11.589  13.939
 3590SOL     OW12601   6.941  13.881   3.328
 3590SOL    HW112602   6.967  13.837   3.409
 3590SOL    HW212603   6.984  13.967   3.332
 3591SOL     OW12604  10.614   6.074   6.825
 3591SOL    HW112605  10.578   6.031   6.748
 3591SOL    HW212606  10.549   6.061   6.893
 3592SOL     OW12607  13.547   3.101   0.514
 3592SOL    HW112608  13.614   3.035   0.533
 3592SOL    HW212609  13.474   3.080   0.573
 3593SOL     OW12610   6.097   0.567  10.298
 3593SOL    HW112611   6.041   0.626  10.347
 3593SOL    HW212612   6.139   0.512  10.365
 3594SOL     OW12613   8.189   3.063   0.177
 3594SOL    HW112614   8.275   3.080   0.216
 3594SOL    HW212615   8.170   2.972   0.199
 3595SOL     OW12616   1.065  14.338   3.110
 3595SOL    HW112617   0.995  14.278   3.136
 3595SOL    HW212618   1.019  14.419   3.085
 3596SOL     OW12619   2.005   6.344   7.220
 3596SOL    HW112620   1.986   6.430   7.183
 3596SOL    HW212621   2.089   6.319   7.181
 3597SOL     OW12622   5.316   9.476  10.835
 3597SOL    HW112623   5.342   9.539  10.768
 3597SOL    HW212624   5.298   9.529  10.912
 3598SOL     OW12625  14.252   6.379  12.566
 3598SOL    HW112626  14.270   6.450  12.504
 3598SOL    HW212627  14.212   6.423  12.641
 3599SOL     OW12628  12.699   7.536   0.344
 3599SOL    HW112629  12.613   7.557   0.307
 3599SOL    HW212630  12.689   7.447   0.379
 3600SOL     OW12631  10.594  10.849  12.519
 3600SOL    HW112632  10.554  10.766  12.544
 3600SOL    HW212633  10.563  10.864  12.429
 3601SOL     OW12634   5.633   8.985   8.184
 3601SOL    HW112635   5.695   8.972   8.256
 3601SOL    HW212636   5.549   8.953   8.219
 3602SOL     OW12637   8.383   8.398   1.727
 3602SOL    HW112638   8.291   8.422   1.738
 3602SOL    HW212639   8.400   8.339   1.801
 3603SOL     OW12640   9.378   7.844  11.439
 3603SOL    HW112641   9.433   7.766  11.434
 3603SOL    HW212642   9.436   7.912  11.472
 3604SOL     OW12643   2.256  14.105  12.521
 3604SOL    HW112644   2.337  14.150  12.547
 3604SOL    HW212645   2.286  14.021  12.484
 3605SOL     OW12646  11.970  13.346  10.070
 3605SOL    HW112647  11.929  13.349  10.157
 3605SOL    HW212648  11.986  13.253  10.054
 3606SOL     OW12649  13.723  13.407   5.637
 3606SOL    HW112650  13.797  13.414   5.577
 3606SOL    HW212651  13.667  13.340   5.598
 3607SOL     OW12652  10.809   5.171   8.604
 3607SOL    HW112653  10.900   5.168   8.574
 3607SOL    HW212654  10.791   5.082   8.636
 3608SOL     OW12655  13.602   9.619   0.666
 3608SOL    HW112656  13.642   9.567   0.737
 3608SOL    HW212657  13.514   9.639   0.698
 3609SOL     OW12658   6.251  14.137   4.747
 3609SOL    HW112659   6.339  14.152   4.713
 3609SOL    HW212660   6.218  14.063   4.697
 3610SOL     OW12661   6.241  10.187  14.763
 3610SOL    HW112662   6.197  10.198  14.848
 3610SOL    HW212663   6.334  10.188  14.784
 3611SOL     OW12664   6.632  13.474   5.628
 3611SOL    HW112665   6.584  13.411   5.575
 3611SOL    HW212666   6.664  13.539   5.565
 3612SOL     OW12667  13.885  13.193   7.534
 3612SOL    HW112668  13.929  13.118   7.573
 3612SOL    HW212669  13.794  13.186   7.563
 3613SOL     OW12670   6.879  12.101   5.286
 3613SOL    HW112671   6.840  12.155   5.218
 3613SOL    HW212672   6.811  12.037   5.308
 3614SOL     OW12673   4.285   3.287  11.449
 3614SOL    HW112674   4.366   3.240  11.472
 3614SOL    HW212675   4.239   3.228  11.390
 3615SOL     OW12676   9.809   6.188   5.597
 3615SOL    HW112677   9.883   6.246   5.578
 3615SOL    HW212678   9.774   6.221   5.680
 3616SOL     OW12679   4.703   8.026   2.017
 3616SOL    HW112680   4.748   8.021   2.101
 3616SOL    HW212681   4.672   7.936   2.001
 3617SOL     OW12682   3.531   1.546   1.161
 3617SOL    HW112683   3.563   1.502   1.081
 3617SOL    HW212684   3.584   1.508   1.231
 3618SOL     OW12685  13.674   4.296  12.933
 3618SOL    HW112686  13.670   4.388  12.906
 3618SOL    HW212687  13.727   4.297  13.013
 3619SOL     OW12688   5.331  12.343   9.998
 3619SOL    HW112689   5.348  12.325  10.090
 3619SOL    HW212690   5.352  12.261   9.953
 3620SOL     OW12691   7.860   7.968   2.984
 3620SOL    HW112692   7.786   7.937   3.036
 3620SOL    HW212693   7.836   8.058   2.959
 3621SOL     OW12694   6.034   9.406   0.943
 3621SOL    HW112695   6.082   9.327   0.919
 3621SOL    HW212696   6.102   9.473   0.955
 3622SOL     OW12697   6.323   4.462  11.382
 3622SOL    HW112698   6.312   4.367  11.389
 3622SOL    HW212699   6.409   4.480  11.418
 3623SOL     OW12700  12.775  10.829   8.565
 3623SOL    HW112701  12.794  10.876   8.647
 3623SOL    HW212702  12.829  10.874   8.499
 3624SOL     OW12703  11.880  12.788   7.319
 3624SOL    HW112704  11.935  12.713   7.297
 3624SOL    HW212705  11.847  12.769   7.407
 3625SOL     OW12706   3.416  12.215   7.949
 3625SOL    HW112707   3.363  12.148   7.994
 3625SOL    HW212708   3.461  12.167   7.880
 3626SOL     OW12709  14.422  11.176   5.885
 3626SOL    HW112710  14.512  11.189   5.855
 3626SOL    HW212711  14.377  11.257   5.861
 3627SOL     OW12712   4.349  14.143  12.211
 3627SOL    HW112713   4.336  14.052  12.184
 3627SOL    HW212714   4.260  14.175  12.229
 3628SOL     OW12715  11.146   2.594  12.268
 3628SOL    HW112716  11.236   2.619  12.288
 3628SOL    HW212717  11.131   2.516  12.322
 3629SOL     OW12718  11.172  13.412   5.736
 3629SOL    HW112719  11.203  13.339   5.682
 3629SOL    HW212720  11.168  13.377   5.825
 3630SOL     OW12721  12.458   0.303   3.023
 3630SOL    HW112722  12.375   0.293   3.070
 3630SOL    HW212723  12.518   0.339   3.089
 3631SOL     OW12724  14.671   1.037   9.381
 3631SOL    HW112725  14.636   1.002   9.463
 3631SOL    HW212726  14.737   0.974   9.353
 3632SOL     OW12727   1.325  12.826   8.816
 3632SOL    HW112728   1.257  12.889   8.839
 3632SOL    HW212729   1.403  12.857   8.862
 3633SOL     OW12730   6.627   0.200  11.121
 3633SOL    HW112731   6.668   0.284  11.139
 3633SOL    HW212732   6.543   0.203  11.166
 3634SOL     OW12733   8.962   0.971  11.101
 3634SOL    HW112734   8.993   1.008  11.018
 3634SOL    HW212735   8.986   1.037  11.167
 3635SOL     OW12736   0.210   6.609   1.470
 3635SOL    HW112737   0.220   6.673   1.540
 3635SOL    HW212738   0.231   6.525   1.510
 3636SOL     OW12739   9.627   9.738   1.899
 3636SOL    HW112740   9.678   9.797   1.954
 3636SOL    HW212741   9.656   9.756   1.810
 3637SOL     OW12742   9.051   2.008  12.551
 3637SOL    HW112743   8.962   2.037  12.570
 3637SOL    HW212744   9.057   2.011  12.456
 3638SOL     OW12745  13.806   1.255   0.499
 3638SOL    HW112746  13.788   1.161   0.495
 3638SOL    HW212747  13.734   1.295   0.449
 3639SOL     OW12748   9.477   0.472  11.513
 3639SOL    HW112749   9.553   0.415  11.522
 3639SOL    HW212750   9.447   0.487  11.602
 3640SOL     OW12751  10.976   4.202  14.543
 3640SOL    HW112752  10.913   4.131  14.534
 3640SOL    HW212753  11.047   4.179  14.482
 3641SOL     OW12754   4.985   4.256   5.962
 3641SOL    HW112755   5.017   4.333   6.009
 3641SOL    HW212756   5.056   4.234   5.902
 3642SOL     OW12757   7.292   1.330   4.796
 3642SOL    HW112758   7.369   1.286   4.833
 3642SOL    HW212759   7.221   1.266   4.803
 3643SOL     OW12760  14.802  12.268   0.339
 3643SOL    HW112761  14.871  12.205   0.318
 3643SOL    HW212762  14.721  12.218   0.328
 3644SOL     OW12763   1.102  11.671   2.340
 3644SOL    HW112764   1.108  11.723   2.420
 3644SOL    HW212765   1.020  11.700   2.298
 3645SOL     OW12766   5.008   3.532   9.788
 3645SOL    HW112767   4.961   3.449   9.792
 3645SOL    HW212768   4.973   3.583   9.861
 3646SOL     OW12769  13.807   3.340   6.591
 3646SOL    HW112770  13.726   3.288   6.600
 3646SOL    HW212771  13.819   3.348   6.496
 3647SOL     OW12772  14.161   2.537   8.946
 3647SOL    HW112773  14.177   2.536   9.040
 3647SOL    HW212774  14.248   2.548   8.907
 3648SOL     OW12775   4.109   3.642   2.275
 3648SOL    HW112776   4.048   3.704   2.314
 3648SOL    HW212777   4.125   3.676   2.187
 3649SOL     OW12778   0.368   6.252   2.240
 3649SOL    HW112779   0.341   6.302   2.163
 3649SOL    HW212780   0.429   6.186   2.206
 3650SOL     OW12781  12.124  13.540   4.952
 3650SOL    HW112782  12.079  13.531   4.867
 3650SOL    HW212783  12.055  13.569   5.012
 3651SOL     OW12784  11.590  10.075   2.157
 3651SOL    HW112785  11.600  10.100   2.248
 3651SOL    HW212786  11.502  10.106   2.133
 3652SOL     OW12787   1.770   9.008  11.837
 3652SOL    HW112788   1.713   9.080  11.863
 3652SOL    HW212789   1.747   8.990  11.746
 3653SOL     OW12790   0.209   0.591   7.088
 3653SOL    HW112791   0.129   0.588   7.036
 3653SOL    HW212792   0.182   0.622   7.174
 3654SOL     OW12793  14.741   1.205   8.646
 3654SOL    HW112794  14.751   1.299   8.631
 3654SOL    HW212795  14.697   1.174   8.567
 3655SOL     OW12796  14.587   0.695   0.881
 3655SOL    HW112797  14.639   0.619   0.908
 3655SOL    HW212798  14.635   0.733   0.808
 3656SOL     OW12799  14.585  12.769  11.369
 3656SOL    HW112800  14.656  12.722  11.413
 3656SOL    HW212801  14.508  12.751  11.423
 3657SOL     OW12802   4.186  12.856  14.492
 3657SOL    HW112803   4.113  12.798  14.512
 3657SOL    HW212804   4.251  12.800  14.450
 3658SOL     OW12805   0.812   1.237   0.815
 3658SOL    HW112806   0.893   1.188   0.802
 3658SOL    HW212807   0.812   1.258   0.909
 3659SOL     OW12808   1.246   3.237   4.023
 3659SOL    HW112809   1.201   3.314   3.987
 3659SOL    HW212810   1.261   3.181   3.947
 3660SOL     OW12811  11.778  11.220   8.116
 3660SOL    HW112812  11.781  11.139   8.064
 3660SOL    HW212813  11.848  11.274   8.080
 3661SOL     OW12814   0.937  13.987   1.828
 3661SOL    HW112815   0.936  13.898   1.793
 3661SOL    HW212816   0.875  13.985   1.901
 3662SOL     OW12817   7.282   8.990  12.948
 3662SOL    HW112818   7.191   9.005  12.922
 3662SOL    HW212819   7.310   9.074  12.985
 3663SOL     OW12820   5.350   3.074  10.200
 3663SOL    HW112821   5.443   3.052  10.207
 3663SOL    HW212822   5.307   2.992  10.176
 3664SOL     OW12823   1.983   7.711   2.359
 3664SOL    HW112824   1.942   7.712   2.272
 3664SOL    HW212825   1.951   7.791   2.401
 3665SOL     OW12826   3.416   4.387   5.168
 3665SOL    HW112827   3.507   4.416   5.173
 3665SOL    HW212828   3.406   4.354   5.079
 3666SOL     OW12829   6.340  10.866  13.889
 3666SOL    HW112830   6.305  10.820  13.812
 3666SOL    HW212831   6.333  10.959  13.867
 3667SOL     OW12832  12.111   3.300   7.571
 3667SOL    HW112833  12.176   3.239   7.606
 3667SOL    HW212834  12.095   3.361   7.642
 3668SOL     OW12835   6.997  10.222   1.421
 3668SOL    HW112836   6.956  10.306   1.442
 3668SOL    HW212837   7.035  10.235   1.334
 3669SOL     OW12838  13.148   1.215  13.856
 3669SOL    HW112839  13.216   1.183  13.798
 3669SOL    HW212840  13.190   1.282  13.909
 3670SOL     OW12841   0.289   6.340  13.009
 3670SOL    HW112842   0.194   6.344  13.000
 3670SOL    HW212843   0.312   6.414  13.065
 3671SOL     OW12844  12.046   2.798  14.590
 3671SOL    HW112845  11.985   2.748  14.536
 3671SOL    HW212846  12.053   2.883  14.547
 3672SOL     OW12847   1.789  10.521  12.140
 3672SOL    HW112848   1.876  10.489  12.164
 3672SOL    HW212849   1.764  10.580  12.211
 3673SOL     OW12850   6.845   0.924   7.786
 3673SOL    HW112851   6.879   0.948   7.871
 3673SOL    HW212852   6.771   0.865   7.805
 3674SOL     OW12853   2.786   0.911   6.227
 3674SOL    HW112854   2.719   0.860   6.271
 3674SOL    HW212855   2.765   1.002   6.248
 3675SOL     OW12856   6.594  11.920   7.222
 3675SOL    HW112857   6.618  11.870   7.144
 3675SOL    HW212858   6.614  12.011   7.199
 3676SOL     OW12859   3.355   1.042   4.630
 3676SOL    HW112860   3.381   1.129   4.663
 3676SOL    HW212861   3.401   0.981   4.687
 3677SOL     OW12862   2.123   8.389   2.462
 3677SOL    HW112863   2.147   8.455   2.398
 3677SOL    HW212864   2.097   8.313   2.409
 3678SOL     OW12865  14.526  10.095  13.248
 3678SOL    HW112866  14.536  10.019  13.305
 3678SOL    HW212867  14.591  10.083  13.179
 3679SOL     OW12868   0.076  11.787   2.839
 3679SOL    HW112869   0.030  11.779   2.756
 3679SOL    HW212870   0.138  11.713   2.840
 3680SOL     OW12871   9.324  14.665   6.577
 3680SOL    HW112872   9.275  14.594   6.537
 3680SOL    HW212873   9.289  14.673   6.665
 3681SOL     OW12874   6.871  11.941   3.809
 3681SOL    HW112875   6.807  11.915   3.876
 3681SOL    HW212876   6.956  11.930   3.852
 3682SOL     OW12877  12.313  12.066  12.842
 3682SOL    HW112878  12.245  12.128  12.870
 3682SOL    HW212879  12.274  12.021  12.767
 3683SOL     OW12880  10.987   4.134   3.568
 3683SOL    HW112881  10.964   4.227   3.559
 3683SOL    HW212882  11.053   4.119   3.501
 3684SOL     OW12883   6.733   0.347   6.375
 3684SOL    HW112884   6.736   0.252   6.381
 3684SOL    HW212885   6.760   0.366   6.285
 3685SOL     OW12886   6.009   5.895   0.256
 3685SOL    HW112887   5.962   5.853   0.328
 3685SOL    HW212888   6.086   5.935   0.297
 3686SOL     OW12889   2.967  10.594   1.580
 3686SOL    HW112890   3.018  10.673   1.561
 3686SOL    HW212891   2.907  10.620   1.649
 3687SOL     OW12892   0.089   2.514   0.911
 3687SOL    HW112893   0.007   2.482   0.949
 3687SOL    HW212894   0.157   2.463   0.956
 3688SOL     OW12895   8.043   1.737  10.771
 3688SOL    HW112896   8.074   1.666  10.828
 3688SOL    HW212897   8.038   1.698  10.684
 3689SOL     OW12898   0.089   4.752  13.932
 3689SOL    HW112899   0.116   4.799  14.010
 3689SOL    HW212900   0.163   4.762  13.871
 3690SOL     OW12901   0.285   0.467  11.457
 3690SOL    HW112902   0.366   0.487  11.411
 3690SOL    HW212903   0.217   0.471  11.389
 3691SOL     OW12904   6.863  10.509  13.211
 3691SOL    HW112905   6.862  10.438  13.274
 3691SOL    HW212906   6.815  10.475  13.135
 3692SOL     OW12907   4.925   7.888  10.179
 3692SOL    HW112908   4.869   7.892  10.102
 3692SOL    HW212909   4.940   7.795  10.194
 3693SOL     OW12910  10.144   7.860  13.073
 3693SOL    HW112911  10.064   7.913  13.080
 3693SOL    HW212912  10.192   7.898  13.000
 3694SOL     OW12913   8.686   5.390  14.054
 3694SOL    HW112914   8.756   5.439  14.010
 3694SOL    HW212915   8.715   5.299  14.052
 3695SOL     OW12916   0.520   6.585   5.363
 3695SOL    HW112917   0.478   6.512   5.409
 3695SOL    HW212918   0.527   6.654   5.429
 3696SOL     OW12919  12.945   8.239  10.691
 3696SOL    HW112920  13.020   8.206  10.642
 3696SOL    HW212921  12.933   8.329  10.662
 3697SOL     OW12922  10.455  12.712   8.613
 3697SOL    HW112923  10.530  12.655   8.596
 3697SOL    HW212924  10.402  12.706   8.533
 3698SOL     OW12925   2.097  13.369  13.061
 3698SOL    HW112926   2.140  13.367  12.975
 3698SOL    HW212927   2.061  13.457  13.067
 3699SOL     OW12928   0.473   6.681  12.589
 3699SOL    HW112929   0.496   6.638  12.672
 3699SOL    HW212930   0.391   6.639  12.562
 3700SOL     OW12931   0.483  12.852   5.327
 3700SOL    HW112932   0.449  12.942   5.321
 3700SOL    HW212933   0.577  12.863   5.338
 3701SOL     OW12934   4.099   3.181   1.301
 3701SOL    HW112935   4.090   3.257   1.244
 3701SOL    HW212936   4.018   3.180   1.352
 3702SOL     OW12937   4.713   3.638   6.656
 3702SOL    HW112938   4.793   3.612   6.610
 3702SOL    HW212939   4.652   3.566   6.640
 3703SOL     OW12940   2.752   0.333   5.755
 3703SOL    HW112941   2.689   0.350   5.825
 3703SOL    HW212942   2.744   0.239   5.739
 3704SOL     OW12943  14.067   8.436  11.221
 3704SOL    HW112944  14.025   8.351  11.234
 3704SOL    HW212945  14.157   8.423  11.251
 3705SOL     OW12946   8.874  10.540   4.270
 3705SOL    HW112947   8.963  10.555   4.301
 3705SOL    HW212948   8.885  10.518   4.177
 3706SOL     OW12949   1.926  14.027   7.956
 3706SOL    HW112950   1.902  13.989   7.872
 3706SOL    HW212951   1.845  14.028   8.007
 3707SOL     OW12952   9.417   8.629  11.630
 3707SOL    HW112953   9.353   8.564  11.600
 3707SOL    HW212954   9.396   8.708  11.581
 3708SOL     OW12955   1.569  10.207  11.468
 3708SOL    HW112956   1.610  10.144  11.527
 3708SOL    HW212957   1.632  10.218  11.397
 3709SOL     OW12958   8.112   6.324  14.156
 3709SOL    HW112959   8.091   6.412  14.127
 3709SOL    HW212960   8.064   6.313  14.238
 3710SOL     OW12961   2.003   8.696   2.493
 3710SOL    HW112962   1.930   8.654   2.538
 3710SOL    HW212963   1.986   8.682   2.400
 3711SOL     OW12964  11.332   9.696  10.207
 3711SOL    HW112965  11.358   9.787  10.195
 3711SOL    HW212966  11.350   9.678  10.299
 3712SOL     OW12967  12.725  12.724  11.586
 3712SOL    HW112968  12.800  12.735  11.527
 3712SOL    HW212969  12.649  12.729  11.529
 3713SOL     OW12970   6.483   7.490   2.407
 3713SOL    HW112971   6.566   7.469   2.451
 3713SOL    HW212972   6.424   7.515   2.479
 3714SOL     OW12973   3.553   4.723   0.687
 3714SOL    HW112974   3.524   4.647   0.638
 3714SOL    HW212975   3.488   4.734   0.756
 3715SOL     OW12976  12.606   3.223  11.545
 3715SOL    HW112977  12.658   3.211  11.624
 3715SOL    HW212978  12.580   3.134  11.520
 3716SOL     OW12979   5.652   1.244   6.392
 3716SOL    HW112980   5.562   1.234   6.424
 3716SOL    HW212981   5.702   1.270   6.469
 3717SOL     OW12982  14.540   9.135   5.506
 3717SOL    HW112983  14.589   9.145   5.425
 3717SOL    HW212984  14.586   9.190   5.569
 3718SOL     OW12985  10.507   9.726   1.619
 3718SOL    HW112986  10.533   9.660   1.555
 3718SOL    HW212987  10.558   9.705   1.697
 3719SOL     OW12988  14.066  10.505   9.395
 3719SOL    HW112989  14.159  10.497   9.375
 3719SOL    HW212990  14.028  10.549   9.319
 3720SOL     OW12991   3.754   3.342   0.556
 3720SOL    HW112992   3.823   3.322   0.620
 3720SOL    HW212993   3.721   3.428   0.582
 3721SOL     OW12994  10.753  13.685   3.909
 3721SOL    HW112995  10.742  13.754   3.844
 3721SOL    HW212996  10.670  13.683   3.957
 3722SOL     OW12997   1.906   1.579   9.573
 3722SOL    HW112998   1.832   1.638   9.561
 3722SOL    HW212999   1.870   1.491   9.560
 3723SOL     OW13000  10.973   2.257  11.241
 3723SOL    HW113001  11.039   2.290  11.180
 3723SOL    HW213002  11.023   2.229  11.318
 3724SOL     OW13003   7.322   0.918   8.626
 3724SOL    HW113004   7.390   0.895   8.563
 3724SOL    HW213005   7.266   0.980   8.579
 3725SOL     OW13006   2.395   4.153   8.425
 3725SOL    HW113007   2.410   4.163   8.519
 3725SOL    HW213008   2.338   4.227   8.403
 3726SOL     OW13009   9.717  14.001  11.331
 3726SOL    HW113010   9.688  13.943  11.261
 3726SOL    HW213011   9.651  14.070  11.335
 3727SOL     OW13012   1.009   6.401   7.360
 3727SOL    HW113013   0.934   6.342   7.354
 3727SOL    HW213014   1.000   6.459   7.284
 3728SOL     OW13015   8.843  12.158   7.540
 3728SOL    HW113016   8.802  12.073   7.525
 3728SOL    HW213017   8.774  12.222   7.521
 3729SOL     OW13018  11.794   1.980   5.280
 3729SOL    HW113019  11.718   2.016   5.234
 3729SOL    HW213020  11.858   1.963   5.211
 3730SOL     OW13021   7.917  14.268   9.195
 3730SOL    HW113022   7.982  14.306   9.254
 3730SOL    HW213023   7.968  14.232   9.123
 3731SOL     OW13024  10.173  10.360   4.114
 3731SOL    HW113025  10.184  10.409   4.033
 3731SOL    HW213026  10.136  10.424   4.175
 3732SOL     OW13027  11.363  11.776   9.815
 3732SOL    HW113028  11.298  11.736   9.872
 3732SOL    HW213029  11.382  11.860   9.855
 3733SOL     OW13030   9.706   0.832  10.621
 3733SOL    HW113031   9.629   0.868  10.665
 3733SOL    HW213032   9.734   0.758  10.675
 3734SOL     OW13033   5.768   3.229   8.624
 3734SOL    HW113034   5.782   3.283   8.547
 3734SOL    HW213035   5.771   3.139   8.592
 3735SOL     OW13036   1.274  13.648   6.491
 3735SOL    HW113037   1.301  13.646   6.583
 3735SOL    HW213038   1.207  13.717   6.487
 3736SOL     OW13039  10.416  10.614  13.332
 3736SOL    HW113040  10.411  10.637  13.425
 3736SOL    HW213041  10.463  10.531  13.330
 3737SOL     OW13042   4.815  10.596  13.950
 3737SOL    HW113043   4.807  10.669  13.889
 3737SOL    HW213044   4.747  10.534  13.922
 3738SOL     OW13045   8.910  14.878   8.197
 3738SOL    HW113046   8.962  14.818   8.251
 3738SOL    HW213047   8.853   0.041   8.259
 3739SOL     OW13048  12.849   8.880   7.813
 3739SOL    HW113049  12.843   8.830   7.732
 3739SOL    HW213050  12.914   8.948   7.795
 3740SOL     OW13051   6.767   0.876   7.237
 3740SOL    HW113052   6.837   0.814   7.256
 3740SOL    HW213053   6.750   0.867   7.144
 3741SOL     OW13054   2.276   3.529  12.473
 3741SOL    HW113055   2.301   3.613  12.512
 3741SOL    HW213056   2.280   3.543  12.379
 3742SOL     OW13057   1.365   1.520   0.002
 3742SOL    HW113058   1.392   1.497  14.795
 3742SOL    HW213059   1.440   1.495   0.057
 3743SOL     OW13060  10.297   1.405  13.630
 3743SOL    HW113061  10.206   1.428  13.650
 3743SOL    HW213062  10.291   1.319  13.589
 3744SOL     OW13063   9.316   4.680   1.246
 3744SOL    HW113064   9.283   4.590   1.246
 3744SOL    HW213065   9.411   4.671   1.238
 3745SOL     OW13066   8.799   7.374   1.895
 3745SOL    HW113067   8.758   7.326   1.967
 3745SOL    HW213068   8.841   7.449   1.936
 3746SOL     OW13069   2.645  12.138   7.998
 3746SOL    HW113070   2.657  12.129   8.093
 3746SOL    HW213071   2.726  12.104   7.960
 3747SOL     OW13072   6.335   1.399   5.198
 3747SOL    HW113073   6.307   1.490   5.191
 3747SOL    HW213074   6.431   1.404   5.201
 3748SOL     OW13075   4.222   0.424   9.213
 3748SOL    HW113076   4.298   0.370   9.192
 3748SOL    HW213077   4.253   0.485   9.279
 3749SOL     OW13078  12.861  12.238   0.358
 3749SOL    HW113079  12.795  12.215   0.293
 3749SOL    HW213080  12.924  12.165   0.355
 3750SOL     OW13081   7.138  11.682  10.192
 3750SOL    HW113082   7.173  11.629  10.263
 3750SOL    HW213083   7.067  11.733  10.232
 3751SOL     OW13084   7.731   9.275   3.386
 3751SOL    HW113085   7.782   9.356   3.375
 3751SOL    HW213086   7.789   9.206   3.356
 3752SOL     OW13087   8.049   8.478   3.573
 3752SOL    HW113088   8.122   8.463   3.634
 3752SOL    HW213089   7.992   8.540   3.619
 3753SOL     OW13090   7.285   8.595   4.404
 3753SOL    HW113091   7.242   8.618   4.486
 3753SOL    HW213092   7.377   8.583   4.427
 3754SOL     OW13093   3.070   0.539  12.396
 3754SOL    HW113094   3.114   0.608  12.446
 3754SOL    HW213095   3.016   0.493  12.460
 3755SOL     OW13096   3.610   9.829   2.559
 3755SOL    HW113097   3.599   9.796   2.470
 3755SOL    HW213098   3.531   9.799   2.605
 3756SOL     OW13099   7.814   3.512  12.860
 3756SOL    HW113100   7.754   3.441  12.839
 3756SOL    HW213101   7.891   3.495  12.806
 3757SOL     OW13102   8.663  10.002  14.865
 3757SOL    HW113103   8.570   9.993   0.001
 3757SOL    HW213104   8.706   9.972   0.063
 3758SOL     OW13105   5.263  13.427  10.346
 3758SOL    HW113106   5.297  13.434  10.435
 3758SOL    HW213107   5.339  13.442  10.290
 3759SOL     OW13108   4.831  10.465   7.252
 3759SOL    HW113109   4.882  10.508   7.183
 3759SOL    HW213110   4.875  10.489   7.333
 3760SOL     OW13111  10.570   5.349   0.578
 3760SOL    HW113112  10.659   5.319   0.557
 3760SOL    HW213113  10.513   5.283   0.539
 3761SOL     OW13114   9.729   5.187   1.229
 3761SOL    HW113115   9.815   5.196   1.270
 3761SOL    HW213116   9.722   5.094   1.208
 3762SOL     OW13117   6.465   0.159  10.449
 3762SOL    HW113118   6.448   0.147  10.542
 3762SOL    HW213119   6.560   0.149  10.440
 3763SOL     OW13120  13.726   7.898   9.571
 3763SOL    HW113121  13.639   7.937   9.559
 3763SOL    HW213122  13.786   7.961   9.531
 3764SOL     OW13123  11.925   1.560   6.415
 3764SOL    HW113124  11.952   1.616   6.342
 3764SOL    HW213125  11.985   1.486   6.410
 3765SOL     OW13126   0.585   3.361  12.813
 3765SOL    HW113127   0.530   3.426  12.771
 3765SOL    HW213128   0.526   3.289  12.836
 3766SOL     OW13129   9.565  11.319  14.728
 3766SOL    HW113130   9.562  11.291  14.819
 3766SOL    HW213131   9.658  11.335  14.711
 3767SOL     OW13132  13.054   4.202  10.210
 3767SOL    HW113133  13.047   4.244  10.125
 3767SOL    HW213134  13.145   4.173  10.216
 3768SOL     OW13135   5.178  14.402  10.672
 3768SOL    HW113136   5.244  14.420  10.738
 3768SOL    HW213137   5.107  14.463  10.690
 3769SOL     OW13138   3.902  14.835  11.879
 3769SOL    HW113139   3.870  14.865  11.963
 3769SOL    HW213140   3.916   0.033  11.828
 3770SOL     OW13141  10.939  13.481   2.557
 3770SOL    HW113142  10.991  13.494   2.637
 3770SOL    HW213143  10.989  13.418   2.506
 3771SOL     OW13144   3.012   0.434   5.753
 3771SOL    HW113145   2.922   0.406   5.765
 3771SOL    HW213146   3.057   0.408   5.833
 3772SOL     OW13147  12.515   5.051   3.427
 3772SOL    HW113148  12.516   5.065   3.333
 3772SOL    HW213149  12.525   4.956   3.438
 3773SOL     OW13150  14.410  12.455   8.393
 3773SOL    HW113151  14.316  12.457   8.371
 3773SOL    HW213152  14.427  12.365   8.418
 3774SOL     OW13153   9.224   3.249   9.523
 3774SOL    HW113154   9.132   3.234   9.500
 3774SOL    HW213155   9.272   3.181   9.476
 3775SOL     OW13156   6.991  13.385   1.502
 3775SOL    HW113157   7.068  13.424   1.460
 3775SOL    HW213158   6.922  13.450   1.488
 3776SOL     OW13159  12.071   1.616  13.739
 3776SOL    HW113160  12.085   1.638  13.647
 3776SOL    HW213161  12.051   1.522  13.738
 3777SOL     OW13162  12.817   6.029  14.641
 3777SOL    HW113163  12.839   6.086  14.567
 3777SOL    HW213164  12.736   6.067  14.676
 3778SOL     OW13165   6.818   3.335  10.420
 3778SOL    HW113166   6.834   3.314  10.512
 3778SOL    HW213167   6.822   3.250  10.376
 3779SOL     OW13168  12.308  11.748   4.217
 3779SOL    HW113169  12.399  11.778   4.216
 3779SOL    HW213170  12.300  11.698   4.299
 3780SOL     OW13171   5.925  12.443  11.277
 3780SOL    HW113172   6.020  12.430  11.276
 3780SOL    HW213173   5.908  12.507  11.208
 3781SOL     OW13174   1.784  13.118  11.290
 3781SOL    HW113175   1.803  13.183  11.357
 3781SOL    HW213176   1.866  13.108  11.242
 3782SOL     OW13177   7.713   4.425  13.973
 3782SOL    HW113178   7.636   4.377  14.004
 3782SOL    HW213179   7.706   4.511  14.014
 3783SOL     OW13180  11.969  10.957   4.268
 3783SOL    HW113181  11.971  10.999   4.354
 3783SOL    HW213182  12.046  10.900   4.267
 3784SOL     OW13183   5.790   2.676  10.760
 3784SOL    HW113184   5.802   2.620  10.683
 3784SOL    HW213185   5.707   2.720  10.746
 3785SOL     OW13186   6.304  14.326   5.108
 3785SOL    HW113187   6.377  14.265   5.114
 3785SOL    HW213188   6.344  14.412   5.112
 3786SOL     OW13189   0.826   9.698  12.304
 3786SOL    HW113190   0.872   9.624  12.345
 3786SOL    HW213191   0.858   9.775  12.352
 3787SOL     OW13192  13.817   2.142   2.248
 3787SOL    HW113193  13.856   2.197   2.180
 3787SOL    HW213194  13.807   2.056   2.207
 3788SOL     OW13195   3.935  14.147  11.815
 3788SOL    HW113196   3.862  14.206  11.837
 3788SOL    HW213197   3.925  14.073  11.874
 3789SOL     OW13198  10.515  10.250   6.702
 3789SOL    HW113199  10.534  10.334   6.659
 3789SOL    HW213200  10.484  10.193   6.632
 3790SOL     OW13201   2.397   0.989  10.752
 3790SOL    HW113202   2.321   1.030  10.793
 3790SOL    HW213203   2.472   1.035  10.790
 3791SOL     OW13204  13.194  11.681   3.555
 3791SOL    HW113205  13.281  11.645   3.573
 3791SOL    HW213206  13.156  11.698   3.641
 3792SOL     OW13207  14.814   4.600   5.214
 3792SOL    HW113208  14.773   4.679   5.179
 3792SOL    HW213209  14.833   4.621   5.305
 3793SOL     OW13210   9.687   9.974   9.899
 3793SOL    HW113211   9.625   9.995   9.969
 3793SOL    HW213212   9.750  10.047   9.900
 3794SOL     OW13213  12.883   0.486   7.067
 3794SOL    HW113214  12.918   0.569   7.033
 3794SOL    HW213215  12.946   0.458   7.133
 3795SOL     OW13216   8.159   4.228   0.621
 3795SOL    HW113217   8.068   4.246   0.595
 3795SOL    HW213218   8.210   4.243   0.542
 3796SOL     OW13219  14.639   9.487  11.648
 3796SOL    HW113220  14.548   9.516  11.651
 3796SOL    HW213221  14.683   9.539  11.715
 3797SOL     OW13222   7.844  10.397   6.569
 3797SOL    HW113223   7.902  10.331   6.607
 3797SOL    HW213224   7.770  10.402   6.630
 3798SOL     OW13225   3.927   4.128  10.418
 3798SOL    HW113226   3.877   4.096  10.343
 3798SOL    HW213227   3.995   4.062  10.432
 3799SOL     OW13228   2.361  12.549   3.148
 3799SOL    HW113229   2.325  12.462   3.132
 3799SOL    HW213230   2.317  12.579   3.227
 3800SOL     OW13231   2.147   2.531   0.561
 3800SOL    HW113232   2.238   2.552   0.582
 3800SOL    HW213233   2.096   2.591   0.616
 3801SOL     OW13234   4.450   0.317   7.420
 3801SOL    HW113235   4.456   0.268   7.339
 3801SOL    HW213236   4.531   0.297   7.466
 3802SOL     OW13237   4.770  12.392   8.660
 3802SOL    HW113238   4.736  12.459   8.600
 3802SOL    HW213239   4.761  12.431   8.747
 3803SOL     OW13240  13.063   3.059   8.929
 3803SOL    HW113241  13.013   2.977   8.922
 3803SOL    HW213242  13.025   3.103   9.006
 3804SOL     OW13243  10.298  13.449   9.833
 3804SOL    HW113244  10.375  13.415   9.787
 3804SOL    HW213245  10.254  13.372   9.867
 3805SOL     OW13246  12.488   7.005  14.656
 3805SOL    HW113247  12.453   7.078  14.606
 3805SOL    HW213248  12.412   6.968  14.700
 3806SOL     OW13249  13.979   6.556  14.590
 3806SOL    HW113250  14.012   6.590  14.673
 3806SOL    HW213251  13.976   6.461  14.602
 3807SOL     OW13252  14.216  11.635   7.799
 3807SOL    HW113253  14.201  11.577   7.874
 3807SOL    HW213254  14.261  11.711   7.836
 3808SOL     OW13255   4.923   3.091   5.705
 3808SOL    HW113256   4.993   3.090   5.640
 3808SOL    HW213257   4.965   3.063   5.786
 3809SOL     OW13258  12.498   1.857  14.388
 3809SOL    HW113259  12.493   1.763  14.404
 3809SOL    HW213260  12.519   1.865  14.295
 3810SOL     OW13261   9.219   7.638  13.108
 3810SOL    HW113262   9.157   7.620  13.038
 3810SOL    HW213263   9.227   7.555  13.155
 3811SOL     OW13264   7.020   2.902   5.000
 3811SOL    HW113265   7.013   2.996   4.984
 3811SOL    HW213266   6.992   2.892   5.091
 3812SOL     OW13267   4.161   3.283   0.066
 3812SOL    HW113268   4.086   3.260   0.121
 3812SOL    HW213269   4.150   3.377   0.050
 3813SOL     OW13270   4.010   9.973  11.314
 3813SOL    HW113271   4.050   9.970  11.401
 3813SOL    HW213272   4.071  10.024  11.261
 3814SOL     OW13273   1.906   8.773   2.247
 3814SOL    HW113274   1.987   8.825   2.250
 3814SOL    HW213275   1.887   8.765   2.154
 3815SOL     OW13276  14.872  12.282  14.458
 3815SOL    HW113277  14.857  12.319  14.545
 3815SOL    HW213278   0.031  12.354  14.409
 3816SOL     OW13279   9.336  10.403  11.314
 3816SOL    HW113280   9.243  10.401  11.290
 3816SOL    HW213281   9.358  10.496  11.319
 3817SOL     OW13282   3.335  11.048   0.118
 3817SOL    HW113283   3.416  11.044   0.067
 3817SOL    HW213284   3.280  10.979   0.081
 3818SOL     OW13285   6.413   3.944  10.587
 3818SOL    HW113286   6.420   4.021  10.643
 3818SOL    HW213287   6.389   3.980  10.501
 3819SOL     OW13288   0.365   7.756  13.388
 3819SOL    HW113289   0.312   7.755  13.309
 3819SOL    HW213290   0.359   7.845  13.421
 3820SOL     OW13291  12.988  13.992   1.884
 3820SOL    HW113292  13.006  14.047   1.808
 3820SOL    HW213293  12.894  13.976   1.879
 3821SOL     OW13294   6.564   5.909   0.803
 3821SOL    HW113295   6.630   5.953   0.858
 3821SOL    HW213296   6.482   5.951   0.827
 3822SOL     OW13297  14.130  13.409   1.097
 3822SOL    HW113298  14.171  13.380   1.178
 3822SOL    HW213299  14.082  13.332   1.065
 3823SOL     OW13300  13.524   5.843   3.173
 3823SOL    HW113301  13.444   5.826   3.222
 3823SOL    HW213302  13.593   5.801   3.223
 3824SOL     OW13303   8.903  14.257  12.696
 3824SOL    HW113304   8.903  14.162  12.694
 3824SOL    HW213305   8.815  14.281  12.722
 3825SOL     OW13306  12.503  10.922   4.663
 3825SOL    HW113307  12.548  10.884   4.587
 3825SOL    HW213308  12.572  10.970   4.709
 3826SOL     OW13309   2.491  14.533   4.699
 3826SOL    HW113310   2.445  14.452   4.723
 3826SOL    HW213311   2.489  14.586   4.779
 3827SOL     OW13312   5.175  14.788  11.427
 3827SOL    HW113313   5.119  14.804  11.351
 3827SOL    HW213314   5.115  14.753  11.493
 3828SOL     OW13315  11.604   9.338   6.375
 3828SOL    HW113316  11.597   9.290   6.458
 3828SOL    HW213317  11.677   9.297   6.330
 3829SOL     OW13318   6.726  14.315   9.076
 3829SOL    HW113319   6.781  14.247   9.113
 3829SOL    HW213320   6.708  14.286   8.986
 3830SOL     OW13321   1.869   9.579  11.636
 3830SOL    HW113322   1.830   9.493  11.623
 3830SOL    HW213323   1.963   9.561  11.645
 3831SOL     OW13324   0.958   8.329   0.697
 3831SOL    HW113325   0.996   8.274   0.628
 3831SOL    HW213326   1.032   8.350   0.754
 3832SOL     OW13327  13.835   5.882  12.005
 3832SOL    HW113328  13.886   5.956  11.973
 3832SOL    HW213329  13.827   5.898  12.099
 3833SOL     OW13330   2.915   1.977   3.116
 3833SOL    HW113331   2.976   1.996   3.188
 3833SOL    HW213332   2.845   1.926   3.156
 3834SOL     OW13333   5.527  14.244  13.674
 3834SOL    HW113334   5.584  14.180  13.631
 3834SOL    HW213335   5.565  14.329  13.651
 3835SOL     OW13336   1.375   3.016  11.093
 3835SOL    HW113337   1.406   3.056  11.175
 3835SOL    HW213338   1.289   3.056  11.078
 3836SOL     OW13339   1.182   9.845   3.849
 3836SOL    HW113340   1.270   9.847   3.888
 3836SOL    HW213341   1.141   9.767   3.885
 3837SOL     OW13342  11.453  12.929   7.834
 3837SOL    HW113343  11.408  12.857   7.878
 3837SOL    HW213344  11.532  12.890   7.797
 3838SOL     OW13345   0.633  13.816   4.507
 3838SOL    HW113346   0.640  13.910   4.493
 3838SOL    HW213347   0.587  13.807   4.590
 3839SOL     OW13348   5.826   5.782  10.975
 3839SOL    HW113349   5.834   5.731  10.894
 3839SOL    HW213350   5.734   5.775  10.998
 3840SOL     OW13351  13.843   4.773   7.092
 3840SOL    HW113352  13.780   4.819   7.148
 3840SOL    HW213353  13.823   4.804   7.004
 3841SOL     OW13354   2.873   6.365  13.375
 3841SOL    HW113355   2.808   6.405  13.318
 3841SOL    HW213356   2.956   6.399  13.344
 3842SOL     OW13357   4.732   7.657   2.737
 3842SOL    HW113358   4.767   7.595   2.801
 3842SOL    HW213359   4.676   7.603   2.680
 3843SOL     OW13360  12.019   2.070   4.484
 3843SOL    HW113361  11.954   2.000   4.486
 3843SOL    HW213362  12.060   2.063   4.398
 3844SOL     OW13363   3.599  11.239  13.934
 3844SOL    HW113364   3.641  11.154  13.925
 3844SOL    HW213365   3.600  11.256  14.028
 3845SOL     OW13366   8.065   0.536  10.749
 3845SOL    HW113367   8.026   0.451  10.770
 3845SOL    HW213368   7.989   0.594  10.737
 3846SOL     OW13369   5.102   9.459   6.499
 3846SOL    HW113370   5.046   9.525   6.457
 3846SOL    HW213371   5.053   9.378   6.490
 3847SOL     OW13372  10.174  13.838   7.667
 3847SOL    HW113373  10.153  13.847   7.759
 3847SOL    HW213374  10.256  13.887   7.656
 3848SOL     OW13375   4.452  13.495   6.119
 3848SOL    HW113376   4.435  13.580   6.079
 3848SOL    HW213377   4.375  13.478   6.173
 3849SOL     OW13378   6.578  12.500   7.402
 3849SOL    HW113379   6.596  12.489   7.309
 3849SOL    HW213380   6.517  12.430   7.424
 3850SOL     OW13381  13.312   4.411   8.472
 3850SOL    HW113382  13.343   4.373   8.390
 3850SOL    HW213383  13.293   4.502   8.450
 3851SOL     OW13384   0.371  10.761   8.986
 3851SOL    HW113385   0.307  10.690   8.980
 3851SOL    HW213386   0.337  10.818   9.055
 3852SOL     OW13387  14.462   8.491   1.001
 3852SOL    HW113388  14.481   8.417   1.060
 3852SOL    HW213389  14.543   8.542   1.001
 3853SOL     OW13390  13.953   7.265   7.455
 3853SOL    HW113391  13.978   7.355   7.436
 3853SOL    HW213392  13.877   7.272   7.513
 3854SOL     OW13393   0.075  11.454  13.086
 3854SOL    HW113394   0.039  11.499  13.163
 3854SOL    HW213395   0.045  11.363  13.096
 3855SOL     OW13396  10.848   9.103  11.531
 3855SOL    HW113397  10.934   9.113  11.492
 3855SOL    HW213398  10.843   9.173  11.597
 3856SOL     OW13399   6.698   6.634   1.374
 3856SOL    HW113400   6.787   6.659   1.397
 3856SOL    HW213401   6.653   6.718   1.357
 3857SOL     OW13402   3.224  10.966   2.153
 3857SOL    HW113403   3.263  10.909   2.219
 3857SOL    HW213404   3.169  10.908   2.100
 3858SOL     OW13405   8.558   2.987   5.236
 3858SOL    HW113406   8.615   3.052   5.195
 3858SOL    HW213407   8.493   3.039   5.283
 3859SOL     OW13408  11.451  11.354  13.775
 3859SOL    HW113409  11.545  11.340  13.764
 3859SOL    HW213410  11.442  11.449  13.781
 3860SOL     OW13411   8.051   7.136   8.527
 3860SOL    HW113412   7.983   7.161   8.465
 3860SOL    HW213413   8.005   7.124   8.610
 3861SOL     OW13414  14.852   1.320  11.596
 3861SOL    HW113415  14.855   1.404  11.551
 3861SOL    HW213416  14.866   1.255  11.527
 3862SOL     OW13417   9.795   8.868   0.844
 3862SOL    HW113418   9.738   8.896   0.915
 3862SOL    HW213419   9.839   8.949   0.816
 3863SOL     OW13420   6.110  10.281   5.227
 3863SOL    HW113421   6.114  10.223   5.151
 3863SOL    HW213422   6.192  10.330   5.224
 3864SOL     OW13423  10.339  11.612   8.686
 3864SOL    HW113424  10.266  11.672   8.673
 3864SOL    HW213425  10.375  11.636   8.771
 3865SOL     OW13426  12.160   5.337   5.970
 3865SOL    HW113427  12.091   5.311   6.031
 3865SOL    HW213428  12.128   5.419   5.932
 3866SOL     OW13429   4.332   0.432  10.590
 3866SOL    HW113430   4.247   0.424  10.546
 3866SOL    HW213431   4.335   0.524  10.618
 3867SOL     OW13432   2.042   0.903   1.532
 3867SOL    HW113433   2.125   0.924   1.488
 3867SOL    HW213434   1.982   0.971   1.503
 3868SOL     OW13435   3.933   4.864   5.296
 3868SOL    HW113436   3.893   4.814   5.367
 3868SOL    HW213437   3.928   4.955   5.324
 3869SOL     OW13438  13.869   4.964  14.262
 3869SOL    HW113439  13.810   5.018  14.209
 3869SOL    HW213440  13.922   5.026  14.310
 3870SOL     OW13441   0.932   2.318   7.031
 3870SOL    HW113442   0.846   2.360   7.026
 3870SOL    HW213443   0.991   2.389   7.056
 3871SOL     OW13444   6.152  13.496   6.630
 3871SOL    HW113445   6.089  13.434   6.592
 3871SOL    HW213446   6.238  13.460   6.608
 3872SOL     OW13447  12.283   1.564   1.867
 3872SOL    HW113448  12.277   1.470   1.846
 3872SOL    HW213449  12.377   1.581   1.874
 3873SOL     OW13450   2.462   9.636   2.089
 3873SOL    HW113451   2.380   9.602   2.125
 3873SOL    HW213452   2.527   9.569   2.109
 3874SOL     OW13453   2.523  13.196  12.185
 3874SOL    HW113454   2.479  13.140  12.122
 3874SOL    HW213455   2.480  13.281  12.176
 3875SOL     OW13456   7.015   0.976   2.662
 3875SOL    HW113457   7.048   0.897   2.619
 3875SOL    HW213458   7.015   1.042   2.594
 3876SOL     OW13459   2.548   3.957   3.784
 3876SOL    HW113460   2.480   3.906   3.829
 3876SOL    HW213461   2.500   4.028   3.742
 3877SOL     OW13462   3.757  13.280  10.350
 3877SOL    HW113463   3.840  13.301  10.308
 3877SOL    HW213464   3.765  13.189  10.376
 3878SOL     OW13465   4.688  10.518   4.726
 3878SOL    HW113466   4.611  10.574   4.737
 3878SOL    HW213467   4.690  10.464   4.804
 3879SOL     OW13468  14.211   6.538   5.720
 3879SOL    HW113469  14.220   6.543   5.625
 3879SOL    HW213470  14.295   6.569   5.754
 3880SOL     OW13471  11.033   7.709   6.506
 3880SOL    HW113472  11.039   7.704   6.411
 3880SOL    HW213473  10.942   7.734   6.523
 3881SOL     OW13474   9.245   8.901   3.219
 3881SOL    HW113475   9.167   8.878   3.169
 3881SOL    HW213476   9.286   8.817   3.239
 3882SOL     OW13477   1.693   9.466  12.954
 3882SOL    HW113478   1.616   9.415  12.979
 3882SOL    HW213479   1.677   9.491  12.863
 3883SOL     OW13480  12.288  14.770   9.811
 3883SOL    HW113481  12.343  14.829   9.759
 3883SOL    HW213482  12.214  14.750   9.754
 3884SOL     OW13483  13.270   1.486   5.531
 3884SOL    HW113484  13.329   1.411   5.544
 3884SOL    HW213485  13.309   1.557   5.581
 3885SOL     OW13486   6.673   0.234   0.546
 3885SOL    HW113487   6.721   0.237   0.630
 3885SOL    HW213488   6.742   0.231   0.480
 3886SOL     OW13489   2.079   5.005  12.735
 3886SOL    HW113490   2.072   5.073  12.668
 3886SOL    HW213491   2.092   5.052  12.817
 3887SOL     OW13492   4.613   7.623   0.551
 3887SOL    HW113493   4.542   7.603   0.491
 3887SOL    HW213494   4.649   7.537   0.575
 3888SOL     OW13495   0.029   3.842  10.890
 3888SOL    HW113496  14.867   3.843  10.805
 3888SOL    HW213497   0.075   3.926  10.895
 3889SOL     OW13498  11.707   8.602   3.247
 3889SOL    HW113499  11.613   8.588   3.254
 3889SOL    HW213500  11.744   8.552   3.320
 3890SOL     OW13501  13.540   4.129   0.152
 3890SOL    HW113502  13.593   4.209   0.160
 3890SOL    HW213503  13.450   4.161   0.145
 3891SOL     OW13504   1.083   7.551  12.660
 3891SOL    HW113505   0.994   7.537  12.628
 3891SOL    HW213506   1.117   7.462  12.675
 3892SOL     OW13507   7.781   7.875   5.984
 3892SOL    HW113508   7.775   7.819   6.061
 3892SOL    HW213509   7.707   7.848   5.929
 3893SOL     OW13510   2.806  12.467   5.122
 3893SOL    HW113511   2.901  12.472   5.114
 3893SOL    HW213512   2.774  12.547   5.082
 3894SOL     OW13513   0.684   9.030   4.223
 3894SOL    HW113514   0.739   8.959   4.257
 3894SOL    HW213515   0.603   9.024   4.274
 3895SOL     OW13516  11.949  10.268  10.315
 3895SOL    HW113517  11.855  10.252  10.322
 3895SOL    HW213518  11.960  10.314  10.232
 3896SOL     OW13519   1.712   5.272   3.638
 3896SOL    HW113520   1.662   5.198   3.604
 3896SOL    HW213521   1.727   5.328   3.561
 3897SOL     OW13522  14.217   7.799   2.337
 3897SOL    HW113523  14.224   7.848   2.255
 3897SOL    HW213524  14.123   7.783   2.348
 3898SOL     OW13525   0.910   8.600   1.584
 3898SOL    HW113526   0.824   8.573   1.553
 3898SOL    HW213527   0.892   8.674   1.642
 3899SOL     OW13528   1.076  13.521   7.218
 3899SOL    HW113529   1.000  13.530   7.160
 3899SOL    HW213530   1.144  13.481   7.163
 3900SOL     OW13531  14.789   6.117  12.901
 3900SOL    HW113532  14.845   6.041  12.887
 3900SOL    HW213533  14.719   6.085  12.959
 3901SOL     OW13534  12.337   9.557   4.780
 3901SOL    HW113535  12.392   9.489   4.819
 3901SOL    HW213536  12.399   9.617   4.739
 3902SOL     OW13537  14.588  10.721  12.700
 3902SOL    HW113538  14.621  10.673  12.624
 3902SOL    HW213539  14.590  10.657  12.771
 3903SOL     OW13540   6.725  13.787   5.845
 3903SOL    HW113541   6.678  13.784   5.761
 3903SOL    HW213542   6.689  13.714   5.895
 3904SOL     OW13543   5.589   6.037  10.373
 3904SOL    HW113544   5.680   6.009  10.372
 3904SOL    HW213545   5.542   5.968  10.420
 3905SOL     OW13546   3.346   2.835  14.254
 3905SOL    HW113547   3.300   2.780  14.191
 3905SOL    HW213548   3.385   2.904  14.200
 3906SOL     OW13549   8.662  12.783   1.752
 3906SOL    HW113550   8.697  12.836   1.823
 3906SOL    HW213551   8.615  12.712   1.796
 3907SOL     OW13552   4.416   4.187   1.611
 3907SOL    HW113553   4.507   4.158   1.604
 3907SOL    HW213554   4.364   4.109   1.590
 3908SOL     OW13555   3.930   2.759  11.302
 3908SOL    HW113556   4.004   2.818  11.284
 3908SOL    HW213557   3.960   2.706  11.376
 3909SOL     OW13558   9.607   9.109  13.795
 3909SOL    HW113559   9.702   9.098  13.788
 3909SOL    HW213560   9.591   9.111  13.890
 3910SOL     OW13561  13.036  10.542   4.864
 3910SOL    HW113562  13.129  10.524   4.857
 3910SOL    HW213563  13.028  10.598   4.941
 3911SOL     OW13564   9.995   4.406  11.788
 3911SOL    HW113565   9.954   4.367  11.865
 3911SOL    HW213566  10.017   4.495  11.814
 3912SOL     OW13567   1.382   1.550  13.742
 3912SOL    HW113568   1.316   1.488  13.710
 3912SOL    HW213569   1.392   1.528  13.835
 3913SOL     OW13570   5.150   2.107   9.335
 3913SOL    HW113571   5.216   2.173   9.355
 3913SOL    HW213572   5.201   2.030   9.308
 3914SOL     OW13573  13.963   8.816   4.477
 3914SOL    HW113574  14.025   8.760   4.430
 3914SOL    HW213575  14.011   8.843   4.555
 3915SOL     OW13576   6.331   0.712   7.781
 3915SOL    HW113577   6.356   0.630   7.738
 3915SOL    HW213578   6.250   0.738   7.736
 3916SOL     OW13579   0.400   1.070   4.299
 3916SOL    HW113580   0.340   1.143   4.287
 3916SOL    HW213581   0.476   1.093   4.245
 3917SOL     OW13582   2.659   4.617  11.906
 3917SOL    HW113583   2.596   4.616  11.834
 3917SOL    HW213584   2.620   4.675  11.972
 3918SOL     OW13585   4.395  12.885   7.202
 3918SOL    HW113586   4.485  12.875   7.171
 3918SOL    HW213587   4.371  12.975   7.178
 3919SOL     OW13588   3.046   8.510  12.672
 3919SOL    HW113589   2.990   8.455  12.617
 3919SOL    HW213590   3.041   8.470  12.759
 3920SOL     OW13591   2.460   8.131   7.623
 3920SOL    HW113592   2.426   8.109   7.535
 3920SOL    HW213593   2.435   8.222   7.635
 3921SOL     OW13594   1.654  13.294   7.753
 3921SOL    HW113595   1.696  13.208   7.749
 3921SOL    HW213596   1.682  13.330   7.837
 3922SOL     OW13597   1.682  14.345   7.538
 3922SOL    HW113598   1.742  14.298   7.480
 3922SOL    HW213599   1.615  14.379   7.479
 3923SOL     OW13600   1.516  10.979   9.477
 3923SOL    HW113601   1.536  10.886   9.466
 3923SOL    HW213602   1.443  10.980   9.540
 3924SOL     OW13603   0.248   0.482   4.528
 3924SOL    HW113604   0.273   0.571   4.550
 3924SOL    HW213605   0.330   0.440   4.500
 3925SOL     OW13606  13.690   6.708   4.891
 3925SOL    HW113607  13.645   6.723   4.808
 3925SOL    HW213608  13.620   6.682   4.952
 3926SOL     OW13609   7.940   9.618   1.051
 3926SOL    HW113610   7.866   9.675   1.029
 3926SOL    HW213611   7.991   9.668   1.115
 3927SOL     OW13612   5.165   1.653   6.854
 3927SOL    HW113613   5.198   1.564   6.866
 3927SOL    HW213614   5.243   1.706   6.840
 3928SOL     OW13615  14.657   5.082   5.451
 3928SOL    HW113616  14.694   5.001   5.488
 3928SOL    HW213617  14.732   5.125   5.408
 3929SOL     OW13618   6.541   3.149   2.633
 3929SOL    HW113619   6.482   3.076   2.652
 3929SOL    HW213620   6.628   3.113   2.644
 3930SOL     OW13621   5.136  12.350  11.311
 3930SOL    HW113622   5.218  12.326  11.354
 3930SOL    HW213623   5.161  12.417  11.247
 3931SOL     OW13624   4.944   6.935   5.773
 3931SOL    HW113625   4.969   6.845   5.755
 3931SOL    HW213626   4.888   6.930   5.851
 3932SOL     OW13627   0.013   6.379  12.983
 3932SOL    HW113628  14.813   6.330  12.978
 3932SOL    HW213629  14.867   6.471  12.985
 3933SOL     OW13630   4.433   4.940   9.429
 3933SOL    HW113631   4.440   4.855   9.387
 3933SOL    HW213632   4.450   5.003   9.358
 3934SOL     OW13633   7.508   6.344   6.246
 3934SOL    HW113634   7.413   6.344   6.258
 3934SOL    HW213635   7.526   6.424   6.196
 3935SOL     OW13636  10.278   8.190   2.432
 3935SOL    HW113637  10.192   8.185   2.390
 3935SOL    HW213638  10.270   8.262   2.494
 3936SOL     OW13639   3.112   0.601  14.181
 3936SOL    HW113640   3.030   0.647  14.195
 3936SOL    HW213641   3.142   0.578  14.269
 3937SOL     OW13642  12.414   9.138  13.004
 3937SOL    HW113643  12.433   9.212  13.062
 3937SOL    HW213644  12.492   9.083  13.011
 3938SOL     OW13645  13.002   3.904  12.240
 3938SOL    HW113646  12.920   3.952  12.246
 3938SOL    HW213647  13.023   3.881  12.330
 3939SOL     OW13648   2.898   4.970   2.782
 3939SOL    HW113649   2.808   4.999   2.766
 3939SOL    HW213650   2.938   5.040   2.833
 3940SOL     OW13651   5.748   6.764   0.296
 3940SOL    HW113652   5.800   6.683   0.297
 3940SOL    HW213653   5.719   6.776   0.386
 3941SOL     OW13654   4.520   3.408   0.439
 3941SOL    HW113655   4.544   3.440   0.352
 3941SOL    HW213656   4.432   3.372   0.428
 3942SOL     OW13657   9.481   9.068   9.290
 3942SOL    HW113658   9.406   9.087   9.232
 3942SOL    HW213659   9.486   9.145   9.347
 3943SOL     OW13660   2.029   5.350  10.264
 3943SOL    HW113661   2.023   5.322  10.173
 3943SOL    HW213662   1.939   5.373  10.287
 3944SOL     OW13663  10.368   6.618  11.932
 3944SOL    HW113664  10.391   6.673  12.007
 3944SOL    HW213665  10.444   6.620  11.875
 3945SOL     OW13666   8.960  10.682   0.122
 3945SOL    HW113667   9.043  10.649   0.155
 3945SOL    HW213668   8.907  10.603   0.107
 3946SOL     OW13669   3.999  10.050   0.653
 3946SOL    HW113670   3.960  10.056   0.740
 3946SOL    HW213671   4.003   9.957   0.634
 3947SOL     OW13672   7.557  12.926  10.858
 3947SOL    HW113673   7.596  12.931  10.771
 3947SOL    HW213674   7.612  12.864  10.906
 3948SOL     OW13675  14.836   6.150  11.170
 3948SOL    HW113676   0.024   6.162  11.235
 3948SOL    HW213677   0.001   6.142  11.087
 3949SOL     OW13678   6.163   7.976   9.724
 3949SOL    HW113679   6.103   7.920   9.675
 3949SOL    HW213680   6.120   8.062   9.725
 3950SOL     OW13681  12.575   0.214   6.831
 3950SOL    HW113682  12.606   0.303   6.813
 3950SOL    HW213683  12.653   0.167   6.862
 3951SOL     OW13684  13.654   7.894  11.765
 3951SOL    HW113685  13.693   7.912  11.679
 3951SOL    HW213686  13.619   7.979  11.793
 3952SOL     OW13687   3.461   3.516   1.100
 3952SOL    HW113688   3.474   3.579   1.171
 3952SOL    HW213689   3.377   3.540   1.062
 3953SOL     OW13690   2.653   3.696   7.442
 3953SOL    HW113691   2.598   3.774   7.448
 3953SOL    HW213692   2.740   3.729   7.422
 3954SOL     OW13693   3.894  11.768   1.022
 3954SOL    HW113694   3.904  11.696   1.085
 3954SOL    HW213695   3.849  11.727   0.948
 3955SOL     OW13696   2.971   0.750   4.341
 3955SOL    HW113697   3.017   0.766   4.423
 3955SOL    HW213698   2.878   0.756   4.363
 3956SOL     OW13699   6.384   5.025  10.605
 3956SOL    HW113700   6.289   5.013  10.606
 3956SOL    HW213701   6.420   4.937  10.615
 3957SOL     OW13702   6.010   8.701  13.805
 3957SOL    HW113703   6.064   8.633  13.846
 3957SOL    HW213704   5.921   8.666  13.810
 3958SOL     OW13705  12.530  14.813   4.783
 3958SOL    HW113706  12.486  14.729   4.798
 3958SOL    HW213707  12.490  14.846   4.703
 3959SOL     OW13708   0.016   6.830  13.744
 3959SOL    HW113709  14.866   6.749  13.704
 3959SOL    HW213710   0.109   6.833  13.722
 3960SOL     OW13711  10.471  12.390   3.848
 3960SOL    HW113712  10.456  12.360   3.759
 3960SOL    HW213713  10.531  12.326   3.886
 3961SOL     OW13714  12.922   1.649   0.851
 3961SOL    HW113715  12.910   1.561   0.885
 3961SOL    HW213716  13.016   1.664   0.856
 3962SOL     OW13717  11.636   2.536   3.935
 3962SOL    HW113718  11.572   2.567   3.999
 3962SOL    HW213719  11.661   2.449   3.965
 3963SOL     OW13720   6.961   6.483  12.980
 3963SOL    HW113721   6.943   6.576  12.972
 3963SOL    HW213722   6.932   6.445  12.897
 3964SOL     OW13723  14.073   9.948   9.440
 3964SOL    HW113724  14.005   9.988   9.494
 3964SOL    HW213725  14.089  10.012   9.371
 3965SOL     OW13726   5.695   5.422  13.109
 3965SOL    HW113727   5.614   5.424  13.159
 3965SOL    HW213728   5.720   5.330  13.107
 3966SOL     OW13729   5.217  12.124   1.003
 3966SOL    HW113730   5.267  12.052   1.044
 3966SOL    HW213731   5.280  12.167   0.947
 3967SOL     OW13732   7.265   0.585   5.629
 3967SOL    HW113733   7.248   0.496   5.658
 3967SOL    HW213734   7.300   0.629   5.708
 3968SOL     OW13735   4.937   7.256   8.672
 3968SOL    HW113736   4.856   7.283   8.717
 3968SOL    HW213737   4.964   7.177   8.718
 3969SOL     OW13738   5.930   5.573   7.471
 3969SOL    HW113739   5.899   5.554   7.382
 3969SOL    HW213740   5.852   5.566   7.526
 3970SOL     OW13741  14.008   0.861   9.688
 3970SOL    HW113742  13.998   0.784   9.744
 3970SOL    HW213743  13.919   0.885   9.665
 3971SOL     OW13744  13.458   9.500  12.602
 3971SOL    HW113745  13.510   9.451  12.666
 3971SOL    HW213746  13.437   9.583  12.645
 3972SOL     OW13747  11.311   6.908   8.291
 3972SOL    HW113748  11.379   6.882   8.230
 3972SOL    HW213749  11.288   6.828   8.338
 3973SOL     OW13750  14.669  12.652   7.742
 3973SOL    HW113751  14.754  12.613   7.759
 3973SOL    HW213752  14.676  12.741   7.777
 3974SOL     OW13753  12.909   2.478   1.251
 3974SOL    HW113754  12.874   2.389   1.239
 3974SOL    HW213755  12.994   2.476   1.207
 3975SOL     OW13756   6.245  13.298   3.823
 3975SOL    HW113757   6.273  13.354   3.895
 3975SOL    HW213758   6.269  13.347   3.744
 3976SOL     OW13759   7.373   8.437   7.769
 3976SOL    HW113760   7.429   8.363   7.747
 3976SOL    HW213761   7.305   8.437   7.701
 3977SOL     OW13762   3.392   5.728  14.228
 3977SOL    HW113763   3.304   5.764  14.243
 3977SOL    HW213764   3.393   5.705  14.135
 3978SOL     OW13765  12.649  13.052   7.185
 3978SOL    HW113766  12.724  13.017   7.137
 3978SOL    HW213767  12.603  12.975   7.218
 3979SOL     OW13768   1.202   5.021   8.478
 3979SOL    HW113769   1.150   4.942   8.494
 3979SOL    HW213770   1.211   5.062   8.564
 3980SOL     OW13771   6.984   7.040   3.899
 3980SOL    HW113772   6.924   7.095   3.950
 3980SOL    HW213773   7.019   7.098   3.832
 3981SOL     OW13774   4.779  14.486   4.669
 3981SOL    HW113775   4.703  14.543   4.679
 3981SOL    HW213776   4.755  14.405   4.714
 3982SOL     OW13777  13.209   9.521   2.973
 3982SOL    HW113778  13.245   9.597   3.019
 3982SOL    HW213779  13.279   9.494   2.913
 3983SOL     OW13780  10.720  10.248  13.100
 3983SOL    HW113781  10.814  10.249  13.077
 3983SOL    HW213782  10.709  10.326  13.155
 3984SOL     OW13783  13.605   9.032  10.492
 3984SOL    HW113784  13.594   9.099  10.425
 3984SOL    HW213785  13.516   9.002  10.510
 3985SOL     OW13786   6.935  14.668   7.715
 3985SOL    HW113787   6.944  14.732   7.784
 3985SOL    HW213788   7.021  14.625   7.710
 3986SOL     OW13789  13.187   7.181   5.112
 3986SOL    HW113790  13.276   7.215   5.103
 3986SOL    HW213791  13.134   7.259   5.129
 3987SOL     OW13792  11.243   9.195   6.247
 3987SOL    HW113793  11.265   9.271   6.301
 3987SOL    HW213794  11.189   9.140   6.303
 3988SOL     OW13795   0.278  14.323   4.074
 3988SOL    HW113796   0.185  14.328   4.095
 3988SOL    HW213797   0.319  14.386   4.134
 3989SOL     OW13798   7.621   3.684   2.911
 3989SOL    HW113799   7.642   3.631   2.835
 3989SOL    HW213800   7.674   3.648   2.982
 3990SOL     OW13801  13.519   8.746   6.377
 3990SOL    HW113802  13.591   8.755   6.439
 3990SOL    HW213803  13.474   8.830   6.378
 3991SOL     OW13804   5.604   9.488   3.007
 3991SOL    HW113805   5.572   9.398   3.012
 3991SOL    HW213806   5.661   9.489   2.930
 3992SOL     OW13807   9.407   7.409   7.964
 3992SOL    HW113808   9.376   7.401   7.874
 3992SOL    HW213809   9.484   7.353   7.968
 3993SOL     OW13810   0.804   8.689  11.365
 3993SOL    HW113811   0.786   8.598  11.391
 3993SOL    HW213812   0.886   8.711  11.408
 3994SOL     OW13813   4.719   0.936   8.850
 3994SOL    HW113814   4.678   1.015   8.884
 3994SOL    HW213815   4.744   0.886   8.927
 3995SOL     OW13816  11.561   8.470  11.721
 3995SOL    HW113817  11.534   8.381  11.697
 3995SOL    HW213818  11.479   8.520  11.725
 3996SOL     OW13819  12.782   7.402   1.471
 3996SOL    HW113820  12.709   7.358   1.515
 3996SOL    HW213821  12.761   7.396   1.378
 3997SOL     OW13822   8.063  13.398  10.815
 3997SOL    HW113823   7.968  13.389  10.827
 3997SOL    HW213824   8.082  13.350  10.734
 3998SOL     OW13825   4.575  12.900   2.210
 3998SOL    HW113826   4.669  12.914   2.200
 3998SOL    HW213827   4.552  12.945   2.292
 3999SOL     OW13828  11.524   4.789   1.101
 3999SOL    HW113829  11.496   4.844   1.174
 3999SOL    HW213830  11.600   4.835   1.064
 4000SOL     OW13831  13.223   1.132  14.527
 4000SOL    HW113832  13.245   1.178  14.608
 4000SOL    HW213833  13.286   1.059  14.523
 4001SOL     OW13834   7.510   5.068   5.537
 4001SOL    HW113835   7.467   5.001   5.591
 4001SOL    HW213836   7.479   5.151   5.574
 4002SOL     OW13837  10.336   9.404   3.227
 4002SOL    HW113838  10.364   9.313   3.224
 4002SOL    HW213839  10.305   9.423   3.138
 4003SOL     OW13840   3.709   2.621  10.645
 4003SOL    HW113841   3.722   2.714  10.667
 4003SOL    HW213842   3.764   2.608  10.567
 4004SOL     OW13843  10.446   8.102   3.387
 4004SOL    HW113844  10.397   8.172   3.345
 4004SOL    HW213845  10.523   8.146   3.424
 4005SOL     OW13846   8.850   6.536  14.852
 4005SOL    HW113847   8.761   6.573  14.855
 4005SOL    HW213848   8.837   6.444  14.830
 4006SOL     OW13849   2.196  12.322   6.708
 4006SOL    HW113850   2.231  12.396   6.659
 4006SOL    HW213851   2.168  12.360   6.792
 4007SOL     OW13852   0.600  12.535   8.568
 4007SOL    HW113853   0.532  12.468   8.562
 4007SOL    HW213854   0.596  12.581   8.484
 4008SOL     OW13855   6.360   1.824  11.765
 4008SOL    HW113856   6.344   1.893  11.701
 4008SOL    HW213857   6.455   1.817  11.770
 4009SOL     OW13858   5.973   3.416   9.028
 4009SOL    HW113859   5.949   3.412   8.935
 4009SOL    HW213860   5.995   3.507   9.044
 4010SOL     OW13861  12.932  12.329   3.225
 4010SOL    HW113862  12.942  12.299   3.315
 4010SOL    HW213863  12.999  12.396   3.214
 4011SOL     OW13864   3.982   3.450   8.675
 4011SOL    HW113865   3.956   3.534   8.714
 4011SOL    HW213866   4.034   3.408   8.743
 4012SOL     OW13867   6.877  14.379   7.683
 4012SOL    HW113868   6.942  14.379   7.753
 4012SOL    HW213869   6.832  14.463   7.693
 4013SOL     OW13870  13.255  12.997   1.181
 4013SOL    HW113871  13.185  13.058   1.162
 4013SOL    HW213872  13.216  12.932   1.240
 4014SOL     OW13873  12.414   8.065   2.248
 4014SOL    HW113874  12.411   8.158   2.270
 4014SOL    HW213875  12.362   8.022   2.317
 4015SOL     OW13876   6.730   2.161  14.011
 4015SOL    HW113877   6.807   2.104  14.014
 4015SOL    HW213878   6.696   2.160  14.101
 4016SOL     OW13879   3.228   2.689   0.817
 4016SOL    HW113880   3.244   2.782   0.833
 4016SOL    HW213881   3.308   2.645   0.847
 4017SOL     OW13882  10.599  13.889   6.953
 4017SOL    HW113883  10.610  13.969   6.902
 4017SOL    HW213884  10.645  13.906   7.035
 4018SOL     OW13885  12.513   1.161   3.073
 4018SOL    HW113886  12.515   1.106   3.152
 4018SOL    HW213887  12.423   1.193   3.068
 4019SOL     OW13888   6.806   8.949   5.087
 4019SOL    HW113889   6.843   8.876   5.137
 4019SOL    HW213890   6.867   9.022   5.104
 4020SOL     OW13891   9.356   4.744   2.869
 4020SOL    HW113892   9.346   4.738   2.774
 4020SOL    HW213893   9.389   4.833   2.884
 4021SOL     OW13894   8.175   3.606  12.178
 4021SOL    HW113895   8.181   3.685  12.123
 4021SOL    HW213896   8.210   3.536  12.124
 4022SOL     OW13897   2.035   0.423   3.759
 4022SOL    HW113898   2.096   0.497   3.757
 4022SOL    HW213899   1.964   0.449   3.701
 4023SOL     OW13900   0.219   0.850   3.428
 4023SOL    HW113901   0.189   0.843   3.338
 4023SOL    HW213902   0.145   0.886   3.476
 4024SOL     OW13903  10.321   1.021   9.315
 4024SOL    HW113904  10.320   0.977   9.230
 4024SOL    HW213905  10.233   1.056   9.326
 4025SOL     OW13906   9.255  11.571  14.167
 4025SOL    HW113907   9.267  11.565  14.262
 4025SOL    HW213908   9.271  11.662  14.146
 4026SOL     OW13909   3.730   1.730   7.981
 4026SOL    HW113910   3.681   1.682   8.048
 4026SOL    HW213911   3.665   1.749   7.913
 4027SOL     OW13912  11.241  13.923   8.851
 4027SOL    HW113913  11.198  13.917   8.766
 4027SOL    HW213914  11.280  14.010   8.853
 4028SOL     OW13915  13.177   4.834   5.793
 4028SOL    HW113916  13.148   4.767   5.732
 4028SOL    HW213917  13.097   4.878   5.821
 4029SOL     OW13918  10.410   1.178   6.956
 4029SOL    HW113919  10.415   1.239   6.882
 4029SOL    HW213920  10.423   1.233   7.033
 4030SOL     OW13921  10.493   2.929   8.412
 4030SOL    HW113922  10.459   3.008   8.454
 4030SOL    HW213923  10.417   2.869   8.410
 4031SOL     OW13924   8.197  13.664   4.662
 4031SOL    HW113925   8.169  13.716   4.587
 4031SOL    HW213926   8.129  13.679   4.728
 4032SOL     OW13927   4.739   9.905   1.633
 4032SOL    HW113928   4.745   9.824   1.682
 4032SOL    HW213929   4.754   9.974   1.698
 4033SOL     OW13930  14.506   3.651   6.705
 4033SOL    HW113931  14.583   3.625   6.755
 4033SOL    HW213932  14.496   3.584   6.638
 4034SOL     OW13933  11.320  12.479   2.830
 4034SOL    HW113934  11.252  12.420   2.797
 4034SOL    HW213935  11.272  12.556   2.861
 4035SOL     OW13936   7.532   4.036   0.738
 4035SOL    HW113937   7.593   3.978   0.693
 4035SOL    HW213938   7.583   4.115   0.758
 4036SOL     OW13939  10.477   6.310   6.311
 4036SOL    HW113940  10.555   6.254   6.306
 4036SOL    HW213941  10.425   6.271   6.381
 4037SOL     OW13942  14.606   5.074   4.081
 4037SOL    HW113943  14.681   5.068   4.022
 4037SOL    HW213944  14.594   4.986   4.114
 4038SOL     OW13945  13.499   2.375  10.348
 4038SOL    HW113946  13.432   2.438  10.377
 4038SOL    HW213947  13.576   2.396  10.400
 4039SOL     OW13948   0.289   5.903   8.567
 4039SOL    HW113949   0.251   5.877   8.651
 4039SOL    HW213950   0.220   5.889   8.503
 4040SOL     OW13951   0.594  12.748  10.022
 4040SOL    HW113952   0.519  12.754   9.963
 4040SOL    HW213953   0.564  12.791  10.102
 4041SOL     OW13954  13.415  13.849   5.601
 4041SOL    HW113955  13.430  13.848   5.695
 4041SOL    HW213956  13.499  13.824   5.562
 4042SOL     OW13957   6.609  12.828  12.062
 4042SOL    HW113958   6.618  12.903  12.003
 4042SOL    HW213959   6.525  12.789  12.037
 4043SOL     OW13960   4.499   8.745   1.788
 4043SOL    HW113961   4.467   8.660   1.817
 4043SOL    HW213962   4.592   8.744   1.807
 4044SOL     OW13963   4.705   5.103   2.294
 4044SOL    HW113964   4.757   5.064   2.224
 4044SOL    HW213965   4.747   5.073   2.375
 4045SOL     OW13966   6.321   1.410   2.191
 4045SOL    HW113967   6.393   1.463   2.155
 4045SOL    HW213968   6.345   1.398   2.283
 4046SOL     OW13969   4.356   1.898  12.740
 4046SOL    HW113970   4.408   1.838  12.685
 4046SOL    HW213971   4.372   1.868  12.829
 4047SOL     OW13972   3.042   2.032   2.646
 4047SOL    HW113973   2.991   1.992   2.576
 4047SOL    HW213974   3.003   2.000   2.727
 4048SOL     OW13975   1.540   1.887   1.360
 4048SOL    HW113976   1.516   1.817   1.421
 4048SOL    HW213977   1.590   1.842   1.291
 4049SOL     OW13978  10.249  12.360   1.347
 4049SOL    HW113979  10.231  12.268   1.326
 4049SOL    HW213980  10.314  12.387   1.283
 4050SOL     OW13981   2.638  13.190   2.908
 4050SOL    HW113982   2.653  13.120   2.972
 4050SOL    HW213983   2.593  13.147   2.836
 4051SOL     OW13984   0.808  13.487   2.819
 4051SOL    HW113985   0.870  13.446   2.880
 4051SOL    HW213986   0.855  13.492   2.736
 4052SOL     OW13987  10.161  10.395   8.733
 4052SOL    HW113988  10.146  10.480   8.774
 4052SOL    HW213989  10.136  10.408   8.641
 4053SOL     OW13990   5.619  12.458  11.183
 4053SOL    HW113991   5.533  12.432  11.150
 4053SOL    HW213992   5.677  12.386  11.159
 4054SOL     OW13993   5.354   5.956  13.895
 4054SOL    HW113994   5.369   6.042  13.934
 4054SOL    HW213995   5.423   5.900  13.933
 4055SOL     OW13996   1.345   6.294   9.267
 4055SOL    HW113997   1.397   6.312   9.188
 4055SOL    HW213998   1.405   6.313   9.340
 4056SOL     OW13999  11.074   9.592   0.126
 4056SOL    HW114000  11.151   9.634   0.164
 4056SOL    HW214001  11.056   9.518   0.183
 4057SOL     OW14002  10.871   1.842  14.623
 4057SOL    HW114003  10.822   1.865  14.544
 4057SOL    HW214004  10.828   1.763  14.656
 4058SOL     OW14005  14.412   7.742   9.226
 4058SOL    HW114006  14.386   7.729   9.135
 4058SOL    HW214007  14.496   7.788   9.220
 4059SOL     OW14008   0.729  12.121   9.122
 4059SOL    HW114009   0.793  12.083   9.062
 4059SOL    HW214010   0.665  12.051   9.136
 4060SOL     OW14011  10.038  12.564   9.913
 4060SOL    HW114012   9.951  12.546   9.949
 4060SOL    HW214013  10.080  12.478   9.908
 4061SOL     OW14014  11.118   2.945   9.745
 4061SOL    HW114015  11.206   2.973   9.771
 4061SOL    HW214016  11.072   2.930   9.828
 4062SOL     OW14017   2.580   7.278   9.002
 4062SOL    HW114018   2.599   7.307   9.091
 4062SOL    HW214019   2.646   7.321   8.948
 4063SOL     OW14020   5.992   9.481   3.452
 4063SOL    HW114021   5.969   9.457   3.362
 4063SOL    HW214022   6.068   9.427   3.473
 4064SOL     OW14023  11.738   9.456   0.022
 4064SOL    HW114024  11.658   9.417  14.868
 4064SOL    HW214025  11.717   9.473   0.113
 4065SOL     OW14026   2.283  13.166  13.469
 4065SOL    HW114027   2.321  13.254  13.470
 4065SOL    HW214028   2.234  13.162  13.387
 4066SOL     OW14029   6.916   3.781   8.897
 4066SOL    HW114030   6.871   3.768   8.814
 4066SOL    HW214031   6.853   3.830   8.951
 4067SOL     OW14032   1.570   9.152   0.208
 4067SOL    HW114033   1.518   9.139   0.287
 4067SOL    HW214034   1.604   9.241   0.217
 4068SOL     OW14035   8.858   3.390  13.400
 4068SOL    HW114036   8.882   3.352  13.315
 4068SOL    HW214037   8.773   3.350  13.421
 4069SOL     OW14038  11.387   8.325   8.505
 4069SOL    HW114039  11.362   8.293   8.591
 4069SOL    HW214040  11.447   8.398   8.523
 4070SOL     OW14041   9.278  10.402   6.005
 4070SOL    HW114042   9.241  10.430   6.089
 4070SOL    HW214043   9.318  10.317   6.024
 4071SOL     OW14044  12.194   6.625  10.303
 4071SOL    HW114045  12.218   6.713  10.275
 4071SOL    HW214046  12.125   6.598  10.242
 4072SOL     OW14047  11.470  10.412  11.684
 4072SOL    HW114048  11.532  10.390  11.616
 4072SOL    HW214049  11.396  10.452  11.637
 4073SOL     OW14050  13.629  12.216   3.956
 4073SOL    HW114051  13.662  12.170   3.879
 4073SOL    HW214052  13.707  12.243   4.004
 4074SOL     OW14053   3.613  10.798   1.450
 4074SOL    HW114054   3.587  10.707   1.436
 4074SOL    HW214055   3.645  10.801   1.540
 4075SOL     OW14056   8.275   1.371   9.651
 4075SOL    HW114057   8.281   1.275   9.646
 4075SOL    HW214058   8.183   1.390   9.631
 4076SOL     OW14059   8.731  13.772  11.226
 4076SOL    HW114060   8.720  13.809  11.138
 4076SOL    HW214061   8.793  13.700  11.214
 4077SOL     OW14062   8.363   0.542   0.649
 4077SOL    HW114063   8.421   0.484   0.601
 4077SOL    HW214064   8.403   0.629   0.640
 4078SOL     OW14065   7.837   4.242   7.461
 4078SOL    HW114066   7.811   4.284   7.543
 4078SOL    HW214067   7.893   4.306   7.418
 4079SOL     OW14068   5.055  14.352   0.828
 4079SOL    HW114069   5.131  14.294   0.837
 4079SOL    HW214070   5.070  14.399   0.746
 4080SOL     OW14071   6.346   2.738   4.049
 4080SOL    HW114072   6.327   2.793   3.972
 4080SOL    HW214073   6.381   2.657   4.012
 4081SOL     OW14074  10.028   2.265   1.055
 4081SOL    HW114075  10.076   2.275   0.973
 4081SOL    HW214076   9.937   2.252   1.029
 4082SOL     OW14077   4.192   1.993   0.370
 4082SOL    HW114078   4.139   1.993   0.449
 4082SOL    HW214079   4.277   2.028   0.398
 4083SOL     OW14080   1.005  11.553   7.512
 4083SOL    HW114081   0.916  11.573   7.542
 4083SOL    HW214082   1.014  11.458   7.523
 4084SOL     OW14083   8.159   6.563   9.751
 4084SOL    HW114084   8.194   6.616   9.679
 4084SOL    HW214085   8.234   6.515   9.784
 4085SOL     OW14086  14.432  13.348  12.447
 4085SOL    HW114087  14.376  13.272  12.461
 4085SOL    HW214088  14.407  13.410  12.514
 4086SOL     OW14089  13.608  12.906  10.503
 4086SOL    HW114090  13.585  12.929  10.413
 4086SOL    HW214091  13.704  12.900  10.502
 4087SOL     OW14092  10.636  14.509  11.268
 4087SOL    HW114093  10.642  14.420  11.302
 4087SOL    HW214094  10.546  14.516  11.237
 4088SOL     OW14095   1.050  13.354   2.764
 4088SOL    HW114096   1.135  13.390   2.787
 4088SOL    HW214097   1.030  13.393   2.678
 4089SOL     OW14098  13.887   0.580   3.133
 4089SOL    HW114099  13.879   0.649   3.199
 4089SOL    HW214100  13.821   0.516   3.157
 4090SOL     OW14101   4.974   7.722   5.387
 4090SOL    HW114102   5.018   7.778   5.451
 4090SOL    HW214103   4.988   7.633   5.419
 4091SOL     OW14104   4.413   0.868  11.940
 4091SOL    HW114105   4.368   0.905  12.016
 4091SOL    HW214106   4.446   0.783  11.970
 4092SOL     OW14107  12.184   8.047   5.003
 4092SOL    HW114108  12.222   7.966   4.969
 4092SOL    HW214109  12.218   8.115   4.945
 4093SOL     OW14110  14.253   6.325   3.579
 4093SOL    HW114111  14.252   6.410   3.624
 4093SOL    HW214112  14.346   6.308   3.562
 4094SOL     OW14113   6.985  13.774   0.612
 4094SOL    HW114114   6.984  13.679   0.600
 4094SOL    HW214115   7.056  13.789   0.674
 4095SOL     OW14116   6.428   4.903  12.904
 4095SOL    HW114117   6.334   4.924  12.903
 4095SOL    HW214118   6.440   4.846  12.828
 4096SOL     OW14119   7.987   3.588  14.535
 4096SOL    HW114120   7.948   3.545  14.611
 4096SOL    HW214121   8.080   3.564  14.539
 4097SOL     OW14122   7.573   6.318   1.786
 4097SOL    HW114123   7.596   6.226   1.795
 4097SOL    HW214124   7.588   6.355   1.874
 4098SOL     OW14125   4.906  10.732  11.756
 4098SOL    HW114126   4.967  10.682  11.811
 4098SOL    HW214127   4.869  10.667  11.696
 4099SOL     OW14128   5.567  12.178  10.382
 4099SOL    HW114129   5.513  12.125  10.441
 4099SOL    HW214130   5.584  12.258  10.432
 4100SOL     OW14131   7.018  10.592  10.070
 4100SOL    HW114132   7.051  10.535  10.000
 4100SOL    HW214133   7.095  10.641  10.099
 4101SOL     OW14134   1.412  11.609   0.305
 4101SOL    HW114135   1.501  11.586   0.331
 4101SOL    HW214136   1.409  11.589   0.211
 4102SOL     OW14137   3.757  12.265   6.257
 4102SOL    HW114138   3.794  12.352   6.266
 4102SOL    HW214139   3.833  12.207   6.254
 4103SOL     OW14140   9.702  14.051   2.055
 4103SOL    HW114141   9.720  14.142   2.079
 4103SOL    HW214142   9.614  14.053   2.017
 4104SOL     OW14143   4.909   5.872   9.900
 4104SOL    HW114144   4.873   5.859   9.813
 4104SOL    HW214145   4.982   5.932   9.887
 4105SOL     OW14146   2.702   7.030   4.207
 4105SOL    HW114147   2.734   7.100   4.263
 4105SOL    HW214148   2.703   6.952   4.263
 4106SOL     OW14149   8.846   3.746   9.500
 4106SOL    HW114150   8.884   3.691   9.569
 4106SOL    HW214151   8.753   3.723   9.500
 4107SOL     OW14152   0.753  12.600  11.314
 4107SOL    HW114153   0.725  12.581  11.404
 4107SOL    HW214154   0.795  12.686  11.320
 4108SOL     OW14155   9.514   0.363   4.336
 4108SOL    HW114156   9.604   0.371   4.366
 4108SOL    HW214157   9.516   0.292   4.272
 4109SOL     OW14158   5.302   3.375  14.730
 4109SOL    HW114159   5.385   3.423  14.722
 4109SOL    HW214160   5.304   3.339  14.818
 4110SOL     OW14161   2.921   2.717   5.273
 4110SOL    HW114162   2.974   2.742   5.197
 4110SOL    HW214163   2.957   2.769   5.345
 4111SOL     OW14164   0.788  11.377   2.892
 4111SOL    HW114165   0.773  11.444   2.959
 4111SOL    HW214166   0.879  11.352   2.903
 4112SOL     OW14167   7.946   1.431  14.474
 4112SOL    HW114168   7.905   1.347  14.493
 4112SOL    HW214169   7.986   1.457  14.557
 4113SOL     OW14170   2.816   8.053  10.528
 4113SOL    HW114171   2.732   8.013  10.502
 4113SOL    HW214172   2.878   7.980  10.526
 4114SOL     OW14173  13.101  10.019   0.477
 4114SOL    HW114174  13.020  10.039   0.430
 4114SOL    HW214175  13.118   9.927   0.458
 4115SOL     OW14176   1.812   5.356  12.451
 4115SOL    HW114177   1.798   5.424  12.516
 4115SOL    HW214178   1.804   5.401  12.367
 4116SOL     OW14179  12.454  11.986  12.338
 4116SOL    HW114180  12.392  12.053  12.368
 4116SOL    HW214181  12.431  11.908  12.388
 4117SOL     OW14182  11.767  12.194   5.366
 4117SOL    HW114183  11.683  12.171   5.327
 4117SOL    HW214184  11.784  12.284   5.338
 4118SOL     OW14185  14.416   5.228   3.702
 4118SOL    HW114186  14.367   5.209   3.782
 4118SOL    HW214187  14.413   5.324   3.693
 4119SOL     OW14188   5.026  12.607   3.382
 4119SOL    HW114189   4.953  12.651   3.425
 4119SOL    HW214190   5.033  12.650   3.296
 4120SOL     OW14191  13.965  10.264   0.054
 4120SOL    HW114192  13.979  10.169   0.054
 4120SOL    HW214193  14.044  10.299   0.013
 4121SOL     OW14194   4.493  11.315   9.415
 4121SOL    HW114195   4.563  11.255   9.388
 4121SOL    HW214196   4.454  11.273   9.492
 4122SOL     OW14197   8.296  13.955   2.385
 4122SOL    HW114198   8.315  13.996   2.469
 4122SOL    HW214199   8.353  13.878   2.382
 4123SOL     OW14200   5.103   2.439   5.266
 4123SOL    HW114201   5.114   2.379   5.192
 4123SOL    HW214202   5.174   2.503   5.256
 4124SOL     OW14203   2.041   0.784   8.818
 4124SOL    HW114204   2.128   0.757   8.788
 4124SOL    HW214205   2.058   0.844   8.890
 4125SOL     OW14206   8.163   9.691   8.001
 4125SOL    HW114207   8.173   9.669   8.094
 4125SOL    HW214208   8.074   9.662   7.979
 4126SOL     OW14209   9.475   0.001   9.641
 4126SOL    HW114210   9.570  14.879   9.647
 4126SOL    HW214211   9.454  14.853   9.553
 4127SOL     OW14212   6.727   3.376  13.904
 4127SOL    HW114213   6.684   3.383  13.989
 4127SOL    HW214214   6.684   3.304  13.860
 4128SOL     OW14215   7.252  10.980   4.740
 4128SOL    HW114216   7.275  10.966   4.831
 4128SOL    HW214217   7.323  11.034   4.704
 4129SOL     OW14218  11.322   6.005   0.940
 4129SOL    HW114219  11.289   5.919   0.915
 4129SOL    HW214220  11.322   6.056   0.859
 4130SOL     OW14221  11.464  12.576  13.839
 4130SOL    HW114222  11.483  12.562  13.932
 4130SOL    HW214223  11.530  12.525  13.793
 4131SOL     OW14224   4.428   9.897   1.097
 4131SOL    HW114225   4.400   9.899   1.189
 4131SOL    HW214226   4.516   9.860   1.100
 4132SOL     OW14227   2.582   6.702  13.422
 4132SOL    HW114228   2.541   6.785  13.446
 4132SOL    HW214229   2.669   6.706  13.462
 4133SOL     OW14230   8.410   1.404   2.283
 4133SOL    HW114231   8.407   1.309   2.273
 4133SOL    HW214232   8.320   1.432   2.269
 4134SOL     OW14233  12.127  10.594   6.029
 4134SOL    HW114234  12.145  10.555   5.943
 4134SOL    HW214235  12.036  10.570   6.048
 4135SOL     OW14236   3.728  13.975   9.323
 4135SOL    HW114237   3.744  14.037   9.394
 4135SOL    HW214238   3.638  13.945   9.337
 4136SOL     OW14239   8.762  12.955   5.321
 4136SOL    HW114240   8.756  13.027   5.384
 4136SOL    HW214241   8.820  12.891   5.363
 4137SOL     OW14242   5.119  11.051  14.613
 4137SOL    HW114243   5.194  11.047  14.671
 4137SOL    HW214244   5.133  10.980  14.550
 4138SOL     OW14245  13.564   7.783   2.493
 4138SOL    HW114246  13.593   7.869   2.463
 4138SOL    HW214247  13.484   7.766   2.444
 4139SOL     OW14248  10.085   8.599   5.649
 4139SOL    HW114249   9.996   8.598   5.685
 4139SOL    HW214250  10.128   8.673   5.693
 4140SOL     OW14251   7.629   0.087   7.474
 4140SOL    HW114252   7.623   0.152   7.543
 4140SOL    HW214253   7.716   0.049   7.483
 4141SOL     OW14254   5.305  10.745  10.081
 4141SOL    HW114255   5.260  10.661  10.066
 4141SOL    HW214256   5.249  10.790  10.144
 4142SOL     OW14257   0.051   4.728   4.799
 4142SOL    HW114258   0.129   4.782   4.795
 4142SOL    HW214259  14.878   4.760   4.727
 4143SOL     OW14260   9.280   8.629  12.641
 4143SOL    HW114261   9.273   8.627  12.737
 4143SOL    HW214262   9.351   8.567  12.622
 4144SOL     OW14263  13.279   7.869   2.405
 4144SOL    HW114264  13.286   7.933   2.476
 4144SOL    HW214265  13.281   7.922   2.325
 4145SOL     OW14266   8.652   3.115   5.798
 4145SOL    HW114267   8.648   3.147   5.708
 4145SOL    HW214268   8.588   3.169   5.845
 4146SOL     OW14269   7.498   3.568  13.195
 4146SOL    HW114270   7.498   3.633  13.126
 4146SOL    HW214271   7.562   3.600  13.259
 4147SOL     OW14272  14.484   6.088   2.428
 4147SOL    HW114273  14.487   6.031   2.351
 4147SOL    HW214274  14.495   6.176   2.393
 4148SOL     OW14275   8.586  11.322   8.626
 4148SOL    HW114276   8.606  11.307   8.718
 4148SOL    HW214277   8.669  11.348   8.587
 4149SOL     OW14278  11.762   1.550   5.464
 4149SOL    HW114279  11.692   1.534   5.528
 4149SOL    HW214280  11.716   1.575   5.384
 4150SOL     OW14281  14.036  11.999  13.099
 4150SOL    HW114282  14.023  12.046  13.182
 4150SOL    HW214283  13.947  11.974  13.072
 4151SOL     OW14284   9.805   2.037   1.200
 4151SOL    HW114285   9.867   2.006   1.266
 4151SOL    HW214286   9.819   1.978   1.126
 4152SOL     OW14287   3.776  14.812  13.523
 4152SOL    HW114288   3.753  14.876  13.590
 4152SOL    HW214289   3.718  14.737  13.540
 4153SOL     OW14290  12.670   5.559   5.071
 4153SOL    HW114291  12.730   5.632   5.066
 4153SOL    HW214292  12.687   5.507   4.993
 4154SOL     OW14293   2.622   9.104   8.473
 4154SOL    HW114294   2.541   9.068   8.436
 4154SOL    HW214295   2.658   9.032   8.525
 4155SOL     OW14296  13.563   1.222   8.148
 4155SOL    HW114297  13.500   1.244   8.079
 4155SOL    HW214298  13.607   1.305   8.167
 4156SOL     OW14299   8.318   9.072   6.974
 4156SOL    HW114300   8.339   9.109   7.060
 4156SOL    HW214301   8.235   9.027   6.987
 4157SOL     OW14302   9.923   7.077  10.666
 4157SOL    HW114303   9.967   7.124  10.737
 4157SOL    HW214304   9.994   7.058  10.604
 4158SOL     OW14305   0.784  13.006  12.328
 4158SOL    HW114306   0.763  13.098  12.341
 4158SOL    HW214307   0.747  12.961  12.404
 4159SOL     OW14308   0.665   2.804   1.248
 4159SOL    HW114309   0.631   2.889   1.219
 4159SOL    HW214310   0.760   2.811   1.235
 4160SOL     OW14311   8.774   5.704   3.396
 4160SOL    HW114312   8.825   5.756   3.459
 4160SOL    HW214313   8.683   5.726   3.415
 4161SOL     OW14314  14.782   3.144   0.992
 4161SOL    HW114315  14.710   3.109   1.045
 4161SOL    HW214316  14.812   3.221   1.040
 4162SOL     OW14317   5.288  10.620  13.085
 4162SOL    HW114318   5.237  10.700  13.077
 4162SOL    HW214319   5.239  10.554  13.035
 4163SOL     OW14320   3.852  11.983   2.266
 4163SOL    HW114321   3.801  12.054   2.227
 4163SOL    HW214322   3.943  12.015   2.265
 4164SOL     OW14323   6.228   1.948   0.148
 4164SOL    HW114324   6.316   1.985   0.155
 4164SOL    HW214325   6.236   1.880   0.081
 4165SOL     OW14326   5.704   6.186  13.089
 4165SOL    HW114327   5.717   6.093  13.070
 4165SOL    HW214328   5.633   6.213  13.031
 4166SOL     OW14329   2.392   0.348   2.274
 4166SOL    HW114330   2.420   0.377   2.361
 4166SOL    HW214331   2.376   0.429   2.226
 4167SOL     OW14332   9.800   5.114   7.287
 4167SOL    HW114333   9.819   5.201   7.323
 4167SOL    HW214334   9.830   5.118   7.197
 4168SOL     OW14335   9.557  12.457   1.331
 4168SOL    HW114336   9.626  12.463   1.265
 4168SOL    HW214337   9.555  12.364   1.355
 4169SOL     OW14338  14.351   6.027   8.118
 4169SOL    HW114339  14.351   6.105   8.174
 4169SOL    HW214340  14.443   6.011   8.097
 4170SOL     OW14341   6.833  11.979   8.694
 4170SOL    HW114342   6.791  11.999   8.778
 4170SOL    HW214343   6.861  11.888   8.702
 4171SOL     OW14344   2.028   1.125   5.792
 4171SOL    HW114345   2.038   1.192   5.723
 4171SOL    HW214346   1.971   1.059   5.753
 4172SOL     OW14347   3.402  12.967  14.586
 4172SOL    HW114348   3.392  13.062  14.584
 4172SOL    HW214349   3.429  12.944  14.497
 4173SOL     OW14350   0.383   2.947  11.774
 4173SOL    HW114351   0.428   2.867  11.746
 4173SOL    HW214352   0.420   2.966  11.860
 4174SOL     OW14353  14.375  13.062   7.905
 4174SOL    HW114354  14.354  13.155   7.899
 4174SOL    HW214355  14.430  13.044   7.829
 4175SOL     OW14356   9.527   3.370   7.641
 4175SOL    HW114357   9.595   3.405   7.699
 4175SOL    HW214358   9.463   3.441   7.634
 4176SOL     OW14359   8.342   9.756   4.604
 4176SOL    HW114360   8.258   9.788   4.636
 4176SOL    HW214361   8.403   9.829   4.618
 4177SOL     OW14362   7.698   3.178   0.284
 4177SOL    HW114363   7.704   3.222   0.199
 4177SOL    HW214364   7.783   3.134   0.294
 4178SOL     OW14365  12.651  11.865   3.012
 4178SOL    HW114366  12.696  11.937   3.058
 4178SOL    HW214367  12.564  11.900   2.993
 4179SOL     OW14368  10.079   9.876   2.799
 4179SOL    HW114369  10.130   9.812   2.748
 4179SOL    HW214370  10.043   9.825   2.871
 4180SOL     OW14371  10.665   3.795  11.351
 4180SOL    HW114372  10.754   3.818  11.379
 4180SOL    HW214373  10.662   3.818  11.258
 4181SOL     OW14374   0.015   5.780  12.789
 4181SOL    HW114375  14.833   5.767  12.718
 4181SOL    HW214376   0.100   5.783  12.745
 4182SOL     OW14377   6.698  11.622   3.766
 4182SOL    HW114378   6.729  11.686   3.829
 4182SOL    HW214379   6.735  11.650   3.682
 4183SOL     OW14380   2.904   6.904   0.528
 4183SOL    HW114381   2.912   6.980   0.585
 4183SOL    HW214382   2.812   6.901   0.504
 4184SOL     OW14383  11.725  14.752   8.647
 4184SOL    HW114384  11.712  14.738   8.741
 4184SOL    HW214385  11.660  14.695   8.605
 4185SOL     OW14386  14.139  13.645   9.620
 4185SOL    HW114387  14.147  13.693   9.703
 4185SOL    HW214388  14.229  13.625   9.596
 4186SOL     OW14389   7.200   5.414   7.025
 4186SOL    HW114390   7.203   5.488   6.965
 4186SOL    HW214391   7.108   5.389   7.028
 4187SOL     OW14392   3.670  13.889   7.049
 4187SOL    HW114393   3.593  13.912   6.997
 4187SOL    HW214394   3.636  13.836   7.121
 4188SOL     OW14395   9.565   7.007   4.894
 4188SOL    HW114396   9.595   6.988   4.983
 4188SOL    HW214397   9.483   7.054   4.906
 4189SOL     OW14398   8.738   6.739  12.432
 4189SOL    HW114399   8.806   6.706  12.374
 4189SOL    HW214400   8.779   6.741  12.519
 4190SOL     OW14401  12.324   1.926   5.448
 4190SOL    HW114402  12.262   1.941   5.519
 4190SOL    HW214403  12.301   1.839   5.415
 4191SOL     OW14404   0.278   7.330   7.557
 4191SOL    HW114405   0.195   7.376   7.556
 4191SOL    HW214406   0.316   7.348   7.471
 4192SOL     OW14407  12.568   9.984   4.615
 4192SOL    HW114408  12.541  10.069   4.649
 4192SOL    HW214409  12.663   9.991   4.606
 4193SOL     OW14410   0.677   5.232  14.657
 4193SOL    HW114411   0.649   5.242  14.566
 4193SOL    HW214412   0.749   5.295  14.666
 4194SOL     OW14413   7.822   7.658   8.124
 4194SOL    HW114414   7.835   7.725   8.192
 4194SOL    HW214415   7.908   7.617   8.114
 4195SOL     OW14416   2.395   7.400  14.709
 4195SOL    HW114417   2.299   7.402  14.701
 4195SOL    HW214418   2.427   7.405  14.619
 4196SOL     OW14419   6.478   1.523  13.706
 4196SOL    HW114420   6.436   1.519  13.620
 4196SOL    HW214421   6.472   1.434  13.740
 4197SOL     OW14422  12.144   3.148   9.628
 4197SOL    HW114423  12.100   3.130   9.711
 4197SOL    HW214424  12.226   3.100   9.633
 4198SOL     OW14425  12.753   4.718   5.787
 4198SOL    HW114426  12.697   4.651   5.749
 4198SOL    HW214427  12.826   4.670   5.826
 4199SOL     OW14428  13.694  10.188   7.377
 4199SOL    HW114429  13.630  10.209   7.309
 4199SOL    HW214430  13.771  10.156   7.330
 4200SOL     OW14431  11.549   7.527   9.236
 4200SOL    HW114432  11.641   7.515   9.259
 4200SOL    HW214433  11.547   7.609   9.186
 4201SOL     OW14434   2.757   3.529   2.219
 4201SOL    HW114435   2.748   3.473   2.296
 4201SOL    HW214436   2.670   3.532   2.180
 4202SOL     OW14437   9.168  11.281   1.348
 4202SOL    HW114438   9.166  11.377   1.344
 4202SOL    HW214439   9.077  11.257   1.367
 4203SOL     OW14440  11.758   1.435   1.490
 4203SOL    HW114441  11.813   1.468   1.418
 4203SOL    HW214442  11.679   1.404   1.447
 4204SOL     OW14443   9.851   5.853   7.153
 4204SOL    HW114444   9.933   5.875   7.109
 4204SOL    HW214445   9.824   5.770   7.114
 4205SOL     OW14446   7.150  12.426  12.761
 4205SOL    HW114447   7.236  12.387  12.779
 4205SOL    HW214448   7.093  12.391  12.829
 4206SOL     OW14449   8.823   5.267  10.102
 4206SOL    HW114450   8.867   5.350  10.123
 4206SOL    HW214451   8.739   5.272  10.147
 4207SOL     OW14452  10.501   0.332  12.705
 4207SOL    HW114453  10.580   0.312  12.656
 4207SOL    HW214454  10.528   0.394  12.773
 4208SOL     OW14455   5.474   5.603  10.808
 4208SOL    HW114456   5.499   5.695  10.813
 4208SOL    HW214457   5.554   5.558  10.781
 4209SOL     OW14458   4.704  10.275  14.564
 4209SOL    HW114459   4.668  10.361  14.541
 4209SOL    HW214460   4.631  10.214  14.552
 4210SOL     OW14461  11.231   9.528   6.052
 4210SOL    HW114462  11.313   9.516   6.100
 4210SOL    HW214463  11.165   9.484   6.106
 4211SOL     OW14464   5.678   0.195   8.890
 4211SOL    HW114465   5.684   0.284   8.854
 4211SOL    HW214466   5.680   0.138   8.813
 4212SOL     OW14467   7.127   0.373   0.009
 4212SOL    HW114468   7.089   0.407   0.091
 4212SOL    HW214469   7.119   0.278   0.017
 4213SOL     OW14470   6.377  10.730   4.867
 4213SOL    HW114471   6.399  10.654   4.815
 4213SOL    HW214472   6.295  10.762   4.830
 4214SOL     OW14473  11.274   3.886   9.110
 4214SOL    HW114474  11.203   3.836   9.070
 4214SOL    HW214475  11.351   3.830   9.101
 4215SOL     OW14476  13.616  12.455  12.441
 4215SOL    HW114477  13.662  12.375  12.415
 4215SOL    HW214478  13.526  12.426  12.457
 4216SOL     OW14479  11.107  10.137  10.460
 4216SOL    HW114480  11.012  10.130  10.471
 4216SOL    HW214481  11.119  10.202  10.391
 4217SOL     OW14482   8.315   1.660   4.519
 4217SOL    HW114483   8.387   1.608   4.554
 4217SOL    HW214484   8.245   1.650   4.583
 4218SOL     OW14485   9.321  14.682   7.955
 4218SOL    HW114486   9.303  14.641   8.040
 4218SOL    HW214487   9.244  14.663   7.902
 4219SOL     OW14488  11.035   6.697   2.080
 4219SOL    HW114489  11.090   6.729   2.009
 4219SOL    HW214490  11.083   6.718   2.160
 4220SOL     OW14491   0.777  13.522   9.728
 4220SOL    HW114492   0.712  13.590   9.711
 4220SOL    HW214493   0.823  13.512   9.645
 4221SOL     OW14494  10.002   5.533   9.658
 4221SOL    HW114495  10.039   5.446   9.675
 4221SOL    HW214496  10.054   5.567   9.585
 4222SOL     OW14497   7.931   7.305  11.680
 4222SOL    HW114498   7.918   7.365  11.754
 4222SOL    HW214499   7.848   7.308  11.632
 4223SOL     OW14500   5.230   4.668  10.229
 4223SOL    HW114501   5.312   4.638  10.266
 4223SOL    HW214502   5.254   4.708  10.145
 4224SOL     OW14503   1.196   6.341  10.473
 4224SOL    HW114504   1.157   6.255  10.486
 4224SOL    HW214505   1.254   6.352  10.548
 4225SOL     OW14506   8.358   5.781   8.508
 4225SOL    HW114507   8.351   5.807   8.600
 4225SOL    HW214508   8.382   5.688   8.512
 4226SOL     OW14509  10.231   6.413   9.537
 4226SOL    HW114510  10.230   6.506   9.515
 4226SOL    HW214511  10.305   6.403   9.597
 4227SOL     OW14512  12.412   7.310  13.296
 4227SOL    HW114513  12.483   7.257  13.260
 4227SOL    HW214514  12.457   7.384  13.337
 4228SOL     OW14515  13.122  12.481   3.110
 4228SOL    HW114516  13.107  12.515   3.022
 4228SOL    HW214517  13.169  12.551   3.155
 4229SOL     OW14518   8.893   5.674   4.016
 4229SOL    HW114519   8.834   5.737   3.975
 4229SOL    HW214520   8.962   5.660   3.952
 4230SOL     OW14521   7.238  11.268  13.726
 4230SOL    HW114522   7.164  11.328  13.712
 4230SOL    HW214523   7.261  11.237  13.638
 4231SOL     OW14524  12.584   5.813   1.775
 4231SOL    HW114525  12.552   5.903   1.776
 4231SOL    HW214526  12.506   5.759   1.768
 4232SOL     OW14527   5.905   9.528   0.523
 4232SOL    HW114528   5.875   9.591   0.588
 4232SOL    HW214529   5.849   9.542   0.448
 4233SOL     OW14530   6.695  10.792   2.075
 4233SOL    HW114531   6.777  10.837   2.056
 4233SOL    HW214532   6.682  10.733   2.001
 4234SOL     OW14533  11.352   6.370  13.816
 4234SOL    HW114534  11.398   6.454  13.803
 4234SOL    HW214535  11.346   6.360  13.911
 4235SOL     OW14536   8.386  14.245   6.954
 4235SOL    HW114537   8.304  14.226   6.908
 4235SOL    HW214538   8.447  14.269   6.885
 4236SOL     OW14539   5.164   9.516   7.206
 4236SOL    HW114540   5.122   9.590   7.161
 4236SOL    HW214541   5.091   9.457   7.227
 4237SOL     OW14542   5.548  13.159   5.354
 4237SOL    HW114543   5.611  13.227   5.331
 4237SOL    HW214544   5.519  13.182   5.442
 4238SOL     OW14545   9.189   2.747  14.481
 4238SOL    HW114546   9.221   2.831  14.450
 4238SOL    HW214547   9.150   2.765  14.566
 4239SOL     OW14548   6.276  10.448   9.161
 4239SOL    HW114549   6.307  10.411   9.243
 4239SOL    HW214550   6.245  10.373   9.111
 4240SOL     OW14551  11.158   8.506   3.898
 4240SOL    HW114552  11.095   8.559   3.947
 4240SOL    HW214553  11.226   8.485   3.962
 4241SOL     OW14554   1.506   5.600   6.148
 4241SOL    HW114555   1.483   5.618   6.239
 4241SOL    HW214556   1.593   5.638   6.137
 4242SOL     OW14557   5.943   3.457  11.992
 4242SOL    HW114558   6.024   3.492  11.955
 4242SOL    HW214559   5.945   3.364  11.972
 4243SOL     OW14560  13.150   5.048   9.446
 4243SOL    HW114561  13.077   5.100   9.480
 4243SOL    HW214562  13.146   5.061   9.351
 4244SOL     OW14563   4.312   7.103   9.520
 4244SOL    HW114564   4.363   7.150   9.454
 4244SOL    HW214565   4.230   7.082   9.476
 4245SOL     OW14566  13.002   1.949   4.119
 4245SOL    HW114567  13.072   2.009   4.142
 4245SOL    HW214568  13.002   1.884   4.190
 4246SOL     OW14569   0.033   7.395  10.908
 4246SOL    HW114570   0.045   7.475  10.857
 4246SOL    HW214571   0.036   7.325  10.843
 4247SOL     OW14572   7.240  12.913   3.608
 4247SOL    HW114573   7.268  12.987   3.661
 4247SOL    HW214574   7.222  12.843   3.671
 4248SOL     OW14575   1.448   9.839   3.904
 4248SOL    HW114576   1.511   9.793   3.959
 4248SOL    HW214577   1.429   9.920   3.951
 4249SOL     OW14578   8.118   2.098   9.246
 4249SOL    HW114579   8.094   2.126   9.335
 4249SOL    HW214580   8.041   2.052   9.214
 4250SOL     OW14581   7.666   8.275  11.261
 4250SOL    HW114582   7.711   8.206  11.310
 4250SOL    HW214583   7.662   8.243  11.171
 4251SOL     OW14584   3.696  12.255   5.691
 4251SOL    HW114585   3.699  12.253   5.787
 4251SOL    HW214586   3.614  12.210   5.669
 4252SOL     OW14587   7.971   9.891  13.599
 4252SOL    HW114588   8.065   9.901  13.586
 4252SOL    HW214589   7.962   9.862  13.689
 4253SOL     OW14590   5.968  11.932   3.570
 4253SOL    HW114591   5.968  11.956   3.663
 4253SOL    HW214592   5.970  11.837   3.570
 4254SOL     OW14593  12.186   1.259   2.510
 4254SOL    HW114594  12.100   1.219   2.522
 4254SOL    HW214595  12.167   1.350   2.487
 4255SOL     OW14596   3.271   8.990  13.500
 4255SOL    HW114597   3.292   8.968  13.591
 4255SOL    HW214598   3.355   8.991  13.455
 4256SOL     OW14599  12.576   2.685   3.032
 4256SOL    HW114600  12.534   2.668   2.947
 4256SOL    HW214601  12.553   2.775   3.052
 4257SOL     OW14602   1.593   5.172   4.595
 4257SOL    HW114603   1.600   5.240   4.662
 4257SOL    HW214604   1.499   5.157   4.584
 4258SOL     OW14605   6.038  12.803  10.586
 4258SOL    HW114606   6.097  12.761  10.648
 4258SOL    HW214607   6.061  12.765  10.501
 4259SOL     OW14608   1.850   2.331   8.216
 4259SOL    HW114609   1.928   2.293   8.257
 4259SOL    HW214610   1.862   2.425   8.224
 4260SOL     OW14611  13.316  12.802   4.724
 4260SOL    HW114612  13.386  12.791   4.660
 4260SOL    HW214613  13.236  12.779   4.676
 4261SOL     OW14614   3.118   4.486  11.444
 4261SOL    HW114615   3.116   4.581  11.433
 4261SOL    HW214616   3.033   4.457  11.410
 4262SOL     OW14617   7.881  10.290  12.323
 4262SOL    HW114618   7.908  10.275  12.414
 4262SOL    HW214619   7.907  10.211  12.276
 4263SOL     OW14620  14.536  10.766  14.079
 4263SOL    HW114621  14.602  10.731  14.019
 4263SOL    HW214622  14.586  10.810  14.148
 4264SOL     OW14623   3.238   9.253   2.743
 4264SOL    HW114624   3.170   9.276   2.679
 4264SOL    HW214625   3.318   9.289   2.706
 4265SOL     OW14626  13.192   1.855  14.704
 4265SOL    HW114627  13.208   1.853  14.610
 4265SOL    HW214628  13.135   1.780  14.720
 4266SOL     OW14629  13.389   4.742   7.909
 4266SOL    HW114630  13.454   4.726   7.840
 4266SOL    HW214631  13.329   4.668   7.901
 4267SOL     OW14632   5.761   0.166   7.717
 4267SOL    HW114633   5.705   0.177   7.794
 4267SOL    HW214634   5.810   0.086   7.734
 4268SOL     OW14635   9.448   3.690   7.684
 4268SOL    HW114636   9.464   3.718   7.594
 4268SOL    HW214637   9.354   3.703   7.696
 4269SOL     OW14638  11.056   8.817   4.551
 4269SOL    HW114639  11.040   8.763   4.628
 4269SOL    HW214640  10.969   8.833   4.514
 4270SOL     OW14641   9.315  10.912   3.836
 4270SOL    HW114642   9.240  10.970   3.847
 4270SOL    HW214643   9.325  10.902   3.742
 4271SOL     OW14644   8.575   9.873   9.317
 4271SOL    HW114645   8.534   9.914   9.393
 4271SOL    HW214646   8.660   9.843   9.348
 4272SOL     OW14647   7.133   8.480   9.473
 4272SOL    HW114648   7.201   8.501   9.537
 4272SOL    HW214649   7.121   8.385   9.482
 4273SOL     OW14650   7.765   6.296  12.132
 4273SOL    HW114651   7.678   6.331  12.149
 4273SOL    HW214652   7.750   6.202  12.116
 4274SOL     OW14653  11.122   6.932  11.477
 4274SOL    HW114654  11.192   6.867  11.472
 4274SOL    HW214655  11.063   6.909  11.405
 4275SOL     OW14656  10.450   6.063  10.667
 4275SOL    HW114657  10.481   5.988  10.615
 4275SOL    HW214658  10.442   6.134  10.604
 4276SOL     OW14659   5.742  14.624   8.940
 4276SOL    HW114660   5.815  14.567   8.916
 4276SOL    HW214661   5.747  14.629   9.036
 4277SOL     OW14662   9.919   1.896   1.397
 4277SOL    HW114663   9.994   1.841   1.421
 4277SOL    HW214664   9.849   1.834   1.376
 4278SOL     OW14665   0.476   1.353   0.854
 4278SOL    HW114666   0.554   1.402   0.828
 4278SOL    HW214667   0.508   1.289   0.918
 4279SOL     OW14668  12.603   9.016   0.049
 4279SOL    HW114669  12.555   9.003  14.849
 4279SOL    HW214670  12.630   9.107   0.047
 4280SOL     OW14671  13.294   1.536   4.774
 4280SOL    HW114672  13.375   1.576   4.743
 4280SOL    HW214673  13.252   1.604   4.825
 4281SOL     OW14674   8.088   8.807   1.726
 4281SOL    HW114675   7.999   8.793   1.693
 4281SOL    HW214676   8.114   8.892   1.690
 4282SOL     OW14677   0.956  10.464  14.537
 4282SOL    HW114678   0.906  10.464  14.455
 4282SOL    HW214679   0.900  10.417  14.599
 4283SOL     OW14680   5.506  10.362   8.856
 4283SOL    HW114681   5.515  10.319   8.771
 4283SOL    HW214682   5.529  10.454   8.838
 4284SOL     OW14683   9.029   8.501  12.550
 4284SOL    HW114684   8.982   8.584  12.536
 4284SOL    HW214685   9.109   8.527  12.595
 4285SOL     OW14686   9.455   4.659   3.493
 4285SOL    HW114687   9.532   4.660   3.435
 4285SOL    HW214688   9.465   4.738   3.547
 4286SOL     OW14689   6.981   1.027   6.546
 4286SOL    HW114690   6.906   1.023   6.606
 4286SOL    HW214691   6.945   1.068   6.467
 4287SOL     OW14692   7.175  11.009   1.472
 4287SOL    HW114693   7.264  10.977   1.488
 4287SOL    HW214694   7.141  10.950   1.405
 4288SOL     OW14695   1.228   7.243  13.403
 4288SOL    HW114696   1.316   7.273  13.381
 4288SOL    HW214697   1.205   7.290  13.483
 4289SOL     OW14698  13.767   0.128   0.219
 4289SOL    HW114699  13.765   0.079   0.301
 4289SOL    HW214700  13.798   0.215   0.243
 4290SOL     OW14701  12.093   8.363  14.695
 4290SOL    HW114702  12.099   8.432  14.629
 4290SOL    HW214703  12.078   8.410  14.777
 4291SOL     OW14704  13.646  11.103   4.320
 4291SOL    HW114705  13.560  11.139   4.298
 4291SOL    HW214706  13.676  11.156   4.394
 4292SOL     OW14707   9.715   9.217   6.195
 4292SOL    HW114708   9.810   9.205   6.193
 4292SOL    HW214709   9.693   9.213   6.288
 4293SOL     OW14710   6.926   1.278   1.530
 4293SOL    HW114711   6.968   1.326   1.459
 4293SOL    HW214712   6.840   1.255   1.497
 4294SOL     OW14713  12.939   2.032   0.521
 4294SOL    HW114714  12.863   2.010   0.575
 4294SOL    HW214715  12.950   2.126   0.532
 4295SOL     OW14716   5.544   1.108   3.501
 4295SOL    HW114717   5.520   1.198   3.523
 4295SOL    HW214718   5.618   1.118   3.441
 4296SOL     OW14719  13.695  10.486  12.513
 4296SOL    HW114720  13.634  10.482  12.440
 4296SOL    HW214721  13.654  10.433  12.581
 4297SOL     OW14722  14.322   8.539  13.843
 4297SOL    HW114723  14.258   8.498  13.785
 4297SOL    HW214724  14.269   8.593  13.902
 4298SOL     OW14725   9.136   7.986  11.565
 4298SOL    HW114726   9.066   7.921  11.564
 4298SOL    HW214727   9.214   7.938  11.537
 4299SOL     OW14728   3.966  13.871   9.224
 4299SOL    HW114729   4.027  13.828   9.284
 4299SOL    HW214730   3.891  13.894   9.278
 4300SOL     OW14731   1.297   1.377   8.421
 4300SOL    HW114732   1.316   1.365   8.514
 4300SOL    HW214733   1.380   1.404   8.383
 4301SOL     OW14734  11.976   4.579   5.553
 4301SOL    HW114735  12.023   4.596   5.635
 4301SOL    HW214736  12.040   4.533   5.498
 4302SOL     OW14737   3.362   1.127   5.798
 4302SOL    HW114738   3.343   1.087   5.714
 4302SOL    HW214739   3.456   1.144   5.796
 4303SOL     OW14740   2.665  13.522   6.661
 4303SOL    HW114741   2.697  13.579   6.590
 4303SOL    HW214742   2.726  13.449   6.662
 4304SOL     OW14743  10.376   1.712   2.683
 4304SOL    HW114744  10.305   1.751   2.733
 4304SOL    HW214745  10.432   1.785   2.657
 4305SOL     OW14746   9.867   5.321   8.890
 4305SOL    HW114747   9.939   5.283   8.941
 4305SOL    HW214748   9.812   5.246   8.865
 4306SOL     OW14749   1.481  14.546   5.727
 4306SOL    HW114750   1.427  14.467   5.731
 4306SOL    HW214751   1.538  14.532   5.651
 4307SOL     OW14752   2.838   5.982   7.506
 4307SOL    HW114753   2.742   5.984   7.507
 4307SOL    HW214754   2.861   5.892   7.484
 4308SOL     OW14755   5.840  14.078   9.435
 4308SOL    HW114756   5.913  14.018   9.426
 4308SOL    HW214757   5.881  14.164   9.448
 4309SOL     OW14758  11.069  13.417   0.185
 4309SOL    HW114759  11.094  13.350   0.122
 4309SOL    HW214760  11.152  13.459   0.209
 4310SOL     OW14761  14.160  13.236   4.194
 4310SOL    HW114762  14.144  13.289   4.272
 4310SOL    HW214763  14.128  13.290   4.121
 4311SOL     OW14764   7.430   9.791   3.118
 4311SOL    HW114765   7.473   9.708   3.098
 4311SOL    HW214766   7.501   9.847   3.151
 4312SOL     OW14767   0.297   1.898  12.063
 4312SOL    HW114768   0.354   1.838  12.015
 4312SOL    HW214769   0.305   1.981  12.017
 4313SOL     OW14770   8.314   9.548   1.591
 4313SOL    HW114771   8.407   9.528   1.587
 4313SOL    HW214772   8.271   9.462   1.587
 4314SOL     OW14773   4.423  10.098  11.093
 4314SOL    HW114774   4.446  10.015  11.135
 4314SOL    HW214775   4.439  10.083  10.999
 4315SOL     OW14776   0.873   1.305   2.702
 4315SOL    HW114777   0.781   1.285   2.718
 4315SOL    HW214778   0.874   1.396   2.672
 4316SOL     OW14779   1.177  10.290  14.501
 4316SOL    HW114780   1.270  10.313  14.508
 4316SOL    HW214781   1.131  10.373  14.509
 4317SOL     OW14782  13.756  10.619  10.270
 4317SOL    HW114783  13.801  10.678  10.210
 4317SOL    HW214784  13.808  10.539  10.271
 4318SOL     OW14785  10.019   7.263  14.206
 4318SOL    HW114786  10.008   7.245  14.113
 4318SOL    HW214787   9.931   7.254  14.243
 4319SOL     OW14788   8.711   1.645   5.403
 4319SOL    HW114789   8.793   1.642   5.354
 4319SOL    HW214790   8.644   1.622   5.338
 4320SOL     OW14791   2.240   8.504   3.461
 4320SOL    HW114792   2.312   8.459   3.506
 4320SOL    HW214793   2.283   8.565   3.401
 4321SOL     OW14794  11.370  11.729   0.520
 4321SOL    HW114795  11.301  11.755   0.580
 4321SOL    HW214796  11.416  11.810   0.499
 4322SOL     OW14797   9.529   3.808   2.643
 4322SOL    HW114798   9.452   3.756   2.666
 4322SOL    HW214799   9.536   3.872   2.714
 4323SOL     OW14800  12.539   9.897   5.007
 4323SOL    HW114801  12.632   9.918   4.997
 4323SOL    HW214802  12.538   9.805   5.033
 4324SOL     OW14803   7.968   1.605   7.701
 4324SOL    HW114804   8.049   1.653   7.684
 4324SOL    HW214805   7.977   1.523   7.653
 4325SOL     OW14806   4.144   0.886   6.090
 4325SOL    HW114807   4.221   0.944   6.093
 4325SOL    HW214808   4.137   0.851   6.179
 4326SOL     OW14809   2.973   3.852   0.244
 4326SOL    HW114810   2.991   3.881   0.154
 4326SOL    HW214811   2.996   3.759   0.245
 4327SOL     OW14812   5.991  10.570   6.594
 4327SOL    HW114813   6.023  10.515   6.523
 4327SOL    HW214814   6.000  10.516   6.673
 4328SOL     OW14815   4.527  11.367   4.229
 4328SOL    HW114816   4.621  11.358   4.241
 4328SOL    HW214817   4.496  11.405   4.312
 4329SOL     OW14818   6.324   8.092   2.469
 4329SOL    HW114819   6.351   8.182   2.451
 4329SOL    HW214820   6.394   8.056   2.523
 4330SOL     OW14821   4.611   3.146   3.113
 4330SOL    HW114822   4.649   3.136   3.026
 4330SOL    HW214823   4.535   3.088   3.112
 4331SOL     OW14824   8.714   1.062   4.246
 4331SOL    HW114825   8.808   1.073   4.237
 4331SOL    HW214826   8.676   1.131   4.192
 4332SOL     OW14827   9.778   7.185   6.620
 4332SOL    HW114828   9.842   7.115   6.606
 4332SOL    HW214829   9.703   7.141   6.661
 4333SOL     OW14830  11.566  13.551   0.053
 4333SOL    HW114831  11.544  13.637   0.015
 4333SOL    HW214832  11.653  13.531   0.018
 4334SOL     OW14833   9.095  14.641   7.785
 4334SOL    HW114834   9.022  14.703   7.793
 4334SOL    HW214835   9.056  14.564   7.743
 4335SOL     OW14836  13.573  11.133   4.847
 4335SOL    HW114837  13.648  11.163   4.899
 4335SOL    HW214838  13.606  11.057   4.800
 4336SOL     OW14839   0.837   5.565  11.252
 4336SOL    HW114840   0.847   5.483  11.301
 4336SOL    HW214841   0.925   5.584  11.218
 4337SOL     OW14842  14.150   1.956  13.345
 4337SOL    HW114843  14.090   2.012  13.394
 4337SOL    HW214844  14.200   2.017  13.290
 4338SOL     OW14845   2.141   8.940   2.240
 4338SOL    HW114846   2.205   8.868   2.241
 4338SOL    HW214847   2.171   8.998   2.171
 4339SOL     OW14848   2.370   3.630   3.588
 4339SOL    HW114849   2.389   3.680   3.508
 4339SOL    HW214850   2.274   3.633   3.595
 4340SOL     OW14851   0.960   5.889   4.236
 4340SOL    HW114852   0.971   5.946   4.312
 4340SOL    HW214853   1.040   5.902   4.185
 4341SOL     OW14854  12.844   8.926   5.754
 4341SOL    HW114855  12.837   8.930   5.658
 4341SOL    HW214856  12.900   8.850   5.771
 4342SOL     OW14857   2.329   4.579   3.146
 4342SOL    HW114858   2.338   4.511   3.079
 4342SOL    HW214859   2.312   4.659   3.097
 4343SOL     OW14860   5.708   7.146   2.853
 4343SOL    HW114861   5.793   7.190   2.852
 4343SOL    HW214862   5.667   7.172   2.771
 4344SOL     OW14863  10.539   0.234   8.048
 4344SOL    HW114864  10.551   0.235   7.953
 4344SOL    HW214865  10.514   0.144   8.068
 4345SOL     OW14866   5.824   1.715   5.207
 4345SOL    HW114867   5.776   1.638   5.238
 4345SOL    HW214868   5.845   1.764   5.286
 4346SOL     OW14869   6.501   5.515   1.012
 4346SOL    HW114870   6.441   5.502   1.085
 4346SOL    HW214871   6.546   5.597   1.033
 4347SOL     OW14872   8.999   8.155  13.867
 4347SOL    HW114873   9.053   8.209  13.809
 4347SOL    HW214874   8.918   8.141  13.818
 4348SOL     OW14875   6.151   9.518  10.708
 4348SOL    HW114876   6.207   9.450  10.670
 4348SOL    HW214877   6.212   9.579  10.749
 4349SOL     OW14878   5.081   6.347   8.164
 4349SOL    HW114879   5.040   6.433   8.168
 4349SOL    HW214880   5.117   6.342   8.076
 4350SOL     OW14881  12.548   3.110   2.209
 4350SOL    HW114882  12.586   3.047   2.271
 4350SOL    HW214883  12.620   3.130   2.149
 4351SOL     OW14884   7.229   7.885  12.658
 4351SOL    HW114885   7.217   7.803  12.705
 4351SOL    HW214886   7.181   7.950  12.710
 4352SOL     OW14887   5.616   6.013  12.380
 4352SOL    HW114888   5.579   5.953  12.445
 4352SOL    HW214889   5.546   6.022  12.314
 4353SOL     OW14890  12.900  13.418   5.620
 4353SOL    HW114891  12.959  13.343   5.614
 4353SOL    HW214892  12.813  13.381   5.603
 4354SOL     OW14893  12.240   9.976   2.825
 4354SOL    HW114894  12.148   9.950   2.814
 4354SOL    HW214895  12.236  10.055   2.878
 4355SOL     OW14896   5.266   9.923  11.562
 4355SOL    HW114897   5.358   9.947  11.548
 4355SOL    HW214898   5.257   9.918  11.657
 4356SOL     OW14899   8.427   1.563  12.770
 4356SOL    HW114900   8.351   1.537  12.823
 4356SOL    HW214901   8.499   1.569  12.832
 4357SOL     OW14902   0.322   8.961  12.962
 4357SOL    HW114903   0.290   9.050  12.945
 4357SOL    HW214904   0.243   8.907  12.959
 4358SOL     OW14905   1.769   7.451   5.417
 4358SOL    HW114906   1.728   7.514   5.357
 4358SOL    HW214907   1.788   7.503   5.495
 4359SOL     OW14908   0.611   4.446   2.262
 4359SOL    HW114909   0.655   4.475   2.182
 4359SOL    HW214910   0.677   4.393   2.307
 4360SOL     OW14911   8.739  10.056   0.504
 4360SOL    HW114912   8.701   9.970   0.486
 4360SOL    HW214913   8.668  10.104   0.548
 4361SOL     OW14914   0.739   8.761  13.920
 4361SOL    HW114915   0.677   8.703  13.876
 4361SOL    HW214916   0.825   8.733  13.888
 4362SOL     OW14917  11.330  13.829   3.298
 4362SOL    HW114918  11.324  13.841   3.203
 4362SOL    HW214919  11.422  13.846   3.319
 4363SOL     OW14920   0.956   7.078   2.324
 4363SOL    HW114921   1.025   7.117   2.379
 4363SOL    HW214922   0.996   7.071   2.238
 4364SOL     OW14923   0.661   5.295   6.963
 4364SOL    HW114924   0.636   5.267   6.875
 4364SOL    HW214925   0.736   5.239   6.986
 4365SOL     OW14926  14.257  14.026   0.954
 4365SOL    HW114927  14.318  13.952   0.950
 4365SOL    HW214928  14.288  14.078   1.028
 4366SOL     OW14929  12.791   6.072   2.486
 4366SOL    HW114930  12.878   6.112   2.474
 4366SOL    HW214931  12.730   6.139   2.456
 4367SOL     OW14932   5.052   1.511   4.088
 4367SOL    HW114933   5.090   1.543   4.170
 4367SOL    HW214934   5.070   1.417   4.088
 4368SOL     OW14935  14.610   4.715   8.982
 4368SOL    HW114936  14.637   4.710   9.074
 4368SOL    HW214937  14.627   4.806   8.957
 4369SOL     OW14938  11.922   1.203  13.959
 4369SOL    HW114939  11.881   1.118  13.940
 4369SOL    HW214940  11.853   1.255  13.998
 4370SOL     OW14941   1.091   8.734   5.570
 4370SOL    HW114942   1.143   8.685   5.507
 4370SOL    HW214943   1.139   8.724   5.653
 4371SOL     OW14944   8.204  12.910  13.302
 4371SOL    HW114945   8.157  12.939  13.224
 4371SOL    HW214946   8.289  12.881  13.270
 4372SOL     OW14947   2.809  12.024   0.582
 4372SOL    HW114948   2.853  12.093   0.533
 4372SOL    HW214949   2.873  11.952   0.584
 4373SOL     OW14950   5.274  14.451   2.224
 4373SOL    HW114951   5.247  14.534   2.264
 4373SOL    HW214952   5.355  14.473   2.177
 4374SOL     OW14953   3.087  10.267  11.515
 4374SOL    HW114954   3.014  10.305  11.466
 4374SOL    HW214955   3.164  10.285  11.461
 4375SOL     OW14956   7.213   4.848  12.536
 4375SOL    HW114957   7.293   4.795  12.543
 4375SOL    HW214958   7.143   4.790  12.565
 4376SOL     OW14959   6.262   8.741   8.400
 4376SOL    HW114960   6.246   8.659   8.446
 4376SOL    HW214961   6.350   8.731   8.363
 4377SOL     OW14962   2.296  12.078   4.629
 4377SOL    HW114963   2.260  12.147   4.572
 4377SOL    HW214964   2.307  12.003   4.572
 4378SOL     OW14965   2.958   6.353   9.990
 4378SOL    HW114966   3.018   6.278   9.988
 4378SOL    HW214967   2.937   6.365  10.082
 4379SOL     OW14968   8.056   1.312   6.932
 4379SOL    HW114969   8.146   1.335   6.957
 4379SOL    HW214970   8.056   1.217   6.926
 4380SOL     OW14971  11.383   9.149   9.213
 4380SOL    HW114972  11.392   9.125   9.306
 4380SOL    HW214973  11.302   9.200   9.209
 4381SOL     OW14974  12.999   6.856   4.133
 4381SOL    HW114975  13.090   6.859   4.162
 4381SOL    HW214976  12.956   6.928   4.180
 4382SOL     OW14977  14.385   8.165   9.236
 4382SOL    HW114978  14.451   8.127   9.295
 4382SOL    HW214979  14.314   8.191   9.295
 4383SOL     OW14980   8.124   5.126   2.952
 4383SOL    HW114981   8.166   5.040   2.959
 4383SOL    HW214982   8.116   5.157   3.042
 4384SOL     OW14983   4.859   3.742   9.922
 4384SOL    HW114984   4.824   3.684   9.990
 4384SOL    HW214985   4.782   3.782   9.882
 4385SOL     OW14986   3.540  13.832   2.539
 4385SOL    HW114987   3.543  13.862   2.448
 4385SOL    HW214988   3.476  13.888   2.581
 4386SOL     OW14989   5.468  10.961  11.804
 4386SOL    HW114990   5.431  11.049  11.799
 4386SOL    HW214991   5.397  10.907  11.839
 4387SOL     OW14992   9.921   9.492  10.678
 4387SOL    HW114993   9.855   9.533  10.734
 4387SOL    HW214994   9.876   9.473  10.596
 4388SOL     OW14995   1.113  12.001   5.267
 4388SOL    HW114996   1.088  11.945   5.340
 4388SOL    HW214997   1.206  12.019   5.281
 4389SOL     OW14998   1.673   1.414   6.364
 4389SOL    HW114999   1.749   1.361   6.338
 4389SOL    HW215000   1.709   1.477   6.427
 4390SOL     OW15001  11.286   2.107  13.083
 4390SOL    HW115002  11.363   2.071  13.038
 4390SOL    HW215003  11.220   2.039  13.076
 4391SOL     OW15004   2.196  10.599   6.597
 4391SOL    HW115005   2.259  10.597   6.669
 4391SOL    HW215006   2.225  10.672   6.541
 4392SOL     OW15007  10.081   7.550   5.493
 4392SOL    HW115008  10.065   7.639   5.524
 4392SOL    HW215009  10.131   7.562   5.412
 4393SOL     OW15010  13.909  10.146  14.627
 4393SOL    HW115011  13.938  10.069  14.677
 4393SOL    HW215012  13.930  10.124  14.536
 4394SOL     OW15013   1.261  12.996   3.544
 4394SOL    HW115014   1.281  12.907   3.573
 4394SOL    HW215015   1.321  13.012   3.471
 4395SOL     OW15016   0.293   7.176  12.192
 4395SOL    HW115017   0.261   7.266  12.185
 4395SOL    HW215018   0.292   7.144  12.102
 4396SOL     OW15019   2.347   1.424   3.796
 4396SOL    HW115020   2.363   1.367   3.721
 4396SOL    HW215021   2.266   1.471   3.774
 4397SOL     OW15022   2.472   7.436   6.733
 4397SOL    HW115023   2.511   7.521   6.709
 4397SOL    HW215024   2.437   7.401   6.651
 4398SOL     OW15025  13.593   1.546   6.774
 4398SOL    HW115026  13.512   1.539   6.824
 4398SOL    HW215027  13.618   1.638   6.782
 4399SOL     OW15028  13.034   9.210   2.266
 4399SOL    HW115029  13.104   9.164   2.220
 4399SOL    HW215030  13.075   9.239   2.348
 4400SOL     OW15031   0.283  14.755  13.709
 4400SOL    HW115032   0.272  14.849  13.696
 4400SOL    HW215033   0.378  14.743  13.717
 4401SOL     OW15034  12.458   1.969  11.252
 4401SOL    HW115035  12.387   2.028  11.277
 4401SOL    HW215036  12.524   2.026  11.212
 4402SOL     OW15037   9.439   3.675   4.163
 4402SOL    HW115038   9.483   3.720   4.091
 4402SOL    HW215039   9.410   3.746   4.221
 4403SOL     OW15040   4.997   8.703   8.529
 4403SOL    HW115041   4.950   8.749   8.459
 4403SOL    HW215042   5.000   8.612   8.500
 4404SOL     OW15043   8.948   8.452  10.565
 4404SOL    HW115044   8.940   8.541  10.600
 4404SOL    HW215045   8.915   8.396  10.636
 4405SOL     OW15046  10.248   1.420  12.903
 4405SOL    HW115047  10.204   1.447  12.822
 4405SOL    HW215048  10.199   1.343  12.931
 4406SOL     OW15049   8.059   7.651   6.437
 4406SOL    HW115050   8.083   7.683   6.351
 4406SOL    HW215051   8.099   7.564   6.442
 4407SOL     OW15052   2.076  10.194  11.462
 4407SOL    HW115053   1.988  10.231  11.470
 4407SOL    HW215054   2.135  10.268  11.481
 4408SOL     OW15055  10.559   9.394   3.677
 4408SOL    HW115056  10.631   9.344   3.716
 4408SOL    HW215057  10.535   9.458   3.744
 4409SOL     OW15058   1.056  14.363   1.786
 4409SOL    HW115059   0.964  14.392   1.788
 4409SOL    HW215060   1.088  14.378   1.875
 4410SOL     OW15061   2.334  10.296   3.879
 4410SOL    HW115062   2.377  10.307   3.794
 4410SOL    HW215063   2.361  10.372   3.930
 4411SOL     OW15064  11.901   1.525   8.792
 4411SOL    HW115065  11.974   1.490   8.742
 4411SOL    HW215066  11.836   1.550   8.726
 4412SOL     OW15067  11.734   2.720  11.820
 4412SOL    HW115068  11.646   2.724  11.781
 4412SOL    HW215069  11.792   2.750  11.751
 4413SOL     OW15070  14.304  14.362   5.435
 4413SOL    HW115071  14.211  14.359   5.409
 4413SOL    HW215072  14.315  14.286   5.492
 4414SOL     OW15073   6.458  13.774  13.370
 4414SOL    HW115074   6.537  13.759  13.318
 4414SOL    HW215075   6.411  13.842  13.322
 4415SOL     OW15076   7.712   3.999  14.872
 4415SOL    HW115077   7.773   4.036   0.055
 4415SOL    HW215078   7.741   4.036  14.789
 4416SOL     OW15079   7.423   1.681   7.321
 4416SOL    HW115080   7.445   1.589   7.310
 4416SOL    HW215081   7.457   1.724   7.242
 4417SOL     OW15082   0.703   5.463   9.366
 4417SOL    HW115083   0.735   5.442   9.454
 4417SOL    HW215084   0.776   5.441   9.308
 4418SOL     OW15085   7.735  13.547   9.776
 4418SOL    HW115086   7.797  13.587   9.837
 4418SOL    HW215087   7.659  13.526   9.829
 4419SOL     OW15088   4.079   3.920   3.806
 4419SOL    HW115089   4.055   3.925   3.713
 4419SOL    HW215090   4.004   3.880   3.848
 4420SOL     OW15091   8.088   1.538   1.913
 4420SOL    HW115092   8.170   1.525   1.865
 4420SOL    HW215093   8.112   1.595   1.985
 4421SOL     OW15094  13.174  11.070   0.512
 4421SOL    HW115095  13.155  11.119   0.591
 4421SOL    HW215096  13.101  11.089   0.453
 4422SOL     OW15097   6.216   8.075   8.402
 4422SOL    HW115098   6.195   8.122   8.322
 4422SOL    HW215099   6.268   7.999   8.374
 4423SOL     OW15100   6.363  12.135   1.670
 4423SOL    HW115101   6.388  12.177   1.753
 4423SOL    HW215102   6.446  12.116   1.627
 4424SOL     OW15103   9.031   5.554   2.553
 4424SOL    HW115104   9.021   5.475   2.606
 4424SOL    HW215105   8.942   5.588   2.543
 4425SOL     OW15106  10.772   1.795  12.312
 4425SOL    HW115107  10.831   1.869  12.308
 4425SOL    HW215108  10.685   1.833  12.300
 4426SOL     OW15109   9.054  10.393   0.927
 4426SOL    HW115110   9.042  10.456   0.999
 4426SOL    HW215111   9.101  10.320   0.967
 4427SOL     OW15112   1.843  11.163   5.520
 4427SOL    HW115113   1.784  11.087   5.529
 4427SOL    HW215114   1.922  11.127   5.478
 4428SOL     OW15115   4.232   7.432   1.079
 4428SOL    HW115116   4.175   7.374   1.028
 4428SOL    HW215117   4.263   7.496   1.015
 4429SOL     OW15118   2.449  14.279  12.627
 4429SOL    HW115119   2.426  14.363  12.587
 4429SOL    HW215120   2.400  14.278  12.709
 4430SOL     OW15121   1.598  13.809   6.461
 4430SOL    HW115122   1.685  13.776   6.437
 4430SOL    HW215123   1.541  13.781   6.390
 4431SOL     OW15124   1.402   9.411   4.764
 4431SOL    HW115125   1.431   9.502   4.759
 4431SOL    HW215126   1.464   9.362   4.711
 4432SOL     OW15127   0.729   3.726   6.733
 4432SOL    HW115128   0.780   3.648   6.755
 4432SOL    HW215129   0.653   3.722   6.791
 4433SOL     OW15130   9.269   6.556   9.633
 4433SOL    HW115131   9.231   6.626   9.686
 4433SOL    HW215132   9.216   6.556   9.553
 4434SOL     OW15133  14.235   5.130   6.407
 4434SOL    HW115134  14.240   5.100   6.316
 4434SOL    HW215135  14.291   5.208   6.409
 4435SOL     OW15136   2.725   2.301   6.491
 4435SOL    HW115137   2.786   2.297   6.418
 4435SOL    HW215138   2.699   2.210   6.507
 4436SOL     OW15139   2.033   8.813   6.663
 4436SOL    HW115140   2.042   8.796   6.757
 4436SOL    HW215141   1.983   8.738   6.630
 4437SOL     OW15142   6.122  13.900   6.032
 4437SOL    HW115143   6.105  13.862   5.946
 4437SOL    HW215144   6.197  13.851   6.065
 4438SOL     OW15145   0.303  13.877  11.539
 4438SOL    HW115146   0.376  13.827  11.575
 4438SOL    HW215147   0.319  13.966  11.570
 4439SOL     OW15148   2.477   4.805  10.417
 4439SOL    HW115149   2.413   4.838  10.354
 4439SOL    HW215150   2.467   4.863  10.493
 4440SOL     OW15151  14.874   7.055   2.875
 4440SOL    HW115152   0.069   7.013   2.836
 4440SOL    HW215153   0.012   7.060   2.969
 4441SOL     OW15154   1.273  11.251   9.078
 4441SOL    HW115155   1.366  11.237   9.059
 4441SOL    HW215156   1.232  11.255   8.992
 4442SOL     OW15157  13.111   0.283   8.843
 4442SOL    HW115158  13.183   0.224   8.865
 4442SOL    HW215159  13.051   0.277   8.917
 4443SOL     OW15160   3.104   2.946   6.236
 4443SOL    HW115161   3.139   3.029   6.270
 4443SOL    HW215162   3.010   2.962   6.229
 4444SOL     OW15163   5.323   5.413   1.287
 4444SOL    HW115164   5.385   5.481   1.261
 4444SOL    HW215165   5.237   5.457   1.286
 4445SOL     OW15166   5.017   6.660   9.646
 4445SOL    HW115167   5.030   6.605   9.724
 4445SOL    HW215168   5.065   6.741   9.666
 4446SOL     OW15169   2.080   2.871   0.346
 4446SOL    HW115170   2.058   2.934   0.414
 4446SOL    HW215171   2.174   2.881   0.333
 4447SOL     OW15172   7.338   4.287  13.687
 4447SOL    HW115173   7.428   4.319  13.680
 4447SOL    HW215174   7.318   4.293  13.780
 4448SOL     OW15175  13.389   6.513   0.919
 4448SOL    HW115176  13.323   6.563   0.967
 4448SOL    HW215177  13.455   6.490   0.985
 4449SOL     OW15178  10.607   6.689   2.322
 4449SOL    HW115179  10.657   6.611   2.346
 4449SOL    HW215180  10.525   6.654   2.284
 4450SOL     OW15181   5.560  12.608   2.755
 4450SOL    HW115182   5.587  12.690   2.713
 4450SOL    HW215183   5.542  12.632   2.846
 4451SOL     OW15184  11.310   5.904   7.661
 4451SOL    HW115185  11.224   5.864   7.671
 4451SOL    HW215186  11.313   5.972   7.728
 4452SOL     OW15187  14.301   8.457  11.534
 4452SOL    HW115188  14.302   8.517  11.460
 4452SOL    HW215189  14.307   8.513  11.611
 4453SOL     OW15190  14.289   9.554  13.530
 4453SOL    HW115191  14.363   9.495  13.515
 4453SOL    HW215192  14.307   9.595  13.614
 4454SOL     OW15193   3.766   9.018   7.247
 4454SOL    HW115194   3.720   8.934   7.252
 4454SOL    HW215195   3.710   9.074   7.194
 4455SOL     OW15196   2.119   0.232   9.077
 4455SOL    HW115197   2.096   0.188   9.159
 4455SOL    HW215198   2.036   0.260   9.040
 4456SOL     OW15199   9.461   1.513   0.041
 4456SOL    HW115200   9.409   1.441   0.077
 4456SOL    HW215201   9.547   1.474   0.023
 4457SOL     OW15202   9.701  10.074   4.879
 4457SOL    HW115203   9.685  10.158   4.924
 4457SOL    HW215204   9.663  10.008   4.937
 4458SOL     OW15205  13.982   0.828   2.935
 4458SOL    HW115206  14.044   0.756   2.944
 4458SOL    HW215207  13.896   0.787   2.947
 4459SOL     OW15208   0.295   8.089   8.292
 4459SOL    HW115209   0.333   8.118   8.375
 4459SOL    HW215210   0.363   8.034   8.252
 4460SOL     OW15211  10.190  10.914  10.213
 4460SOL    HW115212  10.248  10.987  10.233
 4460SOL    HW215213  10.239  10.861  10.150
 4461SOL     OW15214  10.143   0.820   1.883
 4461SOL    HW115215  10.110   0.744   1.931
 4461SOL    HW215216  10.175   0.785   1.800
 4462SOL     OW15217   2.353   9.818   9.376
 4462SOL    HW115218   2.390   9.749   9.321
 4462SOL    HW215219   2.338   9.891   9.315
 4463SOL     OW15220  14.823   8.723   8.843
 4463SOL    HW115221  14.736   8.684   8.835
 4463SOL    HW215222   0.000   8.657   8.804
 4464SOL     OW15223   4.083   5.346  13.004
 4464SOL    HW115224   4.073   5.430  12.958
 4464SOL    HW215225   4.091   5.281  12.933
 4465SOL     OW15226  12.716  10.314   8.756
 4465SOL    HW115227  12.747  10.370   8.685
 4465SOL    HW215228  12.621  10.311   8.744
 4466SOL     OW15229  14.108   8.418   5.008
 4466SOL    HW115230  14.113   8.344   4.948
 4466SOL    HW215231  14.015   8.444   5.007
 4467SOL     OW15232   4.200  12.678   1.247
 4467SOL    HW115233   4.219  12.615   1.177
 4467SOL    HW215234   4.182  12.760   1.202
 4468SOL     OW15235   6.841   9.190   8.342
 4468SOL    HW115236   6.925   9.166   8.379
 4468SOL    HW215237   6.839   9.286   8.344
 4469SOL     OW15238   3.804  12.302  14.216
 4469SOL    HW115239   3.738  12.246  14.176
 4469SOL    HW215240   3.882  12.245  14.222
 4470SOL     OW15241  13.039  10.494   0.449
 4470SOL    HW115242  13.105  10.538   0.397
 4470SOL    HW215243  12.998  10.432   0.390
 4471SOL     OW15244  13.845  14.217   2.278
 4471SOL    HW115245  13.749  14.225   2.278
 4471SOL    HW215246  13.869  14.219   2.186
 4472SOL     OW15247   2.521   7.031   4.972
 4472SOL    HW115248   2.551   7.091   5.041
 4472SOL    HW215249   2.589   6.964   4.967
 4473SOL     OW15250  10.631  12.154  11.358
 4473SOL    HW115251  10.723  12.145  11.335
 4473SOL    HW215252  10.587  12.171  11.274
 4474SOL     OW15253   9.003  10.018   6.446
 4474SOL    HW115254   8.989  10.060   6.361
 4474SOL    HW215255   9.022  10.091   6.505
 4475SOL     OW15256   2.705   0.550  10.005
 4475SOL    HW115257   2.663   0.533   9.920
 4475SOL    HW215258   2.789   0.504   9.999
 4476SOL     OW15259   5.010   8.487   8.081
 4476SOL    HW115260   5.057   8.560   8.121
 4476SOL    HW215261   4.928   8.526   8.050
 4477SOL     OW15262   6.104   9.068  11.345
 4477SOL    HW115263   6.091   9.127  11.271
 4477SOL    HW215264   6.023   9.073  11.395
 4478SOL     OW15265   1.345   4.706   6.769
 4478SOL    HW115266   1.270   4.660   6.733
 4478SOL    HW215267   1.308   4.786   6.807
 4479SOL     OW15268  13.572  11.529   7.789
 4479SOL    HW115269  13.600  11.499   7.703
 4479SOL    HW215270  13.649  11.575   7.824
 4480SOL     OW15271  13.761   2.511   9.040
 4480SOL    HW115272  13.790   2.590   9.087
 4480SOL    HW215273  13.830   2.447   9.055
 4481SOL     OW15274  12.406   0.101  11.831
 4481SOL    HW115275  12.342   0.044  11.873
 4481SOL    HW215276  12.383   0.189  11.861
 4482SOL     OW15277  14.787   6.366  11.935
 4482SOL    HW115278  14.761   6.457  11.929
 4482SOL    HW215279  14.705   6.317  11.936
 4483SOL     OW15280   5.161   1.256   2.350
 4483SOL    HW115281   5.119   1.310   2.283
 4483SOL    HW215282   5.243   1.227   2.309
 4484SOL     OW15283  12.638  11.527   1.838
 4484SOL    HW115284  12.709  11.464   1.844
 4484SOL    HW215285  12.671  11.605   1.883
 4485SOL     OW15286   3.199   0.276   7.952
 4485SOL    HW115287   3.242   0.361   7.946
 4485SOL    HW215288   3.259   0.216   7.907
 4486SOL     OW15289  13.901  11.951   9.293
 4486SOL    HW115290  13.971  11.958   9.228
 4486SOL    HW215291  13.944  11.965   9.377
 4487SOL     OW15292   2.815   1.116   3.056
 4487SOL    HW115293   2.829   1.158   3.141
 4487SOL    HW215294   2.876   1.042   3.055
 4488SOL     OW15295   2.674   9.274   1.478
 4488SOL    HW115296   2.701   9.183   1.479
 4488SOL    HW215297   2.635   9.288   1.391
 4489SOL     OW15298  12.169  13.168   5.731
 4489SOL    HW115299  12.159  13.075   5.710
 4489SOL    HW215300  12.166  13.171   5.827
 4490SOL     OW15301   1.032   5.972  13.975
 4490SOL    HW115302   0.988   5.922  14.044
 4490SOL    HW215303   1.125   5.955  13.988
 4491SOL     OW15304  12.866   8.183   1.659
 4491SOL    HW115305  12.866   8.089   1.640
 4491SOL    HW215306  12.918   8.221   1.588
 4492SOL     OW15307   7.218   2.296   9.244
 4492SOL    HW115308   7.284   2.285   9.313
 4492SOL    HW215309   7.268   2.322   9.167
 4493SOL     OW15310  12.953   8.184  14.302
 4493SOL    HW115311  13.001   8.101  14.312
 4493SOL    HW215312  13.019   8.247  14.276
 4494SOL     OW15313   9.766  10.543   2.747
 4494SOL    HW115314   9.732  10.492   2.821
 4494SOL    HW215315   9.860  10.548   2.762
 4495SOL     OW15316  10.724   8.379   9.624
 4495SOL    HW115317  10.792   8.408   9.563
 4495SOL    HW215318  10.652   8.441   9.611
 4496SOL     OW15319   7.785   3.405  11.487
 4496SOL    HW115320   7.829   3.320  11.497
 4496SOL    HW215321   7.857   3.468  11.476
 4497SOL     OW15322   9.477   4.500   3.746
 4497SOL    HW115323   9.441   4.581   3.783
 4497SOL    HW215324   9.495   4.522   3.655
 4498SOL     OW15325   4.150   1.456  11.676
 4498SOL    HW115326   4.177   1.392  11.609
 4498SOL    HW215327   4.080   1.506  11.636
 4499SOL     OW15328  12.365   7.044   2.238
 4499SOL    HW115329  12.307   7.112   2.272
 4499SOL    HW215330  12.443   7.049   2.293
 4500SOL     OW15331  10.466   9.990   7.480
 4500SOL    HW115332  10.373  10.010   7.472
 4500SOL    HW215333  10.490  10.021   7.567
 4501SOL     OW15334   8.751   9.780  13.685
 4501SOL    HW115335   8.818   9.713  13.680
 4501SOL    HW215336   8.707   9.764  13.769
 4502SOL     OW15337   7.695  14.291   7.915
 4502SOL    HW115338   7.648  14.301   7.832
 4502SOL    HW215339   7.785  14.314   7.895
 4503SOL     OW15340  12.171   2.947   8.909
 4503SOL    HW115341  12.174   2.964   9.003
 4503SOL    HW215342  12.078   2.931   8.891
 4504SOL     OW15343   0.762   5.880  10.469
 4504SOL    HW115344   0.668   5.896  10.457
 4504SOL    HW215345   0.774   5.789  10.443
 4505SOL     OW15346   3.936   4.776   6.232
 4505SOL    HW115347   3.933   4.682   6.213
 4505SOL    HW215348   3.896   4.816   6.155
 4506SOL     OW15349   5.880   4.899   0.079
 4506SOL    HW115350   5.885   4.808   0.110
 4506SOL    HW215351   5.873   4.892  14.866
 4507SOL     OW15352  14.842   2.858  12.674
 4507SOL    HW115353   0.054   2.876  12.677
 4507SOL    HW215354  14.828   2.792  12.742
 4508SOL     OW15355   1.771   0.053   9.259
 4508SOL    HW115356   1.741  14.866   9.318
 4508SOL    HW215357   1.725   0.036   9.177
 4509SOL     OW15358  11.081  14.517   8.248
 4509SOL    HW115359  11.059  14.567   8.170
 4509SOL    HW215360  10.996  14.503   8.291
 4510SOL     OW15361  11.039   6.195   7.195
 4510SOL    HW115362  11.089   6.115   7.181
 4510SOL    HW215363  10.948   6.167   7.189
 4511SOL     OW15364   8.794   4.561   1.842
 4511SOL    HW115365   8.704   4.586   1.863
 4511SOL    HW215366   8.848   4.632   1.877
 4512SOL     OW15367   8.612   1.620  12.966
 4512SOL    HW115368   8.550   1.617  13.038
 4512SOL    HW215369   8.698   1.623  13.007
 4513SOL     OW15370   1.704   7.038   5.182
 4513SOL    HW115371   1.630   6.981   5.198
 4513SOL    HW215372   1.667   7.126   5.181
 4514SOL     OW15373   9.289   3.568  14.685
 4514SOL    HW115374   9.270   3.500  14.621
 4514SOL    HW215375   9.228   3.639  14.664
 4515SOL     OW15376  10.988   7.951   2.810
 4515SOL    HW115377  11.045   8.026   2.819
 4515SOL    HW215378  10.963   7.950   2.717
 4516SOL     OW15379   5.178   8.210   6.416
 4516SOL    HW115380   5.110   8.163   6.465
 4516SOL    HW215381   5.191   8.157   6.337
 4517SOL     OW15382   2.952   2.891   1.881
 4517SOL    HW115383   2.864   2.919   1.857
 4517SOL    HW215384   2.988   2.965   1.930
 4518SOL     OW15385  12.469  11.604   9.289
 4518SOL    HW115386  12.537  11.600   9.223
 4518SOL    HW215387  12.511  11.570   9.368
 4519SOL     OW15388  13.904   6.788   2.125
 4519SOL    HW115389  13.954   6.709   2.104
 4519SOL    HW215390  13.815   6.755   2.142
 4520SOL     OW15391   1.733   6.270  12.507
 4520SOL    HW115392   1.758   6.240  12.595
 4520SOL    HW215393   1.682   6.350  12.524
 4521SOL     OW15394   7.623   5.067  14.810
 4521SOL    HW115395   7.592   5.138  14.866
 4521SOL    HW215396   7.557   5.060  14.741
 4522SOL     OW15397   3.540   8.973   9.885
 4522SOL    HW115398   3.558   8.887   9.923
 4522SOL    HW215399   3.456   8.964   9.842
 4523SOL     OW15400   5.326  14.826  13.445
 4523SOL    HW115401   5.381  14.752  13.420
 4523SOL    HW215402   5.369   0.020  13.406
 4524SOL     OW15403   0.700  10.664   8.161
 4524SOL    HW115404   0.691  10.713   8.243
 4524SOL    HW215405   0.743  10.726   8.101
 4525SOL     OW15406  12.625   8.275  12.854
 4525SOL    HW115407  12.618   8.277  12.949
 4525SOL    HW215408  12.649   8.184  12.833
 4526SOL     OW15409   3.313  10.255   8.213
 4526SOL    HW115410   3.371  10.291   8.146
 4526SOL    HW215411   3.227  10.294   8.193
 4527SOL     OW15412   0.072   5.922  13.034
 4527SOL    HW115413   0.149   5.973  13.009
 4527SOL    HW215414   0.052   5.869  12.956
 4528SOL     OW15415   6.682  14.302   2.955
 4528SOL    HW115416   6.763  14.273   2.997
 4528SOL    HW215417   6.640  14.220   2.927
 4529SOL     OW15418   0.520   2.082  13.729
 4529SOL    HW115419   0.509   2.135  13.808
 4529SOL    HW215420   0.577   2.010  13.756
 4530SOL     OW15421  12.837  14.187   3.029
 4530SOL    HW115422  12.832  14.233   3.113
 4530SOL    HW215423  12.790  14.105   3.044
 4531SOL     OW15424   3.394  13.032   9.892
 4531SOL    HW115425   3.429  13.018   9.804
 4531SOL    HW215426   3.390  13.127   9.902
 4532SOL     OW15427   8.387  11.746  11.393
 4532SOL    HW115428   8.439  11.698  11.329
 4532SOL    HW215429   8.330  11.681  11.432
 4533SOL     OW15430   1.284  14.306   8.499
 4533SOL    HW115431   1.200  14.348   8.514
 4533SOL    HW215432   1.275  14.218   8.536
 4534SOL     OW15433   2.490  12.844   8.592
 4534SOL    HW115434   2.452  12.759   8.614
 4534SOL    HW215435   2.421  12.907   8.611
 4535SOL     OW15436   2.643  10.220  11.269
 4535SOL    HW115437   2.667  10.128  11.285
 4535SOL    HW215438   2.550  10.217  11.248
 4536SOL     OW15439  12.173  11.267   4.884
 4536SOL    HW115440  12.195  11.190   4.831
 4536SOL    HW215441  12.094  11.241   4.932
 4537SOL     OW15442   3.239   5.584   7.421
 4537SOL    HW115443   3.181   5.524   7.374
 4537SOL    HW215444   3.188   5.612   7.498
 4538SOL     OW15445  10.376   1.542   7.277
 4538SOL    HW115446  10.403   1.463   7.230
 4538SOL    HW215447  10.326   1.593   7.213
 4539SOL     OW15448   8.342  11.503  10.119
 4539SOL    HW115449   8.421  11.488  10.171
 4539SOL    HW215450   8.364  11.579  10.064
 4540SOL     OW15451   1.788  14.825  11.466
 4540SOL    HW115452   1.747  14.808  11.381
 4540SOL    HW215453   1.716  14.848  11.524
 4541SOL     OW15454   6.690  11.193   6.889
 4541SOL    HW115455   6.697  11.238   6.805
 4541SOL    HW215456   6.600  11.209   6.917
 4542SOL     OW15457   6.396  12.966   2.439
 4542SOL    HW115458   6.307  12.934   2.431
 4542SOL    HW215459   6.387  13.061   2.443
 4543SOL     OW15460   5.246  11.132   5.052
 4543SOL    HW115461   5.275  11.053   5.006
 4543SOL    HW215462   5.216  11.100   5.137
 4544SOL     OW15463   2.894  13.333   4.246
 4544SOL    HW115464   2.869  13.315   4.336
 4544SOL    HW215465   2.866  13.423   4.231
 4545SOL     OW15466  10.511   0.069  12.835
 4545SOL    HW115467  10.530   0.100  12.746
 4545SOL    HW215468  10.421   0.038  12.831
 4546SOL     OW15469   4.224  13.426   1.373
 4546SOL    HW115470   4.298  13.390   1.324
 4546SOL    HW215471   4.207  13.510   1.331
 4547SOL     OW15472   3.663   7.009   7.140
 4547SOL    HW115473   3.750   6.975   7.117
 4547SOL    HW215474   3.603   6.938   7.115
 4548SOL     OW15475   2.220  12.650   5.071
 4548SOL    HW115476   2.143  12.600   5.043
 4548SOL    HW215477   2.294  12.593   5.049
 4549SOL     OW15478   3.750  13.251   2.537
 4549SOL    HW115479   3.845  13.251   2.550
 4549SOL    HW215480   3.714  13.244   2.626
 4550SOL     OW15481   4.189   4.508   2.852
 4550SOL    HW115482   4.190   4.595   2.893
 4550SOL    HW215483   4.157   4.524   2.764
 4551SOL     OW15484   5.855  12.260  10.037
 4551SOL    HW115485   5.809  12.197   9.982
 4551SOL    HW215486   5.785  12.313  10.075
 4552SOL     OW15487   0.059   5.787   5.041
 4552SOL    HW115488   0.103   5.871   5.027
 4552SOL    HW215489   0.087   5.760   5.128
 4553SOL     OW15490   1.871   8.619   7.216
 4553SOL    HW115491   1.897   8.569   7.139
 4553SOL    HW215492   1.928   8.588   7.285
 4554SOL     OW15493  12.271   8.523   0.064
 4554SOL    HW115494  12.309   8.506   0.150
 4554SOL    HW215495  12.187   8.565   0.082
 4555SOL     OW15496   1.970   9.524   9.127
 4555SOL    HW115497   2.010   9.475   9.054
 4555SOL    HW215498   2.002   9.479   9.205
 4556SOL     OW15499   9.251   1.014   7.843
 4556SOL    HW115500   9.195   0.948   7.883
 4556SOL    HW215501   9.279   1.069   7.916
 4557SOL     OW15502   5.746   6.351   2.828
 4557SOL    HW115503   5.784   6.264   2.834
 4557SOL    HW215504   5.675   6.350   2.892
 4558SOL     OW15505   9.085   2.434   2.060
 4558SOL    HW115506   9.085   2.508   2.120
 4558SOL    HW215507   9.126   2.467   1.980
 4559SOL     OW15508   2.198   3.701   5.602
 4559SOL    HW115509   2.188   3.615   5.641
 4559SOL    HW215510   2.289   3.726   5.621
 4560SOL     OW15511   6.938   0.926   3.343
 4560SOL    HW115512   6.854   0.970   3.358
 4560SOL    HW215513   6.986   0.939   3.425
 4561SOL     OW15514  13.299  10.913   1.336
 4561SOL    HW115515  13.220  10.878   1.294
 4561SOL    HW215516  13.371  10.864   1.298
 4562SOL     OW15517   7.777   0.162   6.305
 4562SOL    HW115518   7.856   0.130   6.261
 4562SOL    HW215519   7.705   0.134   6.249
 4563SOL     OW15520  13.351   6.524   7.291
 4563SOL    HW115521  13.422   6.462   7.303
 4563SOL    HW215522  13.360   6.553   7.200
 4564SOL     OW15523  13.786   6.203   6.064
 4564SOL    HW115524  13.874   6.220   6.097
 4564SOL    HW215525  13.736   6.282   6.087
 4565SOL     OW15526   4.253   9.668  12.038
 4565SOL    HW115527   4.234   9.577  12.061
 4565SOL    HW215528   4.199   9.685  11.961
 4566SOL     OW15529   9.435   2.746   7.975
 4566SOL    HW115530   9.479   2.760   7.891
 4566SOL    HW215531   9.500   2.768   8.041
 4567SOL     OW15532   9.677  13.727   1.616
 4567SOL    HW115533   9.625  13.673   1.675
 4567SOL    HW215534   9.667  13.686   1.530
 4568SOL     OW15535   4.771  14.792   1.203
 4568SOL    HW115536   4.738  14.703   1.213
 4568SOL    HW215537   4.819  14.809   1.284
 4569SOL     OW15538   6.913   9.927  13.248
 4569SOL    HW115539   6.953  10.007  13.216
 4569SOL    HW215540   6.819   9.944  13.244
 4570SOL     OW15541  10.603   4.813  14.039
 4570SOL    HW115542  10.638   4.900  14.059
 4570SOL    HW215543  10.680   4.756  14.045
 4571SOL     OW15544  14.147   3.759   6.997
 4571SOL    HW115545  14.196   3.841   6.992
 4571SOL    HW215546  14.213   3.693   7.019
 4572SOL     OW15547   2.497   7.037   1.570
 4572SOL    HW115548   2.402   7.030   1.563
 4572SOL    HW215549   2.530   6.968   1.512
 4573SOL     OW15550   1.103  10.371  11.381
 4573SOL    HW115551   1.014  10.336  11.376
 4573SOL    HW215552   1.153  10.319  11.319
 4574SOL     OW15553  11.487  13.936   4.076
 4574SOL    HW115554  11.447  14.021   4.059
 4574SOL    HW215555  11.472  13.920   4.169
 4575SOL     OW15556   8.390  10.503   2.955
 4575SOL    HW115557   8.340  10.483   3.034
 4575SOL    HW215558   8.457  10.564   2.984
 4576SOL     OW15559   5.576   1.970  13.500
 4576SOL    HW115560   5.657   2.014  13.472
 4576SOL    HW215561   5.564   1.997  13.590
 4577SOL     OW15562   5.068  10.266   2.266
 4577SOL    HW115563   5.030  10.230   2.185
 4577SOL    HW215564   5.009  10.336   2.291
 4578SOL     OW15565  14.376   0.040   5.273
 4578SOL    HW115566  14.367   0.118   5.218
 4578SOL    HW215567  14.287   0.023   5.306
 4579SOL     OW15568   0.426   7.426   2.311
 4579SOL    HW115569   0.358   7.387   2.256
 4579SOL    HW215570   0.485   7.468   2.250
 4580SOL     OW15571   3.035   1.534   5.406
 4580SOL    HW115572   3.125   1.524   5.373
 4580SOL    HW215573   2.992   1.452   5.380
 4581SOL     OW15574  11.829   4.002  13.869
 4581SOL    HW115575  11.783   4.069  13.921
 4581SOL    HW215576  11.851   3.933  13.931
 4582SOL     OW15577   8.625   9.596  10.830
 4582SOL    HW115578   8.684   9.670  10.821
 4582SOL    HW215579   8.593   9.580  10.742
 4583SOL     OW15580  11.634   9.054   3.303
 4583SOL    HW115581  11.627   8.961   3.325
 4583SOL    HW215582  11.563   9.069   3.240
 4584SOL     OW15583   9.107   1.918   2.484
 4584SOL    HW115584   9.075   1.873   2.406
 4584SOL    HW215585   9.182   1.866   2.513
 4585SOL     OW15586   8.603   4.867  10.779
 4585SOL    HW115587   8.597   4.947  10.831
 4585SOL    HW215588   8.534   4.810  10.813
 4586SOL     OW15589   4.931   4.811   8.260
 4586SOL    HW115590   4.899   4.856   8.338
 4586SOL    HW215591   5.026   4.819   8.265
 4587SOL     OW15592   3.488   4.455   5.819
 4587SOL    HW115593   3.529   4.416   5.896
 4587SOL    HW215594   3.394   4.446   5.836
 4588SOL     OW15595   3.637  12.846  11.651
 4588SOL    HW115596   3.573  12.775  11.645
 4588SOL    HW215597   3.583  12.925  11.662
 4589SOL     OW15598   8.639  13.351  14.254
 4589SOL    HW115599   8.612  13.413  14.186
 4589SOL    HW215600   8.711  13.302  14.213
 4590SOL     OW15601   7.498   4.934   1.321
 4590SOL    HW115602   7.560   4.928   1.248
 4590SOL    HW215603   7.422   4.978   1.284
 4591SOL     OW15604  13.253   3.074   2.943
 4591SOL    HW115605  13.333   3.021   2.947
 4591SOL    HW215606  13.280   3.161   2.972
 4592SOL     OW15607   4.511  14.057   7.156
 4592SOL    HW115608   4.591  14.105   7.176
 4592SOL    HW215609   4.483  14.091   7.071
 4593SOL     OW15610  10.681  12.461   6.471
 4593SOL    HW115611  10.658  12.502   6.555
 4593SOL    HW215612  10.674  12.367   6.488
 4594SOL     OW15613  13.028   3.957   3.693
 4594SOL    HW115614  13.046   3.983   3.603
 4594SOL    HW215615  12.946   4.002   3.715
 4595SOL     OW15616  10.391  13.868   1.822
 4595SOL    HW115617  10.468  13.919   1.847
 4595SOL    HW215618  10.321  13.934   1.814
 4596SOL     OW15619   2.614  14.153  10.109
 4596SOL    HW115620   2.647  14.240  10.131
 4596SOL    HW215621   2.545  14.136  10.173
 4597SOL     OW15622  13.451  14.145   5.567
 4597SOL    HW115623  13.469  14.052   5.573
 4597SOL    HW215624  13.367  14.151   5.522
 4598SOL     OW15625   5.531   6.500   8.114
 4598SOL    HW115626   5.578   6.575   8.150
 4598SOL    HW215627   5.483   6.463   8.188
 4599SOL     OW15628   9.744  13.888   6.220
 4599SOL    HW115629   9.653  13.858   6.224
 4599SOL    HW215630   9.744  13.971   6.267
 4600SOL     OW15631   6.992   2.071  14.561
 4600SOL    HW115632   7.033   1.985  14.569
 4600SOL    HW215633   6.929   2.061  14.489
 4601SOL     OW15634   8.814  11.620   5.780
 4601SOL    HW115635   8.844  11.652   5.694
 4601SOL    HW215636   8.741  11.678   5.802
 4602SOL     OW15637   8.111   0.851   0.358
 4602SOL    HW115638   8.126   0.945   0.370
 4602SOL    HW215639   8.161   0.809   0.428
 4603SOL     OW15640  14.167   0.187   3.207
 4603SOL    HW115641  14.127   0.118   3.154
 4603SOL    HW215642  14.099   0.212   3.269
 4604SOL     OW15643  13.996   5.705  11.865
 4604SOL    HW115644  13.926   5.762  11.896
 4604SOL    HW215645  14.041   5.677  11.944
 4605SOL     OW15646   6.415   3.640   3.180
 4605SOL    HW115647   6.478   3.568   3.180
 4605SOL    HW215648   6.359   3.624   3.105
 4606SOL     OW15649   3.013   3.143   4.676
 4606SOL    HW115650   2.963   3.194   4.739
 4606SOL    HW215651   3.083   3.103   4.727
 4607SOL     OW15652   9.510   7.969  10.540
 4607SOL    HW115653   9.598   7.932  10.540
 4607SOL    HW215654   9.500   8.007  10.628
 4608SOL     OW15655   9.439  10.571  12.257
 4608SOL    HW115656   9.423  10.560  12.164
 4608SOL    HW215657   9.526  10.535  12.271
 4609SOL     OW15658  10.816  11.951   3.378
 4609SOL    HW115659  10.911  11.945   3.388
 4609SOL    HW215660  10.790  11.866   3.343
 4610SOL     OW15661   1.106   2.347   2.530
 4610SOL    HW115662   1.108   2.264   2.482
 4610SOL    HW215663   1.199   2.368   2.546
 4611SOL     OW15664   5.319   6.457   3.719
 4611SOL    HW115665   5.351   6.474   3.807
 4611SOL    HW215666   5.327   6.542   3.674
 4612SOL     OW15667   5.035   3.441   8.711
 4612SOL    HW115668   4.979   3.501   8.663
 4612SOL    HW215669   4.975   3.375   8.746
 4613SOL     OW15670   2.535  13.281  11.387
 4613SOL    HW115671   2.538  13.354  11.326
 4613SOL    HW215672   2.523  13.321  11.473
 4614SOL     OW15673   3.655   8.143  11.429
 4614SOL    HW115674   3.644   8.236  11.409
 4614SOL    HW215675   3.749   8.129  11.428
 4615SOL     OW15676   4.536   6.281   0.144
 4615SOL    HW115677   4.441   6.292   0.139
 4615SOL    HW215678   4.549   6.207   0.203
 4616SOL     OW15679   0.047   0.764   4.010
 4616SOL    HW115680   0.129   0.737   4.052
 4616SOL    HW215681  14.880   0.682   3.999
 4617SOL     OW15682   9.261  12.143   0.215
 4617SOL    HW115683   9.351  12.110   0.212
 4617SOL    HW215684   9.254  12.201   0.139
 4618SOL     OW15685   1.421   6.580   8.612
 4618SOL    HW115686   1.425   6.673   8.592
 4618SOL    HW215687   1.355   6.545   8.553
 4619SOL     OW15688   2.421  10.289   1.496
 4619SOL    HW115689   2.331  10.281   1.464
 4619SOL    HW215690   2.421  10.370   1.547
 4620SOL     OW15691   1.734  13.293   9.354
 4620SOL    HW115692   1.645  13.303   9.321
 4620SOL    HW215693   1.736  13.205   9.393
 4621SOL     OW15694   6.331  13.971  13.241
 4621SOL    HW115695   6.301  14.061  13.258
 4621SOL    HW215696   6.341  13.966  13.146
 4622SOL     OW15697   9.899   6.444   8.160
 4622SOL    HW115698   9.938   6.445   8.248
 4622SOL    HW215699   9.967   6.409   8.103
 4623SOL     OW15700  12.519   7.202  12.479
 4623SOL    HW115701  12.593   7.256  12.506
 4623SOL    HW215702  12.559   7.135  12.422
 4624SOL     OW15703  11.020  12.352  10.569
 4624SOL    HW115704  10.960  12.308  10.508
 4624SOL    HW215705  10.999  12.445  10.560
 4625SOL     OW15706  10.705   2.976   2.025
 4625SOL    HW115707  10.780   2.952   1.970
 4625SOL    HW215708  10.740   3.041   2.085
 4626SOL     OW15709  11.676   6.793  13.338
 4626SOL    HW115710  11.645   6.736  13.267
 4626SOL    HW215711  11.696   6.876  13.295
 4627SOL     OW15712   4.225   0.934   7.669
 4627SOL    HW115713   4.313   0.908   7.642
 4627SOL    HW215714   4.232   0.947   7.764
 4628SOL     OW15715   5.199   0.365  13.561
 4628SOL    HW115716   5.256   0.308  13.612
 4628SOL    HW215717   5.133   0.395  13.624
 4629SOL     OW15718  10.715  13.490   5.937
 4629SOL    HW115719  10.799  13.526   5.909
 4629SOL    HW215720  10.737  13.427   6.006
 4630SOL     OW15721   0.153  11.557  13.669
 4630SOL    HW115722   0.098  11.604  13.733
 4630SOL    HW215723   0.237  11.603  13.672
 4631SOL     OW15724  10.522   1.582  11.319
 4631SOL    HW115725  10.428   1.571  11.332
 4631SOL    HW215726  10.532   1.596  11.225
 4632SOL     OW15727  12.769  10.542   1.592
 4632SOL    HW115728  12.792  10.503   1.508
 4632SOL    HW215729  12.676  10.525   1.603
 4633SOL     OW15730   0.797  14.108   2.726
 4633SOL    HW115731   0.890  14.094   2.743
 4633SOL    HW215732   0.783  14.201   2.743
 4634SOL     OW15733  14.551   4.436   8.186
 4634SOL    HW115734  14.634   4.465   8.222
 4634SOL    HW215735  14.503   4.516   8.167
 4635SOL     OW15736  13.250  10.200   7.227
 4635SOL    HW115737  13.222  10.111   7.204
 4635SOL    HW215738  13.195  10.223   7.302
 4636SOL     OW15739  10.751   6.265   0.950
 4636SOL    HW115740  10.737   6.296   0.860
 4636SOL    HW215741  10.665   6.275   0.992
 4637SOL     OW15742  14.149  14.596   2.522
 4637SOL    HW115743  14.187  14.580   2.608
 4637SOL    HW215744  14.110  14.512   2.498
 4638SOL     OW15745   4.183   1.058  12.741
 4638SOL    HW115746   4.110   1.013  12.784
 4638SOL    HW215747   4.261   1.012  12.773
 4639SOL     OW15748   2.706   8.975  13.611
 4639SOL    HW115749   2.719   8.939  13.523
 4639SOL    HW215750   2.788   8.958  13.657
 4640SOL     OW15751   3.239  13.229   2.438
 4640SOL    HW115752   3.241  13.269   2.351
 4640SOL    HW215753   3.268  13.298   2.498
 4641SOL     OW15754  14.870   0.120   8.887
 4641SOL    HW115755   0.007   0.044   8.941
 4641SOL    HW215756   0.067   0.133   8.835
 4642SOL     OW15757  11.601   2.609   0.925
 4642SOL    HW115758  11.549   2.689   0.917
 4642SOL    HW215759  11.574   2.556   0.851
 4643SOL     OW15760   0.161   0.646   2.393
 4643SOL    HW115761   0.168   0.588   2.468
 4643SOL    HW215762   0.108   0.597   2.329
 4644SOL     OW15763   6.568   0.437   1.032
 4644SOL    HW115764   6.633   0.469   1.094
 4644SOL    HW215765   6.484   0.468   1.067
 4645SOL     OW15766   8.388  14.405   7.430
 4645SOL    HW115767   8.319  14.417   7.365
 4645SOL    HW215768   8.464  14.375   7.378
 4646SOL     OW15769  14.211  13.899  14.865
 4646SOL    HW115770  14.145  13.904  14.795
 4646SOL    HW215771  14.218  13.806   0.003
 4647SOL     OW15772   7.851   6.344  10.078
 4647SOL    HW115773   7.802   6.285  10.136
 4647SOL    HW215774   7.784   6.388  10.026
 4648SOL     OW15775   8.155   4.519  14.721
 4648SOL    HW115776   8.093   4.573  14.769
 4648SOL    HW215777   8.197   4.579  14.659
 4649SOL     OW15778  11.533   4.976  11.046
 4649SOL    HW115779  11.495   4.985  10.959
 4649SOL    HW215780  11.498   4.893  11.078
 4650SOL     OW15781   7.550  13.996   3.498
 4650SOL    HW115782   7.558  13.968   3.589
 4650SOL    HW215783   7.496  13.928   3.457
 4651SOL     OW15784  14.314   0.174   6.851
 4651SOL    HW115785  14.246   0.238   6.874
 4651SOL    HW215786  14.296   0.098   6.907
 4652SOL     OW15787  14.006  14.152   9.110
 4652SOL    HW115788  14.048  14.179   9.029
 4652SOL    HW215789  13.913  14.167   9.095
 4653SOL     OW15790   3.093  13.010   2.538
 4653SOL    HW115791   3.080  12.959   2.458
 4653SOL    HW215792   3.153  13.080   2.513
 4654SOL     OW15793   9.085   9.019   7.893
 4654SOL    HW115794   8.996   9.050   7.879
 4654SOL    HW215795   9.127   9.027   7.807
 4655SOL     OW15796   2.221   1.754  14.777
 4655SOL    HW115797   2.237   1.698  14.853
 4655SOL    HW215798   2.282   1.721  14.710
 4656SOL     OW15799   5.209   9.058   5.745
 4656SOL    HW115800   5.164   8.978   5.770
 4656SOL    HW215801   5.143   9.127   5.753
 4657SOL     OW15802   8.091   8.108  10.353
 4657SOL    HW115803   8.103   8.021  10.390
 4657SOL    HW215804   8.144   8.109  10.274
 4658SOL     OW15805  11.835   3.874  11.004
 4658SOL    HW115806  11.813   3.839  11.091
 4658SOL    HW215807  11.877   3.958  11.022
 4659SOL     OW15808  13.434  14.766  10.855
 4659SOL    HW115809  13.519  14.804  10.831
 4659SOL    HW215810  13.382  14.841  10.884
 4660SOL     OW15811  13.229   3.607  10.399
 4660SOL    HW115812  13.149   3.559  10.376
 4660SOL    HW215813  13.294   3.576  10.337
 4661SOL     OW15814   0.577   0.170   6.184
 4661SOL    HW115815   0.553   0.221   6.107
 4661SOL    HW215816   0.661   0.130   6.162
 4662SOL     OW15817   0.784   6.374   9.598
 4662SOL    HW115818   0.797   6.402   9.688
 4662SOL    HW215819   0.872   6.371   9.561
 4663SOL     OW15820  10.806  13.691  10.627
 4663SOL    HW115821  10.724  13.673  10.672
 4663SOL    HW215822  10.857  13.611  10.636
 4664SOL     OW15823   3.716   1.846  10.820
 4664SOL    HW115824   3.759   1.781  10.765
 4664SOL    HW215825   3.646   1.798  10.865
 4665SOL     OW15826   3.164   6.835   5.026
 4665SOL    HW115827   3.070   6.847   5.040
 4665SOL    HW215828   3.173   6.820   4.932
 4666SOL     OW15829   3.042   9.382   7.870
 4666SOL    HW115830   3.086   9.298   7.858
 4666SOL    HW215831   2.950   9.362   7.853
 4667SOL     OW15832   0.613  11.943   9.707
 4667SOL    HW115833   0.564  11.924   9.786
 4667SOL    HW215834   0.694  11.984   9.738
 4668SOL     OW15835  10.822   0.688   2.546
 4668SOL    HW115836  10.894   0.628   2.526
 4668SOL    HW215837  10.787   0.713   2.460
 4669SOL     OW15838   2.964   7.457  12.047
 4669SOL    HW115839   3.015   7.416  12.117
 4669SOL    HW215840   2.967   7.393  11.975
 4670SOL     OW15841  11.491   1.742   3.475
 4670SOL    HW115842  11.568   1.796   3.495
 4670SOL    HW215843  11.489   1.737   3.380
 4671SOL     OW15844   2.357   7.866   3.544
 4671SOL    HW115845   2.300   7.819   3.482
 4671SOL    HW215846   2.296   7.903   3.608
 4672SOL     OW15847   6.549  12.766  11.677
 4672SOL    HW115848   6.537  12.753  11.771
 4672SOL    HW215849   6.468  12.808  11.648
 4673SOL     OW15850  11.418   7.178   7.064
 4673SOL    HW115851  11.441   7.098   7.111
 4673SOL    HW215852  11.369   7.230   7.128
 4674SOL     OW15853   2.485  11.431   4.673
 4674SOL    HW115854   2.441  11.448   4.757
 4674SOL    HW215855   2.570  11.394   4.699
 4675SOL     OW15856   8.608   2.419   5.576
 4675SOL    HW115857   8.602   2.493   5.516
 4675SOL    HW215858   8.676   2.444   5.639
 4676SOL     OW15859   5.917   5.098  10.031
 4676SOL    HW115860   5.967   5.104  10.113
 4676SOL    HW215861   5.984   5.087   9.963
 4677SOL     OW15862   0.104   2.793   0.514
 4677SOL    HW115863   0.039   2.724   0.529
 4677SOL    HW215864   0.183   2.760   0.556
 4678SOL     OW15865   4.630   2.962  12.310
 4678SOL    HW115866   4.650   2.936  12.220
 4678SOL    HW215867   4.683   2.903  12.364
 4679SOL     OW15868  11.921  14.170  11.463
 4679SOL    HW115869  11.874  14.087  11.474
 4679SOL    HW215870  11.856  14.237  11.484
 4680SOL     OW15871   2.017   6.583   2.423
 4680SOL    HW115872   2.067   6.572   2.342
 4680SOL    HW215873   2.047   6.512   2.480
 4681SOL     OW15874   6.475   5.611   4.614
 4681SOL    HW115875   6.552   5.659   4.643
 4681SOL    HW215876   6.411   5.623   4.684
 4682SOL     OW15877   0.475   8.979   5.426
 4682SOL    HW115878   0.554   8.985   5.480
 4682SOL    HW215879   0.428   9.061   5.442
 4683SOL     OW15880   0.702  10.807   4.021
 4683SOL    HW115881   0.712  10.868   4.095
 4683SOL    HW215882   0.704  10.863   3.944
 4684SOL     OW15883   9.372   5.298  12.784
 4684SOL    HW115884   9.400   5.375  12.833
 4684SOL    HW215885   9.280   5.314  12.764
 4685SOL     OW15886   7.863  10.445   4.287
 4685SOL    HW115887   7.845  10.354   4.310
 4685SOL    HW215888   7.801  10.465   4.217
 4686SOL     OW15889   8.566   4.447   3.611
 4686SOL    HW115890   8.617   4.373   3.644
 4686SOL    HW215891   8.513   4.474   3.686
 4687SOL     OW15892  14.258  12.772  12.770
 4687SOL    HW115893  14.187  12.724  12.728
 4687SOL    HW215894  14.296  12.710  12.832
 4688SOL     OW15895  13.310   1.968  11.374
 4688SOL    HW115896  13.340   1.919  11.451
 4688SOL    HW215897  13.371   1.942  11.304
 4689SOL     OW15898   2.274   8.390   9.270
 4689SOL    HW115899   2.359   8.346   9.265
 4689SOL    HW215900   2.278   8.441   9.351
 4690SOL     OW15901   2.519   1.156  14.187
 4690SOL    HW115902   2.590   1.119  14.240
 4690SOL    HW215903   2.443   1.155  14.245
 4691SOL     OW15904   9.829   0.396   3.683
 4691SOL    HW115905   9.736   0.413   3.701
 4691SOL    HW215906   9.833   0.302   3.667
 4692SOL     OW15907   9.622   3.852  14.077
 4692SOL    HW115908   9.702   3.880  14.122
 4692SOL    HW215909   9.584   3.785  14.135
 4693SOL     OW15910   3.830  11.908  14.140
 4693SOL    HW115911   3.904  11.869  14.186
 4693SOL    HW215912   3.822  11.856  14.059
 4694SOL     OW15913   5.957   9.819   4.623
 4694SOL    HW115914   6.021   9.884   4.652
 4694SOL    HW215915   5.975   9.807   4.529
 4695SOL     OW15916   5.993   5.394   8.074
 4695SOL    HW115917   6.051   5.331   8.032
 4695SOL    HW215918   6.048   5.472   8.086
 4696SOL     OW15919  12.758   2.609   6.970
 4696SOL    HW115920  12.729   2.564   6.890
 4696SOL    HW215921  12.682   2.660   6.998
 4697SOL     OW15922   1.841  13.704  12.688
 4697SOL    HW115923   1.755  13.670  12.664
 4697SOL    HW215924   1.895  13.627  12.699
 4698SOL     OW15925   3.893   6.390  12.108
 4698SOL    HW115926   3.953   6.442  12.055
 4698SOL    HW215927   3.935   6.383  12.193
 4699SOL     OW15928  12.338   5.403  10.535
 4699SOL    HW115929  12.301   5.317  10.554
 4699SOL    HW215930  12.270   5.447  10.483
 4700SOL     OW15931   2.878   0.023   2.844
 4700SOL    HW115932   2.783   0.027   2.829
 4700SOL    HW215933   2.900   0.108   2.882
 4701SOL     OW15934  10.228   9.861   7.680
 4701SOL    HW115935  10.255   9.951   7.701
 4701SOL    HW215936  10.255   9.848   7.590
 4702SOL     OW15937   5.047   0.371   6.730
 4702SOL    HW115938   5.003   0.292   6.759
 4702SOL    HW215939   5.089   0.346   6.648
 4703SOL     OW15940   1.608   6.834   1.827
 4703SOL    HW115941   1.548   6.763   1.845
 4703SOL    HW215942   1.552   6.910   1.809
 4704SOL     OW15943   9.294  11.661   1.973
 4704SOL    HW115944   9.309  11.658   1.879
 4704SOL    HW215945   9.200  11.642   1.983
 4705SOL     OW15946   4.012   5.903  12.084
 4705SOL    HW115947   4.078   5.942  12.141
 4705SOL    HW215948   3.933   5.898  12.138
 4706SOL     OW15949   8.142  10.140   5.356
 4706SOL    HW115950   8.126  10.104   5.269
 4706SOL    HW215951   8.208  10.208   5.343
 4707SOL     OW15952   9.870  10.441  10.635
 4707SOL    HW115953   9.844  10.522  10.591
 4707SOL    HW215954   9.903  10.470  10.720
 4708SOL     OW15955  14.189   8.623   7.712
 4708SOL    HW115956  14.169   8.647   7.802
 4708SOL    HW215957  14.257   8.556   7.719
 4709SOL     OW15958  13.303  14.698   7.982
 4709SOL    HW115959  13.306  14.749   7.901
 4709SOL    HW215960  13.232  14.738   8.033
 4710SOL     OW15961   0.460   4.180   6.132
 4710SOL    HW115962   0.514   4.212   6.204
 4710SOL    HW215963   0.496   4.094   6.111
 4711SOL     OW15964   9.391   7.076   4.575
 4711SOL    HW115965   9.333   7.033   4.638
 4711SOL    HW215966   9.460   7.012   4.558
 4712SOL     OW15967   3.381   8.844   8.395
 4712SOL    HW115968   3.394   8.750   8.404
 4712SOL    HW215969   3.334   8.855   8.313
 4713SOL     OW15970  12.643   5.245   1.105
 4713SOL    HW115971  12.659   5.151   1.112
 4713SOL    HW215972  12.725   5.285   1.132
 4714SOL     OW15973   5.388  11.376  14.644
 4714SOL    HW115974   5.439  11.345  14.569
 4714SOL    HW215975   5.393  11.471  14.638
 4715SOL     OW15976  14.068   6.236   0.360
 4715SOL    HW115977  14.097   6.273   0.444
 4715SOL    HW215978  14.125   6.161   0.346
 4716SOL     OW15979   1.465   0.747  10.339
 4716SOL    HW115980   1.461   0.666  10.288
 4716SOL    HW215981   1.558   0.768  10.343
 4717SOL     OW15982  14.002   9.838   6.153
 4717SOL    HW115983  14.096   9.828   6.161
 4717SOL    HW215984  13.967   9.749   6.159
 4718SOL     OW15985  12.550   4.228   5.391
 4718SOL    HW115986  12.511   4.281   5.462
 4718SOL    HW215987  12.559   4.290   5.319
 4719SOL     OW15988   0.741  14.788  10.069
 4719SOL    HW115989   0.659  14.797  10.119
 4719SOL    HW215990   0.721  14.724  10.001
 4720SOL     OW15991   8.541   4.583  13.880
 4720SOL    HW115992   8.524   4.529  13.957
 4720SOL    HW215993   8.575   4.665  13.915
 4721SOL     OW15994   2.094  13.523  10.351
 4721SOL    HW115995   2.147  13.506  10.429
 4721SOL    HW215996   2.117  13.612  10.325
 4722SOL     OW15997   9.063   1.977   9.271
 4722SOL    HW115998   9.031   1.913   9.334
 4722SOL    HW215999   9.068   1.929   9.188
 4723SOL     OW16000   9.954  10.960   6.444
 4723SOL    HW116001   9.937  10.921   6.530
 4723SOL    HW216002   9.979  10.886   6.388
 4724SOL     OW16003  11.591   7.512  13.818
 4724SOL    HW116004  11.647   7.475  13.887
 4724SOL    HW216005  11.512   7.459  13.820
 4725SOL     OW16006   0.289   6.569   8.616
 4725SOL    HW116007   0.216   6.507   8.605
 4725SOL    HW216008   0.341   6.531   8.687
 4726SOL     OW16009   7.697  14.359   4.907
 4726SOL    HW116010   7.682  14.327   4.818
 4726SOL    HW216011   7.656  14.293   4.963
 4727SOL     OW16012   2.235  13.730  14.733
 4727SOL    HW116013   2.307  13.669  14.718
 4727SOL    HW216014   2.277  13.817  14.733
 4728SOL     OW16015   3.922  10.724  14.212
 4728SOL    HW116016   3.865  10.647  14.208
 4728SOL    HW216017   3.989  10.708  14.145
 4729SOL     OW16018  10.823  11.861   6.841
 4729SOL    HW116019  10.901  11.915   6.832
 4729SOL    HW216020  10.802  11.832   6.752
 4730SOL     OW16021   5.855   1.262   2.574
 4730SOL    HW116022   5.829   1.292   2.661
 4730SOL    HW216023   5.911   1.186   2.591
 4731SOL     OW16024   0.122  12.965   8.172
 4731SOL    HW116025   0.106  12.957   8.265
 4731SOL    HW216026   0.065  12.900   8.132
 4732SOL     OW16027  10.057   8.182   0.710
 4732SOL    HW116028  10.003   8.253   0.745
 4732SOL    HW216029  10.127   8.227   0.663
 4733SOL     OW16030  10.805   2.206   7.545
 4733SOL    HW116031  10.811   2.164   7.630
 4733SOL    HW216032  10.888   2.250   7.534
 4734SOL     OW16033   1.203   6.526   1.636
 4734SOL    HW116034   1.211   6.622   1.631
 4734SOL    HW216035   1.228   6.496   1.549
 4735SOL     OW16036   2.771  14.567   7.721
 4735SOL    HW116037   2.857  14.554   7.761
 4735SOL    HW216038   2.787  14.628   7.649
 4736SOL     OW16039   7.528   7.481   6.721
 4736SOL    HW116040   7.449   7.427   6.725
 4736SOL    HW216041   7.551   7.497   6.813
 4737SOL     OW16042  14.379   1.625   2.026
 4737SOL    HW116043  14.365   1.664   2.112
 4737SOL    HW216044  14.450   1.561   2.040
 4738SOL     OW16045  13.647   0.418  10.486
 4738SOL    HW116046  13.672   0.465  10.407
 4738SOL    HW216047  13.727   0.372  10.513
 4739SOL     OW16048  12.374   2.450   9.225
 4739SOL    HW116049  12.446   2.390   9.206
 4739SOL    HW216050  12.370   2.453   9.321
 4740SOL     OW16051   9.515  14.305  11.059
 4740SOL    HW116052   9.485  14.365  11.128
 4740SOL    HW216053   9.610  14.304  11.069
 4741SOL     OW16054   9.406   9.139   1.239
 4741SOL    HW116055   9.413   9.069   1.305
 4741SOL    HW216056   9.339   9.108   1.179
 4742SOL     OW16057   8.188  11.574  13.235
 4742SOL    HW116058   8.146  11.576  13.149
 4742SOL    HW216059   8.171  11.660  13.273
 4743SOL     OW16060   1.771   2.293   1.179
 4743SOL    HW116061   1.866   2.287   1.177
 4743SOL    HW216062   1.743   2.218   1.232
 4744SOL     OW16063   4.897   5.173   4.604
 4744SOL    HW116064   4.901   5.127   4.688
 4744SOL    HW216065   4.986   5.170   4.571
 4745SOL     OW16066   7.178   2.273   8.574
 4745SOL    HW116067   7.127   2.282   8.655
 4745SOL    HW216068   7.184   2.362   8.539
 4746SOL     OW16069  11.444   5.691   4.418
 4746SOL    HW116070  11.493   5.622   4.374
 4746SOL    HW216071  11.510   5.757   4.441
 4747SOL     OW16072   3.976   9.186  14.510
 4747SOL    HW116073   3.895   9.234  14.524
 4747SOL    HW216074   3.999   9.152  14.597
 4748SOL     OW16075  14.694  13.109   3.435
 4748SOL    HW116076  14.754  13.126   3.507
 4748SOL    HW216077  14.741  13.051   3.376
 4749SOL     OW16078   5.087  13.275   4.877
 4749SOL    HW116079   5.090  13.232   4.962
 4749SOL    HW216080   5.029  13.220   4.824
 4750SOL     OW16081  13.965   3.989   2.675
 4750SOL    HW116082  14.029   3.983   2.604
 4750SOL    HW216083  13.978   4.077   2.711
 4751SOL     OW16084  11.726   1.616  10.523
 4751SOL    HW116085  11.657   1.603  10.589
 4751SOL    HW216086  11.787   1.677  10.565
 4752SOL     OW16087   4.419   6.192   1.248
 4752SOL    HW116088   4.334   6.211   1.287
 4752SOL    HW216089   4.440   6.268   1.194
 4753SOL     OW16090   3.907   7.605  10.539
 4753SOL    HW116091   3.973   7.551  10.496
 4753SOL    HW216092   3.920   7.589  10.632
 4754SOL     OW16093   2.599   0.584   6.247
 4754SOL    HW116094   2.542   0.632   6.307
 4754SOL    HW216095   2.622   0.504   6.295
 4755SOL     OW16096   8.350   5.196  10.779
 4755SOL    HW116097   8.344   5.168  10.871
 4755SOL    HW216098   8.303   5.279  10.776
 4756SOL     OW16099  10.896   0.167  14.562
 4756SOL    HW116100  10.962   0.117  14.515
 4756SOL    HW216101  10.940   0.196  14.642
 4757SOL     OW16102   3.384   6.026  11.904
 4757SOL    HW116103   3.438   6.105  11.906
 4757SOL    HW216104   3.359   6.016  11.813
 4758SOL     OW16105   0.626  14.684   3.736
 4758SOL    HW116106   0.708  14.666   3.782
 4758SOL    HW216107   0.570  14.724   3.803
 4759SOL     OW16108   0.060   7.918   6.782
 4759SOL    HW116109   0.104   8.003   6.777
 4759SOL    HW216110   0.071   7.880   6.695
 4760SOL     OW16111  13.309   4.934  14.294
 4760SOL    HW116112  13.377   4.921  14.360
 4760SOL    HW216113  13.271   5.019  14.315
 4761SOL     OW16114   4.113   1.191  13.814
 4761SOL    HW116115   4.164   1.109  13.817
 4761SOL    HW216116   4.107   1.211  13.721
 4762SOL     OW16117   6.685   9.953   9.182
 4762SOL    HW116118   6.592   9.974   9.177
 4762SOL    HW216119   6.729  10.031   9.150
 4763SOL     OW16120   0.028   5.897   3.712
 4763SOL    HW116121   0.050   5.888   3.619
 4763SOL    HW216122   0.014   5.991   3.724
 4764SOL     OW16123   6.469   4.725   5.703
 4764SOL    HW116124   6.527   4.664   5.750
 4764SOL    HW216125   6.457   4.798   5.763
 4765SOL     OW16126   5.306   7.408  13.226
 4765SOL    HW116127   5.326   7.490  13.180
 4765SOL    HW216128   5.333   7.425  13.317
 4766SOL     OW16129   3.064   7.206  10.150
 4766SOL    HW116130   3.068   7.167  10.237
 4766SOL    HW216131   3.154   7.231  10.130
 4767SOL     OW16132   3.430   0.253   4.518
 4767SOL    HW116133   3.381   0.174   4.539
 4767SOL    HW216134   3.370   0.304   4.462
 4768SOL     OW16135   7.817  14.401  13.250
 4768SOL    HW116136   7.891  14.414  13.190
 4768SOL    HW216137   7.852  14.346  13.320
 4769SOL     OW16138   3.623  11.143   0.533
 4769SOL    HW116139   3.605  11.071   0.595
 4769SOL    HW216140   3.593  11.221   0.579
 4770SOL     OW16141   9.631  14.081   6.424
 4770SOL    HW116142   9.637  14.177   6.425
 4770SOL    HW216143   9.625  14.057   6.517
 4771SOL     OW16144   3.450   0.097   7.083
 4771SOL    HW116145   3.485   0.009   7.071
 4771SOL    HW216146   3.520   0.145   7.127
 4772SOL     OW16147  13.048   9.405   1.880
 4772SOL    HW116148  12.965   9.398   1.832
 4772SOL    HW216149  13.033   9.475   1.943
 4773SOL     OW16150   5.661  10.236   4.570
 4773SOL    HW116151   5.650  10.145   4.595
 4773SOL    HW216152   5.732  10.268   4.627
 4774SOL     OW16153  11.651   2.612   9.978
 4774SOL    HW116154  11.724   2.556   9.951
 4774SOL    HW216155  11.691   2.699   9.987
 4775SOL     OW16156  12.166   2.085   3.546
 4775SOL    HW116157  12.157   2.038   3.463
 4775SOL    HW216158  12.197   2.172   3.521
 4776SOL     OW16159  11.383   2.693   9.800
 4776SOL    HW116160  11.447   2.650   9.743
 4776SOL    HW216161  11.387   2.785   9.775
 4777SOL     OW16162   5.087  12.394   1.655
 4777SOL    HW116163   5.106  12.452   1.728
 4777SOL    HW216164   5.168  12.395   1.603
 4778SOL     OW16165   3.900  11.170   4.267
 4778SOL    HW116166   3.820  11.200   4.225
 4778SOL    HW216167   3.933  11.100   4.210
 4779SOL     OW16168   6.428   0.448   2.628
 4779SOL    HW116169   6.342   0.481   2.603
 4779SOL    HW216170   6.422   0.436   2.723
 4780SOL     OW16171   5.281   5.405  11.853
 4780SOL    HW116172   5.283   5.396  11.757
 4780SOL    HW216173   5.207   5.463  11.870
 4781SOL     OW16174   2.102   3.685   2.186
 4781SOL    HW116175   2.135   3.655   2.270
 4781SOL    HW216176   2.179   3.717   2.139
 4782SOL     OW16177   1.596   4.999   4.326
 4782SOL    HW116178   1.613   5.050   4.405
 4782SOL    HW216179   1.613   4.908   4.352
 4783SOL     OW16180   6.692   7.999   7.961
 4783SOL    HW116181   6.761   8.037   7.907
 4783SOL    HW216182   6.703   7.904   7.951
 4784SOL     OW16183  10.584  11.190   7.810
 4784SOL    HW116184  10.594  11.283   7.828
 4784SOL    HW216185  10.621  11.178   7.723
 4785SOL     OW16186   0.443  11.683  14.101
 4785SOL    HW116187   0.388  11.621  14.149
 4785SOL    HW216188   0.457  11.755  14.163
 4786SOL     OW16189   8.950   6.829   0.695
 4786SOL    HW116190   8.944   6.816   0.601
 4786SOL    HW216191   9.016   6.765   0.724
 4787SOL     OW16192   4.421   3.582  12.962
 4787SOL    HW116193   4.345   3.636  12.939
 4787SOL    HW216194   4.444   3.538  12.879
 4788SOL     OW16195  11.634   9.325  13.921
 4788SOL    HW116196  11.729   9.319  13.928
 4788SOL    HW216197  11.612   9.411  13.957
 4789SOL     OW16198  10.322   8.021   8.372
 4789SOL    HW116199  10.233   7.986   8.374
 4789SOL    HW216200  10.361   7.982   8.293
 4790SOL     OW16201   4.807  11.781   1.717
 4790SOL    HW116202   4.725  11.816   1.683
 4790SOL    HW216203   4.809  11.690   1.688
 4791SOL     OW16204   9.123   7.134   3.568
 4791SOL    HW116205   9.186   7.063   3.551
 4791SOL    HW216206   9.048   7.112   3.512
 4792SOL     OW16207   8.460   4.557   9.297
 4792SOL    HW116208   8.377   4.512   9.314
 4792SOL    HW216209   8.525   4.508   9.348
 4793SOL     OW16210   8.538  14.298  13.235
 4793SOL    HW116211   8.458  14.273  13.189
 4793SOL    HW216212   8.609  14.267  13.178
 4794SOL     OW16213  14.450   0.963   5.697
 4794SOL    HW116214  14.494   0.999   5.774
 4794SOL    HW216215  14.509   0.980   5.624
 4795SOL     OW16216   2.603   8.233   8.851
 4795SOL    HW116217   2.601   8.262   8.942
 4795SOL    HW216218   2.544   8.292   8.805
 4796SOL     OW16219  11.112   5.417   5.918
 4796SOL    HW116220  11.133   5.443   6.007
 4796SOL    HW216221  11.124   5.322   5.917
 4797SOL     OW16222   3.883  10.564  13.168
 4797SOL    HW116223   3.849  10.642  13.212
 4797SOL    HW216224   3.870  10.493  13.230
 4798SOL     OW16225   6.955   2.275  11.827
 4798SOL    HW116226   7.015   2.345  11.800
 4798SOL    HW216227   6.988   2.197  11.784
 4799SOL     OW16228  11.685  12.076   4.596
 4799SOL    HW116229  11.641  12.130   4.531
 4799SOL    HW216230  11.748  12.025   4.546
 4800SOL     OW16231   4.692  10.374  13.815
 4800SOL    HW116232   4.662  10.318  13.887
 4800SOL    HW216233   4.665  10.328  13.736
 4801SOL     OW16234  12.313   6.153   4.120
 4801SOL    HW116235  12.377   6.144   4.049
 4801SOL    HW216236  12.366   6.167   4.199
 4802SOL     OW16237   3.430   8.790   2.345
 4802SOL    HW116238   3.474   8.862   2.300
 4802SOL    HW216239   3.464   8.794   2.435
 4803SOL     OW16240  12.965   2.429   5.782
 4803SOL    HW116241  12.898   2.494   5.761
 4803SOL    HW216242  13.043   2.457   5.734
 4804SOL     OW16243  13.595   4.638   5.272
 4804SOL    HW116244  13.572   4.578   5.200
 4804SOL    HW216245  13.658   4.699   5.233
 4805SOL     OW16246   3.528  12.045   1.205
 4805SOL    HW116247   3.469  11.988   1.155
 4805SOL    HW216248   3.612  11.998   1.204
 4806SOL     OW16249  10.526   7.248   4.132
 4806SOL    HW116250  10.593   7.249   4.064
 4806SOL    HW216251  10.473   7.171   4.113
 4807SOL     OW16252   6.611   7.670  11.103
 4807SOL    HW116253   6.545   7.658  11.171
 4807SOL    HW216254   6.625   7.765  11.099
 4808SOL     OW16255   2.013   2.911  11.850
 4808SOL    HW116256   2.047   2.975  11.912
 4808SOL    HW216257   2.060   2.929  11.768
 4809SOL     OW16258   7.446   7.270  11.242
 4809SOL    HW116259   7.389   7.290  11.168
 4809SOL    HW216260   7.400   7.305  11.318
 4810SOL     OW16261   4.730   7.943   9.994
 4810SOL    HW116262   4.684   7.987  10.066
 4810SOL    HW216263   4.729   8.006   9.922
 4811SOL     OW16264   5.371   4.572   2.141
 4811SOL    HW116265   5.349   4.500   2.200
 4811SOL    HW216266   5.417   4.531   2.068
 4812SOL     OW16267  12.152  14.183   4.611
 4812SOL    HW116268  12.159  14.212   4.520
 4812SOL    HW216269  12.230  14.131   4.626
 4813SOL     OW16270   7.588  12.689   0.937
 4813SOL    HW116271   7.533  12.706   0.860
 4813SOL    HW216272   7.540  12.622   0.986
 4814SOL     OW16273   0.833   2.059   7.100
 4814SOL    HW116274   0.892   2.022   7.034
 4814SOL    HW216275   0.866   2.148   7.114
 4815SOL     OW16276   5.218  11.095   5.327
 4815SOL    HW116277   5.182  11.046   5.401
 4815SOL    HW216278   5.313  11.087   5.337
 4816SOL     OW16279  10.564   0.330   3.600
 4816SOL    HW116280  10.588   0.392   3.530
 4816SOL    HW216281  10.647   0.291   3.628
 4817SOL     OW16282   1.174  10.804   0.228
 4817SOL    HW116283   1.161  10.895   0.255
 4817SOL    HW216284   1.261  10.804   0.187
 4818SOL     OW16285   6.429   2.025   9.494
 4818SOL    HW116286   6.482   2.040   9.415
 4818SOL    HW216287   6.472   1.951   9.537
 4819SOL     OW16288   5.401   4.102  13.686
 4819SOL    HW116289   5.377   4.009  13.684
 4819SOL    HW216290   5.345   4.142  13.620
 4820SOL     OW16291   2.935   5.571  11.212
 4820SOL    HW116292   3.013   5.599  11.260
 4820SOL    HW216293   2.922   5.637  11.145
 4821SOL     OW16294   0.728   3.056   9.214
 4821SOL    HW116295   0.679   2.979   9.245
 4821SOL    HW216296   0.689   3.075   9.129
 4822SOL     OW16297   0.702   4.036  11.772
 4822SOL    HW116298   0.715   4.027  11.866
 4822SOL    HW216299   0.619   4.083  11.763
 4823SOL     OW16300  12.396  14.020   7.212
 4823SOL    HW116301  12.378  13.929   7.190
 4823SOL    HW216302  12.438  14.016   7.298
 4824SOL     OW16303  11.982   1.381   1.930
 4824SOL    HW116304  11.895   1.373   1.890
 4824SOL    HW216305  12.023   1.453   1.883
 4825SOL     OW16306   4.190   1.729  11.097
 4825SOL    HW116307   4.112   1.750  11.045
 4825SOL    HW216308   4.258   1.786  11.062
 4826SOL     OW16309   9.996  12.109  12.284
 4826SOL    HW116310  10.026  12.190  12.325
 4826SOL    HW216311  10.033  12.040  12.338
 4827SOL     OW16312   2.887   3.347  13.940
 4827SOL    HW116313   2.858   3.370  13.852
 4827SOL    HW216314   2.860   3.421  13.995
 4828SOL     OW16315   7.571   5.929  13.479
 4828SOL    HW116316   7.550   5.926  13.385
 4828SOL    HW216317   7.519   5.860  13.518
 4829SOL     OW16318   2.857  12.716   2.921
 4829SOL    HW116319   2.928  12.780   2.923
 4829SOL    HW216320   2.896  12.637   2.883
 4830SOL     OW16321   8.573   5.429   3.568
 4830SOL    HW116322   8.542   5.430   3.659
 4830SOL    HW216323   8.493   5.436   3.516
 4831SOL     OW16324   0.495   8.994   5.917
 4831SOL    HW116325   0.532   9.063   5.973
 4831SOL    HW216326   0.572   8.950   5.880
 4832SOL     OW16327  10.524   4.497   8.854
 4832SOL    HW116328  10.469   4.553   8.909
 4832SOL    HW216329  10.596   4.470   8.911
 4833SOL     OW16330   6.992   1.662   6.799
 4833SOL    HW116331   7.017   1.637   6.710
 4833SOL    HW216332   6.940   1.589   6.831
 4834SOL     OW16333   0.841   4.831   5.767
 4834SOL    HW116334   0.779   4.902   5.786
 4834SOL    HW216335   0.924   4.876   5.752
 4835SOL     OW16336  13.322   6.166   9.242
 4835SOL    HW116337  13.233   6.178   9.276
 4835SOL    HW216338  13.320   6.207   9.155
 4836SOL     OW16339  14.324  13.336   6.151
 4836SOL    HW116340  14.230  13.346   6.137
 4836SOL    HW216341  14.356  13.426   6.156
 4837SOL     OW16342   1.496   9.389  13.334
 4837SOL    HW116343   1.525   9.330  13.265
 4837SOL    HW216344   1.507   9.477  13.297
 4838SOL     OW16345   1.372  13.306   2.013
 4838SOL    HW116346   1.458  13.265   2.020
 4838SOL    HW216347   1.363  13.327   1.920
 4839SOL     OW16348  12.226   6.889  10.235
 4839SOL    HW116349  12.308   6.902  10.189
 4839SOL    HW216350  12.224   6.957  10.302
 4840SOL     OW16351   1.420  12.919   8.028
 4840SOL    HW116352   1.428  12.957   7.940
 4840SOL    HW216353   1.328  12.932   8.051
 4841SOL     OW16354   5.481   9.085   5.650
 4841SOL    HW116355   5.387   9.077   5.667
 4841SOL    HW216356   5.487   9.088   5.554
 4842SOL     OW16357   4.057   2.977   1.606
 4842SOL    HW116358   4.083   3.068   1.589
 4842SOL    HW216359   4.061   2.934   1.521
 4843SOL     OW16360  12.408  14.082  11.581
 4843SOL    HW116361  12.338  14.125  11.531
 4843SOL    HW216362  12.487  14.130  11.558
 4844SOL     OW16363   4.211  12.392  10.469
 4844SOL    HW116364   4.122  12.419  10.490
 4844SOL    HW216365   4.201  12.306  10.428
 4845SOL     OW16366  13.485  11.380   8.713
 4845SOL    HW116367  13.449  11.294   8.738
 4845SOL    HW216368  13.464  11.436   8.788
 4846SOL     OW16369  11.777   5.763   1.660
 4846SOL    HW116370  11.754   5.766   1.753
 4846SOL    HW216371  11.799   5.671   1.644
 4847SOL     OW16372  10.554   8.880   4.348
 4847SOL    HW116373  10.552   8.858   4.255
 4847SOL    HW216374  10.477   8.935   4.361
 4848SOL     OW16375   5.200   3.457   6.429
 4848SOL    HW116376   5.246   3.536   6.401
 4848SOL    HW216377   5.242   3.387   6.379
 4849SOL     OW16378  13.357  10.952  10.569
 4849SOL    HW116379  13.398  11.038  10.566
 4849SOL    HW216380  13.396  10.904  10.497
 4850SOL     OW16381  14.812   3.010   9.988
 4850SOL    HW116382  14.744   2.975   9.929
 4850SOL    HW216383  14.782   2.985  10.075
 4851SOL     OW16384   6.798   0.250  12.505
 4851SOL    HW116385   6.867   0.194  12.542
 4851SOL    HW216386   6.717   0.202  12.522
 4852SOL     OW16387  10.013   5.865   2.962
 4852SOL    HW116388  10.047   5.834   3.046
 4852SOL    HW216389  10.081   5.843   2.899
 4853SOL     OW16390   1.653   2.218  10.785
 4853SOL    HW116391   1.678   2.279  10.854
 4853SOL    HW216392   1.572   2.255  10.748
 4854SOL     OW16393   2.512   1.903  13.791
 4854SOL    HW116394   2.480   1.947  13.712
 4854SOL    HW216395   2.488   1.961  13.863
 4855SOL     OW16396   1.310   3.465  10.388
 4855SOL    HW116397   1.349   3.423  10.311
 4855SOL    HW216398   1.340   3.556  10.384
 4856SOL     OW16399   4.593   1.286   3.990
 4856SOL    HW116400   4.607   1.232   4.067
 4856SOL    HW216401   4.646   1.365   4.005
 4857SOL     OW16402   5.435   7.215   7.865
 4857SOL    HW116403   5.414   7.303   7.899
 4857SOL    HW216404   5.520   7.195   7.904
 4858SOL     OW16405   6.890  14.321   7.131
 4858SOL    HW116406   6.816  14.278   7.088
 4858SOL    HW216407   6.883  14.297   7.223
 4859SOL     OW16408   2.987   8.655   3.680
 4859SOL    HW116409   2.930   8.712   3.630
 4859SOL    HW216410   2.949   8.651   3.767
 4860SOL     OW16411  11.481   3.259   4.424
 4860SOL    HW116412  11.484   3.198   4.498
 4860SOL    HW216413  11.553   3.231   4.367
 4861SOL     OW16414   8.244   0.123   1.271
 4861SOL    HW116415   8.291   0.186   1.216
 4861SOL    HW216416   8.221   0.052   1.211
 4862SOL     OW16417   5.616  14.729   6.556
 4862SOL    HW116418   5.532  14.765   6.529
 4862SOL    HW216419   5.593  14.651   6.608
 4863SOL     OW16420   3.880   5.841   4.693
 4863SOL    HW116421   3.892   5.856   4.787
 4863SOL    HW216422   3.940   5.904   4.651
 4864SOL     OW16423   0.300   1.096   7.877
 4864SOL    HW116424   0.318   1.125   7.788
 4864SOL    HW216425   0.314   1.174   7.931
 4865SOL     OW16426   9.134   7.957   2.327
 4865SOL    HW116427   9.206   7.960   2.390
 4865SOL    HW216428   9.074   7.892   2.362
 4866SOL     OW16429   8.377  10.279   5.822
 4866SOL    HW116430   8.306  10.258   5.883
 4866SOL    HW216431   8.454  10.290   5.877
 4867SOL     OW16432   3.006   5.029   9.240
 4867SOL    HW116433   3.012   5.074   9.325
 4867SOL    HW216434   3.093   5.037   9.203
 4868SOL     OW16435   2.306   4.746   9.604
 4868SOL    HW116436   2.256   4.698   9.670
 4868SOL    HW216437   2.317   4.833   9.641
 4869SOL     OW16438   3.020   0.283   4.116
 4869SOL    HW116439   3.024   0.377   4.137
 4869SOL    HW216440   2.960   0.278   4.041
 4870SOL     OW16441   4.555   9.340   1.260
 4870SOL    HW116442   4.487   9.361   1.325
 4870SOL    HW216443   4.630   9.314   1.313
 4871SOL     OW16444   3.051   4.021   8.551
 4871SOL    HW116445   2.990   4.094   8.543
 4871SOL    HW216446   3.088   4.030   8.639
 4872SOL     OW16447   3.514   1.512  12.191
 4872SOL    HW116448   3.538   1.420  12.200
 4872SOL    HW216449   3.597   1.556  12.176
 4873SOL     OW16450  12.042  12.019   2.547
 4873SOL    HW116451  12.135  12.032   2.565
 4873SOL    HW216452  12.000  12.100   2.574
 4874SOL     OW16453   7.628   3.281   2.325
 4874SOL    HW116454   7.674   3.199   2.342
 4874SOL    HW216455   7.544   3.255   2.289
 4875SOL     OW16456  14.240  11.296   2.810
 4875SOL    HW116457  14.174  11.303   2.878
 4875SOL    HW216458  14.249  11.202   2.795
 4876SOL     OW16459   0.314   5.695   3.698
 4876SOL    HW116460   0.317   5.611   3.743
 4876SOL    HW216461   0.235   5.691   3.644
 4877SOL     OW16462   3.667   5.733  13.552
 4877SOL    HW116463   3.669   5.745  13.647
 4877SOL    HW216464   3.586   5.775  13.524
 4878SOL     OW16465   9.201  14.712   0.719
 4878SOL    HW116466   9.170  14.795   0.683
 4878SOL    HW216467   9.214  14.656   0.643
 4879SOL     OW16468  11.625   4.888   4.849
 4879SOL    HW116469  11.578   4.817   4.806
 4879SOL    HW216470  11.686   4.844   4.908
 4880SOL     OW16471   4.383   8.291  11.573
 4880SOL    HW116472   4.353   8.200  11.581
 4880SOL    HW216473   4.354   8.333  11.654
 4881SOL     OW16474  14.165  13.647   0.984
 4881SOL    HW116475  14.254  13.641   0.949
 4881SOL    HW216476  14.155  13.569   1.038
 4882SOL     OW16477   0.130   0.272  14.482
 4882SOL    HW116478   0.206   0.281  14.540
 4882SOL    HW216479   0.086   0.193  14.514
 4883SOL     OW16480   4.724   2.662   7.081
 4883SOL    HW116481   4.656   2.685   7.018
 4883SOL    HW216482   4.805   2.695   7.041
 4884SOL     OW16483   9.820   5.789   1.679
 4884SOL    HW116484   9.834   5.876   1.640
 4884SOL    HW216485   9.730   5.791   1.710
 4885SOL     OW16486  13.225  11.815  10.502
 4885SOL    HW116487  13.181  11.735  10.472
 4885SOL    HW216488  13.160  11.884  10.491
 4886SOL     OW16489   3.946   8.474   0.238
 4886SOL    HW116490   4.020   8.532   0.217
 4886SOL    HW216491   3.880   8.493   0.172
 4887SOL     OW16492   2.394  11.392   3.532
 4887SOL    HW116493   2.447  11.313   3.545
 4887SOL    HW216494   2.458  11.463   3.527
 4888SOL     OW16495   7.109  11.868  13.712
 4888SOL    HW116496   7.037  11.873  13.649
 4888SOL    HW216497   7.168  11.803  13.674
 4889SOL     OW16498   4.611   2.894   2.559
 4889SOL    HW116499   4.595   2.910   2.466
 4889SOL    HW216500   4.706   2.905   2.569
 4890SOL     OW16501  14.246   8.316   0.932
 4890SOL    HW116502  14.246   8.292   1.024
 4890SOL    HW216503  14.328   8.364   0.919
 4891SOL     OW16504   0.612  13.638   1.702
 4891SOL    HW116505   0.525  13.616   1.735
 4891SOL    HW216506   0.606  13.626   1.607
 4892SOL     OW16507   3.462  12.403   5.227
 4892SOL    HW116508   3.458  12.497   5.210
 4892SOL    HW216509   3.522  12.369   5.161
 4893SOL     OW16510   0.643   3.163  12.309
 4893SOL    HW116511   0.593   3.230  12.355
 4893SOL    HW216512   0.579   3.097  12.285
 4894SOL     OW16513   9.509   4.846  10.226
 4894SOL    HW116514   9.419   4.875  10.237
 4894SOL    HW216515   9.561   4.923  10.249
 4895SOL     OW16516   2.109   5.508  11.522
 4895SOL    HW116517   2.069   5.473  11.442
 4895SOL    HW216518   2.084   5.447  11.591
 4896SOL     OW16519  11.788   8.481   6.567
 4896SOL    HW116520  11.819   8.448   6.652
 4896SOL    HW216521  11.774   8.403   6.514
 4897SOL     OW16522  14.201   5.262   6.815
 4897SOL    HW116523  14.147   5.205   6.761
 4897SOL    HW216524  14.154   5.345   6.818
 4898SOL     OW16525   0.724  13.360  10.735
 4898SOL    HW116526   0.686  13.313  10.660
 4898SOL    HW216527   0.721  13.452  10.709
 4899SOL     OW16528   3.391   5.190  14.201
 4899SOL    HW116529   3.430   5.277  14.190
 4899SOL    HW216530   3.333   5.199  14.277
 4900SOL     OW16531   8.404   1.891  10.609
 4900SOL    HW116532   8.434   1.899  10.699
 4900SOL    HW216533   8.429   1.802  10.583
 4901SOL     OW16534  10.320   4.893   4.056
 4901SOL    HW116535  10.322   4.975   4.104
 4901SOL    HW216536  10.247   4.844   4.093
 4902SOL     OW16537   9.902   6.749   9.343
 4902SOL    HW116538   9.853   6.699   9.278
 4902SOL    HW216539   9.844   6.821   9.367
 4903SOL     OW16540   2.319  14.772  13.513
 4903SOL    HW116541   2.378  14.747  13.584
 4903SOL    HW216542   2.345  14.861  13.489
 4904SOL     OW16543  10.843   2.311   8.480
 4904SOL    HW116544  10.860   2.217   8.477
 4904SOL    HW216545  10.764   2.320   8.533
 4905SOL     OW16546   3.497   9.502   7.555
 4905SOL    HW116547   3.439   9.467   7.623
 4905SOL    HW216548   3.474   9.595   7.550
 4906SOL     OW16549   9.988   0.991   6.597
 4906SOL    HW116550   9.997   1.051   6.523
 4906SOL    HW216551   9.950   0.912   6.559
 4907SOL     OW16552   1.331  13.699  11.005
 4907SOL    HW116553   1.356  13.617  10.962
 4907SOL    HW216554   1.411  13.752  11.004
 4908SOL     OW16555   6.853  13.396   7.986
 4908SOL    HW116556   6.936  13.373   8.029
 4908SOL    HW216557   6.838  13.487   8.013
 4909SOL     OW16558   8.189   0.854  12.905
 4909SOL    HW116559   8.274   0.813  12.921
 4909SOL    HW216560   8.191   0.877  12.812
 4910SOL     OW16561   8.233  12.377  14.033
 4910SOL    HW116562   8.159  12.392  14.093
 4910SOL    HW216563   8.281  12.305  14.073
 4911SOL     OW16564   6.447   9.509  14.746
 4911SOL    HW116565   6.368   9.457  14.728
 4911SOL    HW216566   6.480   9.534  14.660
 4912SOL     OW16567  13.112   3.968   6.609
 4912SOL    HW116568  13.169   4.034   6.568
 4912SOL    HW216569  13.165   3.888   6.609
 4913SOL     OW16570   2.384   7.866   2.231
 4913SOL    HW116571   2.436   7.916   2.293
 4913SOL    HW216572   2.372   7.925   2.156
 4914SOL     OW16573  10.058  10.507   0.807
 4914SOL    HW116574  10.095  10.526   0.721
 4914SOL    HW216575   9.963  10.503   0.792
 4915SOL     OW16576  10.354   2.609  11.972
 4915SOL    HW116577  10.327   2.698  11.996
 4915SOL    HW216578  10.448   2.617  11.953
 4916SOL     OW16579   2.397   7.841   8.842
 4916SOL    HW116580   2.382   7.845   8.747
 4916SOL    HW216581   2.409   7.748   8.860
 4917SOL     OW16582  12.097   8.208   1.576
 4917SOL    HW116583  12.051   8.135   1.534
 4917SOL    HW216584  12.190   8.186   1.567
 4918SOL     OW16585   1.600   8.193   7.141
 4918SOL    HW116586   1.680   8.193   7.088
 4918SOL    HW216587   1.625   8.149   7.222
 4919SOL     OW16588  12.180   3.119   6.618
 4919SOL    HW116589  12.227   3.148   6.696
 4919SOL    HW216590  12.201   3.185   6.552
 4920SOL     OW16591   8.265   5.502  10.770
 4920SOL    HW116592   8.181   5.472  10.735
 4920SOL    HW216593   8.265   5.596  10.754
 4921SOL     OW16594   5.470  12.899  12.431
 4921SOL    HW116595   5.407  12.833  12.460
 4921SOL    HW216596   5.426  12.983  12.449
 4922SOL     OW16597   9.124   4.722   8.954
 4922SOL    HW116598   9.178   4.652   8.918
 4922SOL    HW216599   9.035   4.700   8.928
 4923SOL     OW16600   1.981  12.112   5.930
 4923SOL    HW116601   2.002  12.075   6.016
 4923SOL    HW216602   2.065  12.116   5.884
 4924SOL     OW16603  14.073   1.035  14.158
 4924SOL    HW116604  14.003   1.085  14.200
 4924SOL    HW216605  14.135   1.016  14.229
 4925SOL     OW16606   0.492  11.330   7.890
 4925SOL    HW116607   0.547  11.259   7.856
 4925SOL    HW216608   0.444  11.362   7.814
 4926SOL     OW16609   7.404   0.911  12.794
 4926SOL    HW116610   7.365   0.966  12.726
 4926SOL    HW216611   7.497   0.906  12.772
 4927SOL     OW16612  11.059   3.470  12.189
 4927SOL    HW116613  11.103   3.449  12.272
 4927SOL    HW216614  11.110   3.543  12.153
 4928SOL     OW16615  11.101   7.017  10.038
 4928SOL    HW116616  11.153   7.027   9.958
 4928SOL    HW216617  11.070   6.926  10.035
 4929SOL     OW16618   1.824   6.105  14.589
 4929SOL    HW116619   1.824   6.035  14.654
 4929SOL    HW216620   1.886   6.076  14.523
 4930SOL     OW16621   0.933   0.703  10.411
 4930SOL    HW116622   0.878   0.632  10.442
 4930SOL    HW216623   1.022   0.679  10.439
 4931SOL     OW16624   9.170  13.400   8.108
 4931SOL    HW116625   9.129  13.322   8.070
 4931SOL    HW216626   9.190  13.375   8.199
 4932SOL     OW16627  14.454   3.029   3.733
 4932SOL    HW116628  14.529   2.970   3.737
 4932SOL    HW216629  14.379   2.973   3.754
 4933SOL     OW16630   3.873   3.785   4.471
 4933SOL    HW116631   3.886   3.806   4.563
 4933SOL    HW216632   3.960   3.765   4.437
 4934SOL     OW16633  14.184   6.663   1.191
 4934SOL    HW116634  14.194   6.568   1.201
 4934SOL    HW216635  14.093   6.675   1.164
 4935SOL     OW16636   9.602  12.888   6.688
 4935SOL    HW116637   9.668  12.838   6.737
 4935SOL    HW216638   9.627  12.877   6.596
 4936SOL     OW16639   5.488   5.970  13.341
 4936SOL    HW116640   5.469   5.947  13.432
 4936SOL    HW216641   5.503   5.886  13.297
 4937SOL     OW16642  10.649   8.143  12.933
 4937SOL    HW116643  10.697   8.128  12.852
 4937SOL    HW216644  10.614   8.057  12.957
 4938SOL     OW16645   4.764  10.810   9.415
 4938SOL    HW116646   4.768  10.733   9.471
 4938SOL    HW216647   4.672  10.836   9.415
 4939SOL     OW16648   2.700   3.822  11.819
 4939SOL    HW116649   2.716   3.802  11.911
 4939SOL    HW216650   2.747   3.904  11.804
 4940SOL     OW16651  10.889   5.078   1.538
 4940SOL    HW116652  10.863   5.029   1.616
 4940SOL    HW216653  10.924   5.160   1.573
 4941SOL     OW16654  10.888   0.816   3.529
 4941SOL    HW116655  10.959   0.752   3.522
 4941SOL    HW216656  10.927   0.897   3.495
 4942SOL     OW16657   3.334   8.881   4.892
 4942SOL    HW116658   3.329   8.787   4.878
 4942SOL    HW216659   3.246   8.906   4.921
 4943SOL     OW16660   8.077  12.550  11.268
 4943SOL    HW116661   8.060  12.594  11.351
 4943SOL    HW216662   8.170  12.564  11.252
 4944SOL     OW16663   6.742   7.214   9.249
 4944SOL    HW116664   6.822   7.169   9.276
 4944SOL    HW216665   6.690   7.147   9.205
 4945SOL     OW16666  10.844   7.485  13.440
 4945SOL    HW116667  10.879   7.570  13.471
 4945SOL    HW216668  10.899   7.463  13.365
 4946SOL     OW16669   7.345  10.657   0.124
 4946SOL    HW116670   7.309  10.645   0.212
 4946SOL    HW216671   7.407  10.729   0.134
 4947SOL     OW16672  12.545   3.221   6.825
 4947SOL    HW116673  12.577   3.268   6.901
 4947SOL    HW216674  12.456   3.255   6.812
 4948SOL     OW16675  14.651  12.343   2.336
 4948SOL    HW116676  14.665  12.270   2.277
 4948SOL    HW216677  14.614  12.304   2.415
 4949SOL     OW16678  13.139  13.744   1.919
 4949SOL    HW116679  13.067  13.790   1.876
 4949SOL    HW216680  13.151  13.792   2.002
 4950SOL     OW16681   6.708   1.735   8.481
 4950SOL    HW116682   6.720   1.642   8.465
 4950SOL    HW216683   6.796   1.772   8.475
 4951SOL     OW16684   8.410   0.621   8.443
 4951SOL    HW116685   8.437   0.642   8.354
 4951SOL    HW216686   8.351   0.546   8.434
 4952SOL     OW16687   9.675  14.691   5.993
 4952SOL    HW116688   9.641  14.602   6.002
 4952SOL    HW216689   9.636  14.739   6.066
 4953SOL     OW16690   0.159  13.729   7.081
 4953SOL    HW116691   0.125  13.640   7.066
 4953SOL    HW216692   0.196  13.726   7.169
 4954SOL     OW16693   5.353   2.816   3.577
 4954SOL    HW116694   5.281   2.755   3.568
 4954SOL    HW216695   5.400   2.786   3.655
 4955SOL     OW16696   0.454   0.945  11.931
 4955SOL    HW116697   0.480   0.870  11.877
 4955SOL    HW216698   0.532   0.965  11.983
 4956SOL     OW16699   1.989  10.433   1.542
 4956SOL    HW116700   2.011  10.525   1.551
 4956SOL    HW216701   1.989  10.400   1.632
 4957SOL     OW16702  10.344   3.859  11.123
 4957SOL    HW116703  10.413   3.850  11.058
 4957SOL    HW216704  10.291   3.779  11.113
 4958SOL     OW16705   4.841  10.176   7.854
 4958SOL    HW116706   4.811  10.108   7.913
 4958SOL    HW216707   4.767  10.236   7.847
 4959SOL     OW16708   4.547   4.304  12.755
 4959SOL    HW116709   4.541   4.366  12.683
 4959SOL    HW216710   4.505   4.349  12.829
 4960SOL     OW16711  11.368   8.859   8.443
 4960SOL    HW116712  11.429   8.787   8.427
 4960SOL    HW216713  11.408   8.910   8.513
 4961SOL     OW16714   1.432  13.898   7.807
 4961SOL    HW116715   1.394  13.855   7.884
 4961SOL    HW216716   1.372  13.970   7.788
 4962SOL     OW16717   8.706  11.248   3.574
 4962SOL    HW116718   8.667  11.288   3.652
 4962SOL    HW216719   8.639  11.187   3.542
 4963SOL     OW16720   0.973   7.899   6.135
 4963SOL    HW116721   1.028   7.973   6.112
 4963SOL    HW216722   0.923   7.928   6.212
 4964SOL     OW16723  13.531   3.063   1.529
 4964SOL    HW116724  13.492   3.140   1.488
 4964SOL    HW216725  13.561   3.009   1.456
 4965SOL     OW16726   7.761  12.286   2.899
 4965SOL    HW116727   7.700  12.313   2.830
 4965SOL    HW216728   7.729  12.200   2.927
 4966SOL     OW16729  14.069  10.360  13.410
 4966SOL    HW116730  14.128  10.410  13.466
 4966SOL    HW216731  14.094  10.385  13.321
 4967SOL     OW16732  14.436  11.114   0.940
 4967SOL    HW116733  14.462  11.205   0.930
 4967SOL    HW216734  14.390  11.111   1.024
 4968SOL     OW16735   0.827  10.329   5.804
 4968SOL    HW116736   0.820  10.356   5.712
 4968SOL    HW216737   0.903  10.272   5.806
 4969SOL     OW16738  10.025   1.895   7.724
 4969SOL    HW116739   9.990   1.985   7.729
 4969SOL    HW216740   9.978   1.848   7.792
 4970SOL     OW16741   8.693   3.406   6.069
 4970SOL    HW116742   8.687   3.500   6.087
 4970SOL    HW216743   8.761   3.374   6.128
 4971SOL     OW16744  14.272  13.156   3.378
 4971SOL    HW116745  14.295  13.065   3.357
 4971SOL    HW216746  14.203  13.178   3.316
 4972SOL     OW16747   0.281  10.345  13.521
 4972SOL    HW116748   0.319  10.365  13.607
 4972SOL    HW216749   0.334  10.273  13.487
 4973SOL     OW16750   3.243   5.069   2.695
 4973SOL    HW116751   3.241   4.977   2.670
 4973SOL    HW216752   3.164   5.107   2.657
 4974SOL     OW16753   8.845   8.131  13.060
 4974SOL    HW116754   8.774   8.083  13.016
 4974SOL    HW216755   8.914   8.066  13.071
 4975SOL     OW16756  12.017  11.168  10.732
 4975SOL    HW116757  12.095  11.186  10.679
 4975SOL    HW216758  11.997  11.251  10.775
 4976SOL     OW16759  12.836   3.941   2.162
 4976SOL    HW116760  12.842   3.854   2.202
 4976SOL    HW216761  12.882   3.932   2.078
 4977SOL     OW16762   4.845  11.978  12.337
 4977SOL    HW116763   4.900  12.026  12.399
 4977SOL    HW216764   4.757  12.013  12.350
 4978SOL     OW16765  10.461   9.989   8.320
 4978SOL    HW116766  10.533   9.958   8.265
 4978SOL    HW216767  10.434  10.071   8.280
 4979SOL     OW16768  14.151  11.353   2.108
 4979SOL    HW116769  14.212  11.315   2.172
 4979SOL    HW216770  14.204  11.414   2.057
 4980SOL     OW16771   3.663   8.795  10.836
 4980SOL    HW116772   3.751   8.815  10.869
 4980SOL    HW216773   3.674   8.783  10.742
 4981SOL     OW16774   9.620   4.921  14.043
 4981SOL    HW116775   9.590   5.011  14.058
 4981SOL    HW216776   9.709   4.919  14.076
 4982SOL     OW16777   4.594   3.627  11.936
 4982SOL    HW116778   4.670   3.676  11.903
 4982SOL    HW216779   4.537   3.618  11.860
 4983SOL     OW16780   2.104   8.496  10.710
 4983SOL    HW116781   2.070   8.474  10.623
 4983SOL    HW216782   2.128   8.412  10.749
 4984SOL     OW16783   7.632   3.092   2.617
 4984SOL    HW116784   7.654   3.079   2.525
 4984SOL    HW216785   7.688   3.164   2.645
 4985SOL     OW16786  13.336   3.690  11.059
 4985SOL    HW116787  13.336   3.785  11.047
 4985SOL    HW216788  13.297   3.655  10.978
 4986SOL     OW16789  10.651   8.052   7.916
 4986SOL    HW116790  10.619   8.133   7.876
 4986SOL    HW216791  10.681   7.999   7.842
 4987SOL     OW16792  13.897   5.848   3.257
 4987SOL    HW116793  13.909   5.887   3.344
 4987SOL    HW216794  13.955   5.898   3.200
 4988SOL     OW16795   8.690  11.252  13.991
 4988SOL    HW116796   8.759  11.293  13.938
 4988SOL    HW216797   8.697  11.294  14.077
 4989SOL     OW16798   6.786  13.494   9.843
 4989SOL    HW116799   6.756  13.459   9.927
 4989SOL    HW216800   6.878  13.515   9.857
 4990SOL     OW16801  10.856   9.538   5.404
 4990SOL    HW116802  10.783   9.599   5.397
 4990SOL    HW216803  10.934   9.592   5.393
 4991SOL     OW16804   2.318  14.629  11.371
 4991SOL    HW116805   2.273  14.701  11.327
 4991SOL    HW216806   2.250  14.585  11.422
 4992SOL     OW16807  10.519   1.913   8.629
 4992SOL    HW116808  10.510   1.862   8.549
 4992SOL    HW216809  10.580   1.863   8.683
 4993SOL     OW16810   2.365  10.942  13.634
 4993SOL    HW116811   2.399  10.884  13.567
 4993SOL    HW216812   2.271  10.921  13.639
 4994SOL     OW16813   4.824  11.076  12.567
 4994SOL    HW116814   4.896  11.015  12.550
 4994SOL    HW216815   4.819  11.083  12.662
 4995SOL     OW16816   2.816  14.643   9.839
 4995SOL    HW116817   2.830  14.737   9.833
 4995SOL    HW216818   2.738  14.626   9.786
 4996SOL     OW16819   2.789  11.276   7.536
 4996SOL    HW116820   2.827  11.209   7.480
 4996SOL    HW216821   2.729  11.229   7.593
 4997SOL     OW16822  14.309  11.871   6.161
 4997SOL    HW116823  14.354  11.829   6.233
 4997SOL    HW216824  14.355  11.954   6.149
 4998SOL     OW16825   9.031   0.161   9.347
 4998SOL    HW116826   9.101   0.101   9.372
 4998SOL    HW216827   9.055   0.191   9.259
 4999SOL     OW16828  11.565  12.646  11.004
 4999SOL    HW116829  11.619  12.660  11.082
 4999SOL    HW216830  11.607  12.698  10.936
 5000SOL     OW16831  11.479   1.600   0.903
 5000SOL    HW116832  11.446   1.550   0.828
 5000SOL    HW216833  11.571   1.573   0.911
 5001SOL     OW16834   5.162  14.080   7.050
 5001SOL    HW116835   5.163  14.176   7.055
 5001SOL    HW216836   5.083  14.055   7.097
 5002SOL     OW16837   5.173  12.573  12.278
 5002SOL    HW116838   5.105  12.610  12.221
 5002SOL    HW216839   5.255  12.594  12.234
 5003SOL     OW16840   8.425   7.742   6.453
 5003SOL    HW116841   8.397   7.668   6.399
 5003SOL    HW216842   8.411   7.819   6.397
 5004SOL     OW16843  11.451   9.333   5.267
 5004SOL    HW116844  11.400   9.412   5.284
 5004SOL    HW216845  11.397   9.282   5.206
 5005SOL     OW16846  12.519   9.363   4.907
 5005SOL    HW116847  12.581   9.425   4.869
 5005SOL    HW216848  12.572   9.304   4.961
 5006SOL     OW16849   2.366   2.098  10.547
 5006SOL    HW116850   2.293   2.056  10.500
 5006SOL    HW216851   2.433   2.111  10.480
 5007SOL     OW16852   8.477   0.114  13.708
 5007SOL    HW116853   8.481   0.037  13.765
 5007SOL    HW216854   8.550   0.103  13.648
 5008SOL     OW16855   5.279   1.468   4.267
 5008SOL    HW116856   5.290   1.475   4.362
 5008SOL    HW216857   5.342   1.529   4.230
 5009SOL     OW16858  10.016  12.497   1.299
 5009SOL    HW116859  10.041  12.528   1.212
 5009SOL    HW216860  10.093  12.449   1.330
 5010SOL     OW16861  14.382  13.724   2.512
 5010SOL    HW116862  14.299  13.740   2.468
 5010SOL    HW216863  14.360  13.664   2.583
 5011SOL     OW16864   1.960   8.987   5.384
 5011SOL    HW116865   1.986   8.951   5.469
 5011SOL    HW216866   2.014   9.066   5.375
 5012SOL     OW16867   2.887   3.423   1.522
 5012SOL    HW116868   2.803   3.380   1.539
 5012SOL    HW216869   2.946   3.351   1.501
 5013SOL     OW16870   7.763  11.624  10.650
 5013SOL    HW116871   7.748  11.688  10.581
 5013SOL    HW216872   7.858  11.623  10.662
 5014SOL     OW16873   1.461   7.489   2.541
 5014SOL    HW116874   1.370   7.462   2.544
 5014SOL    HW216875   1.490   7.485   2.633
 5015SOL     OW16876   7.206   5.773   5.121
 5015SOL    HW116877   7.123   5.747   5.161
 5015SOL    HW216878   7.266   5.785   5.195
 5016SOL     OW16879   4.326   2.710   1.462
 5016SOL    HW116880   4.289   2.661   1.388
 5016SOL    HW216881   4.328   2.800   1.432
 5017SOL     OW16882   1.171  11.248  10.999
 5017SOL    HW116883   1.155  11.266  10.906
 5017SOL    HW216884   1.264  11.265  11.010
 5018SOL     OW16885  10.051   2.696  14.480
 5018SOL    HW116886  10.063   2.602  14.490
 5018SOL    HW216887  10.139   2.732  14.486
 5019SOL     OW16888  10.607  14.819   4.165
 5019SOL    HW116889  10.531  14.803   4.220
 5019SOL    HW216890  10.604  14.751   4.098
 5020SOL     OW16891   9.562  12.732  11.073
 5020SOL    HW116892   9.524  12.647  11.052
 5020SOL    HW216893   9.590  12.768  10.989
 5021SOL     OW16894   1.824   3.085  13.641
 5021SOL    HW116895   1.760   3.026  13.601
 5021SOL    HW216896   1.905   3.071  13.592
 5022SOL     OW16897   9.286   5.005   5.862
 5022SOL    HW116898   9.379   5.022   5.845
 5022SOL    HW216899   9.260   5.075   5.922
 5023SOL     OW16900   3.072   9.390  13.001
 5023SOL    HW116901   3.036   9.466  12.956
 5023SOL    HW216902   3.147   9.364  12.948
 5024SOL     OW16903  12.599  12.230  14.654
 5024SOL    HW116904  12.564  12.214  14.566
 5024SOL    HW216905  12.563  12.161  14.708
 5025SOL     OW16906   7.571  11.438  11.515
 5025SOL    HW116907   7.642  11.439  11.451
 5025SOL    HW216908   7.519  11.516  11.495
 5026SOL     OW16909   1.031   3.813  11.385
 5026SOL    HW116910   0.994   3.886  11.336
 5026SOL    HW216911   1.023   3.839  11.477
 5027SOL     OW16912  10.551   7.787   8.575
 5027SOL    HW116913  10.457   7.803   8.584
 5027SOL    HW216914  10.585   7.867   8.535
 5028SOL     OW16915  10.955  13.457   5.341
 5028SOL    HW116916  10.865  13.469   5.310
 5028SOL    HW216917  10.948  13.467   5.436
 5029SOL     OW16918  12.324   9.662   3.662
 5029SOL    HW116919  12.329   9.585   3.719
 5029SOL    HW216920  12.323   9.736   3.722
 5030SOL     OW16921   9.131   1.592  11.163
 5030SOL    HW116922   9.048   1.608  11.208
 5030SOL    HW216923   9.174   1.524  11.215
 5031SOL     OW16924  12.183   0.911   0.249
 5031SOL    HW116925  12.155   0.974   0.316
 5031SOL    HW216926  12.223   0.965   0.181
 5032SOL     OW16927   3.965   9.856   8.340
 5032SOL    HW116928   3.980   9.774   8.387
 5032SOL    HW216929   3.958   9.922   8.410
 5033SOL     OW16930   4.142   2.400  13.889
 5033SOL    HW116931   4.146   2.414  13.983
 5033SOL    HW216932   4.090   2.321  13.878
 5034SOL     OW16933  10.755   7.745  12.492
 5034SOL    HW116934  10.770   7.796  12.412
 5034SOL    HW216935  10.817   7.782  12.555
 5035SOL     OW16936   0.053   9.883   4.642
 5035SOL    HW116937   0.008   9.908   4.561
 5035SOL    HW216938   0.130   9.834   4.613
 5036SOL     OW16939   8.886   7.620  10.140
 5036SOL    HW116940   8.831   7.645  10.215
 5036SOL    HW216941   8.962   7.678  10.146
 5037SOL     OW16942   9.315   5.336   4.304
 5037SOL    HW116943   9.347   5.306   4.390
 5037SOL    HW216944   9.257   5.409   4.325
 5038SOL     OW16945   4.630   6.086  14.360
 5038SOL    HW116946   4.536   6.101  14.357
 5038SOL    HW216947   4.648   6.061  14.451
 5039SOL     OW16948  10.619  10.463  10.263
 5039SOL    HW116949  10.678  10.526  10.222
 5039SOL    HW216950  10.639  10.380  10.220
 5040SOL     OW16951   3.185   0.576   3.081
 5040SOL    HW116952   3.139   0.617   3.155
 5040SOL    HW216953   3.205   0.649   3.022
 5041SOL     OW16954   8.780  13.063  10.056
 5041SOL    HW116955   8.710  12.998  10.052
 5041SOL    HW216956   8.860  13.015  10.038
 5042SOL     OW16957   8.299   6.554  14.285
 5042SOL    HW116958   8.372   6.545  14.224
 5042SOL    HW216959   8.225   6.581  14.231
 5043SOL     OW16960   0.019   3.758   8.450
 5043SOL    HW116961   0.031   3.798   8.364
 5043SOL    HW216962   0.061   3.819   8.510
 5044SOL     OW16963  12.777  11.552   9.785
 5044SOL    HW116964  12.812  11.567   9.697
 5044SOL    HW216965  12.828  11.610   9.842
 5045SOL     OW16966  13.588   1.534   1.860
 5045SOL    HW116967  13.671   1.529   1.907
 5045SOL    HW216968  13.574   1.446   1.825
 5046SOL     OW16969  13.566  12.351  11.745
 5046SOL    HW116970  13.606  12.436  11.728
 5046SOL    HW216971  13.570  12.342  11.840
 5047SOL     OW16972   0.249  14.022   4.166
 5047SOL    HW116973   0.285  14.110   4.176
 5047SOL    HW216974   0.171  14.022   4.221
 5048SOL     OW16975   6.953  11.369  10.676
 5048SOL    HW116976   7.047  11.369  10.659
 5048SOL    HW216977   6.918  11.305  10.614
 5049SOL     OW16978   5.603  12.339   5.015
 5049SOL    HW116979   5.633  12.430   5.019
 5049SOL    HW216980   5.619  12.304   5.103
 5050SOL     OW16981   5.343  10.594  14.327
 5050SOL    HW116982   5.279  10.580  14.257
 5050SOL    HW216983   5.318  10.531  14.395
 5051SOL     OW16984  10.381  11.045   3.963
 5051SOL    HW116985  10.303  11.015   4.010
 5051SOL    HW216986  10.347  11.098   3.891
 5052SOL     OW16987   2.756   5.381  12.919
 5052SOL    HW116988   2.758   5.331  12.838
 5052SOL    HW216989   2.737   5.470  12.892
 5053SOL     OW16990   0.189   4.812   1.832
 5053SOL    HW116991   0.168   4.772   1.747
 5053SOL    HW216992   0.145   4.897   1.830
 5054SOL     OW16993   1.389  12.852  10.460
 5054SOL    HW116994   1.380  12.911  10.385
 5054SOL    HW216995   1.482  12.830  10.462
 5055SOL     OW16996   6.762  10.103   5.971
 5055SOL    HW116997   6.740  10.195   5.988
 5055SOL    HW216998   6.828  10.081   6.037
 5056SOL     OW16999  10.347  11.952   4.182
 5056SOL    HW117000  10.320  12.030   4.230
 5056SOL    HW217001  10.294  11.954   4.102
 5057SOL     OW17002   2.572   9.484   2.607
 5057SOL    HW117003   2.657   9.513   2.642
 5057SOL    HW217004   2.513   9.557   2.625
 5058SOL     OW17005   5.481   5.637   4.422
 5058SOL    HW117006   5.562   5.678   4.451
 5058SOL    HW217007   5.476   5.556   4.473
 5059SOL     OW17008   1.417  13.861  13.576
 5059SOL    HW117009   1.383  13.894  13.659
 5059SOL    HW217010   1.491  13.919  13.556
 5060SOL     OW17011   1.876   3.419   0.348
 5060SOL    HW117012   1.859   3.453   0.260
 5060SOL    HW217013   1.798   3.368   0.369
 5061SOL     OW17014   8.729   0.292   3.268
 5061SOL    HW117015   8.756   0.371   3.315
 5061SOL    HW217016   8.664   0.322   3.205
 5062SOL     OW17017   9.109  11.949   3.594
 5062SOL    HW117018   9.119  12.023   3.653
 5062SOL    HW217019   9.145  11.874   3.643
 5063SOL     OW17020  12.961   3.657   6.067
 5063SOL    HW117021  12.975   3.605   6.146
 5063SOL    HW217022  13.049   3.679   6.036
 5064SOL     OW17023   1.431   7.157   6.607
 5064SOL    HW117024   1.507   7.110   6.640
 5064SOL    HW217025   1.466   7.241   6.575
 5065SOL     OW17026   6.657   1.820  11.061
 5065SOL    HW117027   6.722   1.781  11.003
 5065SOL    HW217028   6.624   1.896  11.012
 5066SOL     OW17029   7.596   1.874  14.557
 5066SOL    HW117030   7.585   1.872  14.652
 5066SOL    HW217031   7.630   1.961  14.538
 5067SOL     OW17032   3.769   5.135   3.543
 5067SOL    HW117033   3.812   5.203   3.597
 5067SOL    HW217034   3.680   5.131   3.577
 5068SOL     OW17035   0.431  10.319   2.339
 5068SOL    HW117036   0.493  10.300   2.269
 5068SOL    HW217037   0.415  10.235   2.382
 5069SOL     OW17038   2.818   9.879   7.836
 5069SOL    HW117039   2.803   9.824   7.913
 5069SOL    HW217040   2.871   9.825   7.777
 5070SOL     OW17041   4.912   2.527  12.886
 5070SOL    HW117042   4.897   2.601  12.827
 5070SOL    HW217043   4.878   2.557  12.971
 5071SOL     OW17044   1.902  13.045   5.784
 5071SOL    HW117045   1.944  13.113   5.731
 5071SOL    HW217046   1.881  13.088   5.867
 5072SOL     OW17047   2.360   1.020   1.982
 5072SOL    HW117048   2.448   1.056   1.965
 5072SOL    HW217049   2.345   1.035   2.075
 5073SOL     OW17050   5.362  10.825   8.398
 5073SOL    HW117051   5.425  10.788   8.460
 5073SOL    HW217052   5.384  10.918   8.394
 5074SOL     OW17053   7.118   5.979   2.411
 5074SOL    HW117054   7.194   5.945   2.364
 5074SOL    HW217055   7.048   5.916   2.392
 5075SOL     OW17056   6.431   6.179   0.530
 5075SOL    HW117057   6.455   6.137   0.448
 5075SOL    HW217058   6.514   6.213   0.565
 5076SOL     OW17059   7.362   6.847  14.745
 5076SOL    HW117060   7.415   6.805  14.812
 5076SOL    HW217061   7.426   6.894  14.691
 5077SOL     OW17062   8.432  14.294   2.306
 5077SOL    HW117063   8.370  14.244   2.252
 5077SOL    HW217064   8.500  14.230   2.329
 5078SOL     OW17065   1.460   8.407   0.112
 5078SOL    HW117066   1.414   8.465   0.172
 5078SOL    HW217067   1.547   8.446   0.103
 5079SOL     OW17068   4.124  10.654   3.675
 5079SOL    HW117069   4.205  10.628   3.719
 5079SOL    HW217070   4.064  10.581   3.688
 5080SOL     OW17071   2.262  13.023   8.664
 5080SOL    HW117072   2.225  13.107   8.690
 5080SOL    HW217073   2.228  13.008   8.576
 5081SOL     OW17074   3.027   2.035  11.268
 5081SOL    HW117075   2.950   2.075  11.228
 5081SOL    HW217076   3.091   2.106  11.272
 5082SOL     OW17077   8.039   7.743   4.876
 5082SOL    HW117078   8.123   7.729   4.920
 5082SOL    HW217079   7.980   7.768   4.947
 5083SOL     OW17080   7.170   2.271  12.778
 5083SOL    HW117081   7.185   2.192  12.830
 5083SOL    HW217082   7.255   2.315  12.776
 5084SOL     OW17083  13.278  14.457   5.063
 5084SOL    HW117084  13.328  14.427   4.987
 5084SOL    HW217085  13.199  14.403   5.062
 5085SOL     OW17086   6.333   3.269  10.790
 5085SOL    HW117087   6.394   3.217  10.738
 5085SOL    HW217088   6.351   3.360  10.766
 5086SOL     OW17089   3.976   9.654   3.428
 5086SOL    HW117090   4.060   9.625   3.395
 5086SOL    HW217091   3.920   9.577   3.423
 5087SOL     OW17092   6.904   8.553   6.772
 5087SOL    HW117093   6.960   8.476   6.762
 5087SOL    HW217094   6.929   8.590   6.856
 5088SOL     OW17095   7.159  11.314   9.942
 5088SOL    HW117096   7.156  11.390  10.000
 5088SOL    HW217097   7.182  11.351   9.857
 5089SOL     OW17098   3.361   5.846  13.145
 5089SOL    HW117099   3.418   5.900  13.090
 5089SOL    HW217100   3.338   5.772  13.089
 5090SOL     OW17101   0.990   4.722   7.975
 5090SOL    HW117102   0.961   4.762   7.893
 5090SOL    HW217103   1.047   4.650   7.948
 5091SOL     OW17104   1.497   6.162   6.451
 5091SOL    HW117105   1.465   6.072   6.456
 5091SOL    HW217106   1.430   6.209   6.400
 5092SOL     OW17107   1.844  12.435  14.474
 5092SOL    HW117108   1.779  12.435  14.544
 5092SOL    HW217109   1.793  12.434  14.393
 5093SOL     OW17110   7.677   0.290  11.679
 5093SOL    HW117111   7.627   0.209  11.666
 5093SOL    HW217112   7.616   0.360  11.659
 5094SOL     OW17113   9.157   1.643   8.854
 5094SOL    HW117114   9.093   1.610   8.916
 5094SOL    HW217115   9.117   1.630   8.768
 5095SOL     OW17116   1.306   1.663   7.097
 5095SOL    HW117117   1.318   1.749   7.058
 5095SOL    HW217118   1.336   1.602   7.030
 5096SOL     OW17119   6.787  14.400  11.517
 5096SOL    HW117120   6.778  14.318  11.469
 5096SOL    HW217121   6.876  14.429  11.498
 5097SOL     OW17122   6.263   4.472  12.535
 5097SOL    HW117123   6.341   4.524  12.555
 5097SOL    HW217124   6.237   4.500  12.447
 5098SOL     OW17125   6.179   0.931   6.115
 5098SOL    HW117126   6.201   1.004   6.173
 5098SOL    HW217127   6.145   0.973   6.035
 5099SOL     OW17128  13.375  10.815   8.368
 5099SOL    HW117129  13.452  10.869   8.351
 5099SOL    HW217130  13.329  10.812   8.284
 5100SOL     OW17131   4.680   3.904   0.072
 5100SOL    HW117132   4.722   3.836   0.124
 5100SOL    HW217133   4.647   3.967   0.136
 5101SOL     OW17134  11.860  12.071   1.013
 5101SOL    HW117135  11.842  12.143   0.952
 5101SOL    HW217136  11.794  12.005   0.992
 5102SOL     OW17137   0.892  13.820   8.997
 5102SOL    HW117138   0.937  13.881   9.056
 5102SOL    HW217139   0.957  13.753   8.978
 5103SOL     OW17140   9.857   7.117   2.027
 5103SOL    HW117141   9.819   7.063   2.095
 5103SOL    HW217142   9.788   7.179   2.004
 5104SOL     OW17143  14.155  11.022   2.897
 5104SOL    HW117144  14.132  10.933   2.923
 5104SOL    HW217145  14.085  11.048   2.838
 5105SOL     OW17146   6.638   2.141   8.020
 5105SOL    HW117147   6.628   2.154   8.114
 5105SOL    HW217148   6.551   2.159   7.984
 5106SOL     OW17149   0.308   4.087   3.274
 5106SOL    HW117150   0.355   4.087   3.358
 5106SOL    HW217151   0.272   3.998   3.267
 5107SOL     OW17152   5.420   1.695   5.160
 5107SOL    HW117153   5.449   1.613   5.199
 5107SOL    HW217154   5.381   1.670   5.076
 5108SOL     OW17155   2.361   4.803   0.291
 5108SOL    HW117156   2.316   4.764   0.216
 5108SOL    HW217157   2.431   4.855   0.252
 5109SOL     OW17158  11.034   6.471  10.468
 5109SOL    HW117159  10.941   6.464  10.492
 5109SOL    HW217160  11.045   6.408  10.397
 5110SOL     OW17161   2.694   5.155   1.569
 5110SOL    HW117162   2.738   5.220   1.514
 5110SOL    HW217163   2.631   5.113   1.511
 5111SOL     OW17164   7.516   4.662  12.854
 5111SOL    HW117165   7.477   4.576  12.869
 5111SOL    HW217166   7.497   4.681  12.762
 5112SOL     OW17167   0.225  12.179   0.223
 5112SOL    HW117168   0.306  12.170   0.273
 5112SOL    HW217169   0.159  12.134   0.275
 5113SOL     OW17170   1.586   6.120   1.952
 5113SOL    HW117171   1.675   6.150   1.931
 5113SOL    HW217172   1.557   6.075   1.873
 5114SOL     OW17173  14.408   6.151   9.483
 5114SOL    HW117174  14.359   6.075   9.513
 5114SOL    HW217175  14.388   6.219   9.548
 5115SOL     OW17176   5.314   6.886  11.710
 5115SOL    HW117177   5.306   6.797  11.677
 5115SOL    HW217178   5.232   6.901  11.757
 5116SOL     OW17179  14.356   5.818   2.549
 5116SOL    HW117180  14.364   5.772   2.466
 5116SOL    HW217181  14.278   5.872   2.539
 5117SOL     OW17182  13.682   6.877   0.299
 5117SOL    HW117183  13.603   6.920   0.332
 5117SOL    HW217184  13.755   6.925   0.339
 5118SOL     OW17185   6.779   2.359   6.309
 5118SOL    HW117186   6.750   2.393   6.225
 5118SOL    HW217187   6.705   2.372   6.368
 5119SOL     OW17188  14.707   1.423   1.298
 5119SOL    HW117189  14.738   1.355   1.239
 5119SOL    HW217190  14.716   1.385   1.386
 5120SOL     OW17191   5.977  13.146   1.196
 5120SOL    HW117192   6.022  13.171   1.276
 5120SOL    HW217193   6.021  13.195   1.127
 5121SOL     OW17194  14.475  12.458  10.684
 5121SOL    HW117195  14.482  12.420  10.772
 5121SOL    HW217196  14.523  12.540  10.689
 5122SOL     OW17197   2.102   7.292   7.497
 5122SOL    HW117198   2.193   7.318   7.486
 5122SOL    HW217199   2.052   7.372   7.479
 5123SOL     OW17200   3.595   4.060   8.084
 5123SOL    HW117201   3.610   4.095   8.172
 5123SOL    HW217202   3.584   4.138   8.029
 5124SOL     OW17203   2.385   1.372  13.714
 5124SOL    HW117204   2.355   1.362  13.805
 5124SOL    HW217205   2.420   1.461  13.710
 5125SOL     OW17206   2.427  14.328   5.320
 5125SOL    HW117207   2.500  14.266   5.325
 5125SOL    HW217208   2.374  14.309   5.397
 5126SOL     OW17209  14.617   3.941   5.835
 5126SOL    HW117210  14.692   3.889   5.805
 5126SOL    HW217211  14.571   3.883   5.895
 5127SOL     OW17212   5.149  12.953   0.176
 5127SOL    HW117213   5.126  13.043   0.156
 5127SOL    HW217214   5.084  12.924   0.239
 5128SOL     OW17215   3.279   6.306  10.941
 5128SOL    HW117216   3.260   6.332  10.851
 5128SOL    HW217217   3.215   6.353  10.994
 5129SOL     OW17218   5.274   1.277   4.644
 5129SOL    HW117219   5.354   1.325   4.622
 5129SOL    HW217220   5.300   1.185   4.641
 5130SOL     OW17221  10.982   6.757  14.012
 5130SOL    HW117222  11.004   6.836  13.962
 5130SOL    HW217223  11.058   6.743  14.068
 5131SOL     OW17224   8.265   8.270   3.631
 5131SOL    HW117225   8.246   8.283   3.724
 5131SOL    HW217226   8.293   8.356   3.600
 5132SOL     OW17227   9.933   5.370   3.813
 5132SOL    HW117228   9.924   5.400   3.722
 5132SOL    HW217229   9.868   5.422   3.861
 5133SOL     OW17230  11.671   1.915  13.844
 5133SOL    HW117231  11.701   1.824  13.833
 5133SOL    HW217232  11.677   1.952  13.756
 5134SOL     OW17233   1.780   1.211   2.131
 5134SOL    HW117234   1.868   1.248   2.124
 5134SOL    HW217235   1.741   1.224   2.044
 5135SOL     OW17236  11.888   5.365   9.809
 5135SOL    HW117237  11.853   5.332   9.726
 5135SOL    HW217238  11.835   5.322   9.876
 5136SOL     OW17239  10.229   8.331   0.577
 5136SOL    HW117240  10.322   8.328   0.554
 5136SOL    HW217241  10.203   8.422   0.560
 5137SOL     OW17242  10.735   2.839   4.985
 5137SOL    HW117243  10.742   2.743   4.985
 5137SOL    HW217244  10.803   2.868   5.046
 5138SOL     OW17245  11.782  14.388  11.995
 5138SOL    HW117246  11.758  14.353  12.081
 5138SOL    HW217247  11.767  14.315  11.935
 5139SOL     OW17248   8.846   2.056  11.352
 5139SOL    HW117249   8.899   2.071  11.274
 5139SOL    HW217250   8.902   2.085  11.425
 5140SOL     OW17251  11.828  10.056   0.737
 5140SOL    HW117252  11.826  10.011   0.652
 5140SOL    HW217253  11.889  10.128   0.725
 5141SOL     OW17254  14.399  11.734   4.069
 5141SOL    HW117255  14.425  11.704   3.982
 5141SOL    HW217256  14.479  11.771   4.106
 5142SOL     OW17257   9.806   0.050   0.513
 5142SOL    HW117258   9.766   0.093   0.437
 5142SOL    HW217259   9.790   0.110   0.586
 5143SOL     OW17260   5.897  12.745   4.109
 5143SOL    HW117261   5.967  12.681   4.123
 5143SOL    HW217262   5.885  12.787   4.194
 5144SOL     OW17263   0.504   7.031   2.485
 5144SOL    HW117264   0.537   6.986   2.563
 5144SOL    HW217265   0.409   7.026   2.493
 5145SOL     OW17266   7.560   0.235   7.236
 5145SOL    HW117267   7.580   0.167   7.301
 5145SOL    HW217268   7.499   0.193   7.176
 5146SOL     OW17269  13.737   2.946  13.569
 5146SOL    HW117270  13.812   2.987  13.527
 5146SOL    HW217271  13.685   2.911  13.496
 5147SOL     OW17272  12.272   3.762   2.688
 5147SOL    HW117273  12.298   3.689   2.631
 5147SOL    HW217274  12.355   3.798   2.719
 5148SOL     OW17275  10.437   3.824   6.970
 5148SOL    HW117276  10.349   3.862   6.971
 5148SOL    HW217277  10.485   3.874   7.036
 5149SOL     OW17278  13.001   1.704   4.654
 5149SOL    HW117279  12.958   1.738   4.732
 5149SOL    HW217280  12.978   1.766   4.585
 5150SOL     OW17281  12.754   2.814  11.245
 5150SOL    HW117282  12.814   2.743  11.223
 5150SOL    HW217283  12.790   2.891  11.201
 5151SOL     OW17284   0.207   3.541   9.394
 5151SOL    HW117285   0.281   3.573   9.342
 5151SOL    HW217286   0.134   3.541   9.333
 5152SOL     OW17287   6.041   3.619   0.644
 5152SOL    HW117288   5.954   3.582   0.630
 5152SOL    HW217289   6.029   3.683   0.714
 5153SOL     OW17290   7.462   4.035   8.240
 5153SOL    HW117291   7.537   4.007   8.188
 5153SOL    HW217292   7.436   3.956   8.289
 5154SOL     OW17293  10.369   0.314   6.174
 5154SOL    HW117294  10.390   0.224   6.152
 5154SOL    HW217295  10.404   0.365   6.101
 5155SOL     OW17296   9.082   5.785   9.903
 5155SOL    HW117297   8.996   5.758   9.872
 5155SOL    HW217298   9.125   5.820   9.825
 5156SOL     OW17299  13.026  10.702   5.130
 5156SOL    HW117300  13.046  10.737   5.218
 5156SOL    HW217301  12.935  10.675   5.135
 5157SOL     OW17302   3.768   2.080   1.565
 5157SOL    HW117303   3.728   1.995   1.583
 5157SOL    HW217304   3.699   2.130   1.521
 5158SOL     OW17305  13.468   3.013   2.416
 5158SOL    HW117306  13.414   2.942   2.382
 5158SOL    HW217307  13.550   2.970   2.443
 5159SOL     OW17308   0.678   6.545   6.191
 5159SOL    HW117309   0.727   6.468   6.220
 5159SOL    HW217310   0.676   6.602   6.268
 5160SOL     OW17311   5.710  13.500  10.472
 5160SOL    HW117312   5.674  13.423  10.514
 5160SOL    HW217313   5.801  13.476  10.452
 5161SOL     OW17314   0.315  12.642  12.697
 5161SOL    HW117315   0.372  12.603  12.630
 5161SOL    HW217316   0.244  12.681  12.647
 5162SOL     OW17317   1.858   0.879   1.941
 5162SOL    HW117318   1.854   0.809   2.007
 5162SOL    HW217319   1.910   0.948   1.983
 5163SOL     OW17320  12.046   1.026  10.678
 5163SOL    HW117321  12.114   0.959  10.683
 5163SOL    HW217322  11.964   0.977  10.680
 5164SOL     OW17323   0.541   7.372  12.403
 5164SOL    HW117324   0.467   7.431  12.417
 5164SOL    HW217325   0.589   7.410  12.330
 5165SOL     OW17326  11.691   4.380  13.394
 5165SOL    HW117327  11.754   4.390  13.322
 5165SOL    HW217328  11.717   4.300  13.438
 5166SOL     OW17329   4.079   4.064   0.755
 5166SOL    HW117330   4.005   4.024   0.799
 5166SOL    HW217331   4.156   4.019   0.791
 5167SOL     OW17332   8.875   5.644   6.952
 5167SOL    HW117333   8.951   5.592   6.928
 5167SOL    HW217334   8.888   5.727   6.906
 5168SOL     OW17335   3.242   6.274  12.024
 5168SOL    HW117336   3.268   6.286  12.116
 5168SOL    HW217337   3.269   6.185  12.003
 5169SOL     OW17338  12.077   1.752   1.355
 5169SOL    HW117339  12.159   1.802   1.351
 5169SOL    HW217340  12.008   1.819   1.361
 5170SOL     OW17341  13.290   8.602  11.094
 5170SOL    HW117342  13.286   8.508  11.080
 5170SOL    HW217343  13.359   8.613  11.160
 5171SOL     OW17344  11.897   5.609   5.403
 5171SOL    HW117345  11.984   5.592   5.366
 5171SOL    HW217346  11.884   5.538   5.467
 5172SOL     OW17347  14.246   0.825  10.229
 5172SOL    HW117348  14.205   0.850  10.312
 5172SOL    HW217349  14.180   0.847  10.163
 5173SOL     OW17350  12.663   5.246  14.762
 5173SOL    HW117351  12.709   5.308  14.705
 5173SOL    HW217352  12.689   5.271  14.850
 5174SOL     OW17353   8.505   4.723   3.965
 5174SOL    HW117354   8.490   4.678   3.882
 5174SOL    HW217355   8.513   4.653   4.029
 5175SOL     OW17356  10.258  12.938   0.643
 5175SOL    HW117357  10.242  13.033   0.639
 5175SOL    HW217358  10.288  12.915   0.555
 5176SOL     OW17359   5.263   4.569   8.582
 5176SOL    HW117360   5.264   4.492   8.524
 5176SOL    HW217361   5.174   4.603   8.575
 5177SOL     OW17362  12.790   6.865   9.944
 5177SOL    HW117363  12.793   6.960   9.960
 5177SOL    HW217364  12.799   6.856   9.849
 5178SOL     OW17365  14.784  11.709   7.251
 5178SOL    HW117366  14.708  11.752   7.211
 5178SOL    HW217367  14.845  11.780   7.270
 5179SOL     OW17368   4.107   4.981   9.602
 5179SOL    HW117369   4.033   5.040   9.613
 5179SOL    HW217370   4.172   5.032   9.554
 5180SOL     OW17371   7.377  13.864   8.276
 5180SOL    HW117372   7.437  13.789   8.275
 5180SOL    HW217373   7.415  13.924   8.341
 5181SOL     OW17374   2.532   5.395   4.171
 5181SOL    HW117375   2.534   5.490   4.173
 5181SOL    HW217376   2.497   5.369   4.256
 5182SOL     OW17377   7.146   1.813   5.737
 5182SOL    HW117378   7.145   1.851   5.825
 5182SOL    HW217379   7.211   1.865   5.689
 5183SOL     OW17380   9.412   2.864   4.989
 5183SOL    HW117381   9.345   2.796   4.976
 5183SOL    HW217382   9.363   2.945   4.999
 5184SOL     OW17383   7.897   7.325   9.222
 5184SOL    HW117384   7.989   7.312   9.196
 5184SOL    HW217385   7.860   7.237   9.226
 5185SOL     OW17386  14.430   9.034   7.448
 5185SOL    HW117387  14.374   9.084   7.389
 5185SOL    HW217388  14.500   8.999   7.391
 5186SOL     OW17389   0.662  11.380  10.760
 5186SOL    HW117390   0.663  11.409  10.852
 5186SOL    HW217391   0.600  11.439  10.718
 5187SOL     OW17392   0.991  14.693   1.960
 5187SOL    HW117393   0.946  14.611   1.939
 5187SOL    HW217394   1.001  14.737   1.876
 5188SOL     OW17395  10.609  14.672   6.324
 5188SOL    HW117396  10.703  14.665   6.306
 5188SOL    HW217397  10.596  14.623   6.405
 5189SOL     OW17398   0.056  11.708  10.852
 5189SOL    HW117399   0.061  11.786  10.797
 5189SOL    HW217400   0.114  11.727  10.925
 5190SOL     OW17401   2.546   8.397  11.379
 5190SOL    HW117402   2.500   8.478  11.357
 5190SOL    HW217403   2.629   8.426  11.417
 5191SOL     OW17404   6.280  12.561   4.721
 5191SOL    HW117405   6.291  12.640   4.774
 5191SOL    HW217406   6.279  12.490   4.785
 5192SOL     OW17407  11.702   0.032   0.304
 5192SOL    HW117408  11.731   0.056   0.216
 5192SOL    HW217409  11.762  14.844   0.331
 5193SOL     OW17410   9.968  10.734  11.451
 5193SOL    HW117411   9.977  10.739  11.355
 5193SOL    HW217412   9.887  10.684  11.464
 5194SOL     OW17413  13.829  14.804  11.753
 5194SOL    HW117414  13.869  14.719  11.736
 5194SOL    HW217415  13.741  14.783  11.785
 5195SOL     OW17416   9.288  14.309   7.429
 5195SOL    HW117417   9.295  14.270   7.342
 5195SOL    HW217418   9.359  14.268   7.479
 5196SOL     OW17419   5.618  11.451   7.815
 5196SOL    HW117420   5.550  11.385   7.820
 5196SOL    HW217421   5.637  11.473   7.907
 5197SOL     OW17422   9.798   2.655   2.314
 5197SOL    HW117423   9.802   2.709   2.393
 5197SOL    HW217424   9.805   2.565   2.346
 5198SOL     OW17425  12.581   8.625   9.309
 5198SOL    HW117426  12.677   8.629   9.312
 5198SOL    HW217427  12.558   8.562   9.377
 5199SOL     OW17428   3.564   2.565   1.184
 5199SOL    HW117429   3.605   2.632   1.239
 5199SOL    HW217430   3.636   2.525   1.136
 5200SOL     OW17431  10.493   9.523   8.302
 5200SOL    HW117432  10.452   9.446   8.340
 5200SOL    HW217433  10.503   9.584   8.375
 5201SOL     OW17434   3.153   7.243   4.973
 5201SOL    HW117435   3.240   7.250   5.012
 5201SOL    HW217436   3.142   7.324   4.924
 5202SOL     OW17437   6.509   7.716  11.438
 5202SOL    HW117438   6.579   7.732  11.502
 5202SOL    HW217439   6.430   7.748  11.480
 5203SOL     OW17440  12.733   8.620   7.213
 5203SOL    HW117441  12.800   8.553   7.200
 5203SOL    HW217442  12.750   8.684   7.144
 5204SOL     OW17443   1.103   5.958   0.909
 5204SOL    HW117444   1.026   5.959   0.853
 5204SOL    HW217445   1.073   5.991   0.993
 5205SOL     OW17446   0.234  12.704   2.677
 5205SOL    HW117447   0.224  12.790   2.716
 5205SOL    HW217448   0.147  12.681   2.645
 5206SOL     OW17449   8.058   8.348  12.605
 5206SOL    HW117450   8.085   8.262  12.572
 5206SOL    HW217451   8.034   8.333  12.696
 5207SOL     OW17452   8.948   0.575   1.458
 5207SOL    HW117453   8.908   0.521   1.390
 5207SOL    HW217454   8.962   0.661   1.416
 5208SOL     OW17455   3.403   1.097   5.065
 5208SOL    HW117456   3.332   1.152   5.034
 5208SOL    HW217457   3.385   1.011   5.027
 5209SOL     OW17458   2.566  14.152  13.776
 5209SOL    HW117459   2.631  14.102  13.726
 5209SOL    HW217460   2.599  14.242  13.773
 5210SOL     OW17461   6.200   1.327   9.583
 5210SOL    HW117462   6.213   1.373   9.500
 5210SOL    HW217463   6.139   1.382   9.631
 5211SOL     OW17464   3.813  13.933   3.179
 5211SOL    HW117465   3.859  13.888   3.107
 5211SOL    HW217466   3.733  13.882   3.191
 5212SOL     OW17467  11.461   3.099  12.561
 5212SOL    HW117468  11.514   3.058  12.494
 5212SOL    HW217469  11.480   3.050  12.641
 5213SOL     OW17470   0.683   0.873   0.522
 5213SOL    HW117471   0.711   0.913   0.440
 5213SOL    HW217472   0.673   0.947   0.582
 5214SOL     OW17473  13.703   6.589   6.343
 5214SOL    HW117474  13.756   6.591   6.422
 5214SOL    HW217475  13.672   6.498   6.336
 5215SOL     OW17476  14.672   5.080  12.934
 5215SOL    HW117477  14.760   5.050  12.957
 5215SOL    HW217478  14.633   5.106  13.017
 5216SOL     OW17479   3.476   3.443   2.721
 5216SOL    HW117480   3.473   3.455   2.626
 5216SOL    HW217481   3.567   3.420   2.740
 5217SOL     OW17482   5.854   5.974  12.193
 5217SOL    HW117483   5.784   5.985  12.257
 5217SOL    HW217484   5.925   5.932  12.242
 5218SOL     OW17485   5.558   8.611   8.467
 5218SOL    HW117486   5.650   8.629   8.484
 5218SOL    HW217487   5.548   8.517   8.486
 5219SOL     OW17488  10.948   0.127   9.061
 5219SOL    HW117489  10.989   0.165   9.139
 5219SOL    HW217490  10.862   0.169   9.057
 5220SOL     OW17491   5.316   4.542   3.083
 5220SOL    HW117492   5.329   4.590   3.165
 5220SOL    HW217493   5.230   4.501   3.094
 5221SOL     OW17494  12.070  10.475  14.311
 5221SOL    HW117495  11.998  10.505  14.366
 5221SOL    HW217496  12.148  10.513  14.351
 5222SOL     OW17497  13.041   4.787   8.763
 5222SOL    HW117498  13.116   4.823   8.811
 5222SOL    HW217499  12.977   4.765   8.830
 5223SOL     OW17500   6.075   0.163   8.301
 5223SOL    HW117501   6.027   0.195   8.378
 5223SOL    HW217502   6.007   0.134   8.240
 5224SOL     OW17503   6.500   8.420   4.459
 5224SOL    HW117504   6.525   8.335   4.496
 5224SOL    HW217505   6.517   8.482   4.529
 5225SOL     OW17506   4.063   1.628   6.418
 5225SOL    HW117507   4.018   1.602   6.498
 5225SOL    HW217508   4.154   1.640   6.444
 5226SOL     OW17509   4.287  12.696   0.755
 5226SOL    HW117510   4.378  12.674   0.737
 5226SOL    HW217511   4.291  12.773   0.812
 5227SOL     OW17512  10.153  14.123  10.513
 5227SOL    HW117513  10.120  14.185  10.577
 5227SOL    HW217514  10.106  14.144  10.432
 5228SOL     OW17515   7.312  12.200   3.126
 5228SOL    HW117516   7.301  12.279   3.179
 5228SOL    HW217517   7.399  12.168   3.148
 5229SOL     OW17518   6.678   2.010  10.168
 5229SOL    HW117519   6.762   2.021  10.122
 5229SOL    HW217520   6.697   1.947  10.237
 5230SOL     OW17521   8.635  14.580   8.582
 5230SOL    HW117522   8.543  14.555   8.583
 5230SOL    HW217523   8.643  14.639   8.506
 5231SOL     OW17524   8.224   6.830   0.991
 5231SOL    HW117525   8.317   6.855   0.991
 5231SOL    HW217526   8.187   6.879   0.918
 5232SOL     OW17527   4.431  10.282  11.929
 5232SOL    HW117528   4.500  10.326  11.879
 5232SOL    HW217529   4.378  10.237  11.862
 5233SOL     OW17530   5.552   1.707   7.846
 5233SOL    HW117531   5.644   1.688   7.827
 5233SOL    HW217532   5.533   1.787   7.796
 5234SOL     OW17533  13.647   9.103  12.733
 5234SOL    HW117534  13.585   9.104  12.805
 5234SOL    HW217535  13.715   9.041  12.760
 5235SOL     OW17536   9.986  12.030   1.223
 5235SOL    HW117537  10.074  12.037   1.259
 5235SOL    HW217538   9.930  12.071   1.289
 5236SOL     OW17539  12.972   1.868   6.050
 5236SOL    HW117540  12.985   1.812   5.973
 5236SOL    HW217541  12.979   1.808   6.124
 5237SOL     OW17542   1.634   0.498   1.270
 5237SOL    HW117543   1.667   0.434   1.208
 5237SOL    HW217544   1.705   0.509   1.333
 5238SOL     OW17545   4.791  12.123   2.932
 5238SOL    HW117546   4.701  12.109   2.904
 5238SOL    HW217547   4.816  12.040   2.974
 5239SOL     OW17548  12.104   5.969   1.070
 5239SOL    HW117549  12.193   5.934   1.080
 5239SOL    HW217550  12.101   6.002   0.980
 5240SOL     OW17551  12.829   0.446   5.430
 5240SOL    HW117552  12.853   0.357   5.403
 5240SOL    HW217553  12.835   0.443   5.526
 5241SOL     OW17554   0.273   7.519   3.323
 5241SOL    HW117555   0.300   7.530   3.414
 5241SOL    HW217556   0.282   7.607   3.285
 5242SOL     OW17557  14.431   4.013   8.099
 5242SOL    HW117558  14.439   4.104   8.127
 5242SOL    HW217559  14.483   4.008   8.019
 5243SOL     OW17560   7.623  14.239  14.838
 5243SOL    HW117561   7.583  14.223  14.753
 5243SOL    HW217562   7.549  14.265   0.012
 5244SOL     OW17563   5.558  12.470   0.948
 5244SOL    HW117564   5.563  12.394   1.006
 5244SOL    HW217565   5.649  12.499   0.939
 5245SOL     OW17566  10.798  13.408   2.207
 5245SOL    HW117567  10.879  13.385   2.252
 5245SOL    HW217568  10.780  13.334   2.149
 5246SOL     OW17569  10.104   8.445  10.719
 5246SOL    HW117570  10.101   8.359  10.677
 5246SOL    HW217571  10.120   8.506  10.647
 5247SOL     OW17572   5.736  13.032   5.055
 5247SOL    HW117573   5.712  13.125   5.061
 5247SOL    HW217574   5.739  13.002   5.145
 5248SOL     OW17575  13.761  10.381   7.017
 5248SOL    HW117576  13.680  10.428   6.996
 5248SOL    HW217577  13.751  10.297   6.973
 5249SOL     OW17578   8.415   7.850  14.821
 5249SOL    HW117579   8.433   7.762  14.787
 5249SOL    HW217580   8.393   7.902  14.743
 5250SOL     OW17581   0.770  13.231  12.555
 5250SOL    HW117582   0.783  13.144  12.593
 5250SOL    HW217583   0.677  13.250  12.571
 5251SOL     OW17584   9.004   4.391   8.050
 5251SOL    HW117585   8.917   4.385   8.009
 5251SOL    HW217586   9.031   4.300   8.064
 5252SOL     OW17587   5.346   8.077  12.236
 5252SOL    HW117588   5.275   8.038  12.186
 5252SOL    HW217589   5.321   8.064  12.328
 5253SOL     OW17590  13.062  14.861  12.403
 5253SOL    HW117591  13.042  14.779  12.358
 5253SOL    HW217592  13.153  14.853  12.429
 5254SOL     OW17593   9.474  14.076  10.613
 5254SOL    HW117594   9.438  14.025  10.686
 5254SOL    HW217595   9.454  14.167  10.634
 5255SOL     OW17596   7.568   7.040  14.594
 5255SOL    HW117597   7.571   7.108  14.527
 5255SOL    HW217598   7.628   7.070  14.662
 5256SOL     OW17599   1.638   5.734   9.529
 5256SOL    HW117600   1.558   5.689   9.557
 5256SOL    HW217601   1.668   5.684   9.453
 5257SOL     OW17602  10.821   3.115   9.022
 5257SOL    HW117603  10.778   3.194   8.988
 5257SOL    HW217604  10.762   3.044   9.000
 5258SOL     OW17605   0.545  10.856  13.979
 5258SOL    HW117606   0.500  10.781  13.940
 5258SOL    HW217607   0.480  10.927  13.978
 5259SOL     OW17608  11.361   3.423  13.079
 5259SOL    HW117609  11.378   3.421  12.985
 5259SOL    HW217610  11.447   3.410  13.119
 5260SOL     OW17611   8.759   3.752   7.739
 5260SOL    HW117612   8.712   3.669   7.742
 5260SOL    HW217613   8.851   3.727   7.726
 5261SOL     OW17614   2.027   7.048   4.514
 5261SOL    HW117615   2.114   7.082   4.537
 5261SOL    HW217616   2.028   6.957   4.543
 5262SOL     OW17617  11.511   0.120   6.782
 5262SOL    HW117618  11.480   0.157   6.699
 5262SOL    HW217619  11.446   0.149   6.847
 5263SOL     OW17620   4.206  11.699  13.555
 5263SOL    HW117621   4.162  11.713  13.471
 5263SOL    HW217622   4.140  11.656  13.609
 5264SOL     OW17623   2.082   8.101   8.385
 5264SOL    HW117624   2.138   8.109   8.462
 5264SOL    HW217625   2.009   8.161   8.402
 5265SOL     OW17626   0.918  10.507   8.787
 5265SOL    HW117627   0.833  10.482   8.750
 5265SOL    HW217628   0.979  10.442   8.752
 5266SOL     OW17629   1.397  12.443  12.511
 5266SOL    HW117630   1.307  12.476  12.512
 5266SOL    HW217631   1.438  12.482  12.589
 5267SOL     OW17632  12.804   1.866  11.213
 5267SOL    HW117633  12.779   1.890  11.123
 5267SOL    HW217634  12.892   1.901  11.224
 5268SOL     OW17635   0.513  14.392   2.049
 5268SOL    HW117636   0.528  14.451   2.123
 5268SOL    HW217637   0.583  14.327   2.056
 5269SOL     OW17638   0.325  10.845   4.546
 5269SOL    HW117639   0.315  10.783   4.618
 5269SOL    HW217640   0.417  10.872   4.550
 5270SOL     OW17641  11.209   2.008   0.600
 5270SOL    HW117642  11.150   2.057   0.657
 5270SOL    HW217643  11.297   2.027   0.633
 5271SOL     OW17644  12.458  14.876  14.388
 5271SOL    HW117645  12.522  14.807  14.374
 5271SOL    HW217646  12.510   0.072  14.407
 5272SOL     OW17647   2.232  12.164   5.825
 5272SOL    HW117648   2.240  12.090   5.886
 5272SOL    HW217649   2.320  12.201   5.820
 5273SOL     OW17650  10.948  10.144   9.797
 5273SOL    HW117651  10.959  10.144   9.702
 5273SOL    HW217652  11.011  10.079   9.829
 5274SOL     OW17653  13.874   1.203   6.678
 5274SOL    HW117654  13.788   1.220   6.715
 5274SOL    HW217655  13.865   1.224   6.585
 5275SOL     OW17656  14.836  12.649   2.617
 5275SOL    HW117657  14.781  12.696   2.554
 5275SOL    HW217658  14.800  12.561   2.619
 5276SOL     OW17659   0.596  13.700   9.686
 5276SOL    HW117660   0.564  13.789   9.696
 5276SOL    HW217661   0.517  13.646   9.680
 5277SOL     OW17662   6.939   2.579   8.164
 5277SOL    HW117663   6.948   2.518   8.091
 5277SOL    HW217664   6.871   2.541   8.219
 5278SOL     OW17665  10.869   4.621   2.868
 5278SOL    HW117666  10.866   4.610   2.963
 5278SOL    HW217667  10.937   4.560   2.839
 5279SOL     OW17668   2.347  10.408  14.471
 5279SOL    HW117669   2.344  10.418  14.566
 5279SOL    HW217670   2.261  10.439  14.441
 5280SOL     OW17671   8.423  11.517   8.313
 5280SOL    HW117672   8.496  11.562   8.356
 5280SOL    HW217673   8.418  11.432   8.357
 5281SOL     OW17674  10.322  10.232   8.885
 5281SOL    HW117675  10.262  10.266   8.820
 5281SOL    HW217676  10.384  10.179   8.835
 5282SOL     OW17677  11.018   1.002  10.021
 5282SOL    HW117678  10.945   1.009   9.960
 5282SOL    HW217679  10.980   0.959  10.098
 5283SOL     OW17680   2.479  13.780   1.194
 5283SOL    HW117681   2.440  13.780   1.107
 5283SOL    HW217682   2.516  13.693   1.205
 5284SOL     OW17683   0.027   6.016   1.201
 5284SOL    HW117684   0.047   6.016   1.295
 5284SOL    HW217685   0.113   6.022   1.159
 5285SOL     OW17686   4.083   0.892  11.968
 5285SOL    HW117687   4.146   0.941  12.022
 5285SOL    HW217688   4.003   0.890  12.020
 5286SOL     OW17689   4.075   7.577   3.263
 5286SOL    HW117690   4.136   7.629   3.211
 5286SOL    HW217691   4.084   7.611   3.352
 5287SOL     OW17692   6.547  12.130  11.388
 5287SOL    HW117693   6.474  12.124  11.449
 5287SOL    HW217694   6.595  12.209  11.414
 5288SOL     OW17695   8.794   6.986   5.455
 5288SOL    HW117696   8.827   7.056   5.511
 5288SOL    HW217697   8.846   6.909   5.480
 5289SOL     OW17698   5.567  11.794  13.929
 5289SOL    HW117699   5.628  11.794  14.002
 5289SOL    HW217700   5.567  11.885  13.898
 5290SOL     OW17701  14.386  11.549   2.466
 5290SOL    HW117702  14.312  11.561   2.405
 5290SOL    HW217703  14.415  11.459   2.450
 5291SOL     OW17704   0.254   0.530  10.360
 5291SOL    HW117705   0.303   0.448  10.355
 5291SOL    HW217706   0.203   0.523  10.441
 5292SOL     OW17707  12.138  12.271   8.146
 5292SOL    HW117708  12.091  12.275   8.230
 5292SOL    HW217709  12.192  12.350   8.144
 5293SOL     OW17710   6.371   0.718   3.421
 5293SOL    HW117711   6.399   0.788   3.362
 5293SOL    HW217712   6.290   0.686   3.383
 5294SOL     OW17713   9.863   8.784  11.419
 5294SOL    HW117714   9.836   8.861  11.468
 5294SOL    HW217715   9.786   8.760  11.367
 5295SOL     OW17716   6.235   2.373  13.931
 5295SOL    HW117717   6.280   2.458  13.937
 5295SOL    HW217718   6.246   2.334  14.017
 5296SOL     OW17719  13.165   2.540   3.362
 5296SOL    HW117720  13.196   2.456   3.328
 5296SOL    HW217721  13.242   2.597   3.360
 5297SOL     OW17722   4.188  11.856   5.281
 5297SOL    HW117723   4.203  11.766   5.311
 5297SOL    HW217724   4.191  11.850   5.185
 5298SOL     OW17725   9.353   0.054   9.898
 5298SOL    HW117726   9.373   0.042   9.805
 5298SOL    HW217727   9.431   0.021   9.944
 5299SOL     OW17728  10.653  11.752   7.978
 5299SOL    HW117729  10.718  11.681   7.974
 5299SOL    HW217730  10.570  11.708   7.996
 5300SOL     OW17731  14.849  10.672   7.019
 5300SOL    HW117732   0.011  10.618   6.953
 5300SOL    HW217733   0.013  10.756   7.016
 5301SOL     OW17734   5.534   9.325  12.859
 5301SOL    HW117735   5.489   9.393  12.909
 5301SOL    HW217736   5.537   9.359  12.770
 5302SOL     OW17737   0.641  11.366  13.639
 5302SOL    HW117738   0.659  11.285  13.686
 5302SOL    HW217739   0.673  11.435  13.697
 5303SOL     OW17740  10.644  14.292  10.942
 5303SOL    HW117741  10.654  14.240  10.862
 5303SOL    HW217742  10.628  14.227  11.011
 5304SOL     OW17743   1.653  14.552  13.310
 5304SOL    HW117744   1.647  14.591  13.222
 5304SOL    HW217745   1.650  14.627  13.369
 5305SOL     OW17746   3.971   8.523   2.790
 5305SOL    HW117747   4.030   8.521   2.714
 5305SOL    HW217748   4.029   8.531   2.865
 5306SOL     OW17749  14.864   3.508  11.159
 5306SOL    HW117750  14.807   3.570  11.112
 5306SOL    HW217751   0.051   3.486  11.096
 5307SOL     OW17752   1.050   4.040   8.732
 5307SOL    HW117753   1.121   4.072   8.788
 5307SOL    HW217754   0.972   4.084   8.767
 5308SOL     OW17755   9.648   7.765  14.724
 5308SOL    HW117756   9.635   7.834  14.660
 5308SOL    HW217757   9.590   7.694  14.696
 5309SOL     OW17758  14.499  10.076   0.998
 5309SOL    HW117759  14.417  10.116   0.967
 5309SOL    HW217760  14.543  10.046   0.919
 5310SOL     OW17761  10.758  11.154  14.251
 5310SOL    HW117762  10.837  11.102  14.236
 5310SOL    HW217763  10.744  11.202  14.169
 5311SOL     OW17764   2.590  14.771   7.116
 5311SOL    HW117765   2.584  14.731   7.203
 5311SOL    HW217766   2.666  14.729   7.075
 5312SOL     OW17767   3.357   4.127   5.919
 5312SOL    HW117768   3.324   4.196   5.862
 5312SOL    HW217769   3.280   4.099   5.969
 5313SOL     OW17770   2.067   3.736   2.711
 5313SOL    HW117771   2.004   3.682   2.758
 5313SOL    HW217772   2.151   3.693   2.725
 5314SOL     OW17773   8.692   1.084   7.440
 5314SOL    HW117774   8.724   0.998   7.414
 5314SOL    HW217775   8.648   1.068   7.524
 5315SOL     OW17776   0.137   2.733   9.497
 5315SOL    HW117777   0.060   2.705   9.547
 5315SOL    HW217778   0.119   2.824   9.475
 5316SOL     OW17779   2.743   4.344   8.735
 5316SOL    HW117780   2.711   4.348   8.825
 5316SOL    HW217781   2.816   4.283   8.738
 5317SOL     OW17782   8.404  13.455   3.809
 5317SOL    HW117783   8.336  13.443   3.742
 5317SOL    HW217784   8.358  13.446   3.892
 5318SOL     OW17785   9.494   2.801   9.521
 5318SOL    HW117786   9.440   2.837   9.450
 5318SOL    HW217787   9.505   2.708   9.499
 5319SOL     OW17788   7.539  13.609   9.511
 5319SOL    HW117789   7.557  13.515   9.515
 5319SOL    HW217790   7.601  13.649   9.571
 5320SOL     OW17791  10.583   9.667  12.708
 5320SOL    HW117792  10.607   9.715  12.628
 5320SOL    HW217793  10.488   9.660  12.704
 5321SOL     OW17794   0.562   4.377  12.525
 5321SOL    HW117795   0.583   4.425  12.445
 5321SOL    HW217796   0.570   4.285  12.501
 5322SOL     OW17797  10.435   2.772   4.403
 5322SOL    HW117798  10.465   2.855   4.440
 5322SOL    HW217799  10.512   2.736   4.359
 5323SOL     OW17800   4.014  11.439   2.350
 5323SOL    HW117801   3.964  11.468   2.427
 5323SOL    HW217802   3.994  11.505   2.283
 5324SOL     OW17803   7.543   8.312   1.021
 5324SOL    HW117804   7.518   8.251   0.951
 5324SOL    HW217805   7.636   8.328   1.007
 5325SOL     OW17806   1.171   0.453   3.913
 5325SOL    HW117807   1.255   0.406   3.911
 5325SOL    HW217808   1.139   0.440   4.002
 5326SOL     OW17809   5.170  12.798  10.115
 5326SOL    HW117810   5.254  12.796  10.160
 5326SOL    HW217811   5.166  12.715  10.067
 5327SOL     OW17812  11.203   9.177  12.590
 5327SOL    HW117813  11.201   9.207  12.499
 5327SOL    HW217814  11.134   9.227  12.633
 5328SOL     OW17815   8.729  10.147  14.619
 5328SOL    HW117816   8.687  10.233  14.631
 5328SOL    HW217817   8.698  10.095  14.693
 5329SOL     OW17818  10.897   8.445   2.362
 5329SOL    HW117819  10.891   8.379   2.293
 5329SOL    HW217820  10.824   8.504   2.344
 5330SOL     OW17821  11.381   0.818   2.866
 5330SOL    HW117822  11.351   0.778   2.948
 5330SOL    HW217823  11.358   0.755   2.798
 5331SOL     OW17824   3.430   8.802   0.488
 5331SOL    HW117825   3.485   8.734   0.451
 5331SOL    HW217826   3.424   8.781   0.581
 5332SOL     OW17827   7.010   9.000  13.233
 5332SOL    HW117828   6.938   8.991  13.295
 5332SOL    HW217829   7.089   8.992  13.286
 5333SOL     OW17830   4.941  11.135   7.725
 5333SOL    HW117831   4.971  11.108   7.639
 5333SOL    HW217832   4.978  11.223   7.737
 5334SOL     OW17833   9.285   9.752   4.212
 5334SOL    HW117834   9.289   9.670   4.162
 5334SOL    HW217835   9.193   9.760   4.236
 5335SOL     OW17836   7.215  12.116  13.731
 5335SOL    HW117837   7.181  12.027  13.723
 5335SOL    HW217838   7.199  12.140  13.822
 5336SOL     OW17839  10.814   0.824  12.228
 5336SOL    HW117840  10.874   0.805  12.300
 5336SOL    HW217841  10.845   0.907  12.191
 5337SOL     OW17842   4.864   0.611  14.700
 5337SOL    HW117843   4.861   0.653  14.785
 5337SOL    HW217844   4.868   0.683  14.637
 5338SOL     OW17845  13.843   4.887   3.092
 5338SOL    HW117846  13.795   4.866   3.172
 5338SOL    HW217847  13.828   4.812   3.035
 5339SOL     OW17848   7.996   6.027   6.778
 5339SOL    HW117849   7.975   6.019   6.685
 5339SOL    HW217850   7.913   6.010   6.823
 5340SOL     OW17851   3.892   6.097   0.715
 5340SOL    HW117852   3.900   6.092   0.810
 5340SOL    HW217853   3.983   6.101   0.684
 5341SOL     OW17854   4.947   8.987   2.326
 5341SOL    HW117855   4.959   8.948   2.413
 5341SOL    HW217856   4.968   8.916   2.265
 5342SOL     OW17857  13.107   3.750   4.654
 5342SOL    HW117858  13.076   3.799   4.579
 5342SOL    HW217859  13.043   3.770   4.723
 5343SOL     OW17860  11.473   3.999  14.466
 5343SOL    HW117861  11.482   3.912  14.428
 5343SOL    HW217862  11.469   3.984  14.560
 5344SOL     OW17863  13.238   1.980   8.988
 5344SOL    HW117864  13.283   1.961   8.906
 5344SOL    HW217865  13.301   2.032   9.039
 5345SOL     OW17866   1.011   5.772  14.189
 5345SOL    HW117867   0.987   5.765  14.281
 5345SOL    HW217868   0.937   5.734  14.142
 5346SOL     OW17869   7.523   9.325   5.461
 5346SOL    HW117870   7.529   9.372   5.544
 5346SOL    HW217871   7.507   9.234   5.486
 5347SOL     OW17872   8.274  13.243  10.329
 5347SOL    HW117873   8.273  13.336  10.352
 5347SOL    HW217874   8.212  13.236  10.257
 5348SOL     OW17875  12.918   9.201  13.700
 5348SOL    HW117876  12.854   9.156  13.756
 5348SOL    HW217877  12.986   9.232  13.760
 5349SOL     OW17878   0.474   9.283   3.705
 5349SOL    HW117879   0.484   9.282   3.800
 5349SOL    HW217880   0.560   9.310   3.672
 5350SOL     OW17881  12.723   8.345   6.204
 5350SOL    HW117882  12.745   8.282   6.134
 5350SOL    HW217883  12.723   8.430   6.160
 5351SOL     OW17884  13.325   4.862   4.967
 5351SOL    HW117885  13.255   4.828   4.912
 5351SOL    HW217886  13.291   4.854   5.057
 5352SOL     OW17887   0.175   5.191  12.815
 5352SOL    HW117888   0.124   5.253  12.867
 5352SOL    HW217889   0.250   5.242  12.784
 5353SOL     OW17890   1.992  11.684  12.874
 5353SOL    HW117891   1.920  11.628  12.845
 5353SOL    HW217892   2.069  11.629  12.870
 5354SOL     OW17893   7.400  14.447  13.211
 5354SOL    HW117894   7.309  14.472  13.228
 5354SOL    HW217895   7.442  14.448  13.297
 5355SOL     OW17896  13.761   1.654   3.038
 5355SOL    HW117897  13.850   1.683   3.019
 5355SOL    HW217898  13.709   1.734   3.040
 5356SOL     OW17899  12.587   0.428   8.628
 5356SOL    HW117900  12.516   0.371   8.597
 5356SOL    HW217901  12.641   0.371   8.683
 5357SOL     OW17902  11.842   4.613  13.507
 5357SOL    HW117903  11.812   4.704  13.507
 5357SOL    HW217904  11.766   4.563  13.478
 5358SOL     OW17905  10.184   0.161  10.920
 5358SOL    HW117906  10.150   0.234  10.869
 5358SOL    HW217907  10.120   0.149  10.990
 5359SOL     OW17908  11.741   7.100   1.976
 5359SOL    HW117909  11.745   7.080   1.882
 5359SOL    HW217910  11.717   7.017   2.017
 5360SOL     OW17911   1.716   2.086   1.335
 5360SOL    HW117912   1.745   2.100   1.425
 5360SOL    HW217913   1.638   2.032   1.343
 5361SOL     OW17914  13.714  12.750  12.986
 5361SOL    HW117915  13.664  12.676  13.020
 5361SOL    HW217916  13.801  12.715  12.970
 5362SOL     OW17917  12.884   5.526  10.440
 5362SOL    HW117918  12.805   5.580  10.447
 5362SOL    HW217919  12.951   5.576  10.487
 5363SOL     OW17920   2.405   7.800  10.584
 5363SOL    HW117921   2.318   7.835  10.563
 5363SOL    HW217922   2.395   7.705  10.580
 5364SOL     OW17923  13.982  10.527   7.686
 5364SOL    HW117924  13.891  10.558   7.684
 5364SOL    HW217925  14.035  10.606   7.695
 5365SOL     OW17926   6.494   1.217  13.371
 5365SOL    HW117927   6.584   1.185  13.361
 5365SOL    HW217928   6.497   1.270  13.451
 5366SOL     OW17929   5.674   2.039   9.981
 5366SOL    HW117930   5.598   1.988   9.954
 5366SOL    HW217931   5.730   2.040   9.903
 5367SOL     OW17932   7.028   1.703  12.649
 5367SOL    HW117933   7.051   1.618  12.609
 5367SOL    HW217934   7.099   1.721  12.709
 5368SOL     OW17935  13.702  10.859  10.791
 5368SOL    HW117936  13.722  10.909  10.712
 5368SOL    HW217937  13.783  10.811  10.810
 5369SOL     OW17938  11.114   3.168   8.987
 5369SOL    HW117939  11.098   3.262   8.995
 5369SOL    HW217940  11.027   3.128   8.986
 5370SOL     OW17941   7.613   5.213   8.238
 5370SOL    HW117942   7.653   5.284   8.188
 5370SOL    HW217943   7.631   5.134   8.187
 5371SOL     OW17944   6.985  14.823   2.531
 5371SOL    HW117945   6.920   0.010   2.524
 5371SOL    HW217946   7.068  14.869   2.546
 5372SOL     OW17947   8.368   9.084   0.198
 5372SOL    HW117948   8.401   9.129   0.276
 5372SOL    HW217949   8.434   9.102   0.131
 5373SOL     OW17950   3.126  10.467   6.272
 5373SOL    HW117951   3.092  10.482   6.360
 5373SOL    HW217952   3.094  10.381   6.247
 5374SOL     OW17953   5.496   7.318  12.860
 5374SOL    HW117954   5.559   7.250  12.840
 5374SOL    HW217955   5.527   7.355  12.943
 5375SOL     OW17956   4.728   8.499   6.272
 5375SOL    HW117957   4.773   8.420   6.242
 5375SOL    HW217958   4.797   8.550   6.315
 5376SOL     OW17959   6.081   2.457  12.985
 5376SOL    HW117960   6.017   2.503  12.931
 5376SOL    HW217961   6.081   2.504  13.068
 5377SOL     OW17962   9.415   5.551   5.004
 5377SOL    HW117963   9.415   5.637   5.045
 5377SOL    HW217964   9.349   5.501   5.051
 5378SOL     OW17965   3.936   4.042  13.143
 5378SOL    HW117966   3.950   4.048  13.238
 5378SOL    HW217967   4.023   4.052  13.106
 5379SOL     OW17968   9.361  12.428   9.423
 5379SOL    HW117969   9.357  12.515   9.384
 5379SOL    HW217970   9.277  12.388   9.401
 5380SOL     OW17971   0.415   6.134   3.486
 5380SOL    HW117972   0.414   6.135   3.390
 5380SOL    HW217973   0.395   6.043   3.509
 5381SOL     OW17974   7.277   3.844   8.972
 5381SOL    HW117975   7.226   3.925   8.982
 5381SOL    HW217976   7.322   3.834   9.056
 5382SOL     OW17977   3.034  11.204  10.828
 5382SOL    HW117978   3.086  11.142  10.777
 5382SOL    HW217979   3.020  11.160  10.912
 5383SOL     OW17980  12.652   3.263   8.738
 5383SOL    HW117981  12.715   3.299   8.800
 5383SOL    HW217982  12.645   3.329   8.669
 5384SOL     OW17983   2.754   0.608  13.153
 5384SOL    HW117984   2.719   0.647  13.234
 5384SOL    HW217985   2.724   0.667  13.084
 5385SOL     OW17986   5.025  13.443   2.885
 5385SOL    HW117987   5.111  13.407   2.908
 5385SOL    HW217988   5.045  13.528   2.845
 5386SOL     OW17989   2.091  14.207  11.587
 5386SOL    HW117990   2.087  14.291  11.539
 5386SOL    HW217991   2.077  14.141  11.519
 5387SOL     OW17992  11.065  12.358  12.892
 5387SOL    HW117993  10.975  12.389  12.902
 5387SOL    HW217994  11.098  12.351  12.981
 5388SOL     OW17995  14.289   4.736   0.324
 5388SOL    HW117996  14.306   4.765   0.413
 5388SOL    HW217997  14.267   4.643   0.333
 5389SOL     OW17998   2.302  10.758   0.442
 5389SOL    HW117999   2.268  10.669   0.446
 5389SOL    HW218000   2.389  10.749   0.403
 5390SOL     OW18001   5.195   5.632  12.707
 5390SOL    HW118002   5.222   5.640  12.799
 5390SOL    HW218003   5.276   5.643  12.657
 5391SOL     OW18004   9.190   3.792   2.659
 5391SOL    HW118005   9.231   3.814   2.743
 5391SOL    HW218006   9.205   3.869   2.604
 5392SOL     OW18007   2.686   3.234   8.481
 5392SOL    HW118008   2.686   3.314   8.430
 5392SOL    HW218009   2.598   3.197   8.468
 5393SOL     OW18010   0.130   9.337   2.258
 5393SOL    HW118011   0.114   9.252   2.299
 5393SOL    HW218012   0.102   9.325   2.167
 5394SOL     OW18013   0.950   3.144   0.187
 5394SOL    HW118014   1.028   3.089   0.182
 5394SOL    HW218015   0.894   3.111   0.116
 5395SOL     OW18016  12.478  10.983  11.914
 5395SOL    HW118017  12.432  10.900  11.920
 5395SOL    HW218018  12.411  11.049  11.932
 5396SOL     OW18019   2.406   4.260  14.247
 5396SOL    HW118020   2.401   4.168  14.220
 5396SOL    HW218021   2.377   4.309  14.170
 5397SOL     OW18022  13.170   7.666   0.904
 5397SOL    HW118023  13.250   7.712   0.879
 5397SOL    HW218024  13.170   7.668   1.000
 5398SOL     OW18025   4.611   6.042   0.263
 5398SOL    HW118026   4.703   6.016   0.268
 5398SOL    HW218027   4.564   5.961   0.242
 5399SOL     OW18028   2.210   6.074   2.326
 5399SOL    HW118029   2.239   6.155   2.284
 5399SOL    HW218030   2.263   6.006   2.284
 5400SOL     OW18031   3.525   6.116   0.129
 5400SOL    HW118032   3.607   6.124   0.080
 5400SOL    HW218033   3.511   6.204   0.164
 5401SOL     OW18034  10.715  10.638   2.151
 5401SOL    HW118035  10.752  10.585   2.080
 5401SOL    HW218036  10.671  10.710   2.106
 5402SOL     OW18037  12.187  14.085   2.899
 5402SOL    HW118038  12.244  14.051   2.829
 5402SOL    HW218039  12.246  14.100   2.973
 5403SOL     OW18040   7.822   0.185  13.750
 5403SOL    HW118041   7.771   0.170  13.829
 5403SOL    HW218042   7.897   0.125  13.758
 5404SOL     OW18043  10.421   0.994   8.990
 5404SOL    HW118044  10.458   1.068   9.038
 5404SOL    HW218045  10.466   0.995   8.905
 5405SOL     OW18046  12.700  12.469   0.379
 5405SOL    HW118047  12.739  12.382   0.373
 5405SOL    HW218048  12.699  12.488   0.473
 5406SOL     OW18049  12.997   9.054   8.719
 5406SOL    HW118050  12.903   9.059   8.706
 5406SOL    HW218051  13.024   8.973   8.676
 5407SOL     OW18052   6.689  12.570  11.988
 5407SOL    HW118053   6.704  12.507  12.058
 5407SOL    HW218054   6.662  12.650  12.033
 5408SOL     OW18055   0.693   7.258   9.246
 5408SOL    HW118056   0.661   7.168   9.247
 5408SOL    HW218057   0.768   7.256   9.188
 5409SOL     OW18058   7.194   9.209   8.206
 5409SOL    HW118059   7.192   9.259   8.288
 5409SOL    HW218060   7.286   9.206   8.181
 5410SOL     OW18061   0.538  11.359   1.075
 5410SOL    HW118062   0.478  11.315   1.015
 5410SOL    HW218063   0.512  11.328   1.162
 5411SOL     OW18064  12.180   0.602  10.160
 5411SOL    HW118065  12.139   0.616  10.074
 5411SOL    HW218066  12.107   0.601  10.221
 5412SOL     OW18067  13.394   7.373   7.009
 5412SOL    HW118068  13.337   7.296   7.009
 5412SOL    HW218069  13.434   7.373   7.096
 5413SOL     OW18070   6.097   0.295  13.859
 5413SOL    HW118071   6.171   0.273  13.801
 5413SOL    HW218072   6.116   0.249  13.940
 5414SOL     OW18073  13.494   5.959   5.624
 5414SOL    HW118074  13.479   6.042   5.579
 5414SOL    HW218075  13.552   5.910   5.565
 5415SOL     OW18076  12.469   4.792  11.892
 5415SOL    HW118077  12.547   4.800  11.946
 5415SOL    HW218078  12.502   4.772  11.804
 5416SOL     OW18079   2.662   3.202  12.725
 5416SOL    HW118080   2.752   3.170  12.734
 5416SOL    HW218081   2.621   3.142  12.663
 5417SOL     OW18082   3.548  12.782   9.716
 5417SOL    HW118083   3.631  12.817   9.748
 5417SOL    HW218084   3.501  12.756   9.795
 5418SOL     OW18085   3.108   2.686   3.050
 5418SOL    HW118086   3.091   2.595   3.027
 5418SOL    HW218087   3.154   2.722   2.974
 5419SOL     OW18088   6.732   1.522   6.403
 5419SOL    HW118089   6.748   1.429   6.388
 5419SOL    HW218090   6.814   1.555   6.440
 5420SOL     OW18091  10.454  12.855   2.242
 5420SOL    HW118092  10.381  12.904   2.281
 5420SOL    HW218093  10.475  12.902   2.162
 5421SOL     OW18094  14.373   7.271   7.178
 5421SOL    HW118095  14.346   7.338   7.116
 5421SOL    HW218096  14.392   7.194   7.124
 5422SOL     OW18097  12.484   2.050   6.312
 5422SOL    HW118098  12.428   2.127   6.304
 5422SOL    HW218099  12.563   2.073   6.263
 5423SOL     OW18100   5.205   7.141   3.177
 5423SOL    HW118101   5.274   7.077   3.193
 5423SOL    HW218102   5.224   7.212   3.238
 5424SOL     OW18103  13.365   5.443   5.161
 5424SOL    HW118104  13.387   5.378   5.227
 5424SOL    HW218105  13.274   5.466   5.180
 5425SOL     OW18106   7.424  13.707   9.780
 5425SOL    HW118107   7.463  13.672   9.700
 5425SOL    HW218108   7.440  13.801   9.776
 5426SOL     OW18109   0.000  14.768   1.229
 5426SOL    HW118110  14.864  14.731   1.316
 5426SOL    HW218111   0.049  14.848   1.246
 5427SOL     OW18112   3.104   8.498   5.934
 5427SOL    HW118113   3.194   8.528   5.945
 5427SOL    HW218114   3.070   8.551   5.863
 5428SOL     OW18115   9.635  12.628   4.890
 5428SOL    HW118116   9.671  12.539   4.886
 5428SOL    HW218117   9.712  12.684   4.875
 5429SOL     OW18118  10.374   5.656  11.141
 5429SOL    HW118119  10.463   5.620  11.134
 5429SOL    HW218120  10.368   5.718  11.068
 5430SOL     OW18121   6.981   5.492   9.513
 5430SOL    HW118122   6.996   5.400   9.532
 5430SOL    HW218123   6.905   5.515   9.566
 5431SOL     OW18124   6.752   1.658   9.627
 5431SOL    HW118125   6.823   1.723   9.624
 5431SOL    HW218126   6.677   1.703   9.588
 5432SOL     OW18127  13.931  12.621  10.079
 5432SOL    HW118128  13.923  12.559  10.006
 5432SOL    HW218129  13.844  12.659  10.088
 5433SOL     OW18130   2.575  12.216   3.174
 5433SOL    HW118131   2.614  12.300   3.148
 5433SOL    HW218132   2.651  12.159   3.190
 5434SOL     OW18133   2.334   8.154  12.834
 5434SOL    HW118134   2.259   8.117  12.880
 5434SOL    HW218135   2.374   8.080  12.790
 5435SOL     OW18136  12.507   1.729  13.029
 5435SOL    HW118137  12.421   1.721  12.987
 5435SOL    HW218138  12.568   1.688  12.968
 5436SOL     OW18139   7.386   1.879   2.602
 5436SOL    HW118140   7.378   1.955   2.659
 5436SOL    HW218141   7.392   1.916   2.513
 5437SOL     OW18142  11.839  14.463   9.171
 5437SOL    HW118143  11.820  14.546   9.216
 5437SOL    HW218144  11.914  14.482   9.115
 5438SOL     OW18145   0.654  14.628  10.614
 5438SOL    HW118146   0.588  14.698  10.608
 5438SOL    HW218147   0.698  14.629  10.529
 5439SOL     OW18148  13.583   2.154   1.141
 5439SOL    HW118149  13.651   2.092   1.114
 5439SOL    HW218150  13.619   2.198   1.218
 5440SOL     OW18151  10.757  11.661   7.659
 5440SOL    HW118152  10.805  11.681   7.578
 5440SOL    HW218153  10.719  11.745   7.685
 5441SOL     OW18154   1.534  10.383   4.806
 5441SOL    HW118155   1.451  10.397   4.852
 5441SOL    HW218156   1.542  10.458   4.747
 5442SOL     OW18157   3.824  10.687   1.611
 5442SOL    HW118158   3.903  10.640   1.636
 5442SOL    HW218159   3.774  10.624   1.559
 5443SOL     OW18160   3.185  13.314  11.290
 5443SOL    HW118161   3.252  13.365  11.335
 5443SOL    HW218162   3.196  13.225  11.323
 5444SOL     OW18163   6.842  11.862   2.223
 5444SOL    HW118164   6.852  11.876   2.128
 5444SOL    HW218165   6.923  11.894   2.261
 5445SOL     OW18166   2.150   6.352   9.747
 5445SOL    HW118167   2.217   6.375   9.811
 5445SOL    HW218168   2.198   6.327   9.669
 5446SOL     OW18169  11.336  13.834   2.999
 5446SOL    HW118170  11.296  13.878   2.923
 5446SOL    HW218171  11.315  13.741   2.987
 5447SOL     OW18172   5.821   1.244  14.140
 5447SOL    HW118173   5.898   1.301  14.137
 5447SOL    HW218174   5.814   1.207  14.052
 5448SOL     OW18175   5.712   0.703  10.268
 5448SOL    HW118176   5.654   0.669  10.200
 5448SOL    HW218177   5.728   0.794  10.242
 5449SOL     OW18178  11.764   5.342  10.836
 5449SOL    HW118179  11.680   5.347  10.881
 5449SOL    HW218180  11.771   5.425  10.789
 5450SOL     OW18181   4.522   4.121   7.523
 5450SOL    HW118182   4.608   4.080   7.511
 5450SOL    HW218183   4.478   4.110   7.438
 5451SOL     OW18184   8.788   9.655  11.942
 5451SOL    HW118185   8.804   9.750  11.941
 5451SOL    HW218186   8.741   9.638  11.860
 5452SOL     OW18187  13.504   1.515  12.166
 5452SOL    HW118188  13.597   1.513  12.144
 5452SOL    HW218189  13.466   1.578  12.105
 5453SOL     OW18190   2.590   3.232  13.538
 5453SOL    HW118191   2.521   3.166  13.537
 5453SOL    HW218192   2.552   3.308  13.493
 5454SOL     OW18193  11.410  14.792   8.933
 5454SOL    HW118194  11.485  14.819   8.987
 5454SOL    HW218195  11.333  14.818   8.984
 5455SOL     OW18196  14.061  11.929   8.087
 5455SOL    HW118197  14.087  11.967   8.171
 5455SOL    HW218198  13.971  11.899   8.102
 5456SOL     OW18199   4.959   6.185   3.060
 5456SOL    HW118200   4.935   6.277   3.052
 5456SOL    HW218201   4.920   6.157   3.143
 5457SOL     OW18202   8.244   7.785  10.964
 5457SOL    HW118203   8.262   7.694  10.944
 5457SOL    HW218204   8.225   7.786  11.058
 5458SOL     OW18205   0.703  13.794   3.574
 5458SOL    HW118206   0.716  13.720   3.633
 5458SOL    HW218207   0.609  13.795   3.557
 5459SOL     OW18208   9.639  11.648  12.023
 5459SOL    HW118209   9.726  11.678  11.996
 5459SOL    HW218210   9.608  11.594  11.951
 5460SOL     OW18211   0.555  11.938   4.089
 5460SOL    HW118212   0.525  11.858   4.047
 5460SOL    HW218213   0.474  11.984   4.114
 5461SOL     OW18214   3.910   4.558   6.549
 5461SOL    HW118215   3.992   4.518   6.519
 5461SOL    HW218216   3.877   4.498   6.616
 5462SOL     OW18217  13.153   3.347   1.915
 5462SOL    HW118218  13.179   3.333   1.824
 5462SOL    HW218219  13.235   3.367   1.960
 5463SOL     OW18220   7.868   1.953   2.104
 5463SOL    HW118221   7.821   1.886   2.154
 5463SOL    HW218222   7.947   1.970   2.155
 5464SOL     OW18223  12.642   8.122   2.593
 5464SOL    HW118224  12.557   8.102   2.632
 5464SOL    HW218225  12.690   8.165   2.664
 5465SOL     OW18226  14.415   5.083  14.710
 5465SOL    HW118227  14.438   5.022  14.640
 5465SOL    HW218228  14.498   5.100  14.756
 5466SOL     OW18229  11.947   0.536  14.482
 5466SOL    HW118230  11.950   0.528  14.386
 5466SOL    HW218231  12.030   0.576  14.506
 5467SOL     OW18232  12.620  10.804  12.242
 5467SOL    HW118233  12.557  10.747  12.197
 5467SOL    HW218234  12.706  10.774  12.210
 5468SOL     OW18235   2.159   4.470   2.114
 5468SOL    HW118236   2.119   4.400   2.062
 5468SOL    HW218237   2.109   4.548   2.091
 5469SOL     OW18238   8.022   2.065   2.334
 5469SOL    HW118239   8.030   1.996   2.400
 5469SOL    HW218240   8.025   2.146   2.385
 5470SOL     OW18241   1.637  12.069  13.500
 5470SOL    HW118242   1.560  12.016  13.478
 5470SOL    HW218243   1.658  12.045  13.590
 5471SOL     OW18244   5.540   6.012   1.042
 5471SOL    HW118245   5.498   5.971   1.117
 5471SOL    HW218246   5.628   5.973   1.040
 5472SOL     OW18247   2.763   6.545   3.112
 5472SOL    HW118248   2.820   6.489   3.164
 5472SOL    HW218249   2.684   6.492   3.096
 5473SOL     OW18250  14.407   3.155   3.482
 5473SOL    HW118251  14.391   3.247   3.504
 5473SOL    HW218252  14.409   3.110   3.566
 5474SOL     OW18253   0.454  12.989   0.256
 5474SOL    HW118254   0.395  13.049   0.209
 5474SOL    HW218255   0.535  12.991   0.206
 5475SOL     OW18256   1.158   2.397   5.015
 5475SOL    HW118257   1.231   2.391   4.954
 5475SOL    HW218258   1.080   2.390   4.960
 5476SOL     OW18259   6.919   7.011  11.197
 5476SOL    HW118260   6.874   6.971  11.123
 5476SOL    HW218261   6.880   7.098  11.205
 5477SOL     OW18262   0.691   6.906   9.472
 5477SOL    HW118263   0.651   6.904   9.385
 5477SOL    HW218264   0.656   6.829   9.517
 5478SOL     OW18265   4.776  11.023   7.295
 5478SOL    HW118266   4.801  10.930   7.299
 5478SOL    HW218267   4.766  11.041   7.202
 5479SOL     OW18268  10.158   5.144  10.383
 5479SOL    HW118269  10.069   5.115  10.360
 5479SOL    HW218270  10.198   5.067  10.423
 5480SOL     OW18271   2.663  10.709   9.753
 5480SOL    HW118272   2.723  10.783   9.750
 5480SOL    HW218273   2.713  10.637   9.713
 5481SOL     OW18274   8.018   6.364   2.978
 5481SOL    HW118275   8.087   6.429   2.988
 5481SOL    HW218276   7.970   6.391   2.899
 5482SOL     OW18277   2.531   2.111   1.480
 5482SOL    HW118278   2.589   2.143   1.411
 5482SOL    HW218279   2.580   2.040   1.521
 5483SOL     OW18280   6.290   7.460   7.046
 5483SOL    HW118281   6.243   7.522   7.102
 5483SOL    HW218282   6.261   7.482   6.957
 5484SOL     OW18283   7.097   7.080  14.595
 5484SOL    HW118284   7.086   7.137  14.671
 5484SOL    HW218285   7.019   7.025  14.594
 5485SOL     OW18286   6.993  13.210  11.881
 5485SOL    HW118287   7.024  13.227  11.970
 5485SOL    HW218288   6.963  13.295  11.849
 5486SOL     OW18289  11.371  11.966  12.351
 5486SOL    HW118290  11.446  11.999  12.302
 5486SOL    HW218291  11.315  11.924  12.285
 5487SOL     OW18292   2.149   5.630   0.192
 5487SOL    HW118293   2.170   5.603   0.282
 5487SOL    HW218294   2.205   5.575   0.137
 5488SOL     OW18295  14.222   8.083   0.598
 5488SOL    HW118296  14.254   8.051   0.682
 5488SOL    HW218297  14.127   8.072   0.603
 5489SOL     OW18298   3.850   7.860   3.297
 5489SOL    HW118299   3.840   7.801   3.222
 5489SOL    HW218300   3.760   7.877   3.326
 5490SOL     OW18301   7.129  10.907   5.799
 5490SOL    HW118302   7.174  10.835   5.842
 5490SOL    HW218303   7.148  10.894   5.706
 5491SOL     OW18304   8.200   8.222  14.387
 5491SOL    HW118305   8.105   8.227  14.396
 5491SOL    HW218306   8.226   8.310  14.359
 5492SOL     OW18307   7.406  10.684   2.166
 5492SOL    HW118308   7.344  10.665   2.096
 5492SOL    HW218309   7.471  10.740   2.125
 5493SOL     OW18310  13.582   5.544  13.628
 5493SOL    HW118311  13.641   5.557  13.553
 5493SOL    HW218312  13.543   5.631  13.642
 5494SOL     OW18313   4.953   6.404   1.671
 5494SOL    HW118314   4.973   6.311   1.681
 5494SOL    HW218315   4.861   6.406   1.646
 5495SOL     OW18316  10.323  14.310   8.599
 5495SOL    HW118317  10.297  14.230   8.645
 5495SOL    HW218318  10.318  14.378   8.667
 5496SOL     OW18319   2.920  11.797  12.783
 5496SOL    HW118320   2.947  11.880  12.820
 5496SOL    HW218321   2.971  11.789  12.702
 5497SOL     OW18322   3.543  10.546   9.438
 5497SOL    HW118323   3.603  10.497   9.494
 5497SOL    HW218324   3.601  10.598   9.381
 5498SOL     OW18325  12.207   5.294   4.840
 5498SOL    HW118326  12.177   5.369   4.790
 5498SOL    HW218327  12.145   5.288   4.914
 5499SOL     OW18328   9.068   0.602  10.837
 5499SOL    HW118329   9.093   0.577  10.926
 5499SOL    HW218330   9.022   0.685  10.848
 5500SOL     OW18331  11.446   4.806   3.459
 5500SOL    HW118332  11.410   4.718   3.448
 5500SOL    HW218333  11.503   4.799   3.536
 5501SOL     OW18334   0.368   5.100   1.854
 5501SOL    HW118335   0.366   5.078   1.761
 5501SOL    HW218336   0.451   5.062   1.885
 5502SOL     OW18337   3.636   3.661   7.251
 5502SOL    HW118338   3.691   3.586   7.226
 5502SOL    HW218339   3.689   3.710   7.314
 5503SOL     OW18340  12.801   4.596   4.144
 5503SOL    HW118341  12.708   4.619   4.134
 5503SOL    HW218342  12.845   4.639   4.071
 5504SOL     OW18343  13.435   7.126   1.119
 5504SOL    HW118344  13.506   7.161   1.065
 5504SOL    HW218345  13.473   7.119   1.206
 5505SOL     OW18346  10.860   7.136   0.096
 5505SOL    HW118347  10.851   7.145   0.001
 5505SOL    HW218348  10.791   7.192   0.132
 5506SOL     OW18349   7.726  13.936   2.949
 5506SOL    HW118350   7.641  13.940   2.906
 5506SOL    HW218351   7.720  13.861   3.008
 5507SOL     OW18352  10.734   7.788  11.597
 5507SOL    HW118353  10.776   7.707  11.569
 5507SOL    HW218354  10.642   7.777  11.574
 5508SOL     OW18355   7.386   8.844  14.661
 5508SOL    HW118356   7.446   8.871  14.592
 5508SOL    HW218357   7.431   8.774  14.707
 5509SOL     OW18358  13.157   4.677   6.110
 5509SOL    HW118359  13.080   4.721   6.145
 5509SOL    HW218360  13.226   4.696   6.174
 5510SOL     OW18361   4.515   6.179   7.645
 5510SOL    HW118362   4.450   6.112   7.623
 5510SOL    HW218363   4.596   6.149   7.605
 5511SOL     OW18364   8.661   6.960   6.363
 5511SOL    HW118365   8.574   6.974   6.400
 5511SOL    HW218366   8.679   6.867   6.379
 5512SOL     OW18367  13.101   5.915  11.131
 5512SOL    HW118368  13.049   5.944  11.056
 5512SOL    HW218369  13.186   5.956  11.119
 5513SOL     OW18370   3.187   9.499   8.102
 5513SOL    HW118371   3.153   9.441   8.033
 5513SOL    HW218372   3.123   9.491   8.173
 5514SOL     OW18373   0.203   6.182   8.390
 5514SOL    HW118374   0.268   6.118   8.419
 5514SOL    HW218375   0.252   6.243   8.335
 5515SOL     OW18376   0.012   4.558   2.578
 5515SOL    HW118377  14.882   4.634   2.521
 5515SOL    HW218378  14.808   4.543   2.616
 5516SOL     OW18379  10.719  13.105   0.111
 5516SOL    HW118380  10.786  13.084   0.175
 5516SOL    HW218381  10.763  13.158   0.045
 5517SOL     OW18382   2.479   6.981  11.700
 5517SOL    HW118383   2.540   6.913  11.674
 5517SOL    HW218384   2.484   7.047  11.630
 5518SOL     OW18385   0.443  14.862   0.657
 5518SOL    HW118386   0.536   0.002   0.649
 5518SOL    HW218387   0.399   0.039   0.594
 5519SOL     OW18388   6.546   2.996  13.229
 5519SOL    HW118389   6.532   3.090  13.218
 5519SOL    HW218390   6.638   2.982  13.206
 5520SOL     OW18391   4.109  11.817   1.720
 5520SOL    HW118392   4.118  11.911   1.705
 5520SOL    HW218393   4.034  11.791   1.666
 5521SOL     OW18394   0.609   3.207  13.706
 5521SOL    HW118395   0.642   3.200  13.795
 5521SOL    HW218396   0.647   3.289  13.672
 5522SOL     OW18397  12.309  11.892   1.795
 5522SOL    HW118398  12.252  11.940   1.734
 5522SOL    HW218399  12.286  11.800   1.782
 5523SOL     OW18400   7.006   0.819   6.716
 5523SOL    HW118401   6.998   0.889   6.651
 5523SOL    HW218402   6.977   0.859   6.798
 5524SOL     OW18403   8.207   7.432   6.298
 5524SOL    HW118404   8.192   7.437   6.204
 5524SOL    HW218405   8.239   7.343   6.312
 5525SOL     OW18406   1.836   4.293  14.002
 5525SOL    HW118407   1.760   4.236  14.013
 5525SOL    HW218408   1.837   4.347  14.082
 5526SOL     OW18409  10.472   9.748   8.491
 5526SOL    HW118410  10.490   9.837   8.462
 5526SOL    HW218411  10.474   9.753   8.586
 5527SOL     OW18412   1.641  11.237  10.804
 5527SOL    HW118413   1.731  11.233  10.836
 5527SOL    HW218414   1.614  11.145  10.795
 5528SOL     OW18415  12.104   5.501  13.196
 5528SOL    HW118416  12.154   5.469  13.121
 5528SOL    HW218417  12.013   5.475  13.177
 5529SOL     OW18418  13.307   2.966  12.742
 5529SOL    HW118419  13.346   2.950  12.828
 5529SOL    HW218420  13.309   2.881  12.698
 5530SOL     OW18421   7.967   7.005  11.075
 5530SOL    HW118422   8.059   6.987  11.055
 5530SOL    HW218423   7.922   6.923  11.056
 5531SOL     OW18424   2.222   1.565  12.813
 5531SOL    HW118425   2.253   1.655  12.802
 5531SOL    HW218426   2.259   1.537  12.896
 5532SOL     OW18427   9.803   4.047   5.015
 5532SOL    HW118428   9.711   4.073   5.020
 5532SOL    HW218429   9.841   4.075   5.098
 5533SOL     OW18430   6.878   1.381  11.131
 5533SOL    HW118431   6.841   1.329  11.060
 5533SOL    HW218432   6.835   1.348  11.210
 5534SOL     OW18433   0.795  13.409   6.379
 5534SOL    HW118434   0.753  13.349   6.318
 5534SOL    HW218435   0.800  13.360   6.461
 5535SOL     OW18436  10.925  12.990   5.205
 5535SOL    HW118437  11.010  13.017   5.241
 5535SOL    HW218438  10.862  13.013   5.274
 5536SOL     OW18439  12.951  12.986   6.589
 5536SOL    HW118440  12.914  13.027   6.510
 5536SOL    HW218441  12.875  12.970   6.645
 5537SOL     OW18442   8.554  12.866  12.493
 5537SOL    HW118443   8.462  12.889  12.475
 5537SOL    HW218444   8.589  12.840  12.407
 5538SOL     OW18445   9.331   4.163   0.419
 5538SOL    HW118446   9.311   4.083   0.467
 5538SOL    HW218447   9.407   4.200   0.465
 5539SOL     OW18448  13.043   9.495  14.087
 5539SOL    HW118449  13.059   9.512  14.179
 5539SOL    HW218450  12.982   9.564  14.060
 5540SOL     OW18451  10.194   9.132   4.002
 5540SOL    HW118452  10.257   9.202   4.023
 5540SOL    HW218453  10.116   9.156   4.052
 5541SOL     OW18454   7.670  13.789   1.960
 5541SOL    HW118455   7.685  13.729   2.034
 5541SOL    HW218456   7.758  13.816   1.933
 5542SOL     OW18457   8.507   0.276   7.666
 5542SOL    HW118458   8.517   0.355   7.614
 5542SOL    HW218459   8.463   0.214   7.607
 5543SOL     OW18460  12.077   4.801   4.549
 5543SOL    HW118461  11.999   4.747   4.561
 5543SOL    HW218462  12.054   4.885   4.588
 5544SOL     OW18463   8.632  10.852   5.846
 5544SOL    HW118464   8.565  10.808   5.898
 5544SOL    HW218465   8.685  10.781   5.811
 5545SOL     OW18466   9.447   6.395  13.687
 5545SOL    HW118467   9.421   6.450  13.613
 5545SOL    HW218468   9.366   6.354  13.717
 5546SOL     OW18469   9.214   8.847  12.505
 5546SOL    HW118470   9.229   8.763  12.548
 5546SOL    HW218471   9.234   8.830  12.413
 5547SOL     OW18472   4.060   0.453   1.710
 5547SOL    HW118473   4.054   0.433   1.803
 5547SOL    HW218474   3.972   0.484   1.686
 5548SOL     OW18475   3.945   2.402  11.631
 5548SOL    HW118476   3.880   2.344  11.590
 5548SOL    HW218477   3.960   2.363  11.717
 5549SOL     OW18478   4.117   8.180   5.537
 5549SOL    HW118479   4.098   8.207   5.447
 5549SOL    HW218480   4.212   8.170   5.539
 5550SOL     OW18481  11.604   5.572   2.762
 5550SOL    HW118482  11.567   5.534   2.682
 5550SOL    HW218483  11.528   5.593   2.816
 5551SOL     OW18484   4.023  11.582   5.914
 5551SOL    HW118485   3.992  11.504   5.960
 5551SOL    HW218486   3.947  11.641   5.913
 5552SOL     OW18487  12.173  13.759  10.328
 5552SOL    HW118488  12.083  13.784  10.350
 5552SOL    HW218489  12.175  13.761  10.232
 5553SOL     OW18490  13.824   9.781   9.953
 5553SOL    HW118491  13.731   9.782   9.930
 5553SOL    HW218492  13.860   9.704   9.909
 5554SOL     OW18493  10.397   1.574   8.586
 5554SOL    HW118494  10.457   1.536   8.522
 5554SOL    HW218495  10.342   1.633   8.534
 5555SOL     OW18496   2.721  12.995  11.783
 5555SOL    HW118497   2.679  12.970  11.700
 5555SOL    HW218498   2.770  12.917  11.809
 5556SOL     OW18499   1.562   2.499   6.675
 5556SOL    HW118500   1.475   2.539   6.682
 5556SOL    HW218501   1.611   2.560   6.619
 5557SOL     OW18502  12.449   1.212  11.704
 5557SOL    HW118503  12.508   1.137  11.713
 5557SOL    HW218504  12.415   1.226  11.793
 5558SOL     OW18505   2.146   7.302  11.885
 5558SOL    HW118506   2.157   7.371  11.819
 5558SOL    HW218507   2.170   7.345  11.967
 5559SOL     OW18508   4.474   9.850   6.002
 5559SOL    HW118509   4.534   9.776   6.008
 5559SOL    HW218510   4.511   9.905   5.932
 5560SOL     OW18511   0.200   5.864   4.404
 5560SOL    HW118512   0.285   5.884   4.366
 5560SOL    HW218513   0.147   5.941   4.387
 5561SOL     OW18514   9.112   7.807  10.846
 5561SOL    HW118515   9.142   7.835  10.759
 5561SOL    HW218516   9.184   7.832  10.905
 5562SOL     OW18517   8.948   2.807   3.154
 5562SOL    HW118518   8.863   2.814   3.198
 5562SOL    HW218519   8.951   2.884   3.097
 5563SOL     OW18520   8.303   6.937  10.810
 5563SOL    HW118521   8.347   6.892  10.738
 5563SOL    HW218522   8.310   7.030  10.789
 5564SOL     OW18523   0.612   7.117  12.857
 5564SOL    HW118524   0.546   7.146  12.794
 5564SOL    HW218525   0.694   7.118  12.807
 5565SOL     OW18526  13.863  10.801  11.046
 5565SOL    HW118527  13.911  10.785  10.965
 5565SOL    HW218528  13.932  10.819  11.111
 5566SOL     OW18529   6.964   8.937  11.531
 5566SOL    HW118530   6.988   8.945  11.439
 5566SOL    HW218531   6.876   8.900  11.530
 5567SOL     OW18532   8.748   7.455   3.749
 5567SOL    HW118533   8.795   7.539   3.747
 5567SOL    HW218534   8.673   7.471   3.806
 5568SOL     OW18535  13.388   4.872   0.248
 5568SOL    HW118536  13.335   4.800   0.215
 5568SOL    HW218537  13.404   4.849   0.340
 5569SOL     OW18538  13.505   1.259   8.995
 5569SOL    HW118539  13.494   1.166   8.979
 5569SOL    HW218540  13.496   1.269   9.090
 5570SOL     OW18541  13.886  12.271   4.989
 5570SOL    HW118542  13.805  12.221   4.984
 5570SOL    HW218543  13.902  12.302   4.900
 5571SOL     OW18544   5.936   7.188   6.952
 5571SOL    HW118545   5.921   7.098   6.924
 5571SOL    HW218546   5.869   7.205   7.018
 5572SOL     OW18547   9.890   5.613   0.835
 5572SOL    HW118548   9.939   5.670   0.776
 5572SOL    HW218549   9.957   5.573   0.891
 5573SOL     OW18550   9.090  10.472  14.584
 5573SOL    HW118551   9.120  10.393  14.538
 5573SOL    HW218552   9.152  10.540  14.555
 5574SOL     OW18553  11.318  12.683   5.062
 5574SOL    HW118554  11.344  12.654   5.150
 5574SOL    HW218555  11.399  12.715   5.023
 5575SOL     OW18556  11.486  10.735   8.352
 5575SOL    HW118557  11.472  10.655   8.301
 5575SOL    HW218558  11.577  10.729   8.381
 5576SOL     OW18559  10.859   4.550   1.491
 5576SOL    HW118560  10.950   4.574   1.474
 5576SOL    HW218561  10.810   4.592   1.420
 5577SOL     OW18562   1.906  10.267   5.617
 5577SOL    HW118563   1.920  10.362   5.626
 5577SOL    HW218564   1.975  10.238   5.557
 5578SOL     OW18565   3.201  12.882   6.166
 5578SOL    HW118566   3.273  12.910   6.223
 5578SOL    HW218567   3.122  12.909   6.213
 5579SOL     OW18568   9.049  12.009   0.260
 5579SOL    HW118569   9.128  12.062   0.253
 5579SOL    HW218570   8.979  12.073   0.273
 5580SOL     OW18571  12.852   7.580  14.056
 5580SOL    HW118572  12.839   7.544  14.144
 5580SOL    HW218573  12.778   7.547  14.005
 5581SOL     OW18574   9.335   1.582   6.308
 5581SOL    HW118575   9.341   1.552   6.218
 5581SOL    HW218576   9.412   1.638   6.321
 5582SOL     OW18577   5.004  13.627  10.567
 5582SOL    HW118578   5.047  13.713  10.574
 5582SOL    HW218579   4.912  13.648  10.549
 5583SOL     OW18580   2.169  12.304  14.122
 5583SOL    HW118581   2.197  12.341  14.039
 5583SOL    HW218582   2.173  12.209  14.108
 5584SOL     OW18583  13.107   8.942  14.055
 5584SOL    HW118584  13.109   8.873  14.121
 5584SOL    HW218585  13.085   8.896  13.974
 5585SOL     OW18586   5.768   2.046   5.531
 5585SOL    HW118587   5.677   2.049   5.500
 5585SOL    HW218588   5.814   2.111   5.479
 5586SOL     OW18589   8.175   1.851   2.503
 5586SOL    HW118590   8.181   1.910   2.578
 5586SOL    HW218591   8.241   1.784   2.520
 5587SOL     OW18592   5.857   1.460   0.044
 5587SOL    HW118593   5.856   1.415  14.841
 5587SOL    HW218594   5.765   1.466   0.069
 5588SOL     OW18595   5.931   6.921   8.057
 5588SOL    HW118596   5.933   6.859   7.984
 5588SOL    HW218597   5.946   7.006   8.016
 5589SOL     OW18598   6.297   1.010   0.131
 5589SOL    HW118599   6.393   1.020   0.128
 5589SOL    HW218600   6.270   1.065   0.205
 5590SOL     OW18601   6.765   2.879   0.236
 5590SOL    HW118602   6.732   2.885   0.146
 5590SOL    HW218603   6.738   2.961   0.277
 5591SOL     OW18604   9.266   3.504  13.334
 5591SOL    HW118605   9.318   3.448  13.392
 5591SOL    HW218606   9.188   3.524  13.385
 5592SOL     OW18607  12.130   1.030   2.864
 5592SOL    HW118608  12.062   1.053   2.928
 5592SOL    HW218609  12.098   1.067   2.782
 5593SOL     OW18610   7.249   2.475   8.375
 5593SOL    HW118611   7.224   2.562   8.344
 5593SOL    HW218612   7.209   2.415   8.312
 5594SOL     OW18613   6.107   4.834   6.560
 5594SOL    HW118614   6.076   4.747   6.584
 5594SOL    HW218615   6.126   4.829   6.466
 5595SOL     OW18616  10.123   4.140   5.843
 5595SOL    HW118617  10.070   4.182   5.912
 5595SOL    HW218618  10.097   4.048   5.847
 5596SOL     OW18619   0.996   2.155   5.413
 5596SOL    HW118620   0.963   2.156   5.503
 5596SOL    HW218621   1.036   2.242   5.401
 5597SOL     OW18622   0.862  12.431   3.220
 5597SOL    HW118623   0.881  12.358   3.162
 5597SOL    HW218624   0.831  12.390   3.301
 5598SOL     OW18625   0.461   4.729   2.971
 5598SOL    HW118626   0.487   4.734   2.879
 5598SOL    HW218627   0.490   4.643   3.000
 5599SOL     OW18628  14.009   1.231  14.386
 5599SOL    HW118629  14.035   1.235  14.478
 5599SOL    HW218630  13.950   1.155  14.382
 5600SOL     OW18631   3.284  14.252   8.444
 5600SOL    HW118632   3.313  14.343   8.441
 5600SOL    HW218633   3.273  14.228   8.352
 5601SOL     OW18634   2.464  10.477   6.463
 5601SOL    HW118635   2.379  10.435   6.453
 5601SOL    HW218636   2.443  10.568   6.485
 5602SOL     OW18637   6.916   6.596  11.895
 5602SOL    HW118638   7.011   6.588  11.891
 5602SOL    HW218639   6.889   6.535  11.963
 5603SOL     OW18640   4.548   1.718  10.236
 5603SOL    HW118641   4.485   1.756  10.174
 5603SOL    HW218642   4.544   1.776  10.312
 5604SOL     OW18643  11.329   3.594   9.494
 5604SOL    HW118644  11.264   3.539   9.538
 5604SOL    HW218645  11.354   3.544   9.416
 5605SOL     OW18646   8.475   5.019   6.738
 5605SOL    HW118647   8.386   5.010   6.705
 5605SOL    HW218648   8.501   5.109   6.717
 5606SOL     OW18649   1.556  10.618   1.881
 5606SOL    HW118650   1.530  10.707   1.906
 5606SOL    HW218651   1.515  10.562   1.947
 5607SOL     OW18652  11.473  12.154   9.712
 5607SOL    HW118653  11.429  12.142   9.628
 5607SOL    HW218654  11.437  12.085   9.768
 5608SOL     OW18655   6.172  13.973  12.029
 5608SOL    HW118656   6.221  13.976  11.947
 5608SOL    HW218657   6.154  14.065  12.049
 5609SOL     OW18658   0.707   5.911   3.691
 5609SOL    HW118659   0.784   5.925   3.635
 5609SOL    HW218660   0.704   5.817   3.705
 5610SOL     OW18661   6.427  13.883   0.096
 5610SOL    HW118662   6.447  13.862   0.187
 5610SOL    HW218663   6.406  13.799   0.055
 5611SOL     OW18664  11.050   9.605   9.140
 5611SOL    HW118665  10.992   9.623   9.066
 5611SOL    HW218666  11.017   9.661   9.211
 5612SOL     OW18667  14.482   0.297  11.338
 5612SOL    HW118668  14.415   0.229  11.336
 5612SOL    HW218669  14.502   0.308  11.431
 5613SOL     OW18670  12.850   4.968  11.831
 5613SOL    HW118671  12.933   4.925  11.810
 5613SOL    HW218672  12.784   4.901  11.815
 5614SOL     OW18673   5.041   7.723   3.020
 5614SOL    HW118674   4.994   7.713   2.937
 5614SOL    HW218675   5.116   7.663   3.013
 5615SOL     OW18676   1.298  12.242   6.866
 5615SOL    HW118677   1.379  12.292   6.871
 5615SOL    HW218678   1.326  12.155   6.837
 5616SOL     OW18679   9.890   3.342   1.750
 5616SOL    HW118680   9.984   3.356   1.757
 5616SOL    HW218681   9.874   3.334   1.655
 5617SOL     OW18682   0.761   3.451   6.212
 5617SOL    HW118683   0.675   3.415   6.233
 5617SOL    HW218684   0.769   3.529   6.267
 5618SOL     OW18685  11.817   2.273   9.969
 5618SOL    HW118686  11.809   2.178   9.960
 5618SOL    HW218687  11.834   2.286  10.062
 5619SOL     OW18688   3.533   1.460   7.838
 5619SOL    HW118689   3.532   1.386   7.776
 5619SOL    HW218690   3.501   1.534   7.788
 5620SOL     OW18691   9.699  11.295  12.954
 5620SOL    HW118692   9.701  11.384  12.989
 5620SOL    HW218693   9.727  11.239  13.027
 5621SOL     OW18694   2.650  12.150   1.666
 5621SOL    HW118695   2.642  12.098   1.746
 5621SOL    HW218696   2.735  12.193   1.673
 5622SOL     OW18697   9.417   4.593   7.547
 5622SOL    HW118698   9.418   4.499   7.562
 5622SOL    HW218699   9.381   4.631   7.627
 5623SOL     OW18700   4.863   0.347   1.027
 5623SOL    HW118701   4.821   0.297   1.097
 5623SOL    HW218702   4.956   0.325   1.036
 5624SOL     OW18703  13.234   1.512  10.119
 5624SOL    HW118704  13.178   1.560  10.058
 5624SOL    HW218705  13.213   1.420  10.104
 5625SOL     OW18706  14.691  13.556   6.036
 5625SOL    HW118707  14.721  13.488   6.095
 5625SOL    HW218708  14.754  13.557   5.964
 5626SOL     OW18709   9.364   5.301   8.604
 5626SOL    HW118710   9.409   5.252   8.673
 5626SOL    HW218711   9.413   5.383   8.597
 5627SOL     OW18712   4.231   4.530  11.824
 5627SOL    HW118713   4.213   4.478  11.903
 5627SOL    HW218714   4.212   4.620  11.850
 5628SOL     OW18715   8.010   3.259   9.449
 5628SOL    HW118716   8.043   3.187   9.395
 5628SOL    HW218717   7.924   3.228   9.480
 5629SOL     OW18718  12.894  12.018  11.656
 5629SOL    HW118719  12.904  11.926  11.678
 5629SOL    HW218720  12.832  12.018  11.582
 5630SOL     OW18721   9.141   9.726  13.902
 5630SOL    HW118722   9.237   9.724  13.896
 5630SOL    HW218723   9.111   9.668  13.832
 5631SOL     OW18724   8.755   0.309  10.991
 5631SOL    HW118725   8.687   0.291  11.056
 5631SOL    HW218726   8.837   0.304  11.040
 5632SOL     OW18727   6.839   2.001   9.629
 5632SOL    HW118728   6.840   2.016   9.535
 5632SOL    HW218729   6.749   2.016   9.656
 5633SOL     OW18730  10.008   8.124  13.707
 5633SOL    HW118731  10.068   8.186  13.747
 5633SOL    HW218732   9.964   8.174  13.638
 5634SOL     OW18733  13.533  12.398   5.541
 5634SOL    HW118734  13.622  12.419   5.511
 5634SOL    HW218735  13.477  12.418   5.466
 5635SOL     OW18736  13.697   3.013   5.319
 5635SOL    HW118737  13.705   2.919   5.301
 5635SOL    HW218738  13.701   3.019   5.414
 5636SOL     OW18739  13.062   7.382   0.922
 5636SOL    HW118740  13.136   7.332   0.887
 5636SOL    HW218741  13.085   7.473   0.903
 5637SOL     OW18742   5.096  12.397  12.987
 5637SOL    HW118743   5.006  12.427  12.985
 5637SOL    HW218744   5.090  12.305  13.015
 5638SOL     OW18745   2.907   4.106   9.637
 5638SOL    HW118746   2.818   4.109   9.673
 5638SOL    HW218747   2.897   4.068   9.550
 5639SOL     OW18748   6.012   1.886  11.283
 5639SOL    HW118749   6.102   1.858  11.299
 5639SOL    HW218750   5.989   1.847  11.199
 5640SOL     OW18751  14.727   5.991   3.321
 5640SOL    HW118752  14.663   5.922   3.340
 5640SOL    HW218753  14.757   5.972   3.232
 5641SOL     OW18754   6.044   1.985  10.543
 5641SOL    HW118755   5.951   1.997  10.525
 5641SOL    HW218756   6.047   1.933  10.624
 5642SOL     OW18757  12.104   6.166  11.981
 5642SOL    HW118758  12.119   6.084  11.934
 5642SOL    HW218759  12.149   6.232  11.929
 5643SOL     OW18760   6.401   8.081   1.710
 5643SOL    HW118761   6.420   8.033   1.790
 5643SOL    HW218762   6.308   8.101   1.715
 5644SOL     OW18763  12.856   8.458   3.595
 5644SOL    HW118764  12.804   8.468   3.515
 5644SOL    HW218765  12.829   8.531   3.650
 5645SOL     OW18766  10.861   9.589  13.439
 5645SOL    HW118767  10.822   9.602  13.352
 5645SOL    HW218768  10.923   9.517  13.427
 5646SOL     OW18769   7.446   8.390  10.655
 5646SOL    HW118770   7.474   8.436  10.735
 5646SOL    HW218771   7.365   8.346  10.681
 5647SOL     OW18772  10.045   6.978   9.169
 5647SOL    HW118773   9.999   7.053   9.207
 5647SOL    HW218774  10.001   6.902   9.206
 5648SOL     OW18775   9.488   3.651   0.250
 5648SOL    HW118776   9.501   3.574   0.196
 5648SOL    HW218777   9.393   3.655   0.265
 5649SOL     OW18778   8.561   3.626   6.146
 5649SOL    HW118779   8.488   3.628   6.084
 5649SOL    HW218780   8.523   3.654   6.229
 5650SOL     OW18781   0.748  10.769  11.979
 5650SOL    HW118782   0.726  10.750  11.888
 5650SOL    HW218783   0.810  10.700  12.003
 5651SOL     OW18784   6.492   6.014   7.417
 5651SOL    HW118785   6.538   6.079   7.470
 5651SOL    HW218786   6.471   6.059   7.335
 5652SOL     OW18787   6.315   6.892   0.475
 5652SOL    HW118788   6.386   6.947   0.509
 5652SOL    HW218789   6.340   6.874   0.385
 5653SOL     OW18790   2.076   2.754   0.093
 5653SOL    HW118791   2.145   2.693   0.119
 5653SOL    HW218792   2.038   2.785   0.176
 5654SOL     OW18793  11.874   5.886   5.876
 5654SOL    HW118794  11.919   5.802   5.879
 5654SOL    HW218795  11.927   5.939   5.817
 5655SOL     OW18796  11.903   5.599   1.285
 5655SOL    HW118797  11.903   5.559   1.371
 5655SOL    HW218798  11.899   5.693   1.302
 5656SOL     OW18799   0.833   1.592   4.515
 5656SOL    HW118800   0.776   1.668   4.502
 5656SOL    HW218801   0.903   1.624   4.571
 5657SOL     OW18802   0.034  12.983   0.030
 5657SOL    HW118803   0.042  13.029  14.829
 5657SOL    HW218804  14.828  12.945   0.028
 5658SOL     OW18805   2.032   7.433  11.098
 5658SOL    HW118806   2.066   7.347  11.073
 5658SOL    HW218807   1.990   7.465  11.018
 5659SOL     OW18808   8.012   0.173  10.656
 5659SOL    HW118809   8.021   0.084  10.688
 5659SOL    HW218810   8.101   0.202  10.637
 5660SOL     OW18811  13.297   4.935   4.062
 5660SOL    HW118812  13.265   4.850   4.033
 5660SOL    HW218813  13.278   4.937   4.156
 5661SOL     OW18814  11.117   0.581   2.357
 5661SOL    HW118815  11.132   0.661   2.408
 5661SOL    HW218816  11.187   0.582   2.291
 5662SOL     OW18817   1.707   8.107   1.789
 5662SOL    HW118818   1.629   8.140   1.743
 5662SOL    HW218819   1.766   8.183   1.793
 5663SOL     OW18820   2.805  11.703   5.979
 5663SOL    HW118821   2.862  11.707   6.055
 5663SOL    HW218822   2.864  11.714   5.904
 5664SOL     OW18823   9.751  12.090   5.520
 5664SOL    HW118824   9.764  11.996   5.503
 5664SOL    HW218825   9.676  12.093   5.580
 5665SOL     OW18826   4.482  11.339   0.941
 5665SOL    HW118827   4.390  11.361   0.955
 5665SOL    HW218828   4.482  11.244   0.925
 5666SOL     OW18829   6.118   0.738   4.372
 5666SOL    HW118830   6.129   0.702   4.284
 5666SOL    HW218831   6.196   0.792   4.386
 5667SOL     OW18832   3.641  12.072  14.007
 5667SOL    HW118833   3.637  11.990  14.055
 5667SOL    HW218834   3.735  12.086  13.990
 5668SOL     OW18835   2.179   0.471   7.903
 5668SOL    HW118836   2.183   0.437   7.814
 5668SOL    HW218837   2.087   0.463   7.928
 5669SOL     OW18838  11.908   8.364   6.799
 5669SOL    HW118839  12.002   8.363   6.820
 5669SOL    HW218840  11.868   8.316   6.872
 5670SOL     OW18841  12.390   7.434   7.748
 5670SOL    HW118842  12.400   7.462   7.657
 5670SOL    HW218843  12.408   7.513   7.800
 5671SOL     OW18844  11.113  12.058   2.522
 5671SOL    HW118845  11.195  12.023   2.559
 5671SOL    HW218846  11.137  12.145   2.491
 5672SOL     OW18847   1.162  11.257   5.284
 5672SOL    HW118848   1.244  11.211   5.270
 5672SOL    HW218849   1.096  11.187   5.289
 5673SOL     OW18850   5.650   0.319   1.502
 5673SOL    HW118851   5.598   0.327   1.581
 5673SOL    HW218852   5.712   0.249   1.521
 5674SOL     OW18853  11.083   4.250  10.913
 5674SOL    HW118854  11.040   4.171  10.948
 5674SOL    HW218855  11.168   4.252  10.957
 5675SOL     OW18856  11.696   1.876   8.977
 5675SOL    HW118857  11.681   1.965   8.945
 5675SOL    HW218858  11.678   1.820   8.902
 5676SOL     OW18859  13.973  11.665   3.181
 5676SOL    HW118860  13.999  11.657   3.089
 5676SOL    HW218861  14.052  11.646   3.231
 5677SOL     OW18862  13.749   3.086   3.404
 5677SOL    HW118863  13.822   3.069   3.344
 5677SOL    HW218864  13.737   3.181   3.401
 5678SOL     OW18865   7.323  13.087  10.808
 5678SOL    HW118866   7.289  13.028  10.875
 5678SOL    HW218867   7.409  13.051  10.785
 5679SOL     OW18868   6.604   1.425   1.654
 5679SOL    HW118869   6.647   1.364   1.594
 5679SOL    HW218870   6.511   1.408   1.643
 5680SOL     OW18871  13.851   9.363   3.567
 5680SOL    HW118872  13.943   9.352   3.589
 5680SOL    HW218873  13.839   9.307   3.490
 5681SOL     OW18874   8.211   8.479  14.315
 5681SOL    HW118875   8.149   8.526  14.260
 5681SOL    HW218876   8.297   8.499  14.277
 5682SOL     OW18877   7.444  10.726   9.174
 5682SOL    HW118878   7.507  10.722   9.102
 5682SOL    HW218879   7.388  10.648   9.162
 5683SOL     OW18880  14.308   6.220   6.820
 5683SOL    HW118881  14.271   6.253   6.738
 5683SOL    HW218882  14.390   6.269   6.831
 5684SOL     OW18883  11.922   1.376  10.617
 5684SOL    HW118884  12.015   1.358  10.605
 5684SOL    HW218885  11.887   1.384  10.529
 5685SOL     OW18886   9.118   0.937   8.555
 5685SOL    HW118887   9.140   0.848   8.527
 5685SOL    HW218888   9.095   0.928   8.647
 5686SOL     OW18889   3.515   9.762  12.794
 5686SOL    HW118890   3.537   9.684  12.845
 5686SOL    HW218891   3.442   9.735  12.739
 5687SOL     OW18892   4.631  13.444   2.651
 5687SOL    HW118893   4.672  13.509   2.595
 5687SOL    HW218894   4.679  13.448   2.733
 5688SOL     OW18895   1.358   2.351   7.508
 5688SOL    HW118896   1.361   2.426   7.450
 5688SOL    HW218897   1.283   2.367   7.565
 5689SOL     OW18898   1.093   5.758  11.950
 5689SOL    HW118899   1.127   5.736  12.037
 5689SOL    HW218900   1.135   5.695  11.891
 5690SOL     OW18901   1.815   1.924   3.357
 5690SOL    HW118902   1.911   1.924   3.356
 5690SOL    HW218903   1.791   1.943   3.447
 5691SOL     OW18904  12.901   6.835   1.734
 5691SOL    HW118905  12.932   6.911   1.684
 5691SOL    HW218906  12.817   6.813   1.693
 5692SOL     OW18907   0.864   2.571   5.934
 5692SOL    HW118908   0.858   2.667   5.936
 5692SOL    HW218909   0.775   2.541   5.952
 5693SOL     OW18910  10.493   6.591   8.521
 5693SOL    HW118911  10.409   6.569   8.561
 5693SOL    HW218912  10.558   6.560   8.583
 5694SOL     OW18913  10.354  10.317  13.311
 5694SOL    HW118914  10.401  10.339  13.392
 5694SOL    HW218915  10.269  10.361  13.320
 5695SOL     OW18916   3.550   2.193   4.804
 5695SOL    HW118917   3.576   2.279   4.773
 5695SOL    HW218918   3.633   2.149   4.825
 5696SOL     OW18919   7.258  11.739   8.153
 5696SOL    HW118920   7.280  11.713   8.242
 5696SOL    HW218921   7.165  11.715   8.144
 5697SOL     OW18922   4.026   6.861  10.293
 5697SOL    HW118923   4.058   6.878  10.204
 5697SOL    HW218924   3.993   6.771  10.290
 5698SOL     OW18925  12.236   6.665   0.659
 5698SOL    HW118926  12.156   6.678   0.710
 5698SOL    HW218927  12.205   6.639   0.572
 5699SOL     OW18928   7.558   8.459   0.086
 5699SOL    HW118929   7.591   8.513   0.158
 5699SOL    HW218930   7.465   8.481   0.080
 5700SOL     OW18931   7.807   7.841   0.313
 5700SOL    HW118932   7.713   7.840   0.327
 5700SOL    HW218933   7.819   7.882   0.227
 5701SOL     OW18934   3.428  12.829   0.294
 5701SOL    HW118935   3.504  12.826   0.237
 5701SOL    HW218936   3.458  12.791   0.377
 5702SOL     OW18937   1.356   4.536  10.272
 5702SOL    HW118938   1.372   4.501  10.185
 5702SOL    HW218939   1.387   4.627  10.267
 5703SOL     OW18940  10.620   0.449  13.844
 5703SOL    HW118941  10.569   0.407  13.913
 5703SOL    HW218942  10.630   0.540  13.873
 5704SOL     OW18943   2.477   2.908   3.837
 5704SOL    HW118944   2.413   2.971   3.871
 5704SOL    HW218945   2.524   2.957   3.769
 5705SOL     OW18946  10.044   1.125   0.062
 5705SOL    HW118947  10.093   1.184   0.119
 5705SOL    HW218948  10.039   1.170  14.860
 5706SOL     OW18949   4.628  11.462  14.065
 5706SOL    HW118950   4.713  11.474  14.023
 5706SOL    HW218951   4.646  11.408  14.141
 5707SOL     OW18952   9.149   5.826   2.315
 5707SOL    HW118953   9.196   5.906   2.338
 5707SOL    HW218954   9.208   5.755   2.341
 5708SOL     OW18955   6.468  13.355  10.180
 5708SOL    HW118956   6.472  13.283  10.242
 5708SOL    HW218957   6.440  13.315  10.098
 5709SOL     OW18958   1.682   8.281   0.765
 5709SOL    HW118959   1.621   8.308   0.696
 5709SOL    HW218960   1.644   8.200   0.799
 5710SOL     OW18961  10.308   5.048   1.472
 5710SOL    HW118962  10.322   5.141   1.489
 5710SOL    HW218963  10.285   5.012   1.557
 5711SOL     OW18964   0.811  10.394  10.641
 5711SOL    HW118965   0.773  10.309  10.665
 5711SOL    HW218966   0.851  10.378  10.555
 5712SOL     OW18967  11.854   0.247   4.281
 5712SOL    HW118968  11.913   0.310   4.240
 5712SOL    HW218969  11.904   0.213   4.355
 5713SOL     OW18970   2.742  14.322  12.615
 5713SOL    HW118971   2.712  14.235  12.639
 5713SOL    HW218972   2.665  14.366  12.580
 5714SOL     OW18973   4.874   2.499   0.785
 5714SOL    HW118974   4.939   2.556   0.825
 5714SOL    HW218975   4.920   2.417   0.769
 5715SOL     OW18976   1.974   8.555   6.538
 5715SOL    HW118977   1.973   8.526   6.446
 5715SOL    HW218978   1.997   8.476   6.587
 5716SOL     OW18979  10.606   0.267  13.465
 5716SOL    HW118980  10.640   0.348  13.427
 5716SOL    HW218981  10.647   0.261  13.551
 5717SOL     OW18982   3.745   0.231   7.408
 5717SOL    HW118983   3.793   0.227   7.491
 5717SOL    HW218984   3.660   0.268   7.432
 5718SOL     OW18985  10.336   5.513   6.223
 5718SOL    HW118986  10.414   5.505   6.277
 5718SOL    HW218987  10.326   5.427   6.182
 5719SOL     OW18988  11.197   5.788   4.971
 5719SOL    HW118989  11.258   5.846   4.925
 5719SOL    HW218990  11.210   5.702   4.930
 5720SOL     OW18991  11.928   8.614   1.882
 5720SOL    HW118992  11.899   8.699   1.848
 5720SOL    HW218993  12.009   8.596   1.834
 5721SOL     OW18994  11.317  11.677   5.676
 5721SOL    HW118995  11.408  11.708   5.677
 5721SOL    HW218996  11.311  11.617   5.750
 5722SOL     OW18997   0.459   4.954   3.150
 5722SOL    HW118998   0.440   5.021   3.084
 5722SOL    HW218999   0.478   4.875   3.099
 5723SOL     OW19000   3.183   3.476  12.911
 5723SOL    HW119001   3.100   3.429  12.905
 5723SOL    HW219002   3.235   3.444  12.837
 5724SOL     OW19003   7.199   8.184  13.801
 5724SOL    HW119004   7.278   8.134  13.822
 5724SOL    HW219005   7.133   8.117  13.784
 5725SOL     OW19006   5.019  13.986  14.167
 5725SOL    HW119007   5.087  14.043  14.131
 5725SOL    HW219008   5.057  13.898  14.163
 5726SOL     OW19009  13.019   7.696   9.410
 5726SOL    HW119010  13.043   7.736   9.326
 5726SOL    HW219011  12.991   7.607   9.387
 5727SOL     OW19012  14.176  13.881  13.889
 5727SOL    HW119013  14.180  13.796  13.933
 5727SOL    HW219014  14.263  13.892  13.850
 5728SOL     OW19015  11.430   4.180  10.587
 5728SOL    HW119016  11.410   4.162  10.679
 5728SOL    HW219017  11.495   4.114  10.563
 5729SOL     OW19018   4.748  13.634   0.612
 5729SOL    HW119019   4.694  13.620   0.690
 5729SOL    HW219020   4.813  13.699   0.639
 5730SOL     OW19021  11.052   0.617  13.156
 5730SOL    HW119022  11.107   0.661  13.220
 5730SOL    HW219023  11.109   0.606  13.079
 5731SOL     OW19024   0.033  10.622   5.278
 5731SOL    HW119025   0.124  10.651   5.273
 5731SOL    HW219026   0.026  10.577   5.362
 5732SOL     OW19027   2.610  13.996   5.548
 5732SOL    HW119028   2.528  13.997   5.500
 5732SOL    HW219029   2.671  13.951   5.489
 5733SOL     OW19030  11.287  12.092  13.009
 5733SOL    HW119031  11.272  12.139  12.927
 5733SOL    HW219032  11.353  12.025  12.987
 5734SOL     OW19033  14.278  11.590   8.646
 5734SOL    HW119034  14.189  11.623   8.656
 5734SOL    HW219035  14.269  11.495   8.649
 5735SOL     OW19036   1.193  14.216   0.628
 5735SOL    HW119037   1.099  14.207   0.615
 5735SOL    HW219038   1.232  14.173   0.552
 5736SOL     OW19039   1.505   1.511   9.313
 5736SOL    HW119040   1.439   1.442   9.314
 5736SOL    HW219041   1.538   1.512   9.223
 5737SOL     OW19042   0.370   1.459  12.140
 5737SOL    HW119043   0.391   1.517  12.066
 5737SOL    HW219044   0.339   1.519  12.208
 5738SOL     OW19045   3.841   9.165   1.906
 5738SOL    HW119046   3.809   9.156   1.817
 5738SOL    HW219047   3.921   9.113   1.909
 5739SOL     OW19048   4.131  11.600   8.670
 5739SOL    HW119049   4.087  11.658   8.732
 5739SOL    HW219050   4.142  11.517   8.717
 5740SOL     OW19051   3.820   5.887  10.508
 5740SOL    HW119052   3.894   5.895  10.448
 5740SOL    HW219053   3.833   5.802  10.551
 5741SOL     OW19054  12.829  13.823  10.120
 5741SOL    HW119055  12.854  13.865  10.202
 5741SOL    HW219056  12.864  13.881  10.052
 5742SOL     OW19057   7.356   2.873   2.204
 5742SOL    HW119058   7.274   2.823   2.209
 5742SOL    HW219059   7.402   2.835   2.129
 5743SOL     OW19060   9.003   1.761  11.893
 5743SOL    HW119061   8.934   1.695  11.902
 5743SOL    HW219062   8.955   1.842  11.873
 5744SOL     OW19063   7.502  10.045   8.827
 5744SOL    HW119064   7.410  10.073   8.826
 5744SOL    HW219065   7.551  10.125   8.807
 5745SOL     OW19066   0.943  11.546   4.713
 5745SOL    HW119067   0.981  11.614   4.769
 5745SOL    HW219068   0.885  11.496   4.771
 5746SOL     OW19069  14.683   7.010   2.707
 5746SOL    HW119070  14.750   7.040   2.769
 5746SOL    HW219071  14.725   7.019   2.621
 5747SOL     OW19072   8.761   2.066  11.792
 5747SOL    HW119073   8.830   2.073  11.726
 5747SOL    HW219074   8.805   2.029  11.869
 5748SOL     OW19075  12.581   0.886  12.296
 5748SOL    HW119076  12.617   0.811  12.343
 5748SOL    HW219077  12.528   0.932  12.361
 5749SOL     OW19078   7.273  11.999  14.559
 5749SOL    HW119079   7.238  12.087  14.542
 5749SOL    HW219080   7.355  12.015  14.606
 5750SOL     OW19081  14.369  11.020   6.950
 5750SOL    HW119082  14.430  10.964   6.998
 5750SOL    HW219083  14.313  10.959   6.903
 5751SOL     OW19084  13.603  12.645  11.681
 5751SOL    HW119085  13.543  12.605  11.618
 5751SOL    HW219086  13.690  12.623  11.648
 5752SOL     OW19087  11.879   5.422  14.355
 5752SOL    HW119088  11.960   5.372  14.345
 5752SOL    HW219089  11.836   5.415  14.270
 5753SOL     OW19090  13.133   3.815   3.911
 5753SOL    HW119091  13.227   3.824   3.895
 5753SOL    HW219092  13.092   3.843   3.829
 5754SOL     OW19093  13.769   1.024   1.969
 5754SOL    HW119094  13.809   1.109   1.986
 5754SOL    HW219095  13.741   0.992   2.055
 5755SOL     OW19096   7.679   4.449   5.292
 5755SOL    HW119097   7.624   4.501   5.350
 5755SOL    HW219098   7.660   4.483   5.204
 5756SOL     OW19099   3.459   3.385  12.231
 5756SOL    HW119100   3.527   3.427  12.177
 5756SOL    HW219101   3.503   3.309  12.269
 5757SOL     OW19102   2.004   9.269  10.180
 5757SOL    HW119103   1.966   9.201  10.125
 5757SOL    HW219104   2.098   9.262  10.164
 5758SOL     OW19105   2.439  10.302   6.803
 5758SOL    HW119106   2.454  10.322   6.895
 5758SOL    HW219107   2.468  10.380   6.756
 5759SOL     OW19108  10.492   5.177   5.084
 5759SOL    HW119109  10.429   5.246   5.067
 5759SOL    HW219110  10.470   5.145   5.172
 5760SOL     OW19111  11.828   6.492   5.773
 5760SOL    HW119112  11.889   6.545   5.823
 5760SOL    HW219113  11.768   6.456   5.838
 5761SOL     OW19114   7.648  13.223   1.470
 5761SOL    HW119115   7.589  13.162   1.426
 5761SOL    HW219116   7.591  13.295   1.499
 5762SOL     OW19117  14.158   2.571  13.389
 5762SOL    HW119118  14.144   2.663  13.366
 5762SOL    HW219119  14.133   2.565  13.481
 5763SOL     OW19120   8.675   0.814  10.231
 5763SOL    HW119121   8.749   0.858  10.189
 5763SOL    HW219122   8.716   0.755  10.295
 5764SOL     OW19123   9.239  13.448  10.561
 5764SOL    HW119124   9.196  13.381  10.613
 5764SOL    HW219125   9.174  13.517  10.551
 5765SOL     OW19126   8.304   1.843   9.321
 5765SOL    HW119127   8.393   1.869   9.346
 5765SOL    HW219128   8.255   1.925   9.317
 5766SOL     OW19129   4.260   6.679   9.856
 5766SOL    HW119130   4.297   6.750   9.804
 5766SOL    HW219131   4.177   6.658   9.813
 5767SOL     OW19132  13.495   4.040   1.020
 5767SOL    HW119133  13.406   4.050   0.987
 5767SOL    HW219134  13.513   3.946   1.015
 5768SOL     OW19135   7.243   5.499   7.474
 5768SOL    HW119136   7.285   5.581   7.448
 5768SOL    HW219137   7.298   5.431   7.437
 5769SOL     OW19138   2.231  10.344   6.458
 5769SOL    HW119139   2.198  10.425   6.497
 5769SOL    HW219140   2.174  10.329   6.383
 5770SOL     OW19141   1.137  14.621   0.019
 5770SOL    HW119142   1.189  14.545   0.046
 5770SOL    HW219143   1.094  14.650   0.099
 5771SOL     OW19144  10.093   8.275   8.813
 5771SOL    HW119145  10.015   8.280   8.758
 5771SOL    HW219146  10.065   8.224   8.889
 5772SOL     OW19147   4.555  12.039   0.193
 5772SOL    HW119148   4.522  12.011   0.278
 5772SOL    HW219149   4.535  11.966   0.134
 5773SOL     OW19150   9.997   8.442  12.431
 5773SOL    HW119151  10.082   8.471  12.463
 5773SOL    HW219152  10.017   8.388  12.354
 5774SOL     OW19153  13.279   9.935   0.068
 5774SOL    HW119154  13.200   9.934   0.123
 5774SOL    HW219155  13.350   9.911   0.127
 5775SOL     OW19156   6.814  13.203   2.916
 5775SOL    HW119157   6.750  13.140   2.948
 5775SOL    HW219158   6.899  13.160   2.928
 5776SOL     OW19159   7.239   6.638   5.220
 5776SOL    HW119160   7.176   6.566   5.210
 5776SOL    HW219161   7.253   6.669   5.130
 5777SOL     OW19162  14.757  12.209   6.337
 5777SOL    HW119163  14.792  12.148   6.273
 5777SOL    HW219164  14.822  12.211   6.406
 5778SOL     OW19165   2.396   0.387  12.428
 5778SOL    HW119166   2.309   0.358  12.399
 5778SOL    HW219167   2.382   0.477  12.458
 5779SOL     OW19168   6.479   1.578  12.484
 5779SOL    HW119169   6.543   1.648  12.471
 5779SOL    HW219170   6.532   1.498  12.490
 5780SOL     OW19171   8.191  14.666   0.812
 5780SOL    HW119172   8.148  14.662   0.726
 5780SOL    HW219173   8.211  14.575   0.833
 5781SOL     OW19174   2.905   2.737   3.669
 5781SOL    HW119175   2.856   2.809   3.709
 5781SOL    HW219176   2.892   2.749   3.575
 5782SOL     OW19177  12.787  11.558   5.925
 5782SOL    HW119178  12.840  11.626   5.884
 5782SOL    HW219179  12.750  11.600   6.003
 5783SOL     OW19180  11.941   3.543  10.765
 5783SOL    HW119181  11.975   3.468  10.814
 5783SOL    HW219182  12.018   3.585  10.727
 5784SOL     OW19183   6.971   2.603  14.740
 5784SOL    HW119184   6.876   2.596  14.732
 5784SOL    HW219185   7.003   2.515  14.724
 5785SOL     OW19186   8.732   7.802   8.581
 5785SOL    HW119187   8.719   7.749   8.660
 5785SOL    HW219188   8.753   7.738   8.513
 5786SOL     OW19189   4.653  13.653   9.538
 5786SOL    HW119190   4.571  13.605   9.534
 5786SOL    HW219191   4.658  13.699   9.454
 5787SOL     OW19192  11.238   1.344   5.722
 5787SOL    HW119193  11.315   1.289   5.736
 5787SOL    HW219194  11.193   1.345   5.807
 5788SOL     OW19195   2.043   8.931  11.833
 5788SOL    HW119196   1.966   8.984  11.810
 5788SOL    HW219197   2.115   8.972  11.786
 5789SOL     OW19198   4.086   7.215  13.647
 5789SOL    HW119199   4.074   7.223  13.552
 5789SOL    HW219200   4.137   7.292  13.672
 5790SOL     OW19201  14.481   3.502  13.161
 5790SOL    HW119202  14.422   3.557  13.110
 5790SOL    HW219203  14.539   3.564  13.205
 5791SOL     OW19204  11.152  11.776   0.680
 5791SOL    HW119205  11.110  11.862   0.685
 5791SOL    HW219206  11.190  11.763   0.767
 5792SOL     OW19207   7.601   5.122   0.291
 5792SOL    HW119208   7.601   5.171   0.209
 5792SOL    HW219209   7.508   5.107   0.309
 5793SOL     OW19210   6.294   4.115   6.092
 5793SOL    HW119211   6.373   4.168   6.101
 5793SOL    HW219212   6.238   4.166   6.032
 5794SOL     OW19213  10.161   5.795   0.204
 5794SOL    HW119214  10.156   5.839   0.119
 5794SOL    HW219215  10.106   5.848   0.262
 5795SOL     OW19216  13.463  11.604   3.604
 5795SOL    HW119217  13.500  11.519   3.583
 5795SOL    HW219218  13.533  11.666   3.581
 5796SOL     OW19219  10.416   8.599  11.052
 5796SOL    HW119220  10.500   8.608  11.097
 5796SOL    HW219221  10.358   8.658  11.099
 5797SOL     OW19222   9.092   1.448   6.855
 5797SOL    HW119223   9.077   1.543   6.852
 5797SOL    HW219224   9.070   1.424   6.945
 5798SOL     OW19225   9.627   1.475  13.578
 5798SOL    HW119226   9.687   1.543  13.610
 5798SOL    HW219227   9.675   1.393  13.591
 5799SOL     OW19228   2.904   7.213   0.337
 5799SOL    HW119229   2.969   7.253   0.395
 5799SOL    HW219230   2.835   7.182   0.396
 5800SOL     OW19231  10.966   1.175   4.567
 5800SOL    HW119232  11.057   1.198   4.545
 5800SOL    HW219233  10.974   1.108   4.635
 5801SOL     OW19234  12.765   8.497  12.795
 5801SOL    HW119235  12.717   8.414  12.797
 5801SOL    HW219236  12.769   8.520  12.702
 5802SOL     OW19237  14.411  11.729  13.861
 5802SOL    HW119238  14.390  11.695  13.775
 5802SOL    HW219239  14.476  11.798  13.844
 5803SOL     OW19240   8.685   1.962   8.346
 5803SOL    HW119241   8.706   2.038   8.401
 5803SOL    HW219242   8.729   1.979   8.263
 5804SOL     OW19243  14.124  14.855  13.547
 5804SOL    HW119244  14.200   0.019  13.582
 5804SOL    HW219245  14.053   0.037  13.550
 5805SOL     OW19246   3.650  13.455  13.298
 5805SOL    HW119247   3.689  13.469  13.384
 5805SOL    HW219248   3.640  13.360  13.290
 5806SOL     OW19249   3.188   7.765   7.051
 5806SOL    HW119250   3.167   7.699   7.117
 5806SOL    HW219251   3.201   7.846   7.101
 5807SOL     OW19252  13.283   6.150   3.777
 5807SOL    HW119253  13.195   6.184   3.759
 5807SOL    HW219254  13.326   6.148   3.691
 5808SOL     OW19255   2.322   0.075  11.139
 5808SOL    HW119256   2.331   0.134  11.065
 5808SOL    HW219257   2.343   0.128  11.216
 5809SOL     OW19258   1.664   7.370  10.436
 5809SOL    HW119259   1.661   7.327  10.351
 5809SOL    HW219260   1.627   7.457  10.421
 5810SOL     OW19261  14.390   3.926   6.723
 5810SOL    HW119262  14.421   3.836   6.714
 5810SOL    HW219263  14.376   3.936   6.818
 5811SOL     OW19264   0.396   6.352   7.290
 5811SOL    HW119265   0.301   6.364   7.289
 5811SOL    HW219266   0.418   6.347   7.383
 5812SOL     OW19267   0.622   3.218   9.934
 5812SOL    HW119268   0.639   3.266  10.016
 5812SOL    HW219269   0.539   3.253   9.902
 5813SOL     OW19270   2.242  10.926   6.744
 5813SOL    HW119271   2.299  10.916   6.668
 5813SOL    HW219272   2.157  10.893   6.715
 5814SOL     OW19273   1.499  11.173   0.266
 5814SOL    HW119274   1.424  11.223   0.233
 5814SOL    HW219275   1.471  11.082   0.262
 5815SOL     OW19276   5.988  14.759  13.610
 5815SOL    HW119277   5.966  14.852  13.613
 5815SOL    HW219278   5.912  14.718  13.571
 5816SOL     OW19279   2.306   1.961   6.453
 5816SOL    HW119280   2.343   1.892   6.509
 5816SOL    HW219281   2.214   1.938   6.444
 5817SOL     OW19282   2.467  14.357   7.120
 5817SOL    HW119283   2.373  14.343   7.105
 5817SOL    HW219284   2.477  14.344   7.215
 5818SOL     OW19285   7.006   1.261  13.511
 5818SOL    HW119286   6.924   1.262  13.461
 5818SOL    HW219287   6.981   1.292  13.598
 5819SOL     OW19288   7.735   4.624  12.568
 5819SOL    HW119289   7.709   4.560  12.634
 5819SOL    HW219290   7.670   4.694  12.575
 5820SOL     OW19291   9.496   1.243   6.968
 5820SOL    HW119292   9.493   1.167   6.909
 5820SOL    HW219293   9.444   1.310   6.924
 5821SOL     OW19294   9.448   8.990   8.331
 5821SOL    HW119295   9.485   9.072   8.300
 5821SOL    HW219296   9.397   8.957   8.257
 5822SOL     OW19297  12.579  13.895   6.832
 5822SOL    HW119298  12.485  13.894   6.847
 5822SOL    HW219299  12.589  13.878   6.739
 5823SOL     OW19300   4.125  13.427   9.943
 5823SOL    HW119301   4.090  13.490  10.007
 5823SOL    HW219302   4.099  13.463   9.858
 5824SOL     OW19303   9.068   1.231   5.069
 5824SOL    HW119304   9.024   1.301   5.118
 5824SOL    HW219305   9.084   1.268   4.983
 5825SOL     OW19306   9.080   1.090   3.295
 5825SOL    HW119307   9.003   1.145   3.312
 5825SOL    HW219308   9.132   1.097   3.374
 5826SOL     OW19309  12.979  12.270   1.606
 5826SOL    HW119310  13.039  12.293   1.677
 5826SOL    HW219311  13.036  12.251   1.532
 5827SOL     OW19312   4.659   2.621   0.921
 5827SOL    HW119313   4.680   2.528   0.932
 5827SOL    HW219314   4.742   2.666   0.938
 5828SOL     OW19315   3.190   8.495   3.599
 5828SOL    HW119316   3.250   8.567   3.583
 5828SOL    HW219317   3.114   8.536   3.641
 5829SOL     OW19318  11.194   4.545   9.323
 5829SOL    HW119319  11.281   4.586   9.321
 5829SOL    HW219320  11.181   4.520   9.414
 5830SOL     OW19321   1.336   9.089  10.898
 5830SOL    HW119322   1.342   9.001  10.861
 5830SOL    HW219323   1.409   9.094  10.960
 5831SOL     OW19324  11.412   8.192   8.747
 5831SOL    HW119325  11.476   8.246   8.793
 5831SOL    HW219326  11.418   8.106   8.790
 5832SOL     OW19327   1.826  11.843   6.130
 5832SOL    HW119328   1.779  11.926   6.122
 5832SOL    HW219329   1.765  11.777   6.097
 5833SOL     OW19330   0.644  10.976  12.838
 5833SOL    HW119331   0.701  11.032  12.784
 5833SOL    HW219332   0.600  11.037  12.897
 5834SOL     OW19333   3.598  10.946  10.238
 5834SOL    HW119334   3.566  10.962  10.149
 5834SOL    HW219335   3.572  10.856  10.258
 5835SOL     OW19336   1.886  11.625  11.269
 5835SOL    HW119337   1.861  11.692  11.333
 5835SOL    HW219338   1.960  11.664  11.222
 5836SOL     OW19339  10.533   6.430  13.001
 5836SOL    HW119340  10.560   6.338  12.999
 5836SOL    HW219341  10.472   6.436  13.075
 5837SOL     OW19342   9.266   1.134  12.635
 5837SOL    HW119343   9.352   1.165  12.660
 5837SOL    HW219344   9.250   1.173  12.549
 5838SOL     OW19345  13.649   2.316   4.065
 5838SOL    HW119346  13.620   2.397   4.106
 5838SOL    HW219347  13.653   2.336   3.972
 5839SOL     OW19348   9.585   8.814   6.227
 5839SOL    HW119349   9.595   8.815   6.132
 5839SOL    HW219350   9.490   8.811   6.241
 5840SOL     OW19351   4.112   1.843   0.855
 5840SOL    HW119352   4.066   1.840   0.939
 5840SOL    HW219353   4.103   1.754   0.820
 5841SOL     OW19354   6.817   2.925   9.729
 5841SOL    HW119355   6.840   2.883   9.646
 5841SOL    HW219356   6.725   2.949   9.719
 5842SOL     OW19357   2.556   4.105   1.347
 5842SOL    HW119358   2.611   4.099   1.268
 5842SOL    HW219359   2.613   4.077   1.418
 5843SOL     OW19360   3.817   0.704   6.749
 5843SOL    HW119361   3.810   0.798   6.733
 5843SOL    HW219362   3.789   0.693   6.839
 5844SOL     OW19363  12.534   7.585   9.469
 5844SOL    HW119364  12.491   7.499   9.466
 5844SOL    HW219365  12.487   7.632   9.538
 5845SOL     OW19366   9.602   6.781   5.523
 5845SOL    HW119367   9.674   6.824   5.477
 5845SOL    HW219368   9.581   6.840   5.595
 5846SOL     OW19369   9.339   8.666   8.428
 5846SOL    HW119370   9.298   8.703   8.350
 5846SOL    HW219371   9.284   8.693   8.500
 5847SOL     OW19372   7.465  11.185  10.171
 5847SOL    HW119373   7.502  11.122  10.233
 5847SOL    HW219374   7.506  11.269  10.195
 5848SOL     OW19375   2.472   2.460   3.714
 5848SOL    HW119376   2.568   2.451   3.711
 5848SOL    HW219377   2.457   2.531   3.777
 5849SOL     OW19378   5.583   5.017  12.702
 5849SOL    HW119379   5.612   5.068  12.626
 5849SOL    HW219380   5.579   5.081  12.773
 5850SOL     OW19381   7.396   0.677  11.368
 5850SOL    HW119382   7.334   0.749  11.377
 5850SOL    HW219383   7.410   0.669  11.274
 5851SOL     OW19384   6.981  12.188  10.126
 5851SOL    HW119385   6.897  12.203  10.168
 5851SOL    HW219386   7.033  12.141  10.191
 5852SOL     OW19387   9.138   3.498   8.392
 5852SOL    HW119388   9.158   3.536   8.306
 5852SOL    HW219389   9.053   3.457   8.380
 5853SOL     OW19390   7.488  12.980   7.115
 5853SOL    HW119391   7.440  12.903   7.085
 5853SOL    HW219392   7.444  13.006   7.196
 5854SOL     OW19393   4.676   6.904   5.520
 5854SOL    HW119394   4.689   6.819   5.562
 5854SOL    HW219395   4.759   6.949   5.529
 5855SOL     OW19396   3.126  13.983   5.449
 5855SOL    HW119397   3.194  14.046   5.472
 5855SOL    HW219398   3.078  14.025   5.377
 5856SOL     OW19399   4.312   7.571   6.381
 5856SOL    HW119400   4.265   7.655   6.382
 5856SOL    HW219401   4.397   7.592   6.343
 5857SOL     OW19402   7.905   0.570   1.491
 5857SOL    HW119403   7.981   0.627   1.477
 5857SOL    HW219404   7.861   0.606   1.568
 5858SOL     OW19405  11.529  10.128  12.762
 5858SOL    HW119406  11.617  10.090  12.763
 5858SOL    HW219407  11.479  10.072  12.821
 5859SOL     OW19408  14.208   5.799   8.220
 5859SOL    HW119409  14.249   5.885   8.209
 5859SOL    HW219410  14.160   5.806   8.303
 5860SOL     OW19411  14.681  12.603   1.684
 5860SOL    HW119412  14.654  12.679   1.735
 5860SOL    HW219413  14.691  12.636   1.595
 5861SOL     OW19414   2.554   8.847   5.714
 5861SOL    HW119415   2.512   8.915   5.766
 5861SOL    HW219416   2.483   8.806   5.664
 5862SOL     OW19417   4.041   1.245  10.278
 5862SOL    HW119418   4.058   1.338  10.269
 5862SOL    HW219419   3.991   1.222  10.200
 5863SOL     OW19420   9.189  12.887   0.514
 5863SOL    HW119421   9.226  12.963   0.470
 5863SOL    HW219422   9.224  12.812   0.466
 5864SOL     OW19423  12.645   1.123  12.189
 5864SOL    HW119424  12.627   1.040  12.233
 5864SOL    HW219425  12.599   1.189  12.241
 5865SOL     OW19426   5.320  12.061   2.144
 5865SOL    HW119427   5.307  12.049   2.238
 5865SOL    HW219428   5.415  12.069   2.134
 5866SOL     OW19429   6.927  12.219   3.757
 5866SOL    HW119430   6.995  12.272   3.798
 5866SOL    HW219431   6.947  12.129   3.784
 5867SOL     OW19432   1.799  10.312   9.969
 5867SOL    HW119433   1.809  10.294   9.875
 5867SOL    HW219434   1.713  10.277   9.990
 5868SOL     OW19435   3.861   0.499   7.829
 5868SOL    HW119436   3.913   0.569   7.789
 5868SOL    HW219437   3.771   0.531   7.828
 5869SOL     OW19438   5.570  10.076  14.664
 5869SOL    HW119439   5.597  10.104  14.751
 5869SOL    HW219440   5.594   9.983  14.659
 5870SOL     OW19441  10.758   2.349   3.437
 5870SOL    HW119442  10.723   2.384   3.519
 5870SOL    HW219443  10.804   2.269   3.462
 5871SOL     OW19444   7.174   2.871  12.015
 5871SOL    HW119445   7.210   2.848  11.930
 5871SOL    HW219446   7.112   2.941  11.997
 5872SOL     OW19447   2.601  14.140   7.020
 5872SOL    HW119448   2.546  14.208   7.060
 5872SOL    HW219449   2.649  14.102   7.094
 5873SOL     OW19450  14.624  14.652  10.398
 5873SOL    HW119451  14.631  14.663  10.493
 5873SOL    HW219452  14.532  14.669  10.378
 5874SOL     OW19453  11.321  10.872   1.733
 5874SOL    HW119454  11.353  10.786   1.762
 5874SOL    HW219455  11.369  10.935   1.787
 5875SOL     OW19456   0.761   9.294   5.035
 5875SOL    HW119457   0.758   9.255   4.948
 5875SOL    HW219458   0.711   9.234   5.090
 5876SOL     OW19459   2.056   4.982   7.483
 5876SOL    HW119460   1.991   4.953   7.546
 5876SOL    HW219461   2.012   4.976   7.398
 5877SOL     OW19462  10.632   9.521   6.043
 5877SOL    HW119463  10.575   9.574   5.988
 5877SOL    HW219464  10.649   9.442   5.991
 5878SOL     OW19465   9.417   1.916   0.621
 5878SOL    HW119466   9.409   1.999   0.575
 5878SOL    HW219467   9.388   1.850   0.558
 5879SOL     OW19468  11.497   1.900  14.249
 5879SOL    HW119469  11.537   1.948  14.322
 5879SOL    HW219470  11.557   1.828  14.233
 5880SOL     OW19471  10.043  13.831  11.484
 5880SOL    HW119472  10.001  13.781  11.414
 5880SOL    HW219473   9.971  13.878  11.526
 5881SOL     OW19474   1.106  14.854   6.698
 5881SOL    HW119475   1.162  14.788   6.660
 5881SOL    HW219476   1.110   0.046   6.637
 5882SOL     OW19477   3.323   5.165   4.381
 5882SOL    HW119478   3.231   5.192   4.375
 5882SOL    HW219479   3.325   5.106   4.456
 5883SOL     OW19480  12.579   8.417   0.481
 5883SOL    HW119481  12.638   8.354   0.523
 5883SOL    HW219482  12.607   8.502   0.514
 5884SOL     OW19483   1.398  11.121  11.190
 5884SOL    HW119484   1.480  11.170  11.190
 5884SOL    HW219485   1.393  11.082  11.277
 5885SOL     OW19486   4.113  14.781  11.215
 5885SOL    HW119487   4.120  14.864  11.263
 5885SOL    HW219488   4.043  14.733  11.260
 5886SOL     OW19489   8.448   5.160  10.530
 5886SOL    HW119490   8.461   5.250  10.502
 5886SOL    HW219491   8.442   5.165  10.626
 5887SOL     OW19492   1.882  12.587   7.375
 5887SOL    HW119493   1.955  12.561   7.319
 5887SOL    HW219494   1.860  12.676   7.348
 5888SOL     OW19495   4.092  10.144  10.515
 5888SOL    HW119496   4.018  10.149  10.576
 5888SOL    HW219497   4.053  10.119  10.432
 5889SOL     OW19498   3.867   7.878  11.129
 5889SOL    HW119499   3.791   7.925  11.096
 5889SOL    HW219500   3.937   7.898  11.067
 5890SOL     OW19501   3.439   6.825  11.238
 5890SOL    HW119502   3.422   6.751  11.179
 5890SOL    HW219503   3.490   6.887  11.185
 5891SOL     OW19504   4.801   8.030  14.249
 5891SOL    HW119505   4.758   8.100  14.201
 5891SOL    HW219506   4.884   8.070  14.278
 5892SOL     OW19507   3.310   1.206   7.143
 5892SOL    HW119508   3.326   1.286   7.192
 5892SOL    HW219509   3.328   1.229   7.052
 5893SOL     OW19510  11.964   6.729  11.926
 5893SOL    HW119511  11.988   6.821  11.936
 5893SOL    HW219512  11.959   6.716  11.831
 5894SOL     OW19513   1.901   0.795   9.365
 5894SOL    HW119514   1.929   0.719   9.314
 5894SOL    HW219515   1.914   0.870   9.306
 5895SOL     OW19516  11.410   3.253   0.868
 5895SOL    HW119517  11.420   3.266   0.963
 5895SOL    HW219518  11.347   3.182   0.860
 5896SOL     OW19519   6.991   2.048  12.337
 5896SOL    HW119520   6.954   1.961  12.325
 5896SOL    HW219521   7.034   2.045  12.422
 5897SOL     OW19522   6.691   3.948   1.646
 5897SOL    HW119523   6.630   3.912   1.710
 5897SOL    HW219524   6.660   3.914   1.562
 5898SOL     OW19525   4.488  14.364  13.248
 5898SOL    HW119526   4.504  14.349  13.155
 5898SOL    HW219527   4.487  14.459  13.257
 5899SOL     OW19528   4.326   0.203  12.293
 5899SOL    HW119529   4.231   0.191  12.291
 5899SOL    HW219530   4.351   0.207  12.200
 5900SOL     OW19531   6.318   5.715  13.794
 5900SOL    HW119532   6.225   5.734  13.806
 5900SOL    HW219533   6.362   5.793  13.828
 5901SOL     OW19534  14.475  13.750  12.426
 5901SOL    HW119535  14.387  13.715  12.412
 5901SOL    HW219536  14.522  13.678  12.471
 5902SOL     OW19537   7.841  11.492   8.301
 5902SOL    HW119538   7.841  11.404   8.263
 5902SOL    HW219539   7.904  11.487   8.372
 5903SOL     OW19540   1.365  13.814   8.616
 5903SOL    HW119541   1.330  13.725   8.620
 5903SOL    HW219542   1.446  13.809   8.666
 5904SOL     OW19543   4.757  14.761  10.209
 5904SOL    HW119544   4.816  14.785  10.137
 5904SOL    HW219545   4.814  14.751  10.285
 5905SOL     OW19546   5.905  11.463   3.355
 5905SOL    HW119547   5.817  11.428   3.342
 5905SOL    HW219548   5.963  11.397   3.316
 5906SOL     OW19549   0.683   9.431  11.386
 5906SOL    HW119550   0.738   9.478  11.449
 5906SOL    HW219551   0.663   9.496  11.318
 5907SOL     OW19552   6.119   0.270   5.464
 5907SOL    HW119553   6.112   0.186   5.418
 5907SOL    HW219554   6.118   0.336   5.395
 5908SOL     OW19555  12.216   5.415   1.807
 5908SOL    HW119556  12.124   5.436   1.789
 5908SOL    HW219557  12.213   5.331   1.853
 5909SOL     OW19558  10.664   0.945   2.856
 5909SOL    HW119559  10.744   0.950   2.803
 5909SOL    HW219560  10.613   0.875   2.815
 5910SOL     OW19561   3.794   4.596  10.084
 5910SOL    HW119562   3.841   4.627  10.162
 5910SOL    HW219563   3.703   4.589  10.112
 5911SOL     OW19564   3.279   0.568   8.695
 5911SOL    HW119565   3.197   0.610   8.668
 5911SOL    HW219566   3.347   0.627   8.663
 5912SOL     OW19567  13.079   6.940  14.821
 5912SOL    HW119568  13.088   6.871   0.005
 5912SOL    HW219569  13.166   6.946  14.781
 5913SOL     OW19570  10.669   7.354   5.090
 5913SOL    HW119571  10.722   7.299   5.147
 5913SOL    HW219572  10.730   7.422   5.059
 5914SOL     OW19573   6.051   8.932  12.092
 5914SOL    HW119574   6.106   8.856  12.110
 5914SOL    HW219575   6.097   8.980  12.023
 5915SOL     OW19576   8.176   0.148  13.379
 5915SOL    HW119577   8.268   0.174  13.375
 5915SOL    HW219578   8.137   0.184  13.300
 5916SOL     OW19579   3.229  11.131   1.893
 5916SOL    HW119580   3.179  11.051   1.911
 5916SOL    HW219581   3.221  11.143   1.798
 5917SOL     OW19582   8.037   2.692   3.490
 5917SOL    HW119583   8.104   2.650   3.437
 5917SOL    HW219584   8.009   2.624   3.551
 5918SOL     OW19585  12.362   5.304   1.601
 5918SOL    HW119586  12.432   5.279   1.661
 5918SOL    HW219587  12.309   5.366   1.651
 5919SOL     OW19588  14.072  13.281   5.126
 5919SOL    HW119589  14.143  13.345   5.117
 5919SOL    HW219590  13.993  13.331   5.107
 5920SOL     OW19591   2.768   6.897  13.610
 5920SOL    HW119592   2.851   6.913  13.565
 5920SOL    HW219593   2.794   6.864  13.696
 5921SOL     OW19594   3.124   1.002   9.995
 5921SOL    HW119595   3.133   0.932   9.930
 5921SOL    HW219596   3.105   1.080   9.943
 5922SOL     OW19597   9.004   7.515   1.001
 5922SOL    HW119598   8.951   7.584   1.042
 5922SOL    HW219599   9.004   7.444   1.065
 5923SOL     OW19600   1.980  10.405  14.083
 5923SOL    HW119601   1.956  10.372  14.170
 5923SOL    HW219602   2.046  10.472  14.100
 5924SOL     OW19603   6.464   8.918   9.387
 5924SOL    HW119604   6.444   9.000   9.340
 5924SOL    HW219605   6.423   8.850   9.334
 5925SOL     OW19606   8.632   0.642   1.725
 5925SOL    HW119607   8.607   0.605   1.810
 5925SOL    HW219608   8.560   0.701   1.702
 5926SOL     OW19609  11.356   0.642   1.340
 5926SOL    HW119610  11.344   0.705   1.268
 5926SOL    HW219611  11.448   0.616   1.334
 5927SOL     OW19612   5.213   7.217   7.052
 5927SOL    HW119613   5.198   7.143   6.993
 5927SOL    HW219614   5.214   7.179   7.140
 5928SOL     OW19615   4.527   4.655  10.618
 5928SOL    HW119616   4.549   4.737  10.574
 5928SOL    HW219617   4.460   4.679  10.681
 5929SOL     OW19618   0.010   4.222  13.797
 5929SOL    HW119619   0.048   4.164  13.732
 5929SOL    HW219620  14.800   4.231  13.770
 5930SOL     OW19621   2.018   7.632  11.560
 5930SOL    HW119622   1.961   7.598  11.492
 5930SOL    HW219623   2.057   7.710  11.522
 5931SOL     OW19624   5.724   8.083   6.729
 5931SOL    HW119625   5.726   8.089   6.634
 5931SOL    HW219626   5.648   8.134   6.755
 5932SOL     OW19627   1.946   5.651  12.420
 5932SOL    HW119628   1.855   5.624  12.419
 5932SOL    HW219629   1.946   5.738  12.459
 5933SOL     OW19630   6.020   7.071   7.369
 5933SOL    HW119631   6.084   7.106   7.431
 5933SOL    HW219632   5.997   7.145   7.313
 5934SOL     OW19633  12.982   7.520  11.673
 5934SOL    HW119634  13.006   7.597  11.622
 5934SOL    HW219635  12.936   7.464  11.610
 5935SOL     OW19636  10.708  13.457   5.216
 5935SOL    HW119637  10.659  13.487   5.292
 5935SOL    HW219638  10.672  13.506   5.143
 5936SOL     OW19639  13.273  10.137   5.416
 5936SOL    HW119640  13.273  10.100   5.504
 5936SOL    HW219641  13.190  10.184   5.410
 5937SOL     OW19642   7.045   7.974   6.222
 5937SOL    HW119643   7.042   8.010   6.311
 5937SOL    HW219644   7.021   8.047   6.165
 5938SOL     OW19645  13.810   8.164   1.958
 5938SOL    HW119646  13.790   8.137   1.868
 5938SOL    HW219647  13.905   8.179   1.957
 5939SOL     OW19648   8.271   6.988  10.159
 5939SOL    HW119649   8.352   7.001  10.110
 5939SOL    HW219650   8.295   6.930  10.232
 5940SOL     OW19651  12.791  11.236   9.786
 5940SOL    HW119652  12.804  11.331   9.788
 5940SOL    HW219653  12.796  11.209   9.878
 5941SOL     OW19654   2.949   6.791   7.894
 5941SOL    HW119655   3.018   6.811   7.956
 5941SOL    HW219656   2.947   6.866   7.835
 5942SOL     OW19657  14.051   6.249   5.759
 5942SOL    HW119658  14.039   6.340   5.729
 5942SOL    HW219659  13.963   6.212   5.756
 5943SOL     OW19660   9.298   0.084  13.140
 5943SOL    HW119661   9.222   0.124  13.098
 5943SOL    HW219662   9.359   0.157  13.152
 5944SOL     OW19663   2.321   5.617   8.308
 5944SOL    HW119664   2.264   5.557   8.261
 5944SOL    HW219665   2.376   5.657   8.241
 5945SOL     OW19666   4.723  14.697   3.175
 5945SOL    HW119667   4.699  14.767   3.115
 5945SOL    HW219668   4.808  14.723   3.211
 5946SOL     OW19669  11.734  12.844   5.715
 5946SOL    HW119670  11.794  12.913   5.743
 5946SOL    HW219671  11.783  12.763   5.728
 5947SOL     OW19672  11.135   6.172  12.026
 5947SOL    HW119673  11.186   6.184  11.945
 5947SOL    HW219674  11.136   6.078  12.041
 5948SOL     OW19675   7.502   5.728   6.658
 5948SOL    HW119676   7.597   5.731   6.650
 5948SOL    HW219677   7.483   5.781   6.735
 5949SOL     OW19678   8.133  13.189   1.176
 5949SOL    HW119679   8.166  13.183   1.086
 5949SOL    HW219680   8.046  13.150   1.173
 5950SOL     OW19681  13.211   7.181   6.547
 5950SOL    HW119682  13.117   7.174   6.534
 5950SOL    HW219683  13.240   7.091   6.558
 5951SOL     OW19684  13.104   9.598   8.005
 5951SOL    HW119685  13.193   9.634   8.004
 5951SOL    HW219686  13.090   9.567   7.916
 5952SOL     OW19687  12.377   4.652   0.298
 5952SOL    HW119688  12.325   4.577   0.325
 5952SOL    HW219689  12.322   4.698   0.235
 5953SOL     OW19690   6.399  11.368   3.945
 5953SOL    HW119691   6.454  11.446   3.959
 5953SOL    HW219692   6.317  11.389   3.990
 5954SOL     OW19693   5.040   3.816   2.400
 5954SOL    HW119694   5.003   3.746   2.455
 5954SOL    HW219695   5.133   3.815   2.420
 5955SOL     OW19696   4.566  10.228   6.457
 5955SOL    HW119697   4.594  10.170   6.527
 5955SOL    HW219698   4.594  10.184   6.377
 5956SOL     OW19699   9.217   6.453  12.615
 5956SOL    HW119700   9.155   6.516  12.651
 5956SOL    HW219701   9.269   6.426  12.691
 5957SOL     OW19702   5.628   7.074  10.178
 5957SOL    HW119703   5.673   7.069  10.094
 5957SOL    HW219704   5.689   7.035  10.241
 5958SOL     OW19705   1.110   1.835   7.995
 5958SOL    HW119706   1.167   1.765   8.027
 5958SOL    HW219707   1.131   1.842   7.902
 5959SOL     OW19708   5.217   9.013   7.115
 5959SOL    HW119709   5.137   9.058   7.088
 5959SOL    HW219710   5.276   9.021   7.041
 5960SOL     OW19711   7.780  12.330   6.533
 5960SOL    HW119712   7.828  12.266   6.586
 5960SOL    HW219713   7.708  12.359   6.589
 5961SOL     OW19714   8.063   9.564   9.098
 5961SOL    HW119715   7.973   9.572   9.130
 5961SOL    HW219716   8.074   9.639   9.039
 5962SOL     OW19717   2.712   1.279   9.620
 5962SOL    HW119718   2.617   1.284   9.629
 5962SOL    HW219719   2.726   1.239   9.534
 5963SOL     OW19720   0.056  14.139  13.717
 5963SOL    HW119721   0.001  14.180  13.784
 5963SOL    HW219722   0.080  14.054  13.754
 5964SOL     OW19723   6.644   2.646  14.730
 5964SOL    HW119724   6.555   2.664  14.697
 5964SOL    HW219725   6.647   2.551  14.740
 5965SOL     OW19726   6.314   2.426  12.251
 5965SOL    HW119727   6.359   2.431  12.336
 5965SOL    HW219728   6.384   2.415  12.187
 5966SOL     OW19729   6.395   3.757   5.641
 5966SOL    HW119730   6.414   3.835   5.693
 5966SOL    HW219731   6.343   3.789   5.567
 5967SOL     OW19732  13.225   5.657   1.671
 5967SOL    HW119733  13.260   5.642   1.584
 5967SOL    HW219734  13.270   5.735   1.703
 5968SOL     OW19735  12.757   2.204   3.059
 5968SOL    HW119736  12.820   2.272   3.083
 5968SOL    HW219737  12.775   2.186   2.967
 5969SOL     OW19738  10.411   5.658  11.429
 5969SOL    HW119739  10.394   5.666  11.335
 5969SOL    HW219740  10.495   5.613  11.435
 5970SOL     OW19741   3.259   8.535   0.776
 5970SOL    HW119742   3.331   8.473   0.762
 5970SOL    HW219743   3.253   8.583   0.693
 5971SOL     OW19744   5.065  13.593   1.566
 5971SOL    HW119745   5.159  13.575   1.576
 5971SOL    HW219746   5.058  13.688   1.577
 5972SOL     OW19747   5.594   7.762  11.467
 5972SOL    HW119748   5.681   7.784  11.436
 5972SOL    HW219749   5.549   7.728  11.389
 5973SOL     OW19750   5.680   9.262  13.863
 5973SOL    HW119751   5.606   9.322  13.853
 5973SOL    HW219752   5.736   9.302  13.929
 5974SOL     OW19753   9.012  12.584  11.327
 5974SOL    HW119754   8.938  12.625  11.281
 5974SOL    HW219755   9.086  12.596  11.267
 5975SOL     OW19756   7.616  13.705   1.682
 5975SOL    HW119757   7.634  13.760   1.758
 5975SOL    HW219758   7.597  13.767   1.611
 5976SOL     OW19759   0.001  14.572   0.999
 5976SOL    HW119760   0.009  14.641   1.066
 5976SOL    HW219761   0.025  14.616   0.917
 5977SOL     OW19762   3.377   4.514   2.112
 5977SOL    HW119763   3.429   4.487   2.037
 5977SOL    HW219764   3.439   4.559   2.170
 5978SOL     OW19765   3.954   7.797   4.294
 5978SOL    HW119766   3.985   7.829   4.379
 5978SOL    HW219767   3.859   7.813   4.296
 5979SOL     OW19768   4.036   8.055  11.986
 5979SOL    HW119769   4.003   7.980  12.035
 5979SOL    HW219770   3.969   8.123  11.997
 5980SOL     OW19771   2.434  14.276   0.245
 5980SOL    HW119772   2.416  14.365   0.274
 5980SOL    HW219773   2.350  14.244   0.213
 5981SOL     OW19774   1.921   7.527  11.810
 5981SOL    HW119775   1.973   7.453  11.842
 5981SOL    HW219776   1.944   7.534  11.718
 5982SOL     OW19777  13.112   2.224  12.693
 5982SOL    HW119778  13.166   2.242  12.770
 5982SOL    HW219779  13.026   2.259  12.715
 5983SOL     OW19780  11.884   3.098   1.227
 5983SOL    HW119781  11.834   3.166   1.182
 5983SOL    HW219782  11.931   3.145   1.296
 5984SOL     OW19783   2.092   6.246  13.664
 5984SOL    HW119784   2.035   6.173  13.640
 5984SOL    HW219785   2.116   6.229  13.755
 5985SOL     OW19786   3.661  14.702   3.242
 5985SOL    HW119787   3.738  14.753   3.267
 5985SOL    HW219788   3.668  14.622   3.296
 5986SOL     OW19789   2.585   5.785  12.032
 5986SOL    HW119790   2.540   5.870  12.033
 5986SOL    HW219791   2.518   5.722  12.058
 5987SOL     OW19792   2.193   0.071   9.916
 5987SOL    HW119793   2.209   0.045   9.826
 5987SOL    HW219794   2.098   0.076   9.923
 5988SOL     OW19795  13.354  10.513   0.827
 5988SOL    HW119796  13.305  10.453   0.770
 5988SOL    HW219797  13.419  10.553   0.769
 5989SOL     OW19798   4.181   2.794   2.553
 5989SOL    HW119799   4.219   2.776   2.639
 5989SOL    HW219800   4.089   2.771   2.562
 5990SOL     OW19801  11.032   2.069   6.791
 5990SOL    HW119802  11.098   2.137   6.778
 5990SOL    HW219803  11.058   1.998   6.733
 5991SOL     OW19804   1.651  12.372  10.505
 5991SOL    HW119805   1.573  12.317  10.513
 5991SOL    HW219806   1.635  12.445  10.564
 5992SOL     OW19807   8.856   1.272   6.744
 5992SOL    HW119808   8.838   1.265   6.837
 5992SOL    HW219809   8.772   1.294   6.704
 5993SOL     OW19810   3.051  14.433   8.698
 5993SOL    HW119811   3.045  14.430   8.602
 5993SOL    HW219812   2.965  14.461   8.727
 5994SOL     OW19813  14.184   3.221  11.003
 5994SOL    HW119814  14.232   3.181  11.076
 5994SOL    HW219815  14.241   3.292  10.974
 5995SOL     OW19816   9.838   3.329  10.277
 5995SOL    HW119817   9.930   3.351  10.260
 5995SOL    HW219818   9.842   3.242  10.317
 5996SOL     OW19819   3.303   0.181  12.095
 5996SOL    HW119820   3.297   0.275  12.115
 5996SOL    HW219821   3.241   0.140  12.155
 5997SOL     OW19822   1.951   3.575   9.088
 5997SOL    HW119823   1.907   3.526   9.157
 5997SOL    HW219824   1.982   3.655   9.131
 5998SOL     OW19825   2.111   2.024  14.117
 5998SOL    HW119826   2.082   2.059  14.201
 5998SOL    HW219827   2.062   2.074  14.052
 5999SOL     OW19828  13.569   7.115   7.157
 5999SOL    HW119829  13.594   7.127   7.065
 5999SOL    HW219830  13.486   7.067   7.153
 6000SOL     OW19831  14.173  10.622  14.818
 6000SOL    HW119832  14.126  10.564  14.758
 6000SOL    HW219833  14.108  10.651  14.881
 6001SOL     OW19834   1.041   0.763   0.919
 6001SOL    HW119835   1.092   0.685   0.899
 6001SOL    HW219836   0.950   0.737   0.902
 6002SOL     OW19837   3.688   3.628  10.381
 6002SOL    HW119838   3.730   3.602  10.463
 6002SOL    HW219839   3.603   3.662  10.407
 6003SOL     OW19840  11.402   0.816   3.374
 6003SOL    HW119841  11.391   0.911   3.379
 6003SOL    HW219842  11.478   0.803   3.317
 6004SOL     OW19843  14.769  14.614  12.972
 6004SOL    HW119844  14.847  14.568  13.004
 6004SOL    HW219845  14.787  14.706  12.989
 6005SOL     OW19846  12.064   7.235   9.132
 6005SOL    HW119847  12.072   7.183   9.053
 6005SOL    HW219848  11.983   7.285   9.121
 6006SOL     OW19849   3.924   3.254   9.791
 6006SOL    HW119850   3.919   3.288   9.702
 6006SOL    HW219851   3.936   3.160   9.780
 6007SOL     OW19852   5.773   9.160   5.890
 6007SOL    HW119853   5.754   9.148   5.797
 6007SOL    HW219854   5.831   9.087   5.912
 6008SOL     OW19855   5.262   5.216   8.118
 6008SOL    HW119856   5.343   5.234   8.070
 6008SOL    HW219857   5.285   5.225   8.210
 6009SOL     OW19858   2.237   5.441   8.100
 6009SOL    HW119859   2.268   5.355   8.129
 6009SOL    HW219860   2.285   5.457   8.019
 6010SOL     OW19861  12.674   8.827  12.607
 6010SOL    HW119862  12.744   8.762  12.596
 6010SOL    HW219863  12.715   8.897  12.659
 6011SOL     OW19864  14.131   4.192   0.454
 6011SOL    HW119865  14.156   4.100   0.450
 6011SOL    HW219866  14.157   4.228   0.369
 6012SOL     OW19867  10.842   2.468   6.314
 6012SOL    HW119868  10.914   2.503   6.368
 6012SOL    HW219869  10.859   2.503   6.227
 6013SOL     OW19870  13.689   2.191  12.922
 6013SOL    HW119871  13.621   2.184  12.854
 6013SOL    HW219872  13.771   2.178  12.874
 6014SOL     OW19873  10.844  14.694  13.940
 6014SOL    HW119874  10.851  14.611  13.893
 6014SOL    HW219875  10.934  14.715  13.965
 6015SOL     OW19876   3.739   2.845  10.134
 6015SOL    HW119877   3.816   2.807  10.092
 6015SOL    HW219878   3.684   2.873  10.062
 6016SOL     OW19879  12.281  12.225   5.938
 6016SOL    HW119880  12.238  12.161   5.881
 6016SOL    HW219881  12.373  12.219   5.915
 6017SOL     OW19882   1.031   2.439  11.879
 6017SOL    HW119883   1.052   2.406  11.966
 6017SOL    HW219884   1.099   2.401  11.822
 6018SOL     OW19885  13.746   5.942  13.506
 6018SOL    HW119886  13.730   5.979  13.592
 6018SOL    HW219887  13.774   5.852  13.523
 6019SOL     OW19888   3.510  10.667  13.473
 6019SOL    HW119889   3.439  10.701  13.417
 6019SOL    HW219890   3.590  10.695  13.429
 6020SOL     OW19891  10.131   5.144   4.948
 6020SOL    HW119892  10.113   5.179   4.861
 6020SOL    HW219893  10.064   5.183   5.004
 6021SOL     OW19894   7.357   3.217   2.579
 6021SOL    HW119895   7.432   3.174   2.621
 6021SOL    HW219896   7.282   3.163   2.604
 6022SOL     OW19897   3.399   9.313   7.770
 6022SOL    HW119898   3.316   9.265   7.776
 6022SOL    HW219899   3.384   9.393   7.822
 6023SOL     OW19900   8.458   0.916  12.971
 6023SOL    HW119901   8.378   0.912  13.024
 6023SOL    HW219902   8.528   0.927  13.035
 6024SOL     OW19903   4.377  14.369  11.813
 6024SOL    HW119904   4.282  14.357  11.819
 6024SOL    HW219905   4.391  14.409  11.727
 6025SOL     OW19906   7.040  10.388   1.040
 6025SOL    HW119907   6.951  10.369   1.072
 6025SOL    HW219908   7.068  10.307   0.996
 6026SOL     OW19909   6.934   0.547   0.442
 6026SOL    HW119910   6.916   0.524   0.533
 6026SOL    HW219911   6.877   0.622   0.424
 6027SOL     OW19912   8.990   9.833   5.130
 6027SOL    HW119913   9.001   9.928   5.136
 6027SOL    HW219914   8.932   9.820   5.055
 6028SOL     OW19915   7.883  11.805   2.371
 6028SOL    HW119916   7.848  11.893   2.355
 6028SOL    HW219917   7.858  11.755   2.294
 6029SOL     OW19918  10.197   5.957   5.564
 6029SOL    HW119919  10.233   6.027   5.619
 6029SOL    HW219920  10.241   5.968   5.480
 6030SOL     OW19921   2.778   3.655   2.702
 6030SOL    HW119922   2.842   3.602   2.751
 6030SOL    HW219923   2.805   3.745   2.716
 6031SOL     OW19924   9.470   3.532   7.897
 6031SOL    HW119925   9.458   3.609   7.842
 6031SOL    HW219926   9.499   3.568   7.981
 6032SOL     OW19927   3.249  13.704   7.856
 6032SOL    HW119928   3.199  13.640   7.906
 6032SOL    HW219929   3.339  13.694   7.886
 6033SOL     OW19930   4.927   9.286   2.189
 6033SOL    HW119931   4.923   9.201   2.233
 6033SOL    HW219932   4.843   9.293   2.143
 6034SOL     OW19933   9.612   1.913   3.924
 6034SOL    HW119934   9.590   1.872   3.840
 6034SOL    HW219935   9.535   1.899   3.979
 6035SOL     OW19936   6.034   3.829   6.934
 6035SOL    HW119937   6.002   3.800   7.019
 6035SOL    HW219938   6.129   3.817   6.939
 6036SOL     OW19939   0.924   4.620  12.274
 6036SOL    HW119940   0.951   4.566  12.199
 6036SOL    HW219941   0.958   4.573  12.350
 6037SOL     OW19942   5.103  12.846   4.862
 6037SOL    HW119943   5.166  12.902   4.907
 6037SOL    HW219944   5.120  12.861   4.769
 6038SOL     OW19945  13.426   2.298   8.208
 6038SOL    HW119946  13.420   2.363   8.139
 6038SOL    HW219947  13.514   2.308   8.243
 6039SOL     OW19948   2.838   2.996   1.485
 6039SOL    HW119949   2.918   3.049   1.478
 6039SOL    HW219950   2.869   2.906   1.477
 6040SOL     OW19951   8.211   4.860   3.055
 6040SOL    HW119952   8.288   4.851   3.112
 6040SOL    HW219953   8.219   4.787   2.994
 6041SOL     OW19954   8.031   5.210  13.452
 6041SOL    HW119955   8.105   5.168  13.497
 6041SOL    HW219956   7.958   5.150  13.466
 6042SOL     OW19957   9.558   0.854   1.638
 6042SOL    HW119958   9.552   0.867   1.733
 6042SOL    HW219959   9.497   0.917   1.601
 6043SOL     OW19960   1.737   7.074   2.186
 6043SOL    HW119961   1.802   7.131   2.145
 6043SOL    HW219962   1.763   6.986   2.161
 6044SOL     OW19963   0.627   6.660   0.424
 6044SOL    HW119964   0.669   6.579   0.397
 6044SOL    HW219965   0.651   6.723   0.357
 6045SOL     OW19966  10.783   9.469  12.619
 6045SOL    HW119967  10.740   9.523  12.685
 6045SOL    HW219968  10.750   9.503  12.535
 6046SOL     OW19969   8.897   0.452  13.294
 6046SOL    HW119970   8.821   0.439  13.237
 6046SOL    HW219971   8.969   0.471  13.234
 6047SOL     OW19972  12.375   9.212  11.071
 6047SOL    HW119973  12.322   9.197  10.992
 6047SOL    HW219974  12.465   9.205  11.042
 6048SOL     OW19975   6.698   3.337  10.090
 6048SOL    HW119976   6.617   3.361  10.135
 6048SOL    HW219977   6.768   3.369  10.147
 6049SOL     OW19978   0.347  13.574   4.037
 6049SOL    HW119979   0.442  13.575   4.049
 6049SOL    HW219980   0.331  13.639   3.968
 6050SOL     OW19981   7.216   0.963   0.256
 6050SOL    HW119982   7.301   0.977   0.299
 6050SOL    HW219983   7.224   0.877   0.215
 6051SOL     OW19984   4.186   1.819   1.649
 6051SOL    HW119985   4.142   1.793   1.730
 6051SOL    HW219986   4.277   1.832   1.674
 6052SOL     OW19987  11.187  11.862   1.527
 6052SOL    HW119988  11.097  11.829   1.534
 6052SOL    HW219989  11.182  11.953   1.556
 6053SOL     OW19990  12.694   4.421   0.572
 6053SOL    HW119991  12.677   4.377   0.655
 6053SOL    HW219992  12.732   4.505   0.597
 6054SOL     OW19993  11.918   2.418   8.256
 6054SOL    HW119994  11.996   2.375   8.221
 6054SOL    HW219995  11.858   2.423   8.181
 6055SOL     OW19996   8.468   1.148  11.044
 6055SOL    HW119997   8.550   1.180  11.006
 6055SOL    HW219998   8.410   1.138  10.969
 6056SOL     OW19999   9.236   9.860   6.499
 6056SOL    HW120000   9.158   9.914   6.480
 6056SOL    HW220001   9.266   9.830   6.413
 6057SOL     OW20002  11.258   2.086   5.556
 6057SOL    HW120003  11.235   1.995   5.541
 6057SOL    HW220004  11.253   2.127   5.470
 6058SOL     OW20005  11.822   9.638   8.313
 6058SOL    HW120006  11.794   9.730   8.320
 6058SOL    HW220007  11.804   9.614   8.222
 6059SOL     OW20008  13.246   6.149  12.395
 6059SOL    HW120009  13.283   6.063  12.417
 6059SOL    HW220010  13.218   6.185  12.479
 6060SOL     OW20011   4.415   0.612  12.021
 6060SOL    HW120012   4.381   0.590  12.107
 6060SOL    HW220013   4.337   0.628  11.968
 6061SOL     OW20014  13.514   1.672  13.415
 6061SOL    HW120015  13.587   1.731  13.396
 6061SOL    HW220016  13.495   1.630  13.331
 6062SOL     OW20017  10.948   7.286   1.778
 6062SOL    HW120018  10.883   7.270   1.846
 6062SOL    HW220019  11.024   7.320   1.825
 6063SOL     OW20020  12.927   7.927   3.573
 6063SOL    HW120021  13.000   7.938   3.633
 6063SOL    HW220022  12.909   8.015   3.540
 6064SOL     OW20023   1.600   8.626   4.540
 6064SOL    HW120024   1.663   8.698   4.529
 6064SOL    HW220025   1.653   8.547   4.533
 6065SOL     OW20026   8.816   2.512  12.695
 6065SOL    HW120027   8.726   2.544  12.689
 6065SOL    HW220028   8.830   2.497  12.788
 6066SOL     OW20029   4.036  11.727   3.237
 6066SOL    HW120030   4.100  11.734   3.308
 6066SOL    HW220031   4.021  11.818   3.210
 6067SOL     OW20032  11.110   0.224   0.367
 6067SOL    HW120033  11.082   0.261   0.451
 6067SOL    HW220034  11.043   0.250   0.305
 6068SOL     OW20035   5.688   3.066   7.917
 6068SOL    HW120036   5.713   3.049   7.826
 6068SOL    HW220037   5.621   3.135   7.910
 6069SOL     OW20038  10.180  13.990   6.659
 6069SOL    HW120039  10.233  14.063   6.625
 6069SOL    HW220040  10.091  14.010   6.630
 6070SOL     OW20041   5.502  11.682  12.260
 6070SOL    HW120042   5.495  11.588  12.242
 6070SOL    HW220043   5.461  11.724  12.185
 6071SOL     OW20044   8.576   8.316   3.873
 6071SOL    HW120045   8.497   8.302   3.926
 6071SOL    HW220046   8.546   8.309   3.782
 6072SOL     OW20047   1.627  11.214  14.710
 6072SOL    HW120048   1.648  11.224  14.803
 6072SOL    HW220049   1.542  11.169  14.709
 6073SOL     OW20050  13.851   1.764  13.715
 6073SOL    HW120051  13.839   1.696  13.649
 6073SOL    HW220052  13.798   1.837  13.684
 6074SOL     OW20053   3.953   8.500   3.681
 6074SOL    HW120054   3.876   8.513   3.625
 6074SOL    HW220055   4.009   8.441   3.631
 6075SOL     OW20056  11.313  10.885  11.956
 6075SOL    HW120057  11.336  10.914  12.044
 6075SOL    HW220058  11.333  10.960  11.900
 6076SOL     OW20059  10.725   1.368   2.445
 6076SOL    HW120060  10.741   1.417   2.364
 6076SOL    HW220061  10.699   1.435   2.509
 6077SOL     OW20062  12.855  13.818   5.294
 6077SOL    HW120063  12.904  13.892   5.330
 6077SOL    HW220064  12.922  13.753   5.272
 6078SOL     OW20065  10.968   4.895  11.065
 6078SOL    HW120066  11.053   4.904  11.108
 6078SOL    HW220067  10.976   4.946  10.984
 6079SOL     OW20068   1.074  13.246  10.440
 6079SOL    HW120069   1.148  13.306  10.432
 6079SOL    HW220070   1.113  13.164  10.470
 6080SOL     OW20071   5.116   4.162  13.869
 6080SOL    HW120072   5.064   4.114  13.933
 6080SOL    HW220073   5.099   4.118  13.786
 6081SOL     OW20074   5.215  13.883  12.424
 6081SOL    HW120075   5.166  13.959  12.394
 6081SOL    HW220076   5.211  13.821  12.352
 6082SOL     OW20077   0.534  13.181   0.962
 6082SOL    HW120078   0.602  13.137   0.910
 6082SOL    HW220079   0.459  13.122   0.959
 6083SOL     OW20080   6.784   4.824   8.986
 6083SOL    HW120081   6.697   4.818   8.945
 6083SOL    HW220082   6.811   4.914   8.972
 6084SOL     OW20083  11.799   4.586  10.043
 6084SOL    HW120084  11.839   4.670  10.023
 6084SOL    HW220085  11.760   4.558   9.960
 6085SOL     OW20086  13.232   2.765  13.715
 6085SOL    HW120087  13.224   2.770  13.620
 6085SOL    HW220088  13.157   2.712  13.743
 6086SOL     OW20089   5.958   3.409  10.394
 6086SOL    HW120090   6.018   3.468  10.441
 6086SOL    HW220091   5.923   3.351  10.462
 6087SOL     OW20092   3.515   0.500   2.920
 6087SOL    HW120093   3.504   0.461   3.006
 6087SOL    HW220094   3.597   0.463   2.887
 6088SOL     OW20095   7.218  10.805   8.385
 6088SOL    HW120096   7.299  10.849   8.358
 6088SOL    HW220097   7.155  10.828   8.317
 6089SOL     OW20098  13.203   9.388  14.700
 6089SOL    HW120099  13.108   9.385  14.718
 6089SOL    HW220100  13.233   9.299  14.717
 6090SOL     OW20101  11.525   7.323   4.822
 6090SOL    HW120102  11.531   7.359   4.910
 6090SOL    HW220103  11.542   7.397   4.764
 6091SOL     OW20104   7.684   1.363   5.920
 6091SOL    HW120105   7.608   1.406   5.960
 6091SOL    HW220106   7.749   1.432   5.910
 6092SOL     OW20107   1.283  11.638   7.095
 6092SOL    HW120108   1.247  11.553   7.068
 6092SOL    HW220109   1.308  11.680   7.012
 6093SOL     OW20110   9.706   1.424  14.824
 6093SOL    HW120111   9.677   1.467  14.743
 6093SOL    HW220112   9.709   1.331  14.802
 6094SOL     OW20113   9.483   2.389   3.731
 6094SOL    HW120114   9.472   2.414   3.639
 6094SOL    HW220115   9.524   2.302   3.727
 6095SOL     OW20116   5.627   3.001   0.795
 6095SOL    HW120117   5.548   3.031   0.839
 6095SOL    HW220118   5.697   3.014   0.860
 6096SOL     OW20119   7.731  11.800   1.445
 6096SOL    HW120120   7.783  11.864   1.494
 6096SOL    HW220121   7.644  11.804   1.483
 6097SOL     OW20122   5.316  12.364   0.276
 6097SOL    HW120123   5.378  12.320   0.334
 6097SOL    HW220124   5.232  12.322   0.293
 6098SOL     OW20125   5.909  10.894   3.739
 6098SOL    HW120126   5.990  10.901   3.789
 6098SOL    HW220127   5.861  10.822   3.780
 6099SOL     OW20128   0.272  10.241  12.426
 6099SOL    HW120129   0.235  10.254  12.339
 6099SOL    HW220130   0.367  10.246  12.413
 6100SOL     OW20131  10.487   8.649  11.804
 6100SOL    HW120132  10.446   8.729  11.772
 6100SOL    HW220133  10.561   8.635  11.746
 6101SOL     OW20134   9.706  10.262   4.471
 6101SOL    HW120135   9.634  10.212   4.509
 6101SOL    HW220136   9.753  10.199   4.416
 6102SOL     OW20137   2.221   1.528  13.124
 6102SOL    HW120138   2.135   1.490  13.140
 6102SOL    HW220139   2.274   1.455  13.092
 6103SOL     OW20140   1.949   1.698  10.038
 6103SOL    HW120141   1.930   1.743  10.121
 6103SOL    HW220142   2.038   1.724  10.017
 6104SOL     OW20143  10.723   1.639  12.569
 6104SOL    HW120144  10.733   1.708  12.503
 6104SOL    HW220145  10.694   1.562  12.519
 6105SOL     OW20146   1.136   5.392   6.171
 6105SOL    HW120147   1.192   5.405   6.094
 6105SOL    HW220148   1.085   5.472   6.178
 6106SOL     OW20149   7.696   2.609  10.071
 6106SOL    HW120150   7.674   2.637  10.160
 6106SOL    HW220151   7.706   2.514  10.077
 6107SOL     OW20152   5.599  12.721  13.347
 6107SOL    HW120153   5.561  12.733  13.260
 6107SOL    HW220154   5.596  12.808  13.386
 6108SOL     OW20155   8.527   2.563  13.356
 6108SOL    HW120156   8.441   2.602  13.342
 6108SOL    HW220157   8.510   2.483  13.406
 6109SOL     OW20158  10.584   2.228  12.298
 6109SOL    HW120159  10.488   2.228  12.301
 6109SOL    HW220160  10.611   2.226  12.390
 6110SOL     OW20161  11.361   7.924   7.988
 6110SOL    HW120162  11.341   7.941   7.896
 6110SOL    HW220163  11.293   7.861   8.015
 6111SOL     OW20164   0.621   5.245   4.017
 6111SOL    HW120165   0.708   5.245   4.058
 6111SOL    HW220166   0.593   5.154   4.021
 6112SOL     OW20167   0.113  11.265   1.213
 6112SOL    HW120168   0.196  11.276   1.260
 6112SOL    HW220169   0.126  11.185   1.162
 6113SOL     OW20170   6.199   0.460   3.786
 6113SOL    HW120171   6.109   0.431   3.798
 6113SOL    HW220172   6.239   0.391   3.732
 6114SOL     OW20173  11.268   8.652   3.685
 6114SOL    HW120174  11.364   8.644   3.688
 6114SOL    HW220175  11.239   8.624   3.771
 6115SOL     OW20176  10.522   8.737   7.249
 6115SOL    HW120177  10.545   8.807   7.310
 6115SOL    HW220178  10.472   8.675   7.302
 6116SOL     OW20179   7.733   4.747   7.291
 6116SOL    HW120180   7.741   4.792   7.206
 6116SOL    HW220181   7.813   4.771   7.337
 6117SOL     OW20182   4.615   9.886   4.723
 6117SOL    HW120183   4.632   9.844   4.639
 6117SOL    HW220184   4.694   9.872   4.774
 6118SOL     OW20185   3.600   0.017   3.769
 6118SOL    HW120186   3.671  14.840   3.741
 6118SOL    HW220187   3.580   0.069   3.691
 6119SOL     OW20188   1.322   3.400   8.767
 6119SOL    HW120189   1.333   3.486   8.725
 6119SOL    HW220190   1.403   3.353   8.746
 6120SOL     OW20191   5.661   5.372   6.540
 6120SOL    HW120192   5.699   5.460   6.533
 6120SOL    HW220193   5.690   5.341   6.626
 6121SOL     OW20194   4.148   4.038   1.061
 6121SOL    HW120195   4.078   4.101   1.043
 6121SOL    HW220196   4.225   4.076   1.019
 6122SOL     OW20197  12.895   7.575  11.965
 6122SOL    HW120198  12.947   7.519  11.906
 6122SOL    HW220199  12.806   7.542  11.956
 6123SOL     OW20200  12.368   4.158  12.208
 6123SOL    HW120201  12.289   4.138  12.157
 6123SOL    HW220202  12.403   4.073  12.234
 6124SOL     OW20203   0.737   2.176   4.439
 6124SOL    HW120204   0.649   2.207   4.462
 6124SOL    HW220205   0.765   2.234   4.368
 6125SOL     OW20206   1.444   9.780   8.959
 6125SOL    HW120207   1.517   9.817   9.010
 6125SOL    HW220208   1.400   9.721   9.020
 6126SOL     OW20209  11.444   6.925  13.933
 6126SOL    HW120210  11.440   6.847  13.988
 6126SOL    HW220211  11.376   6.911  13.867
 6127SOL     OW20212   0.096   4.657   8.426
 6127SOL    HW120213   0.118   4.645   8.518
 6127SOL    HW220214   0.172   4.620   8.379
 6128SOL     OW20215  12.091   0.678  12.003
 6128SOL    HW120216  12.142   0.707  11.928
 6128SOL    HW220217  12.025   0.747  12.015
 6129SOL     OW20218   5.040  12.119   3.593
 6129SOL    HW120219   4.989  12.039   3.607
 6129SOL    HW220220   5.127  12.098   3.626
 6130SOL     OW20221   5.310   3.724   4.208
 6130SOL    HW120222   5.369   3.649   4.212
 6130SOL    HW220223   5.246   3.700   4.142
 6131SOL     OW20224  12.569   7.269  12.159
 6131SOL    HW120225  12.664   7.281  12.149
 6131SOL    HW220226  12.557   7.174  12.157
 6132SOL     OW20227  13.828   1.932   9.503
 6132SOL    HW120228  13.869   1.865   9.558
 6132SOL    HW220229  13.751   1.960   9.552
 6133SOL     OW20230   9.517   8.826  12.385
 6133SOL    HW120231   9.500   8.902  12.441
 6133SOL    HW220232   9.583   8.855  12.323
 6134SOL     OW20233   1.317   6.261  13.381
 6134SOL    HW120234   1.311   6.351  13.350
 6134SOL    HW220235   1.302   6.208  13.303
 6135SOL     OW20236   8.921   2.409  11.598
 6135SOL    HW120237   8.870   2.489  11.589
 6135SOL    HW220238   8.857   2.339  11.589
 6136SOL     OW20239   6.600   4.228  10.330
 6136SOL    HW120240   6.595   4.265  10.419
 6136SOL    HW220241   6.599   4.133  10.344
 6137SOL     OW20242   8.710  13.897  12.334
 6137SOL    HW120243   8.660  13.900  12.253
 6137SOL    HW220244   8.776  13.829  12.320
 6138SOL     OW20245  11.947   1.336   5.342
 6138SOL    HW120246  11.872   1.384   5.376
 6138SOL    HW220247  11.924   1.319   5.250
 6139SOL     OW20248   0.221   1.973   4.388
 6139SOL    HW120249   0.245   1.950   4.299
 6139SOL    HW220250   0.141   2.024   4.380
 6140SOL     OW20251   4.194  10.153   3.584
 6140SOL    HW120252   4.274  10.135   3.634
 6140SOL    HW220253   4.222  10.154   3.493
 6141SOL     OW20254   3.605   9.287   3.971
 6141SOL    HW120255   3.559   9.228   3.911
 6141SOL    HW220256   3.568   9.374   3.952
 6142SOL     OW20257   3.762  13.306   1.174
 6142SOL    HW120258   3.699  13.361   1.130
 6142SOL    HW220259   3.721  13.219   1.177
 6143SOL     OW20260   3.332  13.221  13.292
 6143SOL    HW120261   3.359  13.222  13.384
 6143SOL    HW220262   3.392  13.159  13.251
 6144SOL     OW20263  12.144   0.514   6.351
 6144SOL    HW120264  12.120   0.459   6.425
 6144SOL    HW220265  12.097   0.477   6.277
 6145SOL     OW20266   5.787   9.985   7.335
 6145SOL    HW120267   5.756  10.021   7.419
 6145SOL    HW220268   5.882   9.981   7.344
 6146SOL     OW20269   4.351  14.416  10.258
 6146SOL    HW120270   4.435  14.427  10.213
 6146SOL    HW220271   4.348  14.488  10.321
 6147SOL     OW20272   4.120   9.728   7.560
 6147SOL    HW120273   4.155   9.815   7.540
 6147SOL    HW220274   4.087   9.695   7.477
 6148SOL     OW20275   0.413  12.274   0.893
 6148SOL    HW120276   0.348  12.331   0.853
 6148SOL    HW220277   0.385  12.264   0.984
 6149SOL     OW20278  10.589   8.246  10.723
 6149SOL    HW120279  10.560   8.165  10.680
 6149SOL    HW220280  10.512   8.277  10.770
 6150SOL     OW20281   7.964   0.624   1.886
 6150SOL    HW120282   7.925   0.710   1.896
 6150SOL    HW220283   8.011   0.610   1.968
 6151SOL     OW20284   5.701   1.938  10.873
 6151SOL    HW120285   5.621   1.913  10.827
 6151SOL    HW220286   5.712   2.031  10.853
 6152SOL     OW20287   6.100   0.960   2.033
 6152SOL    HW120288   6.134   0.926   1.950
 6152SOL    HW220289   6.148   1.042   2.046
 6153SOL     OW20290   9.590   2.899  12.633
 6153SOL    HW120291   9.686   2.902  12.625
 6153SOL    HW220292   9.571   2.806  12.646
 6154SOL     OW20293  11.426  14.377   6.978
 6154SOL    HW120294  11.460  14.289   6.990
 6154SOL    HW220295  11.436  14.394   6.885
 6155SOL     OW20296   3.084  10.356   7.894
 6155SOL    HW120297   2.992  10.331   7.893
 6155SOL    HW220298   3.129  10.282   7.854
 6156SOL     OW20299   9.071   5.078  10.216
 6156SOL    HW120300   8.985   5.042  10.192
 6156SOL    HW220301   9.081   5.156  10.162
 6157SOL     OW20302  14.279   0.353   8.026
 6157SOL    HW120303  14.374   0.364   8.020
 6157SOL    HW220304  14.250   0.348   7.935
 6158SOL     OW20305   4.709   2.152   7.127
 6158SOL    HW120306   4.737   2.158   7.218
 6158SOL    HW220307   4.617   2.128   7.131
 6159SOL     OW20308   0.067   7.216   5.668
 6159SOL    HW120309   0.146   7.235   5.719
 6159SOL    HW220310   0.090   7.139   5.616
 6160SOL     OW20311   1.503  11.315  10.540
 6160SOL    HW120312   1.551  11.278  10.614
 6160SOL    HW220313   1.441  11.376  10.579
 6161SOL     OW20314   8.785   3.107  11.954
 6161SOL    HW120315   8.759   3.166  12.024
 6161SOL    HW220316   8.744   3.143  11.875
 6162SOL     OW20317   4.494  10.284   3.261
 6162SOL    HW120318   4.499  10.377   3.284
 6162SOL    HW220319   4.472  10.283   3.168
 6163SOL     OW20320  13.903  12.869  11.881
 6163SOL    HW120321  13.991  12.832  11.879
 6163SOL    HW220322  13.893  12.902  11.971
 6164SOL     OW20323  10.032   0.865   3.816
 6164SOL    HW120324   9.987   0.806   3.755
 6164SOL    HW220325  10.125   0.850   3.799
 6165SOL     OW20326   7.134   8.557   3.053
 6165SOL    HW120327   7.104   8.645   3.028
 6165SOL    HW220328   7.150   8.563   3.147
 6166SOL     OW20329  11.457  11.890  13.380
 6166SOL    HW120330  11.391  11.855  13.319
 6166SOL    HW220331  11.502  11.958  13.331
 6167SOL     OW20332   6.923  12.797   8.958
 6167SOL    HW120333   6.918  12.703   8.938
 6167SOL    HW220334   6.833  12.827   8.955
 6168SOL     OW20335  12.762   4.146   6.269
 6168SOL    HW120336  12.795   4.107   6.350
 6168SOL    HW220337  12.688   4.091   6.244
 6169SOL     OW20338   8.846   0.440   0.955
 6169SOL    HW120339   8.860   0.534   0.964
 6169SOL    HW220340   8.932   0.406   0.929
 6170SOL     OW20341   5.482   0.322  12.799
 6170SOL    HW120342   5.550   0.356  12.741
 6170SOL    HW220343   5.407   0.306  12.741
 6171SOL     OW20344   8.411  11.897  10.721
 6171SOL    HW120345   8.316  11.902  10.708
 6171SOL    HW220346   8.445  11.868  10.636
 6172SOL     OW20347   8.889   0.275  14.740
 6172SOL    HW120348   8.885   0.181  14.751
 6172SOL    HW220349   8.978   0.292  14.709
 6173SOL     OW20350  13.382   9.862   6.023
 6173SOL    HW120351  13.464   9.897   6.058
 6173SOL    HW220352  13.338   9.938   5.984
 6174SOL     OW20353   7.302   5.430   5.634
 6174SOL    HW120354   7.367   5.459   5.698
 6174SOL    HW220355   7.284   5.507   5.582
 6175SOL     OW20356   4.403   9.585  14.185
 6175SOL    HW120357   4.338   9.641  14.143
 6175SOL    HW220358   4.352   9.519  14.231
 6176SOL     OW20359   5.558   2.810  12.684
 6176SOL    HW120360   5.480   2.772  12.724
 6176SOL    HW220361   5.623   2.812  12.754
 6177SOL     OW20362   9.019   2.350  11.927
 6177SOL    HW120363   9.047   2.325  11.839
 6177SOL    HW220364   9.056   2.437  11.940
 6178SOL     OW20365  11.125  12.797   2.618
 6178SOL    HW120366  11.084  12.882   2.636
 6178SOL    HW220367  11.123  12.751   2.701
 6179SOL     OW20368   8.963   2.820  11.734
 6179SOL    HW120369   9.050   2.784  11.754
 6179SOL    HW220370   8.903   2.771  11.790
 6180SOL     OW20371  12.693   7.466   3.837
 6180SOL    HW120372  12.620   7.485   3.779
 6180SOL    HW220373  12.771   7.490   3.787
 6181SOL     OW20374  11.647   9.154   8.487
 6181SOL    HW120375  11.688   9.216   8.546
 6181SOL    HW220376  11.598   9.095   8.544
 6182SOL     OW20377  14.134  13.946   8.875
 6182SOL    HW120378  14.088  13.968   8.794
 6182SOL    HW220379  14.117  13.853   8.888
 6183SOL     OW20380   7.587   8.235   7.296
 6183SOL    HW120381   7.534   8.279   7.362
 6183SOL    HW220382   7.557   8.270   7.212
 6184SOL     OW20383   5.712  14.114   1.108
 6184SOL    HW120384   5.707  14.206   1.131
 6184SOL    HW220385   5.805  14.092   1.117
 6185SOL     OW20386  12.410   6.290   4.361
 6185SOL    HW120387  12.449   6.273   4.447
 6185SOL    HW220388  12.334   6.345   4.380
 6186SOL     OW20389  11.984  14.037  11.182
 6186SOL    HW120390  11.910  13.988  11.216
 6186SOL    HW220391  12.058  14.011  11.237
 6187SOL     OW20392   2.952   6.774   0.826
 6187SOL    HW120393   2.965   6.757   0.733
 6187SOL    HW220394   2.895   6.851   0.828
 6188SOL     OW20395   7.709   4.153   2.074
 6188SOL    HW120396   7.687   4.067   2.111
 6188SOL    HW220397   7.637   4.171   2.013
 6189SOL     OW20398  14.744   4.049  13.976
 6189SOL    HW120399  14.757   4.042  14.071
 6189SOL    HW220400  14.811   4.111  13.948
 6190SOL     OW20401   9.023   7.995   3.749
 6190SOL    HW120402   9.045   7.957   3.664
 6190SOL    HW220403   9.103   8.039   3.777
 6191SOL     OW20404  11.948   9.299  12.213
 6191SOL    HW120405  11.968   9.205  12.216
 6191SOL    HW220406  12.023   9.340  12.257
 6192SOL     OW20407   4.234  13.812  14.634
 6192SOL    HW120408   4.270  13.745  14.576
 6192SOL    HW220409   4.276  13.893  14.606
 6193SOL     OW20410  13.413  14.736   2.747
 6193SOL    HW120411  13.453  14.766   2.665
 6193SOL    HW220412  13.444  14.646   2.757
 6194SOL     OW20413  13.573  12.931  10.888
 6194SOL    HW120414  13.550  13.024  10.890
 6194SOL    HW220415  13.666  12.928  10.910
 6195SOL     OW20416   5.055   8.359   4.818
 6195SOL    HW120417   5.064   8.292   4.751
 6195SOL    HW220418   4.972   8.403   4.797
 6196SOL     OW20419   6.961   5.257   7.218
 6196SOL    HW120420   6.969   5.253   7.123
 6196SOL    HW220421   6.923   5.343   7.235
 6197SOL     OW20422   6.976   4.274  12.799
 6197SOL    HW120423   7.033   4.200  12.778
 6197SOL    HW220424   7.028   4.328  12.860
 6198SOL     OW20425   2.741  11.701   4.615
 6198SOL    HW120426   2.758  11.627   4.557
 6198SOL    HW220427   2.709  11.770   4.557
 6199SOL     OW20428  13.477  10.373  12.364
 6199SOL    HW120429  13.385  10.368  12.388
 6199SOL    HW220430  13.508  10.282  12.367
 6200SOL     OW20431   7.288   6.650   4.282
 6200SOL    HW120432   7.217   6.601   4.321
 6200SOL    HW220433   7.246   6.708   4.218
 6201SOL     OW20434   4.387   5.223   5.282
 6201SOL    HW120435   4.292   5.233   5.282
 6201SOL    HW220436   4.403   5.152   5.219
 6202SOL     OW20437   6.834   5.632   1.183
 6202SOL    HW120438   6.914   5.589   1.152
 6202SOL    HW220439   6.790   5.565   1.236
 6203SOL     OW20440   0.067   9.964   4.028
 6203SOL    HW120441   0.148   9.919   4.052
 6203SOL    HW220442   0.093  10.027   3.961
 6204SOL     OW20443  10.867   9.220   4.541
 6204SOL    HW120444  10.910   9.157   4.599
 6204SOL    HW220445  10.856   9.299   4.595
 6205SOL     OW20446  14.348   5.799   5.824
 6205SOL    HW120447  14.261   5.783   5.787
 6205SOL    HW220448  14.332   5.850   5.903
 6206SOL     OW20449   1.407   4.263  13.884
 6206SOL    HW120450   1.403   4.350  13.844
 6206SOL    HW220451   1.316   4.236  13.893
 6207SOL     OW20452   6.996   4.160   9.694
 6207SOL    HW120453   6.945   4.235   9.662
 6207SOL    HW220454   7.066   4.200   9.746
 6208SOL     OW20455   5.045   2.969   0.165
 6208SOL    HW120456   5.050   2.968   0.261
 6208SOL    HW220457   4.962   2.926   0.145
 6209SOL     OW20458   6.091   0.645  12.176
 6209SOL    HW120459   6.182   0.622  12.190
 6209SOL    HW220460   6.057   0.662  12.265
 6210SOL     OW20461  13.159   4.120   6.845
 6210SOL    HW120462  13.100   4.132   6.772
 6210SOL    HW220463  13.194   4.032   6.834
 6211SOL     OW20464   9.417   7.595  14.209
 6211SOL    HW120465   9.327   7.627  14.203
 6211SOL    HW220466   9.463   7.663  14.260
 6212SOL     OW20467  14.848  13.393   1.565
 6212SOL    HW120468  14.753  13.403   1.559
 6212SOL    HW220469  14.862  13.299   1.559
 6213SOL     OW20470  14.649  12.287   7.551
 6213SOL    HW120471  14.610  12.366   7.516
 6213SOL    HW220472  14.694  12.247   7.476
 6214SOL     OW20473  13.273   4.757  11.676
 6214SOL    HW120474  13.296   4.665  11.687
 6214SOL    HW220475  13.356   4.804  11.683
 6215SOL     OW20476   5.475   6.382  14.836
 6215SOL    HW120477   5.475   6.466  14.882
 6215SOL    HW220478   5.563   6.347  14.850
 6216SOL     OW20479   3.893   1.500   3.211
 6216SOL    HW120480   3.949   1.460   3.278
 6216SOL    HW220481   3.952   1.518   3.138
 6217SOL     OW20482  11.479   3.144   7.882
 6217SOL    HW120483  11.551   3.119   7.825
 6217SOL    HW220484  11.441   3.221   7.840
 6218SOL     OW20485   7.066   4.436  14.454
 6218SOL    HW120486   7.161   4.439  14.469
 6218SOL    HW220487   7.032   4.383  14.526
 6219SOL     OW20488  14.294   0.670  11.111
 6219SOL    HW120489  14.389   0.666  11.104
 6219SOL    HW220490  14.270   0.757  11.080
 6220SOL     OW20491  11.163   1.491   3.676
 6220SOL    HW120492  11.128   1.429   3.612
 6220SOL    HW220493  11.097   1.493   3.746
 6221SOL     OW20494   8.497  14.801  11.829
 6221SOL    HW120495   8.481  14.734  11.763
 6221SOL    HW220496   8.483   0.002  11.783
 6222SOL     OW20497   2.173  13.714   8.203
 6222SOL    HW120498   2.081  13.688   8.193
 6222SOL    HW220499   2.211  13.646   8.258
 6223SOL     OW20500  10.527  10.027   1.645
 6223SOL    HW120501  10.615  10.022   1.608
 6223SOL    HW220502  10.536   9.990   1.733
 6224SOL     OW20503   8.263   7.127   3.225
 6224SOL    HW120504   8.328   7.186   3.265
 6224SOL    HW220505   8.200   7.110   3.295
 6225SOL     OW20506   7.340   9.920   2.798
 6225SOL    HW120507   7.395   9.944   2.872
 6225SOL    HW220508   7.254   9.957   2.819
 6226SOL     OW20509   1.988   5.898   8.393
 6226SOL    HW120510   1.923   5.966   8.376
 6226SOL    HW220511   2.002   5.856   8.308
 6227SOL     OW20512   6.163  13.489  12.261
 6227SOL    HW120513   6.113  13.415  12.228
 6227SOL    HW220514   6.173  13.548  12.186
 6228SOL     OW20515   7.550   2.414   1.480
 6228SOL    HW120516   7.623   2.378   1.531
 6228SOL    HW220517   7.502   2.338   1.449
 6229SOL     OW20518   4.042   2.345   6.951
 6229SOL    HW120519   4.026   2.413   7.017
 6229SOL    HW220520   4.024   2.387   6.867
 6230SOL     OW20521  11.252   3.404   9.219
 6230SOL    HW120522  11.320   3.359   9.170
 6230SOL    HW220523  11.207   3.458   9.155
 6231SOL     OW20524   3.783  13.312   8.046
 6231SOL    HW120525   3.752  13.399   8.072
 6231SOL    HW220526   3.799  13.267   8.129
 6232SOL     OW20527   6.531   0.028  10.032
 6232SOL    HW120528   6.528  14.855   9.954
 6232SOL    HW220529   6.448   0.075  10.032
 6233SOL     OW20530   0.897   5.227   4.089
 6233SOL    HW120531   0.947   5.277   4.154
 6233SOL    HW220532   0.956   5.219   4.014
 6234SOL     OW20533   9.656   2.497   0.395
 6234SOL    HW120534   9.694   2.426   0.447
 6234SOL    HW220535   9.672   2.472   0.304
 6235SOL     OW20536   1.842  14.257   4.160
 6235SOL    HW120537   1.815  14.331   4.106
 6235SOL    HW220538   1.900  14.205   4.104
 6236SOL     OW20539   6.505  12.941  14.762
 6236SOL    HW120540   6.572  12.986  14.815
 6236SOL    HW220541   6.423  12.958  14.808
 6237SOL     OW20542   6.440   6.883  13.804
 6237SOL    HW120543   6.402   6.797  13.821
 6237SOL    HW220544   6.527   6.864  13.768
 6238SOL     OW20545  10.493   9.673   2.007
 6238SOL    HW120546  10.475   9.595   1.954
 6238SOL    HW220547  10.438   9.661   2.085
 6239SOL     OW20548   9.943   4.240  14.600
 6239SOL    HW120549   9.922   4.234  14.693
 6239SOL    HW220550   9.872   4.193  14.556
 6240SOL     OW20551   9.360   3.005   0.838
 6240SOL    HW120552   9.395   3.046   0.917
 6240SOL    HW220553   9.306   3.073   0.797
 6241SOL     OW20554  11.792  10.205  12.968
 6241SOL    HW120555  11.795  10.235  13.058
 6241SOL    HW220556  11.870  10.150  12.958
 6242SOL     OW20557   5.276   7.823   7.618
 6242SOL    HW120558   5.187   7.789   7.615
 6242SOL    HW220559   5.266   7.912   7.654
 6243SOL     OW20560   4.212   5.084   4.834
 6243SOL    HW120561   4.229   5.168   4.792
 6243SOL    HW220562   4.158   5.105   4.910
 6244SOL     OW20563   6.475   7.416  14.257
 6244SOL    HW120564   6.400   7.368  14.224
 6244SOL    HW220565   6.441   7.504  14.277
 6245SOL     OW20566   0.336   8.664   0.085
 6245SOL    HW120567   0.387   8.714   0.021
 6245SOL    HW220568   0.392   8.661   0.163
 6246SOL     OW20569   8.947  13.844   9.880
 6246SOL    HW120570   8.886  13.876   9.813
 6246SOL    HW220571   9.025  13.899   9.869
 6247SOL     OW20572  12.632   9.959   2.196
 6247SOL    HW120573  12.659   9.931   2.109
 6247SOL    HW220574  12.556   9.904   2.217
 6248SOL     OW20575  12.661   2.077  14.430
 6248SOL    HW120576  12.747   2.035  14.421
 6248SOL    HW220577  12.598   2.006  14.417
 6249SOL     OW20578  12.003   0.695   9.441
 6249SOL    HW120579  11.946   0.619   9.428
 6249SOL    HW220580  12.078   0.679   9.383
 6250SOL     OW20581  10.391  14.567  13.884
 6250SOL    HW120582  10.475  14.568  13.932
 6250SOL    HW220583  10.398  14.639  13.822
 6251SOL     OW20584  11.556   4.008   5.277
 6251SOL    HW120585  11.572   3.996   5.371
 6251SOL    HW220586  11.533   4.100   5.268
 6252SOL     OW20587   3.835   7.089  12.197
 6252SOL    HW120588   3.916   7.140  12.200
 6252SOL    HW220589   3.848   7.027  12.126
 6253SOL     OW20590   1.461   6.715   3.191
 6253SOL    HW120591   1.422   6.662   3.260
 6253SOL    HW220592   1.394   6.779   3.168
 6254SOL     OW20593  11.633   6.601   4.909
 6254SOL    HW120594  11.697   6.560   4.968
 6254SOL    HW220595  11.682   6.618   4.829
 6255SOL     OW20596   3.154   3.965  14.427
 6255SOL    HW120597   3.115   3.880  14.448
 6255SOL    HW220598   3.217   3.946  14.358
 6256SOL     OW20599  10.110  13.670   8.470
 6256SOL    HW120600  10.071  13.647   8.386
 6256SOL    HW220601  10.173  13.738   8.450
 6257SOL     OW20602  12.594   6.004  12.596
 6257SOL    HW120603  12.569   6.092  12.568
 6257SOL    HW220604  12.533   5.946  12.551
 6258SOL     OW20605   6.655   6.007   8.431
 6258SOL    HW120606   6.619   5.920   8.449
 6258SOL    HW220607   6.588   6.050   8.378
 6259SOL     OW20608   2.733   7.420  11.613
 6259SOL    HW120609   2.686   7.474  11.551
 6259SOL    HW220610   2.711   7.330  11.588
 6260SOL     OW20611  13.321   9.125  11.292
 6260SOL    HW120612  13.297   9.195  11.353
 6260SOL    HW220613  13.270   9.050  11.319
 6261SOL     OW20614  11.278   7.179   9.877
 6261SOL    HW120615  11.346   7.239   9.848
 6261SOL    HW220616  11.217   7.234   9.926
 6262SOL     OW20617   2.448   7.422   7.964
 6262SOL    HW120618   2.521   7.377   8.007
 6262SOL    HW220619   2.408   7.474   8.034
 6263SOL     OW20620  13.666   1.721   7.103
 6263SOL    HW120621  13.575   1.719   7.133
 6263SOL    HW220622  13.696   1.630   7.113
 6264SOL     OW20623   7.997   1.037  14.172
 6264SOL    HW120624   8.029   1.069  14.088
 6264SOL    HW220625   8.074   1.003  14.216
 6265SOL     OW20626   3.733   9.907   8.735
 6265SOL    HW120627   3.687   9.882   8.654
 6265SOL    HW220628   3.780   9.828   8.761
 6266SOL     OW20629   3.749   5.813   3.253
 6266SOL    HW120630   3.802   5.892   3.264
 6266SOL    HW220631   3.669   5.831   3.302
 6267SOL     OW20632   1.707   2.699   1.034
 6267SOL    HW120633   1.642   2.740   0.977
 6267SOL    HW220634   1.703   2.606   1.013
 6268SOL     OW20635   6.610  12.683   0.305
 6268SOL    HW120636   6.619  12.640   0.220
 6268SOL    HW220637   6.573  12.769   0.286
 6269SOL     OW20638  14.000   5.289   8.184
 6269SOL    HW120639  13.925   5.300   8.243
 6269SOL    HW220640  14.008   5.373   8.139
 6270SOL     OW20641   2.217   3.495  10.929
 6270SOL    HW120642   2.279   3.561  10.898
 6270SOL    HW220643   2.135   3.515  10.883
 6271SOL     OW20644  13.578  10.257   5.879
 6271SOL    HW120645  13.533  10.339   5.856
 6271SOL    HW220646  13.654  10.254   5.821
 6272SOL     OW20647   7.071   5.104   4.748
 6272SOL    HW120648   7.155   5.093   4.794
 6272SOL    HW220649   7.027   5.175   4.795
 6273SOL     OW20650  10.077  13.746   4.316
 6273SOL    HW120651  10.008  13.691   4.354
 6273SOL    HW220652  10.053  13.756   4.224
 6274SOL     OW20653   1.624   5.426  13.194
 6274SOL    HW120654   1.679   5.390  13.263
 6274SOL    HW220655   1.537   5.391  13.212
 6275SOL     OW20656  14.172  10.420   9.818
 6275SOL    HW120657  14.196  10.342   9.768
 6275SOL    HW220658  14.186  10.493   9.757
 6276SOL     OW20659   5.314  12.671   8.148
 6276SOL    HW120660   5.348  12.593   8.194
 6276SOL    HW220661   5.275  12.724   8.218
 6277SOL     OW20662  14.226  13.593  12.382
 6277SOL    HW120663  14.186  13.566  12.465
 6277SOL    HW220664  14.189  13.680  12.366
 6278SOL     OW20665   6.731   2.370  10.468
 6278SOL    HW120666   6.785   2.353  10.546
 6278SOL    HW220667   6.662   2.303  10.472
 6279SOL     OW20668  10.619   4.638  13.430
 6279SOL    HW120669  10.613   4.695  13.353
 6279SOL    HW220670  10.532   4.644  13.470
 6280SOL     OW20671   4.848   8.137   9.034
 6280SOL    HW120672   4.912   8.116   9.102
 6280SOL    HW220673   4.778   8.073   9.046
 6281SOL     OW20674   0.696  10.402  10.142
 6281SOL    HW120675   0.623  10.435  10.194
 6281SOL    HW220676   0.730  10.329  10.194
 6282SOL     OW20677  10.674   7.403   0.667
 6282SOL    HW120678  10.637   7.346   0.599
 6282SOL    HW220679  10.602   7.415   0.729
 6283SOL     OW20680  12.570   5.921   7.667
 6283SOL    HW120681  12.561   5.986   7.597
 6283SOL    HW220682  12.628   5.854   7.630
 6284SOL     OW20683  13.409   2.741   6.678
 6284SOL    HW120684  13.374   2.813   6.729
 6284SOL    HW220685  13.332   2.697   6.641
 6285SOL     OW20686  14.653   7.651   4.258
 6285SOL    HW120687  14.723   7.674   4.196
 6285SOL    HW220688  14.699   7.617   4.335
 6286SOL     OW20689   6.244   9.841   5.647
 6286SOL    HW120690   6.226   9.898   5.722
 6286SOL    HW220691   6.335   9.814   5.658
 6287SOL     OW20692  14.499   1.757  13.397
 6287SOL    HW120693  14.574   1.731  13.343
 6287SOL    HW220694  14.469   1.675  13.437
 6288SOL     OW20695   2.682   8.324  13.033
 6288SOL    HW120696   2.763   8.274  13.039
 6288SOL    HW220697   2.658   8.321  12.940
 6289SOL     OW20698   7.835   4.783  14.691
 6289SOL    HW120699   7.886   4.750  14.618
 6289SOL    HW220700   7.883   4.753  14.769
 6290SOL     OW20701   4.324   6.963   6.301
 6290SOL    HW120702   4.385   7.011   6.357
 6290SOL    HW220703   4.285   7.031   6.246
 6291SOL     OW20704  11.456  10.914   0.885
 6291SOL    HW120705  11.399  10.849   0.925
 6291SOL    HW220706  11.491  10.964   0.958
 6292SOL     OW20707   5.455   3.075  12.157
 6292SOL    HW120708   5.426   3.082  12.066
 6292SOL    HW220709   5.374   3.075  12.208
 6293SOL     OW20710   0.072   0.322   7.291
 6293SOL    HW120711   0.116   0.264   7.228
 6293SOL    HW220712   0.050   0.265   7.364
 6294SOL     OW20713   6.452   1.427   7.247
 6294SOL    HW120714   6.468   1.333   7.238
 6294SOL    HW220715   6.431   1.439   7.339
 6295SOL     OW20716  13.535   3.378  14.075
 6295SOL    HW120717  13.480   3.368  13.997
 6295SOL    HW220718  13.564   3.469  14.073
 6296SOL     OW20719   7.775  14.007   0.650
 6296SOL    HW120720   7.796  13.913   0.649
 6296SOL    HW220721   7.786  14.034   0.559
 6297SOL     OW20722   6.946   0.582   6.241
 6297SOL    HW120723   6.921   0.526   6.168
 6297SOL    HW220724   6.888   0.657   6.235
 6298SOL     OW20725   6.138   6.928   3.993
 6298SOL    HW120726   6.167   6.904   4.081
 6298SOL    HW220727   6.043   6.936   4.000
 6299SOL     OW20728   7.146   0.616  13.911
 6299SOL    HW120729   7.089   0.683  13.948
 6299SOL    HW220730   7.188   0.575  13.986
 6300SOL     OW20731  12.991  10.974   9.911
 6300SOL    HW120732  13.021  10.900   9.964
 6300SOL    HW220733  13.012  11.051   9.964
 6301SOL     OW20734   9.614   0.152   2.830
 6301SOL    HW120735   9.531   0.136   2.784
 6301SOL    HW220736   9.587   0.171   2.920
 6302SOL     OW20737  13.780  12.440  11.376
 6302SOL    HW120738  13.754  12.425  11.285
 6302SOL    HW220739  13.858  12.495  11.369
 6303SOL     OW20740   7.724   0.954   9.641
 6303SOL    HW120741   7.661   0.925   9.707
 6303SOL    HW220742   7.699   0.905   9.562
 6304SOL     OW20743   3.838   9.862  11.648
 6304SOL    HW120744   3.804   9.891  11.733
 6304SOL    HW220745   3.783   9.906  11.583
 6305SOL     OW20746   7.793   6.882  13.064
 6305SOL    HW120747   7.809   6.927  12.981
 6305SOL    HW220748   7.809   6.949  13.131
 6306SOL     OW20749   4.832   1.126   5.528
 6306SOL    HW120750   4.736   1.124   5.519
 6306SOL    HW220751   4.854   1.039   5.564
 6307SOL     OW20752  13.275  12.937   0.907
 6307SOL    HW120753  13.333  13.010   0.888
 6307SOL    HW220754  13.271  12.934   1.003
 6308SOL     OW20755   0.846   6.006   0.787
 6308SOL    HW120756   0.858   6.099   0.805
 6308SOL    HW220757   0.784   5.976   0.853
 6309SOL     OW20758   2.979  10.201   1.193
 6309SOL    HW120759   2.959  10.249   1.113
 6309SOL    HW220760   2.894  10.172   1.226
 6310SOL     OW20761  13.198   1.924   7.217
 6310SOL    HW120762  13.135   1.852   7.215
 6310SOL    HW220763  13.143   2.002   7.231
 6311SOL     OW20764  10.893  11.453   9.626
 6311SOL    HW120765  10.930  11.506   9.557
 6311SOL    HW220766  10.798  11.461   9.615
 6312SOL     OW20767   2.132   9.496  10.875
 6312SOL    HW120768   2.055   9.487  10.932
 6312SOL    HW220769   2.198   9.438  10.914
 6313SOL     OW20770   2.629   6.089  11.658
 6313SOL    HW120771   2.708   6.047  11.691
 6313SOL    HW220772   2.626   6.065  11.565
 6314SOL     OW20773   2.593   8.272   2.558
 6314SOL    HW120774   2.505   8.234   2.554
 6314SOL    HW220775   2.608   8.289   2.651
 6315SOL     OW20776  14.459  14.439  13.411
 6315SOL    HW120777  14.415  14.497  13.472
 6315SOL    HW220778  14.390  14.408  13.353
 6316SOL     OW20779  13.608  10.415   1.165
 6316SOL    HW120780  13.575  10.344   1.110
 6316SOL    HW220781  13.643  10.371   1.242
 6317SOL     OW20782  11.192  10.139   9.452
 6317SOL    HW120783  11.096  10.146   9.455
 6317SOL    HW220784  11.218  10.197   9.380
 6318SOL     OW20785  13.551   0.016  11.481
 6318SOL    HW120786  13.487  14.854  11.538
 6318SOL    HW220787  13.503   0.089  11.442
 6319SOL     OW20788   7.266   4.918  11.448
 6319SOL    HW120789   7.315   4.997  11.425
 6319SOL    HW220790   7.254   4.925  11.543
 6320SOL     OW20791  12.420   4.652  10.946
 6320SOL    HW120792  12.395   4.743  10.962
 6320SOL    HW220793  12.391   4.635  10.856
 6321SOL     OW20794  12.360   0.917   4.748
 6321SOL    HW120795  12.336   0.841   4.695
 6321SOL    HW220796  12.401   0.880   4.826
 6322SOL     OW20797   8.082  11.700  14.722
 6322SOL    HW120798   8.099  11.706  14.628
 6322SOL    HW220799   7.993  11.733  14.733
 6323SOL     OW20800  11.531   9.400   1.424
 6323SOL    HW120801  11.566   9.439   1.504
 6323SOL    HW220802  11.545   9.467   1.357
 6324SOL     OW20803  11.143   4.549  14.490
 6324SOL    HW120804  11.185   4.468  14.517
 6324SOL    HW220805  11.137   4.542  14.394
 6325SOL     OW20806   8.293   8.674  12.302
 6325SOL    HW120807   8.223   8.682  12.237
 6325SOL    HW220808   8.355   8.613  12.262
 6326SOL     OW20809   0.732   6.383   0.337
 6326SOL    HW120810   0.797   6.382   0.408
 6326SOL    HW220811   0.758   6.310   0.281
 6327SOL     OW20812  10.191   6.104   0.717
 6327SOL    HW120813  10.265   6.126   0.773
 6327SOL    HW220814  10.214   6.139   0.631
 6328SOL     OW20815  14.114   3.614   0.964
 6328SOL    HW120816  14.101   3.610   1.059
 6328SOL    HW220817  14.121   3.708   0.945
 6329SOL     OW20818   1.409  12.909  13.299
 6329SOL    HW120819   1.330  12.894  13.247
 6329SOL    HW220820   1.428  13.002  13.287
 6330SOL     OW20821  12.643  12.677  10.392
 6330SOL    HW120822  12.708  12.747  10.400
 6330SOL    HW220823  12.632  12.644  10.481
 6331SOL     OW20824   7.615   2.904  14.152
 6331SOL    HW120825   7.577   2.986  14.187
 6331SOL    HW220826   7.677   2.933  14.086
 6332SOL     OW20827   8.507   7.448  11.085
 6332SOL    HW120828   8.458   7.437  11.166
 6332SOL    HW220829   8.590   7.486  11.112
 6333SOL     OW20830  12.166   4.409  11.939
 6333SOL    HW120831  12.088   4.355  11.951
 6333SOL    HW220832  12.178   4.416  11.845
 6334SOL     OW20833   9.804   6.833   0.715
 6334SOL    HW120834   9.874   6.890   0.682
 6334SOL    HW220835   9.799   6.853   0.809
 6335SOL     OW20836  10.843  10.402  14.550
 6335SOL    HW120837  10.815  10.316  14.517
 6335SOL    HW220838  10.931  10.414  14.515
 6336SOL     OW20839   5.769  13.309   2.305
 6336SOL    HW120840   5.754  13.216   2.288
 6336SOL    HW220841   5.694  13.336   2.357
 6337SOL     OW20842   3.203   9.816   5.884
 6337SOL    HW120843   3.157   9.777   5.810
 6337SOL    HW220844   3.142   9.881   5.919
 6338SOL     OW20845   4.211  12.505  10.839
 6338SOL    HW120846   4.157  12.437  10.879
 6338SOL    HW220847   4.271  12.457  10.782
 6339SOL     OW20848   6.839  11.165   8.958
 6339SOL    HW120849   6.777  11.230   8.924
 6339SOL    HW220850   6.827  11.089   8.902
 6340SOL     OW20851  11.003   4.606   6.264
 6340SOL    HW120852  11.083   4.554   6.277
 6340SOL    HW220853  11.028   4.694   6.290
 6341SOL     OW20854   4.792   5.871   5.386
 6341SOL    HW120855   4.741   5.790   5.377
 6341SOL    HW220856   4.727   5.940   5.398
 6342SOL     OW20857  13.227   1.817  13.614
 6342SOL    HW120858  13.193   1.895  13.658
 6342SOL    HW220859  13.263   1.763  13.684
 6343SOL     OW20860  10.851   8.337   7.679
 6343SOL    HW120861  10.840   8.267   7.614
 6343SOL    HW220862  10.769   8.336   7.728
 6344SOL     OW20863   2.811  12.841   6.537
 6344SOL    HW120864   2.841  12.774   6.599
 6344SOL    HW220865   2.793  12.918   6.591
 6345SOL     OW20866  12.010  12.606   8.224
 6345SOL    HW120867  11.941  12.551   8.186
 6345SOL    HW220868  11.964  12.684   8.255
 6346SOL     OW20869   6.838  10.044   8.699
 6346SOL    HW120870   6.922  10.065   8.660
 6346SOL    HW220871   6.823  10.115   8.762
 6347SOL     OW20872  10.416  12.967  14.524
 6347SOL    HW120873  10.383  13.056  14.508
 6347SOL    HW220874  10.362  12.935  14.597
 6348SOL     OW20875   3.957   1.585  11.513
 6348SOL    HW120876   3.916   1.501  11.491
 6348SOL    HW220877   3.898   1.625  11.576
 6349SOL     OW20878   5.822   2.043   1.645
 6349SOL    HW120879   5.742   2.014   1.689
 6349SOL    HW220880   5.855   2.114   1.700
 6350SOL     OW20881   5.881   7.469   6.547
 6350SOL    HW120882   5.938   7.535   6.587
 6350SOL    HW220883   5.863   7.503   6.459
 6351SOL     OW20884  13.049  12.992  12.452
 6351SOL    HW120885  12.968  12.959  12.490
 6351SOL    HW220886  13.116  12.929  12.480
 6352SOL     OW20887   8.035   9.285   6.482
 6352SOL    HW120888   8.087   9.233   6.544
 6352SOL    HW220889   8.100   9.321   6.422
 6353SOL     OW20890   8.860   3.786  14.301
 6353SOL    HW120891   8.840   3.832  14.220
 6353SOL    HW220892   8.953   3.803  14.316
 6354SOL     OW20893   5.715  11.959  12.847
 6354SOL    HW120894   5.751  11.953  12.936
 6354SOL    HW220895   5.787  11.990  12.794
 6355SOL     OW20896   4.308   2.242   7.372
 6355SOL    HW120897   4.289   2.324   7.418
 6355SOL    HW220898   4.233   2.230   7.314
 6356SOL     OW20899  14.672   6.488   0.363
 6356SOL    HW120900  14.762   6.491   0.330
 6356SOL    HW220901  14.620   6.462   0.287
 6357SOL     OW20902  10.164   9.716   9.126
 6357SOL    HW120903  10.194   9.788   9.071
 6357SOL    HW220904  10.236   9.652   9.123
 6358SOL     OW20905   4.410   9.953   0.824
 6358SOL    HW120906   4.409   9.868   0.780
 6358SOL    HW220907   4.400   9.933   0.916
 6359SOL     OW20908   1.509  13.493   2.191
 6359SOL    HW120909   1.595  13.530   2.171
 6359SOL    HW220910   1.480  13.454   2.108
 6360SOL     OW20911   1.541   4.187   9.949
 6360SOL    HW120912   1.522   4.101   9.913
 6360SOL    HW220913   1.531   4.177  10.044
 6361SOL     OW20914  14.169  14.137   5.376
 6361SOL    HW120915  14.222  14.186   5.313
 6361SOL    HW220916  14.131  14.065   5.325
 6362SOL     OW20917   6.252  12.149   3.412
 6362SOL    HW120918   6.287  12.080   3.356
 6362SOL    HW220919   6.157  12.145   3.399
 6363SOL     OW20920   0.495   0.598   1.194
 6363SOL    HW120921   0.545   0.556   1.265
 6363SOL    HW220922   0.475   0.526   1.134
 6364SOL     OW20923   6.586   9.953   8.220
 6364SOL    HW120924   6.651   9.897   8.263
 6364SOL    HW220925   6.593  10.037   8.266
 6365SOL     OW20926  11.731   6.459  13.724
 6365SOL    HW120927  11.757   6.376  13.686
 6365SOL    HW220928  11.740   6.522  13.652
 6366SOL     OW20929   1.725   0.240  11.837
 6366SOL    HW120930   1.704   0.147  11.827
 6366SOL    HW220931   1.818   0.241  11.860
 6367SOL     OW20932   4.826   2.645   1.692
 6367SOL    HW120933   4.761   2.700   1.736
 6367SOL    HW220934   4.887   2.621   1.761
 6368SOL     OW20935  11.347   0.364   3.515
 6368SOL    HW120936  11.312   0.275   3.514
 6368SOL    HW220937  11.316   0.404   3.434
 6369SOL     OW20938   8.069   6.271   5.091
 6369SOL    HW120939   7.988   6.226   5.065
 6369SOL    HW220940   8.051   6.302   5.180
 6370SOL     OW20941   9.342   0.376   0.006
 6370SOL    HW120942   9.359   0.397  14.796
 6370SOL    HW220943   9.329   0.461   0.048
 6371SOL     OW20944   4.010   7.540   1.400
 6371SOL    HW120945   4.089   7.556   1.349
 6371SOL    HW220946   4.016   7.448   1.427
 6372SOL     OW20947   2.759   1.364  14.047
 6372SOL    HW120948   2.825   1.365  13.979
 6372SOL    HW220949   2.805   1.332  14.125
 6373SOL     OW20950   4.092   3.366  14.351
 6373SOL    HW120951   4.016   3.418  14.327
 6373SOL    HW220952   4.144   3.361  14.271
 6374SOL     OW20953   6.790   0.544   1.761
 6374SOL    HW120954   6.838   0.462   1.748
 6374SOL    HW220955   6.716   0.538   1.701
 6375SOL     OW20956   7.049   7.080   7.715
 6375SOL    HW120957   6.961   7.041   7.716
 6375SOL    HW220958   7.069   7.092   7.622
 6376SOL     OW20959  12.756  14.704  10.949
 6376SOL    HW120960  12.778  14.770  11.015
 6376SOL    HW220961  12.832  14.646  10.948
 6377SOL     OW20962   0.015  14.709   2.949
 6377SOL    HW120963   0.063  14.702   3.031
 6377SOL    HW220964  14.811  14.673   2.968
 6378SOL     OW20965   1.358  12.023   8.854
 6378SOL    HW120966   1.363  12.000   8.947
 6378SOL    HW220967   1.309  11.951   8.814
 6379SOL     OW20968   6.635   1.315   0.105
 6379SOL    HW120969   6.585   1.322   0.187
 6379SOL    HW220970   6.689   1.393   0.103
 6380SOL     OW20971   7.825  10.496  13.476
 6380SOL    HW120972   7.730  10.500  13.467
 6380SOL    HW220973   7.851  10.586  13.498
 6381SOL     OW20974  13.772   9.087   4.728
 6381SOL    HW120975  13.751   9.170   4.770
 6381SOL    HW220976  13.854   9.059   4.770
 6382SOL     OW20977   1.894   0.387   1.575
 6382SOL    HW120978   1.965   0.327   1.596
 6382SOL    HW220979   1.814   0.335   1.588
 6383SOL     OW20980   3.836   1.671  10.658
 6383SOL    HW120981   3.832   1.699  10.567
 6383SOL    HW220982   3.929   1.654  10.674
 6384SOL     OW20983  14.490   8.340   5.252
 6384SOL    HW120984  14.432   8.263   5.247
 6384SOL    HW220985  14.577   8.303   5.266
 6385SOL     OW20986  14.530  12.299   5.235
 6385SOL    HW120987  14.562  12.239   5.302
 6385SOL    HW220988  14.513  12.380   5.282
 6386SOL     OW20989  12.332  13.224  10.154
 6386SOL    HW120990  12.404  13.269  10.111
 6386SOL    HW220991  12.280  13.294  10.194
 6387SOL     OW20992  13.686  11.252   1.372
 6387SOL    HW120993  13.620  11.273   1.438
 6387SOL    HW220994  13.738  11.332   1.364
 6388SOL     OW20995  10.101   9.604   5.341
 6388SOL    HW120996  10.143   9.545   5.279
 6388SOL    HW220997  10.129   9.692   5.315
 6389SOL     OW20998   6.936  13.518  10.136
 6389SOL    HW120999   6.847  13.493  10.157
 6389SOL    HW221000   6.991  13.451  10.177
 6390SOL     OW21001   6.783  10.503  11.662
 6390SOL    HW121002   6.827  10.514  11.746
 6390SOL    HW221003   6.690  10.505  11.683
 6391SOL     OW21004   9.798   4.464   6.787
 6391SOL    HW121005   9.841   4.427   6.864
 6391SOL    HW221006   9.865   4.519   6.746
 6392SOL     OW21007   8.975  11.497  14.155
 6392SOL    HW121008   8.941  11.586  14.168
 6392SOL    HW221009   9.061  11.510  14.114
 6393SOL     OW21010  10.418  13.061   2.727
 6393SOL    HW121011  10.444  13.150   2.749
 6393SOL    HW221012  10.389  13.066   2.636
 6394SOL     OW21013  10.510   8.703   5.810
 6394SOL    HW121014  10.509   8.668   5.899
 6394SOL    HW221015  10.582   8.765   5.809
 6395SOL     OW21016   4.017  10.379   2.782
 6395SOL    HW121017   4.017  10.365   2.688
 6395SOL    HW221018   4.039  10.293   2.819
 6396SOL     OW21019   5.412   8.754  12.627
 6396SOL    HW121020   5.431   8.703  12.548
 6396SOL    HW221021   5.327   8.796  12.609
 6397SOL     OW21022  13.690   6.315   2.189
 6397SOL    HW121023  13.705   6.281   2.277
 6397SOL    HW221024  13.629   6.387   2.201
 6398SOL     OW21025  14.183   3.459  14.621
 6398SOL    HW121026  14.232   3.422  14.694
 6398SOL    HW221027  14.227   3.425  14.543
 6399SOL     OW21028   6.530   8.909   3.761
 6399SOL    HW121029   6.609   8.960   3.780
 6399SOL    HW221030   6.563   8.824   3.732
 6400SOL     OW21031   8.449   7.795   2.154
 6400SOL    HW121032   8.542   7.817   2.151
 6400SOL    HW221033   8.427   7.773   2.063
 6401SOL     OW21034   3.812  11.554  14.530
 6401SOL    HW121035   3.829  11.548  14.436
 6401SOL    HW221036   3.815  11.647  14.549
 6402SOL     OW21037   5.209   0.926   9.421
 6402SOL    HW121038   5.266   0.873   9.365
 6402SOL    HW221039   5.171   0.863   9.483
 6403SOL     OW21040   5.613   5.133   1.398
 6403SOL    HW121041   5.670   5.205   1.424
 6403SOL    HW221042   5.532   5.148   1.447
 6404SOL     OW21043  14.312   9.856   1.026
 6404SOL    HW121044  14.329   9.924   0.961
 6404SOL    HW221045  14.326   9.774   0.979
 6405SOL     OW21046   3.470   5.741  11.859
 6405SOL    HW121047   3.437   5.688  11.787
 6405SOL    HW221048   3.406   5.812  11.868
 6406SOL     OW21049   5.652   2.278   9.766
 6406SOL    HW121050   5.683   2.338   9.698
 6406SOL    HW221051   5.614   2.335   9.833
 6407SOL     OW21052   0.548   5.797  12.462
 6407SOL    HW121053   0.633   5.819  12.501
 6407SOL    HW221054   0.494   5.875  12.476
 6408SOL     OW21055  11.196   0.176   5.385
 6408SOL    HW121056  11.223   0.203   5.297
 6408SOL    HW221057  11.191   0.081   5.380
 6409SOL     OW21058  14.702   4.464   8.994
 6409SOL    HW121059  14.670   4.553   8.978
 6409SOL    HW221060  14.797   4.472   8.989
 6410SOL     OW21061   0.396  13.063   8.898
 6410SOL    HW121062   0.399  13.159   8.892
 6410SOL    HW221063   0.428  13.044   8.986
 6411SOL     OW21064  14.819   8.285  11.102
 6411SOL    HW121065  14.740   8.327  11.138
 6411SOL    HW221066  14.860   8.353  11.049
 6412SOL     OW21067   8.902   2.452   2.827
 6412SOL    HW121068   8.940   2.504   2.897
 6412SOL    HW221069   8.827   2.408   2.867
 6413SOL     OW21070   5.538  12.855   8.193
 6413SOL    HW121071   5.605  12.817   8.250
 6413SOL    HW221072   5.469  12.789   8.191
 6414SOL     OW21073   4.332  13.051  13.664
 6414SOL    HW121074   4.263  13.093  13.613
 6414SOL    HW221075   4.376  12.994  13.600
 6415SOL     OW21076  14.811   3.848   5.655
 6415SOL    HW121077  14.848   3.919   5.602
 6415SOL    HW221078  14.868   3.844   5.732
 6416SOL     OW21079   1.611  11.922   2.288
 6416SOL    HW121080   1.556  11.847   2.312
 6416SOL    HW221081   1.567  11.997   2.327
 6417SOL     OW21082   5.403  14.339  13.367
 6417SOL    HW121083   5.348  14.310  13.440
 6417SOL    HW221084   5.363  14.299  13.289
 6418SOL     OW21085   7.106   9.581  10.288
 6418SOL    HW121086   7.077   9.615  10.203
 6418SOL    HW221087   7.081   9.650  10.350
 6419SOL     OW21088   0.879   0.793   7.176
 6419SOL    HW121089   0.844   0.706   7.158
 6419SOL    HW221090   0.894   0.793   7.271
 6420SOL     OW21091   5.222   2.818   6.630
 6420SOL    HW121092   5.195   2.806   6.721
 6420SOL    HW221093   5.268   2.737   6.608
 6421SOL     OW21094  14.502   9.368   4.373
 6421SOL    HW121095  14.537   9.449   4.411
 6421SOL    HW221096  14.573   9.334   4.319
 6422SOL     OW21097   4.940  12.144   5.623
 6422SOL    HW121098   5.030  12.114   5.639
 6422SOL    HW221099   4.948  12.239   5.612
 6423SOL     OW21100   4.004   0.112   5.236
 6423SOL    HW121101   3.981   0.023   5.262
 6423SOL    HW221102   4.090   0.127   5.275
 6424SOL     OW21103   4.992   8.147  12.274
 6424SOL    HW121104   4.950   8.061  12.282
 6424SOL    HW221105   5.070   8.140  12.330
 6425SOL     OW21106  12.892   0.517  13.304
 6425SOL    HW121107  12.896   0.583  13.235
 6425SOL    HW221108  12.914   0.435  13.261
 6426SOL     OW21109   9.586   8.184   4.890
 6426SOL    HW121110   9.621   8.178   4.978
 6426SOL    HW221111   9.652   8.141   4.835
 6427SOL     OW21112   9.938   2.313   5.889
 6427SOL    HW121113  10.022   2.295   5.847
 6427SOL    HW221114   9.957   2.307   5.983
 6428SOL     OW21115   4.284  11.978   3.002
 6428SOL    HW121116   4.202  11.931   2.990
 6428SOL    HW221117   4.351  11.921   2.963
 6429SOL     OW21118  13.864   2.608   5.525
 6429SOL    HW121119  13.958   2.619   5.540
 6429SOL    HW221120  13.829   2.583   5.611
 6430SOL     OW21121   3.051   9.026  10.201
 6430SOL    HW121122   3.091   9.072  10.127
 6430SOL    HW221123   3.057   8.933  10.177
 6431SOL     OW21124   1.150   7.068   2.115
 6431SOL    HW121125   1.138   7.019   2.034
 6431SOL    HW221126   1.243   7.086   2.118
 6432SOL     OW21127   8.060   8.231   4.409
 6432SOL    HW121128   8.050   8.251   4.502
 6432SOL    HW221129   8.005   8.295   4.364
 6433SOL     OW21130   6.141   6.031  14.081
 6433SOL    HW121131   6.086   6.108  14.070
 6433SOL    HW221132   6.107   5.987  14.159
 6434SOL     OW21133  10.271  10.154   6.909
 6434SOL    HW121134  10.345  10.213   6.899
 6434SOL    HW221135  10.235  10.146   6.821
 6435SOL     OW21136   3.957  14.673   6.543
 6435SOL    HW121137   3.906  14.598   6.572
 6435SOL    HW221138   3.997  14.708   6.623
 6436SOL     OW21139  13.808   0.027  11.173
 6436SOL    HW121140  13.817  14.878  11.263
 6436SOL    HW221141  13.770  14.835  11.125
 6437SOL     OW21142  14.744  11.397   8.908
 6437SOL    HW121143  14.832  11.367   8.930
 6437SOL    HW221144  14.686  11.330   8.946
 6438SOL     OW21145   0.311   8.867   7.269
 6438SOL    HW121146   0.377   8.885   7.202
 6438SOL    HW221147   0.345   8.791   7.316
 6439SOL     OW21148   8.905   2.533   9.421
 6439SOL    HW121149   8.874   2.502   9.336
 6439SOL    HW221150   8.952   2.459   9.458
 6440SOL     OW21151   3.298   6.753  12.255
 6440SOL    HW121152   3.245   6.792  12.324
 6440SOL    HW221153   3.277   6.659  12.259
 6441SOL     OW21154   8.777  11.902   3.600
 6441SOL    HW121155   8.716  11.967   3.635
 6441SOL    HW221156   8.761  11.903   3.506
 6442SOL     OW21157   3.482  14.557   9.507
 6442SOL    HW121158   3.464  14.531   9.416
 6442SOL    HW221159   3.552  14.498   9.535
 6443SOL     OW21160   7.567   3.611   6.924
 6443SOL    HW121161   7.519   3.549   6.870
 6443SOL    HW221162   7.588   3.563   7.004
 6444SOL     OW21163   8.327  10.486   0.132
 6444SOL    HW121164   8.292  10.519   0.049
 6444SOL    HW221165   8.267  10.519   0.199
 6445SOL     OW21166  13.826   5.068   6.975
 6445SOL    HW121167  13.781   5.088   6.893
 6445SOL    HW221168  13.756   5.057   7.039
 6446SOL     OW21169   3.869   4.750  11.914
 6446SOL    HW121170   3.791   4.750  11.969
 6446SOL    HW221171   3.868   4.664  11.871
 6447SOL     OW21172  14.736   3.751   5.970
 6447SOL    HW121173  14.715   3.799   6.050
 6447SOL    HW221174  14.760   3.664   5.999
 6448SOL     OW21175   1.431   4.154   1.516
 6448SOL    HW121176   1.455   4.144   1.423
 6448SOL    HW221177   1.509   4.129   1.564
 6449SOL     OW21178   1.647   8.816  12.566
 6449SOL    HW121179   1.570   8.872  12.567
 6449SOL    HW221180   1.620   8.739  12.515
 6450SOL     OW21181   1.044  13.355   9.751
 6450SOL    HW121182   1.103  13.336   9.823
 6450SOL    HW221183   0.982  13.419   9.787
 6451SOL     OW21184   1.021   0.403   8.805
 6451SOL    HW121185   0.970   0.345   8.748
 6451SOL    HW221186   0.964   0.419   8.880
 6452SOL     OW21187   1.004   7.820   7.765
 6452SOL    HW121188   1.072   7.885   7.782
 6452SOL    HW221189   1.013   7.800   7.672
 6453SOL     OW21190   5.360   7.454  13.490
 6453SOL    HW121191   5.348   7.370  13.534
 6453SOL    HW221192   5.368   7.518  13.561
 6454SOL     OW21193  14.146  13.777  10.751
 6454SOL    HW121194  14.174  13.840  10.817
 6454SOL    HW221195  14.082  13.722  10.796
 6455SOL     OW21196   2.347   4.138  10.287
 6455SOL    HW121197   2.378   4.054  10.252
 6455SOL    HW221198   2.381   4.203  10.225
 6456SOL     OW21199   6.627   9.568   9.672
 6456SOL    HW121200   6.575   9.642   9.702
 6456SOL    HW221201   6.658   9.526   9.752
 6457SOL     OW21202   6.944   0.163   5.799
 6457SOL    HW121203   6.969   0.246   5.840
 6457SOL    HW221204   6.985   0.096   5.854
 6458SOL     OW21205   9.040   3.521  14.184
 6458SOL    HW121206   9.114   3.581  14.179
 6458SOL    HW221207   9.001   3.538  14.270
 6459SOL     OW21208   7.042   8.371  13.203
 6459SOL    HW121209   7.033   8.454  13.156
 6459SOL    HW221210   7.020   8.304  13.139
 6460SOL     OW21211   0.048  14.331  10.610
 6460SOL    HW121212  14.852  14.329  10.666
 6460SOL    HW221213   0.097  14.253  10.635
 6461SOL     OW21214   4.278  12.472   2.620
 6461SOL    HW121215   4.273  12.463   2.715
 6461SOL    HW221216   4.187  12.474   2.591
 6462SOL     OW21217   8.542  12.522  10.110
 6462SOL    HW121218   8.624  12.474  10.096
 6462SOL    HW221219   8.478  12.455  10.133
 6463SOL     OW21220   0.608   9.651   2.849
 6463SOL    HW121221   0.525   9.628   2.808
 6463SOL    HW221222   0.648   9.566   2.871
 6464SOL     OW21223   0.488   2.089   0.490
 6464SOL    HW121224   0.560   2.093   0.427
 6464SOL    HW221225   0.516   2.146   0.561
 6465SOL     OW21226  13.385   4.527   4.659
 6465SOL    HW121227  13.459   4.546   4.601
 6465SOL    HW221228  13.340   4.453   4.618
 6466SOL     OW21229   4.036   8.457   2.227
 6466SOL    HW121230   3.963   8.395   2.227
 6466SOL    HW221231   4.096   8.422   2.161
 6467SOL     OW21232   6.490   7.283   7.436
 6467SOL    HW121233   6.429   7.219   7.399
 6467SOL    HW221234   6.536   7.319   7.360
 6468SOL     OW21235   7.369  13.285   1.489
 6468SOL    HW121236   7.383  13.222   1.419
 6468SOL    HW221237   7.303  13.345   1.455
 6469SOL     OW21238  14.710  10.357   4.711
 6469SOL    HW121239  14.622  10.352   4.674
 6469SOL    HW221240  14.767  10.372   4.636
 6470SOL     OW21241   2.519   6.172   8.697
 6470SOL    HW121242   2.481   6.136   8.616
 6470SOL    HW221243   2.509   6.102   8.761
 6471SOL     OW21244   0.091   5.082  10.788
 6471SOL    HW121245   0.038   5.134  10.849
 6471SOL    HW221246   0.121   5.145  10.723
 6472SOL     OW21247  14.789   3.275   8.685
 6472SOL    HW121248  14.713   3.271   8.744
 6472SOL    HW221249  14.756   3.241   8.602
 6473SOL     OW21250  10.762   7.132   0.756
 6473SOL    HW121251  10.740   7.132   0.849
 6473SOL    HW221252  10.821   7.206   0.745
 6474SOL     OW21253   7.089  12.667  13.124
 6474SOL    HW121254   7.095  12.579  13.161
 6474SOL    HW221255   6.998  12.693  13.139
 6475SOL     OW21256   3.208   5.790   5.458
 6475SOL    HW121257   3.157   5.779   5.378
 6475SOL    HW221258   3.142   5.793   5.528
 6476SOL     OW21259  10.123   0.088   1.836
 6476SOL    HW121260  10.164   0.151   1.777
 6476SOL    HW221261  10.195   0.057   1.891
 6477SOL     OW21262   0.764   4.941   7.486
 6477SOL    HW121263   0.680   4.957   7.530
 6477SOL    HW221264   0.762   4.847   7.466
 6478SOL     OW21265   1.546  12.601   7.501
 6478SOL    HW121266   1.475  12.664   7.489
 6478SOL    HW221267   1.537  12.572   7.592
 6479SOL     OW21268  14.344  13.599   5.485
 6479SOL    HW121269  14.420  13.557   5.526
 6479SOL    HW221270  14.279  13.529   5.480
 6480SOL     OW21271  14.737  13.844   0.812
 6480SOL    HW121272  14.759  13.783   0.741
 6480SOL    HW221273  14.782  13.925   0.788
 6481SOL     OW21274   3.819   1.671   6.643
 6481SOL    HW121275   3.907   1.684   6.678
 6481SOL    HW221276   3.775   1.616   6.708
 6482SOL     OW21277   5.396  14.037   8.652
 6482SOL    HW121278   5.455  14.052   8.725
 6482SOL    HW221279   5.425  13.955   8.613
 6483SOL     OW21280   5.319   3.458   1.684
 6483SOL    HW121281   5.307   3.377   1.635
 6483SOL    HW221282   5.240   3.466   1.736
 6484SOL     OW21283   4.443   5.632  12.087
 6484SOL    HW121284   4.432   5.631  12.183
 6484SOL    HW221285   4.538   5.637  12.074
 6485SOL     OW21286  14.669   5.808  12.605
 6485SOL    HW121287  14.670   5.726  12.556
 6485SOL    HW221288  14.576   5.827  12.618
 6486SOL     OW21289   9.851  13.222   7.131
 6486SOL    HW121290   9.871  13.253   7.220
 6486SOL    HW221291   9.755  13.227   7.126
 6487SOL     OW21292   9.230   1.264   7.498
 6487SOL    HW121293   9.283   1.298   7.571
 6487SOL    HW221294   9.253   1.171   7.492
 6488SOL     OW21295  11.139  14.685   0.333
 6488SOL    HW121296  11.096  14.622   0.391
 6488SOL    HW221297  11.132  14.647   0.246
 6489SOL     OW21298   9.580   7.214   5.270
 6489SOL    HW121299   9.589   7.309   5.256
 6489SOL    HW221300   9.589   7.177   5.182
 6490SOL     OW21301   7.759   6.290   4.700
 6490SOL    HW121302   7.785   6.214   4.648
 6490SOL    HW221303   7.775   6.365   4.644
 6491SOL     OW21304   5.886   0.711  14.508
 6491SOL    HW121305   5.925   0.643  14.454
 6491SOL    HW221306   5.849   0.665  14.583
 6492SOL     OW21307   5.969  13.353   3.740
 6492SOL    HW121308   5.885  13.307   3.735
 6492SOL    HW221309   6.032  13.284   3.760
 6493SOL     OW21310   6.613   6.356  14.187
 6493SOL    HW121311   6.574   6.368  14.101
 6493SOL    HW221312   6.568   6.280  14.224
 6494SOL     OW21313  12.935   3.254  13.953
 6494SOL    HW121314  12.996   3.312  13.907
 6494SOL    HW221315  12.933   3.287  14.043
 6495SOL     OW21316   7.293  11.804   3.714
 6495SOL    HW121317   7.214  11.750   3.700
 6495SOL    HW221318   7.365  11.748   3.686
 6496SOL     OW21319  13.902  14.017   2.450
 6496SOL    HW121320  13.866  13.939   2.408
 6496SOL    HW221321  13.863  14.090   2.402
 6497SOL     OW21322   2.846   9.721   6.203
 6497SOL    HW121323   2.852   9.810   6.168
 6497SOL    HW221324   2.837   9.666   6.125
 6498SOL     OW21325   7.248  12.120   2.212
 6498SOL    HW121326   7.296  12.140   2.131
 6498SOL    HW221327   7.312  12.131   2.282
 6499SOL     OW21328   7.857  14.101   6.918
 6499SOL    HW121329   7.853  14.120   6.824
 6499SOL    HW221330   7.807  14.021   6.929
 6500SOL     OW21331   9.644  14.087   3.573
 6500SOL    HW121332   9.632  14.085   3.478
 6500SOL    HW221333   9.574  14.031   3.607
 6501SOL     OW21334  13.421   5.036   2.625
 6501SOL    HW121335  13.330   5.046   2.596
 6501SOL    HW221336  13.455   4.963   2.573
 6502SOL     OW21337  10.978   9.962  13.555
 6502SOL    HW121338  10.997   9.906  13.480
 6502SOL    HW221339  10.914  10.025  13.521
 6503SOL     OW21340   3.346   1.065   6.123
 6503SOL    HW121341   3.255   1.051   6.096
 6503SOL    HW221342   3.389   0.981   6.106
 6504SOL     OW21343  10.431   2.056  10.502
 6504SOL    HW121344  10.370   2.043  10.575
 6504SOL    HW221345  10.405   1.992  10.436
 6505SOL     OW21346   0.373   5.909   7.723
 6505SOL    HW121347   0.376   5.865   7.637
 6505SOL    HW221348   0.344   5.841   7.783
 6506SOL     OW21349   3.430   5.815  13.454
 6506SOL    HW121350   3.359   5.762  13.490
 6506SOL    HW221351   3.387   5.871  13.389
 6507SOL     OW21352   5.127   3.850  10.321
 6507SOL    HW121353   5.164   3.930  10.357
 6507SOL    HW221354   5.055   3.828  10.380
 6508SOL     OW21355  10.670  11.441   2.428
 6508SOL    HW121356  10.606  11.509   2.450
 6508SOL    HW221357  10.663  11.378   2.499
 6509SOL     OW21358   2.833  10.241   4.904
 6509SOL    HW121359   2.777  10.288   4.966
 6509SOL    HW221360   2.815  10.281   4.819
 6510SOL     OW21361   6.410   4.120   1.814
 6510SOL    HW121362   6.445   4.194   1.865
 6510SOL    HW221363   6.400   4.050   1.878
 6511SOL     OW21364   7.102   2.246   5.641
 6511SOL    HW121365   7.072   2.304   5.570
 6511SOL    HW221366   7.161   2.185   5.598
 6512SOL     OW21367   9.395  10.867   2.043
 6512SOL    HW121368   9.458  10.933   2.013
 6512SOL    HW221369   9.355  10.834   1.962
 6513SOL     OW21370   3.394   5.464   3.178
 6513SOL    HW121371   3.384   5.385   3.232
 6513SOL    HW221372   3.333   5.451   3.106
 6514SOL     OW21373   9.178   2.504   8.718
 6514SOL    HW121374   9.169   2.443   8.645
 6514SOL    HW221375   9.113   2.474   8.782
 6515SOL     OW21376  10.723   8.256   2.953
 6515SOL    HW121377  10.749   8.165   2.970
 6515SOL    HW221378  10.707   8.258   2.859
 6516SOL     OW21379   9.383   4.729   5.295
 6516SOL    HW121380   9.362   4.818   5.325
 6516SOL    HW221381   9.300   4.682   5.297
 6517SOL     OW21382   9.232   7.522  11.141
 6517SOL    HW121383   9.211   7.450  11.201
 6517SOL    HW221384   9.230   7.600  11.196
 6518SOL     OW21385   8.785   8.520   5.545
 6518SOL    HW121386   8.831   8.479   5.618
 6518SOL    HW221387   8.697   8.536   5.579
 6519SOL     OW21388   5.874   8.652  11.876
 6519SOL    HW121389   5.860   8.652  11.971
 6519SOL    HW221390   5.968   8.642  11.865
 6520SOL     OW21391  11.853   6.753   6.904
 6520SOL    HW121392  11.877   6.839   6.939
 6520SOL    HW221393  11.839   6.700   6.982
 6521SOL     OW21394   1.262   8.732   7.301
 6521SOL    HW121395   1.276   8.645   7.337
 6521SOL    HW221396   1.329   8.740   7.233
 6522SOL     OW21397   5.488   0.540   9.339
 6522SOL    HW121398   5.540   0.481   9.284
 6522SOL    HW221399   5.416   0.485   9.370
 6523SOL     OW21400   3.880  13.992   5.398
 6523SOL    HW121401   3.877  14.073   5.348
 6523SOL    HW221402   3.793  13.953   5.386
 6524SOL     OW21403  13.926  12.693  12.156
 6524SOL    HW121404  13.981  12.620  12.187
 6524SOL    HW221405  13.867  12.652  12.092
 6525SOL     OW21406  13.427   8.372  11.405
 6525SOL    HW121407  13.373   8.347  11.330
 6525SOL    HW221408  13.457   8.461  11.384
 6526SOL     OW21409   4.253  14.177  14.638
 6526SOL    HW121410   4.198  14.236  14.690
 6526SOL    HW221411   4.311  14.235  14.588
 6527SOL     OW21412   5.388  10.805   3.837
 6527SOL    HW121413   5.397  10.897   3.811
 6527SOL    HW221414   5.421  10.756   3.763
 6528SOL     OW21415   8.036  13.980  10.441
 6528SOL    HW121416   8.063  14.014  10.526
 6528SOL    HW221417   7.986  13.901  10.460
 6529SOL     OW21418   2.154   1.211  12.656
 6529SOL    HW121419   2.097   1.212  12.733
 6529SOL    HW221420   2.198   1.126  12.659
 6530SOL     OW21421   7.431   5.732  13.634
 6530SOL    HW121422   7.447   5.667  13.703
 6530SOL    HW221423   7.338   5.721  13.612
 6531SOL     OW21424   8.478   6.644   6.617
 6531SOL    HW121425   8.514   6.575   6.561
 6531SOL    HW221426   8.533   6.720   6.601
 6532SOL     OW21427  10.014   9.870  14.062
 6532SOL    HW121428   9.925   9.904  14.060
 6532SOL    HW221429  10.067   9.943  14.093
 6533SOL     OW21430   7.879   1.984  14.288
 6533SOL    HW121431   7.865   1.915  14.352
 6533SOL    HW221432   7.865   1.941  14.203
 6534SOL     OW21433  10.756  13.110   6.936
 6534SOL    HW121434  10.754  13.203   6.956
 6534SOL    HW221435  10.849  13.089   6.923
 6535SOL     OW21436   9.000   3.266   5.102
 6535SOL    HW121437   8.984   3.282   5.009
 6535SOL    HW221438   8.948   3.333   5.147
 6536SOL     OW21439   3.118   6.644   1.973
 6536SOL    HW121440   3.192   6.600   2.015
 6536SOL    HW221441   3.052   6.653   2.042
 6537SOL     OW21442   3.756   3.269  11.453
 6537SOL    HW121443   3.747   3.207  11.526
 6537SOL    HW221444   3.666   3.284  11.424
 6538SOL     OW21445   4.362   3.123   7.808
 6538SOL    HW121446   4.351   3.208   7.764
 6538SOL    HW221447   4.310   3.131   7.887
 6539SOL     OW21448  13.761  12.744   3.591
 6539SOL    HW121449  13.838  12.799   3.577
 6539SOL    HW221450  13.691  12.806   3.610
 6540SOL     OW21451   5.988  12.804  12.257
 6540SOL    HW121452   6.036  12.723  12.276
 6540SOL    HW221453   5.909  12.798  12.311
 6541SOL     OW21454  11.968   8.302   6.073
 6541SOL    HW121455  11.941   8.389   6.106
 6541SOL    HW221456  11.886   8.252   6.071
 6542SOL     OW21457  14.040   8.525   6.042
 6542SOL    HW121458  13.948   8.528   6.018
 6542SOL    HW221459  14.087   8.529   5.959
 6543SOL     OW21460  13.904  14.636   5.493
 6543SOL    HW121461  13.953  14.666   5.570
 6543SOL    HW221462  13.948  14.555   5.468
 6544SOL     OW21463   4.629  11.173  10.909
 6544SOL    HW121464   4.622  11.107  10.839
 6544SOL    HW221465   4.589  11.251  10.873
 6545SOL     OW21466  11.865   8.321   0.749
 6545SOL    HW121467  11.852   8.415   0.742
 6545SOL    HW221468  11.819   8.296   0.830
 6546SOL     OW21469  13.782   3.634  10.743
 6546SOL    HW121470  13.794   3.540  10.729
 6546SOL    HW221471  13.866   3.673  10.715
 6547SOL     OW21472   0.428  13.730   4.687
 6547SOL    HW121473   0.416  13.800   4.752
 6547SOL    HW221474   0.368  13.753   4.616
 6548SOL     OW21475   9.746   1.680  13.701
 6548SOL    HW121476   9.680   1.696  13.769
 6548SOL    HW221477   9.727   1.746  13.634
 6549SOL     OW21478   6.739   5.219   4.731
 6549SOL    HW121479   6.782   5.258   4.807
 6549SOL    HW221480   6.665   5.170   4.768
 6550SOL     OW21481  12.602   6.588   7.337
 6550SOL    HW121482  12.695   6.584   7.359
 6550SOL    HW221483  12.579   6.681   7.348
 6551SOL     OW21484  14.822   9.874  10.148
 6551SOL    HW121485  14.808   9.780  10.151
 6551SOL    HW221486  14.809   9.903  10.238
 6552SOL     OW21487   5.758   3.727   4.733
 6552SOL    HW121488   5.725   3.817   4.737
 6552SOL    HW221489   5.847   3.736   4.698
 6553SOL     OW21490   5.728   1.847   3.911
 6553SOL    HW121491   5.649   1.895   3.885
 6553SOL    HW221492   5.798   1.912   3.905
 6554SOL     OW21493   5.915   1.395  12.031
 6554SOL    HW121494   6.005   1.368  12.013
 6554SOL    HW221495   5.899   1.468  11.972
 6555SOL     OW21496   8.554   5.243   5.858
 6555SOL    HW121497   8.516   5.185   5.792
 6555SOL    HW221498   8.586   5.318   5.808
 6556SOL     OW21499   8.339  10.855   8.343
 6556SOL    HW121500   8.252  10.839   8.378
 6556SOL    HW221501   8.366  10.771   8.307
 6557SOL     OW21502   8.919  12.909  11.169
 6557SOL    HW121503   8.865  12.882  11.244
 6557SOL    HW221504   9.008  12.886  11.195
 6558SOL     OW21505  11.798   6.302   8.396
 6558SOL    HW121506  11.760   6.362   8.333
 6558SOL    HW221507  11.844   6.358   8.458
 6559SOL     OW21508  12.091   8.775  14.608
 6559SOL    HW121509  12.173   8.748  14.569
 6559SOL    HW221510  12.028   8.707  14.584
 6560SOL     OW21511   6.072   3.711   3.371
 6560SOL    HW121512   6.061   3.629   3.323
 6560SOL    HW221513   6.166   3.715   3.388
 6561SOL     OW21514   1.064   1.555   9.385
 6561SOL    HW121515   1.147   1.600   9.368
 6561SOL    HW221516   1.076   1.511   9.469
 6562SOL     OW21517   6.033   0.230   0.550
 6562SOL    HW121518   5.987   0.298   0.599
 6562SOL    HW221519   6.121   0.265   0.536
 6563SOL     OW21520  10.704   6.001   3.702
 6563SOL    HW121521  10.666   6.067   3.761
 6563SOL    HW221522  10.720   6.047   3.620
 6564SOL     OW21523   4.896   7.548   4.796
 6564SOL    HW121524   4.952   7.557   4.719
 6564SOL    HW221525   4.823   7.493   4.766
 6565SOL     OW21526   4.200   2.914  11.138
 6565SOL    HW121527   4.245   2.924  11.054
 6565SOL    HW221528   4.213   2.823  11.163
 6566SOL     OW21529   0.798   4.101   0.930
 6566SOL    HW121530   0.744   4.039   0.980
 6566SOL    HW221531   0.878   4.053   0.912
 6567SOL     OW21532   3.589   4.894  10.305
 6567SOL    HW121533   3.598   4.799  10.306
 6567SOL    HW221534   3.592   4.918  10.212
 6568SOL     OW21535  13.458  14.102  12.647
 6568SOL    HW121536  13.467  14.016  12.606
 6568SOL    HW221537  13.388  14.090  12.712
 6569SOL     OW21538  10.497   3.720  12.952
 6569SOL    HW121539  10.591   3.714  12.970
 6569SOL    HW221540  10.457   3.660  13.014
 6570SOL     OW21541  14.858  14.257  12.390
 6570SOL    HW121542  14.779  14.272  12.441
 6570SOL    HW221543   0.048  14.285  12.447
 6571SOL     OW21544   4.500   7.982   1.744
 6571SOL    HW121545   4.549   7.935   1.811
 6571SOL    HW221546   4.409   7.955   1.758
 6572SOL     OW21547  12.751   1.855  10.498
 6572SOL    HW121548  12.784   1.778  10.451
 6572SOL    HW221549  12.668   1.826  10.535
 6573SOL     OW21550   1.401  11.243   8.771
 6573SOL    HW121551   1.414  11.158   8.814
 6573SOL    HW221552   1.433  11.230   8.682
 6574SOL     OW21553  14.277   6.174  13.603
 6574SOL    HW121554  14.256   6.266  13.621
 6574SOL    HW221555  14.346   6.152  13.665
 6575SOL     OW21556   1.966  11.976   6.729
 6575SOL    HW121557   2.038  12.018   6.682
 6575SOL    HW221558   2.003  11.895   6.762
 6576SOL     OW21559   8.246   3.673  13.078
 6576SOL    HW121560   8.254   3.768  13.083
 6576SOL    HW221561   8.292   3.649  12.998
 6577SOL     OW21562   5.219   4.375   1.440
 6577SOL    HW121563   5.220   4.462   1.479
 6577SOL    HW221564   5.252   4.387   1.351
 6578SOL     OW21565   0.757  11.077   8.493
 6578SOL    HW121566   0.795  11.159   8.462
 6578SOL    HW221567   0.700  11.103   8.566
 6579SOL     OW21568  14.415   7.830  12.441
 6579SOL    HW121569  14.433   7.899  12.378
 6579SOL    HW221570  14.403   7.751  12.388
 6580SOL     OW21571  13.848   6.039   9.431
 6580SOL    HW121572  13.816   5.989   9.506
 6580SOL    HW221573  13.779   6.032   9.365
 6581SOL     OW21574   8.278   8.502  12.789
 6581SOL    HW121575   8.299   8.416  12.754
 6581SOL    HW221576   8.288   8.561  12.714
 6582SOL     OW21577  10.706  10.348  10.621
 6582SOL    HW121578  10.626  10.358  10.672
 6582SOL    HW221579  10.686  10.279  10.558
 6583SOL     OW21580  12.317  14.482  11.595
 6583SOL    HW121581  12.306  14.444  11.682
 6583SOL    HW221582  12.268  14.564  11.598
 6584SOL     OW21583  13.781   3.962   0.321
 6584SOL    HW121584  13.720   3.972   0.395
 6584SOL    HW221585  13.735   3.905   0.260
 6585SOL     OW21586   6.408  13.582  11.456
 6585SOL    HW121587   6.395  13.662  11.405
 6585SOL    HW221588   6.319  13.549  11.471
 6586SOL     OW21589   8.601   0.628   4.525
 6586SOL    HW121590   8.658   0.659   4.454
 6586SOL    HW221591   8.518   0.610   4.482
 6587SOL     OW21592  12.630   7.622  12.042
 6587SOL    HW121593  12.676   7.666  12.113
 6587SOL    HW221594  12.571   7.560  12.085
 6588SOL     OW21595  10.845  14.537  13.493
 6588SOL    HW121596  10.771  14.554  13.552
 6588SOL    HW221597  10.917  14.512  13.550
 6589SOL     OW21598  13.436   7.326  12.661
 6589SOL    HW121599  13.371   7.387  12.627
 6589SOL    HW221600  13.497   7.313  12.588
 6590SOL     OW21601  14.280   4.003  11.110
 6590SOL    HW121602  14.241   4.059  11.177
 6590SOL    HW221603  14.363   4.047  11.089
 6591SOL     OW21604   4.508   2.215  11.858
 6591SOL    HW121605   4.583   2.219  11.917
 6591SOL    HW221606   4.515   2.294  11.805
 6592SOL     OW21607   5.124   2.635  10.629
 6592SOL    HW121608   5.163   2.663  10.711
 6592SOL    HW221609   5.176   2.558  10.603
 6593SOL     OW21610   2.953  14.337   0.652
 6593SOL    HW121611   3.032  14.337   0.598
 6593SOL    HW221612   2.924  14.428   0.651
 6594SOL     OW21613   4.345   2.186   6.849
 6594SOL    HW121614   4.254   2.209   6.864
 6594SOL    HW221615   4.392   2.269   6.855
 6595SOL     OW21616  13.966   9.424   5.425
 6595SOL    HW121617  13.946   9.496   5.486
 6595SOL    HW221618  13.896   9.360   5.440
 6596SOL     OW21619   5.465   7.669   9.819
 6596SOL    HW121620   5.532   7.638   9.879
 6596SOL    HW221621   5.382   7.645   9.860
 6597SOL     OW21622  12.678  13.863   0.806
 6597SOL    HW121623  12.631  13.893   0.883
 6597SOL    HW221624  12.671  13.768   0.809
 6598SOL     OW21625   6.430   2.386  12.499
 6598SOL    HW121626   6.499   2.363  12.561
 6598SOL    HW221627   6.401   2.473  12.527
 6599SOL     OW21628   8.520   6.201   8.917
 6599SOL    HW121629   8.566   6.285   8.923
 6599SOL    HW221630   8.430   6.225   8.895
 6600SOL     OW21631   9.762  12.713  14.741
 6600SOL    HW121632   9.816  12.787  14.769
 6600SOL    HW221633   9.824  12.643  14.724
 6601SOL     OW21634   3.250   0.853  12.918
 6601SOL    HW121635   3.236   0.873  13.010
 6601SOL    HW221636   3.326   0.904  12.893
 6602SOL     OW21637  10.060   5.778   5.006
 6602SOL    HW121638  10.008   5.701   5.030
 6602SOL    HW221639  10.041   5.792   4.914
 6603SOL     OW21640   8.892   5.546   4.911
 6603SOL    HW121641   8.964   5.600   4.943
 6603SOL    HW221642   8.933   5.483   4.853
 6604SOL     OW21643   7.023   5.753   5.671
 6604SOL    HW121644   6.971   5.834   5.677
 6604SOL    HW221645   6.958   5.684   5.659
 6605SOL     OW21646  11.414  14.571  11.680
 6605SOL    HW121647  11.419  14.514  11.757
 6605SOL    HW221648  11.330  14.549  11.639
 6606SOL     OW21649   1.301  11.637  11.460
 6606SOL    HW121650   1.248  11.619  11.383
 6606SOL    HW221651   1.257  11.591  11.531
 6607SOL     OW21652   7.495   0.355  14.587
 6607SOL    HW121653   7.543   0.342  14.505
 6607SOL    HW221654   7.415   0.304  14.577
 6608SOL     OW21655   7.502  11.028   3.143
 6608SOL    HW121656   7.481  11.117   3.173
 6608SOL    HW221657   7.422  10.978   3.160
 6609SOL     OW21658   0.113   8.910   7.507
 6609SOL    HW121659   0.055   8.867   7.444
 6609SOL    HW221660   0.183   8.847   7.522
 6610SOL     OW21661   1.267   5.279   6.852
 6610SOL    HW121662   1.221   5.349   6.807
 6610SOL    HW221663   1.224   5.199   6.823
 6611SOL     OW21664   8.497  10.612   5.506
 6611SOL    HW121665   8.454  10.616   5.591
 6611SOL    HW221666   8.532  10.701   5.493
 6612SOL     OW21667   3.217   8.899   4.057
 6612SOL    HW121668   3.128   8.925   4.032
 6612SOL    HW221669   3.254   8.860   3.978
 6613SOL     OW21670   7.541   3.777  11.143
 6613SOL    HW121671   7.636   3.789  11.147
 6613SOL    HW221672   7.521   3.716  11.214
 6614SOL     OW21673  14.653   3.761  14.840
 6614SOL    HW121674  14.587   3.766  14.771
 6614SOL    HW221675  14.660   3.668  14.860
 6615SOL     OW21676   7.599  13.402   6.533
 6615SOL    HW121677   7.657  13.399   6.458
 6615SOL    HW221678   7.613  13.320   6.579
 6616SOL     OW21679  13.887   0.276  11.091
 6616SOL    HW121680  13.833   0.302  11.166
 6616SOL    HW221681  13.887   0.180  11.093
 6617SOL     OW21682  11.643   1.628   4.618
 6617SOL    HW121683  11.669   1.719   4.632
 6617SOL    HW221684  11.718   1.588   4.573
 6618SOL     OW21685   0.845   8.984  12.157
 6618SOL    HW121686   0.892   9.001  12.238
 6618SOL    HW221687   0.778   8.920  12.180
 6619SOL     OW21688   2.036   5.218  12.582
 6619SOL    HW121689   1.957   5.258  12.547
 6619SOL    HW221690   2.096   5.211  12.508
 6620SOL     OW21691  13.114   9.693  10.017
 6620SOL    HW121692  13.083   9.735  10.097
 6620SOL    HW221693  13.035   9.652   9.980
 6621SOL     OW21694   5.287  11.068   9.883
 6621SOL    HW121695   5.250  11.141   9.932
 6621SOL    HW221696   5.223  10.997   9.892
 6622SOL     OW21697   8.625   6.552   2.050
 6622SOL    HW121698   8.591   6.638   2.025
 6622SOL    HW221699   8.661   6.516   1.969
 6623SOL     OW21700  13.478   6.207   3.940
 6623SOL    HW121701  13.416   6.192   3.869
 6623SOL    HW221702  13.444   6.283   3.987
 6624SOL     OW21703   0.817  13.605   5.385
 6624SOL    HW121704   0.732  13.565   5.402
 6624SOL    HW221705   0.814  13.629   5.292
 6625SOL     OW21706   0.094  10.981   4.808
 6625SOL    HW121707   0.068  10.975   4.900
 6625SOL    HW221708   0.186  10.954   4.808
 6626SOL     OW21709   0.312   8.409   4.212
 6626SOL    HW121710   0.321   8.344   4.283
 6626SOL    HW221711   0.400   8.414   4.174
 6627SOL     OW21712   5.508   0.794   3.148
 6627SOL    HW121713   5.432   0.783   3.205
 6627SOL    HW221714   5.525   0.707   3.114
 6628SOL     OW21715   5.974   3.320   6.177
 6628SOL    HW121716   5.899   3.336   6.120
 6628SOL    HW221717   6.032   3.395   6.162
 6629SOL     OW21718  11.526   8.588   5.037
 6629SOL    HW121719  11.531   8.636   5.120
 6629SOL    HW221720  11.535   8.656   4.970
 6630SOL     OW21721   1.484   9.244   1.659
 6630SOL    HW121722   1.548   9.182   1.624
 6630SOL    HW221723   1.538   9.315   1.696
 6631SOL     OW21724   4.317   8.935   5.287
 6631SOL    HW121725   4.272   8.962   5.367
 6631SOL    HW221726   4.277   8.852   5.263
 6632SOL     OW21727  14.832  10.798   3.542
 6632SOL    HW121728   0.031  10.809   3.592
 6632SOL    HW221729  14.774  10.750   3.601
 6633SOL     OW21730  12.907   0.156   6.511
 6633SOL    HW121731  12.856   0.208   6.572
 6633SOL    HW221732  12.842   0.102   6.465
 6634SOL     OW21733   2.241   2.284   6.617
 6634SOL    HW121734   2.245   2.190   6.630
 6634SOL    HW221735   2.325   2.307   6.577
 6635SOL     OW21736   9.360  11.717   3.954
 6635SOL    HW121737   9.411  11.681   4.027
 6635SOL    HW221738   9.269  11.705   3.981
 6636SOL     OW21739   1.941  11.175   9.092
 6636SOL    HW121740   1.876  11.246   9.083
 6636SOL    HW221741   1.945  11.159   9.187
 6637SOL     OW21742   0.501  11.867  11.936
 6637SOL    HW121743   0.473  11.779  11.962
 6637SOL    HW221744   0.596  11.863  11.932
 6638SOL     OW21745   7.370  11.192   7.105
 6638SOL    HW121746   7.414  11.131   7.045
 6638SOL    HW221747   7.359  11.272   7.054
 6639SOL     OW21748   4.422   9.088   4.844
 6639SOL    HW121749   4.464   9.152   4.786
 6639SOL    HW221750   4.482   9.081   4.918
 6640SOL     OW21751  11.878   7.729   1.249
 6640SOL    HW121752  11.905   7.677   1.325
 6640SOL    HW221753  11.937   7.804   1.249
 6641SOL     OW21754   1.395   1.217  10.245
 6641SOL    HW121755   1.328   1.273  10.284
 6641SOL    HW221756   1.357   1.129  10.247
 6642SOL     OW21757  14.056   9.535  14.550
 6642SOL    HW121758  14.010   9.614  14.522
 6642SOL    HW221759  14.024   9.466  14.490
 6643SOL     OW21760  13.555   9.424   9.784
 6643SOL    HW121761  13.645   9.457   9.773
 6643SOL    HW221762  13.565   9.341   9.830
 6644SOL     OW21763  11.389   2.924  14.209
 6644SOL    HW121764  11.366   3.013  14.236
 6644SOL    HW221765  11.485   2.924  14.207
 6645SOL     OW21766  11.380   2.003  12.521
 6645SOL    HW121767  11.323   2.041  12.454
 6645SOL    HW221768  11.346   1.914  12.533
 6646SOL     OW21769   8.511   8.963   1.642
 6646SOL    HW121770   8.530   9.004   1.558
 6646SOL    HW221771   8.481   8.875   1.620
 6647SOL     OW21772   3.858   1.549   4.371
 6647SOL    HW121773   3.786   1.530   4.311
 6647SOL    HW221774   3.937   1.527   4.321
 6648SOL     OW21775   5.985   5.365   6.549
 6648SOL    HW121776   5.974   5.270   6.546
 6648SOL    HW221777   6.079   5.378   6.553
 6649SOL     OW21778   6.686  12.348   3.358
 6649SOL    HW121779   6.648  12.383   3.277
 6649SOL    HW221780   6.708  12.257   3.337
 6650SOL     OW21781   1.919   1.671   5.422
 6650SOL    HW121782   1.981   1.743   5.408
 6650SOL    HW221783   1.941   1.608   5.353
 6651SOL     OW21784   3.902   8.343  11.232
 6651SOL    HW121785   3.885   8.289  11.309
 6651SOL    HW221786   3.974   8.400  11.257
 6652SOL     OW21787   6.144   9.578   5.674
 6652SOL    HW121788   6.094   9.622   5.742
 6652SOL    HW221789   6.202   9.647   5.639
 6653SOL     OW21790  12.651   0.256   3.248
 6653SOL    HW121791  12.635   0.183   3.309
 6653SOL    HW221792  12.704   0.217   3.178
 6654SOL     OW21793   4.912  11.041   3.385
 6654SOL    HW121794   4.822  11.028   3.415
 6654SOL    HW221795   4.945  10.952   3.371
 6655SOL     OW21796   8.820   6.671   8.156
 6655SOL    HW121797   8.726   6.651   8.152
 6655SOL    HW221798   8.832   6.710   8.242
 6656SOL     OW21799   0.307   2.096   7.779
 6656SOL    HW121800   0.331   2.021   7.725
 6656SOL    HW221801   0.301   2.169   7.716
 6657SOL     OW21802   1.240   2.366   5.915
 6657SOL    HW121803   1.295   2.297   5.952
 6657SOL    HW221804   1.231   2.343   5.823
 6658SOL     OW21805   3.175  10.586   3.330
 6658SOL    HW121806   3.214  10.661   3.283
 6658SOL    HW221807   3.125  10.626   3.401
 6659SOL     OW21808   7.132  13.827   0.017
 6659SOL    HW121809   7.131  13.919  14.873
 6659SOL    HW221810   7.202  13.821   0.083
 6660SOL     OW21811  13.062   5.908   4.961
 6660SOL    HW121812  13.156   5.923   4.951
 6660SOL    HW221813  13.024   5.939   4.879
 6661SOL     OW21814   2.068   2.243   1.122
 6661SOL    HW121815   2.046   2.158   1.085
 6661SOL    HW221816   2.095   2.224   1.212
 6662SOL     OW21817   7.349   3.641   0.108
 6662SOL    HW121818   7.385   3.685   0.186
 6662SOL    HW221819   7.392   3.556   0.107
 6663SOL     OW21820   6.251  14.230   8.606
 6663SOL    HW121821   6.179  14.206   8.547
 6663SOL    HW221822   6.321  14.168   8.584
 6664SOL     OW21823  11.103  14.320   4.991
 6664SOL    HW121824  11.184  14.314   4.940
 6664SOL    HW221825  11.129  14.365   5.071
 6665SOL     OW21826   4.089   2.504   8.604
 6665SOL    HW121827   4.177   2.539   8.620
 6665SOL    HW221828   4.078   2.510   8.510
 6666SOL     OW21829   7.669  13.913   6.603
 6666SOL    HW121830   7.623  13.993   6.630
 6666SOL    HW221831   7.756  13.942   6.578
 6667SOL     OW21832  10.405   0.013   1.870
 6667SOL    HW121833  10.435   0.015   1.961
 6667SOL    HW221834  10.464   0.073   1.824
 6668SOL     OW21835   0.752   5.692   2.264
 6668SOL    HW121836   0.715   5.627   2.324
 6668SOL    HW221837   0.726   5.662   2.177
 6669SOL     OW21838   0.174   6.011  11.945
 6669SOL    HW121839   0.195   5.975  11.859
 6669SOL    HW221840   0.183   5.938  12.005
 6670SOL     OW21841   4.624   9.648   5.330
 6670SOL    HW121842   4.648   9.556   5.318
 6670SOL    HW221843   4.621   9.684   5.241
 6671SOL     OW21844   0.543   4.760  12.541
 6671SOL    HW121845   0.630   4.793  12.561
 6671SOL    HW221846   0.494   4.770  12.622
 6672SOL     OW21847   2.761   2.353   4.583
 6672SOL    HW121848   2.683   2.408   4.585
 6672SOL    HW221849   2.832   2.412   4.557
 6673SOL     OW21850   1.641   0.938   5.642
 6673SOL    HW121851   1.563   0.884   5.657
 6673SOL    HW221852   1.607   1.015   5.597
 6674SOL     OW21853  13.467  13.275   0.566
 6674SOL    HW121854  13.492  13.188   0.598
 6674SOL    HW221855  13.412  13.256   0.489
 6675SOL     OW21856  10.729   6.577   2.653
 6675SOL    HW121857  10.672   6.561   2.728
 6675SOL    HW221858  10.674   6.562   2.576
 6676SOL     OW21859   3.360  11.074   9.576
 6676SOL    HW121860   3.296  11.117   9.633
 6676SOL    HW221861   3.306  11.031   9.509
 6677SOL     OW21862  13.917   1.744   2.245
 6677SOL    HW121863  13.928   1.722   2.337
 6677SOL    HW221864  13.838   1.798   2.242
 6678SOL     OW21865  12.337  12.862  11.298
 6678SOL    HW121866  12.296  12.902  11.375
 6678SOL    HW221867  12.269  12.808  11.260
 6679SOL     OW21868   8.707   3.253  12.163
 6679SOL    HW121869   8.635   3.224  12.219
 6679SOL    HW221870   8.762   3.307  12.220
 6680SOL     OW21871   9.779   7.563   3.103
 6680SOL    HW121872   9.855   7.506   3.088
 6680SOL    HW221873   9.714   7.507   3.145
 6681SOL     OW21874   5.048   9.496  13.359
 6681SOL    HW121875   5.053   9.414  13.310
 6681SOL    HW221876   5.040   9.564  13.292
 6682SOL     OW21877  14.673  12.856   3.868
 6682SOL    HW121878  14.674  12.805   3.949
 6682SOL    HW221879  14.702  12.943   3.894
 6683SOL     OW21880   5.195   1.489  10.810
 6683SOL    HW121881   5.174   1.582  10.816
 6683SOL    HW221882   5.268   1.476  10.870
 6684SOL     OW21883   3.018   2.454   9.071
 6684SOL    HW121884   3.037   2.381   9.130
 6684SOL    HW221885   2.925   2.443   9.048
 6685SOL     OW21886  12.898  13.320   0.022
 6685SOL    HW121887  12.887  13.245   0.080
 6685SOL    HW221888  12.842  13.388   0.058
 6686SOL     OW21889   3.060  11.641   6.193
 6686SOL    HW121890   3.044  11.734   6.176
 6686SOL    HW221891   3.117  11.640   6.271
 6687SOL     OW21892  13.413   3.034   5.597
 6687SOL    HW121893  13.475   2.966   5.572
 6687SOL    HW221894  13.452   3.075   5.675
 6688SOL     OW21895   2.838   4.441   5.640
 6688SOL    HW121896   2.797   4.390   5.710
 6688SOL    HW221897   2.799   4.528   5.648
 6689SOL     OW21898   9.829  12.443  11.127
 6689SOL    HW121899   9.802  12.400  11.046
 6689SOL    HW221900   9.746  12.466  11.171
 6690SOL     OW21901   6.953   1.835   4.077
 6690SOL    HW121902   7.029   1.788   4.111
 6690SOL    HW221903   6.938   1.906   4.139
 6691SOL     OW21904   0.261   2.061  12.589
 6691SOL    HW121905   0.275   2.124  12.660
 6691SOL    HW221906   0.210   1.990  12.629
 6692SOL     OW21907   1.077   1.752   0.589
 6692SOL    HW121908   1.131   1.815   0.637
 6692SOL    HW221909   0.991   1.758   0.631
 6693SOL     OW21910   9.610   2.909   2.189
 6693SOL    HW121911   9.529   2.874   2.227
 6693SOL    HW221912   9.662   2.831   2.168
 6694SOL     OW21913  13.606  13.199  14.401
 6694SOL    HW121914  13.554  13.211  14.480
 6694SOL    HW221915  13.677  13.263  14.409
 6695SOL     OW21916   0.838   0.964   3.283
 6695SOL    HW121917   0.873   0.875   3.290
 6695SOL    HW221918   0.817   0.988   3.373
 6696SOL     OW21919  14.120   5.973  11.413
 6696SOL    HW121920  14.178   5.898  11.423
 6696SOL    HW221921  14.164   6.030  11.350
 6697SOL     OW21922  11.121  13.572   2.216
 6697SOL    HW121923  11.088  13.661   2.207
 6697SOL    HW221924  11.150  13.548   2.127
 6698SOL     OW21925  11.211  13.865   3.905
 6698SOL    HW121926  11.255  13.893   3.824
 6698SOL    HW221927  11.215  13.769   3.902
 6699SOL     OW21928  13.276   1.307   3.278
 6699SOL    HW121929  13.259   1.398   3.251
 6699SOL    HW221930  13.190   1.267   3.282
 6700SOL     OW21931   0.384   9.653   6.176
 6700SOL    HW121932   0.360   9.654   6.268
 6700SOL    HW221933   0.312   9.698   6.131
 6701SOL     OW21934   7.976   8.783  12.529
 6701SOL    HW121935   8.022   8.792  12.446
 6701SOL    HW221936   8.021   8.844  12.588
 6702SOL     OW21937  12.207   7.602   4.096
 6702SOL    HW121938  12.118   7.637   4.095
 6702SOL    HW221939  12.263   7.679   4.093
 6703SOL     OW21940   1.162   8.505   1.697
 6703SOL    HW121941   1.255   8.495   1.719
 6703SOL    HW221942   1.136   8.587   1.737
 6704SOL     OW21943  12.881   4.394  11.045
 6704SOL    HW121944  12.867   4.304  11.074
 6704SOL    HW221945  12.888   4.445  11.126
 6705SOL     OW21946  12.588   3.429   8.519
 6705SOL    HW121947  12.645   3.422   8.442
 6705SOL    HW221948  12.573   3.523   8.529
 6706SOL     OW21949   8.213   4.925  13.329
 6706SOL    HW121950   8.175   4.979  13.399
 6706SOL    HW221951   8.158   4.945  13.252
 6707SOL     OW21952   4.885   8.981  11.931
 6707SOL    HW121953   4.951   8.937  11.877
 6707SOL    HW221954   4.935   9.030  11.996
 6708SOL     OW21955   9.384  12.795  12.910
 6708SOL    HW121956   9.379  12.752  12.824
 6708SOL    HW221957   9.305  12.849  12.915
 6709SOL     OW21958   6.889   5.118   2.808
 6709SOL    HW121959   6.889   5.213   2.813
 6709SOL    HW221960   6.969   5.091   2.854
 6710SOL     OW21961   4.255   0.989   6.930
 6710SOL    HW121962   4.260   0.900   6.897
 6710SOL    HW221963   4.225   0.979   7.021
 6711SOL     OW21964   1.074   3.086  10.519
 6711SOL    HW121965   1.116   3.170  10.538
 6711SOL    HW221966   1.070   3.083  10.424
 6712SOL     OW21967   7.720   3.215  10.308
 6712SOL    HW121968   7.707   3.124  10.334
 6712SOL    HW221969   7.815   3.228  10.309
 6713SOL     OW21970  12.985   7.049   8.401
 6713SOL    HW121971  12.935   7.047   8.320
 6713SOL    HW221972  13.067   7.093   8.378
 6714SOL     OW21973   9.242   7.907   1.926
 6714SOL    HW121974   9.242   7.936   1.834
 6714SOL    HW221975   9.296   7.972   1.971
 6715SOL     OW21976   6.936   6.657   0.795
 6715SOL    HW121977   7.014   6.613   0.762
 6715SOL    HW221978   6.911   6.609   0.873
 6716SOL     OW21979   5.329  12.056   0.221
 6716SOL    HW121980   5.272  12.040   0.296
 6716SOL    HW221981   5.408  12.095   0.258
 6717SOL     OW21982  13.918   7.903   7.606
 6717SOL    HW121983  13.827   7.900   7.577
 6717SOL    HW221984  13.960   7.831   7.560
 6718SOL     OW21985  14.549   0.640   5.574
 6718SOL    HW121986  14.594   0.565   5.614
 6718SOL    HW221987  14.491   0.601   5.509
 6719SOL     OW21988   4.583  11.830   9.311
 6719SOL    HW121989   4.663  11.845   9.362
 6719SOL    HW221990   4.531  11.909   9.324
 6720SOL     OW21991   5.308  12.201   8.168
 6720SOL    HW121992   5.375  12.244   8.114
 6720SOL    HW221993   5.246  12.164   8.105
 6721SOL     OW21994   5.499   3.099  14.459
 6721SOL    HW121995   5.546   3.051  14.527
 6721SOL    HW221996   5.413   3.058  14.456
 6722SOL     OW21997   8.083   8.559   0.656
 6722SOL    HW121998   8.138   8.483   0.636
 6722SOL    HW221999   8.044   8.538   0.741
 6723SOL     OW22000   6.037   6.115   4.217
 6723SOL    HW122001   6.024   6.104   4.311
 6723SOL    HW222002   6.001   6.036   4.178
 6724SOL     OW22003   9.468   9.826   2.639
 6724SOL    HW122004   9.483   9.737   2.672
 6724SOL    HW222005   9.414   9.814   2.561
 6725SOL     OW22006   1.923  14.605  10.713
 6725SOL    HW122007   1.848  14.559  10.752
 6725SOL    HW222008   1.895  14.696  10.706
 6726SOL     OW22009   8.553  13.097   6.997
 6726SOL    HW122010   8.460  13.117   7.008
 6726SOL    HW222011   8.590  13.105   7.085
 6727SOL     OW22012   4.347  12.327   8.845
 6727SOL    HW122013   4.335  12.292   8.933
 6727SOL    HW222014   4.418  12.276   8.807
 6728SOL     OW22015   6.806   9.451   8.360
 6728SOL    HW122016   6.871   9.517   8.382
 6728SOL    HW222017   6.722   9.496   8.369
 6729SOL     OW22018   0.914   0.645   3.233
 6729SOL    HW122019   0.835   0.629   3.286
 6729SOL    HW222020   0.962   0.562   3.236
 6730SOL     OW22021   4.867   0.298   0.376
 6730SOL    HW122022   4.950   0.251   0.385
 6730SOL    HW222023   4.883   0.364   0.309
 6731SOL     OW22024   5.106  14.507  12.035
 6731SOL    HW122025   5.046  14.435  12.055
 6731SOL    HW222026   5.117  14.554  12.118
 6732SOL     OW22027  12.813   1.094  10.806
 6732SOL    HW122028  12.728   1.083  10.847
 6732SOL    HW222029  12.870   1.125  10.876
 6733SOL     OW22030  13.990   9.350   0.407
 6733SOL    HW122031  14.077   9.314   0.392
 6733SOL    HW222032  13.970   9.398   0.327
 6734SOL     OW22033   2.109   0.370   3.113
 6734SOL    HW122034   2.091   0.353   3.205
 6734SOL    HW222035   2.202   0.353   3.103
 6735SOL     OW22036  13.008  13.657  14.493
 6735SOL    HW122037  12.956  13.659  14.412
 6735SOL    HW222038  13.000  13.568  14.525
 6736SOL     OW22039   4.582   7.259   2.842
 6736SOL    HW122040   4.523   7.288   2.912
 6736SOL    HW222041   4.529   7.197   2.790
 6737SOL     OW22042   3.896  13.984  13.383
 6737SOL    HW122043   3.841  13.966  13.308
 6737SOL    HW222044   3.856  13.935  13.455
 6738SOL     OW22045   8.202  11.040  14.824
 6738SOL    HW122046   8.254  11.062  14.746
 6738SOL    HW222047   8.202  11.121  14.876
 6739SOL     OW22048   5.636  12.592  13.917
 6739SOL    HW122049   5.549  12.631  13.906
 6739SOL    HW222050   5.695  12.666  13.928
 6740SOL     OW22051   6.847  13.254   5.984
 6740SOL    HW122052   6.892  13.267   6.067
 6740SOL    HW222053   6.762  13.217   6.008
 6741SOL     OW22054   8.433  12.053  10.024
 6741SOL    HW122055   8.341  12.062  10.050
 6741SOL    HW222056   8.441  11.961   9.997
 6742SOL     OW22057   5.364   9.183  14.434
 6742SOL    HW122058   5.414   9.112  14.394
 6742SOL    HW222059   5.350   9.246  14.363
 6743SOL     OW22060   9.974   9.277   4.536
 6743SOL    HW122061  10.045   9.333   4.568
 6743SOL    HW222062   9.928   9.330   4.471
 6744SOL     OW22063   6.027   6.335   6.270
 6744SOL    HW122064   6.121   6.332   6.249
 6744SOL    HW222065   6.012   6.256   6.321
 6745SOL     OW22066   7.849   8.057   4.619
 6745SOL    HW122067   7.770   8.110   4.615
 6745SOL    HW222068   7.918   8.117   4.648
 6746SOL     OW22069   6.173   5.239   7.177
 6746SOL    HW122070   6.149   5.326   7.208
 6746SOL    HW222071   6.252   5.253   7.125
 6747SOL     OW22072   2.416   0.302   2.636
 6747SOL    HW122073   2.332   0.344   2.655
 6747SOL    HW222074   2.463   0.365   2.581
 6748SOL     OW22075  10.802   0.263   6.584
 6748SOL    HW122076  10.866   0.209   6.537
 6748SOL    HW222077  10.736   0.285   6.517
 6749SOL     OW22078  13.306   9.127  12.420
 6749SOL    HW122079  13.375   9.071  12.384
 6749SOL    HW222080  13.234   9.121  12.357
 6750SOL     OW22081   2.161  12.788  13.227
 6750SOL    HW122082   2.242  12.744  13.251
 6750SOL    HW222083   2.166  12.796  13.131
 6751SOL     OW22084   8.280   2.133  14.830
 6751SOL    HW122085   8.315   2.167  14.747
 6751SOL    HW222086   8.324   2.184   0.016
 6752SOL     OW22087  14.325  11.846   5.202
 6752SOL    HW122088  14.265  11.776   5.226
 6752SOL    HW222089  14.411  11.804   5.199
 6753SOL     OW22090   4.374  12.603  12.160
 6753SOL    HW122091   4.353  12.513  12.183
 6753SOL    HW222092   4.422  12.637  12.235
 6754SOL     OW22093   1.405   7.842  11.352
 6754SOL    HW122094   1.389   7.779  11.422
 6754SOL    HW222095   1.500   7.852  11.350
 6755SOL     OW22096  14.193  13.185  11.013
 6755SOL    HW122097  14.178  13.132  11.091
 6755SOL    HW222098  14.289  13.188  11.004
 6756SOL     OW22099   4.162   4.472   6.454
 6756SOL    HW122100   4.198   4.561   6.448
 6756SOL    HW222101   4.238   4.415   6.446
 6757SOL     OW22102  14.014   0.362   3.026
 6757SOL    HW122103  14.083   0.311   3.070
 6757SOL    HW222104  13.952   0.383   3.096
 6758SOL     OW22105  13.948  10.323   1.566
 6758SOL    HW122106  13.987  10.245   1.525
 6758SOL    HW222107  13.975  10.317   1.658
 6759SOL     OW22108   8.420   6.325   0.049
 6759SOL    HW122109   8.356   6.394   0.034
 6759SOL    HW222110   8.448   6.337   0.140
 6760SOL     OW22111  10.542   1.924   6.438
 6760SOL    HW122112  10.513   1.834   6.450
 6760SOL    HW222113  10.461   1.974   6.426
 6761SOL     OW22114   3.461   8.391   7.046
 6761SOL    HW122115   3.514   8.312   7.060
 6761SOL    HW222116   3.433   8.416   7.134
 6762SOL     OW22117   7.794   5.169   7.231
 6762SOL    HW122118   7.736   5.096   7.251
 6762SOL    HW222119   7.735   5.242   7.212
 6763SOL     OW22120   9.125  14.624   9.626
 6763SOL    HW122121   9.038  14.647   9.657
 6763SOL    HW222122   9.172  14.594   9.703
 6764SOL     OW22123   6.116   9.718  12.539
 6764SOL    HW122124   6.040   9.662  12.520
 6764SOL    HW222125   6.083   9.782  12.601
 6765SOL     OW22126  12.327   7.322  10.502
 6765SOL    HW122127  12.256   7.260  10.489
 6765SOL    HW222128  12.286   7.408  10.498
 6766SOL     OW22129   1.954   8.336   6.696
 6766SOL    HW122130   1.973   8.250   6.659
 6766SOL    HW222131   1.867   8.327   6.735
 6767SOL     OW22132  12.887  10.045  13.231
 6767SOL    HW122133  12.855   9.965  13.273
 6767SOL    HW222134  12.965  10.016  13.183
 6768SOL     OW22135  13.603   4.028   9.051
 6768SOL    HW122136  13.520   4.072   9.032
 6768SOL    HW222137  13.584   3.935   9.039
 6769SOL     OW22138   7.980  11.972  11.899
 6769SOL    HW122139   7.979  11.891  11.949
 6769SOL    HW222140   7.994  12.040  11.965
 6770SOL     OW22141   4.764   0.338   6.881
 6770SOL    HW122142   4.681   0.308   6.918
 6770SOL    HW222143   4.798   0.262   6.833
 6771SOL     OW22144   3.757   9.268   6.878
 6771SOL    HW122145   3.677   9.257   6.930
 6771SOL    HW222146   3.817   9.202   6.912
 6772SOL     OW22147   6.660  11.549   9.880
 6772SOL    HW122148   6.743  11.555   9.928
 6772SOL    HW222149   6.621  11.636   9.889
 6773SOL     OW22150   4.778   6.954   1.909
 6773SOL    HW122151   4.719   6.917   1.975
 6773SOL    HW222152   4.847   6.889   1.899
 6774SOL     OW22153  10.516   2.638   6.788
 6774SOL    HW122154  10.602   2.628   6.829
 6774SOL    HW222155  10.535   2.662   6.697
 6775SOL     OW22156   2.618   0.333   8.140
 6775SOL    HW122157   2.531   0.353   8.175
 6775SOL    HW222158   2.666   0.415   8.145
 6776SOL     OW22159   3.439  11.830   4.072
 6776SOL    HW122160   3.492  11.853   4.148
 6776SOL    HW222161   3.410  11.740   4.089
 6777SOL     OW22162  11.540  13.043   3.012
 6777SOL    HW122163  11.522  13.134   2.990
 6777SOL    HW222164  11.569  13.045   3.103
 6778SOL     OW22165   6.632  13.951   7.202
 6778SOL    HW122166   6.714  13.998   7.215
 6778SOL    HW222167   6.654  13.879   7.143
 6779SOL     OW22168   4.325   6.971   2.465
 6779SOL    HW122169   4.297   6.879   2.463
 6779SOL    HW222170   4.390   6.975   2.536
 6780SOL     OW22171   9.965  14.667   3.411
 6780SOL    HW122172   9.992  14.751   3.374
 6780SOL    HW222173   9.963  14.607   3.336
 6781SOL     OW22174   0.759   6.693  12.513
 6781SOL    HW122175   0.836   6.743  12.488
 6781SOL    HW222176   0.688   6.757  12.518
 6782SOL     OW22177  13.913   0.759   7.971
 6782SOL    HW122178  13.866   0.711   8.039
 6782SOL    HW222179  13.987   0.703   7.947
 6783SOL     OW22180  10.222   5.455   5.193
 6783SOL    HW122181  10.210   5.548   5.211
 6783SOL    HW222182  10.140   5.426   5.154
 6784SOL     OW22183   8.539   6.429   6.943
 6784SOL    HW122184   8.453   6.468   6.957
 6784SOL    HW222185   8.573   6.412   7.030
 6785SOL     OW22186   2.532   8.421   0.691
 6785SOL    HW122187   2.449   8.381   0.663
 6785SOL    HW222188   2.599   8.361   0.660
 6786SOL     OW22189   5.047   0.461   7.979
 6786SOL    HW122190   5.140   0.481   7.978
 6786SOL    HW222191   5.006   0.535   7.935
 6787SOL     OW22192  12.147  13.119   2.233
 6787SOL    HW122193  12.052  13.108   2.228
 6787SOL    HW222194  12.174  13.132   2.142
 6788SOL     OW22195  13.484   1.968  13.561
 6788SOL    HW122196  13.466   1.984  13.654
 6788SOL    HW222197  13.516   1.878  13.558
 6789SOL     OW22198   8.946  13.252  10.537
 6789SOL    HW122199   8.878  13.185  10.532
 6789SOL    HW222200   9.014  13.213  10.593
 6790SOL     OW22201   6.664   1.453  11.400
 6790SOL    HW122202   6.570   1.465  11.389
 6790SOL    HW222203   6.693   1.530  11.448
 6791SOL     OW22204  13.715   4.965   7.303
 6791SOL    HW122205  13.791   5.017   7.331
 6791SOL    HW222206  13.646   5.030   7.287
 6792SOL     OW22207  11.866   7.744  14.770
 6792SOL    HW122208  11.857   7.813  14.704
 6792SOL    HW222209  11.785   7.693  14.764
 6793SOL     OW22210   4.939   4.386   2.808
 6793SOL    HW122211   4.885   4.383   2.729
 6793SOL    HW222212   5.027   4.403   2.776
 6794SOL     OW22213  10.161   9.771  13.867
 6794SOL    HW122214  10.252   9.785  13.894
 6794SOL    HW222215  10.109   9.793  13.944
 6795SOL     OW22216   7.357   9.905   8.330
 6795SOL    HW122217   7.294   9.957   8.281
 6795SOL    HW222218   7.431   9.964   8.345
 6796SOL     OW22219   5.410  13.729  10.176
 6796SOL    HW122220   5.455  13.648  10.154
 6796SOL    HW222221   5.357  13.749  10.098
 6797SOL     OW22222   1.741  13.935   0.128
 6797SOL    HW122223   1.815  13.978   0.086
 6797SOL    HW222224   1.776  13.851   0.158
 6798SOL     OW22225   8.038   8.227   2.668
 6798SOL    HW122226   7.954   8.254   2.706
 6798SOL    HW222227   8.040   8.132   2.679
 6799SOL     OW22228   6.534  13.238   8.089
 6799SOL    HW122229   6.537  13.216   8.182
 6799SOL    HW222230   6.625  13.254   8.065
 6800SOL     OW22231  12.053   1.539  11.669
 6800SOL    HW122232  12.064   1.579  11.583
 6800SOL    HW222233  11.979   1.585  11.708
 6801SOL     OW22234   3.039   3.248  10.959
 6801SOL    HW122235   3.064   3.174  11.015
 6801SOL    HW222236   3.106   3.314  10.976
 6802SOL     OW22237  13.518   0.114  12.471
 6802SOL    HW122238  13.581   0.059  12.424
 6802SOL    HW222239  13.448   0.055  12.496
 6803SOL     OW22240   5.259   0.423   9.387
 6803SOL    HW122241   5.237   0.332   9.405
 6803SOL    HW222242   5.175   0.465   9.369
 6804SOL     OW22243   5.590   9.983   0.675
 6804SOL    HW122244   5.614   9.932   0.598
 6804SOL    HW222245   5.620  10.072   0.656
 6805SOL     OW22246  10.206  14.043   2.326
 6805SOL    HW122247  10.136  13.986   2.295
 6805SOL    HW222248  10.237  14.087   2.247
 6806SOL     OW22249   6.004  14.296  14.302
 6806SOL    HW122250   6.031  14.297  14.210
 6806SOL    HW222251   5.916  14.333  14.301
 6807SOL     OW22252  14.304   7.535   9.389
 6807SOL    HW122253  14.356   7.599   9.340
 6807SOL    HW222254  14.362   7.460   9.401
 6808SOL     OW22255   0.804  14.100  12.070
 6808SOL    HW122256   0.880  14.141  12.112
 6808SOL    HW222257   0.729  14.134  12.119
 6809SOL     OW22258   2.393   3.582   3.891
 6809SOL    HW122259   2.382   3.674   3.917
 6809SOL    HW222260   2.417   3.586   3.799
 6810SOL     OW22261   5.959   4.715   1.384
 6810SOL    HW122262   5.916   4.653   1.325
 6810SOL    HW222263   5.915   4.798   1.368
 6811SOL     OW22264   3.910   6.965   1.943
 6811SOL    HW122265   3.876   7.044   1.902
 6811SOL    HW222266   3.948   6.996   2.026
 6812SOL     OW22267  10.704   0.374  14.873
 6812SOL    HW122268  10.766   0.420  14.817
 6812SOL    HW222269  10.649   0.324  14.812
 6813SOL     OW22270   8.400  10.322   6.745
 6813SOL    HW122271   8.354  10.280   6.817
 6813SOL    HW222272   8.490  10.334   6.777
 6814SOL     OW22273   3.772  13.199  12.574
 6814SOL    HW122274   3.806  13.172  12.488
 6814SOL    HW222275   3.730  13.120  12.608
 6815SOL     OW22276   7.751  10.107  13.373
 6815SOL    HW122277   7.767  10.147  13.458
 6815SOL    HW222278   7.655  10.102  13.366
 6816SOL     OW22279   3.530  12.900  14.351
 6816SOL    HW122280   3.573  12.827  14.396
 6816SOL    HW222281   3.600  12.945  14.305
 6817SOL     OW22282  13.731   3.346   3.693
 6817SOL    HW122283  13.788   3.388   3.758
 6817SOL    HW222284  13.646   3.387   3.707
 6818SOL     OW22285  12.046  12.695  13.415
 6818SOL    HW122286  11.974  12.697  13.479
 6818SOL    HW222287  12.044  12.606  13.380
 6819SOL     OW22288  14.555   6.048  13.062
 6819SOL    HW122289  14.519   6.132  13.035
 6819SOL    HW222290  14.611   6.068  13.137
 6820SOL     OW22291   8.712   4.417  14.329
 6820SOL    HW122292   8.746   4.333  14.298
 6820SOL    HW222293   8.786   4.477  14.323
 6821SOL     OW22294   3.286  11.412  11.945
 6821SOL    HW122295   3.242  11.382  11.865
 6821SOL    HW222296   3.221  11.397  12.014
 6822SOL     OW22297   2.992   9.708  14.387
 6822SOL    HW122298   2.952   9.793  14.405
 6822SOL    HW222299   3.069   9.705  14.444
 6823SOL     OW22300   5.753   3.340  12.411
 6823SOL    HW122301   5.743   3.300  12.497
 6823SOL    HW222302   5.754   3.434  12.428
 6824SOL     OW22303   3.952  11.562   3.693
 6824SOL    HW122304   3.943  11.637   3.634
 6824SOL    HW222305   3.991  11.598   3.772
 6825SOL     OW22306   7.480   4.039   3.280
 6825SOL    HW122307   7.466   4.115   3.223
 6825SOL    HW222308   7.419   4.052   3.352
 6826SOL     OW22309   6.919   7.403   0.541
 6826SOL    HW122310   6.960   7.319   0.562
 6826SOL    HW222311   6.988   7.454   0.499
 6827SOL     OW22312   4.759   5.453   0.086
 6827SOL    HW122313   4.769   5.374   0.139
 6827SOL    HW222314   4.844   5.495   0.089
 6828SOL     OW22315   1.354  12.207  10.192
 6828SOL    HW122316   1.386  12.215  10.102
 6828SOL    HW222317   1.418  12.255  10.244
 6829SOL     OW22318  14.192   1.095  10.011
 6829SOL    HW122319  14.222   1.181   9.980
 6829SOL    HW222320  14.121   1.072   9.951
 6830SOL     OW22321   5.413   5.591   8.203
 6830SOL    HW122322   5.466   5.668   8.182
 6830SOL    HW222323   5.338   5.596   8.143
 6831SOL     OW22324   6.422  11.671   2.414
 6831SOL    HW122325   6.479  11.683   2.490
 6831SOL    HW222326   6.348  11.621   2.447
 6832SOL     OW22327   8.874   4.775   0.968
 6832SOL    HW122328   8.965   4.775   0.937
 6832SOL    HW222329   8.833   4.701   0.923
 6833SOL     OW22330  12.774   2.457  11.422
 6833SOL    HW122331  12.707   2.392  11.399
 6833SOL    HW222332  12.836   2.453  11.349
 6834SOL     OW22333   7.787  12.442  13.796
 6834SOL    HW122334   7.862  12.497  13.815
 6834SOL    HW222335   7.759  12.409  13.882
 6835SOL     OW22336   4.245   2.635   2.775
 6835SOL    HW122337   4.157   2.614   2.743
 6835SOL    HW222338   4.278   2.552   2.810
 6836SOL     OW22339  11.863  10.477   6.045
 6836SOL    HW122340  11.835  10.386   6.031
 6836SOL    HW222341  11.834  10.497   6.134
 6837SOL     OW22342   5.322   2.997   9.006
 6837SOL    HW122343   5.405   3.010   8.961
 6837SOL    HW222344   5.312   3.075   9.061
 6838SOL     OW22345   7.943   2.535   0.815
 6838SOL    HW122346   7.859   2.581   0.812
 6838SOL    HW222347   7.929   2.465   0.879
 6839SOL     OW22348  14.476  14.776  12.331
 6839SOL    HW122349  14.539  14.823  12.385
 6839SOL    HW222350  14.497  14.683  12.345
 6840SOL     OW22351  12.953   3.430   2.678
 6840SOL    HW122352  12.911   3.504   2.722
 6840SOL    HW222353  13.015   3.395   2.743
 6841SOL     OW22354  10.858  13.548  11.574
 6841SOL    HW122355  10.885  13.503  11.654
 6841SOL    HW222356  10.936  13.547  11.519
 6842SOL     OW22357   8.493   2.548   2.944
 6842SOL    HW122358   8.420   2.499   2.909
 6842SOL    HW222359   8.555   2.554   2.871
 6843SOL     OW22360   1.530  14.426  10.566
 6843SOL    HW122361   1.468  14.395  10.632
 6843SOL    HW222362   1.616  14.395  10.597
 6844SOL     OW22363   6.123   8.026   8.661
 6844SOL    HW122364   6.211   8.041   8.693
 6844SOL    HW222365   6.127   8.050   8.568
 6845SOL     OW22366   4.066   8.720  11.560
 6845SOL    HW122367   4.032   8.754  11.643
 6845SOL    HW222368   4.104   8.796  11.516
 6846SOL     OW22369   8.653   9.966  13.911
 6846SOL    HW122370   8.593   9.894  13.890
 6846SOL    HW222371   8.598  10.033  13.950
 6847SOL     OW22372  11.458  12.238  10.347
 6847SOL    HW122373  11.512  12.310  10.313
 6847SOL    HW222374  11.519  12.184  10.397
 6848SOL     OW22375   9.399   6.347   3.794
 6848SOL    HW122376   9.428   6.263   3.828
 6848SOL    HW222377   9.478   6.387   3.758
 6849SOL     OW22378  14.491  13.045   5.905
 6849SOL    HW122379  14.528  13.129   5.877
 6849SOL    HW222380  14.555  13.010   5.967
 6850SOL     OW22381   3.406  14.866   8.211
 6850SOL    HW122382   3.325  14.829   8.177
 6850SOL    HW222383   3.407  14.841   8.303
 6851SOL     OW22384   5.815   3.955   4.083
 6851SOL    HW122385   5.845   4.003   4.005
 6851SOL    HW222386   5.801   3.866   4.051
 6852SOL     OW22387   9.802   6.858   7.683
 6852SOL    HW122388   9.842   6.873   7.597
 6852SOL    HW222389   9.709   6.880   7.670
 6853SOL     OW22390  14.504   3.792  10.197
 6853SOL    HW122391  14.430   3.800  10.258
 6853SOL    HW222392  14.553   3.717  10.230
 6854SOL     OW22393   9.505   9.090  11.939
 6854SOL    HW122394   9.554   9.151  11.994
 6854SOL    HW222395   9.449   9.146  11.885
 6855SOL     OW22396   6.289   4.053  14.808
 6855SOL    HW122397   6.266   4.096  14.727
 6855SOL    HW222398   6.284   3.959  14.788
 6856SOL     OW22399  14.362   7.707   8.954
 6856SOL    HW122400  14.451   7.682   8.929
 6856SOL    HW222401  14.320   7.731   8.871
 6857SOL     OW22402  11.385  10.344  14.415
 6857SOL    HW122403  11.415  10.290  14.489
 6857SOL    HW222404  11.445  10.323  14.344
 6858SOL     OW22405   6.692  14.244   4.875
 6858SOL    HW122406   6.692  14.339   4.886
 6858SOL    HW222407   6.668  14.230   4.784
 6859SOL     OW22408   9.065   3.564   2.603
 6859SOL    HW122409   9.139   3.505   2.619
 6859SOL    HW222410   9.102   3.652   2.612
 6860SOL     OW22411   9.334   2.262  10.686
 6860SOL    HW122412   9.380   2.206  10.623
 6860SOL    HW222413   9.369   2.236  10.771
 6861SOL     OW22414   8.181   8.428  11.095
 6861SOL    HW122415   8.087   8.413  11.092
 6861SOL    HW222416   8.216   8.356  11.148
 6862SOL     OW22417  13.776   6.173   2.895
 6862SOL    HW122418  13.819   6.259   2.892
 6862SOL    HW222419  13.762   6.157   2.988
 6863SOL     OW22420  13.229  13.258   3.823
 6863SOL    HW122421  13.145  13.219   3.849
 6863SOL    HW222422  13.275  13.273   3.905
 6864SOL     OW22423   3.896   0.764   5.749
 6864SOL    HW122424   3.950   0.718   5.813
 6864SOL    HW222425   3.941   0.848   5.736
 6865SOL     OW22426   1.323   7.604  14.611
 6865SOL    HW122427   1.357   7.648  14.533
 6865SOL    HW222428   1.377   7.526  14.619
 6866SOL     OW22429   9.340  10.153  13.806
 6866SOL    HW122430   9.288  10.231  13.826
 6866SOL    HW222431   9.275  10.083  13.799
 6867SOL     OW22432   7.519   4.546  11.189
 6867SOL    HW122433   7.607   4.532  11.223
 6867SOL    HW222434   7.472   4.465  11.209
 6868SOL     OW22435   1.338  12.591   3.199
 6868SOL    HW122436   1.295  12.541   3.268
 6868SOL    HW222437   1.268  12.614   3.138
 6869SOL     OW22438   2.595   1.407  10.817
 6869SOL    HW122439   2.619   1.483  10.870
 6869SOL    HW222440   2.527   1.440  10.758
 6870SOL     OW22441   1.401  11.765  14.827
 6870SOL    HW122442   1.487  11.783  14.864
 6870SOL    HW222443   1.397  11.816  14.746
 6871SOL     OW22444  11.864   7.202   9.498
 6871SOL    HW122445  11.878   7.112   9.469
 6871SOL    HW222446  11.769   7.214   9.497
 6872SOL     OW22447  13.205   5.506   7.549
 6872SOL    HW122448  13.191   5.426   7.599
 6872SOL    HW222449  13.179   5.577   7.608
 6873SOL     OW22450   5.441   8.213   8.895
 6873SOL    HW122451   5.442   8.295   8.943
 6873SOL    HW222452   5.533   8.193   8.880
 6874SOL     OW22453   6.682  11.180   2.214
 6874SOL    HW122454   6.759  11.148   2.261
 6874SOL    HW222455   6.633  11.229   2.279
 6875SOL     OW22456  10.860  14.150   8.807
 6875SOL    HW122457  10.816  14.147   8.892
 6875SOL    HW222458  10.792  14.178   8.745
 6876SOL     OW22459   3.684   6.295   7.385
 6876SOL    HW122460   3.655   6.279   7.474
 6876SOL    HW222461   3.757   6.356   7.394
 6877SOL     OW22462  10.570  13.848  10.983
 6877SOL    HW122463  10.567  13.912  11.054
 6877SOL    HW222464  10.618  13.773  11.019
 6878SOL     OW22465  14.139   7.221   2.272
 6878SOL    HW122466  14.112   7.130   2.279
 6878SOL    HW222467  14.062   7.266   2.238
 6879SOL     OW22468   6.102   8.050   4.902
 6879SOL    HW122469   6.024   8.022   4.949
 6879SOL    HW222470   6.129   7.973   4.851
 6880SOL     OW22471  14.362   1.212   8.558
 6880SOL    HW122472  14.317   1.130   8.579
 6880SOL    HW222473  14.455   1.192   8.572
 6881SOL     OW22474   0.295   5.571  10.108
 6881SOL    HW122475   0.273   5.581  10.200
 6881SOL    HW222476   0.361   5.637  10.091
 6882SOL     OW22477   6.657   8.366   2.113
 6882SOL    HW122478   6.705   8.302   2.167
 6882SOL    HW222479   6.705   8.448   2.126
 6883SOL     OW22480   6.382   1.878   2.548
 6883SOL    HW122481   6.314   1.853   2.487
 6883SOL    HW222482   6.343   1.947   2.601
 6884SOL     OW22483   8.575   0.085   3.723
 6884SOL    HW122484   8.568   0.065   3.630
 6884SOL    HW222485   8.664   0.061   3.747
 6885SOL     OW22486  13.690  13.333   2.560
 6885SOL    HW122487  13.747  13.325   2.637
 6885SOL    HW222488  13.697  13.250   2.515
 6886SOL     OW22489   8.529   7.352  10.633
 6886SOL    HW122490   8.535   7.447  10.633
 6886SOL    HW222491   8.612   7.323  10.594
 6887SOL     OW22492  12.585   1.612   4.862
 6887SOL    HW122493  12.496   1.583   4.883
 6887SOL    HW222494  12.641   1.553   4.912
 6888SOL     OW22495   7.119  10.621   3.243
 6888SOL    HW122496   7.109  10.715   3.228
 6888SOL    HW222497   7.036  10.584   3.215
 6889SOL     OW22498  11.916  11.633  11.071
 6889SOL    HW122499  11.977  11.595  11.135
 6889SOL    HW222500  11.853  11.681  11.125
 6890SOL     OW22501   4.427  10.991   3.152
 6890SOL    HW122502   4.408  10.898   3.161
 6890SOL    HW222503   4.352  11.026   3.103
 6891SOL     OW22504   2.724  11.852   3.119
 6891SOL    HW122505   2.741  11.805   3.037
 6891SOL    HW222506   2.765  11.798   3.187
 6892SOL     OW22507  12.939   8.412   0.040
 6892SOL    HW122508  12.972   8.357   0.111
 6892SOL    HW222509  12.850   8.435   0.068
 6893SOL     OW22510  11.546  10.945   0.607
 6893SOL    HW122511  11.529  10.907   0.693
 6893SOL    HW222512  11.578  11.033   0.626
 6894SOL     OW22513   8.849  12.271   5.370
 6894SOL    HW122514   8.853  12.305   5.460
 6894SOL    HW222515   8.935  12.291   5.333
 6895SOL     OW22516   0.859   3.408   3.623
 6895SOL    HW122517   0.814   3.477   3.672
 6895SOL    HW222518   0.792   3.371   3.565
 6896SOL     OW22519  10.715   2.776   5.681
 6896SOL    HW122520  10.684   2.698   5.636
 6896SOL    HW222521  10.670   2.775   5.765
 6897SOL     OW22522   5.218  11.914  12.410
 6897SOL    HW122523   5.150  11.963  12.457
 6897SOL    HW222524   5.175  11.832  12.385
 6898SOL     OW22525  11.191   9.684   1.409
 6898SOL    HW122526  11.226   9.772   1.404
 6898SOL    HW222527  11.197   9.660   1.502
 6899SOL     OW22528   1.776   4.495   9.239
 6899SOL    HW122529   1.869   4.473   9.241
 6899SOL    HW222530   1.775   4.591   9.241
 6900SOL     OW22531   2.909   7.195  14.087
 6900SOL    HW122532   2.930   7.148  14.006
 6900SOL    HW222533   2.880   7.281  14.057
 6901SOL     OW22534   2.543  12.240  14.424
 6901SOL    HW122535   2.456  12.273  14.401
 6901SOL    HW222536   2.588  12.231  14.340
 6902SOL     OW22537   6.638   1.805  13.038
 6902SOL    HW122538   6.726   1.841  13.023
 6902SOL    HW222539   6.596   1.810  12.952
 6903SOL     OW22540   4.209   9.977  12.585
 6903SOL    HW122541   4.207   9.940  12.497
 6903SOL    HW222542   4.199  10.071  12.572
 6904SOL     OW22543   8.457  13.262  13.185
 6904SOL    HW122544   8.362  13.264  13.198
 6904SOL    HW222545   8.487  13.190  13.240
 6905SOL     OW22546   8.666   4.659   0.184
 6905SOL    HW122547   8.737   4.721   0.201
 6905SOL    HW222548   8.695   4.612   0.106
 6906SOL     OW22549   7.092   9.686   5.139
 6906SOL    HW122550   7.055   9.598   5.129
 6906SOL    HW222551   7.073   9.710   5.230
 6907SOL     OW22552  13.210   3.207  14.476
 6907SOL    HW122553  13.289   3.226  14.526
 6907SOL    HW222554  13.241   3.194  14.386
 6908SOL     OW22555   4.697   6.506  10.665
 6908SOL    HW122556   4.629   6.501  10.732
 6908SOL    HW222557   4.696   6.598  10.636
 6909SOL     OW22558   3.464   4.085   6.685
 6909SOL    HW122559   3.385   4.038   6.658
 6909SOL    HW222560   3.475   4.152   6.618
 6910SOL     OW22561   1.091   6.133   7.580
 6910SOL    HW122562   1.125   6.135   7.491
 6910SOL    HW222563   1.083   6.040   7.601
 6911SOL     OW22564   9.623   4.599  10.986
 6911SOL    HW122565   9.547   4.619  10.931
 6911SOL    HW222566   9.657   4.685  11.011
 6912SOL     OW22567   7.172   2.606   2.243
 6912SOL    HW122568   7.143   2.551   2.170
 6912SOL    HW222569   7.254   2.566   2.272
 6913SOL     OW22570  13.548   2.881   1.310
 6913SOL    HW122571  13.495   2.878   1.230
 6913SOL    HW222572  13.632   2.843   1.285
 6914SOL     OW22573   9.917  11.351  10.618
 6914SOL    HW122574   9.993  11.409  10.619
 6914SOL    HW222575   9.857  11.390  10.555
 6915SOL     OW22576  12.211   6.525   8.537
 6915SOL    HW122577  12.282   6.568   8.585
 6915SOL    HW222578  12.255   6.480   8.465
 6916SOL     OW22579   5.728   3.374  10.165
 6916SOL    HW122580   5.754   3.405  10.252
 6916SOL    HW222581   5.796   3.406  10.106
 6917SOL     OW22582   0.351   6.567   2.886
 6917SOL    HW122583   0.264   6.602   2.864
 6917SOL    HW222584   0.368   6.502   2.818
 6918SOL     OW22585   4.849   3.069   5.211
 6918SOL    HW122586   4.856   3.006   5.283
 6918SOL    HW222587   4.765   3.113   5.225
 6919SOL     OW22588   5.553   0.980  11.693
 6919SOL    HW122589   5.515   1.019  11.772
 6919SOL    HW222590   5.581   0.893  11.720
 6920SOL     OW22591   4.475   6.207   9.896
 6920SOL    HW122592   4.400   6.188   9.952
 6920SOL    HW222593   4.548   6.161   9.937
 6921SOL     OW22594  11.203  11.375  11.696
 6921SOL    HW122595  11.214  11.343  11.607
 6921SOL    HW222596  11.112  11.404  11.700
 6922SOL     OW22597  11.013  11.081   4.292
 6922SOL    HW122598  11.100  11.042   4.298
 6922SOL    HW222599  10.993  11.111   4.381
 6923SOL     OW22600  13.788  11.784   8.418
 6923SOL    HW122601  13.747  11.747   8.341
 6923SOL    HW222602  13.789  11.713   8.482
 6924SOL     OW22603   0.192   3.695   4.314
 6924SOL    HW122604   0.103   3.730   4.313
 6924SOL    HW222605   0.240   3.750   4.376
 6925SOL     OW22606   9.267   5.183   4.825
 6925SOL    HW122607   9.336   5.250   4.825
 6925SOL    HW222608   9.285   5.130   4.903
 6926SOL     OW22609   0.828  11.617   5.356
 6926SOL    HW122610   0.782  11.535   5.340
 6926SOL    HW222611   0.921  11.594   5.353
 6927SOL     OW22612   0.473   5.600   3.407
 6927SOL    HW122613   0.493   5.623   3.316
 6927SOL    HW222614   0.485   5.681   3.456
 6928SOL     OW22615   5.254  13.169   4.594
 6928SOL    HW122616   5.174  13.206   4.630
 6928SOL    HW222617   5.229  13.082   4.564
 6929SOL     OW22618   1.389  13.285  11.405
 6929SOL    HW122619   1.433  13.222  11.462
 6929SOL    HW222620   1.411  13.257  11.317
 6930SOL     OW22621   2.087   2.312   9.313
 6930SOL    HW122622   2.104   2.405   9.301
 6930SOL    HW222623   2.172   2.274   9.334
 6931SOL     OW22624  13.252   6.328  13.046
 6931SOL    HW122625  13.211   6.246  13.073
 6931SOL    HW222626  13.321   6.343  13.111
 6932SOL     OW22627  14.213   0.138   8.595
 6932SOL    HW122628  14.153   0.213   8.589
 6932SOL    HW222629  14.182   0.078   8.527
 6933SOL     OW22630  10.456   3.442   5.376
 6933SOL    HW122631  10.404   3.482   5.306
 6933SOL    HW222632  10.455   3.507   5.446
 6934SOL     OW22633   3.708   3.275   2.803
 6934SOL    HW122634   3.759   3.340   2.851
 6934SOL    HW222635   3.737   3.191   2.838
 6935SOL     OW22636   3.855  11.583   2.968
 6935SOL    HW122637   3.761  11.570   2.953
 6935SOL    HW222638   3.888  11.494   2.984
 6936SOL     OW22639   3.126   8.221   8.353
 6936SOL    HW122640   3.087   8.182   8.275
 6936SOL    HW222641   3.053   8.230   8.414
 6937SOL     OW22642  11.758   9.615  11.638
 6937SOL    HW122643  11.783   9.707  11.640
 6937SOL    HW222644  11.810   9.576  11.568
 6938SOL     OW22645  13.563   4.906   0.040
 6938SOL    HW122646  13.514   4.891   0.121
 6938SOL    HW222647  13.618   4.828   0.031
 6939SOL     OW22648   1.340   1.291  11.692
 6939SOL    HW122649   1.319   1.310  11.601
 6939SOL    HW222650   1.430   1.259  11.690
 6940SOL     OW22651   2.434   8.425   4.211
 6940SOL    HW122652   2.374   8.495   4.235
 6940SOL    HW222653   2.511   8.438   4.266
 6941SOL     OW22654   3.350  14.239   5.957
 6941SOL    HW122655   3.311  14.176   5.897
 6941SOL    HW222656   3.281  14.261   6.019
 6942SOL     OW22657  13.493   4.523   9.720
 6942SOL    HW122658  13.468   4.507   9.629
 6942SOL    HW222659  13.410   4.528   9.768
 6943SOL     OW22660   7.205   9.759   1.490
 6943SOL    HW122661   7.151   9.683   1.511
 6943SOL    HW222662   7.153   9.834   1.520
 6944SOL     OW22663   4.933  14.847   9.680
 6944SOL    HW122664   4.953  14.869   9.771
 6944SOL    HW222665   4.920  14.752   9.681
 6945SOL     OW22666   9.293   8.469   0.113
 6945SOL    HW122667   9.362   8.416   0.072
 6945SOL    HW222668   9.215   8.414   0.106
 6946SOL     OW22669  12.273   9.962  12.786
 6946SOL    HW122670  12.265  10.032  12.722
 6946SOL    HW222671  12.204   9.900  12.762
 6947SOL     OW22672   5.763   2.115   5.190
 6947SOL    HW122673   5.730   2.043   5.135
 6947SOL    HW222674   5.852   2.130   5.158
 6948SOL     OW22675   1.095   0.851  10.749
 6948SOL    HW122676   1.170   0.853  10.689
 6948SOL    HW222677   1.122   0.904  10.824
 6949SOL     OW22678   6.097  11.243  13.681
 6949SOL    HW122679   6.176  11.198  13.713
 6949SOL    HW222680   6.062  11.186  13.613
 6950SOL     OW22681   1.721   7.340   8.782
 6950SOL    HW122682   1.665   7.264   8.766
 6950SOL    HW222683   1.809   7.310   8.759
 6951SOL     OW22684   3.590   9.045   7.007
 6951SOL    HW122685   3.639   8.986   6.949
 6951SOL    HW222686   3.500   9.012   7.005
 6952SOL     OW22687   5.332   5.568   0.574
 6952SOL    HW122688   5.324   5.663   0.565
 6952SOL    HW222689   5.312   5.551   0.666
 6953SOL     OW22690   0.281   9.496  11.684
 6953SOL    HW122691   0.193   9.461  11.700
 6953SOL    HW222692   0.309   9.529  11.769
 6954SOL     OW22693   6.772   8.616   4.231
 6954SOL    HW122694   6.687   8.574   4.247
 6954SOL    HW222695   6.835   8.544   4.234
 6955SOL     OW22696   6.528   7.323   3.202
 6955SOL    HW122697   6.435   7.301   3.199
 6955SOL    HW222698   6.535   7.388   3.273
 6956SOL     OW22699  14.744   6.516  14.840
 6956SOL    HW122700  14.834   6.500  14.815
 6956SOL    HW222701  14.695   6.510  14.758
 6957SOL     OW22702   1.729  11.301   8.697
 6957SOL    HW122703   1.788  11.361   8.650
 6957SOL    HW222704   1.672  11.265   8.629
 6958SOL     OW22705   7.972  14.513   2.636
 6958SOL    HW122706   8.001  14.438   2.585
 6958SOL    HW222707   7.981  14.485   2.727
 6959SOL     OW22708   6.578   4.009  14.377
 6959SOL    HW122709   6.585   4.045  14.465
 6959SOL    HW222710   6.562   4.086  14.321
 6960SOL     OW22711   3.226   4.794  14.652
 6960SOL    HW122712   3.293   4.848  14.694
 6960SOL    HW222713   3.266   4.765  14.570
 6961SOL     OW22714  11.693   9.925  13.928
 6961SOL    HW122715  11.753   9.999  13.927
 6961SOL    HW222716  11.698   9.891  14.017
 6962SOL     OW22717   0.015   8.104  10.931
 6962SOL    HW122718   0.022   8.009  10.946
 6962SOL    HW222719  14.874   8.140  11.016
 6963SOL     OW22720   6.821   4.299  13.176
 6963SOL    HW122721   6.777   4.371  13.129
 6963SOL    HW222722   6.811   4.224  13.118
 6964SOL     OW22723   4.980   5.593  10.947
 6964SOL    HW122724   5.057   5.551  10.909
 6964SOL    HW222725   4.992   5.687  10.929
 6965SOL     OW22726  11.465  10.290  12.152
 6965SOL    HW122727  11.420  10.213  12.189
 6965SOL    HW222728  11.553  10.285  12.188
 6966SOL     OW22729  14.251  10.085  14.578
 6966SOL    HW122730  14.304  10.029  14.521
 6966SOL    HW222731  14.176  10.110  14.525
 6967SOL     OW22732  11.709   2.572   1.162
 6967SOL    HW122733  11.651   2.591   1.087
 6967SOL    HW222734  11.748   2.657   1.183
 6968SOL     OW22735  11.150   4.693   7.213
 6968SOL    HW122736  11.118   4.714   7.301
 6968SOL    HW222737  11.231   4.644   7.228
 6969SOL     OW22738  13.961   5.089   9.023
 6969SOL    HW122739  14.015   5.010   9.016
 6969SOL    HW222740  13.992   5.146   8.952
 6970SOL     OW22741  13.623   9.125  14.203
 6970SOL    HW122742  13.611   9.115  14.108
 6970SOL    HW222743  13.688   9.194  14.212
 6971SOL     OW22744   1.637   5.856   2.115
 6971SOL    HW122745   1.627   5.950   2.102
 6971SOL    HW222746   1.635   5.820   2.026
 6972SOL     OW22747   4.366   7.130  12.930
 6972SOL    HW122748   4.411   7.064  12.877
 6972SOL    HW222749   4.374   7.099  13.020
 6973SOL     OW22750  13.682  13.561  12.911
 6973SOL    HW122751  13.607  13.529  12.962
 6973SOL    HW222752  13.684  13.504  12.834
 6974SOL     OW22753   1.056   6.563   3.443
 6974SOL    HW122754   1.026   6.517   3.522
 6974SOL    HW222755   0.989   6.543   3.377
 6975SOL     OW22756   7.960   9.832   8.716
 6975SOL    HW122757   7.978   9.837   8.622
 6975SOL    HW222758   8.027   9.887   8.756
 6976SOL     OW22759  13.267   8.485   3.219
 6976SOL    HW122760  13.251   8.549   3.288
 6976SOL    HW222761  13.323   8.531   3.156
 6977SOL     OW22762   3.316   1.362   5.294
 6977SOL    HW122763   3.408   1.338   5.303
 6977SOL    HW222764   3.315   1.430   5.226
 6978SOL     OW22765  12.988   9.352   8.786
 6978SOL    HW122766  12.994   9.304   8.704
 6978SOL    HW222767  12.925   9.422   8.769
 6979SOL     OW22768  13.136  14.412   8.670
 6979SOL    HW122769  13.229  14.394   8.680
 6979SOL    HW222770  13.092  14.329   8.692
 6980SOL     OW22771   1.002   7.868   3.809
 6980SOL    HW122772   0.980   7.838   3.897
 6980SOL    HW222773   1.056   7.946   3.823
 6981SOL     OW22774  14.209   6.553   8.944
 6981SOL    HW122775  14.187   6.631   8.995
 6981SOL    HW222776  14.295   6.573   8.906
 6982SOL     OW22777   0.091   6.560  13.681
 6982SOL    HW122778   0.091   6.484  13.740
 6982SOL    HW222779   0.170   6.608  13.707
 6983SOL     OW22780   3.640   6.448  11.600
 6983SOL    HW122781   3.635   6.378  11.536
 6983SOL    HW222782   3.626   6.404  11.684
 6984SOL     OW22783   9.468   2.409   5.571
 6984SOL    HW122784   9.469   2.504   5.579
 6984SOL    HW222785   9.482   2.392   5.478
 6985SOL     OW22786   2.526   7.746   0.785
 6985SOL    HW122787   2.543   7.833   0.748
 6985SOL    HW222788   2.451   7.713   0.736
 6986SOL     OW22789   9.162  11.061  13.682
 6986SOL    HW122790   9.131  10.988  13.735
 6986SOL    HW222791   9.087  11.084  13.627
 6987SOL     OW22792  10.511   0.533   0.108
 6987SOL    HW122793  10.595   0.487   0.106
 6987SOL    HW222794  10.461   0.488   0.176
 6988SOL     OW22795   1.469  11.700   5.923
 6988SOL    HW122796   1.429  11.777   5.882
 6988SOL    HW222797   1.541  11.676   5.865
 6989SOL     OW22798   9.419   3.607   9.125
 6989SOL    HW122799   9.443   3.697   9.146
 6989SOL    HW222800   9.472   3.553   9.184
 6990SOL     OW22801  14.875  13.030   4.462
 6990SOL    HW122802  14.836  12.977   4.531
 6990SOL    HW222803  14.812  13.027   4.391
 6991SOL     OW22804   3.227   3.636   1.011
 6991SOL    HW122805   3.155   3.663   1.069
 6991SOL    HW222806   3.255   3.718   0.969
 6992SOL     OW22807  13.005  13.942   6.352
 6992SOL    HW122808  13.069  14.013   6.354
 6992SOL    HW222809  13.032  13.887   6.278
 6993SOL     OW22810  10.152   9.484   4.644
 6993SOL    HW122811  10.246   9.485   4.628
 6993SOL    HW222812  10.125   9.575   4.637
 6994SOL     OW22813  12.712   8.937   0.397
 6994SOL    HW122814  12.756   9.017   0.370
 6994SOL    HW222815  12.737   8.925   0.489
 6995SOL     OW22816   0.267  14.608  10.674
 6995SOL    HW122817   0.173  14.599  10.659
 6995SOL    HW222818   0.303  14.523  10.651
 6996SOL     OW22819   7.847  11.175   4.977
 6996SOL    HW122820   7.924  11.184   4.922
 6996SOL    HW222821   7.880  11.186   5.066
 6997SOL     OW22822   7.090  12.992  12.525
 6997SOL    HW122823   7.152  12.929  12.562
 6997SOL    HW222824   7.072  12.959  12.437
 6998SOL     OW22825  12.274  11.246   9.952
 6998SOL    HW122826  12.296  11.222   9.862
 6998SOL    HW222827  12.355  11.231  10.001
 6999SOL     OW22828   8.669  10.093  12.326
 6999SOL    HW122829   8.645  10.001  12.326
 6999SOL    HW222830   8.601  10.136  12.378
 7000SOL     OW22831  11.147  14.629  10.021
 7000SOL    HW122832  11.169  14.648  10.113
 7000SOL    HW222833  11.058  14.662  10.011
 7001SOL     OW22834   9.530   1.311   3.678
 7001SOL    HW122835   9.625   1.304   3.678
 7001SOL    HW222836   9.503   1.279   3.592
 7002SOL     OW22837  14.193  11.394  11.923
 7002SOL    HW122838  14.163  11.331  11.857
 7002SOL    HW222839  14.237  11.462  11.873
 7003SOL     OW22840   0.525  14.352   9.825
 7003SOL    HW122841   0.432  14.335   9.806
 7003SOL    HW222842   0.539  14.310   9.910
 7004SOL     OW22843   2.270   7.995   9.242
 7004SOL    HW122844   2.270   7.959   9.153
 7004SOL    HW222845   2.199   7.947   9.287
 7005SOL     OW22846   0.167  14.816  14.311
 7005SOL    HW122847   0.228  14.767  14.368
 7005SOL    HW222848   0.217  14.830  14.231
 7006SOL     OW22849   9.674   6.780   2.350
 7006SOL    HW122850   9.668   6.863   2.302
 7006SOL    HW222851   9.618   6.720   2.301
 7007SOL     OW22852  13.812   1.959   9.212
 7007SOL    HW122853  13.829   1.871   9.179
 7007SOL    HW222854  13.819   1.951   9.307
 7008SOL     OW22855   1.593  12.395  10.203
 7008SOL    HW122856   1.561  12.476  10.242
 7008SOL    HW222857   1.634  12.348  10.276
 7009SOL     OW22858   1.136   2.041   1.581
 7009SOL    HW122859   1.171   2.019   1.495
 7009SOL    HW222860   1.126   1.957   1.625
 7010SOL     OW22861  13.166   0.548   4.298
 7010SOL    HW122862  13.238   0.519   4.355
 7010SOL    HW222863  13.181   0.641   4.286
 7011SOL     OW22864  11.644   3.829  14.673
 7011SOL    HW122865  11.682   3.881  14.602
 7011SOL    HW222866  11.714   3.770  14.699
 7012SOL     OW22867  11.172  10.995   9.774
 7012SOL    HW122868  11.109  11.057   9.737
 7012SOL    HW222869  11.163  10.916   9.721
 7013SOL     OW22870  12.279  10.626  12.186
 7013SOL    HW122871  12.330  10.553  12.221
 7013SOL    HW222872  12.190  10.591  12.176
 7014SOL     OW22873   6.191  12.000   9.462
 7014SOL    HW122874   6.285  11.995   9.480
 7014SOL    HW222875   6.149  11.986   9.547
 7015SOL     OW22876   6.353   3.106  14.266
 7015SOL    HW122877   6.353   3.193  14.225
 7015SOL    HW222878   6.298   3.117  14.344
 7016SOL     OW22879   5.363   5.944   6.591
 7016SOL    HW122880   5.389   6.030   6.561
 7016SOL    HW222881   5.353   5.892   6.511
 7017SOL     OW22882   8.630   7.435   6.481
 7017SOL    HW122883   8.632   7.527   6.507
 7017SOL    HW222884   8.540   7.407   6.498
 7018SOL     OW22885   8.639   4.315  11.360
 7018SOL    HW122886   8.724   4.359  11.365
 7018SOL    HW222887   8.656   4.228  11.398
 7019SOL     OW22888  14.784  11.102  14.447
 7019SOL    HW122889  14.814  11.100  14.356
 7019SOL    HW222890  14.855  11.061  14.497
 7020SOL     OW22891   8.912   5.167   0.961
 7020SOL    HW122892   8.861   5.143   1.039
 7020SOL    HW222893   8.904   5.263   0.957
 7021SOL     OW22894   0.065   2.779  13.563
 7021SOL    HW122895   0.054   2.870  13.534
 7021SOL    HW222896   0.094   2.787  13.654
 7022SOL     OW22897   5.048  11.577  10.740
 7022SOL    HW122898   5.067  11.579  10.646
 7022SOL    HW222899   5.089  11.497  10.771
 7023SOL     OW22900  14.672   7.071  13.050
 7023SOL    HW122901  14.709   7.001  12.997
 7023SOL    HW222902  14.747   7.106  13.099
 7024SOL     OW22903   6.027   6.726   2.298
 7024SOL    HW122904   5.958   6.666   2.271
 7024SOL    HW222905   5.987   6.812   2.296
 7025SOL     OW22906   5.725  12.072  11.182
 7025SOL    HW122907   5.761  12.120  11.256
 7025SOL    HW222908   5.722  12.136  11.111
 7026SOL     OW22909   0.239   3.298   7.192
 7026SOL    HW122910   0.331   3.275   7.206
 7026SOL    HW222911   0.239   3.348   7.111
 7027SOL     OW22912   0.609   6.242   5.978
 7027SOL    HW122913   0.591   6.169   6.037
 7027SOL    HW222914   0.560   6.315   6.015
 7028SOL     OW22915   6.050  12.778   9.573
 7028SOL    HW122916   5.973  12.834   9.559
 7028SOL    HW222917   6.037  12.704   9.514
 7029SOL     OW22918  12.428   6.359   6.184
 7029SOL    HW122919  12.451   6.401   6.266
 7029SOL    HW222920  12.464   6.270   6.191
 7030SOL     OW22921  14.486   8.919   2.169
 7030SOL    HW122922  14.497   8.826   2.149
 7030SOL    HW222923  14.532   8.931   2.252
 7031SOL     OW22924   4.179   6.982  14.275
 7031SOL    HW122925   4.101   7.023  14.237
 7031SOL    HW222926   4.239   7.054  14.291
 7032SOL     OW22927   7.875   5.239  14.853
 7032SOL    HW122928   7.818   5.164  14.867
 7032SOL    HW222929   7.877   5.250  14.758
 7033SOL     OW22930  12.749   0.263  10.579
 7033SOL    HW122931  12.772   0.178  10.542
 7033SOL    HW222932  12.671   0.246  10.631
 7034SOL     OW22933  11.946   3.297   2.379
 7034SOL    HW122934  11.864   3.327   2.418
 7034SOL    HW222935  11.980   3.374   2.333
 7035SOL     OW22936   2.740   9.172  10.041
 7035SOL    HW122937   2.823   9.218  10.030
 7035SOL    HW222938   2.699   9.215  10.117
 7036SOL     OW22939  11.904   6.369  14.346
 7036SOL    HW122940  11.883   6.306  14.415
 7036SOL    HW222941  11.973   6.326  14.295
 7037SOL     OW22942   9.062   8.481   8.120
 7037SOL    HW122943   8.979   8.478   8.167
 7037SOL    HW222944   9.056   8.560   8.066
 7038SOL     OW22945   9.938  13.214   8.871
 7038SOL    HW122946   9.984  13.144   8.826
 7038SOL    HW222947   9.847  13.184   8.877
 7039SOL     OW22948   8.340   3.600  12.810
 7039SOL    HW122949   8.259   3.594  12.759
 7039SOL    HW222950   8.373   3.511  12.814
 7040SOL     OW22951   4.207  13.805   0.979
 7040SOL    HW122952   4.199  13.743   0.907
 7040SOL    HW222953   4.202  13.891   0.938
 7041SOL     OW22954   1.335   3.262   3.332
 7041SOL    HW122955   1.283   3.187   3.360
 7041SOL    HW222956   1.390   3.229   3.261
 7042SOL     OW22957  13.682  11.319   3.920
 7042SOL    HW122958  13.687  11.390   3.856
 7042SOL    HW222959  13.695  11.363   4.005
 7043SOL     OW22960   8.808  11.490   0.794
 7043SOL    HW122961   8.801  11.567   0.739
 7043SOL    HW222962   8.722  11.448   0.787
 7044SOL     OW22963   7.168  10.948  13.586
 7044SOL    HW122964   7.110  11.018  13.616
 7044SOL    HW222965   7.226  10.991  13.522
 7045SOL     OW22966   7.207   4.810   4.881
 7045SOL    HW122967   7.239   4.722   4.857
 7045SOL    HW222968   7.121   4.794   4.919
 7046SOL     OW22969   6.369   5.547  13.585
 7046SOL    HW122970   6.361   5.628  13.636
 7046SOL    HW222971   6.292   5.496  13.611
 7047SOL     OW22972   9.949  13.456   3.199
 7047SOL    HW122973   9.952  13.523   3.131
 7047SOL    HW222974   9.899  13.497   3.270
 7048SOL     OW22975   2.719   8.646   8.296
 7048SOL    HW122976   2.669   8.727   8.300
 7048SOL    HW222977   2.653   8.578   8.284
 7049SOL     OW22978   4.796   8.660   2.951
 7049SOL    HW122979   4.724   8.598   2.959
 7049SOL    HW222980   4.817   8.661   2.858
 7050SOL     OW22981  13.519   7.620  10.278
 7050SOL    HW122982  13.491   7.529  10.288
 7050SOL    HW222983  13.511   7.637  10.184
 7051SOL     OW22984   3.240   3.809  14.754
 7051SOL    HW122985   3.300   3.819  14.680
 7051SOL    HW222986   3.296   3.790  14.829
 7052SOL     OW22987   7.701   1.866   9.562
 7052SOL    HW122988   7.688   1.782   9.519
 7052SOL    HW222989   7.773   1.851   9.624
 7053SOL     OW22990  14.244  13.324  14.138
 7053SOL    HW122991  14.186  13.254  14.168
 7053SOL    HW222992  14.304  13.338  14.211
 7054SOL     OW22993   4.689  11.999  10.781
 7054SOL    HW122994   4.714  11.953  10.861
 7054SOL    HW222995   4.700  11.935  10.711
 7055SOL     OW22996  13.749   0.924   5.833
 7055SOL    HW122997  13.713   0.837   5.853
 7055SOL    HW222998  13.704   0.952   5.754
 7056SOL     OW22999  11.600   4.349   3.370
 7056SOL    HW123000  11.621   4.382   3.457
 7056SOL    HW223001  11.608   4.254   3.379
 7057SOL     OW23002  12.497  10.656   7.050
 7057SOL    HW123003  12.459  10.644   6.963
 7057SOL    HW223004  12.549  10.578   7.064
 7058SOL     OW23005   9.521   7.579   8.502
 7058SOL    HW123006   9.500   7.555   8.411
 7058SOL    HW223007   9.499   7.501   8.553
 7059SOL     OW23008   1.882   6.395   3.209
 7059SOL    HW123009   1.796   6.407   3.250
 7059SOL    HW223010   1.865   6.342   3.131
 7060SOL     OW23011   3.857  14.590   6.986
 7060SOL    HW123012   3.894  14.667   6.943
 7060SOL    HW223013   3.884  14.517   6.930
 7061SOL     OW23014   2.262   3.163   7.411
 7061SOL    HW123015   2.308   3.087   7.375
 7061SOL    HW223016   2.170   3.147   7.387
 7062SOL     OW23017   5.578   5.356  11.430
 7062SOL    HW123018   5.510   5.306  11.387
 7062SOL    HW223019   5.531   5.424  11.479
 7063SOL     OW23020   9.059   6.587   1.684
 7063SOL    HW123021   9.154   6.586   1.688
 7063SOL    HW223022   9.032   6.504   1.722
 7064SOL     OW23023   8.758  13.487   4.041
 7064SOL    HW123024   8.845  13.469   4.076
 7064SOL    HW223025   8.763  13.460   3.949
 7065SOL     OW23026   5.639   1.128   5.143
 7065SOL    HW123027   5.617   1.183   5.218
 7065SOL    HW223028   5.570   1.145   5.080
 7066SOL     OW23029  10.957   3.061   2.818
 7066SOL    HW123030  10.918   2.981   2.783
 7066SOL    HW223031  10.896   3.130   2.793
 7067SOL     OW23032   3.744   8.998   4.072
 7067SOL    HW123033   3.796   9.069   4.111
 7067SOL    HW223034   3.659   9.005   4.115
 7068SOL     OW23035   7.245  12.027  10.746
 7068SOL    HW123036   7.185  11.974  10.693
 7068SOL    HW223037   7.208  12.024  10.834
 7069SOL     OW23038  11.607   8.371   1.086
 7069SOL    HW123039  11.550   8.382   1.010
 7069SOL    HW223040  11.675   8.311   1.056
 7070SOL     OW23041  12.971  14.511   7.681
 7070SOL    HW123042  13.028  14.437   7.702
 7070SOL    HW223043  12.891  14.494   7.730
 7071SOL     OW23044   8.146   5.700  13.746
 7071SOL    HW123045   8.236   5.675  13.767
 7071SOL    HW223046   8.145   5.795  13.754
 7072SOL     OW23047   4.904   3.455   3.081
 7072SOL    HW123048   4.923   3.544   3.110
 7072SOL    HW223049   4.833   3.425   3.137
 7073SOL     OW23050   3.223   9.997   9.232
 7073SOL    HW123051   3.270  10.066   9.279
 7073SOL    HW223052   3.286   9.961   9.170
 7074SOL     OW23053   4.756   5.100  12.680
 7074SOL    HW123054   4.794   5.180  12.641
 7074SOL    HW223055   4.666   5.099  12.649
 7075SOL     OW23056   9.723  14.693   8.932
 7075SOL    HW123057   9.722  14.641   9.013
 7075SOL    HW223058   9.715  14.629   8.862
 7076SOL     OW23059   0.869  11.140  12.695
 7076SOL    HW123060   0.936  11.187  12.645
 7076SOL    HW223061   0.818  11.094  12.628
 7077SOL     OW23062   1.830  12.405  14.181
 7077SOL    HW123063   1.763  12.353  14.138
 7077SOL    HW223064   1.911  12.386  14.132
 7078SOL     OW23065   1.191   8.419   2.409
 7078SOL    HW123066   1.262   8.409   2.345
 7078SOL    HW223067   1.217   8.493   2.463
 7079SOL     OW23068   1.881   3.581   5.132
 7079SOL    HW123069   1.945   3.523   5.092
 7079SOL    HW223070   1.800   3.565   5.083
 7080SOL     OW23071  11.100  13.179   8.497
 7080SOL    HW123072  11.024  13.149   8.547
 7080SOL    HW223073  11.097  13.274   8.502
 7081SOL     OW23074   7.230  13.605  11.948
 7081SOL    HW123075   7.217  13.553  12.027
 7081SOL    HW223076   7.269  13.544  11.885
 7082SOL     OW23077  12.842   2.071   5.959
 7082SOL    HW123078  12.888   2.075   5.876
 7082SOL    HW223079  12.881   1.997   6.005
 7083SOL     OW23080  12.617   3.738   0.346
 7083SOL    HW123081  12.657   3.667   0.296
 7083SOL    HW223082  12.530   3.748   0.308
 7084SOL     OW23083   1.941   0.102   5.544
 7084SOL    HW123084   1.979   0.170   5.600
 7084SOL    HW223085   1.848   0.125   5.539
 7085SOL     OW23086   2.437   4.590   6.389
 7085SOL    HW123087   2.498   4.639   6.334
 7085SOL    HW223088   2.438   4.501   6.352
 7086SOL     OW23089   3.545  10.738  11.294
 7086SOL    HW123090   3.589  10.659  11.326
 7086SOL    HW223091   3.524  10.788  11.372
 7087SOL     OW23092   3.282   8.945  10.489
 7087SOL    HW123093   3.187   8.956  10.476
 7087SOL    HW223094   3.290   8.859  10.531
 7088SOL     OW23095  11.846   3.339  11.427
 7088SOL    HW123096  11.888   3.285  11.359
 7088SOL    HW223097  11.769   3.377  11.383
 7089SOL     OW23098  11.203  12.583   7.410
 7089SOL    HW123099  11.154  12.542   7.340
 7089SOL    HW223100  11.279  12.622   7.367
 7090SOL     OW23101  12.142   9.247   9.227
 7090SOL    HW123102  12.217   9.294   9.190
 7090SOL    HW223103  12.112   9.302   9.299
 7091SOL     OW23104  13.068   5.251   3.134
 7091SOL    HW123105  13.149   5.213   3.170
 7091SOL    HW223106  13.058   5.334   3.179
 7092SOL     OW23107   8.126   3.966  12.281
 7092SOL    HW123108   8.128   4.051  12.237
 7092SOL    HW223109   8.170   3.906  12.220
 7093SOL     OW23110   0.626   2.607   8.819
 7093SOL    HW123111   0.673   2.524   8.828
 7093SOL    HW223112   0.606   2.634   8.908
 7094SOL     OW23113  11.483   6.208   9.177
 7094SOL    HW123114  11.441   6.147   9.117
 7094SOL    HW223115  11.516   6.278   9.121
 7095SOL     OW23116   2.463   0.059   1.628
 7095SOL    HW123117   2.492   0.005   1.554
 7095SOL    HW223118   2.389   0.110   1.593
 7096SOL     OW23119  10.213   7.848  11.547
 7096SOL    HW123120  10.243   7.757  11.548
 7096SOL    HW223121  10.248   7.884  11.466
 7097SOL     OW23122   2.457  12.193   0.239
 7097SOL    HW123123   2.483  12.197   0.147
 7097SOL    HW223124   2.515  12.128   0.279
 7098SOL     OW23125  13.536   3.853   2.949
 7098SOL    HW123126  13.626   3.852   2.981
 7098SOL    HW223127  13.482   3.847   3.028
 7099SOL     OW23128   5.090   8.656   2.936
 7099SOL    HW123129   5.135   8.573   2.949
 7099SOL    HW223130   5.021   8.657   3.002
 7100SOL     OW23131   7.256   1.786   1.067
 7100SOL    HW123132   7.328   1.782   1.003
 7100SOL    HW223133   7.177   1.782   1.014
 7101SOL     OW23134  11.075   8.320  13.423
 7101SOL    HW123135  10.991   8.357  13.395
 7101SOL    HW223136  11.095   8.368  13.504
 7102SOL     OW23137   1.392  11.988   8.071
 7102SOL    HW123138   1.487  11.983   8.063
 7102SOL    HW223139   1.359  11.944   7.992
 7103SOL     OW23140   2.338   4.459   0.251
 7103SOL    HW123141   2.433   4.451   0.248
 7103SOL    HW223142   2.319   4.544   0.211
 7104SOL     OW23143   1.086   5.052   1.614
 7104SOL    HW123144   1.177   5.040   1.589
 7104SOL    HW223145   1.081   5.142   1.647
 7105SOL     OW23146  13.651  14.539  11.140
 7105SOL    HW123147  13.709  14.578  11.074
 7105SOL    HW223148  13.651  14.446  11.118
 7106SOL     OW23149   3.387   7.540  14.527
 7106SOL    HW123150   3.437   7.568  14.450
 7106SOL    HW223151   3.453   7.503  14.586
 7107SOL     OW23152  10.344  12.829   5.754
 7107SOL    HW123153  10.274  12.790   5.807
 7107SOL    HW223154  10.368  12.909   5.801
 7108SOL     OW23155   0.023   0.913   4.537
 7108SOL    HW123156   0.034   0.828   4.495
 7108SOL    HW223157   0.107   0.957   4.525
 7109SOL     OW23158  12.950   9.080   9.641
 7109SOL    HW123159  13.014   9.048   9.578
 7109SOL    HW223160  12.928   9.004   9.694
 7110SOL     OW23161   6.026   8.836  13.139
 7110SOL    HW123162   6.100   8.777  13.121
 7110SOL    HW223163   6.064   8.923  13.133
 7111SOL     OW23164   1.980   8.044   6.575
 7111SOL    HW123165   1.910   7.979   6.569
 7111SOL    HW223166   2.033   8.016   6.650
 7112SOL     OW23167   6.431   9.156  11.858
 7112SOL    HW123168   6.470   9.197  11.781
 7112SOL    HW223169   6.422   9.228  11.921
 7113SOL     OW23170   8.808   8.304  12.468
 7113SOL    HW123171   8.732   8.322  12.523
 7113SOL    HW223172   8.875   8.365  12.498
 7114SOL     OW23173   1.293   8.096   2.077
 7114SOL    HW123174   1.361   8.161   2.094
 7114SOL    HW223175   1.249   8.086   2.161
 7115SOL     OW23176   4.649   2.358   1.023
 7115SOL    HW123177   4.569   2.316   1.055
 7115SOL    HW223178   4.707   2.361   1.098
 7116SOL     OW23179   8.839  10.884   3.055
 7116SOL    HW123180   8.767  10.852   3.001
 7116SOL    HW223181   8.912  10.826   3.035
 7117SOL     OW23182  13.695   9.914   0.940
 7117SOL    HW123183  13.641   9.925   0.861
 7117SOL    HW223184  13.634   9.880   1.005
 7118SOL     OW23185   2.214   5.196   5.362
 7118SOL    HW123186   2.131   5.148   5.368
 7118SOL    HW223187   2.224   5.215   5.269
 7119SOL     OW23188   7.287   6.170   7.933
 7119SOL    HW123189   7.307   6.242   7.873
 7119SOL    HW223190   7.348   6.100   7.907
 7120SOL     OW23191   4.312   9.460   8.045
 7120SOL    HW123192   4.321   9.431   7.954
 7120SOL    HW223193   4.217   9.469   8.057
 7121SOL     OW23194   8.009  10.231   8.739
 7121SOL    HW123195   7.938  10.287   8.770
 7121SOL    HW223196   7.994  10.222   8.645
 7122SOL     OW23197   3.864  10.476   9.143
 7122SOL    HW123198   3.816  10.558   9.134
 7122SOL    HW223199   3.795  10.409   9.152
 7123SOL     OW23200   0.844  11.545   9.888
 7123SOL    HW123201   0.822  11.576   9.800
 7123SOL    HW223202   0.797  11.604   9.946
 7124SOL     OW23203   3.181   8.303   3.010
 7124SOL    HW123204   3.203   8.396   3.007
 7124SOL    HW223205   3.095   8.299   3.051
 7125SOL     OW23206  14.801   3.812   2.311
 7125SOL    HW123207  14.751   3.892   2.327
 7125SOL    HW223208  14.835   3.822   2.222
 7126SOL     OW23209  13.133  14.525   2.192
 7126SOL    HW123210  13.052  14.569   2.216
 7126SOL    HW223211  13.139  14.536   2.097
 7127SOL     OW23212   6.427   8.292   1.515
 7127SOL    HW123213   6.429   8.224   1.581
 7127SOL    HW223214   6.337   8.325   1.517
 7128SOL     OW23215  14.796   5.195   1.213
 7128SOL    HW123216  14.715   5.165   1.253
 7128SOL    HW223217  14.864   5.177   1.279
 7129SOL     OW23218   0.319   2.950   7.289
 7129SOL    HW123219   0.398   3.003   7.292
 7129SOL    HW223220   0.251   3.010   7.259
 7130SOL     OW23221   3.968   7.186   7.290
 7130SOL    HW123222   4.062   7.204   7.285
 7130SOL    HW223223   3.938   7.188   7.199
 7131SOL     OW23224   5.615  12.733  13.068
 7131SOL    HW123225   5.701  12.770  13.047
 7131SOL    HW223226   5.553  12.804  13.050
 7132SOL     OW23227   6.057  12.173   1.982
 7132SOL    HW123228   6.137  12.132   2.012
 7132SOL    HW223229   6.067  12.179   1.887
 7133SOL     OW23230  14.088   2.326  12.581
 7133SOL    HW123231  14.086   2.361  12.492
 7133SOL    HW223232  14.107   2.402  12.636
 7134SOL     OW23233   4.385   9.712  10.333
 7134SOL    HW123234   4.446   9.761  10.279
 7134SOL    HW223235   4.426   9.709  10.420
 7135SOL     OW23236   5.502   2.388   8.331
 7135SOL    HW123237   5.478   2.475   8.362
 7135SOL    HW223238   5.594   2.396   8.305
 7136SOL     OW23239  12.981   0.032  11.731
 7136SOL    HW123240  12.971  14.861  11.652
 7136SOL    HW223241  12.896   0.074  11.744
 7137SOL     OW23242  11.217   4.847   5.110
 7137SOL    HW123243  11.273   4.782   5.067
 7137SOL    HW223244  11.199   4.809   5.196
 7138SOL     OW23245   9.862   2.782   1.204
 7138SOL    HW123246   9.821   2.816   1.125
 7138SOL    HW223247   9.847   2.687   1.199
 7139SOL     OW23248   0.225   8.314   9.892
 7139SOL    HW123249   0.187   8.284   9.809
 7139SOL    HW223250   0.266   8.235   9.929
 7140SOL     OW23251  12.532  13.148   4.154
 7140SOL    HW123252  12.442  13.124   4.131
 7140SOL    HW223253  12.526  13.235   4.191
 7141SOL     OW23254   5.220  14.748   3.049
 7141SOL    HW123255   5.127  14.767   3.059
 7141SOL    HW223256   5.222  14.662   3.007
 7142SOL     OW23257   1.384  13.540   7.574
 7142SOL    HW123258   1.378  13.629   7.541
 7142SOL    HW223259   1.294  13.515   7.594
 7143SOL     OW23260   6.893   8.389   7.125
 7143SOL    HW123261   6.848   8.308   7.100
 7143SOL    HW223262   6.957   8.403   7.056
 7144SOL     OW23263   1.586   5.318  10.916
 7144SOL    HW123264   1.527   5.387  10.885
 7144SOL    HW223265   1.551   5.292  11.001
 7145SOL     OW23266   9.760  13.929  14.145
 7145SOL    HW123267   9.716  13.986  14.208
 7145SOL    HW223268   9.750  13.841  14.181
 7146SOL     OW23269   3.950  12.791  14.254
 7146SOL    HW123270   3.906  12.817  14.173
 7146SOL    HW223271   3.884  12.804  14.322
 7147SOL     OW23272   3.539   5.166  11.490
 7147SOL    HW123273   3.470   5.130  11.546
 7147SOL    HW223274   3.588   5.089  11.460
 7148SOL     OW23275   6.402   4.764   7.315
 7148SOL    HW123276   6.479   4.723   7.355
 7148SOL    HW223277   6.399   4.727   7.227
 7149SOL     OW23278   2.193   1.909   9.803
 7149SOL    HW123279   2.114   1.950   9.839
 7149SOL    HW223280   2.162   1.833   9.755
 7150SOL     OW23281   5.962   6.971  10.426
 7150SOL    HW123282   5.876   6.929  10.422
 7150SOL    HW223283   5.943   7.062  10.450
 7151SOL     OW23284   0.533   9.170  14.006
 7151SOL    HW123285   0.616   9.217  14.007
 7151SOL    HW223286   0.544   9.102  13.939
 7152SOL     OW23287   8.193   5.712   5.368
 7152SOL    HW123288   8.197   5.633   5.313
 7152SOL    HW223289   8.284   5.734   5.385
 7153SOL     OW23290  12.983   1.468   5.002
 7153SOL    HW123291  12.975   1.560   4.979
 7153SOL    HW223292  13.066   1.462   5.050
 7154SOL     OW23293   3.843   4.324   5.904
 7154SOL    HW123294   3.826   4.230   5.903
 7154SOL    HW223295   3.879   4.341   5.991
 7155SOL     OW23296   0.516   9.851   7.484
 7155SOL    HW123297   0.576   9.788   7.443
 7155SOL    HW223298   0.440   9.799   7.509
 7156SOL     OW23299  10.176   2.141   7.167
 7156SOL    HW123300  10.129   2.171   7.090
 7156SOL    HW223301  10.109   2.100   7.223
 7157SOL     OW23302  13.754   0.091   9.943
 7157SOL    HW123303  13.797   0.035   9.878
 7157SOL    HW223304  13.674   0.044   9.966
 7158SOL     OW23305  12.493   2.249   6.840
 7158SOL    HW123306  12.440   2.214   6.768
 7158SOL    HW223307  12.581   2.214   6.823
 7159SOL     OW23308  14.446  10.628  14.750
 7159SOL    HW123309  14.456  10.567  14.677
 7159SOL    HW223310  14.352  10.627  14.770
 7160SOL     OW23311  14.577   1.542   4.870
 7160SOL    HW123312  14.509   1.501   4.817
 7160SOL    HW223313  14.541   1.545   4.958
 7161SOL     OW23314   0.139  10.877   3.729
 7161SOL    HW123315   0.175  10.869   3.817
 7161SOL    HW223316   0.072  10.945   3.736
 7162SOL     OW23317  11.359   1.900   9.051
 7162SOL    HW123318  11.329   1.875   8.963
 7162SOL    HW223319  11.396   1.820   9.087
 7163SOL     OW23320  10.066   2.305   2.955
 7163SOL    HW123321   9.993   2.259   2.914
 7163SOL    HW223322  10.024   2.368   3.014
 7164SOL     OW23323  11.548   0.182   8.563
 7164SOL    HW123324  11.478   0.235   8.601
 7164SOL    HW223325  11.504   0.128   8.498
 7165SOL     OW23326   6.449   2.863   8.241
 7165SOL    HW123327   6.526   2.919   8.250
 7165SOL    HW223328   6.460   2.820   8.156
 7166SOL     OW23329   1.235   6.720   6.817
 7166SOL    HW123330   1.254   6.690   6.728
 7166SOL    HW223331   1.153   6.676   6.840
 7167SOL     OW23332  10.854   7.295  11.968
 7167SOL    HW123333  10.897   7.255  11.893
 7167SOL    HW223334  10.871   7.235  12.040
 7168SOL     OW23335   4.860   6.143  14.778
 7168SOL    HW123336   4.795   6.081  14.745
 7168SOL    HW223337   4.938   6.127  14.724
 7169SOL     OW23338  11.348  14.180   8.911
 7169SOL    HW123339  11.413  14.143   8.852
 7169SOL    HW223340  11.306  14.249   8.860
 7170SOL     OW23341  13.138   7.256   0.231
 7170SOL    HW123342  13.102   7.272   0.319
 7170SOL    HW223343  13.232   7.267   0.241
 7171SOL     OW23344  14.394   2.660   8.876
 7171SOL    HW123345  14.402   2.739   8.822
 7171SOL    HW223346  14.370   2.693   8.962
 7172SOL     OW23347   1.897  10.889   2.433
 7172SOL    HW123348   1.946  10.886   2.515
 7172SOL    HW223349   1.805  10.895   2.460
 7173SOL     OW23350  11.428   3.056   5.994
 7173SOL    HW123351  11.367   3.033   6.064
 7173SOL    HW223352  11.475   3.132   6.026
 7174SOL     OW23353   6.643   9.191  12.306
 7174SOL    HW123354   6.735   9.168  12.292
 7174SOL    HW223355   6.642   9.286  12.307
 7175SOL     OW23356  13.646  14.738  13.615
 7175SOL    HW123357  13.650  14.725  13.709
 7175SOL    HW223358  13.735  14.717  13.584
 7176SOL     OW23359   8.711  13.720  10.293
 7176SOL    HW123360   8.797  13.758  10.276
 7176SOL    HW223361   8.650  13.779  10.249
 7177SOL     OW23362  14.581   6.743   3.381
 7177SOL    HW123363  14.663   6.693   3.389
 7177SOL    HW223364  14.585   6.807   3.452
 7178SOL     OW23365  13.643  13.342  12.683
 7178SOL    HW123366  13.641  13.249  12.664
 7178SOL    HW223367  13.556  13.361  12.719
 7179SOL     OW23368  13.014   3.377   8.564
 7179SOL    HW123369  13.102   3.388   8.599
 7179SOL    HW223370  12.981   3.298   8.607
 7180SOL     OW23371   9.515   6.670   8.325
 7180SOL    HW123372   9.568   6.591   8.327
 7180SOL    HW223373   9.577   6.741   8.341
 7181SOL     OW23374   2.515   8.886   5.243
 7181SOL    HW123375   2.591   8.878   5.185
 7181SOL    HW223376   2.447   8.835   5.200
 7182SOL     OW23377   0.877  13.122   1.042
 7182SOL    HW123378   0.884  13.028   1.030
 7182SOL    HW223379   0.935  13.141   1.117
 7183SOL     OW23380  12.503  12.767   3.948
 7183SOL    HW123381  12.479  12.828   3.879
 7183SOL    HW223382  12.423  12.756   4.000
 7184SOL     OW23383   2.371   4.049  10.777
 7184SOL    HW123384   2.422   4.130  10.774
 7184SOL    HW223385   2.333   4.048  10.865
 7185SOL     OW23386   0.242   0.649   9.269
 7185SOL    HW123387   0.150   0.622   9.275
 7185SOL    HW223388   0.265   0.676   9.358
 7186SOL     OW23389   7.405   0.128   3.565
 7186SOL    HW123390   7.464   0.126   3.489
 7186SOL    HW223391   7.324   0.088   3.532
 7187SOL     OW23392  11.189  14.871   9.083
 7187SOL    HW123393  11.218   0.074   9.114
 7187SOL    HW223394  11.096   0.002   9.063
 7188SOL     OW23395   4.684   1.728   4.176
 7188SOL    HW123396   4.727   1.739   4.261
 7188SOL    HW223397   4.608   1.674   4.194
 7189SOL     OW23398   7.657  13.848   9.636
 7189SOL    HW123399   7.655  13.943   9.649
 7189SOL    HW223400   7.706  13.815   9.711
 7190SOL     OW23401   0.742  10.805   8.450
 7190SOL    HW123402   0.772  10.896   8.462
 7190SOL    HW223403   0.647  10.810   8.458
 7191SOL     OW23404  13.194   8.401   6.149
 7191SOL    HW123405  13.134   8.332   6.121
 7191SOL    HW223406  13.137   8.465   6.193
 7192SOL     OW23407   5.562   1.141  14.158
 7192SOL    HW123408   5.544   1.085  14.233
 7192SOL    HW223409   5.655   1.162  14.164
 7193SOL     OW23410   4.270  10.578   4.477
 7193SOL    HW123411   4.235  10.511   4.535
 7193SOL    HW223412   4.365  10.571   4.486
 7194SOL     OW23413   0.625   8.351  12.397
 7194SOL    HW123414   0.604   8.316  12.483
 7194SOL    HW223415   0.622   8.276  12.338
 7195SOL     OW23416   5.617   2.222   9.097
 7195SOL    HW123417   5.712   2.219   9.087
 7195SOL    HW223418   5.601   2.177   9.180
 7196SOL     OW23419   3.000  10.155  14.092
 7196SOL    HW123420   3.077  10.158  14.035
 7196SOL    HW223421   2.927  10.140  14.032
 7197SOL     OW23422  10.813   9.005   2.078
 7197SOL    HW123423  10.790   9.060   2.003
 7197SOL    HW223424  10.753   9.033   2.148
 7198SOL     OW23425  11.320  10.320   8.688
 7198SOL    HW123426  11.313  10.244   8.747
 7198SOL    HW223427  11.290  10.394   8.740
 7199SOL     OW23428   8.669  10.414   2.769
 7199SOL    HW123429   8.655  10.427   2.675
 7199SOL    HW223430   8.586  10.438   2.810
 7200SOL     OW23431   6.483   3.986   4.165
 7200SOL    HW123432   6.523   4.058   4.215
 7200SOL    HW223433   6.552   3.959   4.103
 7201SOL     OW23434  10.140  13.942  13.763
 7201SOL    HW123435  10.224  13.898  13.754
 7201SOL    HW223436  10.100  13.935  13.676
 7202SOL     OW23437   9.631   1.108   2.316
 7202SOL    HW123438   9.721   1.138   2.305
 7202SOL    HW223439   9.639   1.020   2.353
 7203SOL     OW23440   8.176  14.218  14.123
 7203SOL    HW123441   8.221  14.147  14.078
 7203SOL    HW223442   8.141  14.273  14.053
 7204SOL     OW23443  14.262  10.632  11.014
 7204SOL    HW123444  14.210  10.636  11.095
 7204SOL    HW223445  14.295  10.721  11.002
 7205SOL     OW23446   4.390   2.928   7.402
 7205SOL    HW123447   4.430   3.006   7.441
 7205SOL    HW223448   4.463   2.883   7.360
 7206SOL     OW23449   5.647  13.821   6.532
 7206SOL    HW123450   5.727  13.786   6.494
 7206SOL    HW223451   5.672  13.851   6.620
 7207SOL     OW23452  13.094   8.111   0.596
 7207SOL    HW123453  13.033   8.165   0.647
 7207SOL    HW223454  13.107   8.160   0.515
 7208SOL     OW23455   7.473  11.434  10.837
 7208SOL    HW123456   7.444  11.366  10.775
 7208SOL    HW223457   7.473  11.514  10.785
 7209SOL     OW23458   8.074   3.098  12.549
 7209SOL    HW123459   7.981   3.117  12.534
 7209SOL    HW223460   8.094   3.137  12.633
 7210SOL     OW23461  13.645  13.433   6.246
 7210SOL    HW123462  13.713  13.498   6.265
 7210SOL    HW223463  13.608  13.461   6.162
 7211SOL     OW23464   9.787   9.571  11.687
 7211SOL    HW123465   9.757   9.551  11.776
 7211SOL    HW223466   9.713   9.617  11.648
 7212SOL     OW23467   4.104   4.777   8.646
 7212SOL    HW123468   4.150   4.699   8.615
 7212SOL    HW223469   4.131   4.846   8.585
 7213SOL     OW23470   0.554   0.483  14.859
 7213SOL    HW123471   0.577   0.458  14.770
 7213SOL    HW223472   0.458   0.478  14.861
 7214SOL     OW23473   9.010   4.093   0.398
 7214SOL    HW123474   9.022   4.008   0.440
 7214SOL    HW223475   9.038   4.079   0.308
 7215SOL     OW23476   9.190   2.272   7.060
 7215SOL    HW123477   9.138   2.224   6.997
 7215SOL    HW223478   9.192   2.362   7.026
 7216SOL     OW23479  13.962   8.383   2.238
 7216SOL    HW123480  14.012   8.442   2.295
 7216SOL    HW223481  13.948   8.434   2.158
 7217SOL     OW23482   1.640  11.211  12.061
 7217SOL    HW123483   1.645  11.173  11.973
 7217SOL    HW223484   1.644  11.305  12.047
 7218SOL     OW23485   8.053  14.031   5.680
 7218SOL    HW123486   8.115  14.075   5.737
 7218SOL    HW223487   8.082  14.053   5.591
 7219SOL     OW23488  11.951   6.759   3.913
 7219SOL    HW123489  11.982   6.735   3.826
 7219SOL    HW223490  11.880   6.696   3.931
 7220SOL     OW23491   6.788  11.748   2.987
 7220SOL    HW123492   6.709  11.703   2.957
 7220SOL    HW223493   6.781  11.835   2.949
 7221SOL     OW23494   3.692   0.208   9.366
 7221SOL    HW123495   3.786   0.226   9.362
 7221SOL    HW223496   3.679   0.171   9.453
 7222SOL     OW23497   0.280   2.413  13.753
 7222SOL    HW123498   0.367   2.373  13.747
 7222SOL    HW223499   0.292   2.490  13.808
 7223SOL     OW23500   4.012   1.016   8.120
 7223SOL    HW123501   4.051   0.995   8.205
 7223SOL    HW223502   3.948   1.084   8.139
 7224SOL     OW23503  12.464  12.463  14.753
 7224SOL    HW123504  12.511  12.381  14.737
 7224SOL    HW223505  12.499  12.495  14.836
 7225SOL     OW23506   4.246  12.983  11.418
 7225SOL    HW123507   4.342  12.988  11.413
 7225SOL    HW223508   4.227  12.889  11.413
 7226SOL     OW23509  13.863  11.840  10.468
 7226SOL    HW123510  13.906  11.902  10.408
 7226SOL    HW223511  13.929  11.822  10.535
 7227SOL     OW23512  12.367  12.641   4.881
 7227SOL    HW123513  12.335  12.572   4.939
 7227SOL    HW223514  12.395  12.711   4.940
 7228SOL     OW23515  10.204  11.451   1.332
 7228SOL    HW123516  10.299  11.457   1.342
 7228SOL    HW223517  10.186  11.357   1.328
 7229SOL     OW23518  10.753   3.540   1.146
 7229SOL    HW123519  10.827   3.561   1.088
 7229SOL    HW223520  10.749   3.445   1.147
 7230SOL     OW23521  11.282   8.703   5.385
 7230SOL    HW123522  11.289   8.633   5.320
 7230SOL    HW223523  11.211   8.676   5.443
 7231SOL     OW23524   7.256   0.872   2.899
 7231SOL    HW123525   7.231   0.924   2.976
 7231SOL    HW223526   7.351   0.860   2.908
 7232SOL     OW23527  10.630   9.334   1.429
 7232SOL    HW123528  10.691   9.278   1.478
 7232SOL    HW223529  10.550   9.335   1.482
 7233SOL     OW23530   9.560   9.692   7.047
 7233SOL    HW123531   9.594   9.781   7.051
 7233SOL    HW223532   9.638   9.636   7.043
 7234SOL     OW23533   4.291  10.979   8.294
 7234SOL    HW123534   4.217  10.940   8.247
 7234SOL    HW223535   4.340  11.025   8.226
 7235SOL     OW23536  13.230  11.907  14.155
 7235SOL    HW123537  13.225  11.903  14.060
 7235SOL    HW223538  13.153  11.858  14.185
 7236SOL     OW23539   3.475   8.847   0.146
 7236SOL    HW123540   3.506   8.830   0.235
 7236SOL    HW223541   3.459   8.760   0.109
 7237SOL     OW23542   2.836   9.650   8.008
 7237SOL    HW123543   2.873   9.667   8.095
 7237SOL    HW223544   2.838   9.555   8.000
 7238SOL     OW23545   5.120   9.143   0.416
 7238SOL    HW123546   5.138   9.148   0.322
 7238SOL    HW223547   5.202   9.172   0.458
 7239SOL     OW23548   0.431  14.205  11.724
 7239SOL    HW123549   0.519  14.195  11.688
 7239SOL    HW223550   0.374  14.204  11.647
 7240SOL     OW23551   3.673  10.630   2.702
 7240SOL    HW123552   3.710  10.546   2.729
 7240SOL    HW223553   3.591  10.637   2.751
 7241SOL     OW23554   2.789  11.734   1.728
 7241SOL    HW123555   2.839  11.809   1.761
 7241SOL    HW223556   2.748  11.766   1.647
 7242SOL     OW23557  14.412  14.158   2.135
 7242SOL    HW123558  14.481  14.097   2.109
 7242SOL    HW223559  14.438  14.188   2.222
 7243SOL     OW23560  14.821  10.472  14.631
 7243SOL    HW123561  14.804  10.557  14.589
 7243SOL    HW223562  14.766  10.410  14.582
 7244SOL     OW23563   8.497   6.392   0.558
 7244SOL    HW123564   8.575   6.447   0.564
 7244SOL    HW223565   8.429   6.451   0.526
 7245SOL     OW23566   8.499  10.081  10.638
 7245SOL    HW123567   8.441  10.151  10.609
 7245SOL    HW223568   8.578  10.092  10.585
 7246SOL     OW23569   4.811   4.940   9.323
 7246SOL    HW123570   4.774   4.877   9.385
 7246SOL    HW223571   4.854   5.006   9.378
 7247SOL     OW23572  14.672   1.225   3.884
 7247SOL    HW123573  14.749   1.178   3.915
 7247SOL    HW223574  14.678   1.220   3.789
 7248SOL     OW23575  11.912   4.940   1.558
 7248SOL    HW123576  11.991   4.965   1.510
 7248SOL    HW223577  11.939   4.868   1.614
 7249SOL     OW23578   1.388  12.746  14.076
 7249SOL    HW123579   1.367  12.727  14.167
 7249SOL    HW223580   1.406  12.660  14.037
 7250SOL     OW23581   4.701  13.269  14.143
 7250SOL    HW123582   4.642  13.196  14.125
 7250SOL    HW223583   4.678  13.297  14.232
 7251SOL     OW23584   8.683  14.662   4.948
 7251SOL    HW123585   8.755  14.629   5.002
 7251SOL    HW223586   8.724  14.726   4.889
 7252SOL     OW23587   7.042   7.122  12.743
 7252SOL    HW123588   7.045   7.148  12.835
 7252SOL    HW223589   6.968   7.061  12.738
 7253SOL     OW23590   3.616   7.774   7.637
 7253SOL    HW123591   3.631   7.690   7.593
 7253SOL    HW223592   3.660   7.838   7.581
 7254SOL     OW23593   7.938   3.891  13.438
 7254SOL    HW123594   7.996   3.845  13.377
 7254SOL    HW223595   7.852   3.887  13.397
 7255SOL     OW23596   9.502  14.307  13.481
 7255SOL    HW123597   9.431  14.361  13.447
 7255SOL    HW223598   9.489  14.222  13.439
 7256SOL     OW23599   0.029   0.869   6.499
 7256SOL    HW123600   0.017   0.774   6.508
 7256SOL    HW223601   0.121   0.884   6.519
 7257SOL     OW23602   5.236   8.484  13.367
 7257SOL    HW123603   5.279   8.569  13.376
 7257SOL    HW223604   5.308   8.423  13.353
 7258SOL     OW23605   8.597  13.721  11.858
 7258SOL    HW123606   8.670  13.666  11.828
 7258SOL    HW223607   8.519  13.674  11.830
 7259SOL     OW23608  11.453   1.365   2.752
 7259SOL    HW123609  11.521   1.331   2.694
 7259SOL    HW223610  11.483   1.452   2.776
 7260SOL     OW23611  14.611   6.882   0.728
 7260SOL    HW123612  14.637   6.946   0.795
 7260SOL    HW223613  14.657   6.910   0.649
 7261SOL     OW23614   9.699   6.985   8.580
 7261SOL    HW123615   9.681   7.077   8.564
 7261SOL    HW223616   9.680   6.973   8.673
 7262SOL     OW23617   2.024   6.589   9.696
 7262SOL    HW123618   2.062   6.606   9.783
 7262SOL    HW223619   2.057   6.502   9.672
 7263SOL     OW23620  12.817   1.447   9.886
 7263SOL    HW123621  12.874   1.384   9.840
 7263SOL    HW223622  12.738   1.397   9.905
 7264SOL     OW23623  12.955   6.854  13.264
 7264SOL    HW123624  12.862   6.876  13.253
 7264SOL    HW223625  12.963   6.830  13.356
 7265SOL     OW23626  14.284   9.229   8.269
 7265SOL    HW123627  14.260   9.158   8.330
 7265SOL    HW223628  14.223   9.300   8.290
 7266SOL     OW23629   9.677   9.518   6.092
 7266SOL    HW123630   9.647   9.522   6.001
 7266SOL    HW223631   9.767   9.486   6.086
 7267SOL     OW23632   2.135   7.387   1.242
 7267SOL    HW123633   2.120   7.467   1.292
 7267SOL    HW223634   2.127   7.317   1.307
 7268SOL     OW23635   6.506   8.269  10.480
 7268SOL    HW123636   6.463   8.325  10.544
 7268SOL    HW223637   6.589   8.245  10.520
 7269SOL     OW23638   2.754   9.829  12.213
 7269SOL    HW123639   2.820   9.778  12.166
 7269SOL    HW223640   2.684   9.767  12.231
 7270SOL     OW23641   9.570   0.503   6.130
 7270SOL    HW123642   9.589   0.413   6.156
 7270SOL    HW223643   9.474   0.506   6.126
 7271SOL     OW23644   2.030   8.369  13.382
 7271SOL    HW123645   2.062   8.377  13.472
 7271SOL    HW223646   2.110   8.373  13.329
 7272SOL     OW23647   5.302  12.014   8.394
 7272SOL    HW123648   5.287  12.093   8.343
 7272SOL    HW223649   5.370  12.038   8.457
 7273SOL     OW23650  11.377   2.461   7.122
 7273SOL    HW123651  11.392   2.371   7.096
 7273SOL    HW223652  11.372   2.510   7.040
 7274SOL     OW23653  12.920   9.226   9.295
 7274SOL    HW123654  12.824   9.229   9.299
 7274SOL    HW223655  12.942   9.133   9.290
 7275SOL     OW23656  10.626  11.274   1.953
 7275SOL    HW123657  10.675  11.238   1.879
 7275SOL    HW223658  10.694  11.300   2.016
 7276SOL     OW23659  14.730   2.518  14.126
 7276SOL    HW123660  14.709   2.441  14.180
 7276SOL    HW223661  14.714   2.489  14.036
 7277SOL     OW23662   7.095   2.042  12.599
 7277SOL    HW123663   7.070   1.990  12.675
 7277SOL    HW223664   7.090   2.133  12.630
 7278SOL     OW23665   1.224   0.603  10.434
 7278SOL    HW123666   1.291   0.609  10.366
 7278SOL    HW223667   1.253   0.663  10.503
 7279SOL     OW23668  12.423  13.893  14.344
 7279SOL    HW123669  12.359  13.861  14.408
 7279SOL    HW223670  12.420  13.830  14.273
 7280SOL     OW23671   9.923   1.203  13.998
 7280SOL    HW123672   9.941   1.234  13.909
 7280SOL    HW223673   9.860   1.132  13.986
 7281SOL     OW23674   4.787   4.696  10.347
 7281SOL    HW123675   4.874   4.663  10.366
 7281SOL    HW223676   4.729   4.620  10.355
 7282SOL     OW23677  12.038   4.109   2.652
 7282SOL    HW123678  12.047   4.062   2.735
 7282SOL    HW223679  12.124   4.147   2.635
 7283SOL     OW23680   4.088   9.321   1.195
 7283SOL    HW123681   4.164   9.263   1.193
 7283SOL    HW223682   4.109   9.387   1.260
 7284SOL     OW23683  13.635   0.175   7.063
 7284SOL    HW123684  13.542   0.160   7.050
 7284SOL    HW223685  13.663   0.223   6.985
 7285SOL     OW23686  13.853  12.297   4.126
 7285SOL    HW123687  13.925  12.359   4.120
 7285SOL    HW223688  13.893  12.214   4.153
 7286SOL     OW23689  13.039   0.418   9.982
 7286SOL    HW123690  13.008   0.338   9.941
 7286SOL    HW223691  12.985   0.426  10.061
 7287SOL     OW23692  13.266   3.401  13.927
 7287SOL    HW123693  13.236   3.462  13.995
 7287SOL    HW223694  13.204   3.413  13.856
 7288SOL     OW23695   5.486  12.026   9.752
 7288SOL    HW123696   5.499  12.039   9.658
 7288SOL    HW223697   5.486  12.115   9.789
 7289SOL     OW23698   4.369   9.389  10.729
 7289SOL    HW123699   4.350   9.301  10.759
 7289SOL    HW223700   4.352   9.445  10.805
 7290SOL     OW23701   3.420  10.487  12.127
 7290SOL    HW123702   3.492  10.495  12.189
 7290SOL    HW223703   3.341  10.494  12.180
 7291SOL     OW23704  12.575   8.035   5.491
 7291SOL    HW123705  12.538   7.954   5.525
 7291SOL    HW223706  12.503   8.076   5.442
 7292SOL     OW23707   7.861   8.628  10.886
 7292SOL    HW123708   7.871   8.567  10.959
 7292SOL    HW223709   7.845   8.713  10.928
 7293SOL     OW23710   6.469  10.268  11.574
 7293SOL    HW123711   6.493  10.237  11.661
 7293SOL    HW223712   6.374  10.262  11.571
 7294SOL     OW23713  11.836  14.775   7.588
 7294SOL    HW123714  11.786  14.856   7.596
 7294SOL    HW223715  11.780  14.708   7.626
 7295SOL     OW23716   3.016   9.451   8.374
 7295SOL    HW123717   2.935   9.421   8.332
 7295SOL    HW223718   3.006   9.427   8.466
 7296SOL     OW23719   5.441   2.330   3.936
 7296SOL    HW123720   5.488   2.361   3.858
 7296SOL    HW223721   5.349   2.348   3.917
 7297SOL     OW23722   6.722   6.007   9.123
 7297SOL    HW123723   6.633   5.996   9.090
 7297SOL    HW223724   6.712   6.008   9.218
 7298SOL     OW23725   4.161   8.850  14.241
 7298SOL    HW123726   4.071   8.879  14.230
 7298SOL    HW223727   4.165   8.766  14.195
 7299SOL     OW23728   3.471  14.053   3.797
 7299SOL    HW123729   3.468  14.074   3.891
 7299SOL    HW223730   3.473  13.958   3.794
 7300SOL     OW23731  14.695  11.211   6.680
 7300SOL    HW123732  14.603  11.236   6.681
 7300SOL    HW223733  14.742  11.290   6.654
 7301SOL     OW23734   9.104   3.164  13.895
 7301SOL    HW123735   9.053   3.094  13.853
 7301SOL    HW223736   9.082   3.242  13.844
 7302SOL     OW23737   5.041  10.962   6.734
 7302SOL    HW123738   5.041  11.036   6.796
 7302SOL    HW223739   4.963  10.977   6.680
 7303SOL     OW23740   6.460   2.001  14.753
 7303SOL    HW123741   6.410   2.082  14.764
 7303SOL    HW223742   6.497   1.985  14.840
 7304SOL     OW23743   9.477   0.921   9.436
 7304SOL    HW123744   9.520   0.844   9.401
 7304SOL    HW223745   9.442   0.966   9.358
 7305SOL     OW23746   9.999  13.047   1.641
 7305SOL    HW123747   9.945  12.968   1.635
 7305SOL    HW223748  10.025  13.065   1.550
 7306SOL     OW23749   1.223  12.162   9.317
 7306SOL    HW123750   1.257  12.101   9.252
 7306SOL    HW223751   1.134  12.132   9.334
 7307SOL     OW23752   1.551  13.482   9.160
 7307SOL    HW123753   1.629  13.443   9.119
 7307SOL    HW223754   1.567  13.577   9.157
 7308SOL     OW23755   2.937  10.358   0.974
 7308SOL    HW123756   2.886  10.325   0.900
 7308SOL    HW223757   3.001  10.416   0.934
 7309SOL     OW23758   8.799   5.163   1.209
 7309SOL    HW123759   8.841   5.195   1.289
 7309SOL    HW223760   8.710   5.199   1.212
 7310SOL     OW23761  10.809   4.464  10.061
 7310SOL    HW123762  10.887   4.429  10.103
 7310SOL    HW223763  10.811   4.558  10.081
 7311SOL     OW23764   3.394   3.660   8.235
 7311SOL    HW123765   3.401   3.749   8.201
 7311SOL    HW223766   3.309   3.629   8.203
 7312SOL     OW23767   3.725   4.589   7.774
 7312SOL    HW123768   3.765   4.659   7.721
 7312SOL    HW223769   3.783   4.514   7.761
 7313SOL     OW23770   1.424  13.850  12.309
 7313SOL    HW123771   1.339  13.847  12.265
 7313SOL    HW223772   1.470  13.923  12.266
 7314SOL     OW23773  14.128  13.023  11.302
 7314SOL    HW123774  14.035  13.002  11.305
 7314SOL    HW223775  14.170  12.940  11.277
 7315SOL     OW23776   3.212  10.110  12.592
 7315SOL    HW123777   3.243  10.199  12.580
 7315SOL    HW223778   3.265  10.076  12.664
 7316SOL     OW23779   2.963   3.043  11.370
 7316SOL    HW123780   3.010   2.960  11.363
 7316SOL    HW223781   3.031   3.108  11.383
 7317SOL     OW23782   3.079   9.589   2.012
 7317SOL    HW123783   3.033   9.601   1.929
 7317SOL    HW223784   3.019   9.624   2.079
 7318SOL     OW23785  12.649   1.314  13.599
 7318SOL    HW123786  12.743   1.313  13.620
 7318SOL    HW223787  12.609   1.360  13.672
 7319SOL     OW23788  11.416   4.791   0.587
 7319SOL    HW123789  11.373   4.741   0.519
 7319SOL    HW223790  11.398   4.882   0.565
 7320SOL     OW23791   2.646  14.437   5.017
 7320SOL    HW123792   2.712  14.451   4.949
 7320SOL    HW223793   2.694  14.394   5.088
 7321SOL     OW23794   9.494  11.740   2.621
 7321SOL    HW123795   9.500  11.835   2.630
 7321SOL    HW223796   9.507  11.707   2.709
 7322SOL     OW23797   3.470  10.161  11.769
 7322SOL    HW123798   3.488  10.067  11.779
 7322SOL    HW223799   3.459  10.193  11.859
 7323SOL     OW23800   0.546   2.110   4.803
 7323SOL    HW123801   0.476   2.054   4.837
 7323SOL    HW223802   0.529   2.116   4.709
 7324SOL     OW23803   7.980   0.381   1.690
 7324SOL    HW123804   7.962   0.455   1.748
 7324SOL    HW223805   7.956   0.413   1.603
 7325SOL     OW23806   3.619   5.979   9.152
 7325SOL    HW123807   3.699   6.029   9.133
 7325SOL    HW223808   3.548   6.042   9.139
 7326SOL     OW23809   5.091   1.898   4.049
 7326SOL    HW123810   5.160   1.837   4.073
 7326SOL    HW223811   5.028   1.893   4.121
 7327SOL     OW23812  12.380  13.140   5.499
 7327SOL    HW123813  12.365  13.192   5.420
 7327SOL    HW223814  12.294  13.136   5.541
 7328SOL     OW23815   6.720   4.566   0.188
 7328SOL    HW123816   6.625   4.561   0.191
 7328SOL    HW223817   6.739   4.654   0.156
 7329SOL     OW23818  10.943   5.643  11.231
 7329SOL    HW123819  10.872   5.699  11.264
 7329SOL    HW223820  10.942   5.656  11.136
 7330SOL     OW23821   5.851  11.371   5.901
 7330SOL    HW123822   5.904  11.293   5.882
 7330SOL    HW223823   5.867  11.387   5.994
 7331SOL     OW23824   2.201  11.662   0.673
 7331SOL    HW123825   2.180  11.577   0.714
 7331SOL    HW223826   2.248  11.710   0.741
 7332SOL     OW23827   3.771   0.730   0.108
 7332SOL    HW123828   3.798   0.819   0.131
 7332SOL    HW223829   3.821   0.674   0.167
 7333SOL     OW23830  11.783   2.624  13.137
 7333SOL    HW123831  11.825   2.599  13.219
 7333SOL    HW223832  11.691   2.603  13.150
 7334SOL     OW23833   9.375   2.170   6.188
 7334SOL    HW123834   9.285   2.164   6.157
 7334SOL    HW223835   9.370   2.224   6.267
 7335SOL     OW23836   4.560   2.979   1.822
 7335SOL    HW123837   4.545   3.048   1.757
 7335SOL    HW223838   4.571   3.027   1.904
 7336SOL     OW23839   8.219  11.362   5.771
 7336SOL    HW123840   8.126  11.369   5.790
 7336SOL    HW223841   8.259  11.335   5.854
 7337SOL     OW23842   2.676   3.802   1.009
 7337SOL    HW123843   2.706   3.716   0.981
 7337SOL    HW223844   2.582   3.801   0.995
 7338SOL     OW23845   5.936   6.800   4.245
 7338SOL    HW123846   5.920   6.860   4.172
 7338SOL    HW223847   5.910   6.850   4.322
 7339SOL     OW23848   2.849   5.427   7.741
 7339SOL    HW123849   2.920   5.372   7.775
 7339SOL    HW223850   2.857   5.509   7.790
 7340SOL     OW23851   0.538   2.020   5.744
 7340SOL    HW123852   0.555   1.990   5.655
 7340SOL    HW223853   0.620   2.003   5.790
 7341SOL     OW23854   8.431   6.463  11.985
 7341SOL    HW123855   8.511   6.456  11.934
 7341SOL    HW223856   8.460   6.480  12.074
 7342SOL     OW23857  11.329   0.994  13.993
 7342SOL    HW123858  11.321   1.089  13.984
 7342SOL    HW223859  11.331   0.979  14.087
 7343SOL     OW23860   8.731   8.690  13.511
 7343SOL    HW123861   8.793   8.684  13.438
 7343SOL    HW223862   8.765   8.761  13.565
 7344SOL     OW23863   1.969   3.505  10.782
 7344SOL    HW123864   1.899   3.529  10.843
 7344SOL    HW223865   1.991   3.587  10.738
 7345SOL     OW23866   2.349  10.005  13.744
 7345SOL    HW123867   2.294  10.070  13.701
 7345SOL    HW223868   2.426   9.997  13.687
 7346SOL     OW23869  11.601  14.500  12.592
 7346SOL    HW123870  11.625  14.590  12.572
 7346SOL    HW223871  11.608  14.494  12.688
 7347SOL     OW23872   3.177   6.651   0.889
 7347SOL    HW123873   3.088   6.686   0.879
 7347SOL    HW223874   3.191   6.600   0.809
 7348SOL     OW23875   3.920   1.906  10.392
 7348SOL    HW123876   3.926   1.815  10.361
 7348SOL    HW223877   3.883   1.953  10.317
 7349SOL     OW23878   4.139  12.412   6.925
 7349SOL    HW123879   4.050  12.444   6.908
 7349SOL    HW223880   4.135  12.373   7.012
 7350SOL     OW23881  14.730   9.770   6.509
 7350SOL    HW123882  14.639   9.797   6.523
 7350SOL    HW223883  14.735   9.753   6.414
 7351SOL     OW23884   7.841   9.363   3.917
 7351SOL    HW123885   7.855   9.298   3.986
 7351SOL    HW223886   7.757   9.339   3.878
 7352SOL     OW23887   0.560   5.663  10.139
 7352SOL    HW123888   0.598   5.705  10.216
 7352SOL    HW223889   0.574   5.725  10.067
 7353SOL     OW23890  12.656   6.548  14.147
 7353SOL    HW123891  12.608   6.595  14.215
 7353SOL    HW223892  12.589   6.522  14.084
 7354SOL     OW23893   1.950  12.277   8.262
 7354SOL    HW123894   1.960  12.357   8.211
 7354SOL    HW223895   1.911  12.305   8.344
 7355SOL     OW23896   1.089   1.640   2.906
 7355SOL    HW123897   1.092   1.569   2.843
 7355SOL    HW223898   1.109   1.599   2.990
 7356SOL     OW23899  10.492   9.134   0.291
 7356SOL    HW123900  10.398   9.134   0.275
 7356SOL    HW223901  10.508   9.215   0.339
 7357SOL     OW23902   2.741   4.757  11.456
 7357SOL    HW123903   2.803   4.745  11.385
 7357SOL    HW223904   2.782   4.715  11.531
 7358SOL     OW23905   6.172   4.206  12.343
 7358SOL    HW123906   6.217   4.257  12.276
 7358SOL    HW223907   6.096   4.260  12.367
 7359SOL     OW23908   6.476  11.854   3.489
 7359SOL    HW123909   6.526  11.809   3.421
 7359SOL    HW223910   6.542  11.900   3.541
 7360SOL     OW23911  12.412   1.083   5.136
 7360SOL    HW123912  12.454   1.034   5.207
 7360SOL    HW223913  12.467   1.066   5.060
 7361SOL     OW23914  11.053   8.712   9.956
 7361SOL    HW123915  10.963   8.710   9.924
 7361SOL    HW223916  11.100   8.653   9.897
 7362SOL     OW23917  12.395   3.555   0.474
 7362SOL    HW123918  12.480   3.511   0.473
 7362SOL    HW223919  12.381   3.581   0.383
 7363SOL     OW23920   4.705   0.993   8.122
 7363SOL    HW123921   4.656   0.932   8.067
 7363SOL    HW223922   4.774   0.939   8.161
 7364SOL     OW23923   6.337   5.012   4.977
 7364SOL    HW123924   6.265   4.962   4.940
 7364SOL    HW223925   6.299   5.099   4.994
 7365SOL     OW23926   8.512   7.989   3.853
 7365SOL    HW123927   8.485   8.047   3.925
 7365SOL    HW223928   8.445   8.002   3.786
 7366SOL     OW23929   3.180   7.296   6.254
 7366SOL    HW123930   3.172   7.383   6.215
 7366SOL    HW223931   3.240   7.249   6.196
 7367SOL     OW23932   5.511   8.847   7.557
 7367SOL    HW123933   5.454   8.772   7.544
 7367SOL    HW223934   5.539   8.872   7.469
 7368SOL     OW23935   0.790   1.975  10.086
 7368SOL    HW123936   0.750   1.902  10.132
 7368SOL    HW223937   0.844   2.019  10.152
 7369SOL     OW23938   9.276   1.610  13.903
 7369SOL    HW123939   9.220   1.534  13.887
 7369SOL    HW223940   9.289   1.611  13.998
 7370SOL     OW23941   5.413  11.714   7.482
 7370SOL    HW123942   5.448  11.624   7.488
 7370SOL    HW223943   5.468  11.765   7.542
 7371SOL     OW23944   6.761   0.086   6.360
 7371SOL    HW123945   6.778   0.088   6.266
 7371SOL    HW223946   6.828   0.027   6.395
 7372SOL     OW23947  12.841   1.378   6.092
 7372SOL    HW123948  12.887   1.296   6.112
 7372SOL    HW223949  12.769   1.352   6.035
 7373SOL     OW23950   3.458  13.020   3.227
 7373SOL    HW123951   3.456  13.106   3.269
 7373SOL    HW223952   3.429  13.036   3.137
 7374SOL     OW23953  13.404  11.284   9.912
 7374SOL    HW123954  13.397  11.189   9.904
 7374SOL    HW223955  13.369  11.303   9.999
 7375SOL     OW23956  11.465  13.631   4.333
 7375SOL    HW123957  11.470  13.544   4.372
 7375SOL    HW223958  11.541  13.678   4.369
 7376SOL     OW23959   4.627  13.154  13.541
 7376SOL    HW123960   4.617  13.070  13.586
 7376SOL    HW223961   4.670  13.210  13.605
 7377SOL     OW23962   0.767   4.601  11.357
 7377SOL    HW123963   0.734   4.638  11.275
 7377SOL    HW223964   0.856   4.636  11.365
 7378SOL     OW23965  14.872   7.058  12.072
 7378SOL    HW123966   0.050   7.016  12.011
 7378SOL    HW223967  14.816   7.113  12.017
 7379SOL     OW23968   2.399  11.549  10.173
 7379SOL    HW123969   2.459  11.483  10.139
 7379SOL    HW223970   2.319  11.501  10.194
 7380SOL     OW23971   3.160   7.945  10.318
 7380SOL    HW123972   3.200   7.969  10.402
 7380SOL    HW223973   3.069   7.925  10.341
 7381SOL     OW23974   5.916  12.779   1.545
 7381SOL    HW123975   5.868  12.795   1.627
 7381SOL    HW223976   5.883  12.847   1.486
 7382SOL     OW23977   3.325   1.476   0.099
 7382SOL    HW123978   3.419   1.482   0.112
 7382SOL    HW223979   3.289   1.552   0.144
 7383SOL     OW23980   8.238   9.342  14.852
 7383SOL    HW123981   8.250   9.267  14.794
 7383SOL    HW223982   8.313   9.341   0.029
 7384SOL     OW23983  14.838   0.239   2.244
 7384SOL    HW123984  14.747   0.238   2.273
 7384SOL    HW223985  14.840   0.183   2.167
 7385SOL     OW23986   1.355   3.647   7.946
 7385SOL    HW123987   1.306   3.729   7.957
 7385SOL    HW223988   1.419   3.647   8.017
 7386SOL     OW23989   9.335   8.722   5.145
 7386SOL    HW123990   9.284   8.796   5.177
 7386SOL    HW223991   9.287   8.689   5.069
 7387SOL     OW23992  12.387   5.980   9.748
 7387SOL    HW123993  12.396   5.939   9.662
 7387SOL    HW223994  12.311   5.937   9.787
 7388SOL     OW23995   6.161   8.247   4.034
 7388SOL    HW123996   6.177   8.319   3.973
 7388SOL    HW223997   6.105   8.187   3.986
 7389SOL     OW23998  12.415   0.441   8.352
 7389SOL    HW123999  12.369   0.377   8.407
 7389SOL    HW224000  12.384   0.422   8.263
 7390SOL     OW24001  14.466   2.451   5.052
 7390SOL    HW124002  14.381   2.409   5.064
 7390SOL    HW224003  14.523   2.382   5.018
 7391SOL     OW24004   4.189   5.000  12.870
 7391SOL    HW124005   4.118   4.946  12.904
 7391SOL    HW224006   4.269   4.957  12.901
 7392SOL     OW24007   1.332   1.300   9.297
 7392SOL    HW124008   1.380   1.234   9.247
 7392SOL    HW224009   1.271   1.250   9.351
 7393SOL     OW24010  12.747   3.796   5.916
 7393SOL    HW124011  12.811   3.736   5.954
 7393SOL    HW224012  12.785   3.823   5.833
 7394SOL     OW24013   4.471   8.827   6.751
 7394SOL    HW124014   4.488   8.907   6.701
 7394SOL    HW224015   4.508   8.845   6.838
 7395SOL     OW24016   1.276   4.264   5.582
 7395SOL    HW124017   1.354   4.249   5.528
 7395SOL    HW224018   1.262   4.181   5.627
 7396SOL     OW24019   5.021   6.607  10.490
 7396SOL    HW124020   5.020   6.604  10.394
 7396SOL    HW224021   5.023   6.515  10.517
 7397SOL     OW24022   0.494  10.052   0.176
 7397SOL    HW124023   0.525  10.112   0.108
 7397SOL    HW224024   0.446  10.108   0.237
 7398SOL     OW24025   4.306   9.740  13.314
 7398SOL    HW124026   4.335   9.681  13.384
 7398SOL    HW224027   4.211   9.733  13.316
 7399SOL     OW24028   4.121   2.149  12.457
 7399SOL    HW124029   4.150   2.238  12.434
 7399SOL    HW224030   4.098   2.109  12.374
 7400SOL     OW24031   4.232   1.880   4.764
 7400SOL    HW124032   4.163   1.815   4.746
 7400SOL    HW224033   4.216   1.907   4.854
 7401SOL     OW24034   3.598   9.934   0.201
 7401SOL    HW124035   3.545   9.974   0.271
 7401SOL    HW224036   3.672   9.895   0.247
 7402SOL     OW24037   3.536   3.179   6.235
 7402SOL    HW124038   3.517   3.247   6.171
 7402SOL    HW224039   3.519   3.220   6.320
 7403SOL     OW24040  10.280   7.517   9.905
 7403SOL    HW124041  10.307   7.426   9.892
 7403SOL    HW224042  10.279   7.528  10.000
 7404SOL     OW24043   2.614   6.830   5.591
 7404SOL    HW124044   2.660   6.808   5.510
 7404SOL    HW224045   2.540   6.770   5.594
 7405SOL     OW24046   3.055  10.163   6.430
 7405SOL    HW124047   3.012  10.081   6.453
 7405SOL    HW224048   3.091  10.148   6.343
 7406SOL     OW24049  13.383  14.771  13.810
 7406SOL    HW124050  13.458  14.711  13.807
 7406SOL    HW224051  13.327  14.742  13.738
 7407SOL     OW24052  13.065  12.161   1.028
 7407SOL    HW124053  13.033  12.171   0.939
 7407SOL    HW224054  13.151  12.204   1.027
 7408SOL     OW24055  12.027   8.389   5.131
 7408SOL    HW124056  11.960   8.457   5.129
 7408SOL    HW224057  12.102   8.431   5.175
 7409SOL     OW24058   9.436  11.358   2.047
 7409SOL    HW124059   9.473  11.283   2.096
 7409SOL    HW224060   9.508  11.421   2.043
 7410SOL     OW24061   0.369   9.887   5.279
 7410SOL    HW124062   0.372   9.939   5.360
 7410SOL    HW224063   0.277   9.883   5.256
 7411SOL     OW24064  12.354   5.277   0.789
 7411SOL    HW124065  12.318   5.225   0.861
 7411SOL    HW224066  12.370   5.363   0.827
 7412SOL     OW24067   2.114   2.533   7.498
 7412SOL    HW124068   2.120   2.493   7.585
 7412SOL    HW224069   2.021   2.524   7.475
 7413SOL     OW24070   2.391   0.473   8.399
 7413SOL    HW124071   2.411   0.443   8.311
 7413SOL    HW224072   2.324   0.412   8.431
 7414SOL     OW24073   5.008  14.077   6.482
 7414SOL    HW124074   5.013  14.172   6.466
 7414SOL    HW224075   5.065  14.063   6.557
 7415SOL     OW24076   5.187  11.255   8.018
 7415SOL    HW124077   5.182  11.290   8.107
 7415SOL    HW224078   5.184  11.333   7.962
 7416SOL     OW24079   1.281   2.999   4.342
 7416SOL    HW124080   1.292   3.093   4.329
 7416SOL    HW224081   1.216   2.991   4.411
 7417SOL     OW24082  12.192   6.308   0.250
 7417SOL    HW124083  12.274   6.294   0.297
 7417SOL    HW224084  12.128   6.328   0.318
 7418SOL     OW24085  11.810  14.204  14.762
 7418SOL    HW124086  11.757  14.284  14.768
 7418SOL    HW224087  11.870  14.210  14.836
 7419SOL     OW24088   4.133  13.921  11.193
 7419SOL    HW124089   4.086  13.906  11.111
 7419SOL    HW224090   4.144  13.833  11.230
 7420SOL     OW24091   0.274  14.843  14.014
 7420SOL    HW124092   0.247  14.782  13.945
 7420SOL    HW224093   0.315   0.034  13.967
 7421SOL     OW24094   8.010   9.099   1.339
 7421SOL    HW124095   7.952   9.168   1.307
 7421SOL    HW224096   8.057   9.069   1.262
 7422SOL     OW24097   3.863   2.229   7.752
 7422SOL    HW124098   3.853   2.319   7.723
 7422SOL    HW224099   3.951   2.204   7.724
 7423SOL     OW24100   3.934   5.487   9.747
 7423SOL    HW124101   3.990   5.564   9.757
 7423SOL    HW224102   3.875   5.490   9.822
 7424SOL     OW24103   8.332   2.424   5.346
 7424SOL    HW124104   8.375   2.491   5.399
 7424SOL    HW224105   8.385   2.419   5.267
 7425SOL     OW24106   6.232   7.065  11.260
 7425SOL    HW124107   6.256   7.112  11.180
 7425SOL    HW224108   6.163   7.004  11.232
 7426SOL     OW24109  11.749   3.470   8.171
 7426SOL    HW124110  11.842   3.495   8.170
 7426SOL    HW224111  11.724   3.469   8.079
 7427SOL     OW24112  14.681  13.260   6.155
 7427SOL    HW124113  14.726  13.219   6.229
 7427SOL    HW224114  14.590  13.269   6.183
 7428SOL     OW24115   6.420   1.027   8.266
 7428SOL    HW124116   6.328   1.055   8.268
 7428SOL    HW224117   6.420   0.941   8.307
 7429SOL     OW24118  10.928  10.100  14.520
 7429SOL    HW124119  11.023  10.104  14.523
 7429SOL    HW224120  10.906  10.013  14.555
 7430SOL     OW24121  10.213   0.416   0.556
 7430SOL    HW124122  10.184   0.339   0.507
 7430SOL    HW224123  10.175   0.405   0.643
 7431SOL     OW24124   9.687  14.016   9.447
 7431SOL    HW124125   9.662  13.947   9.385
 7431SOL    HW224126   9.776  13.992   9.475
 7432SOL     OW24127  12.559   2.702   9.391
 7432SOL    HW124128  12.480   2.712   9.445
 7432SOL    HW224129  12.540   2.625   9.337
 7433SOL     OW24130   9.138   4.608   3.568
 7433SOL    HW124131   9.134   4.634   3.660
 7433SOL    HW224132   9.217   4.650   3.534
 7434SOL     OW24133   1.443   0.585   6.724
 7434SOL    HW124134   1.385   0.537   6.783
 7434SOL    HW224135   1.437   0.676   6.753
 7435SOL     OW24136   9.020   1.943  11.645
 7435SOL    HW124137   9.094   1.893  11.680
 7435SOL    HW224138   9.059   1.997  11.576
 7436SOL     OW24139  13.779   9.346  14.130
 7436SOL    HW124140  13.759   9.438  14.114
 7436SOL    HW224141  13.744   9.300  14.054
 7437SOL     OW24142  11.131   8.293   2.560
 7437SOL    HW124143  11.090   8.254   2.483
 7437SOL    HW224144  11.214   8.328   2.528
 7438SOL     OW24145  10.170   0.143  12.148
 7438SOL    HW124146  10.242   0.192  12.187
 7438SOL    HW224147  10.204   0.113  12.064
 7439SOL     OW24148   6.568   9.355   6.647
 7439SOL    HW124149   6.519   9.287   6.694
 7439SOL    HW224150   6.541   9.437   6.690
 7440SOL     OW24151  11.604  14.133   6.921
 7440SOL    HW124152  11.626  14.095   6.836
 7440SOL    HW224153  11.578  14.059   6.975
 7441SOL     OW24154   1.634   1.115  14.712
 7441SOL    HW124155   1.644   1.136  14.619
 7441SOL    HW224156   1.539   1.119  14.727
 7442SOL     OW24157   2.421   2.206   3.331
 7442SOL    HW124158   2.452   2.289   3.367
 7442SOL    HW224159   2.470   2.139   3.380
 7443SOL     OW24160  10.021   1.555  13.089
 7443SOL    HW124161  10.106   1.598  13.091
 7443SOL    HW224162   9.965   1.610  13.145
 7444SOL     OW24163   2.642  11.085   0.332
 7444SOL    HW124164   2.602  11.168   0.307
 7444SOL    HW224165   2.735  11.095   0.309
 7445SOL     OW24166  10.950   3.166   8.626
 7445SOL    HW124167  11.027   3.207   8.585
 7445SOL    HW224168  10.980   3.141   8.713
 7446SOL     OW24169   4.151  11.918  10.831
 7446SOL    HW124170   4.157  11.854  10.902
 7446SOL    HW224171   4.203  11.993  10.860
 7447SOL     OW24172  13.897  11.242   0.801
 7447SOL    HW124173  13.913  11.148   0.796
 7447SOL    HW224174  13.939  11.269   0.882
 7448SOL     OW24175   4.246   2.800   3.140
 7448SOL    HW124176   4.273   2.708   3.146
 7448SOL    HW224177   4.175   2.808   3.205
 7449SOL     OW24178  12.049   8.470   7.288
 7449SOL    HW124179  12.027   8.378   7.271
 7449SOL    HW224180  12.142   8.478   7.267
 7450SOL     OW24181   7.047   1.334  10.060
 7450SOL    HW124182   7.005   1.327   9.975
 7450SOL    HW224183   7.135   1.299  10.046
 7451SOL     OW24184  11.277   1.105  11.831
 7451SOL    HW124185  11.365   1.142  11.839
 7451SOL    HW224186  11.226   1.172  11.786
 7452SOL     OW24187   6.741   0.895   4.038
 7452SOL    HW124188   6.662   0.949   4.040
 7452SOL    HW224189   6.813   0.958   4.041
 7453SOL     OW24190  13.838   3.807   3.938
 7453SOL    HW124191  13.754   3.819   3.893
 7453SOL    HW224192  13.898   3.868   3.895
 7454SOL     OW24193   6.153   9.513   8.577
 7454SOL    HW124194   6.144   9.601   8.540
 7454SOL    HW224195   6.245   9.506   8.602
 7455SOL     OW24196   4.677   1.235   6.326
 7455SOL    HW124197   4.705   1.276   6.408
 7455SOL    HW224198   4.635   1.305   6.277
 7456SOL     OW24199  10.672   5.255   0.156
 7456SOL    HW124200  10.710   5.340   0.132
 7456SOL    HW224201  10.578   5.267   0.143
 7457SOL     OW24202   2.656   7.241   8.397
 7457SOL    HW124203   2.663   7.151   8.366
 7457SOL    HW224204   2.598   7.236   8.473
 7458SOL     OW24205  13.600   4.569  11.452
 7458SOL    HW124206  13.692   4.547  11.436
 7458SOL    HW224207  13.586   4.650  11.403
 7459SOL     OW24208   2.635  13.799   4.547
 7459SOL    HW124209   2.550  13.779   4.585
 7459SOL    HW224210   2.615  13.840   4.463
 7460SOL     OW24211   3.529  13.110   4.590
 7460SOL    HW124212   3.623  13.098   4.601
 7460SOL    HW224213   3.510  13.193   4.633
 7461SOL     OW24214   9.581   8.065   8.198
 7461SOL    HW124215   9.530   8.074   8.118
 7461SOL    HW224216   9.523   8.098   8.267
 7462SOL     OW24217  11.527   4.630  13.702
 7462SOL    HW124218  11.453   4.627  13.641
 7462SOL    HW224219  11.493   4.677  13.778
 7463SOL     OW24220   9.885   8.296   0.373
 7463SOL    HW124221   9.927   8.376   0.402
 7463SOL    HW224222   9.805   8.326   0.328
 7464SOL     OW24223  13.592  11.916   1.799
 7464SOL    HW124224  13.556  11.970   1.869
 7464SOL    HW224225  13.575  11.966   1.719
 7465SOL     OW24226  11.650  11.314   2.160
 7465SOL    HW124227  11.725  11.368   2.187
 7465SOL    HW224228  11.574  11.357   2.200
 7466SOL     OW24229   0.301   4.721   2.670
 7466SOL    HW124230   0.396   4.723   2.671
 7466SOL    HW224231   0.279   4.662   2.598
 7467SOL     OW24232   3.730   9.531   0.290
 7467SOL    HW124233   3.665   9.517   0.222
 7467SOL    HW224234   3.692   9.493   0.369
 7468SOL     OW24235   4.172   6.073   0.690
 7468SOL    HW124236   4.231   6.149   0.690
 7468SOL    HW224237   4.215   6.009   0.748
 7469SOL     OW24238  12.409  13.039   9.573
 7469SOL    HW124239  12.356  12.999   9.642
 7469SOL    HW224240  12.368  13.011   9.492
 7470SOL     OW24241  13.497   4.201  12.702
 7470SOL    HW124242  13.557   4.273  12.725
 7470SOL    HW224243  13.410   4.239  12.711
 7471SOL     OW24244   1.231   9.525  14.179
 7471SOL    HW124245   1.251   9.500  14.089
 7471SOL    HW224246   1.198   9.615  14.171
 7472SOL     OW24247  14.847   1.234   4.940
 7472SOL    HW124248  14.826   1.239   4.847
 7472SOL    HW224249  14.780   1.288   4.982
 7473SOL     OW24250   4.020   6.080   2.038
 7473SOL    HW124251   4.098   6.113   1.992
 7473SOL    HW224252   3.947   6.130   2.001
 7474SOL     OW24253   9.767  10.339  13.301
 7474SOL    HW124254   9.738  10.405  13.364
 7474SOL    HW224255   9.862  10.352  13.295
 7475SOL     OW24256  11.322   5.558   1.394
 7475SOL    HW124257  11.355   5.647   1.383
 7475SOL    HW224258  11.279   5.559   1.479
 7476SOL     OW24259  10.087   0.637  10.337
 7476SOL    HW124260  10.028   0.586  10.391
 7476SOL    HW224261  10.057   0.727  10.347
 7477SOL     OW24262   0.442  14.097  10.369
 7477SOL    HW124263   0.497  14.027  10.334
 7477SOL    HW224264   0.504  14.159  10.408
 7478SOL     OW24265  10.945   7.551   0.273
 7478SOL    HW124266  10.872   7.591   0.226
 7478SOL    HW224267  11.017   7.551   0.210
 7479SOL     OW24268   0.217   7.444  12.219
 7479SOL    HW124269   0.248   7.466  12.306
 7479SOL    HW224270   0.261   7.506  12.161
 7480SOL     OW24271   3.445  13.838  11.747
 7480SOL    HW124272   3.519  13.795  11.706
 7480SOL    HW224273   3.439  13.923  11.704
 7481SOL     OW24274  10.544   8.576   7.830
 7481SOL    HW124275  10.532   8.582   7.735
 7481SOL    HW224276  10.587   8.658   7.854
 7482SOL     OW24277   2.043  10.403   8.689
 7482SOL    HW124278   2.091  10.379   8.769
 7482SOL    HW224279   1.998  10.322   8.663
 7483SOL     OW24280  13.764   2.144   8.011
 7483SOL    HW124281  13.728   2.056   8.028
 7483SOL    HW224282  13.827   2.158   8.081
 7484SOL     OW24283   7.640   1.633   3.446
 7484SOL    HW124284   7.730   1.658   3.469
 7484SOL    HW224285   7.587   1.708   3.474
 7485SOL     OW24286   6.196   9.780  11.238
 7485SOL    HW124287   6.146   9.699  11.251
 7485SOL    HW224288   6.152   9.845  11.292
 7486SOL     OW24289   1.534   0.442  14.027
 7486SOL    HW124290   1.538   0.485  14.113
 7486SOL    HW224291   1.462   0.380  14.036
 7487SOL     OW24292  13.366  13.394  13.332
 7487SOL    HW124293  13.391  13.302  13.326
 7487SOL    HW224294  13.434  13.435  13.384
 7488SOL     OW24295  10.033   3.353  12.421
 7488SOL    HW124296  10.109   3.402  12.389
 7488SOL    HW224297   9.959   3.412  12.406
 7489SOL     OW24298   9.850   1.095  14.488
 7489SOL    HW124299   9.870   1.001  14.486
 7489SOL    HW224300   9.869   1.125  14.399
 7490SOL     OW24301   4.966   2.584  12.355
 7490SOL    HW124302   4.970   2.605  12.262
 7490SOL    HW224303   5.054   2.550  12.376
 7491SOL     OW24304   0.159   3.141  10.590
 7491SOL    HW124305   0.076   3.188  10.583
 7491SOL    HW224306   0.220   3.190  10.536
 7492SOL     OW24307   2.492   1.801   3.596
 7492SOL    HW124308   2.468   1.891   3.575
 7492SOL    HW224309   2.570   1.809   3.651
 7493SOL     OW24310   2.104   0.777   6.807
 7493SOL    HW124311   2.103   0.861   6.853
 7493SOL    HW224312   2.044   0.790   6.734
 7494SOL     OW24313   4.101   9.778   3.794
 7494SOL    HW124314   4.075   9.869   3.782
 7494SOL    HW224315   4.019   9.728   3.785
 7495SOL     OW24316  10.040   8.414   5.448
 7495SOL    HW124317  10.085   8.475   5.508
 7495SOL    HW224318   9.986   8.470   5.393
 7496SOL     OW24319   1.129  14.489  11.322
 7496SOL    HW124320   1.101  14.520  11.409
 7496SOL    HW224321   1.125  14.394  11.328
 7497SOL     OW24322   6.494  14.511  14.422
 7497SOL    HW124323   6.483  14.580  14.488
 7497SOL    HW224324   6.515  14.432  14.472
 7498SOL     OW24325   8.245   4.635   2.881
 7498SOL    HW124326   8.320   4.577   2.868
 7498SOL    HW224327   8.199   4.633   2.796
 7499SOL     OW24328   7.155  12.927  14.605
 7499SOL    HW124329   7.241  12.889  14.588
 7499SOL    HW224330   7.172  13.003  14.661
 7500SOL     OW24331  11.975  14.746  12.296
 7500SOL    HW124332  11.926  14.697  12.230
 7500SOL    HW224333  12.040  14.795  12.245
 7501SOL     OW24334   3.210   5.947   6.693
 7501SOL    HW124335   3.149   5.905   6.754
 7501SOL    HW224336   3.270   5.877   6.668
 7502SOL     OW24337   8.560   7.674   9.249
 7502SOL    HW124338   8.586   7.760   9.282
 7502SOL    HW224339   8.544   7.622   9.327
 7503SOL     OW24340  13.487   8.035   4.907
 7503SOL    HW124341  13.518   8.101   4.969
 7503SOL    HW224342  13.549   7.963   4.917
 7504SOL     OW24343   2.107   1.024  10.270
 7504SOL    HW124344   2.031   1.075  10.243
 7504SOL    HW224345   2.078   0.933  10.268
 7505SOL     OW24346   4.832   3.877  11.408
 7505SOL    HW124347   4.878   3.910  11.330
 7505SOL    HW224348   4.900   3.835  11.460
 7506SOL     OW24349  11.517   6.690   2.600
 7506SOL    HW124350  11.532   6.701   2.694
 7506SOL    HW224351  11.446   6.751   2.580
 7507SOL     OW24352  14.103   4.283   2.197
 7507SOL    HW124353  14.133   4.245   2.279
 7507SOL    HW224354  14.133   4.374   2.201
 7508SOL     OW24355   3.882   6.617   0.700
 7508SOL    HW124356   3.825   6.576   0.635
 7508SOL    HW224357   3.866   6.568   0.780
 7509SOL     OW24358  12.173  14.811   7.255
 7509SOL    HW124359  12.196  14.722   7.227
 7509SOL    HW224360  12.126  14.849   7.182
 7510SOL     OW24361   7.724   0.010  11.196
 7510SOL    HW124362   7.806   0.010  11.244
 7510SOL    HW224363   7.749   0.011  11.103
 7511SOL     OW24364  12.434  11.702  12.083
 7511SOL    HW124365  12.512  11.652  12.104
 7511SOL    HW224366  12.466  11.785  12.048
 7512SOL     OW24367  11.849  11.605   7.463
 7512SOL    HW124368  11.859  11.510   7.451
 7512SOL    HW224369  11.937  11.640   7.452
 7513SOL     OW24370  14.663   0.811   2.093
 7513SOL    HW124371  14.587   0.828   2.149
 7513SOL    HW224372  14.628   0.760   2.020
 7514SOL     OW24373   8.096  12.607  12.413
 7514SOL    HW124374   8.034  12.593  12.486
 7514SOL    HW224375   8.050  12.575  12.336
 7515SOL     OW24376   7.790   4.236   1.628
 7515SOL    HW124377   7.721   4.284   1.674
 7515SOL    HW224378   7.793   4.275   1.541
 7516SOL     OW24379   3.388  14.350   2.953
 7516SOL    HW124380   3.447  14.322   2.882
 7516SOL    HW224381   3.397  14.445   2.955
 7517SOL     OW24382   1.200  11.187   1.463
 7517SOL    HW124383   1.138  11.144   1.522
 7517SOL    HW224384   1.146  11.213   1.387
 7518SOL     OW24385   0.195   2.309   2.371
 7518SOL    HW124386   0.178   2.396   2.405
 7518SOL    HW224387   0.135   2.252   2.418
 7519SOL     OW24388   2.842   9.221   0.717
 7519SOL    HW124389   2.764   9.251   0.672
 7519SOL    HW224390   2.909   9.285   0.694
 7520SOL     OW24391   4.387   5.236   0.128
 7520SOL    HW124392   4.341   5.186   0.196
 7520SOL    HW224393   4.337   5.317   0.120
 7521SOL     OW24394   7.921   4.368   2.122
 7521SOL    HW124395   7.979   4.358   2.197
 7521SOL    HW224396   7.853   4.302   2.135
 7522SOL     OW24397  13.770   0.830   3.743
 7522SOL    HW124398  13.786   0.849   3.835
 7522SOL    HW224399  13.676   0.844   3.731
 7523SOL     OW24400   2.641   9.516  14.781
 7523SOL    HW124401   2.699   9.537  14.854
 7523SOL    HW224402   2.591   9.597  14.767
 7524SOL     OW24403   8.304   7.846   4.696
 7524SOL    HW124404   8.233   7.906   4.720
 7524SOL    HW224405   8.302   7.844   4.601
 7525SOL     OW24406   8.578   2.586   9.041
 7525SOL    HW124407   8.506   2.536   9.080
 7525SOL    HW224408   8.543   2.673   9.026
 7526SOL     OW24409   3.236  10.648  10.073
 7526SOL    HW124410   3.217  10.718  10.135
 7526SOL    HW224411   3.177  10.665   9.999
 7527SOL     OW24412   7.856  13.138  10.117
 7527SOL    HW124413   7.943  13.174  10.103
 7527SOL    HW224414   7.816  13.137  10.030
 7528SOL     OW24415   9.811   1.243   5.862
 7528SOL    HW124416   9.716   1.253   5.855
 7528SOL    HW224417   9.829   1.256   5.955
 7529SOL     OW24418   9.146  12.121   1.404
 7529SOL    HW124419   9.092  12.191   1.442
 7529SOL    HW224420   9.171  12.154   1.318
 7530SOL     OW24421  10.138   0.678   6.642
 7530SOL    HW124422  10.124   0.706   6.733
 7530SOL    HW224423  10.200   0.605   6.649
 7531SOL     OW24424   6.863   9.374  13.044
 7531SOL    HW124425   6.954   9.351  13.063
 7531SOL    HW224426   6.814   9.347  13.122
 7532SOL     OW24427   1.473   6.727   4.681
 7532SOL    HW124428   1.474   6.631   4.675
 7532SOL    HW224429   1.563   6.752   4.658
 7533SOL     OW24430  11.242  10.229   1.283
 7533SOL    HW124431  11.314  10.241   1.220
 7533SOL    HW224432  11.251  10.302   1.344
 7534SOL     OW24433  10.612   7.289   0.114
 7534SOL    HW124434  10.582   7.200   0.096
 7534SOL    HW224435  10.554   7.345   0.061
 7535SOL     OW24436   8.393   4.438   6.282
 7535SOL    HW124437   8.413   4.417   6.373
 7535SOL    HW224438   8.360   4.527   6.284
 7536SOL     OW24439   4.577   2.742   4.881
 7536SOL    HW124440   4.630   2.670   4.913
 7536SOL    HW224441   4.612   2.820   4.925
 7537SOL     OW24442  13.181  11.618  13.029
 7537SOL    HW124443  13.125  11.687  12.993
 7537SOL    HW224444  13.143  11.537  12.997
 7538SOL     OW24445  12.063   3.777  13.380
 7538SOL    HW124446  12.012   3.745  13.307
 7538SOL    HW224447  11.998   3.800  13.447
 7539SOL     OW24448   5.249   7.868   3.161
 7539SOL    HW124449   5.211   7.793   3.115
 7539SOL    HW224450   5.182   7.893   3.225
 7540SOL     OW24451   5.842   5.616   6.513
 7540SOL    HW124452   5.896   5.551   6.559
 7540SOL    HW224453   5.905   5.680   6.479
 7541SOL     OW24454   1.662   0.401  13.201
 7541SOL    HW124455   1.734   0.381  13.261
 7541SOL    HW224456   1.685   0.356  13.120
 7542SOL     OW24457  11.989   7.669   7.510
 7542SOL    HW124458  11.896   7.684   7.494
 7542SOL    HW224459  11.994   7.578   7.537
 7543SOL     OW24460   9.859   0.462  10.381
 7543SOL    HW124461   9.868   0.387  10.321
 7543SOL    HW224462   9.833   0.535  10.325
 7544SOL     OW24463   3.252  10.377   2.336
 7544SOL    HW124464   3.287  10.343   2.418
 7544SOL    HW224465   3.316  10.351   2.270
 7545SOL     OW24466   9.462  10.836   0.693
 7545SOL    HW124467   9.366  10.839   0.686
 7545SOL    HW224468   9.492  10.896   0.625
 7546SOL     OW24469  13.978   7.677  13.544
 7546SOL    HW124470  13.895   7.662  13.498
 7546SOL    HW224471  13.958   7.656  13.636
 7547SOL     OW24472   0.860   9.957   2.326
 7547SOL    HW124473   0.892  10.033   2.276
 7547SOL    HW224474   0.914   9.884   2.295
 7548SOL     OW24475   3.016   2.372   6.606
 7548SOL    HW124476   2.941   2.313   6.611
 7548SOL    HW224477   2.991   2.447   6.660
 7549SOL     OW24478  11.318  13.324   1.126
 7549SOL    HW124479  11.369  13.306   1.047
 7549SOL    HW224480  11.350  13.409   1.156
 7550SOL     OW24481   2.128   2.385  11.177
 7550SOL    HW124482   2.068   2.311  11.175
 7550SOL    HW224483   2.076   2.457  11.211
 7551SOL     OW24484  11.711   9.806  10.509
 7551SOL    HW124485  11.650   9.861  10.558
 7551SOL    HW224486  11.798   9.836  10.536
 7552SOL     OW24487   9.698   0.756   2.771
 7552SOL    HW124488   9.778   0.801   2.744
 7552SOL    HW224489   9.630   0.824   2.770
 7553SOL     OW24490  12.289   9.651   8.576
 7553SOL    HW124491  12.240   9.598   8.639
 7553SOL    HW224492  12.229   9.662   8.503
 7554SOL     OW24493   7.755   3.077  12.456
 7554SOL    HW124494   7.768   3.034  12.372
 7554SOL    HW224495   7.660   3.089  12.462
 7555SOL     OW24496   4.443  14.075   8.705
 7555SOL    HW124497   4.384  14.002   8.689
 7555SOL    HW224498   4.499  14.045   8.777
 7556SOL     OW24499  11.448   8.593  14.142
 7556SOL    HW124500  11.474   8.632  14.225
 7556SOL    HW224501  11.377   8.649  14.110
 7557SOL     OW24502   6.468   5.411  10.017
 7557SOL    HW124503   6.500   5.490  10.060
 7557SOL    HW224504   6.429   5.443   9.935
 7558SOL     OW24505   8.355  10.791   3.335
 7558SOL    HW124506   8.310  10.712   3.365
 7558SOL    HW224507   8.324  10.804   3.246
 7559SOL     OW24508   0.223   3.665   5.116
 7559SOL    HW124509   0.267   3.612   5.182
 7559SOL    HW224510   0.135   3.626   5.109
 7560SOL     OW24511  10.185   5.569  13.408
 7560SOL    HW124512  10.117   5.591  13.344
 7560SOL    HW224513  10.209   5.653  13.446
 7561SOL     OW24514   7.513   7.437  13.632
 7561SOL    HW124515   7.452   7.477  13.694
 7561SOL    HW224516   7.529   7.506  13.567
 7562SOL     OW24517  12.487  12.060   1.929
 7562SOL    HW124518  12.439  11.979   1.912
 7562SOL    HW224519  12.502  12.098   1.843
 7563SOL     OW24520   0.886   4.488   4.462
 7563SOL    HW124521   0.849   4.422   4.404
 7563SOL    HW224522   0.895   4.444   4.547
 7564SOL     OW24523  12.337  13.995   6.881
 7564SOL    HW124524  12.280  13.974   6.955
 7564SOL    HW224525  12.283  14.048   6.823
 7565SOL     OW24526   8.419  14.162   9.756
 7565SOL    HW124527   8.396  14.110   9.680
 7565SOL    HW224528   8.470  14.103   9.811
 7566SOL     OW24529   6.412   4.415   3.974
 7566SOL    HW124530   6.396   4.440   3.883
 7566SOL    HW224531   6.439   4.496   4.017
 7567SOL     OW24532   2.587  11.008   1.710
 7567SOL    HW124533   2.660  11.064   1.736
 7567SOL    HW224534   2.611  10.976   1.623
 7568SOL     OW24535   7.469   6.537  11.303
 7568SOL    HW124536   7.466   6.442  11.294
 7568SOL    HW224537   7.482   6.552  11.396
 7569SOL     OW24538   0.649   7.098   9.661
 7569SOL    HW124539   0.640   7.186   9.623
 7569SOL    HW224540   0.655   7.040   9.585
 7570SOL     OW24541  12.647  11.558   6.815
 7570SOL    HW124542  12.559  11.538   6.845
 7570SOL    HW224543  12.644  11.650   6.791
 7571SOL     OW24544  11.398   3.306   4.971
 7571SOL    HW124545  11.432   3.387   5.009
 7571SOL    HW224546  11.425   3.238   5.032
 7572SOL     OW24547   4.333  13.619   9.259
 7572SOL    HW124548   4.275  13.582   9.192
 7572SOL    HW224549   4.421  13.592   9.233
 7573SOL     OW24550   8.902   1.649   0.410
 7573SOL    HW124551   8.922   1.611   0.324
 7573SOL    HW224552   8.987   1.661   0.452
 7574SOL     OW24553   6.644   7.402   0.976
 7574SOL    HW124554   6.660   7.447   1.059
 7574SOL    HW224555   6.717   7.340   0.968
 7575SOL     OW24556   0.557  14.765  13.776
 7575SOL    HW124557   0.611  14.822  13.831
 7575SOL    HW224558   0.616  14.735  13.707
 7576SOL     OW24559   0.695  10.414   4.852
 7576SOL    HW124560   0.759  10.369   4.796
 7576SOL    HW224561   0.620  10.431   4.795
 7577SOL     OW24562   6.266  14.207   0.250
 7577SOL    HW124563   6.259  14.241   0.161
 7577SOL    HW224564   6.341  14.254   0.287
 7578SOL     OW24565   9.476   9.584  14.520
 7578SOL    HW124566   9.430   9.554  14.442
 7578SOL    HW224567   9.545   9.519  14.534
 7579SOL     OW24568  14.705   9.933   8.125
 7579SOL    HW124569  14.623   9.978   8.106
 7579SOL    HW224570  14.683   9.840   8.130
 7580SOL     OW24571  14.003   1.825   8.094
 7580SOL    HW124572  13.953   1.834   8.175
 7580SOL    HW224573  13.944   1.859   8.026
 7581SOL     OW24574   8.614  11.681   1.967
 7581SOL    HW124575   8.644  11.591   1.956
 7581SOL    HW224576   8.557  11.697   1.891
 7582SOL     OW24577   5.253   2.799   3.181
 7582SOL    HW124578   5.207   2.881   3.196
 7582SOL    HW224579   5.188   2.731   3.202
 7583SOL     OW24580   6.982   5.121  13.594
 7583SOL    HW124581   6.930   5.083  13.523
 7583SOL    HW224582   7.071   5.121  13.561
 7584SOL     OW24583   5.150   7.318   1.158
 7584SOL    HW124584   5.058   7.337   1.143
 7584SOL    HW224585   5.189   7.403   1.179
 7585SOL     OW24586   4.712   5.618   7.560
 7585SOL    HW124587   4.764   5.543   7.529
 7585SOL    HW224588   4.736   5.628   7.652
 7586SOL     OW24589   2.177   7.297  10.608
 7586SOL    HW124590   2.138   7.266  10.526
 7586SOL    HW224591   2.222   7.220  10.644
 7587SOL     OW24592   7.952   3.053   6.157
 7587SOL    HW124593   7.865   3.014   6.166
 7587SOL    HW224594   7.949   3.132   6.212
 7588SOL     OW24595   7.382  11.308   4.118
 7588SOL    HW124596   7.328  11.357   4.056
 7588SOL    HW224597   7.403  11.226   4.073
 7589SOL     OW24598   1.799   1.432  10.826
 7589SOL    HW124599   1.711   1.435  10.865
 7589SOL    HW224600   1.792   1.487  10.748
 7590SOL     OW24601  14.078  10.695   1.849
 7590SOL    HW124602  14.157  10.744   1.872
 7590SOL    HW224603  14.092  10.669   1.758
 7591SOL     OW24604   2.673   3.012  12.156
 7591SOL    HW124605   2.668   3.106  12.171
 7591SOL    HW224606   2.663   2.974  12.243
 7592SOL     OW24607  11.966   9.145  13.113
 7592SOL    HW124608  12.020   9.091  13.056
 7592SOL    HW224609  12.028   9.202  13.159
 7593SOL     OW24610   2.038  11.417  14.643
 7593SOL    HW124611   2.030  11.329  14.681
 7593SOL    HW224612   2.119  11.414  14.592
 7594SOL     OW24613   9.010   4.868   3.348
 7594SOL    HW124614   9.080   4.863   3.283
 7594SOL    HW224615   8.933   4.897   3.298
 7595SOL     OW24616   3.200  10.412   7.617
 7595SOL    HW124617   3.182  10.326   7.655
 7595SOL    HW224618   3.150  10.473   7.670
 7596SOL     OW24619   0.433   0.694   6.990
 7596SOL    HW124620   0.497   0.653   7.048
 7596SOL    HW224621   0.349   0.658   7.018
 7597SOL     OW24622   3.725   1.428   1.326
 7597SOL    HW124623   3.810   1.436   1.282
 7597SOL    HW224624   3.746   1.407   1.417
 7598SOL     OW24625  11.879  10.458   4.364
 7598SOL    HW124626  11.808  10.452   4.428
 7598SOL    HW224627  11.953  10.494   4.414
 7599SOL     OW24628   3.513   6.190  10.719
 7599SOL    HW124629   3.593   6.137  10.720
 7599SOL    HW224630   3.520   6.244  10.798
 7600SOL     OW24631   0.546   4.387  13.617
 7600SOL    HW124632   0.451   4.375  13.622
 7600SOL    HW224633   0.582   4.312  13.664
 7601SOL     OW24634   7.760   0.585  11.129
 7601SOL    HW124635   7.690   0.565  11.067
 7601SOL    HW224636   7.806   0.503  11.142
 7602SOL     OW24637   2.923   0.988   1.377
 7602SOL    HW124638   2.876   0.995   1.459
 7602SOL    HW224639   2.872   0.925   1.325
 7603SOL     OW24640   2.816   6.078   0.339
 7603SOL    HW124641   2.859   6.141   0.281
 7603SOL    HW224642   2.724   6.105   0.338
 7604SOL     OW24643   5.267   7.068   0.176
 7604SOL    HW124644   5.325   6.992   0.182
 7604SOL    HW224645   5.315   7.131   0.123
 7605SOL     OW24646   9.865   3.542   4.530
 7605SOL    HW124647   9.822   3.470   4.484
 7605SOL    HW224648   9.806   3.617   4.517
 7606SOL     OW24649   7.632   8.819   6.770
 7606SOL    HW124650   7.658   8.730   6.791
 7606SOL    HW224651   7.709   8.857   6.727
 7607SOL     OW24652   9.912  13.813  14.457
 7607SOL    HW124653   9.990  13.852  14.497
 7607SOL    HW224654   9.945  13.733  14.415
 7608SOL     OW24655   9.560  13.169   7.885
 7608SOL    HW124656   9.623  13.123   7.940
 7608SOL    HW224657   9.478  13.165   7.934
 7609SOL     OW24658   5.251   4.369   1.171
 7609SOL    HW124659   5.307   4.344   1.098
 7609SOL    HW224660   5.226   4.285   1.211
 7610SOL     OW24661   1.352  14.461   9.322
 7610SOL    HW124662   1.377  14.551   9.343
 7610SOL    HW224663   1.354  14.458   9.226
 7611SOL     OW24664   8.718   8.922  12.018
 7611SOL    HW124665   8.776   8.863  12.068
 7611SOL    HW224666   8.634   8.916  12.063
 7612SOL     OW24667  11.047   9.320   9.196
 7612SOL    HW124668  11.061   9.327   9.290
 7612SOL    HW224669  11.080   9.402   9.160
 7613SOL     OW24670   9.313   2.834   9.298
 7613SOL    HW124671   9.224   2.800   9.288
 7613SOL    HW224672   9.364   2.786   9.234
 7614SOL     OW24673   5.734   9.132   4.379
 7614SOL    HW124674   5.655   9.079   4.369
 7614SOL    HW224675   5.705   9.222   4.362
 7615SOL     OW24676   9.746  10.286   1.006
 7615SOL    HW124677   9.756  10.255   0.916
 7615SOL    HW224678   9.690  10.219   1.048
 7616SOL     OW24679  10.952   6.398   1.175
 7616SOL    HW124680  10.955   6.461   1.102
 7616SOL    HW224681  10.869   6.353   1.164
 7617SOL     OW24682  11.481   7.201  13.665
 7617SOL    HW124683  11.413   7.259  13.700
 7617SOL    HW224684  11.545   7.193  13.737
 7618SOL     OW24685   4.512   0.053  11.171
 7618SOL    HW124686   4.504   0.086  11.082
 7618SOL    HW224687   4.479  14.845  11.167
 7619SOL     OW24688   3.693  13.894  13.230
 7619SOL    HW124689   3.625  13.911  13.295
 7619SOL    HW224690   3.677  13.804  13.202
 7620SOL     OW24691  14.662  12.156  13.027
 7620SOL    HW124692  14.590  12.096  13.047
 7620SOL    HW224693  14.620  12.230  12.983
 7621SOL     OW24694   2.207  14.606   0.183
 7621SOL    HW124695   2.232  14.610   0.275
 7621SOL    HW224696   2.289  14.615   0.135
 7622SOL     OW24697  12.540  12.096   5.835
 7622SOL    HW124698  12.584  12.124   5.755
 7622SOL    HW224699  12.492  12.018   5.810
 7623SOL     OW24700   1.091  12.485   1.510
 7623SOL    HW124701   1.182  12.456   1.502
 7623SOL    HW224702   1.081  12.510   1.602
 7624SOL     OW24703  10.150   8.316  13.821
 7624SOL    HW124704  10.217   8.306  13.889
 7624SOL    HW224705  10.094   8.387  13.853
 7625SOL     OW24706   8.583  13.286  14.778
 7625SOL    HW124707   8.555  13.374  14.801
 7625SOL    HW224708   8.666  13.274  14.824
 7626SOL     OW24709  14.814   2.845   1.404
 7626SOL    HW124710  14.798   2.931   1.364
 7626SOL    HW224711   0.002   2.861   1.467
 7627SOL     OW24712   8.564  10.985  12.361
 7627SOL    HW124713   8.578  10.891  12.348
 7627SOL    HW224714   8.622  11.008  12.433
 7628SOL     OW24715   7.917   8.652  13.028
 7628SOL    HW124716   8.006   8.615  13.034
 7628SOL    HW224717   7.885   8.652  13.118
 7629SOL     OW24718   8.416   5.671  12.031
 7629SOL    HW124719   8.391   5.578  12.028
 7629SOL    HW224720   8.474   5.682  11.956
 7630SOL     OW24721  10.539   5.973   4.975
 7630SOL    HW124722  10.486   6.053   4.973
 7630SOL    HW224723  10.527   5.939   5.064
 7631SOL     OW24724   6.679   3.614   7.508
 7631SOL    HW124725   6.605   3.590   7.451
 7631SOL    HW224726   6.640   3.626   7.594
 7632SOL     OW24727   4.225   2.825  10.003
 7632SOL    HW124728   4.138   2.791   9.979
 7632SOL    HW224729   4.283   2.796   9.933
 7633SOL     OW24730   2.787  10.479   9.650
 7633SOL    HW124731   2.774  10.385   9.638
 7633SOL    HW224732   2.849  10.504   9.581
 7634SOL     OW24733   8.615   8.053   1.444
 7634SOL    HW124734   8.653   8.082   1.526
 7634SOL    HW224735   8.627   8.127   1.384
 7635SOL     OW24736  13.968   2.004  14.066
 7635SOL    HW124737  13.891   1.950  14.049
 7635SOL    HW224738  14.043   1.949  14.041
 7636SOL     OW24739   2.595   1.155   4.551
 7636SOL    HW124740   2.555   1.115   4.628
 7636SOL    HW224741   2.658   1.217   4.586
 7637SOL     OW24742   9.369  10.904   0.116
 7637SOL    HW124743   9.448  10.872   0.072
 7637SOL    HW224744   9.332  10.967   0.054
 7638SOL     OW24745   3.122  13.057  10.219
 7638SOL    HW124746   3.147  13.129  10.277
 7638SOL    HW224747   3.173  12.982  10.250
 7639SOL     OW24748   4.582   3.040  10.762
 7639SOL    HW124749   4.610   2.979  10.694
 7639SOL    HW224750   4.659   3.096  10.776
 7640SOL     OW24751   3.498  10.756   6.936
 7640SOL    HW124752   3.480  10.746   7.030
 7640SOL    HW224753   3.536  10.844   6.928
 7641SOL     OW24754   7.989   0.062   9.263
 7641SOL    HW124755   8.058   0.071   9.197
 7641SOL    HW224756   8.010  14.862   9.308
 7642SOL     OW24757   7.025   2.697   6.221
 7642SOL    HW124758   7.068   2.620   6.184
 7642SOL    HW224759   6.985   2.664   6.302
 7643SOL     OW24760   7.361  14.714   2.651
 7643SOL    HW124761   7.442  14.663   2.663
 7643SOL    HW224762   7.349  14.759   2.735
 7644SOL     OW24763   7.606   6.888   5.253
 7644SOL    HW124764   7.641   6.968   5.291
 7644SOL    HW224765   7.512   6.904   5.246
 7645SOL     OW24766  14.359   1.449  13.861
 7645SOL    HW124767  14.426   1.390  13.827
 7645SOL    HW224768  14.401   1.494  13.934
 7646SOL     OW24769   7.437   1.028   4.435
 7646SOL    HW124770   7.423   1.120   4.460
 7646SOL    HW224771   7.416   1.026   4.341
 7647SOL     OW24772   4.800   8.256  14.518
 7647SOL    HW124773   4.731   8.230  14.579
 7647SOL    HW224774   4.763   8.331  14.471
 7648SOL     OW24775   2.578   2.927  11.005
 7648SOL    HW124776   2.671   2.949  11.012
 7648SOL    HW224777   2.555   2.890  11.090
 7649SOL     OW24778  11.941   0.535   1.720
 7649SOL    HW124779  11.891   0.466   1.765
 7649SOL    HW224780  12.032   0.509   1.729
 7650SOL     OW24781  10.733   3.624   9.008
 7650SOL    HW124782  10.730   3.707   8.960
 7650SOL    HW224783  10.668   3.635   9.078
 7651SOL     OW24784   0.357  10.835  11.220
 7651SOL    HW124785   0.419  10.854  11.150
 7651SOL    HW224786   0.411  10.828  11.298
 7652SOL     OW24787  10.426  10.299   4.221
 7652SOL    HW124788  10.331  10.285   4.225
 7652SOL    HW224789  10.447  10.342   4.303
 7653SOL     OW24790   2.993   8.327   3.378
 7653SOL    HW124791   2.940   8.344   3.456
 7653SOL    HW224792   3.068   8.277   3.411
 7654SOL     OW24793   4.592   4.563   1.973
 7654SOL    HW124794   4.615   4.652   2.001
 7654SOL    HW224795   4.503   4.550   2.005
 7655SOL     OW24796   2.173   0.590   4.915
 7655SOL    HW124797   2.258   0.588   4.960
 7655SOL    HW224798   2.112   0.551   4.977
 7656SOL     OW24799   2.078   5.443   2.523
 7656SOL    HW124800   2.093   5.503   2.596
 7656SOL    HW224801   2.093   5.356   2.559
 7657SOL     OW24802   0.455   9.245   9.035
 7657SOL    HW124803   0.375   9.196   9.015
 7657SOL    HW224804   0.526   9.182   9.023
 7658SOL     OW24805   2.893  11.460  12.443
 7658SOL    HW124806   2.855  11.479  12.528
 7658SOL    HW224807   2.915  11.545  12.406
 7659SOL     OW24808   2.320  13.853  12.443
 7659SOL    HW124809   2.308  13.869  12.350
 7659SOL    HW224810   2.291  13.763  12.456
 7660SOL     OW24811   3.391  14.504   9.263
 7660SOL    HW124812   3.339  14.519   9.184
 7660SOL    HW224813   3.380  14.411   9.282
 7661SOL     OW24814  11.313  10.428   4.508
 7661SOL    HW124815  11.252  10.501   4.518
 7661SOL    HW224816  11.263  10.362   4.459
 7662SOL     OW24817   8.677   7.355   3.494
 7662SOL    HW124818   8.751   7.300   3.468
 7662SOL    HW224819   8.708   7.402   3.571
 7663SOL     OW24820   8.225   5.307   2.739
 7663SOL    HW124821   8.299   5.333   2.795
 7663SOL    HW224822   8.162   5.267   2.799
 7664SOL     OW24823   1.177   7.181   6.367
 7664SOL    HW124824   1.182   7.242   6.293
 7664SOL    HW224825   1.137   7.231   6.437
 7665SOL     OW24826   1.571  10.981  10.489
 7665SOL    HW124827   1.647  10.942  10.446
 7665SOL    HW224828   1.539  11.046  10.426
 7666SOL     OW24829   1.958  14.282   5.777
 7666SOL    HW124830   1.978  14.345   5.847
 7666SOL    HW224831   1.943  14.336   5.700
 7667SOL     OW24832   3.879   7.909  14.737
 7667SOL    HW124833   3.943   7.845  14.767
 7667SOL    HW224834   3.809   7.906  14.803
 7668SOL     OW24835   8.904  14.007  14.195
 7668SOL    HW124836   8.971  13.966  14.140
 7668SOL    HW224837   8.930  14.099  14.200
 7669SOL     OW24838   4.210   4.356   1.674
 7669SOL    HW124839   4.283   4.299   1.652
 7669SOL    HW224840   4.251   4.436   1.707
 7670SOL     OW24841  11.950  13.304   9.651
 7670SOL    HW124842  11.929  13.224   9.603
 7670SOL    HW224843  11.869  13.325   9.699
 7671SOL     OW24844   6.057   9.197   3.843
 7671SOL    HW124845   6.080   9.199   3.750
 7671SOL    HW224846   5.972   9.240   3.847
 7672SOL     OW24847   9.221   5.063   6.833
 7672SOL    HW124848   9.230   5.149   6.792
 7672SOL    HW224849   9.277   5.006   6.781
 7673SOL     OW24850   7.040   7.326   1.672
 7673SOL    HW124851   6.970   7.260   1.676
 7673SOL    HW224852   7.061   7.333   1.579
 7674SOL     OW24853   7.335  12.430   2.650
 7674SOL    HW124854   7.345  12.334   2.646
 7674SOL    HW224855   7.293  12.453   2.568
 7675SOL     OW24856   1.439   2.878   8.272
 7675SOL    HW124857   1.481   2.853   8.354
 7675SOL    HW224858   1.482   2.824   8.205
 7676SOL     OW24859   8.332   1.002  14.766
 7676SOL    HW124860   8.238   1.006  14.749
 7676SOL    HW224861   8.363   1.092  14.758
 7677SOL     OW24862  12.968   3.167   2.961
 7677SOL    HW124863  12.992   3.075   2.952
 7677SOL    HW224864  13.041   3.207   3.009
 7678SOL     OW24865   5.597   2.111  12.559
 7678SOL    HW124866   5.635   2.045  12.618
 7678SOL    HW224867   5.627   2.194  12.594
 7679SOL     OW24868  13.061   2.163   4.393
 7679SOL    HW124869  13.082   2.209   4.475
 7679SOL    HW224870  13.144   2.157   4.346
 7680SOL     OW24871   4.379   8.570   0.948
 7680SOL    HW124872   4.384   8.572   0.853
 7680SOL    HW224873   4.447   8.509   0.975
 7681SOL     OW24874   5.576   6.451  11.888
 7681SOL    HW124875   5.495   6.495  11.915
 7681SOL    HW224876   5.558   6.419  11.799
 7682SOL     OW24877  12.562   9.393   8.768
 7682SOL    HW124878  12.548   9.394   8.674
 7682SOL    HW224879  12.522   9.474   8.800
 7683SOL     OW24880  13.472   7.624   1.564
 7683SOL    HW124881  13.405   7.579   1.513
 7683SOL    HW224882  13.424   7.686   1.618
 7684SOL     OW24883   5.079   2.849  13.891
 7684SOL    HW124884   5.134   2.896  13.954
 7684SOL    HW224885   5.019   2.916  13.858
 7685SOL     OW24886   6.807   8.347  10.529
 7685SOL    HW124887   6.766   8.421  10.574
 7685SOL    HW224888   6.772   8.352  10.440
 7686SOL     OW24889   8.244  11.564   2.638
 7686SOL    HW124890   8.196  11.629   2.588
 7686SOL    HW224891   8.236  11.483   2.587
 7687SOL     OW24892  11.225   9.370   9.472
 7687SOL    HW124893  11.239   9.320   9.553
 7687SOL    HW224894  11.200   9.458   9.502
 7688SOL     OW24895   2.477   5.843   6.710
 7688SOL    HW124896   2.412   5.865   6.643
 7688SOL    HW224897   2.448   5.758   6.743
 7689SOL     OW24898  13.713   0.940   9.766
 7689SOL    HW124899  13.706   1.027   9.806
 7689SOL    HW224900  13.685   0.880   9.835
 7690SOL     OW24901   5.354   1.811  11.941
 7690SOL    HW124902   5.421   1.744  11.928
 7690SOL    HW224903   5.301   1.807  11.861
 7691SOL     OW24904   2.315   3.377   2.186
 7691SOL    HW124905   2.356   3.392   2.101
 7691SOL    HW224906   2.356   3.441   2.244
 7692SOL     OW24907  11.567   2.915  10.857
 7692SOL    HW124908  11.564   2.836  10.803
 7692SOL    HW224909  11.615   2.979  10.804
 7693SOL     OW24910   7.715   7.094   5.631
 7693SOL    HW124911   7.626   7.060   5.645
 7693SOL    HW224912   7.702   7.181   5.594
 7694SOL     OW24913  13.356   8.706  13.482
 7694SOL    HW124914  13.394   8.718  13.569
 7694SOL    HW224915  13.271   8.664  13.498
 7695SOL     OW24916  13.837  14.642   5.191
 7695SOL    HW124917  13.745  14.618   5.186
 7695SOL    HW224918  13.854  14.656   5.284
 7696SOL     OW24919  13.388   4.317   4.449
 7696SOL    HW124920  13.469   4.295   4.402
 7696SOL    HW224921  13.367   4.237   4.497
 7697SOL     OW24922   9.562   8.228   5.168
 7697SOL    HW124923   9.473   8.260   5.181
 7697SOL    HW224924   9.561   8.139   5.203
 7698SOL     OW24925  10.084   8.913   2.972
 7698SOL    HW124926  10.036   8.983   2.928
 7698SOL    HW224927  10.159   8.896   2.915
 7699SOL     OW24928   1.382   8.377   2.804
 7699SOL    HW124929   1.429   8.383   2.887
 7699SOL    HW224930   1.292   8.356   2.830
 7700SOL     OW24931   8.032   7.744   9.041
 7700SOL    HW124932   8.055   7.661   9.082
 7700SOL    HW224933   8.092   7.807   9.081
 7701SOL     OW24934   0.034  11.489   2.905
 7701SOL    HW124935  14.872  11.549   2.966
 7701SOL    HW224936  14.849  11.423   2.884
 7702SOL     OW24937   0.461   3.755  10.762
 7702SOL    HW124938   0.432   3.666  10.783
 7702SOL    HW224939   0.401   3.784  10.693
 7703SOL     OW24940  12.916  10.859   2.043
 7703SOL    HW124941  12.937  10.935   2.097
 7703SOL    HW224942  12.884  10.896   1.961
 7704SOL     OW24943  11.374  13.680  10.304
 7704SOL    HW124944  11.334  13.704  10.388
 7704SOL    HW224945  11.303  13.640  10.254
 7705SOL     OW24946  10.742   3.349  11.092
 7705SOL    HW124947  10.767   3.396  11.172
 7705SOL    HW224948  10.736   3.258  11.118
 7706SOL     OW24949   3.197  13.801   3.649
 7706SOL    HW124950   3.246  13.883   3.646
 7706SOL    HW224951   3.253  13.741   3.698
 7707SOL     OW24952   7.080   3.689   0.156
 7707SOL    HW124953   7.107   3.706   0.246
 7707SOL    HW224954   7.161   3.673   0.109
 7708SOL     OW24955   7.617   0.703  12.558
 7708SOL    HW124956   7.615   0.619  12.512
 7708SOL    HW224957   7.579   0.765  12.496
 7709SOL     OW24958   0.016   5.522  12.338
 7709SOL    HW124959  14.824   5.574  12.307
 7709SOL    HW224960  14.859   5.449  12.386
 7710SOL     OW24961  12.069   5.366   0.821
 7710SOL    HW124962  12.055   5.391   0.913
 7710SOL    HW224963  12.156   5.400   0.800
 7711SOL     OW24964  14.688   2.178  13.060
 7711SOL    HW124965  14.659   2.222  13.139
 7711SOL    HW224966  14.696   2.247  12.995
 7712SOL     OW24967   6.546   5.346   6.743
 7712SOL    HW124968   6.594   5.428   6.741
 7712SOL    HW224969   6.479   5.355   6.675
 7713SOL     OW24970   5.847   3.015   1.485
 7713SOL    HW124971   5.832   3.024   1.579
 7713SOL    HW224972   5.760   3.000   1.448
 7714SOL     OW24973  12.740   6.445  11.850
 7714SOL    HW124974  12.786   6.483  11.925
 7714SOL    HW224975  12.771   6.495  11.775
 7715SOL     OW24976   1.762  13.254  13.788
 7715SOL    HW124977   1.825  13.243  13.716
 7715SOL    HW224978   1.749  13.165  13.821
 7716SOL     OW24979   1.677   2.705   6.526
 7716SOL    HW124980   1.611   2.715   6.457
 7716SOL    HW224981   1.660   2.777   6.586
 7717SOL     OW24982  12.629  10.018   1.549
 7717SOL    HW124983  12.674   9.935   1.565
 7717SOL    HW224984  12.602  10.048   1.636
 7718SOL     OW24985  12.233   2.235   1.015
 7718SOL    HW124986  12.294   2.305   0.989
 7718SOL    HW224987  12.279   2.154   0.992
 7719SOL     OW24988   2.129   1.932   9.006
 7719SOL    HW124989   2.191   1.934   9.079
 7719SOL    HW224990   2.043   1.928   9.048
 7720SOL     OW24991   6.515   2.534   3.985
 7720SOL    HW124992   6.510   2.509   4.077
 7720SOL    HW224993   6.604   2.511   3.958
 7721SOL     OW24994  10.712   6.738  14.150
 7721SOL    HW124995  10.771   6.744  14.076
 7721SOL    HW224996  10.757   6.680  14.212
 7722SOL     OW24997  11.666  10.063  13.371
 7722SOL    HW124998  11.604  10.002  13.330
 7722SOL    HW224999  11.610  10.132  13.406
 7723SOL     OW25000   9.070  10.175  11.725
 7723SOL    HW125001   9.107  10.242  11.783
 7723SOL    HW225002   9.045  10.222  11.646
 7724SOL     OW25003   4.770   7.951   4.378
 7724SOL    HW125004   4.855   7.958   4.423
 7724SOL    HW225005   4.706   7.957   4.449
 7725SOL     OW25006  13.602   7.121  11.313
 7725SOL    HW125007  13.599   7.188  11.245
 7725SOL    HW225008  13.605   7.170  11.395
 7726SOL     OW25009   5.560   7.797  10.699
 7726SOL    HW125010   5.477   7.769  10.662
 7726SOL    HW225011   5.589   7.722  10.753
 7727SOL     OW25012   3.762   8.306   5.199
 7727SOL    HW125013   3.856   8.298   5.213
 7727SOL    HW225014   3.724   8.231   5.246
 7728SOL     OW25015   5.842  12.265  11.700
 7728SOL    HW125016   5.839  12.175  11.733
 7728SOL    HW225017   5.932  12.277  11.671
 7729SOL     OW25018   3.552  10.809   3.403
 7729SOL    HW125019   3.620  10.845   3.459
 7729SOL    HW225020   3.500  10.753   3.460
 7730SOL     OW25021   6.029  10.985   1.427
 7730SOL    HW125022   6.015  11.052   1.494
 7730SOL    HW225023   6.124  10.980   1.418
 7731SOL     OW25024  13.066  10.681   7.949
 7731SOL    HW125025  13.089  10.684   7.856
 7731SOL    HW225026  13.042  10.590   7.965
 7732SOL     OW25027   3.814  13.800   2.656
 7732SOL    HW125028   3.749  13.818   2.587
 7732SOL    HW225029   3.872  13.876   2.654
 7733SOL     OW25030   8.078   3.460   0.224
 7733SOL    HW125031   8.027   3.459   0.143
 7733SOL    HW225032   8.028   3.516   0.283
 7734SOL     OW25033   6.159   7.359   1.404
 7734SOL    HW125034   6.070   7.325   1.396
 7734SOL    HW225035   6.193   7.319   1.484
 7735SOL     OW25036  10.098   2.582   8.230
 7735SOL    HW125037  10.094   2.648   8.299
 7735SOL    HW225038  10.006   2.560   8.213
 7736SOL     OW25039  12.383  14.436   0.637
 7736SOL    HW125040  12.298  14.445   0.596
 7736SOL    HW225041  12.441  14.493   0.586
 7737SOL     OW25042  12.133   1.759   8.214
 7737SOL    HW125043  12.080   1.710   8.276
 7737SOL    HW225044  12.136   1.848   8.250
 7738SOL     OW25045  14.679  11.575  14.814
 7738SOL    HW125046  14.640  11.663  14.810
 7738SOL    HW225047  14.771  11.589  14.792
 7739SOL     OW25048  12.885   8.132   3.966
 7739SOL    HW125049  12.885   8.221   3.930
 7739SOL    HW225050  12.821   8.085   3.913
 7740SOL     OW25051  11.011   9.846  14.213
 7740SOL    HW125052  11.082   9.789  14.186
 7740SOL    HW225053  10.999   9.825  14.306
 7741SOL     OW25054  11.686   1.752   5.968
 7741SOL    HW125055  11.630   1.675   5.955
 7741SOL    HW225056  11.686   1.796   5.882
 7742SOL     OW25057   0.796   5.703   8.270
 7742SOL    HW125058   0.726   5.767   8.283
 7742SOL    HW225059   0.864   5.751   8.222
 7743SOL     OW25060  12.603   7.559   4.156
 7743SOL    HW125061  12.670   7.494   4.177
 7743SOL    HW225062  12.521   7.509   4.151
 7744SOL     OW25063   0.718  12.356   2.200
 7744SOL    HW125064   0.755  12.410   2.269
 7744SOL    HW225065   0.719  12.412   2.122
 7745SOL     OW25066   2.101   6.818   5.545
 7745SOL    HW125067   2.167   6.866   5.496
 7745SOL    HW225068   2.033   6.797   5.480
 7746SOL     OW25069   1.101   0.741   3.028
 7746SOL    HW125070   1.179   0.704   3.071
 7746SOL    HW225071   1.047   0.771   3.100
 7747SOL     OW25072  10.904  10.233   4.345
 7747SOL    HW125073  10.817  10.232   4.384
 7747SOL    HW225074  10.888  10.237   4.250
 7748SOL     OW25075   5.867   0.474   1.321
 7748SOL    HW125076   5.939   0.412   1.337
 7748SOL    HW225077   5.836   0.498   1.408
 7749SOL     OW25078   3.596   7.047   4.611
 7749SOL    HW125079   3.591   7.012   4.522
 7749SOL    HW225080   3.504   7.057   4.638
 7750SOL     OW25081   4.878   4.233   4.533
 7750SOL    HW125082   4.938   4.164   4.564
 7750SOL    HW225083   4.846   4.274   4.613
 7751SOL     OW25084   4.172  11.476   7.851
 7751SOL    HW125085   4.104  11.466   7.917
 7751SOL    HW225086   4.132  11.531   7.783
 7752SOL     OW25087   7.370   8.974   9.062
 7752SOL    HW125088   7.369   8.909   9.132
 7752SOL    HW225089   7.285   8.964   9.019
 7753SOL     OW25090  12.124   0.303   9.987
 7753SOL    HW125091  12.111   0.221  10.034
 7753SOL    HW225092  12.036   0.334   9.966
 7754SOL     OW25093   0.530   3.122   5.230
 7754SOL    HW125094   0.603   3.066   5.256
 7754SOL    HW225095   0.550   3.207   5.269
 7755SOL     OW25096   5.964   3.791   4.480
 7755SOL    HW125097   5.989   3.861   4.420
 7755SOL    HW225098   5.905   3.736   4.429
 7756SOL     OW25099  14.215   2.210  13.261
 7756SOL    HW125100  14.294   2.245  13.301
 7756SOL    HW225101  14.145   2.268  13.291
 7757SOL     OW25102   2.895   0.841   9.251
 7757SOL    HW125103   2.846   0.885   9.320
 7757SOL    HW225104   2.929   0.911   9.197
 7758SOL     OW25105   7.931   5.794   5.248
 7758SOL    HW125106   7.998   5.739   5.289
 7758SOL    HW225107   7.938   5.878   5.293
 7759SOL     OW25108   1.982   3.305   9.837
 7759SOL    HW125109   1.954   3.351   9.758
 7759SOL    HW225110   2.004   3.217   9.807
 7760SOL     OW25111  14.669  11.309   3.550
 7760SOL    HW125112  14.732  11.249   3.512
 7760SOL    HW225113  14.590  11.257   3.564
 7761SOL     OW25114   9.722   9.557   3.000
 7761SOL    HW125115   9.785   9.589   2.934
 7761SOL    HW225116   9.682   9.480   2.960
 7762SOL     OW25117  10.694  13.910   3.794
 7762SOL    HW125118  10.618  13.919   3.736
 7762SOL    HW225119  10.763  13.961   3.751
 7763SOL     OW25120   9.191  10.280  14.416
 7763SOL    HW125121   9.279  10.255  14.389
 7763SOL    HW225122   9.163  10.344  14.349
 7764SOL     OW25123   1.780  13.531   1.142
 7764SOL    HW125124   1.835  13.452   1.146
 7764SOL    HW225125   1.711  13.516   1.207
 7765SOL     OW25126  10.429   0.685   8.395
 7765SOL    HW125127  10.461   0.594   8.391
 7765SOL    HW225128  10.350   0.685   8.342
 7766SOL     OW25129   8.645   3.974   0.082
 7766SOL    HW125130   8.737   3.997   0.068
 7766SOL    HW225131   8.643   3.879   0.073
 7767SOL     OW25132  11.739   0.738  11.426
 7767SOL    HW125133  11.682   0.669  11.461
 7767SOL    HW225134  11.680   0.813  11.414
 7768SOL     OW25135  12.962   8.942   7.467
 7768SOL    HW125136  12.954   9.011   7.533
 7768SOL    HW225137  12.872   8.920   7.444
 7769SOL     OW25138   1.997   9.656   9.743
 7769SOL    HW125139   2.008   9.664   9.837
 7769SOL    HW225140   2.084   9.672   9.707
 7770SOL     OW25141   3.682   8.001   1.381
 7770SOL    HW125142   3.712   8.066   1.317
 7770SOL    HW225143   3.760   7.952   1.405
 7771SOL     OW25144  10.355   5.520   0.681
 7771SOL    HW125145  10.417   5.455   0.647
 7771SOL    HW225146  10.368   5.597   0.627
 7772SOL     OW25147   1.185   5.198  13.551
 7772SOL    HW125148   1.144   5.128  13.502
 7772SOL    HW225149   1.148   5.191  13.639
 7773SOL     OW25150   6.062   4.302   5.136
 7773SOL    HW125151   6.073   4.394   5.163
 7773SOL    HW225152   6.085   4.252   5.214
 7774SOL     OW25153   0.284   1.936   2.993
 7774SOL    HW125154   0.237   1.859   2.961
 7774SOL    HW225155   0.253   2.008   2.938
 7775SOL     OW25156   6.379  10.977   7.783
 7775SOL    HW125157   6.346  11.050   7.835
 7775SOL    HW225158   6.304  10.950   7.729
 7776SOL     OW25159   6.012  14.465   0.159
 7776SOL    HW125160   5.942  14.489   0.220
 7776SOL    HW225161   6.047  14.549   0.128
 7777SOL     OW25162  14.434   9.438   7.849
 7777SOL    HW125163  14.406   9.381   7.921
 7777SOL    HW225164  14.530   9.428   7.847
 7778SOL     OW25165  12.515   4.139   6.865
 7778SOL    HW125166  12.576   4.065   6.866
 7778SOL    HW225167  12.550   4.198   6.797
 7779SOL     OW25168   7.605  11.833   5.069
 7779SOL    HW125169   7.628  11.820   4.977
 7779SOL    HW225170   7.583  11.746   5.101
 7780SOL     OW25171  13.556  10.486   7.562
 7780SOL    HW125172  13.603  10.567   7.577
 7780SOL    HW225173  13.557  10.475   7.467
 7781SOL     OW25174   8.363   6.425   2.815
 7781SOL    HW125175   8.309   6.346   2.818
 7781SOL    HW225176   8.304   6.496   2.836
 7782SOL     OW25177   4.255  11.128   6.158
 7782SOL    HW125178   4.296  11.213   6.173
 7782SOL    HW225179   4.304  11.091   6.084
 7783SOL     OW25180  13.387   8.304   0.383
 7783SOL    HW125181  13.423   8.236   0.440
 7783SOL    HW225182  13.375   8.261   0.298
 7784SOL     OW25183   2.806   8.179   9.665
 7784SOL    HW125184   2.795   8.138   9.579
 7784SOL    HW225185   2.838   8.108   9.721
 7785SOL     OW25186   0.537   8.421   3.673
 7785SOL    HW125187   0.463   8.393   3.618
 7785SOL    HW225188   0.497   8.469   3.745
 7786SOL     OW25189   1.261   7.161   2.480
 7786SOL    HW125190   1.342   7.209   2.459
 7786SOL    HW225191   1.191   7.222   2.459
 7787SOL     OW25192   2.569   4.814   8.293
 7787SOL    HW125193   2.599   4.846   8.377
 7787SOL    HW225194   2.474   4.806   8.302
 7788SOL     OW25195   3.830  11.192   1.398
 7788SOL    HW125196   3.879  11.125   1.444
 7788SOL    HW225197   3.751  11.147   1.366
 7789SOL     OW25198   2.755  11.998   5.568
 7789SOL    HW125199   2.739  12.028   5.478
 7789SOL    HW225200   2.703  11.918   5.576
 7790SOL     OW25201   0.447   5.848   3.537
 7790SOL    HW125202   0.400   5.787   3.593
 7790SOL    HW225203   0.525   5.871   3.587
 7791SOL     OW25204   1.089   5.248   0.928
 7791SOL    HW125205   1.153   5.190   0.885
 7791SOL    HW225206   1.030   5.188   0.974
 7792SOL     OW25207  12.903   4.454   1.148
 7792SOL    HW125208  12.890   4.367   1.186
 7792SOL    HW225209  12.827   4.467   1.091
 7793SOL     OW25210  10.730   0.649   4.169
 7793SOL    HW125211  10.705   0.699   4.091
 7793SOL    HW225212  10.735   0.714   4.239
 7794SOL     OW25213  11.724   8.452   0.398
 7794SOL    HW125214  11.683   8.437   0.313
 7794SOL    HW225215  11.660   8.421   0.462
 7795SOL     OW25216   9.584   6.115   0.183
 7795SOL    HW125217   9.667   6.137   0.225
 7795SOL    HW225218   9.522   6.179   0.219
 7796SOL     OW25219  14.376   6.941   8.024
 7796SOL    HW125220  14.305   7.006   8.020
 7796SOL    HW225221  14.417   6.944   7.938
 7797SOL     OW25222   6.950   8.544   1.333
 7797SOL    HW125223   6.982   8.611   1.273
 7797SOL    HW225224   7.000   8.558   1.413
 7798SOL     OW25225   7.102   9.099   2.853
 7798SOL    HW125226   7.043   9.173   2.842
 7798SOL    HW225227   7.046   9.022   2.847
 7799SOL     OW25228   2.545  14.579   8.545
 7799SOL    HW125229   2.532  14.485   8.554
 7799SOL    HW225230   2.606  14.588   8.472
 7800SOL     OW25231   8.385   8.827  10.229
 7800SOL    HW125232   8.315   8.820  10.294
 7800SOL    HW225233   8.344   8.872  10.155
 7801SOL     OW25234   6.380   6.743  10.388
 7801SOL    HW125235   6.310   6.712  10.330
 7801SOL    HW225236   6.339   6.813  10.439
 7802SOL     OW25237   6.029   1.489  13.875
 7802SOL    HW125238   6.111   1.444  13.857
 7802SOL    HW225239   6.011   1.472  13.967
 7803SOL     OW25240  10.614   0.027   9.868
 7803SOL    HW125241  10.620   0.092   9.939
 7803SOL    HW225242  10.679   0.056   9.804
 7804SOL     OW25243   2.531  13.967   9.041
 7804SOL    HW125244   2.518  13.877   9.012
 7804SOL    HW225245   2.447  13.993   9.078
 7805SOL     OW25246   3.526   2.199  12.029
 7805SOL    HW125247   3.584   2.220  11.956
 7805SOL    HW225248   3.481   2.280  12.048
 7806SOL     OW25249  10.354  12.032   5.126
 7806SOL    HW125250  10.318  12.120   5.136
 7806SOL    HW225251  10.284  11.982   5.084
 7807SOL     OW25252   9.927   2.530   7.088
 7807SOL    HW125253   9.988   2.565   7.152
 7807SOL    HW225254   9.891   2.451   7.128
 7808SOL     OW25255   1.383   8.688   7.562
 7808SOL    HW125256   1.308   8.710   7.508
 7808SOL    HW225257   1.351   8.694   7.652
 7809SOL     OW25258   3.316   0.556  12.672
 7809SOL    HW125259   3.386   0.568  12.736
 7809SOL    HW225260   3.267   0.481  12.703
 7810SOL     OW25261   4.151   9.568   5.037
 7810SOL    HW125262   4.157   9.500   5.103
 7810SOL    HW225263   4.231   9.560   4.985
 7811SOL     OW25264   7.075   8.616  12.368
 7811SOL    HW125265   6.986   8.591  12.392
 7811SOL    HW225266   7.070   8.709  12.348
 7812SOL     OW25267  11.420   6.101   5.999
 7812SOL    HW125268  11.450   6.177   6.049
 7812SOL    HW225269  11.501   6.062   5.964
 7813SOL     OW25270   6.582   8.294   8.752
 7813SOL    HW125271   6.614   8.334   8.671
 7813SOL    HW225272   6.527   8.221   8.723
 7814SOL     OW25273   6.789  12.682   2.489
 7814SOL    HW125274   6.829  12.766   2.469
 7814SOL    HW225275   6.699  12.703   2.514
 7815SOL     OW25276   4.917  10.362   8.080
 7815SOL    HW125277   4.878  10.322   8.003
 7815SOL    HW225278   4.997  10.403   8.048
 7816SOL     OW25279   2.426   9.240   4.984
 7816SOL    HW125280   2.481   9.256   4.907
 7816SOL    HW225281   2.477   9.273   5.057
 7817SOL     OW25282  13.651   0.108   4.410
 7817SOL    HW125283  13.563   0.112   4.370
 7817SOL    HW225284  13.689   0.027   4.375
 7818SOL     OW25285   9.628   6.122  14.200
 7818SOL    HW125286   9.647   6.045  14.253
 7818SOL    HW225287   9.702   6.129  14.140
 7819SOL     OW25288   0.079  11.924   8.865
 7819SOL    HW125289   0.131  11.997   8.900
 7819SOL    HW225290   0.096  11.852   8.927
 7820SOL     OW25291   7.121  12.500  10.040
 7820SOL    HW125292   7.193  12.506   9.977
 7820SOL    HW225293   7.048  12.463   9.990
 7821SOL     OW25294   7.569   7.183  10.040
 7821SOL    HW125295   7.639   7.138  10.088
 7821SOL    HW225296   7.543   7.121   9.972
 7822SOL     OW25297   0.112  14.878  11.465
 7822SOL    HW125298   0.076   0.084  11.473
 7822SOL    HW225299   0.195   0.008  11.418
 7823SOL     OW25300  12.483   4.977   1.984
 7823SOL    HW125301  12.512   4.890   2.012
 7823SOL    HW225302  12.555   5.011   1.932
 7824SOL     OW25303   4.775   5.798  14.849
 7824SOL    HW125304   4.764   5.835  14.761
 7824SOL    HW225305   4.867   5.815  14.870
 7825SOL     OW25306   0.751   7.865  10.548
 7825SOL    HW125307   0.719   7.778  10.524
 7825SOL    HW225308   0.800   7.852  10.629
 7826SOL     OW25309  13.004  13.149   1.172
 7826SOL    HW125310  13.025  13.217   1.236
 7826SOL    HW225311  12.911  13.162   1.153
 7827SOL     OW25312   1.235   5.205   3.670
 7827SOL    HW125313   1.215   5.281   3.615
 7827SOL    HW225314   1.234   5.131   3.609
 7828SOL     OW25315   2.620   9.349   1.186
 7828SOL    HW125316   2.635   9.442   1.171
 7828SOL    HW225317   2.660   9.306   1.110
 7829SOL     OW25318   4.893   6.235   9.803
 7829SOL    HW125319   4.812   6.251   9.754
 7829SOL    HW225320   4.963   6.261   9.743
 7830SOL     OW25321  10.069  13.637   4.058
 7830SOL    HW125322   9.977  13.623   4.083
 7830SOL    HW225323  10.103  13.549   4.043
 7831SOL     OW25324   8.575  14.625   3.715
 7831SOL    HW125325   8.487  14.588   3.724
 7831SOL    HW225326   8.560  14.716   3.691
 7832SOL     OW25327   1.661  13.651   1.536
 7832SOL    HW125328   1.573  13.685   1.546
 7832SOL    HW225329   1.711  13.695   1.605
 7833SOL     OW25330  10.119  10.236   0.101
 7833SOL    HW125331  10.176  10.159   0.112
 7833SOL    HW225332  10.126  10.283   0.184
 7834SOL     OW25333  12.403   3.683  12.202
 7834SOL    HW125334  12.335   3.710  12.141
 7834SOL    HW225335  12.432   3.764  12.242
 7835SOL     OW25336  10.003   0.098   6.081
 7835SOL    HW125337   9.966   0.023   6.033
 7835SOL    HW225338  10.096   0.079   6.087
 7836SOL     OW25339   1.418   8.723   6.691
 7836SOL    HW125340   1.441   8.760   6.606
 7836SOL    HW225341   1.338   8.769   6.717
 7837SOL     OW25342   0.023   5.488   7.910
 7837SOL    HW125343   0.077   5.477   7.831
 7837SOL    HW225344  14.822   5.448   7.887
 7838SOL     OW25345   1.970  10.844   7.999
 7838SOL    HW125346   1.948  10.774   7.937
 7838SOL    HW225347   1.944  10.810   8.084
 7839SOL     OW25348  12.622   7.635   4.479
 7839SOL    HW125349  12.609   7.659   4.571
 7839SOL    HW225350  12.712   7.604   4.475
 7840SOL     OW25351  10.588   4.921   7.089
 7840SOL    HW125352  10.671   4.927   7.137
 7840SOL    HW225353  10.568   4.828   7.089
 7841SOL     OW25354   4.879   0.229   4.750
 7841SOL    HW125355   4.838   0.143   4.744
 7841SOL    HW225356   4.888   0.245   4.844
 7842SOL     OW25357   5.120   2.583   8.447
 7842SOL    HW125358   5.154   2.600   8.535
 7842SOL    HW225359   5.096   2.491   8.448
 7843SOL     OW25360   9.189   1.661  12.290
 7843SOL    HW125361   9.102   1.695  12.308
 7843SOL    HW225362   9.243   1.693  12.363
 7844SOL     OW25363   3.137   2.175  10.844
 7844SOL    HW125364   3.131   2.261  10.887
 7844SOL    HW225365   3.229   2.151  10.853
 7845SOL     OW25366   4.997   0.577   8.238
 7845SOL    HW125367   4.995   0.482   8.224
 7845SOL    HW225368   5.090   0.598   8.245
 7846SOL     OW25369   7.380  14.216   1.134
 7846SOL    HW125370   7.416  14.201   1.222
 7846SOL    HW225371   7.312  14.150   1.124
 7847SOL     OW25372  13.813  11.046   5.212
 7847SOL    HW125373  13.767  10.972   5.171
 7847SOL    HW225374  13.855  11.090   5.138
 7848SOL     OW25375   4.429   7.618  11.264
 7848SOL    HW125376   4.422   7.711  11.285
 7848SOL    HW225377   4.515   7.609  11.224
 7849SOL     OW25378   9.727  13.903   0.668
 7849SOL    HW125379   9.699  13.818   0.635
 7849SOL    HW225380   9.810  13.920   0.623
 7850SOL     OW25381   4.462   5.180  10.600
 7850SOL    HW125382   4.454   5.127  10.521
 7850SOL    HW225383   4.552   5.166  10.629
 7851SOL     OW25384  10.832   9.557   4.850
 7851SOL    HW125385  10.761   9.494   4.839
 7851SOL    HW225386  10.868   9.570   4.763
 7852SOL     OW25387   4.502  11.841   5.129
 7852SOL    HW125388   4.479  11.751   5.154
 7852SOL    HW225389   4.561  11.871   5.199
 7853SOL     OW25390  11.738   0.314   5.172
 7853SOL    HW125391  11.760   0.302   5.264
 7853SOL    HW225392  11.745   0.408   5.157
 7854SOL     OW25393   0.055   6.077   9.797
 7854SOL    HW125394   0.118   6.064   9.726
 7854SOL    HW225395  14.856   6.101   9.752
 7855SOL     OW25396   7.605  10.282  11.010
 7855SOL    HW125397   7.571  10.359  10.964
 7855SOL    HW225398   7.534  10.257  11.069
 7856SOL     OW25399   5.644  13.618  10.913
 7856SOL    HW125400   5.666  13.647  10.824
 7856SOL    HW225401   5.724  13.631  10.963
 7857SOL     OW25402  11.132   7.827   8.117
 7857SOL    HW125403  11.135   7.734   8.139
 7857SOL    HW225404  11.075   7.866   8.184
 7858SOL     OW25405   8.573   4.931   4.895
 7858SOL    HW125406   8.658   4.975   4.896
 7858SOL    HW225407   8.580   4.870   4.821
 7859SOL     OW25408  13.395   9.597   6.988
 7859SOL    HW125409  13.354   9.524   7.034
 7859SOL    HW225410  13.479   9.562   6.959
 7860SOL     OW25411   2.187  12.764  14.548
 7860SOL    HW125412   2.244  12.688  14.534
 7860SOL    HW225413   2.105  12.741  14.503
 7861SOL     OW25414   5.215   2.521   5.521
 7861SOL    HW125415   5.121   2.533   5.534
 7861SOL    HW225416   5.233   2.566   5.439
 7862SOL     OW25417   9.209   6.322  14.253
 7862SOL    HW125418   9.291   6.369  14.271
 7862SOL    HW225419   9.177   6.297  14.340
 7863SOL     OW25420   1.308   5.347   0.494
 7863SOL    HW125421   1.348   5.428   0.525
 7863SOL    HW225422   1.240   5.376   0.432
 7864SOL     OW25423   5.602   7.827   8.813
 7864SOL    HW125424   5.544   7.893   8.774
 7864SOL    HW225425   5.643   7.783   8.738
 7865SOL     OW25426  10.153   8.295   8.288
 7865SOL    HW125427  10.117   8.380   8.261
 7865SOL    HW225428  10.165   8.303   8.383
 7866SOL     OW25429  12.804  10.390   9.126
 7866SOL    HW125430  12.764  10.466   9.084
 7866SOL    HW225431  12.800  10.321   9.060
 7867SOL     OW25432  14.488   2.685  10.851
 7867SOL    HW125433  14.393   2.671  10.856
 7867SOL    HW225434  14.498   2.780  10.839
 7868SOL     OW25435   0.881   4.141   9.151
 7868SOL    HW125436   0.874   4.236   9.148
 7868SOL    HW225437   0.930   4.123   9.232
 7869SOL     OW25438  12.189   2.597   2.242
 7869SOL    HW125439  12.167   2.573   2.332
 7869SOL    HW225440  12.189   2.693   2.243
 7870SOL     OW25441  13.441   5.865  12.037
 7870SOL    HW125442  13.440   5.948  11.990
 7870SOL    HW225443  13.409   5.886  12.125
 7871SOL     OW25444  12.780   9.583   1.132
 7871SOL    HW125445  12.771   9.618   1.043
 7871SOL    HW225446  12.874   9.589   1.150
 7872SOL     OW25447  10.272   1.360  11.119
 7872SOL    HW125448  10.179   1.344  11.103
 7872SOL    HW225449  10.310   1.370  11.032
 7873SOL     OW25450  13.045   1.794  10.925
 7873SOL    HW125451  13.008   1.748  11.000
 7873SOL    HW225452  12.969   1.826  10.876
 7874SOL     OW25453   1.248   7.755  10.295
 7874SOL    HW125454   1.191   7.681  10.275
 7874SOL    HW225455   1.223   7.822  10.231
 7875SOL     OW25456   0.315   5.665   5.519
 7875SOL    HW125457   0.397   5.670   5.568
 7875SOL    HW225458   0.253   5.719   5.568
 7876SOL     OW25459   3.112  13.256  12.445
 7876SOL    HW125460   3.205  13.248  12.425
 7876SOL    HW225461   3.109  13.314  12.521
 7877SOL     OW25462  10.974  14.709   2.803
 7877SOL    HW125463  10.966  14.801   2.777
 7877SOL    HW225464  10.884  14.676   2.801
 7878SOL     OW25465  14.277   6.636   7.890
 7878SOL    HW125466  14.298   6.543   7.898
 7878SOL    HW225467  14.338   6.679   7.949
 7879SOL     OW25468   9.321   8.365   5.406
 7879SOL    HW125469   9.379   8.441   5.404
 7879SOL    HW225470   9.261   8.378   5.333
 7880SOL     OW25471   1.052   8.403   9.875
 7880SOL    HW125472   1.144   8.403   9.849
 7880SOL    HW225473   1.043   8.481   9.929
 7881SOL     OW25474  12.229  12.288   2.647
 7881SOL    HW125475  12.160  12.306   2.711
 7881SOL    HW225476  12.256  12.198   2.666
 7882SOL     OW25477  11.131   0.980   3.467
 7882SOL    HW125478  11.147   1.070   3.493
 7882SOL    HW225479  11.203   0.958   3.407
 7883SOL     OW25480  10.037   7.688  14.349
 7883SOL    HW125481  10.076   7.758  14.296
 7883SOL    HW225482   9.984   7.734  14.414
 7884SOL     OW25483   3.152  12.997   3.748
 7884SOL    HW125484   3.089  12.944   3.797
 7884SOL    HW225485   3.138  12.973   3.657
 7885SOL     OW25486   9.362  10.026   5.242
 7885SOL    HW125487   9.282  10.077   5.253
 7885SOL    HW225488   9.343   9.967   5.169
 7886SOL     OW25489   7.400  10.639   8.864
 7886SOL    HW125490   7.419  10.608   8.775
 7886SOL    HW225491   7.396  10.735   8.855
 7887SOL     OW25492  12.038  12.021   1.768
 7887SOL    HW125493  11.983  12.080   1.820
 7887SOL    HW225494  12.032  12.054   1.679
 7888SOL     OW25495  12.807   1.638   3.036
 7888SOL    HW125496  12.779   1.615   2.948
 7888SOL    HW225497  12.828   1.731   3.031
 7889SOL     OW25498   9.488  14.151   7.520
 7889SOL    HW125499   9.527  14.110   7.597
 7889SOL    HW225500   9.517  14.098   7.446
 7890SOL     OW25501  13.623  12.533  10.911
 7890SOL    HW125502  13.692  12.467  10.920
 7890SOL    HW225503  13.643  12.576  10.828
 7891SOL     OW25504  10.138   6.486   2.115
 7891SOL    HW125505  10.062   6.521   2.067
 7891SOL    HW225506  10.110   6.484   2.206
 7892SOL     OW25507   5.953   4.097   9.315
 7892SOL    HW125508   5.919   4.140   9.236
 7892SOL    HW225509   5.902   4.017   9.322
 7893SOL     OW25510  11.491   4.132   7.198
 7893SOL    HW125511  11.472   4.204   7.138
 7893SOL    HW225512  11.465   4.164   7.284
 7894SOL     OW25513  10.239   1.131   2.824
 7894SOL    HW125514  10.191   1.213   2.831
 7894SOL    HW225515  10.331   1.156   2.833
 7895SOL     OW25516   9.492   9.000   3.154
 7895SOL    HW125517   9.406   8.965   3.175
 7895SOL    HW225518   9.526   9.032   3.237
 7896SOL     OW25519   7.183   3.584   3.058
 7896SOL    HW125520   7.218   3.651   3.000
 7896SOL    HW225521   7.235   3.506   3.040
 7897SOL     OW25522   3.873   7.282  10.579
 7897SOL    HW125523   3.869   7.193  10.544
 7897SOL    HW225524   3.938   7.278  10.649
 7898SOL     OW25525  14.496   8.975   4.343
 7898SOL    HW125526  14.525   9.046   4.286
 7898SOL    HW225527  14.457   8.911   4.283
 7899SOL     OW25528   7.742   1.420   3.285
 7899SOL    HW125529   7.697   1.488   3.334
 7899SOL    HW225530   7.744   1.345   3.345
 7900SOL     OW25531   0.923   9.728   5.532
 7900SOL    HW125532   0.832   9.729   5.562
 7900SOL    HW225533   0.928   9.650   5.476
 7901SOL     OW25534  11.877   2.875   8.904
 7901SOL    HW125535  11.841   2.860   8.991
 7901SOL    HW225536  11.857   2.795   8.856
 7902SOL     OW25537   6.950   2.819   6.702
 7902SOL    HW125538   6.955   2.902   6.748
 7902SOL    HW225539   6.962   2.841   6.610
 7903SOL     OW25540   3.609   0.845   9.742
 7903SOL    HW125541   3.543   0.781   9.715
 7903SOL    HW225542   3.692   0.808   9.712
 7904SOL     OW25543   2.892   8.711   0.513
 7904SOL    HW125544   2.913   8.761   0.592
 7904SOL    HW225545   2.864   8.777   0.450
 7905SOL     OW25546  14.399  11.007   2.803
 7905SOL    HW125547  14.450  11.009   2.884
 7905SOL    HW225548  14.308  11.011   2.831
 7906SOL     OW25549   9.368   3.447  11.901
 7906SOL    HW125550   9.443   3.467  11.957
 7906SOL    HW225551   9.305   3.516  11.922
 7907SOL     OW25552  14.440  10.555  13.417
 7907SOL    HW125553  14.419  10.648  13.414
 7907SOL    HW225554  14.530  10.551  13.450
 7908SOL     OW25555  10.479   0.294  10.386
 7908SOL    HW125556  10.513   0.263  10.470
 7908SOL    HW225557  10.431   0.219  10.351
 7909SOL     OW25558   9.240   7.204   9.793
 7909SOL    HW125559   9.253   7.266   9.865
 7909SOL    HW225560   9.264   7.119   9.831
 7910SOL     OW25561   3.273   7.703   1.906
 7910SOL    HW125562   3.313   7.758   1.839
 7910SOL    HW225563   3.312   7.733   1.988
 7911SOL     OW25564   0.665  14.575   5.694
 7911SOL    HW125565   0.732  14.642   5.705
 7911SOL    HW225566   0.583  14.618   5.719
 7912SOL     OW25567  13.955   5.444  10.176
 7912SOL    HW125568  13.919   5.377  10.235
 7912SOL    HW225569  14.019   5.397  10.122
 7913SOL     OW25570   4.043   0.934   1.102
 7913SOL    HW125571   4.028   0.850   1.145
 7913SOL    HW225572   4.042   0.998   1.173
 7914SOL     OW25573   2.048  11.829   4.712
 7914SOL    HW125574   1.990  11.905   4.704
 7914SOL    HW225575   2.091  11.822   4.626
 7915SOL     OW25576   1.726   2.610   5.149
 7915SOL    HW125577   1.674   2.579   5.222
 7915SOL    HW225578   1.665   2.660   5.095
 7916SOL     OW25579   7.813  12.906   9.910
 7916SOL    HW125580   7.857  12.840   9.963
 7916SOL    HW225581   7.869  12.918   9.833
 7917SOL     OW25582   7.952   4.922  10.251
 7917SOL    HW125583   8.002   4.998  10.219
 7917SOL    HW225584   7.890   4.959  10.314
 7918SOL     OW25585   9.148   5.201   0.764
 7918SOL    HW125586   9.071   5.146   0.773
 7918SOL    HW225587   9.145   5.260   0.840
 7919SOL     OW25588   7.023  10.732   7.615
 7919SOL    HW125589   6.963  10.684   7.559
 7919SOL    HW225590   7.092  10.669   7.637
 7920SOL     OW25591  11.258  10.014   8.618
 7920SOL    HW125592  11.273   9.961   8.540
 7920SOL    HW225593  11.296   9.962   8.689
 7921SOL     OW25594  13.412   8.924   0.310
 7921SOL    HW125595  13.366   8.934   0.393
 7921SOL    HW225596  13.422   8.829   0.299
 7922SOL     OW25597   4.591   9.171   8.629
 7922SOL    HW125598   4.608   9.260   8.599
 7922SOL    HW225599   4.563   9.181   8.720
 7923SOL     OW25600  13.211   2.436  13.371
 7923SOL    HW125601  13.218   2.415  13.464
 7923SOL    HW225602  13.294   2.477  13.349
 7924SOL     OW25603  13.584  10.604   8.964
 7924SOL    HW125604  13.506  10.650   8.934
 7924SOL    HW225605  13.557  10.561   9.045
 7925SOL     OW25606   7.920   5.368  14.048
 7925SOL    HW125607   7.974   5.307  13.998
 7925SOL    HW225608   7.830   5.341  14.032
 7926SOL     OW25609   0.653  14.425   9.533
 7926SOL    HW125610   0.631  14.398   9.622
 7926SOL    HW225611   0.665  14.520   9.539
 7927SOL     OW25612   9.801   9.232   3.757
 7927SOL    HW125613   9.825   9.245   3.665
 7927SOL    HW225614   9.868   9.281   3.805
 7928SOL     OW25615   5.459  10.173   7.492
 7928SOL    HW125616   5.420  10.131   7.416
 7928SOL    HW225617   5.390  10.170   7.559
 7929SOL     OW25618  12.215   2.655   5.378
 7929SOL    HW125619  12.234   2.686   5.290
 7929SOL    HW225620  12.274   2.581   5.391
 7930SOL     OW25621  14.487  13.630  14.795
 7930SOL    HW125622  14.497  13.675  14.879
 7930SOL    HW225623  14.525  13.543  14.810
 7931SOL     OW25624   7.846   0.134   4.383
 7931SOL    HW125625   7.803   0.220   4.387
 7931SOL    HW225626   7.791   0.077   4.437
 7932SOL     OW25627   1.111  12.803   0.083
 7932SOL    HW125628   1.102  12.713   0.116
 7932SOL    HW225629   1.191  12.803   0.031
 7933SOL     OW25630   0.117  11.201  10.484
 7933SOL    HW125631   0.131  11.284  10.440
 7933SOL    HW225632   0.095  11.139  10.415
 7934SOL     OW25633   0.334   1.575   5.165
 7934SOL    HW125634   0.249   1.597   5.203
 7934SOL    HW225635   0.313   1.527   5.085
 7935SOL     OW25636  12.817  13.155   5.439
 7935SOL    HW125637  12.806  13.136   5.345
 7935SOL    HW225638  12.909  13.137   5.456
 7936SOL     OW25639   7.866   2.083   7.807
 7936SOL    HW125640   7.860   1.990   7.783
 7936SOL    HW225641   7.893   2.082   7.899
 7937SOL     OW25642   8.216  10.967  11.700
 7937SOL    HW125643   8.308  10.941  11.699
 7937SOL    HW225644   8.168  10.884  11.701
 7938SOL     OW25645   9.969   1.303  13.443
 7938SOL    HW125646  10.023   1.347  13.377
 7938SOL    HW225647   9.988   1.351  13.524
 7939SOL     OW25648  12.377   3.223   8.516
 7939SOL    HW125649  12.312   3.254   8.579
 7939SOL    HW225650  12.447   3.288   8.519
 7940SOL     OW25651   6.238   8.686  13.190
 7940SOL    HW125652   6.211   8.597  13.212
 7940SOL    HW225653   6.288   8.716  13.265
 7941SOL     OW25654   1.009   0.486   5.972
 7941SOL    HW125655   1.086   0.435   5.995
 7941SOL    HW225656   0.948   0.474   6.045
 7942SOL     OW25657  13.371   4.264   4.904
 7942SOL    HW125658  13.432   4.214   4.958
 7942SOL    HW225659  13.398   4.248   4.814
 7943SOL     OW25660   5.752   1.236   5.927
 7943SOL    HW125661   5.846   1.217   5.922
 7943SOL    HW225662   5.746   1.315   5.980
 7944SOL     OW25663  13.727   3.592   5.175
 7944SOL    HW125664  13.663   3.537   5.219
 7944SOL    HW225665  13.705   3.681   5.203
 7945SOL     OW25666   2.988   4.895  11.262
 7945SOL    HW125667   2.940   4.827  11.215
 7945SOL    HW225668   2.926   4.969  11.266
 7946SOL     OW25669   1.898   3.715   6.082
 7946SOL    HW125670   1.975   3.711   6.138
 7946SOL    HW225671   1.914   3.650   6.014
 7947SOL     OW25672   2.056   3.030   8.363
 7947SOL    HW125673   2.108   3.038   8.443
 7947SOL    HW225674   2.100   3.086   8.299
 7948SOL     OW25675  11.050  13.125   4.012
 7948SOL    HW125676  11.068  13.219   4.010
 7948SOL    HW225677  11.125  13.088   4.058
 7949SOL     OW25678  11.585  12.139  12.580
 7949SOL    HW125679  11.515  12.199  12.608
 7949SOL    HW225680  11.650  12.196  12.540
 7950SOL     OW25681   6.354   9.317   1.734
 7950SOL    HW125682   6.279   9.285   1.685
 7950SOL    HW225683   6.359   9.410   1.715
 7951SOL     OW25684   2.204   5.779  14.639
 7951SOL    HW125685   2.147   5.702  14.645
 7951SOL    HW225686   2.279   5.757  14.694
 7952SOL     OW25687   5.174   0.867   8.468
 7952SOL    HW125688   5.225   0.816   8.531
 7952SOL    HW225689   5.239   0.921   8.423
 7953SOL     OW25690   5.782   8.651   6.439
 7953SOL    HW125691   5.762   8.618   6.351
 7953SOL    HW225692   5.876   8.667   6.438
 7954SOL     OW25693   8.642   8.882  12.662
 7954SOL    HW125694   8.573   8.841  12.715
 7954SOL    HW225695   8.674   8.812  12.606
 7955SOL     OW25696  10.348   5.167   0.505
 7955SOL    HW125697  10.372   5.088   0.553
 7955SOL    HW225698  10.283   5.211   0.561
 7956SOL     OW25699  10.214  11.946   7.087
 7956SOL    HW125700  10.137  11.906   7.046
 7956SOL    HW225701  10.213  11.911   7.177
 7957SOL     OW25702   7.838   5.923   3.187
 7957SOL    HW125703   7.814   6.013   3.208
 7957SOL    HW225704   7.889   5.929   3.106
 7958SOL     OW25705   2.582   2.271   2.867
 7958SOL    HW125706   2.565   2.196   2.810
 7958SOL    HW225707   2.545   2.346   2.820
 7959SOL     OW25708   6.936   6.178  10.516
 7959SOL    HW125709   6.919   6.269  10.491
 7959SOL    HW225710   6.969   6.184  10.606
 7960SOL     OW25711  11.136   8.726   5.085
 7960SOL    HW125712  11.091   8.663   5.140
 7960SOL    HW225713  11.175   8.673   5.015
 7961SOL     OW25714   7.996   3.193  11.241
 7961SOL    HW125715   7.995   3.109  11.196
 7961SOL    HW225716   7.983   3.171  11.333
 7962SOL     OW25717  11.884   6.025   7.782
 7962SOL    HW125718  11.833   5.944   7.779
 7962SOL    HW225719  11.877   6.055   7.872
 7963SOL     OW25720  14.020  12.961   3.003
 7963SOL    HW125721  14.102  12.917   3.027
 7963SOL    HW225722  13.962  12.944   3.077
 7964SOL     OW25723   5.364   3.518  12.128
 7964SOL    HW125724   5.432   3.581  12.105
 7964SOL    HW225725   5.383   3.495  12.219
 7965SOL     OW25726  14.611   6.128   6.974
 7965SOL    HW125727  14.661   6.112   6.894
 7965SOL    HW225728  14.576   6.216   6.963
 7966SOL     OW25729   5.036   8.625  13.079
 7966SOL    HW125730   5.130   8.625  13.062
 7966SOL    HW225731   5.017   8.537  13.111
 7967SOL     OW25732   8.525   7.839  12.676
 7967SOL    HW125733   8.542   7.767  12.615
 7967SOL    HW225734   8.484   7.798  12.752
 7968SOL     OW25735  10.878  14.637   6.319
 7968SOL    HW125736  10.964  14.595   6.326
 7968SOL    HW225737  10.874  14.669   6.229
 7969SOL     OW25738  12.490  11.752   5.335
 7969SOL    HW125739  12.508  11.683   5.271
 7969SOL    HW225740  12.509  11.711   5.420
 7970SOL     OW25741   3.768   5.449   4.262
 7970SOL    HW125742   3.682   5.407   4.269
 7970SOL    HW225743   3.830   5.383   4.292
 7971SOL     OW25744   8.969  10.806  14.763
 7971SOL    HW125745   8.959  10.758  14.846
 7971SOL    HW225746   9.062  10.796  14.741
 7972SOL     OW25747  10.196   4.971  10.132
 7972SOL    HW125748  10.111   4.984  10.175
 7972SOL    HW225749  10.194   4.880  10.103
 7973SOL     OW25750   3.670  10.383   6.418
 7973SOL    HW125751   3.632  10.308   6.463
 7973SOL    HW225752   3.726  10.345   6.350
 7974SOL     OW25753   4.066   7.885   0.464
 7974SOL    HW125754   3.984   7.886   0.512
 7974SOL    HW225755   4.133   7.899   0.530
 7975SOL     OW25756   1.490   9.376   5.443
 7975SOL    HW125757   1.562   9.398   5.385
 7975SOL    HW225758   1.528   9.376   5.531
 7976SOL     OW25759   0.737   3.501  11.082
 7976SOL    HW125760   0.818   3.552  11.091
 7976SOL    HW225761   0.668   3.566  11.078
 7977SOL     OW25762   0.162   6.859   7.054
 7977SOL    HW125763   0.200   6.816   7.131
 7977SOL    HW225764   0.076   6.818   7.044
 7978SOL     OW25765   5.959   8.284   1.488
 7978SOL    HW125766   5.920   8.235   1.414
 7978SOL    HW225767   6.032   8.332   1.449
 7979SOL     OW25768   8.012  13.339   6.199
 7979SOL    HW125769   7.994  13.328   6.293
 7979SOL    HW225770   8.037  13.251   6.169
 7980SOL     OW25771   3.655  13.424   7.534
 7980SOL    HW125772   3.673  13.508   7.492
 7980SOL    HW225773   3.601  13.376   7.471
 7981SOL     OW25774  14.069  10.565  13.208
 7981SOL    HW125775  13.982  10.532  13.231
 7981SOL    HW225776  14.109  10.496  13.156
 7982SOL     OW25777   5.527   0.702  11.362
 7982SOL    HW125778   5.471   0.687  11.438
 7982SOL    HW225779   5.614   0.674  11.390
 7983SOL     OW25780  12.332  13.918   0.798
 7983SOL    HW125781  12.420  13.882   0.789
 7983SOL    HW225782  12.299  13.882   0.880
 7984SOL     OW25783  14.706  11.746  13.602
 7984SOL    HW125784  14.697  11.666  13.550
 7984SOL    HW225785  14.771  11.724  13.669
 7985SOL     OW25786   1.465   5.943   2.518
 7985SOL    HW125787   1.545   5.964   2.470
 7985SOL    HW225788   1.394   5.966   2.458
 7986SOL     OW25789   1.266   2.593   6.060
 7986SOL    HW125790   1.341   2.628   6.013
 7986SOL    HW225791   1.254   2.505   6.025
 7987SOL     OW25792   5.781   2.480   1.344
 7987SOL    HW125793   5.771   2.567   1.383
 7987SOL    HW225794   5.844   2.435   1.400
 7988SOL     OW25795  13.388  13.423  12.791
 7988SOL    HW125796  13.326  13.371  12.842
 7988SOL    HW225797  13.333  13.479  12.736
 7989SOL     OW25798   9.704  10.922   9.430
 7989SOL    HW125799   9.770  10.868   9.474
 7989SOL    HW225800   9.713  11.008   9.470
 7990SOL     OW25801   4.884   7.942   5.828
 7990SOL    HW125802   4.949   7.899   5.773
 7990SOL    HW225803   4.836   7.871   5.869
 7991SOL     OW25804   9.732   8.038  11.246
 7991SOL    HW125805   9.756   8.130  11.233
 7991SOL    HW225806   9.665   8.022  11.180
 7992SOL     OW25807   8.735   2.478   3.750
 7992SOL    HW125808   8.715   2.500   3.659
 7992SOL    HW225809   8.654   2.437   3.782
 7993SOL     OW25810   1.189   2.828   5.609
 7993SOL    HW125811   1.127   2.898   5.589
 7993SOL    HW225812   1.209   2.839   5.702
 7994SOL     OW25813   6.115   6.558  10.553
 7994SOL    HW125814   6.068   6.528  10.475
 7994SOL    HW225815   6.204   6.523  10.542
 7995SOL     OW25816   2.637  14.223   6.616
 7995SOL    HW125817   2.554  14.242   6.660
 7995SOL    HW225818   2.632  14.130   6.595
 7996SOL     OW25819   5.893   2.725   5.837
 7996SOL    HW125820   5.910   2.814   5.806
 7996SOL    HW225821   5.822   2.694   5.781
 7997SOL     OW25822  14.553   7.751  14.231
 7997SOL    HW125823  14.556   7.659  14.256
 7997SOL    HW225824  14.593   7.753  14.144
 7998SOL     OW25825   6.362   9.957   4.059
 7998SOL    HW125826   6.355  10.026   4.126
 7998SOL    HW225827   6.312   9.884   4.095
 7999SOL     OW25828  11.272  12.175  12.726
 7999SOL    HW125829  11.276  12.270  12.726
 7999SOL    HW225830  11.258  12.151  12.634
 8000SOL     OW25831   4.305   8.816   8.744
 8000SOL    HW125832   4.319   8.830   8.650
 8000SOL    HW225833   4.252   8.890   8.773
 8001SOL     OW25834  13.583   3.781  10.824
 8001SOL    HW125835  13.533   3.701  10.812
 8001SOL    HW225836  13.671   3.759  10.792
 8002SOL     OW25837  12.246   2.543  10.844
 8002SOL    HW125838  12.304   2.607  10.887
 8002SOL    HW225839  12.302   2.499  10.780
 8003SOL     OW25840  11.001  10.328   1.534
 8003SOL    HW125841  11.057  10.367   1.602
 8003SOL    HW225842  11.037  10.361   1.452
 8004SOL     OW25843   0.522   6.257  12.157
 8004SOL    HW125844   0.512   6.266  12.252
 8004SOL    HW225845   0.463   6.324  12.120
 8005SOL     OW25846   2.181   8.176   8.644
 8005SOL    HW125847   2.228   8.152   8.723
 8005SOL    HW225848   2.092   8.144   8.658
 8006SOL     OW25849  12.332   6.305   4.880
 8006SOL    HW125850  12.383   6.346   4.949
 8006SOL    HW225851  12.304   6.221   4.917
 8007SOL     OW25852   1.766   8.407   4.363
 8007SOL    HW125853   1.856   8.438   4.351
 8007SOL    HW225854   1.766   8.319   4.325
 8008SOL     OW25855   5.557  13.544   6.576
 8008SOL    HW125856   5.597  13.466   6.613
 8008SOL    HW225857   5.585  13.615   6.635
 8009SOL     OW25858   3.468  12.005   2.964
 8009SOL    HW125859   3.549  11.967   2.931
 8009SOL    HW225860   3.402  11.937   2.949
 8010SOL     OW25861   9.530   6.883   7.736
 8010SOL    HW125862   9.526   6.821   7.809
 8010SOL    HW225863   9.462   6.947   7.756
 8011SOL     OW25864   3.647  11.432   9.139
 8011SOL    HW125865   3.603  11.478   9.210
 8011SOL    HW225866   3.726  11.396   9.179
 8012SOL     OW25867   3.992   0.170   4.263
 8012SOL    HW125868   3.955   0.258   4.256
 8012SOL    HW225869   3.934   0.115   4.211
 8013SOL     OW25870   0.827   0.060   9.585
 8013SOL    HW125871   0.911   0.103   9.567
 8013SOL    HW225872   0.791   0.109   9.658
 8014SOL     OW25873   8.760   1.275  10.682
 8014SOL    HW125874   8.847   1.311  10.662
 8014SOL    HW225875   8.704   1.309  10.612
 8015SOL     OW25876   2.806   6.576   8.133
 8015SOL    HW125877   2.796   6.521   8.055
 8015SOL    HW225878   2.901   6.578   8.148
 8016SOL     OW25879   4.385  10.928  14.497
 8016SOL    HW125880   4.430  10.999  14.451
 8016SOL    HW225881   4.316  10.901  14.438
 8017SOL     OW25882  12.594   6.357   1.371
 8017SOL    HW125883  12.621   6.280   1.322
 8017SOL    HW225884  12.507   6.336   1.404
 8018SOL     OW25885   7.709   0.662   3.103
 8018SOL    HW125886   7.740   0.615   3.180
 8018SOL    HW225887   7.747   0.750   3.112
 8019SOL     OW25888   9.149  13.845  13.456
 8019SOL    HW125889   9.224  13.866  13.400
 8019SOL    HW225890   9.143  13.749  13.453
 8020SOL     OW25891  12.427   7.832   6.526
 8020SOL    HW125892  12.496   7.898   6.524
 8020SOL    HW225893  12.409   7.819   6.618
 8021SOL     OW25894   4.449   8.077  14.482
 8021SOL    HW125895   4.381   8.027  14.528
 8021SOL    HW225896   4.438   8.053  14.390
 8022SOL     OW25897  12.238  12.940   9.410
 8022SOL    HW125898  12.268  12.858   9.450
 8022SOL    HW225899  12.144  12.925   9.394
 8023SOL     OW25900   2.163   0.351   8.527
 8023SOL    HW125901   2.132   0.303   8.604
 8023SOL    HW225902   2.083   0.385   8.486
 8024SOL     OW25903  14.085   4.712   6.800
 8024SOL    HW125904  14.163   4.668   6.766
 8024SOL    HW225905  14.117   4.766   6.872
 8025SOL     OW25906   3.050   2.165   9.184
 8025SOL    HW125907   3.084   2.126   9.265
 8025SOL    HW225908   2.998   2.095   9.145
 8026SOL     OW25909   5.957   5.803   6.292
 8026SOL    HW125910   6.002   5.852   6.362
 8026SOL    HW225911   6.029   5.768   6.238
 8027SOL     OW25912  12.755   1.371   8.761
 8027SOL    HW125913  12.698   1.295   8.767
 8027SOL    HW225914  12.841   1.336   8.737
 8028SOL     OW25915   2.837   5.212   6.533
 8028SOL    HW125916   2.877   5.291   6.569
 8028SOL    HW225917   2.879   5.200   6.448
 8029SOL     OW25918   3.773  14.713   9.747
 8029SOL    HW125919   3.701  14.747   9.695
 8029SOL    HW225920   3.835  14.785   9.752
 8030SOL     OW25921   0.641   7.764   1.462
 8030SOL    HW125922   0.659   7.670   1.453
 8030SOL    HW225923   0.561   7.778   1.413
 8031SOL     OW25924   8.075  11.550   8.108
 8031SOL    HW125925   8.006  11.500   8.152
 8031SOL    HW225926   8.033  11.633   8.084
 8032SOL     OW25927   3.844   2.391   9.723
 8032SOL    HW125928   3.823   2.484   9.731
 8032SOL    HW225929   3.775   2.346   9.771
 8033SOL     OW25930  11.453   7.856   6.189
 8033SOL    HW125931  11.510   7.870   6.114
 8033SOL    HW225932  11.465   7.935   6.243
 8034SOL     OW25933   0.856  10.904  14.356
 8034SOL    HW125934   0.894  10.983  14.316
 8034SOL    HW225935   0.799  10.938  14.425
 8035SOL     OW25936   5.751  13.359   0.488
 8035SOL    HW125937   5.661  13.391   0.476
 8035SOL    HW225938   5.754  13.277   0.440
 8036SOL     OW25939   1.963   6.375   2.090
 8036SOL    HW125940   2.051   6.337   2.085
 8036SOL    HW225941   1.912   6.309   2.137
 8037SOL     OW25942  11.635  11.202   0.046
 8037SOL    HW125943  11.606  11.139   0.112
 8037SOL    HW225944  11.682  11.269   0.095
 8038SOL     OW25945   0.603   4.500   0.181
 8038SOL    HW125946   0.655   4.538   0.110
 8038SOL    HW225947   0.616   4.560   0.254
 8039SOL     OW25948   6.225  11.851   0.741
 8039SOL    HW125949   6.246  11.757   0.735
 8039SOL    HW225950   6.184  11.871   0.657
 8040SOL     OW25951  11.197   2.685  10.461
 8040SOL    HW125952  11.270   2.626  10.477
 8040SOL    HW225953  11.196   2.742  10.537
 8041SOL     OW25954  11.762  12.265   3.888
 8041SOL    HW125955  11.762  12.172   3.863
 8041SOL    HW225956  11.813  12.267   3.969
 8042SOL     OW25957   6.478   7.187  13.741
 8042SOL    HW125958   6.454   7.234  13.821
 8042SOL    HW225959   6.440   7.100  13.752
 8043SOL     OW25960  13.901   0.815   0.525
 8043SOL    HW125961  13.953   0.811   0.445
 8043SOL    HW225962  13.963   0.793   0.595
 8044SOL     OW25963   9.162  13.577   4.729
 8044SOL    HW125964   9.104  13.652   4.741
 8044SOL    HW225965   9.204  13.565   4.814
 8045SOL     OW25966  12.034  13.311  13.114
 8045SOL    HW125967  11.988  13.345  13.191
 8045SOL    HW225968  12.015  13.376  13.046
 8046SOL     OW25969   6.918   5.539  11.846
 8046SOL    HW125970   6.855   5.566  11.780
 8046SOL    HW225971   7.002   5.573  11.815
 8047SOL     OW25972  10.278  12.545  14.331
 8047SOL    HW125973  10.327  12.621  14.363
 8047SOL    HW225974  10.346  12.486  14.298
 8048SOL     OW25975   1.328   0.425   2.250
 8048SOL    HW125976   1.296   0.450   2.163
 8048SOL    HW225977   1.409   0.377   2.233
 8049SOL     OW25978  14.066  11.609   5.538
 8049SOL    HW125979  14.148  11.601   5.588
 8049SOL    HW225980  14.000  11.631   5.604
 8050SOL     OW25981  13.319  11.709   1.282
 8050SOL    HW125982  13.255  11.639   1.296
 8050SOL    HW225983  13.400  11.677   1.321
 8051SOL     OW25984  13.734  12.235   0.347
 8051SOL    HW125985  13.667  12.237   0.279
 8051SOL    HW225986  13.708  12.165   0.407
 8052SOL     OW25987  13.822   0.694  13.924
 8052SOL    HW125988  13.846   0.777  13.967
 8052SOL    HW225989  13.754   0.657  13.980
 8053SOL     OW25990  11.430  10.610  10.483
 8053SOL    HW125991  11.472  10.666  10.418
 8053SOL    HW225992  11.503  10.569  10.530
 8054SOL     OW25993   1.444   0.897   1.064
 8054SOL    HW125994   1.425   0.965   0.999
 8054SOL    HW225995   1.369   0.837   1.059
 8055SOL     OW25996   9.842  10.998   3.929
 8055SOL    HW125997   9.840  11.046   4.012
 8055SOL    HW225998   9.755  11.011   3.892
 8056SOL     OW25999   5.506   7.483   7.543
 8056SOL    HW126000   5.492   7.561   7.597
 8056SOL    HW226001   5.481   7.511   7.455
 8057SOL     OW26002   3.919   4.202  12.534
 8057SOL    HW126003   3.872   4.229  12.455
 8057SOL    HW226004   3.885   4.114  12.552
 8058SOL     OW26005   3.440   6.750   4.674
 8058SOL    HW126006   3.524   6.715   4.646
 8058SOL    HW226007   3.410   6.688   4.741
 8059SOL     OW26008   9.496   7.850  12.151
 8059SOL    HW126009   9.426   7.811  12.204
 8059SOL    HW226010   9.554   7.892  12.214
 8060SOL     OW26011  13.544  13.848  13.658
 8060SOL    HW126012  13.561  13.884  13.745
 8060SOL    HW226013  13.541  13.924  13.600
 8061SOL     OW26014   2.425  11.743  13.732
 8061SOL    HW126015   2.375  11.673  13.693
 8061SOL    HW226016   2.421  11.815  13.668
 8062SOL     OW26017  10.020   7.398   7.321
 8062SOL    HW126018  10.092   7.345   7.356
 8062SOL    HW226019   9.950   7.389   7.387
 8063SOL     OW26020   5.071   2.864  10.240
 8063SOL    HW126021   5.043   2.916  10.164
 8063SOL    HW226022   5.156   2.828  10.214
 8064SOL     OW26023  14.815  11.621   8.552
 8064SOL    HW126024  14.882  11.573   8.503
 8064SOL    HW226025  14.745  11.557   8.566
 8065SOL     OW26026   9.595  13.815   0.358
 8065SOL    HW126027   9.636  13.773   0.434
 8065SOL    HW226028   9.666  13.864   0.316
 8066SOL     OW26029   4.271   0.226   7.025
 8066SOL    HW126030   4.200   0.162   7.031
 8066SOL    HW226031   4.319   0.216   7.107
 8067SOL     OW26032   3.005   6.823   7.573
 8067SOL    HW126033   3.026   6.897   7.631
 8067SOL    HW226034   2.945   6.859   7.508
 8068SOL     OW26035  14.837  12.518   6.399
 8068SOL    HW126036  14.751  12.479   6.412
 8068SOL    HW226037  14.862  12.494   6.310
 8069SOL     OW26038   6.505  12.454   4.610
 8069SOL    HW126039   6.481  12.369   4.573
 8069SOL    HW226040   6.421  12.497   4.629
 8070SOL     OW26041   1.275   1.650   1.175
 8070SOL    HW126042   1.267   1.566   1.131
 8070SOL    HW226043   1.186   1.684   1.178
 8071SOL     OW26044  13.052   8.975   9.305
 8071SOL    HW126045  13.111   8.922   9.252
 8071SOL    HW226046  13.008   8.913   9.362
 8072SOL     OW26047   9.193  11.871  14.216
 8072SOL    HW126048   9.250  11.902  14.287
 8072SOL    HW226049   9.109  11.914  14.232
 8073SOL     OW26050   4.751   5.027   7.814
 8073SOL    HW126051   4.798   5.067   7.887
 8073SOL    HW226052   4.711   4.948   7.851
 8074SOL     OW26053   9.653   0.976   5.317
 8074SOL    HW126054   9.721   0.979   5.249
 8074SOL    HW226055   9.621   0.885   5.314
 8075SOL     OW26056   3.082   2.029   3.314
 8075SOL    HW126057   3.166   1.997   3.282
 8075SOL    HW226058   3.095   2.124   3.323
 8076SOL     OW26059  10.062   9.616   5.711
 8076SOL    HW126060  10.030   9.576   5.791
 8076SOL    HW226061  10.088   9.542   5.655
 8077SOL     OW26062   5.407   3.635  12.404
 8077SOL    HW126063   5.459   3.673  12.333
 8077SOL    HW226064   5.443   3.547  12.415
 8078SOL     OW26065  14.780   9.948   9.225
 8078SOL    HW126066  14.776   9.891   9.149
 8078SOL    HW226067  14.767  10.036   9.191
 8079SOL     OW26068  12.995  12.889   3.064
 8079SOL    HW126069  13.014  12.806   3.021
 8079SOL    HW226070  13.043  12.885   3.147
 8080SOL     OW26071   6.163   1.984   5.409
 8080SOL    HW126072   6.194   1.946   5.327
 8080SOL    HW226073   6.106   2.057   5.382
 8081SOL     OW26074   9.892   9.746   0.622
 8081SOL    HW126075   9.941   9.826   0.640
 8081SOL    HW226076   9.945   9.700   0.557
 8082SOL     OW26077  11.002  11.720   4.267
 8082SOL    HW126078  11.010  11.635   4.310
 8082SOL    HW226079  10.938  11.767   4.321
 8083SOL     OW26080   2.918  12.481   6.559
 8083SOL    HW126081   2.839  12.509   6.514
 8083SOL    HW226082   2.963  12.562   6.582
 8084SOL     OW26083   2.546  11.155   5.876
 8084SOL    HW126084   2.555  11.204   5.794
 8084SOL    HW226085   2.498  11.215   5.933
 8085SOL     OW26086  11.885   7.121   6.667
 8085SOL    HW126087  11.828   7.091   6.597
 8085SOL    HW226088  11.926   7.041   6.701
 8086SOL     OW26089   5.624   0.888   1.763
 8086SOL    HW126090   5.630   0.865   1.855
 8086SOL    HW226091   5.570   0.968   1.761
 8087SOL     OW26092   8.612   0.839   7.610
 8087SOL    HW126093   8.632   0.754   7.650
 8087SOL    HW226094   8.537   0.822   7.554
 8088SOL     OW26095   0.925   3.886  12.033
 8088SOL    HW126096   0.847   3.941  12.044
 8088SOL    HW226097   0.890   3.798  12.019
 8089SOL     OW26098   4.083  10.724   2.121
 8089SOL    HW126099   4.025  10.771   2.181
 8089SOL    HW226100   4.069  10.632   2.142
 8090SOL     OW26101  13.061  11.397   9.233
 8090SOL    HW126102  13.015  11.377   9.314
 8090SOL    HW226103  13.101  11.314   9.207
 8091SOL     OW26104   2.056   6.138   1.698
 8091SOL    HW126105   2.107   6.117   1.777
 8091SOL    HW226106   2.092   6.222   1.669
 8092SOL     OW26107   2.434  12.692   2.909
 8092SOL    HW126108   2.510  12.654   2.864
 8092SOL    HW226109   2.414  12.630   2.979
 8093SOL     OW26110   4.005  11.563   4.643
 8093SOL    HW126111   3.927  11.589   4.594
 8093SOL    HW226112   4.035  11.482   4.600
 8094SOL     OW26113  12.345   8.345   1.313
 8094SOL    HW126114  12.368   8.293   1.390
 8094SOL    HW226115  12.305   8.424   1.349
 8095SOL     OW26116   9.389   9.064   1.937
 8095SOL    HW126117   9.465   9.119   1.915
 8095SOL    HW226118   9.341   9.056   1.855
 8096SOL     OW26119   3.992   8.968   9.108
 8096SOL    HW126120   3.928   8.931   9.047
 8096SOL    HW226121   4.001   8.903   9.177
 8097SOL     OW26122   4.422   7.562   2.352
 8097SOL    HW126123   4.347   7.614   2.381
 8097SOL    HW226124   4.478   7.555   2.430
 8098SOL     OW26125  13.994   1.833   6.708
 8098SOL    HW126126  14.082   1.818   6.673
 8098SOL    HW226127  13.939   1.841   6.631
 8099SOL     OW26128   1.595   1.103   6.501
 8099SOL    HW126129   1.553   1.106   6.415
 8099SOL    HW226130   1.687   1.122   6.483
 8100SOL     OW26131   7.393   0.182  10.412
 8100SOL    HW126132   7.325   0.116  10.396
 8100SOL    HW226133   7.473   0.142  10.378
 8101SOL     OW26134  12.494   4.861   1.023
 8101SOL    HW126135  12.564   4.919   1.053
 8101SOL    HW226136  12.483   4.882   0.931
 8102SOL     OW26137   4.065   3.597   6.826
 8102SOL    HW126138   3.975   3.627   6.818
 8102SOL    HW226139   4.059   3.512   6.870
 8103SOL     OW26140   6.614   1.251  14.009
 8103SOL    HW126141   6.521   1.229  14.016
 8103SOL    HW226142   6.618   1.343  14.036
 8104SOL     OW26143   8.929   7.771   6.184
 8104SOL    HW126144   8.970   7.695   6.143
 8104SOL    HW226145   8.869   7.734   6.249
 8105SOL     OW26146  12.906  10.927   9.362
 8105SOL    HW126147  12.826  10.874   9.358
 8105SOL    HW226148  12.925  10.934   9.455
 8106SOL     OW26149   4.360   6.128  14.396
 8106SOL    HW126150   4.299   6.106  14.326
 8106SOL    HW226151   4.346   6.060  14.462
 8107SOL     OW26152  11.959   2.335   5.277
 8107SOL    HW126153  11.921   2.408   5.229
 8107SOL    HW226154  11.933   2.257   5.227
 8108SOL     OW26155   2.790   7.247   3.388
 8108SOL    HW126156   2.817   7.306   3.318
 8108SOL    HW226157   2.816   7.160   3.358
 8109SOL     OW26158   2.262  10.306   6.057
 8109SOL    HW126159   2.279  10.245   6.129
 8109SOL    HW226160   2.332  10.371   6.064
 8110SOL     OW26161   8.182   1.780  13.118
 8110SOL    HW126162   8.178   1.849  13.184
 8110SOL    HW226163   8.186   1.827  13.035
 8111SOL     OW26164  13.277  12.575   2.170
 8111SOL    HW126165  13.364  12.607   2.193
 8111SOL    HW226166  13.246  12.636   2.103
 8112SOL     OW26167   3.923   0.566  14.805
 8112SOL    HW126168   3.902   0.635  14.868
 8112SOL    HW226169   3.862   0.496  14.826
 8113SOL     OW26170  10.812  14.077   2.658
 8113SOL    HW126171  10.895  14.042   2.626
 8113SOL    HW226172  10.749  14.007   2.641
 8114SOL     OW26173   2.943   6.451   8.452
 8114SOL    HW126174   3.017   6.398   8.423
 8114SOL    HW226175   2.966   6.540   8.426
 8115SOL     OW26176  12.010  12.074   1.253
 8115SOL    HW126177  12.102  12.053   1.236
 8115SOL    HW226178  11.963  12.036   1.180
 8116SOL     OW26179  13.009   4.321  14.152
 8116SOL    HW126180  13.038   4.270  14.076
 8116SOL    HW226181  13.067   4.294  14.223
 8117SOL     OW26182   3.943   2.347   8.158
 8117SOL    HW126183   3.956   2.278   8.224
 8117SOL    HW226184   3.850   2.368   8.163
 8118SOL     OW26185   2.558  11.245   9.038
 8118SOL    HW126186   2.638  11.292   9.061
 8118SOL    HW226187   2.572  11.157   9.073
 8119SOL     OW26188   5.258   8.954   6.381
 8119SOL    HW126189   5.352   8.951   6.365
 8119SOL    HW226190   5.238   8.871   6.425
 8120SOL     OW26191   7.280   7.706   6.209
 8120SOL    HW126192   7.220   7.771   6.244
 8120SOL    HW226193   7.364   7.750   6.205
 8121SOL     OW26194   7.258   6.645   4.958
 8121SOL    HW126195   7.317   6.699   4.906
 8121SOL    HW226196   7.280   6.555   4.933
 8122SOL     OW26197   0.035   7.268   3.761
 8122SOL    HW126198   0.051   7.272   3.667
 8122SOL    HW226199  14.826   7.241   3.769
 8123SOL     OW26200   4.254  14.623   6.706
 8123SOL    HW126201   4.270  14.591   6.618
 8123SOL    HW226202   4.339  14.656   6.735
 8124SOL     OW26203   0.096   6.498  14.105
 8124SOL    HW126204   0.138   6.477  14.021
 8124SOL    HW226205   0.093   6.415  14.152
 8125SOL     OW26206   9.246   0.543   5.555
 8125SOL    HW126207   9.341   0.529   5.551
 8125SOL    HW226208   9.216   0.483   5.623
 8126SOL     OW26209  10.374  12.637   2.448
 8126SOL    HW126210  10.440  12.682   2.394
 8126SOL    HW226211  10.420  12.614   2.528
 8127SOL     OW26212  13.699   1.158   9.272
 8127SOL    HW126213  13.632   1.216   9.236
 8127SOL    HW226214  13.662   1.126   9.355
 8128SOL     OW26215  13.257  13.733   6.508
 8128SOL    HW126216  13.233  13.666   6.444
 8128SOL    HW226217  13.180  13.741   6.564
 8129SOL     OW26218   9.670   1.500  13.308
 8129SOL    HW126219   9.645   1.499  13.401
 8129SOL    HW226220   9.763   1.525  13.309
 8130SOL     OW26221  10.682  11.220  13.456
 8130SOL    HW126222  10.616  11.165  13.499
 8130SOL    HW226223  10.713  11.166  13.383
 8131SOL     OW26224   6.315   3.462   5.998
 8131SOL    HW126225   6.236   3.515   6.012
 8131SOL    HW226226   6.385   3.514   6.036
 8132SOL     OW26227  10.200  12.148   7.538
 8132SOL    HW126228  10.140  12.158   7.612
 8132SOL    HW226229  10.183  12.060   7.504
 8133SOL     OW26230  10.495   1.187   2.882
 8133SOL    HW126231  10.562   1.253   2.863
 8133SOL    HW226232  10.544   1.105   2.889
 8134SOL     OW26233   7.617   8.939   3.145
 8134SOL    HW126234   7.669   8.968   3.070
 8134SOL    HW226235   7.574   9.019   3.175
 8135SOL     OW26236   4.462   8.021   0.542
 8135SOL    HW126237   4.537   8.065   0.501
 8135SOL    HW226238   4.476   7.929   0.524
 8136SOL     OW26239   1.339   9.393  11.086
 8136SOL    HW126240   1.306   9.351  11.165
 8136SOL    HW226241   1.274   9.460  11.066
 8137SOL     OW26242  14.024  10.001  11.987
 8137SOL    HW126243  14.001   9.923  11.937
 8137SOL    HW226244  14.046  10.067  11.921
 8138SOL     OW26245   2.713   3.434   7.539
 8138SOL    HW126246   2.761   3.449   7.620
 8138SOL    HW226247   2.683   3.521   7.513
 8139SOL     OW26248   9.333  11.820   5.856
 8139SOL    HW126249   9.308  11.727   5.857
 8139SOL    HW226250   9.260  11.864   5.814
 8140SOL     OW26251   3.173  10.543  13.390
 8140SOL    HW126252   3.175  10.615  13.453
 8140SOL    HW226253   3.100  10.564  13.332
 8141SOL     OW26254   2.373  10.081  12.943
 8141SOL    HW126255   2.419  10.132  12.877
 8141SOL    HW226256   2.283  10.112  12.939
 8142SOL     OW26257  10.264   7.303   3.920
 8142SOL    HW126258  10.251   7.217   3.961
 8142SOL    HW226259  10.176   7.338   3.909
 8143SOL     OW26260   0.604  13.285  13.540
 8143SOL    HW126261   0.678  13.335  13.574
 8143SOL    HW226262   0.632  13.194  13.542
 8144SOL     OW26263  12.505   0.952  13.318
 8144SOL    HW126264  12.515   1.002  13.400
 8144SOL    HW226265  12.429   0.992  13.275
 8145SOL     OW26266  14.501   7.745  13.238
 8145SOL    HW126267  14.464   7.812  13.296
 8145SOL    HW226268  14.476   7.774  13.150
 8146SOL     OW26269   9.570   5.091   4.067
 8146SOL    HW126270   9.518   5.033   4.121
 8146SOL    HW226271   9.653   5.101   4.115
 8147SOL     OW26272   3.228  10.146   5.877
 8147SOL    HW126273   3.260  10.236   5.870
 8147SOL    HW226274   3.169  10.135   5.802
 8148SOL     OW26275  10.421  12.298   5.343
 8148SOL    HW126276  10.365  12.364   5.384
 8148SOL    HW226277  10.387  12.214   5.375
 8149SOL     OW26278   7.229   8.199  10.371
 8149SOL    HW126279   7.158   8.251  10.409
 8149SOL    HW226280   7.184   8.140  10.310
 8150SOL     OW26281   9.800   5.387  12.379
 8150SOL    HW126282   9.807   5.307  12.431
 8150SOL    HW226283   9.780   5.356  12.290
 8151SOL     OW26284   9.429   2.513  11.452
 8151SOL    HW126285   9.488   2.481  11.520
 8151SOL    HW226286   9.419   2.606  11.471
 8152SOL     OW26287   8.259   7.224   7.825
 8152SOL    HW126288   8.274   7.316   7.845
 8152SOL    HW226289   8.246   7.222   7.730
 8153SOL     OW26290   8.102   1.243   0.777
 8153SOL    HW126291   8.016   1.272   0.746
 8153SOL    HW226292   8.164   1.289   0.721
 8154SOL     OW26293   9.812  12.934  13.582
 8154SOL    HW126294   9.773  12.917  13.668
 8154SOL    HW226295   9.768  12.874  13.523
 8155SOL     OW26296  11.680   8.974  10.743
 8155SOL    HW126297  11.608   8.921  10.710
 8155SOL    HW226298  11.724   9.005  10.663
 8156SOL     OW26299   2.209   8.478   3.020
 8156SOL    HW126300   2.282   8.418   3.006
 8156SOL    HW226301   2.233   8.557   2.972
 8157SOL     OW26302  11.976   6.928  13.168
 8157SOL    HW126303  11.887   6.955  13.192
 8157SOL    HW226304  12.015   6.899  13.251
 8158SOL     OW26305   5.413   5.553   2.734
 8158SOL    HW126306   5.414   5.646   2.759
 8158SOL    HW226307   5.341   5.547   2.670
 8159SOL     OW26308   0.126  11.846   0.036
 8159SOL    HW126309   0.191  11.857   0.106
 8159SOL    HW226310   0.160  11.897  14.845
 8160SOL     OW26311   3.921   3.341   8.109
 8160SOL    HW126312   3.997   3.397   8.126
 8160SOL    HW226313   3.867   3.392   8.048
 8161SOL     OW26314   1.432   1.274   6.309
 8161SOL    HW126315   1.387   1.331   6.245
 8161SOL    HW226316   1.522   1.306   6.310
 8162SOL     OW26317   4.653   9.068  11.025
 8162SOL    HW126318   4.721   9.069  10.957
 8162SOL    HW226319   4.575   9.034  10.981
 8163SOL     OW26320  12.521   6.865  13.042
 8163SOL    HW126321  12.578   6.832  12.972
 8163SOL    HW226322  12.447   6.905  12.995
 8164SOL     OW26323   3.818   6.571   4.450
 8164SOL    HW126324   3.821   6.601   4.541
 8164SOL    HW226325   3.794   6.649   4.400
 8165SOL     OW26326   7.135  11.282   7.388
 8165SOL    HW126327   7.221  11.308   7.355
 8165SOL    HW226328   7.152  11.205   7.441
 8166SOL     OW26329   4.519   3.818  14.760
 8166SOL    HW126330   4.569   3.869  14.824
 8166SOL    HW226331   4.583   3.757  14.723
 8167SOL     OW26332   3.646  10.296  12.986
 8167SOL    HW126333   3.738  10.289  12.960
 8167SOL    HW226334   3.607  10.351  12.918
 8168SOL     OW26335   1.464  10.338   5.714
 8168SOL    HW126336   1.498  10.265   5.662
 8168SOL    HW226337   1.390  10.371   5.663
 8169SOL     OW26338   2.268   3.314   6.359
 8169SOL    HW126339   2.361   3.336   6.366
 8169SOL    HW226340   2.223   3.391   6.395
 8170SOL     OW26341   0.280  10.520   7.826
 8170SOL    HW126342   0.342  10.591   7.811
 8170SOL    HW226343   0.215  10.558   7.886
 8171SOL     OW26344   0.740   1.348  11.592
 8171SOL    HW126345   0.719   1.291  11.518
 8171SOL    HW226346   0.833   1.368  11.581
 8172SOL     OW26347   2.079   5.443   5.844
 8172SOL    HW126348   2.155   5.496   5.865
 8172SOL    HW226349   2.004   5.499   5.866
 8173SOL     OW26350   2.713   4.235   6.422
 8173SOL    HW126351   2.711   4.172   6.349
 8173SOL    HW226352   2.772   4.304   6.393
 8174SOL     OW26353   4.308   6.873   7.599
 8174SOL    HW126354   4.241   6.813   7.632
 8174SOL    HW226355   4.265   6.920   7.527
 8175SOL     OW26356  13.215  14.354   7.958
 8175SOL    HW126357  13.302  14.388   7.980
 8175SOL    HW226358  13.214  14.353   7.862
 8176SOL     OW26359   3.082   0.411   1.695
 8176SOL    HW126360   3.013   0.375   1.640
 8176SOL    HW226361   3.150   0.343   1.696
 8177SOL     OW26362   0.306   5.108   8.559
 8177SOL    HW126363   0.371   5.117   8.489
 8177SOL    HW226364   0.230   5.158   8.528
 8178SOL     OW26365   9.671   1.598  12.303
 8178SOL    HW126366   9.656   1.547  12.223
 8178SOL    HW226367   9.751   1.647  12.285
 8179SOL     OW26368   2.475  13.374   6.092
 8179SOL    HW126369   2.385  13.343   6.089
 8179SOL    HW226370   2.476  13.436   6.165
 8180SOL     OW26371   6.613   1.872   0.812
 8180SOL    HW126372   6.645   1.796   0.860
 8180SOL    HW226373   6.545   1.909   0.868
 8181SOL     OW26374   2.274   3.906  11.653
 8181SOL    HW126375   2.272   3.907  11.558
 8181SOL    HW226376   2.344   3.845  11.675
 8182SOL     OW26377  12.126   0.629  12.290
 8182SOL    HW126378  12.060   0.688  12.325
 8182SOL    HW226379  12.117   0.637  12.195
 8183SOL     OW26380   7.431   8.064   2.412
 8183SOL    HW126381   7.338   8.045   2.408
 8183SOL    HW226382   7.459   8.033   2.498
 8184SOL     OW26383   1.234  14.685   8.300
 8184SOL    HW126384   1.283  14.767   8.295
 8184SOL    HW226385   1.149  14.710   8.335
 8185SOL     OW26386  14.085   0.560  13.845
 8185SOL    HW126387  14.048   0.537  13.760
 8185SOL    HW226388  14.012   0.598  13.894
 8186SOL     OW26389   7.809   5.545   8.812
 8186SOL    HW126390   7.740   5.611   8.813
 8186SOL    HW226391   7.779   5.479   8.874
 8187SOL     OW26392  10.148   1.136   7.165
 8187SOL    HW126393  10.129   1.230   7.160
 8187SOL    HW226394  10.063   1.095   7.181
 8188SOL     OW26395   6.112   9.427  12.261
 8188SOL    HW126396   6.186   9.459  12.313
 8188SOL    HW226397   6.125   9.332  12.257
 8189SOL     OW26398  13.739   4.683   6.305
 8189SOL    HW126399  13.818   4.684   6.359
 8189SOL    HW226400  13.677   4.739   6.352
 8190SOL     OW26401   8.440  14.855   5.214
 8190SOL    HW126402   8.437  14.769   5.173
 8190SOL    HW226403   8.354  14.864   5.257
 8191SOL     OW26404   5.409   2.167   1.712
 8191SOL    HW126405   5.321   2.189   1.682
 8191SOL    HW226406   5.405   2.179   1.807
 8192SOL     OW26407   4.854   6.662  11.670
 8192SOL    HW126408   4.778   6.720  11.676
 8192SOL    HW226409   4.862   6.625  11.758
 8193SOL     OW26410   2.293  12.353   8.431
 8193SOL    HW126411   2.357  12.282   8.431
 8193SOL    HW226412   2.346  12.433   8.425
 8194SOL     OW26413  12.759   0.801   0.739
 8194SOL    HW126414  12.738   0.728   0.681
 8194SOL    HW226415  12.721   0.777   0.824
 8195SOL     OW26416   1.486   5.833   8.468
 8195SOL    HW126417   1.417   5.852   8.531
 8195SOL    HW226418   1.567   5.848   8.515
 8196SOL     OW26419   8.616   5.366   8.346
 8196SOL    HW126420   8.525   5.356   8.317
 8196SOL    HW226421   8.659   5.413   8.275
 8197SOL     OW26422   9.141  12.834   4.024
 8197SOL    HW126423   9.118  12.748   4.060
 8197SOL    HW226424   9.074  12.893   4.058
 8198SOL     OW26425  13.028   6.574   4.965
 8198SOL    HW126426  13.093   6.561   5.034
 8198SOL    HW226427  13.022   6.488   4.922
 8199SOL     OW26428  11.686   5.238  14.453
 8199SOL    HW126429  11.608   5.277  14.414
 8199SOL    HW226430  11.744   5.312  14.470
 8200SOL     OW26431  12.229   0.140   3.493
 8200SOL    HW126432  12.258   0.055   3.526
 8200SOL    HW226433  12.308   0.195   3.495
 8201SOL     OW26434  14.581   3.790   7.044
 8201SOL    HW126435  14.542   3.855   7.102
 8201SOL    HW226436  14.668   3.774   7.080
 8202SOL     OW26437   9.114   3.078   7.764
 8202SOL    HW126438   9.128   3.170   7.785
 8202SOL    HW226439   9.192   3.052   7.714
 8203SOL     OW26440   8.096  13.978   6.668
 8203SOL    HW126441   8.094  13.929   6.751
 8203SOL    HW226442   8.147  13.923   6.609
 8204SOL     OW26443  13.646   7.700  12.375
 8204SOL    HW126444  13.587   7.655  12.315
 8204SOL    HW226445  13.673   7.633  12.438
 8205SOL     OW26446  10.973   1.407  12.128
 8205SOL    HW126447  10.991   1.386  12.037
 8205SOL    HW226448  10.878   1.396  12.137
 8206SOL     OW26449  11.244   4.638   0.439
 8206SOL    HW126450  11.199   4.679   0.365
 8206SOL    HW226451  11.179   4.636   0.509
 8207SOL     OW26452  11.199  12.777  10.450
 8207SOL    HW126453  11.221  12.684  10.458
 8207SOL    HW226454  11.115  12.786  10.495
 8208SOL     OW26455   7.851  12.528   7.283
 8208SOL    HW126456   7.844  12.544   7.377
 8208SOL    HW226457   7.941  12.551   7.260
 8209SOL     OW26458   5.256  12.328   0.564
 8209SOL    HW126459   5.165  12.326   0.534
 8209SOL    HW226460   5.252  12.366   0.652
 8210SOL     OW26461   7.683   0.953   5.596
 8210SOL    HW126462   7.684   1.016   5.668
 8210SOL    HW226463   7.715   1.002   5.520
 8211SOL     OW26464  11.086   2.832   9.203
 8211SOL    HW126465  11.017   2.843   9.269
 8211SOL    HW226466  11.038   2.818   9.121
 8212SOL     OW26467  11.052   9.770   5.319
 8212SOL    HW126468  11.026   9.862   5.307
 8212SOL    HW226469  11.146   9.774   5.336
 8213SOL     OW26470  14.121   8.717   6.686
 8213SOL    HW126471  14.143   8.655   6.755
 8213SOL    HW226472  14.053   8.673   6.635
 8214SOL     OW26473  14.038   7.788   5.414
 8214SOL    HW126474  14.115   7.845   5.414
 8214SOL    HW226475  14.072   7.702   5.392
 8215SOL     OW26476   0.873   5.463   0.858
 8215SOL    HW126477   0.934   5.390   0.862
 8215SOL    HW226478   0.861   5.489   0.949
 8216SOL     OW26479   0.332   1.752  12.436
 8216SOL    HW126480   0.239   1.775  12.442
 8216SOL    HW226481   0.346   1.691  12.508
 8217SOL     OW26482   9.903  13.609   7.519
 8217SOL    HW126483   9.879  13.517   7.510
 8217SOL    HW226484   9.998  13.609   7.518
 8218SOL     OW26485  14.605   1.363   2.709
 8218SOL    HW126486  14.558   1.440   2.678
 8218SOL    HW226487  14.628   1.382   2.799
 8219SOL     OW26488   0.072  12.910   5.233
 8219SOL    HW126489   0.063  12.950   5.319
 8219SOL    HW226490   0.054  12.982   5.172
 8220SOL     OW26491   3.287   2.349  14.248
 8220SOL    HW126492   3.355   2.416  14.240
 8220SOL    HW226493   3.310   2.301  14.328
 8221SOL     OW26494  11.830   5.254  12.255
 8221SOL    HW126495  11.759   5.210  12.209
 8221SOL    HW226496  11.907   5.199  12.237
 8222SOL     OW26497   0.048   3.620   2.572
 8222SOL    HW126498   0.071   3.671   2.495
 8222SOL    HW226499   0.130   3.607   2.618
 8223SOL     OW26500  12.575   1.220   3.805
 8223SOL    HW126501  12.581   1.124   3.810
 8223SOL    HW226502  12.483   1.236   3.786
 8224SOL     OW26503   7.610   8.067  12.120
 8224SOL    HW126504   7.543   8.113  12.171
 8224SOL    HW226505   7.685   8.127  12.120
 8225SOL     OW26506   6.472   1.410   0.785
 8225SOL    HW126507   6.537   1.379   0.848
 8225SOL    HW226508   6.454   1.500   0.811
 8226SOL     OW26509   3.883  13.503  11.965
 8226SOL    HW126510   3.847  13.491  11.877
 8226SOL    HW226511   3.966  13.456  11.963
 8227SOL     OW26512   1.475   6.296   4.934
 8227SOL    HW126513   1.476   6.327   4.844
 8227SOL    HW226514   1.395   6.244   4.941
 8228SOL     OW26515   3.408   0.908   7.011
 8228SOL    HW126516   3.479   0.955   7.055
 8228SOL    HW226517   3.390   0.834   7.068
 8229SOL     OW26518  14.125   3.501   4.096
 8229SOL    HW126519  14.042   3.520   4.138
 8229SOL    HW226520  14.160   3.587   4.072
 8230SOL     OW26521   5.560  14.766  10.096
 8230SOL    HW126522   5.512  14.806  10.169
 8230SOL    HW226523   5.616  14.836  10.064
 8231SOL     OW26524   8.326   9.972   1.694
 8231SOL    HW126525   8.308   9.962   1.787
 8231SOL    HW226526   8.320  10.067   1.678
 8232SOL     OW26527   9.195   7.621  11.702
 8232SOL    HW126528   9.149   7.619  11.618
 8232SOL    HW226529   9.129   7.594  11.766
 8233SOL     OW26530   0.777  11.867  11.940
 8233SOL    HW126531   0.812  11.948  11.902
 8233SOL    HW226532   0.812  11.797  11.885
 8234SOL     OW26533  14.620   0.481   2.029
 8234SOL    HW126534  14.673   0.420   1.978
 8234SOL    HW226535  14.615   0.560   1.976
 8235SOL     OW26536  10.005   1.910   6.102
 8235SOL    HW126537   9.975   1.944   6.018
 8235SOL    HW226538   9.940   1.845   6.127
 8236SOL     OW26539   3.101   7.935   8.642
 8236SOL    HW126540   3.018   7.980   8.627
 8236SOL    HW226541   3.083   7.844   8.621
 8237SOL     OW26542   7.994   5.773  10.823
 8237SOL    HW126543   8.041   5.842  10.870
 8237SOL    HW226544   7.913   5.760  10.873
 8238SOL     OW26545   0.295   0.700   9.623
 8238SOL    HW126546   0.341   0.631   9.670
 8238SOL    HW226547   0.364   0.751   9.581
 8239SOL     OW26548   7.480  13.913   3.798
 8239SOL    HW126549   7.540  13.878   3.864
 8239SOL    HW226550   7.481  14.008   3.812
 8240SOL     OW26551  12.035   7.734   5.333
 8240SOL    HW126552  11.951   7.747   5.288
 8240SOL    HW226553  12.068   7.822   5.346
 8241SOL     OW26554   2.788  14.226  12.938
 8241SOL    HW126555   2.770  14.166  12.865
 8241SOL    HW226556   2.881  14.214  12.957
 8242SOL     OW26557   9.126  11.747  11.683
 8242SOL    HW126558   9.138  11.841  11.671
 8242SOL    HW226559   9.215  11.710  11.677
 8243SOL     OW26560   8.813   7.190   8.275
 8243SOL    HW126561   8.859   7.223   8.353
 8243SOL    HW226562   8.723   7.217   8.287
 8244SOL     OW26563  14.560   5.565   2.821
 8244SOL    HW126564  14.549   5.651   2.781
 8244SOL    HW226565  14.494   5.562   2.890
 8245SOL     OW26566   6.395  12.229  10.498
 8245SOL    HW126567   6.416  12.236  10.405
 8245SOL    HW226568   6.314  12.280  10.507
 8246SOL     OW26569   9.362   6.986  10.639
 8246SOL    HW126570   9.379   6.903  10.683
 8246SOL    HW226571   9.428   6.992  10.571
 8247SOL     OW26572   2.344  11.290   6.113
 8247SOL    HW126573   2.377  11.326   6.195
 8247SOL    HW226574   2.272  11.349   6.089
 8248SOL     OW26575  12.408  11.024   5.128
 8248SOL    HW126576  12.409  11.093   5.193
 8248SOL    HW226577  12.333  10.969   5.151
 8249SOL     OW26578   1.934  11.464  11.529
 8249SOL    HW126579   2.023  11.484  11.499
 8249SOL    HW226580   1.928  11.369  11.524
 8250SOL     OW26581   1.630   7.834   6.973
 8250SOL    HW126582   1.558   7.887   6.939
 8250SOL    HW226583   1.622   7.839   7.068
 8251SOL     OW26584  13.035  10.571   3.282
 8251SOL    HW126585  12.963  10.633   3.291
 8251SOL    HW226586  13.047  10.560   3.188
 8252SOL     OW26587   9.054   6.571   6.679
 8252SOL    HW126588   9.075   6.477   6.687
 8252SOL    HW226589   9.085   6.595   6.592
 8253SOL     OW26590   1.882   0.731  12.403
 8253SOL    HW126591   1.888   0.679  12.483
 8253SOL    HW226592   1.973   0.743  12.375
 8254SOL     OW26593  13.646   7.778   6.497
 8254SOL    HW126594  13.663   7.805   6.406
 8254SOL    HW226595  13.651   7.683   6.494
 8255SOL     OW26596   9.360   7.239   3.465
 8255SOL    HW126597   9.361   7.327   3.427
 8255SOL    HW226598   9.276   7.234   3.510
 8256SOL     OW26599   3.938  14.663   9.481
 8256SOL    HW126600   3.991  14.584   9.492
 8256SOL    HW226601   3.916  14.691   9.570
 8257SOL     OW26602   2.171   2.537   7.911
 8257SOL    HW126603   2.133   2.568   7.993
 8257SOL    HW226604   2.236   2.603   7.887
 8258SOL     OW26605   8.628  11.883   1.273
 8258SOL    HW126606   8.621  11.847   1.185
 8258SOL    HW226607   8.713  11.928   1.274
 8259SOL     OW26608   0.473  10.506  14.330
 8259SOL    HW126609   0.434  10.429  14.373
 8259SOL    HW226610   0.560  10.513  14.367
 8260SOL     OW26611   2.940  11.354   2.801
 8260SOL    HW126612   2.941  11.293   2.874
 8260SOL    HW226613   2.992  11.311   2.733
 8261SOL     OW26614   9.017   3.590   1.362
 8261SOL    HW126615   9.093   3.534   1.349
 8261SOL    HW226616   9.045   3.677   1.334
 8262SOL     OW26617   9.303   6.087   5.289
 8262SOL    HW126618   9.243   6.120   5.222
 8262SOL    HW226619   9.283   6.137   5.368
 8263SOL     OW26620  10.669  14.230  13.795
 8263SOL    HW126621  10.588  14.190  13.827
 8263SOL    HW226622  10.694  14.177  13.719
 8264SOL     OW26623   7.561   3.724   8.191
 8264SOL    HW126624   7.625   3.667   8.234
 8264SOL    HW226625   7.604   3.751   8.110
 8265SOL     OW26626   0.135  13.800   1.179
 8265SOL    HW126627   0.187  13.815   1.258
 8265SOL    HW226628   0.087  13.882   1.166
 8266SOL     OW26629   7.300   4.363  12.364
 8266SOL    HW126630   7.341   4.372  12.450
 8266SOL    HW226631   7.360   4.407  12.304
 8267SOL     OW26632   2.832   1.152   6.437
 8267SOL    HW126633   2.866   1.233   6.400
 8267SOL    HW226634   2.754   1.179   6.485
 8268SOL     OW26635  14.853   0.931   3.501
 8268SOL    HW126636  14.801   0.984   3.440
 8268SOL    HW226637  14.794   0.861   3.527
 8269SOL     OW26638  10.589  11.989  13.987
 8269SOL    HW126639  10.635  11.907  14.002
 8269SOL    HW226640  10.499  11.963  13.969
 8270SOL     OW26641  11.243   3.600   0.417
 8270SOL    HW126642  11.231   3.581   0.324
 8270SOL    HW226643  11.333   3.572   0.436
 8271SOL     OW26644   2.513   3.985  13.882
 8271SOL    HW126645   2.486   3.946  13.966
 8271SOL    HW226646   2.579   4.050  13.906
 8272SOL     OW26647   7.837   1.175   2.670
 8272SOL    HW126648   7.782   1.223   2.608
 8272SOL    HW226649   7.793   1.090   2.681
 8273SOL     OW26650   3.971  11.868  13.756
 8273SOL    HW126651   3.899  11.820  13.714
 8273SOL    HW226652   4.008  11.805  13.818
 8274SOL     OW26653  12.110  12.175   5.443
 8274SOL    HW126654  12.156  12.258   5.431
 8274SOL    HW226655  12.159  12.131   5.512
 8275SOL     OW26656  10.165   6.350   7.422
 8275SOL    HW126657  10.080   6.358   7.379
 8275SOL    HW226658  10.147   6.300   7.502
 8276SOL     OW26659  13.641   3.400  14.756
 8276SOL    HW126660  13.726   3.399  14.712
 8276SOL    HW226661  13.645   3.327  14.818
 8277SOL     OW26662  12.814   1.053  13.362
 8277SOL    HW126663  12.774   0.967  13.375
 8277SOL    HW226664  12.827   1.087  13.451
 8278SOL     OW26665  11.373  13.592   1.138
 8278SOL    HW126666  11.371  13.629   1.226
 8278SOL    HW226667  11.465  13.586   1.115
 8279SOL     OW26668   3.950   6.122  12.634
 8279SOL    HW126669   4.011   6.074  12.689
 8279SOL    HW226670   3.928   6.201  12.683
 8280SOL     OW26671  13.083   7.962  14.320
 8280SOL    HW126672  13.030   7.882  14.319
 8280SOL    HW226673  13.154   7.943  14.259
 8281SOL     OW26674   9.277   0.982  14.632
 8281SOL    HW126675   9.214   0.972  14.703
 8281SOL    HW226676   9.302   1.075  14.636
 8282SOL     OW26677  10.968  12.703   7.324
 8282SOL    HW126678  11.045  12.702   7.381
 8282SOL    HW226679  10.978  12.625   7.269
 8283SOL     OW26680   6.271  12.661  12.238
 8283SOL    HW126681   6.335  12.680  12.170
 8283SOL    HW226682   6.211  12.599  12.197
 8284SOL     OW26683   5.196   8.672   8.200
 8284SOL    HW126684   5.288   8.680   8.177
 8284SOL    HW226685   5.162   8.762   8.194
 8285SOL     OW26686  14.055   7.341   8.797
 8285SOL    HW126687  14.042   7.337   8.892
 8285SOL    HW226688  14.147   7.364   8.786
 8286SOL     OW26689   3.285  14.593   1.623
 8286SOL    HW126690   3.333  14.606   1.705
 8286SOL    HW226691   3.267  14.682   1.592
 8287SOL     OW26692   1.270   5.905  11.390
 8287SOL    HW126693   1.278   5.948  11.475
 8287SOL    HW226694   1.176   5.896  11.376
 8288SOL     OW26695   7.795   7.853  12.033
 8288SOL    HW126696   7.762   7.775  12.078
 8288SOL    HW226697   7.739   7.924  12.063
 8289SOL     OW26698   6.123   1.274  13.235
 8289SOL    HW126699   6.214   1.301  13.221
 8289SOL    HW226700   6.112   1.198  13.178
 8290SOL     OW26701  14.353   8.080  10.411
 8290SOL    HW126702  14.383   8.141  10.477
 8290SOL    HW226703  14.400   7.999  10.430
 8291SOL     OW26704  14.739   3.137  11.681
 8291SOL    HW126705  14.828   3.139  11.718
 8291SOL    HW226706  14.745   3.074  11.610
 8292SOL     OW26707  10.811   3.307   6.832
 8292SOL    HW126708  10.760   3.321   6.912
 8292SOL    HW226709  10.754   3.337   6.761
 8293SOL     OW26710  11.262   0.409   5.520
 8293SOL    HW126711  11.232   0.350   5.450
 8293SOL    HW226712  11.289   0.488   5.473
 8294SOL     OW26713  11.165   9.274   7.599
 8294SOL    HW126714  11.098   9.342   7.608
 8294SOL    HW226715  11.173   9.237   7.687
 8295SOL     OW26716   8.249   9.278   0.814
 8295SOL    HW126717   8.162   9.274   0.852
 8295SOL    HW226718   8.305   9.232   0.877
 8296SOL     OW26719   3.560  13.242  10.151
 8296SOL    HW126720   3.621  13.280  10.214
 8296SOL    HW226721   3.615  13.214  10.078
 8297SOL     OW26722   0.348   2.789  13.053
 8297SOL    HW126723   0.331   2.873  13.096
 8297SOL    HW226724   0.403   2.812  12.978
 8298SOL     OW26725  13.545  12.900   3.626
 8298SOL    HW126726  13.516  12.854   3.705
 8298SOL    HW226727  13.514  12.990   3.638
 8299SOL     OW26728   6.412  10.813   2.136
 8299SOL    HW126729   6.373  10.899   2.151
 8299SOL    HW226730   6.497  10.831   2.095
 8300SOL     OW26731   4.138   2.380  10.129
 8300SOL    HW126732   4.165   2.459  10.175
 8300SOL    HW226733   4.117   2.317  10.198
 8301SOL     OW26734   7.822   5.506  14.502
 8301SOL    HW126735   7.899   5.519  14.558
 8301SOL    HW226736   7.840   5.425  14.454
 8302SOL     OW26737  11.425  12.861   9.967
 8302SOL    HW126738  11.364  12.930   9.940
 8302SOL    HW226739  11.483  12.903  10.030
 8303SOL     OW26740   8.584   3.936   4.396
 8303SOL    HW126741   8.524   3.887   4.453
 8303SOL    HW226742   8.669   3.896   4.409
 8304SOL     OW26743   9.282  14.590  10.489
 8304SOL    HW126744   9.329  14.541  10.422
 8304SOL    HW226745   9.289  14.681  10.462
 8305SOL     OW26746  13.683   3.963   7.040
 8305SOL    HW126747  13.775   3.937   7.036
 8305SOL    HW226748  13.647   3.914   7.114
 8306SOL     OW26749   1.599   1.598   0.149
 8306SOL    HW126750   1.686   1.626   0.121
 8306SOL    HW226751   1.612   1.564   0.238
 8307SOL     OW26752   6.698  12.752   8.804
 8307SOL    HW126753   6.726  12.805   8.729
 8307SOL    HW226754   6.632  12.693   8.768
 8308SOL     OW26755  11.354   3.639   6.261
 8308SOL    HW126756  11.408   3.621   6.338
 8308SOL    HW226757  11.381   3.573   6.197
 8309SOL     OW26758  12.863  14.765  14.760
 8309SOL    HW126759  12.794  14.724  14.708
 8309SOL    HW226760  12.872  14.709  14.837
 8310SOL     OW26761  14.240  10.672   0.422
 8310SOL    HW126762  14.223  10.627   0.505
 8310SOL    HW226763  14.210  10.762   0.437
 8311SOL     OW26764   7.670  12.147   0.305
 8311SOL    HW126765   7.634  12.063   0.334
 8311SOL    HW226766   7.603  12.183   0.247
 8312SOL     OW26767  13.534   8.870  12.595
 8312SOL    HW126768  13.541   8.915  12.679
 8312SOL    HW226769  13.570   8.932  12.531
 8313SOL     OW26770   0.181  12.496   7.371
 8313SOL    HW126771   0.107  12.555   7.355
 8313SOL    HW226772   0.232  12.499   7.290
 8314SOL     OW26773   5.572   3.809   9.779
 8314SOL    HW126774   5.592   3.720   9.809
 8314SOL    HW226775   5.502   3.838   9.838
 8315SOL     OW26776   8.714   3.566   6.701
 8315SOL    HW126777   8.739   3.657   6.683
 8315SOL    HW226778   8.726   3.521   6.617
 8316SOL     OW26779   2.592   3.243  13.015
 8316SOL    HW126780   2.504   3.238  12.978
 8316SOL    HW226781   2.650   3.239  12.939
 8317SOL     OW26782   8.501   9.142  10.039
 8317SOL    HW126783   8.422   9.125  10.090
 8317SOL    HW226784   8.571   9.102  10.090
 8318SOL     OW26785   7.068  13.842  10.242
 8318SOL    HW126786   6.982  13.801  10.253
 8318SOL    HW226787   7.112  13.789  10.175
 8319SOL     OW26788   2.268   8.468   9.009
 8319SOL    HW126789   2.361   8.467   9.030
 8319SOL    HW226790   2.226   8.434   9.088
 8320SOL     OW26791   6.430  13.309   3.216
 8320SOL    HW126792   6.395  13.369   3.150
 8320SOL    HW226793   6.354  13.285   3.269
 8321SOL     OW26794  11.806  11.801  13.884
 8321SOL    HW126795  11.791  11.841  13.798
 8321SOL    HW226796  11.756  11.720  13.882
 8322SOL     OW26797  12.892  12.792   5.440
 8322SOL    HW126798  12.914  12.796   5.347
 8322SOL    HW226799  12.798  12.810   5.442
 8323SOL     OW26800  14.164  12.766  10.089
 8323SOL    HW126801  14.071  12.743  10.087
 8323SOL    HW226802  14.207  12.686  10.120
 8324SOL     OW26803   6.197   1.388  11.085
 8324SOL    HW126804   6.292   1.383  11.078
 8324SOL    HW226805   6.175   1.475  11.051
 8325SOL     OW26806   6.775   3.992   8.263
 8325SOL    HW126807   6.831   4.067   8.284
 8325SOL    HW226808   6.828   3.916   8.286
 8326SOL     OW26809  11.632   2.720   2.181
 8326SOL    HW126810  11.564   2.739   2.117
 8326SOL    HW226811  11.660   2.806   2.212
 8327SOL     OW26812  13.914   7.504   0.997
 8327SOL    HW126813  13.919   7.556   0.917
 8327SOL    HW226814  13.824   7.515   1.027
 8328SOL     OW26815  10.160   8.358   8.574
 8328SOL    HW126816  10.132   8.339   8.664
 8328SOL    HW226817  10.212   8.438   8.582
 8329SOL     OW26818   1.539   0.743  10.761
 8329SOL    HW126819   1.447   0.763  10.779
 8329SOL    HW226820   1.539   0.651  10.735
 8330SOL     OW26821  10.633   3.261  14.613
 8330SOL    HW126822  10.626   3.319  14.537
 8330SOL    HW226823  10.546   3.222  14.622
 8331SOL     OW26824   8.349   6.832   4.429
 8331SOL    HW126825   8.398   6.788   4.358
 8331SOL    HW226826   8.417   6.863   4.489
 8332SOL     OW26827  12.372   9.213  14.728
 8332SOL    HW126828  12.371   9.221  14.823
 8332SOL    HW226829  12.301   9.270  14.699
 8333SOL     OW26830   6.968   6.661   1.167
 8333SOL    HW126831   6.963   6.642   1.261
 8333SOL    HW226832   6.933   6.582   1.126
 8334SOL     OW26833  14.542   9.853  13.361
 8334SOL    HW126834  14.569   9.797  13.434
 8334SOL    HW226835  14.493   9.794  13.303
 8335SOL     OW26836  11.196  10.562  14.157
 8335SOL    HW126837  11.183  10.592  14.067
 8335SOL    HW226838  11.107  10.541  14.188
 8336SOL     OW26839   3.754   4.871  12.531
 8336SOL    HW126840   3.758   4.890  12.625
 8336SOL    HW226841   3.800   4.945  12.490
 8337SOL     OW26842   3.697   5.232   8.950
 8337SOL    HW126843   3.673   5.245   9.042
 8337SOL    HW226844   3.615   5.213   8.906
 8338SOL     OW26845   4.101  13.917   5.113
 8338SOL    HW126846   4.144  13.847   5.161
 8338SOL    HW226847   4.011  13.918   5.148
 8339SOL     OW26848   0.081   9.596  12.557
 8339SOL    HW126849   0.175   9.577  12.549
 8339SOL    HW226850   0.043   9.557  12.478
 8340SOL     OW26851   6.738   5.175   3.594
 8340SOL    HW126852   6.751   5.108   3.662
 8340SOL    HW226853   6.646   5.166   3.569
 8341SOL     OW26854   6.697   8.385   8.192
 8341SOL    HW126855   6.692   8.300   8.237
 8341SOL    HW226856   6.654   8.446   8.252
 8342SOL     OW26857   5.863  10.317   4.758
 8342SOL    HW126858   5.793  10.343   4.819
 8342SOL    HW226859   5.935  10.290   4.815
 8343SOL     OW26860   6.020   9.543   1.482
 8343SOL    HW126861   5.996   9.455   1.453
 8343SOL    HW226862   6.027   9.536   1.577
 8344SOL     OW26863   1.298   3.825   1.479
 8344SOL    HW126864   1.301   3.848   1.572
 8344SOL    HW226865   1.204   3.815   1.460
 8345SOL     OW26866  12.130  11.527   1.232
 8345SOL    HW126867  12.046  11.519   1.277
 8345SOL    HW226868  12.186  11.460   1.272
 8346SOL     OW26869   0.088   6.037   1.872
 8346SOL    HW126870   0.159   6.080   1.921
 8346SOL    HW226871   0.031   6.109   1.845
 8347SOL     OW26872  10.860   8.463  13.443
 8347SOL    HW126873  10.801   8.497  13.511
 8347SOL    HW226874  10.802   8.446  13.368
 8348SOL     OW26875  10.463   7.822  13.383
 8348SOL    HW126876  10.506   7.850  13.464
 8348SOL    HW226877  10.384   7.876  13.378
 8349SOL     OW26878  14.019  11.811   7.329
 8349SOL    HW126879  13.991  11.742   7.269
 8349SOL    HW226880  13.960  11.802   7.404
 8350SOL     OW26881   4.150  10.563   3.374
 8350SOL    HW126882   4.164  10.577   3.467
 8350SOL    HW226883   4.059  10.587   3.359
 8351SOL     OW26884   8.715  13.118   5.569
 8351SOL    HW126885   8.784  13.097   5.632
 8351SOL    HW226886   8.689  13.207   5.592
 8352SOL     OW26887  10.353  14.018   6.080
 8352SOL    HW126888  10.444  13.989   6.085
 8352SOL    HW226889  10.352  14.083   6.010
 8353SOL     OW26890  12.638  11.828   8.074
 8353SOL    HW126891  12.691  11.792   8.003
 8353SOL    HW226892  12.700  11.844   8.145
 8354SOL     OW26893  10.463   6.859   3.468
 8354SOL    HW126894  10.547   6.848   3.511
 8354SOL    HW226895  10.404   6.889   3.537
 8355SOL     OW26896   0.199   6.262   1.356
 8355SOL    HW126897   0.273   6.312   1.324
 8355SOL    HW226898   0.131   6.274   1.290
 8356SOL     OW26899  13.624  13.955  14.300
 8356SOL    HW126900  13.705  13.906  14.315
 8356SOL    HW226901  13.639  14.000  14.217
 8357SOL     OW26902   7.329  12.042  13.086
 8357SOL    HW126903   7.379  11.981  13.141
 8357SOL    HW226904   7.267  12.083  13.146
 8358SOL     OW26905   1.880   3.034   7.535
 8358SOL    HW126906   1.921   2.949   7.556
 8358SOL    HW226907   1.815   3.012   7.468
 8359SOL     OW26908   0.248   8.560   8.127
 8359SOL    HW126909   0.259   8.640   8.178
 8359SOL    HW226910   0.193   8.586   8.053
 8360SOL     OW26911   3.067  11.741  10.429
 8360SOL    HW126912   3.085  11.795  10.352
 8360SOL    HW226913   3.092  11.652  10.402
 8361SOL     OW26914   2.169  12.686   7.615
 8361SOL    HW126915   2.145  12.777   7.601
 8361SOL    HW226916   2.206  12.658   7.531
 8362SOL     OW26917  13.955   9.537   4.843
 8362SOL    HW126918  13.923   9.486   4.918
 8362SOL    HW226919  13.942   9.628   4.870
 8363SOL     OW26920   1.364  12.513  12.182
 8363SOL    HW126921   1.426  12.464  12.129
 8363SOL    HW226922   1.394  12.500  12.272
 8364SOL     OW26923   8.710   1.123   0.946
 8364SOL    HW126924   8.782   1.061   0.939
 8364SOL    HW226925   8.729   1.173   1.026
 8365SOL     OW26926  13.936   1.813   6.238
 8365SOL    HW126927  13.977   1.812   6.152
 8365SOL    HW226928  13.984   1.747   6.288
 8366SOL     OW26929   6.111   4.069  10.821
 8366SOL    HW126930   6.052   4.067  10.896
 8366SOL    HW226931   6.193   4.030  10.853
 8367SOL     OW26932  10.423   7.843   4.601
 8367SOL    HW126933  10.464   7.868   4.684
 8367SOL    HW226934  10.496   7.836   4.539
 8368SOL     OW26935  13.760   3.853   9.730
 8368SOL    HW126936  13.820   3.796   9.779
 8368SOL    HW226937  13.694   3.793   9.696
 8369SOL     OW26938   7.940   1.208   4.769
 8369SOL    HW126939   8.012   1.215   4.707
 8369SOL    HW226940   7.928   1.114   4.781
 8370SOL     OW26941   5.987   9.182   8.662
 8370SOL    HW126942   6.002   9.261   8.609
 8370SOL    HW226943   5.891   9.175   8.667
 8371SOL     OW26944  10.264   0.637   3.539
 8371SOL    HW126945  10.263   0.637   3.443
 8371SOL    HW226946  10.267   0.544   3.562
 8372SOL     OW26947   6.948   7.186   4.746
 8372SOL    HW126948   6.890   7.257   4.773
 8372SOL    HW226949   6.932   7.177   4.652
 8373SOL     OW26950   1.779   2.555   0.667
 8373SOL    HW126951   1.752   2.487   0.605
 8373SOL    HW226952   1.752   2.523   0.752
 8374SOL     OW26953   1.335   6.355   6.332
 8374SOL    HW126954   1.378   6.418   6.391
 8374SOL    HW226955   1.251   6.337   6.374
 8375SOL     OW26956  13.129   5.831   8.180
 8375SOL    HW126957  13.140   5.892   8.108
 8375SOL    HW226958  13.039   5.842   8.209
 8376SOL     OW26959   6.667   9.872   4.647
 8376SOL    HW126960   6.687   9.880   4.741
 8376SOL    HW226961   6.721   9.798   4.618
 8377SOL     OW26962  12.415   2.678   9.089
 8377SOL    HW126963  12.336   2.726   9.115
 8377SOL    HW226964  12.393   2.586   9.104
 8378SOL     OW26965   7.935  13.203   8.488
 8378SOL    HW126966   7.991  13.277   8.513
 8378SOL    HW226967   7.970  13.175   8.403
 8379SOL     OW26968   7.527  11.743  11.551
 8379SOL    HW126969   7.541  11.708  11.638
 8379SOL    HW226970   7.519  11.838  11.564
 8380SOL     OW26971   7.618   2.460   4.238
 8380SOL    HW126972   7.576   2.533   4.284
 8380SOL    HW226973   7.597   2.476   4.146
 8381SOL     OW26974   5.221   2.165   2.749
 8381SOL    HW126975   5.152   2.137   2.689
 8381SOL    HW226976   5.186   2.145   2.836
 8382SOL     OW26977   0.765   1.936   3.259
 8382SOL    HW126978   0.681   1.900   3.229
 8382SOL    HW226979   0.759   1.932   3.355
 8383SOL     OW26980   0.772   6.856   6.105
 8383SOL    HW126981   0.759   6.950   6.109
 8383SOL    HW226982   0.684   6.819   6.115
 8384SOL     OW26983   4.345  10.679   2.642
 8384SOL    HW126984   4.426  10.729   2.656
 8384SOL    HW226985   4.340  10.669   2.547
 8385SOL     OW26986   8.958   1.455  14.357
 8385SOL    HW126987   8.954   1.470  14.451
 8385SOL    HW226988   8.992   1.536  14.320
 8386SOL     OW26989  13.748  11.058   1.683
 8386SOL    HW126990  13.785  10.995   1.745
 8386SOL    HW226991  13.661  11.022   1.663
 8387SOL     OW26992  12.685   4.226   3.192
 8387SOL    HW126993  12.621   4.158   3.170
 8387SOL    HW226994  12.639   4.283   3.254
 8388SOL     OW26995  13.903  12.322   1.777
 8388SOL    HW126996  13.925  12.276   1.858
 8388SOL    HW226997  13.984  12.365   1.751
 8389SOL     OW26998  11.781   3.470   7.356
 8389SOL    HW126999  11.866   3.503   7.386
 8389SOL    HW227000  11.783   3.377   7.376
 8390SOL     OW27001  14.403  12.657  12.227
 8390SOL    HW127002  14.423  12.565  12.210
 8390SOL    HW227003  14.471  12.686  12.287
 8391SOL     OW27004   5.012   8.743  12.540
 8391SOL    HW127005   5.085   8.790  12.499
 8391SOL    HW227006   5.011   8.658  12.497
 8392SOL     OW27007   8.098   8.633  12.124
 8392SOL    HW127008   8.017   8.585  12.142
 8392SOL    HW227009   8.143   8.581  12.058
 8393SOL     OW27010   6.554   0.717  12.982
 8393SOL    HW127011   6.570   0.625  12.958
 8393SOL    HW227012   6.592   0.726  13.069
 8394SOL     OW27013   2.287   1.300  12.954
 8394SOL    HW127014   2.376   1.322  12.925
 8394SOL    HW227015   2.275   1.209  12.927
 8395SOL     OW27016   0.796   0.850  14.027
 8395SOL    HW127017   0.784   0.911  14.100
 8395SOL    HW227018   0.824   0.906  13.954
 8396SOL     OW27019  12.069   5.378   8.416
 8396SOL    HW127020  12.154   5.403   8.453
 8396SOL    HW227021  12.032   5.460   8.383
 8397SOL     OW27022   3.334   3.335   5.416
 8397SOL    HW127023   3.376   3.395   5.354
 8397SOL    HW227024   3.337   3.382   5.500
 8398SOL     OW27025   7.733  13.600   4.237
 8398SOL    HW127026   7.658  13.554   4.275
 8398SOL    HW227027   7.706  13.621   4.148
 8399SOL     OW27028   3.135  12.643  11.624
 8399SOL    HW127029   3.050  12.685  11.611
 8399SOL    HW227030   3.171  12.687  11.701
 8400SOL     OW27031  14.873   9.444   5.203
 8400SOL    HW127032  14.797   9.500   5.188
 8400SOL    HW227033  14.877   9.389   5.125
 8401SOL     OW27034   5.487  13.580   4.771
 8401SOL    HW127035   5.405  13.545   4.806
 8401SOL    HW227036   5.479  13.675   4.779
 8402SOL     OW27037   8.806   1.481   5.026
 8402SOL    HW127038   8.870   1.507   4.960
 8402SOL    HW227039   8.727   1.530   5.003
 8403SOL     OW27040   4.235   0.968  14.379
 8403SOL    HW127041   4.152   0.966  14.332
 8403SOL    HW227042   4.283   1.042  14.341
 8404SOL     OW27043  14.044   0.526  10.288
 8404SOL    HW127044  14.103   0.538  10.362
 8404SOL    HW227045  13.994   0.608  10.284
 8405SOL     OW27046   3.265  12.285   3.391
 8405SOL    HW127047   3.321  12.325   3.324
 8405SOL    HW227048   3.186  12.260   3.344
 8406SOL     OW27049   9.731   5.464   2.898
 8406SOL    HW127050   9.650   5.440   2.851
 8406SOL    HW227051   9.780   5.382   2.903
 8407SOL     OW27052   4.192  12.860  14.128
 8407SOL    HW127053   4.133  12.864  14.203
 8407SOL    HW227054   4.176  12.774  14.090
 8408SOL     OW27055   3.496  10.199   7.020
 8408SOL    HW127056   3.430  10.148   7.067
 8408SOL    HW227057   3.506  10.153   6.936
 8409SOL     OW27058  12.677   2.677   3.467
 8409SOL    HW127059  12.718   2.736   3.404
 8409SOL    HW227060  12.586   2.707   3.473
 8410SOL     OW27061   4.073   8.990  11.668
 8410SOL    HW127062   4.047   9.080  11.688
 8410SOL    HW227063   4.008   8.961  11.603
 8411SOL     OW27064   7.233   6.628   3.083
 8411SOL    HW127065   7.151   6.675   3.078
 8411SOL    HW227066   7.286   6.663   3.011
 8412SOL     OW27067  13.243  11.296  12.321
 8412SOL    HW127068  13.309  11.298  12.251
 8412SOL    HW227069  13.160  11.287  12.275
 8413SOL     OW27070   8.370  13.249   0.816
 8413SOL    HW127071   8.401  13.217   0.900
 8413SOL    HW227072   8.378  13.344   0.821
 8414SOL     OW27073   6.938   1.508  14.328
 8414SOL    HW127074   6.857   1.500  14.380
 8414SOL    HW227075   6.996   1.560  14.384
 8415SOL     OW27076   3.211   9.132   5.721
 8415SOL    HW127077   3.225   9.049   5.767
 8415SOL    HW227078   3.260   9.196   5.772
 8416SOL     OW27079  10.631   1.925   3.398
 8416SOL    HW127080  10.582   1.999   3.433
 8416SOL    HW227081  10.608   1.852   3.455
 8417SOL     OW27082   7.144   5.261   5.501
 8417SOL    HW127083   7.214   5.306   5.549
 8417SOL    HW227084   7.133   5.313   5.421
 8418SOL     OW27085   6.422   1.814   5.340
 8418SOL    HW127086   6.437   1.838   5.431
 8418SOL    HW227087   6.477   1.874   5.290
 8419SOL     OW27088  10.425  14.191   3.787
 8419SOL    HW127089  10.398  14.100   3.798
 8419SOL    HW227090  10.410  14.232   3.872
 8420SOL     OW27091   7.026   1.270  13.174
 8420SOL    HW127092   7.105   1.221  13.153
 8420SOL    HW227093   7.051   1.327  13.247
 8421SOL     OW27094  11.899   2.754  14.310
 8421SOL    HW127095  11.886   2.719  14.398
 8421SOL    HW227096  11.884   2.849  14.320
 8422SOL     OW27097   4.165   5.852  13.152
 8422SOL    HW127098   4.088   5.907  13.135
 8422SOL    HW227099   4.143   5.803  13.230
 8423SOL     OW27100   3.912   8.109   2.044
 8423SOL    HW127101   3.944   8.115   1.954
 8423SOL    HW227102   3.894   8.016   2.057
 8424SOL     OW27103   3.665  14.193   7.078
 8424SOL    HW127104   3.689  14.257   7.145
 8424SOL    HW227105   3.678  14.108   7.121
 8425SOL     OW27106  11.235   5.241   1.530
 8425SOL    HW127107  11.312   5.284   1.565
 8425SOL    HW227108  11.162   5.296   1.557
 8426SOL     OW27109  10.827  14.423  13.234
 8426SOL    HW127110  10.904  14.368  13.224
 8426SOL    HW227111  10.840  14.467  13.318
 8427SOL     OW27112  11.284   9.048  14.057
 8427SOL    HW127113  11.313   9.105  14.129
 8427SOL    HW227114  11.348   9.063  13.988
 8428SOL     OW27115  14.844   2.180   2.885
 8428SOL    HW127116  14.798   2.098   2.870
 8428SOL    HW227117   0.047   2.168   2.843
 8429SOL     OW27118   0.638  11.065   7.831
 8429SOL    HW127119   0.623  11.007   7.905
 8429SOL    HW227120   0.636  11.007   7.754
 8430SOL     OW27121   0.457   0.842   4.649
 8430SOL    HW127122   0.466   0.837   4.744
 8430SOL    HW227123   0.540   0.806   4.616
 8431SOL     OW27124   7.396   2.089   9.825
 8431SOL    HW127125   7.374   2.068   9.734
 8431SOL    HW227126   7.433   2.177   9.821
 8432SOL     OW27127   9.897   6.849   6.580
 8432SOL    HW127128   9.817   6.798   6.590
 8432SOL    HW227129   9.914   6.884   6.668
 8433SOL     OW27130  14.816  13.975  14.255
 8433SOL    HW127131  14.787  14.063  14.280
 8433SOL    HW227132  14.745  13.917  14.284
 8434SOL     OW27133   7.257   5.095   9.974
 8434SOL    HW127134   7.168   5.073   9.999
 8434SOL    HW227135   7.301   5.118  10.056
 8435SOL     OW27136   7.380   5.487   6.543
 8435SOL    HW127137   7.442   5.539   6.594
 8435SOL    HW227138   7.341   5.551   6.482
 8436SOL     OW27139   5.002   9.966   9.292
 8436SOL    HW127140   4.927   9.907   9.296
 8436SOL    HW227141   5.003  10.010   9.377
 8437SOL     OW27142   3.245   4.555   0.984
 8437SOL    HW127143   3.309   4.544   1.055
 8437SOL    HW227144   3.286   4.511   0.909
 8438SOL     OW27145  12.747  13.035   8.997
 8438SOL    HW127146  12.826  13.047   9.049
 8438SOL    HW227147  12.675  13.060   9.055
 8439SOL     OW27148   7.882   8.419   7.707
 8439SOL    HW127149   7.972   8.438   7.681
 8439SOL    HW227150   7.847   8.365   7.637
 8440SOL     OW27151  13.673   0.836   7.430
 8440SOL    HW127152  13.744   0.900   7.426
 8440SOL    HW227153  13.691   0.785   7.509
 8441SOL     OW27154  14.710   7.229   3.134
 8441SOL    HW127155  14.771   7.302   3.123
 8441SOL    HW227156  14.646   7.241   3.064
 8442SOL     OW27157   3.519  11.436   6.646
 8442SOL    HW127158   3.608  11.426   6.680
 8442SOL    HW227159   3.521  11.393   6.561
 8443SOL     OW27160  10.302   4.189   7.158
 8443SOL    HW127161  10.388   4.154   7.134
 8443SOL    HW227162  10.285   4.152   7.245
 8444SOL     OW27163  11.988  13.874   8.671
 8444SOL    HW127164  11.971  13.863   8.764
 8444SOL    HW227165  12.071  13.921   8.667
 8445SOL     OW27166   9.112  13.891   1.836
 8445SOL    HW127167   9.122  13.984   1.857
 8445SOL    HW227168   9.197  13.867   1.798
 8446SOL     OW27169   3.551  12.276   6.907
 8446SOL    HW127170   3.511  12.255   6.823
 8446SOL    HW227171   3.509  12.357   6.935
 8447SOL     OW27172  10.455   1.604   3.019
 8447SOL    HW127173  10.525   1.658   3.056
 8447SOL    HW227174  10.417   1.559   3.094
 8448SOL     OW27175  13.990   4.090   7.041
 8448SOL    HW127176  14.065   4.081   6.982
 8448SOL    HW227177  13.962   4.181   7.031
 8449SOL     OW27178   4.101   8.534   3.051
 8449SOL    HW127179   4.076   8.488   3.131
 8449SOL    HW227180   4.178   8.585   3.076
 8450SOL     OW27181  13.206   1.859   2.267
 8450SOL    HW127182  13.293   1.892   2.285
 8450SOL    HW227183  13.153   1.887   2.341
 8451SOL     OW27184   4.352  14.133  13.907
 8451SOL    HW127185   4.321  14.043  13.893
 8451SOL    HW227186   4.440  14.122  13.943
 8452SOL     OW27187   4.318  14.633   2.095
 8452SOL    HW127188   4.226  14.658   2.085
 8452SOL    HW227189   4.364  14.687   2.031
 8453SOL     OW27190  11.856  11.832  14.346
 8453SOL    HW127191  11.792  11.884  14.394
 8453SOL    HW227192  11.804  11.769  14.296
 8454SOL     OW27193  11.875  13.917   9.454
 8454SOL    HW127194  11.855  13.841   9.508
 8454SOL    HW227195  11.937  13.968   9.506
 8455SOL     OW27196   9.957   6.081   7.921
 8455SOL    HW127197   9.921   6.098   7.834
 8455SOL    HW227198   9.881   6.088   7.980
 8456SOL     OW27199   6.312   2.059   4.665
 8456SOL    HW127200   6.403   2.030   4.667
 8456SOL    HW227201   6.284   2.045   4.574
 8457SOL     OW27202  14.056   8.188   5.203
 8457SOL    HW127203  14.150   8.179   5.188
 8457SOL    HW227204  14.046   8.180   5.298
 8458SOL     OW27205   2.259   5.881   0.193
 8458SOL    HW127206   2.223   5.793   0.203
 8458SOL    HW227207   2.197   5.926   0.135
 8459SOL     OW27208   6.065   7.135   0.758
 8459SOL    HW127209   5.991   7.188   0.786
 8459SOL    HW227210   6.136   7.161   0.817
 8460SOL     OW27211   9.727   7.266  13.232
 8460SOL    HW127212   9.680   7.185  13.252
 8460SOL    HW227213   9.708   7.282  13.140
 8461SOL     OW27214  12.415   5.625   3.877
 8461SOL    HW127215  12.496   5.617   3.927
 8461SOL    HW227216  12.386   5.535   3.864
 8462SOL     OW27217   6.177  14.733  12.238
 8462SOL    HW127218   6.146  14.741  12.148
 8462SOL    HW227219   6.213  14.819  12.259
 8463SOL     OW27220   3.566   5.574  13.292
 8463SOL    HW127221   3.584   5.501  13.351
 8463SOL    HW227222   3.532   5.644  13.349
 8464SOL     OW27223   2.566   6.346   0.186
 8464SOL    HW127224   2.603   6.337   0.098
 8464SOL    HW227225   2.637   6.384   0.238
 8465SOL     OW27226   6.071   6.199  11.110
 8465SOL    HW127227   6.109   6.260  11.047
 8465SOL    HW227228   5.988   6.240  11.136
 8466SOL     OW27229   6.184   0.697  13.844
 8466SOL    HW127230   6.258   0.636  13.841
 8466SOL    HW227231   6.115   0.653  13.795
 8467SOL     OW27232   8.299   2.690   9.865
 8467SOL    HW127233   8.275   2.769   9.817
 8467SOL    HW227234   8.246   2.693   9.945
 8468SOL     OW27235  14.167   7.220   9.440
 8468SOL    HW127236  14.163   7.150   9.506
 8468SOL    HW227237  14.247   7.268   9.463
 8469SOL     OW27238  13.872  13.791   3.163
 8469SOL    HW127239  13.907  13.824   3.246
 8469SOL    HW227240  13.777  13.790   3.176
 8470SOL     OW27241  13.560   6.477  11.070
 8470SOL    HW127242  13.620   6.410  11.102
 8470SOL    HW227243  13.529   6.442  10.986
 8471SOL     OW27244   0.751   3.486   4.947
 8471SOL    HW127245   0.780   3.444   4.866
 8471SOL    HW227246   0.694   3.558   4.917
 8472SOL     OW27247   2.132   2.203   6.920
 8472SOL    HW127248   2.043   2.179   6.948
 8472SOL    HW227249   2.153   2.139   6.853
 8473SOL     OW27250   0.191   0.159   9.656
 8473SOL    HW127251   0.105   0.179   9.691
 8473SOL    HW227252   0.229   0.097   9.719
 8474SOL     OW27253  10.436   6.617   3.145
 8474SOL    HW127254  10.522   6.586   3.175
 8474SOL    HW227255  10.397   6.658   3.222
 8475SOL     OW27256  11.214  14.387   5.883
 8475SOL    HW127257  11.272  14.380   5.807
 8475SOL    HW227258  11.178  14.476   5.877
 8476SOL     OW27259   3.755   3.826   5.414
 8476SOL    HW127260   3.785   3.813   5.504
 8476SOL    HW227261   3.803   3.761   5.363
 8477SOL     OW27262   6.383   1.905  10.410
 8477SOL    HW127263   6.358   1.863  10.327
 8477SOL    HW227264   6.344   1.992  10.406
 8478SOL     OW27265  12.005   9.706  11.100
 8478SOL    HW127266  12.014   9.642  11.171
 8478SOL    HW227267  11.918   9.689  11.064
 8479SOL     OW27268   4.641   0.882   3.496
 8479SOL    HW127269   4.663   0.850   3.408
 8479SOL    HW227270   4.547   0.866   3.504
 8480SOL     OW27271  10.268  10.958   6.954
 8480SOL    HW127272  10.241  10.939   7.044
 8480SOL    HW227273  10.251  11.052   6.943
 8481SOL     OW27274   9.579  11.115  10.591
 8481SOL    HW127275   9.576  11.205  10.622
 8481SOL    HW227276   9.538  11.118  10.504
 8482SOL     OW27277   9.959   7.547   6.371
 8482SOL    HW127278   9.898   7.540   6.445
 8482SOL    HW227279   9.909   7.594   6.304
 8483SOL     OW27280  11.388   7.802   0.806
 8483SOL    HW127281  11.467   7.750   0.823
 8483SOL    HW227282  11.384   7.864   0.878
 8484SOL     OW27283  11.533   4.706   6.032
 8484SOL    HW127284  11.550   4.778   5.972
 8484SOL    HW227285  11.474   4.647   5.984
 8485SOL     OW27286   0.284   6.379   9.990
 8485SOL    HW127287   0.197   6.342   9.974
 8485SOL    HW227288   0.320   6.395   9.903
 8486SOL     OW27289  13.780   9.576  12.865
 8486SOL    HW127290  13.712   9.643  12.873
 8486SOL    HW227291  13.737   9.504  12.819
 8487SOL     OW27292  10.908   0.240  10.336
 8487SOL    HW127293  10.839   0.303  10.313
 8487SOL    HW227294  10.959   0.284  10.404
 8488SOL     OW27295  12.798  12.715   8.378
 8488SOL    HW127296  12.856  12.781   8.340
 8488SOL    HW227297  12.790  12.741   8.470
 8489SOL     OW27298   3.331   1.946   1.739
 8489SOL    HW127299   3.407   2.005   1.738
 8489SOL    HW227300   3.336   1.899   1.656
 8490SOL     OW27301  13.474   7.594   7.214
 8490SOL    HW127302  13.518   7.662   7.265
 8490SOL    HW227303  13.523   7.514   7.234
 8491SOL     OW27304   2.242   6.083  11.850
 8491SOL    HW127305   2.272   6.133  11.774
 8491SOL    HW227306   2.277   5.995  11.836
 8492SOL     OW27307  13.811   0.951  14.033
 8492SOL    HW127308  13.903   0.950  14.058
 8492SOL    HW227309  13.811   0.980  13.942
 8493SOL     OW27310   1.267   4.687   1.927
 8493SOL    HW127311   1.212   4.759   1.898
 8493SOL    HW227312   1.331   4.676   1.856
 8494SOL     OW27313   7.114  14.532   1.185
 8494SOL    HW127314   7.151  14.518   1.098
 8494SOL    HW227315   7.109  14.627   1.194
 8495SOL     OW27316   2.646   9.404   0.516
 8495SOL    HW127317   2.567   9.457   0.511
 8495SOL    HW227318   2.633   9.334   0.451
 8496SOL     OW27319   9.026   5.303   2.956
 8496SOL    HW127320   8.946   5.267   2.996
 8496SOL    HW227321   9.050   5.377   3.011
 8497SOL     OW27322   1.650   4.825   9.905
 8497SOL    HW127323   1.606   4.895   9.953
 8497SOL    HW227324   1.729   4.807   9.956
 8498SOL     OW27325   9.742   8.349   9.526
 8498SOL    HW127326   9.689   8.392   9.595
 8498SOL    HW227327   9.722   8.256   9.535
 8499SOL     OW27328   5.403  13.849   0.855
 8499SOL    HW127329   5.310  13.869   0.846
 8499SOL    HW227330   5.413  13.762   0.818
 8500SOL     OW27331   6.507   8.107   2.738
 8500SOL    HW127332   6.564   8.142   2.669
 8500SOL    HW227333   6.547   8.023   2.762
 8501SOL     OW27334  11.152   8.563   9.736
 8501SOL    HW127335  11.167   8.639   9.679
 8501SOL    HW227336  11.236   8.517   9.737
 8502SOL     OW27337   1.998   4.474   8.430
 8502SOL    HW127338   2.065   4.429   8.379
 8502SOL    HW227339   1.918   4.425   8.414
 8503SOL     OW27340  12.878   5.997   5.573
 8503SOL    HW127341  12.830   5.914   5.576
 8503SOL    HW227342  12.946   5.983   5.507
 8504SOL     OW27343  11.188   0.220  14.317
 8504SOL    HW127344  11.167   0.154  14.383
 8504SOL    HW227345  11.153   0.302  14.352
 8505SOL     OW27346   3.099   9.586  14.115
 8505SOL    HW127347   3.072   9.654  14.177
 8505SOL    HW227348   3.029   9.521  14.118
 8506SOL     OW27349   3.904  10.773  12.204
 8506SOL    HW127350   3.860  10.689  12.213
 8506SOL    HW227351   3.997  10.754  12.216
 8507SOL     OW27352   8.087   4.355   4.945
 8507SOL    HW127353   8.141   4.353   4.866
 8507SOL    HW227354   8.101   4.269   4.985
 8508SOL     OW27355   7.283   5.293  12.068
 8508SOL    HW127356   7.363   5.326  12.029
 8508SOL    HW227357   7.214   5.318  12.007
 8509SOL     OW27358  13.521   8.294   7.311
 8509SOL    HW127359  13.607   8.304   7.268
 8509SOL    HW227360  13.533   8.333   7.397
 8510SOL     OW27361   5.351  14.657   1.697
 8510SOL    HW127362   5.293  14.709   1.640
 8510SOL    HW227363   5.381  14.585   1.642
 8511SOL     OW27364  10.254   8.890  13.150
 8511SOL    HW127365  10.294   8.952  13.089
 8511SOL    HW227366  10.322   8.872  13.215
 8512SOL     OW27367   5.560   3.518   0.186
 8512SOL    HW127368   5.584   3.555   0.101
 8512SOL    HW227369   5.624   3.447   0.200
 8513SOL     OW27370   4.765  12.122   2.602
 8513SOL    HW127371   4.701  12.079   2.660
 8513SOL    HW227372   4.822  12.170   2.662
 8514SOL     OW27373   8.560  11.878  13.479
 8514SOL    HW127374   8.511  11.833  13.411
 8514SOL    HW227375   8.513  11.858  13.560
 8515SOL     OW27376   9.678  10.709   3.889
 8515SOL    HW127377   9.747  10.762   3.849
 8515SOL    HW227378   9.725  10.641   3.936
 8516SOL     OW27379  12.989   2.810   8.623
 8516SOL    HW127380  13.035   2.736   8.584
 8516SOL    HW227381  12.913   2.771   8.666
 8517SOL     OW27382   8.279   7.287   8.525
 8517SOL    HW127383   8.261   7.376   8.557
 8517SOL    HW227384   8.192   7.249   8.513
 8518SOL     OW27385   8.710  13.833  13.388
 8518SOL    HW127386   8.646  13.898  13.419
 8518SOL    HW227387   8.666  13.749  13.400
 8519SOL     OW27388   3.139   2.838   8.213
 8519SOL    HW127389   3.102   2.777   8.277
 8519SOL    HW227390   3.194   2.896   8.265
 8520SOL     OW27391   9.847  14.295   0.148
 8520SOL    HW127392   9.934  14.268   0.175
 8520SOL    HW227393   9.845  14.390   0.162
 8521SOL     OW27394  12.468   2.127   7.118
 8521SOL    HW127395  12.456   2.160   7.029
 8521SOL    HW227396  12.546   2.072   7.113
 8522SOL     OW27397   0.753   0.441   1.076
 8522SOL    HW127398   0.810   0.460   1.150
 8522SOL    HW227399   0.735   0.527   1.037
 8523SOL     OW27400   2.516   8.306   5.408
 8523SOL    HW127401   2.528   8.227   5.461
 8523SOL    HW227402   2.551   8.282   5.322
 8524SOL     OW27403   1.408   7.743  13.763
 8524SOL    HW127404   1.441   7.825  13.727
 8524SOL    HW227405   1.430   7.677  13.698
 8525SOL     OW27406  13.468   2.861   8.891
 8525SOL    HW127407  13.407   2.788   8.877
 8525SOL    HW227408  13.414   2.940   8.880
 8526SOL     OW27409   2.587   4.168   4.377
 8526SOL    HW127410   2.589   4.197   4.285
 8526SOL    HW227411   2.677   4.176   4.407
 8527SOL     OW27412  10.434   9.174   7.384
 8527SOL    HW127413  10.349   9.134   7.402
 8527SOL    HW227414  10.438   9.179   7.289
 8528SOL     OW27415  13.142  14.569  12.589
 8528SOL    HW127416  13.237  14.584  12.581
 8528SOL    HW227417  13.127  14.487  12.542
 8529SOL     OW27418   4.206   7.248  11.199
 8529SOL    HW127419   4.136   7.187  11.221
 8529SOL    HW227420   4.162   7.333  11.191
 8530SOL     OW27421  11.399  12.544   1.770
 8530SOL    HW127422  11.315  12.587   1.788
 8530SOL    HW227423  11.422  12.572   1.682
 8531SOL     OW27424  14.843   6.884  13.201
 8531SOL    HW127425  14.861   6.953  13.137
 8531SOL    HW227426  14.791   6.927  13.268
 8532SOL     OW27427   5.540  12.360   4.130
 8532SOL    HW127428   5.573  12.292   4.188
 8532SOL    HW227429   5.616  12.387   4.079
 8533SOL     OW27430  13.787   1.421   3.670
 8533SOL    HW127431  13.830   1.382   3.594
 8533SOL    HW227432  13.852   1.480   3.707
 8534SOL     OW27433   9.226   1.876  13.874
 8534SOL    HW127434   9.261   1.792  13.845
 8534SOL    HW227435   9.220   1.928  13.794
 8535SOL     OW27436   6.580   8.047   3.814
 8535SOL    HW127437   6.664   8.049   3.859
 8535SOL    HW227438   6.517   8.024   3.882
 8536SOL     OW27439   8.126   0.228  13.119
 8536SOL    HW127440   8.116   0.311  13.072
 8536SOL    HW227441   8.148   0.164  13.051
 8537SOL     OW27442  14.800   3.060   6.858
 8537SOL    HW127443  14.809   3.060   6.954
 8537SOL    HW227444  14.706   3.062   6.843
 8538SOL     OW27445   5.758   0.484  11.709
 8538SOL    HW127446   5.831   0.448  11.759
 8538SOL    HW227447   5.741   0.568  11.750
 8539SOL     OW27448   5.775  12.427   2.772
 8539SOL    HW127449   5.695  12.471   2.746
 8539SOL    HW227450   5.845  12.474   2.727
 8540SOL     OW27451  12.005  12.713  14.695
 8540SOL    HW127452  12.092  12.681  14.717
 8540SOL    HW227453  11.962  12.725  14.780
 8541SOL     OW27454   3.922   1.743   1.041
 8541SOL    HW127455   3.937   1.661   1.087
 8541SOL    HW227456   3.906   1.808   1.110
 8542SOL     OW27457   4.676  14.381  11.853
 8542SOL    HW127458   4.599  14.385  11.910
 8542SOL    HW227459   4.657  14.310  11.791
 8543SOL     OW27460  13.521   0.985   9.020
 8543SOL    HW127461  13.534   0.928   8.944
 8543SOL    HW227462  13.428   0.976   9.040
 8544SOL     OW27463  13.042   6.413  11.642
 8544SOL    HW127464  12.981   6.482  11.616
 8544SOL    HW227465  13.111   6.415  11.575
 8545SOL     OW27466  10.953   8.539   4.952
 8545SOL    HW127467  10.990   8.462   4.997
 8545SOL    HW227468  10.858   8.530   4.963
 8546SOL     OW27469   7.424  13.969   5.056
 8546SOL    HW127470   7.498  13.930   5.103
 8546SOL    HW227471   7.455  13.980   4.966
 8547SOL     OW27472   2.184   9.881  13.019
 8547SOL    HW127473   2.252   9.939  12.985
 8547SOL    HW227474   2.103   9.931  13.009
 8548SOL     OW27475  12.520  13.590   2.644
 8548SOL    HW127476  12.462  13.557   2.575
 8548SOL    HW227477  12.541  13.513   2.697
 8549SOL     OW27478   9.756   6.642  12.917
 8549SOL    HW127479   9.819   6.712  12.901
 8549SOL    HW227480   9.793   6.565  12.874
 8550SOL     OW27481   5.543   8.016   6.472
 8550SOL    HW127482   5.449   8.005   6.454
 8550SOL    HW227483   5.582   7.933   6.447
 8551SOL     OW27484  11.738   1.571   2.838
 8551SOL    HW127485  11.777   1.652   2.869
 8551SOL    HW227486  11.646   1.594   2.822
 8552SOL     OW27487   7.454   1.030  13.173
 8552SOL    HW127488   7.398   1.038  13.250
 8552SOL    HW227489   7.456   0.937  13.154
 8553SOL     OW27490   5.057   6.301   5.036
 8553SOL    HW127491   5.098   6.221   5.067
 8553SOL    HW227492   5.121   6.370   5.053
 8554SOL     OW27493   1.067   0.196   5.000
 8554SOL    HW127494   1.064   0.292   5.006
 8554SOL    HW227495   1.153   0.177   4.961
 8555SOL     OW27496  10.171   6.825   3.630
 8555SOL    HW127497  10.148   6.888   3.563
 8555SOL    HW227498  10.187   6.877   3.708
 8556SOL     OW27499   1.349   3.091  13.357
 8556SOL    HW127500   1.281   3.092  13.290
 8556SOL    HW227501   1.313   3.036  13.427
 8557SOL     OW27502   6.734   7.388   8.230
 8557SOL    HW127503   6.770   7.307   8.266
 8557SOL    HW227504   6.681   7.359   8.156
 8558SOL     OW27505   0.329   5.003   3.564
 8558SOL    HW127506   0.256   4.942   3.552
 8558SOL    HW227507   0.288   5.089   3.565
 8559SOL     OW27508   7.507  13.347  11.338
 8559SOL    HW127509   7.525  13.290  11.413
 8559SOL    HW227510   7.448  13.414  11.373
 8560SOL     OW27511   8.191  11.721   9.148
 8560SOL    HW127512   8.103  11.684   9.145
 8560SOL    HW227513   8.231  11.696   9.065
 8561SOL     OW27514   9.675   1.581   0.745
 8561SOL    HW127515   9.593   1.553   0.706
 8561SOL    HW227516   9.740   1.572   0.675
 8562SOL     OW27517  13.821  10.623  14.139
 8562SOL    HW127518  13.859  10.604  14.053
 8562SOL    HW227519  13.814  10.718  14.141
 8563SOL     OW27520   6.581   3.855   9.553
 8563SOL    HW127521   6.582   3.887   9.643
 8563SOL    HW227522   6.491   3.828   9.538
 8564SOL     OW27523  11.936  10.465   4.804
 8564SOL    HW127524  11.902  10.554   4.797
 8564SOL    HW227525  11.906  10.434   4.889
 8565SOL     OW27526  14.207   5.429   7.442
 8565SOL    HW127527  14.124   5.404   7.482
 8565SOL    HW227528  14.246   5.346   7.415
 8566SOL     OW27529  10.559   7.022   6.564
 8566SOL    HW127530  10.586   6.944   6.515
 8566SOL    HW227531  10.607   7.016   6.646
 8567SOL     OW27532   9.376  14.700  13.654
 8567SOL    HW127533   9.294  14.742  13.679
 8567SOL    HW227534   9.444  14.761  13.684
 8568SOL     OW27535  14.298   7.936   0.377
 8568SOL    HW127536  14.278   7.988   0.455
 8568SOL    HW227537  14.337   7.855   0.411
 8569SOL     OW27538   4.700   0.174   4.546
 8569SOL    HW127539   4.643   0.159   4.621
 8569SOL    HW227540   4.773   0.225   4.581
 8570SOL     OW27541  14.268   1.990   7.591
 8570SOL    HW127542  14.204   1.983   7.662
 8570SOL    HW227543  14.301   1.901   7.579
 8571SOL     OW27544   1.923  14.853   8.895
 8571SOL    HW127545   1.888   0.057   8.918
 8571SOL    HW227546   1.861  14.791   8.935
 8572SOL     OW27547   1.404   0.828   5.723
 8572SOL    HW127548   1.331   0.846   5.664
 8572SOL    HW227549   1.384   0.878   5.802
 8573SOL     OW27550  10.537   6.162  13.296
 8573SOL    HW127551  10.625   6.187  13.324
 8573SOL    HW227552  10.545   6.073  13.265
 8574SOL     OW27553  13.414  11.940  12.201
 8574SOL    HW127554  13.477  11.996  12.156
 8574SOL    HW227555  13.410  11.861  12.148
 8575SOL     OW27556   7.398   6.879   1.167
 8575SOL    HW127557   7.368   6.798   1.207
 8575SOL    HW227558   7.444   6.925   1.238
 8576SOL     OW27559  11.883  14.659   1.273
 8576SOL    HW127560  11.808  14.668   1.214
 8576SOL    HW227561  11.929  14.742   1.266
 8577SOL     OW27562   1.492   7.492   0.280
 8577SOL    HW127563   1.457   7.404   0.293
 8577SOL    HW227564   1.417   7.543   0.247
 8578SOL     OW27565  10.526   3.514   3.132
 8578SOL    HW127566  10.585   3.522   3.207
 8578SOL    HW227567  10.577   3.466   3.066
 8579SOL     OW27568   4.803   9.209   8.032
 8579SOL    HW127569   4.765   9.180   8.116
 8579SOL    HW227570   4.774   9.143   7.969
 8580SOL     OW27571   8.903   5.073   3.998
 8580SOL    HW127572   8.826   5.130   3.991
 8580SOL    HW227573   8.873   4.998   4.049
 8581SOL     OW27574   6.002  12.634   3.800
 8581SOL    HW127575   6.079  12.638   3.743
 8581SOL    HW227576   6.000  12.543   3.831
 8582SOL     OW27577   2.425  12.479   4.800
 8582SOL    HW127578   2.431  12.479   4.896
 8582SOL    HW227579   2.490  12.542   4.771
 8583SOL     OW27580  10.394  10.647   0.738
 8583SOL    HW127581  10.321  10.629   0.679
 8583SOL    HW227582  10.356  10.640   0.826
 8584SOL     OW27583  13.643   8.974   2.399
 8584SOL    HW127584  13.623   8.993   2.307
 8584SOL    HW227585  13.730   8.934   2.396
 8585SOL     OW27586  10.001   9.461   1.938
 8585SOL    HW127587   9.981   9.397   1.870
 8585SOL    HW227588   9.996   9.546   1.893
 8586SOL     OW27589  14.254  10.507   7.170
 8586SOL    HW127590  14.220  10.564   7.239
 8586SOL    HW227591  14.249  10.419   7.207
 8587SOL     OW27592   4.395  14.073  11.574
 8587SOL    HW127593   4.332  14.096  11.642
 8587SOL    HW227594   4.480  14.080  11.617
 8588SOL     OW27595   3.596  13.492   7.000
 8588SOL    HW127596   3.652  13.535   7.064
 8588SOL    HW227597   3.516  13.471   7.048
 8589SOL     OW27598   5.986   7.198   7.743
 8589SOL    HW127599   6.038   7.277   7.726
 8589SOL    HW227600   5.896   7.229   7.745
 8590SOL     OW27601  11.541   3.775   1.082
 8590SOL    HW127602  11.511   3.705   1.023
 8590SOL    HW227603  11.586   3.837   1.025
 8591SOL     OW27604   4.441   3.877   2.911
 8591SOL    HW127605   4.374   3.846   2.972
 8591SOL    HW227606   4.450   3.806   2.847
 8592SOL     OW27607   1.696   4.691  10.733
 8592SOL    HW127608   1.642   4.630  10.682
 8592SOL    HW227609   1.680   4.667  10.824
 8593SOL     OW27610   3.293   3.810   4.175
 8593SOL    HW127611   3.248   3.841   4.097
 8593SOL    HW227612   3.315   3.718   4.155
 8594SOL     OW27613   2.780  14.018  10.951
 8594SOL    HW127614   2.848  14.085  10.950
 8594SOL    HW227615   2.779  13.984  10.861
 8595SOL     OW27616   8.018   5.164   4.551
 8595SOL    HW127617   8.082   5.115   4.499
 8595SOL    HW227618   8.037   5.256   4.532
 8596SOL     OW27619   3.052   7.899  12.693
 8596SOL    HW127620   3.135   7.857  12.717
 8596SOL    HW227621   3.055   7.903  12.597
 8597SOL     OW27622   6.512   1.545   3.653
 8597SOL    HW127623   6.558   1.520   3.572
 8597SOL    HW227624   6.470   1.464   3.681
 8598SOL     OW27625   3.605   4.680  13.252
 8598SOL    HW127626   3.637   4.594  13.227
 8598SOL    HW227627   3.630   4.689  13.343
 8599SOL     OW27628   2.429   9.355   6.928
 8599SOL    HW127629   2.496   9.387   6.868
 8599SOL    HW227630   2.351   9.345   6.874
 8600SOL     OW27631  14.691   0.527   3.470
 8600SOL    HW127632  14.689   0.610   3.518
 8600SOL    HW227633  14.779   0.523   3.433
 8601SOL     OW27634   0.958  12.439  14.694
 8601SOL    HW127635   0.899  12.373  14.730
 8601SOL    HW227636   0.940  12.439  14.600
 8602SOL     OW27637  12.301  10.971   5.436
 8602SOL    HW127638  12.300  11.040   5.502
 8602SOL    HW227639  12.381  10.922   5.455
 8603SOL     OW27640  13.428  11.390   4.378
 8603SOL    HW127641  13.422  11.317   4.316
 8603SOL    HW227642  13.353  11.379   4.435
 8604SOL     OW27643  13.321   4.733   1.285
 8604SOL    HW127644  13.345   4.789   1.359
 8604SOL    HW227645  13.226   4.725   1.291
 8605SOL     OW27646   0.738   7.484   6.219
 8605SOL    HW127647   0.786   7.428   6.281
 8605SOL    HW227648   0.807   7.527   6.168
 8606SOL     OW27649  10.936   4.605   9.019
 8606SOL    HW127650  10.876   4.617   9.092
 8606SOL    HW227651  11.022   4.628   9.054
 8607SOL     OW27652   7.562   6.573   3.302
 8607SOL    HW127653   7.596   6.522   3.229
 8607SOL    HW227654   7.593   6.526   3.380
 8608SOL     OW27655  13.087   9.837  11.034
 8608SOL    HW127656  13.068   9.913  11.089
 8608SOL    HW227657  13.047   9.764  11.080
 8609SOL     OW27658   7.510   5.062   3.143
 8609SOL    HW127659   7.565   5.059   3.065
 8609SOL    HW227660   7.456   5.140   3.131
 8610SOL     OW27661   5.052  12.303  14.134
 8610SOL    HW127662   5.122  12.254  14.091
 8610SOL    HW227663   4.980  12.241  14.142
 8611SOL     OW27664   2.111   2.167   2.568
 8611SOL    HW127665   2.179   2.178   2.634
 8611SOL    HW227666   2.068   2.253   2.564
 8612SOL     OW27667   3.205   6.580  12.704
 8612SOL    HW127668   3.207   6.619  12.792
 8612SOL    HW227669   3.283   6.614  12.661
 8613SOL     OW27670   0.134   8.857   8.590
 8613SOL    HW127671   0.189   8.934   8.580
 8613SOL    HW227672   0.196   8.783   8.587
 8614SOL     OW27673   4.472   8.453   4.226
 8614SOL    HW127674   4.440   8.540   4.203
 8614SOL    HW227675   4.540   8.434   4.160
 8615SOL     OW27676   9.666   1.110   6.366
 8615SOL    HW127677   9.647   1.040   6.429
 8615SOL    HW227678   9.641   1.074   6.282
 8616SOL     OW27679  12.971  11.078   8.517
 8616SOL    HW127680  12.936  11.166   8.530
 8616SOL    HW227681  12.997  11.075   8.425
 8617SOL     OW27682   3.693   4.547  13.816
 8617SOL    HW127683   3.782   4.574  13.793
 8617SOL    HW227684   3.651   4.627  13.845
 8618SOL     OW27685  11.496   8.053  14.717
 8618SOL    HW127686  11.456   8.090  14.639
 8618SOL    HW227687  11.498   8.125  14.780
 8619SOL     OW27688   0.619  11.111  12.226
 8619SOL    HW127689   0.674  11.045  12.266
 8619SOL    HW227690   0.532  11.097  12.264
 8620SOL     OW27691   8.697  14.569  13.038
 8620SOL    HW127692   8.776  14.515  13.045
 8620SOL    HW227693   8.680  14.574  12.944
 8621SOL     OW27694   3.656   3.373   0.289
 8621SOL    HW127695   3.647   3.366   0.194
 8621SOL    HW227696   3.749   3.354   0.306
 8622SOL     OW27697  10.934   2.907   5.794
 8622SOL    HW127698  10.951   2.993   5.756
 8622SOL    HW227699  10.862   2.872   5.742
 8623SOL     OW27700   8.390   4.510   4.886
 8623SOL    HW127701   8.396   4.522   4.791
 8623SOL    HW227702   8.332   4.581   4.914
 8624SOL     OW27703  14.129  13.659  13.644
 8624SOL    HW127704  14.109  13.588  13.584
 8624SOL    HW227705  14.068  13.646  13.718
 8625SOL     OW27706   1.585   6.514  10.705
 8625SOL    HW127707   1.574   6.465  10.786
 8625SOL    HW227708   1.678   6.505  10.684
 8626SOL     OW27709   3.589   3.516   2.035
 8626SOL    HW127710   3.519   3.457   2.007
 8626SOL    HW227711   3.645   3.462   2.092
 8627SOL     OW27712  14.757   9.394   9.623
 8627SOL    HW127713  14.800   9.405   9.538
 8627SOL    HW227714  14.697   9.322   9.611
 8628SOL     OW27715  11.707   7.646  14.340
 8628SOL    HW127716  11.614   7.634  14.320
 8628SOL    HW227717  11.710   7.662  14.434
 8629SOL     OW27718   2.039  12.123   7.828
 8629SOL    HW127719   1.960  12.133   7.775
 8629SOL    HW227720   2.096  12.194   7.798
 8630SOL     OW27721   7.542   8.067   1.188
 8630SOL    HW127722   7.526   8.138   1.127
 8630SOL    HW227723   7.528   8.106   1.274
 8631SOL     OW27724   2.385   2.088  10.081
 8631SOL    HW127725   2.371   2.167  10.134
 8631SOL    HW227726   2.466   2.106  10.033
 8632SOL     OW27727   4.582   4.109   2.903
 8632SOL    HW127728   4.656   4.085   2.848
 8632SOL    HW227729   4.528   4.031   2.906
 8633SOL     OW27730  11.440  12.313  11.335
 8633SOL    HW127731  11.420  12.386  11.394
 8633SOL    HW227732  11.501  12.349  11.271
 8634SOL     OW27733   3.496   3.219  10.861
 8634SOL    HW127734   3.416   3.170  10.880
 8634SOL    HW227735   3.544   3.220  10.944
 8635SOL     OW27736   5.358   7.261  10.203
 8635SOL    HW127737   5.383   7.315  10.128
 8635SOL    HW227738   5.432   7.202  10.215
 8636SOL     OW27739   1.103   3.335   2.713
 8636SOL    HW127740   1.076   3.254   2.756
 8636SOL    HW227741   1.118   3.310   2.622
 8637SOL     OW27742   3.759   1.122   4.741
 8637SOL    HW127743   3.794   1.065   4.672
 8637SOL    HW227744   3.763   1.069   4.821
 8638SOL     OW27745  10.139   1.021   9.938
 8638SOL    HW127746  10.047   1.000   9.953
 8638SOL    HW227747  10.183   0.994  10.019
 8639SOL     OW27748  11.481  10.125   3.973
 8639SOL    HW127749  11.412  10.175   3.929
 8639SOL    HW227750  11.436  10.081   4.046
 8640SOL     OW27751   6.604   6.331   0.320
 8640SOL    HW127752   6.657   6.303   0.395
 8640SOL    HW227753   6.669   6.362   0.257
 8641SOL     OW27754  14.674   4.161   5.625
 8641SOL    HW127755  14.661   4.089   5.687
 8641SOL    HW227756  14.611   4.144   5.555
 8642SOL     OW27757   2.771   9.969  11.196
 8642SOL    HW127758   2.828  10.045  11.185
 8642SOL    HW227759   2.720   9.965  11.115
 8643SOL     OW27760   3.889   8.781   1.423
 8643SOL    HW127761   3.795   8.766   1.414
 8643SOL    HW227762   3.907   8.854   1.363
 8644SOL     OW27763   7.039  12.278   0.650
 8644SOL    HW127764   7.023  12.336   0.576
 8644SOL    HW227765   7.080  12.334   0.716
 8645SOL     OW27766   0.819   6.850   4.784
 8645SOL    HW127767   0.746   6.806   4.740
 8645SOL    HW227768   0.782   6.881   4.866
 8646SOL     OW27769  10.844   5.070  14.818
 8646SOL    HW127770  10.760   5.087  14.777
 8646SOL    HW227771  10.845   4.976  14.834
 8647SOL     OW27772   4.422   6.508  14.108
 8647SOL    HW127773   4.447   6.520  14.199
 8647SOL    HW227774   4.476   6.572  14.060
 8648SOL     OW27775   8.736   1.136  10.299
 8648SOL    HW127776   8.727   1.230  10.307
 8648SOL    HW227777   8.661   1.099  10.345
 8649SOL     OW27778   0.245   8.551  10.286
 8649SOL    HW127779   0.250   8.617  10.356
 8649SOL    HW227780   0.163   8.505  10.303
 8650SOL     OW27781  10.795   3.629   7.400
 8650SOL    HW127782  10.802   3.565   7.329
 8650SOL    HW227783  10.714   3.676   7.382
 8651SOL     OW27784   4.818   3.816   6.829
 8651SOL    HW127785   4.791   3.760   6.756
 8651SOL    HW227786   4.913   3.804   6.835
 8652SOL     OW27787  14.078   5.518   6.774
 8652SOL    HW127788  14.165   5.560   6.770
 8652SOL    HW227789  14.029   5.572   6.835
 8653SOL     OW27790  11.373  10.153   8.264
 8653SOL    HW127791  11.306  10.214   8.297
 8653SOL    HW227792  11.441  10.153   8.331
 8654SOL     OW27793   4.269   3.809   5.896
 8654SOL    HW127794   4.217   3.877   5.939
 8654SOL    HW227795   4.219   3.789   5.816
 8655SOL     OW27796  12.013   0.963  12.501
 8655SOL    HW127797  11.957   0.887  12.485
 8655SOL    HW227798  12.044   0.987  12.414
 8656SOL     OW27799   2.560   1.506   2.749
 8656SOL    HW127800   2.476   1.544   2.774
 8656SOL    HW227801   2.625   1.572   2.774
 8657SOL     OW27802  14.225   2.270   0.835
 8657SOL    HW127803  14.296   2.228   0.786
 8657SOL    HW227804  14.269   2.328   0.896
 8658SOL     OW27805  10.503  10.310   1.725
 8658SOL    HW127806  10.590  10.338   1.697
 8658SOL    HW227807  10.496  10.220   1.694
 8659SOL     OW27808   7.365  13.912  13.013
 8659SOL    HW127809   7.406  13.899  12.928
 8659SOL    HW227810   7.378  14.005  13.032
 8660SOL     OW27811   3.162   3.271   6.571
 8660SOL    HW127812   3.194   3.201   6.628
 8660SOL    HW227813   3.115   3.330   6.630
 8661SOL     OW27814   4.895   2.681   8.713
 8661SOL    HW127815   4.937   2.735   8.646
 8661SOL    HW227816   4.968   2.635   8.755
 8662SOL     OW27817  10.954   1.146   9.237
 8662SOL    HW127818  10.882   1.113   9.184
 8662SOL    HW227819  10.921   1.144   9.327
 8663SOL     OW27820   1.233   5.489   2.006
 8663SOL    HW127821   1.180   5.409   2.004
 8663SOL    HW227822   1.272   5.489   2.093
 8664SOL     OW27823  12.058  13.536   7.886
 8664SOL    HW127824  12.047  13.445   7.912
 8664SOL    HW227825  12.037  13.587   7.964
 8665SOL     OW27826   9.097  12.655  13.213
 8665SOL    HW127827   9.018  12.680  13.261
 8665SOL    HW227828   9.064  12.617  13.132
 8666SOL     OW27829   2.985  12.729   3.806
 8666SOL    HW127830   2.930  12.753   3.731
 8666SOL    HW227831   3.026  12.647   3.780
 8667SOL     OW27832   7.922   9.279   8.950
 8667SOL    HW127833   7.934   9.209   9.014
 8667SOL    HW227834   7.999   9.335   8.960
 8668SOL     OW27835  10.979   5.561   2.690
 8668SOL    HW127836  10.946   5.487   2.742
 8668SOL    HW227837  11.044   5.603   2.747
 8669SOL     OW27838  10.281   3.952   2.135
 8669SOL    HW127839  10.229   3.881   2.098
 8669SOL    HW227840  10.281   4.019   2.067
 8670SOL     OW27841   2.793  11.364   6.120
 8670SOL    HW127842   2.790  11.418   6.041
 8670SOL    HW227843   2.802  11.274   6.088
 8671SOL     OW27844  10.454   2.295  13.963
 8671SOL    HW127845  10.535   2.327  14.003
 8671SOL    HW227846  10.433   2.360  13.897
 8672SOL     OW27847   1.741   1.058  13.490
 8672SOL    HW127848   1.735   1.152  13.503
 8672SOL    HW227849   1.651   1.027  13.493
 8673SOL     OW27850   4.916  11.432   6.945
 8673SOL    HW127851   4.853  11.435   6.872
 8673SOL    HW227852   4.863  11.446   7.023
 8674SOL     OW27853   4.468   5.845  14.616
 8674SOL    HW127854   4.391   5.861  14.562
 8674SOL    HW227855   4.470   5.750  14.628
 8675SOL     OW27856  12.614   0.745   5.780
 8675SOL    HW127857  12.566   0.809   5.831
 8675SOL    HW227858  12.551   0.713   5.715
 8676SOL     OW27859   3.377   3.388   2.250
 8676SOL    HW127860   3.346   3.309   2.204
 8676SOL    HW227861   3.323   3.459   2.216
 8677SOL     OW27862  14.227   6.940   7.544
 8677SOL    HW127863  14.307   6.984   7.573
 8677SOL    HW227864  14.217   6.965   7.452
 8678SOL     OW27865   0.825  12.631  13.512
 8678SOL    HW127866   0.814  12.676  13.596
 8678SOL    HW227867   0.910  12.588  13.518
 8679SOL     OW27868   1.598   6.852   3.705
 8679SOL    HW127869   1.628   6.811   3.785
 8679SOL    HW227870   1.671   6.845   3.644
 8680SOL     OW27871   0.077  10.148   6.812
 8680SOL    HW127872   0.035  10.233   6.806
 8680SOL    HW227873   0.012  10.086   6.779
 8681SOL     OW27874  12.479  11.081   6.728
 8681SOL    HW127875  12.563  11.042   6.753
 8681SOL    HW227876  12.419  11.007   6.725
 8682SOL     OW27877  12.990   8.257   5.342
 8682SOL    HW127878  12.903   8.287   5.314
 8682SOL    HW227879  12.991   8.164   5.322
 8683SOL     OW27880  11.989  13.079   6.102
 8683SOL    HW127881  12.007  13.168   6.070
 8683SOL    HW227882  12.054  13.065   6.170
 8684SOL     OW27883   6.581   6.152   7.618
 8684SOL    HW127884   6.563   6.102   7.698
 8684SOL    HW227885   6.643   6.219   7.645
 8685SOL     OW27886   9.936   8.356   5.721
 8685SOL    HW127887   9.954   8.391   5.633
 8685SOL    HW227888   9.884   8.425   5.763
 8686SOL     OW27889   8.950   5.941   9.426
 8686SOL    HW127890   9.004   5.877   9.473
 8686SOL    HW227891   8.874   5.955   9.483
 8687SOL     OW27892   7.470   3.398   7.690
 8687SOL    HW127893   7.524   3.444   7.755
 8687SOL    HW227894   7.414   3.341   7.743
 8688SOL     OW27895  12.292  13.922   4.961
 8688SOL    HW127896  12.351  13.927   5.036
 8688SOL    HW227897  12.310  14.003   4.912
 8689SOL     OW27898   3.950   2.760   9.932
 8689SOL    HW127899   3.891   2.821   9.887
 8689SOL    HW227900   3.971   2.694   9.866
 8690SOL     OW27901   7.183   3.874   3.422
 8690SOL    HW127902   7.206   3.896   3.332
 8690SOL    HW227903   7.259   3.826   3.454
 8691SOL     OW27904  10.130   5.924  11.061
 8691SOL    HW127905  10.118   6.002  11.006
 8691SOL    HW227906  10.217   5.892  11.038
 8692SOL     OW27907   8.840   3.572   5.656
 8692SOL    HW127908   8.851   3.628   5.733
 8692SOL    HW227909   8.762   3.605   5.613
 8693SOL     OW27910   8.830   0.837   0.188
 8693SOL    HW127911   8.856   0.783   0.263
 8693SOL    HW227912   8.905   0.893   0.171
 8694SOL     OW27913   6.862  11.134   9.259
 8694SOL    HW127914   6.841  11.114   9.168
 8694SOL    HW227915   6.797  11.199   9.285
 8695SOL     OW27916  11.202  12.257   7.801
 8695SOL    HW127917  11.223  12.169   7.771
 8695SOL    HW227918  11.122  12.280   7.755
 8696SOL     OW27919   0.438   3.770   9.008
 8696SOL    HW127920   0.510   3.776   8.945
 8696SOL    HW227921   0.441   3.680   9.039
 8697SOL     OW27922  10.234   8.801  13.651
 8697SOL    HW127923  10.147   8.797  13.692
 8697SOL    HW227924  10.236   8.885  13.606
 8698SOL     OW27925  13.211   3.905   3.382
 8698SOL    HW127926  13.126   3.884   3.343
 8698SOL    HW227927  13.193   3.977   3.442
 8699SOL     OW27928   6.211   3.044   1.024
 8699SOL    HW127929   6.186   3.022   1.113
 8699SOL    HW227930   6.280   2.981   1.002
 8700SOL     OW27931  10.284  11.380   3.289
 8700SOL    HW127932  10.313  11.470   3.304
 8700SOL    HW227933  10.315  11.359   3.201
 8701SOL     OW27934   2.283   8.940  12.288
 8701SOL    HW127935   2.210   8.879  12.274
 8701SOL    HW227936   2.361   8.890  12.265
 8702SOL     OW27937   2.261   5.599   9.951
 8702SOL    HW127938   2.351   5.625   9.972
 8702SOL    HW227939   2.250   5.622   9.859
 8703SOL     OW27940   3.987   8.600   6.170
 8703SOL    HW127941   4.040   8.663   6.122
 8703SOL    HW227942   3.953   8.649   6.245
 8704SOL     OW27943   4.214   6.601   7.648
 8704SOL    HW127944   4.140   6.633   7.700
 8704SOL    HW227945   4.245   6.524   7.696
 8705SOL     OW27946  12.498   1.045   2.800
 8705SOL    HW127947  12.552   1.095   2.739
 8705SOL    HW227948  12.489   1.103   2.876
 8706SOL     OW27949   9.480   5.342   0.893
 8706SOL    HW127950   9.442   5.411   0.837
 8706SOL    HW227951   9.482   5.382   0.980
 8707SOL     OW27952   6.196   7.405   0.017
 8707SOL    HW127953   6.269   7.350  14.870
 8707SOL    HW227954   6.237   7.472   0.072
 8708SOL     OW27955  13.730  12.118  12.970
 8708SOL    HW127956  13.700  12.197  12.925
 8708SOL    HW227957  13.735  12.052  12.900
 8709SOL     OW27958   8.466   2.804   7.176
 8709SOL    HW127959   8.421   2.749   7.241
 8709SOL    HW227960   8.440   2.767   7.092
 8710SOL     OW27961   6.589  14.649  11.494
 8710SOL    HW127962   6.658  14.601  11.540
 8710SOL    HW227963   6.512  14.594  11.500
 8711SOL     OW27964  14.545   3.054  11.164
 8711SOL    HW127965  14.569   2.997  11.237
 8711SOL    HW227966  14.475   3.110  11.199
 8712SOL     OW27967   9.820   1.145   7.183
 8712SOL    HW127968   9.740   1.106   7.148
 8712SOL    HW227969   9.825   1.231   7.140
 8713SOL     OW27970   3.753   8.666   7.660
 8713SOL    HW127971   3.716   8.690   7.575
 8713SOL    HW227972   3.756   8.571   7.660
 8714SOL     OW27973  11.401   5.385   9.848
 8714SOL    HW127974  11.390   5.294   9.823
 8714SOL    HW227975  11.444   5.426   9.773
 8715SOL     OW27976   9.897   9.058  12.106
 8715SOL    HW127977   9.992   9.046  12.110
 8715SOL    HW227978   9.884   9.120  12.034
 8716SOL     OW27979   9.174   8.098   3.221
 8716SOL    HW127980   9.226   8.090   3.302
 8716SOL    HW227981   9.179   8.011   3.181
 8717SOL     OW27982  10.514   0.398   5.960
 8717SOL    HW127983  10.565   0.471   5.923
 8717SOL    HW227984  10.521   0.329   5.894
 8718SOL     OW27985   8.313   9.407  13.022
 8718SOL    HW127986   8.222   9.399  13.049
 8718SOL    HW227987   8.329   9.502  13.019
 8719SOL     OW27988   1.821  14.455  11.176
 8719SOL    HW127989   1.803  14.448  11.270
 8719SOL    HW227990   1.758  14.521  11.145
 8720SOL     OW27991   3.054   8.411   1.856
 8720SOL    HW127992   2.959   8.405   1.851
 8720SOL    HW227993   3.074   8.409   1.950
 8721SOL     OW27994  14.735   4.557  13.085
 8721SOL    HW127995  14.711   4.523  13.171
 8721SOL    HW227996  14.743   4.651  13.098
 8722SOL     OW27997  13.950  14.631  14.745
 8722SOL    HW127998  13.948  14.687  14.822
 8722SOL    HW227999  14.037  14.644  14.709
 8723SOL     OW28000   2.897   6.502   6.541
 8723SOL    HW128001   2.961   6.556   6.588
 8723SOL    HW228002   2.897   6.538   6.452
 8724SOL     OW28003  14.748   2.285   8.240
 8724SOL    HW128004  14.712   2.198   8.258
 8724SOL    HW228005  14.839   2.269   8.216
 8725SOL     OW28006   0.162   5.851   9.955
 8725SOL    HW128007   0.097   5.782   9.963
 8725SOL    HW228008   0.122   5.917   9.898
 8726SOL     OW28009  14.412   8.004   4.684
 8726SOL    HW128010  14.390   7.959   4.602
 8726SOL    HW228011  14.487   7.954   4.719
 8727SOL     OW28012   6.340  14.552   5.404
 8727SOL    HW128013   6.337  14.557   5.308
 8727SOL    HW228014   6.389  14.630   5.430
 8728SOL     OW28015   3.170  11.350  12.795
 8728SOL    HW128016   3.263  11.352  12.772
 8728SOL    HW228017   3.146  11.441  12.809
 8729SOL     OW28018   0.700   7.274   3.139
 8729SOL    HW128019   0.670   7.254   3.050
 8729SOL    HW228020   0.622   7.262   3.194
 8730SOL     OW28021   4.175  13.614  13.845
 8730SOL    HW128022   4.095  13.604  13.793
 8730SOL    HW228023   4.174  13.705  13.875
 8731SOL     OW28024   8.113   4.619   7.942
 8731SOL    HW128025   8.124   4.714   7.937
 8731SOL    HW228026   8.051   4.606   8.014
 8732SOL     OW28027   5.423   9.508  14.539
 8732SOL    HW128028   5.454   9.418  14.536
 8732SOL    HW228029   5.471   9.548  14.612
 8733SOL     OW28030  10.859   2.545   8.883
 8733SOL    HW128031  10.786   2.512   8.832
 8733SOL    HW228032  10.936   2.502   8.845
 8734SOL     OW28033   7.644  13.034   5.011
 8734SOL    HW128034   7.674  13.103   4.951
 8734SOL    HW228035   7.723  12.982   5.029
 8735SOL     OW28036  14.136   2.021  13.064
 8735SOL    HW128037  14.045   1.997  13.084
 8735SOL    HW228038  14.159   2.085  13.131
 8736SOL     OW28039  10.478  13.612   3.154
 8736SOL    HW128040  10.549  13.630   3.216
 8736SOL    HW228041  10.480  13.686   3.093
 8737SOL     OW28042  14.718   9.728   0.167
 8737SOL    HW128043  14.810   9.727   0.140
 8737SOL    HW228044  14.699   9.820   0.185
 8738SOL     OW28045   5.319  13.879  11.726
 8738SOL    HW128046   5.347  13.845  11.641
 8738SOL    HW228047   5.317  13.801  11.782
 8739SOL     OW28048  11.186   9.694   1.988
 8739SOL    HW128049  11.231   9.689   2.072
 8739SOL    HW228050  11.104   9.646   2.003
 8740SOL     OW28051  12.470   9.538   6.361
 8740SOL    HW128052  12.485   9.613   6.303
 8740SOL    HW228053  12.446   9.576   6.445
 8741SOL     OW28054   8.696   2.505   3.158
 8741SOL    HW128055   8.633   2.497   3.086
 8741SOL    HW228056   8.700   2.599   3.176
 8742SOL     OW28057  10.750  10.199   7.632
 8742SOL    HW128058  10.680  10.244   7.584
 8742SOL    HW228059  10.808  10.268   7.663
 8743SOL     OW28060  12.641   2.329   0.331
 8743SOL    HW128061  12.678   2.400   0.278
 8743SOL    HW228062  12.676   2.249   0.290
 8744SOL     OW28063   9.373  13.005   6.279
 8744SOL    HW128064   9.283  13.020   6.253
 8744SOL    HW228065   9.382  12.909   6.285
 8745SOL     OW28066  11.093  12.732  12.659
 8745SOL    HW128067  11.146  12.798  12.614
 8745SOL    HW228068  11.023  12.782  12.700
 8746SOL     OW28069   5.467   7.651   1.957
 8746SOL    HW128070   5.389   7.653   2.013
 8746SOL    HW228071   5.436   7.685   1.873
 8747SOL     OW28072   6.944   0.764  13.622
 8747SOL    HW128073   6.902   0.849  13.635
 8747SOL    HW228074   6.922   0.713  13.699
 8748SOL     OW28075   4.640   3.520   7.183
 8748SOL    HW128076   4.607   3.538   7.095
 8748SOL    HW228077   4.670   3.429   7.178
 8749SOL     OW28078   2.324  13.325  10.771
 8749SOL    HW128079   2.386  13.256  10.794
 8749SOL    HW228080   2.333  13.390  10.842
 8750SOL     OW28081   7.710   0.829  13.141
 8750SOL    HW128082   7.726   0.735  13.146
 8750SOL    HW228083   7.697   0.847  13.048
 8751SOL     OW28084  10.990   0.169  13.879
 8751SOL    HW128085  10.931   0.152  13.806
 8751SOL    HW228086  10.932   0.174  13.956
 8752SOL     OW28087   8.322   5.630   6.635
 8752SOL    HW128088   8.370   5.582   6.568
 8752SOL    HW228089   8.386   5.693   6.669
 8753SOL     OW28090   3.809  13.414   9.705
 8753SOL    HW128091   3.755  13.483   9.744
 8753SOL    HW228092   3.898  13.447   9.710
 8754SOL     OW28093  10.612   2.569  13.054
 8754SOL    HW128094  10.607   2.661  13.078
 8754SOL    HW228095  10.704   2.546  13.069
 8755SOL     OW28096   1.968  10.206  12.347
 8755SOL    HW128097   1.917  10.213  12.266
 8755SOL    HW228098   1.914  10.250  12.413
 8756SOL     OW28099  11.015  11.340  13.759
 8756SOL    HW128100  11.034  11.427  13.723
 8756SOL    HW228101  11.080  11.328  13.828
 8757SOL     OW28102   6.317   3.438   7.790
 8757SOL    HW128103   6.298   3.502   7.859
 8757SOL    HW228104   6.237   3.386   7.784
 8758SOL     OW28105   0.441   5.113   4.292
 8758SOL    HW128106   0.352   5.146   4.280
 8758SOL    HW228107   0.430   5.019   4.305
 8759SOL     OW28108  14.476  10.629  13.705
 8759SOL    HW128109  14.430  10.701  13.746
 8759SOL    HW228110  14.443  10.551  13.749
 8760SOL     OW28111  14.214   2.645  12.326
 8760SOL    HW128112  14.306   2.637  12.352
 8760SOL    HW228113  14.179   2.713  12.383
 8761SOL     OW28114   2.824   3.613  11.709
 8761SOL    HW128115   2.781   3.696  11.727
 8761SOL    HW228116   2.909   3.620  11.751
 8762SOL     OW28117   6.038  13.803   5.708
 8762SOL    HW128118   6.040  13.768   5.619
 8762SOL    HW228119   6.079  13.889   5.701
 8763SOL     OW28120  13.865   0.119   8.128
 8763SOL    HW128121  13.952   0.159   8.127
 8763SOL    HW228122  13.881   0.028   8.151
 8764SOL     OW28123   5.109   1.150   5.304
 8764SOL    HW128124   5.113   1.236   5.263
 8764SOL    HW228125   5.124   1.089   5.232
 8765SOL     OW28126   2.693   8.373  10.154
 8765SOL    HW128127   2.668   8.453  10.108
 8765SOL    HW228128   2.697   8.399  10.246
 8766SOL     OW28129   1.996   8.317   5.734
 8766SOL    HW128130   2.055   8.277   5.670
 8766SOL    HW228131   1.949   8.384   5.685
 8767SOL     OW28132   4.800   9.925   4.481
 8767SOL    HW128133   4.855   9.942   4.405
 8767SOL    HW228134   4.857   9.943   4.556
 8768SOL     OW28135  10.233   6.749   6.271
 8768SOL    HW128136  10.197   6.661   6.281
 8768SOL    HW228137  10.216   6.792   6.354
 8769SOL     OW28138   3.570  13.923  10.549
 8769SOL    HW128139   3.613  13.839  10.566
 8769SOL    HW228140   3.476  13.903  10.555
 8770SOL     OW28141  13.361   1.026   3.162
 8770SOL    HW128142  13.276   1.045   3.124
 8770SOL    HW228143  13.393   1.109   3.195
 8771SOL     OW28144   1.474   3.886   9.873
 8771SOL    HW128145   1.475   3.808   9.928
 8771SOL    HW228146   1.464   3.853   9.784
 8772SOL     OW28147  13.373   7.015   8.466
 8772SOL    HW128148  13.312   7.060   8.406
 8772SOL    HW228149  13.420   6.953   8.410
 8773SOL     OW28150  11.783   9.711   0.226
 8773SOL    HW128151  11.847   9.691   0.158
 8773SOL    HW228152  11.811   9.660   0.301
 8774SOL     OW28153   6.341   7.616   6.019
 8774SOL    HW128154   6.385   7.670   6.084
 8774SOL    HW228155   6.381   7.642   5.936
 8775SOL     OW28156   8.167   6.992   0.764
 8775SOL    HW128157   8.077   6.995   0.731
 8775SOL    HW228158   8.204   7.077   0.741
 8776SOL     OW28159   3.821   0.622  10.649
 8776SOL    HW128160   3.898   0.587  10.604
 8776SOL    HW228161   3.760   0.642  10.578
 8777SOL     OW28162   3.246   3.413   4.922
 8777SOL    HW128163   3.281   3.487   4.872
 8777SOL    HW228164   3.152   3.417   4.908
 8778SOL     OW28165   1.004   6.502   2.809
 8778SOL    HW128166   1.089   6.463   2.787
 8778SOL    HW228167   0.978   6.458   2.890
 8779SOL     OW28168   3.315  14.305   6.939
 8779SOL    HW128169   3.321  14.398   6.920
 8779SOL    HW228170   3.336  14.298   7.032
 8780SOL     OW28171   6.572   1.454   6.684
 8780SOL    HW128172   6.652   1.507   6.684
 8780SOL    HW228173   6.527   1.477   6.765
 8781SOL     OW28174   8.565   3.716  12.279
 8781SOL    HW128175   8.577   3.683  12.190
 8781SOL    HW228176   8.517   3.647  12.324
 8782SOL     OW28177  10.541   8.289   1.265
 8782SOL    HW128178  10.597   8.361   1.293
 8782SOL    HW228179  10.504   8.254   1.346
 8783SOL     OW28180   7.048   8.183   3.095
 8783SOL    HW128181   7.028   8.192   3.188
 8783SOL    HW228182   7.140   8.154   3.093
 8784SOL     OW28183  10.319   3.406   7.925
 8784SOL    HW128184  10.235   3.444   7.901
 8784SOL    HW228185  10.365   3.476   7.971
 8785SOL     OW28186   5.132   2.562   8.167
 8785SOL    HW128187   5.168   2.590   8.252
 8785SOL    HW228188   5.205   2.520   8.122
 8786SOL     OW28189   4.137   3.443  12.730
 8786SOL    HW128190   4.222   3.486  12.717
 8786SOL    HW228191   4.156   3.370  12.789
 8787SOL     OW28192   2.488   9.071  11.038
 8787SOL    HW128193   2.536   8.988  11.031
 8787SOL    HW228194   2.530   9.128  10.973
 8788SOL     OW28195   0.055   2.385  11.110
 8788SOL    HW128196   0.082   2.443  11.039
 8788SOL    HW228197   0.015   2.444  11.175
 8789SOL     OW28198   4.591   0.153  12.856
 8789SOL    HW128199   4.668   0.097  12.841
 8789SOL    HW228200   4.623   0.242  12.842
 8790SOL     OW28201   8.619   3.444  14.546
 8790SOL    HW128202   8.549   3.438  14.482
 8790SOL    HW228203   8.610   3.364  14.599
 8791SOL     OW28204   3.105   0.015   1.776
 8791SOL    HW128205   3.099  14.814   1.824
 8791SOL    HW228206   3.199   0.035   1.775
 8792SOL     OW28207   7.486   3.391   4.469
 8792SOL    HW128208   7.412   3.390   4.408
 8792SOL    HW228209   7.541   3.463   4.440
 8793SOL     OW28210   4.406   1.154   8.564
 8793SOL    HW128211   4.475   1.089   8.579
 8793SOL    HW228212   4.442   1.212   8.497
 8794SOL     OW28213  11.470   0.017  12.576
 8794SOL    HW128214  11.502   0.052  12.660
 8794SOL    HW228215  11.406   0.081  12.547
 8795SOL     OW28216  11.647   5.464   9.432
 8795SOL    HW128217  11.621   5.457   9.340
 8795SOL    HW228218  11.706   5.540   9.435
 8796SOL     OW28219   7.814   1.020   1.839
 8796SOL    HW128220   7.832   1.111   1.864
 8796SOL    HW228221   7.828   1.018   1.745
 8797SOL     OW28222  11.420  14.452  14.859
 8797SOL    HW128223  11.371  14.388  14.807
 8797SOL    HW228224  11.373  14.456   0.060
 8798SOL     OW28225   1.000  12.476   4.423
 8798SOL    HW128226   1.066  12.407   4.425
 8798SOL    HW228227   0.928  12.442   4.475
 8799SOL     OW28228  11.731  10.337  10.778
 8799SOL    HW128229  11.802  10.276  10.756
 8799SOL    HW228230  11.760  10.378  10.859
 8800SOL     OW28231  10.346   7.913   5.158
 8800SOL    HW128232  10.395   7.995   5.160
 8800SOL    HW228233  10.265   7.932   5.205
 8801SOL     OW28234   0.929  12.719  10.454
 8801SOL    HW128235   0.852  12.698  10.508
 8801SOL    HW228236   0.911  12.677  10.370
 8802SOL     OW28237   5.985   2.561  11.201
 8802SOL    HW128238   5.940   2.511  11.269
 8802SOL    HW228239   5.949   2.527  11.119
 8803SOL     OW28240   7.787   5.160   8.916
 8803SOL    HW128241   7.767   5.242   8.963
 8803SOL    HW228242   7.860   5.122   8.965
 8804SOL     OW28243  14.455   0.321   1.345
 8804SOL    HW128244  14.424   0.401   1.388
 8804SOL    HW228245  14.422   0.327   1.256
 8805SOL     OW28246   8.887   7.277   0.101
 8805SOL    HW128247   8.937   7.325   0.167
 8805SOL    HW228248   8.869   7.192   0.142
 8806SOL     OW28249  13.448   3.943   1.364
 8806SOL    HW128250  13.504   4.019   1.355
 8806SOL    HW228251  13.376   3.958   1.302
 8807SOL     OW28252   8.157   0.982   7.643
 8807SOL    HW128253   8.110   0.921   7.701
 8807SOL    HW228254   8.091   1.011   7.581
 8808SOL     OW28255   7.002   3.532  13.380
 8808SOL    HW128256   7.093   3.560  13.378
 8808SOL    HW228257   6.965   3.576  13.457
 8809SOL     OW28258   1.641  14.084  14.476
 8809SOL    HW128259   1.604  14.104  14.390
 8809SOL    HW228260   1.576  14.028  14.518
 8810SOL     OW28261   6.577   6.166   2.533
 8810SOL    HW128262   6.570   6.098   2.599
 8810SOL    HW228263   6.606   6.244   2.582
 8811SOL     OW28264   1.279  10.674   1.469
 8811SOL    HW128265   1.266  10.639   1.558
 8811SOL    HW228266   1.279  10.769   1.481
 8812SOL     OW28267  12.020   6.869   7.207
 8812SOL    HW128268  11.988   6.881   7.296
 8812SOL    HW228269  11.956   6.912   7.152
 8813SOL     OW28270   0.551   8.667  14.288
 8813SOL    HW128271   0.618   8.618  14.240
 8813SOL    HW228272   0.598   8.743  14.323
 8814SOL     OW28273   7.554   1.103  12.260
 8814SOL    HW128274   7.608   1.027  12.283
 8814SOL    HW228275   7.585   1.128  12.173
 8815SOL     OW28276  14.390   1.911   1.147
 8815SOL    HW128277  14.300   1.880   1.133
 8815SOL    HW228278  14.441   1.867   1.079
 8816SOL     OW28279  11.063   4.994   8.331
 8816SOL    HW128280  11.117   4.914   8.334
 8816SOL    HW228281  10.984   4.967   8.285
 8817SOL     OW28282   2.980   4.272   0.137
 8817SOL    HW128283   3.032   4.195   0.157
 8817SOL    HW228284   2.893   4.237   0.114
 8818SOL     OW28285   5.217   5.221   7.614
 8818SOL    HW128286   5.227   5.144   7.671
 8818SOL    HW228287   5.304   5.261   7.612
 8819SOL     OW28288   4.007   1.552  14.542
 8819SOL    HW128289   4.074   1.574  14.607
 8819SOL    HW228290   3.961   1.634  14.525
 8820SOL     OW28291  10.830  11.909  14.524
 8820SOL    HW128292  10.742  11.917  14.560
 8820SOL    HW228293  10.839  11.983  14.465
 8821SOL     OW28294   3.892   2.134   7.054
 8821SOL    HW128295   3.920   2.055   7.008
 8821SOL    HW228296   3.940   2.205   7.011
 8822SOL     OW28297  13.402   6.176   1.502
 8822SOL    HW128298  13.448   6.201   1.422
 8822SOL    HW228299  13.471   6.160   1.566
 8823SOL     OW28300  10.674   7.806   0.877
 8823SOL    HW128301  10.660   7.780   0.786
 8823SOL    HW228302  10.648   7.898   0.881
 8824SOL     OW28303  10.149   8.202   0.348
 8824SOL    HW128304  10.055   8.215   0.361
 8824SOL    HW228305  10.189   8.230   0.431
 8825SOL     OW28306   9.316   9.276   9.633
 8825SOL    HW128307   9.246   9.340   9.620
 8825SOL    HW228308   9.272   9.192   9.637
 8826SOL     OW28309   6.532  10.032   7.040
 8826SOL    HW128310   6.617  10.050   7.081
 8826SOL    HW228311   6.537   9.940   7.015
 8827SOL     OW28312   2.531  11.146  13.618
 8827SOL    HW128313   2.577  11.133  13.701
 8827SOL    HW228314   2.462  11.080  13.619
 8828SOL     OW28315  14.780  12.542   9.751
 8828SOL    HW128316  14.717  12.575   9.686
 8828SOL    HW228317  14.853  12.604   9.745
 8829SOL     OW28318  12.159  12.113   4.623
 8829SOL    HW128319  12.150  12.207   4.642
 8829SOL    HW228320  12.076  12.075   4.650
 8830SOL     OW28321   9.287   2.505  14.581
 8830SOL    HW128322   9.380   2.527  14.591
 8830SOL    HW228323   9.251   2.577  14.530
 8831SOL     OW28324   5.606   7.563  11.094
 8831SOL    HW128325   5.692   7.581  11.133
 8831SOL    HW228326   5.547   7.553  11.170
 8832SOL     OW28327   4.487  12.384   3.875
 8832SOL    HW128328   4.432  12.321   3.921
 8832SOL    HW228329   4.436  12.466   3.878
 8833SOL     OW28330   0.491  14.653   2.547
 8833SOL    HW128331   0.458  14.742   2.530
 8833SOL    HW228332   0.482  14.608   2.463
 8834SOL     OW28333   7.488   6.291   2.722
 8834SOL    HW128334   7.429   6.325   2.654
 8834SOL    HW228335   7.569   6.271   2.675
 8835SOL     OW28336   4.432  10.451   7.666
 8835SOL    HW128337   4.463  10.541   7.663
 8835SOL    HW228338   4.491  10.406   7.726
 8836SOL     OW28339   6.539   8.455   3.637
 8836SOL    HW128340   6.544   8.417   3.549
 8836SOL    HW228341   6.606   8.523   3.638
 8837SOL     OW28342   5.657  11.224   5.558
 8837SOL    HW128343   5.599  11.204   5.631
 8837SOL    HW228344   5.703  11.304   5.584
 8838SOL     OW28345   0.748   5.957   3.113
 8838SOL    HW128346   0.839   5.981   3.130
 8838SOL    HW228347   0.753   5.874   3.065
 8839SOL     OW28348   6.868  11.154   4.330
 8839SOL    HW128349   6.847  11.247   4.336
 8839SOL    HW228350   6.798  11.117   4.275
 8840SOL     OW28351  13.117   2.142  12.079
 8840SOL    HW128352  13.073   2.081  12.021
 8840SOL    HW228353  13.111   2.103  12.166
 8841SOL     OW28354   2.063   3.928  10.452
 8841SOL    HW128355   2.158   3.928  10.464
 8841SOL    HW228356   2.030   3.992  10.516
 8842SOL     OW28357  10.677   9.594   1.090
 8842SOL    HW128358  10.688   9.639   1.174
 8842SOL    HW228359  10.703   9.504   1.108
 8843SOL     OW28360   5.099   9.017   1.522
 8843SOL    HW128361   5.153   8.985   1.595
 8843SOL    HW228362   5.057   8.939   1.486
 8844SOL     OW28363  11.443   7.846  14.015
 8844SOL    HW128364  11.533   7.862  14.043
 8844SOL    HW228365  11.445   7.854  13.920
 8845SOL     OW28366   8.750   0.424   5.650
 8845SOL    HW128367   8.660   0.453   5.643
 8845SOL    HW228368   8.797   0.500   5.685
 8846SOL     OW28369  12.293   2.102  13.487
 8846SOL    HW128370  12.294   2.185  13.441
 8846SOL    HW228371  12.370   2.106  13.545
 8847SOL     OW28372  13.469   5.243   2.792
 8847SOL    HW128373  13.477   5.200   2.878
 8847SOL    HW228374  13.461   5.170   2.730
 8848SOL     OW28375   0.725   7.997   0.725
 8848SOL    HW128376   0.749   8.083   0.760
 8848SOL    HW228377   0.806   7.945   0.732
 8849SOL     OW28378   4.925   3.411   3.659
 8849SOL    HW128379   4.921   3.341   3.724
 8849SOL    HW228380   4.981   3.477   3.698
 8850SOL     OW28381   5.133   3.856  10.000
 8850SOL    HW128382   5.063   3.838   9.938
 8850SOL    HW228383   5.102   3.821  10.083
 8851SOL     OW28384   7.966  11.714   7.109
 8851SOL    HW128385   7.930  11.787   7.161
 8851SOL    HW228386   7.930  11.727   7.022
 8852SOL     OW28387   4.741   4.232  13.930
 8852SOL    HW128388   4.815   4.176  13.906
 8852SOL    HW228389   4.677   4.219  13.861
 8853SOL     OW28390  12.195   0.276   2.376
 8853SOL    HW128391  12.237   0.358   2.402
 8853SOL    HW228392  12.260   0.208   2.393
 8854SOL     OW28393   0.948   3.507  14.187
 8854SOL    HW128394   0.858   3.473  14.189
 8854SOL    HW228395   1.002   3.432  14.165
 8855SOL     OW28396   3.583  14.343  11.027
 8855SOL    HW128397   3.591  14.297  10.943
 8855SOL    HW228398   3.534  14.423  11.005
 8856SOL     OW28399   4.835  11.755  12.176
 8856SOL    HW128400   4.869  11.834  12.219
 8856SOL    HW228401   4.774  11.718  12.239
 8857SOL     OW28402   3.633   5.287   1.173
 8857SOL    HW128403   3.629   5.304   1.267
 8857SOL    HW228404   3.718   5.323   1.146
 8858SOL     OW28405   2.019  11.338   4.844
 8858SOL    HW128406   2.095  11.292   4.880
 8858SOL    HW228407   2.057  11.411   4.794
 8859SOL     OW28408   8.440   1.887   3.658
 8859SOL    HW128409   8.394   1.816   3.612
 8859SOL    HW228410   8.414   1.876   3.749
 8860SOL     OW28411  13.941   7.629   0.697
 8860SOL    HW128412  13.854   7.667   0.689
 8860SOL    HW228413  13.949   7.570   0.622
 8861SOL     OW28414   6.656  12.989   5.133
 8861SOL    HW128415   6.569  13.028   5.123
 8861SOL    HW228416   6.710  13.061   5.167
 8862SOL     OW28417   4.801   5.367   7.465
 8862SOL    HW128418   4.771   5.351   7.554
 8862SOL    HW228419   4.885   5.321   7.460
 8863SOL     OW28420   1.329   0.934   6.288
 8863SOL    HW128421   1.278   1.001   6.334
 8863SOL    HW228422   1.412   0.932   6.334
 8864SOL     OW28423   8.752   8.408   9.826
 8864SOL    HW128424   8.749   8.439   9.735
 8864SOL    HW228425   8.787   8.482   9.876
 8865SOL     OW28426   3.638   1.787  13.805
 8865SOL    HW128427   3.630   1.799  13.710
 8865SOL    HW228428   3.552   1.754  13.832
 8866SOL     OW28429  13.889   6.021  14.680
 8866SOL    HW128430  13.944   5.999  14.605
 8866SOL    HW228431  13.879   5.939  14.728
 8867SOL     OW28432   6.026   1.442   9.770
 8867SOL    HW128433   6.067   1.386   9.836
 8867SOL    HW228434   6.020   1.528   9.812
 8868SOL     OW28435  14.094  12.199  12.657
 8868SOL    HW128436  14.045  12.259  12.714
 8868SOL    HW228437  14.027  12.141  12.621
 8869SOL     OW28438   1.041   9.095   9.459
 8869SOL    HW128439   1.042   9.159   9.530
 8869SOL    HW228440   1.025   9.148   9.380
 8870SOL     OW28441   0.950   3.067   7.095
 8870SOL    HW128442   1.014   3.014   7.047
 8870SOL    HW228443   0.866   3.043   7.056
 8871SOL     OW28444   1.649   5.763   8.262
 8871SOL    HW128445   1.651   5.843   8.209
 8871SOL    HW228446   1.583   5.780   8.330
 8872SOL     OW28447   4.571   2.019   6.740
 8872SOL    HW128448   4.498   2.063   6.782
 8872SOL    HW228449   4.628   2.090   6.710
 8873SOL     OW28450  10.371   8.893   8.068
 8873SOL    HW128451  10.394   8.814   8.018
 8873SOL    HW228452  10.452   8.943   8.071
 8874SOL     OW28453   5.024   0.578   2.461
 8874SOL    HW128454   5.004   0.645   2.396
 8874SOL    HW228455   4.962   0.594   2.532
 8875SOL     OW28456   3.125  11.198   4.159
 8875SOL    HW128457   3.030  11.189   4.152
 8875SOL    HW228458   3.158  11.174   4.073
 8876SOL     OW28459  13.782   3.359   3.411
 8876SOL    HW128460  13.714   3.425   3.399
 8876SOL    HW228461  13.787   3.345   3.505
 8877SOL     OW28462   7.689  11.496  10.978
 8877SOL    HW128463   7.699  11.588  10.953
 8877SOL    HW228464   7.601  11.472  10.950
 8878SOL     OW28465   0.570   5.591   6.108
 8878SOL    HW128466   0.590   5.527   6.176
 8878SOL    HW228467   0.475   5.602   6.112
 8879SOL     OW28468  10.493   9.797   1.080
 8879SOL    HW128469  10.549   9.721   1.064
 8879SOL    HW228470  10.495   9.846   0.998
 8880SOL     OW28471   4.913  14.634   8.942
 8880SOL    HW128472   4.992  14.617   8.891
 8880SOL    HW228473   4.907  14.560   9.002
 8881SOL     OW28474  14.021   1.738  10.457
 8881SOL    HW128475  13.997   1.781  10.539
 8881SOL    HW228476  13.947   1.754  10.399
 8882SOL     OW28477  14.054  10.305   4.451
 8882SOL    HW128478  14.073  10.343   4.537
 8882SOL    HW228479  13.973  10.256   4.465
 8883SOL     OW28480   5.045   9.792   7.610
 8883SOL    HW128481   5.006   9.879   7.611
 8883SOL    HW228482   5.132   9.805   7.571
 8884SOL     OW28483   2.676  14.114  14.286
 8884SOL    HW128484   2.610  14.107  14.217
 8884SOL    HW228485   2.651  14.192  14.335
 8885SOL     OW28486   6.436   7.739   7.001
 8885SOL    HW128487   6.472   7.800   6.937
 8885SOL    HW228488   6.368   7.692   6.953
 8886SOL     OW28489   2.861   1.135   5.927
 8886SOL    HW128490   2.823   1.047   5.922
 8886SOL    HW228491   2.786   1.193   5.939
 8887SOL     OW28492   1.464  12.468   8.211
 8887SOL    HW128493   1.403  12.541   8.225
 8887SOL    HW228494   1.512  12.492   8.131
 8888SOL     OW28495   2.567  10.892   5.968
 8888SOL    HW128496   2.597  10.863   5.882
 8888SOL    HW228497   2.530  10.979   5.953
 8889SOL     OW28498  10.084   8.589   4.080
 8889SOL    HW128499  10.172   8.624   4.095
 8889SOL    HW228500  10.080   8.575   3.985
 8890SOL     OW28501   3.586   6.882   3.034
 8890SOL    HW128502   3.681   6.880   3.040
 8890SOL    HW228503   3.558   6.803   3.081
 8891SOL     OW28504   3.119   5.450  13.737
 8891SOL    HW128505   3.213   5.445  13.755
 8891SOL    HW228506   3.083   5.369  13.774
 8892SOL     OW28507   7.536  10.457   1.561
 8892SOL    HW128508   7.588  10.500   1.493
 8892SOL    HW228509   7.468  10.410   1.512
 8893SOL     OW28510   3.915   9.754   9.488
 8893SOL    HW128511   3.979   9.707   9.541
 8893SOL    HW228512   3.894   9.832   9.539
 8894SOL     OW28513  12.340   9.495  11.039
 8894SOL    HW128514  12.330   9.400  11.050
 8894SOL    HW228515  12.399   9.504  10.964
 8895SOL     OW28516  12.522   0.952   4.067
 8895SOL    HW128517  12.526   0.925   3.975
 8895SOL    HW228518  12.484   0.877   4.113
 8896SOL     OW28519  12.053   0.840   5.926
 8896SOL    HW128520  12.023   0.779   5.993
 8896SOL    HW228521  12.022   0.926   5.956
 8897SOL     OW28522   9.461   9.290   6.845
 8897SOL    HW128523   9.391   9.340   6.804
 8897SOL    HW228524   9.532   9.353   6.858
 8898SOL     OW28525   5.863   3.360   1.283
 8898SOL    HW128526   5.860   3.443   1.331
 8898SOL    HW228527   5.937   3.313   1.322
 8899SOL     OW28528   2.806   9.987  11.953
 8899SOL    HW128529   2.804   9.970  12.047
 8899SOL    HW228530   2.841  10.075  11.945
 8900SOL     OW28531   3.338   8.685   5.937
 8900SOL    HW128532   3.403   8.691   5.867
 8900SOL    HW228533   3.266   8.741   5.909
 8901SOL     OW28534   9.790  14.859  10.892
 8901SOL    HW128535   9.789   0.035  10.968
 8901SOL    HW228536   9.699  14.859  10.861
 8902SOL     OW28537   0.284   9.089   8.473
 8902SOL    HW128538   0.364   9.052   8.434
 8902SOL    HW228539   0.221   9.091   8.402
 8903SOL     OW28540   2.640  10.293   7.147
 8903SOL    HW128541   2.570  10.358   7.148
 8903SOL    HW228542   2.595  10.210   7.162
 8904SOL     OW28543  13.266  10.171   7.927
 8904SOL    HW128544  13.282  10.114   7.852
 8904SOL    HW228545  13.313  10.252   7.906
 8905SOL     OW28546  13.377  12.110   4.809
 8905SOL    HW128547  13.308  12.155   4.857
 8905SOL    HW228548  13.349  12.114   4.717
 8906SOL     OW28549  11.216  11.452   3.773
 8906SOL    HW128550  11.286  11.512   3.745
 8906SOL    HW228551  11.176  11.495   3.848
 8907SOL     OW28552   2.191   3.969  14.392
 8907SOL    HW128553   2.228   3.885  14.367
 8907SOL    HW228554   2.140   3.997  14.315
 8908SOL     OW28555   3.969   0.685   8.261
 8908SOL    HW128556   4.021   0.761   8.287
 8908SOL    HW228557   4.008   0.612   8.308
 8909SOL     OW28558   6.749  11.196  12.928
 8909SOL    HW128559   6.669  11.248  12.919
 8909SOL    HW228560   6.796  11.208  12.846
 8910SOL     OW28561   7.393  13.534   3.424
 8910SOL    HW128562   7.308  13.490   3.426
 8910SOL    HW228563   7.448  13.478   3.369
 8911SOL     OW28564   1.544   2.193   3.732
 8911SOL    HW128565   1.450   2.188   3.713
 8911SOL    HW228566   1.551   2.265   3.795
 8912SOL     OW28567   9.343   2.552  13.209
 8912SOL    HW128568   9.318   2.586  13.123
 8912SOL    HW228569   9.272   2.579  13.267
 8913SOL     OW28570  12.978   6.261  11.891
 8913SOL    HW128571  12.979   6.331  11.957
 8913SOL    HW228572  13.005   6.304  11.810
 8914SOL     OW28573   0.563   1.643   5.809
 8914SOL    HW128574   0.528   1.732   5.812
 8914SOL    HW228575   0.658   1.654   5.802
 8915SOL     OW28576  14.523   7.813  10.668
 8915SOL    HW128577  14.472   7.803  10.588
 8915SOL    HW228578  14.462   7.854  10.730
 8916SOL     OW28579   2.154   4.755   5.619
 8916SOL    HW128580   2.140   4.848   5.636
 8916SOL    HW228581   2.246   4.749   5.592
 8917SOL     OW28582   6.761  13.411  10.740
 8917SOL    HW128583   6.836  13.376  10.790
 8917SOL    HW228584   6.801  13.460  10.669
 8918SOL     OW28585   3.783   2.014   9.870
 8918SOL    HW128586   3.703   2.056   9.839
 8918SOL    HW228587   3.829   2.083   9.918
 8919SOL     OW28588   7.593  12.434   0.358
 8919SOL    HW128589   7.606  12.339   0.366
 8919SOL    HW228590   7.652  12.471   0.424
 8920SOL     OW28591  10.602  12.818  14.852
 8920SOL    HW128592  10.624  12.857  14.767
 8920SOL    HW228593  10.677  12.837   0.026
 8921SOL     OW28594   3.980  12.741  13.232
 8921SOL    HW128595   3.922  12.733  13.308
 8921SOL    HW228596   4.064  12.705  13.262
 8922SOL     OW28597  14.017  10.535  12.525
 8922SOL    HW128598  14.040  10.454  12.478
 8922SOL    HW228599  13.930  10.558  12.492
 8923SOL     OW28600   9.249   8.032  12.432
 8923SOL    HW128601   9.182   8.082  12.385
 8923SOL    HW228602   9.201   7.980  12.496
 8924SOL     OW28603  10.431  11.057  11.792
 8924SOL    HW128604  10.384  11.129  11.834
 8924SOL    HW228605  10.473  11.098  11.716
 8925SOL     OW28606   8.181  12.932   0.478
 8925SOL    HW128607   8.197  12.920   0.572
 8925SOL    HW228608   8.192  13.026   0.464
 8926SOL     OW28609  11.069   0.549  10.206
 8926SOL    HW128610  11.018   0.604  10.264
 8926SOL    HW228611  11.150   0.599  10.190
 8927SOL     OW28612   8.484  14.536   6.000
 8927SOL    HW128613   8.496  14.586   5.919
 8927SOL    HW228614   8.564  14.483   6.007
 8928SOL     OW28615   4.633  10.397  14.259
 8928SOL    HW128616   4.616  10.459  14.330
 8928SOL    HW228617   4.729  10.387  14.259
 8929SOL     OW28618   7.877  12.914  13.868
 8929SOL    HW128619   7.793  12.868  13.867
 8929SOL    HW228620   7.872  12.975  13.794
 8930SOL     OW28621   6.574   6.028   3.785
 8930SOL    HW128622   6.554   6.047   3.877
 8930SOL    HW228623   6.646   6.086   3.763
 8931SOL     OW28624   4.811   2.258   1.941
 8931SOL    HW128625   4.758   2.263   2.021
 8931SOL    HW228626   4.815   2.164   1.920
 8932SOL     OW28627   3.017   4.707  14.407
 8932SOL    HW128628   3.111   4.693  14.411
 8932SOL    HW228629   3.007   4.800  14.385
 8933SOL     OW28630   2.203   1.534   5.986
 8933SOL    HW128631   2.250   1.589   5.924
 8933SOL    HW228632   2.169   1.595   6.051
 8934SOL     OW28633   2.585   8.146  11.260
 8934SOL    HW128634   2.602   8.143  11.166
 8934SOL    HW228635   2.576   8.239  11.280
 8935SOL     OW28636  10.093  11.328   9.081
 8935SOL    HW128637  10.055  11.413   9.058
 8935SOL    HW228638  10.050  11.266   9.022
 8936SOL     OW28639   6.056   3.402  13.005
 8936SOL    HW128640   6.053   3.460  12.928
 8936SOL    HW228641   6.107   3.451  13.069
 8937SOL     OW28642   8.924   1.348   9.552
 8937SOL    HW128643   8.968   1.381   9.630
 8937SOL    HW228644   8.953   1.257   9.545
 8938SOL     OW28645   3.449   6.365   8.478
 8938SOL    HW128646   3.408   6.312   8.547
 8938SOL    HW228647   3.540   6.373   8.504
 8939SOL     OW28648   8.382   7.810   8.514
 8939SOL    HW128649   8.313   7.836   8.453
 8939SOL    HW228650   8.346   7.829   8.600
 8940SOL     OW28651   7.641   6.777   8.206
 8940SOL    HW128652   7.710   6.778   8.140
 8940SOL    HW228653   7.563   6.750   8.158
 8941SOL     OW28654  12.935  11.809  13.277
 8941SOL    HW128655  12.999  11.880  13.265
 8941SOL    HW228656  12.850  11.851  13.265
 8942SOL     OW28657  10.024   2.256   0.455
 8942SOL    HW128658  10.041   2.175   0.407
 8942SOL    HW228659  10.110   2.285   0.485
 8943SOL     OW28660   5.790  12.596   0.942
 8943SOL    HW128661   5.817  12.585   1.033
 8943SOL    HW228662   5.868  12.628   0.897
 8944SOL     OW28663  14.693   9.325  10.289
 8944SOL    HW128664  14.624   9.388  10.268
 8944SOL    HW228665  14.770   9.357  10.243
 8945SOL     OW28666   1.790   4.537   7.708
 8945SOL    HW128667   1.757   4.447   7.701
 8945SOL    HW228668   1.733   4.588   7.651
 8946SOL     OW28669  13.132   0.523   8.201
 8946SOL    HW128670  13.134   0.440   8.248
 8946SOL    HW228671  13.097   0.501   8.115
 8947SOL     OW28672  11.447   5.453   0.547
 8947SOL    HW128673  11.366   5.471   0.500
 8947SOL    HW228674  11.433   5.367   0.587
 8948SOL     OW28675   8.416   4.787   8.553
 8948SOL    HW128676   8.450   4.718   8.497
 8948SOL    HW228677   8.393   4.858   8.493
 8949SOL     OW28678   1.270   5.634   3.090
 8949SOL    HW128679   1.220   5.557   3.118
 8949SOL    HW228680   1.310   5.607   3.007
 8950SOL     OW28681  13.882  11.008  10.612
 8950SOL    HW128682  13.918  10.920  10.598
 8950SOL    HW228683  13.877  11.046  10.524
 8951SOL     OW28684   1.613   9.142  10.021
 8951SOL    HW128685   1.565   9.068  10.059
 8951SOL    HW228686   1.668   9.174  10.093
 8952SOL     OW28687   1.590  11.200   3.788
 8952SOL    HW128688   1.634  11.171   3.867
 8952SOL    HW228689   1.576  11.119   3.737
 8953SOL     OW28690   6.698   2.516   7.777
 8953SOL    HW128691   6.749   2.462   7.717
 8953SOL    HW228692   6.663   2.454   7.840
 8954SOL     OW28693  11.085   8.778   9.539
 8954SOL    HW128694  10.997   8.810   9.559
 8954SOL    HW228695  11.101   8.805   9.448
 8955SOL     OW28696   0.937  12.718   5.332
 8955SOL    HW128697   0.862  12.736   5.390
 8955SOL    HW228698   1.000  12.673   5.389
 8956SOL     OW28699   1.679  10.632   6.830
 8956SOL    HW128700   1.729  10.696   6.880
 8956SOL    HW228701   1.591  10.670   6.824
 8957SOL     OW28702  14.271   6.070  10.485
 8957SOL    HW128703  14.349   6.082  10.432
 8957SOL    HW228704  14.230   5.992  10.450
 8958SOL     OW28705   5.579  10.846   7.519
 8958SOL    HW128706   5.617  10.931   7.495
 8958SOL    HW228707   5.599  10.835   7.612
 8959SOL     OW28708   3.368   2.090   4.615
 8959SOL    HW128709   3.309   2.046   4.676
 8959SOL    HW228710   3.446   2.110   4.666
 8960SOL     OW28711   7.269   4.436  13.381
 8960SOL    HW128712   7.279   4.373  13.310
 8960SOL    HW228713   7.202   4.398  13.438
 8961SOL     OW28714   9.681  14.677  14.528
 8961SOL    HW128715   9.612  14.617  14.497
 8961SOL    HW228716   9.761  14.626  14.518
 8962SOL     OW28717  11.031   8.007   8.340
 8962SOL    HW128718  11.023   8.001   8.436
 8962SOL    HW228719  11.090   8.081   8.326
 8963SOL     OW28720   3.131   0.133  10.129
 8963SOL    HW128721   3.142   0.054  10.182
 8963SOL    HW228722   3.064   0.184  10.175
 8964SOL     OW28723   6.134   9.055  10.565
 8964SOL    HW128724   6.182   9.011  10.635
 8964SOL    HW228725   6.079   8.987  10.526
 8965SOL     OW28726   7.294   4.733   6.632
 8965SOL    HW128727   7.327   4.723   6.722
 8965SOL    HW228728   7.200   4.715   6.639
 8966SOL     OW28729  14.581   0.175   0.799
 8966SOL    HW128730  14.598   0.202   0.890
 8966SOL    HW228731  14.486   0.173   0.791
 8967SOL     OW28732   0.184  13.894  11.921
 8967SOL    HW128733   0.138  13.976  11.906
 8967SOL    HW228734   0.261  13.898  11.865
 8968SOL     OW28735   5.584   1.261  12.415
 8968SOL    HW128736   5.568   1.355  12.401
 8968SOL    HW228737   5.647   1.237  12.347
 8969SOL     OW28738   0.409   8.520  11.644
 8969SOL    HW128739   0.319   8.486  11.644
 8969SOL    HW228740   0.464   8.441  11.636
 8970SOL     OW28741  10.818  11.395   2.737
 8970SOL    HW128742  10.832  11.348   2.654
 8970SOL    HW228743  10.907  11.410   2.770
 8971SOL     OW28744  10.411   6.627   9.585
 8971SOL    HW128745  10.435   6.588   9.669
 8971SOL    HW228746  10.432   6.720   9.594
 8972SOL     OW28747   3.395  14.134   2.045
 8972SOL    HW128748   3.340  14.101   1.974
 8972SOL    HW228749   3.335  14.184   2.100
 8973SOL     OW28750  11.371  14.093   7.140
 8973SOL    HW128751  11.440  14.029   7.126
 8973SOL    HW228752  11.294  14.042   7.166
 8974SOL     OW28753   5.589   6.601  13.370
 8974SOL    HW128754   5.566   6.521  13.324
 8974SOL    HW228755   5.682   6.592  13.389
 8975SOL     OW28756   7.114  11.731  10.759
 8975SOL    HW128757   7.059  11.712  10.835
 8975SOL    HW228758   7.198  11.690  10.780
 8976SOL     OW28759   9.836  13.400  10.489
 8976SOL    HW128760   9.822  13.394  10.395
 8976SOL    HW228761   9.780  13.330  10.526
 8977SOL     OW28762  12.920  14.704   6.244
 8977SOL    HW128763  12.925  14.673   6.154
 8977SOL    HW228764  13.003  14.749   6.259
 8978SOL     OW28765  12.557   8.018   9.802
 8978SOL    HW128766  12.468   8.050   9.819
 8978SOL    HW228767  12.601   8.022   9.886
 8979SOL     OW28768  11.387   3.424   6.113
 8979SOL    HW128769  11.334   3.450   6.037
 8979SOL    HW228770  11.448   3.359   6.078
 8980SOL     OW28771   8.033   5.593   8.992
 8980SOL    HW128772   8.105   5.655   8.980
 8980SOL    HW228773   7.972   5.613   8.921
 8981SOL     OW28774   2.449   2.159   4.795
 8981SOL    HW128775   2.421   2.068   4.789
 8981SOL    HW228776   2.525   2.165   4.737
 8982SOL     OW28777  12.555   6.027   5.662
 8982SOL    HW128778  12.618   6.008   5.592
 8982SOL    HW228779  12.470   6.024   5.619
 8983SOL     OW28780   3.927  13.862   6.043
 8983SOL    HW128781   3.858  13.876   5.978
 8983SOL    HW228782   3.975  13.786   6.011
 8984SOL     OW28783  13.041   9.009  11.296
 8984SOL    HW128784  12.952   9.016  11.264
 8984SOL    HW228785  13.063   8.916  11.289
 8985SOL     OW28786   7.461   0.013  11.265
 8985SOL    HW128787   7.539  14.874  11.214
 8985SOL    HW228788   7.414   0.077  11.212
 8986SOL     OW28789   6.969   0.398  10.229
 8986SOL    HW128790   6.984   0.453  10.306
 8986SOL    HW228791   6.994   0.453  10.155
 8987SOL     OW28792   1.956   9.474   0.618
 8987SOL    HW128793   2.022   9.498   0.553
 8987SOL    HW228794   1.977   9.529   0.694
 8988SOL     OW28795   5.906   2.173   9.784
 8988SOL    HW128796   5.952   2.182   9.867
 8988SOL    HW228797   5.829   2.228   9.792
 8989SOL     OW28798  13.214   0.622  10.858
 8989SOL    HW128799  13.254   0.644  10.942
 8989SOL    HW228800  13.123   0.650  10.866
 8990SOL     OW28801  12.621   3.910  10.233
 8990SOL    HW128802  12.680   3.835  10.244
 8990SOL    HW228803  12.603   3.912  10.139
 8991SOL     OW28804   0.950   5.327  12.040
 8991SOL    HW128805   0.923   5.356  12.128
 8991SOL    HW228806   0.874   5.346  11.985
 8992SOL     OW28807  14.523   6.508   8.845
 8992SOL    HW128808  14.596   6.510   8.908
 8992SOL    HW228809  14.529   6.422   8.804
 8993SOL     OW28810   2.201   6.198   1.333
 8993SOL    HW128811   2.206   6.233   1.422
 8993SOL    HW228812   2.258   6.255   1.282
 8994SOL     OW28813   2.645  11.738   8.214
 8994SOL    HW128814   2.586  11.692   8.273
 8994SOL    HW228815   2.714  11.773   8.271
 8995SOL     OW28816   1.239   2.831   5.869
 8995SOL    HW128817   1.240   2.916   5.915
 8995SOL    HW228818   1.311   2.782   5.909
 8996SOL     OW28819   2.143   1.329  11.982
 8996SOL    HW128820   2.189   1.287  12.055
 8996SOL    HW228821   2.209   1.388  11.944
 8997SOL     OW28822  11.678  11.140  13.066
 8997SOL    HW128823  11.704  11.143  13.158
 8997SOL    HW228824  11.761  11.141  13.018
 8998SOL     OW28825   1.193   5.658  12.947
 8998SOL    HW128826   1.164   5.585  12.892
 8998SOL    HW228827   1.174   5.736  12.895
 8999SOL     OW28828   0.292  14.017  12.243
 8999SOL    HW128829   0.340  13.944  12.281
 8999SOL    HW228830   0.303  14.088  12.306
 9000SOL     OW28831   8.289   4.381   7.099
 9000SOL    HW128832   8.204   4.339   7.089
 9000SOL    HW228833   8.269   4.474   7.112
 9001SOL     OW28834   0.176   7.340   9.224
 9001SOL    HW128835   0.230   7.261   9.231
 9001SOL    HW228836   0.156   7.346   9.130
 9002SOL     OW28837  12.375  12.775   1.232
 9002SOL    HW128838  12.386  12.780   1.137
 9002SOL    HW228839  12.420  12.695   1.258
 9003SOL     OW28840  13.017  11.011   8.798
 9003SOL    HW128841  13.007  11.096   8.841
 9003SOL    HW228842  13.006  11.030   8.705
 9004SOL     OW28843   9.212   6.408   9.904
 9004SOL    HW128844   9.297   6.443   9.876
 9004SOL    HW228845   9.160   6.404   9.824
 9005SOL     OW28846  13.061  12.778   7.622
 9005SOL    HW128847  13.151  12.743   7.625
 9005SOL    HW228848  13.030  12.771   7.712
 9006SOL     OW28849  13.878  13.009   7.769
 9006SOL    HW128850  13.895  12.936   7.710
 9006SOL    HW228851  13.822  12.972   7.837
 9007SOL     OW28852   7.163  13.375  14.865
 9007SOL    HW128853   7.147  13.454  14.812
 9007SOL    HW228854   7.226  13.403   0.049
 9008SOL     OW28855   4.629   3.245   7.699
 9008SOL    HW128856   4.597   3.333   7.718
 9008SOL    HW228857   4.703   3.233   7.758
 9009SOL     OW28858  12.809  10.470   9.880
 9009SOL    HW128859  12.752  10.538   9.845
 9009SOL    HW228860  12.751  10.395   9.894
 9010SOL     OW28861   1.540   8.512  13.948
 9010SOL    HW128862   1.576   8.599  13.932
 9010SOL    HW228863   1.608   8.451  13.918
 9011SOL     OW28864   5.734   3.322   7.752
 9011SOL    HW128865   5.763   3.324   7.843
 9011SOL    HW228866   5.750   3.411   7.720
 9012SOL     OW28867   3.917   8.695   4.419
 9012SOL    HW128868   3.874   8.635   4.481
 9012SOL    HW228869   3.872   8.778   4.431
 9013SOL     OW28870   1.105   4.057   2.401
 9013SOL    HW128871   1.062   4.085   2.320
 9013SOL    HW228872   1.163   3.985   2.374
 9014SOL     OW28873  14.445   5.968  11.642
 9014SOL    HW128874  14.496   6.036  11.597
 9014SOL    HW228875  14.506   5.895  11.652
 9015SOL     OW28876   1.552   6.650   7.571
 9015SOL    HW128877   1.457   6.655   7.564
 9015SOL    HW228878   1.567   6.590   7.644
 9016SOL     OW28879   1.929   5.562  12.863
 9016SOL    HW128880   1.957   5.624  12.930
 9016SOL    HW228881   1.905   5.483  12.911
 9017SOL     OW28882  10.024   4.549   9.636
 9017SOL    HW128883  10.036   4.488   9.562
 9017SOL    HW228884  10.031   4.636   9.596
 9018SOL     OW28885   6.425   7.588  10.627
 9018SOL    HW128886   6.458   7.676  10.611
 9018SOL    HW228887   6.414   7.584  10.722
 9019SOL     OW28888   0.402  13.933  10.679
 9019SOL    HW128889   0.450  13.977  10.609
 9019SOL    HW228890   0.332  13.887  10.633
 9020SOL     OW28891  12.465  14.651  13.954
 9020SOL    HW128892  12.494  14.731  13.999
 9020SOL    HW228893  12.511  14.580  13.999
 9021SOL     OW28894   3.998   8.547   9.330
 9021SOL    HW128895   3.965   8.459   9.310
 9021SOL    HW228896   4.036   8.577   9.247
 9022SOL     OW28897   6.967  11.484   1.570
 9022SOL    HW128898   7.048  11.521   1.535
 9022SOL    HW228899   6.897  11.538   1.531
 9023SOL     OW28900  14.656  13.484   7.495
 9023SOL    HW128901  14.654  13.530   7.579
 9023SOL    HW228902  14.738  13.433   7.498
 9024SOL     OW28903  12.438   5.557  10.754
 9024SOL    HW128904  12.501   5.495  10.788
 9024SOL    HW228905  12.385   5.507  10.691
 9025SOL     OW28906  12.916  11.454   6.567
 9025SOL    HW128907  12.906  11.375   6.621
 9025SOL    HW228908  12.986  11.433   6.506
 9026SOL     OW28909   5.953  11.563   0.190
 9026SOL    HW128910   5.961  11.516   0.108
 9026SOL    HW228911   5.912  11.501   0.250
 9027SOL     OW28912  11.405   2.784   4.770
 9027SOL    HW128913  11.412   2.842   4.694
 9027SOL    HW228914  11.311   2.772   4.781
 9028SOL     OW28915   8.921   8.870  14.370
 9028SOL    HW128916   8.952   8.852  14.282
 9028SOL    HW228917   8.910   8.784  14.411
 9029SOL     OW28918   0.778   0.636   8.852
 9029SOL    HW128919   0.833   0.709   8.877
 9029SOL    HW228920   0.835   0.559   8.859
 9030SOL     OW28921   8.146   1.500   0.983
 9030SOL    HW128922   8.227   1.455   1.006
 9030SOL    HW228923   8.119   1.460   0.901
 9031SOL     OW28924   0.060   6.604   5.318
 9031SOL    HW128925   0.149   6.609   5.284
 9031SOL    HW228926   0.054   6.676   5.381
 9032SOL     OW28927   7.110   7.649   3.315
 9032SOL    HW128928   7.178   7.715   3.328
 9032SOL    HW228929   7.033   7.700   3.291
 9033SOL     OW28930   5.501   5.157  11.728
 9033SOL    HW128931   5.570   5.115  11.676
 9033SOL    HW228932   5.423   5.149  11.673
 9034SOL     OW28933   8.496   9.487  11.514
 9034SOL    HW128934   8.432   9.490  11.443
 9034SOL    HW228935   8.449   9.446  11.587
 9035SOL     OW28936   1.895   8.329  10.569
 9035SOL    HW128937   1.824   8.382  10.532
 9035SOL    HW228938   1.921   8.271  10.497
 9036SOL     OW28939  12.802   5.450   4.185
 9036SOL    HW128940  12.897   5.445   4.196
 9036SOL    HW228941  12.772   5.500   4.261
 9037SOL     OW28942   5.842   0.520   6.424
 9037SOL    HW128943   5.806   0.581   6.359
 9037SOL    HW228944   5.807   0.435   6.399
 9038SOL     OW28945   0.868  12.631   5.604
 9038SOL    HW128946   0.884  12.715   5.645
 9038SOL    HW228947   0.955  12.602   5.575
 9039SOL     OW28948  14.165   8.619   7.997
 9039SOL    HW128949  14.070   8.617   8.008
 9039SOL    HW228950  14.193   8.697   8.047
 9040SOL     OW28951   8.847   2.962  13.249
 9040SOL    HW128952   8.789   2.900  13.293
 9040SOL    HW228953   8.849   2.933  13.158
 9041SOL     OW28954   5.746   7.446   9.968
 9041SOL    HW128955   5.773   7.392  10.043
 9041SOL    HW228956   5.713   7.527  10.008
 9042SOL     OW28957  11.205   5.577  10.461
 9042SOL    HW128958  11.241   5.491  10.441
 9042SOL    HW228959  11.191   5.617  10.375
 9043SOL     OW28960   9.853   3.759  13.636
 9043SOL    HW128961   9.816   3.815  13.705
 9043SOL    HW228962   9.887   3.683  13.683
 9044SOL     OW28963   7.958   9.893   2.179
 9044SOL    HW128964   7.905   9.867   2.104
 9044SOL    HW228965   8.045   9.855   2.162
 9045SOL     OW28966   6.776   2.746   2.011
 9045SOL    HW128967   6.761   2.710   2.099
 9045SOL    HW228968   6.733   2.684   1.952
 9046SOL     OW28969   2.819   4.100  12.580
 9046SOL    HW128970   2.848   4.125  12.668
 9046SOL    HW228971   2.838   4.176  12.525
 9047SOL     OW28972  12.461  11.161   0.121
 9047SOL    HW128973  12.371  11.192   0.132
 9047SOL    HW228974  12.495  11.212   0.048
 9048SOL     OW28975   3.196   9.239  13.746
 9048SOL    HW128976   3.242   9.257  13.828
 9048SOL    HW228977   3.262   9.251  13.678
 9049SOL     OW28978  13.971  11.484   1.664
 9049SOL    HW128979  13.973  11.469   1.759
 9049SOL    HW228980  14.063  11.483   1.638
 9050SOL     OW28981   5.454  12.146   4.913
 9050SOL    HW128982   5.515  12.216   4.933
 9050SOL    HW228983   5.429  12.111   4.998
 9051SOL     OW28984  12.411   3.715   6.033
 9051SOL    HW128985  12.475   3.737   5.965
 9051SOL    HW228986  12.340   3.672   5.985
 9052SOL     OW28987   6.169   9.180  14.409
 9052SOL    HW128988   6.160   9.085  14.415
 9052SOL    HW228989   6.088   9.209  14.366
 9053SOL     OW28990  10.568   5.418  14.288
 9053SOL    HW128991  10.536   5.328  14.286
 9053SOL    HW228992  10.490   5.472  14.281
 9054SOL     OW28993   1.934  12.523   1.982
 9054SOL    HW128994   1.867  12.473   2.027
 9054SOL    HW228995   1.921  12.613   2.013
 9055SOL     OW28996   5.751   1.412   7.981
 9055SOL    HW128997   5.831   1.374   7.945
 9055SOL    HW228998   5.702   1.338   8.016
 9056SOL     OW28999  12.290   2.543   5.991
 9056SOL    HW129000  12.227   2.471   5.984
 9056SOL    HW229001  12.344   2.536   5.913
 9057SOL     OW29002   2.039  12.374   5.762
 9057SOL    HW129003   2.003  12.423   5.836
 9057SOL    HW229004   2.109  12.321   5.799
 9058SOL     OW29005   4.324  14.380   1.620
 9058SOL    HW129006   4.279  14.463   1.632
 9058SOL    HW229007   4.309  14.332   1.702
 9059SOL     OW29008  12.500   4.796   3.453
 9059SOL    HW129009  12.421   4.770   3.407
 9059SOL    HW229010  12.496   4.751   3.537
 9060SOL     OW29011   2.684  12.847  10.980
 9060SOL    HW129012   2.689  12.894  10.896
 9060SOL    HW229013   2.725  12.907  11.043
 9061SOL     OW29014   8.628   0.810   2.224
 9061SOL    HW129015   8.683   0.858   2.285
 9061SOL    HW229016   8.689   0.764   2.167
 9062SOL     OW29017   0.274   8.270  13.232
 9062SOL    HW129018   0.197   8.294  13.283
 9062SOL    HW229019   0.348   8.298  13.286
 9063SOL     OW29020  12.567   2.621  10.548
 9063SOL    HW129021  12.596   2.563  10.477
 9063SOL    HW229022  12.560   2.563  10.624
 9064SOL     OW29023  14.263   6.488  12.046
 9064SOL    HW129024  14.173   6.458  12.060
 9064SOL    HW229025  14.285   6.535  12.127
 9065SOL     OW29026   8.851   3.609   7.112
 9065SOL    HW129027   8.857   3.702   7.091
 9065SOL    HW229028   8.767   3.600   7.157
 9066SOL     OW29029   9.739  10.197  10.575
 9066SOL    HW129030   9.788  10.161  10.649
 9066SOL    HW229031   9.781  10.281  10.558
 9067SOL     OW29032   0.233   9.142   7.879
 9067SOL    HW129033   0.163   9.096   7.833
 9067SOL    HW229034   0.188   9.205   7.935
 9068SOL     OW29035   8.545   8.324   0.867
 9068SOL    HW129036   8.554   8.331   0.772
 9068SOL    HW229037   8.495   8.244   0.880
 9069SOL     OW29038   8.745  12.892   6.932
 9069SOL    HW129039   8.672  12.953   6.922
 9069SOL    HW229040   8.802  12.933   6.996
 9070SOL     OW29041   9.121   9.942   5.993
 9070SOL    HW129042   9.042   9.996   6.000
 9070SOL    HW229043   9.109   9.873   6.058
 9071SOL     OW29044  14.438  10.918   9.982
 9071SOL    HW129045  14.372  10.879   9.926
 9071SOL    HW229046  14.521  10.896   9.941
 9072SOL     OW29047   0.492   9.265   3.968
 9072SOL    HW129048   0.411   9.263   4.018
 9072SOL    HW229049   0.560   9.281   4.033
 9073SOL     OW29050   4.398  10.814   8.646
 9073SOL    HW129051   4.362  10.771   8.568
 9073SOL    HW229052   4.491  10.793   8.645
 9074SOL     OW29053   7.363   2.199   3.709
 9074SOL    HW129054   7.370   2.294   3.704
 9074SOL    HW229055   7.284   2.184   3.761
 9075SOL     OW29056   6.216   1.198  10.215
 9075SOL    HW129057   6.250   1.223  10.128
 9075SOL    HW229058   6.122   1.216  10.210
 9076SOL     OW29059   2.565   6.890   5.875
 9076SOL    HW129060   2.586   6.865   5.785
 9076SOL    HW229061   2.521   6.974   5.867
 9077SOL     OW29062  13.071   9.358   8.380
 9077SOL    HW129063  13.136   9.288   8.380
 9077SOL    HW229064  13.116   9.432   8.421
 9078SOL     OW29065   1.336   4.300   1.209
 9078SOL    HW129066   1.295   4.372   1.161
 9078SOL    HW229067   1.359   4.338   1.294
 9079SOL     OW29068  13.380   5.409   8.725
 9079SOL    HW129069  13.415   5.487   8.683
 9079SOL    HW229070  13.398   5.421   8.818
 9080SOL     OW29071   7.042   0.062   7.091
 9080SOL    HW129072   7.111   0.069   7.026
 9080SOL    HW229073   7.081   0.094   7.172
 9081SOL     OW29074   5.343   0.549  14.875
 9081SOL    HW129075   5.385   0.479  14.824
 9081SOL    HW229076   5.252   0.521   0.003
 9082SOL     OW29077   6.671   3.482   8.476
 9082SOL    HW129078   6.622   3.401   8.462
 9082SOL    HW229079   6.763   3.454   8.479
 9083SOL     OW29080   6.198  13.794   0.356
 9083SOL    HW129081   6.173  13.849   0.282
 9083SOL    HW229082   6.145  13.825   0.429
 9084SOL     OW29083   5.752   0.086   6.522
 9084SOL    HW129084   5.707   0.002   6.521
 9084SOL    HW229085   5.682   0.151   6.521
 9085SOL     OW29086  10.547   2.284   0.716
 9085SOL    HW129087  10.498   2.268   0.635
 9085SOL    HW229088  10.523   2.211   0.773
 9086SOL     OW29089  12.939   9.874  12.479
 9086SOL    HW129090  12.942   9.824  12.560
 9086SOL    HW229091  13.026   9.862  12.441
 9087SOL     OW29092   3.851   8.117   7.213
 9087SOL    HW129093   3.910   8.148   7.282
 9087SOL    HW229094   3.895   8.039   7.178
 9088SOL     OW29095   3.530   0.831  12.419
 9088SOL    HW129096   3.504   0.917  12.451
 9088SOL    HW229097   3.625   0.837  12.407
 9089SOL     OW29098   1.341   3.199   1.847
 9089SOL    HW129099   1.275   3.210   1.916
 9089SOL    HW229100   1.421   3.175   1.893
 9090SOL     OW29101  11.790   5.647   3.399
 9090SOL    HW129102  11.772   5.613   3.486
 9090SOL    HW229103  11.819   5.737   3.414
 9091SOL     OW29104   8.055   4.670   1.430
 9091SOL    HW129105   7.979   4.670   1.372
 9091SOL    HW229106   8.067   4.762   1.453
 9092SOL     OW29107  12.603   5.338  12.583
 9092SOL    HW129108  12.592   5.433  12.577
 9092SOL    HW229109  12.552   5.313  12.660
 9093SOL     OW29110   1.761  12.095   3.182
 9093SOL    HW129111   1.686  12.098   3.122
 9093SOL    HW229112   1.754  12.176   3.233
 9094SOL     OW29113  10.718  11.492  13.424
 9094SOL    HW129114  10.715  11.396  13.425
 9094SOL    HW229115  10.718  11.515  13.331
 9095SOL     OW29116   2.766   2.923   8.080
 9095SOL    HW129117   2.813   2.846   8.048
 9095SOL    HW229118   2.809   2.946   8.162
 9096SOL     OW29119   7.989  13.940   6.211
 9096SOL    HW129120   7.977  14.022   6.164
 9096SOL    HW229121   8.028  13.881   6.147
 9097SOL     OW29122   7.579   0.529   4.730
 9097SOL    HW129123   7.653   0.588   4.714
 9097SOL    HW229124   7.507   0.586   4.753
 9098SOL     OW29125  10.537   7.186  14.685
 9098SOL    HW129126  10.451   7.155  14.658
 9098SOL    HW229127  10.521   7.271  14.725
 9099SOL     OW29128   9.155   0.829   0.639
 9099SOL    HW129129   9.124   0.739   0.644
 9099SOL    HW229130   9.227   0.833   0.702
 9100SOL     OW29131   4.354   3.455   7.999
 9100SOL    HW129132   4.383   3.535   7.957
 9100SOL    HW229133   4.434   3.402   8.008
 9101SOL     OW29134  11.824   8.573  12.479
 9101SOL    HW129135  11.899   8.538  12.431
 9101SOL    HW229136  11.813   8.515  12.554
 9102SOL     OW29137  14.268   1.424   3.286
 9102SOL    HW129138  14.180   1.448   3.257
 9102SOL    HW229139  14.257   1.338   3.328
 9103SOL     OW29140   4.825   1.804   3.942
 9103SOL    HW129141   4.903   1.758   3.973
 9103SOL    HW229142   4.758   1.784   4.007
 9104SOL     OW29143   3.520   3.404   6.077
 9104SOL    HW129144   3.464   3.450   6.016
 9104SOL    HW229145   3.574   3.472   6.117
 9105SOL     OW29146   4.164   9.472   4.582
 9105SOL    HW129147   4.090   9.426   4.622
 9105SOL    HW229148   4.207   9.517   4.654
 9106SOL     OW29149   2.262   8.272   9.619
 9106SOL    HW129150   2.309   8.195   9.585
 9106SOL    HW229151   2.171   8.258   9.593
 9107SOL     OW29152   5.421   5.374   1.698
 9107SOL    HW129153   5.345   5.385   1.755
 9107SOL    HW229154   5.440   5.462   1.665
 9108SOL     OW29155  12.082  11.089   9.589
 9108SOL    HW129156  12.023  11.056   9.657
 9108SOL    HW229157  12.029  11.152   9.540
 9109SOL     OW29158   0.555   8.674   4.318
 9109SOL    HW129159   0.535   8.767   4.331
 9109SOL    HW229160   0.515   8.630   4.392
 9110SOL     OW29161   4.582   2.885   4.200
 9110SOL    HW129162   4.543   2.825   4.263
 9110SOL    HW229163   4.518   2.955   4.190
 9111SOL     OW29164   9.259  11.094  13.010
 9111SOL    HW129165   9.320  11.166  13.023
 9111SOL    HW229166   9.198  11.125  12.944
 9112SOL     OW29167  11.017   6.287  10.241
 9112SOL    HW129168  10.945   6.246  10.287
 9112SOL    HW229169  10.979   6.318  10.159
 9113SOL     OW29170  14.196   2.460  10.512
 9113SOL    HW129171  14.257   2.514  10.462
 9113SOL    HW229172  14.160   2.399  10.447
 9114SOL     OW29173   9.490   7.065   4.215
 9114SOL    HW129174   9.522   6.995   4.273
 9114SOL    HW229175   9.418   7.024   4.168
 9115SOL     OW29176   7.248   8.275  12.527
 9115SOL    HW129177   7.237   8.284  12.432
 9115SOL    HW229178   7.343   8.279  12.540
 9116SOL     OW29179   9.630   8.702  10.903
 9116SOL    HW129180   9.654   8.681  10.813
 9116SOL    HW229181   9.700   8.758  10.935
 9117SOL     OW29182   1.911   6.674  13.646
 9117SOL    HW129183   1.865   6.649  13.726
 9117SOL    HW229184   1.933   6.767  13.659
 9118SOL     OW29185   3.451  12.553   5.500
 9118SOL    HW129186   3.437  12.482   5.563
 9118SOL    HW229187   3.466  12.630   5.554
 9119SOL     OW29188   2.041   1.656   3.171
 9119SOL    HW129189   2.047   1.662   3.266
 9119SOL    HW229190   2.110   1.715   3.139
 9120SOL     OW29191   7.340  11.554  11.162
 9120SOL    HW129192   7.400  11.587  11.095
 9120SOL    HW229193   7.290  11.485  11.118
 9121SOL     OW29194   5.000   0.471  13.733
 9121SOL    HW129195   5.000   0.419  13.813
 9121SOL    HW229196   5.011   0.561  13.763
 9122SOL     OW29197   8.266   4.083   3.234
 9122SOL    HW129198   8.239   4.151   3.296
 9122SOL    HW229199   8.361   4.078   3.244
 9123SOL     OW29200   7.684   0.760   8.785
 9123SOL    HW129201   7.626   0.836   8.783
 9123SOL    HW229202   7.627   0.687   8.806
 9124SOL     OW29203   2.133  11.292  13.562
 9124SOL    HW129204   2.135  11.208  13.608
 9124SOL    HW229205   2.175  11.275  13.478
 9125SOL     OW29206   0.076  11.955   6.466
 9125SOL    HW129207   0.063  12.031   6.523
 9125SOL    HW229208   0.162  11.921   6.492
 9126SOL     OW29209   7.868   0.316   0.646
 9126SOL    HW129210   7.813   0.272   0.581
 9126SOL    HW229211   7.829   0.403   0.655
 9127SOL     OW29212   2.238   4.946  12.331
 9127SOL    HW129213   2.216   5.039  12.338
 9127SOL    HW229214   2.324   4.945  12.288
 9128SOL     OW29215  11.066   6.861   4.657
 9128SOL    HW129216  11.116   6.910   4.592
 9128SOL    HW229217  11.131   6.828   4.718
 9129SOL     OW29218   7.431  14.224   9.949
 9129SOL    HW129219   7.410  14.221  10.043
 9129SOL    HW229220   7.355  14.267   9.909
 9130SOL     OW29221   1.421   9.697   5.563
 9130SOL    HW129222   1.346   9.739   5.519
 9130SOL    HW229223   1.468   9.652   5.492
 9131SOL     OW29224  14.000   3.116   7.651
 9131SOL    HW129225  14.085   3.093   7.690
 9131SOL    HW229226  13.946   3.142   7.726
 9132SOL     OW29227  10.853   5.990  10.821
 9132SOL    HW129228  10.949   5.998  10.814
 9132SOL    HW229229  10.825   6.075  10.854
 9133SOL     OW29230   7.615  11.324   0.020
 9133SOL    HW129231   7.638  11.408   0.061
 9133SOL    HW229232   7.689  11.267   0.039
 9134SOL     OW29233   6.274   0.772  14.540
 9134SOL    HW129234   6.346   0.799  14.597
 9134SOL    HW229235   6.210   0.843  14.549
 9135SOL     OW29236   5.969   3.218   9.384
 9135SOL    HW129237   5.935   3.164   9.455
 9135SOL    HW229238   5.920   3.299   9.390
 9136SOL     OW29239  13.154   9.315   3.181
 9136SOL    HW129240  13.176   9.399   3.220
 9136SOL    HW229241  13.179   9.325   3.089
 9137SOL     OW29242  12.316   5.095   8.490
 9137SOL    HW129243  12.399   5.089   8.443
 9137SOL    HW229244  12.284   5.184   8.471
 9138SOL     OW29245  11.040   1.752  11.746
 9138SOL    HW129246  10.967   1.692  11.737
 9138SOL    HW229247  11.086   1.722  11.824
 9139SOL     OW29248   4.697   0.710  11.095
 9139SOL    HW129249   4.764   0.763  11.140
 9139SOL    HW229250   4.672   0.644  11.159
 9140SOL     OW29251  14.006   3.227   4.444
 9140SOL    HW129252  13.957   3.268   4.372
 9140SOL    HW229253  14.085   3.192   4.402
 9141SOL     OW29254  11.080  13.257   9.929
 9141SOL    HW129255  11.071  13.329   9.991
 9141SOL    HW229256  11.039  13.289   9.849
 9142SOL     OW29257   5.534   6.246   2.112
 9142SOL    HW129258   5.449   6.204   2.126
 9142SOL    HW229259   5.571   6.257   2.200
 9143SOL     OW29260   8.093   6.136   7.476
 9143SOL    HW129261   8.012   6.116   7.430
 9143SOL    HW229262   8.161   6.125   7.409
 9144SOL     OW29263  10.353  12.393   8.353
 9144SOL    HW129264  10.279  12.335   8.334
 9144SOL    HW229265  10.421  12.335   8.387
 9145SOL     OW29266   9.080   3.007  13.561
 9145SOL    HW129267   9.040   2.935  13.609
 9145SOL    HW229268   9.015   3.077  13.565
 9146SOL     OW29269   4.956   6.261   3.373
 9146SOL    HW129270   4.972   6.335   3.431
 9146SOL    HW229271   5.043   6.227   3.353
 9147SOL     OW29272   1.180   0.921   3.549
 9147SOL    HW129273   1.142   0.834   3.540
 9147SOL    HW229274   1.271   0.911   3.522
 9148SOL     OW29275   5.534   5.450   4.669
 9148SOL    HW129276   5.526   5.506   4.746
 9148SOL    HW229277   5.629   5.445   4.653
 9149SOL     OW29278   2.895  13.338   6.528
 9149SOL    HW129279   2.979  13.366   6.563
 9149SOL    HW229280   2.913  13.318   6.436
 9150SOL     OW29281   9.320   2.503   9.909
 9150SOL    HW129282   9.320   2.585   9.859
 9150SOL    HW229283   9.409   2.470   9.901
 9151SOL     OW29284   0.694   4.861  13.742
 9151SOL    HW129285   0.625   4.804  13.775
 9151SOL    HW229286   0.648   4.939  13.711
 9152SOL     OW29287   2.468   4.661  14.402
 9152SOL    HW129288   2.398   4.687  14.342
 9152SOL    HW229289   2.421   4.620  14.475
 9153SOL     OW29290   2.183  12.172   9.140
 9153SOL    HW129291   2.147  12.258   9.117
 9153SOL    HW229292   2.142  12.151   9.225
 9154SOL     OW29293  12.815  14.265   7.400
 9154SOL    HW129294  12.795  14.348   7.357
 9154SOL    HW229295  12.906  14.246   7.375
 9155SOL     OW29296  12.849   5.417   1.201
 9155SOL    HW129297  12.801   5.500   1.199
 9155SOL    HW229298  12.904   5.420   1.123
 9156SOL     OW29299   5.533   5.103   1.712
 9156SOL    HW129300   5.499   5.192   1.703
 9156SOL    HW229301   5.628   5.115   1.719
 9157SOL     OW29302  13.049  12.054   6.569
 9157SOL    HW129303  13.071  12.137   6.526
 9157SOL    HW229304  13.117  12.043   6.635
 9158SOL     OW29305   5.309   7.587   1.152
 9158SOL    HW129306   5.390   7.600   1.201
 9158SOL    HW229307   5.245   7.644   1.194
 9159SOL     OW29308   3.709  10.537  10.523
 9159SOL    HW129309   3.781  10.525  10.461
 9159SOL    HW229310   3.720  10.626  10.556
 9160SOL     OW29311  10.347  13.839   7.052
 9160SOL    HW129312  10.350  13.805   7.141
 9160SOL    HW229313  10.438  13.838   7.022
 9161SOL     OW29314  12.803  10.234   8.429
 9161SOL    HW129315  12.750  10.208   8.354
 9161SOL    HW229316  12.780  10.172   8.498
 9162SOL     OW29317   9.978  10.944   4.919
 9162SOL    HW129318   9.978  10.923   4.826
 9162SOL    HW229319  10.070  10.955   4.942
 9163SOL     OW29320   5.792   8.872  12.150
 9163SOL    HW129321   5.873   8.899  12.107
 9163SOL    HW229322   5.816   8.861  12.242
 9164SOL     OW29323   0.592   1.307  12.598
 9164SOL    HW129324   0.604   1.225  12.548
 9164SOL    HW229325   0.603   1.376  12.533
 9165SOL     OW29326   7.133   1.241  11.666
 9165SOL    HW129327   7.050   1.249  11.618
 9165SOL    HW229328   7.140   1.148  11.685
 9166SOL     OW29329   7.430   1.159   6.516
 9166SOL    HW129330   7.426   1.070   6.551
 9166SOL    HW229331   7.512   1.194   6.549
 9167SOL     OW29332   4.278  10.320   8.812
 9167SOL    HW129333   4.228  10.387   8.859
 9167SOL    HW229334   4.299  10.361   8.728
 9168SOL     OW29335  13.297   5.140   3.231
 9168SOL    HW129336  13.380   5.092   3.227
 9168SOL    HW229337  13.276   5.144   3.324
 9169SOL     OW29338  10.920   8.138  14.167
 9169SOL    HW129339  10.907   8.046  14.189
 9169SOL    HW229340  11.009   8.143  14.133
 9170SOL     OW29341  10.125   4.064  11.456
 9170SOL    HW129342  10.213   4.027  11.443
 9170SOL    HW229343  10.098   4.092  11.369
 9171SOL     OW29344   9.680   8.933   8.783
 9171SOL    HW129345   9.614   8.914   8.716
 9171SOL    HW229346   9.634   8.982   8.850
 9172SOL     OW29347   8.973   4.525   8.419
 9172SOL    HW129348   9.005   4.594   8.478
 9172SOL    HW229349   8.943   4.571   8.341
 9173SOL     OW29350  14.565  13.648   9.936
 9173SOL    HW129351  14.612  13.648   9.853
 9173SOL    HW229352  14.574  13.737   9.969
 9174SOL     OW29353   4.674   3.038   4.515
 9174SOL    HW129354   4.580   3.020   4.506
 9174SOL    HW229355   4.700   3.076   4.431
 9175SOL     OW29356  10.019   4.581   9.909
 9175SOL    HW129357  10.044   4.490   9.895
 9175SOL    HW229358  10.002   4.615   9.821
 9176SOL     OW29359  14.706   8.116   5.995
 9176SOL    HW129360  14.672   8.125   5.906
 9176SOL    HW229361  14.655   8.179   6.047
 9177SOL     OW29362  10.219   6.584  13.917
 9177SOL    HW129363  10.153   6.547  13.859
 9177SOL    HW229364  10.264   6.508  13.954
 9178SOL     OW29365  12.251   0.168  13.048
 9178SOL    HW129366  12.334   0.132  13.080
 9178SOL    HW229367  12.184   0.117  13.092
 9179SOL     OW29368   7.371   6.378   9.540
 9179SOL    HW129369   7.325   6.368   9.456
 9179SOL    HW229370   7.352   6.297   9.587
 9180SOL     OW29371   2.697   7.777   5.843
 9180SOL    HW129372   2.683   7.723   5.921
 9180SOL    HW229373   2.718   7.714   5.774
 9181SOL     OW29374   1.698   4.873   3.707
 9181SOL    HW129375   1.630   4.938   3.687
 9181SOL    HW229376   1.756   4.918   3.768
 9182SOL     OW29377  10.350   1.206   1.732
 9182SOL    HW129378  10.331   1.275   1.668
 9182SOL    HW229379  10.388   1.253   1.807
 9183SOL     OW29380   4.212   1.591   6.005
 9183SOL    HW129381   4.212   1.684   5.985
 9183SOL    HW229382   4.193   1.587   6.099
 9184SOL     OW29383   7.520   4.561   6.599
 9184SOL    HW129384   7.428   4.584   6.589
 9184SOL    HW229385   7.561   4.642   6.631
 9185SOL     OW29386   8.523  14.682   4.040
 9185SOL    HW129387   8.487  14.594   4.057
 9185SOL    HW229388   8.498  14.733   4.117
 9186SOL     OW29389   7.022   7.835   7.468
 9186SOL    HW129390   6.988   7.904   7.410
 9186SOL    HW229391   6.950   7.773   7.475
 9187SOL     OW29392   8.527  12.766  12.871
 9187SOL    HW129393   8.466  12.767  12.798
 9187SOL    HW229394   8.564  12.677  12.871
 9188SOL     OW29395   4.542   0.890  13.939
 9188SOL    HW129396   4.516   0.979  13.963
 9188SOL    HW229397   4.460   0.842  13.932
 9189SOL     OW29398   2.932   1.606   0.126
 9189SOL    HW129399   2.922   1.700   0.139
 9189SOL    HW229400   2.863   1.584   0.063
 9190SOL     OW29401   3.515   6.572   6.553
 9190SOL    HW129402   3.495   6.563   6.459
 9190SOL    HW229403   3.456   6.511   6.596
 9191SOL     OW29404   2.666  10.119   8.698
 9191SOL    HW129405   2.746  10.153   8.738
 9191SOL    HW229406   2.697  10.056   8.634
 9192SOL     OW29407  14.087  10.479   8.921
 9192SOL    HW129408  14.164  10.451   8.970
 9192SOL    HW229409  14.052  10.398   8.883
 9193SOL     OW29410  11.662   0.218  10.271
 9193SOL    HW129411  11.574   0.214  10.307
 9193SOL    HW229412  11.685   0.128  10.251
 9194SOL     OW29413   0.458  11.900  14.763
 9194SOL    HW129414   0.497  11.909  14.850
 9194SOL    HW229415   0.399  11.826  14.770
 9195SOL     OW29416   2.859   0.342   0.091
 9195SOL    HW129417   2.858   0.271   0.028
 9195SOL    HW229418   2.767   0.355   0.114
 9196SOL     OW29419   0.830  11.378  10.197
 9196SOL    HW129420   0.834  11.467  10.161
 9196SOL    HW229421   0.793  11.389  10.284
 9197SOL     OW29422   4.477  13.548   2.372
 9197SOL    HW129423   4.553  13.526   2.317
 9197SOL    HW229424   4.485  13.642   2.387
 9198SOL     OW29425   2.833   5.755   9.876
 9198SOL    HW129426   2.840   5.798   9.961
 9198SOL    HW229427   2.834   5.826   9.813
 9199SOL     OW29428  11.437   5.134   6.166
 9199SOL    HW129429  11.454   5.103   6.254
 9199SOL    HW229430  11.345   5.161   6.168
 9200SOL     OW29431   2.757   7.618   9.428
 9200SOL    HW129432   2.798   7.618   9.342
 9200SOL    HW229433   2.696   7.544   9.425
 9201SOL     OW29434   4.547  13.376   1.725
 9201SOL    HW129435   4.556  13.357   1.631
 9201SOL    HW229436   4.497  13.458   1.728
 9202SOL     OW29437  12.870   2.098   8.803
 9202SOL    HW129438  12.798   2.125   8.745
 9202SOL    HW229439  12.836   2.022   8.849
 9203SOL     OW29440   5.752   9.508  10.355
 9203SOL    HW129441   5.799   9.554  10.424
 9203SOL    HW229442   5.821   9.467  10.302
 9204SOL     OW29443   5.011  13.481   3.807
 9204SOL    HW129444   4.960  13.401   3.816
 9204SOL    HW229445   5.032  13.486   3.713
 9205SOL     OW29446   4.987   9.425  14.232
 9205SOL    HW129447   5.002   9.514  14.262
 9205SOL    HW229448   4.912   9.395  14.283
 9206SOL     OW29449  11.187   4.676   3.869
 9206SOL    HW129450  11.207   4.737   3.798
 9206SOL    HW229451  11.147   4.601   3.825
 9207SOL     OW29452   2.286   2.872  13.966
 9207SOL    HW129453   2.206   2.849  14.014
 9207SOL    HW229454   2.258   2.883  13.876
 9208SOL     OW29455  10.059   1.043   9.207
 9208SOL    HW129456  10.082   0.986   9.134
 9208SOL    HW229457  10.052   0.985   9.282
 9209SOL     OW29458   6.170   6.271   5.521
 9209SOL    HW129459   6.113   6.308   5.588
 9209SOL    HW229460   6.145   6.178   5.518
 9210SOL     OW29461   3.523   9.857   6.861
 9210SOL    HW129462   3.531   9.764   6.885
 9210SOL    HW229463   3.598   9.899   6.902
 9211SOL     OW29464   8.957   5.834  13.012
 9211SOL    HW129465   9.034   5.891  13.006
 9211SOL    HW229466   8.902   5.876  13.078
 9212SOL     OW29467  13.955   6.795  13.141
 9212SOL    HW129468  13.944   6.819  13.232
 9212SOL    HW229469  13.904   6.714  13.131
 9213SOL     OW29470   7.891  11.821  10.224
 9213SOL    HW129471   7.854  11.875  10.154
 9213SOL    HW229472   7.814  11.791  10.273
 9214SOL     OW29473  10.481   6.381  14.337
 9214SOL    HW129474  10.497   6.412  14.248
 9214SOL    HW229475  10.423   6.447  14.375
 9215SOL     OW29476   7.091   2.614  12.360
 9215SOL    HW129477   7.012   2.560  12.370
 9215SOL    HW229478   7.059   2.694  12.318
 9216SOL     OW29479   8.089  11.439   1.031
 9216SOL    HW129480   8.180  11.460   1.055
 9216SOL    HW229481   8.095  11.405   0.942
 9217SOL     OW29482  13.222   4.241  12.688
 9217SOL    HW129483  13.206   4.184  12.613
 9217SOL    HW229484  13.253   4.323  12.650
 9218SOL     OW29485   2.575  13.984   5.836
 9218SOL    HW129486   2.482  13.997   5.815
 9218SOL    HW229487   2.611  13.939   5.759
 9219SOL     OW29488   2.193  11.226  12.490
 9219SOL    HW129489   2.249  11.297  12.522
 9219SOL    HW229490   2.116  11.271  12.454
 9220SOL     OW29491   7.060   8.218   9.472
 9220SOL    HW129492   6.983   8.172   9.507
 9220SOL    HW229493   7.040   8.230   9.379
 9221SOL     OW29494   0.009   1.803   5.745
 9221SOL    HW129495  14.829   1.835   5.679
 9221SOL    HW229496  14.869   1.710   5.755
 9222SOL     OW29497   0.393   6.155  10.667
 9222SOL    HW129498   0.445   6.131  10.591
 9222SOL    HW229499   0.336   6.226  10.635
 9223SOL     OW29500  13.971   1.270   1.271
 9223SOL    HW129501  14.054   1.317   1.264
 9223SOL    HW229502  13.907   1.337   1.297
 9224SOL     OW29503   0.733  12.083  14.122
 9224SOL    HW129504   0.683  12.153  14.163
 9224SOL    HW229505   0.821  12.120  14.110
 9225SOL     OW29506   3.191  12.550  14.708
 9225SOL    HW129507   3.260  12.611  14.735
 9225SOL    HW229508   3.127  12.605  14.664
 9226SOL     OW29509   2.626  11.917   4.414
 9226SOL    HW129510   2.663  11.880   4.333
 9226SOL    HW229511   2.566  11.985   4.384
 9227SOL     OW29512  12.128   7.738   3.586
 9227SOL    HW129513  12.205   7.737   3.643
 9227SOL    HW229514  12.054   7.749   3.645
 9228SOL     OW29515   9.264  12.922   2.053
 9228SOL    HW129516   9.281  12.829   2.041
 9228SOL    HW229517   9.322  12.966   1.990
 9229SOL     OW29518   0.393   3.704   4.135
 9229SOL    HW129519   0.325   3.698   4.201
 9229SOL    HW229520   0.450   3.630   4.151
 9230SOL     OW29521   1.849   7.389   0.150
 9230SOL    HW129522   1.878   7.314   0.099
 9230SOL    HW229523   1.903   7.461   0.120
 9231SOL     OW29524   8.156   2.895   0.563
 9231SOL    HW129525   8.175   2.824   0.623
 9231SOL    HW229526   8.074   2.932   0.594
 9232SOL     OW29527   5.765  10.914   1.866
 9232SOL    HW129528   5.697  10.847   1.872
 9232SOL    HW229529   5.795  10.925   1.957
 9233SOL     OW29530   4.104   2.620  13.724
 9233SOL    HW129531   4.113   2.542  13.778
 9233SOL    HW229532   4.173   2.679  13.756
 9234SOL     OW29533   1.056   8.586   9.336
 9234SOL    HW129534   1.042   8.566   9.428
 9234SOL    HW229535   1.049   8.681   9.331
 9235SOL     OW29536   1.497   9.621   4.540
 9235SOL    HW129537   1.429   9.685   4.558
 9235SOL    HW229538   1.576   9.673   4.525
 9236SOL     OW29539  12.060   3.439   9.282
 9236SOL    HW129540  12.043   3.346   9.299
 9236SOL    HW229541  12.082   3.442   9.189
 9237SOL     OW29542   4.802   8.707  13.813
 9237SOL    HW129543   4.721   8.673  13.776
 9237SOL    HW229544   4.812   8.661  13.896
 9238SOL     OW29545  10.373   9.064  11.971
 9238SOL    HW129546  10.453   9.023  12.002
 9238SOL    HW229547  10.400   9.118  11.897
 9239SOL     OW29548  12.597   6.207  14.088
 9239SOL    HW129549  12.547   6.140  14.135
 9239SOL    HW229550  12.604   6.174  13.999
 9240SOL     OW29551   1.765   2.490  12.878
 9240SOL    HW129552   1.836   2.430  12.853
 9240SOL    HW229553   1.687   2.435  12.881
 9241SOL     OW29554  12.852  12.353   1.291
 9241SOL    HW129555  12.785  12.285   1.297
 9241SOL    HW229556  12.841  12.389   1.203
 9242SOL     OW29557  12.952   9.021  13.313
 9242SOL    HW129558  12.987   8.972  13.238
 9242SOL    HW229559  12.986   9.110  13.302
 9243SOL     OW29560   1.316   5.833   0.822
 9243SOL    HW129561   1.239   5.873   0.861
 9243SOL    HW229562   1.316   5.743   0.854
 9244SOL     OW29563  13.187  11.401   7.932
 9244SOL    HW129564  13.233  11.484   7.931
 9244SOL    HW229565  13.199  11.367   8.020
 9245SOL     OW29566  11.677   8.015   9.393
 9245SOL    HW129567  11.657   7.986   9.304
 9245SOL    HW229568  11.705   8.106   9.384
 9246SOL     OW29569  10.894   0.246  12.824
 9246SOL    HW129570  10.982   0.231  12.788
 9246SOL    HW229571  10.880   0.340  12.813
 9247SOL     OW29572   0.116   3.393  13.878
 9247SOL    HW129573   0.049   3.461  13.890
 9247SOL    HW229574   0.160   3.417  13.796
 9248SOL     OW29575   0.860  11.314   3.438
 9248SOL    HW129576   0.779  11.343   3.396
 9248SOL    HW229577   0.912  11.276   3.367
 9249SOL     OW29578  14.305   2.773   1.902
 9249SOL    HW129579  14.240   2.776   1.972
 9249SOL    HW229580  14.262   2.725   1.831
 9250SOL     OW29581   9.548   9.264   9.468
 9250SOL    HW129582   9.476   9.279   9.530
 9250SOL    HW229583   9.623   9.308   9.507
 9251SOL     OW29584   6.917  12.795  14.657
 9251SOL    HW129585   6.995  12.832  14.616
 9251SOL    HW229586   6.891  12.860  14.722
 9252SOL     OW29587   3.074   0.261   6.800
 9252SOL    HW129588   2.986   0.223   6.803
 9252SOL    HW229589   3.073   0.330   6.867
 9253SOL     OW29590   0.102   8.492   8.838
 9253SOL    HW129591   0.041   8.446   8.895
 9253SOL    HW229592   0.166   8.426   8.811
 9254SOL     OW29593  10.119  13.486   7.719
 9254SOL    HW129594  10.136  13.580   7.721
 9254SOL    HW229595  10.042  13.474   7.776
 9255SOL     OW29596  13.202   9.081  10.743
 9255SOL    HW129597  13.222   8.988  10.751
 9255SOL    HW229598  13.143   9.100  10.815
 9256SOL     OW29599  10.970   7.453   4.726
 9256SOL    HW129600  11.041   7.517   4.724
 9256SOL    HW229601  10.972   7.418   4.815
 9257SOL     OW29602  12.412  13.271   1.386
 9257SOL    HW129603  12.391  13.292   1.296
 9257SOL    HW229604  12.419  13.175   1.387
 9258SOL     OW29605   2.687   7.966  14.723
 9258SOL    HW129606   2.729   7.977  14.808
 9258SOL    HW229607   2.718   8.041  14.672
 9259SOL     OW29608   0.969   5.428  12.559
 9259SOL    HW129609   1.002   5.363  12.496
 9259SOL    HW229610   0.931   5.497  12.505
 9260SOL     OW29611  10.247   6.996   7.246
 9260SOL    HW129612  10.161   7.023   7.280
 9260SOL    HW229613  10.266   6.914   7.292
 9261SOL     OW29614   6.328  12.406  13.392
 9261SOL    HW129615   6.320  12.338  13.459
 9261SOL    HW229616   6.285  12.369  13.315
 9262SOL     OW29617   9.413   8.125   2.078
 9262SOL    HW129618   9.465   8.180   2.136
 9262SOL    HW229619   9.453   8.137   1.991
 9263SOL     OW29620   5.481  11.400   8.116
 9263SOL    HW129621   5.498  11.313   8.152
 9263SOL    HW229622   5.425  11.384   8.040
 9264SOL     OW29623   7.401   8.098   6.058
 9264SOL    HW129624   7.457   8.090   5.981
 9264SOL    HW229625   7.396   8.192   6.075
 9265SOL     OW29626   6.085  14.879   6.069
 9265SOL    HW129627   6.001  14.838   6.047
 9265SOL    HW229628   6.131  14.814   6.121
 9266SOL     OW29629  14.504  12.557   5.371
 9266SOL    HW129630  14.579  12.616   5.375
 9266SOL    HW229631  14.497  12.521   5.460
 9267SOL     OW29632   5.264  13.234   2.903
 9267SOL    HW129633   5.274  13.216   2.810
 9267SOL    HW229634   5.311  13.162   2.946
 9268SOL     OW29635  12.081   3.796   1.733
 9268SOL    HW129636  11.986   3.781   1.726
 9268SOL    HW229637  12.093   3.835   1.820
 9269SOL     OW29638   9.618   9.676  13.123
 9269SOL    HW129639   9.676   9.723  13.062
 9269SOL    HW229640   9.655   9.588  13.128
 9270SOL     OW29641   0.813   7.326  12.794
 9270SOL    HW129642   0.848   7.282  12.872
 9270SOL    HW229643   0.732   7.368  12.824
 9271SOL     OW29644   6.484  13.678   2.986
 9271SOL    HW129645   6.530  13.761   2.973
 9271SOL    HW229646   6.411  13.700   3.044
 9272SOL     OW29647   3.907   3.020   4.392
 9272SOL    HW129648   3.902   3.113   4.369
 9272SOL    HW229649   3.944   3.020   4.480
 9273SOL     OW29650  12.269   5.741   6.881
 9273SOL    HW129651  12.174   5.746   6.891
 9273SOL    HW229652  12.287   5.648   6.873
 9274SOL     OW29653   6.762   1.123   8.977
 9274SOL    HW129654   6.720   1.081   8.902
 9274SOL    HW229655   6.696   1.117   9.046
 9275SOL     OW29656  11.168   9.128   5.503
 9275SOL    HW129657  11.129   9.091   5.424
 9275SOL    HW229658  11.108   9.198   5.529
 9276SOL     OW29659  11.064   9.464   5.829
 9276SOL    HW129660  11.020   9.549   5.817
 9276SOL    HW229661  11.138   9.484   5.886
 9277SOL     OW29662  11.543  11.044   7.218
 9277SOL    HW129663  11.484  11.026   7.145
 9277SOL    HW229664  11.626  11.002   7.193
 9278SOL     OW29665   9.099   9.076   3.398
 9278SOL    HW129666   9.161   9.113   3.461
 9278SOL    HW229667   9.108   8.981   3.408
 9279SOL     OW29668  14.186  10.395  10.848
 9279SOL    HW129669  14.205  10.456  10.919
 9279SOL    HW229670  14.095  10.369  10.863
 9280SOL     OW29671   5.824   9.094   6.457
 9280SOL    HW129672   5.902   9.060   6.414
 9280SOL    HW229673   5.782   9.017   6.496
 9281SOL     OW29674   4.154   2.307   7.701
 9281SOL    HW129675   4.131   2.215   7.692
 9281SOL    HW229676   4.137   2.345   7.615
 9282SOL     OW29677   3.614   1.180   6.142
 9282SOL    HW129678   3.580   1.265   6.170
 9282SOL    HW229679   3.538   1.123   6.137
 9283SOL     OW29680   9.395   5.542   7.313
 9283SOL    HW129681   9.350   5.590   7.383
 9283SOL    HW229682   9.457   5.606   7.278
 9284SOL     OW29683  14.653   7.556   0.723
 9284SOL    HW129684  14.570   7.516   0.695
 9284SOL    HW229685  14.695   7.582   0.641
 9285SOL     OW29686  11.175  14.787   7.624
 9285SOL    HW129687  11.087  14.750   7.617
 9285SOL    HW229688  11.165  14.879   7.601
 9286SOL     OW29689  11.725   0.978   7.973
 9286SOL    HW129690  11.757   1.068   7.980
 9286SOL    HW229691  11.748   0.938   8.057
 9287SOL     OW29692   2.205   9.656  12.842
 9287SOL    HW129693   2.228   9.745  12.869
 9287SOL    HW229694   2.122   9.639  12.886
 9288SOL     OW29695  13.272   4.639  13.418
 9288SOL    HW129696  13.220   4.710  13.381
 9288SOL    HW229697  13.214   4.563  13.416
 9289SOL     OW29698   8.271   3.003   9.872
 9289SOL    HW129699   8.326   3.021   9.948
 9289SOL    HW229700   8.301   3.064   9.805
 9290SOL     OW29701   5.407  12.353  11.041
 9290SOL    HW129702   5.415  12.351  10.945
 9290SOL    HW229703   5.400  12.260  11.065
 9291SOL     OW29704  14.249  12.400   6.782
 9291SOL    HW129705  14.251  12.419   6.688
 9291SOL    HW229706  14.312  12.329   6.793
 9292SOL     OW29707   4.765  12.505   0.692
 9292SOL    HW129708   4.737  12.593   0.716
 9292SOL    HW229709   4.742  12.451   0.767
 9293SOL     OW29710  13.622  10.462  12.966
 9293SOL    HW129711  13.566  10.417  13.029
 9293SOL    HW229712  13.563  10.492  12.897
 9294SOL     OW29713   5.571  12.372   8.779
 9294SOL    HW129714   5.550  12.326   8.861
 9294SOL    HW229715   5.490  12.368   8.728
 9295SOL     OW29716   3.323  13.556   3.702
 9295SOL    HW129717   3.388  13.504   3.655
 9295SOL    HW229718   3.300  13.503   3.778
 9296SOL     OW29719   3.031   4.408  12.942
 9296SOL    HW129720   2.967   4.479  12.935
 9296SOL    HW229721   3.115   4.451  12.930
 9297SOL     OW29722   5.945   1.563   6.599
 9297SOL    HW129723   5.919   1.572   6.690
 9297SOL    HW229724   6.026   1.512   6.602
 9298SOL     OW29725   1.452   1.308  13.950
 9298SOL    HW129726   1.442   1.361  14.029
 9298SOL    HW229727   1.409   1.225  13.971
 9299SOL     OW29728  12.543   1.578   1.890
 9299SOL    HW129729  12.579   1.582   1.978
 9299SOL    HW229730  12.594   1.509   1.847
 9300SOL     OW29731  12.751  13.462  10.449
 9300SOL    HW129732  12.669  13.413  10.453
 9300SOL    HW229733  12.815  13.399  10.418
 9301SOL     OW29734   6.158  12.097   4.423
 9301SOL    HW129735   6.089  12.072   4.360
 9301SOL    HW229736   6.136  12.187   4.448
 9302SOL     OW29737   9.779   5.038  11.668
 9302SOL    HW129738   9.787   4.983  11.746
 9302SOL    HW229739   9.698   5.087  11.681
 9303SOL     OW29740   4.920  10.145  13.366
 9303SOL    HW129741   4.991  10.100  13.319
 9303SOL    HW229742   4.958  10.229  13.391
 9304SOL     OW29743   1.036   5.871   5.396
 9304SOL    HW129744   1.022   5.833   5.483
 9304SOL    HW229745   1.049   5.965   5.413
 9305SOL     OW29746   0.612   6.430   9.412
 9305SOL    HW129747   0.578   6.347   9.379
 9305SOL    HW229748   0.668   6.406   9.486
 9306SOL     OW29749   8.417  12.184   4.794
 9306SOL    HW129750   8.438  12.122   4.724
 9306SOL    HW229751   8.327  12.211   4.777
 9307SOL     OW29752   1.128   7.312  11.023
 9307SOL    HW129753   1.197   7.340  11.082
 9307SOL    HW229754   1.174   7.275  10.948
 9308SOL     OW29755  12.092   4.038   6.988
 9308SOL    HW129756  12.152   3.994   6.928
 9308SOL    HW229757  12.016   4.060   6.933
 9309SOL     OW29758   6.740   8.787   8.249
 9309SOL    HW129759   6.677   8.846   8.208
 9309SOL    HW229760   6.689   8.710   8.273
 9310SOL     OW29761  13.872   1.338   3.425
 9310SOL    HW129762  13.835   1.404   3.367
 9310SOL    HW229763  13.849   1.255   3.384
 9311SOL     OW29764   8.385   4.526   3.774
 9311SOL    HW129765   8.320   4.596   3.772
 9311SOL    HW229766   8.377   4.488   3.861
 9312SOL     OW29767   2.461   9.238   7.489
 9312SOL    HW129768   2.407   9.254   7.566
 9312SOL    HW229769   2.500   9.323   7.469
 9313SOL     OW29770   8.158   8.941   4.734
 9313SOL    HW129771   8.190   9.022   4.774
 9313SOL    HW229772   8.098   8.904   4.798
 9314SOL     OW29773   5.617   8.842   4.391
 9314SOL    HW129774   5.525   8.856   4.416
 9314SOL    HW229775   5.627   8.747   4.391
 9315SOL     OW29776   3.658   3.337  14.863
 9315SOL    HW129777   3.672   3.360  14.771
 9315SOL    HW229778   3.735   3.287   0.006
 9316SOL     OW29779   6.101  11.627   4.384
 9316SOL    HW129780   6.076  11.660   4.298
 9316SOL    HW229781   6.147  11.699   4.425
 9317SOL     OW29782   0.634   3.044   3.938
 9317SOL    HW129783   0.634   3.061   3.843
 9317SOL    HW229784   0.543   3.060   3.964
 9318SOL     OW29785   9.573   7.620   0.387
 9318SOL    HW129786   9.515   7.635   0.312
 9318SOL    HW229787   9.525   7.658   0.462
 9319SOL     OW29788  11.172  11.920  14.059
 9319SOL    HW129789  11.157  12.002  14.105
 9319SOL    HW229790  11.154  11.852  14.123
 9320SOL     OW29791  12.515  11.674   7.229
 9320SOL    HW129792  12.533  11.760   7.268
 9320SOL    HW229793  12.494  11.618   7.303
 9321SOL     OW29794  14.449   0.252  10.651
 9321SOL    HW129795  14.413   0.248  10.740
 9321SOL    HW229796  14.537   0.215  10.660
 9322SOL     OW29797  12.941   4.956  10.321
 9322SOL    HW129798  12.987   4.927  10.400
 9322SOL    HW229799  12.891   5.032  10.349
 9323SOL     OW29800   9.825   2.504   9.590
 9323SOL    HW129801   9.896   2.566   9.574
 9323SOL    HW229802   9.831   2.440   9.519
 9324SOL     OW29803  10.987   2.015   5.895
 9324SOL    HW129804  11.028   2.080   5.953
 9324SOL    HW229805  11.032   1.934   5.915
 9325SOL     OW29806   3.803   9.487   7.530
 9325SOL    HW129807   3.858   9.489   7.608
 9325SOL    HW229808   3.715   9.468   7.564
 9326SOL     OW29809  13.433   7.636   5.072
 9326SOL    HW129810  13.342   7.642   5.101
 9326SOL    HW229811  13.477   7.709   5.115
 9327SOL     OW29812  10.294   8.510   2.227
 9327SOL    HW129813  10.298   8.479   2.318
 9327SOL    HW229814  10.313   8.604   2.233
 9328SOL     OW29815   2.298  10.499   5.372
 9328SOL    HW129816   2.290  10.539   5.459
 9328SOL    HW229817   2.246  10.555   5.315
 9329SOL     OW29818  10.475   5.386   0.969
 9329SOL    HW129819  10.451   5.414   1.057
 9329SOL    HW229820  10.480   5.468   0.919
 9330SOL     OW29821   5.067   6.636   1.605
 9330SOL    HW129822   5.016   6.624   1.524
 9330SOL    HW229823   5.056   6.553   1.652
 9331SOL     OW29824   0.276  10.569  13.303
 9331SOL    HW129825   0.195  10.620  13.300
 9331SOL    HW229826   0.287  10.548  13.396
 9332SOL     OW29827  10.497  11.378   9.070
 9332SOL    HW129828  10.589  11.404   9.067
 9332SOL    HW229829  10.451  11.446   9.021
 9333SOL     OW29830   3.093   7.061   4.726
 9333SOL    HW129831   3.188   7.062   4.735
 9333SOL    HW229832   3.060   7.102   4.806
 9334SOL     OW29833   3.098  14.461  10.135
 9334SOL    HW129834   3.045  14.409  10.075
 9334SOL    HW229835   3.160  14.399  10.172
 9335SOL     OW29836   9.429   5.249   4.529
 9335SOL    HW129837   9.428   5.309   4.603
 9335SOL    HW229838   9.522   5.231   4.514
 9336SOL     OW29839   6.359  14.314  14.030
 9336SOL    HW129840   6.277  14.354  14.058
 9336SOL    HW229841   6.386  14.363  13.953
 9337SOL     OW29842   8.951   7.289   4.468
 9337SOL    HW129843   9.015   7.283   4.396
 9337SOL    HW229844   8.986   7.359   4.524
 9338SOL     OW29845   0.054   6.262  14.273
 9338SOL    HW129846  14.855   6.238  14.227
 9338SOL    HW229847   0.093   6.179  14.300
 9339SOL     OW29848  12.410  14.705   3.316
 9339SOL    HW129849  12.486  14.745   3.358
 9339SOL    HW229850  12.432  14.703   3.223
 9340SOL     OW29851  11.786   2.284   3.314
 9340SOL    HW129852  11.754   2.194   3.323
 9340SOL    HW229853  11.869   2.275   3.267
 9341SOL     OW29854   9.024  14.479   8.695
 9341SOL    HW129855   9.023  14.572   8.675
 9341SOL    HW229856   8.970  14.439   8.627
 9342SOL     OW29857   7.252   6.803  11.506
 9342SOL    HW129858   7.202   6.761  11.436
 9342SOL    HW229859   7.315   6.859  11.460
 9343SOL     OW29860   4.348  13.669  12.551
 9343SOL    HW129861   4.308  13.750  12.584
 9343SOL    HW229862   4.304  13.599  12.598
 9344SOL     OW29863  14.501   2.922   6.130
 9344SOL    HW129864  14.422   2.883   6.166
 9344SOL    HW229865  14.568   2.854   6.141
 9345SOL     OW29866   5.295   8.609   2.752
 9345SOL    HW129867   5.250   8.634   2.671
 9345SOL    HW229868   5.239   8.643   2.822
 9346SOL     OW29869   3.993  10.212  11.518
 9346SOL    HW129870   3.942  10.222  11.437
 9346SOL    HW229871   3.927  10.197  11.586
 9347SOL     OW29872   9.988   7.583   4.209
 9347SOL    HW129873   9.901   7.564   4.172
 9347SOL    HW229874  10.017   7.662   4.163
 9348SOL     OW29875  13.962   1.545  13.837
 9348SOL    HW129876  13.935   1.627  13.796
 9348SOL    HW229877  14.025   1.506  13.775
 9349SOL     OW29878   8.484  14.581  11.646
 9349SOL    HW129879   8.537  14.516  11.600
 9349SOL    HW229880   8.394  14.554  11.632
 9350SOL     OW29881  11.232  14.432   1.856
 9350SOL    HW129882  11.191  14.359   1.904
 9350SOL    HW229883  11.301  14.391   1.804
 9351SOL     OW29884  13.988   0.357   6.566
 9351SOL    HW129885  14.045   0.384   6.494
 9351SOL    HW229886  14.032   0.280   6.604
 9352SOL     OW29887  13.368   8.130  14.207
 9352SOL    HW129888  13.464   8.126  14.199
 9352SOL    HW229889  13.336   8.074  14.136
 9353SOL     OW29890   2.785  11.103   6.035
 9353SOL    HW129891   2.834  11.040   5.982
 9353SOL    HW229892   2.712  11.130   5.980
 9354SOL     OW29893   4.163   7.885  13.221
 9354SOL    HW129894   4.161   7.886  13.316
 9354SOL    HW229895   4.090   7.940  13.194
 9355SOL     OW29896   8.991   1.317  10.519
 9355SOL    HW129897   9.006   1.279  10.432
 9355SOL    HW229898   8.957   1.404  10.501
 9356SOL     OW29899   7.076   9.720  13.087
 9356SOL    HW129900   7.054   9.645  13.142
 9356SOL    HW229901   7.030   9.794  13.127
 9357SOL     OW29902   0.779   0.109  12.146
 9357SOL    HW129903   0.796   0.017  12.166
 9357SOL    HW229904   0.850   0.157  12.190
 9358SOL     OW29905   3.772   4.766  14.578
 9358SOL    HW129906   3.745   4.745  14.488
 9358SOL    HW229907   3.702   4.731  14.632
 9359SOL     OW29908   0.998   3.883  10.937
 9359SOL    HW129909   1.019   3.813  10.998
 9359SOL    HW229910   0.936   3.843  10.876
 9360SOL     OW29911  14.210   3.193  11.923
 9360SOL    HW129912  14.201   3.256  11.994
 9360SOL    HW229913  14.145   3.221  11.858
 9361SOL     OW29914   7.417   9.737   9.286
 9361SOL    HW129915   7.446   9.718   9.197
 9361SOL    HW229916   7.417   9.653   9.330
 9362SOL     OW29917  12.532  14.630   3.103
 9362SOL    HW129918  12.519  14.626   3.009
 9362SOL    HW229919  12.622  14.658   3.115
 9363SOL     OW29920   9.666  12.601   1.881
 9363SOL    HW129921   9.617  12.660   1.938
 9363SOL    HW229922   9.750  12.647   1.867
 9364SOL     OW29923   8.423  13.651  13.402
 9364SOL    HW129924   8.349  13.657  13.462
 9364SOL    HW229925   8.425  13.736  13.358
 9365SOL     OW29926   3.387   3.855  13.581
 9365SOL    HW129927   3.479   3.854  13.608
 9365SOL    HW229928   3.387   3.814  13.494
 9366SOL     OW29929   7.742  14.684   3.001
 9366SOL    HW129930   7.684  14.635   3.059
 9366SOL    HW229931   7.758  14.766   3.047
 9367SOL     OW29932   6.361  11.849   8.898
 9367SOL    HW129933   6.352  11.774   8.957
 9367SOL    HW229934   6.414  11.912   8.947
 9368SOL     OW29935   7.934  13.238   6.466
 9368SOL    HW129936   7.988  13.165   6.498
 9368SOL    HW229937   7.873  13.197   6.404
 9369SOL     OW29938  11.922   7.009   4.552
 9369SOL    HW129939  11.898   6.973   4.637
 9369SOL    HW229940  11.990   6.951   4.519
 9370SOL     OW29941  10.288   9.005  10.067
 9370SOL    HW129942  10.374   8.984  10.104
 9370SOL    HW229943  10.291   9.099  10.052
 9371SOL     OW29944   7.653  12.261  10.186
 9371SOL    HW129945   7.590  12.327  10.158
 9371SOL    HW229946   7.601  12.183  10.205
 9372SOL     OW29947   7.228  12.563   7.987
 9372SOL    HW129948   7.159  12.506   7.953
 9372SOL    HW229949   7.231  12.544   8.080
 9373SOL     OW29950  14.806   4.163  13.397
 9373SOL    HW129951   0.012   4.126  13.408
 9373SOL    HW229952  14.751   4.089  13.375
 9374SOL     OW29953  11.847   8.899   2.669
 9374SOL    HW129954  11.899   8.821   2.651
 9374SOL    HW229955  11.801   8.879   2.751
 9375SOL     OW29956  11.923  12.265   1.876
 9375SOL    HW129957  11.971  12.313   1.944
 9375SOL    HW229958  11.851  12.223   1.923
 9376SOL     OW29959   9.857  10.551   4.048
 9376SOL    HW129960   9.844  10.461   4.078
 9376SOL    HW229961   9.861  10.602   4.129
 9377SOL     OW29962  10.139  11.574   4.780
 9377SOL    HW129963  10.192  11.654   4.769
 9377SOL    HW229964  10.051  11.606   4.800
 9378SOL     OW29965   1.314  14.727   4.897
 9378SOL    HW129966   1.256  14.700   4.825
 9378SOL    HW229967   1.383  14.661   4.898
 9379SOL     OW29968  13.127  13.190  14.385
 9379SOL    HW129969  13.037  13.189  14.351
 9379SOL    HW229970  13.121  13.145  14.469
 9380SOL     OW29971   1.767  14.079   8.732
 9380SOL    HW129972   1.689  14.119   8.695
 9380SOL    HW229973   1.748  13.985   8.735
 9381SOL     OW29974   1.474   6.545  10.452
 9381SOL    HW129975   1.401   6.606  10.458
 9381SOL    HW229976   1.515   6.548  10.538
 9382SOL     OW29977   2.886  13.223  12.767
 9382SOL    HW129978   2.962  13.240  12.823
 9382SOL    HW229979   2.913  13.150  12.711
 9383SOL     OW29980  12.086   2.401  12.163
 9383SOL    HW129981  12.180   2.402  12.147
 9383SOL    HW229982  12.056   2.487  12.134
 9384SOL     OW29983   1.907  14.406  13.817
 9384SOL    HW129984   1.831  14.381  13.764
 9384SOL    HW229985   1.978  14.414  13.753
 9385SOL     OW29986   0.601   1.462  10.215
 9385SOL    HW129987   0.617   1.459  10.121
 9385SOL    HW229988   0.526   1.405  10.229
 9386SOL     OW29989   1.212   3.034   6.115
 9386SOL    HW129990   1.215   3.110   6.057
 9386SOL    HW229991   1.303   3.005   6.121
 9387SOL     OW29992   9.376   9.942   1.126
 9387SOL    HW129993   9.316   9.993   1.180
 9387SOL    HW229994   9.379   9.856   1.168
 9388SOL     OW29995  10.772   8.982   7.123
 9388SOL    HW129996  10.818   8.966   7.040
 9388SOL    HW229997  10.832   8.951   7.190
 9389SOL     OW29998   7.303   8.307  10.903
 9389SOL    HW129999   7.228   8.320  10.960
 9389SOL    HW230000   7.379   8.333  10.956
 9390SOL     OW30001   1.161   8.230   6.514
 9390SOL    HW130002   1.210   8.312   6.506
 9390SOL    HW230003   1.103   8.244   6.589
 9391SOL     OW30004   1.565  13.586   3.723
 9391SOL    HW130005   1.558  13.640   3.802
 9391SOL    HW230006   1.477  13.551   3.709
 9392SOL     OW30007  13.017   4.030  10.810
 9392SOL    HW130008  13.031   3.952  10.865
 9392SOL    HW230009  12.923   4.032  10.794
 9393SOL     OW30010  11.596   7.198   9.616
 9393SOL    HW130011  11.574   7.188   9.524
 9393SOL    HW230012  11.575   7.113   9.655
 9394SOL     OW30013   7.019   5.435   8.176
 9394SOL    HW130014   7.071   5.493   8.233
 9394SOL    HW230015   7.062   5.442   8.090
 9395SOL     OW30016   3.336   9.173  12.760
 9395SOL    HW130017   3.378   9.172  12.674
 9395SOL    HW230018   3.310   9.264  12.773
 9396SOL     OW30019   9.336   4.636   4.749
 9396SOL    HW130020   9.358   4.728   4.738
 9396SOL    HW230021   9.313   4.627   4.841
 9397SOL     OW30022   9.115   2.327  10.041
 9397SOL    HW130023   9.168   2.392   9.996
 9397SOL    HW230024   9.177   2.277  10.094
 9398SOL     OW30025  13.524  10.846   7.798
 9398SOL    HW130026  13.484  10.786   7.862
 9398SOL    HW230027  13.450  10.886   7.753
 9399SOL     OW30028   8.478  13.497   8.184
 9399SOL    HW130029   8.547  13.443   8.223
 9399SOL    HW230030   8.522  13.548   8.117
 9400SOL     OW30031  13.491   0.746   8.242
 9400SOL    HW130032  13.462   0.673   8.187
 9400SOL    HW230033  13.424   0.753   8.310
 9401SOL     OW30034   7.909   7.875  12.876
 9401SOL    HW130035   7.884   7.941  12.941
 9401SOL    HW230036   7.837   7.875  12.813
 9402SOL     OW30037  14.159  14.633   0.178
 9402SOL    HW130038  14.247  14.650   0.212
 9402SOL    HW230039  14.138  14.545   0.208
 9403SOL     OW30040  13.170   0.849   0.174
 9403SOL    HW130041  13.124   0.786   0.119
 9403SOL    HW230042  13.253   0.865   0.128
 9404SOL     OW30043   8.102   1.533   0.433
 9404SOL    HW130044   8.172   1.468   0.422
 9404SOL    HW230045   8.148   1.615   0.451
 9405SOL     OW30046   6.731   8.682   6.369
 9405SOL    HW130047   6.684   8.707   6.449
 9405SOL    HW230048   6.667   8.695   6.299
 9406SOL     OW30049   2.527   4.304  12.642
 9406SOL    HW130050   2.555   4.343  12.559
 9406SOL    HW230051   2.435   4.281  12.628
 9407SOL     OW30052  10.261   5.039   2.864
 9407SOL    HW130053  10.298   5.052   2.776
 9407SOL    HW230054  10.306   4.962   2.898
 9408SOL     OW30055   9.925  14.174   7.695
 9408SOL    HW130056   9.900  14.177   7.787
 9408SOL    HW230057   9.907  14.084   7.668
 9409SOL     OW30058  13.243   7.881   7.813
 9409SOL    HW130059  13.284   7.894   7.898
 9409SOL    HW230060  13.213   7.790   7.814
 9410SOL     OW30061   6.826  11.721   7.254
 9410SOL    HW130062   6.774  11.743   7.331
 9410SOL    HW230063   6.761  11.699   7.187
 9411SOL     OW30064   2.222  13.214   1.180
 9411SOL    HW130065   2.154  13.217   1.113
 9411SOL    HW230066   2.257  13.303   1.183
 9412SOL     OW30067   2.922   7.583   8.838
 9412SOL    HW130068   2.901   7.672   8.812
 9412SOL    HW230069   3.013   7.570   8.809
 9413SOL     OW30070   7.895   2.166  11.426
 9413SOL    HW130071   7.942   2.231  11.479
 9413SOL    HW230072   7.950   2.088  11.428
 9414SOL     OW30073   8.589  14.417   6.314
 9414SOL    HW130074   8.632  14.460   6.240
 9414SOL    HW230075   8.505  14.462   6.322
 9415SOL     OW30076  11.454  11.583   0.991
 9415SOL    HW130077  11.394  11.545   1.055
 9415SOL    HW230078  11.411  11.663   0.962
 9416SOL     OW30079   1.755   6.739   5.042
 9416SOL    HW130080   1.811   6.728   4.965
 9416SOL    HW230081   1.780   6.668   5.100
 9417SOL     OW30082   0.754   3.628   3.997
 9417SOL    HW130083   0.846   3.619   4.021
 9417SOL    HW230084   0.715   3.677   4.069
 9418SOL     OW30085  13.671   1.635   0.944
 9418SOL    HW130086  13.598   1.616   1.004
 9418SOL    HW230087  13.741   1.576   0.972
 9419SOL     OW30088   7.925   4.981  12.539
 9419SOL    HW130089   7.923   5.029  12.456
 9419SOL    HW230090   8.011   4.998  12.575
 9420SOL     OW30091   9.689   2.100   8.736
 9420SOL    HW130092   9.655   2.189   8.732
 9420SOL    HW230093   9.644   2.060   8.810
 9421SOL     OW30094   3.019   8.223   9.300
 9421SOL    HW130095   3.013   8.128   9.291
 9421SOL    HW230096   3.087   8.237   9.366
 9422SOL     OW30097  11.445   8.853  10.089
 9422SOL    HW130098  11.488   8.779  10.046
 9422SOL    HW230099  11.505   8.926  10.077
 9423SOL     OW30100  13.593  10.713   1.229
 9423SOL    HW130101  13.592  10.716   1.324
 9423SOL    HW230102  13.596  10.620   1.208
 9424SOL     OW30103  14.420   5.100  14.360
 9424SOL    HW130104  14.481   5.049  14.414
 9424SOL    HW230105  14.470   5.177  14.334
 9425SOL     OW30106   6.216   2.876   0.469
 9425SOL    HW130107   6.265   2.926   0.404
 9425SOL    HW230108   6.155   2.939   0.506
 9426SOL     OW30109   0.410  14.526   9.007
 9426SOL    HW130110   0.441  14.612   9.035
 9426SOL    HW230111   0.412  14.473   9.087
 9427SOL     OW30112  14.424   0.131   8.236
 9427SOL    HW130113  14.427   0.061   8.171
 9427SOL    HW230114  14.434   0.086   8.320
 9428SOL     OW30115   9.057   9.569  11.976
 9428SOL    HW130116   8.964   9.587  11.966
 9428SOL    HW230117   9.079   9.511  11.903
 9429SOL     OW30118   3.505   1.911   6.573
 9429SOL    HW130119   3.528   1.820   6.589
 9429SOL    HW230120   3.432   1.929   6.633
 9430SOL     OW30121  12.944  11.640   9.170
 9430SOL    HW130122  12.855  11.606   9.186
 9430SOL    HW230123  13.001  11.568   9.197
 9431SOL     OW30124  14.564   9.669   5.838
 9431SOL    HW130125  14.583   9.586   5.881
 9431SOL    HW230126  14.594   9.735   5.900
 9432SOL     OW30127   4.567   3.224  14.188
 9432SOL    HW130128   4.623   3.191  14.259
 9432SOL    HW230129   4.539   3.310  14.218
 9433SOL     OW30130   7.346   3.065   2.925
 9433SOL    HW130131   7.294   2.985   2.910
 9433SOL    HW230132   7.423   3.035   2.973
 9434SOL     OW30133   2.201   6.069   8.750
 9434SOL    HW130134   2.143   6.143   8.730
 9434SOL    HW230135   2.287   6.096   8.719
 9435SOL     OW30136   2.086  14.320  12.280
 9435SOL    HW130137   2.117  14.243  12.328
 9435SOL    HW230138   2.098  14.393  12.341
 9436SOL     OW30139   4.233   9.409   9.542
 9436SOL    HW130140   4.299   9.463   9.501
 9436SOL    HW230141   4.282   9.343   9.592
 9437SOL     OW30142  10.266  12.361   8.052
 9437SOL    HW130143  10.209  12.285   8.068
 9437SOL    HW230144  10.207  12.436   8.054
 9438SOL     OW30145   0.148   4.387   9.475
 9438SOL    HW130146   0.136   4.407   9.568
 9438SOL    HW230147   0.060   4.372   9.442
 9439SOL     OW30148   1.091  10.286   8.671
 9439SOL    HW130149   1.032  10.220   8.634
 9439SOL    HW230150   1.166  10.286   8.611
 9440SOL     OW30151  10.383   3.476  11.962
 9440SOL    HW130152  10.478   3.476  11.960
 9440SOL    HW230153  10.357   3.448  11.874
 9441SOL     OW30154   5.061   0.507  10.970
 9441SOL    HW130155   5.152   0.487  10.992
 9441SOL    HW230156   5.050   0.599  10.993
 9442SOL     OW30157   5.262  10.873   2.063
 9442SOL    HW130158   5.344  10.912   2.034
 9442SOL    HW230159   5.287  10.785   2.092
 9443SOL     OW30160   3.840   4.112   5.085
 9443SOL    HW130161   3.911   4.166   5.120
 9443SOL    HW230162   3.885   4.041   5.038
 9444SOL     OW30163   8.281  12.537   9.184
 9444SOL    HW130164   8.281  12.441   9.178
 9444SOL    HW230165   8.219  12.557   9.254
 9445SOL     OW30166   7.717   0.437   2.796
 9445SOL    HW130167   7.709   0.533   2.792
 9445SOL    HW230168   7.793   0.418   2.741
 9446SOL     OW30169   8.731   1.430   8.608
 9446SOL    HW130170   8.791   1.441   8.535
 9446SOL    HW230171   8.644   1.435   8.569
 9447SOL     OW30172  13.879   8.745   4.988
 9447SOL    HW130173  13.893   8.840   4.980
 9447SOL    HW230174  13.786   8.733   4.967
 9448SOL     OW30175  12.669   1.472   3.816
 9448SOL    HW130176  12.603   1.533   3.783
 9448SOL    HW230177  12.635   1.385   3.795
 9449SOL     OW30178  14.737   5.359   2.813
 9449SOL    HW130179  14.668   5.423   2.828
 9449SOL    HW230180  14.695   5.274   2.830
 9450SOL     OW30181  10.278  10.070   9.793
 9450SOL    HW130182  10.346  10.111   9.739
 9450SOL    HW230183  10.295   9.976   9.785
 9451SOL     OW30184   8.019   6.879   0.187
 9451SOL    HW130185   8.056   6.791   0.195
 9451SOL    HW230186   7.930   6.871   0.221
 9452SOL     OW30187   9.361   6.475   0.049
 9452SOL    HW130188   9.335   6.425  14.855
 9452SOL    HW230189   9.362   6.412   0.121
 9453SOL     OW30190   7.958   8.796   3.818
 9453SOL    HW130191   7.915   8.747   3.889
 9453SOL    HW230192   8.033   8.838   3.860
 9454SOL     OW30193   2.582  14.708   1.452
 9454SOL    HW130194   2.641  14.647   1.497
 9454SOL    HW230195   2.498  14.661   1.447
 9455SOL     OW30196   4.893  13.942   8.224
 9455SOL    HW130197   4.895  14.014   8.286
 9455SOL    HW230198   4.985  13.917   8.213
 9456SOL     OW30199   3.917   0.232   8.243
 9456SOL    HW130200   3.847   0.264   8.185
 9456SOL    HW230201   3.997   0.239   8.190
 9457SOL     OW30202   8.732   0.638   7.151
 9457SOL    HW130203   8.716   0.702   7.221
 9457SOL    HW230204   8.657   0.580   7.155
 9458SOL     OW30205   5.810   5.265  10.291
 9458SOL    HW130206   5.773   5.200  10.352
 9458SOL    HW230207   5.905   5.257  10.302
 9459SOL     OW30208  12.849   7.204  13.849
 9459SOL    HW130209  12.855   7.266  13.776
 9459SOL    HW230210  12.777   7.146  13.826
 9460SOL     OW30211   8.559   9.884  10.275
 9460SOL    HW130212   8.490   9.839  10.227
 9460SOL    HW230213   8.538   9.977  10.266
 9461SOL     OW30214  11.763   6.216   3.290
 9461SOL    HW130215  11.786   6.236   3.200
 9461SOL    HW230216  11.840   6.172   3.326
 9462SOL     OW30217   5.799   6.739   0.830
 9462SOL    HW130218   5.871   6.764   0.888
 9462SOL    HW230219   5.795   6.643   0.838
 9463SOL     OW30220   7.220   4.219   9.838
 9463SOL    HW130221   7.229   4.181   9.925
 9463SOL    HW230222   7.281   4.293   9.837
 9464SOL     OW30223  14.271  12.257  12.104
 9464SOL    HW130224  14.257  12.260  12.009
 9464SOL    HW230225  14.226  12.178  12.133
 9465SOL     OW30226   0.002   7.685   4.144
 9465SOL    HW130227   0.075   7.624   4.133
 9465SOL    HW230228   0.036   7.752   4.204
 9466SOL     OW30229  12.781  14.334   9.305
 9466SOL    HW130230  12.720  14.262   9.320
 9466SOL    HW230231  12.819  14.352   9.392
 9467SOL     OW30232   5.682   9.342   6.484
 9467SOL    HW130233   5.752   9.278   6.474
 9467SOL    HW230234   5.602   9.292   6.469
 9468SOL     OW30235  12.456   4.373   1.721
 9468SOL    HW130236  12.437   4.462   1.691
 9468SOL    HW230237  12.551   4.370   1.726
 9469SOL     OW30238   6.764   5.610   9.020
 9469SOL    HW130239   6.819   5.650   9.088
 9469SOL    HW230240   6.719   5.684   8.980
 9470SOL     OW30241   0.969   7.802   7.103
 9470SOL    HW130242   0.927   7.759   7.177
 9470SOL    HW230243   1.027   7.735   7.066
 9471SOL     OW30244   1.767   8.086   2.114
 9471SOL    HW130245   1.789   8.055   2.026
 9471SOL    HW230246   1.730   8.010   2.158
 9472SOL     OW30247   5.310   6.179  13.304
 9472SOL    HW130248   5.349   6.092  13.309
 9472SOL    HW230249   5.383   6.239  13.318
 9473SOL     OW30250   7.638  12.766  10.512
 9473SOL    HW130251   7.732  12.756  10.526
 9473SOL    HW230252   7.619  12.711  10.436
 9474SOL     OW30253  10.864  14.264  11.239
 9474SOL    HW130254  10.782  14.250  11.285
 9474SOL    HW230255  10.855  14.352  11.200
 9475SOL     OW30256   7.915   0.270   2.358
 9475SOL    HW130257   7.835   0.253   2.407
 9475SOL    HW230258   7.922   0.198   2.296
 9476SOL     OW30259  13.786   6.952  14.778
 9476SOL    HW130260  13.721   7.021  14.779
 9476SOL    HW230261  13.774   6.908  14.694
 9477SOL     OW30262   7.382   9.929  12.717
 9477SOL    HW130263   7.417   9.965  12.636
 9477SOL    HW230264   7.289   9.915  12.699
 9478SOL     OW30265  10.912   5.453   0.322
 9478SOL    HW130266  10.939   5.544   0.333
 9478SOL    HW230267  10.933   5.433   0.230
 9479SOL     OW30268   7.277  13.259  13.560
 9479SOL    HW130269   7.299  13.249  13.467
 9479SOL    HW230270   7.249  13.350  13.568
 9480SOL     OW30271   5.261  10.036   7.629
 9480SOL    HW130272   5.273   9.988   7.711
 9480SOL    HW230273   5.167  10.048   7.621
 9481SOL     OW30274   9.221   3.929  10.719
 9481SOL    HW130275   9.267   3.968  10.793
 9481SOL    HW230276   9.143   3.890  10.757
 9482SOL     OW30277   5.782   3.154   7.505
 9482SOL    HW130278   5.765   3.215   7.577
 9482SOL    HW230279   5.875   3.165   7.487
 9483SOL     OW30280   8.022  10.500   5.557
 9483SOL    HW130281   8.027  10.577   5.501
 9483SOL    HW230282   8.094  10.511   5.619
 9484SOL     OW30283   5.186   0.175  10.805
 9484SOL    HW130284   5.170   0.125  10.885
 9484SOL    HW230285   5.267   0.223  10.822
 9485SOL     OW30286   2.392   5.062   3.869
 9485SOL    HW130287   2.326   5.072   3.800
 9485SOL    HW230288   2.475   5.056   3.821
 9486SOL     OW30289   4.637   7.814  12.768
 9486SOL    HW130290   4.701   7.784  12.832
 9486SOL    HW230291   4.587   7.736  12.744
 9487SOL     OW30292   9.064   8.597   8.390
 9487SOL    HW130293   9.124   8.592   8.316
 9487SOL    HW230294   8.990   8.543   8.365
 9488SOL     OW30295   5.555   3.634   8.959
 9488SOL    HW130296   5.607   3.559   8.929
 9488SOL    HW230297   5.517   3.671   8.880
 9489SOL     OW30298  10.294   3.207   5.110
 9489SOL    HW130299  10.382   3.171   5.102
 9489SOL    HW230300  10.279   3.254   5.028
 9490SOL     OW30301  13.481  14.498   8.475
 9490SOL    HW130302  13.471  14.451   8.558
 9490SOL    HW230303  13.427  14.450   8.413
 9491SOL     OW30304   2.928   5.034   6.853
 9491SOL    HW130305   2.846   5.050   6.806
 9491SOL    HW230306   2.917   5.080   6.936
 9492SOL     OW30307   3.179   2.200   1.179
 9492SOL    HW130308   3.108   2.212   1.242
 9492SOL    HW230309   3.176   2.107   1.157
 9493SOL     OW30310   4.749   4.189   7.855
 9493SOL    HW130311   4.825   4.183   7.798
 9493SOL    HW230312   4.710   4.274   7.835
 9494SOL     OW30313  10.915   8.536   6.427
 9494SOL    HW130314  10.895   8.478   6.352
 9494SOL    HW230315  10.834   8.537   6.478
 9495SOL     OW30316  13.373   7.598   3.751
 9495SOL    HW130317  13.420   7.672   3.787
 9495SOL    HW230318  13.420   7.521   3.784
 9496SOL     OW30319   9.725   9.847   7.275
 9496SOL    HW130320   9.685   9.882   7.195
 9496SOL    HW230321   9.673   9.885   7.346
 9497SOL     OW30322   0.903  13.723   2.205
 9497SOL    HW130323   0.981  13.697   2.156
 9497SOL    HW230324   0.894  13.817   2.189
 9498SOL     OW30325   8.695  13.534   8.483
 9498SOL    HW130326   8.745  13.504   8.558
 9498SOL    HW230327   8.676  13.454   8.434
 9499SOL     OW30328  13.230   3.346   8.950
 9499SOL    HW130329  13.202   3.279   8.887
 9499SOL    HW230330  13.308   3.309   8.991
 9500SOL     OW30331   0.916   2.004   0.475
 9500SOL    HW130332   0.861   1.975   0.403
 9500SOL    HW230333   0.914   1.932   0.538
 9501SOL     OW30334   5.622   6.205   3.341
 9501SOL    HW130335   5.677   6.222   3.418
 9501SOL    HW230336   5.537   6.241   3.365
 9502SOL     OW30337  11.545   5.518  12.009
 9502SOL    HW130338  11.536   5.548  12.099
 9502SOL    HW230339  11.624   5.561  11.976
 9503SOL     OW30340  10.177   5.808   2.728
 9503SOL    HW130341  10.265   5.781   2.704
 9503SOL    HW230342  10.137   5.838   2.646
 9504SOL     OW30343   0.621  12.420   9.576
 9504SOL    HW130344   0.635  12.389   9.487
 9504SOL    HW230345   0.673  12.361   9.631
 9505SOL     OW30346  14.628   0.501  10.798
 9505SOL    HW130347  14.699   0.443  10.827
 9505SOL    HW230348  14.597   0.461  10.716
 9506SOL     OW30349   8.461  14.121   7.209
 9506SOL    HW130350   8.434  14.153   7.123
 9506SOL    HW230351   8.406  14.044   7.225
 9507SOL     OW30352   3.052   2.200   5.217
 9507SOL    HW130353   3.141   2.234   5.229
 9507SOL    HW230354   3.054   2.155   5.133
 9508SOL     OW30355   5.233   3.097   1.140
 9508SOL    HW130356   5.268   3.016   1.177
 9508SOL    HW230357   5.196   3.144   1.215
 9509SOL     OW30358   9.491   2.493   3.976
 9509SOL    HW130359   9.438   2.426   4.020
 9509SOL    HW230360   9.506   2.458   3.888
 9510SOL     OW30361   2.953   6.778   6.692
 9510SOL    HW130362   2.952   6.841   6.764
 9510SOL    HW230363   3.033   6.727   6.706
 9511SOL     OW30364   0.626  12.212   0.692
 9511SOL    HW130365   0.558  12.240   0.754
 9511SOL    HW230366   0.708  12.240   0.733
 9512SOL     OW30367   5.542   0.928   9.156
 9512SOL    HW130368   5.555   0.984   9.079
 9512SOL    HW230369   5.631   0.915   9.191
 9513SOL     OW30370  10.532  12.180  13.161
 9513SOL    HW130371  10.491  12.267  13.161
 9513SOL    HW230372  10.464  12.122  13.197
 9514SOL     OW30373   7.518   4.993   2.733
 9514SOL    HW130374   7.570   4.955   2.804
 9514SOL    HW230375   7.581   5.008   2.662
 9515SOL     OW30376  13.471   5.816   2.153
 9515SOL    HW130377  13.420   5.738   2.177
 9515SOL    HW230378  13.462   5.874   2.229
 9516SOL     OW30379   8.790  14.810  11.836
 9516SOL    HW130380   8.701  14.837  11.816
 9516SOL    HW230381   8.791  14.797  11.931
 9517SOL     OW30382   2.140   9.875   8.865
 9517SOL    HW130383   2.046   9.858   8.865
 9517SOL    HW230384   2.179   9.793   8.835
 9518SOL     OW30385   3.536  11.077   7.578
 9518SOL    HW130386   3.448  11.114   7.579
 9518SOL    HW230387   3.527  10.992   7.622
 9519SOL     OW30388   8.153   0.002  14.126
 9519SOL    HW130389   8.227   0.063  14.130
 9519SOL    HW230390   8.162  14.831  14.206
 9520SOL     OW30391  13.166  10.588  10.719
 9520SOL    HW130392  13.149  10.511  10.773
 9520SOL    HW230393  13.214  10.648  10.776
 9521SOL     OW30394  13.491   2.308   2.754
 9521SOL    HW130395  13.522   2.370   2.688
 9521SOL    HW230396  13.402   2.336   2.773
 9522SOL     OW30397   6.792  13.852  10.880
 9522SOL    HW130398   6.798  13.763  10.914
 9522SOL    HW230399   6.761  13.904  10.955
 9523SOL     OW30400  14.429   1.803   4.773
 9523SOL    HW130401  14.459   1.772   4.859
 9523SOL    HW230402  14.336   1.780   4.771
 9524SOL     OW30403   0.868  14.802   8.921
 9524SOL    HW130404   0.789  14.781   8.872
 9524SOL    HW230405   0.838  14.863   8.989
 9525SOL     OW30406  13.690  14.791   7.146
 9525SOL    HW130407  13.685   0.004   7.157
 9525SOL    HW230408  13.603  14.765   7.114
 9526SOL     OW30409   5.843  10.996  10.813
 9526SOL    HW130410   5.933  10.970  10.795
 9526SOL    HW230411   5.820  11.053  10.740
 9527SOL     OW30412  11.224  10.190   7.983
 9527SOL    HW130413  11.180  10.106   7.968
 9527SOL    HW230414  11.199  10.214   8.072
 9528SOL     OW30415  13.453  14.501  12.852
 9528SOL    HW130416  13.435  14.429  12.912
 9528SOL    HW230417  13.547  14.496  12.835
 9529SOL     OW30418  11.796   7.062  10.169
 9529SOL    HW130419  11.720   7.099  10.214
 9529SOL    HW230420  11.774   7.068  10.076
 9530SOL     OW30421   7.292  14.002  10.725
 9530SOL    HW130422   7.200  13.980  10.712
 9530SOL    HW230423   7.339  13.931  10.681
 9531SOL     OW30424   7.388   6.230   3.274
 9531SOL    HW130425   7.355   6.275   3.196
 9531SOL    HW230426   7.312   6.184   3.309
 9532SOL     OW30427  14.253  12.862  11.086
 9532SOL    HW130428  14.233  12.801  11.157
 9532SOL    HW230429  14.331  12.826  11.044
 9533SOL     OW30430   8.054   3.185   8.436
 9533SOL    HW130431   8.091   3.191   8.348
 9533SOL    HW230432   8.124   3.147   8.490
 9534SOL     OW30433   9.397  14.657   2.683
 9534SOL    HW130434   9.313  14.673   2.640
 9534SOL    HW230435   9.390  14.567   2.716
 9535SOL     OW30436   2.198   5.630  14.314
 9535SOL    HW130437   2.229   5.719  14.329
 9535SOL    HW230438   2.238   5.579  14.385
 9536SOL     OW30439   8.814  11.317   4.221
 9536SOL    HW130440   8.894  11.290   4.267
 9536SOL    HW230441   8.787  11.397   4.265
 9537SOL     OW30442  10.154   3.006  13.732
 9537SOL    HW130443  10.242   3.036  13.752
 9537SOL    HW230444  10.096   3.069  13.775
 9538SOL     OW30445   4.744   6.622   4.290
 9538SOL    HW130446   4.735   6.554   4.358
 9538SOL    HW230447   4.805   6.685   4.328
 9539SOL     OW30448  10.072   6.270   8.798
 9539SOL    HW130449  10.015   6.345   8.782
 9539SOL    HW230450  10.124   6.294   8.875
 9540SOL     OW30451  10.562   2.256   8.862
 9540SOL    HW130452  10.543   2.223   8.774
 9540SOL    HW230453  10.545   2.350   8.857
 9541SOL     OW30454  11.968   2.843   9.808
 9541SOL    HW130455  11.931   2.835   9.896
 9541SOL    HW230456  12.048   2.894   9.820
 9542SOL     OW30457   3.333   7.952   1.074
 9542SOL    HW130458   3.269   7.983   1.010
 9542SOL    HW230459   3.404   7.915   1.022
 9543SOL     OW30460  10.053  13.637  13.799
 9543SOL    HW130461  10.043  13.614  13.891
 9543SOL    HW230462  10.021  13.728  13.794
 9544SOL     OW30463   3.965   4.582  12.813
 9544SOL    HW130464   4.050   4.597  12.771
 9544SOL    HW230465   3.955   4.487  12.812
 9545SOL     OW30466   4.123  11.059  10.934
 9545SOL    HW130467   4.054  11.017  10.986
 9545SOL    HW230468   4.198  11.063  10.993
 9546SOL     OW30469  14.145   8.275   9.361
 9546SOL    HW130470  14.089   8.204   9.394
 9546SOL    HW230471  14.093   8.354   9.373
 9547SOL     OW30472   9.842   6.292   8.481
 9547SOL    HW130473   9.918   6.233   8.481
 9547SOL    HW230474   9.864   6.359   8.546
 9548SOL     OW30475   3.140  10.836   1.880
 9548SOL    HW130476   3.060  10.840   1.829
 9548SOL    HW230477   3.145  10.744   1.908
 9549SOL     OW30478   8.476   9.272   3.380
 9549SOL    HW130479   8.485   9.276   3.284
 9549SOL    HW230480   8.383   9.285   3.396
 9550SOL     OW30481  11.679  14.300  11.631
 9550SOL    HW130482  11.681  14.236  11.702
 9550SOL    HW230483  11.598  14.281  11.583
 9551SOL     OW30484   0.854  11.315   9.335
 9551SOL    HW130485   0.787  11.246   9.338
 9551SOL    HW230486   0.910  11.298   9.411
 9552SOL     OW30487  11.732  11.649  14.191
 9552SOL    HW130488  11.802  11.583  14.184
 9552SOL    HW230489  11.653  11.599  14.211
 9553SOL     OW30490  10.886   7.714  10.688
 9553SOL    HW130491  10.840   7.786  10.730
 9553SOL    HW230492  10.819   7.667  10.639
 9554SOL     OW30493  12.152   1.364  11.039
 9554SOL    HW130494  12.114   1.426  11.101
 9554SOL    HW230495  12.081   1.345  10.978
 9555SOL     OW30496  11.550   8.407  10.250
 9555SOL    HW130497  11.632   8.388  10.204
 9555SOL    HW230498  11.482   8.377  10.190
 9556SOL     OW30499  10.927  10.640   5.484
 9556SOL    HW130500  11.005  10.635   5.539
 9556SOL    HW230501  10.952  10.698   5.412
 9557SOL     OW30502  14.619   7.239  14.079
 9557SOL    HW130503  14.631   7.223  13.985
 9557SOL    HW230504  14.604   7.153  14.117
 9558SOL     OW30505   3.173  14.755   2.398
 9558SOL    HW130506   3.150  14.675   2.445
 9558SOL    HW230507   3.122  14.824   2.440
 9559SOL     OW30508   1.978   6.788   6.291
 9559SOL    HW130509   2.044   6.741   6.240
 9559SOL    HW230510   1.994   6.880   6.270
 9560SOL     OW30511  14.477  10.879  10.250
 9560SOL    HW130512  14.459  10.882  10.156
 9560SOL    HW230513  14.398  10.842  10.289
 9561SOL     OW30514   2.226   4.315   8.668
 9561SOL    HW130515   2.185   4.231   8.690
 9561SOL    HW230516   2.171   4.350   8.598
 9562SOL     OW30517   6.876   8.580   7.510
 9562SOL    HW130518   6.882   8.648   7.443
 9562SOL    HW230519   6.885   8.627   7.593
 9563SOL     OW30520   7.510  14.409   2.595
 9563SOL    HW130521   7.585  14.366   2.554
 9563SOL    HW230522   7.547  14.463   2.665
 9564SOL     OW30523   8.551   6.550   9.045
 9564SOL    HW130524   8.621   6.577   8.985
 9564SOL    HW230525   8.598   6.515   9.121
 9565SOL     OW30526   4.866  14.581   0.138
 9565SOL    HW130527   4.771  14.580   0.129
 9565SOL    HW230528   4.892  14.490   0.126
 9566SOL     OW30529  11.564   8.006  10.159
 9566SOL    HW130530  11.641   7.964  10.120
 9566SOL    HW230531  11.493   7.985  10.099
 9567SOL     OW30532  10.469  14.702   7.946
 9567SOL    HW130533  10.558  14.727   7.971
 9567SOL    HW230534  10.474  14.691   7.851
 9568SOL     OW30535   9.873  14.762  10.624
 9568SOL    HW130536   9.834  14.788  10.707
 9568SOL    HW230537   9.933  14.691  10.647
 9569SOL     OW30538  10.681   9.567  12.383
 9569SOL    HW130539  10.664   9.647  12.334
 9569SOL    HW230540  10.599   9.518  12.377
 9570SOL     OW30541  14.272   2.819  11.118
 9570SOL    HW130542  14.270   2.724  11.106
 9570SOL    HW230543  14.345   2.849  11.064
 9571SOL     OW30544   0.036   7.426  14.004
 9571SOL    HW130545  14.861   7.391  13.936
 9571SOL    HW230546  14.878   7.397  14.086
 9572SOL     OW30547  10.545   4.613   1.407
 9572SOL    HW130548  10.492   4.565   1.343
 9572SOL    HW230549  10.541   4.560   1.486
 9573SOL     OW30550   0.716  12.962  13.525
 9573SOL    HW130551   0.777  13.026  13.488
 9573SOL    HW230552   0.765  12.921  13.596
 9574SOL     OW30553   1.957   9.341   7.129
 9574SOL    HW130554   2.003   9.425   7.136
 9574SOL    HW230555   1.960   9.320   7.035
 9575SOL     OW30556   4.112  12.276  10.957
 9575SOL    HW130557   4.183  12.213  10.969
 9575SOL    HW230558   4.072  12.251  10.873
 9576SOL     OW30559  12.020  13.218   4.880
 9576SOL    HW130560  11.945  13.176   4.923
 9576SOL    HW230561  12.044  13.157   4.810
 9577SOL     OW30562   6.860   6.476   1.007
 9577SOL    HW130563   6.764   6.482   1.008
 9577SOL    HW230564   6.879   6.391   1.046
 9578SOL     OW30565   1.108   0.907   1.767
 9578SOL    HW130566   1.088   0.837   1.829
 9578SOL    HW230567   1.042   0.899   1.699
 9579SOL     OW30568   7.621   7.264  13.001
 9579SOL    HW130569   7.543   7.218  12.970
 9579SOL    HW230570   7.690   7.197  13.001
 9580SOL     OW30571  10.851   8.746   7.568
 9580SOL    HW130572  10.859   8.817   7.632
 9580SOL    HW230573  10.904   8.675   7.605
 9581SOL     OW30574   9.667  12.728   3.394
 9581SOL    HW130575   9.709  12.805   3.433
 9581SOL    HW230576   9.722  12.704   3.320
 9582SOL     OW30577  14.366   9.170   7.216
 9582SOL    HW130578  14.321   9.091   7.187
 9582SOL    HW230579  14.296   9.235   7.226
 9583SOL     OW30580   7.372   7.175   7.946
 9583SOL    HW130581   7.372   7.151   8.039
 9583SOL    HW230582   7.358   7.270   7.945
 9584SOL     OW30583   9.494   6.666   2.199
 9584SOL    HW130584   9.444   6.601   2.248
 9584SOL    HW230585   9.428   6.714   2.150
 9585SOL     OW30586   8.793   3.335   5.501
 9585SOL    HW130587   8.852   3.371   5.434
 9585SOL    HW230588   8.788   3.403   5.568
 9586SOL     OW30589  13.656   2.990   6.761
 9586SOL    HW130590  13.617   3.035   6.686
 9586SOL    HW230591  13.740   2.958   6.729
 9587SOL     OW30592   0.132  14.740   8.145
 9587SOL    HW130593   0.192  14.761   8.075
 9587SOL    HW230594   0.140  14.645   8.156
 9588SOL     OW30595   5.763   6.543   1.203
 9588SOL    HW130596   5.776   6.620   1.257
 9588SOL    HW230597   5.681   6.560   1.156
 9589SOL     OW30598   6.625  10.406   7.494
 9589SOL    HW130599   6.581  10.337   7.444
 9589SOL    HW230600   6.569  10.483   7.483
 9590SOL     OW30601  14.317   0.322   9.060
 9590SOL    HW130602  14.302   0.246   9.005
 9590SOL    HW230603  14.259   0.309   9.135
 9591SOL     OW30604   5.292   3.148  13.342
 9591SOL    HW130605   5.305   3.228  13.292
 9591SOL    HW230606   5.380   3.122  13.369
 9592SOL     OW30607   5.830   0.532   4.412
 9592SOL    HW130608   5.904   0.472   4.404
 9592SOL    HW230609   5.868   0.612   4.448
 9593SOL     OW30610   4.352   5.994   7.517
 9593SOL    HW130611   4.272   6.016   7.566
 9593SOL    HW230612   4.332   6.020   7.427
 9594SOL     OW30613   2.087   2.445  13.280
 9594SOL    HW130614   2.018   2.502  13.247
 9594SOL    HW230615   2.042   2.386  13.341
 9595SOL     OW30616  12.733   6.883   3.961
 9595SOL    HW130617  12.682   6.902   4.040
 9595SOL    HW230618  12.686   6.927   3.890
 9596SOL     OW30619   3.295  12.081   6.411
 9596SOL    HW130620   3.231  12.123   6.469
 9596SOL    HW230621   3.250  12.073   6.327
 9597SOL     OW30622   6.432  14.835   6.127
 9597SOL    HW130623   6.393  14.873   6.048
 9597SOL    HW230624   6.365  14.775   6.160
 9598SOL     OW30625  13.610  12.473   7.083
 9598SOL    HW130626  13.679  12.540   7.087
 9598SOL    HW230627  13.622  12.423   7.163
 9599SOL     OW30628   2.522   1.436   5.197
 9599SOL    HW130629   2.583   1.369   5.229
 9599SOL    HW230630   2.569   1.519   5.209
 9600SOL     OW30631   0.617  10.117   9.566
 9600SOL    HW130632   0.657  10.107   9.479
 9600SOL    HW230633   0.620  10.030   9.604
 9601SOL     OW30634   6.009   9.461  10.986
 9601SOL    HW130635   5.982   9.550  11.008
 9601SOL    HW230636   6.018   9.461  10.890
 9602SOL     OW30637  14.257  12.259  10.656
 9602SOL    HW130638  14.188  12.309  10.612
 9602SOL    HW230639  14.322  12.324  10.680
 9603SOL     OW30640  11.576  14.842  12.998
 9603SOL    HW130641  11.573   0.028  12.930
 9603SOL    HW230642  11.665  14.848  13.033
 9604SOL     OW30643   6.575   3.630   7.758
 9604SOL    HW130644   6.656   3.593   7.792
 9604SOL    HW230645   6.521   3.645   7.835
 9605SOL     OW30646   4.083   6.257   1.076
 9605SOL    HW130647   4.011   6.209   1.036
 9605SOL    HW230648   4.071   6.243   1.170
 9606SOL     OW30649  13.124   4.436   4.136
 9606SOL    HW130650  13.094   4.442   4.227
 9606SOL    HW230651  13.158   4.347   4.128
 9607SOL     OW30652   2.358   1.293   8.732
 9607SOL    HW130653   2.274   1.249   8.747
 9607SOL    HW230654   2.371   1.288   8.637
 9608SOL     OW30655  10.003   1.478  13.644
 9608SOL    HW130656  10.041   1.556  13.685
 9608SOL    HW230657   9.909   1.487  13.659
 9609SOL     OW30658   4.692  14.139  13.112
 9609SOL    HW130659   4.725  14.214  13.161
 9609SOL    HW230660   4.612  14.171  13.070
 9610SOL     OW30661   4.883  12.760   8.551
 9610SOL    HW130662   4.794  12.727   8.553
 9610SOL    HW230663   4.874  12.855   8.544
 9611SOL     OW30664   4.048   5.238   4.358
 9611SOL    HW130665   4.059   5.144   4.343
 9611SOL    HW230666   4.074   5.279   4.275
 9612SOL     OW30667  10.294  13.469   1.643
 9612SOL    HW130668  10.209  13.488   1.682
 9612SOL    HW230669  10.325  13.553   1.610
 9613SOL     OW30670   9.760  10.788  13.724
 9613SOL    HW130671   9.734  10.772  13.634
 9613SOL    HW230672   9.680  10.772  13.775
 9614SOL     OW30673  13.101   7.983  14.025
 9614SOL    HW130674  13.011   7.977  14.057
 9614SOL    HW230675  13.096   8.039  13.948
 9615SOL     OW30676  14.674  13.251  13.356
 9615SOL    HW130677  14.760  13.219  13.383
 9615SOL    HW230678  14.671  13.341  13.388
 9616SOL     OW30679   1.074   0.101  14.005
 9616SOL    HW130680   1.109   0.071  13.921
 9616SOL    HW230681   1.061   0.020  14.056
 9617SOL     OW30682   1.639   8.271   5.915
 9617SOL    HW130683   1.566   8.264   5.977
 9617SOL    HW230684   1.642   8.363   5.891
 9618SOL     OW30685   7.855  14.403   3.381
 9618SOL    HW130686   7.948  14.381   3.396
 9618SOL    HW230687   7.809  14.320   3.396
 9619SOL     OW30688   2.874  11.475  14.626
 9619SOL    HW130689   2.872  11.517  14.540
 9619SOL    HW230690   2.889  11.546  14.688
 9620SOL     OW30691   6.131   1.908   2.412
 9620SOL    HW130692   6.103   1.837   2.353
 9620SOL    HW230693   6.084   1.891   2.494
 9621SOL     OW30694   8.012  11.755  12.562
 9621SOL    HW130695   8.075  11.688  12.590
 9621SOL    HW230696   8.009  11.817  12.635
 9622SOL     OW30697   8.965   7.488  13.669
 9622SOL    HW130698   9.032   7.516  13.732
 9622SOL    HW230699   8.995   7.525  13.586
 9623SOL     OW30700  10.659   9.266  10.578
 9623SOL    HW130701  10.566   9.248  10.570
 9623SOL    HW230702  10.664   9.352  10.620
 9624SOL     OW30703  12.271   1.614   5.234
 9624SOL    HW130704  12.210   1.541   5.239
 9624SOL    HW230705  12.267   1.655   5.321
 9625SOL     OW30706  11.068  13.695   9.261
 9625SOL    HW130707  11.106  13.751   9.193
 9625SOL    HW230708  11.030  13.621   9.213
 9626SOL     OW30709   5.525   2.097   3.307
 9626SOL    HW130710   5.517   2.007   3.338
 9626SOL    HW230711   5.553   2.147   3.383
 9627SOL     OW30712   8.706   2.424   8.849
 9627SOL    HW130713   8.650   2.478   8.904
 9627SOL    HW230714   8.649   2.393   8.779
 9628SOL     OW30715  12.951   4.082   4.752
 9628SOL    HW130716  13.006   4.023   4.804
 9628SOL    HW230717  12.905   4.025   4.691
 9629SOL     OW30718   3.339   1.341   3.520
 9629SOL    HW130719   3.430   1.328   3.547
 9629SOL    HW230720   3.302   1.253   3.519
 9630SOL     OW30721  11.294  11.426  12.319
 9630SOL    HW130722  11.382  11.463  12.318
 9630SOL    HW230723  11.241  11.491  12.365
 9631SOL     OW30724   9.116  14.533   1.514
 9631SOL    HW130725   9.141  14.601   1.451
 9631SOL    HW230726   9.030  14.560   1.545
 9632SOL     OW30727   9.421   6.379   4.785
 9632SOL    HW130728   9.492   6.426   4.741
 9632SOL    HW230729   9.443   6.286   4.774
 9633SOL     OW30730   8.895  13.043   1.362
 9633SOL    HW130731   8.864  12.964   1.406
 9633SOL    HW230732   8.944  13.011   1.287
 9634SOL     OW30733  10.137  11.824  13.075
 9634SOL    HW130734  10.059  11.869  13.042
 9634SOL    HW230735  10.210  11.877  13.044
 9635SOL     OW30736   7.713   2.610   7.311
 9635SOL    HW130737   7.722   2.672   7.383
 9635SOL    HW230738   7.660   2.655   7.246
 9636SOL     OW30739   0.734  12.099   4.162
 9636SOL    HW130740   0.688  12.025   4.124
 9636SOL    HW230741   0.666  12.151   4.205
 9637SOL     OW30742  12.283   6.023  13.469
 9637SOL    HW130743  12.198   5.983  13.486
 9637SOL    HW230744  12.296   6.015  13.375
 9638SOL     OW30745   5.090   0.139   5.774
 9638SOL    HW130746   4.997   0.162   5.766
 9638SOL    HW230747   5.117   0.180   5.856
 9639SOL     OW30748  14.519   6.751  13.965
 9639SOL    HW130749  14.437   6.766  13.918
 9639SOL    HW230750  14.535   6.832  14.013
 9640SOL     OW30751   6.762   1.246   4.358
 9640SOL    HW130752   6.721   1.160   4.353
 9640SOL    HW230753   6.752   1.282   4.270
 9641SOL     OW30754   6.208   8.554   8.595
 9641SOL    HW130755   6.255   8.584   8.672
 9641SOL    HW230756   6.188   8.462   8.613
 9642SOL     OW30757   7.903   8.391  11.122
 9642SOL    HW130758   7.886   8.319  11.062
 9642SOL    HW230759   7.831   8.389  11.185
 9643SOL     OW30760   7.255   3.752   7.721
 9643SOL    HW130761   7.159   3.747   7.716
 9643SOL    HW230762   7.273   3.844   7.737
 9644SOL     OW30763  13.741   7.652  12.759
 9644SOL    HW130764  13.765   7.570  12.717
 9644SOL    HW230765  13.670   7.687  12.705
 9645SOL     OW30766   9.196   6.868   3.363
 9645SOL    HW130767   9.282   6.840   3.393
 9645SOL    HW230768   9.214   6.928   3.290
 9646SOL     OW30769   4.766   7.146  13.935
 9646SOL    HW130770   4.758   7.231  13.978
 9646SOL    HW230771   4.844   7.107  13.975
 9647SOL     OW30772   5.886  11.856   7.575
 9647SOL    HW130773   5.872  11.784   7.513
 9647SOL    HW230774   5.912  11.812   7.656
 9648SOL     OW30775  12.849   2.773   6.736
 9648SOL    HW130776  12.801   2.855   6.747
 9648SOL    HW230777  12.781   2.709   6.716
 9649SOL     OW30778   9.063   7.235   3.255
 9649SOL    HW130779   9.090   7.181   3.180
 9649SOL    HW230780   9.086   7.324   3.228
 9650SOL     OW30781   2.310  13.682   5.406
 9650SOL    HW130782   2.252  13.619   5.449
 9650SOL    HW230783   2.298  13.763   5.455
 9651SOL     OW30784  10.147   4.764   6.999
 9651SOL    HW130785  10.098   4.846   6.995
 9651SOL    HW230786  10.209   4.770   6.926
 9652SOL     OW30787   9.476   3.930  10.573
 9652SOL    HW130788   9.523   3.850  10.597
 9652SOL    HW230789   9.389   3.919  10.609
 9653SOL     OW30790   1.656  13.341   3.628
 9653SOL    HW130791   1.563  13.325   3.614
 9653SOL    HW230792   1.660  13.429   3.667
 9654SOL     OW30793   6.603  11.126   5.922
 9654SOL    HW130794   6.694  11.157   5.919
 9654SOL    HW230795   6.599  11.075   6.003
 9655SOL     OW30796   0.384  13.004   5.680
 9655SOL    HW130797   0.297  12.970   5.697
 9655SOL    HW230798   0.386  13.019   5.585
 9656SOL     OW30799   7.529   8.815  10.771
 9656SOL    HW130800   7.445   8.860  10.764
 9656SOL    HW230801   7.584   8.875  10.820
 9657SOL     OW30802   2.115   1.189   8.788
 9657SOL    HW130803   2.023   1.198   8.764
 9657SOL    HW230804   2.115   1.197   8.884
 9658SOL     OW30805   5.323  11.390   7.711
 9658SOL    HW130806   5.250  11.375   7.651
 9658SOL    HW230807   5.288  11.454   7.774
 9659SOL     OW30808  10.453   5.475   7.162
 9659SOL    HW130809  10.532   5.454   7.112
 9659SOL    HW230810  10.415   5.550   7.117
 9660SOL     OW30811   9.853  13.086   4.141
 9660SOL    HW130812   9.855  12.991   4.136
 9660SOL    HW230813   9.840  13.116   4.051
 9661SOL     OW30814   9.740  12.894   7.412
 9661SOL    HW130815   9.677  12.834   7.452
 9661SOL    HW230816   9.743  12.968   7.473
 9662SOL     OW30817   5.329   5.096   6.017
 9662SOL    HW130818   5.246   5.078   5.973
 9662SOL    HW230819   5.358   5.180   5.979
 9663SOL     OW30820  13.989   7.835   3.405
 9663SOL    HW130821  14.007   7.753   3.358
 9663SOL    HW230822  13.894   7.837   3.414
 9664SOL     OW30823   4.627  13.527   8.023
 9664SOL    HW130824   4.681  13.496   7.950
 9664SOL    HW230825   4.658  13.617   8.038
 9665SOL     OW30826  10.720   4.853   3.114
 9665SOL    HW130827  10.803   4.818   3.149
 9665SOL    HW230828  10.674   4.886   3.192
 9666SOL     OW30829  13.144   9.263   8.970
 9666SOL    HW130830  13.076   9.292   8.910
 9666SOL    HW230831  13.226   9.285   8.928
 9667SOL     OW30832   6.262  10.861   7.101
 9667SOL    HW130833   6.219  10.776   7.110
 9667SOL    HW230834   6.309  10.855   7.018
 9668SOL     OW30835   7.073  10.417  12.537
 9668SOL    HW130836   7.087  10.409  12.632
 9668SOL    HW230837   7.138  10.358  12.498
 9669SOL     OW30838   9.345   3.314   8.858
 9669SOL    HW130839   9.409   3.250   8.888
 9669SOL    HW230840   9.264   3.263   8.847
 9670SOL     OW30841  10.506   8.311   4.165
 9670SOL    HW130842  10.522   8.395   4.121
 9670SOL    HW230843  10.445   8.333   4.236
 9671SOL     OW30844  12.721   2.290   4.506
 9671SOL    HW130845  12.717   2.290   4.410
 9671SOL    HW230846  12.649   2.347   4.532
 9672SOL     OW30847   0.926   9.983   9.859
 9672SOL    HW130848   0.832   9.964   9.864
 9672SOL    HW230849   0.930  10.074   9.829
 9673SOL     OW30850   6.815   0.287  10.687
 9673SOL    HW130851   6.735   0.324  10.724
 9673SOL    HW230852   6.874   0.279  10.762
 9674SOL     OW30853   9.707   2.050   3.124
 9674SOL    HW130854   9.719   2.125   3.066
 9674SOL    HW230855   9.729   2.083   3.211
 9675SOL     OW30856   4.511   0.407   9.356
 9675SOL    HW130857   4.468   0.421   9.272
 9675SOL    HW230858   4.604   0.399   9.335
 9676SOL     OW30859   2.871  10.598  12.009
 9676SOL    HW130860   2.840  10.517  11.968
 9676SOL    HW230861   2.856  10.585  12.103
 9677SOL     OW30862   6.329   5.751   1.434
 9677SOL    HW130863   6.414   5.770   1.474
 9677SOL    HW230864   6.289   5.836   1.419
 9678SOL     OW30865   6.319   3.965  10.967
 9678SOL    HW130866   6.380   3.972  11.040
 9678SOL    HW230867   6.293   3.873  10.966
 9679SOL     OW30868   5.588   9.938   1.401
 9679SOL    HW130869   5.543   9.943   1.316
 9679SOL    HW230870   5.547  10.007   1.454
 9680SOL     OW30871   4.868   6.896  10.331
 9680SOL    HW130872   4.792   6.846  10.361
 9680SOL    HW230873   4.885   6.959  10.401
 9681SOL     OW30874   7.929  12.680   9.607
 9681SOL    HW130875   7.912  12.597   9.651
 9681SOL    HW230876   7.988  12.658   9.535
 9682SOL     OW30877   5.086   0.671   8.802
 9682SOL    HW130878   5.119   0.761   8.811
 9682SOL    HW230879   5.162   0.616   8.823
 9683SOL     OW30880   7.369  13.808   3.430
 9683SOL    HW130881   7.363  13.714   3.411
 9683SOL    HW230882   7.305  13.848   3.372
 9684SOL     OW30883  11.686  11.677   8.109
 9684SOL    HW130884  11.645  11.594   8.084
 9684SOL    HW230885  11.777  11.653   8.127
 9685SOL     OW30886   2.805  12.678   8.216
 9685SOL    HW130887   2.855  12.653   8.294
 9685SOL    HW230888   2.721  12.708   8.250
 9686SOL     OW30889  14.097   0.045  14.730
 9686SOL    HW130890  14.142  14.852  14.690
 9686SOL    HW230891  14.055   0.009  14.808
 9687SOL     OW30892  13.549   5.802   6.618
 9687SOL    HW130893  13.463   5.827   6.651
 9687SOL    HW230894  13.602   5.787   6.696
 9688SOL     OW30895   6.489  13.110  14.148
 9688SOL    HW130896   6.523  13.194  14.178
 9688SOL    HW230897   6.549  13.045  14.185
 9689SOL     OW30898  11.952   6.628  14.368
 9689SOL    HW130899  12.005   6.624  14.448
 9689SOL    HW230900  11.924   6.538  14.353
 9690SOL     OW30901   1.976  10.560   5.440
 9690SOL    HW130902   1.988  10.568   5.534
 9690SOL    HW230903   1.970  10.650   5.409
 9691SOL     OW30904  13.051  10.576   9.691
 9691SOL    HW130905  13.021  10.568   9.601
 9691SOL    HW230906  12.972  10.564   9.744
 9692SOL     OW30907  13.993  13.789   8.651
 9692SOL    HW130908  13.902  13.797   8.677
 9692SOL    HW230909  13.994  13.811   8.558
 9693SOL     OW30910   5.093   1.214  14.365
 9693SOL    HW130911   5.063   1.206  14.456
 9693SOL    HW230912   5.147   1.293  14.365
 9694SOL     OW30913   5.656   0.940   7.679
 9694SOL    HW130914   5.613   1.009   7.729
 9694SOL    HW230915   5.705   0.986   7.611
 9695SOL     OW30916  10.203   6.547   1.724
 9695SOL    HW130917  10.118   6.550   1.680
 9695SOL    HW230918  10.199   6.471   1.781
 9696SOL     OW30919  10.026  14.474   3.791
 9696SOL    HW130920  10.077  14.403   3.752
 9696SOL    HW230921  10.078  14.552   3.775
 9697SOL     OW30922   4.235   1.088   7.283
 9697SOL    HW130923   4.251   1.174   7.321
 9697SOL    HW230924   4.309   1.035   7.312
 9698SOL     OW30925  13.080  10.822   3.551
 9698SOL    HW130926  13.144  10.884   3.515
 9698SOL    HW230927  13.039  10.783   3.475
 9699SOL     OW30928   2.592   6.394   4.219
 9699SOL    HW130929   2.588   6.341   4.140
 9699SOL    HW230930   2.565   6.482   4.191
 9700SOL     OW30931   9.526   9.822   4.345
 9700SOL    HW130932   9.564   9.862   4.266
 9700SOL    HW230933   9.434   9.809   4.323
 9701SOL     OW30934  12.037  13.284  13.491
 9701SOL    HW130935  11.974  13.314  13.425
 9701SOL    HW230936  12.105  13.351  13.491
 9702SOL     OW30937  13.366   1.647   0.384
 9702SOL    HW130938  13.391   1.703   0.457
 9702SOL    HW230939  13.318   1.575   0.424
 9703SOL     OW30940  12.130   9.627   2.865
 9703SOL    HW130941  12.080   9.702   2.897
 9703SOL    HW230942  12.123   9.631   2.770
 9704SOL     OW30943   3.209   8.575  14.863
 9704SOL    HW130944   3.301   8.600  14.858
 9704SOL    HW230945   3.204   8.492  14.816
 9705SOL     OW30946  12.923  13.400  14.644
 9705SOL    HW130947  12.838  13.440  14.622
 9705SOL    HW230948  12.908  13.357  14.728
 9706SOL     OW30949  11.360  10.124  13.655
 9706SOL    HW130950  11.394  10.035  13.656
 9706SOL    HW230951  11.283  10.121  13.712
 9707SOL     OW30952  12.944   0.397   4.271
 9707SOL    HW130953  12.875   0.451   4.233
 9707SOL    HW230954  13.017   0.458   4.285
 9708SOL     OW30955   6.034   9.213  11.098
 9708SOL    HW130956   6.046   9.146  11.031
 9708SOL    HW230957   6.041   9.296  11.052
 9709SOL     OW30958   6.710   7.910   8.952
 9709SOL    HW130959   6.673   7.998   8.960
 9709SOL    HW230960   6.738   7.888   9.041
 9710SOL     OW30961  12.014  12.675   9.570
 9710SOL    HW130962  12.008  12.688   9.476
 9710SOL    HW230963  12.073  12.600   9.580
 9711SOL     OW30964  14.518   1.309   7.982
 9711SOL    HW130965  14.587   1.367   7.950
 9711SOL    HW230966  14.445   1.324   7.922
 9712SOL     OW30967  10.276   7.966   0.453
 9712SOL    HW130968  10.232   7.887   0.422
 9712SOL    HW230969  10.233   8.038   0.406
 9713SOL     OW30970  12.473   1.912   4.312
 9713SOL    HW130971  12.413   1.853   4.266
 9713SOL    HW230972  12.422   1.992   4.325
 9714SOL     OW30973  14.211  12.299  12.443
 9714SOL    HW130974  14.184  12.256  12.362
 9714SOL    HW230975  14.178  12.243  12.513
 9715SOL     OW30976   3.833   4.803   2.556
 9715SOL    HW130977   3.858   4.766   2.641
 9715SOL    HW230978   3.768   4.742   2.522
 9716SOL     OW30979   7.720   5.526  11.227
 9716SOL    HW130980   7.631   5.559  11.213
 9716SOL    HW230981   7.776   5.603  11.215
 9717SOL     OW30982  11.160   3.851   8.738
 9717SOL    HW130983  11.124   3.829   8.824
 9717SOL    HW230984  11.167   3.947   8.740
 9718SOL     OW30985  11.338   2.959   8.467
 9718SOL    HW130986  11.306   3.017   8.535
 9718SOL    HW230987  11.417   3.001   8.434
 9719SOL     OW30988   7.872   9.920   7.785
 9719SOL    HW130989   7.818   9.887   7.857
 9719SOL    HW230990   7.818   9.984   7.741
 9720SOL     OW30991   4.806   5.119  14.287
 9720SOL    HW130992   4.711   5.111  14.274
 9720SOL    HW230993   4.815   5.127  14.382
 9721SOL     OW30994   6.002   7.676   9.933
 9721SOL    HW130995   5.991   7.598   9.878
 9721SOL    HW230996   5.970   7.649  10.019
 9722SOL     OW30997  12.869   6.418  12.919
 9722SOL    HW130998  12.854   6.327  12.945
 9722SOL    HW230999  12.927   6.453  12.987
 9723SOL     OW31000   6.952   8.072  11.439
 9723SOL    HW131001   6.996   7.990  11.464
 9723SOL    HW231002   6.962   8.129  11.515
 9724SOL     OW31003   0.841   9.533  13.100
 9724SOL    HW131004   0.781   9.581  13.042
 9724SOL    HW231005   0.923   9.582  13.095
 9725SOL     OW31006  10.386   3.961  11.378
 9725SOL    HW131007  10.371   3.923  11.292
 9725SOL    HW231008  10.468   3.921  11.407
 9726SOL     OW31009   8.430  13.329  11.189
 9726SOL    HW131010   8.512  13.371  11.163
 9726SOL    HW231011   8.362  13.384  11.150
 9727SOL     OW31012   9.597  13.370   6.072
 9727SOL    HW131013   9.677  13.335   6.033
 9727SOL    HW231014   9.530  13.304   6.054
 9728SOL     OW31015   7.484   0.897  10.324
 9728SOL    HW131016   7.485   0.963  10.255
 9728SOL    HW231017   7.406   0.844  10.307
 9729SOL     OW31018   6.645   3.686   1.538
 9729SOL    HW131019   6.695   3.708   1.459
 9729SOL    HW231020   6.555   3.709   1.516
 9730SOL     OW31021   7.526   7.984   0.603
 9730SOL    HW131022   7.432   7.989   0.621
 9730SOL    HW231023   7.532   7.964   0.509
 9731SOL     OW31024   9.281   7.082  14.134
 9731SOL    HW131025   9.337   7.022  14.182
 9731SOL    HW231026   9.256   7.035  14.055
 9732SOL     OW31027   5.579   4.325  10.746
 9732SOL    HW131028   5.645   4.261  10.771
 9732SOL    HW231029   5.571   4.315  10.651
 9733SOL     OW31030  13.643  14.150   1.397
 9733SOL    HW131031  13.563  14.166   1.447
 9733SOL    HW231032  13.650  14.226   1.340
 9734SOL     OW31033   6.276   6.312   3.601
 9734SOL    HW131034   6.311   6.398   3.583
 9734SOL    HW231035   6.223   6.324   3.680
 9735SOL     OW31036   9.495  13.263   5.130
 9735SOL    HW131037   9.495  13.171   5.156
 9735SOL    HW231038   9.416  13.300   5.171
 9736SOL     OW31039  13.037   9.271   6.669
 9736SOL    HW131040  12.957   9.225   6.693
 9736SOL    HW231041  13.047   9.254   6.575
 9737SOL     OW31042   0.455   3.421   0.710
 9737SOL    HW131043   0.387   3.368   0.668
 9737SOL    HW231044   0.487   3.478   0.640
 9738SOL     OW31045   9.018  12.296   0.590
 9738SOL    HW131046   9.112  12.299   0.572
 9738SOL    HW231047   8.976  12.312   0.505
 9739SOL     OW31048   6.556  11.808   1.057
 9739SOL    HW131049   6.543  11.825   1.151
 9739SOL    HW231050   6.602  11.724   1.055
 9740SOL     OW31051   3.722   2.830  10.412
 9740SOL    HW131052   3.674   2.912  10.415
 9740SOL    HW231053   3.729   2.809  10.319
 9741SOL     OW31054  14.206   4.430   9.411
 9741SOL    HW131055  14.144   4.501   9.431
 9741SOL    HW231056  14.205   4.375   9.489
 9742SOL     OW31057   4.646   2.022   3.510
 9742SOL    HW131058   4.576   2.008   3.446
 9742SOL    HW231059   4.721   1.974   3.475
 9743SOL     OW31060   0.887  14.188   0.575
 9743SOL    HW131061   0.868  14.096   0.557
 9743SOL    HW231062   0.803  14.232   0.563
 9744SOL     OW31063   4.180   0.982   3.338
 9744SOL    HW131064   4.180   1.030   3.256
 9744SOL    HW231065   4.126   1.034   3.397
 9745SOL     OW31066  10.148  13.693   7.406
 9745SOL    HW131067  10.165  13.769   7.350
 9745SOL    HW231068  10.176  13.720   7.493
 9746SOL     OW31069   2.441   3.287  14.267
 9746SOL    HW131070   2.464   3.223  14.200
 9746SOL    HW231071   2.511   3.282  14.331
 9747SOL     OW31072   8.988  14.694  12.232
 9747SOL    HW131073   9.018  14.631  12.298
 9747SOL    HW231074   8.920  14.648  12.183
 9748SOL     OW31075   0.893   5.740   0.732
 9748SOL    HW131076   0.874   5.711   0.821
 9748SOL    HW231077   0.864   5.831   0.729
 9749SOL     OW31078   4.203   2.198   9.261
 9749SOL    HW131079   4.255   2.124   9.230
 9749SOL    HW231080   4.114   2.164   9.267
 9750SOL     OW31081   1.126   5.681   6.483
 9750SOL    HW131082   1.157   5.730   6.407
 9750SOL    HW231083   1.205   5.654   6.529
 9751SOL     OW31084   5.640   8.558  10.604
 9751SOL    HW131085   5.627   8.542  10.698
 9751SOL    HW231086   5.552   8.551  10.566
 9752SOL     OW31087  10.794  13.917  10.249
 9752SOL    HW131088  10.795  13.932  10.154
 9752SOL    HW231089  10.886  13.919  10.275
 9753SOL     OW31090   1.626   8.921  10.561
 9753SOL    HW131091   1.645   8.837  10.519
 9753SOL    HW231092   1.613   8.899  10.653
 9754SOL     OW31093  10.596   6.821  10.108
 9754SOL    HW131094  10.608   6.752  10.173
 9754SOL    HW231095  10.625   6.901  10.152
 9755SOL     OW31096   8.018   2.327   1.040
 9755SOL    HW131097   8.098   2.325   0.987
 9755SOL    HW231098   8.006   2.237   1.069
 9756SOL     OW31099   1.569  10.931  12.353
 9756SOL    HW131100   1.529  10.956  12.436
 9756SOL    HW231101   1.557  10.836  12.349
 9757SOL     OW31102  11.690  12.217   2.237
 9757SOL    HW131103  11.668  12.173   2.155
 9757SOL    HW231104  11.760  12.163   2.275
 9758SOL     OW31105   8.961   3.262   9.387
 9758SOL    HW131106   9.009   3.188   9.349
 9758SOL    HW231107   8.870   3.246   9.364
 9759SOL     OW31108   1.035   0.782   5.570
 9759SOL    HW131109   0.940   0.773   5.581
 9759SOL    HW231110   1.071   0.771   5.658
 9760SOL     OW31111   7.272  10.095   7.019
 9760SOL    HW131112   7.330  10.169   7.000
 9760SOL    HW231113   7.328  10.018   7.013
 9761SOL     OW31114   6.649  12.971  12.527
 9761SOL    HW131115   6.588  12.948  12.456
 9761SOL    HW231116   6.709  12.897  12.531
 9762SOL     OW31117   0.870  13.449   9.432
 9762SOL    HW131118   0.938  13.409   9.378
 9762SOL    HW231119   0.810  13.490   9.369
 9763SOL     OW31120   9.380  12.343   4.734
 9763SOL    HW131121   9.384  12.378   4.823
 9763SOL    HW231122   9.363  12.420   4.679
 9764SOL     OW31123  11.041   8.223  12.983
 9764SOL    HW131124  11.119   8.248  12.934
 9764SOL    HW231125  11.074   8.193  13.068
 9765SOL     OW31126   6.674   3.061   1.584
 9765SOL    HW131127   6.583   3.088   1.597
 9765SOL    HW231128   6.708   3.047   1.672
 9766SOL     OW31129  11.893   0.743   2.293
 9766SOL    HW131130  11.908   0.758   2.200
 9766SOL    HW231131  11.980   0.731   2.330
 9767SOL     OW31132   6.453   8.659   2.295
 9767SOL    HW131133   6.468   8.744   2.336
 9767SOL    HW231134   6.360   8.642   2.309
 9768SOL     OW31135   2.729  14.757   5.032
 9768SOL    HW131136   2.782  14.770   4.954
 9768SOL    HW231137   2.643  14.730   4.999
 9769SOL     OW31138  13.468   9.031   6.420
 9769SOL    HW131139  13.407   9.101   6.394
 9769SOL    HW231140  13.461   9.028   6.515
 9770SOL     OW31141  12.582   8.987   5.602
 9770SOL    HW131142  12.514   8.920   5.607
 9770SOL    HW231143  12.628   8.980   5.685
 9771SOL     OW31144   7.113  13.289   2.644
 9771SOL    HW131145   7.089  13.357   2.707
 9771SOL    HW231146   7.153  13.336   2.572
 9772SOL     OW31147   4.291  10.112   3.338
 9772SOL    HW131148   4.282  10.098   3.244
 9772SOL    HW231149   4.350  10.187   3.347
 9773SOL     OW31150   8.511  10.500   9.788
 9773SOL    HW131151   8.582  10.478   9.849
 9773SOL    HW231152   8.534  10.587   9.755
 9774SOL     OW31153  14.296  11.455   5.161
 9774SOL    HW131154  14.324  11.455   5.070
 9774SOL    HW231155  14.358  11.398   5.206
 9775SOL     OW31156   2.413   3.820   3.992
 9775SOL    HW131157   2.470   3.835   4.067
 9775SOL    HW231158   2.341   3.882   4.004
 9776SOL     OW31159   5.163  12.547   9.955
 9776SOL    HW131160   5.114  12.511   9.881
 9776SOL    HW231161   5.238  12.490   9.966
 9777SOL     OW31162   7.078   9.237   6.938
 9777SOL    HW131163   7.084   9.253   7.032
 9777SOL    HW231164   6.999   9.284   6.911
 9778SOL     OW31165   0.856   4.653   3.699
 9778SOL    HW131166   0.811   4.626   3.779
 9778SOL    HW231167   0.788   4.652   3.632
 9779SOL     OW31168  11.984   4.934  14.082
 9779SOL    HW131169  11.928   4.872  14.128
 9779SOL    HW231170  11.930   5.012  14.072
 9780SOL     OW31171   5.004   1.912   5.926
 9780SOL    HW131172   4.928   1.894   5.870
 9780SOL    HW231173   5.067   1.955   5.868
 9781SOL     OW31174   0.349   9.583   5.191
 9781SOL    HW131175   0.433   9.620   5.168
 9781SOL    HW231176   0.334   9.613   5.281
 9782SOL     OW31177   8.491  10.977   4.187
 9782SOL    HW131178   8.411  10.927   4.173
 9782SOL    HW231179   8.562  10.916   4.168
 9783SOL     OW31180   8.997   7.815   1.528
 9783SOL    HW131181   9.036   7.740   1.572
 9783SOL    HW231182   8.904   7.793   1.518
 9784SOL     OW31183  14.594   3.833  11.653
 9784SOL    HW131184  14.572   3.740  11.654
 9784SOL    HW231185  14.683   3.837  11.618
 9785SOL     OW31186   7.989   4.835  11.278
 9785SOL    HW131187   8.035   4.767  11.228
 9785SOL    HW231188   7.995   4.912  11.222
 9786SOL     OW31189  12.321  13.399   4.504
 9786SOL    HW131190  12.328  13.495   4.510
 9786SOL    HW231191  12.390  13.366   4.561
 9787SOL     OW31192  12.317  10.064   0.420
 9787SOL    HW131193  12.306  10.005   0.494
 9787SOL    HW231194  12.341  10.148   0.460
 9788SOL     OW31195  11.952   4.280   5.144
 9788SOL    HW131196  11.871   4.231   5.131
 9788SOL    HW231197  12.021   4.214   5.146
 9789SOL     OW31198   9.399  10.456  13.523
 9789SOL    HW131199   9.340  10.388  13.558
 9789SOL    HW231200   9.375  10.534  13.573
 9790SOL     OW31201  13.068   8.605   7.639
 9790SOL    HW131202  13.128   8.590   7.712
 9790SOL    HW231203  13.115   8.664   7.580
 9791SOL     OW31204   0.237  13.456   7.177
 9791SOL    HW131205   0.170  13.477   7.242
 9791SOL    HW231206   0.190  13.453   7.094
 9792SOL     OW31207   2.766  12.579   0.050
 9792SOL    HW131208   2.845  12.631   0.066
 9792SOL    HW231209   2.705  12.640   0.007
 9793SOL     OW31210  11.644   0.653   7.046
 9793SOL    HW131211  11.706   0.717   7.081
 9793SOL    HW231212  11.687   0.618   6.968
 9794SOL     OW31213   0.443   4.675   7.318
 9794SOL    HW131214   0.442   4.626   7.236
 9794SOL    HW231215   0.518   4.734   7.310
 9795SOL     OW31216   1.125   5.086   9.172
 9795SOL    HW131217   1.167   5.000   9.177
 9795SOL    HW231218   1.051   5.073   9.113
 9796SOL     OW31219   8.766   9.457  13.597
 9796SOL    HW131220   8.752   9.464  13.691
 9796SOL    HW231221   8.846   9.507  13.580
 9797SOL     OW31222  14.067  10.377   6.598
 9797SOL    HW131223  14.079  10.467   6.630
 9797SOL    HW231224  14.004  10.339   6.659
 9798SOL     OW31225  12.102   4.470   9.773
 9798SOL    HW131226  12.190   4.496   9.747
 9798SOL    HW231227  12.054   4.552   9.781
 9799SOL     OW31228  13.780   6.480   2.004
 9799SOL    HW131229  13.766   6.422   2.078
 9799SOL    HW231230  13.853   6.442   1.955
 9800SOL     OW31231   8.186   5.026   3.275
 9800SOL    HW131232   8.198   4.972   3.196
 9800SOL    HW231233   8.269   5.073   3.285
 9801SOL     OW31234   3.737  13.694   6.428
 9801SOL    HW131235   3.662  13.638   6.448
 9801SOL    HW231236   3.723  13.772   6.480
 9802SOL     OW31237   6.449  10.995   7.484
 9802SOL    HW131238   6.502  11.065   7.446
 9802SOL    HW231239   6.512  10.925   7.502
 9803SOL     OW31240   1.095   0.171   6.460
 9803SOL    HW131241   1.081   0.235   6.530
 9803SOL    HW231242   1.186   0.183   6.433
 9804SOL     OW31243  13.512  12.463   3.653
 9804SOL    HW131244  13.548  12.505   3.731
 9804SOL    HW231245  13.549  12.512   3.579
 9805SOL     OW31246   2.619  13.230  12.789
 9805SOL    HW131247   2.714  13.220  12.779
 9805SOL    HW231248   2.598  13.311  12.744
 9806SOL     OW31249  13.738   6.262   4.597
 9806SOL    HW131250  13.780   6.179   4.575
 9806SOL    HW231251  13.808   6.316   4.633
 9807SOL     OW31252   7.744   9.469   8.953
 9807SOL    HW131253   7.810   9.401   8.945
 9807SOL    HW231254   7.792   9.545   8.985
 9808SOL     OW31255   5.079   5.755   3.460
 9808SOL    HW131256   5.021   5.721   3.391
 9808SOL    HW231257   5.130   5.679   3.488
 9809SOL     OW31258   4.796   8.104  12.893
 9809SOL    HW131259   4.729   8.106  12.960
 9809SOL    HW231260   4.748   8.110  12.810
 9810SOL     OW31261   4.894  13.108   1.840
 9810SOL    HW131262   4.916  13.040   1.776
 9810SOL    HW231263   4.978  13.131   1.880
 9811SOL     OW31264   7.743   6.139   6.008
 9811SOL    HW131265   7.742   6.080   5.933
 9811SOL    HW231266   7.658   6.125   6.051
 9812SOL     OW31267   4.223   6.161   0.210
 9812SOL    HW131268   4.216   6.066   0.207
 9812SOL    HW231269   4.231   6.188   0.119
 9813SOL     OW31270  10.546   7.354   0.917
 9813SOL    HW131271  10.529   7.262   0.938
 9813SOL    HW231272  10.609   7.382   0.983
 9814SOL     OW31273   0.630   2.322   5.571
 9814SOL    HW131274   0.663   2.291   5.655
 9814SOL    HW231275   0.551   2.373   5.593
 9815SOL     OW31276   9.744   9.303  11.368
 9815SOL    HW131277   9.693   9.369  11.322
 9815SOL    HW231278   9.746   9.228  11.308
 9816SOL     OW31279   8.303  12.281  12.592
 9816SOL    HW131280   8.332  12.329  12.515
 9816SOL    HW231281   8.348  12.322  12.666
 9817SOL     OW31282   9.913  13.339  14.255
 9817SOL    HW131283   9.965  13.319  14.176
 9817SOL    HW231284   9.828  13.298  14.238
 9818SOL     OW31285   1.098  11.507  13.458
 9818SOL    HW131286   1.048  11.520  13.539
 9818SOL    HW231287   1.099  11.412  13.446
 9819SOL     OW31288  13.760   2.071   4.118
 9819SOL    HW131289  13.720   2.154   4.093
 9819SOL    HW231290  13.844   2.096   4.156
 9820SOL     OW31291   9.572  10.055   2.557
 9820SOL    HW131292   9.565  10.119   2.628
 9820SOL    HW231293   9.528   9.977   2.591
 9821SOL     OW31294  14.312   4.248   7.216
 9821SOL    HW131295  14.401   4.281   7.204
 9821SOL    HW231296  14.308   4.223   7.309
 9822SOL     OW31297  11.455   1.291   0.157
 9822SOL    HW131298  11.370   1.335   0.160
 9822SOL    HW231299  11.503   1.337   0.088
 9823SOL     OW31300  14.025  14.411  10.134
 9823SOL    HW131301  13.994  14.338  10.081
 9823SOL    HW231302  14.080  14.462  10.075
 9824SOL     OW31303  10.790  14.215  12.803
 9824SOL    HW131304  10.781  14.147  12.869
 9824SOL    HW231305  10.838  14.173  12.732
 9825SOL     OW31306  12.605  14.862   2.368
 9825SOL    HW131307  12.559  14.835   2.289
 9825SOL    HW231308  12.599  14.787   2.427
 9826SOL     OW31309   4.730   3.083   6.229
 9826SOL    HW131310   4.637   3.061   6.232
 9826SOL    HW231311   4.753   3.108   6.318
 9827SOL     OW31312   5.079   5.569   1.298
 9827SOL    HW131313   5.011   5.548   1.363
 9827SOL    HW231314   5.037   5.630   1.238
 9828SOL     OW31315   9.667   4.513   0.234
 9828SOL    HW131316   9.630   4.425   0.240
 9828SOL    HW231317   9.638   4.557   0.313
 9829SOL     OW31318   0.366   0.022   3.732
 9829SOL    HW131319   0.343  14.852   3.809
 9829SOL    HW231320   0.371  14.840   3.661
 9830SOL     OW31321   4.580  10.018   5.808
 9830SOL    HW131322   4.652  10.023   5.747
 9830SOL    HW231323   4.598  10.086   5.873
 9831SOL     OW31324   7.401   3.808  10.141
 9831SOL    HW131325   7.463   3.759  10.195
 9831SOL    HW231326   7.441   3.895  10.133
 9832SOL     OW31327  12.477   2.473   6.994
 9832SOL    HW131328  12.550   2.468   7.055
 9832SOL    HW231329  12.479   2.390   6.947
 9833SOL     OW31330  11.495   4.318   4.541
 9833SOL    HW131331  11.540   4.238   4.514
 9833SOL    HW231332  11.470   4.303   4.632
 9834SOL     OW31333  11.094   3.887  14.259
 9834SOL    HW131334  11.035   3.811  14.261
 9834SOL    HW231335  11.181   3.849  14.246
 9835SOL     OW31336  13.158  12.675   8.648
 9835SOL    HW131337  13.165  12.629   8.731
 9835SOL    HW231338  13.161  12.768   8.672
 9836SOL     OW31339   7.296   8.110  14.402
 9836SOL    HW131340   7.300   8.205  14.413
 9836SOL    HW231341   7.371   8.090  14.345
 9837SOL     OW31342  11.320  14.504   7.329
 9837SOL    HW131343  11.341  14.413   7.352
 9837SOL    HW231344  11.257  14.497   7.258
 9838SOL     OW31345   1.089   1.652   5.837
 9838SOL    HW131346   1.100   1.622   5.928
 9838SOL    HW231347   1.123   1.580   5.784
 9839SOL     OW31348  13.966  13.300  11.697
 9839SOL    HW131349  13.996  13.213  11.722
 9839SOL    HW231350  14.023  13.360  11.744
 9840SOL     OW31351   4.212   0.380  10.293
 9840SOL    HW131352   4.148   0.386  10.364
 9840SOL    HW231353   4.204   0.290  10.262
 9841SOL     OW31354   1.389   7.186  10.479
 9841SOL    HW131355   1.347   7.165  10.395
 9841SOL    HW231356   1.449   7.258  10.458
 9842SOL     OW31357   1.673   7.086   6.789
 9842SOL    HW131358   1.728   7.016   6.823
 9842SOL    HW231359   1.734   7.154   6.762
 9843SOL     OW31360  10.012   9.180  11.316
 9843SOL    HW131361  10.077   9.246  11.294
 9843SOL    HW231362   9.962   9.218  11.388
 9844SOL     OW31363  12.266   8.087   1.052
 9844SOL    HW131364  12.231   8.104   0.965
 9844SOL    HW231365  12.220   8.149   1.109
 9845SOL     OW31366   3.420  13.598   9.446
 9845SOL    HW131367   3.339  13.577   9.400
 9845SOL    HW231368   3.393  13.609   9.537
 9846SOL     OW31369  14.420   5.043   8.091
 9846SOL    HW131370  14.342   5.097   8.090
 9846SOL    HW231371  14.388   4.954   8.079
 9847SOL     OW31372   7.533  13.406  10.462
 9847SOL    HW131373   7.548  13.353  10.383
 9847SOL    HW231374   7.581  13.360  10.531
 9848SOL     OW31375   0.491   1.997  12.936
 9848SOL    HW131376   0.421   2.004  13.002
 9848SOL    HW231377   0.497   1.904  12.916
 9849SOL     OW31378   0.274   6.454  10.914
 9849SOL    HW131379   0.251   6.535  10.959
 9849SOL    HW231380   0.362   6.469  10.880
 9850SOL     OW31381  10.838  11.349   2.132
 9850SOL    HW131382  10.916  11.294   2.131
 9850SOL    HW231383  10.800  11.336   2.219
 9851SOL     OW31384  12.624   0.764   6.506
 9851SOL    HW131385  12.617   0.669   6.500
 9851SOL    HW231386  12.552   0.797   6.453
 9852SOL     OW31387  10.768  14.747   6.776
 9852SOL    HW131388  10.849  14.793   6.755
 9852SOL    HW231389  10.745  14.702   6.694
 9853SOL     OW31390   7.098  13.730  12.718
 9853SOL    HW131391   7.174  13.675  12.735
 9853SOL    HW231392   7.131  13.802  12.664
 9854SOL     OW31393  13.263   6.458  11.501
 9854SOL    HW131394  13.280   6.496  11.587
 9854SOL    HW231395  13.300   6.520  11.438
 9855SOL     OW31396  11.179   7.877   9.409
 9855SOL    HW131397  11.182   7.966   9.373
 9855SOL    HW231398  11.109   7.882   9.475
 9856SOL     OW31399  12.632   2.591   2.632
 9856SOL    HW131400  12.719   2.555   2.648
 9856SOL    HW231401  12.619   2.581   2.537
 9857SOL     OW31402   9.132   4.593  12.211
 9857SOL    HW131403   9.125   4.663  12.276
 9857SOL    HW231404   9.109   4.635  12.128
 9858SOL     OW31405   8.578   3.117  13.705
 9858SOL    HW131406   8.614   3.091  13.620
 9858SOL    HW231407   8.653   3.156  13.751
 9859SOL     OW31408  13.866   3.233   4.797
 9859SOL    HW131409  13.947   3.182   4.798
 9859SOL    HW231410  13.888   3.313   4.845
 9860SOL     OW31411   4.200  13.189  13.429
 9860SOL    HW131412   4.113  13.151  13.419
 9860SOL    HW231413   4.186  13.283  13.428
 9861SOL     OW31414   8.973   6.966   1.494
 9861SOL    HW131415   8.898   7.011   1.532
 9861SOL    HW231416   8.946   6.874   1.489
 9862SOL     OW31417   1.847  13.212   6.952
 9862SOL    HW131418   1.902  13.255   7.018
 9862SOL    HW231419   1.798  13.146   7.002
 9863SOL     OW31420  11.040  10.842   2.379
 9863SOL    HW131421  11.081  10.928   2.388
 9863SOL    HW231422  11.090  10.799   2.309
 9864SOL     OW31423   5.482  11.792   0.433
 9864SOL    HW131424   5.431  11.847   0.375
 9864SOL    HW231425   5.497  11.711   0.384
 9865SOL     OW31426   7.160   4.332   4.000
 9865SOL    HW131427   7.103   4.385   4.056
 9865SOL    HW231428   7.173   4.385   3.921
 9866SOL     OW31429  14.876   9.829  11.190
 9866SOL    HW131430  14.838   9.809  11.104
 9866SOL    HW231431   0.002   9.924  11.191
 9867SOL     OW31432  14.457   6.085  10.297
 9867SOL    HW131433  14.468   6.074  10.202
 9867SOL    HW231434  14.489   6.174  10.314
 9868SOL     OW31435   9.226  13.979   9.854
 9868SOL    HW131436   9.204  13.950   9.766
 9868SOL    HW231437   9.309  14.026   9.844
 9869SOL     OW31438   1.273  14.429   1.634
 9869SOL    HW131439   1.323  14.472   1.703
 9869SOL    HW231440   1.195  14.397   1.677
 9870SOL     OW31441  14.503  13.720   3.518
 9870SOL    HW131442  14.476  13.807   3.549
 9870SOL    HW231443  14.534  13.735   3.429
 9871SOL     OW31444  11.162   7.687   0.421
 9871SOL    HW131445  11.082   7.653   0.461
 9871SOL    HW231446  11.207   7.610   0.387
 9872SOL     OW31447   9.546  11.088  13.838
 9872SOL    HW131448   9.567  11.001  13.873
 9872SOL    HW231449   9.630  11.122  13.808
 9873SOL     OW31450   5.622  12.353   4.527
 9873SOL    HW131451   5.695  12.414   4.517
 9873SOL    HW231452   5.628  12.323   4.617
 9874SOL     OW31453   7.226   9.023  12.071
 9874SOL    HW131454   7.286   9.024  12.146
 9874SOL    HW231455   7.279   9.051  11.997
 9875SOL     OW31456  12.979   7.186  10.267
 9875SOL    HW131457  12.945   7.256  10.322
 9875SOL    HW231458  12.964   7.106  10.319
 9876SOL     OW31459  10.933  12.836   1.535
 9876SOL    HW131460  11.015  12.862   1.494
 9876SOL    HW231461  10.958  12.764   1.594
 9877SOL     OW31462  13.429   9.432   2.548
 9877SOL    HW131463  13.360   9.395   2.492
 9877SOL    HW231464  13.500   9.369   2.542
 9878SOL     OW31465   3.591   7.535  10.135
 9878SOL    HW131466   3.673   7.518  10.181
 9878SOL    HW231467   3.524   7.494  10.191
 9879SOL     OW31468   3.898  12.849   5.083
 9879SOL    HW131469   3.951  12.923   5.115
 9879SOL    HW231470   3.814  12.859   5.128
 9880SOL     OW31471   1.216  10.603  10.070
 9880SOL    HW131472   1.286  10.620  10.132
 9880SOL    HW231473   1.149  10.557  10.121
 9881SOL     OW31474   9.932   4.542  11.026
 9881SOL    HW131475   9.846   4.501  11.013
 9881SOL    HW231476   9.956   4.518  11.115
 9882SOL     OW31477  12.858   4.785   2.837
 9882SOL    HW131478  12.945   4.783   2.796
 9882SOL    HW231479  12.803   4.831   2.773
 9883SOL     OW31480   6.586   3.609   4.900
 9883SOL    HW131481   6.495   3.630   4.877
 9883SOL    HW231482   6.611   3.678   4.962
 9884SOL     OW31483   4.344   4.013   5.224
 9884SOL    HW131484   4.251   3.999   5.206
 9884SOL    HW231485   4.346   4.092   5.278
 9885SOL     OW31486   1.769   5.355   4.327
 9885SOL    HW131487   1.776   5.344   4.232
 9885SOL    HW231488   1.675   5.366   4.344
 9886SOL     OW31489  10.739   8.936  11.232
 9886SOL    HW131490  10.770   8.909  11.318
 9886SOL    HW231491  10.819   8.947  11.180
 9887SOL     OW31492  11.473  11.031   7.685
 9887SOL    HW131493  11.566  11.009   7.695
 9887SOL    HW231494  11.438  10.964   7.627
 9888SOL     OW31495  12.713   2.802   0.862
 9888SOL    HW131496  12.691   2.892   0.838
 9888SOL    HW231497  12.630   2.755   0.858
 9889SOL     OW31498   1.495   8.024  10.164
 9889SOL    HW131499   1.503   7.934  10.132
 9889SOL    HW231500   1.569   8.070  10.126
 9890SOL     OW31501   8.547  11.785   5.900
 9890SOL    HW131502   8.458  11.761   5.928
 9890SOL    HW231503   8.557  11.876   5.929
 9891SOL     OW31504   1.914   9.171   9.031
 9891SOL    HW131505   1.938   9.086   8.992
 9891SOL    HW231506   1.967   9.177   9.110
 9892SOL     OW31507   3.931   2.058  13.610
 9892SOL    HW131508   3.958   2.132  13.556
 9892SOL    HW231509   3.835   2.060  13.608
 9893SOL     OW31510   0.628   0.529   4.746
 9893SOL    HW131511   0.543   0.488   4.728
 9893SOL    HW231512   0.692   0.459   4.728
 9894SOL     OW31513   8.471   1.617  10.533
 9894SOL    HW131514   8.552   1.588  10.492
 9894SOL    HW231515   8.448   1.545  10.592
 9895SOL     OW31516  13.092  13.330  13.292
 9895SOL    HW131517  13.135  13.270  13.231
 9895SOL    HW231518  13.163  13.382  13.329
 9896SOL     OW31519   5.184   4.112  12.844
 9896SOL    HW131520   5.121   4.075  12.781
 9896SOL    HW231521   5.205   4.040  12.903
 9897SOL     OW31522   2.326   3.196  10.967
 9897SOL    HW131523   2.407   3.241  10.988
 9897SOL    HW231524   2.257   3.259  10.986
 9898SOL     OW31525   1.407   0.643  12.727
 9898SOL    HW131526   1.403   0.596  12.644
 9898SOL    HW231527   1.498   0.672  12.735
 9899SOL     OW31528  12.394   5.446  11.778
 9899SOL    HW131529  12.306   5.429  11.745
 9899SOL    HW231530  12.380   5.496  11.859
 9900SOL     OW31531  13.312   1.575   3.875
 9900SOL    HW131532  13.382   1.520   3.839
 9900SOL    HW231533  13.354   1.659   3.894
 9901SOL     OW31534  13.783  11.185   7.580
 9901SOL    HW131535  13.863  11.236   7.593
 9901SOL    HW231536  13.751  11.211   7.494
 9902SOL     OW31537   5.392   9.172   9.202
 9902SOL    HW131538   5.322   9.236   9.193
 9902SOL    HW231539   5.348   9.087   9.201
 9903SOL     OW31540   7.778   3.591  13.298
 9903SOL    HW131541   7.797   3.503  13.265
 9903SOL    HW231542   7.862   3.623  13.331
 9904SOL     OW31543   0.351  13.346   3.073
 9904SOL    HW131544   0.347  13.309   3.161
 9904SOL    HW231545   0.445  13.349   3.053
 9905SOL     OW31546  11.942   1.564   3.967
 9905SOL    HW131547  11.953   1.590   3.876
 9905SOL    HW231548  11.946   1.647   4.016
 9906SOL     OW31549   5.522   3.226  12.622
 9906SOL    HW131550   5.433   3.223  12.590
 9906SOL    HW231551   5.521   3.172  12.701
 9907SOL     OW31552  12.996   6.271   4.882
 9907SOL    HW131553  13.005   6.180   4.854
 9907SOL    HW231554  12.940   6.311   4.815
 9908SOL     OW31555   2.006   0.138   3.309
 9908SOL    HW131556   2.032   0.214   3.360
 9908SOL    HW231557   2.073   0.073   3.326
 9909SOL     OW31558   8.439  12.477   9.856
 9909SOL    HW131559   8.488  12.421   9.796
 9909SOL    HW231560   8.507  12.518   9.910
 9910SOL     OW31561   6.876  12.986   7.174
 9910SOL    HW131562   6.869  13.055   7.240
 9910SOL    HW231563   6.824  13.018   7.100
 9911SOL     OW31564   7.197  14.564   6.914
 9911SOL    HW131565   7.170  14.472   6.906
 9911SOL    HW231566   7.125  14.613   6.873
 9912SOL     OW31567   3.506   7.847   5.489
 9912SOL    HW131568   3.577   7.873   5.548
 9912SOL    HW231569   3.485   7.757   5.514
 9913SOL     OW31570  10.535   9.729   3.441
 9913SOL    HW131571  10.565   9.646   3.405
 9913SOL    HW231572  10.470   9.761   3.379
 9914SOL     OW31573   2.709   6.328   5.733
 9914SOL    HW131574   2.780   6.342   5.796
 9914SOL    HW231575   2.750   6.339   5.647
 9915SOL     OW31576   9.531   8.634   0.906
 9915SOL    HW131577   9.448   8.681   0.896
 9915SOL    HW231578   9.543   8.627   1.001
 9916SOL     OW31579   3.853   9.576  11.645
 9916SOL    HW131580   3.784   9.579  11.579
 9916SOL    HW231581   3.834   9.648  11.704
 9917SOL     OW31582   7.512   5.663  11.055
 9917SOL    HW131583   7.477   5.696  10.973
 9917SOL    HW231584   7.451   5.594  11.082
 9918SOL     OW31585   6.405   9.150   7.330
 9918SOL    HW131586   6.499   9.161   7.317
 9918SOL    HW231587   6.394   9.150   7.425
 9919SOL     OW31588  11.533   7.576  12.378
 9919SOL    HW131589  11.628   7.577  12.366
 9919SOL    HW231590  11.510   7.666  12.398
 9920SOL     OW31591  11.614  10.237   0.694
 9920SOL    HW131592  11.692  10.187   0.671
 9920SOL    HW231593  11.629  10.324   0.656
 9921SOL     OW31594  13.628  10.000   4.564
 9921SOL    HW131595  13.534   9.984   4.560
 9921SOL    HW231596  13.661   9.934   4.625
 9922SOL     OW31597   5.057   8.094   3.701
 9922SOL    HW131598   5.057   8.061   3.791
 9922SOL    HW231599   5.150   8.100   3.678
 9923SOL     OW31600  11.391  11.512   3.194
 9923SOL    HW131601  11.482  11.532   3.218
 9923SOL    HW231602  11.387  11.416   3.193
 9924SOL     OW31603   9.240  12.463   1.887
 9924SOL    HW131604   9.224  12.516   1.965
 9924SOL    HW231605   9.183  12.387   1.897
 9925SOL     OW31606   1.174   6.336  11.904
 9925SOL    HW131607   1.133   6.393  11.969
 9925SOL    HW231608   1.268   6.351  11.915
 9926SOL     OW31609   3.182  11.433   1.434
 9926SOL    HW131610   3.203  11.341   1.415
 9926SOL    HW231611   3.242  11.458   1.504
 9927SOL     OW31612   2.095   6.959  11.545
 9927SOL    HW131613   2.104   6.868  11.573
 9927SOL    HW231614   2.184   6.984  11.518
 9928SOL     OW31615   3.237   1.179  10.586
 9928SOL    HW131616   3.198   1.266  10.600
 9928SOL    HW231617   3.193   1.122  10.648
 9929SOL     OW31618   3.007   0.033  14.538
 9929SOL    HW131619   3.024  14.830  14.580
 9929SOL    HW231620   3.008   0.014  14.445
 9930SOL     OW31621   9.250  14.807  11.581
 9930SOL    HW131622   9.200  14.813  11.662
 9930SOL    HW231623   9.329  14.759  11.605
 9931SOL     OW31624   9.830   6.018   4.406
 9931SOL    HW131625   9.734   6.022   4.411
 9931SOL    HW231626   9.847   5.974   4.323
 9932SOL     OW31627   2.336  13.416   9.372
 9932SOL    HW131628   2.275  13.471   9.421
 9932SOL    HW231629   2.423  13.443   9.403
 9933SOL     OW31630   1.857   8.620   7.671
 9933SOL    HW131631   1.853   8.679   7.596
 9933SOL    HW231632   1.924   8.556   7.647
 9934SOL     OW31633  11.612   3.719   0.764
 9934SOL    HW131634  11.687   3.762   0.805
 9934SOL    HW231635  11.650   3.647   0.714
 9935SOL     OW31636  11.509   9.899   8.298
 9935SOL    HW131637  11.464   9.976   8.265
 9935SOL    HW231638  11.573   9.877   8.230
 9936SOL     OW31639  10.804   5.710   6.579
 9936SOL    HW131640  10.835   5.702   6.489
 9936SOL    HW231641  10.879   5.743   6.628
 9937SOL     OW31642  10.614  14.255   6.370
 9937SOL    HW131643  10.580  14.185   6.425
 9937SOL    HW231644  10.710  14.246   6.376
 9938SOL     OW31645   2.629   2.498  11.645
 9938SOL    HW131646   2.654   2.422  11.698
 9938SOL    HW231647   2.694   2.501  11.575
 9939SOL     OW31648   2.841   1.582  11.240
 9939SOL    HW131649   2.792   1.595  11.159
 9939SOL    HW231650   2.929   1.615  11.221
 9940SOL     OW31651   3.505   8.072  12.876
 9940SOL    HW131652   3.530   8.115  12.794
 9940SOL    HW231653   3.479   7.984  12.849
 9941SOL     OW31654  13.552   9.114   0.922
 9941SOL    HW131655  13.516   9.203   0.931
 9941SOL    HW231656  13.575   9.108   0.829
 9942SOL     OW31657   8.295   9.811  10.015
 9942SOL    HW131658   8.233   9.883  10.004
 9942SOL    HW231659   8.259   9.740   9.962
 9943SOL     OW31660  14.410  14.666   3.454
 9943SOL    HW131661  14.466  14.589   3.456
 9943SOL    HW231662  14.320  14.632   3.454
 9944SOL     OW31663  12.479   7.254   6.081
 9944SOL    HW131664  12.384   7.249   6.082
 9944SOL    HW231665  12.498   7.346   6.096
 9945SOL     OW31666  10.460   2.879   6.939
 9945SOL    HW131667  10.473   2.812   6.871
 9945SOL    HW231668  10.365   2.883   6.951
 9946SOL     OW31669   8.695   0.321   9.411
 9946SOL    HW131670   8.638   0.282   9.477
 9946SOL    HW231671   8.718   0.249   9.352
 9947SOL     OW31672   8.408   0.350   2.840
 9947SOL    HW131673   8.434   0.257   2.842
 9947SOL    HW231674   8.424   0.380   2.929
 9948SOL     OW31675  11.939   5.358   0.352
 9948SOL    HW131676  11.851   5.329   0.377
 9948SOL    HW231677  11.945   5.448   0.384
 9949SOL     OW31678  14.446   7.942   7.007
 9949SOL    HW131679  14.531   7.937   6.964
 9949SOL    HW231680  14.444   7.864   7.063
 9950SOL     OW31681  12.800   2.154  10.528
 9950SOL    HW131682  12.711   2.152  10.564
 9950SOL    HW231683  12.827   2.062  10.526
 9951SOL     OW31684  11.844   6.238  12.889
 9951SOL    HW131685  11.865   6.331  12.890
 9951SOL    HW231686  11.882   6.204  12.970
 9952SOL     OW31687   9.164   9.767   3.658
 9952SOL    HW131688   9.080   9.773   3.704
 9952SOL    HW231689   9.142   9.788   3.567
 9953SOL     OW31690  10.581   3.534   0.707
 9953SOL    HW131691  10.630   3.465   0.752
 9953SOL    HW231692  10.634   3.613   0.719
 9954SOL     OW31693   7.300   2.598   5.618
 9954SOL    HW131694   7.394   2.593   5.604
 9954SOL    HW231695   7.262   2.547   5.547
 9955SOL     OW31696   9.767   5.894  13.425
 9955SOL    HW131697   9.757   5.984  13.397
 9955SOL    HW231698   9.703   5.845  13.374
 9956SOL     OW31699   0.788  12.364   1.614
 9956SOL    HW131700   0.835  12.374   1.696
 9956SOL    HW231701   0.789  12.451   1.574
 9957SOL     OW31702   3.550   2.972   0.564
 9957SOL    HW131703   3.530   3.066   0.565
 9957SOL    HW231704   3.552   2.947   0.657
 9958SOL     OW31705   0.234  12.715   3.416
 9958SOL    HW131706   0.149  12.718   3.371
 9958SOL    HW231707   0.217  12.754   3.502
 9959SOL     OW31708  14.234  12.084   4.389
 9959SOL    HW131709  14.306  12.094   4.326
 9959SOL    HW231710  14.278  12.077   4.474
 9960SOL     OW31711   9.210   9.160   6.137
 9960SOL    HW131712   9.224   9.135   6.228
 9960SOL    HW231713   9.158   9.240   6.141
 9961SOL     OW31714  14.701   7.875   6.925
 9961SOL    HW131715  14.756   7.832   6.990
 9961SOL    HW231716  14.763   7.919   6.867
 9962SOL     OW31717   9.019   6.636   4.904
 9962SOL    HW131718   9.010   6.556   4.852
 9962SOL    HW231719   8.942   6.638   4.960
 9963SOL     OW31720  13.705   0.598   1.858
 9963SOL    HW131721  13.731   0.605   1.949
 9963SOL    HW231722  13.779   0.556   1.814
 9964SOL     OW31723   6.546   8.751   8.635
 9964SOL    HW131724   6.504   8.668   8.660
 9964SOL    HW231725   6.589   8.781   8.715
 9965SOL     OW31726  13.916  14.454   8.490
 9965SOL    HW131727  13.868  14.513   8.432
 9965SOL    HW231728  13.854  14.383   8.509
 9966SOL     OW31729   1.273   5.004   6.160
 9966SOL    HW131730   1.220   4.937   6.118
 9966SOL    HW231731   1.356   5.002   6.114
 9967SOL     OW31732   1.812   3.328   7.287
 9967SOL    HW131733   1.878   3.262   7.309
 9967SOL    HW231734   1.848   3.410   7.321
 9968SOL     OW31735   9.817  12.065  12.082
 9968SOL    HW131736   9.771  12.148  12.087
 9968SOL    HW231737   9.879  12.066  12.154
 9969SOL     OW31738   4.749   0.244   6.022
 9969SOL    HW131739   4.783   0.309   5.960
 9969SOL    HW231740   4.763   0.284   6.108
 9970SOL     OW31741  12.648  12.384   0.665
 9970SOL    HW131742  12.651  12.295   0.699
 9970SOL    HW231743  12.740  12.407   0.650
 9971SOL     OW31744   7.663   4.825   6.609
 9971SOL    HW131745   7.640   4.857   6.696
 9971SOL    HW231746   7.648   4.900   6.551
 9972SOL     OW31747   2.155   2.067   6.194
 9972SOL    HW131748   2.071   2.076   6.238
 9972SOL    HW231749   2.194   2.155   6.197
 9973SOL     OW31750  14.869   5.154   5.285
 9973SOL    HW131751   0.055   5.199   5.234
 9973SOL    HW231752  14.800   5.134   5.221
 9974SOL     OW31753   2.750   9.659   6.448
 9974SOL    HW131754   2.769   9.688   6.359
 9974SOL    HW231755   2.797   9.576   6.458
 9975SOL     OW31756   2.431  10.994  14.014
 9975SOL    HW131757   2.387  11.033  13.939
 9975SOL    HW231758   2.423  11.059  14.084
 9976SOL     OW31759   1.751   0.070   9.690
 9976SOL    HW131760   1.826   0.119   9.655
 9976SOL    HW231761   1.786  14.866   9.713
 9977SOL     OW31762   2.376  12.440  12.618
 9977SOL    HW131763   2.290  12.402  12.640
 9977SOL    HW231764   2.406  12.388  12.544
 9978SOL     OW31765   8.843   5.586  13.964
 9978SOL    HW131766   8.779   5.597  13.893
 9978SOL    HW231767   8.928   5.590  13.919
 9979SOL     OW31768   6.598   1.384   5.647
 9979SOL    HW131769   6.512   1.367   5.609
 9979SOL    HW231770   6.659   1.377   5.573
 9980SOL     OW31771   2.317  13.999   4.243
 9980SOL    HW131772   2.273  13.951   4.174
 9980SOL    HW231773   2.347  14.080   4.201
 9981SOL     OW31774   1.268  13.236   7.338
 9981SOL    HW131775   1.206  13.217   7.409
 9981SOL    HW231776   1.213  13.243   7.260
 9982SOL     OW31777  12.335   4.015   0.475
 9982SOL    HW131778  12.397   4.084   0.498
 9982SOL    HW231779  12.254   4.040   0.519
 9983SOL     OW31780   9.918   2.676  11.842
 9983SOL    HW131781   9.827   2.682  11.872
 9983SOL    HW231782   9.970   2.695  11.920
 9984SOL     OW31783  11.351   8.525   1.024
 9984SOL    HW131784  11.318   8.441   0.991
 9984SOL    HW231785  11.377   8.573   0.946
 9985SOL     OW31786   1.681  12.361   4.658
 9985SOL    HW131787   1.710  12.393   4.573
 9985SOL    HW231788   1.593  12.327   4.642
 9986SOL     OW31789   6.492  11.997   2.806
 9986SOL    HW131790   6.470  12.087   2.781
 9986SOL    HW231791   6.446  11.983   2.888
 9987SOL     OW31792  11.734   2.806   0.343
 9987SOL    HW131793  11.706   2.751   0.269
 9987SOL    HW231794  11.779   2.880   0.302
 9988SOL     OW31795   3.922   5.506   5.524
 9988SOL    HW131796   3.953   5.564   5.594
 9988SOL    HW231797   3.986   5.516   5.454
 9989SOL     OW31798   6.686   3.855  11.605
 9989SOL    HW131799   6.685   3.884  11.696
 9989SOL    HW231800   6.743   3.778  11.605
 9990SOL     OW31801   8.179   5.525   9.744
 9990SOL    HW131802   8.125   5.572   9.808
 9990SOL    HW231803   8.268   5.555   9.762
 9991SOL     OW31804   7.424   1.043   3.827
 9991SOL    HW131805   7.364   1.089   3.886
 9991SOL    HW231806   7.440   1.104   3.756
 9992SOL     OW31807  13.073   7.082   1.597
 9992SOL    HW131808  13.141   7.044   1.653
 9992SOL    HW231809  13.043   7.159   1.645
 9993SOL     OW31810   8.215   8.071   4.856
 9993SOL    HW131811   8.244   8.151   4.900
 9993SOL    HW231812   8.172   8.020   4.925
 9994SOL     OW31813  10.068   7.503   1.580
 9994SOL    HW131814  10.071   7.568   1.650
 9994SOL    HW231815   9.994   7.447   1.603
 9995SOL     OW31816   4.749  10.082   1.850
 9995SOL    HW131817   4.804  10.117   1.920
 9995SOL    HW231818   4.690  10.021   1.895
 9996SOL     OW31819   7.139  11.686  12.070
 9996SOL    HW131820   7.076  11.640  12.014
 9996SOL    HW231821   7.169  11.760  12.016
 9997SOL     OW31822   9.838   6.190  11.010
 9997SOL    HW131823   9.857   6.102  10.976
 9997SOL    HW231824   9.851   6.248  10.935
 9998SOL     OW31825   7.226   2.505   4.417
 9998SOL    HW131826   7.196   2.508   4.508
 9998SOL    HW231827   7.146   2.497   4.365
 9999SOL     OW31828  12.276   3.814   4.114
 9999SOL    HW131829  12.227   3.847   4.189
 9999SOL    HW231830  12.280   3.888   4.053
10000SOL     OW31831   5.731   2.199   6.701
10000SOL    HW131832   5.754   2.273   6.756
10000SOL    HW231833   5.638   2.212   6.680
10001SOL     OW31834   7.744   1.470  10.542
10001SOL    HW131835   7.821   1.526  10.538
10001SOL    HW231836   7.674   1.528  10.571
10002SOL     OW31837  11.934   2.939   3.143
10002SOL    HW131838  11.998   3.002   3.110
10002SOL    HW231839  11.972   2.907   3.225
10003SOL     OW31840   9.487   6.614   4.925
10003SOL    HW131841   9.432   6.679   4.882
10003SOL    HW231842   9.463   6.531   4.884
10004SOL     OW31843  11.479   7.278   0.381
10004SOL    HW131844  11.458   7.192   0.416
10004SOL    HW231845  11.570   7.293   0.405
10005SOL     OW31846  14.403  13.390   0.582
10005SOL    HW131847  14.479  13.430   0.540
10005SOL    HW231848  14.361  13.462   0.628
10006SOL     OW31849   3.425   9.989   3.797
10006SOL    HW131850   3.505   9.975   3.747
10006SOL    HW231851   3.421   9.916   3.859
10007SOL     OW31852  13.112   3.227   0.967
10007SOL    HW131853  13.182   3.269   0.917
10007SOL    HW231854  13.141   3.137   0.979
10008SOL     OW31855   0.961  10.015  10.446
10008SOL    HW131856   0.957   9.928  10.406
10008SOL    HW231857   1.049  10.020  10.484
10009SOL     OW31858   3.821   9.198   0.838
10009SOL    HW131859   3.883   9.229   0.772
10009SOL    HW231860   3.862   9.121   0.876
10010SOL     OW31861  14.527   9.294   5.113
10010SOL    HW131862  14.516   9.201   5.131
10010SOL    HW231863  14.616   9.302   5.081
10011SOL     OW31864   8.430   3.622   6.641
10011SOL    HW131865   8.387   3.674   6.709
10011SOL    HW231866   8.521   3.615   6.670
10012SOL     OW31867   2.332   3.005  10.771
10012SOL    HW131868   2.407   2.945  10.778
10012SOL    HW231869   2.353   3.076  10.831
10013SOL     OW31870   8.598  14.642   1.334
10013SOL    HW131871   8.603  14.731   1.370
10013SOL    HW231872   8.654  14.590   1.391
10014SOL     OW31873   7.282   5.110   9.713
10014SOL    HW131874   7.301   5.088   9.804
10014SOL    HW231875   7.366   5.141   9.678
10015SOL     OW31876   0.594  13.145   8.113
10015SOL    HW131877   0.592  13.193   8.196
10015SOL    HW231878   0.503  13.120   8.098
10016SOL     OW31879   1.177   3.556  11.352
10016SOL    HW131880   1.116   3.483  11.344
10016SOL    HW231881   1.121   3.631  11.374
10017SOL     OW31882   9.104   4.884  13.417
10017SOL    HW131883   9.161   4.904  13.490
10017SOL    HW231884   9.027   4.843  13.457
10018SOL     OW31885   3.733   7.011   4.228
10018SOL    HW131886   3.780   6.941   4.273
10018SOL    HW231887   3.659   6.967   4.186
10019SOL     OW31888   2.067   6.149   7.896
10019SOL    HW131889   2.018   6.208   7.839
10019SOL    HW231890   2.046   6.061   7.865
10020SOL     OW31891  12.623   6.021   1.217
10020SOL    HW131892  12.713   6.047   1.234
10020SOL    HW231893  12.591   6.085   1.154
10021SOL     OW31894   6.105  10.044   3.025
10021SOL    HW131895   6.059   9.967   2.992
10021SOL    HW231896   6.122  10.097   2.947
10022SOL     OW31897   9.147  10.536  12.199
10022SOL    HW131898   9.207  10.601  12.161
10022SOL    HW231899   9.195  10.497  12.271
10023SOL     OW31900  10.193   5.509   0.305
10023SOL    HW131901  10.179   5.597   0.339
10023SOL    HW231902  10.216   5.457   0.382
10024SOL     OW31903  13.087   7.554   6.575
10024SOL    HW131904  13.133   7.610   6.513
10024SOL    HW231905  13.139   7.474   6.578
10025SOL     OW31906   6.286   2.853  11.194
10025SOL    HW131907   6.251   2.916  11.257
10025SOL    HW231908   6.240   2.872  11.112
10026SOL     OW31909  12.074   8.208  12.360
10026SOL    HW131910  12.098   8.116  12.350
10026SOL    HW231911  12.042   8.215  12.450
10027SOL     OW31912  12.073  13.243  12.073
10027SOL    HW131913  12.126  13.318  12.100
10027SOL    HW231914  11.986  13.280  12.055
10028SOL     OW31915   1.767   4.333   8.406
10028SOL    HW131916   1.737   4.264   8.465
10028SOL    HW231917   1.688   4.380   8.381
10029SOL     OW31918  10.839  12.692   0.108
10029SOL    HW131919  10.824  12.681   0.202
10029SOL    HW231920  10.934  12.701   0.100
10030SOL     OW31921   5.298   3.852  11.786
10030SOL    HW131922   5.282   3.758  11.775
10030SOL    HW231923   5.332   3.861  11.875
10031SOL     OW31924  14.688  14.270   3.411
10031SOL    HW131925  14.765  14.257   3.468
10031SOL    HW231926  14.620  14.302   3.470
10032SOL     OW31927   3.779  10.529   2.301
10032SOL    HW131928   3.862  10.498   2.336
10032SOL    HW231929   3.758  10.468   2.230
10033SOL     OW31930   6.881  13.797   7.710
10033SOL    HW131931   6.938  13.771   7.782
10033SOL    HW231932   6.940  13.834   7.645
10034SOL     OW31933   9.895   2.895   5.929
10034SOL    HW131934   9.852   2.815   5.901
10034SOL    HW231935   9.974   2.900   5.875
10035SOL     OW31936   9.704   8.245  13.924
10035SOL    HW131937   9.778   8.193  13.956
10035SOL    HW231938   9.715   8.331  13.965
10036SOL     OW31939  12.674  14.340  13.330
10036SOL    HW131940  12.619  14.267  13.359
10036SOL    HW231941  12.708  14.378  13.411
10037SOL     OW31942  13.859   2.628  11.212
10037SOL    HW131943  13.915   2.637  11.289
10037SOL    HW231944  13.872   2.709  11.163
10038SOL     OW31945  13.900   7.455  10.719
10038SOL    HW131946  13.838   7.527  10.705
10038SOL    HW231947  13.871   7.414  10.801
10039SOL     OW31948  13.302   8.314  10.846
10039SOL    HW131949  13.299   8.398  10.801
10039SOL    HW231950  13.390   8.281  10.829
10040SOL     OW31951   0.853   0.916  12.043
10040SOL    HW131952   0.920   0.932  12.110
10040SOL    HW231953   0.899   0.927  11.960
10041SOL     OW31954  11.549   7.605   6.881
10041SOL    HW131955  11.569   7.614   6.974
10041SOL    HW231956  11.540   7.511   6.867
10042SOL     OW31957   7.568  13.309   1.075
10042SOL    HW131958   7.504  13.309   1.004
10042SOL    HW231959   7.552  13.227   1.123
10043SOL     OW31960  11.415   3.272  13.330
10043SOL    HW131961  11.353   3.211  13.290
10043SOL    HW231962  11.498   3.255  13.285
10044SOL     OW31963   2.566   9.795   5.031
10044SOL    HW131964   2.627   9.810   5.103
10044SOL    HW231965   2.611   9.829   4.954
10045SOL     OW31966  10.915   0.204   1.006
10045SOL    HW131967  10.998   0.184   1.050
10045SOL    HW231968  10.893   0.124   0.958
10046SOL     OW31969   5.751   1.284  13.094
10046SOL    HW131970   5.689   1.324  13.034
10046SOL    HW231971   5.836   1.294  13.051
10047SOL     OW31972   0.635   0.192   9.413
10047SOL    HW131973   0.696   0.265   9.427
10047SOL    HW231974   0.667   0.123   9.472
10048SOL     OW31975   8.459   4.944   3.694
10048SOL    HW131976   8.386   4.906   3.646
10048SOL    HW231977   8.430   5.032   3.716
10049SOL     OW31978  12.187   9.462   4.270
10049SOL    HW131979  12.172   9.399   4.341
10049SOL    HW231980  12.107   9.515   4.269
10050SOL     OW31981   3.835   5.882   8.843
10050SOL    HW131982   3.833   5.972   8.875
10050SOL    HW231983   3.769   5.880   8.773
10051SOL     OW31984   3.891  10.100   4.964
10051SOL    HW131985   3.973  10.053   4.952
10051SOL    HW231986   3.917  10.192   4.970
10052SOL     OW31987   6.641  11.934   5.367
10052SOL    HW131988   6.620  11.881   5.290
10052SOL    HW231989   6.658  11.869   5.436
10053SOL     OW31990   7.151   4.773   3.878
10053SOL    HW131991   7.210   4.752   3.951
10053SOL    HW231992   7.157   4.698   3.820
10054SOL     OW31993  10.721  10.933   1.665
10054SOL    HW131994  10.757  11.002   1.721
10054SOL    HW231995  10.729  10.968   1.576
10055SOL     OW31996   7.493   6.739  13.235
10055SOL    HW131997   7.488   6.644  13.224
10055SOL    HW231998   7.440   6.757  13.313
10056SOL     OW31999  14.358   0.109   2.302
10056SOL    HW132000  14.436   0.159   2.323
10056SOL    HW232001  14.390   0.030   2.260
10057SOL     OW32002   2.657   7.525   2.214
10057SOL    HW132003   2.612   7.518   2.298
10057SOL    HW232004   2.607   7.468   2.155
10058SOL     OW32005  12.194   0.327  12.306
10058SOL    HW132006  12.191   0.408  12.255
10058SOL    HW232007  12.236   0.352  12.389
10059SOL     OW32008   8.873  12.926   4.148
10059SOL    HW132009   8.853  13.000   4.205
10059SOL    HW232010   8.851  12.957   4.060
10060SOL     OW32011   5.026   1.193   2.573
10060SOL    HW132012   5.106   1.180   2.623
10060SOL    HW232013   5.055   1.209   2.483
10061SOL     OW32014   4.652   8.519  13.520
10061SOL    HW132015   4.696   8.577  13.459
10061SOL    HW232016   4.722   8.466  13.558
10062SOL     OW32017  14.176   8.433  14.167
10062SOL    HW132018  14.226   8.512  14.150
10062SOL    HW232019  14.240   8.362  14.162
10063SOL     OW32020  13.829   4.958   9.529
10063SOL    HW132021  13.736   4.976   9.542
10063SOL    HW232022  13.842   4.961   9.435
10064SOL     OW32023   1.713  13.302  13.385
10064SOL    HW132024   1.776  13.230  13.385
10064SOL    HW232025   1.766  13.380  13.401
10065SOL     OW32026   3.467   5.078   8.249
10065SOL    HW132027   3.495   4.988   8.236
10065SOL    HW232028   3.531   5.114   8.311
10066SOL     OW32029   3.954   5.695   5.731
10066SOL    HW132030   3.869   5.726   5.764
10066SOL    HW232031   4.006   5.681   5.811
10067SOL     OW32032   5.054   8.514  13.571
10067SOL    HW132033   5.074   8.595  13.620
10067SOL    HW232034   5.113   8.518  13.495
10068SOL     OW32035  13.441   8.450  14.548
10068SOL    HW132036  13.510   8.387  14.566
10068SOL    HW232037  13.472   8.497  14.470
10069SOL     OW32038   1.555   6.303  14.196
10069SOL    HW132039   1.495   6.291  14.123
10069SOL    HW232040   1.636   6.259  14.168
10070SOL     OW32041  14.750  14.760   9.160
10070SOL    HW132042  14.662  14.723   9.149
10070SOL    HW232043  14.751  14.793   9.250
10071SOL     OW32044   2.745   2.988   6.903
10071SOL    HW132045   2.795   3.061   6.938
10071SOL    HW232046   2.802   2.912   6.914
10072SOL     OW32047   7.880   6.200   3.759
10072SOL    HW132048   7.868   6.263   3.830
10072SOL    HW232049   7.794   6.160   3.748
10073SOL     OW32050   1.391   9.723   1.382
10073SOL    HW132051   1.346   9.638   1.377
10073SOL    HW232052   1.393   9.754   1.292
10074SOL     OW32053   7.940   1.274   1.838
10074SOL    HW132054   7.872   1.287   1.771
10074SOL    HW232055   7.981   1.360   1.848
10075SOL     OW32056   3.734  13.537   4.407
10075SOL    HW132057   3.822  13.562   4.380
10075SOL    HW232058   3.679  13.553   4.330
10076SOL     OW32059  11.099   9.202   9.701
10076SOL    HW132060  11.070   9.180   9.612
10076SOL    HW232061  11.048   9.145   9.758
10077SOL     OW32062  13.890  13.061  13.022
10077SOL    HW132063  13.944  12.984  13.038
10077SOL    HW232064  13.880  13.065  12.927
10078SOL     OW32065   0.808   7.637   5.845
10078SOL    HW132066   0.797   7.550   5.806
10078SOL    HW232067   0.846   7.621   5.931
10079SOL     OW32068   3.011   6.674   3.927
10079SOL    HW132069   2.934   6.620   3.946
10079SOL    HW232070   2.979   6.741   3.867
10080SOL     OW32071   9.792  13.490   3.415
10080SOL    HW132072   9.787  13.486   3.510
10080SOL    HW232073   9.742  13.414   3.385
10081SOL     OW32074   1.191   0.305   6.074
10081SOL    HW132075   1.251   0.230   6.078
10081SOL    HW232076   1.212   0.355   6.153
10082SOL     OW32077  12.161   2.443  10.524
10082SOL    HW132078  12.116   2.501  10.586
10082SOL    HW232079  12.091   2.387  10.490
10083SOL     OW32080   1.121   8.809   5.996
10083SOL    HW132081   1.078   8.857   5.925
10083SOL    HW232082   1.059   8.740   6.019
10084SOL     OW32083  10.771   8.743  14.127
10084SOL    HW132084  10.746   8.832  14.101
10084SOL    HW232085  10.816   8.754  14.210
10085SOL     OW32086   5.774   8.680  12.861
10085SOL    HW132087   5.788   8.717  12.774
10085SOL    HW232088   5.853   8.629  12.878
10086SOL     OW32089   3.141   6.972   7.752
10086SOL    HW132090   3.228   6.933   7.743
10086SOL    HW232091   3.159   7.064   7.773
10087SOL     OW32092   9.228   3.727   3.623
10087SOL    HW132093   9.196   3.728   3.714
10087SOL    HW232094   9.310   3.776   3.626
10088SOL     OW32095  10.320   5.571  14.326
10088SOL    HW132096  10.358   5.568  14.413
10088SOL    HW232097  10.278   5.657  14.320
10089SOL     OW32098  11.982  12.609   8.857
10089SOL    HW132099  11.997  12.618   8.951
10089SOL    HW232100  11.905  12.663   8.840
10090SOL     OW32101   6.732   6.229  11.358
10090SOL    HW132102   6.796   6.162  11.336
10090SOL    HW232103   6.703   6.264  11.274
10091SOL     OW32104   0.387  13.806   6.106
10091SOL    HW132105   0.333  13.727   6.096
10091SOL    HW232106   0.364  13.861   6.031
10092SOL     OW32107   8.870   6.910  14.456
10092SOL    HW132108   8.889   6.853  14.382
10092SOL    HW232109   8.882   6.855  14.533
10093SOL     OW32110  10.191   9.677   8.798
10093SOL    HW132111  10.118   9.623   8.768
10093SOL    HW232112  10.241   9.620   8.856
10094SOL     OW32113   2.977   4.718   5.077
10094SOL    HW132114   2.924   4.640   5.094
10094SOL    HW232115   2.926   4.769   5.014
10095SOL     OW32116   9.080   4.657  13.185
10095SOL    HW132117   9.021   4.703  13.244
10095SOL    HW232118   9.154   4.633  13.239
10096SOL     OW32119   2.038   6.178   4.083
10096SOL    HW132120   2.119   6.218   4.117
10096SOL    HW232121   2.065   6.091   4.054
10097SOL     OW32122   1.635   5.145  14.545
10097SOL    HW132123   1.648   5.211  14.478
10097SOL    HW232124   1.669   5.064  14.507
10098SOL     OW32125   9.535   8.239   4.386
10098SOL    HW132126   9.500   8.328   4.387
10098SOL    HW232127   9.528   8.210   4.477
10099SOL     OW32128   3.660   4.822   9.257
10099SOL    HW132129   3.630   4.732   9.246
10099SOL    HW232130   3.702   4.843   9.174
10100SOL     OW32131  13.677  13.140   5.803
10100SOL    HW132132  13.681  13.084   5.725
10100SOL    HW232133  13.606  13.201   5.785
10101SOL     OW32134  14.375   4.078   4.490
10101SOL    HW132135  14.333   4.152   4.445
10101SOL    HW232136  14.469   4.095   4.483
10102SOL     OW32137   2.791   4.224   6.062
10102SOL    HW132138   2.821   4.185   5.980
10102SOL    HW232139   2.836   4.309   6.065
10103SOL     OW32140  13.015   2.559   8.901
10103SOL    HW132141  12.976   2.542   8.987
10103SOL    HW232142  12.991   2.482   8.849
10104SOL     OW32143   3.733   8.399  11.852
10104SOL    HW132144   3.778   8.412  11.769
10104SOL    HW232145   3.700   8.486  11.875
10105SOL     OW32146  10.424  10.030  12.450
10105SOL    HW132147  10.472  10.014  12.369
10105SOL    HW232148  10.376  10.111  12.433
10106SOL     OW32149   6.516   3.110   5.471
10106SOL    HW132150   6.435   3.159   5.480
10106SOL    HW232151   6.502   3.031   5.523
10107SOL     OW32152   6.287   0.972   2.678
10107SOL    HW132153   6.342   1.023   2.737
10107SOL    HW232154   6.253   0.901   2.732
10108SOL     OW32155   8.388   8.213   6.199
10108SOL    HW132156   8.295   8.197   6.184
10108SOL    HW232157   8.392   8.301   6.236
10109SOL     OW32158   2.061  14.145   7.069
10109SOL    HW132159   2.039  14.093   6.992
10109SOL    HW232160   1.976  14.172   7.104
10110SOL     OW32161  12.327   1.943   7.785
10110SOL    HW132162  12.347   1.890   7.708
10110SOL    HW232163  12.242   1.912   7.815
10111SOL     OW32164   4.490  11.596   7.721
10111SOL    HW132165   4.502  11.690   7.737
10111SOL    HW232166   4.527  11.554   7.798
10112SOL     OW32167   6.121   0.731  12.654
10112SOL    HW132168   6.204   0.770  12.625
10112SOL    HW232169   6.110   0.763  12.744
10113SOL     OW32170   8.800   9.676   8.366
10113SOL    HW132171   8.868   9.653   8.302
10113SOL    HW232172   8.750   9.595   8.377
10114SOL     OW32173   9.757  12.373   5.652
10114SOL    HW132174   9.767  12.396   5.744
10114SOL    HW232175   9.772  12.278   5.649
10115SOL     OW32176   5.440   1.628  10.513
10115SOL    HW132177   5.502   1.557  10.497
10115SOL    HW232178   5.388   1.633  10.432
10116SOL     OW32179  11.441   7.122  10.994
10116SOL    HW132180  11.493   7.183  11.046
10116SOL    HW232181  11.505   7.057  10.963
10117SOL     OW32182   1.871   1.030   9.936
10117SOL    HW132183   1.869   1.125   9.933
10117SOL    HW232184   1.842   1.009  10.025
10118SOL     OW32185   0.956   4.469   0.233
10118SOL    HW132186   0.961   4.484   0.327
10118SOL    HW232187   0.900   4.391   0.225
10119SOL     OW32188   9.894   6.423   5.052
10119SOL    HW132189   9.908   6.398   4.961
10119SOL    HW232190   9.830   6.494   5.048
10120SOL     OW32191   5.615  10.119   5.624
10120SOL    HW132192   5.612  10.211   5.598
10120SOL    HW232193   5.709  10.097   5.623
10121SOL     OW32194   0.830   9.805   8.271
10121SOL    HW132195   0.815   9.744   8.343
10121SOL    HW232196   0.789   9.886   8.300
10122SOL     OW32197   7.583   0.020  11.771
10122SOL    HW132198   7.512   0.048  11.828
10122SOL    HW232199   7.539  14.871  11.692
10123SOL     OW32200   1.374   6.784   7.237
10123SOL    HW132201   1.333   6.698   7.248
10123SOL    HW232202   1.340   6.816   7.153
10124SOL     OW32203  13.713  10.172  14.046
10124SOL    HW132204  13.711  10.250  14.102
10124SOL    HW232205  13.801  10.172  14.008
10125SOL     OW32206  14.338  11.109  10.931
10125SOL    HW132207  14.321  11.111  11.025
10125SOL    HW232208  14.352  11.201  10.907
10126SOL     OW32209   8.685   7.254   2.866
10126SOL    HW132210   8.704   7.333   2.917
10126SOL    HW232211   8.592   7.259   2.848
10127SOL     OW32212   7.730   5.452  12.716
10127SOL    HW132213   7.793   5.524  12.713
10127SOL    HW232214   7.781   5.378  12.750
10128SOL     OW32215  10.059   8.610  13.298
10128SOL    HW132216  10.016   8.694  13.315
10128SOL    HW232217  10.127   8.604  13.365
10129SOL     OW32218  13.288   2.571   6.018
10129SOL    HW132219  13.344   2.499   5.989
10129SOL    HW232220  13.232   2.533   6.085
10130SOL     OW32221   1.505   6.699   9.754
10130SOL    HW132222   1.594   6.676   9.726
10130SOL    HW232223   1.448   6.653   9.692
10131SOL     OW32224   3.058  10.942   4.461
10131SOL    HW132225   3.058  11.037   4.447
10131SOL    HW232226   3.124  10.909   4.400
10132SOL     OW32227   4.211  10.321  13.228
10132SOL    HW132228   4.299  10.358  13.226
10132SOL    HW232229   4.170  10.353  13.147
10133SOL     OW32230   8.604  14.637   7.391
10133SOL    HW132231   8.677  14.587   7.425
10133SOL    HW232232   8.638  14.681   7.313
10134SOL     OW32233   2.485   6.258   2.324
10134SOL    HW132234   2.546   6.322   2.361
10134SOL    HW232235   2.504   6.176   2.372
10135SOL     OW32236   3.425  14.012   8.022
10135SOL    HW132237   3.418  14.044   8.112
10135SOL    HW232238   3.505  13.958   8.022
10136SOL     OW32239   9.262   5.402   3.865
10136SOL    HW132240   9.195   5.337   3.843
10136SOL    HW232241   9.342   5.370   3.823
10137SOL     OW32242   7.361   6.442  13.955
10137SOL    HW132243   7.291   6.444  13.890
10137SOL    HW232244   7.386   6.533  13.966
10138SOL     OW32245  14.820   2.146   6.199
10138SOL    HW132246  14.735   2.104   6.190
10138SOL    HW232247  14.868   2.091   6.260
10139SOL     OW32248  13.887  11.275   5.628
10139SOL    HW132249  13.901  11.366   5.653
10139SOL    HW232250  13.841  11.236   5.703
10140SOL     OW32251   9.846   1.572   7.511
10140SOL    HW132252   9.849   1.479   7.532
10140SOL    HW232253   9.840   1.574   7.415
10141SOL     OW32254   5.191   7.771  10.315
10141SOL    HW132255   5.210   7.846  10.257
10141SOL    HW232256   5.149   7.810  10.391
10142SOL     OW32257   6.068   7.511   9.229
10142SOL    HW132258   6.143   7.493   9.172
10142SOL    HW232259   5.991   7.496   9.173
10143SOL     OW32260   6.020   4.773  14.045
10143SOL    HW132261   6.095   4.771  14.105
10143SOL    HW232262   5.979   4.687  14.057
10144SOL     OW32263   3.816   9.680  13.318
10144SOL    HW132264   3.769   9.764  13.319
10144SOL    HW232265   3.750   9.615  13.341
10145SOL     OW32266   0.683   7.214  13.938
10145SOL    HW132267   0.642   7.181  14.018
10145SOL    HW232268   0.770   7.174  13.938
10146SOL     OW32269  11.996   9.320   5.201
10146SOL    HW132270  11.968   9.303   5.291
10146SOL    HW232271  11.969   9.410   5.183
10147SOL     OW32272   0.743   1.528  12.992
10147SOL    HW132273   0.781   1.461  13.049
10147SOL    HW232274   0.791   1.608  13.014
10148SOL     OW32275  10.926   0.901   8.404
10148SOL    HW132276  10.934   0.978   8.347
10148SOL    HW232277  10.887   0.834   8.348
10149SOL     OW32278  12.536   9.293   7.190
10149SOL    HW132279  12.546   9.308   7.284
10149SOL    HW232280  12.588   9.214   7.172
10150SOL     OW32281   9.770   9.428  13.091
10150SOL    HW132282   9.836   9.454  13.027
10150SOL    HW232283   9.820   9.382  13.159
10151SOL     OW32284  11.123   2.756  14.773
10151SOL    HW132285  11.185   2.779  14.704
10151SOL    HW232286  11.066   2.689  14.734
10152SOL     OW32287   1.196   0.692   9.997
10152SOL    HW132288   1.213   0.630   9.926
10152SOL    HW232289   1.278   0.741  10.005
10153SOL     OW32290  13.418   3.035   6.076
10153SOL    HW132291  13.388   2.957   6.028
10153SOL    HW232292  13.411   3.010   6.168
10154SOL     OW32293  12.987  14.358   5.964
10154SOL    HW132294  12.963  14.379   5.874
10154SOL    HW232295  12.917  14.395   6.017
10155SOL     OW32296   3.070   0.027  11.113
10155SOL    HW132297   3.003  14.841  11.106
10155SOL    HW232298   3.063   0.060  11.203
10156SOL     OW32299   6.548   1.354   0.376
10156SOL    HW132300   6.502   1.343   0.459
10156SOL    HW232301   6.641   1.353   0.400
10157SOL     OW32302  11.796  10.760   4.163
10157SOL    HW132303  11.824  10.848   4.189
10157SOL    HW232304  11.790  10.764   4.068
10158SOL     OW32305  10.966   3.871   4.756
10158SOL    HW132306  11.011   3.935   4.811
10158SOL    HW232307  11.034   3.833   4.701
10159SOL     OW32308   1.608  14.284  13.325
10159SOL    HW132309   1.601  14.378  13.309
10159SOL    HW232310   1.696  14.261  13.294
10160SOL     OW32311   2.173   2.067  13.053
10160SOL    HW132312   2.088   2.096  13.086
10160SOL    HW232313   2.190   1.984  13.099
10161SOL     OW32314   1.957  10.927   1.191
10161SOL    HW132315   1.923  10.844   1.225
10161SOL    HW232316   2.040  10.904   1.149
10162SOL     OW32317   8.976  13.343   0.847
10162SOL    HW132318   8.918  13.380   0.913
10162SOL    HW232319   9.058  13.327   0.894
10163SOL     OW32320  13.092  11.350   1.190
10163SOL    HW132321  13.082  11.419   1.256
10163SOL    HW232322  13.185  11.327   1.192
10164SOL     OW32323   8.083   6.984   7.516
10164SOL    HW132324   8.039   6.924   7.456
10164SOL    HW232325   8.074   6.943   7.602
10165SOL     OW32326  13.474  14.722  11.261
10165SOL    HW132327  13.524  14.660  11.208
10165SOL    HW232328  13.535  14.750  11.329
10166SOL     OW32329   2.607   4.958   6.930
10166SOL    HW132330   2.620   5.002   6.846
10166SOL    HW232331   2.557   5.021   6.983
10167SOL     OW32332   1.444  13.407   5.603
10167SOL    HW132333   1.417  13.451   5.684
10167SOL    HW232334   1.427  13.314   5.619
10168SOL     OW32335  11.869  13.814   1.463
10168SOL    HW132336  11.945  13.866   1.436
10168SOL    HW232337  11.807  13.879   1.496
10169SOL     OW32338  10.701  10.751   1.080
10169SOL    HW132339  10.618  10.725   1.119
10169SOL    HW232340  10.677  10.809   1.008
10170SOL     OW32341   9.111   1.784   4.433
10170SOL    HW132342   9.027   1.755   4.398
10170SOL    HW232343   9.148   1.839   4.364
10171SOL     OW32344   3.570   9.785   6.123
10171SOL    HW132345   3.524   9.854   6.075
10171SOL    HW232346   3.662   9.800   6.104
10172SOL     OW32347  10.572   5.780   8.875
10172SOL    HW132348  10.513   5.828   8.816
10172SOL    HW232349  10.614   5.848   8.927
10173SOL     OW32350   8.655  11.416  11.722
10173SOL    HW132351   8.724  11.441  11.784
10173SOL    HW232352   8.678  11.461  11.641
10174SOL     OW32353   8.856  13.308  13.236
10174SOL    HW132354   8.796  13.290  13.163
10174SOL    HW232355   8.820  13.386  13.279
10175SOL     OW32356  14.850   4.454  12.339
10175SOL    HW132357  14.796   4.407  12.404
10175SOL    HW232358  14.863   4.390  12.269
10176SOL     OW32359   5.008  12.095   1.555
10176SOL    HW132360   4.951  12.172   1.549
10176SOL    HW232361   5.079  12.113   1.493
10177SOL     OW32362   1.333   2.761   4.695
10177SOL    HW132363   1.273   2.744   4.623
10177SOL    HW232364   1.400   2.818   4.658
10178SOL     OW32365   8.096   2.280   0.638
10178SOL    HW132366   8.126   2.229   0.713
10178SOL    HW232367   8.153   2.357   0.638
10179SOL     OW32368   0.552   8.082   2.665
10179SOL    HW132369   0.536   7.988   2.668
10179SOL    HW232370   0.647   8.091   2.673
10180SOL     OW32371   5.308  10.172  11.334
10180SOL    HW132372   5.260  10.220  11.267
10180SOL    HW232373   5.356  10.104  11.286
10181SOL     OW32374   6.222  10.704  14.082
10181SOL    HW132375   6.249  10.763  14.013
10181SOL    HW232376   6.178  10.632  14.037
10182SOL     OW32377   9.855   5.513   9.909
10182SOL    HW132378   9.945   5.494   9.934
10182SOL    HW232379   9.846   5.477   9.821
10183SOL     OW32380  12.583   0.210   2.796
10183SOL    HW132381  12.547   0.253   2.873
10183SOL    HW232382  12.513   0.153   2.765
10184SOL     OW32383   3.363  12.518   8.695
10184SOL    HW132384   3.386  12.571   8.619
10184SOL    HW232385   3.301  12.571   8.744
10185SOL     OW32386  13.488  10.475  11.071
10185SOL    HW132387  13.416  10.440  11.018
10185SOL    HW232388  13.565  10.465  11.015
10186SOL     OW32389  13.030   4.546   2.915
10186SOL    HW132390  12.944   4.588   2.923
10186SOL    HW232391  13.010   4.454   2.896
10187SOL     OW32392   0.130   1.717   6.494
10187SOL    HW132393   0.072   1.658   6.543
10187SOL    HW232394   0.203   1.733   6.553
10188SOL     OW32395  13.075   6.350   8.243
10188SOL    HW132396  13.016   6.303   8.302
10188SOL    HW232397  13.136   6.283   8.212
10189SOL     OW32398   2.601   9.910  10.989
10189SOL    HW132399   2.661   9.896  10.916
10189SOL    HW232400   2.545   9.982  10.960
10190SOL     OW32401   4.216   4.546   6.800
10190SOL    HW132402   4.196   4.616   6.738
10190SOL    HW232403   4.160   4.565   6.875
10191SOL     OW32404  11.822   2.717   0.083
10191SOL    HW132405  11.753   2.763   0.036
10191SOL    HW232406  11.863   2.661   0.017
10192SOL     OW32407  12.496   8.025  14.519
10192SOL    HW132408  12.586   8.041  14.489
10192SOL    HW232409  12.468   7.948  14.471
10193SOL     OW32410   5.293   0.359   4.778
10193SOL    HW132411   5.316   0.372   4.871
10193SOL    HW232412   5.281   0.265   4.770
10194SOL     OW32413   8.658   0.851   9.898
10194SOL    HW132414   8.679   0.941   9.926
10194SOL    HW232415   8.743   0.811   9.883
10195SOL     OW32416   0.688   4.675   5.925
10195SOL    HW132417   0.739   4.735   5.870
10195SOL    HW232418   0.637   4.623   5.864
10196SOL     OW32419   3.960   3.056  11.874
10196SOL    HW132420   4.025   3.047  11.805
10196SOL    HW232421   4.012   3.074  11.953
10197SOL     OW32422  11.906  10.978   9.756
10197SOL    HW132423  11.859  10.925   9.692
10197SOL    HW232424  11.936  10.915   9.821
10198SOL     OW32425   8.602  12.133  11.122
10198SOL    HW132426   8.595  12.078  11.045
10198SOL    HW232427   8.534  12.101  11.181
10199SOL     OW32428   7.241   3.335   0.361
10199SOL    HW132429   7.279   3.320   0.274
10199SOL    HW232430   7.256   3.253   0.409
10200SOL     OW32431  14.246   2.643   6.758
10200SOL    HW132432  14.333   2.616   6.788
10200SOL    HW232433  14.208   2.690   6.832
10201SOL     OW32434   8.780  11.172  12.804
10201SOL    HW132435   8.744  11.179  12.892
10201SOL    HW232436   8.814  11.259  12.785
10202SOL     OW32437   8.724   7.962   3.661
10202SOL    HW132438   8.795   7.931   3.716
10202SOL    HW232439   8.648   7.966   3.720
10203SOL     OW32440   3.281   6.940  14.871
10203SOL    HW132441   3.330   6.879  14.816
10203SOL    HW232442   3.190   6.908  14.866
10204SOL     OW32443   1.318   0.707  14.534
10204SOL    HW132444   1.239   0.694  14.586
10204SOL    HW232445   1.293   0.770  14.467
10205SOL     OW32446  11.006  10.903   9.979
10205SOL    HW132447  11.082  10.947   9.940
10205SOL    HW232448  11.024  10.810   9.968
10206SOL     OW32449  11.478  13.193   9.269
10206SOL    HW132450  11.403  13.168   9.324
10206SOL    HW232451  11.484  13.124   9.203
10207SOL     OW32452  14.859   4.468   4.805
10207SOL    HW132453  14.772   4.501   4.786
10207SOL    HW232454   0.031   4.547   4.817
10208SOL     OW32455   9.518   7.344   8.630
10208SOL    HW132456   9.483   7.305   8.710
10208SOL    HW232457   9.605   7.304   8.619
10209SOL     OW32458   5.162   0.258   1.971
10209SOL    HW132459   5.097   0.298   1.914
10209SOL    HW232460   5.223   0.215   1.911
10210SOL     OW32461   3.098   9.325   1.190
10210SOL    HW132462   3.045   9.403   1.173
10210SOL    HW232463   3.137   9.304   1.105
10211SOL     OW32464  11.070  10.230   7.567
10211SOL    HW132465  10.999  10.273   7.615
10211SOL    HW232466  11.089  10.288   7.494
10212SOL     OW32467  13.540   9.505   2.177
10212SOL    HW132468  13.489   9.543   2.105
10212SOL    HW232469  13.595   9.578   2.208
10213SOL     OW32470   2.778   7.480   0.340
10213SOL    HW132471   2.732   7.400   0.313
10213SOL    HW232472   2.713   7.529   0.391
10214SOL     OW32473   6.545  11.175   9.440
10214SOL    HW132474   6.613  11.113   9.465
10214SOL    HW232475   6.593  11.255   9.419
10215SOL     OW32476   7.355   5.878  11.368
10215SOL    HW132477   7.294   5.812  11.334
10215SOL    HW232478   7.352   5.866  11.463
10216SOL     OW32479  11.307   0.277   8.653
10216SOL    HW132480  11.226   0.324   8.675
10216SOL    HW232481  11.302   0.196   8.703
10217SOL     OW32482   6.628  14.558  11.239
10217SOL    HW132483   6.607  14.647  11.209
10217SOL    HW232484   6.606  14.559  11.333
10218SOL     OW32485  11.824   9.614  10.813
10218SOL    HW132486  11.869   9.683  10.765
10218SOL    HW232487  11.731   9.624  10.789
10219SOL     OW32488   8.746   3.566   1.030
10219SOL    HW132489   8.695   3.593   0.954
10219SOL    HW232490   8.805   3.639   1.047
10220SOL     OW32491   2.710  14.700   0.127
10220SOL    HW132492   2.728  14.786   0.165
10220SOL    HW232493   2.794  14.654   0.130
10221SOL     OW32494   6.268  12.964   9.440
10221SOL    HW132495   6.210  12.958   9.516
10221SOL    HW232496   6.226  13.028   9.383
10222SOL     OW32497  10.636   1.470  11.539
10222SOL    HW132498  10.608   1.537  11.476
10222SOL    HW232499  10.702   1.419  11.492
10223SOL     OW32500   1.043   2.110   2.025
10223SOL    HW132501   1.132   2.139   2.003
10223SOL    HW232502   1.054   2.020   2.055
10224SOL     OW32503  13.097   7.834  10.114
10224SOL    HW132504  13.186   7.815  10.082
10224SOL    HW232505  13.070   7.754  10.158
10225SOL     OW32506  10.284   7.241  14.621
10225SOL    HW132507  10.280   7.337  14.621
10225SOL    HW232508  10.199   7.214  14.655
10226SOL     OW32509  10.444   8.395   9.675
10226SOL    HW132510  10.406   8.406   9.587
10226SOL    HW232511  10.470   8.303   9.678
10227SOL     OW32512  14.731  10.635  13.604
10227SOL    HW132513  14.784  10.556  13.613
10227SOL    HW232514  14.647  10.612  13.646
10228SOL     OW32515  12.152   8.008   9.065
10228SOL    HW132516  12.181   7.961   8.987
10228SOL    HW232517  12.224   7.998   9.127
10229SOL     OW32518   4.655  12.814   5.460
10229SOL    HW132519   4.712  12.849   5.392
10229SOL    HW232520   4.652  12.882   5.526
10230SOL     OW32521   5.777   9.522   0.966
10230SOL    HW132522   5.775   9.581   0.891
10230SOL    HW232523   5.864   9.483   0.964
10231SOL     OW32524  11.680   7.090   3.015
10231SOL    HW132525  11.719   7.098   2.928
10231SOL    HW232526  11.734   7.147   3.070
10232SOL     OW32527   6.477  13.526   1.795
10232SOL    HW132528   6.391  13.500   1.763
10232SOL    HW232529   6.536  13.457   1.766
10233SOL     OW32530   3.825  11.669  10.265
10233SOL    HW132531   3.746  11.648  10.216
10233SOL    HW232532   3.811  11.630  10.351
10234SOL     OW32533   5.977   5.058  11.227
10234SOL    HW132534   5.927   5.137  11.208
10234SOL    HW232535   6.047   5.058  11.162
10235SOL     OW32536   4.094   5.579   5.002
10235SOL    HW132537   4.099   5.666   5.042
10235SOL    HW232538   4.185   5.554   4.989
10236SOL     OW32539   9.940  13.631  14.069
10236SOL    HW132540  10.009  13.635  14.135
10236SOL    HW232541   9.862  13.605  14.117
10237SOL     OW32542   5.534  11.453  12.151
10237SOL    HW132543   5.536  11.484  12.060
10237SOL    HW232544   5.460  11.391  12.153
10238SOL     OW32545  13.171   0.520  13.996
10238SOL    HW132546  13.183   0.466  13.919
10238SOL    HW232547  13.212   0.604  13.974
10239SOL     OW32548   9.687   4.435   0.999
10239SOL    HW132549   9.774   4.444   1.038
10239SOL    HW232550   9.660   4.526   0.981
10240SOL     OW32551  10.701   5.627  10.685
10240SOL    HW132552  10.669   5.675  10.762
10240SOL    HW232553  10.766   5.567  10.720
10241SOL     OW32554   1.924  10.619   8.539
10241SOL    HW132555   1.968  10.685   8.593
10241SOL    HW232556   1.934  10.538   8.588
10242SOL     OW32557  10.075  14.812   2.194
10242SOL    HW132558   9.984  14.790   2.217
10242SOL    HW232559  10.088   0.018   2.229
10243SOL     OW32560   7.998   7.844  12.381
10243SOL    HW132561   8.033   7.867  12.467
10243SOL    HW232562   7.964   7.926  12.346
10244SOL     OW32563   0.743   2.665   9.527
10244SOL    HW132564   0.794   2.593   9.490
10244SOL    HW232565   0.727   2.639   9.618
10245SOL     OW32566  11.613   7.249  11.160
10245SOL    HW132567  11.595   7.337  11.191
10245SOL    HW232568  11.686   7.259  11.100
10246SOL     OW32569  14.466   0.566   6.945
10246SOL    HW132570  14.408   0.610   6.884
10246SOL    HW232571  14.499   0.490   6.897
10247SOL     OW32572   2.139   1.344  14.372
10247SOL    HW132573   2.097   1.377  14.451
10247SOL    HW232574   2.141   1.419  14.313
10248SOL     OW32575   9.908   9.289   1.720
10248SOL    HW132576   9.999   9.269   1.700
10248SOL    HW232577   9.863   9.284   1.636
10249SOL     OW32578   1.471  11.691  12.918
10249SOL    HW132579   1.495  11.728  12.833
10249SOL    HW232580   1.498  11.757  12.982
10250SOL     OW32581   5.066   0.420   9.023
10250SOL    HW132582   5.023   0.426   8.937
10250SOL    HW232583   5.143   0.365   9.007
10251SOL     OW32584   1.307   7.516   6.747
10251SOL    HW132585   1.350   7.487   6.667
10251SOL    HW232586   1.370   7.497   6.817
10252SOL     OW32587  11.011   6.673  13.611
10252SOL    HW132588  11.042   6.735  13.545
10252SOL    HW232589  10.929   6.711  13.643
10253SOL     OW32590   8.277   0.231  10.726
10253SOL    HW132591   8.292   0.141  10.754
10253SOL    HW232592   8.266   0.280  10.807
10254SOL     OW32593   5.784   9.521   6.943
10254SOL    HW132594   5.781   9.595   6.883
10254SOL    HW232595   5.775   9.444   6.888
10255SOL     OW32596   2.190  13.424   7.305
10255SOL    HW132597   2.144  13.507   7.292
10255SOL    HW232598   2.283  13.449   7.308
10256SOL     OW32599  13.768   5.604   0.996
10256SOL    HW132600  13.723   5.607   0.912
10256SOL    HW232601  13.817   5.521   0.993
10257SOL     OW32602   3.257  14.461  10.544
10257SOL    HW132603   3.263  14.556  10.541
10257SOL    HW232604   3.263  14.440  10.637
10258SOL     OW32605   8.359  12.244   1.555
10258SOL    HW132606   8.372  12.157   1.517
10258SOL    HW232607   8.355  12.229   1.649
10259SOL     OW32608   5.708   6.508   6.038
10259SOL    HW132609   5.725   6.438   5.975
10259SOL    HW232610   5.748   6.478   6.119
10260SOL     OW32611   4.428   4.378   7.563
10260SOL    HW132612   4.476   4.299   7.588
10260SOL    HW232613   4.445   4.439   7.635
10261SOL     OW32614  12.834   4.553   6.684
10261SOL    HW132615  12.908   4.525   6.739
10261SOL    HW232616  12.803   4.473   6.642
10262SOL     OW32617   5.868   6.519   9.971
10262SOL    HW132618   5.915   6.502   9.890
10262SOL    HW232619   5.833   6.607   9.962
10263SOL     OW32620   5.042  10.343   5.470
10263SOL    HW132621   5.068  10.300   5.389
10263SOL    HW232622   5.037  10.272   5.534
10264SOL     OW32623  13.143  10.053   3.868
10264SOL    HW132624  13.171  10.145   3.870
10264SOL    HW232625  13.094  10.045   3.786
10265SOL     OW32626   4.590  14.520  10.164
10265SOL    HW132627   4.562  14.519  10.072
10265SOL    HW232628   4.647  14.597  10.170
10266SOL     OW32629   7.796   0.876  12.861
10266SOL    HW132630   7.812   0.920  12.777
10266SOL    HW232631   7.799   0.783  12.841
10267SOL     OW32632   4.936   3.707   3.596
10267SOL    HW132633   4.913   3.778   3.536
10267SOL    HW232634   5.026   3.685   3.574
10268SOL     OW32635   5.285  10.476   8.541
10268SOL    HW132636   5.224  10.509   8.475
10268SOL    HW232637   5.366  10.523   8.524
10269SOL     OW32638   9.104  12.364  14.747
10269SOL    HW132639   9.159  12.368  14.826
10269SOL    HW232640   9.078  12.455  14.732
10270SOL     OW32641   0.460   3.797  14.207
10270SOL    HW132642   0.460   3.780  14.301
10270SOL    HW232643   0.552   3.800  14.183
10271SOL     OW32644   1.563   6.386   7.385
10271SOL    HW132645   1.602   6.471   7.367
10271SOL    HW232646   1.636   6.331   7.413
10272SOL     OW32647   7.921   4.942   8.427
10272SOL    HW132648   7.834   4.908   8.402
10272SOL    HW232649   7.908   4.979   8.514
10273SOL     OW32650   7.034  10.543  14.794
10273SOL    HW132651   6.964  10.601  14.823
10273SOL    HW232652   7.094  10.600  14.746
10274SOL     OW32653   8.434  12.354   3.503
10274SOL    HW132654   8.386  12.272   3.491
10274SOL    HW232655   8.473  12.346   3.590
10275SOL     OW32656   1.071   3.373   5.235
10275SOL    HW132657   1.138   3.422   5.281
10275SOL    HW232658   1.097   3.281   5.244
10276SOL     OW32659   2.219   7.733  14.689
10276SOL    HW132660   2.210   7.656  14.633
10276SOL    HW232661   2.314   7.745  14.697
10277SOL     OW32662   4.624   6.807   3.080
10277SOL    HW132663   4.555   6.752   3.117
10277SOL    HW232664   4.703   6.752   3.083
10278SOL     OW32665  13.365  14.371   5.329
10278SOL    HW132666  13.310  14.294   5.339
10278SOL    HW232667  13.355  14.398   5.238
10279SOL     OW32668   3.315   8.982   6.619
10279SOL    HW132669   3.364   8.900   6.625
10279SOL    HW232670   3.232   8.958   6.578
10280SOL     OW32671  11.480   4.515  13.347
10280SOL    HW132672  11.546   4.463  13.393
10280SOL    HW232673  11.530   4.574  13.292
10281SOL     OW32674   3.729   4.992   7.486
10281SOL    HW132675   3.796   4.995   7.418
10281SOL    HW232676   3.648   5.018   7.441
10282SOL     OW32677  11.745  12.892   4.516
10282SOL    HW132678  11.675  12.843   4.474
10282SOL    HW232679  11.706  12.977   4.537
10283SOL     OW32680   7.970  13.493   3.541
10283SOL    HW132681   7.902  13.431   3.568
10283SOL    HW232682   7.969  13.560   3.610
10284SOL     OW32683   5.158   9.733   2.678
10284SOL    HW132684   5.142   9.774   2.593
10284SOL    HW232685   5.079   9.681   2.694
10285SOL     OW32686  10.301   1.870   6.142
10285SOL    HW132687  10.316   1.816   6.220
10285SOL    HW232688  10.214   1.907   6.156
10286SOL     OW32689   5.317   0.811  10.886
10286SOL    HW132690   5.304   0.745  10.817
10286SOL    HW232691   5.355   0.761  10.959
10287SOL     OW32692   2.920   8.014   5.346
10287SOL    HW132693   2.983   8.064   5.293
10287SOL    HW232694   2.908   8.065   5.425
10288SOL     OW32695   8.137   4.460  12.169
10288SOL    HW132696   8.078   4.518  12.217
10288SOL    HW232697   8.218   4.460  12.220
10289SOL     OW32698   5.881  13.157  14.494
10289SOL    HW132699   5.807  13.202  14.534
10289SOL    HW232700   5.859  13.064  14.501
10290SOL     OW32701   8.343   0.813   7.188
10290SOL    HW132702   8.318   0.768   7.108
10290SOL    HW232703   8.343   0.744   7.255
10291SOL     OW32704   3.496  11.569  11.812
10291SOL    HW132705   3.477  11.477  11.829
10291SOL    HW232706   3.512  11.574  11.718
10292SOL     OW32707   1.837   4.403   7.313
10292SOL    HW132708   1.742   4.406   7.325
10292SOL    HW232709   1.873   4.445   7.391
10293SOL     OW32710   5.202   1.072   1.250
10293SOL    HW132711   5.212   1.039   1.161
10293SOL    HW232712   5.141   1.010   1.292
10294SOL     OW32713   4.594  13.236   8.760
10294SOL    HW132714   4.581  13.266   8.850
10294SOL    HW232715   4.658  13.165   8.767
10295SOL     OW32716  11.317   8.614   1.550
10295SOL    HW132717  11.347   8.673   1.481
10295SOL    HW232718  11.392   8.557   1.567
10296SOL     OW32719   1.655   8.464  12.637
10296SOL    HW132720   1.745   8.438  12.655
10296SOL    HW232721   1.623   8.398  12.575
10297SOL     OW32722  14.390   8.774   5.001
10297SOL    HW132723  14.365   8.712   5.069
10297SOL    HW232724  14.316   8.835   4.995
10298SOL     OW32725  13.174   8.118   1.097
10298SOL    HW132726  13.173   8.035   1.144
10298SOL    HW232727  13.122   8.102   1.018
10299SOL     OW32728   0.690   6.573  11.704
10299SOL    HW132729   0.749   6.523  11.648
10299SOL    HW232730   0.654   6.641  11.647
10300SOL     OW32731   7.681   7.129   4.221
10300SOL    HW132732   7.689   7.179   4.303
10300SOL    HW232733   7.771   7.124   4.188
10301SOL     OW32734   1.218   6.165   2.836
10301SOL    HW132735   1.216   6.235   2.902
10301SOL    HW232736   1.263   6.204   2.761
10302SOL     OW32737  11.149   4.042   2.217
10302SOL    HW132738  11.079   4.043   2.152
10302SOL    HW232739  11.105   4.050   2.301
10303SOL     OW32740   8.314   4.829  11.702
10303SOL    HW132741   8.318   4.784  11.786
10303SOL    HW232742   8.280   4.916  11.723
10304SOL     OW32743  12.979   6.276  13.319
10304SOL    HW132744  13.046   6.312  13.377
10304SOL    HW232745  13.009   6.187  13.300
10305SOL     OW32746   5.449  12.138   5.817
10305SOL    HW132747   5.521  12.127   5.878
10305SOL    HW232748   5.470  12.218   5.769
10306SOL     OW32749   2.363   4.936  12.707
10306SOL    HW132750   2.285   4.990  12.721
10306SOL    HW232751   2.328   4.849  12.684
10307SOL     OW32752   1.283   4.489   3.233
10307SOL    HW132753   1.239   4.409   3.205
10307SOL    HW232754   1.243   4.558   3.180
10308SOL     OW32755  14.018   2.447  11.878
10308SOL    HW132756  13.963   2.482  11.949
10308SOL    HW232757  14.056   2.367  11.914
10309SOL     OW32758  13.469  14.803   8.519
10309SOL    HW132759  13.482  14.708   8.514
10309SOL    HW232760  13.441  14.828   8.431
10310SOL     OW32761   0.108   3.720  14.583
10310SOL    HW132762   0.040   3.770  14.538
10310SOL    HW232763   0.063   3.673  14.653
10311SOL     OW32764  10.788   1.993   3.723
10311SOL    HW132765  10.736   1.933   3.669
10311SOL    HW232766  10.837   1.936   3.782
10312SOL     OW32767   7.287  10.906  11.493
10312SOL    HW132768   7.358  10.952  11.538
10312SOL    HW232769   7.305  10.813  11.508
10313SOL     OW32770  11.081   5.152   0.755
10313SOL    HW132771  11.002   5.152   0.808
10313SOL    HW232772  11.072   5.228   0.698
10314SOL     OW32773   4.479  10.664   4.807
10314SOL    HW132774   4.386  10.641   4.810
10314SOL    HW232775   4.481  10.753   4.774
10315SOL     OW32776  14.663  14.668   6.166
10315SOL    HW132777  14.692  14.747   6.211
10315SOL    HW232778  14.699  14.596   6.218
10316SOL     OW32779  13.505  10.999  13.886
10316SOL    HW132780  13.451  10.977  13.961
10316SOL    HW232781  13.511  11.095  13.887
10317SOL     OW32782   2.591   0.281   6.631
10317SOL    HW132783   2.676   0.241   6.651
10317SOL    HW232784   2.591   0.362   6.682
10318SOL     OW32785   8.582  13.408  10.789
10318SOL    HW132786   8.654  13.463  10.758
10318SOL    HW232787   8.619  13.320  10.791
10319SOL     OW32788   0.737  13.827  13.344
10319SOL    HW132789   0.772  13.887  13.410
10319SOL    HW232790   0.792  13.749  13.351
10320SOL     OW32791   0.873   3.098   0.991
10320SOL    HW132792   0.894   3.158   1.062
10320SOL    HW232793   0.939   3.028   0.998
10321SOL     OW32794  11.232   9.667   9.829
10321SOL    HW132795  11.182   9.742   9.859
10321SOL    HW232796  11.166   9.602   9.806
10322SOL     OW32797  13.082   2.331  13.986
10322SOL    HW132798  13.018   2.274  13.943
10322SOL    HW232799  13.039   2.417  13.989
10323SOL     OW32800  10.108   6.857   0.019
10323SOL    HW132801  10.032   6.915   0.011
10323SOL    HW232802  10.095   6.791  14.833
10324SOL     OW32803   6.302   4.994   0.001
10324SOL    HW132804   6.316   5.084  14.853
10324SOL    HW232805   6.372   4.980   0.065
10325SOL     OW32806  10.786   8.040  11.655
10325SOL    HW132807  10.772   7.947  11.637
10325SOL    HW232808  10.717   8.085  11.606
10326SOL     OW32809   8.298   4.940  12.534
10326SOL    HW132810   8.254   5.024  12.551
10326SOL    HW232811   8.333   4.914  12.618
10327SOL     OW32812   7.122   9.672  13.717
10327SOL    HW132813   7.057   9.743  13.717
10327SOL    HW232814   7.155   9.670  13.806
10328SOL     OW32815   5.697   0.028  11.256
10328SOL    HW132816   5.674  14.822  11.285
10328SOL    HW232817   5.628   0.052  11.195
10329SOL     OW32818  14.031   6.061   4.007
10329SOL    HW132819  13.994   6.131   4.063
10329SOL    HW232820  14.042   6.103   3.922
10330SOL     OW32821  14.734  13.341   3.195
10330SOL    HW132822  14.744  13.411   3.130
10330SOL    HW232823  14.739  13.260   3.144
10331SOL     OW32824  14.189   7.156  12.183
10331SOL    HW132825  14.126   7.090  12.213
10331SOL    HW232826  14.257   7.157  12.250
10332SOL     OW32827   6.832   1.840   5.704
10332SOL    HW132828   6.769   1.912   5.713
10332SOL    HW232829   6.837   1.823   5.610
10333SOL     OW32830   1.191  12.496   7.368
10333SOL    HW132831   1.219  12.457   7.450
10333SOL    HW232832   1.238  12.580   7.363
10334SOL     OW32833  10.112   2.217  14.362
10334SOL    HW132834  10.164   2.241  14.286
10334SOL    HW232835  10.026   2.194  14.327
10335SOL     OW32836   7.811   5.621   0.889
10335SOL    HW132837   7.727   5.587   0.918
10335SOL    HW232838   7.800   5.716   0.888
10336SOL     OW32839   2.943   8.627  14.734
10336SOL    HW132840   2.925   8.567  14.661
10336SOL    HW232841   3.021   8.590  14.775
10337SOL     OW32842   2.528  14.092   2.989
10337SOL    HW132843   2.560  14.044   2.913
10337SOL    HW232844   2.554  14.039   3.064
10338SOL     OW32845  13.734   0.854   7.786
10338SOL    HW132846  13.774   0.832   7.870
10338SOL    HW232847  13.732   0.772   7.738
10339SOL     OW32848   3.389   7.738   6.875
10339SOL    HW132849   3.393   7.649   6.838
10339SOL    HW232850   3.310   7.739   6.928
10340SOL     OW32851   3.225   2.959   5.650
10340SOL    HW132852   3.223   2.994   5.739
10340SOL    HW232853   3.317   2.965   5.624
10341SOL     OW32854   4.335   4.720  11.050
10341SOL    HW132855   4.244   4.727  11.079
10341SOL    HW232856   4.329   4.703  10.956
10342SOL     OW32857   6.890  13.101   3.249
10342SOL    HW132858   6.806  13.082   3.206
10342SOL    HW232859   6.931  13.015   3.260
10343SOL     OW32860   7.843   1.008   4.062
10343SOL    HW132861   7.780   1.077   4.043
10343SOL    HW232862   7.801   0.955   4.129
10344SOL     OW32863   2.111  11.243   3.182
10344SOL    HW132864   2.047  11.201   3.125
10344SOL    HW232865   2.195  11.208   3.153
10345SOL     OW32866  13.823   4.909  13.310
10345SOL    HW132867  13.862   4.983  13.357
10345SOL    HW232868  13.734   4.902  13.345
10346SOL     OW32869  12.347  14.336   1.767
10346SOL    HW132870  12.362  14.244   1.790
10346SOL    HW232871  12.266  14.335   1.715
10347SOL     OW32872   5.237   0.254   2.889
10347SOL    HW132873   5.326   0.290   2.898
10347SOL    HW232874   5.251   0.161   2.875
10348SOL     OW32875   1.833  13.911   4.883
10348SOL    HW132876   1.915  13.865   4.862
10348SOL    HW232877   1.842  13.996   4.839
10349SOL     OW32878   5.279   6.731   9.974
10349SOL    HW132879   5.272   6.822  10.005
10349SOL    HW232880   5.339   6.736   9.900
10350SOL     OW32881   4.489   3.427  14.725
10350SOL    HW132882   4.539   3.360  14.770
10350SOL    HW232883   4.414   3.445  14.782
10351SOL     OW32884   6.028   2.222   7.934
10351SOL    HW132885   6.077   2.146   7.902
10351SOL    HW232886   6.044   2.290   7.868
10352SOL     OW32887   9.209  14.195   2.561
10352SOL    HW132888   9.174  14.108   2.540
10352SOL    HW232889   9.304  14.183   2.559
10353SOL     OW32890   2.745   2.478   9.332
10353SOL    HW132891   2.731   2.532   9.254
10353SOL    HW232892   2.687   2.516   9.398
10354SOL     OW32893   4.559  10.217  13.009
10354SOL    HW132894   4.476  10.185  12.972
10354SOL    HW232895   4.532  10.284  13.072
10355SOL     OW32896   9.766   4.541   9.465
10355SOL    HW132897   9.773   4.534   9.370
10355SOL    HW232898   9.788   4.453   9.497
10356SOL     OW32899  10.476   3.265  11.519
10356SOL    HW132900  10.492   3.355  11.548
10356SOL    HW232901  10.381   3.257  11.517
10357SOL     OW32902  12.390   0.287  10.042
10357SOL    HW132903  12.296   0.303  10.029
10357SOL    HW232904  12.420   0.364  10.091
10358SOL     OW32905   4.527   4.063   0.238
10358SOL    HW132906   4.550   4.133   0.299
10358SOL    HW232907   4.448   4.094   0.195
10359SOL     OW32908   0.250   6.132   5.986
10359SOL    HW132909   0.179   6.159   5.927
10359SOL    HW232910   0.292   6.214   6.013
10360SOL     OW32911  14.779   1.719   7.141
10360SOL    HW132912  14.856   1.728   7.197
10360SOL    HW232913  14.761   1.625   7.140
10361SOL     OW32914   1.617   9.880   7.452
10361SOL    HW132915   1.557   9.922   7.513
10361SOL    HW232916   1.704   9.907   7.481
10362SOL     OW32917  14.802   3.877  14.474
10362SOL    HW132918  14.712   3.897  14.499
10362SOL    HW232919  14.855   3.938  14.525
10363SOL     OW32920   0.489   6.196   0.717
10363SOL    HW132921   0.400   6.174   0.744
10363SOL    HW232922   0.544   6.174   0.792
10364SOL     OW32923   5.910   0.725  10.431
10364SOL    HW132924   5.937   0.810  10.396
10364SOL    HW232925   5.839   0.697  10.373
10365SOL     OW32926   4.722   6.779  10.581
10365SOL    HW132927   4.816   6.776  10.600
10365SOL    HW232928   4.695   6.867  10.609
10366SOL     OW32929   6.918  13.478   3.413
10366SOL    HW132930   6.832  13.473   3.454
10366SOL    HW232931   6.907  13.436   3.328
10367SOL     OW32932  13.263  10.569  11.360
10367SOL    HW132933  13.332  10.535  11.418
10367SOL    HW232934  13.310  10.625  11.298
10368SOL     OW32935   4.106   4.871   7.583
10368SOL    HW132936   4.171   4.829   7.527
10368SOL    HW232937   4.156   4.932   7.637
10369SOL     OW32938  12.386   7.581  11.291
10369SOL    HW132939  12.460   7.522  11.304
10369SOL    HW232940  12.331   7.567  11.368
10370SOL     OW32941  14.430   0.354  11.653
10370SOL    HW132942  14.354   0.410  11.639
10370SOL    HW232943  14.460   0.375  11.742
10371SOL     OW32944   8.596  14.258  14.304
10371SOL    HW132945   8.513  14.265  14.256
10371SOL    HW232946   8.584  14.182  14.361
10372SOL     OW32947   8.552   4.912  14.655
10372SOL    HW132948   8.628   4.862  14.686
10372SOL    HW232949   8.498   4.925  14.732
10373SOL     OW32950   7.464   8.138   5.788
10373SOL    HW132951   7.454   8.056   5.740
10373SOL    HW232952   7.384   8.187   5.770
10374SOL     OW32953   2.500   4.653   5.950
10374SOL    HW132954   2.431   4.592   5.973
10374SOL    HW232955   2.455   4.736   5.936
10375SOL     OW32956   8.068   0.695   2.374
10375SOL    HW132957   8.099   0.644   2.299
10375SOL    HW232958   8.092   0.641   2.450
10376SOL     OW32959  11.861   6.896  10.383
10376SOL    HW132960  11.806   6.962  10.427
10376SOL    HW232961  11.889   6.938  10.303
10377SOL     OW32962  12.394   4.151   9.880
10377SOL    HW132963  12.435   4.234   9.855
10377SOL    HW232964  12.338   4.127   9.806
10378SOL     OW32965  12.948   2.871  12.269
10378SOL    HW132966  12.859   2.895  12.244
10378SOL    HW232967  12.983   2.826  12.192
10379SOL     OW32968   1.059   9.049   4.881
10379SOL    HW132969   1.148   9.063   4.850
10379SOL    HW232970   1.041   8.957   4.861
10380SOL     OW32971  14.270   2.999   2.799
10380SOL    HW132972  14.338   2.935   2.821
10380SOL    HW232973  14.294   3.077   2.849
10381SOL     OW32974   1.058   8.246  12.167
10381SOL    HW132975   1.023   8.207  12.247
10381SOL    HW232976   1.139   8.198  12.150
10382SOL     OW32977  12.339   8.999   4.040
10382SOL    HW132978  12.426   8.961   4.034
10382SOL    HW232979  12.354   9.089   4.072
10383SOL     OW32980  14.296   7.003   6.341
10383SOL    HW132981  14.293   7.098   6.329
10383SOL    HW232982  14.264   6.967   6.258
10384SOL     OW32983  12.739   7.416   1.822
10384SOL    HW132984  12.666   7.476   1.805
10384SOL    HW232985  12.749   7.419   1.917
10385SOL     OW32986   4.607   0.513  11.258
10385SOL    HW132987   4.577   0.527  11.347
10385SOL    HW232988   4.631   0.421  11.254
10386SOL     OW32989   5.697   0.941  12.362
10386SOL    HW132990   5.738   1.006  12.419
10386SOL    HW232991   5.732   0.960  12.275
10387SOL     OW32992   7.618   5.298   0.080
10387SOL    HW132993   7.653   5.387   0.081
10387SOL    HW232994   7.533   5.305   0.039
10388SOL     OW32995   6.941   8.974  14.690
10388SOL    HW132996   6.976   9.051  14.645
10388SOL    HW232997   6.888   9.010  14.761
10389SOL     OW32998   1.075  11.054   4.802
10389SOL    HW132999   0.995  11.003   4.804
10389SOL    HW233000   1.124  11.019   4.727
10390SOL     OW33001  14.834  14.284  11.235
10390SOL    HW133002  14.857  14.222  11.166
10390SOL    HW233003  14.837  14.231  11.316
10391SOL     OW33004   5.819   8.991   2.859
10391SOL    HW133005   5.902   8.955   2.888
10391SOL    HW233006   5.753   8.940   2.907
10392SOL     OW33007  11.917   8.573   6.130
10392SOL    HW133008  11.940   8.552   6.220
10392SOL    HW233009  11.892   8.666   6.133
10393SOL     OW33010  12.690   8.106   9.568
10393SOL    HW133011  12.644   8.059   9.638
10393SOL    HW233012  12.745   8.040   9.527
10394SOL     OW33013  14.406   0.012  11.514
10394SOL    HW133014  14.486   0.015  11.461
10394SOL    HW233015  14.375  14.804  11.503
10395SOL     OW33016  12.068   8.110   3.580
10395SOL    HW133017  12.024   8.051   3.519
10395SOL    HW233018  12.158   8.115   3.549
10396SOL     OW33019   0.982   7.204  12.989
10396SOL    HW133020   0.993   7.268  13.059
10396SOL    HW233021   0.920   7.140  13.023
10397SOL     OW33022   8.732   9.668   4.020
10397SOL    HW133023   8.753   9.587   4.066
10397SOL    HW233024   8.684   9.639   3.942
10398SOL     OW33025   4.300   4.878   7.094
10398SOL    HW133026   4.272   4.949   7.151
10398SOL    HW233027   4.361   4.827   7.148
10399SOL     OW33028   3.543  13.976  10.142
10399SOL    HW133029   3.580  13.889  10.159
10399SOL    HW233030   3.517  14.009  10.228
10400SOL     OW33031  12.009   7.985   1.485
10400SOL    HW133032  11.916   7.968   1.499
10400SOL    HW233033  12.051   7.900   1.495
10401SOL     OW33034   2.808   9.591  10.686
10401SOL    HW133035   2.812   9.679  10.722
10401SOL    HW233036   2.721   9.583  10.648
10402SOL     OW33037   1.732   3.780   1.551
10402SOL    HW133038   1.788   3.731   1.610
10402SOL    HW233039   1.785   3.793   1.472
10403SOL     OW33040   4.774   5.138   0.900
10403SOL    HW133041   4.787   5.086   0.821
10403SOL    HW233042   4.683   5.167   0.896
10404SOL     OW33043  13.055   2.608  10.287
10404SOL    HW133044  13.065   2.535  10.349
10404SOL    HW233045  12.960   2.618  10.277
10405SOL     OW33046   7.406   2.450  11.670
10405SOL    HW133047   7.470   2.489  11.730
10405SOL    HW233048   7.416   2.498  11.588
10406SOL     OW33049   7.278  13.856  10.445
10406SOL    HW133050   7.251  13.815  10.362
10406SOL    HW233051   7.359  13.811  10.469
10407SOL     OW33052  14.658   7.178   3.829
10407SOL    HW133053  14.612   7.101   3.863
10407SOL    HW233054  14.588   7.239   3.804
10408SOL     OW33055   2.094  10.323   5.123
10408SOL    HW133056   2.055  10.374   5.051
10408SOL    HW233057   2.121  10.241   5.081
10409SOL     OW33058  14.740   2.684   5.728
10409SOL    HW133059  14.677   2.633   5.677
10409SOL    HW233060  14.809   2.622   5.752
10410SOL     OW33061   8.357  13.720   7.741
10410SOL    HW133062   8.310  13.741   7.660
10410SOL    HW233063   8.289  13.720   7.808
10411SOL     OW33064   9.173   3.296  14.873
10411SOL    HW133065   9.166   3.249  14.790
10411SOL    HW233066   9.105   3.256   0.046
10412SOL     OW33067   7.556  11.985  14.696
10412SOL    HW133068   7.584  11.929  14.624
10412SOL    HW233069   7.618  12.058  14.696
10413SOL     OW33070  13.390  11.673  10.289
10413SOL    HW133071  13.475  11.689  10.332
10413SOL    HW233072  13.377  11.750  10.233
10414SOL     OW33073   2.566   5.825   0.943
10414SOL    HW133074   2.532   5.738   0.965
10414SOL    HW233075   2.555   5.832   0.848
10415SOL     OW33076   4.844   4.785  12.549
10415SOL    HW133077   4.918   4.846  12.552
10415SOL    HW233078   4.884   4.700  12.531
10416SOL     OW33079   2.390  11.178  14.853
10416SOL    HW133080   2.340  11.199   0.050
10416SOL    HW233081   2.424  11.263  14.824
10417SOL     OW33082  12.046   7.161   0.997
10417SOL    HW133083  12.030   7.202   0.912
10417SOL    HW233084  12.077   7.233   1.053
10418SOL     OW33085   6.823   1.336   1.140
10418SOL    HW133086   6.887   1.265   1.134
10418SOL    HW233087   6.801   1.340   1.233
10419SOL     OW33088   6.735   5.184   7.741
10419SOL    HW133089   6.803   5.141   7.793
10419SOL    HW233090   6.715   5.265   7.788
10420SOL     OW33091   9.590  11.841  14.633
10420SOL    HW133092   9.513  11.838  14.690
10420SOL    HW233093   9.659  11.798  14.683
10421SOL     OW33094   0.585   5.078   6.432
10421SOL    HW133095   0.497   5.112   6.449
10421SOL    HW233096   0.571   4.998   6.382
10422SOL     OW33097   1.633   3.137   7.111
10422SOL    HW133098   1.538   3.131   7.120
10422SOL    HW233099   1.665   3.054   7.147
10423SOL     OW33100   4.687  11.746   7.564
10423SOL    HW133101   4.737  11.725   7.486
10423SOL    HW233102   4.654  11.662   7.596
10424SOL     OW33103  10.402  11.106  10.751
10424SOL    HW133104  10.325  11.143  10.709
10424SOL    HW233105  10.476  11.136  10.697
10425SOL     OW33106  13.219  13.383   9.293
10425SOL    HW133107  13.145  13.375   9.353
10425SOL    HW233108  13.245  13.475   9.299
10426SOL     OW33109  12.278  13.869   9.216
10426SOL    HW133110  12.226  13.946   9.195
10426SOL    HW233111  12.321  13.845   9.134
10427SOL     OW33112  11.506   7.416   5.824
10427SOL    HW133113  11.473   7.362   5.896
10427SOL    HW233114  11.437   7.480   5.808
10428SOL     OW33115   5.461   5.889   1.294
10428SOL    HW133116   5.492   5.876   1.383
10428SOL    HW233117   5.454   5.801   1.258
10429SOL     OW33118   1.076   9.176  11.655
10429SOL    HW133119   1.078   9.127  11.573
10429SOL    HW233120   1.007   9.133  11.707
10430SOL     OW33121   6.942   0.168  11.704
10430SOL    HW133122   7.005   0.153  11.774
10430SOL    HW233123   6.936   0.084  11.658
10431SOL     OW33124   2.080  14.250   8.490
10431SOL    HW133125   2.167  14.275   8.458
10431SOL    HW233126   2.091  14.240   8.584
10432SOL     OW33127  11.732   2.509  11.093
10432SOL    HW133128  11.775   2.453  11.157
10432SOL    HW233129  11.680   2.449  11.040
10433SOL     OW33130   1.493   3.476   9.790
10433SOL    HW133131   1.412   3.454   9.743
10433SOL    HW233132   1.520   3.559   9.752
10434SOL     OW33133  13.251   3.803   6.029
10434SOL    HW133134  13.240   3.776   6.121
10434SOL    HW233135  13.181   3.867   6.014
10435SOL     OW33136   5.149   9.347  12.177
10435SOL    HW133137   5.195   9.353  12.261
10435SOL    HW233138   5.214   9.313  12.116
10436SOL     OW33139   6.716  10.757   2.341
10436SOL    HW133140   6.796  10.808   2.354
10436SOL    HW233141   6.707  10.750   2.246
10437SOL     OW33142   6.500  12.894  12.326
10437SOL    HW133143   6.483  12.973  12.275
10437SOL    HW233144   6.541  12.833  12.265
10438SOL     OW33145   9.282  10.505   0.294
10438SOL    HW133146   9.358  10.524   0.349
10438SOL    HW233147   9.211  10.555   0.333
10439SOL     OW33148   5.297   3.012  10.967
10439SOL    HW133149   5.246   3.093  10.960
10439SOL    HW233150   5.291   2.972  10.880
10440SOL     OW33151   0.900   1.369  12.239
10440SOL    HW133152   0.959   1.352  12.313
10440SOL    HW233153   0.812   1.359  12.277
10441SOL     OW33154  11.223   7.065   1.108
10441SOL    HW133155  11.152   7.076   1.172
10441SOL    HW233156  11.198   7.120   1.035
10442SOL     OW33157  12.550   9.747   1.435
10442SOL    HW133158  12.537   9.665   1.388
10442SOL    HW233159  12.626   9.731   1.491
10443SOL     OW33160   3.248  12.015  12.140
10443SOL    HW133161   3.337  11.983  12.157
10443SOL    HW233162   3.217  12.046  12.225
10444SOL     OW33163   1.695   9.989   1.287
10444SOL    HW133164   1.680  10.038   1.206
10444SOL    HW233165   1.756   9.920   1.263
10445SOL     OW33166   3.464   1.209   8.701
10445SOL    HW133167   3.501   1.289   8.740
10445SOL    HW233168   3.522   1.190   8.627
10446SOL     OW33169  13.606   2.787  10.471
10446SOL    HW133170  13.618   2.875  10.504
10446SOL    HW233171  13.511   2.774  10.469
10447SOL     OW33172   3.896   5.951  14.596
10447SOL    HW133173   3.822   5.930  14.652
10447SOL    HW233174   3.972   5.950  14.654
10448SOL     OW33175   5.192  12.300   5.976
10448SOL    HW133176   5.135  12.240   6.025
10448SOL    HW233177   5.246  12.243   5.922
10449SOL     OW33178  14.774   2.240  11.784
10449SOL    HW133179  14.687   2.241  11.824
10449SOL    HW233180  14.830   2.204  11.853
10450SOL     OW33181   3.314   2.953   6.515
10450SOL    HW133182   3.261   2.996   6.582
10450SOL    HW233183   3.320   3.017   6.444
10451SOL     OW33184   5.169  10.228   8.596
10451SOL    HW133185   5.219  10.307   8.580
10451SOL    HW233186   5.140  10.235   8.687
10452SOL     OW33187   7.831   6.672  12.095
10452SOL    HW133188   7.919   6.658  12.061
10452SOL    HW233189   7.843   6.741  12.161
10453SOL     OW33190  10.921   9.226   2.310
10453SOL    HW133191  10.919   9.192   2.399
10453SOL    HW233192  10.994   9.181   2.268
10454SOL     OW33193   8.579   5.497   0.824
10454SOL    HW133194   8.674   5.507   0.818
10454SOL    HW233195   8.566   5.407   0.856
10455SOL     OW33196  11.018  11.381   9.296
10455SOL    HW133197  10.926  11.379   9.321
10455SOL    HW233198  11.027  11.313   9.229
10456SOL     OW33199   8.830   1.645   1.054
10456SOL    HW133200   8.854   1.638   0.962
10456SOL    HW233201   8.872   1.726   1.084
10457SOL     OW33202   6.259   3.280  13.590
10457SOL    HW133203   6.287   3.190  13.573
10457SOL    HW233204   6.278   3.327  13.509
10458SOL     OW33205   3.273   9.597   4.864
10458SOL    HW133206   3.257   9.536   4.791
10458SOL    HW233207   3.364   9.622   4.854
10459SOL     OW33208   5.348  11.283   6.046
10459SOL    HW133209   5.307  11.356   5.999
10459SOL    HW233210   5.364  11.317   6.134
10460SOL     OW33211   6.916  10.300   2.890
10460SOL    HW133212   6.886  10.371   2.946
10460SOL    HW233213   6.836  10.251   2.868
10461SOL     OW33214   6.553   3.285   0.261
10461SOL    HW133215   6.540   3.353   0.196
10461SOL    HW233216   6.465   3.267   0.296
10462SOL     OW33217   9.642   6.501   2.038
10462SOL    HW133218   9.583   6.434   2.072
10462SOL    HW233219   9.620   6.580   2.089
10463SOL     OW33220   6.800   2.510   2.740
10463SOL    HW133221   6.891   2.490   2.763
10463SOL    HW233222   6.773   2.436   2.684
10464SOL     OW33223   8.099   5.011   0.844
10464SOL    HW133224   8.011   5.027   0.810
10464SOL    HW233225   8.090   4.933   0.899
10465SOL     OW33226  14.803   2.229  14.028
10465SOL    HW133227  14.791   2.143  13.987
10465SOL    HW233228  14.801   2.291  13.955
10466SOL     OW33229   8.392   4.240  12.977
10466SOL    HW133230   8.311   4.248  13.028
10466SOL    HW233231   8.448   4.310  13.010
10467SOL     OW33232   0.125  12.144   7.722
10467SOL    HW133233   0.083  12.183   7.646
10467SOL    HW233234   0.203  12.101   7.687
10468SOL     OW33235   8.613   5.746   0.027
10468SOL    HW133236   8.599   5.673   0.087
10468SOL    HW233237   8.612   5.823   0.083
10469SOL     OW33238   5.165   1.202   1.849
10469SOL    HW133239   5.099   1.195   1.918
10469SOL    HW233240   5.114   1.218   1.770
10470SOL     OW33241   6.050   8.690   6.355
10470SOL    HW133242   6.074   8.733   6.272
10470SOL    HW233243   6.107   8.613   6.360
10471SOL     OW33244  10.556   9.462   3.391
10471SOL    HW133245  10.546   9.386   3.447
10471SOL    HW233246  10.476   9.464   3.338
10472SOL     OW33247  11.232   8.927   5.260
10472SOL    HW133248  11.155   8.899   5.210
10472SOL    HW233249  11.263   8.847   5.303
10473SOL     OW33250   0.175   1.909   7.359
10473SOL    HW133251   0.084   1.910   7.330
10473SOL    HW233252   0.225   1.942   7.284
10474SOL     OW33253   5.257   2.761   0.616
10474SOL    HW133254   5.202   2.687   0.590
10474SOL    HW233255   5.343   2.723   0.633
10475SOL     OW33256   4.920   8.678   6.348
10475SOL    HW133257   4.938   8.758   6.297
10475SOL    HW233258   4.936   8.704   6.439
10476SOL     OW33259   3.551   8.943  12.559
10476SOL    HW133260   3.456   8.933  12.545
10476SOL    HW233261   3.572   8.877  12.625
10477SOL     OW33262  10.331   4.273   0.747
10477SOL    HW133263  10.294   4.283   0.834
10477SOL    HW233264  10.348   4.363   0.718
10478SOL     OW33265   2.435   4.888  11.869
10478SOL    HW133266   2.439   4.979  11.839
10478SOL    HW233267   2.469   4.837  11.796
10479SOL     OW33268  11.410   6.645   2.172
10479SOL    HW133269  11.377   6.733   2.152
10479SOL    HW233270  11.339   6.604   2.221
10480SOL     OW33271   4.574   1.731   7.186
10480SOL    HW133272   4.536   1.723   7.099
10480SOL    HW233273   4.499   1.742   7.244
10481SOL     OW33274  12.792   8.105  10.851
10481SOL    HW133275  12.840   8.157  10.787
10481SOL    HW233276  12.852   8.034  10.875
10482SOL     OW33277   8.192   0.651  10.362
10482SOL    HW133278   8.266   0.606  10.321
10482SOL    HW233279   8.222   0.668  10.452
10483SOL     OW33280   2.920  10.865   1.747
10483SOL    HW133281   2.920  10.960   1.747
10483SOL    HW233282   2.828  10.840   1.742
10484SOL     OW33283   7.311  10.774  14.702
10484SOL    HW133284   7.295  10.725  14.622
10484SOL    HW233285   7.385  10.831  14.681
10485SOL     OW33286   1.334   0.262   0.598
10485SOL    HW133287   1.396   0.332   0.615
10485SOL    HW233288   1.288   0.288   0.518
10486SOL     OW33289   4.656  11.552  10.022
10486SOL    HW133290   4.676  11.484   9.957
10486SOL    HW233291   4.689  11.516  10.105
10487SOL     OW33292   4.729   6.420   5.862
10487SOL    HW133293   4.650   6.367   5.876
10487SOL    HW233294   4.745   6.461   5.947
10488SOL     OW33295  11.211   8.948   0.734
10488SOL    HW133296  11.201   8.945   0.829
10488SOL    HW233297  11.187   9.037   0.710
10489SOL     OW33298   7.068   1.059   8.241
10489SOL    HW133299   7.144   1.117   8.241
10489SOL    HW233300   7.089   0.991   8.305
10490SOL     OW33301   0.023  13.598  12.237
10490SOL    HW133302   0.071  13.669  12.280
10490SOL    HW233303  14.822  13.638  12.210
10491SOL     OW33304   5.601   8.875   3.007
10491SOL    HW133305   5.596   8.796   2.953
10491SOL    HW233306   5.511   8.908   3.008
10492SOL     OW33307  14.498   6.554   2.991
10492SOL    HW133308  14.592   6.573   2.993
10492SOL    HW233309  14.472   6.554   3.083
10493SOL     OW33310  11.564   1.600   5.291
10493SOL    HW133311  11.506   1.532   5.326
10493SOL    HW233312  11.521   1.682   5.313
10494SOL     OW33313   0.636   9.955   9.879
10494SOL    HW133314   0.581  10.034   9.873
10494SOL    HW233315   0.615   9.905   9.801
10495SOL     OW33316  10.950  11.575   5.175
10495SOL    HW133317  10.973  11.667   5.162
10495SOL    HW233318  10.865  11.577   5.220
10496SOL     OW33319  11.936   3.344   5.290
10496SOL    HW133320  11.961   3.252   5.301
10496SOL    HW233321  11.840   3.342   5.284
10497SOL     OW33322   0.622   6.772   6.968
10497SOL    HW133323   0.555   6.829   6.929
10497SOL    HW233324   0.641   6.814   7.053
10498SOL     OW33325   8.171  11.997   0.645
10498SOL    HW133326   8.228  12.000   0.722
10498SOL    HW233327   8.210  11.929   0.590
10499SOL     OW33328  14.442   9.419   9.141
10499SOL    HW133329  14.389   9.380   9.071
10499SOL    HW233330  14.493   9.347   9.176
10500SOL     OW33331   9.184   7.637   5.516
10500SOL    HW133332   9.206   7.679   5.599
10500SOL    HW233333   9.145   7.553   5.542
10501SOL     OW33334   4.030   6.629   9.013
10501SOL    HW133335   4.046   6.629   8.918
10501SOL    HW233336   4.117   6.644   9.051
10502SOL     OW33337  12.538   1.385   9.691
10502SOL    HW133338  12.560   1.353   9.779
10502SOL    HW233339  12.468   1.449   9.706
10503SOL     OW33340   1.328   9.453   1.335
10503SOL    HW133341   1.310   9.443   1.428
10503SOL    HW233342   1.376   9.374   1.311
10504SOL     OW33343   5.685  12.441  13.318
10504SOL    HW133344   5.645  12.528  13.325
10504SOL    HW233345   5.692  12.426  13.224
10505SOL     OW33346   1.892   7.029   9.366
10505SOL    HW133347   1.898   6.948   9.316
10505SOL    HW233348   1.895   7.098   9.299
10506SOL     OW33349  12.342   6.852  13.828
10506SOL    HW133350  12.325   6.821  13.740
10506SOL    HW233351  12.328   6.776  13.884
10507SOL     OW33352   1.792   8.758  10.768
10507SOL    HW133353   1.849   8.782  10.695
10507SOL    HW233354   1.782   8.663  10.760
10508SOL     OW33355   3.546   7.780   8.352
10508SOL    HW133356   3.504   7.695   8.343
10508SOL    HW233357   3.498   7.837   8.291
10509SOL     OW33358   4.519   8.245   3.208
10509SOL    HW133359   4.601   8.195   3.213
10509SOL    HW233360   4.543   8.327   3.166
10510SOL     OW33361   3.899  10.800   2.674
10510SOL    HW133362   3.967  10.769   2.734
10510SOL    HW233363   3.827  10.738   2.685
10511SOL     OW33364  12.400  13.177  11.265
10511SOL    HW133365  12.406  13.223  11.348
10511SOL    HW233366  12.349  13.098  11.284
10512SOL     OW33367  10.627   8.552   6.371
10512SOL    HW133368  10.614   8.467   6.329
10512SOL    HW233369  10.619   8.534   6.465
10513SOL     OW33370  14.506   9.021   6.846
10513SOL    HW133371  14.495   8.943   6.791
10513SOL    HW233372  14.458   9.001   6.926
10514SOL     OW33373  13.878   2.541   7.117
10514SOL    HW133374  13.866   2.483   7.042
10514SOL    HW233375  13.836   2.623   7.091
10515SOL     OW33376   9.512   4.704   7.324
10515SOL    HW133377   9.480   4.664   7.405
10515SOL    HW233378   9.601   4.732   7.345
10516SOL     OW33379  12.437   2.116   5.870
10516SOL    HW133380  12.456   2.029   5.903
10516SOL    HW233381  12.434   2.106   5.775
10517SOL     OW33382  14.500   1.745  10.403
10517SOL    HW133383  14.507   1.728  10.309
10517SOL    HW233384  14.415   1.709  10.427
10518SOL     OW33385  12.319   7.668   9.107
10518SOL    HW133386  12.255   7.601   9.085
10518SOL    HW233387  12.388   7.659   9.041
10519SOL     OW33388   8.428   2.752   3.140
10519SOL    HW133389   8.472   2.721   3.060
10519SOL    HW233390   8.498   2.757   3.205
10520SOL     OW33391  11.709  14.340   1.882
10520SOL    HW133392  11.758  14.375   1.957
10520SOL    HW233393  11.666  14.416   1.843
10521SOL     OW33394   4.383  13.793   0.742
10521SOL    HW133395   4.294  13.793   0.706
10521SOL    HW233396   4.433  13.848   0.682
10522SOL     OW33397   0.186   3.075   7.547
10522SOL    HW133398   0.167   3.135   7.619
10522SOL    HW233399   0.100   3.049   7.513
10523SOL     OW33400   1.635   3.623   6.098
10523SOL    HW133401   1.729   3.604   6.091
10523SOL    HW233402   1.598   3.546   6.141
10524SOL     OW33403   8.660   1.403   4.717
10524SOL    HW133404   8.746   1.419   4.755
10524SOL    HW233405   8.609   1.366   4.788
10525SOL     OW33406   4.811  12.079   8.288
10525SOL    HW133407   4.732  12.088   8.342
10525SOL    HW233408   4.840  12.169   8.275
10526SOL     OW33409  14.504  13.172  10.292
10526SOL    HW133410  14.510  13.107  10.362
10526SOL    HW233411  14.579  13.229  10.306
10527SOL     OW33412   5.703   4.092  13.707
10527SOL    HW133413   5.619   4.123  13.674
10527SOL    HW233414   5.733   4.161  13.767
10528SOL     OW33415  11.309   1.484  12.462
10528SOL    HW133416  11.388   1.489  12.516
10528SOL    HW233417  11.312   1.397  12.423
10529SOL     OW33418   1.328   2.389   3.026
10529SOL    HW133419   1.325   2.388   2.931
10529SOL    HW233420   1.265   2.323   3.053
10530SOL     OW33421  13.684  10.375  11.699
10530SOL    HW133422  13.690  10.379  11.604
10530SOL    HW233423  13.698  10.465  11.728
10531SOL     OW33424   0.127  11.108   8.790
10531SOL    HW133425   0.177  11.028   8.775
10531SOL    HW233426   0.086  11.127   8.706
10532SOL     OW33427   7.654   2.566   2.111
10532SOL    HW133428   7.586   2.632   2.101
10532SOL    HW233429   7.732   2.605   2.073
10533SOL     OW33430   5.390   1.613   2.427
10533SOL    HW133431   5.360   1.648   2.511
10533SOL    HW233432   5.317   1.629   2.367
10534SOL     OW33433   6.323   5.358  11.427
10534SOL    HW133434   6.342   5.282  11.482
10534SOL    HW233435   6.229   5.355  11.413
10535SOL     OW33436   0.504  10.824   5.489
10535SOL    HW133437   0.545  10.739   5.472
10535SOL    HW233438   0.522  10.842   5.581
10536SOL     OW33439   4.060   6.410   4.892
10536SOL    HW133440   4.021   6.323   4.900
10536SOL    HW233441   4.153   6.393   4.875
10537SOL     OW33442  13.959  11.666  14.535
10537SOL    HW133443  13.987  11.648  14.624
10537SOL    HW233444  14.041  11.676  14.486
10538SOL     OW33445  13.266  12.589   5.786
10538SOL    HW133446  13.173  12.580   5.766
10538SOL    HW233447  13.268  12.622   5.876
10539SOL     OW33448   7.457  10.250   7.416
10539SOL    HW133449   7.545  10.247   7.454
10539SOL    HW233450   7.464  10.312   7.343
10540SOL     OW33451   2.348  12.312   3.345
10540SOL    HW133452   2.408  12.384   3.329
10540SOL    HW233453   2.318  12.325   3.435
10541SOL     OW33454   2.208   5.956   6.972
10541SOL    HW133455   2.295   5.989   6.948
10541SOL    HW233456   2.148   6.001   6.912
10542SOL     OW33457  14.004   8.205  13.357
10542SOL    HW133458  13.995   8.123  13.310
10542SOL    HW233459  13.956   8.269  13.304
10543SOL     OW33460  11.670   9.523  11.082
10543SOL    HW133461  11.651   9.597  11.139
10543SOL    HW233462  11.695   9.563  10.999
10544SOL     OW33463   0.662   9.198   4.789
10544SOL    HW133464   0.744   9.189   4.741
10544SOL    HW233465   0.617   9.270   4.745
10545SOL     OW33466   3.159  13.483   6.521
10545SOL    HW133467   3.218  13.470   6.595
10545SOL    HW233468   3.116  13.567   6.539
10546SOL     OW33469   3.312   6.338   8.739
10546SOL    HW133470   3.234   6.298   8.777
10546SOL    HW233471   3.379   6.270   8.745
10547SOL     OW33472   7.200  10.586  10.963
10547SOL    HW133473   7.253  10.643  10.908
10547SOL    HW233474   7.264  10.539  11.017
10548SOL     OW33475   2.409  13.713   5.913
10548SOL    HW133476   2.350  13.761   5.854
10548SOL    HW233477   2.415  13.769   5.991
10549SOL     OW33478   2.661   7.412   5.244
10549SOL    HW133479   2.624   7.473   5.307
10549SOL    HW233480   2.711   7.349   5.297
10550SOL     OW33481   3.522   2.105   8.669
10550SOL    HW133482   3.587   2.168   8.637
10550SOL    HW233483   3.527   2.110   8.764
10551SOL     OW33484   4.984   5.159  11.629
10551SOL    HW133485   4.998   5.173  11.722
10551SOL    HW233486   4.909   5.100  11.625
10552SOL     OW33487  14.330  13.529   8.512
10552SOL    HW133488  14.348  13.456   8.454
10552SOL    HW233489  14.416  13.569   8.527
10553SOL     OW33490  10.518  12.118   2.402
10553SOL    HW133491  10.576  12.050   2.437
10553SOL    HW233492  10.460  12.071   2.342
10554SOL     OW33493   8.307   1.235  10.517
10554SOL    HW133494   8.276   1.257  10.429
10554SOL    HW233495   8.326   1.142  10.513
10555SOL     OW33496   0.689  13.214   2.020
10555SOL    HW133497   0.706  13.135   1.968
10555SOL    HW233498   0.685  13.285   1.956
10556SOL     OW33499  13.761  10.794   8.866
10556SOL    HW133500  13.808  10.858   8.920
10556SOL    HW233501  13.735  10.725   8.927
10557SOL     OW33502  12.440   0.752   4.237
10557SOL    HW133503  12.364   0.792   4.280
10557SOL    HW233504  12.492   0.716   4.309
10558SOL     OW33505   1.529  12.201   8.750
10558SOL    HW133506   1.583  12.177   8.675
10558SOL    HW233507   1.490  12.119   8.780
10559SOL     OW33508  14.117   1.369   3.789
10559SOL    HW133509  14.162   1.287   3.769
10559SOL    HW233510  14.120   1.418   3.708
10560SOL     OW33511   5.881   7.373  13.196
10560SOL    HW133512   5.952   7.412  13.248
10560SOL    HW233513   5.877   7.282  13.227
10561SOL     OW33514   0.618  10.579   5.424
10561SOL    HW133515   0.625  10.537   5.338
10561SOL    HW233516   0.541  10.540   5.464
10562SOL     OW33517  13.197   2.903   5.337
10562SOL    HW133518  13.172   2.986   5.295
10562SOL    HW233519  13.169   2.836   5.276
10563SOL     OW33520   2.483   2.150   5.707
10563SOL    HW133521   2.504   2.213   5.638
10563SOL    HW233522   2.508   2.065   5.670
10564SOL     OW33523   2.926   2.032  10.818
10564SOL    HW133524   3.010   2.076  10.830
10564SOL    HW233525   2.947   1.955  10.766
10565SOL     OW33526   3.413  14.866   1.039
10565SOL    HW133527   3.348   0.042   1.079
10565SOL    HW233528   3.490   0.041   1.025
10566SOL     OW33529  13.092  10.647  14.450
10566SOL    HW133530  13.066  10.574  14.507
10566SOL    HW233531  13.151  10.699  14.504
10567SOL     OW33532   7.559  11.188   1.457
10567SOL    HW133533   7.508  11.227   1.528
10567SOL    HW233534   7.584  11.102   1.490
10568SOL     OW33535   1.569   4.760   4.502
10568SOL    HW133536   1.497   4.697   4.496
10568SOL    HW233537   1.645   4.707   4.528
10569SOL     OW33538   5.726   4.560   3.425
10569SOL    HW133539   5.712   4.487   3.365
10569SOL    HW233540   5.702   4.638   3.374
10570SOL     OW33541   5.529  13.400   1.881
10570SOL    HW133542   5.482  13.452   1.816
10570SOL    HW233543   5.490  13.313   1.874
10571SOL     OW33544  13.262   0.991   4.065
10571SOL    HW133545  13.228   1.035   3.987
10571SOL    HW233546  13.338   1.044   4.091
10572SOL     OW33547  11.945   1.099   9.939
10572SOL    HW133548  12.035   1.072   9.953
10572SOL    HW233549  11.951   1.189   9.909
10573SOL     OW33550  10.313  12.021   4.557
10573SOL    HW133551  10.257  12.071   4.615
10573SOL    HW233552  10.271  12.027   4.471
10574SOL     OW33553  13.866   1.094   7.672
10574SOL    HW133554  13.856   1.084   7.577
10574SOL    HW233555  13.808   1.027   7.709
10575SOL     OW33556   2.474   8.766   4.121
10575SOL    HW133557   2.514   8.801   4.041
10575SOL    HW233558   2.388   8.734   4.093
10576SOL     OW33559   9.076  11.739   7.201
10576SOL    HW133560   9.091  11.759   7.294
10576SOL    HW233561   8.985  11.762   7.186
10577SOL     OW33562   7.464   3.675   5.600
10577SOL    HW133563   7.500   3.687   5.512
10577SOL    HW233564   7.377   3.638   5.586
10578SOL     OW33565   8.736   7.363   0.836
10578SOL    HW133566   8.738   7.448   0.879
10578SOL    HW233567   8.814   7.318   0.867
10579SOL     OW33568  10.146   0.909   7.441
10579SOL    HW133569  10.191   0.994   7.433
10579SOL    HW233570  10.084   0.908   7.369
10580SOL     OW33571   9.880   9.036   6.982
10580SOL    HW133572   9.877   8.941   6.974
10580SOL    HW233573   9.796   9.065   6.947
10581SOL     OW33574   6.038   5.772  12.971
10581SOL    HW133575   6.015   5.727  13.051
10581SOL    HW233576   6.102   5.714  12.928
10582SOL     OW33577   4.950   1.868   6.904
10582SOL    HW133578   4.999   1.786   6.910
10582SOL    HW233579   4.917   1.882   6.993
10583SOL     OW33580  10.161   5.578   9.160
10583SOL    HW133581  10.104   5.652   9.179
10583SOL    HW233582  10.236   5.589   9.219
10584SOL     OW33583   9.004   0.478  14.252
10584SOL    HW133584   8.918   0.476  14.210
10584SOL    HW233585   8.995   0.546  14.320
10585SOL     OW33586   0.575  12.187   1.271
10585SOL    HW133587   0.480  12.177   1.268
10585SOL    HW233588   0.598  12.174   1.363
10586SOL     OW33589  14.177   1.582   6.062
10586SOL    HW133590  14.091   1.548   6.038
10586SOL    HW233591  14.166   1.678   6.063
10587SOL     OW33592   2.902   7.774  12.911
10587SOL    HW133593   2.970   7.815  12.965
10587SOL    HW233594   2.941   7.692  12.881
10588SOL     OW33595   8.155  12.291  11.556
10588SOL    HW133596   8.092  12.362  11.571
10588SOL    HW233597   8.139  12.264  11.466
10589SOL     OW33598   3.257  11.990  13.912
10589SOL    HW133599   3.213  11.926  13.968
10589SOL    HW233600   3.342  11.951  13.893
10590SOL     OW33601   9.448  10.468   1.559
10590SOL    HW133602   9.495  10.545   1.591
10590SOL    HW233603   9.403  10.499   1.480
10591SOL     OW33604   0.090  10.005  13.874
10591SOL    HW133605   0.123  10.026  13.961
10591SOL    HW233606   0.166  10.014  13.817
10592SOL     OW33607   9.843   7.143  11.742
10592SOL    HW133608   9.751   7.138  11.768
10592SOL    HW233609   9.891   7.148  11.825
10593SOL     OW33610  12.980   3.622  12.783
10593SOL    HW133611  13.024   3.572  12.852
10593SOL    HW233612  13.040   3.621  12.709
10594SOL     OW33613   5.454  10.893   4.503
10594SOL    HW133614   5.516  10.944   4.556
10594SOL    HW233615   5.415  10.833   4.566
10595SOL     OW33616  10.831  13.595  13.289
10595SOL    HW133617  10.917  13.559  13.314
10595SOL    HW233618  10.768  13.533  13.324
10596SOL     OW33619   3.502  14.574   4.374
10596SOL    HW133620   3.532  14.547   4.461
10596SOL    HW233621   3.576  14.621   4.336
10597SOL     OW33622   6.248   7.945  14.845
10597SOL    HW133623   6.305   8.022  14.840
10597SOL    HW233624   6.306   7.874  14.872
10598SOL     OW33625   4.767  10.574   8.186
10598SOL    HW133626   4.761  10.637   8.114
10598SOL    HW233627   4.819  10.502   8.151
10599SOL     OW33628  11.409   3.888   5.763
10599SOL    HW133629  11.342   3.935   5.714
10599SOL    HW233630  11.393   3.911   5.854
10600SOL     OW33631   2.870   6.621   4.476
10600SOL    HW133632   2.843   6.614   4.568
10600SOL    HW233633   2.878   6.531   4.446
10601SOL     OW33634  11.274   3.297   2.959
10601SOL    HW133635  11.293   3.387   2.933
10601SOL    HW233636  11.198   3.304   3.017
10602SOL     OW33637  10.418  12.782  11.699
10602SOL    HW133638  10.487  12.827  11.651
10602SOL    HW233639  10.348  12.848  11.707
10603SOL     OW33640  13.733   9.893   1.370
10603SOL    HW133641  13.799   9.848   1.422
10603SOL    HW233642  13.664   9.828   1.358
10604SOL     OW33643   5.155   9.025  13.521
10604SOL    HW133644   5.243   9.064  13.522
10604SOL    HW233645   5.096   9.099  13.512
10605SOL     OW33646  11.580   0.738  10.044
10605SOL    HW133647  11.606   0.827  10.065
10605SOL    HW233648  11.621   0.719   9.960
10606SOL     OW33649   2.106   4.286   5.685
10606SOL    HW133650   2.146   4.249   5.764
10606SOL    HW233651   2.177   4.291   5.622
10607SOL     OW33652   8.773  11.452   1.991
10607SOL    HW133653   8.860  11.490   1.978
10607SOL    HW233654   8.777  11.410   2.077
10608SOL     OW33655  13.974  13.049   3.515
10608SOL    HW133656  14.036  12.982   3.545
10608SOL    HW233657  13.969  13.036   3.420
10609SOL     OW33658   1.164   5.533   1.252
10609SOL    HW133659   1.248   5.532   1.299
10609SOL    HW233660   1.131   5.444   1.262
10610SOL     OW33661   8.030   6.782  13.287
10610SOL    HW133662   8.057   6.781  13.379
10610SOL    HW233663   7.954   6.840  13.285
10611SOL     OW33664   7.913   4.147  10.705
10611SOL    HW133665   7.987   4.203  10.680
10611SOL    HW233666   7.844   4.169  10.643
10612SOL     OW33667   5.759   4.609   6.470
10612SOL    HW133668   5.728   4.521   6.450
10612SOL    HW233669   5.705   4.637   6.544
10613SOL     OW33670   1.206  10.376   7.438
10613SOL    HW133671   1.279  10.323   7.406
10613SOL    HW233672   1.234  10.466   7.424
10614SOL     OW33673   0.412   2.538   6.294
10614SOL    HW133674   0.394   2.462   6.239
10614SOL    HW233675   0.325   2.576   6.311
10615SOL     OW33676  13.445   0.609  13.661
10615SOL    HW133677  13.412   0.625  13.573
10615SOL    HW233678  13.498   0.686  13.681
10616SOL     OW33679  14.648  11.572   1.277
10616SOL    HW133680  14.719  11.527   1.231
10616SOL    HW233681  14.666  11.666   1.265
10617SOL     OW33682   9.367   2.959   7.217
10617SOL    HW133683   9.358   2.930   7.126
10617SOL    HW233684   9.452   2.925   7.245
10618SOL     OW33685  14.397   4.750   4.104
10618SOL    HW133686  14.441   4.817   4.052
10618SOL    HW233687  14.338   4.799   4.162
10619SOL     OW33688   1.144  11.360  14.363
10619SOL    HW133689   1.191  11.390  14.285
10619SOL    HW233690   1.064  11.413  14.365
10620SOL     OW33691   4.464   1.449   4.679
10620SOL    HW133692   4.438   1.407   4.597
10620SOL    HW233693   4.396   1.423   4.742
10621SOL     OW33694   5.513   0.250   8.238
10621SOL    HW133695   5.570   0.226   8.312
10621SOL    HW233696   5.486   0.166   8.200
10622SOL     OW33697   9.908   5.386   7.287
10622SOL    HW133698   9.839   5.432   7.240
10622SOL    HW233699   9.975   5.369   7.221
10623SOL     OW33700   8.437   1.514   0.327
10623SOL    HW133701   8.470   1.603   0.312
10623SOL    HW233702   8.515   1.465   0.354
10624SOL     OW33703   1.114   1.184   8.059
10624SOL    HW133704   1.139   1.264   8.106
10624SOL    HW233705   1.162   1.114   8.103
10625SOL     OW33706   3.582  11.156  13.055
10625SOL    HW133707   3.530  11.108  13.121
10625SOL    HW233708   3.556  11.247  13.066
10626SOL     OW33709   9.337  13.636   8.691
10626SOL    HW133710   9.362  13.618   8.781
10626SOL    HW233711   9.273  13.568   8.669
10627SOL     OW33712   0.825   4.865  12.536
10627SOL    HW133713   0.853   4.870  12.445
10627SOL    HW233714   0.832   4.955  12.569
10628SOL     OW33715   3.814  14.811   1.904
10628SOL    HW133716   3.839   0.006   1.853
10628SOL    HW233717   3.731  14.835   1.945
10629SOL     OW33718   5.547   0.747   7.828
10629SOL    HW133719   5.571   0.807   7.758
10629SOL    HW233720   5.602   0.773   7.902
10630SOL     OW33721   3.554  10.485  12.350
10630SOL    HW133722   3.621  10.424  12.382
10630SOL    HW233723   3.527  10.534  12.428
10631SOL     OW33724  12.683  13.126   8.541
10631SOL    HW133725  12.751  13.109   8.606
10631SOL    HW233726  12.731  13.158   8.465
10632SOL     OW33727   4.537  12.571   0.331
10632SOL    HW133728   4.608  12.636   0.337
10632SOL    HW233729   4.560  12.517   0.256
10633SOL     OW33730   9.882  13.343   7.380
10633SOL    HW133731   9.839  13.352   7.465
10633SOL    HW233732   9.955  13.283   7.395
10634SOL     OW33733   3.372   8.665   1.839
10634SOL    HW133734   3.391   8.737   1.778
10634SOL    HW233735   3.381   8.586   1.787
10635SOL     OW33736  12.596   2.617  11.836
10635SOL    HW133737  12.680   2.659  11.817
10635SOL    HW233738  12.539   2.688  11.867
10636SOL     OW33739   1.585   1.689  14.446
10636SOL    HW133740   1.624   1.751  14.509
10636SOL    HW233741   1.650   1.683  14.376
10637SOL     OW33742   0.618  14.668   0.444
10637SOL    HW133743   0.656  14.656   0.531
10637SOL    HW233744   0.684  14.634   0.383
10638SOL     OW33745  11.116   2.295   3.187
10638SOL    HW133746  11.136   2.218   3.239
10638SOL    HW233747  11.187   2.357   3.208
10639SOL     OW33748   0.016   8.988  10.442
10639SOL    HW133749  14.842   8.980  10.518
10639SOL    HW233750   0.087   8.926  10.457
10640SOL     OW33751   5.440   3.833  14.330
10640SOL    HW133752   5.480   3.884  14.260
10640SOL    HW233753   5.502   3.837  14.403
10641SOL     OW33754   1.992  10.702   9.466
10641SOL    HW133755   1.942  10.658   9.398
10641SOL    HW233756   1.974  10.795   9.454
10642SOL     OW33757  12.335   5.517   5.617
10642SOL    HW133758  12.246   5.529   5.649
10642SOL    HW233759  12.328   5.447   5.552
10643SOL     OW33760   3.509   6.906   4.089
10643SOL    HW133761   3.462   6.824   4.071
10643SOL    HW233762   3.548   6.931   4.005
10644SOL     OW33763  10.842  11.167   9.403
10644SOL    HW133764  10.761  11.212   9.426
10644SOL    HW233765  10.841  11.163   9.307
10645SOL     OW33766  11.872   5.853  10.936
10645SOL    HW133767  11.961   5.881  10.959
10645SOL    HW233768  11.850   5.904  10.859
10646SOL     OW33769  10.406  12.716   1.973
10646SOL    HW133770  10.411  12.771   1.895
10646SOL    HW233771  10.484  12.739   2.023
10647SOL     OW33772   4.680   6.629   7.388
10647SOL    HW133773   4.723   6.546   7.369
10647SOL    HW233774   4.730   6.665   7.462
10648SOL     OW33775   4.111   2.457   4.701
10648SOL    HW133776   4.171   2.461   4.626
10648SOL    HW233777   4.136   2.532   4.755
10649SOL     OW33778  12.435   3.608  14.828
10649SOL    HW133779  12.431   3.604   0.042
10649SOL    HW233780  12.393   3.691  14.806
10650SOL     OW33781   4.681   6.426   8.688
10650SOL    HW133782   4.722   6.434   8.774
10650SOL    HW233783   4.608   6.489   8.690
10651SOL     OW33784   7.788   5.521  12.339
10651SOL    HW133785   7.750   5.554  12.421
10651SOL    HW233786   7.873   5.565  12.333
10652SOL     OW33787   7.091   1.176  12.580
10652SOL    HW133788   7.046   1.141  12.503
10652SOL    HW233789   7.179   1.140  12.576
10653SOL     OW33790  14.217   8.829   3.245
10653SOL    HW133791  14.200   8.816   3.338
10653SOL    HW233792  14.220   8.740   3.209
10654SOL     OW33793  12.491   0.748   7.141
10654SOL    HW133794  12.460   0.807   7.210
10654SOL    HW233795  12.536   0.677   7.187
10655SOL     OW33796   6.775  10.667   5.716
10655SOL    HW133797   6.858  10.621   5.727
10655SOL    HW233798   6.711  10.598   5.700
10656SOL     OW33799   1.651   7.828  12.043
10656SOL    HW133800   1.594   7.860  12.113
10656SOL    HW233801   1.636   7.734  12.040
10657SOL     OW33802   9.475   9.185   4.538
10657SOL    HW133803   9.381   9.168   4.548
10657SOL    HW233804   9.512   9.168   4.625
10658SOL     OW33805   4.045   3.584  10.353
10658SOL    HW133806   4.014   3.494  10.358
10658SOL    HW233807   3.997   3.629  10.422
10659SOL     OW33808   9.790  12.930  11.490
10659SOL    HW133809   9.787  12.960  11.399
10659SOL    HW233810   9.830  13.002  11.538
10660SOL     OW33811  13.363  12.919  13.363
10660SOL    HW133812  13.433  12.888  13.421
10660SOL    HW233813  13.303  12.966  13.420
10661SOL     OW33814  11.223   6.090  13.136
10661SOL    HW133815  11.248   6.021  13.075
10661SOL    HW233816  11.190   6.161  13.081
10662SOL     OW33817   0.713  13.524   2.134
10662SOL    HW133818   0.732  13.501   2.043
10662SOL    HW233819   0.783  13.585   2.157
10663SOL     OW33820  13.385   3.954  11.028
10663SOL    HW133821  13.425   3.942  11.114
10663SOL    HW233822  13.373   4.048  11.020
10664SOL     OW33823  14.405   5.431   1.240
10664SOL    HW133824  14.417   5.399   1.151
10664SOL    HW233825  14.321   5.476   1.238
10665SOL     OW33826   3.933   4.776  11.318
10665SOL    HW133827   3.928   4.836  11.243
10665SOL    HW233828   4.001   4.713  11.293
10666SOL     OW33829   2.852   1.862  14.727
10666SOL    HW133830   2.921   1.924  14.703
10666SOL    HW233831   2.770   1.910  14.712
10667SOL     OW33832   6.635   7.621   8.681
10667SOL    HW133833   6.676   7.600   8.597
10667SOL    HW233834   6.567   7.554   8.692
10668SOL     OW33835   9.578   0.049   2.337
10668SOL    HW133836   9.530  14.867   2.284
10668SOL    HW233837   9.656   0.070   2.285
10669SOL     OW33838   1.050   2.373  10.417
10669SOL    HW133839   1.123   2.417  10.460
10669SOL    HW233840   1.076   2.367  10.326
10670SOL     OW33841   2.930   1.537   2.113
10670SOL    HW133842   2.881   1.570   2.188
10670SOL    HW233843   3.012   1.504   2.151
10671SOL     OW33844  13.985   2.273   1.487
10671SOL    HW133845  14.018   2.350   1.440
10671SOL    HW233846  14.063   2.231   1.523
10672SOL     OW33847   0.633   9.326   9.586
10672SOL    HW133848   0.595   9.241   9.605
10672SOL    HW233849   0.724   9.319   9.615
10673SOL     OW33850  11.495   3.587   0.507
10673SOL    HW133851  11.582   3.627   0.511
10673SOL    HW233852  11.507   3.500   0.546
10674SOL     OW33853  13.588  13.803   6.167
10674SOL    HW133854  13.645  13.880   6.157
10674SOL    HW233855  13.646  13.736   6.202
10675SOL     OW33856   6.408  10.923   5.071
10675SOL    HW133857   6.406  10.902   4.978
10675SOL    HW233858   6.492  10.891   5.101
10676SOL     OW33859   3.902   2.568  11.050
10676SOL    HW133860   3.939   2.611  11.127
10676SOL    HW233861   3.811   2.552  11.073
10677SOL     OW33862   8.844  14.860   9.453
10677SOL    HW133863   8.764   0.020   9.483
10677SOL    HW233864   8.871   0.029   9.377
10678SOL     OW33865  11.239   3.274   9.810
10678SOL    HW133866  11.261   3.181   9.820
10678SOL    HW233867  11.147   3.274   9.786
10679SOL     OW33868   4.956   8.074   6.531
10679SOL    HW133869   4.871   8.079   6.575
10679SOL    HW233870   5.018   8.053   6.601
10680SOL     OW33871   1.777   2.887   4.278
10680SOL    HW133872   1.784   2.867   4.372
10680SOL    HW233873   1.702   2.836   4.249
10681SOL     OW33874  10.907   7.882  13.044
10681SOL    HW133875  10.881   7.897  12.953
10681SOL    HW233876  10.837   7.921  13.096
10682SOL     OW33877   5.493  14.599  13.343
10682SOL    HW133878   5.445  14.625  13.264
10682SOL    HW233879   5.476  14.505  13.350
10683SOL     OW33880  11.926   4.211  11.598
10683SOL    HW133881  11.858   4.276  11.615
10683SOL    HW233882  11.920   4.150  11.671
10684SOL     OW33883   7.788  12.882   9.244
10684SOL    HW133884   7.865  12.837   9.279
10684SOL    HW233885   7.790  12.863   9.150
10685SOL     OW33886  11.884   8.333   5.782
10685SOL    HW133887  11.957   8.353   5.841
10685SOL    HW233888  11.899   8.389   5.706
10686SOL     OW33889  10.119   4.691  13.796
10686SOL    HW133890  10.056   4.763  13.804
10686SOL    HW233891  10.157   4.683  13.884
10687SOL     OW33892   5.504   0.259   5.916
10687SOL    HW133893   5.582   0.314   5.910
10687SOL    HW233894   5.496   0.220   5.829
10688SOL     OW33895   1.063  13.202   6.371
10688SOL    HW133896   1.043  13.241   6.286
10688SOL    HW233897   1.120  13.266   6.414
10689SOL     OW33898   3.197   5.233   1.304
10689SOL    HW133899   3.254   5.239   1.380
10689SOL    HW233900   3.198   5.322   1.266
10690SOL     OW33901   2.393   0.161   4.920
10690SOL    HW133902   2.481   0.167   4.956
10690SOL    HW233903   2.402   0.108   4.841
10691SOL     OW33904   4.153   6.011   7.764
10691SOL    HW133905   4.141   5.973   7.851
10691SOL    HW233906   4.086   5.970   7.710
10692SOL     OW33907   4.939   1.928   0.559
10692SOL    HW133908   4.985   1.890   0.634
10692SOL    HW233909   4.959   1.869   0.486
10693SOL     OW33910   0.278   1.063   8.850
10693SOL    HW133911   0.265   1.070   8.755
10693SOL    HW233912   0.190   1.045   8.884
10694SOL     OW33913   3.974   0.715   2.570
10694SOL    HW133914   3.943   0.675   2.652
10694SOL    HW233915   3.903   0.701   2.508
10695SOL     OW33916   7.434   7.483  14.164
10695SOL    HW133917   7.353   7.465  14.115
10695SOL    HW233918   7.489   7.407  14.147
10696SOL     OW33919   8.910   4.726   2.016
10696SOL    HW133920   8.862   4.807   2.029
10696SOL    HW233921   8.929   4.694   2.104
10697SOL     OW33922   8.681  12.920   9.500
10697SOL    HW133923   8.642  12.927   9.413
10697SOL    HW233924   8.775  12.929   9.485
10698SOL     OW33925   5.661   9.707   5.049
10698SOL    HW133926   5.742   9.656   5.041
10698SOL    HW233927   5.637   9.700   5.141
10699SOL     OW33928  14.714   9.861  12.931
10699SOL    HW133929  14.745   9.830  12.846
10699SOL    HW233930  14.736   9.791  12.991
10700SOL     OW33931   7.201   4.465   2.810
10700SOL    HW133932   7.113   4.498   2.823
10700SOL    HW233933   7.247   4.487   2.892
10701SOL     OW33934   4.536   2.611  12.199
10701SOL    HW133935   4.557   2.600  12.292
10701SOL    HW233936   4.456   2.664  12.199
10702SOL     OW33937  14.594  10.465   3.791
10702SOL    HW133938  14.672  10.411   3.779
10702SOL    HW233939  14.525  10.402   3.815
10703SOL     OW33940   0.755   2.237   8.463
10703SOL    HW133941   0.813   2.308   8.490
10703SOL    HW233942   0.690   2.230   8.533
10704SOL     OW33943   4.533   8.348   2.288
10704SOL    HW133944   4.459   8.289   2.286
10704SOL    HW233945   4.521   8.399   2.368
10705SOL     OW33946   6.338  11.122   6.320
10705SOL    HW133947   6.325  11.190   6.387
10705SOL    HW233948   6.258  11.124   6.268
10706SOL     OW33949   6.063  12.233  11.495
10706SOL    HW133950   6.078  12.141  11.470
10706SOL    HW233951   6.086  12.283  11.417
10707SOL     OW33952   6.349  12.122  10.251
10707SOL    HW133953   6.359  12.063  10.176
10707SOL    HW233954   6.256  12.147  10.250
10708SOL     OW33955   0.525  14.457   3.618
10708SOL    HW133956   0.574  14.458   3.536
10708SOL    HW233957   0.523  14.549   3.646
10709SOL     OW33958   8.325   4.897   1.183
10709SOL    HW133959   8.345   4.855   1.266
10709SOL    HW233960   8.273   4.832   1.135
10710SOL     OW33961   4.956   1.740   5.082
10710SOL    HW133962   5.009   1.774   5.009
10710SOL    HW233963   4.967   1.804   5.151
10711SOL     OW33964  12.865   6.483   7.058
10711SOL    HW133965  12.783   6.529   7.040
10711SOL    HW233966  12.928   6.552   7.077
10712SOL     OW33967  13.921   0.961  14.663
10712SOL    HW133968  13.900   0.929  14.751
10712SOL    HW233969  13.884   1.049  14.659
10713SOL     OW33970   6.139  14.101   1.227
10713SOL    HW133971   6.220  14.075   1.272
10713SOL    HW233972   6.099  14.166   1.284
10714SOL     OW33973   6.732  11.084   3.522
10714SOL    HW133974   6.820  11.089   3.560
10714SOL    HW233975   6.675  11.126   3.586
10715SOL     OW33976  11.216  11.399   4.894
10715SOL    HW133977  11.206  11.481   4.944
10715SOL    HW233978  11.282  11.420   4.828
10716SOL     OW33979   2.511   7.201  10.842
10716SOL    HW133980   2.551   7.147  10.911
10716SOL    HW233981   2.417   7.184  10.849
10717SOL     OW33982   0.959   7.525  12.175
10717SOL    HW133983   0.989   7.461  12.239
10717SOL    HW233984   1.036   7.578  12.156
10718SOL     OW33985   0.724   9.336  11.062
10718SOL    HW133986   0.632   9.312  11.051
10718SOL    HW233987   0.746   9.311  11.152
10719SOL     OW33988   9.688   7.926   1.358
10719SOL    HW133989   9.734   7.857   1.310
10719SOL    HW233990   9.722   8.008   1.321
10720SOL     OW33991   4.096   3.003   7.328
10720SOL    HW133992   4.170   2.942   7.322
10720SOL    HW233993   4.136   3.090   7.324
10721SOL     OW33994   9.730  10.509   9.289
10721SOL    HW133995   9.747  10.419   9.260
10721SOL    HW233996   9.806  10.558   9.260
10722SOL     OW33997   1.255  12.324   4.941
10722SOL    HW133998   1.255  12.266   4.865
10722SOL    HW233999   1.187  12.388   4.923
10723SOL     OW34000   8.961   9.470   3.378
10723SOL    HW134001   9.036   9.521   3.408
10723SOL    HW234002   8.995   9.381   3.369
10724SOL     OW34003  11.129   3.467  10.737
10724SOL    HW134004  11.080   3.425  10.807
10724SOL    HW234005  11.098   3.424  10.657
10725SOL     OW34006   6.803   2.920  10.540
10725SOL    HW134007   6.790   2.994  10.600
10725SOL    HW234008   6.729   2.862  10.556
10726SOL     OW34009   4.638   6.037   1.228
10726SOL    HW134010   4.702   6.033   1.298
10726SOL    HW234011   4.562   6.081   1.267
10727SOL     OW34012   9.792  12.065  14.514
10727SOL    HW134013   9.767  11.982  14.553
10727SOL    HW234014   9.782  12.128  14.586
10728SOL     OW34015   5.889   4.554  10.879
10728SOL    HW134016   5.945   4.516  10.947
10728SOL    HW234017   5.932   4.635  10.854
10729SOL     OW34018  13.300  10.817  14.563
10729SOL    HW134019  13.292  10.798  14.657
10729SOL    HW234020  13.394  10.833  14.550
10730SOL     OW34021  11.176   2.992   8.231
10730SOL    HW134022  11.098   2.992   8.287
10730SOL    HW234023  11.249   3.002   8.291
10731SOL     OW34024  11.173   2.577   5.390
10731SOL    HW134025  11.143   2.616   5.471
10731SOL    HW234026  11.175   2.650   5.327
10732SOL     OW34027   7.009   9.946  10.888
10732SOL    HW134028   6.935  10.003  10.869
10732SOL    HW234029   6.987   9.863  10.846
10733SOL     OW34030   0.325   0.608   5.564
10733SOL    HW134031   0.253   0.586   5.623
10733SOL    HW234032   0.388   0.538   5.576
10734SOL     OW34033   7.580   8.789   1.968
10734SOL    HW134034   7.494   8.758   1.997
10734SOL    HW234035   7.562   8.875   1.929
10735SOL     OW34036  11.184   7.288   8.174
10735SOL    HW134037  11.185   7.243   8.259
10735SOL    HW234038  11.119   7.240   8.123
10736SOL     OW34039   2.021  12.112   9.745
10736SOL    HW134040   2.038  12.205   9.730
10736SOL    HW234041   2.044  12.098   9.837
10737SOL     OW34042   6.156   0.803   9.790
10737SOL    HW134043   6.195   0.886   9.818
10737SOL    HW234044   6.182   0.740   9.858
10738SOL     OW34045  14.014  12.351  12.898
10738SOL    HW134046  14.040  12.327  12.987
10738SOL    HW234047  13.918  12.350  12.901
10739SOL     OW34048   5.516  11.142   8.887
10739SOL    HW134049   5.507  11.092   8.968
10739SOL    HW234050   5.551  11.226   8.915
10740SOL     OW34051   0.821   1.229   5.045
10740SOL    HW134052   0.842   1.192   4.960
10740SOL    HW234053   0.875   1.181   5.107
10741SOL     OW34054   8.000   4.712   9.587
10741SOL    HW134055   7.989   4.683   9.496
10741SOL    HW234056   7.929   4.670   9.635
10742SOL     OW34057   3.113   0.079   5.469
10742SOL    HW134058   3.086   0.107   5.556
10742SOL    HW234059   3.183   0.139   5.443
10743SOL     OW34060  12.662   0.866  11.381
10743SOL    HW134061  12.663   0.962  11.388
10743SOL    HW234062  12.683   0.849  11.289
10744SOL     OW34063   5.283  12.525   2.141
10744SOL    HW134064   5.287  12.476   2.223
10744SOL    HW234065   5.208  12.488   2.095
10745SOL     OW34066   5.509   4.971  12.259
10745SOL    HW134067   5.468   4.887  12.241
10745SOL    HW234068   5.436   5.030  12.277
10746SOL     OW34069   8.587   4.702  14.177
10746SOL    HW134070   8.557   4.611  14.175
10746SOL    HW234071   8.669   4.699  14.227
10747SOL     OW34072   4.514  12.888  12.230
10747SOL    HW134073   4.582  12.952  12.254
10747SOL    HW234074   4.483  12.853  12.313
10748SOL     OW34075  10.278   6.796   4.951
10748SOL    HW134076  10.266   6.795   5.046
10748SOL    HW234077  10.252   6.884   4.924
10749SOL     OW34078   3.248   1.246   5.526
10749SOL    HW134079   3.162   1.209   5.502
10749SOL    HW234080   3.283   1.279   5.443
10750SOL     OW34081   3.033   2.993   3.559
10750SOL    HW134082   2.970   2.982   3.631
10750SOL    HW234083   3.067   3.082   3.571
10751SOL     OW34084   4.903   2.053   8.150
10751SOL    HW134085   4.978   2.102   8.184
10751SOL    HW234086   4.902   1.972   8.201
10752SOL     OW34087  13.130   0.348   2.682
10752SOL    HW134088  13.165   0.386   2.762
10752SOL    HW234089  13.083   0.420   2.640
10753SOL     OW34090   8.114  11.494  11.728
10753SOL    HW134091   8.042  11.432  11.719
10753SOL    HW234092   8.175  11.452  11.789
10754SOL     OW34093   0.993   3.957   1.997
10754SOL    HW134094   1.077   3.912   2.003
10754SOL    HW234095   1.013   4.039   1.951
10755SOL     OW34096   4.506  13.835   9.113
10755SOL    HW134097   4.540  13.862   9.199
10755SOL    HW234098   4.531  13.743   9.105
10756SOL     OW34099   5.518  10.617   8.785
10756SOL    HW134100   5.500  10.687   8.722
10756SOL    HW234101   5.531  10.662   8.868
10757SOL     OW34102   0.933   6.403   1.815
10757SOL    HW134103   0.893   6.338   1.873
10757SOL    HW234104   1.002   6.442   1.868
10758SOL     OW34105   1.616  13.452  13.073
10758SOL    HW134106   1.678  13.517  13.107
10758SOL    HW234107   1.597  13.481  12.985
10759SOL     OW34108  11.169   3.516   7.918
10759SOL    HW134109  11.173   3.475   8.005
10759SOL    HW234110  11.100   3.581   7.925
10760SOL     OW34111  10.260   8.840   8.776
10760SOL    HW134112  10.177   8.876   8.743
10760SOL    HW234113  10.259   8.859   8.869
10761SOL     OW34114   4.956   9.810   7.955
10761SOL    HW134115   4.877   9.864   7.962
10761SOL    HW234116   4.926   9.728   7.915
10762SOL     OW34117  13.023   9.178  14.267
10762SOL    HW134118  13.014   9.129  14.186
10762SOL    HW234119  13.117   9.188  14.280
10763SOL     OW34120   2.704  13.015  14.269
10763SOL    HW134121   2.640  12.947  14.251
10763SOL    HW234122   2.756  12.981  14.342
10764SOL     OW34123   4.264   4.333  11.207
10764SOL    HW134124   4.337   4.300  11.154
10764SOL    HW234125   4.197   4.266  11.201
10765SOL     OW34126  10.921  12.259   1.448
10765SOL    HW134127  10.880  12.247   1.362
10765SOL    HW234128  10.980  12.333   1.436
10766SOL     OW34129   1.184   0.873   7.876
10766SOL    HW134130   1.126   0.922   7.817
10766SOL    HW234131   1.128   0.848   7.949
10767SOL     OW34132   6.957  12.296  14.199
10767SOL    HW134133   6.999  12.327  14.280
10767SOL    HW234134   6.877  12.347  14.192
10768SOL     OW34135  11.509   2.835   1.931
10768SOL    HW134136  11.469   2.749   1.915
10768SOL    HW234137  11.544   2.861   1.846
10769SOL     OW34138   9.728   3.187  14.269
10769SOL    HW134139   9.818   3.178  14.300
10769SOL    HW234140   9.684   3.238  14.338
10770SOL     OW34141   6.929   3.850   2.037
10770SOL    HW134142   6.914   3.802   1.955
10770SOL    HW234143   7.003   3.907   2.017
10771SOL     OW34144   3.410   7.378  10.840
10771SOL    HW134145   3.387   7.456  10.790
10771SOL    HW234146   3.455   7.321  10.777
10772SOL     OW34147  13.579   8.010  10.923
10772SOL    HW134148  13.504   8.016  10.982
10772SOL    HW234149  13.557   7.938  10.864
10773SOL     OW34150   7.805  11.670   9.602
10773SOL    HW134151   7.845  11.585   9.581
10773SOL    HW234152   7.783  11.708   9.517
10774SOL     OW34153  10.689   3.123   9.592
10774SOL    HW134154  10.725   3.087   9.511
10774SOL    HW234155  10.684   3.217   9.575
10775SOL     OW34156  11.637   0.782  14.040
10775SOL    HW134157  11.601   0.775  14.128
10775SOL    HW234158  11.653   0.691  14.014
10776SOL     OW34159  10.215  10.013  11.808
10776SOL    HW134160  10.146   9.958  11.772
10776SOL    HW234161  10.280  10.018  11.738
10777SOL     OW34162   9.832   2.226   3.323
10777SOL    HW134163   9.913   2.230   3.373
10777SOL    HW234164   9.763   2.223   3.389
10778SOL     OW34165   5.806  14.860   0.220
10778SOL    HW134166   5.735  14.813   0.175
10778SOL    HW234167   5.874  14.794   0.232
10779SOL     OW34168   1.486   6.772   5.049
10779SOL    HW134169   1.454   6.746   4.962
10779SOL    HW234170   1.581   6.777   5.039
10780SOL     OW34171  13.936  12.540   4.419
10780SOL    HW134172  14.000  12.584   4.474
10780SOL    HW234173  13.985  12.469   4.378
10781SOL     OW34174   6.639   7.121  11.748
10781SOL    HW134175   6.712   7.109  11.808
10781SOL    HW234176   6.629   7.036  11.705
10782SOL     OW34177   9.517   7.158  13.675
10782SOL    HW134178   9.479   7.243  13.700
10782SOL    HW234179   9.577   7.137  13.746
10783SOL     OW34180   3.242   3.192  13.699
10783SOL    HW134181   3.267   3.188  13.791
10783SOL    HW234182   3.297   3.261  13.662
10784SOL     OW34183  12.347  10.574   1.774
10784SOL    HW134184  12.427  10.615   1.806
10784SOL    HW234185  12.376  10.514   1.706
10785SOL     OW34186   1.234   0.901  14.363
10785SOL    HW134187   1.267   0.990  14.368
10785SOL    HW234188   1.217   0.887  14.270
10786SOL     OW34189   4.577  14.350   0.804
10786SOL    HW134190   4.652  14.361   0.862
10786SOL    HW234191   4.615  14.335   0.718
10787SOL     OW34192   7.657   6.382   1.528
10787SOL    HW134193   7.573   6.384   1.481
10787SOL    HW234194   7.634   6.351   1.615
10788SOL     OW34195  11.260   4.852   3.682
10788SOL    HW134196  11.341   4.857   3.632
10788SOL    HW234197  11.271   4.915   3.753
10789SOL     OW34198   2.530   3.690   5.092
10789SOL    HW134199   2.599   3.751   5.118
10789SOL    HW234200   2.513   3.637   5.170
10790SOL     OW34201  11.186   2.318  11.110
10790SOL    HW134202  11.147   2.396  11.072
10790SOL    HW234203  11.209   2.263  11.035
10791SOL     OW34204  14.068   0.787   1.035
10791SOL    HW134205  14.067   0.871   1.081
10791SOL    HW234206  13.986   0.744   1.061
10792SOL     OW34207  10.042   6.327  14.066
10792SOL    HW134208  10.133   6.302  14.079
10792SOL    HW234209  10.032   6.336  13.971
10793SOL     OW34210  11.110   1.246   2.382
10793SOL    HW134211  11.059   1.321   2.350
10793SOL    HW234212  11.168   1.283   2.447
10794SOL     OW34213   1.329   4.486   8.627
10794SOL    HW134214   1.366   4.402   8.600
10794SOL    HW234215   1.377   4.509   8.707
10795SOL     OW34216  14.444   2.953   5.001
10795SOL    HW134217  14.422   3.046   4.995
10795SOL    HW234218  14.539   2.951   5.004
10796SOL     OW34219   6.140   6.722  12.810
10796SOL    HW134220   6.201   6.793  12.828
10796SOL    HW234221   6.076   6.761  12.750
10797SOL     OW34222   7.604   5.729   7.493
10797SOL    HW134223   7.686   5.687   7.468
10797SOL    HW234224   7.576   5.775   7.414
10798SOL     OW34225  12.312   6.954  12.417
10798SOL    HW134226  12.259   6.896  12.361
10798SOL    HW234227  12.256   7.031  12.431
10799SOL     OW34228  11.982  13.813   6.463
10799SOL    HW134229  12.054  13.783   6.518
10799SOL    HW234230  12.002  13.777   6.376
10800SOL     OW34231   1.475  13.567   3.355
10800SOL    HW134232   1.475  13.608   3.441
10800SOL    HW234233   1.383  13.547   3.337
10801SOL     OW34234   2.043   7.055   0.971
10801SOL    HW134235   1.988   7.077   0.897
10801SOL    HW234236   1.998   7.092   1.047
10802SOL     OW34237   1.676   1.995   8.001
10802SOL    HW134238   1.771   1.992   7.990
10802SOL    HW234239   1.651   1.905   8.022
10803SOL     OW34240   9.945   4.621   6.664
10803SOL    HW134241   9.872   4.667   6.622
10803SOL    HW234242  10.023   4.672   6.640
10804SOL     OW34243   8.627   2.967   1.909
10804SOL    HW134244   8.682   2.889   1.919
10804SOL    HW234245   8.538   2.937   1.924
10805SOL     OW34246   1.118  11.927  11.966
10805SOL    HW134247   1.143  11.999  11.908
10805SOL    HW234248   1.038  11.957  12.009
10806SOL     OW34249   5.038   9.895  14.457
10806SOL    HW134250   5.092   9.947  14.518
10806SOL    HW234251   4.950   9.932  14.466
10807SOL     OW34252   8.921  10.397  12.741
10807SOL    HW134253   8.867  10.449  12.801
10807SOL    HW234254   9.011  10.414  12.770
10808SOL     OW34255   2.303   9.679   0.024
10808SOL    HW134256   2.296   9.700  14.813
10808SOL    HW234257   2.228   9.722   0.064
10809SOL     OW34258   4.170  11.208  14.518
10809SOL    HW134259   4.112  11.283  14.529
10809SOL    HW234260   4.159  11.156  14.598
10810SOL     OW34261   1.747   2.364  11.225
10810SOL    HW134262   1.802   2.438  11.198
10810SOL    HW234263   1.737   2.375  11.319
10811SOL     OW34264  13.985  10.646   4.493
10811SOL    HW134265  14.055  10.710   4.498
10811SOL    HW234266  13.972  10.618   4.584
10812SOL     OW34267   3.669  12.912   6.090
10812SOL    HW134268   3.666  12.836   6.148
10812SOL    HW234269   3.676  12.987   6.149
10813SOL     OW34270   1.039   2.868   0.993
10813SOL    HW134271   1.076   2.800   1.048
10813SOL    HW234272   1.101   2.876   0.920
10814SOL     OW34273   4.742   1.258   8.354
10814SOL    HW134274   4.669   1.293   8.406
10814SOL    HW234275   4.700   1.201   8.289
10815SOL     OW34276   7.368   0.683   4.763
10815SOL    HW134277   7.381   0.713   4.673
10815SOL    HW234278   7.273   0.667   4.770
10816SOL     OW34279   2.883   4.629   2.516
10816SOL    HW134280   2.795   4.666   2.528
10816SOL    HW234281   2.937   4.674   2.580
10817SOL     OW34282   6.775   1.996   1.407
10817SOL    HW134283   6.765   2.090   1.420
10817SOL    HW234284   6.744   1.982   1.317
10818SOL     OW34285   5.726   9.902  11.956
10818SOL    HW134286   5.673   9.931  12.031
10818SOL    HW234287   5.808   9.950  11.965
10819SOL     OW34288  12.420   3.699   6.534
10819SOL    HW134289  12.413   3.686   6.439
10819SOL    HW234290  12.490   3.763   6.544
10820SOL     OW34291   9.930   4.095   4.104
10820SOL    HW134292   9.834   4.098   4.103
10820SOL    HW234293   9.956   4.182   4.137
10821SOL     OW34294  13.787   3.650   7.320
10821SOL    HW134295  13.788   3.673   7.226
10821SOL    HW234296  13.701   3.612   7.334
10822SOL     OW34297  11.317   1.240  11.331
10822SOL    HW134298  11.333   1.166  11.388
10822SOL    HW234299  11.404   1.277  11.314
10823SOL     OW34300   3.727  10.359  11.924
10823SOL    HW134301   3.633  10.361  11.906
10823SOL    HW234302   3.747  10.447  11.956
10824SOL     OW34303   1.583   3.279   8.716
10824SOL    HW134304   1.670   3.319   8.712
10824SOL    HW234305   1.601   3.187   8.735
10825SOL     OW34306  14.592   6.429  12.812
10825SOL    HW134307  14.555   6.382  12.886
10825SOL    HW234308  14.594   6.365  12.741
10826SOL     OW34309  14.463   3.605   4.104
10826SOL    HW134310  14.388   3.646   4.061
10826SOL    HW234311  14.522   3.678   4.124
10827SOL     OW34312  10.048   9.988   8.215
10827SOL    HW134313  10.109   9.939   8.270
10827SOL    HW234314  10.101  10.053   8.170
10828SOL     OW34315   4.266   5.374   8.826
10828SOL    HW134316   4.325   5.298   8.822
10828SOL    HW234317   4.206   5.361   8.753
10829SOL     OW34318  10.707   6.673  10.312
10829SOL    HW134319  10.657   6.593  10.326
10829SOL    HW234320  10.719   6.710  10.400
10830SOL     OW34321   8.625   7.879  12.104
10830SOL    HW134322   8.684   7.955  12.098
10830SOL    HW234323   8.541   7.916  12.131
10831SOL     OW34324  12.184   5.336  11.575
10831SOL    HW134325  12.135   5.414  11.549
10831SOL    HW234326  12.260   5.335  11.518
10832SOL     OW34327   9.582  12.751   5.298
10832SOL    HW134328   9.635  12.805   5.357
10832SOL    HW234329   9.576  12.666   5.342
10833SOL     OW34330  13.824   4.384   8.471
10833SOL    HW134331  13.918   4.399   8.482
10833SOL    HW234332  13.813   4.365   8.378
10834SOL     OW34333   5.924   4.733   8.699
10834SOL    HW134334   5.885   4.649   8.675
10834SOL    HW234335   5.852   4.796   8.691
10835SOL     OW34336  11.235   7.172  13.102
10835SOL    HW134337  11.311   7.229  13.096
10835SOL    HW234338  11.160   7.231  13.111
10836SOL     OW34339   3.216  14.052  10.202
10836SOL    HW134340   3.241  14.111  10.273
10836SOL    HW234341   3.124  14.071  10.187
10837SOL     OW34342   4.029  13.463  13.654
10837SOL    HW134343   4.110  13.468  13.602
10837SOL    HW234344   4.045  13.393  13.717
10838SOL     OW34345   8.506  11.169   0.626
10838SOL    HW134346   8.441  11.151   0.558
10838SOL    HW234347   8.590  11.148   0.586
10839SOL     OW34348   1.010   5.001  11.898
10839SOL    HW134349   1.084   5.028  11.952
10839SOL    HW234350   1.045   4.997  11.809
10840SOL     OW34351   5.722  13.032   0.598
10840SOL    HW134352   5.666  13.016   0.522
10840SOL    HW234353   5.694  12.968   0.663
10841SOL     OW34354   8.604   9.748  12.986
10841SOL    HW134355   8.508   9.748  12.995
10841SOL    HW234356   8.620   9.765  12.894
10842SOL     OW34357   5.055   8.179   4.329
10842SOL    HW134358   5.084   8.089   4.315
10842SOL    HW234359   5.056   8.218   4.241
10843SOL     OW34360   9.669  13.176  14.237
10843SOL    HW134361   9.628  13.099  14.199
10843SOL    HW234362   9.720  13.143  14.311
10844SOL     OW34363   2.649   0.480   7.030
10844SOL    HW134364   2.736   0.519   7.020
10844SOL    HW234365   2.635   0.476   7.125
10845SOL     OW34366   5.308  10.438  11.934
10845SOL    HW134367   5.334  10.445  11.842
10845SOL    HW234368   5.390  10.447  11.982
10846SOL     OW34369  11.160   0.104   9.732
10846SOL    HW134370  11.125   0.050   9.803
10846SOL    HW234371  11.200   0.179   9.776
10847SOL     OW34372   5.233  14.024   0.642
10847SOL    HW134373   5.225  13.961   0.569
10847SOL    HW234374   5.145  14.062   0.649
10848SOL     OW34375  12.854  12.095   6.187
10848SOL    HW134376  12.930  12.036   6.188
10848SOL    HW234377  12.784  12.043   6.148
10849SOL     OW34378  13.414   8.229  12.834
10849SOL    HW134379  13.509   8.218  12.826
10849SOL    HW234380  13.402   8.282  12.913
10850SOL     OW34381   8.919   7.793   5.143
10850SOL    HW134382   8.952   7.879   5.116
10850SOL    HW234383   8.889   7.805   5.233
10851SOL     OW34384  10.871   3.352  14.745
10851SOL    HW134385  10.792   3.318  14.702
10851SOL    HW234386  10.839   3.421  14.802
10852SOL     OW34387   6.409   1.673   8.215
10852SOL    HW134388   6.428   1.626   8.134
10852SOL    HW234389   6.321   1.645   8.239
10853SOL     OW34390   7.211  11.553   8.838
10853SOL    HW134391   7.173  11.640   8.821
10853SOL    HW234392   7.284  11.547   8.777
10854SOL     OW34393  11.622   9.958   6.881
10854SOL    HW134394  11.561   9.884   6.875
10854SOL    HW234395  11.654   9.970   6.792
10855SOL     OW34396   8.333   9.308   8.425
10855SOL    HW134397   8.381   9.237   8.467
10855SOL    HW234398   8.261   9.327   8.485
10856SOL     OW34399  13.637  13.597  12.254
10856SOL    HW134400  13.713  13.593  12.197
10856SOL    HW234401  13.659  13.539  12.327
10857SOL     OW34402   3.830  12.709   8.415
10857SOL    HW134403   3.898  12.673   8.358
10857SOL    HW234404   3.831  12.803   8.397
10858SOL     OW34405   8.404   0.286   1.112
10858SOL    HW134406   8.494   0.318   1.118
10858SOL    HW234407   8.364   0.339   1.044
10859SOL     OW34408   1.445   0.036  13.049
10859SOL    HW134409   1.467   0.092  13.123
10859SOL    HW234410   1.410   0.096  12.983
10860SOL     OW34411  13.477   7.380   3.905
10860SOL    HW134412  13.492   7.381   4.000
10860SOL    HW234413  13.492   7.289   3.880
10861SOL     OW34414  14.651  10.202   9.924
10861SOL    HW134415  14.623  10.288   9.892
10861SOL    HW234416  14.719  10.175   9.863
10862SOL     OW34417   5.196   6.174   4.167
10862SOL    HW134418   5.219   6.221   4.248
10862SOL    HW234419   5.269   6.192   4.108
10863SOL     OW34420   4.745   6.326   3.209
10863SOL    HW134421   4.805   6.302   3.280
10863SOL    HW234422   4.659   6.330   3.250
10864SOL     OW34423   2.075   8.789   4.331
10864SOL    HW134424   2.119   8.732   4.395
10864SOL    HW234425   2.132   8.865   4.323
10865SOL     OW34426   6.969  10.219   4.488
10865SOL    HW134427   6.952  10.207   4.581
10865SOL    HW234428   6.897  10.273   4.456
10866SOL     OW34429   0.101  14.074  11.138
10866SOL    HW134430   0.111  14.016  11.214
10866SOL    HW234431   0.155  14.035  11.070
10867SOL     OW34432   3.218   1.926   8.909
10867SOL    HW134433   3.186   2.010   8.877
10867SOL    HW234434   3.155   1.862   8.877
10868SOL     OW34435   7.110   2.211   7.145
10868SOL    HW134436   7.135   2.118   7.144
10868SOL    HW234437   7.140   2.244   7.061
10869SOL     OW34438  13.783   6.119   3.696
10869SOL    HW134439  13.762   6.211   3.713
10869SOL    HW234440  13.777   6.078   3.782
10870SOL     OW34441  12.666   4.428   1.517
10870SOL    HW134442  12.643   4.483   1.442
10870SOL    HW234443  12.583   4.389   1.544
10871SOL     OW34444   6.099  13.249  14.373
10871SOL    HW134445   6.015  13.222  14.410
10871SOL    HW234446   6.164  13.213  14.433
10872SOL     OW34447   9.861   2.954  11.064
10872SOL    HW134448   9.823   2.901  11.134
10872SOL    HW234449   9.786   2.983  11.013
10873SOL     OW34450  12.852   9.494   6.120
10873SOL    HW134451  12.920   9.434   6.090
10873SOL    HW234452  12.775   9.473   6.067
10874SOL     OW34453   0.026   2.498  12.238
10874SOL    HW134454   0.050   2.567  12.300
10874SOL    HW234455  14.814   2.487  12.249
10875SOL     OW34456   9.501   4.156   1.776
10875SOL    HW134457   9.434   4.138   1.710
10875SOL    HW234458   9.558   4.080   1.773
10876SOL     OW34459   1.953   7.378  13.513
10876SOL    HW134460   1.859   7.387  13.526
10876SOL    HW234461   1.971   7.424  13.431
10877SOL     OW34462   5.509   9.277  14.764
10877SOL    HW134463   5.416   9.298  14.773
10877SOL    HW234464   5.552   9.324  14.836
10878SOL     OW34465   9.063   8.413   0.600
10878SOL    HW134466   8.987   8.437   0.653
10878SOL    HW234467   9.134   8.405   0.663
10879SOL     OW34468  14.635  13.729  12.205
10879SOL    HW134469  14.600  13.640  12.201
10879SOL    HW234470  14.592  13.769  12.280
10880SOL     OW34471   2.522   1.489   4.611
10880SOL    HW134472   2.609   1.495   4.651
10880SOL    HW234473   2.524   1.553   4.541
10881SOL     OW34474   3.447   4.254   7.245
10881SOL    HW134475   3.515   4.295   7.298
10881SOL    HW234476   3.407   4.326   7.196
10882SOL     OW34477   6.781  11.940   7.717
10882SOL    HW134478   6.834  12.020   7.724
10882SOL    HW234479   6.744  11.929   7.805
10883SOL     OW34480   4.112  13.258   7.295
10883SOL    HW134481   4.054  13.213   7.234
10883SOL    HW234482   4.195  13.209   7.289
10884SOL     OW34483  10.953   5.060   4.866
10884SOL    HW134484  11.033   5.027   4.907
10884SOL    HW234485  10.983   5.095   4.782
10885SOL     OW34486   5.799  14.393   4.022
10885SOL    HW134487   5.833  14.333   3.956
10885SOL    HW234488   5.738  14.450   3.975
10886SOL     OW34489   2.426   5.303   6.641
10886SOL    HW134490   2.436   5.359   6.565
10886SOL    HW234491   2.368   5.352   6.700
10887SOL     OW34492  11.130   5.709  12.305
10887SOL    HW134493  11.145   5.615  12.294
10887SOL    HW234494  11.132   5.723  12.400
10888SOL     OW34495  11.706  10.914  11.894
10888SOL    HW134496  11.774  10.980  11.882
10888SOL    HW234497  11.673  10.928  11.983
10889SOL     OW34498  11.941   0.031  10.556
10889SOL    HW134499  11.992   0.016  10.636
10889SOL    HW234500  11.955  14.834  10.504
10890SOL     OW34501   2.538   6.685   4.216
10890SOL    HW134502   2.470   6.742   4.181
10890SOL    HW234503   2.615   6.702   4.161
10891SOL     OW34504  12.064   7.710  11.434
10891SOL    HW134505  12.020   7.788  11.468
10891SOL    HW234506  12.146   7.705  11.484
10892SOL     OW34507   3.989   9.543   1.645
10892SOL    HW134508   4.057   9.489   1.686
10892SOL    HW234509   3.923   9.554   1.714
10893SOL     OW34510   0.486  11.243   7.114
10893SOL    HW134511   0.456  11.193   7.189
10893SOL    HW234512   0.468  11.188   7.039
10894SOL     OW34513   1.065  10.943   6.565
10894SOL    HW134514   1.156  10.962   6.585
10894SOL    HW234515   1.018  10.959   6.647
10895SOL     OW34516   9.497  13.913   3.733
10895SOL    HW134517   9.505  13.818   3.738
10895SOL    HW234518   9.443  13.937   3.809
10896SOL     OW34519   7.139  11.391   5.301
10896SOL    HW134520   7.116  11.306   5.339
10896SOL    HW234521   7.149  11.374   5.208
10897SOL     OW34522   8.759  10.154  12.631
10897SOL    HW134523   8.845  10.123  12.601
10897SOL    HW234524   8.774  10.187  12.719
10898SOL     OW34525  14.568   6.028  10.936
10898SOL    HW134526  14.610   5.944  10.917
10898SOL    HW234527  14.534   6.057  10.851
10899SOL     OW34528   7.570   8.491   9.874
10899SOL    HW134529   7.573   8.584   9.895
10899SOL    HW234530   7.568   8.447   9.959
10900SOL     OW34531   3.520   0.568   5.485
10900SOL    HW134532   3.467   0.535   5.557
10900SOL    HW234533   3.586   0.501   5.471
10901SOL     OW34534   9.643   2.916  14.321
10901SOL    HW134535   9.641   2.849  14.253
10901SOL    HW234536   9.668   2.997  14.276
10902SOL     OW34537  11.809  12.638   6.012
10902SOL    HW134538  11.838  12.590   6.090
10902SOL    HW234539  11.768  12.571   5.957
10903SOL     OW34540  13.093   7.513   2.685
10903SOL    HW134541  13.187   7.531   2.685
10903SOL    HW234542  13.085   7.429   2.731
10904SOL     OW34543  11.828  13.812   6.092
10904SOL    HW134544  11.876  13.730   6.080
10904SOL    HW234545  11.823  13.823   6.187
10905SOL     OW34546  11.433   0.519   8.617
10905SOL    HW134547  11.376   0.442   8.612
10905SOL    HW234548  11.373   0.591   8.638
10906SOL     OW34549   3.845  11.137   7.751
10906SOL    HW134550   3.919  11.102   7.799
10906SOL    HW234551   3.815  11.065   7.697
10907SOL     OW34552  13.130   7.262   0.596
10907SOL    HW134553  13.039   7.288   0.609
10907SOL    HW234554  13.125   7.172   0.563
10908SOL     OW34555   6.105  14.596  11.221
10908SOL    HW134556   6.029  14.537  11.221
10908SOL    HW234557   6.072  14.676  11.260
10909SOL     OW34558   5.589   6.216   2.380
10909SOL    HW134559   5.648   6.154   2.422
10909SOL    HW234560   5.573   6.283   2.446
10910SOL     OW34561   7.851   8.280   1.436
10910SOL    HW134562   7.825   8.351   1.378
10910SOL    HW234563   7.780   8.274   1.500
10911SOL     OW34564   0.669   8.319  12.875
10911SOL    HW134565   0.755   8.355  12.855
10911SOL    HW234566   0.653   8.342  12.967
10912SOL     OW34567  11.012  13.283  12.008
10912SOL    HW134568  10.943  13.220  12.029
10912SOL    HW234569  11.032  13.266  11.916
10913SOL     OW34570  14.234  11.102   9.977
10913SOL    HW134571  14.176  11.094  10.053
10913SOL    HW234572  14.303  11.038   9.993
10914SOL     OW34573   6.767   3.424   5.160
10914SOL    HW134574   6.782   3.376   5.078
10914SOL    HW234575   6.840   3.485   5.166
10915SOL     OW34576   7.422   1.274   7.067
10915SOL    HW134577   7.353   1.329   7.105
10915SOL    HW234578   7.437   1.206   7.133
10916SOL     OW34579   0.380   4.588   6.757
10916SOL    HW134580   0.428   4.652   6.705
10916SOL    HW234581   0.438   4.512   6.761
10917SOL     OW34582  14.273   8.307   2.637
10917SOL    HW134583  14.256   8.324   2.730
10917SOL    HW234584  14.197   8.257   2.608
10918SOL     OW34585   1.795  13.819   6.705
10918SOL    HW134586   1.870  13.850   6.755
10918SOL    HW234587   1.721  13.867   6.741
10919SOL     OW34588   0.290  13.018  13.864
10919SOL    HW134589   0.269  13.054  13.777
10919SOL    HW234590   0.224  13.056  13.922
10920SOL     OW34591   5.704   4.824   3.742
10920SOL    HW134592   5.759   4.869   3.678
10920SOL    HW234593   5.698   4.884   3.816
10921SOL     OW34594   8.181   1.188   6.504
10921SOL    HW134595   8.187   1.130   6.579
10921SOL    HW234596   8.241   1.150   6.439
10922SOL     OW34597   9.906  14.860   5.214
10922SOL    HW134598   9.967  14.794   5.181
10922SOL    HW234599   9.944   0.006   5.297
10923SOL     OW34600   4.923   9.699  14.281
10923SOL    HW134601   4.893   9.634  14.345
10923SOL    HW234602   4.972   9.762  14.333
10924SOL     OW34603   7.457   8.199   0.244
10924SOL    HW134604   7.394   8.252   0.196
10924SOL    HW234605   7.533   8.194   0.186
10925SOL     OW34606   2.641  11.050   6.280
10925SOL    HW134607   2.686  11.086   6.203
10925SOL    HW234608   2.632  10.957   6.261
10926SOL     OW34609  10.620  13.966   9.250
10926SOL    HW134610  10.660  13.924   9.326
10926SOL    HW234611  10.528  13.939   9.254
10927SOL     OW34612   5.445   7.126   1.544
10927SOL    HW134613   5.391   7.156   1.617
10927SOL    HW234614   5.394   7.150   1.466
10928SOL     OW34615   3.856  10.298   0.538
10928SOL    HW134616   3.853  10.203   0.541
10928SOL    HW234617   3.904  10.323   0.616
10929SOL     OW34618   3.940   9.537   4.780
10929SOL    HW134619   3.967   9.627   4.762
10929SOL    HW234620   3.993   9.511   4.856
10930SOL     OW34621  14.860  14.091   0.759
10930SOL    HW134622   0.048  14.030   0.781
10930SOL    HW234623   0.001  14.124   0.673
10931SOL     OW34624  10.283   9.272  11.157
10931SOL    HW134625  10.334   9.262  11.076
10931SOL    HW234626  10.307   9.194  11.208
10932SOL     OW34627  14.487  14.066   7.255
10932SOL    HW134628  14.513  14.156   7.237
10932SOL    HW234629  14.399  14.073   7.291
10933SOL     OW34630  10.183   1.458   7.476
10933SOL    HW134631  10.153   1.548   7.489
10933SOL    HW234632  10.257   1.466   7.416
10934SOL     OW34633   7.459  12.367  13.932
10934SOL    HW134634   7.367  12.353  13.910
10934SOL    HW234635   7.458  12.400  14.022
10935SOL     OW34636   2.001   6.938   9.631
10935SOL    HW134637   1.967   6.990   9.559
10935SOL    HW234638   1.946   6.859   9.632
10936SOL     OW34639   1.819   5.342  13.014
10936SOL    HW134640   1.741   5.362  13.066
10936SOL    HW234641   1.786   5.288  12.941
10937SOL     OW34642  10.120  12.196   4.054
10937SOL    HW134643  10.145  12.132   3.987
10937SOL    HW234644  10.167  12.276   4.029
10938SOL     OW34645   7.723   1.033   6.861
10938SOL    HW134646   7.671   1.109   6.836
10938SOL    HW234647   7.814   1.063   6.856
10939SOL     OW34648   1.388   2.356  11.879
10939SOL    HW134649   1.440   2.436  11.870
10939SOL    HW234650   1.332   2.356  11.801
10940SOL     OW34651   3.117   5.693   2.629
10940SOL    HW134652   3.204   5.675   2.665
10940SOL    HW234653   3.106   5.628   2.560
10941SOL     OW34654   0.147   6.798   8.635
10941SOL    HW134655   0.211   6.728   8.624
10941SOL    HW234656   0.064   6.753   8.647
10942SOL     OW34657   2.900   1.226  10.351
10942SOL    HW134658   2.914   1.136  10.379
10942SOL    HW234659   2.918   1.224  10.257
10943SOL     OW34660   1.803   1.040   1.466
10943SOL    HW134661   1.779   1.040   1.373
10943SOL    HW234662   1.756   0.965   1.503
10944SOL     OW34663   5.662   4.767  14.802
10944SOL    HW134664   5.666   4.674  14.822
10944SOL    HW234665   5.574   4.781  14.767
10945SOL     OW34666   2.040  10.413   7.840
10945SOL    HW134667   1.998  10.488   7.798
10945SOL    HW234668   2.065  10.356   7.768
10946SOL     OW34669   6.023   5.004  14.473
10946SOL    HW134670   6.021   4.926  14.418
10946SOL    HW234671   6.000   5.076  14.415
10947SOL     OW34672   2.944   6.272  14.667
10947SOL    HW134673   2.963   6.346  14.725
10947SOL    HW234674   2.965   6.305  14.579
10948SOL     OW34675   9.320   2.147   3.395
10948SOL    HW134676   9.337   2.060   3.359
10948SOL    HW234677   9.234   2.140   3.436
10949SOL     OW34678  10.456  13.755   5.764
10949SOL    HW134679  10.467  13.697   5.840
10949SOL    HW234680  10.456  13.695   5.689
10950SOL     OW34681   2.143  11.071   4.218
10950SOL    HW134682   2.192  11.152   4.230
10950SOL    HW234683   2.057  11.089   4.257
10951SOL     OW34684   8.359  11.623   1.813
10951SOL    HW134685   8.322  11.578   1.737
10951SOL    HW234686   8.301  11.698   1.827
10952SOL     OW34687   7.309  13.102   3.777
10952SOL    HW134688   7.278  13.175   3.831
10952SOL    HW234689   7.330  13.034   3.841
10953SOL     OW34690   4.809   2.817  14.614
10953SOL    HW134691   4.796   2.724  14.633
10953SOL    HW234692   4.728   2.843  14.570
10954SOL     OW34693  12.873   5.641   8.823
10954SOL    HW134694  12.906   5.728   8.845
10954SOL    HW234695  12.879   5.636   8.728
10955SOL     OW34696   7.518   2.929  13.220
10955SOL    HW134697   7.556   2.908  13.134
10955SOL    HW234698   7.519   2.846  13.267
10956SOL     OW34699  11.443  11.742   2.125
10956SOL    HW134700  11.372  11.787   2.079
10956SOL    HW234701  11.412  11.732   2.214
10957SOL     OW34702  12.939   7.545  12.479
10957SOL    HW134703  12.951   7.458  12.441
10957SOL    HW234704  12.845   7.562  12.472
10958SOL     OW34705  10.744  14.789   7.984
10958SOL    HW134706  10.823  14.749   7.947
10958SOL    HW234707  10.768  14.813   8.073
10959SOL     OW34708  11.369   5.170  11.176
10959SOL    HW134709  11.318   5.226  11.118
10959SOL    HW234710  11.435   5.130  11.120
10960SOL     OW34711  14.753   2.254   0.445
10960SOL    HW134712  14.818   2.254   0.515
10960SOL    HW234713  14.776   2.180   0.390
10961SOL     OW34714  13.707  11.088  14.278
10961SOL    HW134715  13.629  11.143  14.287
10961SOL    HW234716  13.780  11.146  14.300
10962SOL     OW34717  11.239  10.949   0.719
10962SOL    HW134718  11.239  10.885   0.648
10962SOL    HW234719  11.324  10.937   0.762
10963SOL     OW34720   3.951   1.832   5.105
10963SOL    HW134721   3.940   1.744   5.068
10963SOL    HW234722   4.038   1.859   5.077
10964SOL     OW34723  11.877   3.286   7.090
10964SOL    HW134724  11.801   3.255   7.139
10964SOL    HW234725  11.944   3.301   7.156
10965SOL     OW34726  14.335   4.868   3.802
10965SOL    HW134727  14.423   4.857   3.766
10965SOL    HW234728  14.340   4.950   3.851
10966SOL     OW34729   4.222   3.697  13.556
10966SOL    HW134730   4.310   3.731  13.575
10966SOL    HW234731   4.173   3.711  13.636
10967SOL     OW34732   5.480   2.050   5.507
10967SOL    HW134733   5.438   2.136   5.517
10967SOL    HW234734   5.459   2.023   5.418
10968SOL     OW34735   2.430   9.062   3.256
10968SOL    HW134736   2.452   9.110   3.336
10968SOL    HW234737   2.490   9.098   3.190
10969SOL     OW34738   1.027  11.881   4.160
10969SOL    HW134739   1.028  11.974   4.182
10969SOL    HW234740   1.114  11.864   4.124
10970SOL     OW34741  10.685  14.204  10.473
10970SOL    HW134742  10.652  14.167  10.391
10970SOL    HW234743  10.681  14.131  10.535
10971SOL     OW34744   0.939   9.742   7.571
10971SOL    HW134745   0.929   9.836   7.588
10971SOL    HW234746   0.908   9.731   7.481
10972SOL     OW34747   4.117   8.179   1.296
10972SOL    HW134748   4.210   8.197   1.310
10972SOL    HW234749   4.080   8.263   1.270
10973SOL     OW34750   7.449   2.789   6.578
10973SOL    HW134751   7.409   2.801   6.664
10973SOL    HW234752   7.505   2.866   6.566
10974SOL     OW34753  13.220   6.732   1.958
10974SOL    HW134754  13.268   6.690   1.887
10974SOL    HW234755  13.130   6.700   1.948
10975SOL     OW34756  14.859  10.562   4.804
10975SOL    HW134757  14.783  10.510   4.780
10975SOL    HW234758  14.828  10.652   4.804
10976SOL     OW34759  12.231   3.726   5.171
10976SOL    HW134760  12.240   3.649   5.227
10976SOL    HW234761  12.233   3.692   5.082
10977SOL     OW34762  11.011   3.862   6.425
10977SOL    HW134763  10.953   3.792   6.454
10977SOL    HW234764  11.012   3.924   6.499
10978SOL     OW34765   6.565   5.836   0.178
10978SOL    HW134766   6.596   5.840   0.269
10978SOL    HW234767   6.633   5.785   0.133
10979SOL     OW34768   8.274   0.601   1.841
10979SOL    HW134769   8.285   0.620   1.747
10979SOL    HW234770   8.183   0.575   1.849
10980SOL     OW34771  13.379   5.649   1.187
10980SOL    HW134772  13.350   5.736   1.158
10980SOL    HW234773  13.376   5.595   1.108
10981SOL     OW34774   4.080  11.889   7.524
10981SOL    HW134775   4.171  11.920   7.524
10981SOL    HW234776   4.029  11.965   7.551
10982SOL     OW34777   8.903   0.006   5.018
10982SOL    HW134778   8.963  14.844   5.078
10982SOL    HW234779   8.830   0.033   5.074
10983SOL     OW34780   5.261  13.758  12.202
10983SOL    HW134781   5.281  13.668  12.176
10983SOL    HW234782   5.288  13.811  12.127
10984SOL     OW34783  10.739   3.247   8.371
10984SOL    HW134784  10.809   3.257   8.306
10984SOL    HW234785  10.715   3.155   8.366
10985SOL     OW34786  14.317   7.481   7.035
10985SOL    HW134787  14.341   7.485   6.942
10985SOL    HW234788  14.363   7.555   7.074
10986SOL     OW34789   1.745   6.606   9.613
10986SOL    HW134790   1.758   6.604   9.518
10986SOL    HW234791   1.829   6.636   9.648
10987SOL     OW34792   9.203  10.620   7.128
10987SOL    HW134793   9.172  10.605   7.039
10987SOL    HW234794   9.268  10.690   7.119
10988SOL     OW34795  11.737   3.033   5.769
10988SOL    HW134796  11.706   2.951   5.808
10988SOL    HW234797  11.831   3.019   5.757
10989SOL     OW34798   4.662  13.520   0.192
10989SOL    HW134799   4.605  13.569   0.251
10989SOL    HW234800   4.717  13.586   0.150
10990SOL     OW34801   1.623   2.701   7.664
10990SOL    HW134802   1.623   2.669   7.574
10990SOL    HW234803   1.587   2.629   7.716
10991SOL     OW34804  11.345   4.968   3.248
10991SOL    HW134805  11.366   4.913   3.323
10991SOL    HW234806  11.292   5.039   3.285
10992SOL     OW34807   6.766   5.387   7.526
10992SOL    HW134808   6.712   5.458   7.561
10992SOL    HW234809   6.718   5.307   7.548
10993SOL     OW34810   1.658   1.986   3.583
10993SOL    HW134811   1.730   1.970   3.644
10993SOL    HW234812   1.618   2.068   3.613
10994SOL     OW34813  14.655  10.619  10.732
10994SOL    HW134814  14.566  10.585  10.734
10994SOL    HW234815  14.659  10.682  10.804
10995SOL     OW34816   4.303  13.857   2.923
10995SOL    HW134817   4.229  13.829   2.870
10995SOL    HW234818   4.337  13.776   2.961
10996SOL     OW34819   9.039   2.036   6.790
10996SOL    HW134820   9.078   1.967   6.735
10996SOL    HW234821   9.035   1.997   6.877
10997SOL     OW34822   3.022  10.803  12.509
10997SOL    HW134823   2.958  10.864  12.473
10997SOL    HW234824   3.070  10.854  12.574
10998SOL     OW34825   0.637   9.642   0.355
10998SOL    HW134826   0.728   9.638   0.327
10998SOL    HW234827   0.641   9.647   0.451
10999SOL     OW34828  12.552  14.171  10.672
10999SOL    HW134829  12.540  14.264  10.652
10999SOL    HW234830  12.585  14.132  10.591
11000SOL     OW34831   5.873  13.164  13.390
11000SOL    HW134832   5.921  13.143  13.310
11000SOL    HW234833   5.935  13.215  13.442
11001SOL     OW34834   6.560   3.155   4.849
11001SOL    HW134835   6.476   3.116   4.871
11001SOL    HW234836   6.591   3.106   4.773
11002SOL     OW34837  13.097  10.247  14.765
11002SOL    HW134838  13.168  10.189  14.739
11002SOL    HW234839  13.024  10.188  14.784
11003SOL     OW34840   1.890  12.946  12.706
11003SOL    HW134841   1.954  12.875  12.701
11003SOL    HW234842   1.814  12.914  12.657
11004SOL     OW34843   7.735  13.121   8.253
11004SOL    HW134844   7.796  13.057   8.290
11004SOL    HW234845   7.650  13.078   8.256
11005SOL     OW34846   7.048   2.287  13.902
11005SOL    HW134847   7.027   2.226  13.972
11005SOL    HW234848   6.965   2.305  13.859
11006SOL     OW34849  11.350   3.035   3.503
11006SOL    HW134850  11.398   3.021   3.585
11006SOL    HW234851  11.385   2.969   3.443
11007SOL     OW34852   6.018  14.751  11.956
11007SOL    HW134853   5.924  14.751  11.936
11007SOL    HW234854   6.052  14.829  11.913
11008SOL     OW34855   7.838   1.182  14.469
11008SOL    HW134856   7.809   1.190  14.378
11008SOL    HW234857   7.798   1.102  14.501
11009SOL     OW34858   9.296   5.717   5.616
11009SOL    HW134859   9.221   5.744   5.668
11009SOL    HW234860   9.305   5.623   5.633
11010SOL     OW34861  11.182   0.819   5.219
11010SOL    HW134862  11.182   0.867   5.137
11010SOL    HW234863  11.093   0.831   5.254
11011SOL     OW34864   1.018  13.458  11.493
11011SOL    HW134865   1.052  13.475  11.581
11011SOL    HW234866   1.095  13.460  11.436
11012SOL     OW34867   6.549   3.793  12.866
11012SOL    HW134868   6.529   3.885  12.852
11012SOL    HW234869   6.617   3.792  12.932
11013SOL     OW34870  14.597   8.394   6.041
11013SOL    HW134871  14.580   8.383   5.948
11013SOL    HW234872  14.629   8.484   6.049
11014SOL     OW34873  11.145   7.807  12.503
11014SOL    HW134874  11.114   7.781  12.589
11014SOL    HW234875  11.083   7.873  12.473
11015SOL     OW34876   3.170   3.784   9.040
11015SOL    HW134877   3.202   3.744   8.960
11015SOL    HW234878   3.135   3.711   9.091
11016SOL     OW34879   7.781   5.734   7.840
11016SOL    HW134880   7.819   5.767   7.921
11016SOL    HW234881   7.767   5.813   7.787
11017SOL     OW34882  11.929   5.706   3.146
11017SOL    HW134883  11.868   5.714   3.219
11017SOL    HW234884  11.874   5.711   3.068
11018SOL     OW34885  10.533   4.653   5.515
11018SOL    HW134886  10.628   4.668   5.511
11018SOL    HW234887  10.514   4.603   5.435
11019SOL     OW34888   7.782   6.640   1.571
11019SOL    HW134889   7.773   6.639   1.666
11019SOL    HW234890   7.733   6.563   1.541
11020SOL     OW34891   9.125   4.807  12.414
11020SOL    HW134892   9.088   4.893  12.395
11020SOL    HW234893   9.186   4.821  12.486
11021SOL     OW34894   5.128   6.003   1.780
11021SOL    HW134895   5.096   5.912   1.781
11021SOL    HW234896   5.122   6.030   1.872
11022SOL     OW34897  14.828   8.334  14.596
11022SOL    HW134898   0.018   8.291  14.642
11022SOL    HW234899  14.750   8.287  14.626
11023SOL     OW34900   9.345   3.765   2.888
11023SOL    HW134901   9.287   3.694   2.915
11023SOL    HW234902   9.341   3.828   2.960
11024SOL     OW34903   9.047   1.686  14.245
11024SOL    HW134904   9.029   1.663  14.154
11024SOL    HW234905   9.035   1.781  14.249
11025SOL     OW34906  10.814   0.900   6.313
11025SOL    HW134907  10.751   0.857   6.255
11025SOL    HW234908  10.783   0.991   6.318
11026SOL     OW34909   2.898   0.281  13.282
11026SOL    HW134910   2.851   0.220  13.339
11026SOL    HW234911   2.931   0.227  13.210
11027SOL     OW34912   0.138  10.008   2.388
11027SOL    HW134913   0.132  10.039   2.298
11027SOL    HW234914   0.056   9.963   2.404
11028SOL     OW34915   8.337   5.271  13.832
11028SOL    HW134916   8.394   5.196  13.849
11028SOL    HW234917   8.248   5.234  13.834
11029SOL     OW34918  11.081  13.207   5.332
11029SOL    HW134919  11.140  13.264   5.282
11029SOL    HW234920  10.996  13.251   5.328
11030SOL     OW34921   4.210  13.802  10.572
11030SOL    HW134922   4.245  13.873  10.626
11030SOL    HW234923   4.285  13.772  10.521
11031SOL     OW34924   8.948   4.409  12.100
11031SOL    HW134925   9.019   4.440  12.156
11031SOL    HW234926   8.885   4.482  12.099
11032SOL     OW34927  12.704   9.044   3.266
11032SOL    HW134928  12.698   9.014   3.357
11032SOL    HW234929  12.764   9.119   3.269
11033SOL     OW34930   8.753   6.029   4.111
11033SOL    HW134931   8.673   6.081   4.108
11033SOL    HW234932   8.734   5.960   4.175
11034SOL     OW34933   5.529  12.594   3.033
11034SOL    HW134934   5.529  12.581   3.128
11034SOL    HW234935   5.446  12.556   3.003
11035SOL     OW34936  13.884  12.902  10.473
11035SOL    HW134937  13.865  12.810  10.453
11035SOL    HW234938  13.946  12.929  10.406
11036SOL     OW34939   0.474  13.646   3.211
11036SOL    HW134940   0.448  13.720   3.157
11036SOL    HW234941   0.560  13.622   3.179
11037SOL     OW34942   2.687   9.260  14.379
11037SOL    HW134943   2.752   9.285  14.444
11037SOL    HW234944   2.728   9.187  14.332
11038SOL     OW34945   5.888   4.211   6.252
11038SOL    HW134946   5.978   4.179   6.248
11038SOL    HW234947   5.840   4.156   6.192
11039SOL     OW34948  13.632   8.244   1.543
11039SOL    HW134949  13.719   8.266   1.510
11039SOL    HW234950  13.586   8.327   1.549
11040SOL     OW34951   9.013   6.374   9.719
11040SOL    HW134952   9.079   6.346   9.655
11040SOL    HW234953   8.983   6.293   9.760
11041SOL     OW34954   3.671   8.333  12.812
11041SOL    HW134955   3.579   8.358  12.801
11041SOL    HW234956   3.696   8.298  12.726
11042SOL     OW34957   2.914  11.355   4.009
11042SOL    HW134958   2.969  11.431   4.024
11042SOL    HW234959   2.825  11.386   4.029
11043SOL     OW34960   6.043   7.741   4.432
11043SOL    HW134961   5.988   7.800   4.484
11043SOL    HW234962   6.065   7.669   4.491
11044SOL     OW34963   2.069  12.400  10.879
11044SOL    HW134964   2.031  12.330  10.825
11044SOL    HW234965   1.993  12.451  10.909
11045SOL     OW34966   5.734   1.555   4.406
11045SOL    HW134967   5.704   1.465   4.412
11045SOL    HW234968   5.807   1.560   4.469
11046SOL     OW34969   5.488   2.511   2.934
11046SOL    HW134970   5.533   2.587   2.971
11046SOL    HW234971   5.408   2.504   2.986
11047SOL     OW34972   5.226   5.946   7.553
11047SOL    HW134973   5.293   5.969   7.489
11047SOL    HW234974   5.171   5.881   7.508
11048SOL     OW34975   9.069  11.085  12.752
11048SOL    HW134976   9.138  11.024  12.723
11048SOL    HW234977   8.989  11.032  12.751
11049SOL     OW34978   2.895   6.567   7.360
11049SOL    HW134979   2.958   6.575   7.431
11049SOL    HW234980   2.886   6.473   7.345
11050SOL     OW34981  10.068   0.104   9.652
11050SOL    HW134982  10.146   0.158   9.638
11050SOL    HW234983  10.068   0.089   9.747
11051SOL     OW34984   7.834  10.318   5.324
11051SOL    HW134985   7.831  10.280   5.412
11051SOL    HW234986   7.764  10.383   5.324
11052SOL     OW34987  13.172   8.155   4.844
11052SOL    HW134988  13.154   8.189   4.756
11052SOL    HW234989  13.267   8.157   4.851
11053SOL     OW34990   9.530   6.543  13.065
11053SOL    HW134991   9.440   6.575  13.068
11053SOL    HW234992   9.569   6.586  12.989
11054SOL     OW34993   9.329   2.180  10.131
11054SOL    HW134994   9.408   2.233  10.125
11054SOL    HW234995   9.360   2.089  10.129
11055SOL     OW34996  10.819   9.951   5.546
11055SOL    HW134997  10.776   9.886   5.489
11055SOL    HW234998  10.818  10.032   5.495
11056SOL     OW34999   9.491   8.547  12.441
11056SOL    HW135000   9.509   8.632  12.482
11056SOL    HW235001   9.574   8.521  12.400
11057SOL     OW35002   6.972   8.506   0.267
11057SOL    HW135003   6.986   8.432   0.207
11057SOL    HW235004   6.877   8.508   0.281
11058SOL     OW35005  14.353   9.365   1.269
11058SOL    HW135006  14.366   9.429   1.199
11058SOL    HW235007  14.393   9.285   1.236
11059SOL     OW35008   1.796  12.806   1.384
11059SOL    HW135009   1.809  12.797   1.289
11059SOL    HW235010   1.865  12.866   1.412
11060SOL     OW35011   3.730   1.039   1.916
11060SOL    HW135012   3.772   0.959   1.885
11060SOL    HW235013   3.646   1.042   1.871
11061SOL     OW35014  12.103   8.421   0.613
11061SOL    HW135015  12.186   8.378   0.634
11061SOL    HW235016  12.038   8.375   0.666
11062SOL     OW35017   8.328   2.891  14.282
11062SOL    HW135018   8.274   2.813  14.289
11062SOL    HW235019   8.417   2.858  14.266
11063SOL     OW35020   1.036   1.578  13.486
11063SOL    HW135021   1.129   1.571  13.505
11063SOL    HW235022   1.004   1.488  13.486
11064SOL     OW35023  10.510   9.110   2.624
11064SOL    HW135024  10.544   9.052   2.556
11064SOL    HW235025  10.521   9.059   2.705
11065SOL     OW35026   5.187   3.034   3.509
11065SOL    HW135027   5.122   3.050   3.578
11065SOL    HW235028   5.233   2.956   3.538
11066SOL     OW35029   3.656  10.044   2.313
11066SOL    HW135030   3.752  10.045   2.310
11066SOL    HW235031   3.635   9.966   2.364
11067SOL     OW35032   8.479   2.850  13.520
11067SOL    HW135033   8.431   2.876  13.442
11067SOL    HW235034   8.556   2.804  13.487
11068SOL     OW35035  12.582   4.954   5.103
11068SOL    HW135036  12.495   4.972   5.137
11068SOL    HW235037  12.594   4.860   5.116
11069SOL     OW35038  10.460  13.634   9.572
11069SOL    HW135039  10.460  13.724   9.539
11069SOL    HW235040  10.468  13.579   9.494
11070SOL     OW35041   3.574   1.080   7.183
11070SOL    HW135042   3.654   1.131   7.172
11070SOL    HW235043   3.504   1.145   7.179
11071SOL     OW35044  13.724   5.680   3.366
11071SOL    HW135045  13.779   5.739   3.314
11071SOL    HW235046  13.778   5.602   3.379
11072SOL     OW35047   9.760  11.303  11.785
11072SOL    HW135048   9.822  11.374  11.768
11072SOL    HW235049   9.815  11.227  11.803
11073SOL     OW35050   5.123  12.452   9.693
11073SOL    HW135051   5.106  12.373   9.641
11073SOL    HW235052   5.061  12.517   9.658
11074SOL     OW35053   7.643   5.202  14.004
11074SOL    HW135054   7.566   5.187  13.949
11074SOL    HW235055   7.717   5.182  13.947
11075SOL     OW35056   8.616   9.758   5.456
11075SOL    HW135057   8.645   9.848   5.445
11075SOL    HW235058   8.521   9.762   5.447
11076SOL     OW35059   3.421   6.233  14.465
11076SOL    HW135060   3.467   6.299  14.414
11076SOL    HW235061   3.449   6.149  14.429
11077SOL     OW35062  13.067   1.918  11.254
11077SOL    HW135063  13.154   1.917  11.296
11077SOL    HW235064  13.078   1.976  11.179
11078SOL     OW35065   4.311   9.802   3.580
11078SOL    HW135066   4.277   9.726   3.533
11078SOL    HW235067   4.250   9.814   3.653
11079SOL     OW35068  12.059   4.046   5.375
11079SOL    HW135069  11.974   4.089   5.386
11079SOL    HW235070  12.122   4.117   5.386
11080SOL     OW35071  13.454   1.843   6.342
11080SOL    HW135072  13.491   1.924   6.377
11080SOL    HW235073  13.466   1.850   6.247
11081SOL     OW35074   4.147   9.209   3.670
11081SOL    HW135075   4.210   9.250   3.611
11081SOL    HW235076   4.079   9.175   3.613
11082SOL     OW35077   4.419   3.825   0.535
11082SOL    HW135078   4.440   3.742   0.578
11082SOL    HW235079   4.327   3.816   0.509
11083SOL     OW35080  13.454   1.670   4.157
11083SOL    HW135081  13.437   1.650   4.249
11083SOL    HW235082  13.509   1.598   4.127
11084SOL     OW35083   4.073  13.879   5.621
11084SOL    HW135084   4.145  13.920   5.572
11084SOL    HW235085   3.999  13.879   5.560
11085SOL     OW35086   8.954   0.536   3.734
11085SOL    HW135087   8.984   0.616   3.777
11085SOL    HW235088   8.863   0.528   3.759
11086SOL     OW35089   8.458   7.390   4.610
11086SOL    HW135090   8.535   7.367   4.661
11086SOL    HW235091   8.399   7.432   4.673
11087SOL     OW35092  14.767  13.155  14.637
11087SOL    HW135093  14.689  13.179  14.586
11087SOL    HW235094  14.822  13.234  14.634
11088SOL     OW35095  13.399   8.023   0.155
11088SOL    HW135096  13.458   8.012   0.080
11088SOL    HW235097  13.312   8.005   0.120
11089SOL     OW35098  10.210  11.293  10.906
11089SOL    HW135099  10.271  11.243  10.961
11089SOL    HW235100  10.267  11.345  10.849
11090SOL     OW35101   9.596  14.229   9.584
11090SOL    HW135102   9.534  14.273   9.526
11090SOL    HW235103   9.627  14.153   9.534
11091SOL     OW35104  10.682   6.827  11.794
11091SOL    HW135105  10.590   6.836  11.769
11091SOL    HW235106  10.731   6.848  11.715
11092SOL     OW35107   3.791  11.459   1.417
11092SOL    HW135108   3.810  11.366   1.412
11092SOL    HW235109   3.741  11.469   1.498
11093SOL     OW35110   9.716   5.489   4.868
11093SOL    HW135111   9.652   5.556   4.842
11093SOL    HW235112   9.719   5.429   4.794
11094SOL     OW35113   1.833   6.102  11.127
11094SOL    HW135114   1.917   6.133  11.092
11094SOL    HW235115   1.804   6.035  11.066
11095SOL     OW35116   6.668   6.155   5.541
11095SOL    HW135117   6.638   6.197   5.622
11095SOL    HW235118   6.702   6.226   5.488
11096SOL     OW35119   2.447   8.846   9.113
11096SOL    HW135120   2.480   8.839   9.023
11096SOL    HW235121   2.368   8.792   9.114
11097SOL     OW35122   2.341  12.855   8.192
11097SOL    HW135123   2.291  12.903   8.259
11097SOL    HW235124   2.410  12.810   8.241
11098SOL     OW35125   0.760   7.839   7.313
11098SOL    HW135126   0.715   7.788   7.381
11098SOL    HW235127   0.825   7.891   7.361
11099SOL     OW35128   0.269  13.328  10.375
11099SOL    HW135129   0.215  13.256  10.341
11099SOL    HW235130   0.207  13.401  10.387
11100SOL     OW35131   3.499   0.267   8.170
11100SOL    HW135132   3.478   0.174   8.179
11100SOL    HW235133   3.589   0.269   8.139
11101SOL     OW35134  10.283   7.269   8.762
11101SOL    HW135135  10.263   7.204   8.695
11101SOL    HW235136  10.358   7.233   8.810
11102SOL     OW35137   8.025   5.881   0.678
11102SOL    HW135138   8.097   5.819   0.661
11102SOL    HW235139   8.011   5.925   0.595
11103SOL     OW35140   8.008  10.471   0.577
11103SOL    HW135141   8.015  10.523   0.657
11103SOL    HW235142   7.919  10.486   0.546
11104SOL     OW35143   2.928   8.003   1.655
11104SOL    HW135144   3.019   7.986   1.630
11104SOL    HW235145   2.933   8.027   1.748
11105SOL     OW35146  10.013   9.180   0.119
11105SOL    HW135147  10.025   9.090   0.086
11105SOL    HW235148   9.997   9.232   0.040
11106SOL     OW35149  12.579   6.240  11.889
11106SOL    HW135150  12.614   6.316  11.844
11106SOL    HW235151  12.654   6.202  11.934
11107SOL     OW35152   3.006  11.767   4.503
11107SOL    HW135153   3.058  11.735   4.576
11107SOL    HW235154   2.917  11.772   4.537
11108SOL     OW35155   2.900   1.314   5.682
11108SOL    HW135156   2.884   1.225   5.714
11108SOL    HW235157   2.987   1.336   5.715
11109SOL     OW35158   1.777  13.546   5.789
11109SOL    HW135159   1.768  13.625   5.842
11109SOL    HW235160   1.870  13.523   5.794
11110SOL     OW35161  13.247  12.644   8.178
11110SOL    HW135162  13.182  12.573   8.179
11110SOL    HW235163  13.301  12.628   8.255
11111SOL     OW35164   6.342   3.680  11.723
11111SOL    HW135165   6.326   3.772  11.702
11111SOL    HW235166   6.409   3.683  11.792
11112SOL     OW35167   0.398   7.240   3.585
11112SOL    HW135168   0.489   7.250   3.613
11112SOL    HW235169   0.357   7.325   3.604
11113SOL     OW35170  13.887   4.692   5.188
11113SOL    HW135171  13.882   4.713   5.095
11113SOL    HW235172  13.891   4.597   5.191
11114SOL     OW35173  11.731   2.868  10.002
11114SOL    HW135174  11.763   2.945  10.049
11114SOL    HW235175  11.659   2.902   9.949
11115SOL     OW35176   6.398   8.321   6.502
11115SOL    HW135177   6.410   8.240   6.552
11115SOL    HW235178   6.397   8.390   6.567
11116SOL     OW35179  11.413  11.339   2.308
11116SOL    HW135180  11.468  11.304   2.379
11116SOL    HW235181  11.334  11.370   2.352
11117SOL     OW35182  14.831   9.561  11.420
11117SOL    HW135183  14.757   9.545  11.479
11117SOL    HW235184  14.791   9.571  11.333
11118SOL     OW35185  11.510   1.729  14.741
11118SOL    HW135186  11.495   1.794  14.673
11118SOL    HW235187  11.584   1.677  14.709
11119SOL     OW35188   3.946   7.081   2.666
11119SOL    HW135189   3.856   7.063   2.692
11119SOL    HW235190   3.946   7.174   2.643
11120SOL     OW35191  12.747   7.850   9.502
11120SOL    HW135192  12.687   7.812   9.567
11120SOL    HW235193  12.757   7.782   9.436
11121SOL     OW35194  11.209   7.188  11.250
11121SOL    HW135195  11.287   7.141  11.278
11121SOL    HW235196  11.183   7.145  11.169
11122SOL     OW35197   7.311   4.652   7.547
11122SOL    HW135198   7.274   4.617   7.466
11122SOL    HW235199   7.252   4.724   7.571
11123SOL     OW35200  11.031  11.350  14.107
11123SOL    HW135201  11.092  11.308  14.046
11123SOL    HW235202  11.073  11.341  14.193
11124SOL     OW35203  14.842  10.837  11.670
11124SOL    HW135204   0.027  10.870  11.609
11124SOL    HW235205  14.809  10.915  11.714
11125SOL     OW35206   2.304   3.957  12.454
11125SOL    HW135207   2.236   3.963  12.386
11125SOL    HW235208   2.361   4.031  12.437
11126SOL     OW35209  13.198   1.479  12.838
11126SOL    HW135210  13.229   1.389  12.829
11126SOL    HW235211  13.241   1.510  12.918
11127SOL     OW35212   2.627  10.672   0.033
11127SOL    HW135213   2.610  10.756   0.076
11127SOL    HW235214   2.546  10.623   0.043
11128SOL     OW35215   3.988  13.801   1.921
11128SOL    HW135216   3.989  13.817   2.015
11128SOL    HW235217   4.070  13.755   1.904
11129SOL     OW35218   7.798   8.985  12.767
11129SOL    HW135219   7.876   8.939  12.735
11129SOL    HW235220   7.831   9.068  12.800
11130SOL     OW35221   9.545  11.975   0.187
11130SOL    HW135222   9.560  12.055   0.136
11130SOL    HW235223   9.633  11.942   0.205
11131SOL     OW35224   6.233   6.404   7.210
11131SOL    HW135225   6.181   6.333   7.171
11131SOL    HW235226   6.171   6.452   7.265
11132SOL     OW35227   5.900   9.804   7.563
11132SOL    HW135228   5.844   9.876   7.534
11132SOL    HW235229   5.880   9.732   7.503
11133SOL     OW35230   4.459   1.226  11.809
11133SOL    HW135231   4.436   1.142  11.771
11133SOL    HW235232   4.494   1.278  11.737
11134SOL     OW35233  12.281   9.669   6.086
11134SOL    HW135234  12.337   9.713   6.150
11134SOL    HW235235  12.268   9.581   6.122
11135SOL     OW35236   0.051  12.644  12.942
11135SOL    HW135237   0.032  12.723  12.891
11135SOL    HW235238   0.090  12.677  13.023
11136SOL     OW35239   9.074   5.837   0.565
11136SOL    HW135240   8.984   5.857   0.591
11136SOL    HW235241   9.066   5.761   0.508
11137SOL     OW35242   9.463   1.828   8.118
11137SOL    HW135243   9.432   1.891   8.053
11137SOL    HW235244   9.537   1.871   8.161
11138SOL     OW35245   2.006   6.412   6.352
11138SOL    HW135246   1.911   6.418   6.365
11138SOL    HW235247   2.043   6.439   6.436
11139SOL     OW35248   1.330  13.447   5.098
11139SOL    HW135249   1.252  13.465   5.044
11139SOL    HW235250   1.363  13.364   5.065
11140SOL     OW35251   2.206   9.104   5.062
11140SOL    HW135252   2.292   9.144   5.049
11140SOL    HW235253   2.145   9.166   5.021
11141SOL     OW35254   8.078  10.533   0.307
11141SOL    HW135255   8.077  10.495   0.395
11141SOL    HW235256   8.028  10.472   0.253
11142SOL     OW35257   9.919   1.836   0.114
11142SOL    HW135258   9.934   1.742   0.117
11142SOL    HW235259   9.925   1.859   0.021
11143SOL     OW35260   0.869   0.467  11.175
11143SOL    HW135261   0.785   0.433  11.142
11143SOL    HW235262   0.893   0.536  11.112
11144SOL     OW35263  12.667   5.877  13.153
11144SOL    HW135264  12.659   5.891  13.058
11144SOL    HW235265  12.677   5.782  13.162
11145SOL     OW35266   7.035  13.820   6.305
11145SOL    HW135267   7.012  13.772   6.225
11145SOL    HW235268   7.116  13.866   6.283
11146SOL     OW35269  10.816  11.012   7.181
11146SOL    HW135270  10.792  11.085   7.123
11146SOL    HW235271  10.890  11.045   7.231
11147SOL     OW35272   0.422   7.184   5.298
11147SOL    HW135273   0.413   7.198   5.204
11147SOL    HW235274   0.457   7.267   5.331
11148SOL     OW35275   9.934   0.996   5.054
11148SOL    HW135276   9.988   1.061   5.099
11148SOL    HW235277   9.976   0.912   5.073
11149SOL     OW35278  11.143  12.847   4.899
11149SOL    HW135279  11.067  12.860   4.956
11149SOL    HW235280  11.199  12.787   4.947
11150SOL     OW35281   9.490  14.474   3.467
11150SOL    HW135282   9.563  14.449   3.411
11150SOL    HW235283   9.434  14.529   3.412
11151SOL     OW35284  13.856   0.083   1.295
11151SOL    HW135285  13.820   0.057   1.379
11151SOL    HW235286  13.912   0.009   1.269
11152SOL     OW35287   5.720  14.103  13.568
11152SOL    HW135288   5.808  14.103  13.607
11152SOL    HW235289   5.727  14.162  13.494
11153SOL     OW35290   2.944  10.070   7.705
11153SOL    HW135291   2.895  10.013   7.764
11153SOL    HW235292   2.943  10.025   7.621
11154SOL     OW35293   9.562   2.874  10.585
11154SOL    HW135294   9.586   2.847  10.496
11154SOL    HW235295   9.540   2.967  10.577
11155SOL     OW35296  13.773   8.148  12.196
11155SOL    HW135297  13.753   8.055  12.187
11155SOL    HW235298  13.833   8.167  12.124
11156SOL     OW35299   3.738   6.445   4.134
11156SOL    HW135300   3.732   6.385   4.208
11156SOL    HW235301   3.794   6.399   4.071
11157SOL     OW35302   7.227   9.290  10.835
11157SOL    HW135303   7.293   9.235  10.793
11157SOL    HW235304   7.276   9.359  10.879
11158SOL     OW35305  10.131   7.056   4.097
11158SOL    HW135306  10.101   7.134   4.143
11158SOL    HW235307  10.144   6.991   4.165
11159SOL     OW35308  12.687  14.328  11.887
11159SOL    HW135309  12.728  14.250  11.924
11159SOL    HW235310  12.714  14.328  11.795
11160SOL     OW35311   1.980   7.298   3.225
11160SOL    HW135312   1.984   7.333   3.314
11160SOL    HW235313   1.922   7.222   3.232
11161SOL     OW35314  14.112  10.902   9.625
11161SOL    HW135315  14.097  10.842   9.552
11161SOL    HW235316  14.091  10.989   9.590
11162SOL     OW35317   1.039  14.492   3.603
11162SOL    HW135318   1.022  14.461   3.693
11162SOL    HW235319   1.133  14.477   3.591
11163SOL     OW35320   0.679  13.137   2.751
11163SOL    HW135321   0.649  13.046   2.750
11163SOL    HW235322   0.604  13.186   2.784
11164SOL     OW35323  14.069   4.263   5.656
11164SOL    HW135324  13.995   4.265   5.596
11164SOL    HW235325  14.147   4.261   5.600
11165SOL     OW35326  13.660   5.233   0.055
11165SOL    HW135327  13.605   5.159   0.079
11165SOL    HW235328  13.621   5.268  14.857
11166SOL     OW35329  13.816   9.167   4.479
11166SOL    HW135330  13.899   9.204   4.508
11166SOL    HW235331  13.782   9.121   4.556
11167SOL     OW35332   9.175  14.366   5.060
11167SOL    HW135333   9.226  14.335   5.135
11167SOL    HW235334   9.242  14.393   4.996
11168SOL     OW35335   1.131  10.620   0.035
11168SOL    HW135336   1.047  10.574   0.031
11168SOL    HW235337   1.121  10.681   0.108
11169SOL     OW35338   3.992  12.849   4.501
11169SOL    HW135339   3.977  12.807   4.416
11169SOL    HW235340   4.085  12.871   4.501
11170SOL     OW35341   3.735  11.932   5.724
11170SOL    HW135342   3.683  11.974   5.793
11170SOL    HW235343   3.812  11.899   5.770
11171SOL     OW35344   1.662  13.263  10.410
11171SOL    HW135345   1.742  13.218  10.439
11171SOL    HW235346   1.694  13.333  10.353
11172SOL     OW35347  13.703   7.124   1.817
11172SOL    HW135348  13.746   7.039   1.830
11172SOL    HW235349  13.758   7.169   1.753
11173SOL     OW35350  10.832  14.251   9.198
11173SOL    HW135351  10.921  14.285   9.189
11173SOL    HW235352  10.841  14.175   9.255
11174SOL     OW35353  11.436  14.701  14.245
11174SOL    HW135354  11.364  14.756  14.214
11174SOL    HW235355  11.512  14.733  14.196
11175SOL     OW35356  13.603   4.479   2.528
11175SOL    HW135357  13.513   4.500   2.501
11175SOL    HW235358  13.633   4.415   2.463
11176SOL     OW35359  12.111   7.169   5.405
11176SOL    HW135360  12.094   7.263   5.400
11176SOL    HW235361  12.198   7.162   5.444
11177SOL     OW35362   6.321  14.555   6.485
11177SOL    HW135363   6.269  14.475   6.491
11177SOL    HW235364   6.308  14.598   6.570
11178SOL     OW35365   1.803   6.585   0.094
11178SOL    HW135366   1.740   6.519   0.125
11178SOL    HW235367   1.840   6.546   0.015
11179SOL     OW35368   6.649   4.156   3.740
11179SOL    HW135369   6.662   4.186   3.650
11179SOL    HW235370   6.575   4.208   3.772
11180SOL     OW35371  12.180   7.318   6.079
11180SOL    HW135372  12.182   7.245   6.017
11180SOL    HW235373  12.166   7.395   6.023
11181SOL     OW35374   8.556   0.630  11.254
11181SOL    HW135375   8.649   0.620  11.277
11181SOL    HW235376   8.557   0.681  11.173
11182SOL     OW35377   3.682   6.037   6.920
11182SOL    HW135378   3.658   6.099   6.989
11182SOL    HW235379   3.747   6.084   6.868
11183SOL     OW35380   1.966  14.452   1.122
11183SOL    HW135381   1.888  14.442   1.067
11183SOL    HW235382   2.029  14.495   1.066
11184SOL     OW35383   4.602   1.728   2.247
11184SOL    HW135384   4.664   1.771   2.306
11184SOL    HW235385   4.517   1.739   2.289
11185SOL     OW35386   7.403   9.900   5.395
11185SOL    HW135387   7.391   9.832   5.461
11185SOL    HW235388   7.498   9.911   5.388
11186SOL     OW35389  10.532   6.737  10.945
11186SOL    HW135390  10.614   6.705  10.984
11186SOL    HW235391  10.558   6.812  10.892
11187SOL     OW35392  11.655   2.083  12.463
11187SOL    HW135393  11.670   2.176  12.449
11187SOL    HW235394  11.565   2.078  12.496
11188SOL     OW35395  12.116   3.530  10.149
11188SOL    HW135396  12.043   3.581  10.185
11188SOL    HW235397  12.192   3.558  10.200
11189SOL     OW35398  10.018   0.264  13.888
11189SOL    HW135399   9.950   0.206  13.925
11189SOL    HW235400  10.013   0.343  13.942
11190SOL     OW35401  10.921   5.699   1.426
11190SOL    HW135402  10.874   5.779   1.448
11190SOL    HW235403  10.910   5.642   1.502
11191SOL     OW35404   7.370   1.163   0.748
11191SOL    HW135405   7.440   1.137   0.808
11191SOL    HW235406   7.361   1.088   0.689
11192SOL     OW35407  11.392   6.644  13.532
11192SOL    HW135408  11.450   6.689  13.593
11192SOL    HW235409  11.413   6.551  13.544
11193SOL     OW35410   9.004   8.252  12.302
11193SOL    HW135411   8.971   8.199  12.229
11193SOL    HW235412   8.932   8.251  12.366
11194SOL     OW35413   5.252   7.794   5.753
11194SOL    HW135414   5.338   7.755   5.740
11194SOL    HW235415   5.222   7.759   5.837
11195SOL     OW35416   2.043   4.239   7.957
11195SOL    HW135417   2.045   4.225   7.863
11195SOL    HW235418   2.044   4.335   7.967
11196SOL     OW35419   5.067   1.940  10.631
11196SOL    HW135420   5.087   2.001  10.703
11196SOL    HW235421   5.142   1.948  10.572
11197SOL     OW35422   9.320   8.351   5.663
11197SOL    HW135423   9.316   8.336   5.568
11197SOL    HW235424   9.281   8.437   5.675
11198SOL     OW35425   1.638  10.112   4.595
11198SOL    HW135426   1.661  10.035   4.646
11198SOL    HW235427   1.553  10.140   4.629
11199SOL     OW35428   5.147   5.992  11.348
11199SOL    HW135429   5.196   6.054  11.293
11199SOL    HW235430   5.153   6.028  11.437
11200SOL     OW35431  11.188   9.888  11.098
11200SOL    HW135432  11.217   9.962  11.151
11200SOL    HW235433  11.133   9.927  11.030
11201SOL     OW35434   3.484  14.662   5.816
11201SOL    HW135435   3.545  14.613   5.871
11201SOL    HW235436   3.439  14.721   5.877
11202SOL     OW35437   0.017   8.712   5.422
11202SOL    HW135438   0.076   8.731   5.349
11202SOL    HW235439  14.820   8.763   5.404
11203SOL     OW35440  14.222   9.369   1.520
11203SOL    HW135441  14.238   9.387   1.427
11203SOL    HW235442  14.276   9.292   1.539
11204SOL     OW35443   2.420  13.487   4.744
11204SOL    HW135444   2.336  13.455   4.776
11204SOL    HW235445   2.405  13.579   4.723
11205SOL     OW35446   7.839  10.602  11.529
11205SOL    HW135447   7.811  10.670  11.467
11205SOL    HW235448   7.862  10.528  11.473
11206SOL     OW35449   1.151  14.741   3.221
11206SOL    HW135450   1.106  14.812   3.174
11206SOL    HW235451   1.080  14.693   3.264
11207SOL     OW35452   7.874   8.972   6.729
11207SOL    HW135453   7.898   9.049   6.679
11207SOL    HW235454   7.944   8.909   6.713
11208SOL     OW35455  13.343  13.607   4.048
11208SOL    HW135456  13.361  13.551   3.972
11208SOL    HW235457  13.347  13.548   4.123
11209SOL     OW35458  13.782  13.089   2.485
11209SOL    HW135459  13.865  13.064   2.526
11209SOL    HW235460  13.760  13.014   2.429
11210SOL     OW35461   5.097  10.107  12.346
11210SOL    HW135462   5.149  10.183  12.368
11210SOL    HW235463   5.009  10.129  12.377
11211SOL     OW35464   1.196   2.614   1.049
11211SOL    HW135465   1.121   2.575   1.093
11211SOL    HW235466   1.232   2.676   1.112
11212SOL     OW35467   8.406   2.654   4.179
11212SOL    HW135468   8.426   2.653   4.085
11212SOL    HW235469   8.319   2.614   4.185
11213SOL     OW35470   8.173   8.942   3.963
11213SOL    HW135471   8.195   9.023   3.917
11213SOL    HW235472   8.136   8.971   4.046
11214SOL     OW35473   8.777   2.068   9.048
11214SOL    HW135474   8.837   2.131   9.008
11214SOL    HW235475   8.702   2.120   9.077
11215SOL     OW35476   7.580   6.521  10.284
11215SOL    HW135477   7.652   6.476  10.329
11215SOL    HW235478   7.515   6.535  10.353
11216SOL     OW35479   8.490  10.309  13.711
11216SOL    HW135480   8.519  10.282  13.624
11216SOL    HW235481   8.537  10.252  13.771
11217SOL     OW35482   3.813   0.865  14.055
11217SOL    HW135483   3.810   0.772  14.032
11217SOL    HW235484   3.778   0.911  13.979
11218SOL     OW35485   3.632   0.132   0.410
11218SOL    HW135486   3.591   0.197   0.467
11218SOL    HW235487   3.706   0.099   0.461
11219SOL     OW35488   1.551   9.685   4.138
11219SOL    HW135489   1.550   9.626   4.062
11219SOL    HW235490   1.629   9.659   4.187
11220SOL     OW35491  12.017   3.919   9.350
11220SOL    HW135492  12.098   3.962   9.322
11220SOL    HW235493  12.039   3.826   9.349
11221SOL     OW35494   5.426   6.209   6.572
11221SOL    HW135495   5.487   6.248   6.509
11221SOL    HW235496   5.346   6.259   6.562
11222SOL     OW35497   3.454  10.530  14.309
11222SOL    HW135498   3.546  10.506  14.314
11222SOL    HW235499   3.408  10.446  14.314
11223SOL     OW35500  12.682   1.527  12.238
11223SOL    HW135501  12.634   1.511  12.157
11223SOL    HW235502  12.733   1.447  12.252
11224SOL     OW35503  12.878   6.252   2.112
11224SOL    HW135504  12.960   6.282   2.072
11224SOL    HW235505  12.892   6.159   2.129
11225SOL     OW35506   1.878   6.949  12.813
11225SOL    HW135507   1.860   6.901  12.894
11225SOL    HW235508   1.949   6.901  12.772
11226SOL     OW35509  11.032   2.537  11.002
11226SOL    HW135510  11.087   2.608  11.035
11226SOL    HW235511  10.944   2.561  11.028
11227SOL     OW35512  12.373   1.797   6.099
11227SOL    HW135513  12.462   1.814   6.068
11227SOL    HW235514  12.320   1.794   6.020
11228SOL     OW35515   7.024   6.121   7.999
11228SOL    HW135516   7.014   6.207   7.958
11228SOL    HW235517   7.115   6.098   7.982
11229SOL     OW35518   1.133   3.781   7.361
11229SOL    HW135519   1.128   3.738   7.446
11229SOL    HW235520   1.164   3.712   7.301
11230SOL     OW35521  13.339  11.464   0.294
11230SOL    HW135522  13.417  11.412   0.275
11230SOL    HW235523  13.308  11.430   0.378
11231SOL     OW35524   5.595   0.213  12.291
11231SOL    HW135525   5.628   0.303  12.298
11231SOL    HW235526   5.500   0.222  12.296
11232SOL     OW35527  13.689   8.745   3.846
11232SOL    HW135528  13.756   8.806   3.878
11232SOL    HW235529  13.625   8.740   3.918
11233SOL     OW35530  13.365  14.849   0.313
11233SOL    HW135531  13.457  14.822   0.307
11233SOL    HW235532  13.334  14.811   0.395
11234SOL     OW35533   1.095   7.699   2.771
11234SOL    HW135534   1.077   7.619   2.821
11234SOL    HW235535   1.129   7.667   2.687
11235SOL     OW35536  13.961   5.712  10.572
11235SOL    HW135537  13.967   5.697  10.478
11235SOL    HW235538  13.954   5.807  10.580
11236SOL     OW35539   4.916   3.426   4.200
11236SOL    HW135540   4.983   3.420   4.131
11236SOL    HW235541   4.833   3.418   4.153
11237SOL     OW35542   9.298   9.468   1.629
11237SOL    HW135543   9.297   9.442   1.721
11237SOL    HW235544   9.295   9.564   1.631
11238SOL     OW35545   7.989   8.887   4.939
11238SOL    HW135546   7.962   8.798   4.916
11238SOL    HW235547   7.954   8.900   5.027
11239SOL     OW35548   7.488   6.290  13.450
11239SOL    HW135549   7.556   6.326  13.394
11239SOL    HW235550   7.508   6.324  13.537
11240SOL     OW35551   4.477   8.697   7.765
11240SOL    HW135552   4.533   8.632   7.724
11240SOL    HW235553   4.507   8.781   7.730
11241SOL     OW35554   2.938  14.165   9.267
11241SOL    HW135555   2.976  14.245   9.302
11241SOL    HW235556   2.991  14.094   9.304
11242SOL     OW35557   1.926   8.569   0.279
11242SOL    HW135558   1.927   8.567   0.375
11242SOL    HW235559   1.874   8.494   0.254
11243SOL     OW35560   6.639  14.285   5.355
11243SOL    HW135561   6.658  14.378   5.342
11243SOL    HW235562   6.725  14.243   5.358
11244SOL     OW35563   1.887   8.475   8.781
11244SOL    HW135564   1.898   8.567   8.806
11244SOL    HW235565   1.916   8.426   8.858
11245SOL     OW35566   5.787  11.421   8.040
11245SOL    HW135567   5.800  11.486   8.109
11245SOL    HW235568   5.867  11.369   8.039
11246SOL     OW35569  12.711  11.846   9.246
11246SOL    HW135570  12.710  11.942   9.244
11246SOL    HW235571  12.719  11.820   9.154
11247SOL     OW35572   8.654   4.394   4.829
11247SOL    HW135573   8.662   4.299   4.830
11247SOL    HW235574   8.566   4.411   4.861
11248SOL     OW35575   8.346  13.092   7.608
11248SOL    HW135576   8.259  13.060   7.584
11248SOL    HW235577   8.395  13.013   7.630
11249SOL     OW35578   8.394  10.336  11.240
11249SOL    HW135579   8.395  10.431  11.253
11249SOL    HW235580   8.302  10.312  11.244
11250SOL     OW35581   3.403  12.478   6.964
11250SOL    HW135582   3.330  12.418   6.951
11250SOL    HW235583   3.363  12.558   6.999
11251SOL     OW35584  12.017  10.572  12.216
11251SOL    HW135585  11.963  10.524  12.279
11251SOL    HW235586  12.023  10.660  12.251
11252SOL     OW35587   6.827   1.212   5.336
11252SOL    HW135588   6.889   1.260   5.389
11252SOL    HW235589   6.741   1.247   5.361
11253SOL     OW35590   6.322  10.449   2.767
11253SOL    HW135591   6.381  10.420   2.697
11253SOL    HW235592   6.277  10.525   2.730
11254SOL     OW35593   9.258   7.963  14.345
11254SOL    HW135594   9.256   7.878  14.300
11254SOL    HW235595   9.263   7.940  14.438
11255SOL     OW35596   3.799  11.506   6.697
11255SOL    HW135597   3.803  11.521   6.792
11255SOL    HW235598   3.747  11.579   6.663
11256SOL     OW35599  10.900  14.052  13.320
11256SOL    HW135600  10.845  14.118  13.362
11256SOL    HW235601  10.987  14.091  13.318
11257SOL     OW35602   7.366   3.998  11.206
11257SOL    HW135603   7.424   3.922  11.201
11257SOL    HW235604   7.280   3.965  11.182
11258SOL     OW35605  13.799   4.037  11.772
11258SOL    HW135606  13.813   3.942  11.772
11258SOL    HW235607  13.887   4.074  11.762
11259SOL     OW35608   7.652  11.684   8.744
11259SOL    HW135609   7.678  11.601   8.785
11259SOL    HW235610   7.598  11.727   8.811
11260SOL     OW35611   9.668  14.530   1.106
11260SOL    HW135612   9.664  14.493   1.194
11260SOL    HW235613   9.761  14.547   1.092
11261SOL     OW35614   2.321  14.803   9.010
11261SOL    HW135615   2.331   0.008   8.971
11261SOL    HW235616   2.328  14.818   9.104
11262SOL     OW35617  11.095  14.167  10.864
11262SOL    HW135618  11.043  14.088  10.846
11262SOL    HW235619  11.034  14.239  10.853
11263SOL     OW35620   5.318   2.536   7.402
11263SOL    HW135621   5.391   2.580   7.445
11263SOL    HW235622   5.249   2.531   7.469
11264SOL     OW35623   5.001  12.152   0.610
11264SOL    HW135624   5.063  12.095   0.656
11264SOL    HW235625   4.965  12.209   0.679
11265SOL     OW35626  12.025   1.662  14.024
11265SOL    HW135627  12.087   1.652  13.952
11265SOL    HW235628  12.079   1.692  14.098
11266SOL     OW35629   8.871  12.621   3.205
11266SOL    HW135630   8.933  12.688   3.177
11266SOL    HW235631   8.786  12.665   3.206
11267SOL     OW35632   8.516   3.854  14.311
11267SOL    HW135633   8.427   3.845  14.343
11267SOL    HW235634   8.541   3.766  14.283
11268SOL     OW35635   2.557   6.428   5.266
11268SOL    HW135636   2.503   6.498   5.302
11268SOL    HW235637   2.494   6.365   5.231
11269SOL     OW35638   9.189   4.530   5.319
11269SOL    HW135639   9.225   4.458   5.371
11269SOL    HW235640   9.142   4.584   5.383
11270SOL     OW35641   9.565  10.590   8.003
11270SOL    HW135642   9.601  10.513   7.959
11270SOL    HW235643   9.497  10.555   8.060
11271SOL     OW35644   7.208   4.281   4.954
11271SOL    HW135645   7.157   4.210   4.992
11271SOL    HW235646   7.197   4.271   4.859
11272SOL     OW35647  11.364   3.091   5.163
11272SOL    HW135648  11.303   3.134   5.223
11272SOL    HW235649  11.373   3.002   5.199
11273SOL     OW35650   1.659  14.717   4.741
11273SOL    HW135651   1.621  14.684   4.660
11273SOL    HW235652   1.668  14.811   4.727
11274SOL     OW35653  10.059   5.996  10.267
11274SOL    HW135654  10.007   5.944  10.206
11274SOL    HW235655  10.049   5.952  10.352
11275SOL     OW35656   3.828   5.219   8.715
11275SOL    HW135657   3.758   5.217   8.781
11275SOL    HW235658   3.814   5.141   8.662
11276SOL     OW35659   5.252   9.872   7.854
11276SOL    HW135660   5.277   9.805   7.917
11276SOL    HW235661   5.156   9.874   7.857
11277SOL     OW35662   0.831   4.113   8.560
11277SOL    HW135663   0.821   4.091   8.468
11277SOL    HW235664   0.891   4.046   8.594
11278SOL     OW35665  14.163   8.377   7.351
11278SOL    HW135666  14.111   8.418   7.282
11278SOL    HW235667  14.134   8.286   7.353
11279SOL     OW35668   2.719  10.754  13.579
11279SOL    HW135669   2.636  10.765  13.531
11279SOL    HW235670   2.777  10.818  13.539
11280SOL     OW35671   3.340   6.536   2.109
11280SOL    HW135672   3.391   6.593   2.052
11280SOL    HW235673   3.363   6.447   2.080
11281SOL     OW35674  13.964   7.384   2.150
11281SOL    HW135675  13.906   7.438   2.204
11281SOL    HW235676  13.930   7.393   2.061
11282SOL     OW35677   6.283   7.548   0.236
11282SOL    HW135678   6.310   7.471   0.288
11282SOL    HW235679   6.249   7.609   0.300
11283SOL     OW35680   8.327  12.040   5.156
11283SOL    HW135681   8.311  11.948   5.179
11283SOL    HW235682   8.296  12.048   5.066
11284SOL     OW35683   6.841   4.190  12.001
11284SOL    HW135684   6.838   4.263  11.939
11284SOL    HW235685   6.759   4.200  12.051
11285SOL     OW35686  12.363  11.471   1.880
11285SOL    HW135687  12.453  11.496   1.858
11285SOL    HW235688  12.360  11.474   1.975
11286SOL     OW35689   1.897  11.768   1.440
11286SOL    HW135690   1.874  11.834   1.506
11286SOL    HW235691   1.820  11.711   1.434
11287SOL     OW35692   6.086  10.220  11.130
11287SOL    HW135693   6.020  10.244  11.195
11287SOL    HW235694   6.144  10.159  11.176
11288SOL     OW35695   8.749   6.956  12.196
11288SOL    HW135696   8.730   6.866  12.221
11288SOL    HW235697   8.845   6.960  12.193
11289SOL     OW35698   6.123  10.398  14.480
11289SOL    HW135699   6.118  10.490  14.455
11289SOL    HW235700   6.035  10.376  14.512
11290SOL     OW35701   3.149   1.784  14.791
11290SOL    HW135702   3.107   1.717  14.845
11290SOL    HW235703   3.242   1.773  14.806
11291SOL     OW35704   6.601   9.362   5.789
11291SOL    HW135705   6.590   9.393   5.879
11291SOL    HW235706   6.620   9.442   5.739
11292SOL     OW35707  13.446   3.661  12.390
11292SOL    HW135708  13.400   3.666  12.306
11292SOL    HW235709  13.381   3.687  12.455
11293SOL     OW35710  14.833   0.838   2.511
11293SOL    HW135711   0.041   0.871   2.513
11293SOL    HW235712  14.842   0.747   2.485
11294SOL     OW35713  12.198  14.661   0.575
11294SOL    HW135714  12.202  14.587   0.515
11294SOL    HW235715  12.218  14.737   0.520
11295SOL     OW35716  13.025   5.887   1.555
11295SOL    HW135717  12.940   5.852   1.583
11295SOL    HW235718  13.080   5.810   1.543
11296SOL     OW35719  12.873   7.868  11.949
11296SOL    HW135720  12.959   7.873  11.906
11296SOL    HW235721  12.846   7.776  11.938
11297SOL     OW35722  13.797  13.259  13.487
11297SOL    HW135723  13.744  13.273  13.408
11297SOL    HW235724  13.811  13.164  13.489
11298SOL     OW35725   5.638   2.522  10.240
11298SOL    HW135726   5.647   2.436  10.200
11298SOL    HW235727   5.555   2.555  10.206
11299SOL     OW35728   7.232  11.022   3.005
11299SOL    HW135729   7.257  10.930   3.004
11299SOL    HW235730   7.287  11.062   2.937
11300SOL     OW35731  13.627   4.852   9.830
11300SOL    HW135732  13.563   4.843   9.759
11300SOL    HW235733  13.586   4.810   9.906
11301SOL     OW35734   4.334   8.035   5.164
11301SOL    HW135735   4.353   8.051   5.071
11301SOL    HW235736   4.315   8.121   5.200
11302SOL     OW35737   9.856   7.063   3.975
11302SOL    HW135738   9.943   7.099   3.988
11302SOL    HW235739   9.841   7.008   4.052
11303SOL     OW35740   8.037   4.472  10.793
11303SOL    HW135741   8.130   4.484  10.810
11303SOL    HW235742   8.033   4.416  10.715
11304SOL     OW35743   6.659  10.030   8.497
11304SOL    HW135744   6.714   9.967   8.450
11304SOL    HW235745   6.700  10.036   8.584
11305SOL     OW35746   9.732   2.969  11.952
11305SOL    HW135747   9.705   3.061  11.949
11305SOL    HW235748   9.722   2.944  12.043
11306SOL     OW35749  14.055  14.662   7.558
11306SOL    HW135750  14.080  14.685   7.469
11306SOL    HW235751  13.963  14.635   7.552
11307SOL     OW35752  10.618   7.812   5.059
11307SOL    HW135753  10.680   7.885   5.057
11307SOL    HW235754  10.609   7.791   5.152
11308SOL     OW35755   7.114  11.364   1.791
11308SOL    HW135756   7.139  11.274   1.770
11308SOL    HW235757   7.073  11.396   1.711
11309SOL     OW35758   9.015   4.937   4.357
11309SOL    HW135759   8.926   4.926   4.323
11309SOL    HW235760   9.068   4.957   4.280
11310SOL     OW35761   5.418  12.983   0.642
11310SOL    HW135762   5.484  12.913   0.642
11310SOL    HW235763   5.433  13.030   0.724
11311SOL     OW35764   9.333   9.210   5.610
11311SOL    HW135765   9.262   9.265   5.643
11311SOL    HW235766   9.410   9.240   5.658
11312SOL     OW35767   9.580  10.442  12.661
11312SOL    HW135768   9.598  10.474  12.749
11312SOL    HW235769   9.521  10.507  12.623
11313SOL     OW35770   3.477   7.107  13.413
11313SOL    HW135771   3.417   7.049  13.461
11313SOL    HW235772   3.448   7.101  13.322
11314SOL     OW35773   6.579  13.419   2.540
11314SOL    HW135774   6.589  13.481   2.612
11314SOL    HW235775   6.635  13.452   2.470
11315SOL     OW35776   9.761   3.116   0.339
11315SOL    HW135777   9.855   3.112   0.353
11315SOL    HW235778   9.750   3.139   0.247
11316SOL     OW35779  10.440   5.316   5.653
11316SOL    HW135780  10.456   5.222   5.655
11316SOL    HW235781  10.380   5.329   5.579
11317SOL     OW35782   9.877   0.586  13.678
11317SOL    HW135783   9.827   0.591  13.597
11317SOL    HW235784   9.854   0.666  13.725
11318SOL     OW35785   5.600  12.620  10.018
11318SOL    HW135786   5.617  12.547  10.079
11318SOL    HW235787   5.673  12.680  10.031
11319SOL     OW35788   5.637   8.513   0.250
11319SOL    HW135789   5.587   8.577   0.301
11319SOL    HW235790   5.606   8.524   0.160
11320SOL     OW35791  13.433  14.293   1.774
11320SOL    HW135792  13.364  14.320   1.713
11320SOL    HW235793  13.479  14.223   1.729
11321SOL     OW35794   2.891   0.370   5.469
11321SOL    HW135795   2.921   0.407   5.552
11321SOL    HW235796   2.972   0.341   5.426
11322SOL     OW35797   0.881   4.345  11.627
11322SOL    HW135798   0.952   4.378  11.573
11322SOL    HW235799   0.804   4.346  11.570
11323SOL     OW35800   6.286   3.127  12.041
11323SOL    HW135801   6.354   3.073  11.999
11323SOL    HW235802   6.320   3.142  12.129
11324SOL     OW35803  13.048  13.378   1.331
11324SOL    HW135804  13.108  13.426   1.274
11324SOL    HW235805  13.020  13.442   1.396
11325SOL     OW35806  14.350   6.230  11.984
11325SOL    HW135807  14.379   6.320  11.998
11325SOL    HW235808  14.418   6.177  12.027
11326SOL     OW35809  14.380   3.612   7.048
11326SOL    HW135810  14.403   3.524   7.020
11326SOL    HW235811  14.455   3.666   7.023
11327SOL     OW35812   8.425   9.032  13.183
11327SOL    HW135813   8.498   9.018  13.122
11327SOL    HW235814   8.347   9.032  13.126
11328SOL     OW35815  12.386   9.033   3.247
11328SOL    HW135816  12.390   9.117   3.201
11328SOL    HW235817  12.471   8.992   3.229
11329SOL     OW35818   1.562   2.352   3.190
11329SOL    HW135819   1.507   2.367   3.113
11329SOL    HW235820   1.582   2.259   3.188
11330SOL     OW35821   1.498  14.416  12.174
11330SOL    HW135822   1.556  14.492  12.183
11330SOL    HW235823   1.557  14.340  12.177
11331SOL     OW35824  14.184   4.772   5.069
11331SOL    HW135825  14.167   4.792   4.977
11331SOL    HW235826  14.098   4.772   5.110
11332SOL     OW35827   3.164   8.373   7.608
11332SOL    HW135828   3.193   8.295   7.656
11332SOL    HW235829   3.225   8.441   7.635
11333SOL     OW35830   3.685   7.258   2.626
11333SOL    HW135831   3.735   7.207   2.562
11333SOL    HW235832   3.669   7.198   2.698
11334SOL     OW35833   6.334   1.018  10.916
11334SOL    HW135834   6.333   1.021  10.821
11334SOL    HW235835   6.246   1.047  10.942
11335SOL     OW35836  10.697   0.927   4.944
11335SOL    HW135837  10.690   0.835   4.919
11335SOL    HW235838  10.721   0.973   4.863
11336SOL     OW35839   5.538  12.510   3.839
11336SOL    HW135840   5.462  12.549   3.881
11336SOL    HW235841   5.613  12.552   3.881
11337SOL     OW35842   3.396   8.877   1.630
11337SOL    HW135843   3.343   8.950   1.598
11337SOL    HW235844   3.384   8.809   1.564
11338SOL     OW35845   1.155  11.998   7.197
11338SOL    HW135846   1.116  12.085   7.204
11338SOL    HW235847   1.096  11.942   7.246
11339SOL     OW35848   0.991  14.154  10.818
11339SOL    HW135849   0.948  14.095  10.880
11339SOL    HW235850   1.019  14.228  10.872
11340SOL     OW35851   2.867   7.111   8.011
11340SOL    HW135852   2.840   7.031   8.056
11340SOL    HW235853   2.879   7.085   7.920
11341SOL     OW35854   0.138   4.648   5.058
11341SOL    HW135855   0.092   4.675   4.978
11341SOL    HW235856   0.068   4.625   5.119
11342SOL     OW35857   3.715  10.522  11.396
11342SOL    HW135858   3.713  10.427  11.382
11342SOL    HW235859   3.755  10.533  11.483
11343SOL     OW35860  13.559  13.732   2.849
11343SOL    HW135861  13.599  13.706   2.766
11343SOL    HW235862  13.592  13.668   2.912
11344SOL     OW35863   5.458   9.557   0.283
11344SOL    HW135864   5.502   9.538   0.366
11344SOL    HW235865   5.443   9.652   0.285
11345SOL     OW35866   9.174   4.352  13.722
11345SOL    HW135867   9.175   4.256  13.726
11345SOL    HW235868   9.258   4.376  13.685
11346SOL     OW35869   5.004   4.776  14.207
11346SOL    HW135870   4.909   4.779  14.203
11346SOL    HW235871   5.025   4.734  14.290
11347SOL     OW35872  10.058   9.204   2.330
11347SOL    HW135873  10.150   9.190   2.354
11347SOL    HW235874  10.030   9.120   2.294
11348SOL     OW35875   3.481  12.483   7.509
11348SOL    HW135876   3.547  12.533   7.556
11348SOL    HW235877   3.419  12.454   7.576
11349SOL     OW35878   6.503   5.889  14.443
11349SOL    HW135879   6.437   5.945  14.484
11349SOL    HW235880   6.587   5.929  14.466
11350SOL     OW35881  13.554   1.812   0.516
11350SOL    HW135882  13.610   1.889   0.523
11350SOL    HW235883  13.587   1.752   0.583
11351SOL     OW35884   1.201  14.224  13.583
11351SOL    HW135885   1.144  14.300  13.593
11351SOL    HW235886   1.245  14.238  13.500
11352SOL     OW35887   1.815  12.554  10.936
11352SOL    HW135888   1.801  12.583  11.026
11352SOL    HW235889   1.766  12.473  10.929
11353SOL     OW35890   0.556  12.025   6.142
11353SOL    HW135891   0.488  11.991   6.201
11353SOL    HW235892   0.620  12.065   6.200
11354SOL     OW35893  12.705   8.457   6.458
11354SOL    HW135894  12.694   8.420   6.371
11354SOL    HW235895  12.616   8.470   6.490
11355SOL     OW35896  11.516  11.270   3.428
11355SOL    HW135897  11.481  11.263   3.339
11355SOL    HW235898  11.493  11.186   3.469
11356SOL     OW35899   2.852   2.380   2.243
11356SOL    HW135900   2.828   2.463   2.283
11356SOL    HW235901   2.793   2.315   2.283
11357SOL     OW35902  14.339   1.619   4.130
11357SOL    HW135903  14.390   1.666   4.064
11357SOL    HW235904  14.254   1.663   4.130
11358SOL     OW35905   6.929  13.646   8.903
11358SOL    HW135906   6.967  13.641   8.991
11358SOL    HW235907   6.840  13.614   8.914
11359SOL     OW35908  12.800  10.955  12.804
11359SOL    HW135909  12.773  10.961  12.896
11359SOL    HW235910  12.731  10.903  12.762
11360SOL     OW35911   9.953   7.152  13.939
11360SOL    HW135912   9.886   7.199  13.890
11360SOL    HW235913   9.989   7.089  13.876
11361SOL     OW35914  14.838   5.989   5.806
11361SOL    HW135915  14.830   5.998   5.901
11361SOL    HW235916  14.748   5.977   5.775
11362SOL     OW35917   3.815   6.011   3.920
11362SOL    HW135918   3.801   5.922   3.952
11362SOL    HW235919   3.908   6.014   3.898
11363SOL     OW35920   5.865   4.263   4.936
11363SOL    HW135921   5.785   4.265   4.989
11363SOL    HW235922   5.934   4.293   4.995
11364SOL     OW35923  11.051   9.215  11.376
11364SOL    HW135924  11.028   9.229  11.284
11364SOL    HW235925  11.024   9.296  11.419
11365SOL     OW35926  13.757  11.364   8.081
11365SOL    HW135927  13.766  11.327   7.993
11365SOL    HW235928  13.846  11.362   8.117
11366SOL     OW35929  14.079   4.409   4.162
11366SOL    HW135930  14.045   4.498   4.154
11366SOL    HW235931  14.145   4.402   4.093
11367SOL     OW35932   8.629  12.328   9.699
11367SOL    HW135933   8.715  12.305   9.732
11367SOL    HW235934   8.629  12.297   9.608
11368SOL     OW35935   9.481   8.903  14.862
11368SOL    HW135936   9.404   8.926   0.031
11368SOL    HW235937   9.459   8.819  14.822
11369SOL     OW35938  11.739  14.841   5.750
11369SOL    HW135939  11.780   0.042   5.776
11369SOL    HW235940  11.800  14.774   5.783
11370SOL     OW35941   0.489   9.881   9.246
11370SOL    HW135942   0.473   9.792   9.278
11370SOL    HW235943   0.404   9.910   9.213
11371SOL     OW35944  12.923  12.964   4.088
11371SOL    HW135945  12.845  12.969   4.033
11371SOL    HW235946  12.894  12.919   4.167
11372SOL     OW35947   6.211   0.025   2.226
11372SOL    HW135948   6.269  14.856   2.169
11372SOL    HW235949   6.269   0.061   2.293
11373SOL     OW35950   1.186  13.494   6.054
11373SOL    HW135951   1.149  13.506   6.142
11373SOL    HW235952   1.221  13.404   6.055
11374SOL     OW35953   3.843   9.473   8.165
11374SOL    HW135954   3.879   9.385   8.155
11374SOL    HW235955   3.750   9.464   8.147
11375SOL     OW35956  13.967  10.059  14.371
11375SOL    HW135957  13.909   9.998  14.325
11375SOL    HW235958  13.973  10.135  14.312
11376SOL     OW35959   7.129   7.385   8.375
11376SOL    HW135960   7.138   7.441   8.451
11376SOL    HW235961   7.102   7.300   8.410
11377SOL     OW35962   1.895  12.850   3.750
11377SOL    HW135963   1.932  12.762   3.741
11377SOL    HW235964   1.907  12.891   3.664
11378SOL     OW35965   9.492   1.953   4.682
11378SOL    HW135966   9.566   1.892   4.691
11378SOL    HW235967   9.430   1.926   4.749
11379SOL     OW35968   9.801   5.113  12.451
11379SOL    HW135969   9.721   5.062  12.438
11379SOL    HW235970   9.859   5.085  12.380
11380SOL     OW35971   4.452  12.131   8.307
11380SOL    HW135972   4.506  12.142   8.386
11380SOL    HW235973   4.477  12.205   8.251
11381SOL     OW35974   6.456  12.418  11.894
11381SOL    HW135975   6.417  12.333  11.914
11381SOL    HW235976   6.524  12.430  11.961
11382SOL     OW35977   3.639  10.965   0.331
11382SOL    HW135978   3.702  10.965   0.259
11382SOL    HW235979   3.639  11.055   0.362
11383SOL     OW35980  12.235   8.285   0.817
11383SOL    HW135981  12.315   8.267   0.768
11383SOL    HW235982  12.189   8.201   0.820
11384SOL     OW35983  11.511   8.266   5.102
11384SOL    HW135984  11.515   8.294   5.011
11384SOL    HW235985  11.498   8.171   5.097
11385SOL     OW35986   9.526  12.109  10.134
11385SOL    HW135987   9.532  12.021  10.096
11385SOL    HW235988   9.531  12.168  10.059
11386SOL     OW35989   2.380   9.046  13.908
11386SOL    HW135990   2.351   9.136  13.921
11386SOL    HW235991   2.457   9.053  13.851
11387SOL     OW35992   1.883  11.819   2.972
11387SOL    HW135993   1.923  11.870   3.042
11387SOL    HW235994   1.869  11.732   3.010
11388SOL     OW35995   1.188   6.223  10.988
11388SOL    HW135996   1.269   6.226  10.936
11388SOL    HW235997   1.124   6.181  10.931
11389SOL     OW35998  11.062   8.424   3.550
11389SOL    HW135999  10.983   8.392   3.594
11389SOL    HW236000  11.100   8.487   3.611
11390SOL     OW36001   0.798  11.874  12.216
11390SOL    HW136002   0.888  11.842  12.224
11390SOL    HW236003   0.776  11.860  12.124
11391SOL     OW36004   4.592  14.246   5.665
11391SOL    HW136005   4.577  14.169   5.610
11391SOL    HW236006   4.518  14.247   5.726
11392SOL     OW36007  10.162   7.299   0.616
11392SOL    HW136008  10.080   7.255   0.639
11392SOL    HW236009  10.229   7.251   0.665
11393SOL     OW36010  13.771   2.159  11.179
11393SOL    HW136011  13.730   2.132  11.262
11393SOL    HW236012  13.824   2.084  11.153
11394SOL     OW36013   6.308   5.332   5.785
11394SOL    HW136014   6.356   5.289   5.714
11394SOL    HW236015   6.253   5.397   5.741
11395SOL     OW36016   9.742   5.535   6.768
11395SOL    HW136017   9.666   5.514   6.715
11395SOL    HW236018   9.794   5.454   6.768
11396SOL     OW36019   1.873   9.682   9.369
11396SOL    HW136020   1.926   9.728   9.435
11396SOL    HW236021   1.922   9.602   9.352
11397SOL     OW36022   1.305  11.402   7.501
11397SOL    HW136023   1.260  11.322   7.527
11397SOL    HW236024   1.251  11.437   7.430
11398SOL     OW36025   2.707   4.116   9.839
11398SOL    HW136026   2.768   4.052   9.874
11398SOL    HW236027   2.625   4.068   9.829
11399SOL     OW36028   6.682  13.857  11.541
11399SOL    HW136029   6.712  13.854  11.450
11399SOL    HW236030   6.756  13.894  11.590
11400SOL     OW36031   4.633   6.708   9.734
11400SOL    HW136032   4.559   6.730   9.678
11400SOL    HW236033   4.696   6.664   9.676
11401SOL     OW36034   4.121  12.011   9.140
11401SOL    HW136035   4.033  12.035   9.168
11401SOL    HW236036   4.148  11.943   9.202
11402SOL     OW36037   2.570   7.807   0.458
11402SOL    HW136038   2.547   7.772   0.372
11402SOL    HW236039   2.608   7.893   0.440
11403SOL     OW36040   6.724  13.351  10.066
11403SOL    HW136041   6.767  13.268  10.083
11403SOL    HW236042   6.641  13.346  10.114
11404SOL     OW36043   3.818   1.801   9.542
11404SOL    HW136044   3.809   1.723   9.486
11404SOL    HW236045   3.737   1.850   9.528
11405SOL     OW36046  13.118   4.066  13.554
11405SOL    HW136047  13.151   4.037  13.468
11405SOL    HW236048  13.186   4.038  13.616
11406SOL     OW36049  12.945   9.684   1.853
11406SOL    HW136050  12.896   9.760   1.822
11406SOL    HW236051  12.958   9.700   1.946
11407SOL     OW36052  11.728   7.537   2.014
11407SOL    HW136053  11.677   7.524   2.094
11407SOL    HW236054  11.808   7.581   2.043
11408SOL     OW36055   6.097   7.239   6.473
11408SOL    HW136056   6.132   7.154   6.447
11408SOL    HW236057   6.063   7.225   6.561
11409SOL     OW36058  10.151   8.519   6.770
11409SOL    HW136059  10.111   8.451   6.825
11409SOL    HW236060  10.152   8.482   6.682
11410SOL     OW36061   9.617   9.656   0.389
11410SOL    HW136062   9.643   9.660   0.481
11410SOL    HW236063   9.597   9.564   0.373
11411SOL     OW36064  12.311   3.484   3.222
11411SOL    HW136065  12.241   3.463   3.160
11411SOL    HW236066  12.332   3.400   3.264
11412SOL     OW36067   5.360   4.287   2.248
11412SOL    HW136068   5.347   4.249   2.161
11412SOL    HW236069   5.449   4.261   2.273
11413SOL     OW36070   4.396   2.296   1.118
11413SOL    HW136071   4.416   2.236   1.190
11413SOL    HW236072   4.375   2.238   1.044
11414SOL     OW36073   1.233  10.031  10.007
11414SOL    HW136074   1.255  10.069   9.922
11414SOL    HW236075   1.228   9.937   9.991
11415SOL     OW36076  11.489   7.541  14.206
11415SOL    HW136077  11.550   7.558  14.135
11415SOL    HW236078  11.453   7.454  14.186
11416SOL     OW36079   9.973   5.409   6.579
11416SOL    HW136080  10.015   5.482   6.625
11416SOL    HW236081   9.935   5.449   6.501
11417SOL     OW36082   0.379   2.017   6.818
11417SOL    HW136083   0.416   1.956   6.753
11417SOL    HW236084   0.450   2.030   6.880
11418SOL     OW36085   2.761   9.395   1.719
11418SOL    HW136086   2.690   9.459   1.732
11418SOL    HW236087   2.788   9.407   1.628
11419SOL     OW36088  11.817   9.262  11.730
11419SOL    HW136089  11.785   9.268  11.640
11419SOL    HW236090  11.890   9.200  11.726
11420SOL     OW36091  10.600   9.242   6.327
11420SOL    HW136092  10.572   9.328   6.296
11420SOL    HW236093  10.582   9.243   6.421
11421SOL     OW36094  14.610   1.801  14.227
11421SOL    HW136095  14.599   1.814  14.321
11421SOL    HW236096  14.698   1.764  14.218
11422SOL     OW36097  14.837   4.518   4.175
11422SOL    HW136098  14.877   4.530   4.089
11422SOL    HW236099  14.748   4.552   4.165
11423SOL     OW36100   9.399   7.863   0.058
11423SOL    HW136101   9.490   7.889   0.043
11423SOL    HW236102   9.358   7.940   0.098
11424SOL     OW36103   5.466   9.871  14.461
11424SOL    HW136104   5.389   9.863  14.405
11424SOL    HW236105   5.432   9.866  14.550
11425SOL     OW36106   7.452   7.781  10.768
11425SOL    HW136107   7.416   7.869  10.776
11425SOL    HW236108   7.375   7.725  10.757
11426SOL     OW36109   2.833   4.725  13.167
11426SOL    HW136110   2.818   4.816  13.189
11426SOL    HW236111   2.759   4.700  13.112
11427SOL     OW36112   6.973   1.018  12.392
11427SOL    HW136113   6.881   0.991  12.390
11427SOL    HW236114   6.998   1.025  12.300
11428SOL     OW36115   4.629   9.702   8.297
11428SOL    HW136116   4.703   9.682   8.354
11428SOL    HW236117   4.574   9.760   8.350
11429SOL     OW36118   7.644   9.745   8.465
11429SOL    HW136119   7.615   9.735   8.556
11429SOL    HW236120   7.592   9.681   8.416
11430SOL     OW36121  13.941   7.498   9.140
11430SOL    HW136122  13.965   7.520   9.230
11430SOL    HW236123  13.949   7.581   9.092
11431SOL     OW36124   3.990   9.315  13.148
11431SOL    HW136125   4.004   9.243  13.210
11431SOL    HW236126   4.016   9.279  13.063
11432SOL     OW36127   5.854  10.269   8.750
11432SOL    HW136128   5.834  10.187   8.706
11432SOL    HW236129   5.843  10.336   8.682
11433SOL     OW36130  14.124  10.784  10.213
11433SOL    HW136131  14.154  10.715  10.153
11433SOL    HW236132  14.167  10.764  10.296
11434SOL     OW36133   3.282  13.844   9.797
11434SOL    HW136134   3.341  13.867   9.725
11434SOL    HW236135   3.269  13.927   9.844
11435SOL     OW36136   8.375   4.387  11.337
11435SOL    HW136137   8.426   4.307  11.328
11435SOL    HW236138   8.303   4.363  11.395
11436SOL     OW36139  11.126   0.225   9.286
11436SOL    HW136140  11.073   0.244   9.363
11436SOL    HW236141  11.204   0.183   9.321
11437SOL     OW36142   6.257   4.840   3.077
11437SOL    HW136143   6.216   4.925   3.058
11437SOL    HW236144   6.351   4.857   3.070
11438SOL     OW36145  13.636  13.335  14.812
11438SOL    HW136146  13.662  13.286  14.734
11438SOL    HW236147  13.558  13.290  14.844
11439SOL     OW36148   4.852   4.944  10.832
11439SOL    HW136149   4.870   4.974  10.921
11439SOL    HW236150   4.768   4.983  10.810
11440SOL     OW36151  11.323  14.342   5.619
11440SOL    HW136152  11.315  14.273   5.554
11440SOL    HW236153  11.258  14.407   5.594
11441SOL     OW36154   9.610  11.542   4.844
11441SOL    HW136155   9.683  11.604   4.840
11441SOL    HW236156   9.536  11.593   4.877
11442SOL     OW36157   4.782   2.222  11.985
11442SOL    HW136158   4.834   2.267  11.919
11442SOL    HW236159   4.808   2.261  12.068
11443SOL     OW36160  11.868   7.928   6.683
11443SOL    HW136161  11.813   7.850   6.687
11443SOL    HW236162  11.956   7.897   6.701
11444SOL     OW36163   6.400   8.759  12.993
11444SOL    HW136164   6.333   8.725  13.053
11444SOL    HW236165   6.382   8.853  12.987
11445SOL     OW36166  11.688   1.871   7.091
11445SOL    HW136167  11.608   1.856   7.140
11445SOL    HW236168  11.659   1.902   7.005
11446SOL     OW36169  10.346   4.497  11.033
11446SOL    HW136170  10.376   4.411  11.003
11446SOL    HW236171  10.262   4.509  10.990
11447SOL     OW36172  11.358   6.913  10.101
11447SOL    HW136173  11.274   6.956  10.089
11447SOL    HW236174  11.384   6.935  10.190
11448SOL     OW36175   6.765   7.501   3.911
11448SOL    HW136176   6.678   7.538   3.925
11448SOL    HW236177   6.751   7.406   3.910
11449SOL     OW36178   8.141  13.376   3.056
11449SOL    HW136179   8.215  13.437   3.051
11449SOL    HW236180   8.170  13.309   3.119
11450SOL     OW36181   2.245   0.052  12.264
11450SOL    HW136182   2.316   0.040  12.326
11450SOL    HW236183   2.257  14.865  12.199
11451SOL     OW36184   6.863  10.647   8.533
11451SOL    HW136185   6.798  10.577   8.535
11451SOL    HW236186   6.812  10.727   8.528
11452SOL     OW36187   0.089  13.619   8.753
11452SOL    HW136188   0.147  13.642   8.681
11452SOL    HW236189   0.073  13.525   8.742
11453SOL     OW36190   9.415  10.900  14.079
11453SOL    HW136191   9.387  10.970  14.020
11453SOL    HW236192   9.366  10.915  14.160
11454SOL     OW36193   5.655   9.333   9.238
11454SOL    HW136194   5.570   9.290   9.252
11454SOL    HW236195   5.642   9.386   9.159
11455SOL     OW36196  12.057   0.759  11.192
11455SOL    HW136197  12.013   0.826  11.244
11455SOL    HW236198  12.060   0.682  11.249
11456SOL     OW36199   2.434   9.362   3.617
11456SOL    HW136200   2.433   9.450   3.655
11456SOL    HW236201   2.389   9.308   3.681
11457SOL     OW36202  10.580   8.417   3.668
11457SOL    HW136203  10.658   8.467   3.646
11457SOL    HW236204  10.607   8.326   3.662
11458SOL     OW36205  13.489   4.804   8.369
11458SOL    HW136206  13.507   4.714   8.343
11458SOL    HW236207  13.546   4.857   8.314
11459SOL     OW36208   9.069   4.367   3.385
11459SOL    HW136209   9.053   4.450   3.429
11459SOL    HW236210   9.137   4.387   3.320
11460SOL     OW36211   2.865   5.319   0.970
11460SOL    HW136212   2.885   5.408   1.000
11460SOL    HW236213   2.933   5.299   0.906
11461SOL     OW36214   6.340  12.221   9.731
11461SOL    HW136215   6.365  12.137   9.693
11461SOL    HW236216   6.334  12.281   9.657
11462SOL     OW36217   0.105   6.971   9.705
11462SOL    HW136218   0.019   6.934   9.722
11462SOL    HW236219   0.142   6.989   9.792
11463SOL     OW36220   3.291   3.892   5.685
11463SOL    HW136221   3.353   3.899   5.612
11463SOL    HW236222   3.228   3.963   5.671
11464SOL     OW36223   8.763   5.232   3.233
11464SOL    HW136224   8.725   5.189   3.309
11464SOL    HW236225   8.832   5.288   3.269
11465SOL     OW36226  11.403  13.447  11.356
11465SOL    HW136227  11.450  13.364  11.356
11465SOL    HW236228  11.473  13.513  11.360
11466SOL     OW36229   1.742  13.614   2.146
11466SOL    HW136230   1.712  13.694   2.189
11466SOL    HW236231   1.809  13.643   2.085
11467SOL     OW36232  11.444   6.993  10.346
11467SOL    HW136233  11.506   7.060  10.318
11467SOL    HW236234  11.486   6.951  10.421
11468SOL     OW36235   1.987   6.523   8.383
11468SOL    HW136236   1.952   6.552   8.299
11468SOL    HW236237   2.034   6.442   8.363
11469SOL     OW36238   6.527   1.565  13.045
11469SOL    HW136239   6.571   1.640  13.085
11469SOL    HW236240   6.590   1.531  12.982
11470SOL     OW36241   0.913   2.857  13.436
11470SOL    HW136242   0.982   2.837  13.372
11470SOL    HW236243   0.847   2.904  13.386
11471SOL     OW36244   0.179  11.390   6.865
11471SOL    HW136245   0.090  11.394   6.831
11471SOL    HW236246   0.175  11.328   6.938
11472SOL     OW36247   3.402   8.983   5.299
11472SOL    HW136248   3.319   9.030   5.300
11472SOL    HW236249   3.453   9.026   5.230
11473SOL     OW36250  11.479   1.819   9.809
11473SOL    HW136251  11.507   1.886   9.872
11473SOL    HW236252  11.437   1.868   9.739
11474SOL     OW36253  14.866  12.933  13.691
11474SOL    HW136254  14.871  12.843  13.723
11474SOL    HW236255   0.004  12.927  13.598
11475SOL     OW36256  14.140   4.999   4.514
11475SOL    HW136257  14.152   4.990   4.608
11475SOL    HW236258  14.099   5.084   4.502
11476SOL     OW36259  12.364  10.314   7.082
11476SOL    HW136260  12.307  10.380   7.120
11476SOL    HW236261  12.388  10.350   6.996
11477SOL     OW36262   6.066   4.712   1.632
11477SOL    HW136263   6.016   4.724   1.551
11477SOL    HW236264   6.118   4.791   1.640
11478SOL     OW36265   6.866  14.478   5.533
11478SOL    HW136266   6.808  14.551   5.556
11478SOL    HW236267   6.858  14.417   5.607
11479SOL     OW36268   6.125   4.016  11.241
11479SOL    HW136269   6.103   4.083  11.306
11479SOL    HW236270   6.173   4.064  11.173
11480SOL     OW36271   8.938   9.420   3.700
11480SOL    HW136272   8.895   9.490   3.650
11480SOL    HW236273   8.886   9.342   3.680
11481SOL     OW36274  11.318   5.496   8.929
11481SOL    HW136275  11.373   5.422   8.907
11481SOL    HW236276  11.257   5.504   8.855
11482SOL     OW36277   8.071   7.826  10.428
11482SOL    HW136278   8.057   7.844  10.334
11482SOL    HW236279   8.151   7.774  10.430
11483SOL     OW36280   3.755  14.160   8.123
11483SOL    HW136281   3.784  14.178   8.033
11483SOL    HW236282   3.831  14.120   8.165
11484SOL     OW36283  12.676   9.186  11.420
11484SOL    HW136284  12.700   9.268  11.376
11484SOL    HW236285  12.759   9.150  11.449
11485SOL     OW36286  11.195  12.954   5.987
11485SOL    HW136287  11.213  12.945   5.894
11485SOL    HW236288  11.109  12.912   5.999
11486SOL     OW36289  12.286   6.820  12.013
11486SOL    HW136290  12.204   6.868  12.004
11486SOL    HW236291  12.294   6.769  11.932
11487SOL     OW36292   2.637   2.126  10.025
11487SOL    HW136293   2.692   2.073  10.083
11487SOL    HW236294   2.697   2.154   9.955
11488SOL     OW36295  14.700   3.370  10.814
11488SOL    HW136296  14.610   3.400  10.819
11488SOL    HW236297  14.710   3.313  10.891
11489SOL     OW36298   4.395  11.565   1.604
11489SOL    HW136299   4.387  11.483   1.654
11489SOL    HW236300   4.431  11.537   1.519
11490SOL     OW36301   2.256   0.264   5.999
11490SOL    HW136302   2.198   0.202   6.044
11490SOL    HW236303   2.318   0.209   5.952
11491SOL     OW36304  12.448  10.740   7.753
11491SOL    HW136305  12.372  10.702   7.708
11491SOL    HW236306  12.445  10.702   7.840
11492SOL     OW36307   4.678   3.385  10.836
11492SOL    HW136308   4.630   3.333  10.902
11492SOL    HW236309   4.616   3.454  10.811
11493SOL     OW36310   0.179  12.828   2.268
11493SOL    HW136311   0.110  12.854   2.206
11493SOL    HW236312   0.171  12.891   2.339
11494SOL     OW36313   7.246   0.439   7.445
11494SOL    HW136314   7.184   0.421   7.516
11494SOL    HW236315   7.301   0.511   7.478
11495SOL     OW36316  10.658  13.023  10.516
11495SOL    HW136317  10.618  12.940  10.541
11495SOL    HW236318  10.597  13.061  10.452
11496SOL     OW36319   0.732   6.968  11.698
11496SOL    HW136320   0.640   6.974  11.671
11496SOL    HW236321   0.745   7.045  11.753
11497SOL     OW36322   1.603   0.834  14.596
11497SOL    HW136323   1.617   0.885  14.516
11497SOL    HW236324   1.581   0.899  14.663
11498SOL     OW36325   5.750   7.510   9.705
11498SOL    HW136326   5.837   7.496   9.668
11498SOL    HW236327   5.763   7.500   9.800
11499SOL     OW36328   2.781   3.452   4.143
11499SOL    HW136329   2.713   3.502   4.188
11499SOL    HW236330   2.738   3.371   4.117
11500SOL     OW36331   0.173   3.659   1.108
11500SOL    HW136332   0.176   3.742   1.062
11500SOL    HW236333   0.172   3.682   1.201
11501SOL     OW36334   0.624   0.947   4.370
11501SOL    HW136335   0.530   0.965   4.372
11501SOL    HW236336   0.633   0.864   4.417
11502SOL     OW36337   4.438   2.905  14.096
11502SOL    HW136338   4.533   2.895  14.104
11502SOL    HW236339   4.402   2.856  14.170
11503SOL     OW36340   2.632   9.108   0.061
11503SOL    HW136341   2.710   9.118   0.006
11503SOL    HW236342   2.569   9.171   0.025
11504SOL     OW36343   4.509   9.190  12.318
11504SOL    HW136344   4.532   9.155  12.404
11504SOL    HW236345   4.413   9.191  12.317
11505SOL     OW36346   5.366   6.992   8.435
11505SOL    HW136347   5.319   7.053   8.378
11505SOL    HW236348   5.343   7.019   8.524
11506SOL     OW36349   8.772  11.130  10.681
11506SOL    HW136350   8.806  11.215  10.710
11506SOL    HW236351   8.829  11.066  10.725
11507SOL     OW36352   2.393   9.933   2.185
11507SOL    HW136353   2.382   9.838   2.173
11507SOL    HW236354   2.321   9.958   2.243
11508SOL     OW36355   7.576   9.232   7.419
11508SOL    HW136356   7.620   9.286   7.485
11508SOL    HW236357   7.484   9.257   7.425
11509SOL     OW36358   4.093   2.948   4.617
11509SOL    HW136359   4.176   2.909   4.643
11509SOL    HW236360   4.027   2.894   4.661
11510SOL     OW36361   5.981   5.387   1.333
11510SOL    HW136362   5.993   5.462   1.274
11510SOL    HW236363   6.004   5.311   1.280
11511SOL     OW36364  10.063   9.079   4.357
11511SOL    HW136365  10.024   9.098   4.272
11511SOL    HW236366  10.013   9.132   4.419
11512SOL     OW36367   2.894   5.030   7.209
11512SOL    HW136368   2.810   5.019   7.254
11512SOL    HW236369   2.896   4.959   7.145
11513SOL     OW36370  11.752   0.945   6.946
11513SOL    HW136371  11.830   0.972   6.898
11513SOL    HW236372  11.691   0.917   6.877
11514SOL     OW36373  11.956   8.551   4.343
11514SOL    HW136374  11.874   8.600   4.350
11514SOL    HW236375  11.982   8.561   4.252
11515SOL     OW36376   2.083  14.825   0.974
11515SOL    HW136377   2.176  14.829   0.952
11515SOL    HW236378   2.057  14.736   0.951
11516SOL     OW36379   6.684   4.780   9.679
11516SOL    HW136380   6.696   4.700   9.628
11516SOL    HW236381   6.606   4.820   9.642
11517SOL     OW36382   8.358   5.946   7.520
11517SOL    HW136383   8.277   5.952   7.570
11517SOL    HW236384   8.402   6.030   7.535
11518SOL     OW36385  11.392   6.153   7.418
11518SOL    HW136386  11.397   6.240   7.457
11518SOL    HW236387  11.458   6.154   7.349
11519SOL     OW36388   9.355   0.870   7.018
11519SOL    HW136389   9.381   0.826   6.937
11519SOL    HW236390   9.262   0.892   7.005
11520SOL     OW36391   1.212   7.700   0.745
11520SOL    HW136392   1.304   7.695   0.721
11520SOL    HW236393   1.165   7.658   0.673
11521SOL     OW36394   2.925   5.561   5.819
11521SOL    HW136395   2.971   5.545   5.737
11521SOL    HW236396   2.951   5.489   5.877
11522SOL     OW36397   5.118   0.177  13.383
11522SOL    HW136398   5.180   0.107  13.405
11522SOL    HW236399   5.136   0.245  13.448
11523SOL     OW36400   8.248   9.777   0.668
11523SOL    HW136401   8.301   9.758   0.745
11523SOL    HW236402   8.197   9.854   0.692
11524SOL     OW36403   3.106  10.069   6.906
11524SOL    HW136404   3.057  10.142   6.868
11524SOL    HW236405   3.111  10.005   6.835
11525SOL     OW36406   3.256   3.013   7.540
11525SOL    HW136407   3.184   2.965   7.499
11525SOL    HW236408   3.299   3.059   7.468
11526SOL     OW36409  13.717   2.442   9.681
11526SOL    HW136410  13.768   2.390   9.744
11526SOL    HW236411  13.664   2.378   9.634
11527SOL     OW36412   4.350   5.793   2.310
11527SOL    HW136413   4.410   5.756   2.246
11527SOL    HW236414   4.402   5.803   2.389
11528SOL     OW36415   0.877   8.340  11.742
11528SOL    HW136416   0.796   8.332  11.691
11528SOL    HW236417   0.943   8.294  11.690
11529SOL     OW36418   4.035   9.812   9.257
11529SOL    HW136419   4.005   9.784   9.344
11529SOL    HW236420   4.130   9.813   9.265
11530SOL     OW36421  10.292   0.180  11.882
11530SOL    HW136422  10.267   0.137  11.800
11530SOL    HW236423  10.225   0.247  11.895
11531SOL     OW36424   3.566   2.528   9.366
11531SOL    HW136425   3.542   2.440   9.338
11531SOL    HW236426   3.626   2.560   9.297
11532SOL     OW36427   7.130  12.848  13.498
11532SOL    HW136428   7.144  12.859  13.592
11532SOL    HW236429   7.125  12.753  13.486
11533SOL     OW36430  14.108  13.030   6.142
11533SOL    HW136431  14.098  13.125   6.147
11533SOL    HW236432  14.041  12.997   6.201
11534SOL     OW36433   6.693   4.428   4.252
11534SOL    HW136434   6.668   4.464   4.337
11534SOL    HW236435   6.720   4.504   4.201
11535SOL     OW36436  10.323   0.119  11.628
11535SOL    HW136437  10.354   0.136  11.539
11535SOL    HW236438  10.388   0.060  11.665
11536SOL     OW36439   2.991   5.764  10.690
11536SOL    HW136440   2.989   5.855  10.719
11536SOL    HW236441   2.949   5.765  10.604
11537SOL     OW36442  12.477  11.793   0.001
11537SOL    HW136443  12.532  11.847  14.826
11537SOL    HW236444  12.467  11.710  14.835
11538SOL     OW36445  14.653   0.761   8.100
11538SOL    HW136446  14.737   0.785   8.062
11538SOL    HW236447  14.674   0.738   8.191
11539SOL     OW36448   5.026   0.950   9.772
11539SOL    HW136449   5.046   0.960   9.865
11539SOL    HW236450   5.059   1.031   9.732
11540SOL     OW36451  10.858   8.813   8.735
11540SOL    HW136452  10.880   8.726   8.767
11540SOL    HW236453  10.788   8.799   8.671
11541SOL     OW36454   9.719  13.663  11.549
11541SOL    HW136455   9.656  13.671  11.477
11541SOL    HW236456   9.675  13.704  11.624
11542SOL     OW36457   1.347   3.675   3.732
11542SOL    HW136458   1.358   3.752   3.787
11542SOL    HW236459   1.407   3.689   3.658
11543SOL     OW36460  13.221   7.417  11.436
11543SOL    HW136461  13.285   7.350  11.461
11543SOL    HW236462  13.136   7.376  11.453
11544SOL     OW36463   3.738   6.959   5.229
11544SOL    HW136464   3.761   6.998   5.313
11544SOL    HW236465   3.774   7.019   5.164
11545SOL     OW36466   6.873   6.026   2.760
11545SOL    HW136467   6.943   6.078   2.720
11545SOL    HW236468   6.914   5.985   2.836
11546SOL     OW36469  14.862  13.680   3.885
11546SOL    HW136470  14.871  13.638   3.799
11546SOL    HW236471   0.012  13.769   3.872
11547SOL     OW36472  10.290  12.356   9.394
11547SOL    HW136473  10.249  12.380   9.310
11547SOL    HW236474  10.220  12.364   9.458
11548SOL     OW36475  14.102  10.782   7.770
11548SOL    HW136476  14.048  10.829   7.706
11548SOL    HW236477  14.156  10.851   7.810
11549SOL     OW36478   1.474   5.965   1.043
11549SOL    HW136479   1.441   5.927   1.125
11549SOL    HW236480   1.439   5.907   0.975
11550SOL     OW36481   1.791  14.745   7.774
11550SOL    HW136482   1.785  14.651   7.753
11550SOL    HW236483   1.767  14.750   7.866
11551SOL     OW36484   4.011   2.383   5.638
11551SOL    HW136485   4.070   2.441   5.686
11551SOL    HW236486   3.946   2.441   5.598
11552SOL     OW36487  13.991   0.108   0.891
11552SOL    HW136488  14.077   0.128   0.928
11552SOL    HW236489  13.929   0.133   0.959
11553SOL     OW36490  14.318   1.882   3.144
11553SOL    HW136491  14.372   1.803   3.136
11553SOL    HW236492  14.301   1.890   3.238
11554SOL     OW36493   1.739  12.377   7.847
11554SOL    HW136494   1.794  12.336   7.780
11554SOL    HW236495   1.800  12.427   7.901
11555SOL     OW36496   4.719   9.372  12.678
11555SOL    HW136497   4.677   9.292  12.644
11555SOL    HW236498   4.647   9.423  12.714
11556SOL     OW36499   0.322   5.848   3.921
11556SOL    HW136500   0.398   5.811   3.966
11556SOL    HW236501   0.310   5.792   3.844
11557SOL     OW36502  11.904   3.814  10.247
11557SOL    HW136503  11.951   3.871  10.186
11557SOL    HW236504  11.920   3.853  10.333
11558SOL     OW36505  13.708  10.958   4.680
11558SOL    HW136506  13.798  10.965   4.649
11558SOL    HW236507  13.675  10.877   4.640
11559SOL     OW36508  13.592  14.861   0.043
11559SOL    HW136509  13.684   0.006   0.053
11559SOL    HW236510  13.552   0.050  14.874
11560SOL     OW36511   3.114   7.583   9.914
11560SOL    HW136512   3.020   7.593   9.900
11560SOL    HW236513   3.124   7.580  10.009
11561SOL     OW36514   9.447  12.836   0.802
11561SOL    HW136515   9.477  12.903   0.741
11561SOL    HW236516   9.351  12.841   0.799
11562SOL     OW36517   5.545   0.364   6.280
11562SOL    HW136518   5.594   0.415   6.216
11562SOL    HW236519   5.503   0.429   6.336
11563SOL     OW36520   7.831   0.619  14.150
11563SOL    HW136521   7.879   0.585  14.225
11563SOL    HW236522   7.773   0.547  14.123
11564SOL     OW36523   8.272   5.155   0.332
11564SOL    HW136524   8.185   5.162   0.292
11564SOL    HW236525   8.259   5.093   0.405
11565SOL     OW36526   9.922   6.972   5.057
11565SOL    HW136527   9.841   6.932   5.089
11565SOL    HW236528   9.989   6.946   5.120
11566SOL     OW36529   1.238   2.828   1.674
11566SOL    HW136530   1.250   2.737   1.647
11566SOL    HW236531   1.150   2.851   1.642
11567SOL     OW36532   0.052  10.973   9.671
11567SOL    HW136533   0.026  11.021   9.592
11567SOL    HW236534   0.059  11.041   9.738
11568SOL     OW36535  12.417  10.140  10.885
11568SOL    HW136536  12.495  10.147  10.829
11568SOL    HW236537  12.427  10.056  10.929
11569SOL     OW36538   4.332   1.398   8.710
11569SOL    HW136539   4.330   1.310   8.673
11569SOL    HW236540   4.424   1.422   8.710
11570SOL     OW36541  13.212   9.537  12.883
11570SOL    HW136542  13.289   9.481  12.887
11570SOL    HW236543  13.152   9.493  12.823
11571SOL     OW36544   4.300   1.399   9.927
11571SOL    HW136545   4.304   1.402  10.023
11571SOL    HW236546   4.315   1.489   9.900
11572SOL     OW36547   0.673   2.836   0.537
11572SOL    HW136548   0.585   2.816   0.504
11572SOL    HW236549   0.681   2.783   0.616
11573SOL     OW36550   6.572  13.937  10.341
11573SOL    HW136551   6.491  13.891  10.365
11573SOL    HW236552   6.610  13.965  10.424
11574SOL     OW36553   4.005   5.977  11.357
11574SOL    HW136554   3.933   5.982  11.420
11574SOL    HW236555   4.073   5.926  11.402
11575SOL     OW36556  10.071   9.392   7.046
11575SOL    HW136557  10.163   9.418   7.055
11575SOL    HW236558  10.023   9.457   7.098
11576SOL     OW36559   7.161  11.108  10.506
11576SOL    HW136560   7.129  11.108  10.416
11576SOL    HW236561   7.174  11.201  10.527
11577SOL     OW36562   5.246   9.483  13.590
11577SOL    HW136563   5.289   9.403  13.557
11577SOL    HW236564   5.186   9.508  13.520
11578SOL     OW36565   1.920   8.829  10.534
11578SOL    HW136566   1.916   8.915  10.491
11578SOL    HW236567   1.953   8.770  10.467
11579SOL     OW36568   9.918   9.970  12.552
11579SOL    HW136569   9.828   9.943  12.566
11579SOL    HW236570   9.969   9.889  12.558
11580SOL     OW36571   4.076   2.083   1.115
11580SOL    HW136572   3.987   2.087   1.079
11580SOL    HW236573   4.063   2.064   1.208
11581SOL     OW36574   3.680   9.513   0.925
11581SOL    HW136575   3.645   9.559   1.001
11581SOL    HW236576   3.775   9.529   0.929
11582SOL     OW36577   5.939   2.983  12.954
11582SOL    HW136578   5.920   2.907  12.899
11582SOL    HW236579   5.863   3.040  12.944
11583SOL     OW36580   5.248   7.577   6.694
11583SOL    HW136581   5.312   7.591   6.624
11583SOL    HW236582   5.280   7.500   6.740
11584SOL     OW36583   9.886   2.868   7.574
11584SOL    HW136584   9.901   2.962   7.566
11584SOL    HW236585   9.868   2.855   7.668
11585SOL     OW36586   6.564  13.085   6.503
11585SOL    HW136587   6.622  13.044   6.567
11585SOL    HW236588   6.594  13.176   6.499
11586SOL     OW36589   6.723  10.325   4.432
11586SOL    HW136590   6.687  10.383   4.499
11586SOL    HW236591   6.771  10.383   4.373
11587SOL     OW36592   9.301  10.217  13.542
11587SOL    HW136593   9.381  10.182  13.502
11587SOL    HW236594   9.287  10.162  13.619
11588SOL     OW36595   5.336  11.880   1.119
11588SOL    HW136596   5.385  11.857   1.198
11588SOL    HW236597   5.297  11.798   1.090
11589SOL     OW36598  11.285  14.247   4.405
11589SOL    HW136599  11.223  14.236   4.333
11589SOL    HW236600  11.242  14.208   4.480
11590SOL     OW36601   9.723   9.822  13.570
11590SOL    HW136602   9.818   9.819  13.573
11590SOL    HW236603   9.695   9.731  13.563
11591SOL     OW36604   0.722   0.814  10.652
11591SOL    HW136605   0.765   0.894  10.684
11591SOL    HW236606   0.780   0.782  10.583
11592SOL     OW36607  11.435   6.936   7.184
11592SOL    HW136608  11.355   6.884   7.192
11592SOL    HW236609  11.505   6.871   7.183
11593SOL     OW36610   1.588   3.898   9.593
11593SOL    HW136611   1.599   3.988   9.563
11593SOL    HW236612   1.671   3.855   9.572
11594SOL     OW36613   4.511   2.237   9.685
11594SOL    HW136614   4.429   2.217   9.639
11594SOL    HW236615   4.560   2.155   9.682
11595SOL     OW36616  11.685   9.550   0.971
11595SOL    HW136617  11.773   9.515   0.981
11595SOL    HW236618  11.693   9.643   0.995
11596SOL     OW36619   5.518  12.575   1.766
11596SOL    HW136620   5.573  12.579   1.688
11596SOL    HW236621   5.440  12.527   1.737
11597SOL     OW36622   0.673   0.339   2.189
11597SOL    HW136623   0.659   0.326   2.283
11597SOL    HW236624   0.680   0.434   2.179
11598SOL     OW36625   6.978  12.655  14.084
11598SOL    HW136626   7.041  12.586  14.064
11598SOL    HW236627   6.896  12.609  14.100
11599SOL     OW36628   5.740  12.257  10.997
11599SOL    HW136629   5.829  12.285  10.975
11599SOL    HW236630   5.690  12.269  10.917
11600SOL     OW36631  10.519   8.294   7.850
11600SOL    HW136632  10.526   8.389   7.843
11600SOL    HW236633  10.513   8.277   7.945
11601SOL     OW36634   3.986  13.892   0.393
11601SOL    HW136635   3.955  13.831   0.461
11601SOL    HW236636   4.002  13.974   0.441
11602SOL     OW36637   8.365  13.690   5.212
11602SOL    HW136638   8.318  13.706   5.294
11602SOL    HW236639   8.307  13.634   5.161
11603SOL     OW36640   1.716   1.829  11.535
11603SOL    HW136641   1.657   1.753  11.534
11603SOL    HW236642   1.798   1.795  11.569
11604SOL     OW36643  11.220  12.101  10.332
11604SOL    HW136644  11.297  12.157  10.346
11604SOL    HW236645  11.219  12.086  10.237
11605SOL     OW36646   0.632  11.684   5.783
11605SOL    HW136647   0.666  11.759   5.832
11605SOL    HW236648   0.658  11.700   5.693
11606SOL     OW36649   5.660   8.901   2.151
11606SOL    HW136650   5.635   8.963   2.220
11606SOL    HW236651   5.745   8.868   2.178
11607SOL     OW36652   2.922   3.279  11.679
11607SOL    HW136653   2.958   3.310  11.762
11607SOL    HW236654   2.918   3.184  11.689
11608SOL     OW36655  11.943   9.544  11.378
11608SOL    HW136656  11.945   9.457  11.339
11608SOL    HW236657  11.998   9.536  11.456
11609SOL     OW36658  13.776  14.274  10.526
11609SOL    HW136659  13.866  14.304  10.515
11609SOL    HW236660  13.750  14.304  10.613
11610SOL     OW36661   0.615   6.402   8.720
11610SOL    HW136662   0.536   6.403   8.774
11610SOL    HW236663   0.603   6.326   8.662
11611SOL     OW36664   0.406   2.450   3.041
11611SOL    HW136665   0.415   2.545   3.049
11611SOL    HW236666   0.450   2.429   2.958
11612SOL     OW36667   9.667   5.989  12.134
11612SOL    HW136668   9.613   5.927  12.084
11612SOL    HW236669   9.734   6.017  12.073
11613SOL     OW36670   6.889   9.679   8.546
11613SOL    HW136671   6.818   9.696   8.609
11613SOL    HW236672   6.955   9.632   8.597
11614SOL     OW36673  12.157   1.778   1.966
11614SOL    HW136674  12.201   1.712   1.913
11614SOL    HW236675  12.228   1.834   1.998
11615SOL     OW36676   4.429  13.014   9.850
11615SOL    HW136677   4.459  13.038   9.762
11615SOL    HW236678   4.411  13.097   9.894
11616SOL     OW36679  10.024  14.727   7.992
11616SOL    HW136680   9.957  14.788   7.960
11616SOL    HW236681  10.107  14.769   7.969
11617SOL     OW36682   4.190  13.509   3.388
11617SOL    HW136683   4.195  13.585   3.330
11617SOL    HW236684   4.210  13.434   3.331
11618SOL     OW36685  12.150  14.258   4.110
11618SOL    HW136686  12.194  14.194   4.055
11618SOL    HW236687  12.216  14.283   4.174
11619SOL     OW36688   4.315  10.093   0.235
11619SOL    HW136689   4.389  10.141   0.274
11619SOL    HW236690   4.244  10.103   0.299
11620SOL     OW36691   1.980  13.972   1.493
11620SOL    HW136692   1.904  13.972   1.551
11620SOL    HW236693   2.052  14.007   1.545
11621SOL     OW36694   9.579  14.518   5.168
11621SOL    HW136695   9.582  14.580   5.095
11621SOL    HW236696   9.671  14.502   5.189
11622SOL     OW36697  13.700   9.858   3.671
11622SOL    HW136698  13.756   9.808   3.612
11622SOL    HW236699  13.614   9.818   3.663
11623SOL     OW36700   9.420   9.301  11.808
11623SOL    HW136701   9.331   9.268  11.795
11623SOL    HW236702   9.412   9.396  11.794
11624SOL     OW36703   2.338   5.619  13.039
11624SOL    HW136704   2.409   5.565  13.074
11624SOL    HW236705   2.353   5.618  12.944
11625SOL     OW36706  13.662   6.982  13.000
11625SOL    HW136707  13.740   7.036  12.989
11625SOL    HW236708  13.627   7.007  13.085
11626SOL     OW36709   1.738  10.644  10.653
11626SOL    HW136710   1.642  10.640  10.649
11626SOL    HW236711   1.766  10.625  10.563
11627SOL     OW36712   8.721   9.453  13.859
11627SOL    HW136713   8.680   9.367  13.867
11627SOL    HW236714   8.798   9.448  13.914
11628SOL     OW36715   0.053   3.561   3.801
11628SOL    HW136716   0.073   3.556   3.708
11628SOL    HW236717   0.124   3.613   3.839
11629SOL     OW36718   7.592  14.013  13.951
11629SOL    HW136719   7.685  13.993  13.957
11629SOL    HW236720   7.573  14.013  13.857
11630SOL     OW36721   3.615   3.981   9.267
11630SOL    HW136722   3.568   3.899   9.286
11630SOL    HW236723   3.699   3.953   9.232
11631SOL     OW36724   4.369   6.267   6.369
11631SOL    HW136725   4.293   6.312   6.331
11631SOL    HW236726   4.358   6.176   6.343
11632SOL     OW36727   3.229  14.864  14.834
11632SOL    HW136728   3.289  14.812   0.005
11632SOL    HW236729   3.231  14.824  14.748
11633SOL     OW36730   7.858  13.524   3.033
11633SOL    HW136731   7.868  13.550   2.942
11633SOL    HW236732   7.924  13.456   3.046
11634SOL     OW36733   4.729   2.282  14.450
11634SOL    HW136734   4.774   2.354  14.404
11634SOL    HW236735   4.762   2.203  14.407
11635SOL     OW36736   9.820   7.168  13.529
11635SOL    HW136737   9.886   7.196  13.466
11635SOL    HW236738   9.826   7.232  13.600
11636SOL     OW36739  12.182  14.116   3.679
11636SOL    HW136740  12.143  14.066   3.750
11636SOL    HW236741  12.273  14.129   3.705
11637SOL     OW36742   6.301   3.681   0.309
11637SOL    HW136743   6.387   3.721   0.312
11637SOL    HW236744   6.296   3.628   0.389
11638SOL     OW36745   4.260  14.651  10.877
11638SOL    HW136746   4.200  14.726  10.865
11638SOL    HW236747   4.213  14.578  10.837
11639SOL     OW36748  12.497   4.537   2.573
11639SOL    HW136749  12.471   4.494   2.655
11639SOL    HW236750  12.538   4.467   2.522
11640SOL     OW36751   0.673   6.917   3.637
11640SOL    HW136752   0.584   6.906   3.671
11640SOL    HW236753   0.664   6.899   3.543
11641SOL     OW36754   4.947  11.096   5.724
11641SOL    HW136755   4.930  11.164   5.789
11641SOL    HW236756   4.875  11.034   5.734
11642SOL     OW36757   7.910  12.046   0.883
11642SOL    HW136758   8.001  12.070   0.900
11642SOL    HW236759   7.914  11.997   0.800
11643SOL     OW36760   4.391   2.717   7.021
11643SOL    HW136761   4.320   2.660   7.052
11643SOL    HW236762   4.349   2.777   6.960
11644SOL     OW36763  10.412   0.004   8.175
11644SOL    HW136764  10.340  14.878   8.113
11644SOL    HW236765  10.412  14.803   8.222
11645SOL     OW36766  11.749   8.469   7.469
11645SOL    HW136767  11.671   8.510   7.506
11645SOL    HW236768  11.736   8.473   7.374
11646SOL     OW36769  12.630  10.155  10.438
11646SOL    HW136770  12.657  10.146  10.347
11646SOL    HW236771  12.631  10.250  10.454
11647SOL     OW36772   9.164  14.420  13.698
11647SOL    HW136773   9.157  14.334  13.657
11647SOL    HW236774   9.192  14.478  13.627
11648SOL     OW36775  12.672  12.142   1.395
11648SOL    HW136776  12.614  12.072   1.424
11648SOL    HW236777  12.760  12.106   1.406
11649SOL     OW36778  14.722  11.678  11.705
11649SOL    HW136779  14.670  11.613  11.658
11649SOL    HW236780  14.781  11.715  11.639
11650SOL     OW36781   2.928   9.296  11.758
11650SOL    HW136782   2.938   9.384  11.720
11650SOL    HW236783   2.996   9.291  11.825
11651SOL     OW36784   5.703   5.662  10.586
11651SOL    HW136785   5.670   5.577  10.555
11651SOL    HW236786   5.638   5.725  10.555
11652SOL     OW36787  11.205   2.645   1.372
11652SOL    HW136788  11.171   2.664   1.459
11652SOL    HW236789  11.130   2.661   1.313
11653SOL     OW36790   0.514   2.522  11.803
11653SOL    HW136791   0.447   2.506  11.869
11653SOL    HW236792   0.520   2.440  11.754
11654SOL     OW36793   5.844  13.416   7.243
11654SOL    HW136794   5.791  13.414   7.163
11654SOL    HW236795   5.787  13.377   7.310
11655SOL     OW36796   4.240   8.488   0.209
11655SOL    HW136797   4.230   8.408   0.261
11655SOL    HW236798   4.224   8.559   0.270
11656SOL     OW36799  11.684  11.928  14.748
11656SOL    HW136800  11.689  12.023  14.737
11656SOL    HW236801  11.656  11.895  14.662
11657SOL     OW36802  10.601  11.426  11.231
11657SOL    HW136803  10.626  11.471  11.312
11657SOL    HW236804  10.507  11.414  11.238
11658SOL     OW36805   5.837   6.559  11.000
11658SOL    HW136806   5.845   6.645  10.958
11658SOL    HW236807   5.925   6.522  10.995
11659SOL     OW36808   2.342  13.947  14.070
11659SOL    HW136809   2.284  13.971  14.143
11659SOL    HW236810   2.426  13.927  14.113
11660SOL     OW36811  14.783   8.866  13.367
11660SOL    HW136812  14.871   8.885  13.334
11660SOL    HW236813  14.776   8.915  13.449
11661SOL     OW36814   3.699   9.221   6.557
11661SOL    HW136815   3.687   9.296   6.498
11661SOL    HW236816   3.622   9.222   6.613
11662SOL     OW36817  12.768  10.689   7.998
11662SOL    HW136818  12.854  10.721   7.971
11662SOL    HW236819  12.717  10.685   7.917
11663SOL     OW36820  11.228   7.044  11.863
11663SOL    HW136821  11.277   7.028  11.783
11663SOL    HW236822  11.184   6.961  11.882
11664SOL     OW36823   5.638   6.426  12.686
11664SOL    HW136824   5.695   6.359  12.648
11664SOL    HW236825   5.688   6.507  12.679
11665SOL     OW36826   3.731   0.102   1.075
11665SOL    HW136827   3.668   0.174   1.081
11665SOL    HW236828   3.810   0.135   1.118
11666SOL     OW36829  14.136  14.391   9.231
11666SOL    HW136830  14.174  14.478   9.229
11666SOL    HW236831  14.133  14.364   9.139
11667SOL     OW36832  11.005   8.440   1.480
11667SOL    HW136833  10.910   8.429   1.474
11667SOL    HW236834  11.022   8.524   1.439
11668SOL     OW36835  13.657   2.174  14.072
11668SOL    HW136836  13.654   2.190  13.977
11668SOL    HW236837  13.664   2.261  14.111
11669SOL     OW36838   7.988   6.442   9.588
11669SOL    HW136839   8.056   6.447   9.520
11669SOL    HW236840   8.033   6.467   9.668
11670SOL     OW36841   8.422   4.864   7.884
11670SOL    HW136842   8.404   4.810   7.807
11670SOL    HW236843   8.438   4.952   7.849
11671SOL     OW36844  12.552   4.402   8.597
11671SOL    HW136845  12.563   4.497   8.609
11671SOL    HW236846  12.506   4.393   8.514
11672SOL     OW36847   2.804   6.690   5.404
11672SOL    HW136848   2.850   6.611   5.433
11672SOL    HW236849   2.803   6.683   5.308
11673SOL     OW36850  10.353   9.524   7.978
11673SOL    HW136851  10.418   9.495   8.041
11673SOL    HW236852  10.269   9.512   8.022
11674SOL     OW36853   6.666  13.152  11.135
11674SOL    HW136854   6.625  13.125  11.217
11674SOL    HW236855   6.748  13.193  11.161
11675SOL     OW36856   9.316   9.997   3.336
11675SOL    HW136857   9.237   9.948   3.311
11675SOL    HW236858   9.379   9.929   3.360
11676SOL     OW36859  10.007   6.408   2.973
11676SOL    HW136860   9.963   6.356   3.040
11676SOL    HW236861  10.036   6.345   2.908
11677SOL     OW36862   6.260  13.419   1.461
11677SOL    HW136863   6.176  13.377   1.478
11677SOL    HW236864   6.245  13.512   1.478
11678SOL     OW36865   0.247   3.455   0.085
11678SOL    HW136866   0.294   3.536   0.107
11678SOL    HW236867   0.261   3.444  14.873
11679SOL     OW36868   4.367  13.150   7.355
11679SOL    HW136869   4.459  13.176   7.348
11679SOL    HW236870   4.365  13.089   7.429
11680SOL     OW36871   4.647  11.574   8.542
11680SOL    HW136872   4.716  11.507   8.543
11680SOL    HW236873   4.694  11.657   8.530
11681SOL     OW36874  13.065   5.586   4.268
11681SOL    HW136875  13.056   5.604   4.361
11681SOL    HW236876  13.157   5.603   4.249
11682SOL     OW36877   7.100  14.006  11.996
11682SOL    HW136878   7.066  14.002  12.085
11682SOL    HW236879   7.172  13.943  11.995
11683SOL     OW36880   1.172  13.086   8.854
11683SOL    HW136881   1.096  13.139   8.877
11683SOL    HW236882   1.161  13.068   8.761
11684SOL     OW36883   4.209  11.718   0.986
11684SOL    HW136884   4.209  11.649   1.051
11684SOL    HW236885   4.167  11.679   0.909
11685SOL     OW36886  10.733   0.587  12.128
11685SOL    HW136887  10.740   0.673  12.171
11685SOL    HW236888  10.814   0.579  12.078
11686SOL     OW36889   4.920  13.929   4.968
11686SOL    HW136890   4.938  13.838   4.942
11686SOL    HW236891   4.832  13.946   4.935
11687SOL     OW36892  12.807  13.437  11.034
11687SOL    HW136893  12.805  13.432  10.939
11687SOL    HW236894  12.715  13.440  11.061
11688SOL     OW36895  11.896   4.737   2.301
11688SOL    HW136896  11.991   4.735   2.308
11688SOL    HW236897  11.868   4.790   2.376
11689SOL     OW36898  13.605  10.721   1.992
11689SOL    HW136899  13.649  10.650   1.946
11689SOL    HW236900  13.610  10.795   1.931
11690SOL     OW36901   1.989   9.477   2.516
11690SOL    HW136902   2.008   9.419   2.442
11690SOL    HW236903   2.005   9.424   2.594
11691SOL     OW36904   7.588   3.943   2.205
11691SOL    HW136905   7.665   3.939   2.262
11691SOL    HW236906   7.581   3.855   2.168
11692SOL     OW36907   8.081   8.929  14.026
11692SOL    HW136908   7.993   8.960  14.004
11692SOL    HW236909   8.124   9.006  14.064
11693SOL     OW36910   9.604   3.674   6.286
11693SOL    HW136911   9.618   3.664   6.380
11693SOL    HW236912   9.527   3.619   6.267
11694SOL     OW36913   4.801  12.364   3.947
11694SOL    HW136914   4.756  12.296   3.998
11694SOL    HW236915   4.775  12.348   3.857
11695SOL     OW36916   3.589   0.143  13.033
11695SOL    HW136917   3.674   0.181  13.010
11695SOL    HW236918   3.605   0.049  13.036
11696SOL     OW36919   2.400   1.859   2.659
11696SOL    HW136920   2.386   1.768   2.632
11696SOL    HW236921   2.326   1.878   2.717
11697SOL     OW36922   4.028   1.313   9.823
11697SOL    HW136923   4.002   1.400   9.854
11697SOL    HW236924   4.120   1.304   9.850
11698SOL     OW36925   9.554   5.281   3.868
11698SOL    HW136926   9.583   5.233   3.790
11698SOL    HW236927   9.558   5.217   3.939
11699SOL     OW36928  12.609   4.232   4.304
11699SOL    HW136929  12.652   4.309   4.340
11699SOL    HW236930  12.635   4.230   4.212
11700SOL     OW36931  11.843   4.717  14.830
11700SOL    HW136932  11.912   4.756  14.777
11700SOL    HW236933  11.817   4.638  14.781
11701SOL     OW36934   5.174  11.568   8.979
11701SOL    HW136935   5.086  11.548   8.946
11701SOL    HW236936   5.177  11.663   8.982
11702SOL     OW36937  14.533  11.674   1.525
11702SOL    HW136938  14.611  11.663   1.470
11702SOL    HW236939  14.560  11.644   1.611
11703SOL     OW36940  14.317   4.204  10.353
11703SOL    HW136941  14.303   4.119  10.393
11703SOL    HW236942  14.391   4.241  10.401
11704SOL     OW36943   0.797   6.894   5.432
11704SOL    HW136944   0.812   6.983   5.403
11704SOL    HW236945   0.748   6.853   5.361
11705SOL     OW36946  14.427   8.288  14.156
11705SOL    HW136947  14.400   8.208  14.111
11705SOL    HW236948  14.511   8.265  14.197
11706SOL     OW36949   3.859   2.242   6.440
11706SOL    HW136950   3.792   2.182   6.409
11706SOL    HW236951   3.811   2.310   6.487
11707SOL     OW36952   4.030  12.746  11.634
11707SOL    HW136953   4.012  12.816  11.571
11707SOL    HW236954   4.071  12.677  11.582
11708SOL     OW36955  14.021  14.236   7.677
11708SOL    HW136956  14.015  14.157   7.623
11708SOL    HW236957  13.978  14.211   7.759
11709SOL     OW36958   2.515   2.598   9.078
11709SOL    HW136959   2.488   2.629   9.164
11709SOL    HW236960   2.590   2.654   9.055
11710SOL     OW36961   2.168   7.584   0.033
11710SOL    HW136962   2.207   7.635  14.844
11710SOL    HW236963   2.118   7.515  14.870
11711SOL     OW36964   6.063  10.123  10.452
11711SOL    HW136965   6.007  10.201  10.449
11711SOL    HW236966   6.151  10.156  10.436
11712SOL     OW36967   6.479   1.298   8.330
11712SOL    HW136968   6.445   1.217   8.291
11712SOL    HW236969   6.423   1.367   8.295
11713SOL     OW36970   4.500   1.962   3.257
11713SOL    HW136971   4.437   1.903   3.297
11713SOL    HW236972   4.539   1.911   3.186
11714SOL     OW36973   0.710   1.714  13.254
11714SOL    HW136974   0.756   1.710  13.171
11714SOL    HW236975   0.746   1.791  13.299
11715SOL     OW36976   8.910   0.006   7.671
11715SOL    HW136977   8.816   0.019   7.677
11715SOL    HW236978   8.938  14.872   7.762
11716SOL     OW36979   0.848   7.248   9.817
11716SOL    HW136980   0.809   7.164   9.794
11716SOL    HW236981   0.827   7.305   9.744
11717SOL     OW36982   2.529   4.712  12.425
11717SOL    HW136983   2.485   4.757  12.353
11717SOL    HW236984   2.508   4.619  12.411
11718SOL     OW36985   1.304  10.992  13.358
11718SOL    HW136986   1.227  10.942  13.332
11718SOL    HW236987   1.269  11.075  13.389
11719SOL     OW36988   6.638   6.964  14.754
11719SOL    HW136989   6.573   6.940  14.688
11719SOL    HW236990   6.599   6.936  14.837
11720SOL     OW36991   8.354  12.882  13.909
11720SOL    HW136992   8.318  12.946  13.970
11720SOL    HW236993   8.379  12.933  13.832
11721SOL     OW36994   4.170   2.308   0.463
11721SOL    HW136995   4.170   2.224   0.509
11721SOL    HW236996   4.078   2.327   0.446
11722SOL     OW36997   5.173   0.023   8.153
11722SOL    HW136998   5.159  14.810   8.145
11722SOL    HW236999   5.268   0.033   8.163
11723SOL     OW37000   0.200  14.540   2.807
11723SOL    HW137001   0.194  14.451   2.842
11723SOL    HW237002   0.126  14.587   2.847
11724SOL     OW37003   9.708  10.468  12.258
11724SOL    HW137004   9.771  10.399  12.236
11724SOL    HW237005   9.731  10.541  12.201
11725SOL     OW37006  12.556   9.961   0.679
11725SOL    HW137007  12.463   9.954   0.700
11725SOL    HW237008  12.592   9.875   0.701
11726SOL     OW37009   8.806   7.987  10.347
11726SOL    HW137010   8.799   8.064  10.290
11726SOL    HW237011   8.899   7.967  10.350
11727SOL     OW37012   6.260   3.314   4.375
11727SOL    HW137013   6.264   3.380   4.306
11727SOL    HW237014   6.351   3.294   4.395
11728SOL     OW37015  13.984   1.229   6.059
11728SOL    HW137016  14.059   1.203   6.005
11728SOL    HW237017  13.963   1.151   6.110
11729SOL     OW37018   0.683  13.829  11.334
11729SOL    HW137019   0.764  13.788  11.306
11729SOL    HW237020   0.615  13.787  11.282
11730SOL     OW37021   2.535   0.778   8.995
11730SOL    HW137022   2.504   0.707   9.051
11730SOL    HW237023   2.629   0.765   8.990
11731SOL     OW37024   1.839   5.225   8.822
11731SOL    HW137025   1.775   5.154   8.822
11731SOL    HW237026   1.892   5.210   8.743
11732SOL     OW37027  11.675   7.795  12.639
11732SOL    HW137028  11.600   7.830  12.592
11732SOL    HW237029  11.646   7.708  12.667
11733SOL     OW37030   7.514   1.571   0.667
11733SOL    HW137031   7.507   1.580   0.762
11733SOL    HW237032   7.593   1.619   0.643
11734SOL     OW37033   5.866   4.307   2.060
11734SOL    HW137034   5.906   4.227   2.026
11734SOL    HW237035   5.860   4.365   1.983
11735SOL     OW37036   4.821   6.328   0.089
11735SOL    HW137037   4.726   6.320   0.102
11735SOL    HW237038   4.842   6.258   0.028
11736SOL     OW37039  11.881   2.083   8.345
11736SOL    HW137040  11.976   2.086   8.348
11736SOL    HW237041  11.858   2.129   8.263
11737SOL     OW37042  14.717   1.699  13.609
11737SOL    HW137043  14.679   1.683  13.523
11737SOL    HW237044  14.778   1.771  13.595
11738SOL     OW37045  12.480   5.427   2.932
11738SOL    HW137046  12.415   5.460   2.870
11738SOL    HW237047  12.490   5.498   2.996
11739SOL     OW37048   5.541   7.617   4.149
11739SOL    HW137049   5.458   7.572   4.164
11739SOL    HW237050   5.581   7.623   4.236
11740SOL     OW37051   5.067  10.320   9.342
11740SOL    HW137052   5.054  10.228   9.365
11740SOL    HW237053   5.162  10.330   9.336
11741SOL     OW37054   2.949  12.068   5.780
11741SOL    HW137055   2.889  12.047   5.709
11741SOL    HW237056   2.907  12.141   5.826
11742SOL     OW37057  10.448   3.929   9.052
11742SOL    HW137058  10.496   3.863   9.103
11742SOL    HW237059  10.358   3.899   9.054
11743SOL     OW37060   1.718  11.124   8.894
11743SOL    HW137061   1.704  11.188   8.824
11743SOL    HW237062   1.799  11.079   8.870
11744SOL     OW37063  11.260   3.453   5.297
11744SOL    HW137064  11.312   3.378   5.325
11744SOL    HW237065  11.321   3.507   5.247
11745SOL     OW37066   9.314   1.021   7.438
11745SOL    HW137067   9.352   0.995   7.523
11745SOL    HW237068   9.357   0.964   7.375
11746SOL     OW37069   2.852   7.683   2.759
11746SOL    HW137070   2.917   7.643   2.817
11746SOL    HW237071   2.783   7.713   2.819
11747SOL     OW37072   2.211   9.397   6.490
11747SOL    HW137073   2.284   9.384   6.430
11747SOL    HW237074   2.179   9.485   6.471
11748SOL     OW37075   3.858   5.173   0.479
11748SOL    HW137076   3.792   5.152   0.544
11748SOL    HW237077   3.829   5.255   0.439
11749SOL     OW37078   1.008   1.117  10.953
11749SOL    HW137079   0.936   1.098  11.013
11749SOL    HW237080   1.087   1.096  11.004
11750SOL     OW37081   2.455  11.129   8.778
11750SOL    HW137082   2.452  11.214   8.821
11750SOL    HW237083   2.533  11.087   8.813
11751SOL     OW37084   8.860   1.403   2.761
11751SOL    HW137085   8.851   1.327   2.818
11751SOL    HW237086   8.878   1.476   2.822
11752SOL     OW37087   4.981   8.328   5.497
11752SOL    HW137088   5.030   8.381   5.559
11752SOL    HW237089   4.909   8.384   5.469
11753SOL     OW37090   1.965   5.703   8.915
11753SOL    HW137091   1.985   5.749   8.834
11753SOL    HW237092   1.932   5.772   8.973
11754SOL     OW37093   4.936   2.183   6.605
11754SOL    HW137094   4.876   2.200   6.533
11754SOL    HW237095   4.917   2.093   6.632
11755SOL     OW37096  10.128   8.859  10.279
11755SOL    HW137097  10.162   8.900  10.359
11755SOL    HW237098  10.134   8.928  10.213
11756SOL     OW37099   5.364   2.498   6.305
11756SOL    HW137100   5.389   2.533   6.219
11756SOL    HW237101   5.408   2.413   6.311
11757SOL     OW37102  10.270   7.825  12.106
11757SOL    HW137103  10.284   7.827  12.200
11757SOL    HW237104  10.175   7.823  12.095
11758SOL     OW37105   8.175  12.600  13.071
11758SOL    HW137106   8.231  12.529  13.101
11758SOL    HW237107   8.118  12.619  13.145
11759SOL     OW37108   1.250   4.294   7.953
11759SOL    HW137109   1.169   4.253   7.982
11759SOL    HW237110   1.227   4.384   7.934
11760SOL     OW37111  13.153   7.063   5.635
11760SOL    HW137112  13.203   7.142   5.655
11760SOL    HW237113  13.120   7.078   5.546
11761SOL     OW37114  10.663   4.273  10.150
11761SOL    HW137115  10.721   4.345  10.125
11761SOL    HW237116  10.627   4.298  10.235
11762SOL     OW37117  12.305  14.468   7.945
11762SOL    HW137118  12.219  14.491   7.912
11762SOL    HW237119  12.362  14.540   7.917
11763SOL     OW37120  11.974   5.039  13.149
11763SOL    HW137121  12.060   5.049  13.108
11763SOL    HW237122  11.991   4.989  13.229
11764SOL     OW37123   7.833  13.783   1.372
11764SOL    HW137124   7.926  13.801   1.387
11764SOL    HW237125   7.803  13.855   1.316
11765SOL     OW37126   6.150   7.449   6.322
11765SOL    HW137127   6.111   7.369   6.356
11765SOL    HW237128   6.096   7.471   6.245
11766SOL     OW37129  14.749   8.135  12.510
11766SOL    HW137130  14.748   8.040  12.518
11766SOL    HW237131  14.670   8.156  12.459
11767SOL     OW37132   9.637   7.986  13.802
11767SOL    HW137133   9.664   8.070  13.840
11767SOL    HW237134   9.542   7.984  13.814
11768SOL     OW37135  13.920   3.256   9.006
11768SOL    HW137136  13.857   3.186   8.991
11768SOL    HW237137  14.000   3.225   8.964
11769SOL     OW37138   7.975  11.748   5.512
11769SOL    HW137139   8.000  11.755   5.420
11769SOL    HW237140   7.932  11.662   5.518
11770SOL     OW37141   9.381  14.028   8.516
11770SOL    HW137142   9.300  13.977   8.522
11770SOL    HW237143   9.374  14.074   8.433
11771SOL     OW37144   2.719   3.430   5.650
11771SOL    HW137145   2.694   3.369   5.720
11771SOL    HW237146   2.693   3.386   5.569
11772SOL     OW37147   8.855  10.097   5.873
11772SOL    HW137148   8.817  10.185   5.879
11772SOL    HW237149   8.937  10.109   5.824
11773SOL     OW37150   8.280   2.163   5.765
11773SOL    HW137151   8.315   2.187   5.850
11773SOL    HW237152   8.320   2.225   5.704
11774SOL     OW37153   1.982   6.366  12.408
11774SOL    HW137154   1.896   6.324  12.409
11774SOL    HW237155   2.043   6.294  12.392
11775SOL     OW37156   6.293  12.679  10.027
11775SOL    HW137157   6.337  12.600   9.996
11775SOL    HW237158   6.314  12.746   9.962
11776SOL     OW37159   3.145  13.303   8.345
11776SOL    HW137160   3.166  13.280   8.436
11776SOL    HW237161   3.063  13.352   8.351
11777SOL     OW37162   3.565   1.328   9.433
11777SOL    HW137163   3.594   1.279   9.510
11777SOL    HW237164   3.571   1.266   9.361
11778SOL     OW37165   9.994   9.130   1.401
11778SOL    HW137166   9.984   9.045   1.358
11778SOL    HW237167  10.071   9.169   1.360
11779SOL     OW37168   1.405   0.514  10.210
11779SOL    HW137169   1.484   0.504  10.157
11779SOL    HW237170   1.333   0.512  10.147
11780SOL     OW37171   2.319   1.576   4.187
11780SOL    HW137172   2.318   1.653   4.130
11780SOL    HW237173   2.342   1.611   4.274
11781SOL     OW37174  11.818   8.229   2.767
11781SOL    HW137175  11.854   8.314   2.793
11781SOL    HW237176  11.824   8.228   2.671
11782SOL     OW37177   2.565  10.610   5.527
11782SOL    HW137178   2.590  10.617   5.435
11782SOL    HW237179   2.557  10.516   5.543
11783SOL     OW37180   5.548   5.757  13.951
11783SOL    HW137181   5.607   5.717  13.888
11783SOL    HW237182   5.555   5.702  14.029
11784SOL     OW37183   5.953   6.677  11.615
11784SOL    HW137184   6.042   6.686  11.649
11784SOL    HW237185   5.955   6.724  11.531
11785SOL     OW37186   4.768   1.509   4.621
11785SOL    HW137187   4.710   1.552   4.684
11785SOL    HW237188   4.811   1.440   4.671
11786SOL     OW37189   1.066  10.255  14.232
11786SOL    HW137190   1.113  10.181  14.195
11786SOL    HW237191   1.107  10.269  14.318
11787SOL     OW37192   5.427   3.422   5.563
11787SOL    HW137193   5.521   3.436   5.558
11787SOL    HW237194   5.415   3.329   5.543
11788SOL     OW37195   3.610   1.739   9.172
11788SOL    HW137196   3.699   1.774   9.176
11788SOL    HW237197   3.584   1.750   9.081
11789SOL     OW37198   3.445  14.260   4.673
11789SOL    HW137199   3.464  14.350   4.645
11789SOL    HW237200   3.471  14.205   4.599
11790SOL     OW37201   7.049   0.745  13.377
11790SOL    HW137202   7.140   0.756  13.405
11790SOL    HW237203   6.998   0.769  13.454
11791SOL     OW37204   6.811  12.917   0.007
11791SOL    HW137205   6.881  12.877   0.059
11791SOL    HW237206   6.737  12.857   0.017
11792SOL     OW37207   3.359   6.480  13.379
11792SOL    HW137208   3.430   6.537  13.351
11792SOL    HW237209   3.312   6.531  13.445
11793SOL     OW37210   5.404   4.536   6.963
11793SOL    HW137211   5.371   4.614   6.919
11793SOL    HW237212   5.358   4.463   6.921
11794SOL     OW37213  11.351   1.065   1.955
11794SOL    HW137214  11.434   1.022   1.974
11794SOL    HW237215  11.289   1.026   2.017
11795SOL     OW37216   6.932  14.743  10.279
11795SOL    HW137217   6.869  14.810  10.253
11795SOL    HW237218   6.926  14.677  10.210
11796SOL     OW37219   5.312   8.694  10.793
11796SOL    HW137220   5.372   8.631  10.753
11796SOL    HW237221   5.350   8.780  10.774
11797SOL     OW37222   3.494  12.231  14.640
11797SOL    HW137223   3.428  12.280  14.593
11797SOL    HW237224   3.447  12.190  14.712
11798SOL     OW37225  10.743  12.787  11.134
11798SOL    HW137226  10.826  12.827  11.160
11798SOL    HW237227  10.715  12.740  11.213
11799SOL     OW37228  12.753  10.028   8.604
11799SOL    HW137229  12.795  10.028   8.690
11799SOL    HW237230  12.678   9.969   8.615
11800SOL     OW37231   7.294   9.790   8.561
11800SOL    HW137232   7.371   9.761   8.609
11800SOL    HW237233   7.328   9.821   8.477
11801SOL     OW37234  10.101  12.094   8.091
11801SOL    HW137235  10.188  12.085   8.129
11801SOL    HW237236  10.060  12.009   8.103
11802SOL     OW37237   1.932  13.329   3.347
11802SOL    HW137238   1.959  13.322   3.256
11802SOL    HW237239   1.909  13.421   3.359
11803SOL     OW37240   9.386   1.298   7.242
11803SOL    HW137241   9.385   1.234   7.171
11803SOL    HW237242   9.317   1.268   7.302
11804SOL     OW37243  10.567   0.768  11.134
11804SOL    HW137244  10.658   0.767  11.164
11804SOL    HW237245  10.570   0.809  11.048
11805SOL     OW37246   9.890  12.267  10.873
11805SOL    HW137247   9.888  12.320  10.792
11805SOL    HW237248   9.978  12.230  10.874
11806SOL     OW37249   9.586   0.740   5.586
11806SOL    HW137250   9.542   0.671   5.537
11806SOL    HW237251   9.584   0.709   5.677
11807SOL     OW37252   3.684  13.669  10.545
11807SOL    HW137253   3.677  13.574  10.545
11807SOL    HW237254   3.774  13.686  10.576
11808SOL     OW37255  12.019  14.790   6.547
11808SOL    HW137256  12.027  14.695   6.553
11808SOL    HW237257  11.929  14.809   6.576
11809SOL     OW37258   8.039  10.608  13.944
11809SOL    HW137259   8.078  10.524  13.921
11809SOL    HW237260   7.946  10.598  13.924
11810SOL     OW37261   7.886  14.407  10.738
11810SOL    HW137262   7.960  14.454  10.699
11810SOL    HW237263   7.827  14.391  10.664
11811SOL     OW37264  14.380  13.889   4.032
11811SOL    HW137265  14.450  13.840   3.989
11811SOL    HW237266  14.325  13.822   4.073
11812SOL     OW37267   9.315   6.451   3.088
11812SOL    HW137268   9.308   6.500   3.006
11812SOL    HW237269   9.225   6.433   3.114
11813SOL     OW37270   6.150   6.901   7.014
11813SOL    HW137271   6.171   6.994   7.006
11813SOL    HW237272   6.180   6.862   6.932
11814SOL     OW37273  14.737  13.734   4.553
11814SOL    HW137274  14.673  13.662   4.555
11814SOL    HW237275  14.777  13.728   4.466
11815SOL     OW37276   7.288   7.869   4.136
11815SOL    HW137277   7.351   7.924   4.089
11815SOL    HW237278   7.268   7.919   4.215
11816SOL     OW37279   1.014   4.985   0.778
11816SOL    HW137280   0.982   4.950   0.861
11816SOL    HW237281   0.943   5.040   0.746
11817SOL     OW37282   8.892   1.685   7.609
11817SOL    HW137283   8.952   1.626   7.654
11817SOL    HW237284   8.839   1.723   7.678
11818SOL     OW37285   6.501  12.106  13.775
11818SOL    HW137286   6.477  12.013  13.772
11818SOL    HW237287   6.597  12.107  13.772
11819SOL     OW37288   6.928   2.719   1.232
11819SOL    HW137289   6.910   2.680   1.146
11819SOL    HW237290   7.014   2.759   1.222
11820SOL     OW37291  11.699   3.291  12.345
11820SOL    HW137292  11.735   3.249  12.267
11820SOL    HW237293  11.771   3.345  12.379
11821SOL     OW37294   4.013  10.394  11.257
11821SOL    HW137295   4.042  10.444  11.333
11821SOL    HW237296   4.090  10.343  11.232
11822SOL     OW37297   1.112  12.865  11.319
11822SOL    HW137298   1.138  12.932  11.255
11822SOL    HW237299   1.079  12.793  11.266
11823SOL     OW37300  10.156   8.134  12.685
11823SOL    HW137301  10.116   8.049  12.669
11823SOL    HW237302  10.091   8.198  12.654
11824SOL     OW37303   9.428   1.238  13.016
11824SOL    HW137304   9.494   1.181  13.056
11824SOL    HW237305   9.347   1.188  13.021
11825SOL     OW37306   1.050   8.315   4.052
11825SOL    HW137307   1.141   8.326   4.081
11825SOL    HW237308   1.016   8.244   4.106
11826SOL     OW37309   5.012  11.484   5.696
11826SOL    HW137310   5.022  11.580   5.697
11826SOL    HW237311   4.958  11.467   5.618
11827SOL     OW37312   3.606   2.695   2.370
11827SOL    HW137313   3.533   2.711   2.311
11827SOL    HW237314   3.683   2.693   2.314
11828SOL     OW37315   8.529   1.325   4.955
11828SOL    HW137316   8.521   1.376   5.035
11828SOL    HW237317   8.597   1.260   4.975
11829SOL     OW37318  11.456  11.176   5.313
11829SOL    HW137319  11.388  11.153   5.376
11829SOL    HW237320  11.443  11.270   5.298
11830SOL     OW37321   9.383   1.305   0.213
11830SOL    HW137322   9.445   1.298   0.286
11830SOL    HW237323   9.397   1.225   0.163
11831SOL     OW37324  10.146   7.079   5.207
11831SOL    HW137325  10.106   7.121   5.284
11831SOL    HW237326  10.166   7.151   5.148
11832SOL     OW37327   1.233   3.529   6.240
11832SOL    HW137328   1.281   3.450   6.215
11832SOL    HW237329   1.208   3.515   6.332
11833SOL     OW37330   2.119  14.502   1.982
11833SOL    HW137331   2.123  14.445   2.059
11833SOL    HW237332   2.041  14.473   1.935
11834SOL     OW37333   2.567  11.934  12.470
11834SOL    HW137334   2.590  11.849  12.432
11834SOL    HW237335   2.505  11.913  12.540
11835SOL     OW37336   8.831  10.501   9.889
11835SOL    HW137337   8.873  10.480   9.973
11835SOL    HW237338   8.890  10.564   9.848
11836SOL     OW37339   4.079   8.038  12.486
11836SOL    HW137340   4.006   8.013  12.429
11836SOL    HW237341   4.083   8.133  12.480
11837SOL     OW37342   5.637   0.868   2.036
11837SOL    HW137343   5.709   0.904   2.088
11837SOL    HW237344   5.627   0.778   2.067
11838SOL     OW37345   9.432   1.004   0.384
11838SOL    HW137346   9.387   0.974   0.305
11838SOL    HW237347   9.472   0.925   0.421
11839SOL     OW37348  12.291   4.251   8.822
11839SOL    HW137349  12.233   4.278   8.894
11839SOL    HW237350  12.251   4.289   8.744
11840SOL     OW37351   2.134   6.578  10.376
11840SOL    HW137352   2.192   6.572  10.452
11840SOL    HW237353   2.159   6.660  10.334
11841SOL     OW37354   2.277   4.663  12.727
11841SOL    HW137355   2.338   4.589  12.737
11841SOL    HW237356   2.277   4.706  12.813
11842SOL     OW37357   3.223   3.736  12.115
11842SOL    HW137358   3.152   3.673  12.122
11842SOL    HW237359   3.188   3.815  12.156
11843SOL     OW37360   3.650   5.628   1.194
11843SOL    HW137361   3.616   5.551   1.240
11843SOL    HW237362   3.703   5.673   1.259
11844SOL     OW37363   9.697  14.551   9.808
11844SOL    HW137364   9.736  14.562   9.895
11844SOL    HW237365   9.739  14.473   9.773
11845SOL     OW37366  11.330   5.396   3.810
11845SOL    HW137367  11.289   5.437   3.886
11845SOL    HW237368  11.293   5.443   3.735
11846SOL     OW37369   5.899   8.948  10.434
11846SOL    HW137370   5.882   9.036  10.466
11846SOL    HW237371   5.837   8.893  10.482
11847SOL     OW37372   6.843   7.453   9.193
11847SOL    HW137373   6.897   7.463   9.271
11847SOL    HW237374   6.796   7.371   9.206
11848SOL     OW37375  12.392   8.685   3.888
11848SOL    HW137376  12.409   8.633   3.809
11848SOL    HW237377  12.459   8.753   3.887
11849SOL     OW37378   9.910  13.528   0.162
11849SOL    HW137379   9.843  13.570   0.110
11849SOL    HW237380   9.896  13.434   0.149
11850SOL     OW37381   8.877   0.499   5.309
11850SOL    HW137382   8.916   0.516   5.224
11850SOL    HW237383   8.834   0.582   5.332
11851SOL     OW37384   0.290  13.694   5.061
11851SOL    HW137385   0.320  13.772   5.015
11851SOL    HW237386   0.231  13.650   5.000
11852SOL     OW37387   7.033   9.821   5.379
11852SOL    HW137388   6.950   9.777   5.396
11852SOL    HW237389   7.083   9.812   5.461
11853SOL     OW37390   6.078  14.859   5.583
11853SOL    HW137391   6.126  14.867   5.500
11853SOL    HW237392   5.995  14.820   5.558
11854SOL     OW37393   7.084   5.210   7.467
11854SOL    HW137394   7.073   5.300   7.497
11854SOL    HW237395   7.032   5.205   7.386
11855SOL     OW37396  14.483  11.957   5.461
11855SOL    HW137397  14.480  11.914   5.375
11855SOL    HW237398  14.558  12.015   5.456
11856SOL     OW37399   4.908  11.826  10.326
11856SOL    HW137400   4.902  11.864  10.238
11856SOL    HW237401   4.821  11.788  10.341
11857SOL     OW37402  14.720   3.100   1.581
11857SOL    HW137403  14.801   3.064   1.617
11857SOL    HW237404  14.670   3.024   1.553
11858SOL     OW37405   0.003   3.195   6.256
11858SOL    HW137406   0.036   3.149   6.179
11858SOL    HW237407  14.790   3.195   6.246
11859SOL     OW37408  14.362   6.087  13.354
11859SOL    HW137409  14.304   6.131  13.292
11859SOL    HW237410  14.326   6.110  13.440
11860SOL     OW37411   6.194   5.872  10.320
11860SOL    HW137412   6.254   5.812  10.364
11860SOL    HW237413   6.153   5.820  10.252
11861SOL     OW37414   3.103   1.972   1.032
11861SOL    HW137415   3.106   1.898   0.971
11861SOL    HW237416   3.018   1.964   1.075
11862SOL     OW37417   2.392  11.120  14.455
11862SOL    HW137418   2.469  11.111  14.511
11862SOL    HW237419   2.427  11.146  14.370
11863SOL     OW37420  11.634   7.795   8.566
11863SOL    HW137421  11.555   7.774   8.516
11863SOL    HW237422  11.703   7.743   8.525
11864SOL     OW37423   0.370  10.222   1.383
11864SOL    HW137424   0.362  10.192   1.474
11864SOL    HW237425   0.436  10.165   1.344
11865SOL     OW37426   9.753   0.148   4.781
11865SOL    HW137427   9.747   0.144   4.876
11865SOL    HW237428   9.682   0.091   4.750
11866SOL     OW37429   0.943   0.449   9.078
11866SOL    HW137430   0.885   0.522   9.099
11866SOL    HW237431   0.905   0.374   9.124
11867SOL     OW37432  11.796   1.277   7.948
11867SOL    HW137433  11.779   1.269   7.854
11867SOL    HW237434  11.788   1.371   7.966
11868SOL     OW37435   9.641   5.009   6.020
11868SOL    HW137436   9.613   5.008   5.929
11868SOL    HW237437   9.712   5.073   6.023
11869SOL     OW37438  10.705   3.897   8.097
11869SOL    HW137439  10.742   3.985   8.107
11869SOL    HW237440  10.659   3.900   8.013
11870SOL     OW37441   8.708  10.572   4.498
11870SOL    HW137442   8.760  10.565   4.418
11870SOL    HW237443   8.772  10.592   4.567
11871SOL     OW37444   6.867   0.264   0.758
11871SOL    HW137445   6.909   0.235   0.839
11871SOL    HW237446   6.940   0.286   0.700
11872SOL     OW37447  11.320  10.130  12.325
11872SOL    HW137448  11.381  10.165  12.390
11872SOL    HW237449  11.236  10.126  12.371
11873SOL     OW37450  12.413   2.505   8.377
11873SOL    HW137451  12.438   2.505   8.470
11873SOL    HW237452  12.363   2.585   8.366
11874SOL     OW37453  11.073   2.311   0.642
11874SOL    HW137454  11.026   2.341   0.720
11874SOL    HW237455  11.166   2.316   0.667
11875SOL     OW37456  12.961   4.458   8.453
11875SOL    HW137457  13.020   4.532   8.471
11875SOL    HW237458  12.919   4.440   8.537
11876SOL     OW37459  12.682   4.177   1.987
11876SOL    HW137460  12.719   4.112   2.047
11876SOL    HW237461  12.630   4.126   1.925
11877SOL     OW37462   5.365  11.230   4.540
11877SOL    HW137463   5.393  11.310   4.495
11877SOL    HW237464   5.300  11.191   4.481
11878SOL     OW37465  10.280  14.393  12.671
11878SOL    HW137466  10.330  14.316  12.697
11878SOL    HW237467  10.204  14.393  12.730
11879SOL     OW37468   7.482  11.351   8.939
11879SOL    HW137469   7.430  11.412   8.991
11879SOL    HW237470   7.570  11.389   8.939
11880SOL     OW37471   5.068   2.079   0.279
11880SOL    HW137472   4.990   2.038   0.243
11880SOL    HW237473   5.065   2.059   0.372
11881SOL     OW37474   2.166   1.615  11.211
11881SOL    HW137475   2.257   1.631  11.185
11881SOL    HW237476   2.162   1.645  11.302
11882SOL     OW37477   9.582   4.878   6.815
11882SOL    HW137478   9.557   4.937   6.744
11882SOL    HW237479   9.521   4.899   6.886
11883SOL     OW37480   0.502   8.576  13.283
11883SOL    HW137481   0.420   8.612  13.251
11883SOL    HW237482   0.560   8.652  13.292
11884SOL     OW37483   1.863   9.948   5.224
11884SOL    HW137484   1.954   9.964   5.197
11884SOL    HW237485   1.822  10.034   5.222
11885SOL     OW37486  11.967  13.064   1.155
11885SOL    HW137487  12.031  13.134   1.141
11885SOL    HW237488  12.004  12.987   1.111
11886SOL     OW37489  11.059  11.917  13.066
11886SOL    HW137490  11.050  11.933  12.972
11886SOL    HW237491  11.126  11.980  13.095
11887SOL     OW37492  11.763   5.406   7.975
11887SOL    HW137493  11.833   5.442   7.921
11887SOL    HW237494  11.687   5.460   7.956
11888SOL     OW37495   9.413  10.394   6.955
11888SOL    HW137496   9.409  10.487   6.975
11888SOL    HW237497   9.323  10.371   6.929
11889SOL     OW37498  10.990  10.204   3.274
11889SOL    HW137499  10.964  10.294   3.257
11889SOL    HW237500  10.908  10.157   3.286
11890SOL     OW37501  14.776   0.352  11.933
11890SOL    HW137502  14.754   0.344  12.026
11890SOL    HW237503  14.836   0.427  11.929
11891SOL     OW37504  11.849  13.743  13.915
11891SOL    HW137505  11.932  13.732  13.870
11891SOL    HW237506  11.806  13.658  13.906
11892SOL     OW37507   0.435  14.339   8.551
11892SOL    HW137508   0.437  14.423   8.598
11892SOL    HW237509   0.521  14.335   8.507
11893SOL     OW37510  13.263   2.541   2.526
11893SOL    HW137511  13.299   2.626   2.554
11893SOL    HW237512  13.179   2.564   2.484
11894SOL     OW37513  10.981  12.988  14.675
11894SOL    HW137514  11.029  12.914  14.637
11894SOL    HW237515  10.996  12.980  14.770
11895SOL     OW37516  14.731   5.590   2.330
11895SOL    HW137517  14.748   5.535   2.407
11895SOL    HW237518  14.733   5.680   2.364
11896SOL     OW37519   3.257  13.065   6.504
11896SOL    HW137520   3.171  13.079   6.463
11896SOL    HW237521   3.246  12.983   6.553
11897SOL     OW37522  13.755   5.521  11.275
11897SOL    HW137523  13.743   5.616  11.275
11897SOL    HW237524  13.732   5.494  11.364
11898SOL     OW37525   6.147  13.166   5.303
11898SOL    HW137526   6.073  13.212   5.343
11898SOL    HW237527   6.203  13.144   5.378
11899SOL     OW37528   4.103   8.215   2.628
11899SOL    HW137529   4.028   8.205   2.686
11899SOL    HW237530   4.067   8.201   2.540
11900SOL     OW37531  13.484   6.231   8.543
11900SOL    HW137532  13.490   6.324   8.563
11900SOL    HW237533  13.566   6.211   8.497
11901SOL     OW37534   5.805  14.589   2.742
11901SOL    HW137535   5.833  14.639   2.818
11901SOL    HW237536   5.807  14.652   2.670
11902SOL     OW37537   1.780   3.813   8.734
11902SOL    HW137538   1.696   3.860   8.730
11902SOL    HW237539   1.834   3.854   8.667
11903SOL     OW37540  14.820   2.605   0.500
11903SOL    HW137541  14.741   2.646   0.465
11903SOL    HW237542  14.789   2.551   0.573
11904SOL     OW37543   6.277  13.345   1.782
11904SOL    HW137544   6.225  13.296   1.719
11904SOL    HW237545   6.214  13.401   1.826
11905SOL     OW37546  11.582   3.855   0.076
11905SOL    HW137547  11.594   3.818  14.871
11905SOL    HW237548  11.566   3.779   0.132
11906SOL     OW37549   5.100   7.782   0.476
11906SOL    HW137550   5.110   7.800   0.570
11906SOL    HW237551   5.174   7.725   0.455
11907SOL     OW37552  11.182   5.232  13.206
11907SOL    HW137553  11.139   5.212  13.123
11907SOL    HW237554  11.272   5.255  13.182
11908SOL     OW37555  12.590   7.851   8.603
11908SOL    HW137556  12.657   7.877   8.665
11908SOL    HW237557  12.626   7.775   8.558
11909SOL     OW37558   2.477  11.251   5.265
11909SOL    HW137559   2.384  11.250   5.244
11909SOL    HW237560   2.500  11.344   5.266
11910SOL     OW37561   5.737   9.132   5.645
11910SOL    HW137562   5.641   9.138   5.638
11910SOL    HW237563   5.767   9.131   5.554
11911SOL     OW37564  10.921   9.947   4.959
11911SOL    HW137565  10.923   9.989   5.045
11911SOL    HW237566  11.002   9.896   4.956
11912SOL     OW37567  14.607  13.344   6.578
11912SOL    HW137568  14.516  13.361   6.553
11912SOL    HW237569  14.606  13.253   6.608
11913SOL     OW37570  14.456   3.099   6.455
11913SOL    HW137571  14.394   3.124   6.523
11913SOL    HW237572  14.408   3.036   6.401
11914SOL     OW37573   7.632   0.118   6.091
11914SOL    HW137574   7.659   0.205   6.061
11914SOL    HW237575   7.684   0.058   6.037
11915SOL     OW37576   2.228   6.177   5.491
11915SOL    HW137577   2.276   6.260   5.497
11915SOL    HW237578   2.296   6.110   5.486
11916SOL     OW37579   2.889   5.486  11.812
11916SOL    HW137580   2.812   5.430  11.821
11916SOL    HW237581   2.939   5.447  11.741
11917SOL     OW37582  14.457   2.261  13.461
11917SOL    HW137583  14.519   2.210  13.513
11917SOL    HW237584  14.507   2.286  13.383
11918SOL     OW37585  12.439  14.076   3.868
11918SOL    HW137586  12.525  14.102   3.901
11918SOL    HW237587  12.413  14.003   3.925
11919SOL     OW37588   7.816   8.460  12.559
11919SOL    HW137589   7.821   8.539  12.613
11919SOL    HW237590   7.889   8.406  12.588
11920SOL     OW37591   9.042   9.031  14.546
11920SOL    HW137592   8.977   8.991  14.488
11920SOL    HW237593   9.125   8.991  14.520
11921SOL     OW37594   3.394   3.197   9.384
11921SOL    HW137595   3.332   3.268   9.369
11921SOL    HW237596   3.343   3.117   9.372
11922SOL     OW37597  14.223  14.225   7.044
11922SOL    HW137598  14.202  14.171   7.120
11922SOL    HW237599  14.285  14.290   7.078
11923SOL     OW37600  11.908  13.458  11.565
11923SOL    HW137601  11.964  13.439  11.490
11923SOL    HW237602  11.958  13.425  11.640
11924SOL     OW37603   2.949  10.504   8.666
11924SOL    HW137604   2.884  10.494   8.736
11924SOL    HW237605   2.956  10.417   8.627
11925SOL     OW37606   2.245   8.795   9.375
11925SOL    HW137607   2.227   8.708   9.408
11925SOL    HW237608   2.275   8.844   9.452
11926SOL     OW37609  12.524  12.694  11.403
11926SOL    HW137610  12.570  12.664  11.325
11926SOL    HW237611  12.466  12.763  11.372
11927SOL     OW37612   9.679   8.989  13.100
11927SOL    HW137613   9.631   9.069  13.077
11927SOL    HW237614   9.642   8.922  13.043
11928SOL     OW37615   2.045  11.643   4.041
11928SOL    HW137616   2.008  11.555   4.040
11928SOL    HW237617   2.107  11.644   3.969
11929SOL     OW37618   1.185   9.512   6.945
11929SOL    HW137619   1.271   9.488   6.979
11929SOL    HW237620   1.125   9.496   7.018
11930SOL     OW37621  11.367  11.236   3.170
11930SOL    HW137622  11.403  11.191   3.093
11930SOL    HW237623  11.279  11.199   3.179
11931SOL     OW37624   0.294  14.378  14.108
11931SOL    HW137625   0.321  14.461  14.069
11931SOL    HW237626   0.295  14.316  14.036
11932SOL     OW37627  12.172   5.581   6.329
11932SOL    HW137628  12.189   5.565   6.421
11932SOL    HW237629  12.095   5.527   6.309
11933SOL     OW37630  11.091  14.556  12.526
11933SOL    HW137631  11.122  14.570  12.437
11933SOL    HW237632  11.003  14.593  12.527
11934SOL     OW37633   8.597   6.387  14.689
11934SOL    HW137634   8.540   6.453  14.730
11934SOL    HW237635   8.631   6.337  14.763
11935SOL     OW37636   1.999  11.745   0.949
11935SOL    HW137637   1.924  11.743   0.890
11935SOL    HW237638   1.971  11.799   1.023
11936SOL     OW37639   3.724  13.624   9.829
11936SOL    HW137640   3.807  13.652   9.868
11936SOL    HW237641   3.659  13.680   9.871
11937SOL     OW37642   1.601   5.294   1.657
11937SOL    HW137643   1.603   5.373   1.711
11937SOL    HW237644   1.683   5.249   1.677
11938SOL     OW37645   7.067   1.476   5.324
11938SOL    HW137646   6.996   1.487   5.387
11938SOL    HW237647   7.136   1.432   5.374
11939SOL     OW37648   8.981   1.228   7.837
11939SOL    HW137649   9.075   1.217   7.850
11939SOL    HW237650   8.958   1.164   7.770
11940SOL     OW37651   8.714   0.433  14.210
11940SOL    HW137652   8.721   0.358  14.151
11940SOL    HW237653   8.636   0.480  14.181
11941SOL     OW37654  11.910   0.390   8.289
11941SOL    HW137655  11.834   0.337   8.314
11941SOL    HW237656  11.960   0.334   8.230
11942SOL     OW37657   4.154   4.769   2.979
11942SOL    HW137658   4.173   4.767   3.072
11942SOL    HW237659   4.058   4.776   2.974
11943SOL     OW37660   6.192   4.088   1.654
11943SOL    HW137661   6.164   4.006   1.613
11943SOL    HW237662   6.286   4.078   1.666
11944SOL     OW37663  11.078  13.206   9.125
11944SOL    HW137664  11.095  13.112   9.119
11944SOL    HW237665  11.134  13.244   9.057
11945SOL     OW37666   4.635   5.474  11.437
11945SOL    HW137667   4.621   5.515  11.522
11945SOL    HW237668   4.549   5.471  11.397
11946SOL     OW37669   6.504   6.430  10.353
11946SOL    HW137670   6.466   6.469  10.274
11946SOL    HW237671   6.573   6.491  10.379
11947SOL     OW37672   5.757   2.355   6.407
11947SOL    HW137673   5.731   2.406   6.484
11947SOL    HW237674   5.822   2.409   6.364
11948SOL     OW37675  13.053   8.775   2.068
11948SOL    HW137676  13.087   8.861   2.043
11948SOL    HW237677  13.087   8.715   2.003
11949SOL     OW37678   6.044   3.608  12.800
11949SOL    HW137679   6.139   3.621  12.802
11949SOL    HW237680   6.010   3.685  12.755
11950SOL     OW37681   4.275   2.582  10.673
11950SOL    HW137682   4.328   2.547  10.602
11950SOL    HW237683   4.195   2.612  10.632
11951SOL     OW37684   1.144   3.930   8.240
11951SOL    HW137685   1.150   3.952   8.147
11951SOL    HW237686   1.178   3.841   8.247
11952SOL     OW37687   1.624   0.291   5.440
11952SOL    HW137688   1.679   0.268   5.516
11952SOL    HW237689   1.557   0.349   5.476
11953SOL     OW37690   3.352  13.742  10.641
11953SOL    HW137691   3.389  13.658  10.671
11953SOL    HW237692   3.354  13.736  10.546
11954SOL     OW37693  11.241  12.395   6.136
11954SOL    HW137694  11.295  12.364   6.209
11954SOL    HW237695  11.198  12.473   6.170
11955SOL     OW37696   6.045   8.106   4.321
11955SOL    HW137697   5.990   8.045   4.272
11955SOL    HW237698   6.112   8.052   4.362
11956SOL     OW37699   4.156  13.269   9.172
11956SOL    HW137700   4.187  13.325   9.101
11956SOL    HW237701   4.138  13.185   9.130
11957SOL     OW37702  13.422  13.725   2.514
11957SOL    HW137703  13.424  13.638   2.553
11957SOL    HW237704  13.339  13.763   2.543
11958SOL     OW37705  10.598  12.762  12.487
11958SOL    HW137706  10.537  12.760  12.414
11958SOL    HW237707  10.676  12.806  12.452
11959SOL     OW37708   2.482  10.629   4.579
11959SOL    HW137709   2.395  10.665   4.595
11959SOL    HW237710   2.531  10.702   4.541
11960SOL     OW37711  10.338  13.679   0.388
11960SOL    HW137712  10.384  13.635   0.460
11960SOL    HW237713  10.359  13.772   0.399
11961SOL     OW37714  13.472   1.551  13.187
11961SOL    HW137715  13.425   1.468  13.195
11961SOL    HW237716  13.486   1.562  13.094
11962SOL     OW37717   5.593   9.828  14.085
11962SOL    HW137718   5.521   9.887  14.066
11962SOL    HW237719   5.629   9.806  13.999
11963SOL     OW37720   6.724   8.366  13.006
11963SOL    HW137721   6.813   8.368  12.970
11963SOL    HW237722   6.705   8.458  13.028
11964SOL     OW37723  12.261   4.602   8.796
11964SOL    HW137724  12.271   4.697   8.801
11964SOL    HW237725  12.350   4.568   8.797
11965SOL     OW37726   8.531   1.628  11.236
11965SOL    HW137727   8.559   1.719  11.226
11965SOL    HW237728   8.605   1.584  11.278
11966SOL     OW37729   9.201  13.380  12.151
11966SOL    HW137730   9.177  13.374  12.058
11966SOL    HW237731   9.152  13.308  12.192
11967SOL     OW37732  13.561   2.898   7.873
11967SOL    HW137733  13.573   2.883   7.779
11967SOL    HW237734  13.529   2.815   7.906
11968SOL     OW37735   9.557   5.786   1.790
11968SOL    HW137736   9.476   5.754   1.750
11968SOL    HW237737   9.556   5.749   1.878
11969SOL     OW37738   6.526   3.750   8.684
11969SOL    HW137739   6.608   3.704   8.702
11969SOL    HW237740   6.532   3.775   8.592
11970SOL     OW37741  11.004  10.414   8.814
11970SOL    HW137742  10.976  10.431   8.724
11970SOL    HW237743  11.084  10.464   8.825
11971SOL     OW37744   3.034   3.048   2.252
11971SOL    HW137745   3.080   3.079   2.330
11971SOL    HW237746   3.002   2.961   2.276
11972SOL     OW37747   4.056  12.352   9.896
11972SOL    HW137748   4.060  12.268   9.941
11972SOL    HW237749   4.139  12.358   9.848
11973SOL     OW37750   0.347   9.609   1.071
11973SOL    HW137751   0.412   9.642   1.009
11973SOL    HW237752   0.363   9.660   1.151
11974SOL     OW37753   8.000   3.189   4.031
11974SOL    HW137754   7.931   3.214   3.969
11974SOL    HW237755   8.081   3.201   3.983
11975SOL     OW37756   5.249   2.471  11.787
11975SOL    HW137757   5.221   2.382  11.767
11975SOL    HW237758   5.297   2.464  11.870
11976SOL     OW37759  11.047   7.700   5.370
11976SOL    HW137760  11.057   7.656   5.286
11976SOL    HW237761  11.127   7.751   5.381
11977SOL     OW37762   2.318   7.200   2.943
11977SOL    HW137763   2.355   7.286   2.921
11977SOL    HW237764   2.232   7.199   2.901
11978SOL     OW37765   4.536   3.653   2.075
11978SOL    HW137766   4.536   3.668   2.169
11978SOL    HW237767   4.567   3.563   2.065
11979SOL     OW37768   9.310  14.510  12.393
11979SOL    HW137769   9.223  14.477  12.416
11979SOL    HW237770   9.355  14.518  12.477
11980SOL     OW37771   0.717  14.873   0.057
11980SOL    HW137772   0.778   0.059   0.026
11980SOL    HW237773   0.630   0.027   0.040
11981SOL     OW37774   4.568   9.932   1.958
11981SOL    HW137775   4.631   9.867   1.990
11981SOL    HW237776   4.488   9.915   2.009
11982SOL     OW37777   4.134   8.423  10.916
11982SOL    HW137778   4.090   8.340  10.935
11982SOL    HW237779   4.069   8.474  10.869
11983SOL     OW37780   6.823  11.672   3.513
11983SOL    HW137781   6.908  11.682   3.557
11983SOL    HW237782   6.845  11.664   3.420
11984SOL     OW37783   5.177   2.739  11.758
11984SOL    HW137784   5.210   2.649  11.760
11984SOL    HW237785   5.233   2.787  11.818
11985SOL     OW37786  14.083   0.224   1.361
11985SOL    HW137787  13.996   0.190   1.338
11985SOL    HW237788  14.143   0.152   1.342
11986SOL     OW37789  11.985  12.521   1.541
11986SOL    HW137790  11.980  12.471   1.460
11986SOL    HW237791  11.897  12.515   1.579
11987SOL     OW37792   8.721  11.461   0.062
11987SOL    HW137793   8.774  11.437   0.137
11987SOL    HW237794   8.726  11.385   0.004
11988SOL     OW37795   5.152   8.552   5.614
11988SOL    HW137796   5.188   8.586   5.696
11988SOL    HW237797   5.227   8.513   5.569
11989SOL     OW37798   0.263   9.861   8.086
11989SOL    HW137799   0.269   9.803   8.011
11989SOL    HW237800   0.202   9.930   8.059
11990SOL     OW37801   7.007   9.258  10.047
11990SOL    HW137802   6.951   9.238   9.973
11990SOL    HW237803   7.094   9.268  10.009
11991SOL     OW37804   8.017   0.918   2.730
11991SOL    HW137805   7.955   0.976   2.774
11991SOL    HW237806   7.973   0.895   2.648
11992SOL     OW37807   7.344  14.689   4.770
11992SOL    HW137808   7.352  14.600   4.805
11992SOL    HW237809   7.421  14.700   4.714
11993SOL     OW37810   1.530   8.204   2.182
11993SOL    HW137811   1.541   8.291   2.221
11993SOL    HW237812   1.612   8.188   2.135
11994SOL     OW37813  12.106   2.015  11.699
11994SOL    HW137814  12.180   1.987  11.645
11994SOL    HW237815  12.080   2.099  11.661
11995SOL     OW37816  14.297   6.282   6.320
11995SOL    HW137817  14.291   6.198   6.366
11995SOL    HW237818  14.337   6.261   6.236
11996SOL     OW37819  10.753   5.018   5.095
11996SOL    HW137820  10.812   5.051   5.027
11996SOL    HW237821  10.711   5.096   5.132
11997SOL     OW37822   3.733   5.742  14.535
11997SOL    HW137823   3.801   5.808  14.532
11997SOL    HW237824   3.742   5.702  14.622
11998SOL     OW37825   6.488  10.599  13.165
11998SOL    HW137826   6.407  10.606  13.216
11998SOL    HW237827   6.491  10.507  13.139
11999SOL     OW37828   9.528   7.392  13.825
11999SOL    HW137829   9.497   7.479  13.850
11999SOL    HW237830   9.482   7.332  13.883
12000SOL     OW37831  10.292  11.574  10.383
12000SOL    HW137832  10.382  11.542  10.389
12000SOL    HW237833  10.245  11.506  10.335
12001SOL     OW37834   0.903   8.550   3.236
12001SOL    HW137835   0.847   8.556   3.313
12001SOL    HW237836   0.868   8.476   3.186
12002SOL     OW37837   5.956   1.721   4.310
12002SOL    HW137838   5.870   1.691   4.279
12002SOL    HW237839   6.013   1.645   4.301
12003SOL     OW37840  14.377   9.837   8.438
12003SOL    HW137841  14.430   9.757   8.443
12003SOL    HW237842  14.365   9.863   8.529
12004SOL     OW37843  13.473   0.124   5.067
12004SOL    HW137844  13.448   0.040   5.027
12004SOL    HW237845  13.429   0.124   5.152
12005SOL     OW37846   0.470  14.708   5.270
12005SOL    HW137847   0.400  14.759   5.310
12005SOL    HW237848   0.541  14.770   5.256
12006SOL     OW37849   4.635   6.725  12.284
12006SOL    HW137850   4.611   6.681  12.203
12006SOL    HW237851   4.621   6.818  12.266
12007SOL     OW37852   4.563  13.068   8.373
12007SOL    HW137853   4.616  12.993   8.345
12007SOL    HW237854   4.552  13.120   8.294
12008SOL     OW37855  12.790  10.942  14.082
12008SOL    HW137856  12.826  11.028  14.105
12008SOL    HW237857  12.834  10.881  14.142
12009SOL     OW37858   8.506  12.741   4.063
12009SOL    HW137859   8.435  12.793   4.100
12009SOL    HW237860   8.532  12.788   3.983
12010SOL     OW37861  10.848   7.546   3.060
12010SOL    HW137862  10.820   7.619   3.006
12010SOL    HW237863  10.882   7.482   2.998
12011SOL     OW37864   8.870   3.297  12.631
12011SOL    HW137865   8.904   3.226  12.577
12011SOL    HW237866   8.778   3.304  12.607
12012SOL     OW37867   0.841  10.527   0.791
12012SOL    HW137868   0.787  10.577   0.851
12012SOL    HW237869   0.794  10.528   0.708
12013SOL     OW37870   5.357  11.192  10.779
12013SOL    HW137871   5.445  11.188  10.815
12013SOL    HW237872   5.366  11.163  10.689
12014SOL     OW37873   6.936   1.080  14.600
12014SOL    HW137874   6.962   1.143  14.667
12014SOL    HW237875   6.941   1.129  14.517
12015SOL     OW37876  12.405   2.453   5.343
12015SOL    HW137877  12.380   2.360   5.339
12015SOL    HW237878  12.448   2.462   5.428
12016SOL     OW37879   4.944  14.368   1.575
12016SOL    HW137880   4.876  14.342   1.513
12016SOL    HW237881   4.935  14.307   1.648
12017SOL     OW37882   8.748   1.553   3.669
12017SOL    HW137883   8.702   1.536   3.751
12017SOL    HW237884   8.841   1.539   3.690
12018SOL     OW37885   7.543  13.713   7.281
12018SOL    HW137886   7.501  13.648   7.225
12018SOL    HW237887   7.557  13.668   7.364
12019SOL     OW37888  12.025   6.602   3.046
12019SOL    HW137889  12.077   6.523   3.064
12019SOL    HW237890  12.002   6.636   3.132
12020SOL     OW37891   6.280   2.076  14.435
12020SOL    HW137892   6.244   2.128  14.362
12020SOL    HW237893   6.316   2.142  14.495
12021SOL     OW37894   1.188   6.244   8.771
12021SOL    HW137895   1.115   6.304   8.788
12021SOL    HW237896   1.266   6.294   8.795
12022SOL     OW37897  10.478  10.616   1.807
12022SOL    HW137898  10.552  10.612   1.867
12022SOL    HW237899  10.510  10.666   1.732
12023SOL     OW37900  13.246   3.367   8.181
12023SOL    HW137901  13.153   3.355   8.199
12023SOL    HW237902  13.277   3.421   8.254
12024SOL     OW37903   5.181  12.054   5.680
12024SOL    HW137904   5.191  12.016   5.767
12024SOL    HW237905   5.270  12.053   5.643
12025SOL     OW37906   7.588   7.338   7.666
12025SOL    HW137907   7.670   7.290   7.673
12025SOL    HW237908   7.559   7.351   7.756
12026SOL     OW37909  10.528  13.342   2.744
12026SOL    HW137910  10.483  13.395   2.810
12026SOL    HW237911  10.549  13.404   2.674
12027SOL     OW37912   9.715   4.297   4.547
12027SOL    HW137913   9.809   4.297   4.560
12027SOL    HW237914   9.684   4.373   4.596
12028SOL     OW37915  12.313   9.843  10.477
12028SOL    HW137916  12.349   9.754  10.475
12028SOL    HW237917  12.320   9.869  10.569
12029SOL     OW37918  12.561   9.981  14.464
12029SOL    HW137919  12.486  10.040  14.468
12029SOL    HW237920  12.572   9.962  14.371
12030SOL     OW37921   7.072  13.983   3.964
12030SOL    HW137922   6.988  14.016   3.932
12030SOL    HW237923   7.135  14.013   3.899
12031SOL     OW37924   3.311  12.162   4.530
12031SOL    HW137925   3.385  12.138   4.585
12031SOL    HW237926   3.320  12.107   4.452
12032SOL     OW37927   0.830   0.124  12.490
12032SOL    HW137928   0.793   0.181  12.557
12032SOL    HW237929   0.893   0.179  12.443
12033SOL     OW37930   4.619   9.104  12.566
12033SOL    HW137931   4.605   9.022  12.613
12033SOL    HW237932   4.683   9.082  12.498
12034SOL     OW37933   5.426   0.386  14.683
12034SOL    HW137934   5.365   0.331  14.634
12034SOL    HW237935   5.507   0.334  14.687
12035SOL     OW37936  13.036   7.519   6.854
12035SOL    HW137937  12.951   7.561   6.868
12035SOL    HW237938  13.060   7.544   6.764
12036SOL     OW37939   7.962   7.262   4.117
12036SOL    HW137940   7.897   7.300   4.058
12036SOL    HW237941   8.042   7.311   4.099
12037SOL     OW37942   9.676   7.651  13.531
12037SOL    HW137943   9.691   7.683  13.442
12037SOL    HW237944   9.679   7.730  13.585
12038SOL     OW37945  11.222   3.048  10.430
12038SOL    HW137946  11.170   3.111  10.381
12038SOL    HW237947  11.157   2.994  10.475
12039SOL     OW37948   9.625   5.272  11.168
12039SOL    HW137949   9.553   5.336  11.170
12039SOL    HW237950   9.704   5.325  11.158
12040SOL     OW37951   2.952   8.130   1.932
12040SOL    HW137952   2.983   8.047   1.969
12040SOL    HW237953   2.902   8.171   2.003
12041SOL     OW37954   8.714   3.753   1.614
12041SOL    HW137955   8.628   3.781   1.647
12041SOL    HW237956   8.769   3.830   1.624
12042SOL     OW37957   1.503   8.181   6.151
12042SOL    HW137958   1.520   8.225   6.234
12042SOL    HW237959   1.409   8.194   6.135
12043SOL     OW37960   2.304   4.254  10.528
12043SOL    HW137961   2.326   4.348  10.531
12043SOL    HW237962   2.324   4.228  10.438
12044SOL     OW37963   4.946  11.366  14.715
12044SOL    HW137964   4.962  11.284  14.761
12044SOL    HW237965   4.868  11.349  14.662
12045SOL     OW37966   6.321   2.854   3.780
12045SOL    HW137967   6.276   2.841   3.696
12045SOL    HW237968   6.357   2.943   3.773
12046SOL     OW37969   6.279   0.394   9.660
12046SOL    HW137970   6.331   0.401   9.740
12046SOL    HW237971   6.339   0.356   9.595
12047SOL     OW37972   3.800   2.069  10.219
12047SOL    HW137973   3.840   2.118  10.146
12047SOL    HW237974   3.741   2.132  10.260
12048SOL     OW37975  14.429   4.800  12.726
12048SOL    HW137976  14.449   4.781  12.818
12048SOL    HW237977  14.441   4.716  12.681
12049SOL     OW37978   3.800   7.558   1.219
12049SOL    HW137979   3.746   7.609   1.281
12049SOL    HW237980   3.871   7.523   1.273
12050SOL     OW37981   8.408   1.497   9.464
12050SOL    HW137982   8.498   1.467   9.480
12050SOL    HW237983   8.353   1.433   9.508
12051SOL     OW37984  14.868  12.336   3.434
12051SOL    HW137985  14.810  12.406   3.465
12051SOL    HW237986   0.045  12.319   3.509
12052SOL     OW37987   5.934  11.936  11.065
12052SOL    HW137988   5.853  11.979  11.094
12052SOL    HW237989   5.910  11.894  10.982
12053SOL     OW37990   4.826   3.859   5.165
12053SOL    HW137991   4.836   3.786   5.104
12053SOL    HW237992   4.733   3.882   5.160
12054SOL     OW37993   1.847  10.156   0.839
12054SOL    HW137994   1.804  10.072   0.825
12054SOL    HW237995   1.895  10.172   0.758
12055SOL     OW37996  11.680  14.576  13.110
12055SOL    HW137997  11.595  14.608  13.140
12055SOL    HW237998  11.734  14.655  13.101
12056SOL     OW37999  14.420   9.217   8.029
12056SOL    HW138000  14.353   9.233   8.096
12056SOL    HW238001  14.407   9.125   8.005
12057SOL     OW38002  13.115   4.910   0.940
12057SOL    HW138003  13.077   4.996   0.920
12057SOL    HW238004  13.198   4.909   0.893
12058SOL     OW38005   8.964   8.810   2.661
12058SOL    HW138006   8.986   8.752   2.734
12058SOL    HW238007   8.903   8.873   2.698
12059SOL     OW38008  11.784  11.724   0.204
12059SOL    HW138009  11.805  11.805   0.249
12059SOL    HW238010  11.696  11.736   0.170
12060SOL     OW38011   4.675   5.952   4.237
12060SOL    HW138012   4.639   5.934   4.150
12060SOL    HW238013   4.748   6.011   4.221
12061SOL     OW38014   7.415   1.038   2.640
12061SOL    HW138015   7.403   1.030   2.545
12061SOL    HW238016   7.326   1.040   2.675
12062SOL     OW38017  13.069  13.871  11.271
12062SOL    HW138018  13.121  13.833  11.200
12062SOL    HW238019  13.010  13.801  11.298
12063SOL     OW38020   5.031   2.719   6.324
12063SOL    HW138021   5.118   2.741   6.291
12063SOL    HW238022   4.971   2.763   6.264
12064SOL     OW38023   4.522   1.368  12.740
12064SOL    HW138024   4.493   1.445  12.789
12064SOL    HW238025   4.515   1.394  12.648
12065SOL     OW38026   1.293   3.866   6.477
12065SOL    HW138027   1.372   3.820   6.451
12065SOL    HW238028   1.309   3.893   6.567
12066SOL     OW38029  13.336  12.615  10.044
12066SOL    HW138030  13.280  12.573   9.979
12066SOL    HW238031  13.335  12.556  10.118
12067SOL     OW38032   9.903  12.371  10.636
12067SOL    HW138033   9.968  12.409  10.576
12067SOL    HW238034   9.843  12.324  10.578
12068SOL     OW38035  10.887   4.925  13.224
12068SOL    HW138036  10.870   4.875  13.304
12068SOL    HW238037  10.860   4.868  13.153
12069SOL     OW38038   5.485   4.160  10.135
12069SOL    HW138039   5.485   4.087  10.074
12069SOL    HW238040   5.393   4.185  10.143
12070SOL     OW38041  10.119   1.186   5.185
12070SOL    HW138042  10.169   1.268   5.176
12070SOL    HW238043  10.173   1.131   5.242
12071SOL     OW38044  13.749   7.803   0.270
12071SOL    HW138045  13.655   7.787   0.261
12071SOL    HW238046  13.754   7.880   0.327
12072SOL     OW38047  13.798   9.621   7.765
12072SOL    HW138048  13.864   9.667   7.817
12072SOL    HW238049  13.751   9.690   7.719
12073SOL     OW38050   7.014   3.935  12.798
12073SOL    HW138051   6.999   3.846  12.831
12073SOL    HW238052   6.939   3.952  12.741
12074SOL     OW38053   8.845   1.194   0.607
12074SOL    HW138054   8.910   1.200   0.677
12074SOL    HW238055   8.896   1.178   0.528
12075SOL     OW38056   0.615  13.761   7.961
12075SOL    HW138057   0.632  13.708   8.039
12075SOL    HW238058   0.563  13.704   7.904
12076SOL     OW38059   3.252  12.568   0.870
12076SOL    HW138060   3.190  12.624   0.916
12076SOL    HW238061   3.225  12.479   0.892
12077SOL     OW38062  14.603   6.279  10.699
12077SOL    HW138063  14.544   6.352  10.682
12077SOL    HW238064  14.687   6.306  10.662
12078SOL     OW38065   7.390   5.742   5.626
12078SOL    HW138066   7.447   5.668   5.645
12078SOL    HW238067   7.450   5.814   5.605
12079SOL     OW38068  13.478   2.560  11.364
12079SOL    HW138069  13.558   2.525  11.323
12079SOL    HW238070  13.466   2.505  11.442
12080SOL     OW38071   4.808  10.053   5.638
12080SOL    HW138072   4.791  10.082   5.548
12080SOL    HW238073   4.901  10.071   5.652
12081SOL     OW38074  10.297  11.334  11.806
12081SOL    HW138075  10.374  11.392  11.802
12081SOL    HW238076  10.233  11.383  11.859
12082SOL     OW38077   6.065  14.160   8.448
12082SOL    HW138078   5.974  14.144   8.473
12082SOL    HW238079   6.061  14.177   8.354
12083SOL     OW38080  11.864   5.318  11.871
12083SOL    HW138081  11.807   5.341  11.798
12083SOL    HW238082  11.923   5.252  11.835
12084SOL     OW38083   5.589   9.604   7.869
12084SOL    HW138084   5.585   9.630   7.777
12084SOL    HW238085   5.516   9.649   7.911
12085SOL     OW38086  11.169   5.901  11.022
12085SOL    HW138087  11.116   5.826  10.994
12085SOL    HW238088  11.174   5.956  10.944
12086SOL     OW38089   7.266   0.251   5.375
12086SOL    HW138090   7.197   0.195   5.409
12086SOL    HW238091   7.309   0.198   5.307
12087SOL     OW38092   9.139  13.289   3.594
12087SOL    HW138093   9.134  13.216   3.534
12087SOL    HW238094   9.205  13.347   3.556
12088SOL     OW38095   6.896   8.497   9.152
12088SOL    HW138096   6.866   8.558   9.220
12088SOL    HW238097   6.849   8.524   9.073
12089SOL     OW38098   3.726   7.785   4.622
12089SOL    HW138099   3.753   7.769   4.532
12089SOL    HW238100   3.642   7.741   4.630
12090SOL     OW38101   8.219  14.789   8.032
12090SOL    HW138102   8.217  14.874   8.075
12090SOL    HW238103   8.226  14.808   7.939
12091SOL     OW38104   9.333   8.275   5.928
12091SOL    HW138105   9.399   8.329   5.972
12091SOL    HW238106   9.346   8.292   5.835
12092SOL     OW38107  11.030  13.865   9.546
12092SOL    HW138108  10.947  13.825   9.521
12092SOL    HW238109  11.097  13.806   9.509
12093SOL     OW38110   1.947   3.391   1.014
12093SOL    HW138111   2.013   3.427   0.955
12093SOL    HW238112   1.959   3.297   1.009
12094SOL     OW38113   9.860   0.565   1.659
12094SOL    HW138114   9.775   0.610   1.653
12094SOL    HW238115   9.925   0.634   1.646
12095SOL     OW38116   6.681   7.262   3.759
12095SOL    HW138117   6.684   7.220   3.845
12095SOL    HW238118   6.713   7.196   3.698
12096SOL     OW38119   0.298  14.771  10.403
12096SOL    HW138120   0.210  14.808  10.413
12096SOL    HW238121   0.330  14.760  10.493
12097SOL     OW38122   7.543  10.434   8.414
12097SOL    HW138123   7.493  10.486   8.477
12097SOL    HW238124   7.562  10.495   8.343
12098SOL     OW38125  11.961   0.012   0.106
12098SOL    HW138126  12.027   0.040   0.043
12098SOL    HW238127  11.951   0.087   0.165
12099SOL     OW38128   5.219   8.068   1.886
12099SOL    HW138129   5.246   8.159   1.899
12099SOL    HW238130   5.124   8.070   1.884
12100SOL     OW38131   4.125   7.899   1.372
12100SOL    HW138132   4.040   7.873   1.408
12100SOL    HW238133   4.109   7.984   1.332
12101SOL     OW38134  10.135  11.795   8.637
12101SOL    HW138135  10.117  11.821   8.547
12101SOL    HW238136  10.052  11.760   8.669
12102SOL     OW38137   4.339   0.762   9.944
12102SOL    HW138138   4.270   0.790   9.884
12102SOL    HW238139   4.318   0.671   9.963
12103SOL     OW38140  14.672   3.631  10.677
12103SOL    HW138141  14.761   3.598  10.686
12103SOL    HW238142  14.624   3.591  10.749
12104SOL     OW38143   5.142   0.052   7.887
12104SOL    HW138144   5.120   0.046   7.980
12104SOL    HW238145   5.188   0.135   7.878
12105SOL     OW38146  12.406  13.979   9.426
12105SOL    HW138147  12.350  13.936   9.361
12105SOL    HW238148  12.344  14.021   9.487
12106SOL     OW38149   0.498   1.698  10.626
12106SOL    HW138150   0.514   1.792  10.637
12106SOL    HW238151   0.476   1.688  10.534
12107SOL     OW38152   0.167   9.008   4.534
12107SOL    HW138153   0.182   8.956   4.613
12107SOL    HW238154   0.085   9.055   4.551
12108SOL     OW38155  14.186   7.629   3.322
12108SOL    HW138156  14.269   7.661   3.287
12108SOL    HW238157  14.154   7.569   3.254
12109SOL     OW38158  10.495  14.815  14.200
12109SOL    HW138159  10.413  14.841  14.157
12109SOL    HW238160  10.509  14.725  14.171
12110SOL     OW38161  13.349  13.756   2.224
12110SOL    HW138162  13.280  13.821   2.213
12110SOL    HW238163  13.359  13.746   2.318
12111SOL     OW38164   3.074   0.145   5.772
12111SOL    HW138165   3.114   0.229   5.747
12111SOL    HW238166   3.047   0.157   5.863
12112SOL     OW38167   2.329   0.818   1.147
12112SOL    HW138168   2.296   0.729   1.137
12112SOL    HW238169   2.317   0.859   1.061
12113SOL     OW38170   7.464   1.753   9.861
12113SOL    HW138171   7.399   1.685   9.845
12113SOL    HW238172   7.416   1.825   9.900
12114SOL     OW38173  11.699   9.514   2.418
12114SOL    HW138174  11.659   9.527   2.504
12114SOL    HW238175  11.643   9.449   2.375
12115SOL     OW38176  11.132   4.138   1.279
12115SOL    HW138177  11.208   4.167   1.328
12115SOL    HW238178  11.113   4.209   1.218
12116SOL     OW38179   9.868   4.586  12.555
12116SOL    HW138180   9.919   4.665  12.542
12116SOL    HW238181   9.796   4.612  12.613
12117SOL     OW38182   9.113   6.626   1.210
12117SOL    HW138183   9.020   6.611   1.226
12117SOL    HW238184   9.127   6.597   1.120
12118SOL     OW38185  10.373   7.243   4.373
12118SOL    HW138186  10.313   7.318   4.365
12118SOL    HW238187  10.431   7.251   4.298
12119SOL     OW38188   8.737  12.691   5.964
12119SOL    HW138189   8.722  12.761   6.027
12119SOL    HW238190   8.683  12.618   5.996
12120SOL     OW38191   0.751   9.155   9.175
12120SOL    HW138192   0.743   9.133   9.083
12120SOL    HW238193   0.678   9.214   9.193
12121SOL     OW38194   0.341   9.290   6.318
12121SOL    HW138195   0.288   9.369   6.320
12121SOL    HW238196   0.424   9.317   6.279
12122SOL     OW38197   0.867   6.510   9.996
12122SOL    HW138198   0.879   6.418  10.020
12122SOL    HW238199   0.954   6.549  10.004
12123SOL     OW38200   2.615   9.176   0.367
12123SOL    HW138201   2.695   9.145   0.410
12123SOL    HW238202   2.632   9.161   0.274
12124SOL     OW38203   5.962  12.737  13.342
12124SOL    HW138204   5.889  12.792  13.317
12124SOL    HW238205   5.922  12.655  13.369
12125SOL     OW38206   3.504   2.490   2.519
12125SOL    HW138207   3.445   2.444   2.460
12125SOL    HW238208   3.556   2.547   2.462
12126SOL     OW38209   4.589   3.892   8.213
12126SOL    HW138210   4.638   3.814   8.238
12126SOL    HW238211   4.652   3.946   8.164
12127SOL     OW38212   6.812   2.116  11.442
12127SOL    HW138213   6.904   2.139  11.437
12127SOL    HW238214   6.768   2.198  11.465
12128SOL     OW38215   4.859  10.302   9.925
12128SOL    HW138216   4.800  10.373   9.898
12128SOL    HW238217   4.893  10.266   9.843
12129SOL     OW38218   4.668   5.680   1.919
12129SOL    HW138219   4.713   5.598   1.900
12129SOL    HW238220   4.734   5.748   1.906
12130SOL     OW38221  10.599   8.805  10.492
12130SOL    HW138222  10.580   8.730  10.548
12130SOL    HW238223  10.633   8.872  10.552
12131SOL     OW38224   0.206  10.388   2.123
12131SOL    HW138225   0.269  10.454   2.094
12131SOL    HW238226   0.230  10.308   2.075
12132SOL     OW38227   4.920   9.675   0.087
12132SOL    HW138228   4.891   9.741   0.024
12132SOL    HW238229   4.913   9.592   0.039
12133SOL     OW38230   3.153   8.224   4.090
12133SOL    HW138231   3.239   8.241   4.128
12133SOL    HW238232   3.156   8.133   4.062
12134SOL     OW38233   3.611   0.191   6.744
12134SOL    HW138234   3.526   0.159   6.773
12134SOL    HW238235   3.595   0.227   6.657
12135SOL     OW38236   7.288   7.009   0.955
12135SOL    HW138237   7.313   6.966   1.037
12135SOL    HW238238   7.317   6.949   0.887
12136SOL     OW38239  11.926   5.956   0.704
12136SOL    HW138240  11.900   6.043   0.734
12136SOL    HW238241  12.019   5.950   0.727
12137SOL     OW38242  13.701  13.524  10.962
12137SOL    HW138243  13.737  13.590  10.903
12137SOL    HW238244  13.608  13.547  10.970
12138SOL     OW38245   5.094   7.395  14.626
12138SOL    HW138246   5.089   7.431  14.537
12138SOL    HW238247   5.169   7.438  14.666
12139SOL     OW38248   4.139   1.764  11.384
12139SOL    HW138249   4.145   1.759  11.289
12139SOL    HW238250   4.076   1.696  11.408
12140SOL     OW38251   3.753   3.918   4.258
12140SOL    HW138252   3.660   3.922   4.281
12140SOL    HW238253   3.798   3.899   4.340
12141SOL     OW38254   2.406   9.812  14.084
12141SOL    HW138255   2.358   9.812  14.001
12141SOL    HW238256   2.338   9.822  14.151
12142SOL     OW38257   0.094  14.783   9.032
12142SOL    HW138258   0.155  14.776   9.105
12142SOL    HW238259   0.008  14.763   9.070
12143SOL     OW38260  11.757   3.563   2.293
12143SOL    HW138261  11.759   3.549   2.199
12143SOL    HW238262  11.706   3.643   2.305
12144SOL     OW38263   6.912   7.871   4.340
12144SOL    HW138264   6.903   7.808   4.269
12144SOL    HW238265   6.956   7.823   4.410
12145SOL     OW38266  13.313  11.580   3.029
12145SOL    HW138267  13.312  11.486   3.011
12145SOL    HW238268  13.220  11.604   3.034
12146SOL     OW38269   6.886   4.004  14.234
12146SOL    HW138270   6.822   3.934  14.220
12146SOL    HW238271   6.882   4.023  14.328
12147SOL     OW38272   0.228   1.298   8.032
12147SOL    HW138273   0.235   1.393   8.038
12147SOL    HW238274   0.266   1.266   8.114
12148SOL     OW38275  11.607   5.797   7.440
12148SOL    HW138276  11.663   5.836   7.374
12148SOL    HW238277  11.605   5.861   7.511
12149SOL     OW38278  10.228  10.433   6.723
12149SOL    HW138279  10.232  10.490   6.646
12149SOL    HW238280  10.318  10.400   6.733
12150SOL     OW38281   2.269   9.426   7.286
12150SOL    HW138282   2.359   9.423   7.321
12150SOL    HW238283   2.214   9.423   7.364
12151SOL     OW38284   0.781   2.845  11.335
12151SOL    HW138285   0.722   2.913  11.369
12151SOL    HW238286   0.812   2.880  11.252
12152SOL     OW38287   8.300   6.267   6.607
12152SOL    HW138288   8.313   6.326   6.533
12152SOL    HW238289   8.215   6.292   6.643
12153SOL     OW38290   8.054  10.272  14.593
12153SOL    HW138291   7.988  10.203  14.597
12153SOL    HW238292   8.007  10.349  14.562
12154SOL     OW38293   0.216   5.486   8.770
12154SOL    HW138294   0.179   5.537   8.699
12154SOL    HW238295   0.146   5.426   8.795
12155SOL     OW38296   6.580   0.882   0.419
12155SOL    HW138297   6.573   0.933   0.339
12155SOL    HW238298   6.650   0.925   0.469
12156SOL     OW38299   2.837   8.391  14.197
12156SOL    HW138300   2.787   8.444  14.136
12156SOL    HW238301   2.928   8.420  14.185
12157SOL     OW38302   4.170  13.194   7.666
12157SOL    HW138303   4.248  13.228   7.710
12157SOL    HW238304   4.164  13.245   7.585
12158SOL     OW38305  12.027   8.737   3.518
12158SOL    HW138306  12.051   8.829   3.506
12158SOL    HW238307  12.051   8.695   3.435
12159SOL     OW38308  14.094   7.080  10.362
12159SOL    HW138309  14.061   7.091  10.273
12159SOL    HW238310  14.043   7.143  10.414
12160SOL     OW38311   8.969   6.701   6.106
12160SOL    HW138312   8.942   6.751   6.030
12160SOL    HW238313   9.022   6.629   6.071
12161SOL     OW38314   8.464   3.625   9.685
12161SOL    HW138315   8.512   3.665   9.757
12161SOL    HW238316   8.425   3.546   9.722
12162SOL     OW38317  11.156   7.063   3.549
12162SOL    HW138318  11.141   7.145   3.502
12162SOL    HW238319  11.150   6.996   3.481
12163SOL     OW38320  14.276   0.615   0.449
12163SOL    HW138321  14.322   0.597   0.367
12163SOL    HW238322  14.325   0.567   0.515
12164SOL     OW38323   3.616   5.041  13.138
12164SOL    HW138324   3.648   5.031  13.228
12164SOL    HW238325   3.560   5.118  13.140
12165SOL     OW38326  11.390  14.247  12.420
12165SOL    HW138327  11.477  14.266  12.385
12165SOL    HW238328  11.404  14.233  12.514
12166SOL     OW38329  12.706  14.595   7.245
12166SOL    HW138330  12.720  14.689   7.231
12166SOL    HW238331  12.791  14.563   7.275
12167SOL     OW38332   7.382   2.378   1.890
12167SOL    HW138333   7.408   2.447   1.952
12167SOL    HW238334   7.349   2.426   1.814
12168SOL     OW38335  11.823   0.272   7.675
12168SOL    HW138336  11.762   0.205   7.643
12168SOL    HW238337  11.768   0.333   7.723
12169SOL     OW38338  12.242  11.479   5.887
12169SOL    HW138339  12.284  11.450   5.807
12169SOL    HW238340  12.285  11.430   5.957
12170SOL     OW38341  12.318  11.084   4.259
12170SOL    HW138342  12.375  11.023   4.304
12170SOL    HW238343  12.269  11.030   4.197
12171SOL     OW38344   7.783   2.648   0.559
12171SOL    HW138345   7.699   2.668   0.515
12171SOL    HW238346   7.773   2.558   0.588
12172SOL     OW38347   9.348  13.301   9.491
12172SOL    HW138348   9.315  13.291   9.402
12172SOL    HW238349   9.270  13.314   9.545
12173SOL     OW38350  12.120   9.544   5.371
12173SOL    HW138351  12.089   9.456   5.390
12173SOL    HW238352  12.193   9.557   5.431
12174SOL     OW38353   6.414  12.235   8.167
12174SOL    HW138354   6.442  12.313   8.119
12174SOL    HW238355   6.495  12.187   8.184
12175SOL     OW38356   5.898   1.002   8.527
12175SOL    HW138357   5.864   0.961   8.606
12175SOL    HW238358   5.874   0.942   8.456
12176SOL     OW38359  11.153  14.144   4.630
12176SOL    HW138360  11.058  14.147   4.636
12176SOL    HW238361  11.175  14.051   4.641
12177SOL     OW38362   9.225   2.661   4.944
12177SOL    HW138363   9.175   2.625   4.871
12177SOL    HW238364   9.264   2.585   4.987
12178SOL     OW38365   8.143   6.493   0.778
12178SOL    HW138366   8.162   6.475   0.870
12178SOL    HW238367   8.199   6.433   0.729
12179SOL     OW38368   8.598   3.680  13.121
12179SOL    HW138369   8.645   3.761  13.140
12179SOL    HW238370   8.506   3.702  13.135
12180SOL     OW38371  13.010   3.349   1.206
12180SOL    HW138372  13.050   3.325   1.122
12180SOL    HW238373  13.077   3.404   1.248
12181SOL     OW38374  11.217   3.801   4.160
12181SOL    HW138375  11.237   3.708   4.175
12181SOL    HW238376  11.244   3.844   4.241
12182SOL     OW38377   6.648   3.178  14.434
12182SOL    HW138378   6.631   3.259  14.387
12182SOL    HW238379   6.741   3.161  14.420
12183SOL     OW38380   7.226   1.820  12.848
12183SOL    HW138381   7.198   1.825  12.939
12183SOL    HW238382   7.303   1.877  12.844
12184SOL     OW38383   4.988   2.736   9.659
12184SOL    HW138384   4.919   2.801   9.645
12184SOL    HW238385   4.966   2.696   9.743
12185SOL     OW38386   9.373  11.915  13.401
12185SOL    HW138387   9.376  11.845  13.467
12185SOL    HW238388   9.441  11.891  13.338
12186SOL     OW38389   1.687   3.929   3.763
12186SOL    HW138390   1.639   3.944   3.844
12186SOL    HW238391   1.623   3.943   3.694
12187SOL     OW38392   0.682   5.366   8.002
12187SOL    HW138393   0.719   5.295   8.053
12187SOL    HW238394   0.742   5.439   8.015
12188SOL     OW38395   3.972   6.037  12.334
12188SOL    HW138396   3.921   5.955  12.333
12188SOL    HW238397   4.051   6.015  12.383
12189SOL     OW38398   1.668  14.843  11.796
12189SOL    HW138399   1.620  14.847  11.713
12189SOL    HW238400   1.742  14.785  11.779
12190SOL     OW38401  13.600   2.871   2.017
12190SOL    HW138402  13.611   2.894   1.924
12190SOL    HW238403  13.640   2.943   2.064
12191SOL     OW38404  11.587   0.594   4.277
12191SOL    HW138405  11.623   0.551   4.200
12191SOL    HW238406  11.494   0.604   4.258
12192SOL     OW38407   0.288   9.964   7.788
12192SOL    HW138408   0.370   9.914   7.795
12192SOL    HW238409   0.313  10.053   7.814
12193SOL     OW38410   4.753   6.225   1.864
12193SOL    HW138411   4.731   6.316   1.843
12193SOL    HW238412   4.847   6.225   1.879
12194SOL     OW38413  13.223  12.324   2.309
12194SOL    HW138414  13.131  12.306   2.288
12194SOL    HW238415  13.243  12.405   2.263
12195SOL     OW38416  14.829   0.294   6.873
12195SOL    HW138417  14.829   0.293   6.777
12195SOL    HW238418  14.864   0.380   6.896
12196SOL     OW38419   0.435   3.382   5.063
12196SOL    HW138420   0.529   3.366   5.058
12196SOL    HW238421   0.412   3.363   5.154
12197SOL     OW38422   4.210  11.031  10.310
12197SOL    HW138423   4.293  11.000  10.348
12197SOL    HW238424   4.171  10.953  10.272
12198SOL     OW38425   8.261   3.449   9.754
12198SOL    HW138426   8.229   3.361   9.737
12198SOL    HW238427   8.182   3.503   9.755
12199SOL     OW38428   6.821   1.268   5.056
12199SOL    HW138429   6.810   1.198   5.121
12199SOL    HW238430   6.816   1.349   5.108
12200SOL     OW38431  13.642   5.089   6.769
12200SOL    HW138432  13.679   5.046   6.692
12200SOL    HW238433  13.571   5.144   6.735
12201SOL     OW38434   2.488   7.981   0.040
12201SOL    HW138435   2.515   7.994  14.831
12201SOL    HW238436   2.502   8.067   0.081
12202SOL     OW38437   9.576   9.674  11.533
12202SOL    HW138438   9.618   9.747  11.487
12202SOL    HW238439   9.484   9.678  11.505
12203SOL     OW38440   7.109   3.282   2.078
12203SOL    HW138441   7.151   3.361   2.112
12203SOL    HW238442   7.128   3.283   1.984
12204SOL     OW38443   6.591   1.631   0.113
12204SOL    HW138444   6.509   1.645   0.065
12204SOL    HW238445   6.565   1.619   0.204
12205SOL     OW38446  10.995   0.119   8.757
12205SOL    HW138447  11.066   0.060   8.731
12205SOL    HW238448  10.980   0.098   8.850
12206SOL     OW38449   8.650  14.111   2.646
12206SOL    HW138450   8.674  14.019   2.658
12206SOL    HW238451   8.555  14.113   2.655
12207SOL     OW38452   9.140   3.610   9.462
12207SOL    HW138453   9.078   3.558   9.411
12207SOL    HW238454   9.156   3.688   9.408
12208SOL     OW38455   4.689   9.369   7.671
12208SOL    HW138456   4.779   9.368   7.705
12208SOL    HW238457   4.698   9.342   7.580
12209SOL     OW38458  10.837  12.638   0.382
12209SOL    HW138459  10.863  12.547   0.368
12209SOL    HW238460  10.867  12.659   0.471
12210SOL     OW38461   1.979  11.826  12.405
12210SOL    HW138462   1.943  11.803  12.319
12210SOL    HW238463   1.984  11.743  12.452
12211SOL     OW38464  14.048   6.699   3.147
12211SOL    HW138465  14.126   6.643   3.149
12211SOL    HW238466  14.024   6.710   3.238
12212SOL     OW38467  11.343   7.731   3.921
12212SOL    HW138468  11.331   7.672   3.995
12212SOL    HW238469  11.324   7.818   3.956
12213SOL     OW38470   6.953   8.984   4.746
12213SOL    HW138471   6.929   8.894   4.724
12213SOL    HW238472   6.980   8.979   4.838
12214SOL     OW38473  13.795   2.754   9.142
12214SOL    HW138474  13.700   2.745   9.143
12214SOL    HW238475  13.814   2.822   9.207
12215SOL     OW38476  13.596   4.106   4.945
12215SOL    HW138477  13.658   4.174   4.918
12215SOL    HW238478  13.651   4.030   4.963
12216SOL     OW38479  14.811   1.190   7.104
12216SOL    HW138480  14.725   1.149   7.110
12216SOL    HW238481  14.872   1.117   7.112
12217SOL     OW38482   3.309   2.865  13.889
12217SOL    HW138483   3.245   2.865  13.817
12217SOL    HW238484   3.393   2.848  13.846
12218SOL     OW38485  12.403   0.592  11.773
12218SOL    HW138486  12.388   0.686  11.761
12218SOL    HW238487  12.376   0.553  11.690
12219SOL     OW38488   9.844   7.719  13.909
12219SOL    HW138489   9.841   7.646  13.971
12219SOL    HW238490   9.934   7.720  13.877
12220SOL     OW38491  12.383   5.195  10.889
12220SOL    HW138492  12.387   5.121  10.829
12220SOL    HW238493  12.472   5.231  10.888
12221SOL     OW38494   6.377  11.637  10.258
12221SOL    HW138495   6.453  11.695  10.264
12221SOL    HW238496   6.361  11.627  10.164
12222SOL     OW38497   2.928  12.431  10.191
12222SOL    HW138498   3.011  12.426  10.144
12222SOL    HW238499   2.949  12.403  10.280
12223SOL     OW38500   8.846   0.684   5.711
12223SOL    HW138501   8.931   0.728   5.701
12223SOL    HW238502   8.788   0.752   5.745
12224SOL     OW38503   9.713   7.341  14.220
12224SOL    HW138504   9.711   7.383  14.306
12224SOL    HW238505   9.634   7.286  14.217
12225SOL     OW38506   2.456   2.503   8.648
12225SOL    HW138507   2.431   2.429   8.702
12225SOL    HW238508   2.549   2.516   8.667
12226SOL     OW38509  13.066   6.521  13.103
12226SOL    HW138510  13.129   6.454  13.077
12226SOL    HW238511  13.041   6.497  13.192
12227SOL     OW38512   7.193  13.735  11.039
12227SOL    HW138513   7.236  13.820  11.051
12227SOL    HW238514   7.228  13.702  10.957
12228SOL     OW38515  14.685   4.106   0.776
12228SOL    HW138516  14.745   4.175   0.805
12228SOL    HW238517  14.720   4.078   0.692
12229SOL     OW38518   2.863   7.434   8.464
12229SOL    HW138519   2.792   7.372   8.444
12229SOL    HW238520   2.943   7.386   8.444
12230SOL     OW38521  10.378   6.309  12.451
12230SOL    HW138522  10.386   6.220  12.487
12230SOL    HW238523  10.439   6.311  12.378
12231SOL     OW38524   7.098   2.132   2.653
12231SOL    HW138525   7.093   2.052   2.601
12231SOL    HW238526   7.116   2.201   2.589
12232SOL     OW38527  11.740   4.476   9.427
12232SOL    HW138528  11.687   4.539   9.379
12232SOL    HW238529  11.755   4.404   9.365
12233SOL     OW38530   8.899  11.111   1.093
12233SOL    HW138531   8.808  11.112   1.063
12233SOL    HW238532   8.914  11.021   1.122
12234SOL     OW38533  11.727   6.807   7.994
12234SOL    HW138534  11.725   6.899   8.019
12234SOL    HW238535  11.820   6.783   8.001
12235SOL     OW38536   3.478   8.353   0.922
12235SOL    HW138537   3.531   8.420   0.966
12235SOL    HW238538   3.408   8.333   0.984
12236SOL     OW38539   3.444   9.961   5.955
12236SOL    HW138540   3.365   9.906   5.946
12236SOL    HW238541   3.412  10.051   5.946
12237SOL     OW38542   1.893   6.291   7.770
12237SOL    HW138543   1.871   6.210   7.722
12237SOL    HW238544   1.823   6.352   7.747
12238SOL     OW38545  14.815   6.133   8.703
12238SOL    HW138546  14.723   6.114   8.720
12238SOL    HW238547  14.854   6.145   8.790
12239SOL     OW38548   8.467   1.230   1.159
12239SOL    HW138549   8.543   1.287   1.143
12239SOL    HW238550   8.463   1.221   1.254
12240SOL     OW38551   6.317  14.591  11.394
12240SOL    HW138552   6.237  14.577  11.344
12240SOL    HW238553   6.330  14.686  11.395
12241SOL     OW38554   3.894   9.002  11.954
12241SOL    HW138555   3.878   8.917  11.912
12241SOL    HW238556   3.886   8.984  12.048
12242SOL     OW38557  10.543   6.533   1.142
12242SOL    HW138558  10.512   6.516   1.053
12242SOL    HW238559  10.475   6.496   1.198
12243SOL     OW38560   8.674   5.213  10.856
12243SOL    HW138561   8.605   5.168  10.905
12243SOL    HW238562   8.755   5.190  10.901
12244SOL     OW38563   1.447   0.397   4.341
12244SOL    HW138564   1.356   0.369   4.347
12244SOL    HW238565   1.468   0.432   4.427
12245SOL     OW38566   4.373   6.823  14.005
12245SOL    HW138567   4.401   6.908  13.971
12245SOL    HW238568   4.437   6.805  14.075
12246SOL     OW38569   9.123  10.356   4.288
12246SOL    HW138570   9.188  10.285   4.281
12246SOL    HW238571   9.097  10.356   4.380
12247SOL     OW38572  10.157  10.443  11.796
12247SOL    HW138573  10.215  10.376  11.834
12247SOL    HW238574  10.208  10.479  11.723
12248SOL     OW38575   0.433   3.038  11.003
12248SOL    HW138576   0.414   3.001  10.917
12248SOL    HW238577   0.477   2.967  11.051
12249SOL     OW38578  10.281  13.229   9.617
12249SOL    HW138579  10.227  13.301   9.585
12249SOL    HW238580  10.233  13.150   9.595
12250SOL     OW38581   4.757  13.697   2.584
12250SOL    HW138582   4.678  13.751   2.595
12250SOL    HW238583   4.830  13.757   2.601
12251SOL     OW38584   9.699   0.260  10.962
12251SOL    HW138585   9.607   0.288  10.963
12251SOL    HW238586   9.748   0.339  10.939
12252SOL     OW38587   8.743   3.379   2.495
12252SOL    HW138588   8.760   3.389   2.588
12252SOL    HW238589   8.820   3.333   2.461
12253SOL     OW38590  13.378   3.348   4.668
12253SOL    HW138591  13.403   3.274   4.722
12253SOL    HW238592  13.380   3.423   4.728
12254SOL     OW38593   2.824   3.485  10.930
12254SOL    HW138594   2.893   3.466  10.866
12254SOL    HW238595   2.806   3.401  10.972
12255SOL     OW38596  11.919   1.745   4.703
12255SOL    HW138597  11.935   1.678   4.637
12255SOL    HW238598  12.003   1.757   4.747
12256SOL     OW38599   3.120   0.580   4.664
12256SOL    HW138600   3.148   0.667   4.634
12256SOL    HW238601   3.151   0.575   4.755
12257SOL     OW38602   7.902   0.713  14.631
12257SOL    HW138603   7.982   0.727  14.581
12257SOL    HW238604   7.892   0.618  14.633
12258SOL     OW38605   6.553  12.503   9.448
12258SOL    HW138606   6.552  12.599   9.441
12258SOL    HW238607   6.580  12.486   9.538
12259SOL     OW38608   0.383  10.610  12.717
12259SOL    HW138609   0.345  10.604  12.630
12259SOL    HW238610   0.465  10.561  12.711
12260SOL     OW38611   5.289   4.917   4.171
12260SOL    HW138612   5.197   4.892   4.178
12260SOL    HW238613   5.288   4.998   4.120
12261SOL     OW38614   3.209   5.611  14.633
12261SOL    HW138615   3.301   5.636  14.631
12261SOL    HW238616   3.209   5.522  14.668
12262SOL     OW38617   7.534   5.938   8.385
12262SOL    HW138618   7.455   5.887   8.369
12262SOL    HW238619   7.605   5.884   8.350
12263SOL     OW38620   3.469   7.175   3.846
12263SOL    HW138621   3.452   7.254   3.898
12263SOL    HW238622   3.538   7.129   3.895
12264SOL     OW38623   9.989  12.686   7.260
12264SOL    HW138624  10.005  12.652   7.171
12264SOL    HW238625   9.928  12.623   7.298
12265SOL     OW38626  12.306  10.717   4.641
12265SOL    HW138627  12.355  10.647   4.684
12265SOL    HW238628  12.374  10.780   4.615
12266SOL     OW38629   2.964  12.711   8.548
12266SOL    HW138630   3.044  12.721   8.496
12266SOL    HW238631   2.916  12.792   8.534
12267SOL     OW38632   1.589   9.989  13.623
12267SOL    HW138633   1.678  10.023  13.611
12267SOL    HW238634   1.601   9.895  13.634
12268SOL     OW38635   9.754   5.115   2.232
12268SOL    HW138636   9.704   5.049   2.185
12268SOL    HW238637   9.845   5.086   2.226
12269SOL     OW38638   1.640  10.846  12.637
12269SOL    HW138639   1.638  10.769  12.693
12269SOL    HW238640   1.733  10.865  12.626
12270SOL     OW38641   6.186  14.368   9.424
12270SOL    HW138642   6.224  14.441   9.473
12270SOL    HW238643   6.248  14.352   9.353
12271SOL     OW38644   7.375  14.228  12.636
12271SOL    HW138645   7.463  14.263  12.650
12271SOL    HW238646   7.333  14.232  12.722
12272SOL     OW38647  13.484   8.490  12.266
12272SOL    HW138648  13.520   8.517  12.182
12272SOL    HW238649  13.413   8.552  12.284
12273SOL     OW38650   9.124   7.777  10.162
12273SOL    HW138651   9.190   7.742  10.104
12273SOL    HW238652   9.150   7.868  10.176
12274SOL     OW38653   3.091  13.476   5.782
12274SOL    HW138654   2.997  13.488   5.790
12274SOL    HW238655   3.122  13.556   5.740
12275SOL     OW38656  11.640   6.835   1.251
12275SOL    HW138657  11.581   6.792   1.313
12275SOL    HW238658  11.692   6.763   1.214
12276SOL     OW38659   3.439   5.443   6.825
12276SOL    HW138660   3.350   5.413   6.808
12276SOL    HW238661   3.494   5.382   6.775
12277SOL     OW38662  14.470   1.916  13.806
12277SOL    HW138663  14.508   1.832  13.829
12277SOL    HW238664  14.449   1.909  13.713
12278SOL     OW38665  12.859  12.359   7.631
12278SOL    HW138666  12.935  12.417   7.642
12278SOL    HW238667  12.790  12.416   7.599
12279SOL     OW38668   0.841  11.077   3.650
12279SOL    HW138669   0.832  11.163   3.608
12279SOL    HW238670   0.934  11.055   3.638
12280SOL     OW38671   6.953   7.005   9.012
12280SOL    HW138672   6.888   7.016   9.080
12280SOL    HW238673   7.033   7.045   9.047
12281SOL     OW38674   7.749   6.348   0.485
12281SOL    HW138675   7.733   6.318   0.395
12281SOL    HW238676   7.833   6.394   0.480
12282SOL     OW38677   8.834   1.185   7.022
12282SOL    HW138678   8.928   1.186   7.041
12282SOL    HW238679   8.795   1.243   7.087
12283SOL     OW38680   5.094  12.110  12.791
12283SOL    HW138681   5.052  12.153  12.865
12283SOL    HW238682   5.170  12.164  12.771
12284SOL     OW38683   3.289   2.034   2.429
12284SOL    HW138684   3.273   2.039   2.523
12284SOL    HW238685   3.250   1.951   2.402
12285SOL     OW38686   2.363   8.703  13.557
12285SOL    HW138687   2.329   8.768  13.619
12285SOL    HW238688   2.447   8.740  13.529
12286SOL     OW38689   7.982  11.900   8.854
12286SOL    HW138690   7.986  11.814   8.895
12286SOL    HW238691   8.072  11.918   8.827
12287SOL     OW38692   5.095  14.378   2.940
12287SOL    HW138693   5.080  14.302   2.996
12287SOL    HW238694   5.018  14.382   2.883
12288SOL     OW38695  12.017   4.120   3.462
12288SOL    HW138696  12.100   4.162   3.440
12288SOL    HW238697  11.996   4.152   3.550
12289SOL     OW38698   4.401   9.423  14.737
12289SOL    HW138699   4.456   9.346  14.751
12289SOL    HW238700   4.312   9.393  14.755
12290SOL     OW38701  10.403  12.436   7.821
12290SOL    HW138702  10.372  12.376   7.890
12290SOL    HW238703  10.349  12.514   7.832
12291SOL     OW38704  14.020   2.741   6.238
12291SOL    HW138705  13.977   2.691   6.307
12291SOL    HW238706  14.002   2.693   6.158
12292SOL     OW38707   9.389  11.966   3.435
12292SOL    HW138708   9.300  11.953   3.469
12292SOL    HW238709   9.376  12.009   3.350
12293SOL     OW38710  13.576   8.706  13.320
12293SOL    HW138711  13.503   8.721  13.380
12293SOL    HW238712  13.550   8.629  13.269
12294SOL     OW38713   5.309  12.079  12.215
12294SOL    HW138714   5.288  12.038  12.299
12294SOL    HW238715   5.336  12.006  12.159
12295SOL     OW38716   2.863   6.901   2.763
12295SOL    HW138717   2.823   6.895   2.676
12295SOL    HW238718   2.941   6.955   2.750
12296SOL     OW38719   8.282   7.209   0.698
12296SOL    HW138720   8.366   7.231   0.738
12296SOL    HW238721   8.232   7.290   0.701
12297SOL     OW38722  14.456  11.158   0.630
12297SOL    HW138723  14.493  11.074   0.601
12297SOL    HW238724  14.393  11.134   0.698
12298SOL     OW38725  10.191  11.503  13.925
12298SOL    HW138726  10.157  11.457  14.002
12298SOL    HW238727  10.245  11.438  13.880
12299SOL     OW38728   0.866   4.500  10.927
12299SOL    HW138729   0.878   4.405  10.922
12299SOL    HW238730   0.779   4.511  10.966
12300SOL     OW38731   3.177  10.396   5.491
12300SOL    HW138732   3.231  10.450   5.434
12300SOL    HW238733   3.090  10.397   5.451
12301SOL     OW38734   6.047  11.631  10.780
12301SOL    HW138735   6.111  11.663  10.843
12301SOL    HW238736   6.100  11.606  10.704
12302SOL     OW38737   5.838   8.511   2.495
12302SOL    HW138738   5.840   8.429   2.445
12302SOL    HW238739   5.773   8.565   2.450
12303SOL     OW38740   5.706  10.293  14.351
12303SOL    HW138741   5.754  10.299  14.434
12303SOL    HW238742   5.759  10.236  14.296
12304SOL     OW38743   4.509  12.951  11.410
12304SOL    HW138744   4.573  12.880  11.422
12304SOL    HW238745   4.541  12.998  11.333
12305SOL     OW38746  14.695  13.328   0.441
12305SOL    HW138747  14.699  13.386   0.518
12305SOL    HW238748  14.739  13.248   0.469
12306SOL     OW38749   3.401   5.223  10.028
12306SOL    HW138750   3.310   5.244  10.047
12306SOL    HW238751   3.451   5.265  10.098
12307SOL     OW38752   0.128  12.481  14.336
12307SOL    HW138753   0.208  12.497  14.385
12307SOL    HW238754   0.140  12.529  14.254
12308SOL     OW38755   8.727   6.302   4.826
12308SOL    HW138756   8.695   6.227   4.876
12308SOL    HW238757   8.652   6.331   4.775
12309SOL     OW38758  12.760  13.865   1.802
12309SOL    HW138759  12.710  13.834   1.727
12309SOL    HW238760  12.705  13.843   1.878
12310SOL     OW38761   7.325   9.472  13.873
12310SOL    HW138762   7.373   9.508  13.799
12310SOL    HW238763   7.329   9.541  13.940
12311SOL     OW38764   3.268   8.086  11.762
12311SOL    HW138765   3.314   8.114  11.841
12311SOL    HW238766   3.308   8.139  11.692
12312SOL     OW38767   2.178  13.182  13.911
12312SOL    HW138768   2.120  13.244  13.867
12312SOL    HW238769   2.120  13.128  13.965
12313SOL     OW38770  14.414   1.755  13.037
12313SOL    HW138771  14.495   1.804  13.052
12313SOL    HW238772  14.357   1.816  12.990
12314SOL     OW38773   4.181   9.081   8.149
12314SOL    HW138774   4.161   9.097   8.057
12314SOL    HW238775   4.102   9.040   8.184
12315SOL     OW38776   3.498   7.379   8.194
12315SOL    HW138777   3.518   7.295   8.151
12315SOL    HW238778   3.582   7.424   8.200
12316SOL     OW38779   1.985  12.148   2.702
12316SOL    HW138780   2.004  12.232   2.743
12316SOL    HW238781   1.933  12.101   2.767
12317SOL     OW38782   3.808   2.488   2.539
12317SOL    HW138783   3.713   2.501   2.531
12317SOL    HW238784   3.825   2.407   2.489
12318SOL     OW38785  14.642   1.406   7.574
12318SOL    HW138786  14.659   1.416   7.480
12318SOL    HW238787  14.628   1.495   7.606
12319SOL     OW38788   4.047  11.484  13.636
12319SOL    HW138789   4.065  11.455  13.547
12319SOL    HW238790   4.122  11.453  13.687
12320SOL     OW38791  14.071  11.741   9.027
12320SOL    HW138792  14.124  11.665   9.002
12320SOL    HW238793  13.986  11.726   8.985
12321SOL     OW38794   3.589   8.653   1.495
12321SOL    HW138795   3.515   8.601   1.527
12321SOL    HW238796   3.652   8.652   1.567
12322SOL     OW38797   9.804   9.870  11.401
12322SOL    HW138798   9.766   9.815  11.332
12322SOL    HW238799   9.730   9.924  11.430
12323SOL     OW38800   4.910  12.938  13.123
12323SOL    HW138801   4.903  13.029  13.152
12323SOL    HW238802   4.836  12.894  13.165
12324SOL     OW38803   0.381  14.542   8.739
12324SOL    HW138804   0.415  14.514   8.824
12324SOL    HW238805   0.294  14.576   8.758
12325SOL     OW38806  14.301   5.025   2.873
12325SOL    HW138807  14.259   4.944   2.843
12325SOL    HW238808  14.239   5.094   2.851
12326SOL     OW38809   9.147   8.081   6.825
12326SOL    HW138810   9.068   8.105   6.778
12326SOL    HW238811   9.201   8.160   6.825
12327SOL     OW38812   5.228   8.167   8.404
12327SOL    HW138813   5.248   8.197   8.493
12327SOL    HW238814   5.190   8.244   8.361
12328SOL     OW38815  10.566  13.059   7.410
12328SOL    HW138816  10.475  13.031   7.409
12328SOL    HW238817  10.615  12.979   7.388
12329SOL     OW38818   0.431   4.748   1.979
12329SOL    HW138819   0.355   4.783   1.931
12329SOL    HW238820   0.490   4.718   1.910
12330SOL     OW38821   8.121   6.887   8.710
12330SOL    HW138822   8.193   6.946   8.731
12330SOL    HW238823   8.155   6.800   8.731
12331SOL     OW38824   2.542   6.373   7.661
12331SOL    HW138825   2.537   6.303   7.595
12331SOL    HW238826   2.563   6.452   7.611
12332SOL     OW38827  13.095  12.856   0.487
12332SOL    HW138828  13.103  12.894   0.400
12332SOL    HW238829  13.079  12.931   0.545
12333SOL     OW38830   9.238   5.831   0.762
12333SOL    HW138831   9.190   5.841   0.679
12333SOL    HW238832   9.170   5.812   0.826
12334SOL     OW38833  13.717   9.908   5.275
12334SOL    HW138834  13.688   9.982   5.329
12334SOL    HW238835  13.813   9.911   5.281
12335SOL     OW38836   2.226  14.430   6.385
12335SOL    HW138837   2.309  14.405   6.426
12335SOL    HW238838   2.169  14.355   6.398
12336SOL     OW38839   2.659   2.565   4.003
12336SOL    HW138840   2.568   2.573   3.974
12336SOL    HW238841   2.661   2.607   4.089
12337SOL     OW38842  11.929   5.996   4.372
12337SOL    HW138843  11.992   5.986   4.301
12337SOL    HW238844  11.850   5.954   4.339
12338SOL     OW38845   0.309   2.523   9.426
12338SOL    HW138846   0.260   2.600   9.452
12338SOL    HW238847   0.262   2.450   9.466
12339SOL     OW38848   8.946   9.949   5.488
12339SOL    HW138849   8.871  10.008   5.488
12339SOL    HW238850   8.912   9.867   5.453
12340SOL     OW38851   3.480   7.489   7.660
12340SOL    HW138852   3.512   7.517   7.746
12340SOL    HW238853   3.554   7.443   7.621
12341SOL     OW38854   2.304  10.430   4.907
12341SOL    HW138855   2.353  10.396   4.982
12341SOL    HW238856   2.371  10.459   4.846
12342SOL     OW38857  10.336   8.338   2.768
12342SOL    HW138858  10.378   8.371   2.847
12342SOL    HW238859  10.351   8.244   2.770
12343SOL     OW38860  12.410  13.225  14.554
12343SOL    HW138861  12.487  13.178  14.522
12343SOL    HW238862  12.426  13.316  14.529
12344SOL     OW38863  13.136   4.811   9.568
12344SOL    HW138864  13.160   4.888   9.516
12344SOL    HW238865  13.127   4.741   9.503
12345SOL     OW38866  13.707   7.625   4.227
12345SOL    HW138867  13.786   7.618   4.281
12345SOL    HW238868  13.669   7.709   4.251
12346SOL     OW38869   7.239  13.619   5.946
12346SOL    HW138870   7.279  13.545   5.899
12346SOL    HW238871   7.199  13.579   6.024
12347SOL     OW38872  14.858   1.441   7.315
12347SOL    HW138873  14.881   1.362   7.266
12347SOL    HW238874   0.058   1.490   7.321
12348SOL     OW38875   4.301   9.585   3.393
12348SOL    HW138876   4.240   9.549   3.329
12348SOL    HW238877   4.318   9.512   3.453
12349SOL     OW38878  14.734  11.782  11.172
12349SOL    HW138879  14.786  11.745  11.243
12349SOL    HW238880  14.699  11.864  11.209
12350SOL     OW38881   2.400   9.748   1.856
12350SOL    HW138882   2.408   9.843   1.863
12350SOL    HW238883   2.412   9.716   1.946
12351SOL     OW38884   6.003   2.728   8.957
12351SOL    HW138885   5.999   2.734   9.053
12351SOL    HW238886   6.090   2.764   8.935
12352SOL     OW38887  14.755   9.219  12.729
12352SOL    HW138888  14.812   9.143  12.736
12352SOL    HW238889  14.724   9.234  12.819
12353SOL     OW38890   6.396  14.084  14.790
12353SOL    HW138891   6.314  14.075  14.741
12353SOL    HW238892   6.386  14.025  14.864
12354SOL     OW38893  13.735   7.825  10.197
12354SOL    HW138894  13.715   7.823  10.104
12354SOL    HW238895  13.689   7.748  10.233
12355SOL     OW38896   5.246   4.449   6.251
12355SOL    HW138897   5.222   4.474   6.162
12355SOL    HW238898   5.281   4.360   6.243
12356SOL     OW38899   3.693  12.018  14.343
12356SOL    HW138900   3.725  12.012  14.253
12356SOL    HW238901   3.598  12.007  14.335
12357SOL     OW38902  12.431   2.540  14.224
12357SOL    HW138903  12.469   2.455  14.244
12357SOL    HW238904  12.482   2.573  14.150
12358SOL     OW38905   3.064   5.259   1.917
12358SOL    HW138906   3.146   5.232   1.958
12358SOL    HW238907   3.084   5.261   1.824
12359SOL     OW38908   7.199   8.863   4.046
12359SOL    HW138909   7.244   8.873   4.129
12359SOL    HW238910   7.206   8.770   4.026
12360SOL     OW38911  10.246   8.289  12.899
12360SOL    HW138912  10.205   8.262  12.981
12360SOL    HW238913  10.218   8.224  12.835
12361SOL     OW38914   1.631  14.343   2.470
12361SOL    HW138915   1.628  14.421   2.525
12361SOL    HW238916   1.561  14.356   2.405
12362SOL     OW38917   0.962   9.794  13.572
12362SOL    HW138918   0.889   9.853  13.593
12362SOL    HW238919   1.036   9.853  13.558
12363SOL     OW38920   3.919   5.056  12.413
12363SOL    HW138921   3.932   5.146  12.442
12363SOL    HW238922   3.982   5.005  12.465
12364SOL     OW38923   7.764   4.865   9.104
12364SOL    HW138924   7.783   4.778   9.068
12364SOL    HW238925   7.731   4.848   9.192
12365SOL     OW38926  11.225   7.521  11.139
12365SOL    HW138927  11.216   7.451  11.073
12365SOL    HW238928  11.200   7.479  11.221
12366SOL     OW38929   6.902   8.147   0.308
12366SOL    HW138930   6.992   8.175   0.324
12366SOL    HW238931   6.911   8.073   0.248
12367SOL     OW38932   5.940   5.240  14.377
12367SOL    HW138933   5.853   5.271  14.401
12367SOL    HW238934   5.954   5.271  14.288
12368SOL     OW38935   5.144   3.298   3.994
12368SOL    HW138936   5.214   3.261   3.940
12368SOL    HW238937   5.141   3.241   4.071
12369SOL     OW38938  11.851   6.419  11.481
12369SOL    HW138939  11.878   6.332  11.450
12369SOL    HW238940  11.921   6.446  11.540
12370SOL     OW38941   0.635   7.778   3.186
12370SOL    HW138942   0.595   7.788   3.272
12370SOL    HW238943   0.729   7.781   3.203
12371SOL     OW38944   8.596  11.448   1.198
12371SOL    HW138945   8.570  11.414   1.284
12371SOL    HW238946   8.692  11.440   1.197
12372SOL     OW38947   1.507   1.831  10.180
12372SOL    HW138948   1.509   1.889  10.104
12372SOL    HW238949   1.570   1.869  10.242
12373SOL     OW38950   7.911   7.593  12.940
12373SOL    HW138951   7.826   7.585  12.983
12373SOL    HW238952   7.923   7.687  12.930
12374SOL     OW38953   7.259   7.548   4.308
12374SOL    HW138954   7.192   7.586   4.251
12374SOL    HW238955   7.277   7.617   4.372
12375SOL     OW38956  12.699   1.855   5.653
12375SOL    HW138957  12.793   1.862   5.673
12375SOL    HW238958  12.691   1.770   5.610
12376SOL     OW38959   9.057  11.481   4.947
12376SOL    HW138960   8.990  11.421   4.915
12376SOL    HW238961   9.015  11.566   4.949
12377SOL     OW38962   5.978   3.840  12.690
12377SOL    HW138963   5.889   3.831  12.725
12377SOL    HW238964   5.975   3.919  12.636
12378SOL     OW38965  11.769  12.178   1.482
12378SOL    HW138966  11.844  12.130   1.446
12378SOL    HW238967  11.727  12.217   1.405
12379SOL     OW38968   6.695  14.533  13.082
12379SOL    HW138969   6.655  14.581  13.010
12379SOL    HW238970   6.656  14.445  13.077
12380SOL     OW38971   1.395   2.274   1.652
12380SOL    HW138972   1.402   2.179   1.663
12380SOL    HW238973   1.484   2.306   1.668
12381SOL     OW38974  10.158   4.794   6.060
12381SOL    HW138975  10.185   4.768   5.972
12381SOL    HW238976  10.070   4.830   6.049
12382SOL     OW38977   4.213   5.520   3.118
12382SOL    HW138978   4.178   5.455   3.179
12382SOL    HW238979   4.271   5.574   3.171
12383SOL     OW38980  14.762   4.033   2.914
12383SOL    HW138981  14.689   4.012   2.973
12383SOL    HW238982  14.720   4.047   2.829
12384SOL     OW38983  13.305  12.124  14.299
12384SOL    HW138984  13.397  12.152  14.297
12384SOL    HW238985  13.302  12.049  14.239
12385SOL     OW38986  11.459   9.767  11.368
12385SOL    HW138987  11.548   9.759  11.332
12385SOL    HW238988  11.468   9.740  11.460
12386SOL     OW38989   8.514   4.826  13.619
12386SOL    HW138990   8.528   4.749  13.674
12386SOL    HW238991   8.473   4.792  13.540
12387SOL     OW38992   8.840   8.470   8.275
12387SOL    HW138993   8.781   8.421   8.331
12387SOL    HW238994   8.789   8.489   8.197
12388SOL     OW38995   1.133   0.614   2.576
12388SOL    HW138996   1.075   0.656   2.640
12388SOL    HW238997   1.221   0.638   2.604
12389SOL     OW38998  12.095   5.436   1.133
12389SOL    HW138999  12.066   5.344   1.130
12389SOL    HW239000  12.026   5.481   1.182
12390SOL     OW39001   1.684   8.848   0.707
12390SOL    HW139002   1.632   8.907   0.653
12390SOL    HW239003   1.659   8.868   0.797
12391SOL     OW39004   5.402   3.424   1.418
12391SOL    HW139005   5.428   3.473   1.496
12391SOL    HW239006   5.484   3.396   1.378
12392SOL     OW39007   0.650  10.614  10.703
12392SOL    HW139008   0.696  10.541  10.660
12392SOL    HW239009   0.705  10.690  10.685
12393SOL     OW39010   1.516   2.562  13.175
12393SOL    HW139011   1.528   2.541  13.083
12393SOL    HW239012   1.433   2.521  13.199
12394SOL     OW39013   0.046  14.338   1.149
12394SOL    HW139014   0.010  14.372   1.231
12394SOL    HW239015   0.025  14.405   1.084
12395SOL     OW39016  13.408   4.538   1.463
12395SOL    HW139017  13.370   4.576   1.542
12395SOL    HW239018  13.395   4.605   1.395
12396SOL     OW39019   3.009   7.249   9.052
12396SOL    HW139020   3.093   7.291   9.037
12396SOL    HW239021   3.007   7.176   8.990
12397SOL     OW39022   0.373   8.868   5.705
12397SOL    HW139023   0.393   8.943   5.761
12397SOL    HW239024   0.394   8.898   5.617
12398SOL     OW39025   4.052  11.644   2.153
12398SOL    HW139026   4.103  11.698   2.213
12398SOL    HW239027   4.108  11.636   2.075
12399SOL     OW39028   7.949   3.084   0.318
12399SOL    HW139029   7.989   2.998   0.309
12399SOL    HW239030   8.009   3.143   0.272
12400SOL     OW39031   1.301  11.869  10.725
12400SOL    HW139032   1.352  11.793  10.698
12400SOL    HW239033   1.286  11.917  10.644
12401SOL     OW39034   3.968   6.847   0.365
12401SOL    HW139035   3.880   6.812   0.383
12401SOL    HW239036   3.961   6.939   0.388
12402SOL     OW39037  10.785  13.189   5.636
12402SOL    HW139038  10.692  13.194   5.657
12402SOL    HW239039  10.828  13.167   5.719
12403SOL     OW39040   5.341   9.810   0.313
12403SOL    HW139041   5.335   9.872   0.385
12403SOL    HW239042   5.250   9.793   0.288
12404SOL     OW39043   8.453  12.819  11.095
12404SOL    HW139044   8.392  12.892  11.088
12404SOL    HW239045   8.468  12.792  11.004
12405SOL     OW39046  11.616   3.654  13.059
12405SOL    HW139047  11.695   3.697  13.025
12405SOL    HW239048  11.584   3.601  12.986
12406SOL     OW39049   0.565   8.501   1.413
12406SOL    HW139050   0.602   8.554   1.343
12406SOL    HW239051   0.573   8.411   1.383
12407SOL     OW39052   2.599   1.806   4.537
12407SOL    HW139053   2.572   1.746   4.468
12407SOL    HW239054   2.644   1.877   4.492
12408SOL     OW39055   0.040   5.653   4.473
12408SOL    HW139056   0.110   5.718   4.481
12408SOL    HW239057   0.001   5.670   4.387
12409SOL     OW39058  14.863   8.203   0.559
12409SOL    HW139059  14.866   8.148   0.637
12409SOL    HW239060   0.002   8.291   0.590
12410SOL     OW39061  10.485   6.599   5.023
12410SOL    HW139062  10.552   6.581   4.957
12410SOL    HW239063  10.448   6.683   4.998
12411SOL     OW39064   5.344   1.198   4.250
12411SOL    HW139065   5.429   1.207   4.207
12411SOL    HW239066   5.299   1.280   4.231
12412SOL     OW39067   5.384  14.617   7.946
12412SOL    HW139068   5.290  14.637   7.952
12412SOL    HW239069   5.403  14.567   8.026
12413SOL     OW39070   8.974  11.399   3.982
12413SOL    HW139071   8.906  11.367   4.041
12413SOL    HW239072   9.025  11.322   3.959
12414SOL     OW39073   3.498   9.797   2.841
12414SOL    HW139074   3.426   9.812   2.902
12414SOL    HW239075   3.548   9.879   2.843
12415SOL     OW39076   7.307  14.677  11.363
12415SOL    HW139077   7.224  14.716  11.335
12415SOL    HW239078   7.365  14.751  11.378
12416SOL     OW39079  12.358   8.309  13.479
12416SOL    HW139080  12.376   8.267  13.395
12416SOL    HW239081  12.431   8.370  13.492
12417SOL     OW39082  12.086   3.519   1.759
12417SOL    HW139083  12.016   3.498   1.697
12417SOL    HW239084  12.108   3.610   1.741
12418SOL     OW39085  12.254   7.729   7.488
12418SOL    HW139086  12.270   7.743   7.394
12418SOL    HW239087  12.159   7.717   7.494
12419SOL     OW39088  10.687   5.955   2.971
12419SOL    HW139089  10.652   5.926   2.886
12419SOL    HW239090  10.757   6.017   2.947
12420SOL     OW39091  10.763   2.860  12.242
12420SOL    HW139092  10.828   2.812  12.294
12420SOL    HW239093  10.684   2.807  12.246
12421SOL     OW39094  14.129   8.126   8.284
12421SOL    HW139095  14.046   8.080   8.295
12421SOL    HW239096  14.157   8.105   8.195
12422SOL     OW39097   9.121   0.862  11.568
12422SOL    HW139098   9.060   0.860  11.643
12422SOL    HW239099   9.086   0.798  11.507
12423SOL     OW39100   4.012   9.018  13.874
12423SOL    HW139101   4.063   8.949  13.831
12423SOL    HW239102   3.922   9.000  13.850
12424SOL     OW39103   0.812   8.532  12.303
12424SOL    HW139104   0.795   8.534  12.209
12424SOL    HW239105   0.757   8.461  12.336
12425SOL     OW39106   3.746  10.592  12.704
12425SOL    HW139107   3.753  10.651  12.778
12425SOL    HW239108   3.830  10.600  12.659
12426SOL     OW39109   9.335   5.065  11.019
12426SOL    HW139110   9.287   5.113  11.086
12426SOL    HW239111   9.340   4.975  11.053
12427SOL     OW39112   2.400   0.320  13.877
12427SOL    HW139113   2.477   0.271  13.907
12427SOL    HW239114   2.325   0.273  13.912
12428SOL     OW39115   6.824   7.620  14.426
12428SOL    HW139116   6.782   7.631  14.341
12428SOL    HW239117   6.828   7.525  14.439
12429SOL     OW39118   3.705  10.802  13.231
12429SOL    HW139119   3.740  10.830  13.315
12429SOL    HW239120   3.733  10.870  13.170
12430SOL     OW39121   2.027   1.880  12.520
12430SOL    HW139122   1.989   1.874  12.432
12430SOL    HW239123   1.992   1.803  12.566
12431SOL     OW39124   8.540  12.040   6.749
12431SOL    HW139125   8.618  12.088   6.778
12431SOL    HW239126   8.568  11.948   6.746
12432SOL     OW39127   1.221   1.920  14.297
12432SOL    HW139128   1.226   1.931  14.392
12432SOL    HW239129   1.132   1.945  14.274
12433SOL     OW39130   6.230   7.794  12.839
12433SOL    HW139131   6.156   7.754  12.794
12433SOL    HW239132   6.227   7.886  12.813
12434SOL     OW39133   1.755  11.087   4.011
12434SOL    HW139134   1.817  11.107   4.081
12434SOL    HW239135   1.707  11.010   4.043
12435SOL     OW39136   6.570   5.715   2.944
12435SOL    HW139137   6.617   5.653   3.000
12435SOL    HW239138   6.486   5.673   2.927
12436SOL     OW39139  13.227  13.999  10.241
12436SOL    HW139140  13.268  14.069  10.191
12436SOL    HW239141  13.256  14.013  10.331
12437SOL     OW39142   8.048   3.445   6.588
12437SOL    HW139143   8.049   3.526   6.640
12437SOL    HW239144   8.116   3.458   6.523
12438SOL     OW39145  12.660   3.262   1.956
12438SOL    HW139146  12.701   3.179   1.981
12438SOL    HW239147  12.701   3.284   1.872
12439SOL     OW39148   4.580  14.544   0.046
12439SOL    HW139149   4.549  14.534   0.136
12439SOL    HW239150   4.565  14.458   0.006
12440SOL     OW39151   1.518   4.949   3.191
12440SOL    HW139152   1.556   4.861   3.193
12440SOL    HW239153   1.440   4.940   3.135
12441SOL     OW39154  11.546   2.031   5.109
12441SOL    HW139155  11.517   2.119   5.085
12441SOL    HW239156  11.537   1.980   5.029
12442SOL     OW39157   4.572   1.290  10.023
12442SOL    HW139158   4.611   1.250  10.101
12442SOL    HW239159   4.503   1.346  10.058
12443SOL     OW39160   6.311   0.003  12.721
12443SOL    HW139161   6.369   0.047  12.658
12443SOL    HW239162   6.261  14.823  12.668
12444SOL     OW39163  11.798   3.520   1.681
12444SOL    HW139164  11.791   3.613   1.661
12444SOL    HW239165  11.709   3.487   1.672
12445SOL     OW39166   5.313   5.304  11.289
12445SOL    HW139167   5.357   5.323  11.205
12445SOL    HW239168   5.220   5.299  11.267
12446SOL     OW39169   4.763   2.376  12.237
12446SOL    HW139170   4.728   2.449  12.186
12446SOL    HW239171   4.816   2.417  12.305
12447SOL     OW39172  10.684  12.241  10.495
12447SOL    HW139173  10.622  12.270  10.428
12447SOL    HW239174  10.639  12.168  10.539
12448SOL     OW39175  12.154   0.860   7.511
12448SOL    HW139176  12.072   0.889   7.551
12448SOL    HW239177  12.127   0.815   7.430
12449SOL     OW39178   5.683   4.499  12.349
12449SOL    HW139179   5.628   4.570  12.314
12449SOL    HW239180   5.660   4.495  12.442
12450SOL     OW39181  12.917   3.161   0.627
12450SOL    HW139182  12.865   3.221   0.573
12450SOL    HW239183  12.924   3.081   0.574
12451SOL     OW39184   3.867   7.643   9.857
12451SOL    HW139185   3.809   7.572   9.828
12451SOL    HW239186   3.913   7.607   9.933
12452SOL     OW39187  11.625  11.162  14.589
12452SOL    HW139188  11.695  11.165  14.654
12452SOL    HW239189  11.544  11.161  14.641
12453SOL     OW39190  14.340   2.304  14.652
12453SOL    HW139191  14.323   2.373  14.588
12453SOL    HW239192  14.263   2.248  14.648
12454SOL     OW39193   7.232   3.404   3.499
12454SOL    HW139194   7.179   3.460   3.556
12454SOL    HW239195   7.266   3.463   3.432
12455SOL     OW39196   5.869  11.456   1.766
12455SOL    HW139197   5.785  11.493   1.791
12455SOL    HW239198   5.934  11.511   1.811
12456SOL     OW39199   0.824   9.030   8.201
12456SOL    HW139200   0.864   9.113   8.228
12456SOL    HW239201   0.796   9.046   8.111
12457SOL     OW39202   9.287   1.816   9.207
12457SOL    HW139203   9.270   1.780   9.120
12457SOL    HW239204   9.257   1.907   9.200
12458SOL     OW39205  13.474   7.382   0.944
12458SOL    HW139206  13.397   7.383   0.888
12458SOL    HW239207  13.522   7.302   0.919
12459SOL     OW39208  14.761   0.219   4.670
12459SOL    HW139209  14.685   0.235   4.613
12459SOL    HW239210  14.726   0.227   4.759
12460SOL     OW39211   3.956   7.940   5.662
12460SOL    HW139212   3.966   7.865   5.602
12460SOL    HW239213   4.002   8.011   5.618
12461SOL     OW39214   1.298   9.064   3.726
12461SOL    HW139215   1.204   9.079   3.718
12461SOL    HW239216   1.323   9.111   3.805
12462SOL     OW39217   9.337  13.603   1.404
12462SOL    HW139218   9.316  13.653   1.326
12462SOL    HW239219   9.261  13.612   1.461
12463SOL     OW39220   6.743  11.659  11.296
12463SOL    HW139221   6.767  11.670  11.388
12463SOL    HW239222   6.751  11.565  11.280
12464SOL     OW39223   7.612   5.340   6.236
12464SOL    HW139224   7.521   5.363   6.257
12464SOL    HW239225   7.606   5.252   6.198
12465SOL     OW39226  12.572   7.753   6.088
12465SOL    HW139227  12.540   7.663   6.081
12465SOL    HW239228  12.665   7.744   6.107
12466SOL     OW39229   2.107  10.126   0.719
12466SOL    HW139230   2.074  10.045   0.679
12466SOL    HW239231   2.200  10.108   0.733
12467SOL     OW39232   0.430   8.079   3.365
12467SOL    HW139233   0.343   8.043   3.383
12467SOL    HW239234   0.481   8.060   3.443
12468SOL     OW39235   4.415  10.104   8.724
12468SOL    HW139236   4.509  10.119   8.737
12468SOL    HW239237   4.374  10.185   8.754
12469SOL     OW39238  11.901  11.786   0.619
12469SOL    HW139239  11.974  11.728   0.599
12469SOL    HW239240  11.938  11.853   0.677
12470SOL     OW39241   6.259   4.754  13.873
12470SOL    HW139242   6.322   4.734  13.942
12470SOL    HW239243   6.187   4.798  13.917
12471SOL     OW39244  12.093   7.029   5.155
12471SOL    HW139245  12.132   7.093   5.095
12471SOL    HW239246  12.084   7.076   5.238
12472SOL     OW39247   5.633   2.969   9.153
12472SOL    HW139248   5.646   3.062   9.132
12472SOL    HW239249   5.683   2.922   9.087
12473SOL     OW39250   9.857  14.423   2.523
12473SOL    HW139251   9.880  14.336   2.556
12473SOL    HW239252   9.844  14.476   2.602
12474SOL     OW39253  14.751  11.697   0.921
12474SOL    HW139254  14.822  11.739   0.967
12474SOL    HW239255  14.769  11.713   0.828
12475SOL     OW39256  12.659  13.816  11.984
12475SOL    HW139257  12.739  13.766  11.970
12475SOL    HW239258  12.690  13.906  11.995
12476SOL     OW39259   8.973  11.007  11.417
12476SOL    HW139260   8.948  11.097  11.399
12476SOL    HW239261   8.997  11.006  11.509
12477SOL     OW39262   7.950   0.244   9.632
12477SOL    HW139263   8.018   0.177   9.647
12477SOL    HW239264   7.985   0.296   9.559
12478SOL     OW39265   7.463   9.490   1.145
12478SOL    HW139266   7.386   9.467   1.198
12478SOL    HW239267   7.427   9.520   1.062
12479SOL     OW39268   8.027   7.182   1.558
12479SOL    HW139269   7.963   7.112   1.551
12479SOL    HW239270   8.019   7.231   1.476
12480SOL     OW39271  14.370  13.133   2.189
12480SOL    HW139272  14.411  13.217   2.168
12480SOL    HW239273  14.440  13.082   2.229
12481SOL     OW39274   9.716  11.628  14.864
12481SOL    HW139275   9.651  11.557  14.859
12481SOL    HW239276   9.790  11.596  14.812
12482SOL     OW39277  13.626   4.661   4.559
12482SOL    HW139278  13.647   4.644   4.468
12482SOL    HW239279  13.696   4.618   4.609
12483SOL     OW39280  14.713  13.588   8.360
12483SOL    HW139281  14.735  13.673   8.322
12483SOL    HW239282  14.642  13.606   8.421
12484SOL     OW39283  12.012   4.316   0.822
12484SOL    HW139284  12.093   4.365   0.830
12484SOL    HW239285  12.039   4.224   0.823
12485SOL     OW39286  10.548   3.412   3.814
12485SOL    HW139287  10.580   3.469   3.883
12485SOL    HW239288  10.531   3.471   3.740
12486SOL     OW39289   7.801   0.652   9.208
12486SOL    HW139290   7.790   0.565   9.246
12486SOL    HW239291   7.835   0.636   9.120
12487SOL     OW39292  13.683  13.185  10.302
12487SOL    HW139293  13.682  13.214  10.393
12487SOL    HW239294  13.656  13.262  10.252
12488SOL     OW39295  13.409  12.886  14.056
12488SOL    HW139296  13.400  12.953  14.124
12488SOL    HW239297  13.330  12.834  14.063
12489SOL     OW39298  11.431  13.364   9.850
12489SOL    HW139299  11.396  13.452   9.831
12489SOL    HW239300  11.375  13.305   9.800
12490SOL     OW39301   4.450   4.349  13.402
12490SOL    HW139302   4.492   4.292  13.338
12490SOL    HW239303   4.360   4.316  13.409
12491SOL     OW39304   4.292  12.415   0.084
12491SOL    HW139305   4.212  12.466   0.096
12491SOL    HW239306   4.262  12.324   0.081
12492SOL     OW39307   5.481   7.341   2.769
12492SOL    HW139308   5.519   7.427   2.788
12492SOL    HW239309   5.486   7.294   2.852
12493SOL     OW39310   6.090   6.809   0.758
12493SOL    HW139311   6.070   6.817   0.851
12493SOL    HW239312   6.113   6.898   0.731
12494SOL     OW39313   6.342  10.713  12.777
12494SOL    HW139314   6.397  10.685  12.704
12494SOL    HW239315   6.297  10.791  12.746
12495SOL     OW39316   5.781  14.595   7.684
12495SOL    HW139317   5.764  14.504   7.709
12495SOL    HW239318   5.793  14.592   7.589
12496SOL     OW39319   4.154  11.404  11.003
12496SOL    HW139320   4.137  11.314  10.978
12496SOL    HW239321   4.168  11.450  10.920
12497SOL     OW39322   3.569   1.428   8.992
12497SOL    HW139323   3.575   1.437   8.897
12497SOL    HW239324   3.657   1.448   9.024
12498SOL     OW39325   1.628  10.237   1.445
12498SOL    HW139326   1.599  10.294   1.374
12498SOL    HW239327   1.627  10.149   1.407
12499SOL     OW39328   5.845  13.639  12.721
12499SOL    HW139329   5.764  13.588  12.710
12499SOL    HW239330   5.901  13.609  12.649
12500SOL     OW39331  10.545   5.306   9.524
12500SOL    HW139332  10.622   5.276   9.475
12500SOL    HW239333  10.479   5.321   9.456
12501SOL     OW39334   5.005  14.105   5.772
12501SOL    HW139335   5.080  14.118   5.829
12501SOL    HW239336   4.981  14.013   5.785
12502SOL     OW39337   5.658  13.955   7.152
12502SOL    HW139338   5.687  14.012   7.223
12502SOL    HW239339   5.729  13.959   7.088
12503SOL     OW39340   4.766   9.896   6.405
12503SOL    HW139341   4.702   9.826   6.421
12503SOL    HW239342   4.851   9.855   6.421
12504SOL     OW39343   8.744   6.026   9.597
12504SOL    HW139344   8.677   5.959   9.588
12504SOL    HW239345   8.707   6.088   9.661
12505SOL     OW39346   0.782   3.957   0.673
12505SOL    HW139347   0.835   4.010   0.733
12505SOL    HW239348   0.800   3.867   0.698
12506SOL     OW39349  12.872  13.821  13.590
12506SOL    HW139350  12.832  13.906  13.606
12506SOL    HW239351  12.962  13.831  13.618
12507SOL     OW39352  10.890  13.306  12.998
12507SOL    HW139353  10.965  13.253  13.023
12507SOL    HW239354  10.817  13.245  12.992
12508SOL     OW39355   7.302   5.406   0.236
12508SOL    HW139356   7.298   5.455   0.318
12508SOL    HW239357   7.249   5.328   0.251
12509SOL     OW39358   4.200  11.778   2.322
12509SOL    HW139359   4.207  11.784   2.418
12509SOL    HW239360   4.266  11.839   2.289
12510SOL     OW39361   1.930  10.050  14.526
12510SOL    HW139362   1.967   9.963  14.538
12510SOL    HW239363   1.836  10.040  14.544
12511SOL     OW39364   3.925   6.008   6.691
12511SOL    HW139365   3.910   6.102   6.701
12511SOL    HW239366   3.906   5.991   6.599
12512SOL     OW39367   8.108  10.928   1.499
12512SOL    HW139368   8.037  10.950   1.559
12512SOL    HW239369   8.084  10.842   1.464
12513SOL     OW39370   0.819   6.226  11.102
12513SOL    HW139371   0.741   6.280  11.098
12513SOL    HW239372   0.874   6.267  11.169
12514SOL     OW39373   8.720   3.728   0.002
12514SOL    HW139374   8.769   3.661   0.050
12514SOL    HW239375   8.735   3.708  14.792
12515SOL     OW39376  13.548  13.566   1.798
12515SOL    HW139377  13.528  13.519   1.879
12515SOL    HW239378  13.594  13.502   1.744
12516SOL     OW39379   6.394   2.507   4.509
12516SOL    HW139380   6.440   2.473   4.585
12516SOL    HW239381   6.306   2.471   4.516
12517SOL     OW39382  10.199   5.369   2.355
12517SOL    HW139383  10.276   5.313   2.361
12517SOL    HW239384  10.159   5.364   2.441
12518SOL     OW39385  11.327   7.556  11.929
12518SOL    HW139386  11.398   7.564  11.993
12518SOL    HW239387  11.363   7.498  11.861
12519SOL     OW39388   4.354   2.437   7.159
12519SOL    HW139389   4.333   2.388   7.237
12519SOL    HW239390   4.292   2.510   7.158
12520SOL     OW39391   1.195   3.889   2.733
12520SOL    HW139392   1.105   3.887   2.701
12520SOL    HW239393   1.228   3.800   2.716
12521SOL     OW39394   6.458   6.232   5.268
12521SOL    HW139395   6.451   6.322   5.301
12521SOL    HW239396   6.448   6.241   5.173
12522SOL     OW39397   4.842  12.911  14.724
12522SOL    HW139398   4.904  12.854  14.769
12522SOL    HW239399   4.826  12.868  14.640
12523SOL     OW39400   1.245   6.176   4.914
12523SOL    HW139401   1.220   6.114   4.983
12523SOL    HW239402   1.165   6.224   4.894
12524SOL     OW39403   9.386   0.246   3.436
12524SOL    HW139404   9.451   0.300   3.392
12524SOL    HW239405   9.437   0.181   3.485
12525SOL     OW39406  10.833   6.833  11.572
12525SOL    HW139407  10.896   6.882  11.519
12525SOL    HW239408  10.856   6.741  11.558
12526SOL     OW39409   4.348  13.006  14.646
12526SOL    HW139410   4.299  13.058  14.710
12526SOL    HW239411   4.282  12.954  14.601
12527SOL     OW39412   7.995   3.684   2.905
12527SOL    HW139413   7.901   3.687   2.924
12527SOL    HW239414   8.026   3.774   2.918
12528SOL     OW39415   6.523  12.379   6.916
12528SOL    HW139416   6.617  12.362   6.926
12528SOL    HW239417   6.483  12.293   6.912
12529SOL     OW39418  11.620   3.786  14.326
12529SOL    HW139419  11.673   3.823  14.396
12529SOL    HW239420  11.650   3.829  14.247
12530SOL     OW39421  11.956  12.840  10.562
12530SOL    HW139422  11.917  12.754  10.546
12530SOL    HW239423  11.926  12.893  10.488
12531SOL     OW39424   0.954   2.182   4.629
12531SOL    HW139425   0.947   2.090   4.655
12531SOL    HW239426   0.896   2.191   4.554
12532SOL     OW39427   6.830   6.674  11.400
12532SOL    HW139428   6.742   6.691  11.366
12532SOL    HW239429   6.816   6.653  11.493
12533SOL     OW39430  12.451   1.939  11.992
12533SOL    HW139431  12.365   1.900  11.976
12533SOL    HW239432  12.457   1.946  12.087
12534SOL     OW39433   9.693   4.391   3.255
12534SOL    HW139434   9.670   4.347   3.337
12534SOL    HW239435   9.786   4.373   3.243
12535SOL     OW39436   3.140   9.192   7.297
12535SOL    HW139437   3.125   9.097   7.297
12535SOL    HW239438   3.225   9.203   7.254
12536SOL     OW39439  11.090  12.872  13.297
12536SOL    HW139440  11.028  12.945  13.293
12536SOL    HW239441  11.074  12.833  13.383
12537SOL     OW39442   4.612  10.774  14.868
12537SOL    HW139443   4.636  10.802  14.780
12537SOL    HW239444   4.567  10.690  14.855
12538SOL     OW39445   4.626   5.652   6.624
12538SOL    HW139446   4.691   5.603   6.674
12538SOL    HW239447   4.675   5.726   6.587
12539SOL     OW39448  13.451  10.015  14.123
12539SOL    HW139449  13.382  10.068  14.164
12539SOL    HW239450  13.527  10.074  14.121
12540SOL     OW39451   9.480   1.891  10.764
12540SOL    HW139452   9.543   1.839  10.814
12540SOL    HW239453   9.526   1.915  10.684
12541SOL     OW39454   3.014  13.724   5.292
12541SOL    HW139455   3.060  13.737   5.375
12541SOL    HW239456   3.047  13.641   5.259
12542SOL     OW39457   8.254   9.407   3.522
12542SOL    HW139458   8.182   9.357   3.486
12542SOL    HW239459   8.256   9.384   3.615
12543SOL     OW39460  13.730   6.472   8.460
12543SOL    HW139461  13.724   6.491   8.366
12543SOL    HW239462  13.661   6.526   8.499
12544SOL     OW39463  14.852  13.963   3.806
12544SOL    HW139464   0.061  13.950   3.833
12544SOL    HW239465  14.855  13.965   3.711
12545SOL     OW39466   0.320  14.189  11.465
12545SOL    HW139467   0.391  14.154  11.411
12545SOL    HW239468   0.280  14.257  11.410
12546SOL     OW39469   7.452  14.627   6.846
12546SOL    HW139470   7.489  14.667   6.925
12546SOL    HW239471   7.358  14.628   6.861
12547SOL     OW39472  12.770   3.855   8.840
12547SOL    HW139473  12.690   3.815   8.806
12547SOL    HW239474  12.755   3.949   8.829
12548SOL     OW39475  13.623   5.012   4.421
12548SOL    HW139476  13.602   5.097   4.383
12548SOL    HW239477  13.642   4.956   4.346
12549SOL     OW39478   3.409   5.957  14.820
12549SOL    HW139479   3.359   6.026  14.776
12549SOL    HW239480   3.468   6.004  14.879
12550SOL     OW39481   9.937   6.627   1.205
12550SOL    HW139482   9.980   6.710   1.224
12550SOL    HW239483   9.847   6.639   1.235
12551SOL     OW39484   6.106   7.798  12.046
12551SOL    HW139485   6.137   7.869  12.102
12551SOL    HW239486   6.186   7.753  12.018
12552SOL     OW39487  12.694  11.284   2.887
12552SOL    HW139488  12.684  11.285   2.983
12552SOL    HW239489  12.767  11.344   2.871
12553SOL     OW39490   3.406   0.457  11.143
12553SOL    HW139491   3.380   0.498  11.226
12553SOL    HW239492   3.502   0.458  11.145
12554SOL     OW39493   3.988   1.114   2.906
12554SOL    HW139494   3.927   1.046   2.934
12554SOL    HW239495   3.932   1.187   2.878
12555SOL     OW39496  14.764   1.089   5.226
12555SOL    HW139497  14.819   1.166   5.214
12555SOL    HW239498  14.697   1.096   5.158
12556SOL     OW39499   6.086   2.888  11.376
12556SOL    HW139500   6.074   2.813  11.319
12556SOL    HW239501   6.019   2.879  11.443
12557SOL     OW39502  10.053  12.662  10.216
12557SOL    HW139503   9.974  12.692  10.170
12557SOL    HW239504  10.020  12.623  10.297
12558SOL     OW39505   3.675   2.835  14.139
12558SOL    HW139506   3.669   2.835  14.234
12558SOL    HW239507   3.636   2.918  14.113
12559SOL     OW39508   9.354   5.005   8.517
12559SOL    HW139509   9.309   5.009   8.601
12559SOL    HW239510   9.295   5.049   8.456
12560SOL     OW39511  10.960   6.240  11.411
12560SOL    HW139512  11.022   6.225  11.340
12560SOL    HW239513  10.875   6.249  11.368
12561SOL     OW39514  12.918   3.663  13.712
12561SOL    HW139515  12.973   3.725  13.760
12561SOL    HW239516  12.847   3.717  13.676
12562SOL     OW39517  13.618   3.797   3.797
12562SOL    HW139518  13.545   3.772   3.853
12562SOL    HW239519  13.630   3.723   3.737
12563SOL     OW39520   4.784  14.102   8.744
12563SOL    HW139521   4.711  14.083   8.802
12563SOL    HW239522   4.756  14.180   8.695
12564SOL     OW39523   7.997  10.239  11.524
12564SOL    HW139524   7.954  10.251  11.439
12564SOL    HW239525   8.078  10.289  11.516
12565SOL     OW39526   9.369  13.539   6.138
12565SOL    HW139527   9.428  13.465   6.129
12565SOL    HW239528   9.293  13.503   6.184
12566SOL     OW39529   3.060  13.609   9.964
12566SOL    HW139530   3.043  13.670   9.893
12566SOL    HW239531   3.009  13.642  10.037
12567SOL     OW39532   0.295   2.666   6.640
12567SOL    HW139533   0.299   2.755   6.676
12567SOL    HW239534   0.260   2.678   6.552
12568SOL     OW39535  11.940   7.104  12.928
12568SOL    HW139536  11.954   7.059  13.011
12568SOL    HW239537  12.021   7.153  12.913
12569SOL     OW39538  11.384   6.447   7.864
12569SOL    HW139539  11.413   6.525   7.912
12569SOL    HW239540  11.428   6.375   7.909
12570SOL     OW39541   0.012   0.010   0.579
12570SOL    HW139542   0.092  14.864   0.534
12570SOL    HW239543  14.863  14.813   0.624
12571SOL     OW39544   4.443   3.209  14.498
12571SOL    HW139545   4.433   3.223  14.592
12571SOL    HW239546   4.415   3.291  14.458
12572SOL     OW39547  12.379  10.092   5.728
12572SOL    HW139548  12.340  10.062   5.811
12572SOL    HW239549  12.467  10.054   5.728
12573SOL     OW39550   0.375   5.121   9.889
12573SOL    HW139551   0.359   5.212   9.916
12573SOL    HW239552   0.367   5.123   9.793
12574SOL     OW39553  11.745   5.214  13.129
12574SOL    HW139554  11.822   5.163  13.154
12574SOL    HW239555  11.704   5.163  13.059
12575SOL     OW39556   3.263  11.067   5.440
12575SOL    HW139557   3.199  11.002   5.411
12575SOL    HW239558   3.215  11.122   5.502
12576SOL     OW39559   3.789   4.804   4.417
12576SOL    HW139560   3.726   4.828   4.349
12576SOL    HW239561   3.820   4.888   4.451
12577SOL     OW39562  13.713   1.868  12.079
12577SOL    HW139563  13.651   1.901  12.015
12577SOL    HW239564  13.704   1.773  12.075
12578SOL     OW39565   6.257   8.601  10.836
12578SOL    HW139566   6.299   8.549  10.904
12578SOL    HW239567   6.164   8.577  10.842
12579SOL     OW39568   6.742   0.319   8.729
12579SOL    HW139569   6.784   0.327   8.644
12579SOL    HW239570   6.669   0.258   8.715
12580SOL     OW39571   3.098   3.425   0.575
12580SOL    HW139572   3.154   3.382   0.639
12580SOL    HW239573   3.124   3.517   0.580
12581SOL     OW39574  14.513  13.821  11.638
12581SOL    HW139575  14.558  13.889  11.589
12581SOL    HW239576  14.574  13.797  11.708
12582SOL     OW39577  10.681   9.253  12.244
12582SOL    HW139578  10.637   9.173  12.215
12582SOL    HW239579  10.610   9.309  12.277
12583SOL     OW39580  11.378   6.411   1.441
12583SOL    HW139581  11.316   6.339   1.450
12583SOL    HW239582  11.419   6.397   1.355
12584SOL     OW39583   6.061   4.431   1.145
12584SOL    HW139584   6.010   4.500   1.188
12584SOL    HW239585   5.997   4.364   1.123
12585SOL     OW39586   5.273   0.766  13.057
12585SOL    HW139587   5.260   0.727  12.971
12585SOL    HW239588   5.329   0.703  13.103
12586SOL     OW39589  14.146   9.672   8.614
12586SOL    HW139590  14.122   9.735   8.682
12586SOL    HW239591  14.109   9.710   8.533
12587SOL     OW39592   5.593   2.234   4.349
12587SOL    HW139593   5.502   2.216   4.376
12587SOL    HW239594   5.587   2.316   4.300
12588SOL     OW39595   3.526  13.166  11.424
12588SOL    HW139596   3.586  13.142  11.353
12588SOL    HW239597   3.541  13.259  11.437
12589SOL     OW39598   6.703  11.723   5.550
12589SOL    HW139599   6.787  11.762   5.576
12589SOL    HW239600   6.652  11.722   5.631
12590SOL     OW39601   0.667   6.023  14.679
12590SOL    HW139602   0.598   5.986  14.624
12590SOL    HW239603   0.670   5.967  14.756
12591SOL     OW39604   2.481   2.145   6.539
12591SOL    HW139605   2.550   2.085   6.568
12591SOL    HW239606   2.412   2.088   6.506
12592SOL     OW39607   3.983   0.367  13.724
12592SOL    HW139608   3.991   0.274  13.701
12592SOL    HW239609   4.069   0.389  13.762
12593SOL     OW39610  11.122   4.437   3.679
12593SOL    HW139611  11.116   4.374   3.751
12593SOL    HW239612  11.050   4.415   3.621
12594SOL     OW39613  14.821   5.885   7.047
12594SOL    HW139614  14.784   5.814   7.100
12594SOL    HW239615  14.814   5.963   7.102
12595SOL     OW39616  10.884   8.018   1.556
12595SOL    HW139617  10.828   7.941   1.553
12595SOL    HW239618  10.823   8.092   1.560
12596SOL     OW39619  10.817   0.444   5.816
12596SOL    HW139620  10.805   0.539   5.822
12596SOL    HW239621  10.912   0.432   5.808
12597SOL     OW39622   1.318   7.388   2.850
12597SOL    HW139623   1.332   7.297   2.823
12597SOL    HW239624   1.223   7.396   2.860
12598SOL     OW39625   0.395  11.330  12.765
12598SOL    HW139626   0.462  11.270  12.798
12598SOL    HW239627   0.371  11.384  12.840
12599SOL     OW39628   4.259   6.198  10.077
12599SOL    HW139629   4.282   6.291  10.084
12599SOL    HW239630   4.206   6.180  10.154
12600SOL     OW39631  10.165   8.626  10.504
12600SOL    HW139632  10.191   8.717  10.518
12600SOL    HW239633  10.155   8.618  10.409
12601SOL     OW39634   2.123   4.762   9.966
12601SOL    HW139635   2.035   4.780  10.000
12601SOL    HW239636   2.153   4.847   9.932
12602SOL     OW39637   7.121   0.682   0.844
12602SOL    HW139638   7.078   0.712   0.924
12602SOL    HW239639   7.051   0.682   0.779
12603SOL     OW39640   0.386   0.060   3.280
12603SOL    HW139641   0.304   0.083   3.235
12603SOL    HW239642   0.422  14.870   3.229
12604SOL     OW39643  11.029   8.255  14.654
12604SOL    HW139644  10.963   8.199  14.614
12604SOL    HW239645  10.987   8.340  14.662
12605SOL     OW39646   1.676  13.722   7.414
12605SOL    HW139647   1.643  13.641   7.377
12605SOL    HW239648   1.620  13.740   7.490
12606SOL     OW39649   6.184   0.401   7.572
12606SOL    HW139650   6.118   0.332   7.570
12606SOL    HW239651   6.138   0.478   7.604
12607SOL     OW39652   7.745  14.533  14.482
12607SOL    HW139653   7.687  14.483  14.424
12607SOL    HW239654   7.769  14.472  14.551
12608SOL     OW39655   8.329  11.046   9.078
12608SOL    HW139656   8.284  11.101   9.142
12608SOL    HW239657   8.351  11.105   9.006
12609SOL     OW39658   8.274   1.185   7.233
12609SOL    HW139659   8.280   1.257   7.170
12609SOL    HW239660   8.365   1.157   7.246
12610SOL     OW39661  10.087   2.682   9.040
12610SOL    HW139662  10.073   2.614   8.974
12610SOL    HW239663  10.017   2.746   9.023
12611SOL     OW39664   3.035   9.063  10.963
12611SOL    HW139665   2.979   9.071  10.886
12611SOL    HW239666   2.983   9.102  11.034
12612SOL     OW39667  13.650  12.474   4.199
12612SOL    HW139668  13.644  12.420   4.278
12612SOL    HW239669  13.733  12.449   4.158
12613SOL     OW39670  12.252   4.895   0.847
12613SOL    HW139671  12.202   4.967   0.808
12613SOL    HW239672  12.191   4.821   0.847
12614SOL     OW39673   2.193  13.176  12.134
12614SOL    HW139674   2.128  13.193  12.066
12614SOL    HW239675   2.161  13.096  12.178
12615SOL     OW39676  12.039   3.106   5.321
12615SOL    HW139677  12.014   3.015   5.339
12615SOL    HW239678  12.110   3.123   5.383
12616SOL     OW39679  11.221   6.438  14.446
12616SOL    HW139680  11.222   6.511  14.508
12616SOL    HW239681  11.239   6.361  14.499
12617SOL     OW39682   3.006   7.603   5.578
12617SOL    HW139683   3.032   7.517   5.544
12617SOL    HW239684   3.024   7.599   5.671
12618SOL     OW39685   4.255   7.213   4.759
12618SOL    HW139686   4.228   7.201   4.850
12618SOL    HW239687   4.173   7.222   4.710
12619SOL     OW39688   5.942   8.522  12.560
12619SOL    HW139689   5.931   8.459  12.632
12619SOL    HW239690   5.881   8.593  12.581
12620SOL     OW39691   3.228  12.035  10.733
12620SOL    HW139692   3.166  12.038  10.659
12620SOL    HW239693   3.174  12.058  10.809
12621SOL     OW39694   7.626   5.782   3.957
12621SOL    HW139695   7.711   5.738   3.962
12621SOL    HW239696   7.639   5.865   4.004
12622SOL     OW39697   0.997  12.110  14.323
12622SOL    HW139698   1.017  12.099  14.416
12622SOL    HW239699   0.916  12.160  14.321
12623SOL     OW39700  11.600  12.748  13.424
12623SOL    HW139701  11.609  12.839  13.451
12623SOL    HW239702  11.511  12.724  13.451
12624SOL     OW39703  13.190   2.331  12.914
12624SOL    HW139704  13.112   2.343  12.968
12624SOL    HW239705  13.253   2.393  12.950
12625SOL     OW39706   4.832  11.296   8.132
12625SOL    HW139707   4.749  11.251   8.147
12625SOL    HW239708   4.821  11.381   8.174
12626SOL     OW39709  11.927   0.968  12.856
12626SOL    HW139710  11.920   0.888  12.805
12626SOL    HW239711  11.941   1.037  12.791
12627SOL     OW39712   6.251  11.355   7.383
12627SOL    HW139713   6.160  11.375   7.366
12627SOL    HW239714   6.290  11.438   7.411
12628SOL     OW39715  13.717   8.685   9.179
12628SOL    HW139716  13.765   8.602   9.172
12628SOL    HW239717  13.761   8.744   9.118
12629SOL     OW39718   7.038   4.853  10.154
12629SOL    HW139719   7.022   4.897  10.237
12629SOL    HW239720   6.979   4.895  10.092
12630SOL     OW39721   4.443   9.963   9.314
12630SOL    HW139722   4.390  10.032   9.353
12630SOL    HW239723   4.423   9.966   9.221
12631SOL     OW39724   4.141   9.542   4.080
12631SOL    HW139725   4.050   9.568   4.091
12631SOL    HW239726   4.147   9.512   3.989
12632SOL     OW39727   6.927  10.872  14.594
12632SOL    HW139728   7.003  10.926  14.574
12632SOL    HW239729   6.924  10.807  14.523
12633SOL     OW39730   8.118   7.482  12.729
12633SOL    HW139731   8.061   7.494  12.653
12633SOL    HW239732   8.067   7.517  12.802
12634SOL     OW39733  12.764   2.822   9.523
12634SOL    HW139734  12.837   2.848   9.467
12634SOL    HW239735  12.695   2.796   9.461
12635SOL     OW39736  14.523  11.063   3.633
12635SOL    HW139737  14.522  10.992   3.569
12635SOL    HW239738  14.605  11.051   3.681
12636SOL     OW39739   2.380  12.038   7.446
12636SOL    HW139740   2.355  12.046   7.354
12636SOL    HW239741   2.303  12.066   7.495
12637SOL     OW39742   2.541  11.392   5.599
12637SOL    HW139743   2.496  11.425   5.678
12637SOL    HW239744   2.545  11.468   5.541
12638SOL     OW39745  11.766   2.503   9.149
12638SOL    HW139746  11.702   2.446   9.190
12638SOL    HW239747  11.791   2.458   9.068
12639SOL     OW39748   6.352   7.929  10.672
12639SOL    HW139749   6.286   7.976  10.722
12639SOL    HW239750   6.325   7.938  10.581
12640SOL     OW39751   1.401   2.449  14.828
12640SOL    HW139752   1.434   2.479   0.031
12640SOL    HW239753   1.452   2.371  14.808
12641SOL     OW39754   2.836   4.982   5.948
12641SOL    HW139755   2.752   5.029   5.942
12641SOL    HW239756   2.838   4.947   6.037
12642SOL     OW39757   6.737  13.747   4.310
12642SOL    HW139758   6.709  13.658   4.332
12642SOL    HW239759   6.808  13.734   4.247
12643SOL     OW39760   9.207  14.258   4.289
12643SOL    HW139761   9.127  14.236   4.240
12643SOL    HW239762   9.240  14.174   4.319
12644SOL     OW39763  12.890   4.404  12.010
12644SOL    HW139764  12.820   4.365  11.957
12644SOL    HW239765  12.852   4.413  12.097
12645SOL     OW39766   7.384  12.494   6.738
12645SOL    HW139767   7.337  12.422   6.780
12645SOL    HW239768   7.475  12.483   6.764
12646SOL     OW39769   4.251   8.557   6.269
12646SOL    HW139770   4.227   8.519   6.353
12646SOL    HW239771   4.168   8.572   6.224
12647SOL     OW39772   9.737   6.625  11.416
12647SOL    HW139773   9.661   6.683  11.410
12647SOL    HW239774   9.749   6.612  11.511
12648SOL     OW39775  14.825   5.377  12.827
12648SOL    HW139776  14.843   5.309  12.892
12648SOL    HW239777  14.847   5.459  12.872
12649SOL     OW39778  13.245  13.495   1.165
12649SOL    HW139779  13.307  13.436   1.123
12649SOL    HW239780  13.299  13.564   1.203
12650SOL     OW39781  12.445   5.470  14.216
12650SOL    HW139782  12.537   5.490  14.197
12650SOL    HW239783  12.403   5.465  14.131
12651SOL     OW39784   7.864   9.694   5.217
12651SOL    HW139785   7.950   9.736   5.221
12651SOL    HW239786   7.827   9.708   5.305
12652SOL     OW39787   6.616   6.390   6.985
12652SOL    HW139788   6.564   6.310   6.980
12652SOL    HW239789   6.552   6.460   6.990
12653SOL     OW39790  12.523   9.541   1.228
12653SOL    HW139791  12.512   9.448   1.247
12653SOL    HW239792  12.608   9.548   1.186
12654SOL     OW39793   0.087   8.392  13.742
12654SOL    HW139794   0.120   8.482  13.748
12654SOL    HW239795   0.161   8.341  13.709
12655SOL     OW39796   0.828   1.175   7.095
12655SOL    HW139797   0.849   1.268   7.106
12655SOL    HW239798   0.912   1.130   7.096
12656SOL     OW39799   3.759   5.192   4.003
12656SOL    HW139800   3.754   5.151   4.089
12656SOL    HW239801   3.848   5.172   3.972
12657SOL     OW39802   0.409  12.070  12.632
12657SOL    HW139803   0.392  12.037  12.720
12657SOL    HW239804   0.486  12.023  12.603
12658SOL     OW39805   2.220   3.527  10.270
12658SOL    HW139806   2.190   3.588  10.203
12658SOL    HW239807   2.141   3.496  10.313
12659SOL     OW39808   6.915  11.737   4.091
12659SOL    HW139809   6.838  11.752   4.145
12659SOL    HW239810   6.946  11.650   4.117
12660SOL     OW39811   4.831  11.301  13.793
12660SOL    HW139812   4.741  11.325  13.814
12660SOL    HW239813   4.830  11.282  13.699
12661SOL     OW39814  13.697  14.352   1.219
12661SOL    HW139815  13.613  14.395   1.206
12661SOL    HW239816  13.746  14.369   1.138
12662SOL     OW39817   8.964   1.189   0.332
12662SOL    HW139818   9.009   1.110   0.301
12662SOL    HW239819   8.883   1.192   0.281
12663SOL     OW39820  10.643  13.742  11.563
12663SOL    HW139821  10.615  13.797  11.491
12663SOL    HW239822  10.714  13.688  11.526
12664SOL     OW39823  13.861   7.508   3.226
12664SOL    HW139824  13.865   7.414   3.206
12664SOL    HW239825  13.870   7.550   3.140
12665SOL     OW39826   6.263  13.542   9.814
12665SOL    HW139827   6.218  13.459   9.830
12665SOL    HW239828   6.313  13.558   9.894
12666SOL     OW39829   8.936   0.602   9.083
12666SOL    HW139830   8.857   0.601   9.136
12666SOL    HW239831   8.908   0.630   8.996
12667SOL     OW39832   5.607   1.291  11.334
12667SOL    HW139833   5.568   1.217  11.287
12667SOL    HW239834   5.548   1.364  11.318
12668SOL     OW39835   8.681   1.431   7.101
12668SOL    HW139836   8.628   1.480   7.163
12668SOL    HW239837   8.756   1.487   7.082
12669SOL     OW39838  12.174  12.267   8.928
12669SOL    HW139839  12.179  12.222   9.013
12669SOL    HW239840  12.245  12.331   8.930
12670SOL     OW39841   2.900  14.028  13.418
12670SOL    HW139842   2.912  14.027  13.323
12670SOL    HW239843   2.822  13.975  13.434
12671SOL     OW39844   5.183   7.940   4.893
12671SOL    HW139845   5.205   7.890   4.971
12671SOL    HW239846   5.118   8.004   4.923
12672SOL     OW39847   1.265   8.457   7.375
12672SOL    HW139848   1.324   8.402   7.426
12672SOL    HW239849   1.278   8.429   7.284
12673SOL     OW39850  11.433   0.790  10.274
12673SOL    HW139851  11.482   0.760  10.197
12673SOL    HW239852  11.383   0.865  10.244
12674SOL     OW39853  10.995  12.830   3.579
12674SOL    HW139854  11.042  12.747   3.589
12674SOL    HW239855  11.003  12.872   3.665
12675SOL     OW39856   1.298   4.743  14.026
12675SOL    HW139857   1.324   4.739  13.934
12675SOL    HW239858   1.287   4.836  14.045
12676SOL     OW39859   0.637   2.939   1.564
12676SOL    HW139860   0.670   2.999   1.631
12676SOL    HW239861   0.666   2.977   1.481
12677SOL     OW39862   7.152   6.617  12.075
12677SOL    HW139863   7.221   6.561  12.039
12677SOL    HW239864   7.084   6.556  12.104
12678SOL     OW39865   4.968  10.639   6.052
12678SOL    HW139866   4.882  10.640   6.010
12678SOL    HW239867   5.023  10.695   5.997
12679SOL     OW39868   7.090  14.555   5.779
12679SOL    HW139869   7.007  14.559   5.827
12679SOL    HW239870   7.151  14.513   5.841
12680SOL     OW39871   4.393  14.356  14.500
12680SOL    HW139872   4.478  14.398  14.512
12680SOL    HW239873   4.356  14.400  14.423
12681SOL     OW39874   5.786   4.265  14.371
12681SOL    HW139875   5.783   4.233  14.461
12681SOL    HW239876   5.706   4.318  14.362
12682SOL     OW39877   8.694   8.322   6.033
12682SOL    HW139878   8.686   8.283   5.946
12682SOL    HW239879   8.686   8.416   6.018
12683SOL     OW39880   9.923   2.772  10.107
12683SOL    HW139881   9.942   2.760  10.014
12683SOL    HW239882   9.841   2.823  10.109
12684SOL     OW39883  10.508   3.187  12.790
12684SOL    HW139884  10.494   3.279  12.769
12684SOL    HW239885  10.528   3.146  12.706
12685SOL     OW39886  12.572   2.123   5.261
12685SOL    HW139887  12.496   2.169   5.295
12685SOL    HW239888  12.581   2.046   5.317
12686SOL     OW39889   9.240   7.280   0.638
12686SOL    HW139890   9.171   7.346   0.638
12686SOL    HW239891   9.205   7.207   0.688
12687SOL     OW39892   5.459   8.715  13.961
12687SOL    HW139893   5.466   8.660  14.038
12687SOL    HW239894   5.366   8.713  13.937
12688SOL     OW39895   6.222   0.950  13.633
12688SOL    HW139896   6.298   0.980  13.685
12688SOL    HW239897   6.245   0.861  13.607
12689SOL     OW39898  14.371  10.676   4.228
12689SOL    HW139899  14.318  10.685   4.307
12689SOL    HW239900  14.379  10.765   4.193
12690SOL     OW39901  11.766   2.208   5.880
12690SOL    HW139902  11.745   2.125   5.923
12690SOL    HW239903  11.683   2.255   5.877
12691SOL     OW39904   8.806   9.356   8.757
12691SOL    HW139905   8.742   9.422   8.730
12691SOL    HW239906   8.786   9.280   8.704
12692SOL     OW39907   8.876  10.155  12.012
12692SOL    HW139908   8.820  10.232  12.000
12692SOL    HW239909   8.886  10.148  12.107
12693SOL     OW39910  12.562   4.799  13.666
12693SOL    HW139911  12.482   4.825  13.620
12693SOL    HW239912  12.615   4.878  13.669
12694SOL     OW39913   5.197  12.842   9.211
12694SOL    HW139914   5.149  12.779   9.265
12694SOL    HW239915   5.249  12.892   9.273
12695SOL     OW39916  14.309   2.297  10.758
12695SOL    HW139917  14.375   2.308  10.689
12695SOL    HW239918  14.231   2.339  10.723
12696SOL     OW39919   2.994  14.182  12.212
12696SOL    HW139920   3.013  14.104  12.159
12696SOL    HW239921   2.958  14.147  12.293
12697SOL     OW39922   9.035   8.444   3.836
12697SOL    HW139923   8.941   8.460   3.841
12697SOL    HW239924   9.073   8.500   3.903
12698SOL     OW39925   9.466   8.661  14.765
12698SOL    HW139926   9.465   8.640  14.671
12698SOL    HW239927   9.550   8.627  14.796
12699SOL     OW39928  12.012   1.912   8.630
12699SOL    HW139929  12.077   1.943   8.567
12699SOL    HW239930  11.979   1.992   8.671
12700SOL     OW39931   8.818   4.820   7.044
12700SOL    HW139932   8.767   4.901   7.031
12700SOL    HW239933   8.758   4.761   7.088
12701SOL     OW39934  14.118   3.196   5.921
12701SOL    HW139935  14.204   3.192   5.962
12701SOL    HW239936  14.067   3.127   5.964
12702SOL     OW39937  14.335   7.810  13.973
12702SOL    HW139938  14.260   7.870  13.964
12702SOL    HW239939  14.321   7.766  14.056
12703SOL     OW39940  12.611  11.482   8.256
12703SOL    HW139941  12.541  11.530   8.210
12703SOL    HW239942  12.645  11.545   8.319
12704SOL     OW39943   7.552   3.337   0.468
12704SOL    HW139944   7.592   3.280   0.403
12704SOL    HW239945   7.592   3.423   0.453
12705SOL     OW39946  12.886   6.132   9.045
12705SOL    HW139947  12.928   6.125   9.131
12705SOL    HW239948  12.959   6.140   8.983
12706SOL     OW39949   0.865   8.907   8.440
12706SOL    HW139950   0.818   8.932   8.361
12706SOL    HW239951   0.902   8.989   8.473
12707SOL     OW39952   4.090   8.845  13.432
12707SOL    HW139953   4.127   8.825  13.346
12707SOL    HW239954   4.100   8.764  13.482
12708SOL     OW39955   4.902  12.962  11.818
12708SOL    HW139956   4.889  13.012  11.738
12708SOL    HW239957   4.846  13.003  11.883
12709SOL     OW39958   0.688  11.031   3.870
12709SOL    HW139959   0.737  11.063   3.795
12709SOL    HW239960   0.721  11.082   3.944
12710SOL     OW39961  10.905  11.047   6.121
12710SOL    HW139962  10.821  11.029   6.078
12710SOL    HW239963  10.928  11.135   6.092
12711SOL     OW39964   9.691   2.369  10.332
12711SOL    HW139965   9.703   2.275  10.346
12711SOL    HW239966   9.596   2.381  10.333
12712SOL     OW39967   3.438   8.919  14.191
12712SOL    HW139968   3.434   8.910  14.096
12712SOL    HW239969   3.369   8.982  14.213
12713SOL     OW39970  10.863  14.103  12.131
12713SOL    HW139971  10.797  14.129  12.196
12713SOL    HW239972  10.814  14.050  12.068
12714SOL     OW39973  11.347  12.937   1.807
12714SOL    HW139974  11.279  12.871   1.820
12714SOL    HW239975  11.354  12.946   1.712
12715SOL     OW39976  12.233   4.214   5.451
12715SOL    HW139977  12.292   4.230   5.378
12715SOL    HW239978  12.170   4.286   5.447
12716SOL     OW39979   9.407  11.274   4.821
12716SOL    HW139980   9.444  11.202   4.770
12716SOL    HW239981   9.336  11.234   4.872
12717SOL     OW39982   2.513  10.889  11.301
12717SOL    HW139983   2.485  10.860  11.214
12717SOL    HW239984   2.431  10.904  11.348
12718SOL     OW39985   4.532   6.893   7.991
12718SOL    HW139986   4.598   6.915   7.925
12718SOL    HW239987   4.499   6.807   7.964
12719SOL     OW39988   4.596   2.772   5.221
12719SOL    HW139989   4.583   2.854   5.174
12719SOL    HW239990   4.675   2.785   5.273
12720SOL     OW39991   4.491   9.991   1.571
12720SOL    HW139992   4.438   9.944   1.636
12720SOL    HW239993   4.580   9.959   1.585
12721SOL     OW39994   3.911   2.898   7.503
12721SOL    HW139995   3.967   2.922   7.428
12721SOL    HW239996   3.921   2.971   7.564
12722SOL     OW39997   7.281  14.627   2.260
12722SOL    HW139998   7.359  14.601   2.211
12722SOL    HW239999   7.291  14.585   2.346
12723SOL     OW40000   7.245   8.398   1.293
12723SOL    HW140001   7.199   8.314   1.301
12723SOL    HW240002   7.188   8.461   1.337
12724SOL     OW40003   1.400  13.185   8.227
12724SOL    HW140004   1.351  13.227   8.157
12724SOL    HW240005   1.378  13.093   8.220
12725SOL     OW40006   8.004   9.749  13.836
12725SOL    HW140007   7.956   9.668  13.815
12725SOL    HW240008   8.082   9.745  13.781
12726SOL     OW40009  11.839   6.005  10.702
12726SOL    HW140010  11.787   5.957  10.638
12726SOL    HW240011  11.777   6.068  10.740
12727SOL     OW40012   6.891   8.094  13.323
12727SOL    HW140013   6.887   8.077  13.418
12727SOL    HW240014   6.982   8.120  13.308
12728SOL     OW40015  12.615   6.750   6.070
12728SOL    HW140016  12.577   6.711   5.992
12728SOL    HW240017  12.649   6.675   6.120
12729SOL     OW40018  13.787   4.950   0.322
12729SOL    HW140019  13.817   4.911   0.239
12729SOL    HW240020  13.763   4.874   0.376
12730SOL     OW40021   9.888   0.357  13.240
12730SOL    HW140022   9.920   0.366  13.151
12730SOL    HW240023   9.917   0.271  13.268
12731SOL     OW40024   3.940   6.611  10.785
12731SOL    HW140025   3.887   6.680  10.744
12731SOL    HW240026   4.006   6.589  10.719
12732SOL     OW40027  12.703   7.654  11.571
12732SOL    HW140028  12.683   7.731  11.518
12732SOL    HW240029  12.737   7.590  11.509
12733SOL     OW40030  14.347   8.691   1.141
12733SOL    HW140031  14.408   8.765   1.134
12733SOL    HW240032  14.384   8.624   1.084
12734SOL     OW40033  10.853  14.420  10.371
12734SOL    HW140034  10.905  14.454  10.444
12734SOL    HW240035  10.794  14.356  10.411
12735SOL     OW40036   4.544   6.915   1.423
12735SOL    HW140037   4.459   6.957   1.437
12735SOL    HW240038   4.584   6.912   1.510
12736SOL     OW40039   6.127  13.937   9.728
12736SOL    HW140040   6.148  14.003   9.662
12736SOL    HW240041   6.148  13.979   9.811
12737SOL     OW40042   7.900   9.092   3.278
12737SOL    HW140043   7.897   9.089   3.182
12737SOL    HW240044   7.878   9.003   3.306
12738SOL     OW40045  14.726   7.018   5.785
12738SOL    HW140046  14.813   6.987   5.810
12738SOL    HW240047  14.743   7.084   5.718
12739SOL     OW40048   9.395   7.265   2.473
12739SOL    HW140049   9.349   7.253   2.556
12739SOL    HW240050   9.477   7.216   2.483
12740SOL     OW40051  14.390  12.958  14.353
12740SOL    HW140052  14.355  13.012  14.282
12740SOL    HW240053  14.435  12.886  14.309
12741SOL     OW40054   8.847  12.537   3.799
12741SOL    HW140055   8.930  12.584   3.801
12741SOL    HW240056   8.828  12.526   3.706
12742SOL     OW40057   5.165   9.724   1.488
12742SOL    HW140058   5.135   9.719   1.397
12742SOL    HW240059   5.191   9.815   1.500
12743SOL     OW40060   2.208   4.764  11.509
12743SOL    HW140061   2.174   4.808  11.587
12743SOL    HW240062   2.153   4.795  11.437
12744SOL     OW40063   2.088   5.042   7.095
12744SOL    HW140064   2.153   4.972   7.092
12744SOL    HW240065   2.137   5.119   7.122
12745SOL     OW40066   5.722   2.090   0.323
12745SOL    HW140067   5.807   2.098   0.280
12745SOL    HW240068   5.672   2.165   0.289
12746SOL     OW40069  11.104  12.740   8.315
12746SOL    HW140070  11.056  12.678   8.260
12746SOL    HW240071  11.055  12.744   8.396
12747SOL     OW40072   0.457   8.448   7.470
12747SOL    HW140073   0.373   8.485   7.444
12747SOL    HW240074   0.505   8.436   7.388
12748SOL     OW40075   4.720   6.029  10.013
12748SOL    HW140076   4.785   5.972   9.972
12748SOL    HW240077   4.761   6.115  10.015
12749SOL     OW40078  11.749  12.975   9.861
12749SOL    HW140079  11.693  13.016   9.927
12749SOL    HW240080  11.689  12.919   9.811
12750SOL     OW40081   9.211  12.630  12.028
12750SOL    HW140082   9.139  12.578  12.064
12750SOL    HW240083   9.245  12.679  12.103
12751SOL     OW40084   2.210  12.853  12.456
12751SOL    HW140085   2.160  12.772  12.460
12751SOL    HW240086   2.170  12.902  12.384
12752SOL     OW40087   9.888   3.616  12.939
12752SOL    HW140088   9.954   3.679  12.971
12752SOL    HW240089   9.935   3.560  12.878
12753SOL     OW40090   5.568   7.242   6.359
12753SOL    HW140091   5.542   7.328   6.393
12753SOL    HW240092   5.650   7.222   6.404
12754SOL     OW40093   1.697   2.259  12.593
12754SOL    HW140094   1.740   2.282  12.511
12754SOL    HW240095   1.606   2.286  12.580
12755SOL     OW40096   9.794   7.464   6.594
12755SOL    HW140097   9.775   7.370   6.593
12755SOL    HW240098   9.714   7.505   6.559
12756SOL     OW40099  10.258   7.393  11.259
12756SOL    HW140100  10.299   7.473  11.293
12756SOL    HW240101  10.290   7.324  11.316
12757SOL     OW40102   7.428   4.604   6.094
12757SOL    HW140103   7.452   4.684   6.047
12757SOL    HW240104   7.353   4.570   6.046
12758SOL     OW40105   5.111  14.287  11.365
12758SOL    HW140106   5.180  14.349  11.389
12758SOL    HW240107   5.100  14.299  11.271
12759SOL     OW40108   3.821  10.008   0.392
12759SOL    HW140109   3.754  10.013   0.459
12759SOL    HW240110   3.862   9.922   0.404
12760SOL     OW40111   9.311   5.089   1.856
12760SOL    HW140112   9.375   5.021   1.838
12760SOL    HW240113   9.236   5.066   1.802
12761SOL     OW40114   9.481   4.478   2.759
12761SOL    HW140115   9.486   4.401   2.703
12761SOL    HW240116   9.461   4.550   2.700
12762SOL     OW40117  13.901  12.775   1.510
12762SOL    HW140118  13.877  12.684   1.528
12762SOL    HW240119  13.936  12.774   1.421
12763SOL     OW40120   0.392  14.648  13.214
12763SOL    HW140121   0.332  14.612  13.280
12763SOL    HW240122   0.479  14.627  13.249
12764SOL     OW40123  11.438   7.363  13.204
12764SOL    HW140124  11.526   7.351  13.169
12764SOL    HW240125  11.438   7.314  13.286
12765SOL     OW40126   4.590  11.167  12.409
12765SOL    HW140127   4.631  11.170  12.322
12765SOL    HW240128   4.643  11.104  12.458
12766SOL     OW40129   9.902  12.124  13.897
12766SOL    HW140130   9.871  12.060  13.960
12766SOL    HW240131   9.859  12.100  13.815
12767SOL     OW40132   7.428   0.225  13.342
12767SOL    HW140133   7.513   0.228  13.385
12767SOL    HW240134   7.371   0.278  13.398
12768SOL     OW40135   5.450   9.267   7.870
12768SOL    HW140136   5.528   9.212   7.882
12768SOL    HW240137   5.449   9.286   7.776
12769SOL     OW40138   6.551   1.779   8.714
12769SOL    HW140139   6.464   1.778   8.674
12769SOL    HW240140   6.610   1.756   8.642
12770SOL     OW40141   2.339   8.720   1.910
12770SOL    HW140142   2.411   8.684   1.962
12770SOL    HW240143   2.338   8.813   1.932
12771SOL     OW40144   8.693   5.735  14.637
12771SOL    HW140145   8.663   5.713  14.725
12771SOL    HW240146   8.667   5.827  14.625
12772SOL     OW40147   3.514   7.586   7.334
12772SOL    HW140148   3.456   7.661   7.345
12772SOL    HW240149   3.489   7.549   7.250
12773SOL     OW40150   0.868   3.367   3.920
12773SOL    HW140151   0.774   3.378   3.929
12773SOL    HW240152   0.886   3.393   3.830
12774SOL     OW40153   7.877  11.969   5.101
12774SOL    HW140154   7.880  11.931   5.013
12774SOL    HW240155   7.787  11.956   5.130
12775SOL     OW40156  11.962  12.387  12.973
12775SOL    HW140157  11.885  12.425  12.930
12775SOL    HW240158  11.976  12.442  13.050
12776SOL     OW40159  13.060   5.333   6.341
12776SOL    HW140160  12.972   5.352   6.307
12776SOL    HW240161  13.047   5.325   6.435
12777SOL     OW40162   5.600   6.807   6.889
12777SOL    HW140163   5.585   6.873   6.822
12777SOL    HW240164   5.605   6.724   6.841
12778SOL     OW40165   5.742   4.815  10.594
12778SOL    HW140166   5.765   4.731  10.554
12778SOL    HW240167   5.649   4.807  10.615
12779SOL     OW40168  13.158  12.139   9.241
12779SOL    HW140169  13.236  12.122   9.293
12779SOL    HW240170  13.130  12.052   9.210
12780SOL     OW40171  12.453   7.619   0.282
12780SOL    HW140172  12.387   7.562   0.241
12780SOL    HW240173  12.481   7.677   0.211
12781SOL     OW40174   9.340   2.520   1.227
12781SOL    HW140175   9.384   2.602   1.205
12781SOL    HW240176   9.304   2.488   1.145
12782SOL     OW40177  14.349  13.048   2.837
12782SOL    HW140178  14.399  13.052   2.755
12782SOL    HW240179  14.343  13.139   2.865
12783SOL     OW40180   3.319   0.280   3.893
12783SOL    HW140181   3.249   0.291   3.829
12783SOL    HW240182   3.399   0.278   3.841
12784SOL     OW40183  11.125  13.383  11.321
12784SOL    HW140184  11.219  13.398  11.323
12784SOL    HW240185  11.087  13.464  11.357
12785SOL     OW40186   9.299   5.408  13.376
12785SOL    HW140187   9.336   5.426  13.289
12785SOL    HW240188   9.260   5.491  13.403
12786SOL     OW40189  11.250   3.052   7.510
12786SOL    HW140190  11.164   3.093   7.504
12786SOL    HW240191  11.310   3.125   7.528
12787SOL     OW40192   8.134  14.345   8.011
12787SOL    HW140193   8.164  14.412   8.073
12787SOL    HW240194   8.215  14.304   7.980
12788SOL     OW40195  13.965   6.362   7.406
12788SOL    HW140196  13.910   6.333   7.478
12788SOL    HW240197  13.961   6.291   7.342
12789SOL     OW40198   3.593   9.228  10.361
12789SOL    HW140199   3.681   9.258  10.384
12789SOL    HW240200   3.558   9.298  10.306
12790SOL     OW40201   4.653   0.395  10.230
12790SOL    HW140202   4.667   0.300  10.234
12790SOL    HW240203   4.732   0.430  10.189
12791SOL     OW40204   2.626   3.094  11.588
12791SOL    HW140205   2.711   3.055  11.604
12791SOL    HW240206   2.563   3.025  11.610
12792SOL     OW40207   2.565  11.007   2.035
12792SOL    HW140208   2.596  11.095   2.014
12792SOL    HW240209   2.475  11.005   2.005
12793SOL     OW40210  10.171   6.284   6.862
12793SOL    HW140211  10.130   6.261   6.946
12793SOL    HW240212  10.217   6.204   6.836
12794SOL     OW40213   0.405   5.911   6.596
12794SOL    HW140214   0.420   5.864   6.678
12794SOL    HW240215   0.371   5.996   6.623
12795SOL     OW40216   9.420  11.919  14.416
12795SOL    HW140217   9.422  12.014  14.413
12795SOL    HW240218   9.473  11.896  14.492
12796SOL     OW40219  14.232  11.977  12.445
12796SOL    HW140220  14.185  11.969  12.528
12796SOL    HW240221  14.317  11.936  12.462
12797SOL     OW40222   3.969   1.350  12.223
12797SOL    HW140223   3.918   1.411  12.277
12797SOL    HW240224   3.906   1.284  12.195
12798SOL     OW40225   0.610  10.948   6.470
12798SOL    HW140226   0.686  10.915   6.422
12798SOL    HW240227   0.534  10.907   6.427
12799SOL     OW40228   0.837   5.643   4.886
12799SOL    HW140229   0.862   5.555   4.915
12799SOL    HW240230   0.760   5.665   4.937
12800SOL     OW40231   4.120  13.890  13.094
12800SOL    HW140232   4.141  13.798  13.110
12800SOL    HW240233   4.139  13.934  13.177
12801SOL     OW40234   9.597   7.177   8.925
12801SOL    HW140235   9.522   7.119   8.914
12801SOL    HW240236   9.669   7.133   8.880
12802SOL     OW40237   4.628   8.684   9.255
12802SOL    HW140238   4.559   8.709   9.192
12802SOL    HW240239   4.625   8.589   9.257
12803SOL     OW40240   0.421   2.397   6.591
12803SOL    HW140241   0.380   2.477   6.623
12803SOL    HW240242   0.449   2.417   6.502
12804SOL     OW40243   2.930   1.695   3.988
12804SOL    HW140244   2.989   1.762   3.955
12804SOL    HW240245   2.940   1.621   3.928
12805SOL     OW40246   0.862  10.235   1.898
12805SOL    HW140247   0.949  10.258   1.930
12805SOL    HW240248   0.847  10.146   1.931
12806SOL     OW40249  12.784   7.738   1.073
12806SOL    HW140250  12.863   7.713   1.121
12806SOL    HW240251  12.810   7.813   1.020
12807SOL     OW40252  10.513  12.186   6.369
12807SOL    HW140253  10.464  12.214   6.446
12807SOL    HW240254  10.461  12.217   6.295
12808SOL     OW40255   2.249   1.457  12.326
12808SOL    HW140256   2.168   1.409  12.339
12808SOL    HW240257   2.298   1.444  12.408
12809SOL     OW40258   6.981   9.997   3.580
12809SOL    HW140259   6.964  10.066   3.515
12809SOL    HW240260   6.898   9.949   3.585
12810SOL     OW40261   5.386   6.907  13.462
12810SOL    HW140262   5.468   6.873  13.497
12810SOL    HW240263   5.350   6.835  13.411
12811SOL     OW40264   6.573  10.633   2.524
12811SOL    HW140265   6.556  10.538   2.528
12811SOL    HW240266   6.618  10.646   2.441
12812SOL     OW40267   8.076   4.662   5.249
12812SOL    HW140268   8.074   4.737   5.309
12812SOL    HW240269   8.168   4.648   5.231
12813SOL     OW40270   3.931   8.388   7.880
12813SOL    HW140271   3.988   8.465   7.883
12813SOL    HW240272   3.882   8.397   7.798
12814SOL     OW40273   5.604   7.425  13.419
12814SOL    HW140274   5.509   7.432  13.424
12814SOL    HW240275   5.622   7.332  13.431
12815SOL     OW40276   9.164  11.927   2.371
12815SOL    HW140277   9.183  11.851   2.317
12815SOL    HW240278   9.072  11.948   2.352
12816SOL     OW40279   4.754   3.202   6.489
12816SOL    HW140280   4.681   3.222   6.548
12816SOL    HW240281   4.831   3.241   6.533
12817SOL     OW40282  13.404   3.191   7.364
12817SOL    HW140283  13.423   3.217   7.454
12817SOL    HW240284  13.465   3.242   7.311
12818SOL     OW40285   2.954   4.359   7.586
12818SOL    HW140286   2.912   4.274   7.602
12818SOL    HW240287   2.900   4.422   7.633
12819SOL     OW40288  12.381   5.421   8.754
12819SOL    HW140289  12.451   5.372   8.798
12819SOL    HW240290  12.301   5.390   8.796
12820SOL     OW40291   2.817   5.333   1.367
12820SOL    HW140292   2.841   5.256   1.315
12820SOL    HW240293   2.774   5.392   1.305
12821SOL     OW40294   2.891  13.679  14.640
12821SOL    HW140295   2.977  13.655  14.607
12821SOL    HW240296   2.887  13.641  14.728
12822SOL     OW40297   4.383   7.449   1.878
12822SOL    HW140298   4.456   7.389   1.888
12822SOL    HW240299   4.418   7.534   1.903
12823SOL     OW40300  11.907   5.472   0.647
12823SOL    HW140301  11.978   5.428   0.693
12823SOL    HW240302  11.853   5.400   0.612
12824SOL     OW40303  14.383   3.236   4.898
12824SOL    HW140304  14.326   3.310   4.919
12824SOL    HW240305  14.344   3.197   4.819
12825SOL     OW40306   6.582   0.627   7.063
12825SOL    HW140307   6.524   0.572   7.115
12825SOL    HW240308   6.550   0.617   6.973
12826SOL     OW40309  13.041  13.298  11.770
12826SOL    HW140310  13.034  13.393  11.778
12826SOL    HW240311  13.106  13.284  11.701
12827SOL     OW40312  13.997   1.409   7.758
12827SOL    HW140313  13.976   1.374   7.844
12827SOL    HW240314  13.915   1.403   7.709
12828SOL     OW40315   3.754   7.408   3.959
12828SOL    HW140316   3.729   7.461   3.884
12828SOL    HW240317   3.821   7.459   4.004
12829SOL     OW40318   8.753   8.045   4.480
12829SOL    HW140319   8.776   8.112   4.544
12829SOL    HW240320   8.716   7.973   4.531
12830SOL     OW40321  11.731   5.924   8.160
12830SOL    HW140322  11.722   5.850   8.220
12830SOL    HW240323  11.659   5.983   8.183
12831SOL     OW40324  11.357   6.338   2.058
12831SOL    HW140325  11.327   6.294   2.137
12831SOL    HW240326  11.438   6.381   2.084
12832SOL     OW40327   5.750  13.884  14.860
12832SOL    HW140328   5.757  13.828   0.056
12832SOL    HW240329   5.841  13.899  14.834
12833SOL     OW40330   9.533   9.976   8.239
12833SOL    HW140331   9.617  10.007   8.204
12833SOL    HW240332   9.476   9.968   8.162
12834SOL     OW40333   7.969   6.964  12.120
12834SOL    HW140334   8.030   7.035  12.138
12834SOL    HW240335   7.959   6.965  12.024
12835SOL     OW40336  14.395   0.555   9.309
12835SOL    HW140337  14.303   0.554   9.336
12835SOL    HW240338  14.393   0.594   9.221
12836SOL     OW40339   2.329   5.358  10.115
12836SOL    HW140340   2.295   5.421  10.051
12836SOL    HW240341   2.422   5.350  10.094
12837SOL     OW40342  10.211   7.928  13.384
12837SOL    HW140343  10.171   7.944  13.469
12837SOL    HW240344  10.140   7.938  13.321
12838SOL     OW40345  11.997   5.824  13.155
12838SOL    HW140346  12.047   5.900  13.184
12838SOL    HW240347  12.061   5.768  13.110
12839SOL     OW40348  11.995   3.819   3.944
12839SOL    HW140349  11.929   3.830   4.013
12839SOL    HW240350  11.946   3.781   3.870
12840SOL     OW40351  11.919   2.662   8.524
12840SOL    HW140352  11.869   2.672   8.605
12840SOL    HW240353  11.935   2.568   8.516
12841SOL     OW40354   5.085   8.380   0.914
12841SOL    HW140355   5.119   8.353   0.829
12841SOL    HW240356   5.063   8.472   0.903
12842SOL     OW40357   2.689   2.449   7.711
12842SOL    HW140358   2.609   2.470   7.663
12842SOL    HW240359   2.715   2.532   7.751
12843SOL     OW40360  13.287   6.899   6.569
12843SOL    HW140361  13.239   6.819   6.547
12843SOL    HW240362  13.370   6.868   6.604
12844SOL     OW40363   1.475  14.487   8.503
12844SOL    HW140364   1.452  14.580   8.495
12844SOL    HW240365   1.395  14.440   8.480
12845SOL     OW40366   5.681   8.296   8.072
12845SOL    HW140367   5.588   8.311   8.090
12845SOL    HW240368   5.696   8.338   7.987
12846SOL     OW40369  10.626   0.789   2.308
12846SOL    HW140370  10.646   0.882   2.306
12846SOL    HW240371  10.619   0.764   2.215
12847SOL     OW40372   2.406   4.226   8.081
12847SOL    HW140373   2.386   4.231   7.987
12847SOL    HW240374   2.501   4.216   8.084
12848SOL     OW40375  13.776   8.152   7.840
12848SOL    HW140376  13.798   8.135   7.931
12848SOL    HW240377  13.858   8.183   7.801
12849SOL     OW40378   5.417  13.500   5.469
12849SOL    HW140379   5.381  13.473   5.554
12849SOL    HW240380   5.392  13.592   5.460
12850SOL     OW40381   7.887   0.254   7.360
12850SOL    HW140382   7.799   0.278   7.332
12850SOL    HW240383   7.896   0.294   7.447
12851SOL     OW40384   8.923   5.298   5.600
12851SOL    HW140385   8.916   5.342   5.685
12851SOL    HW240386   8.915   5.369   5.536
12852SOL     OW40387   0.441   5.808  14.713
12852SOL    HW140388   0.416   5.767  14.795
12852SOL    HW240389   0.455   5.734  14.653
12853SOL     OW40390  13.865  13.960   5.025
12853SOL    HW140391  13.889  14.028   4.962
12853SOL    HW240392  13.945  13.909   5.036
12854SOL     OW40393   4.822   9.030   0.736
12854SOL    HW140394   4.788   8.946   0.767
12854SOL    HW240395   4.746   9.088   0.737
12855SOL     OW40396  11.052  13.465  14.668
12855SOL    HW140397  11.059  13.372  14.646
12855SOL    HW240398  10.962  13.489  14.645
12856SOL     OW40399   4.696   4.668   3.288
12856SOL    HW140400   4.642   4.677   3.209
12856SOL    HW240401   4.772   4.724   3.269
12857SOL     OW40402   4.442   4.048   6.319
12857SOL    HW140403   4.450   4.029   6.226
12857SOL    HW240404   4.381   3.982   6.353
12858SOL     OW40405   5.457   8.356   5.742
12858SOL    HW140406   5.523   8.306   5.694
12858SOL    HW240407   5.435   8.302   5.817
12859SOL     OW40408   2.436   1.845   2.105
12859SOL    HW140409   2.429   1.929   2.149
12859SOL    HW240410   2.527   1.819   2.115
12860SOL     OW40411   9.217  11.004   1.377
12860SOL    HW140412   9.185  11.094   1.368
12860SOL    HW240413   9.308  11.014   1.406
12861SOL     OW40414   8.378   6.178  13.035
12861SOL    HW140415   8.340   6.266  13.028
12861SOL    HW240416   8.363   6.139  12.949
12862SOL     OW40417  13.300  14.224   2.758
12862SOL    HW140418  13.226  14.181   2.799
12862SOL    HW240419  13.364  14.235   2.828
12863SOL     OW40420  12.361   6.134   8.975
12863SOL    HW140421  12.281   6.081   8.980
12863SOL    HW240422  12.337   6.208   8.919
12864SOL     OW40423  10.305  11.600  14.141
12864SOL    HW140424  10.244  11.574  14.072
12864SOL    HW240425  10.354  11.520  14.161
12865SOL     OW40426   5.051  11.908  14.165
12865SOL    HW140427   5.004  11.850  14.225
12865SOL    HW240428   5.141  11.874  14.164
12866SOL     OW40429  11.665   3.539   8.872
12866SOL    HW140430  11.715   3.548   8.791
12866SOL    HW240431  11.718   3.481   8.927
12867SOL     OW40432  10.466   3.142   2.412
12867SOL    HW140433  10.551   3.110   2.442
12867SOL    HW240434  10.413   3.063   2.403
12868SOL     OW40435  12.216   0.842   9.639
12868SOL    HW140436  12.191   0.857   9.730
12868SOL    HW240437  12.135   0.852   9.590
12869SOL     OW40438   8.175   0.467   8.391
12869SOL    HW140439   8.091   0.464   8.437
12869SOL    HW240440   8.157   0.515   8.310
12870SOL     OW40441   0.667   2.813   4.805
12870SOL    HW140442   0.747   2.842   4.763
12870SOL    HW240443   0.636   2.888   4.855
12871SOL     OW40444   1.475  10.940  14.814
12871SOL    HW140445   1.416  11.000  14.769
12871SOL    HW240446   1.532  10.906  14.745
12872SOL     OW40447   7.650  13.814   5.136
12872SOL    HW140448   7.577  13.752   5.136
12872SOL    HW240449   7.676  13.820   5.044
12873SOL     OW40450   5.054  10.737  10.277
12873SOL    HW140451   5.090  10.821  10.304
12873SOL    HW240452   5.008  10.704  10.354
12874SOL     OW40453   4.368  12.962   8.545
12874SOL    HW140454   4.441  12.998   8.495
12874SOL    HW240455   4.391  12.870   8.559
12875SOL     OW40456  12.587   4.625   7.207
12875SOL    HW140457  12.594   4.591   7.118
12875SOL    HW240458  12.527   4.566   7.251
12876SOL     OW40459   2.003   2.126   1.978
12876SOL    HW140460   2.020   2.060   2.045
12876SOL    HW240461   2.062   2.102   1.906
12877SOL     OW40462  13.722  12.712   4.991
12877SOL    HW140463  13.815  12.727   5.010
12877SOL    HW240464  13.711  12.617   4.996
12878SOL     OW40465   4.877   8.716   4.511
12878SOL    HW140466   4.948   8.691   4.569
12878SOL    HW240467   4.901   8.678   4.426
12879SOL     OW40468   4.900  11.872   6.351
12879SOL    HW140469   4.936  11.846   6.436
12879SOL    HW240470   4.813  11.905   6.371
12880SOL     OW40471  10.332   9.480   1.831
12880SOL    HW140472  10.288   9.554   1.790
12880SOL    HW240473  10.261   9.424   1.862
12881SOL     OW40474   0.513  11.571   5.998
12881SOL    HW140475   0.518  11.611   5.912
12881SOL    HW240476   0.534  11.478   5.983
12882SOL     OW40477   2.927  11.875   1.393
12882SOL    HW140478   2.971  11.960   1.398
12882SOL    HW240479   2.984  11.816   1.443
12883SOL     OW40480   6.637   2.035  13.201
12883SOL    HW140481   6.616   1.957  13.148
12883SOL    HW240482   6.648   2.001  13.290
12884SOL     OW40483   6.936   5.614   1.959
12884SOL    HW140484   6.855   5.576   1.927
12884SOL    HW240485   6.918   5.708   1.966
12885SOL     OW40486  11.532  13.502   6.214
12885SOL    HW140487  11.566  13.586   6.183
12885SOL    HW240488  11.474  13.524   6.287
12886SOL     OW40489  10.881   1.380   0.372
12886SOL    HW140490  10.841   1.437   0.437
12886SOL    HW240491  10.974   1.402   0.375
12887SOL     OW40492  11.427   0.721   9.229
12887SOL    HW140493  11.392   0.697   9.143
12887SOL    HW240494  11.358   0.693   9.290
12888SOL     OW40495   8.981   0.177  13.844
12888SOL    HW140496   8.961   0.204  13.754
12888SOL    HW240497   9.025   0.252  13.882
12889SOL     OW40498   1.497   7.051   0.695
12889SOL    HW140499   1.411   7.092   0.707
12889SOL    HW240500   1.532   7.043   0.784
12890SOL     OW40501   5.428  10.403   4.570
12890SOL    HW140502   5.502  10.346   4.591
12890SOL    HW240503   5.356  10.342   4.551
12891SOL     OW40504   5.318   6.594   6.890
12891SOL    HW140505   5.406   6.567   6.865
12891SOL    HW240506   5.306   6.560   6.978
12892SOL     OW40507   2.460  11.820  11.336
12892SOL    HW140508   2.440  11.757  11.267
12892SOL    HW240509   2.545  11.857  11.312
12893SOL     OW40510  13.859   4.575   5.562
12893SOL    HW140511  13.917   4.528   5.501
12893SOL    HW240512  13.797   4.508   5.592
12894SOL     OW40513   8.689   3.403   8.655
12894SOL    HW140514   8.616   3.353   8.692
12894SOL    HW240515   8.662   3.422   8.565
12895SOL     OW40516   8.969  10.719   9.834
12895SOL    HW140517   9.046  10.753   9.880
12895SOL    HW240518   8.931  10.796   9.790
12896SOL     OW40519   2.685   1.746   6.457
12896SOL    HW140520   2.706   1.839   6.459
12896SOL    HW240521   2.767   1.703   6.433
12897SOL     OW40522  12.254   9.913  11.139
12897SOL    HW140523  12.177   9.970  11.131
12897SOL    HW240524  12.240   9.845  11.073
12898SOL     OW40525  14.233   5.856  13.247
12898SOL    HW140526  14.288   5.935  13.253
12898SOL    HW240527  14.145   5.886  13.270
12899SOL     OW40528   1.965  12.821  11.804
12899SOL    HW140529   2.038  12.849  11.859
12899SOL    HW240530   1.959  12.726  11.819
12900SOL     OW40531   2.645   0.042   0.872
12900SOL    HW140532   2.691   0.031   0.789
12900SOL    HW240533   2.707   0.011   0.938
12901SOL     OW40534   9.757   8.412   2.427
12901SOL    HW140535   9.793   8.409   2.338
12901SOL    HW240536   9.794   8.491   2.465
12902SOL     OW40537   0.245   4.571  11.307
12902SOL    HW140538   0.288   4.494  11.270
12902SOL    HW240539   0.159   4.541  11.334
12903SOL     OW40540  11.611   5.481  14.609
12903SOL    HW140541  11.602   5.569  14.647
12903SOL    HW240542  11.648   5.496  14.523
12904SOL     OW40543  11.258   4.489  10.883
12904SOL    HW140544  11.299   4.407  10.911
12904SOL    HW240545  11.278   4.496  10.790
12905SOL     OW40546  12.916   6.365   2.405
12905SOL    HW140547  12.862   6.337   2.331
12905SOL    HW240548  12.973   6.433   2.368
12906SOL     OW40549   0.432   2.411   5.912
12906SOL    HW140550   0.402   2.340   5.855
12906SOL    HW240551   0.489   2.464   5.856
12907SOL     OW40552   2.275   6.310   0.798
12907SOL    HW140553   2.205   6.250   0.773
12907SOL    HW240554   2.355   6.268   0.767
12908SOL     OW40555   6.480   9.174  11.568
12908SOL    HW140556   6.455   9.244  11.507
12908SOL    HW240557   6.564   9.143  11.535
12909SOL     OW40558  10.119   6.906  11.362
12909SOL    HW140559  10.032   6.907  11.322
12909SOL    HW240560  10.102   6.926  11.455
12910SOL     OW40561  10.778   7.031  10.219
12910SOL    HW140562  10.733   7.039  10.304
12910SOL    HW240563  10.835   6.955  10.229
12911SOL     OW40564  13.230   1.595   8.915
12911SOL    HW140565  13.234   1.658   8.843
12911SOL    HW240566  13.255   1.512   8.876
12912SOL     OW40567  13.896   2.940   6.631
12912SOL    HW140568  13.931   2.946   6.542
12912SOL    HW240569  13.971   2.961   6.687
12913SOL     OW40570   5.029   9.289   6.093
12913SOL    HW140571   5.057   9.199   6.108
12913SOL    HW240572   5.107   9.333   6.061
12914SOL     OW40573   1.159   2.161  10.786
12914SOL    HW140574   1.176   2.254  10.773
12914SOL    HW240575   1.243   2.119  10.768
12915SOL     OW40576   0.550   0.854   1.183
12915SOL    HW140577   0.520   0.766   1.161
12915SOL    HW240578   0.585   0.846   1.272
12916SOL     OW40579  10.561   9.766  14.873
12916SOL    HW140580  10.589   9.699  14.810
12916SOL    HW240581  10.471   9.743   0.013
12917SOL     OW40582  12.517   5.974   4.980
12917SOL    HW140583  12.444   5.912   4.977
12917SOL    HW240584  12.583   5.932   5.036
12918SOL     OW40585  12.595  13.742   1.624
12918SOL    HW140586  12.500  13.752   1.618
12918SOL    HW240587  12.609  13.648   1.627
12919SOL     OW40588   5.554   3.982   6.242
12919SOL    HW140589   5.646   3.998   6.221
12919SOL    HW240590   5.522   3.929   6.170
12920SOL     OW40591   0.776   3.772  10.805
12920SOL    HW140592   0.717   3.808  10.739
12920SOL    HW240593   0.775   3.678  10.789
12921SOL     OW40594   7.102  12.797  11.420
12921SOL    HW140595   7.134  12.735  11.485
12921SOL    HW240596   7.133  12.762  11.336
12922SOL     OW40597   8.007   6.168   9.893
12922SOL    HW140598   7.966   6.241   9.938
12922SOL    HW240599   8.025   6.104   9.962
12923SOL     OW40600   1.876   7.429   2.396
12923SOL    HW140601   1.927   7.501   2.361
12923SOL    HW240602   1.918   7.408   2.479
12924SOL     OW40603  10.877   0.628   0.216
12924SOL    HW140604  10.958   0.583   0.191
12924SOL    HW240605  10.825   0.561   0.260
12925SOL     OW40606   8.289   8.830   0.538
12925SOL    HW140607   8.329   8.783   0.611
12925SOL    HW240608   8.268   8.916   0.574
12926SOL     OW40609   2.550  12.832   4.853
12926SOL    HW140610   2.480  12.892   4.827
12926SOL    HW240611   2.565  12.778   4.776
12927SOL     OW40612   5.316   3.373  13.162
12927SOL    HW140613   5.385   3.404  13.103
12927SOL    HW240614   5.251   3.443  13.160
12928SOL     OW40615   8.148   9.481  10.974
12928SOL    HW140616   8.172   9.442  10.890
12928SOL    HW240617   8.054   9.465  10.982
12929SOL     OW40618  12.415   6.653  13.448
12929SOL    HW140619  12.500   6.623  13.415
12929SOL    HW240620  12.419   6.748  13.437
12930SOL     OW40621   5.535  12.214   3.060
12930SOL    HW140622   5.553  12.209   2.966
12930SOL    HW240623   5.441  12.233   3.065
12931SOL     OW40624   2.458  14.654   2.291
12931SOL    HW140625   2.500  14.700   2.364
12931SOL    HW240626   2.513  14.577   2.276
12932SOL     OW40627  12.872   2.794   5.114
12932SOL    HW140628  12.967   2.778   5.120
12932SOL    HW240629  12.834   2.732   5.177
12933SOL     OW40630   8.742   7.141  14.524
12933SOL    HW140631   8.788   7.062  14.494
12933SOL    HW240632   8.812   7.203  14.544
12934SOL     OW40633   0.606  11.919   6.427
12934SOL    HW140634   0.658  11.994   6.400
12934SOL    HW240635   0.632  11.849   6.368
12935SOL     OW40636   5.769   6.643  11.915
12935SOL    HW140637   5.707   6.711  11.939
12935SOL    HW240638   5.716   6.564  11.907
12936SOL     OW40639   0.314   3.062   2.439
12936SOL    HW140640   0.271   3.070   2.354
12936SOL    HW240641   0.407   3.070   2.420
12937SOL     OW40642   3.022   6.719   5.617
12937SOL    HW140643   3.107   6.694   5.580
12937SOL    HW240644   3.011   6.811   5.594
12938SOL     OW40645   0.939  10.411  12.917
12938SOL    HW140646   0.951  10.495  12.962
12938SOL    HW240647   1.004  10.354  12.956
12939SOL     OW40648   7.059   6.440   5.173
12939SOL    HW140649   7.056   6.407   5.083
12939SOL    HW240650   6.991   6.507   5.176
12940SOL     OW40651  10.194   4.706  10.082
12940SOL    HW140652  10.279   4.666  10.063
12940SOL    HW240653  10.138   4.678  10.010
12941SOL     OW40654   4.375   4.658   0.326
12941SOL    HW140655   4.414   4.675   0.412
12941SOL    HW240656   4.281   4.666   0.340
12942SOL     OW40657   4.793   9.926   8.559
12942SOL    HW140658   4.839   9.887   8.485
12942SOL    HW240659   4.716   9.871   8.572
12943SOL     OW40660  11.536   9.816   1.469
12943SOL    HW140661  11.568   9.822   1.558
12943SOL    HW240662  11.449   9.857   1.472
12944SOL     OW40663   4.817   9.503   9.318
12944SOL    HW140664   4.766   9.429   9.350
12944SOL    HW240665   4.904   9.491   9.357
12945SOL     OW40666   1.701  10.775   7.696
12945SOL    HW140667   1.638  10.770   7.624
12945SOL    HW240668   1.750  10.855   7.680
12946SOL     OW40669  14.011   2.287  11.120
12946SOL    HW140670  13.951   2.216  11.144
12946SOL    HW240671  14.052   2.313  11.203
12947SOL     OW40672   2.248   9.273   1.814
12947SOL    HW140673   2.201   9.247   1.734
12947SOL    HW240674   2.282   9.360   1.795
12948SOL     OW40675   2.212   9.423  13.321
12948SOL    HW140676   2.217   9.507  13.275
12948SOL    HW240677   2.208   9.446  13.414
12949SOL     OW40678   8.008   1.007  10.485
12949SOL    HW140679   7.939   0.941  10.473
12949SOL    HW240680   7.992   1.041  10.573
12950SOL     OW40681   5.061   8.689   4.742
12950SOL    HW140682   5.134   8.711   4.800
12950SOL    HW240683   5.025   8.608   4.778
12951SOL     OW40684  14.054   9.829   0.331
12951SOL    HW140685  14.094   9.899   0.383
12951SOL    HW240686  14.071   9.749   0.381
12952SOL     OW40687   5.923  14.522   5.331
12952SOL    HW140688   5.873  14.577   5.271
12952SOL    HW240689   5.976  14.467   5.274
12953SOL     OW40690   8.387   1.899   1.879
12953SOL    HW140691   8.447   1.970   1.859
12953SOL    HW240692   8.441   1.820   1.872
12954SOL     OW40693   1.306  13.665   3.586
12954SOL    HW140694   1.273  13.577   3.573
12954SOL    HW240695   1.256  13.698   3.661
12955SOL     OW40696  11.852  12.698  11.696
12955SOL    HW140697  11.845  12.792  11.712
12955SOL    HW240698  11.794  12.681  11.622
12956SOL     OW40699   0.981   1.211  10.525
12956SOL    HW140700   0.966   1.305  10.535
12956SOL    HW240701   0.942   1.190  10.440
12957SOL     OW40702   0.578   3.071  11.922
12957SOL    HW140703   0.618   3.120  11.850
12957SOL    HW240704   0.652   3.030  11.966
12958SOL     OW40705   0.791   4.382   7.423
12958SOL    HW140706   0.714   4.409   7.472
12958SOL    HW240707   0.865   4.401   7.480
12959SOL     OW40708  14.345   1.958  11.900
12959SOL    HW140709  14.266   1.974  11.849
12959SOL    HW240710  14.371   1.869  11.877
12960SOL     OW40711   7.203   1.955   8.171
12960SOL    HW140712   7.160   1.870   8.166
12960SOL    HW240713   7.198   1.978   8.264
12961SOL     OW40714   0.492   0.870   8.834
12961SOL    HW140715   0.416   0.926   8.846
12961SOL    HW240716   0.565   0.919   8.872
12962SOL     OW40717  10.020   2.850  13.525
12962SOL    HW140718   9.997   2.778  13.584
12962SOL    HW240719  10.021   2.928  13.581
12963SOL     OW40720  11.839  11.740   6.928
12963SOL    HW140721  11.785  11.706   6.999
12963SOL    HW240722  11.777  11.769   6.861
12964SOL     OW40723   4.062  10.905   5.521
12964SOL    HW140724   4.082  10.977   5.581
12964SOL    HW240725   3.969  10.886   5.536
12965SOL     OW40726  14.543   9.850   9.834
12965SOL    HW140727  14.612   9.785   9.832
12965SOL    HW240728  14.573   9.916   9.896
12966SOL     OW40729  10.018  14.528  11.536
12966SOL    HW140730   9.975  14.457  11.489
12966SOL    HW240731   9.947  14.590  11.556
12967SOL     OW40732   7.633   2.713   8.746
12967SOL    HW140733   7.674   2.799   8.757
12967SOL    HW240734   7.540   2.733   8.731
12968SOL     OW40735   7.471   8.965   9.767
12968SOL    HW140736   7.541   8.970   9.701
12968SOL    HW240737   7.422   9.046   9.756
12969SOL     OW40738   5.742   2.955  11.293
12969SOL    HW140739   5.685   3.007  11.236
12969SOL    HW240740   5.811   2.923  11.235
12970SOL     OW40741   9.506  14.437   1.413
12970SOL    HW140742   9.552  14.409   1.492
12970SOL    HW240743   9.455  14.513   1.440
12971SOL     OW40744  12.823  13.956   3.588
12971SOL    HW140745  12.849  13.976   3.497
12971SOL    HW240746  12.752  13.894   3.579
12972SOL     OW40747   4.629   3.901   4.454
12972SOL    HW140748   4.691   3.849   4.504
12972SOL    HW240749   4.674   3.920   4.372
12973SOL     OW40750   9.990   8.471   9.408
12973SOL    HW140751   9.993   8.546   9.467
12973SOL    HW240752   9.918   8.417   9.442
12974SOL     OW40753   7.675   4.964   8.153
12974SOL    HW140754   7.671   4.953   8.058
12974SOL    HW240755   7.768   4.971   8.172
12975SOL     OW40756   0.445  14.373  13.757
12975SOL    HW140757   0.427  14.303  13.820
12975SOL    HW240758   0.458  14.327  13.674
12976SOL     OW40759   5.644   3.282   9.664
12976SOL    HW140760   5.717   3.331   9.702
12976SOL    HW240761   5.574   3.291   9.728
12977SOL     OW40762   7.205  14.870   7.638
12977SOL    HW140763   7.204  14.788   7.687
12977SOL    HW240764   7.206  14.843   7.546
12978SOL     OW40765   9.871   0.354   9.464
12978SOL    HW140766   9.861   0.359   9.559
12978SOL    HW240767   9.960   0.384   9.447
12979SOL     OW40768   8.484   0.770   0.233
12979SOL    HW140769   8.559   0.713   0.215
12979SOL    HW240770   8.499   0.803   0.321
12980SOL     OW40771   7.888  12.820  14.790
12980SOL    HW140772   7.962  12.852  14.842
12980SOL    HW240773   7.916  12.834  14.699
12981SOL     OW40774   5.026  11.673  11.551
12981SOL    HW140775   5.077  11.733  11.497
12981SOL    HW240776   4.945  11.720  11.568
12982SOL     OW40777  11.463   9.312   2.113
12982SOL    HW140778  11.486   9.404   2.124
12982SOL    HW240779  11.536   9.264   2.153
12983SOL     OW40780   6.450  10.062   9.179
12983SOL    HW140781   6.374  10.041   9.234
12983SOL    HW240782   6.456  10.157   9.181
12984SOL     OW40783  11.154  12.126   1.575
12984SOL    HW140784  11.117  12.127   1.664
12984SOL    HW240785  11.081  12.153   1.519
12985SOL     OW40786   7.053   7.282   1.374
12985SOL    HW140787   7.017   7.340   1.308
12985SOL    HW240788   7.062   7.197   1.330
12986SOL     OW40789   9.889   8.110   9.270
12986SOL    HW140790   9.979   8.133   9.295
12986SOL    HW240791   9.856   8.060   9.344
12987SOL     OW40792  11.924  11.223  12.467
12987SOL    HW140793  11.966  11.165  12.404
12987SOL    HW240794  11.831  11.215  12.450
12988SOL     OW40795   9.626  12.903  14.597
12988SOL    HW140796   9.680  12.836  14.639
12988SOL    HW240797   9.602  12.962  14.667
12989SOL     OW40798  10.795   5.269   4.964
12989SOL    HW140799  10.842   5.205   4.910
12989SOL    HW240800  10.864   5.324   5.000
12990SOL     OW40801   9.744   6.682   4.974
12990SOL    HW140802   9.718   6.759   5.025
12990SOL    HW240803   9.668   6.664   4.918
12991SOL     OW40804   4.528   7.179   6.498
12991SOL    HW140805   4.540   7.273   6.511
12991SOL    HW240806   4.504   7.146   6.585
12992SOL     OW40807  14.754   0.132  10.695
12992SOL    HW140808  14.791   0.165  10.613
12992SOL    HW240809  14.792   0.044  10.705
12993SOL     OW40810   8.383   0.227  12.610
12993SOL    HW140811   8.366   0.194  12.523
12993SOL    HW240812   8.427   0.155  12.656
12994SOL     OW40813   3.582   9.618   6.969
12994SOL    HW140814   3.591   9.596   7.061
12994SOL    HW240815   3.547   9.539   6.928
12995SOL     OW40816   0.560   2.390   7.685
12995SOL    HW140817   0.547   2.318   7.623
12995SOL    HW240818   0.629   2.359   7.743
12996SOL     OW40819   0.985   9.487  14.344
12996SOL    HW140820   0.939   9.405  14.359
12996SOL    HW240821   1.034   9.473  14.262
12997SOL     OW40822   0.779  11.304   5.338
12997SOL    HW140823   0.754  11.305   5.245
12997SOL    HW240824   0.706  11.259   5.381
12998SOL     OW40825  14.668   0.854   6.763
12998SOL    HW140826  14.665   0.894   6.676
12998SOL    HW240827  14.668   0.760   6.747
12999SOL     OW40828  10.002   0.814  11.296
12999SOL    HW140829   9.909   0.794  11.308
12999SOL    HW240830  10.046   0.729  11.300
13000SOL     OW40831   0.884   2.360   3.418
13000SOL    HW140832   0.921   2.427   3.476
13000SOL    HW240833   0.949   2.350   3.349
13001SOL     OW40834  12.989   0.143  10.725
13001SOL    HW140835  12.920   0.192  10.681
13001SOL    HW240836  13.069   0.168  10.678
13002SOL     OW40837  12.048   2.731   0.454
13002SOL    HW140838  12.078   2.769   0.372
13002SOL    HW240839  12.105   2.769   0.521
13003SOL     OW40840   5.938   8.951   5.900
13003SOL    HW140841   5.964   8.897   5.974
13003SOL    HW240842   6.007   8.937   5.835
13004SOL     OW40843  12.130   3.352   3.628
13004SOL    HW140844  12.073   3.356   3.551
13004SOL    HW240845  12.172   3.266   3.621
13005SOL     OW40846   2.373  12.421   7.147
13005SOL    HW140847   2.299  12.390   7.094
13005SOL    HW240848   2.427  12.343   7.161
13006SOL     OW40849  11.955   3.376   5.933
13006SOL    HW140850  11.976   3.338   5.848
13006SOL    HW240851  11.974   3.307   5.997
13007SOL     OW40852   9.757   5.041   8.888
13007SOL    HW140853   9.765   4.992   8.970
13007SOL    HW240854   9.731   4.976   8.823
13008SOL     OW40855   2.768   3.824   2.234
13008SOL    HW140856   2.742   3.886   2.165
13008SOL    HW240857   2.740   3.739   2.200
13009SOL     OW40858   9.274  10.675  14.227
13009SOL    HW140859   9.303  10.690  14.138
13009SOL    HW240860   9.238  10.586  14.226
13010SOL     OW40861  10.361  11.782  11.137
13010SOL    HW140862  10.321  11.710  11.088
13010SOL    HW240863  10.448  11.791  11.100
13011SOL     OW40864  12.828   4.329   5.914
13011SOL    HW140865  12.811   4.346   5.821
13011SOL    HW240866  12.777   4.251   5.935
13012SOL     OW40867   6.339   5.357  14.110
13012SOL    HW140868   6.345   5.379  14.017
13012SOL    HW240869   6.360   5.264  14.114
13013SOL     OW40870   7.114   7.040   5.245
13013SOL    HW140871   7.114   7.038   5.150
13013SOL    HW240872   7.026   7.072   5.268
13014SOL     OW40873  14.602  12.700  12.390
13014SOL    HW140874  14.617  12.606  12.388
13014SOL    HW240875  14.588  12.720  12.483
13015SOL     OW40876  12.866   4.351   5.500
13015SOL    HW140877  12.952   4.339   5.460
13015SOL    HW240878  12.848   4.268   5.545
13016SOL     OW40879   9.599  12.565  12.203
13016SOL    HW140880   9.634  12.582  12.115
13016SOL    HW240881   9.651  12.620  12.261
13017SOL     OW40882   9.400  13.649   1.046
13017SOL    HW140883   9.404  13.591   0.970
13017SOL    HW240884   9.329  13.615   1.100
13018SOL     OW40885   5.050   3.301  14.603
13018SOL    HW140886   5.127   3.313  14.660
13018SOL    HW240887   5.024   3.210  14.617
13019SOL     OW40888   4.255   8.889  11.875
13019SOL    HW140889   4.329   8.942  11.846
13019SOL    HW240890   4.186   8.907  11.811
13020SOL     OW40891   7.861  12.492   7.571
13020SOL    HW140892   7.858  12.450   7.657
13020SOL    HW240893   7.943  12.461   7.532
13021SOL     OW40894  12.073  10.219   5.608
13021SOL    HW140895  12.042  10.252   5.524
13021SOL    HW240896  12.166  10.243   5.610
13022SOL     OW40897   9.093  10.472   1.317
13022SOL    HW140898   9.083  10.505   1.406
13022SOL    HW240899   9.178  10.429   1.316
13023SOL     OW40900   8.759  14.553   4.668
13023SOL    HW140901   8.760  14.589   4.579
13023SOL    HW240902   8.845  14.575   4.704
13024SOL     OW40903   9.510  13.114   3.709
13024SOL    HW140904   9.452  13.056   3.758
13024SOL    HW240905   9.587  13.124   3.766
13025SOL     OW40906  11.254   7.303  10.985
13025SOL    HW140907  11.202   7.279  10.908
13025SOL    HW240908  11.323   7.236  10.989
13026SOL     OW40909  13.759  10.272  11.444
13026SOL    HW140910  13.744  10.352  11.394
13026SOL    HW240911  13.692  10.211  11.413
13027SOL     OW40912  10.072   9.310   9.883
13027SOL    HW140913   9.980   9.316   9.861
13027SOL    HW240914  10.092   9.393   9.927
13028SOL     OW40915   9.815  14.358  11.421
13028SOL    HW140916   9.744  14.302  11.452
13028SOL    HW240917   9.775  14.409  11.350
13029SOL     OW40918  10.238  13.753   6.796
13029SOL    HW140919  10.239  13.835   6.747
13029SOL    HW240920  10.300  13.767   6.868
13030SOL     OW40921   4.109   4.405  10.710
13030SOL    HW140922   4.124   4.391  10.617
13030SOL    HW240923   4.060   4.486  10.714
13031SOL     OW40924   3.354   6.902   2.758
13031SOL    HW140925   3.421   6.835   2.752
13031SOL    HW240926   3.297   6.887   2.683
13032SOL     OW40927  10.932   5.647  13.537
13032SOL    HW140928  10.894   5.603  13.613
13032SOL    HW240929  10.946   5.737  13.565
13033SOL     OW40930   4.469   7.420  14.638
13033SOL    HW140931   4.516   7.337  14.653
13033SOL    HW240932   4.420   7.434  14.719
13034SOL     OW40933  11.902   6.794   8.355
13034SOL    HW140934  11.871   6.883   8.339
13034SOL    HW240935  11.826   6.748   8.392
13035SOL     OW40936   1.763   6.058  10.519
13035SOL    HW140937   1.753   6.125  10.451
13035SOL    HW240938   1.807   5.985  10.475
13036SOL     OW40939   5.493   5.164  12.908
13036SOL    HW140940   5.482   5.120  12.992
13036SOL    HW240941   5.405   5.169  12.871
13037SOL     OW40942  12.726   9.024  14.128
13037SOL    HW140943  12.735   9.115  14.155
13037SOL    HW240944  12.636   9.001  14.155
13038SOL     OW40945  14.385   3.275  12.430
13038SOL    HW140946  14.456   3.247  12.373
13038SOL    HW240947  14.428   3.310  12.508
13039SOL     OW40948   0.757  12.892  14.277
13039SOL    HW140949   0.781  12.981  14.302
13039SOL    HW240950   0.749  12.845  14.360
13040SOL     OW40951   4.864   2.912   3.955
13040SOL    HW140952   4.844   2.822   3.981
13040SOL    HW240953   4.778   2.952   3.941
13041SOL     OW40954   6.442  11.083   5.691
13041SOL    HW140955   6.489  11.079   5.774
13041SOL    HW240956   6.351  11.064   5.714
13042SOL     OW40957   3.017   7.014   3.812
13042SOL    HW140958   3.077   7.031   3.886
13042SOL    HW240959   2.930   7.011   3.852
13043SOL     OW40960   0.320   5.491   1.367
13043SOL    HW140961   0.389   5.549   1.335
13043SOL    HW240962   0.250   5.499   1.303
13044SOL     OW40963   6.381   4.173   0.304
13044SOL    HW140964   6.419   4.245   0.353
13044SOL    HW240965   6.454   4.112   0.289
13045SOL     OW40966  14.822   0.070   7.423
13045SOL    HW140967  14.748   0.045   7.478
13045SOL    HW240968   0.004  14.881   7.434
13046SOL     OW40969  12.356   3.551  10.307
13046SOL    HW140970  12.320   3.639  10.302
13046SOL    HW240971  12.428   3.550  10.244
13047SOL     OW40972   1.143  10.483   0.797
13047SOL    HW140973   1.052  10.514   0.791
13047SOL    HW240974   1.138  10.407   0.855
13048SOL     OW40975   0.343   7.989   2.392
13048SOL    HW140976   0.383   8.074   2.374
13048SOL    HW240977   0.345   7.980   2.487
13049SOL     OW40978  10.057   0.934   9.460
13049SOL    HW140979  10.062   1.006   9.524
13049SOL    HW240980  10.090   0.858   9.508
13050SOL     OW40981  13.072   2.413  12.076
13050SOL    HW140982  13.045   2.440  12.163
13050SOL    HW240983  13.077   2.318  12.080
13051SOL     OW40984  12.420  14.857  10.074
13051SOL    HW140985  12.401   0.069  10.068
13051SOL    HW240986  12.385  14.821   9.993
13052SOL     OW40987   5.591   6.417  11.031
13052SOL    HW140988   5.612   6.332  11.070
13052SOL    HW240989   5.672   6.467  11.039
13053SOL     OW40990   1.574   8.224   3.342
13053SOL    HW140991   1.665   8.227   3.313
13053SOL    HW240992   1.571   8.155   3.409
13054SOL     OW40993  10.144  13.321   8.987
13054SOL    HW140994  10.199  13.318   8.909
13054SOL    HW240995  10.055  13.304   8.955
13055SOL     OW40996   8.661   7.695  10.887
13055SOL    HW140997   8.625   7.783  10.880
13055SOL    HW240998   8.604   7.641  10.833
13056SOL     OW40999  13.309  13.588   9.508
13056SOL    HW141000  13.364  13.530   9.560
13056SOL    HW241001  13.231  13.601   9.563
13057SOL     OW41002  11.475   6.365  13.467
13057SOL    HW141003  11.388   6.345  13.432
13057SOL    HW241004  11.513   6.280  13.486
13058SOL     OW41005  12.321  13.185   0.483
13058SOL    HW141006  12.242  13.228   0.515
13058SOL    HW241007  12.290  13.105   0.441
13059SOL     OW41008   8.223   2.597  12.465
13059SOL    HW141009   8.310   2.601  12.425
13059SOL    HW241010   8.167   2.558  12.397
13060SOL     OW41011   0.355   0.920  12.640
13060SOL    HW141012   0.348   1.008  12.676
13060SOL    HW241013   0.279   0.911  12.583
13061SOL     OW41014  11.984   4.570  11.500
13061SOL    HW141015  11.914   4.634  11.492
13061SOL    HW241016  11.994   4.534  11.412
13062SOL     OW41017   9.440   1.241  14.424
13062SOL    HW141018   9.528   1.279  14.428
13062SOL    HW241019   9.388   1.295  14.483
13063SOL     OW41020   9.517  11.206  14.180
13063SOL    HW141021   9.524  11.229  14.272
13063SOL    HW241022   9.583  11.259  14.136
13064SOL     OW41023  13.495   9.568  11.109
13064SOL    HW141024  13.557   9.513  11.157
13064SOL    HW241025  13.416   9.565  11.162
13065SOL     OW41026   6.693   2.546   9.879
13065SOL    HW141027   6.689   2.594   9.796
13065SOL    HW241028   6.649   2.603   9.942
13066SOL     OW41029   8.903   0.223   1.416
13066SOL    HW141030   8.850   0.256   1.489
13066SOL    HW241031   8.976   0.178   1.458
13067SOL     OW41032   8.395   5.295   4.376
13067SOL    HW141033   8.450   5.354   4.428
13067SOL    HW241034   8.432   5.299   4.288
13068SOL     OW41035   3.879   9.218   2.871
13068SOL    HW141036   3.936   9.278   2.824
13068SOL    HW241037   3.816   9.188   2.805
13069SOL     OW41038   8.364  11.783   5.561
13069SOL    HW141039   8.429  11.850   5.582
13069SOL    HW241040   8.396  11.704   5.604
13070SOL     OW41041   2.342  12.755  11.656
13070SOL    HW141042   2.266  12.699  11.671
13070SOL    HW241043   2.417  12.698  11.669
13071SOL     OW41044  14.273  11.507   3.273
13071SOL    HW141045  14.225  11.552   3.343
13071SOL    HW241046  14.362  11.497   3.307
13072SOL     OW41047   0.963   6.198   7.163
13072SOL    HW141048   0.976   6.162   7.075
13072SOL    HW241049   0.966   6.293   7.151
13073SOL     OW41050   4.801   0.009   6.510
13073SOL    HW141051   4.871  14.858   6.454
13073SOL    HW241052   4.724  14.838   6.488
13074SOL     OW41053   6.530  13.772   6.553
13074SOL    HW141054   6.570  13.735   6.475
13074SOL    HW241055   6.577  13.854   6.567
13075SOL     OW41056  12.708  13.793   9.149
13075SOL    HW141057  12.651  13.816   9.076
13075SOL    HW241058  12.742  13.706   9.126
13076SOL     OW41059   9.617   3.875   1.778
13076SOL    HW141060   9.637   3.818   1.704
13076SOL    HW241061   9.532   3.845   1.810
13077SOL     OW41062   5.675   4.885   2.986
13077SOL    HW141063   5.641   4.837   2.910
13077SOL    HW241064   5.615   4.959   2.996
13078SOL     OW41065   8.629   4.734   3.580
13078SOL    HW141066   8.546   4.782   3.589
13078SOL    HW241067   8.607   4.644   3.607
13079SOL     OW41068   4.988   2.382   6.073
13079SOL    HW141069   5.051   2.430   6.020
13079SOL    HW241070   5.022   2.292   6.074
13080SOL     OW41071   4.922   4.934   4.267
13080SOL    HW141072   4.838   4.929   4.312
13080SOL    HW241073   4.937   5.028   4.255
13081SOL     OW41074   5.756   6.752  14.540
13081SOL    HW141075   5.844   6.747  14.577
13081SOL    HW241076   5.736   6.846  14.540
13082SOL     OW41077   7.564   1.314   2.797
13082SOL    HW141078   7.593   1.303   2.707
13082SOL    HW241079   7.493   1.378   2.792
13083SOL     OW41080   0.893  13.754   5.162
13083SOL    HW141081   0.930  13.842   5.155
13083SOL    HW241082   0.948  13.710   5.226
13084SOL     OW41083   6.632   9.648   1.705
13084SOL    HW141084   6.622   9.678   1.796
13084SOL    HW241085   6.682   9.566   1.712
13085SOL     OW41086   8.662   6.481  13.737
13085SOL    HW141087   8.675   6.402  13.789
13085SOL    HW241088   8.602   6.454  13.668
13086SOL     OW41089   4.354   2.474   2.486
13086SOL    HW141090   4.355   2.398   2.428
13086SOL    HW241091   4.335   2.548   2.429
13087SOL     OW41092  13.389  10.956   3.390
13087SOL    HW141093  13.415  11.046   3.409
13087SOL    HW241094  13.295  10.962   3.371
13088SOL     OW41095  10.320   5.583   5.553
13088SOL    HW141096  10.313   5.633   5.471
13088SOL    HW241097  10.229   5.564   5.577
13089SOL     OW41098   0.290  13.882   9.219
13089SOL    HW141099   0.356  13.935   9.174
13089SOL    HW241100   0.266  13.815   9.156
13090SOL     OW41101  13.260   2.788   0.664
13090SOL    HW141102  13.206   2.867   0.675
13090SOL    HW241103  13.204   2.727   0.615
13091SOL     OW41104   1.717  12.219  12.989
13091SOL    HW141105   1.648  12.250  13.048
13091SOL    HW241106   1.790  12.279  13.005
13092SOL     OW41107  11.433   4.101  12.467
13092SOL    HW141108  11.485   4.127  12.543
13092SOL    HW241109  11.418   4.007  12.479
13093SOL     OW41110   7.648   5.614   9.113
13093SOL    HW141111   7.629   5.707   9.130
13093SOL    HW241112   7.563   5.571   9.116
13094SOL     OW41113   5.566  11.536   9.500
13094SOL    HW141114   5.508  11.607   9.473
13094SOL    HW241115   5.536  11.513   9.588
13095SOL     OW41116  14.459   5.764   3.092
13095SOL    HW141117  14.388   5.792   3.034
13095SOL    HW241118  14.534   5.818   3.067
13096SOL     OW41119   3.928  11.573   8.513
13096SOL    HW141120   4.009  11.574   8.563
13096SOL    HW241121   3.876  11.644   8.551
13097SOL     OW41122   6.655   1.145   4.853
13097SOL    HW141123   6.706   1.203   4.910
13097SOL    HW241124   6.661   1.186   4.766
13098SOL     OW41125   5.582  13.599   1.345
13098SOL    HW141126   5.551  13.663   1.409
13098SOL    HW241127   5.638  13.649   1.286
13099SOL     OW41128   1.671   7.681   2.662
13099SOL    HW141129   1.604   7.640   2.716
13099SOL    HW241130   1.629   7.760   2.626
13100SOL     OW41131   7.730  13.115  11.261
13100SOL    HW141132   7.654  13.066  11.293
13100SOL    HW241133   7.795  13.047  11.241
13101SOL     OW41134   8.300   1.051  13.189
13101SOL    HW141135   8.275   1.121  13.249
13101SOL    HW241136   8.223   0.995  13.184
13102SOL     OW41137   1.685  14.522   2.648
13102SOL    HW141138   1.694  14.460   2.721
13102SOL    HW241139   1.630  14.592   2.682
13103SOL     OW41140  10.039   9.667  13.337
13103SOL    HW141141   9.981   9.725  13.288
13103SOL    HW241142  10.123   9.713  13.338
13104SOL     OW41143   2.061   9.140  10.737
13104SOL    HW141144   2.084   9.102  10.652
13104SOL    HW241145   1.981   9.191  10.719
13105SOL     OW41146   3.482   1.955   6.319
13105SOL    HW141147   3.474   1.938   6.413
13105SOL    HW241148   3.469   1.869   6.278
13106SOL     OW41149   5.159   7.343   8.499
13106SOL    HW141150   5.067   7.338   8.526
13106SOL    HW241151   5.163   7.420   8.442
13107SOL     OW41152  14.456   9.904   4.315
13107SOL    HW141153  14.470   9.816   4.281
13107SOL    HW241154  14.440   9.958   4.238
13108SOL     OW41155  12.654  10.072  13.546
13108SOL    HW141156  12.586  10.127  13.586
13108SOL    HW241157  12.728  10.130  13.535
13109SOL     OW41158  10.247   1.981   4.696
13109SOL    HW141159  10.276   1.948   4.781
13109SOL    HW241160  10.328   1.997   4.648
13110SOL     OW41161  12.788   0.574   4.146
13110SOL    HW141162  12.799   0.575   4.051
13110SOL    HW241163  12.763   0.664   4.168
13111SOL     OW41164   8.935   4.717   5.770
13111SOL    HW141165   8.886   4.783   5.817
13111SOL    HW241166   8.970   4.659   5.839
13112SOL     OW41167   6.417   1.552   1.245
13112SOL    HW141168   6.342   1.602   1.276
13112SOL    HW241169   6.460   1.610   1.181
13113SOL     OW41170  11.861   7.082   5.879
13113SOL    HW141171  11.907   7.034   5.810
13113SOL    HW241172  11.771   7.089   5.848
13114SOL     OW41173  12.307   1.724   6.476
13114SOL    HW141174  12.267   1.689   6.397
13114SOL    HW241175  12.340   1.810   6.450
13115SOL     OW41176   4.836   1.915   3.336
13115SOL    HW141177   4.881   1.999   3.341
13115SOL    HW241178   4.783   1.921   3.257
13116SOL     OW41179  11.353   8.768   0.429
13116SOL    HW141180  11.385   8.754   0.518
13116SOL    HW241181  11.323   8.682   0.400
13117SOL     OW41182  11.166  10.533   0.929
13117SOL    HW141183  11.242  10.591   0.936
13117SOL    HW241184  11.100  10.585   0.882
13118SOL     OW41185  12.392   1.735  14.789
13118SOL    HW141186  12.353   1.814  14.751
13118SOL    HW241187  12.387   1.750   0.002
13119SOL     OW41188   2.012  13.633   4.184
13119SOL    HW141189   1.920  13.617   4.205
13119SOL    HW241190   2.060  13.564   4.229
13120SOL     OW41191  11.335   3.530   3.567
13120SOL    HW141192  11.273   3.598   3.594
13120SOL    HW241193  11.279   3.461   3.531
13121SOL     OW41194   6.812   0.696   8.592
13121SOL    HW141195   6.770   0.747   8.522
13121SOL    HW241196   6.777   0.734   8.673
13122SOL     OW41197   8.955   4.336   2.214
13122SOL    HW141198   8.999   4.351   2.131
13122SOL    HW241199   8.902   4.258   2.200
13123SOL     OW41200   3.442  14.532   5.330
13123SOL    HW141201   3.392  14.520   5.250
13123SOL    HW241202   3.377  14.551   5.397
13124SOL     OW41203   6.202   8.222   4.616
13124SOL    HW141204   6.260   8.209   4.690
13124SOL    HW241205   6.157   8.138   4.605
13125SOL     OW41206  12.043   9.239  11.906
13125SOL    HW141207  12.137   9.258  11.904
13125SOL    HW241208  12.012   9.279  11.987
13126SOL     OW41209   8.024   6.983   3.325
13126SOL    HW141210   7.969   7.059   3.306
13126SOL    HW241211   7.975   6.934   3.392
13127SOL     OW41212   7.151   4.298   7.122
13127SOL    HW141213   7.209   4.225   7.146
13127SOL    HW241214   7.063   4.267   7.145
13128SOL     OW41215  14.545  11.828  12.304
13128SOL    HW141216  14.640  11.833  12.294
13128SOL    HW241217  14.531  11.819  12.399
13129SOL     OW41218   1.864   0.690  12.097
13129SOL    HW141219   1.951   0.651  12.089
13129SOL    HW241220   1.815   0.628  12.152
13130SOL     OW41221  11.722   8.575   2.477
13130SOL    HW141222  11.669   8.584   2.556
13130SOL    HW241223  11.661   8.591   2.405
13131SOL     OW41224  14.437  13.830   5.030
13131SOL    HW141225  14.451  13.802   5.120
13131SOL    HW241226  14.499  13.902   5.017
13132SOL     OW41227   8.166   9.640   9.829
13132SOL    HW141228   8.142   9.647   9.736
13132SOL    HW241229   8.083   9.649   9.875
13133SOL     OW41230   1.806   7.732  14.532
13133SOL    HW141231   1.737   7.799  14.529
13133SOL    HW241232   1.816   7.712  14.625
13134SOL     OW41233  13.302   1.495  10.853
13134SOL    HW141234  13.371   1.432  10.874
13134SOL    HW241235  13.311   1.564  10.919
13135SOL     OW41236   3.425   0.797   6.099
13135SOL    HW141237   3.368   0.759   6.032
13135SOL    HW241238   3.468   0.722   6.139
13136SOL     OW41239   0.104   5.285   1.582
13136SOL    HW141240   0.020   5.284   1.535
13136SOL    HW241241   0.099   5.362   1.638
13137SOL     OW41242   4.290   9.418   2.902
13137SOL    HW141243   4.229   9.484   2.870
13137SOL    HW241244   4.344   9.465   2.966
13138SOL     OW41245   2.859  12.408  13.945
13138SOL    HW141246   2.862  12.501  13.923
13138SOL    HW241247   2.948  12.387  13.974
13139SOL     OW41248   2.868  14.181  14.076
13139SOL    HW141249   2.812  14.143  14.144
13139SOL    HW241250   2.835  14.142  13.994
13140SOL     OW41251   8.424  10.005   6.714
13140SOL    HW141252   8.380  10.084   6.745
13140SOL    HW241253   8.395   9.936   6.773
13141SOL     OW41254  14.279   4.544  12.159
13141SOL    HW141255  14.248   4.585  12.240
13141SOL    HW241256  14.240   4.457  12.159
13142SOL     OW41257   4.174   0.463  14.782
13142SOL    HW141258   4.150   0.372  14.801
13142SOL    HW241259   4.092   0.511  14.789
13143SOL     OW41260   2.003   8.196   9.601
13143SOL    HW141261   1.922   8.242   9.575
13143SOL    HW241262   1.978   8.104   9.604
13144SOL     OW41263   0.808   0.275  10.614
13144SOL    HW141264   0.779   0.226  10.690
13144SOL    HW241265   0.898   0.246  10.599
13145SOL     OW41266   9.480   0.070  12.898
13145SOL    HW141267   9.435   0.137  12.848
13145SOL    HW241268   9.434   0.066  12.982
13146SOL     OW41269   2.309   5.986   3.361
13146SOL    HW141270   2.292   6.007   3.269
13146SOL    HW241271   2.330   6.071   3.402
13147SOL     OW41272  14.439  12.881   2.025
13147SOL    HW141273  14.372  12.933   2.071
13147SOL    HW241274  14.510  12.943   2.009
13148SOL     OW41275   7.296   2.697   0.419
13148SOL    HW141276   7.275   2.633   0.350
13148SOL    HW241277   7.270   2.654   0.500
13149SOL     OW41278   5.475   9.076  14.088
13149SOL    HW141279   5.491   9.165  14.118
13149SOL    HW241280   5.432   9.087  14.003
13150SOL     OW41281   3.437  11.450   4.627
13150SOL    HW141282   3.454  11.369   4.579
13150SOL    HW241283   3.428  11.422   4.719
13151SOL     OW41284   5.396   2.019   4.802
13151SOL    HW141285   5.482   1.979   4.818
13151SOL    HW241286   5.413   2.113   4.803
13152SOL     OW41287   9.649   5.697   8.532
13152SOL    HW141288   9.645   5.631   8.602
13152SOL    HW241289   9.565   5.691   8.488
13153SOL     OW41290   8.943  10.432   1.876
13153SOL    HW141291   8.907  10.401   1.793
13153SOL    HW241292   8.977  10.519   1.857
13154SOL     OW41293  10.781   2.552   2.558
13154SOL    HW141294  10.836   2.500   2.617
13154SOL    HW241295  10.844   2.601   2.505
13155SOL     OW41296  12.338   0.240  10.448
13155SOL    HW141297  12.328   0.150  10.416
13155SOL    HW241298  12.381   0.231  10.533
13156SOL     OW41299   8.690   5.081   9.597
13156SOL    HW141300   8.716   5.064   9.688
13156SOL    HW241301   8.715   5.172   9.582
13157SOL     OW41302  12.657   1.051   6.009
13157SOL    HW141303  12.646   1.093   5.924
13157SOL    HW241304  12.589   1.090   6.064
13158SOL     OW41305  12.478  13.387   4.741
13158SOL    HW141306  12.469  13.314   4.802
13158SOL    HW241307  12.508  13.459   4.795
13159SOL     OW41308   5.619  14.347   5.961
13159SOL    HW141309   5.596  14.258   5.933
13159SOL    HW241310   5.689  14.374   5.902
13160SOL     OW41311   7.359   1.085  10.513
13160SOL    HW141312   7.405   1.155  10.466
13160SOL    HW241313   7.293   1.054  10.450
13161SOL     OW41314  10.764   0.478   2.811
13161SOL    HW141315  10.705   0.539   2.766
13161SOL    HW241316  10.776   0.407   2.748
13162SOL     OW41317  14.233   0.164   4.822
13162SOL    HW141318  14.187   0.082   4.835
13162SOL    HW241319  14.165   0.231   4.822
13163SOL     OW41320   1.327   4.130   1.785
13163SOL    HW141321   1.354   4.204   1.840
13163SOL    HW241322   1.359   4.152   1.698
13164SOL     OW41323  13.930   1.026   9.947
13164SOL    HW141324  13.870   1.055   9.878
13164SOL    HW241325  13.888   1.054  10.029
13165SOL     OW41326   0.598  12.613   8.314
13165SOL    HW141327   0.629  12.537   8.264
13165SOL    HW241328   0.521  12.643   8.266
13166SOL     OW41329   0.179  10.869  13.242
13166SOL    HW141330   0.120  10.838  13.310
13166SOL    HW241331   0.246  10.919  13.289
13167SOL     OW41332   3.820   7.297  12.835
13167SOL    HW141333   3.758   7.279  12.906
13167SOL    HW241334   3.886   7.353  12.875
13168SOL     OW41335   2.702   6.378   7.940
13168SOL    HW141336   2.626   6.388   7.998
13168SOL    HW241337   2.667   6.393   7.852
13169SOL     OW41338   3.204   0.267   0.000
13169SOL    HW141339   3.116   0.291  14.852
13169SOL    HW241340   3.216   0.177  14.851
13170SOL     OW41341   6.289   2.274  11.433
13170SOL    HW141342   6.317   2.355  11.475
13170SOL    HW241343   6.322   2.205  11.491
13171SOL     OW41344   4.691  12.137   5.336
13171SOL    HW141345   4.598  12.149   5.352
13171SOL    HW241346   4.707  12.045   5.356
13172SOL     OW41347   4.362  12.643   6.697
13172SOL    HW141348   4.419  12.713   6.665
13172SOL    HW241349   4.312  12.682   6.769
13173SOL     OW41350   1.924   0.078   9.970
13173SOL    HW141351   1.879   0.110   9.892
13173SOL    HW241352   1.879  14.879   9.993
13174SOL     OW41353  14.563   4.250   9.586
13174SOL    HW141354  14.487   4.198   9.612
13174SOL    HW241355  14.630   4.186   9.563
13175SOL     OW41356  11.968  14.239  12.808
13175SOL    HW141357  12.042  14.182  12.826
13175SOL    HW241358  11.963  14.244  12.713
13176SOL     OW41359  10.524   3.317   5.999
13176SOL    HW141360  10.596   3.348   6.054
13176SOL    HW241361  10.472   3.262   6.058
13177SOL     OW41362   8.320   4.718  13.446
13177SOL    HW141363   8.382   4.658  13.404
13177SOL    HW241364   8.307   4.787  13.381
13178SOL     OW41365   0.310   2.016   8.951
13178SOL    HW141366   0.326   1.949   9.018
13178SOL    HW241367   0.337   1.975   8.869
13179SOL     OW41368   1.729  11.921   4.519
13179SOL    HW141369   1.665  11.859   4.555
13179SOL    HW241370   1.801  11.865   4.488
13180SOL     OW41371  14.557  10.276   8.894
13180SOL    HW141372  14.579  10.235   8.809
13180SOL    HW241373  14.475  10.234   8.919
13181SOL     OW41374  12.948  14.381  10.688
13181SOL    HW141375  13.018  14.410  10.629
13181SOL    HW241376  12.968  14.423  10.771
13182SOL     OW41377   4.179  12.140   3.177
13182SOL    HW141378   4.218  12.084   3.110
13182SOL    HW241379   4.244  12.142   3.248
13183SOL     OW41380   6.522   8.671  11.338
13183SOL    HW141381   6.565   8.586  11.326
13183SOL    HW241382   6.432   8.649  11.359
13184SOL     OW41383   8.733  14.505   9.516
13184SOL    HW141384   8.802  14.550   9.564
13184SOL    HW241385   8.771  14.421   9.490
13185SOL     OW41386  13.166   3.492  12.304
13185SOL    HW141387  13.222   3.554  12.257
13185SOL    HW241388  13.209   3.407  12.293
13186SOL     OW41389   6.488   8.320   5.024
13186SOL    HW141390   6.444   8.262   4.962
13186SOL    HW241391   6.420   8.381   5.052
13187SOL     OW41392   5.433   2.408  11.978
13187SOL    HW141393   5.490   2.442  12.047
13187SOL    HW241394   5.461   2.317  11.966
13188SOL     OW41395   3.334   9.171  14.559
13188SOL    HW141396   3.296   9.148  14.474
13188SOL    HW241397   3.354   9.087  14.600
13189SOL     OW41398   9.837  11.388  14.656
13189SOL    HW141399   9.896  11.411  14.727
13189SOL    HW241400   9.864  11.443  14.583
13190SOL     OW41401  12.501   2.104   0.459
13190SOL    HW141402  12.450   2.111   0.379
13190SOL    HW241403  12.540   2.190   0.471
13191SOL     OW41404  13.251   8.964   4.503
13191SOL    HW141405  13.244   8.939   4.595
13191SOL    HW241406  13.206   9.049   4.498
13192SOL     OW41407   0.098  10.215  12.216
13192SOL    HW141408   0.011  10.214  12.177
13192SOL    HW241409   0.114  10.124  12.242
13193SOL     OW41410   4.157   5.134   9.846
13193SOL    HW141411   4.207   5.079   9.786
13193SOL    HW241412   4.072   5.145   9.803
13194SOL     OW41413   5.836  11.454   9.387
13194SOL    HW141414   5.815  11.364   9.362
13194SOL    HW241415   5.751  11.498   9.393
13195SOL     OW41416   2.635  10.956  12.976
13195SOL    HW141417   2.692  10.923  12.907
13195SOL    HW241418   2.611  11.044  12.947
13196SOL     OW41419  11.466   9.162  14.563
13196SOL    HW141420  11.494   9.233  14.622
13196SOL    HW241421  11.375   9.146  14.587
13197SOL     OW41422   2.377   2.403   9.248
13197SOL    HW141423   2.293   2.447   9.260
13197SOL    HW241424   2.411   2.437   9.165
13198SOL     OW41425   4.321   7.902   5.562
13198SOL    HW141426   4.381   7.921   5.490
13198SOL    HW241427   4.340   7.969   5.628
13199SOL     OW41428   8.804  11.012   0.714
13199SOL    HW141429   8.805  10.922   0.748
13199SOL    HW241430   8.772  11.065   0.786
13200SOL     OW41431   1.284   9.975   8.825
13200SOL    HW141432   1.321  10.060   8.851
13200SOL    HW241433   1.334   9.911   8.874
13201SOL     OW41434  11.786   2.216   5.068
13201SOL    HW141435  11.855   2.261   5.019
13201SOL    HW241436  11.755   2.147   5.009
13202SOL     OW41437   0.302  13.869   1.443
13202SOL    HW141438   0.258  13.823   1.513
13202SOL    HW241439   0.395  13.850   1.455
13203SOL     OW41440   2.811  11.536   1.492
13203SOL    HW141441   2.776  11.624   1.507
13203SOL    HW241442   2.859  11.515   1.572
13204SOL     OW41443   0.499  11.436   7.445
13204SOL    HW141444   0.448  11.360   7.474
13204SOL    HW241445   0.463  11.457   7.359
13205SOL     OW41446   4.714  10.178  10.339
13205SOL    HW141447   4.650  10.173  10.267
13205SOL    HW241448   4.782  10.237  10.306
13206SOL     OW41449   0.573   6.203   9.240
13206SOL    HW141450   0.502   6.221   9.178
13206SOL    HW241451   0.608   6.118   9.212
13207SOL     OW41452   1.087   8.043   5.693
13207SOL    HW141453   1.054   7.966   5.739
13207SOL    HW241454   1.066   8.028   5.601
13208SOL     OW41455   2.799   8.592   7.290
13208SOL    HW141456   2.757   8.674   7.265
13208SOL    HW241457   2.891   8.615   7.302
13209SOL     OW41458   0.912   3.004   0.581
13209SOL    HW141459   0.843   2.939   0.568
13209SOL    HW241460   0.872   3.073   0.632
13210SOL     OW41461   7.742   4.070   3.137
13210SOL    HW141462   7.698   4.050   3.219
13210SOL    HW241463   7.835   4.069   3.159
13211SOL     OW41464  13.158  14.685   0.989
13211SOL    HW141465  13.090  14.627   0.954
13211SOL    HW241466  13.112  14.740   1.052
13212SOL     OW41467  12.092   8.682  10.849
13212SOL    HW141468  12.037   8.605  10.834
13212SOL    HW241469  12.092   8.694  10.944
13213SOL     OW41470  12.612  13.783   3.522
13213SOL    HW141471  12.635  13.702   3.567
13213SOL    HW241472  12.595  13.756   3.432
13214SOL     OW41473   6.341  13.808   6.236
13214SOL    HW141474   6.287  13.772   6.307
13214SOL    HW241475   6.349  13.901   6.257
13215SOL     OW41476   1.635   3.305  12.521
13215SOL    HW141477   1.676   3.273  12.440
13215SOL    HW241478   1.698   3.368  12.556
13216SOL     OW41479   6.792   9.684  10.418
13216SOL    HW141480   6.794   9.710  10.326
13216SOL    HW241481   6.850   9.745  10.463
13217SOL     OW41482   3.818   1.480   9.051
13217SOL    HW141483   3.892   1.420   9.044
13217SOL    HW241484   3.822   1.512   9.141
13218SOL     OW41485  10.395  12.309  12.240
13218SOL    HW141486  10.402  12.398  12.207
13218SOL    HW241487  10.468  12.262  12.200
13219SOL     OW41488   5.081   6.511  13.288
13219SOL    HW141489   5.075   6.464  13.205
13219SOL    HW241490   5.166   6.484  13.324
13220SOL     OW41491  11.299   7.651   9.526
13220SOL    HW141492  11.261   7.729   9.485
13220SOL    HW241493  11.229   7.616   9.580
13221SOL     OW41494   5.929   8.132  11.159
13221SOL    HW141495   5.998   8.068  11.141
13221SOL    HW241496   5.959   8.176  11.239
13222SOL     OW41497   9.260   3.426   3.294
13222SOL    HW141498   9.290   3.510   3.260
13222SOL    HW241499   9.222   3.447   3.380
13223SOL     OW41500   1.142   0.129   9.115
13223SOL    HW141501   1.047   0.122   9.101
13223SOL    HW241502   1.169   0.040   9.138
13224SOL     OW41503   7.318  11.317   8.377
13224SOL    HW141504   7.245  11.378   8.388
13224SOL    HW241505   7.359  11.343   8.294
13225SOL     OW41506  10.053   2.929   8.733
13225SOL    HW141507  10.120   2.862   8.729
13225SOL    HW241508   9.975   2.889   8.695
13226SOL     OW41509  13.431   5.657  12.771
13226SOL    HW141510  13.457   5.620  12.856
13226SOL    HW241511  13.480   5.739  12.765
13227SOL     OW41512   6.987  13.047   4.980
13227SOL    HW141513   7.025  13.057   5.067
13227SOL    HW241514   6.934  13.126   4.969
13228SOL     OW41515   6.841   2.548  12.484
13228SOL    HW141516   6.812   2.577  12.398
13228SOL    HW241517   6.839   2.628  12.538
13229SOL     OW41518   4.507   7.243   1.598
13229SOL    HW141519   4.521   7.238   1.693
13229SOL    HW241520   4.508   7.336   1.578
13230SOL     OW41521  12.167   5.235   6.374
13230SOL    HW141522  12.157   5.282   6.457
13230SOL    HW241523  12.224   5.291   6.322
13231SOL     OW41524   2.451   6.067   9.786
13231SOL    HW141525   2.518   6.133   9.802
13231SOL    HW241526   2.404   6.060   9.870
13232SOL     OW41527   8.109   5.841   8.885
13232SOL    HW141528   8.088   5.894   8.808
13232SOL    HW241529   8.169   5.895   8.936
13233SOL     OW41530   1.239   3.711  13.836
13233SOL    HW141531   1.246   3.806  13.835
13233SOL    HW241532   1.225   3.689  13.928
13234SOL     OW41533   9.129   0.795  14.792
13234SOL    HW141534   9.135   0.704  14.763
13234SOL    HW241535   9.041   0.822  14.768
13235SOL     OW41536   6.419   2.724   9.823
13235SOL    HW141537   6.449   2.661   9.757
13235SOL    HW241538   6.440   2.810   9.785
13236SOL     OW41539   6.551  11.372  13.350
13236SOL    HW141540   6.468  11.404  13.313
13236SOL    HW241541   6.584  11.311  13.285
13237SOL     OW41542   5.373   0.785   6.708
13237SOL    HW141543   5.354   0.808   6.799
13237SOL    HW241544   5.301   0.728   6.682
13238SOL     OW41545   3.922   6.951   4.653
13238SOL    HW141546   3.935   7.046   4.649
13238SOL    HW241547   3.987   6.921   4.716
13239SOL     OW41548   5.529   0.152   4.594
13239SOL    HW141549   5.563   0.235   4.628
13239SOL    HW241550   5.604   0.092   4.597
13240SOL     OW41551  11.459  13.968   5.077
13240SOL    HW141552  11.454  13.940   5.168
13240SOL    HW241553  11.457  14.064   5.080
13241SOL     OW41554   6.136   1.347   5.916
13241SOL    HW141555   6.167   1.264   5.879
13241SOL    HW241556   6.159   1.413   5.850
13242SOL     OW41557   9.751   3.491   3.117
13242SOL    HW141558   9.809   3.440   3.060
13242SOL    HW241559   9.700   3.546   3.057
13243SOL     OW41560  13.296  12.701  14.379
13243SOL    HW141561  13.286  12.667  14.291
13243SOL    HW241562  13.382  12.745  14.378
13244SOL     OW41563   1.608   7.853   2.987
13244SOL    HW141564   1.529   7.830   3.036
13244SOL    HW241565   1.605   7.798   2.909
13245SOL     OW41566  14.479   4.410  13.392
13245SOL    HW141567  14.416   4.457  13.336
13245SOL    HW241568  14.444   4.421  13.480
13246SOL     OW41569  12.464   2.234  14.028
13246SOL    HW141570  12.514   2.182  13.965
13246SOL    HW241571  12.473   2.324  13.997
13247SOL     OW41572  11.660  11.797   0.524
13247SOL    HW141573  11.598  11.774   0.593
13247SOL    HW241574  11.746  11.776   0.562
13248SOL     OW41575   4.178  12.060   0.374
13248SOL    HW141576   4.254  12.002   0.374
13248SOL    HW241577   4.143  12.055   0.463
13249SOL     OW41578   5.373  10.735   5.998
13249SOL    HW141579   5.417  10.695   5.923
13249SOL    HW241580   5.443  10.756   6.060
13250SOL     OW41581   6.504  14.574   7.052
13250SOL    HW141582   6.448  14.584   7.129
13250SOL    HW241583   6.465  14.501   7.004
13251SOL     OW41584   9.206  13.408  14.732
13251SOL    HW141585   9.114  13.384  14.718
13251SOL    HW241586   9.203  13.499  14.761
13252SOL     OW41587   9.065   0.765   3.822
13252SOL    HW141588   9.141   0.821   3.811
13252SOL    HW241589   9.057   0.754   3.917
13253SOL     OW41590   1.159  11.930  11.286
13253SOL    HW141591   1.108  12.009  11.274
13253SOL    HW241592   1.098  11.858  11.270
13254SOL     OW41593  11.627   2.265   1.978
13254SOL    HW141594  11.696   2.285   1.915
13254SOL    HW241595  11.649   2.177   2.009
13255SOL     OW41596  12.923   9.521  11.440
13255SOL    HW141597  12.886   9.609  11.448
13255SOL    HW241598  13.012   9.536  11.407
13256SOL     OW41599  11.221   3.861   1.169
13256SOL    HW141600  11.259   3.902   1.246
13256SOL    HW241601  11.197   3.934   1.112
13257SOL     OW41602   7.685   2.230   5.327
13257SOL    HW141603   7.694   2.150   5.275
13257SOL    HW241604   7.698   2.201   5.418
13258SOL     OW41605  11.690   6.747  14.658
13258SOL    HW141606  11.602   6.735  14.623
13258SOL    HW241607  11.717   6.834  14.628
13259SOL     OW41608  14.787  14.400  10.273
13259SOL    HW141609  14.753  14.315  10.247
13259SOL    HW241610  14.709  14.451  10.295
13260SOL     OW41611  10.252   7.454  11.708
13260SOL    HW141612  10.279   7.525  11.766
13260SOL    HW241613  10.165   7.479  11.678
13261SOL     OW41614   6.672   4.354   5.632
13261SOL    HW141615   6.606   4.421   5.651
13261SOL    HW241616   6.752   4.388   5.671
13262SOL     OW41617   6.028   3.153   1.306
13262SOL    HW141618   6.034   3.062   1.336
13262SOL    HW241619   5.980   3.147   1.223
13263SOL     OW41620   7.661  12.553   4.806
13263SOL    HW141621   7.680  12.612   4.734
13263SOL    HW241622   7.567  12.537   4.800
13264SOL     OW41623   0.945   7.300   6.306
13264SOL    HW141624   0.948   7.218   6.356
13264SOL    HW241625   0.975   7.367   6.369
13265SOL     OW41626  12.724  14.850  12.155
13265SOL    HW141627  12.783  14.833  12.082
13265SOL    HW241628  12.637  14.827  12.121
13266SOL     OW41629   5.307   6.148   4.725
13266SOL    HW141630   5.326   6.183   4.812
13266SOL    HW241631   5.262   6.065   4.742
13267SOL     OW41632  10.129   0.585  11.843
13267SOL    HW141633  10.220   0.582  11.874
13267SOL    HW241634  10.121   0.672  11.803
13268SOL     OW41635   1.190  13.733  13.271
13268SOL    HW141636   1.242  13.657  13.247
13268SOL    HW241637   1.112  13.726  13.215
13269SOL     OW41638   3.997   8.830   9.357
13269SOL    HW141639   3.970   8.738   9.356
13269SOL    HW241640   4.087   8.828   9.392
13270SOL     OW41641   5.375  11.095   8.416
13270SOL    HW141642   5.313  11.167   8.426
13270SOL    HW241643   5.431  11.122   8.343
13271SOL     OW41644   6.236  14.531  11.631
13271SOL    HW141645   6.142  14.532  11.616
13271SOL    HW241646   6.275  14.552  11.546
13272SOL     OW41647   5.745  10.278   9.002
13272SOL    HW141648   5.771  10.263   8.912
13272SOL    HW241649   5.656  10.313   8.997
13273SOL     OW41650  11.477   7.137  14.663
13273SOL    HW141651  11.420   7.087  14.605
13273SOL    HW241652  11.565   7.107  14.641
13274SOL     OW41653  11.036  10.942   3.740
13274SOL    HW141654  10.953  10.974   3.774
13274SOL    HW241655  11.100  11.008   3.766
13275SOL     OW41656   9.441   8.514   0.452
13275SOL    HW141657   9.379   8.540   0.521
13275SOL    HW241658   9.388   8.462   0.391
13276SOL     OW41659   6.271   2.206   9.946
13276SOL    HW141660   6.255   2.300   9.943
13276SOL    HW241661   6.313   2.192  10.031
13277SOL     OW41662  10.122   2.343  10.831
13277SOL    HW141663  10.033   2.371  10.851
13277SOL    HW241664  10.118   2.248  10.829
13278SOL     OW41665  12.274  11.069   8.555
13278SOL    HW141666  12.294  10.990   8.606
13278SOL    HW241667  12.234  11.129   8.619
13279SOL     OW41668   8.500   9.204  10.422
13279SOL    HW141669   8.450   9.160  10.490
13279SOL    HW241670   8.438   9.217  10.350
13280SOL     OW41671  14.863   2.060   0.918
13280SOL    HW141672  14.783   2.112   0.927
13280SOL    HW241673  14.867   2.009   0.999
13281SOL     OW41674   0.773   3.822   8.975
13281SOL    HW141675   0.802   3.842   9.065
13281SOL    HW241676   0.743   3.906   8.941
13282SOL     OW41677   8.261   4.504  10.294
13282SOL    HW141678   8.207   4.581  10.276
13282SOL    HW241679   8.221   4.434  10.242
13283SOL     OW41680   1.874  13.381   6.467
13283SOL    HW141681   1.966  13.408   6.477
13283SOL    HW241682   1.875  13.320   6.394
13284SOL     OW41683   5.432   9.807   4.597
13284SOL    HW141684   5.476   9.727   4.623
13284SOL    HW241685   5.378   9.781   4.522
13285SOL     OW41686  10.755   0.091   7.414
13285SOL    HW141687  10.734   0.008   7.458
13285SOL    HW241688  10.672   0.138   7.411
13286SOL     OW41689  11.081   1.733  13.517
13286SOL    HW141690  10.987   1.750  13.507
13286SOL    HW241691  11.116   1.814  13.552
13287SOL     OW41692   4.140   6.231   3.263
13287SOL    HW141693   4.165   6.158   3.319
13287SOL    HW241694   4.175   6.208   3.177
13288SOL     OW41695   5.746   0.179  14.462
13288SOL    HW141696   5.772   0.108  14.521
13288SOL    HW241697   5.657   0.202  14.491
13289SOL     OW41698  10.694   8.926   1.300
13289SOL    HW141699  10.781   8.966   1.301
13289SOL    HW241700  10.681   8.897   1.210
13290SOL     OW41701   1.232  10.626   7.106
13290SOL    HW141702   1.308  10.684   7.109
13290SOL    HW241703   1.269  10.538   7.111
13291SOL     OW41704  10.598   1.468   4.165
13291SOL    HW141705  10.666   1.432   4.108
13291SOL    HW241706  10.516   1.440   4.124
13292SOL     OW41707   5.640  13.888  10.218
13292SOL    HW141708   5.633  13.965  10.161
13292SOL    HW241709   5.552  13.851  10.221
13293SOL     OW41710   6.107   3.417   0.944
13293SOL    HW141711   6.138   3.506   0.928
13293SOL    HW241712   6.136   3.397   1.033
13294SOL     OW41713  13.810   3.634   4.504
13294SOL    HW141714  13.734   3.589   4.542
13294SOL    HW241715  13.793   3.634   4.410
13295SOL     OW41716  12.566   6.358  13.065
13295SOL    HW141717  12.474   6.372  13.088
13295SOL    HW241718  12.607   6.329  13.146
13296SOL     OW41719  11.791  11.632  10.431
13296SOL    HW141720  11.701  11.612  10.404
13296SOL    HW241721  11.804  11.580  10.510
13297SOL     OW41722   2.521   3.013   3.573
13297SOL    HW141723   2.511   3.106   3.551
13297SOL    HW241724   2.467   2.968   3.508
13298SOL     OW41725   8.962   9.409   6.728
13298SOL    HW141726   8.871   9.393   6.753
13298SOL    HW241727   8.958   9.485   6.670
13299SOL     OW41728   3.948  14.636  10.404
13299SOL    HW141729   3.927  14.612  10.494
13299SOL    HW241730   4.038  14.668  10.407
13300SOL     OW41731   4.805  14.776  11.029
13300SOL    HW141732   4.740  14.841  11.001
13300SOL    HW241733   4.753  14.700  11.054
13301SOL     OW41734   9.105   5.742   9.530
13301SOL    HW141735   9.131   5.694   9.451
13301SOL    HW241736   9.050   5.680   9.579
13302SOL     OW41737   0.967  13.515   8.649
13302SOL    HW141738   1.011  13.436   8.617
13302SOL    HW241739   0.890  13.482   8.696
13303SOL     OW41740   3.227   9.317   3.618
13303SOL    HW141741   3.161   9.354   3.559
13303SOL    HW241742   3.307   9.314   3.565
13304SOL     OW41743  12.553   4.414   3.360
13304SOL    HW141744  12.473   4.429   3.411
13304SOL    HW241745  12.606   4.491   3.377
13305SOL     OW41746   6.079  13.514   5.649
13305SOL    HW141747   6.049  13.555   5.568
13305SOL    HW241748   6.128  13.584   5.693
13306SOL     OW41749  13.862   0.881  10.889
13306SOL    HW141750  13.866   0.933  10.970
13306SOL    HW241751  13.953   0.854  10.873
13307SOL     OW41752   1.256   6.231  14.119
13307SOL    HW141753   1.235   6.148  14.162
13307SOL    HW241754   1.240   6.214  14.026
13308SOL     OW41755   4.366   0.506  10.093
13308SOL    HW141756   4.428   0.566  10.135
13308SOL    HW241757   4.306   0.482  10.163
13309SOL     OW41758   0.355   7.038   4.693
13309SOL    HW141759   0.284   7.069   4.750
13309SOL    HW241760   0.403   7.118   4.671
13310SOL     OW41761  13.024   3.445   3.330
13310SOL    HW141762  12.980   3.376   3.381
13310SOL    HW241763  13.053   3.508   3.396
13311SOL     OW41764  11.509   9.036   0.410
13311SOL    HW141765  11.532   9.070   0.497
13311SOL    HW241766  11.493   8.943   0.424
13312SOL     OW41767   7.924  13.240   7.051
13312SOL    HW141768   7.948  13.245   7.144
13312SOL    HW241769   7.942  13.328   7.018
13313SOL     OW41770  14.417   0.660  13.440
13313SOL    HW141771  14.355   0.718  13.397
13313SOL    HW241772  14.367   0.618  13.509
13314SOL     OW41773   2.089  13.782   9.844
13314SOL    HW141774   2.057  13.783   9.754
13314SOL    HW241775   2.073  13.693   9.875
13315SOL     OW41776  11.185   3.705  12.498
13315SOL    HW141777  11.116   3.740  12.554
13315SOL    HW241778  11.186   3.611  12.516
13316SOL     OW41779   2.801   9.413   5.886
13316SOL    HW141780   2.781   9.506   5.885
13316SOL    HW241781   2.833   9.396   5.975
13317SOL     OW41782  10.081   7.988   2.150
13317SOL    HW141783  10.131   8.024   2.224
13317SOL    HW241784  10.071   8.062   2.090
13318SOL     OW41785   7.982   7.168   4.681
13318SOL    HW141786   7.894   7.132   4.667
13318SOL    HW241787   8.035   7.093   4.705
13319SOL     OW41788   9.860   2.426   1.378
13319SOL    HW141789   9.769   2.428   1.346
13319SOL    HW241790   9.870   2.508   1.427
13320SOL     OW41791  14.004   9.625  10.166
13320SOL    HW141792  13.919   9.670  10.159
13320SOL    HW241793  14.059   9.687  10.214
13321SOL     OW41794   0.594   9.541   3.581
13321SOL    HW141795   0.508   9.576   3.556
13321SOL    HW241796   0.654   9.575   3.515
13322SOL     OW41797   3.313   8.332  13.448
13322SOL    HW141798   3.314   8.299  13.358
13322SOL    HW241799   3.337   8.257  13.502
13323SOL     OW41800   5.660  12.158   8.249
13323SOL    HW141801   5.658  12.095   8.321
13323SOL    HW241802   5.590  12.129   8.190
13324SOL     OW41803   2.870   1.377   8.299
13324SOL    HW141804   2.949   1.422   8.268
13324SOL    HW241805   2.883   1.371   8.394
13325SOL     OW41806  10.039  10.499   3.658
13325SOL    HW141807  10.017  10.413   3.694
13325SOL    HW241808  10.090  10.479   3.579
13326SOL     OW41809   9.732   1.808   5.426
13326SOL    HW141810   9.779   1.782   5.505
13326SOL    HW241811   9.723   1.903   5.433
13327SOL     OW41812   0.080   4.879   3.520
13327SOL    HW141813   0.024   4.932   3.463
13327SOL    HW241814   0.085   4.794   3.475
13328SOL     OW41815   6.992   9.766   8.030
13328SOL    HW141816   6.966   9.856   8.051
13328SOL    HW241817   6.937   9.742   7.956
13329SOL     OW41818   9.843   4.428   4.757
13329SOL    HW141819   9.830   4.456   4.848
13329SOL    HW241820   9.833   4.333   4.759
13330SOL     OW41821   5.280   9.931   1.285
13330SOL    HW141822   5.188   9.906   1.279
13330SOL    HW241823   5.282  10.004   1.347
13331SOL     OW41824   3.516  12.737   3.982
13331SOL    HW141825   3.483  12.823   4.007
13331SOL    HW241826   3.469  12.715   3.902
13332SOL     OW41827   2.723   4.846   3.333
13332SOL    HW141828   2.816   4.845   3.356
13332SOL    HW241829   2.710   4.764   3.284
13333SOL     OW41830   3.209   2.095   6.274
13333SOL    HW141831   3.288   2.042   6.281
13333SOL    HW241832   3.237   2.183   6.297
13334SOL     OW41833   2.503   8.096  10.082
13334SOL    HW141834   2.492   8.081   9.988
13334SOL    HW241835   2.455   8.177  10.099
13335SOL     OW41836   6.973   8.291  10.789
13335SOL    HW141837   6.932   8.335  10.863
13335SOL    HW241838   6.923   8.321  10.713
13336SOL     OW41839  11.402   1.709  12.301
13336SOL    HW141840  11.484   1.723  12.348
13336SOL    HW241841  11.343   1.672  12.367
13337SOL     OW41842   9.372   2.530  11.918
13337SOL    HW141843   9.395   2.438  11.904
13337SOL    HW241844   9.329   2.531  12.003
13338SOL     OW41845  14.248   3.534   9.278
13338SOL    HW141846  14.321   3.588   9.309
13338SOL    HW241847  14.210   3.497   9.358
13339SOL     OW41848   1.920  11.394   1.681
13339SOL    HW141849   1.886  11.428   1.764
13339SOL    HW241850   1.843  11.356   1.638
13340SOL     OW41851   6.604  12.244   9.388
13340SOL    HW141852   6.686  12.199   9.408
13340SOL    HW241853   6.614  12.330   9.428
13341SOL     OW41854   0.006   8.373  13.383
13341SOL    HW141855  14.798   8.380  13.417
13341SOL    HW241856   0.046   8.303  13.435
13342SOL     OW41857   0.610   4.204   8.951
13342SOL    HW141858   0.576   4.286   8.986
13342SOL    HW241859   0.535   4.163   8.908
13343SOL     OW41860   3.023  10.968   3.407
13343SOL    HW141861   3.026  10.908   3.332
13343SOL    HW241862   3.087  11.035   3.386
13344SOL     OW41863   0.610   8.739   0.511
13344SOL    HW141864   0.608   8.835   0.517
13344SOL    HW241865   0.703   8.717   0.512
13345SOL     OW41866   5.937  13.179   5.970
13345SOL    HW141867   6.018  13.139   5.939
13345SOL    HW241868   5.966  13.256   6.019
13346SOL     OW41869  10.235   6.371   0.534
13346SOL    HW141870  10.169   6.307   0.508
13346SOL    HW241871  10.186   6.441   0.577
13347SOL     OW41872   0.028  13.100   1.630
13347SOL    HW141873   0.114  13.140   1.614
13347SOL    HW241874   0.003  13.063   1.545
13348SOL     OW41875   6.905   2.574   5.306
13348SOL    HW141876   6.847   2.525   5.365
13348SOL    HW241877   6.857   2.576   5.223
13349SOL     OW41878   0.583  11.931   7.779
13349SOL    HW141879   0.607  11.915   7.870
13349SOL    HW241880   0.663  11.965   7.739
13350SOL     OW41881   7.381   0.333   0.101
13350SOL    HW141882   7.348   0.271   0.166
13350SOL    HW241883   7.303   0.378   0.069
13351SOL     OW41884  14.426   7.857   5.011
13351SOL    HW141885  14.506   7.897   4.977
13351SOL    HW241886  14.444   7.764   5.013
13352SOL     OW41887   0.170   5.470  10.762
13352SOL    HW141888   0.092   5.494  10.713
13352SOL    HW241889   0.194   5.550  10.810
13353SOL     OW41890  13.744  12.468   7.524
13353SOL    HW141891  13.803  12.404   7.484
13353SOL    HW241892  13.667  12.417   7.550
13354SOL     OW41893   8.867   8.136   7.005
13354SOL    HW141894   8.952   8.129   7.049
13354SOL    HW241895   8.838   8.226   7.023
13355SOL     OW41896   7.669  13.434   9.101
13355SOL    HW141897   7.715  13.412   9.019
13355SOL    HW241898   7.670  13.530   9.104
13356SOL     OW41899  10.537   4.138   2.694
13356SOL    HW141900  10.570   4.228   2.685
13356SOL    HW241901  10.468   4.131   2.628
13357SOL     OW41902   5.819  13.825  14.311
13357SOL    HW141903   5.782  13.888  14.249
13357SOL    HW241904   5.744  13.777  14.344
13358SOL     OW41905  13.915   0.872  11.266
13358SOL    HW141906  13.963   0.867  11.348
13358SOL    HW241907  13.923   0.784  11.228
13359SOL     OW41908   6.668  11.174  13.199
13359SOL    HW141909   6.703  11.160  13.111
13359SOL    HW241910   6.719  11.115  13.255
13360SOL     OW41911   6.443   2.883   5.623
13360SOL    HW141912   6.355   2.872   5.658
13360SOL    HW241913   6.443   2.834   5.541
13361SOL     OW41914   4.003   6.339  12.365
13361SOL    HW141915   3.959   6.260  12.398
13361SOL    HW241916   4.012   6.396  12.441
13362SOL     OW41917   0.128   6.838   4.299
13362SOL    HW141918   0.162   6.804   4.216
13362SOL    HW241919   0.181   6.793   4.366
13363SOL     OW41920   1.948   9.650   3.514
13363SOL    HW141921   2.017   9.716   3.518
13363SOL    HW241922   1.868   9.700   3.495
13364SOL     OW41923  10.958   9.711   5.746
13364SOL    HW141924  10.954   9.800   5.711
13364SOL    HW241925  11.006   9.720   5.828
13365SOL     OW41926  10.350  11.660  11.494
13365SOL    HW141927  10.367  11.751  11.518
13365SOL    HW241928  10.421  11.610  11.535
13366SOL     OW41929  11.537   6.328   5.693
13366SOL    HW141930  11.494   6.362   5.771
13366SOL    HW241931  11.598   6.263   5.726
13367SOL     OW41932   5.290   2.378  14.120
13367SOL    HW141933   5.284   2.294  14.074
13367SOL    HW241934   5.308   2.355  14.211
13368SOL     OW41935   7.752   5.912  14.631
13368SOL    HW141936   7.824   5.859  14.665
13368SOL    HW241937   7.758   5.903  14.536
13369SOL     OW41938  11.211   9.543   2.732
13369SOL    HW141939  11.271   9.533   2.807
13369SOL    HW241940  11.255   9.607   2.676
13370SOL     OW41941   0.244   6.026  11.517
13370SOL    HW141942   0.315   6.013  11.454
13370SOL    HW241943   0.282   6.080  11.586
13371SOL     OW41944  14.491  11.601   1.005
13371SOL    HW141945  14.578  11.640   0.994
13371SOL    HW241946  14.489  11.572   1.097
13372SOL     OW41947   1.022  13.726   0.253
13372SOL    HW141948   0.970  13.646   0.260
13372SOL    HW241949   1.095  13.702   0.197
13373SOL     OW41950   6.823   0.234  14.314
13373SOL    HW141951   6.743   0.204  14.357
13373SOL    HW241952   6.878   0.156  14.307
13374SOL     OW41953   6.530  13.210   1.091
13374SOL    HW141954   6.485  13.167   1.018
13374SOL    HW241955   6.547  13.299   1.060
13375SOL     OW41956   7.853   3.832   9.282
13375SOL    HW141957   7.926   3.838   9.221
13375SOL    HW241958   7.800   3.760   9.250
13376SOL     OW41959   4.235   2.736   7.528
13376SOL    HW141960   4.225   2.801   7.598
13376SOL    HW241961   4.290   2.780   7.462
13377SOL     OW41962   9.964  11.355   4.057
13377SOL    HW141963  10.005  11.341   3.972
13377SOL    HW241964   9.886  11.407   4.038
13378SOL     OW41965   5.851   8.559   9.965
13378SOL    HW141966   5.784   8.499   9.932
13378SOL    HW241967   5.819   8.646   9.940
13379SOL     OW41968  10.505   4.154   8.052
13379SOL    HW141969  10.581   4.128   8.001
13379SOL    HW241970  10.540   4.214   8.118
13380SOL     OW41971  11.365   2.911   4.529
13380SOL    HW141972  11.346   2.995   4.488
13380SOL    HW241973  11.450   2.885   4.493
13381SOL     OW41974   3.625   6.117   8.333
13381SOL    HW141975   3.675   6.058   8.278
13381SOL    HW241976   3.534   6.088   8.325
13382SOL     OW41977  13.959   4.452   6.774
13382SOL    HW141978  13.975   4.545   6.758
13382SOL    HW241979  13.928   4.418   6.691
13383SOL     OW41980  10.954  10.878  11.842
13383SOL    HW141981  10.905  10.920  11.771
13383SOL    HW241982  10.950  10.941  11.914
13384SOL     OW41983   8.226  10.495   5.729
13384SOL    HW141984   8.285  10.428   5.764
13384SOL    HW241985   8.280  10.574   5.722
13385SOL     OW41986   3.740   3.347   2.189
13385SOL    HW141987   3.825   3.317   2.159
13385SOL    HW241988   3.716   3.286   2.259
13386SOL     OW41989  11.740   5.686   9.904
13386SOL    HW141990  11.670   5.622   9.919
13386SOL    HW241991  11.708   5.739   9.831
13387SOL     OW41992  12.133  11.468   8.622
13387SOL    HW141993  12.197  11.521   8.668
13387SOL    HW241994  12.135  11.383   8.666
13388SOL     OW41995  13.720  13.702   1.483
13388SOL    HW141996  13.626  13.715   1.494
13388SOL    HW241997  13.760  13.768   1.539
13389SOL     OW41998   0.099   5.209  14.101
13389SOL    HW141999   0.098   5.198  14.196
13389SOL    HW242000   0.020   5.260  14.082
13390SOL     OW42001   2.395   4.510   5.382
13390SOL    HW142002   2.306   4.500   5.348
13390SOL    HW242003   2.440   4.430   5.355
13391SOL     OW42004  13.921   5.898  11.578
13391SOL    HW142005  13.947   5.812  11.612
13391SOL    HW242006  13.997   5.928  11.528
13392SOL     OW42007   4.132   0.923  13.437
13392SOL    HW142008   4.183   0.900  13.359
13392SOL    HW242009   4.129   0.842  13.488
13393SOL     OW42010  14.012  14.144   0.183
13393SOL    HW142011  14.092  14.096   0.159
13393SOL    HW242012  13.984  14.185   0.101
13394SOL     OW42013   2.974  14.524  12.255
13394SOL    HW142014   2.928  14.441  12.248
13394SOL    HW242015   2.920  14.586  12.206
13395SOL     OW42016  14.173   0.826   2.607
13395SOL    HW142017  14.222   0.870   2.677
13395SOL    HW242018  14.224   0.843   2.528
13396SOL     OW42019   2.072   4.902   1.798
13396SOL    HW142020   2.059   4.808   1.781
13396SOL    HW242021   2.059   4.944   1.713
13397SOL     OW42022  12.646  14.374  14.600
13397SOL    HW142023  12.604  14.367  14.686
13397SOL    HW242024  12.699  14.294  14.592
13398SOL     OW42025   3.163   7.622   9.561
13398SOL    HW142026   3.233   7.666   9.609
13398SOL    HW242027   3.200   7.606   9.474
13399SOL     OW42028   1.841   4.275   5.675
13399SOL    HW142029   1.851   4.181   5.659
13399SOL    HW242030   1.928   4.303   5.703
13400SOL     OW42031  12.642   6.597   1.243
13400SOL    HW142032  12.722   6.639   1.274
13400SOL    HW242033  12.633   6.519   1.299
13401SOL     OW42034  14.694   8.646   1.032
13401SOL    HW142035  14.749   8.604   0.965
13401SOL    HW242036  14.702   8.740   1.013
13402SOL     OW42037   5.156  14.028   7.599
13402SOL    HW142038   5.234  13.985   7.564
13402SOL    HW242039   5.184  14.063   7.684
13403SOL     OW42040  12.425   1.690   2.189
13403SOL    HW142041  12.508   1.643   2.180
13403SOL    HW242042  12.450   1.777   2.219
13404SOL     OW42043   8.880   0.895  14.680
13404SOL    HW142044   8.820   0.963  14.711
13404SOL    HW242045   8.857   0.883  14.588
13405SOL     OW42046   5.581  13.096   9.627
13405SOL    HW142047   5.651  13.113   9.565
13405SOL    HW242048   5.552  13.007   9.607
13406SOL     OW42049  12.727  14.493  10.275
13406SOL    HW142050  12.740  14.569  10.332
13406SOL    HW242051  12.813  14.451  10.272
13407SOL     OW42052   5.607   7.924  14.288
13407SOL    HW142053   5.679   7.974  14.249
13407SOL    HW242054   5.574   7.981  14.358
13408SOL     OW42055  12.598   9.094   8.189
13408SOL    HW142056  12.692   9.111   8.192
13408SOL    HW242057  12.558   9.178   8.169
13409SOL     OW42058   7.124   9.347   8.679
13409SOL    HW142059   7.084   9.433   8.694
13409SOL    HW242060   7.095   9.295   8.754
13410SOL     OW42061   8.445   1.283   6.847
13410SOL    HW142062   8.460   1.194   6.880
13410SOL    HW242063   8.505   1.292   6.773
13411SOL     OW42064  11.724   8.048   6.197
13411SOL    HW142065  11.648   8.061   6.255
13411SOL    HW242066  11.793   8.017   6.256
13412SOL     OW42067   5.072  11.784   5.764
13412SOL    HW142068   5.074  11.879   5.760
13412SOL    HW242069   5.093  11.764   5.855
13413SOL     OW42070   7.038   0.366   9.449
13413SOL    HW142071   7.090   0.287   9.461
13413SOL    HW242072   7.023   0.372   9.355
13414SOL     OW42073   4.207   6.641   8.411
13414SOL    HW142074   4.252   6.694   8.477
13414SOL    HW242075   4.210   6.694   8.331
13415SOL     OW42076   3.259  12.376   2.315
13415SOL    HW142077   3.183  12.394   2.370
13415SOL    HW242078   3.330  12.357   2.376
13416SOL     OW42079  12.467  11.419   7.920
13416SOL    HW142080  12.453  11.511   7.944
13416SOL    HW242081  12.562  11.410   7.913
13417SOL     OW42082   0.138  12.205  10.147
13417SOL    HW142083   0.217  12.236  10.190
13417SOL    HW242084   0.164  12.123  10.106
13418SOL     OW42085  11.432   4.062   1.362
13418SOL    HW142086  11.454   4.114   1.285
13418SOL    HW242087  11.462   3.973   1.341
13419SOL     OW42088   4.351  14.090  11.177
13419SOL    HW142089   4.401  14.088  11.096
13419SOL    HW242090   4.282  14.025  11.165
13420SOL     OW42091  13.373   5.402   0.979
13420SOL    HW142092  13.467   5.420   0.972
13420SOL    HW242093  13.368   5.311   1.006
13421SOL     OW42094   9.754   0.570  13.379
13421SOL    HW142095   9.789   0.481  13.367
13421SOL    HW242096   9.770   0.614  13.295
13422SOL     OW42097   5.805   5.045  10.444
13422SOL    HW142098   5.781   4.977  10.507
13422SOL    HW242099   5.887   5.015  10.406
13423SOL     OW42100   6.602   2.494  14.156
13423SOL    HW142101   6.675   2.555  14.142
13423SOL    HW242102   6.555   2.493  14.072
13424SOL     OW42103   6.774   7.143  13.494
13424SOL    HW142104   6.751   7.088  13.418
13424SOL    HW242105   6.868   7.130  13.505
13425SOL     OW42106   8.987  12.216   6.492
13425SOL    HW142107   8.896  12.243   6.496
13425SOL    HW242108   8.988  12.126   6.526
13426SOL     OW42109   6.516   4.530  11.567
13426SOL    HW142110   6.595   4.484  11.537
13426SOL    HW242111   6.536   4.622  11.551
13427SOL     OW42112   5.546   6.345   1.419
13427SOL    HW142113   5.461   6.379   1.391
13427SOL    HW242114   5.583   6.303   1.342
13428SOL     OW42115   7.369   7.385  12.325
13428SOL    HW142116   7.302   7.401  12.392
13428SOL    HW242117   7.341   7.437  12.250
13429SOL     OW42118   8.800   6.909   8.622
13429SOL    HW142119   8.881   6.861   8.603
13429SOL    HW242120   8.748   6.899   8.542
13430SOL     OW42121   8.573  13.760   1.964
13430SOL    HW142122   8.491  13.726   2.000
13430SOL    HW242123   8.550  13.843   1.924
13431SOL     OW42124  12.910   0.357   3.675
13431SOL    HW142125  12.921   0.313   3.759
13431SOL    HW242126  12.930   0.290   3.610
13432SOL     OW42127   6.567  12.471  13.540
13432SOL    HW142128   6.544  12.562  13.561
13432SOL    HW242129   6.503  12.446  13.473
13433SOL     OW42130   8.646   1.188  11.271
13433SOL    HW142131   8.699   1.110  11.283
13433SOL    HW242132   8.612   1.181  11.182
13434SOL     OW42133   8.294  10.390   3.455
13434SOL    HW142134   8.280  10.442   3.376
13434SOL    HW242135   8.352  10.319   3.427
13435SOL     OW42136  11.376   6.291   2.437
13435SOL    HW142137  11.423   6.328   2.511
13435SOL    HW242138  11.443   6.276   2.370
13436SOL     OW42139   9.064   7.250   4.778
13436SOL    HW142140   9.062   7.165   4.821
13436SOL    HW242141   9.073   7.230   4.685
13437SOL     OW42142   0.519   2.724   5.187
13437SOL    HW142143   0.573   2.796   5.220
13437SOL    HW242144   0.477   2.759   5.109
13438SOL     OW42145   7.314   4.295   3.472
13438SOL    HW142146   7.233   4.249   3.449
13438SOL    HW242147   7.310   4.305   3.567
13439SOL     OW42148   6.238   3.200  13.042
13439SOL    HW142149   6.225   3.136  12.972
13439SOL    HW242150   6.183   3.274  13.018
13440SOL     OW42151   5.685   4.798   3.255
13440SOL    HW142152   5.722   4.877   3.293
13440SOL    HW242153   5.680   4.817   3.161
13441SOL     OW42154   5.778  14.794   9.371
13441SOL    HW142155   5.820  14.724   9.422
13441SOL    HW242156   5.754  14.753   9.288
13442SOL     OW42157   9.633  13.117   9.829
13442SOL    HW142158   9.683  13.053   9.778
13442SOL    HW242159   9.624  13.193   9.772
13443SOL     OW42160   1.215   2.093   7.234
13443SOL    HW142161   1.184   2.119   7.147
13443SOL    HW242162   1.310   2.096   7.227
13444SOL     OW42163   6.664   7.436   7.274
13444SOL    HW142164   6.757   7.438   7.252
13444SOL    HW242165   6.620   7.468   7.195
13445SOL     OW42166   8.610   6.823   2.343
13445SOL    HW142167   8.659   6.741   2.335
13445SOL    HW242168   8.599   6.835   2.437
13446SOL     OW42169   3.998  13.952   6.543
13446SOL    HW142170   3.999  14.000   6.460
13446SOL    HW242171   3.907  13.925   6.554
13447SOL     OW42172  11.320   7.506   6.375
13447SOL    HW142173  11.319   7.445   6.449
13447SOL    HW242174  11.363   7.457   6.305
13448SOL     OW42175  12.514   8.507   1.532
13448SOL    HW142176  12.512   8.569   1.605
13448SOL    HW242177  12.559   8.430   1.567
13449SOL     OW42178   4.153   6.410  14.164
13449SOL    HW142179   4.242   6.428  14.132
13449SOL    HW242180   4.128   6.491  14.209
13450SOL     OW42181   7.143   6.782  14.088
13450SOL    HW142182   7.199   6.829  14.027
13450SOL    HW242183   7.112   6.706  14.039
13451SOL     OW42184  10.480   4.361  14.104
13451SOL    HW142185  10.572   4.334  14.110
13451SOL    HW242186  10.440   4.299  14.043
13452SOL     OW42187   1.868   9.894   4.652
13452SOL    HW142188   1.938   9.959   4.657
13452SOL    HW242189   1.854   9.867   4.743
13453SOL     OW42190   2.564  14.797   2.068
13453SOL    HW142191   2.495  14.760   2.123
13453SOL    HW242192   2.534  14.780   1.978
13454SOL     OW42193  14.042   6.863  12.895
13454SOL    HW142194  14.014   6.863  12.986
13454SOL    HW242195  13.967   6.827  12.846
13455SOL     OW42196  12.226  11.138  13.847
13455SOL    HW142197  12.218  11.226  13.885
13455SOL    HW242198  12.158  11.087  13.890
13456SOL     OW42199  13.403   7.138   9.884
13456SOL    HW142200  13.363   7.156   9.969
13456SOL    HW242201  13.446   7.220   9.860
13457SOL     OW42202   7.708  10.130   2.081
13457SOL    HW142203   7.650  10.103   2.153
13457SOL    HW242204   7.772  10.188   2.123
13458SOL     OW42205   6.946  13.744   2.065
13458SOL    HW142206   7.020  13.803   2.050
13458SOL    HW242207   6.966  13.701   2.148
13459SOL     OW42208  13.023   9.294   0.455
13459SOL    HW142209  13.080   9.236   0.405
13459SOL    HW242210  13.073   9.374   0.466
13460SOL     OW42211   1.568   5.149   9.586
13460SOL    HW142212   1.635   5.081   9.593
13460SOL    HW242213   1.526   5.134   9.502
13461SOL     OW42214   4.115   4.903   0.453
13461SOL    HW142215   4.155   4.816   0.459
13461SOL    HW242216   4.074   4.916   0.538
13462SOL     OW42217   1.479  14.819  10.476
13462SOL    HW142218   1.455  14.730  10.451
13462SOL    HW242219   1.420  14.841  10.547
13463SOL     OW42220   4.445   5.145   2.395
13463SOL    HW142221   4.518   5.086   2.377
13463SOL    HW242222   4.415   5.121   2.483
13464SOL     OW42223   0.305   6.101   5.641
13464SOL    HW142224   0.256   6.041   5.585
13464SOL    HW242225   0.239   6.138   5.699
13465SOL     OW42226   6.639   7.411   4.184
13465SOL    HW142227   6.569   7.371   4.132
13465SOL    HW242228   6.661   7.345   4.250
13466SOL     OW42229   6.021   2.507   6.596
13466SOL    HW142230   6.046   2.445   6.665
13466SOL    HW242231   5.926   2.516   6.605
13467SOL     OW42232   9.463  12.145  12.714
13467SOL    HW142233   9.434  12.223  12.665
13467SOL    HW242234   9.542  12.173  12.760
13468SOL     OW42235   6.526  14.825   7.223
13468SOL    HW142236   6.574  14.799   7.145
13468SOL    HW242237   6.483  14.744   7.252
13469SOL     OW42238   6.407   5.217   2.869
13469SOL    HW142239   6.398   5.178   2.956
13469SOL    HW242240   6.489   5.265   2.873
13470SOL     OW42241   4.758   1.578   2.954
13470SOL    HW142242   4.668   1.544   2.962
13470SOL    HW242243   4.787   1.546   2.868
13471SOL     OW42244   1.394   3.023  10.319
13471SOL    HW142245   1.415   3.019  10.226
13471SOL    HW242246   1.479   3.015  10.363
13472SOL     OW42247  14.841  12.728   3.297
13472SOL    HW142248  14.838  12.814   3.255
13472SOL    HW242249  14.847  12.666   3.224
13473SOL     OW42250   6.077  12.245   7.646
13473SOL    HW142251   6.114  12.196   7.573
13473SOL    HW242252   6.055  12.331   7.610
13474SOL     OW42253   9.916   1.056  11.534
13474SOL    HW142254   9.835   1.042  11.485
13474SOL    HW242255   9.943   0.968  11.560
13475SOL     OW42256  11.036   4.429   5.130
13475SOL    HW142257  10.950   4.416   5.090
13475SOL    HW242258  11.049   4.351   5.185
13476SOL     OW42259   8.424   9.369   8.175
13476SOL    HW142260   8.386   9.369   8.263
13476SOL    HW242261   8.352   9.396   8.118
13477SOL     OW42262  11.336   9.234   1.012
13477SOL    HW142263  11.319   9.328   1.023
13477SOL    HW242264  11.346   9.223   0.917
13478SOL     OW42265  11.064   6.321   3.689
13478SOL    HW142266  10.976   6.339   3.724
13478SOL    HW242267  11.123   6.348   3.759
13479SOL     OW42268   7.788   3.842  14.339
13479SOL    HW142269   7.812   3.787  14.414
13479SOL    HW242270   7.859   3.827  14.276
13480SOL     OW42271   3.524  12.150   3.785
13480SOL    HW142272   3.482  12.124   3.867
13480SOL    HW242273   3.519  12.245   3.785
13481SOL     OW42274   3.646   8.217   5.650
13481SOL    HW142275   3.696   8.277   5.706
13481SOL    HW242276   3.556   8.248   5.656
13482SOL     OW42277  10.227  10.099   0.819
13482SOL    HW142278  10.192  10.182   0.854
13482SOL    HW242279  10.297  10.076   0.880
13483SOL     OW42280  11.954   2.101  13.310
13483SOL    HW142281  11.996   2.098  13.224
13483SOL    HW242282  11.895   2.026  13.311
13484SOL     OW42283  13.155  10.289   7.616
13484SOL    HW142284  13.221  10.358   7.612
13484SOL    HW242285  13.204  10.210   7.641
13485SOL     OW42286  13.878  13.000  12.721
13485SOL    HW142287  13.921  12.922  12.685
13485SOL    HW242288  13.788  12.995  12.688
13486SOL     OW42289  14.878  14.598  13.572
13486SOL    HW142290   0.049  14.527  13.609
13486SOL    HW242291  14.833  14.636  13.648
13487SOL     OW42292   9.531  12.542   2.502
13487SOL    HW142293   9.547  12.627   2.544
13487SOL    HW242294   9.471  12.563   2.430
13488SOL     OW42295  10.471   1.448   6.185
13488SOL    HW142296  10.450   1.526   6.133
13488SOL    HW242297  10.402   1.385   6.163
13489SOL     OW42298   4.590   6.146   8.796
13489SOL    HW142299   4.511   6.108   8.756
13489SOL    HW242300   4.564   6.236   8.818
13490SOL     OW42301   1.814   4.009   2.349
13490SOL    HW142302   1.771   4.062   2.282
13490SOL    HW242303   1.758   4.018   2.427
13491SOL     OW42304  11.111   6.536   7.873
13491SOL    HW142305  11.198   6.496   7.878
13491SOL    HW242306  11.076   6.505   7.789
13492SOL     OW42307  11.777   5.253   9.556
13492SOL    HW142308  11.746   5.338   9.525
13492SOL    HW242309  11.711   5.225   9.620
13493SOL     OW42310   2.282  11.187  13.367
13493SOL    HW142311   2.363  11.154  13.406
13493SOL    HW242312   2.311  11.234  13.289
13494SOL     OW42313   4.797   3.531   2.830
13494SOL    HW142314   4.799   3.444   2.791
13494SOL    HW242315   4.842   3.520   2.914
13495SOL     OW42316   4.933   4.348   0.421
13495SOL    HW142317   4.871   4.420   0.436
13495SOL    HW242318   4.879   4.277   0.386
13496SOL     OW42319   4.553   8.395   8.061
13496SOL    HW142320   4.619   8.439   8.008
13496SOL    HW242321   4.602   8.329   8.110
13497SOL     OW42322   9.651   7.450   9.593
13497SOL    HW142323   9.620   7.422   9.679
13497SOL    HW242324   9.572   7.478   9.547
13498SOL     OW42325   3.368  12.427   1.190
13498SOL    HW142326   3.395  12.392   1.105
13498SOL    HW242327   3.405  12.365   1.254
13499SOL     OW42328  10.513   9.579   0.728
13499SOL    HW142329  10.499   9.671   0.705
13499SOL    HW242330  10.604   9.562   0.701
13500SOL     OW42331  13.204  14.817   8.641
13500SOL    HW142332  13.179   0.027   8.632
13500SOL    HW242333  13.296  14.815   8.616
13501SOL     OW42334  13.673   2.878   7.607
13501SOL    HW142335  13.679   2.840   7.519
13501SOL    HW242336  13.763   2.897   7.631
13502SOL     OW42337   5.405  12.924  13.036
13502SOL    HW142338   5.448  12.949  12.954
13502SOL    HW242339   5.312  12.933  13.018
13503SOL     OW42340   0.826   8.664   5.703
13503SOL    HW142341   0.749   8.665   5.646
13503SOL    HW242342   0.898   8.690   5.646
13504SOL     OW42343   2.937  10.655   5.261
13504SOL    HW142344   2.881  10.729   5.238
13504SOL    HW242345   3.019  10.672   5.214
13505SOL     OW42346   6.840   6.278   6.204
13505SOL    HW142347   6.833   6.370   6.229
13505SOL    HW242348   6.863   6.279   6.111
13506SOL     OW42349   3.427   1.712   5.129
13506SOL    HW142350   3.382   1.756   5.057
13506SOL    HW242351   3.502   1.670   5.087
13507SOL     OW42352   8.850   7.881   0.869
13507SOL    HW142353   8.916   7.928   0.920
13507SOL    HW242354   8.779   7.865   0.930
13508SOL     OW42355  13.751  13.462  11.786
13508SOL    HW142356  13.792  13.390  11.739
13508SOL    HW242357  13.702  13.420  11.857
13509SOL     OW42358   5.885  13.853   0.756
13509SOL    HW142359   5.941  13.777   0.740
13509SOL    HW242360   5.895  13.872   0.849
13510SOL     OW42361   2.681   8.515   4.342
13510SOL    HW142362   2.625   8.589   4.366
13510SOL    HW242363   2.688   8.464   4.422
13511SOL     OW42364   0.224  13.963   8.341
13511SOL    HW142365   0.307  13.936   8.301
13511SOL    HW242366   0.247  14.042   8.390
13512SOL     OW42367   0.801  10.866   5.979
13512SOL    HW142368   0.851  10.828   6.051
13512SOL    HW242369   0.711  10.866   6.010
13513SOL     OW42370   8.618   0.899  12.077
13513SOL    HW142371   8.555   0.843  12.033
13513SOL    HW242372   8.680   0.838  12.118
13514SOL     OW42373   8.217   9.350   1.237
13514SOL    HW142374   8.260   9.324   1.319
13514SOL    HW242375   8.131   9.381   1.264
13515SOL     OW42376   9.931   4.136   6.025
13515SOL    HW142377   9.850   4.146   5.976
13515SOL    HW242378   9.906   4.089   6.104
13516SOL     OW42379  14.399   1.217   0.596
13516SOL    HW142380  14.459   1.286   0.569
13516SOL    HW242381  14.454   1.151   0.638
13517SOL     OW42382   7.406   1.534  11.415
13517SOL    HW142383   7.478   1.596  11.407
13517SOL    HW242384   7.448   1.448  11.416
13518SOL     OW42385   5.683   1.344  11.604
13518SOL    HW142386   5.679   1.432  11.566
13518SOL    HW242387   5.656   1.286  11.533
13519SOL     OW42388   6.385  11.904  12.474
13519SOL    HW142389   6.405  11.919  12.567
13519SOL    HW242390   6.439  11.829  12.450
13520SOL     OW42391   9.972   1.453   6.229
13520SOL    HW142392   9.965   1.527   6.290
13520SOL    HW242393  10.038   1.481   6.165
13521SOL     OW42394   4.590   1.255   8.056
13521SOL    HW142395   4.600   1.306   7.976
13521SOL    HW242396   4.642   1.176   8.041
13522SOL     OW42397  13.948  11.058  11.569
13522SOL    HW142398  14.026  11.052  11.625
13522SOL    HW242399  13.937  11.152  11.553
13523SOL     OW42400   1.208  14.378   9.747
13523SOL    HW142401   1.201  14.290   9.785
13523SOL    HW242402   1.229  14.434   9.821
13524SOL     OW42403   4.456   1.581  12.012
13524SOL    HW142404   4.414   1.655  12.056
13524SOL    HW242405   4.383   1.525  11.984
13525SOL     OW42406   5.428  11.852  11.357
13525SOL    HW142407   5.468  11.787  11.414
13525SOL    HW242408   5.350  11.881  11.405
13526SOL     OW42409   0.114  12.581  13.532
13526SOL    HW142410   0.142  12.666  13.566
13526SOL    HW242411   0.123  12.521  13.606
13527SOL     OW42412   8.761  14.508   3.159
13527SOL    HW142413   8.846  14.532   3.122
13527SOL    HW242414   8.758  14.554   3.243
13528SOL     OW42415   2.850  12.681   6.775
13528SOL    HW142416   2.893  12.742   6.834
13528SOL    HW242417   2.895  12.597   6.789
13529SOL     OW42418  14.773   9.153   3.970
13529SOL    HW142419  14.740   9.144   3.880
13529SOL    HW242420  14.865   9.126   3.965
13530SOL     OW42421  11.946   9.791  14.298
13530SOL    HW142422  11.908   9.716  14.344
13530SOL    HW242423  11.986   9.845  14.366
13531SOL     OW42424   1.432  10.044  12.621
13531SOL    HW142425   1.459   9.961  12.582
13531SOL    HW242426   1.470  10.111  12.564
13532SOL     OW42427   1.303   6.427   1.143
13532SOL    HW142428   1.319   6.412   1.236
13532SOL    HW242429   1.309   6.339   1.103
13533SOL     OW42430   8.727  11.331   6.134
13533SOL    HW142431   8.817  11.363   6.126
13533SOL    HW242432   8.722  11.258   6.073
13534SOL     OW42433  12.318   6.610   7.475
13534SOL    HW142434  12.304   6.645   7.387
13534SOL    HW242435  12.400   6.649   7.504
13535SOL     OW42436   7.202   4.006  10.802
13535SOL    HW142437   7.235   4.079  10.854
13535SOL    HW242438   7.232   4.024  10.713
13536SOL     OW42439  14.854   3.246   0.764
13536SOL    HW142440  14.833   3.195   0.842
13536SOL    HW242441  14.871   3.180   0.697
13537SOL     OW42442   4.436  14.408   5.405
13537SOL    HW142443   4.480  14.451   5.478
13537SOL    HW242444   4.484  14.326   5.392
13538SOL     OW42445   9.781   1.057   0.208
13538SOL    HW142446   9.839   1.133   0.206
13538SOL    HW242447   9.837   0.984   0.182
13539SOL     OW42448   1.085  10.228   0.420
13539SOL    HW142449   0.989  10.225   0.423
13539SOL    HW242450   1.111  10.136   0.426
13540SOL     OW42451   3.830   8.779  10.186
13540SOL    HW142452   3.739   8.781  10.155
13540SOL    HW242453   3.856   8.871  10.188
13541SOL     OW42454  11.107   7.508   5.731
13541SOL    HW142455  11.063   7.511   5.646
13541SOL    HW242456  11.198   7.531   5.713
13542SOL     OW42457   5.312  13.677  10.685
13542SOL    HW142458   5.248  13.728  10.734
13542SOL    HW242459   5.391  13.731  10.685
13543SOL     OW42460  11.665   0.647   7.499
13543SOL    HW142461  11.607   0.721   7.516
13543SOL    HW242462  11.637   0.580   7.562
13544SOL     OW42463   4.891  11.137   0.950
13544SOL    HW142464   4.890  11.158   1.044
13544SOL    HW242465   4.837  11.058   0.942
13545SOL     OW42466   8.639  13.698   0.141
13545SOL    HW142467   8.584  13.711   0.219
13545SOL    HW242468   8.587  13.734   0.069
13546SOL     OW42469   0.054  14.519   6.089
13546SOL    HW142470   0.003  14.500   6.168
13546SOL    HW242471   0.065  14.614   6.090
13547SOL     OW42472   0.590  13.476   5.423
13547SOL    HW142473   0.496  13.469   5.411
13547SOL    HW242474   0.614  13.399   5.476
13548SOL     OW42475  10.427   4.383   7.457
13548SOL    HW142476  10.419   4.442   7.382
13548SOL    HW242477  10.340   4.383   7.497
13549SOL     OW42478  10.100  12.882   3.783
13549SOL    HW142479  10.034  12.849   3.843
13549SOL    HW242480  10.138  12.957   3.828
13550SOL     OW42481   4.631  12.405  11.628
13550SOL    HW142482   4.597  12.482  11.672
13550SOL    HW242483   4.678  12.357  11.696
13551SOL     OW42484   1.945  11.696   4.406
13551SOL    HW142485   2.031  11.675   4.372
13551SOL    HW242486   1.884  11.673   4.336
13552SOL     OW42487  12.561   3.791   4.133
13552SOL    HW142488  12.468   3.771   4.141
13552SOL    HW242489  12.565   3.860   4.067
13553SOL     OW42490  14.302   4.513   6.813
13553SOL    HW142491  14.300   4.508   6.718
13553SOL    HW242492  14.394   4.524   6.835
13554SOL     OW42493   4.756  12.261  12.164
13554SOL    HW142494   4.811  12.289  12.237
13554SOL    HW242495   4.668  12.256  12.201
13555SOL     OW42496   4.578   8.263   3.812
13555SOL    HW142497   4.568   8.315   3.731
13555SOL    HW242498   4.529   8.183   3.795
13556SOL     OW42499   1.950  12.676  12.126
13556SOL    HW142500   2.015  12.744  12.108
13556SOL    HW242501   2.002  12.599  12.151
13557SOL     OW42502  12.062  12.982   9.067
13557SOL    HW142503  12.056  13.077   9.076
13557SOL    HW242504  12.056  12.967   8.973
13558SOL     OW42505   5.697   1.793   9.719
13558SOL    HW142506   5.772   1.746   9.681
13558SOL    HW242507   5.640   1.812   9.645
13559SOL     OW42508   9.291  12.814   3.079
13559SOL    HW142509   9.339  12.867   3.015
13559SOL    HW242510   9.358  12.759   3.119
13560SOL     OW42511  14.697  11.165   4.716
13560SOL    HW142512  14.765  11.130   4.660
13560SOL    HW242513  14.729  11.252   4.741
13561SOL     OW42514   2.461   8.862  12.670
13561SOL    HW142515   2.415   8.843  12.752
13561SOL    HW242516   2.411   8.814  12.604
13562SOL     OW42517  12.868   5.675   2.404
13562SOL    HW142518  12.834   5.609   2.464
13562SOL    HW242519  12.802   5.679   2.334
13563SOL     OW42520   1.697   2.429  10.940
13563SOL    HW142521   1.765   2.495  10.927
13563SOL    HW242522   1.710   2.399  11.030
13564SOL     OW42523  12.096   5.202  10.424
13564SOL    HW142524  12.016   5.164  10.389
13564SOL    HW242525  12.166   5.145  10.391
13565SOL     OW42526   7.584   6.467   0.665
13565SOL    HW142527   7.591   6.417   0.746
13565SOL    HW242528   7.620   6.409   0.598
13566SOL     OW42529  10.910  13.738   2.463
13566SOL    HW142530  10.903  13.646   2.490
13566SOL    HW242531  10.963  13.779   2.531
13567SOL     OW42532   7.193   2.964   8.126
13567SOL    HW142533   7.111   2.989   8.167
13567SOL    HW242534   7.259   3.017   8.171
13568SOL     OW42535   2.627   0.158   3.024
13568SOL    HW142536   2.607   0.152   2.930
13568SOL    HW242537   2.635   0.067   3.052
13569SOL     OW42538   5.477  14.461   0.949
13569SOL    HW142539   5.422  14.507   0.886
13569SOL    HW242540   5.519  14.391   0.898
13570SOL     OW42541  12.350  13.097   9.172
13570SOL    HW142542  12.316  13.010   9.196
13570SOL    HW242543  12.444  13.089   9.181
13571SOL     OW42544   7.882   6.185   1.962
13571SOL    HW142545   7.923   6.115   2.014
13571SOL    HW242546   7.916   6.172   1.874
13572SOL     OW42547   5.263   5.630   3.009
13572SOL    HW142548   5.334   5.658   3.067
13572SOL    HW242549   5.211   5.570   3.062
13573SOL     OW42550   9.846  12.280   6.438
13573SOL    HW142551   9.790  12.203   6.442
13573SOL    HW242552   9.828  12.328   6.519
13574SOL     OW42553   3.609   1.976   9.409
13574SOL    HW142554   3.661   2.030   9.468
13574SOL    HW242555   3.639   2.000   9.322
13575SOL     OW42556   9.145  10.188   7.788
13575SOL    HW142557   9.239  10.195   7.776
13575SOL    HW242558   9.133  10.188   7.883
13576SOL     OW42559   0.416   6.886   9.732
13576SOL    HW142560   0.489   6.826   9.716
13576SOL    HW242561   0.455   6.959   9.779
13577SOL     OW42562   0.292   4.357   0.561
13577SOL    HW142563   0.311   4.402   0.643
13577SOL    HW242564   0.377   4.347   0.518
13578SOL     OW42565   5.267   3.414   8.561
13578SOL    HW142566   5.243   3.444   8.473
13578SOL    HW242567   5.188   3.429   8.613
13579SOL     OW42568   6.933  13.284   3.773
13579SOL    HW142569   6.935  13.246   3.686
13579SOL    HW242570   6.983  13.366   3.765
13580SOL     OW42571   3.435   4.691   6.924
13580SOL    HW142572   3.371   4.638   6.876
13580SOL    HW242573   3.403   4.781   6.916
13581SOL     OW42574   6.370   4.022   8.727
13581SOL    HW142575   6.306   4.019   8.798
13581SOL    HW242576   6.409   3.934   8.727
13582SOL     OW42577   0.608   9.391   8.844
13582SOL    HW142578   0.554   9.327   8.889
13582SOL    HW242579   0.658   9.434   8.914
13583SOL     OW42580   4.534  12.939   0.682
13583SOL    HW142581   4.499  12.976   0.600
13583SOL    HW242582   4.526  13.010   0.745
13584SOL     OW42583  14.474  10.255   3.028
13584SOL    HW142584  14.506  10.229   2.941
13584SOL    HW242585  14.478  10.174   3.079
13585SOL     OW42586   6.446  10.628  12.517
13585SOL    HW142587   6.389  10.561  12.553
13585SOL    HW242588   6.387  10.688  12.471
13586SOL     OW42589   9.748  13.237   5.394
13586SOL    HW142590   9.679  13.290   5.432
13586SOL    HW242591   9.785  13.188   5.469
13587SOL     OW42592   5.910  13.914  12.782
13587SOL    HW142593   5.946  13.887  12.697
13587SOL    HW242594   5.870  13.834  12.817
13588SOL     OW42595   0.059  13.908  11.394
13588SOL    HW142596   0.147  13.883  11.422
13588SOL    HW242597   0.037  13.983  11.449
13589SOL     OW42598   8.433   8.014  12.493
13589SOL    HW142599   8.512   8.056  12.461
13589SOL    HW242600   8.457   7.979  12.579
13590SOL     OW42601  11.947   4.559   6.983
13590SOL    HW142602  11.982   4.485   6.932
13590SOL    HW242603  11.861   4.529   7.013
13591SOL     OW42604  11.524  10.235  11.329
13591SOL    HW142605  11.476  10.158  11.361
13591SOL    HW242606  11.590  10.251  11.396
13592SOL     OW42607   2.998   8.656   2.798
13592SOL    HW142608   3.036   8.732   2.752
13592SOL    HW242609   3.069   8.623   2.853
13593SOL     OW42610   3.485  14.309  11.997
13593SOL    HW142611   3.563  14.355  12.030
13593SOL    HW242612   3.419  14.321  12.065
13594SOL     OW42613  11.925   2.042   6.212
13594SOL    HW142614  11.903   2.068   6.302
13594SOL    HW242615  12.018   2.021   6.216
13595SOL     OW42616   8.101   9.982  11.563
13595SOL    HW142617   8.196   9.985  11.573
13595SOL    HW242618   8.076  10.071  11.541
13596SOL     OW42619   6.186   9.543   2.959
13596SOL    HW142620   6.159   9.455   2.982
13596SOL    HW242621   6.105   9.591   2.944
13597SOL     OW42622  14.437   3.952   1.747
13597SOL    HW142623  14.429   3.903   1.830
13597SOL    HW242624  14.431   4.044   1.773
13598SOL     OW42625   6.170   5.437   8.473
13598SOL    HW142626   6.119   5.357   8.486
13598SOL    HW242627   6.108   5.508   8.490
13599SOL     OW42628  11.271  12.312   7.085
13599SOL    HW142629  11.229  12.231   7.113
13599SOL    HW242630  11.365  12.293   7.085
13600SOL     OW42631  11.941  10.693   4.634
13600SOL    HW142632  11.949  10.702   4.539
13600SOL    HW242633  12.026  10.719   4.669
13601SOL     OW42634   8.169   6.969   1.225
13601SOL    HW142635   8.166   7.037   1.158
13601SOL    HW242636   8.201   6.892   1.179
13602SOL     OW42637  10.683  11.721   0.858
13602SOL    HW142638  10.670  11.680   0.943
13602SOL    HW242639  10.717  11.651   0.802
13603SOL     OW42640   5.011   5.813   3.738
13603SOL    HW142641   4.957   5.887   3.711
13603SOL    HW242642   5.088   5.817   3.682
13604SOL     OW42643   6.323   9.845  14.098
13604SOL    HW142644   6.292   9.869  14.185
13604SOL    HW242645   6.384   9.914  14.073
13605SOL     OW42646  12.171  12.771  13.616
13605SOL    HW142647  12.119  12.746  13.540
13605SOL    HW242648  12.231  12.837  13.583
13606SOL     OW42649  11.501   4.643   0.882
13606SOL    HW142650  11.476   4.680   0.966
13606SOL    HW242651  11.579   4.590   0.902
13607SOL     OW42652  14.422   1.031  11.293
13607SOL    HW142653  14.443   0.971  11.364
13607SOL    HW242654  14.436   0.979  11.213
13608SOL     OW42655   1.604   8.061   5.326
13608SOL    HW142656   1.602   7.994   5.395
13608SOL    HW242657   1.650   8.135   5.365
13609SOL     OW42658   1.146   8.204  14.329
13609SOL    HW142659   1.051   8.192  14.338
13609SOL    HW242660   1.171   8.254  14.407
13610SOL     OW42661   0.117  13.244  11.502
13610SOL    HW142662   0.062  13.269  11.427
13610SOL    HW242663   0.089  13.154  11.523
13611SOL     OW42664   1.238   3.896  13.564
13611SOL    HW142665   1.289   3.911  13.644
13611SOL    HW242666   1.294   3.930  13.494
13612SOL     OW42667  12.352   5.644   1.756
13612SOL    HW142668  12.289   5.709   1.725
13612SOL    HW242669  12.300   5.565   1.772
13613SOL     OW42670   2.158   3.216   4.443
13613SOL    HW142671   2.130   3.137   4.489
13613SOL    HW242672   2.208   3.265   4.509
13614SOL     OW42673   2.281  11.285   6.882
13614SOL    HW142674   2.257  11.193   6.893
13614SOL    HW242675   2.199  11.330   6.864
13615SOL     OW42676   2.852   2.304   0.995
13615SOL    HW142677   2.910   2.380   0.985
13615SOL    HW242678   2.788   2.313   0.924
13616SOL     OW42679  11.353  14.672   6.041
13616SOL    HW142680  11.275  14.648   5.990
13616SOL    HW242681  11.390  14.748   5.995
13617SOL     OW42682   2.300  13.808   0.963
13617SOL    HW142683   2.231  13.808   1.029
13617SOL    HW242684   2.293  13.723   0.920
13618SOL     OW42685  14.858  14.777   5.799
13618SOL    HW142686   0.010  14.721   5.869
13618SOL    HW242687  14.763  14.772   5.807
13619SOL     OW42688   0.073   3.197   9.248
13619SOL    HW142689   0.053   3.280   9.291
13619SOL    HW242690   0.143   3.219   9.186
13620SOL     OW42691   0.078   1.500   9.991
13620SOL    HW142692   0.019   1.575   9.999
13620SOL    HW242693   0.057   1.463   9.905
13621SOL     OW42694  12.086  14.488  12.406
13621SOL    HW142695  12.041  14.474  12.490
13621SOL    HW242696  12.062  14.577  12.381
13622SOL     OW42697   8.146   5.457   6.027
13622SOL    HW142698   8.065   5.428   5.985
13622SOL    HW242699   8.211   5.392   6.001
13623SOL     OW42700  13.762   0.924  12.585
13623SOL    HW142701  13.720   0.844  12.553
13623SOL    HW242702  13.706   0.995  12.553
13624SOL     OW42703   7.015  13.258   6.228
13624SOL    HW142704   7.020  13.253   6.323
13624SOL    HW242705   7.098  13.297   6.201
13625SOL     OW42706   2.210   3.251   1.414
13625SOL    HW142707   2.133   3.306   1.432
13625SOL    HW242708   2.174   3.163   1.400
13626SOL     OW42709   2.466   1.996   6.210
13626SOL    HW142710   2.473   2.078   6.161
13626SOL    HW242711   2.389   2.009   6.266
13627SOL     OW42712   2.427  12.839   5.594
13627SOL    HW142713   2.416  12.934   5.590
13627SOL    HW242714   2.407  12.809   5.506
13628SOL     OW42715   7.758   8.862  10.994
13628SOL    HW142716   7.730   8.939  10.944
13628SOL    HW242717   7.686   8.843  11.053
13629SOL     OW42718   3.457   9.710   3.437
13629SOL    HW142719   3.435   9.800   3.411
13629SOL    HW242720   3.517   9.680   3.369
13630SOL     OW42721   7.622   6.159  13.847
13630SOL    HW142722   7.672   6.126  13.772
13630SOL    HW242723   7.532   6.131  13.831
13631SOL     OW42724   7.754   4.199  14.393
13631SOL    HW142725   7.818   4.139  14.356
13631SOL    HW242726   7.771   4.198  14.487
13632SOL     OW42727   4.516   7.234   3.396
13632SOL    HW142728   4.503   7.296   3.325
13632SOL    HW242729   4.430   7.192   3.407
13633SOL     OW42730  12.994   8.197   1.371
13633SOL    HW142731  13.085   8.223   1.365
13633SOL    HW242732  12.993   8.106   1.340
13634SOL     OW42733   6.554  10.215   8.319
13634SOL    HW142734   6.568  10.310   8.323
13634SOL    HW242735   6.569  10.184   8.408
13635SOL     OW42736  10.466   0.547  11.661
13635SOL    HW142737  10.534   0.614  11.656
13635SOL    HW242738  10.479   0.506  11.747
13636SOL     OW42739   0.323  13.209  11.254
13636SOL    HW142740   0.314  13.259  11.335
13636SOL    HW242741   0.416  13.188  11.248
13637SOL     OW42742  13.724   6.261  14.103
13637SOL    HW142743  13.745   6.168  14.096
13637SOL    HW242744  13.659   6.265  14.173
13638SOL     OW42745  11.636   9.013   0.059
13638SOL    HW142746  11.570   9.070   0.100
13638SOL    HW242747  11.720   9.048   0.089
13639SOL     OW42748   5.675   3.450  11.987
13639SOL    HW142749   5.761   3.488  12.003
13639SOL    HW242750   5.614   3.521  12.005
13640SOL     OW42751   9.601   2.615  13.167
13640SOL    HW142752   9.512   2.583  13.182
13640SOL    HW242753   9.589   2.704  13.132
13641SOL     OW42754   3.563   4.221   4.459
13641SOL    HW142755   3.471   4.244   4.448
13641SOL    HW242756   3.611   4.284   4.406
13642SOL     OW42757   3.373   7.955  12.542
13642SOL    HW142758   3.394   7.931  12.451
13642SOL    HW242759   3.455   7.988  12.578
13643SOL     OW42760   3.579   0.360  11.504
13643SOL    HW142761   3.523   0.285  11.522
13643SOL    HW242762   3.648   0.356  11.570
13644SOL     OW42763  10.057   7.435  13.748
13644SOL    HW142764   9.962   7.434  13.764
13644SOL    HW242765  10.077   7.348  13.715
13645SOL     OW42766  10.099   4.396   4.912
13645SOL    HW142767  10.011   4.427   4.936
13645SOL    HW242768  10.130   4.459   4.847
13646SOL     OW42769   3.880   7.442   8.740
13646SOL    HW142770   3.888   7.405   8.828
13646SOL    HW242771   3.884   7.367   8.682
13647SOL     OW42772   7.625   7.659   2.270
13647SOL    HW142773   7.693   7.640   2.206
13647SOL    HW242774   7.605   7.752   2.257
13648SOL     OW42775   3.278   5.195  12.474
13648SOL    HW142776   3.241   5.108  12.489
13648SOL    HW242777   3.259   5.213  12.382
13649SOL     OW42778   2.423   8.626   0.031
13649SOL    HW142779   2.500   8.673   0.062
13649SOL    HW242780   2.377   8.688  14.857
13650SOL     OW42781  14.192   6.473   3.214
13650SOL    HW142782  14.276   6.428   3.208
13650SOL    HW242783  14.131   6.407   3.245
13651SOL     OW42784   5.285  11.301   2.092
13651SOL    HW142785   5.269  11.395   2.093
13651SOL    HW242786   5.380  11.293   2.087
13652SOL     OW42787  11.984   4.441   3.507
13652SOL    HW142788  11.967   4.389   3.586
13652SOL    HW242789  11.920   4.512   3.511
13653SOL     OW42790   4.261  13.196   0.600
13653SOL    HW142791   4.230  13.131   0.664
13653SOL    HW242792   4.279  13.145   0.521
13654SOL     OW42793   0.878   1.694   0.181
13654SOL    HW142794   0.959   1.731   0.146
13654SOL    HW242795   0.905   1.615   0.228
13655SOL     OW42796  12.052   1.836  12.460
13655SOL    HW142797  11.987   1.826  12.390
13655SOL    HW242798  12.006   1.810  12.540
13656SOL     OW42799   4.987   2.448   8.896
13656SOL    HW142800   5.079   2.463   8.915
13656SOL    HW242801   4.985   2.363   8.853
13657SOL     OW42802   4.358  12.876   4.991
13657SOL    HW142803   4.429  12.839   5.044
13657SOL    HW242804   4.302  12.802   4.970
13658SOL     OW42805  10.578  13.860  14.747
13658SOL    HW142806  10.621  13.778  14.771
13658SOL    HW242807  10.494  13.857  14.792
13659SOL     OW42808  11.366  12.851  14.567
13659SOL    HW142809  11.287  12.816  14.609
13659SOL    HW242810  11.353  12.946  14.568
13660SOL     OW42811  12.662  12.002   9.659
13660SOL    HW142812  12.700  12.058   9.592
13660SOL    HW242813  12.693  11.914   9.637
13661SOL     OW42814  13.246  14.127  10.483
13661SOL    HW142815  13.206  14.213  10.471
13661SOL    HW242816  13.315  14.142  10.548
13662SOL     OW42817   1.149   2.732   4.489
13662SOL    HW142818   1.096   2.787   4.431
13662SOL    HW242819   1.237   2.734   4.451
13663SOL     OW42820   6.988   3.878  10.010
13663SOL    HW142821   6.942   3.798   9.983
13663SOL    HW242822   6.965   3.890  10.102
13664SOL     OW42823  11.986   9.882   2.719
13664SOL    HW142824  11.938   9.800   2.733
13664SOL    HW242825  11.970   9.904   2.628
13665SOL     OW42826  14.730   2.025   2.207
13665SOL    HW142827  14.707   1.937   2.237
13665SOL    HW242828  14.670   2.043   2.136
13666SOL     OW42829   0.552   9.061   1.403
13666SOL    HW142830   0.489   8.991   1.384
13666SOL    HW242831   0.620   9.050   1.337
13667SOL     OW42832  11.495   9.403   7.027
13667SOL    HW142833  11.490   9.482   7.081
13667SOL    HW242834  11.408   9.396   6.987
13668SOL     OW42835   1.878   3.780  12.476
13668SOL    HW142836   1.882   3.841  12.402
13668SOL    HW242837   1.846   3.699  12.438
13669SOL     OW42838   0.124   3.138  14.561
13669SOL    HW142839   0.196   3.172  14.614
13669SOL    HW242840   0.045   3.157  14.612
13670SOL     OW42841   6.588   3.693   7.132
13670SOL    HW142842   6.551   3.715   7.218
13670SOL    HW242843   6.636   3.612   7.147
13671SOL     OW42844   3.812   2.943  12.233
13671SOL    HW142845   3.841   2.887  12.305
13671SOL    HW242846   3.890   2.994  12.209
13672SOL     OW42847   9.068   2.885  11.449
13672SOL    HW142848   9.107   2.797  11.444
13672SOL    HW242849   9.037   2.892  11.539
13673SOL     OW42850   1.287  10.627   1.730
13673SOL    HW142851   1.235  10.657   1.805
13673SOL    HW242852   1.293  10.532   1.742
13674SOL     OW42853   2.279   4.018   1.017
13674SOL    HW142854   2.287   4.110   1.041
13674SOL    HW242855   2.240   4.019   0.929
13675SOL     OW42856   1.511   2.240  13.125
13675SOL    HW142857   1.464   2.182  13.064
13675SOL    HW242858   1.450   2.312  13.140
13676SOL     OW42859   0.088   2.425   8.773
13676SOL    HW142860   0.152   2.491   8.800
13676SOL    HW242861   0.130   2.380   8.699
13677SOL     OW42862  10.758   1.089  10.832
13677SOL    HW142863  10.714   1.169  10.803
13677SOL    HW242864  10.822   1.119  10.897
13678SOL     OW42865   1.635  13.116   0.331
13678SOL    HW142866   1.726  13.138   0.310
13678SOL    HW242867   1.588  13.198   0.318
13679SOL     OW42868   7.968   9.277  13.549
13679SOL    HW142869   7.919   9.195  13.550
13679SOL    HW242870   8.056   9.253  13.576
13680SOL     OW42871   1.336   9.800   8.573
13680SOL    HW142872   1.393   9.817   8.648
13680SOL    HW242873   1.310   9.709   8.583
13681SOL     OW42874  12.745   8.366   6.952
13681SOL    HW142875  12.694   8.443   6.926
13681SOL    HW242876  12.694   8.326   7.023
13682SOL     OW42877   9.497  13.731  14.447
13682SOL    HW142878   9.453  13.648  14.460
13682SOL    HW242879   9.491  13.748  14.353
13683SOL     OW42880   3.227   3.679   6.139
13683SOL    HW142881   3.244   3.738   6.213
13683SOL    HW242882   3.172   3.731   6.080
13684SOL     OW42883   7.191  11.263  12.158
13684SOL    HW142884   7.125  11.201  12.128
13684SOL    HW242885   7.241  11.216  12.224
13685SOL     OW42886  14.682  10.708  13.211
13685SOL    HW142887  14.626  10.631  13.206
13685SOL    HW242888  14.623  10.782  13.193
13686SOL     OW42889  12.939  12.761   9.960
13686SOL    HW142890  12.915  12.720   9.877
13686SOL    HW242891  12.862  12.812   9.985
13687SOL     OW42892  12.745  13.285   1.453
13687SOL    HW142893  12.681  13.333   1.504
13687SOL    HW242894  12.804  13.247   1.519
13688SOL     OW42895   2.359   8.649  10.087
13688SOL    HW142896   2.450   8.619  10.080
13688SOL    HW242897   2.335   8.629  10.178
13689SOL     OW42898   3.507   2.193  14.067
13689SOL    HW142899   3.459   2.270  14.038
13689SOL    HW242900   3.573   2.178  13.999
13690SOL     OW42901   2.709  14.207   3.536
13690SOL    HW142902   2.640  14.225   3.600
13690SOL    HW242903   2.664  14.166   3.463
13691SOL     OW42904   3.295  11.129   1.612
13691SOL    HW142905   3.357  11.176   1.557
13691SOL    HW242906   3.212  11.133   1.565
13692SOL     OW42907  12.680  13.804   2.624
13692SOL    HW142908  12.621  13.733   2.650
13692SOL    HW242909  12.640  13.839   2.544
13693SOL     OW42910   2.237   4.716  14.277
13693SOL    HW142911   2.212   4.783  14.340
13693SOL    HW242912   2.165   4.715  14.214
13694SOL     OW42913  14.441  12.248   0.004
13694SOL    HW142914  14.417  12.178   0.064
13694SOL    HW242915  14.437  12.327   0.057
13695SOL     OW42916  14.822   0.558   4.957
13695SOL    HW142917   0.004   0.609   4.907
13695SOL    HW242918  14.875   0.494   5.004
13696SOL     OW42919   4.084   2.211   7.239
13696SOL    HW142920   4.017   2.280   7.238
13696SOL    HW242921   4.038   2.133   7.209
13697SOL     OW42922   2.039  11.894   0.640
13697SOL    HW142923   2.095  11.818   0.625
13697SOL    HW242924   2.036  11.903   0.735
13698SOL     OW42925   3.622   9.313   9.630
13698SOL    HW142926   3.655   9.349   9.548
13698SOL    HW242927   3.700   9.294   9.682
13699SOL     OW42928   0.557   0.273  12.145
13699SOL    HW142929   0.479   0.217  12.148
13699SOL    HW242930   0.631   0.211  12.146
13700SOL     OW42931  12.743   3.283  12.116
13700SOL    HW142932  12.715   3.353  12.176
13700SOL    HW242933  12.838   3.279  12.127
13701SOL     OW42934   1.625  14.228   9.155
13701SOL    HW142935   1.715  14.262   9.157
13701SOL    HW242936   1.576  14.294   9.106
13702SOL     OW42937   5.003  14.695  11.616
13702SOL    HW142938   4.936  14.763  11.609
13702SOL    HW242939   4.959  14.622  11.661
13703SOL     OW42940   6.547  13.639   4.039
13703SOL    HW142941   6.518  13.654   4.129
13703SOL    HW242942   6.517  13.716   3.991
13704SOL     OW42943   2.253   7.901   7.171
13704SOL    HW142944   2.238   7.832   7.107
13704SOL    HW242945   2.227   7.863   7.255
13705SOL     OW42946   0.910   8.597   2.083
13705SOL    HW142947   0.984   8.620   2.138
13705SOL    HW242948   0.945   8.529   2.025
13706SOL     OW42949   3.879  13.824  12.360
13706SOL    HW142950   3.805  13.816  12.300
13706SOL    HW242951   3.876  13.914  12.392
13707SOL     OW42952   9.276   7.470   8.495
13707SOL    HW142953   9.213   7.504   8.558
13707SOL    HW242954   9.322   7.401   8.542
13708SOL     OW42955  13.327   2.449   6.941
13708SOL    HW142956  13.264   2.519   6.931
13708SOL    HW242957  13.278   2.378   6.984
13709SOL     OW42958   7.700   1.111  14.747
13709SOL    HW142959   7.696   1.022  14.715
13709SOL    HW242960   7.630   1.116  14.813
13710SOL     OW42961   1.818   3.692   4.778
13710SOL    HW142962   1.736   3.661   4.816
13710SOL    HW242963   1.824   3.649   4.693
13711SOL     OW42964  12.222   8.543   5.281
13711SOL    HW142965  12.225   8.578   5.192
13711SOL    HW242966  12.188   8.615   5.334
13712SOL     OW42967  13.621   5.180  14.351
13712SOL    HW142968  13.617   5.158  14.258
13712SOL    HW242969  13.574   5.109  14.395
13713SOL     OW42970   1.777   8.806  12.039
13713SOL    HW142971   1.734   8.839  12.118
13713SOL    HW242972   1.777   8.881  11.979
13714SOL     OW42973  14.217   6.699  11.308
13714SOL    HW142974  14.296   6.650  11.334
13714SOL    HW242975  14.147   6.661  11.361
13715SOL     OW42976  14.717  12.713   5.517
13715SOL    HW142977  14.746  12.699   5.607
13715SOL    HW242978  14.798  12.718   5.466
13716SOL     OW42979   9.784  13.996   8.711
13716SOL    HW142980   9.756  13.911   8.676
13716SOL    HW242981   9.704  14.037   8.743
13717SOL     OW42982   7.729  10.176   3.972
13717SOL    HW142983   7.638  10.195   3.950
13717SOL    HW242984   7.736  10.081   3.967
13718SOL     OW42985  10.211   1.144  14.060
13718SOL    HW142986  10.240   1.222  14.108
13718SOL    HW242987  10.116   1.150  14.059
13719SOL     OW42988  11.883   1.736   6.198
13719SOL    HW142989  11.791   1.726   6.173
13719SOL    HW242990  11.890   1.828   6.225
13720SOL     OW42991  11.848   1.921   5.541
13720SOL    HW142992  11.762   1.953   5.567
13720SOL    HW242993  11.847   1.927   5.445
13721SOL     OW42994   4.171   6.881  10.053
13721SOL    HW142995   4.197   6.952   9.994
13721SOL    HW242996   4.176   6.802   9.999
13722SOL     OW42997  14.511  14.517   2.025
13722SOL    HW142998  14.555  14.478   1.949
13722SOL    HW242999  14.422  14.482   2.022
13723SOL     OW43000  13.387  11.081  12.743
13723SOL    HW143001  13.390  11.143  12.816
13723SOL    HW243002  13.393  10.995  12.785
13724SOL     OW43003   1.578   0.062   8.723
13724SOL    HW143004   1.592  14.870   8.665
13724SOL    HW243005   1.656   0.117   8.711
13725SOL     OW43006   1.627  12.192  14.182
13725SOL    HW143007   1.593  12.113  14.141
13725SOL    HW243008   1.668  12.162  14.263
13726SOL     OW43009  13.079   3.865  11.011
13726SOL    HW143010  13.096   3.783  10.964
13726SOL    HW243011  13.040   3.838  11.094
13727SOL     OW43012  10.739   8.031  10.350
13727SOL    HW143013  10.792   8.090  10.405
13727SOL    HW243014  10.649   8.057  10.368
13728SOL     OW43015  11.196   8.990  13.662
13728SOL    HW143016  11.271   8.973  13.604
13728SOL    HW243017  11.197   9.085  13.674
13729SOL     OW43018   4.383  12.731   2.222
13729SOL    HW143019   4.456  12.793   2.211
13729SOL    HW243020   4.423  12.655   2.264
13730SOL     OW43021  13.386  10.013  13.699
13730SOL    HW143022  13.314  10.059  13.743
13730SOL    HW243023  13.465  10.049  13.740
13731SOL     OW43024   9.206   4.491  13.975
13731SOL    HW143025   9.183   4.429  13.906
13731SOL    HW243026   9.283   4.451  14.017
13732SOL     OW43027  12.971   9.585   3.058
13732SOL    HW143028  13.057   9.547   3.046
13732SOL    HW243029  12.968   9.658   2.996
13733SOL     OW43030   7.634  14.609   8.624
13733SOL    HW143031   7.697  14.570   8.564
13733SOL    HW243032   7.680  14.613   8.708
13734SOL     OW43033   3.710   1.632  12.917
13734SOL    HW143034   3.709   1.539  12.893
13734SOL    HW243035   3.723   1.678  12.834
13735SOL     OW43036   7.725  14.036   0.377
13735SOL    HW143037   7.757  13.950   0.350
13735SOL    HW243038   7.763  14.097   0.313
13736SOL     OW43039  13.566   2.454   1.076
13736SOL    HW143040  13.506   2.491   1.140
13736SOL    HW243041  13.546   2.360   1.077
13737SOL     OW43042  10.548   9.634   9.228
13737SOL    HW143043  10.616   9.567   9.237
13737SOL    HW243044  10.542   9.649   9.134
13738SOL     OW43045  10.883   0.560  12.667
13738SOL    HW143046  10.811   0.517  12.621
13738SOL    HW243047  10.845   0.592  12.748
13739SOL     OW43048  13.040  14.144   8.779
13739SOL    HW143049  13.082  14.085   8.842
13739SOL    HW243050  12.947  14.134   8.794
13740SOL     OW43051   3.736   5.213  10.156
13740SOL    HW143052   3.770   5.225  10.244
13740SOL    HW243053   3.747   5.120  10.138
13741SOL     OW43054  13.206   7.205   4.154
13741SOL    HW143055  13.236   7.296   4.160
13741SOL    HW243056  13.286   7.154   4.145
13742SOL     OW43057   2.667  14.014   9.263
13742SOL    HW143058   2.644  14.004   9.171
13742SOL    HW243059   2.740  14.077   9.262
13743SOL     OW43060  12.352   4.830   8.657
13743SOL    HW143061  12.367   4.903   8.597
13743SOL    HW243062  12.310   4.763   8.604
13744SOL     OW43063   4.879   3.235  13.742
13744SOL    HW143064   4.814   3.278  13.687
13744SOL    HW243065   4.946   3.302  13.758
13745SOL     OW43066   3.069  10.155   0.359
13745SOL    HW143067   3.033  10.070   0.335
13745SOL    HW243068   3.151  10.162   0.308
13746SOL     OW43069  12.683  11.987   2.113
13746SOL    HW143070  12.629  12.017   2.039
13746SOL    HW243071  12.771  11.980   2.077
13747SOL     OW43072   5.263  14.102   7.823
13747SOL    HW143073   5.329  14.067   7.884
13747SOL    HW243074   5.252  14.193   7.850
13748SOL     OW43075   9.987   4.348   8.532
13748SOL    HW143076   9.949   4.428   8.496
13748SOL    HW243077  10.050   4.320   8.466
13749SOL     OW43078   8.480  14.728  13.123
13749SOL    HW143079   8.546  14.669  13.089
13749SOL    HW243080   8.407  14.721  13.061
13750SOL     OW43081   4.722   6.231   4.438
13750SOL    HW143082   4.804   6.248   4.391
13750SOL    HW243083   4.705   6.311   4.487
13751SOL     OW43084  11.530   5.856  12.063
13751SOL    HW143085  11.598   5.790  12.079
13751SOL    HW243086  11.483   5.824  11.987
13752SOL     OW43087   2.717  12.916   9.855
13752SOL    HW143088   2.634  12.924   9.901
13752SOL    HW243089   2.783  12.910   9.925
13753SOL     OW43090   9.908  10.775   2.295
13753SOL    HW143091   9.939  10.785   2.205
13753SOL    HW243092   9.853  10.851   2.310
13754SOL     OW43093   3.474  10.057  14.322
13754SOL    HW143094   3.553  10.002  14.322
13754SOL    HW243095   3.417  10.015  14.258
13755SOL     OW43096  13.632   9.843   9.742
13755SOL    HW143097  13.625   9.938   9.729
13755SOL    HW243098  13.681   9.813   9.665
13756SOL     OW43099   1.171   3.212  10.312
13756SOL    HW143100   1.222   3.293  10.323
13756SOL    HW243101   1.237   3.143  10.306
13757SOL     OW43102   9.895  12.679   3.624
13757SOL    HW143103   9.892  12.728   3.707
13757SOL    HW243104   9.805  12.649   3.611
13758SOL     OW43105   1.295   4.883   7.008
13758SOL    HW143106   1.379   4.917   6.977
13758SOL    HW243107   1.278   4.932   7.088
13759SOL     OW43108  11.924   2.334   7.710
13759SOL    HW143109  11.961   2.369   7.629
13759SOL    HW243110  11.842   2.382   7.721
13760SOL     OW43111  10.925   7.442   4.075
13760SOL    HW143112  10.855   7.481   4.022
13760SOL    HW243113  10.951   7.364   4.026
13761SOL     OW43114  12.251  11.671  13.114
13761SOL    HW143115  12.295  11.738  13.061
13761SOL    HW243116  12.244  11.710  13.201
13762SOL     OW43117   4.768  14.232   9.031
13762SOL    HW143118   4.841  14.201   8.977
13762SOL    HW243119   4.807  14.246   9.117
13763SOL     OW43120   4.863   0.440   5.899
13763SOL    HW143121   4.863   0.494   5.979
13763SOL    HW243122   4.952   0.449   5.866
13764SOL     OW43123   9.996   4.432  11.251
13764SOL    HW143124  10.046   4.356  11.221
13764SOL    HW243125   9.980   4.416  11.344
13765SOL     OW43126   4.038   4.684  14.431
13765SOL    HW143127   4.121   4.710  14.390
13765SOL    HW243128   4.029   4.743  14.506
13766SOL     OW43129   8.812  11.799   4.623
13766SOL    HW143130   8.806  11.852   4.544
13766SOL    HW243131   8.756  11.843   4.686
13767SOL     OW43132   8.419  10.754   8.841
13767SOL    HW143133   8.337  10.720   8.804
13767SOL    HW243134   8.420  10.846   8.816
13768SOL     OW43135   1.633   1.006   3.839
13768SOL    HW143136   1.597   1.026   3.752
13768SOL    HW243137   1.727   1.017   3.829
13769SOL     OW43138   8.090   7.920  11.940
13769SOL    HW143139   8.005   7.889  11.910
13769SOL    HW243140   8.070   7.982  12.011
13770SOL     OW43141  12.789   6.129   6.318
13770SOL    HW143142  12.804   6.035   6.330
13770SOL    HW243143  12.874   6.164   6.289
13771SOL     OW43144  14.394   5.064   3.458
13771SOL    HW143145  14.385   5.107   3.543
13771SOL    HW243146  14.407   4.971   3.479
13772SOL     OW43147   4.236  12.515   3.082
13772SOL    HW143148   4.265  12.603   3.057
13772SOL    HW243149   4.164  12.531   3.143
13773SOL     OW43150   8.944  14.713   6.238
13773SOL    HW143151   8.932  14.648   6.169
13773SOL    HW243152   9.028  14.689   6.279
13774SOL     OW43153   5.412   3.852   9.313
13774SOL    HW143154   5.349   3.808   9.256
13774SOL    HW243155   5.383   3.831   9.402
13775SOL     OW43156   9.054  14.053   0.547
13775SOL    HW143157   8.990  14.110   0.505
13775SOL    HW243158   9.112  14.025   0.476
13776SOL     OW43159   7.486   1.981   0.334
13776SOL    HW143160   7.574   2.020   0.333
13776SOL    HW243161   7.486   1.926   0.412
13777SOL     OW43162   0.659   4.672   0.423
13777SOL    HW143163   0.723   4.687   0.492
13777SOL    HW243164   0.640   4.759   0.388
13778SOL     OW43165  10.742  13.059   5.408
13778SOL    HW143166  10.746  13.108   5.490
13778SOL    HW243167  10.663  13.006   5.416
13779SOL     OW43168   8.637   3.955  14.642
13779SOL    HW143169   8.637   3.956  14.738
13779SOL    HW243170   8.635   3.862  14.619
13780SOL     OW43171  10.209   5.535  10.889
13780SOL    HW143172  10.181   5.539  10.980
13780SOL    HW243173  10.256   5.618  10.875
13781SOL     OW43174   1.985  12.870   8.768
13781SOL    HW143175   1.916  12.847   8.830
13781SOL    HW243176   2.059  12.896   8.823
13782SOL     OW43177   9.665   4.802   9.543
13782SOL    HW143178   9.702   4.717   9.521
13782SOL    HW243179   9.716   4.865   9.492
13783SOL     OW43180   1.243  12.102  11.815
13783SOL    HW143181   1.261  12.112  11.721
13783SOL    HW243182   1.329  12.100  11.856
13784SOL     OW43183   4.412   8.978   0.641
13784SOL    HW143184   4.444   8.893   0.613
13784SOL    HW243185   4.460   8.996   0.722
13785SOL     OW43186   2.432  14.375   0.585
13785SOL    HW143187   2.390  14.292   0.607
13785SOL    HW243188   2.520  14.368   0.623
13786SOL     OW43189   8.070  13.387  12.765
13786SOL    HW143190   8.057  13.314  12.826
13786SOL    HW243191   8.118  13.452  12.816
13787SOL     OW43192   4.061   6.970  10.723
13787SOL    HW143193   4.021   7.046  10.766
13787SOL    HW243194   3.991   6.906  10.716
13788SOL     OW43195   1.083   9.389  13.698
13788SOL    HW143196   1.122   9.389  13.611
13788SOL    HW243197   1.001   9.341  13.688
13789SOL     OW43198   2.653  10.691   0.828
13789SOL    HW143199   2.681  10.633   0.756
13789SOL    HW243200   2.727  10.749   0.842
13790SOL     OW43201  11.269  14.786  14.866
13790SOL    HW143202  11.232  14.822   0.064
13790SOL    HW243203  11.363  14.805  14.871
13791SOL     OW43204   8.904   8.272   5.362
13791SOL    HW143205   8.977   8.272   5.300
13791SOL    HW243206   8.918   8.351   5.414
13792SOL     OW43207   7.510  11.675   2.812
13792SOL    HW143208   7.579  11.651   2.873
13792SOL    HW243209   7.545  11.751   2.765
13793SOL     OW43210  10.021   9.915   5.928
13793SOL    HW143211  10.060   9.977   5.990
13793SOL    HW243212   9.940   9.886   5.971
13794SOL     OW43213  12.076  10.657   7.980
13794SOL    HW143214  12.168  10.632   7.979
13794SOL    HW243215  12.068  10.712   8.059
13795SOL     OW43216  11.368   4.012   2.471
13795SOL    HW143217  11.315   3.933   2.463
13795SOL    HW243218  11.305   4.084   2.459
13796SOL     OW43219  13.366  13.913   6.285
13796SOL    HW143220  13.335  13.854   6.353
13796SOL    HW243221  13.445  13.870   6.250
13797SOL     OW43222   4.256  13.936   9.000
13797SOL    HW143223   4.275  14.030   8.990
13797SOL    HW243224   4.335  13.899   9.039
13798SOL     OW43225  11.822   1.192  10.843
13798SOL    HW143226  11.896   1.134  10.824
13798SOL    HW243227  11.809   1.242  10.762
13799SOL     OW43228  13.976  13.923  13.009
13799SOL    HW143229  13.902  13.891  12.957
13799SOL    HW243230  14.042  13.947  12.943
13800SOL     OW43231   0.549   7.699  14.069
13800SOL    HW143232   0.631   7.654  14.050
13800SOL    HW243233   0.482   7.630  14.066
13801SOL     OW43234   5.693  13.013   7.858
13801SOL    HW143235   5.608  13.018   7.901
13801SOL    HW243236   5.746  13.080   7.901
13802SOL     OW43237   5.285   0.628  10.678
13802SOL    HW143238   5.237   0.552  10.646
13802SOL    HW243239   5.337   0.657  10.603
13803SOL     OW43240   9.805  10.156   3.749
13803SOL    HW143241   9.864  10.101   3.800
13803SOL    HW243242   9.742  10.094   3.711
13804SOL     OW43243  14.829  10.234   2.324
13804SOL    HW143244   0.025  10.244   2.269
13804SOL    HW243245  14.769  10.302   2.293
13805SOL     OW43246   1.398  13.906   3.464
13805SOL    HW143247   1.381  13.909   3.369
13805SOL    HW243248   1.346  13.832   3.495
13806SOL     OW43249   5.979  10.389  13.701
13806SOL    HW143250   5.929  10.308  13.710
13806SOL    HW243251   5.982  10.406  13.607
13807SOL     OW43252   9.339   5.417   1.562
13807SOL    HW143253   9.334   5.330   1.601
13807SOL    HW243254   9.410   5.460   1.609
13808SOL     OW43255  13.072  11.111  12.569
13808SOL    HW143256  13.078  11.059  12.648
13808SOL    HW243257  12.991  11.082  12.527
13809SOL     OW43258  10.803   1.340   4.793
13809SOL    HW143259  10.750   1.418   4.778
13809SOL    HW243260  10.863   1.336   4.718
13810SOL     OW43261   7.908   2.735  13.717
13810SOL    HW143262   7.834   2.698  13.767
13810SOL    HW243263   7.868   2.770  13.638
13811SOL     OW43264   9.072  10.422   4.931
13811SOL    HW143265   9.108  10.482   4.866
13811SOL    HW243266   9.110  10.451   5.014
13812SOL     OW43267   5.262  12.440  14.428
13812SOL    HW143268   5.273  12.346  14.442
13812SOL    HW243269   5.176  12.460  14.464
13813SOL     OW43270   5.415  14.712   5.308
13813SOL    HW143271   5.469  14.759   5.244
13813SOL    HW243272   5.331  14.700   5.263
13814SOL     OW43273   2.351   0.090   0.236
13814SOL    HW143274   2.386   0.134   0.314
13814SOL    HW243275   2.270   0.049   0.266
13815SOL     OW43276   2.771   4.522   5.116
13815SOL    HW143277   2.697   4.580   5.136
13815SOL    HW243278   2.732   4.449   5.068
13816SOL     OW43279  10.357   6.789   4.576
13816SOL    HW143280  10.308   6.845   4.637
13816SOL    HW243281  10.429   6.754   4.628
13817SOL     OW43282   1.966   9.078   7.232
13817SOL    HW143283   1.943   9.170   7.221
13817SOL    HW243284   1.989   9.070   7.325
13818SOL     OW43285   9.022   1.885   1.112
13818SOL    HW143286   9.058   1.944   1.178
13818SOL    HW243287   9.004   1.941   1.037
13819SOL     OW43288   1.016   3.376   9.636
13819SOL    HW143289   1.003   3.281   9.636
13819SOL    HW243290   0.938   3.411   9.593
13820SOL     OW43291  12.458  14.150  14.402
13820SOL    HW143292  12.440  14.059  14.380
13820SOL    HW243293  12.531  14.146  14.463
13821SOL     OW43294   6.235   1.865   6.608
13821SOL    HW143295   6.235   1.773   6.581
13821SOL    HW243296   6.144   1.893   6.598
13822SOL     OW43297   7.599   1.965  14.840
13822SOL    HW143298   7.516   2.000  14.873
13822SOL    HW243299   7.662   1.981   0.028
13823SOL     OW43300   1.176   9.959  14.329
13823SOL    HW143301   1.245  10.011  14.288
13823SOL    HW243302   1.204   9.949  14.420
13824SOL     OW43303  10.997  13.194  13.352
13824SOL    HW143304  10.991  13.287  13.328
13824SOL    HW243305  10.943  13.149  13.287
13825SOL     OW43306  11.599   4.874  10.045
13825SOL    HW143307  11.685   4.832  10.032
13825SOL    HW243308  11.546   4.842   9.972
13826SOL     OW43309   3.314   9.422   9.429
13826SOL    HW143310   3.266   9.393   9.351
13826SOL    HW243311   3.312   9.517   9.424
13827SOL     OW43312   4.586   8.874   5.265
13827SOL    HW143313   4.497   8.861   5.234
13827SOL    HW243314   4.593   8.968   5.280
13828SOL     OW43315   5.972   6.996  12.213
13828SOL    HW143316   6.043   7.039  12.165
13828SOL    HW243317   5.893   7.045  12.188
13829SOL     OW43318   0.986   1.249   5.426
13829SOL    HW143319   1.030   1.199   5.357
13829SOL    HW243320   1.029   1.221   5.507
13830SOL     OW43321  12.938   3.174   8.711
13830SOL    HW143322  12.980   3.112   8.771
13830SOL    HW243323  12.905   3.244   8.768
13831SOL     OW43324   2.701   3.033   8.683
13831SOL    HW143325   2.747   2.965   8.634
13831SOL    HW243326   2.707   3.111   8.627
13832SOL     OW43327   2.855   2.656  10.146
13832SOL    HW143328   2.835   2.597  10.074
13832SOL    HW243329   2.770   2.694  10.171
13833SOL     OW43330   0.265  13.223   3.677
13833SOL    HW143331   0.313  13.266   3.606
13833SOL    HW243332   0.310  13.251   3.757
13834SOL     OW43333   8.794  11.944   1.835
13834SOL    HW143334   8.711  11.898   1.838
13834SOL    HW243335   8.823  11.935   1.744
13835SOL     OW43336   2.023  13.904   0.390
13835SOL    HW143337   2.080  13.852   0.333
13835SOL    HW243338   2.027  13.992   0.353
13836SOL     OW43339   9.723   7.712   4.595
13836SOL    HW143340   9.813   7.741   4.588
13836SOL    HW243341   9.724   7.622   4.561
13837SOL     OW43342  12.123   8.138   7.529
13837SOL    HW143343  12.044   8.192   7.534
13837SOL    HW243344  12.105   8.076   7.458
13838SOL     OW43345   3.846  11.420   2.090
13838SOL    HW143346   3.930  11.397   2.129
13838SOL    HW243347   3.826  11.346   2.032
13839SOL     OW43348   9.480   1.527   9.514
13839SOL    HW143349   9.498   1.457   9.451
13839SOL    HW243350   9.385   1.536   9.514
13840SOL     OW43351   2.068   8.505   5.922
13840SOL    HW143352   2.052   8.433   5.861
13840SOL    HW243353   2.001   8.495   5.989
13841SOL     OW43354   4.674  11.116   6.856
13841SOL    HW143355   4.723  11.063   6.919
13841SOL    HW243356   4.673  11.064   6.776
13842SOL     OW43357   8.745   1.314   6.202
13842SOL    HW143358   8.688   1.371   6.255
13842SOL    HW243359   8.757   1.362   6.120
13843SOL     OW43360   2.291   3.466  11.181
13843SOL    HW143361   2.385   3.455  11.173
13843SOL    HW243362   2.258   3.470  11.091
13844SOL     OW43363   6.543  12.311  13.240
13844SOL    HW143364   6.510  12.283  13.325
13844SOL    HW243365   6.465  12.316  13.185
13845SOL     OW43366   5.490   0.595  13.495
13845SOL    HW143367   5.553   0.655  13.534
13845SOL    HW243368   5.405   0.626  13.525
13846SOL     OW43369  14.679   4.854   5.026
13846SOL    HW143370  14.656   4.892   4.941
13846SOL    HW243371  14.618   4.896   5.088
13847SOL     OW43372   2.710   0.025  12.716
13847SOL    HW143373   2.696   0.079  12.638
13847SOL    HW243374   2.631   0.037  12.768
13848SOL     OW43375   9.480  12.963  14.164
13848SOL    HW143376   9.527  12.889  14.203
13848SOL    HW243377   9.405  12.924  14.119
13849SOL     OW43378  11.012   2.917  11.814
13849SOL    HW143379  10.923   2.944  11.835
13849SOL    HW243380  11.067   2.989  11.844
13850SOL     OW43381   7.196   6.059   0.831
13850SOL    HW143382   7.183   6.045   0.737
13850SOL    HW243383   7.232   5.977   0.864
13851SOL     OW43384  14.348  13.945   8.127
13851SOL    HW143385  14.377  13.858   8.154
13851SOL    HW243386  14.329  13.936   8.033
13852SOL     OW43387  12.813   3.703  14.182
13852SOL    HW143388  12.753   3.738  14.117
13852SOL    HW243389  12.815   3.769  14.251
13853SOL     OW43390   0.584  13.871   0.119
13853SOL    HW143391   0.652  13.936   0.136
13853SOL    HW243392   0.631  13.788   0.109
13854SOL     OW43393   6.582   8.875  10.712
13854SOL    HW143394   6.611   8.908  10.627
13854SOL    HW243395   6.487   8.873  10.705
13855SOL     OW43396   2.190  13.207   1.706
13855SOL    HW143397   2.164  13.204   1.614
13855SOL    HW243398   2.223  13.119   1.725
13856SOL     OW43399  11.289   7.453   0.313
13856SOL    HW143400  11.366   7.397   0.326
13856SOL    HW243401  11.217   7.391   0.298
13857SOL     OW43402   4.324   4.952   8.121
13857SOL    HW143403   4.417   4.959   8.098
13857SOL    HW243404   4.314   4.865   8.158
13858SOL     OW43405   0.606   9.311   1.126
13858SOL    HW143406   0.624   9.376   1.193
13858SOL    HW243407   0.679   9.249   1.133
13859SOL     OW43408   6.154   2.258   4.774
13859SOL    HW143409   6.228   2.207   4.742
13859SOL    HW243410   6.091   2.193   4.805
13860SOL     OW43411   9.239   4.904  10.344
13860SOL    HW143412   9.175   4.974  10.334
13860SOL    HW243413   9.199   4.829  10.299
13861SOL     OW43414   2.188   0.557   9.618
13861SOL    HW143415   2.226   0.624   9.561
13861SOL    HW243416   2.093   0.570   9.609
13862SOL     OW43417  12.617   4.312   2.523
13862SOL    HW143418  12.606   4.253   2.598
13862SOL    HW243419  12.572   4.268   2.451
13863SOL     OW43420   6.258   5.293   3.621
13863SOL    HW143421   6.228   5.382   3.639
13863SOL    HW243422   6.324   5.276   3.688
13864SOL     OW43423   1.407   8.971   1.846
13864SOL    HW143424   1.477   8.919   1.806
13864SOL    HW243425   1.357   9.005   1.773
13865SOL     OW43426   1.730  11.528   9.856
13865SOL    HW143427   1.789  11.463   9.821
13865SOL    HW243428   1.786  11.586   9.908
13866SOL     OW43429   0.277   4.996   6.731
13866SOL    HW143430   0.334   4.953   6.794
13866SOL    HW243431   0.302   4.960   6.646
13867SOL     OW43432  14.245  13.517  14.723
13867SOL    HW143433  14.337  13.539  14.738
13867SOL    HW243434  14.244  13.473  14.638
13868SOL     OW43435  12.759  11.307  13.802
13868SOL    HW143436  12.682  11.351  13.838
13868SOL    HW243437  12.815  11.291  13.879
13869SOL     OW43438   1.241  11.574   8.221
13869SOL    HW143439   1.207  11.660   8.246
13869SOL    HW243440   1.166  11.529   8.181
13870SOL     OW43441   7.294  11.088   9.961
13870SOL    HW143442   7.348  11.115  10.035
13870SOL    HW243443   7.252  11.169   9.931
13871SOL     OW43444   9.832  12.087   7.743
13871SOL    HW143445   9.816  12.088   7.648
13871SOL    HW243446   9.911  12.138   7.755
13872SOL     OW43447  13.466   2.042   4.510
13872SOL    HW143448  13.440   1.957   4.545
13872SOL    HW243449  13.538   2.022   4.449
13873SOL     OW43450  11.458   2.142   2.834
13873SOL    HW143451  11.381   2.157   2.888
13873SOL    HW243452  11.426   2.096   2.756
13874SOL     OW43453   2.284   2.058   1.914
13874SOL    HW143454   2.347   2.107   1.862
13874SOL    HW243455   2.288   2.097   2.001
13875SOL     OW43456  14.319   8.758   6.220
13875SOL    HW143457  14.357   8.718   6.141
13875SOL    HW243458  14.225   8.753   6.207
13876SOL     OW43459   7.339   4.328   3.747
13876SOL    HW143460   7.297   4.265   3.805
13876SOL    HW243461   7.431   4.329   3.774
13877SOL     OW43462   8.997   2.164   3.411
13877SOL    HW143463   8.964   2.252   3.394
13877SOL    HW243464   9.017   2.129   3.324
13878SOL     OW43465   6.895   4.441   5.382
13878SOL    HW143466   6.937   4.503   5.442
13878SOL    HW243467   6.878   4.492   5.303
13879SOL     OW43468  12.183   3.737   7.994
13879SOL    HW143469  12.256   3.778   8.041
13879SOL    HW243470  12.223   3.666   7.944
13880SOL     OW43471   9.421   3.810   4.842
13880SOL    HW143472   9.464   3.790   4.759
13880SOL    HW243473   9.393   3.901   4.834
13881SOL     OW43474   5.089  10.870   0.930
13881SOL    HW143475   5.021  10.896   0.868
13881SOL    HW243476   5.143  10.948   0.941
13882SOL     OW43477  10.429   6.458   9.098
13882SOL    HW143478  10.477   6.517   9.156
13882SOL    HW243479  10.497   6.416   9.045
13883SOL     OW43480   3.629   2.553   6.166
13883SOL    HW143481   3.622   2.564   6.260
13883SOL    HW243482   3.587   2.631   6.129
13884SOL     OW43483   7.265  14.291  14.688
13884SOL    HW143484   7.317  14.250  14.619
13884SOL    HW243485   7.195  14.336  14.642
13885SOL     OW43486   8.443   5.742   8.259
13885SOL    HW143487   8.401   5.792   8.190
13885SOL    HW243488   8.422   5.788   8.340
13886SOL     OW43489   1.392  11.062   7.684
13886SOL    HW143490   1.400  11.002   7.759
13886SOL    HW243491   1.479  11.100   7.674
13887SOL     OW43492  12.400   0.990   1.765
13887SOL    HW143493  12.380   1.083   1.778
13887SOL    HW243494  12.487   0.989   1.727
13888SOL     OW43495   0.713  14.775   0.865
13888SOL    HW143496   0.789  14.798   0.918
13888SOL    HW243497   0.672  14.859   0.844
13889SOL     OW43498  13.549  10.331   2.061
13889SOL    HW143499  13.492  10.312   1.987
13889SOL    HW243500  13.517  10.414   2.096
13890SOL     OW43501   5.171   3.475  12.900
13890SOL    HW143502   5.155   3.403  12.839
13890SOL    HW243503   5.084   3.497  12.934
13891SOL     OW43504  14.179   3.955  14.877
13891SOL    HW143505  14.111   3.888   0.003
13891SOL    HW243506  14.134   4.032  14.843
13892SOL     OW43507  11.764  13.620   8.846
13892SOL    HW143508  11.740  13.596   8.935
13892SOL    HW243509  11.845  13.671   8.856
13893SOL     OW43510  13.983   0.050  10.598
13893SOL    HW143511  14.017   0.066  10.686
13893SOL    HW243512  14.005  14.841  10.579
13894SOL     OW43513   9.248   9.197  13.196
13894SOL    HW143514   9.266   9.176  13.287
13894SOL    HW243515   9.272   9.117  13.148
13895SOL     OW43516  13.661   7.076  12.726
13895SOL    HW143517  13.595   7.143  12.707
13895SOL    HW243518  13.650   7.057  12.819
13896SOL     OW43519  10.809   7.004   0.989
13896SOL    HW143520  10.772   6.951   1.059
13896SOL    HW243521  10.887   7.044   1.028
13897SOL     OW43522  12.098   1.197   5.533
13897SOL    HW143523  12.059   1.252   5.465
13897SOL    HW243524  12.192   1.201   5.515
13898SOL     OW43525   1.289   0.050  11.834
13898SOL    HW143526   1.292   0.003  11.751
13898SOL    HW243527   1.263   0.139  11.810
13899SOL     OW43528   0.740   8.649   9.786
13899SOL    HW143529   0.740   8.554   9.798
13899SOL    HW243530   0.749   8.660   9.691
13900SOL     OW43531   6.976   2.100   2.908
13900SOL    HW143532   6.926   2.020   2.891
13900SOL    HW243533   7.022   2.117   2.827
13901SOL     OW43534   8.677   2.845   8.358
13901SOL    HW143535   8.673   2.828   8.264
13901SOL    HW243536   8.603   2.796   8.394
13902SOL     OW43537   0.758   8.937   5.180
13902SOL    HW143538   0.829   8.971   5.234
13902SOL    HW243539   0.706   9.014   5.156
13903SOL     OW43540   8.905   6.279   9.400
13903SOL    HW143541   8.888   6.188   9.423
13903SOL    HW243542   8.998   6.291   9.417
13904SOL     OW43543   2.395   8.097  14.510
13904SOL    HW143544   2.479   8.144  14.518
13904SOL    HW243545   2.382   8.089  14.415
13905SOL     OW43546  14.560   6.946   3.586
13905SOL    HW143547  14.654   6.947   3.605
13905SOL    HW243548  14.544   7.029   3.541
13906SOL     OW43549  13.848  14.249  12.427
13906SOL    HW143550  13.804  14.164  12.424
13906SOL    HW243551  13.923  14.240  12.368
13907SOL     OW43552   8.841  11.851  13.351
13907SOL    HW143553   8.792  11.867  13.432
13907SOL    HW243554   8.905  11.784  13.375
13908SOL     OW43555   5.194   6.354   1.047
13908SOL    HW143556   5.196   6.270   1.001
13908SOL    HW243557   5.235   6.415   0.986
13909SOL     OW43558  14.543  14.540   3.748
13909SOL    HW143559  14.504  14.457   3.718
13909SOL    HW243560  14.524  14.543   3.841
13910SOL     OW43561   3.447   0.981   2.749
13910SOL    HW143562   3.448   1.029   2.666
13910SOL    HW243563   3.403   1.040   2.810
13911SOL     OW43564  10.612  10.078   7.864
13911SOL    HW143565  10.670  10.078   7.789
13911SOL    HW243566  10.670  10.090   7.940
13912SOL     OW43567   6.781  14.447   1.775
13912SOL    HW143568   6.696  14.446   1.819
13912SOL    HW243569   6.759  14.458   1.682
13913SOL     OW43570  11.439   4.629   4.826
13913SOL    HW143571  11.366   4.691   4.822
13913SOL    HW243572  11.398   4.544   4.838
13914SOL     OW43573  13.672  14.752  12.818
13914SOL    HW143574  13.638  14.839  12.795
13914SOL    HW243575  13.715  14.722  12.738
13915SOL     OW43576   1.739   9.778   3.315
13915SOL    HW143577   1.759   9.757   3.224
13915SOL    HW243578   1.669   9.716   3.339
13916SOL     OW43579  13.662   7.606  13.092
13916SOL    HW143580  13.618   7.547  13.031
13916SOL    HW243581  13.754   7.578  13.091
13917SOL     OW43582  10.986  14.299   3.789
13917SOL    HW143583  11.004  14.390   3.766
13917SOL    HW243584  10.953  14.303   3.879
13918SOL     OW43585  12.780   0.547  10.431
13918SOL    HW143586  12.743   0.471  10.385
13918SOL    HW243587  12.728   0.621  10.399
13919SOL     OW43588   3.608  14.474   4.043
13919SOL    HW143589   3.604  14.439   3.954
13919SOL    HW243590   3.527  14.442   4.085
13920SOL     OW43591  13.794   6.877  12.402
13920SOL    HW143592  13.719   6.904  12.454
13920SOL    HW243593  13.813   6.952  12.346
13921SOL     OW43594  10.670   4.790   6.493
13921SOL    HW143595  10.649   4.825   6.579
13921SOL    HW243596  10.744   4.732   6.507
13922SOL     OW43597   2.407   9.861   6.263
13922SOL    HW143598   2.411   9.853   6.358
13922SOL    HW243599   2.323   9.821   6.238
13923SOL     OW43600   9.955  11.280  10.903
13923SOL    HW143601  10.048  11.283  10.922
13923SOL    HW243602   9.939  11.354  10.845
13924SOL     OW43603   1.529   6.440   9.083
13924SOL    HW143604   1.480   6.519   9.102
13924SOL    HW243605   1.561   6.410   9.169
13925SOL     OW43606   8.582   0.012   1.452
13925SOL    HW143607   8.491  14.877   1.476
13925SOL    HW243608   8.625   0.033   1.534
13926SOL     OW43609   5.432  10.764  13.437
13926SOL    HW143610   5.390  10.684  13.405
13926SOL    HW243611   5.368  10.833  13.420
13927SOL     OW43612   6.895   3.665  14.432
13927SOL    HW143613   6.877   3.588  14.377
13927SOL    HW243614   6.991   3.668  14.438
13928SOL     OW43615   9.015  13.675   8.999
13928SOL    HW143616   9.041  13.586   9.020
13928SOL    HW243617   8.930  13.666   8.954
13929SOL     OW43618  14.647  14.175  14.349
13929SOL    HW143619  14.587  14.241  14.315
13929SOL    HW243620  14.602  14.138  14.425
13930SOL     OW43621   7.534   5.659  10.144
13930SOL    HW143622   7.594   5.587  10.123
13930SOL    HW243623   7.454   5.638  10.095
13931SOL     OW43624   1.553   6.238   9.664
13931SOL    HW143625   1.638   6.245   9.706
13931SOL    HW243626   1.495   6.207   9.733
13932SOL     OW43627   6.910   2.436   0.791
13932SOL    HW143628   6.960   2.355   0.785
13932SOL    HW243629   6.867   2.445   0.706
13933SOL     OW43630   4.097  10.813  13.194
13933SOL    HW143631   4.088  10.750  13.265
13933SOL    HW243632   4.069  10.897  13.231
13934SOL     OW43633  10.524   3.476  10.950
13934SOL    HW143634  10.612   3.449  10.978
13934SOL    HW243635  10.476   3.491  11.031
13935SOL     OW43636  11.328   6.262   2.958
13935SOL    HW143637  11.354   6.352   2.938
13935SOL    HW243638  11.311   6.263   3.052
13936SOL     OW43639  12.660  11.854  11.841
13936SOL    HW143640  12.615  11.875  11.759
13936SOL    HW243641  12.639  11.762  11.857
13937SOL     OW43642  11.000   0.932   5.411
13937SOL    HW143643  10.940   0.949   5.338
13937SOL    HW243644  11.013   1.018   5.451
13938SOL     OW43645   2.156   0.170   7.797
13938SOL    HW143646   2.081   0.181   7.855
13938SOL    HW243647   2.127   0.106   7.732
13939SOL     OW43648   6.470   1.378   2.457
13939SOL    HW143649   6.562   1.396   2.439
13939SOL    HW243650   6.467   1.284   2.475
13940SOL     OW43651   2.133   3.419   0.805
13940SOL    HW143652   2.224   3.393   0.817
13940SOL    HW243653   2.138   3.509   0.770
13941SOL     OW43654   8.243   4.560   1.072
13941SOL    HW143655   8.279   4.500   1.138
13941SOL    HW243656   8.261   4.517   0.988
13942SOL     OW43657  14.288   4.514   1.108
13942SOL    HW143658  14.337   4.457   1.167
13942SOL    HW243659  14.204   4.528   1.153
13943SOL     OW43660   8.518  14.829   0.180
13943SOL    HW143661   8.481  14.764   0.240
13943SOL    HW243662   8.452   0.016   0.176
13944SOL     OW43663   5.827  10.895   1.276
13944SOL    HW143664   5.859  10.841   1.203
13944SOL    HW243665   5.906  10.913   1.328
13945SOL     OW43666   0.392   8.708  12.362
13945SOL    HW143667   0.400   8.642  12.293
13945SOL    HW243668   0.423   8.664  12.441
13946SOL     OW43669  10.021   4.231   7.358
13946SOL    HW143670   9.950   4.286   7.324
13946SOL    HW243671  10.007   4.231   7.453
13947SOL     OW43672   0.305   5.705   6.778
13947SOL    HW143673   0.294   5.676   6.868
13947SOL    HW243674   0.227   5.759   6.760
13948SOL     OW43675  10.049  13.307   4.484
13948SOL    HW143676   9.975  13.278   4.538
13948SOL    HW243677  10.067  13.232   4.427
13949SOL     OW43678  13.849   4.320   6.230
13949SOL    HW143679  13.797   4.380   6.177
13949SOL    HW243680  13.873   4.249   6.170
13950SOL     OW43681   5.146   0.693   9.542
13950SOL    HW143682   5.072   0.634   9.524
13950SOL    HW243683   5.183   0.660   9.624
13951SOL     OW43684   1.854  12.520   8.734
13951SOL    HW143685   1.811  12.606   8.739
13951SOL    HW243686   1.937  12.533   8.781
13952SOL     OW43687   3.242  12.150  10.330
13952SOL    HW143688   3.240  12.055  10.323
13952SOL    HW243689   3.299  12.178  10.259
13953SOL     OW43690   4.326  10.850   6.464
13953SOL    HW143691   4.278  10.770   6.488
13953SOL    HW243692   4.327  10.850   6.369
13954SOL     OW43693   3.281   7.259  13.909
13954SOL    HW143694   3.239   7.327  13.963
13954SOL    HW243695   3.288   7.184  13.967
13955SOL     OW43696   1.207   1.519   3.132
13955SOL    HW143697   1.277   1.530   3.068
13955SOL    HW243698   1.221   1.590   3.195
13956SOL     OW43699   6.555   4.332  10.064
13956SOL    HW143700   6.557   4.297  10.153
13956SOL    HW243701   6.568   4.255  10.008
13957SOL     OW43702   9.694   8.779   2.376
13957SOL    HW143703   9.623   8.715   2.380
13957SOL    HW243704   9.717   8.783   2.283
13958SOL     OW43705   5.650   6.392   3.679
13958SOL    HW143706   5.595   6.423   3.607
13958SOL    HW243707   5.713   6.334   3.638
13959SOL     OW43708   1.575  11.688   1.493
13959SOL    HW143709   1.515  11.615   1.507
13959SOL    HW243710   1.538  11.735   1.417
13960SOL     OW43711   6.180  11.598   0.334
13960SOL    HW143712   6.103  11.583   0.281
13960SOL    HW243713   6.241  11.643   0.276
13961SOL     OW43714   9.375   8.441  13.127
13961SOL    HW143715   9.372   8.426  13.221
13961SOL    HW243716   9.356   8.355  13.088
13962SOL     OW43717   6.507   0.319   9.537
13962SOL    HW143718   6.503   0.229   9.568
13962SOL    HW243719   6.591   0.352   9.569
13963SOL     OW43720  10.185   6.143  12.799
13963SOL    HW143721  10.207   6.050  12.791
13963SOL    HW243722  10.234   6.173  12.875
13964SOL     OW43723   7.878   1.578   2.368
13964SOL    HW143724   7.810   1.585   2.435
13964SOL    HW243725   7.864   1.491   2.329
13965SOL     OW43726   9.353   4.734  12.784
13965SOL    HW143727   9.372   4.822  12.816
13965SOL    HW243728   9.311   4.690  12.858
13966SOL     OW43729   1.488   0.415   4.621
13966SOL    HW143730   1.521   0.493   4.667
13966SOL    HW243731   1.394   0.414   4.641
13967SOL     OW43732  13.196   5.174  13.795
13967SOL    HW143733  13.222   5.089  13.829
13967SOL    HW243734  13.278   5.215  13.767
13968SOL     OW43735   6.269  10.692   2.619
13968SOL    HW143736   6.244  10.702   2.527
13968SOL    HW243737   6.365  10.698   2.619
13969SOL     OW43738  13.142  11.290   1.628
13969SOL    HW143739  13.209  11.223   1.613
13969SOL    HW243740  13.060  11.248   1.600
13970SOL     OW43741  10.998   7.096   1.591
13970SOL    HW143742  10.980   7.152   1.667
13970SOL    HW243743  10.994   7.007   1.626
13971SOL     OW43744   4.843  13.936   2.976
13971SOL    HW143745   4.911  13.992   2.937
13971SOL    HW243746   4.761  13.978   2.952
13972SOL     OW43747   0.433   7.825   2.698
13972SOL    HW143748   0.421   7.810   2.791
13972SOL    HW243749   0.408   7.742   2.656
13973SOL     OW43750   2.669  12.752   7.171
13973SOL    HW143751   2.754  12.711   7.185
13973SOL    HW243752   2.633  12.763   7.259
13974SOL     OW43753   0.485  12.193   2.064
13974SOL    HW143754   0.414  12.251   2.093
13974SOL    HW243755   0.562  12.225   2.112
13975SOL     OW43756  12.865   5.046   8.869
13975SOL    HW143757  12.826   4.991   8.801
13975SOL    HW243758  12.870   5.133   8.831
13976SOL     OW43759   4.682  13.020   5.622
13976SOL    HW143760   4.669  13.001   5.714
13976SOL    HW243761   4.736  13.100   5.621
13977SOL     OW43762  14.140  11.895  14.222
13977SOL    HW143763  14.217  11.892  14.166
13977SOL    HW243764  14.174  11.893  14.311
13978SOL     OW43765   1.324   6.949   4.605
13978SOL    HW143766   1.356   6.865   4.637
13978SOL    HW243767   1.378   6.968   4.528
13979SOL     OW43768   4.018   4.852   8.269
13979SOL    HW143769   4.004   4.760   8.249
13979SOL    HW243770   3.981   4.899   8.194
13980SOL     OW43771   1.452   8.067  12.434
13980SOL    HW143772   1.458   8.029  12.522
13980SOL    HW243773   1.358   8.066  12.414
13981SOL     OW43774   5.540   1.862   9.507
13981SOL    HW143775   5.454   1.886   9.541
13981SOL    HW243776   5.522   1.790   9.446
13982SOL     OW43777   9.613   9.052  10.747
13982SOL    HW143778   9.706   9.033  10.751
13982SOL    HW243779   9.598   9.079  10.657
13983SOL     OW43780   8.150   8.715  11.801
13983SOL    HW143781   8.209   8.783  11.768
13983SOL    HW243782   8.155   8.646  11.735
13984SOL     OW43783   9.661   6.138   6.250
13984SOL    HW143784   9.626   6.146   6.161
13984SOL    HW243785   9.628   6.215   6.296
13985SOL     OW43786   9.516  13.406  11.585
13985SOL    HW143787   9.456  13.467  11.629
13985SOL    HW243788   9.473  13.388  11.501
13986SOL     OW43789   1.284   5.326   2.916
13986SOL    HW143790   1.292   5.420   2.900
13986SOL    HW243791   1.352   5.306   2.980
13987SOL     OW43792   4.971   5.848  11.899
13987SOL    HW143793   5.044   5.899  11.936
13987SOL    HW243794   4.998   5.829  11.809
13988SOL     OW43795   1.823  14.293   6.672
13988SOL    HW143796   1.763  14.357   6.633
13988SOL    HW243797   1.882  14.346   6.725
13989SOL     OW43798   5.128  11.594   7.078
13989SOL    HW143799   5.195  11.532   7.105
13989SOL    HW243800   5.049  11.541   7.066
13990SOL     OW43801   2.344  12.759   6.805
13990SOL    HW143802   2.378  12.712   6.881
13990SOL    HW243803   2.249  12.750   6.811
13991SOL     OW43804   8.714   9.908   4.190
13991SOL    HW143805   8.671   9.874   4.268
13991SOL    HW243806   8.722   9.833   4.131
13992SOL     OW43807   1.298   5.316   7.126
13992SOL    HW143808   1.316   5.331   7.033
13992SOL    HW243809   1.383   5.319   7.168
13993SOL     OW43810  13.798   1.351   5.124
13993SOL    HW143811  13.884   1.394   5.132
13993SOL    HW243812  13.743   1.398   5.187
13994SOL     OW43813  13.707   0.370   3.167
13994SOL    HW143814  13.670   0.334   3.086
13994SOL    HW243815  13.707   0.297   3.228
13995SOL     OW43816   6.424   2.022   0.945
13995SOL    HW143817   6.330   2.015   0.961
13995SOL    HW243818   6.452   2.096   0.999
13996SOL     OW43819   0.268   3.103   2.163
13996SOL    HW143820   0.349   3.126   2.117
13996SOL    HW243821   0.205   3.170   2.135
13997SOL     OW43822   1.890   6.113   3.415
13997SOL    HW143823   1.802   6.113   3.378
13997SOL    HW243824   1.899   6.200   3.454
13998SOL     OW43825   4.320   6.510   5.434
13998SOL    HW143826   4.386   6.526   5.501
13998SOL    HW243827   4.238   6.504   5.482
13999SOL     OW43828   4.921   5.006  13.171
13999SOL    HW143829   5.004   4.982  13.131
13999SOL    HW243830   4.855   4.979  13.107
14000SOL     OW43831   6.503  14.182   3.904
14000SOL    HW143832   6.452  14.246   3.954
14000SOL    HW243833   6.576  14.160   3.962
14001SOL     OW43834   1.207  12.450  13.331
14001SOL    HW143835   1.284  12.466  13.386
14001SOL    HW243836   1.217  12.360  13.302
14002SOL     OW43837   0.125  13.347   5.666
14002SOL    HW143838   0.112  13.284   5.737
14002SOL    HW243839   0.152  13.427   5.709
14003SOL     OW43840  11.142   3.992   6.920
14003SOL    HW143841  11.087   4.044   6.979
14003SOL    HW243842  11.092   3.912   6.904
14004SOL     OW43843   5.214   4.657   1.448
14004SOL    HW143844   5.162   4.735   1.468
14004SOL    HW243845   5.299   4.691   1.422
14005SOL     OW43846   6.440   6.145   0.234
14005SOL    HW143847   6.505   6.211   0.259
14005SOL    HW243848   6.477   6.105   0.155
14006SOL     OW43849   9.319   2.304  11.307
14006SOL    HW143850   9.338   2.380  11.362
14006SOL    HW243851   9.355   2.230  11.355
14007SOL     OW43852   4.914   6.455   0.878
14007SOL    HW143853   4.904   6.371   0.833
14007SOL    HW243854   4.952   6.513   0.813
14008SOL     OW43855   1.104   4.534  10.164
14008SOL    HW143856   1.193   4.562  10.186
14008SOL    HW243857   1.115   4.451  10.119
14009SOL     OW43858   4.291  12.780   0.347
14009SOL    HW143859   4.359  12.712   0.346
14009SOL    HW243860   4.279  12.804   0.256
14010SOL     OW43861   0.479   1.970  11.673
14010SOL    HW143862   0.559   1.925  11.698
14010SOL    HW243863   0.408   1.920  11.714
14011SOL     OW43864   1.068   4.590   5.902
14011SOL    HW143865   1.053   4.637   5.820
14011SOL    HW243866   1.123   4.515   5.877
14012SOL     OW43867  14.864  10.305   2.955
14012SOL    HW143868  14.789  10.360   2.974
14012SOL    HW243869  14.827  10.218   2.939
14013SOL     OW43870   4.288   5.507  13.218
14013SOL    HW143871   4.252   5.463  13.141
14013SOL    HW243872   4.216   5.561  13.250
14014SOL     OW43873  14.307   0.580  13.974
14014SOL    HW143874  14.296   0.669  14.005
14014SOL    HW243875  14.231   0.564  13.918
14015SOL     OW43876  11.020   2.107  11.865
14015SOL    HW143877  11.001   2.065  11.781
14015SOL    HW243878  10.991   2.197  11.854
14016SOL     OW43879  14.610  12.095   0.317
14016SOL    HW143880  14.616  12.023   0.254
14016SOL    HW243881  14.524  12.133   0.301
14017SOL     OW43882  13.966   2.773   8.916
14017SOL    HW143883  14.052   2.732   8.925
14017SOL    HW243884  13.926   2.766   9.003
14018SOL     OW43885   7.357   9.217   9.499
14018SOL    HW143886   7.282   9.263   9.536
14018SOL    HW243887   7.421   9.215   9.570
14019SOL     OW43888   4.144   1.268  12.565
14019SOL    HW143889   4.206   1.243  12.497
14019SOL    HW243890   4.160   1.204  12.635
14020SOL     OW43891   9.467  12.878   2.310
14020SOL    HW143892   9.414  12.918   2.379
14020SOL    HW243893   9.416  12.892   2.230
14021SOL     OW43894  12.920   5.408  14.312
14021SOL    HW143895  13.011   5.427  14.337
14021SOL    HW243896  12.914   5.313  14.314
14022SOL     OW43897   7.394  13.866   7.035
14022SOL    HW143898   7.448  13.840   7.110
14022SOL    HW243899   7.448  13.846   6.959
14023SOL     OW43900   9.548   9.968   3.868
14023SOL    HW143901   9.459   9.957   3.834
14023SOL    HW243902   9.564  10.062   3.865
14024SOL     OW43903   7.742   1.974  13.185
14024SOL    HW143904   7.759   2.068  13.179
14024SOL    HW243905   7.784   1.937  13.107
14025SOL     OW43906   1.284   9.574  14.853
14025SOL    HW143907   1.200   9.549  14.813
14025SOL    HW243908   1.339   9.600  14.779
14026SOL     OW43909   6.527   0.912  13.944
14026SOL    HW143910   6.451   0.950  13.899
14026SOL    HW243911   6.502   0.821  13.959
14027SOL     OW43912   1.458   9.768  14.702
14027SOL    HW143913   1.515   9.694  14.723
14027SOL    HW243914   1.428   9.800  14.787
14028SOL     OW43915   8.294   1.050   0.745
14028SOL    HW143916   8.348   1.121   0.780
14028SOL    HW243917   8.208   1.091   0.732
14029SOL     OW43918   2.380   3.254  12.291
14029SOL    HW143919   2.301   3.304  12.275
14029SOL    HW243920   2.390   3.197  12.215
14030SOL     OW43921  14.696   3.347   9.625
14030SOL    HW143922  14.748   3.324   9.702
14030SOL    HW243923  14.744   3.418   9.584
14031SOL     OW43924   0.473  10.248   3.168
14031SOL    HW143925   0.464  10.317   3.234
14031SOL    HW243926   0.481  10.167   3.218
14032SOL     OW43927   1.684   4.129   7.852
14032SOL    HW143928   1.688   4.153   7.945
14032SOL    HW243929   1.626   4.194   7.813
14033SOL     OW43930  11.199   8.111   9.279
14033SOL    HW143931  11.119   8.095   9.229
14033SOL    HW243932  11.268   8.113   9.212
14034SOL     OW43933   2.553   9.082   1.301
14034SOL    HW143934   2.560   9.125   1.216
14034SOL    HW243935   2.628   9.022   1.303
14035SOL     OW43936   9.165   7.229  11.807
14035SOL    HW143937   9.076   7.249  11.838
14035SOL    HW243938   9.223   7.274  11.868
14036SOL     OW43939   6.846   5.425   0.286
14036SOL    HW143940   6.753   5.423   0.309
14036SOL    HW243941   6.856   5.357   0.220
14037SOL     OW43942   6.630   6.010  10.570
14037SOL    HW143943   6.706   5.961  10.538
14037SOL    HW243944   6.607   6.068  10.497
14038SOL     OW43945   9.937   5.188   7.667
14038SOL    HW143946   9.984   5.161   7.746
14038SOL    HW243947  10.000   5.239   7.617
14039SOL     OW43948   4.393  12.860  13.865
14039SOL    HW143949   4.380  12.911  13.784
14039SOL    HW243950   4.318  12.882  13.919
14040SOL     OW43951   2.583  10.951  13.254
14040SOL    HW143952   2.596  11.044  13.273
14040SOL    HW243953   2.566  10.948  13.160
14041SOL     OW43954  14.277  10.050  13.646
14041SOL    HW143955  14.212  10.119  13.660
14041SOL    HW243956  14.306  10.061  13.555
14042SOL     OW43957   8.851   4.020  11.926
14042SOL    HW143958   8.755   4.019  11.925
14042SOL    HW243959   8.875   4.102  11.884
14043SOL     OW43960  14.330   5.759  10.173
14043SOL    HW143961  14.391   5.701  10.218
14043SOL    HW243962  14.368   5.847  10.184
14044SOL     OW43963  14.819   4.109   6.070
14044SOL    HW143964  14.771   4.061   6.003
14044SOL    HW243965  14.822   4.200   6.037
14045SOL     OW43966   8.475   3.925   6.540
14045SOL    HW143967   8.389   3.908   6.578
14045SOL    HW243968   8.461   3.996   6.478
14046SOL     OW43969   6.180   4.384   7.474
14046SOL    HW143970   6.118   4.334   7.421
14046SOL    HW243971   6.125   4.444   7.524
14047SOL     OW43972  14.636  12.038  14.429
14047SOL    HW143973  14.724  12.063  14.399
14047SOL    HW243974  14.621  12.092  14.507
14048SOL     OW43975   1.728   6.691   3.271
14048SOL    HW143976   1.707   6.612   3.321
14048SOL    HW243977   1.644   6.718   3.234
14049SOL     OW43978  10.294   4.514   9.303
14049SOL    HW143979  10.214   4.484   9.346
14049SOL    HW243980  10.355   4.531   9.375
14050SOL     OW43981   0.879  12.505  12.732
14050SOL    HW143982   0.801  12.449  12.729
14050SOL    HW243983   0.856  12.581  12.679
14051SOL     OW43984  14.455   6.727  14.444
14051SOL    HW143985  14.521   6.725  14.514
14051SOL    HW243986  14.422   6.816  14.445
14052SOL     OW43987   7.892   0.316   8.881
14052SOL    HW143988   7.891   0.411   8.890
14052SOL    HW243989   7.983   0.291   8.898
14053SOL     OW43990  11.841   6.663  12.987
14053SOL    HW143991  11.868   6.753  13.007
14053SOL    HW243992  11.915   6.627  12.937
14054SOL     OW43993  13.241  10.514   5.343
14054SOL    HW143994  13.220  10.598   5.384
14054SOL    HW243995  13.296  10.469   5.407
14055SOL     OW43996   0.289  13.267   7.363
14055SOL    HW143997   0.290  13.300   7.273
14055SOL    HW243998   0.199  13.235   7.376
14056SOL     OW43999  12.854   8.827   6.993
14056SOL    HW144000  12.947   8.826   7.014
14056SOL    HW244001  12.849   8.798   6.902
14057SOL     OW44002   5.733   7.015   0.765
14057SOL    HW144003   5.735   6.920   0.777
14057SOL    HW244004   5.799   7.032   0.697
14058SOL     OW44005   3.980   8.567  14.425
14058SOL    HW144006   3.909   8.611  14.378
14058SOL    HW244007   3.969   8.474  14.404
14059SOL     OW44008   2.589   2.251  13.707
14059SOL    HW144009   2.592   2.289  13.619
14059SOL    HW244010   2.520   2.184  13.702
14060SOL     OW44011   4.437   2.011  11.693
14060SOL    HW144012   4.457   2.092  11.740
14060SOL    HW244013   4.519   1.962  11.694
14061SOL     OW44014   0.799   5.157   6.249
14061SOL    HW144015   0.714   5.115   6.257
14061SOL    HW244016   0.854   5.092   6.204
14062SOL     OW44017  12.745   0.662   4.732
14062SOL    HW144018  12.789   0.723   4.674
14062SOL    HW244019  12.804   0.653   4.807
14063SOL     OW44020   3.712  11.453  12.488
14063SOL    HW144021   3.778  11.396  12.449
14063SOL    HW244022   3.760  11.533  12.511
14064SOL     OW44023   3.070   7.185  12.783
14064SOL    HW144024   3.024   7.116  12.831
14064SOL    HW244025   3.006   7.215  12.718
14065SOL     OW44026   7.768  11.972  10.036
14065SOL    HW144027   7.802  12.061  10.043
14065SOL    HW244028   7.815  11.934   9.962
14066SOL     OW44029   3.144  13.938   8.456
14066SOL    HW144030   3.087  14.014   8.447
14066SOL    HW244031   3.094  13.866   8.416
14067SOL     OW44032   8.549   2.604  12.664
14067SOL    HW144033   8.520   2.695  12.651
14067SOL    HW244034   8.525   2.560  12.582
14068SOL     OW44035  13.132   5.745  11.340
14068SOL    HW144036  13.227   5.730  11.344
14068SOL    HW244037  13.118   5.793  11.259
14069SOL     OW44038   1.721   2.686  10.525
14069SOL    HW144039   1.682   2.678  10.439
14069SOL    HW244040   1.814   2.703  10.508
14070SOL     OW44041   8.696   0.441   0.074
14070SOL    HW144042   8.721   0.519   0.024
14070SOL    HW244043   8.731   0.368   0.023
14071SOL     OW44044   4.615   7.129   4.942
14071SOL    HW144045   4.629   7.036   4.957
14071SOL    HW244046   4.567   7.134   4.859
14072SOL     OW44047  11.718   2.886  14.508
14072SOL    HW144048  11.768   2.947  14.562
14072SOL    HW244049  11.702   2.810  14.565
14073SOL     OW44050   0.917   8.450   5.008
14073SOL    HW144051   0.939   8.426   4.918
14073SOL    HW244052   0.837   8.401   5.027
14074SOL     OW44053   0.285   2.589   8.875
14074SOL    HW144054   0.261   2.595   8.968
14074SOL    HW244055   0.375   2.556   8.877
14075SOL     OW44056   1.683   3.449   1.011
14075SOL    HW144057   1.774   3.422   0.999
14075SOL    HW244058   1.679   3.477   1.103
14076SOL     OW44059   2.141   1.327   4.205
14076SOL    HW144060   2.086   1.303   4.280
14076SOL    HW244061   2.215   1.373   4.244
14077SOL     OW44062   3.682   3.395   7.182
14077SOL    HW144063   3.614   3.407   7.115
14077SOL    HW244064   3.744   3.333   7.142
14078SOL     OW44065  10.814   5.246   3.573
14078SOL    HW144066  10.811   5.202   3.658
14078SOL    HW244067  10.843   5.178   3.512
14079SOL     OW44068  12.924   1.903   6.651
14079SOL    HW144069  12.882   1.817   6.641
14079SOL    HW244070  12.927   1.938   6.562
14080SOL     OW44071   7.768   0.462   1.975
14080SOL    HW144072   7.834   0.525   1.944
14080SOL    HW244073   7.738   0.418   1.896
14081SOL     OW44074  13.198   3.081   4.896
14081SOL    HW144075  13.292   3.097   4.897
14081SOL    HW244076  13.187   2.999   4.848
14082SOL     OW44077   3.806   8.274  13.064
14082SOL    HW144078   3.742   8.227  13.118
14082SOL    HW244079   3.777   8.259  12.974
14083SOL     OW44080   0.996  12.268   9.605
14083SOL    HW144081   1.031  12.183   9.581
14083SOL    HW244082   1.021  12.326   9.533
14084SOL     OW44083   1.643   8.583   1.522
14084SOL    HW144084   1.730   8.623   1.519
14084SOL    HW244085   1.629   8.547   1.435
14085SOL     OW44086  10.634   0.165   7.074
14085SOL    HW144087  10.682   0.089   7.106
14085SOL    HW244088  10.678   0.240   7.113
14086SOL     OW44089   6.498  14.263   7.891
14086SOL    HW144090   6.451  14.289   7.812
14086SOL    HW244091   6.456  14.181   7.918
14087SOL     OW44092  12.794  11.387  11.607
14087SOL    HW144093  12.840  11.455  11.655
14087SOL    HW244094  12.768  11.324  11.674
14088SOL     OW44095   0.680   5.181   8.792
14088SOL    HW144096   0.693   5.107   8.732
14088SOL    HW244097   0.608   5.231   8.753
14089SOL     OW44098   1.488   6.237  14.666
14089SOL    HW144099   1.510   6.249  14.574
14089SOL    HW244100   1.496   6.143  14.682
14090SOL     OW44101   7.102   9.266  13.169
14090SOL    HW144102   7.184   9.240  13.127
14090SOL    HW244103   7.056   9.183  13.185
14091SOL     OW44104   0.638   9.050   8.948
14091SOL    HW144105   0.698   9.044   8.874
14091SOL    HW244106   0.586   8.970   8.944
14092SOL     OW44107   5.891   1.099   9.633
14092SOL    HW144108   5.838   1.076   9.710
14092SOL    HW244109   5.979   1.112   9.667
14093SOL     OW44110   1.737   6.853   0.924
14093SOL    HW144111   1.793   6.902   0.864
14093SOL    HW244112   1.673   6.916   0.955
14094SOL     OW44113   6.377  11.543   2.175
14094SOL    HW144114   6.300  11.514   2.223
14094SOL    HW244115   6.427  11.594   2.238
14095SOL     OW44116   1.746  10.444  11.699
14095SOL    HW144117   1.687  10.519  11.699
14095SOL    HW244118   1.777  10.439  11.608
14096SOL     OW44119  14.227   5.848   4.667
14096SOL    HW144120  14.230   5.883   4.577
14096SOL    HW244121  14.282   5.908   4.717
14097SOL     OW44122  10.745   7.002  11.009
14097SOL    HW144123  10.775   7.092  11.000
14097SOL    HW244124  10.694   7.001  11.090
14098SOL     OW44125   0.472  14.781   9.135
14098SOL    HW144126   0.395  14.756   9.186
14098SOL    HW244127   0.513  14.850   9.187
14099SOL     OW44128  10.871   7.971   3.065
14099SOL    HW144129  10.807   7.905   3.090
14099SOL    HW244130  10.915   7.934   2.989
14100SOL     OW44131   9.326  14.371   9.496
14100SOL    HW144132   9.332  14.440   9.562
14100SOL    HW244133   9.246  14.324   9.518
14101SOL     OW44134   7.512  12.734   2.867
14101SOL    HW144135   7.504  12.679   2.945
14101SOL    HW244136   7.601  12.769   2.872
14102SOL     OW44137   2.356   3.835   6.233
14102SOL    HW144138   2.314   3.766   6.182
14102SOL    HW244139   2.301   3.845   6.310
14103SOL     OW44140   3.539   6.789  12.128
14103SOL    HW144141   3.596   6.722  12.166
14103SOL    HW244142   3.452   6.768  12.161
14104SOL     OW44143  11.876  10.215   4.236
14104SOL    HW144144  11.784  10.231   4.212
14104SOL    HW244145  11.897  10.286   4.297
14105SOL     OW44146   4.129   8.537  11.315
14105SOL    HW144147   4.114   8.589  11.394
14105SOL    HW244148   4.205   8.578  11.273
14106SOL     OW44149   1.242   2.290  12.303
14106SOL    HW144150   1.227   2.195  12.302
14106SOL    HW244151   1.266   2.308  12.394
14107SOL     OW44152   7.159   4.417  10.659
14107SOL    HW144153   7.240   4.468  10.657
14107SOL    HW244154   7.109   4.447  10.583
14108SOL     OW44155   0.137  12.812   6.024
14108SOL    HW144156   0.208  12.820   6.088
14108SOL    HW244157   0.165  12.740   5.967
14109SOL     OW44158  14.381  11.782   2.885
14109SOL    HW144159  14.391  11.692   2.855
14109SOL    HW244160  14.316  11.820   2.826
14110SOL     OW44161   6.078   9.052   6.359
14110SOL    HW144162   6.116   9.129   6.402
14110SOL    HW244163   6.154   9.001   6.330
14111SOL     OW44164   0.141   5.898   6.069
14111SOL    HW144165   0.051   5.894   6.037
14111SOL    HW244166   0.167   5.989   6.055
14112SOL     OW44167   7.833   4.996   0.847
14112SOL    HW144168   7.788   4.913   0.861
14112SOL    HW244169   7.799   5.054   0.916
14113SOL     OW44170  12.597  12.220   5.551
14113SOL    HW144171  12.523  12.206   5.493
14113SOL    HW244172  12.664  12.260   5.496
14114SOL     OW44173   9.937   0.879   2.699
14114SOL    HW144174   9.935   0.898   2.605
14114SOL    HW244175  10.030   0.881   2.722
14115SOL     OW44176  10.796   8.604   7.266
14115SOL    HW144177  10.888   8.605   7.291
14115SOL    HW244178  10.772   8.697   7.262
14116SOL     OW44179   3.474   9.065   1.991
14116SOL    HW144180   3.409   9.085   1.923
14116SOL    HW244181   3.521   8.988   1.957
14117SOL     OW44182   9.950  10.987   7.533
14117SOL    HW144183   9.969  10.968   7.625
14117SOL    HW244184   9.877  10.930   7.511
14118SOL     OW44185  10.284   0.378   3.564
14118SOL    HW144186  10.376   0.349   3.571
14118SOL    HW244187  10.246   0.356   3.649
14119SOL     OW44188   5.461  14.475  12.780
14119SOL    HW144189   5.525  14.539  12.811
14119SOL    HW244190   5.463  14.483  12.685
14120SOL     OW44191   3.094   2.160   0.786
14120SOL    HW144192   3.064   2.156   0.877
14120SOL    HW244193   3.087   2.252   0.762
14121SOL     OW44194  14.082   8.718   0.850
14121SOL    HW144195  14.163   8.758   0.881
14121SOL    HW244196  14.014   8.756   0.905
14122SOL     OW44197  12.191  11.684  12.173
14122SOL    HW144198  12.156  11.773  12.173
14122SOL    HW244199  12.281  11.694  12.141
14123SOL     OW44200   8.366   1.458  11.120
14123SOL    HW144201   8.426   1.509  11.175
14123SOL    HW244202   8.369   1.370  11.157
14124SOL     OW44203  10.374   2.403   5.125
14124SOL    HW144204  10.427   2.484   5.120
14124SOL    HW244205  10.305   2.416   5.060
14125SOL     OW44206   5.338   2.395   8.097
14125SOL    HW144207   5.361   2.347   8.176
14125SOL    HW244208   5.377   2.344   8.026
14126SOL     OW44209   7.111  13.986   5.023
14126SOL    HW144210   7.081  14.033   5.100
14126SOL    HW244211   7.177  14.043   4.984
14127SOL     OW44212   2.143   3.541  12.968
14127SOL    HW144213   2.134   3.567  13.060
14127SOL    HW244214   2.145   3.624  12.920
14128SOL     OW44215  12.311  12.399   5.722
14128SOL    HW144216  12.276  12.371   5.806
14128SOL    HW244217  12.396  12.437   5.742
14129SOL     OW44218   3.441   0.566  14.051
14129SOL    HW144219   3.373   0.612  14.003
14129SOL    HW244220   3.479   0.505  13.988
14130SOL     OW44221   8.553   4.047   0.636
14130SOL    HW144222   8.541   4.060   0.730
14130SOL    HW244223   8.624   3.983   0.629
14131SOL     OW44224   4.473  11.882   7.793
14131SOL    HW144225   4.557  11.926   7.812
14131SOL    HW244226   4.421  11.895   7.873
14132SOL     OW44227   6.969   0.807  10.146
14132SOL    HW144228   7.021   0.775  10.220
14132SOL    HW244229   7.031   0.814  10.074
14133SOL     OW44230   3.854   1.939  11.977
14133SOL    HW144231   3.786   1.901  12.033
14133SOL    HW244232   3.935   1.896  12.006
14134SOL     OW44233   3.816   7.652  10.875
14134SOL    HW144234   3.733   7.641  10.827
14134SOL    HW244235   3.840   7.744  10.861
14135SOL     OW44236   4.012   7.788  11.338
14135SOL    HW144237   3.948   7.802  11.269
14135SOL    HW244238   3.962   7.792  11.419
14136SOL     OW44239   1.431  11.669   8.409
14136SOL    HW144240   1.417  11.760   8.382
14136SOL    HW244241   1.373  11.618   8.352
14137SOL     OW44242   4.468   8.420   2.662
14137SOL    HW144243   4.546   8.395   2.612
14137SOL    HW244244   4.454   8.347   2.722
14138SOL     OW44245   6.840   7.762  10.807
14138SOL    HW144246   6.770   7.819  10.775
14138SOL    HW244247   6.906   7.765  10.737
14139SOL     OW44248  11.865  10.452   9.528
14139SOL    HW144249  11.803  10.464   9.456
14139SOL    HW244250  11.918  10.532   9.527
14140SOL     OW44251  14.499  10.859   2.391
14140SOL    HW144252  14.513  10.822   2.304
14140SOL    HW244253  14.455  10.943   2.375
14141SOL     OW44254   4.961  10.004  11.251
14141SOL    HW144255   4.904  10.001  11.328
14141SOL    HW244256   5.033  10.062  11.277
14142SOL     OW44257   1.761   1.436   8.798
14142SOL    HW144258   1.761   1.352   8.845
14142SOL    HW244259   1.793   1.499   8.863
14143SOL     OW44260  10.812  12.692   4.114
14143SOL    HW144261  10.902  12.660   4.120
14143SOL    HW244262  10.810  12.769   4.171
14144SOL     OW44263  11.159   3.715   3.682
14144SOL    HW144264  11.098   3.641   3.690
14144SOL    HW244265  11.135   3.774   3.754
14145SOL     OW44266  13.500   5.475   6.915
14145SOL    HW144267  13.463   5.415   6.980
14145SOL    HW244268  13.594   5.476   6.934
14146SOL     OW44269   0.728   5.519  13.866
14146SOL    HW144270   0.728   5.582  13.794
14146SOL    HW244271   0.657   5.458  13.845
14147SOL     OW44272   4.512   3.527  14.096
14147SOL    HW144273   4.605   3.514  14.077
14147SOL    HW244274   4.510   3.603  14.155
14148SOL     OW44275   2.927   6.354  10.258
14148SOL    HW144276   2.984   6.420  10.297
14148SOL    HW244277   2.876   6.319  10.331
14149SOL     OW44278   0.726   0.681  12.125
14149SOL    HW144279   0.788   0.753  12.113
14149SOL    HW244280   0.664   0.712  12.191
14150SOL     OW44281   5.226   5.172  12.891
14150SOL    HW144282   5.151   5.118  12.864
14150SOL    HW244283   5.188   5.257  12.911
14151SOL     OW44284   5.165   6.305  10.194
14151SOL    HW144285   5.188   6.278  10.105
14151SOL    HW244286   5.178   6.227  10.247
14152SOL     OW44287   8.772  14.173  10.989
14152SOL    HW144288   8.782  14.168  10.894
14152SOL    HW244289   8.678  14.184  11.003
14153SOL     OW44290   6.728   7.725  11.633
14153SOL    HW144291   6.751   7.785  11.705
14153SOL    HW244292   6.812   7.706  11.590
14154SOL     OW44293   4.709   4.271   6.823
14154SOL    HW144294   4.679   4.329   6.753
14154SOL    HW244295   4.727   4.188   6.779
14155SOL     OW44296   9.707  11.984   2.021
14155SOL    HW144297   9.784  12.041   2.027
14155SOL    HW244298   9.633  12.041   2.038
14156SOL     OW44299   8.938   2.121   9.990
14156SOL    HW144300   8.892   2.180   9.931
14156SOL    HW244301   9.001   2.177  10.035
14157SOL     OW44302  12.087   0.935   1.311
14157SOL    HW144303  12.155   0.982   1.263
14157SOL    HW244304  12.129   0.910   1.393
14158SOL     OW44305  10.620  11.174   7.511
14158SOL    HW144306  10.533  11.210   7.494
14158SOL    HW244307  10.619  11.087   7.471
14159SOL     OW44308  13.374  10.918   1.916
14159SOL    HW144309  13.392  10.963   1.999
14159SOL    HW244310  13.285  10.945   1.893
14160SOL     OW44311  14.563  13.550   4.528
14160SOL    HW144312  14.544  13.460   4.554
14160SOL    HW244313  14.493  13.573   4.467
14161SOL     OW44314   9.046   5.364   0.559
14161SOL    HW144315   9.094   5.332   0.636
14161SOL    HW244316   9.097   5.334   0.484
14162SOL     OW44317   0.659   4.288  10.479
14162SOL    HW144318   0.567   4.298  10.502
14162SOL    HW244319   0.706   4.314  10.558
14163SOL     OW44320   1.336   0.337   7.286
14163SOL    HW144321   1.345   0.242   7.277
14163SOL    HW244322   1.323   0.351   7.380
14164SOL     OW44323   3.457  14.680   2.051
14164SOL    HW144324   3.364  14.675   2.075
14164SOL    HW244325   3.476  14.774   2.053
14165SOL     OW44326  11.714   0.333   0.493
14165SOL    HW144327  11.660   0.409   0.514
14165SOL    HW244328  11.708   0.325   0.397
14166SOL     OW44329   0.067  12.369  13.994
14166SOL    HW144330  14.879  12.331  14.048
14166SOL    HW244331   0.109  12.433  14.052
14167SOL     OW44332   5.958   9.232   6.673
14167SOL    HW144333   5.891   9.227   6.606
14167SOL    HW244334   6.039   9.249   6.625
14168SOL     OW44335   0.699  13.129   0.563
14168SOL    HW144336   0.640  13.200   0.539
14168SOL    HW244337   0.640  13.054   0.578
14169SOL     OW44338   6.244  10.979   9.944
14169SOL    HW144339   6.168  10.940   9.902
14169SOL    HW244340   6.310  10.910   9.944
14170SOL     OW44341  11.789   9.303  12.769
14170SOL    HW144342  11.849   9.229  12.783
14170SOL    HW244343  11.745   9.283  12.686
14171SOL     OW44344  12.260   0.618  10.635
14171SOL    HW144345  12.237   0.607  10.543
14171SOL    HW244346  12.336   0.561  10.647
14172SOL     OW44347   7.646  12.688  14.091
14172SOL    HW144348   7.623  12.781  14.098
14172SOL    HW244349   7.641  12.669  13.997
14173SOL     OW44350  13.234   7.785   6.039
14173SOL    HW144351  13.168   7.792   6.108
14173SOL    HW244352  13.289   7.863   6.052
14174SOL     OW44353   3.681   7.730  14.645
14174SOL    HW144354   3.715   7.816  14.667
14174SOL    HW244355   3.587   7.743  14.635
14175SOL     OW44356   4.022  11.716   4.867
14175SOL    HW144357   3.939  11.687   4.904
14175SOL    HW244358   4.021  11.684   4.777
14176SOL     OW44359   2.340   6.059   7.759
14176SOL    HW144360   2.423   6.038   7.804
14176SOL    HW244361   2.272   6.025   7.818
14177SOL     OW44362  10.120  13.705   8.886
14177SOL    HW144363  10.140  13.669   8.973
14177SOL    HW244364  10.035  13.748   8.898
14178SOL     OW44365   3.773  11.747   4.551
14178SOL    HW144366   3.765  11.672   4.611
14178SOL    HW244367   3.712  11.727   4.480
14179SOL     OW44368   7.198   2.618  11.164
14179SOL    HW144369   7.270   2.675  11.190
14179SOL    HW244370   7.149   2.669  11.099
14180SOL     OW44371   1.213  11.872  12.821
14180SOL    HW144372   1.292  11.817  12.825
14180SOL    HW244373   1.241  11.957  12.854
14181SOL     OW44374   8.361   6.053   7.067
14181SOL    HW144375   8.321   6.027   6.984
14181SOL    HW244376   8.293   6.037   7.132
14182SOL     OW44377   5.983   1.364  12.452
14182SOL    HW144378   6.055   1.422  12.427
14182SOL    HW244379   6.026   1.288  12.491
14183SOL     OW44380  13.448   2.232  11.222
14183SOL    HW144381  13.486   2.164  11.278
14183SOL    HW244382  13.498   2.311  11.242
14184SOL     OW44383   3.736   3.833   6.111
14184SOL    HW144384   3.728   3.892   6.186
14184SOL    HW244385   3.828   3.807   6.110
14185SOL     OW44386   6.545  10.166   6.440
14185SOL    HW144387   6.640  10.158   6.434
14185SOL    HW244388   6.511  10.084   6.405
14186SOL     OW44389  10.501   7.238  10.686
14186SOL    HW144390  10.446   7.317  10.690
14186SOL    HW244391  10.578   7.265  10.636
14187SOL     OW44392   6.138  14.562   2.965
14187SOL    HW144393   6.228  14.554   2.996
14187SOL    HW244394   6.114  14.474   2.937
14188SOL     OW44395   2.795   6.999   3.966
14188SOL    HW144396   2.712   7.021   3.923
14188SOL    HW244397   2.776   7.003   4.059
14189SOL     OW44398  13.431  12.753   7.201
14189SOL    HW144399  13.392  12.677   7.157
14189SOL    HW244400  13.356  12.798   7.241
14190SOL     OW44401   4.956  11.882   6.083
14190SOL    HW144402   4.895  11.947   6.048
14190SOL    HW244403   4.946  11.889   6.178
14191SOL     OW44404   3.180  10.967  10.730
14191SOL    HW144405   3.179  10.925  10.644
14191SOL    HW244406   3.118  10.915  10.782
14192SOL     OW44407   2.159   7.033   4.111
14192SOL    HW144408   2.234   7.043   4.053
14192SOL    HW244409   2.129   7.122   4.128
14193SOL     OW44410   8.703  13.991   1.534
14193SOL    HW144411   8.668  14.021   1.618
14193SOL    HW244412   8.711  14.070   1.481
14194SOL     OW44413   0.758   3.808  11.592
14194SOL    HW144414   0.705   3.735  11.625
14194SOL    HW244415   0.759   3.872  11.664
14195SOL     OW44416   7.120   1.537  10.945
14195SOL    HW144417   7.102   1.473  11.014
14195SOL    HW244418   7.047   1.598  10.949
14196SOL     OW44419   6.919  11.096  13.659
14196SOL    HW144420   6.865  11.027  13.697
14196SOL    HW244421   6.884  11.177  13.695
14197SOL     OW44422   0.693   6.550  14.424
14197SOL    HW144423   0.676   6.494  14.500
14197SOL    HW244424   0.788   6.565  14.426
14198SOL     OW44425   8.957   2.475   5.022
14198SOL    HW144426   8.965   2.567   4.996
14198SOL    HW244427   9.014   2.466   5.098
14199SOL     OW44428  13.382   3.542  10.120
14199SOL    HW144429  13.385   3.624  10.069
14199SOL    HW244430  13.374   3.473  10.054
14200SOL     OW44431   9.277  12.661  13.404
14200SOL    HW144432   9.239  12.638  13.319
14200SOL    HW244433   9.261  12.755  13.412
14201SOL     OW44434   7.485  13.772   5.922
14201SOL    HW144435   7.557  13.715   5.948
14201SOL    HW244436   7.406  13.719   5.937
14202SOL     OW44437  13.123  13.686   7.875
14202SOL    HW144438  13.163  13.654   7.794
14202SOL    HW244439  13.061  13.618   7.900
14203SOL     OW44440   8.848  12.559   0.550
14203SOL    HW144441   8.798  12.553   0.630
14203SOL    HW244442   8.786  12.592   0.485
14204SOL     OW44443   5.890  14.205   4.940
14204SOL    HW144444   5.851  14.154   4.869
14204SOL    HW244445   5.960  14.255   4.898
14205SOL     OW44446   1.451  12.935   6.104
14205SOL    HW144447   1.480  13.024   6.082
14205SOL    HW244448   1.371  12.948   6.156
14206SOL     OW44449   1.428  14.538  10.352
14206SOL    HW144450   1.464  14.497  10.430
14206SOL    HW244451   1.449  14.478  10.281
14207SOL     OW44452   4.897   0.878   5.596
14207SOL    HW144453   4.963   0.808   5.591
14207SOL    HW244454   4.863   0.872   5.686
14208SOL     OW44455   1.533   8.618   5.334
14208SOL    HW144456   1.614   8.575   5.307
14208SOL    HW244457   1.531   8.700   5.286
14209SOL     OW44458   2.982   6.477  14.802
14209SOL    HW144459   3.007   6.563  14.769
14209SOL    HW244460   3.063   6.439  14.835
14210SOL     OW44461   1.401  12.759  12.313
14210SOL    HW144462   1.492  12.777  12.290
14210SOL    HW244463   1.373  12.694  12.248
14211SOL     OW44464   5.615   0.334   1.202
14211SOL    HW144465   5.657   0.301   1.281
14211SOL    HW244466   5.672   0.406   1.173
14212SOL     OW44467  12.180   4.287   4.466
14212SOL    HW144468  12.150   4.269   4.377
14212SOL    HW244469  12.210   4.378   4.463
14213SOL     OW44470  14.323   4.925  14.165
14213SOL    HW144471  14.348   4.987  14.234
14213SOL    HW244472  14.228   4.936  14.157
14214SOL     OW44473   7.166  12.558   3.468
14214SOL    HW144474   7.133  12.501   3.398
14214SOL    HW244475   7.094  12.561   3.531
14215SOL     OW44476   5.322   6.740   1.575
14215SOL    HW144477   5.359   6.712   1.491
14215SOL    HW244478   5.238   6.696   1.580
14216SOL     OW44479  10.133  13.778   9.321
14216SOL    HW144480  10.142  13.704   9.260
14216SOL    HW244481  10.138  13.738   9.408
14217SOL     OW44482   2.785  11.504  11.705
14217SOL    HW144483   2.767  11.498  11.611
14217SOL    HW244484   2.741  11.585  11.732
14218SOL     OW44485  12.841   7.647   5.374
14218SOL    HW144486  12.801   7.657   5.460
14218SOL    HW244487  12.865   7.737   5.348
14219SOL     OW44488   8.642  14.580  12.769
14219SOL    HW144489   8.722  14.619  12.734
14219SOL    HW244490   8.607  14.528  12.696
14220SOL     OW44491   1.328  14.358   3.247
14220SOL    HW144492   1.389  14.430   3.231
14220SOL    HW244493   1.243  14.392   3.218
14221SOL     OW44494   7.566  14.111  14.583
14221SOL    HW144495   7.622  14.047  14.538
14221SOL    HW244496   7.498  14.133  14.519
14222SOL     OW44497  14.394   6.685   8.659
14222SOL    HW144498  14.350   6.760   8.699
14222SOL    HW244499  14.445   6.647   8.730
14223SOL     OW44500  14.420   4.448   4.414
14223SOL    HW144501  14.337   4.407   4.387
14223SOL    HW244502  14.399   4.491   4.497
14224SOL     OW44503   5.984   5.980  11.566
14224SOL    HW144504   5.935   5.972  11.647
14224SOL    HW244505   6.055   5.916  11.574
14225SOL     OW44506  12.943   7.756   7.533
14225SOL    HW144507  12.939   7.728   7.442
14225SOL    HW244508  12.883   7.830   7.539
14226SOL     OW44509   7.079   1.080  14.158
14226SOL    HW144510   7.079   1.090  14.063
14226SOL    HW244511   7.023   1.005  14.175
14227SOL     OW44512  11.660   0.977   7.204
14227SOL    HW144513  11.565   0.980   7.196
14227SOL    HW244514  11.691   0.964   7.114
14228SOL     OW44515  11.673   5.509   7.197
14228SOL    HW144516  11.735   5.578   7.223
14228SOL    HW244517  11.721   5.459   7.131
14229SOL     OW44518   6.602   5.746   1.514
14229SOL    HW144519   6.638   5.819   1.465
14229SOL    HW244520   6.639   5.668   1.473
14230SOL     OW44521   5.128   2.358   0.688
14230SOL    HW144522   5.093   2.272   0.665
14230SOL    HW244523   5.111   2.413   0.612
14231SOL     OW44524  13.728   6.449   4.391
14231SOL    HW144525  13.722   6.368   4.442
14231SOL    HW244526  13.716   6.421   4.300
14232SOL     OW44527  12.682   2.218   8.635
14232SOL    HW144528  12.601   2.267   8.651
14232SOL    HW244529  12.676   2.190   8.544
14233SOL     OW44530   0.939   4.043   5.859
14233SOL    HW144531   0.871   4.025   5.795
14233SOL    HW244532   0.988   3.961   5.867
14234SOL     OW44533  14.619  12.734   3.637
14234SOL    HW144534  14.632  12.796   3.709
14234SOL    HW244535  14.564  12.782   3.575
14235SOL     OW44536   8.688  10.765   0.593
14235SOL    HW144537   8.686  10.716   0.511
14235SOL    HW244538   8.607  10.817   0.593
14236SOL     OW44539   6.498   4.891   0.188
14236SOL    HW144540   6.476   4.798   0.200
14236SOL    HW244541   6.572   4.890   0.128
14237SOL     OW44542   2.259   4.977  14.617
14237SOL    HW144543   2.281   4.888  14.644
14237SOL    HW244544   2.163   4.981  14.624
14238SOL     OW44545   1.588   0.624   0.858
14238SOL    HW144546   1.503   0.585   0.879
14238SOL    HW244547   1.652   0.566   0.898
14239SOL     OW44548   2.878   9.922   5.342
14239SOL    HW144549   2.792   9.948   5.374
14239SOL    HW244550   2.878   9.946   5.249
14240SOL     OW44551   9.297   5.820   4.458
14240SOL    HW144552   9.237   5.894   4.453
14240SOL    HW244553   9.286   5.786   4.546
14241SOL     OW44554  13.959  13.741   3.754
14241SOL    HW144555  14.022  13.671   3.738
14241SOL    HW244556  13.983  13.810   3.692
14242SOL     OW44557   9.785   1.472   1.419
14242SOL    HW144558   9.877   1.490   1.400
14242SOL    HW244559   9.766   1.392   1.371
14243SOL     OW44560  10.075   9.469   9.600
14243SOL    HW144561  10.028   9.489   9.519
14243SOL    HW244562  10.015   9.493   9.670
14244SOL     OW44563   6.727   8.299   5.369
14244SOL    HW144564   6.641   8.288   5.411
14244SOL    HW244565   6.749   8.212   5.336
14245SOL     OW44566   6.557  12.508   4.351
14245SOL    HW144567   6.632  12.566   4.339
14245SOL    HW244568   6.559  12.484   4.443
14246SOL     OW44569   1.472  10.070   5.959
14246SOL    HW144570   1.527   9.993   5.944
14246SOL    HW244571   1.434  10.090   5.874
14247SOL     OW44572  11.061   7.482   1.370
14247SOL    HW144573  11.040   7.451   1.282
14247SOL    HW244574  10.995   7.441   1.426
14248SOL     OW44575   5.326   6.076  14.760
14248SOL    HW144576   5.383   6.065  14.684
14248SOL    HW244577   5.336   6.169  14.784
14249SOL     OW44578   9.976   1.269  10.370
14249SOL    HW144579   9.921   1.228  10.303
14249SOL    HW244580   9.923   1.267  10.450
14250SOL     OW44581  13.697   3.767   3.262
14250SOL    HW144582  13.768   3.727   3.313
14250SOL    HW244583  13.642   3.810   3.327
14251SOL     OW44584   9.135   9.550   4.563
14251SOL    HW144585   9.137   9.645   4.551
14251SOL    HW244586   9.129   9.515   4.474
14252SOL     OW44587  14.367   2.603  10.369
14252SOL    HW144588  14.455   2.565  10.377
14252SOL    HW244589  14.363   2.634  10.278
14253SOL     OW44590   6.969  10.675  12.539
14253SOL    HW144591   7.010  10.588  12.537
14253SOL    HW244592   6.875  10.657  12.532
14254SOL     OW44593   2.974   9.513   1.451
14254SOL    HW144594   3.023   9.432   1.434
14254SOL    HW244595   3.033   9.566   1.504
14255SOL     OW44596   7.512   1.034   0.059
14255SOL    HW144597   7.505   0.946   0.024
14255SOL    HW244598   7.575   1.026   0.132
14256SOL     OW44599  14.745   1.946   2.595
14256SOL    HW144600  14.669   1.998   2.569
14256SOL    HW244601  14.740   1.943   2.691
14257SOL     OW44602  12.850   2.385  14.832
14257SOL    HW144603  12.884   2.303  14.796
14257SOL    HW244604  12.789   2.417  14.766
14258SOL     OW44605   7.027   3.496   8.246
14258SOL    HW144606   7.122   3.508   8.253
14258SOL    HW244607   7.017   3.417   8.192
14259SOL     OW44608   1.687  11.120  13.021
14259SOL    HW144609   1.730  11.139  13.104
14259SOL    HW244610   1.601  11.162  13.029
14260SOL     OW44611   7.116   5.653   7.204
14260SOL    HW144612   7.096   5.597   7.278
14260SOL    HW244613   7.044   5.639   7.143
14261SOL     OW44614   7.117   5.710   8.922
14261SOL    HW144615   7.144   5.698   9.012
14261SOL    HW244616   7.045   5.774   8.927
14262SOL     OW44617   7.450   4.589   7.861
14262SOL    HW144618   7.417   4.503   7.836
14262SOL    HW244619   7.481   4.628   7.780
14263SOL     OW44620  14.615   4.702   5.940
14263SOL    HW144621  14.626   4.775   6.000
14263SOL    HW244622  14.521   4.696   5.925
14264SOL     OW44623   1.863  14.464   6.960
14264SOL    HW144624   1.777  14.428   6.983
14264SOL    HW244625   1.859  14.555   6.988
14265SOL     OW44626   5.704  10.119   0.362
14265SOL    HW144627   5.795  10.091   0.358
14265SOL    HW244628   5.696  10.165   0.446
14266SOL     OW44629  14.748   2.249  10.085
14266SOL    HW144630  14.714   2.169  10.044
14266SOL    HW244631  14.842   2.244  10.071
14267SOL     OW44632   7.773   7.049  10.686
14267SOL    HW144633   7.719   7.040  10.765
14267SOL    HW244634   7.755   6.969  10.636
14268SOL     OW44635   4.639   6.147  13.523
14268SOL    HW144636   4.692   6.067  13.521
14268SOL    HW244637   4.660   6.187  13.607
14269SOL     OW44638   5.334   1.974  10.822
14269SOL    HW144639   5.276   1.911  10.865
14269SOL    HW244640   5.377   1.924  10.754
14270SOL     OW44641   5.399  13.517   6.301
14270SOL    HW144642   5.446  13.507   6.384
14270SOL    HW244643   5.373  13.428   6.278
14271SOL     OW44644  11.794   9.080   9.394
14271SOL    HW144645  11.852   9.139   9.443
14271SOL    HW244646  11.852   9.034   9.334
14272SOL     OW44647   3.606   3.750   8.382
14272SOL    HW144648   3.533   3.709   8.336
14272SOL    HW244649   3.570   3.831   8.417
14273SOL     OW44650   7.238  12.863  10.469
14273SOL    HW144651   7.219  12.805  10.395
14273SOL    HW244652   7.290  12.809  10.529
14274SOL     OW44653  13.992   6.685   5.316
14274SOL    HW144654  14.027   6.640   5.238
14274SOL    HW244655  13.990   6.777   5.292
14275SOL     OW44656   7.474   0.458   9.034
14275SOL    HW144657   7.460   0.499   9.119
14275SOL    HW244658   7.490   0.530   8.974
14276SOL     OW44659   7.579   5.209  10.034
14276SOL    HW144660   7.662   5.222  10.080
14276SOL    HW244661   7.512   5.238  10.097
14277SOL     OW44662   0.788   8.606   6.397
14277SOL    HW144663   0.873   8.594   6.440
14277SOL    HW244664   0.794   8.553   6.317
14278SOL     OW44665   0.098  12.787   0.525
14278SOL    HW144666   0.160  12.840   0.474
14278SOL    HW244667   0.144  12.705   0.541
14279SOL     OW44668   7.025   0.842   5.623
14279SOL    HW144669   7.050   0.807   5.538
14279SOL    HW244670   6.946   0.794   5.647
14280SOL     OW44671   3.888  14.785   7.831
14280SOL    HW144672   3.848  14.725   7.768
14280SOL    HW244673   3.936  14.847   7.777
14281SOL     OW44674  14.620   2.235   7.959
14281SOL    HW144675  14.669   2.153   7.954
14281SOL    HW244676  14.677   2.294   8.008
14282SOL     OW44677   6.501   3.231   5.221
14282SOL    HW144678   6.571   3.217   5.156
14282SOL    HW244679   6.536   3.195   5.302
14283SOL     OW44680   7.791  14.650   9.162
14283SOL    HW144681   7.763  14.736   9.195
14283SOL    HW244682   7.880  14.640   9.194
14284SOL     OW44683   8.005  10.275  12.829
14284SOL    HW144684   8.077  10.222  12.863
14284SOL    HW244685   8.005  10.259  12.735
14285SOL     OW44686   3.434   6.867   6.893
14285SOL    HW144687   3.398   6.855   6.981
14285SOL    HW244688   3.520   6.826   6.896
14286SOL     OW44689   3.691   4.583   3.839
14286SOL    HW144690   3.598   4.577   3.818
14286SOL    HW244691   3.695   4.651   3.907
14287SOL     OW44692   0.616  10.303   0.073
14287SOL    HW144693   0.532  10.346   0.055
14287SOL    HW244694   0.641  10.337   0.159
14288SOL     OW44695   5.183   3.530  10.503
14288SOL    HW144696   5.104   3.559  10.547
14288SOL    HW244697   5.171   3.436  10.490
14289SOL     OW44698  13.278  14.193   2.008
14289SOL    HW144699  13.184  14.201   1.990
14289SOL    HW244700  13.321  14.233   1.932
14290SOL     OW44701   8.216   5.948  12.317
14290SOL    HW144702   8.162   5.961  12.239
14290SOL    HW244703   8.201   6.026  12.370
14291SOL     OW44704   6.366   3.017   0.028
14291SOL    HW144705   6.424   3.040  14.838
14291SOL    HW244706   6.281   3.000  14.868
14292SOL     OW44707  14.814  14.847  11.191
14292SOL    HW144708   0.006  14.815  11.139
14292SOL    HW244709  14.788   0.047  11.148
14293SOL     OW44710  10.029   5.144  11.549
14293SOL    HW144711   9.939   5.120  11.571
14293SOL    HW244712  10.076   5.061  11.547
14294SOL     OW44713   7.415   7.465   7.936
14294SOL    HW144714   7.368   7.544   7.909
14294SOL    HW244715   7.455   7.489   8.020
14295SOL     OW44716  11.299   7.117   3.819
14295SOL    HW144717  11.259   7.057   3.756
14295SOL    HW244718  11.327   7.191   3.766
14296SOL     OW44719  13.099   9.967  13.080
14296SOL    HW144720  13.050   9.961  12.998
14296SOL    HW244721  13.167  10.033  13.063
14297SOL     OW44722   8.304   8.655   2.495
14297SOL    HW144723   8.393   8.633   2.466
14297SOL    HW244724   8.282   8.586   2.557
14298SOL     OW44725   7.497   5.945   2.506
14298SOL    HW144726   7.530   5.883   2.442
14298SOL    HW244727   7.562   5.944   2.577
14299SOL     OW44728  11.340  11.972   5.726
14299SOL    HW144729  11.422  11.938   5.762
14299SOL    HW244730  11.286  11.894   5.712
14300SOL     OW44731  13.918   9.317   9.324
14300SOL    HW144732  13.837   9.301   9.275
14300SOL    HW244733  13.891   9.320   9.416
14301SOL     OW44734   5.716   7.754   2.095
14301SOL    HW144735   5.755   7.808   2.027
14301SOL    HW244736   5.635   7.722   2.057
14302SOL     OW44737   7.868  13.012   1.250
14302SOL    HW144738   7.825  12.927   1.240
14302SOL    HW244739   7.921  13.003   1.328
14303SOL     OW44740   9.080   4.262   6.659
14303SOL    HW144741   9.034   4.183   6.687
14303SOL    HW244742   9.104   4.306   6.740
14304SOL     OW44743  10.161   2.711   4.335
14304SOL    HW144744  10.133   2.732   4.424
14304SOL    HW244745  10.251   2.742   4.330
14305SOL     OW44746  13.857   3.422   4.185
14305SOL    HW144747  13.798   3.480   4.234
14305SOL    HW244748  13.822   3.334   4.202
14306SOL     OW44749   0.131  11.899  13.778
14306SOL    HW144750   0.093  11.964  13.718
14306SOL    HW244751   0.225  11.908  13.768
14307SOL     OW44752   6.176   6.788  13.961
14307SOL    HW144753   6.236   6.782  14.036
14307SOL    HW244754   6.098   6.832  13.997
14308SOL     OW44755   4.696   4.800   2.063
14308SOL    HW144756   4.685   4.778   2.156
14308SOL    HW244757   4.765   4.866   2.063
14309SOL     OW44758   1.136   5.188  13.821
14309SOL    HW144759   1.142   5.218  13.912
14309SOL    HW244760   1.137   5.092  13.827
14310SOL     OW44761   5.725   1.417  10.272
14310SOL    HW144762   5.745   1.510  10.286
14310SOL    HW244763   5.702   1.384  10.359
14311SOL     OW44764  14.136   7.744   6.042
14311SOL    HW144765  14.042   7.741   6.058
14311SOL    HW244766  14.163   7.831   6.070
14312SOL     OW44767   7.525  11.829   8.998
14312SOL    HW144768   7.439  11.863   9.022
14312SOL    HW244769   7.531  11.744   9.042
14313SOL     OW44770  10.032  13.739   2.206
14313SOL    HW144771  10.009  13.694   2.286
14313SOL    HW244772  10.121  13.708   2.186
14314SOL     OW44773   4.179   5.074  10.548
14314SOL    HW144774   4.153   5.036  10.632
14314SOL    HW244775   4.251   5.018  10.517
14315SOL     OW44776  12.102   9.969   0.259
14315SOL    HW144777  12.059  10.036   0.205
14315SOL    HW244778  12.179  10.013   0.296
14316SOL     OW44779   5.425   8.707   1.595
14316SOL    HW144780   5.440   8.614   1.612
14316SOL    HW244781   5.512   8.747   1.596
14317SOL     OW44782  13.660   6.131   8.174
14317SOL    HW144783  13.627   6.075   8.244
14317SOL    HW244784  13.597   6.119   8.103
14318SOL     OW44785   1.885   7.593   3.273
14318SOL    HW144786   1.910   7.527   3.338
14318SOL    HW244787   1.956   7.592   3.209
14319SOL     OW44788  13.483  13.951   0.612
14319SOL    HW144789  13.440  13.958   0.527
14319SOL    HW244790  13.576  13.938   0.592
14320SOL     OW44791   7.023   5.202   4.257
14320SOL    HW144792   7.117   5.209   4.243
14320SOL    HW244793   6.994   5.292   4.273
14321SOL     OW44794   0.339   0.017   5.387
14321SOL    HW144795   0.378   0.084   5.332
14321SOL    HW244796   0.339   0.054   5.475
14322SOL     OW44797   0.985   3.635   4.878
14322SOL    HW144798   0.997   3.665   4.787
14322SOL    HW244799   0.898   3.596   4.879
14323SOL     OW44800   8.369  12.878   7.330
14323SOL    HW144801   8.454  12.908   7.362
14323SOL    HW244802   8.362  12.788   7.362
14324SOL     OW44803   0.794  13.114  11.378
14324SOL    HW144804   0.771  13.021  11.381
14324SOL    HW244805   0.867  13.122  11.439
14325SOL     OW44806   4.229  14.003   5.860
14325SOL    HW144807   4.139  14.037   5.861
14325SOL    HW244808   4.218  13.908   5.858
14326SOL     OW44809   8.076   4.575  14.294
14326SOL    HW144810   8.107   4.536  14.375
14326SOL    HW244811   8.026   4.506  14.251
14327SOL     OW44812   6.682   2.270   9.929
14327SOL    HW144813   6.665   2.355   9.889
14327SOL    HW244814   6.731   2.290  10.009
14328SOL     OW44815   7.701   9.866   3.263
14328SOL    HW144816   7.742   9.870   3.176
14328SOL    HW244817   7.770   9.893   3.323
14329SOL     OW44818   1.853   1.226   1.659
14329SOL    HW144819   1.841   1.182   1.575
14329SOL    HW244820   1.946   1.252   1.659
14330SOL     OW44821   7.465  10.695   1.711
14330SOL    HW144822   7.419  10.673   1.630
14330SOL    HW244823   7.540  10.634   1.713
14331SOL     OW44824  14.398  10.437   2.588
14331SOL    HW144825  14.487  10.440   2.552
14331SOL    HW244826  14.344  10.404   2.516
14332SOL     OW44827  10.981  11.728   9.824
14332SOL    HW144828  11.049  11.710   9.889
14332SOL    HW244829  11.020  11.702   9.740
14333SOL     OW44830  13.712   6.089   3.158
14333SOL    HW144831  13.617   6.080   3.154
14333SOL    HW244832  13.744   6.000   3.176
14334SOL     OW44833  13.686  11.042  10.995
14334SOL    HW144834  13.714  10.978  10.929
14334SOL    HW244835  13.608  11.004  11.034
14335SOL     OW44836   2.670   6.472   2.115
14335SOL    HW144837   2.678   6.393   2.061
14335SOL    HW244838   2.588   6.512   2.087
14336SOL     OW44839  12.714   5.099   3.627
14336SOL    HW144840  12.636   5.091   3.571
14336SOL    HW244841  12.711   5.020   3.682
14337SOL     OW44842   1.211   0.700   7.232
14337SOL    HW144843   1.180   0.629   7.288
14337SOL    HW244844   1.263   0.756   7.290
14338SOL     OW44845  11.361  11.315   1.422
14338SOL    HW144846  11.428  11.321   1.490
14338SOL    HW244847  11.383  11.236   1.373
14339SOL     OW44848   4.618  14.303  11.047
14339SOL    HW144849   4.621  14.347  10.963
14339SOL    HW244850   4.550  14.236  11.036
14340SOL     OW44851  14.434   5.350   3.408
14340SOL    HW144852  14.423   5.258   3.386
14340SOL    HW244853  14.523   5.371   3.382
14341SOL     OW44854  10.195   9.521   7.444
14341SOL    HW144855  10.229   9.610   7.434
14341SOL    HW244856  10.100   9.532   7.449
14342SOL     OW44857  12.254   8.389   3.374
14342SOL    HW144858  12.168   8.354   3.397
14342SOL    HW244859  12.316   8.338   3.427
14343SOL     OW44860   8.616   1.363   3.020
14343SOL    HW144861   8.548   1.395   2.962
14343SOL    HW244862   8.664   1.442   3.046
14344SOL     OW44863  11.051   5.169   2.079
14344SOL    HW144864  10.966   5.209   2.060
14344SOL    HW244865  11.072   5.118   2.001
14345SOL     OW44866   6.430  11.463   5.705
14345SOL    HW144867   6.458  11.473   5.796
14345SOL    HW244868   6.397  11.549   5.680
14346SOL     OW44869  11.517   8.473   3.964
14346SOL    HW144870  11.595   8.492   4.016
14346SOL    HW244871  11.503   8.552   3.913
14347SOL     OW44872   0.372   3.062   9.086
14347SOL    HW144873   0.377   2.986   9.143
14347SOL    HW244874   0.292   3.050   9.035
14348SOL     OW44875   4.613  12.159   1.715
14348SOL    HW144876   4.580  12.121   1.633
14348SOL    HW244877   4.686  12.213   1.688
14349SOL     OW44878  11.310   5.124   9.802
14349SOL    HW144879  11.319   5.068   9.879
14349SOL    HW244880  11.217   5.120   9.780
14350SOL     OW44881   0.933   0.613   1.328
14350SOL    HW144882   1.016   0.592   1.285
14350SOL    HW244883   0.950   0.600   1.421
14351SOL     OW44884  12.278  12.754   6.854
14351SOL    HW144885  12.309  12.682   6.909
14351SOL    HW244886  12.185  12.738   6.841
14352SOL     OW44887  13.486   6.494   7.644
14352SOL    HW144888  13.528   6.580   7.646
14352SOL    HW244889  13.428   6.494   7.721
14353SOL     OW44890  13.878   4.371   1.837
14353SOL    HW144891  13.883   4.401   1.747
14353SOL    HW244892  13.887   4.450   1.890
14354SOL     OW44893   0.989  14.211   6.780
14354SOL    HW144894   1.025  14.293   6.814
14354SOL    HW244895   1.065  14.152   6.777
14355SOL     OW44896  11.884   6.210   4.541
14355SOL    HW144897  11.901   6.121   4.509
14355SOL    HW244898  11.828   6.249   4.473
14356SOL     OW44899  12.153   0.258   0.473
14356SOL    HW144900  12.214   0.261   0.547
14356SOL    HW244901  12.209   0.271   0.396
14357SOL     OW44902  13.920  12.649   3.965
14357SOL    HW144903  13.923  12.730   4.017
14357SOL    HW244904  13.986  12.593   4.005
14358SOL     OW44905  12.391   4.719   7.936
14358SOL    HW144906  12.352   4.643   7.893
14358SOL    HW244907  12.378   4.791   7.874
14359SOL     OW44908   4.195   3.528  11.501
14359SOL    HW144909   4.230   3.442  11.479
14359SOL    HW244910   4.100   3.517  11.495
14360SOL     OW44911  13.624  10.745  13.941
14360SOL    HW144912  13.574  10.762  14.021
14360SOL    HW244913  13.588  10.806  13.877
14361SOL     OW44914   9.271  12.820  14.039
14361SOL    HW144915   9.210  12.846  13.970
14361SOL    HW244916   9.217  12.773  14.103
14362SOL     OW44917   5.829  12.759   2.687
14362SOL    HW144918   5.916  12.795   2.701
14362SOL    HW244919   5.786  12.767   2.772
14363SOL     OW44920   3.107   8.602  10.226
14363SOL    HW144921   3.122   8.678  10.170
14363SOL    HW244922   3.189   8.591  10.273
14364SOL     OW44923   3.290   5.353   2.668
14364SOL    HW144924   3.224   5.379   2.604
14364SOL    HW244925   3.283   5.257   2.672
14365SOL     OW44926   3.139   9.822  13.947
14365SOL    HW144927   3.205   9.863  14.002
14365SOL    HW244928   3.106   9.748  13.998
14366SOL     OW44929   1.368  14.489   6.883
14366SOL    HW144930   1.402  14.400   6.877
14366SOL    HW244931   1.443  14.544   6.860
14367SOL     OW44932   3.617   2.799   7.020
14367SOL    HW144933   3.627   2.832   7.109
14367SOL    HW244934   3.540   2.844   6.986
14368SOL     OW44935   7.464  10.364  11.411
14368SOL    HW144936   7.417  10.283  11.432
14368SOL    HW244937   7.500  10.393  11.495
14369SOL     OW44938  13.345   7.267   2.639
14369SOL    HW144939  13.335   7.271   2.544
14369SOL    HW244940  13.268   7.313   2.673
14370SOL     OW44941   6.883   2.618   4.499
14370SOL    HW144942   6.890   2.714   4.494
14370SOL    HW244943   6.853   2.592   4.412
14371SOL     OW44944  11.052   7.288   3.365
14371SOL    HW144945  11.117   7.355   3.343
14371SOL    HW244946  10.972   7.316   3.319
14372SOL     OW44947   1.442  12.852  10.988
14372SOL    HW144948   1.369  12.909  11.012
14372SOL    HW244949   1.479  12.824  11.072
14373SOL     OW44950   8.910   8.691  11.590
14373SOL    HW144951   8.930   8.754  11.659
14373SOL    HW244952   8.930   8.737  11.509
14374SOL     OW44953   2.758  13.342   5.138
14374SOL    HW144954   2.694  13.405   5.103
14374SOL    HW244955   2.817  13.326   5.065
14375SOL     OW44956   6.864   3.895  14.591
14375SOL    HW144957   6.934   3.945  14.632
14375SOL    HW244958   6.910   3.823  14.547
14376SOL     OW44959   9.068   9.783   7.931
14376SOL    HW144960   9.035   9.719   7.994
14376SOL    HW244961   8.998   9.848   7.925
14377SOL     OW44962   3.396   1.326   9.706
14377SOL    HW144963   3.361   1.374   9.630
14377SOL    HW244964   3.437   1.248   9.668
14378SOL     OW44965   2.031   8.373  11.037
14378SOL    HW144966   2.026   8.463  11.005
14378SOL    HW244967   2.024   8.319  10.959
14379SOL     OW44968   6.667   4.690   4.136
14379SOL    HW144969   6.760   4.702   4.115
14379SOL    HW244970   6.632   4.779   4.142
14380SOL     OW44971   1.071   8.589   7.513
14380SOL    HW144972   1.141   8.551   7.460
14380SOL    HW244973   1.108   8.595   7.601
14381SOL     OW44974  12.834   6.642   3.659
14381SOL    HW144975  12.893   6.686   3.720
14381SOL    HW244976  12.886   6.570   3.623
14382SOL     OW44977  12.159   3.371  11.874
14382SOL    HW144978  12.106   3.431  11.928
14382SOL    HW244979  12.243   3.366  11.920
14383SOL     OW44980   2.514   0.171   7.656
14383SOL    HW144981   2.532   0.251   7.608
14383SOL    HW244982   2.490   0.107   7.589
14384SOL     OW44983  13.329  11.590  10.718
14384SOL    HW144984  13.245  11.592  10.673
14384SOL    HW244985  13.331  11.672  10.769
14385SOL     OW44986  13.813  12.119  13.232
14385SOL    HW144987  13.794  12.104  13.140
14385SOL    HW244988  13.764  12.051  13.278
14386SOL     OW44989   3.890   6.200   5.193
14386SOL    HW144990   3.830   6.274   5.185
14386SOL    HW244991   3.889   6.178   5.286
14387SOL     OW44992  12.051  10.546   5.407
14387SOL    HW144993  12.015  10.599   5.336
14387SOL    HW244994  12.003  10.576   5.485
14388SOL     OW44995   2.455   2.481   4.922
14388SOL    HW144996   2.542   2.489   4.883
14388SOL    HW244997   2.419   2.400   4.887
14389SOL     OW44998   4.691   7.261   3.143
14389SOL    HW144999   4.698   7.339   3.198
14389SOL    HW245000   4.778   7.223   3.143
14390SOL     OW45001  14.355   6.416   1.167
14390SOL    HW145002  14.366   6.347   1.233
14390SOL    HW245003  14.433   6.409   1.112
14391SOL     OW45004   7.959   5.661  11.504
14391SOL    HW145005   7.905   5.735  11.477
14391SOL    HW245006   7.959   5.602  11.429
14392SOL     OW45007   2.447   2.625  14.715
14392SOL    HW145008   2.366   2.675  14.706
14392SOL    HW245009   2.516   2.691  14.713
14393SOL     OW45010   7.148   6.046   9.885
14393SOL    HW145011   7.164   5.993   9.963
14393SOL    HW245012   7.100   5.988   9.826
14394SOL     OW45013   2.275  12.481  14.533
14394SOL    HW145014   2.370  12.479  14.528
14394SOL    HW245015   2.246  12.422  14.463
14395SOL     OW45016   4.512  11.951   1.893
14395SOL    HW145017   4.421  11.976   1.907
14395SOL    HW245018   4.519  11.938   1.798
14396SOL     OW45019  14.097   6.803   2.895
14396SOL    HW145020  14.085   6.769   2.984
14396SOL    HW245021  14.176   6.856   2.900
14397SOL     OW45022   5.844   3.697  12.106
14397SOL    HW145023   5.907   3.758  12.146
14397SOL    HW245024   5.899   3.637  12.055
14398SOL     OW45025   2.044  13.301   8.985
14398SOL    HW145026   2.097  13.249   9.046
14398SOL    HW245027   1.963  13.319   9.032
14399SOL     OW45028   2.256   6.263   6.650
14399SOL    HW145029   2.296   6.332   6.703
14399SOL    HW245030   2.168   6.296   6.631
14400SOL     OW45031   6.336  12.584   3.228
14400SOL    HW145032   6.376  12.592   3.142
14400SOL    HW245033   6.269  12.652   3.229
14401SOL     OW45034  12.022   2.351   9.713
14401SOL    HW145035  11.950   2.375   9.772
14401SOL    HW245036  12.101   2.376   9.760
14402SOL     OW45037  13.272  10.557  12.965
14402SOL    HW145038  13.207  10.490  12.944
14402SOL    HW245039  13.297  10.539  13.055
14403SOL     OW45040   8.908   1.494   8.285
14403SOL    HW145041   8.990   1.485   8.332
14403SOL    HW245042   8.928   1.555   8.214
14404SOL     OW45043   4.672   7.975   9.593
14404SOL    HW145044   4.767   7.986   9.595
14404SOL    HW245045   4.640   8.052   9.546
14405SOL     OW45046  11.323  13.178  11.932
14405SOL    HW145047  11.234  13.161  11.902
14405SOL    HW245048  11.313  13.242  12.002
14406SOL     OW45049   8.083   4.757  13.047
14406SOL    HW145050   8.046   4.842  13.024
14406SOL    HW245051   8.076   4.705  12.967
14407SOL     OW45052   6.478   3.840   6.388
14407SOL    HW145053   6.540   3.910   6.369
14407SOL    HW245054   6.406   3.854   6.326
14408SOL     OW45055   7.934  12.851   6.801
14408SOL    HW145056   7.965  12.942   6.808
14408SOL    HW245057   7.997  12.801   6.853
14409SOL     OW45058   3.593  11.597   1.024
14409SOL    HW145059   3.520  11.562   0.974
14409SOL    HW245060   3.589  11.552   1.108
14410SOL     OW45061   3.134   6.615   7.494
14410SOL    HW145062   3.080   6.686   7.530
14410SOL    HW245063   3.192   6.590   7.566
14411SOL     OW45064   0.436   7.241   4.964
14411SOL    HW145065   0.467   7.217   4.877
14411SOL    HW245066   0.476   7.326   4.981
14412SOL     OW45067   9.989   4.418  13.495
14412SOL    HW145068  10.032   4.409  13.580
14412SOL    HW245069   9.971   4.327  13.469
14413SOL     OW45070   7.102   1.177   0.614
14413SOL    HW145071   7.086   1.211   0.703
14413SOL    HW245072   7.148   1.094   0.628
14414SOL     OW45073  11.170   1.669  14.012
14414SOL    HW145074  11.109   1.742  14.004
14414SOL    HW245075  11.184   1.639  13.922
14415SOL     OW45076  14.270   2.164   4.583
14415SOL    HW145077  14.335   2.128   4.643
14415SOL    HW245078  14.314   2.169   4.498
14416SOL     OW45079  13.480  13.838  12.577
14416SOL    HW145080  13.455  13.804  12.492
14416SOL    HW245081  13.440  13.778  12.640
14417SOL     OW45082  12.410  13.322   2.258
14417SOL    HW145083  12.379  13.261   2.326
14417SOL    HW245084  12.439  13.265   2.187
14418SOL     OW45085  10.432   6.370   9.734
14418SOL    HW145086  10.449   6.288   9.780
14418SOL    HW245087  10.496   6.371   9.663
14419SOL     OW45088   2.869  13.659   8.071
14419SOL    HW145089   2.875  13.745   8.030
14419SOL    HW245090   2.775  13.643   8.078
14420SOL     OW45091   1.575   7.362   0.026
14420SOL    HW145092   1.650   7.339   0.081
14420SOL    HW245093   1.532   7.434   0.073
14421SOL     OW45094   3.178  12.779  10.294
14421SOL    HW145095   3.147  12.791  10.384
14421SOL    HW245096   3.243  12.710  10.299
14422SOL     OW45097  12.474  10.865  10.590
14422SOL    HW145098  12.396  10.847  10.642
14422SOL    HW245099  12.538  10.800  10.621
14423SOL     OW45100  12.786   6.974   0.396
14423SOL    HW145101  12.784   7.068   0.375
14423SOL    HW245102  12.701   6.942   0.367
14424SOL     OW45103   7.411   9.103   5.613
14424SOL    HW145104   7.369   9.090   5.698
14424SOL    HW245105   7.365   9.043   5.554
14425SOL     OW45106  10.898   5.748   3.909
14425SOL    HW145107  10.806   5.749   3.880
14425SOL    HW245108  10.943   5.698   3.841
14426SOL     OW45109   1.307   3.120   0.173
14426SOL    HW145110   1.268   3.145   0.089
14426SOL    HW245111   1.327   3.027   0.163
14427SOL     OW45112   6.072  11.767   2.481
14427SOL    HW145113   6.035  11.846   2.443
14427SOL    HW245114   6.041  11.767   2.572
14428SOL     OW45115   1.087   1.430   5.181
14428SOL    HW145116   1.067   1.382   5.100
14428SOL    HW245117   1.007   1.424   5.232
14429SOL     OW45118  10.400   8.687   0.290
14429SOL    HW145119  10.463   8.615   0.300
14429SOL    HW245120  10.356   8.670   0.208
14430SOL     OW45121   3.817   5.786  12.250
14430SOL    HW145122   3.856   5.707  12.214
14430SOL    HW245123   3.723   5.777  12.232
14431SOL     OW45124   9.228   1.974  10.823
14431SOL    HW145125   9.318   1.942  10.813
14431SOL    HW245126   9.184   1.905  10.872
14432SOL     OW45127   8.680   3.528   5.169
14432SOL    HW145128   8.744   3.513   5.099
14432SOL    HW245129   8.732   3.526   5.250
14433SOL     OW45130  10.279  14.669   3.985
14433SOL    HW145131  10.331  14.605   3.936
14433SOL    HW245132  10.329  14.750   3.980
14434SOL     OW45133   5.600  12.096   7.407
14434SOL    HW145134   5.686  12.129   7.380
14434SOL    HW245135   5.558  12.068   7.326
14435SOL     OW45136   2.587   5.914   7.516
14435SOL    HW145137   2.584   5.876   7.428
14435SOL    HW245138   2.540   5.997   7.508
14436SOL     OW45139  10.008   1.143  12.039
14436SOL    HW145140  10.003   1.238  12.035
14436SOL    HW245141  10.102   1.124  12.041
14437SOL     OW45142   5.142   1.988  14.834
14437SOL    HW145143   5.121   1.901  14.867
14437SOL    HW245144   5.230   1.979  14.799
14438SOL     OW45145   1.300  13.536   8.640
14438SOL    HW145146   1.258  13.508   8.559
14438SOL    HW245147   1.307  13.455   8.692
14439SOL     OW45148  14.579   0.257   2.607
14439SOL    HW145149  14.650   0.197   2.584
14439SOL    HW245150  14.599   0.284   2.697
14440SOL     OW45151   4.406   5.060  12.627
14440SOL    HW145152   4.398   5.100  12.713
14440SOL    HW245153   4.406   5.133  12.566
14441SOL     OW45154   5.150  11.197   1.466
14441SOL    HW145155   5.076  11.147   1.430
14441SOL    HW245156   5.184  11.142   1.536
14442SOL     OW45157  10.066   7.589   2.901
14442SOL    HW145158  10.073   7.640   2.982
14442SOL    HW245159  10.112   7.508   2.920
14443SOL     OW45160   5.874  12.363  12.823
14443SOL    HW145161   5.851  12.305  12.896
14443SOL    HW245162   5.962  12.334  12.796
14444SOL     OW45163  12.789   6.150  12.052
14444SOL    HW145164  12.849   6.210  12.008
14444SOL    HW245165  12.846   6.094  12.104
14445SOL     OW45166   5.152  10.142   0.677
14445SOL    HW145167   5.093  10.216   0.689
14445SOL    HW245168   5.235  10.182   0.651
14446SOL     OW45169   9.040   3.913   2.283
14446SOL    HW145170   9.048   3.818   2.279
14446SOL    HW245171   9.012   3.938   2.194
14447SOL     OW45172   2.751  10.587   1.769
14447SOL    HW145173   2.684  10.521   1.784
14447SOL    HW245174   2.783  10.609   1.856
14448SOL     OW45175  10.656  13.968   1.870
14448SOL    HW145176  10.679  13.876   1.866
14448SOL    HW245177  10.716  14.012   1.811
14449SOL     OW45178   9.697  11.856  10.903
14449SOL    HW145179   9.683  11.847  10.997
14449SOL    HW245180   9.667  11.944  10.883
14450SOL     OW45181   3.191   9.469   5.244
14450SOL    HW145182   3.278   9.506   5.231
14450SOL    HW245183   3.201   9.410   5.318
14451SOL     OW45184   0.324   2.076  13.156
14451SOL    HW145185   0.374   2.054  13.234
14451SOL    HW245186   0.236   2.041  13.174
14452SOL     OW45187  10.588   8.330  14.667
14452SOL    HW145188  10.570   8.277  14.745
14452SOL    HW245189  10.582   8.268  14.594
14453SOL     OW45190  13.534   8.800  11.588
14453SOL    HW145191  13.484   8.733  11.633
14453SOL    HW245192  13.489   8.882  11.607
14454SOL     OW45193   2.229  12.292   4.455
14454SOL    HW145194   2.241  12.357   4.524
14454SOL    HW245195   2.283  12.324   4.383
14455SOL     OW45196   3.069  14.593   3.580
14455SOL    HW145197   3.012  14.543   3.638
14455SOL    HW245198   3.138  14.532   3.554
14456SOL     OW45199  13.251   3.487   0.919
14456SOL    HW145200  13.269   3.578   0.895
14456SOL    HW245201  13.184   3.458   0.857
14457SOL     OW45202   2.271   1.856  11.873
14457SOL    HW145203   2.185   1.831  11.842
14457SOL    HW245204   2.306   1.914  11.806
14458SOL     OW45205  12.271  13.230   7.802
14458SOL    HW145206  12.267  13.324   7.785
14458SOL    HW245207  12.191  13.210   7.850
14459SOL     OW45208   0.109  13.031  10.347
14459SOL    HW145209   0.039  12.974  10.316
14459SOL    HW245210   0.177  13.025  10.280
14460SOL     OW45211  11.039   8.302   6.222
14460SOL    HW145212  11.044   8.240   6.150
14460SOL    HW245213  11.050   8.249   6.301
14461SOL     OW45214  11.400  14.302   0.451
14461SOL    HW145215  11.439  14.269   0.370
14461SOL    HW245216  11.388  14.224   0.506
14462SOL     OW45217  10.142   1.964   2.031
14462SOL    HW145218  10.176   2.038   2.081
14462SOL    HW245219  10.093   2.004   1.959
14463SOL     OW45220   4.129  14.327  10.145
14463SOL    HW145221   4.190  14.360  10.211
14463SOL    HW245222   4.098  14.244  10.181
14464SOL     OW45223  13.524   8.509  13.148
14464SOL    HW145224  13.591   8.459  13.101
14464SOL    HW245225  13.453   8.446  13.164
14465SOL     OW45226   0.711   2.636  10.035
14465SOL    HW145227   0.702   2.609  10.126
14465SOL    HW245228   0.655   2.713  10.027
14466SOL     OW45229  11.302   0.624   5.361
14466SOL    HW145230  11.321   0.573   5.283
14466SOL    HW245231  11.261   0.704   5.328
14467SOL     OW45232  13.741   2.136   3.096
14467SOL    HW145233  13.833   2.133   3.068
14467SOL    HW245234  13.719   2.046   3.117
14468SOL     OW45235   6.655  10.785   8.366
14468SOL    HW145236   6.629  10.694   8.384
14468SOL    HW245237   6.716  10.777   8.292
14469SOL     OW45238   8.359   1.978   7.483
14469SOL    HW145239   8.368   2.032   7.404
14469SOL    HW245240   8.265   1.959   7.489
14470SOL     OW45241   2.173  14.444   7.653
14470SOL    HW145242   2.097  14.429   7.708
14470SOL    HW245243   2.223  14.363   7.657
14471SOL     OW45244   8.528   1.304   7.974
14471SOL    HW145245   8.498   1.387   7.937
14471SOL    HW245246   8.475   1.238   7.929
14472SOL     OW45247   9.343   4.067   7.408
14472SOL    HW145248   9.339   4.158   7.378
14472SOL    HW245249   9.345   4.015   7.327
14473SOL     OW45250   9.597  11.924   9.952
14473SOL    HW145251   9.616  11.951   9.862
14473SOL    HW245252   9.653  11.848   9.967
14474SOL     OW45253   3.965  13.925   3.409
14474SOL    HW145254   3.915  13.913   3.329
14474SOL    HW245255   4.041  13.977   3.382
14475SOL     OW45256  14.162   6.215   7.047
14475SOL    HW145257  14.220   6.212   6.971
14475SOL    HW245258  14.074   6.224   7.009
14476SOL     OW45259   8.777   0.139   8.397
14476SOL    HW145260   8.726   0.166   8.473
14476SOL    HW245261   8.810   0.220   8.360
14477SOL     OW45262  12.132  10.739   4.445
14477SOL    HW145263  12.143  10.645   4.426
14477SOL    HW245264  12.180  10.752   4.527
14478SOL     OW45265  13.131   9.786  12.325
14478SOL    HW145266  13.062   9.720  12.318
14478SOL    HW245267  13.203   9.740  12.369
14479SOL     OW45268   5.703  14.768  12.429
14479SOL    HW145269   5.712  14.808  12.515
14479SOL    HW245270   5.749  14.685  12.435
14480SOL     OW45271   1.027   9.860  11.058
14480SOL    HW145272   1.071   9.944  11.043
14480SOL    HW245273   0.952   9.881  11.112
14481SOL     OW45274   6.726   6.008   1.021
14481SOL    HW145275   6.813   5.970   1.006
14481SOL    HW245276   6.741   6.080   1.081
14482SOL     OW45277  11.021   6.697   9.978
14482SOL    HW145278  10.946   6.729   9.927
14482SOL    HW245279  10.999   6.717  10.068
14483SOL     OW45280   7.491   5.241   2.888
14483SOL    HW145281   7.566   5.294   2.861
14483SOL    HW245282   7.491   5.167   2.827
14484SOL     OW45283   1.534  13.963   5.785
14484SOL    HW145284   1.553  13.905   5.711
14484SOL    HW245285   1.499  13.904   5.853
14485SOL     OW45286  11.058   3.573   7.090
14485SOL    HW145287  11.061   3.639   7.159
14485SOL    HW245288  10.974   3.529   7.102
14486SOL     OW45289   3.755   5.880  11.642
14486SOL    HW145290   3.732   5.788  11.654
14486SOL    HW245291   3.851   5.882  11.648
14487SOL     OW45292   3.512   5.753   8.178
14487SOL    HW145293   3.459   5.742   8.257
14487SOL    HW245294   3.556   5.669   8.167
14488SOL     OW45295  10.347   6.174   7.865
14488SOL    HW145296  10.255   6.173   7.838
14488SOL    HW245297  10.344   6.180   7.960
14489SOL     OW45298   2.158   6.537   8.873
14489SOL    HW145299   2.098   6.562   8.944
14489SOL    HW245300   2.193   6.619   8.841
14490SOL     OW45301   9.874   6.719   8.056
14490SOL    HW145302   9.879   6.629   8.089
14490SOL    HW245303   9.936   6.768   8.109
14491SOL     OW45304  12.549  11.302  14.782
14491SOL    HW145305  12.547  11.225  14.726
14491SOL    HW245306  12.630  11.293  14.833
14492SOL     OW45307   2.380   5.180   6.936
14492SOL    HW145308   2.354   5.162   6.846
14492SOL    HW245309   2.298   5.201   6.981
14493SOL     OW45310   2.858   5.917  14.348
14493SOL    HW145311   2.891   6.007  14.356
14493SOL    HW245312   2.763   5.926  14.357
14494SOL     OW45313   8.138   2.184   7.391
14494SOL    HW145314   8.170   2.244   7.459
14494SOL    HW245315   8.138   2.236   7.311
14495SOL     OW45316  14.297  13.659   1.933
14495SOL    HW145317  14.269  13.725   1.870
14495SOL    HW245318  14.215  13.622   1.967
14496SOL     OW45319   7.165  14.244   9.844
14496SOL    HW145320   7.165  14.150   9.863
14496SOL    HW245321   7.112  14.252   9.764
14497SOL     OW45322   6.848   9.172   9.838
14497SOL    HW145323   6.819   9.159   9.748
14497SOL    HW245324   6.822   9.093   9.884
14498SOL     OW45325   2.174   1.114  10.836
14498SOL    HW145326   2.121   1.164  10.774
14498SOL    HW245327   2.169   1.164  10.918
14499SOL     OW45328   7.425   1.653   8.679
14499SOL    HW145329   7.391   1.734   8.640
14499SOL    HW245330   7.507   1.637   8.634
14500SOL     OW45331  10.306   4.614  12.092
14500SOL    HW145332  10.334   4.683  12.032
14500SOL    HW245333  10.356   4.630  12.172
14501SOL     OW45334  12.827  11.333   2.194
14501SOL    HW145335  12.803  11.307   2.283
14501SOL    HW245336  12.775  11.275   2.137
14502SOL     OW45337  14.810   3.476   3.161
14502SOL    HW145338  14.733   3.469   3.218
14502SOL    HW245339  14.797   3.408   3.094
14503SOL     OW45340   6.745   5.379   3.817
14503SOL    HW145341   6.827   5.363   3.770
14503SOL    HW245342   6.705   5.292   3.825
14504SOL     OW45343  12.005   1.442  12.414
14504SOL    HW145344  12.011   1.481  12.326
14504SOL    HW245345  12.009   1.348  12.399
14505SOL     OW45346   0.302   7.084   9.539
14505SOL    HW145347   0.236   7.041   9.594
14505SOL    HW245348   0.386   7.054   9.573
14506SOL     OW45349   9.923   8.939   3.351
14506SOL    HW145350   9.992   8.908   3.410
14506SOL    HW245351   9.928   8.881   3.276
14507SOL     OW45352   4.798   7.417  10.128
14507SOL    HW145353   4.845   7.496  10.156
14507SOL    HW245354   4.865   7.363  10.085
14508SOL     OW45355   8.586   8.385   0.602
14508SOL    HW145356   8.641   8.337   0.541
14508SOL    HW245357   8.509   8.410   0.551
14509SOL     OW45358   9.797   9.428  10.452
14509SOL    HW145359   9.888   9.437  10.425
14509SOL    HW245360   9.768   9.347  10.409
14510SOL     OW45361  12.629   1.394  10.214
14510SOL    HW145362  12.636   1.302  10.187
14510SOL    HW245363  12.540   1.419  10.190
14511SOL     OW45364  13.747   9.661  13.185
14511SOL    HW145365  13.824   9.707  13.219
14511SOL    HW245366  13.709   9.720  13.120
14512SOL     OW45367   2.830  12.492  11.914
14512SOL    HW145368   2.919  12.510  11.944
14512SOL    HW245369   2.841  12.449  11.830
14513SOL     OW45370   3.090  13.876  11.074
14513SOL    HW145371   3.183  13.884  11.095
14513SOL    HW245372   3.088  13.823  10.995
14514SOL     OW45373  11.105  10.060   1.100
14514SOL    HW145374  11.156  10.086   1.176
14514SOL    HW245375  11.071  10.143   1.064
14515SOL     OW45376  14.358   9.808   5.733
14515SOL    HW145377  14.446   9.775   5.753
14515SOL    HW245378  14.341   9.871   5.803
14516SOL     OW45379   0.647   3.740   4.880
14516SOL    HW145380   0.658   3.771   4.970
14516SOL    HW245381   0.552   3.739   4.867
14517SOL     OW45382  12.704  12.837   0.449
14517SOL    HW145383  12.716  12.812   0.358
14517SOL    HW245384  12.741  12.764   0.499
14518SOL     OW45385   1.048  13.947   6.227
14518SOL    HW145386   0.978  14.009   6.206
14518SOL    HW245387   1.093  13.932   6.143
14519SOL     OW45388   8.629   8.979   1.900
14519SOL    HW145389   8.577   8.980   1.820
14519SOL    HW245390   8.617   9.066   1.938
14520SOL     OW45391   5.962   9.538   9.147
14520SOL    HW145392   5.955   9.443   9.144
14520SOL    HW245393   5.942   9.560   9.238
14521SOL     OW45394   9.503   2.830  13.059
14521SOL    HW145395   9.519   2.904  13.000
14521SOL    HW245396   9.417   2.796  13.031
14522SOL     OW45397  11.452   2.589  12.570
14522SOL    HW145398  11.446   2.501  12.606
14522SOL    HW245399  11.437   2.577  12.476
14523SOL     OW45400   2.237  14.285   3.530
14523SOL    HW145401   2.246  14.365   3.479
14523SOL    HW245402   2.323  14.271   3.570
14524SOL     OW45403  10.884  10.701   1.281
14524SOL    HW145404  10.848  10.725   1.196
14524SOL    HW245405  10.859  10.610   1.295
14525SOL     OW45406  13.789   1.013   9.035
14525SOL    HW145407  13.784   1.057   9.119
14525SOL    HW245408  13.706   0.966   9.027
14526SOL     OW45409  10.534  11.042   9.138
14526SOL    HW145410  10.488  11.115   9.178
14526SOL    HW245411  10.502  10.964   9.184
14527SOL     OW45412   1.776   6.561   0.518
14527SOL    HW145413   1.818   6.627   0.573
14527SOL    HW245414   1.783   6.480   0.569
14528SOL     OW45415  13.949   3.459  12.267
14528SOL    HW145416  13.945   3.540  12.318
14528SOL    HW245417  13.863   3.419  12.278
14529SOL     OW45418   7.368   9.209  13.569
14529SOL    HW145419   7.318   9.291  13.566
14529SOL    HW245420   7.455   9.233  13.537
14530SOL     OW45421   1.424  12.955   3.295
14530SOL    HW145422   1.484  12.938   3.223
14530SOL    HW245423   1.478  12.999   3.361
14531SOL     OW45424  14.448  10.707   9.152
14531SOL    HW145425  14.514  10.642   9.127
14531SOL    HW245426  14.374  10.689   9.094
14532SOL     OW45427   2.817  14.577   1.515
14532SOL    HW145428   2.816  14.586   1.420
14532SOL    HW245429   2.875  14.502   1.532
14533SOL     OW45430  13.873  10.265   4.871
14533SOL    HW145431  13.790  10.223   4.849
14533SOL    HW245432  13.850  10.356   4.891
14534SOL     OW45433   8.719  11.921  12.221
14534SOL    HW145434   8.678  11.996  12.178
14534SOL    HW245435   8.757  11.956  12.301
14535SOL     OW45436   7.376   2.252   7.045
14535SOL    HW145437   7.421   2.262   6.960
14535SOL    HW245438   7.434   2.195   7.095
14536SOL     OW45439   5.703  12.042  14.758
14536SOL    HW145440   5.629  11.982  14.761
14536SOL    HW245441   5.668  12.123  14.721
14537SOL     OW45442  14.114   3.452   3.754
14537SOL    HW145443  14.185   3.480   3.811
14537SOL    HW245444  14.037   3.448   3.811
14538SOL     OW45445  14.845   4.037   8.947
14538SOL    HW145446  14.753   4.039   8.920
14538SOL    HW245447  14.862   3.944   8.967
14539SOL     OW45448   0.382   7.620  10.073
14539SOL    HW145449   0.410   7.683  10.139
14539SOL    HW245450   0.303   7.579  10.111
14540SOL     OW45451  12.458  13.236   6.228
14540SOL    HW145452  12.553  13.233   6.216
14540SOL    HW245453  12.434  13.147   6.252
14541SOL     OW45454   9.219   3.583   4.739
14541SOL    HW145455   9.227   3.569   4.644
14541SOL    HW245456   9.309   3.593   4.770
14542SOL     OW45457   6.976   3.290   9.379
14542SOL    HW145458   6.997   3.335   9.461
14542SOL    HW245459   6.997   3.354   9.311
14543SOL     OW45460   3.034   4.359  14.232
14543SOL    HW145461   3.010   4.427  14.295
14543SOL    HW245462   2.962   4.359  14.168
14544SOL     OW45463   5.218   2.270   5.859
14544SOL    HW145464   5.225   2.244   5.951
14544SOL    HW245465   5.208   2.365   5.862
14545SOL     OW45466   9.719   6.285  11.849
14545SOL    HW145467   9.783   6.335  11.901
14545SOL    HW245468   9.744   6.194  11.862
14546SOL     OW45469  12.523  11.916  14.339
14546SOL    HW145470  12.494  12.003  14.369
14546SOL    HW245471  12.501  11.858  14.412
14547SOL     OW45472   8.373   1.129   3.772
14547SOL    HW145473   8.367   1.040   3.739
14547SOL    HW245474   8.311   1.179   3.717
14548SOL     OW45475  10.778   3.571   0.000
14548SOL    HW145476  10.769   3.566   0.095
14548SOL    HW245477  10.872   3.576  14.867
14549SOL     OW45478   9.186   6.189   8.346
14549SOL    HW145479   9.141   6.259   8.392
14549SOL    HW245480   9.191   6.118   8.410
14550SOL     OW45481   0.241   9.011  13.619
14550SOL    HW145482   0.325   9.039  13.654
14550SOL    HW245483   0.239   8.916  13.635
14551SOL     OW45484  11.687  14.502   5.085
14551SOL    HW145485  11.706  14.414   5.054
14551SOL    HW245486  11.738  14.510   5.166
14552SOL     OW45487   4.802   8.800   8.044
14552SOL    HW145488   4.891   8.820   8.073
14552SOL    HW245489   4.756   8.776   8.125
14553SOL     OW45490  11.429  12.660   3.591
14553SOL    HW145491  11.401  12.730   3.531
14553SOL    HW245492  11.507  12.623   3.549
14554SOL     OW45493   7.235   9.172  12.537
14554SOL    HW145494   7.256   9.195  12.628
14554SOL    HW245495   7.141   9.152  12.539
14555SOL     OW45496   7.482   6.823   3.257
14555SOL    HW145497   7.482   6.868   3.342
14555SOL    HW245498   7.499   6.732   3.278
14556SOL     OW45499   0.275   0.213  10.515
14556SOL    HW145500   0.213   0.151  10.476
14556SOL    HW245501   0.333   0.159  10.568
14557SOL     OW45502  13.833   8.399   6.639
14557SOL    HW145503  13.766   8.421   6.574
14557SOL    HW245504  13.896   8.344   6.592
14558SOL     OW45505  10.901  11.320   6.033
14558SOL    HW145506  10.844  11.382   6.079
14558SOL    HW245507  10.911  11.358   5.945
14559SOL     OW45508   3.434   5.799   3.966
14559SOL    HW145509   3.451   5.705   3.976
14559SOL    HW245510   3.476   5.839   4.043
14560SOL     OW45511   8.241   4.315  14.066
14560SOL    HW145512   8.157   4.359  14.067
14560SOL    HW245513   8.222   4.226  14.097
14561SOL     OW45514   1.128   2.688  11.990
14561SOL    HW145515   1.164   2.660  12.074
14561SOL    HW245516   1.085   2.610  11.955
14562SOL     OW45517   9.072  14.817  11.812
14562SOL    HW145518   9.112   0.001  11.869
14562SOL    HW245519   8.984  14.851  11.795
14563SOL     OW45520   1.081  13.381   0.850
14563SOL    HW145521   1.127  13.416   0.926
14563SOL    HW245522   1.130  13.414   0.775
14564SOL     OW45523   2.152   7.370   0.326
14564SOL    HW145524   2.248   7.363   0.326
14564SOL    HW245525   2.134   7.462   0.308
14565SOL     OW45526   8.247   9.541   3.959
14565SOL    HW145527   8.229   9.556   4.052
14565SOL    HW245528   8.315   9.474   3.959
14566SOL     OW45529  12.008   3.141  14.052
14566SOL    HW145530  11.918   3.174  14.051
14566SOL    HW245531  12.013   3.083  13.976
14567SOL     OW45532   2.461   0.323  14.385
14567SOL    HW145533   2.542   0.325  14.436
14567SOL    HW245534   2.395   0.294  14.448
14568SOL     OW45535  12.571  13.483   5.426
14568SOL    HW145536  12.593  13.412   5.485
14568SOL    HW245537  12.501  13.531   5.471
14569SOL     OW45538   2.787   1.372  12.668
14569SOL    HW145539   2.868   1.407  12.631
14569SOL    HW245540   2.736   1.344  12.591
14570SOL     OW45541   6.788   9.696  14.665
14570SOL    HW145542   6.770   9.721  14.756
14570SOL    HW245543   6.709   9.650  14.637
14571SOL     OW45544   0.619   3.627   1.172
14571SOL    HW145545   0.549   3.612   1.236
14571SOL    HW245546   0.660   3.709   1.201
14572SOL     OW45547   9.287  14.081  14.798
14572SOL    HW145548   9.345  14.053  14.869
14572SOL    HW245549   9.286  14.176  14.803
14573SOL     OW45550   8.933   9.624  11.584
14573SOL    HW145551   8.958   9.639  11.493
14573SOL    HW245552   8.994   9.676  11.635
14574SOL     OW45553   9.198  14.784   4.689
14574SOL    HW145554   9.179  14.804   4.598
14574SOL    HW245555   9.187  14.867   4.735
14575SOL     OW45556   2.573   3.529   0.394
14575SOL    HW145557   2.483   3.562   0.396
14575SOL    HW245558   2.600   3.539   0.303
14576SOL     OW45559   5.091   1.132   8.297
14576SOL    HW145560   5.051   1.161   8.379
14576SOL    HW245561   5.017   1.126   8.236
14577SOL     OW45562   8.812  11.806  12.001
14577SOL    HW145563   8.892  11.755  12.004
14577SOL    HW245564   8.812  11.857  12.082
14578SOL     OW45565   1.831   1.600   2.743
14578SOL    HW145566   1.761   1.555   2.694
14578SOL    HW245567   1.838   1.686   2.701
14579SOL     OW45568   1.436  13.644   2.632
14579SOL    HW145569   1.512  13.599   2.669
14579SOL    HW245570   1.471  13.693   2.558
14580SOL     OW45571  11.760   2.029   9.709
14580SOL    HW145572  11.782   2.001   9.798
14580SOL    HW245573  11.686   2.088   9.721
14581SOL     OW45574  11.753   6.742   0.233
14581SOL    HW145575  11.662   6.721   0.251
14581SOL    HW245576  11.767   6.718   0.141
14582SOL     OW45577   9.077   5.403   4.751
14582SOL    HW145578   9.094   5.312   4.773
14582SOL    HW245579   9.010   5.400   4.683
14583SOL     OW45580   5.616   1.632   5.439
14583SOL    HW145581   5.530   1.672   5.424
14583SOL    HW245582   5.661   1.694   5.497
14584SOL     OW45583   3.547   2.741   4.083
14584SOL    HW145584   3.559   2.820   4.029
14584SOL    HW245585   3.502   2.773   4.161
14585SOL     OW45586  14.087   0.119  13.913
14585SOL    HW145587  14.023   0.050  13.891
14585SOL    HW245588  14.036   0.200  13.912
14586SOL     OW45589   5.944  10.690   2.554
14586SOL    HW145590   5.916  10.666   2.642
14586SOL    HW245591   6.038  10.670   2.552
14587SOL     OW45592   3.901   5.319   6.265
14587SOL    HW145593   3.974   5.293   6.209
14587SOL    HW245594   3.864   5.397   6.223
14588SOL     OW45595   9.764  13.880   6.858
14588SOL    HW145596   9.722  13.819   6.918
14588SOL    HW245597   9.852  13.844   6.846
14589SOL     OW45598   7.831   7.191   1.283
14589SOL    HW145599   7.836   7.095   1.282
14589SOL    HW245600   7.810   7.215   1.193
14590SOL     OW45601   7.583   9.706   9.866
14590SOL    HW145602   7.499   9.728   9.825
14590SOL    HW245603   7.641   9.686   9.793
14591SOL     OW45604  11.927  13.241  14.627
14591SOL    HW145605  11.980  13.164  14.647
14591SOL    HW245606  11.919  13.241  14.532
14592SOL     OW45607   5.019   1.669   7.321
14592SOL    HW145608   4.986   1.756   7.345
14592SOL    HW245609   5.084   1.685   7.253
14593SOL     OW45610   5.127   7.145   5.803
14593SOL    HW145611   5.062   7.076   5.787
14593SOL    HW245612   5.211   7.099   5.807
14594SOL     OW45613   8.967   9.409   9.890
14594SOL    HW145614   8.914   9.482   9.919
14594SOL    HW245615   8.911   9.332   9.900
14595SOL     OW45616   9.260   7.472   7.730
14595SOL    HW145617   9.222   7.385   7.719
14595SOL    HW245618   9.193   7.531   7.697
14596SOL     OW45619  14.410   1.305  10.165
14596SOL    HW145620  14.379   1.229  10.216
14596SOL    HW245621  14.505   1.293  10.161
14597SOL     OW45622   1.567   4.365  13.267
14597SOL    HW145623   1.584   4.271  13.274
14597SOL    HW245624   1.645   4.401  13.225
14598SOL     OW45625  12.831  10.310   4.361
14598SOL    HW145626  12.884  10.242   4.402
14598SOL    HW245627  12.789  10.267   4.287
14599SOL     OW45628  10.020  12.862   6.583
14599SOL    HW145629  10.048  12.779   6.546
14599SOL    HW245630  10.099  12.915   6.587
14600SOL     OW45631   9.256   5.598   6.741
14600SOL    HW145632   9.336   5.611   6.691
14600SOL    HW245633   9.198   5.669   6.713
14601SOL     OW45634   1.278   4.407   7.429
14601SOL    HW145635   1.316   4.482   7.384
14601SOL    HW245636   1.260   4.344   7.359
14602SOL     OW45637  11.706   4.291   5.806
14602SOL    HW145638  11.797   4.261   5.810
14602SOL    HW245639  11.713   4.385   5.786
14603SOL     OW45640   7.526  13.569   1.194
14603SOL    HW145641   7.582  13.555   1.271
14603SOL    HW245642   7.524  13.484   1.150
14604SOL     OW45643   8.299   7.847   8.769
14604SOL    HW145644   8.336   7.919   8.820
14604SOL    HW245645   8.319   7.769   8.820
14605SOL     OW45646  13.194   3.833   7.346
14605SOL    HW145647  13.210   3.843   7.252
14605SOL    HW245648  13.248   3.902   7.386
14606SOL     OW45649   0.384   1.967   7.558
14606SOL    HW145650   0.307   1.975   7.501
14606SOL    HW245651   0.437   1.898   7.518
14607SOL     OW45652   2.463  12.144   5.528
14607SOL    HW145653   2.500  12.123   5.442
14607SOL    HW245654   2.469  12.239   5.534
14608SOL     OW45655  11.689  13.958   5.917
14608SOL    HW145656  11.701  14.049   5.946
14608SOL    HW245657  11.748  13.907   5.973
14609SOL     OW45658   9.658   5.527  12.008
14609SOL    HW145659   9.594   5.598  12.008
14609SOL    HW245660   9.729   5.558  11.952
14610SOL     OW45661  14.362   3.373   4.258
14610SOL    HW145662  14.282   3.348   4.211
14610SOL    HW245663  14.405   3.435   4.199
14611SOL     OW45664  10.965   0.562  11.989
14611SOL    HW145665  10.985   0.472  11.964
14611SOL    HW245666  10.964   0.611  11.906
14612SOL     OW45667   2.261   2.905   6.397
14612SOL    HW145668   2.303   2.820   6.410
14612SOL    HW245669   2.321   2.968   6.436
14613SOL     OW45670   4.688  12.818   0.105
14613SOL    HW145671   4.731  12.765   0.038
14613SOL    HW245672   4.604  12.842   0.067
14614SOL     OW45673   5.708  12.437   9.650
14614SOL    HW145674   5.748  12.476   9.572
14614SOL    HW245675   5.654  12.507   9.686
14615SOL     OW45676   0.131   2.857  11.356
14615SOL    HW145677   0.222   2.826  11.354
14615SOL    HW245678   0.079   2.777  11.367
14616SOL     OW45679  14.333   8.989  10.075
14616SOL    HW145680  14.429   8.988  10.072
14616SOL    HW245681  14.310   9.081  10.062
14617SOL     OW45682  13.923   9.868   4.550
14617SOL    HW145683  13.939   9.887   4.458
14617SOL    HW245684  13.892   9.777   4.550
14618SOL     OW45685   5.862  10.838   3.313
14618SOL    HW145686   5.883  10.917   3.263
14618SOL    HW245687   5.937  10.780   3.300
14619SOL     OW45688  14.668   2.980   7.835
14619SOL    HW145689  14.671   2.910   7.901
14619SOL    HW245690  14.710   3.055   7.877
14620SOL     OW45691   9.431  10.058  12.147
14620SOL    HW145692   9.482   9.977  12.145
14620SOL    HW245693   9.469  10.109  12.219
14621SOL     OW45694  11.974   2.366   4.909
14621SOL    HW145695  12.057   2.404   4.939
14621SOL    HW245696  11.999   2.309   4.836
14622SOL     OW45697   3.886  12.205   5.098
14622SOL    HW145698   3.977  12.212   5.069
14622SOL    HW245699   3.891  12.159   5.182
14623SOL     OW45700   7.861   7.306  10.609
14623SOL    HW145701   7.826   7.238  10.667
14623SOL    HW245702   7.797   7.312  10.538
14624SOL     OW45703   2.471   5.426   9.779
14624SOL    HW145704   2.521   5.507   9.786
14624SOL    HW245705   2.537   5.356   9.785
14625SOL     OW45706   2.816   6.016  12.785
14625SOL    HW145707   2.755   5.988  12.853
14625SOL    HW245708   2.834   6.108  12.805
14626SOL     OW45709   2.575   1.013   8.904
14626SOL    HW145710   2.617   0.997   8.819
14626SOL    HW245711   2.553   0.926   8.937
14627SOL     OW45712   1.739   0.331   6.137
14627SOL    HW145713   1.667   0.360   6.080
14627SOL    HW245714   1.766   0.410   6.182
14628SOL     OW45715   2.649  14.634   2.791
14628SOL    HW145716   2.704  14.566   2.752
14628SOL    HW245717   2.677  14.637   2.883
14629SOL     OW45718   3.406   1.397  11.114
14629SOL    HW145719   3.387   1.349  11.033
14629SOL    HW245720   3.457   1.336  11.167
14630SOL     OW45721   4.642  12.486  12.379
14630SOL    HW145722   4.713  12.424  12.390
14630SOL    HW245723   4.684  12.565  12.346
14631SOL     OW45724  12.835  10.588   2.018
14631SOL    HW145725  12.902  10.520   2.026
14631SOL    HW245726  12.883  10.670   2.026
14632SOL     OW45727   3.619   4.266  10.072
14632SOL    HW145728   3.587   4.332  10.010
14632SOL    HW245729   3.571   4.285  10.153
14633SOL     OW45730   9.922   9.790   1.505
14633SOL    HW145731   9.874   9.860   1.460
14633SOL    HW245732  10.014   9.809   1.486
14634SOL     OW45733  12.897  12.647  10.264
14634SOL    HW145734  12.913  12.584  10.335
14634SOL    HW245735  12.802  12.641  10.248
14635SOL     OW45736  12.729   3.667   1.706
14635SOL    HW145737  12.731   3.619   1.624
14635SOL    HW245738  12.650   3.636   1.751
14636SOL     OW45739   8.987   6.268   6.512
14636SOL    HW145740   9.030   6.252   6.596
14636SOL    HW245741   8.894   6.273   6.534
14637SOL     OW45742  11.846   9.794  12.034
14637SOL    HW145743  11.907   9.756  11.971
14637SOL    HW245744  11.815   9.719  12.086
14638SOL     OW45745   9.283   6.376  10.351
14638SOL    HW145746   9.361   6.423  10.380
14638SOL    HW245747   9.313   6.285  10.338
14639SOL     OW45748   4.836  10.927  11.313
14639SOL    HW145749   4.902  10.965  11.255
14639SOL    HW245750   4.754  10.969  11.286
14640SOL     OW45751  12.497   2.247  13.148
14640SOL    HW145752  12.414   2.201  13.159
14640SOL    HW245753  12.504   2.301  13.226
14641SOL     OW45754   7.962  10.935   6.847
14641SOL    HW145755   8.042  10.953   6.799
14641SOL    HW245756   7.990  10.923   6.938
14642SOL     OW45757   4.471   0.798   7.141
14642SOL    HW145758   4.491   0.788   7.048
14642SOL    HW245759   4.503   0.717   7.181
14643SOL     OW45760   5.286   0.731  11.962
14643SOL    HW145761   5.256   0.816  11.931
14643SOL    HW245762   5.226   0.708  12.033
14644SOL     OW45763   3.406   4.511   3.789
14644SOL    HW145764   3.380   4.513   3.697
14644SOL    HW245765   3.324   4.515   3.837
14645SOL     OW45766   9.647  12.836   7.159
14645SOL    HW145767   9.683  12.875   7.238
14645SOL    HW245768   9.554  12.859   7.161
14646SOL     OW45769  12.775   8.910   5.266
14646SOL    HW145770  12.844   8.866   5.217
14646SOL    HW245771  12.814   8.931   5.350
14647SOL     OW45772   8.626   1.841   6.365
14647SOL    HW145773   8.710   1.810   6.398
14647SOL    HW245774   8.582   1.763   6.331
14648SOL     OW45775   3.080   4.032  11.529
14648SOL    HW145776   3.097   3.953  11.478
14648SOL    HW245777   3.067   4.100  11.463
14649SOL     OW45778  13.757  11.285   3.177
14649SOL    HW145779  13.768  11.196   3.212
14649SOL    HW245780  13.787  11.342   3.248
14650SOL     OW45781   2.334  10.548  10.770
14650SOL    HW145782   2.390  10.471  10.784
14650SOL    HW245783   2.393  10.613  10.732
14651SOL     OW45784   5.093  12.519   7.717
14651SOL    HW145785   5.169  12.461   7.707
14651SOL    HW245786   5.095  12.545   7.809
14652SOL     OW45787   1.910   1.287   9.308
14652SOL    HW145788   1.883   1.196   9.298
14652SOL    HW245789   2.006   1.284   9.306
14653SOL     OW45790  14.068   9.048   6.167
14653SOL    HW145791  14.031   9.036   6.079
14653SOL    HW245792  14.017   8.990   6.222
14654SOL     OW45793  10.151   3.366  11.223
14654SOL    HW145794  10.118   3.281  11.196
14654SOL    HW245795  10.074   3.423  11.223
14655SOL     OW45796   3.728   2.763   1.531
14655SOL    HW145797   3.633   2.779   1.530
14655SOL    HW245798   3.753   2.775   1.622
14656SOL     OW45799  14.860   8.990  12.460
14656SOL    HW145800   0.031   9.069  12.447
14656SOL    HW245801  14.860   8.977  12.555
14657SOL     OW45802  14.034   4.836  12.496
14657SOL    HW145803  14.082   4.903  12.448
14657SOL    HW245804  14.101   4.772  12.521
14658SOL     OW45805   3.560   3.112  10.060
14658SOL    HW145806   3.607   3.195  10.047
14658SOL    HW245807   3.507   3.127  10.139
14659SOL     OW45808   3.245   6.672  12.961
14659SOL    HW145809   3.249   6.578  12.981
14659SOL    HW245810   3.295   6.713  13.031
14660SOL     OW45811   8.035  13.512   9.976
14660SOL    HW145812   8.091  13.589   9.968
14660SOL    HW245813   8.061  13.455   9.903
14661SOL     OW45814  13.252   8.453   9.892
14661SOL    HW145815  13.339   8.467   9.927
14661SOL    HW245816  13.266   8.404   9.810
14662SOL     OW45817   4.856   4.832  11.713
14662SOL    HW145818   4.813   4.907  11.672
14662SOL    HW245819   4.855   4.764  11.646
14663SOL     OW45820   8.144   0.217   5.490
14663SOL    HW145821   8.133   0.311   5.481
14663SOL    HW245822   8.071   0.189   5.545
14664SOL     OW45823   1.208   8.831   3.323
14664SOL    HW145824   1.142   8.828   3.254
14664SOL    HW245825   1.168   8.785   3.397
14665SOL     OW45826   7.232  12.718   3.810
14665SOL    HW145827   7.281  12.698   3.890
14665SOL    HW245828   7.274  12.666   3.742
14666SOL     OW45829   4.386   0.027  10.163
14666SOL    HW145830   4.438   0.069  10.231
14666SOL    HW245831   4.420   0.064  10.081
14667SOL     OW45832  13.826  14.394  13.535
14667SOL    HW145833  13.910  14.366  13.497
14667SOL    HW245834  13.840  14.486  13.559
14668SOL     OW45835   6.897  12.794   6.024
14668SOL    HW145836   6.853  12.839   5.952
14668SOL    HW245837   6.826  12.763   6.081
14669SOL     OW45838  12.202  14.583   4.587
14669SOL    HW145839  12.150  14.639   4.643
14669SOL    HW245840  12.141  14.553   4.519
14670SOL     OW45841   8.643  14.151   2.365
14670SOL    HW145842   8.736  14.150   2.345
14670SOL    HW245843   8.638  14.129   2.459
14671SOL     OW45844   8.440   7.506   2.505
14671SOL    HW145845   8.394   7.524   2.587
14671SOL    HW245846   8.453   7.593   2.465
14672SOL     OW45847   3.930  10.318   1.308
14672SOL    HW145848   4.023  10.320   1.283
14672SOL    HW245849   3.929  10.274   1.393
14673SOL     OW45850   3.464  14.758   7.812
14673SOL    HW145851   3.476  14.666   7.792
14673SOL    HW245852   3.542  14.782   7.863
14674SOL     OW45853   4.257  11.566   5.424
14674SOL    HW145854   4.185  11.524   5.376
14674SOL    HW245855   4.221  11.583   5.511
14675SOL     OW45856  10.908  10.680  12.008
14675SOL    HW145857  10.938  10.750  11.950
14675SOL    HW245858  10.988  10.634  12.032
14676SOL     OW45859  13.039  11.874   5.638
14676SOL    HW145860  13.087  11.797   5.668
14676SOL    HW245861  12.949  11.859   5.668
14677SOL     OW45862   5.763   1.193   1.778
14677SOL    HW145863   5.778   1.286   1.796
14677SOL    HW245864   5.748   1.154   1.864
14678SOL     OW45865   7.241   2.675  14.817
14678SOL    HW145866   7.214   2.603  14.760
14678SOL    HW245867   7.170   2.685  14.880
14679SOL     OW45868   8.815   7.290   6.611
14679SOL    HW145869   8.807   7.212   6.555
14679SOL    HW245870   8.741   7.345   6.587
14680SOL     OW45871   1.598  10.961   1.014
14680SOL    HW145872   1.516  10.913   1.026
14680SOL    HW245873   1.657  10.899   0.972
14681SOL     OW45874   6.954  14.738   9.145
14681SOL    HW145875   6.917  14.798   9.210
14681SOL    HW245876   6.974  14.658   9.195
14682SOL     OW45877   3.543   7.010  12.581
14682SOL    HW145878   3.577   6.999  12.492
14682SOL    HW245879   3.581   7.092  12.612
14683SOL     OW45880   0.530   4.999   4.894
14683SOL    HW145881   0.522   5.056   4.971
14683SOL    HW245882   0.598   5.041   4.841
14684SOL     OW45883  14.479   9.000   5.165
14684SOL    HW145884  14.390   9.023   5.189
14684SOL    HW245885  14.470   8.925   5.107
14685SOL     OW45886   6.697   9.213  10.797
14685SOL    HW145887   6.748   9.162  10.860
14685SOL    HW245888   6.607   9.209  10.830
14686SOL     OW45889  14.090  11.987   1.114
14686SOL    HW145890  14.159  11.972   1.178
14686SOL    HW245891  14.136  11.990   1.030
14687SOL     OW45892   2.877   3.255   6.973
14687SOL    HW145893   2.796   3.296   7.001
14687SOL    HW245894   2.923   3.233   7.054
14688SOL     OW45895  11.059  10.621  11.692
14688SOL    HW145896  11.055  10.617  11.597
14688SOL    HW245897  10.982  10.573  11.722
14689SOL     OW45898   0.243   7.977  14.332
14689SOL    HW145899   0.314   8.024  14.288
14689SOL    HW245900   0.193   7.937  14.261
14690SOL     OW45901   6.392   6.031   9.675
14690SOL    HW145902   6.388   6.075   9.760
14690SOL    HW245903   6.482   6.001   9.668
14691SOL     OW45904   9.277  13.936   3.903
14691SOL    HW145905   9.261  13.882   3.826
14691SOL    HW245906   9.191  13.972   3.926
14692SOL     OW45907   7.790  13.248   4.901
14692SOL    HW145908   7.837  13.253   4.984
14692SOL    HW245909   7.843  13.298   4.840
14693SOL     OW45910  13.741   7.256   7.581
14693SOL    HW145911  13.714   7.306   7.658
14693SOL    HW245912  13.677   7.185   7.576
14694SOL     OW45913  12.269  13.651   8.156
14694SOL    HW145914  12.220  13.620   8.080
14694SOL    HW245915  12.211  13.634   8.231
14695SOL     OW45916  11.909   8.007   6.424
14695SOL    HW145917  11.941   7.928   6.380
14695SOL    HW245918  11.907   7.984   6.517
14696SOL     OW45919   1.497   8.067   8.787
14696SOL    HW145920   1.558   8.061   8.712
14696SOL    HW245921   1.515   8.152   8.826
14697SOL     OW45922  14.234   4.628  13.495
14697SOL    HW145923  14.152   4.620  13.546
14697SOL    HW245924  14.208   4.610  13.405
14698SOL     OW45925   2.877   2.770  14.375
14698SOL    HW145926   2.942   2.721  14.425
14698SOL    HW245927   2.912   2.774  14.286
14699SOL     OW45928   0.475   7.658   0.180
14699SOL    HW145929   0.382   7.637   0.189
14699SOL    HW245930   0.519   7.573   0.182
14700SOL     OW45931   2.981   3.589   8.594
14700SOL    HW145932   2.912   3.526   8.573
14700SOL    HW245933   2.941   3.675   8.581
14701SOL     OW45934   7.777   7.643   2.035
14701SOL    HW145935   7.781   7.738   2.020
14701SOL    HW245936   7.825   7.605   1.961
14702SOL     OW45937   0.353  12.956   4.689
14702SOL    HW145938   0.319  12.988   4.605
14702SOL    HW245939   0.275  12.923   4.735
14703SOL     OW45940   9.610   8.432  14.285
14703SOL    HW145941   9.641   8.461  14.200
14703SOL    HW245942   9.561   8.352  14.266
14704SOL     OW45943   5.905   7.922   4.625
14704SOL    HW145944   5.874   7.977   4.697
14704SOL    HW245945   6.000   7.922   4.634
14705SOL     OW45946  10.169   5.293  13.383
14705SOL    HW145947  10.150   5.261  13.471
14705SOL    HW245948  10.185   5.387  13.395
14706SOL     OW45949  13.235   3.308  10.100
14706SOL    HW145950  13.184   3.380  10.140
14706SOL    HW245951  13.221   3.234  10.159
14707SOL     OW45952   8.639   4.662   5.627
14707SOL    HW145953   8.690   4.737   5.656
14707SOL    HW245954   8.554   4.699   5.601
14708SOL     OW45955  10.920  13.798  13.428
14708SOL    HW145956  10.879  13.729  13.378
14708SOL    HW245957  10.917  13.875  13.371
14709SOL     OW45958  13.863   4.720   9.783
14709SOL    HW145959  13.841   4.657   9.714
14709SOL    HW245960  13.779   4.760   9.807
14710SOL     OW45961  14.582   1.905   3.700
14710SOL    HW145962  14.591   1.998   3.680
14710SOL    HW245963  14.671   1.876   3.718
14711SOL     OW45964  12.826   7.188   9.075
14711SOL    HW145965  12.904   7.214   9.125
14711SOL    HW245966  12.837   7.094   9.062
14712SOL     OW45967   7.501  14.386   4.240
14712SOL    HW145968   7.439  14.326   4.200
14712SOL    HW245969   7.558  14.330   4.293
14713SOL     OW45970  13.932   4.000   1.511
14713SOL    HW145971  13.891   3.926   1.556
14713SOL    HW245972  13.968   4.054   1.581
14714SOL     OW45973   6.326   7.975  12.513
14714SOL    HW145974   6.241   7.993  12.552
14714SOL    HW245975   6.375   8.057  12.521
14715SOL     OW45976   5.331  11.637  10.946
14715SOL    HW145977   5.243  11.662  10.973
14715SOL    HW245978   5.380  11.720  10.946
14716SOL     OW45979   6.680   1.567  10.434
14716SOL    HW145980   6.733   1.504  10.385
14716SOL    HW245981   6.698   1.547  10.526
14717SOL     OW45982   8.203   1.754   4.916
14717SOL    HW145983   8.127   1.810   4.900
14717SOL    HW245984   8.184   1.673   4.869
14718SOL     OW45985  13.816  13.546   5.847
14718SOL    HW145986  13.808  13.515   5.757
14718SOL    HW245987  13.843  13.638   5.838
14719SOL     OW45988   2.711   6.959   6.275
14719SOL    HW145989   2.789   6.944   6.329
14719SOL    HW245990   2.720   6.897   6.202
14720SOL     OW45991   0.497   6.595  10.337
14720SOL    HW145992   0.571   6.636  10.291
14720SOL    HW245993   0.464   6.664  10.395
14721SOL     OW45994   5.615   8.836   5.720
14721SOL    HW145995   5.561   8.915   5.711
14721SOL    HW245996   5.559   8.765   5.688
14722SOL     OW45997   5.570  14.682   3.068
14722SOL    HW145998   5.502  14.615   3.075
14722SOL    HW245999   5.565  14.711   2.977
14723SOL     OW46000   5.275   4.308   8.488
14723SOL    HW146001   5.319   4.241   8.435
14723SOL    HW246002   5.293   4.282   8.578
14724SOL     OW46003   7.560   6.883   4.269
14724SOL    HW146004   7.630   6.820   4.250
14724SOL    HW246005   7.583   6.959   4.216
14725SOL     OW46006   0.590  10.448   7.433
14725SOL    HW146007   0.525  10.455   7.504
14725SOL    HW246008   0.650  10.380   7.462
14726SOL     OW46009   4.238   9.275   6.568
14726SOL    HW146010   4.242   9.222   6.648
14726SOL    HW246011   4.151   9.257   6.532
14727SOL     OW46012   9.985   3.912   8.497
14727SOL    HW146013  10.071   3.934   8.533
14727SOL    HW246014  10.001   3.833   8.445
14728SOL     OW46015   5.580  12.564  12.334
14728SOL    HW146016   5.641  12.503  12.293
14728SOL    HW246017   5.635  12.620  12.388
14729SOL     OW46018   1.656   2.222  12.865
14729SOL    HW146019   1.657   2.210  12.770
14729SOL    HW246020   1.564   2.219  12.889
14730SOL     OW46021   6.561   8.883   2.398
14730SOL    HW146022   6.575   8.977   2.388
14730SOL    HW246023   6.586   8.865   2.488
14731SOL     OW46024   5.351   9.206  10.932
14731SOL    HW146025   5.367   9.248  11.017
14731SOL    HW246026   5.315   9.275  10.877
14732SOL     OW46027   1.495   2.670  12.051
14732SOL    HW146028   1.504   2.626  11.966
14732SOL    HW246029   1.404   2.653  12.076
14733SOL     OW46030  12.667  10.271   6.337
14733SOL    HW146031  12.612  10.340   6.373
14733SOL    HW246032  12.667  10.287   6.242
14734SOL     OW46033   9.503   5.620  14.223
14734SOL    HW146034   9.430   5.581  14.175
14734SOL    HW246035   9.470   5.629  14.313
14735SOL     OW46036   1.456   6.759   2.098
14735SOL    HW146037   1.459   6.703   2.175
14735SOL    HW246038   1.548   6.772   2.074
14736SOL     OW46039   8.746  10.377  12.263
14736SOL    HW146040   8.716  10.434  12.335
14736SOL    HW246041   8.735  10.289  12.297
14737SOL     OW46042   4.886   1.464  10.212
14737SOL    HW146043   4.933   1.533  10.258
14737SOL    HW246044   4.824   1.510  10.156
14738SOL     OW46045   2.613   2.229   1.253
14738SOL    HW146046   2.567   2.240   1.169
14738SOL    HW246047   2.664   2.309   1.262
14739SOL     OW46048  11.110   9.314   4.346
14739SOL    HW146049  11.150   9.227   4.351
14739SOL    HW246050  11.016   9.298   4.357
14740SOL     OW46051  11.588   6.115   7.217
14740SOL    HW146052  11.638   6.107   7.136
14740SOL    HW246053  11.655   6.118   7.286
14741SOL     OW46054  12.153  13.291   1.555
14741SOL    HW146055  12.203  13.332   1.485
14741SOL    HW246056  12.140  13.201   1.525
14742SOL     OW46057   7.558  10.384  13.513
14742SOL    HW146058   7.567  10.401  13.606
14742SOL    HW246059   7.510  10.302  13.507
14743SOL     OW46060   0.688   7.284   7.000
14743SOL    HW146061   0.710   7.349   6.934
14743SOL    HW246062   0.657   7.208   6.949
14744SOL     OW46063   9.380   7.494   3.391
14744SOL    HW146064   9.451   7.515   3.452
14744SOL    HW246065   9.318   7.566   3.401
14745SOL     OW46066   7.567   4.401  14.360
14745SOL    HW146067   7.600   4.491  14.351
14745SOL    HW246068   7.646   4.347  14.365
14746SOL     OW46069  10.779  14.449   8.101
14746SOL    HW146070  10.801  14.444   8.194
14746SOL    HW246071  10.721  14.374   8.086
14747SOL     OW46072   0.490  12.505   1.846
14747SOL    HW146073   0.450  12.591   1.833
14747SOL    HW246074   0.493  12.466   1.759
14748SOL     OW46075   9.024   2.454  14.528
14748SOL    HW146076   9.117   2.473  14.537
14748SOL    HW246077   9.020   2.361  14.505
14749SOL     OW46078   6.973  10.313  10.750
14749SOL    HW146079   6.913  10.242  10.771
14749SOL    HW246080   7.013  10.336  10.833
14750SOL     OW46081  12.424   6.653   8.641
14750SOL    HW146082  12.471   6.593   8.698
14750SOL    HW246083  12.474   6.734   8.643
14751SOL     OW46084   6.598  12.174   6.091
14751SOL    HW146085   6.663  12.114   6.127
14751SOL    HW246086   6.643  12.217   6.018
14752SOL     OW46087  10.133   4.718   4.158
14752SOL    HW146088  10.146   4.627   4.131
14752SOL    HW246089  10.047   4.741   4.121
14753SOL     OW46090  12.927   7.742   8.132
14753SOL    HW146091  12.873   7.820   8.118
14753SOL    HW246092  12.873   7.669   8.100
14754SOL     OW46093  10.790  13.392   8.439
14754SOL    HW146094  10.809  13.323   8.503
14754SOL    HW246095  10.779  13.345   8.356
14755SOL     OW46096   8.574   4.373  10.919
14755SOL    HW146097   8.609   4.367  10.830
14755SOL    HW246098   8.649   4.353  10.975
14756SOL     OW46099  11.124   6.913   3.318
14756SOL    HW146100  11.054   6.943   3.259
14756SOL    HW246101  11.204   6.949   3.279
14757SOL     OW46102   8.659   7.599   2.759
14757SOL    HW146103   8.564   7.609   2.754
14757SOL    HW246104   8.681   7.625   2.848
14758SOL     OW46105   4.406   5.883  10.686
14758SOL    HW146106   4.482   5.838  10.649
14758SOL    HW246107   4.442   5.936  10.757
14759SOL     OW46108  14.623  12.260   1.521
14759SOL    HW146109  14.643  12.199   1.591
14759SOL    HW246110  14.540  12.299   1.546
14760SOL     OW46111  12.213   8.912   7.441
14760SOL    HW146112  12.120   8.932   7.432
14760SOL    HW246113  12.257   8.997   7.434
14761SOL     OW46114   1.164   5.099   3.397
14761SOL    HW146115   1.110   5.022   3.414
14761SOL    HW246116   1.158   5.112   3.303
14762SOL     OW46117   3.965   5.092   3.865
14762SOL    HW146118   3.987   5.055   3.951
14762SOL    HW246119   3.985   5.022   3.803
14763SOL     OW46120  10.625   3.373   9.551
14763SOL    HW146121  10.607   3.397   9.460
14763SOL    HW246122  10.679   3.444   9.585
14764SOL     OW46123  10.643   3.701   6.657
14764SOL    HW146124  10.550   3.716   6.675
14764SOL    HW246125  10.680   3.788   6.650
14765SOL     OW46126   2.421  13.344   5.435
14765SOL    HW146127   2.382  13.286   5.500
14765SOL    HW246128   2.512  13.354   5.463
14766SOL     OW46129  13.340   2.040   8.156
14766SOL    HW146130  13.361   2.133   8.164
14766SOL    HW246131  13.310   2.015   8.243
14767SOL     OW46132  11.374   6.846   1.942
14767SOL    HW146133  11.380   6.918   1.879
14767SOL    HW246134  11.305   6.790   1.908
14768SOL     OW46135   0.151   9.664   7.760
14768SOL    HW146136   0.149   9.645   7.854
14768SOL    HW246137   0.061   9.689   7.738
14769SOL     OW46138   0.526   0.218   3.599
14769SOL    HW146139   0.485   0.163   3.666
14769SOL    HW246140   0.577   0.158   3.546
14770SOL     OW46141   2.971  14.615   1.958
14770SOL    HW146142   2.897  14.642   1.904
14770SOL    HW246143   2.980  14.521   1.941
14771SOL     OW46144  10.879  12.669   3.821
14771SOL    HW146145  10.900  12.577   3.837
14771SOL    HW246146  10.798  12.667   3.770
14772SOL     OW46147   7.807  13.142  12.989
14772SOL    HW146148   7.815  13.226  12.943
14772SOL    HW246149   7.730  13.101  12.951
14773SOL     OW46150  14.543  10.921   5.028
14773SOL    HW146151  14.572  11.007   5.055
14773SOL    HW246152  14.604  10.860   5.069
14774SOL     OW46153   1.416   3.228   4.242
14774SOL    HW146154   1.498   3.187   4.214
14774SOL    HW246155   1.355   3.212   4.170
14775SOL     OW46156   1.412  13.592   4.673
14775SOL    HW146157   1.411  13.678   4.631
14775SOL    HW246158   1.325  13.582   4.710
14776SOL     OW46159  12.247  13.146  13.040
14776SOL    HW146160  12.204  13.065  13.014
14776SOL    HW246161  12.176  13.202  13.070
14777SOL     OW46162   4.428   1.255  13.682
14777SOL    HW146163   4.366   1.182  13.675
14777SOL    HW246164   4.514   1.214  13.676
14778SOL     OW46165   3.893   4.932  10.851
14778SOL    HW146166   3.900   4.866  10.782
14778SOL    HW246167   3.802   4.961  10.848
14779SOL     OW46168   7.077   6.179   3.356
14779SOL    HW146169   7.047   6.116   3.422
14779SOL    HW246170   7.001   6.194   3.300
14780SOL     OW46171   1.087   4.323   2.838
14780SOL    HW146172   1.019   4.256   2.837
14780SOL    HW246173   1.120   4.324   2.748
14781SOL     OW46174  12.193   0.036   6.717
14781SOL    HW146175  12.137  14.877   6.651
14781SOL    HW246176  12.263   0.078   6.666
14782SOL     OW46177   7.063   7.945   0.809
14782SOL    HW146178   7.043   7.962   0.901
14782SOL    HW246179   7.038   7.853   0.795
14783SOL     OW46180   7.758  14.428   7.244
14783SOL    HW146181   7.665  14.449   7.241
14783SOL    HW246182   7.763  14.337   7.213
14784SOL     OW46183  10.483   5.925  14.081
14784SOL    HW146184  10.451   5.965  14.000
14784SOL    HW246185  10.432   5.967  14.150
14785SOL     OW46186   6.022  13.647  14.188
14785SOL    HW146187   6.048  13.713  14.125
14785SOL    HW246188   5.949  13.688  14.236
14786SOL     OW46189   9.830   3.559   4.813
14786SOL    HW146190   9.865   3.548   4.724
14786SOL    HW246191   9.814   3.653   4.821
14787SOL     OW46192  12.609  10.372   6.029
14787SOL    HW146193  12.688  10.320   6.016
14787SOL    HW246194  12.639  10.449   6.077
14788SOL     OW46195   4.866   8.367   4.423
14788SOL    HW146196   4.935   8.303   4.405
14788SOL    HW246197   4.898   8.449   4.386
14789SOL     OW46198  10.016   4.349   4.228
14789SOL    HW146199   9.999   4.346   4.323
14789SOL    HW246200   9.970   4.428   4.198
14790SOL     OW46201  10.678   8.444   4.991
14790SOL    HW146202  10.650   8.525   4.948
14790SOL    HW246203  10.705   8.387   4.919
14791SOL     OW46204   5.309   1.770  14.383
14791SOL    HW146205   5.235   1.721  14.347
14791SOL    HW246206   5.384   1.742  14.331
14792SOL     OW46207   7.387  13.779   6.606
14792SOL    HW146208   7.459  13.835   6.635
14792SOL    HW246209   7.366  13.725   6.682
14793SOL     OW46210  10.397   3.991   8.273
14793SOL    HW146211  10.437   4.057   8.217
14793SOL    HW246212  10.324   3.956   8.222
14794SOL     OW46213  10.071   1.502   3.216
14794SOL    HW146214  10.027   1.544   3.142
14794SOL    HW246215  10.005   1.499   3.285
14795SOL     OW46216   3.511  13.362   4.706
14795SOL    HW146217   3.606  13.364   4.700
14795SOL    HW246218   3.485  13.453   4.695
14796SOL     OW46219  10.920  12.239  11.536
14796SOL    HW146220  10.990  12.303  11.544
14796SOL    HW246221  10.913  12.222  11.442
14797SOL     OW46222   8.733   2.215   8.526
14797SOL    HW146223   8.813   2.256   8.559
14797SOL    HW246224   8.666   2.283   8.535
14798SOL     OW46225  12.422   6.147   6.568
14798SOL    HW146226  12.366   6.106   6.503
14798SOL    HW246227  12.406   6.098   6.649
14799SOL     OW46228  10.730   2.420  11.290
14799SOL    HW146229  10.677   2.360  11.238
14799SOL    HW246230  10.820   2.398  11.269
14800SOL     OW46231  14.310   7.227  13.901
14800SOL    HW146232  14.309   7.267  13.814
14800SOL    HW246233  14.385   7.266  13.945
14801SOL     OW46234   8.368   4.871   9.316
14801SOL    HW146235   8.312   4.945   9.291
14801SOL    HW246236   8.455   4.910   9.329
14802SOL     OW46237  12.804  10.117  13.848
14802SOL    HW146238  12.731  10.100  13.907
14802SOL    HW246239  12.781  10.200  13.805
14803SOL     OW46240   9.684   3.296  11.592
14803SOL    HW146241   9.607   3.344  11.624
14803SOL    HW246242   9.680   3.306  11.497
14804SOL     OW46243   3.437   1.193  10.186
14804SOL    HW146244   3.431   1.190  10.091
14804SOL    HW246245   3.413   1.105  10.215
14805SOL     OW46246   0.701   7.443   1.352
14805SOL    HW146247   0.689   7.456   1.258
14805SOL    HW246248   0.696   7.348   1.364
14806SOL     OW46249   5.603  10.736   0.134
14806SOL    HW146250   5.574  10.656   0.177
14806SOL    HW246251   5.542  10.803   0.164
14807SOL     OW46252  14.262   8.337  13.339
14807SOL    HW146253  14.181   8.293  13.363
14807SOL    HW246254  14.237   8.404  13.277
14808SOL     OW46255  14.184  11.482  13.718
14808SOL    HW146256  14.257  11.523  13.673
14808SOL    HW246257  14.210  11.390  13.727
14809SOL     OW46258   6.892  10.766  14.854
14809SOL    HW146259   6.895  10.812  14.770
14809SOL    HW246260   6.798  10.754  14.871
14810SOL     OW46261   0.603   7.882   7.829
14810SOL    HW146262   0.673   7.911   7.887
14810SOL    HW246263   0.611   7.787   7.827
14811SOL     OW46264  13.927   9.252   7.974
14811SOL    HW146265  14.016   9.222   7.992
14811SOL    HW246266  13.872   9.175   7.994
14812SOL     OW46267  14.668  11.106  12.902
14812SOL    HW146268  14.574  11.100  12.887
14812SOL    HW246269  14.706  11.110  12.814
14813SOL     OW46270   2.757   1.552   3.432
14813SOL    HW146271   2.835   1.509   3.398
14813SOL    HW246272   2.786   1.640   3.456
14814SOL     OW46273  13.849  12.608   0.983
14814SOL    HW146274  13.760  12.638   0.999
14814SOL    HW246275  13.843  12.512   0.984
14815SOL     OW46276   9.787   3.696   3.449
14815SOL    HW146277   9.766   3.789   3.440
14815SOL    HW246278   9.858   3.681   3.386
14816SOL     OW46279   4.116  12.285   3.599
14816SOL    HW146280   4.074  12.251   3.520
14816SOL    HW246281   4.090  12.377   3.603
14817SOL     OW46282   3.076  14.861   8.534
14817SOL    HW146283   3.112  14.873   8.622
14817SOL    HW246284   3.015  14.788   8.543
14818SOL     OW46285   9.861   9.085   8.144
14818SOL    HW146286   9.953   9.091   8.117
14818SOL    HW246287   9.850   8.995   8.173
14819SOL     OW46288  11.833   1.593  13.289
14819SOL    HW146289  11.867   1.512  13.328
14819SOL    HW246290  11.905   1.624  13.234
14820SOL     OW46291   6.264   5.069   3.446
14820SOL    HW146292   6.196   5.078   3.380
14820SOL    HW246293   6.236   5.127   3.517
14821SOL     OW46294   5.921   2.359   2.004
14821SOL    HW146295   5.862   2.332   2.074
14821SOL    HW246296   5.966   2.279   1.978
14822SOL     OW46297   9.883   3.560   5.778
14822SOL    HW146298   9.824   3.485   5.787
14822SOL    HW246299   9.830   3.635   5.805
14823SOL     OW46300  11.351   3.932   2.057
14823SOL    HW146301  11.273   3.877   2.054
14823SOL    HW246302  11.329   4.003   2.117
14824SOL     OW46303  13.860   9.596   4.582
14824SOL    HW146304  13.909   9.548   4.515
14824SOL    HW246305  13.894   9.563   4.665
14825SOL     OW46306   7.825   4.833   3.310
14825SOL    HW146307   7.808   4.810   3.219
14825SOL    HW246308   7.751   4.797   3.359
14826SOL     OW46309   4.015   5.150   9.394
14826SOL    HW146310   3.937   5.117   9.438
14826SOL    HW246311   4.002   5.244   9.389
14827SOL     OW46312   8.458   0.241  14.420
14827SOL    HW146313   8.474   0.202  14.507
14827SOL    HW246314   8.428   0.330  14.439
14828SOL     OW46315   4.267   3.818  14.794
14828SOL    HW146316   4.242   3.906  14.823
14828SOL    HW246317   4.362   3.823  14.784
14829SOL     OW46318   2.982   4.734  14.810
14829SOL    HW146319   3.019   4.657  14.853
14829SOL    HW246320   3.046   4.758  14.744
14830SOL     OW46321   7.212   5.164   5.763
14830SOL    HW146322   7.219   5.249   5.807
14830SOL    HW246323   7.158   5.182   5.687
14831SOL     OW46324   3.734  12.481  13.787
14831SOL    HW146325   3.686  12.527  13.719
14831SOL    HW246326   3.772  12.406  13.742
14832SOL     OW46327   2.470  14.845   5.324
14832SOL    HW146328   2.540   0.026   5.311
14832SOL    HW246329   2.412  14.857   5.249
14833SOL     OW46330   5.793   1.450   1.114
14833SOL    HW146331   5.879   1.429   1.151
14833SOL    HW246332   5.799   1.422   1.023
14834SOL     OW46333   4.908  11.244   1.231
14834SOL    HW146334   4.822  11.279   1.256
14834SOL    HW246335   4.916  11.162   1.278
14835SOL     OW46336   8.512   7.184   4.916
14835SOL    HW146337   8.537   7.217   5.002
14835SOL    HW246338   8.423   7.149   4.929
14836SOL     OW46339   5.536   1.080   3.859
14836SOL    HW146340   5.456   1.123   3.831
14836SOL    HW246341   5.606   1.135   3.824
14837SOL     OW46342   9.045   4.495   9.539
14837SOL    HW146343   9.135   4.488   9.506
14837SOL    HW246344   9.055   4.503   9.634
14838SOL     OW46345   6.517  14.374   1.782
14838SOL    HW146346   6.460  14.381   1.705
14838SOL    HW246347   6.550  14.284   1.778
14839SOL     OW46348   1.183  14.868   3.738
14839SOL    HW146349   1.101  14.842   3.697
14839SOL    HW246350   1.250  14.818   3.691
14840SOL     OW46351   0.067   0.651  13.698
14840SOL    HW146352   0.001   0.671  13.632
14840SOL    HW246353   0.070   0.728  13.754
14841SOL     OW46354  11.760   6.005   7.000
14841SOL    HW146355  11.729   5.917   6.978
14841SOL    HW246356  11.774   6.048   6.916
14842SOL     OW46357  10.999  12.040   2.245
14842SOL    HW146358  10.922  11.984   2.239
14842SOL    HW246359  11.022  12.040   2.338
14843SOL     OW46360   9.008   1.060   3.729
14843SOL    HW146361   8.925   1.105   3.748
14843SOL    HW246362   8.986   0.967   3.732
14844SOL     OW46363   3.269  10.248   2.861
14844SOL    HW146364   3.346  10.264   2.917
14844SOL    HW246365   3.302  10.258   2.772
14845SOL     OW46366   5.048   3.208   6.578
14845SOL    HW146367   5.103   3.208   6.655
14845SOL    HW246368   5.040   3.116   6.553
14846SOL     OW46369  10.842  12.639  10.900
14846SOL    HW146370  10.822  12.695  10.975
14846SOL    HW246371  10.757  12.602  10.874
14847SOL     OW46372   4.684   5.608  14.335
14847SOL    HW146373   4.738   5.566  14.402
14847SOL    HW246374   4.744   5.623  14.262
14848SOL     OW46375   1.982   8.897   7.754
14848SOL    HW146376   2.068   8.930   7.728
14848SOL    HW246377   1.959   8.833   7.687
14849SOL     OW46378   5.042  10.917  12.505
14849SOL    HW146379   5.022  10.932  12.412
14849SOL    HW246380   5.135  10.937  12.513
14850SOL     OW46381  10.418   6.060  12.510
14850SOL    HW146382  10.385   6.016  12.588
14850SOL    HW246383  10.445   5.989  12.452
14851SOL     OW46384   5.715   4.754   1.870
14851SOL    HW146385   5.796   4.704   1.862
14851SOL    HW246386   5.648   4.698   1.830
14852SOL     OW46387   3.580   8.919   4.997
14852SOL    HW146388   3.503   8.872   4.965
14852SOL    HW246389   3.552   9.011   4.998
14853SOL     OW46390   0.138   6.519  14.723
14853SOL    HW146391   0.221   6.555  14.692
14853SOL    HW246392   0.110   6.460  14.652
14854SOL     OW46393   8.631   2.645   2.721
14854SOL    HW146394   8.584   2.724   2.748
14854SOL    HW246395   8.719   2.676   2.698
14855SOL     OW46396   8.959  11.432   3.572
14855SOL    HW146397   9.048  11.399   3.560
14855SOL    HW246398   8.909  11.355   3.599
14856SOL     OW46399   4.003  10.820   0.102
14856SOL    HW146400   4.080  10.870   0.131
14856SOL    HW246401   3.975  10.773   0.181
14857SOL     OW46402   5.002   3.166   9.667
14857SOL    HW146403   5.055   3.178   9.588
14857SOL    HW246404   5.065   3.153   9.737
14858SOL     OW46405   7.213   8.966   1.836
14858SOL    HW146406   7.204   8.982   1.742
14858SOL    HW246407   7.122   8.959   1.867
14859SOL     OW46408   1.849   5.600   8.321
14859SOL    HW146409   1.907   5.603   8.245
14859SOL    HW246410   1.783   5.666   8.304
14860SOL     OW46411  11.906   2.863  13.027
14860SOL    HW146412  11.976   2.812  12.986
14860SOL    HW246413  11.835   2.800  13.041
14861SOL     OW46414   0.617   6.593  11.257
14861SOL    HW146415   0.605   6.502  11.231
14861SOL    HW246416   0.601   6.643  11.176
14862SOL     OW46417   5.597  12.882   5.332
14862SOL    HW146418   5.576  12.969   5.366
14862SOL    HW246419   5.690  12.887   5.310
14863SOL     OW46420   6.373   6.179   9.401
14863SOL    HW146421   6.370   6.164   9.495
14863SOL    HW246422   6.345   6.270   9.390
14864SOL     OW46423   1.234   4.313  12.689
14864SOL    HW146424   1.181   4.239  12.716
14864SOL    HW246425   1.185   4.353  12.617
14865SOL     OW46426   3.637   0.197  12.104
14865SOL    HW146427   3.593   0.190  12.020
14865SOL    HW246428   3.671   0.109  12.120
14866SOL     OW46429   9.186  12.786   0.806
14866SOL    HW146430   9.139  12.831   0.736
14866SOL    HW246431   9.119  12.762   0.870
14867SOL     OW46432   1.164   8.152   1.572
14867SOL    HW146433   1.085   8.200   1.598
14867SOL    HW246434   1.218   8.150   1.652
14868SOL     OW46435   5.412  12.936   7.377
14868SOL    HW146436   5.427  12.987   7.297
14868SOL    HW246437   5.483  12.961   7.435
14869SOL     OW46438   7.377  12.585   3.652
14869SOL    HW146439   7.451  12.605   3.595
14869SOL    HW246440   7.303  12.574   3.593
14870SOL     OW46441  12.939   1.592   6.564
14870SOL    HW146442  12.931   1.498   6.580
14870SOL    HW246443  12.984   1.625   6.642
14871SOL     OW46444  13.535   0.684  10.475
14871SOL    HW146445  13.551   0.610  10.533
14871SOL    HW246446  13.608   0.683  10.414
14872SOL     OW46447  13.646   4.466   1.065
14872SOL    HW146448  13.586   4.468   0.990
14872SOL    HW246449  13.645   4.375   1.094
14873SOL     OW46450   5.490   3.045  13.105
14873SOL    HW146451   5.524   3.049  13.195
14873SOL    HW246452   5.478   2.952  13.088
14874SOL     OW46453   2.699  10.367   5.116
14874SOL    HW146454   2.614  10.406   5.137
14874SOL    HW246455   2.708  10.294   5.178
14875SOL     OW46456   2.843  13.545  12.415
14875SOL    HW146457   2.844  13.449  12.420
14875SOL    HW246458   2.917  13.567  12.359
14876SOL     OW46459   9.018  10.766  13.417
14876SOL    HW146460   8.959  10.705  13.371
14876SOL    HW246461   8.963  10.806  13.484
14877SOL     OW46462   9.575   3.049  11.471
14877SOL    HW146463   9.582   3.067  11.377
14877SOL    HW246464   9.591   3.133  11.513
14878SOL     OW46465   5.744   1.975  11.668
14878SOL    HW146466   5.814   1.956  11.730
14878SOL    HW246467   5.774   2.053  11.621
14879SOL     OW46468   0.349  10.263   1.907
14879SOL    HW146469   0.340  10.357   1.892
14879SOL    HW246470   0.323  10.224   1.824
14880SOL     OW46471  14.405   7.928   6.616
14880SOL    HW146472  14.365   7.887   6.693
14880SOL    HW246473  14.499   7.926   6.634
14881SOL     OW46474   7.710   7.288   2.328
14881SOL    HW146475   7.789   7.343   2.337
14881SOL    HW246476   7.669   7.292   2.414
14882SOL     OW46477   8.989  10.217  10.870
14882SOL    HW146478   8.903  10.258  10.861
14882SOL    HW246479   9.047  10.289  10.898
14883SOL     OW46480   8.639  14.016   0.429
14883SOL    HW146481   8.579  13.964   0.482
14883SOL    HW246482   8.583  14.061   0.366
14884SOL     OW46483   4.623   5.965   7.894
14884SOL    HW146484   4.569   5.891   7.866
14884SOL    HW246485   4.596   6.038   7.838
14885SOL     OW46486   8.876   2.877   8.757
14885SOL    HW146487   8.853   2.970   8.750
14885SOL    HW246488   8.857   2.856   8.849
14886SOL     OW46489   5.221   3.914  10.639
14886SOL    HW146490   5.141   3.928  10.589
14886SOL    HW246491   5.285   3.885  10.574
14887SOL     OW46492   8.289   2.633   8.679
14887SOL    HW146493   8.211   2.586   8.650
14887SOL    HW246494   8.258   2.721   8.698
14888SOL     OW46495   4.776   4.504   4.965
14888SOL    HW146496   4.778   4.475   4.874
14888SOL    HW246497   4.752   4.597   4.959
14889SOL     OW46498   1.717  14.527  11.747
14889SOL    HW146499   1.734  14.440  11.783
14889SOL    HW246500   1.800  14.574  11.758
14890SOL     OW46501  13.828   1.271  12.040
14890SOL    HW146502  13.778   1.353  12.038
14890SOL    HW246503  13.769   1.208  12.080
14891SOL     OW46504   9.019   6.234   5.600
14891SOL    HW146505   8.989   6.323   5.582
14891SOL    HW246506   9.112   6.235   5.575
14892SOL     OW46507  12.040  11.226   2.541
14892SOL    HW146508  12.014  11.257   2.455
14892SOL    HW246509  12.084  11.142   2.525
14893SOL     OW46510  12.301   3.188   6.354
14893SOL    HW146511  12.283   3.095   6.339
14893SOL    HW246512  12.279   3.230   6.270
14894SOL     OW46513   7.283   1.203   8.153
14894SOL    HW146514   7.372   1.185   8.182
14894SOL    HW246515   7.262   1.130   8.094
14895SOL     OW46516   5.989  12.743   2.389
14895SOL    HW146517   6.002  12.819   2.444
14895SOL    HW246518   6.001  12.668   2.448
14896SOL     OW46519   1.931  13.847  13.388
14896SOL    HW146520   1.878  13.791  13.446
14896SOL    HW246521   2.018  13.848  13.429
14897SOL     OW46522   9.236  13.214  14.161
14897SOL    HW146523   9.319  13.237  14.119
14897SOL    HW246524   9.210  13.293  14.208
14898SOL     OW46525   4.149  14.497   4.624
14898SOL    HW146526   4.156  14.407   4.592
14898SOL    HW246527   4.194  14.496   4.708
14899SOL     OW46528  11.535   6.621  13.768
14899SOL    HW146529  11.607   6.559  13.778
14899SOL    HW246530  11.570   6.689  13.710
14900SOL     OW46531   8.000  10.191  12.568
14900SOL    HW146532   8.080  10.139  12.557
14900SOL    HW246533   7.933  10.127  12.594
14901SOL     OW46534   4.457   4.934   4.095
14901SOL    HW146535   4.530   4.979   4.053
14901SOL    HW246536   4.380   4.988   4.076
14902SOL     OW46537  14.841  12.858  12.817
14902SOL    HW146538   0.031  12.911  12.781
14902SOL    HW246539  14.831  12.889  12.907
14903SOL     OW46540   0.030  10.562  10.635
14903SOL    HW146541   0.048  10.653  10.611
14903SOL    HW246542  14.829  10.565  10.683
14904SOL     OW46543   6.425  10.174   0.177
14904SOL    HW146544   6.441  10.261   0.214
14904SOL    HW246545   6.441  10.185   0.084
14905SOL     OW46546   0.735   0.806   5.835
14905SOL    HW146547   0.738   0.734   5.897
14905SOL    HW246548   0.809   0.861   5.858
14906SOL     OW46549  10.266   5.490  14.819
14906SOL    HW146550  10.172   5.493  14.806
14906SOL    HW246551  10.277   5.488   0.033
14907SOL     OW46552   4.925   1.615  11.276
14907SOL    HW146553   4.918   1.557  11.352
14907SOL    HW246554   4.844   1.601  11.227
14908SOL     OW46555  13.954  11.569   6.555
14908SOL    HW146556  14.038  11.614   6.543
14908SOL    HW246557  13.936  11.576   6.648
14909SOL     OW46558   3.991   8.802   6.953
14909SOL    HW146559   3.988   8.722   7.006
14909SOL    HW246560   4.025   8.869   7.012
14910SOL     OW46561   0.554   9.281   2.660
14910SOL    HW146562   0.500   9.244   2.590
14910SOL    HW246563   0.641   9.290   2.621
14911SOL     OW46564   3.381  12.666  12.610
14911SOL    HW146565   3.351  12.744  12.565
14911SOL    HW246566   3.300  12.622  12.638
14912SOL     OW46567   2.060   3.592   6.287
14912SOL    HW146568   2.082   3.678   6.321
14912SOL    HW246569   2.053   3.536   6.364
14913SOL     OW46570  13.358   2.774   1.881
14913SOL    HW146571  13.377   2.866   1.896
14913SOL    HW246572  13.425   2.727   1.931
14914SOL     OW46573   3.694   7.778   4.289
14914SOL    HW146574   3.601   7.797   4.279
14914SOL    HW246575   3.726   7.763   4.200
14915SOL     OW46576   8.332  11.650  14.364
14915SOL    HW146577   8.250  11.638  14.412
14915SOL    HW246578   8.368  11.732  14.398
14916SOL     OW46579   6.202  12.204  14.402
14916SOL    HW146580   6.242  12.204  14.488
14916SOL    HW246581   6.270  12.172  14.343
14917SOL     OW46582  11.503  10.400   3.804
14917SOL    HW146583  11.497  10.493   3.782
14917SOL    HW246584  11.572  10.395   3.870
14918SOL     OW46585  13.618  13.014  13.046
14918SOL    HW146586  13.709  13.044  13.050
14918SOL    HW246587  13.624  12.922  13.021
14919SOL     OW46588   8.950   7.741   4.263
14919SOL    HW146589   9.032   7.735   4.312
14919SOL    HW246590   8.957   7.823   4.214
14920SOL     OW46591  13.845   2.202   7.517
14920SOL    HW146592  13.936   2.212   7.488
14920SOL    HW246593  13.794   2.254   7.456
14921SOL     OW46594   1.425   0.404   6.527
14921SOL    HW146595   1.453   0.473   6.587
14921SOL    HW246596   1.435   0.442   6.440
14922SOL     OW46597   7.529   6.030  11.064
14922SOL    HW146598   7.569   5.959  11.115
14922SOL    HW246599   7.435   6.021  11.079
14923SOL     OW46600   9.138   9.353   5.700
14923SOL    HW146601   9.124   9.445   5.676
14923SOL    HW246602   9.052   9.322   5.730
14924SOL     OW46603   0.633   2.949   1.865
14924SOL    HW146604   0.643   2.951   1.960
14924SOL    HW246605   0.622   2.857   1.844
14925SOL     OW46606   3.013   7.370   2.624
14925SOL    HW146607   3.005   7.419   2.707
14925SOL    HW246608   2.927   7.380   2.583
14926SOL     OW46609   2.668   9.318   4.853
14926SOL    HW146610   2.680   9.229   4.819
14926SOL    HW246611   2.754   9.344   4.885
14927SOL     OW46612  10.019  10.448  10.196
14927SOL    HW146613  10.045  10.473  10.107
14927SOL    HW246614  10.015  10.531  10.243
14928SOL     OW46615  10.291   6.349   7.118
14928SOL    HW146616  10.201   6.382   7.128
14928SOL    HW246617  10.321   6.333   7.207
14929SOL     OW46618   5.403   5.055  13.173
14929SOL    HW146619   5.354   5.096  13.245
14929SOL    HW246620   5.335   5.019  13.116
14930SOL     OW46621  10.263  10.646   5.536
14930SOL    HW146622  10.190  10.705   5.515
14930SOL    HW246623  10.226  10.558   5.527
14931SOL     OW46624  14.354   5.640   8.846
14931SOL    HW146625  14.303   5.721   8.857
14931SOL    HW246626  14.309   5.577   8.902
14932SOL     OW46627   8.450  10.158   0.537
14932SOL    HW146628   8.451  10.125   0.447
14932SOL    HW246629   8.366  10.204   0.545
14933SOL     OW46630   1.912  13.600  12.176
14933SOL    HW146631   1.825  13.590  12.138
14933SOL    HW246632   1.927  13.517  12.223
14934SOL     OW46633  14.362   6.553   2.186
14934SOL    HW146634  14.428   6.619   2.164
14934SOL    HW246635  14.414   6.474   2.205
14935SOL     OW46636   9.162   6.303   2.659
14935SOL    HW146637   9.175   6.214   2.691
14935SOL    HW246638   9.240   6.350   2.687
14936SOL     OW46639   9.573  12.494   3.601
14936SOL    HW146640   9.599  12.476   3.691
14936SOL    HW246641   9.613  12.424   3.550
14937SOL     OW46642  11.722   8.120  13.466
14937SOL    HW146643  11.777   8.168  13.528
14937SOL    HW246644  11.644   8.098  13.517
14938SOL     OW46645   4.136   8.056  14.247
14938SOL    HW146646   4.226   8.058  14.277
14938SOL    HW246647   4.141   8.082  14.155
14939SOL     OW46648   3.410   1.120   8.960
14939SOL    HW146649   3.427   1.144   8.869
14939SOL    HW246650   3.337   1.177   8.986
14940SOL     OW46651   0.521  13.318   0.435
14940SOL    HW146652   0.554  13.318   0.345
14940SOL    HW246653   0.457  13.389   0.436
14941SOL     OW46654  10.965  10.828   7.033
14941SOL    HW146655  11.001  10.861   6.951
14941SOL    HW246656  10.910  10.900   7.066
14942SOL     OW46657  12.424   7.283  11.548
14942SOL    HW146658  12.520   7.284  11.541
14942SOL    HW246659  12.406   7.285  11.642
14943SOL     OW46660   7.034  14.880   9.971
14943SOL    HW146661   6.993   0.060   9.909
14943SOL    HW246662   6.981  14.800   9.963
14944SOL     OW46663  12.456   0.529   6.396
14944SOL    HW146664  12.390   0.523   6.327
14944SOL    HW246665  12.408   0.562   6.472
14945SOL     OW46666   0.231   0.199   8.760
14945SOL    HW146667   0.278   0.136   8.815
14945SOL    HW246668   0.204   0.149   8.684
14946SOL     OW46669   6.970  13.420  13.745
14946SOL    HW146670   7.035  13.386  13.683
14946SOL    HW246671   6.910  13.347  13.759
14947SOL     OW46672   2.649   7.406  12.886
14947SOL    HW146673   2.655   7.499  12.863
14947SOL    HW246674   2.609   7.365  12.810
14948SOL     OW46675  11.316  10.469   7.897
14948SOL    HW146676  11.228  10.439   7.874
14948SOL    HW246677  11.304  10.514   7.981
14949SOL     OW46678   1.774   6.677   4.301
14949SOL    HW146679   1.843   6.744   4.302
14949SOL    HW246680   1.800   6.618   4.230
14950SOL     OW46681  10.367   7.970  13.854
14950SOL    HW146682  10.407   8.055  13.872
14950SOL    HW246683  10.328   7.980  13.767
14951SOL     OW46684   1.150   8.808   8.578
14951SOL    HW146685   1.229   8.775   8.536
14951SOL    HW246686   1.098   8.844   8.506
14952SOL     OW46687   7.651   8.397   4.447
14952SOL    HW146688   7.626   8.321   4.500
14952SOL    HW246689   7.647   8.471   4.509
14953SOL     OW46690   9.504   6.379  11.726
14953SOL    HW146691   9.465   6.307  11.676
14953SOL    HW246692   9.579   6.339  11.770
14954SOL     OW46693   0.233  12.214   3.084
14954SOL    HW146694   0.266  12.183   3.168
14954SOL    HW246695   0.203  12.135   3.039
14955SOL     OW46696   0.300  14.251   8.333
14955SOL    HW146697   0.332  14.279   8.418
14955SOL    HW246698   0.357  14.295   8.270
14956SOL     OW46699  13.952   0.385   1.540
14956SOL    HW146700  13.864   0.400   1.507
14956SOL    HW246701  13.996   0.335   1.471
14957SOL     OW46702   5.334   8.635   0.368
14957SOL    HW146703   5.320   8.700   0.300
14957SOL    HW246704   5.415   8.662   0.411
14958SOL     OW46705  10.944   7.163   8.083
14958SOL    HW146706  10.956   7.081   8.035
14958SOL    HW246707  10.873   7.208   8.036
14959SOL     OW46708   2.255   8.318   7.495
14959SOL    HW146709   2.288   8.274   7.417
14959SOL    HW246710   2.291   8.407   7.490
14960SOL     OW46711  13.324  13.061  12.579
14960SOL    HW146712  13.284  13.005  12.646
14960SOL    HW246713  13.410  13.082  12.614
14961SOL     OW46714   6.662   3.841   5.033
14961SOL    HW146715   6.732   3.811   5.091
14961SOL    HW246716   6.610   3.900   5.088
14962SOL     OW46717   4.283   8.722  10.426
14962SOL    HW146718   4.280   8.688  10.337
14962SOL    HW246719   4.358   8.781  10.427
14963SOL     OW46720   9.364   1.452   6.813
14963SOL    HW146721   9.378   1.540   6.846
14963SOL    HW246722   9.269   1.440   6.814
14964SOL     OW46723   8.645  13.999  14.472
14964SOL    HW146724   8.687  13.913  14.477
14964SOL    HW246725   8.703  14.057  14.521
14965SOL     OW46726   9.637   8.015   0.074
14965SOL    HW146727   9.695   8.050   0.006
14965SOL    HW246728   9.674   7.928   0.094
14966SOL     OW46729  14.851  14.176  14.511
14966SOL    HW146730   0.052  14.206  14.474
14966SOL    HW246731  14.786  14.194  14.442
14967SOL     OW46732   7.027  14.169  13.707
14967SOL    HW146733   7.051  14.140  13.795
14967SOL    HW246734   7.004  14.089  13.661
14968SOL     OW46735  13.217   7.987   3.058
14968SOL    HW146736  13.237   7.898   3.085
14968SOL    HW246737  13.297   8.037   3.076
14969SOL     OW46738   1.282   4.153   5.960
14969SOL    HW146739   1.257   4.060   5.954
14969SOL    HW246740   1.350   4.154   6.028
14970SOL     OW46741   9.536   4.277  10.456
14970SOL    HW146742   9.571   4.356  10.414
14970SOL    HW246743   9.494   4.309  10.536
14971SOL     OW46744   3.148  13.906  14.747
14971SOL    HW146745   3.177  13.924  14.658
14971SOL    HW246746   3.229  13.903  14.798
14972SOL     OW46747   8.159   9.134   4.172
14972SOL    HW146748   8.244   9.099   4.147
14972SOL    HW246749   8.178   9.193   4.246
14973SOL     OW46750   8.544  11.236   9.536
14973SOL    HW146751   8.636  11.263   9.527
14973SOL    HW246752   8.537  11.155   9.485
14974SOL     OW46753   7.027   8.130   7.596
14974SOL    HW146754   7.056   8.198   7.535
14974SOL    HW246755   7.086   8.056   7.580
14975SOL     OW46756   9.293   9.313   2.857
14975SOL    HW146757   9.319   9.320   2.949
14975SOL    HW246758   9.368   9.347   2.808
14976SOL     OW46759   9.154   4.541   1.788
14976SOL    HW146760   9.227   4.583   1.834
14976SOL    HW246761   9.094   4.515   1.859
14977SOL     OW46762  10.477   2.958   1.073
14977SOL    HW146763  10.520   3.006   1.144
14977SOL    HW246764  10.476   3.019   1.000
14978SOL     OW46765   9.400   5.747   4.006
14978SOL    HW146766   9.329   5.760   4.069
14978SOL    HW246767   9.446   5.669   4.038
14979SOL     OW46768  12.274   5.991   1.904
14979SOL    HW146769  12.323   5.928   1.956
14979SOL    HW246770  12.269   6.069   1.959
14980SOL     OW46771   3.394   5.504   5.115
14980SOL    HW146772   3.326   5.564   5.082
14980SOL    HW246773   3.476   5.544   5.088
14981SOL     OW46774   3.937  10.926  11.058
14981SOL    HW146775   3.858  10.967  11.094
14981SOL    HW246776   3.934  10.836  11.090
14982SOL     OW46777   9.660   0.492   8.972
14982SOL    HW146778   9.707   0.422   8.927
14982SOL    HW246779   9.578   0.451   9.001
14983SOL     OW46780   6.722   7.704   2.645
14983SOL    HW146781   6.815   7.726   2.636
14983SOL    HW246782   6.704   7.712   2.738
14984SOL     OW46783  14.460   2.681   3.716
14984SOL    HW146784  14.532   2.619   3.725
14984SOL    HW246785  14.467   2.714   3.626
14985SOL     OW46786  13.975   9.191   7.029
14985SOL    HW146787  13.939   9.214   7.115
14985SOL    HW246788  14.035   9.263   7.009
14986SOL     OW46789   0.957  13.287   3.288
14986SOL    HW146790   1.013  13.247   3.355
14986SOL    HW246791   0.886  13.328   3.337
14987SOL     OW46792   6.106  14.187   4.032
14987SOL    HW146793   6.163  14.262   4.051
14987SOL    HW246794   6.055  14.214   3.956
14988SOL     OW46795   1.788   4.488   6.499
14988SOL    HW146796   1.769   4.566   6.552
14988SOL    HW246797   1.747   4.507   6.414
14989SOL     OW46798   4.553  12.617   4.477
14989SOL    HW146799   4.552  12.592   4.569
14989SOL    HW246800   4.629  12.572   4.440
14990SOL     OW46801   3.066  12.937   9.616
14990SOL    HW146802   3.003  12.988   9.667
14990SOL    HW246803   3.014  12.868   9.576
14991SOL     OW46804   4.662   3.107   0.635
14991SOL    HW146805   4.692   3.061   0.713
14991SOL    HW246806   4.664   3.042   0.565
14992SOL     OW46807   1.695   3.934  11.598
14992SOL    HW146808   1.651   3.849  11.593
14992SOL    HW246809   1.751   3.936  11.520
14993SOL     OW46810   0.263  12.439  12.410
14993SOL    HW146811   0.186  12.495  12.420
14993SOL    HW246812   0.238  12.377  12.341
14994SOL     OW46813   7.891  11.262   8.119
14994SOL    HW146814   7.942  11.183   8.098
14994SOL    HW246815   7.813  11.229   8.162
14995SOL     OW46816   6.763   2.041   8.393
14995SOL    HW146817   6.823   2.026   8.319
14995SOL    HW246818   6.695   1.975   8.382
14996SOL     OW46819  13.576   4.587   0.213
14996SOL    HW146820  13.630   4.508   0.225
14996SOL    HW246821  13.603   4.645   0.283
14997SOL     OW46822   7.329   9.184   4.263
14997SOL    HW146823   7.349   9.242   4.190
14997SOL    HW246824   7.391   9.210   4.332
14998SOL     OW46825   7.879  12.846  11.238
14998SOL    HW146826   7.930  12.844  11.157
14998SOL    HW246827   7.944  12.866  11.306
14999SOL     OW46828   8.914   9.963   6.868
14999SOL    HW146829   8.893   9.940   6.958
14999SOL    HW246830   8.831   9.993   6.830
15000SOL     OW46831  14.865  10.204  12.879
15000SOL    HW146832   0.069  10.162  12.883
15000SOL    HW246833  14.877  10.286  12.928
15001SOL     OW46834   9.223   5.528   8.997
15001SOL    HW146835   9.172   5.533   8.916
15001SOL    HW246836   9.303   5.577   8.977
15002SOL     OW46837  12.963  12.494  10.490
15002SOL    HW146838  12.888  12.487  10.549
15002SOL    HW246839  13.003  12.407  10.492
15003SOL     OW46840   9.796   6.907   7.015
15003SOL    HW146841   9.714   6.895   6.966
15003SOL    HW246842   9.773   6.966   7.087
15004SOL     OW46843   0.657   7.977   9.343
15004SOL    HW146844   0.605   7.979   9.423
15004SOL    HW246845   0.640   7.890   9.306
15005SOL     OW46846   1.177  11.221  11.675
15005SOL    HW146847   1.094  11.199  11.717
15005SOL    HW246848   1.241  11.162  11.717
15006SOL     OW46849  12.188   5.732   7.195
15006SOL    HW146850  12.221   5.772   7.276
15006SOL    HW246851  12.139   5.802   7.152
15007SOL     OW46852  12.283   3.618  14.482
15007SOL    HW146853  12.266   3.703  14.521
15007SOL    HW246854  12.376   3.617  14.462
15008SOL     OW46855   9.290  14.152   8.273
15008SOL    HW146856   9.339  14.229   8.244
15008SOL    HW246857   9.298  14.090   8.201
15009SOL     OW46858   5.743   8.480  14.080
15009SOL    HW146859   5.649   8.498  14.077
15009SOL    HW246860   5.762   8.471  14.174
15010SOL     OW46861  10.216   7.689   6.350
15010SOL    HW146862  10.190   7.766   6.401
15010SOL    HW246863  10.135   7.639   6.340
15011SOL     OW46864  13.264   6.777  13.629
15011SOL    HW146865  13.178   6.739  13.610
15011SOL    HW246866  13.283   6.748  13.718
15012SOL     OW46867   4.347   1.453   7.832
15012SOL    HW146868   4.369   1.545   7.821
15012SOL    HW246869   4.295   1.431   7.754
15013SOL     OW46870   9.280  13.286   8.361
15013SOL    HW146871   9.281  13.194   8.335
15013SOL    HW246872   9.370  13.304   8.389
15014SOL     OW46873   9.303   8.851  12.204
15014SOL    HW146874   9.305   8.757  12.188
15014SOL    HW246875   9.391   8.872  12.236
15015SOL     OW46876   2.953  14.008  11.301
15015SOL    HW146877   3.014  14.022  11.229
15015SOL    HW246878   2.894  13.939  11.269
15016SOL     OW46879   1.216   5.282   2.353
15016SOL    HW146880   1.172   5.281   2.438
15016SOL    HW246881   1.273   5.359   2.357
15017SOL     OW46882   0.775   4.879   8.921
15017SOL    HW146883   0.724   4.908   8.997
15017SOL    HW246884   0.776   4.783   8.929
15018SOL     OW46885   5.661   4.869   9.307
15018SOL    HW146886   5.660   4.838   9.217
15018SOL    HW246887   5.730   4.935   9.309
15019SOL     OW46888   5.168   8.105  11.928
15019SOL    HW146889   5.078   8.131  11.908
15019SOL    HW246890   5.160   8.033  11.990
15020SOL     OW46891  13.425  13.935   6.765
15020SOL    HW146892  13.389  13.862   6.815
15020SOL    HW246893  13.492  13.895   6.709
15021SOL     OW46894  11.279  10.996   8.661
15021SOL    HW146895  11.304  11.019   8.571
15021SOL    HW246896  11.361  10.966   8.701
15022SOL     OW46897   6.148  12.848   7.978
15022SOL    HW146898   6.221  12.888   7.931
15022SOL    HW246899   6.072  12.864   7.922
15023SOL     OW46900   9.343   8.502   7.131
15023SOL    HW146901   9.344   8.517   7.225
15023SOL    HW246902   9.257   8.534   7.102
15024SOL     OW46903   3.749   1.042   3.060
15024SOL    HW146904   3.777   0.951   3.068
15024SOL    HW246905   3.768   1.081   3.145
15025SOL     OW46906   5.863  10.824   0.128
15025SOL    HW146907   5.777  10.783   0.138
15025SOL    HW246908   5.849  10.917   0.146
15026SOL     OW46909   4.768  14.472  12.945
15026SOL    HW146910   4.800  14.436  12.862
15026SOL    HW246911   4.842  14.523  12.978
15027SOL     OW46912   3.391   9.825   4.002
15027SOL    HW146913   3.350   9.752   4.049
15027SOL    HW246914   3.379   9.901   4.058
15028SOL     OW46915   7.570   8.385   9.623
15028SOL    HW146916   7.484   8.401   9.585
15028SOL    HW246917   7.565   8.422   9.712
15029SOL     OW46918   5.860   7.724   6.732
15029SOL    HW146919   5.849   7.710   6.826
15029SOL    HW246920   5.784   7.682   6.692
15030SOL     OW46921  13.765   0.281   6.842
15030SOL    HW146922  13.731   0.370   6.841
15030SOL    HW246923  13.760   0.252   6.751
15031SOL     OW46924   5.758   5.257   0.795
15031SOL    HW146925   5.782   5.178   0.845
15031SOL    HW246926   5.801   5.328   0.843
15032SOL     OW46927   7.782  12.081   7.691
15032SOL    HW146928   7.692  12.086   7.660
15032SOL    HW246929   7.802  12.169   7.722
15033SOL     OW46930   0.836   2.614  12.576
15033SOL    HW146931   0.863   2.705  12.572
15033SOL    HW246932   0.858   2.578  12.490
15034SOL     OW46933   9.664   2.510   5.290
15034SOL    HW146934   9.695   2.439   5.347
15034SOL    HW246935   9.722   2.583   5.310
15035SOL     OW46936  12.204  10.236   6.810
15035SOL    HW146937  12.249  10.303   6.861
15035SOL    HW246938  12.127  10.214   6.862
15036SOL     OW46939  13.760  13.799   0.801
15036SOL    HW146940  13.747  13.854   0.724
15036SOL    HW246941  13.847  13.824   0.834
15037SOL     OW46942   4.654   0.654  13.551
15037SOL    HW146943   4.624   0.600  13.477
15037SOL    HW246944   4.602   0.734  13.544
15038SOL     OW46945   7.663   0.992   0.582
15038SOL    HW146946   7.704   1.024   0.502
15038SOL    HW246947   7.642   0.900   0.563
15039SOL     OW46948   0.169   2.306   9.519
15039SOL    HW146949   0.074   2.310   9.514
15039SOL    HW246950   0.187   2.272   9.607
15040SOL     OW46951   6.765  12.693   4.259
15040SOL    HW146952   6.826  12.688   4.333
15040SOL    HW246953   6.792  12.770   4.210
15041SOL     OW46954  13.660  12.099   4.581
15041SOL    HW146955  13.663  12.122   4.673
15041SOL    HW246956  13.606  12.019   4.578
15042SOL     OW46957   8.604   5.044  12.393
15042SOL    HW146958   8.575   5.037  12.302
15042SOL    HW246959   8.629   4.955  12.417
15043SOL     OW46960   5.065  12.156  13.091
15043SOL    HW146961   5.119  12.094  13.139
15043SOL    HW246962   5.003  12.189  13.156
15044SOL     OW46963   3.593   3.981   6.321
15044SOL    HW146964   3.524   4.031   6.276
15044SOL    HW246965   3.629   4.043   6.385
15045SOL     OW46966   5.361  11.250  12.203
15045SOL    HW146967   5.358  11.155  12.194
15045SOL    HW246968   5.271  11.279  12.186
15046SOL     OW46969   6.083   4.930  13.513
15046SOL    HW146970   6.110   4.983  13.438
15046SOL    HW246971   6.071   4.842  13.478
15047SOL     OW46972   0.379  13.364   9.427
15047SOL    HW146973   0.300  13.418   9.430
15047SOL    HW246974   0.449  13.424   9.403
15048SOL     OW46975   8.293   3.846  10.088
15048SOL    HW146976   8.277   3.919  10.028
15048SOL    HW246977   8.377   3.810  10.060
15049SOL     OW46978  14.720   1.407   3.006
15049SOL    HW146979  14.728   1.312   2.998
15049SOL    HW246980  14.625   1.423   3.007
15050SOL     OW46981   1.788   5.555  11.474
15050SOL    HW146982   1.863   5.504  11.445
15050SOL    HW246983   1.780   5.625  11.409
15051SOL     OW46984   4.962  11.175  14.010
15051SOL    HW146985   5.038  11.220  14.048
15051SOL    HW246986   4.950  11.215  13.924
15052SOL     OW46987   8.343   2.738   2.375
15052SOL    HW146988   8.417   2.793   2.399
15052SOL    HW246989   8.380   2.675   2.313
15053SOL     OW46990  14.789   3.582   4.929
15053SOL    HW146991  14.842   3.563   4.851
15053SOL    HW246992  14.817   3.518   4.994
15054SOL     OW46993  10.005  12.413   4.876
15054SOL    HW146994  10.091  12.440   4.908
15054SOL    HW246995   9.968  12.361   4.948
15055SOL     OW46996  10.096   8.244  13.110
15055SOL    HW146997  10.027   8.297  13.150
15055SOL    HW246998  10.057   8.157  13.100
15056SOL     OW46999   5.873  11.830   8.502
15056SOL    HW147000   5.893  11.858   8.412
15056SOL    HW247001   5.932  11.882   8.556
15057SOL     OW47002   1.871   9.275   9.891
15057SOL    HW147003   1.796   9.238   9.845
15057SOL    HW247004   1.833   9.322   9.965
15058SOL     OW47005  14.779   5.930   9.537
15058SOL    HW147006  14.703   5.898   9.585
15058SOL    HW247007  14.823   5.851   9.506
15059SOL     OW47008   3.932   6.037   0.982
15059SOL    HW147009   3.840   6.017   0.994
15059SOL    HW247010   3.974   5.952   0.972
15060SOL     OW47011   3.446   8.681   3.592
15060SOL    HW147012   3.528   8.727   3.609
15060SOL    HW247013   3.433   8.689   3.497
15061SOL     OW47014  13.237   1.215   0.926
15061SOL    HW147015  13.303   1.198   0.994
15061SOL    HW247016  13.175   1.275   0.968
15062SOL     OW47017  12.181   4.248  14.537
15062SOL    HW147018  12.140   4.250  14.623
15062SOL    HW247019  12.157   4.331  14.496
15063SOL     OW47020   9.204   0.210   7.887
15063SOL    HW147021   9.231   0.194   7.796
15063SOL    HW247022   9.251   0.143   7.937
15064SOL     OW47023  14.876   9.513   3.374
15064SOL    HW147024   0.035   9.553   3.297
15064SOL    HW247025  14.785   9.544   3.372
15065SOL     OW47026  14.402   7.274   2.355
15065SOL    HW147027  14.478   7.320   2.321
15065SOL    HW247028  14.327   7.329   2.331
15066SOL     OW47029   2.758   8.817   7.539
15066SOL    HW147030   2.698   8.778   7.603
15066SOL    HW247031   2.741   8.911   7.545
15067SOL     OW47032   0.723  12.966   1.912
15067SOL    HW147033   0.779  12.965   1.834
15067SOL    HW247034   0.643  12.922   1.884
15068SOL     OW47035   5.637   8.478   0.661
15068SOL    HW147036   5.728   8.461   0.686
15068SOL    HW247037   5.622   8.569   0.685
15069SOL     OW47038   2.784  12.361  10.907
15069SOL    HW147039   2.722  12.378  10.837
15069SOL    HW247040   2.731  12.325  10.979
15070SOL     OW47041   8.221   9.081   7.381
15070SOL    HW147042   8.264   9.148   7.328
15070SOL    HW247043   8.131   9.113   7.392
15071SOL     OW47044  14.854   7.670   8.814
15071SOL    HW147045   0.066   7.650   8.821
15071SOL    HW247046  14.821   7.605   8.751
15072SOL     OW47047   7.412   2.619   3.101
15072SOL    HW147048   7.476   2.646   3.036
15072SOL    HW247049   7.428   2.676   3.176
15073SOL     OW47050   1.112  13.345   9.157
15073SOL    HW147051   1.034  13.290   9.160
15073SOL    HW247052   1.119  13.372   9.066
15074SOL     OW47053  12.559   2.247  11.391
15074SOL    HW147054  12.560   2.214  11.301
15074SOL    HW247055  12.568   2.169  11.446
15075SOL     OW47056   5.513   0.085   7.602
15075SOL    HW147057   5.607   0.102   7.591
15075SOL    HW247058   5.509   0.013   7.665
15076SOL     OW47059   7.418   6.525   8.825
15076SOL    HW147060   7.470   6.524   8.906
15076SOL    HW247061   7.483   6.528   8.755
15077SOL     OW47062  10.022   2.023  13.644
15077SOL    HW147063  10.061   2.107  13.670
15077SOL    HW247064  10.070   1.998  13.564
15078SOL     OW47065  12.232   2.113  14.155
15078SOL    HW147066  12.310   2.143  14.108
15078SOL    HW247067  12.166   2.180  14.137
15079SOL     OW47068   7.251   5.552   2.409
15079SOL    HW147069   7.314   5.595   2.466
15079SOL    HW247070   7.198   5.497   2.467
15080SOL     OW47071   5.965   8.246   6.328
15080SOL    HW147072   5.883   8.235   6.375
15080SOL    HW247073   5.968   8.173   6.266
15081SOL     OW47074  11.126  11.662  11.958
15081SOL    HW147075  11.053  11.635  12.013
15081SOL    HW247076  11.088  11.725  11.896
15082SOL     OW47077   8.322  13.699   3.436
15082SOL    HW147078   8.366  13.778   3.403
15082SOL    HW247079   8.295  13.723   3.525
15083SOL     OW47080   5.425   7.663  13.105
15083SOL    HW147081   5.401   7.730  13.042
15083SOL    HW247082   5.514   7.686  13.132
15084SOL     OW47083  12.640  13.114   7.616
15084SOL    HW147084  12.625  13.199   7.575
15084SOL    HW247085  12.718  13.079   7.572
15085SOL     OW47086   5.117   9.475   9.818
15085SOL    HW147087   5.169   9.512   9.747
15085SOL    HW247088   5.170   9.402   9.851
15086SOL     OW47089   3.167  11.204   9.749
15086SOL    HW147090   3.151  11.241   9.662
15086SOL    HW247091   3.098  11.242   9.804
15087SOL     OW47092   1.319   1.657  13.501
15087SOL    HW147093   1.370   1.639  13.580
15087SOL    HW247094   1.351   1.742  13.471
15088SOL     OW47095   1.894   4.242   0.392
15088SOL    HW147096   1.870   4.276   0.479
15088SOL    HW247097   1.939   4.315   0.350
15089SOL     OW47098   8.025   7.931  13.654
15089SOL    HW147099   8.120   7.931  13.644
15089SOL    HW247100   7.998   7.842  13.631
15090SOL     OW47101  13.199   8.464  13.394
15090SOL    HW147102  13.216   8.461  13.488
15090SOL    HW247103  13.104   8.460  13.386
15091SOL     OW47104   5.708  10.963   0.366
15091SOL    HW147105   5.616  10.981   0.389
15091SOL    HW247106   5.758  11.024   0.420
15092SOL     OW47107   9.790  14.001  10.876
15092SOL    HW147108   9.809  13.989  10.783
15092SOL    HW247109   9.867  13.963  10.920
15093SOL     OW47110   4.540   0.333   9.943
15093SOL    HW147111   4.498   0.388  10.010
15093SOL    HW247112   4.521   0.378   9.861
15094SOL     OW47113  10.608   7.597   3.318
15094SOL    HW147114  10.656   7.623   3.397
15094SOL    HW247115  10.526   7.561   3.350
15095SOL     OW47116  14.473  14.184   8.128
15095SOL    HW147117  14.437  14.096   8.142
15095SOL    HW247118  14.466  14.227   8.213
15096SOL     OW47119   6.341  11.229  10.096
15096SOL    HW147120   6.310  11.151  10.050
15096SOL    HW247121   6.390  11.194  10.171
15097SOL     OW47122  11.898   4.346   4.506
15097SOL    HW147123  11.993   4.353   4.514
15097SOL    HW247124  11.865   4.381   4.589
15098SOL     OW47125  12.698   3.797  11.314
15098SOL    HW147126  12.664   3.883  11.294
15098SOL    HW247127  12.645   3.737  11.262
15099SOL     OW47128   8.091  10.952  12.508
15099SOL    HW147129   8.006  10.910  12.496
15099SOL    HW247130   8.084  11.033  12.457
15100SOL     OW47131   4.883   2.836   2.365
15100SOL    HW147132   4.881   2.793   2.279
15100SOL    HW247133   4.819   2.907   2.358
15101SOL     OW47134   3.370   7.052  12.789
15101SOL    HW147135   3.438   7.060  12.722
15101SOL    HW247136   3.388   7.124  12.850
15102SOL     OW47137  11.148   8.166  14.045
15102SOL    HW147138  11.158   8.109  13.968
15102SOL    HW247139  11.165   8.254  14.013
15103SOL     OW47140   7.372  12.958  12.293
15103SOL    HW147141   7.321  13.036  12.310
15103SOL    HW247142   7.312  12.885  12.310
15104SOL     OW47143  10.071   4.056  11.733
15104SOL    HW147144  10.134   4.124  11.757
15104SOL    HW247145  10.098   4.028  11.646
15105SOL     OW47146   3.870   7.556  11.740
15105SOL    HW147147   3.846   7.582  11.651
15105SOL    HW247148   3.822   7.474  11.754
15106SOL     OW47149  13.093   9.633   1.105
15106SOL    HW147150  13.171   9.589   1.139
15106SOL    HW247151  13.118   9.726   1.102
15107SOL     OW47152  14.647   0.247   6.182
15107SOL    HW147153  14.559   0.268   6.212
15107SOL    HW247154  14.651   0.284   6.094
15108SOL     OW47155  11.494  12.403   7.634
15108SOL    HW147156  11.543  12.406   7.552
15108SOL    HW247157  11.548  12.350   7.692
15109SOL     OW47158   0.183  14.698   3.147
15109SOL    HW147159   0.276  14.704   3.126
15109SOL    HW247160   0.181  14.676   3.241
15110SOL     OW47161  11.655   9.513   1.651
15110SOL    HW147162  11.703   9.575   1.706
15110SOL    HW247163  11.574   9.495   1.699
15111SOL     OW47164   1.292  10.971   6.080
15111SOL    HW147165   1.382  10.950   6.105
15111SOL    HW247166   1.291  11.066   6.072
15112SOL     OW47167   9.964   0.523   8.268
15112SOL    HW147168   9.929   0.459   8.207
15112SOL    HW247169   9.930   0.607   8.237
15113SOL     OW47170   2.717   8.896   9.789
15113SOL    HW147171   2.799   8.908   9.838
15113SOL    HW247172   2.670   8.979   9.802
15114SOL     OW47173  10.991   2.550   5.632
15114SOL    HW147174  10.898   2.542   5.652
15114SOL    HW247175  11.027   2.463   5.647
15115SOL     OW47176  11.515  11.597  10.695
15115SOL    HW147177  11.574  11.611  10.769
15115SOL    HW247178  11.427  11.606  10.733
15116SOL     OW47179   0.002  13.105   3.632
15116SOL    HW147180   0.084  13.156   3.635
15116SOL    HW247181  14.850  13.109   3.721
15117SOL     OW47182   0.521   3.356  12.469
15117SOL    HW147183   0.587   3.411  12.511
15117SOL    HW247184   0.458   3.418  12.433
15118SOL     OW47185   7.832   7.663  10.993
15118SOL    HW147186   7.849   7.621  11.077
15118SOL    HW247187   7.894   7.736  10.989
15119SOL     OW47188  13.146   5.799   6.436
15119SOL    HW147189  13.155   5.716   6.388
15119SOL    HW247190  13.201   5.788   6.513
15120SOL     OW47191   8.869  13.675   1.080
15120SOL    HW147192   8.879  13.714   1.167
15120SOL    HW247193   8.816  13.739   1.031
15121SOL     OW47194   3.069   4.672   9.161
15121SOL    HW147195   3.081   4.590   9.210
15121SOL    HW247196   3.133   4.732   9.200
15122SOL     OW47197  13.319  13.897   8.199
15122SOL    HW147198  13.273  13.888   8.283
15122SOL    HW247199  13.305  13.988   8.174
15123SOL     OW47200   4.328  14.689   1.099
15123SOL    HW147201   4.295  14.761   1.153
15123SOL    HW247202   4.337  14.615   1.159
15124SOL     OW47203  12.892  10.826  14.343
15124SOL    HW147204  12.975  10.781  14.355
15124SOL    HW247205  12.828  10.773  14.391
15125SOL     OW47206   8.061  14.703  13.910
15125SOL    HW147207   8.085  14.756  13.986
15125SOL    HW247208   8.127  14.725  13.843
15126SOL     OW47209   5.857  14.763   8.688
15126SOL    HW147210   5.824  14.754   8.778
15126SOL    HW247211   5.947  14.793   8.699
15127SOL     OW47212   6.034  13.346   6.893
15127SOL    HW147213   5.956  13.290   6.885
15127SOL    HW247214   6.007  13.430   6.856
15128SOL     OW47215  11.565   1.173   9.658
15128SOL    HW147216  11.553   1.251   9.713
15128SOL    HW247217  11.640   1.195   9.602
15129SOL     OW47218   3.005  10.188   9.290
15129SOL    HW147219   3.083  10.133   9.286
15129SOL    HW247220   3.003  10.234   9.206
15130SOL     OW47221   4.736  10.483   5.189
15130SOL    HW147222   4.725  10.577   5.177
15130SOL    HW247223   4.828  10.466   5.167
15131SOL     OW47224   4.926  12.369  14.389
15131SOL    HW147225   4.989  12.360  14.317
15131SOL    HW247226   4.890  12.281  14.400
15132SOL     OW47227   9.298  10.662  11.421
15132SOL    HW147228   9.203  10.662  11.421
15132SOL    HW247229   9.323  10.753  11.439
15133SOL     OW47230  12.947   7.920   2.200
15133SOL    HW147231  12.885   7.978   2.244
15133SOL    HW247232  12.900   7.837   2.188
15134SOL     OW47233   9.986   8.674   0.908
15134SOL    HW147234   9.909   8.721   0.876
15134SOL    HW247235  10.044   8.743   0.941
15135SOL     OW47236  12.945   6.580   1.874
15135SOL    HW147237  12.948   6.661   1.823
15135SOL    HW247238  12.984   6.514   1.816
15136SOL     OW47239   8.476  10.788  10.085
15136SOL    HW147240   8.564  10.750  10.079
15136SOL    HW247241   8.492  10.881  10.104
15137SOL     OW47242   7.420  13.039  10.329
15137SOL    HW147243   7.453  13.003  10.247
15137SOL    HW247244   7.351  12.978  10.356
15138SOL     OW47245  12.962   5.172   4.601
15138SOL    HW147246  13.009   5.089   4.605
15138SOL    HW247247  13.015   5.227   4.543
15139SOL     OW47248  14.712  12.124   6.922
15139SOL    HW147249  14.782  12.178   6.957
15139SOL    HW247250  14.642  12.130   6.987
15140SOL     OW47251  12.567  11.263  12.048
15140SOL    HW147252  12.502  11.238  11.982
15140SOL    HW247253  12.553  11.202  12.120
15141SOL     OW47254   3.513   4.051  14.616
15141SOL    HW147255   3.527   3.957  14.604
15141SOL    HW247256   3.554   4.070  14.700
15142SOL     OW47257  11.576  14.446  12.325
15142SOL    HW147258  11.587  14.469  12.418
15142SOL    HW247259  11.531  14.521  12.287
15143SOL     OW47260   5.452   8.129   6.701
15143SOL    HW147261   5.469   8.080   6.621
15143SOL    HW247262   5.395   8.201   6.674
15144SOL     OW47263  13.982   4.896   6.544
15144SOL    HW147264  14.044   4.845   6.597
15144SOL    HW247265  14.004   4.873   6.453
15145SOL     OW47266   0.058  13.440  11.048
15145SOL    HW147267   0.047  13.436  11.143
15145SOL    HW247268   0.140  13.489  11.036
15146SOL     OW47269   5.696  14.230  12.496
15146SOL    HW147270   5.605  14.213  12.472
15146SOL    HW247271   5.746  14.163  12.451
15147SOL     OW47272  10.316   2.459   9.661
15147SOL    HW147273  10.328   2.383   9.604
15147SOL    HW247274  10.249   2.511   9.617
15148SOL     OW47275   2.514   6.827   9.737
15148SOL    HW147276   2.420   6.832   9.755
15148SOL    HW247277   2.527   6.878   9.658
15149SOL     OW47278  13.993   2.303  13.777
15149SOL    HW147279  14.052   2.306  13.852
15149SOL    HW247280  13.906   2.289  13.816
15150SOL     OW47281   2.630  10.199   9.336
15150SOL    HW147282   2.598  10.260   9.270
15150SOL    HW247283   2.644  10.117   9.288
15151SOL     OW47284  10.796   7.585   4.998
15151SOL    HW147285  10.823   7.589   4.906
15151SOL    HW247286  10.724   7.648   5.004
15152SOL     OW47287   8.269   1.502   1.499
15152SOL    HW147288   8.337   1.542   1.445
15152SOL    HW247289   8.288   1.531   1.588
15153SOL     OW47290   5.772   9.648   1.747
15153SOL    HW147291   5.855   9.630   1.702
15153SOL    HW247292   5.769   9.584   1.818
15154SOL     OW47293  10.736  12.284   3.463
15154SOL    HW147294  10.698  12.371   3.448
15154SOL    HW247295  10.725  12.238   3.380
15155SOL     OW47296   0.642   0.460  14.617
15155SOL    HW147297   0.644   0.377  14.570
15155SOL    HW247298   0.696   0.519  14.564
15156SOL     OW47299  11.067   9.007  13.340
15156SOL    HW147300  11.018   9.074  13.292
15156SOL    HW247301  11.059   8.928  13.286
15157SOL     OW47302   9.166   7.727   9.399
15157SOL    HW147303   9.154   7.819   9.375
15157SOL    HW247304   9.087   7.705   9.449
15158SOL     OW47305   1.980  11.924   8.364
15158SOL    HW147306   2.060  11.975   8.350
15158SOL    HW247307   1.924  11.947   8.290
15159SOL     OW47308   1.997   5.346   4.043
15159SOL    HW147309   1.903   5.333   4.037
15159SOL    HW247310   2.032   5.309   3.962
15160SOL     OW47311   3.802  11.527   5.025
15160SOL    HW147312   3.789  11.543   5.118
15160SOL    HW247313   3.722  11.561   4.984
15161SOL     OW47314   2.802   4.078   2.073
15161SOL    HW147315   2.835   4.103   2.159
15161SOL    HW247316   2.707   4.083   2.081
15162SOL     OW47317  13.600  12.413   8.838
15162SOL    HW147318  13.664  12.367   8.784
15162SOL    HW247319  13.583  12.353   8.911
15163SOL     OW47320   7.441   9.351   0.059
15163SOL    HW147321   7.453   9.290  14.868
15163SOL    HW247322   7.349   9.342   0.083
15164SOL     OW47323   3.847  12.793   7.424
15164SOL    HW147324   3.865  12.714   7.372
15164SOL    HW247325   3.799  12.851   7.364
15165SOL     OW47326   7.554  12.219  12.921
15165SOL    HW147327   7.531  12.186  13.008
15165SOL    HW247328   7.491  12.178  12.862
15166SOL     OW47329   4.688   6.344   9.691
15166SOL    HW147330   4.624   6.340   9.762
15166SOL    HW247331   4.717   6.435   9.689
15167SOL     OW47332  13.122   7.444   7.464
15167SOL    HW147333  13.175   7.524   7.458
15167SOL    HW247334  13.061   7.451   7.391
15168SOL     OW47335  12.378   0.352  11.998
15168SOL    HW147336  12.371   0.434  11.949
15168SOL    HW247337  12.376   0.378  12.090
15169SOL     OW47338   2.422   7.501   9.654
15169SOL    HW147339   2.435   7.439   9.582
15169SOL    HW247340   2.446   7.452   9.733
15170SOL     OW47341   5.563   7.054   7.370
15170SOL    HW147342   5.548   7.123   7.305
15170SOL    HW247343   5.598   6.981   7.319
15171SOL     OW47344   0.852   1.289   7.503
15171SOL    HW147345   0.894   1.290   7.589
15171SOL    HW247346   0.906   1.347   7.449
15172SOL     OW47347   6.979   5.413   2.452
15172SOL    HW147348   6.976   5.318   2.465
15172SOL    HW247349   6.960   5.425   2.359
15173SOL     OW47350   3.503   9.199  10.894
15173SOL    HW147351   3.582   9.234  10.936
15173SOL    HW247352   3.503   9.238  10.807
15174SOL     OW47353   6.138   1.334   5.386
15174SOL    HW147354   6.105   1.424   5.388
15174SOL    HW247355   6.210   1.336   5.323
15175SOL     OW47356   6.565   7.072  10.228
15175SOL    HW147357   6.619   7.003  10.267
15175SOL    HW247358   6.550   7.134  10.300
15176SOL     OW47359   5.218   4.248   6.966
15176SOL    HW147360   5.174   4.292   6.893
15176SOL    HW247361   5.189   4.157   6.960
15177SOL     OW47362   0.237   6.769   9.910
15177SOL    HW147363   0.307   6.801   9.853
15177SOL    HW247364   0.281   6.706   9.968
15178SOL     OW47365   4.526   4.300  11.625
15178SOL    HW147366   4.459   4.279  11.561
15178SOL    HW247367   4.572   4.376  11.589
15179SOL     OW47368   9.973   2.554   2.576
15179SOL    HW147369  10.005   2.640   2.551
15179SOL    HW247370   9.878   2.562   2.579
15180SOL     OW47371   0.964   2.883   1.310
15180SOL    HW147372   0.961   2.884   1.406
15180SOL    HW247373   0.911   2.958   1.284
15181SOL     OW47374   4.528   7.000   4.061
15181SOL    HW147375   4.478   6.937   4.113
15181SOL    HW247376   4.493   7.085   4.084
15182SOL     OW47377   2.938   2.600   9.554
15182SOL    HW147378   3.030   2.624   9.551
15182SOL    HW247379   2.920   2.563   9.468
15183SOL     OW47380  10.037   7.015   0.692
15183SOL    HW147381  10.056   7.048   0.604
15183SOL    HW247382  10.107   6.951   0.709
15184SOL     OW47383   5.309   6.389   1.308
15184SOL    HW147384   5.281   6.480   1.306
15184SOL    HW247385   5.306   6.360   1.217
15185SOL     OW47386   3.358   8.104  13.594
15185SOL    HW147387   3.447   8.072  13.583
15185SOL    HW247388   3.311   8.029  13.632
15186SOL     OW47389  11.900   5.087   2.099
15186SOL    HW147390  11.905   4.996   2.069
15186SOL    HW247391  11.821   5.090   2.152
15187SOL     OW47392   7.326   4.071   7.186
15187SOL    HW147393   7.288   3.997   7.233
15187SOL    HW247394   7.320   4.046   7.094
15188SOL     OW47395   9.307   8.097   2.779
15188SOL    HW147396   9.366   8.023   2.796
15188SOL    HW247397   9.224   8.071   2.820
15189SOL     OW47398  13.574   0.233   5.365
15189SOL    HW147399  13.593   0.318   5.327
15189SOL    HW247400  13.486   0.242   5.402
15190SOL     OW47401  10.258  11.339   4.716
15190SOL    HW147402  10.337  11.374   4.674
15190SOL    HW247403  10.206  11.417   4.736
15191SOL     OW47404  10.535   5.469   8.447
15191SOL    HW147405  10.604   5.525   8.481
15191SOL    HW247406  10.562   5.451   8.356
15192SOL     OW47407   9.134  12.709   4.520
15192SOL    HW147408   9.069  12.738   4.455
15192SOL    HW247409   9.092  12.726   4.604
15193SOL     OW47410   2.970  11.404   6.805
15193SOL    HW147411   2.888  11.365   6.773
15193SOL    HW247412   3.039  11.354   6.761
15194SOL     OW47413  11.458   1.085   3.462
15194SOL    HW147414  11.458   1.055   3.553
15194SOL    HW247415  11.547   1.119   3.449
15195SOL     OW47416  12.605   7.205   0.929
15195SOL    HW147417  12.655   7.149   0.989
15195SOL    HW247418  12.625   7.294   0.956
15196SOL     OW47419  12.508   0.304  10.938
15196SOL    HW147420  12.493   0.395  10.916
15196SOL    HW247421  12.436   0.280  10.996
15197SOL     OW47422   7.467  12.622   8.454
15197SOL    HW147423   7.539  12.575   8.413
15197SOL    HW247424   7.481  12.611   8.548
15198SOL     OW47425  11.485   7.567   0.605
15198SOL    HW147426  11.516   7.495   0.549
15198SOL    HW247427  11.456   7.524   0.686
15199SOL     OW47428   2.927   4.280   5.418
15199SOL    HW147429   2.911   4.355   5.476
15199SOL    HW247430   2.881   4.207   5.460
15200SOL     OW47431  11.033  11.872   5.433
15200SOL    HW147432  11.070  11.960   5.438
15200SOL    HW247433  11.013  11.860   5.340
15201SOL     OW47434   7.747   6.174   0.709
15201SOL    HW147435   7.693   6.113   0.659
15201SOL    HW247436   7.791   6.227   0.643
15202SOL     OW47437   4.210   8.462   2.609
15202SOL    HW147438   4.181   8.371   2.623
15202SOL    HW247439   4.301   8.462   2.637
15203SOL     OW47440  14.574  12.664  10.098
15203SOL    HW147441  14.658  12.643  10.057
15203SOL    HW247442  14.511  12.665  10.026
15204SOL     OW47443  12.383   0.145   5.245
15204SOL    HW147444  12.462   0.120   5.196
15204SOL    HW247445  12.380   0.240   5.239
15205SOL     OW47446   9.244   0.887  10.706
15205SOL    HW147447   9.231   0.937  10.787
15205SOL    HW247448   9.192   0.807  10.719
15206SOL     OW47449   4.542   6.680  13.701
15206SOL    HW147450   4.454   6.643  13.697
15206SOL    HW247451   4.589   6.638  13.630
15207SOL     OW47452   9.929   2.571   5.886
15207SOL    HW147453   9.934   2.475   5.888
15207SOL    HW247454   9.879   2.590   5.807
15208SOL     OW47455   1.991   3.863   5.601
15208SOL    HW147456   1.979   3.889   5.692
15208SOL    HW247457   2.070   3.809   5.601
15209SOL     OW47458  12.702  14.164   8.098
15209SOL    HW147459  12.610  14.168   8.071
15209SOL    HW247460  12.704  14.095   8.164
15210SOL     OW47461  11.024   0.901   2.340
15210SOL    HW147462  11.041   0.938   2.253
15210SOL    HW247463  10.935   0.867   2.335
15211SOL     OW47464   4.506   8.414   8.979
15211SOL    HW147465   4.583   8.420   8.922
15211SOL    HW247466   4.437   8.458   8.931
15212SOL     OW47467   0.890   2.010   8.584
15212SOL    HW147468   0.805   2.050   8.601
15212SOL    HW247469   0.886   1.986   8.492
15213SOL     OW47470   7.128  13.091  11.433
15213SOL    HW147471   7.121  12.996  11.430
15213SOL    HW247472   7.050  13.122  11.387
15214SOL     OW47473  11.448   0.999  12.785
15214SOL    HW147474  11.513   0.980  12.853
15214SOL    HW247475  11.497   1.044  12.716
15215SOL     OW47476  14.539   3.215   9.943
15215SOL    HW147477  14.616   3.250   9.897
15215SOL    HW247478  14.517   3.135   9.895
15216SOL     OW47479   3.892   1.128   9.676
15216SOL    HW147480   3.841   1.080   9.741
15216SOL    HW247481   3.944   1.190   9.727
15217SOL     OW47482  10.479   0.063  13.325
15217SOL    HW147483  10.527   0.139  13.355
15217SOL    HW247484  10.526   0.034  13.246
15218SOL     OW47485   7.231   2.998   0.725
15218SOL    HW147486   7.137   3.014   0.732
15218SOL    HW247487   7.256   3.037   0.641
15219SOL     OW47488   2.527  14.140  10.934
15219SOL    HW147489   2.517  14.173  10.844
15219SOL    HW247490   2.621  14.122  10.942
15220SOL     OW47491  13.685   1.190  11.431
15220SOL    HW147492  13.660   1.159  11.344
15220SOL    HW247493  13.654   1.122  11.491
15221SOL     OW47494  13.961   5.292  10.453
15221SOL    HW147495  13.890   5.268  10.394
15221SOL    HW247496  13.918   5.308  10.537
15222SOL     OW47497  11.102  14.852  10.344
15222SOL    HW147498  11.113  14.854  10.439
15222SOL    HW247499  11.018   0.014  10.329
15223SOL     OW47500   7.549   8.520   8.905
15223SOL    HW147501   7.561   8.473   8.822
15223SOL    HW247502   7.636   8.519   8.946
15224SOL     OW47503   0.509   9.855  12.084
15224SOL    HW147504   0.555   9.920  12.137
15224SOL    HW247505   0.443   9.906  12.037
15225SOL     OW47506   5.649  12.858   0.034
15225SOL    HW147507   5.569  12.886   0.078
15225SOL    HW247508   5.686  12.791   0.091
15226SOL     OW47509  10.849   9.893   8.756
15226SOL    HW147510  10.824   9.874   8.666
15226SOL    HW247511  10.907   9.969   8.750
15227SOL     OW47512  11.013  11.368   0.797
15227SOL    HW147513  10.994  11.346   0.706
15227SOL    HW247514  11.052  11.288   0.833
15228SOL     OW47515  10.238   9.729   1.696
15228SOL    HW147516  10.253   9.815   1.735
15228SOL    HW247517  10.321   9.704   1.656
15229SOL     OW47518  12.470  13.939   4.147
15229SOL    HW147519  12.427  13.854   4.142
15229SOL    HW247520  12.424  13.985   4.217
15230SOL     OW47521   6.004  11.214   3.297
15230SOL    HW147522   5.984  11.187   3.387
15230SOL    HW247523   6.005  11.132   3.247
15231SOL     OW47524   5.896   6.088  14.398
15231SOL    HW147525   5.806   6.066  14.376
15231SOL    HW247526   5.894   6.180  14.423
15232SOL     OW47527   0.557   1.043  10.951
15232SOL    HW147528   0.497   1.080  11.016
15232SOL    HW247529   0.603   1.119  10.915
15233SOL     OW47530   5.237  11.506   0.246
15233SOL    HW147531   5.204  11.416   0.257
15233SOL    HW247532   5.187  11.558   0.308
15234SOL     OW47533   6.622   7.311   9.489
15234SOL    HW147534   6.560   7.371   9.448
15234SOL    HW247535   6.654   7.256   9.417
15235SOL     OW47536   1.213   0.215   6.971
15235SOL    HW147537   1.237   0.128   7.002
15235SOL    HW247538   1.251   0.220   6.883
15236SOL     OW47539   6.764   8.170   0.551
15236SOL    HW147540   6.792   8.159   0.460
15236SOL    HW247541   6.679   8.125   0.555
15237SOL     OW47542  14.840   3.504   6.063
15237SOL    HW147543   0.008   3.429   6.032
15237SOL    HW247544   0.013   3.544   6.131
15238SOL     OW47545  11.863   8.881  14.137
15238SOL    HW147546  11.841   8.794  14.169
15238SOL    HW247547  11.800   8.939  14.180
15239SOL     OW47548   5.638   6.031   9.041
15239SOL    HW147549   5.561   6.006   9.091
15239SOL    HW247550   5.629   6.126   9.030
15240SOL     OW47551  13.742   2.810  14.391
15240SOL    HW147552  13.802   2.742  14.423
15240SOL    HW247553  13.661   2.796  14.441
15241SOL     OW47554  12.568  12.573   9.622
15241SOL    HW147555  12.539  12.489   9.659
15241SOL    HW247556  12.608  12.550   9.538
15242SOL     OW47557  11.382  10.894  10.927
15242SOL    HW147558  11.313  10.855  10.874
15242SOL    HW247559  11.449  10.920  10.864
15243SOL     OW47560  13.923  11.176  13.885
15243SOL    HW147561  13.961  11.089  13.876
15243SOL    HW247562  13.903  11.203  13.796
15244SOL     OW47563  13.680   2.273  13.818
15244SOL    HW147564  13.664   2.265  13.724
15244SOL    HW247565  13.653   2.363  13.839
15245SOL     OW47566   5.148   7.912   4.299
15245SOL    HW147567   5.112   7.846   4.240
15245SOL    HW247568   5.233   7.878   4.325
15246SOL     OW47569   9.908   4.851   6.016
15246SOL    HW147570   9.856   4.771   6.018
15246SOL    HW247571   9.863   4.911   6.075
15247SOL     OW47572   1.608  13.013  13.002
15247SOL    HW147573   1.527  13.038  12.959
15247SOL    HW247574   1.674  13.073  12.967
15248SOL     OW47575   0.644  14.528  13.258
15248SOL    HW147576   0.614  14.447  13.298
15248SOL    HW247577   0.677  14.502  13.172
15249SOL     OW47578   6.509  11.533  10.626
15249SOL    HW147579   6.528  11.439  10.634
15249SOL    HW247580   6.551  11.559  10.545
15250SOL     OW47581   6.527   6.316   3.922
15250SOL    HW147582   6.520   6.402   3.881
15250SOL    HW247583   6.620   6.303   3.936
15251SOL     OW47584   9.884   2.138   4.899
15251SOL    HW147585   9.863   2.058   4.946
15251SOL    HW247586   9.815   2.200   4.925
15252SOL     OW47587   0.914   1.066   4.004
15252SOL    HW147588   0.872   1.143   3.966
15252SOL    HW247589   0.960   1.024   3.931
15253SOL     OW47590  11.859  10.906  13.756
15253SOL    HW147591  11.921  10.912  13.828
15253SOL    HW247592  11.901  10.848  13.693
15254SOL     OW47593  11.906   3.463  14.394
15254SOL    HW147594  11.965   3.467  14.319
15254SOL    HW247595  11.911   3.551  14.432
15255SOL     OW47596   1.205   1.614   4.093
15255SOL    HW147597   1.218   1.701   4.130
15255SOL    HW247598   1.255   1.615   4.011
15256SOL     OW47599  14.393  14.619  11.503
15256SOL    HW147600  14.329  14.558  11.464
15256SOL    HW247601  14.478  14.579  11.485
15257SOL     OW47602   9.853   2.265   6.203
15257SOL    HW147603   9.792   2.301   6.267
15257SOL    HW247604   9.798   2.216   6.142
15258SOL     OW47605   8.944   1.149   4.752
15258SOL    HW147606   8.950   1.079   4.817
15258SOL    HW247607   8.863   1.131   4.704
15259SOL     OW47608   1.427   3.125   8.450
15259SOL    HW147609   1.504   3.109   8.394
15259SOL    HW247610   1.453   3.199   8.505
15260SOL     OW47611   9.781   5.315   4.652
15260SOL    HW147612   9.748   5.283   4.568
15260SOL    HW247613   9.832   5.241   4.687
15261SOL     OW47614   9.223   6.377   4.012
15261SOL    HW147615   9.174   6.457   3.995
15261SOL    HW247616   9.296   6.380   3.950
15262SOL     OW47617  12.236   6.850   3.206
15262SOL    HW147618  12.288   6.790   3.154
15262SOL    HW247619  12.294   6.877   3.277
15263SOL     OW47620  13.786  11.399  10.506
15263SOL    HW147621  13.735  11.466  10.552
15263SOL    HW247622  13.805  11.439  10.421
15264SOL     OW47623  11.324   2.175   4.444
15264SOL    HW147624  11.323   2.079   4.451
15264SOL    HW247625  11.361   2.192   4.358
15265SOL     OW47626  13.667   1.057  12.864
15265SOL    HW147627  13.678   1.098  12.778
15265SOL    HW247628  13.696   1.123  12.927
15266SOL     OW47629   4.800   9.644   5.934
15266SOL    HW147630   4.727   9.666   5.993
15266SOL    HW247631   4.758   9.602   5.859
15267SOL     OW47632   7.621   4.298  10.972
15267SOL    HW147633   7.588   4.250  11.047
15267SOL    HW247634   7.716   4.283  10.974
15268SOL     OW47635   1.473  11.187   1.451
15268SOL    HW147636   1.394  11.133   1.452
15268SOL    HW247637   1.491  11.201   1.358
15269SOL     OW47638   0.782   4.560   8.612
15269SOL    HW147639   0.867   4.555   8.657
15269SOL    HW247640   0.744   4.473   8.623
15270SOL     OW47641   6.702   0.896  12.455
15270SOL    HW147642   6.693   0.881  12.549
15270SOL    HW247643   6.638   0.965  12.436
15271SOL     OW47644   5.564   1.349  11.846
15271SOL    HW147645   5.614   1.330  11.767
15271SOL    HW247646   5.475   1.323  11.825
15272SOL     OW47647  14.467   9.766   1.528
15272SOL    HW147648  14.448   9.678   1.560
15272SOL    HW247649  14.499   9.753   1.439
15273SOL     OW47650   9.081   8.622   4.361
15273SOL    HW147651   9.156   8.678   4.380
15273SOL    HW247652   9.022   8.633   4.435
15274SOL     OW47653   7.182   1.595   0.679
15274SOL    HW147654   7.143   1.666   0.730
15274SOL    HW247655   7.253   1.636   0.631
15275SOL     OW47656   2.682   5.891   3.200
15275SOL    HW147657   2.778   5.889   3.192
15275SOL    HW247658   2.650   5.870   3.113
15276SOL     OW47659   1.389   0.517  11.481
15276SOL    HW147660   1.386   0.436  11.430
15276SOL    HW247661   1.471   0.559  11.454
15277SOL     OW47662  10.704   9.936   6.259
15277SOL    HW147663  10.750   9.858   6.228
15277SOL    HW247664  10.621   9.902   6.292
15278SOL     OW47665   1.102   4.044   3.223
15278SOL    HW147666   1.012   4.059   3.253
15278SOL    HW247667   1.093   3.986   3.147
15279SOL     OW47668   9.650   3.169   7.190
15279SOL    HW147669   9.652   3.244   7.249
15279SOL    HW247670   9.590   3.107   7.233
15280SOL     OW47671   1.393   6.285   2.637
15280SOL    HW147672   1.336   6.269   2.562
15280SOL    HW247673   1.465   6.337   2.602
15281SOL     OW47674  12.338   6.668  12.509
15281SOL    HW147675  12.290   6.740  12.550
15281SOL    HW247676  12.426   6.673  12.546
15282SOL     OW47677   3.642   8.262   0.716
15282SOL    HW147678   3.712   8.238   0.777
15282SOL    HW247679   3.587   8.322   0.766
15283SOL     OW47680   3.233   3.465   8.544
15283SOL    HW147681   3.148   3.509   8.548
15283SOL    HW247682   3.223   3.400   8.474
15284SOL     OW47683   9.190   9.665   7.710
15284SOL    HW147684   9.257   9.732   7.727
15284SOL    HW247685   9.128   9.675   7.782
15285SOL     OW47686   1.340   4.861   0.691
15285SOL    HW147687   1.366   4.821   0.608
15285SOL    HW247688   1.396   4.938   0.699
15286SOL     OW47689  10.847  12.122  12.039
15286SOL    HW147690  10.827  12.159  12.125
15286SOL    HW247691  10.943  12.124  12.034
15287SOL     OW47692   8.017   1.337   9.457
15287SOL    HW147693   8.012   1.381   9.372
15287SOL    HW247694   8.065   1.256   9.440
15288SOL     OW47695   4.912   7.894  12.320
15288SOL    HW147696   4.841   7.884  12.383
15288SOL    HW247697   4.971   7.820  12.338
15289SOL     OW47698   1.966   7.889  13.994
15289SOL    HW147699   1.934   7.801  14.016
15289SOL    HW247700   2.033   7.907  14.059
15290SOL     OW47701  11.549  10.956  10.732
15290SOL    HW147702  11.477  10.988  10.678
15290SOL    HW247703  11.626  11.003  10.700
15291SOL     OW47704   8.823   0.978   7.756
15291SOL    HW147705   8.783   0.947   7.837
15291SOL    HW247706   8.769   0.938   7.687
15292SOL     OW47707   4.141  14.540   3.835
15292SOL    HW147708   4.068  14.512   3.892
15292SOL    HW247709   4.214  14.555   3.895
15293SOL     OW47710   5.882  12.118   7.349
15293SOL    HW147711   5.974  12.143   7.359
15293SOL    HW247712   5.884  12.040   7.294
15294SOL     OW47713  12.141  11.953  12.089
15294SOL    HW147714  12.228  11.984  12.063
15294SOL    HW247715  12.081  12.000  12.031
15295SOL     OW47716   9.746   9.698   4.406
15295SOL    HW147717   9.720   9.689   4.498
15295SOL    HW247718   9.676   9.748   4.366
15296SOL     OW47719   4.298  10.313  14.057
15296SOL    HW147720   4.371  10.318  14.119
15296SOL    HW247721   4.220  10.305  14.112
15297SOL     OW47722   6.620   1.082   5.579
15297SOL    HW147723   6.605   1.091   5.673
15297SOL    HW247724   6.534   1.062   5.543
15298SOL     OW47725   0.560   4.456   9.063
15298SOL    HW147726   0.498   4.469   9.135
15298SOL    HW247727   0.511   4.478   8.984
15299SOL     OW47728  12.576   7.033   1.951
15299SOL    HW147729  12.486   7.008   1.931
15299SOL    HW247730  12.571   7.124   1.979
15300SOL     OW47731   8.415   4.754  12.780
15300SOL    HW147732   8.459   4.718  12.703
15300SOL    HW247733   8.337   4.699  12.790
15301SOL     OW47734   5.272   0.315  10.190
15301SOL    HW147735   5.228   0.380  10.246
15301SOL    HW247736   5.364   0.342  10.191
15302SOL     OW47737  10.120   3.289  10.259
15302SOL    HW147738  10.179   3.266  10.331
15302SOL    HW247739  10.173   3.276  10.180
15303SOL     OW47740   8.896  14.826   3.055
15303SOL    HW147741   8.969  14.792   3.107
15303SOL    HW247742   8.899   0.039   3.068
15304SOL     OW47743   3.025   2.795   5.000
15304SOL    HW147744   3.010   2.884   5.031
15304SOL    HW247745   3.106   2.801   4.949
15305SOL     OW47746   2.741   1.461   9.308
15305SOL    HW147747   2.795   1.396   9.354
15305SOL    HW247748   2.746   1.434   9.216
15306SOL     OW47749   5.513   1.593   4.169
15306SOL    HW147750   5.577   1.568   4.236
15306SOL    HW247751   5.551   1.561   4.087
15307SOL     OW47752   9.350   0.506   2.885
15307SOL    HW147753   9.310   0.520   2.971
15307SOL    HW247754   9.433   0.552   2.889
15308SOL     OW47755   2.743  10.898   2.757
15308SOL    HW147756   2.725  10.821   2.703
15308SOL    HW247757   2.753  10.863   2.846
15309SOL     OW47758   4.821   7.445  11.989
15309SOL    HW147759   4.734   7.450  12.030
15309SOL    HW247760   4.811   7.380  11.919
15310SOL     OW47761   3.380   6.558   2.868
15310SOL    HW147762   3.284   6.560   2.876
15310SOL    HW247763   3.411   6.586   2.954
15311SOL     OW47764   8.868  10.099  11.106
15311SOL    HW147765   8.904  10.129  11.023
15311SOL    HW247766   8.792  10.156  11.121
15312SOL     OW47767  10.432   0.371   2.100
15312SOL    HW147768  10.401   0.453   2.139
15312SOL    HW247769  10.436   0.310   2.174
15313SOL     OW47770   4.221   6.764   2.213
15313SOL    HW147771   4.224   6.757   2.308
15313SOL    HW247772   4.133   6.797   2.194
15314SOL     OW47773  12.560  10.452   2.616
15314SOL    HW147774  12.617  10.514   2.571
15314SOL    HW247775  12.479  10.452   2.565
15315SOL     OW47776   1.216   7.999   4.260
15315SOL    HW147777   1.159   8.076   4.271
15315SOL    HW247778   1.301   8.029   4.292
15316SOL     OW47779   3.221   6.103   0.122
15316SOL    HW147780   3.312   6.084   0.144
15316SOL    HW247781   3.191   6.027   0.074
15317SOL     OW47782  14.866   8.461   7.437
15317SOL    HW147783  14.806   8.488   7.367
15317SOL    HW247784  14.827   8.382   7.474
15318SOL     OW47785  11.223   8.027  13.795
15318SOL    HW147786  11.254   7.937  13.783
15318SOL    HW247787  11.175   8.046  13.715
15319SOL     OW47788   8.411   1.634  13.944
15319SOL    HW147789   8.388   1.686  14.021
15319SOL    HW247790   8.350   1.662  13.876
15320SOL     OW47791   3.990   5.137   3.059
15320SOL    HW147792   4.006   5.107   3.149
15320SOL    HW247793   3.927   5.209   3.069
15321SOL     OW47794   4.612   2.626   5.728
15321SOL    HW147795   4.655   2.562   5.786
15321SOL    HW247796   4.541   2.662   5.780
15322SOL     OW47797   5.467  12.840  11.872
15322SOL    HW147798   5.517  12.799  11.801
15322SOL    HW247799   5.509  12.808  11.952
15323SOL     OW47800   9.898   5.157   5.964
15323SOL    HW147801   9.959   5.181   6.034
15323SOL    HW247802   9.948   5.173   5.883
15324SOL     OW47803   3.234   3.064   0.604
15324SOL    HW147804   3.151   3.025   0.575
15324SOL    HW247805   3.298   3.033   0.539
15325SOL     OW47806   4.666   5.859   2.406
15325SOL    HW147807   4.715   5.913   2.468
15325SOL    HW247808   4.641   5.781   2.456
15326SOL     OW47809   0.371   7.216  10.208
15326SOL    HW147810   0.450   7.162  10.216
15326SOL    HW247811   0.361   7.229  10.113
15327SOL     OW47812   7.150   3.776   1.637
15327SOL    HW147813   7.206   3.811   1.706
15327SOL    HW247814   7.188   3.690   1.618
15328SOL     OW47815  12.913  11.248   4.409
15328SOL    HW147816  12.937  11.210   4.493
15328SOL    HW247817  12.912  11.175   4.348
15329SOL     OW47818  12.968   2.037   7.346
15329SOL    HW147819  12.918   2.110   7.309
15329SOL    HW247820  12.938   1.961   7.297
15330SOL     OW47821   2.732   3.856  10.584
15330SOL    HW147822   2.710   3.830  10.674
15330SOL    HW247823   2.734   3.952  10.588
15331SOL     OW47824   5.718  13.290   4.038
15331SOL    HW147825   5.629  13.308   4.006
15331SOL    HW247826   5.716  13.197   4.062
15332SOL     OW47827   9.850  12.871   7.789
15332SOL    HW147828   9.830  12.956   7.750
15332SOL    HW247829   9.796  12.809   7.741
15333SOL     OW47830  13.380  11.222   3.421
15333SOL    HW147831  13.300  11.211   3.473
15333SOL    HW247832  13.359  11.293   3.361
15334SOL     OW47833   9.448   7.549   1.120
15334SOL    HW147834   9.501   7.625   1.096
15334SOL    HW247835   9.380   7.544   1.053
15335SOL     OW47836   5.433   3.154   3.051
15335SOL    HW147837   5.400   3.178   2.964
15335SOL    HW247838   5.373   3.196   3.112
15336SOL     OW47839  14.650  13.038   4.831
15336SOL    HW147840  14.590  12.993   4.891
15336SOL    HW247841  14.622  13.129   4.832
15337SOL     OW47842   8.234   6.890   9.001
15337SOL    HW147843   8.275   6.821   9.053
15337SOL    HW247844   8.150   6.853   8.974
15338SOL     OW47845   8.026   3.761  10.382
15338SOL    HW147846   7.949   3.815  10.363
15338SOL    HW247847   8.096   3.824  10.397
15339SOL     OW47848   5.730   3.369  11.559
15339SOL    HW147849   5.777   3.378  11.642
15339SOL    HW247850   5.746   3.279  11.531
15340SOL     OW47851   8.510   3.779   7.108
15340SOL    HW147852   8.562   3.773   7.188
15340SOL    HW247853   8.444   3.845   7.128
15341SOL     OW47854   5.707  13.775  13.715
15341SOL    HW147855   5.623  13.787  13.671
15341SOL    HW247856   5.772  13.779  13.644
15342SOL     OW47857  11.419  12.298  14.037
15342SOL    HW147858  11.402  12.367  14.100
15342SOL    HW247859  11.493  12.330  13.985
15343SOL     OW47860  11.868   0.023   2.253
15343SOL    HW147861  11.835   0.060   2.170
15343SOL    HW247862  11.854   0.092   2.317
15344SOL     OW47863   1.587   9.878   6.504
15344SOL    HW147864   1.542   9.921   6.577
15344SOL    HW247865   1.663   9.933   6.486
15345SOL     OW47866   0.549   6.184   3.068
15345SOL    HW147867   0.625   6.139   3.032
15345SOL    HW247868   0.561   6.276   3.042
15346SOL     OW47869   2.242   5.449   6.810
15346SOL    HW147870   2.220   5.539   6.834
15346SOL    HW247871   2.225   5.398   6.889
15347SOL     OW47872  14.606   2.309  14.843
15347SOL    HW147873  14.696   2.305  14.811
15347SOL    HW247874  14.553   2.284  14.767
15348SOL     OW47875  10.399   6.273   1.629
15348SOL    HW147876  10.415   6.349   1.573
15348SOL    HW247877  10.337   6.304   1.695
15349SOL     OW47878   0.855   7.477   3.405
15349SOL    HW147879   0.887   7.521   3.326
15349SOL    HW247880   0.919   7.499   3.473
15350SOL     OW47881  12.947   2.707   1.398
15350SOL    HW147882  12.876   2.754   1.442
15350SOL    HW247883  12.913   2.618   1.386
15351SOL     OW47884  11.889   6.899   4.292
15351SOL    HW147885  11.876   6.946   4.375
15351SOL    HW247886  11.846   6.954   4.227
15352SOL     OW47887   6.044   5.441  12.730
15352SOL    HW147888   5.972   5.481  12.681
15352SOL    HW247889   6.097   5.515  12.759
15353SOL     OW47890   2.691   4.136   7.476
15353SOL    HW147891   2.756   4.145   7.546
15353SOL    HW247892   2.742   4.130   7.396
15354SOL     OW47893   1.967   6.459  11.238
15354SOL    HW147894   1.918   6.468  11.156
15354SOL    HW247895   1.912   6.503  11.303
15355SOL     OW47896  11.215   7.560   7.907
15355SOL    HW147897  11.185   7.578   7.996
15355SOL    HW247898  11.283   7.494   7.917
15356SOL     OW47899   3.460   8.939  10.957
15356SOL    HW147900   3.480   9.030  10.936
15356SOL    HW247901   3.530   8.889  10.915
15357SOL     OW47902   8.584  13.601  11.403
15357SOL    HW147903   8.632  13.644  11.332
15357SOL    HW247904   8.492  13.619  11.384
15358SOL     OW47905  11.150   2.925   3.825
15358SOL    HW147906  11.163   2.869   3.749
15358SOL    HW247907  11.057   2.949   3.822
15359SOL     OW47908   9.955   8.843   8.179
15359SOL    HW147909  10.018   8.848   8.251
15359SOL    HW247910  10.005   8.870   8.102
15360SOL     OW47911  11.040   9.249   2.988
15360SOL    HW147912  11.051   9.176   3.049
15360SOL    HW247913  11.053   9.327   3.042
15361SOL     OW47914  10.804   8.780   3.207
15361SOL    HW147915  10.766   8.846   3.265
15361SOL    HW247916  10.898   8.784   3.226
15362SOL     OW47917  13.279   8.834   3.915
15362SOL    HW147918  13.342   8.845   3.987
15362SOL    HW247919  13.195   8.860   3.952
15363SOL     OW47920   1.051   3.692   6.591
15363SOL    HW147921   1.116   3.626   6.566
15363SOL    HW247922   1.038   3.744   6.512
15364SOL     OW47923  11.164   6.102   4.733
15364SOL    HW147924  11.129   6.180   4.689
15364SOL    HW247925  11.237   6.074   4.678
15365SOL     OW47926  12.972   9.571   2.424
15365SOL    HW147927  13.033   9.555   2.495
15365SOL    HW247928  12.969   9.667   2.416
15366SOL     OW47929   7.970  13.321  13.465
15366SOL    HW147930   7.902  13.326  13.398
15366SOL    HW247931   7.946  13.244  13.518
15367SOL     OW47932  14.805   3.042  11.420
15367SOL    HW147933  14.870   2.974  11.406
15367SOL    HW247934  14.845   3.122  11.385
15368SOL     OW47935  12.619   9.862   9.944
15368SOL    HW147936  12.606   9.865   9.849
15368SOL    HW247937  12.532   9.845   9.979
15369SOL     OW47938   2.474  14.814  11.662
15369SOL    HW147939   2.391  14.845  11.624
15369SOL    HW247940   2.447  14.750  11.729
15370SOL     OW47941  10.878  11.653   2.480
15370SOL    HW147942  10.839  11.569   2.504
15370SOL    HW247943  10.913  11.640   2.392
15371SOL     OW47944   6.762   6.257   1.837
15371SOL    HW147945   6.806   6.342   1.836
15371SOL    HW247946   6.809   6.206   1.903
15372SOL     OW47947   6.267   5.744   9.874
15372SOL    HW147948   6.330   5.801   9.918
15372SOL    HW247949   6.211   5.804   9.825
15373SOL     OW47950   9.066  10.440  14.186
15373SOL    HW147951   9.002  10.509  14.203
15373SOL    HW247952   9.015  10.368  14.149
15374SOL     OW47953   0.266  11.051   9.088
15374SOL    HW147954   0.360  11.032   9.089
15374SOL    HW247955   0.251  11.097   9.005
15375SOL     OW47956  10.819   6.179   9.255
15375SOL    HW147957  10.893   6.132   9.218
15375SOL    HW247958  10.833   6.176   9.349
15376SOL     OW47959   6.736  14.839  11.336
15376SOL    HW147960   6.665   0.019  11.322
15376SOL    HW247961   6.704  14.781  11.405
15377SOL     OW47962   3.047   9.996  11.615
15377SOL    HW147963   2.991  10.074  11.616
15377SOL    HW247964   3.109  10.012  11.545
15378SOL     OW47965   0.004   8.537   0.330
15378SOL    HW147966  14.877   8.632   0.325
15378SOL    HW247967  14.859   8.506   0.244
15379SOL     OW47968  10.382  10.069  10.131
15379SOL    HW147969  10.288  10.067  10.115
15379SOL    HW247970  10.390  10.084  10.225
15380SOL     OW47971  11.919   4.141   0.364
15380SOL    HW147972  11.993   4.164   0.309
15380SOL    HW247973  11.845   4.132   0.303
15381SOL     OW47974   4.364   8.186   0.759
15381SOL    HW147975   4.363   8.102   0.804
15381SOL    HW247976   4.390   8.166   0.669
15382SOL     OW47977   2.784  11.088   6.569
15382SOL    HW147978   2.875  11.060   6.554
15382SOL    HW247979   2.747  11.093   6.481
15383SOL     OW47980   8.660   6.145  14.155
15383SOL    HW147981   8.740   6.121  14.108
15383SOL    HW247982   8.690   6.200  14.227
15384SOL     OW47983   2.007  10.679   8.266
15384SOL    HW147984   2.099  10.653   8.257
15384SOL    HW247985   1.986  10.661   8.357
15385SOL     OW47986   4.998   3.728   1.695
15385SOL    HW147987   5.006   3.762   1.785
15385SOL    HW247988   5.084   3.692   1.675
15386SOL     OW47989   1.071   1.641   7.235
15386SOL    HW147990   1.157   1.627   7.195
15386SOL    HW247991   1.020   1.686   7.167
15387SOL     OW47992   4.139   0.795   2.043
15387SOL    HW147993   4.176   0.787   2.131
15387SOL    HW247994   4.215   0.793   1.985
15388SOL     OW47995   2.208  11.869   3.024
15388SOL    HW147996   2.131  11.904   3.068
15388SOL    HW247997   2.230  11.935   2.958
15389SOL     OW47998   7.368  13.559   4.364
15389SOL    HW147999   7.369  13.583   4.457
15389SOL    HW248000   7.330  13.635   4.321
15390SOL     OW48001   7.347   2.517   2.733
15390SOL    HW148002   7.427   2.482   2.772
15390SOL    HW248003   7.376   2.559   2.652
15391SOL     OW48004   8.279  10.968  13.008
15391SOL    HW148005   8.271  10.955  12.913
15391SOL    HW248006   8.273  10.880  13.045
15392SOL     OW48007  10.802   0.761   8.925
15392SOL    HW148008  10.754   0.743   8.844
15392SOL    HW248009  10.856   0.682   8.938
15393SOL     OW48010   5.552   0.053  12.894
15393SOL    HW148011   5.602   0.057  12.976
15393SOL    HW248012   5.540   0.145  12.869
15394SOL     OW48013  12.768   0.707  10.175
15394SOL    HW148014  12.732   0.794  10.156
15394SOL    HW248015  12.863   0.719  10.168
15395SOL     OW48016  14.501   7.999  14.653
15395SOL    HW148017  14.425   7.975  14.707
15395SOL    HW248018  14.469   8.072  14.599
15396SOL     OW48019  10.954   9.731   6.698
15396SOL    HW148020  10.875   9.741   6.644
15396SOL    HW248021  11.019   9.786   6.655
15397SOL     OW48022  10.792   5.727   2.600
15397SOL    HW148023  10.818   5.819   2.611
15397SOL    HW248024  10.872   5.678   2.614
15398SOL     OW48025  10.205  10.547   0.575
15398SOL    HW148026  10.210  10.499   0.492
15398SOL    HW248027  10.162  10.630   0.552
15399SOL     OW48028   9.981  12.944   8.454
15399SOL    HW148029  10.029  12.903   8.526
15399SOL    HW248030  10.016  13.033   8.450
15400SOL     OW48031  10.156   3.671  11.078
15400SOL    HW148032  10.084   3.637  11.130
15400SOL    HW248033  10.114   3.714  11.004
15401SOL     OW48034   7.467   3.777   2.571
15401SOL    HW148035   7.445   3.684   2.563
15401SOL    HW248036   7.548   3.787   2.520
15402SOL     OW48037  10.953   3.333  10.908
15402SOL    HW148038  10.895   3.339  10.984
15402SOL    HW248039  10.895   3.340  10.832
15403SOL     OW48040   0.849   9.870   4.864
15403SOL    HW148041   0.852   9.818   4.945
15403SOL    HW248042   0.756   9.874   4.841
15404SOL     OW48043   0.500  10.502  14.055
15404SOL    HW148044   0.510  10.512  14.149
15404SOL    HW248045   0.416  10.457  14.044
15405SOL     OW48046  11.931  10.421  11.321
15405SOL    HW148047  11.933  10.509  11.359
15405SOL    HW248048  11.873  10.429  11.245
15406SOL     OW48049   4.494   6.329   6.760
15406SOL    HW148050   4.503   6.418   6.795
15406SOL    HW248051   4.474   6.275   6.837
15407SOL     OW48052   7.067   9.217  14.670
15407SOL    HW148053   7.140   9.263  14.628
15407SOL    HW248054   6.992   9.275  14.657
15408SOL     OW48055   9.152   0.399   9.683
15408SOL    HW148056   9.096   0.420   9.609
15408SOL    HW248057   9.161   0.303   9.680
15409SOL     OW48058   3.780   9.539  12.676
15409SOL    HW148059   3.693   9.504  12.663
15409SOL    HW248060   3.796   9.529  12.770
15410SOL     OW48061   8.633  10.903   4.581
15410SOL    HW148062   8.663  10.952   4.504
15410SOL    HW248063   8.674  10.947   4.655
15411SOL     OW48064  12.971   5.786  11.815
15411SOL    HW148065  13.049   5.803  11.867
15411SOL    HW248066  12.993   5.816  11.727
15412SOL     OW48067   4.486   3.507  12.682
15412SOL    HW148068   4.461   3.452  12.607
15412SOL    HW248069   4.568   3.469  12.713
15413SOL     OW48070  13.132  10.216   1.888
15413SOL    HW148071  13.107  10.285   1.951
15413SOL    HW248072  13.053  10.199   1.838
15414SOL     OW48073   4.855   3.574   2.003
15414SOL    HW148074   4.771   3.531   2.011
15414SOL    HW248075   4.838   3.665   2.027
15415SOL     OW48076  12.988   5.538  12.672
15415SOL    HW148077  12.956   5.567  12.587
15415SOL    HW248078  12.937   5.589  12.735
15416SOL     OW48079  12.668   2.485  10.324
15416SOL    HW148080  12.744   2.428  10.328
15416SOL    HW248081  12.594   2.429  10.348
15417SOL     OW48082  11.733   9.790   1.070
15417SOL    HW148083  11.788   9.781   1.148
15417SOL    HW248084  11.697   9.879   1.076
15418SOL     OW48085   0.874   5.121   7.266
15418SOL    HW148086   0.785   5.091   7.246
15418SOL    HW248087   0.899   5.071   7.344
15419SOL     OW48088   1.201   1.631   6.845
15419SOL    HW148089   1.251   1.663   6.770
15419SOL    HW248090   1.109   1.640   6.819
15420SOL     OW48091  12.281   4.880   4.869
15420SOL    HW148092  12.347   4.936   4.827
15420SOL    HW248093  12.302   4.791   4.839
15421SOL     OW48094   4.764  13.082  12.945
15421SOL    HW148095   4.722  13.118  13.023
15421SOL    HW248096   4.803  13.000  12.975
15422SOL     OW48097   9.272   8.525   9.156
15422SOL    HW148098   9.326   8.600   9.133
15422SOL    HW248099   9.274   8.469   9.079
15423SOL     OW48100   2.926  10.744   6.166
15423SOL    HW148101   2.855  10.681   6.175
15423SOL    HW248102   2.980  10.709   6.095
15424SOL     OW48103   8.784  11.725   2.535
15424SOL    HW148104   8.762  11.632   2.530
15424SOL    HW248105   8.838  11.733   2.613
15425SOL     OW48106   8.090   1.223  11.576
15425SOL    HW148107   8.044   1.267  11.505
15425SOL    HW248108   8.026   1.160  11.610
15426SOL     OW48109   3.919  10.850  14.706
15426SOL    HW148110   3.944  10.786  14.773
15426SOL    HW248111   4.000  10.895  14.684
15427SOL     OW48112  10.191  12.916  10.188
15427SOL    HW148113  10.127  12.968  10.237
15427SOL    HW248114  10.166  12.826  10.205
15428SOL     OW48115   1.356  11.934   6.279
15428SOL    HW148116   1.382  12.025   6.294
15428SOL    HW248117   1.338  11.899   6.366
15429SOL     OW48118   5.165   4.766   7.658
15429SOL    HW148119   5.220   4.844   7.657
15429SOL    HW248120   5.218   4.701   7.706
15430SOL     OW48121   4.433   6.533   5.682
15430SOL    HW148122   4.424   6.477   5.758
15430SOL    HW248123   4.525   6.560   5.683
15431SOL     OW48124   2.332   8.461   8.455
15431SOL    HW148125   2.355   8.402   8.527
15431SOL    HW248126   2.400   8.446   8.390
15432SOL     OW48127   0.527  10.998   9.107
15432SOL    HW148128   0.586  10.926   9.128
15432SOL    HW248129   0.585  11.068   9.077
15433SOL     OW48130  14.353   9.720   8.878
15433SOL    HW148131  14.272   9.683   8.915
15433SOL    HW248132  14.396   9.646   8.835
15434SOL     OW48133  12.412   7.493   7.471
15434SOL    HW148134  12.364   7.575   7.459
15434SOL    HW248135  12.502   7.514   7.450
15435SOL     OW48136   8.262   5.484  10.102
15435SOL    HW148137   8.189   5.546  10.092
15435SOL    HW248138   8.331   5.519  10.045
15436SOL     OW48139   1.150  14.630   7.148
15436SOL    HW148140   1.087  14.612   7.217
15436SOL    HW248141   1.217  14.563   7.159
15437SOL     OW48142  14.606   1.000   5.442
15437SOL    HW148143  14.646   1.047   5.369
15437SOL    HW248144  14.657   0.919   5.449
15438SOL     OW48145   6.050  13.584   1.606
15438SOL    HW148146   5.969  13.534   1.597
15438SOL    HW248147   6.045  13.649   1.536
15439SOL     OW48148   1.915   1.242   4.807
15439SOL    HW148149   1.989   1.182   4.806
15439SOL    HW248150   1.953   1.328   4.792
15440SOL     OW48151   4.411  13.504   7.844
15440SOL    HW148152   4.490  13.522   7.894
15440SOL    HW248153   4.340  13.516   7.907
15441SOL     OW48154   0.069  11.433  14.296
15441SOL    HW148155   0.091  11.371  14.226
15441SOL    HW248156   0.153  11.454  14.336
15442SOL     OW48157  12.986   5.874  14.001
15442SOL    HW148158  12.946   5.935  14.063
15442SOL    HW248159  13.072   5.854  14.039
15443SOL     OW48160  14.787   7.507   9.901
15443SOL    HW148161  14.695   7.498   9.929
15443SOL    HW248162  14.788   7.473   9.812
15444SOL     OW48163  13.470   8.879  13.150
15444SOL    HW148164  13.437   8.924  13.228
15444SOL    HW248165  13.555   8.844  13.176
15445SOL     OW48166   2.627   1.988   8.191
15445SOL    HW148167   2.537   2.002   8.164
15445SOL    HW248168   2.634   2.030   8.277
15446SOL     OW48169   4.740  13.521   4.105
15446SOL    HW148170   4.668  13.583   4.115
15446SOL    HW248171   4.802  13.566   4.047
15447SOL     OW48172   5.878  10.104   5.595
15447SOL    HW148173   5.955  10.062   5.633
15447SOL    HW248174   5.907  10.192   5.572
15448SOL     OW48175   1.127   3.594   0.449
15448SOL    HW148176   1.096   3.506   0.430
15448SOL    HW248177   1.215   3.597   0.410
15449SOL     OW48178  12.514   2.222   8.893
15449SOL    HW148179  12.434   2.267   8.919
15449SOL    HW248180  12.484   2.146   8.843
15450SOL     OW48181   1.734  13.837  12.254
15450SOL    HW148182   1.678  13.776  12.302
15450SOL    HW248183   1.790  13.876  12.322
15451SOL     OW48184   6.312  11.514   8.175
15451SOL    HW148185   6.317  11.546   8.265
15451SOL    HW248186   6.237  11.560   8.138
15452SOL     OW48187   9.458   8.723  10.413
15452SOL    HW148188   9.489   8.732  10.323
15452SOL    HW248189   9.429   8.812  10.437
15453SOL     OW48190  11.820   4.771  14.248
15453SOL    HW148191  11.810   4.842  14.311
15453SOL    HW248192  11.753   4.707  14.273
15454SOL     OW48193   6.974   5.462   0.037
15454SOL    HW148194   6.992   5.373   0.067
15454SOL    HW248195   6.918   5.500   0.105
15455SOL     OW48196   7.559  13.611   0.138
15455SOL    HW148197   7.549  13.649   0.051
15455SOL    HW248198   7.627  13.663   0.180
15456SOL     OW48199   7.324   6.759  10.179
15456SOL    HW148200   7.404   6.733  10.133
15456SOL    HW248201   7.296   6.839  10.134
15457SOL     OW48202  14.369   9.260   3.476
15457SOL    HW148203  14.426   9.261   3.552
15457SOL    HW248204  14.391   9.179   3.430
15458SOL     OW48205  10.729   2.815  13.192
15458SOL    HW148206  10.775   2.739  13.229
15458SOL    HW248207  10.799   2.869  13.155
15459SOL     OW48208   4.231   2.454  11.703
15459SOL    HW148209   4.200   2.395  11.772
15459SOL    HW248210   4.196   2.540  11.726
15460SOL     OW48211  14.586   3.204   5.519
15460SOL    HW148212  14.540   3.288   5.515
15460SOL    HW248213  14.560   3.167   5.603
15461SOL     OW48214  14.811   1.665   4.778
15461SOL    HW148215  14.831   1.728   4.848
15461SOL    HW248216  14.726   1.627   4.803
15462SOL     OW48217   2.397  10.893   3.642
15462SOL    HW148218   2.319  10.871   3.692
15462SOL    HW248219   2.394  10.836   3.565
15463SOL     OW48220   5.395  14.111   0.278
15463SOL    HW148221   5.472  14.100   0.334
15463SOL    HW248222   5.340  14.172   0.326
15464SOL     OW48223   8.190  11.357   2.470
15464SOL    HW148224   8.096  11.347   2.485
15464SOL    HW248225   8.196  11.429   2.407
15465SOL     OW48226   4.148   2.794   1.122
15465SOL    HW148227   4.090   2.832   1.056
15465SOL    HW248228   4.232   2.783   1.076
15466SOL     OW48229   5.936   0.868   0.625
15466SOL    HW148230   5.953   0.798   0.562
15466SOL    HW248231   5.945   0.948   0.573
15467SOL     OW48232  12.841   2.210   7.817
15467SOL    HW148233  12.899   2.137   7.792
15467SOL    HW248234  12.797   2.179   7.896
15468SOL     OW48235  11.583  13.387   0.457
15468SOL    HW148236  11.620  13.342   0.381
15468SOL    HW248237  11.515  13.328   0.489
15469SOL     OW48238  13.367   6.729   9.775
15469SOL    HW148239  13.302   6.765   9.835
15469SOL    HW248240  13.430   6.684   9.831
15470SOL     OW48241  11.936   0.738  14.858
15470SOL    HW148242  11.931   0.783   0.060
15470SOL    HW248243  11.963   0.649  14.880
15471SOL     OW48244   9.960  10.695  12.904
15471SOL    HW148245   9.872  10.719  12.874
15471SOL    HW248246  10.014  10.772  12.886
15472SOL     OW48247   4.758   1.724   0.733
15472SOL    HW148248   4.798   1.810   0.744
15472SOL    HW248249   4.704   1.712   0.811
15473SOL     OW48250   7.680  10.200   0.910
15473SOL    HW148251   7.640  10.115   0.894
15473SOL    HW248252   7.622  10.242   0.974
15474SOL     OW48253  14.666   6.365  14.072
15474SOL    HW148254  14.673   6.429  14.001
15474SOL    HW248255  14.614   6.409  14.139
15475SOL     OW48256  13.121  12.913  12.829
15475SOL    HW148257  13.123  12.827  12.786
15475SOL    HW248258  13.093  12.894  12.919
15476SOL     OW48259   6.601  12.178  14.881
15476SOL    HW148260   6.615  12.156   0.091
15476SOL    HW248261   6.558  12.100  14.844
15477SOL     OW48262  12.443   0.763   6.099
15477SOL    HW148263  12.371   0.754   6.162
15477SOL    HW248264  12.411   0.828   6.036
15478SOL     OW48265  11.132   9.044   6.415
15478SOL    HW148266  11.148   8.950   6.418
15478SOL    HW248267  11.064   9.059   6.480
15479SOL     OW48268  11.245   7.417  12.446
15479SOL    HW148269  11.187   7.462  12.385
15479SOL    HW248270  11.326   7.469  12.444
15480SOL     OW48271   9.944  13.684   1.347
15480SOL    HW148272  10.033  13.719   1.338
15480SOL    HW248273   9.890  13.740   1.292
15481SOL     OW48274  14.264   8.001   6.394
15481SOL    HW148275  14.251   7.907   6.379
15481SOL    HW248276  14.305   8.006   6.480
15482SOL     OW48277   8.901  14.275  10.413
15482SOL    HW148278   8.854  14.197  10.384
15482SOL    HW248279   8.967  14.290  10.346
15483SOL     OW48280  13.057  13.233   9.995
15483SOL    HW148281  12.980  13.290   9.996
15483SOL    HW248282  13.024  13.147  10.022
15484SOL     OW48283   2.187  12.576   9.412
15484SOL    HW148284   2.282  12.579   9.401
15484SOL    HW248285   2.168  12.644   9.477
15485SOL     OW48286   2.813   2.105  11.072
15485SOL    HW148287   2.777   2.191  11.053
15485SOL    HW248288   2.884   2.093  11.009
15486SOL     OW48289  12.784   0.615  14.288
15486SOL    HW148290  12.860   0.658  14.328
15486SOL    HW248291  12.821   0.555  14.224
15487SOL     OW48292  10.351   0.579  10.329
15487SOL    HW148293  10.259   0.599  10.344
15487SOL    HW248294  10.356   0.484  10.329
15488SOL     OW48295   5.516   8.780  12.888
15488SOL    HW148296   5.606   8.752  12.870
15488SOL    HW248297   5.471   8.770  12.804
15489SOL     OW48298  11.134  11.666   9.302
15489SOL    HW148299  11.080  11.592   9.274
15489SOL    HW248300  11.081  11.743   9.283
15490SOL     OW48301  11.525   1.248  14.226
15490SOL    HW148302  11.483   1.303  14.292
15490SOL    HW248303  11.467   1.172  14.218
15491SOL     OW48304   5.681  12.180   2.772
15491SOL    HW148305   5.715  12.270   2.778
15491SOL    HW248306   5.659  12.169   2.679
15492SOL     OW48307   3.340  10.855   7.904
15492SOL    HW148308   3.314  10.947   7.891
15492SOL    HW248309   3.414  10.843   7.845
15493SOL     OW48310   4.332   9.767   7.911
15493SOL    HW148311   4.410   9.773   7.967
15493SOL    HW248312   4.259   9.782   7.971
15494SOL     OW48313   6.730   5.702  14.829
15494SOL    HW148314   6.783   5.638  14.782
15494SOL    HW248315   6.641   5.691  14.793
15495SOL     OW48316   2.876   9.422  14.095
15495SOL    HW148317   2.790   9.441  14.132
15495SOL    HW248318   2.862   9.345  14.039
15496SOL     OW48319  11.688  14.796   7.056
15496SOL    HW148320  11.624  14.759   7.116
15496SOL    HW248321  11.695   0.006   7.082
15497SOL     OW48322   1.984   9.318  11.404
15497SOL    HW148323   1.982   9.270  11.486
15497SOL    HW248324   2.023   9.403  11.427
15498SOL     OW48325   7.874  11.859   1.743
15498SOL    HW148326   7.919  11.774   1.747
15498SOL    HW248327   7.925  11.910   1.680
15499SOL     OW48328   0.114   5.422   8.179
15499SOL    HW148329   0.076   5.414   8.092
15499SOL    HW248330   0.075   5.501   8.216
15500SOL     OW48331   3.471   9.842  10.744
15500SOL    HW148332   3.403   9.813  10.806
15500SOL    HW248333   3.422   9.886  10.675
15501SOL     OW48334   3.808   0.290  13.313
15501SOL    HW148335   3.837   0.259  13.227
15501SOL    HW248336   3.882   0.342  13.345
15502SOL     OW48337   0.337   3.443   9.619
15502SOL    HW148338   0.417   3.497   9.621
15502SOL    HW248339   0.284   3.482   9.549
15503SOL     OW48340   0.660   6.729   9.665
15503SOL    HW148341   0.756   6.734   9.658
15503SOL    HW248342   0.643   6.638   9.689
15504SOL     OW48343   7.333   2.524   7.117
15504SOL    HW148344   7.291   2.565   7.042
15504SOL    HW248345   7.327   2.430   7.100
15505SOL     OW48346   8.429   1.669  13.183
15505SOL    HW148347   8.406   1.610  13.254
15505SOL    HW248348   8.345   1.697  13.146
15506SOL     OW48349  11.462   2.020   6.189
15506SOL    HW148350  11.534   2.013   6.125
15506SOL    HW248351  11.456   1.933   6.227
15507SOL     OW48352   3.215  13.836   4.478
15507SOL    HW148353   3.217  13.920   4.432
15507SOL    HW248354   3.225  13.859   4.570
15508SOL     OW48355   3.789  10.755   5.761
15508SOL    HW148356   3.803  10.805   5.680
15508SOL    HW248357   3.760  10.669   5.731
15509SOL     OW48358   6.432   1.999  14.155
15509SOL    HW148359   6.425   2.047  14.073
15509SOL    HW248360   6.510   2.035  14.197
15510SOL     OW48361   1.634  11.560   8.580
15510SOL    HW148362   1.583  11.480   8.591
15510SOL    HW248363   1.579  11.615   8.524
15511SOL     OW48364  10.795   5.120   2.645
15511SOL    HW148365  10.765   5.029   2.636
15511SOL    HW248366  10.714   5.170   2.660
15512SOL     OW48367   2.809   1.191  12.893
15512SOL    HW148368   2.884   1.139  12.863
15512SOL    HW248369   2.802   1.263  12.830
15513SOL     OW48370   5.595   2.710   8.732
15513SOL    HW148371   5.685   2.685   8.711
15513SOL    HW248372   5.564   2.756   8.654
15514SOL     OW48373   5.790   9.285  12.948
15514SOL    HW148374   5.698   9.302  12.924
15514SOL    HW248375   5.806   9.342  13.023
15515SOL     OW48376   7.474   9.571   3.806
15515SOL    HW148377   7.531   9.648   3.808
15515SOL    HW248378   7.385   9.607   3.809
15516SOL     OW48379  11.635   2.761   6.343
15516SOL    HW148380  11.570   2.802   6.286
15516SOL    HW248381  11.584   2.719   6.412
15517SOL     OW48382  13.712   8.717   8.745
15517SOL    HW148383  13.629   8.762   8.757
15517SOL    HW248384  13.771   8.758   8.807
15518SOL     OW48385   6.018  11.229   6.900
15518SOL    HW148386   6.036  11.302   6.840
15518SOL    HW248387   6.067  11.156   6.863
15519SOL     OW48388   0.968  13.804   8.636
15519SOL    HW148389   0.989  13.711   8.628
15519SOL    HW248390   0.892  13.816   8.579
15520SOL     OW48391   2.245  12.386   1.454
15520SOL    HW148392   2.269  12.331   1.379
15520SOL    HW248393   2.292  12.468   1.438
15521SOL     OW48394  10.046   3.173   6.999
15521SOL    HW148395  10.105   3.236   7.040
15521SOL    HW248396  10.064   3.181   6.905
15522SOL     OW48397   7.784  12.020  12.581
15522SOL    HW148398   7.804  11.995  12.672
15522SOL    HW248399   7.688  12.026  12.579
15523SOL     OW48400  11.900   8.629  11.476
15523SOL    HW148401  11.812   8.596  11.456
15523SOL    HW248402  11.947   8.553  11.510
15524SOL     OW48403   1.989   5.666   1.237
15524SOL    HW148404   1.900   5.699   1.246
15524SOL    HW248405   2.018   5.650   1.327
15525SOL     OW48406   5.339   2.203   2.386
15525SOL    HW148407   5.293   2.129   2.347
15525SOL    HW248408   5.272   2.272   2.390
15526SOL     OW48409  13.116   7.446  13.753
15526SOL    HW148410  13.067   7.498  13.690
15526SOL    HW248411  13.208   7.459  13.730
15527SOL     OW48412   7.775   0.920   0.974
15527SOL    HW148413   7.793   0.843   0.921
15527SOL    HW248414   7.726   0.978   0.916
15528SOL     OW48415   9.198   5.947  13.759
15528SOL    HW148416   9.264   5.890  13.800
15528SOL    HW248417   9.235   6.035  13.763
15529SOL     OW48418  12.769  10.596   2.469
15529SOL    HW148419  12.854  10.555   2.456
15529SOL    HW248420  12.786  10.690   2.458
15530SOL     OW48421  12.724   0.147   4.825
15530SOL    HW148422  12.792   0.179   4.765
15530SOL    HW248423  12.685   0.073   4.779
15531SOL     OW48424   1.553   1.433   6.996
15531SOL    HW148425   1.583   1.426   6.905
15531SOL    HW248426   1.469   1.388   6.998
15532SOL     OW48427  13.719   9.123   5.980
15532SOL    HW148428  13.800   9.073   5.967
15532SOL    HW248429  13.705   9.120   6.075
15533SOL     OW48430   0.510   8.911   3.034
15533SOL    HW148431   0.418   8.913   3.008
15533SOL    HW248432   0.554   8.867   2.961
15534SOL     OW48433  10.145   5.310   7.523
15534SOL    HW148434  10.131   5.318   7.428
15534SOL    HW248435  10.202   5.383   7.545
15535SOL     OW48436   1.975  12.354  10.140
15535SOL    HW148437   1.972  12.385  10.231
15535SOL    HW248438   2.050  12.399  10.102
15536SOL     OW48439  12.381   7.886  11.590
15536SOL    HW148440  12.455   7.843  11.634
15536SOL    HW248441  12.421   7.936  11.519
15537SOL     OW48442   1.265   2.209   5.697
15537SOL    HW148443   1.291   2.271   5.629
15537SOL    HW248444   1.302   2.126   5.669
15538SOL     OW48445  14.743   6.636   1.433
15538SOL    HW148446  14.651   6.616   1.414
15538SOL    HW248447  14.780   6.551   1.456
15539SOL     OW48448  13.287   8.056   2.625
15539SOL    HW148449  13.311   8.058   2.718
15539SOL    HW248450  13.193   8.038   2.624
15540SOL     OW48451   8.407   5.470  10.992
15540SOL    HW148452   8.499   5.493  10.975
15540SOL    HW248453   8.373   5.448  10.905
15541SOL     OW48454   1.503   8.698   2.331
15541SOL    HW148455   1.576   8.749   2.366
15541SOL    HW248456   1.468   8.751   2.260
15542SOL     OW48457   3.548   2.661  12.181
15542SOL    HW148458   3.622   2.622  12.227
15542SOL    HW248459   3.511   2.590  12.129
15543SOL     OW48460  10.416  11.520   2.182
15543SOL    HW148461  10.493  11.528   2.238
15543SOL    HW248462  10.342  11.523   2.243
15544SOL     OW48463   8.578   4.153   2.749
15544SOL    HW148464   8.631   4.196   2.682
15544SOL    HW248465   8.642   4.116   2.810
15545SOL     OW48466   1.326   8.696   2.043
15545SOL    HW148467   1.366   8.783   2.050
15545SOL    HW248468   1.291   8.692   1.955
15546SOL     OW48469   7.223   5.838   3.121
15546SOL    HW148470   7.309   5.875   3.139
15546SOL    HW248471   7.182   5.828   3.207
15547SOL     OW48472   2.008  10.809   0.525
15547SOL    HW148473   2.003  10.772   0.614
15547SOL    HW248474   2.087  10.769   0.488
15548SOL     OW48475   7.158   4.591   3.282
15548SOL    HW148476   7.074   4.587   3.235
15548SOL    HW248477   7.141   4.543   3.363
15549SOL     OW48478  10.753   6.544  14.450
15549SOL    HW148479  10.781   6.498  14.371
15549SOL    HW248480  10.734   6.475  14.513
15550SOL     OW48481   7.274  10.508   1.099
15550SOL    HW148482   7.196  10.480   1.052
15550SOL    HW248483   7.243  10.529   1.187
15551SOL     OW48484   8.107  14.417   9.287
15551SOL    HW148485   8.189  14.447   9.325
15551SOL    HW248486   8.131  14.384   9.200
15552SOL     OW48487   5.471  10.368  10.094
15552SOL    HW148488   5.398  10.368  10.156
15552SOL    HW248489   5.501  10.459  10.093
15553SOL     OW48490   5.871   4.222   9.108
15553SOL    HW148491   5.871   4.310   9.070
15553SOL    HW248492   5.847   4.165   9.035
15554SOL     OW48493  10.102   8.011   3.744
15554SOL    HW148494  10.195   7.988   3.738
15554SOL    HW248495  10.058   7.947   3.689
15555SOL     OW48496   1.650  12.776   3.854
15555SOL    HW148497   1.728  12.825   3.829
15555SOL    HW248498   1.633  12.720   3.779
15556SOL     OW48499   3.009  12.222   0.505
15556SOL    HW148500   3.102  12.200   0.511
15556SOL    HW248501   3.002  12.276   0.426
15557SOL     OW48502   5.999   6.968  14.111
15557SOL    HW148503   5.943   7.039  14.141
15557SOL    HW248504   6.045   6.938  14.190
15558SOL     OW48505   5.491  11.842   1.893
15558SOL    HW148506   5.536  11.907   1.947
15558SOL    HW248507   5.408  11.827   1.938
15559SOL     OW48508   6.235   6.848   4.268
15559SOL    HW148509   6.190   6.821   4.348
15559SOL    HW248510   6.315   6.890   4.299
15560SOL     OW48511   2.001   3.557   7.788
15560SOL    HW148512   1.959   3.496   7.849
15560SOL    HW248513   2.084   3.515   7.766
15561SOL     OW48514  14.647   9.566   9.834
15561SOL    HW148515  14.710   9.501   9.804
15561SOL    HW248516  14.583   9.571   9.763
15562SOL     OW48517   7.193  10.591   5.183
15562SOL    HW148518   7.276  10.563   5.145
15562SOL    HW248519   7.185  10.540   5.264
15563SOL     OW48520   7.099  11.664   9.327
15563SOL    HW148521   7.038  11.687   9.397
15563SOL    HW248522   7.051  11.682   9.246
15564SOL     OW48523   9.737   3.096   2.341
15564SOL    HW148524   9.704   3.016   2.300
15564SOL    HW248525   9.717   3.166   2.278
15565SOL     OW48526  10.619   5.209   1.673
15565SOL    HW148527  10.714   5.208   1.670
15565SOL    HW248528  10.593   5.278   1.611
15566SOL     OW48529  14.776   4.390   9.376
15566SOL    HW148530  14.731   4.343   9.447
15566SOL    HW248531  14.778   4.327   9.304
15567SOL     OW48532   4.562   8.121   8.031
15567SOL    HW148533   4.581   8.114   7.937
15567SOL    HW248534   4.482   8.172   8.036
15568SOL     OW48535   3.739  10.588   7.558
15568SOL    HW148536   3.682  10.519   7.525
15568SOL    HW248537   3.774  10.630   7.480
15569SOL     OW48538  12.011  12.153  13.242
15569SOL    HW148539  12.062  12.157  13.323
15569SOL    HW248540  11.995  12.059  13.229
15570SOL     OW48541   6.516  12.608   2.578
15570SOL    HW148542   6.506  12.691   2.625
15570SOL    HW248543   6.593  12.567   2.617
15571SOL     OW48544   3.827   7.457  10.281
15571SOL    HW148545   3.791   7.447  10.369
15571SOL    HW248546   3.860   7.369  10.259
15572SOL     OW48547   4.895   3.165  13.112
15572SOL    HW148548   4.891   3.079  13.153
15572SOL    HW248549   4.971   3.161  13.054
15573SOL     OW48550  10.566  10.985   2.778
15573SOL    HW148551  10.649  10.990   2.730
15573SOL    HW248552  10.589  11.006   2.868
15574SOL     OW48553   1.004   1.550   8.581
15574SOL    HW148554   1.024   1.462   8.550
15574SOL    HW248555   0.928   1.540   8.637
15575SOL     OW48556   4.442   8.494  13.972
15575SOL    HW148557   4.421   8.406  13.939
15575SOL    HW248558   4.462   8.545  13.894
15576SOL     OW48559  11.045  13.901  12.087
15576SOL    HW148560  10.996  13.981  12.104
15576SOL    HW248561  10.979  13.831  12.090
15577SOL     OW48562  13.203   6.963   4.835
15577SOL    HW148563  13.229   7.055   4.825
15577SOL    HW248564  13.274   6.913   4.794
15578SOL     OW48565   9.287  10.872   8.179
15578SOL    HW148566   9.220  10.806   8.159
15578SOL    HW248567   9.267  10.900   8.269
15579SOL     OW48568  12.423  13.277  11.035
15579SOL    HW148569  12.456  13.363  11.064
15579SOL    HW248570  12.424  13.224  11.115
15580SOL     OW48571  12.379  13.304   1.897
15580SOL    HW148572  12.445  13.252   1.942
15580SOL    HW248573  12.330  13.241   1.844
15581SOL     OW48574  13.949   5.014  10.011
15581SOL    HW148575  13.919   4.926   9.990
15581SOL    HW248576  13.973   5.010  10.104
15582SOL     OW48577  10.642  14.777   9.257
15582SOL    HW148578  10.601  14.859   9.285
15582SOL    HW248579  10.577  14.710   9.279
15583SOL     OW48580  12.718   7.637   9.297
15583SOL    HW148581  12.781   7.568   9.316
15583SOL    HW248582  12.643   7.617   9.353
15584SOL     OW48583   4.766   7.432   3.562
15584SOL    HW148584   4.750   7.338   3.574
15584SOL    HW248585   4.683   7.466   3.530
15585SOL     OW48586  10.284   8.793   1.339
15585SOL    HW148587  10.337   8.755   1.270
15585SOL    HW248588  10.331   8.872   1.365
15586SOL     OW48589  12.458   9.402   2.433
15586SOL    HW148590  12.366   9.429   2.429
15586SOL    HW248591  12.456   9.318   2.477
15587SOL     OW48592  10.466  10.094   2.504
15587SOL    HW148593  10.393  10.070   2.561
15587SOL    HW248594  10.526  10.142   2.561
15588SOL     OW48595  11.922   3.110  11.988
15588SOL    HW148596  11.989   3.082  11.926
15588SOL    HW248597  11.840   3.104  11.939
15589SOL     OW48598  11.400   4.007   6.827
15589SOL    HW148599  11.320   4.045   6.862
15589SOL    HW248600  11.370   3.936   6.770
15590SOL     OW48601  11.143  10.644   3.454
15590SOL    HW148602  11.150  10.592   3.374
15590SOL    HW248603  11.185  10.591   3.521
15591SOL     OW48604   8.027  11.379  13.074
15591SOL    HW148605   8.095  11.396  13.139
15591SOL    HW248606   7.945  11.394  13.120
15592SOL     OW48607   2.416   3.652   6.534
15592SOL    HW148608   2.495   3.701   6.514
15592SOL    HW248609   2.353   3.719   6.560
15593SOL     OW48610   2.577   1.750   3.060
15593SOL    HW148611   2.580   1.841   3.090
15593SOL    HW248612   2.617   1.752   2.974
15594SOL     OW48613  12.180  13.279   3.230
15594SOL    HW148614  12.098  13.321   3.205
15594SOL    HW248615  12.156  13.219   3.300
15595SOL     OW48616   8.763  11.248  10.219
15595SOL    HW148617   8.791  11.157  10.207
15595SOL    HW248618   8.814  11.279  10.293
15596SOL     OW48619   3.546   5.162   2.641
15596SOL    HW148620   3.522   5.069   2.649
15596SOL    HW248621   3.581   5.170   2.552
15597SOL     OW48622   1.648  11.637   2.000
15597SOL    HW148623   1.602  11.579   1.938
15597SOL    HW248624   1.593  11.638   2.078
15598SOL     OW48625  10.055   9.843  11.275
15598SOL    HW148626   9.990   9.830  11.343
15598SOL    HW248627  10.004   9.867  11.197
15599SOL     OW48628   9.812   0.781  10.875
15599SOL    HW148629   9.806   0.689  10.902
15599SOL    HW248630   9.892   0.813  10.918
15600SOL     OW48631   9.528   2.140  13.594
15600SOL    HW148632   9.618   2.171  13.591
15600SOL    HW248633   9.475   2.218  13.581
15601SOL     OW48634  14.519   7.973  13.643
15601SOL    HW148635  14.474   8.044  13.689
15601SOL    HW248636  14.465   7.957  13.565
15602SOL     OW48637   2.044   8.239  12.339
15602SOL    HW148638   2.101   8.260  12.264
15602SOL    HW248639   1.974   8.304  12.335
15603SOL     OW48640   1.057   5.168   3.858
15603SOL    HW148641   1.025   5.086   3.820
15603SOL    HW248642   1.115   5.204   3.791
15604SOL     OW48643   8.987   1.698  10.209
15604SOL    HW148644   8.920   1.695  10.140
15604SOL    HW248645   9.002   1.792  10.224
15605SOL     OW48646  14.125   0.789  10.851
15605SOL    HW148647  14.181   0.795  10.774
15605SOL    HW248648  14.179   0.822  10.923
15606SOL     OW48649   9.159   2.284   6.751
15606SOL    HW148650   9.250   2.255   6.759
15606SOL    HW248651   9.108   2.203   6.750
15607SOL     OW48652   9.925   3.113   6.133
15607SOL    HW148653   9.836   3.101   6.166
15607SOL    HW248654   9.925   3.071   6.047
15608SOL     OW48655  11.196  14.658  12.266
15608SOL    HW148656  11.169  14.744  12.233
15608SOL    HW248657  11.291  14.664  12.273
15609SOL     OW48658   8.654  13.336   3.200
15609SOL    HW148659   8.630  13.277   3.129
15609SOL    HW248660   8.749  13.343   3.195
15610SOL     OW48661   5.561  12.359  11.867
15610SOL    HW148662   5.648  12.322  11.886
15610SOL    HW248663   5.564  12.447  11.903
15611SOL     OW48664   0.011  10.137   5.878
15611SOL    HW148665  14.800  10.136   5.901
15611SOL    HW248666   0.013  10.109   5.786
15612SOL     OW48667  13.385  11.626   1.946
15612SOL    HW148668  13.400  11.581   2.029
15612SOL    HW248669  13.315  11.689   1.966
15613SOL     OW48670   9.904   8.011  13.966
15613SOL    HW148671   9.948   7.927  13.980
15613SOL    HW248672   9.938   8.042  13.883
15614SOL     OW48673   1.423   1.179   3.158
15614SOL    HW148674   1.500   1.151   3.208
15614SOL    HW248675   1.409   1.270   3.184
15615SOL     OW48676   5.402  11.381   3.734
15615SOL    HW148677   5.456  11.457   3.754
15615SOL    HW248678   5.421  11.361   3.643
15616SOL     OW48679   2.524  10.690   3.094
15616SOL    HW148680   2.512  10.696   2.999
15616SOL    HW248681   2.552  10.599   3.109
15617SOL     OW48682  12.003   7.920  11.997
15617SOL    HW148683  12.067   7.900  11.928
15617SOL    HW248684  12.008   7.846  12.057
15618SOL     OW48685   0.854   9.504   3.077
15618SOL    HW148686   0.841   9.468   2.990
15618SOL    HW248687   0.777   9.477   3.127
15619SOL     OW48688   8.878   3.259   2.756
15619SOL    HW148689   8.883   3.335   2.813
15619SOL    HW248690   8.964   3.256   2.713
15620SOL     OW48691   0.348  10.384  10.778
15620SOL    HW148692   0.384  10.370  10.865
15620SOL    HW248693   0.295  10.306  10.760
15621SOL     OW48694  13.490  14.163  12.028
15621SOL    HW148695  13.552  14.093  12.009
15621SOL    HW248696  13.521  14.202  12.110
15622SOL     OW48697   2.285   6.481   3.616
15622SOL    HW148698   2.265   6.394   3.650
15622SOL    HW248699   2.247   6.482   3.528
15623SOL     OW48700   1.213   9.999   6.576
15623SOL    HW148701   1.135   9.952   6.606
15623SOL    HW248702   1.193  10.022   6.485
15624SOL     OW48703  12.353   9.752   5.842
15624SOL    HW148704  12.302   9.725   5.918
15624SOL    HW248705  12.290   9.754   5.770
15625SOL     OW48706   7.361  12.453  10.366
15625SOL    HW148707   7.324  12.374  10.406
15625SOL    HW248708   7.320  12.526  10.412
15626SOL     OW48709   1.704  10.322   8.946
15626SOL    HW148710   1.766  10.308   8.874
15626SOL    HW248711   1.622  10.285   8.914
15627SOL     OW48712   9.281   5.277   2.043
15627SOL    HW148713   9.297   5.223   1.966
15627SOL    HW248714   9.186   5.284   2.049
15628SOL     OW48715   6.300   9.990   5.922
15628SOL    HW148716   6.256   9.934   5.986
15628SOL    HW248717   6.394   9.978   5.940
15629SOL     OW48718   8.658   6.190  12.130
15629SOL    HW148719   8.640   6.167  12.039
15629SOL    HW248720   8.741   6.147  12.149
15630SOL     OW48721  10.794   6.516  10.600
15630SOL    HW148722  10.774   6.499  10.692
15630SOL    HW248723  10.722   6.571  10.570
15631SOL     OW48724   0.701  11.781   1.861
15631SOL    HW148725   0.668  11.838   1.791
15631SOL    HW248726   0.680  11.828   1.942
15632SOL     OW48727   9.716   8.995   4.092
15632SOL    HW148728   9.659   9.031   4.160
15632SOL    HW248729   9.659   8.984   4.016
15633SOL     OW48730  10.924  13.783  14.857
15633SOL    HW148731  10.909  13.860  14.802
15633SOL    HW248732  11.018  13.766  14.849
15634SOL     OW48733   4.738  13.094   9.686
15634SOL    HW148734   4.796  13.085   9.611
15634SOL    HW248735   4.740  13.008   9.728
15635SOL     OW48736   7.828   4.205   7.799
15635SOL    HW148737   7.780   4.270   7.747
15635SOL    HW248738   7.810   4.122   7.756
15636SOL     OW48739  14.045   6.060  13.602
15636SOL    HW148740  13.986   6.125  13.562
15636SOL    HW248741  14.129   6.104  13.607
15637SOL     OW48742  10.891   3.834  12.301
15637SOL    HW148743  10.883   3.864  12.211
15637SOL    HW248744  10.920   3.912  12.350
15638SOL     OW48745  13.016   4.241   2.385
15638SOL    HW148746  13.041   4.307   2.450
15638SOL    HW248747  12.947   4.191   2.429
15639SOL     OW48748   3.888   4.650  10.346
15639SOL    HW148749   3.924   4.736  10.368
15639SOL    HW248750   3.814   4.638  10.405
15640SOL     OW48751   6.384   1.895   6.370
15640SOL    HW148752   6.358   1.831   6.304
15640SOL    HW248753   6.360   1.854   6.453
15641SOL     OW48754  11.423  14.056   2.398
15641SOL    HW148755  11.394  13.978   2.349
15641SOL    HW248756  11.344  14.087   2.441
15642SOL     OW48757   7.979   4.096   4.795
15642SOL    HW148758   8.029   4.168   4.757
15642SOL    HW248759   7.933   4.057   4.721
15643SOL     OW48760   7.803   6.971   1.809
15643SOL    HW148761   7.850   6.937   1.885
15643SOL    HW248762   7.761   7.051   1.842
15644SOL     OW48763  13.643  12.838   2.707
15644SOL    HW148764  13.724  12.798   2.738
15644SOL    HW248765  13.646  12.928   2.739
15645SOL     OW48766   2.238  13.369  12.592
15645SOL    HW148767   2.254  13.277  12.610
15645SOL    HW248768   2.270  13.382  12.503
15646SOL     OW48769   9.357   6.320  14.671
15646SOL    HW148770   9.376   6.266  14.594
15646SOL    HW248771   9.280   6.281  14.710
15647SOL     OW48772   2.505   0.250   9.190
15647SOL    HW148773   2.451   0.186   9.143
15647SOL    HW248774   2.570   0.197   9.236
15648SOL     OW48775  10.713   1.146   5.118
15648SOL    HW148776  10.680   1.072   5.067
15648SOL    HW248777  10.671   1.222   5.079
15649SOL     OW48778   6.520  10.575   9.282
15649SOL    HW148779   6.450  10.629   9.318
15649SOL    HW248780   6.562  10.536   9.359
15650SOL     OW48781   8.623   6.914  10.255
15650SOL    HW148782   8.555   6.951  10.310
15650SOL    HW248783   8.616   6.962  10.172
15651SOL     OW48784   8.804   7.808   8.898
15651SOL    HW148785   8.796   7.901   8.875
15651SOL    HW248786   8.891   7.783   8.869
15652SOL     OW48787   1.871  12.204   2.451
15652SOL    HW148788   1.909  12.203   2.538
15652SOL    HW248789   1.858  12.111   2.429
15653SOL     OW48790  11.023   6.334   3.426
15653SOL    HW148791  11.015   6.429   3.436
15653SOL    HW248792  11.000   6.299   3.512
15654SOL     OW48793   6.424   2.950  14.524
15654SOL    HW148794   6.501   2.972  14.577
15654SOL    HW248795   6.437   2.996  14.442
15655SOL     OW48796  14.359  14.630   0.672
15655SOL    HW148797  14.373  14.549   0.624
15655SOL    HW248798  14.437  14.638   0.728
15656SOL     OW48799   6.466  10.762  11.614
15656SOL    HW148800   6.537  10.827  11.611
15656SOL    HW248801   6.392  10.808  11.654
15657SOL     OW48802  14.666  13.675  14.408
15657SOL    HW148803  14.755  13.669  14.373
15657SOL    HW248804  14.610  13.646  14.335
15658SOL     OW48805   2.179  13.674   6.657
15658SOL    HW148806   2.141  13.600   6.610
15658SOL    HW248807   2.175  13.649   6.749
15659SOL     OW48808   0.048   7.750   9.809
15659SOL    HW148809   0.033   7.841   9.786
15659SOL    HW248810  14.847   7.722   9.848
15660SOL     OW48811   2.035   0.061  11.379
15660SOL    HW148812   2.048   0.001  11.306
15660SOL    HW248813   1.965   0.021  11.431
15661SOL     OW48814   3.546   4.212   9.110
15661SOL    HW148815   3.469   4.164   9.079
15661SOL    HW248816   3.582   4.156   9.179
15662SOL     OW48817   2.959  11.493   7.073
15662SOL    HW148818   2.913  11.447   7.003
15662SOL    HW248819   2.901  11.484   7.149
15663SOL     OW48820   4.943   1.287   8.534
15663SOL    HW148821   4.870   1.263   8.477
15663SOL    HW248822   4.954   1.381   8.519
15664SOL     OW48823   6.907  12.190   7.730
15664SOL    HW148824   6.894  12.251   7.803
15664SOL    HW248825   6.902  12.244   7.652
15665SOL     OW48826  14.696   5.265   8.532
15665SOL    HW148827  14.676   5.184   8.581
15665SOL    HW248828  14.678   5.243   8.441
15666SOL     OW48829  11.556   0.455   5.556
15666SOL    HW148830  11.540   0.520   5.625
15666SOL    HW248831  11.476   0.404   5.552
15667SOL     OW48832   4.458   0.050   6.382
15667SOL    HW148833   4.438   0.140   6.356
15667SOL    HW248834   4.452   0.051   6.478
15668SOL     OW48835   3.739   4.728   6.431
15668SOL    HW148836   3.786   4.759   6.354
15668SOL    HW248837   3.797   4.662   6.470
15669SOL     OW48838   7.212  12.781   0.917
15669SOL    HW148839   7.147  12.839   0.878
15669SOL    HW248840   7.282  12.775   0.851
15670SOL     OW48841   3.792   2.433   1.070
15670SOL    HW148842   3.886   2.450   1.073
15670SOL    HW248843   3.772   2.427   0.976
15671SOL     OW48844   9.528   3.228  14.864
15671SOL    HW148845   9.615   3.196   0.003
15671SOL    HW248846   9.469   3.160   0.014
15672SOL     OW48847   0.848   0.867  11.713
15672SOL    HW148848   0.754   0.863  11.730
15672SOL    HW248849   0.881   0.781  11.739
15673SOL     OW48850   5.719   4.409   7.708
15673SOL    HW148851   5.625   4.390   7.696
15673SOL    HW248852   5.723   4.458   7.791
15674SOL     OW48853  11.096   3.726  12.862
15674SOL    HW148854  11.053   3.755  12.781
15674SOL    HW248855  11.147   3.649  12.836
15675SOL     OW48856   6.013   2.085  13.625
15675SOL    HW148857   5.956   2.100  13.549
15675SOL    HW248858   6.082   2.028  13.592
15676SOL     OW48859  11.236   2.411   4.608
15676SOL    HW148860  11.310   2.471   4.620
15676SOL    HW248861  11.256   2.364   4.527
15677SOL     OW48862  14.730   3.376   0.539
15677SOL    HW148863  14.800   3.339   0.486
15677SOL    HW248864  14.750   3.348   0.629
15678SOL     OW48865   1.568   6.308  10.903
15678SOL    HW148866   1.659   6.281  10.887
15678SOL    HW248867   1.562   6.319  10.998
15679SOL     OW48868   6.750   4.186   8.569
15679SOL    HW148869   6.786   4.274   8.560
15679SOL    HW248870   6.818   4.137   8.615
15680SOL     OW48871  12.011   7.267  13.279
15680SOL    HW148872  11.983   7.187  13.324
15680SOL    HW248873  12.054   7.318  13.347
15681SOL     OW48874   5.433   7.683  13.659
15681SOL    HW148875   5.528   7.671  13.655
15681SOL    HW248876   5.403   7.620  13.725
15682SOL     OW48877  12.407  12.739   6.067
15682SOL    HW148878  12.429  12.693   5.985
15682SOL    HW248879  12.313  12.726   6.077
15683SOL     OW48880  11.111   3.589  14.466
15683SOL    HW148881  11.152   3.528  14.527
15683SOL    HW248882  11.075   3.533  14.397
15684SOL     OW48883  12.914  11.752   0.103
15684SOL    HW148884  12.971  11.827   0.084
15684SOL    HW248885  12.974  11.678   0.113
15685SOL     OW48886   2.449   4.588   9.397
15685SOL    HW148887   2.399   4.637   9.463
15685SOL    HW248888   2.541   4.600   9.424
15686SOL     OW48889   2.175  10.357   1.367
15686SOL    HW148890   2.099  10.367   1.424
15686SOL    HW248891   2.169  10.429   1.305
15687SOL     OW48892   6.935  10.200  11.187
15687SOL    HW148893   6.932  10.157  11.273
15687SOL    HW248894   6.845  10.196  11.155
15688SOL     OW48895   5.456   6.486   7.604
15688SOL    HW148896   5.416   6.567   7.573
15688SOL    HW248897   5.458   6.496   7.699
15689SOL     OW48898   8.116  12.112  14.357
15689SOL    HW148899   8.024  12.112  14.385
15689SOL    HW248900   8.137  12.205  14.344
15690SOL     OW48901   5.253  10.916   7.669
15690SOL    HW148902   5.309  10.841   7.687
15690SOL    HW248903   5.257  10.969   7.748
15691SOL     OW48904   4.875   8.477  14.751
15691SOL    HW148905   4.808   8.458  14.685
15691SOL    HW248906   4.873   8.572  14.760
15692SOL     OW48907   8.250   6.128   4.955
15692SOL    HW148908   8.203   6.200   4.998
15692SOL    HW248909   8.314   6.172   4.900
15693SOL     OW48910   8.201   3.907   4.078
15693SOL    HW148911   8.176   3.848   4.006
15693SOL    HW248912   8.294   3.891   4.091
15694SOL     OW48913  12.348   2.793   8.086
15694SOL    HW148914  12.350   2.759   8.176
15694SOL    HW248915  12.393   2.878   8.092
15695SOL     OW48916   7.554   1.155  11.951
15695SOL    HW148917   7.612   1.080  11.941
15695SOL    HW248918   7.466   1.118  11.959
15696SOL     OW48919  11.920   3.283   3.940
15696SOL    HW148920  11.862   3.293   4.016
15696SOL    HW248921  11.975   3.207   3.961
15697SOL     OW48922   7.332  11.747   4.990
15697SOL    HW148923   7.360  11.656   4.996
15697SOL    HW248924   7.412  11.798   4.995
15698SOL     OW48925   0.779   0.352   5.862
15698SOL    HW148926   0.841   0.290   5.825
15698SOL    HW248927   0.833   0.419   5.903
15699SOL     OW48928   0.793  14.766   4.365
15699SOL    HW148929   0.813  14.676   4.394
15699SOL    HW248930   0.698  14.773   4.374
15700SOL     OW48931  10.422   4.742  10.797
15700SOL    HW148932  10.457   4.655  10.774
15700SOL    HW248933  10.328   4.727  10.812
15701SOL     OW48934  13.323   0.133  11.868
15701SOL    HW148935  13.344   0.080  11.792
15701SOL    HW248936  13.328   0.072  11.942
15702SOL     OW48937   5.217   3.256  12.521
15702SOL    HW148938   5.198   3.260  12.615
15702SOL    HW248939   5.191   3.342  12.488
15703SOL     OW48940  13.021  12.050  12.630
15703SOL    HW148941  12.988  11.993  12.561
15703SOL    HW248942  13.067  11.991  12.690
15704SOL     OW48943   8.137   1.412   5.104
15704SOL    HW148944   8.099   1.365   5.179
15704SOL    HW248945   8.186   1.484   5.143
15705SOL     OW48946  13.204  14.265   6.903
15705SOL    HW148947  13.202  14.219   6.819
15705SOL    HW248948  13.259  14.341   6.887
15706SOL     OW48949  12.605   5.084   0.322
15706SOL    HW148950  12.655   5.166   0.326
15706SOL    HW248951  12.520   5.107   0.358
15707SOL     OW48952  13.882   1.064   1.415
15707SOL    HW148953  13.896   1.137   1.355
15707SOL    HW248954  13.924   1.092   1.497
15708SOL     OW48955   4.966  11.330  11.293
15708SOL    HW148956   4.872  11.317  11.280
15708SOL    HW248957   4.996  11.368  11.210
15709SOL     OW48958   3.759  12.469   6.974
15709SOL    HW148959   3.829  12.457   7.038
15709SOL    HW248960   3.698  12.397   6.991
15710SOL     OW48961   4.072  13.276   3.920
15710SOL    HW148962   4.125  13.278   3.841
15710SOL    HW248963   4.131  13.306   3.989
15711SOL     OW48964   2.787  13.134   8.238
15711SOL    HW148965   2.709  13.188   8.220
15711SOL    HW248966   2.802  13.087   8.157
15712SOL     OW48967   7.855   4.121   8.999
15712SOL    HW148968   7.893   4.041   9.034
15712SOL    HW248969   7.765   4.122   9.033
15713SOL     OW48970  12.782   9.399   6.389
15713SOL    HW148971  12.828   9.430   6.311
15713SOL    HW248972  12.700   9.362   6.356
15714SOL     OW48973   0.000   2.601   5.151
15714SOL    HW148974   0.083   2.574   5.112
15714SOL    HW248975  14.819   2.596   5.080
15715SOL     OW48976   7.807  10.347   3.213
15715SOL    HW148977   7.850  10.427   3.182
15715SOL    HW248978   7.854  10.323   3.293
15716SOL     OW48979   2.723   1.752   6.880
15716SOL    HW148980   2.776   1.732   6.803
15716SOL    HW248981   2.784   1.744   6.953
15717SOL     OW48982   1.941   9.151   9.509
15717SOL    HW148983   1.921   9.244   9.505
15717SOL    HW248984   1.862   9.111   9.545
15718SOL     OW48985   8.356   5.015   6.144
15718SOL    HW148986   8.451   5.017   6.150
15718SOL    HW248987   8.337   4.963   6.066
15719SOL     OW48988  10.721   9.937  12.002
15719SOL    HW148989  10.759  10.025  12.003
15719SOL    HW248990  10.701   9.921  11.910
15720SOL     OW48991   7.644   1.549  10.038
15720SOL    HW148992   7.619   1.552   9.946
15720SOL    HW248993   7.567   1.583  10.085
15721SOL     OW48994   7.343   4.994   0.297
15721SOL    HW148995   7.312   4.912   0.336
15721SOL    HW248996   7.286   5.062   0.334
15722SOL     OW48997   4.930  10.670  14.563
15722SOL    HW148998   4.945  10.599  14.625
15722SOL    HW248999   4.836  10.667  14.545
15723SOL     OW49000  11.619   2.355   1.570
15723SOL    HW149001  11.535   2.312   1.551
15723SOL    HW249002  11.631   2.416   1.498
15724SOL     OW49003   6.707  10.344   4.815
15724SOL    HW149004   6.759  10.291   4.755
15724SOL    HW249005   6.658  10.403   4.758
15725SOL     OW49006   3.981  14.395  14.659
15725SOL    HW149007   4.037  14.451  14.604
15725SOL    HW249008   3.949  14.327  14.599
15726SOL     OW49009  13.921   1.994  11.960
15726SOL    HW149010  13.877   2.079  11.958
15726SOL    HW249011  13.850   1.931  11.971
15727SOL     OW49012   6.997   3.274   8.091
15727SOL    HW149013   7.081   3.245   8.055
15727SOL    HW249014   6.939   3.280   8.015
15728SOL     OW49015   1.610   4.448   4.355
15728SOL    HW149016   1.628   4.355   4.369
15728SOL    HW249017   1.532   4.449   4.300
15729SOL     OW49018  10.833   4.718   8.503
15729SOL    HW149019  10.923   4.735   8.474
15729SOL    HW249020  10.832   4.626   8.527
15730SOL     OW49021  12.609   5.651   2.700
15730SOL    HW149022  12.537   5.614   2.752
15730SOL    HW249023  12.588   5.744   2.693
15731SOL     OW49024   7.490   0.612   1.757
15731SOL    HW149025   7.478   0.592   1.664
15731SOL    HW249026   7.580   0.644   1.763
15732SOL     OW49027  11.814  10.092   7.476
15732SOL    HW149028  11.788  10.126   7.561
15732SOL    HW249029  11.883  10.029   7.495
15733SOL     OW49030   3.607  13.936   4.850
15733SOL    HW149031   3.676  13.928   4.915
15733SOL    HW249032   3.531  13.969   4.899
15734SOL     OW49033   0.976   9.885   6.708
15734SOL    HW149034   0.973   9.961   6.766
15734SOL    HW249035   1.048   9.832   6.742
15735SOL     OW49036   4.925   1.111   6.643
15735SOL    HW149037   4.993   1.176   6.625
15735SOL    HW249038   4.973   1.036   6.677
15736SOL     OW49039   4.798   2.342   5.072
15736SOL    HW149040   4.723   2.308   5.120
15736SOL    HW249041   4.819   2.274   5.008
15737SOL     OW49042  11.667  11.328   9.148
15737SOL    HW149043  11.720  11.407   9.161
15737SOL    HW249044  11.725  11.256   9.173
15738SOL     OW49045   4.266   0.913   6.542
15738SOL    HW149046   4.219   0.871   6.614
15738SOL    HW249047   4.354   0.875   6.547
15739SOL     OW49048  12.816   7.888   5.242
15739SOL    HW149049  12.736   7.936   5.265
15739SOL    HW249050  12.789   7.832   5.169
15740SOL     OW49051   0.972   1.632  10.045
15740SOL    HW149052   0.995   1.669   9.960
15740SOL    HW249053   1.010   1.693  10.108
15741SOL     OW49054   2.295  11.374  11.291
15741SOL    HW149055   2.317  11.294  11.338
15741SOL    HW249056   2.257  11.431  11.358
15742SOL     OW49057   5.036  10.769   2.618
15742SOL    HW149058   5.046  10.758   2.523
15742SOL    HW249059   5.126  10.780   2.650
15743SOL     OW49060   5.915  14.216  11.464
15743SOL    HW149061   5.845  14.264  11.509
15743SOL    HW249062   5.979  14.197  11.533
15744SOL     OW49063   5.366   4.991   8.941
15744SOL    HW149064   5.306   4.917   8.949
15744SOL    HW249065   5.327   5.061   8.994
15745SOL     OW49066   8.801   2.659  12.179
15745SOL    HW149067   8.861   2.639  12.251
15745SOL    HW249068   8.748   2.580  12.170
15746SOL     OW49069   5.930   4.382   2.649
15746SOL    HW149070   5.853   4.369   2.705
15746SOL    HW249071   5.922   4.471   2.615
15747SOL     OW49072   7.713   7.953   0.043
15747SOL    HW149073   7.675   7.897  14.857
15747SOL    HW249074   7.656   8.030   0.045
15748SOL     OW49075   0.593  10.158   4.622
15748SOL    HW149076   0.500  10.142   4.609
15748SOL    HW249077   0.610  10.240   4.576
15749SOL     OW49078   3.867  10.362   0.940
15749SOL    HW149079   3.861  10.420   1.016
15749SOL    HW249080   3.851  10.275   0.976
15750SOL     OW49081   8.643   6.281   3.399
15750SOL    HW149082   8.649   6.211   3.464
15750SOL    HW249083   8.639   6.236   3.315
15751SOL     OW49084  14.379   3.785   1.955
15751SOL    HW149085  14.383   3.692   1.933
15751SOL    HW249086  14.315   3.790   2.026
15752SOL     OW49087   1.223  12.238   3.703
15752SOL    HW149088   1.250  12.151   3.734
15752SOL    HW249089   1.225  12.230   3.607
15753SOL     OW49090  10.043   8.711   2.043
15753SOL    HW149091  10.066   8.795   2.004
15753SOL    HW249092   9.949   8.717   2.061
15754SOL     OW49093   8.012   6.448   1.607
15754SOL    HW149094   8.056   6.483   1.685
15754SOL    HW249095   7.950   6.517   1.582
15755SOL     OW49096   3.009   8.016   2.779
15755SOL    HW149097   3.077   7.956   2.809
15755SOL    HW249098   2.969   7.971   2.704
15756SOL     OW49099  13.989   5.845   1.414
15756SOL    HW149100  14.017   5.882   1.498
15756SOL    HW249101  14.035   5.761   1.409
15757SOL     OW49102   2.970  13.087  10.495
15757SOL    HW149103   3.050  13.132  10.467
15757SOL    HW249104   3.001  13.014  10.548
15758SOL     OW49105  10.757   8.732   0.294
15758SOL    HW149106  10.784   8.662   0.354
15758SOL    HW249107  10.771   8.696   0.207
15759SOL     OW49108   6.823   0.153   8.969
15759SOL    HW149109   6.786   0.174   8.883
15759SOL    HW249110   6.917   0.163   8.958
15760SOL     OW49111   2.095   6.103  12.360
15760SOL    HW149112   2.014   6.052  12.361
15760SOL    HW249113   2.141   6.072  12.282
15761SOL     OW49114   3.113   7.616  10.209
15761SOL    HW149115   3.020   7.637  10.223
15761SOL    HW249116   3.143   7.582  10.293
15762SOL     OW49117   2.442   4.313   3.863
15762SOL    HW149118   2.383   4.327   3.788
15762SOL    HW249119   2.517   4.370   3.846
15763SOL     OW49120   7.387  12.069  12.733
15763SOL    HW149121   7.321  12.123  12.689
15763SOL    HW249122   7.420  12.011  12.665
15764SOL     OW49123  10.384   1.684  10.106
15764SOL    HW149124  10.438   1.634  10.168
15764SOL    HW249125  10.294   1.660  10.127
15765SOL     OW49126   8.256   0.723   5.590
15765SOL    HW149127   8.261   0.775   5.670
15765SOL    HW249128   8.343   0.684   5.582
15766SOL     OW49129   3.986   6.061   1.290
15766SOL    HW149130   3.931   6.100   1.222
15766SOL    HW249131   3.925   6.036   1.359
15767SOL     OW49132   7.677  11.340  13.369
15767SOL    HW149133   7.727  11.276  13.420
15767SOL    HW249134   7.612  11.288  13.323
15768SOL     OW49135   4.713   8.772   0.795
15768SOL    HW149136   4.628   8.756   0.755
15768SOL    HW249137   4.752   8.685   0.803
15769SOL     OW49138   8.094  13.759   9.748
15769SOL    HW149139   8.053  13.768   9.662
15769SOL    HW249140   8.021  13.766   9.809
15770SOL     OW49141   8.975   8.416  11.225
15770SOL    HW149142   8.992   8.363  11.302
15770SOL    HW249143   9.058   8.461  11.207
15771SOL     OW49144  13.603   9.920   5.024
15771SOL    HW149145  13.637   9.904   5.112
15771SOL    HW249146  13.528   9.978   5.038
15772SOL     OW49147  13.566   4.346   4.020
15772SOL    HW149148  13.512   4.271   4.042
15772SOL    HW249149  13.638   4.310   3.969
15773SOL     OW49150  11.258   9.139   8.629
15773SOL    HW149151  11.272   9.115   8.537
15773SOL    HW249152  11.177   9.094   8.653
15774SOL     OW49153  14.784   2.846   0.199
15774SOL    HW149154  14.837   2.922   0.221
15774SOL    HW249155  14.694   2.878   0.202
15775SOL     OW49156   2.192   5.270   1.447
15775SOL    HW149157   2.151   5.263   1.361
15775SOL    HW249158   2.247   5.347   1.441
15776SOL     OW49159   3.140  11.721   0.325
15776SOL    HW149160   3.093  11.720   0.409
15776SOL    HW249161   3.159  11.813   0.309
15777SOL     OW49162   2.204  11.480  12.888
15777SOL    HW149163   2.288  11.453  12.853
15777SOL    HW249164   2.152  11.399  12.890
15778SOL     OW49165  14.825   4.263   8.803
15778SOL    HW149166  14.768   4.313   8.862
15778SOL    HW249167  14.830   4.176   8.844
15779SOL     OW49168   3.328  14.605  13.881
15779SOL    HW149169   3.287  14.677  13.834
15779SOL    HW249170   3.394  14.647  13.937
15780SOL     OW49171   4.315  11.949  12.004
15780SOL    HW149172   4.350  12.020  12.059
15780SOL    HW249173   4.356  11.963  11.919
15781SOL     OW49174   1.877  13.564   6.176
15781SOL    HW149175   1.898  13.583   6.267
15781SOL    HW249176   1.951  13.512   6.145
15782SOL     OW49177   2.399   4.969   3.216
15782SOL    HW149178   2.383   5.046   3.269
15782SOL    HW249179   2.491   4.976   3.189
15783SOL     OW49180   9.550   7.507  14.660
15783SOL    HW149181   9.462   7.473  14.677
15783SOL    HW249182   9.604   7.465  14.726
15784SOL     OW49183  10.962   4.173   9.792
15784SOL    HW149184  10.931   4.113   9.861
15784SOL    HW249185  11.051   4.143   9.773
15785SOL     OW49186  14.684  11.975  11.564
15785SOL    HW149187  14.719  11.912  11.627
15785SOL    HW249188  14.660  12.051  11.618
15786SOL     OW49189   5.658   0.741   1.284
15786SOL    HW149190   5.589   0.801   1.255
15786SOL    HW249191   5.634   0.720   1.374
15787SOL     OW49192   1.016  14.090   3.824
15787SOL    HW149193   1.019  14.009   3.772
15787SOL    HW249194   1.089  14.142   3.791
15788SOL     OW49195   8.841   8.764   6.534
15788SOL    HW149196   8.906   8.706   6.496
15788SOL    HW249197   8.773   8.771   6.467
15789SOL     OW49198   2.094   7.532   6.122
15789SOL    HW149199   2.095   7.526   6.218
15789SOL    HW249200   2.134   7.616   6.103
15790SOL     OW49201  13.323  13.911   4.388
15790SOL    HW149202  13.289  13.884   4.303
15790SOL    HW249203  13.395  13.970   4.367
15791SOL     OW49204  10.153  12.572   2.118
15791SOL    HW149205  10.139  12.666   2.128
15791SOL    HW249206  10.078  12.541   2.069
15792SOL     OW49207   8.314   2.165   3.301
15792SOL    HW149208   8.292   2.072   3.296
15792SOL    HW249209   8.359   2.175   3.385
15793SOL     OW49210  14.559  14.335   4.766
15793SOL    HW149211  14.579  14.357   4.675
15793SOL    HW249212  14.511  14.253   4.762
15794SOL     OW49213   2.049   8.962   1.799
15794SOL    HW149214   2.048   9.011   1.716
15794SOL    HW249215   2.052   8.870   1.772
15795SOL     OW49216   0.247   4.804   0.139
15795SOL    HW149217   0.313   4.754   0.092
15795SOL    HW249218   0.246   4.890   0.097
15796SOL     OW49219   8.873   5.123   0.712
15796SOL    HW149220   8.866   5.125   0.808
15796SOL    HW249221   8.905   5.035   0.693
15797SOL     OW49222   4.986   4.773  10.090
15797SOL    HW149223   5.059   4.723  10.125
15797SOL    HW249224   4.996   4.768   9.995
15798SOL     OW49225   7.516   2.450   8.803
15798SOL    HW149226   7.562   2.534   8.798
15798SOL    HW249227   7.464   2.447   8.722
15799SOL     OW49228   8.060   1.969   7.542
15799SOL    HW149229   8.080   2.037   7.478
15799SOL    HW249230   8.039   1.892   7.489
15800SOL     OW49231   5.872  10.951   4.466
15800SOL    HW149232   5.843  10.986   4.551
15800SOL    HW249233   5.929  10.878   4.489
15801SOL     OW49234   9.706   2.797   5.309
15801SOL    HW149235   9.763   2.873   5.326
15801SOL    HW249236   9.636   2.805   5.373
15802SOL     OW49237   0.936   4.876   1.231
15802SOL    HW149238   1.029   4.870   1.211
15802SOL    HW249239   0.932   4.872   1.327
15803SOL     OW49240   0.025  13.316  12.639
15803SOL    HW149241  14.820  13.277  12.624
15803SOL    HW249242   0.046  13.291  12.729
15804SOL     OW49243   6.585  12.256  14.454
15804SOL    HW149244   6.533  12.177  14.440
15804SOL    HW249245   6.675  12.225  14.462
15805SOL     OW49246  10.165  13.799   0.613
15805SOL    HW149247  10.112  13.755   0.679
15805SOL    HW249248  10.255  13.788   0.643
15806SOL     OW49249  13.326  14.168   6.202
15806SOL    HW149250  13.279  14.179   6.285
15806SOL    HW249251  13.355  14.077   6.203
15807SOL     OW49252  10.982   2.505   0.897
15807SOL    HW149253  10.992   2.590   0.941
15807SOL    HW249254  10.955   2.528   0.808
15808SOL     OW49255   5.801  10.160   1.854
15808SOL    HW149256   5.823  10.127   1.766
15808SOL    HW249257   5.866  10.120   1.912
15809SOL     OW49258  12.577   3.933   6.185
15809SOL    HW149259  12.542   3.845   6.196
15809SOL    HW249260  12.629   3.929   6.105
15810SOL     OW49261   6.180  14.623  10.402
15810SOL    HW149262   6.172  14.643  10.309
15810SOL    HW249263   6.267  14.653  10.426
15811SOL     OW49264   8.555   1.571   6.193
15811SOL    HW149265   8.613   1.622   6.136
15811SOL    HW249266   8.487   1.538   6.135
15812SOL     OW49267  12.445  13.777  10.267
15812SOL    HW149268  12.448  13.867  10.301
15812SOL    HW249269  12.352  13.755  10.267
15813SOL     OW49270   4.371   1.488  13.534
15813SOL    HW149271   4.327   1.521  13.612
15813SOL    HW249272   4.389   1.396  13.553
15814SOL     OW49273   0.781   1.735   5.410
15814SOL    HW149274   0.826   1.750   5.327
15814SOL    HW249275   0.703   1.685   5.387
15815SOL     OW49276  12.380   7.844   3.714
15815SOL    HW149277  12.360   7.870   3.804
15815SOL    HW249278  12.441   7.771   3.723
15816SOL     OW49279  12.844   9.906   3.427
15816SOL    HW149280  12.832   9.827   3.375
15816SOL    HW249281  12.793   9.891   3.507
15817SOL     OW49282   1.888   1.796  10.278
15817SOL    HW149283   1.886   1.729  10.347
15817SOL    HW249284   1.853   1.874  10.320
15818SOL     OW49285   3.209  11.102   2.432
15818SOL    HW149286   3.213  11.107   2.336
15818SOL    HW249287   3.301  11.100   2.460
15819SOL     OW49288  11.995   1.333  12.127
15819SOL    HW149289  11.927   1.398  12.110
15819SOL    HW249290  11.955   1.249  12.107
15820SOL     OW49291   3.013   6.297  11.601
15820SOL    HW149292   2.973   6.297  11.688
15820SOL    HW249293   3.021   6.205  11.577
15821SOL     OW49294   2.785   9.506   3.162
15821SOL    HW149295   2.842   9.441   3.119
15821SOL    HW249296   2.726   9.536   3.093
15822SOL     OW49297  14.264   9.976   9.811
15822SOL    HW149298  14.215   9.932   9.741
15822SOL    HW249299  14.237   9.932   9.891
15823SOL     OW49300   4.485   2.895   6.427
15823SOL    HW149301   4.469   2.805   6.454
15823SOL    HW249302   4.570   2.917   6.466
15824SOL     OW49303   6.445  11.975   0.854
15824SOL    HW149304   6.366  11.934   0.817
15824SOL    HW249305   6.490  11.903   0.899
15825SOL     OW49306  10.862   5.897   5.013
15825SOL    HW149307  10.783   5.946   4.989
15825SOL    HW249308  10.910   5.956   5.071
15826SOL     OW49309  12.141  11.432  11.518
15826SOL    HW149310  12.219  11.444  11.572
15826SOL    HW249311  12.136  11.338  11.503
15827SOL     OW49312  13.293   6.145   8.709
15827SOL    HW149313  13.368   6.156   8.650
15827SOL    HW249314  13.333   6.121   8.793
15828SOL     OW49315   0.135   1.408   2.017
15828SOL    HW149316   0.135   1.404   1.921
15828SOL    HW249317   0.220   1.445   2.039
15829SOL     OW49318   2.050   2.201   7.924
15829SOL    HW149319   2.015   2.126   7.973
15829SOL    HW249320   2.131   2.223   7.969
15830SOL     OW49321  12.604   3.327  12.939
15830SOL    HW149322  12.597   3.383  13.016
15830SOL    HW249323  12.696   3.302  12.935
15831SOL     OW49324   6.246   6.136  10.325
15831SOL    HW149325   6.175   6.186  10.286
15831SOL    HW249326   6.214   6.045  10.325
15832SOL     OW49327  12.612   1.229   4.963
15832SOL    HW149328  12.654   1.181   4.892
15832SOL    HW249329  12.536   1.272   4.921
15833SOL     OW49330   1.816   9.890   4.001
15833SOL    HW149331   1.905   9.871   3.973
15833SOL    HW249332   1.786   9.959   3.941
15834SOL     OW49333   5.391   6.239  11.256
15834SOL    HW149334   5.394   6.206  11.346
15834SOL    HW249335   5.422   6.165  11.203
15835SOL     OW49336   3.734  12.887   4.631
15835SOL    HW149337   3.681  12.836   4.570
15835SOL    HW249338   3.825  12.865   4.609
15836SOL     OW49339  10.563   3.909  12.326
15836SOL    HW149340  10.589   3.994  12.292
15836SOL    HW249341  10.643   3.856  12.322
15837SOL     OW49342   8.716   8.932   5.155
15837SOL    HW149343   8.634   8.973   5.128
15837SOL    HW249344   8.697   8.838   5.152
15838SOL     OW49345  14.570   6.944   3.929
15838SOL    HW149346  14.647   6.932   3.984
15838SOL    HW249347  14.586   6.887   3.853
15839SOL     OW49348   9.802   6.029   8.832
15839SOL    HW149349   9.793   5.934   8.833
15839SOL    HW249350   9.895   6.043   8.811
15840SOL     OW49351   1.695   5.340  13.450
15840SOL    HW149352   1.760   5.362  13.516
15840SOL    HW249353   1.611   5.345  13.497
15841SOL     OW49354  11.917   6.991   7.436
15841SOL    HW149355  12.004   7.027   7.453
15841SOL    HW249356  11.902   6.931   7.510
15842SOL     OW49357  13.969   7.087   0.115
15842SOL    HW149358  13.919   7.011   0.086
15842SOL    HW249359  14.041   7.051   0.167
15843SOL     OW49360  10.252   8.996   5.252
15843SOL    HW149361  10.213   9.043   5.178
15843SOL    HW249362  10.234   8.904   5.233
15844SOL     OW49363   0.028   3.270   0.370
15844SOL    HW149364   0.059   3.181   0.354
15844SOL    HW249365  14.875   3.299   0.286
15845SOL     OW49366   2.158   1.403  10.759
15845SOL    HW149367   2.100   1.364  10.694
15845SOL    HW249368   2.099   1.435  10.828
15846SOL     OW49369   7.405   5.266   0.939
15846SOL    HW149370   7.316   5.256   0.907
15846SOL    HW249371   7.454   5.195   0.896
15847SOL     OW49372   1.914   8.006   5.167
15847SOL    HW149373   1.836   8.028   5.217
15847SOL    HW249374   1.891   7.925   5.121
15848SOL     OW49375  10.394   5.819   1.846
15848SOL    HW149376  10.348   5.864   1.917
15848SOL    HW249377  10.384   5.726   1.866
15849SOL     OW49378   2.020   4.820   5.205
15849SOL    HW149379   1.957   4.756   5.239
15849SOL    HW249380   1.969   4.877   5.149
15850SOL     OW49381   0.404   2.345  12.433
15850SOL    HW149382   0.311   2.335  12.457
15850SOL    HW249383   0.435   2.256  12.420
15851SOL     OW49384   0.983   5.416  10.911
15851SOL    HW149385   0.896   5.412  10.871
15851SOL    HW249386   1.009   5.508  10.900
15852SOL     OW49387   3.367   5.211   5.266
15852SOL    HW149388   3.338   5.285   5.211
15852SOL    HW249389   3.462   5.212   5.259
15853SOL     OW49390   8.406  12.474   6.452
15853SOL    HW149391   8.326  12.424   6.469
15853SOL    HW249392   8.474  12.429   6.502
15854SOL     OW49393   6.807  11.050   6.508
15854SOL    HW149394   6.857  11.029   6.586
15854SOL    HW249395   6.718  11.065   6.539
15855SOL     OW49396  11.868  13.190  13.713
15855SOL    HW149397  11.891  13.246  13.786
15855SOL    HW249398  11.926  13.218  13.642
15856SOL     OW49399   2.959   0.140  12.770
15856SOL    HW149400   2.912   0.207  12.721
15856SOL    HW249401   2.903   0.063  12.766
15857SOL     OW49402   1.125   8.429  10.472
15857SOL    HW149403   1.140   8.519  10.502
15857SOL    HW249404   1.207   8.384  10.488
15858SOL     OW49405   7.381  11.675   0.212
15858SOL    HW149406   7.455  11.646   0.158
15858SOL    HW249407   7.365  11.765   0.184
15859SOL     OW49408  13.473  12.020  13.373
15859SOL    HW149409  13.490  12.105  13.412
15859SOL    HW249410  13.386  11.996  13.405
15860SOL     OW49411  10.283  10.024   4.227
15860SOL    HW149412  10.272  10.088   4.297
15860SOL    HW249413  10.302   9.941   4.272
15861SOL     OW49414   7.686  12.768  11.769
15861SOL    HW149415   7.733  12.831  11.824
15861SOL    HW249416   7.648  12.706  11.831
15862SOL     OW49417   5.324   4.930   1.738
15862SOL    HW149418   5.360   4.861   1.682
15862SOL    HW249419   5.396   4.991   1.750
15863SOL     OW49420  12.336  14.135   0.650
15863SOL    HW149421  12.326  14.067   0.716
15863SOL    HW249422  12.283  14.208   0.682
15864SOL     OW49423   1.562   0.761   6.515
15864SOL    HW149424   1.606   0.711   6.584
15864SOL    HW249425   1.555   0.700   6.442
15865SOL     OW49426   1.635   7.473   9.044
15865SOL    HW149427   1.634   7.453   8.950
15865SOL    HW249428   1.645   7.388   9.087
15866SOL     OW49429   5.250   2.381  12.820
15866SOL    HW149430   5.201   2.452  12.862
15866SOL    HW249431   5.183   2.328  12.777
15867SOL     OW49432   3.839   5.064   4.550
15867SOL    HW149433   3.853   5.159   4.554
15867SOL    HW249434   3.801   5.041   4.634
15868SOL     OW49435  13.583   6.554   1.415
15868SOL    HW149436  13.585   6.579   1.508
15868SOL    HW249437  13.492   6.567   1.389
15869SOL     OW49438   9.145   1.578   0.566
15869SOL    HW149439   9.140   1.503   0.507
15869SOL    HW249440   9.159   1.539   0.653
15870SOL     OW49441  10.157  13.697   8.015
15870SOL    HW149442  10.129  13.650   8.094
15870SOL    HW249443  10.097  13.667   7.946
15871SOL     OW49444  12.552   2.125  13.573
15871SOL    HW149445  12.615   2.175  13.521
15871SOL    HW249446  12.563   2.034  13.545
15872SOL     OW49447   5.382   3.726  10.496
15872SOL    HW149448   5.326   3.654  10.527
15872SOL    HW249449   5.385   3.715  10.401
15873SOL     OW49450  14.858   7.203  14.555
15873SOL    HW149451   0.055   7.149  14.560
15873SOL    HW249452  14.868   7.269  14.623
15874SOL     OW49453   2.705  12.295   4.394
15874SOL    HW149454   2.756  12.306   4.314
15874SOL    HW249455   2.703  12.382   4.434
15875SOL     OW49456   1.251   1.143   8.943
15875SOL    HW149457   1.177   1.120   8.999
15875SOL    HW249458   1.323   1.162   9.003
15876SOL     OW49459   6.920  11.362  12.278
15876SOL    HW149460   6.983  11.411  12.330
15876SOL    HW249461   6.925  11.401  12.191
15877SOL     OW49462   3.860   2.016  14.246
15877SOL    HW149463   3.891   1.966  14.322
15877SOL    HW249464   3.765   2.017  14.255
15878SOL     OW49465  12.836   4.794   5.390
15878SOL    HW149466  12.778   4.819   5.462
15878SOL    HW249467  12.838   4.871   5.333
15879SOL     OW49468   1.616   1.084  11.518
15879SOL    HW149469   1.626   1.159  11.577
15879SOL    HW249470   1.698   1.081  11.468
15880SOL     OW49471  13.651  11.707  10.382
15880SOL    HW149472  13.725  11.758  10.414
15880SOL    HW249473  13.625  11.652  10.456
15881SOL     OW49474   4.090   5.544   5.336
15881SOL    HW149475   4.098   5.600   5.259
15881SOL    HW249476   4.170   5.561   5.386
15882SOL     OW49477   9.564   4.703  12.359
15882SOL    HW149478   9.566   4.607  12.358
15882SOL    HW249479   9.653   4.729  12.335
15883SOL     OW49480   8.367  13.053  11.536
15883SOL    HW149481   8.448  13.095  11.507
15883SOL    HW249482   8.377  13.044  11.631
15884SOL     OW49483  11.998   5.892   7.078
15884SOL    HW149484  11.907   5.916   7.057
15884SOL    HW249485  12.047   5.974   7.070
15885SOL     OW49486   0.557   7.593   2.100
15885SOL    HW149487   0.491   7.588   2.030
15885SOL    HW249488   0.516   7.648   2.167
15886SOL     OW49489  12.194   3.752   3.436
15886SOL    HW149490  12.199   3.826   3.497
15886SOL    HW249491  12.102   3.749   3.411
15887SOL     OW49492   4.221  13.990  10.767
15887SOL    HW149493   4.172  14.053  10.715
15887SOL    HW249494   4.156  13.926  10.797
15888SOL     OW49495   7.573   5.226  13.151
15888SOL    HW149496   7.550   5.189  13.236
15888SOL    HW249497   7.494   5.271  13.122
15889SOL     OW49498  10.698   4.657   7.471
15889SOL    HW149499  10.624   4.688   7.523
15889SOL    HW249500  10.746   4.598   7.530
15890SOL     OW49501   3.254  10.750  12.329
15890SOL    HW149502   3.210  10.668  12.308
15890SOL    HW249503   3.184  10.807  12.360
15891SOL     OW49504  12.593  13.377  11.480
15891SOL    HW149505  12.620  13.366  11.571
15891SOL    HW249506  12.661  13.431  11.441
15892SOL     OW49507   6.212   2.765  10.173
15892SOL    HW149508   6.284   2.828  10.164
15892SOL    HW249509   6.247   2.697  10.230
15893SOL     OW49510  11.631   5.768  11.019
15893SOL    HW149511  11.715   5.799  10.986
15893SOL    HW249512  11.619   5.814  11.102
15894SOL     OW49513  12.140   8.678   8.857
15894SOL    HW149514  12.234   8.660   8.856
15894SOL    HW249515  12.130   8.758   8.805
15895SOL     OW49516   9.362  14.386   3.149
15895SOL    HW149517   9.334  14.451   3.084
15895SOL    HW249518   9.297  14.394   3.219
15896SOL     OW49519   2.743   9.109   6.671
15896SOL    HW149520   2.779   9.129   6.758
15896SOL    HW249521   2.650   9.095   6.687
15897SOL     OW49522   7.763   9.217   1.092
15897SOL    HW149523   7.710   9.242   1.167
15897SOL    HW249524   7.703   9.171   1.034
15898SOL     OW49525   2.770   6.465   0.318
15898SOL    HW149526   2.776   6.561   0.324
15898SOL    HW249527   2.857   6.438   0.286
15899SOL     OW49528   3.872  10.182   0.161
15899SOL    HW149529   3.876  10.127   0.239
15899SOL    HW249530   3.946  10.242   0.170
15900SOL     OW49531   9.934  12.214   5.057
15900SOL    HW149532   9.881  12.135   5.067
15900SOL    HW249533   9.991  12.215   5.134
15901SOL     OW49534  14.396   7.300  10.846
15901SOL    HW149535  14.397   7.351  10.927
15901SOL    HW249536  14.413   7.210  10.875
15902SOL     OW49537  10.390   2.137  11.895
15902SOL    HW149538  10.310   2.190  11.896
15902SOL    HW249539  10.409   2.121  11.988
15903SOL     OW49540   1.035  10.633  11.281
15903SOL    HW149541   1.127  10.658  11.271
15903SOL    HW249542   1.038  10.547  11.322
15904SOL     OW49543   7.716   1.126  10.308
15904SOL    HW149544   7.756   1.099  10.391
15904SOL    HW249545   7.634   1.167  10.333
15905SOL     OW49546   3.199  12.658   2.603
15905SOL    HW149547   3.252  12.583   2.631
15905SOL    HW249548   3.143  12.677   2.678
15906SOL     OW49549   1.157  12.347   6.311
15906SOL    HW149550   1.238  12.387   6.343
15906SOL    HW249551   1.088  12.410   6.333
15907SOL     OW49552   9.156   5.540   7.691
15907SOL    HW149553   9.147   5.452   7.728
15907SOL    HW249554   9.244   5.542   7.653
15908SOL     OW49555   1.246  13.550   7.856
15908SOL    HW149556   1.194  13.577   7.780
15908SOL    HW249557   1.263  13.631   7.904
15909SOL     OW49558   3.455   2.902   4.326
15909SOL    HW149559   3.532   2.934   4.373
15909SOL    HW249560   3.414   2.981   4.290
15910SOL     OW49561  14.833   0.278   7.604
15910SOL    HW149562  14.859   0.209   7.544
15910SOL    HW249563   0.033   0.325   7.623
15911SOL     OW49564   5.794   7.682   8.667
15911SOL    HW149565   5.812   7.588   8.677
15911SOL    HW249566   5.868   7.715   8.615
15912SOL     OW49567   2.935  12.925   3.568
15912SOL    HW149568   2.864  12.982   3.599
15912SOL    HW249569   2.894  12.838   3.563
15913SOL     OW49570   2.956   0.241   4.423
15913SOL    HW149571   2.945   0.302   4.496
15913SOL    HW249572   2.949   0.296   4.345
15914SOL     OW49573   7.778   4.068   5.807
15914SOL    HW149574   7.815   4.065   5.895
15914SOL    HW249575   7.729   4.150   5.804
15915SOL     OW49576   1.457  11.353   2.076
15915SOL    HW149577   1.382  11.397   2.035
15915SOL    HW249578   1.458  11.266   2.037
15916SOL     OW49579   4.587  10.693  10.078
15916SOL    HW149580   4.531  10.619  10.101
15916SOL    HW249581   4.526  10.768  10.072
15917SOL     OW49582   1.690  12.443  14.723
15917SOL    HW149583   1.614  12.411  14.772
15917SOL    HW249584   1.758  12.452  14.789
15918SOL     OW49585   1.159   1.110   2.255
15918SOL    HW149586   1.203   1.168   2.316
15918SOL    HW249587   1.209   1.028   2.260
15919SOL     OW49588  14.657   6.984  14.848
15919SOL    HW149589  14.662   7.054   0.031
15919SOL    HW249590  14.749   6.967  14.825
15920SOL     OW49591   8.372   2.396  14.054
15920SOL    HW149592   8.407   2.481  14.081
15920SOL    HW249593   8.317   2.416  13.978
15921SOL     OW49594   8.892   2.120   2.299
15921SOL    HW149595   8.936   2.129   2.215
15921SOL    HW249596   8.943   2.054   2.346
15922SOL     OW49597  10.830   5.370   5.888
15922SOL    HW149598  10.833   5.275   5.893
15922SOL    HW249599  10.912   5.399   5.926
15923SOL     OW49600   9.000  12.698  10.154
15923SOL    HW149601   9.040  12.709  10.068
15923SOL    HW249602   8.916  12.744  10.147
15924SOL     OW49603   3.515   2.579  11.426
15924SOL    HW149604   3.528   2.654  11.484
15924SOL    HW249605   3.430   2.596  11.385
15925SOL     OW49606  14.112  11.401   6.189
15925SOL    HW149607  14.078  11.468   6.248
15925SOL    HW249608  14.108  11.320   6.240
15926SOL     OW49609  12.150   5.071   5.522
15926SOL    HW149610  12.129   5.133   5.592
15926SOL    HW249611  12.245   5.056   5.531
15927SOL     OW49612   5.534  13.414  10.244
15927SOL    HW149613   5.602  13.356  10.209
15927SOL    HW249614   5.578  13.465  10.312
15928SOL     OW49615   1.938   2.662  12.310
15928SOL    HW149616   1.973   2.699  12.229
15928SOL    HW249617   1.844   2.682  12.307
15929SOL     OW49618   8.739   2.284  11.148
15929SOL    HW149619   8.729   2.328  11.064
15929SOL    HW249620   8.807   2.333  11.193
15930SOL     OW49621   0.449   4.698   3.754
15930SOL    HW149622   0.490   4.614   3.774
15930SOL    HW249623   0.373   4.703   3.812
15931SOL     OW49624   8.539  14.454  10.874
15931SOL    HW149625   8.483  14.528  10.899
15931SOL    HW249626   8.521  14.441  10.781
15932SOL     OW49627   1.730   3.050   0.747
15932SOL    HW149628   1.774   2.981   0.697
15932SOL    HW249629   1.802   3.103   0.782
15933SOL     OW49630   3.641  10.082   0.662
15933SOL    HW149631   3.565  10.091   0.719
15933SOL    HW249632   3.688  10.006   0.696
15934SOL     OW49633  12.915   3.501   7.363
15934SOL    HW149634  12.921   3.497   7.458
15934SOL    HW249635  12.841   3.444   7.341
15935SOL     OW49636   3.492   7.296   6.388
15935SOL    HW149637   3.556   7.317   6.320
15935SOL    HW249638   3.462   7.208   6.367
15936SOL     OW49639   7.931  13.190   3.470
15936SOL    HW149640   7.946  13.257   3.403
15936SOL    HW249641   7.839  13.202   3.495
15937SOL     OW49642   2.596  13.866   8.256
15937SOL    HW149643   2.537  13.938   8.233
15937SOL    HW249644   2.559  13.830   8.337
15938SOL     OW49645   6.552   2.109   0.679
15938SOL    HW149646   6.457   2.097   0.676
15938SOL    HW249647   6.584   2.032   0.726
15939SOL     OW49648   6.939  14.726   1.404
15939SOL    HW149649   6.987  14.654   1.363
15939SOL    HW249650   6.857  14.731   1.356
15940SOL     OW49651   5.887  10.548  12.436
15940SOL    HW149652   5.887  10.525  12.529
15940SOL    HW249653   5.935  10.476  12.394
15941SOL     OW49654  12.628  14.557   4.141
15941SOL    HW149655  12.607  14.545   4.048
15941SOL    HW249656  12.669  14.644   4.145
15942SOL     OW49657   1.958   9.925   7.549
15942SOL    HW149658   1.895   9.857   7.573
15942SOL    HW249659   2.024   9.880   7.496
15943SOL     OW49660   3.505   4.157  13.929
15943SOL    HW149661   3.581   4.133  13.876
15943SOL    HW249662   3.432   4.162  13.867
15944SOL     OW49663   4.457  11.089  11.579
15944SOL    HW149664   4.406  11.166  11.604
15944SOL    HW249665   4.486  11.107  11.490
15945SOL     OW49666   3.261  14.231  12.643
15945SOL    HW149667   3.264  14.272  12.729
15945SOL    HW249668   3.253  14.304  12.582
15946SOL     OW49669   4.825   5.482   7.141
15946SOL    HW149670   4.890   5.519   7.200
15946SOL    HW249671   4.800   5.399   7.181
15947SOL     OW49672   4.552  12.839  14.264
15947SOL    HW149673   4.541  12.933  14.255
15947SOL    HW249674   4.476  12.811  14.316
15948SOL     OW49675  11.802  12.695  11.969
15948SOL    HW149676  11.857  12.624  12.000
15948SOL    HW249677  11.809  12.691  11.873
15949SOL     OW49678   1.954   2.262   3.703
15949SOL    HW149679   1.949   2.341   3.757
15949SOL    HW249680   1.876   2.265   3.648
15950SOL     OW49681  10.624   7.064   4.609
15950SOL    HW149682  10.547   7.116   4.629
15950SOL    HW249683  10.698   7.121   4.628
15951SOL     OW49684   9.728   6.892   9.626
15951SOL    HW149685   9.729   6.984   9.600
15951SOL    HW249686   9.697   6.845   9.548
15952SOL     OW49687   4.756   8.072  14.846
15952SOL    HW149688   4.827   8.135  14.852
15952SOL    HW249689   4.679   8.124  14.821
15953SOL     OW49690   2.277   5.658  12.479
15953SOL    HW149691   2.206   5.635  12.539
15953SOL    HW249692   2.324   5.576  12.465
15954SOL     OW49693  14.419   2.611  13.382
15954SOL    HW149694  14.384   2.693  13.419
15954SOL    HW249695  14.343   2.568  13.342
15955SOL     OW49696   7.995   6.894  13.985
15955SOL    HW149697   8.035   6.853  13.908
15955SOL    HW249698   8.068   6.910  14.045
15956SOL     OW49699  10.738   4.399   3.842
15956SOL    HW149700  10.696   4.353   3.769
15956SOL    HW249701  10.822   4.353   3.854
15957SOL     OW49702  14.509  10.514  10.988
15957SOL    HW149703  14.511  10.454  10.914
15957SOL    HW249704  14.428  10.564  10.976
15958SOL     OW49705  13.580   8.081   4.156
15958SOL    HW149706  13.562   8.145   4.225
15958SOL    HW249707  13.551   7.997   4.193
15959SOL     OW49708   6.359  14.717   8.337
15959SOL    HW149709   6.321  14.685   8.255
15959SOL    HW249710   6.427  14.778   8.309
15960SOL     OW49711  14.311  13.042  12.860
15960SOL    HW149712  14.255  12.977  12.817
15960SOL    HW249713  14.387  12.993  12.890
15961SOL     OW49714  13.059   9.970   6.023
15961SOL    HW149715  13.069  10.052   6.071
15961SOL    HW249716  12.992   9.988   5.958
15962SOL     OW49717   5.743   8.037   2.711
15962SOL    HW149718   5.718   7.994   2.793
15962SOL    HW249719   5.689   8.116   2.707
15963SOL     OW49720   2.333   0.434   8.804
15963SOL    HW149721   2.409   0.488   8.782
15963SOL    HW249722   2.309   0.392   8.721
15964SOL     OW49723   5.189  12.113   1.360
15964SOL    HW149724   5.145  12.106   1.276
15964SOL    HW249725   5.281  12.096   1.340
15965SOL     OW49726  10.797   4.751   0.891
15965SOL    HW149727  10.758   4.797   0.965
15965SOL    HW249728  10.891   4.753   0.908
15966SOL     OW49729   1.201   4.837  13.684
15966SOL    HW149730   1.162   4.807  13.602
15966SOL    HW249731   1.295   4.833  13.669
15967SOL     OW49732  11.787   4.735   6.531
15967SOL    HW149733  11.867   4.684   6.545
15967SOL    HW249734  11.748   4.697   6.452
15968SOL     OW49735   6.050  12.446  12.094
15968SOL    HW149736   6.086  12.357  12.094
15968SOL    HW249737   6.013  12.458  12.006
15969SOL     OW49738   7.255   4.105  12.306
15969SOL    HW149739   7.210   4.085  12.388
15969SOL    HW249740   7.247   4.200  12.296
15970SOL     OW49741  11.857   7.993   3.379
15970SOL    HW149742  11.853   7.907   3.421
15970SOL    HW249743  11.767   8.026   3.384
15971SOL     OW49744   3.449   7.289   6.656
15971SOL    HW149745   3.518   7.286   6.590
15971SOL    HW249746   3.376   7.242   6.616
15972SOL     OW49747   3.237  12.339  10.997
15972SOL    HW149748   3.242  12.420  11.047
15972SOL    HW249749   3.286  12.358  10.916
15973SOL     OW49750   9.640  10.479  14.287
15973SOL    HW149751   9.636  10.485  14.191
15973SOL    HW249752   9.622  10.568  14.317
15974SOL     OW49753  12.415   4.562  10.667
15974SOL    HW149754  12.370   4.621  10.607
15974SOL    HW249755  12.507   4.567  10.641
15975SOL     OW49756   9.299  10.485   1.791
15975SOL    HW149757   9.370  10.491   1.728
15975SOL    HW249758   9.259  10.399   1.775
15976SOL     OW49759   0.492  10.202   8.440
15976SOL    HW149760   0.480  10.293   8.466
15976SOL    HW249761   0.436  10.191   8.363
15977SOL     OW49762   9.771   1.318   4.853
15977SOL    HW149763   9.721   1.287   4.929
15977SOL    HW249764   9.794   1.238   4.805
15978SOL     OW49765   5.498   6.929   3.535
15978SOL    HW149766   5.557   6.959   3.466
15978SOL    HW249767   5.423   6.988   3.532
15979SOL     OW49768  11.437  11.944  14.322
15979SOL    HW149769  11.500  11.954  14.251
15979SOL    HW249770  11.370  12.009  14.304
15980SOL     OW49771  10.552   0.804  10.318
15980SOL    HW149772  10.484   0.845  10.371
15980SOL    HW249773  10.539   0.710  10.329
15981SOL     OW49774   1.438  11.930  14.600
15981SOL    HW149775   1.514  11.878  14.573
15981SOL    HW249776   1.472  12.018  14.614
15982SOL     OW49777   7.542   6.992   4.515
15982SOL    HW149778   7.451   7.014   4.537
15982SOL    HW249779   7.536   6.948   4.431
15983SOL     OW49780  10.007  12.572  13.872
15983SOL    HW149781   9.912  12.570  13.857
15983SOL    HW249782  10.017  12.550  13.965
15984SOL     OW49783   2.859  10.663   0.292
15984SOL    HW149784   2.773  10.684   0.256
15984SOL    HW249785   2.858  10.568   0.304
15985SOL     OW49786  14.806   9.839  10.931
15985SOL    HW149787  14.827   9.911  10.871
15985SOL    HW249788  14.710   9.834  10.929
15986SOL     OW49789  10.564   8.416  14.352
15986SOL    HW149790  10.493   8.463  14.308
15986SOL    HW249791  10.566   8.454  14.440
15987SOL     OW49792   9.813   5.971   6.770
15987SOL    HW149793   9.824   6.058   6.808
15987SOL    HW249794   9.879   5.965   6.702
15988SOL     OW49795  12.881   0.246  13.926
15988SOL    HW149796  12.971   0.260  13.897
15988SOL    HW249797  12.827   0.278  13.854
15989SOL     OW49798   6.433  10.273   4.041
15989SOL    HW149799   6.345  10.244   4.018
15989SOL    HW249800   6.420  10.329   4.118
15990SOL     OW49801   4.943   3.861   4.709
15990SOL    HW149802   4.980   3.807   4.779
15990SOL    HW249803   4.998   3.939   4.707
15991SOL     OW49804   3.198   9.637   9.955
15991SOL    HW149805   3.231   9.586  10.029
15991SOL    HW249806   3.170   9.571   9.891
15992SOL     OW49807  14.264   7.026   5.889
15992SOL    HW149808  14.172   7.034   5.866
15992SOL    HW249809  14.288   7.112   5.925
15993SOL     OW49810   2.153  12.513   4.068
15993SOL    HW149811   2.199  12.581   4.018
15993SOL    HW249812   2.153  12.437   4.010
15994SOL     OW49813   4.312   8.175   3.547
15994SOL    HW149814   4.249   8.117   3.504
15994SOL    HW249815   4.271   8.261   3.543
15995SOL     OW49816   0.446  14.357   7.241
15995SOL    HW149817   0.467  14.409   7.318
15995SOL    HW249818   0.355  14.331   7.254
15996SOL     OW49819   9.727   5.041   2.487
15996SOL    HW149820   9.767   5.061   2.402
15996SOL    HW249821   9.745   5.118   2.541
15997SOL     OW49822   0.721  10.569   0.250
15997SOL    HW149823   0.784  10.602   0.314
15997SOL    HW249824   0.679  10.495   0.294
15998SOL     OW49825   3.162  13.513   9.382
15998SOL    HW149826   3.110  13.522   9.462
15998SOL    HW249827   3.123  13.577   9.322
15999SOL     OW49828   4.206   0.690   1.661
15999SOL    HW149829   4.132   0.750   1.669
15999SOL    HW249830   4.167   0.603   1.674
16000SOL     OW49831   8.604   2.674   8.708
16000SOL    HW149832   8.585   2.714   8.793
16000SOL    HW249833   8.699   2.681   8.699
16001SOL     OW49834  13.662   2.554  13.951
16001SOL    HW149835  13.607   2.596  14.018
16001SOL    HW249836  13.746   2.599  13.957
16002SOL     OW49837  10.327   5.489   9.831
16002SOL    HW149838  10.339   5.476   9.737
16002SOL    HW249839  10.408   5.530   9.861
16003SOL     OW49840   5.153   3.592  13.180
16003SOL    HW149841   5.069   3.589  13.134
16003SOL    HW249842   5.129   3.597  13.273
16004SOL     OW49843   5.801   6.471   7.377
16004SOL    HW149844   5.805   6.423   7.459
16004SOL    HW249845   5.853   6.550   7.392
16005SOL     OW49846   6.175   5.228  10.905
16005SOL    HW149847   6.183   5.154  10.965
16005SOL    HW249848   6.231   5.295  10.943
16006SOL     OW49849   5.350   1.050   9.744
16006SOL    HW149850   5.263   1.012   9.731
16006SOL    HW249851   5.341   1.141   9.715
16007SOL     OW49852   5.480   3.981   7.668
16007SOL    HW149853   5.532   3.906   7.698
16007SOL    HW249854   5.520   4.006   7.585
16008SOL     OW49855   6.272   0.688   6.015
16008SOL    HW149856   6.262   0.767   6.069
16008SOL    HW249857   6.252   0.616   6.075
16009SOL     OW49858  13.856   8.391   1.433
16009SOL    HW149859  13.916   8.367   1.363
16009SOL    HW249860  13.877   8.482   1.453
16010SOL     OW49861   4.788  11.998  13.836
16010SOL    HW149862   4.883  11.992  13.842
16010SOL    HW249863   4.756  11.956  13.916
16011SOL     OW49864   0.816  13.567   8.376
16011SOL    HW149865   0.766  13.540   8.452
16011SOL    HW249866   0.859  13.486   8.346
16012SOL     OW49867   5.506  10.627   6.374
16012SOL    HW149868   5.561  10.683   6.320
16012SOL    HW249869   5.558  10.609   6.452
16013SOL     OW49870   6.065   6.271   3.046
16013SOL    HW149871   6.150   6.244   3.010
16013SOL    HW249872   6.055   6.218   3.125
16014SOL     OW49873  12.121   7.143  10.465
16014SOL    HW149874  12.133   7.048  10.459
16014SOL    HW249875  12.082   7.168  10.382
16015SOL     OW49876   2.559  11.355   4.289
16015SOL    HW149877   2.534  11.302   4.364
16015SOL    HW249878   2.589  11.291   4.224
16016SOL     OW49879  14.822  10.781   4.476
16016SOL    HW149880  14.805  10.775   4.570
16016SOL    HW249881  14.765  10.715   4.437
16017SOL     OW49882  13.205   9.204   7.483
16017SOL    HW149883  13.219   9.217   7.390
16017SOL    HW249884  13.109   9.201   7.493
16018SOL     OW49885   5.668  10.316   6.383
16018SOL    HW149886   5.698  10.373   6.312
16018SOL    HW249887   5.588  10.275   6.348
16019SOL     OW49888   6.974  12.897  12.003
16019SOL    HW149889   6.913  12.847  11.949
16019SOL    HW249890   6.959  12.988  11.978
16020SOL     OW49891   5.723   1.837  13.053
16020SOL    HW149892   5.733   1.889  13.133
16020SOL    HW249893   5.812   1.821  13.023
16021SOL     OW49894   0.065  10.724  10.270
16021SOL    HW149895   0.115  10.642  10.268
16021SOL    HW249896  14.857  10.697  10.287
16022SOL     OW49897   4.362   0.145   9.206
16022SOL    HW149898   4.428   0.087   9.245
16022SOL    HW249899   4.313   0.089   9.147
16023SOL     OW49900  10.519   9.332   2.350
16023SOL    HW149901  10.489   9.421   2.327
16023SOL    HW249902  10.610   9.344   2.377
16024SOL     OW49903   9.040  14.605  13.077
16024SOL    HW149904   9.001  14.517  13.072
16024SOL    HW249905   9.133  14.588  13.095
16025SOL     OW49906  11.807   4.343   1.667
16025SOL    HW149907  11.872   4.295   1.718
16025SOL    HW249908  11.795   4.290   1.588
16026SOL     OW49909   9.853   6.877  11.305
16026SOL    HW149910   9.776   6.934  11.310
16026SOL    HW249911   9.821   6.792  11.336
16027SOL     OW49912   3.171  14.219   8.166
16027SOL    HW149913   3.171  14.267   8.083
16027SOL    HW249914   3.171  14.127   8.140
16028SOL     OW49915  12.211   5.191   3.392
16028SOL    HW149916  12.235   5.279   3.362
16028SOL    HW249917  12.236   5.134   3.319
16029SOL     OW49918  10.806   4.045   5.633
16029SOL    HW149919  10.800   4.086   5.720
16029SOL    HW249920  10.739   4.090   5.581
16030SOL     OW49921   5.086   7.932  11.327
16030SOL    HW149922   5.029   7.863  11.292
16030SOL    HW249923   5.042   7.961  11.407
16031SOL     OW49924  14.799  10.454   3.513
16031SOL    HW149925  14.747  10.400   3.454
16031SOL    HW249926  14.751  10.537   3.517
16032SOL     OW49927   3.542   5.085  11.971
16032SOL    HW149928   3.593   5.004  11.973
16032SOL    HW249929   3.604   5.152  11.942
16033SOL     OW49930   5.100  10.542   7.972
16033SOL    HW149931   5.178  10.594   7.989
16033SOL    HW249932   5.107  10.518   7.879
16034SOL     OW49933  12.371   3.869  12.706
16034SOL    HW149934  12.334   3.921  12.635
16034SOL    HW249935  12.321   3.787  12.704
16035SOL     OW49936  10.700   1.318  10.678
16035SOL    HW149937  10.744   1.394  10.715
16035SOL    HW249938  10.751   1.296  10.600
16036SOL     OW49939   2.543   1.736   4.804
16036SOL    HW149940   2.617   1.690   4.845
16036SOL    HW249941   2.582   1.781   4.729
16037SOL     OW49942   9.374  11.994   0.637
16037SOL    HW149943   9.378  12.041   0.554
16037SOL    HW249944   9.436  11.922   0.627
16038SOL     OW49945   9.101  14.117  13.932
16038SOL    HW149946   9.033  14.161  13.880
16038SOL    HW249947   9.171  14.181  13.939
16039SOL     OW49948  14.759   0.572   2.480
16039SOL    HW149949  14.676   0.605   2.515
16039SOL    HW249950  14.735   0.533   2.396
16040SOL     OW49951  14.793   7.629   3.440
16040SOL    HW149952  14.701   7.608   3.423
16040SOL    HW249953  14.807   7.713   3.396
16041SOL     OW49954   3.675   8.217  10.368
16041SOL    HW149955   3.738   8.146  10.356
16041SOL    HW249956   3.688   8.274  10.292
16042SOL     OW49957   6.298   8.103   5.071
16042SOL    HW149958   6.233   8.095   5.141
16042SOL    HW249959   6.248   8.091   4.991
16043SOL     OW49960  10.335  11.868   0.558
16043SOL    HW149961  10.394  11.792   0.553
16043SOL    HW249962  10.247  11.831   0.547
16044SOL     OW49963  11.871   1.324  11.064
16044SOL    HW149964  11.892   1.235  11.091
16044SOL    HW249965  11.843   1.316  10.973
16045SOL     OW49966   0.650   9.814   5.568
16045SOL    HW149967   0.679   9.905   5.556
16045SOL    HW249968   0.581   9.820   5.635
16046SOL     OW49969  11.994   6.344  13.533
16046SOL    HW149970  12.042   6.417  13.571
16046SOL    HW249971  11.955   6.299  13.607
16047SOL     OW49972  10.094  12.461   4.430
16047SOL    HW149973  10.184  12.472   4.463
16047SOL    HW249974  10.095  12.505   4.346
16048SOL     OW49975   5.348  14.222   8.365
16048SOL    HW149976   5.374  14.136   8.334
16048SOL    HW249977   5.349  14.214   8.461
16049SOL     OW49978  10.914   1.951   8.747
16049SOL    HW149979  10.895   2.044   8.759
16049SOL    HW249980  10.853   1.906   8.805
16050SOL     OW49981  10.143  12.123   0.701
16050SOL    HW149982  10.177  12.206   0.732
16050SOL    HW249983  10.130  12.135   0.607
16051SOL     OW49984   6.035   8.313   0.300
16051SOL    HW149985   6.009   8.240   0.356
16051SOL    HW249986   6.109   8.279   0.249
16052SOL     OW49987   9.002   5.492  10.234
16052SOL    HW149988   9.017   5.581  10.203
16052SOL    HW249989   9.059   5.484  10.311
16053SOL     OW49990   4.957  11.296   5.937
16053SOL    HW149991   4.923  11.359   5.874
16053SOL    HW249992   4.897  11.301   6.011
16054SOL     OW49993   0.224   2.064  12.307
16054SOL    HW149994   0.277   2.052  12.386
16054SOL    HW249995   0.263   2.004  12.244
16055SOL     OW49996   4.552   5.214   2.077
16055SOL    HW149997   4.631   5.255   2.041
16055SOL    HW249998   4.573   5.199   2.170
16056SOL     OW49999   6.497   1.662   5.063
16056SOL    HW150000   6.538   1.610   4.993
16056SOL    HW250001   6.527   1.622   5.144
16057SOL     OW50002   2.477   4.246  11.831
16057SOL    HW150003   2.444   4.172  11.881
16057SOL    HW250004   2.440   4.234  11.744
16058SOL     OW50005  14.146   8.791  10.016
16058SOL    HW150006  14.077   8.847   9.981
16058SOL    HW250007  14.214   8.852  10.045
16059SOL     OW50008   6.119  11.457  12.023
16059SOL    HW150009   6.069  11.391  12.071
16059SOL    HW250010   6.155  11.410  11.948
16060SOL     OW50011   6.207  12.980   9.048
16060SOL    HW150012   6.205  13.070   9.015
16060SOL    HW250013   6.286  12.976   9.102
16061SOL     OW50014   9.652   2.455   3.074
16061SOL    HW150015   9.651   2.521   3.005
16061SOL    HW250016   9.744   2.451   3.102
16062SOL     OW50017   3.515   1.377   5.583
16062SOL    HW150018   3.534   1.439   5.513
16062SOL    HW250019   3.436   1.332   5.553
16063SOL     OW50020  10.470  11.765  13.712
16063SOL    HW150021  10.485  11.672  13.696
16063SOL    HW250022  10.554  11.799  13.742
16064SOL     OW50023  10.736  11.996   4.716
16064SOL    HW150024  10.805  12.060   4.697
16064SOL    HW250025  10.670  12.045   4.765
16065SOL     OW50026   6.196   6.599   9.177
16065SOL    HW150027   6.254   6.580   9.103
16065SOL    HW250028   6.208   6.693   9.192
16066SOL     OW50029  10.000   8.417   2.243
16066SOL    HW150030  10.006   8.367   2.161
16066SOL    HW250031  10.069   8.483   2.236
16067SOL     OW50032   9.337  13.660   4.934
16067SOL    HW150033   9.430  13.675   4.918
16067SOL    HW250034   9.294  13.737   4.898
16068SOL     OW50035   8.444   3.065   6.525
16068SOL    HW150036   8.439   3.049   6.620
16068SOL    HW250037   8.524   3.020   6.498
16069SOL     OW50038   3.932  12.531   3.730
16069SOL    HW150039   3.914  12.443   3.763
16069SOL    HW250040   3.896  12.589   3.797
16070SOL     OW50041   2.291   4.111  13.808
16070SOL    HW150042   2.367   4.057  13.830
16070SOL    HW250043   2.311   4.144  13.720
16071SOL     OW50044   3.480  14.879   0.218
16071SOL    HW150045   3.521   0.051   0.285
16071SOL    HW250046   3.524   0.023   0.137
16072SOL     OW50047   5.397  13.910   2.268
16072SOL    HW150048   5.408  13.844   2.336
16072SOL    HW250049   5.485  13.925   2.233
16073SOL     OW50050   1.041   6.328   7.761
16073SOL    HW150051   1.075   6.266   7.697
16073SOL    HW250052   1.115   6.346   7.819
16074SOL     OW50053   0.214  10.012  12.908
16074SOL    HW150054   0.248   9.927  12.937
16074SOL    HW250055   0.268  10.036  12.833
16075SOL     OW50056   8.033   8.010  11.451
16075SOL    HW150057   7.956   8.022  11.394
16075SOL    HW250058   8.029   7.918  11.477
16076SOL     OW50059   5.903   4.550   6.045
16076SOL    HW150060   5.931   4.639   6.021
16076SOL    HW250061   5.934   4.495   5.973
16077SOL     OW50062  10.943   5.503  13.280
16077SOL    HW150063  10.861   5.454  13.278
16077SOL    HW250064  10.937   5.556  13.360
16078SOL     OW50065   6.305   1.332   3.886
16078SOL    HW150066   6.350   1.328   3.801
16078SOL    HW250067   6.246   1.256   3.886
16079SOL     OW50068   6.465  14.617   1.226
16079SOL    HW150069   6.439  14.530   1.258
16079SOL    HW250070   6.473  14.606   1.131
16080SOL     OW50071   2.166   2.996   1.387
16080SOL    HW150072   2.244   2.948   1.359
16080SOL    HW250073   2.093   2.940   1.363
16081SOL     OW50074   2.516   9.799  12.866
16081SOL    HW150075   2.554   9.753  12.940
16081SOL    HW250076   2.482   9.881  12.902
16082SOL     OW50077  11.172   8.764   6.326
16082SOL    HW150078  11.176   8.688   6.267
16082SOL    HW250079  11.086   8.758   6.367
16083SOL     OW50080  12.292   5.144   1.959
16083SOL    HW150081  12.303   5.099   1.875
16083SOL    HW250082  12.362   5.111   2.014
16084SOL     OW50083   4.582  11.541  12.187
16084SOL    HW150084   4.562  11.503  12.272
16084SOL    HW250085   4.503  11.589  12.163
16085SOL     OW50086   3.258   0.693   5.892
16085SOL    HW150087   3.208   0.617   5.920
16085SOL    HW250088   3.195   0.765   5.894
16086SOL     OW50089  12.368  13.961  12.224
16086SOL    HW150090  12.354  13.934  12.134
16086SOL    HW250091  12.439  13.905  12.255
16087SOL     OW50092  13.127  12.943   8.709
16087SOL    HW150093  13.187  12.923   8.781
16087SOL    HW250094  13.148  13.034   8.685
16088SOL     OW50095   0.947   4.175   7.281
16088SOL    HW150096   0.979   4.182   7.372
16088SOL    HW250097   0.863   4.131   7.288
16089SOL     OW50098   0.006   0.069  13.839
16089SOL    HW150099   0.097   0.092  13.823
16089SOL    HW250100  14.866   0.115  13.920
16090SOL     OW50101  14.495   2.357   3.927
16090SOL    HW150102  14.429   2.398   3.871
16090SOL    HW250103  14.560   2.322   3.867
16091SOL     OW50104   1.767  11.480  12.051
16091SOL    HW150105   1.834  11.443  11.994
16091SOL    HW250106   1.702  11.516  11.991
16092SOL     OW50107   9.873   9.377   5.384
16092SOL    HW150108   9.863   9.350   5.475
16092SOL    HW250109   9.903   9.468   5.390
16093SOL     OW50110   4.780  10.827   5.803
16093SOL    HW150111   4.854  10.783   5.762
16093SOL    HW250112   4.718  10.757   5.822
16094SOL     OW50113   9.196   7.691   3.291
16094SOL    HW150114   9.114   7.729   3.259
16094SOL    HW250115   9.260   7.713   3.223
16095SOL     OW50116  11.779   7.851   0.433
16095SOL    HW150117  11.684   7.845   0.445
16095SOL    HW250118  11.804   7.931   0.480
16096SOL     OW50119  13.059   7.963   5.327
16096SOL    HW150120  13.113   7.901   5.279
16096SOL    HW250121  12.969   7.942   5.299
16097SOL     OW50122   2.675   6.400   8.330
16097SOL    HW150123   2.702   6.476   8.279
16097SOL    HW250124   2.757   6.355   8.350
16098SOL     OW50125   5.617   7.679  10.051
16098SOL    HW150126   5.562   7.670  10.128
16098SOL    HW250127   5.644   7.771  10.051
16099SOL     OW50128   0.357  12.024   7.668
16099SOL    HW150129   0.421  11.969   7.712
16099SOL    HW250130   0.382  12.022   7.576
16100SOL     OW50131  10.033   6.395   9.347
16100SOL    HW150132  10.117   6.398   9.394
16100SOL    HW250133   9.992   6.479   9.365
16101SOL     OW50134   1.048   1.451   2.194
16101SOL    HW150135   1.001   1.369   2.208
16101SOL    HW250136   1.119   1.449   2.259
16102SOL     OW50137  10.822  14.050   1.635
16102SOL    HW150138  10.847  13.973   1.584
16102SOL    HW250139  10.748  14.087   1.587
16103SOL     OW50140   3.102  10.719   8.211
16103SOL    HW150141   3.141  10.658   8.148
16103SOL    HW250142   3.128  10.686   8.296
16104SOL     OW50143   4.745  10.966   4.603
16104SOL    HW150144   4.788  10.883   4.624
16104SOL    HW250145   4.775  10.986   4.514
16105SOL     OW50146  11.134  11.009  13.948
16105SOL    HW150147  11.158  10.919  13.926
16105SOL    HW250148  11.050  11.022  13.903
16106SOL     OW50149   2.357   9.853   6.537
16106SOL    HW150150   2.325   9.835   6.625
16106SOL    HW250151   2.389   9.942   6.541
16107SOL     OW50152  11.699   2.682   2.852
16107SOL    HW150153  11.606   2.661   2.843
16107SOL    HW250154  11.736   2.663   2.766
16108SOL     OW50155   2.015   2.710   9.098
16108SOL    HW150156   2.063   2.627   9.096
16108SOL    HW250157   1.984   2.722   9.009
16109SOL     OW50158  12.635   5.450   8.064
16109SOL    HW150159  12.646   5.363   8.026
16109SOL    HW250160  12.545   5.475   8.045
16110SOL     OW50161   9.740   0.201   4.037
16110SOL    HW150162   9.722   0.110   4.060
16110SOL    HW250163   9.655   0.245   4.047
16111SOL     OW50164   4.850   6.350  12.829
16111SOL    HW150165   4.816   6.358  12.918
16111SOL    HW250166   4.932   6.302  12.839
16112SOL     OW50167   9.123  12.538   4.015
16112SOL    HW150168   9.060  12.471   3.987
16112SOL    HW250169   9.184  12.546   3.942
16113SOL     OW50170   0.643   3.409   6.946
16113SOL    HW150171   0.580   3.339   6.931
16113SOL    HW250172   0.719   3.385   6.893
16114SOL     OW50173   3.520  14.251   9.751
16114SOL    HW150174   3.545  14.342   9.762
16114SOL    HW250175   3.552  14.207   9.829
16115SOL     OW50176  12.809  11.293   7.791
16115SOL    HW150177  12.743  11.259   7.731
16115SOL    HW250178  12.772  11.279   7.878
16116SOL     OW50179   9.235   2.617   8.263
16116SOL    HW150180   9.300   2.550   8.238
16116SOL    HW250181   9.153   2.568   8.271
16117SOL     OW50182   7.285  10.742   4.911
16117SOL    HW150183   7.231  10.761   4.988
16117SOL    HW250184   7.229  10.689   4.854
16118SOL     OW50185   0.526   5.083   5.994
16118SOL    HW150186   0.531   5.038   5.910
16118SOL    HW250187   0.526   5.013   6.060
16119SOL     OW50188  13.821   3.030  10.725
16119SOL    HW150189  13.851   3.055  10.638
16119SOL    HW250190  13.776   3.108  10.758
16120SOL     OW50191   3.968   9.680  13.053
16120SOL    HW150192   4.022   9.654  13.127
16120SOL    HW250193   4.031   9.702  12.984
16121SOL     OW50194   4.189   7.527   7.269
16121SOL    HW150195   4.155   7.612   7.295
16121SOL    HW250196   4.184   7.473   7.348
16122SOL     OW50197   9.234   6.455   5.241
16122SOL    HW150198   9.329   6.458   5.254
16122SOL    HW250199   9.222   6.461   5.146
16123SOL     OW50200   2.597  11.268   2.420
16123SOL    HW150201   2.643  11.296   2.341
16123SOL    HW250202   2.665  11.234   2.477
16124SOL     OW50203  12.378   6.539   0.885
16124SOL    HW150204  12.353   6.597   0.813
16124SOL    HW250205  12.329   6.459   0.869
16125SOL     OW50206   4.467   4.973   4.584
16125SOL    HW150207   4.468   4.951   4.677
16125SOL    HW250208   4.458   5.068   4.581
16126SOL     OW50209   0.509   5.591  12.281
16126SOL    HW150210   0.572   5.605  12.210
16126SOL    HW250211   0.519   5.669  12.336
16127SOL     OW50212   0.939   8.633   1.022
16127SOL    HW150213   0.918   8.703   0.961
16127SOL    HW250214   0.924   8.670   1.108
16128SOL     OW50215  14.156   2.059   2.066
16128SOL    HW150216  14.225   2.093   2.009
16128SOL    HW250217  14.075   2.088   2.024
16129SOL     OW50218  12.089  10.606   1.229
16129SOL    HW150219  12.166  10.641   1.274
16129SOL    HW250220  12.015  10.657   1.263
16130SOL     OW50221   5.944   7.145   3.756
16130SOL    HW150222   5.913   7.150   3.847
16130SOL    HW250223   5.958   7.051   3.741
16131SOL     OW50224   6.828  14.266   5.710
16131SOL    HW150225   6.741  14.256   5.749
16131SOL    HW250226   6.887  14.221   5.771
16132SOL     OW50227   6.444  12.700   8.054
16132SOL    HW150228   6.479  12.741   8.133
16132SOL    HW250229   6.353  12.730   8.050
16133SOL     OW50230  12.355   3.526   3.536
16133SOL    HW150231  12.279   3.476   3.566
16133SOL    HW250232  12.319   3.592   3.477
16134SOL     OW50233   0.771  12.700   3.941
16134SOL    HW150234   0.717  12.741   4.009
16134SOL    HW250235   0.846  12.664   3.988
16135SOL     OW50236   4.536  13.411   6.534
16135SOL    HW150237   4.535  13.356   6.612
16135SOL    HW250238   4.471  13.479   6.552
16136SOL     OW50239   5.920  12.786   6.604
16136SOL    HW150240   5.864  12.719   6.566
16136SOL    HW250241   6.007  12.745   6.608
16137SOL     OW50242   1.915  13.381   0.598
16137SOL    HW150243   1.842  13.379   0.660
16137SOL    HW250244   1.921  13.472   0.569
16138SOL     OW50245  11.746   4.534   5.704
16138SOL    HW150246  11.817   4.543   5.640
16138SOL    HW250247  11.679   4.595   5.674
16139SOL     OW50248   0.677  11.430   6.641
16139SOL    HW150249   0.677  11.337   6.664
16139SOL    HW250250   0.716  11.433   6.553
16140SOL     OW50251   4.070   1.774  12.056
16140SOL    HW150252   4.165   1.780  12.065
16140SOL    HW250253   4.052   1.680  12.048
16141SOL     OW50254  12.765  12.181   2.932
16141SOL    HW150255  12.745  12.176   3.026
16141SOL    HW250256  12.680  12.198   2.891
16142SOL     OW50257  10.354   1.379  10.843
16142SOL    HW150258  10.313   1.463  10.822
16142SOL    HW250259  10.307   1.315  10.789
16143SOL     OW50260   6.684  11.615  10.440
16143SOL    HW150261   6.666  11.696  10.392
16143SOL    HW250262   6.739  11.642  10.514
16144SOL     OW50263   6.241   6.891   2.898
16144SOL    HW150264   6.262   6.861   2.986
16144SOL    HW250265   6.252   6.986   2.901
16145SOL     OW50266   3.889   2.708   5.114
16145SOL    HW150267   3.826   2.668   5.054
16145SOL    HW250268   3.913   2.791   5.073
16146SOL     OW50269   4.678  13.291   0.009
16146SOL    HW150270   4.672  13.357   0.078
16146SOL    HW250271   4.610  13.227   0.031
16147SOL     OW50272   2.230   2.330  10.867
16147SOL    HW150273   2.245   2.375  10.784
16147SOL    HW250274   2.213   2.400  10.929
16148SOL     OW50275   8.707  13.688   4.352
16148SOL    HW150276   8.616  13.660   4.365
16148SOL    HW250277   8.729  13.734   4.433
16149SOL     OW50278   6.629   5.070   8.299
16149SOL    HW150279   6.724   5.061   8.295
16149SOL    HW250280   6.596   5.014   8.229
16150SOL     OW50281   7.814   4.398   1.399
16150SOL    HW150282   7.797   4.471   1.338
16150SOL    HW250283   7.880   4.345   1.355
16151SOL     OW50284  10.298  11.008   1.576
16151SOL    HW150285  10.237  11.005   1.502
16151SOL    HW250286  10.255  11.063   1.641
16152SOL     OW50287   7.613  13.406  13.427
16152SOL    HW150288   7.678  13.374  13.364
16152SOL    HW250289   7.591  13.329  13.479
16153SOL     OW50290   9.651   0.642   3.200
16153SOL    HW150291   9.703   0.717   3.174
16153SOL    HW250292   9.640   0.652   3.295
16154SOL     OW50293  11.750   8.955   2.410
16154SOL    HW150294  11.816   8.922   2.348
16154SOL    HW250295  11.793   8.951   2.495
16155SOL     OW50296  13.534   0.493   4.649
16155SOL    HW150297  13.441   0.479   4.670
16155SOL    HW250298  13.551   0.434   4.576
16156SOL     OW50299   5.524   6.612   1.025
16156SOL    HW150300   5.441   6.577   0.992
16156SOL    HW250301   5.528   6.701   0.990
16157SOL     OW50302   6.904  14.419  13.955
16157SOL    HW150303   6.954  14.364  14.015
16157SOL    HW250304   6.818  14.377  13.949
16158SOL     OW50305   6.043  12.111   7.894
16158SOL    HW150306   5.974  12.161   7.939
16158SOL    HW250307   6.057  12.158   7.812
16159SOL     OW50308   5.195   8.612   0.023
16159SOL    HW150309   5.115   8.646  14.867
16159SOL    HW250310   5.264   8.668  14.870
16160SOL     OW50311  10.076  13.181   6.316
16160SOL    HW150312  10.161  13.211   6.349
16160SOL    HW250313  10.042  13.256   6.268
16161SOL     OW50314  11.106   4.662  14.235
16161SOL    HW150315  11.101   4.737  14.295
16161SOL    HW250316  11.200   4.646  14.225
16162SOL     OW50317  13.355   9.177   2.740
16162SOL    HW150318  13.415   9.104   2.723
16162SOL    HW250319  13.403   9.234   2.800
16163SOL     OW50320   5.404  14.651   3.959
16163SOL    HW150321   5.350  14.726   3.936
16163SOL    HW250322   5.393  14.641   4.053
16164SOL     OW50323   5.731   7.718  14.542
16164SOL    HW150324   5.726   7.715  14.446
16164SOL    HW250325   5.723   7.627  14.569
16165SOL     OW50326  13.168   9.933   1.080
16165SOL    HW150327  13.147   9.971   0.995
16165SOL    HW250328  13.256   9.967   1.100
16166SOL     OW50329  11.588   9.160   8.217
16166SOL    HW150330  11.609   9.164   8.311
16166SOL    HW250331  11.571   9.251   8.192
16167SOL     OW50332   5.972   8.105  12.259
16167SOL    HW150333   5.980   8.199  12.278
16167SOL    HW250334   6.062   8.074  12.252
16168SOL     OW50335   9.664   6.011  11.389
16168SOL    HW150336   9.625   6.050  11.311
16168SOL    HW250337   9.703   6.085  11.435
16169SOL     OW50338  11.274   2.697   8.534
16169SOL    HW150339  11.181   2.688   8.512
16169SOL    HW250340  11.300   2.780   8.494
16170SOL     OW50341   7.848   5.602   3.995
16170SOL    HW150342   7.900   5.549   4.056
16170SOL    HW250343   7.782   5.541   3.961
16171SOL     OW50344  14.362  13.514   6.942
16171SOL    HW150345  14.304  13.531   7.016
16171SOL    HW250346  14.414  13.594   6.934
16172SOL     OW50347  12.270  13.864   1.067
16172SOL    HW150348  12.310  13.942   1.106
16172SOL    HW250349  12.278  13.796   1.135
16173SOL     OW50350   4.741   5.912   3.723
16173SOL    HW150351   4.730   6.007   3.714
16173SOL    HW250352   4.708   5.877   3.640
16174SOL     OW50353   8.934   7.361   2.261
16174SOL    HW150354   8.967   7.283   2.304
16174SOL    HW250355   8.842   7.366   2.287
16175SOL     OW50356   7.316   2.029   2.827
16175SOL    HW150357   7.326   2.111   2.875
16175SOL    HW250358   7.226   2.030   2.794
16176SOL     OW50359   0.606  10.442   8.282
16176SOL    HW150360   0.521  10.465   8.319
16176SOL    HW250361   0.634  10.521   8.236
16177SOL     OW50362  14.797   7.303   2.814
16177SOL    HW150363  14.847   7.223   2.834
16177SOL    HW250364  14.706   7.273   2.808
16178SOL     OW50365   3.454  11.022  10.505
16178SOL    HW150366   3.462  11.003  10.598
16178SOL    HW250367   3.503  10.952  10.462
16179SOL     OW50368   8.560   4.093   3.212
16179SOL    HW150369   8.592   4.174   3.251
16179SOL    HW250370   8.609   4.084   3.130
16180SOL     OW50371   6.551   7.145   8.218
16180SOL    HW150372   6.520   7.060   8.186
16180SOL    HW250373   6.471   7.194   8.239
16181SOL     OW50374  12.450  10.541   7.338
16181SOL    HW150375  12.357  10.523   7.355
16181SOL    HW250376  12.453  10.561   7.245
16182SOL     OW50377   4.378   7.443   8.308
16182SOL    HW150378   4.362   7.353   8.337
16182SOL    HW250379   4.362   7.441   8.214
16183SOL     OW50380   7.848  13.186  14.215
16183SOL    HW150381   7.757  13.174  14.191
16183SOL    HW250382   7.851  13.168  14.309
16184SOL     OW50383  12.625   7.354   4.680
16184SOL    HW150384  12.553   7.368   4.619
16184SOL    HW250385  12.615   7.264   4.710
16185SOL     OW50386   5.646   3.260   2.851
16185SOL    HW150387   5.726   3.289   2.894
16185SOL    HW250388   5.637   3.168   2.876
16186SOL     OW50389  10.584  13.615  10.295
16186SOL    HW150390  10.497  13.602  10.258
16186SOL    HW250391  10.630  13.667  10.229
16187SOL     OW50392   9.154   5.333   1.005
16187SOL    HW150393   9.168   5.410   1.060
16187SOL    HW250394   9.119   5.267   1.066
16188SOL     OW50395   6.344   3.753   1.447
16188SOL    HW150396   6.390   3.820   1.397
16188SOL    HW250397   6.254   3.786   1.453
16189SOL     OW50398   9.979  11.482  13.563
16189SOL    HW150399  10.049  11.417  13.548
16189SOL    HW250400  10.020  11.566  13.542
16190SOL     OW50401   7.668  14.285   9.606
16190SOL    HW150402   7.603  14.327   9.549
16190SOL    HW250403   7.715  14.358   9.647
16191SOL     OW50404  10.893   5.273   1.754
16191SOL    HW150405  10.943   5.345   1.794
16191SOL    HW250406  10.916   5.197   1.807
16192SOL     OW50407   5.386   4.121  10.665
16192SOL    HW150408   5.323   4.049  10.661
16192SOL    HW250409   5.419   4.120  10.754
16193SOL     OW50410   5.488   8.621   4.146
16193SOL    HW150411   5.576   8.589   4.123
16193SOL    HW250412   5.477   8.700   4.094
16194SOL     OW50413   4.635   8.005   0.877
16194SOL    HW150414   4.623   8.048   0.961
16194SOL    HW250415   4.547   7.979   0.850
16195SOL     OW50416   8.969  13.011  12.714
16195SOL    HW150417   8.973  13.040  12.805
16195SOL    HW250418   8.901  13.065  12.674
16196SOL     OW50419  14.099  14.128   3.352
16196SOL    HW150420  14.136  14.159   3.435
16196SOL    HW250421  14.142  14.045   3.337
16197SOL     OW50422   9.823   4.866   6.966
16197SOL    HW150423   9.852   4.956   6.949
16197SOL    HW250424   9.742   4.857   6.916
16198SOL     OW50425  12.997   1.491  12.259
16198SOL    HW150426  12.946   1.561  12.218
16198SOL    HW250427  13.042   1.534  12.331
16199SOL     OW50428   7.148   2.823   8.526
16199SOL    HW150429   7.056   2.851   8.530
16199SOL    HW250430   7.161   2.797   8.435
16200SOL     OW50431   6.844  11.647  10.664
16200SOL    HW150432   6.853  11.552  10.670
16200SOL    HW250433   6.907  11.682  10.727
16201SOL     OW50434   2.008  11.078   5.317
16201SOL    HW150435   2.082  11.127   5.281
16201SOL    HW250436   1.940  11.085   5.250
16202SOL     OW50437   9.190   6.107   4.786
16202SOL    HW150438   9.283   6.113   4.808
16202SOL    HW250439   9.147   6.081   4.867
16203SOL     OW50440   8.215  13.875   9.178
16203SOL    HW150441   8.292  13.832   9.143
16203SOL    HW250442   8.153  13.878   9.104
16204SOL     OW50443   1.982  12.166   3.538
16204SOL    HW150444   1.922  12.108   3.585
16204SOL    HW250445   2.068  12.147   3.576
16205SOL     OW50446   4.387   2.827  13.398
16205SOL    HW150447   4.464   2.789  13.439
16205SOL    HW250448   4.362   2.900  13.455
16206SOL     OW50449  12.058   3.495   3.843
16206SOL    HW150450  12.100   3.436   3.780
16206SOL    HW250451  12.000   3.438   3.894
16207SOL     OW50452  13.932   0.303  14.140
16207SOL    HW150453  14.017   0.258  14.138
16207SOL    HW250454  13.954   0.394  14.162
16208SOL     OW50455   3.280   4.487   4.554
16208SOL    HW150456   3.309   4.414   4.500
16208SOL    HW250457   3.360   4.534   4.577
16209SOL     OW50458   7.289   9.305   7.376
16209SOL    HW150459   7.234   9.345   7.443
16209SOL    HW250460   7.232   9.298   7.299
16210SOL     OW50461   6.158   0.038   7.514
16210SOL    HW150462   6.100  14.844   7.507
16210SOL    HW250463   6.120   0.090   7.585
16211SOL     OW50464   5.156   8.626   9.479
16211SOL    HW150465   5.179   8.552   9.422
16211SOL    HW250466   5.068   8.605   9.510
16212SOL     OW50467   0.642   1.188  13.259
16212SOL    HW150468   0.578   1.249  13.221
16212SOL    HW250469   0.720   1.200  13.206
16213SOL     OW50470  14.743   1.808   6.182
16213SOL    HW150471  14.773   1.726   6.221
16213SOL    HW250472  14.822   1.849   6.148
16214SOL     OW50473   6.717  11.062   6.186
16214SOL    HW150474   6.727  11.157   6.182
16214SOL    HW250475   6.693  11.044   6.277
16215SOL     OW50476   7.492  12.842   4.874
16215SOL    HW150477   7.557  12.911   4.886
16215SOL    HW250478   7.409  12.889   4.861
16216SOL     OW50479   6.625   6.249  11.099
16216SOL    HW150480   6.627   6.170  11.046
16216SOL    HW250481   6.538   6.250  11.139
16217SOL     OW50482   3.574  12.543  12.253
16217SOL    HW150483   3.516  12.516  12.182
16217SOL    HW250484   3.654  12.572  12.209
16218SOL     OW50485   3.803   4.095   7.229
16218SOL    HW150486   3.763   4.153   7.294
16218SOL    HW250487   3.894   4.086   7.258
16219SOL     OW50488   4.160   6.495   3.231
16219SOL    HW150489   4.178   6.489   3.137
16219SOL    HW250490   4.154   6.405   3.261
16220SOL     OW50491   0.714   1.484  10.521
16220SOL    HW150492   0.634   1.519  10.559
16220SOL    HW250493   0.690   1.461  10.432
16221SOL     OW50494  11.671  13.528  12.969
16221SOL    HW150495  11.698  13.516  12.878
16221SOL    HW250496  11.714  13.608  12.997
16222SOL     OW50497   5.304   0.951   4.101
16222SOL    HW150498   5.368   0.883   4.121
16222SOL    HW250499   5.336   1.029   4.146
16223SOL     OW50500   9.613   7.697   9.813
16223SOL    HW150501   9.701   7.694   9.776
16223SOL    HW250502   9.559   7.732   9.742
16224SOL     OW50503  13.191   8.574   1.869
16224SOL    HW150504  13.156   8.607   1.786
16224SOL    HW250505  13.250   8.644   1.899
16225SOL     OW50506  13.031   2.452  11.799
16225SOL    HW150507  13.045   2.436  11.892
16225SOL    HW250508  12.948   2.408  11.779
16226SOL     OW50509  11.931   9.151   4.703
16226SOL    HW150510  11.936   9.180   4.795
16226SOL    HW250511  11.845   9.183   4.674
16227SOL     OW50512   8.049  14.267   0.713
16227SOL    HW150513   7.959  14.285   0.739
16227SOL    HW250514   8.044  14.251   0.619
16228SOL     OW50515  14.077   6.209  13.250
16228SOL    HW150516  14.132   6.272  13.204
16228SOL    HW250517  14.055   6.251  13.333
16229SOL     OW50518  14.841  11.450   6.637
16229SOL    HW150519  14.800  11.536   6.622
16229SOL    HW250520   0.007  11.432   6.557
16230SOL     OW50521   3.165   2.449   7.417
16230SOL    HW150522   3.134   2.525   7.466
16230SOL    HW250523   3.087   2.414   7.375
16231SOL     OW50524   7.192  10.219  11.409
16231SOL    HW150525   7.108  10.174  11.406
16231SOL    HW250526   7.222  10.221  11.318
16232SOL     OW50527   4.785   1.567  14.274
16232SOL    HW150528   4.738   1.576  14.191
16232SOL    HW250529   4.808   1.474  14.280
16233SOL     OW50530   1.251   8.925  10.418
16233SOL    HW150531   1.300   8.983  10.477
16233SOL    HW250532   1.203   8.984  10.360
16234SOL     OW50533   4.055   4.575   7.811
16234SOL    HW150534   4.042   4.484   7.785
16234SOL    HW250535   4.070   4.622   7.729
16235SOL     OW50536   9.412  11.578  10.618
16235SOL    HW150537   9.463  11.657  10.602
16235SOL    HW250538   9.321  11.608  10.621
16236SOL     OW50539  10.299   1.989   7.812
16236SOL    HW150540  10.292   1.904   7.768
16236SOL    HW250541  10.256   1.975   7.896
16237SOL     OW50542   9.218   1.193   9.701
16237SOL    HW150543   9.201   1.177   9.794
16237SOL    HW250544   9.177   1.277   9.683
16238SOL     OW50545   9.082   0.357   8.539
16238SOL    HW150546   9.096   0.271   8.578
16238SOL    HW250547   9.004   0.392   8.583
16239SOL     OW50548   4.537   9.219  13.089
16239SOL    HW150549   4.477   9.157  13.130
16239SOL    HW250550   4.486   9.300  13.080
16240SOL     OW50551   8.686  12.352   7.479
16240SOL    HW150552   8.624  12.350   7.406
16240SOL    HW250553   8.741  12.428   7.462
16241SOL     OW50554  12.903  11.345   7.327
16241SOL    HW150555  12.841  11.346   7.400
16241SOL    HW250556  12.865  11.404   7.262
16242SOL     OW50557  12.519  10.064   1.823
16242SOL    HW150558  12.426  10.074   1.843
16242SOL    HW250559  12.562  10.134   1.872
16243SOL     OW50560  12.472   9.234  12.690
16243SOL    HW150561  12.518   9.311  12.724
16243SOL    HW250562  12.457   9.179  12.766
16244SOL     OW50563   8.397   0.588  12.946
16244SOL    HW150564   8.471   0.642  12.919
16244SOL    HW250565   8.437   0.506  12.975
16245SOL     OW50566   5.578   6.640   7.308
16245SOL    HW150567   5.625   6.724   7.307
16245SOL    HW250568   5.637   6.581   7.354
16246SOL     OW50569   8.012   7.776  11.187
16246SOL    HW150570   8.105   7.770  11.208
16246SOL    HW250571   7.969   7.727  11.257
16247SOL     OW50572  12.150   6.950  13.391
16247SOL    HW150573  12.236   6.985  13.410
16247SOL    HW250574  12.131   6.890  13.463
16248SOL     OW50575   2.023   5.713   4.685
16248SOL    HW150576   1.998   5.650   4.618
16248SOL    HW250577   1.968   5.692   4.760
16249SOL     OW50578  10.560  11.554   3.162
16249SOL    HW150579  10.592  11.605   3.237
16249SOL    HW250580  10.608  11.472   3.167
16250SOL     OW50581  11.248   3.075   0.748
16250SOL    HW150582  11.290   3.055   0.665
16250SOL    HW250583  11.164   3.030   0.744
16251SOL     OW50584  14.140   2.392   4.567
16251SOL    HW150585  14.099   2.400   4.653
16251SOL    HW250586  14.169   2.301   4.562
16252SOL     OW50587   9.714   7.763   6.600
16252SOL    HW150588   9.769   7.804   6.533
16252SOL    HW250589   9.760   7.782   6.683
16253SOL     OW50590   0.106   3.753  11.400
16253SOL    HW150591   0.038   3.786  11.341
16253SOL    HW250592   0.187   3.766  11.352
16254SOL     OW50593   1.387   2.323   2.547
16254SOL    HW150594   1.416   2.270   2.472
16254SOL    HW250595   1.403   2.413   2.520
16255SOL     OW50596   7.067   9.949  10.175
16255SOL    HW150597   7.099  10.038  10.166
16255SOL    HW250598   6.975   9.959  10.199
16256SOL     OW50599  13.316   6.851  11.720
16256SOL    HW150600  13.324   6.942  11.690
16256SOL    HW250601  13.247   6.853  11.786
16257SOL     OW50602   0.106   8.744   5.671
16257SOL    HW150603   0.081   8.744   5.579
16257SOL    HW250604   0.176   8.809   5.677
16258SOL     OW50605   3.171  13.621  14.115
16258SOL    HW150606   3.088  13.586  14.080
16258SOL    HW250607   3.200  13.684  14.049
16259SOL     OW50608   5.779   2.955   2.045
16259SOL    HW150609   5.846   2.952   2.113
16259SOL    HW250610   5.801   2.883   1.986
16260SOL     OW50611  11.628   2.044  10.916
16260SOL    HW150612  11.602   2.028  10.826
16260SOL    HW250613  11.546   2.056  10.963
16261SOL     OW50614   7.605  10.997   2.524
16261SOL    HW150615   7.603  11.083   2.481
16261SOL    HW250616   7.588  11.016   2.616
16262SOL     OW50617   8.990   3.635   4.482
16262SOL    HW150618   8.976   3.579   4.559
16262SOL    HW250619   9.085   3.636   4.469
16263SOL     OW50620   1.747   2.936   7.807
16263SOL    HW150621   1.763   2.856   7.757
16263SOL    HW250622   1.766   3.007   7.746
16264SOL     OW50623   2.056   9.035   3.862
16264SOL    HW150624   2.006   9.116   3.879
16264SOL    HW250625   2.021   8.972   3.926
16265SOL     OW50626   7.123   0.756   0.495
16265SOL    HW150627   7.081   0.700   0.561
16265SOL    HW250628   7.060   0.760   0.424
16266SOL     OW50629   7.552   1.152   2.283
16266SOL    HW150630   7.567   1.160   2.189
16266SOL    HW250631   7.629   1.107   2.316
16267SOL     OW50632  11.161  10.476   6.989
16267SOL    HW150633  11.093  10.412   6.969
16267SOL    HW250634  11.241  10.424   6.998
16268SOL     OW50635  10.899   7.095  13.140
16268SOL    HW150636  10.895   7.116  13.047
16268SOL    HW250637  10.813   7.118  13.175
16269SOL     OW50638   8.480   7.229  11.673
16269SOL    HW150639   8.433   7.304  11.710
16269SOL    HW250640   8.537   7.199  11.743
16270SOL     OW50641  14.219  14.183  10.558
16270SOL    HW150642  14.266  14.263  10.584
16270SOL    HW250643  14.288  14.123  10.530
16271SOL     OW50644   1.041  11.855   7.435
16271SOL    HW150645   1.130  11.879   7.461
16271SOL    HW250646   1.034  11.762   7.454
16272SOL     OW50647   5.810  14.070  10.869
16272SOL    HW150648   5.843  14.031  10.788
16272SOL    HW250649   5.844  14.014  10.938
16273SOL     OW50650   6.151   4.756   9.370
16273SOL    HW150651   6.228   4.793   9.326
16273SOL    HW250652   6.184   4.680   9.416
16274SOL     OW50653   3.074   1.840  10.402
16274SOL    HW150654   3.144   1.883  10.452
16274SOL    HW250655   3.097   1.748  10.403
16275SOL     OW50656   5.348  10.298   0.528
16275SOL    HW150657   5.305  10.369   0.480
16275SOL    HW250658   5.424  10.339   0.569
16276SOL     OW50659   0.890  13.195   9.199
16276SOL    HW150660   0.804  13.234   9.210
16276SOL    HW250661   0.905  13.146   9.280
16277SOL     OW50662   5.325   6.983  10.104
16277SOL    HW150663   5.265   6.985  10.178
16277SOL    HW250664   5.412   6.993  10.144
16278SOL     OW50665  11.062  14.088   5.665
16278SOL    HW150666  11.149  14.121   5.684
16278SOL    HW250667  11.044  14.114   5.575
16279SOL     OW50668   2.324   7.068   0.961
16279SOL    HW150669   2.231   7.048   0.974
16279SOL    HW250670   2.333   7.158   0.992
16280SOL     OW50671   6.845  10.256  14.539
16280SOL    HW150672   6.824  10.250  14.446
16280SOL    HW250673   6.903  10.332  14.546
16281SOL     OW50674  11.843   2.195   9.182
16281SOL    HW150675  11.803   2.200   9.269
16281SOL    HW250676  11.876   2.106   9.176
16282SOL     OW50677   6.518   8.530   4.068
16282SOL    HW150678   6.545   8.438   4.078
16282SOL    HW250679   6.576   8.564   4.000
16283SOL     OW50680   0.992  13.025   5.453
16283SOL    HW150681   1.014  13.107   5.497
16283SOL    HW250682   1.074  12.998   5.411
16284SOL     OW50683   7.360  10.243   2.188
16284SOL    HW150684   7.399  10.156   2.204
16284SOL    HW250685   7.293  10.252   2.255
16285SOL     OW50686   5.571   3.687  12.035
16285SOL    HW150687   5.532   3.775  12.032
16285SOL    HW250688   5.654   3.700  12.081
16286SOL     OW50689   8.258   8.738  12.575
16286SOL    HW150690   8.164   8.734  12.596
16286SOL    HW250691   8.261   8.730  12.480
16287SOL     OW50692  10.364   5.775   1.148
16287SOL    HW150693  10.276   5.756   1.181
16287SOL    HW250694  10.407   5.690   1.144
16288SOL     OW50695   0.228   6.395   6.440
16288SOL    HW150696   0.213   6.400   6.534
16288SOL    HW250697   0.142   6.375   6.403
16289SOL     OW50698  11.733  14.633  13.570
16289SOL    HW150699  11.649  14.634  13.525
16289SOL    HW250700  11.749  14.540  13.588
16290SOL     OW50701  13.187   9.428   4.196
16290SOL    HW150702  13.182   9.337   4.225
16290SOL    HW250703  13.280   9.451   4.205
16291SOL     OW50704   5.510  11.889  13.384
16291SOL    HW150705   5.502  11.919  13.293
16291SOL    HW250706   5.605  11.887  13.401
16292SOL     OW50707   3.069  14.304  12.902
16292SOL    HW150708   3.157  14.338  12.919
16292SOL    HW250709   3.033  14.363  12.836
16293SOL     OW50710  10.323   6.403   5.779
16293SOL    HW150711  10.234   6.440   5.778
16293SOL    HW250712  10.315   6.321   5.730
16294SOL     OW50713   9.267  11.576   7.143
16294SOL    HW150714   9.202  11.636   7.180
16294SOL    HW250715   9.256  11.584   7.048
16295SOL     OW50716   4.386   5.450   1.446
16295SOL    HW150717   4.362   5.482   1.358
16295SOL    HW250718   4.321   5.383   1.466
16296SOL     OW50719   8.763   6.936   2.619
16296SOL    HW150720   8.792   6.845   2.627
16296SOL    HW250721   8.669   6.930   2.604
16297SOL     OW50722   5.725   2.632  13.054
16297SOL    HW150723   5.722   2.541  13.084
16297SOL    HW250724   5.634   2.655  13.038
16298SOL     OW50725  13.421   3.429   6.517
16298SOL    HW150726  13.481   3.494   6.552
16298SOL    HW250727  13.369   3.477   6.452
16299SOL     OW50728  11.323   1.175  13.569
16299SOL    HW150729  11.410   1.137  13.584
16299SOL    HW250730  11.320   1.191  13.475
16300SOL     OW50731   9.564  14.225   9.180
16300SOL    HW150732   9.471  14.242   9.166
16300SOL    HW250733   9.567  14.176   9.262
16301SOL     OW50734   4.495  13.450  12.451
16301SOL    HW150735   4.446  13.531  12.466
16301SOL    HW250736   4.449  13.407  12.378
16302SOL     OW50737   0.158   6.236  11.320
16302SOL    HW150738   0.171   6.196  11.406
16302SOL    HW250739   0.209   6.317  11.323
16303SOL     OW50740   3.552  10.641   4.589
16303SOL    HW150741   3.606  10.612   4.516
16303SOL    HW250742   3.504  10.563   4.616
16304SOL     OW50743  13.006  10.945   4.865
16304SOL    HW150744  13.041  10.958   4.953
16304SOL    HW250745  13.081  10.917   4.813
16305SOL     OW50746  14.207   9.318   7.381
16305SOL    HW150747  14.271   9.329   7.452
16305SOL    HW250748  14.122   9.325   7.425
16306SOL     OW50749  11.498  11.059   1.863
16306SOL    HW150750  11.470  11.150   1.868
16306SOL    HW250751  11.562  11.049   1.933
16307SOL     OW50752  11.452   1.286  10.004
16307SOL    HW150753  11.386   1.343  10.044
16307SOL    HW250754  11.472   1.327   9.920
16308SOL     OW50755   4.465  12.281   2.576
16308SOL    HW150756   4.405  12.348   2.608
16308SOL    HW250757   4.527  12.328   2.520
16309SOL     OW50758   8.726   5.707   8.226
16309SOL    HW150759   8.630   5.704   8.222
16309SOL    HW250760   8.745   5.723   8.319
16310SOL     OW50761   4.885   3.253   3.888
16310SOL    HW150762   4.816   3.271   3.952
16310SOL    HW250763   4.961   3.228   3.941
16311SOL     OW50764   4.894  14.559  11.844
16311SOL    HW150765   4.969  14.511  11.878
16311SOL    HW250766   4.820  14.500  11.855
16312SOL     OW50767   3.524   3.490  11.065
16312SOL    HW150768   3.539   3.517  10.974
16312SOL    HW250769   3.565   3.559  11.117
16313SOL     OW50770  12.392   5.582  14.464
16313SOL    HW150771  12.473   5.612  14.504
16313SOL    HW250772  12.418   5.550  14.377
16314SOL     OW50773  10.835   9.867  10.802
16314SOL    HW150774  10.809   9.785  10.844
16314SOL    HW250775  10.864   9.923  10.874
16315SOL     OW50776   3.471   7.396  10.330
16315SOL    HW150777   3.547   7.424  10.382
16315SOL    HW250778   3.420   7.341  10.389
16316SOL     OW50779  12.823  10.582   5.947
16316SOL    HW150780  12.732  10.591   5.920
16316SOL    HW250781  12.855  10.672   5.955
16317SOL     OW50782   3.710   9.339  13.419
16317SOL    HW150783   3.706   9.294  13.335
16317SOL    HW250784   3.804   9.343  13.439
16318SOL     OW50785   8.002   0.048   7.218
16318SOL    HW150786   7.991   0.107   7.143
16318SOL    HW250787   7.948   0.088   7.287
16319SOL     OW50788   7.884  12.258  14.438
16319SOL    HW150789   7.884  12.354  14.442
16319SOL    HW250790   7.847  12.231  14.522
16320SOL     OW50791   5.405   1.430  10.972
16320SOL    HW150792   5.349   1.372  11.023
16320SOL    HW250793   5.435   1.496  11.034
16321SOL     OW50794   8.431   6.412   7.426
16321SOL    HW150795   8.447   6.500   7.459
16321SOL    HW250796   8.467   6.413   7.337
16322SOL     OW50797  14.602  14.508   4.041
16322SOL    HW150798  14.644  14.571   4.100
16322SOL    HW250799  14.562  14.443   4.099
16323SOL     OW50800  11.535  10.295  10.454
16323SOL    HW150801  11.586  10.290  10.373
16323SOL    HW250802  11.523  10.389  10.469
16324SOL     OW50803   4.844   7.999  10.403
16324SOL    HW150804   4.868   7.946  10.327
16324SOL    HW250805   4.897   8.079  10.394
16325SOL     OW50806  14.448   7.200   9.600
16325SOL    HW150807  14.438   7.174   9.691
16325SOL    HW250808  14.486   7.123   9.558
16326SOL     OW50809  14.300   0.177   3.905
16326SOL    HW150810  14.299   0.225   3.822
16326SOL    HW250811  14.345   0.235   3.966
16327SOL     OW50812   9.258  11.560   5.820
16327SOL    HW150813   9.256  11.570   5.725
16327SOL    HW250814   9.166  11.551   5.845
16328SOL     OW50815  10.846   9.836   4.242
16328SOL    HW150816  10.781   9.785   4.192
16328SOL    HW250817  10.914   9.772   4.263
16329SOL     OW50818  12.422   7.079  13.988
16329SOL    HW150819  12.379   7.004  13.945
16329SOL    HW250820  12.390   7.075  14.078
16330SOL     OW50821   3.851  14.223   1.524
16330SOL    HW150822   3.759  14.223   1.497
16330SOL    HW250823   3.876  14.131   1.522
16331SOL     OW50824   1.728  10.921  11.038
16331SOL    HW150825   1.649  10.959  10.999
16331SOL    HW250826   1.779  10.891  10.964
16332SOL     OW50827   5.188  10.574   1.786
16332SOL    HW150828   5.125  10.645   1.803
16332SOL    HW250829   5.203  10.534   1.871
16333SOL     OW50830   7.899  14.142   6.633
16333SOL    HW150831   7.895  14.211   6.566
16333SOL    HW250832   7.973  14.088   6.608
16334SOL     OW50833  13.362  14.105   3.282
16334SOL    HW150834  13.348  14.147   3.367
16334SOL    HW250835  13.277  14.065   3.261
16335SOL     OW50836  11.647   5.676   0.298
16335SOL    HW150837  11.737   5.681   0.267
16335SOL    HW250838  11.615   5.592   0.266
16336SOL     OW50839   9.705   6.032  12.426
16336SOL    HW150840   9.688   6.031  12.331
16336SOL    HW250841   9.682   6.120  12.453
16337SOL     OW50842   1.226   0.430  13.447
16337SOL    HW150843   1.319   0.451  13.453
16337SOL    HW250844   1.193   0.484  13.375
16338SOL     OW50845  14.818  11.839   2.601
16338SOL    HW150846  14.743  11.780   2.591
16338SOL    HW250847  14.792  11.918   2.554
16339SOL     OW50848  12.335  14.791   5.014
16339SOL    HW150849  12.347  14.710   5.063
16339SOL    HW250850  12.412  14.843   5.035
16340SOL     OW50851   4.637   2.196   2.149
16340SOL    HW150852   4.581   2.124   2.120
16340SOL    HW250853   4.704   2.154   2.203
16341SOL     OW50854  12.337   0.338  14.682
16341SOL    HW150855  12.377   0.410  14.730
16341SOL    HW250856  12.313   0.375  14.597
16342SOL     OW50857   4.345   1.346   4.440
16342SOL    HW150858   4.316   1.411   4.376
16342SOL    HW250859   4.362   1.268   4.388
16343SOL     OW50860   6.353   2.839   3.200
16343SOL    HW150861   6.381   2.772   3.262
16343SOL    HW250862   6.260   2.851   3.217
16344SOL     OW50863  14.219   4.180  11.354
16344SOL    HW150864  14.156   4.241  11.393
16344SOL    HW250865  14.283   4.165  11.422
16345SOL     OW50866   0.497  10.564   1.327
16345SOL    HW150867   0.465  10.620   1.257
16345SOL    HW250868   0.539  10.491   1.282
16346SOL     OW50869   6.990  10.058   6.142
16346SOL    HW150870   7.049   9.992   6.106
16346SOL    HW250871   7.035  10.141   6.128
16347SOL     OW50872   4.898   2.623  11.129
16347SOL    HW150873   4.875   2.673  11.207
16347SOL    HW250874   4.950   2.550  11.161
16348SOL     OW50875   9.053   8.006   4.077
16348SOL    HW150876   9.077   8.071   4.011
16348SOL    HW250877   8.973   7.965   4.044
16349SOL     OW50878  14.545   5.414  11.559
16349SOL    HW150879  14.499   5.466  11.492
16349SOL    HW250880  14.509   5.446  11.642
16350SOL     OW50881   2.902   2.884   8.553
16350SOL    HW150882   2.862   2.799   8.532
16350SOL    HW250883   2.925   2.922   8.469
16351SOL     OW50884   3.603  12.446   9.756
16351SOL    HW150885   3.625  12.537   9.776
16351SOL    HW250886   3.526  12.452   9.700
16352SOL     OW50887   4.273   3.752   3.874
16352SOL    HW150888   4.326   3.776   3.797
16352SOL    HW250889   4.200   3.814   3.873
16353SOL     OW50890   6.436   4.114   5.497
16353SOL    HW150891   6.468   4.102   5.587
16353SOL    HW250892   6.511   4.090   5.442
16354SOL     OW50893   1.200   0.692  12.417
16354SOL    HW150894   1.206   0.598  12.396
16354SOL    HW250895   1.255   0.735  12.351
16355SOL     OW50896   7.064   7.380  11.956
16355SOL    HW150897   7.005   7.308  11.978
16355SOL    HW250898   7.115   7.347  11.882
16356SOL     OW50899  13.671   0.290  11.874
16356SOL    HW150900  13.652   0.383  11.881
16356SOL    HW250901  13.677   0.274  11.779
16357SOL     OW50902   2.254   7.964   0.191
16357SOL    HW150903   2.333   7.943   0.141
16357SOL    HW250904   2.270   8.052   0.225
16358SOL     OW50905   2.042  14.244  14.604
16358SOL    HW150906   2.099  14.236  14.681
16358SOL    HW250907   2.101  14.261  14.532
16359SOL     OW50908   8.257   3.726   9.523
16359SOL    HW150909   8.190   3.671   9.564
16359SOL    HW250910   8.338   3.704   9.570
16360SOL     OW50911   0.531   7.092   9.887
16360SOL    HW150912   0.570   7.092   9.799
16360SOL    HW250913   0.479   7.172   9.889
16361SOL     OW50914   8.630  14.322   4.619
16361SOL    HW150915   8.689  14.269   4.566
16361SOL    HW250916   8.679  14.403   4.634
16362SOL     OW50917   0.929   6.227  13.661
16362SOL    HW150918   0.907   6.309  13.618
16362SOL    HW250919   0.864   6.165  13.628
16363SOL     OW50920   2.266   6.341   5.907
16363SOL    HW150921   2.332   6.334   5.977
16363SOL    HW250922   2.311   6.311   5.828
16364SOL     OW50923  14.537   4.978   1.709
16364SOL    HW150924  14.594   4.929   1.650
16364SOL    HW250925  14.562   5.069   1.697
16365SOL     OW50926   9.548   0.284   0.932
16365SOL    HW150927   9.574   0.365   0.975
16365SOL    HW250928   9.540   0.220   1.003
16366SOL     OW50929  14.714   4.752  11.391
16366SOL    HW150930  14.772   4.787  11.324
16366SOL    HW250931  14.704   4.824  11.454
16367SOL     OW50932   6.201  12.462  11.627
16367SOL    HW150933   6.149  12.385  11.603
16367SOL    HW250934   6.290  12.428  11.639
16368SOL     OW50935   6.036   1.038   2.605
16368SOL    HW150936   6.127   1.022   2.630
16368SOL    HW250937   5.991   0.957   2.629
16369SOL     OW50938   8.974   8.907   3.734
16369SOL    HW150939   8.912   8.916   3.662
16369SOL    HW250940   9.048   8.859   3.697
16370SOL     OW50941   8.781   8.129   9.910
16370SOL    HW150942   8.836   8.185   9.964
16370SOL    HW250943   8.703   8.182   9.892
16371SOL     OW50944   5.178  10.097  10.534
16371SOL    HW150945   5.114  10.026  10.528
16371SOL    HW250946   5.260  10.053  10.556
16372SOL     OW50947   3.683   5.700   4.565
16372SOL    HW150948   3.745   5.741   4.625
16372SOL    HW250949   3.687   5.754   4.486
16373SOL     OW50950  14.845  10.097   9.762
16373SOL    HW150951  14.846  10.010   9.803
16373SOL    HW250952  14.842  10.078   9.668
16374SOL     OW50953  10.779  14.679   3.789
16374SOL    HW150954  10.827  14.697   3.870
16374SOL    HW250955  10.843  14.636   3.732
16375SOL     OW50956   1.434   0.313   1.458
16375SOL    HW150957   1.493   0.349   1.392
16375SOL    HW250958   1.480   0.328   1.541
16376SOL     OW50959   8.856  11.697   3.223
16376SOL    HW150960   8.867  11.614   3.175
16376SOL    HW250961   8.851  11.670   3.315
16377SOL     OW50962   3.543  14.188   7.790
16377SOL    HW150963   3.530  14.118   7.854
16377SOL    HW250964   3.636  14.208   7.794
16378SOL     OW50965  10.630  14.095  14.844
16378SOL    HW150966  10.658  14.151  14.772
16378SOL    HW250967  10.600  14.014  14.803
16379SOL     OW50968  11.562  12.323   7.044
16379SOL    HW150969  11.613  12.243   7.057
16379SOL    HW250970  11.592  12.382   7.113
16380SOL     OW50971   7.140  14.766   5.623
16380SOL    HW150972   7.234  14.756   5.607
16380SOL    HW250973   7.116  14.687   5.672
16381SOL     OW50974  13.311   0.322   9.593
16381SOL    HW150975  13.280   0.411   9.608
16381SOL    HW250976  13.347   0.324   9.504
16382SOL     OW50977   4.475   5.279   0.522
16382SOL    HW150978   4.513   5.318   0.443
16382SOL    HW250979   4.481   5.349   0.587
16383SOL     OW50980   5.286   3.185  14.203
16383SOL    HW150981   5.273   3.233  14.285
16383SOL    HW250982   5.217   3.217  14.146
16384SOL     OW50983   0.988   1.305   4.315
16384SOL    HW150984   1.009   1.211   4.316
16384SOL    HW250985   1.073   1.349   4.309
16385SOL     OW50986   2.878   0.892   3.333
16385SOL    HW150987   2.887   0.986   3.352
16385SOL    HW250988   2.932   0.879   3.255
16386SOL     OW50989   4.240   3.015   0.532
16386SOL    HW150990   4.283   3.083   0.583
16386SOL    HW250991   4.285   2.934   0.559
16387SOL     OW50992  14.800  10.517   2.168
16387SOL    HW150993  14.738  10.515   2.096
16387SOL    HW250994   0.001  10.491   2.129
16388SOL     OW50995  14.616  11.275  13.681
16388SOL    HW150996  14.594  11.286  13.774
16388SOL    HW250997  14.537  11.237  13.642
16389SOL     OW50998   5.606  10.674   1.343
16389SOL    HW150999   5.694  10.653   1.311
16389SOL    HW251000   5.618  10.698   1.434
16390SOL     OW51001   2.325   6.712   7.188
16390SOL    HW151002   2.240   6.731   7.149
16390SOL    HW251003   2.305   6.672   7.273
16391SOL     OW51004   1.720   1.957  10.804
16391SOL    HW151005   1.788   1.960  10.871
16391SOL    HW251006   1.694   2.048  10.791
16392SOL     OW51007   3.325   9.025   9.431
16392SOL    HW151008   3.393   9.015   9.365
16392SOL    HW251009   3.348   9.105   9.477
16393SOL     OW51010  11.764   3.293  14.037
16393SOL    HW151011  11.751   3.313  13.944
16393SOL    HW251012  11.749   3.376  14.082
16394SOL     OW51013   4.501  11.158  14.119
16394SOL    HW151014   4.438  11.175  14.189
16394SOL    HW251015   4.554  11.237  14.114
16395SOL     OW51016   2.218   0.785   4.697
16395SOL    HW151017   2.208   0.709   4.755
16395SOL    HW251018   2.158   0.767   4.624
16396SOL     OW51019   5.911  12.397   7.963
16396SOL    HW151020   5.882  12.483   7.933
16396SOL    HW251021   5.847  12.336   7.926
16397SOL     OW51022   7.818   0.906  13.683
16397SOL    HW151023   7.792   0.851  13.610
16397SOL    HW251024   7.827   0.846  13.757
16398SOL     OW51025  14.159   1.547   3.535
16398SOL    HW151026  14.202   1.501   3.463
16398SOL    HW251027  14.108   1.616   3.492
16399SOL     OW51028   9.548  14.541   0.565
16399SOL    HW151029   9.589  14.456   0.545
16399SOL    HW251030   9.520  14.533   0.656
16400SOL     OW51031  10.076  13.168   6.944
16400SOL    HW151032  10.104  13.077   6.946
16400SOL    HW251033  10.039  13.183   7.031
16401SOL     OW51034   0.422   9.836   0.832
16401SOL    HW151035   0.460   9.848   0.919
16401SOL    HW251036   0.416   9.924   0.796
16402SOL     OW51037   2.650   4.380   8.008
16402SOL    HW151038   2.691   4.420   8.084
16402SOL    HW251039   2.576   4.436   7.988
16403SOL     OW51040  12.207   2.730   5.641
16403SOL    HW151041  12.145   2.675   5.688
16403SOL    HW251042  12.188   2.715   5.549
16404SOL     OW51043   0.540   2.168  14.206
16404SOL    HW151044   0.582   2.248  14.236
16404SOL    HW251045   0.603   2.128  14.146
16405SOL     OW51046  10.925   4.178   6.598
16405SOL    HW151047  10.942   4.206   6.688
16405SOL    HW251048  10.841   4.219   6.576
16406SOL     OW51049   8.446   4.106   5.058
16406SOL    HW151050   8.527   4.067   5.025
16406SOL    HW251051   8.385   4.033   5.061
16407SOL     OW51052   0.380  14.830  14.599
16407SOL    HW151053   0.377  14.835  14.695
16407SOL    HW251054   0.338  14.746  14.579
16408SOL     OW51055  14.691  12.450   8.321
16408SOL    HW151056  14.716  12.358   8.320
16408SOL    HW251057  14.597  12.449   8.340
16409SOL     OW51058   1.091  12.308   8.936
16409SOL    HW151059   1.184  12.287   8.931
16409SOL    HW251060   1.085  12.373   9.006
16410SOL     OW51061  12.413   8.973  10.805
16410SOL    HW151062  12.380   8.917  10.735
16410SOL    HW251063  12.360   9.052  10.800
16411SOL     OW51064  12.451   9.395   5.175
16411SOL    HW151065  12.378   9.365   5.230
16411SOL    HW251066  12.418   9.388   5.086
16412SOL     OW51067   6.817   6.616   7.166
16412SOL    HW151068   6.724   6.616   7.188
16412SOL    HW251069   6.847   6.704   7.191
16413SOL     OW51070   1.843   3.293   8.561
16413SOL    HW151071   1.802   3.209   8.541
16413SOL    HW251072   1.871   3.327   8.476
16414SOL     OW51073  13.930   8.134   7.042
16414SOL    HW151074  13.913   8.040   7.055
16414SOL    HW251075  13.864   8.162   6.979
16415SOL     OW51076   5.588  10.410   1.443
16415SOL    HW151077   5.595  10.498   1.407
16415SOL    HW251078   5.647  10.357   1.389
16416SOL     OW51079   6.146   4.470   9.919
16416SOL    HW151080   6.206   4.476   9.845
16416SOL    HW251081   6.199   4.494   9.995
16417SOL     OW51082   0.399   3.824   5.464
16417SOL    HW151083   0.365   3.771   5.536
16417SOL    HW251084   0.477   3.867   5.501
16418SOL     OW51085   9.355   2.791   3.984
16418SOL    HW151086   9.365   2.866   3.925
16418SOL    HW251087   9.425   2.731   3.958
16419SOL     OW51088   8.212   6.207   2.804
16419SOL    HW151089   8.129   6.206   2.756
16419SOL    HW251090   8.185   6.197   2.896
16420SOL     OW51091   8.561   2.444   8.504
16420SOL    HW151092   8.474   2.442   8.463
16420SOL    HW251093   8.557   2.517   8.565
16421SOL     OW51094   6.974  13.154   9.585
16421SOL    HW151095   7.047  13.187   9.637
16421SOL    HW251096   6.991  13.061   9.576
16422SOL     OW51097  10.394   0.041   3.453
16422SOL    HW151098  10.336   0.066   3.525
16422SOL    HW251099  10.464  14.874   3.496
16423SOL     OW51100   1.213  14.334   6.285
16423SOL    HW151101   1.294  14.339   6.234
16423SOL    HW251102   1.242  14.327   6.376
16424SOL     OW51103   3.566   2.091   6.915
16424SOL    HW151104   3.570   2.165   6.975
16424SOL    HW251105   3.647   2.095   6.866
16425SOL     OW51106   9.200   3.356   6.136
16425SOL    HW151107   9.169   3.273   6.098
16425SOL    HW251108   9.210   3.414   6.061
16426SOL     OW51109   1.802   2.430   3.923
16426SOL    HW151110   1.749   2.376   3.982
16426SOL    HW251111   1.741   2.455   3.853
16427SOL     OW51112   4.858  12.995  14.186
16427SOL    HW151113   4.842  12.970  14.277
16427SOL    HW251114   4.836  13.088  14.182
16428SOL     OW51115   9.783   4.563   3.784
16428SOL    HW151116   9.875   4.560   3.812
16428SOL    HW251117   9.776   4.644   3.734
16429SOL     OW51118  12.999   5.805  14.365
16429SOL    HW151119  13.087   5.799  14.328
16429SOL    HW251120  12.984   5.720  14.405
16430SOL     OW51121  12.535   2.886   7.727
16430SOL    HW151122  12.454   2.883   7.675
16430SOL    HW251123  12.543   2.797   7.763
16431SOL     OW51124   1.393  13.103   1.614
16431SOL    HW151125   1.371  13.090   1.707
16431SOL    HW251126   1.310  13.090   1.568
16432SOL     OW51127  11.607  11.033   9.540
16432SOL    HW151128  11.631  11.047   9.448
16432SOL    HW251129  11.565  11.114   9.567
16433SOL     OW51130   5.286   0.421  14.429
16433SOL    HW151131   5.305   0.513  14.449
16433SOL    HW251132   5.222   0.395  14.494
16434SOL     OW51133   5.026   8.896   3.880
16434SOL    HW151134   5.097   8.848   3.923
16434SOL    HW251135   4.998   8.837   3.809
16435SOL     OW51136  12.433   8.724   4.629
16435SOL    HW151137  12.500   8.658   4.614
16435SOL    HW251138  12.415   8.760   4.542
16436SOL     OW51139   3.888   1.413   2.496
16436SOL    HW151140   3.859   1.322   2.496
16436SOL    HW251141   3.911   1.432   2.405
16437SOL     OW51142   5.000  10.272   3.389
16437SOL    HW151143   4.975  10.183   3.363
16437SOL    HW251144   4.920  10.309   3.427
16438SOL     OW51145  12.717   1.466   9.443
16438SOL    HW151146  12.765   1.533   9.491
16438SOL    HW251147  12.629   1.467   9.482
16439SOL     OW51148   2.445   7.515  12.411
16439SOL    HW151149   2.429   7.424  12.438
16439SOL    HW251150   2.452   7.564  12.492
16440SOL     OW51151  11.677  10.529   2.948
16440SOL    HW151152  11.591  10.553   2.914
16440SOL    HW251153  11.661  10.450   3.000
16441SOL     OW51154  14.665   8.227   6.473
16441SOL    HW151155  14.738   8.225   6.535
16441SOL    HW251156  14.691   8.166   6.404
16442SOL     OW51157  14.101   5.179  13.223
16442SOL    HW151158  14.073   5.183  13.131
16442SOL    HW251159  14.025   5.208  13.273
16443SOL     OW51160   7.414   4.052  11.465
16443SOL    HW151161   7.471   4.128  11.477
16443SOL    HW251162   7.409   4.040  11.370
16444SOL     OW51163  10.718   3.149   9.846
16444SOL    HW151164  10.791   3.090   9.861
16444SOL    HW251165  10.706   3.148   9.751
16445SOL     OW51166  13.479   7.784   0.265
16445SOL    HW151167  13.420   7.718   0.228
16445SOL    HW251168  13.446   7.868   0.230
16446SOL     OW51169   5.670   5.697  14.515
16446SOL    HW151170   5.741   5.761  14.514
16446SOL    HW251171   5.629   5.705  14.428
16447SOL     OW51172   2.292   8.796   5.566
16447SOL    HW151173   2.280   8.874   5.513
16447SOL    HW251174   2.309   8.726   5.503
16448SOL     OW51175  11.062  10.888  12.735
16448SOL    HW151176  11.067  10.931  12.650
16448SOL    HW251177  10.983  10.834  12.729
16449SOL     OW51178  10.808   0.082   3.892
16449SOL    HW151179  10.806   0.089   3.988
16449SOL    HW251180  10.716   0.073   3.867
16450SOL     OW51181  13.702   9.137  10.234
16450SOL    HW151182  13.786   9.183  10.233
16450SOL    HW251183  13.638   9.204  10.259
16451SOL     OW51184   1.539   0.025   3.466
16451SOL    HW151185   1.618   0.070   3.435
16451SOL    HW251186   1.552  14.816   3.440
16452SOL     OW51187  11.027  13.842   4.770
16452SOL    HW151188  11.121  13.864   4.767
16452SOL    HW251189  11.025  13.748   4.787
16453SOL     OW51190  13.888   8.034   0.058
16453SOL    HW151191  13.810   8.084   0.084
16453SOL    HW251192  13.946   8.039   0.134
16454SOL     OW51193  13.891   1.200  13.166
16454SOL    HW151194  13.922   1.212  13.076
16454SOL    HW251195  13.913   1.110  13.187
16455SOL     OW51196   9.323   1.256  12.007
16455SOL    HW151197   9.355   1.345  12.021
16455SOL    HW251198   9.359   1.206  12.080
16456SOL     OW51199   1.808   1.811  13.351
16456SOL    HW151200   1.745   1.783  13.283
16456SOL    HW251201   1.835   1.730  13.393
16457SOL     OW51202   5.798   5.525  10.241
16457SOL    HW151203   5.794   5.432  10.262
16457SOL    HW251204   5.847   5.563  10.314
16458SOL     OW51205   8.057   3.981   4.303
16458SOL    HW151206   8.073   3.927   4.380
16458SOL    HW251207   8.110   3.941   4.234
16459SOL     OW51208   1.447  12.126   1.985
16459SOL    HW151209   1.520  12.070   1.959
16459SOL    HW251210   1.482  12.215   1.980
16460SOL     OW51211   5.172   2.811   6.907
16460SOL    HW151212   5.140   2.732   6.949
16460SOL    HW251213   5.222   2.856   6.976
16461SOL     OW51214  13.317   3.688  12.799
16461SOL    HW151215  13.395   3.640  12.771
16461SOL    HW251216  13.276   3.717  12.717
16462SOL     OW51217   3.463   7.094   5.668
16462SOL    HW151218   3.436   7.100   5.576
16462SOL    HW251219   3.556   7.069   5.664
16463SOL     OW51220   4.936   3.230  11.129
16463SOL    HW151221   4.914   3.309  11.080
16463SOL    HW251222   5.014   3.254  11.179
16464SOL     OW51223   0.099  11.269   9.282
16464SOL    HW151224   0.193  11.252   9.278
16464SOL    HW251225   0.077  11.304   9.196
16465SOL     OW51226   1.550   5.229  12.578
16465SOL    HW151227   1.584   5.229  12.489
16465SOL    HW251228   1.527   5.137  12.594
16466SOL     OW51229   7.169  10.321   2.759
16466SOL    HW151230   7.101  10.302   2.824
16466SOL    HW251231   7.251  10.308   2.805
16467SOL     OW51232   2.917  13.767   3.396
16467SOL    HW151233   2.843  13.742   3.341
16467SOL    HW251234   2.907  13.861   3.408
16468SOL     OW51235   7.230  12.250   7.804
16468SOL    HW151236   7.175  12.177   7.776
16468SOL    HW251237   7.192  12.327   7.761
16469SOL     OW51238   8.366   8.063   9.751
16469SOL    HW151239   8.422   7.992   9.719
16469SOL    HW251240   8.419   8.142   9.739
16470SOL     OW51241  13.643  13.779   4.514
16470SOL    HW151242  13.720  13.722   4.516
16470SOL    HW251243  13.645  13.820   4.428
16471SOL     OW51244  14.693   1.874  12.454
16471SOL    HW151245  14.635   1.860  12.528
16471SOL    HW251246  14.635   1.880  12.378
16472SOL     OW51247   3.020   3.593  12.062
16472SOL    HW151248   2.950   3.645  12.025
16472SOL    HW251249   3.009   3.506  12.023
16473SOL     OW51250  11.316   2.572   7.716
16473SOL    HW151251  11.383   2.567   7.648
16473SOL    HW251252  11.307   2.666   7.734
16474SOL     OW51253  12.720  13.726   5.591
16474SOL    HW151254  12.807  13.734   5.553
16474SOL    HW251255  12.677  13.657   5.540
16475SOL     OW51256  11.739  14.158   0.810
16475SOL    HW151257  11.676  14.125   0.874
16475SOL    HW251258  11.700  14.238   0.776
16476SOL     OW51259  13.297  14.364   4.114
16476SOL    HW151260  13.274  14.446   4.158
16476SOL    HW251261  13.391  14.354   4.128
16477SOL     OW51262   3.649  10.677   8.576
16477SOL    HW151263   3.592  10.735   8.627
16477SOL    HW251264   3.604  10.666   8.492
16478SOL     OW51265   4.547  14.729   3.423
16478SOL    HW151266   4.612  14.778   3.473
16478SOL    HW251267   4.590  14.710   3.339
16479SOL     OW51268  11.995   3.661  12.516
16479SOL    HW151269  11.992   3.724  12.444
16479SOL    HW251270  12.069   3.689  12.569
16480SOL     OW51271   2.065   6.906   7.385
16480SOL    HW151272   2.144   6.951   7.413
16480SOL    HW251273   2.005   6.976   7.358
16481SOL     OW51274  10.611   9.241  10.908
16481SOL    HW151275  10.592   9.193  10.988
16481SOL    HW251276  10.693   9.204  10.876
16482SOL     OW51277   3.102  10.176  14.339
16482SOL    HW151278   3.072  10.137  14.257
16482SOL    HW251279   3.022  10.192  14.389
16483SOL     OW51280   8.145  10.979  14.165
16483SOL    HW151281   8.156  10.948  14.255
16483SOL    HW251282   8.170  10.905  14.110
16484SOL     OW51283   8.090   4.769   0.975
16484SOL    HW151284   8.016   4.768   1.035
16484SOL    HW251285   8.154   4.711   1.017
16485SOL     OW51286   5.080   2.429  11.201
16485SOL    HW151287   5.137   2.412  11.276
16485SOL    HW251288   5.126   2.391  11.126
16486SOL     OW51289   6.836   0.527  13.354
16486SOL    HW151290   6.913   0.584  13.352
16486SOL    HW251291   6.857   0.461  13.421
16487SOL     OW51292   7.192   3.096   3.903
16487SOL    HW151293   7.250   3.124   3.831
16487SOL    HW251294   7.146   3.176   3.929
16488SOL     OW51295   8.160   4.970   1.540
16488SOL    HW151296   8.077   5.017   1.550
16488SOL    HW251297   8.181   4.938   1.627
16489SOL     OW51298  11.493   9.635  13.728
16489SOL    HW151299  11.405   9.607  13.752
16489SOL    HW251300  11.525   9.566  13.671
16490SOL     OW51301  11.945   1.215   6.156
16490SOL    HW151302  11.866   1.266   6.176
16490SOL    HW251303  11.913   1.126   6.144
16491SOL     OW51304   7.506  12.647   3.423
16491SOL    HW151305   7.496  12.728   3.374
16491SOL    HW251306   7.601  12.633   3.428
16492SOL     OW51307  12.545   9.545  12.593
16492SOL    HW151308  12.557   9.575  12.683
16492SOL    HW251309  12.633   9.522  12.563
16493SOL     OW51310   2.605   8.282  10.496
16493SOL    HW151311   2.636   8.233  10.420
16493SOL    HW251312   2.540   8.342  10.461
16494SOL     OW51313  13.111  11.257   8.902
16494SOL    HW151314  13.115  11.306   8.820
16494SOL    HW251315  13.186  11.198   8.899
16495SOL     OW51316  12.948   3.134   7.961
16495SOL    HW151317  12.974   3.087   8.040
16495SOL    HW251318  12.882   3.077   7.920
16496SOL     OW51319  14.346   5.077   3.965
16496SOL    HW151320  14.429   5.094   4.009
16496SOL    HW251321  14.280   5.115   4.023
16497SOL     OW51322   6.179  12.027  11.761
16497SOL    HW151323   6.088  12.023  11.790
16497SOL    HW251324   6.224  11.960  11.813
16498SOL     OW51325   2.879   7.260   9.295
16498SOL    HW151326   2.920   7.338   9.335
16498SOL    HW251327   2.918   7.254   9.208
16499SOL     OW51328   1.872   9.511  14.123
16499SOL    HW151329   1.928   9.443  14.085
16499SOL    HW251330   1.787   9.469  14.134
16500SOL     OW51331  13.890   8.888   0.678
16500SOL    HW151332  13.954   8.822   0.706
16500SOL    HW251333  13.816   8.837   0.644
16501SOL     OW51334   1.532   2.967  14.845
16501SOL    HW151335   1.567   3.056  14.851
16501SOL    HW251336   1.609   2.912  14.831
16502SOL     OW51337   5.644   0.710   1.557
16502SOL    HW151338   5.611   0.764   1.629
16502SOL    HW251339   5.727   0.675   1.589
16503SOL     OW51340   7.400   6.840   2.354
16503SOL    HW151341   7.454   6.912   2.321
16503SOL    HW251342   7.349   6.878   2.425
16504SOL     OW51343   4.984  11.535  13.881
16504SOL    HW151344   4.920  11.470  13.850
16504SOL    HW251345   5.013  11.580  13.802
16505SOL     OW51346   2.127   9.601   2.809
16505SOL    HW151347   2.054   9.662   2.823
16505SOL    HW251348   2.199   9.639   2.861
16506SOL     OW51349  12.873   9.128   5.943
16506SOL    HW151350  12.847   9.068   5.873
16506SOL    HW251351  12.896   9.209   5.898
16507SOL     OW51352  10.178   0.120   2.760
16507SOL    HW151353  10.162   0.051   2.695
16507SOL    HW251354  10.119   0.099   2.832
16508SOL     OW51355   1.755  11.788  11.445
16508SOL    HW151356   1.733  11.849  11.515
16508SOL    HW251357   1.683  11.725  11.444
16509SOL     OW51358   2.895   9.217   7.657
16509SOL    HW151359   2.810   9.241   7.621
16509SOL    HW251360   2.899   9.122   7.649
16510SOL     OW51361  10.715   0.232  13.723
16510SOL    HW151362  10.650   0.166  13.749
16510SOL    HW251363  10.688   0.311  13.769
16511SOL     OW51364   7.408  13.258   7.665
16511SOL    HW151365   7.341  13.200   7.700
16511SOL    HW251366   7.485  13.242   7.721
16512SOL     OW51367   2.185  11.804   6.795
16512SOL    HW151368   2.238  11.867   6.843
16512SOL    HW251369   2.247  11.738   6.766
16513SOL     OW51370  14.554   7.237  13.601
16513SOL    HW151371  14.543   7.307  13.537
16513SOL    HW251372  14.468   7.231  13.644
16514SOL     OW51373   9.771   4.294   7.118
16514SOL    HW151374   9.811   4.230   7.059
16514SOL    HW251375   9.806   4.378   7.089
16515SOL     OW51376   3.722   5.582   8.546
16515SOL    HW151377   3.719   5.548   8.635
16515SOL    HW251378   3.645   5.639   8.539
16516SOL     OW51379  11.711   2.696   7.006
16516SOL    HW151380  11.793   2.694   6.957
16516SOL    HW251381  11.722   2.630   7.075
16517SOL     OW51382  11.324  11.247   0.964
16517SOL    HW151383  11.316  11.327   1.016
16517SOL    HW251384  11.418  11.231   0.960
16518SOL     OW51385  11.282  12.235   4.909
16518SOL    HW151386  11.237  12.319   4.922
16518SOL    HW251387  11.231  12.192   4.840
16519SOL     OW51388   1.727   2.998   8.745
16519SOL    HW151389   1.744   2.997   8.650
16519SOL    HW251390   1.809   3.029   8.783
16520SOL     OW51391   8.631   3.501  11.517
16520SOL    HW151392   8.570   3.435  11.484
16520SOL    HW251393   8.712   3.487  11.468
16521SOL     OW51394   3.079   5.600   9.975
16521SOL    HW151395   2.984   5.585   9.975
16521SOL    HW251396   3.092   5.670  10.039
16522SOL     OW51397   9.247  13.514  13.587
16522SOL    HW151398   9.323  13.571  13.603
16522SOL    HW251399   9.274  13.459  13.513
16523SOL     OW51400   9.972  11.789   2.104
16523SOL    HW151401  10.027  11.815   2.029
16523SOL    HW251402   9.929  11.870   2.131
16524SOL     OW51403   5.620  11.932   2.853
16524SOL    HW151404   5.652  12.016   2.821
16524SOL    HW251405   5.604  11.946   2.947
16525SOL     OW51406  12.263  11.493   0.140
16525SOL    HW151407  12.208  11.571   0.130
16525SOL    HW251408  12.338  11.524   0.190
16526SOL     OW51409   8.946  12.648   2.670
16526SOL    HW151410   8.973  12.556   2.658
16526SOL    HW251411   9.002  12.681   2.740
16527SOL     OW51412   9.769  13.846   2.341
16527SOL    HW151413   9.858  13.869   2.316
16527SOL    HW251414   9.733  13.801   2.264
16528SOL     OW51415   9.619   5.646   9.124
16528SOL    HW151416   9.621   5.552   9.108
16528SOL    HW251417   9.707   5.666   9.157
16529SOL     OW51418  11.830  14.281  10.394
16529SOL    HW151419  11.852  14.260  10.303
16529SOL    HW251420  11.760  14.221  10.416
16530SOL     OW51421   3.218  12.633  13.212
16530SOL    HW151422   3.281  12.563  13.193
16530SOL    HW251423   3.133  12.594  13.193
16531SOL     OW51424  11.560   3.380  14.866
16531SOL    HW151425  11.532   3.347  14.781
16531SOL    HW251426  11.650   3.350  14.875
16532SOL     OW51427  12.844  13.924  14.506
16532SOL    HW151428  12.835  13.839  14.548
16532SOL    HW251429  12.935  13.927  14.477
16533SOL     OW51430  13.559   4.586   1.935
16533SOL    HW151431  13.532   4.502   1.897
16533SOL    HW251432  13.530   4.581   2.026
16534SOL     OW51433   9.207   6.200   7.493
16534SOL    HW151434   9.299   6.198   7.522
16534SOL    HW251435   9.157   6.181   7.573
16535SOL     OW51436   0.322  10.036   6.844
16535SOL    HW151437   0.376  10.114   6.834
16535SOL    HW251438   0.232  10.069   6.846
16536SOL     OW51439  12.479   2.439   6.207
16536SOL    HW151440  12.405   2.481   6.162
16536SOL    HW251441  12.521   2.386   6.140
16537SOL     OW51442  11.077   8.568   7.351
16537SOL    HW151443  11.061   8.590   7.443
16537SOL    HW251444  11.060   8.474   7.346
16538SOL     OW51445   5.755   8.820  10.664
16538SOL    HW151446   5.776   8.833  10.757
16538SOL    HW251447   5.702   8.740  10.663
16539SOL     OW51448   7.989   3.221   5.512
16539SOL    HW151449   8.018   3.267   5.591
16539SOL    HW251450   7.971   3.132   5.542
16540SOL     OW51451  11.543   2.171   6.727
16540SOL    HW151452  11.487   2.247   6.714
16540SOL    HW251453  11.561   2.139   6.639
16541SOL     OW51454   2.314  13.792  10.954
16541SOL    HW151455   2.320  13.712  10.901
16541SOL    HW251456   2.286  13.762  11.040
16542SOL     OW51457   5.501  14.051   1.335
16542SOL    HW151458   5.494  14.012   1.248
16542SOL    HW251459   5.428  14.113   1.339
16543SOL     OW51460   2.948  12.543  13.202
16543SOL    HW151461   2.945  12.547  13.298
16543SOL    HW251462   2.868  12.497  13.177
16544SOL     OW51463   7.713  14.162  13.138
16544SOL    HW151464   7.644  14.208  13.186
16544SOL    HW251465   7.788  14.221  13.140
16545SOL     OW51466   6.237   4.149   4.181
16545SOL    HW151467   6.261   4.209   4.251
16545SOL    HW251468   6.315   4.095   4.168
16546SOL     OW51469  13.013  14.811  10.016
16546SOL    HW151470  13.084  14.876  10.021
16546SOL    HW251471  12.934  14.860  10.037
16547SOL     OW51472  13.669  12.384  14.520
16547SOL    HW151473  13.700  12.309  14.571
16547SOL    HW251474  13.749  12.429  14.492
16548SOL     OW51475  12.772   8.091  11.256
16548SOL    HW151476  12.858   8.101  11.215
16548SOL    HW251477  12.711   8.131  11.194
16549SOL     OW51478  10.205   7.010   5.546
16549SOL    HW151479  10.168   6.928   5.514
16549SOL    HW251480  10.137   7.076   5.530
16550SOL     OW51481   6.009   8.900   1.985
16550SOL    HW151482   6.095   8.939   1.998
16550SOL    HW251483   5.953   8.972   1.958
16551SOL     OW51484   8.106   7.304   3.430
16551SOL    HW151485   8.024   7.267   3.398
16551SOL    HW251486   8.089   7.398   3.439
16552SOL     OW51487   1.938  12.694  14.461
16552SOL    HW151488   1.870  12.728  14.520
16552SOL    HW251489   1.935  12.599  14.473
16553SOL     OW51490   8.752   5.160   5.424
16553SOL    HW151491   8.781   5.184   5.336
16553SOL    HW251492   8.814   5.205   5.482
16554SOL     OW51493  13.072  10.272  13.251
16554SOL    HW151494  12.999  10.212  13.270
16554SOL    HW251495  13.150  10.224  13.277
16555SOL     OW51496   4.739   5.683  13.061
16555SOL    HW151497   4.699   5.596  13.050
16555SOL    HW251498   4.665   5.743  13.062
16556SOL     OW51499   5.997   3.337  11.348
16556SOL    HW151500   6.066   3.364  11.408
16556SOL    HW251501   5.961   3.257  11.387
16557SOL     OW51502  10.380   6.397   8.033
16557SOL    HW151503  10.409   6.449   8.108
16557SOL    HW251504  10.376   6.460   7.961
16558SOL     OW51505   7.168   9.527  11.943
16558SOL    HW151506   7.247   9.493  11.901
16558SOL    HW251507   7.195   9.546  12.033
16559SOL     OW51508   5.459   8.501   6.419
16559SOL    HW151509   5.481   8.586   6.383
16559SOL    HW251510   5.510   8.439   6.367
16560SOL     OW51511   6.144   5.493   2.708
16560SOL    HW151512   6.110   5.515   2.621
16560SOL    HW251513   6.068   5.503   2.766
16561SOL     OW51514  11.554   9.944   9.722
16561SOL    HW151515  11.547   9.878   9.791
16561SOL    HW251516  11.475   9.934   9.670
16562SOL     OW51517   8.090  11.793  14.469
16562SOL    HW151518   8.021  11.822  14.409
16562SOL    HW251519   8.160  11.858  14.459
16563SOL     OW51520  11.704  12.903  12.714
16563SOL    HW151521  11.617  12.866  12.700
16563SOL    HW251522  11.715  12.902  12.809
16564SOL     OW51523  11.138  13.273   7.934
16564SOL    HW151524  11.043  13.280   7.936
16564SOL    HW251525  11.157  13.185   7.967
16565SOL     OW51526   7.473  13.601   2.628
16565SOL    HW151527   7.380  13.582   2.621
16565SOL    HW251528   7.503  13.547   2.701
16566SOL     OW51529   6.790  11.290   8.249
16566SOL    HW151530   6.843  11.213   8.270
16566SOL    HW251531   6.750  11.315   8.333
16567SOL     OW51532   6.573   2.101   9.766
16567SOL    HW151533   6.549   2.158   9.693
16567SOL    HW251534   6.627   2.156   9.822
16568SOL     OW51535   2.389  10.728   9.776
16568SOL    HW151536   2.482  10.738   9.798
16568SOL    HW251537   2.347  10.703   9.858
16569SOL     OW51538   4.583   5.328   6.645
16569SOL    HW151539   4.499   5.374   6.646
16569SOL    HW251540   4.636   5.373   6.712
16570SOL     OW51541   5.118   4.061   3.629
16570SOL    HW151542   5.191   4.101   3.676
16570SOL    HW251543   5.055   4.132   3.617
16571SOL     OW51544   6.021   9.892  12.708
16571SOL    HW151545   5.958   9.883  12.779
16571SOL    HW251546   6.105   9.871  12.748
16572SOL     OW51547   3.327   2.153   7.912
16572SOL    HW151548   3.272   2.116   7.844
16572SOL    HW251549   3.413   2.112   7.899
16573SOL     OW51550   8.397  13.229   4.806
16573SOL    HW151551   8.424  13.318   4.830
16573SOL    HW251552   8.322  13.242   4.748
16574SOL     OW51553  12.495  14.051   3.593
16574SOL    HW151554  12.540  13.970   3.572
16574SOL    HW251555  12.472  14.042   3.686
16575SOL     OW51556   3.882   4.587   4.259
16575SOL    HW151557   3.967   4.587   4.214
16575SOL    HW251558   3.885   4.664   4.316
16576SOL     OW51559   9.104   6.690  11.588
16576SOL    HW151560   9.197   6.705  11.609
16576SOL    HW251561   9.088   6.744  11.511
16577SOL     OW51562  11.306   0.808   1.569
16577SOL    HW151563  11.295   0.724   1.526
16577SOL    HW251564  11.392   0.839   1.542
16578SOL     OW51565  13.782  13.633   6.986
16578SOL    HW151566  13.868  13.647   6.946
16578SOL    HW251567  13.758  13.543   6.961
16579SOL     OW51568   0.678   6.159   1.285
16579SOL    HW151569   0.614   6.146   1.216
16579SOL    HW251570   0.762   6.166   1.239
16580SOL     OW51571   7.012   7.524   9.883
16580SOL    HW151572   7.030   7.436   9.849
16580SOL    HW251573   7.052   7.524   9.970
16581SOL     OW51574   0.501  10.952   1.325
16581SOL    HW151575   0.567  10.884   1.340
16581SOL    HW251576   0.548  11.021   1.278
16582SOL     OW51577  11.433  14.284   5.989
16582SOL    HW151578  11.428  14.322   6.077
16582SOL    HW251579  11.346  14.298   5.952
16583SOL     OW51580  10.163   2.734  10.812
16583SOL    HW151581  10.209   2.790  10.748
16583SOL    HW251582  10.087   2.701  10.764
16584SOL     OW51583  13.094   8.156  11.469
16584SOL    HW151584  13.163   8.119  11.524
16584SOL    HW251585  13.088   8.096  11.395
16585SOL     OW51586  13.789   9.522   5.751
16585SOL    HW151587  13.853   9.451   5.750
16585SOL    HW251588  13.804   9.568   5.833
16586SOL     OW51589  13.000   7.670   1.252
16586SOL    HW151590  12.974   7.582   1.227
16586SOL    HW251591  13.096   7.668   1.251
16587SOL     OW51592  12.388  12.020  12.068
16587SOL    HW151593  12.462  12.078  12.048
16587SOL    HW251594  12.407  11.987  12.156
16588SOL     OW51595   7.614   5.830   5.991
16588SOL    HW151596   7.601   5.849   6.084
16588SOL    HW251597   7.699   5.786   5.987
16589SOL     OW51598  13.122  11.494   1.443
16589SOL    HW151599  13.112  11.574   1.494
16589SOL    HW251600  13.142  11.426   1.508
16590SOL     OW51601  10.028  13.535  12.517
16590SOL    HW151602  10.041  13.558  12.425
16590SOL    HW251603  10.026  13.618  12.563
16591SOL     OW51604   5.324   8.326  10.880
16591SOL    HW151605   5.326   8.420  10.896
16591SOL    HW251606   5.249   8.295  10.931
16592SOL     OW51607  12.268   5.414   9.124
16592SOL    HW151608  12.200   5.474   9.155
16592SOL    HW251609  12.231   5.377   9.044
16593SOL     OW51610   2.276  10.212  14.012
16593SOL    HW151611   2.318  10.174  13.934
16593SOL    HW251612   2.348  10.250  14.062
16594SOL     OW51613   4.934   3.686  12.361
16594SOL    HW151614   4.952   3.711  12.452
16594SOL    HW251615   4.873   3.753  12.331
16595SOL     OW51616  13.012   8.052  10.379
16595SOL    HW151617  12.986   8.041  10.287
16595SOL    HW251618  13.055   8.138  10.381
16596SOL     OW51619   4.633   3.125   1.277
16596SOL    HW151620   4.593   3.166   1.353
16596SOL    HW251621   4.712   3.082   1.311
16597SOL     OW51622   5.024   1.208   7.787
16597SOL    HW151623   4.963   1.177   7.720
16597SOL    HW251624   5.091   1.256   7.739
16598SOL     OW51625  11.219   6.278   0.474
16598SOL    HW151626  11.278   6.269   0.549
16598SOL    HW251627  11.267   6.331   0.411
16599SOL     OW51628   9.039   7.306   1.182
16599SOL    HW151629   9.054   7.215   1.208
16599SOL    HW251630   9.098   7.356   1.239
16600SOL     OW51631   4.669  10.578   1.639
16600SOL    HW151632   4.742  10.517   1.627
16600SOL    HW251633   4.592  10.521   1.648
16601SOL     OW51634  11.517   9.953  12.239
16601SOL    HW151635  11.476   9.873  12.205
16601SOL    HW251636  11.448   9.995  12.290
16602SOL     OW51637  14.302   3.499   4.974
16602SOL    HW151638  14.361   3.521   5.046
16602SOL    HW251639  14.315   3.569   4.910
16603SOL     OW51640   8.224   2.756   1.302
16603SOL    HW151641   8.229   2.804   1.219
16603SOL    HW251642   8.315   2.738   1.325
16604SOL     OW51643  12.176  13.553  14.783
16604SOL    HW151644  12.190  13.496  14.859
16604SOL    HW251645  12.198  13.641  14.814
16605SOL     OW51646   9.046   2.946   2.581
16605SOL    HW151647   9.141   2.960   2.579
16605SOL    HW251648   9.010   3.013   2.523
16606SOL     OW51649   6.320   0.048   6.742
16606SOL    HW151650   6.392   0.060   6.680
16606SOL    HW251651   6.364   0.021   6.823
16607SOL     OW51652   7.487  13.873   1.500
16607SOL    HW151653   7.559  13.935   1.489
16607SOL    HW251654   7.462  13.850   1.411
16608SOL     OW51655   5.811  13.101   4.504
16608SOL    HW151656   5.814  13.177   4.562
16608SOL    HW251657   5.718  13.093   4.480
16609SOL     OW51658   9.352  14.670   3.316
16609SOL    HW151659   9.284  14.737   3.327
16609SOL    HW251660   9.380  14.680   3.225
16610SOL     OW51661  12.408   1.443  12.585
16610SOL    HW151662  12.382   1.535  12.585
16610SOL    HW251663  12.399   1.416  12.494
16611SOL     OW51664   0.594  10.052  11.693
16611SOL    HW151665   0.662  10.091  11.638
16611SOL    HW251666   0.643  10.009  11.763
16612SOL     OW51667   5.954   2.422  10.107
16612SOL    HW151668   5.978   2.336  10.074
16612SOL    HW251669   6.000   2.430  10.190
16613SOL     OW51670  13.880   7.932  14.553
16613SOL    HW151671  13.848   7.904  14.639
16613SOL    HW251672  13.928   8.013  14.571
16614SOL     OW51673   2.757  11.131   2.580
16614SOL    HW151674   2.841  11.175   2.590
16614SOL    HW251675   2.750  11.074   2.656
16615SOL     OW51676   4.405   9.018  13.460
16615SOL    HW151677   4.400   9.034  13.365
16615SOL    HW251678   4.364   9.095  13.499
16616SOL     OW51679   0.067  13.785  10.132
16616SOL    HW151680  14.879  13.746  10.184
16616SOL    HW251681   0.031  13.790  10.043
16617SOL     OW51682  12.608   7.250  12.837
16617SOL    HW151683  12.536   7.249  12.900
16617SOL    HW251684  12.633   7.342  12.831
16618SOL     OW51685   3.648   3.904   1.585
16618SOL    HW151686   3.688   3.895   1.671
16618SOL    HW251687   3.600   3.987   1.589
16619SOL     OW51688   1.450  12.776  10.063
16619SOL    HW151689   1.481  12.866  10.070
16619SOL    HW251690   1.355  12.783  10.066
16620SOL     OW51691  10.423  11.731   5.121
16620SOL    HW151692  10.482  11.803   5.142
16620SOL    HW251693  10.367  11.765   5.052
16621SOL     OW51694  11.171   3.119   1.268
16621SOL    HW151695  11.168   3.213   1.255
16621SOL    HW251696  11.150   3.106   1.360
16622SOL     OW51697  14.874  13.815  10.654
16622SOL    HW151698   0.076  13.769  10.660
16622SOL    HW251699  14.819  13.773  10.720
16623SOL     OW51700   3.060  12.923  12.916
16623SOL    HW151701   3.150  12.909  12.945
16623SOL    HW251702   3.007  12.867  12.973
16624SOL     OW51703   1.007   6.623  14.124
16624SOL    HW151704   0.951   6.591  14.053
16624SOL    HW251705   1.078   6.559  14.129
16625SOL     OW51706  11.736   4.271   9.227
16625SOL    HW151707  11.715   4.209   9.157
16625SOL    HW251708  11.788   4.221   9.289
16626SOL     OW51709   2.867   0.835  14.527
16626SOL    HW151710   2.941   0.874  14.573
16626SOL    HW251711   2.898   0.748  14.502
16627SOL     OW51712   3.615   6.540  10.167
16627SOL    HW151713   3.617   6.481  10.092
16627SOL    HW251714   3.685   6.508  10.224
16628SOL     OW51715   4.114  13.090   3.248
16628SOL    HW151716   4.121  13.080   3.343
16628SOL    HW251717   4.170  13.166   3.228
16629SOL     OW51718  11.841   4.688   4.564
16629SOL    HW151719  11.849   4.655   4.654
16629SOL    HW251720  11.767   4.640   4.527
16630SOL     OW51721   8.583   3.787   5.118
16630SOL    HW151722   8.630   3.705   5.134
16630SOL    HW251723   8.652   3.852   5.106
16631SOL     OW51724  13.782  11.730  10.980
16631SOL    HW151725  13.869  11.741  11.019
16631SOL    HW251726  13.758  11.640  11.003
16632SOL     OW51727   3.076  14.539  12.518
16632SOL    HW151728   3.052  14.557  12.427
16632SOL    HW251729   3.169  14.516  12.513
16633SOL     OW51730   6.524  11.351  12.918
16633SOL    HW151731   6.475  11.274  12.943
16633SOL    HW251732   6.462  11.424  12.925
16634SOL     OW51733   0.136  13.975   6.964
16634SOL    HW151734   0.144  13.940   6.876
16634SOL    HW251735   0.153  13.900   7.022
16635SOL     OW51736  11.589   2.450   0.705
16635SOL    HW151737  11.655   2.501   0.660
16635SOL    HW251738  11.635   2.371   0.736
16636SOL     OW51739  14.131  11.984   9.144
16636SOL    HW151740  14.156  12.067   9.104
16636SOL    HW251741  14.130  11.922   9.072
16637SOL     OW51742   7.903  10.654  12.320
16637SOL    HW151743   7.854  10.715  12.265
16637SOL    HW251744   7.849  10.646  12.399
16638SOL     OW51745   0.172   5.490   2.090
16638SOL    HW151746   0.210   5.403   2.103
16638SOL    HW251747   0.193   5.537   2.170
16639SOL     OW51748   4.155   9.122   5.646
16639SOL    HW151749   4.158   9.038   5.601
16639SOL    HW251750   4.094   9.109   5.718
16640SOL     OW51751   7.050   7.086  12.150
16640SOL    HW151752   7.067   6.996  12.180
16640SOL    HW251753   7.136   7.117  12.119
16641SOL     OW51754  10.204   1.604   5.568
16641SOL    HW151755  10.173   1.693   5.584
16641SOL    HW251756  10.139   1.566   5.509
16642SOL     OW51757   7.241   5.084   1.265
16642SOL    HW151758   7.199   5.099   1.350
16642SOL    HW251759   7.206   5.000   1.236
16643SOL     OW51760   4.755   5.575  12.373
16643SOL    HW151761   4.838   5.571  12.420
16643SOL    HW251762   4.705   5.502  12.409
16644SOL     OW51763   6.195  13.538   7.080
16644SOL    HW151764   6.281  13.557   7.044
16644SOL    HW251765   6.134  13.583   7.021
16645SOL     OW51766   5.303   8.739   4.849
16645SOL    HW151767   5.371   8.803   4.865
16645SOL    HW251768   5.266   8.721   4.935
16646SOL     OW51769   4.022   7.678   8.743
16646SOL    HW151770   3.965   7.611   8.705
16646SOL    HW251771   4.003   7.757   8.692
16647SOL     OW51772   0.440   9.063   2.537
16647SOL    HW151773   0.405   8.988   2.586
16647SOL    HW251774   0.527   9.035   2.510
16648SOL     OW51775  14.183   2.932   9.810
16648SOL    HW151776  14.254   2.903   9.866
16648SOL    HW251777  14.163   2.856   9.755
16649SOL     OW51778   8.511   0.376   2.227
16649SOL    HW151779   8.604   0.379   2.249
16649SOL    HW251780   8.471   0.445   2.280
16650SOL     OW51781   3.547   3.598   0.444
16650SOL    HW151782   3.517   3.573   0.531
16650SOL    HW251783   3.583   3.518   0.407
16651SOL     OW51784   3.917  11.635   1.260
16651SOL    HW151785   3.865  11.564   1.297
16651SOL    HW251786   4.006  11.598   1.253
16652SOL     OW51787  11.123   1.487   5.499
16652SOL    HW151788  11.044   1.519   5.543
16652SOL    HW251789  11.184   1.466   5.569
16653SOL     OW51790  12.595  12.451  12.277
16653SOL    HW151791  12.582  12.494  12.192
16653SOL    HW251792  12.678  12.405  12.268
16654SOL     OW51793   2.694   1.681  13.099
16654SOL    HW151794   2.724   1.645  13.182
16654SOL    HW251795   2.774   1.692  13.047
16655SOL     OW51796  14.298   6.575   0.095
16655SOL    HW151797  14.218   6.604   0.140
16655SOL    HW251798  14.359   6.647   0.107
16656SOL     OW51799   2.947   2.329  13.983
16656SOL    HW151800   2.950   2.418  13.946
16656SOL    HW251801   2.908   2.276  13.913
16657SOL     OW51802   9.995   4.746   1.254
16657SOL    HW151803   9.972   4.656   1.231
16657SOL    HW251804   9.924   4.773   1.314
16658SOL     OW51805   9.240   2.653  11.069
16658SOL    HW151806   9.230   2.656  10.974
16658SOL    HW251807   9.240   2.560  11.091
16659SOL     OW51808   3.080   7.630   7.791
16659SOL    HW151809   2.990   7.635   7.759
16659SOL    HW251810   3.134   7.642   7.713
16660SOL     OW51811  11.502   4.295   9.816
16660SOL    HW151812  11.484   4.387   9.797
16660SOL    HW251813  11.596   4.285   9.804
16661SOL     OW51814   2.352  13.059  13.730
16661SOL    HW151815   2.322  13.060  13.639
16661SOL    HW251816   2.283  13.105  13.778
16662SOL     OW51817  14.858   4.878  11.209
16662SOL    HW151818   0.067   4.853  11.190
16662SOL    HW251819  14.846   4.962  11.165
16663SOL     OW51820   6.786  14.674  13.782
16663SOL    HW151821   6.766  14.590  13.742
16663SOL    HW251822   6.754  14.667  13.872
16664SOL     OW51823   9.862  10.827   6.665
16664SOL    HW151824   9.787  10.846   6.609
16664SOL    HW251825   9.836  10.859   6.751
16665SOL     OW51826   8.517   4.396  12.016
16665SOL    HW151827   8.585   4.399  12.083
16665SOL    HW251828   8.444   4.351  12.058
16666SOL     OW51829  11.100   8.555   0.305
16666SOL    HW151830  11.101   8.515   0.391
16666SOL    HW251831  11.087   8.648   0.322
16667SOL     OW51832  12.657   1.725   4.599
16667SOL    HW151833  12.622   1.703   4.686
16667SOL    HW251834  12.681   1.818   4.606
16668SOL     OW51835   6.416   2.303  13.592
16668SOL    HW151836   6.455   2.268  13.673
16668SOL    HW251837   6.366   2.229  13.557
16669SOL     OW51838  10.700   0.233   9.007
16669SOL    HW151839  10.617   0.202   9.044
16669SOL    HW251840  10.678   0.315   8.964
16670SOL     OW51841   8.554   6.924  13.391
16670SOL    HW151842   8.624   6.940  13.454
16670SOL    HW251843   8.537   7.010  13.352
16671SOL     OW51844   2.492   0.097  10.929
16671SOL    HW151845   2.551   0.138  10.866
16671SOL    HW251846   2.480   0.008  10.895
16672SOL     OW51847   4.388   7.722  12.249
16672SOL    HW151848   4.326   7.691  12.182
16672SOL    HW251849   4.361   7.812  12.265
16673SOL     OW51850   8.367   9.922  14.003
16673SOL    HW151851   8.353   9.833  13.971
16673SOL    HW251852   8.435   9.913  14.070
16674SOL     OW51853   5.317  10.317   1.215
16674SOL    HW151854   5.280  10.240   1.258
16674SOL    HW251855   5.274  10.320   1.130
16675SOL     OW51856   3.200  10.162   7.723
16675SOL    HW151857   3.122  10.110   7.700
16675SOL    HW251858   3.264  10.097   7.752
16676SOL     OW51859  11.459  11.341   1.882
16676SOL    HW151860  11.442  11.355   1.789
16676SOL    HW251861  11.502  11.421   1.911
16677SOL     OW51862  13.303   9.380   2.178
16677SOL    HW151863  13.301   9.315   2.248
16677SOL    HW251864  13.385   9.428   2.191
16678SOL     OW51865   0.800   1.233   9.596
16678SOL    HW151866   0.787   1.150   9.550
16678SOL    HW251867   0.775   1.216   9.686
16679SOL     OW51868  12.357   7.277   0.807
16679SOL    HW151869  12.345   7.372   0.810
16679SOL    HW251870  12.430   7.260   0.866
16680SOL     OW51871   2.911   3.041   0.279
16680SOL    HW151872   2.972   3.014   0.210
16680SOL    HW251873   2.962   3.103   0.332
16681SOL     OW51874   8.455   3.794   3.622
16681SOL    HW151875   8.360   3.781   3.619
16681SOL    HW251876   8.467   3.888   3.611
16682SOL     OW51877   3.729  10.900  12.613
16682SOL    HW151878   3.718  10.892  12.519
16682SOL    HW251879   3.661  10.843  12.650
16683SOL     OW51880   1.719   9.959  11.222
16683SOL    HW151881   1.779   9.911  11.164
16683SOL    HW251882   1.726   9.914  11.306
16684SOL     OW51883   2.036   7.596   1.764
16684SOL    HW151884   1.961   7.603   1.823
16684SOL    HW251885   2.112   7.619   1.818
16685SOL     OW51886   0.824   8.865   0.896
16685SOL    HW151887   0.878   8.930   0.941
16685SOL    HW251888   0.755   8.915   0.852
16686SOL     OW51889   9.866  12.386   5.370
16686SOL    HW151890   9.814  12.323   5.319
16686SOL    HW251891   9.838  12.372   5.460
16687SOL     OW51892   8.497  11.349  11.045
16687SOL    HW151893   8.436  11.387  11.108
16687SOL    HW251894   8.573  11.324  11.097
16688SOL     OW51895   4.925   2.694   5.689
16688SOL    HW151896   4.974   2.713   5.609
16688SOL    HW251897   4.897   2.603   5.677
16689SOL     OW51898   6.946   9.002   1.926
16689SOL    HW151899   6.920   8.918   1.965
16689SOL    HW251900   6.881   9.018   1.857
16690SOL     OW51901   3.145   2.325   7.653
16690SOL    HW151902   3.170   2.342   7.562
16690SOL    HW251903   3.152   2.410   7.696
16691SOL     OW51904   6.133   7.920  11.226
16691SOL    HW151905   6.175   7.835  11.238
16691SOL    HW251906   6.065   7.923  11.293
16692SOL     OW51907   3.868   9.555   4.408
16692SOL    HW151908   3.886   9.468   4.372
16692SOL    HW251909   3.819   9.538   4.489
16693SOL     OW51910   1.078   7.237   4.806
16693SOL    HW151911   1.079   7.152   4.851
16693SOL    HW251912   1.128   7.222   4.725
16694SOL     OW51913   8.586   8.372   7.336
16694SOL    HW151914   8.561   8.451   7.289
16694SOL    HW251915   8.682   8.370   7.331
16695SOL     OW51916  11.814  11.319   4.314
16695SOL    HW151917  11.727  11.353   4.294
16695SOL    HW251918  11.832  11.257   4.244
16696SOL     OW51919  13.423   2.804  14.494
16696SOL    HW151920  13.336   2.797  14.455
16696SOL    HW251921  13.446   2.714  14.518
16697SOL     OW51922   6.525   8.119   9.425
16697SOL    HW151923   6.490   8.036   9.395
16697SOL    HW251924   6.492   8.129   9.514
16698SOL     OW51925   8.205  10.480  13.570
16698SOL    HW151926   8.257  10.429  13.508
16698SOL    HW251927   8.142  10.418  13.606
16699SOL     OW51928  10.931   3.482   1.662
16699SOL    HW151929  10.883   3.454   1.584
16699SOL    HW251930  10.999   3.541   1.629
16700SOL     OW51931   9.382   7.446   4.245
16700SOL    HW151932   9.436   7.379   4.288
16700SOL    HW251933   9.427   7.528   4.263
16701SOL     OW51934   8.749   1.267  14.844
16701SOL    HW151935   8.735   1.193   0.021
16701SOL    HW251936   8.809   1.324   0.010
16702SOL     OW51937   8.642   3.335   4.789
16702SOL    HW151938   8.582   3.269   4.756
16702SOL    HW251939   8.660   3.308   4.879
16703SOL     OW51940   6.803   8.152   7.048
16703SOL    HW151941   6.846   8.133   6.964
16703SOL    HW251942   6.710   8.135   7.031
16704SOL     OW51943   9.283  12.428   6.236
16704SOL    HW151944   9.213  12.455   6.295
16704SOL    HW251945   9.294  12.502   6.176
16705SOL     OW51946  12.518   7.286   1.538
16705SOL    HW151947  12.505   7.238   1.620
16705SOL    HW251948  12.476   7.231   1.472
16706SOL     OW51949   0.223  11.232   0.502
16706SOL    HW151950   0.158  11.235   0.573
16706SOL    HW251951   0.275  11.154   0.521
16707SOL     OW51952   8.685  13.892   0.948
16707SOL    HW151953   8.735  13.909   0.868
16707SOL    HW251954   8.645  13.977   0.969
16708SOL     OW51955  10.236  14.846   6.362
16708SOL    HW151956  10.308  14.823   6.421
16708SOL    HW251957  10.161  14.797   6.395
16709SOL     OW51958   0.403   1.726   0.250
16709SOL    HW151959   0.353   1.759   0.324
16709SOL    HW251960   0.436   1.805   0.207
16710SOL     OW51961   1.365  12.863  12.863
16710SOL    HW151962   1.297  12.821  12.810
16710SOL    HW251963   1.327  12.870  12.950
16711SOL     OW51964  12.490   0.107  13.141
16711SOL    HW151965  12.470   0.172  13.209
16711SOL    HW251966  12.580   0.127  13.116
16712SOL     OW51967   9.727  13.644   4.548
16712SOL    HW151968   9.686  13.566   4.512
16712SOL    HW251969   9.769  13.614   4.629
16713SOL     OW51970   6.168  12.188   0.316
16713SOL    HW151971   6.108  12.115   0.304
16713SOL    HW251972   6.112  12.265   0.321
16714SOL     OW51973  13.738  13.967   5.416
16714SOL    HW151974  13.669  14.030   5.398
16714SOL    HW251975  13.738  13.909   5.340
16715SOL     OW51976   6.721  13.503   5.274
16715SOL    HW151977   6.788  13.499   5.342
16715SOL    HW251978   6.746  13.577   5.219
16716SOL     OW51979   9.540   9.305   3.804
16716SOL    HW151980   9.621   9.259   3.781
16716SOL    HW251981   9.497   9.321   3.720
16717SOL     OW51982   5.880   8.101   9.525
16717SOL    HW151983   5.889   8.159   9.600
16717SOL    HW251984   5.889   8.159   9.449
16718SOL     OW51985   3.767   8.902   8.709
16718SOL    HW151986   3.769   8.973   8.774
16718SOL    HW251987   3.681   8.909   8.669
16719SOL     OW51988  14.363  11.254  10.238
16719SOL    HW151989  14.447  11.213  10.256
16719SOL    HW251990  14.371  11.289  10.149
16720SOL     OW51991  12.832   7.323  14.816
16720SOL    HW151992  12.873   7.263  14.879
16720SOL    HW251993  12.738   7.308  14.828
16721SOL     OW51994  10.720  10.265  10.113
16721SOL    HW151995  10.745  10.187  10.161
16721SOL    HW251996  10.669  10.233  10.039
16722SOL     OW51997  12.584   4.310   4.646
16722SOL    HW151998  12.566   4.317   4.553
16722SOL    HW251999  12.610   4.399   4.672
16723SOL     OW52000   0.484  13.534  11.356
16723SOL    HW152001   0.564  13.496  11.392
16723SOL    HW252002   0.417  13.516  11.423
16724SOL     OW52003  10.337   7.901   9.449
16724SOL    HW152004  10.311   7.810   9.464
16724SOL    HW252005  10.411   7.895   9.390
16725SOL     OW52006   9.036   6.024   4.189
16725SOL    HW152007   8.947   6.020   4.155
16725SOL    HW252008   9.092   5.999   4.115
16726SOL     OW52009   2.548   4.094   5.178
16726SOL    HW152010   2.458   4.088   5.147
16726SOL    HW252011   2.597   4.036   5.120
16727SOL     OW52012  10.473   2.553  14.220
16727SOL    HW152013  10.522   2.592  14.293
16727SOL    HW252014  10.390   2.601  14.219
16728SOL     OW52015   4.765   8.209  11.502
16728SOL    HW152016   4.850   8.254  11.505
16728SOL    HW252017   4.704   8.274  11.469
16729SOL     OW52018  11.027   8.061  12.447
16729SOL    HW152019  10.957   8.118  12.416
16729SOL    HW252020  11.100   8.077  12.388
16730SOL     OW52021   8.735   4.245   1.104
16730SOL    HW152022   8.653   4.203   1.129
16730SOL    HW252023   8.715   4.339   1.106
16731SOL     OW52024  13.286  12.178  11.456
16731SOL    HW152025  13.358  12.143  11.509
16731SOL    HW252026  13.231  12.226  11.519
16732SOL     OW52027  13.441   1.988  14.575
16732SOL    HW152028  13.345   1.999  14.574
16732SOL    HW252029  13.455   1.898  14.546
16733SOL     OW52030   9.968   9.247   7.826
16733SOL    HW152031  10.060   9.238   7.799
16733SOL    HW252032   9.922   9.180   7.776
16734SOL     OW52033  14.248   6.809  11.954
16734SOL    HW152034  14.234   6.904  11.947
16734SOL    HW252035  14.159   6.772  11.953
16735SOL     OW52036   4.240   1.835   7.061
16735SOL    HW152037   4.286   1.909   7.101
16735SOL    HW252038   4.308   1.788   7.013
16736SOL     OW52039   2.063   7.924   3.278
16736SOL    HW152040   2.065   7.919   3.183
16736SOL    HW252041   2.041   8.016   3.296
16737SOL     OW52042   5.114  11.511   8.636
16737SOL    HW152043   5.190  11.481   8.685
16737SOL    HW252044   5.103  11.602   8.662
16738SOL     OW52045   7.636   6.072   5.435
16738SOL    HW152046   7.574   6.130   5.478
16738SOL    HW252047   7.707   6.130   5.406
16739SOL     OW52048   7.705  14.252  11.108
16739SOL    HW152049   7.669  14.341  11.103
16739SOL    HW252050   7.798  14.266  11.127
16740SOL     OW52051   4.238   0.669   2.562
16740SOL    HW152052   4.146   0.692   2.547
16740SOL    HW252053   4.268   0.732   2.628
16741SOL     OW52054  11.023   2.277   9.129
16741SOL    HW152055  11.045   2.370   9.117
16741SOL    HW252056  11.107   2.234   9.141
16742SOL     OW52057   1.091   6.575   5.174
16742SOL    HW152058   1.087   6.495   5.122
16742SOL    HW252059   1.038   6.638   5.125
16743SOL     OW52060   2.338   3.710   3.047
16743SOL    HW152061   2.265   3.649   3.032
16743SOL    HW252062   2.388   3.708   2.965
16744SOL     OW52063   9.787   3.234  13.011
16744SOL    HW152064   9.793   3.241  12.916
16744SOL    HW252065   9.876   3.216  13.040
16745SOL     OW52066  10.913  13.453  10.720
16745SOL    HW152067  10.955  13.435  10.804
16745SOL    HW252068  10.885  13.367  10.689
16746SOL     OW52069   0.862   8.434   4.368
16746SOL    HW152070   0.822   8.453   4.453
16746SOL    HW252071   0.954   8.457   4.378
16747SOL     OW52072   2.666  11.239  12.080
16747SOL    HW152073   2.709  11.237  11.994
16747SOL    HW252074   2.674  11.329  12.109
16748SOL     OW52075  10.789   5.013  10.462
16748SOL    HW152076  10.751   5.053  10.540
16748SOL    HW252077  10.730   4.940  10.443
16749SOL     OW52078   4.296  12.492   1.024
16749SOL    HW152079   4.219  12.478   0.969
16749SOL    HW252080   4.300  12.415   1.080
16750SOL     OW52081   5.676  10.463   2.617
16750SOL    HW152082   5.748  10.462   2.555
16750SOL    HW252083   5.608  10.409   2.576
16751SOL     OW52084   3.337   2.777  12.614
16751SOL    HW152085   3.425   2.762  12.579
16751SOL    HW252086   3.300   2.845  12.557
16752SOL     OW52087   8.692   1.104   4.965
16752SOL    HW152088   8.657   1.028   4.919
16752SOL    HW252089   8.756   1.142   4.905
16753SOL     OW52090   6.221  11.401   4.410
16753SOL    HW152091   6.150  11.345   4.443
16753SOL    HW252092   6.183  11.490   4.410
16754SOL     OW52093   5.035  11.630   2.444
16754SOL    HW152094   5.007  11.618   2.353
16754SOL    HW252095   5.117  11.679   2.438
16755SOL     OW52096   7.207   4.968   0.741
16755SOL    HW152097   7.172   5.050   0.779
16755SOL    HW252098   7.129   4.913   0.728
16756SOL     OW52099   1.616  13.796   4.766
16756SOL    HW152100   1.566  13.738   4.824
16756SOL    HW252101   1.689  13.826   4.820
16757SOL     OW52102   9.259   7.842   1.021
16757SOL    HW152103   9.180   7.895   1.010
16757SOL    HW252104   9.299   7.875   1.102
16758SOL     OW52105  11.373   6.455   5.894
16758SOL    HW152106  11.354   6.393   5.964
16758SOL    HW252107  11.316   6.530   5.911
16759SOL     OW52108  14.271  14.881   2.826
16759SOL    HW152109  14.287   0.061   2.755
16759SOL    HW252110  14.356  14.866   2.866
16760SOL     OW52111   8.919   8.852   8.332
16760SOL    HW152112   8.942   8.880   8.243
16760SOL    HW252113   8.989   8.791   8.356
16761SOL     OW52114  10.294   2.739   2.251
16761SOL    HW152115  10.209   2.701   2.271
16761SOL    HW252116  10.345   2.667   2.213
16762SOL     OW52117   0.135  12.813   6.991
16762SOL    HW152118   0.222  12.853   6.993
16762SOL    HW252119   0.150  12.727   6.953
16763SOL     OW52120  13.973   9.880   4.299
16763SOL    HW152121  14.004   9.815   4.235
16763SOL    HW252122  14.007   9.964   4.266
16764SOL     OW52123   4.473   9.482  11.332
16764SOL    HW152124   4.402   9.532  11.291
16764SOL    HW252125   4.481   9.403  11.277
16765SOL     OW52126   4.908   2.172   1.267
16765SOL    HW152127   4.980   2.210   1.216
16765SOL    HW252128   4.849   2.246   1.283
16766SOL     OW52129  13.958   4.585  14.620
16766SOL    HW152130  13.891   4.632  14.570
16766SOL    HW252131  14.040   4.608  14.576
16767SOL     OW52132   7.501  13.970   0.172
16767SOL    HW152133   7.475  13.952   0.263
16767SOL    HW252134   7.585  13.927   0.162
16768SOL     OW52135   9.731  12.159   4.480
16768SOL    HW152136   9.810  12.183   4.529
16768SOL    HW252137   9.743  12.198   4.394
16769SOL     OW52138   2.987   2.630   7.542
16769SOL    HW152139   2.899   2.607   7.573
16769SOL    HW252140   3.041   2.629   7.622
16770SOL     OW52141   3.038   7.487   6.945
16770SOL    HW152142   3.034   7.548   7.019
16770SOL    HW252143   3.124   7.503   6.905
16771SOL     OW52144   4.526   2.823   3.937
16771SOL    HW152145   4.541   2.807   4.030
16771SOL    HW252146   4.431   2.813   3.926
16772SOL     OW52147   9.268   6.728   0.100
16772SOL    HW152148   9.291   6.640   0.070
16772SOL    HW252149   9.294   6.728   0.192
16773SOL     OW52150   1.937   9.410   1.848
16773SOL    HW152151   1.961   9.341   1.787
16773SOL    HW252152   1.948   9.491   1.799
16774SOL     OW52153  11.111  12.190   5.994
16774SOL    HW152154  11.192  12.140   6.005
16774SOL    HW252155  11.129  12.274   6.037
16775SOL     OW52156   4.386  11.415  12.749
16775SOL    HW152157   4.426  11.332  12.774
16775SOL    HW252158   4.358  11.402  12.658
16776SOL     OW52159   0.828   4.362   0.770
16776SOL    HW152160   0.739   4.379   0.742
16776SOL    HW252161   0.823   4.281   0.820
16777SOL     OW52162   7.395  11.772   4.224
16777SOL    HW152163   7.353  11.858   4.221
16777SOL    HW252164   7.479  11.786   4.180
16778SOL     OW52165   0.861   6.281  14.214
16778SOL    HW152166   0.903   6.271  14.129
16778SOL    HW252167   0.860   6.193  14.251
16779SOL     OW52168   6.659  10.644   0.980
16779SOL    HW152169   6.567  10.663   0.998
16779SOL    HW252170   6.658  10.588   0.903
16780SOL     OW52171  13.281   0.974   9.475
16780SOL    HW152172  13.285   1.060   9.516
16780SOL    HW252173  13.321   0.915   9.540
16781SOL     OW52174   3.266   4.201   0.535
16781SOL    HW152175   3.248   4.260   0.607
16781SOL    HW252176   3.269   4.258   0.458
16782SOL     OW52177  10.492  12.216   8.502
16782SOL    HW152178  10.562  12.155   8.525
16782SOL    HW252179  10.411  12.168   8.519
16783SOL     OW52180   9.848   6.064  14.469
16783SOL    HW152181   9.846   5.989  14.410
16783SOL    HW252182   9.810   6.031  14.551
16784SOL     OW52183   1.530   8.740   1.151
16784SOL    HW152184   1.602   8.700   1.101
16784SOL    HW252185   1.464   8.670   1.158
16785SOL     OW52186   9.974   9.430   3.865
16785SOL    HW152187   9.932   9.500   3.915
16785SOL    HW252188  10.022   9.476   3.796
16786SOL     OW52189  13.775   2.293   8.478
16786SOL    HW152190  13.691   2.248   8.489
16786SOL    HW252191  13.763   2.345   8.398
16787SOL     OW52192  14.716   1.303   6.167
16787SOL    HW152193  14.786   1.259   6.119
16787SOL    HW252194  14.705   1.250   6.246
16788SOL     OW52195   2.951  12.951   0.492
16788SOL    HW152196   3.019  12.893   0.458
16788SOL    HW252197   2.895  12.969   0.417
16789SOL     OW52198   8.167   7.949   4.185
16789SOL    HW152199   8.185   7.911   4.099
16789SOL    HW252200   8.107   7.887   4.226
16790SOL     OW52201   2.063   8.785  14.508
16790SOL    HW152202   2.145   8.829  14.483
16790SOL    HW252203   2.091   8.700  14.541
16791SOL     OW52204   4.135   6.247  13.299
16791SOL    HW152205   4.159   6.175  13.240
16791SOL    HW252206   4.082   6.205  13.367
16792SOL     OW52207   4.620   7.547   8.349
16792SOL    HW152208   4.535   7.513   8.323
16792SOL    HW252209   4.679   7.471   8.344
16793SOL     OW52210  14.085   7.004   5.460
16793SOL    HW152211  14.005   6.973   5.501
16793SOL    HW252212  14.060   7.023   5.369
16794SOL     OW52213  10.630  11.848  11.429
16794SOL    HW152214  10.578  11.860  11.508
16794SOL    HW252215  10.630  11.933  11.386
16795SOL     OW52216  12.195   3.866  14.531
16795SOL    HW152217  12.153   3.935  14.480
16795SOL    HW252218  12.289   3.882  14.519
16796SOL     OW52219   2.266   0.521   0.470
16796SOL    HW152220   2.191   0.518   0.411
16796SOL    HW252221   2.276   0.614   0.492
16797SOL     OW52222   3.346   3.467   3.380
16797SOL    HW152223   3.295   3.386   3.371
16797SOL    HW252224   3.379   3.465   3.469
16798SOL     OW52225   7.023  11.893   6.143
16798SOL    HW152226   7.059  11.928   6.062
16798SOL    HW252227   7.091  11.910   6.209
16799SOL     OW52228  12.088   3.351  10.987
16799SOL    HW152229  12.127   3.285  11.043
16799SOL    HW252230  12.096   3.433  11.037
16800SOL     OW52231   0.138  11.365   6.417
16800SOL    HW152232   0.157  11.310   6.340
16800SOL    HW252233   0.213  11.350   6.475
16801SOL     OW52234  13.367   5.785   0.915
16801SOL    HW152235  13.332   5.823   0.834
16801SOL    HW252236  13.324   5.833   0.985
16802SOL     OW52237  13.027   6.076  10.498
16802SOL    HW152238  13.030   6.079  10.403
16802SOL    HW252239  13.110   6.036  10.524
16803SOL     OW52240  11.437   9.739   3.825
16803SOL    HW152241  11.351   9.743   3.867
16803SOL    HW252242  11.438   9.815   3.766
16804SOL     OW52243   4.343   7.080   2.836
16804SOL    HW152244   4.288   7.002   2.840
16804SOL    HW252245   4.378   7.090   2.925
16805SOL     OW52246  13.404  12.699  13.185
16805SOL    HW152247  13.311  12.685  13.163
16805SOL    HW252248  13.403  12.773  13.246
16806SOL     OW52249   2.858  13.870   6.328
16806SOL    HW152250   2.871  13.848   6.236
16806SOL    HW252251   2.931  13.930   6.348
16807SOL     OW52252   7.390  12.804  13.147
16807SOL    HW152253   7.312  12.761  13.181
16807SOL    HW252254   7.463  12.764  13.195
16808SOL     OW52255  12.859   6.922   8.986
16808SOL    HW152256  12.774   6.958   8.961
16808SOL    HW252257  12.847   6.827   8.987
16809SOL     OW52258   4.801   5.852   9.643
16809SOL    HW152259   4.769   5.942   9.639
16809SOL    HW252260   4.827   5.832   9.553
16810SOL     OW52261  12.420   1.722   6.914
16810SOL    HW152262  12.420   1.729   7.010
16810SOL    HW252263  12.329   1.701   6.893
16811SOL     OW52264   3.390  13.309   9.415
16811SOL    HW152265   3.416  13.380   9.474
16811SOL    HW252266   3.296  13.321   9.404
16812SOL     OW52267   4.742  12.986   8.782
16812SOL    HW152268   4.812  13.015   8.723
16812SOL    HW252269   4.787  12.950   8.857
16813SOL     OW52270  13.754   0.753   6.532
16813SOL    HW152271  13.714   0.683   6.480
16813SOL    HW252272  13.822   0.789   6.475
16814SOL     OW52273  13.139   8.341   7.550
16814SOL    HW152274  13.165   8.306   7.635
16814SOL    HW252275  13.117   8.433   7.568
16815SOL     OW52276   7.548   3.966   6.214
16815SOL    HW152277   7.535   3.901   6.283
16815SOL    HW252278   7.539   4.050   6.258
16816SOL     OW52279  13.851  13.994  10.578
16816SOL    HW152280  13.875  14.062  10.515
16816SOL    HW252281  13.763  14.018  10.606
16817SOL     OW52282  11.887   7.434   6.956
16817SOL    HW152283  11.913   7.355   7.002
16817SOL    HW252284  11.892   7.411   6.864
16818SOL     OW52285  13.234   8.797   0.920
16818SOL    HW152286  13.141   8.819   0.927
16818SOL    HW252287  13.279   8.879   0.938
16819SOL     OW52288  10.590  12.963   6.123
16819SOL    HW152289  10.566  13.003   6.206
16819SOL    HW252290  10.679  12.931   6.136
16820SOL     OW52291   4.581   4.786   8.360
16820SOL    HW152292   4.621   4.832   8.287
16820SOL    HW252293   4.641   4.713   8.378
16821SOL     OW52294  10.463   9.406  12.328
16821SOL    HW152295  10.430   9.387  12.416
16821SOL    HW252296  10.390   9.382  12.270
16822SOL     OW52297   1.283  13.771   0.159
16822SOL    HW152298   1.365  13.763   0.207
16822SOL    HW252299   1.279  13.863   0.134
16823SOL     OW52300  10.911  10.812  13.782
16823SOL    HW152301  10.870  10.812  13.868
16823SOL    HW252302  10.929  10.905  13.764
16824SOL     OW52303   7.229  12.574   7.180
16824SOL    HW152304   7.192  12.494   7.142
16824SOL    HW252305   7.304  12.543   7.232
16825SOL     OW52306  14.574   4.271   2.272
16825SOL    HW152307  14.555   4.323   2.194
16825SOL    HW252308  14.534   4.320   2.344
16826SOL     OW52309   7.711   8.316  10.365
16826SOL    HW152310   7.755   8.395  10.396
16826SOL    HW252311   7.619   8.328  10.388
16827SOL     OW52312   6.513  12.010  14.511
16827SOL    HW152313   6.491  11.972  14.596
16827SOL    HW252314   6.533  11.935  14.455
16828SOL     OW52315   1.151  10.999  13.065
16828SOL    HW152316   1.201  11.081  13.061
16828SOL    HW252317   1.164  10.960  12.979
16829SOL     OW52318   1.677  14.357  12.610
16829SOL    HW152319   1.694  14.307  12.530
16829SOL    HW252320   1.582  14.364  12.613
16830SOL     OW52321   8.273   4.514   2.102
16830SOL    HW152322   8.335   4.453   2.062
16830SOL    HW252323   8.240   4.468   2.179
16831SOL     OW52324   9.686   4.406   3.570
16831SOL    HW152325   9.775   4.397   3.537
16831SOL    HW252326   9.694   4.467   3.644
16832SOL     OW52327   6.731   4.188  14.115
16832SOL    HW152328   6.791   4.245  14.066
16832SOL    HW252329   6.788   4.120  14.152
16833SOL     OW52330   1.401   9.099  10.610
16833SOL    HW152331   1.418   9.103  10.704
16833SOL    HW252332   1.464   9.036  10.577
16834SOL     OW52333  10.776  11.471   0.800
16834SOL    HW152334  10.717  11.397   0.813
16834SOL    HW252335  10.863  11.431   0.794
16835SOL     OW52336  10.466  12.319  12.521
16835SOL    HW152337  10.458  12.289  12.430
16835SOL    HW252338  10.401  12.388  12.530
16836SOL     OW52339  14.087   4.441   5.876
16836SOL    HW152340  14.047   4.520   5.839
16836SOL    HW252341  14.078   4.375   5.808
16837SOL     OW52342   4.934   7.360   6.271
16837SOL    HW152343   4.840   7.367   6.258
16837SOL    HW252344   4.959   7.281   6.222
16838SOL     OW52345   6.226   9.710  11.578
16838SOL    HW152346   6.226   9.621  11.614
16838SOL    HW252347   6.159   9.709  11.510
16839SOL     OW52348   7.869   7.185   2.616
16839SOL    HW152349   7.882   7.275   2.587
16839SOL    HW252350   7.914   7.132   2.550
16840SOL     OW52351  10.907   1.763   1.019
16840SOL    HW152352  10.956   1.728   0.945
16840SOL    HW252353  10.847   1.827   0.979
16841SOL     OW52354   1.758  12.572   2.329
16841SOL    HW152355   1.789  12.497   2.279
16841SOL    HW252356   1.747  12.539   2.418
16842SOL     OW52357  14.102  11.332  11.537
16842SOL    HW152358  14.149  11.261  11.582
16842SOL    HW252359  14.088  11.298  11.448
16843SOL     OW52360  14.446   0.733   4.778
16843SOL    HW152361  14.353   0.718   4.798
16843SOL    HW252362  14.489   0.650   4.799
16844SOL     OW52363  11.798   3.061  11.505
16844SOL    HW152364  11.747   3.074  11.585
16844SOL    HW252365  11.812   3.149  11.471
16845SOL     OW52366  10.749   5.572   9.565
16845SOL    HW152367  10.698   5.527   9.633
16845SOL    HW252368  10.754   5.663   9.595
16846SOL     OW52369  13.000   6.522   3.901
16846SOL    HW152370  12.908   6.524   3.929
16846SOL    HW252371  13.012   6.604   3.854
16847SOL     OW52372  10.115  10.328  10.785
16847SOL    HW152373  10.085  10.409  10.826
16847SOL    HW252374  10.163  10.282  10.854
16848SOL     OW52375  14.392   5.313   8.469
16848SOL    HW152376  14.382   5.397   8.515
16848SOL    HW252377  14.426   5.336   8.383
16849SOL     OW52378   2.874   0.518   3.286
16849SOL    HW152379   2.802   0.506   3.224
16849SOL    HW252380   2.840   0.577   3.352
16850SOL     OW52381  12.232  12.456   8.540
16850SOL    HW152382  12.238  12.494   8.452
16850SOL    HW252383  12.301  12.501   8.589
16851SOL     OW52384   6.252   0.511  14.706
16851SOL    HW152385   6.261   0.566  14.628
16851SOL    HW252386   6.195   0.440  14.678
16852SOL     OW52387   1.512  10.049   0.484
16852SOL    HW152388   1.568   9.976   0.458
16852SOL    HW252389   1.423  10.016   0.472
16853SOL     OW52390   5.340   4.918  10.383
16853SOL    HW152391   5.250   4.887  10.371
16853SOL    HW252392   5.365   4.953  10.298
16854SOL     OW52393  10.553   4.897  10.639
16854SOL    HW152394  10.500   4.848  10.702
16854SOL    HW252395  10.601   4.829  10.591
16855SOL     OW52396   4.245  12.137  10.357
16855SOL    HW152397   4.193  12.082  10.298
16855SOL    HW252398   4.312  12.078  10.391
16856SOL     OW52399  10.409  14.364  13.199
16856SOL    HW152400  10.441  14.284  13.240
16856SOL    HW252401  10.435  14.434  13.259
16857SOL     OW52402  13.435  14.151   9.447
16857SOL    HW152403  13.509  14.095   9.426
16857SOL    HW252404  13.475  14.234   9.474
16858SOL     OW52405   1.875   5.537  10.762
16858SOL    HW152406   1.890   5.600  10.832
16858SOL    HW252407   1.798   5.487  10.790
16859SOL     OW52408   5.418   6.573   3.982
16859SOL    HW152409   5.413   6.664   3.954
16859SOL    HW252410   5.370   6.571   4.065
16860SOL     OW52411   7.228   4.711   5.639
16860SOL    HW152412   7.276   4.629   5.637
16860SOL    HW252413   7.271   4.766   5.574
16861SOL     OW52414  12.546   8.803   3.608
16861SOL    HW152415  12.526   8.866   3.677
16861SOL    HW252416  12.633   8.829   3.577
16862SOL     OW52417  10.880  12.574  14.249
16862SOL    HW152418  10.815  12.545  14.185
16862SOL    HW252419  10.881  12.670  14.240
16863SOL     OW52420  13.567  13.311   5.417
16863SOL    HW152421  13.640  13.252   5.399
16863SOL    HW252422  13.489  13.255   5.412
16864SOL     OW52423   3.471   8.219  14.137
16864SOL    HW152424   3.452   8.268  14.056
16864SOL    HW252425   3.517   8.141  14.107
16865SOL     OW52426  11.664  14.276   8.191
16865SOL    HW152427  11.669  14.292   8.097
16865SOL    HW252428  11.595  14.335   8.222
16866SOL     OW52429   8.651   5.133   6.099
16866SOL    HW152430   8.736   5.091   6.087
16866SOL    HW252431   8.621   5.153   6.010
16867SOL     OW52432  14.083   8.195  13.031
16867SOL    HW152433  14.112   8.224  12.944
16867SOL    HW252434  14.037   8.271  13.067
16868SOL     OW52435   4.129   0.861   8.369
16868SOL    HW152436   4.136   0.954   8.392
16868SOL    HW252437   4.148   0.815   8.451
16869SOL     OW52438  14.550  10.901  10.827
16869SOL    HW152439  14.502  10.906  10.909
16869SOL    HW252440  14.614  10.972  10.832
16870SOL     OW52441   6.416   1.435   6.034
16870SOL    HW152442   6.500   1.426   5.989
16870SOL    HW252443   6.355   1.464   5.966
16871SOL     OW52444  10.893  11.824  11.324
16871SOL    HW152445  10.898  11.880  11.246
16871SOL    HW252446  10.805  11.839  11.359
16872SOL     OW52447   7.656   2.892   5.368
16872SOL    HW152448   7.712   2.830   5.322
16872SOL    HW252449   7.665   2.974   5.319
16873SOL     OW52450   4.071   3.533   3.955
16873SOL    HW152451   4.044   3.597   4.021
16873SOL    HW252452   4.153   3.568   3.920
16874SOL     OW52453   6.532   9.473   4.795
16874SOL    HW152454   6.549   9.397   4.740
16874SOL    HW252455   6.617   9.515   4.805
16875SOL     OW52456   8.838   1.618  13.153
16875SOL    HW152457   8.839   1.710  13.179
16875SOL    HW252458   8.922   1.605  13.109
16876SOL     OW52459  11.603  14.595   1.705
16876SOL    HW152460  11.541  14.639   1.647
16876SOL    HW252461  11.681  14.581   1.651
16877SOL     OW52462   6.834  13.107  14.471
16877SOL    HW152463   6.739  13.115  14.481
16877SOL    HW252464   6.869  13.112  14.560
16878SOL     OW52465   0.221   6.752  14.179
16878SOL    HW152466   0.182   6.834  14.147
16878SOL    HW252467   0.158   6.684  14.154
16879SOL     OW52468   7.951  10.945  11.541
16879SOL    HW152469   8.043  10.921  11.533
16879SOL    HW252470   7.917  10.943  11.452
16880SOL     OW52471   2.153   2.961   0.956
16880SOL    HW152472   2.113   3.026   0.898
16880SOL    HW252473   2.090   2.889   0.958
16881SOL     OW52474   4.123   2.073  11.713
16881SOL    HW152475   4.146   1.980  11.720
16881SOL    HW252476   4.148   2.097  11.624
16882SOL     OW52477  13.357   8.603  14.042
16882SOL    HW152478  13.307   8.561  13.973
16882SOL    HW252479  13.307   8.586  14.122
16883SOL     OW52480  12.159   1.613   9.097
16883SOL    HW152481  12.127   1.635   9.184
16883SOL    HW252482  12.123   1.682   9.040
16884SOL     OW52483  14.285   7.356  10.414
16884SOL    HW152484  14.342   7.352  10.490
16884SOL    HW252485  14.207   7.403  10.444
16885SOL     OW52486  10.572   2.908  11.131
16885SOL    HW152487  10.568   2.930  11.038
16885SOL    HW252488  10.641   2.842  11.136
16886SOL     OW52489  10.635  12.903  12.940
16886SOL    HW152490  10.632  12.884  13.034
16886SOL    HW252491  10.650  12.997  12.935
16887SOL     OW52492   0.656  11.126  14.449
16887SOL    HW152493   0.729  11.142  14.508
16887SOL    HW252494   0.608  11.209  14.447
16888SOL     OW52495   3.317   9.459  12.820
16888SOL    HW152496   3.363   9.471  12.903
16888SOL    HW252497   3.266   9.540  12.810
16889SOL     OW52498  14.283   9.371  12.301
16889SOL    HW152499  14.286   9.275  12.299
16889SOL    HW252500  14.325   9.398  12.219
16890SOL     OW52501  12.117   1.982   7.335
16890SOL    HW152502  12.038   2.034   7.318
16890SOL    HW252503  12.088   1.911   7.391
16891SOL     OW52504   1.877   7.944   8.652
16891SOL    HW152505   1.879   8.040   8.648
16891SOL    HW252506   1.791   7.921   8.617
16892SOL     OW52507   9.295  10.330  13.272
16892SOL    HW152508   9.308  10.364  13.360
16892SOL    HW252509   9.354  10.255  13.266
16893SOL     OW52510  11.394   7.455   2.851
16893SOL    HW152511  11.466   7.484   2.795
16893SOL    HW252512  11.362   7.535   2.892
16894SOL     OW52513  10.165   4.202   8.290
16894SOL    HW152514  10.184   4.123   8.239
16894SOL    HW252515  10.070   4.198   8.305
16895SOL     OW52516  10.374  10.411   6.194
16895SOL    HW152517  10.387  10.435   6.102
16895SOL    HW252518  10.461  10.417   6.233
16896SOL     OW52519  11.147   3.065   3.088
16896SOL    HW152520  11.127   2.971   3.085
16896SOL    HW252521  11.177   3.086   3.000
16897SOL     OW52522   5.353  13.931  11.327
16897SOL    HW152523   5.343  13.846  11.370
16897SOL    HW252524   5.410  13.913  11.252
16898SOL     OW52525   1.702   9.611   8.567
16898SOL    HW152526   1.671   9.646   8.484
16898SOL    HW252527   1.798   9.615   8.561
16899SOL     OW52528   3.047   6.682  14.011
16899SOL    HW152529   3.138   6.662  14.031
16899SOL    HW252530   3.033   6.770  14.048
16900SOL     OW52531   2.076   2.973   6.612
16900SOL    HW152532   2.145   2.939   6.669
16900SOL    HW252533   2.109   2.958   6.523
16901SOL     OW52534  11.826   2.177   7.024
16901SOL    HW152535  11.915   2.207   7.009
16901SOL    HW252536  11.771   2.237   6.974
16902SOL     OW52537   7.798  13.117   6.057
16902SOL    HW152538   7.823  13.075   6.140
16902SOL    HW252539   7.821  13.053   5.990
16903SOL     OW52540   4.133   1.639   2.745
16903SOL    HW152541   4.135   1.553   2.704
16903SOL    HW252542   4.083   1.694   2.685
16904SOL     OW52543  11.180   7.634   3.559
16904SOL    HW152544  11.207   7.723   3.579
16904SOL    HW252545  11.262   7.586   3.545
16905SOL     OW52546   5.203   0.522   4.094
16905SOL    HW152547   5.155   0.591   4.048
16905SOL    HW252548   5.168   0.525   4.184
16906SOL     OW52549  14.373  11.982   3.832
16906SOL    HW152550  14.350  11.979   3.740
16906SOL    HW252551  14.469  11.976   3.833
16907SOL     OW52552   5.293  13.036  13.619
16907SOL    HW152553   5.306  13.105  13.553
16907SOL    HW252554   5.319  13.077  13.702
16908SOL     OW52555   5.530   6.621  14.538
16908SOL    HW152556   5.614   6.667  14.546
16908SOL    HW252557   5.507   6.629  14.445
16909SOL     OW52558   5.017   2.900   1.937
16909SOL    HW152559   5.087   2.860   1.990
16909SOL    HW252560   5.033   2.867   1.848
16910SOL     OW52561   9.404   4.141   2.047
16910SOL    HW152562   9.403   4.048   2.071
16910SOL    HW252563   9.437   4.142   1.957
16911SOL     OW52564  11.889   5.602  10.096
16911SOL    HW152565  11.941   5.682  10.096
16911SOL    HW252566  11.821   5.617  10.030
16912SOL     OW52567   1.075  13.529   3.692
16912SOL    HW152568   1.104  13.593   3.757
16912SOL    HW252569   1.049  13.452   3.743
16913SOL     OW52570  12.505  13.898   5.125
16913SOL    HW152571  12.573  13.835   5.103
16913SOL    HW252572  12.504  13.901   5.221
16914SOL     OW52573   2.634   8.340   8.482
16914SOL    HW152574   2.665   8.316   8.394
16914SOL    HW252575   2.594   8.259   8.516
16915SOL     OW52576  13.785   1.377  14.805
16915SOL    HW152577  13.850   1.353  14.871
16915SOL    HW252578  13.836   1.421  14.736
16916SOL     OW52579  11.152   9.764   8.018
16916SOL    HW152580  11.143   9.781   7.924
16916SOL    HW252581  11.183   9.847   8.054
16917SOL     OW52582   7.589   1.179   7.315
16917SOL    HW152583   7.555   1.106   7.263
16917SOL    HW252584   7.681   1.184   7.291
16918SOL     OW52585   2.627   9.773  11.655
16918SOL    HW152586   2.706   9.767  11.709
16918SOL    HW252587   2.652   9.828  11.581
16919SOL     OW52588   5.487   1.504   7.151
16919SOL    HW152589   5.472   1.430   7.210
16919SOL    HW252590   5.572   1.487   7.111
16920SOL     OW52591  12.853   4.055   2.533
16920SOL    HW152592  12.772   4.026   2.491
16920SOL    HW252593  12.897   3.974   2.559
16921SOL     OW52594   8.260   7.350   1.597
16921SOL    HW152595   8.184   7.292   1.594
16921SOL    HW252596   8.223   7.438   1.604
16922SOL     OW52597  11.045  13.352  10.350
16922SOL    HW152598  11.059  13.257  10.358
16922SOL    HW252599  10.953  13.365  10.372
16923SOL     OW52600   2.743   3.321   2.402
16923SOL    HW152601   2.704   3.261   2.337
16923SOL    HW252602   2.807   3.267   2.448
16924SOL     OW52603  12.714   1.071   8.171
16924SOL    HW152604  12.629   1.069   8.216
16924SOL    HW252605  12.724   0.982   8.136
16925SOL     OW52606   4.674   7.542  11.665
16925SOL    HW152607   4.714   7.619  11.704
16925SOL    HW252608   4.587   7.571  11.637
16926SOL     OW52609   9.197  11.481   4.467
16926SOL    HW152610   9.233  11.431   4.540
16926SOL    HW252611   9.125  11.532   4.506
16927SOL     OW52612   9.578  13.718   3.121
16927SOL    HW152613   9.491  13.705   3.158
16927SOL    HW252614   9.571  13.797   3.067
16928SOL     OW52615  14.274   4.741   0.627
16928SOL    HW152616  14.322   4.820   0.605
16928SOL    HW252617  14.337   4.687   0.674
16929SOL     OW52618   5.789   7.799  10.296
16929SOL    HW152619   5.766   7.869  10.235
16929SOL    HW252620   5.783   7.839  10.382
16930SOL     OW52621  12.610   0.745   8.860
16930SOL    HW152622  12.547   0.695   8.912
16930SOL    HW252623  12.560   0.821   8.830
16931SOL     OW52624   5.225  10.362   1.614
16931SOL    HW152625   5.316  10.376   1.588
16931SOL    HW252626   5.205  10.435   1.672
16932SOL     OW52627   6.939   6.834  12.448
16932SOL    HW152628   6.987   6.916  12.440
16932SOL    HW252629   6.861   6.846  12.394
16933SOL     OW52630   3.797  13.889   5.781
16933SOL    HW152631   3.742  13.821   5.743
16933SOL    HW252632   3.885  13.871   5.749
16934SOL     OW52633  12.920   0.617   2.132
16934SOL    HW152634  12.832   0.604   2.169
16934SOL    HW252635  12.940   0.709   2.150
16935SOL     OW52636   6.598   6.175   1.641
16935SOL    HW152637   6.656   6.217   1.705
16935SOL    HW252638   6.606   6.231   1.563
16936SOL     OW52639  10.035   5.554   0.103
16936SOL    HW152640   9.993   5.639   0.092
16936SOL    HW252641  10.084   5.562   0.186
16937SOL     OW52642   5.933  13.195   4.264
16937SOL    HW152643   5.855  13.175   4.213
16937SOL    HW252644   5.908  13.178   4.354
16938SOL     OW52645  11.978  10.041   7.974
16938SOL    HW152646  11.910  10.094   7.933
16938SOL    HW252647  11.989  10.079   8.062
16939SOL     OW52648   4.838   4.794   3.596
16939SOL    HW152649   4.786   4.722   3.633
16939SOL    HW252650   4.917   4.797   3.650
16940SOL     OW52651  13.984   2.733   4.236
16940SOL    HW152652  13.898   2.775   4.232
16940SOL    HW252653  14.017   2.738   4.146
16941SOL     OW52654  14.705  12.774  14.229
16941SOL    HW152655  14.641  12.713  14.190
16941SOL    HW252656  14.722  12.738  14.316
16942SOL     OW52657  12.319   6.465   4.057
16942SOL    HW152658  12.247   6.443   3.997
16942SOL    HW252659  12.354   6.380   4.084
16943SOL     OW52660  14.654   6.779   6.601
16943SOL    HW152661  14.654   6.799   6.695
16943SOL    HW252662  14.562   6.772   6.577
16944SOL     OW52663   4.626   1.261   5.133
16944SOL    HW152664   4.617   1.245   5.039
16944SOL    HW252665   4.647   1.354   5.138
16945SOL     OW52666  10.276   1.722   8.390
16945SOL    HW152667  10.222   1.669   8.331
16945SOL    HW252668  10.326   1.779   8.331
16946SOL     OW52669   6.679   5.013  14.277
16946SOL    HW152670   6.756   4.993  14.224
16946SOL    HW252671   6.662   5.106  14.261
16947SOL     OW52672   8.644   5.386   7.336
16947SOL    HW152673   8.646   5.319   7.269
16947SOL    HW252674   8.679   5.464   7.293
16948SOL     OW52675  13.625   3.507   4.665
16948SOL    HW152676  13.532   3.526   4.653
16948SOL    HW252677  13.626   3.433   4.727
16949SOL     OW52678   9.049   9.715  14.506
16949SOL    HW152679   9.018   9.672  14.426
16949SOL    HW252680   9.024   9.806  14.495
16950SOL     OW52681  14.327   7.880  10.856
16950SOL    HW152682  14.338   7.920  10.942
16950SOL    HW252683  14.305   7.789  10.874
16951SOL     OW52684   1.780   8.346   0.254
16951SOL    HW152685   1.804   8.306   0.338
16951SOL    HW252686   1.784   8.274   0.191
16952SOL     OW52687   4.493   6.740   3.827
16952SOL    HW152688   4.475   6.669   3.888
16952SOL    HW252689   4.501   6.818   3.882
16953SOL     OW52690   6.871   1.731   3.459
16953SOL    HW152691   6.821   1.809   3.435
16953SOL    HW252692   6.929   1.715   3.385
16954SOL     OW52693   0.696   1.138   5.634
16954SOL    HW152694   0.750   1.206   5.674
16954SOL    HW252695   0.694   1.159   5.541
16955SOL     OW52696  13.894   9.074   0.883
16955SOL    HW152697  13.881   9.022   0.804
16955SOL    HW252698  13.857   9.160   0.863
16956SOL     OW52699  10.622  14.448  11.592
16956SOL    HW152700  10.530  14.445  11.618
16956SOL    HW252701  10.632  14.535  11.551
16957SOL     OW52702  13.173   6.540   1.104
16957SOL    HW152703  13.132   6.457   1.130
16957SOL    HW252704  13.100   6.593   1.072
16958SOL     OW52705  14.144   6.781   9.080
16958SOL    HW152706  14.196   6.755   9.156
16958SOL    HW252707  14.181   6.866   9.054
16959SOL     OW52708  12.593   8.550   4.226
16959SOL    HW152709  12.644   8.572   4.304
16959SOL    HW252710  12.655   8.556   4.154
16960SOL     OW52711   2.425   3.991   1.753
16960SOL    HW152712   2.466   4.004   1.839
16960SOL    HW252713   2.400   4.079   1.724
16961SOL     OW52714   9.323   1.548   6.030
16961SOL    HW152715   9.282   1.600   5.961
16961SOL    HW252716   9.295   1.458   6.011
16962SOL     OW52717   8.882   4.952  14.799
16962SOL    HW152718   8.842   5.013  14.861
16962SOL    HW252719   8.959   4.998  14.765
16963SOL     OW52720  13.055  10.651   7.678
16963SOL    HW152721  13.145  10.619   7.675
16963SOL    HW252722  13.003  10.583   7.634
16964SOL     OW52723   7.530   4.303   4.216
16964SOL    HW152724   7.622   4.328   4.228
16964SOL    HW252725   7.530   4.207   4.219
16965SOL     OW52726  10.699   1.097   4.720
16965SOL    HW152727  10.733   1.175   4.764
16965SOL    HW252728  10.748   1.093   4.637
16966SOL     OW52729  11.488   6.635   7.427
16966SOL    HW152730  11.496   6.596   7.514
16966SOL    HW252731  11.525   6.723   7.437
16967SOL     OW52732  12.889  11.412  14.454
16967SOL    HW152733  12.804  11.424  14.412
16967SOL    HW252734  12.912  11.499  14.488
16968SOL     OW52735  10.214  13.458  14.512
16968SOL    HW152736  10.304  13.474  14.484
16968SOL    HW252737  10.200  13.519  14.584
16969SOL     OW52738  11.879  13.595  10.078
16969SOL    HW152739  11.919  13.514  10.045
16969SOL    HW252740  11.894  13.592  10.173
16970SOL     OW52741   3.266   2.279  11.204
16970SOL    HW152742   3.263   2.325  11.121
16970SOL    HW252743   3.247   2.346  11.270
16971SOL     OW52744   3.735  11.561   6.062
16971SOL    HW152745   3.645  11.564   6.032
16971SOL    HW252746   3.732  11.600   6.150
16972SOL     OW52747  14.097   4.639   8.231
16972SOL    HW152748  14.025   4.588   8.193
16972SOL    HW252749  14.078   4.641   8.324
16973SOL     OW52750   5.762  10.739  10.492
16973SOL    HW152751   5.682  10.762  10.445
16973SOL    HW252752   5.831  10.788  10.447
16974SOL     OW52753   4.695   5.983   4.754
16974SOL    HW152754   4.701   6.020   4.842
16974SOL    HW252755   4.774   6.012   4.709
16975SOL     OW52756   0.640   9.469   1.345
16975SOL    HW152757   0.732   9.449   1.361
16975SOL    HW252758   0.594   9.434   1.421
16976SOL     OW52759   3.918   4.294   0.696
16976SOL    HW152760   3.994   4.259   0.742
16976SOL    HW252761   3.904   4.234   0.622
16977SOL     OW52762   3.690  14.741   5.654
16977SOL    HW152763   3.682  14.669   5.591
16977SOL    HW252764   3.613  14.733   5.710
16978SOL     OW52765   4.737   7.738   6.031
16978SOL    HW152766   4.819   7.690   6.026
16978SOL    HW252767   4.675   7.685   5.981
16979SOL     OW52768  12.152   1.930   7.015
16979SOL    HW152769  12.234   1.904   7.057
16979SOL    HW252770  12.091   1.860   7.037
16980SOL     OW52771   7.736   1.002   7.661
16980SOL    HW152772   7.654   1.043   7.632
16980SOL    HW252773   7.708   0.917   7.696
16981SOL     OW52774   1.446  13.855  13.991
16981SOL    HW152775   1.367  13.871  14.043
16981SOL    HW252776   1.438  13.914  13.916
16982SOL     OW52777  12.426   9.318   9.333
16982SOL    HW152778  12.504   9.311   9.389
16982SOL    HW252779  12.352   9.310   9.394
16983SOL     OW52780   9.482   6.325   9.137
16983SOL    HW152781   9.426   6.267   9.189
16983SOL    HW252782   9.522   6.267   9.072
16984SOL     OW52783  10.400   8.200   5.749
16984SOL    HW152784  10.416   8.150   5.828
16984SOL    HW252785  10.380   8.134   5.682
16985SOL     OW52786  10.853   3.160   7.317
16985SOL    HW152787  10.928   3.134   7.263
16985SOL    HW252788  10.880   3.140   7.407
16986SOL     OW52789   6.356  11.189   9.677
16986SOL    HW152790   6.409  11.151   9.607
16986SOL    HW252791   6.386  11.145   9.756
16987SOL     OW52792   9.235   8.798  14.180
16987SOL    HW152793   9.178   8.729  14.144
16987SOL    HW252794   9.271   8.760  14.260
16988SOL     OW52795   2.678  13.887  11.837
16988SOL    HW152796   2.732  13.891  11.758
16988SOL    HW252797   2.697  13.800  11.874
16989SOL     OW52798  12.855   3.202   7.582
16989SOL    HW152799  12.929   3.144   7.602
16989SOL    HW252800  12.889   3.290   7.596
16990SOL     OW52801   2.817   4.028   1.464
16990SOL    HW152802   2.740   3.991   1.508
16990SOL    HW252803   2.817   3.987   1.377
16991SOL     OW52804   5.223   1.907  11.396
16991SOL    HW152805   5.128   1.897  11.394
16991SOL    HW252806   5.239   1.976  11.460
16992SOL     OW52807   8.020   8.084  12.162
16992SOL    HW152808   7.952   8.148  12.138
16992SOL    HW252809   8.083   8.134  12.213
16993SOL     OW52810   2.390   0.743  13.941
16993SOL    HW152811   2.381   0.691  13.861
16993SOL    HW252812   2.349   0.827  13.920
16994SOL     OW52813   7.709  11.617   6.213
16994SOL    HW152814   7.642  11.574   6.160
16994SOL    HW252815   7.694  11.585   6.302
16995SOL     OW52816  13.247   0.940   2.053
16995SOL    HW152817  13.220   0.853   2.023
16995SOL    HW252818  13.166   0.989   2.059
16996SOL     OW52819   5.308   5.912   4.429
16996SOL    HW152820   5.256   5.975   4.479
16996SOL    HW252821   5.273   5.917   4.340
16997SOL     OW52822  12.909   0.575   0.400
16997SOL    HW152823  12.980   0.638   0.382
16997SOL    HW252824  12.953   0.491   0.406
16998SOL     OW52825   0.559   6.404   1.991
16998SOL    HW152826   0.597   6.462   2.057
16998SOL    HW252827   0.631   6.346   1.966
16999SOL     OW52828  11.267   2.419  10.204
16999SOL    HW152829  11.348   2.374  10.180
16999SOL    HW252830  11.268   2.500  10.153
17000SOL     OW52831   2.625  13.868   1.412
17000SOL    HW152832   2.573  13.821   1.478
17000SOL    HW252833   2.597  13.830   1.329
17001SOL     OW52834   7.515  12.622   3.125
17001SOL    HW152835   7.531  12.715   3.142
17001SOL    HW252836   7.584  12.576   3.173
17002SOL     OW52837  14.247   7.312   1.778
17002SOL    HW152838  14.268   7.398   1.814
17002SOL    HW252839  14.177   7.328   1.716
17003SOL     OW52840   9.937  14.616  12.180
17003SOL    HW152841   9.917  14.548  12.244
17003SOL    HW252842  10.030  14.605  12.161
17004SOL     OW52843   5.128  12.350   8.784
17004SOL    HW152844   5.221  12.327   8.774
17004SOL    HW252845   5.085  12.304   8.712
17005SOL     OW52846   7.385  12.962  11.883
17005SOL    HW152847   7.328  13.020  11.833
17005SOL    HW252848   7.467  13.011  11.891
17006SOL     OW52849   1.413   2.915  12.704
17006SOL    HW152850   1.398   2.929  12.611
17006SOL    HW252851   1.474   2.984  12.730
17007SOL     OW52852   1.356   2.929  11.565
17007SOL    HW152853   1.360   2.946  11.659
17007SOL    HW252854   1.263   2.913  11.547
17008SOL     OW52855   6.692   9.328  11.809
17008SOL    HW152856   6.735   9.243  11.813
17008SOL    HW252857   6.657   9.342  11.897
17009SOL     OW52858   6.139   5.645   6.060
17009SOL    HW152859   6.211   5.582   6.058
17009SOL    HW252860   6.181   5.730   6.053
17010SOL     OW52861  10.007  11.291   5.723
17010SOL    HW152862  10.002  11.353   5.796
17010SOL    HW252863   9.957  11.332   5.653
17011SOL     OW52864   3.186  11.395   0.943
17011SOL    HW152865   3.173  11.302   0.960
17011SOL    HW252866   3.157  11.438   1.024
17012SOL     OW52867  12.353   2.414  13.484
17012SOL    HW152868  12.448   2.423  13.495
17012SOL    HW252869  12.320   2.404  13.574
17013SOL     OW52870   1.982   1.470  12.714
17013SOL    HW152871   1.926   1.448  12.788
17013SOL    HW252872   2.062   1.503  12.754
17014SOL     OW52873  12.523  11.150  10.072
17014SOL    HW152874  12.607  11.109  10.051
17014SOL    HW252875  12.470  11.079  10.109
17015SOL     OW52876   4.878   4.983   0.687
17015SOL    HW152877   4.946   5.044   0.659
17015SOL    HW252878   4.920   4.897   0.686
17016SOL     OW52879  11.162   8.518   8.615
17016SOL    HW152880  11.099   8.536   8.685
17016SOL    HW252881  11.233   8.471   8.659
17017SOL     OW52882  10.361   9.120   3.200
17017SOL    HW152883  10.343   9.100   3.108
17017SOL    HW252884  10.323   9.047   3.249
17018SOL     OW52885   1.280  11.568  13.102
17018SOL    HW152886   1.314  11.548  13.189
17018SOL    HW252887   1.357  11.588  13.049
17019SOL     OW52888   8.908   0.220   3.067
17019SOL    HW152889   8.904   0.301   3.017
17019SOL    HW252890   8.861   0.239   3.148
17020SOL     OW52891   8.330  14.685  12.893
17020SOL    HW152892   8.240  14.657  12.880
17020SOL    HW252893   8.358  14.718  12.808
17021SOL     OW52894   0.317   0.230   0.519
17021SOL    HW152895   0.323   0.294   0.447
17021SOL    HW252896   0.227   0.236   0.549
17022SOL     OW52897  12.940  11.544  14.013
17022SOL    HW152898  12.911  11.453  14.022
17022SOL    HW252899  13.011  11.540  13.949
17023SOL     OW52900  13.518   5.338   9.306
17023SOL    HW152901  13.470   5.302   9.231
17023SOL    HW252902  13.594   5.380   9.267
17024SOL     OW52903   3.533   5.130   3.893
17024SOL    HW152904   3.617   5.170   3.914
17024SOL    HW252905   3.517   5.153   3.801
17025SOL     OW52906   0.286   0.363   2.306
17025SOL    HW152907   0.292   0.281   2.257
17025SOL    HW252908   0.320   0.430   2.246
17026SOL     OW52909   1.138  14.814   6.009
17026SOL    HW152910   1.151   0.005   6.070
17026SOL    HW252911   1.226  14.792   5.979
17027SOL     OW52912   1.253  11.209   9.677
17027SOL    HW152913   1.327  11.270   9.676
17027SOL    HW252914   1.204  11.232   9.757
17028SOL     OW52915   9.646   2.734   4.537
17028SOL    HW152916   9.642   2.746   4.632
17028SOL    HW252917   9.730   2.689   4.522
17029SOL     OW52918   7.604  11.288   8.470
17029SOL    HW152919   7.632  11.264   8.383
17029SOL    HW252920   7.509  11.274   8.470
17030SOL     OW52921   6.476   3.644   6.723
17030SOL    HW152922   6.405   3.636   6.659
17030SOL    HW252923   6.464   3.731   6.761
17031SOL     OW52924   4.109  10.583   7.328
17031SOL    HW152925   4.146  10.670   7.317
17031SOL    HW252926   4.153  10.547   7.405
17032SOL     OW52927  13.402   4.628  13.929
17032SOL    HW152928  13.411   4.672  14.013
17032SOL    HW252929  13.373   4.539  13.952
17033SOL     OW52930   1.186  11.755   2.083
17033SOL    HW152931   1.212  11.846   2.098
17033SOL    HW252932   1.174  11.719   2.171
17034SOL     OW52933   1.256   8.083   5.953
17034SOL    HW152934   1.200   8.145   5.905
17034SOL    HW252935   1.330   8.068   5.895
17035SOL     OW52936  11.732   7.231   7.248
17035SOL    HW152937  11.704   7.272   7.166
17035SOL    HW252938  11.826   7.217   7.237
17036SOL     OW52939  12.058   8.743  12.561
17036SOL    HW152940  12.124   8.729  12.492
17036SOL    HW252941  11.978   8.765  12.513
17037SOL     OW52942   1.977   5.874   6.150
17037SOL    HW152943   1.986   5.928   6.072
17037SOL    HW252944   2.062   5.831   6.160
17038SOL     OW52945   8.110   6.876   9.600
17038SOL    HW152946   8.199   6.844   9.614
17038SOL    HW252947   8.063   6.855   9.681
17039SOL     OW52948   3.986   7.612  13.551
17039SOL    HW152949   4.012   7.702  13.532
17039SOL    HW252950   3.990   7.568  13.466
17040SOL     OW52951  14.140  12.995   4.101
17040SOL    HW152952  14.213  12.941   4.130
17040SOL    HW252953  14.159  13.082   4.134
17041SOL     OW52954   5.499   3.943  12.684
17041SOL    HW152955   5.491   4.037  12.700
17041SOL    HW252956   5.412   3.915  12.656
17042SOL     OW52957   3.554   6.060  10.001
17042SOL    HW152958   3.472   6.071  10.049
17042SOL    HW252959   3.574   6.147   9.967
17043SOL     OW52960   4.331   0.649   5.719
17043SOL    HW152961   4.367   0.725   5.766
17043SOL    HW252962   4.255   0.684   5.672
17044SOL     OW52963   1.427  13.539   5.359
17044SOL    HW152964   1.412  13.477   5.288
17044SOL    HW252965   1.452  13.484   5.434
17045SOL     OW52966   5.804  13.786  12.242
17045SOL    HW152967   5.780  13.717  12.304
17045SOL    HW252968   5.731  13.789  12.180
17046SOL     OW52969   6.882   9.690  12.381
17046SOL    HW152970   6.850   9.776  12.352
17046SOL    HW252971   6.820   9.627  12.345
17047SOL     OW52972   5.751  10.514   9.193
17047SOL    HW152973   5.818  10.572   9.230
17047SOL    HW252974   5.796  10.467   9.123
17048SOL     OW52975   2.927   4.195   4.877
17048SOL    HW152976   2.983   4.118   4.861
17048SOL    HW252977   2.915   4.196   4.972
17049SOL     OW52978   6.674   7.435  12.193
17049SOL    HW152979   6.734   7.373  12.235
17049SOL    HW252980   6.679   7.415  12.100
17050SOL     OW52981   8.466   8.565   9.239
17050SOL    HW152982   8.443   8.555   9.331
17050SOL    HW252983   8.552   8.524   9.231
17051SOL     OW52984   8.120  10.069  12.051
17051SOL    HW152985   8.182   9.997  12.054
17051SOL    HW252986   8.049  10.043  12.110
17052SOL     OW52987   7.560  14.869  14.383
17052SOL    HW152988   7.469  14.861  14.356
17052SOL    HW252989   7.601  14.789  14.349
17053SOL     OW52990   2.203  12.616   2.468
17053SOL    HW152991   2.176  12.640   2.379
17053SOL    HW252992   2.181  12.523   2.475
17054SOL     OW52993  14.556   3.388   6.582
17054SOL    HW152994  14.529   3.298   6.562
17054SOL    HW252995  14.555   3.433   6.497
17055SOL     OW52996   2.553   6.531   7.142
17055SOL    HW152997   2.618   6.559   7.077
17055SOL    HW252998   2.469   6.540   7.097
17056SOL     OW52999   5.360  11.008  14.766
17056SOL    HW153000   5.346  10.926  14.718
17056SOL    HW253001   5.455  11.018  14.768
17057SOL     OW53002   3.624   6.166   6.550
17057SOL    HW153003   3.627   6.090   6.492
17057SOL    HW253004   3.533   6.169   6.581
17058SOL     OW53005  13.974   6.533  13.608
17058SOL    HW153006  14.064   6.564  13.607
17058SOL    HW253007  13.933   6.579  13.681
17059SOL     OW53008  14.793  11.569   7.000
17059SOL    HW153009  14.741  11.640   6.964
17059SOL    HW253010  14.795  11.586   7.094
17060SOL     OW53011  14.150   5.678   2.855
17060SOL    HW153012  14.058   5.707   2.860
17060SOL    HW253013  14.156   5.632   2.772
17061SOL     OW53014  14.821  11.683   9.705
17061SOL    HW153015  14.795  11.649   9.791
17061SOL    HW253016   0.012  11.742   9.724
17062SOL     OW53017   1.424  12.062   0.822
17062SOL    HW153018   1.418  12.010   0.741
17062SOL    HW253019   1.445  12.150   0.791
17063SOL     OW53020   2.953   9.334   9.024
17063SOL    HW153021   2.981   9.423   9.045
17063SOL    HW253022   3.008   9.308   8.950
17064SOL     OW53023  14.251  10.028   3.756
17064SOL    HW153024  14.175  10.083   3.774
17064SOL    HW253025  14.273   9.989   3.840
17065SOL     OW53026   5.650   4.974   2.606
17065SOL    HW153027   5.665   4.969   2.511
17065SOL    HW253028   5.555   4.980   2.615
17066SOL     OW53029   4.965   5.601   5.083
17066SOL    HW153030   5.027   5.674   5.074
17066SOL    HW253031   4.890   5.626   5.029
17067SOL     OW53032  14.596   7.562   3.859
17067SOL    HW153033  14.548   7.644   3.872
17067SOL    HW253034  14.573   7.535   3.770
17068SOL     OW53035   4.151  11.153   9.674
17068SOL    HW153036   4.095  11.105   9.735
17068SOL    HW253037   4.150  11.101   9.594
17069SOL     OW53038   7.081   5.005  12.750
17069SOL    HW153039   7.094   4.935  12.687
17069SOL    HW253040   7.062   4.961  12.833
17070SOL     OW53041   5.717   9.107   4.838
17070SOL    HW153042   5.787   9.052   4.872
17070SOL    HW253043   5.760   9.169   4.779
17071SOL     OW53044  11.173  12.921   0.506
17071SOL    HW153045  11.140  12.992   0.561
17071SOL    HW253046  11.105  12.909   0.439
17072SOL     OW53047   6.983   6.422   1.986
17072SOL    HW153048   7.003   6.364   2.059
17072SOL    HW253049   6.939   6.497   2.027
17073SOL     OW53050  13.751   1.441   1.269
17073SOL    HW153051  13.755   1.421   1.175
17073SOL    HW253052  13.790   1.528   1.277
17074SOL     OW53053  11.138  13.978   7.190
17074SOL    HW153054  11.045  13.967   7.170
17074SOL    HW253055  11.164  13.894   7.228
17075SOL     OW53056  13.863   1.034   7.385
17075SOL    HW153057  13.811   1.086   7.324
17075SOL    HW253058  13.953   1.041   7.353
17076SOL     OW53059   4.818   7.142   0.777
17076SOL    HW153060   4.909   7.112   0.779
17076SOL    HW253061   4.774   7.085   0.840
17077SOL     OW53062   7.563   7.080   4.865
17077SOL    HW153063   7.589   7.116   4.950
17077SOL    HW253064   7.488   7.134   4.839
17078SOL     OW53065   2.801  10.711   8.301
17078SOL    HW153066   2.886  10.713   8.258
17078SOL    HW253067   2.761  10.795   8.279
17079SOL     OW53068   0.327   9.137   3.147
17079SOL    HW153069   0.412   9.103   3.173
17079SOL    HW253070   0.318   9.112   3.055
17080SOL     OW53071  13.490  12.883   5.889
17080SOL    HW153072  13.570  12.845   5.853
17080SOL    HW253073  13.489  12.854   5.981
17081SOL     OW53074   6.752   7.791   0.874
17081SOL    HW153075   6.744   7.709   0.824
17081SOL    HW253076   6.668   7.801   0.917
17082SOL     OW53077   2.834  10.612  11.150
17082SOL    HW153078   2.821  10.599  11.244
17082SOL    HW253079   2.868  10.701  11.143
17083SOL     OW53080   6.714   6.875  10.404
17083SOL    HW153081   6.682   6.826  10.329
17083SOL    HW253082   6.763   6.811  10.455
17084SOL     OW53083  10.093  10.260  12.964
17084SOL    HW153084  10.168  10.212  12.998
17084SOL    HW253085  10.119  10.352  12.967
17085SOL     OW53086   2.975  13.579   9.549
17085SOL    HW153087   2.936  13.661   9.519
17085SOL    HW253088   2.927  13.558   9.629
17086SOL     OW53089  10.215  11.083   4.676
17086SOL    HW153090  10.143  11.083   4.614
17086SOL    HW253091  10.214  11.170   4.714
17087SOL     OW53092   2.013  10.936   2.913
17087SOL    HW153093   2.094  10.971   2.948
17087SOL    HW253094   1.958  10.922   2.990
17088SOL     OW53095   8.390   5.987   1.191
17088SOL    HW153096   8.350   6.071   1.213
17088SOL    HW253097   8.424   5.954   1.274
17089SOL     OW53098   2.118  14.204  13.342
17089SOL    HW153099   2.167  14.281  13.371
17089SOL    HW253100   2.126  14.142  13.415
17090SOL     OW53101   9.574   8.553   4.384
17090SOL    HW153102   9.615   8.615   4.446
17090SOL    HW253103   9.646   8.527   4.326
17091SOL     OW53104   1.976   0.623   0.072
17091SOL    HW153105   1.924   0.664   0.141
17091SOL    HW253106   1.940   0.658  14.872
17092SOL     OW53107   1.410   5.606   9.665
17092SOL    HW153108   1.378   5.548   9.734
17092SOL    HW253109   1.334   5.620   9.608
17093SOL     OW53110   4.980   6.847   3.657
17093SOL    HW153111   4.932   6.793   3.719
17093SOL    HW253112   5.033   6.905   3.712
17094SOL     OW53113   6.634  13.989  12.717
17094SOL    HW153114   6.630  13.939  12.798
17094SOL    HW253115   6.642  14.080  12.745
17095SOL     OW53116   0.252   8.304   1.831
17095SOL    HW153117   0.197   8.372   1.793
17095SOL    HW253118   0.206   8.222   1.815
17096SOL     OW53119   8.385  11.513   4.849
17096SOL    HW153120   8.317  11.579   4.840
17096SOL    HW253121   8.449  11.535   4.781
17097SOL     OW53122   6.728   1.194   6.961
17097SOL    HW153123   6.649   1.191   6.906
17097SOL    HW253124   6.751   1.102   6.973
17098SOL     OW53125   8.335   9.920  12.022
17098SOL    HW153126   8.361   9.844  12.074
17098SOL    HW253127   8.405   9.984  12.036
17099SOL     OW53128  10.389   1.155   0.875
17099SOL    HW153129  10.340   1.083   0.916
17099SOL    HW253130  10.459   1.112   0.827
17100SOL     OW53131   4.474  13.889  13.026
17100SOL    HW153132   4.458  13.795  13.035
17100SOL    HW253133   4.569  13.896  13.018
17101SOL     OW53134  12.506   5.931  11.928
17101SOL    HW153135  12.542   5.937  11.840
17101SOL    HW253136  12.583   5.937  11.986
17102SOL     OW53137   6.916   5.707   0.306
17102SOL    HW153138   6.999   5.703   0.257
17102SOL    HW253139   6.889   5.616   0.315
17103SOL     OW53140  11.968  11.755  12.759
17103SOL    HW153141  11.925  11.840  12.763
17103SOL    HW253142  11.903  11.697  12.717
17104SOL     OW53143   6.452   0.742   2.104
17104SOL    HW153144   6.436   0.833   2.128
17104SOL    HW253145   6.542   0.740   2.074
17105SOL     OW53146   8.920   4.728  11.086
17105SOL    HW153147   8.937   4.777  11.006
17105SOL    HW253148   8.825   4.711  11.085
17106SOL     OW53149   2.874   8.843   5.178
17106SOL    HW153150   2.872   8.767   5.236
17106SOL    HW253151   2.804   8.827   5.114
17107SOL     OW53152   5.797   4.075   8.819
17107SOL    HW153153   5.851   4.153   8.829
17107SOL    HW253154   5.709   4.104   8.846
17108SOL     OW53155  13.994  13.753   2.779
17108SOL    HW153156  13.977  13.846   2.793
17108SOL    HW253157  13.929  13.709   2.834
17109SOL     OW53158   2.030   9.329  14.029
17109SOL    HW153159   2.020   9.254  13.971
17109SOL    HW253160   2.122   9.352  14.023
17110SOL     OW53161   2.920   1.807   9.710
17110SOL    HW153162   2.865   1.729   9.704
17110SOL    HW253163   2.864   1.878   9.678
17111SOL     OW53164   5.336   0.059   8.678
17111SOL    HW153165   5.333   0.011   8.760
17111SOL    HW253166   5.252   0.106   8.673
17112SOL     OW53167   2.416   4.468   6.755
17112SOL    HW153168   2.359   4.440   6.826
17112SOL    HW253169   2.502   4.480   6.797
17113SOL     OW53170   4.289  11.178   6.511
17113SOL    HW153171   4.361  11.154   6.569
17113SOL    HW253172   4.231  11.101   6.512
17114SOL     OW53173  10.236   5.433   1.180
17114SOL    HW153174  10.206   5.498   1.245
17114SOL    HW253175  10.157   5.385   1.156
17115SOL     OW53176   6.271   8.094   7.127
17115SOL    HW153177   6.328   8.073   7.201
17115SOL    HW253178   6.183   8.073   7.159
17116SOL     OW53179   2.886   6.755   3.285
17116SOL    HW153180   2.907   6.765   3.192
17116SOL    HW253181   2.822   6.684   3.288
17117SOL     OW53182   0.934  13.808   3.348
17117SOL    HW153183   0.857  13.808   3.405
17117SOL    HW253184   0.934  13.895   3.306
17118SOL     OW53185   8.892   6.006   3.412
17118SOL    HW153186   8.870   5.937   3.474
17118SOL    HW253187   8.942   6.070   3.462
17119SOL     OW53188  10.571   2.428   8.020
17119SOL    HW153189  10.612   2.490   7.959
17119SOL    HW253190  10.527   2.484   8.084
17120SOL     OW53191   9.904  13.534   4.378
17120SOL    HW153192   9.836  13.560   4.441
17120SOL    HW253193   9.940  13.453   4.413
17121SOL     OW53194  13.045   0.071  14.486
17121SOL    HW153195  13.125   0.119  14.511
17121SOL    HW253196  12.982   0.093  14.554
17122SOL     OW53197   6.984  12.867   8.025
17122SOL    HW153198   6.939  12.789   8.058
17122SOL    HW253199   6.944  12.939   8.073
17123SOL     OW53200   2.940   5.232  12.043
17123SOL    HW153201   2.930   5.204  12.134
17123SOL    HW253202   3.033   5.252  12.035
17124SOL     OW53203   8.686   3.982   4.895
17124SOL    HW153204   8.779   3.973   4.878
17124SOL    HW253205   8.646   3.908   4.849
17125SOL     OW53206  11.826  12.289  12.574
17125SOL    HW153207  11.879  12.296  12.654
17125SOL    HW253208  11.790  12.377  12.562
17126SOL     OW53209  11.069   8.916  12.640
17126SOL    HW153210  11.051   8.947  12.728
17126SOL    HW253211  11.111   8.989  12.596
17127SOL     OW53212  13.713   5.277   5.963
17127SOL    HW153213  13.657   5.231   6.025
17127SOL    HW253214  13.730   5.214   5.893
17128SOL     OW53215   9.646   4.740   0.081
17128SOL    HW153216   9.654   4.656   0.128
17128SOL    HW253217   9.679   4.805   0.143
17129SOL     OW53218  12.656   1.185   2.602
17129SOL    HW153219  12.656   1.172   2.507
17129SOL    HW253220  12.699   1.270   2.614
17130SOL     OW53221   1.324  10.665   9.119
17130SOL    HW153222   1.399  10.724   9.127
17130SOL    HW253223   1.265  10.693   9.190
17131SOL     OW53224  12.233   8.223   0.282
17131SOL    HW153225  12.170   8.213   0.210
17131SOL    HW253226  12.262   8.314   0.275
17132SOL     OW53227  12.823  13.845   6.961
17132SOL    HW153228  12.875  13.921   6.988
17132SOL    HW253229  12.756  13.881   6.902
17133SOL     OW53230   3.827   1.861   8.883
17133SOL    HW153231   3.741   1.840   8.846
17133SOL    HW253232   3.816   1.949   8.920
17134SOL     OW53233   3.739  11.581  10.531
17134SOL    HW153234   3.657  11.533  10.526
17134SOL    HW253235   3.764  11.576  10.623
17135SOL     OW53236  13.446   6.635  14.473
17135SOL    HW153237  13.354   6.613  14.456
17135SOL    HW253238  13.481   6.661  14.388
17136SOL     OW53239  14.171   6.642   7.637
17136SOL    HW153240  14.165   6.735   7.616
17136SOL    HW253241  14.207   6.639   7.725
17137SOL     OW53242   6.795   8.158   9.958
17137SOL    HW153243   6.886   8.130   9.952
17137SOL    HW253244   6.787   8.226   9.891
17138SOL     OW53245   4.889  10.802   7.382
17138SOL    HW153246   4.971  10.768   7.419
17138SOL    HW253247   4.836  10.724   7.366
17139SOL     OW53248  11.566   3.272   3.004
17139SOL    HW153249  11.475   3.255   2.977
17139SOL    HW253250  11.610   3.188   2.991
17140SOL     OW53251   5.246  10.799  11.651
17140SOL    HW153252   5.191  10.876  11.663
17140SOL    HW253253   5.259  10.764  11.739
17141SOL     OW53254   5.430   6.226  10.605
17141SOL    HW153255   5.521   6.195  10.604
17141SOL    HW253256   5.424   6.283  10.529
17142SOL     OW53257   2.364   2.659  10.935
17142SOL    HW153258   2.440   2.605  10.915
17142SOL    HW253259   2.365   2.728  10.869
17143SOL     OW53260   3.082  12.612  11.958
17143SOL    HW153261   3.143  12.644  12.024
17143SOL    HW253262   3.041  12.690  11.922
17144SOL     OW53263   0.399  11.751   3.888
17144SOL    HW153264   0.330  11.690   3.916
17144SOL    HW253265   0.475  11.695   3.872
17145SOL     OW53266   2.989  14.272  13.453
17145SOL    HW153267   3.018  14.311  13.535
17145SOL    HW253268   2.980  14.179  13.472
17146SOL     OW53269   5.931   1.956  11.862
17146SOL    HW153270   6.013   1.966  11.909
17146SOL    HW253271   5.866   1.999  11.917
17147SOL     OW53272   4.476   4.568   6.192
17147SOL    HW153273   4.420   4.497   6.162
17147SOL    HW253274   4.521   4.531   6.268
17148SOL     OW53275   1.026   6.454  13.248
17148SOL    HW153276   1.025   6.417  13.336
17148SOL    HW253277   1.114   6.489  13.238
17149SOL     OW53278  13.384  11.165   4.205
17149SOL    HW153279  13.422  11.163   4.117
17149SOL    HW253280  13.303  11.114   4.197
17150SOL     OW53281   7.074   1.998  10.339
17150SOL    HW153282   7.091   1.907  10.317
17150SOL    HW253283   7.143   2.022  10.400
17151SOL     OW53284   8.338  12.260   6.990
17151SOL    HW153285   8.363  12.187   7.047
17151SOL    HW253286   8.242  12.259   6.990
17152SOL     OW53287  11.963   0.812   4.293
17152SOL    HW153288  11.983   0.719   4.300
17152SOL    HW253289  11.876   0.815   4.253
17153SOL     OW53290   0.559   3.613   9.586
17153SOL    HW153291   0.634   3.662   9.621
17153SOL    HW253292   0.568   3.620   9.491
17154SOL     OW53293  11.660  11.926   1.237
17154SOL    HW153294  11.565  11.914   1.247
17154SOL    HW253295  11.675  11.924   1.143
17155SOL     OW53296  10.662  13.981   4.558
17155SOL    HW153297  10.609  13.991   4.479
17155SOL    HW253298  10.627  13.903   4.601
17156SOL     OW53299   3.541   8.630   8.189
17156SOL    HW153300   3.610   8.584   8.141
17156SOL    HW253301   3.491   8.561   8.231
17157SOL     OW53302   9.648   0.630   4.815
17157SOL    HW153303   9.677   0.706   4.866
17157SOL    HW253304   9.565   0.604   4.855
17158SOL     OW53305   3.810   1.342   0.909
17158SOL    HW153306   3.826   1.289   0.831
17158SOL    HW253307   3.728   1.388   0.890
17159SOL     OW53308   2.406   4.775  14.734
17159SOL    HW153309   2.410   4.690  14.691
17159SOL    HW253310   2.497   4.797  14.754
17160SOL     OW53311   9.810   9.010  14.390
17160SOL    HW153312   9.729   9.018  14.441
17160SOL    HW253313   9.880   9.027  14.453
17161SOL     OW53314   7.944  10.920   9.201
17161SOL    HW153315   8.019  10.928   9.142
17161SOL    HW253316   7.976  10.866   9.273
17162SOL     OW53317   5.145   2.494   4.794
17162SOL    HW153318   5.215   2.530   4.741
17162SOL    HW253319   5.076   2.561   4.792
17163SOL     OW53320   3.031   9.442  13.644
17163SOL    HW153321   3.081   9.519  13.670
17163SOL    HW253322   3.076   9.369  13.687
17164SOL     OW53323   3.114   2.435   1.851
17164SOL    HW153324   3.122   2.513   1.797
17164SOL    HW253325   3.204   2.402   1.859
17165SOL     OW53326   8.311   8.524   4.351
17165SOL    HW153327   8.300   8.498   4.260
17165SOL    HW253328   8.370   8.459   4.389
17166SOL     OW53329   3.361   3.218   7.913
17166SOL    HW153330   3.428   3.286   7.924
17166SOL    HW253331   3.284   3.253   7.959
17167SOL     OW53332  11.529   8.938  12.856
17167SOL    HW153333  11.605   8.987  12.886
17167SOL    HW253334  11.511   8.974  12.769
17168SOL     OW53335  12.928  13.164   3.836
17168SOL    HW153336  12.918  13.243   3.890
17168SOL    HW253337  12.846  13.116   3.849
17169SOL     OW53338   4.930  10.579   1.434
17169SOL    HW153339   4.954  10.649   1.494
17169SOL    HW253340   5.013  10.551   1.395
17170SOL     OW53341   0.383   6.036   3.231
17170SOL    HW153342   0.373   5.942   3.214
17170SOL    HW253343   0.441   6.067   3.162
17171SOL     OW53344   1.790   4.058  14.291
17171SOL    HW153345   1.798   4.007  14.210
17171SOL    HW253346   1.697   4.056  14.312
17172SOL     OW53347   9.173   1.099   3.041
17172SOL    HW153348   9.148   1.104   3.134
17172SOL    HW253349   9.253   1.046   3.041
17173SOL     OW53350   6.430   9.899  13.793
17173SOL    HW153351   6.402   9.877  13.705
17173SOL    HW253352   6.525   9.885  13.792
17174SOL     OW53353   9.331   2.385   2.884
17174SOL    HW153354   9.382   2.430   2.952
17174SOL    HW253355   9.354   2.293   2.894
17175SOL     OW53356  13.668   0.543   8.430
17175SOL    HW153357  13.598   0.496   8.475
17175SOL    HW253358  13.710   0.595   8.499
17176SOL     OW53359  12.674  12.799  13.704
17176SOL    HW153360  12.594  12.852  13.704
17176SOL    HW253361  12.646  12.715  13.741
17177SOL     OW53362   4.890   3.689   3.246
17177SOL    HW153363   4.847   3.757   3.196
17177SOL    HW253364   4.940   3.735   3.313
17178SOL     OW53365  14.425   0.859   1.023
17178SOL    HW153366  14.476   0.792   0.976
17178SOL    HW253367  14.395   0.919   0.954
17179SOL     OW53368   0.847   9.442   3.727
17179SOL    HW153369   0.772   9.382   3.721
17179SOL    HW253370   0.810   9.528   3.707
17180SOL     OW53371   7.359  11.344  14.607
17180SOL    HW153372   7.290  11.291  14.647
17180SOL    HW253373   7.350  11.328  14.513
17181SOL     OW53374   6.461   4.238  12.472
17181SOL    HW153375   6.370   4.265  12.465
17181SOL    HW253376   6.510   4.319  12.483
17182SOL     OW53377   3.759   8.237   3.783
17182SOL    HW153378   3.756   8.180   3.707
17182SOL    HW253379   3.773   8.325   3.747
17183SOL     OW53380   3.582   1.685   0.666
17183SOL    HW153381   3.651   1.710   0.726
17183SOL    HW253382   3.622   1.691   0.579
17184SOL     OW53383  12.436   6.846   2.769
17184SOL    HW153384  12.499   6.805   2.710
17184SOL    HW253385  12.476   6.929   2.794
17185SOL     OW53386   0.438   5.781  14.261
17185SOL    HW153387   0.434   5.801  14.167
17185SOL    HW253388   0.511   5.720  14.270
17186SOL     OW53389   7.847   7.541  13.397
17186SOL    HW153390   7.855   7.466  13.337
17186SOL    HW253391   7.755   7.567  13.389
17187SOL     OW53392  10.117   3.487   5.454
17187SOL    HW153393  10.180   3.478   5.526
17187SOL    HW253394  10.091   3.398   5.433
17188SOL     OW53395   2.649   5.530  14.836
17188SOL    HW153396   2.600   5.503   0.031
17188SOL    HW253397   2.631   5.462  14.771
17189SOL     OW53398  14.669   7.605   5.500
17189SOL    HW153399  14.625   7.627   5.582
17189SOL    HW253400  14.626   7.524   5.472
17190SOL     OW53401  10.043  12.985   8.746
17190SOL    HW153402  10.007  12.936   8.820
17190SOL    HW253403  10.130  12.949   8.732
17191SOL     OW53404  13.151   8.609   0.027
17191SOL    HW153405  13.199   8.575   0.102
17191SOL    HW253406  13.084   8.543   0.009
17192SOL     OW53407   8.669   9.685  11.656
17192SOL    HW153408   8.610   9.615  11.629
17192SOL    HW253409   8.756   9.648  11.648
17193SOL     OW53410   2.164  13.789   6.925
17193SOL    HW153411   2.241  13.807   6.979
17193SOL    HW253412   2.155  13.694   6.926
17194SOL     OW53413  11.447  10.827   1.401
17194SOL    HW153414  11.512  10.856   1.465
17194SOL    HW253415  11.411  10.746   1.437
17195SOL     OW53416   3.761   3.420   9.370
17195SOL    HW153417   3.778   3.505   9.409
17195SOL    HW253418   3.824   3.361   9.413
17196SOL     OW53419  11.086  10.430  13.325
17196SOL    HW153420  11.123  10.464  13.243
17196SOL    HW253421  11.118  10.340  13.330
17197SOL     OW53422   6.006  14.039   9.103
17197SOL    HW153423   6.047  14.073   9.023
17197SOL    HW253424   5.916  14.073   9.100
17198SOL     OW53425   3.746  10.348  11.133
17198SOL    HW153426   3.748  10.259  11.170
17198SOL    HW253427   3.834  10.382  11.146
17199SOL     OW53428   0.701  10.562   3.395
17199SOL    HW153429   0.659  10.578   3.310
17199SOL    HW253430   0.644  10.500   3.439
17200SOL     OW53431   7.948   4.811   0.512
17200SOL    HW153432   7.965   4.746   0.443
17200SOL    HW253433   7.870   4.858   0.482
17201SOL     OW53434   7.059   7.419   3.164
17201SOL    HW153435   6.966   7.397   3.159
17201SOL    HW253436   7.062   7.502   3.211
17202SOL     OW53437   4.923   4.917   8.877
17202SOL    HW153438   4.851   4.875   8.829
17202SOL    HW253439   4.894   5.007   8.889
17203SOL     OW53440   1.628   4.614   5.936
17203SOL    HW153441   1.698   4.571   5.985
17203SOL    HW253442   1.650   4.601   5.844
17204SOL     OW53443  11.304   5.690   0.590
17204SOL    HW153444  11.392   5.659   0.615
17204SOL    HW253445  11.303   5.781   0.618
17205SOL     OW53446  13.570   8.319   8.975
17205SOL    HW153447  13.626   8.332   9.051
17205SOL    HW253448  13.614   8.366   8.904
17206SOL     OW53449   3.454   5.848   6.895
17206SOL    HW153450   3.451   5.885   6.984
17206SOL    HW253451   3.533   5.884   6.856
17207SOL     OW53452   9.622   4.856  14.450
17207SOL    HW153453   9.644   4.925  14.388
17207SOL    HW253454   9.706   4.826  14.484
17208SOL     OW53455   0.840   3.186   1.314
17208SOL    HW153456   0.915   3.223   1.267
17208SOL    HW253457   0.784   3.262   1.333
17209SOL     OW53458  13.159   7.665   5.597
17209SOL    HW153459  13.090   7.730   5.582
17209SOL    HW253460  13.229   7.714   5.640
17210SOL     OW53461   0.331   5.603   7.039
17210SOL    HW153462   0.338   5.631   7.130
17210SOL    HW253463   0.348   5.509   7.042
17211SOL     OW53464  14.817  13.362  13.598
17211SOL    HW153465  14.826  13.437  13.657
17211SOL    HW253466  14.829  13.286  13.655
17212SOL     OW53467   6.636   8.321   0.112
17212SOL    HW153468   6.605   8.246   0.061
17212SOL    HW253469   6.730   8.324   0.096
17213SOL     OW53470   3.433   2.769  11.220
17213SOL    HW153471   3.368   2.745  11.154
17213SOL    HW253472   3.509   2.716  11.199
17214SOL     OW53473   9.629   2.465  11.692
17214SOL    HW153474   9.720   2.481  11.666
17214SOL    HW253475   9.608   2.536  11.752
17215SOL     OW53476   8.414  12.708   5.728
17215SOL    HW153477   8.437  12.800   5.741
17215SOL    HW253478   8.483  12.674   5.671
17216SOL     OW53479   5.694   3.626  11.450
17216SOL    HW153480   5.650   3.657  11.530
17216SOL    HW253481   5.744   3.549  11.479
17217SOL     OW53482  13.503  12.104  11.606
17217SOL    HW153483  13.551  12.175  11.650
17217SOL    HW253484  13.527  12.025  11.654
17218SOL     OW53485   6.877  10.371  12.345
17218SOL    HW153486   6.919  10.388  12.429
17218SOL    HW253487   6.920  10.431  12.284
17219SOL     OW53488   8.105  12.093  14.626
17219SOL    HW153489   8.135  12.088  14.535
17219SOL    HW253490   8.160  12.031  14.673
17220SOL     OW53491  12.980   1.504   5.598
17220SOL    HW153492  12.976   1.409   5.589
17220SOL    HW253493  13.072   1.526   5.580
17221SOL     OW53494   9.885  12.284   1.752
17221SOL    HW153495   9.841  12.201   1.768
17221SOL    HW253496   9.852  12.312   1.666
17222SOL     OW53497  13.287   7.695   1.175
17222SOL    HW153498  13.372   7.720   1.211
17222SOL    HW253499  13.288   7.600   1.175
17223SOL     OW53500   6.973  13.002  10.850
17223SOL    HW153501   7.020  13.081  10.878
17223SOL    HW253502   7.007  12.984  10.762
17224SOL     OW53503   2.973   6.771  13.022
17224SOL    HW153504   2.966   6.849  12.967
17224SOL    HW253505   3.063   6.741  13.010
17225SOL     OW53506   2.024   0.346  11.671
17225SOL    HW153507   2.014   0.430  11.716
17225SOL    HW253508   1.961   0.350  11.598
17226SOL     OW53509  10.052  13.384   5.634
17226SOL    HW153510   9.989  13.312   5.633
17226SOL    HW253511  10.013  13.452   5.580
17227SOL     OW53512   7.836  13.859  11.005
17227SOL    HW153513   7.851  13.939  10.956
17227SOL    HW253514   7.787  13.886  11.083
17228SOL     OW53515   9.764  10.690   8.594
17228SOL    HW153516   9.725  10.626   8.534
17228SOL    HW253517   9.725  10.774   8.569
17229SOL     OW53518   5.246   1.439   7.001
17229SOL    HW153519   5.291   1.468   7.080
17229SOL    HW253520   5.153   1.446   7.023
17230SOL     OW53521   5.956   0.141  13.633
17230SOL    HW153522   5.896   0.213  13.656
17230SOL    HW253523   6.018   0.137  13.706
17231SOL     OW53524   8.159   7.656   6.686
17231SOL    HW153525   8.099   7.693   6.750
17231SOL    HW253526   8.121   7.678   6.601
17232SOL     OW53527   7.690  12.560   4.250
17232SOL    HW153528   7.689  12.575   4.155
17232SOL    HW253529   7.781  12.542   4.271
17233SOL     OW53530   9.729   8.406   1.789
17233SOL    HW153531   9.782   8.326   1.790
17233SOL    HW253532   9.788   8.474   1.758
17234SOL     OW53533  12.364   1.059   2.535
17234SOL    HW153534  12.297   1.126   2.546
17234SOL    HW253535  12.400   1.046   2.623
17235SOL     OW53536   1.089  11.142   5.720
17235SOL    HW153537   1.017  11.175   5.666
17235SOL    HW253538   1.062  11.160   5.810
17236SOL     OW53539   7.238   0.793  10.922
17236SOL    HW153540   7.183   0.866  10.951
17236SOL    HW253541   7.257   0.812  10.830
17237SOL     OW53542   3.247   5.251  11.072
17237SOL    HW153543   3.203   5.232  11.155
17237SOL    HW253544   3.288   5.337  11.086
17238SOL     OW53545   0.513   8.913   2.060
17238SOL    HW153546   0.514   8.899   1.965
17238SOL    HW253547   0.450   8.850   2.093
17239SOL     OW53548  10.766   0.818   4.386
17239SOL    HW153549  10.767   0.913   4.387
17239SOL    HW253550  10.837   0.792   4.445
17240SOL     OW53551   7.702   0.847  10.482
17240SOL    HW153552   7.619   0.856  10.529
17240SOL    HW253553   7.678   0.860  10.390
17241SOL     OW53554   5.646  11.352   4.050
17241SOL    HW153555   5.681  11.376   3.964
17241SOL    HW253556   5.723  11.327   4.101
17242SOL     OW53557   9.586   1.770   2.755
17242SOL    HW153558   9.615   1.679   2.752
17242SOL    HW253559   9.560   1.791   2.666
17243SOL     OW53560  12.945   8.705   1.118
17243SOL    HW153561  12.956   8.785   1.066
17243SOL    HW253562  12.991   8.725   1.200
17244SOL     OW53563   5.216   8.880   2.825
17244SOL    HW153564   5.253   8.905   2.909
17244SOL    HW253565   5.136   8.833   2.847
17245SOL     OW53566   3.754  11.505   8.288
17245SOL    HW153567   3.838  11.535   8.321
17245SOL    HW253568   3.697  11.582   8.293
17246SOL     OW53569   2.924   9.562   5.615
17246SOL    HW153570   2.900   9.523   5.699
17246SOL    HW253571   2.887   9.503   5.550
17247SOL     OW53572  14.153   6.545   6.817
17247SOL    HW153573  14.143   6.481   6.747
17247SOL    HW253574  14.182   6.625   6.773
17248SOL     OW53575   4.046  12.722  12.110
17248SOL    HW153576   4.091  12.796  12.069
17248SOL    HW253577   4.114  12.676  12.159
17249SOL     OW53578   4.030   4.083   9.156
17249SOL    HW153579   4.110   4.110   9.201
17249SOL    HW253580   4.040   4.119   9.067
17250SOL     OW53581  11.503   2.881   1.647
17250SOL    HW153582  11.446   2.958   1.648
17250SOL    HW253583  11.465   2.824   1.580
17251SOL     OW53584  10.269   5.070   7.589
17251SOL    HW153585  10.250   4.976   7.580
17251SOL    HW253586  10.209   5.113   7.528
17252SOL     OW53587  12.405   5.923   6.212
17252SOL    HW153588  12.464   5.998   6.202
17252SOL    HW253589  12.355   5.921   6.131
17253SOL     OW53590   4.829   2.706   8.101
17253SOL    HW153591   4.836   2.789   8.053
17253SOL    HW253592   4.804   2.642   8.034
17254SOL     OW53593   1.384   7.278   9.821
17254SOL    HW153594   1.358   7.363   9.785
17254SOL    HW253595   1.369   7.217   9.749
17255SOL     OW53596  10.758   4.593  12.605
17255SOL    HW153597  10.789   4.667  12.656
17255SOL    HW253598  10.797   4.516  12.647
17256SOL     OW53599   0.305   6.421   2.038
17256SOL    HW153600   0.396   6.431   2.011
17256SOL    HW253601   0.266   6.363   1.972
17257SOL     OW53602  12.358  12.806   8.513
17257SOL    HW153603  12.368  12.847   8.599
17257SOL    HW253604  12.374  12.713   8.528
17258SOL     OW53605   3.630   3.811   0.943
17258SOL    HW153606   3.691   3.818   0.870
17258SOL    HW253607   3.686   3.818   1.021
17259SOL     OW53608   1.210   5.621  14.102
17259SOL    HW153609   1.134   5.648  14.154
17259SOL    HW253610   1.186   5.643  14.012
17260SOL     OW53611  10.323   1.463  12.478
17260SOL    HW153612  10.327   1.387  12.420
17260SOL    HW253613  10.291   1.428  12.561
17261SOL     OW53614   1.423   3.369   5.732
17261SOL    HW153615   1.489   3.423   5.774
17261SOL    HW253616   1.403   3.415   5.650
17262SOL     OW53617  12.544  11.508   5.805
17262SOL    HW153618  12.635  11.504   5.837
17262SOL    HW253619  12.500  11.436   5.850
17263SOL     OW53620  12.601   1.817   3.903
17263SOL    HW153621  12.560   1.759   3.968
17263SOL    HW253622  12.692   1.823   3.931
17264SOL     OW53623  14.513   8.523   6.976
17264SOL    HW153624  14.558   8.556   6.898
17264SOL    HW253625  14.549   8.436   6.991
17265SOL     OW53626  10.478   3.967   4.513
17265SOL    HW153627  10.409   3.991   4.451
17265SOL    HW253628  10.496   4.047   4.562
17266SOL     OW53629   0.485   1.920   3.173
17266SOL    HW153630   0.434   1.944   3.251
17266SOL    HW253631   0.428   1.944   3.099
17267SOL     OW53632   3.900   5.802  11.147
17267SOL    HW153633   3.985   5.767  11.172
17267SOL    HW253634   3.901   5.892  11.178
17268SOL     OW53635   3.233   0.542   1.145
17268SOL    HW153636   3.219   0.597   1.068
17268SOL    HW253637   3.156   0.556   1.199
17269SOL     OW53638   2.005  11.410   2.440
17269SOL    HW153639   2.098  11.411   2.465
17269SOL    HW253640   2.004  11.375   2.351
17270SOL     OW53641   3.837   4.751   5.531
17270SOL    HW153642   3.779   4.726   5.603
17270SOL    HW253643   3.918   4.778   5.574
17271SOL     OW53644   8.885  11.303   5.173
17271SOL    HW153645   8.807  11.338   5.131
17271SOL    HW253646   8.936  11.380   5.198
17272SOL     OW53647   9.775   4.912  11.913
17272SOL    HW153648   9.816   4.826  11.913
17272SOL    HW253649   9.817   4.959  11.985
17273SOL     OW53650   9.908   9.265  10.126
17273SOL    HW153651   9.846   9.329  10.092
17273SOL    HW253652   9.987   9.277  10.074
17274SOL     OW53653  10.469   1.534   0.607
17274SOL    HW153654  10.428   1.500   0.687
17274SOL    HW253655  10.553   1.489   0.603
17275SOL     OW53656   8.935   9.193   7.166
17275SOL    HW153657   8.895   9.120   7.118
17275SOL    HW253658   9.028   9.188   7.144
17276SOL     OW53659  10.064   2.012   9.878
17276SOL    HW153660  10.029   1.925   9.857
17276SOL    HW253661  10.127   1.996   9.948
17277SOL     OW53662   0.064   2.755  12.028
17277SOL    HW153663   0.159   2.747  12.014
17277SOL    HW253664   0.055   2.792  12.116
17278SOL     OW53665   7.411  11.743  10.436
17278SOL    HW153666   7.370  11.805  10.376
17278SOL    HW253667   7.361  11.663  10.426
17279SOL     OW53668   8.742   8.497   9.205
17279SOL    HW153669   8.764   8.514   9.113
17279SOL    HW253670   8.822   8.462   9.243
17280SOL     OW53671  10.081   9.077   9.625
17280SOL    HW153672  10.048   9.167   9.630
17280SOL    HW253673  10.170   9.086   9.592
17281SOL     OW53674   0.328   5.867   2.456
17281SOL    HW153675   0.382   5.829   2.524
17281SOL    HW253676   0.298   5.950   2.492
17282SOL     OW53677   0.687   6.136  13.013
17282SOL    HW153678   0.638   6.137  12.930
17282SOL    HW253679   0.741   6.215  13.009
17283SOL     OW53680  10.685   3.835   4.365
17283SOL    HW153681  10.645   3.837   4.452
17283SOL    HW253682  10.672   3.923   4.331
17284SOL     OW53683   5.185   1.326   6.123
17284SOL    HW153684   5.263   1.271   6.123
17284SOL    HW253685   5.208   1.399   6.181
17285SOL     OW53686   6.701   8.445  14.194
17285SOL    HW153687   6.684   8.435  14.100
17285SOL    HW253688   6.646   8.518  14.220
17286SOL     OW53689   2.726  10.003  10.305
17286SOL    HW153690   2.638  10.009  10.267
17286SOL    HW253691   2.743  10.091  10.339
17287SOL     OW53692   6.807   8.539   8.897
17287SOL    HW153693   6.875   8.590   8.853
17287SOL    HW253694   6.837   8.448   8.890
17288SOL     OW53695   8.326   7.716   7.144
17288SOL    HW153696   8.324   7.812   7.147
17288SOL    HW253697   8.236   7.689   7.160
17289SOL     OW53698  11.177   8.201   3.856
17289SOL    HW153699  11.141   8.185   3.768
17289SOL    HW253700  11.108   8.248   3.902
17290SOL     OW53701  11.402   9.358   7.863
17290SOL    HW153702  11.331   9.307   7.823
17290SOL    HW253703  11.467   9.367   7.794
17291SOL     OW53704  12.324  10.295   7.893
17291SOL    HW153705  12.289  10.283   7.981
17291SOL    HW253706  12.296  10.217   7.845
17292SOL     OW53707   8.985   6.558   4.109
17292SOL    HW153708   8.969   6.483   4.166
17292SOL    HW253709   8.999   6.631   4.169
17293SOL     OW53710   1.718  11.796  13.591
17293SOL    HW153711   1.690  11.867  13.648
17293SOL    HW253712   1.803  11.770  13.625
17294SOL     OW53713  11.029  14.706   8.048
17294SOL    HW153714  11.099  14.682   7.988
17294SOL    HW253715  11.044  14.799   8.067
17295SOL     OW53716   5.028   1.792   1.529
17295SOL    HW153717   5.070   1.706   1.520
17295SOL    HW253718   5.077   1.849   1.469
17296SOL     OW53719   1.725   4.742   3.466
17296SOL    HW153720   1.725   4.787   3.551
17296SOL    HW253721   1.637   4.704   3.459
17297SOL     OW53722   6.551  12.072  11.128
17297SOL    HW153723   6.635  12.114  11.109
17297SOL    HW253724   6.549  12.066  11.224
17298SOL     OW53725   8.446  10.694   5.991
17298SOL    HW153726   8.377  10.696   6.058
17298SOL    HW253727   8.522  10.656   6.036
17299SOL     OW53728   0.719  11.703   4.585
17299SOL    HW153729   0.707  11.608   4.591
17299SOL    HW253730   0.813  11.715   4.573
17300SOL     OW53731   3.485  14.585   1.794
17300SOL    HW153732   3.489  14.640   1.872
17300SOL    HW253733   3.487  14.495   1.828
17301SOL     OW53734  10.600   0.046  14.710
17301SOL    HW153735  10.644  14.880  14.639
17301SOL    HW253736  10.525  14.872  14.732
17302SOL     OW53737   1.424   3.732  11.350
17302SOL    HW153738   1.497   3.671  11.349
17302SOL    HW253739   1.371   3.706  11.274
17303SOL     OW53740   7.551   4.089   1.008
17303SOL    HW153741   7.565   3.995   1.012
17303SOL    HW253742   7.558   4.110   0.915
17304SOL     OW53743   4.067  13.378   9.403
17304SOL    HW153744   3.983  13.333   9.396
17304SOL    HW253745   4.113  13.354   9.322
17305SOL     OW53746  14.363  13.007   4.267
17305SOL    HW153747  14.278  13.006   4.311
17305SOL    HW253748  14.384  13.100   4.259
17306SOL     OW53749   4.394   0.516  14.416
17306SOL    HW153750   4.314   0.520  14.468
17306SOL    HW253751   4.441   0.597  14.435
17307SOL     OW53752   5.214   2.644   9.226
17307SOL    HW153753   5.119   2.632   9.225
17307SOL    HW253754   5.249   2.558   9.203
17308SOL     OW53755   2.595   2.938   4.385
17308SOL    HW153756   2.544   2.895   4.454
17308SOL    HW253757   2.671   2.974   4.429
17309SOL     OW53758   8.811  12.201   1.960
17309SOL    HW153759   8.832  12.143   1.887
17309SOL    HW253760   8.723  12.175   1.986
17310SOL     OW53761   0.793  11.325   8.418
17310SOL    HW153762   0.831  11.366   8.340
17310SOL    HW253763   0.699  11.342   8.410
17311SOL     OW53764   2.695  10.409  11.868
17311SOL    HW153765   2.746  10.346  11.919
17311SOL    HW253766   2.609  10.369  11.859
17312SOL     OW53767   1.340  14.747   5.186
17312SOL    HW153768   1.320  14.770   5.095
17312SOL    HW253769   1.319  14.826   5.236
17313SOL     OW53770  13.484   4.963  12.540
17313SOL    HW153771  13.541   5.039  12.537
17313SOL    HW253772  13.408   4.992  12.591
17314SOL     OW53773   8.245   2.728   0.951
17314SOL    HW153774   8.277   2.817   0.965
17314SOL    HW253775   8.155   2.729   0.983
17315SOL     OW53776   6.028   2.112  12.099
17315SOL    HW153777   6.038   2.145  12.189
17315SOL    HW253778   6.099   2.048  12.090
17316SOL     OW53779   7.715   7.452   0.007
17316SOL    HW153780   7.633   7.407  14.866
17316SOL    HW253781   7.732   7.509  14.814
17317SOL     OW53782  11.748   8.305  14.858
17317SOL    HW153783  11.688   8.330  14.787
17317SOL    HW253784  11.705   8.335   0.056
17318SOL     OW53785  14.136   5.090  12.124
17318SOL    HW153786  14.115   5.168  12.073
17318SOL    HW253787  14.225   5.067  12.098
17319SOL     OW53788   7.528   4.981   9.480
17319SOL    HW153789   7.596   4.948   9.538
17319SOL    HW253790   7.528   5.076   9.495
17320SOL     OW53791  10.369  14.189  12.389
17320SOL    HW153792  10.451  14.177  12.436
17320SOL    HW253793  10.385  14.152  12.302
17321SOL     OW53794   1.383  13.315   7.806
17321SOL    HW153795   1.338  13.399   7.797
17321SOL    HW253796   1.475  13.335   7.791
17322SOL     OW53797   0.483   3.781   8.704
17322SOL    HW153798   0.452   3.691   8.697
17322SOL    HW253799   0.550   3.789   8.636
17323SOL     OW53800   3.287  14.409  11.673
17323SOL    HW153801   3.242  14.356  11.608
17323SOL    HW253802   3.340  14.470  11.621
17324SOL     OW53803   9.174   7.541  12.346
17324SOL    HW153804   9.186   7.507  12.258
17324SOL    HW253805   9.215   7.628  12.344
17325SOL     OW53806   2.291   7.583   3.281
17325SOL    HW153807   2.366   7.541   3.322
17325SOL    HW253808   2.277   7.534   3.200
17326SOL     OW53809  10.249   0.389   4.260
17326SOL    HW153810  10.336   0.357   4.235
17326SOL    HW253811  10.263   0.431   4.345
17327SOL     OW53812   6.866  14.228  13.112
17327SOL    HW153813   6.883  14.185  13.196
17327SOL    HW253814   6.773  14.210  13.094
17328SOL     OW53815   6.572   7.336   1.752
17328SOL    HW153816   6.591   7.419   1.796
17328SOL    HW253817   6.590   7.269   1.818
17329SOL     OW53818   8.001   9.817   1.695
17329SOL    HW153819   8.006   9.912   1.684
17329SOL    HW253820   7.960   9.785   1.614
17330SOL     OW53821   6.455   3.217   1.686
17330SOL    HW153822   6.465   3.222   1.781
17330SOL    HW253823   6.468   3.307   1.655
17331SOL     OW53824   4.663   8.602   7.285
17331SOL    HW153825   4.751   8.638   7.282
17331SOL    HW253826   4.634   8.600   7.194
17332SOL     OW53827   5.649   2.772   8.381
17332SOL    HW153828   5.569   2.722   8.394
17332SOL    HW253829   5.666   2.767   8.286
17333SOL     OW53830   2.848   6.815  10.638
17333SOL    HW153831   2.848   6.909  10.658
17333SOL    HW253832   2.756   6.792  10.629
17334SOL     OW53833  11.325   1.682   9.556
17334SOL    HW153834  11.308   1.694   9.649
17334SOL    HW253835  11.327   1.771   9.521
17335SOL     OW53836   2.448   4.256   0.027
17335SOL    HW153837   2.534   4.249  14.866
17335SOL    HW253838   2.386   4.224  14.844
17336SOL     OW53839   0.797   3.961   6.591
17336SOL    HW153840   0.766   3.890   6.647
17336SOL    HW253841   0.893   3.952   6.590
17337SOL     OW53842   9.889  13.823   8.938
17337SOL    HW153843   9.879  13.871   9.020
17337SOL    HW253844   9.877  13.890   8.870
17338SOL     OW53845  10.655  12.508  11.115
17338SOL    HW153846  10.680  12.568  11.185
17338SOL    HW253847  10.663  12.421  11.154
17339SOL     OW53848  11.387  11.132  13.614
17339SOL    HW153849  11.429  11.056  13.654
17339SOL    HW253850  11.391  11.200  13.682
17340SOL     OW53851   5.398   1.277  10.624
17340SOL    HW153852   5.424   1.190  10.654
17340SOL    HW253853   5.357   1.317  10.701
17341SOL     OW53854   7.944   5.898  13.756
17341SOL    HW153855   8.029   5.941  13.750
17341SOL    HW253856   7.964   5.805  13.765
17342SOL     OW53857  13.106   3.537  11.246
17342SOL    HW153858  13.090   3.450  11.284
17342SOL    HW253859  13.193   3.561  11.278
17343SOL     OW53860   2.555  12.431   6.611
17343SOL    HW153861   2.567  12.403   6.702
17343SOL    HW253862   2.477  12.487   6.613
17344SOL     OW53863   9.235  13.315   4.711
17344SOL    HW153864   9.158  13.262   4.729
17344SOL    HW253865   9.201  13.399   4.679
17345SOL     OW53866   6.047   7.499   9.495
17345SOL    HW153867   6.130   7.451   9.502
17345SOL    HW253868   6.033   7.509   9.401
17346SOL     OW53869   4.818   7.112   5.160
17346SOL    HW153870   4.883   7.107   5.089
17346SOL    HW253871   4.781   7.024   5.164
17347SOL     OW53872   1.947  14.007   3.995
17347SOL    HW153873   1.891  13.990   3.918
17347SOL    HW253874   2.022  13.949   3.983
17348SOL     OW53875   7.472   1.690   0.929
17348SOL    HW153876   7.519   1.622   0.977
17348SOL    HW253877   7.538   1.755   0.907
17349SOL     OW53878   6.267   6.299  10.061
17349SOL    HW153879   6.294   6.246  10.136
17349SOL    HW253880   6.187   6.257  10.029
17350SOL     OW53881   2.195   9.850  11.103
17350SOL    HW153882   2.201   9.901  11.022
17350SOL    HW253883   2.144   9.905  11.163
17351SOL     OW53884   0.260   9.570  14.624
17351SOL    HW153885   0.215   9.509  14.682
17351SOL    HW253886   0.309   9.514  14.563
17352SOL     OW53887   0.690   8.402   0.558
17352SOL    HW153888   0.734   8.340   0.616
17352SOL    HW253889   0.721   8.488   0.587
17353SOL     OW53890   1.548  14.087   7.605
17353SOL    HW153891   1.550  14.121   7.694
17353SOL    HW253892   1.579  14.160   7.551
17354SOL     OW53893   6.730   0.603   1.187
17354SOL    HW153894   6.674   0.680   1.189
17354SOL    HW253895   6.720   0.564   1.274
17355SOL     OW53896   3.311  11.808   8.821
17355SOL    HW153897   3.229  11.832   8.780
17355SOL    HW253898   3.329  11.879   8.883
17356SOL     OW53899  10.630   6.272   3.285
17356SOL    HW153900  10.559   6.280   3.349
17356SOL    HW253901  10.590   6.229   3.209
17357SOL     OW53902   7.340  11.790   0.767
17357SOL    HW153903   7.332  11.773   0.673
17357SOL    HW253904   7.267  11.848   0.787
17358SOL     OW53905   5.109   2.980   2.597
17358SOL    HW153906   5.117   3.067   2.636
17358SOL    HW253907   5.171   2.982   2.523
17359SOL     OW53908   2.500   1.904  12.995
17359SOL    HW153909   2.489   1.977  13.056
17359SOL    HW253910   2.572   1.853  13.032
17360SOL     OW53911  10.067  14.133   9.531
17360SOL    HW153912  10.028  14.089   9.607
17360SOL    HW253913  10.143  14.179   9.567
17361SOL     OW53914   5.004   0.973   4.548
17361SOL    HW153915   4.909   0.981   4.553
17361SOL    HW253916   5.031   1.043   4.489
17362SOL     OW53917   4.173   8.701   0.366
17362SOL    HW153918   4.133   8.740   0.289
17362SOL    HW253919   4.267   8.712   0.351
17363SOL     OW53920  11.188  12.361   2.436
17363SOL    HW153921  11.261  12.352   2.374
17363SOL    HW253922  11.206  12.444   2.481
17364SOL     OW53923  11.214  13.223  13.167
17364SOL    HW153924  11.181  13.139  13.198
17364SOL    HW253925  11.265  13.257  13.240
17365SOL     OW53926  12.200  12.212  14.463
17365SOL    HW153927  12.106  12.221  14.479
17365SOL    HW253928  12.221  12.282  14.401
17366SOL     OW53929  12.138   6.666   0.145
17366SOL    HW153930  12.218   6.614   0.140
17366SOL    HW253931  12.067   6.603   0.128
17367SOL     OW53932   1.070   9.278   3.736
17367SOL    HW153933   1.002   9.344   3.721
17367SOL    HW253934   1.070   9.264   3.830
17368SOL     OW53935   7.375   3.742  13.712
17368SOL    HW153936   7.304   3.799  13.741
17368SOL    HW253937   7.354   3.656  13.748
17369SOL     OW53938   8.838   1.632   1.869
17369SOL    HW153939   8.855   1.561   1.807
17369SOL    HW253940   8.900   1.616   1.940
17370SOL     OW53941   3.800   6.592   9.161
17370SOL    HW153942   3.743   6.558   9.093
17370SOL    HW253943   3.885   6.605   9.118
17371SOL     OW53944   6.192   0.272   8.706
17371SOL    HW153945   6.217   0.299   8.618
17371SOL    HW253946   6.111   0.320   8.724
17372SOL     OW53947   2.501  11.775   6.903
17372SOL    HW153948   2.568  11.708   6.889
17372SOL    HW253949   2.487  11.814   6.817
17373SOL     OW53950   8.875   3.358   1.973
17373SOL    HW153951   8.816   3.386   2.043
17373SOL    HW253952   8.832   3.384   1.892
17374SOL     OW53953  10.911  11.451  12.395
17374SOL    HW153954  10.904  11.390  12.322
17374SOL    HW253955  10.889  11.399  12.472
17375SOL     OW53956   0.421   4.259   2.283
17375SOL    HW153957   0.445   4.213   2.363
17375SOL    HW253958   0.501   4.305   2.257
17376SOL     OW53959   2.430  13.765   1.608
17376SOL    HW153960   2.403  13.699   1.672
17376SOL    HW253961   2.367  13.836   1.619
17377SOL     OW53962   6.858  10.381  11.429
17377SOL    HW153963   6.802  10.304  11.421
17377SOL    HW253964   6.826  10.425  11.508
17378SOL     OW53965   9.897  11.731   7.792
17378SOL    HW153966   9.897  11.654   7.736
17378SOL    HW253967   9.810  11.769   7.781
17379SOL     OW53968  10.853  11.202   2.487
17379SOL    HW153969  10.777  11.158   2.448
17379SOL    HW253970  10.905  11.130   2.524
17380SOL     OW53971   6.233   4.278   3.559
17380SOL    HW153972   6.255   4.185   3.562
17380SOL    HW253973   6.235   4.306   3.650
17381SOL     OW53974   5.194  13.960   4.865
17381SOL    HW153975   5.223  14.049   4.845
17381SOL    HW253976   5.112  13.972   4.913
17382SOL     OW53977   9.570  13.647  11.291
17382SOL    HW153978   9.483  13.614  11.268
17382SOL    HW253979   9.580  13.728  11.240
17383SOL     OW53980  13.594   1.988   5.608
17383SOL    HW153981  13.690   1.987   5.607
17383SOL    HW253982  13.570   2.071   5.565
17384SOL     OW53983  12.955   7.780   3.329
17384SOL    HW153984  12.961   7.805   3.421
17384SOL    HW253985  12.898   7.845   3.290
17385SOL     OW53986   9.119   3.416   7.607
17385SOL    HW153987   9.180   3.475   7.562
17385SOL    HW253988   9.171   3.377   7.678
17386SOL     OW53989   3.641   5.027  10.842
17386SOL    HW153990   3.631   5.111  10.888
17386SOL    HW253991   3.588   5.037  10.763
17387SOL     OW53992   4.682   7.789   8.152
17387SOL    HW153993   4.644   7.758   8.235
17387SOL    HW253994   4.693   7.883   8.164
17388SOL     OW53995   6.650   4.006   7.891
17388SOL    HW153996   6.735   3.972   7.916
17388SOL    HW253997   6.645   3.990   7.796
17389SOL     OW53998  10.078   6.152   0.394
17389SOL    HW153999  10.012   6.083   0.385
17389SOL    HW254000  10.136   6.140   0.319
17390SOL     OW54001   6.907  11.828   4.787
17390SOL    HW154002   6.974  11.878   4.834
17390SOL    HW254003   6.877  11.888   4.719
17391SOL     OW54004   9.435  13.122  14.442
17391SOL    HW154005   9.488  13.166  14.375
17391SOL    HW254006   9.435  13.030  14.415
17392SOL     OW54007   0.207  10.645   9.371
17392SOL    HW154008   0.163  10.716   9.323
17392SOL    HW254009   0.194  10.666   9.463
17393SOL     OW54010   7.232  10.953   7.549
17393SOL    HW154011   7.146  10.917   7.524
17393SOL    HW254012   7.262  10.895   7.619
17394SOL     OW54013   2.072   2.855   9.327
17394SOL    HW154014   2.012   2.847   9.401
17394SOL    HW254015   2.033   2.801   9.258
17395SOL     OW54016  14.833  11.112   1.889
17395SOL    HW154017   0.045  11.124   1.874
17395SOL    HW254018  14.828  11.072   1.976
17396SOL     OW54019   0.394   2.856  11.335
17396SOL    HW154020   0.443   2.804  11.271
17396SOL    HW254021   0.444   2.937  11.343
17397SOL     OW54022  13.290  10.925   9.100
17397SOL    HW154023  13.290  10.891   9.010
17397SOL    HW254024  13.236  10.864   9.149
17398SOL     OW54025  11.501  13.068   7.171
17398SOL    HW154026  11.517  12.987   7.124
17398SOL    HW254027  11.493  13.041   7.263
17399SOL     OW54028  12.015   0.988   7.953
17399SOL    HW154029  12.017   1.066   8.010
17399SOL    HW254030  11.980   1.020   7.870
17400SOL     OW54031   8.387  14.541   3.334
17400SOL    HW154032   8.297  14.525   3.306
17400SOL    HW254033   8.417  14.613   3.279
17401SOL     OW54034   4.963  13.943   8.595
17401SOL    HW154035   4.915  13.977   8.670
17401SOL    HW254036   4.895  13.910   8.536
17402SOL     OW54037   1.530   3.566  12.973
17402SOL    HW154038   1.487   3.522  13.046
17402SOL    HW254039   1.526   3.659  12.995
17403SOL     OW54040   5.692   7.774   6.419
17403SOL    HW154041   5.713   7.691   6.376
17403SOL    HW254042   5.763   7.833   6.393
17404SOL     OW54043  13.874  12.312  10.548
17404SOL    HW154044  13.779  12.312  10.534
17404SOL    HW254045  13.895  12.404  10.565
17405SOL     OW54046   4.214   2.446   8.236
17405SOL    HW154047   4.125   2.428   8.207
17405SOL    HW254048   4.226   2.389   8.312
17406SOL     OW54049  11.830  14.377  13.239
17406SOL    HW154050  11.787  14.456  13.204
17406SOL    HW254051  11.768  14.306  13.221
17407SOL     OW54052   0.882   1.749   8.763
17407SOL    HW154053   0.895   1.818   8.698
17407SOL    HW254054   0.959   1.693   8.755
17408SOL     OW54055   9.090  12.562   1.663
17408SOL    HW154056   8.997  12.586   1.657
17408SOL    HW254057   9.113  12.580   1.754
17409SOL     OW54058  10.279  10.900   0.398
17409SOL    HW154059  10.290  10.838   0.326
17409SOL    HW254060  10.283  10.986   0.357
17410SOL     OW54061   6.452  13.858   7.622
17410SOL    HW154062   6.358  13.852   7.640
17410SOL    HW254063   6.464  13.805   7.543
17411SOL     OW54064   9.288   0.304  11.757
17411SOL    HW154065   9.321   0.223  11.794
17411SOL    HW254066   9.360   0.366  11.768
17412SOL     OW54067   3.423   3.611   2.918
17412SOL    HW154068   3.377   3.540   2.961
17412SOL    HW254069   3.433   3.582   2.827
17413SOL     OW54070   4.285   2.836   7.957
17413SOL    HW154071   4.332   2.773   7.902
17413SOL    HW254072   4.354   2.883   8.004
17414SOL     OW54073   4.883   2.515  13.886
17414SOL    HW154074   4.845   2.476  13.965
17414SOL    HW254075   4.971   2.542  13.913
17415SOL     OW54076   7.100  12.728   2.055
17415SOL    HW154077   7.011  12.708   2.024
17415SOL    HW254078   7.107  12.823   2.048
17416SOL     OW54079  11.101   1.124   4.232
17416SOL    HW154080  11.174   1.073   4.197
17416SOL    HW254081  11.119   1.129   4.326
17417SOL     OW54082   9.725   0.508  11.335
17417SOL    HW154083   9.647   0.560  11.314
17417SOL    HW254084   9.702   0.418  11.311
17418SOL     OW54085   8.043   6.126   3.320
17418SOL    HW154086   8.116   6.163   3.369
17418SOL    HW254087   8.039   6.035   3.349
17419SOL     OW54088  14.377   2.991  12.018
17419SOL    HW154089  14.310   3.054  11.993
17419SOL    HW254090  14.448   3.006  11.956
17420SOL     OW54091   6.798   6.097   5.960
17420SOL    HW154092   6.833   6.008   5.958
17420SOL    HW254093   6.755   6.104   6.045
17421SOL     OW54094   6.141  12.765   8.237
17421SOL    HW154095   6.135  12.800   8.149
17421SOL    HW254096   6.140  12.670   8.226
17422SOL     OW54097  14.003   3.103   2.723
17422SOL    HW154098  14.090   3.108   2.763
17422SOL    HW254099  14.020   3.074   2.633
17423SOL     OW54100   7.067  12.083   3.103
17423SOL    HW154101   7.157  12.107   3.125
17423SOL    HW254102   7.054  11.999   3.147
17424SOL     OW54103   9.167   7.909   3.008
17424SOL    HW154104   9.249   7.861   3.011
17424SOL    HW254105   9.122   7.874   2.931
17425SOL     OW54106  12.866  11.352  12.035
17425SOL    HW154107  12.792  11.409  12.053
17425SOL    HW254108  12.842  11.306  11.955
17426SOL     OW54109   9.150   1.446  13.197
17426SOL    HW154110   9.201   1.474  13.121
17426SOL    HW254111   9.099   1.371  13.166
17427SOL     OW54112   5.150  11.880   9.003
17427SOL    HW154113   5.082  11.946   8.995
17427SOL    HW254114   5.206  11.911   9.075
17428SOL     OW54115   7.663   2.521  13.614
17428SOL    HW154116   7.626   2.602  13.649
17428SOL    HW254117   7.592   2.457  13.622
17429SOL     OW54118   0.257   2.375   7.557
17429SOL    HW154119   0.201   2.332   7.492
17429SOL    HW254120   0.295   2.449   7.510
17430SOL     OW54121  12.021   4.721   1.835
17430SOL    HW154122  11.970   4.764   1.904
17430SOL    HW254123  11.956   4.693   1.771
17431SOL     OW54124   3.924   3.816   3.004
17431SOL    HW154125   3.832   3.817   2.977
17431SOL    HW254126   3.963   3.889   2.957
17432SOL     OW54127   1.685   7.950   8.198
17432SOL    HW154128   1.716   8.012   8.264
17432SOL    HW254129   1.594   7.933   8.222
17433SOL     OW54130   2.234   9.090   8.621
17433SOL    HW154131   2.288   9.074   8.699
17433SOL    HW254132   2.160   9.031   8.630
17434SOL     OW54133   3.904   2.395   6.707
17434SOL    HW154134   3.857   2.478   6.713
17434SOL    HW254135   3.942   2.394   6.619
17435SOL     OW54136  12.971   6.127  11.279
17435SOL    HW154137  12.959   6.183  11.202
17435SOL    HW254138  13.018   6.050  11.245
17436SOL     OW54139   1.505  13.068   8.545
17436SOL    HW154140   1.479  13.010   8.473
17436SOL    HW254141   1.544  13.143   8.501
17437SOL     OW54142  13.332  11.784  11.670
17437SOL    HW154143  13.290  11.841  11.604
17437SOL    HW254144  13.415  11.827  11.689
17438SOL     OW54145  14.668   7.400  14.695
17438SOL    HW154146  14.744   7.457  14.710
17438SOL    HW254147  14.602   7.430  14.757
17439SOL     OW54148   3.048  10.397   8.190
17439SOL    HW154149   3.110  10.465   8.215
17439SOL    HW254150   3.013  10.425   8.105
17440SOL     OW54151   4.121   6.249   1.825
17440SOL    HW154152   4.107   6.186   1.754
17440SOL    HW254153   4.202   6.219   1.868
17441SOL     OW54154   6.070   3.446   3.302
17441SOL    HW154155   5.981   3.415   3.321
17441SOL    HW254156   6.095   3.399   3.223
17442SOL     OW54157  14.399  14.135   3.916
17442SOL    HW154158  14.370  14.048   3.942
17442SOL    HW254159  14.491  14.138   3.941
17443SOL     OW54160  12.070   8.415   9.168
17443SOL    HW154161  12.155   8.444   9.200
17443SOL    HW254162  12.014   8.493   9.172
17444SOL     OW54163   7.182   7.425   4.996
17444SOL    HW154164   7.222   7.443   5.081
17444SOL    HW254165   7.171   7.330   4.994
17445SOL     OW54166   0.941   6.612  14.420
17445SOL    HW154167   0.959   6.599  14.327
17445SOL    HW254168   0.956   6.705  14.435
17446SOL     OW54169   0.052   4.272   7.888
17446SOL    HW154170   0.071   4.183   7.857
17446SOL    HW254171   0.056   4.264   7.983
17447SOL     OW54172   6.680   6.371   9.467
17447SOL    HW154173   6.671   6.401   9.376
17447SOL    HW254174   6.727   6.442   9.511
17448SOL     OW54175   4.921   4.241  14.282
17448SOL    HW154176   4.826   4.232  14.279
17448SOL    HW254177   4.944   4.284  14.200
17449SOL     OW54178  11.269   0.889   5.913
17449SOL    HW154179  11.343   0.828   5.912
17449SOL    HW254180  11.288   0.952   5.844
17450SOL     OW54181  11.747   4.488   6.753
17450SOL    HW154182  11.663   4.508   6.714
17450SOL    HW254183  11.808   4.486   6.679
17451SOL     OW54184   2.161   5.487   1.730
17451SOL    HW154185   2.207   5.569   1.715
17451SOL    HW254186   2.156   5.479   1.826
17452SOL     OW54187   9.418   3.728   5.227
17452SOL    HW154188   9.451   3.641   5.206
17452SOL    HW254189   9.489   3.787   5.204
17453SOL     OW54190   4.440  10.108  13.470
17453SOL    HW154191   4.429  10.041  13.536
17453SOL    HW254192   4.447  10.060  13.387
17454SOL     OW54193   9.566   8.063   3.103
17454SOL    HW154194   9.592   7.971   3.112
17454SOL    HW254195   9.633   8.112   3.151
17455SOL     OW54196  14.123  12.283   3.675
17455SOL    HW154197  14.203  12.270   3.725
17455SOL    HW254198  14.055  12.297   3.741
17456SOL     OW54199   1.464   1.496   3.003
17456SOL    HW154200   1.505   1.573   2.963
17456SOL    HW254201   1.532   1.460   3.061
17457SOL     OW54202   9.380   6.119   6.781
17457SOL    HW154203   9.329   6.166   6.847
17457SOL    HW254204   9.401   6.186   6.716
17458SOL     OW54205  10.369   1.939   3.986
17458SOL    HW154206  10.454   1.908   3.955
17458SOL    HW254207  10.332   1.865   4.034
17459SOL     OW54208   6.200  11.852   5.197
17459SOL    HW154209   6.272  11.907   5.166
17459SOL    HW254210   6.235  11.808   5.274
17460SOL     OW54211   2.020   6.914   1.775
17460SOL    HW154212   2.009   6.819   1.788
17460SOL    HW254213   2.059   6.945   1.857
17461SOL     OW54214   2.706   7.326  13.440
17461SOL    HW154215   2.779   7.296  13.386
17461SOL    HW254216   2.652   7.378  13.381
17462SOL     OW54217   5.990   4.670   3.120
17462SOL    HW154218   5.942   4.588   3.129
17462SOL    HW254219   5.933   4.726   3.067
17463SOL     OW54220   3.202   1.856   2.011
17463SOL    HW154221   3.223   1.946   2.034
17463SOL    HW254222   3.160   1.862   1.925
17464SOL     OW54223   3.090   9.288  11.984
17464SOL    HW154224   3.025   9.277  12.053
17464SOL    HW254225   3.152   9.352  12.020
17465SOL     OW54226   7.058  11.397   8.283
17465SOL    HW154227   7.009  11.336   8.227
17465SOL    HW254228   7.106  11.453   8.222
17466SOL     OW54229  13.956   4.965  11.778
17466SOL    HW154230  13.880   5.023  11.784
17466SOL    HW254231  13.922   4.878  11.799
17467SOL     OW54232  13.132  11.430   8.658
17467SOL    HW154233  13.171  11.372   8.592
17467SOL    HW254234  13.117  11.512   8.612
17468SOL     OW54235  13.838   1.817  14.398
17468SOL    HW154236  13.795   1.825  14.483
17468SOL    HW254237  13.931   1.816  14.418
17469SOL     OW54238  14.178   7.141   6.930
17469SOL    HW154239  14.156   7.154   6.838
17469SOL    HW254240  14.101   7.171   6.978
17470SOL     OW54241   6.884   7.313  12.520
17470SOL    HW154242   6.913   7.287  12.607
17470SOL    HW254243   6.883   7.409  12.523
17471SOL     OW54244   9.901   5.929   0.375
17471SOL    HW154245   9.808   5.942   0.357
17471SOL    HW254246   9.909   5.837   0.398
17472SOL     OW54247   2.784   3.677   9.631
17472SOL    HW154248   2.839   3.739   9.679
17472SOL    HW254249   2.727   3.639   9.697
17473SOL     OW54250   5.341  13.255   6.528
17473SOL    HW154251   5.399  13.218   6.460
17473SOL    HW254252   5.258  13.209   6.514
17474SOL     OW54253   9.245   4.266   6.004
17474SOL    HW154254   9.229   4.303   6.091
17474SOL    HW254255   9.294   4.185   6.021
17475SOL     OW54256   0.046   8.532   5.167
17475SOL    HW154257   0.038   8.460   5.229
17475SOL    HW254258  14.837   8.553   5.143
17476SOL     OW54259   8.376   2.647   7.406
17476SOL    HW154260   8.293   2.602   7.387
17476SOL    HW254261   8.400   2.618   7.493
17477SOL     OW54262   6.352   5.152  13.672
17477SOL    HW154263   6.375   5.218  13.606
17477SOL    HW254264   6.374   5.068  13.630
17478SOL     OW54265   0.980   2.041   1.035
17478SOL    HW154266   1.048   2.102   1.063
17478SOL    HW254267   0.898   2.079   1.065
17479SOL     OW54268   8.712   2.684   4.183
17479SOL    HW154269   8.683   2.593   4.188
17479SOL    HW254270   8.632   2.736   4.179
17480SOL     OW54271  14.750   6.480   8.052
17480SOL    HW154272  14.712   6.517   7.972
17480SOL    HW254273  14.815   6.545   8.080
17481SOL     OW54274   6.808   5.118  10.770
17481SOL    HW154275   6.720   5.155  10.777
17481SOL    HW254276   6.795   5.023  10.773
17482SOL     OW54277   5.056   3.240  13.457
17482SOL    HW154278   5.027   3.196  13.537
17482SOL    HW254279   5.124   3.183  13.421
17483SOL     OW54280   3.118  11.885   8.622
17483SOL    HW154281   3.030  11.870   8.655
17483SOL    HW254282   3.107  11.952   8.555
17484SOL     OW54283   8.717   2.378  14.862
17484SOL    HW154284   8.710   2.324   0.059
17484SOL    HW254285   8.627   2.397  14.838
17485SOL     OW54286   3.236  10.905   9.404
17485SOL    HW154287   3.289  10.885   9.327
17485SOL    HW254288   3.234  10.822   9.453
17486SOL     OW54289   1.443   5.169   3.314
17486SOL    HW154290   1.463   5.093   3.260
17486SOL    HW254291   1.378   5.137   3.377
17487SOL     OW54292  14.592  10.293   0.541
17487SOL    HW154293  14.673  10.256   0.575
17487SOL    HW254294  14.570  10.239   0.465
17488SOL     OW54295  11.919   0.448   2.289
17488SOL    HW154296  11.869   0.529   2.289
17488SOL    HW254297  12.006   0.473   2.261
17489SOL     OW54298   6.098   7.624   4.178
17489SOL    HW154299   6.188   7.655   4.163
17489SOL    HW254300   6.078   7.651   4.267
17490SOL     OW54301   5.714   2.606   4.419
17490SOL    HW154302   5.620   2.619   4.407
17490SOL    HW254303   5.754   2.647   4.343
17491SOL     OW54304  11.770   9.098   1.636
17491SOL    HW154305  11.835   9.140   1.579
17491SOL    HW254306  11.742   9.167   1.696
17492SOL     OW54307  11.690  14.230   6.041
17492SOL    HW154308  11.621  14.274   5.992
17492SOL    HW254309  11.768  14.284   6.027
17493SOL     OW54310  12.731   6.323   3.565
17493SOL    HW154311  12.718   6.252   3.502
17493SOL    HW254312  12.735   6.279   3.650
17494SOL     OW54313   4.685   7.195   7.964
17494SOL    HW154314   4.673   7.100   7.951
17494SOL    HW254315   4.676   7.207   8.059
17495SOL     OW54316   4.179  11.835   7.938
17495SOL    HW154317   4.131  11.784   7.873
17495SOL    HW254318   4.231  11.770   7.986
17496SOL     OW54319   3.320  11.030  13.148
17496SOL    HW154320   3.341  10.965  13.081
17496SOL    HW254321   3.256  11.087  13.107
17497SOL     OW54322   8.734   0.149  13.059
17497SOL    HW154323   8.719   0.057  13.040
17497SOL    HW254324   8.812   0.149  13.115
17498SOL     OW54325   2.819   7.081  10.737
17498SOL    HW154326   2.860   7.119  10.814
17498SOL    HW254327   2.727   7.106  10.744
17499SOL     OW54328  11.818  12.267  10.843
17499SOL    HW154329  11.793  12.357  10.820
17499SOL    HW254330  11.835  12.225  10.759
17500SOL     OW54331  11.162   5.741   2.821
17500SOL    HW154332  11.245   5.747   2.775
17500SOL    HW254333  11.108   5.809   2.782
17501SOL     OW54334   7.335   0.488   7.182
17501SOL    HW154335   7.347   0.464   7.274
17501SOL    HW254336   7.245   0.463   7.162
17502SOL     OW54337  12.021   8.214   9.336
17502SOL    HW154338  12.081   8.147   9.304
17502SOL    HW254339  12.017   8.278   9.265
17503SOL     OW54340   8.426  13.418  11.775
17503SOL    HW154341   8.370  13.414  11.698
17503SOL    HW254342   8.510  13.382  11.746
17504SOL     OW54343  11.243   1.897   8.799
17504SOL    HW154344  11.185   1.973   8.801
17504SOL    HW254345  11.186   1.822   8.811
17505SOL     OW54346   3.860  12.565   6.199
17505SOL    HW154347   3.930  12.630   6.187
17505SOL    HW254348   3.870  12.505   6.125
17506SOL     OW54349   1.379   9.679   3.671
17506SOL    HW154350   1.394   9.723   3.755
17506SOL    HW254351   1.335   9.597   3.695
17507SOL     OW54352   2.119  12.658   0.370
17507SOL    HW154353   2.119  12.590   0.438
17507SOL    HW254354   2.145  12.611   0.291
17508SOL     OW54355   8.496   3.953   9.666
17508SOL    HW154356   8.449   4.028   9.702
17508SOL    HW254357   8.508   3.894   9.740
17509SOL     OW54358   8.807   0.724  10.444
17509SOL    HW154359   8.719   0.734  10.482
17509SOL    HW254360   8.826   0.631  10.455
17510SOL     OW54361   2.945  11.183   3.010
17510SOL    HW154362   2.877  11.153   3.070
17510SOL    HW254363   2.996  11.245   3.061
17511SOL     OW54364   4.245  11.222   5.533
17511SOL    HW154365   4.196  11.304   5.537
17511SOL    HW254366   4.202  11.166   5.599
17512SOL     OW54367   9.619   2.708  11.881
17512SOL    HW154368   9.541   2.662  11.912
17512SOL    HW254369   9.588   2.796  11.859
17513SOL     OW54370  14.271   7.293   6.296
17513SOL    HW154371  14.188   7.313   6.253
17513SOL    HW254372  14.326   7.369   6.277
17514SOL     OW54373   6.997   3.542   6.829
17514SOL    HW154374   7.041   3.488   6.894
17514SOL    HW254375   6.916   3.570   6.872
17515SOL     OW54376   7.017   4.007   0.114
17515SOL    HW154377   7.108   3.987   0.136
17515SOL    HW254378   7.002   4.093   0.152
17516SOL     OW54379  13.068  10.916   3.046
17516SOL    HW154380  13.038  10.985   2.988
17516SOL    HW254381  13.093  10.844   2.988
17517SOL     OW54382   4.878  12.823   8.947
17517SOL    HW154383   4.875  12.797   9.039
17517SOL    HW254384   4.896  12.742   8.900
17518SOL     OW54385   3.206   1.123  12.591
17518SOL    HW154386   3.149   1.079  12.527
17518SOL    HW254387   3.157   1.119  12.673
17519SOL     OW54388   2.936   8.905   8.733
17519SOL    HW154389   2.885   8.865   8.803
17519SOL    HW254390   2.961   8.990   8.767
17520SOL     OW54391  13.928  14.024   4.696
17520SOL    HW154392  13.943  13.981   4.612
17520SOL    HW254393  13.839  14.000   4.720
17521SOL     OW54394  11.052   4.883   2.577
17521SOL    HW154395  11.068   4.900   2.670
17521SOL    HW254396  11.100   4.953   2.532
17522SOL     OW54397   0.205   6.252   2.960
17522SOL    HW154398   0.226   6.288   3.046
17522SOL    HW254399   0.251   6.309   2.898
17523SOL     OW54400   8.821   3.956   9.849
17523SOL    HW154401   8.757   4.016   9.887
17523SOL    HW254402   8.902   4.007   9.845
17524SOL     OW54403  14.426   3.222  12.821
17524SOL    HW154404  14.503   3.168  12.839
17524SOL    HW254405  14.367   3.205  12.894
17525SOL     OW54406  12.791   8.035   7.206
17525SOL    HW154407  12.848   8.103   7.172
17525SOL    HW254408  12.756   8.070   7.288
17526SOL     OW54409   2.003   6.110  13.948
17526SOL    HW154410   1.954   6.089  14.027
17526SOL    HW254411   2.013   6.026  13.903
17527SOL     OW54412  13.200   7.957   7.291
17527SOL    HW154413  13.199   7.866   7.260
17527SOL    HW254414  13.238   8.006   7.219
17528SOL     OW54415   3.006   6.079   3.722
17528SOL    HW154416   3.090   6.099   3.681
17528SOL    HW254417   2.963   6.018   3.661
17529SOL     OW54418   5.506   2.767   3.803
17529SOL    HW154419   5.585   2.817   3.824
17529SOL    HW254420   5.442   2.796   3.867
17530SOL     OW54421  11.927  11.349  10.926
17530SOL    HW154422  11.859  11.285  10.947
17530SOL    HW254423  11.894  11.432  10.962
17531SOL     OW54424   3.141   5.194   1.651
17531SOL    HW154425   3.227   5.153   1.654
17531SOL    HW254426   3.080   5.121   1.641
17532SOL     OW54427   0.706   0.776  13.195
17532SOL    HW154428   0.716   0.736  13.282
17532SOL    HW254429   0.794   0.803  13.170
17533SOL     OW54430   6.708   9.917   3.691
17533SOL    HW154431   6.662   9.951   3.768
17533SOL    HW254432   6.704   9.821   3.701
17534SOL     OW54433   1.427  12.377  14.211
17534SOL    HW154434   1.346  12.344  14.251
17534SOL    HW254435   1.486  12.302  14.211
17535SOL     OW54436   1.359   5.586   6.613
17535SOL    HW154437   1.381   5.595   6.706
17535SOL    HW254438   1.310   5.503   6.609
17536SOL     OW54439   6.802   2.175  13.583
17536SOL    HW154440   6.832   2.216  13.502
17536SOL    HW254441   6.855   2.096  13.591
17537SOL     OW54442  10.784  11.213   7.019
17537SOL    HW154443  10.737  11.177   6.944
17537SOL    HW254444  10.726  11.281   7.053
17538SOL     OW54445   5.609   4.608  12.933
17538SOL    HW154446   5.683   4.599  12.993
17538SOL    HW254447   5.630   4.685  12.880
17539SOL     OW54448  10.343   4.598   3.554
17539SOL    HW154449  10.305   4.527   3.606
17539SOL    HW254450  10.334   4.675   3.609
17540SOL     OW54451   2.478   8.132   8.274
17540SOL    HW154452   2.397   8.163   8.234
17540SOL    HW254453   2.450   8.065   8.337
17541SOL     OW54454   4.690   2.016   1.325
17541SOL    HW154455   4.730   1.950   1.382
17541SOL    HW254456   4.764   2.071   1.297
17542SOL     OW54457   6.110   2.570   2.024
17542SOL    HW154458   6.131   2.554   1.932
17542SOL    HW254459   6.042   2.506   2.045
17543SOL     OW54460  13.880   5.197   6.351
17543SOL    HW154461  13.939   5.235   6.416
17543SOL    HW254462  13.909   5.233   6.268
17544SOL     OW54463   2.312   5.387  11.143
17544SOL    HW154464   2.226   5.346  11.149
17544SOL    HW254465   2.373   5.314  11.132
17545SOL     OW54466  13.757   8.133   8.650
17545SOL    HW154467  13.717   8.217   8.673
17545SOL    HW254468  13.693   8.091   8.593
17546SOL     OW54469   5.043   5.820  14.367
17546SOL    HW154470   5.022   5.766  14.291
17546SOL    HW254471   4.985   5.787  14.436
17547SOL     OW54472   1.666   8.129  11.351
17547SOL    HW154473   1.659   8.034  11.340
17547SOL    HW254474   1.734   8.140  11.418
17548SOL     OW54475   0.235   6.627   9.316
17548SOL    HW154476   0.227   6.563   9.386
17548SOL    HW254477   0.308   6.684   9.343
17549SOL     OW54478  10.503  14.513   4.766
17549SOL    HW154479  10.454  14.472   4.694
17549SOL    HW254480  10.504  14.606   4.743
17550SOL     OW54481  12.852  10.668  13.760
17550SOL    HW154482  12.793  10.729  13.805
17550SOL    HW254483  12.930  10.664  13.816
17551SOL     OW54484  11.030   1.686  12.299
17551SOL    HW154485  10.935   1.692  12.301
17551SOL    HW254486  11.051   1.606  12.348
17552SOL     OW54487  11.628   0.632   8.770
17552SOL    HW154488  11.571   0.580   8.713
17552SOL    HW254489  11.700   0.660   8.713
17553SOL     OW54490  11.833   8.820   4.376
17553SOL    HW154491  11.780   8.772   4.312
17553SOL    HW254492  11.889   8.876   4.323
17554SOL     OW54493   6.550   5.885   4.471
17554SOL    HW154494   6.474   5.894   4.528
17554SOL    HW254495   6.564   5.973   4.436
17555SOL     OW54496   3.922   8.408   7.116
17555SOL    HW154497   3.910   8.432   7.024
17555SOL    HW254498   3.953   8.318   7.114
17556SOL     OW54499   6.189   0.397   0.300
17556SOL    HW154500   6.108   0.438   0.330
17556SOL    HW254501   6.227   0.358   0.378
17557SOL     OW54502   3.071   9.535  11.326
17557SOL    HW154503   3.073   9.532  11.230
17557SOL    HW254504   3.004   9.600  11.347
17558SOL     OW54505  12.377   4.056   4.383
17558SOL    HW154506  12.359   4.135   4.332
17558SOL    HW254507  12.472   4.057   4.395
17559SOL     OW54508  14.601   6.814  11.420
17559SOL    HW154509  14.533   6.799  11.354
17559SOL    HW254510  14.601   6.734  11.473
17560SOL     OW54511   3.663   4.763  11.000
17560SOL    HW154512   3.624   4.840  10.958
17560SOL    HW254513   3.742   4.796  11.043
17561SOL     OW54514  14.699   8.541   9.767
17561SOL    HW154515  14.752   8.504   9.697
17561SOL    HW254516  14.714   8.482   9.841
17562SOL     OW54517   6.334  10.519  10.497
17562SOL    HW154518   6.402  10.564  10.548
17562SOL    HW254519   6.272  10.487  10.562
17563SOL     OW54520  12.407   4.085   3.227
17563SOL    HW154521  12.347   4.010   3.225
17563SOL    HW254522  12.350   4.161   3.242
17564SOL     OW54523   0.566   5.202   3.434
17564SOL    HW154524   0.487   5.177   3.482
17564SOL    HW254525   0.637   5.154   3.478
17565SOL     OW54526   9.522  11.606  14.446
17565SOL    HW154527   9.518  11.649  14.361
17565SOL    HW254528   9.589  11.655  14.495
17566SOL     OW54529   1.370   3.661   4.255
17566SOL    HW154530   1.321   3.738   4.226
17566SOL    HW254531   1.447   3.658   4.197
17567SOL     OW54532  12.563   6.460   5.949
17567SOL    HW154533  12.528   6.530   5.893
17567SOL    HW254534  12.488   6.434   6.003
17568SOL     OW54535   2.946   3.284   4.902
17568SOL    HW154536   2.879   3.239   4.954
17568SOL    HW254537   2.910   3.372   4.889
17569SOL     OW54538   3.433   9.369   4.240
17569SOL    HW154539   3.362   9.371   4.304
17569SOL    HW254540   3.512   9.350   4.292
17570SOL     OW54541   5.199  13.139   1.911
17570SOL    HW154542   5.237  13.177   1.990
17570SOL    HW254543   5.240  13.053   1.903
17571SOL     OW54544   8.557  11.994   5.533
17571SOL    HW154545   8.586  12.048   5.607
17571SOL    HW254546   8.493  12.049   5.488
17572SOL     OW54547   4.720   4.452  13.057
17572SOL    HW154548   4.758   4.428  13.141
17572SOL    HW254549   4.780   4.417  12.992
17573SOL     OW54550  13.062   6.058  10.885
17573SOL    HW154551  13.015   5.975  10.878
17573SOL    HW254552  12.993   6.125  10.882
17574SOL     OW54553   3.192   9.844   7.456
17574SOL    HW154554   3.174   9.756   7.421
17574SOL    HW254555   3.287   9.844   7.472
17575SOL     OW54556  13.038  12.227  12.976
17575SOL    HW154557  13.105  12.238  12.908
17575SOL    HW254558  12.964  12.186  12.930
17576SOL     OW54559   3.997  10.046  10.254
17576SOL    HW154560   4.059   9.986  10.212
17576SOL    HW254561   3.950   9.992  10.317
17577SOL     OW54562   7.662   3.383   3.091
17577SOL    HW154563   7.727   3.314   3.085
17577SOL    HW254564   7.713   3.464   3.096
17578SOL     OW54565   9.303   4.309   7.639
17578SOL    HW154566   9.223   4.354   7.615
17578SOL    HW254567   9.316   4.330   7.732
17579SOL     OW54568  14.447   3.499   5.547
17579SOL    HW154569  14.525   3.532   5.592
17579SOL    HW254570  14.378   3.501   5.614
17580SOL     OW54571   6.739   3.093   5.136
17580SOL    HW154572   6.760   3.118   5.046
17580SOL    HW254573   6.815   3.042   5.165
17581SOL     OW54574  13.995   5.819   7.256
17581SOL    HW154575  13.980   5.775   7.173
17581SOL    HW254576  14.015   5.909   7.233
17582SOL     OW54577   9.369  10.827  12.302
17582SOL    HW154578   9.386  10.733  12.312
17582SOL    HW254579   9.275  10.832  12.288
17583SOL     OW54580  10.660   0.914   1.936
17583SOL    HW154581  10.619   1.000   1.927
17583SOL    HW254582  10.753   0.930   1.916
17584SOL     OW54583   3.904  11.865   5.893
17584SOL    HW154584   3.988  11.908   5.909
17584SOL    HW254585   3.857  11.874   5.975
17585SOL     OW54586  13.824  11.270   0.128
17585SOL    HW154587  13.818  11.365   0.116
17585SOL    HW254588  13.870  11.239   0.050
17586SOL     OW54589   5.279   3.227   7.401
17586SOL    HW154590   5.329   3.263   7.328
17586SOL    HW254591   5.332   3.154   7.433
17587SOL     OW54592   5.031  11.962   4.999
17587SOL    HW154593   5.088  12.037   5.015
17587SOL    HW254594   5.050  11.902   5.071
17588SOL     OW54595   7.850   9.237   7.762
17588SOL    HW154596   7.800   9.281   7.694
17588SOL    HW254597   7.846   9.144   7.739
17589SOL     OW54598  12.075   5.396   5.629
17589SOL    HW154599  12.124   5.386   5.547
17589SOL    HW254600  11.985   5.371   5.607
17590SOL     OW54601  14.384   8.071   0.143
17590SOL    HW154602  14.345   8.049   0.227
17590SOL    HW254603  14.448   8.140   0.164
17591SOL     OW54604  12.035   5.178  14.509
17591SOL    HW154605  12.030   5.155  14.602
17591SOL    HW254606  12.063   5.269  14.508
17592SOL     OW54607  11.539   0.661   0.810
17592SOL    HW154608  11.594   0.701   0.877
17592SOL    HW254609  11.470   0.617   0.859
17593SOL     OW54610   4.718  14.140   3.326
17593SOL    HW154611   4.638  14.151   3.274
17593SOL    HW254612   4.788  14.138   3.261
17594SOL     OW54613   1.644  11.598   6.558
17594SOL    HW154614   1.571  11.593   6.496
17594SOL    HW254615   1.688  11.681   6.537
17595SOL     OW54616  12.048   1.397   4.155
17595SOL    HW154617  11.995   1.318   4.151
17595SOL    HW254618  12.001   1.461   4.102
17596SOL     OW54619   9.422   6.959   0.520
17596SOL    HW154620   9.491   6.899   0.550
17596SOL    HW254621   9.461   7.046   0.529
17597SOL     OW54622   2.757   7.300   3.635
17597SOL    HW154623   2.758   7.394   3.619
17597SOL    HW254624   2.744   7.260   3.549
17598SOL     OW54625   5.629   2.515  14.250
17598SOL    HW154626   5.624   2.435  14.197
17598SOL    HW254627   5.566   2.502  14.320
17599SOL     OW54628  14.371  10.852  12.574
17599SOL    HW154629  14.431  10.811  12.636
17599SOL    HW254630  14.341  10.931  12.618
17600SOL     OW54631   3.052   6.414   5.866
17600SOL    HW154632   3.048   6.404   5.771
17600SOL    HW254633   3.124   6.474   5.881
17601SOL     OW54634   8.037  12.340  14.747
17601SOL    HW154635   8.069  12.256  14.716
17601SOL    HW254636   8.016  12.325  14.839
17602SOL     OW54637   7.028   2.986   3.242
17602SOL    HW154638   7.089   3.056   3.264
17602SOL    HW254639   6.951   3.003   3.296
17603SOL     OW54640   7.672   6.038  12.074
17603SOL    HW154641   7.683   5.992  11.991
17603SOL    HW254642   7.655   5.969  12.138
17604SOL     OW54643   0.287   1.311   0.220
17604SOL    HW154644   0.331   1.234   0.255
17604SOL    HW254645   0.345   1.344   0.152
17605SOL     OW54646   8.906  10.068   1.476
17605SOL    HW154647   8.871  10.034   1.394
17605SOL    HW254648   8.914   9.992   1.533
17606SOL     OW54649   4.965   6.746  12.160
17606SOL    HW154650   4.893   6.799  12.125
17606SOL    HW254651   5.000   6.799  12.232
17607SOL     OW54652   4.853   3.329  10.122
17607SOL    HW154653   4.928   3.303  10.175
17607SOL    HW254654   4.809   3.246  10.100
17608SOL     OW54655   1.037   4.897   6.853
17608SOL    HW154656   0.973   4.828   6.870
17608SOL    HW254657   1.110   4.876   6.912
17609SOL     OW54658   5.888  13.998  14.509
17609SOL    HW154659   5.970  14.015  14.463
17609SOL    HW254660   5.846  13.928  14.458
17610SOL     OW54661  12.527   6.262   7.699
17610SOL    HW154662  12.457   6.252   7.635
17610SOL    HW254663  12.485   6.244   7.783
17611SOL     OW54664   6.722   9.201   5.262
17611SOL    HW154665   6.806   9.180   5.222
17611SOL    HW254666   6.713   9.296   5.250
17612SOL     OW54667   2.588   9.085   1.015
17612SOL    HW154668   2.674   9.116   0.987
17612SOL    HW254669   2.579   9.000   0.972
17613SOL     OW54670   6.592   8.816   4.921
17613SOL    HW154671   6.539   8.752   4.969
17613SOL    HW254672   6.653   8.851   4.986
17614SOL     OW54673  14.053   1.259   9.587
17614SOL    HW154674  14.124   1.201   9.560
17614SOL    HW254675  14.093   1.318   9.650
17615SOL     OW54676  11.615   7.509  11.485
17615SOL    HW154677  11.568   7.430  11.511
17615SOL    HW254678  11.707   7.480  11.478
17616SOL     OW54679  12.019  10.104   9.311
17616SOL    HW154680  12.072  10.146   9.379
17616SOL    HW254681  11.931  10.139   9.325
17617SOL     OW54682   4.273  14.013  12.902
17617SOL    HW154683   4.206  13.953  12.934
17617SOL    HW254684   4.352  13.986  12.949
17618SOL     OW54685   5.591  10.188   9.908
17618SOL    HW154686   5.636  10.110   9.940
17618SOL    HW254687   5.553  10.228   9.986
17619SOL     OW54688  14.182  11.310  13.141
17619SOL    HW154689  14.168  11.305  13.047
17619SOL    HW254690  14.145  11.229  13.176
17620SOL     OW54691   7.542  10.599  13.328
17620SOL    HW154692   7.548  10.518  13.380
17620SOL    HW254693   7.449  10.615  13.319
17621SOL     OW54694   4.733   3.806   9.651
17621SOL    HW154695   4.774   3.737   9.597
17621SOL    HW254696   4.660   3.762   9.694
17622SOL     OW54697  11.861  14.647   9.831
17622SOL    HW154698  11.881  14.691   9.914
17622SOL    HW254699  11.853  14.555   9.855
17623SOL     OW54700   4.976   2.415  11.953
17623SOL    HW154701   5.014   2.378  11.874
17623SOL    HW254702   5.037   2.392  12.023
17624SOL     OW54703   8.376  10.847   1.392
17624SOL    HW154704   8.298  10.871   1.441
17624SOL    HW254705   8.345  10.838   1.302
17625SOL     OW54706   8.483   7.066  10.002
17625SOL    HW154707   8.491   7.161  10.009
17625SOL    HW254708   8.462   7.050   9.910
17626SOL     OW54709   1.674   7.166   6.232
17626SOL    HW154710   1.672   7.074   6.204
17626SOL    HW254711   1.757   7.200   6.198
17627SOL     OW54712   9.872  13.082   2.571
17627SOL    HW154713   9.881  12.987   2.583
17627SOL    HW254714   9.797  13.092   2.512
17628SOL     OW54715  14.023   0.466   8.355
17628SOL    HW154716  14.102   0.519   8.359
17628SOL    HW254717  13.966   0.512   8.294
17629SOL     OW54718   5.618  11.895   7.616
17629SOL    HW154719   5.592  11.961   7.552
17629SOL    HW254720   5.712  11.886   7.604
17630SOL     OW54721   7.041   3.044  12.973
17630SOL    HW154722   6.955   3.075  12.947
17630SOL    HW254723   7.097   3.061  12.897
17631SOL     OW54724  13.034   0.800  10.222
17631SOL    HW154725  13.020   0.726  10.281
17631SOL    HW254726  13.075   0.867  10.276
17632SOL     OW54727  10.056   8.073   4.174
17632SOL    HW154728  10.011   8.157   4.162
17632SOL    HW254729  10.128   8.094   4.234
17633SOL     OW54730  10.637   5.271  12.887
17633SOL    HW154731  10.661   5.257  12.978
17633SOL    HW254732  10.603   5.361  12.884
17634SOL     OW54733   0.149   1.057   9.334
17634SOL    HW154734   0.084   1.117   9.371
17634SOL    HW254735   0.097   0.992   9.286
17635SOL     OW54736  11.192  13.727  13.558
17635SOL    HW154737  11.149  13.645  13.585
17635SOL    HW254738  11.126  13.774  13.507
17636SOL     OW54739   6.504   7.036  12.895
17636SOL    HW154740   6.544   6.954  12.923
17636SOL    HW254741   6.509   7.033  12.799
17637SOL     OW54742   7.486   9.655   1.947
17637SOL    HW154743   7.502   9.680   2.038
17637SOL    HW254744   7.529   9.570   1.937
17638SOL     OW54745   7.867  12.103   3.181
17638SOL    HW154746   7.832  12.068   3.099
17638SOL    HW254747   7.920  12.178   3.155
17639SOL     OW54748   9.190   0.980   2.128
17639SOL    HW154749   9.163   0.923   2.200
17639SOL    HW254750   9.179   1.069   2.162
17640SOL     OW54751   7.474  12.607  12.462
17640SOL    HW154752   7.432  12.524  12.440
17640SOL    HW254753   7.537  12.584  12.530
17641SOL     OW54754   5.236  12.708  11.927
17641SOL    HW154755   5.207  12.774  11.990
17641SOL    HW254756   5.315  12.746  11.888
17642SOL     OW54757  11.326   7.420   7.207
17642SOL    HW154758  11.407   7.426   7.258
17642SOL    HW254759  11.256   7.431   7.271
17643SOL     OW54760   3.063   9.660  13.159
17643SOL    HW154761   3.065   9.715  13.081
17643SOL    HW254762   2.974   9.669  13.192
17644SOL     OW54763   8.998   2.948  11.084
17644SOL    HW154764   9.069   2.885  11.079
17644SOL    HW254765   8.942   2.928  11.009
17645SOL     OW54766   5.365   8.857   9.412
17645SOL    HW154767   5.345   8.768   9.439
17645SOL    HW254768   5.371   8.854   9.317
17646SOL     OW54769   2.470   7.428  14.445
17646SOL    HW154770   2.547   7.387  14.405
17646SOL    HW254771   2.449   7.501  14.386
17647SOL     OW54772  13.900   1.450   4.404
17647SOL    HW154773  13.825   1.392   4.392
17647SOL    HW254774  13.946   1.414   4.480
17648SOL     OW54775   8.349  14.294  12.623
17648SOL    HW154776   8.277  14.285  12.560
17648SOL    HW254777   8.343  14.215  12.678
17649SOL     OW54778  11.044   1.405   6.214
17649SOL    HW154779  11.016   1.486   6.256
17649SOL    HW254780  10.964   1.366   6.180
17650SOL     OW54781  13.859   9.155  10.924
17650SOL    HW154782  13.815   9.099  10.860
17650SOL    HW254783  13.947   9.118  10.932
17651SOL     OW54784   0.124  11.324   8.473
17651SOL    HW154785   0.080  11.245   8.502
17651SOL    HW254786   0.215  11.297   8.457
17652SOL     OW54787   9.528   5.062  11.544
17652SOL    HW154788   9.433   5.061  11.546
17652SOL    HW254789   9.553   4.977  11.581
17653SOL     OW54790  11.449   5.298  13.163
17653SOL    HW154791  11.530   5.319  13.209
17653SOL    HW254792  11.478   5.256  13.081
17654SOL     OW54793   5.915   2.426   4.468
17654SOL    HW154794   5.827   2.463   4.479
17654SOL    HW254795   5.920   2.405   4.375
17655SOL     OW54796   6.418  14.651   1.794
17655SOL    HW154797   6.446  14.561   1.784
17655SOL    HW254798   6.389  14.678   1.707
17656SOL     OW54799  14.229   6.785  13.307
17656SOL    HW154800  14.274   6.870  13.308
17656SOL    HW254801  14.171   6.790  13.231
17657SOL     OW54802   8.303   7.746  11.899
17657SOL    HW154803   8.259   7.662  11.906
17657SOL    HW254804   8.233   7.811  11.896
17658SOL     OW54805  14.683  12.315   0.972
17658SOL    HW154806  14.694  12.265   1.053
17658SOL    HW254807  14.589  12.312   0.954
17659SOL     OW54808   3.692  10.517   0.539
17659SOL    HW154809   3.754  10.445   0.528
17659SOL    HW254810   3.678  10.522   0.633
17660SOL     OW54811  10.590  10.811  10.565
17660SOL    HW154812  10.656  10.742  10.571
17660SOL    HW254813  10.603  10.864  10.644
17661SOL     OW54814   8.970   2.492   0.915
17661SOL    HW154815   8.914   2.447   0.851
17661SOL    HW254816   9.059   2.471   0.887
17662SOL     OW54817   7.996   8.631  10.659
17662SOL    HW154818   7.956   8.638  10.747
17662SOL    HW254819   8.056   8.557  10.666
17663SOL     OW54820  12.878  12.800   3.473
17663SOL    HW154821  12.829  12.805   3.391
17663SOL    HW254822  12.812  12.782   3.539
17664SOL     OW54823   7.557   4.646   4.676
17664SOL    HW154824   7.480   4.653   4.619
17664SOL    HW254825   7.528   4.677   4.761
17665SOL     OW54826  13.791   8.543   3.685
17665SOL    HW154827  13.734   8.587   3.748
17665SOL    HW254828  13.871   8.524   3.733
17666SOL     OW54829   9.225  10.985   9.189
17666SOL    HW154830   9.170  10.950   9.119
17666SOL    HW254831   9.278  10.911   9.217
17667SOL     OW54832   3.978   3.422  11.849
17667SOL    HW154833   3.910   3.355  11.844
17667SOL    HW254834   3.938   3.500  11.808
17668SOL     OW54835   0.335  11.758   1.405
17668SOL    HW154836   0.423  11.746   1.441
17668SOL    HW254837   0.346  11.824   1.336
17669SOL     OW54838   8.068   7.291  13.672
17669SOL    HW154839   7.983   7.335  13.682
17669SOL    HW254840   8.112   7.306  13.756
17670SOL     OW54841   3.413  12.409   5.793
17670SOL    HW154842   3.405  12.479   5.858
17670SOL    HW254843   3.482  12.353   5.827
17671SOL     OW54844  12.034   9.196   8.463
17671SOL    HW154845  11.957   9.227   8.510
17671SOL    HW254846  12.019   9.102   8.451
17672SOL     OW54847   4.958  12.188   8.591
17672SOL    HW154848   4.959  12.209   8.498
17672SOL    HW254849   4.888  12.242   8.627
17673SOL     OW54850  14.007  13.920   9.690
17673SOL    HW154851  14.071  13.907   9.620
17673SOL    HW254852  14.033  13.857   9.758
17674SOL     OW54853   3.732   0.599   3.644
17674SOL    HW154854   3.707   0.576   3.555
17674SOL    HW254855   3.756   0.691   3.639
17675SOL     OW54856   4.150  10.718  12.309
17675SOL    HW154857   4.220  10.718  12.374
17675SOL    HW254858   4.196  10.720  12.224
17676SOL     OW54859   7.992  13.098   4.246
17676SOL    HW154860   7.966  13.190   4.247
17676SOL    HW254861   8.024  13.081   4.335
17677SOL     OW54862  10.041  10.012   9.109
17677SOL    HW154863   9.993   9.968   9.039
17677SOL    HW254864  10.034  10.105   9.089
17678SOL     OW54865  11.318   0.982   4.136
17678SOL    HW154866  11.326   0.909   4.075
17678SOL    HW254867  11.343   1.059   4.085
17679SOL     OW54868   1.388   2.785   6.825
17679SOL    HW154869   1.419   2.863   6.780
17679SOL    HW254870   1.362   2.725   6.755
17680SOL     OW54871   3.450  10.893  13.669
17680SOL    HW154872   3.405  10.856  13.745
17680SOL    HW254873   3.399  10.861  13.594
17681SOL     OW54874  10.791   1.631  13.436
17681SOL    HW154875  10.707   1.675  13.451
17681SOL    HW254876  10.773   1.539  13.457
17682SOL     OW54877   1.064   0.727  12.654
17682SOL    HW154878   1.062   0.632  12.663
17682SOL    HW254879   1.075   0.742  12.560
17683SOL     OW54880   1.004   8.934   3.615
17683SOL    HW154881   1.000   8.995   3.542
17683SOL    HW254882   1.035   8.852   3.577
17684SOL     OW54883  12.988  14.347   6.543
17684SOL    HW154884  12.954  14.298   6.618
17684SOL    HW254885  12.952  14.303   6.467
17685SOL     OW54886   0.598  13.393   2.985
17685SOL    HW154887   0.620  13.301   3.001
17685SOL    HW254888   0.662  13.422   2.920
17686SOL     OW54889  12.623   2.422   7.220
17686SOL    HW154890  12.549   2.426   7.281
17686SOL    HW254891  12.699   2.442   7.274
17687SOL     OW54892   6.914  13.807  14.533
17687SOL    HW154893   6.868  13.737  14.581
17687SOL    HW254894   6.982  13.761  14.484
17688SOL     OW54895   5.542  10.276   3.820
17688SOL    HW154896   5.487  10.348   3.789
17688SOL    HW254897   5.627  10.316   3.836
17689SOL     OW54898  10.711   2.090  14.736
17689SOL    HW154899  10.691   1.997  14.750
17689SOL    HW254900  10.678   2.108  14.648
17690SOL     OW54901   9.260   6.584  12.244
17690SOL    HW154902   9.217   6.512  12.199
17690SOL    HW254903   9.273   6.650  12.176
17691SOL     OW54904   9.726   2.242   2.927
17691SOL    HW154905   9.679   2.323   2.948
17691SOL    HW254906   9.688   2.213   2.845
17692SOL     OW54907  13.304   5.299   4.869
17692SOL    HW154908  13.342   5.361   4.932
17692SOL    HW254909  13.364   5.225   4.870
17693SOL     OW54910   1.075  13.160   7.535
17693SOL    HW154911   1.040  13.237   7.490
17693SOL    HW254912   1.000  13.125   7.583
17694SOL     OW54913   0.017  13.533   1.984
17694SOL    HW154914   0.048  13.564   2.070
17694SOL    HW254915  14.839  13.602   1.954
17695SOL     OW54916   9.439   4.266  14.666
17695SOL    HW154917   9.344   4.276  14.658
17695SOL    HW254918   9.462   4.203  14.597
17696SOL     OW54919   2.998   5.249   6.327
17696SOL    HW154920   3.022   5.341   6.341
17696SOL    HW254921   2.996   5.240   6.231
17697SOL     OW54922   4.430   5.157   8.833
17697SOL    HW154923   4.473   5.073   8.823
17697SOL    HW254924   4.418   5.167   8.928
17698SOL     OW54925  14.791   8.716  11.753
17698SOL    HW154926  14.849   8.792  11.747
17698SOL    HW254927  14.712   8.742  11.706
17699SOL     OW54928   9.918   4.935   9.518
17699SOL    HW154929   9.911   4.988   9.597
17699SOL    HW254930  10.007   4.902   9.519
17700SOL     OW54931   1.349  10.478   8.901
17700SOL    HW154932   1.348  10.539   8.974
17700SOL    HW254933   1.401  10.523   8.833
17701SOL     OW54934  13.152  13.016  11.645
17701SOL    HW154935  13.073  13.044  11.600
17701SOL    HW254936  13.136  13.035  11.738
17702SOL     OW54937   9.938  11.496   5.185
17702SOL    HW154938   9.994  11.460   5.253
17702SOL    HW254939   9.892  11.420   5.149
17703SOL     OW54940   9.746   9.554  10.060
17703SOL    HW154941   9.762   9.547  10.154
17703SOL    HW254942   9.793   9.632  10.034
17704SOL     OW54943   9.737   3.202   6.946
17704SOL    HW154944   9.707   3.179   7.034
17704SOL    HW254945   9.832   3.195   6.951
17705SOL     OW54946   4.441   2.769  12.592
17705SOL    HW154947   4.401   2.785  12.678
17705SOL    HW254948   4.508   2.837  12.584
17706SOL     OW54949   5.382   0.198   3.104
17706SOL    HW154950   5.391   0.284   3.144
17706SOL    HW254951   5.295   0.168   3.130
17707SOL     OW54952   2.346  12.942   0.798
17707SOL    HW154953   2.260  12.983   0.809
17707SOL    HW254954   2.371  12.961   0.708
17708SOL     OW54955   5.927  10.189  13.281
17708SOL    HW154956   5.871  10.121  13.244
17708SOL    HW254957   5.939  10.163  13.372
17709SOL     OW54958  14.477  13.179   3.988
17709SOL    HW154959  14.466  13.113   3.920
17709SOL    HW254960  14.427  13.146   4.063
17710SOL     OW54961   9.276   3.552   7.393
17710SOL    HW154962   9.191   3.573   7.352
17710SOL    HW254963   9.323   3.635   7.393
17711SOL     OW54964   7.145  13.108  12.967
17711SOL    HW154965   7.180  13.022  12.942
17711SOL    HW254966   7.050  13.098  12.960
17712SOL     OW54967   5.273   3.329   6.963
17712SOL    HW154968   5.201   3.390   6.980
17712SOL    HW254969   5.306   3.355   6.877
17713SOL     OW54970   4.275   9.153   8.551
17713SOL    HW154971   4.326   9.118   8.624
17713SOL    HW254972   4.337   9.207   8.502
17714SOL     OW54973   3.356   6.441  11.774
17714SOL    HW154974   3.401   6.379  11.832
17714SOL    HW254975   3.277   6.396  11.747
17715SOL     OW54976   8.241  13.893   0.921
17715SOL    HW154977   8.164  13.948   0.933
17715SOL    HW254978   8.220  13.812   0.969
17716SOL     OW54979   6.041  12.890  10.131
17716SOL    HW154980   6.068  12.891  10.039
17716SOL    HW254981   6.121  12.908  10.180
17717SOL     OW54982   0.661   6.474  14.163
17717SOL    HW154983   0.642   6.507  14.251
17717SOL    HW254984   0.737   6.417  14.175
17718SOL     OW54985   6.430   4.474  13.622
17718SOL    HW154986   6.392   4.408  13.565
17718SOL    HW254987   6.362   4.493  13.686
17719SOL     OW54988   5.194   5.635   4.321
17719SOL    HW154989   5.187   5.720   4.278
17719SOL    HW254990   5.277   5.639   4.368
17720SOL     OW54991  14.714   6.326   3.995
17720SOL    HW154992  14.750   6.377   4.068
17720SOL    HW254993  14.621   6.319   4.014
17721SOL     OW54994   1.996   7.233  10.425
17721SOL    HW154995   1.985   7.146  10.387
17721SOL    HW254996   1.982   7.293  10.351
17722SOL     OW54997  10.454   6.024  12.868
17722SOL    HW154998  10.422   5.969  12.796
17722SOL    HW254999  10.383   6.023  12.931
17723SOL     OW55000   2.727   1.995   6.633
17723SOL    HW155001   2.819   2.006   6.607
17723SOL    HW255002   2.725   2.021   6.725
17724SOL     OW55003   6.429  10.610   1.640
17724SOL    HW155004   6.357  10.672   1.653
17724SOL    HW255005   6.507  10.664   1.630
17725SOL     OW55006   6.600   1.776   7.490
17725SOL    HW155007   6.687   1.741   7.471
17725SOL    HW255008   6.561   1.790   7.403
17726SOL     OW55009  12.453  13.279   8.594
17726SOL    HW155010  12.483  13.361   8.633
17726SOL    HW255011  12.528  13.220   8.602
17727SOL     OW55012   8.504   1.565   0.838
17727SOL    HW155013   8.444   1.490   0.835
17727SOL    HW255014   8.574   1.542   0.778
17728SOL     OW55015   2.214   2.448  13.005
17728SOL    HW155016   2.241   2.357  13.016
17728SOL    HW255017   2.144   2.445  12.940
17729SOL     OW55018  14.225   9.176   0.407
17729SOL    HW155019  14.225   9.081   0.413
17729SOL    HW255020  14.240   9.194   0.314
17730SOL     OW55021   7.339   3.992   6.933
17730SOL    HW155022   7.254   3.949   6.921
17730SOL    HW255023   7.354   4.039   6.850
17731SOL     OW55024   8.217   2.674  11.320
17731SOL    HW155025   8.249   2.741  11.259
17731SOL    HW255026   8.285   2.669  11.387
17732SOL     OW55027  11.162   4.562  10.261
17732SOL    HW155028  11.123   4.483  10.224
17732SOL    HW255029  11.215   4.599  10.191
17733SOL     OW55030   9.953   9.603   8.118
17733SOL    HW155031   9.927   9.511   8.118
17733SOL    HW255032   9.951   9.629   8.210
17734SOL     OW55033   9.863  10.154  11.210
17734SOL    HW155034   9.955  10.129  11.195
17734SOL    HW255035   9.848  10.228  11.152
17735SOL     OW55036   0.106   3.132  13.943
17735SOL    HW155037   0.016   3.119  13.974
17735SOL    HW255038   0.112   3.226  13.926
17736SOL     OW55039   2.132  10.239  10.317
17736SOL    HW155040   2.041  10.237  10.286
17736SOL    HW255041   2.172  10.163  10.276
17737SOL     OW55042   1.136  11.718  10.081
17737SOL    HW155043   1.120  11.643  10.138
17737SOL    HW255044   1.201  11.771  10.128
17738SOL     OW55045  12.180  12.488  10.075
17738SOL    HW155046  12.171  12.524   9.987
17738SOL    HW255047  12.242  12.545  10.118
17739SOL     OW55048   4.134   2.081   0.639
17739SOL    HW155049   4.127   2.006   0.698
17739SOL    HW255050   4.086   2.151   0.684
17740SOL     OW55051   5.041   5.162  13.340
17740SOL    HW155052   5.102   5.216  13.290
17740SOL    HW255053   4.983   5.123  13.274
17741SOL     OW55054   8.704  12.183  13.740
17741SOL    HW155055   8.798  12.164  13.734
17741SOL    HW255056   8.700  12.269  13.782
17742SOL     OW55057   4.203   4.892   1.924
17742SOL    HW155058   4.290   4.926   1.945
17742SOL    HW255059   4.149   4.915   2.000
17743SOL     OW55060  11.376   4.093   9.949
17743SOL    HW155061  11.417   4.157   9.890
17743SOL    HW255062  11.446   4.067  10.009
17744SOL     OW55063   8.236  13.080   6.442
17744SOL    HW155064   8.306  13.140   6.466
17744SOL    HW255065   8.267  12.994   6.471
17745SOL     OW55066   4.721  11.098   1.827
17745SOL    HW155067   4.762  11.175   1.867
17745SOL    HW255068   4.788  11.063   1.768
17746SOL     OW55069   4.807   6.772   3.463
17746SOL    HW155070   4.868   6.821   3.519
17746SOL    HW255071   4.799   6.825   3.384
17747SOL     OW55072  10.152  11.802   7.360
17747SOL    HW155073  10.069  11.849   7.372
17747SOL    HW255074  10.126  11.711   7.345
17748SOL     OW55075  12.141  13.196   9.866
17748SOL    HW155076  12.089  13.240   9.799
17748SOL    HW255077  12.166  13.267   9.926
17749SOL     OW55078   3.820   8.189   9.480
17749SOL    HW155079   3.808   8.152   9.568
17749SOL    HW255080   3.732   8.193   9.444
17750SOL     OW55081   2.677   5.293  12.642
17750SOL    HW155082   2.753   5.323  12.592
17750SOL    HW255083   2.637   5.226  12.587
17751SOL     OW55084   3.096   7.365   5.520
17751SOL    HW155085   3.100   7.313   5.440
17751SOL    HW255086   3.125   7.305   5.589
17752SOL     OW55087   3.128  13.819  10.790
17752SOL    HW155088   3.209  13.819  10.739
17752SOL    HW255089   3.087  13.903  10.770
17753SOL     OW55090   6.437  13.821   3.840
17753SOL    HW155091   6.367  13.881   3.864
17753SOL    HW255092   6.489  13.870   3.776
17754SOL     OW55093   6.088   9.196   4.129
17754SOL    HW155094   6.075   9.226   4.039
17754SOL    HW255095   6.157   9.253   4.163
17755SOL     OW55096   9.118  14.755   5.173
17755SOL    HW155097   9.150  14.757   5.263
17755SOL    HW255098   9.197  14.756   5.119
17756SOL     OW55099   4.106   1.496   9.598
17756SOL    HW155100   4.091   1.403   9.616
17756SOL    HW255101   4.068   1.542   9.672
17757SOL     OW55102  11.146  13.167  10.942
17757SOL    HW155103  11.201  13.104  10.989
17757SOL    HW255104  11.148  13.137  10.851
17758SOL     OW55105  10.473   2.978  10.833
17758SOL    HW155106  10.385   3.012  10.850
17758SOL    HW255107  10.462   2.918  10.759
17759SOL     OW55108   4.134   0.580  14.536
17759SOL    HW155109   4.056   0.554  14.487
17759SOL    HW255110   4.123   0.540  14.622
17760SOL     OW55111   9.088   7.046   1.246
17760SOL    HW155112   9.104   6.981   1.177
17760SOL    HW255113   9.049   6.997   1.317
17761SOL     OW55114  12.777   5.683   6.862
17761SOL    HW155115  12.821   5.648   6.785
17761SOL    HW255116  12.834   5.661   6.935
17762SOL     OW55117   4.400  13.232   4.390
17762SOL    HW155118   4.441  13.258   4.308
17762SOL    HW255119   4.355  13.311   4.421
17763SOL     OW55120  13.827  10.926  13.231
17763SOL    HW155121  13.789  10.852  13.183
17763SOL    HW255122  13.834  10.995  13.165
17764SOL     OW55123   1.473   1.663   3.607
17764SOL    HW155124   1.538   1.611   3.560
17764SOL    HW255125   1.492   1.753   3.584
17765SOL     OW55126  14.175   5.610   6.436
17765SOL    HW155127  14.214   5.625   6.522
17765SOL    HW255128  14.081   5.609   6.453
17766SOL     OW55129  12.790   8.768  10.503
17766SOL    HW155130  12.766   8.831  10.571
17766SOL    HW255131  12.718   8.704  10.504
17767SOL     OW55132   6.870   0.765   4.232
17767SOL    HW155133   6.916   0.836   4.276
17767SOL    HW255134   6.799   0.809   4.184
17768SOL     OW55135   4.703   1.175  10.208
17768SOL    HW155136   4.780   1.204  10.255
17768SOL    HW255137   4.638   1.155  10.276
17769SOL     OW55138  11.551   4.879   6.602
17769SOL    HW155139  11.569   4.953   6.660
17769SOL    HW255140  11.638   4.849   6.573
17770SOL     OW55141   0.113   3.014   0.307
17770SOL    HW155142   0.114   2.936   0.363
17770SOL    HW255143   0.204   3.026   0.281
17771SOL     OW55144   8.803  10.294  13.116
17771SOL    HW155145   8.778  10.223  13.057
17771SOL    HW255146   8.844  10.250  13.191
17772SOL     OW55147   0.177   3.584   1.663
17772SOL    HW155148   0.115   3.551   1.729
17772SOL    HW255149   0.122   3.603   1.587
17773SOL     OW55150  11.121   7.620   9.279
17773SOL    HW155151  11.118   7.669   9.197
17773SOL    HW255152  11.102   7.685   9.347
17774SOL     OW55153   8.612   7.571   1.913
17774SOL    HW155154   8.591   7.522   1.834
17774SOL    HW255155   8.559   7.530   1.982
17775SOL     OW55156   8.040  13.940  11.589
17775SOL    HW155157   7.976  14.004  11.621
17775SOL    HW255158   7.987  13.867  11.556
17776SOL     OW55159   3.627  10.577   5.401
17776SOL    HW155160   3.605  10.522   5.326
17776SOL    HW255161   3.709  10.541   5.434
17777SOL     OW55162   9.747   0.277   6.800
17777SOL    HW155163   9.807   0.215   6.842
17777SOL    HW255164   9.804   0.348   6.769
17778SOL     OW55165  14.340   7.607  12.836
17778SOL    HW155166  14.315   7.575  12.923
17778SOL    HW255167  14.258   7.608  12.787
17779SOL     OW55168  14.104   1.818  13.796
17779SOL    HW155169  14.148   1.817  13.712
17779SOL    HW255170  14.013   1.795  13.776
17780SOL     OW55171   2.056   4.387  13.847
17780SOL    HW155172   1.984   4.359  13.903
17780SOL    HW255173   2.070   4.479  13.870
17781SOL     OW55174  10.967   5.143  11.698
17781SOL    HW155175  10.998   5.061  11.661
17781SOL    HW255176  10.879   5.123  11.731
17782SOL     OW55177  11.401  10.501  10.833
17782SOL    HW155178  11.309  10.524  10.821
17782SOL    HW255179  11.407  10.411  10.800
17783SOL     OW55180   6.231   9.384   1.199
17783SOL    HW155181   6.276   9.421   1.124
17783SOL    HW255182   6.289   9.315   1.231
17784SOL     OW55183   7.757   2.755   0.913
17784SOL    HW155184   7.704   2.795   0.844
17784SOL    HW255185   7.718   2.788   0.994
17785SOL     OW55186   5.409   5.896   5.718
17785SOL    HW155187   5.338   5.958   5.728
17785SOL    HW255188   5.403   5.839   5.795
17786SOL     OW55189   3.544  13.423  13.988
17786SOL    HW155190   3.464  13.455  13.945
17786SOL    HW255191   3.574  13.497  14.040
17787SOL     OW55192   2.314  12.137   6.333
17787SOL    HW155193   2.314  12.173   6.244
17787SOL    HW255194   2.403  12.104   6.344
17788SOL     OW55195  13.302   8.115   9.246
17788SOL    HW155196  13.226   8.092   9.299
17788SOL    HW255197  13.374   8.065   9.285
17789SOL     OW55198  13.277   8.547   7.009
17789SOL    HW155199  13.259   8.467   7.057
17789SOL    HW255200  13.308   8.518   6.923
17790SOL     OW55201   2.318  13.729  11.311
17790SOL    HW155202   2.332  13.686  11.396
17790SOL    HW255203   2.367  13.812  11.318
17791SOL     OW55204   4.629   4.177  10.806
17791SOL    HW155205   4.556   4.129  10.768
17791SOL    HW255206   4.658   4.236  10.736
17792SOL     OW55207   1.539  10.637   5.387
17792SOL    HW155208   1.584  10.678   5.461
17792SOL    HW255209   1.527  10.707   5.323
17793SOL     OW55210  10.769   7.177   6.479
17793SOL    HW155211  10.759   7.270   6.501
17793SOL    HW255212  10.693   7.134   6.517
17794SOL     OW55213   5.339   0.080   4.747
17794SOL    HW155214   5.414   0.092   4.689
17794SOL    HW255215   5.266   0.058   4.689
17795SOL     OW55216  14.590   1.079   8.451
17795SOL    HW155217  14.564   1.112   8.365
17795SOL    HW255218  14.525   1.011   8.471
17796SOL     OW55219   7.392   3.472   4.836
17796SOL    HW155220   7.476   3.465   4.881
17796SOL    HW255221   7.363   3.562   4.850
17797SOL     OW55222   2.415   6.627  13.892
17797SOL    HW155223   2.467   6.707  13.884
17797SOL    HW255224   2.480   6.558  13.905
17798SOL     OW55225   6.933  12.026  12.545
17798SOL    HW155226   6.919  11.961  12.614
17798SOL    HW255227   6.937  11.974  12.464
17799SOL     OW55228  10.413   5.076   8.170
17799SOL    HW155229  10.464   5.088   8.251
17799SOL    HW255230  10.478   5.074   8.101
17800SOL     OW55231  13.416   4.658   5.672
17800SOL    HW155232  13.354   4.718   5.713
17800SOL    HW255233  13.384   4.647   5.583
17801SOL     OW55234   6.369   4.957  14.358
17801SOL    HW155235   6.445   4.964  14.300
17801SOL    HW255236   6.337   5.046  14.368
17802SOL     OW55237   4.203  10.809   9.710
17802SOL    HW155238   4.151  10.734   9.682
17802SOL    HW255239   4.267  10.822   9.639
17803SOL     OW55240   0.051  12.360   8.595
17803SOL    HW155241   0.100  12.286   8.560
17803SOL    HW255242   0.056  12.427   8.526
17804SOL     OW55243  14.725  11.955   4.518
17804SOL    HW155244  14.675  12.028   4.480
17804SOL    HW255245  14.755  11.905   4.442
17805SOL     OW55246   8.360  13.364   9.331
17805SOL    HW155247   8.419  13.405   9.268
17805SOL    HW255248   8.320  13.292   9.283
17806SOL     OW55249   9.385  12.844   1.795
17806SOL    HW155250   9.457  12.851   1.857
17806SOL    HW255251   9.367  12.750   1.790
17807SOL     OW55252   0.588  10.613   3.057
17807SOL    HW155253   0.613  10.692   3.010
17807SOL    HW255254   0.642  10.544   3.020
17808SOL     OW55255   6.270   0.214   3.701
17808SOL    HW155256   6.306   0.219   3.613
17808SOL    HW255257   6.206   0.143   3.697
17809SOL     OW55258   7.979   5.814   3.883
17809SOL    HW155259   8.064   5.794   3.923
17809SOL    HW255260   7.919   5.750   3.921
17810SOL     OW55261   0.084   9.672   8.651
17810SOL    HW155262   0.142   9.608   8.692
17810SOL    HW255263   0.050   9.626   8.574
17811SOL     OW55264  14.675   9.363  12.494
17811SOL    HW155265  14.661   9.439  12.550
17811SOL    HW255266  14.700   9.293  12.555
17812SOL     OW55267   2.736  14.468   2.378
17812SOL    HW155268   2.767  14.536   2.318
17812SOL    HW255269   2.776  14.490   2.462
17813SOL     OW55270   2.059   3.029  10.865
17813SOL    HW155271   2.154   3.035  10.855
17813SOL    HW255272   2.042   2.936  10.879
17814SOL     OW55273   9.911   5.932  13.671
17814SOL    HW155274   9.862   6.010  13.697
17814SOL    HW255275   9.862   5.896  13.597
17815SOL     OW55276   2.977  14.498   0.370
17815SOL    HW155277   3.051  14.454   0.413
17815SOL    HW255278   3.013  14.582   0.342
17816SOL     OW55279  12.926  12.611   7.244
17816SOL    HW155280  12.975  12.638   7.166
17816SOL    HW255281  12.926  12.688   7.300
17817SOL     OW55282   7.743   1.656  13.075
17817SOL    HW155283   7.794   1.735  13.057
17817SOL    HW255284   7.802   1.584  13.053
17818SOL     OW55285  14.525  11.641   3.835
17818SOL    HW155286  14.567  11.714   3.790
17818SOL    HW255287  14.565  11.563   3.798
17819SOL     OW55288   3.032   7.168   3.587
17819SOL    HW155289   2.937   7.179   3.591
17819SOL    HW255290   3.055   7.130   3.671
17820SOL     OW55291   8.490   1.978  14.536
17820SOL    HW155292   8.576   2.003  14.502
17820SOL    HW255293   8.450   1.928  14.465
17821SOL     OW55294  10.014   4.549  14.735
17821SOL    HW155295   9.930   4.534  14.777
17821SOL    HW255296   9.999   4.528  14.643
17822SOL     OW55297   3.038   0.938   3.099
17822SOL    HW155298   3.111   0.979   3.143
17822SOL    HW255299   3.078   0.882   3.032
17823SOL     OW55300  14.304  13.114   0.576
17823SOL    HW155301  14.348  13.199   0.587
17823SOL    HW255302  14.215  13.129   0.608
17824SOL     OW55303  11.763   6.874  12.609
17824SOL    HW155304  11.720   6.835  12.533
17824SOL    HW255305  11.791   6.799  12.661
17825SOL     OW55306  10.782   1.751   0.302
17825SOL    HW155307  10.810   1.702   0.225
17825SOL    HW255308  10.844   1.727   0.371
17826SOL     OW55309   6.582   5.786   3.957
17826SOL    HW155310   6.636   5.846   3.905
17826SOL    HW255311   6.527   5.742   3.893
17827SOL     OW55312   3.137   8.591   1.044
17827SOL    HW155313   3.049   8.618   1.017
17827SOL    HW255314   3.182   8.570   0.962
17828SOL     OW55315  12.786   4.442  10.789
17828SOL    HW155316  12.846   4.432  10.863
17828SOL    HW255317  12.783   4.355  10.748
17829SOL     OW55318   2.165  14.588   5.655
17829SOL    HW155319   2.180  14.497   5.630
17829SOL    HW255320   2.248  14.632   5.635
17830SOL     OW55321  11.822   9.980  10.850
17830SOL    HW155322  11.853   9.900  10.808
17830SOL    HW255323  11.854   9.974  10.941
17831SOL     OW55324   8.756   9.073   4.682
17831SOL    HW155325   8.691   9.143   4.689
17831SOL    HW255326   8.711   9.004   4.633
17832SOL     OW55327   7.614   6.013   4.099
17832SOL    HW155328   7.579   6.090   4.142
17832SOL    HW255329   7.709   6.027   4.099
17833SOL     OW55330   0.081   8.502  12.414
17833SOL    HW155331   0.105   8.410  12.410
17833SOL    HW255332   0.048   8.523  12.326
17834SOL     OW55333   7.475   3.676   7.875
17834SOL    HW155334   7.380   3.686   7.878
17834SOL    HW255335   7.503   3.737   7.806
17835SOL     OW55336   7.036   2.848  12.245
17835SOL    HW155337   7.075   2.853  12.158
17835SOL    HW255338   7.074   2.922  12.293
17836SOL     OW55339   3.303   5.992   1.351
17836SOL    HW155340   3.244   5.975   1.278
17836SOL    HW255341   3.287   6.084   1.373
17837SOL     OW55342  12.993   7.311  11.840
17837SOL    HW155343  12.906   7.271  11.846
17837SOL    HW255344  12.989   7.368  11.763
17838SOL     OW55345   7.147   8.441   7.610
17838SOL    HW155346   7.129   8.423   7.518
17838SOL    HW255347   7.132   8.535   7.619
17839SOL     OW55348  14.532   4.027  10.512
17839SOL    HW155349  14.459   3.969  10.491
17839SOL    HW255350  14.539   4.023  10.607
17840SOL     OW55351   5.632   1.057   3.079
17840SOL    HW155352   5.592   0.973   3.102
17840SOL    HW255353   5.681   1.038   2.999
17841SOL     OW55354   4.459  11.783   9.966
17841SOL    HW155355   4.512  11.859   9.944
17841SOL    HW255356   4.522  11.719   9.999
17842SOL     OW55357   9.529   5.900   9.131
17842SOL    HW155358   9.563   5.811   9.132
17842SOL    HW255359   9.601   5.953   9.096
17843SOL     OW55360  13.168   0.975  13.183
17843SOL    HW155361  13.202   1.004  13.098
17843SOL    HW255362  13.076   0.952  13.165
17844SOL     OW55363   3.018   1.914   5.751
17844SOL    HW155364   3.112   1.906   5.765
17844SOL    HW255365   2.992   1.831   5.712
17845SOL     OW55366   6.889   4.758  14.078
17845SOL    HW155367   6.909   4.679  14.129
17845SOL    HW255368   6.932   4.829  14.126
17846SOL     OW55369   2.211   5.549  10.315
17846SOL    HW155370   2.240   5.489  10.247
17846SOL    HW255371   2.133   5.508  10.352
17847SOL     OW55372   8.395   4.403   6.554
17847SOL    HW155373   8.308   4.383   6.589
17847SOL    HW255374   8.436   4.457   6.622
17848SOL     OW55375   2.845   1.752   4.587
17848SOL    HW155376   2.753   1.753   4.559
17848SOL    HW255377   2.892   1.799   4.518
17849SOL     OW55378  14.489   7.943  13.020
17849SOL    HW155379  14.554   8.011  13.038
17849SOL    HW255380  14.510   7.913  12.932
17850SOL     OW55381   1.787   0.146   4.917
17850SOL    HW155382   1.874   0.186   4.920
17850SOL    HW255383   1.753   0.170   4.830
17851SOL     OW55384  13.832  10.432  10.864
17851SOL    HW155385  13.897  10.483  10.913
17851SOL    HW255386  13.873  10.415  10.779
17852SOL     OW55387   4.934  11.147   5.112
17852SOL    HW155388   4.846  11.150   5.073
17852SOL    HW255389   4.977  11.073   5.068
17853SOL     OW55390   3.239   1.448   3.302
17853SOL    HW155391   3.278   1.380   3.246
17853SOL    HW255392   3.269   1.426   3.390
17854SOL     OW55393   9.911   3.342   2.966
17854SOL    HW155394   9.883   3.380   2.883
17854SOL    HW255395  10.007   3.344   2.962
17855SOL     OW55396   7.186  12.498   9.019
17855SOL    HW155397   7.202  12.414   8.977
17855SOL    HW255398   7.227  12.562   8.962
17856SOL     OW55399  10.201   4.903  13.575
17856SOL    HW155400  10.145   4.829  13.552
17856SOL    HW255401  10.142   4.967  13.614
17857SOL     OW55402  13.868  11.761   7.527
17857SOL    HW155403  13.876  11.748   7.622
17857SOL    HW255404  13.774  11.772   7.512
17858SOL     OW55405   2.605   4.267   5.737
17858SOL    HW155406   2.528   4.234   5.690
17858SOL    HW255407   2.680   4.239   5.683
17859SOL     OW55408  11.417   5.032  12.314
17859SOL    HW155409  11.344   4.971  12.327
17859SOL    HW255410  11.407   5.063  12.224
17860SOL     OW55411  13.689  14.609  14.618
17860SOL    HW155412  13.713  14.627  14.528
17860SOL    HW255413  13.770  14.622  14.668
17861SOL     OW55414   1.884   4.254   6.387
17861SOL    HW155415   1.862   4.343   6.413
17861SOL    HW255416   1.974   4.241   6.417
17862SOL     OW55417  13.431   0.307  11.447
17862SOL    HW155418  13.367   0.320  11.517
17862SOL    HW255419  13.463   0.395  11.428
17863SOL     OW55420   4.618   0.746   5.702
17863SOL    HW155421   4.544   0.725   5.760
17863SOL    HW255422   4.684   0.783   5.761
17864SOL     OW55423   2.725   0.539  14.778
17864SOL    HW155424   2.650   0.572  14.828
17864SOL    HW255425   2.801   0.577  14.823
17865SOL     OW55426   4.448  11.607  14.224
17865SOL    HW155427   4.433  11.674  14.158
17865SOL    HW255428   4.525  11.559  14.194
17866SOL     OW55429   4.582   7.506  10.460
17866SOL    HW155430   4.637   7.444  10.509
17866SOL    HW255431   4.557   7.572  10.524
17867SOL     OW55432   7.738  10.652  13.829
17867SOL    HW155433   7.665  10.704  13.796
17867SOL    HW255434   7.808  10.666  13.765
17868SOL     OW55435   4.226  12.605  13.302
17868SOL    HW155436   4.320  12.611  13.283
17868SOL    HW255437   4.219  12.529  13.360
17869SOL     OW55438   5.441  11.727   1.655
17869SOL    HW155439   5.455  11.777   1.735
17869SOL    HW255440   5.358  11.759   1.621
17870SOL     OW55441   2.995   0.244   0.923
17870SOL    HW155442   3.056   0.318   0.924
17870SOL    HW255443   2.912   0.281   0.893
17871SOL     OW55444  11.053   6.170   6.722
17871SOL    HW155445  11.063   6.135   6.811
17871SOL    HW255446  10.978   6.230   6.729
17872SOL     OW55447  14.481  12.799   8.789
17872SOL    HW155448  14.467  12.893   8.800
17872SOL    HW255449  14.551  12.793   8.724
17873SOL     OW55450  11.498  14.470   1.279
17873SOL    HW155451  11.491  14.563   1.299
17873SOL    HW255452  11.426  14.429   1.328
17874SOL     OW55453  14.196   0.785  13.012
17874SOL    HW155454  14.134   0.780  13.084
17874SOL    HW255455  14.162   0.723  12.947
17875SOL     OW55456   4.902   8.135  11.152
17875SOL    HW155457   4.835   8.119  11.086
17875SOL    HW255458   4.859   8.115  11.235
17876SOL     OW55459   3.223   4.046   2.439
17876SOL    HW155460   3.238   3.979   2.505
17876SOL    HW255461   3.159   4.006   2.379
17877SOL     OW55462   6.137   4.246   5.881
17877SOL    HW155463   6.048   4.280   5.887
17877SOL    HW255464   6.192   4.323   5.871
17878SOL     OW55465   6.339   0.533   1.114
17878SOL    HW155466   6.260   0.493   1.078
17878SOL    HW255467   6.339   0.507   1.206
17879SOL     OW55468   1.321  13.850   5.929
17879SOL    HW155469   1.240  13.802   5.911
17879SOL    HW255470   1.299  13.941   5.908
17880SOL     OW55471   8.296   1.923   6.133
17880SOL    HW155472   8.250   1.888   6.057
17880SOL    HW255473   8.389   1.922   6.107
17881SOL     OW55474   3.898  10.969   0.524
17881SOL    HW155475   3.901  11.004   0.434
17881SOL    HW255476   3.888  11.046   0.579
17882SOL     OW55477  14.274   7.840   3.738
17882SOL    HW155478  14.359   7.804   3.761
17882SOL    HW255479  14.235   7.776   3.679
17883SOL     OW55480  10.187  10.971   1.322
17883SOL    HW155481  10.138  11.052   1.307
17883SOL    HW255482  10.137  10.903   1.276
17884SOL     OW55483   7.471  10.476   2.325
17884SOL    HW155484   7.458  10.400   2.268
17884SOL    HW255485   7.457  10.551   2.268
17885SOL     OW55486  13.826   3.900  10.633
17885SOL    HW155487  13.864   3.908  10.720
17885SOL    HW255488  13.818   3.990  10.602
17886SOL     OW55489   1.590  13.006  14.434
17886SOL    HW155490   1.560  13.075  14.494
17886SOL    HW255491   1.540  13.022  14.353
17887SOL     OW55492   5.338   9.402   8.085
17887SOL    HW155493   5.372   9.382   8.173
17887SOL    HW255494   5.375   9.335   8.029
17888SOL     OW55495   3.440  13.465  12.037
17888SOL    HW155496   3.358  13.515  12.031
17888SOL    HW255497   3.507  13.526  12.008
17889SOL     OW55498  11.372  14.061  14.511
17889SOL    HW155499  11.446  14.065  14.451
17889SOL    HW255500  11.381  13.976  14.554
17890SOL     OW55501   3.269   7.188   7.908
17890SOL    HW155502   3.355   7.163   7.942
17890SOL    HW255503   3.250   7.272   7.949
17891SOL     OW55504   2.490   6.912   3.542
17891SOL    HW155505   2.509   6.820   3.525
17891SOL    HW255506   2.467   6.948   3.456
17892SOL     OW55507   2.611  13.138   8.697
17892SOL    HW155508   2.605  13.077   8.624
17892SOL    HW255509   2.536  13.196   8.686
17893SOL     OW55510   6.463   4.276   3.180
17893SOL    HW155511   6.411   4.345   3.221
17893SOL    HW255512   6.421   4.195   3.207
17894SOL     OW55513   4.801   1.704   4.425
17894SOL    HW155514   4.893   1.680   4.414
17894SOL    HW255515   4.769   1.647   4.495
17895SOL     OW55516   9.306   6.768   0.371
17895SOL    HW155517   9.348   6.834   0.427
17895SOL    HW255518   9.360   6.690   0.382
17896SOL     OW55519   1.394   8.933   2.168
17896SOL    HW155520   1.453   9.000   2.133
17896SOL    HW255521   1.321   8.983   2.204
17897SOL     OW55522   7.470   3.423  14.375
17897SOL    HW155523   7.529   3.472  14.317
17897SOL    HW255524   7.490   3.456  14.463
17898SOL     OW55525   6.872   6.597   5.543
17898SOL    HW155526   6.791   6.596   5.595
17898SOL    HW255527   6.875   6.685   5.506
17899SOL     OW55528   2.123   9.050   8.030
17899SOL    HW155529   2.165   8.965   8.017
17899SOL    HW255530   2.067   9.038   8.107
17900SOL     OW55531  10.035   2.439  14.542
17900SOL    HW155532  10.081   2.368  14.497
17900SOL    HW255533   9.946   2.406  14.553
17901SOL     OW55534   5.723  12.045   9.943
17901SOL    HW155535   5.667  12.012   9.873
17901SOL    HW255536   5.680  12.018  10.023
17902SOL     OW55537  14.016   1.721   3.392
17902SOL    HW155538  14.001   1.727   3.297
17902SOL    HW255539  13.939   1.761   3.431
17903SOL     OW55540   7.159   0.971   7.956
17903SOL    HW155541   7.136   0.880   7.939
17903SOL    HW255542   7.075   1.017   7.961
17904SOL     OW55543   4.117   1.651   7.409
17904SOL    HW155544   4.022   1.653   7.400
17904SOL    HW255545   4.132   1.653   7.504
17905SOL     OW55546   5.434   3.872   6.026
17905SOL    HW155547   5.431   3.935   5.954
17905SOL    HW255548   5.446   3.787   5.984
17906SOL     OW55549   2.943   6.959   4.521
17906SOL    HW155550   2.997   7.006   4.585
17906SOL    HW255551   2.996   6.958   4.442
17907SOL     OW55552   9.843  11.483   8.950
17907SOL    HW155553   9.869  11.514   9.037
17907SOL    HW255554   9.750  11.461   8.959
17908SOL     OW55555   2.361   7.349   1.596
17908SOL    HW155556   2.383   7.336   1.688
17908SOL    HW255557   2.438   7.391   1.559
17909SOL     OW55558   0.525   2.906  12.289
17909SOL    HW155559   0.501   2.843  12.357
17909SOL    HW255560   0.606   2.871  12.252
17910SOL     OW55561   6.218  13.660   7.459
17910SOL    HW155562   6.143  13.674   7.401
17910SOL    HW255563   6.194  13.704   7.541
17911SOL     OW55564   4.001   5.479   0.207
17911SOL    HW155565   4.009   5.440   0.119
17911SOL    HW255566   4.085   5.461   0.249
17912SOL     OW55567  14.500   1.407   9.552
17912SOL    HW155568  14.460   1.488   9.521
17912SOL    HW255569  14.504   1.351   9.474
17913SOL     OW55570  13.969   4.475   0.626
17913SOL    HW155571  13.963   4.567   0.651
17913SOL    HW255572  14.019   4.434   0.696
17914SOL     OW55573  11.370   7.361   1.747
17914SOL    HW155574  11.344   7.449   1.721
17914SOL    HW255575  11.465   7.359   1.734
17915SOL     OW55576  12.631  13.804   7.831
17915SOL    HW155577  12.560  13.779   7.772
17915SOL    HW255578  12.590  13.806   7.918
17916SOL     OW55579  11.938  11.393   2.732
17916SOL    HW155580  11.972  11.311   2.698
17916SOL    HW255581  11.978  11.461   2.677
17917SOL     OW55582  10.535   4.343   4.408
17917SOL    HW155583  10.503   4.285   4.477
17917SOL    HW255584  10.466   4.410   4.400
17918SOL     OW55585  11.351  14.870   4.979
17918SOL    HW155586  11.406   0.064   4.996
17918SOL    HW255587  11.402  14.796   5.011
17919SOL     OW55588   4.462  12.335   9.554
17919SOL    HW155589   4.375  12.296   9.556
17919SOL    HW255590   4.485  12.337   9.461
17920SOL     OW55591   4.250  13.165   2.402
17920SOL    HW155592   4.270  13.102   2.333
17920SOL    HW255593   4.286  13.126   2.481
17921SOL     OW55594   3.863   5.529   5.132
17921SOL    HW155595   3.849   5.437   5.107
17921SOL    HW255596   3.932   5.559   5.073
17922SOL     OW55597  14.818  11.767   2.105
17922SOL    HW155598   0.008  11.830   2.098
17922SOL    HW255599  14.766  11.798   2.179
17923SOL     OW55600   6.017   9.142   3.550
17923SOL    HW155601   6.047   9.070   3.495
17923SOL    HW255602   5.926   9.120   3.571
17924SOL     OW55603   9.447  11.191   0.977
17924SOL    HW155604   9.386  11.117   0.984
17924SOL    HW255605   9.390  11.267   0.961
17925SOL     OW55606   4.790   6.944   8.281
17925SOL    HW155607   4.811   6.857   8.248
17925SOL    HW255608   4.852   7.002   8.237
17926SOL     OW55609   5.257  10.016   5.144
17926SOL    HW155610   5.330   9.998   5.203
17926SOL    HW255611   5.296  10.066   5.072
17927SOL     OW55612  14.756  11.093   3.753
17927SOL    HW155613  14.816  11.117   3.683
17927SOL    HW255614  14.753  11.171   3.809
17928SOL     OW55615   8.566  10.969   3.410
17928SOL    HW155616   8.523  11.047   3.444
17928SOL    HW255617   8.495  10.908   3.391
17929SOL     OW55618  11.561   2.953   0.786
17929SOL    HW155619  11.494   3.013   0.817
17929SOL    HW255620  11.642   2.984   0.825
17930SOL     OW55621  10.144  10.187  13.920
17930SOL    HW155622  10.152  10.146  14.006
17930SOL    HW255623  10.199  10.133  13.863
17931SOL     OW55624  14.206   5.522  11.325
17931SOL    HW155625  14.301   5.523  11.334
17931SOL    HW255626  14.186   5.600  11.274
17932SOL     OW55627  13.906   6.151  13.857
17932SOL    HW155628  13.946   6.107  13.782
17932SOL    HW255629  13.956   6.232  13.867
17933SOL     OW55630   2.895   5.282   7.031
17933SOL    HW155631   2.924   5.241   7.112
17933SOL    HW255632   2.915   5.375   7.042
17934SOL     OW55633   7.459  10.750  12.228
17934SOL    HW155634   7.389  10.688  12.249
17934SOL    HW255635   7.432  10.789  12.145
17935SOL     OW55636   1.894   3.295   7.891
17935SOL    HW155637   1.810   3.297   7.936
17935SOL    HW255638   1.871   3.286   7.798
17936SOL     OW55639  12.729   7.558   8.043
17936SOL    HW155640  12.704   7.529   7.955
17936SOL    HW255641  12.647   7.553   8.093
17937SOL     OW55642  11.641   7.862   1.163
17937SOL    HW155643  11.583   7.819   1.101
17937SOL    HW255644  11.719   7.807   1.165
17938SOL     OW55645   8.784  14.155  10.721
17938SOL    HW155646   8.839  14.097  10.668
17938SOL    HW255647   8.778  14.236  10.671
17939SOL     OW55648   2.907   0.354   6.273
17939SOL    HW155649   2.973   0.317   6.332
17939SOL    HW255650   2.908   0.448   6.293
17940SOL     OW55651   4.314   3.669   6.124
17940SOL    HW155652   4.318   3.713   6.039
17940SOL    HW255653   4.341   3.579   6.106
17941SOL     OW55654   6.681   7.865   1.297
17941SOL    HW155655   6.621   7.803   1.338
17941SOL    HW255656   6.624   7.925   1.250
17942SOL     OW55657   8.081   7.335   0.278
17942SOL    HW155658   8.093   7.373   0.191
17942SOL    HW255659   8.163   7.291   0.296
17943SOL     OW55660   7.487   6.578   4.090
17943SOL    HW155661   7.417   6.563   4.154
17943SOL    HW255662   7.567   6.559   4.139
17944SOL     OW55663  13.140   3.987   9.065
17944SOL    HW155664  13.165   4.024   8.980
17944SOL    HW255665  13.073   3.921   9.044
17945SOL     OW55666   1.427   7.170   4.720
17945SOL    HW155667   1.477   7.114   4.780
17945SOL    HW255668   1.359   7.113   4.685
17946SOL     OW55669  10.894  11.046   5.420
17946SOL    HW155670  10.914  10.966   5.371
17946SOL    HW255671  10.905  11.021   5.512
17947SOL     OW55672   7.746   8.219   4.136
17947SOL    HW155673   7.822   8.271   4.164
17947SOL    HW255674   7.677   8.284   4.120
17948SOL     OW55675   8.943   6.033   2.314
17948SOL    HW155676   9.009   5.965   2.299
17948SOL    HW255677   8.927   6.070   2.227
17949SOL     OW55678  13.853   9.243   5.651
17949SOL    HW155679  13.862   9.162   5.601
17949SOL    HW255680  13.927   9.242   5.712
17950SOL     OW55681   8.639  13.314   3.799
17950SOL    HW155682   8.660  13.327   3.706
17950SOL    HW255683   8.564  13.372   3.815
17951SOL     OW55684   1.012  14.519   6.545
17951SOL    HW155685   1.095  14.548   6.582
17951SOL    HW255686   1.017  14.423   6.548
17952SOL     OW55687   0.289   5.229   1.239
17952SOL    HW155688   0.323   5.277   1.314
17952SOL    HW255689   0.347   5.253   1.166
17953SOL     OW55690   0.956  10.641   9.830
17953SOL    HW155691   0.994  10.554   9.814
17953SOL    HW255692   0.889  10.625   9.897
17954SOL     OW55693   4.553   1.898   1.133
17954SOL    HW155694   4.500   1.973   1.108
17954SOL    HW255695   4.612   1.931   1.200
17955SOL     OW55696   6.936  12.799   4.841
17955SOL    HW155697   6.938  12.885   4.884
17955SOL    HW255698   7.028  12.776   4.827
17956SOL     OW55699   2.678  13.559   2.734
17956SOL    HW155700   2.754  13.610   2.705
17956SOL    HW255701   2.604  13.599   2.688
17957SOL     OW55702   4.594  11.591  11.842
17957SOL    HW155703   4.633  11.659  11.896
17957SOL    HW255704   4.666  11.531  11.823
17958SOL     OW55705   4.077  10.117   8.762
17958SOL    HW155706   4.145  10.176   8.793
17958SOL    HW255707   4.004  10.129   8.822
17959SOL     OW55708   5.204   9.451  12.887
17959SOL    HW155709   5.212   9.408  12.802
17959SOL    HW255710   5.111   9.442  12.910
17960SOL     OW55711   8.010  10.766   1.899
17960SOL    HW155712   8.030  10.674   1.884
17960SOL    HW255713   8.095  10.811   1.894
17961SOL     OW55714  14.154  12.393  13.725
17961SOL    HW155715  14.084  12.327  13.726
17961SOL    HW255716  14.155  12.426  13.636
17962SOL     OW55717   2.154   1.775   2.868
17962SOL    HW155718   2.192   1.844   2.922
17962SOL    HW255719   2.078   1.816   2.827
17963SOL     OW55720   4.104  10.701   8.621
17963SOL    HW155721   4.173  10.656   8.572
17963SOL    HW255722   4.035  10.636   8.631
17964SOL     OW55723   5.653   9.980   4.631
17964SOL    HW155724   5.575   9.929   4.651
17964SOL    HW255725   5.718   9.952   4.695
17965SOL     OW55726  12.262   0.843   0.591
17965SOL    HW155727  12.318   0.918   0.613
17965SOL    HW255728  12.181   0.859   0.639
17966SOL     OW55729   7.219   2.822  11.753
17966SOL    HW155730   7.160   2.771  11.697
17966SOL    HW255731   7.256   2.889  11.695
17967SOL     OW55732  13.754   1.414   7.638
17967SOL    HW155733  13.721   1.333   7.678
17967SOL    HW255734  13.690   1.435   7.570
17968SOL     OW55735  12.522   2.977   5.113
17968SOL    HW155736  12.510   3.058   5.163
17968SOL    HW255737  12.547   2.912   5.179
17969SOL     OW55738   9.705  14.191  11.654
17969SOL    HW155739   9.651  14.163  11.728
17969SOL    HW255740   9.718  14.285  11.668
17970SOL     OW55741  10.829   9.129  10.408
17970SOL    HW155742  10.920   9.117  10.436
17970SOL    HW255743  10.785   9.165  10.485
17971SOL     OW55744   9.928   1.060   3.559
17971SOL    HW155745   9.904   0.971   3.529
17971SOL    HW255746  10.023   1.057   3.569
17972SOL     OW55747   6.891   2.391  12.921
17972SOL    HW155748   6.859   2.473  12.884
17972SOL    HW255749   6.986   2.401  12.924
17973SOL     OW55750   7.054  13.321   8.685
17973SOL    HW155751   7.133  13.321   8.739
17973SOL    HW255752   7.051  13.409   8.647
17974SOL     OW55753   4.164  14.118   2.518
17974SOL    HW155754   4.224  14.098   2.446
17974SOL    HW255755   4.217  14.106   2.597
17975SOL     OW55756   2.103  10.964   8.382
17975SOL    HW155757   2.172  10.980   8.448
17975SOL    HW255758   2.130  10.883   8.339
17976SOL     OW55759   2.768  10.318  12.842
17976SOL    HW155760   2.840  10.284  12.789
17976SOL    HW255761   2.699  10.338  12.778
17977SOL     OW55762   4.148   7.150   5.082
17977SOL    HW155763   4.140   7.055   5.091
17977SOL    HW255764   4.167   7.181   5.170
17978SOL     OW55765   5.872  14.060   8.167
17978SOL    HW155766   5.843  13.993   8.105
17978SOL    HW255767   5.791  14.102   8.197
17979SOL     OW55768  14.101   5.483   6.176
17979SOL    HW155769  14.010   5.461   6.159
17979SOL    HW255770  14.101   5.523   6.263
17980SOL     OW55771   1.555  12.715   2.559
17980SOL    HW155772   1.644  12.681   2.558
17980SOL    HW255773   1.561  12.799   2.512
17981SOL     OW55774   1.044   6.807  10.817
17981SOL    HW155775   1.139   6.823  10.823
17981SOL    HW255776   1.032   6.721  10.857
17982SOL     OW55777   9.919   3.729   8.943
17982SOL    HW155778   9.838   3.708   8.988
17982SOL    HW255779   9.892   3.751   8.854
17983SOL     OW55780  14.878  11.614   9.454
17983SOL    HW155781   0.013  11.643   9.544
17983SOL    HW255782  14.820  11.538   9.464
17984SOL     OW55783   7.372   6.918  14.011
17984SOL    HW155784   7.337   7.006  14.023
17984SOL    HW255785   7.435   6.926  13.939
17985SOL     OW55786   8.465  14.330   1.276
17985SOL    HW155787   8.413  14.397   1.321
17985SOL    HW255788   8.400  14.277   1.229
17986SOL     OW55789   8.846   3.857   4.426
17986SOL    HW155790   8.875   3.860   4.335
17986SOL    HW255791   8.886   3.777   4.461
17987SOL     OW55792   7.335   5.028   4.818
17987SOL    HW155793   7.305   4.943   4.850
17987SOL    HW255794   7.428   5.015   4.797
17988SOL     OW55795   8.697   6.003   8.233
17988SOL    HW155796   8.719   5.912   8.211
17988SOL    HW255797   8.746   6.021   8.313
17989SOL     OW55798  12.854   7.122   9.960
17989SOL    HW155799  12.823   7.134  10.049
17989SOL    HW255800  12.946   7.149   9.962
17990SOL     OW55801  11.065   8.848   3.638
17990SOL    HW155802  10.993   8.802   3.682
17990SOL    HW255803  11.138   8.786   3.643
17991SOL     OW55804   5.482   5.535  11.682
17991SOL    HW155805   5.446   5.623  11.685
17991SOL    HW255806   5.410   5.478  11.711
17992SOL     OW55807   1.413  13.227   5.318
17992SOL    HW155808   1.467  13.224   5.239
17992SOL    HW255809   1.474  13.249   5.388
17993SOL     OW55810   6.413  13.935   9.670
17993SOL    HW155811   6.369  13.995   9.610
17993SOL    HW255812   6.342  13.893   9.719
17994SOL     OW55813  12.242  11.561   7.741
17994SOL    HW155814  12.325  11.519   7.762
17994SOL    HW255815  12.206  11.508   7.669
17995SOL     OW55816  11.101  13.204   2.039
17995SOL    HW155817  11.052  13.250   1.971
17995SOL    HW255818  11.190  13.239   2.032
17996SOL     OW55819   7.760   4.132   8.423
17996SOL    HW155820   7.727   4.205   8.475
17996SOL    HW255821   7.682   4.092   8.385
17997SOL     OW55822  14.131   9.305   2.471
17997SOL    HW155823  14.080   9.225   2.459
17997SOL    HW255824  14.070   9.376   2.451
17998SOL     OW55825  10.696   7.206   3.467
17998SOL    HW155826  10.747   7.251   3.400
17998SOL    HW255827  10.612   7.252   3.468
17999SOL     OW55828   9.973  14.110   6.039
17999SOL    HW155829   9.896  14.156   6.073
17999SOL    HW255830   9.936  14.042   5.982
18000SOL     OW55831   1.936   0.473   8.016
18000SOL    HW155832   1.852   0.448   8.054
18000SOL    HW255833   1.945   0.566   8.037
18001SOL     OW55834   0.146   1.995  14.439
18001SOL    HW155835   0.185   2.038  14.363
18001SOL    HW255836   0.053   2.017  14.433
18002SOL     OW55837   9.655   3.401  13.287
18002SOL    HW155838   9.609   3.333  13.337
18002SOL    HW255839   9.649   3.480  13.341
18003SOL     OW55840   7.224   3.283  13.959
18003SOL    HW155841   7.140   3.239  13.972
18003SOL    HW255842   7.265   3.283  14.046
18004SOL     OW55843   4.638   8.000   8.921
18004SOL    HW155844   4.689   7.949   8.857
18004SOL    HW255845   4.585   8.059   8.868
18005SOL     OW55846   3.639   9.994   9.261
18005SOL    HW155847   3.703   9.964   9.326
18005SOL    HW255848   3.684   9.983   9.177
18006SOL     OW55849   6.341   9.036   6.242
18006SOL    HW155850   6.430   9.003   6.236
18006SOL    HW255851   6.346   9.125   6.207
18007SOL     OW55852   6.442   6.964   7.454
18007SOL    HW155853   6.420   6.987   7.363
18007SOL    HW255854   6.377   6.899   7.478
18008SOL     OW55855  12.499   1.105  10.204
18008SOL    HW155856  12.536   1.020  10.181
18008SOL    HW255857  12.414   1.085  10.242
18009SOL     OW55858   3.760   9.450   1.949
18009SOL    HW155859   3.669   9.431   1.928
18009SOL    HW255860   3.806   9.367   1.934
18010SOL     OW55861  10.121   9.066   2.617
18010SOL    HW155862  10.182   8.997   2.644
18010SOL    HW255863  10.174   9.127   2.566
18011SOL     OW55864   7.459  11.839   6.240
18011SOL    HW155865   7.457  11.814   6.148
18011SOL    HW255866   7.550  11.866   6.256
18012SOL     OW55867   4.840   6.787   9.913
18012SOL    HW155868   4.762   6.806   9.862
18012SOL    HW255869   4.912   6.790   9.850
18013SOL     OW55870  14.727   0.316   9.104
18013SOL    HW155871  14.808   0.347   9.064
18013SOL    HW255872  14.675   0.283   9.030
18014SOL     OW55873   1.302   2.414   2.778
18014SOL    HW155874   1.324   2.346   2.714
18014SOL    HW255875   1.379   2.470   2.780
18015SOL     OW55876   4.108  13.252   1.558
18015SOL    HW155877   4.127  13.329   1.504
18015SOL    HW255878   4.188  13.239   1.609
18016SOL     OW55879  10.868   5.355   8.261
18016SOL    HW155880  10.912   5.408   8.194
18016SOL    HW255881  10.937   5.334   8.324
18017SOL     OW55882   1.874  10.330   6.541
18017SOL    HW155883   1.801  10.293   6.492
18017SOL    HW255884   1.928  10.373   6.476
18018SOL     OW55885  13.709   4.119   9.317
18018SOL    HW155886  13.672   4.071   9.243
18018SOL    HW255887  13.777   4.175   9.279
18019SOL     OW55888   7.340   5.862   1.672
18019SOL    HW155889   7.316   5.844   1.763
18019SOL    HW255890   7.261   5.900   1.634
18020SOL     OW55891   8.332   3.385   5.427
18020SOL    HW155892   8.267   3.453   5.442
18020SOL    HW255893   8.359   3.357   5.514
18021SOL     OW55894   4.314  13.271   8.570
18021SOL    HW155895   4.382  13.210   8.542
18021SOL    HW255896   4.328  13.281   8.664
18022SOL     OW55897  10.885  12.192   8.561
18022SOL    HW155898  10.969  12.170   8.602
18022SOL    HW255899  10.819  12.163   8.624
18023SOL     OW55900   1.512   5.996   1.700
18023SOL    HW155901   1.418   6.016   1.698
18023SOL    HW255902   1.540   6.003   1.609
18024SOL     OW55903   2.317   4.459  11.929
18024SOL    HW155904   2.382   4.409  11.881
18024SOL    HW255905   2.236   4.409  11.919
18025SOL     OW55906   4.828  11.534   5.449
18025SOL    HW155907   4.899  11.532   5.385
18025SOL    HW255908   4.750  11.509   5.399
18026SOL     OW55909   8.332   4.656   0.112
18026SOL    HW155910   8.408   4.692   0.158
18026SOL    HW255911   8.368   4.623   0.030
18027SOL     OW55912   7.723   0.291  10.586
18027SOL    HW155913   7.814   0.279  10.611
18027SOL    HW255914   7.726   0.316  10.494
18028SOL     OW55915   5.049   3.176   0.621
18028SOL    HW155916   5.120   3.215   0.570
18028SOL    HW255917   5.078   3.182   0.712
18029SOL     OW55918   5.980   6.722  12.089
18029SOL    HW155919   5.932   6.795  12.128
18029SOL    HW255920   5.931   6.701  12.010
18030SOL     OW55921  12.952  12.042   3.680
18030SOL    HW155922  13.027  12.062   3.624
18030SOL    HW255923  12.955  12.106   3.750
18031SOL     OW55924  14.458   2.807   2.409
18031SOL    HW155925  14.533   2.830   2.354
18031SOL    HW255926  14.451   2.880   2.470
18032SOL     OW55927   5.880  12.640   7.839
18032SOL    HW155928   5.946  12.708   7.827
18032SOL    HW255929   5.829  12.642   7.758
18033SOL     OW55930   0.810   5.342   2.089
18033SOL    HW155931   0.852   5.270   2.136
18033SOL    HW255932   0.876   5.373   2.027
18034SOL     OW55933   2.872   7.545   4.656
18034SOL    HW155934   2.881   7.450   4.671
18034SOL    HW255935   2.936   7.585   4.714
18035SOL     OW55936   1.488   3.320  11.882
18035SOL    HW155937   1.420   3.253  11.893
18035SOL    HW255938   1.459   3.371  11.806
18036SOL     OW55939   7.835  12.024  11.685
18036SOL    HW155940   7.879  11.988  11.608
18036SOL    HW255941   7.896  12.009  11.757
18037SOL     OW55942   0.004   5.372   3.034
18037SOL    HW155943  14.822   5.389   2.965
18037SOL    HW255944  14.834   5.339   3.108
18038SOL     OW55945   3.212   7.009   5.878
18038SOL    HW155946   3.181   7.008   5.969
18038SOL    HW255947   3.277   7.079   5.876
18039SOL     OW55948   5.952  13.962   1.626
18039SOL    HW155949   5.936  13.869   1.635
18039SOL    HW255950   5.916  13.984   1.540
18040SOL     OW55951   8.191   2.478   6.248
18040SOL    HW155952   8.274   2.518   6.275
18040SOL    HW255953   8.216   2.396   6.206
18041SOL     OW55954  13.579  10.251   0.721
18041SOL    HW155955  13.592  10.261   0.627
18041SOL    HW255956  13.615  10.331   0.759
18042SOL     OW55957   6.304   9.378  13.000
18042SOL    HW155958   6.384   9.414  13.037
18042SOL    HW255959   6.236   9.442  13.021
18043SOL     OW55960   3.085   7.086   2.720
18043SOL    HW155961   3.151   7.093   2.789
18043SOL    HW255962   3.076   7.175   2.687
18044SOL     OW55963  11.090  14.182   5.395
18044SOL    HW155964  11.040  14.247   5.345
18044SOL    HW255965  11.181  14.195   5.366
18045SOL     OW55966  12.649   4.524   6.924
18045SOL    HW155967  12.651   4.573   6.842
18045SOL    HW255968  12.701   4.446   6.907
18046SOL     OW55969   8.813  11.595  13.901
18046SOL    HW155970   8.860  11.605  13.983
18046SOL    HW255971   8.830  11.505  13.874
18047SOL     OW55972   0.701   3.691  10.044
18047SOL    HW155973   0.744   3.736  10.116
18047SOL    HW255974   0.608   3.705  10.059
18048SOL     OW55975  10.864   2.438   2.206
18048SOL    HW155976  10.840   2.346   2.217
18048SOL    HW255977  10.907   2.461   2.288
18049SOL     OW55978  11.431   8.781   1.341
18049SOL    HW155979  11.497   8.729   1.295
18049SOL    HW255980  11.480   8.853   1.379
18050SOL     OW55981   8.036   1.048   3.852
18050SOL    HW155982   8.034   0.960   3.815
18050SOL    HW255983   7.972   1.046   3.923
18051SOL     OW55984   3.926  11.961   8.446
18051SOL    HW155985   3.964  12.046   8.471
18051SOL    HW255986   3.995  11.919   8.395
18052SOL     OW55987   6.481   3.634   6.123
18052SOL    HW155988   6.542   3.703   6.097
18052SOL    HW255989   6.414   3.679   6.173
18053SOL     OW55990   5.505   5.631   1.163
18053SOL    HW155991   5.596   5.617   1.189
18053SOL    HW255992   5.508   5.637   1.068
18054SOL     OW55993  12.948   0.766  10.843
18054SOL    HW155994  12.888   0.838  10.826
18054SOL    HW255995  12.914   0.693  10.791
18055SOL     OW55996   2.089   1.869   5.348
18055SOL    HW155997   2.153   1.892   5.415
18055SOL    HW255998   2.134   1.884   5.265
18056SOL     OW55999   2.199   6.719   6.096
18056SOL    HW156000   2.139   6.726   6.022
18056SOL    HW256001   2.250   6.640   6.079
18057SOL     OW56002  13.374  14.433   9.573
18057SOL    HW156003  13.445  14.495   9.559
18057SOL    HW256004  13.384  14.405   9.664
18058SOL     OW56005   8.470  10.143   5.432
18058SOL    HW156006   8.499  10.234   5.433
18058SOL    HW256007   8.488  10.112   5.343
18059SOL     OW56008   6.121   7.696   3.748
18059SOL    HW156009   6.071   7.700   3.667
18059SOL    HW256010   6.203   7.653   3.724
18060SOL     OW56011   3.202   0.869   1.773
18060SOL    HW156012   3.146   0.793   1.758
18060SOL    HW256013   3.142   0.938   1.799
18061SOL     OW56014  10.033   7.794  11.156
18061SOL    HW156015  10.010   7.875  11.111
18061SOL    HW256016  10.064   7.736  11.087
18062SOL     OW56017   5.299   4.427  13.698
18062SOL    HW156018   5.218   4.478  13.694
18062SOL    HW256019   5.289   4.361  13.630
18063SOL     OW56020   2.061   3.020   3.469
18063SOL    HW156021   2.149   3.026   3.433
18063SOL    HW256022   2.021   3.105   3.448
18064SOL     OW56023   6.849   7.092  14.354
18064SOL    HW156024   6.919   7.045  14.308
18064SOL    HW256025   6.857   7.063  14.445
18065SOL     OW56026   1.426  12.539   9.548
18065SOL    HW156027   1.506  12.566   9.502
18065SOL    HW256028   1.416  12.446   9.528
18066SOL     OW56029   7.820   7.575  11.816
18066SOL    HW156030   7.765   7.600  11.742
18066SOL    HW256031   7.759   7.544  11.882
18067SOL     OW56032  10.493   3.006   9.828
18067SOL    HW156033  10.562   3.072   9.822
18067SOL    HW256034  10.473   3.000   9.921
18068SOL     OW56035   4.819   0.636   7.089
18068SOL    HW156036   4.904   0.672   7.063
18068SOL    HW256037   4.801   0.569   7.023
18069SOL     OW56038   8.614   6.664  14.529
18069SOL    HW156039   8.640   6.687  14.440
18069SOL    HW256040   8.648   6.735  14.583
18070SOL     OW56041   1.328   0.580   7.015
18070SOL    HW156042   1.390   0.508   7.028
18070SOL    HW256043   1.316   0.617   7.102
18071SOL     OW56044   8.751   1.163  13.273
18071SOL    HW156045   8.735   1.252  13.241
18071SOL    HW256046   8.687   1.151  13.343
18072SOL     OW56047  11.447   7.930   8.837
18072SOL    HW156048  11.383   7.865   8.808
18072SOL    HW256049  11.530   7.882   8.841
18073SOL     OW56050   4.254   7.023   3.724
18073SOL    HW156051   4.308   7.008   3.647
18073SOL    HW256052   4.164   7.016   3.691
18074SOL     OW56053  12.209   0.012  14.709
18074SOL    HW156054  12.282   0.073  14.701
18074SOL    HW256055  12.196  14.860  14.620
18075SOL     OW56056   1.313   0.948   0.305
18075SOL    HW156057   1.349   0.937   0.393
18075SOL    HW256058   1.388   0.968   0.250
18076SOL     OW56059   4.881  11.550   3.882
18076SOL    HW156060   4.854  11.458   3.880
18076SOL    HW256061   4.860  11.582   3.794
18077SOL     OW56062   3.120   2.224   5.869
18077SOL    HW156063   3.085   2.183   5.948
18077SOL    HW256064   3.050   2.283   5.840
18078SOL     OW56065  10.714  11.283  13.750
18078SOL    HW156066  10.685  11.196  13.723
18078SOL    HW256067  10.786  11.303  13.690
18079SOL     OW56068  12.621   7.820   4.173
18079SOL    HW156069  12.613   7.833   4.078
18079SOL    HW256070  12.594   7.729   4.186
18080SOL     OW56071  12.164   5.671  12.027
18080SOL    HW156072  12.120   5.624  12.097
18080SOL    HW256073  12.250   5.630  12.020
18081SOL     OW56074  12.762   6.859   9.644
18081SOL    HW156075  12.677   6.816   9.649
18081SOL    HW256076  12.744   6.952   9.659
18082SOL     OW56077  12.393   4.952  14.476
18082SOL    HW156078  12.328   4.985  14.413
18082SOL    HW256079  12.343   4.893  14.532
18083SOL     OW56080   5.033   9.104  11.021
18083SOL    HW156081   5.088   9.137  11.092
18083SOL    HW256082   5.063   9.151  10.943
18084SOL     OW56083   5.420   8.380   4.007
18084SOL    HW156084   5.413   8.431   4.088
18084SOL    HW256085   5.514   8.379   3.987
18085SOL     OW56086   0.708   7.441   5.461
18085SOL    HW156087   0.714   7.401   5.375
18085SOL    HW256088   0.768   7.516   5.458
18086SOL     OW56089  12.741  10.056  11.031
18086SOL    HW156090  12.823  10.068  10.984
18086SOL    HW256091  12.739   9.963  11.053
18087SOL     OW56092   2.223   1.306  11.099
18087SOL    HW156093   2.221   1.311  11.195
18087SOL    HW256094   2.131   1.313  11.073
18088SOL     OW56095   2.594   0.967   3.463
18088SOL    HW156096   2.563   0.877   3.457
18088SOL    HW256097   2.572   1.005   3.377
18089SOL     OW56098   9.469  12.118   4.599
18089SOL    HW156099   9.557  12.125   4.562
18089SOL    HW256100   9.457  12.199   4.648
18090SOL     OW56101  13.971  13.517   4.033
18090SOL    HW156102  14.038  13.453   4.012
18090SOL    HW256103  13.902  13.503   3.968
18091SOL     OW56104   3.150  10.095   1.001
18091SOL    HW156105   3.120  10.110   1.091
18091SOL    HW256106   3.074  10.119   0.946
18092SOL     OW56107   9.049   8.777   7.288
18092SOL    HW156108   9.137   8.809   7.309
18092SOL    HW256109   9.009   8.757   7.372
18093SOL     OW56110   4.109  11.609   0.487
18093SOL    HW156111   4.089  11.666   0.414
18093SOL    HW256112   4.095  11.663   0.565
18094SOL     OW56113  11.942   1.782  10.547
18094SOL    HW156114  12.000   1.726  10.496
18094SOL    HW256115  11.998   1.850  10.582
18095SOL     OW56116  12.121   3.240  10.561
18095SOL    HW156117  12.216   3.250  10.554
18095SOL    HW256118  12.109   3.173  10.629
18096SOL     OW56119   4.562   4.343   8.489
18096SOL    HW156120   4.624   4.291   8.540
18096SOL    HW256121   4.533   4.284   8.419
18097SOL     OW56122  11.978   5.666   7.506
18097SOL    HW156123  12.073   5.657   7.517
18097SOL    HW256124  11.963   5.760   7.500
18098SOL     OW56125   8.551   5.376   4.147
18098SOL    HW156126   8.601   5.325   4.083
18098SOL    HW256127   8.564   5.467   4.120
18099SOL     OW56128  11.470   6.405   0.525
18099SOL    HW156129  11.542   6.396   0.463
18099SOL    HW256130  11.512   6.431   0.607
18100SOL     OW56131   6.233   9.385   9.530
18100SOL    HW156132   6.304   9.416   9.474
18100SOL    HW256133   6.167   9.353   9.469
18101SOL     OW56134   1.984  12.753   9.246
18101SOL    HW156135   1.969  12.716   9.333
18101SOL    HW256136   1.949  12.688   9.185
18102SOL     OW56137  13.423   3.043   7.603
18102SOL    HW156138  13.500   2.999   7.568
18102SOL    HW256139  13.372   2.972   7.642
18103SOL     OW56140   9.484   6.945   8.120
18103SOL    HW156141   9.498   6.948   8.215
18103SOL    HW256142   9.548   6.882   8.088
18104SOL     OW56143  11.417   1.759   2.516
18104SOL    HW156144  11.463   1.822   2.460
18104SOL    HW256145  11.433   1.674   2.475
18105SOL     OW56146   4.049   0.992   2.353
18105SOL    HW156147   4.115   0.922   2.352
18105SOL    HW256148   4.063   1.038   2.270
18106SOL     OW56149  10.533  11.246   2.660
18106SOL    HW156150  10.583  11.289   2.730
18106SOL    HW256151  10.535  11.153   2.683
18107SOL     OW56152   3.982   7.892   7.504
18107SOL    HW156153   4.010   7.895   7.595
18107SOL    HW256154   4.034   7.960   7.460
18108SOL     OW56155  12.256   9.209   5.646
18108SOL    HW156156  12.272   9.276   5.712
18108SOL    HW256157  12.342   9.196   5.604
18109SOL     OW56158  11.515   0.284  10.742
18109SOL    HW156159  11.515   0.360  10.800
18109SOL    HW256160  11.602   0.246  10.753
18110SOL     OW56161  10.085  10.130  13.274
18110SOL    HW156162  10.173  10.111  13.244
18110SOL    HW256163  10.086  10.223  13.295
18111SOL     OW56164  13.374   4.549   5.403
18111SOL    HW156165  13.319   4.620   5.370
18111SOL    HW256166  13.463   4.573   5.378
18112SOL     OW56167   3.695   8.696   5.898
18112SOL    HW156168   3.685   8.752   5.975
18112SOL    HW256169   3.626   8.724   5.838
18113SOL     OW56170  11.227  12.841  12.413
18113SOL    HW156171  11.293  12.867  12.349
18113SOL    HW256172  11.179  12.921  12.433
18114SOL     OW56173  13.217  10.219  12.574
18114SOL    HW156174  13.270  10.149  12.534
18114SOL    HW256175  13.139  10.224  12.519
18115SOL     OW56176  12.635   8.977  12.994
18115SOL    HW156177  12.718   9.025  12.986
18115SOL    HW256178  12.662   8.887  13.014
18116SOL     OW56179   6.454   5.944  14.837
18116SOL    HW156180   6.485   5.914   0.040
18116SOL    HW256181   6.445   5.864  14.785
18117SOL     OW56182   7.297  14.847  10.864
18117SOL    HW156183   7.255  14.864  10.780
18117SOL    HW256184   7.234  14.795  10.913
18118SOL     OW56185   8.579   1.470   3.934
18118SOL    HW156186   8.566   1.388   3.982
18118SOL    HW256187   8.492   1.493   3.901
18119SOL     OW56188   0.994   9.959   3.680
18119SOL    HW156189   0.958  10.038   3.719
18119SOL    HW256190   1.056   9.925   3.745
18120SOL     OW56191  13.044   4.287   6.094
18120SOL    HW156192  13.010   4.336   6.169
18120SOL    HW256193  12.978   4.298   6.026
18121SOL     OW56194   0.293   3.127   0.714
18121SOL    HW156195   0.374   3.097   0.672
18121SOL    HW256196   0.255   3.189   0.652
18122SOL     OW56197  12.828   5.504   2.907
18122SOL    HW156198  12.900   5.549   2.953
18122SOL    HW256199  12.763   5.573   2.891
18123SOL     OW56200   5.216  11.239   5.646
18123SOL    HW156201   5.176  11.280   5.570
18123SOL    HW256202   5.145  11.231   5.709
18124SOL     OW56203  12.519   5.133   7.574
18124SOL    HW156204  12.481   5.220   7.584
18124SOL    HW256205  12.581   5.142   7.501
18125SOL     OW56206  12.266  13.693   0.394
18125SOL    HW156207  12.310  13.625   0.445
18125SOL    HW256208  12.252  13.764   0.456
18126SOL     OW56209   8.190   3.127   8.903
18126SOL    HW156210   8.285   3.130   8.912
18126SOL    HW256211   8.169   3.034   8.892
18127SOL     OW56212   8.187  10.956   5.792
18127SOL    HW156213   8.215  11.009   5.866
18127SOL    HW256214   8.114  10.904   5.826
18128SOL     OW56215  14.380  14.136   1.720
18128SOL    HW156216  14.295  14.171   1.745
18128SOL    HW256217  14.362  14.077   1.647
18129SOL     OW56218   5.309   6.083   5.487
18129SOL    HW156219   5.402   6.064   5.496
18129SOL    HW256220   5.279   6.023   5.419
18130SOL     OW56221  10.708  13.373   4.267
18130SOL    HW156222  10.698  13.426   4.347
18130SOL    HW256223  10.760  13.428   4.209
18131SOL     OW56224   9.994   6.798  10.128
18131SOL    HW156225  10.022   6.860  10.196
18131SOL    HW256226   9.902   6.820  10.112
18132SOL     OW56227   0.658  11.132   6.675
18132SOL    HW156228   0.740  11.094   6.706
18132SOL    HW256229   0.632  11.077   6.601
18133SOL     OW56230   4.655  12.421   8.076
18133SOL    HW156231   4.681  12.441   7.986
18133SOL    HW256232   4.607  12.338   8.069
18134SOL     OW56233  14.529  14.635  12.782
18134SOL    HW156234  14.594  14.648  12.851
18134SOL    HW256235  14.469  14.570  12.818
18135SOL     OW56236  13.376   4.981   5.555
18135SOL    HW156237  13.351   5.063   5.598
18135SOL    HW256238  13.463   4.962   5.591
18136SOL     OW56239  14.795   9.938   4.404
18136SOL    HW156240  14.758  10.005   4.347
18136SOL    HW256241  14.786   9.857   4.353
18137SOL     OW56242   3.179   9.638   1.106
18137SOL    HW156243   3.233   9.585   1.046
18137SOL    HW256244   3.199   9.603   1.193
18138SOL     OW56245   7.066   8.755   1.191
18138SOL    HW156246   7.107   8.747   1.105
18138SOL    HW256247   7.060   8.850   1.205
18139SOL     OW56248   8.338   0.503  14.405
18139SOL    HW156249   8.420   0.541  14.438
18139SOL    HW256250   8.272   0.568  14.427
18140SOL     OW56251   8.392   6.530   2.258
18140SOL    HW156252   8.470   6.547   2.206
18140SOL    HW256253   8.332   6.485   2.198
18141SOL     OW56254   8.781   9.535   4.603
18141SOL    HW156255   8.843   9.487   4.658
18141SOL    HW256256   8.815   9.524   4.515
18142SOL     OW56257  13.949  13.685  14.743
18142SOL    HW156258  14.035  13.643  14.737
18142SOL    HW256259  13.887  13.613  14.731
18143SOL     OW56260   1.776   3.399   5.349
18143SOL    HW156261   1.734   3.384   5.264
18143SOL    HW256262   1.834   3.474   5.334
18144SOL     OW56263  12.126   8.243   9.596
18144SOL    HW156264  12.090   8.264   9.510
18144SOL    HW256265  12.200   8.184   9.578
18145SOL     OW56266   6.691   0.581   8.822
18145SOL    HW156267   6.699   0.487   8.805
18145SOL    HW256268   6.764   0.601   8.880
18146SOL     OW56269   1.945   6.420  14.757
18146SOL    HW156270   1.892   6.417  14.676
18146SOL    HW256271   2.002   6.344  14.750
18147SOL     OW56272  12.638   3.891   0.069
18147SOL    HW156273  12.629   3.965   0.010
18147SOL    HW256274  12.554   3.884   0.114
18148SOL     OW56275   9.519   2.266  11.876
18148SOL    HW156276   9.553   2.321  11.806
18148SOL    HW256277   9.581   2.193  11.881
18149SOL     OW56278   6.230  12.983  14.640
18149SOL    HW156279   6.273  13.063  14.612
18149SOL    HW256280   6.197  12.943  14.559
18150SOL     OW56281  11.214   6.499   0.070
18150SOL    HW156282  11.178   6.422   0.027
18150SOL    HW256283  11.303   6.507   0.036
18151SOL     OW56284  13.511   9.988   8.857
18151SOL    HW156285  13.479   9.929   8.925
18151SOL    HW256286  13.463   9.962   8.778
18152SOL     OW56287   6.269   7.253  12.599
18152SOL    HW156288   6.330   7.323  12.580
18152SOL    HW256289   6.218   7.242  12.519
18153SOL     OW56290  14.187   3.458   2.125
18153SOL    HW156291  14.094   3.436   2.131
18153SOL    HW256292  14.223   3.433   2.210
18154SOL     OW56293  13.722  13.922   6.990
18154SOL    HW156294  13.764  13.836   6.999
18154SOL    HW256295  13.638  13.912   7.035
18155SOL     OW56296  10.115  10.643   8.850
18155SOL    HW156297  10.050  10.707   8.882
18155SOL    HW256298  10.183  10.643   8.918
18156SOL     OW56299   2.738   7.212   0.944
18156SOL    HW156300   2.685   7.185   1.019
18156SOL    HW256301   2.688   7.284   0.905
18157SOL     OW56302   8.016   6.609   1.278
18157SOL    HW156303   7.930   6.615   1.237
18157SOL    HW256304   8.013   6.673   1.349
18158SOL     OW56305   7.948  11.952   1.483
18158SOL    HW156306   8.028  11.925   1.439
18158SOL    HW256307   7.940  12.045   1.464
18159SOL     OW56308  12.232  10.371   1.158
18159SOL    HW156309  12.172  10.445   1.170
18159SOL    HW256310  12.183  10.309   1.103
18160SOL     OW56311   1.040  10.087  13.977
18160SOL    HW156312   1.120  10.064  14.024
18160SOL    HW256313   0.998  10.003  13.959
18161SOL     OW56314   6.712  10.109   2.799
18161SOL    HW156315   6.744  10.040   2.741
18161SOL    HW256316   6.691  10.065   2.880
18162SOL     OW56317  11.739   8.911  12.309
18162SOL    HW156318  11.729   9.006  12.304
18162SOL    HW256319  11.834   8.897  12.311
18163SOL     OW56320  11.512   4.101  12.167
18163SOL    HW156321  11.551   4.023  12.127
18163SOL    HW256322  11.507   4.080  12.260
18164SOL     OW56323   5.239   3.721   6.745
18164SOL    HW156324   5.164   3.737   6.687
18164SOL    HW256325   5.269   3.633   6.722
18165SOL     OW56326  14.639   4.962   8.876
18165SOL    HW156327  14.641   4.982   8.782
18165SOL    HW256328  14.658   5.046   8.918
18166SOL     OW56329   9.235  11.879  13.755
18166SOL    HW156330   9.328  11.873  13.776
18166SOL    HW256331   9.191  11.866  13.839
18167SOL     OW56332   9.122   4.319   1.987
18167SOL    HW156333   9.217   4.310   1.993
18167SOL    HW256334   9.096   4.260   1.917
18168SOL     OW56335   5.034   5.487  11.873
18168SOL    HW156336   5.006   5.530  11.792
18168SOL    HW256337   4.996   5.399  11.867
18169SOL     OW56338  11.639  10.512  13.016
18169SOL    HW156339  11.634  10.460  13.097
18169SOL    HW256340  11.601  10.596  13.040
18170SOL     OW56341   0.867   3.827   6.175
18170SOL    HW156342   0.961   3.835   6.195
18170SOL    HW256343   0.829   3.792   6.256
18171SOL     OW56344   8.325  10.077   3.912
18171SOL    HW156345   8.353  10.162   3.880
18171SOL    HW256346   8.404  10.038   3.951
18172SOL     OW56347   7.138   6.740   7.933
18172SOL    HW156348   7.220   6.709   7.895
18172SOL    HW256349   7.139   6.835   7.917
18173SOL     OW56350  14.403   9.955   0.502
18173SOL    HW156351  14.471   9.933   0.566
18173SOL    HW256352  14.450   9.963   0.419
18174SOL     OW56353  12.014   5.066  10.071
18174SOL    HW156354  12.076   5.114  10.016
18174SOL    HW256355  11.970   5.134  10.121
18175SOL     OW56356   3.422  12.029   3.241
18175SOL    HW156357   3.436  12.023   3.147
18175SOL    HW256358   3.497  12.079   3.274
18176SOL     OW56359   9.735   1.093  12.806
18176SOL    HW156360   9.692   1.175  12.781
18176SOL    HW256361   9.721   1.035  12.732
18177SOL     OW56362  10.958   4.291   4.163
18177SOL    HW156363  10.990   4.342   4.238
18177SOL    HW256364  10.877   4.251   4.194
18178SOL     OW56365   6.836  13.985   1.842
18178SOL    HW156366   6.877  14.064   1.877
18178SOL    HW256367   6.909  13.928   1.818
18179SOL     OW56368   9.599  14.735  13.429
18179SOL    HW156369   9.553  14.709  13.509
18179SOL    HW256370   9.688  14.701  13.440
18180SOL     OW56371  14.666  10.603   0.905
18180SOL    HW156372  14.643  10.586   0.996
18180SOL    HW256373  14.666  10.698   0.897
18181SOL     OW56374   4.281  11.969  14.111
18181SOL    HW156375   4.274  12.063  14.092
18181SOL    HW256376   4.337  11.964  14.189
18182SOL     OW56377   6.240   6.649   4.053
18182SOL    HW156378   6.284   6.726   4.089
18182SOL    HW256379   6.299   6.618   3.984
18183SOL     OW56380   6.752  13.856   0.744
18183SOL    HW156381   6.822  13.826   0.685
18183SOL    HW256382   6.681  13.882   0.685
18184SOL     OW56383   7.563   7.191   6.392
18184SOL    HW156384   7.473   7.174   6.364
18184SOL    HW256385   7.591   7.266   6.340
18185SOL     OW56386   9.481   0.003  11.094
18185SOL    HW156387   9.387   0.016  11.085
18185SOL    HW256388   9.500  14.811  11.036
18186SOL     OW56389   4.532   7.166   4.669
18186SOL    HW156390   4.537   7.104   4.596
18186SOL    HW256391   4.438   7.176   4.685
18187SOL     OW56392   0.105   4.263  14.467
18187SOL    HW156393   0.018   4.299  14.448
18187SOL    HW256394   0.160   4.298  14.397
18188SOL     OW56395   8.243   6.106   8.429
18188SOL    HW156396   8.311   6.151   8.380
18188SOL    HW256397   8.285   6.079   8.511
18189SOL     OW56398   7.000  10.543   9.452
18189SOL    HW156399   6.975  10.584   9.534
18189SOL    HW256400   7.028  10.455   9.476
18190SOL     OW56401   2.407   8.962   8.314
18190SOL    HW156402   2.375   8.882   8.356
18190SOL    HW256403   2.329   9.016   8.301
18191SOL     OW56404   9.384   6.556   7.089
18191SOL    HW156405   9.373   6.577   7.181
18191SOL    HW256406   9.313   6.603   7.044
18192SOL     OW56407   8.618   7.725   3.021
18192SOL    HW156408   8.560   7.799   3.005
18192SOL    HW256409   8.569   7.668   3.080
18193SOL     OW56410   0.417   6.880   2.981
18193SOL    HW156411   0.507   6.910   2.990
18193SOL    HW256412   0.403   6.821   3.056
18194SOL     OW56413  11.371   8.906   9.071
18194SOL    HW156414  11.375   8.997   9.101
18194SOL    HW256415  11.293   8.902   9.016
18195SOL     OW56416   1.000   0.856   8.084
18195SOL    HW156417   1.009   0.849   8.179
18195SOL    HW256418   0.906   0.873   8.071
18196SOL     OW56419  10.276   6.340   1.143
18196SOL    HW156420  10.366   6.310   1.161
18196SOL    HW256421  10.251   6.295   1.063
18197SOL     OW56422  12.147  13.654   8.434
18197SOL    HW156423  12.210  13.614   8.493
18197SOL    HW256424  12.062  13.620   8.462
18198SOL     OW56425  14.476   8.910   1.205
18198SOL    HW156426  14.442   8.886   1.291
18198SOL    HW256427  14.571   8.897   1.213
18199SOL     OW56428   2.066  14.690   6.008
18199SOL    HW156429   2.072  14.725   5.919
18199SOL    HW256430   2.010  14.612   5.999
18200SOL     OW56431   5.675  11.091   6.360
18200SOL    HW156432   5.684  11.172   6.410
18200SOL    HW256433   5.640  11.119   6.275
18201SOL     OW56434  13.640  11.022  10.254
18201SOL    HW156435  13.586  11.098  10.277
18201SOL    HW256436  13.655  11.031  10.159
18202SOL     OW56437  14.350   7.218  12.394
18202SOL    HW156438  14.400   7.175  12.464
18202SOL    HW256439  14.293   7.280  12.440
18203SOL     OW56440   3.264   5.529   6.145
18203SOL    HW156441   3.208   5.527   6.223
18203SOL    HW256442   3.209   5.490   6.076
18204SOL     OW56443   4.003   6.867  11.652
18204SOL    HW156444   4.095   6.868  11.679
18204SOL    HW256445   4.002   6.820  11.569
18205SOL     OW56446  13.079   5.491  10.734
18205SOL    HW156447  13.068   5.581  10.704
18205SOL    HW256448  13.150   5.457  10.680
18206SOL     OW56449  13.244  12.991   7.633
18206SOL    HW156450  13.206  13.032   7.710
18206SOL    HW256451  13.178  12.929   7.602
18207SOL     OW56452   4.088   1.271   8.503
18207SOL    HW156453   4.176   1.234   8.494
18207SOL    HW256454   4.038   1.232   8.431
18208SOL     OW56455  12.361   9.553   8.102
18208SOL    HW156456  12.338   9.639   8.136
18208SOL    HW256457  12.284   9.526   8.052
18209SOL     OW56458  13.683  12.339  11.151
18209SOL    HW156459  13.672  12.335  11.056
18209SOL    HW256460  13.596  12.320  11.186
18210SOL     OW56461  10.572  13.291  14.621
18210SOL    HW156462  10.537  13.297  14.710
18210SOL    HW256463  10.543  13.372  14.578
18211SOL     OW56464   2.409  10.124   0.458
18211SOL    HW156465   2.417  10.043   0.408
18211SOL    HW256466   2.361  10.100   0.537
18212SOL     OW56467  12.631  14.152  13.054
18212SOL    HW156468  12.601  14.106  12.976
18212SOL    HW256469  12.680  14.227  13.020
18213SOL     OW56470   6.805  13.257   4.884
18213SOL    HW156471   6.832  13.349   4.877
18213SOL    HW256472   6.724  13.260   4.935
18214SOL     OW56473  10.780   9.948   9.518
18214SOL    HW156474  10.763   9.976   9.608
18214SOL    HW256475  10.693   9.940   9.479
18215SOL     OW56476  12.117   1.580   0.442
18215SOL    HW156477  12.093   1.539   0.359
18215SOL    HW256478  12.043   1.638   0.462
18216SOL     OW56479   0.562   4.835   1.451
18216SOL    HW156480   0.590   4.778   1.379
18216SOL    HW256481   0.601   4.920   1.431
18217SOL     OW56482   6.475   5.305   8.851
18217SOL    HW156483   6.453   5.341   8.765
18217SOL    HW256484   6.564   5.334   8.867
18218SOL     OW56485   8.756  10.285   4.279
18218SOL    HW156486   8.789  10.374   4.292
18218SOL    HW256487   8.699  10.291   4.202
18219SOL     OW56488   6.141   0.999   8.032
18219SOL    HW156489   6.195   1.052   7.973
18219SOL    HW256490   6.203   0.936   8.070
18220SOL     OW56491   1.037   4.196   7.541
18220SOL    HW156492   0.964   4.145   7.575
18220SOL    HW256493   1.115   4.153   7.577
18221SOL     OW56494   4.020   0.498   0.834
18221SOL    HW156495   4.102   0.482   0.880
18221SOL    HW256496   3.956   0.443   0.880
18222SOL     OW56497   8.204   7.395  13.915
18222SOL    HW156498   8.164   7.325  13.966
18222SOL    HW256499   8.205   7.470  13.975
18223SOL     OW56500   7.949   7.637  14.705
18223SOL    HW156501   8.027   7.648  14.651
18223SOL    HW256502   7.949   7.713  14.762
18224SOL     OW56503   4.127  14.366   0.391
18224SOL    HW156504   4.206  14.403   0.430
18224SOL    HW256505   4.067  14.354   0.465
18225SOL     OW56506  13.535   2.370   7.293
18225SOL    HW156507  13.626   2.343   7.304
18225SOL    HW256508  13.535   2.420   7.211
18226SOL     OW56509   4.063   6.607   9.648
18226SOL    HW156510   3.998   6.675   9.664
18226SOL    HW256511   4.093   6.623   9.559
18227SOL     OW56512   4.812  10.000   1.393
18227SOL    HW156513   4.824   9.960   1.480
18227SOL    HW256514   4.814  10.094   1.409
18228SOL     OW56515   2.760   4.988  13.255
18228SOL    HW156516   2.719   5.014  13.338
18228SOL    HW256517   2.704   5.027  13.188
18229SOL     OW56518   9.285   5.511   1.856
18229SOL    HW156519   9.315   5.426   1.888
18229SOL    HW256520   9.219   5.539   1.920
18230SOL     OW56521   4.494  10.134  14.520
18230SOL    HW156522   4.455  10.206  14.471
18230SOL    HW256523   4.424  10.102  14.577
18231SOL     OW56524  12.501  10.776   5.340
18231SOL    HW156525  12.409  10.751   5.338
18231SOL    HW256526  12.547  10.701   5.301
18232SOL     OW56527  14.036   1.713   0.575
18232SOL    HW156528  14.089   1.740   0.499
18232SOL    HW256529  13.958   1.673   0.536
18233SOL     OW56530   7.221  13.332   3.141
18233SOL    HW156531   7.127  13.317   3.151
18233SOL    HW256532   7.228  13.421   3.108
18234SOL     OW56533   1.866  13.413   9.154
18234SOL    HW156534   1.935  13.476   9.175
18234SOL    HW256535   1.822  13.396   9.237
18235SOL     OW56536  10.299   4.459   5.665
18235SOL    HW156537  10.383   4.492   5.632
18235SOL    HW256538  10.294   4.491   5.755
18236SOL     OW56539   5.567   2.791   5.814
18236SOL    HW156540   5.483   2.757   5.784
18236SOL    HW256541   5.631   2.758   5.751
18237SOL     OW56542   5.310   4.565   0.279
18237SOL    HW156543   5.273   4.553   0.192
18237SOL    HW256544   5.271   4.494   0.331
18238SOL     OW56545  14.049   1.700  12.720
18238SOL    HW156546  14.062   1.776  12.776
18238SOL    HW256547  14.082   1.626  12.772
18239SOL     OW56548  10.946   9.184  13.170
18239SOL    HW156549  10.861   9.169  13.212
18239SOL    HW256550  10.930   9.256  13.109
18240SOL     OW56551   8.793   9.491   9.005
18240SOL    HW156552   8.802   9.441   8.924
18240SOL    HW256553   8.867   9.463   9.059
18241SOL     OW56554  14.393   2.684   5.837
18241SOL    HW156555  14.399   2.779   5.849
18241SOL    HW256556  14.436   2.669   5.753
18242SOL     OW56557   0.278  11.779   8.117
18242SOL    HW156558   0.255  11.872   8.115
18242SOL    HW256559   0.339  11.771   8.191
18243SOL     OW56560  10.343  12.451   1.934
18243SOL    HW156561  10.375  12.541   1.930
18243SOL    HW256562  10.262  12.457   1.983
18244SOL     OW56563  14.446  10.153   3.610
18244SOL    HW156564  14.406  10.240   3.620
18244SOL    HW256565  14.391  10.095   3.663
18245SOL     OW56566  14.522  12.252   0.593
18245SOL    HW156567  14.488  12.308   0.524
18245SOL    HW256568  14.487  12.165   0.574
18246SOL     OW56569   1.276   1.382  11.430
18246SOL    HW156570   1.297   1.302  11.382
18246SOL    HW256571   1.268   1.449  11.363
18247SOL     OW56572  12.692  14.144   7.601
18247SOL    HW156573  12.735  14.206   7.542
18247SOL    HW256574  12.751  14.137   7.676
18248SOL     OW56575   5.496   2.469  12.871
18248SOL    HW156576   5.415   2.436  12.831
18248SOL    HW256577   5.482   2.563  12.878
18249SOL     OW56578   7.485  10.960  12.393
18249SOL    HW156579   7.578  10.982  12.393
18249SOL    HW256580   7.481  10.871  12.359
18250SOL     OW56581   6.574   9.634  14.020
18250SOL    HW156582   6.630   9.557  14.009
18250SOL    HW256583   6.631   9.709  14.002
18251SOL     OW56584   1.286  13.297   0.499
18251SOL    HW156585   1.296  13.373   0.555
18251SOL    HW256586   1.343  13.315   0.424
18252SOL     OW56587  14.587   8.754   7.603
18252SOL    HW156588  14.493   8.762   7.591
18252SOL    HW256589  14.621   8.841   7.583
18253SOL     OW56590   8.079   3.361   4.251
18253SOL    HW156591   8.052   3.297   4.185
18253SOL    HW256592   7.999   3.381   4.300
18254SOL     OW56593   0.139   0.828   8.412
18254SOL    HW156594   0.125   0.891   8.342
18254SOL    HW256595   0.068   0.843   8.473
18255SOL     OW56596   7.590   4.073  10.609
18255SOL    HW156597   7.607   4.013  10.682
18255SOL    HW256598   7.569   4.156  10.650
18256SOL     OW56599   2.336  11.818   0.820
18256SOL    HW156600   2.417  11.863   0.794
18256SOL    HW256601   2.333  11.826   0.915
18257SOL     OW56602   5.875   1.870   7.131
18257SOL    HW156603   5.927   1.832   7.202
18257SOL    HW256604   5.932   1.865   7.054
18258SOL     OW56605  14.301   9.925   5.055
18258SOL    HW156606  14.337   9.837   5.059
18258SOL    HW256607  14.328   9.958   4.969
18259SOL     OW56608  11.378   5.588  11.506
18259SOL    HW156609  11.372   5.494  11.490
18259SOL    HW256610  11.288   5.620  11.496
18260SOL     OW56611  14.192   1.327  12.675
18260SOL    HW156612  14.166   1.395  12.737
18260SOL    HW256613  14.273   1.291  12.712
18261SOL     OW56614  12.179  12.659   0.720
18261SOL    HW156615  12.216  12.678   0.806
18261SOL    HW256616  12.215  12.574   0.696
18262SOL     OW56617  11.388   8.265  11.059
18262SOL    HW156618  11.389   8.300  10.970
18262SOL    HW256619  11.422   8.176  11.049
18263SOL     OW56620   9.445   1.057   5.497
18263SOL    HW156621   9.431   0.963   5.500
18263SOL    HW256622   9.523   1.068   5.443
18264SOL     OW56623   5.692  10.025   8.747
18264SOL    HW156624   5.719   9.986   8.663
18264SOL    HW256625   5.603  10.056   8.731
18265SOL     OW56626   2.133  10.210  12.889
18265SOL    HW156627   2.117  10.271  12.817
18265SOL    HW256628   2.051  10.163  12.900
18266SOL     OW56629   6.187  11.477   5.948
18266SOL    HW156630   6.224  11.552   5.995
18266SOL    HW256631   6.251  11.407   5.959
18267SOL     OW56632  12.290   4.235   2.607
18267SOL    HW156633  12.326   4.162   2.657
18267SOL    HW256634  12.330   4.313   2.646
18268SOL     OW56635  13.627   3.011   8.535
18268SOL    HW156636  13.535   3.025   8.511
18268SOL    HW256637  13.632   2.918   8.555
18269SOL     OW56638   0.657   4.200   7.060
18269SOL    HW156639   0.651   4.166   7.149
18269SOL    HW256640   0.750   4.194   7.038
18270SOL     OW56641  12.257   6.404   8.269
18270SOL    HW156642  12.236   6.473   8.206
18270SOL    HW256643  12.344   6.372   8.242
18271SOL     OW56644   0.998   6.286   2.527
18271SOL    HW156645   0.970   6.293   2.618
18271SOL    HW256646   0.933   6.336   2.478
18272SOL     OW56647  11.084  10.656   7.604
18272SOL    HW156648  11.098  10.584   7.667
18272SOL    HW256649  10.989  10.660   7.593
18273SOL     OW56650   8.091   1.562  12.825
18273SOL    HW156651   8.046   1.582  12.742
18273SOL    HW256652   8.022   1.525  12.880
18274SOL     OW56653   4.321   0.455   5.340
18274SOL    HW156654   4.244   0.506   5.314
18274SOL    HW256655   4.376   0.517   5.387
18275SOL     OW56656   8.031   0.850   1.539
18275SOL    HW156657   8.068   0.870   1.625
18275SOL    HW256658   8.005   0.935   1.504
18276SOL     OW56659   7.630   7.143   2.741
18276SOL    HW156660   7.634   7.160   2.835
18276SOL    HW256661   7.720   7.149   2.711
18277SOL     OW56662  14.791  10.902  13.996
18277SOL    HW156663  14.830  10.816  14.013
18277SOL    HW256664  14.852  10.944  13.936
18278SOL     OW56665  12.530  13.613   7.409
18278SOL    HW156666  12.560  13.674   7.341
18278SOL    HW256667  12.435  13.619   7.406
18279SOL     OW56668   5.420   3.193   2.601
18279SOL    HW156669   5.389   3.154   2.683
18279SOL    HW256670   5.376   3.278   2.597
18280SOL     OW56671   0.353   4.007  10.842
18280SOL    HW156672   0.414   4.030  10.772
18280SOL    HW256673   0.375   3.916  10.863
18281SOL     OW56674   4.208   1.549   7.093
18281SOL    HW156675   4.120   1.528   7.124
18281SOL    HW256676   4.221   1.640   7.117
18282SOL     OW56677   8.338   2.178  11.187
18282SOL    HW156678   8.360   2.267  11.211
18282SOL    HW256679   8.291   2.186  11.104
18283SOL     OW56680  12.247   6.211   3.488
18283SOL    HW156681  12.311   6.270   3.447
18283SOL    HW256682  12.273   6.210   3.581
18284SOL     OW56683   3.429   9.533  13.787
18284SOL    HW156684   3.503   9.588  13.761
18284SOL    HW256685   3.426   9.464  13.722
18285SOL     OW56686   2.264  11.047   6.148
18285SOL    HW156687   2.206  11.046   6.072
18285SOL    HW256688   2.292  11.138   6.155
18286SOL     OW56689  11.665   7.175   6.303
18286SOL    HW156690  11.747   7.182   6.253
18286SOL    HW256691  11.606   7.128   6.245
18287SOL     OW56692  13.707   9.182  11.886
18287SOL    HW156693  13.707   9.269  11.926
18287SOL    HW256694  13.789   9.179  11.835
18288SOL     OW56695  14.267  13.552   7.931
18288SOL    HW156696  14.188  13.584   7.975
18288SOL    HW256697  14.339  13.590   7.980
18289SOL     OW56698   0.415  11.389  11.326
18289SOL    HW156699   0.435  11.482  11.333
18289SOL    HW256700   0.394  11.362  11.415
18290SOL     OW56701   4.971  12.984  10.617
18290SOL    HW156702   4.981  12.971  10.522
18290SOL    HW256703   4.883  12.953  10.637
18291SOL     OW56704  13.789  14.250   4.381
18291SOL    HW156705  13.842  14.269   4.458
18291SOL    HW256706  13.779  14.335   4.338
18292SOL     OW56707   2.432   7.618   6.330
18292SOL    HW156708   2.373   7.551   6.365
18292SOL    HW256709   2.374   7.691   6.306
18293SOL     OW56710  10.994   0.175   9.526
18293SOL    HW156711  10.998   0.095   9.474
18293SOL    HW256712  11.051   0.158   9.601
18294SOL     OW56713   5.476  13.839   5.370
18294SOL    HW156714   5.540  13.812   5.437
18294SOL    HW256715   5.401  13.871   5.421
18295SOL     OW56716  12.702   0.431   6.855
18295SOL    HW156717  12.780   0.444   6.910
18295SOL    HW256718  12.629   0.429   6.917
18296SOL     OW56719   2.865   9.609   3.566
18296SOL    HW156720   2.867   9.698   3.531
18296SOL    HW256721   2.857   9.553   3.489
18297SOL     OW56722   9.687   4.439  11.280
18297SOL    HW156723   9.774   4.442  11.240
18297SOL    HW256724   9.654   4.528  11.273
18298SOL     OW56725  13.180  10.582   7.382
18298SOL    HW156726  13.115  10.511   7.389
18298SOL    HW256727  13.211  10.595   7.472
18299SOL     OW56728   0.661   4.096   1.388
18299SOL    HW156729   0.604   4.144   1.450
18299SOL    HW256730   0.719   4.045   1.444
18300SOL     OW56731   8.050   0.209   5.971
18300SOL    HW156732   7.981   0.144   5.976
18300SOL    HW256733   8.035   0.266   6.047
18301SOL     OW56734  13.498   5.111   4.929
18301SOL    HW156735  13.441   5.035   4.941
18301SOL    HW256736  13.560   5.085   4.861
18302SOL     OW56737   5.897   6.487  13.639
18302SOL    HW156738   5.881   6.524  13.552
18302SOL    HW256739   5.914   6.394  13.623
18303SOL     OW56740   9.457   2.822   6.582
18303SOL    HW156741   9.479   2.857   6.668
18303SOL    HW256742   9.471   2.896   6.522
18304SOL     OW56743   7.079  11.617   7.819
18304SOL    HW156744   7.080  11.552   7.749
18304SOL    HW256745   7.069  11.701   7.773
18305SOL     OW56746   5.112   5.293   5.959
18305SOL    HW156747   5.038   5.290   5.899
18305SOL    HW256748   5.184   5.327   5.906
18306SOL     OW56749   8.214   3.835  14.350
18306SOL    HW156750   8.204   3.765  14.414
18306SOL    HW256751   8.135   3.830  14.296
18307SOL     OW56752   6.552   8.363  12.390
18307SOL    HW156753   6.615   8.370  12.462
18307SOL    HW256754   6.472   8.331  12.431
18308SOL     OW56755   5.680  10.463  11.754
18308SOL    HW156756   5.623  10.387  11.740
18308SOL    HW256757   5.624  10.538  11.737
18309SOL     OW56758   3.034   5.406   1.536
18309SOL    HW156759   2.958   5.362   1.498
18309SOL    HW256760   3.082   5.336   1.581
18310SOL     OW56761   5.273   1.758   3.641
18310SOL    HW156762   5.228   1.688   3.689
18310SOL    HW256763   5.247   1.839   3.686
18311SOL     OW56764  10.527   0.488  12.294
18311SOL    HW156765  10.474   0.416  12.261
18311SOL    HW256766  10.602   0.492  12.235
18312SOL     OW56767   6.341   4.872  13.652
18312SOL    HW156768   6.307   4.823  13.728
18312SOL    HW256769   6.265   4.882  13.595
18313SOL     OW56770   1.419  13.981  10.792
18313SOL    HW156771   1.334  13.990  10.835
18313SOL    HW256772   1.399  13.963  10.700
18314SOL     OW56773   5.477   7.025   2.667
18314SOL    HW156774   5.550   7.050   2.611
18314SOL    HW256775   5.436   7.108   2.693
18315SOL     OW56776   8.816   9.413   2.936
18315SOL    HW156777   8.783   9.446   2.852
18315SOL    HW256778   8.911   9.419   2.927
18316SOL     OW56779  12.781   2.161   4.868
18316SOL    HW156780  12.715   2.210   4.918
18316SOL    HW256781  12.735   2.083   4.838
18317SOL     OW56782   5.368  12.018  10.063
18317SOL    HW156783   5.460  11.993  10.060
18317SOL    HW256784   5.320  11.935  10.067
18318SOL     OW56785   0.560  13.637  11.047
18318SOL    HW156786   0.501  13.627  11.122
18318SOL    HW256787   0.613  13.557  11.048
18319SOL     OW56788   9.540  10.784  11.563
18319SOL    HW156789   9.504  10.759  11.648
18319SOL    HW256790   9.474  10.844  11.527
18320SOL     OW56791   0.506  13.629  12.947
18320SOL    HW156792   0.425  13.577  12.948
18320SOL    HW256793   0.479  13.716  12.976
18321SOL     OW56794   3.835  11.841   9.102
18321SOL    HW156795   3.849  11.867   9.193
18321SOL    HW256796   3.774  11.768   9.107
18322SOL     OW56797   0.752   7.185   0.755
18322SOL    HW156798   0.658   7.197   0.773
18322SOL    HW256799   0.764   7.223   0.667
18323SOL     OW56800   4.604  14.409   5.130
18323SOL    HW156801   4.666  14.412   5.203
18323SOL    HW256802   4.625  14.487   5.078
18324SOL     OW56803   8.837  10.686   8.819
18324SOL    HW156804   8.909  10.686   8.755
18324SOL    HW256805   8.758  10.675   8.766
18325SOL     OW56806   0.861   1.069   0.018
18325SOL    HW156807   0.884   0.989   0.066
18325SOL    HW256808   0.814   1.038  14.823
18326SOL     OW56809   9.594  14.873   4.620
18326SOL    HW156810   9.522   0.006   4.682
18326SOL    HW256811   9.595  14.778   4.606
18327SOL     OW56812   1.555   2.938  12.091
18327SOL    HW156813   1.538   2.850  12.059
18327SOL    HW256814   1.471   2.984  12.080
18328SOL     OW56815  10.680  10.142   3.297
18328SOL    HW156816  10.723  10.102   3.372
18328SOL    HW256817  10.640  10.221   3.333
18329SOL     OW56818   3.556   7.259   7.490
18329SOL    HW156819   3.492   7.194   7.462
18329SOL    HW256820   3.588   7.297   7.408
18330SOL     OW56821   8.335   9.510   4.945
18330SOL    HW156822   8.312   9.426   4.906
18330SOL    HW256823   8.407   9.543   4.890
18331SOL     OW56824   0.012   9.124   1.777
18331SOL    HW156825   0.062   9.060   1.828
18331SOL    HW256826   0.034   9.105   1.686
18332SOL     OW56827   5.692   4.407   6.810
18332SOL    HW156828   5.744   4.327   6.808
18332SOL    HW256829   5.744   4.468   6.862
18333SOL     OW56830  13.838   2.804   7.061
18333SOL    HW156831  13.793   2.768   6.985
18333SOL    HW256832  13.823   2.898   7.056
18334SOL     OW56833   3.447  13.159  12.974
18334SOL    HW156834   3.504  13.126  13.043
18334SOL    HW256835   3.420  13.081  12.925
18335SOL     OW56836   4.915   4.128   6.958
18335SOL    HW156837   4.917   4.157   6.867
18335SOL    HW256838   5.003   4.093   6.973
18336SOL     OW56839   7.381   6.204   5.372
18336SOL    HW156840   7.406   6.266   5.303
18336SOL    HW256841   7.351   6.126   5.325
18337SOL     OW56842   0.082  12.687   5.703
18337SOL    HW156843   0.123  12.673   5.618
18337SOL    HW256844   0.152  12.720   5.759
18338SOL     OW56845   6.938   5.365   3.096
18338SOL    HW156846   6.997   5.373   3.171
18338SOL    HW256847   6.917   5.272   3.091
18339SOL     OW56848   3.040   6.735  11.066
18339SOL    HW156849   2.963   6.777  11.026
18339SOL    HW256850   3.114   6.786  11.033
18340SOL     OW56851  13.807  14.680  10.989
18340SOL    HW156852  13.765  14.709  10.908
18340SOL    HW256853  13.900  14.693  10.974
18341SOL     OW56854   0.337   6.872   0.967
18341SOL    HW156855   0.357   6.964   0.987
18341SOL    HW256856   0.290   6.875   0.884
18342SOL     OW56857  11.760   7.566  11.879
18342SOL    HW156858  11.771   7.655  11.845
18342SOL    HW256859  11.687   7.573  11.940
18343SOL     OW56860   3.982   4.982   4.096
18343SOL    HW156861   3.907   4.999   4.153
18343SOL    HW256862   4.042   4.931   4.150
18344SOL     OW56863   5.995  11.043  13.541
18344SOL    HW156864   6.057  10.989  13.491
18344SOL    HW256865   5.942  10.979  13.589
18345SOL     OW56866   6.792   1.338   4.090
18345SOL    HW156867   6.870   1.312   4.041
18345SOL    HW256868   6.736   1.380   4.025
18346SOL     OW56869   2.913   0.009   3.830
18346SOL    HW156870   2.880   0.090   3.868
18346SOL    HW256871   2.837  14.853   3.784
18347SOL     OW56872   5.918   2.490   7.862
18347SOL    HW156873   5.923   2.508   7.956
18347SOL    HW256874   5.863   2.561   7.827
18348SOL     OW56875   1.579  14.476  14.410
18348SOL    HW156876   1.672  14.496  14.401
18348SOL    HW256877   1.547  14.468  14.320
18349SOL     OW56878  10.208  14.561   4.459
18349SOL    HW156879  10.250  14.578   4.544
18349SOL    HW256880  10.150  14.636   4.446
18350SOL     OW56881   4.215   6.529   3.867
18350SOL    HW156882   4.256   6.559   3.948
18350SOL    HW256883   4.124   6.513   3.890
18351SOL     OW56884  11.048  10.532   0.266
18351SOL    HW156885  10.975  10.485   0.306
18351SOL    HW256886  11.099  10.565   0.340
18352SOL     OW56887   9.941   8.513  11.505
18352SOL    HW156888   9.974   8.539  11.591
18352SOL    HW256889   9.925   8.596  11.459
18353SOL     OW56890   6.882   4.090   3.878
18353SOL    HW156891   6.872   4.170   3.929
18353SOL    HW256892   6.820   4.099   3.806
18354SOL     OW56893   7.941   3.067   0.915
18354SOL    HW156894   7.872   3.102   0.972
18354SOL    HW256895   7.894   3.010   0.854
18355SOL     OW56896   4.552   5.910   6.139
18355SOL    HW156897   4.613   5.958   6.195
18355SOL    HW256898   4.568   5.818   6.159
18356SOL     OW56899  10.543   5.132   4.517
18356SOL    HW156900  10.549   5.142   4.612
18356SOL    HW256901  10.591   5.208   4.482
18357SOL     OW56902   8.580   3.403  13.250
18357SOL    HW156903   8.634   3.374  13.177
18357SOL    HW256904   8.590   3.499  13.251
18358SOL     OW56905   0.121   7.358   8.953
18358SOL    HW156906   0.041   7.344   8.902
18358SOL    HW256907   0.167   7.427   8.906
18359SOL     OW56908   5.687   4.401   4.675
18359SOL    HW156909   5.695   4.315   4.716
18359SOL    HW256910   5.756   4.453   4.716
18360SOL     OW56911  10.583   5.004   1.973
18360SOL    HW156912  10.561   4.962   1.891
18360SOL    HW256913  10.526   4.962   2.038
18361SOL     OW56914  13.303  11.580   9.898
18361SOL    HW156915  13.293  11.654   9.838
18361SOL    HW256916  13.218  11.574   9.941
18362SOL     OW56917  13.729   0.434   1.387
18362SOL    HW156918  13.653   0.394   1.428
18362SOL    HW256919  13.737   0.388   1.303
18363SOL     OW56920   9.802  10.172   5.759
18363SOL    HW156921   9.735  10.103   5.757
18363SOL    HW256922   9.810  10.194   5.852
18364SOL     OW56923   7.892   6.548   0.893
18364SOL    HW156924   7.979   6.580   0.867
18364SOL    HW256925   7.900   6.452   0.889
18365SOL     OW56926   8.882  13.799   0.408
18365SOL    HW156927   8.972  13.821   0.431
18365SOL    HW256928   8.855  13.870   0.349
18366SOL     OW56929   5.378   8.362  12.888
18366SOL    HW156930   5.472   8.379  12.889
18366SOL    HW256931   5.344   8.419  12.819
18367SOL     OW56932  10.598   8.566   6.047
18367SOL    HW156933  10.691   8.557   6.025
18367SOL    HW256934  10.594   8.549   6.141
18368SOL     OW56935   9.890  12.390  13.292
18368SOL    HW156936   9.879  12.405  13.198
18368SOL    HW256937   9.891  12.294  13.301
18369SOL     OW56938   7.467   9.075   2.365
18369SOL    HW156939   7.386   9.025   2.359
18369SOL    HW256940   7.527   9.017   2.412
18370SOL     OW56941   9.906   8.426  13.609
18370SOL    HW156942   9.919   8.474  13.691
18370SOL    HW256943   9.833   8.471  13.567
18371SOL     OW56944  13.978  11.491  12.501
18371SOL    HW156945  13.968  11.524  12.411
18371SOL    HW256946  14.062  11.445  12.501
18372SOL     OW56947   2.556  13.776  13.765
18372SOL    HW156948   2.623  13.840  13.739
18372SOL    HW256949   2.587  13.741  13.848
18373SOL     OW56950   1.204   9.286  11.335
18373SOL    HW156951   1.112   9.266  11.354
18373SOL    HW256952   1.220   9.370  11.377
18374SOL     OW56953   9.246   7.222   3.803
18374SOL    HW156954   9.188   7.186   3.737
18374SOL    HW256955   9.192   7.287   3.849
18375SOL     OW56956   9.526   3.861   9.142
18375SOL    HW156957   9.462   3.893   9.078
18375SOL    HW256958   9.548   3.939   9.195
18376SOL     OW56959   6.921  12.810   4.046
18376SOL    HW156960   6.961  12.896   4.034
18376SOL    HW256961   6.878  12.792   3.962
18377SOL     OW56962   2.699   2.984   1.886
18377SOL    HW156963   2.656   3.063   1.853
18377SOL    HW256964   2.630   2.917   1.886
18378SOL     OW56965   3.216  14.033   2.282
18378SOL    HW156966   3.236  14.089   2.357
18378SOL    HW256967   3.297  13.984   2.267
18379SOL     OW56968   8.471   4.227   5.820
18379SOL    HW156969   8.565   4.230   5.800
18379SOL    HW256970   8.459   4.295   5.887
18380SOL     OW56971   1.340  10.356  11.717
18380SOL    HW156972   1.248  10.367  11.694
18380SOL    HW256973   1.377  10.445  11.713
18381SOL     OW56974   1.849   5.190   9.290
18381SOL    HW156975   1.894   5.134   9.353
18381SOL    HW256976   1.891   5.169   9.206
18382SOL     OW56977   7.827  10.799   6.026
18382SOL    HW156978   7.807  10.760   6.111
18382SOL    HW256979   7.914  10.764   6.004
18383SOL     OW56980  13.803  13.957   7.320
18383SOL    HW156981  13.860  13.971   7.395
18383SOL    HW256982  13.806  13.862   7.305
18384SOL     OW56983   3.070  11.159   5.725
18384SOL    HW156984   3.020  11.092   5.771
18384SOL    HW256985   3.160  11.145   5.753
18385SOL     OW56986  13.332   9.309   3.629
18385SOL    HW156987  13.349   9.359   3.709
18385SOL    HW256988  13.290   9.229   3.659
18386SOL     OW56989   4.904   0.657  12.912
18386SOL    HW156990   4.956   0.607  12.974
18386SOL    HW256991   4.896   0.744  12.952
18387SOL     OW56992  11.722   9.773  11.239
18387SOL    HW156993  11.769   9.765  11.322
18387SOL    HW256994  11.746   9.860  11.207
18388SOL     OW56995   3.056   6.304   3.172
18388SOL    HW156996   3.005   6.315   3.252
18388SOL    HW256997   3.147   6.302   3.201
18389SOL     OW56998   5.808   7.550  11.342
18389SOL    HW156999   5.874   7.490  11.376
18389SOL    HW257000   5.853   7.634  11.335
18390SOL     OW57001   5.514  14.098   8.909
18390SOL    HW157002   5.516  14.033   8.979
18390SOL    HW257003   5.606  14.119   8.893
18391SOL     OW57004   0.927   6.979   6.718
18391SOL    HW157005   0.870   6.902   6.721
18391SOL    HW257006   0.988   6.966   6.791
18392SOL     OW57007  11.575  11.334  10.977
18392SOL    HW157008  11.513  11.294  10.916
18392SOL    HW257009  11.618  11.259  11.020
18393SOL     OW57010   1.814   8.017   8.936
18393SOL    HW157011   1.837   7.935   8.891
18393SOL    HW257012   1.850   8.086   8.879
18394SOL     OW57013   9.133  13.169  12.308
18394SOL    HW157014   9.112  13.076  12.317
18394SOL    HW257015   9.183  13.190  12.387
18395SOL     OW57016   4.993   2.040   2.672
18395SOL    HW157017   4.900   2.065   2.668
18395SOL    HW257018   4.993   1.946   2.660
18396SOL     OW57019  10.590  13.222  10.994
18396SOL    HW157020  10.665  13.166  10.975
18396SOL    HW257021  10.557  13.190  11.077
18397SOL     OW57022  11.387   6.003   4.583
18397SOL    HW157023  11.397   5.958   4.666
18397SOL    HW257024  11.471   5.991   4.539
18398SOL     OW57025  12.148   8.983  13.268
18398SOL    HW157026  12.152   9.012  13.177
18398SOL    HW257027  12.058   8.949  13.279
18399SOL     OW57028  10.166   3.397   3.018
18399SOL    HW157029  10.187   3.376   3.109
18399SOL    HW257030  10.180   3.491   3.011
18400SOL     OW57031   4.677   3.999   9.468
18400SOL    HW157032   4.632   3.940   9.528
18400SOL    HW257033   4.766   3.964   9.463
18401SOL     OW57034   9.340   2.946  14.214
18401SOL    HW157035   9.385   3.030  14.217
18401SOL    HW257036   9.337   2.924  14.121
18402SOL     OW57037  10.269   9.407   0.569
18402SOL    HW157038  10.321   9.485   0.587
18402SOL    HW257039  10.273   9.395   0.474
18403SOL     OW57040  12.558   7.263   2.103
18403SOL    HW157041  12.504   7.287   2.179
18403SOL    HW257042  12.626   7.330   2.100
18404SOL     OW57043   3.168  13.290   8.625
18404SOL    HW157044   3.157  13.213   8.680
18404SOL    HW257045   3.083  13.334   8.627
18405SOL     OW57046   2.778  14.212   7.294
18405SOL    HW157047   2.753  14.130   7.337
18405SOL    HW257048   2.797  14.272   7.367
18406SOL     OW57049   2.209   2.926  13.244
18406SOL    HW157050   2.216   2.891  13.155
18406SOL    HW257051   2.209   2.849  13.300
18407SOL     OW57052   7.479   0.795  14.852
18407SOL    HW157053   7.436   0.755  14.777
18407SOL    HW257054   7.460   0.737   0.043
18408SOL     OW57055  13.474   6.817  13.465
18408SOL    HW157056  13.399   6.819  13.524
18408SOL    HW257057  13.549   6.843  13.520
18409SOL     OW57058   3.593   7.586  13.783
18409SOL    HW157059   3.660   7.636  13.737
18409SOL    HW257060   3.642   7.522  13.834
18410SOL     OW57061   9.484  13.297   9.143
18410SOL    HW157062   9.555  13.307   9.206
18410SOL    HW257063   9.405  13.288   9.197
18411SOL     OW57064   0.641   2.814   9.320
18411SOL    HW157065   0.633   2.758   9.243
18411SOL    HW257066   0.684   2.759   9.385
18412SOL     OW57067   5.833   0.529  14.729
18412SOL    HW157068   5.905   0.471  14.704
18412SOL    HW257069   5.771   0.472  14.776
18413SOL     OW57070   1.105   0.794   2.196
18413SOL    HW157071   1.192   0.795   2.236
18413SOL    HW257072   1.057   0.864   2.242
18414SOL     OW57073   1.856  10.308   4.670
18414SOL    HW157074   1.787  10.244   4.650
18414SOL    HW257075   1.892  10.332   4.585
18415SOL     OW57076  12.888   2.821   1.149
18415SOL    HW157077  12.917   2.773   1.227
18415SOL    HW257078  12.909   2.913   1.170
18416SOL     OW57079  13.915   9.830   4.837
18416SOL    HW157080  13.928   9.850   4.744
18416SOL    HW257081  13.986   9.876   4.882
18417SOL     OW57082  12.174  12.384  10.935
18417SOL    HW157083  12.147  12.348  11.020
18417SOL    HW257084  12.266  12.408  10.948
18418SOL     OW57085   8.369   3.632   7.772
18418SOL    HW157086   8.385   3.637   7.866
18418SOL    HW257087   8.344   3.721   7.747
18419SOL     OW57088   3.253   0.740   5.503
18419SOL    HW157089   3.345   0.714   5.515
18419SOL    HW257090   3.208   0.658   5.483
18420SOL     OW57091   7.383   5.773   9.380
18420SOL    HW157092   7.414   5.857   9.413
18420SOL    HW257093   7.288   5.776   9.391
18421SOL     OW57094   1.907  11.969   1.236
18421SOL    HW157095   1.901  11.913   1.313
18421SOL    HW257096   1.839  12.035   1.249
18422SOL     OW57097  14.161   4.113   3.609
18422SOL    HW157098  14.143   4.145   3.521
18422SOL    HW257099  14.225   4.174   3.645
18423SOL     OW57100   7.368   8.295   9.849
18423SOL    HW157101   7.373   8.245   9.767
18423SOL    HW257102   7.387   8.385   9.823
18424SOL     OW57103   9.717  13.115   5.925
18424SOL    HW157104   9.745  13.078   5.841
18424SOL    HW257105   9.795  13.155   5.962
18425SOL     OW57106  12.833   3.131   5.346
18425SOL    HW157107  12.911   3.112   5.295
18425SOL    HW257108  12.792   3.205   5.301
18426SOL     OW57109  14.227  13.146  13.100
18426SOL    HW157110  14.240  13.118  13.009
18426SOL    HW257111  14.303  13.200  13.120
18427SOL     OW57112   3.694   8.231   7.850
18427SOL    HW157113   3.657   8.194   7.769
18427SOL    HW257114   3.783   8.197   7.853
18428SOL     OW57115   9.695  14.292   6.821
18428SOL    HW157116   9.602  14.284   6.844
18428SOL    HW257117   9.718  14.381   6.845
18429SOL     OW57118   9.993   7.503  12.675
18429SOL    HW157119  10.071   7.504  12.620
18429SOL    HW257120  10.024   7.524  12.763
18430SOL     OW57121   0.433   1.332   3.852
18430SOL    HW157122   0.414   1.395   3.782
18430SOL    HW257123   0.475   1.384   3.920
18431SOL     OW57124  12.611  14.182   2.425
18431SOL    HW157125  12.644  14.152   2.509
18431SOL    HW257126  12.616  14.105   2.368
18432SOL     OW57127   7.057   7.401   8.811
18432SOL    HW157128   7.011   7.321   8.836
18432SOL    HW257129   6.999   7.444   8.748
18433SOL     OW57130   8.681   8.923   7.127
18433SOL    HW157131   8.625   8.925   7.050
18433SOL    HW257132   8.625   8.953   7.199
18434SOL     OW57133   6.060  12.981   0.285
18434SOL    HW157134   6.128  12.970   0.219
18434SOL    HW257135   5.994  12.916   0.263
18435SOL     OW57136  14.426   3.885   1.151
18435SOL    HW157137  14.378   3.916   1.228
18435SOL    HW257138  14.365   3.825   1.108
18436SOL     OW57139  10.577   8.487   8.456
18436SOL    HW157140  10.567   8.396   8.486
18436SOL    HW257141  10.493   8.507   8.414
18437SOL     OW57142  11.872  14.265  14.507
18437SOL    HW157143  11.851  14.226  14.592
18437SOL    HW257144  11.899  14.355  14.528
18438SOL     OW57145   9.944  13.563  10.152
18438SOL    HW157146   9.972  13.557  10.061
18438SOL    HW257147   9.885  13.488  10.163
18439SOL     OW57148  13.980   7.022   1.756
18439SOL    HW157149  13.945   7.088   1.696
18439SOL    HW257150  14.061   6.993   1.714
18440SOL     OW57151   9.338  10.718   2.747
18440SOL    HW157152   9.245  10.706   2.767
18440SOL    HW257153   9.384  10.670   2.816
18441SOL     OW57154   5.697   0.338  14.216
18441SOL    HW157155   5.733   0.330  14.304
18441SOL    HW257156   5.773   0.341  14.159
18442SOL     OW57157  13.908   7.684   4.403
18442SOL    HW157158  13.899   7.654   4.493
18442SOL    HW257159  13.920   7.778   4.410
18443SOL     OW57160   2.862  10.842  13.200
18443SOL    HW157161   2.789  10.893  13.166
18443SOL    HW257162   2.884  10.883  13.284
18444SOL     OW57163   8.928   1.261   5.708
18444SOL    HW157164   8.935   1.297   5.619
18444SOL    HW257165   8.911   1.168   5.695
18445SOL     OW57166   9.577   0.090   8.050
18445SOL    HW157167   9.493   0.082   8.094
18445SOL    HW257168   9.555   0.102   7.958
18446SOL     OW57169   5.845   8.326   9.673
18446SOL    HW157170   5.772   8.353   9.617
18446SOL    HW257171   5.915   8.388   9.651
18447SOL     OW57172   5.984  14.046   2.253
18447SOL    HW157173   5.979  13.978   2.186
18447SOL    HW257174   6.017  14.001   2.331
18448SOL     OW57175   1.358   5.029  10.014
18448SOL    HW157176   1.271   4.996  10.035
18448SOL    HW257177   1.379   5.090  10.085
18449SOL     OW57178   6.621   6.678   2.392
18449SOL    HW157179   6.530   6.684   2.363
18449SOL    HW257180   6.620   6.611   2.460
18450SOL     OW57181   9.652  13.392  11.827
18450SOL    HW157182   9.628  13.469  11.878
18450SOL    HW257183   9.588  13.389  11.756
18451SOL     OW57184  14.672  10.976  12.512
18451SOL    HW157185  14.593  11.017  12.476
18451SOL    HW257186  14.639  10.913  12.576
18452SOL     OW57187   3.182   3.763   6.405
18452SOL    HW157188   3.146   3.843   6.369
18452SOL    HW257189   3.108   3.720   6.449
18453SOL     OW57190   9.542   5.819   2.862
18453SOL    HW157191   9.457   5.791   2.829
18453SOL    HW257192   9.552   5.909   2.831
18454SOL     OW57193   8.827   9.998   9.700
18454SOL    HW157194   8.915   9.982   9.666
18454SOL    HW257195   8.824  10.093   9.714
18455SOL     OW57196   4.570  11.363   7.302
18455SOL    HW157197   4.533  11.441   7.262
18455SOL    HW257198   4.495  11.312   7.331
18456SOL     OW57199   6.574   7.251  10.766
18456SOL    HW157200   6.622   7.319  10.814
18456SOL    HW257201   6.641   7.209  10.712
18457SOL     OW57202   1.930   7.602   7.135
18457SOL    HW157203   1.932   7.552   7.217
18457SOL    HW257204   1.904   7.690   7.162
18458SOL     OW57205   4.797   6.926  12.060
18458SOL    HW157206   4.841   7.011  12.052
18458SOL    HW257207   4.721   6.944  12.115
18459SOL     OW57208   1.237   9.929   9.587
18459SOL    HW157209   1.196  10.012   9.560
18459SOL    HW257210   1.194   9.863   9.532
18460SOL     OW57211   8.705   4.280  10.658
18460SOL    HW157212   8.781   4.331  10.685
18460SOL    HW257213   8.716   4.268  10.564
18461SOL     OW57214   8.884   7.609   2.936
18461SOL    HW157215   8.857   7.588   2.847
18461SOL    HW257216   8.832   7.551   2.992
18462SOL     OW57217   2.964  11.988   7.053
18462SOL    HW157218   3.033  12.012   7.115
18462SOL    HW257219   2.971  12.053   6.984
18463SOL     OW57220  10.126   4.316   0.377
18463SOL    HW157221  10.154   4.405   0.398
18463SOL    HW257222  10.060   4.296   0.443
18464SOL     OW57223   7.101   5.684   4.441
18464SOL    HW157224   7.137   5.651   4.524
18464SOL    HW257225   7.107   5.779   4.448
18465SOL     OW57226  13.160   5.546  13.727
18465SOL    HW157227  13.160   5.594  13.644
18465SOL    HW257228  13.149   5.455  13.701
18466SOL     OW57229  12.290   5.952  13.848
18466SOL    HW157230  12.251   6.037  13.831
18466SOL    HW257231  12.316   5.920  13.761
18467SOL     OW57232   5.684   3.696   4.099
18467SOL    HW157233   5.608   3.666   4.150
18467SOL    HW257234   5.721   3.616   4.062
18468SOL     OW57235   8.022   2.581  11.814
18468SOL    HW157236   8.075   2.650  11.854
18468SOL    HW257237   8.041   2.587  11.720
18469SOL     OW57238   9.224   8.308  13.669
18469SOL    HW157239   9.301   8.364  13.664
18469SOL    HW257240   9.150   8.368  13.657
18470SOL     OW57241  11.639   1.346   8.846
18470SOL    HW157242  11.587   1.391   8.913
18470SOL    HW257243  11.642   1.408   8.773
18471SOL     OW57244  11.691   0.147   9.052
18471SOL    HW157245  11.702   0.231   9.006
18471SOL    HW257246  11.709   0.168   9.144
18472SOL     OW57247   0.765  13.299   2.274
18472SOL    HW157248   0.775  13.255   2.190
18472SOL    HW257249   0.740  13.389   2.252
18473SOL     OW57250   4.274   3.836   4.150
18473SOL    HW157251   4.258   3.909   4.090
18473SOL    HW257252   4.203   3.775   4.133
18474SOL     OW57253   4.356  14.183   7.499
18474SOL    HW157254   4.366  14.090   7.519
18474SOL    HW257255   4.286  14.213   7.556
18475SOL     OW57256   6.767   4.880   0.018
18475SOL    HW157257   6.779   4.973   0.002
18475SOL    HW257258   6.854   4.842   0.007
18476SOL     OW57259   1.735   0.177  14.258
18476SOL    HW157260   1.792   0.129  14.319
18476SOL    HW257261   1.733   0.266  14.292
18477SOL     OW57262  13.599  10.923  13.644
18477SOL    HW157263  13.565  10.993  13.701
18477SOL    HW257264  13.532  10.855  13.647
18478SOL     OW57265   3.599   9.037   9.377
18478SOL    HW157266   3.600   8.941   9.377
18478SOL    HW257267   3.692   9.062   9.381
18479SOL     OW57268   1.711   2.586  12.623
18479SOL    HW157269   1.731   2.514  12.683
18479SOL    HW257270   1.772   2.655  12.648
18480SOL     OW57271  11.151  13.016   3.050
18480SOL    HW157272  11.080  13.079   3.049
18480SOL    HW257273  11.190  13.022   2.962
18481SOL     OW57274   8.493   3.269   5.959
18481SOL    HW157275   8.572   3.319   5.981
18481SOL    HW257276   8.426   3.302   6.018
18482SOL     OW57277  13.401   6.756  10.988
18482SOL    HW157278  13.413   6.825  10.923
18482SOL    HW257279  13.477   6.699  10.977
18483SOL     OW57280  13.119  11.951  14.518
18483SOL    HW157281  13.181  11.888  14.482
18483SOL    HW257282  13.173  12.014  14.565
18484SOL     OW57283  10.087   9.004   9.222
18484SOL    HW157284  10.036   9.084   9.238
18484SOL    HW257285  10.155   9.005   9.290
18485SOL     OW57286   5.778   8.064   0.647
18485SOL    HW157287   5.688   8.079   0.620
18485SOL    HW257288   5.801   8.143   0.696
18486SOL     OW57289  13.262  13.291   3.556
18486SOL    HW157290  13.260  13.268   3.648
18486SOL    HW257291  13.281  13.209   3.510
18487SOL     OW57292   2.779  11.430  11.432
18487SOL    HW157293   2.818  11.513  11.403
18487SOL    HW257294   2.692  11.430  11.393
18488SOL     OW57295   7.817  12.473   8.042
18488SOL    HW157296   7.882  12.505   7.980
18488SOL    HW257297   7.735  12.515   8.015
18489SOL     OW57298   5.542  10.790  10.289
18489SOL    HW157299   5.531  10.882  10.267
18489SOL    HW257300   5.603  10.756  10.223
18490SOL     OW57301  10.688   4.646   2.205
18490SOL    HW157302  10.692   4.633   2.300
18490SOL    HW257303  10.596   4.634   2.182
18491SOL     OW57304  11.538   5.780  11.607
18491SOL    HW157305  11.501   5.706  11.559
18491SOL    HW257306  11.514   5.857  11.555
18492SOL     OW57307   8.218  14.510   5.969
18492SOL    HW157308   8.220  14.547   5.881
18492SOL    HW257309   8.311  14.501   5.993
18493SOL     OW57310   9.175  14.232   6.632
18493SOL    HW157311   9.150  14.261   6.545
18493SOL    HW257312   9.254  14.180   6.619
18494SOL     OW57313  11.527   3.929   8.190
18494SOL    HW157314  11.590   3.997   8.169
18494SOL    HW257315  11.530   3.921   8.286
18495SOL     OW57316  14.282   0.674  12.679
18495SOL    HW157317  14.325   0.710  12.756
18495SOL    HW257318  14.294   0.741  12.611
18496SOL     OW57319  10.659  12.056   9.593
18496SOL    HW157320  10.570  12.075   9.564
18496SOL    HW257321  10.658  12.072   9.687
18497SOL     OW57322  10.721   3.745   8.332
18497SOL    HW157323  10.711   3.812   8.399
18497SOL    HW257324  10.717   3.793   8.249
18498SOL     OW57325  10.582   6.157  10.096
18498SOL    HW157326  10.518   6.211  10.142
18498SOL    HW257327  10.533   6.120  10.023
18499SOL     OW57328  11.858   5.437  12.572
18499SOL    HW157329  11.930   5.385  12.537
18499SOL    HW257330  11.879   5.449  12.664
18500SOL     OW57331  10.070   2.445  11.727
18500SOL    HW157332  10.069   2.438  11.631
18500SOL    HW257333  10.045   2.535  11.745
18501SOL     OW57334   1.523   3.950   5.122
18501SOL    HW157335   1.428   3.961   5.123
18501SOL    HW257336   1.535   3.857   5.100
18502SOL     OW57337   3.238   1.022   3.228
18502SOL    HW157338   3.262   0.989   3.314
18502SOL    HW257339   3.291   1.100   3.216
18503SOL     OW57340  11.499   5.946  14.400
18503SOL    HW157341  11.411   5.910  14.409
18503SOL    HW257342  11.547   5.913  14.476
18504SOL     OW57343   8.988   0.026   8.537
18504SOL    HW157344   9.008  14.824   8.496
18504SOL    HW257345   8.918   0.063   8.483
18505SOL     OW57346   5.641  11.774   6.735
18505SOL    HW157347   5.546  11.785   6.740
18505SOL    HW257348   5.660  11.696   6.787
18506SOL     OW57349   8.880  10.430  10.380
18506SOL    HW157350   8.869  10.421  10.475
18506SOL    HW257351   8.840  10.351  10.343
18507SOL     OW57352   6.388   2.432  12.983
18507SOL    HW157353   6.423   2.410  12.896
18507SOL    HW257354   6.304   2.473  12.964
18508SOL     OW57355   9.277  11.403   2.321
18508SOL    HW157356   9.305  11.413   2.230
18508SOL    HW257357   9.333  11.462   2.371
18509SOL     OW57358   2.050   0.219   4.966
18509SOL    HW157359   2.076   0.133   4.934
18509SOL    HW257360   2.092   0.228   5.051
18510SOL     OW57361  13.335  11.178  14.113
18510SOL    HW157362  13.361  11.242  14.046
18510SOL    HW257363  13.395  11.194  14.186
18511SOL     OW57364   5.418   7.810   0.045
18511SOL    HW157365   5.359   7.807  14.852
18511SOL    HW257366   5.504   7.829   0.007
18512SOL     OW57367   5.195   8.064  14.611
18512SOL    HW157368   5.277   8.070  14.660
18512SOL    HW257369   5.147   8.143  14.634
18513SOL     OW57370  10.929   5.934   4.436
18513SOL    HW157371  10.900   6.024   4.419
18513SOL    HW257372  10.853   5.880   4.418
18514SOL     OW57373   3.915  12.584   7.235
18514SOL    HW157374   3.987  12.527   7.262
18514SOL    HW257375   3.952  12.639   7.166
18515SOL     OW57376  12.609   5.694  11.008
18515SOL    HW157377  12.543   5.689  10.939
18515SOL    HW257378  12.691   5.668  10.965
18516SOL     OW57379   7.868   3.503   7.830
18516SOL    HW157380   7.918   3.431   7.868
18516SOL    HW257381   7.932   3.554   7.781
18517SOL     OW57382  13.952  10.339  14.300
18517SOL    HW157383  14.007  10.330  14.223
18517SOL    HW257384  13.865  10.360  14.266
18518SOL     OW57385   4.206  12.872   6.786
18518SOL    HW157386   4.255  12.839   6.861
18518SOL    HW257387   4.239  12.961   6.774
18519SOL     OW57388  10.241   0.193   8.473
18519SOL    HW157389  10.234   0.098   8.467
18519SOL    HW257390  10.156   0.225   8.443
18520SOL     OW57391  10.216   3.248   9.998
18520SOL    HW157392  10.161   3.278   9.925
18520SOL    HW257393  10.290   3.204   9.956
18521SOL     OW57394   0.066   1.836  14.125
18521SOL    HW157395   0.159   1.848  14.147
18521SOL    HW257396   0.034   1.773  14.190
18522SOL     OW57397  11.374   6.078   8.594
18522SOL    HW157398  11.310   6.133   8.638
18522SOL    HW257399  11.339   5.989   8.601
18523SOL     OW57400   3.818   1.926  11.719
18523SOL    HW157401   3.828   1.941  11.813
18523SOL    HW257402   3.845   1.835  11.706
18524SOL     OW57403   1.538   2.594  10.724
18524SOL    HW157404   1.565   2.619  10.813
18524SOL    HW257405   1.618   2.601  10.672
18525SOL     OW57406   4.188  13.741   7.128
18525SOL    HW157407   4.125  13.743   7.057
18525SOL    HW257408   4.244  13.666   7.108
18526SOL     OW57409   8.894  11.579   0.438
18526SOL    HW157410   8.802  11.588   0.416
18526SOL    HW257411   8.924  11.669   0.452
18527SOL     OW57412   8.414  11.586   3.014
18527SOL    HW157413   8.410  11.540   2.930
18527SOL    HW257414   8.505  11.576   3.042
18528SOL     OW57415   4.990  13.849   6.037
18528SOL    HW157416   4.969  13.758   6.060
18528SOL    HW257417   5.027  13.886   6.117
18529SOL     OW57418   0.585   3.030   7.303
18529SOL    HW157419   0.672   3.059   7.275
18529SOL    HW257420   0.577   3.062   7.393
18530SOL     OW57421   1.120  12.633   9.533
18530SOL    HW157422   1.215  12.621   9.526
18530SOL    HW257423   1.084  12.553   9.496
18531SOL     OW57424   5.861  14.040   1.904
18531SOL    HW157425   5.860  13.984   1.982
18531SOL    HW257426   5.901  13.985   1.837
18532SOL     OW57427  10.831   2.430   3.162
18532SOL    HW157428  10.812   2.407   3.253
18532SOL    HW257429  10.745   2.442   3.122
18533SOL     OW57430  11.019   9.249   1.377
18533SOL    HW157431  11.106   9.275   1.407
18533SOL    HW257432  10.967   9.241   1.457
18534SOL     OW57433   1.914  14.687  13.592
18534SOL    HW157434   1.943  14.704  13.682
18534SOL    HW257435   1.824  14.718  13.589
18535SOL     OW57436   7.598   8.605  14.317
18535SOL    HW157437   7.563   8.532  14.266
18535SOL    HW257438   7.540   8.678  14.296
18536SOL     OW57439   0.766  11.176  14.041
18536SOL    HW157440   0.717  11.131  14.110
18536SOL    HW257441   0.793  11.258  14.080
18537SOL     OW57442   5.162   4.786   2.408
18537SOL    HW157443   5.205   4.786   2.323
18537SOL    HW257444   5.075   4.750   2.391
18538SOL     OW57445  11.108   6.038   0.376
18538SOL    HW157446  11.118   6.134   0.380
18538SOL    HW257447  11.013   6.025   0.368
18539SOL     OW57448   8.651  11.103   6.310
18539SOL    HW157449   8.682  11.095   6.400
18539SOL    HW257450   8.688  11.186   6.279
18540SOL     OW57451  13.229   0.212  10.618
18540SOL    HW157452  13.309   0.264  10.607
18540SOL    HW257453  13.246   0.160  10.697
18541SOL     OW57454   8.012  13.995   7.520
18541SOL    HW157455   8.004  14.089   7.538
18541SOL    HW257456   7.935  13.973   7.468
18542SOL     OW57457  13.211   2.727   6.367
18542SOL    HW157458  13.161   2.666   6.313
18542SOL    HW257459  13.172   2.720   6.454
18543SOL     OW57460  11.635   2.082  11.733
18543SOL    HW157461  11.719   2.042  11.709
18543SOL    HW257462  11.643   2.173  11.705
18544SOL     OW57463   5.717  13.941   3.784
18544SOL    HW157464   5.671  13.870   3.741
18544SOL    HW257465   5.728  14.008   3.716
18545SOL     OW57466  12.694   0.544  14.795
18545SOL    HW157467  12.747   0.492  14.734
18545SOL    HW257468  12.730   0.523  14.881
18546SOL     OW57469   1.696   6.623   9.346
18546SOL    HW157470   1.654   6.708   9.357
18546SOL    HW257471   1.760   6.636   9.277
18547SOL     OW57472   0.868  13.473   3.519
18547SOL    HW157473   0.800  13.496   3.581
18547SOL    HW257474   0.950  13.483   3.568
18548SOL     OW57475  14.124   3.061   4.283
18548SOL    HW157476  14.063   3.070   4.210
18548SOL    HW257477  14.189   2.997   4.253
18549SOL     OW57478   9.876   4.215   0.246
18549SOL    HW157479   9.966   4.239   0.268
18549SOL    HW257480   9.845   4.288   0.192
18550SOL     OW57481  13.710   4.724  10.641
18550SOL    HW157482  13.658   4.645  10.627
18550SOL    HW257483  13.787   4.694  10.689
18551SOL     OW57484   7.194   8.458   1.766
18551SOL    HW157485   7.266   8.397   1.782
18551SOL    HW257486   7.135   8.445   1.841
18552SOL     OW57487   5.974  12.661   8.878
18552SOL    HW157488   5.943  12.642   8.790
18552SOL    HW257489   5.986  12.575   8.919
18553SOL     OW57490   6.324   0.787   8.060
18553SOL    HW157491   6.335   0.742   7.977
18553SOL    HW257492   6.402   0.762   8.111
18554SOL     OW57493   4.682  14.686  13.767
18554SOL    HW157494   4.708  14.594  13.765
18554SOL    HW257495   4.588  14.685  13.787
18555SOL     OW57496   4.188   8.378   4.999
18555SOL    HW157497   4.219   8.451   5.053
18555SOL    HW257498   4.254   8.310   5.010
18556SOL     OW57499   8.676   8.621   7.586
18556SOL    HW157500   8.639   8.645   7.501
18556SOL    HW257501   8.705   8.704   7.624
18557SOL     OW57502   1.381   2.367   5.491
18557SOL    HW157503   1.434   2.436   5.451
18557SOL    HW257504   1.294   2.378   5.452
18558SOL     OW57505   5.101  11.230   0.223
18558SOL    HW157506   5.163  11.233   0.151
18558SOL    HW257507   5.020  11.197   0.184
18559SOL     OW57508  13.561   0.384  13.733
18559SOL    HW157509  13.516   0.466  13.711
18559SOL    HW257510  13.498   0.316  13.711
18560SOL     OW57511   9.110   9.847   0.995
18560SOL    HW157512   9.158   9.889   1.066
18560SOL    HW257513   9.061   9.777   1.038
18561SOL     OW57514   6.173  14.533   7.639
18561SOL    HW157515   6.246  14.470   7.641
18561SOL    HW257516   6.099  14.484   7.674
18562SOL     OW57517   6.496   2.381   3.326
18562SOL    HW157518   6.566   2.343   3.271
18562SOL    HW257519   6.535   2.385   3.413
18563SOL     OW57520   8.472  11.288   3.125
18563SOL    HW157521   8.439  11.348   3.058
18563SOL    HW257522   8.523  11.344   3.183
18564SOL     OW57523   8.957   7.411  13.143
18564SOL    HW157524   9.045   7.382  13.167
18564SOL    HW257525   8.901   7.377  13.213
18565SOL     OW57526   9.784  13.628  10.616
18565SOL    HW157527   9.812  13.545  10.576
18565SOL    HW257528   9.815  13.623  10.706
18566SOL     OW57529   3.633   1.588   6.818
18566SOL    HW157530   3.571   1.616   6.751
18566SOL    HW257531   3.622   1.652   6.889
18567SOL     OW57532   5.060   9.807   1.227
18567SOL    HW157533   4.998   9.737   1.204
18567SOL    HW257534   5.120   9.810   1.153
18568SOL     OW57535   6.130   7.076  10.897
18568SOL    HW157536   6.152   7.015  10.968
18568SOL    HW257537   6.214   7.099  10.858
18569SOL     OW57538   0.506  13.236   7.520
18569SOL    HW157539   0.422  13.217   7.480
18569SOL    HW257540   0.509  13.180   7.598
18570SOL     OW57541   5.951   9.732   9.961
18570SOL    HW157542   5.990   9.816   9.938
18570SOL    HW257543   5.969   9.723  10.055
18571SOL     OW57544   2.336   3.774   3.336
18571SOL    HW157545   2.274   3.846   3.345
18571SOL    HW257546   2.338   3.756   3.242
18572SOL     OW57547   0.166   8.157  10.711
18572SOL    HW157548   0.097   8.135  10.774
18572SOL    HW257549   0.159   8.252  10.700
18573SOL     OW57550   0.586   1.639   8.434
18573SOL    HW157551   0.660   1.594   8.392
18573SOL    HW257552   0.509   1.590   8.405
18574SOL     OW57553   2.598  11.638  12.434
18574SOL    HW157554   2.648  11.580  12.492
18574SOL    HW257555   2.656  11.653  12.359
18575SOL     OW57556  14.105  10.950   8.868
18575SOL    HW157557  14.098  10.860   8.835
18575SOL    HW257558  14.037  10.957   8.935
18576SOL     OW57559   7.503   8.495   3.422
18576SOL    HW157560   7.549   8.492   3.338
18576SOL    HW257561   7.483   8.404   3.443
18577SOL     OW57562   3.657  13.481   1.857
18577SOL    HW157563   3.603  13.486   1.778
18577SOL    HW257564   3.738  13.525   1.834
18578SOL     OW57565   0.193   4.449   3.632
18578SOL    HW157566   0.107   4.454   3.592
18578SOL    HW257567   0.197   4.525   3.691
18579SOL     OW57568  13.097   4.164   9.554
18579SOL    HW157569  13.125   4.248   9.589
18579SOL    HW257570  13.130   4.164   9.464
18580SOL     OW57571   2.749  14.343   6.081
18580SOL    HW157572   2.803  14.321   6.157
18580SOL    HW257573   2.674  14.390   6.118
18581SOL     OW57574  13.213   9.941   7.133
18581SOL    HW157575  13.295   9.894   7.150
18581SOL    HW257576  13.149   9.899   7.191
18582SOL     OW57577   1.440  14.570   2.860
18582SOL    HW157578   1.517  14.540   2.908
18582SOL    HW257579   1.378  14.497   2.867
18583SOL     OW57580   3.498   3.780   7.719
18583SOL    HW157581   3.488   3.686   7.728
18583SOL    HW257582   3.411   3.816   7.736
18584SOL     OW57583  14.092  11.849  11.774
18584SOL    HW157584  14.076  11.763  11.736
18584SOL    HW257585  14.112  11.906  11.700
18585SOL     OW57586   1.837  11.956   3.742
18585SOL    HW157587   1.915  11.901   3.734
18585SOL    HW257588   1.856  12.014   3.815
18586SOL     OW57589   3.461  10.514   3.187
18586SOL    HW157590   3.500  10.434   3.220
18586SOL    HW257591   3.534  10.576   3.182
18587SOL     OW57592   2.584  11.320   1.936
18587SOL    HW157593   2.624  11.275   1.862
18587SOL    HW257594   2.535  11.392   1.897
18588SOL     OW57595  10.953  11.348   7.876
18588SOL    HW157596  10.878  11.322   7.822
18588SOL    HW257597  10.976  11.269   7.925
18589SOL     OW57598   9.876  12.475  13.046
18589SOL    HW157599   9.959  12.499  13.005
18589SOL    HW257600   9.809  12.500  12.982
18590SOL     OW57601   1.884   0.602  13.149
18590SOL    HW157602   1.870   0.512  13.122
18590SOL    HW257603   1.883   0.599  13.245
18591SOL     OW57604   4.449   9.766  12.932
18591SOL    HW157605   4.522   9.783  12.991
18591SOL    HW257606   4.456   9.834  12.865
18592SOL     OW57607  10.785  11.940   8.384
18592SOL    HW157608  10.832  11.878   8.440
18592SOL    HW257609  10.834  12.022   8.394
18593SOL     OW57610  10.285   2.223  11.179
18593SOL    HW157611  10.254   2.304  11.220
18593SOL    HW257612  10.268   2.155  11.245
18594SOL     OW57613   2.840   1.756  10.581
18594SOL    HW157614   2.833   1.696  10.506
18594SOL    HW257615   2.898   1.825  10.551
18595SOL     OW57616  10.875   8.506   1.891
18595SOL    HW157617  10.806   8.468   1.836
18595SOL    HW257618  10.942   8.534   1.828
18596SOL     OW57619   1.293   6.698   5.524
18596SOL    HW157620   1.201   6.701   5.552
18596SOL    HW257621   1.295   6.630   5.457
18597SOL     OW57622   0.599   1.276   4.153
18597SOL    HW157623   0.644   1.329   4.218
18597SOL    HW257624   0.669   1.244   4.095
18598SOL     OW57625  13.413   9.435  14.085
18598SOL    HW157626  13.395   9.351  14.043
18598SOL    HW257627  13.402   9.418  14.179
18599SOL     OW57628   1.793   6.324   6.783
18599SOL    HW157629   1.809   6.286   6.697
18599SOL    HW257630   1.703   6.297   6.804
18600SOL     OW57631   5.289   4.289   6.660
18600SOL    HW157632   5.382   4.301   6.643
18600SOL    HW257633   5.245   4.353   6.603
18601SOL     OW57634  11.248  11.632   5.023
18601SOL    HW157635  11.262  11.684   5.103
18601SOL    HW257636  11.316  11.662   4.963
18602SOL     OW57637   4.465  12.642  11.289
18602SOL    HW157638   4.558  12.633  11.306
18602SOL    HW257639   4.460  12.692  11.207
18603SOL     OW57640   3.553   9.603   4.862
18603SOL    HW157641   3.611   9.549   4.808
18603SOL    HW257642   3.610   9.640   4.929
18604SOL     OW57643   1.083   1.839  12.183
18604SOL    HW157644   1.004   1.787  12.169
18604SOL    HW257645   1.132   1.832  12.101
18605SOL     OW57646  12.702   4.105   1.669
18605SOL    HW157647  12.700   4.048   1.592
18605SOL    HW257648  12.615   4.097   1.707
18606SOL     OW57649  12.036  13.423  12.801
18606SOL    HW157650  12.127  13.423  12.831
18606SOL    HW257651  12.037  13.376  12.718
18607SOL     OW57652  10.544   5.237   2.623
18607SOL    HW157653  10.583   5.252   2.537
18607SOL    HW257654  10.463   5.190   2.606
18608SOL     OW57655   9.274  10.363   3.880
18608SOL    HW157656   9.357  10.405   3.857
18608SOL    HW257657   9.233  10.422   3.944
18609SOL     OW57658   4.367  14.703   9.069
18609SOL    HW157659   4.336  14.694   9.159
18609SOL    HW257660   4.337  14.623   9.026
18610SOL     OW57661  13.080   4.155   7.302
18610SOL    HW157662  13.044   4.221   7.242
18610SOL    HW257663  13.138   4.102   7.247
18611SOL     OW57664  14.294   3.916  10.425
18611SOL    HW157665  14.203   3.915  10.397
18611SOL    HW257666  14.297   3.854  10.499
18612SOL     OW57667   2.709  12.326   0.418
18612SOL    HW157668   2.670  12.322   0.330
18612SOL    HW257669   2.787  12.272   0.412
18613SOL     OW57670  12.282  10.042   5.973
18613SOL    HW157671  12.216  10.048   6.042
18613SOL    HW257672  12.361  10.011   6.018
18614SOL     OW57673  14.603   0.234   1.656
18614SOL    HW157674  14.673   0.258   1.717
18614SOL    HW257675  14.523   0.256   1.703
18615SOL     OW57676   9.041  11.870   3.055
18615SOL    HW157677   8.990  11.827   3.124
18615SOL    HW257678   9.028  11.964   3.071
18616SOL     OW57679  14.664   4.748   8.165
18616SOL    HW157680  14.696   4.692   8.095
18616SOL    HW257681  14.667   4.694   8.244
18617SOL     OW57682   7.535   8.743  10.486
18617SOL    HW157683   7.446   8.726  10.456
18617SOL    HW257684   7.529   8.745  10.581
18618SOL     OW57685   9.230  13.017   3.737
18618SOL    HW157686   9.244  12.973   3.653
18618SOL    HW257687   9.135  13.023   3.745
18619SOL     OW57688   6.619  14.192   0.626
18619SOL    HW157689   6.707  14.170   0.597
18619SOL    HW257690   6.622  14.185   0.722
18620SOL     OW57691   3.388  14.276   7.208
18620SOL    HW157692   3.441  14.356   7.209
18620SOL    HW257693   3.439  14.212   7.257
18621SOL     OW57694  11.468   2.275   4.970
18621SOL    HW157695  11.382   2.271   4.928
18621SOL    HW257696  11.463   2.351   5.028
18622SOL     OW57697  14.588   5.518   8.845
18622SOL    HW157698  14.505   5.563   8.829
18622SOL    HW257699  14.569   5.460   8.919
18623SOL     OW57700   5.835  10.406   3.744
18623SOL    HW157701   5.901  10.413   3.812
18623SOL    HW257702   5.884  10.382   3.665
18624SOL     OW57703  12.952   4.243   1.641
18624SOL    HW157704  12.858   4.229   1.634
18624SOL    HW257705  12.981   4.179   1.706
18625SOL     OW57706   2.440  10.483   9.602
18625SOL    HW157707   2.389  10.500   9.523
18625SOL    HW257708   2.483  10.566   9.622
18626SOL     OW57709   0.750   6.023   1.513
18626SOL    HW157710   0.703   6.071   1.445
18626SOL    HW257711   0.841   6.022   1.482
18627SOL     OW57712   5.573   1.999  13.796
18627SOL    HW157713   5.559   1.930  13.860
18627SOL    HW257714   5.658   2.037  13.820
18628SOL     OW57715   6.259  12.879   3.104
18628SOL    HW157716   6.239  12.953   3.048
18628SOL    HW257717   6.174  12.837   3.120
18629SOL     OW57718  12.651  12.701   6.190
18629SOL    HW157719  12.580  12.700   6.127
18629SOL    HW257720  12.731  12.701   6.137
18630SOL     OW57721   6.346   3.752   2.731
18630SOL    HW157722   6.429   3.709   2.754
18630SOL    HW257723   6.370   3.843   2.716
18631SOL     OW57724  10.383   6.215  11.767
18631SOL    HW157725  10.369   6.264  11.686
18631SOL    HW257726  10.471   6.239  11.796
18632SOL     OW57727   0.320  12.046   4.176
18632SOL    HW157728   0.288  12.109   4.241
18632SOL    HW257729   0.268  11.967   4.192
18633SOL     OW57730   1.362   6.398   5.831
18633SOL    HW157731   1.272   6.379   5.807
18633SOL    HW257732   1.380   6.339   5.905
18634SOL     OW57733   2.651   0.793   2.052
18634SOL    HW157734   2.638   0.753   1.966
18634SOL    HW257735   2.649   0.887   2.037
18635SOL     OW57736  14.241  12.566  14.420
18635SOL    HW157737  14.192  12.528  14.492
18635SOL    HW257738  14.246  12.660  14.441
18636SOL     OW57739   5.351   0.967  14.358
18636SOL    HW157740   5.282   0.904  14.376
18636SOL    HW257741   5.338   1.036  14.422
18637SOL     OW57742   6.295   0.183   1.851
18637SOL    HW157743   6.374   0.206   1.801
18637SOL    HW257744   6.320   0.108   1.904
18638SOL     OW57745  13.472   7.075   0.491
18638SOL    HW157746  13.446   7.037   0.407
18638SOL    HW257747  13.445   7.167   0.486
18639SOL     OW57748   3.771   6.362   5.888
18639SOL    HW157749   3.833   6.435   5.886
18639SOL    HW257750   3.744   6.351   5.797
18640SOL     OW57751   1.335  10.446  13.583
18640SOL    HW157752   1.284  10.500  13.642
18640SOL    HW257753   1.270  10.401  13.529
18641SOL     OW57754   7.494  12.674  10.070
18641SOL    HW157755   7.445  12.676   9.989
18641SOL    HW257756   7.516  12.766  10.087
18642SOL     OW57757  12.604   8.526   4.625
18642SOL    HW157758  12.686   8.479   4.613
18642SOL    HW257759  12.536   8.461   4.605
18643SOL     OW57760   3.699   9.645  13.748
18643SOL    HW157761   3.781   9.672  13.706
18643SOL    HW257762   3.663   9.726  13.785
18644SOL     OW57763   0.172   8.115   0.912
18644SOL    HW157764   0.228   8.130   0.836
18644SOL    HW257765   0.222   8.148   0.986
18645SOL     OW57766  13.980   7.592   2.989
18645SOL    HW157767  14.023   7.537   3.055
18645SOL    HW257768  14.040   7.665   2.976
18646SOL     OW57769  10.296  14.862   9.338
18646SOL    HW157770  10.303   0.010   9.247
18646SOL    HW257771  10.272  14.769   9.330
18647SOL     OW57772   8.489   3.250  11.144
18647SOL    HW157773   8.500   3.219  11.054
18647SOL    HW257774   8.394   3.248  11.159
18648SOL     OW57775   1.360   0.203  14.031
18648SOL    HW157776   1.291   0.165  13.976
18648SOL    HW257777   1.344   0.167  14.118
18649SOL     OW57778  13.136   6.724   0.117
18649SOL    HW157779  13.053   6.694   0.152
18649SOL    HW257780  13.200   6.702   0.184
18650SOL     OW57781  12.395  10.923  10.088
18650SOL    HW157782  12.398  10.847  10.145
18650SOL    HW257783  12.349  10.893  10.010
18651SOL     OW57784   0.665   4.122  14.182
18651SOL    HW157785   0.617   4.161  14.109
18651SOL    HW257786   0.597   4.089  14.241
18652SOL     OW57787   9.784   0.428  10.649
18652SOL    HW157788   9.778   0.333  10.645
18652SOL    HW257789   9.812   0.454  10.561
18653SOL     OW57790   9.487  14.217  12.302
18653SOL    HW157791   9.521  14.293  12.254
18653SOL    HW257792   9.477  14.150  12.235
18654SOL     OW57793   0.153   5.146   9.490
18654SOL    HW157794   0.178   5.237   9.506
18654SOL    HW257795   0.072   5.152   9.439
18655SOL     OW57796  11.579  13.909   7.052
18655SOL    HW157797  11.632  13.846   7.100
18655SOL    HW257798  11.544  13.859   6.977
18656SOL     OW57799  12.369   2.155   0.237
18656SOL    HW157800  12.385   2.226   0.175
18656SOL    HW257801  12.275   2.135   0.227
18657SOL     OW57802   3.584  14.734   5.005
18657SOL    HW157803   3.649  14.800   5.029
18657SOL    HW257804   3.625  14.650   5.027
18658SOL     OW57805   6.540   5.196   6.290
18658SOL    HW157806   6.602   5.125   6.273
18658SOL    HW257807   6.459   5.167   6.248
18659SOL     OW57808   5.586   3.482  11.234
18659SOL    HW157809   5.624   3.541  11.300
18659SOL    HW257810   5.660   3.429  11.205
18660SOL     OW57811  11.730   4.138  13.530
18660SOL    HW157812  11.687   4.097  13.605
18660SOL    HW257813  11.676   4.113  13.455
18661SOL     OW57814  11.747   8.012   7.073
18661SOL    HW157815  11.708   7.967   6.998
18661SOL    HW257816  11.672   8.043   7.123
18662SOL     OW57817  14.250  12.451   8.178
18662SOL    HW157818  14.303  12.398   8.119
18662SOL    HW257819  14.160  12.424   8.161
18663SOL     OW57820  14.870   2.620   4.741
18663SOL    HW157821  14.809   2.558   4.783
18663SOL    HW257822  14.828   2.642   4.658
18664SOL     OW57823  14.761   3.086   3.430
18664SOL    HW157824  14.729   3.063   3.517
18664SOL    HW257825  14.701   3.153   3.399
18665SOL     OW57826   0.212   8.700  11.543
18665SOL    HW157827   0.280   8.651  11.589
18665SOL    HW257828   0.255   8.780  11.513
18666SOL     OW57829   5.335  12.246   4.544
18666SOL    HW157830   5.418  12.293   4.536
18666SOL    HW257831   5.276  12.310   4.584
18667SOL     OW57832   9.028  13.815  11.866
18667SOL    HW157833   8.971  13.767  11.806
18667SOL    HW257834   9.041  13.900  11.823
18668SOL     OW57835   7.438   4.296   6.837
18668SOL    HW157836   7.418   4.249   6.756
18668SOL    HW257837   7.497   4.237   6.885
18669SOL     OW57838   7.210   0.657  10.592
18669SOL    HW157839   7.158   0.624  10.665
18669SOL    HW257840   7.264   0.583  10.566
18670SOL     OW57841   7.012  10.892   4.195
18670SOL    HW157842   6.994  10.986   4.207
18670SOL    HW257843   7.039  10.885   4.103
18671SOL     OW57844  14.600   8.344   2.644
18671SOL    HW157845  14.513   8.310   2.622
18671SOL    HW257846  14.600   8.434   2.611
18672SOL     OW57847  13.048   8.186   0.328
18672SOL    HW157848  12.955   8.191   0.309
18672SOL    HW257849  13.091   8.198   0.243
18673SOL     OW57850   6.494   7.433   6.632
18673SOL    HW157851   6.460   7.416   6.544
18673SOL    HW257852   6.447   7.511   6.661
18674SOL     OW57853   4.495  12.224   8.017
18674SOL    HW157854   4.561  12.169   7.974
18674SOL    HW257855   4.421  12.165   8.033
18675SOL     OW57856  14.182   5.795  14.619
18675SOL    HW157857  14.116   5.758  14.678
18675SOL    HW257858  14.243   5.841  14.677
18676SOL     OW57859   5.092   7.756  13.954
18676SOL    HW157860   5.136   7.837  13.928
18676SOL    HW257861   4.999   7.779  13.954
18677SOL     OW57862   4.427  12.163  10.135
18677SOL    HW157863   4.382  12.131  10.213
18677SOL    HW257864   4.506  12.111  10.130
18678SOL     OW57865   5.009   9.899   4.296
18678SOL    HW157866   5.105   9.902   4.301
18678SOL    HW257867   4.990   9.906   4.202
18679SOL     OW57868  10.864   0.165   9.998
18679SOL    HW157869  10.794   0.210  10.045
18679SOL    HW257870  10.928   0.234   9.980
18680SOL     OW57871   0.868  13.308   8.296
18680SOL    HW157872   0.777  13.300   8.324
18680SOL    HW257873   0.900  13.218   8.292
18681SOL     OW57874   4.389  13.733   6.711
18681SOL    HW157875   4.311  13.785   6.690
18681SOL    HW257876   4.457  13.769   6.654
18682SOL     OW57877   6.689   1.654   5.456
18682SOL    HW157878   6.612   1.702   5.486
18682SOL    HW257879   6.761   1.716   5.465
18683SOL     OW57880   7.400   8.788   3.109
18683SOL    HW157881   7.468   8.853   3.125
18683SOL    HW257882   7.320   8.826   3.147
18684SOL     OW57883  12.300   2.253  10.408
18684SOL    HW157884  12.247   2.325  10.441
18684SOL    HW257885  12.269   2.239  10.319
18685SOL     OW57886   1.680   7.225  11.620
18685SOL    HW157887   1.775   7.219  11.620
18685SOL    HW257888   1.651   7.136  11.598
18686SOL     OW57889  12.198  12.105   9.776
18686SOL    HW157890  12.243  12.116   9.693
18686SOL    HW257891  12.263  12.064   9.833
18687SOL     OW57892   8.562   0.971  10.446
18687SOL    HW157893   8.468   0.965  10.466
18687SOL    HW257894   8.581   0.891  10.397
18688SOL     OW57895  10.080  12.533  11.529
18688SOL    HW157896  10.139  12.597  11.490
18688SOL    HW257897  10.081  12.554  11.623
18689SOL     OW57898   8.650   9.021   0.348
18689SOL    HW157899   8.606   9.011   0.433
18689SOL    HW257900   8.736   8.980   0.361
18690SOL     OW57901   8.730  10.158   7.782
18690SOL    HW157902   8.665  10.090   7.764
18690SOL    HW257903   8.756  10.189   7.695
18691SOL     OW57904  12.502   9.538  11.349
18691SOL    HW157905  12.544   9.601  11.290
18691SOL    HW257906  12.415   9.524  11.311
18692SOL     OW57907  14.149  14.268   1.820
18692SOL    HW157908  14.151  14.356   1.856
18692SOL    HW257909  14.180  14.211   1.890
18693SOL     OW57910  12.621  13.050   3.502
18693SOL    HW157911  12.642  12.975   3.557
18693SOL    HW257912  12.527  13.063   3.514
18694SOL     OW57913   6.488   3.432  11.690
18694SOL    HW157914   6.426   3.503  11.679
18694SOL    HW257915   6.571   3.468  11.659
18695SOL     OW57916  12.471   8.115   0.731
18695SOL    HW157917  12.444   8.144   0.644
18695SOL    HW257918  12.449   8.022   0.733
18696SOL     OW57919   1.668  12.042   8.331
18696SOL    HW157920   1.578  12.071   8.342
18696SOL    HW257921   1.673  12.010   8.241
18697SOL     OW57922   3.214  12.452   1.916
18697SOL    HW157923   3.280  12.519   1.931
18697SOL    HW257924   3.229  12.388   1.986
18698SOL     OW57925   9.879   7.983   2.532
18698SOL    HW157926   9.926   7.933   2.598
18698SOL    HW257927   9.930   8.064   2.523
18699SOL     OW57928   9.403  13.076  10.529
18699SOL    HW157929   9.395  12.980  10.531
18699SOL    HW257930   9.403  13.098  10.436
18700SOL     OW57931   1.688   5.096  13.355
18700SOL    HW157932   1.773   5.053  13.368
18700SOL    HW257933   1.705   5.189  13.369
18701SOL     OW57934  11.240   0.067   6.312
18701SOL    HW157935  11.325   0.022   6.315
18701SOL    HW257936  11.217   0.069   6.219
18702SOL     OW57937  12.625  14.828  12.590
18702SOL    HW157938  12.654   0.036  12.573
18702SOL    HW257939  12.573  14.805  12.513
18703SOL     OW57940   5.514   2.163  11.923
18703SOL    HW157941   5.444   2.102  11.947
18703SOL    HW257942   5.590   2.133  11.972
18704SOL     OW57943   0.808   2.429   8.981
18704SOL    HW157944   0.879   2.437   9.045
18704SOL    HW257945   0.852   2.410   8.898
18705SOL     OW57946   8.855   4.383   5.126
18705SOL    HW157947   8.815   4.388   5.039
18705SOL    HW257948   8.784   4.408   5.186
18706SOL     OW57949   1.469   5.426  13.779
18706SOL    HW157950   1.512   5.418  13.864
18706SOL    HW257951   1.387   5.471  13.797
18707SOL     OW57952   2.979  12.487   9.069
18707SOL    HW157953   2.956  12.397   9.091
18707SOL    HW257954   2.928  12.507   8.990
18708SOL     OW57955   8.547   7.247   7.695
18708SOL    HW157956   8.516   7.220   7.782
18708SOL    HW257957   8.467   7.266   7.646
18709SOL     OW57958   1.324   0.040  12.177
18709SOL    HW157959   1.231   0.024  12.193
18709SOL    HW257960   1.352  14.847  12.124
18710SOL     OW57961   9.596   8.618  10.621
18710SOL    HW157962   9.552   8.671  10.554
18710SOL    HW257963   9.688   8.620  10.596
18711SOL     OW57964  12.963  10.059  11.930
18711SOL    HW157965  12.901   9.996  11.892
18711SOL    HW257966  12.960  10.043  12.024
18712SOL     OW57967   0.987  10.551   7.589
18712SOL    HW157968   1.067  10.554   7.642
18712SOL    HW257969   1.015  10.581   7.503
18713SOL     OW57970  10.743   6.685   3.441
18713SOL    HW157971  10.751   6.686   3.536
18713SOL    HW257972  10.775   6.771   3.414
18714SOL     OW57973  10.292   3.385  10.778
18714SOL    HW157974  10.335   3.429  10.850
18714SOL    HW257975  10.358   3.383  10.708
18715SOL     OW57976   1.554   1.523   2.564
18715SOL    HW157977   1.524   1.614   2.561
18715SOL    HW257978   1.503   1.483   2.635
18716SOL     OW57979   1.152   3.022   0.427
18716SOL    HW157980   1.110   2.968   0.360
18716SOL    HW257981   1.083   3.038   0.492
18717SOL     OW57982   1.206   5.291  11.040
18717SOL    HW157983   1.262   5.305  10.964
18717SOL    HW257984   1.117   5.306  11.007
18718SOL     OW57985   4.990  10.761   3.384
18718SOL    HW157986   5.066  10.703   3.374
18718SOL    HW257987   4.917  10.702   3.399
18719SOL     OW57988  14.060  13.129  11.921
18719SOL    HW157989  13.973  13.161  11.945
18719SOL    HW257990  14.094  13.091  12.002
18720SOL     OW57991  11.091   6.325  12.298
18720SOL    HW157992  11.077   6.231  12.291
18720SOL    HW257993  11.185   6.334  12.315
18721SOL     OW57994  10.360  10.628   6.884
18721SOL    HW157995  10.327  10.547   6.923
18721SOL    HW257996  10.284  10.666   6.841
18722SOL     OW57997   8.121  10.006   5.118
18722SOL    HW157998   8.169   9.929   5.087
18722SOL    HW257999   8.033   9.996   5.083
18723SOL     OW58000  11.100   5.959   5.450
18723SOL    HW158001  11.097   5.965   5.355
18723SOL    HW258002  11.053   5.879   5.471
18724SOL     OW58003  13.542   1.446   6.509
18724SOL    HW158004  13.543   1.490   6.594
18724SOL    HW258005  13.499   1.508   6.450
18725SOL     OW58006   8.909   2.742   8.470
18725SOL    HW158007   8.876   2.713   8.555
18725SOL    HW258008   8.831   2.766   8.421
18726SOL     OW58009   4.009   3.363   4.862
18726SOL    HW158010   4.094   3.408   4.857
18726SOL    HW258011   3.978   3.360   4.772
18727SOL     OW58012  10.550   2.434  10.590
18727SOL    HW158013  10.457   2.458  10.580
18727SOL    HW258014  10.548   2.344  10.622
18728SOL     OW58015   4.101   5.205  13.536
18728SOL    HW158016   4.068   5.239  13.453
18728SOL    HW258017   4.035   5.141  13.564
18729SOL     OW58018   9.505   3.011   8.315
18729SOL    HW158019   9.426   3.004   8.367
18729SOL    HW258020   9.542   3.096   8.337
18730SOL     OW58021   7.733   6.534   9.675
18730SOL    HW158022   7.692   6.532   9.588
18730SOL    HW258023   7.821   6.500   9.661
18731SOL     OW58024  13.949  13.433  11.458
18731SOL    HW158025  13.947  13.365  11.526
18731SOL    HW258026  13.996  13.505  11.498
18732SOL     OW58027   9.096   6.814  11.330
18732SOL    HW158028   9.004   6.794  11.314
18732SOL    HW258029   9.144   6.745  11.283
18733SOL     OW58030   2.161  12.929   5.888
18733SOL    HW158031   2.145  12.951   5.796
18733SOL    HW258032   2.182  13.013   5.929
18734SOL     OW58033  11.341   8.071  10.344
18734SOL    HW158034  11.281   8.004  10.313
18734SOL    HW258035  11.424   8.052  10.301
18735SOL     OW58036   6.858  14.019   7.951
18735SOL    HW158037   6.939  14.020   8.002
18735SOL    HW258038   6.844  14.111   7.928
18736SOL     OW58039   5.759   3.446   6.033
18736SOL    HW158040   5.663   3.447   6.031
18736SOL    HW258041   5.785   3.533   6.002
18737SOL     OW58042  14.194  10.305   8.213
18737SOL    HW158043  14.264  10.269   8.267
18737SOL    HW258044  14.190  10.247   8.137
18738SOL     OW58045  14.006  10.583   4.207
18738SOL    HW158046  14.001  10.593   4.302
18738SOL    HW258047  13.980  10.669   4.172
18739SOL     OW58048   6.258   8.554   4.827
18739SOL    HW158049   6.256   8.522   4.917
18739SOL    HW258050   6.166   8.554   4.800
18740SOL     OW58051   6.031   9.267   7.813
18740SOL    HW158052   5.948   9.307   7.836
18740SOL    HW258053   6.073   9.330   7.754
18741SOL     OW58054  14.670  10.672  10.296
18741SOL    HW158055  14.684  10.620  10.217
18741SOL    HW258056  14.621  10.749  10.266
18742SOL     OW58057  11.195  11.741   6.174
18742SOL    HW158058  11.131  11.746   6.103
18742SOL    HW258059  11.278  11.724   6.131
18743SOL     OW58060  14.412   4.900   5.161
18743SOL    HW158061  14.338   4.891   5.102
18743SOL    HW258062  14.405   4.990   5.194
18744SOL     OW58063  13.101   2.047   3.654
18744SOL    HW158064  13.016   2.090   3.651
18744SOL    HW258065  13.114   2.013   3.565
18745SOL     OW58066   7.661  13.686  11.890
18745SOL    HW158067   7.713  13.766  11.903
18745SOL    HW258068   7.634  13.660  11.978
18746SOL     OW58069   6.622  12.158   7.490
18746SOL    HW158070   6.536  12.162   7.449
18746SOL    HW258071   6.617  12.084   7.550
18747SOL     OW58072   0.175   7.901   1.401
18747SOL    HW158073   0.104   7.839   1.417
18747SOL    HW258074   0.144   7.983   1.438
18748SOL     OW58075   3.685   3.252   3.662
18748SOL    HW158076   3.706   3.338   3.698
18748SOL    HW258077   3.729   3.249   3.578
18749SOL     OW58078  14.116   7.928  11.794
18749SOL    HW158079  14.123   7.853  11.734
18749SOL    HW258080  14.046   7.982  11.756
18750SOL     OW58081   2.832  13.476  10.377
18750SOL    HW158082   2.783  13.417  10.321
18750SOL    HW258083   2.921  13.441  10.377
18751SOL     OW58084   9.910   5.490   1.430
18751SOL    HW158085   9.934   5.403   1.461
18751SOL    HW258086   9.985   5.545   1.452
18752SOL     OW58087   2.724   6.677   9.478
18752SOL    HW158088   2.642   6.715   9.446
18752SOL    HW258089   2.754   6.621   9.406
18753SOL     OW58090   4.068  14.561  14.410
18753SOL    HW158091   4.147  14.531  14.365
18753SOL    HW258092   4.004  14.573  14.340
18754SOL     OW58093   4.636   1.361   1.182
18754SOL    HW158094   4.554   1.408   1.199
18754SOL    HW258095   4.612   1.290   1.121
18755SOL     OW58096   7.099   0.520   8.938
18755SOL    HW158097   7.109   0.438   8.889
18755SOL    HW258098   7.154   0.583   8.890
18756SOL     OW58099   0.680   8.273   4.226
18756SOL    HW158100   0.641   8.344   4.175
18756SOL    HW258101   0.746   8.316   4.281
18757SOL     OW58102   6.858   1.733   0.402
18757SOL    HW158103   6.897   1.793   0.465
18757SOL    HW258104   6.798   1.679   0.453
18758SOL     OW58105   2.061   4.099  10.233
18758SOL    HW158106   2.043   4.036  10.303
18758SOL    HW258107   2.146   4.137  10.257
18759SOL     OW58108  14.060   0.993   5.570
18759SOL    HW158109  14.081   1.072   5.621
18759SOL    HW258110  14.118   0.926   5.605
18760SOL     OW58111   2.592   7.152   1.162
18760SOL    HW158112   2.511   7.188   1.127
18760SOL    HW258113   2.594   7.181   1.253
18761SOL     OW58114  12.880   8.927   0.631
18761SOL    HW158115  12.825   8.919   0.709
18761SOL    HW258116  12.965   8.956   0.665
18762SOL     OW58117   4.978  12.921  10.906
18762SOL    HW158118   4.983  12.960  10.819
18762SOL    HW258119   4.994  12.828  10.892
18763SOL     OW58120  13.126   9.166   1.116
18763SOL    HW158121  13.200   9.114   1.085
18763SOL    HW258122  13.074   9.183   1.037
18764SOL     OW58123  11.643   6.355  14.249
18764SOL    HW158124  11.645   6.331  14.156
18764SOL    HW258125  11.734   6.344  14.279
18765SOL     OW58126   1.724   7.469   8.268
18765SOL    HW158127   1.769   7.438   8.347
18765SOL    HW258128   1.657   7.402   8.252
18766SOL     OW58129   7.415  10.926   8.737
18766SOL    HW158130   7.418  11.004   8.682
18766SOL    HW258131   7.441  10.956   8.824
18767SOL     OW58132   9.215   8.584  10.525
18767SOL    HW158133   9.162   8.564  10.447
18767SOL    HW258134   9.302   8.602  10.490
18768SOL     OW58135   3.131  10.201  11.952
18768SOL    HW158136   3.153  10.115  11.917
18768SOL    HW258137   3.132  10.259  11.876
18769SOL     OW58138   4.253  14.814   8.738
18769SOL    HW158139   4.173  14.866   8.739
18769SOL    HW258140   4.243  14.756   8.662
18770SOL     OW58141   3.918   8.877  13.039
18770SOL    HW158142   3.861   8.902  12.966
18770SOL    HW258143   3.989   8.828  12.998
18771SOL     OW58144  11.499   0.172   5.113
18771SOL    HW158145  11.426   0.224   5.146
18771SOL    HW258146  11.577   0.224   5.136
18772SOL     OW58147   1.127   5.881  12.797
18772SOL    HW158148   1.039   5.917  12.814
18772SOL    HW258149   1.148   5.910  12.709
18773SOL     OW58150   6.559  11.159  14.300
18773SOL    HW158151   6.547  11.095  14.230
18773SOL    HW258152   6.552  11.244  14.255
18774SOL     OW58153   9.560   6.416   9.387
18774SOL    HW158154   9.540   6.407   9.294
18774SOL    HW258155   9.498   6.357   9.430
18775SOL     OW58156  11.142   6.943   0.834
18775SOL    HW158157  11.140   6.849   0.821
18775SOL    HW258158  11.161   6.955   0.927
18776SOL     OW58159   7.684   8.892  13.068
18776SOL    HW158160   7.690   8.854  12.981
18776SOL    HW258161   7.669   8.817  13.126
18777SOL     OW58162   9.966   3.496  13.616
18777SOL    HW158163  10.037   3.445  13.653
18777SOL    HW258164   9.889   3.439  13.622
18778SOL     OW58165  11.597   4.935   9.350
18778SOL    HW158166  11.675   4.981   9.319
18778SOL    HW258167  11.530   5.003   9.358
18779SOL     OW58168   4.444   1.497   0.735
18779SOL    HW158169   4.420   1.456   0.818
18779SOL    HW258170   4.520   1.447   0.705
18780SOL     OW58171  14.851   3.496   7.850
18780SOL    HW158172   0.005   3.581   7.824
18780SOL    HW258173  14.784   3.517   7.916
18781SOL     OW58174   0.388   1.613   0.638
18781SOL    HW158175   0.415   1.521   0.645
18781SOL    HW258176   0.333   1.616   0.559
18782SOL     OW58177  13.688  10.277   0.108
18782SOL    HW158178  13.774  10.262   0.070
18782SOL    HW258179  13.680  10.210   0.176
18783SOL     OW58180   7.153   3.921   7.371
18783SOL    HW158181   7.223   3.876   7.417
18783SOL    HW258182   7.114   3.853   7.315
18784SOL     OW58183  11.383   7.723   4.412
18784SOL    HW158184  11.378   7.818   4.397
18784SOL    HW258185  11.459   7.712   4.468
18785SOL     OW58186   4.923   0.991   3.961
18785SOL    HW158187   4.981   0.930   4.007
18785SOL    HW258188   4.900   0.946   3.880
18786SOL     OW58189   7.614   0.097   6.530
18786SOL    HW158190   7.670   0.115   6.455
18786SOL    HW258191   7.674   0.064   6.597
18787SOL     OW58192   9.600   8.373   0.626
18787SOL    HW158193   9.535   8.400   0.561
18787SOL    HW258194   9.655   8.450   0.638
18788SOL     OW58195   6.321  10.482  14.662
18788SOL    HW158196   6.261  10.531  14.607
18788SOL    HW258197   6.283  10.395  14.668
18789SOL     OW58198   2.642   0.443   9.728
18789SOL    HW158199   2.631   0.510   9.660
18789SOL    HW258200   2.710   0.385   9.694
18790SOL     OW58201  14.630  10.638   8.561
18790SOL    HW158202  14.676  10.555   8.565
18790SOL    HW258203  14.648  10.671   8.473
18791SOL     OW58204   3.446  13.572   8.011
18791SOL    HW158205   3.529  13.571   8.058
18791SOL    HW258206   3.402  13.492   8.039
18792SOL     OW58207   5.625   2.311  11.698
18792SOL    HW158208   5.595   2.276  11.782
18792SOL    HW258209   5.720   2.317  11.706
18793SOL     OW58210   9.903  11.279   0.993
18793SOL    HW158211   9.870  11.368   1.003
18793SOL    HW258212   9.827  11.228   0.965
18794SOL     OW58213   8.385   0.286   8.426
18794SOL    HW158214   8.349   0.206   8.463
18794SOL    HW258215   8.309   0.343   8.415
18795SOL     OW58216  12.028   6.804   5.502
18795SOL    HW158217  12.018   6.713   5.472
18795SOL    HW258218  12.116   6.828   5.474
18796SOL     OW58219   7.158   7.389   7.481
18796SOL    HW158220   7.096   7.453   7.515
18796SOL    HW258221   7.109   7.340   7.415
18797SOL     OW58222   8.602  10.116   6.207
18797SOL    HW158223   8.597  10.194   6.152
18797SOL    HW258224   8.520  10.117   6.257
18798SOL     OW58225   3.507   9.062   3.598
18798SOL    HW158226   3.506   9.103   3.684
18798SOL    HW258227   3.566   8.987   3.608
18799SOL     OW58228  10.650   7.860   3.759
18799SOL    HW158229  10.585   7.815   3.813
18799SOL    HW258230  10.607   7.871   3.674
18800SOL     OW58231   9.880   4.191   9.358
18800SOL    HW158232   9.841   4.129   9.297
18800SOL    HW258233   9.871   4.150   9.444
18801SOL     OW58234   6.059   8.936   0.395
18801SOL    HW158235   6.087   9.026   0.406
18801SOL    HW258236   6.127   8.884   0.438
18802SOL     OW58237   0.886   5.901   9.626
18802SOL    HW158238   0.916   5.848   9.552
18802SOL    HW258239   0.967   5.924   9.672
18803SOL     OW58240  10.559  12.288   1.924
18803SOL    HW158241  10.513  12.353   1.978
18803SOL    HW258242  10.624  12.250   1.982
18804SOL     OW58243   6.562   9.194   5.474
18804SOL    HW158244   6.496   9.261   5.459
18804SOL    HW258245   6.616   9.195   5.394
18805SOL     OW58246  10.409   0.384  13.228
18805SOL    HW158247  10.478   0.426  13.279
18805SOL    HW258248  10.455   0.341  13.156
18806SOL     OW58249   5.845   5.772   8.804
18806SOL    HW158250   5.902   5.833   8.850
18806SOL    HW258251   5.902   5.733   8.737
18807SOL     OW58252  14.802   7.906   7.871
18807SOL    HW158253  14.743   7.831   7.865
18807SOL    HW258254  14.868   7.890   7.804
18808SOL     OW58255   7.615   6.728   6.434
18808SOL    HW158256   7.526   6.725   6.397
18808SOL    HW258257   7.613   6.664   6.505
18809SOL     OW58258   6.991   6.023   9.077
18809SOL    HW158259   7.022   6.001   8.989
18809SOL    HW258260   6.896   6.018   9.070
18810SOL     OW58261   6.301   4.759   6.020
18810SOL    HW158262   6.292   4.746   6.114
18810SOL    HW258263   6.390   4.793   6.008
18811SOL     OW58264  10.552   4.383   1.863
18811SOL    HW158265  10.527   4.417   1.777
18811SOL    HW258266  10.555   4.288   1.851
18812SOL     OW58267  13.659   8.639   5.760
18812SOL    HW158268  13.616   8.721   5.783
18812SOL    HW258269  13.588   8.585   5.724
18813SOL     OW58270  14.000   1.683   2.702
18813SOL    HW158271  13.932   1.631   2.744
18813SOL    HW258272  14.015   1.756   2.761
18814SOL     OW58273  11.400   5.814   1.413
18814SOL    HW158274  11.375   5.788   1.501
18814SOL    HW258275  11.470   5.877   1.426
18815SOL     OW58276   8.335   6.668  13.899
18815SOL    HW158277   8.262   6.627  13.945
18815SOL    HW258278   8.398   6.689  13.967
18816SOL     OW58279   4.801  11.276   9.233
18816SOL    HW158280   4.753  11.343   9.185
18816SOL    HW258281   4.771  11.193   9.195
18817SOL     OW58282   8.375   9.430   2.319
18817SOL    HW158283   8.431   9.496   2.360
18817SOL    HW258284   8.320   9.480   2.259
18818SOL     OW58285  10.838   7.184   5.283
18818SOL    HW158286  10.762   7.132   5.256
18818SOL    HW258287  10.887   7.126   5.341
18819SOL     OW58288   5.360   1.357   6.766
18819SOL    HW158289   5.320   1.395   6.844
18819SOL    HW258290   5.422   1.424   6.736
18820SOL     OW58291   6.498   2.224  10.139
18820SOL    HW158292   6.574   2.179  10.174
18820SOL    HW258293   6.518   2.236  10.046
18821SOL     OW58294   1.679   8.012  10.563
18821SOL    HW158295   1.742   7.940  10.556
18821SOL    HW258296   1.682   8.055  10.478
18822SOL     OW58297  14.551   1.098   1.720
18822SOL    HW158298  14.567   1.023   1.777
18822SOL    HW258299  14.578   1.068   1.633
18823SOL     OW58300   5.335   3.914   3.226
18823SOL    HW158301   5.400   3.849   3.200
18823SOL    HW258302   5.254   3.885   3.184
18824SOL     OW58303   9.161  13.771   0.816
18824SOL    HW158304   9.087  13.762   0.875
18824SOL    HW258305   9.224  13.825   0.865
18825SOL     OW58306  14.183   7.439   1.329
18825SOL    HW158307  14.116   7.381   1.293
18825SOL    HW258308  14.229   7.473   1.252
18826SOL     OW58309   8.956   2.126   4.839
18826SOL    HW158310   8.930   2.211   4.803
18826SOL    HW258311   8.986   2.075   4.763
18827SOL     OW58312   9.184  13.380  12.525
18827SOL    HW158313   9.138  13.462  12.509
18827SOL    HW258314   9.276  13.400  12.508
18828SOL     OW58315  11.689  11.142   2.992
18828SOL    HW158316  11.696  11.234   3.017
18828SOL    HW258317  11.744  11.096   3.055
18829SOL     OW58318   9.016  11.093   9.319
18829SOL    HW158319   9.101  11.066   9.285
18829SOL    HW258320   9.004  11.183   9.288
18830SOL     OW58321   4.389   3.465   2.439
18830SOL    HW158322   4.350   3.480   2.526
18830SOL    HW258323   4.314   3.471   2.379
18831SOL     OW58324   6.471  12.269  14.025
18831SOL    HW158325   6.462  12.249  13.932
18831SOL    HW258326   6.460  12.364  14.030
18832SOL     OW58327   2.609  11.522   0.426
18832SOL    HW158328   2.628  11.534   0.519
18832SOL    HW258329   2.620  11.609   0.387
18833SOL     OW58330   1.748   9.899   0.851
18833SOL    HW158331   1.708   9.882   0.937
18833SOL    HW258332   1.693   9.851   0.789
18834SOL     OW58333   7.155  10.328  14.523
18834SOL    HW158334   7.149  10.268  14.449
18834SOL    HW258335   7.238  10.305  14.566
18835SOL     OW58336  10.757   4.799   7.815
18835SOL    HW158337  10.746   4.865   7.746
18835SOL    HW258338  10.835   4.750   7.790
18836SOL     OW58339   0.518   4.684  12.844
18836SOL    HW158340   0.588   4.621  12.826
18836SOL    HW258341   0.561   4.769  12.847
18837SOL     OW58342  12.162   6.771   0.415
18837SOL    HW158343  12.159   6.753   0.321
18837SOL    HW258344  12.209   6.854   0.421
18838SOL     OW58345   3.294  11.160   7.538
18838SOL    HW158346   3.257  11.236   7.493
18838SOL    HW258347   3.222  11.127   7.592
18839SOL     OW58348   1.264  13.378   6.478
18839SOL    HW158349   1.236  13.468   6.461
18839SOL    HW258350   1.355  13.386   6.505
18840SOL     OW58351   2.325   7.373   5.271
18840SOL    HW158352   2.346   7.426   5.194
18840SOL    HW258353   2.367   7.419   5.344
18841SOL     OW58354  12.675   1.719   1.297
18841SOL    HW158355  12.596   1.773   1.295
18841SOL    HW258356  12.661   1.655   1.227
18842SOL     OW58357   8.957   6.379   7.021
18842SOL    HW158358   9.001   6.368   7.105
18842SOL    HW258359   8.909   6.462   7.030
18843SOL     OW58360   4.176   4.733   3.253
18843SOL    HW158361   4.249   4.755   3.310
18843SOL    HW258362   4.101   4.778   3.291
18844SOL     OW58363  11.782  10.775  11.050
18844SOL    HW158364  11.708  10.745  10.999
18844SOL    HW258365  11.810  10.856  11.008
18845SOL     OW58366   9.558   8.829   7.992
18845SOL    HW158367   9.499   8.757   7.969
18845SOL    HW258368   9.638   8.786   8.020
18846SOL     OW58369   1.254   0.406   4.774
18846SOL    HW158370   1.159   0.406   4.780
18846SOL    HW258371   1.282   0.326   4.818
18847SOL     OW58372   1.551   2.209   0.091
18847SOL    HW158373   1.522   2.189   0.002
18847SOL    HW258374   1.613   2.281   0.080
18848SOL     OW58375   3.936   1.030  11.246
18848SOL    HW158376   3.960   1.065  11.332
18848SOL    HW258377   3.947   1.104  11.187
18849SOL     OW58378   1.532   6.591   1.576
18849SOL    HW158379   1.511   6.583   1.669
18849SOL    HW258380   1.616   6.637   1.575
18850SOL     OW58381  12.596   3.535  13.138
18850SOL    HW158382  12.524   3.578  13.185
18850SOL    HW258383  12.669   3.536  13.199
18851SOL     OW58384   8.751  11.724  10.016
18851SOL    HW158385   8.727  11.657  10.080
18851SOL    HW258386   8.702  11.802  10.042
18852SOL     OW58387  10.017   8.532   0.476
18852SOL    HW158388  10.038   8.614   0.521
18852SOL    HW258389  10.012   8.556   0.384
18853SOL     OW58390   6.705   2.818   3.863
18853SOL    HW158391   6.773   2.824   3.796
18853SOL    HW258392   6.641   2.757   3.828
18854SOL     OW58393   3.000  14.107  13.755
18854SOL    HW158394   3.063  14.058  13.702
18854SOL    HW258395   3.052  14.176  13.796
18855SOL     OW58396   3.615  14.255  10.767
18855SOL    HW158397   3.661  14.180  10.728
18855SOL    HW258398   3.622  14.324  10.701
18856SOL     OW58399   8.325   9.816   3.370
18856SOL    HW158400   8.329   9.835   3.464
18856SOL    HW258401   8.384   9.742   3.358
18857SOL     OW58402   6.816   2.261   2.173
18857SOL    HW158403   6.741   2.310   2.205
18857SOL    HW258404   6.797   2.170   2.193
18858SOL     OW58405   4.788   4.619   1.357
18858SOL    HW158406   4.820   4.530   1.370
18858SOL    HW258407   4.853   4.660   1.301
18859SOL     OW58408  11.637   6.741  12.404
18859SOL    HW158409  11.580   6.665  12.415
18859SOL    HW258410  11.709   6.710  12.348
18860SOL     OW58411  11.631   8.335   3.711
18860SOL    HW158412  11.612   8.385   3.790
18860SOL    HW258413  11.656   8.401   3.646
18861SOL     OW58414  13.204  13.270   2.559
18861SOL    HW158415  13.193  13.365   2.555
18861SOL    HW258416  13.195  13.241   2.468
18862SOL     OW58417   0.540   4.553   1.148
18862SOL    HW158418   0.592   4.484   1.108
18862SOL    HW258419   0.569   4.634   1.105
18863SOL     OW58420  12.968   3.728   9.687
18863SOL    HW158421  13.012   3.649   9.719
18863SOL    HW258422  12.923   3.699   9.608
18864SOL     OW58423  10.463   9.212   5.047
18864SOL    HW158424  10.487   9.177   5.133
18864SOL    HW258425  10.533   9.274   5.026
18865SOL     OW58426  12.809   6.943  10.746
18865SOL    HW158427  12.796   6.850  10.766
18865SOL    HW258428  12.839   6.980  10.829
18866SOL     OW58429  12.603  13.445   6.643
18866SOL    HW158430  12.654  13.505   6.590
18866SOL    HW258431  12.667  13.399   6.697
18867SOL     OW58432  14.685   1.176  14.244
18867SOL    HW158433  14.649   1.199  14.330
18867SOL    HW258434  14.727   1.091  14.258
18868SOL     OW58435   2.968   1.599   4.257
18868SOL    HW158436   2.953   1.630   4.167
18868SOL    HW258437   2.922   1.515   4.261
18869SOL     OW58438   4.032   0.849  10.671
18869SOL    HW158439   4.020   0.855  10.576
18869SOL    HW258440   3.951   0.884  10.708
18870SOL     OW58441   8.024  12.337   1.128
18870SOL    HW158442   8.087  12.279   1.170
18870SOL    HW258443   8.074  12.381   1.059
18871SOL     OW58444  13.827  14.856   0.462
18871SOL    HW158445  13.896  14.798   0.494
18871SOL    HW258446  13.815   0.038   0.532
18872SOL     OW58447   8.761   9.338  10.433
18872SOL    HW158448   8.750   9.423  10.391
18872SOL    HW258449   8.671   9.308  10.450
18873SOL     OW58450   7.114  13.461   9.570
18873SOL    HW158451   7.142  13.544   9.607
18873SOL    HW258452   7.143  13.463   9.479
18874SOL     OW58453   7.593   6.940   3.488
18874SOL    HW158454   7.684   6.917   3.466
18874SOL    HW258455   7.561   6.865   3.537
18875SOL     OW58456   5.866   4.734  11.591
18875SOL    HW158457   5.944   4.691  11.626
18875SOL    HW258458   5.821   4.666  11.542
18876SOL     OW58459   8.145   8.190   1.807
18876SOL    HW158460   8.182   8.142   1.733
18876SOL    HW258461   8.184   8.148   1.884
18877SOL     OW58462   7.056  12.159   4.662
18877SOL    HW158463   7.074  12.239   4.711
18877SOL    HW258464   7.142  12.121   4.646
18878SOL     OW58465  12.709   5.844  14.447
18878SOL    HW158466  12.745   5.916  14.498
18878SOL    HW258467  12.639   5.884  14.394
18879SOL     OW58468   8.124   2.590   5.405
18879SOL    HW158469   8.133   2.566   5.498
18879SOL    HW258470   8.186   2.532   5.360
18880SOL     OW58471   7.633   5.023   3.427
18880SOL    HW158472   7.577   4.947   3.417
18880SOL    HW258473   7.620   5.074   3.347
18881SOL     OW58474   7.669   5.720   5.172
18881SOL    HW158475   7.756   5.752   5.193
18881SOL    HW258476   7.676   5.624   5.176
18882SOL     OW58477   2.309  11.640   7.057
18882SOL    HW158478   2.319  11.666   7.148
18882SOL    HW258479   2.363  11.701   7.007
18883SOL     OW58480   0.372   0.838   5.966
18883SOL    HW158481   0.401   0.887   5.889
18883SOL    HW258482   0.318   0.900   6.015
18884SOL     OW58483   6.676   6.414   7.600
18884SOL    HW158484   6.581   6.426   7.611
18884SOL    HW258485   6.705   6.495   7.558
18885SOL     OW58486   6.146   4.992  11.960
18885SOL    HW158487   6.217   5.056  11.969
18885SOL    HW258488   6.070   5.045  11.934
18886SOL     OW58489   4.761  13.034   2.590
18886SOL    HW158490   4.835  13.095   2.592
18886SOL    HW258491   4.717  13.047   2.674
18887SOL     OW58492   8.544   2.907  14.789
18887SOL    HW158493   8.611   2.846  14.819
18887SOL    HW258494   8.461   2.861  14.802
18888SOL     OW58495  10.438  10.723   7.145
18888SOL    HW158496  10.431  10.730   7.049
18888SOL    HW258497  10.391  10.643   7.167
18889SOL     OW58498  12.553  14.651  11.578
18889SOL    HW158499  12.473  14.600  11.589
18889SOL    HW258500  12.593  14.653  11.665
18890SOL     OW58501   1.856   4.423   1.355
18890SOL    HW158502   1.905   4.504   1.343
18890SOL    HW258503   1.844   4.388   1.267
18891SOL     OW58504   4.404  12.393  10.663
18891SOL    HW158505   4.346  12.413  10.590
18891SOL    HW258506   4.399  12.298  10.673
18892SOL     OW58507   3.275   5.690   2.352
18892SOL    HW158508   3.184   5.718   2.338
18892SOL    HW258509   3.322   5.770   2.375
18893SOL     OW58510   5.876  10.933  14.738
18893SOL    HW158511   5.878  10.907  14.830
18893SOL    HW258512   5.939  10.876  14.695
18894SOL     OW58513   8.310   7.582   4.756
18894SOL    HW158514   8.240   7.591   4.820
18894SOL    HW258515   8.326   7.671   4.724
18895SOL     OW58516   3.403   1.879  14.419
18895SOL    HW158517   3.495   1.858  14.404
18895SOL    HW258518   3.382   1.945  14.352
18896SOL     OW58519  13.394   6.251  10.511
18896SOL    HW158520  13.317   6.252  10.454
18896SOL    HW258521  13.387   6.168  10.558
18897SOL     OW58522   4.676   9.547   3.163
18897SOL    HW158523   4.731   9.470   3.151
18897SOL    HW258524   4.730   9.620   3.132
18898SOL     OW58525   8.727   5.569   6.185
18898SOL    HW158526   8.674   5.498   6.151
18898SOL    HW258527   8.743   5.545   6.276
18899SOL     OW58528   5.788   3.033  12.645
18899SOL    HW158529   5.699   3.068  12.640
18899SOL    HW258530   5.783   2.962  12.710
18900SOL     OW58531   1.271  13.807  10.123
18900SOL    HW158532   1.266  13.844  10.035
18900SOL    HW258533   1.195  13.749  10.130
18901SOL     OW58534   9.376   4.644   1.893
18901SOL    HW158535   9.444   4.667   1.829
18901SOL    HW258536   9.409   4.565   1.936
18902SOL     OW58537  12.348   8.268   4.886
18902SOL    HW158538  12.272   8.315   4.852
18902SOL    HW258539  12.385   8.224   4.810
18903SOL     OW58540   3.153   8.253   2.745
18903SOL    HW158541   3.184   8.282   2.831
18903SOL    HW258542   3.118   8.166   2.761
18904SOL     OW58543  13.229   3.240   6.214
18904SOL    HW158544  13.297   3.186   6.175
18904SOL    HW258545  13.162   3.177   6.242
18905SOL     OW58546  12.601   9.197   5.813
18905SOL    HW158547  12.596   9.213   5.719
18905SOL    HW258548  12.676   9.248   5.842
18906SOL     OW58549  13.675   8.422  14.405
18906SOL    HW158550  13.698   8.450  14.316
18906SOL    HW258551  13.673   8.504  14.456
18907SOL     OW58552  13.157   2.839   9.643
18907SOL    HW158553  13.219   2.804   9.707
18907SOL    HW258554  13.213   2.881   9.577
18908SOL     OW58555   4.306   1.003   1.325
18908SOL    HW158556   4.317   0.943   1.252
18908SOL    HW258557   4.393   1.042   1.338
18909SOL     OW58558   6.444   0.102   4.206
18909SOL    HW158559   6.491   0.023   4.179
18909SOL    HW258560   6.352   0.081   4.192
18910SOL     OW58561  14.444   6.574  13.011
18910SOL    HW158562  14.384   6.640  12.975
18910SOL    HW258563  14.471   6.609  13.096
18911SOL     OW58564   6.189   6.400  11.966
18911SOL    HW158565   6.221   6.487  11.942
18911SOL    HW258566   6.157   6.363  11.884
18912SOL     OW58567  11.983   9.734  11.813
18912SOL    HW158568  11.989   9.640  11.801
18912SOL    HW258569  12.026   9.771  11.736
18913SOL     OW58570   7.852   3.766   2.241
18913SOL    HW158571   7.910   3.833   2.205
18913SOL    HW258572   7.900   3.684   2.229
18914SOL     OW58573  12.694   4.453   5.697
18914SOL    HW158574  12.739   4.411   5.623
18914SOL    HW258575  12.608   4.412   5.699
18915SOL     OW58576   5.794  13.045  13.876
18915SOL    HW158577   5.819  13.135  13.898
18915SOL    HW258578   5.711  13.053  13.830
18916SOL     OW58579   0.554   0.153   5.059
18916SOL    HW158580   0.463   0.171   5.081
18916SOL    HW258581   0.566   0.191   4.972
18917SOL     OW58582  14.710   3.443   4.366
18917SOL    HW158583  14.804   3.423   4.364
18917SOL    HW258584  14.677   3.411   4.282
18918SOL     OW58585   1.660   1.367   6.706
18918SOL    HW158586   1.728   1.301   6.718
18918SOL    HW258587   1.698   1.431   6.647
18919SOL     OW58588  11.798  14.214  14.242
18919SOL    HW158589  11.827  14.233  14.331
18919SOL    HW258590  11.875  14.176  14.200
18920SOL     OW58591   6.240   2.484   9.971
18920SOL    HW158592   6.272   2.553   9.913
18920SOL    HW258593   6.174   2.528  10.026
18921SOL     OW58594   1.575   1.756   7.210
18921SOL    HW158595   1.481   1.751   7.198
18921SOL    HW258596   1.591   1.845   7.241
18922SOL     OW58597   3.021  12.112  11.937
18922SOL    HW158598   2.966  12.148  12.007
18922SOL    HW258599   3.077  12.185  11.910
18923SOL     OW58600  11.624  11.912  14.116
18923SOL    HW158601  11.581  11.903  14.031
18923SOL    HW258602  11.681  11.836  14.123
18924SOL     OW58603  13.538   1.851   9.286
18924SOL    HW158604  13.576   1.810   9.208
18924SOL    HW258605  13.500   1.933   9.254
18925SOL     OW58606   3.804  14.801   9.293
18925SOL    HW158607   3.834  14.754   9.371
18925SOL    HW258608   3.753  14.737   9.244
18926SOL     OW58609   7.572  11.736   7.782
18926SOL    HW158610   7.631  11.698   7.717
18926SOL    HW258611   7.508  11.668   7.800
18927SOL     OW58612   6.829   8.314   9.702
18927SOL    HW158613   6.891   8.385   9.719
18927SOL    HW258614   6.753   8.358   9.664
18928SOL     OW58615   0.394   3.204   3.995
18928SOL    HW158616   0.322   3.245   4.043
18928SOL    HW258617   0.447   3.278   3.966
18929SOL     OW58618   3.012   7.415  11.598
18929SOL    HW158619   2.916   7.417  11.605
18929SOL    HW258620   3.030   7.428  11.505
18930SOL     OW58621   1.619   7.609   9.831
18930SOL    HW158622   1.653   7.649   9.750
18930SOL    HW258623   1.651   7.519   9.828
18931SOL     OW58624  11.017   3.208   9.487
18931SOL    HW158625  11.091   3.158   9.451
18931SOL    HW258626  10.946   3.192   9.425
18932SOL     OW58627  13.629  10.253   2.563
18932SOL    HW158628  13.583  10.173   2.539
18932SOL    HW258629  13.636  10.303   2.482
18933SOL     OW58630   1.654   7.421   6.350
18933SOL    HW158631   1.718   7.399   6.418
18933SOL    HW258632   1.651   7.344   6.293
18934SOL     OW58633  12.178  14.570   9.961
18934SOL    HW158634  12.228  14.577   9.880
18934SOL    HW258635  12.243  14.579  10.030
18935SOL     OW58636  12.880   6.088   2.772
18935SOL    HW158637  12.924   6.018   2.724
18935SOL    HW258638  12.931   6.167   2.752
18936SOL     OW58639  12.895   9.334   4.266
18936SOL    HW158640  12.853   9.419   4.254
18936SOL    HW258641  12.907   9.301   4.177
18937SOL     OW58642   7.384   2.284   4.350
18937SOL    HW158643   7.452   2.296   4.284
18937SOL    HW258644   7.338   2.368   4.352
18938SOL     OW58645   3.102   1.655  12.783
18938SOL    HW158646   3.060   1.634  12.867
18938SOL    HW258647   3.130   1.746  12.794
18939SOL     OW58648   1.383   2.004  10.728
18939SOL    HW158649   1.420   2.091  10.716
18939SOL    HW258650   1.413   1.954  10.652
18940SOL     OW58651  11.893   8.546  12.979
18940SOL    HW158652  11.835   8.611  12.940
18940SOL    HW258653  11.844   8.464  12.976
18941SOL     OW58654   3.532   8.700   9.159
18941SOL    HW158655   3.588   8.625   9.139
18941SOL    HW258656   3.533   8.753   9.080
18942SOL     OW58657  11.935   7.406  11.218
18942SOL    HW158658  11.930   7.429  11.310
18942SOL    HW258659  11.961   7.314  11.218
18943SOL     OW58660  12.154   5.779   6.575
18943SOL    HW158661  12.065   5.759   6.603
18943SOL    HW258662  12.203   5.697   6.588
18944SOL     OW58663   8.870   4.725   3.959
18944SOL    HW158664   8.878   4.639   3.916
18944SOL    HW258665   8.846   4.784   3.888
18945SOL     OW58666   2.847  13.264   1.981
18945SOL    HW158667   2.782  13.329   1.951
18945SOL    HW258668   2.843  13.194   1.915
18946SOL     OW58669  13.447  12.789   0.735
18946SOL    HW158670  13.407  12.722   0.680
18946SOL    HW258671  13.375  12.824   0.787
18947SOL     OW58672   5.548  14.232   1.580
18947SOL    HW158673   5.640  14.242   1.605
18947SOL    HW258674   5.547  14.153   1.525
18948SOL     OW58675   2.655   8.252   2.839
18948SOL    HW158676   2.712   8.322   2.870
18948SOL    HW258677   2.687   8.173   2.883
18949SOL     OW58678   5.195   3.603   7.567
18949SOL    HW158679   5.226   3.620   7.655
18949SOL    HW258680   5.256   3.538   7.532
18950SOL     OW58681   1.160   3.941  12.530
18950SOL    HW158682   1.244   3.902  12.507
18950SOL    HW258683   1.118   3.960  12.446
18951SOL     OW58684   7.690   8.095  14.008
18951SOL    HW158685   7.762   8.152  13.980
18951SOL    HW258686   7.722   8.006  13.994
18952SOL     OW58687   9.353   7.088   7.540
18952SOL    HW158688   9.379   7.119   7.627
18952SOL    HW258689   9.272   7.040   7.556
18953SOL     OW58690   0.094  12.752   0.167
18953SOL    HW158691   0.068  12.840   0.140
18953SOL    HW258692   0.025  12.695   0.133
18954SOL     OW58693   9.048   7.267   8.040
18954SOL    HW158694   9.089   7.181   8.032
18954SOL    HW258695   8.973   7.263   7.981
18955SOL     OW58696   1.060   4.874   2.836
18955SOL    HW158697   1.090   4.837   2.754
18955SOL    HW258698   1.098   4.962   2.838
18956SOL     OW58699  11.205   5.407  14.181
18956SOL    HW158700  11.173   5.365  14.261
18956SOL    HW258701  11.258   5.340  14.138
18957SOL     OW58702  14.372   8.595   5.998
18957SOL    HW158703  14.429   8.538   5.945
18957SOL    HW258704  14.304   8.623   5.938
18958SOL     OW58705  12.005   9.337  11.180
18958SOL    HW158706  12.028   9.253  11.220
18958SOL    HW258707  11.943   9.314  11.111
18959SOL     OW58708  14.307  11.960   8.729
18959SOL    HW158709  14.350  12.042   8.753
18959SOL    HW258710  14.334  11.898   8.797
18960SOL     OW58711   2.522  13.444   0.247
18960SOL    HW158712   2.595  13.453   0.309
18960SOL    HW258713   2.535  13.515   0.184
18961SOL     OW58714  12.675   3.328  14.326
18961SOL    HW158715  12.731   3.252  14.341
18961SOL    HW258716  12.669   3.334  14.230
18962SOL     OW58717   1.954   8.013   0.312
18962SOL    HW158718   2.025   8.006   0.249
18962SOL    HW258719   1.906   7.931   0.305
18963SOL     OW58720   0.407  10.310   7.606
18963SOL    HW158721   0.446  10.222   7.607
18963SOL    HW258722   0.357  10.314   7.687
18964SOL     OW58723  10.271   1.752  11.740
18964SOL    HW158724  10.271   1.813  11.667
18964SOL    HW258725  10.218   1.678  11.710
18965SOL     OW58726   1.018   1.268   8.524
18965SOL    HW158727   1.028   1.272   8.619
18965SOL    HW258728   1.103   1.241   8.491
18966SOL     OW58729   8.486   9.426   3.049
18966SOL    HW158730   8.532   9.510   3.053
18966SOL    HW258731   8.483   9.405   2.955
18967SOL     OW58732  13.867   2.497   7.411
18967SOL    HW158733  13.807   2.566   7.439
18967SOL    HW258734  13.889   2.520   7.320
18968SOL     OW58735  12.856   5.048   4.851
18968SOL    HW158736  12.908   5.098   4.914
18968SOL    HW258737  12.879   5.086   4.766
18969SOL     OW58738  10.033  10.844   7.187
18969SOL    HW158739  10.011  10.762   7.142
18969SOL    HW258740  10.104  10.821   7.246
18970SOL     OW58741  14.093   0.248  12.119
18970SOL    HW158742  14.147   0.169  12.120
18970SOL    HW258743  14.028   0.231  12.050
18971SOL     OW58744  14.868   9.509  12.322
18971SOL    HW158745   0.029   9.584  12.280
18971SOL    HW258746  14.785   9.499  12.276
18972SOL     OW58747   3.657  12.866   3.430
18972SOL    HW158748   3.562  12.871   3.439
18972SOL    HW258749   3.688  12.954   3.454
18973SOL     OW58750  13.148   2.085  14.469
18973SOL    HW158751  13.148   2.000  14.425
18973SOL    HW258752  13.140   2.149  14.398
18974SOL     OW58753   0.732  11.811   0.870
18974SOL    HW158754   0.807  11.836   0.816
18974SOL    HW258755   0.698  11.894   0.904
18975SOL     OW58756  13.429  13.234   4.032
18975SOL    HW158757  13.475  13.153   4.055
18975SOL    HW258758  13.493  13.283   3.980
18976SOL     OW58759   2.104   8.165   4.736
18976SOL    HW158760   2.088   8.107   4.661
18976SOL    HW258761   2.187   8.134   4.774
18977SOL     OW58762   9.989   9.606   6.799
18977SOL    HW158763   9.981   9.637   6.709
18977SOL    HW258764   9.902   9.618   6.836
18978SOL     OW58765  10.442  10.108   6.481
18978SOL    HW158766  10.468  10.030   6.432
18978SOL    HW258767  10.393  10.160   6.418
18979SOL     OW58768   3.201   5.827   7.986
18979SOL    HW158769   3.269   5.760   7.974
18979SOL    HW258770   3.237   5.905   7.945
18980SOL     OW58771   2.000   9.180   6.488
18980SOL    HW158772   2.046   9.116   6.434
18980SOL    HW258773   2.071   9.226   6.535
18981SOL     OW58774  11.527   6.271  12.578
18981SOL    HW158775  11.540   6.334  12.508
18981SOL    HW258776  11.453   6.217  12.550
18982SOL     OW58777   4.196  11.801   2.615
18982SOL    HW158778   4.163  11.890   2.623
18982SOL    HW258779   4.121  11.746   2.638
18983SOL     OW58780   5.076  14.730   2.111
18983SOL    HW158781   5.091  14.661   2.046
18983SOL    HW258782   5.128  14.703   2.187
18984SOL     OW58783  11.010   2.623   3.890
18984SOL    HW158784  11.033   2.548   3.836
18984SOL    HW258785  11.014   2.698   3.831
18985SOL     OW58786  11.444   5.663   7.614
18985SOL    HW158787  11.411   5.753   7.616
18985SOL    HW258788  11.510   5.664   7.545
18986SOL     OW58789  10.969   9.300   5.528
18986SOL    HW158790  10.919   9.370   5.485
18986SOL    HW258791  10.917   9.276   5.604
18987SOL     OW58792   9.892   1.191   2.230
18987SOL    HW158793   9.930   1.278   2.218
18987SOL    HW258794   9.953   1.147   2.289
18988SOL     OW58795  12.956   3.767  11.250
18988SOL    HW158796  12.963   3.671  11.252
18988SOL    HW258797  12.868   3.785  11.284
18989SOL     OW58798   2.412   4.471   8.471
18989SOL    HW158799   2.505   4.488   8.453
18989SOL    HW258800   2.406   4.471   8.567
18990SOL     OW58801  13.613   4.191   7.703
18990SOL    HW158802  13.645   4.101   7.716
18990SOL    HW258803  13.594   4.196   7.609
18991SOL     OW58804  14.240   0.739   3.993
18991SOL    HW158805  14.157   0.743   3.945
18991SOL    HW258806  14.214   0.736   4.085
18992SOL     OW58807   1.034   7.800  10.693
18992SOL    HW158808   1.119   7.808  10.650
18992SOL    HW258809   1.051   7.829  10.783
18993SOL     OW58810   9.268   8.539   8.859
18993SOL    HW158811   9.353   8.536   8.816
18993SOL    HW258812   9.264   8.627   8.898
18994SOL     OW58813   9.018   7.035   2.561
18994SOL    HW158814   9.031   7.088   2.482
18994SOL    HW258815   8.933   6.993   2.548
18995SOL     OW58816  13.934   4.796  11.477
18995SOL    HW158817  13.949   4.886  11.505
18995SOL    HW258818  13.916   4.802  11.383
18996SOL     OW58819   3.911  10.920   1.495
18996SOL    HW158820   3.972  10.950   1.562
18996SOL    HW258821   3.865  10.846   1.535
18997SOL     OW58822   9.427   7.160   2.961
18997SOL    HW158823   9.374   7.232   2.997
18997SOL    HW258824   9.485   7.202   2.897
18998SOL     OW58825   6.978   8.663  10.765
18998SOL    HW158826   6.925   8.694  10.692
18998SOL    HW258827   7.062   8.640  10.726
18999SOL     OW58828   4.791   3.939  12.327
18999SOL    HW158829   4.744   3.945  12.244
18999SOL    HW258830   4.724   3.914  12.391
19000SOL     OW58831   9.473   7.809   9.246
19000SOL    HW158832   9.488   7.887   9.300
19000SOL    HW258833   9.554   7.800   9.195
19001SOL     OW58834   2.041   1.630   1.650
19001SOL    HW158835   2.083   1.709   1.684
19001SOL    HW258836   2.059   1.633   1.556
19002SOL     OW58837  11.883  11.664   5.151
19002SOL    HW158838  11.837  11.637   5.072
19002SOL    HW258839  11.844  11.610   5.221
19003SOL     OW58840   8.590   0.774   8.638
19003SOL    HW158841   8.620   0.791   8.549
19003SOL    HW258842   8.521   0.708   8.627
19004SOL     OW58843   3.103   6.763  12.468
19004SOL    HW158844   3.019   6.720  12.485
19004SOL    HW258845   3.162   6.728  12.535
19005SOL     OW58846   1.885  10.265  10.221
19005SOL    HW158847   1.882  10.291  10.128
19005SOL    HW258848   1.806  10.302  10.258
19006SOL     OW58849   8.947   3.214  10.437
19006SOL    HW158850   9.014   3.148  10.419
19006SOL    HW258851   8.930   3.256  10.353
19007SOL     OW58852   7.764   1.587   4.700
19007SOL    HW158853   7.690   1.528   4.689
19007SOL    HW258854   7.754   1.622   4.788
19008SOL     OW58855   6.010   7.407  12.953
19008SOL    HW158856   5.965   7.402  13.037
19008SOL    HW258857   6.099   7.435  12.976
19009SOL     OW58858  14.092  13.022   9.289
19009SOL    HW158859  14.022  12.979   9.240
19009SOL    HW258860  14.065  13.016   9.380
19010SOL     OW58861  10.948   1.652  12.964
19010SOL    HW158862  10.994   1.579  12.922
19010SOL    HW258863  10.861   1.652  12.925
19011SOL     OW58864  10.755   6.620   8.192
19011SOL    HW158865  10.807   6.576   8.124
19011SOL    HW258866  10.807   6.696   8.216
19012SOL     OW58867  10.669  11.316   2.956
19012SOL    HW158868  10.713  11.361   2.884
19012SOL    HW258869  10.719  11.236   2.969
19013SOL     OW58870  14.661   3.855   1.317
19013SOL    HW158871  14.733   3.899   1.272
19013SOL    HW258872  14.589   3.855   1.254
19014SOL     OW58873   2.542  14.390   2.144
19014SOL    HW158874   2.523  14.363   2.054
19014SOL    HW258875   2.622  14.443   2.136
19015SOL     OW58876   5.254   3.663   1.462
19015SOL    HW158877   5.262   3.585   1.517
19015SOL    HW258878   5.257   3.629   1.372
19016SOL     OW58879   4.994  13.630  12.109
19016SOL    HW158880   5.036  13.663  12.188
19016SOL    HW258881   4.921  13.689  12.094
19017SOL     OW58882  13.812   1.556   2.049
19017SOL    HW158883  13.883   1.609   2.085
19017SOL    HW258884  13.734   1.586   2.094
19018SOL     OW58885   5.577  10.589  14.780
19018SOL    HW158886   5.579  10.656  14.712
19018SOL    HW258887   5.598  10.635  14.861
19019SOL     OW58888  10.436   9.516   4.600
19019SOL    HW158889  10.522   9.499   4.560
19019SOL    HW258890  10.434   9.611   4.614
19020SOL     OW58891   6.582   7.127   9.685
19020SOL    HW158892   6.623   7.152   9.768
19020SOL    HW258893   6.582   7.208   9.634
19021SOL     OW58894   8.592  11.595   8.667
19021SOL    HW158895   8.601  11.606   8.572
19021SOL    HW258896   8.596  11.500   8.680
19022SOL     OW58897   1.311   4.343   6.995
19022SOL    HW158898   1.288   4.283   6.924
19022SOL    HW258899   1.375   4.403   6.956
19023SOL     OW58900   5.648   5.655  12.935
19023SOL    HW158901   5.678   5.584  12.992
19023SOL    HW258902   5.614   5.610  12.857
19024SOL     OW58903   4.433  12.069   9.285
19024SOL    HW158904   4.445  12.162   9.302
19024SOL    HW258905   4.347  12.049   9.322
19025SOL     OW58906  14.066   7.404  11.537
19025SOL    HW158907  14.049   7.412  11.631
19025SOL    HW258908  13.984   7.369  11.501
19026SOL     OW58909   8.862  10.258   0.760
19026SOL    HW158910   8.885  10.165   0.754
19026SOL    HW258911   8.940  10.299   0.798
19027SOL     OW58912   4.266   3.534   1.586
19027SOL    HW158913   4.216   3.613   1.606
19027SOL    HW258914   4.328   3.526   1.658
19028SOL     OW58915   7.356   7.295   3.296
19028SOL    HW158916   7.335   7.224   3.235
19028SOL    HW258917   7.406   7.252   3.365
19029SOL     OW58918   9.409   1.834  13.399
19029SOL    HW158919   9.374   1.747  13.421
19029SOL    HW258920   9.381   1.849  13.309
19030SOL     OW58921  13.354   7.089  13.582
19030SOL    HW158922  13.419   7.158  13.569
19030SOL    HW258923  13.387   7.039  13.657
19031SOL     OW58924   4.567  13.468   1.279
19031SOL    HW158925   4.596  13.447   1.368
19031SOL    HW258926   4.604  13.555   1.262
19032SOL     OW58927   6.275  13.396  13.076
19032SOL    HW158928   6.302  13.304  13.064
19032SOL    HW258929   6.354  13.439  13.108
19033SOL     OW58930   9.736  14.175   3.851
19033SOL    HW158931   9.730  14.143   3.761
19033SOL    HW258932   9.733  14.096   3.905
19034SOL     OW58933   0.457   0.037   7.880
19034SOL    HW158934   0.394  14.846   7.885
19034SOL    HW258935   0.526   0.013   7.941
19035SOL     OW58936   4.175   4.556   3.754
19035SOL    HW158937   4.090   4.542   3.713
19035SOL    HW258938   4.226   4.479   3.730
19036SOL     OW58939   0.973   6.717   0.338
19036SOL    HW158940   0.927   6.769   0.272
19036SOL    HW258941   1.058   6.698   0.299
19037SOL     OW58942   7.757   5.274   0.971
19037SOL    HW158943   7.774   5.263   0.877
19037SOL    HW258944   7.832   5.323   1.003
19038SOL     OW58945  14.046  10.998   5.677
19038SOL    HW158946  14.019  10.925   5.732
19038SOL    HW258947  13.976  11.006   5.612
19039SOL     OW58948  11.807   4.453  13.175
19039SOL    HW158949  11.726   4.497  13.149
19039SOL    HW258950  11.869   4.524  13.189
19040SOL     OW58951  14.682   2.928   2.246
19040SOL    HW158952  14.667   3.020   2.222
19040SOL    HW258953  14.626   2.879   2.185
19041SOL     OW58954  12.252   2.988   5.550
19041SOL    HW158955  12.333   3.022   5.512
19041SOL    HW258956  12.270   2.895   5.565
19042SOL     OW58957  13.998   7.959   8.904
19042SOL    HW158958  14.082   7.995   8.933
19042SOL    HW258959  13.971   7.900   8.974
19043SOL     OW58960   8.242   6.425  13.029
19043SOL    HW158961   8.192   6.503  13.055
19043SOL    HW258962   8.209   6.403  12.942
19044SOL     OW58963  13.262   4.872   8.221
19044SOL    HW158964  13.273   4.855   8.127
19044SOL    HW258965  13.338   4.831   8.262
19045SOL     OW58966  13.288  14.786   3.846
19045SOL    HW158967  13.227  14.713   3.852
19045SOL    HW258968  13.239  14.855   3.801
19046SOL     OW58969   1.936   6.430   4.600
19046SOL    HW158970   2.016   6.394   4.560
19046SOL    HW258971   1.961   6.450   4.690
19047SOL     OW58972  10.922  13.669   5.076
19047SOL    HW158973  10.880  13.661   5.162
19047SOL    HW258974  11.001  13.721   5.093
19048SOL     OW58975   6.429   3.040   0.677
19048SOL    HW158976   6.360   3.080   0.624
19048SOL    HW258977   6.495   3.013   0.613
19049SOL     OW58978   9.769   6.149  13.794
19049SOL    HW158979   9.682   6.118  13.819
19049SOL    HW258980   9.753   6.232  13.749
19050SOL     OW58981  12.630   5.005  11.192
19050SOL    HW158982  12.694   4.956  11.243
19050SOL    HW258983  12.572   4.938  11.155
19051SOL     OW58984  14.459  10.845  10.581
19051SOL    HW158985  14.524  10.781  10.552
19051SOL    HW258986  14.500  10.887  10.657
19052SOL     OW58987  12.066  10.512  12.556
19052SOL    HW158988  12.109  10.571  12.618
19052SOL    HW258989  12.128  10.438  12.548
19053SOL     OW58990  14.153  12.540   3.401
19053SOL    HW158991  14.221  12.478   3.375
19053SOL    HW258992  14.072  12.489   3.400
19054SOL     OW58993   7.321   7.191   7.579
19054SOL    HW158994   7.367   7.254   7.635
19054SOL    HW258995   7.265   7.245   7.523
19055SOL     OW58996  13.939   7.252   3.407
19055SOL    HW158997  13.851   7.233   3.374
19055SOL    HW258998  13.997   7.202   3.349
19056SOL     OW58999  12.648  11.123   3.792
19056SOL    HW159000  12.556  11.132   3.769
19056SOL    HW259001  12.671  11.034   3.765
19057SOL     OW59002  14.288   6.928  10.225
19057SOL    HW159003  14.205   6.892  10.193
19057SOL    HW259004  14.267   6.963  10.312
19058SOL     OW59005   0.121  12.251   4.046
19058SOL    HW159006   0.201  12.209   4.016
19058SOL    HW259007   0.146  12.343   4.057
19059SOL     OW59008  11.164   1.650   7.657
19059SOL    HW159009  11.243   1.654   7.603
19059SOL    HW259010  11.133   1.560   7.647
19060SOL     OW59011   9.172   4.336   5.519
19060SOL    HW159012   9.096   4.387   5.544
19060SOL    HW259013   9.192   4.282   5.595
19061SOL     OW59014   4.000  14.859   3.127
19061SOL    HW159015   4.084  14.814   3.121
19061SOL    HW259016   4.009   0.051   3.066
19062SOL     OW59017   7.032   1.244   7.502
19062SOL    HW159018   6.999   1.225   7.414
19062SOL    HW259019   6.956   1.234   7.559
19063SOL     OW59020   5.863   7.923   4.148
19063SOL    HW159021   5.779   7.908   4.106
19063SOL    HW259022   5.927   7.884   4.089
19064SOL     OW59023  12.317  10.808   6.402
19064SOL    HW159024  12.263  10.849   6.470
19064SOL    HW259025  12.272  10.726   6.382
19065SOL     OW59026   2.980  13.861   0.073
19065SOL    HW159027   3.029  13.839  14.876
19065SOL    HW259028   2.988  13.956   0.081
19066SOL     OW59029  12.898   1.574  13.504
19066SOL    HW159030  12.848   1.518  13.444
19066SOL    HW259031  12.866   1.549  13.591
19067SOL     OW59032   2.673  11.445   3.026
19067SOL    HW159033   2.665  11.358   3.065
19067SOL    HW259034   2.582  11.471   3.008
19068SOL     OW59035   6.156   4.052   6.496
19068SOL    HW159036   6.088   4.001   6.540
19068SOL    HW259037   6.203   3.989   6.442
19069SOL     OW59038  11.699   8.865   7.694
19069SOL    HW159039  11.610   8.837   7.675
19069SOL    HW259040  11.728   8.808   7.765
19070SOL     OW59041  10.676   1.567   4.755
19070SOL    HW159042  10.651   1.589   4.666
19070SOL    HW259043  10.599   1.589   4.808
19071SOL     OW59044   6.700   2.380  11.804
19071SOL    HW159045   6.783   2.332  11.806
19071SOL    HW259046   6.712   2.448  11.738
19072SOL     OW59047   8.647   3.970  14.114
19072SOL    HW159048   8.610   3.922  14.040
19072SOL    HW259049   8.602   3.934  14.190
19073SOL     OW59050  10.403  14.628  12.608
19073SOL    HW159051  10.365  14.686  12.673
19073SOL    HW259052  10.368  14.542  12.629
19074SOL     OW59053   5.122  10.200  12.843
19074SOL    HW159054   5.041  10.151  12.830
19074SOL    HW259055   5.190  10.144  12.805
19075SOL     OW59056  13.920  14.267   6.972
19075SOL    HW159057  13.889  14.232   6.889
19075SOL    HW259058  13.865  14.343   6.989
19076SOL     OW59059   0.080  14.479   7.157
19076SOL    HW159060   0.107  14.569   7.177
19076SOL    HW259061   0.045  14.483   7.068
19077SOL     OW59062   0.896   4.995   0.344
19077SOL    HW159063   0.918   4.978   0.252
19077SOL    HW259064   0.868   4.911   0.378
19078SOL     OW59065  14.684   6.954   9.720
19078SOL    HW159066  14.614   6.998   9.769
19078SOL    HW259067  14.699   7.011   9.645
19079SOL     OW59068  13.064   4.915  14.643
19079SOL    HW159069  13.129   4.973  14.603
19079SOL    HW259070  12.988   4.972  14.659
19080SOL     OW59071  13.148  11.484   7.315
19080SOL    HW159072  13.200  11.473   7.395
19080SOL    HW259073  13.064  11.443   7.336
19081SOL     OW59074  11.886  14.699   3.662
19081SOL    HW159075  11.898  14.701   3.757
19081SOL    HW259076  11.954  14.639   3.630
19082SOL     OW59077   4.832   2.174   3.690
19082SOL    HW159078   4.837   2.079   3.678
19082SOL    HW259079   4.743   2.197   3.664
19083SOL     OW59080   7.812   5.788   9.781
19083SOL    HW159081   7.746   5.831   9.835
19083SOL    HW259082   7.785   5.805   9.691
19084SOL     OW59083   4.945   5.135   9.086
19084SOL    HW159084   4.970   5.169   9.173
19084SOL    HW259085   4.851   5.151   9.081
19085SOL     OW59086  10.973   4.390   9.251
19085SOL    HW159087  11.050   4.447   9.252
19085SOL    HW259088  10.902   4.444   9.287
19086SOL     OW59089   6.973   6.712   9.438
19086SOL    HW159090   6.990   6.639   9.378
19086SOL    HW259091   7.036   6.779   9.412
19087SOL     OW59092  12.261  11.564   5.361
19087SOL    HW159093  12.207  11.566   5.282
19087SOL    HW259094  12.351  11.561   5.329
19088SOL     OW59095   1.250   2.006  12.295
19088SOL    HW159096   1.321   1.947  12.321
19088SOL    HW259097   1.182   1.948  12.260
19089SOL     OW59098   7.558   1.136   3.032
19089SOL    HW159099   7.471   1.156   3.066
19089SOL    HW259100   7.556   1.169   2.942
19090SOL     OW59101   0.456  13.486  13.302
19090SOL    HW159102   0.487  13.573  13.277
19090SOL    HW259103   0.528  13.427  13.280
19091SOL     OW59104   2.105   0.202   4.128
19091SOL    HW159105   2.127   0.234   4.041
19091SOL    HW259106   2.019   0.239   4.147
19092SOL     OW59107   1.850   7.823  12.909
19092SOL    HW159108   1.792   7.880  12.959
19092SOL    HW259109   1.848   7.739  12.956
19093SOL     OW59110  11.631   5.907   4.477
19093SOL    HW159111  11.713   5.913   4.526
19093SOL    HW259112  11.658   5.885   4.388
19094SOL     OW59113   0.039  13.047   5.446
19094SOL    HW159114   0.046  13.139   5.418
19094SOL    HW259115   0.040  13.052   5.542
19095SOL     OW59116   0.451  12.279  14.011
19095SOL    HW159117   0.412  12.265  14.097
19095SOL    HW259118   0.418  12.364  13.983
19096SOL     OW59119  13.369  10.365   9.917
19096SOL    HW159120  13.383  10.440   9.859
19096SOL    HW259121  13.275  10.347   9.910
19097SOL     OW59122  13.325  12.511   7.100
19097SOL    HW159123  13.419  12.503   7.085
19097SOL    HW259124  13.286  12.453   7.034
19098SOL     OW59125   6.541  14.618   0.047
19098SOL    HW159126   6.481  14.544   0.037
19098SOL    HW259127   6.627  14.579   0.056
19099SOL     OW59128   2.459   7.391  11.784
19099SOL    HW159129   2.399   7.359  11.852
19099SOL    HW259130   2.532   7.428  11.832
19100SOL     OW59131  12.369   9.928   1.450
19100SOL    HW159132  12.406  10.013   1.472
19100SOL    HW259133  12.446   9.871   1.440
19101SOL     OW59134  13.061  10.969  14.562
19101SOL    HW159135  13.130  10.902  14.552
19101SOL    HW259136  13.002  10.954  14.488
19102SOL     OW59137   6.455   1.228  12.041
19102SOL    HW159138   6.410   1.306  12.072
19102SOL    HW259139   6.392   1.157  12.055
19103SOL     OW59140   7.083   7.947  13.506
19103SOL    HW159141   7.154   7.928  13.444
19103SOL    HW259142   7.128   7.974  13.586
19104SOL     OW59143  12.748   2.217   2.273
19104SOL    HW159144  12.781   2.270   2.200
19104SOL    HW259145  12.658   2.247   2.285
19105SOL     OW59146   5.474   6.036  14.552
19105SOL    HW159147   5.441   6.074  14.470
19105SOL    HW259148   5.565   6.014  14.534
19106SOL     OW59149   1.119   5.442   1.575
19106SOL    HW159150   1.211   5.427   1.597
19106SOL    HW259151   1.116   5.436   1.479
19107SOL     OW59152  12.293   8.681   1.191
19107SOL    HW159153  12.299   8.774   1.213
19107SOL    HW259154  12.380   8.646   1.208
19108SOL     OW59155   0.485  13.938  13.000
19108SOL    HW159156   0.581  13.938  13.009
19108SOL    HW259157   0.469  13.996  12.925
19109SOL     OW59158   9.389   5.974  10.888
19109SOL    HW159159   9.331   6.034  10.843
19109SOL    HW259160   9.449   5.942  10.820
19110SOL     OW59161   2.649   7.116   6.920
19110SOL    HW159162   2.669   7.144   6.831
19110SOL    HW259163   2.735   7.102   6.960
19111SOL     OW59164   7.052  11.800  12.327
19111SOL    HW159165   7.139  11.786  12.364
19111SOL    HW259166   7.052  11.751  12.245
19112SOL     OW59167   8.637  14.786   8.407
19112SOL    HW159168   8.680  14.869   8.430
19112SOL    HW259169   8.554  14.813   8.367
19113SOL     OW59170   6.229   3.081   7.603
19113SOL    HW159171   6.213   2.987   7.595
19113SOL    HW259172   6.316   3.093   7.563
19114SOL     OW59173   6.251   5.804   5.652
19114SOL    HW159174   6.275   5.718   5.686
19114SOL    HW259175   6.332   5.839   5.615
19115SOL     OW59176  12.050   0.273   2.590
19115SOL    HW159177  12.094   0.268   2.505
19115SOL    HW259178  12.120   0.292   2.653
19116SOL     OW59179   6.538   7.554   2.827
19116SOL    HW159180   6.444   7.543   2.842
19116SOL    HW259181   6.562   7.482   2.768
19117SOL     OW59182   7.173   7.157   9.055
19117SOL    HW159183   7.252   7.121   9.095
19117SOL    HW259184   7.194   7.163   8.961
19118SOL     OW59185   6.458   9.557  12.015
19118SOL    HW159186   6.428   9.647  12.025
19118SOL    HW259187   6.554   9.563  12.016
19119SOL     OW59188  10.505  13.455   1.861
19119SOL    HW159189  10.589  13.410   1.851
19119SOL    HW259190  10.458  13.437   1.779
19120SOL     OW59191  12.234  13.824   6.566
19120SOL    HW159192  12.310  13.879   6.549
19120SOL    HW259193  12.257  13.772   6.643
19121SOL     OW59194   0.999   8.539   0.005
19121SOL    HW159195   1.008   8.506  14.797
19121SOL    HW259196   0.905   8.553   0.016
19122SOL     OW59197   8.165   8.112  12.513
19122SOL    HW159198   8.251   8.087  12.480
19122SOL    HW259199   8.137   8.036  12.565
19123SOL     OW59200   5.405  14.547   7.032
19123SOL    HW159201   5.419  14.571   6.941
19123SOL    HW259202   5.390  14.631   7.077
19124SOL     OW59203   6.974  12.332   9.869
19124SOL    HW159204   6.948  12.270   9.800
19124SOL    HW259205   6.950  12.288   9.950
19125SOL     OW59206  12.230   2.920   4.147
19125SOL    HW159207  12.237   2.828   4.121
19125SOL    HW259208  12.316   2.941   4.183
19126SOL     OW59209   3.264   8.723   9.830
19126SOL    HW159210   3.192   8.667   9.801
19126SOL    HW259211   3.270   8.792   9.763
19127SOL     OW59212  10.454   6.812   4.074
19127SOL    HW159213  10.370   6.767   4.074
19127SOL    HW259214  10.481   6.813   4.166
19128SOL     OW59215   5.962   8.778   2.245
19128SOL    HW159216   5.936   8.688   2.223
19128SOL    HW259217   5.983   8.818   2.160
19129SOL     OW59218   8.599  11.756   1.048
19129SOL    HW159219   8.566  11.732   0.961
19129SOL    HW259220   8.682  11.709   1.055
19130SOL     OW59221   4.283   4.333   0.515
19130SOL    HW159222   4.280   4.237   0.517
19130SOL    HW259223   4.339   4.356   0.589
19131SOL     OW59224   5.398   9.341  11.160
19131SOL    HW159225   5.458   9.332  11.235
19131SOL    HW259226   5.359   9.427  11.171
19132SOL     OW59227   8.126   3.095   4.637
19132SOL    HW159228   8.066   3.096   4.711
19132SOL    HW259229   8.096   3.022   4.583
19133SOL     OW59230   4.868   5.875   1.986
19133SOL    HW159231   4.840   5.852   2.074
19133SOL    HW259232   4.906   5.963   1.995
19134SOL     OW59233   5.411   7.953   3.924
19134SOL    HW159234   5.401   8.022   3.989
19134SOL    HW259235   5.326   7.908   3.924
19135SOL     OW59236  11.128   9.811  12.276
19135SOL    HW159237  11.177   9.791  12.196
19135SOL    HW259238  11.184   9.778  12.347
19136SOL     OW59239   4.347   5.893  12.073
19136SOL    HW159240   4.388   5.806  12.079
19136SOL    HW259241   4.295   5.889  11.993
19137SOL     OW59242  13.812   3.843   7.924
19137SOL    HW159243  13.808   3.817   8.016
19137SOL    HW259244  13.782   3.766   7.876
19138SOL     OW59245  13.173  14.131   9.432
19138SOL    HW159246  13.155  14.225   9.433
19138SOL    HW259247  13.269  14.126   9.430
19139SOL     OW59248   4.970   3.758  12.624
19139SOL    HW159249   5.012   3.839  12.652
19139SOL    HW259250   4.917   3.731  12.699
19140SOL     OW59251   4.389   0.974  11.709
19140SOL    HW159252   4.406   0.934  11.794
19140SOL    HW259253   4.297   0.954  11.691
19141SOL     OW59254   2.193  11.622   2.037
19141SOL    HW159255   2.253  11.672   2.093
19141SOL    HW259256   2.176  11.680   1.964
19142SOL     OW59257   5.094   0.482  12.717
19142SOL    HW159258   5.061   0.394  12.700
19142SOL    HW259259   5.072   0.531  12.638
19143SOL     OW59260   0.482  10.758   6.314
19143SOL    HW159261   0.409  10.821   6.318
19143SOL    HW259262   0.453  10.692   6.251
19144SOL     OW59263  11.700   7.409   0.491
19144SOL    HW159264  11.775   7.355   0.467
19144SOL    HW259265  11.712   7.428   0.584
19145SOL     OW59266  13.584   1.164   7.298
19145SOL    HW159267  13.536   1.231   7.249
19145SOL    HW259268  13.580   1.086   7.243
19146SOL     OW59269  11.205   7.740   2.675
19146SOL    HW159270  11.251   7.819   2.703
19146SOL    HW259271  11.124   7.774   2.635
19147SOL     OW59272  13.683   3.642   7.795
19147SOL    HW159273  13.686   3.546   7.799
19147SOL    HW259274  13.686   3.663   7.702
19148SOL     OW59275   5.842  13.970   3.210
19148SOL    HW159276   5.755  14.009   3.220
19148SOL    HW259277   5.875  13.962   3.299
19149SOL     OW59278   1.407  11.412  10.917
19149SOL    HW159279   1.469  11.343  10.893
19149SOL    HW259280   1.361  11.432  10.835
19150SOL     OW59281   6.435   4.019   5.169
19150SOL    HW159282   6.507   4.029   5.231
19150SOL    HW259283   6.357   4.042   5.219
19151SOL     OW59284  14.795   5.784   8.869
19151SOL    HW159285  14.735   5.765   8.941
19151SOL    HW259286  14.753   5.744   8.792
19152SOL     OW59287   1.870   6.712   1.201
19152SOL    HW159288   1.850   6.744   1.113
19152SOL    HW259289   1.821   6.630   1.209
19153SOL     OW59290   8.916  11.578  11.192
19153SOL    HW159291   8.865  11.612  11.266
19153SOL    HW259292   8.980  11.647  11.174
19154SOL     OW59293   9.738  12.498  14.358
19154SOL    HW159294   9.723  12.579  14.309
19154SOL    HW259295   9.832  12.483  14.352
19155SOL     OW59296   3.275   3.480   0.315
19155SOL    HW159297   3.281   3.562   0.363
19155SOL    HW259298   3.305   3.501   0.227
19156SOL     OW59299  12.915   8.021  13.111
19156SOL    HW159300  12.972   7.977  13.048
19156SOL    HW259301  12.932   8.114  13.098
19157SOL     OW59302  10.424   1.331   6.721
19157SOL    HW159303  10.468   1.416   6.724
19157SOL    HW259304  10.441   1.299   6.632
19158SOL     OW59305  10.917  11.172  10.541
19158SOL    HW159306  10.873  11.250  10.509
19158SOL    HW259307  11.009  11.185  10.519
19159SOL     OW59308   8.318   2.199   1.111
19159SOL    HW159309   8.316   2.294   1.114
19159SOL    HW259310   8.378   2.174   1.182
19160SOL     OW59311   7.085   0.752   2.516
19160SOL    HW159312   6.994   0.738   2.489
19160SOL    HW259313   7.135   0.747   2.435
19161SOL     OW59314  11.229  13.839   2.334
19161SOL    HW159315  11.240  13.744   2.327
19161SOL    HW259316  11.139  13.851   2.366
19162SOL     OW59317  13.282  13.891  11.891
19162SOL    HW159318  13.221  13.818  11.903
19162SOL    HW259319  13.283  13.935  11.976
19163SOL     OW59320  13.866  13.387   0.725
19163SOL    HW159321  13.777  13.422   0.724
19163SOL    HW259322  13.922  13.464   0.728
19164SOL     OW59323   5.333  11.895   3.274
19164SOL    HW159324   5.251  11.855   3.244
19164SOL    HW259325   5.385  11.905   3.194
19165SOL     OW59326   2.246   9.975   4.503
19165SOL    HW159327   2.286  10.052   4.462
19165SOL    HW259328   2.320   9.915   4.517
19166SOL     OW59329  11.005   1.278   2.731
19166SOL    HW159330  10.957   1.215   2.678
19166SOL    HW259331  11.097   1.260   2.712
19167SOL     OW59332   1.932   2.167  14.023
19167SOL    HW159333   1.957   2.242  13.968
19167SOL    HW259334   1.848   2.192  14.060
19168SOL     OW59335   9.257   2.895   8.163
19168SOL    HW159336   9.242   2.804   8.189
19168SOL    HW259337   9.321   2.889   8.092
19169SOL     OW59338  13.536   4.531  13.380
19169SOL    HW159339  13.444   4.549  13.401
19169SOL    HW259340  13.584   4.607  13.412
19170SOL     OW59341   5.843  13.122   6.883
19170SOL    HW159342   5.918  13.111   6.825
19170SOL    HW259343   5.779  13.059   6.852
19171SOL     OW59344   6.309   3.324   6.293
19171SOL    HW159345   6.324   3.321   6.198
19171SOL    HW259346   6.395   3.343   6.330
19172SOL     OW59347   0.148   4.597  13.700
19172SOL    HW159348   0.092   4.596  13.623
19172SOL    HW259349   0.230   4.636  13.670
19173SOL     OW59350  13.031   5.334  10.072
19173SOL    HW159351  13.109   5.296  10.031
19173SOL    HW259352  12.958   5.300  10.020
19174SOL     OW59353  14.710   7.545   8.339
19174SOL    HW159354  14.728   7.487   8.264
19174SOL    HW259355  14.780   7.611   8.335
19175SOL     OW59356   7.675   1.649   5.956
19175SOL    HW159357   7.603   1.704   5.923
19175SOL    HW259358   7.699   1.688   6.040
19176SOL     OW59359  14.724   9.170  10.814
19176SOL    HW159360  14.686   9.215  10.738
19176SOL    HW259361  14.746   9.083  10.781
19177SOL     OW59362  11.662  14.628   8.175
19177SOL    HW159363  11.608  14.581   8.240
19177SOL    HW259364  11.603  14.694   8.139
19178SOL     OW59365   8.849  10.803   6.399
19178SOL    HW159366   8.932  10.835   6.364
19178SOL    HW259367   8.805  10.881   6.432
19179SOL     OW59368  11.745  13.983   8.134
19179SOL    HW159369  11.767  13.909   8.191
19179SOL    HW259370  11.769  14.061   8.184
19180SOL     OW59371   5.087   7.601  14.444
19180SOL    HW159372   5.117   7.602  14.353
19180SOL    HW259373   5.135   7.672  14.485
19181SOL     OW59374   6.918   2.140  13.220
19181SOL    HW159375   6.837   2.097  13.246
19181SOL    HW259376   6.918   2.223  13.268
19182SOL     OW59377   0.585   5.025  10.063
19182SOL    HW159378   0.578   5.094   9.998
19182SOL    HW259379   0.645   4.961  10.025
19183SOL     OW59380   4.700  11.713  14.333
19183SOL    HW159381   4.659  11.627  14.320
19183SOL    HW259382   4.650  11.753  14.403
19184SOL     OW59383  12.264   4.374   6.200
19184SOL    HW159384  12.172   4.355   6.180
19184SOL    HW259385  12.306   4.289   6.202
19185SOL     OW59386   5.221   4.973   7.146
19185SOL    HW159387   5.170   5.031   7.089
19185SOL    HW259388   5.156   4.917   7.188
19186SOL     OW59389   9.128   7.919   3.509
19186SOL    HW159390   9.176   7.994   3.474
19186SOL    HW259391   9.098   7.872   3.431
19187SOL     OW59392   1.454   5.513   8.552
19187SOL    HW159393   1.386   5.484   8.491
19187SOL    HW259394   1.463   5.607   8.535
19188SOL     OW59395   3.802   5.399   0.347
19188SOL    HW159396   3.741   5.470   0.368
19188SOL    HW259397   3.874   5.442   0.302
19189SOL     OW59398   5.730   0.709   7.557
19189SOL    HW159399   5.665   0.675   7.496
19189SOL    HW259400   5.687   0.785   7.597
19190SOL     OW59401   8.801   4.754   2.888
19190SOL    HW159402   8.813   4.799   2.805
19190SOL    HW259403   8.790   4.824   2.952
19191SOL     OW59404   6.657   9.906  11.334
19191SOL    HW159405   6.628   9.865  11.415
19191SOL    HW259406   6.597   9.873  11.267
19192SOL     OW59407   8.357   4.963   5.065
19192SOL    HW159408   8.313   5.038   5.026
19192SOL    HW259409   8.437   4.952   5.014
19193SOL     OW59410  13.617   1.259  14.197
19193SOL    HW159411  13.616   1.178  14.147
19193SOL    HW259412  13.547   1.248  14.262
19194SOL     OW59413   6.824   7.600  10.397
19194SOL    HW159414   6.866   7.647  10.469
19194SOL    HW259415   6.746   7.562  10.436
19195SOL     OW59416   3.283   6.512  13.883
19195SOL    HW159417   3.256   6.505  13.974
19195SOL    HW259418   3.376   6.536  13.887
19196SOL     OW59419   0.959   9.786   6.262
19196SOL    HW159420   1.052   9.770   6.244
19196SOL    HW259421   0.938   9.865   6.212
19197SOL     OW59422   8.569  13.198  11.385
19197SOL    HW159423   8.588  13.108  11.361
19197SOL    HW259424   8.523  13.234  11.309
19198SOL     OW59425   1.774   1.628   4.973
19198SOL    HW159426   1.710   1.598   4.909
19198SOL    HW259427   1.760   1.723   4.977
19199SOL     OW59428   7.913   2.312   5.696
19199SOL    HW159429   7.827   2.353   5.708
19199SOL    HW259430   7.916   2.243   5.763
19200SOL     OW59431   1.949   6.066   9.004
19200SOL    HW159432   1.946   6.114   8.921
19200SOL    HW259433   2.030   6.015   8.999
19201SOL     OW59434   5.559   3.261   3.691
19201SOL    HW159435   5.609   3.337   3.723
19201SOL    HW259436   5.532   3.286   3.603
19202SOL     OW59437  11.380   6.631   5.323
19202SOL    HW159438  11.316   6.651   5.390
19202SOL    HW259439  11.411   6.543   5.344
19203SOL     OW59440   0.266   3.664   3.109
19203SOL    HW159441   0.228   3.603   3.047
19203SOL    HW259442   0.329   3.714   3.058
19204SOL     OW59443   6.001   0.608   7.671
19204SOL    HW159444   5.939   0.560   7.615
19204SOL    HW259445   5.948   0.642   7.743
19205SOL     OW59446  13.079   1.190   2.651
19205SOL    HW159447  13.067   1.096   2.637
19205SOL    HW259448  13.115   1.197   2.739
19206SOL     OW59449   0.982   1.981  11.457
19206SOL    HW159450   0.962   2.011  11.369
19206SOL    HW259451   0.966   2.058  11.512
19207SOL     OW59452   3.602   9.546   2.761
19207SOL    HW159453   3.682   9.595   2.741
19207SOL    HW259454   3.538   9.613   2.785
19208SOL     OW59455   3.836  11.934   9.358
19208SOL    HW159456   3.884  11.910   9.437
19208SOL    HW259457   3.795  12.017   9.379
19209SOL     OW59458   7.941   5.370   6.902
19209SOL    HW159459   7.882   5.304   6.940
19209SOL    HW259460   7.890   5.451   6.904
19210SOL     OW59461   0.569   8.094   2.267
19210SOL    HW159462   0.559   8.019   2.326
19210SOL    HW259463   0.661   8.119   2.276
19211SOL     OW59464  13.813   0.122  12.208
19211SOL    HW159465  13.831   0.215  12.193
19211SOL    HW259466  13.731   0.106  12.160
19212SOL     OW59467   1.891  14.475   1.851
19212SOL    HW159468   1.826  14.542   1.828
19212SOL    HW259469   1.888  14.413   1.778
19213SOL     OW59470   4.853   6.130   4.140
19213SOL    HW159471   4.918   6.178   4.191
19213SOL    HW259472   4.900   6.102   4.062
19214SOL     OW59473  14.252   2.532   2.117
19214SOL    HW159474  14.344   2.505   2.115
19214SOL    HW259475  14.225   2.533   2.025
19215SOL     OW59476   8.233   2.845  11.597
19215SOL    HW159477   8.324   2.834  11.569
19215SOL    HW259478   8.239   2.898  11.677
19216SOL     OW59479   4.661  12.227  13.798
19216SOL    HW159480   4.708  12.145  13.808
19216SOL    HW259481   4.620  12.221  13.711
19217SOL     OW59482  14.353  10.575   0.203
19217SOL    HW159483  14.262  10.581   0.230
19217SOL    HW259484  14.396  10.648   0.248
19218SOL     OW59485   8.371   8.305   7.753
19218SOL    HW159486   8.435   8.370   7.781
19218SOL    HW259487   8.420   8.249   7.692
19219SOL     OW59488   9.293   0.166   9.472
19219SOL    HW159489   9.230   0.152   9.543
19219SOL    HW259490   9.329   0.079   9.454
19220SOL     OW59491  10.664  10.929   7.395
19220SOL    HW159492  10.674  10.834   7.387
19220SOL    HW259493  10.697  10.964   7.313
19221SOL     OW59494   2.204  13.524   8.956
19221SOL    HW159495   2.184  13.430   8.951
19221SOL    HW259496   2.192  13.546   9.049
19222SOL     OW59497   3.842   9.354  12.310
19222SOL    HW159498   3.795   9.347  12.226
19222SOL    HW259499   3.818   9.275  12.357
19223SOL     OW59500   5.627   8.077   2.378
19223SOL    HW159501   5.690   8.007   2.393
19223SOL    HW259502   5.578   8.048   2.301
19224SOL     OW59503   3.397  12.702   8.089
19224SOL    HW159504   3.429  12.669   8.005
19224SOL    HW259505   3.452  12.659   8.154
19225SOL     OW59506  11.890   3.658   0.893
19225SOL    HW159507  11.846   3.608   0.962
19225SOL    HW259508  11.936   3.593   0.841
19226SOL     OW59509   0.496  12.684  10.908
19226SOL    HW159510   0.534  12.690  10.995
19226SOL    HW259511   0.447  12.601  10.908
19227SOL     OW59512   5.723   0.999  13.408
19227SOL    HW159513   5.681   0.923  13.367
19227SOL    HW259514   5.817   0.981  13.402
19228SOL     OW59515   8.121   9.396   7.085
19228SOL    HW159516   8.202   9.434   7.120
19228SOL    HW259517   8.116   9.309   7.125
19229SOL     OW59518  11.464  12.714  12.633
19229SOL    HW159519  11.451  12.691  12.725
19229SOL    HW259520  11.378  12.742  12.603
19230SOL     OW59521  10.743   5.153  13.120
19230SOL    HW159522  10.699   5.109  13.193
19230SOL    HW259523  10.823   5.104  13.106
19231SOL     OW59524  12.227  13.991   8.767
19231SOL    HW159525  12.144  14.003   8.814
19231SOL    HW259526  12.293  13.991   8.836
19232SOL     OW59527   2.538   8.732   1.151
19232SOL    HW159528   2.529   8.671   1.078
19232SOL    HW259529   2.448   8.748   1.179
19233SOL     OW59530   4.559  12.083   7.410
19233SOL    HW159531   4.642  12.095   7.458
19233SOL    HW259532   4.540  11.990   7.419
19234SOL     OW59533   4.403   5.311   9.684
19234SOL    HW159534   4.420   5.404   9.700
19234SOL    HW259535   4.331   5.312   9.619
19235SOL     OW59536  13.458   8.496   6.484
19235SOL    HW159537  13.363   8.492   6.488
19235SOL    HW259538  13.477   8.568   6.423
19236SOL     OW59539  11.313   7.254   9.125
19236SOL    HW159540  11.282   7.326   9.179
19236SOL    HW259541  11.285   7.175   9.171
19237SOL     OW59542  13.366  13.536   7.410
19237SOL    HW159543  13.342  13.627   7.394
19237SOL    HW259544  13.310  13.486   7.349
19238SOL     OW59545   3.912   9.650   6.551
19238SOL    HW159546   3.951   9.592   6.486
19238SOL    HW259547   3.858   9.593   6.605
19239SOL     OW59548   2.612  11.273  11.242
19239SOL    HW159549   2.663  11.215  11.186
19239SOL    HW259550   2.554  11.320  11.182
19240SOL     OW59551  13.265   2.739  11.226
19240SOL    HW159552  13.212   2.682  11.281
19240SOL    HW259553  13.355   2.707  11.237
19241SOL     OW59554   6.384  14.328   4.355
19241SOL    HW159555   6.305  14.302   4.402
19241SOL    HW259556   6.451  14.264   4.381
19242SOL     OW59557   1.058  11.420   5.883
19242SOL    HW159558   0.974  11.375   5.877
19242SOL    HW259559   1.073  11.454   5.795
19243SOL     OW59560  14.627   3.407   3.327
19243SOL    HW159561  14.557   3.417   3.262
19243SOL    HW259562  14.587   3.434   3.409
19244SOL     OW59563   3.582   5.088   8.662
19244SOL    HW159564   3.546   5.001   8.644
19244SOL    HW259565   3.544   5.144   8.594
19245SOL     OW59566   6.370   1.375  13.175
19245SOL    HW159567   6.420   1.436  13.120
19245SOL    HW259568   6.435   1.336  13.233
19246SOL     OW59569   7.499   4.751   4.334
19246SOL    HW159570   7.500   4.667   4.288
19246SOL    HW259571   7.480   4.729   4.425
19247SOL     OW59572  12.325   9.824   7.434
19247SOL    HW159573  12.339   9.744   7.485
19247SOL    HW259574  12.363   9.805   7.348
19248SOL     OW59575   8.835   3.320   3.224
19248SOL    HW159576   8.892   3.319   3.301
19248SOL    HW259577   8.846   3.234   3.185
19249SOL     OW59578   3.540  13.142   0.894
19249SOL    HW159579   3.468  13.124   0.834
19249SOL    HW259580   3.538  13.070   0.956
19250SOL     OW59581  12.407   9.224  12.223
19250SOL    HW159582  12.376   9.135  12.240
19250SOL    HW259583  12.482   9.234  12.281
19251SOL     OW59584   8.193  10.643   4.681
19251SOL    HW159585   8.212  10.571   4.742
19251SOL    HW259586   8.151  10.709   4.735
19252SOL     OW59587   0.946   0.865   6.204
19252SOL    HW159588   0.976   0.899   6.288
19252SOL    HW259589   1.015   0.804   6.178
19253SOL     OW59590   6.971  11.686   8.118
19253SOL    HW159591   6.899  11.624   8.119
19253SOL    HW259592   6.955  11.740   8.040
19254SOL     OW59593  12.310  13.080   1.720
19254SOL    HW159594  12.215  13.072   1.729
19254SOL    HW259595  12.341  12.990   1.709
19255SOL     OW59596   2.990   6.515   7.821
19255SOL    HW159597   2.941   6.596   7.833
19255SOL    HW259598   3.077   6.544   7.793
19256SOL     OW59599   6.017   2.382   4.176
19256SOL    HW159600   5.958   2.308   4.161
19256SOL    HW259601   6.085   2.346   4.233
19257SOL     OW59602   2.696   5.513   5.007
19257SOL    HW159603   2.653   5.597   5.001
19257SOL    HW259604   2.629   5.454   5.042
19258SOL     OW59605   4.702   2.362   6.141
19258SOL    HW159606   4.796   2.372   6.158
19258SOL    HW259607   4.660   2.387   6.223
19259SOL     OW59608   5.059   1.013   5.069
19259SOL    HW159609   5.131   0.962   5.030
19259SOL    HW259610   5.024   1.065   4.997
19260SOL     OW59611  12.648   7.688   2.564
19260SOL    HW159612  12.654   7.592   2.558
19260SOL    HW259613  12.688   7.709   2.648
19261SOL     OW59614  11.538  10.492  13.714
19261SOL    HW159615  11.541  10.417  13.773
19261SOL    HW259616  11.447  10.497  13.685
19262SOL     OW59617   0.955  13.657  13.132
19262SOL    HW159618   0.899  13.645  13.208
19262SOL    HW259619   0.895  13.653  13.057
19263SOL     OW59620  10.348   1.013   2.243
19263SOL    HW159621  10.345   1.093   2.296
19263SOL    HW259622  10.427   1.023   2.189
19264SOL     OW59623   8.030  10.604   6.635
19264SOL    HW159624   8.000  10.656   6.561
19264SOL    HW259625   7.972  10.528   6.637
19265SOL     OW59626  10.754  12.474   2.107
19265SOL    HW159627  10.738  12.562   2.140
19265SOL    HW259628  10.742  12.417   2.183
19266SOL     OW59629   5.883  10.020  11.103
19266SOL    HW159630   5.808   9.996  11.048
19266SOL    HW259631   5.923  10.094  11.058
19267SOL     OW59632   7.318   0.173   5.966
19267SOL    HW159633   7.402   0.183   5.922
19267SOL    HW259634   7.333   0.204   6.056
19268SOL     OW59635   2.629   1.222   0.932
19268SOL    HW159636   2.591   1.279   0.999
19268SOL    HW259637   2.632   1.277   0.853
19269SOL     OW59638   1.061   7.567   3.234
19269SOL    HW159639   1.150   7.602   3.236
19269SOL    HW259640   1.071   7.478   3.198
19270SOL     OW59641   6.826   3.092  10.261
19270SOL    HW159642   6.920   3.075  10.268
19270SOL    HW259643   6.792   3.017  10.213
19271SOL     OW59644   7.691   2.911   1.672
19271SOL    HW159645   7.782   2.893   1.696
19271SOL    HW259646   7.672   2.849   1.601
19272SOL     OW59647   9.917   3.898  10.680
19272SOL    HW159648   9.844   3.957  10.664
19272SOL    HW259649   9.961   3.891  10.595
19273SOL     OW59650   9.788  13.683   9.378
19273SOL    HW159651   9.762  13.636   9.457
19273SOL    HW259652   9.843  13.754   9.409
19274SOL     OW59653   9.320   7.909  14.645
19274SOL    HW159654   9.367   7.867  14.716
19274SOL    HW259655   9.299   7.996  14.678
19275SOL     OW59656  13.445   8.083   5.637
19275SOL    HW159657  13.412   8.076   5.547
19275SOL    HW259658  13.388   8.148   5.678
19276SOL     OW59659   9.157   1.683  11.495
19276SOL    HW159660   9.239   1.670  11.447
19276SOL    HW259661   9.183   1.681  11.588
19277SOL     OW59662   3.773   3.169   8.912
19277SOL    HW159663   3.804   3.179   9.002
19277SOL    HW259664   3.684   3.136   8.922
19278SOL     OW59665   3.714   7.167   6.828
19278SOL    HW159666   3.726   7.159   6.733
19278SOL    HW259667   3.699   7.077   6.858
19279SOL     OW59668   6.500   8.210   5.505
19279SOL    HW159669   6.458   8.142   5.452
19279SOL    HW259670   6.523   8.167   5.587
19280SOL     OW59671   7.537  11.752   8.149
19280SOL    HW159672   7.446  11.747   8.121
19280SOL    HW259673   7.582  11.684   8.100
19281SOL     OW59674   0.759   1.480   1.844
19281SOL    HW159675   0.671   1.501   1.816
19281SOL    HW259676   0.785   1.553   1.900
19282SOL     OW59677   3.245   6.057  10.193
19282SOL    HW159678   3.314   6.055  10.258
19282SOL    HW259679   3.166   6.033  10.241
19283SOL     OW59680   4.808   9.865  13.348
19283SOL    HW159681   4.820   9.958  13.325
19283SOL    HW259682   4.879   9.846  13.409
19284SOL     OW59683   3.233  11.417   2.794
19284SOL    HW159684   3.288  11.452   2.864
19284SOL    HW259685   3.150  11.463   2.803
19285SOL     OW59686   3.261   2.744  10.652
19285SOL    HW159687   3.264   2.682  10.580
19285SOL    HW259688   3.297   2.696  10.727
19286SOL     OW59689  13.936   1.961   1.698
19286SOL    HW159690  14.021   1.987   1.661
19286SOL    HW259691  13.941   1.988   1.790
19287SOL     OW59692   1.933  13.863   3.213
19287SOL    HW159693   1.905  13.951   3.242
19287SOL    HW259694   1.881  13.846   3.135
19288SOL     OW59695  13.142  12.464  13.566
19288SOL    HW159696  13.143  12.473  13.661
19288SOL    HW259697  13.234  12.457  13.542
19289SOL     OW59698  14.438   8.778   6.723
19289SOL    HW159699  14.480   8.695   6.743
19289SOL    HW259700  14.352   8.773   6.765
19290SOL     OW59701   8.684   3.512   0.598
19290SOL    HW159702   8.637   3.430   0.616
19290SOL    HW259703   8.621   3.565   0.550
19291SOL     OW59704   4.814  10.752   2.801
19291SOL    HW159705   4.868  10.696   2.857
19291SOL    HW259706   4.871  10.776   2.728
19292SOL     OW59707   5.342   2.070  11.601
19292SOL    HW159708   5.423   2.117  11.582
19292SOL    HW259709   5.370   1.992  11.649
19293SOL     OW59710  10.203   5.698  12.165
19293SOL    HW159711  10.125   5.661  12.124
19293SOL    HW259712  10.172   5.734  12.248
19294SOL     OW59713   7.159   9.160  14.355
19294SOL    HW159714   7.176   9.121  14.440
19294SOL    HW259715   7.095   9.229  14.373
19295SOL     OW59716  11.519   8.825  10.596
19295SOL    HW159717  11.524   8.730  10.587
19295SOL    HW259718  11.471   8.854  10.518
19296SOL     OW59719  12.940   3.543  12.421
19296SOL    HW159720  13.011   3.539  12.357
19296SOL    HW259721  12.926   3.452  12.447
19297SOL     OW59722   6.162  11.046  14.102
19297SOL    HW159723   6.174  11.059  14.008
19297SOL    HW259724   6.071  11.016  14.110
19298SOL     OW59725   3.172   7.903   1.598
19298SOL    HW159726   3.263   7.893   1.626
19298SOL    HW259727   3.153   7.822   1.551
19299SOL     OW59728  12.078   2.278  11.682
19299SOL    HW159729  12.144   2.343  11.702
19299SOL    HW259730  12.037   2.257  11.766
19300SOL     OW59731   8.605   6.437  11.112
19300SOL    HW159732   8.640   6.423  11.200
19300SOL    HW259733   8.675   6.481  11.064
19301SOL     OW59734   2.541  12.243   7.349
19301SOL    HW159735   2.507  12.167   7.396
19301SOL    HW259736   2.592  12.206   7.277
19302SOL     OW59737   1.025  12.605  13.225
19302SOL    HW159738   1.097  12.568  13.276
19302SOL    HW259739   0.961  12.534  13.219
19303SOL     OW59740   7.579  12.551   8.707
19303SOL    HW159741   7.587  12.589   8.794
19303SOL    HW259742   7.641  12.479   8.706
19304SOL     OW59743   8.233   3.738   6.184
19304SOL    HW159744   8.307   3.724   6.244
19304SOL    HW259745   8.259   3.694   6.103
19305SOL     OW59746   1.454   5.622   0.110
19305SOL    HW159747   1.431   5.531   0.091
19305SOL    HW259748   1.415   5.639   0.196
19306SOL     OW59749  12.376   7.219   7.518
19306SOL    HW159750  12.445   7.259   7.465
19306SOL    HW259751  12.334   7.292   7.561
19307SOL     OW59752  10.061  12.906   9.938
19307SOL    HW159753  10.143  12.940   9.973
19307SOL    HW259754  10.087  12.847   9.867
19308SOL     OW59755   1.281   8.204   8.639
19308SOL    HW159756   1.353   8.267   8.632
19308SOL    HW259757   1.321   8.126   8.677
19309SOL     OW59758   9.662   1.903  13.467
19309SOL    HW159759   9.649   1.992  13.501
19309SOL    HW259760   9.576   1.878  13.435
19310SOL     OW59761   2.591   9.922   6.062
19310SOL    HW159762   2.672   9.950   6.105
19310SOL    HW259763   2.548   9.865   6.126
19311SOL     OW59764   4.641  12.183   8.494
19311SOL    HW159765   4.671  12.261   8.539
19311SOL    HW259766   4.635  12.116   8.562
19312SOL     OW59767   7.531   0.980   7.140
19312SOL    HW159768   7.620   0.946   7.156
19312SOL    HW259769   7.508   0.947   7.053
19313SOL     OW59770  11.926   5.055   0.545
19313SOL    HW159771  11.966   5.080   0.462
19313SOL    HW259772  11.877   4.975   0.525
19314SOL     OW59773   4.931   4.261   7.599
19314SOL    HW159774   4.956   4.348   7.631
19314SOL    HW259775   4.936   4.269   7.504
19315SOL     OW59776  10.243  10.966   4.918
19315SOL    HW159777  10.244  10.988   4.825
19315SOL    HW259778  10.330  10.929   4.934
19316SOL     OW59779   1.396   5.655   5.613
19316SOL    HW159780   1.314   5.654   5.662
19316SOL    HW259781   1.370   5.666   5.522
19317SOL     OW59782   1.935  13.775   2.011
19317SOL    HW159783   1.945  13.870   2.004
19317SOL    HW259784   2.012  13.740   1.966
19318SOL     OW59785   0.915   9.485   0.917
19318SOL    HW159786   0.820   9.495   0.922
19318SOL    HW259787   0.949   9.544   0.984
19319SOL     OW59788   8.636   4.493  12.804
19319SOL    HW159789   8.694   4.448  12.742
19319SOL    HW259790   8.688   4.567  12.836
19320SOL     OW59791   0.648   8.035   1.106
19320SOL    HW159792   0.572   7.999   1.060
19320SOL    HW259793   0.685   7.961   1.154
19321SOL     OW59794   6.319  14.281   7.672
19321SOL    HW159795   6.372  14.211   7.633
19321SOL    HW259796   6.263  14.237   7.735
19322SOL     OW59797  12.848  10.335   0.305
19322SOL    HW159798  12.914  10.316   0.239
19322SOL    HW259799  12.774  10.279   0.282
19323SOL     OW59800   8.875   8.018  11.352
19323SOL    HW159801   8.921   7.944  11.312
19323SOL    HW259802   8.846   8.071  11.278
19324SOL     OW59803  14.698   8.539   7.739
19324SOL    HW159804  14.758   8.498   7.676
19324SOL    HW259805  14.683   8.626   7.705
19325SOL     OW59806   7.362  11.144   0.279
19325SOL    HW159807   7.338  11.233   0.254
19325SOL    HW259808   7.316  11.129   0.361
19326SOL     OW59809   5.550   7.431   5.669
19326SOL    HW159810   5.525   7.522   5.654
19326SOL    HW259811   5.646   7.433   5.674
19327SOL     OW59812   7.035   8.660  13.114
19327SOL    HW159813   6.953   8.685  13.155
19327SOL    HW259814   7.100   8.721  13.149
19328SOL     OW59815  14.683  13.868   4.138
19328SOL    HW159816  14.761  13.918   4.161
19328SOL    HW259817  14.677  13.800   4.206
19329SOL     OW59818   8.399  13.161  11.835
19329SOL    HW159819   8.393  13.257  11.837
19329SOL    HW259820   8.325  13.132  11.889
19330SOL     OW59821   0.084   2.059  14.692
19330SOL    HW159822   0.002   2.020  14.721
19330SOL    HW259823   0.103   2.017  14.608
19331SOL     OW59824   7.309  14.214  14.404
19331SOL    HW159825   7.232  14.271  14.402
19331SOL    HW259826   7.275  14.129  14.432
19332SOL     OW59827  14.249   3.907   8.301
19332SOL    HW159828  14.318   3.943   8.245
19332SOL    HW259829  14.287   3.828   8.339
19333SOL     OW59830  12.333   8.005  10.765
19333SOL    HW159831  12.306   8.069  10.830
19333SOL    HW259832  12.251   7.977  10.724
19334SOL     OW59833  12.718  12.174  11.787
19334SOL    HW159834  12.701  12.181  11.693
19334SOL    HW259835  12.752  12.085  11.799
19335SOL     OW59836   4.767  13.918   4.564
19335SOL    HW159837   4.756  13.839   4.617
19335SOL    HW259838   4.731  13.988   4.619
19336SOL     OW59839   9.777   2.543  12.595
19336SOL    HW159840   9.818   2.629  12.588
19336SOL    HW259841   9.847   2.486  12.627
19337SOL     OW59842   9.499   0.473   5.506
19337SOL    HW159843   9.532   0.430   5.427
19337SOL    HW259844   9.541   0.426   5.578
19338SOL     OW59845   6.303   8.555   7.818
19338SOL    HW159846   6.333   8.620   7.882
19338SOL    HW259847   6.353   8.476   7.839
19339SOL     OW59848   9.885   2.258   9.443
19339SOL    HW159849   9.910   2.216   9.361
19339SOL    HW259850   9.873   2.186   9.505
19340SOL     OW59851  10.966   9.142  14.566
19340SOL    HW159852  11.007   9.209  14.511
19340SOL    HW259853  10.944   9.071  14.505
19341SOL     OW59854   7.850  11.503  12.914
19341SOL    HW159855   7.889  11.565  12.975
19341SOL    HW259856   7.896  11.421  12.929
19342SOL     OW59857   2.061   4.547   9.173
19342SOL    HW159858   2.013   4.601   9.111
19342SOL    HW259859   2.075   4.604   9.249
19343SOL     OW59860   0.926   2.404  13.710
19343SOL    HW159861   0.872   2.475  13.675
19343SOL    HW259862   0.996   2.448  13.758
19344SOL     OW59863   9.073   0.147   6.574
19344SOL    HW159864   9.011   0.074   6.581
19344SOL    HW259865   9.078   0.165   6.480
19345SOL     OW59866  13.241   9.415   9.936
19345SOL    HW159867  13.145   9.419   9.941
19345SOL    HW259868  13.259   9.382   9.848
19346SOL     OW59869   7.967   1.508   8.900
19346SOL    HW159870   8.025   1.441   8.862
19346SOL    HW259871   7.879   1.480   8.874
19347SOL     OW59872  10.819   9.549  14.556
19347SOL    HW159873  10.810   9.634  14.513
19347SOL    HW259874  10.912   9.542  14.577
19348SOL     OW59875   2.061   8.763   6.941
19348SOL    HW159876   2.098   8.835   6.993
19348SOL    HW259877   2.070   8.686   6.998
19349SOL     OW59878   0.203   7.952  12.043
19349SOL    HW159879   0.140   8.006  11.995
19349SOL    HW259880   0.249   7.902  11.975
19350SOL     OW59881  12.697   1.466   4.509
19350SOL    HW159882  12.745   1.412   4.572
19350SOL    HW259883  12.672   1.544   4.559
19351SOL     OW59884   0.822  11.871   3.872
19351SOL    HW159885   0.914  11.846   3.872
19351SOL    HW259886   0.822  11.962   3.904
19352SOL     OW59887  14.747   6.644  12.931
19352SOL    HW159888  14.715   6.733  12.922
19352SOL    HW259889  14.672   6.589  12.908
19353SOL     OW59890   9.651   7.592   3.471
19353SOL    HW159891   9.689   7.504   3.469
19353SOL    HW259892   9.725   7.650   3.485
19354SOL     OW59893  12.325   4.939   9.358
19354SOL    HW159894  12.336   5.033   9.370
19354SOL    HW259895  12.414   4.904   9.359
19355SOL     OW59896   8.372  14.054  10.154
19355SOL    HW159897   8.335  13.990  10.215
19355SOL    HW259898   8.304  14.066  10.087
19356SOL     OW59899   0.647   6.139   6.308
19356SOL    HW159900   0.552   6.140   6.319
19356SOL    HW259901   0.672   6.049   6.331
19357SOL     OW59902  12.234  13.124   1.015
19357SOL    HW159903  12.295  13.099   0.946
19357SOL    HW259904  12.283  13.184   1.070
19358SOL     OW59905   8.156   2.196  11.769
19358SOL    HW159906   8.108   2.260  11.717
19358SOL    HW259907   8.229   2.169  11.712
19359SOL     OW59908   7.348  11.219   3.255
19359SOL    HW159909   7.398  11.297   3.232
19359SOL    HW259910   7.275  11.218   3.194
19360SOL     OW59911  12.349   1.196   4.834
19360SOL    HW159912  12.366   1.199   4.740
19360SOL    HW259913  12.320   1.106   4.850
19361SOL     OW59914  12.976   5.539  14.820
19361SOL    HW159915  12.903   5.536  14.758
19361SOL    HW259916  13.046   5.585  14.773
19362SOL     OW59917  14.049   3.020   7.146
19362SOL    HW159918  13.960   3.055   7.152
19362SOL    HW259919  14.037   2.927   7.127
19363SOL     OW59920   3.890   3.714   8.980
19363SOL    HW159921   3.874   3.731   8.887
19363SOL    HW259922   3.884   3.619   8.989
19364SOL     OW59923   6.578  11.683   8.734
19364SOL    HW159924   6.512  11.748   8.761
19364SOL    HW259925   6.557  11.605   8.785
19365SOL     OW59926   0.737   1.485  13.401
19365SOL    HW159927   0.804   1.418  13.384
19365SOL    HW259928   0.755   1.553  13.337
19366SOL     OW59929   1.315   6.494  13.208
19366SOL    HW159930   1.294   6.527  13.121
19366SOL    HW259931   1.392   6.543  13.235
19367SOL     OW59932  11.381   9.671   6.355
19367SOL    HW159933  11.374   9.748   6.300
19367SOL    HW259934  11.423   9.702   6.435
19368SOL     OW59935  14.017  11.804  10.161
19368SOL    HW159936  14.082  11.810  10.231
19368SOL    HW259937  14.057  11.745  10.096
19369SOL     OW59938   0.106  13.602   4.878
19369SOL    HW159939   0.033  13.549   4.845
19369SOL    HW259940   0.124  13.664   4.807
19370SOL     OW59941   9.910   1.724   0.520
19370SOL    HW159942   9.849   1.782   0.474
19370SOL    HW259943   9.933   1.658   0.455
19371SOL     OW59944   5.228   4.217   7.435
19371SOL    HW159945   5.269   4.217   7.349
19371SOL    HW259946   5.145   4.263   7.422
19372SOL     OW59947   8.601  13.824   7.704
19372SOL    HW159948   8.649  13.770   7.641
19372SOL    HW259949   8.518  13.779   7.716
19373SOL     OW59950   6.685   8.657   6.652
19373SOL    HW159951   6.681   8.752   6.643
19373SOL    HW259952   6.767   8.641   6.698
19374SOL     OW59953   4.189   1.535  13.033
19374SOL    HW159954   4.111   1.478  13.037
19374SOL    HW259955   4.173   1.593  12.959
19375SOL     OW59956  12.641   1.918  12.894
19375SOL    HW159957  12.606   1.884  12.811
19375SOL    HW259958  12.605   1.860  12.961
19376SOL     OW59959   2.158   0.747  13.094
19376SOL    HW159960   2.077   0.695  13.094
19376SOL    HW259961   2.128   0.838  13.104
19377SOL     OW59962   9.167   8.000   8.632
19377SOL    HW159963   9.256   7.973   8.611
19377SOL    HW259964   9.113   7.924   8.611
19378SOL     OW59965   8.265   5.327  10.338
19378SOL    HW159966   8.280   5.390  10.268
19378SOL    HW259967   8.330   5.348  10.404
19379SOL     OW59968   8.431  12.121  12.172
19379SOL    HW159969   8.426  12.079  12.086
19379SOL    HW259970   8.402  12.054  12.234
19380SOL     OW59971  12.722   6.357   9.127
19380SOL    HW159972  12.784   6.294   9.091
19380SOL    HW259973  12.752   6.442   9.095
19381SOL     OW59974   6.568  10.022   1.941
19381SOL    HW159975   6.663  10.033   1.939
19381SOL    HW259976   6.548   9.998   2.032
19382SOL     OW59977   0.635   8.543   1.162
19382SOL    HW159978   0.626   8.448   1.171
19382SOL    HW259979   0.614   8.559   1.070
19383SOL     OW59980   4.274   5.962   6.542
19383SOL    HW159981   4.216   5.998   6.610
19383SOL    HW259982   4.296   5.874   6.573
19384SOL     OW59983   5.614   5.731   2.589
19384SOL    HW159984   5.675   5.695   2.524
19384SOL    HW259985   5.558   5.658   2.613
19385SOL     OW59986   0.011   1.109   6.794
19385SOL    HW159987  14.797   1.106   6.802
19385SOL    HW259988   0.040   1.021   6.817
19386SOL     OW59989  14.133  11.948   1.649
19386SOL    HW159990  14.043  11.919   1.663
19386SOL    HW259991  14.178  11.870   1.617
19387SOL     OW59992   4.034   5.224  13.250
19387SOL    HW159993   4.058   5.277  13.173
19387SOL    HW259994   4.032   5.134  13.217
19388SOL     OW59995  10.738   7.315   8.628
19388SOL    HW159996  10.775   7.334   8.542
19388SOL    HW259997  10.699   7.397   8.657
19389SOL     OW59998  12.310   5.973  13.195
19389SOL    HW159999  12.348   6.005  13.113
19389SOL    HW260000  12.343   5.884  13.204
19390SOL     OW60001   7.054   0.370   1.365
19390SOL    HW160002   7.057   0.376   1.460
19390SOL    HW260003   7.111   0.440   1.334
19391SOL     OW60004  13.555   2.814  13.282
19391SOL    HW160005  13.642   2.843  13.255
19391SOL    HW260006  13.506   2.895  13.297
19392SOL     OW60007   7.193   3.869  13.484
19392SOL    HW160008   7.279   3.908  13.492
19392SOL    HW260009   7.208   3.785  13.440
19393SOL     OW60010  11.417   8.470  12.081
19393SOL    HW160011  11.392   8.523  12.156
19393SOL    HW260012  11.334   8.437  12.046
19394SOL     OW60013  11.028   9.479   6.230
19394SOL    HW160014  10.965   9.550   6.229
19394SOL    HW260015  10.975   9.399   6.227
19395SOL     OW60016  12.215  14.633   1.439
19395SOL    HW160017  12.182  14.544   1.442
19395SOL    HW260018  12.206  14.660   1.348
19396SOL     OW60019   7.811   7.898   2.668
19396SOL    HW160020   7.784   7.941   2.587
19396SOL    HW260021   7.780   7.808   2.659
19397SOL     OW60022   5.644   4.250   2.453
19397SOL    HW160023   5.636   4.320   2.517
19397SOL    HW260024   5.735   4.253   2.425
19398SOL     OW60025   3.282   6.617  14.151
19398SOL    HW160026   3.332   6.696  14.172
19398SOL    HW260027   3.339   6.545  14.180
19399SOL     OW60028   4.552  12.163  11.137
19399SOL    HW160029   4.626  12.198  11.088
19399SOL    HW260030   4.540  12.223  11.211
19400SOL     OW60031   4.925  10.656  13.290
19400SOL    HW160032   4.912  10.670  13.383
19400SOL    HW260033   5.012  10.691  13.272
19401SOL     OW60034   3.124   1.465   8.200
19401SOL    HW160035   3.164   1.381   8.225
19401SOL    HW260036   3.190   1.508   8.147
19402SOL     OW60037  12.351   7.902   8.917
19402SOL    HW160038  12.408   7.830   8.944
19402SOL    HW260039  12.405   7.980   8.924
19403SOL     OW60040  13.486   3.305   7.621
19403SOL    HW160041  13.471   3.211   7.633
19403SOL    HW260042  13.577   3.312   7.595
19404SOL     OW60043   8.253   7.831   0.974
19404SOL    HW160044   8.310   7.832   1.051
19404SOL    HW260045   8.241   7.924   0.953
19405SOL     OW60046  14.390   6.466   1.613
19405SOL    HW160047  14.414   6.390   1.667
19405SOL    HW260048  14.318   6.435   1.558
19406SOL     OW60049  13.488   6.485  10.431
19406SOL    HW160050  13.449   6.404  10.464
19406SOL    HW260051  13.445   6.500  10.347
19407SOL     OW60052  14.113  14.123   8.561
19407SOL    HW160053  14.078  14.177   8.632
19407SOL    HW260054  14.035  14.086   8.519
19408SOL     OW60055   3.074   5.592   7.627
19408SOL    HW160056   3.063   5.499   7.647
19408SOL    HW260057   3.042   5.637   7.705
19409SOL     OW60058  12.961  11.918   2.786
19409SOL    HW160059  13.001  11.981   2.726
19409SOL    HW260060  13.020  11.842   2.785
19410SOL     OW60061  13.330   9.943  11.248
19410SOL    HW160062  13.388   9.973  11.178
19410SOL    HW260063  13.381   9.879  11.297
19411SOL     OW60064   9.656   4.498   0.649
19411SOL    HW160065   9.592   4.551   0.603
19411SOL    HW260066   9.741   4.531   0.619
19412SOL     OW60067   3.968   3.251   1.860
19412SOL    HW160068   3.905   3.180   1.866
19412SOL    HW260069   3.990   3.257   1.767
19413SOL     OW60070   9.515   4.681  14.178
19413SOL    HW160071   9.477   4.651  14.095
19413SOL    HW260072   9.575   4.752  14.153
19414SOL     OW60073   1.790   2.903   3.447
19414SOL    HW160074   1.811   2.860   3.364
19414SOL    HW260075   1.875   2.924   3.485
19415SOL     OW60076   5.905  10.389   9.582
19415SOL    HW160077   5.948  10.376   9.666
19415SOL    HW260078   5.967  10.353   9.518
19416SOL     OW60079   4.036   7.440  11.396
19416SOL    HW160080   4.099   7.411  11.462
19416SOL    HW260081   4.087   7.500  11.340
19417SOL     OW60082  13.113   9.815   5.134
19417SOL    HW160083  13.058   9.882   5.172
19417SOL    HW260084  13.150   9.768   5.209
19418SOL     OW60085   4.335   8.049   2.557
19418SOL    HW160086   4.362   8.112   2.624
19418SOL    HW260087   4.257   8.007   2.594
19419SOL     OW60088  11.571   9.086   7.875
19419SOL    HW160089  11.554   9.172   7.837
19419SOL    HW260090  11.638   9.048   7.818
19420SOL     OW60091  14.242   0.679   2.177
19420SOL    HW160092  14.178   0.651   2.112
19420SOL    HW260093  14.213   0.639   2.258
19421SOL     OW60094  12.339  13.681   4.820
19421SOL    HW160095  12.285  13.620   4.871
19421SOL    HW260096  12.357  13.754   4.880
19422SOL     OW60097   7.624   3.758   3.929
19422SOL    HW160098   7.701   3.776   3.982
19422SOL    HW260099   7.651   3.687   3.870
19423SOL     OW60100  10.172   6.087  10.832
19423SOL    HW160101  10.217   6.002  10.833
19423SOL    HW260102  10.242   6.152  10.834
19424SOL     OW60103   2.516   9.169   5.712
19424SOL    HW160104   2.530   9.247   5.658
19424SOL    HW260105   2.514   9.097   5.649
19425SOL     OW60106  14.069  12.848   4.853
19425SOL    HW160107  14.117  12.774   4.817
19425SOL    HW260108  13.981  12.839   4.816
19426SOL     OW60109  14.026  14.399   5.474
19426SOL    HW160110  14.077  14.384   5.553
19426SOL    HW260111  13.945  14.351   5.488
19427SOL     OW60112   8.910   3.121  11.498
19427SOL    HW160113   8.828   3.112  11.451
19427SOL    HW260114   8.972   3.068  11.448
19428SOL     OW60115   0.277  12.838  14.527
19428SOL    HW160116   0.237  12.843  14.440
19428SOL    HW260117   0.285  12.744  14.544
19429SOL     OW60118   3.302   0.621   0.646
19429SOL    HW160119   3.394   0.630   0.668
19429SOL    HW260120   3.274   0.711   0.624
19430SOL     OW60121   1.006  14.060   3.237
19430SOL    HW160122   1.100  14.061   3.224
19430SOL    HW260123   0.969  14.038   3.151
19431SOL     OW60124   3.769  13.365   4.668
19431SOL    HW160125   3.857  13.353   4.702
19431SOL    HW260126   3.781  13.393   4.578
19432SOL     OW60127   1.364  13.342   3.634
19432SOL    HW160128   1.324  13.355   3.549
19432SOL    HW260129   1.294  13.307   3.689
19433SOL     OW60130   0.804  12.307  12.490
19433SOL    HW160131   0.755  12.226  12.473
19433SOL    HW260132   0.753  12.353  12.557
19434SOL     OW60133   4.872  12.315   1.094
19434SOL    HW160134   4.900  12.399   1.130
19434SOL    HW260135   4.848  12.262   1.170
19435SOL     OW60136   9.061  10.099  11.366
19435SOL    HW160137   9.084  10.172  11.308
19435SOL    HW260138   8.968  10.111  11.384
19436SOL     OW60139  11.414  11.077  12.854
19436SOL    HW160140  11.414  11.133  12.777
19436SOL    HW260141  11.438  11.135  12.926
19437SOL     OW60142   0.884  12.205   6.948
19437SOL    HW160143   0.925  12.287   6.923
19437SOL    HW260144   0.945  12.137   6.918
19438SOL     OW60145   5.614   0.181  14.736
19438SOL    HW160146   5.683   0.218  14.791
19438SOL    HW260147   5.639   0.089  14.725
19439SOL     OW60148   6.781   9.881   0.521
19439SOL    HW160149   6.868   9.911   0.549
19439SOL    HW260150   6.799   9.819   0.450
19440SOL     OW60151   9.496  11.568  11.096
19440SOL    HW160152   9.446  11.601  11.022
19440SOL    HW260153   9.562  11.511  11.057
19441SOL     OW60154  10.622   9.343   8.891
19441SOL    HW160155  10.713   9.372   8.884
19441SOL    HW260156  10.581   9.374   8.811
19442SOL     OW60157   9.917  12.129   2.072
19442SOL    HW160158   9.876  12.206   2.112
19442SOL    HW260159  10.010  12.150   2.070
19443SOL     OW60160   8.720   0.098   1.236
19443SOL    HW160161   8.660   0.072   1.306
19443SOL    HW260162   8.796   0.134   1.281
19444SOL     OW60163  13.441   7.538  14.301
19444SOL    HW160164  13.391   7.620  14.293
19444SOL    HW260165  13.421   7.489  14.222
19445SOL     OW60166   9.786  13.831   7.403
19445SOL    HW160167   9.816  13.742   7.425
19445SOL    HW260168   9.848  13.861   7.336
19446SOL     OW60169   3.042  11.764   7.731
19446SOL    HW160170   3.125  11.743   7.687
19446SOL    HW260171   3.059  11.745   7.824
19447SOL     OW60172   5.477   4.297  11.638
19447SOL    HW160173   5.484   4.306  11.543
19447SOL    HW260174   5.519   4.376  11.673
19448SOL     OW60175  14.459  14.624   1.594
19448SOL    HW160176  14.367  14.649   1.603
19448SOL    HW260177  14.469  14.548   1.650
19449SOL     OW60178   0.909   4.463   5.677
19449SOL    HW160179   0.843   4.531   5.664
19449SOL    HW260180   0.894   4.432   5.767
19450SOL     OW60181   3.179   1.401   4.664
19450SOL    HW160182   3.205   1.457   4.738
19450SOL    HW260183   3.098   1.440   4.632
19451SOL     OW60184   4.437   6.901   6.969
19451SOL    HW160185   4.403   6.877   7.055
19451SOL    HW260186   4.524   6.860   6.966
19452SOL     OW60187   3.946  14.137  14.550
19452SOL    HW160188   4.034  14.101  14.561
19452SOL    HW260189   3.922  14.117  14.459
19453SOL     OW60190   5.915   6.373  13.022
19453SOL    HW160191   5.976   6.391  13.094
19453SOL    HW260192   5.850   6.314  13.060
19454SOL     OW60193  13.465  13.759   1.550
19454SOL    HW160194  13.449  13.835   1.606
19454SOL    HW260195  13.393  13.699   1.570
19455SOL     OW60196   6.591   8.189   4.608
19455SOL    HW160197   6.611   8.164   4.518
19455SOL    HW260198   6.673   8.224   4.642
19456SOL     OW60199   0.645   4.174   6.635
19456SOL    HW160200   0.718   4.111   6.630
19456SOL    HW260201   0.684   4.257   6.608
19457SOL     OW60202  14.114   3.281   7.060
19457SOL    HW160203  14.051   3.336   7.106
19457SOL    HW260204  14.100   3.193   7.095
19458SOL     OW60205   1.107   4.206  13.898
19458SOL    HW160206   1.095   4.301  13.897
19458SOL    HW260207   1.029   4.172  13.941
19459SOL     OW60208  13.139  14.597   3.565
19459SOL    HW160209  13.112  14.635   3.649
19459SOL    HW260210  13.137  14.502   3.581
19460SOL     OW60211  14.331  11.493  14.573
19460SOL    HW160212  14.297  11.426  14.514
19460SOL    HW260213  14.365  11.445  14.648
19461SOL     OW60214  12.959   1.664  12.842
19461SOL    HW160215  12.866   1.645  12.828
19461SOL    HW260216  13.005   1.587  12.809
19462SOL     OW60217   4.297   0.053  13.272
19462SOL    HW160218   4.377   0.072  13.223
19462SOL    HW260219   4.308  14.844  13.301
19463SOL     OW60220  11.873  14.454  11.099
19463SOL    HW160221  11.966  14.470  11.081
19463SOL    HW260222  11.827  14.527  11.058
19464SOL     OW60223   4.444  11.572   8.767
19464SOL    HW160224   4.410  11.482   8.766
19464SOL    HW260225   4.473  11.587   8.677
19465SOL     OW60226   9.392  10.305   8.881
19465SOL    HW160227   9.331  10.349   8.940
19465SOL    HW260228   9.340  10.236   8.839
19466SOL     OW60229  10.996  12.006  12.800
19466SOL    HW160230  11.015  12.098  12.821
19466SOL    HW260231  10.922  12.010  12.739
19467SOL     OW60232  10.011  10.845   1.157
19467SOL    HW160233  10.038  10.780   1.092
19467SOL    HW260234  10.011  10.928   1.109
19468SOL     OW60235   8.810  13.181  14.133
19468SOL    HW160236   8.885  13.211  14.081
19468SOL    HW260237   8.765  13.118  14.076
19469SOL     OW60238  13.196   8.537   1.479
19469SOL    HW160239  13.205   8.474   1.408
19469SOL    HW260240  13.246   8.613   1.451
19470SOL     OW60241   2.524  11.336   0.211
19470SOL    HW160242   2.562  11.398   0.274
19470SOL    HW260243   2.476  11.392   0.149
19471SOL     OW60244  10.608   8.056   5.387
19471SOL    HW160245  10.623   8.125   5.323
19471SOL    HW260246  10.693   8.044   5.430
19472SOL     OW60247  10.311  11.020  13.254
19472SOL    HW160248  10.262  10.961  13.197
19472SOL    HW260249  10.244  11.063  13.308
19473SOL     OW60250   5.869  11.258   4.166
19473SOL    HW160251   5.909  11.218   4.089
19473SOL    HW260252   5.933  11.247   4.236
19474SOL     OW60253   9.476  11.261   5.167
19474SOL    HW160254   9.475  11.274   5.262
19474SOL    HW260255   9.396  11.302   5.136
19475SOL     OW60256   0.991   6.887  14.503
19475SOL    HW160257   1.079   6.901  14.539
19475SOL    HW260258   0.980   6.958  14.439
19476SOL     OW60259   6.770   8.113   8.324
19476SOL    HW160260   6.852   8.096   8.278
19476SOL    HW260261   6.796   8.123   8.416
19477SOL     OW60262   4.437   9.753   6.786
19477SOL    HW160263   4.501   9.824   6.790
19477SOL    HW260264   4.458   9.706   6.706
19478SOL     OW60265   7.455   9.833   1.419
19478SOL    HW160266   7.518   9.766   1.392
19478SOL    HW260267   7.378   9.785   1.446
19479SOL     OW60268   6.692   0.818   6.648
19479SOL    HW160269   6.635   0.769   6.590
19479SOL    HW260270   6.780   0.786   6.628
19480SOL     OW60271  14.053   1.176   5.240
19480SOL    HW160272  13.988   1.145   5.303
19480SOL    HW260273  14.021   1.262   5.212
19481SOL     OW60274   3.600   6.912  11.893
19481SOL    HW160275   3.611   6.997  11.936
19481SOL    HW260276   3.582   6.851  11.964
19482SOL     OW60277   2.828   9.341   8.202
19482SOL    HW160278   2.884   9.276   8.160
19482SOL    HW260279   2.784   9.385   8.129
19483SOL     OW60280   8.756   6.748   6.547
19483SOL    HW160281   8.799   6.727   6.630
19483SOL    HW260282   8.789   6.682   6.486
19484SOL     OW60283   1.621   4.978   2.841
19484SOL    HW160284   1.661   5.045   2.897
19484SOL    HW260285   1.643   4.895   2.882
19485SOL     OW60286  10.499   4.319   7.743
19485SOL    HW160287  10.450   4.390   7.784
19485SOL    HW260288  10.489   4.335   7.649
19486SOL     OW60289   7.525   7.285   5.089
19486SOL    HW160290   7.451   7.242   5.132
19486SOL    HW260291   7.558   7.348   5.153
19487SOL     OW60292  12.015   2.173   3.210
19487SOL    HW160293  12.032   2.174   3.116
19487SOL    HW260294  12.094   2.209   3.250
19488SOL     OW60295  13.494  14.033   5.313
19488SOL    HW160296  13.434  14.079   5.372
19488SOL    HW260297  13.523  14.101   5.252
19489SOL     OW60298   2.832   3.954   6.619
19489SOL    HW160299   2.856   4.045   6.634
19489SOL    HW260300   2.894   3.903   6.671
19490SOL     OW60301   5.908   0.602   5.888
19490SOL    HW160302   5.919   0.522   5.939
19490SOL    HW260303   5.935   0.672   5.947
19491SOL     OW60304   4.465  10.373  13.252
19491SOL    HW160305   4.527  10.444  13.237
19491SOL    HW260306   4.488  10.338  13.338
19492SOL     OW60307   8.734   3.896  13.151
19492SOL    HW160308   8.821   3.932  13.169
19492SOL    HW260309   8.689   3.966  13.104
19493SOL     OW60310  10.594   3.703   3.434
19493SOL    HW160311  10.631   3.772   3.380
19493SOL    HW260312  10.624   3.622   3.393
19494SOL     OW60313  13.308   0.688   1.604
19494SOL    HW160314  13.350   0.673   1.689
19494SOL    HW260315  13.371   0.740   1.554
19495SOL     OW60316  13.157   7.438   1.783
19495SOL    HW160317  13.200   7.474   1.860
19495SOL    HW260318  13.114   7.359   1.815
19496SOL     OW60319  13.080   7.550   4.067
19496SOL    HW160320  13.097   7.514   3.980
19496SOL    HW260321  12.995   7.514   4.092
19497SOL     OW60322   7.225   4.411  11.221
19497SOL    HW160323   7.190   4.497  11.196
19497SOL    HW260324   7.251   4.422  11.313
19498SOL     OW60325   2.536   5.179   5.187
19498SOL    HW160326   2.522   5.102   5.132
19498SOL    HW260327   2.515   5.253   5.130
19499SOL     OW60328   7.427   7.389  14.833
19499SOL    HW160329   7.410   7.350  14.747
19499SOL    HW260330   7.410   7.317   0.013
19500SOL     OW60331   7.028   2.913   9.974
19500SOL    HW160332   7.038   2.824   9.939
19500SOL    HW260333   7.025   2.968   9.896
19501SOL     OW60334  11.381  14.593   9.838
19501SOL    HW160335  11.383  14.531   9.764
19501SOL    HW260336  11.288  14.602   9.858
19502SOL     OW60337   8.346  12.206  13.403
19502SOL    HW160338   8.438  12.190  13.423
19502SOL    HW260339   8.300  12.132  13.442
19503SOL     OW60340  13.549   5.108   7.950
19503SOL    HW160341  13.551   5.103   7.855
19503SOL    HW260342  13.615   5.173   7.973
19504SOL     OW60343  10.977   4.225  10.359
19504SOL    HW160344  11.057   4.182  10.330
19504SOL    HW260345  10.907   4.171  10.322
19505SOL     OW60346   8.740   9.566   0.809
19505SOL    HW160347   8.744   9.648   0.857
19505SOL    HW260348   8.647   9.552   0.791
19506SOL     OW60349   7.768  11.093   6.279
19506SOL    HW160350   7.774  11.116   6.372
19506SOL    HW260351   7.731  11.005   6.277
19507SOL     OW60352   9.166   7.213  14.524
19507SOL    HW160353   9.103   7.219  14.596
19507SOL    HW260354   9.116   7.239  14.447
19508SOL     OW60355  12.031   8.873   5.958
19508SOL    HW160356  11.959   8.850   6.017
19508SOL    HW260357  12.009   8.960   5.925
19509SOL     OW60358   8.364   3.260   9.313
19509SOL    HW160359   8.306   3.185   9.326
19509SOL    HW260360   8.324   3.330   9.365
19510SOL     OW60361   0.261   9.158   7.492
19510SOL    HW160362   0.195   9.089   7.501
19510SOL    HW260363   0.289   9.152   7.401
19511SOL     OW60364   6.794   7.566  13.556
19511SOL    HW160365   6.732   7.493  13.554
19511SOL    HW260366   6.862   7.538  13.617
19512SOL     OW60367   4.442   1.671   6.963
19512SOL    HW160368   4.456   1.577   6.954
19512SOL    HW260369   4.522   1.710   6.928
19513SOL     OW60370   1.535   2.239   0.793
19513SOL    HW160371   1.565   2.192   0.716
19513SOL    HW260372   1.473   2.180   0.836
19514SOL     OW60373  14.046   9.213   3.959
19514SOL    HW160374  14.056   9.132   3.910
19514SOL    HW260375  13.952   9.228   3.961
19515SOL     OW60376  10.983   5.939   2.378
19515SOL    HW160377  11.017   5.857   2.413
19515SOL    HW260378  10.975   5.997   2.454
19516SOL     OW60379   7.284   5.973  13.963
19516SOL    HW160380   7.350   6.010  13.904
19516SOL    HW260381   7.322   5.889  13.990
19517SOL     OW60382   2.502  14.357   2.948
19517SOL    HW160383   2.509  14.278   3.001
19517SOL    HW260384   2.592  14.381   2.928
19518SOL     OW60385   7.559   3.501  13.550
19518SOL    HW160386   7.570   3.570  13.484
19518SOL    HW260387   7.645   3.491  13.590
19519SOL     OW60388  10.564   4.012   7.466
19519SOL    HW160389  10.524   3.928   7.443
19519SOL    HW260390  10.491   4.073   7.474
19520SOL     OW60391   0.062   1.323   5.246
19520SOL    HW160392   0.153   1.294   5.253
19520SOL    HW260393   0.057   1.399   5.304
19521SOL     OW60394  13.659  12.961   5.595
19521SOL    HW160395  13.721  12.894   5.624
19521SOL    HW260396  13.596  12.913   5.542
19522SOL     OW60397   1.381   6.414   4.151
19522SOL    HW160398   1.419   6.486   4.201
19522SOL    HW260399   1.442   6.341   4.164
19523SOL     OW60400   8.186  11.551   3.499
19523SOL    HW160401   8.252  11.528   3.565
19523SOL    HW260402   8.106  11.507   3.529
19524SOL     OW60403   0.864   2.300  10.592
19524SOL    HW160404   0.907   2.216  10.604
19524SOL    HW260405   0.922   2.348  10.532
19525SOL     OW60406   5.101   6.923   5.522
19525SOL    HW160407   5.086   6.933   5.428
19525SOL    HW260408   5.178   6.977   5.540
19526SOL     OW60409  12.197   5.221   1.403
19526SOL    HW160410  12.258   5.163   1.358
19526SOL    HW260411  12.249   5.265   1.470
19527SOL     OW60412   2.138   5.182   0.622
19527SOL    HW160413   2.142   5.243   0.548
19527SOL    HW260414   2.174   5.100   0.588
19528SOL     OW60415   2.905   8.645   0.924
19528SOL    HW160416   2.890   8.550   0.927
19528SOL    HW260417   2.910   8.665   0.831
19529SOL     OW60418   3.064  13.133   2.781
19529SOL    HW160419   2.992  13.188   2.750
19529SOL    HW260420   3.091  13.084   2.703
19530SOL     OW60421   5.372   8.923   4.501
19530SOL    HW160422   5.344   8.979   4.574
19530SOL    HW260423   5.311   8.850   4.502
19531SOL     OW60424  11.352   5.824   8.912
19531SOL    HW160425  11.366   5.774   8.832
19531SOL    HW260426  11.314   5.761   8.973
19532SOL     OW60427   7.448   5.109  11.383
19532SOL    HW160428   7.500   5.138  11.459
19532SOL    HW260429   7.424   5.190  11.339
19533SOL     OW60430   3.770  14.370   7.594
19533SOL    HW160431   3.774  14.293   7.537
19533SOL    HW260432   3.776  14.334   7.683
19534SOL     OW60433  11.937  13.862   2.150
19534SOL    HW160434  11.916  13.811   2.071
19534SOL    HW260435  11.910  13.951   2.128
19535SOL     OW60436   3.832  11.095  13.411
19535SOL    HW160437   3.848  11.001  13.420
19535SOL    HW260438   3.765  11.115  13.477
19536SOL     OW60439   4.556   7.940   7.032
19536SOL    HW160440   4.518   7.853   7.042
19536SOL    HW260441   4.620   7.930   6.962
19537SOL     OW60442  11.668   2.551   8.011
19537SOL    HW160443  11.612   2.621   8.044
19537SOL    HW260444  11.624   2.470   8.039
19538SOL     OW60445  11.309   2.462  10.646
19538SOL    HW160446  11.362   2.529  10.688
19538SOL    HW260447  11.218   2.489  10.662
19539SOL     OW60448   2.042   8.415   7.664
19539SOL    HW160449   2.119   8.389   7.613
19539SOL    HW260450   1.992   8.334   7.675
19540SOL     OW60451   2.836   0.464   4.298
19540SOL    HW160452   2.851   0.471   4.392
19540SOL    HW260453   2.836   0.554   4.267
19541SOL     OW60454   6.324   8.105  11.196
19541SOL    HW160455   6.250   8.048  11.219
19541SOL    HW260456   6.379   8.107  11.274
19542SOL     OW60457   5.759   6.303   3.915
19542SOL    HW160458   5.729   6.212   3.913
19542SOL    HW260459   5.692   6.352   3.867
19543SOL     OW60460   1.696   1.983  12.627
19543SOL    HW160461   1.694   2.073  12.595
19543SOL    HW260462   1.610   1.948  12.605
19544SOL     OW60463  12.367  11.235   1.063
19544SOL    HW160464  12.341  11.223   0.972
19544SOL    HW260465  12.373  11.329   1.075
19545SOL     OW60466   0.261   1.852   9.709
19545SOL    HW160467   0.284   1.806   9.790
19545SOL    HW260468   0.283   1.943   9.726
19546SOL     OW60469   1.974   5.149   2.895
19546SOL    HW160470   1.969   5.117   2.985
19546SOL    HW260471   1.949   5.242   2.901
19547SOL     OW60472   7.822   9.225   2.795
19547SOL    HW160473   7.876   9.212   2.717
19547SOL    HW260474   7.737   9.252   2.760
19548SOL     OW60475   3.043   6.395  14.447
19548SOL    HW160476   3.118   6.408  14.504
19548SOL    HW260477   3.036   6.477  14.397
19549SOL     OW60478   6.074   6.278   9.648
19549SOL    HW160479   6.087   6.373   9.649
19549SOL    HW260480   6.103   6.251   9.561
19550SOL     OW60481   2.862  10.432  10.911
19550SOL    HW160482   2.914  10.476  10.844
19550SOL    HW260483   2.867  10.491  10.987
19551SOL     OW60484   8.846   4.649  12.981
19551SOL    HW160485   8.877   4.708  12.912
19551SOL    HW260486   8.927   4.617  13.022
19552SOL     OW60487   3.003  12.654   4.771
19552SOL    HW160488   3.026  12.563   4.793
19552SOL    HW260489   3.073  12.683   4.713
19553SOL     OW60490  10.904   2.413   4.997
19553SOL    HW160491  10.945   2.420   4.911
19553SOL    HW260492  10.862   2.327   4.997
19554SOL     OW60493  11.300   9.306  11.059
19554SOL    HW160494  11.317   9.390  11.102
19554SOL    HW260495  11.372   9.296  10.997
19555SOL     OW60496   5.600   3.297   8.103
19555SOL    HW160497   5.613   3.235   8.174
19555SOL    HW260498   5.522   3.346   8.128
19556SOL     OW60499  14.223  12.553  13.101
19556SOL    HW160500  14.287  12.619  13.127
19556SOL    HW260501  14.253  12.523  13.015
19557SOL     OW60502   5.124  11.240   1.857
19557SOL    HW160503   5.144  11.328   1.824
19557SOL    HW260504   5.201  11.216   1.909
19558SOL     OW60505   8.555   6.281   6.726
19558SOL    HW160506   8.558   6.324   6.811
19558SOL    HW260507   8.462   6.271   6.707
19559SOL     OW60508   4.587   0.722   8.643
19559SOL    HW160509   4.534   0.796   8.671
19559SOL    HW260510   4.671   0.735   8.687
19560SOL     OW60511   9.660   2.867  14.008
19560SOL    HW160512   9.633   2.959  14.009
19560SOL    HW260513   9.745   2.868  13.964
19561SOL     OW60514  12.458   8.592   6.009
19561SOL    HW160515  12.404   8.562   5.936
19561SOL    HW260516  12.544   8.553   5.992
19562SOL     OW60517  12.734   8.852   8.521
19562SOL    HW160518  12.740   8.761   8.553
19562SOL    HW260519  12.729   8.904   8.601
19563SOL     OW60520   8.599  12.071  11.511
19563SOL    HW160521   8.645  11.992  11.483
19563SOL    HW260522   8.564  12.108  11.430
19564SOL     OW60523   6.250   6.302  11.700
19564SOL    HW160524   6.268   6.344  11.616
19564SOL    HW260525   6.336   6.285  11.738
19565SOL     OW60526   2.788  10.163  11.622
19565SOL    HW160527   2.768  10.095  11.558
19565SOL    HW260528   2.713  10.162  11.682
19566SOL     OW60529   1.967   4.921  12.196
19566SOL    HW160530   2.063   4.922  12.200
19566SOL    HW260531   1.942   4.854  12.260
19567SOL     OW60532  13.900   2.479   1.829
19567SOL    HW160533  13.889   2.531   1.750
19567SOL    HW260534  13.860   2.395   1.809
19568SOL     OW60535   2.254   9.800   6.801
19568SOL    HW160536   2.188   9.761   6.858
19568SOL    HW260537   2.279   9.881   6.844
19569SOL     OW60538  12.735  14.008  10.498
19569SOL    HW160539  12.749  13.959  10.579
19569SOL    HW260540  12.819  14.050  10.480
19570SOL     OW60541   9.421  12.392   5.000
19570SOL    HW160542   9.463  12.469   5.038
19570SOL    HW260543   9.328  12.406   5.015
19571SOL     OW60544   0.321   6.406   1.670
19571SOL    HW160545   0.358   6.322   1.699
19571SOL    HW260546   0.232   6.406   1.705
19572SOL     OW60547  14.759  13.629   5.286
19572SOL    HW160548  14.734  13.717   5.258
19572SOL    HW260549  14.854  13.628   5.280
19573SOL     OW60550  12.961   8.142   5.034
19573SOL    HW160551  13.034   8.114   4.980
19573SOL    HW260552  12.953   8.236   5.016
19574SOL     OW60553  14.813  13.868  12.672
19574SOL    HW160554   0.003  13.925  12.698
19574SOL    HW260555  14.784  13.826  12.752
19575SOL     OW60556  14.759   7.276   9.246
19575SOL    HW160557  14.846   7.315   9.257
19575SOL    HW260558  14.741   7.284   9.152
19576SOL     OW60559   5.777   3.746   6.274
19576SOL    HW160560   5.759   3.654   6.295
19576SOL    HW260561   5.722   3.795   6.335
19577SOL     OW60562   3.222   7.147  14.595
19577SOL    HW160563   3.153   7.084  14.614
19577SOL    HW260564   3.187   7.232  14.621
19578SOL     OW60565   1.273   2.250  11.204
19578SOL    HW160566   1.341   2.188  11.228
19578SOL    HW260567   1.193   2.198  11.197
19579SOL     OW60568  12.729   7.213  11.770
19579SOL    HW160569  12.679   7.139  11.736
19579SOL    HW260570  12.675   7.290  11.749
19580SOL     OW60571   1.188  14.809   1.366
19580SOL    HW160572   1.180   0.021   1.351
19580SOL    HW260573   1.232  14.775   1.288
19581SOL     OW60574   7.377   8.635   4.757
19581SOL    HW160575   7.390   8.615   4.849
19581SOL    HW260576   7.288   8.605   4.737
19582SOL     OW60577   3.305  13.994  13.132
19582SOL    HW160578   3.271  14.035  13.052
19582SOL    HW260579   3.292  13.901  13.118
19583SOL     OW60580   0.839  14.850  14.284
19583SOL    HW160581   0.896   0.028  14.333
19583SOL    HW260582   0.762  14.839  14.340
19584SOL     OW60583   9.629   7.804   3.246
19584SOL    HW160584   9.724   7.810   3.236
19584SOL    HW260585   9.615   7.732   3.307
19585SOL     OW60586   0.663   5.608  14.324
19585SOL    HW160587   0.741   5.631  14.273
19585SOL    HW260588   0.663   5.512  14.326
19586SOL     OW60589  14.326   4.515   4.657
19586SOL    HW160590  14.344   4.606   4.682
19586SOL    HW260591  14.382   4.464   4.716
19587SOL     OW60592   6.563   8.665   1.149
19587SOL    HW160593   6.650   8.647   1.112
19587SOL    HW260594   6.555   8.604   1.223
19588SOL     OW60595   0.484   4.574   6.197
19588SOL    HW160596   0.573   4.607   6.184
19588SOL    HW260597   0.495   4.498   6.255
19589SOL     OW60598   0.566   5.186   1.477
19589SOL    HW160599   0.634   5.142   1.527
19589SOL    HW260600   0.485   5.142   1.503
19590SOL     OW60601   3.237   9.070  11.784
19590SOL    HW160602   3.176   8.997  11.771
19590SOL    HW260603   3.226   9.094  11.876
19591SOL     OW60604   7.970   8.651   4.222
19591SOL    HW160605   8.023   8.730   4.214
19591SOL    HW260606   7.933   8.638   4.134
19592SOL     OW60607   0.306  13.099   6.651
19592SOL    HW160608   0.331  13.011   6.620
19592SOL    HW260609   0.347  13.106   6.737
19593SOL     OW60610   2.696   5.989   4.744
19593SOL    HW160611   2.755   6.046   4.695
19593SOL    HW260612   2.642   5.947   4.677
19594SOL     OW60613   3.925   9.757   7.727
19594SOL    HW160614   3.942   9.695   7.798
19594SOL    HW260615   3.992   9.738   7.662
19595SOL     OW60616   5.119   4.163   4.105
19595SOL    HW160617   5.194   4.115   4.069
19595SOL    HW260618   5.126   4.151   4.199
19596SOL     OW60619  10.024   2.092   6.362
19596SOL    HW160620   9.983   2.140   6.290
19596SOL    HW260621   9.993   2.002   6.352
19597SOL     OW60622   6.341  14.830  14.877
19597SOL    HW160623   6.368   0.016   0.057
19597SOL    HW260624   6.397  14.755   0.016
19598SOL     OW60625  12.659   3.930   4.349
19598SOL    HW160626  12.658   4.020   4.316
19598SOL    HW260627  12.630   3.877   4.274
19599SOL     OW60628  11.286  10.499   2.353
19599SOL    HW160629  11.213  10.439   2.372
19599SOL    HW260630  11.249  10.563   2.292
19600SOL     OW60631  10.506  14.098   5.802
19600SOL    HW160632  10.582  14.054   5.763
19600SOL    HW260633  10.519  14.190   5.782
19601SOL     OW60634   8.381   8.045   8.963
19601SOL    HW160635   8.471   8.021   8.982
19601SOL    HW260636   8.331   8.015   9.039
19602SOL     OW60637  14.456  13.802   6.975
19602SOL    HW160638  14.454  13.799   7.071
19602SOL    HW260639  14.428  13.891   6.953
19603SOL     OW60640   6.899  10.148   3.341
19603SOL    HW160641   6.814  10.104   3.336
19603SOL    HW260642   6.878  10.241   3.346
19604SOL     OW60643   5.229  14.548   5.844
19604SOL    HW160644   5.200  14.629   5.886
19604SOL    HW260645   5.174  14.541   5.766
19605SOL     OW60646   2.034  10.915  10.703
19605SOL    HW160647   2.000  10.987  10.650
19605SOL    HW260648   1.990  10.924  10.788
19606SOL     OW60649   5.220  13.313  14.327
19606SOL    HW160650   5.223  13.318  14.422
19606SOL    HW260651   5.129  13.328  14.304
19607SOL     OW60652   5.364  11.874  14.434
19607SOL    HW160653   5.351  11.854  14.341
19607SOL    HW260654   5.401  11.793  14.470
19608SOL     OW60655   3.406   6.658   9.685
19608SOL    HW160656   3.405   6.565   9.711
19608SOL    HW260657   3.329   6.695   9.727
19609SOL     OW60658  14.586   8.886   2.454
19609SOL    HW160659  14.666   8.911   2.501
19609SOL    HW260660  14.519   8.883   2.523
19610SOL     OW60661   5.596   0.731  11.854
19610SOL    HW160662   5.511   0.690  11.838
19610SOL    HW260663   5.579   0.792  11.926
19611SOL     OW60664   3.695   4.431   1.396
19611SOL    HW160665   3.716   4.470   1.311
19611SOL    HW260666   3.678   4.339   1.376
19612SOL     OW60667  13.836   9.453  12.517
19612SOL    HW160668  13.819   9.375  12.465
19612SOL    HW260669  13.931   9.457  12.524
19613SOL     OW60670  14.628   0.127   6.604
19613SOL    HW160671  14.701   0.189   6.612
19613SOL    HW260672  14.668   0.041   6.615
19614SOL     OW60673   8.585   5.215   0.809
19614SOL    HW160674   8.592   5.147   0.876
19614SOL    HW260675   8.554   5.168   0.731
19615SOL     OW60676   7.827   8.256  10.898
19615SOL    HW160677   7.776   8.282  10.821
19615SOL    HW260678   7.777   8.184  10.937
19616SOL     OW60679  13.384   1.429  13.948
19616SOL    HW160680  13.426   1.383  13.875
19616SOL    HW260681  13.456   1.476  13.990
19617SOL     OW60682   8.789   7.813  12.474
19617SOL    HW160683   8.750   7.781  12.393
19617SOL    HW260684   8.762   7.905  12.478
19618SOL     OW60685   4.888   6.240   0.695
19618SOL    HW160686   4.924   6.188   0.623
19618SOL    HW260687   4.794   6.240   0.680
19619SOL     OW60688   9.636  14.099  14.331
19619SOL    HW160689   9.570  14.157  14.292
19619SOL    HW260690   9.597  14.071  14.414
19620SOL     OW60691  10.283   2.850  13.482
19620SOL    HW160692  10.195   2.880  13.460
19620SOL    HW260693  10.328   2.928  13.512
19621SOL     OW60694   7.989  10.584   3.083
19621SOL    HW160695   8.000  10.637   3.005
19621SOL    HW260696   7.994  10.494   3.052
19622SOL     OW60697  12.476  12.669  14.564
19622SOL    HW160698  12.455  12.641  14.475
19622SOL    HW260699  12.464  12.590  14.618
19623SOL     OW60700  10.151   4.777   9.517
19623SOL    HW160701  10.226   4.743   9.567
19623SOL    HW260702  10.188   4.801   9.432
19624SOL     OW60703  11.520   9.759   3.107
19624SOL    HW160704  11.463   9.836   3.100
19624SOL    HW260705  11.589   9.786   3.168
19625SOL     OW60706   0.434   4.195   1.959
19625SOL    HW160707   0.397   4.131   2.020
19625SOL    HW260708   0.410   4.280   1.995
19626SOL     OW60709   5.806   3.992   4.966
19626SOL    HW160710   5.770   3.992   4.877
19626SOL    HW260711   5.837   4.081   4.980
19627SOL     OW60712   2.394   3.583  14.548
19627SOL    HW160713   2.314   3.599  14.499
19627SOL    HW260714   2.377   3.621  14.635
19628SOL     OW60715   5.738   6.207   6.144
19628SOL    HW160716   5.761   6.138   6.206
19628SOL    HW260717   5.721   6.161   6.062
19629SOL     OW60718  10.809   6.429   3.736
19629SOL    HW160719  10.769   6.431   3.823
19629SOL    HW260720  10.830   6.520   3.716
19630SOL     OW60721  12.508  11.320   8.541
19630SOL    HW160722  12.421  11.279   8.544
19630SOL    HW260723  12.514  11.355   8.452
19631SOL     OW60724   6.849   9.109   9.125
19631SOL    HW160725   6.754   9.107   9.130
19631SOL    HW260726   6.878   9.038   9.182
19632SOL     OW60727   3.390   0.177  13.246
19632SOL    HW160728   3.456   0.159  13.313
19632SOL    HW260729   3.433   0.156  13.163
19633SOL     OW60730   0.853   7.574   4.386
19633SOL    HW160731   0.918   7.563   4.317
19633SOL    HW260732   0.889   7.526   4.461
19634SOL     OW60733   4.726  12.158  10.246
19634SOL    HW160734   4.735  12.230  10.308
19634SOL    HW260735   4.678  12.091  10.295
19635SOL     OW60736  12.014   2.478  13.674
19635SOL    HW160737  11.989   2.421  13.601
19635SOL    HW260738  12.104   2.452  13.695
19636SOL     OW60739   1.319   2.623   7.459
19636SOL    HW160740   1.255   2.601   7.527
19636SOL    HW260741   1.329   2.718   7.465
19637SOL     OW60742   1.538  12.095   3.812
19637SOL    HW160743   1.585  12.029   3.862
19637SOL    HW260744   1.535  12.171   3.870
19638SOL     OW60745   3.538  12.128  13.738
19638SOL    HW160746   3.507  12.040  13.760
19638SOL    HW260747   3.593  12.153  13.813
19639SOL     OW60748   2.005   6.525   9.141
19639SOL    HW160749   1.932   6.488   9.091
19639SOL    HW260750   2.020   6.463   9.212
19640SOL     OW60751   3.317  13.567   0.062
19640SOL    HW160752   3.411  13.588   0.058
19640SOL    HW260753   3.313  13.489   0.117
19641SOL     OW60754   7.380  13.971   9.785
19641SOL    HW160755   7.432  14.050   9.803
19641SOL    HW260756   7.306  13.978   9.845
19642SOL     OW60757   7.755   2.768   6.269
19642SOL    HW160758   7.807   2.689   6.286
19642SOL    HW260759   7.668   2.747   6.302
19643SOL     OW60760   1.561   1.106   7.771
19643SOL    HW160761   1.525   1.027   7.731
19643SOL    HW260762   1.560   1.171   7.701
19644SOL     OW60763   2.316   0.088   0.910
19644SOL    HW160764   2.289   0.178   0.891
19644SOL    HW260765   2.343   0.053   0.825
19645SOL     OW60766   2.346  11.595   6.735
19645SOL    HW160767   2.323  11.527   6.798
19645SOL    HW260768   2.431  11.568   6.700
19646SOL     OW60769   9.405   2.364   8.163
19646SOL    HW160770   9.377   2.349   8.072
19646SOL    HW260771   9.484   2.417   8.155
19647SOL     OW60772  14.502   3.013  10.689
19647SOL    HW160773  14.560   3.000  10.614
19647SOL    HW260774  14.558   2.998  10.765
19648SOL     OW60775   4.981   7.233  13.267
19648SOL    HW160776   5.037   7.180  13.324
19648SOL    HW260777   4.999   7.201  13.179
19649SOL     OW60778   4.981   2.720   9.966
19649SOL    HW160779   5.010   2.785  10.029
19649SOL    HW260780   4.890   2.743   9.949
19650SOL     OW60781   6.921   4.651   5.991
19650SOL    HW160782   6.893   4.707   6.063
19650SOL    HW260783   6.957   4.712   5.926
19651SOL     OW60784   0.641   9.833   2.513
19651SOL    HW160785   0.620   9.925   2.495
19651SOL    HW260786   0.733   9.835   2.540
19652SOL     OW60787   0.810   3.107   3.270
19652SOL    HW160788   0.785   3.169   3.202
19652SOL    HW260789   0.859   3.160   3.334
19653SOL     OW60790   9.955   4.536   2.315
19653SOL    HW160791   9.959   4.443   2.335
19653SOL    HW260792   9.872   4.565   2.352
19654SOL     OW60793   4.500  13.753   1.921
19654SOL    HW160794   4.414  13.718   1.895
19654SOL    HW260795   4.491  13.769   2.015
19655SOL     OW60796  12.607   2.195  11.118
19655SOL    HW160797  12.609   2.290  11.103
19655SOL    HW260798  12.689   2.163  11.081
19656SOL     OW60799   7.855   3.634   0.014
19656SOL    HW160800   7.921   3.702   0.001
19656SOL    HW260801   7.889   3.558  14.851
19657SOL     OW60802  13.804   5.284   2.497
19657SOL    HW160803  13.727   5.251   2.451
19657SOL    HW260804  13.768   5.329   2.574
19658SOL     OW60805  13.597  13.569  14.087
19658SOL    HW160806  13.582  13.573  14.181
19658SOL    HW260807  13.522  13.519  14.053
19659SOL     OW60808  14.068   6.013   3.125
19659SOL    HW160809  14.157   6.035   3.154
19659SOL    HW260810  14.077   5.998   3.031
19660SOL     OW60811   2.414  11.636  14.690
19660SOL    HW160812   2.347  11.624  14.758
19660SOL    HW260813   2.482  11.572  14.713
19661SOL     OW60814  14.504   6.491   4.341
19661SOL    HW160815  14.538   6.579   4.330
19661SOL    HW260816  14.567   6.448   4.400
19662SOL     OW60817   5.276   9.749  12.378
19662SOL    HW160818   5.214   9.740  12.450
19662SOL    HW260819   5.223   9.778  12.303
19663SOL     OW60820   2.498   6.068  12.012
19663SOL    HW160821   2.485   6.162  11.999
19663SOL    HW260822   2.467   6.029  11.930
19664SOL     OW60823   9.395   2.484   3.166
19664SOL    HW160824   9.345   2.403   3.158
19664SOL    HW260825   9.482   2.461   3.132
19665SOL     OW60826   4.866  12.555   9.564
19665SOL    HW160827   4.854  12.587   9.653
19665SOL    HW260828   4.781  12.565   9.522
19666SOL     OW60829   8.862   9.693   0.578
19666SOL    HW160830   8.954   9.707   0.600
19666SOL    HW260831   8.824   9.653   0.655
19667SOL     OW60832  12.629   1.443  12.003
19667SOL    HW160833  12.721   1.455  11.981
19667SOL    HW260834  12.585   1.518  11.962
19668SOL     OW60835   7.973  12.249  12.984
19668SOL    HW160836   8.011  12.281  12.903
19668SOL    HW260837   7.967  12.326  13.041
19669SOL     OW60838   6.992  14.237   6.445
19669SOL    HW160839   7.028  14.165   6.498
19669SOL    HW260840   7.045  14.238   6.366
19670SOL     OW60841   7.174  12.263   6.529
19670SOL    HW160842   7.243  12.218   6.577
19670SOL    HW260843   7.220  12.319   6.467
19671SOL     OW60844   3.938   6.557   9.921
19671SOL    HW160845   4.019   6.593   9.885
19671SOL    HW260846   3.922   6.478   9.869
19672SOL     OW60847  12.958   5.631   3.841
19672SOL    HW160848  12.872   5.646   3.801
19672SOL    HW260849  13.002   5.716   3.834
19673SOL     OW60850   5.741   8.898  13.490
19673SOL    HW160851   5.821   8.884  13.438
19673SOL    HW260852   5.773   8.922  13.577
19674SOL     OW60853  10.932  12.804   8.525
19674SOL    HW160854  10.947  12.828   8.617
19674SOL    HW260855  10.847  12.760   8.526
19675SOL     OW60856   5.089   7.451   7.703
19675SOL    HW160857   5.047   7.514   7.644
19675SOL    HW260858   5.016   7.398   7.736
19676SOL     OW60859   4.869  12.334  12.423
19676SOL    HW160860   4.959  12.328  12.391
19676SOL    HW260861   4.876  12.315  12.517
19677SOL     OW60862   4.907   3.007   1.335
19677SOL    HW160863   4.938   3.089   1.374
19677SOL    HW260864   4.943   2.938   1.391
19678SOL     OW60865   0.565  10.335   6.136
19678SOL    HW160866   0.600  10.249   6.160
19678SOL    HW260867   0.639  10.394   6.144
19679SOL     OW60868   7.063  13.339  11.102
19679SOL    HW160869   7.049  13.380  11.017
19679SOL    HW260870   7.148  13.372  11.131
19680SOL     OW60871   4.557   9.688  10.549
19680SOL    HW160872   4.515   9.668  10.632
19680SOL    HW260873   4.647   9.711  10.573
19681SOL     OW60874  13.412   8.644   8.397
19681SOL    HW160875  13.482   8.605   8.344
19681SOL    HW260876  13.437   8.627   8.487
19682SOL     OW60877  11.192  10.233  10.199
19682SOL    HW160878  11.257  10.213  10.132
19682SOL    HW260879  11.111  10.249  10.151
19683SOL     OW60880   8.017  11.234   6.651
19683SOL    HW160881   7.994  11.295   6.581
19683SOL    HW260882   8.091  11.275   6.695
19684SOL     OW60883   4.947   4.994   1.060
19684SOL    HW160884   4.888   5.039   1.001
19684SOL    HW260885   4.974   5.061   1.123
19685SOL     OW60886  12.687   5.066   6.531
19685SOL    HW160887  12.596   5.092   6.519
19685SOL    HW260888  12.690   5.029   6.620
19686SOL     OW60889  13.922   0.425   1.804
19686SOL    HW160890  13.927   0.409   1.709
19686SOL    HW260891  13.985   0.364   1.842
19687SOL     OW60892  14.465  12.447  14.532
19687SOL    HW160893  14.521  12.518  14.499
19687SOL    HW260894  14.378  12.469  14.500
19688SOL     OW60895   8.311   9.662  11.812
19688SOL    HW160896   8.323   9.746  11.767
19688SOL    HW260897   8.306   9.686  11.905
19689SOL     OW60898   5.509   9.009   9.862
19689SOL    HW160899   5.524   9.084   9.804
19689SOL    HW260900   5.438   8.960   9.821
19690SOL     OW60901   0.982   0.327   9.563
19690SOL    HW160902   1.022   0.363   9.484
19690SOL    HW260903   1.047   0.265   9.597
19691SOL     OW60904  14.333   5.673   3.352
19691SOL    HW160905  14.344   5.580   3.374
19691SOL    HW260906  14.369   5.681   3.264
19692SOL     OW60907  10.265   5.299   5.427
19692SOL    HW160908  10.235   5.353   5.354
19692SOL    HW260909  10.331   5.241   5.389
19693SOL     OW60910   8.170  14.812  10.692
19693SOL    HW160911   8.172  14.787  10.785
19693SOL    HW260912   8.150  14.731  10.646
19694SOL     OW60913  11.121   4.048   4.879
19694SOL    HW160914  11.132   4.080   4.968
19694SOL    HW260915  11.079   4.121   4.832
19695SOL     OW60916   5.455   9.955   9.574
19695SOL    HW160917   5.398   9.907   9.634
19695SOL    HW260918   5.461  10.043   9.611
19696SOL     OW60919   0.942   1.209   5.890
19696SOL    HW160920   0.891   1.290   5.887
19696SOL    HW260921   1.015   1.228   5.949
19697SOL     OW60922  11.143   8.343  14.318
19697SOL    HW160923  11.066   8.297  14.353
19697SOL    HW260924  11.140   8.324  14.224
19698SOL     OW60925   5.335   3.881   2.284
19698SOL    HW160926   5.384   3.851   2.208
19698SOL    HW260927   5.394   3.944   2.327
19699SOL     OW60928   3.844  13.254   3.308
19699SOL    HW160929   3.930  13.217   3.289
19699SOL    HW260930   3.794  13.180   3.343
19700SOL     OW60931   2.922   8.926   2.402
19700SOL    HW160932   2.984   8.858   2.378
19700SOL    HW260933   2.874   8.944   2.322
19701SOL     OW60934  10.443   5.211   3.745
19701SOL    HW160935  10.476   5.125   3.772
19701SOL    HW260936  10.364   5.224   3.797
19702SOL     OW60937   1.323   9.100  14.165
19702SOL    HW160938   1.304   9.009  14.190
19702SOL    HW260939   1.369   9.092  14.081
19703SOL     OW60940  11.630   3.333   5.288
19703SOL    HW160941  11.597   3.315   5.377
19703SOL    HW260942  11.660   3.248   5.257
19704SOL     OW60943  14.179  11.643  13.035
19704SOL    HW160944  14.110  11.631  13.100
19704SOL    HW260945  14.255  11.597  13.071
19705SOL     OW60946   0.242   6.853   3.346
19705SOL    HW160947   0.299   6.908   3.292
19705SOL    HW260948   0.245   6.893   3.433
19706SOL     OW60949   9.046   6.473   6.014
19706SOL    HW160950   9.027   6.394   6.065
19706SOL    HW260951   9.129   6.453   5.970
19707SOL     OW60952   2.237   7.604  13.290
19707SOL    HW160953   2.295   7.642  13.225
19707SOL    HW260954   2.254   7.654  13.370
19708SOL     OW60955   2.511   2.901   8.172
19708SOL    HW160956   2.605   2.899   8.158
19708SOL    HW260957   2.497   2.843   8.247
19709SOL     OW60958   0.437   3.537   8.589
19709SOL    HW160959   0.505   3.560   8.526
19709SOL    HW260960   0.355   3.554   8.543
19710SOL     OW60961  13.146  14.393  10.526
19710SOL    HW160962  13.190  14.385  10.611
19710SOL    HW260963  13.206  14.447  10.473
19711SOL     OW60964  14.572   1.893   0.359
19711SOL    HW160965  14.597   1.977   0.320
19711SOL    HW260966  14.626   1.828   0.314
19712SOL     OW60967   6.164   9.972   5.428
19712SOL    HW160968   6.213  10.050   5.401
19712SOL    HW260969   6.202   9.948   5.512
19713SOL     OW60970  11.097   2.911   4.227
19713SOL    HW160971  11.124   2.825   4.194
19713SOL    HW260972  11.030   2.891   4.293
19714SOL     OW60973  10.273   8.842   2.738
19714SOL    HW160974  10.342   8.779   2.761
19714SOL    HW260975  10.202   8.787   2.703
19715SOL     OW60976   6.408   0.767   2.536
19715SOL    HW160977   6.336   0.721   2.493
19715SOL    HW260978   6.368   0.848   2.569
19716SOL     OW60979   2.721   8.877   8.546
19716SOL    HW160980   2.782   8.874   8.620
19716SOL    HW260981   2.671   8.796   8.553
19717SOL     OW60982   6.252   7.157  10.376
19717SOL    HW160983   6.237   7.237  10.427
19717SOL    HW260984   6.274   7.091  10.441
19718SOL     OW60985   2.417   8.325   3.868
19718SOL    HW160986   2.411   8.277   3.786
19718SOL    HW260987   2.350   8.394   3.860
19719SOL     OW60988   1.812   4.884   8.476
19719SOL    HW160989   1.754   4.886   8.400
19719SOL    HW260990   1.878   4.817   8.455
19720SOL     OW60991  14.151   2.935  14.525
19720SOL    HW160992  14.235   2.893  14.540
19720SOL    HW260993  14.111   2.941  14.612
19721SOL     OW60994   5.485   0.933  13.294
19721SOL    HW160995   5.419   0.955  13.360
19721SOL    HW260996   5.477   1.002  13.228
19722SOL     OW60997   7.196   9.198  11.099
19722SOL    HW160998   7.192   9.246  11.016
19722SOL    HW260999   7.241   9.258  11.159
19723SOL     OW61000   9.858  11.255   7.227
19723SOL    HW161001   9.942  11.211   7.215
19723SOL    HW261002   9.868  11.305   7.308
19724SOL     OW61003  10.480   1.777  13.796
19724SOL    HW161004  10.397   1.777  13.842
19724SOL    HW261005  10.509   1.685  13.799
19725SOL     OW61006  13.541  14.447   1.990
19725SOL    HW161007  13.478  14.517   2.004
19725SOL    HW261008  13.504  14.396   1.917
19726SOL     OW61009   5.237  13.686   1.987
19726SOL    HW161010   5.239  13.628   2.064
19726SOL    HW261011   5.147  13.718   1.983
19727SOL     OW61012   4.930  11.499   3.216
19727SOL    HW161013   4.972  11.419   3.249
19727SOL    HW261014   4.925  11.486   3.121
19728SOL     OW61015  12.126   5.998   0.314
19728SOL    HW161016  12.062   6.066   0.335
19728SOL    HW261017  12.206   6.025   0.358
19729SOL     OW61018  10.601   2.341   6.642
19729SOL    HW161019  10.574   2.336   6.734
19729SOL    HW261020  10.530   2.389   6.600
19730SOL     OW61021   6.527  10.237   8.000
19730SOL    HW161022   6.572  10.313   8.036
19730SOL    HW261023   6.491  10.192   8.077
19731SOL     OW61024   5.892  12.495   1.544
19731SOL    HW161025   5.962  12.435   1.519
19731SOL    HW261026   5.927  12.582   1.524
19732SOL     OW61027  14.877  12.541  10.119
19732SOL    HW161028   0.005  12.635  10.109
19732SOL    HW261029   0.073  12.504  10.077
19733SOL     OW61030  10.808   8.126  12.060
19733SOL    HW161031  10.798   8.038  12.024
19733SOL    HW261032  10.901   8.144  12.052
19734SOL     OW61033  10.021   6.396   0.710
19734SOL    HW161034   9.941   6.436   0.743
19734SOL    HW261035  10.081   6.398   0.784
19735SOL     OW61036   0.594   5.555   1.521
19735SOL    HW161037   0.567   5.622   1.584
19735SOL    HW261038   0.521   5.493   1.520
19736SOL     OW61039   7.389  13.356   9.199
19736SOL    HW161040   7.408  13.269   9.235
19736SOL    HW261041   7.475  13.393   9.180
19737SOL     OW61042  14.621   3.118  12.329
19737SOL    HW161043  14.686   3.187  12.342
19737SOL    HW261044  14.609   3.078  12.415
19738SOL     OW61045  14.131  14.238   3.091
19738SOL    HW161046  14.048  14.281   3.070
19738SOL    HW261047  14.116  14.198   3.177
19739SOL     OW61048  14.468   7.726   8.020
19739SOL    HW161049  14.422   7.643   8.030
19739SOL    HW261050  14.477   7.759   8.109
19740SOL     OW61051   2.035   6.081   6.366
19740SOL    HW161052   2.061   6.163   6.325
19740SOL    HW261053   1.958   6.052   6.318
19741SOL     OW61054   3.560  12.476   3.354
19741SOL    HW161055   3.611  12.525   3.418
19741SOL    HW261056   3.539  12.540   3.286
19742SOL     OW61057   8.499  11.229  14.658
19742SOL    HW161058   8.577  11.239  14.713
19742SOL    HW261059   8.462  11.317  14.652
19743SOL     OW61060   6.761   0.370  14.048
19743SOL    HW161061   6.775   0.335  14.135
19743SOL    HW261062   6.683   0.325  14.016
19744SOL     OW61063   9.296   9.452   5.968
19744SOL    HW161064   9.369   9.391   5.957
19744SOL    HW261065   9.297   9.505   5.888
19745SOL     OW61066   4.846  11.325  13.496
19745SOL    HW161067   4.764  11.337  13.449
19745SOL    HW261068   4.881  11.243  13.464
19746SOL     OW61069   9.232   0.183   5.259
19746SOL    HW161070   9.220   0.277   5.273
19746SOL    HW261071   9.158   0.157   5.204
19747SOL     OW61072   0.434   4.640   5.424
19747SOL    HW161073   0.374   4.595   5.365
19747SOL    HW261074   0.377   4.682   5.489
19748SOL     OW61075  10.283   3.564   0.104
19748SOL    HW161076  10.342   3.613   0.046
19748SOL    HW261077  10.275   3.619   0.182
19749SOL     OW61078  13.901  13.219  11.120
19749SOL    HW161079  13.900  13.225  11.215
19749SOL    HW261080  13.992  13.233  11.096
19750SOL     OW61081  12.948   0.944   5.937
19750SOL    HW161082  13.005   0.911   5.868
19750SOL    HW261083  12.867   0.970   5.893
19751SOL     OW61084   0.399  14.168   6.435
19751SOL    HW161085   0.366  14.211   6.513
19751SOL    HW261086   0.402  14.237   6.368
19752SOL     OW61087   0.158   1.633   7.262
19752SOL    HW161088   0.189   1.664   7.347
19752SOL    HW261089   0.209   1.683   7.198
19753SOL     OW61090   2.720   7.053  12.058
19753SOL    HW161091   2.632   7.053  12.019
19753SOL    HW261092   2.708   7.015  12.145
19754SOL     OW61093   0.375   0.666  12.774
19754SOL    HW161094   0.364   0.761  12.773
19754SOL    HW261095   0.445   0.650  12.837
19755SOL     OW61096  10.782   3.132  12.824
19755SOL    HW161097  10.688   3.150  12.815
19755SOL    HW261098  10.800   3.062  12.761
19756SOL     OW61099   3.083   2.892  13.702
19756SOL    HW161100   3.005   2.938  13.734
19756SOL    HW261101   3.054   2.846  13.624
19757SOL     OW61102  10.059   8.647  11.719
19757SOL    HW161103   9.982   8.703  11.730
19757SOL    HW261104  10.098   8.642  11.806
19758SOL     OW61105   7.055  14.435  10.434
19758SOL    HW161106   7.034  14.528  10.440
19758SOL    HW261107   7.150  14.432  10.433
19759SOL     OW61108   5.141   4.171   4.931
19759SOL    HW161109   5.066   4.150   4.987
19759SOL    HW261110   5.150   4.266   4.938
19760SOL     OW61111   7.472   7.150   0.050
19760SOL    HW161112   7.531   7.075   0.051
19760SOL    HW261113   7.387   7.116   0.078
19761SOL     OW61114  13.895  12.967   8.947
19761SOL    HW161115  13.823  13.030   8.948
19761SOL    HW261116  13.868  12.897   9.006
19762SOL     OW61117  10.854   4.976   1.812
19762SOL    HW161118  10.827   4.884   1.807
19762SOL    HW261119  10.785   5.019   1.861
19763SOL     OW61120  12.518   2.399   1.824
19763SOL    HW161121  12.445   2.365   1.773
19763SOL    HW261122  12.480   2.421   1.909
19764SOL     OW61123   6.859  10.184  11.906
19764SOL    HW161124   6.787  10.242  11.882
19764SOL    HW261125   6.843  10.104  11.857
19765SOL     OW61126   8.379  12.268   1.187
19765SOL    HW161127   8.448  12.290   1.250
19765SOL    HW261128   8.414  12.293   1.102
19766SOL     OW61129  10.830  13.451   3.133
19766SOL    HW161130  10.797  13.510   3.065
19766SOL    HW261131  10.853  13.508   3.206
19767SOL     OW61132   1.422  12.853  13.822
19767SOL    HW161133   1.514  12.834  13.803
19767SOL    HW261134   1.411  12.830  13.914
19768SOL     OW61135   9.822  14.406   5.849
19768SOL    HW161136   9.828  14.491   5.806
19768SOL    HW261137   9.729  14.396   5.869
19769SOL     OW61138   1.321  12.706  14.331
19769SOL    HW161139   1.389  12.691  14.397
19769SOL    HW261140   1.249  12.745  14.379
19770SOL     OW61141   3.612   7.966   8.769
19770SOL    HW161142   3.623   8.003   8.681
19770SOL    HW261143   3.524   7.927   8.767
19771SOL     OW61144   7.756   1.025  13.321
19771SOL    HW161145   7.750   0.949  13.264
19771SOL    HW261146   7.666   1.041  13.349
19772SOL     OW61147   7.483   0.586   8.788
19772SOL    HW161148   7.449   0.500   8.761
19772SOL    HW261149   7.406   0.641   8.797
19773SOL     OW61150   3.065  10.810   0.365
19773SOL    HW161151   3.080  10.862   0.286
19773SOL    HW261152   2.995  10.749   0.340
19774SOL     OW61153   6.718  10.884  11.642
19774SOL    HW161154   6.767  10.953  11.686
19774SOL    HW261155   6.783  10.839  11.588
19775SOL     OW61156   2.566  10.714   3.424
19775SOL    HW161157   2.502  10.661   3.377
19775SOL    HW261158   2.649  10.699   3.377
19776SOL     OW61159   3.382   6.125   4.296
19776SOL    HW161160   3.428   6.053   4.253
19776SOL    HW261161   3.420   6.204   4.257
19777SOL     OW61162   4.932   9.469  10.636
19777SOL    HW161163   4.848   9.486  10.677
19777SOL    HW261164   4.920   9.495  10.544
19778SOL     OW61165  13.457  14.274   8.267
19778SOL    HW161166  13.453  14.311   8.179
19778SOL    HW261167  13.368  14.283   8.301
19779SOL     OW61168  10.458  13.670   9.863
19779SOL    HW161169  10.482  13.680   9.771
19779SOL    HW261170  10.389  13.604   9.862
19780SOL     OW61171   9.640   2.018   1.734
19780SOL    HW161172   9.587   1.941   1.713
19780SOL    HW261173   9.607   2.087   1.677
19781SOL     OW61174   0.546  12.757   4.117
19781SOL    HW161175   0.588  12.812   4.183
19781SOL    HW261176   0.579  12.669   4.135
19782SOL     OW61177   4.478  12.942   8.898
19782SOL    HW161178   4.500  12.961   8.989
19782SOL    HW261179   4.547  12.984   8.847
19783SOL     OW61180   2.340   8.439  13.579
19783SOL    HW161181   2.340   8.535  13.573
19783SOL    HW261182   2.408   8.411  13.517
19784SOL     OW61183   9.617   0.532   1.023
19784SOL    HW161184   9.673   0.581   1.084
19784SOL    HW261185   9.613   0.587   0.945
19785SOL     OW61186  11.817   2.808   1.228
19785SOL    HW161187  11.885   2.817   1.162
19785SOL    HW261188  11.804   2.897   1.261
19786SOL     OW61189   7.719   7.936   4.819
19786SOL    HW161190   7.792   7.957   4.877
19786SOL    HW261191   7.755   7.945   4.731
19787SOL     OW61192   9.260  13.785  12.690
19787SOL    HW161193   9.322  13.792  12.617
19787SOL    HW261194   9.233  13.875  12.707
19788SOL     OW61195   8.276   0.808   2.765
19788SOL    HW161196   8.197   0.784   2.717
19788SOL    HW261197   8.272   0.903   2.774
19789SOL     OW61198   7.183  11.432   7.097
19789SOL    HW161199   7.266  11.476   7.076
19789SOL    HW261200   7.123  11.461   7.028
19790SOL     OW61201   2.760   3.059   7.842
19790SOL    HW161202   2.755   3.022   7.930
19790SOL    HW261203   2.843   3.025   7.807
19791SOL     OW61204  13.580  11.195  11.304
19791SOL    HW161205  13.651  11.164  11.248
19791SOL    HW261206  13.500  11.163  11.261
19792SOL     OW61207   7.561  13.596  13.156
19792SOL    HW161208   7.484  13.558  13.114
19792SOL    HW261209   7.621  13.523  13.168
19793SOL     OW61210   6.869  11.241   5.916
19793SOL    HW161211   6.895  11.234   6.008
19793SOL    HW261212   6.905  11.324   5.887
19794SOL     OW61213  12.907   0.710   9.465
19794SOL    HW161214  12.954   0.627   9.453
19794SOL    HW261215  12.863   0.700   9.550
19795SOL     OW61216   5.252   3.660   5.114
19795SOL    HW161217   5.203   3.704   5.044
19795SOL    HW261218   5.194   3.666   5.190
19796SOL     OW61219  11.527   2.625   5.630
19796SOL    HW161220  11.519   2.530   5.621
19796SOL    HW261221  11.621   2.639   5.646
19797SOL     OW61222   9.306   1.378   3.255
19797SOL    HW161223   9.347   1.453   3.213
19797SOL    HW261224   9.219   1.372   3.215
19798SOL     OW61225   6.728   4.399   0.976
19798SOL    HW161226   6.813   4.436   0.998
19798SOL    HW261227   6.726   4.397   0.880
19799SOL     OW61228  11.739   3.884   9.830
19799SOL    HW161229  11.717   3.959   9.775
19799SOL    HW261230  11.835   3.881   9.829
19800SOL     OW61231   7.065   4.301  13.789
19800SOL    HW161232   6.991   4.294  13.729
19800SOL    HW261233   7.096   4.210  13.798
19801SOL     OW61234  10.069  12.191   1.544
19801SOL    HW161235  10.099  12.180   1.454
19801SOL    HW261236   9.982  12.153   1.545
19802SOL     OW61237   9.210   9.439   0.332
19802SOL    HW161238   9.142   9.375   0.354
19802SOL    HW261239   9.162   9.518   0.308
19803SOL     OW61240   9.578   0.338   5.736
19803SOL    HW161241   9.666   0.308   5.760
19803SOL    HW261242   9.519   0.291   5.794
19804SOL     OW61243   7.417   3.032  11.712
19804SOL    HW161244   7.442   3.088  11.639
19804SOL    HW261245   7.501   2.997  11.744
19805SOL     OW61246   5.088  11.319   5.421
19805SOL    HW161247   5.116  11.250   5.360
19805SOL    HW261248   5.027  11.372   5.369
19806SOL     OW61249   1.645   3.395  11.127
19806SOL    HW161250   1.626   3.397  11.034
19806SOL    HW261251   1.559   3.389  11.169
19807SOL     OW61252  13.674  13.086   0.944
19807SOL    HW161253  13.727  13.039   0.879
19807SOL    HW261254  13.647  13.018   1.006
19808SOL     OW61255  11.844   1.041   1.846
19808SOL    HW161256  11.828   1.105   1.915
19808SOL    HW261257  11.915   0.986   1.880
19809SOL     OW61258   2.969   2.093  13.101
19809SOL    HW161259   2.897   2.108  13.162
19809SOL    HW261260   2.940   2.134  13.019
19810SOL     OW61261  11.058  10.234   0.213
19810SOL    HW161262  10.982  10.215   0.267
19810SOL    HW261263  11.079  10.325   0.231
19811SOL     OW61264  14.524   4.088  11.081
19811SOL    HW161265  14.583   4.163  11.089
19811SOL    HW261266  14.549   4.031  11.154
19812SOL     OW61267   8.401   5.022   7.413
19812SOL    HW161268   8.402   5.109   7.452
19812SOL    HW261269   8.470   4.974   7.459
19813SOL     OW61270   1.840   2.285   6.987
19813SOL    HW161271   1.871   2.376   6.993
19813SOL    HW261272   1.829   2.270   6.893
19814SOL     OW61273  11.933   5.445   0.073
19814SOL    HW161274  11.947   5.395   0.153
19814SOL    HW261275  11.857   5.404   0.032
19815SOL     OW61276   6.004  10.474   7.404
19815SOL    HW161277   6.017  10.399   7.345
19815SOL    HW261278   6.090  10.515   7.409
19816SOL     OW61279   5.347   7.596   1.669
19816SOL    HW161280   5.352   7.680   1.623
19816SOL    HW261281   5.416   7.543   1.630
19817SOL     OW61282  10.201   0.864   2.785
19817SOL    HW161283  10.192   0.950   2.824
19817SOL    HW261284  10.276   0.824   2.829
19818SOL     OW61285   1.112   8.456   3.398
19818SOL    HW161286   1.044   8.493   3.341
19818SOL    HW261287   1.167   8.403   3.339
19819SOL     OW61288   1.898  11.607   4.991
19819SOL    HW161289   1.984  11.649   4.986
19819SOL    HW261290   1.867  11.606   4.900
19820SOL     OW61291   7.315   3.261   0.079
19820SOL    HW161292   7.387   3.324   0.084
19820SOL    HW261293   7.247   3.307   0.030
19821SOL     OW61294   7.777   7.073  12.593
19821SOL    HW161295   7.694   7.031  12.569
19821SOL    HW261296   7.844   7.008  12.570
19822SOL     OW61297   9.253   5.684   1.363
19822SOL    HW161298   9.313   5.611   1.350
19822SOL    HW261299   9.306   5.762   1.346
19823SOL     OW61300   7.346  13.867   8.904
19823SOL    HW161301   7.266  13.915   8.925
19823SOL    HW261302   7.318  13.776   8.900
19824SOL     OW61303  14.491  11.861  13.448
19824SOL    HW161304  14.575  11.845  13.490
19824SOL    HW261305  14.497  11.813  13.365
19825SOL     OW61306  12.269   8.786  10.043
19825SOL    HW161307  12.235   8.848  10.107
19825SOL    HW261308  12.237   8.820   9.959
19826SOL     OW61309  13.287  11.527   8.883
19826SOL    HW161310  13.248  11.535   8.796
19826SOL    HW261311  13.227  11.574   8.941
19827SOL     OW61312   4.850   8.848  12.202
19827SOL    HW161313   4.868   8.883  12.115
19827SOL    HW261314   4.866   8.754  12.194
19828SOL     OW61315  12.844  13.141  10.877
19828SOL    HW161316  12.801  13.215  10.920
19828SOL    HW261317  12.926  13.177  10.843
19829SOL     OW61318  10.301   1.143   4.621
19829SOL    HW161319  10.349   1.071   4.661
19829SOL    HW261320  10.235   1.101   4.567
19830SOL     OW61321   7.501   0.802  14.469
19830SOL    HW161322   7.446   0.809  14.391
19830SOL    HW261323   7.471   0.722  14.513
19831SOL     OW61324   8.803   4.819  10.397
19831SOL    HW161325   8.717   4.853  10.421
19831SOL    HW261326   8.821   4.858  10.311
19832SOL     OW61327   1.311  10.506  11.129
19832SOL    HW161328   1.274  10.422  11.103
19832SOL    HW261329   1.370  10.486  11.202
19833SOL     OW61330   9.022   1.879   8.430
19833SOL    HW161331   8.980   1.851   8.348
19833SOL    HW261332   9.035   1.973   8.420
19834SOL     OW61333   6.045  11.769  10.495
19834SOL    HW161334   6.107  11.821  10.546
19834SOL    HW261335   6.070  11.678  10.509
19835SOL     OW61336  12.602   0.647  13.155
19835SOL    HW161337  12.686   0.656  13.109
19835SOL    HW261338  12.536   0.671  13.089
19836SOL     OW61339  11.480   2.222  14.440
19836SOL    HW161340  11.412   2.249  14.501
19836SOL    HW261341  11.433   2.202  14.359
19837SOL     OW61342  11.764   7.056   4.101
19837SOL    HW161343  11.691   7.019   4.051
19837SOL    HW261344  11.828   7.082   4.034
19838SOL     OW61345   3.837   5.355   3.153
19838SOL    HW161346   3.768   5.399   3.103
19838SOL    HW261347   3.862   5.418   3.220
19839SOL     OW61348   5.906  11.571   3.858
19839SOL    HW161349   5.887  11.528   3.774
19839SOL    HW261350   5.904  11.665   3.837
19840SOL     OW61351   7.449   4.738  13.251
19840SOL    HW161352   7.510   4.808  13.226
19840SOL    HW261353   7.496   4.657  13.229
19841SOL     OW61354  12.772  14.043   8.779
19841SOL    HW161355  12.730  14.005   8.856
19841SOL    HW261356  12.714  14.115   8.753
19842SOL     OW61357  12.064  13.256  11.085
19842SOL    HW161358  12.151  13.263  11.124
19842SOL    HW261359  12.054  13.336  11.034
19843SOL     OW61360   9.905  12.890   8.185
19843SOL    HW161361   9.907  12.931   8.271
19843SOL    HW261362   9.880  12.800   8.202
19844SOL     OW61363   3.404   8.916  14.627
19844SOL    HW161364   3.460   8.870  14.690
19844SOL    HW261365   3.325   8.862  14.622
19845SOL     OW61366  13.154  12.776  10.312
19845SOL    HW161367  13.172  12.819  10.229
19845SOL    HW261368  13.100  12.700  10.288
19846SOL     OW61369   7.284  13.659   1.696
19846SOL    HW161370   7.260  13.669   1.604
19846SOL    HW261371   7.364  13.710   1.706
19847SOL     OW61372   6.996   8.319   8.850
19847SOL    HW161373   7.022   8.364   8.770
19847SOL    HW261374   6.948   8.241   8.819
19848SOL     OW61375  14.527   7.412   8.764
19848SOL    HW161376  14.439   7.404   8.801
19848SOL    HW261377  14.528   7.349   8.692
19849SOL     OW61378   6.811   9.950  11.763
19849SOL    HW161379   6.717   9.960  11.744
19849SOL    HW261380   6.843   9.891  11.696
19850SOL     OW61381   3.613   0.191   4.979
19850SOL    HW161382   3.639   0.108   5.019
19850SOL    HW261383   3.588   0.167   4.890
19851SOL     OW61384  11.253   4.154  12.047
19851SOL    HW161385  11.283   4.216  11.980
19851SOL    HW261386  11.332   4.105  12.071
19852SOL     OW61387  12.044   3.824   6.071
19852SOL    HW161388  11.963   3.875   6.065
19852SOL    HW261389  12.022   3.739   6.033
19853SOL     OW61390   2.911  13.116  13.103
19853SOL    HW161391   2.945  13.183  13.161
19853SOL    HW261392   2.956  13.130  13.020
19854SOL     OW61393   8.414  11.111   8.306
19854SOL    HW161394   8.376  11.025   8.324
19854SOL    HW261395   8.505  11.104   8.334
19855SOL     OW61396   8.211   8.193  13.769
19855SOL    HW161397   8.256   8.142  13.702
19855SOL    HW261398   8.218   8.283  13.739
19856SOL     OW61399   0.353   2.789   9.212
19856SOL    HW161400   0.298   2.717   9.244
19856SOL    HW261401   0.376   2.839   9.290
19857SOL     OW61402  13.986   0.522  13.155
19857SOL    HW161403  13.973   0.427  13.158
19857SOL    HW261404  14.052   0.540  13.222
19858SOL     OW61405   5.296  14.694  10.579
19858SOL    HW161406   5.351  14.624  10.615
19858SOL    HW261407   5.250  14.729  10.656
19859SOL     OW61408   8.519   6.973   2.598
19859SOL    HW161409   8.474   7.058   2.602
19859SOL    HW261410   8.480   6.922   2.669
19860SOL     OW61411  13.837   3.301   0.957
19860SOL    HW161412  13.833   3.215   0.915
19860SOL    HW261413  13.864   3.360   0.887
19861SOL     OW61414   4.402   1.803  14.148
19861SOL    HW161415   4.366   1.891  14.157
19861SOL    HW261416   4.427   1.778  14.237
19862SOL     OW61417   0.298   1.986   2.375
19862SOL    HW161418   0.223   2.019   2.425
19862SOL    HW261419   0.258   1.935   2.304
19863SOL     OW61420   7.306  12.684  13.981
19863SOL    HW161421   7.353  12.708  14.061
19863SOL    HW261422   7.260  12.603  14.004
19864SOL     OW61423  12.032   5.307   2.624
19864SOL    HW161424  12.080   5.232   2.660
19864SOL    HW261425  12.068   5.318   2.536
19865SOL     OW61426   4.793   2.890   5.448
19865SOL    HW161427   4.759   2.930   5.528
19865SOL    HW261428   4.884   2.871   5.468
19866SOL     OW61429   8.713   0.605   7.783
19866SOL    HW161430   8.723   0.511   7.798
19866SOL    HW261431   8.692   0.641   7.870
19867SOL     OW61432   2.128   8.535  12.395
19867SOL    HW161433   2.033   8.534  12.390
19867SOL    HW261434   2.157   8.498  12.312
19868SOL     OW61435  12.160   4.255   2.343
19868SOL    HW161436  12.162   4.283   2.434
19868SOL    HW261437  12.125   4.330   2.295
19869SOL     OW61438   4.275  10.142   4.420
19869SOL    HW161439   4.370  10.141   4.406
19869SOL    HW261440   4.261  10.212   4.483
19870SOL     OW61441   8.521   7.451   3.900
19870SOL    HW161442   8.545   7.360   3.883
19870SOL    HW261443   8.425   7.450   3.906
19871SOL     OW61444  14.500   3.752   9.672
19871SOL    HW161445  14.440   3.693   9.718
19871SOL    HW261446  14.579   3.754   9.727
19872SOL     OW61447  11.346  11.926   4.559
19872SOL    HW161448  11.383  11.929   4.471
19872SOL    HW261449  11.302  11.840   4.564
19873SOL     OW61450   1.089  14.129   1.657
19873SOL    HW161451   1.035  14.086   1.723
19873SOL    HW261452   1.079  14.223   1.675
19874SOL     OW61453   9.879   4.007   9.571
19874SOL    HW161454   9.895   3.985   9.662
19874SOL    HW261455   9.789   4.039   9.569
19875SOL     OW61456   1.899  12.622   4.129
19875SOL    HW161457   1.986  12.584   4.141
19875SOL    HW261458   1.910  12.688   4.061
19876SOL     OW61459   2.455  12.018  10.274
19876SOL    HW161460   2.419  11.933  10.301
19876SOL    HW261461   2.541  12.022  10.316
19877SOL     OW61462   8.219   8.448   2.652
19877SOL    HW161463   8.187   8.359   2.666
19877SOL    HW261464   8.207   8.491   2.737
19878SOL     OW61465   3.264  14.597  14.490
19878SOL    HW161466   3.195  14.541  14.453
19878SOL    HW261467   3.247  14.597  14.584
19879SOL     OW61468  11.332  14.017  11.049
19879SOL    HW161469  11.270  13.956  11.088
19879SOL    HW261470  11.278  14.076  10.997
19880SOL     OW61471   2.256  11.946   5.985
19880SOL    HW161472   2.233  11.872   5.929
19880SOL    HW261473   2.307  11.908   6.056
19881SOL     OW61474   2.884  10.078  13.012
19881SOL    HW161475   2.858  10.120  12.930
19881SOL    HW261476   2.934  10.145  13.059
19882SOL     OW61477  10.290   5.538   7.582
19882SOL    HW161478  10.339   5.476   7.636
19882SOL    HW261479  10.287   5.618   7.635
19883SOL     OW61480   4.180  10.029  14.401
19883SOL    HW161481   4.189  10.068  14.489
19883SOL    HW261482   4.261   9.981  14.389
19884SOL     OW61483  14.698   2.242   4.587
19884SOL    HW161484  14.704   2.150   4.563
19884SOL    HW261485  14.783   2.279   4.560
19885SOL     OW61486   0.644  13.093   6.588
19885SOL    HW161487   0.647  13.184   6.616
19885SOL    HW261488   0.723  13.081   6.536
19886SOL     OW61489   3.173   2.322  11.817
19886SOL    HW161490   3.152   2.384  11.887
19886SOL    HW261491   3.212   2.247  11.864
19887SOL     OW61492   3.196   7.597   8.803
19887SOL    HW161493   3.170   7.639   8.722
19887SOL    HW261494   3.244   7.518   8.776
19888SOL     OW61495   4.595   4.810  11.881
19888SOL    HW161496   4.578   4.760  11.961
19888SOL    HW261497   4.675   4.772  11.846
19889SOL     OW61498   8.736   6.361   1.378
19889SOL    HW161499   8.705   6.406   1.458
19889SOL    HW261500   8.801   6.421   1.341
19890SOL     OW61501   0.087   3.000   6.477
19890SOL    HW161502   0.026   3.049   6.423
19890SOL    HW261503   0.040   2.919   6.498
19891SOL     OW61504   9.312   8.784   6.553
19891SOL    HW161505   9.250   8.805   6.483
19891SOL    HW261506   9.285   8.837   6.627
19892SOL     OW61507   5.579   8.631  11.424
19892SOL    HW161508   5.492   8.592  11.421
19892SOL    HW261509   5.630   8.580  11.361
19893SOL     OW61510   8.615   5.942   0.251
19893SOL    HW161511   8.547   5.985   0.302
19893SOL    HW261512   8.613   5.851   0.281
19894SOL     OW61513   2.302  12.895  13.942
19894SOL    HW161514   2.238  12.956  13.979
19894SOL    HW261515   2.307  12.918  13.850
19895SOL     OW61516   2.305   0.113   3.689
19895SOL    HW161517   2.235   0.048   3.686
19895SOL    HW261518   2.348   0.107   3.604
19896SOL     OW61519  11.055   0.219  12.549
19896SOL    HW161520  11.009   0.135  12.546
19896SOL    HW261521  11.019   0.268  12.475
19897SOL     OW61522   9.965   5.630   6.954
19897SOL    HW161523   9.956   5.621   6.859
19897SOL    HW261524   9.885   5.591   6.990
19898SOL     OW61525   0.500   2.928  12.823
19898SOL    HW161526   0.587   2.897  12.848
19898SOL    HW261527   0.517   2.994  12.756
19899SOL     OW61528  11.054  12.549   7.889
19899SOL    HW161529  10.995  12.477   7.913
19899SOL    HW261530  11.122  12.507   7.836
19900SOL     OW61531   3.965   8.606   0.531
19900SOL    HW161532   3.935   8.571   0.447
19900SOL    HW261533   4.045   8.654   0.510
19901SOL     OW61534   6.331   0.909  12.600
19901SOL    HW161535   6.388   0.932  12.527
19901SOL    HW261536   6.387   0.860  12.660
19902SOL     OW61537   5.569  14.478  12.017
19902SOL    HW161538   5.624  14.541  12.065
19902SOL    HW261539   5.488  14.527  11.999
19903SOL     OW61540   5.041  14.491  12.612
19903SOL    HW161541   5.112  14.506  12.674
19903SOL    HW261542   5.058  14.552  12.540
19904SOL     OW61543  11.098  10.886   8.332
19904SOL    HW161544  11.178  10.937   8.340
19904SOL    HW261545  11.028  10.951   8.324
19905SOL     OW61546  12.472   1.352   8.094
19905SOL    HW161547  12.437   1.440   8.102
19905SOL    HW261548  12.555   1.363   8.047
19906SOL     OW61549   4.746  11.274   7.482
19906SOL    HW161550   4.680  11.296   7.417
19906SOL    HW261551   4.721  11.188   7.515
19907SOL     OW61552   1.269   8.075   3.503
19907SOL    HW161553   1.314   8.146   3.548
19907SOL    HW261554   1.332   8.003   3.502
19908SOL     OW61555   1.669   1.858  12.939
19908SOL    HW161556   1.711   1.908  12.869
19908SOL    HW261557   1.740   1.839  13.001
19909SOL     OW61558   9.723   4.636   6.084
19909SOL    HW161559   9.638   4.678   6.093
19909SOL    HW261560   9.728   4.575   6.157
19910SOL     OW61561   8.266   9.083   0.604
19910SOL    HW161562   8.270   9.158   0.664
19910SOL    HW261563   8.193   9.103   0.546
19911SOL     OW61564   3.886   6.293   1.699
19911SOL    HW161565   3.971   6.280   1.742
19911SOL    HW261566   3.822   6.257   1.760
19912SOL     OW61567   1.522   1.476   8.012
19912SOL    HW161568   1.603   1.449   7.969
19912SOL    HW261569   1.454   1.462   7.947
19913SOL     OW61570  12.886   2.539   2.513
19913SOL    HW161571  12.959   2.528   2.452
19913SOL    HW261572  12.885   2.633   2.532
19914SOL     OW61573   4.562   8.237  14.690
19914SOL    HW161574   4.512   8.289  14.753
19914SOL    HW261575   4.495   8.192  14.638
19915SOL     OW61576  11.469   7.040   8.858
19915SOL    HW161577  11.553   7.057   8.814
19915SOL    HW261578  11.489   7.046   8.951
19916SOL     OW61579   2.604   7.580   2.642
19916SOL    HW161580   2.584   7.557   2.551
19916SOL    HW261581   2.637   7.669   2.638
19917SOL     OW61582  13.381   5.837   1.799
19917SOL    HW161583  13.350   5.898   1.865
19917SOL    HW261584  13.476   5.841   1.805
19918SOL     OW61585   7.610   6.425   7.841
19918SOL    HW161586   7.666   6.475   7.782
19918SOL    HW261587   7.595   6.342   7.797
19919SOL     OW61588   7.554   1.997  11.844
19919SOL    HW161589   7.576   2.027  11.756
19919SOL    HW261590   7.629   1.943  11.871
19920SOL     OW61591   4.964  13.121   7.844
19920SOL    HW161592   5.059  13.124   7.832
19920SOL    HW261593   4.928  13.153   7.762
19921SOL     OW61594   1.085  12.403   9.357
19921SOL    HW161595   1.153  12.341   9.330
19921SOL    HW261596   1.050  12.437   9.274
19922SOL     OW61597   5.804   3.369  14.157
19922SOL    HW161598   5.728   3.316  14.178
19922SOL    HW261599   5.879   3.313  14.175
19923SOL     OW61600   1.317   4.630  12.228
19923SOL    HW161601   1.237   4.594  12.190
19923SOL    HW261602   1.288   4.706  12.278
19924SOL     OW61603   8.767  11.045  13.337
19924SOL    HW161604   8.808  11.004  13.261
19924SOL    HW261605   8.793  10.990  13.411
19925SOL     OW61606   6.641   3.164   4.437
19925SOL    HW161607   6.576   3.120   4.382
19925SOL    HW261608   6.590   3.225   4.490
19926SOL     OW61609   0.526   1.797   6.413
19926SOL    HW161610   0.498   1.872   6.360
19926SOL    HW261611   0.552   1.731   6.350
19927SOL     OW61612   0.465   6.136  11.342
19927SOL    HW161613   0.494   6.045  11.335
19927SOL    HW261614   0.496   6.178  11.262
19928SOL     OW61615  10.964  13.590   5.853
19928SOL    HW161616  11.035  13.543   5.810
19928SOL    HW261617  10.973  13.680   5.822
19929SOL     OW61618   5.087   0.808   4.121
19929SOL    HW161619   5.082   0.817   4.216
19929SOL    HW261620   5.170   0.849   4.097
19930SOL     OW61621   3.110   2.746  12.778
19930SOL    HW161622   3.200   2.735  12.746
19930SOL    HW261623   3.120   2.746  12.874
19931SOL     OW61624  10.280   1.708   7.738
19931SOL    HW161625  10.247   1.759   7.664
19931SOL    HW261626  10.237   1.623   7.731
19932SOL     OW61627   2.012   5.582   8.095
19932SOL    HW161628   2.041   5.623   8.014
19932SOL    HW261629   2.090   5.539   8.129
19933SOL     OW61630   7.040   7.766   4.639
19933SOL    HW161631   6.956   7.723   4.655
19933SOL    HW261632   7.067   7.797   4.725
19934SOL     OW61633   5.809   2.134  13.445
19934SOL    HW161634   5.828   2.099  13.358
19934SOL    HW261635   5.749   2.207  13.428
19935SOL     OW61636   7.244   3.286   3.055
19935SOL    HW161637   7.197   3.258   3.134
19935SOL    HW261638   7.246   3.208   2.999
19936SOL     OW61639   1.912   4.899  13.380
19936SOL    HW161640   1.937   4.935  13.465
19936SOL    HW261641   1.990   4.908  13.326
19937SOL     OW61642  11.899   4.476   2.304
19937SOL    HW161643  11.905   4.430   2.220
19937SOL    HW261644  11.906   4.569   2.280
19938SOL     OW61645  14.162   3.729  14.565
19938SOL    HW161646  14.177   3.635  14.575
19938SOL    HW261647  14.185   3.748  14.474
19939SOL     OW61648  12.145   9.422   7.981
19939SOL    HW161649  12.132   9.374   8.062
19939SOL    HW261650  12.112   9.363   7.913
19940SOL     OW61651  12.142   2.309   5.497
19940SOL    HW161652  12.103   2.285   5.581
19940SOL    HW261653  12.067   2.324   5.439
19941SOL     OW61654   3.562  12.327  11.522
19941SOL    HW161655   3.645  12.374  11.527
19941SOL    HW261656   3.500  12.384  11.567
19942SOL     OW61657  10.155   5.458   0.867
19942SOL    HW161658  10.236   5.468   0.817
19942SOL    HW261659  10.184   5.448   0.957
19943SOL     OW61660  14.175   6.103   3.442
19943SOL    HW161661  14.081   6.110   3.428
19943SOL    HW261662  14.197   6.179   3.496
19944SOL     OW61663  14.552   9.248   3.668
19944SOL    HW161664  14.641   9.280   3.676
19944SOL    HW261665  14.544   9.182   3.737
19945SOL     OW61666   6.035   0.394  13.233
19945SOL    HW161667   6.082   0.394  13.150
19945SOL    HW261668   6.105   0.390  13.299
19946SOL     OW61669   5.136   9.235   0.748
19946SOL    HW161670   5.060   9.241   0.690
19946SOL    HW261671   5.208   9.208   0.690
19947SOL     OW61672  13.682  10.400  14.498
19947SOL    HW161673  13.641  10.465  14.555
19947SOL    HW261674  13.774  10.400  14.524
19948SOL     OW61675  10.117   0.628  13.525
19948SOL    HW161676  10.040   0.602  13.575
19948SOL    HW261677  10.085   0.637  13.435
19949SOL     OW61678   4.502   0.486  13.303
19949SOL    HW161679   4.446   0.442  13.240
19949SOL    HW261680   4.521   0.420  13.370
19950SOL     OW61681  12.463   3.250   5.208
19950SOL    HW161682  12.381   3.248   5.159
19950SOL    HW261683  12.441   3.292   5.291
19951SOL     OW61684   0.615   3.747  11.057
19951SOL    HW161685   0.578   3.825  11.098
19951SOL    HW261686   0.645   3.777  10.971
19952SOL     OW61687   9.481  12.698   1.021
19952SOL    HW161688   9.492  12.754   0.944
19952SOL    HW261689   9.436  12.753   1.085
19953SOL     OW61690   3.690   6.941   5.787
19953SOL    HW161691   3.601   6.906   5.795
19953SOL    HW261692   3.729   6.928   5.873
19954SOL     OW61693  11.834   2.064  12.172
19954SOL    HW161694  11.820   1.975  12.205
19954SOL    HW261695  11.886   2.107  12.240
19955SOL     OW61696  11.021   0.323   1.909
19955SOL    HW161697  10.960   0.307   1.837
19955SOL    HW261698  10.998   0.259   1.976
19956SOL     OW61699  11.767  11.221  12.717
19956SOL    HW161700  11.836  11.204  12.652
19956SOL    HW261701  11.740  11.133  12.746
19957SOL     OW61702   2.369  10.075   9.594
19957SOL    HW161703   2.289  10.081   9.647
19957SOL    HW261704   2.339  10.086   9.504
19958SOL     OW61705   8.112   6.085  12.103
19958SOL    HW161706   8.138   6.154  12.043
19958SOL    HW261707   8.027   6.113  12.137
19959SOL     OW61708   0.648   6.856   7.223
19959SOL    HW161709   0.712   6.922   7.199
19959SOL    HW261710   0.700   6.780   7.249
19960SOL     OW61711  13.888  10.799   0.975
19960SOL    HW161712  13.819  10.856   1.008
19960SOL    HW261713  13.862  10.711   1.002
19961SOL     OW61714   7.487   1.216   8.330
19961SOL    HW161715   7.538   1.150   8.376
19961SOL    HW261716   7.549   1.286   8.311
19962SOL     OW61717   4.834   0.087   2.497
19962SOL    HW161718   4.859   0.088   2.590
19962SOL    HW261719   4.918   0.079   2.451
19963SOL     OW61720  14.254   7.798   6.859
19963SOL    HW161721  14.301   7.716   6.846
19963SOL    HW261722  14.310   7.848   6.919
19964SOL     OW61723   3.015   4.977   2.363
19964SOL    HW161724   2.942   4.996   2.304
19964SOL    HW261725   2.994   5.027   2.442
19965SOL     OW61726   6.087   3.434   7.299
19965SOL    HW161727   6.057   3.350   7.335
19965SOL    HW261728   6.181   3.435   7.318
19966SOL     OW61729  10.925   3.352   0.400
19966SOL    HW161730  10.900   3.440   0.370
19966SOL    HW261731  10.898   3.350   0.492
19967SOL     OW61732   3.014   5.724   4.790
19967SOL    HW161733   3.076   5.656   4.817
19967SOL    HW261734   2.985   5.695   4.703
19968SOL     OW61735  12.108   6.025   6.716
19968SOL    HW161736  12.177   6.006   6.779
19968SOL    HW261737  12.119   5.957   6.648
19969SOL     OW61738   6.047   9.840  10.496
19969SOL    HW161739   5.988   9.819  10.568
19969SOL    HW261740   6.054   9.935  10.498
19970SOL     OW61741   0.387   0.892   2.198
19970SOL    HW161742   0.462   0.933   2.155
19970SOL    HW261743   0.412   0.801   2.211
19971SOL     OW61744   6.972  13.909  12.237
19971SOL    HW161745   6.896  13.947  12.192
19971SOL    HW261746   6.967  13.945  12.326
19972SOL     OW61747   5.393  13.923   6.458
19972SOL    HW161748   5.479  13.912   6.499
19972SOL    HW261749   5.350  13.838   6.471
19973SOL     OW61750   3.684   4.419   0.764
19973SOL    HW161751   3.639   4.450   0.685
19973SOL    HW261752   3.758   4.369   0.732
19974SOL     OW61753  14.585   6.793   2.218
19974SOL    HW161754  14.646   6.774   2.290
19974SOL    HW261755  14.516   6.844   2.259
19975SOL     OW61756   9.118  10.051  10.358
19975SOL    HW161757   9.147  10.025  10.446
19975SOL    HW261758   9.062  10.127  10.373
19976SOL     OW61759   3.665   8.508  12.197
19976SOL    HW161760   3.587   8.453  12.195
19976SOL    HW261761   3.719   8.470  12.266
19977SOL     OW61762  12.481   6.971   0.107
19977SOL    HW161763  12.428   7.042   0.141
19977SOL    HW261764  12.428   6.933   0.037
19978SOL     OW61765   4.354   9.054  13.177
19978SOL    HW161766   4.373   8.997  13.102
19978SOL    HW261767   4.260   9.072  13.169
19979SOL     OW61768   7.845  13.330  11.354
19979SOL    HW161769   7.802  13.253  11.316
19979SOL    HW261770   7.937  13.303  11.364
19980SOL     OW61771   4.999  14.193   3.430
19980SOL    HW161772   4.947  14.129   3.479
19980SOL    HW261773   4.949  14.275   3.437
19981SOL     OW61774   8.195   7.510  13.532
19981SOL    HW161775   8.104   7.536  13.549
19981SOL    HW261776   8.196   7.415  13.544
19982SOL     OW61777  12.789   2.374  12.433
19982SOL    HW161778  12.864   2.420  12.395
19982SOL    HW261779  12.738   2.345  12.357
19983SOL     OW61780   9.428   6.304   2.125
19983SOL    HW161781   9.497   6.244   2.098
19983SOL    HW261782   9.414   6.284   2.218
19984SOL     OW61783  10.294  10.593   6.497
19984SOL    HW161784  10.300  10.618   6.405
19984SOL    HW261785  10.219  10.642   6.531
19985SOL     OW61786   4.199  12.066   9.471
19985SOL    HW161787   4.194  11.997   9.537
19985SOL    HW261788   4.171  12.023   9.390
19986SOL     OW61789   6.816   1.861   5.146
19986SOL    HW161790   6.727   1.896   5.152
19986SOL    HW261791   6.819   1.818   5.060
19987SOL     OW61792   1.156   4.711   1.395
19987SOL    HW161793   1.078   4.766   1.406
19987SOL    HW261794   1.139   4.663   1.314
19988SOL     OW61795  13.109   3.513   3.683
19988SOL    HW161796  13.154   3.557   3.612
19988SOL    HW261797  13.017   3.540   3.674
19989SOL     OW61798  13.770   5.232   1.226
19989SOL    HW161799  13.678   5.254   1.215
19989SOL    HW261800  13.769   5.144   1.264
19990SOL     OW61801   2.763   7.503   9.063
19990SOL    HW161802   2.819   7.453   9.122
19990SOL    HW261803   2.822   7.535   8.995
19991SOL     OW61804   3.546   3.930  14.870
19991SOL    HW161805   3.609   3.976   0.043
19991SOL    HW261806   3.479   3.898   0.048
19992SOL     OW61807  13.834   2.970  12.765
19992SOL    HW161808  13.792   3.049  12.799
19992SOL    HW261809  13.867   2.925  12.843
19993SOL     OW61810   5.814  12.250   0.637
19993SOL    HW161811   5.778  12.338   0.627
19993SOL    HW261812   5.739  12.192   0.626
19994SOL     OW61813  10.928   8.131   0.804
19994SOL    HW161814  10.848   8.147   0.754
19994SOL    HW261815  10.904   8.150   0.895
19995SOL     OW61816   5.642   0.686   9.844
19995SOL    HW161817   5.726   0.729   9.828
19995SOL    HW261818   5.585   0.717   9.773
19996SOL     OW61819  13.040   8.184  13.826
19996SOL    HW161820  13.023   8.146  13.740
19996SOL    HW261821  13.023   8.278  13.815
19997SOL     OW61822  10.704   1.146  11.339
19997SOL    HW161823  10.780   1.200  11.362
19997SOL    HW261824  10.638   1.209  11.310
19998SOL     OW61825   2.106   1.461   1.851
19998SOL    HW161826   2.081   1.508   1.772
19998SOL    HW261827   2.132   1.374   1.822
19999SOL     OW61828  13.277   3.880  10.775
19999SOL    HW161829  13.368   3.902  10.795
19999SOL    HW261830  13.227   3.914  10.849
20000SOL     OW61831   5.553   3.113  12.862
20000SOL    HW161832   5.645   3.134  12.879
20000SOL    HW261833   5.511   3.114  12.948
20001SOL     OW61834  10.021   9.573   0.450
20001SOL    HW161835  10.110   9.570   0.416
20001SOL    HW261836   9.964   9.569   0.373
20002SOL     OW61837   1.728   1.004   8.484
20002SOL    HW161838   1.697   0.979   8.397
20002SOL    HW261839   1.773   0.926   8.517
20003SOL     OW61840   8.365   9.671   8.487
20003SOL    HW161841   8.321   9.604   8.540
20003SOL    HW261842   8.323   9.753   8.513
20004SOL     OW61843  12.924  11.696  12.345
20004SOL    HW161844  12.892  11.786  12.341
20004SOL    HW261845  12.844  11.642  12.338
20005SOL     OW61846   8.479   3.451   9.911
20005SOL    HW161847   8.472   3.478  10.003
20005SOL    HW261848   8.388   3.453   9.879
20006SOL     OW61849   1.815   0.758   8.597
20006SOL    HW161850   1.882   0.745   8.665
20006SOL    HW261851   1.818   0.677   8.545
20007SOL     OW61852   6.769  10.953  10.426
20007SOL    HW161853   6.791  10.913  10.510
20007SOL    HW261854   6.717  10.887  10.380
20008SOL     OW61855   8.527  13.695   1.526
20008SOL    HW161856   8.572  13.779   1.527
20008SOL    HW261857   8.576  13.640   1.586
20009SOL     OW61858   0.079   4.167  10.020
20009SOL    HW161859   0.089   4.246  10.073
20009SOL    HW261860   0.019   4.112  10.071
20010SOL     OW61861   2.900   9.239  12.173
20010SOL    HW161862   2.872   9.318  12.219
20010SOL    HW261863   2.820   9.188  12.161
20011SOL     OW61864  10.659  12.496   1.329
20011SOL    HW161865  10.590  12.559   1.352
20011SOL    HW261866  10.624  12.412   1.357
20012SOL     OW61867   2.621  12.606  10.551
20012SOL    HW161868   2.554  12.583  10.486
20012SOL    HW261869   2.571  12.644  10.624
20013SOL     OW61870   2.144   4.585  12.175
20013SOL    HW161871   2.104   4.647  12.237
20013SOL    HW261872   2.197   4.640  12.118
20014SOL     OW61873  11.103   6.270   1.361
20014SOL    HW161874  11.039   6.317   1.308
20014SOL    HW261875  11.142   6.206   1.300
20015SOL     OW61876   4.352  14.232   5.793
20015SOL    HW161877   4.328  14.140   5.806
20015SOL    HW261878   4.269  14.275   5.771
20016SOL     OW61879   8.116   8.794   2.922
20016SOL    HW161880   8.020   8.795   2.917
20016SOL    HW261881   8.144   8.869   2.870
20017SOL     OW61882   9.486   0.286   4.084
20017SOL    HW161883   9.439   0.348   4.028
20017SOL    HW261884   9.424   0.215   4.099
20018SOL     OW61885   5.552   1.485  14.693
20018SOL    HW161886   5.517   1.498  14.781
20018SOL    HW261887   5.574   1.574  14.664
20019SOL     OW61888   3.680   4.519   5.163
20019SOL    HW161889   3.640   4.584   5.220
20019SOL    HW261890   3.731   4.463   5.222
20020SOL     OW61891  13.753   5.226  10.250
20020SOL    HW161892  13.803   5.144  10.249
20020SOL    HW261893  13.678   5.209  10.193
20021SOL     OW61894  14.404   0.192  10.911
20021SOL    HW161895  14.478   0.179  10.971
20021SOL    HW261896  14.326   0.176  10.965
20022SOL     OW61897   6.217   2.884   8.819
20022SOL    HW161898   6.300   2.848   8.788
20022SOL    HW261899   6.161   2.888   8.741
20023SOL     OW61900   1.249  13.985  12.964
20023SOL    HW161901   1.239  13.900  12.921
20023SOL    HW261902   1.254  14.048  12.892
20024SOL     OW61903   3.477  10.727   7.406
20024SOL    HW161904   3.536  10.683   7.467
20024SOL    HW261905   3.389  10.703   7.435
20025SOL     OW61906   2.393  14.104  11.554
20025SOL    HW161907   2.312  14.153  11.564
20025SOL    HW261908   2.378  14.022  11.602
20026SOL     OW61909  11.041   8.911   5.649
20026SOL    HW161910  11.082   8.969   5.586
20026SOL    HW261911  11.062   8.823   5.619
20027SOL     OW61912   4.616   7.408  10.860
20027SOL    HW161913   4.593   7.398  10.953
20027SOL    HW261914   4.660   7.326  10.838
20028SOL     OW61915   3.458   0.825   3.643
20028SOL    HW161916   3.388   0.798   3.703
20028SOL    HW261917   3.531   0.848   3.699
20029SOL     OW61918   9.271   4.876  11.487
20029SOL    HW161919   9.196   4.831  11.449
20029SOL    HW261920   9.338   4.875  11.419
20030SOL     OW61921   6.344  10.010   3.155
20030SOL    HW161922   6.272  10.050   3.106
20030SOL    HW261923   6.300   9.959   3.224
20031SOL     OW61924  13.894  10.669   9.544
20031SOL    HW161925  13.954  10.604   9.508
20031SOL    HW261926  13.808  10.642   9.512
20032SOL     OW61927   9.113   3.674   5.118
20032SOL    HW161928   9.209   3.677   5.112
20032SOL    HW261929   9.092   3.727   5.194
20033SOL     OW61930   4.560   5.083  13.589
20033SOL    HW161931   4.498   5.134  13.538
20033SOL    HW261932   4.633   5.067  13.529
20034SOL     OW61933  11.662   1.738   1.722
20034SOL    HW161934  11.597   1.744   1.792
20034SOL    HW261935  11.611   1.743   1.642
20035SOL     OW61936   7.060   3.985   3.640
20035SOL    HW161937   7.041   4.059   3.583
20035SOL    HW261938   7.100   3.920   3.582
20036SOL     OW61939   8.705   4.275  10.388
20036SOL    HW161940   8.794   4.300  10.365
20036SOL    HW261941   8.654   4.355  10.376
20037SOL     OW61942   5.724  11.805   0.250
20037SOL    HW161943   5.810  11.764   0.263
20037SOL    HW261944   5.663  11.746   0.295
20038SOL     OW61945   6.491  14.533   6.045
20038SOL    HW161946   6.527  14.471   5.981
20038SOL    HW261947   6.568  14.579   6.079
20039SOL     OW61948   1.571  14.471   8.799
20039SOL    HW161949   1.539  14.476   8.709
20039SOL    HW261950   1.652  14.420   8.793
20040SOL     OW61951   5.306   0.266   4.441
20040SOL    HW161952   5.336   0.357   4.450
20040SOL    HW261953   5.370   0.215   4.490
20041SOL     OW61954   1.014   9.782  10.729
20041SOL    HW161955   1.095   9.809  10.685
20041SOL    HW261956   1.005   9.843  10.803
20042SOL     OW61957  11.246   0.014   7.243
20042SOL    HW161958  11.292   0.097   7.250
20042SOL    HW261959  11.181   0.016   7.312
20043SOL     OW61960   1.103  12.076   8.353
20043SOL    HW161961   1.134  12.091   8.264
20043SOL    HW261962   1.133  12.153   8.402
20044SOL     OW61963  11.742  14.552  11.742
20044SOL    HW161964  11.688  14.477  11.716
20044SOL    HW261965  11.817  14.513  11.787
20045SOL     OW61966   6.825  12.458   8.663
20045SOL    HW161967   6.912  12.498   8.672
20045SOL    HW261968   6.784  12.473   8.748
20046SOL     OW61969   7.077  13.506   0.506
20046SOL    HW161970   7.165  13.468   0.513
20046SOL    HW261971   7.076  13.547   0.419
20047SOL     OW61972   0.703  12.041  10.362
20047SOL    HW161973   0.693  11.946  10.355
20047SOL    HW261974   0.778  12.062  10.306
20048SOL     OW61975   7.387  11.020   2.040
20048SOL    HW161976   7.471  10.990   2.075
20048SOL    HW261977   7.365  10.956   1.973
20049SOL     OW61978   9.717   0.574   7.401
20049SOL    HW161979   9.700   0.668   7.410
20049SOL    HW261980   9.802   0.561   7.443
20050SOL     OW61981   9.215  10.049   4.351
20050SOL    HW161982   9.272  10.047   4.274
20050SOL    HW261983   9.127  10.063   4.316
20051SOL     OW61984   5.120  10.244  10.315
20051SOL    HW161985   5.152  10.208  10.398
20051SOL    HW261986   5.183  10.313  10.293
20052SOL     OW61987  10.253  14.063  11.400
20052SOL    HW161988  10.164  14.032  11.414
20052SOL    HW261989  10.270  14.122  11.474
20053SOL     OW61990   7.934   3.983   0.793
20053SOL    HW161991   7.929   4.073   0.761
20053SOL    HW261992   8.013   3.981   0.847
20054SOL     OW61993   4.099   0.971   2.645
20054SOL    HW161994   4.046   0.922   2.582
20054SOL    HW261995   4.127   0.905   2.709
20055SOL     OW61996  11.262   9.405   5.610
20055SOL    HW161997  11.210   9.362   5.541
20055SOL    HW261998  11.197   9.436   5.673
20056SOL     OW61999  11.740   6.147   2.840
20056SOL    HW162000  11.819   6.103   2.808
20056SOL    HW262001  11.676   6.135   2.769
20057SOL     OW62002   3.915   1.550   8.801
20057SOL    HW162003   3.875   1.593   8.876
20057SOL    HW262004   3.966   1.478   8.838
20058SOL     OW62005   9.945   9.289   0.376
20058SOL    HW162006  10.004   9.362   0.396
20058SOL    HW262007   9.960   9.271   0.283
20059SOL     OW62008  12.237  11.609  11.362
20059SOL    HW162009  12.199  11.538  11.414
20059SOL    HW262010  12.330  11.585  11.354
20060SOL     OW62011   8.956   2.541  10.787
20060SOL    HW162012   8.926   2.532  10.696
20060SOL    HW262013   9.051   2.549  10.780
20061SOL     OW62014  11.961   6.517   5.483
20061SOL    HW162015  11.921   6.513   5.570
20061SOL    HW262016  11.901   6.469   5.427
20062SOL     OW62017   7.097   6.784   3.916
20062SOL    HW162018   7.035   6.719   3.950
20062SOL    HW262019   7.047   6.866   3.912
20063SOL     OW62020   2.009   4.134   1.712
20063SOL    HW162021   1.970   4.076   1.647
20063SOL    HW262022   2.039   4.076   1.781
20064SOL     OW62023   6.749   0.443   1.486
20064SOL    HW162024   6.721   0.355   1.509
20064SOL    HW262025   6.837   0.451   1.523
20065SOL     OW62026   9.493   6.566  12.395
20065SOL    HW162027   9.415   6.568  12.340
20065SOL    HW262028   9.556   6.512  12.347
20066SOL     OW62029   4.523   2.801  13.080
20066SOL    HW162030   4.590   2.855  13.121
20066SOL    HW262031   4.448   2.808  13.138
20067SOL     OW62032   8.532  13.063  13.362
20067SOL    HW162033   8.446  13.059  13.404
20067SOL    HW262034   8.587  13.110  13.425
20068SOL     OW62035  12.098   7.136   8.837
20068SOL    HW162036  12.190   7.148   8.816
20068SOL    HW262037  12.055   7.212   8.797
20069SOL     OW62038   5.675   0.723   9.443
20069SOL    HW162039   5.748   0.663   9.455
20069SOL    HW262040   5.617   0.678   9.382
20070SOL     OW62041  13.160   6.121   6.677
20070SOL    HW162042  13.216   6.124   6.754
20070SOL    HW262043  13.097   6.192   6.690
20071SOL     OW62044   6.671   2.687   6.590
20071SOL    HW162045   6.585   2.646   6.582
20071SOL    HW262046   6.652   2.775   6.622
20072SOL     OW62047   7.158   8.167   2.745
20072SOL    HW162048   7.071   8.205   2.754
20072SOL    HW262049   7.218   8.238   2.770
20073SOL     OW62050   6.365   3.973  13.867
20073SOL    HW162051   6.412   3.898  13.904
20073SOL    HW262052   6.421   4.048  13.886
20074SOL     OW62053   8.070   6.198  13.255
20074SOL    HW162054   8.053   6.240  13.171
20074SOL    HW262055   8.001   6.133  13.265
20075SOL     OW62056   2.478   4.124   4.071
20075SOL    HW162057   2.461   4.187   4.001
20075SOL    HW262058   2.564   4.087   4.050
20076SOL     OW62059  13.947   0.044   2.121
20076SOL    HW162060  13.920   0.135   2.135
20076SOL    HW262061  13.967   0.012   2.209
20077SOL     OW62062  12.547   7.567   0.598
20077SOL    HW162063  12.575   7.486   0.555
20077SOL    HW262064  12.560   7.635   0.531
20078SOL     OW62065   9.367   3.930   7.167
20078SOL    HW162066   9.378   3.839   7.140
20078SOL    HW262067   9.411   3.980   7.098
20079SOL     OW62068  10.180   4.850   5.527
20079SOL    HW162069  10.161   4.783   5.461
20079SOL    HW262070  10.112   4.838   5.594
20080SOL     OW62071   8.461  12.248  11.697
20080SOL    HW162072   8.398  12.212  11.760
20080SOL    HW262073   8.522  12.176  11.681
20081SOL     OW62074   1.714  12.852   8.599
20081SOL    HW162075   1.697  12.812   8.685
20081SOL    HW262076   1.650  12.922   8.593
20082SOL     OW62077  12.113   4.788   9.257
20082SOL    HW162078  12.096   4.712   9.312
20082SOL    HW262079  12.198   4.820   9.286
20083SOL     OW62080   1.500   8.127   0.003
20083SOL    HW162081   1.500   8.214   0.044
20083SOL    HW262082   1.514   8.145  14.792
20084SOL     OW62083   0.308   3.583  11.677
20084SOL    HW162084   0.227   3.551  11.636
20084SOL    HW262085   0.278   3.635  11.751
20085SOL     OW62086   7.713   5.266   8.510
20085SOL    HW162087   7.679   5.258   8.421
20085SOL    HW262088   7.649   5.323   8.555
20086SOL     OW62089   4.054   1.308  11.168
20086SOL    HW162090   3.993   1.370  11.129
20086SOL    HW262091   4.076   1.248  11.097
20087SOL     OW62092   4.909   7.356   8.340
20087SOL    HW162093   4.835   7.330   8.395
20087SOL    HW262094   4.913   7.289   8.272
20088SOL     OW62095   9.385   9.906   7.745
20088SOL    HW162096   9.349   9.943   7.826
20088SOL    HW262097   9.478   9.897   7.762
20089SOL     OW62098  14.347  11.182   2.224
20089SOL    HW162099  14.402  11.213   2.297
20089SOL    HW262100  14.406  11.180   2.149
20090SOL     OW62101  13.776  13.205   6.884
20090SOL    HW162102  13.850  13.243   6.837
20090SOL    HW262103  13.798  13.217   6.977
20091SOL     OW62104  10.901   7.948   0.258
20091SOL    HW162105  10.971   7.995   0.214
20091SOL    HW262106  10.875   7.880   0.196
20092SOL     OW62107   1.876   6.544  13.405
20092SOL    HW162108   1.898   6.568  13.495
20092SOL    HW262109   1.780   6.537  13.405
20093SOL     OW62110  12.908   4.983   7.488
20093SOL    HW162111  12.853   4.908   7.511
20093SOL    HW262112  12.997   4.947   7.483
20094SOL     OW62113   7.286   2.405   0.959
20094SOL    HW162114   7.342   2.465   0.910
20094SOL    HW262115   7.333   2.322   0.957
20095SOL     OW62116   1.396   7.595   9.431
20095SOL    HW162117   1.356   7.588   9.344
20095SOL    HW262118   1.451   7.673   9.426
20096SOL     OW62119  13.750   7.771   3.668
20096SOL    HW162120  13.820   7.709   3.648
20096SOL    HW262121  13.703   7.732   3.742
20097SOL     OW62122   5.277   5.838   3.914
20097SOL    HW162123   5.349   5.879   3.961
20097SOL    HW262124   5.315   5.813   3.830
20098SOL     OW62125  12.327  14.470   5.746
20098SOL    HW162126  12.415  14.496   5.773
20098SOL    HW262127  12.282  14.552   5.725
20099SOL     OW62128  11.916   0.643  10.199
20099SOL    HW162129  11.836   0.685  10.232
20099SOL    HW262130  11.884   0.570  10.145
20100SOL     OW62131   8.332   1.864   3.929
20100SOL    HW162132   8.265   1.831   3.989
20100SOL    HW262133   8.410   1.874   3.984
20101SOL     OW62134  11.118   1.065   1.360
20101SOL    HW162135  11.128   1.000   1.291
20101SOL    HW262136  11.102   1.013   1.439
20102SOL     OW62137   9.789   3.592   6.109
20102SOL    HW162138   9.738   3.511   6.109
20102SOL    HW262139   9.738   3.653   6.162
20103SOL     OW62140  11.061   7.351  14.062
20103SOL    HW162141  10.994   7.286  14.085
20103SOL    HW262142  11.064   7.349  13.966
20104SOL     OW62143  11.371  12.001   9.176
20104SOL    HW162144  11.336  12.089   9.163
20104SOL    HW262145  11.448  11.998   9.119
20105SOL     OW62146   7.510   8.453   1.305
20105SOL    HW162147   7.528   8.440   1.212
20105SOL    HW262148   7.415   8.449   1.312
20106SOL     OW62149   9.446   6.722  12.605
20106SOL    HW162150   9.395   6.780  12.548
20106SOL    HW262151   9.489   6.662  12.544
20107SOL     OW62152  12.182   0.426   8.854
20107SOL    HW162153  12.151   0.453   8.767
20107SOL    HW262154  12.209   0.507   8.896
20108SOL     OW62155  11.551   2.062  13.288
20108SOL    HW162156  11.587   2.135  13.338
20108SOL    HW262157  11.598   2.064  13.205
20109SOL     OW62158  12.761   3.613  10.623
20109SOL    HW162159  12.809   3.612  10.706
20109SOL    HW262160  12.673   3.644  10.646
20110SOL     OW62161   5.005   7.072   7.866
20110SOL    HW162162   5.063   7.148   7.872
20110SOL    HW262163   5.021   7.023   7.947
20111SOL     OW62164   9.556  12.622  10.364
20111SOL    HW162165   9.488  12.606  10.298
20111SOL    HW262166   9.553  12.545  10.421
20112SOL     OW62167   7.078   4.009  12.515
20112SOL    HW162168   7.055   3.968  12.598
20112SOL    HW262169   7.003   3.992  12.458
20113SOL     OW62170   4.239   5.069   7.267
20113SOL    HW162171   4.285   5.114   7.338
20113SOL    HW262172   4.196   5.138   7.218
20114SOL     OW62173  12.352  12.373   3.050
20114SOL    HW162174  12.297  12.295   3.059
20114SOL    HW262175  12.441  12.342   3.068
20115SOL     OW62176  11.528   1.192  10.478
20115SOL    HW162177  11.552   1.100  10.489
20115SOL    HW262178  11.582   1.223  10.406
20116SOL     OW62179   8.776  12.497  12.039
20116SOL    HW162180   8.683  12.476  12.040
20116SOL    HW262181   8.802  12.485  11.947
20117SOL     OW62182   4.687   3.876  14.008
20117SOL    HW162183   4.727   3.798  14.047
20117SOL    HW262184   4.749   3.947  14.027
20118SOL     OW62185  10.994   3.455   8.994
20118SOL    HW162186  10.901   3.433   8.994
20118SOL    HW262187  10.996   3.550   9.007
20119SOL     OW62188  10.569   7.188   1.224
20119SOL    HW162189  10.555   7.213   1.315
20119SOL    HW262190  10.593   7.270   1.180
20120SOL     OW62191  12.757   9.283  14.259
20120SOL    HW162192  12.728   9.276  14.350
20120SOL    HW262193  12.851   9.267  14.262
20121SOL     OW62194  12.508  13.112   4.540
20121SOL    HW162195  12.423  13.101   4.497
20121SOL    HW262196  12.570  13.072   4.479
20122SOL     OW62197  13.144   8.771   7.367
20122SOL    HW162198  13.074   8.826   7.404
20122SOL    HW262199  13.133   8.779   7.273
20123SOL     OW62200   7.276  12.133   1.773
20123SOL    HW162201   7.296  12.221   1.807
20123SOL    HW262202   7.255  12.147   1.681
20124SOL     OW62203  11.260   5.823  13.005
20124SOL    HW162204  11.298   5.735  12.999
20124SOL    HW262205  11.228   5.828  13.095
20125SOL     OW62206   7.108   2.376  11.063
20125SOL    HW162207   7.018   2.388  11.035
20125SOL    HW262208   7.134   2.460  11.100
20126SOL     OW62209   9.522   3.176   1.704
20126SOL    HW162210   9.561   3.169   1.791
20126SOL    HW262211   9.440   3.127   1.711
20127SOL     OW62212  14.708   0.917   2.738
20127SOL    HW162213  14.642   0.967   2.689
20127SOL    HW262214  14.760   0.873   2.671
20128SOL     OW62215   2.713   7.230   0.599
20128SOL    HW162216   2.724   7.174   0.676
20128SOL    HW262217   2.704   7.318   0.636
20129SOL     OW62218   4.233  10.664   6.702
20129SOL    HW162219   4.269  10.595   6.758
20129SOL    HW262220   4.251  10.745   6.750
20130SOL     OW62221   4.492   3.469   3.116
20130SOL    HW162222   4.497   3.463   3.021
20130SOL    HW262223   4.581   3.445   3.145
20131SOL     OW62224   2.620  11.098   7.677
20131SOL    HW162225   2.587  11.056   7.598
20131SOL    HW262226   2.542  11.119   7.728
20132SOL     OW62227   0.981   3.849  14.026
20132SOL    HW162228   0.939   3.931  14.050
20132SOL    HW262229   0.954   3.833  13.936
20133SOL     OW62230   5.936   7.833   0.003
20133SOL    HW162231   5.930   7.764   0.068
20133SOL    HW262232   5.987   7.794  14.813
20134SOL     OW62233   8.331  13.398   8.398
20134SOL    HW162234   8.350  13.308   8.372
20134SOL    HW262235   8.379  13.452   8.334
20135SOL     OW62236   6.414   9.824   2.791
20135SOL    HW162237   6.393   9.911   2.824
20135SOL    HW262238   6.492   9.837   2.737
20136SOL     OW62239   6.158   6.391  10.904
20136SOL    HW162240   6.126   6.359  10.819
20136SOL    HW262241   6.248   6.418  10.886
20137SOL     OW62242   2.206  13.891   2.601
20137SOL    HW162243   2.209  13.986   2.590
20137SOL    HW262244   2.220  13.878   2.695
20138SOL     OW62245   1.852   7.166   1.901
20138SOL    HW162246   1.854   7.261   1.911
20138SOL    HW262247   1.937   7.137   1.933
20139SOL     OW62248   5.287  14.510  10.234
20139SOL    HW162249   5.295  14.459  10.315
20139SOL    HW262250   5.370  14.558  10.228
20140SOL     OW62251   3.420  14.564   6.094
20140SOL    HW162252   3.333  14.530   6.114
20140SOL    HW262253   3.404  14.655   6.068
20141SOL     OW62254   2.271   3.520   0.205
20141SOL    HW162255   2.235   3.436   0.176
20141SOL    HW262256   2.269   3.516   0.300
20142SOL     OW62257   2.685   9.588  14.273
20142SOL    HW162258   2.738   9.651  14.226
20142SOL    HW262259   2.738   9.561  14.347
20143SOL     OW62260  14.282  12.618   8.592
20143SOL    HW162261  14.335  12.690   8.625
20143SOL    HW262262  14.337  12.575   8.527
20144SOL     OW62263  11.595   1.311  11.343
20144SOL    HW162264  11.680   1.344  11.372
20144SOL    HW262265  11.587   1.341  11.253
20145SOL     OW62266   6.670   0.751  13.204
20145SOL    HW162267   6.740   0.814  13.184
20145SOL    HW262268   6.711   0.687  13.262
20146SOL     OW62269   1.907   6.260   8.092
20146SOL    HW162270   1.981   6.228   8.041
20146SOL    HW262271   1.834   6.205   8.065
20147SOL     OW62272   4.255   8.606   0.697
20147SOL    HW162273   4.338   8.624   0.654
20147SOL    HW262274   4.245   8.511   0.690
20148SOL     OW62275  12.322   5.381   6.178
20148SOL    HW162276  12.325   5.476   6.192
20148SOL    HW262277  12.277   5.372   6.093
20149SOL     OW62278   5.995   5.354   5.971
20149SOL    HW162279   6.040   5.287   6.023
20149SOL    HW262280   5.940   5.305   5.910
20150SOL     OW62281  11.142  12.592   0.639
20150SOL    HW162282  11.086  12.525   0.678
20150SOL    HW262283  11.231  12.563   0.657
20151SOL     OW62284   8.842   4.951  13.647
20151SOL    HW162285   8.755   4.911  13.643
20151SOL    HW262286   8.826   5.040  13.679
20152SOL     OW62287  10.065  10.947  11.587
20152SOL    HW162288  10.037  10.874  11.532
20152SOL    HW262289  10.030  10.926  11.674
20153SOL     OW62290   1.678   2.171   5.368
20153SOL    HW162291   1.590   2.163   5.404
20153SOL    HW262292   1.721   2.089   5.392
20154SOL     OW62293   5.793  13.433   6.267
20154SOL    HW162294   5.757  13.519   6.289
20154SOL    HW262295   5.809  13.392   6.353
20155SOL     OW62296   8.927   9.472  11.304
20155SOL    HW162297   8.857   9.419  11.342
20155SOL    HW262298   8.885   9.556  11.283
20156SOL     OW62299   1.319   1.948   3.795
20156SOL    HW162300   1.283   2.000   3.723
20156SOL    HW262301   1.243   1.928   3.849
20157SOL     OW62302   9.103   2.760   6.560
20157SOL    HW162303   9.165   2.736   6.491
20157SOL    HW262304   9.083   2.677   6.603
20158SOL     OW62305   7.227   8.294  12.829
20158SOL    HW162306   7.252   8.386  12.821
20158SOL    HW262307   7.245   8.257  12.742
20159SOL     OW62308   7.786   6.677  12.565
20159SOL    HW162309   7.852   6.619  12.603
20159SOL    HW262310   7.706   6.657  12.615
20160SOL     OW62311   9.426  11.777   1.184
20160SOL    HW162312   9.373  11.776   1.105
20160SOL    HW262313   9.506  11.823   1.160
20161SOL     OW62314  11.666  14.510   4.618
20161SOL    HW162315  11.729  14.541   4.684
20161SOL    HW262316  11.673  14.415   4.621
20162SOL     OW62317   6.545  14.512   9.946
20162SOL    HW162318   6.571  14.513  10.038
20162SOL    HW262319   6.616  14.465   9.901
20163SOL     OW62320   8.530   4.487  10.339
20163SOL    HW162321   8.436   4.478  10.325
20163SOL    HW262322   8.566   4.505  10.251
20164SOL     OW62323  14.119  13.621   1.641
20164SOL    HW162324  14.157  13.670   1.568
20164SOL    HW262325  14.179  13.548   1.655
20165SOL     OW62326   4.125   0.126  10.223
20165SOL    HW162327   4.067   0.134  10.147
20165SOL    HW262328   4.203   0.081  10.189
20166SOL     OW62329   8.022  14.117  12.945
20166SOL    HW162330   7.938  14.078  12.921
20166SOL    HW262331   8.087  14.070  12.894
20167SOL     OW62332   5.772   7.899  13.870
20167SOL    HW162333   5.728   7.932  13.791
20167SOL    HW262334   5.715   7.925  13.942
20168SOL     OW62335  14.527   4.898  10.587
20168SOL    HW162336  14.532   4.940  10.501
20168SOL    HW262337  14.617   4.875  10.608
20169SOL     OW62338   9.966   5.830  12.730
20169SOL    HW162339   9.928   5.836  12.642
20169SOL    HW262340   9.910   5.767  12.776
20170SOL     OW62341   9.559   7.837   3.907
20170SOL    HW162342   9.475   7.799   3.932
20170SOL    HW262343   9.582   7.792   3.826
20171SOL     OW62344   6.899  14.162   3.559
20171SOL    HW162345   6.944  14.227   3.613
20171SOL    HW262346   6.952  14.083   3.567
20172SOL     OW62347   0.596   3.458  13.171
20172SOL    HW162348   0.505   3.431  13.179
20172SOL    HW262349   0.595   3.522  13.099
20173SOL     OW62350   0.928   7.812   1.086
20173SOL    HW162351   0.833   7.796   1.089
20173SOL    HW262352   0.967   7.733   1.123
20174SOL     OW62353  10.973   7.184   8.871
20174SOL    HW162354  10.981   7.264   8.818
20174SOL    HW262355  10.926   7.211   8.949
20175SOL     OW62356   9.176  14.683   6.038
20175SOL    HW162357   9.221  14.758   6.077
20175SOL    HW262358   9.147  14.714   5.952
20176SOL     OW62359   3.796   1.298   7.508
20176SOL    HW162360   3.853   1.335   7.576
20176SOL    HW262361   3.853   1.239   7.459
20177SOL     OW62362   0.477   8.992   1.076
20177SOL    HW162363   0.399   9.020   1.027
20177SOL    HW262364   0.451   8.908   1.115
20178SOL     OW62365   9.047  12.750  10.420
20178SOL    HW162366   8.992  12.726  10.346
20178SOL    HW262367   9.103  12.820  10.388
20179SOL     OW62368  11.090  10.723  13.529
20179SOL    HW162369  10.995  10.720  13.534
20179SOL    HW262370  11.114  10.807  13.568
20180SOL     OW62371   0.392  14.522   4.257
20180SOL    HW162372   0.451  14.580   4.304
20180SOL    HW262373   0.305  14.551   4.281
20181SOL     OW62374   2.306   2.632  14.426
20181SOL    HW162375   2.281   2.724  14.414
20181SOL    HW262376   2.401   2.635  14.436
20182SOL     OW62377  14.309   5.680   6.747
20182SOL    HW162378  14.316   5.766   6.707
20182SOL    HW262379  14.337   5.693   6.838
20183SOL     OW62380   3.041   0.279   2.194
20183SOL    HW162381   3.097   0.316   2.262
20183SOL    HW262382   2.997   0.205   2.237
20184SOL     OW62383   2.616   7.302  10.101
20184SOL    HW162384   2.548   7.341  10.155
20184SOL    HW262385   2.696   7.312  10.153
20185SOL     OW62386   6.709   7.925  11.836
20185SOL    HW162387   6.616   7.926  11.859
20185SOL    HW262388   6.754   7.910  11.920
20186SOL     OW62389   8.744  12.354  11.204
20186SOL    HW162390   8.712  12.332  11.291
20186SOL    HW262391   8.695  12.296  11.145
20187SOL     OW62392   9.193   1.738   5.871
20187SOL    HW162393   9.132   1.698   5.809
20187SOL    HW262394   9.265   1.770   5.818
20188SOL     OW62395  12.314  10.126   8.369
20188SOL    HW162396  12.392  10.072   8.382
20188SOL    HW262397  12.285  10.149   8.457
20189SOL     OW62398   5.431   7.403   9.002
20189SOL    HW162399   5.389   7.480   8.965
20189SOL    HW262400   5.360   7.338   9.011
20190SOL     OW62401  11.638  11.590  10.065
20190SOL    HW162402  11.691  11.659  10.105
20190SOL    HW262403  11.561  11.584  10.122
20191SOL     OW62404   4.652   2.752  14.345
20191SOL    HW162405   4.652   2.774  14.252
20191SOL    HW262406   4.632   2.835  14.389
20192SOL     OW62407   5.767   8.238   8.731
20192SOL    HW162408   5.766   8.164   8.670
20192SOL    HW262409   5.840   8.219   8.790
20193SOL     OW62410   5.118   5.426   9.435
20193SOL    HW162411   5.197   5.475   9.412
20193SOL    HW262412   5.070   5.485   9.494
20194SOL     OW62413   7.385   4.339   5.149
20194SOL    HW162414   7.344   4.293   5.222
20194SOL    HW262415   7.318   4.339   5.080
20195SOL     OW62416   8.589   8.890  10.587
20195SOL    HW162417   8.571   8.797  10.577
20195SOL    HW262418   8.502   8.931  10.588
20196SOL     OW62419   5.046   4.024  14.856
20196SOL    HW162420   5.029   4.084   0.047
20196SOL    HW262421   5.127   4.057  14.816
20197SOL     OW62422   5.634   9.544  14.011
20197SOL    HW162423   5.713   9.520  14.060
20197SOL    HW262424   5.569   9.564  14.077
20198SOL     OW62425   0.781   9.987  13.614
20198SOL    HW162426   0.798  10.064  13.670
20198SOL    HW262427   0.727  10.021  13.543
20199SOL     OW62428  11.880   8.581   9.614
20199SOL    HW162429  11.875   8.516   9.685
20199SOL    HW262430  11.887   8.529   9.534
20200SOL     OW62431   5.245   4.071   9.297
20200SOL    HW162432   5.297   3.993   9.278
20200SOL    HW262433   5.213   4.056   9.386
20201SOL     OW62434  13.781   6.733   0.079
20201SOL    HW162435  13.735   6.776   0.151
20201SOL    HW262436  13.771   6.794   0.005
20202SOL     OW62437   6.026   9.702  12.198
20202SOL    HW162438   6.038   9.612  12.230
20202SOL    HW262439   5.937   9.704  12.164
20203SOL     OW62440   6.739  12.735   7.189
20203SOL    HW162441   6.649  12.766   7.176
20203SOL    HW262442   6.793  12.813   7.177
20204SOL     OW62443  10.332  12.527   4.561
20204SOL    HW162444  10.323  12.484   4.646
20204SOL    HW262445  10.404  12.590   4.574
20205SOL     OW62446   1.490   5.471  11.619
20205SOL    HW162447   1.445   5.552  11.644
20205SOL    HW262448   1.462   5.454  11.529
20206SOL     OW62449   4.230   7.113   4.400
20206SOL    HW162450   4.181   7.163   4.465
20206SOL    HW262451   4.210   7.155   4.317
20207SOL     OW62452  12.704  10.632   5.536
20207SOL    HW162453  12.634  10.674   5.585
20207SOL    HW262454  12.671  10.545   5.514
20208SOL     OW62455  12.823  10.954   0.226
20208SOL    HW162456  12.846  10.863   0.242
20208SOL    HW262457  12.742  10.950   0.176
20209SOL     OW62458  10.009   4.204   3.242
20209SOL    HW162459  10.003   4.258   3.163
20209SOL    HW262460  10.097   4.167   3.238
20210SOL     OW62461  12.683  14.162   4.004
20210SOL    HW162462  12.646  14.180   4.091
20210SOL    HW262463  12.774  14.192   4.010
20211SOL     OW62464   6.547   9.576  14.490
20211SOL    HW162465   6.481   9.520  14.449
20211SOL    HW262466   6.539   9.660  14.445
20212SOL     OW62467   4.642   6.321   7.848
20212SOL    HW162468   4.609   6.273   7.771
20212SOL    HW262469   4.728   6.352   7.822
20213SOL     OW62470   5.038   1.912   8.994
20213SOL    HW162471   5.089   1.835   9.020
20213SOL    HW262472   5.092   1.954   8.927
20214SOL     OW62473  13.476  12.083   1.593
20214SOL    HW162474  13.547  12.138   1.561
20214SOL    HW262475  13.461  12.019   1.523
20215SOL     OW62476   1.616  11.864   7.450
20215SOL    HW162477   1.694  11.829   7.408
20215SOL    HW262478   1.546  11.803   7.427
20216SOL     OW62479   9.416   1.409  10.942
20216SOL    HW162480   9.434   1.490  10.894
20216SOL    HW262481   9.329   1.422  10.980
20217SOL     OW62482  13.249   0.675  14.587
20217SOL    HW162483  13.331   0.629  14.601
20217SOL    HW262484  13.215   0.640  14.505
20218SOL     OW62485  13.788   6.784   6.801
20218SOL    HW162486  13.847   6.770   6.727
20218SOL    HW262487  13.841   6.766   6.879
20219SOL     OW62488   2.478   3.988   8.983
20219SOL    HW162489   2.411   4.053   9.002
20219SOL    HW262490   2.526   3.978   9.065
20220SOL     OW62491  13.509   5.396   3.967
20220SOL    HW162492  13.447   5.398   4.039
20220SOL    HW262493  13.595   5.403   4.009
20221SOL     OW62494   9.834   7.290  10.425
20221SOL    HW162495   9.826   7.195  10.437
20221SOL    HW262496   9.748   7.325  10.449
20222SOL     OW62497  14.769   4.872  10.699
20222SOL    HW162498  14.819   4.952  10.718
20222SOL    HW262499  14.734   4.844  10.783
20223SOL     OW62500   5.936   8.507   2.188
20223SOL    HW162501   5.931   8.478   2.097
20223SOL    HW262502   5.931   8.427   2.239
20224SOL     OW62503  14.076   8.675   8.580
20224SOL    HW162504  14.092   8.756   8.628
20224SOL    HW262505  14.120   8.607   8.631
20225SOL     OW62506   1.122  10.759  13.955
20225SOL    HW162507   1.141  10.698  14.026
20225SOL    HW262508   1.027  10.774  13.960
20226SOL     OW62509  13.212   9.651  14.566
20226SOL    HW162510  13.219   9.562  14.599
20226SOL    HW262511  13.282   9.659  14.501
20227SOL     OW62512   9.026   5.159   0.225
20227SOL    HW162513   9.092   5.214   0.267
20227SOL    HW262514   9.065   5.071   0.225
20228SOL     OW62515  10.186   0.977   3.519
20228SOL    HW162516  10.254   1.004   3.580
20228SOL    HW262517  10.189   0.882   3.520
20229SOL     OW62518   9.400   7.081   6.613
20229SOL    HW162519   9.408   7.154   6.675
20229SOL    HW262520   9.305   7.068   6.605
20230SOL     OW62521   6.128  12.496  14.094
20230SOL    HW162522   6.069  12.421  14.083
20230SOL    HW262523   6.127  12.514  14.188
20231SOL     OW62524  11.726  10.887   5.317
20231SOL    HW162525  11.642  10.843   5.326
20231SOL    HW262526  11.740  10.930   5.401
20232SOL     OW62527  14.456  14.491  11.786
20232SOL    HW162528  14.460  14.468  11.693
20232SOL    HW262529  14.374  14.454  11.817
20233SOL     OW62530  10.264   3.777  10.751
20233SOL    HW162531  10.271   3.682  10.758
20233SOL    HW262532  10.216   3.792  10.670
20234SOL     OW62533   3.597  14.561   6.726
20234SOL    HW162534   3.585  14.650   6.693
20234SOL    HW262535   3.671  14.527   6.676
20235SOL     OW62536   7.389   9.592   7.881
20235SOL    HW162537   7.479   9.562   7.868
20235SOL    HW262538   7.364   9.557   7.967
20236SOL     OW62539   1.857   7.266   6.481
20236SOL    HW162540   1.889   7.180   6.458
20236SOL    HW262541   1.875   7.274   6.575
20237SOL     OW62542  11.144   2.812  14.282
20237SOL    HW162543  11.235   2.820  14.254
20237SOL    HW262544  11.133   2.877  14.350
20238SOL     OW62545   1.322  13.393  10.934
20238SOL    HW162546   1.243  13.382  10.880
20238SOL    HW262547   1.299  13.355  11.019
20239SOL     OW62548  10.662  10.084   5.814
20239SOL    HW162549  10.607  10.092   5.892
20239SOL    HW262550  10.639   9.999   5.777
20240SOL     OW62551  11.934  10.686   8.725
20240SOL    HW162552  11.921  10.613   8.664
20240SOL    HW262553  11.875  10.754   8.694
20241SOL     OW62554   6.471  12.156   0.336
20241SOL    HW162555   6.470  12.246   0.305
20241SOL    HW262556   6.386  12.144   0.378
20242SOL     OW62557   5.632   9.189   3.066
20242SOL    HW162558   5.683   9.112   3.090
20242SOL    HW262559   5.643   9.197   2.972
20243SOL     OW62560   5.894   9.224  10.443
20243SOL    HW162561   5.899   9.270  10.359
20243SOL    HW262562   5.884   9.293  10.508
20244SOL     OW62563   5.087   6.446   5.893
20244SOL    HW162564   5.178   6.441   5.922
20244SOL    HW262565   5.039   6.472   5.972
20245SOL     OW62566   6.144   2.359   2.921
20245SOL    HW162567   6.184   2.349   3.007
20245SOL    HW262568   6.084   2.284   2.913
20246SOL     OW62569   7.279   5.314  11.283
20246SOL    HW162570   7.276   5.340  11.191
20246SOL    HW262571   7.205   5.254  11.293
20247SOL     OW62572   2.490   4.304   7.545
20247SOL    HW162573   2.404   4.264   7.532
20247SOL    HW262574   2.553   4.236   7.519
20248SOL     OW62575   5.594  11.320   4.355
20248SOL    HW162576   5.576  11.230   4.331
20248SOL    HW262577   5.686  11.321   4.381
20249SOL     OW62578   8.420  14.813  12.378
20249SOL    HW162579   8.356   0.001  12.366
20249SOL    HW262580   8.397  14.747  12.312
20250SOL     OW62581  12.024  14.715   2.140
20250SOL    HW162582  12.004  14.623   2.122
20250SOL    HW262583  11.942  14.752   2.171
20251SOL     OW62584   4.256   2.177   3.859
20251SOL    HW162585   4.261   2.250   3.798
20251SOL    HW262586   4.313   2.110   3.821
20252SOL     OW62587   3.280  12.923  12.555
20252SOL    HW162588   3.210  12.899  12.495
20252SOL    HW262589   3.305  13.012  12.529
20253SOL     OW62590   4.926   6.091   8.235
20253SOL    HW162591   4.938   6.184   8.216
20253SOL    HW262592   4.853   6.088   8.297
20254SOL     OW62593   4.634   3.281   4.292
20254SOL    HW162594   4.636   3.360   4.238
20254SOL    HW262595   4.552   3.287   4.340
20255SOL     OW62596   1.763   5.596   7.636
20255SOL    HW162597   1.829   5.542   7.594
20255SOL    HW262598   1.756   5.561   7.725
20256SOL     OW62599   9.138   9.426   2.403
20256SOL    HW162600   9.099   9.343   2.430
20256SOL    HW262601   9.223   9.428   2.448
20257SOL     OW62602  14.206   7.591   7.796
20257SOL    HW162603  14.283   7.553   7.754
20257SOL    HW262604  14.231   7.598   7.888
20258SOL     OW62605   2.675   4.606   3.976
20258SOL    HW162606   2.650   4.690   3.937
20258SOL    HW262607   2.685   4.547   3.901
20259SOL     OW62608   1.101   0.990   8.686
20259SOL    HW162609   1.083   1.077   8.720
20259SOL    HW262610   1.115   1.003   8.592
20260SOL     OW62611   4.817  10.379   6.288
20260SOL    HW162612   4.737  10.394   6.237
20260SOL    HW262613   4.834  10.285   6.280
20261SOL     OW62614  10.691   3.073   0.552
20261SOL    HW162615  10.759   3.068   0.619
20261SOL    HW262616  10.739   3.079   0.470
20262SOL     OW62617  14.125   0.559   2.387
20262SOL    HW162618  14.049   0.581   2.441
20262SOL    HW262619  14.177   0.500   2.442
20263SOL     OW62620  11.491  13.300   2.983
20263SOL    HW162621  11.477  13.344   3.066
20263SOL    HW262622  11.403  13.292   2.945
20264SOL     OW62623   8.044   9.903   0.236
20264SOL    HW162624   8.067   9.994   0.255
20264SOL    HW262625   7.950   9.906   0.217
20265SOL     OW62626   0.465  14.028  11.269
20265SOL    HW162627   0.555  14.003  11.290
20265SOL    HW262628   0.425  13.948  11.234
20266SOL     OW62629   4.617  11.000   3.444
20266SOL    HW162630   4.555  10.951   3.390
20266SOL    HW262631   4.588  10.985   3.534
20267SOL     OW62632   6.046   3.580   6.071
20267SOL    HW162633   6.060   3.673   6.090
20267SOL    HW262634   5.982   3.580   6.000
20268SOL     OW62635   3.771   0.276  10.718
20268SOL    HW162636   3.740   0.366  10.729
20268SOL    HW262637   3.750   0.254  10.628
20269SOL     OW62638   5.255   9.465   8.684
20269SOL    HW162639   5.312   9.499   8.616
20269SOL    HW262640   5.285   9.508   8.764
20270SOL     OW62641   3.181   8.279   2.249
20270SOL    HW162642   3.116   8.268   2.318
20270SOL    HW262643   3.131   8.304   2.172
20271SOL     OW62644  10.097  10.267   9.846
20271SOL    HW162645  10.165  10.199   9.836
20271SOL    HW262646  10.055  10.272   9.761
20272SOL     OW62647  14.196   3.499  11.577
20272SOL    HW162648  14.257   3.427  11.562
20272SOL    HW262649  14.223   3.567  11.515
20273SOL     OW62650  10.610  11.837   4.152
20273SOL    HW162651  10.520  11.830   4.184
20273SOL    HW262652  10.664  11.805   4.224
20274SOL     OW62653  13.525  12.279   3.380
20274SOL    HW162654  13.550  12.344   3.446
20274SOL    HW262655  13.429  12.275   3.385
20275SOL     OW62656   0.144   9.325   6.894
20275SOL    HW162657   0.061   9.360   6.862
20275SOL    HW262658   0.204   9.336   6.820
20276SOL     OW62659   2.570   5.005   9.246
20276SOL    HW162660   2.507   5.070   9.278
20276SOL    HW262661   2.583   4.946   9.319
20277SOL     OW62662   6.380  12.028   7.598
20277SOL    HW162663   6.334  12.025   7.682
20277SOL    HW262664   6.310  12.037   7.534
20278SOL     OW62665   6.538   6.636  13.987
20278SOL    HW162666   6.468   6.625  13.922
20278SOL    HW262667   6.504   6.594  14.066
20279SOL     OW62668   4.915   7.013  10.084
20279SOL    HW162669   4.893   6.961  10.006
20279SOL    HW262670   4.892   6.957  10.158
20280SOL     OW62671   3.837   1.203   3.276
20280SOL    HW162672   3.882   1.158   3.347
20280SOL    HW262673   3.870   1.293   3.280
20281SOL     OW62674   2.600  11.934   5.016
20281SOL    HW162675   2.678  11.901   4.972
20281SOL    HW262676   2.589  12.023   4.981
20282SOL     OW62677  10.668  11.856   3.651
20282SOL    HW162678  10.712  11.929   3.608
20282SOL    HW262679  10.739  11.798   3.677
20283SOL     OW62680  11.528  10.774  12.438
20283SOL    HW162681  11.579  10.711  12.387
20283SOL    HW262682  11.438  10.743  12.430
20284SOL     OW62683   8.652   5.601  12.522
20284SOL    HW162684   8.564   5.640  12.522
20284SOL    HW262685   8.665   5.571  12.432
20285SOL     OW62686  12.607  13.266   5.576
20285SOL    HW162687  12.530  13.210   5.575
20285SOL    HW262688  12.671  13.221   5.521
20286SOL     OW62689   1.732   4.211  11.285
20286SOL    HW162690   1.770   4.250  11.363
20286SOL    HW262691   1.651   4.260  11.271
20287SOL     OW62692  10.952   4.751   2.120
20287SOL    HW162693  10.954   4.765   2.025
20287SOL    HW262694  10.860   4.731   2.139
20288SOL     OW62695   1.983   1.767  14.116
20288SOL    HW162696   2.020   1.723  14.039
20288SOL    HW262697   2.042   1.840  14.133
20289SOL     OW62698  13.306   7.586   9.284
20289SOL    HW162699  13.287   7.523   9.215
20289SOL    HW262700  13.264   7.667   9.255
20290SOL     OW62701   4.794   9.668  11.062
20290SOL    HW162702   4.803   9.574  11.045
20290SOL    HW262703   4.755   9.674  11.149
20291SOL     OW62704   1.232  13.034   4.987
20291SOL    HW162705   1.230  13.124   4.954
20291SOL    HW262706   1.149  13.024   5.035
20292SOL     OW62707   7.951  14.028   5.186
20292SOL    HW162708   7.885  13.992   5.246
20292SOL    HW262709   7.996  13.952   5.151
20293SOL     OW62710  13.241   3.224   7.024
20293SOL    HW162711  13.336   3.228   7.033
20293SOL    HW262712  13.208   3.287   7.089
20294SOL     OW62713  11.079  13.313   2.309
20294SOL    HW162714  11.084  13.402   2.274
20294SOL    HW262715  11.094  13.257   2.234
20295SOL     OW62716   8.864   0.848   9.408
20295SOL    HW162717   8.788   0.803   9.372
20295SOL    HW262718   8.930   0.843   9.339
20296SOL     OW62719   5.763  10.933  13.356
20296SOL    HW162720   5.724  10.954  13.441
20296SOL    HW262721   5.710  10.982  13.293
20297SOL     OW62722   0.709   7.119   6.196
20297SOL    HW162723   0.687   7.212   6.193
20297SOL    HW262724   0.785   7.114   6.252
20298SOL     OW62725   9.012   6.551   3.141
20298SOL    HW162726   9.063   6.600   3.205
20298SOL    HW262727   8.946   6.505   3.193
20299SOL     OW62728   5.358   8.907   8.882
20299SOL    HW162729   5.316   8.982   8.840
20299SOL    HW262730   5.388   8.853   8.808
20300SOL     OW62731   8.763  10.517   2.489
20300SOL    HW162732   8.791  10.490   2.402
20300SOL    HW262733   8.690  10.578   2.473
20301SOL     OW62734  12.729   3.843  14.400
20301SOL    HW162735  12.782   3.902  14.453
20301SOL    HW262736  12.757   3.755  14.426
20302SOL     OW62737   1.831   3.958   5.843
20302SOL    HW162738   1.791   3.980   5.927
20302SOL    HW262739   1.899   3.894   5.864
20303SOL     OW62740   1.615   8.551   5.806
20303SOL    HW162741   1.593   8.603   5.884
20303SOL    HW262742   1.684   8.601   5.763
20304SOL     OW62743   0.452  12.567   6.350
20304SOL    HW162744   0.416  12.490   6.306
20304SOL    HW262745   0.443  12.547   6.444
20305SOL     OW62746   8.123   7.834   3.926
20305SOL    HW162747   8.086   7.903   3.871
20305SOL    HW262748   8.054   7.816   3.991
20306SOL     OW62749   6.510   1.895   8.421
20306SOL    HW162750   6.441   1.829   8.411
20306SOL    HW262751   6.587   1.844   8.448
20307SOL     OW62752   2.971   1.656  13.006
20307SOL    HW162753   2.965   1.574  13.054
20307SOL    HW262754   3.010   1.718  13.068
20308SOL     OW62755  12.437   5.432   7.628
20308SOL    HW162756  12.494   5.508   7.610
20308SOL    HW262757  12.397   5.411   7.544
20309SOL     OW62758   3.754   3.562   4.746
20309SOL    HW162759   3.701   3.629   4.703
20309SOL    HW262760   3.691   3.506   4.791
20310SOL     OW62761  13.124   8.743  11.715
20310SOL    HW162762  13.042   8.774  11.676
20310SOL    HW262763  13.171   8.700  11.644
20311SOL     OW62764  14.401  10.026  11.791
20311SOL    HW162765  14.337  10.097  11.790
20311SOL    HW262766  14.422  10.011  11.698
20312SOL     OW62767   2.508   6.293   3.077
20312SOL    HW162768   2.504   6.231   3.004
20312SOL    HW262769   2.564   6.250   3.142
20313SOL     OW62770  12.686  13.047   3.912
20313SOL    HW162771  12.622  13.013   3.850
20313SOL    HW262772  12.638  13.054   3.995
20314SOL     OW62773   2.061   3.952  11.122
20314SOL    HW162774   2.019   3.897  11.055
20314SOL    HW262775   2.154   3.952  11.099
20315SOL     OW62776   2.629   7.551   4.762
20315SOL    HW162777   2.714   7.545   4.719
20315SOL    HW262778   2.647   7.596   4.845
20316SOL     OW62779  11.278   8.447  10.103
20316SOL    HW162780  11.270   8.413  10.014
20316SOL    HW262781  11.338   8.520  10.096
20317SOL     OW62782   2.607  11.677   3.506
20317SOL    HW162783   2.582  11.623   3.432
20317SOL    HW262784   2.648  11.754   3.466
20318SOL     OW62785   1.197   9.846   2.689
20318SOL    HW162786   1.200   9.880   2.778
20318SOL    HW262787   1.203   9.924   2.634
20319SOL     OW62788   2.598   8.381   7.349
20319SOL    HW162789   2.650   8.451   7.309
20319SOL    HW262790   2.611   8.306   7.290
20320SOL     OW62791   0.482   8.760   4.772
20320SOL    HW162792   0.531   8.820   4.715
20320SOL    HW262793   0.539   8.744   4.846
20321SOL     OW62794   0.302   7.879  11.292
20321SOL    HW162795   0.363   7.907  11.224
20321SOL    HW262796   0.219   7.921  11.268
20322SOL     OW62797   5.374   5.395   6.128
20322SOL    HW162798   5.399   5.342   6.205
20322SOL    HW262799   5.285   5.368   6.109
20323SOL     OW62800   9.107   0.142  12.866
20323SOL    HW162801   9.021   0.179  12.847
20323SOL    HW262802   9.097   0.048  12.852
20324SOL     OW62803  12.945  13.333  12.874
20324SOL    HW162804  12.942  13.357  12.967
20324SOL    HW262805  13.028  13.285  12.866
20325SOL     OW62806  11.492   0.348   2.497
20325SOL    HW162807  11.489   0.285   2.569
20325SOL    HW262808  11.430   0.313   2.433
20326SOL     OW62809  10.657   2.050  11.436
20326SOL    HW162810  10.691   2.076  11.350
20326SOL    HW262811  10.675   2.125  11.492
20327SOL     OW62812  11.181  11.042   5.928
20327SOL    HW162813  11.198  11.083   5.843
20327SOL    HW262814  11.092  11.070   5.951
20328SOL     OW62815   5.526   3.608   0.658
20328SOL    HW162816   5.490   3.584   0.573
20328SOL    HW262817   5.452   3.646   0.706
20329SOL     OW62818  12.600   8.747   7.659
20329SOL    HW162819  12.564   8.717   7.743
20329SOL    HW262820  12.661   8.678   7.634
20330SOL     OW62821  11.112   8.124   4.762
20330SOL    HW162822  11.106   8.088   4.850
20330SOL    HW262823  11.146   8.213   4.774
20331SOL     OW62824   7.779   5.710   1.743
20331SOL    HW162825   7.721   5.691   1.817
20331SOL    HW262826   7.722   5.704   1.666
20332SOL     OW62827   3.727   9.828  13.028
20332SOL    HW162828   3.648   9.780  13.050
20332SOL    HW262829   3.797   9.762  13.032
20333SOL     OW62830  12.263  11.017  12.185
20333SOL    HW162831  12.214  11.097  12.165
20333SOL    HW262832  12.346  11.047  12.221
20334SOL     OW62833  10.466  13.447  12.487
20334SOL    HW162834  10.472  13.543  12.487
20334SOL    HW262835  10.416  13.426  12.408
20335SOL     OW62836  10.365  11.251   7.469
20335SOL    HW162837  10.353  11.274   7.377
20335SOL    HW262838  10.277  11.229   7.500
20336SOL     OW62839   9.178  11.199   4.096
20336SOL    HW162840   9.140  11.205   4.184
20336SOL    HW262841   9.249  11.135   4.105
20337SOL     OW62842  11.134  10.113  12.547
20337SOL    HW162843  11.101  10.201  12.533
20337SOL    HW262844  11.154  10.109  12.641
20338SOL     OW62845  10.166   6.407   1.390
20338SOL    HW162846  10.217   6.399   1.310
20338SOL    HW262847  10.163   6.502   1.407
20339SOL     OW62848   6.751  10.390   3.358
20339SOL    HW162849   6.666  10.358   3.326
20339SOL    HW262850   6.779  10.454   3.293
20340SOL     OW62851   8.455  10.466   4.349
20340SOL    HW162852   8.517  10.481   4.277
20340SOL    HW262853   8.376  10.513   4.322
20341SOL     OW62854   1.678   0.477  11.747
20341SOL    HW162855   1.586   0.486  11.774
20341SOL    HW262856   1.707   0.395  11.788
20342SOL     OW62857   5.009   9.028   3.060
20342SOL    HW162858   4.919   9.018   3.031
20342SOL    HW262859   5.033   8.942   3.096
20343SOL     OW62860   5.099  10.495  10.081
20343SOL    HW162861   5.035  10.565  10.095
20343SOL    HW262862   5.067  10.449  10.003
20344SOL     OW62863  11.488   7.909   3.195
20344SOL    HW162864  11.455   7.861   3.271
20344SOL    HW262865  11.532   7.843   3.142
20345SOL     OW62866   6.696  11.822   4.232
20345SOL    HW162867   6.726  11.897   4.282
20345SOL    HW262868   6.627  11.782   4.285
20346SOL     OW62869   8.729  14.523  11.082
20346SOL    HW162870   8.794  14.589  11.055
20346SOL    HW262871   8.680  14.504  11.002
20347SOL     OW62872   9.035  10.625   8.402
20347SOL    HW162873   8.940  10.635   8.392
20347SOL    HW262874   9.067  10.616   8.312
20348SOL     OW62875  11.429  13.157   0.926
20348SOL    HW162876  11.387  13.074   0.946
20348SOL    HW262877  11.509  13.134   0.880
20349SOL     OW62878   4.028   7.453   9.072
20349SOL    HW162879   4.024   7.401   9.152
20349SOL    HW262880   3.960   7.519   9.083
20350SOL     OW62881   2.459   7.480   2.414
20350SOL    HW162882   2.406   7.428   2.474
20350SOL    HW262883   2.397   7.523   2.356
20351SOL     OW62884  12.752   7.519   9.696
20351SOL    HW162885  12.698   7.597   9.699
20351SOL    HW262886  12.718   7.469   9.621
20352SOL     OW62887  13.966   2.175   5.887
20352SOL    HW162888  13.959   2.198   5.794
20352SOL    HW262889  13.905   2.234   5.931
20353SOL     OW62890   6.302   3.164   5.978
20353SOL    HW162891   6.223   3.123   5.943
20353SOL    HW262892   6.292   3.257   5.957
20354SOL     OW62893   9.158   6.292   9.501
20354SOL    HW162894   9.216   6.218   9.481
20354SOL    HW262895   9.208   6.369   9.477
20355SOL     OW62896   5.333   2.908   3.939
20355SOL    HW162897   5.305   2.911   4.031
20355SOL    HW262898   5.348   2.999   3.915
20356SOL     OW62899   4.994   8.339   9.791
20356SOL    HW162900   5.020   8.286   9.866
20356SOL    HW262901   5.077   8.370   9.754
20357SOL     OW62902   9.565  12.453   0.985
20357SOL    HW162903   9.615  12.432   1.064
20357SOL    HW262904   9.547  12.547   0.991
20358SOL     OW62905   5.758  12.670   7.592
20358SOL    HW162906   5.732  12.664   7.500
20358SOL    HW262907   5.846  12.709   7.589
20359SOL     OW62908   3.767  13.097   7.427
20359SOL    HW162909   3.714  13.077   7.505
20359SOL    HW262910   3.703  13.108   7.357
20360SOL     OW62911   1.370   4.757   0.440
20360SOL    HW162912   1.440   4.695   0.419
20360SOL    HW262913   1.381   4.827   0.376
20361SOL     OW62914   2.982   8.330   6.431
20361SOL    HW162915   2.949   8.249   6.392
20361SOL    HW262916   3.065   8.346   6.387
20362SOL     OW62917  14.670   6.259   7.783
20362SOL    HW162918  14.584   6.228   7.810
20362SOL    HW262919  14.669   6.353   7.804
20363SOL     OW62920  13.655   4.934   3.566
20363SOL    HW162921  13.748   4.925   3.546
20363SOL    HW262922  13.617   4.848   3.547
20364SOL     OW62923   9.186  12.996   4.371
20364SOL    HW162924   9.149  13.083   4.356
20364SOL    HW262925   9.256  12.987   4.306
20365SOL     OW62926   4.435  10.573   5.355
20365SOL    HW162927   4.501  10.625   5.402
20365SOL    HW262928   4.366  10.636   5.334
20366SOL     OW62929  11.299   7.703   2.953
20366SOL    HW162930  11.212   7.697   2.912
20366SOL    HW262931  11.337   7.782   2.916
20367SOL     OW62932   4.682   3.073  11.074
20367SOL    HW162933   4.679   3.007  11.005
20367SOL    HW262934   4.770   3.110  11.068
20368SOL     OW62935  14.020   4.305   3.444
20368SOL    HW162936  14.058   4.379   3.491
20368SOL    HW262937  14.013   4.336   3.353
20369SOL     OW62938   7.088   9.500   4.254
20369SOL    HW162939   7.134   9.494   4.337
20369SOL    HW262940   7.155   9.529   4.192
20370SOL     OW62941   5.732   8.938  11.213
20370SOL    HW162942   5.749   8.958  11.122
20370SOL    HW262943   5.765   8.849  11.225
20371SOL     OW62944  12.514   7.523  13.429
20371SOL    HW162945  12.483   7.510  13.519
20371SOL    HW262946  12.607   7.544  13.438
20372SOL     OW62947  13.056   4.324   4.634
20372SOL    HW162948  13.097   4.349   4.717
20372SOL    HW262949  13.001   4.249   4.656
20373SOL     OW62950  12.652   1.721  13.272
20373SOL    HW162951  12.622   1.643  13.319
20373SOL    HW262952  12.603   1.720  13.190
20374SOL     OW62953  12.276   2.962   3.344
20374SOL    HW162954  12.275   2.965   3.248
20374SOL    HW262955  12.205   2.901   3.366
20375SOL     OW62956   0.410   6.038   8.073
20375SOL    HW162957   0.454   6.058   8.155
20375SOL    HW262958   0.471   5.980   8.026
20376SOL     OW62959   0.056   4.154  12.277
20376SOL    HW162960   0.031   4.084  12.337
20376SOL    HW262961   0.011   4.134  12.196
20377SOL     OW62962   4.382   8.622  11.549
20377SOL    HW162963   4.305   8.564  11.544
20377SOL    HW262964   4.346   8.710  11.538
20378SOL     OW62965   3.474  13.794   3.813
20378SOL    HW162966   3.485  13.718   3.755
20378SOL    HW262967   3.413  13.763   3.881
20379SOL     OW62968   9.943   3.824  10.396
20379SOL    HW162969   9.851   3.829  10.370
20379SOL    HW262970   9.982   3.904  10.361
20380SOL     OW62971   5.531   9.913   7.828
20380SOL    HW162972   5.457   9.863   7.794
20380SOL    HW262973   5.522   9.908   7.923
20381SOL     OW62974  14.048   8.439   4.585
20381SOL    HW162975  14.009   8.404   4.665
20381SOL    HW262976  13.976   8.483   4.540
20382SOL     OW62977   9.860   3.769   7.951
20382SOL    HW162978   9.853   3.863   7.962
20382SOL    HW262979   9.856   3.755   7.856
20383SOL     OW62980  13.442  12.692   4.932
20383SOL    HW162981  13.529  12.732   4.930
20383SOL    HW262982  13.403  12.717   4.849
20384SOL     OW62983   9.252  12.675   6.781
20384SOL    HW162984   9.214  12.608   6.837
20384SOL    HW262985   9.204  12.755   6.802
20385SOL     OW62986   5.840   8.319   9.327
20385SOL    HW162987   5.882   8.388   9.276
20385SOL    HW262988   5.775   8.282   9.267
20386SOL     OW62989   2.166  10.507   0.466
20386SOL    HW162990   2.140  10.462   0.547
20386SOL    HW262991   2.161  10.440   0.398
20387SOL     OW62992   4.188   9.808  13.844
20387SOL    HW162993   4.239   9.727  13.856
20387SOL    HW262994   4.254   9.877  13.843
20388SOL     OW62995  10.614  10.697   8.258
20388SOL    HW162996  10.573  10.641   8.323
20388SOL    HW262997  10.547  10.761   8.235
20389SOL     OW62998   4.342   9.154   2.855
20389SOL    HW162999   4.314   9.245   2.858
20389SOL    HW263000   4.371   9.140   2.765
20390SOL     OW63001   6.956  12.522  12.359
20390SOL    HW163002   7.007  12.568  12.293
20390SOL    HW263003   6.993  12.552  12.443
20391SOL     OW63004  13.096   7.423  14.770
20391SOL    HW163005  13.076   7.513  14.796
20391SOL    HW263006  13.011   7.379  14.768
20392SOL     OW63007  13.023   5.229  12.665
20392SOL    HW163008  12.978   5.198  12.586
20392SOL    HW263009  13.055   5.316  12.641
20393SOL     OW63010  12.945   6.131  13.807
20393SOL    HW163011  12.868   6.188  13.814
20393SOL    HW263012  12.929   6.062  13.871
20394SOL     OW63013   2.513   1.088   0.063
20394SOL    HW163014   2.527   1.123  14.857
20394SOL    HW263015   2.589   1.033   0.079
20395SOL     OW63016  12.255  12.963  10.070
20395SOL    HW163017  12.312  13.023  10.119
20395SOL    HW263018  12.169  12.974  10.110
20396SOL     OW63019   8.648  13.325   3.506
20396SOL    HW163020   8.707  13.324   3.431
20396SOL    HW263021   8.590  13.250   3.492
20397SOL     OW63022  11.987   8.962  10.843
20397SOL    HW163023  11.894   8.949  10.824
20397SOL    HW263024  12.026   8.876  10.830
20398SOL     OW63025   3.059   9.577   9.014
20398SOL    HW163026   3.066   9.605   8.922
20398SOL    HW263027   3.144   9.598   9.052
20399SOL     OW63028  11.437   6.377  10.830
20399SOL    HW163029  11.399   6.408  10.747
20399SOL    HW263030  11.444   6.456  10.883
20400SOL     OW63031  14.615   0.250   8.838
20400SOL    HW163032  14.557   0.220   8.768
20400SOL    HW263033  14.687   0.187   8.838
20401SOL     OW63034   2.250   3.881   6.854
20401SOL    HW163035   2.205   3.870   6.937
20401SOL    HW263036   2.335   3.838   6.867
20402SOL     OW63037   3.684  13.511  10.816
20402SOL    HW163038   3.688  13.418  10.839
20402SOL    HW263039   3.591  13.533  10.821
20403SOL     OW63040  14.868   0.696   0.467
20403SOL    HW163041  14.812   0.751   0.413
20403SOL    HW263042  14.872   0.741   0.552
20404SOL     OW63043   8.852  10.840   1.102
20404SOL    HW163044   8.900  10.757   1.110
20404SOL    HW263045   8.805  10.833   1.019
20405SOL     OW63046   4.508   0.662   2.209
20405SOL    HW163047   4.585   0.605   2.212
20405SOL    HW263048   4.449   0.620   2.147
20406SOL     OW63049  14.685   0.992  12.073
20406SOL    HW163050  14.755   1.044  12.112
20406SOL    HW263051  14.635   0.961  12.149
20407SOL     OW63052   1.551   8.147  14.596
20407SOL    HW163053   1.645   8.163  14.586
20407SOL    HW263054   1.544   8.053  14.609
20408SOL     OW63055   7.907   6.664  14.460
20408SOL    HW163056   7.833   6.724  14.451
20408SOL    HW263057   7.983   6.721  14.471
20409SOL     OW63058   8.764   4.991   8.770
20409SOL    HW163059   8.683   5.026   8.808
20409SOL    HW263060   8.747   4.898   8.760
20410SOL     OW63061  10.940   6.145   5.158
20410SOL    HW163062  10.993   6.208   5.107
20410SOL    HW263063  11.004   6.083   5.192
20411SOL     OW63064   2.490  13.506  10.996
20411SOL    HW163065   2.487  13.506  11.092
20411SOL    HW263066   2.576  13.544  10.975
20412SOL     OW63067   4.282   6.589   9.172
20412SOL    HW163068   4.287   6.496   9.192
20412SOL    HW263069   4.351   6.629   9.224
20413SOL     OW63070   8.034   8.284   6.840
20413SOL    HW163071   8.006   8.222   6.773
20413SOL    HW263072   7.980   8.263   6.916
20414SOL     OW63073   8.941  12.061   3.961
20414SOL    HW163074   8.947  11.973   3.925
20414SOL    HW263075   8.976  12.053   4.050
20415SOL     OW63076  12.259   4.817   6.161
20415SOL    HW163077  12.237   4.840   6.071
20415SOL    HW263078  12.341   4.768   6.154
20416SOL     OW63079   9.005   4.164   1.122
20416SOL    HW163080   9.002   4.097   1.191
20416SOL    HW263081   8.916   4.197   1.116
20417SOL     OW63082  12.566   7.618  10.744
20417SOL    HW163083  12.609   7.667  10.675
20417SOL    HW263084  12.477   7.604  10.712
20418SOL     OW63085   0.221  11.268  11.868
20418SOL    HW163086   0.131  11.291  11.893
20418SOL    HW263087   0.228  11.174  11.886
20419SOL     OW63088  13.095   9.746   0.428
20419SOL    HW163089  13.129   9.683   0.365
20419SOL    HW263090  13.001   9.749   0.411
20420SOL     OW63091  11.558   8.062   1.337
20420SOL    HW163092  11.605   8.013   1.270
20420SOL    HW263093  11.486   8.005   1.362
20421SOL     OW63094  14.622   0.012  12.110
20421SOL    HW163095  14.625   0.100  12.072
20421SOL    HW263096  14.532   0.002  12.142
20422SOL     OW63097  12.750  12.515   2.836
20422SOL    HW163098  12.829  12.461   2.839
20422SOL    HW263099  12.745  12.556   2.922
20423SOL     OW63100   9.381  10.054   0.535
20423SOL    HW163101   9.356   9.963   0.527
20423SOL    HW263102   9.374  10.074   0.628
20424SOL     OW63103  10.282   9.198  14.644
20424SOL    HW163104  10.267   9.292  14.658
20424SOL    HW263105  10.368   9.182  14.683
20425SOL     OW63106   2.290   7.542  10.569
20425SOL    HW163107   2.368   7.516  10.618
20425SOL    HW263108   2.232   7.466  10.575
20426SOL     OW63109   1.260   6.880   2.378
20426SOL    HW163110   1.354   6.868   2.364
20426SOL    HW263111   1.249   6.973   2.394
20427SOL     OW63112  13.803   3.090   4.542
20427SOL    HW163113  13.780   3.165   4.596
20427SOL    HW263114  13.895   3.106   4.517
20428SOL     OW63115   8.311  11.198   6.512
20428SOL    HW163116   8.299  11.244   6.429
20428SOL    HW263117   8.335  11.267   6.574
20429SOL     OW63118   0.194   8.243  11.286
20429SOL    HW163119   0.110   8.203  11.261
20429SOL    HW263120   0.232   8.271  11.203
20430SOL     OW63121   9.443   0.255  12.291
20430SOL    HW163122   9.464   0.345  12.266
20430SOL    HW263123   9.356   0.262  12.331
20431SOL     OW63124   1.238   5.884   1.561
20431SOL    HW163125   1.315   5.831   1.545
20431SOL    HW263126   1.179   5.828   1.612
20432SOL     OW63127   9.969  13.268   1.936
20432SOL    HW163128  10.020  13.191   1.910
20432SOL    HW263129  10.015  13.341   1.896
20433SOL     OW63130   0.281   2.187   9.289
20433SOL    HW163131   0.239   2.223   9.366
20433SOL    HW263132   0.219   2.203   9.218
20434SOL     OW63133   5.392  11.709   4.407
20434SOL    HW163134   5.407  11.700   4.501
20434SOL    HW263135   5.306  11.750   4.400
20435SOL     OW63136  13.895   5.431  14.166
20435SOL    HW163137  13.842   5.506  14.142
20435SOL    HW263138  13.847   5.389  14.238
20436SOL     OW63139   4.122  10.573  11.463
20436SOL    HW163140   4.165  10.559  11.548
20436SOL    HW263141   4.173  10.643  11.422
20437SOL     OW63142   3.779   6.332  11.851
20437SOL    HW163143   3.855   6.274  11.851
20437SOL    HW263144   3.783   6.378  11.935
20438SOL     OW63145   9.084  13.828   3.396
20438SOL    HW163146   8.990  13.811   3.402
20438SOL    HW263147   9.092  13.901   3.334
20439SOL     OW63148  10.633   1.405  12.471
20439SOL    HW163149  10.619   1.312  12.451
20439SOL    HW263150  10.571   1.424  12.541
20440SOL     OW63151   4.669  13.087   7.287
20440SOL    HW163152   4.732  13.144   7.331
20440SOL    HW263153   4.687  12.999   7.321
20441SOL     OW63154   2.336  10.596   1.725
20441SOL    HW163155   2.383  10.669   1.765
20441SOL    HW263156   2.271  10.571   1.791
20442SOL     OW63157   1.937   7.387  11.349
20442SOL    HW163158   1.963   7.399  11.258
20442SOL    HW263159   1.846   7.417  11.352
20443SOL     OW63160   8.624  12.438   5.724
20443SOL    HW163161   8.662  12.507   5.777
20443SOL    HW263162   8.582  12.484   5.651
20444SOL     OW63163   2.414  12.762  13.417
20444SOL    HW163164   2.395  12.676  13.454
20444SOL    HW263165   2.351  12.821  13.458
20445SOL     OW63166  10.535   9.208   7.882
20445SOL    HW163167  10.581   9.250   7.810
20445SOL    HW263168  10.527   9.276   7.949
20446SOL     OW63169   4.347   9.591   6.203
20446SOL    HW163170   4.274   9.601   6.263
20446SOL    HW263171   4.327   9.510   6.156
20447SOL     OW63172  12.647   6.524   7.653
20447SOL    HW163173  12.615   6.435   7.639
20447SOL    HW263174  12.735   6.513   7.689
20448SOL     OW63175  13.842  13.443   5.133
20448SOL    HW163176  13.811  13.515   5.077
20448SOL    HW263177  13.776  13.374   5.122
20449SOL     OW63178  14.671   1.529   5.965
20449SOL    HW163179  14.740   1.526   6.031
20449SOL    HW263180  14.590   1.523   6.015
20450SOL     OW63181  13.323  10.532   9.698
20450SOL    HW163182  13.372  10.555   9.619
20450SOL    HW263183  13.231  10.544   9.673
20451SOL     OW63184   9.887   4.446   1.327
20451SOL    HW163185   9.908   4.438   1.234
20451SOL    HW263186   9.797   4.414   1.335
20452SOL     OW63187  12.237   6.732   7.132
20452SOL    HW163188  12.171   6.787   7.174
20452SOL    HW263189  12.215   6.735   7.039
20453SOL     OW63190   7.515  10.313   1.108
20453SOL    HW163191   7.486  10.397   1.144
20453SOL    HW263192   7.488  10.248   1.174
20454SOL     OW63193  12.036   4.440  13.486
20454SOL    HW163194  11.974   4.512  13.492
20454SOL    HW263195  12.119   4.477  13.515
20455SOL     OW63196   1.155   7.441   9.241
20455SOL    HW163197   1.072   7.417   9.283
20455SOL    HW263198   1.222   7.413   9.303
20456SOL     OW63199   4.292   9.518  12.404
20456SOL    HW163200   4.351   9.472  12.344
20456SOL    HW263201   4.218   9.459  12.415
20457SOL     OW63202   0.967   4.113   3.622
20457SOL    HW163203   0.942   4.191   3.574
20457SOL    HW263204   0.890   4.091   3.675
20458SOL     OW63205  13.128   1.326   9.399
20458SOL    HW163206  13.041   1.288   9.412
20458SOL    HW263207  13.115   1.395   9.334
20459SOL     OW63208   3.594  12.454   3.732
20459SOL    HW163209   3.595  12.490   3.821
20459SOL    HW263210   3.626  12.525   3.677
20460SOL     OW63211   4.723   6.942  11.036
20460SOL    HW163212   4.702   6.939  10.943
20460SOL    HW263213   4.783   7.016  11.044
20461SOL     OW63214   8.465   6.345   4.753
20461SOL    HW163215   8.482   6.384   4.838
20461SOL    HW263216   8.390   6.392   4.718
20462SOL     OW63217   0.206   1.055   2.590
20462SOL    HW163218   0.288   1.101   2.571
20462SOL    HW263219   0.188   1.006   2.509
20463SOL     OW63220   0.055   2.267  13.229
20463SOL    HW163221  14.847   2.297  13.236
20463SOL    HW263222   0.048   2.173  13.212
20464SOL     OW63223   3.976   2.063  10.627
20464SOL    HW163224   3.901   2.122  10.636
20464SOL    HW263225   3.950   2.000  10.560
20465SOL     OW63226   7.155  14.703   0.645
20465SOL    HW163227   7.140  14.609   0.652
20465SOL    HW263228   7.070  14.740   0.624
20466SOL     OW63229  11.143   6.489   5.172
20466SOL    HW163230  11.108   6.495   5.261
20466SOL    HW263231  11.219   6.547   5.171
20467SOL     OW63232   8.372   9.236  12.804
20467SOL    HW163233   8.363   9.302  12.872
20467SOL    HW263234   8.466   9.218  12.801
20468SOL     OW63235   6.301  14.265   6.194
20468SOL    HW163236   6.393  14.256   6.167
20468SOL    HW263237   6.265  14.330   6.133
20469SOL     OW63238  12.857   1.858  10.134
20469SOL    HW163239  12.826   1.942  10.169
20469SOL    HW263240  12.923   1.829  10.197
20470SOL     OW63241   9.785  13.072   2.969
20470SOL    HW163242   9.828  13.140   2.918
20470SOL    HW263243   9.855  13.010   2.990
20471SOL     OW63244  14.641   7.868   2.724
20471SOL    HW163245  14.557   7.901   2.692
20471SOL    HW263246  14.691   7.851   2.644
20472SOL     OW63247  10.130   3.789   9.823
20472SOL    HW163248  10.205   3.832   9.782
20472SOL    HW263249  10.055   3.843   9.797
20473SOL     OW63250   3.049   9.991  14.652
20473SOL    HW163251   2.985   9.985  14.581
20473SOL    HW263252   3.077   9.901  14.667
20474SOL     OW63253   2.965   1.451  13.858
20474SOL    HW163254   3.023   1.468  13.933
20474SOL    HW263255   2.997   1.508  13.789
20475SOL     OW63256   0.801  14.363   7.011
20475SOL    HW163257   0.731  14.306   6.981
20475SOL    HW263258   0.797  14.439   6.953
20476SOL     OW63259  10.499   1.423   4.418
20476SOL    HW163260  10.544   1.459   4.341
20476SOL    HW263261  10.417   1.387   4.383
20477SOL     OW63262  13.776   0.597   8.195
20477SOL    HW163263  13.724   0.577   8.272
20477SOL    HW263264  13.777   0.515   8.145
20478SOL     OW63265   3.820   0.951   6.638
20478SOL    HW163266   3.834   1.046   6.638
20478SOL    HW263267   3.825   0.926   6.545
20479SOL     OW63268   8.758   5.924  11.871
20479SOL    HW163269   8.830   5.959  11.819
20479SOL    HW263270   8.691   5.992  11.869
20480SOL     OW63271   4.269  12.892   5.920
20480SOL    HW163272   4.264  12.969   5.863
20480SOL    HW263273   4.229  12.920   6.002
20481SOL     OW63274   7.450   0.849   7.528
20481SOL    HW163275   7.360   0.868   7.556
20481SOL    HW263276   7.440   0.811   7.440
20482SOL     OW63277   2.322  10.890   4.303
20482SOL    HW163278   2.362  10.850   4.226
20482SOL    HW263279   2.246  10.937   4.268
20483SOL     OW63280   1.813   2.047   6.045
20483SOL    HW163281   1.849   2.070   6.130
20483SOL    HW263282   1.816   1.951   6.042
20484SOL     OW63283   6.626  14.296   6.519
20484SOL    HW163284   6.592  14.373   6.474
20484SOL    HW263285   6.709  14.324   6.558
20485SOL     OW63286   0.161  11.863   0.542
20485SOL    HW163287   0.214  11.824   0.611
20485SOL    HW263288   0.157  11.956   0.564
20486SOL     OW63289   6.699  12.130   4.555
20486SOL    HW163290   6.604  12.122   4.561
20486SOL    HW263291   6.718  12.111   4.463
20487SOL     OW63292   3.086   8.488  11.068
20487SOL    HW163293   3.018   8.549  11.040
20487SOL    HW263294   3.038   8.410  11.095
20488SOL     OW63295   8.556  14.545   1.068
20488SOL    HW163296   8.549  14.573   1.159
20488SOL    HW263297   8.639  14.497   1.064
20489SOL     OW63298   3.016  11.963  13.623
20489SOL    HW163299   3.045  11.919  13.703
20489SOL    HW263300   2.921  11.951  13.622
20490SOL     OW63301   0.140   6.181   3.581
20490SOL    HW163302   0.236   6.184   3.583
20490SOL    HW263303   0.114   6.184   3.673
20491SOL     OW63304   9.762  12.876  12.587
20491SOL    HW163305   9.706  12.894  12.662
20491SOL    HW263306   9.836  12.827  12.624
20492SOL     OW63307   8.017   8.657   6.678
20492SOL    HW163308   8.101   8.668   6.633
20492SOL    HW263309   7.974   8.585   6.632
20493SOL     OW63310   3.387   2.971  13.537
20493SOL    HW163311   3.331   3.034  13.582
20493SOL    HW263312   3.424   2.918  13.608
20494SOL     OW63313   3.621   3.259  12.492
20494SOL    HW163314   3.602   3.214  12.409
20494SOL    HW263315   3.604   3.194  12.559
20495SOL     OW63316  13.989   0.929   1.792
20495SOL    HW163317  14.054   0.902   1.858
20495SOL    HW263318  13.906   0.932   1.840
20496SOL     OW63319   1.744   7.888   5.607
20496SOL    HW163320   1.832   7.851   5.616
20496SOL    HW263321   1.749   7.972   5.652
20497SOL     OW63322   2.232   5.287   0.841
20497SOL    HW163323   2.181   5.248   0.771
20497SOL    HW263324   2.296   5.220   0.864
20498SOL     OW63325   6.239   7.498  11.664
20498SOL    HW163326   6.148   7.468  11.665
20498SOL    HW263327   6.269   7.485  11.754
20499SOL     OW63328   8.904   0.196   3.575
20499SOL    HW163329   8.985   0.211   3.526
20499SOL    HW263330   8.842   0.260   3.539
20500SOL     OW63331   6.700  10.767   7.222
20500SOL    HW163332   6.692  10.817   7.141
20500SOL    HW263333   6.780  10.715   7.210
20501SOL     OW63334  11.173   7.190   0.191
20501SOL    HW163335  11.103   7.126   0.176
20501SOL    HW263336  11.224   7.154   0.263
20502SOL     OW63337   0.005  14.227   7.758
20502SOL    HW163338   0.034  14.307   7.804
20502SOL    HW263339  14.867  14.165   7.828
20503SOL     OW63340   1.431  12.313   3.194
20503SOL    HW163341   1.513  12.332   3.240
20503SOL    HW263342   1.381  12.394   3.200
20504SOL     OW63343   0.435   6.380  13.768
20504SOL    HW163344   0.425   6.414  13.679
20504SOL    HW263345   0.480   6.450  13.815
20505SOL     OW63346  14.729   7.817  10.282
20505SOL    HW163347  14.648   7.800  10.233
20505SOL    HW263348  14.790   7.749  10.250
20506SOL     OW63349   5.831  12.131   3.038
20506SOL    HW163350   5.788  12.143   2.953
20506SOL    HW263351   5.842  12.037   3.047
20507SOL     OW63352   7.466  10.159  14.303
20507SOL    HW163353   7.506  10.105  14.234
20507SOL    HW263354   7.518  10.139  14.381
20508SOL     OW63355  10.062   0.334  11.859
20508SOL    HW163356  10.040   0.331  11.765
20508SOL    HW263357  10.077   0.427  11.877
20509SOL     OW63358   5.092   8.672   7.467
20509SOL    HW163359   5.185   8.652   7.452
20509SOL    HW263360   5.048   8.587   7.458
20510SOL     OW63361  10.126   5.876  11.941
20510SOL    HW163362  10.133   5.921  12.025
20510SOL    HW263363  10.153   5.786  11.960
20511SOL     OW63364  13.470   8.541   0.571
20511SOL    HW163365  13.441   8.474   0.509
20511SOL    HW263366  13.390   8.569   0.615
20512SOL     OW63367   2.187   0.371   0.808
20512SOL    HW163368   2.120   0.328   0.861
20512SOL    HW263369   2.146   0.382   0.722
20513SOL     OW63370  13.662  13.886   3.543
20513SOL    HW163371  13.655  13.817   3.478
20513SOL    HW263372  13.688  13.963   3.493
20514SOL     OW63373   4.192  10.095   8.058
20514SOL    HW163374   4.234  10.142   7.986
20514SOL    HW263375   4.258  10.091   8.127
20515SOL     OW63376   1.171  12.277   4.451
20515SOL    HW163377   1.139  12.198   4.406
20515SOL    HW263378   1.258  12.252   4.483
20516SOL     OW63379  11.783   7.202   2.244
20516SOL    HW163380  11.761   7.182   2.153
20516SOL    HW263381  11.869   7.244   2.239
20517SOL     OW63382  13.430  10.338  14.264
20517SOL    HW163383  13.357  10.281  14.240
20517SOL    HW263384  13.412  10.361  14.356
20518SOL     OW63385   6.112   0.044  10.885
20518SOL    HW163386   6.104   0.131  10.847
20518SOL    HW263387   6.120   0.059  10.979
20519SOL     OW63388   6.416   4.182   9.849
20519SOL    HW163389   6.443   4.092   9.829
20519SOL    HW263390   6.342   4.172   9.910
20520SOL     OW63391  12.720  12.367   8.669
20520SOL    HW163392  12.700  12.283   8.710
20520SOL    HW263393  12.777  12.411   8.732
20521SOL     OW63394   9.964  12.548  12.222
20521SOL    HW163395   9.895  12.580  12.279
20521SOL    HW263396   9.919  12.521  12.142
20522SOL     OW63397  13.042   1.082   0.288
20522SOL    HW163398  12.948   1.073   0.274
20522SOL    HW263399  13.081   1.012   0.236
20523SOL     OW63400   3.664  14.113  12.091
20523SOL    HW163401   3.632  14.132  12.179
20523SOL    HW263402   3.586  14.098  12.038
20524SOL     OW63403  13.410   3.516   4.874
20524SOL    HW163404  13.474   3.574   4.915
20524SOL    HW263405  13.353   3.488   4.945
20525SOL     OW63406   8.380   8.998   6.050
20525SOL    HW163407   8.313   9.057   6.017
20525SOL    HW263408   8.347   8.970   6.136
20526SOL     OW63409   7.682   8.276   6.791
20526SOL    HW163410   7.703   8.218   6.864
20526SOL    HW263411   7.704   8.225   6.713
20527SOL     OW63412   9.195   7.381   1.417
20527SOL    HW163413   9.288   7.404   1.422
20527SOL    HW263414   9.188   7.296   1.461
20528SOL     OW63415  13.485  12.959  12.335
20528SOL    HW163416  13.426  12.894  12.373
20528SOL    HW263417  13.559  12.908  12.302
20529SOL     OW63418  12.419   5.355   5.032
20529SOL    HW163419  12.349   5.350   4.968
20529SOL    HW263420  12.498   5.332   4.983
20530SOL     OW63421  12.695  13.839  12.648
20530SOL    HW163422  12.765  13.829  12.583
20530SOL    HW263423  12.710  13.768  12.710
20531SOL     OW63424  13.271  12.884  10.874
20531SOL    HW163425  13.358  12.924  10.872
20531SOL    HW263426  13.280  12.804  10.822
20532SOL     OW63427   9.294  10.900  10.798
20532SOL    HW163428   9.317  10.826  10.855
20532SOL    HW263429   9.246  10.860  10.726
20533SOL     OW63430   2.962   7.815   2.518
20533SOL    HW163431   2.927   7.736   2.559
20533SOL    HW263432   2.886   7.857   2.478
20534SOL     OW63433   5.361  11.523  11.500
20534SOL    HW163434   5.277  11.506  11.542
20534SOL    HW263435   5.421  11.540  11.573
20535SOL     OW63436   1.625   0.792   1.409
20535SOL    HW163437   1.615   0.755   1.321
20535SOL    HW263438   1.671   0.724   1.459
20536SOL     OW63439   9.136   2.839   4.670
20536SOL    HW163440   9.187   2.760   4.689
20536SOL    HW263441   9.202   2.908   4.660
20537SOL     OW63442  13.448   9.082   6.112
20537SOL    HW163443  13.389   9.153   6.140
20537SOL    HW263444  13.519   9.083   6.176
20538SOL     OW63445   6.490  12.439   8.005
20538SOL    HW163446   6.426  12.409   7.941
20538SOL    HW263447   6.478  12.533   8.010
20539SOL     OW63448  14.121   4.235   7.489
20539SOL    HW163449  14.180   4.200   7.555
20539SOL    HW263450  14.076   4.158   7.453
20540SOL     OW63451   6.296   6.766  10.833
20540SOL    HW163452   6.372   6.798  10.784
20540SOL    HW263453   6.238   6.730  10.766
20541SOL     OW63454  10.104   9.499   3.565
20541SOL    HW163455  10.009   9.497   3.554
20541SOL    HW263456  10.132   9.579   3.520
20542SOL     OW63457   8.683   3.291   9.078
20542SOL    HW163458   8.778   3.287   9.068
20542SOL    HW263459   8.668   3.293   9.172
20543SOL     OW63460   7.656   4.498   0.421
20543SOL    HW163461   7.750   4.507   0.407
20543SOL    HW263462   7.635   4.564   0.488
20544SOL     OW63463   0.968   4.695   3.161
20544SOL    HW163464   0.905   4.743   3.214
20544SOL    HW263465   0.919   4.665   3.085
20545SOL     OW63466   7.790  11.333   9.447
20545SOL    HW163467   7.733  11.301   9.517
20545SOL    HW263468   7.847  11.259   9.427
20546SOL     OW63469   6.214   9.086  11.611
20546SOL    HW163470   6.168   9.075  11.528
20546SOL    HW263471   6.295   9.132  11.587
20547SOL     OW63472   6.583   2.956  11.058
20547SOL    HW163473   6.558   3.043  11.027
20547SOL    HW263474   6.521   2.896  11.016
20548SOL     OW63475   8.194   9.065  12.966
20548SOL    HW163476   8.234   9.119  12.897
20548SOL    HW263477   8.100   9.071  12.949
20549SOL     OW63478   2.098  13.604  10.905
20549SOL    HW163479   2.022  13.563  10.866
20549SOL    HW263480   2.081  13.601  11.000
20550SOL     OW63481  11.959  11.169   7.232
20550SOL    HW163482  11.959  11.188   7.326
20550SOL    HW263483  11.950  11.255   7.191
20551SOL     OW63484  10.568   1.770  13.536
20551SOL    HW163485  10.551   1.819  13.617
20551SOL    HW263486  10.521   1.688  13.548
20552SOL     OW63487   6.991   4.027   4.768
20552SOL    HW163488   6.964   3.978   4.691
20552SOL    HW263489   7.078   4.061   4.746
20553SOL     OW63490  10.266   1.782  11.325
20553SOL    HW163491  10.255   1.697  11.369
20553SOL    HW263492  10.325   1.831  11.383
20554SOL     OW63493   6.064   6.609   6.512
20554SOL    HW163494   6.029   6.609   6.423
20554SOL    HW263495   6.159   6.611   6.499
20555SOL     OW63496   0.110   6.355   8.585
20555SOL    HW163497   0.117   6.301   8.506
20555SOL    HW263498   0.070   6.297   8.650
20556SOL     OW63499  12.921  14.670   2.289
20556SOL    HW163500  12.909  14.703   2.378
20556SOL    HW263501  12.836  14.634   2.265
20557SOL     OW63502   4.962  13.368  11.602
20557SOL    HW163503   4.871  13.342  11.617
20557SOL    HW263504   4.977  13.349  11.509
20558SOL     OW63505   5.002  14.003   5.214
20558SOL    HW163506   5.078  13.946   5.227
20558SOL    HW263507   4.976  13.988   5.123
20559SOL     OW63508   3.342  12.754  11.947
20559SOL    HW163509   3.402  12.761  12.021
20559SOL    HW263510   3.271  12.814  11.969
20560SOL     OW63511   4.982   9.933   4.009
20560SOL    HW163512   5.066   9.921   3.964
20560SOL    HW263513   4.934   9.852   3.993
20561SOL     OW63514   7.953   5.596   9.917
20561SOL    HW163515   7.906   5.660   9.862
20561SOL    HW263516   7.986   5.647   9.991
20562SOL     OW63517   1.774   1.089   2.872
20562SOL    HW163518   1.797   1.009   2.825
20562SOL    HW263519   1.714   1.135   2.813
20563SOL     OW63520  14.240   2.705  12.052
20563SOL    HW163521  14.232   2.694  12.146
20563SOL    HW263522  14.318   2.760  12.040
20564SOL     OW63523   0.144   4.451  11.985
20564SOL    HW163524   0.206   4.523  11.995
20564SOL    HW263525   0.059   4.490  12.003
20565SOL     OW63526   9.552   6.895   4.636
20565SOL    HW163527   9.569   6.932   4.723
20565SOL    HW263528   9.507   6.812   4.654
20566SOL     OW63529   4.019   1.164  10.950
20566SOL    HW163530   4.019   1.074  10.915
20566SOL    HW263531   3.944   1.206  10.908
20567SOL     OW63532  14.055   5.353  13.976
20567SOL    HW163533  14.001   5.375  14.052
20567SOL    HW263534  14.131   5.410  13.983
20568SOL     OW63535  14.409   6.350   5.044
20568SOL    HW163536  14.371   6.372   4.959
20568SOL    HW263537  14.502   6.336   5.027
20569SOL     OW63538   2.021   4.281   4.543
20569SOL    HW163539   1.979   4.366   4.553
20569SOL    HW263540   2.066   4.286   4.459
20570SOL     OW63541  13.753  14.482   7.048
20570SOL    HW163542  13.699  14.530   6.986
20570SOL    HW263543  13.746  14.532   7.129
20571SOL     OW63544   5.139   7.254  11.089
20571SOL    HW163545   5.234   7.252  11.089
20571SOL    HW263546   5.115   7.301  11.168
20572SOL     OW63547   1.583   9.507   6.617
20572SOL    HW163548   1.520   9.544   6.679
20572SOL    HW263549   1.633   9.444   6.670
20573SOL     OW63550  10.477  14.221   0.400
20573SOL    HW163551  10.438  14.300   0.438
20573SOL    HW263552  10.484  14.241   0.307
20574SOL     OW63553  10.620  14.294   3.620
20574SOL    HW163554  10.569  14.250   3.689
20574SOL    HW263555  10.602  14.387   3.633
20575SOL     OW63556   6.205   4.918   8.079
20575SOL    HW163557   6.231   4.878   7.995
20575SOL    HW263558   6.277   4.977   8.101
20576SOL     OW63559   8.908   4.932   6.556
20576SOL    HW163560   8.861   4.998   6.504
20576SOL    HW263561   8.847   4.859   6.563
20577SOL     OW63562   2.442  11.570   2.655
20577SOL    HW163563   2.528  11.537   2.680
20577SOL    HW263564   2.440  11.660   2.690
20578SOL     OW63565   2.750   5.683  11.411
20578SOL    HW163566   2.807   5.635  11.352
20578SOL    HW263567   2.677   5.711  11.356
20579SOL     OW63568   4.515   2.555   1.590
20579SOL    HW163569   4.468   2.628   1.549
20579SOL    HW263570   4.546   2.590   1.673
20580SOL     OW63571   6.367  13.362   6.516
20580SOL    HW163572   6.462  13.354   6.528
20580SOL    HW263573   6.357  13.399   6.428
20581SOL     OW63574  10.509   0.224   0.448
20581SOL    HW163575  10.530   0.208   0.540
20581SOL    HW263576  10.461   0.307   0.448
20582SOL     OW63577   9.804  11.545   9.698
20582SOL    HW163578   9.762  11.568   9.616
20582SOL    HW263579   9.835  11.455   9.685
20583SOL     OW63580  13.556  10.999   8.275
20583SOL    HW163581  13.559  11.089   8.242
20583SOL    HW263582  13.598  11.004   8.361
20584SOL     OW63583   2.264  11.923  11.814
20584SOL    HW163584   2.214  12.004  11.824
20584SOL    HW263585   2.218  11.876  11.744
20585SOL     OW63586   6.327  12.425   5.376
20585SOL    HW163587   6.334  12.514   5.411
20585SOL    HW263588   6.418  12.397   5.366
20586SOL     OW63589  14.634   3.297   8.456
20586SOL    HW163590  14.589   3.213   8.448
20586SOL    HW263591  14.580   3.347   8.518
20587SOL     OW63592   3.354   2.418   8.379
20587SOL    HW163593   3.352   2.337   8.328
20587SOL    HW263594   3.326   2.486   8.317
20588SOL     OW63595   8.333   1.245  12.996
20588SOL    HW163596   8.336   1.162  13.044
20588SOL    HW263597   8.424   1.274  12.992
20589SOL     OW63598   0.531   1.361  13.064
20589SOL    HW163599   0.441   1.394  13.069
20589SOL    HW263600   0.578   1.428  13.014
20590SOL     OW63601  14.706  11.178   0.133
20590SOL    HW163602  14.790  11.187   0.088
20590SOL    HW263603  14.728  11.177   0.226
20591SOL     OW63604   7.948  11.286   5.223
20591SOL    HW163605   7.957  11.359   5.163
20591SOL    HW263606   7.899  11.321   5.297
20592SOL     OW63607   7.276   7.720   0.580
20592SOL    HW163608   7.257   7.799   0.631
20592SOL    HW263609   7.333   7.668   0.637
20593SOL     OW63610   7.053  14.523  11.479
20593SOL    HW163611   7.134  14.499  11.524
20593SOL    HW263612   7.058  14.477  11.395
20594SOL     OW63613   2.471  10.641  12.782
20594SOL    HW163614   2.415  10.710  12.746
20594SOL    HW263615   2.481  10.663  12.875
20595SOL     OW63616  13.676  11.034  12.680
20595SOL    HW163617  13.593  11.075  12.703
20595SOL    HW263618  13.676  10.951  12.728
20596SOL     OW63619   3.904   6.159   8.941
20596SOL    HW163620   3.897   6.252   8.921
20596SOL    HW263621   3.961   6.155   9.018
20597SOL     OW63622   6.690  10.854   5.090
20597SOL    HW163623   6.707  10.829   4.999
20597SOL    HW263624   6.710  10.775   5.141
20598SOL     OW63625  14.877  13.054   1.371
20598SOL    HW163626   0.056  13.017   1.306
20598SOL    HW263627  14.793  13.058   1.326
20599SOL     OW63628   3.158   7.532   6.153
20599SOL    HW163629   3.174   7.595   6.083
20599SOL    HW263630   3.133   7.585   6.229
20600SOL     OW63631   0.538   7.471   8.360
20600SOL    HW163632   0.594   7.423   8.299
20600SOL    HW263633   0.550   7.563   8.336
20601SOL     OW63634   2.271   9.703   9.617
20601SOL    HW163635   2.291   9.748   9.535
20601SOL    HW263636   2.338   9.733   9.678
20602SOL     OW63637  13.164   2.700  14.424
20602SOL    HW163638  13.137   2.665  14.339
20602SOL    HW263639  13.162   2.795  14.413
20603SOL     OW63640   3.812  10.808   3.609
20603SOL    HW163641   3.812  10.796   3.704
20603SOL    HW263642   3.819  10.902   3.597
20604SOL     OW63643   5.203  14.521  12.843
20604SOL    HW163644   5.247  14.598  12.806
20604SOL    HW263645   5.274  14.461  12.866
20605SOL     OW63646  10.892   0.926   5.162
20605SOL    HW163647  10.919   0.904   5.073
20605SOL    HW263648  10.851   1.012   5.154
20606SOL     OW63649  12.181  14.817   3.029
20606SOL    HW163650  12.189  14.784   3.118
20606SOL    HW263651  12.141   0.022   3.039
20607SOL     OW63652   5.647  10.028  12.537
20607SOL    HW163653   5.563  10.003  12.498
20607SOL    HW263654   5.635  10.015  12.631
20608SOL     OW63655  13.459   5.676   2.469
20608SOL    HW163656  13.384   5.726   2.500
20608SOL    HW263657  13.474   5.610   2.536
20609SOL     OW63658  10.113   1.293   1.968
20609SOL    HW163659  10.131   1.202   1.992
20609SOL    HW263660  10.159   1.345   2.033
20610SOL     OW63661  12.849   3.577   3.627
20610SOL    HW163662  12.829   3.653   3.572
20610SOL    HW263663  12.779   3.514   3.608
20611SOL     OW63664   4.482   1.048  14.256
20611SOL    HW163665   4.551   0.981  14.266
20611SOL    HW263666   4.501   1.089  14.171
20612SOL     OW63667   1.212   2.616  14.735
20612SOL    HW163668   1.210   2.678  14.808
20612SOL    HW263669   1.277   2.551  14.761
20613SOL     OW63670   3.924   7.996  14.451
20613SOL    HW163671   3.888   7.956  14.530
20613SOL    HW263672   4.019   8.000  14.467
20614SOL     OW63673  14.156   0.973   3.259
20614SOL    HW163674  14.209   1.004   3.332
20614SOL    HW263675  14.193   0.886   3.238
20615SOL     OW63676   2.360   3.551  13.907
20615SOL    HW163677   2.325   3.636  13.935
20615SOL    HW263678   2.441   3.572  13.861
20616SOL     OW63679   2.039   7.540   3.006
20616SOL    HW163680   1.999   7.564   2.923
20616SOL    HW263681   2.003   7.453   3.025
20617SOL     OW63682   6.353  10.575  10.857
20617SOL    HW163683   6.406  10.594  10.934
20617SOL    HW263684   6.372  10.648  10.797
20618SOL     OW63685   5.966   3.359   4.052
20618SOL    HW163686   5.971   3.265   4.038
20618SOL    HW263687   6.042   3.395   4.006
20619SOL     OW63688   6.970  10.752  13.974
20619SOL    HW163689   7.003  10.829  14.021
20619SOL    HW263690   7.048  10.711  13.936
20620SOL     OW63691  14.170  14.869  11.940
20620SOL    HW163692  14.260  14.854  11.912
20620SOL    HW263693  14.135   0.049  11.876
20621SOL     OW63694   6.671   9.890  11.013
20621SOL    HW163695   6.602   9.858  11.071
20621SOL    HW263696   6.750   9.845  11.043
20622SOL     OW63697   8.552   9.637  10.030
20622SOL    HW163698   8.490   9.564  10.029
20622SOL    HW263699   8.497   9.715  10.021
20623SOL     OW63700   6.627  12.256   9.803
20623SOL    HW163701   6.533  12.268   9.789
20623SOL    HW263702   6.651  12.325   9.864
20624SOL     OW63703   4.265  10.216  11.425
20624SOL    HW163704   4.269  10.247  11.335
20624SOL    HW263705   4.172  10.204  11.443
20625SOL     OW63706  13.629   0.336  13.991
20625SOL    HW163707  13.603   0.352  13.901
20625SOL    HW263708  13.721   0.309  13.985
20626SOL     OW63709   4.426   5.178   7.454
20626SOL    HW163710   4.492   5.245   7.436
20626SOL    HW263711   4.473   5.095   7.446
20627SOL     OW63712   9.565  10.315   8.327
20627SOL    HW163713   9.505  10.272   8.387
20627SOL    HW263714   9.534  10.291   8.240
20628SOL     OW63715  11.727   9.718   7.736
20628SOL    HW163716  11.641   9.761   7.738
20628SOL    HW263717  11.743   9.693   7.827
20629SOL     OW63718   2.367  13.853   2.074
20629SOL    HW163719   2.289  13.852   2.130
20629SOL    HW263720   2.431  13.904   2.124
20630SOL     OW63721  13.631  12.906  11.508
20630SOL    HW163722  13.688  12.954  11.568
20630SOL    HW263723  13.585  12.843  11.564
20631SOL     OW63724   5.620   6.727  12.345
20631SOL    HW163725   5.621   6.763  12.434
20631SOL    HW263726   5.569   6.646  12.353
20632SOL     OW63727   4.745   0.956   5.002
20632SOL    HW163728   4.816   0.930   4.943
20632SOL    HW263729   4.788   0.975   5.085
20633SOL     OW63730  14.000   4.346  11.403
20633SOL    HW163731  13.981   4.391  11.321
20633SOL    HW263732  14.068   4.398  11.444
20634SOL     OW63733   9.053   7.056   1.881
20634SOL    HW163734   8.958   7.068   1.888
20634SOL    HW263735   9.090   7.144   1.891
20635SOL     OW63736   8.659   1.375   0.399
20635SOL    HW163737   8.746   1.386   0.360
20635SOL    HW263738   8.650   1.281   0.414
20636SOL     OW63739   3.130   8.546  13.415
20636SOL    HW163740   3.149   8.596  13.336
20636SOL    HW263741   3.205   8.487  13.426
20637SOL     OW63742   7.025  12.849   0.164
20637SOL    HW163743   7.053  12.938   0.181
20637SOL    HW263744   7.024  12.807   0.250
20638SOL     OW63745   9.975  13.210   4.932
20638SOL    HW163746   9.919  13.132   4.926
20638SOL    HW263747   9.930  13.267   4.995
20639SOL     OW63748   3.162   9.490   3.845
20639SOL    HW163749   3.085   9.437   3.864
20639SOL    HW263750   3.208   9.441   3.777
20640SOL     OW63751   6.373  11.200  11.856
20640SOL    HW163752   6.462  11.217  11.825
20640SOL    HW263753   6.385  11.165  11.944
20641SOL     OW63754   4.457   0.415   0.992
20641SOL    HW163755   4.482   0.461   0.912
20641SOL    HW263756   4.480   0.323   0.975
20642SOL     OW63757   8.907   3.071  12.493
20642SOL    HW163758   8.917   3.069  12.398
20642SOL    HW263759   8.850   2.996  12.513
20643SOL     OW63760   7.882   7.396   5.086
20643SOL    HW163761   7.941   7.373   5.157
20643SOL    HW263762   7.863   7.489   5.098
20644SOL     OW63763  11.966   2.537   1.307
20644SOL    HW163764  12.015   2.560   1.229
20644SOL    HW263765  11.875   2.563   1.288
20645SOL     OW63766   8.953   3.859  14.004
20645SOL    HW163767   8.896   3.900  13.939
20645SOL    HW263768   8.991   3.931  14.053
20646SOL     OW63769   5.392   9.329  13.883
20646SOL    HW163770   5.306   9.296  13.857
20646SOL    HW263771   5.374   9.388  13.956
20647SOL     OW63772  10.402  13.506   1.225
20647SOL    HW163773  10.494  13.531   1.232
20647SOL    HW263774  10.375  13.535   1.138
20648SOL     OW63775   9.541  13.320   8.464
20648SOL    HW163776   9.582  13.233   8.466
20648SOL    HW263777   9.608  13.379   8.499
20649SOL     OW63778   0.380   3.573   7.124
20649SOL    HW163779   0.426   3.647   7.163
20649SOL    HW263780   0.420   3.496   7.165
20650SOL     OW63781  13.588  14.038   6.460
20650SOL    HW163782  13.514  14.009   6.407
20650SOL    HW263783  13.645  13.962   6.466
20651SOL     OW63784   1.784   1.031  14.204
20651SOL    HW163785   1.804   0.939  14.188
20651SOL    HW263786   1.741   1.060  14.124
20652SOL     OW63787   9.893   0.200   1.454
20652SOL    HW163788   9.916   0.218   1.546
20652SOL    HW263789   9.815   0.252   1.438
20653SOL     OW63790  14.817   5.372   8.770
20653SOL    HW163791  14.753   5.442   8.782
20653SOL    HW263792  14.788   5.326   8.691
20654SOL     OW63793   7.206  10.616   0.376
20654SOL    HW163794   7.194  10.698   0.424
20654SOL    HW263795   7.146  10.623   0.302
20655SOL     OW63796   4.873   5.583   9.940
20655SOL    HW163797   4.802   5.545   9.889
20655SOL    HW263798   4.859   5.677   9.934
20656SOL     OW63799   0.429   4.383  10.144
20656SOL    HW163800   0.409   4.294  10.115
20656SOL    HW263801   0.403   4.439  10.071
20657SOL     OW63802   4.395  14.612  12.689
20657SOL    HW163803   4.399  14.674  12.617
20657SOL    HW263804   4.472  14.630  12.742
20658SOL     OW63805   1.407  14.402   6.561
20658SOL    HW163806   1.499  14.418   6.542
20658SOL    HW263807   1.407  14.361   6.648
20659SOL     OW63808  10.019   2.322  13.730
20659SOL    HW163809  10.040   2.390  13.793
20659SOL    HW263810  10.070   2.345  13.652
20660SOL     OW63811   0.067   7.959  11.229
20660SOL    HW163812  14.868   7.959  11.281
20660SOL    HW263813   0.053   7.889  11.165
20661SOL     OW63814   2.829   0.466  10.934
20661SOL    HW163815   2.747   0.493  10.975
20661SOL    HW263816   2.846   0.379  10.970
20662SOL     OW63817   3.809   3.208   0.978
20662SOL    HW163818   3.882   3.258   0.941
20662SOL    HW263819   3.845   3.121   0.994
20663SOL     OW63820  14.146   1.050   6.323
20663SOL    HW163821  14.223   0.994   6.335
20663SOL    HW263822  14.162   1.126   6.379
20664SOL     OW63823   1.150   5.191   0.167
20664SOL    HW163824   1.176   5.143   0.246
20664SOL    HW263825   1.141   5.123   0.100
20665SOL     OW63826   4.433  14.215   7.877
20665SOL    HW163827   4.472  14.257   7.801
20665SOL    HW263828   4.504  14.210   7.941
20666SOL     OW63829  14.401   2.078   7.863
20666SOL    HW163830  14.417   2.170   7.886
20666SOL    HW263831  14.306   2.072   7.854
20667SOL     OW63832   2.778  12.451   8.081
20667SOL    HW163833   2.784  12.535   8.127
20667SOL    HW263834   2.704  12.462   8.021
20668SOL     OW63835   9.894   1.851   9.490
20668SOL    HW163836   9.811   1.808   9.467
20668SOL    HW263837   9.955   1.823   9.422
20669SOL     OW63838   1.929   1.021   4.419
20669SOL    HW163839   1.891   0.955   4.361
20669SOL    HW263840   1.871   1.097   4.410
20670SOL     OW63841  10.910   4.743  11.394
20670SOL    HW163842  10.971   4.678  11.359
20670SOL    HW263843  10.836   4.741  11.334
20671SOL     OW63844   5.539   0.416  13.827
20671SOL    HW163845   5.465   0.379  13.779
20671SOL    HW263846   5.505   0.499  13.862
20672SOL     OW63847  11.030   8.015   4.094
20672SOL    HW163848  10.944   7.974   4.087
20672SOL    HW263849  11.012   8.109   4.099
20673SOL     OW63850  10.826  14.505  11.027
20673SOL    HW163851  10.745  14.456  11.016
20673SOL    HW263852  10.799  14.596  11.034
20674SOL     OW63853   5.798   0.962  14.604
20674SOL    HW163854   5.841   0.888  14.561
20674SOL    HW263855   5.708   0.960  14.572
20675SOL     OW63856   8.168   6.934   5.528
20675SOL    HW163857   8.073   6.926   5.518
20675SOL    HW263858   8.180   7.013   5.581
20676SOL     OW63859   4.476   7.631   5.402
20676SOL    HW163860   4.553   7.636   5.345
20676SOL    HW263861   4.510   7.645   5.490
20677SOL     OW63862   3.177   3.517   8.129
20677SOL    HW163863   3.177   3.421   8.135
20677SOL    HW263864   3.086   3.541   8.143
20678SOL     OW63865  14.347   7.937   1.230
20678SOL    HW163866  14.391   7.871   1.283
20678SOL    HW263867  14.271   7.962   1.283
20679SOL     OW63868  12.822   1.158  10.093
20679SOL    HW163869  12.822   1.065  10.112
20679SOL    HW263870  12.805   1.163   9.998
20680SOL     OW63871  10.509  13.915   5.230
20680SOL    HW163872  10.466  13.933   5.314
20680SOL    HW263873  10.447  13.858   5.184
20681SOL     OW63874   6.182  12.828   4.489
20681SOL    HW163875   6.245  12.815   4.418
20681SOL    HW263876   6.227  12.885   4.551
20682SOL     OW63877   7.242  10.097   5.524
20682SOL    HW163878   7.290  10.023   5.486
20682SOL    HW263879   7.303  10.136   5.586
20683SOL     OW63880  11.642   4.185   4.223
20683SOL    HW163881  11.650   4.265   4.171
20683SOL    HW263882  11.647   4.216   4.314
20684SOL     OW63883   1.918  13.822   7.304
20684SOL    HW163884   1.961  13.888   7.358
20684SOL    HW263885   1.848  13.788   7.360
20685SOL     OW63886  10.499   7.611   7.366
20685SOL    HW163887  10.576   7.662   7.388
20685SOL    HW263888  10.514   7.583   7.276
20686SOL     OW63889   7.315  14.131   5.955
20686SOL    HW163890   7.249  14.066   5.977
20686SOL    HW263891   7.380  14.082   5.905
20687SOL     OW63892   4.295  12.055   8.021
20687SOL    HW163893   4.254  11.979   7.979
20687SOL    HW263894   4.225  12.094   8.073
20688SOL     OW63895  14.677  12.304  10.534
20688SOL    HW163896  14.662  12.325  10.442
20688SOL    HW263897  14.607  12.348  10.582
20689SOL     OW63898  12.400   9.864  10.095
20689SOL    HW163899  12.390   9.955  10.123
20689SOL    HW263900  12.334   9.851  10.028
20690SOL     OW63901  10.883   5.565   0.723
20690SOL    HW163902  10.934   5.629   0.771
20690SOL    HW263903  10.792   5.595   0.733
20691SOL     OW63904   0.302  10.059  10.678
20691SOL    HW163905   0.369   9.997  10.706
20691SOL    HW263906   0.225  10.037  10.730
20692SOL     OW63907   2.308   0.965   0.930
20692SOL    HW163908   2.378   1.027   0.910
20692SOL    HW263909   2.234   1.020   0.958
20693SOL     OW63910   8.898   6.052   8.441
20693SOL    HW163911   8.908   6.038   8.535
20693SOL    HW263912   8.981   6.026   8.403
20694SOL     OW63913   9.955  12.445   2.707
20694SOL    HW163914   9.899  12.374   2.738
20694SOL    HW263915  10.044  12.415   2.727
20695SOL     OW63916   5.541   7.611   6.952
20695SOL    HW163917   5.447   7.590   6.947
20695SOL    HW263918   5.570   7.613   6.861
20696SOL     OW63919   9.188   0.089   2.188
20696SOL    HW163920   9.119   0.024   2.177
20696SOL    HW263921   9.233   0.063   2.268
20697SOL     OW63922   7.988   9.877  11.203
20697SOL    HW163923   7.952   9.963  11.183
20697SOL    HW263924   8.046   9.857  11.130
20698SOL     OW63925  14.772   1.540   6.259
20698SOL    HW163926  14.744   1.455   6.227
20698SOL    HW263927  14.737   1.546   6.348
20699SOL     OW63928   0.799   9.806   9.429
20699SOL    HW163929   0.879   9.767   9.464
20699SOL    HW263930   0.755   9.734   9.384
20700SOL     OW63931   2.388   3.302  14.696
20700SOL    HW163932   2.295   3.280  14.683
20700SOL    HW263933   2.387   3.385  14.743
20701SOL     OW63934   3.851   3.678   8.436
20701SOL    HW163935   3.863   3.631   8.354
20701SOL    HW263936   3.776   3.735   8.420
20702SOL     OW63937  10.952   4.247   9.007
20702SOL    HW163938  10.958   4.295   9.090
20702SOL    HW263939  11.042   4.243   8.975
20703SOL     OW63940   1.421   3.535   3.276
20703SOL    HW163941   1.379   3.450   3.288
20703SOL    HW263942   1.372   3.576   3.204
20704SOL     OW63943   2.898   4.634   4.164
20704SOL    HW163944   2.823   4.603   4.114
20704SOL    HW263945   2.885   4.597   4.251
20705SOL     OW63946   9.571   5.777  11.521
20705SOL    HW163947   9.568   5.862  11.476
20705SOL    HW263948   9.642   5.786  11.584
20706SOL     OW63949   2.501   5.298   9.111
20706SOL    HW163950   2.504   5.389   9.082
20706SOL    HW263951   2.592   5.272   9.119
20707SOL     OW63952  10.376  10.650   0.190
20707SOL    HW163953  10.448  10.636   0.251
20707SOL    HW263954  10.389  10.584   0.122
20708SOL     OW63955   8.055  12.641  14.209
20708SOL    HW163956   8.147  12.613  14.204
20708SOL    HW263957   8.046  12.706  14.140
20709SOL     OW63958   3.831   9.027  10.494
20709SOL    HW163959   3.840   9.081  10.573
20709SOL    HW263960   3.767   9.073  10.440
20710SOL     OW63961  13.256  12.362   4.112
20710SOL    HW163962  13.284  12.297   4.177
20710SOL    HW263963  13.306  12.340   4.033
20711SOL     OW63964  14.445   0.075  14.792
20711SOL    HW163965  14.430   0.110  14.704
20711SOL    HW263966  14.450  14.862  14.779
20712SOL     OW63967   3.093   0.294   8.863
20712SOL    HW163968   3.019   0.236   8.849
20712SOL    HW263969   3.095   0.350   8.785
20713SOL     OW63970  13.193   4.670   4.356
20713SOL    HW163971  13.150   4.584   4.362
20713SOL    HW263972  13.120   4.731   4.342
20714SOL     OW63973   4.651  11.842   6.665
20714SOL    HW163974   4.692  11.909   6.610
20714SOL    HW263975   4.656  11.762   6.613
20715SOL     OW63976   1.520   4.577  14.141
20715SOL    HW163977   1.428   4.606  14.143
20715SOL    HW263978   1.569   4.650  14.178
20716SOL     OW63979   8.294   2.425   9.793
20716SOL    HW163980   8.276   2.517   9.811
20716SOL    HW263981   8.244   2.406   9.713
20717SOL     OW63982  13.018  12.773   6.425
20717SOL    HW163983  13.024  12.836   6.497
20717SOL    HW263984  13.085  12.707   6.447
20718SOL     OW63985   3.781   5.353  13.307
20718SOL    HW163986   3.866   5.309  13.310
20718SOL    HW263987   3.796   5.431  13.253
20719SOL     OW63988   3.488   2.746   9.939
20719SOL    HW163989   3.404   2.780   9.910
20719SOL    HW263990   3.553   2.795   9.888
20720SOL     OW63991   0.904   5.104  12.654
20720SOL    HW163992   0.916   5.192  12.619
20720SOL    HW263993   0.904   5.116  12.749
20721SOL     OW63994   6.932   3.519  13.748
20721SOL    HW163995   6.941   3.445  13.688
20721SOL    HW263996   6.859   3.495  13.806
20722SOL     OW63997   0.856   7.906   7.960
20722SOL    HW163998   0.890   7.864   7.880
20722SOL    HW263999   0.928   7.961   7.990
20723SOL     OW64000  10.670  14.080   8.318
20723SOL    HW164001  10.654  14.081   8.224
20723SOL    HW264002  10.583  14.083   8.357
20724SOL     OW64003   2.621   2.337  13.440
20724SOL    HW164004   2.696   2.356  13.384
20724SOL    HW264005   2.558   2.406  13.421
20725SOL     OW64006   7.377   1.502   2.788
20725SOL    HW164007   7.289   1.467   2.805
20725SOL    HW264008   7.381   1.583   2.838
20726SOL     OW64009   4.996   1.059  10.020
20726SOL    HW164010   5.032   1.125  10.079
20726SOL    HW264011   4.923   1.103   9.976
20727SOL     OW64012  11.805   4.882   3.510
20727SOL    HW164013  11.749   4.916   3.440
20727SOL    HW264014  11.888   4.929   3.498
20728SOL     OW64015   4.968  13.819  13.084
20728SOL    HW164016   4.983  13.746  13.024
20728SOL    HW264017   5.040  13.815  13.145
20729SOL     OW64018   8.813   3.377   4.353
20729SOL    HW164019   8.750   3.372   4.281
20729SOL    HW264020   8.772   3.326   4.424
20730SOL     OW64021   0.186   1.509   4.198
20730SOL    HW164022   0.184   1.566   4.120
20730SOL    HW264023   0.096   1.508   4.230
20731SOL     OW64024  13.011   7.450   5.463
20731SOL    HW164025  13.079   7.500   5.508
20731SOL    HW264026  12.955   7.517   5.422
20732SOL     OW64027   6.513  10.477   7.199
20732SOL    HW164028   6.557  10.531   7.133
20732SOL    HW264029   6.559  10.394   7.196
20733SOL     OW64030   7.858   0.667   5.152
20733SOL    HW164031   7.936   0.612   5.146
20733SOL    HW264032   7.851   0.689   5.244
20734SOL     OW64033   9.669   2.257   5.033
20734SOL    HW164034   9.658   2.294   5.120
20734SOL    HW264035   9.598   2.193   5.025
20735SOL     OW64036  10.213   3.707  11.989
20735SOL    HW164037  10.292   3.653  11.981
20735SOL    HW264038  10.154   3.674  11.923
20736SOL     OW64039  10.131   6.563   8.776
20736SOL    HW164040  10.141   6.645   8.727
20736SOL    HW264041  10.205   6.509   8.749
20737SOL     OW64042   4.094   3.317  12.251
20737SOL    HW164043   4.176   3.301  12.204
20737SOL    HW264044   4.119   3.316  12.343
20738SOL     OW64045   7.528   0.761   6.944
20738SOL    HW164046   7.462   0.785   6.880
20738SOL    HW264047   7.611   0.785   6.903
20739SOL     OW64048   0.015   4.213  10.372
20739SOL    HW164049  14.844   4.261  10.436
20739SOL    HW264050   0.044   4.280  10.310
20740SOL     OW64051   1.874  12.321  10.649
20740SOL    HW164052   1.822  12.329  10.569
20740SOL    HW264053   1.813  12.284  10.714
20741SOL     OW64054   5.875   1.298  14.642
20741SOL    HW164055   5.913   1.230  14.698
20741SOL    HW264056   5.883   1.262  14.554
20742SOL     OW64057  11.151   7.358   7.017
20742SOL    HW164058  11.194   7.311   6.946
20742SOL    HW264059  11.223   7.383   7.075
20743SOL     OW64060   2.207   4.503   5.144
20743SOL    HW164061   2.173   4.424   5.186
20743SOL    HW264062   2.185   4.574   5.205
20744SOL     OW64063  11.625   7.246  14.130
20744SOL    HW164064  11.549   7.213  14.176
20744SOL    HW264065  11.624   7.202  14.045
20745SOL     OW64066  10.766   3.662   7.709
20745SOL    HW164067  10.761   3.633   7.618
20745SOL    HW264068  10.853   3.633   7.738
20746SOL     OW64069   5.754   6.442   3.200
20746SOL    HW164070   5.736   6.507   3.268
20746SOL    HW264071   5.724   6.359   3.236
20747SOL     OW64072  12.595  11.893   0.451
20747SOL    HW164073  12.651  11.843   0.391
20747SOL    HW264074  12.517  11.914   0.399
20748SOL     OW64075   4.210  13.382   5.725
20748SOL    HW164076   4.129  13.378   5.675
20748SOL    HW264077   4.185  13.365   5.815
20749SOL     OW64078   8.314  12.372  10.072
20749SOL    HW164079   8.307  12.277  10.064
20749SOL    HW264080   8.330  12.402   9.982
20750SOL     OW64081   1.864  13.112   7.553
20750SOL    HW164082   1.894  13.203   7.553
20750SOL    HW264083   1.940  13.061   7.524
20751SOL     OW64084   9.015   3.664  11.120
20751SOL    HW164085   9.098   3.616  11.118
20751SOL    HW264086   8.958   3.616  11.059
20752SOL     OW64087   7.960   3.590  10.571
20752SOL    HW164088   8.001   3.630  10.495
20752SOL    HW264089   7.926   3.663  10.622
20753SOL     OW64090   1.430   0.217   9.185
20753SOL    HW164091   1.336   0.200   9.185
20753SOL    HW264092   1.456   0.215   9.277
20754SOL     OW64093   1.246   2.865   4.929
20754SOL    HW164094   1.159   2.840   4.898
20754SOL    HW264095   1.305   2.836   4.859
20755SOL     OW64096   0.703   2.279   3.148
20755SOL    HW164097   0.744   2.293   3.233
20755SOL    HW264098   0.610   2.267   3.168
20756SOL     OW64099  10.925   7.007   6.355
20756SOL    HW164100  10.867   7.078   6.383
20756SOL    HW264101  10.972   6.983   6.435
20757SOL     OW64102   9.381   9.641   3.236
20757SOL    HW164103   9.314   9.695   3.193
20757SOL    HW264104   9.430   9.702   3.290
20758SOL     OW64105  14.582   2.733   0.572
20758SOL    HW164106  14.492   2.722   0.542
20758SOL    HW264107  14.599   2.657   0.627
20759SOL     OW64108  14.251  14.311  14.804
20759SOL    HW164109  14.308  14.272  14.871
20759SOL    HW264110  14.303  14.382  14.766
20760SOL     OW64111   5.243   4.303  14.295
20760SOL    HW164112   5.231   4.208  14.292
20760SOL    HW264113   5.189   4.336  14.222
20761SOL     OW64114  12.589  10.085  12.344
20761SOL    HW164115  12.595   9.990  12.347
20761SOL    HW264116  12.632  10.115  12.424
20762SOL     OW64117   9.255  14.609   8.888
20762SOL    HW164118   9.194  14.603   8.962
20762SOL    HW264119   9.216  14.554   8.820
20763SOL     OW64120   0.575  12.277  10.389
20763SOL    HW164121   0.598  12.185  10.377
20763SOL    HW264122   0.649  12.314  10.437
20764SOL     OW64123  10.788   3.413   2.360
20764SOL    HW164124  10.812   3.485   2.302
20764SOL    HW264125  10.692   3.412   2.359
20765SOL     OW64126  13.751   7.884   9.877
20765SOL    HW164127  13.800   7.965   9.860
20765SOL    HW264128  13.714   7.860   9.792
20766SOL     OW64129   2.229   8.945   3.478
20766SOL    HW164130   2.261   8.958   3.389
20766SOL    HW264131   2.149   8.893   3.469
20767SOL     OW64132   6.725  11.637   2.062
20767SOL    HW164133   6.708  11.720   2.106
20767SOL    HW264134   6.676  11.642   1.980
20768SOL     OW64135   4.291   4.707   6.435
20768SOL    HW164136   4.329   4.719   6.348
20768SOL    HW264137   4.351   4.750   6.494
20769SOL     OW64138   3.423   9.081   3.850
20769SOL    HW164139   3.414   8.988   3.868
20769SOL    HW264140   3.338   9.106   3.813
20770SOL     OW64141  14.696   5.938   4.900
20770SOL    HW164142  14.777   5.904   4.936
20770SOL    HW264143  14.663   5.998   4.967
20771SOL     OW64144   2.486  13.305   3.782
20771SOL    HW164145   2.492  13.234   3.719
20771SOL    HW264146   2.577  13.324   3.806
20772SOL     OW64147   4.071   8.234  13.327
20772SOL    HW164148   4.035   8.167  13.268
20772SOL    HW264149   3.997   8.260  13.381
20773SOL     OW64150  13.860  11.846   1.750
20773SOL    HW164151  13.774  11.881   1.775
20773SOL    HW264152  13.894  11.805   1.830
20774SOL     OW64153   8.182  13.260   1.456
20774SOL    HW164154   8.175  13.253   1.361
20774SOL    HW264155   8.092  13.276   1.485
20775SOL     OW64156   0.207  11.803   0.963
20775SOL    HW164157   0.195  11.725   1.018
20775SOL    HW264158   0.251  11.770   0.885
20776SOL     OW64159  14.320  12.106   0.947
20776SOL    HW164160  14.341  12.192   0.913
20776SOL    HW264161  14.398  12.079   0.996
20777SOL     OW64162   7.296   1.433   6.175
20777SOL    HW164163   7.316   1.414   6.267
20777SOL    HW264164   7.334   1.519   6.160
20778SOL     OW64165  10.469   4.071  10.486
20778SOL    HW164166  10.559   4.103  10.491
20778SOL    HW264167  10.428   4.100  10.568
20779SOL     OW64168   5.418   7.269  11.089
20779SOL    HW164169   5.479   7.271  11.015
20779SOL    HW264170   5.426   7.181  11.124
20780SOL     OW64171  11.785   1.033  11.107
20780SOL    HW164172  11.718   1.093  11.074
20780SOL    HW264173  11.753   0.946  11.082
20781SOL     OW64174   4.033   9.620   7.974
20781SOL    HW164175   4.064   9.702   8.012
20781SOL    HW264176   3.972   9.585   8.039
20782SOL     OW64177   5.210   5.480   3.531
20782SOL    HW164178   5.271   5.538   3.577
20782SOL    HW264179   5.263   5.439   3.463
20783SOL     OW64180   0.190   3.864  12.613
20783SOL    HW164181   0.231   3.921  12.678
20783SOL    HW264182   0.164   3.786  12.663
20784SOL     OW64183   1.445   8.082  12.892
20784SOL    HW164184   1.401   8.016  12.839
20784SOL    HW264185   1.522   8.106  12.841
20785SOL     OW64186   1.228   5.779   1.915
20785SOL    HW164187   1.201   5.724   1.989
20785SOL    HW264188   1.171   5.753   1.843
20786SOL     OW64189   2.644   1.661   8.333
20786SOL    HW164190   2.626   1.568   8.322
20786SOL    HW264191   2.732   1.665   8.369
20787SOL     OW64192   1.618   2.781   4.847
20787SOL    HW164193   1.573   2.751   4.926
20787SOL    HW264194   1.574   2.862   4.823
20788SOL     OW64195  10.172   9.939   8.814
20788SOL    HW164196  10.204   9.973   8.730
20788SOL    HW264197  10.177   9.844   8.806
20789SOL     OW64198   4.890  11.574   8.304
20789SOL    HW164199   4.963  11.635   8.316
20789SOL    HW264200   4.831  11.619   8.244
20790SOL     OW64201   2.800   1.844  10.987
20790SOL    HW164202   2.790   1.872  10.896
20790SOL    HW264203   2.806   1.925  11.037
20791SOL     OW64204  13.213   6.863   9.947
20791SOL    HW164205  13.125   6.879   9.911
20791SOL    HW264206  13.252   6.950   9.953
20792SOL     OW64207  10.658   2.569  13.419
20792SOL    HW164208  10.587   2.626  13.387
20792SOL    HW264209  10.716   2.558  13.344
20793SOL     OW64210   1.935   4.855   9.515
20793SOL    HW164211   1.973   4.940   9.492
20793SOL    HW264212   1.861   4.876   9.572
20794SOL     OW64213  14.472  10.452   7.690
20794SOL    HW164214  14.511  10.536   7.666
20794SOL    HW264215  14.400  10.475   7.749
20795SOL     OW64216   6.300   6.330  10.511
20795SOL    HW164217   6.369   6.387  10.477
20795SOL    HW264218   6.308   6.249  10.459
20796SOL     OW64219   1.986   5.434   2.914
20796SOL    HW164220   1.923   5.458   2.846
20796SOL    HW264221   1.940   5.452   2.996
20797SOL     OW64222   7.340   0.876  12.136
20797SOL    HW164223   7.393   0.840  12.207
20797SOL    HW264224   7.312   0.961  12.168
20798SOL     OW64225   3.229   8.570   2.946
20798SOL    HW164226   3.244   8.637   3.013
20798SOL    HW264227   3.297   8.586   2.880
20799SOL     OW64228   2.576   7.740   1.517
20799SOL    HW164229   2.501   7.738   1.576
20799SOL    HW264230   2.628   7.815   1.546
20800SOL     OW64231   4.566   5.603   5.664
20800SOL    HW164232   4.588   5.568   5.750
20800SOL    HW264233   4.551   5.696   5.679
20801SOL     OW64234   0.164  13.259   2.668
20801SOL    HW164235   0.108  13.207   2.610
20801SOL    HW264236   0.113  13.337   2.688
20802SOL     OW64237   0.387   4.264   7.001
20802SOL    HW164238   0.358   4.229   6.917
20802SOL    HW264239   0.465   4.213   7.023
20803SOL     OW64240   9.263  12.636   2.108
20803SOL    HW164241   9.191  12.677   2.156
20803SOL    HW264242   9.300  12.573   2.170
20804SOL     OW64243  11.646   1.053  11.466
20804SOL    HW164244  11.728   1.055  11.515
20804SOL    HW264245  11.647   1.132  11.413
20805SOL     OW64246  10.347   2.076  10.959
20805SOL    HW164247  10.311   2.138  11.022
20805SOL    HW264248  10.326   1.990  10.995
20806SOL     OW64249  12.487   3.320   3.873
20806SOL    HW164250  12.435   3.388   3.914
20806SOL    HW264251  12.533   3.277   3.946
20807SOL     OW64252   6.141   7.253   3.584
20807SOL    HW164253   6.075   7.224   3.648
20807SOL    HW264254   6.218   7.275   3.637
20808SOL     OW64255  10.190   3.832   8.929
20808SOL    HW164256  10.186   3.887   8.851
20808SOL    HW264257  10.104   3.788   8.931
20809SOL     OW64258   2.580   9.205   7.991
20809SOL    HW164259   2.530   9.131   8.024
20809SOL    HW264260   2.560   9.277   8.051
20810SOL     OW64261   2.833  12.669  13.612
20810SOL    HW164262   2.799  12.708  13.532
20810SOL    HW264263   2.919  12.634  13.588
20811SOL     OW64264   5.938   7.589  14.150
20811SOL    HW164265   5.859   7.623  14.193
20811SOL    HW264266   5.969   7.520  14.209
20812SOL     OW64267   3.318  14.656  14.220
20812SOL    HW164268   3.291  14.664  14.311
20812SOL    HW264269   3.412  14.639  14.223
20813SOL     OW64270   0.965  12.855   3.437
20813SOL    HW164271   1.028  12.825   3.502
20813SOL    HW264272   0.950  12.779   3.381
20814SOL     OW64273   2.399   0.693   9.216
20814SOL    HW164274   2.343   0.679   9.139
20814SOL    HW264275   2.416   0.605   9.249
20815SOL     OW64276   3.352  11.844  13.085
20815SOL    HW164277   3.375  11.808  12.999
20815SOL    HW264278   3.260  11.870  13.077
20816SOL     OW64279   3.192   4.040   6.588
20816SOL    HW164280   3.163   4.044   6.497
20816SOL    HW264281   3.147   3.963   6.624
20817SOL     OW64282   4.448  12.334  14.289
20817SOL    HW164283   4.499  12.407  14.254
20817SOL    HW264284   4.374  12.325  14.230
20818SOL     OW64285   0.977   3.213   5.733
20818SOL    HW164286   0.950   3.282   5.672
20818SOL    HW264287   0.946   3.244   5.818
20819SOL     OW64288   1.768  11.689   5.267
20819SOL    HW164289   1.793  11.656   5.180
20819SOL    HW264290   1.694  11.634   5.292
20820SOL     OW64291  14.004   0.239  13.133
20820SOL    HW164292  13.937   0.185  13.175
20820SOL    HW264293  13.963   0.271  13.053
20821SOL     OW64294  12.866  10.177   5.950
20821SOL    HW164295  12.831  10.135   5.872
20821SOL    HW264296  12.941  10.227   5.920
20822SOL     OW64297   1.298   1.249   7.842
20822SOL    HW164298   1.255   1.241   7.927
20822SOL    HW264299   1.338   1.163   7.828
20823SOL     OW64300   8.332   2.478   8.360
20823SOL    HW164301   8.251   2.480   8.410
20823SOL    HW264302   8.323   2.402   8.302
20824SOL     OW64303  13.192   1.775  13.336
20824SOL    HW164304  13.235   1.779  13.422
20824SOL    HW264305  13.170   1.683  13.325
20825SOL     OW64306  11.530   3.093   8.381
20825SOL    HW164307  11.496   3.175   8.345
20825SOL    HW264308  11.553   3.041   8.305
20826SOL     OW64309   1.926   3.814  10.915
20826SOL    HW164310   1.840   3.855  10.901
20826SOL    HW264311   1.907   3.737  10.967
20827SOL     OW64312  13.880  14.545   1.407
20827SOL    HW164313  13.826  14.497   1.344
20827SOL    HW264314  13.822  14.613   1.442
20828SOL     OW64315   4.510   1.898  10.447
20828SOL    HW164316   4.461   1.844  10.509
20828SOL    HW264317   4.504   1.987  10.482
20829SOL     OW64318   7.851   2.745   2.049
20829SOL    HW164319   7.882   2.806   2.116
20829SOL    HW264320   7.923   2.683   2.038
20830SOL     OW64321   4.388   1.364  10.734
20830SOL    HW164322   4.363   1.442  10.783
20830SOL    HW264323   4.482   1.356  10.748
20831SOL     OW64324  13.648   0.771   9.994
20831SOL    HW164325  13.664   0.677   9.986
20831SOL    HW264326  13.573   0.788   9.937
20832SOL     OW64327   1.800   4.080  13.548
20832SOL    HW164328   1.718   4.111  13.586
20832SOL    HW264329   1.861   4.153  13.558
20833SOL     OW64330  13.766   5.566   9.524
20833SOL    HW164331  13.709   5.530   9.592
20833SOL    HW264332  13.839   5.504   9.520
20834SOL     OW64333   1.178   3.819   5.110
20834SOL    HW164334   1.178   3.901   5.061
20834SOL    HW264335   1.113   3.765   5.065
20835SOL     OW64336   6.717  14.441  13.619
20835SOL    HW164337   6.652  14.405  13.558
20835SOL    HW264338   6.801  14.406  13.589
20836SOL     OW64339   2.768   5.925   6.460
20836SOL    HW164340   2.765   5.830   6.459
20836SOL    HW264341   2.677   5.952   6.447
20837SOL     OW64342   6.168   0.335  12.993
20837SOL    HW164343   6.167   0.368  12.903
20837SOL    HW264344   6.261   0.331  13.015
20838SOL     OW64345  13.054   1.865   1.465
20838SOL    HW164346  12.971   1.845   1.508
20838SOL    HW264347  13.096   1.780   1.455
20839SOL     OW64348  12.271   1.399   0.982
20839SOL    HW164349  12.189   1.364   1.016
20839SOL    HW264350  12.247   1.447   0.903
20840SOL     OW64351   4.004   3.499   7.854
20840SOL    HW164352   3.989   3.513   7.948
20840SOL    HW264353   4.090   3.539   7.838
20841SOL     OW64354   2.012   2.500   6.532
20841SOL    HW164355   2.047   2.413   6.552
20841SOL    HW264356   2.087   2.559   6.539
20842SOL     OW64357  12.655   6.245   8.443
20842SOL    HW164358  12.625   6.209   8.526
20842SOL    HW264359  12.750   6.239   8.447
20843SOL     OW64360  10.705  11.238   6.677
20843SOL    HW164361  10.636  11.265   6.739
20843SOL    HW264362  10.665  11.167   6.627
20844SOL     OW64363   9.650   6.279   0.802
20844SOL    HW164364   9.635   6.204   0.860
20844SOL    HW264365   9.736   6.313   0.827
20845SOL     OW64366   8.468  11.579   5.703
20845SOL    HW164367   8.412  11.502   5.700
20845SOL    HW264368   8.503  11.581   5.792
20846SOL     OW64369  11.216   0.987  13.003
20846SOL    HW164370  11.284   0.996  12.936
20846SOL    HW264371  11.135   1.009  12.958
20847SOL     OW64372  11.202  10.876  10.728
20847SOL    HW164373  11.107  10.884  10.713
20847SOL    HW264374  11.240  10.946  10.675
20848SOL     OW64375   9.768  13.411  12.604
20848SOL    HW164376   9.828  13.466  12.554
20848SOL    HW264377   9.802  13.322  12.593
20849SOL     OW64378   3.441  13.419   9.987
20849SOL    HW164379   3.474  13.501  10.024
20849SOL    HW264380   3.458  13.353  10.055
20850SOL     OW64381  10.387   7.543   0.649
20850SOL    HW164382  10.349   7.483   0.714
20850SOL    HW264383  10.320   7.610   0.635
20851SOL     OW64384  11.768   1.616   9.158
20851SOL    HW164385  11.702   1.547   9.146
20851SOL    HW264386  11.844   1.584   9.109
20852SOL     OW64387  11.870   1.689   0.432
20852SOL    HW164388  11.861   1.778   0.399
20852SOL    HW264389  11.845   1.695   0.525
20853SOL     OW64390   2.957   9.425   2.937
20853SOL    HW164391   2.904   9.351   2.908
20853SOL    HW264392   3.009   9.448   2.860
20854SOL     OW64393   5.275   1.988   7.747
20854SOL    HW164394   5.228   1.976   7.665
20854SOL    HW264395   5.211   2.030   7.805
20855SOL     OW64396  12.060  14.012   3.902
20855SOL    HW164397  12.053  13.928   3.946
20855SOL    HW264398  11.987  14.063   3.935
20856SOL     OW64399   1.085  11.544   3.201
20856SOL    HW164400   1.089  11.454   3.234
20856SOL    HW264401   1.072  11.534   3.106
20857SOL     OW64402   4.326   9.585  14.486
20857SOL    HW164403   4.240   9.598  14.446
20857SOL    HW264404   4.315   9.511  14.545
20858SOL     OW64405   3.837  10.770   8.002
20858SOL    HW164406   3.888  10.768   7.921
20858SOL    HW264407   3.765  10.708   7.987
20859SOL     OW64408   5.619  14.183   7.944
20859SOL    HW164409   5.616  14.216   8.034
20859SOL    HW264410   5.529  14.155   7.926
20860SOL     OW64411   8.866  14.653   3.648
20860SOL    HW164412   8.790  14.599   3.670
20860SOL    HW264413   8.918  14.656   3.729
20861SOL     OW64414   4.478   2.783   8.262
20861SOL    HW164415   4.478   2.696   8.222
20861SOL    HW264416   4.407   2.779   8.327
20862SOL     OW64417   2.103  10.905   9.918
20862SOL    HW164418   2.065  10.888   9.832
20862SOL    HW264419   2.149  10.824   9.940
20863SOL     OW64420   9.493   6.639   7.606
20863SOL    HW164421   9.438   6.633   7.684
20863SOL    HW264422   9.529   6.728   7.608
20864SOL     OW64423  11.283   7.616  14.795
20864SOL    HW164424  11.345   7.689  14.801
20864SOL    HW264425  11.197   7.655  14.809
20865SOL     OW64426   7.496   0.063   4.789
20865SOL    HW164427   7.436   0.125   4.748
20865SOL    HW264428   7.441  14.872   4.817
20866SOL     OW64429   3.222  12.297   8.655
20866SOL    HW164430   3.268  12.258   8.581
20866SOL    HW264431   3.268  12.379   8.672
20867SOL     OW64432  14.487   6.370  12.315
20867SOL    HW164433  14.424   6.298  12.310
20867SOL    HW264434  14.433   6.448  12.331
20868SOL     OW64435   3.503  11.766  14.470
20868SOL    HW164436   3.471  11.851  14.441
20868SOL    HW264437   3.498  11.710  14.392
20869SOL     OW64438   8.495   6.719  14.120
20869SOL    HW164439   8.571   6.769  14.092
20869SOL    HW264440   8.531   6.646  14.170
20870SOL     OW64441   6.477   5.589  10.494
20870SOL    HW164442   6.511   5.509  10.536
20870SOL    HW264443   6.432   5.557  10.416
20871SOL     OW64444   9.449  11.018   6.078
20871SOL    HW164445   9.394  10.943   6.101
20871SOL    HW264446   9.531  11.003   6.125
20872SOL     OW64447   8.023  10.322   9.707
20872SOL    HW164448   8.100  10.310   9.762
20872SOL    HW264449   8.056  10.318   9.617
20873SOL     OW64450  12.961   6.073  14.404
20873SOL    HW164451  12.941   6.110  14.318
20873SOL    HW264452  12.946   5.979  14.393
20874SOL     OW64453   3.851   0.562   2.337
20874SOL    HW164454   3.940   0.576   2.305
20874SOL    HW264455   3.799   0.626   2.289
20875SOL     OW64456   2.718  13.008   7.843
20875SOL    HW164457   2.802  13.029   7.884
20875SOL    HW264458   2.659  12.989   7.916
20876SOL     OW64459  12.608   6.922   5.406
20876SOL    HW164460  12.618   7.010   5.369
20876SOL    HW264461  12.690   6.905   5.452
20877SOL     OW64462   5.660  10.438  13.895
20877SOL    HW164463   5.685  10.481  13.814
20877SOL    HW264464   5.693  10.496  13.964
20878SOL     OW64465   0.237   7.994   3.066
20878SOL    HW164466   0.151   8.008   3.026
20878SOL    HW264467   0.289   8.069   3.038
20879SOL     OW64468   0.014   2.803  10.243
20879SOL    HW164469  14.881   2.767  10.330
20879SOL    HW264470  14.835   2.876  10.236
20880SOL     OW64471   9.138   6.614   0.695
20880SOL    HW164472   9.206   6.591   0.633
20880SOL    HW264473   9.082   6.536   0.700
20881SOL     OW64474   0.957   5.048   5.227
20881SOL    HW164475   0.914   5.126   5.261
20881SOL    HW264476   0.978   5.070   5.136
20882SOL     OW64477   3.280   1.410  12.746
20882SOL    HW164478   3.278   1.493  12.795
20882SOL    HW264479   3.215   1.422  12.676
20883SOL     OW64480   1.499   3.917   4.705
20883SOL    HW164481   1.526   3.826   4.715
20883SOL    HW264482   1.573   3.968   4.739
20884SOL     OW64483   1.160   6.139   6.967
20884SOL    HW164484   1.185   6.065   7.022
20884SOL    HW264485   1.224   6.207   6.988
20885SOL     OW64486   4.408   8.866  12.950
20885SOL    HW164487   4.439   8.798  12.890
20885SOL    HW264488   4.385   8.939  12.894
20886SOL     OW64489   5.635   1.493  13.640
20886SOL    HW164490   5.672   1.579  13.619
20886SOL    HW264491   5.599   1.461  13.557
20887SOL     OW64492   2.702  12.920   9.067
20887SOL    HW164493   2.751  12.951   9.143
20887SOL    HW264494   2.759  12.937   8.992
20888SOL     OW64495   3.791   8.049   9.719
20888SOL    HW164496   3.851   8.073   9.790
20888SOL    HW264497   3.733   7.983   9.757
20889SOL     OW64498  14.771   0.786   9.734
20889SOL    HW164499  14.700   0.847   9.713
20889SOL    HW264500  14.777   0.729   9.657
20890SOL     OW64501  14.055   4.261   9.652
20890SOL    HW164502  14.002   4.200   9.703
20890SOL    HW264503  14.049   4.344   9.699
20891SOL     OW64504   3.194   2.142   2.032
20891SOL    HW164505   3.226   2.164   1.945
20891SOL    HW264506   3.184   2.226   2.076
20892SOL     OW64507   2.702  10.547   6.573
20892SOL    HW164508   2.682  10.614   6.638
20892SOL    HW264509   2.617  10.530   6.530
20893SOL     OW64510   9.030   4.068  14.176
20893SOL    HW164511   9.019   4.136  14.109
20893SOL    HW264512   8.958   4.085  14.238
20894SOL     OW64513   2.176   5.572   5.124
20894SOL    HW164514   2.248   5.570   5.187
20894SOL    HW264515   2.132   5.655   5.141
20895SOL     OW64516   8.129  10.018   0.749
20895SOL    HW164517   8.154  10.086   0.811
20895SOL    HW264518   8.035  10.030   0.737
20896SOL     OW64519  12.867  13.992  13.938
20896SOL    HW164520  12.866  14.087  13.923
20896SOL    HW264521  12.929  13.980  14.009
20897SOL     OW64522   1.216  13.049  10.601
20897SOL    HW164523   1.170  12.975  10.642
20897SOL    HW264524   1.284  13.008  10.547
20898SOL     OW64525  11.597   5.931   5.213
20898SOL    HW164526  11.521   5.920   5.270
20898SOL    HW264527  11.671   5.900   5.265
20899SOL     OW64528  14.594   9.860   3.368
20899SOL    HW164529  14.499   9.859   3.370
20899SOL    HW264530  14.617   9.940   3.322
20900SOL     OW64531   2.930  10.458  14.253
20900SOL    HW164532   2.940  10.375  14.206
20900SOL    HW264533   3.014  10.472  14.296
20901SOL     OW64534   6.223  13.183   4.284
20901SOL    HW164535   6.130  13.169   4.265
20901SOL    HW264536   6.269  13.133   4.218
20902SOL     OW64537   8.358   9.152   1.026
20902SOL    HW164538   8.360   9.222   1.091
20902SOL    HW264539   8.279   9.102   1.048
20903SOL     OW64540   9.780   2.363   5.478
20903SOL    HW164541   9.861   2.321   5.507
20903SOL    HW264542   9.760   2.426   5.547
20904SOL     OW64543  14.140  11.923   0.858
20904SOL    HW164544  14.188  11.999   0.890
20904SOL    HW264545  14.200  11.881   0.797
20905SOL     OW64546   8.956   4.531  14.302
20905SOL    HW164547   9.042   4.491  14.310
20905SOL    HW264548   8.962   4.586  14.224
20906SOL     OW64549   2.645  12.090   8.733
20906SOL    HW164550   2.698  12.154   8.780
20906SOL    HW264551   2.576  12.066   8.795
20907SOL     OW64552  10.320   4.254   1.211
20907SOL    HW164553  10.259   4.233   1.140
20907SOL    HW264554  10.393   4.298   1.168
20908SOL     OW64555   4.739   0.175   2.259
20908SOL    HW164556   4.827   0.166   2.222
20908SOL    HW264557   4.748   0.142   2.349
20909SOL     OW64558   0.508   8.011   6.734
20909SOL    HW164559   0.551   7.945   6.680
20909SOL    HW264560   0.555   8.009   6.817
20910SOL     OW64561  12.566   7.003  11.647
20910SOL    HW164562  12.568   7.002  11.552
20910SOL    HW264563  12.473   7.009  11.669
20911SOL     OW64564   0.130   5.770   7.880
20911SOL    HW164565   0.073   5.765   7.804
20911SOL    HW264566   0.120   5.685   7.924
20912SOL     OW64567   9.292   6.366  12.097
20912SOL    HW164568   9.296   6.398  12.007
20912SOL    HW264569   9.382   6.371  12.128
20913SOL     OW64570  13.262   0.364  13.560
20913SOL    HW164571  13.309   0.407  13.488
20913SOL    HW264572  13.227   0.436  13.612
20914SOL     OW64573  13.962   7.635  12.969
20914SOL    HW164574  14.018   7.711  12.952
20914SOL    HW264575  13.897   7.637  12.898
20915SOL     OW64576   8.752   3.726   3.040
20915SOL    HW164577   8.710   3.809   3.018
20915SOL    HW264578   8.679   3.664   3.046
20916SOL     OW64579  13.292  10.880   2.355
20916SOL    HW164580  13.214  10.832   2.328
20916SOL    HW264581  13.337  10.820   2.416
20917SOL     OW64582   7.011  10.144   7.060
20917SOL    HW164583   7.103  10.121   7.049
20917SOL    HW264584   7.008  10.193   7.143
20918SOL     OW64585  13.541   4.420  13.797
20918SOL    HW164586  13.606   4.489  13.814
20918SOL    HW264587  13.457   4.465  13.796
20919SOL     OW64588   3.719   7.707   2.725
20919SOL    HW164589   3.675   7.775   2.776
20919SOL    HW264590   3.773   7.660   2.788
20920SOL     OW64591   4.279   6.598  14.620
20920SOL    HW164592   4.221   6.643  14.681
20920SOL    HW264593   4.316   6.668  14.566
20921SOL     OW64594  10.450   0.746   2.478
20921SOL    HW164595  10.431   0.834   2.511
20921SOL    HW264596  10.509   0.759   2.404
20922SOL     OW64597   1.676   6.461  11.391
20922SOL    HW164598   1.713   6.546  11.365
20922SOL    HW264599   1.671   6.465  11.486
20923SOL     OW64600   4.065   0.132  13.398
20923SOL    HW164601   4.149   0.135  13.352
20923SOL    HW264602   4.026   0.049  13.371
20924SOL     OW64603  10.002  10.404  11.541
20924SOL    HW164604   9.987  10.496  11.565
20924SOL    HW264605  10.013  10.359  11.625
20925SOL     OW64606  14.707   2.592  10.727
20925SOL    HW164607  14.620   2.621  10.751
20925SOL    HW264608  14.762   2.612  10.803
20926SOL     OW64609   0.130   4.651   4.372
20926SOL    HW164610   0.103   4.599   4.296
20926SOL    HW264611   0.129   4.590   4.445
20927SOL     OW64612  11.358   8.452  14.450
20927SOL    HW164613  11.271   8.418  14.429
20927SOL    HW264614  11.411   8.428  14.374
20928SOL     OW64615  10.803   9.319  11.740
20928SOL    HW164616  10.751   9.398  11.758
20928SOL    HW264617  10.892   9.344  11.765
20929SOL     OW64618  10.605  10.987   4.183
20929SOL    HW164619  10.540  10.970   4.251
20929SOL    HW264620  10.554  11.020   4.109
20930SOL     OW64621   1.721  11.560   7.672
20930SOL    HW164622   1.752  11.602   7.592
20930SOL    HW264623   1.799  11.517   7.708
20931SOL     OW64624  14.635   0.924   6.511
20931SOL    HW164625  14.727   0.902   6.496
20931SOL    HW264626  14.624   1.009   6.469
20932SOL     OW64627   3.878  10.224  12.878
20932SOL    HW164628   3.908  10.257  12.793
20932SOL    HW264629   3.829  10.144  12.857
20933SOL     OW64630   7.542   1.323  14.469
20933SOL    HW164631   7.588   1.246  14.502
20933SOL    HW264632   7.460   1.325  14.518
20934SOL     OW64633  14.678  13.477  10.125
20934SOL    HW164634  14.677  13.389  10.087
20934SOL    HW264635  14.641  13.533  10.056
20935SOL     OW64636  14.578   8.732   3.128
20935SOL    HW164637  14.664   8.765   3.102
20935SOL    HW264638  14.576   8.642   3.096
20936SOL     OW64639   9.239   4.914  14.637
20936SOL    HW164640   9.256   4.920  14.543
20936SOL    HW264641   9.326   4.922  14.677
20937SOL     OW64642   3.230   2.642  14.046
20937SOL    HW164643   3.254   2.711  13.984
20937SOL    HW264644   3.146   2.609  14.014
20938SOL     OW64645  13.230   4.032   1.244
20938SOL    HW164646  13.230   4.100   1.176
20938SOL    HW264647  13.172   4.066   1.312
20939SOL     OW64648  10.987  13.719   1.214
20939SOL    HW164649  11.016  13.742   1.125
20939SOL    HW264650  11.053  13.758   1.271
20940SOL     OW64651   7.768   8.033  11.323
20940SOL    HW164652   7.744   7.944  11.348
20940SOL    HW264653   7.815   8.022  11.239
20941SOL     OW64654   0.657   0.855  12.338
20941SOL    HW164655   0.629   0.918  12.405
20941SOL    HW264656   0.747   0.834  12.362
20942SOL     OW64657   5.684   6.847  10.461
20942SOL    HW164658   5.635   6.812  10.535
20942SOL    HW264659   5.667   6.786  10.389
20943SOL     OW64660   3.813  14.447   6.617
20943SOL    HW164661   3.817  14.397   6.535
20943SOL    HW264662   3.839  14.384   6.684
20944SOL     OW64663   4.153   7.760   8.976
20944SOL    HW164664   4.118   7.716   8.898
20944SOL    HW264665   4.077   7.803   9.015
20945SOL     OW64666   5.293   4.188   0.934
20945SOL    HW164667   5.367   4.128   0.920
20945SOL    HW264668   5.222   4.132   0.964
20946SOL     OW64669  14.109   7.824  12.828
20946SOL    HW164670  14.171   7.889  12.860
20946SOL    HW264671  14.093   7.848  12.737
20947SOL     OW64672  14.292   0.248  12.535
20947SOL    HW164673  14.277   0.297  12.454
20947SOL    HW264674  14.240   0.294  12.600
20948SOL     OW64675  11.036  11.147  11.874
20948SOL    HW164676  11.082  11.086  11.816
20948SOL    HW264677  11.106  11.202  11.910
20949SOL     OW64678  10.888  12.629   7.681
20949SOL    HW164679  10.978  12.631   7.714
20949SOL    HW264680  10.849  12.552   7.722
20950SOL     OW64681   7.024   7.995  12.332
20950SOL    HW164682   6.948   7.973  12.387
20950SOL    HW264683   6.990   8.060  12.270
20951SOL     OW64684   6.185   3.804   7.768
20951SOL    HW164685   6.269   3.847   7.757
20951SOL    HW264686   6.158   3.825   7.857
20952SOL     OW64687   5.196   8.473   6.437
20952SOL    HW164688   5.289   8.492   6.430
20952SOL    HW264689   5.191   8.377   6.441
20953SOL     OW64690  12.532  11.932   7.348
20953SOL    HW164691  12.600  11.928   7.416
20953SOL    HW264692  12.536  12.021   7.316
20954SOL     OW64693  11.502   0.779  14.288
20954SOL    HW164694  11.533   0.734  14.367
20954SOL    HW264695  11.408   0.759  14.286
20955SOL     OW64696  10.960   9.170   7.260
20955SOL    HW164697  10.951   9.102   7.327
20955SOL    HW264698  10.871   9.200   7.244
20956SOL     OW64699   1.082   1.556   0.384
20956SOL    HW164700   1.086   1.622   0.453
20956SOL    HW264701   1.014   1.495   0.413
20957SOL     OW64702   3.109   8.467   8.631
20957SOL    HW164703   3.023   8.503   8.606
20957SOL    HW264704   3.100   8.447   8.724
20958SOL     OW64705  10.612   9.475   5.011
20958SOL    HW164706  10.682   9.540   5.001
20958SOL    HW264707  10.531   9.527   5.013
20959SOL     OW64708   5.499  14.582   9.312
20959SOL    HW164709   5.467  14.510   9.367
20959SOL    HW264710   5.526  14.649   9.375
20960SOL     OW64711  12.272   0.523   4.123
20960SOL    HW164712  12.361   0.491   4.111
20960SOL    HW264713  12.281   0.597   4.183
20961SOL     OW64714  11.822   3.083  10.386
20961SOL    HW164715  11.881   3.153  10.358
20961SOL    HW264716  11.880   3.013  10.415
20962SOL     OW64717   5.926  14.313   4.265
20962SOL    HW164718   5.897  14.336   4.176
20962SOL    HW264719   6.001  14.371   4.281
20963SOL     OW64720  11.802  14.284   6.494
20963SOL    HW164721  11.722  14.336   6.502
20963SOL    HW264722  11.867  14.346   6.460
20964SOL     OW64723  10.794  10.531   1.905
20964SOL    HW164724  10.880  10.573   1.898
20964SOL    HW264725  10.781  10.489   1.820
20965SOL     OW64726  11.325   6.701  10.661
20965SOL    HW164727  11.311   6.776  10.719
20965SOL    HW264728  11.348   6.630  10.721
20966SOL     OW64729   5.183   4.791   8.912
20966SOL    HW164730   5.158   4.698   8.915
20966SOL    HW264731   5.100   4.838   8.900
20967SOL     OW64732  12.025   6.176   2.518
20967SOL    HW164733  11.967   6.244   2.552
20967SOL    HW264734  12.110   6.220   2.507
20968SOL     OW64735   4.884  10.416   0.981
20968SOL    HW164736   4.942  10.420   0.905
20968SOL    HW264737   4.938  10.377   1.050
20969SOL     OW64738   4.718   1.693   5.626
20969SOL    HW164739   4.765   1.689   5.710
20969SOL    HW264740   4.637   1.645   5.642
20970SOL     OW64741   2.703   6.068   6.054
20970SOL    HW164742   2.765   6.107   5.992
20970SOL    HW264743   2.622   6.118   6.040
20971SOL     OW64744   9.228   0.394   8.084
20971SOL    HW164745   9.206   0.346   8.004
20971SOL    HW264746   9.207   0.485   8.064
20972SOL     OW64747   6.137  14.331   4.877
20972SOL    HW164748   6.200  14.335   4.948
20972SOL    HW264749   6.168  14.259   4.821
20973SOL     OW64750   6.356   0.865   0.930
20973SOL    HW164751   6.366   0.849   0.836
20973SOL    HW264752   6.421   0.932   0.951
20974SOL     OW64753   0.250   2.133   9.751
20974SOL    HW164754   0.340   2.143   9.783
20974SOL    HW264755   0.197   2.129   9.831
20975SOL     OW64756  10.066   3.738   0.787
20975SOL    HW164757  10.161   3.734   0.777
20975SOL    HW264758  10.038   3.802   0.722
20976SOL     OW64759   8.595   7.186   3.847
20976SOL    HW164760   8.548   7.152   3.923
20976SOL    HW264761   8.562   7.134   3.773
20977SOL     OW64762   9.779   0.687   1.225
20977SOL    HW164763   9.865   0.705   1.186
20977SOL    HW264764   9.794   0.693   1.319
20978SOL     OW64765   1.115  14.476   2.659
20978SOL    HW164766   1.124  14.449   2.750
20978SOL    HW264767   1.159  14.406   2.609
20979SOL     OW64768   2.433   4.742   5.538
20979SOL    HW164769   2.418   4.665   5.484
20979SOL    HW264770   2.526   4.739   5.559
20980SOL     OW64771  14.429   0.652   5.155
20980SOL    HW164772  14.491   0.715   5.115
20980SOL    HW264773  14.370   0.629   5.084
20981SOL     OW64774   5.870   2.381  11.393
20981SOL    HW164775   5.843   2.359  11.482
20981SOL    HW264776   5.928   2.310  11.366
20982SOL     OW64777  12.388   3.014   9.630
20982SOL    HW164778  12.457   2.948   9.636
20982SOL    HW264779  12.425   3.084   9.576
20983SOL     OW64780   1.038   1.510  11.996
20983SOL    HW164781   0.997   1.465  12.070
20983SOL    HW264782   0.965   1.534  11.939
20984SOL     OW64783  10.409  10.849  12.865
20984SOL    HW164784  10.333  10.900  12.891
20984SOL    HW264785  10.482  10.911  12.866
20985SOL     OW64786  11.901  10.731   4.974
20985SOL    HW164787  11.838  10.765   4.911
20985SOL    HW264788  11.980  10.712   4.922
20986SOL     OW64789  13.039   5.204   5.003
20986SOL    HW164790  12.996   5.277   5.048
20986SOL    HW264791  13.113   5.244   4.958
20987SOL     OW64792   9.305   8.387   6.255
20987SOL    HW164793   9.346   8.376   6.169
20987SOL    HW264794   9.361   8.449   6.301
20988SOL     OW64795   3.913  12.399  11.636
20988SOL    HW164796   3.854  12.437  11.701
20988SOL    HW264797   3.999  12.402  11.679
20989SOL     OW64798  11.492  13.385   3.456
20989SOL    HW164799  11.432  13.410   3.526
20989SOL    HW264800  11.503  13.291   3.467
20990SOL     OW64801   8.031   8.967   4.507
20990SOL    HW164802   8.088   8.957   4.584
20990SOL    HW264803   7.954   8.913   4.527
20991SOL     OW64804   6.872   5.279  13.829
20991SOL    HW164805   6.877   5.220  13.905
20991SOL    HW264806   6.888   5.222  13.754
20992SOL     OW64807   0.498   0.150   7.638
20992SOL    HW164808   0.592   0.170   7.638
20992SOL    HW264809   0.485   0.100   7.718
20993SOL     OW64810   1.195   4.554   7.912
20993SOL    HW164811   1.248   4.541   7.834
20993SOL    HW264812   1.250   4.607   7.970
20994SOL     OW64813   7.303   5.843   6.019
20994SOL    HW164814   7.393   5.811   6.008
20994SOL    HW264815   7.299   5.873   6.109
20995SOL     OW64816   6.903  12.575  10.611
20995SOL    HW164817   6.925  12.606  10.523
20995SOL    HW264818   6.849  12.645  10.648
20996SOL     OW64819   1.222  10.753  12.117
20996SOL    HW164820   1.311  10.735  12.086
20996SOL    HW264821   1.173  10.778  12.039
20997SOL     OW64822   0.923  12.261  13.503
20997SOL    HW164823   0.961  12.262  13.416
20997SOL    HW264824   0.993  12.291  13.561
20998SOL     OW64825   5.339   8.468   6.091
20998SOL    HW164826   5.335   8.387   6.041
20998SOL    HW264827   5.414   8.457   6.149
20999SOL     OW64828   1.972   8.036  11.821
20999SOL    HW164829   1.932   7.954  11.849
20999SOL    HW264830   1.946   8.046  11.730
21000SOL     OW64831   9.058   6.248   4.432
21000SOL    HW164832   8.993   6.282   4.370
21000SOL    HW264833   9.133   6.226   4.378
21001SOL     OW64834  13.103   3.358   0.090
21001SOL    HW164835  13.102   3.376  14.878
21001SOL    HW264836  13.177   3.408   0.124
21002SOL     OW64837  11.500   7.189   9.367
21002SOL    HW164838  11.459   7.267   9.404
21002SOL    HW264839  11.428   7.130   9.349
21003SOL     OW64840   0.961   4.481  12.494
21003SOL    HW164841   0.948   4.386  12.494
21003SOL    HW264842   1.036   4.495  12.552
21004SOL     OW64843  14.460   7.514  12.593
21004SOL    HW164844  14.437   7.552  12.678
21004SOL    HW264845  14.399   7.554  12.532
21005SOL     OW64846   4.299  10.705   3.187
21005SOL    HW164847   4.385  10.707   3.228
21005SOL    HW264848   4.242  10.664   3.252
21006SOL     OW64849   6.846   3.699   8.649
21006SOL    HW164850   6.894   3.772   8.612
21006SOL    HW264851   6.823   3.644   8.574
21007SOL     OW64852   9.469   6.146  14.462
21007SOL    HW164853   9.466   6.221  14.402
21007SOL    HW264854   9.513   6.077  14.411
21008SOL     OW64855   2.455  12.087   8.989
21008SOL    HW164856   2.402  12.057   9.063
21008SOL    HW264857   2.391  12.099   8.918
21009SOL     OW64858  11.056   4.761   1.350
21009SOL    HW164859  11.023   4.825   1.413
21009SOL    HW264860  11.136   4.801   1.315
21010SOL     OW64861   3.740   9.117   3.195
21010SOL    HW164862   3.798   9.183   3.236
21010SOL    HW264863   3.670   9.169   3.156
21011SOL     OW64864   1.924   0.089   6.503
21011SOL    HW164865   1.996   0.146   6.474
21011SOL    HW264866   1.957   0.047   6.582
21012SOL     OW64867  10.416  11.953   7.759
21012SOL    HW164868  10.345  11.889   7.753
21012SOL    HW264869  10.371  12.036   7.777
21013SOL     OW64870   9.112   8.383   1.260
21013SOL    HW164871   9.188   8.427   1.299
21013SOL    HW264872   9.146   8.343   1.180
21014SOL     OW64873  14.248   3.166   0.434
21014SOL    HW164874  14.174   3.217   0.466
21014SOL    HW264875  14.319   3.187   0.494
21015SOL     OW64876   0.220   3.350  12.669
21015SOL    HW164877   0.149   3.348  12.605
21015SOL    HW264878   0.212   3.269  12.717
21016SOL     OW64879  14.163   3.253  13.520
21016SOL    HW164880  14.237   3.265  13.460
21016SOL    HW264881  14.134   3.341  13.541
21017SOL     OW64882   6.364   7.788   2.671
21017SOL    HW164883   6.325   7.709   2.634
21017SOL    HW264884   6.429   7.816   2.606
21018SOL     OW64885   2.858   9.686  14.694
21018SOL    HW164886   2.779   9.739  14.698
21018SOL    HW264887   2.833   9.608  14.645
21019SOL     OW64888   7.076   5.920  14.217
21019SOL    HW164889   7.166   5.947  14.234
21019SOL    HW264890   7.081   5.866  14.138
21020SOL     OW64891   3.590   8.005  14.637
21020SOL    HW164892   3.547   7.981  14.555
21020SOL    HW264893   3.643   8.081  14.615
21021SOL     OW64894   8.605   3.159   5.529
21021SOL    HW164895   8.535   3.147   5.465
21021SOL    HW264896   8.664   3.222   5.489
21022SOL     OW64897   8.096  11.347   6.953
21022SOL    HW164898   8.153  11.414   6.917
21022SOL    HW264899   8.150  11.268   6.955
21023SOL     OW64900  10.436  14.530   3.764
21023SOL    HW164901  10.362  14.471   3.748
21023SOL    HW264902  10.451  14.575   3.681
21024SOL     OW64903  10.236  10.239   6.329
21024SOL    HW164904  10.292  10.308   6.295
21024SOL    HW264905  10.183  10.283   6.397
21025SOL     OW64906   6.025   4.909   7.771
21025SOL    HW164907   6.014   4.819   7.801
21025SOL    HW264908   6.109   4.909   7.725
21026SOL     OW64909   6.218   7.559  13.049
21026SOL    HW164910   6.306   7.555  13.086
21026SOL    HW264911   6.222   7.629  12.985
21027SOL     OW64912  12.833  11.866   4.368
21027SOL    HW164913  12.861  11.913   4.447
21027SOL    HW264914  12.872  11.779   4.377
21028SOL     OW64915   2.992   2.869   0.562
21028SOL    HW164916   2.942   2.826   0.632
21028SOL    HW264917   2.949   2.954   0.552
21029SOL     OW64918   2.257  11.944   3.496
21029SOL    HW164919   2.254  12.025   3.548
21029SOL    HW264920   2.310  11.966   3.420
21030SOL     OW64921  14.044   3.969   3.796
21030SOL    HW164922  14.085   4.008   3.719
21030SOL    HW264923  14.106   3.985   3.867
21031SOL     OW64924   6.606   2.963   1.977
21031SOL    HW164925   6.624   3.043   2.027
21031SOL    HW264926   6.680   2.905   1.997
21032SOL     OW64927   8.626  12.100   3.163
21032SOL    HW164928   8.697  12.126   3.105
21032SOL    HW264929   8.607  12.178   3.215
21033SOL     OW64930   6.690   1.325  12.258
21033SOL    HW164931   6.644   1.277  12.189
21033SOL    HW264932   6.775   1.345  12.220
21034SOL     OW64933  13.312   7.110  12.823
21034SOL    HW164934  13.314   7.170  12.748
21034SOL    HW264935  13.300   7.023  12.785
21035SOL     OW64936   7.751   4.274   2.585
21035SOL    HW164937   7.744   4.182   2.610
21035SOL    HW264938   7.672   4.291   2.534
21036SOL     OW64939   9.575   4.486   8.444
21036SOL    HW164940   9.585   4.394   8.471
21036SOL    HW264941   9.547   4.481   8.353
21037SOL     OW64942   1.999   3.422   6.521
21037SOL    HW164943   1.944   3.410   6.599
21037SOL    HW264944   2.088   3.427   6.556
21038SOL     OW64945   8.514  10.661   0.033
21038SOL    HW164946   8.507  10.726   0.103
21038SOL    HW264947   8.488  10.579   0.073
21039SOL     OW64948  14.152  11.354   2.539
21039SOL    HW164949  14.106  11.364   2.622
21039SOL    HW264950  14.229  11.300   2.560
21040SOL     OW64951   3.660   3.882  13.489
21040SOL    HW164952   3.706   3.803  13.518
21040SOL    HW264953   3.686   3.892  13.397
21041SOL     OW64954   3.914  12.975   9.794
21041SOL    HW164955   3.997  12.943   9.831
21041SOL    HW264956   3.935  12.990   9.701
21042SOL     OW64957  13.422   4.351  13.176
21042SOL    HW164958  13.467   4.411  13.236
21042SOL    HW264959  13.418   4.398  13.093
21043SOL     OW64960   1.206   2.560   0.525
21043SOL    HW164961   1.169   2.584   0.610
21043SOL    HW264962   1.213   2.464   0.529
21044SOL     OW64963   9.872   1.592  10.436
21044SOL    HW164964   9.782   1.578  10.410
21044SOL    HW264965   9.924   1.560  10.363
21045SOL     OW64966   5.410   0.909   6.354
21045SOL    HW164967   5.469   0.897   6.429
21045SOL    HW264968   5.415   1.002   6.334
21046SOL     OW64969   6.367   3.798  14.687
21046SOL    HW164970   6.406   3.733  14.745
21046SOL    HW264971   6.401   3.777  14.600
21047SOL     OW64972   1.667  14.457   9.720
21047SOL    HW164973   1.632  14.407   9.646
21047SOL    HW264974   1.703  14.391   9.780
21048SOL     OW64975   7.120   9.990   1.806
21048SOL    HW164976   7.119   9.975   1.900
21048SOL    HW264977   7.170   9.917   1.770
21049SOL     OW64978   3.043   5.373   7.320
21049SOL    HW164979   3.013   5.442   7.261
21049SOL    HW264980   2.964   5.345   7.367
21050SOL     OW64981   2.416  14.686   3.518
21050SOL    HW164982   2.493  14.743   3.520
21050SOL    HW264983   2.386  14.684   3.609
21051SOL     OW64984   0.635  11.146   5.530
21051SOL    HW164985   0.541  11.162   5.525
21051SOL    HW264986   0.651  11.124   5.622
21052SOL     OW64987  11.952   5.516  12.813
21052SOL    HW164988  11.891   5.590  12.823
21052SOL    HW264989  12.035   5.548  12.849
21053SOL     OW64990   1.502   1.947   9.928
21053SOL    HW164991   1.591   1.977   9.911
21053SOL    HW264992   1.489   1.872   9.870
21054SOL     OW64993   4.651   4.340  13.587
21054SOL    HW164994   4.644   4.251  13.623
21054SOL    HW264995   4.579   4.346  13.524
21055SOL     OW64996   9.021   0.371   1.204
21055SOL    HW164997   9.074   0.319   1.143
21055SOL    HW264998   8.991   0.308   1.269
21056SOL     OW64999  11.214   1.348  13.118
21056SOL    HW165000  11.148   1.357  13.049
21056SOL    HW265001  11.170   1.375  13.198
21057SOL     OW65002  14.868   2.843   4.169
21057SOL    HW165003  14.822   2.904   4.226
21057SOL    HW265004  14.810   2.830   4.094
21058SOL     OW65005   3.789   3.788   3.324
21058SOL    HW165006   3.745   3.865   3.361
21058SOL    HW265007   3.808   3.813   3.234
21059SOL     OW65008   7.754  12.151   5.428
21059SOL    HW165009   7.797  12.084   5.480
21059SOL    HW265010   7.675  12.110   5.394
21060SOL     OW65011   0.221  10.862   8.772
21060SOL    HW165012   0.246  10.799   8.840
21060SOL    HW265013   0.152  10.819   8.723
21061SOL     OW65014  10.985   0.017   6.447
21061SOL    HW165015  10.953  14.811   6.426
21061SOL    HW265016  11.066   0.026   6.397
21062SOL     OW65017  13.344   1.179  13.668
21062SOL    HW165018  13.430   1.186  13.709
21062SOL    HW265019  13.355   1.218  13.582
21063SOL     OW65020   1.387   2.222   6.386
21063SOL    HW165021   1.425   2.136   6.406
21063SOL    HW265022   1.459   2.271   6.346
21064SOL     OW65023   2.003   2.696  13.706
21064SOL    HW165024   1.929   2.702  13.646
21064SOL    HW265025   1.963   2.694  13.793
21065SOL     OW65026   3.999   1.420   7.659
21065SOL    HW165027   4.012   1.515   7.657
21065SOL    HW265028   4.086   1.384   7.647
21066SOL     OW65029  12.936   9.499   2.721
21066SOL    HW165030  13.022   9.489   2.680
21066SOL    HW265031  12.914   9.592   2.709
21067SOL     OW65032   0.586  13.694  10.417
21067SOL    HW165033   0.511  13.699  10.358
21067SOL    HW265034   0.561  13.628  10.482
21068SOL     OW65035  13.054   1.926  14.055
21068SOL    HW165036  13.005   1.983  13.996
21068SOL    HW265037  13.029   1.838  14.030
21069SOL     OW65038  14.352  12.287   2.367
21069SOL    HW165039  14.274  12.254   2.324
21069SOL    HW265040  14.354  12.380   2.346
21070SOL     OW65041   7.927  12.422   4.523
21070SOL    HW165042   7.911  12.474   4.444
21070SOL    HW265043   8.016  12.446   4.551
21071SOL     OW65044   6.028   4.290  10.352
21071SOL    HW165045   6.023   4.386  10.354
21071SOL    HW265046   5.937   4.262  10.345
21072SOL     OW65047   6.292  10.498   6.314
21072SOL    HW165048   6.385  10.480   6.307
21072SOL    HW265049   6.287  10.584   6.355
21073SOL     OW65050   7.710   1.199   9.560
21073SOL    HW165051   7.798   1.234   9.546
21073SOL    HW265052   7.723   1.106   9.576
21074SOL     OW65053  13.898   7.396   2.838
21074SOL    HW165054  13.923   7.472   2.890
21074SOL    HW265055  13.835   7.430   2.775
21075SOL     OW65056   9.260   6.528   2.249
21075SOL    HW165057   9.174   6.516   2.289
21075SOL    HW265058   9.257   6.472   2.171
21076SOL     OW65059  13.055   3.500  13.016
21076SOL    HW165060  13.071   3.555  13.092
21076SOL    HW265061  13.124   3.434  13.018
21077SOL     OW65062   9.296   9.731   6.243
21077SOL    HW165063   9.203   9.732   6.219
21077SOL    HW265064   9.316   9.638   6.257
21078SOL     OW65065   0.791   0.695   9.157
21078SOL    HW165066   0.769   0.649   9.239
21078SOL    HW265067   0.721   0.759   9.146
21079SOL     OW65068   4.789   0.232  11.465
21079SOL    HW165069   4.742   0.265  11.388
21079SOL    HW265070   4.876   0.272  11.459
21080SOL     OW65071  12.476  12.891   7.583
21080SOL    HW165072  12.547  12.952   7.602
21080SOL    HW265073  12.398  12.931   7.622
21081SOL     OW65074  11.173   0.398  10.420
21081SOL    HW165075  11.226   0.474  10.445
21081SOL    HW265076  11.124   0.428  10.343
21082SOL     OW65077   1.050  11.351   6.908
21082SOL    HW165078   1.076  11.277   6.964
21082SOL    HW265079   0.972  11.387   6.951
21083SOL     OW65080   8.031   6.605   6.229
21083SOL    HW165081   7.950   6.575   6.270
21083SOL    HW265082   8.007   6.686   6.184
21084SOL     OW65083   8.555   8.853   5.887
21084SOL    HW165084   8.482   8.912   5.902
21084SOL    HW265085   8.630   8.910   5.872
21085SOL     OW65086   2.178   7.801   6.091
21085SOL    HW165087   2.136   7.866   6.035
21085SOL    HW265088   2.184   7.842   6.177
21086SOL     OW65089  12.705   6.041   9.518
21086SOL    HW165090  12.799   6.050   9.529
21086SOL    HW265091  12.676   6.127   9.487
21087SOL     OW65092   5.257   1.467  11.579
21087SOL    HW165093   5.308   1.538  11.539
21087SOL    HW265094   5.251   1.400  11.511
21088SOL     OW65095   5.559   4.459   8.575
21088SOL    HW165096   5.494   4.517   8.616
21088SOL    HW265097   5.609   4.517   8.517
21089SOL     OW65098   7.149   3.192   5.797
21089SOL    HW165099   7.115   3.230   5.716
21089SOL    HW265100   7.074   3.146   5.835
21090SOL     OW65101   9.141   3.733   3.898
21090SOL    HW165102   9.165   3.648   3.937
21090SOL    HW265103   9.049   3.745   3.920
21091SOL     OW65104   2.034  13.542  10.051
21091SOL    HW165105   2.054  13.553  10.144
21091SOL    HW265106   1.950  13.496  10.049
21092SOL     OW65107   9.835   9.460   3.521
21092SOL    HW165108   9.823   9.530   3.457
21092SOL    HW265109   9.746   9.441   3.552
21093SOL     OW65110  10.161   7.910  13.643
21093SOL    HW165111  10.108   7.986  13.667
21093SOL    HW265112  10.108   7.835  13.670
21094SOL     OW65113  14.426   1.111  12.400
21094SOL    HW165114  14.388   1.140  12.484
21094SOL    HW265115  14.476   1.186  12.369
21095SOL     OW65116   3.412   2.746   3.021
21095SOL    HW165117   3.421   2.664   2.973
21095SOL    HW265118   3.437   2.723   3.111
21096SOL     OW65119   0.049   0.025  10.360
21096SOL    HW165120   0.096   0.028  10.277
21096SOL    HW265121  14.839   0.011  10.336
21097SOL     OW65122   2.565   2.717   0.406
21097SOL    HW165123   2.556   2.688   0.315
21097SOL    HW265124   2.602   2.805   0.400
21098SOL     OW65125  11.677   5.591   5.058
21098SOL    HW165126  11.691   5.685   5.064
21098SOL    HW265127  11.626   5.569   5.136
21099SOL     OW65128   3.414   3.764   5.202
21099SOL    HW165129   3.405   3.855   5.175
21099SOL    HW265130   3.349   3.753   5.271
21100SOL     OW65131  13.729  11.444   0.932
21100SOL    HW165132  13.820  11.448   0.962
21100SOL    HW265133  13.735  11.439   0.837
21101SOL     OW65134  13.235  11.080   0.017
21101SOL    HW165135  13.166  11.036  14.848
21101SOL    HW265136  13.216  11.173   0.006
21102SOL     OW65137  11.254   8.780  14.085
21102SOL    HW165138  11.277   8.872  14.083
21102SOL    HW265139  11.173   8.774  14.034
21103SOL     OW65140  11.230   0.679  13.783
21103SOL    HW165141  11.209   0.587  13.762
21103SOL    HW265142  11.304   0.699  13.726
21104SOL     OW65143   6.230  12.361   5.808
21104SOL    HW165144   6.324  12.364   5.789
21104SOL    HW265145   6.189  12.341   5.723
21105SOL     OW65146  12.694  14.607   5.199
21105SOL    HW165147  12.777  14.566   5.176
21105SOL    HW265148  12.718  14.695   5.228
21106SOL     OW65149   6.535   3.604  13.208
21106SOL    HW165150   6.540   3.682  13.262
21106SOL    HW265151   6.594   3.622  13.135
21107SOL     OW65152  13.505   1.999  11.911
21107SOL    HW165153  13.438   2.064  11.887
21107SOL    HW265154  13.549   1.978  11.829
21108SOL     OW65155   6.513  14.555   4.074
21108SOL    HW165156   6.512  14.645   4.041
21108SOL    HW265157   6.594  14.548   4.124
21109SOL     OW65158  10.141   4.952  11.870
21109SOL    HW165159  10.165   4.964  11.778
21109SOL    HW265160  10.143   5.039  11.908
21110SOL     OW65161  13.476  13.373   4.563
21110SOL    HW165162  13.433  13.302   4.516
21110SOL    HW265163  13.412  13.400   4.629
21111SOL     OW65164   9.779   5.375   8.230
21111SOL    HW165165   9.859   5.404   8.273
21111SOL    HW265166   9.734   5.323   8.296
21112SOL     OW65167   4.825   9.113  13.171
21112SOL    HW165168   4.746   9.119  13.117
21112SOL    HW265169   4.871   9.036  13.139
21113SOL     OW65170  10.139   5.392   0.563
21113SOL    HW165171  10.169   5.433   0.644
21113SOL    HW265172  10.086   5.460   0.520
21114SOL     OW65173   8.708   1.535   9.725
21114SOL    HW165174   8.670   1.454   9.690
21114SOL    HW265175   8.798   1.512   9.748
21115SOL     OW65176   8.762  13.135   0.940
21115SOL    HW165177   8.782  13.199   1.009
21115SOL    HW265178   8.667  13.123   0.945
21116SOL     OW65179   4.851  11.314   3.606
21116SOL    HW165180   4.767  11.353   3.584
21116SOL    HW265181   4.838  11.275   3.693
21117SOL     OW65182   8.400   1.313  13.665
21117SOL    HW165183   8.416   1.222  13.692
21117SOL    HW265184   8.485   1.356  13.674
21118SOL     OW65185   5.028  10.897   4.990
21118SOL    HW165186   5.081  10.886   4.911
21118SOL    HW265187   5.004  10.807   5.014
21119SOL     OW65188  13.702   8.285   3.191
21119SOL    HW165189  13.648   8.210   3.167
21119SOL    HW265190  13.743   8.259   3.274
21120SOL     OW65191   8.881   4.420  11.367
21120SOL    HW165192   8.966   4.463  11.358
21120SOL    HW265193   8.889   4.367  11.446
21121SOL     OW65194   8.719   0.026   5.216
21121SOL    HW165195   8.645  14.876   5.268
21121SOL    HW265196   8.763   0.089   5.274
21122SOL     OW65197  13.441   4.363   1.775
21122SOL    HW165198  13.397   4.294   1.726
21122SOL    HW265199  13.371   4.406   1.824
21123SOL     OW65200  12.654   3.086  14.119
21123SOL    HW165201  12.607   3.151  14.067
21123SOL    HW265202  12.703   3.035  14.055
21124SOL     OW65203   8.328   5.719  13.512
21124SOL    HW165204   8.284   5.684  13.435
21124SOL    HW265205   8.377   5.645  13.547
21125SOL     OW65206   3.774  10.739   9.077
21125SOL    HW165207   3.770  10.816   9.019
21125SOL    HW265208   3.704  10.755   9.141
21126SOL     OW65209   0.772   6.291  14.594
21126SOL    HW165210   0.851   6.292  14.541
21126SOL    HW265211   0.760   6.199  14.617
21127SOL     OW65212   7.343  14.165   4.196
21127SOL    HW165213   7.248  14.155   4.192
21127SOL    HW265214   7.375  14.081   4.230
21128SOL     OW65215  14.428  11.731  10.452
21128SOL    HW165216  14.431  11.647  10.406
21128SOL    HW265217  14.412  11.707  10.544
21129SOL     OW65218   8.489  10.927  10.814
21129SOL    HW165219   8.497  10.975  10.732
21129SOL    HW265220   8.423  10.860  10.796
21130SOL     OW65221   7.876   2.403  13.720
21130SOL    HW165222   7.949   2.408  13.658
21130SOL    HW265223   7.801   2.441  13.673
21131SOL     OW65224   0.899   9.484   2.428
21131SOL    HW165225   0.909   9.561   2.484
21131SOL    HW265226   0.823   9.505   2.373
21132SOL     OW65227   9.221  12.093   4.744
21132SOL    HW165228   9.284  12.165   4.741
21132SOL    HW265229   9.270  12.016   4.716
21133SOL     OW65230   7.771   5.824  10.260
21133SOL    HW165231   7.713   5.751  10.242
21133SOL    HW265232   7.783   5.823  10.355
21134SOL     OW65233   8.268   6.062  11.678
21134SOL    HW165234   8.309   5.985  11.717
21134SOL    HW265235   8.325   6.135  11.702
21135SOL     OW65236  13.577   2.423   4.373
21135SOL    HW165237  13.491   2.465   4.366
21135SOL    HW265238  13.629   2.465   4.305
21136SOL     OW65239  11.784   6.651  12.112
21136SOL    HW165240  11.752   6.571  12.070
21136SOL    HW265241  11.839   6.693  12.046
21137SOL     OW65242   3.104  13.439   2.034
21137SOL    HW165243   3.181  13.399   2.074
21137SOL    HW265244   3.045  13.365   2.017
21138SOL     OW65245  11.958  13.767   3.181
21138SOL    HW165246  12.036  13.713   3.193
21138SOL    HW265247  11.989  13.857   3.191
21139SOL     OW65248  12.761   7.758  12.728
21139SOL    HW165249  12.818   7.819  12.681
21139SOL    HW265250  12.700   7.815  12.775
21140SOL     OW65251   4.668  11.453   0.765
21140SOL    HW165252   4.631  11.457   0.677
21140SOL    HW265253   4.595  11.423   0.820
21141SOL     OW65254  12.430  11.054  11.620
21141SOL    HW165255  12.408  11.061  11.713
21141SOL    HW265256  12.371  11.116  11.577
21142SOL     OW65257   4.002   7.876  10.071
21142SOL    HW165258   4.068   7.820  10.030
21142SOL    HW265259   3.980   7.831  10.153
21143SOL     OW65260   6.334   1.941  12.392
21143SOL    HW165261   6.331   1.909  12.482
21143SOL    HW265262   6.274   1.884  12.344
21144SOL     OW65263   8.445   4.071   3.642
21144SOL    HW165264   8.495   4.121   3.578
21144SOL    HW265265   8.472   4.106   3.727
21145SOL     OW65266   4.702  12.889   4.135
21145SOL    HW165267   4.701  12.831   4.059
21145SOL    HW265268   4.616  12.877   4.176
21146SOL     OW65269  14.600   6.116  12.061
21146SOL    HW165270  14.619   6.098  12.153
21146SOL    HW265271  14.592   6.030  12.020
21147SOL     OW65272   4.205  11.608   6.125
21147SOL    HW165273   4.156  11.626   6.044
21147SOL    HW265274   4.274  11.548   6.099
21148SOL     OW65275   0.711   5.994   4.158
21148SOL    HW165276   0.788   5.943   4.182
21148SOL    HW265277   0.724   6.079   4.202
21149SOL     OW65278   6.755  10.060   0.025
21149SOL    HW165279   6.718  10.147   0.010
21149SOL    HW265280   6.788  10.032  14.822
21150SOL     OW65281   9.505  10.492  14.703
21150SOL    HW165282   9.439  10.542  14.752
21150SOL    HW265283   9.545  10.557  14.645
21151SOL     OW65284   1.645   7.564  11.950
21151SOL    HW165285   1.582   7.524  11.890
21151SOL    HW265286   1.729   7.556  11.906
21152SOL     OW65287   8.045  14.815   8.618
21152SOL    HW165288   7.969  14.758   8.604
21152SOL    HW265289   8.085  14.782   8.698
21153SOL     OW65290  12.509   1.380   8.977
21153SOL    HW165291  12.597   1.399   8.944
21153SOL    HW265292  12.497   1.443   9.048
21154SOL     OW65293  10.342   1.211  11.752
21154SOL    HW165294  10.381   1.299  11.749
21154SOL    HW265295  10.324   1.190  11.660
21155SOL     OW65296   8.279   6.213   5.867
21155SOL    HW165297   8.219   6.262   5.812
21155SOL    HW265298   8.222   6.163   5.926
21156SOL     OW65299   3.494   4.465   0.586
21156SOL    HW165300   3.420   4.429   0.634
21156SOL    HW265301   3.458   4.489   0.500
21157SOL     OW65302   7.069   1.752  13.112
21157SOL    HW165303   7.034   1.683  13.056
21157SOL    HW265304   7.029   1.735  13.198
21158SOL     OW65305  13.073   5.116   2.861
21158SOL    HW165306  12.989   5.080   2.835
21158SOL    HW265307  13.053   5.172   2.936
21159SOL     OW65308   3.474  11.170  11.711
21159SOL    HW165309   3.532  11.119  11.768
21159SOL    HW265310   3.411  11.106  11.677
21160SOL     OW65311   4.620  12.691   8.842
21160SOL    HW165312   4.613  12.785   8.826
21160SOL    HW265313   4.545  12.654   8.796
21161SOL     OW65314   3.872  12.429   4.877
21161SOL    HW165315   3.905  12.341   4.894
21161SOL    HW265316   3.933  12.466   4.813
21162SOL     OW65317   6.290  12.608   7.563
21162SOL    HW165318   6.317  12.605   7.472
21162SOL    HW265319   6.269  12.700   7.580
21163SOL     OW65320   5.644   4.744   0.806
21163SOL    HW165321   5.623   4.818   0.749
21163SOL    HW265322   5.635   4.667   0.750
21164SOL     OW65323   6.869   2.433   0.523
21164SOL    HW165324   6.963   2.418   0.516
21164SOL    HW265325   6.842   2.459   0.435
21165SOL     OW65326  14.144   9.681  11.424
21165SOL    HW165327  14.185   9.606  11.466
21165SOL    HW265328  14.061   9.648  11.390
21166SOL     OW65329   0.901   8.650   3.724
21166SOL    HW165330   0.845   8.728   3.715
21166SOL    HW265331   0.878   8.614   3.809
21167SOL     OW65332  13.047  13.623   7.603
21167SOL    HW165333  13.074  13.531   7.599
21167SOL    HW265334  12.951  13.620   7.603
21168SOL     OW65335  13.551   1.625   9.069
21168SOL    HW165336  13.480   1.571   9.104
21168SOL    HW265337  13.538   1.624   8.974
21169SOL     OW65338  11.303   5.614   0.323
21169SOL    HW165339  11.300   5.649   0.413
21169SOL    HW265340  11.354   5.679   0.274
21170SOL     OW65341  14.483   6.594   1.398
21170SOL    HW165342  14.396   6.615   1.363
21170SOL    HW265343  14.466   6.557   1.484
21171SOL     OW65344   4.501   3.939   7.832
21171SOL    HW165345   4.522   4.019   7.783
21171SOL    HW265346   4.586   3.897   7.847
21172SOL     OW65347   0.008   5.286   6.887
21172SOL    HW165348  14.871   5.379   6.872
21172SOL    HW265349  14.813   5.254   6.935
21173SOL     OW65350  13.306   7.895  13.360
21173SOL    HW165351  13.319   7.936  13.445
21173SOL    HW265352  13.338   7.805  13.371
21174SOL     OW65353   9.906  12.365  14.074
21174SOL    HW165354   9.945  12.306  14.010
21174SOL    HW265355   9.812  12.358  14.060
21175SOL     OW65356   2.891   7.054   0.107
21175SOL    HW165357   2.906   7.082   0.198
21175SOL    HW265358   2.796   7.059   0.096
21176SOL     OW65359  10.086   4.114   1.315
21176SOL    HW165360  10.077   4.131   1.408
21176SOL    HW265361  10.165   4.162   1.289
21177SOL     OW65362  10.090  14.301   5.793
21177SOL    HW165363  10.003  14.330   5.820
21177SOL    HW265364  10.137  14.286   5.874
21178SOL     OW65365  14.801  12.136   4.220
21178SOL    HW165366  14.844  12.198   4.162
21178SOL    HW265367  14.852  12.055   4.213
21179SOL     OW65368   1.803  12.715   7.999
21179SOL    HW165369   1.864  12.786   8.021
21179SOL    HW265370   1.827  12.690   7.909
21180SOL     OW65371   4.153   4.984   8.452
21180SOL    HW165372   4.127   4.919   8.386
21180SOL    HW265373   4.160   5.066   8.404
21181SOL     OW65374   5.641  11.051   4.358
21181SOL    HW165375   5.725  11.016   4.389
21181SOL    HW265376   5.578  10.982   4.376
21182SOL     OW65377   0.833  14.265   3.278
21182SOL    HW165378   0.901  14.230   3.336
21182SOL    HW265379   0.794  14.188   3.237
21183SOL     OW65380  12.631   9.388  13.565
21183SOL    HW165381  12.614   9.308  13.516
21183SOL    HW265382  12.585   9.457  13.517
21184SOL     OW65383   3.995  14.358  11.014
21184SOL    HW165384   3.952  14.344  11.098
21184SOL    HW265385   3.940  14.422  10.968
21185SOL     OW65386   2.364   0.662  12.904
21185SOL    HW165387   2.292   0.690  12.959
21185SOL    HW265388   2.443   0.684  12.954
21186SOL     OW65389   1.449  10.019   7.251
21186SOL    HW165390   1.508   9.945   7.262
21186SOL    HW265391   1.416  10.010   7.162
21187SOL     OW65392   2.704   8.751   4.976
21187SOL    HW165393   2.726   8.671   4.929
21187SOL    HW265394   2.644   8.797   4.919
21188SOL     OW65395   5.322   7.654   2.710
21188SOL    HW165396   5.417   7.645   2.716
21188SOL    HW265397   5.295   7.587   2.647
21189SOL     OW65398   5.146   3.592  10.244
21189SOL    HW165399   5.162   3.686  10.247
21189SOL    HW265400   5.171   3.560  10.331
21190SOL     OW65401   3.917   1.190  14.819
21190SOL    HW165402   3.911   1.218  14.728
21190SOL    HW265403   3.983   1.120  14.818
21191SOL     OW65404   0.604   4.478   0.670
21191SOL    HW165405   0.582   4.454   0.580
21191SOL    HW265406   0.527   4.527   0.701
21192SOL     OW65407   9.695   2.656   8.825
21192SOL    HW165408   9.679   2.569   8.787
21192SOL    HW265409   9.607   2.692   8.840
21193SOL     OW65410  10.938   1.793  10.213
21193SOL    HW165411  10.965   1.838  10.293
21193SOL    HW265412  10.891   1.715  10.244
21194SOL     OW65413   0.633  12.486  13.384
21194SOL    HW165414   0.686  12.409  13.360
21194SOL    HW265415   0.690  12.539  13.439
21195SOL     OW65416  11.475   0.977  12.396
21195SOL    HW165417  11.556   1.027  12.391
21195SOL    HW265418  11.444   0.971  12.306
21196SOL     OW65419  13.311  12.523  12.831
21196SOL    HW165420  13.295  12.447  12.775
21196SOL    HW265421  13.303  12.489  12.920
21197SOL     OW65422  12.653  13.649   5.216
21197SOL    HW165423  12.616  13.600   5.289
21197SOL    HW265424  12.700  13.722   5.257
21198SOL     OW65425  12.886   1.434   2.186
21198SOL    HW165426  12.897   1.354   2.238
21198SOL    HW265427  12.960   1.490   2.212
21199SOL     OW65428  12.356  10.290   5.380
21199SOL    HW165429  12.388  10.278   5.291
21199SOL    HW265430  12.262  10.274   5.375
21200SOL     OW65431  12.117   7.391   1.180
21200SOL    HW165432  12.030   7.364   1.211
21200SOL    HW265433  12.101   7.475   1.136
21201SOL     OW65434  12.100   8.008   7.832
21201SOL    HW165435  12.190   8.032   7.852
21201SOL    HW265436  12.073   7.954   7.907
21202SOL     OW65437   9.929  13.538   7.890
21202SOL    HW165438   9.889  13.473   7.947
21202SOL    HW265439   9.863  13.607   7.883
21203SOL     OW65440   6.789   9.432   1.747
21203SOL    HW165441   6.878   9.403   1.767
21203SOL    HW265442   6.736   9.395   1.818
21204SOL     OW65443   8.801   7.798   7.933
21204SOL    HW165444   8.888   7.788   7.971
21204SOL    HW265445   8.779   7.710   7.901
21205SOL     OW65446  11.912   8.357   1.376
21205SOL    HW165447  11.981   8.383   1.437
21205SOL    HW265448  11.904   8.431   1.316
21206SOL     OW65449   9.817  13.071  13.179
21206SOL    HW165450   9.726  13.080  13.150
21206SOL    HW265451   9.858  13.154  13.153
21207SOL     OW65452   6.604  14.775   5.083
21207SOL    HW165453   6.658  14.805   5.010
21207SOL    HW265454   6.557  14.853   5.112
21208SOL     OW65455  12.621   0.981   0.118
21208SOL    HW165456  12.613   0.909   0.056
21208SOL    HW265457  12.531   1.002   0.143
21209SOL     OW65458  14.115   7.745   0.193
21209SOL    HW165459  14.179   7.814   0.209
21209SOL    HW265460  14.031   7.784   0.216
21210SOL     OW65461   3.651  10.159   2.583
21210SOL    HW165462   3.633  10.073   2.619
21210SOL    HW265463   3.695  10.142   2.500
21211SOL     OW65464   6.339  10.928  14.534
21211SOL    HW165465   6.331  10.975  14.617
21211SOL    HW265466   6.433  10.913  14.524
21212SOL     OW65467  14.678   9.680   2.750
21212SOL    HW165468  14.766   9.698   2.714
21212SOL    HW265469  14.621   9.678   2.673
21213SOL     OW65470  13.259   1.899  10.167
21213SOL    HW165471  13.252   1.994  10.178
21213SOL    HW265472  13.238   1.885  10.075
21214SOL     OW65473  11.165   1.291   3.474
21214SOL    HW165474  11.253   1.287   3.436
21214SOL    HW265475  11.108   1.310   3.399
21215SOL     OW65476   5.323   6.756   7.592
21215SOL    HW165477   5.286   6.751   7.504
21215SOL    HW265478   5.326   6.850   7.612
21216SOL     OW65479   1.776  13.559   8.905
21216SOL    HW165480   1.691  13.521   8.884
21216SOL    HW265481   1.809  13.507   8.978
21217SOL     OW65482   1.889   6.162   6.070
21217SOL    HW165483   1.822   6.115   6.020
21217SOL    HW265484   1.851   6.174   6.157
21218SOL     OW65485   9.226  12.068  12.989
21218SOL    HW165486   9.270  12.147  12.957
21218SOL    HW265487   9.137  12.074  12.955
21219SOL     OW65488  10.670   5.223  13.805
21219SOL    HW165489  10.691   5.297  13.862
21219SOL    HW265490  10.577   5.231  13.788
21220SOL     OW65491   1.689   7.021  10.402
21220SOL    HW165492   1.701   7.090  10.337
21220SOL    HW265493   1.729   7.055  10.482
21221SOL     OW65494   2.049   1.433  13.699
21221SOL    HW165495   2.095   1.490  13.760
21221SOL    HW265496   2.081   1.345  13.719
21222SOL     OW65497  12.835  10.448   5.691
21222SOL    HW165498  12.823  10.515   5.624
21222SOL    HW265499  12.887  10.490   5.759
21223SOL     OW65500  13.464   7.175   8.934
21223SOL    HW165501  13.527   7.111   8.900
21223SOL    HW265502  13.439   7.227   8.858
21224SOL     OW65503   0.893   3.294  11.563
21224SOL    HW165504   0.862   3.254  11.482
21224SOL    HW265505   0.899   3.388  11.544
21225SOL     OW65506  11.187   2.791  12.671
21225SOL    HW165507  11.151   2.746  12.748
21225SOL    HW265508  11.279   2.764  12.669
21226SOL     OW65509   8.012   7.743   7.179
21226SOL    HW165510   8.071   7.810   7.212
21226SOL    HW265511   7.946   7.733   7.248
21227SOL     OW65512  10.352   1.299  14.631
21227SOL    HW165513  10.376   1.215  14.592
21227SOL    HW265514  10.271   1.323  14.586
21228SOL     OW65515  14.682   0.409   0.465
21228SOL    HW165516  14.745   0.408   0.392
21228SOL    HW265517  14.715   0.343   0.525
21229SOL     OW65518  13.068  11.131  10.118
21229SOL    HW165519  13.049  11.189  10.191
21229SOL    HW265520  13.147  11.083  10.143
21230SOL     OW65521  13.721   8.030   4.609
21230SOL    HW165522  13.813   8.012   4.587
21230SOL    HW265523  13.720   8.122   4.635
21231SOL     OW65524   3.335   9.896   6.501
21231SOL    HW165525   3.354   9.806   6.474
21231SOL    HW265526   3.419   9.942   6.490
21232SOL     OW65527  10.462   8.468   0.963
21232SOL    HW165528  10.436   8.475   0.871
21232SOL    HW265529  10.414   8.393   0.997
21233SOL     OW65530  14.533   4.270   0.352
21233SOL    HW165531  14.507   4.299   0.265
21233SOL    HW265532  14.482   4.191   0.368
21234SOL     OW65533   3.128   3.607  14.212
21234SOL    HW165534   3.048   3.624  14.261
21234SOL    HW265535   3.136   3.682  14.153
21235SOL     OW65536  14.118  11.707   3.769
21235SOL    HW165537  14.105  11.788   3.817
21235SOL    HW265538  14.202  11.718   3.724
21236SOL     OW65539   8.140   2.470   0.254
21236SOL    HW165540   8.078   2.541   0.235
21236SOL    HW265541   8.143   2.466   0.350
21237SOL     OW65542  11.254   6.669   4.102
21237SOL    HW165543  11.346   6.695   4.095
21237SOL    HW265544  11.209   6.721   4.035
21238SOL     OW65545   6.358  11.600   8.419
21238SOL    HW165546   6.335  11.551   8.498
21238SOL    HW265547   6.382  11.687   8.451
21239SOL     OW65548   9.388  13.619   2.495
21239SOL    HW165549   9.309  13.571   2.470
21239SOL    HW265550   9.363  13.668   2.573
21240SOL     OW65551  11.038  14.020   0.319
21240SOL    HW165552  11.036  14.032   0.224
21240SOL    HW265553  10.980  14.088   0.354
21241SOL     OW65554   1.478  11.302   8.510
21241SOL    HW165555   1.503  11.347   8.430
21241SOL    HW265556   1.405  11.246   8.484
21242SOL     OW65557   4.492  14.211   3.196
21242SOL    HW165558   4.417  14.269   3.211
21242SOL    HW265559   4.533  14.244   3.116
21243SOL     OW65560   9.372   6.104  13.284
21243SOL    HW165561   9.387   6.097  13.378
21243SOL    HW265562   9.285   6.145  13.277
21244SOL     OW65563   8.441   3.280   2.673
21244SOL    HW165564   8.348   3.291   2.689
21244SOL    HW265565   8.477   3.369   2.676
21245SOL     OW65566   0.575   4.224   4.049
21245SOL    HW165567   0.555   4.131   4.039
21245SOL    HW265568   0.671   4.229   4.041
21246SOL     OW65569  14.667  10.449   3.074
21246SOL    HW165570  14.655  10.536   3.036
21246SOL    HW265571  14.581  10.407   3.067
21247SOL     OW65572   5.519   0.254   9.545
21247SOL    HW165573   5.547   0.345   9.539
21247SOL    HW265574   5.550   0.215   9.463
21248SOL     OW65575   5.300  13.045   9.378
21248SOL    HW165576   5.259  13.112   9.324
21248SOL    HW265577   5.286  13.074   9.468
21249SOL     OW65578   8.475  13.683   8.519
21249SOL    HW165579   8.417  13.637   8.580
21249SOL    HW265580   8.554  13.629   8.515
21250SOL     OW65581  11.589   8.458   1.546
21250SOL    HW165582  11.537   8.420   1.475
21250SOL    HW265583  11.653   8.391   1.569
21251SOL     OW65584  11.552   8.705  11.913
21251SOL    HW165585  11.645   8.730  11.913
21251SOL    HW265586  11.552   8.613  11.939
21252SOL     OW65587   7.340  11.986   4.683
21252SOL    HW165588   7.260  11.943   4.715
21252SOL    HW265589   7.384  12.016   4.762
21253SOL     OW65590   9.390   4.156  12.432
21253SOL    HW165591   9.383   4.179  12.525
21253SOL    HW265592   9.350   4.229  12.386
21254SOL     OW65593  12.811   4.584   3.158
21254SOL    HW165594  12.803   4.672   3.195
21254SOL    HW265595  12.895   4.552   3.191
21255SOL     OW65596  14.687   5.347   4.487
21255SOL    HW165597  14.621   5.332   4.419
21255SOL    HW265598  14.767   5.368   4.439
21256SOL     OW65599  10.550   7.961   4.129
21256SOL    HW165600  10.524   7.896   4.063
21256SOL    HW265601  10.641   7.941   4.148
21257SOL     OW65602   7.916  11.484   4.734
21257SOL    HW165603   7.921  11.439   4.650
21257SOL    HW265604   7.986  11.445   4.787
21258SOL     OW65605   1.016   4.690  11.341
21258SOL    HW165606   1.063   4.620  11.386
21258SOL    HW265607   1.079   4.762  11.337
21259SOL     OW65608  11.214   5.832   1.190
21259SOL    HW165609  11.276   5.807   1.258
21259SOL    HW265610  11.187   5.920   1.212
21260SOL     OW65611   7.124   6.503  10.804
21260SOL    HW165612   7.157   6.575  10.858
21260SOL    HW265613   7.084   6.546  10.728
21261SOL     OW65614   2.176   7.054   8.257
21261SOL    HW165615   2.082   7.063   8.274
21261SOL    HW265616   2.206   7.143   8.238
21262SOL     OW65617  13.661  14.662  11.915
21262SOL    HW165618  13.574  14.669  11.954
21262SOL    HW265619  13.720  14.647  11.989
21263SOL     OW65620   9.938  14.658   7.468
21263SOL    HW165621   9.978  14.586   7.517
21263SOL    HW265622   9.860  14.680   7.519
21264SOL     OW65623   1.725   6.050   5.879
21264SOL    HW165624   1.742   5.988   5.808
21264SOL    HW265625   1.664   6.113   5.842
21265SOL     OW65626  14.302   0.243   5.078
21265SOL    HW165627  14.284   0.204   4.993
21265SOL    HW265628  14.228   0.301   5.094
21266SOL     OW65629  13.944   4.892  12.101
21266SOL    HW165630  13.984   4.850  12.025
21266SOL    HW265631  14.002   4.966  12.120
21267SOL     OW65632  13.217   3.864   5.049
21267SOL    HW165633  13.123   3.859   5.030
21267SOL    HW265634  13.258   3.811   4.981
21268SOL     OW65635   5.933   1.446   9.501
21268SOL    HW165636   5.887   1.522   9.464
21268SOL    HW265637   5.937   1.464   9.595
21269SOL     OW65638   4.832  13.943  12.184
21269SOL    HW165639   4.775  13.999  12.132
21269SOL    HW265640   4.773  13.888  12.235
21270SOL     OW65641  14.675   5.591  12.107
21270SOL    HW165642  14.736   5.532  12.061
21270SOL    HW265643  14.639   5.537  12.177
21271SOL     OW65644  11.201  10.289   5.665
21271SOL    HW165645  11.235  10.365   5.617
21271SOL    HW265646  11.276  10.257   5.716
21272SOL     OW65647   2.354  11.151  12.786
21272SOL    HW165648   2.331  11.217  12.720
21272SOL    HW265649   2.273  11.140  12.837
21273SOL     OW65650  13.934   6.737   4.579
21273SOL    HW165651  13.964   6.708   4.665
21273SOL    HW265652  13.988   6.814   4.559
21274SOL     OW65653  12.557  14.535   5.850
21274SOL    HW165654  12.593  14.552   5.937
21274SOL    HW265655  12.562  14.619   5.805
21275SOL     OW65656   5.490   3.372   1.868
21275SOL    HW165657   5.450   3.405   1.788
21275SOL    HW265658   5.429   3.396   1.937
21276SOL     OW65659  13.285   0.974   0.488
21276SOL    HW165660  13.193   1.000   0.479
21276SOL    HW265661  13.326   1.047   0.533
21277SOL     OW65662   8.940  13.830  10.162
21277SOL    HW165663   9.034  13.820  10.178
21277SOL    HW265664   8.932  13.833  10.066
21278SOL     OW65665  13.367   5.273   4.448
21278SOL    HW165666  13.274   5.286   4.467
21278SOL    HW265667  13.412   5.321   4.517
21279SOL     OW65668   3.972   5.019   9.168
21279SOL    HW165669   3.970   5.062   9.082
21279SOL    HW265670   3.986   5.091   9.230
21280SOL     OW65671   8.398   9.180   2.367
21280SOL    HW165672   8.468   9.162   2.305
21280SOL    HW265673   8.387   9.275   2.364
21281SOL     OW65674   6.769  13.208   5.254
21281SOL    HW165675   6.853  13.218   5.208
21281SOL    HW265676   6.729  13.295   5.247
21282SOL     OW65677   4.352   2.389   6.321
21282SOL    HW165678   4.382   2.331   6.392
21282SOL    HW265679   4.330   2.330   6.249
21283SOL     OW65680   2.024  14.605   3.217
21283SOL    HW165681   2.101  14.566   3.177
21283SOL    HW265682   2.057  14.682   3.263
21284SOL     OW65683   4.038  12.543   8.002
21284SOL    HW165684   4.039  12.454   7.967
21284SOL    HW265685   4.044  12.599   7.925
21285SOL     OW65686  11.565  10.210  13.910
21285SOL    HW165687  11.503  10.138  13.924
21285SOL    HW265688  11.609  10.187  13.828
21286SOL     OW65689   4.774  14.859  11.575
21286SOL    HW165690   4.761   0.065  11.540
21286SOL    HW265691   4.734  14.861  11.662
21287SOL     OW65692   0.167   4.415   3.237
21287SOL    HW165693   0.198   4.448   3.153
21287SOL    HW265694   0.193   4.323   3.239
21288SOL     OW65695   6.366   9.658  10.122
21288SOL    HW165696   6.276   9.626  10.110
21288SOL    HW265697   6.356   9.735  10.177
21289SOL     OW65698   0.532   5.197  13.950
21289SOL    HW165699   0.441   5.224  13.938
21289SOL    HW265700   0.562   5.174  13.862
21290SOL     OW65701  13.930   4.478   6.457
21290SOL    HW165702  14.009   4.513   6.415
21290SOL    HW265703  13.886   4.428   6.388
21291SOL     OW65704  13.644  10.686   6.106
21291SOL    HW165705  13.702  10.725   6.172
21291SOL    HW265706  13.704  10.645   6.044
21292SOL     OW65707  14.049  11.488  11.244
21292SOL    HW165708  14.050  11.396  11.219
21292SOL    HW265709  13.985  11.493  11.315
21293SOL     OW65710   0.542   4.070   2.810
21293SOL    HW165711   0.479   4.141   2.827
21293SOL    HW265712   0.608   4.109   2.753
21294SOL     OW65713  14.741   5.959   6.052
21294SOL    HW165714  14.703   5.996   6.131
21294SOL    HW265715  14.708   5.869   6.049
21295SOL     OW65716   4.701   7.848  11.614
21295SOL    HW165717   4.696   7.804  11.529
21295SOL    HW265718   4.789   7.829  11.647
21296SOL     OW65719   4.985   0.621   5.375
21296SOL    HW165720   4.955   0.686   5.311
21296SOL    HW265721   4.911   0.609   5.434
21297SOL     OW65722   3.182   9.397  10.159
21297SOL    HW165723   3.127   9.328  10.122
21297SOL    HW265724   3.200   9.368  10.248
21298SOL     OW65725   0.571   6.556   5.934
21298SOL    HW165726   0.588   6.650   5.931
21298SOL    HW265727   0.609   6.527   6.017
21299SOL     OW65728   3.560  12.734  14.023
21299SOL    HW165729   3.528  12.681  13.951
21299SOL    HW265730   3.580  12.671  14.093
21300SOL     OW65731  14.657   0.643  10.485
21300SOL    HW165732  14.715   0.718  10.488
21300SOL    HW265733  14.574   0.675  10.520
21301SOL     OW65734   8.244   5.968   0.218
21301SOL    HW165735   8.262   5.884   0.261
21301SOL    HW265736   8.242   5.947   0.124
21302SOL     OW65737   7.017   8.841   2.994
21302SOL    HW165738   7.088   8.883   3.042
21302SOL    HW265739   6.964   8.799   3.062
21303SOL     OW65740  12.765   9.625  14.324
21303SOL    HW165741  12.735   9.645  14.235
21303SOL    HW265742  12.859   9.612  14.315
21304SOL     OW65743   0.330   6.170   1.916
21304SOL    HW165744   0.387   6.103   1.954
21304SOL    HW265745   0.371   6.192   1.832
21305SOL     OW65746   8.954   0.381   4.924
21305SOL    HW165747   8.886   0.341   4.978
21305SOL    HW265748   8.908   0.450   4.875
21306SOL     OW65749  10.291   3.030   6.524
21306SOL    HW165750  10.201   3.057   6.509
21306SOL    HW265751  10.293   2.937   6.500
21307SOL     OW65752  13.113   5.945  12.739
21307SOL    HW165753  13.147   5.869  12.693
21307SOL    HW265754  13.059   5.990  12.674
21308SOL     OW65755  14.841   1.731   9.821
21308SOL    HW165756   0.002   1.714   9.738
21308SOL    HW265757  14.752   1.699   9.809
21309SOL     OW65758   4.892   2.525   0.208
21309SOL    HW165759   4.968   2.476   0.175
21309SOL    HW265760   4.831   2.525   0.135
21310SOL     OW65761   9.094   9.686   9.369
21310SOL    HW165762   8.998   9.682   9.367
21310SOL    HW265763   9.120   9.597   9.394
21311SOL     OW65764   0.436   9.380  11.119
21311SOL    HW165765   0.359   9.407  11.169
21311SOL    HW265766   0.482   9.462  11.100
21312SOL     OW65767   8.310   3.623   8.025
21312SOL    HW165768   8.284   3.537   8.059
21312SOL    HW265769   8.288   3.684   8.095
21313SOL     OW65770   0.062   2.203   5.634
21313SOL    HW165771   0.144   2.207   5.684
21313SOL    HW265772   0.084   2.152   5.557
21314SOL     OW65773   6.065  10.927   2.432
21314SOL    HW165774   6.009  10.909   2.507
21314SOL    HW265775   6.128  10.992   2.465
21315SOL     OW65776  11.333   1.688   3.680
21315SOL    HW165777  11.393   1.708   3.608
21315SOL    HW265778  11.274   1.621   3.644
21316SOL     OW65779   7.361  10.420  14.252
21316SOL    HW165780   7.404  10.489  14.303
21316SOL    HW265781   7.416  10.343  14.266
21317SOL     OW65782   9.124   4.095   6.314
21317SOL    HW165783   9.131   4.014   6.263
21317SOL    HW265784   9.064   4.150   6.264
21318SOL     OW65785  13.487   5.939   2.651
21318SOL    HW165786  13.429   5.997   2.700
21318SOL    HW265787  13.494   5.861   2.705
21319SOL     OW65788  10.858  10.477   8.591
21319SOL    HW165789  10.799  10.413   8.552
21319SOL    HW265790  10.876  10.539   8.519
21320SOL     OW65791   7.265   8.520   7.252
21320SOL    HW165792   7.343   8.575   7.249
21320SOL    HW265793   7.270   8.466   7.172
21321SOL     OW65794  12.572  11.312   2.634
21321SOL    HW165795  12.622  11.274   2.706
21321SOL    HW265796  12.574  11.406   2.650
21322SOL     OW65797  12.260  11.365   4.429
21322SOL    HW165798  12.165  11.353   4.430
21322SOL    HW265799  12.295  11.278   4.411
21323SOL     OW65800   8.204  10.551   5.266
21323SOL    HW165801   8.186  10.604   5.344
21323SOL    HW265802   8.238  10.614   5.202
21324SOL     OW65803   2.564   5.640  10.575
21324SOL    HW165804   2.582   5.728  10.608
21324SOL    HW265805   2.574   5.647  10.480
21325SOL     OW65806   9.190   9.823   9.964
21325SOL    HW165807   9.214   9.843  10.054
21325SOL    HW265808   9.270   9.839   9.914
21326SOL     OW65809   4.933   4.603   0.202
21326SOL    HW165810   4.952   4.601   0.108
21326SOL    HW265811   4.898   4.516   0.221
21327SOL     OW65812  14.727   6.528   5.484
21327SOL    HW165813  14.775   6.554   5.562
21327SOL    HW265814  14.791   6.535   5.413
21328SOL     OW65815   6.499  13.554  13.151
21328SOL    HW165816   6.541  13.501  13.083
21328SOL    HW265817   6.566  13.617  13.176
21329SOL     OW65818   4.833   3.382  11.788
21329SOL    HW165819   4.868   3.309  11.737
21329SOL    HW265820   4.744   3.394  11.755
21330SOL     OW65821   5.363   8.357  14.865
21330SOL    HW165822   5.280   8.404  14.867
21330SOL    HW265823   5.429   8.425  14.879
21331SOL     OW65824   2.207  10.891   3.359
21331SOL    HW165825   2.195  10.979   3.395
21331SOL    HW265826   2.119  10.852   3.361
21332SOL     OW65827   8.792   1.001  10.655
21332SOL    HW165828   8.794   1.096  10.670
21332SOL    HW265829   8.720   0.988  10.593
21333SOL     OW65830   5.540   1.648  11.061
21333SOL    HW165831   5.503   1.713  11.122
21333SOL    HW265832   5.635   1.656  11.072
21334SOL     OW65833   2.617   5.451   2.311
21334SOL    HW165834   2.697   5.419   2.269
21334SOL    HW265835   2.562   5.480   2.238
21335SOL     OW65836   3.150  12.697   9.725
21335SOL    HW165837   3.173  12.707   9.817
21335SOL    HW265838   3.168  12.783   9.687
21336SOL     OW65839   2.707  11.481   6.345
21336SOL    HW165840   2.792  11.464   6.387
21336SOL    HW265841   2.718  11.448   6.256
21337SOL     OW65842  12.033  10.957   5.428
21337SOL    HW165843  11.991  10.947   5.514
21337SOL    HW265844  12.125  10.937   5.444
21338SOL     OW65845   1.913   7.854   7.235
21338SOL    HW165846   1.909   7.929   7.175
21338SOL    HW265847   1.924   7.892   7.322
21339SOL     OW65848  11.743   4.580  12.733
21339SOL    HW165849  11.710   4.530  12.808
21339SOL    HW265850  11.667   4.626  12.699
21340SOL     OW65851  12.951  10.983   7.217
21340SOL    HW165852  13.025  10.923   7.225
21340SOL    HW265853  12.991  11.069   7.208
21341SOL     OW65854   4.507  13.538   7.368
21341SOL    HW165855   4.523  13.632   7.383
21341SOL    HW265856   4.435  13.516   7.428
21342SOL     OW65857  12.771   3.692  10.278
21342SOL    HW165858  12.852   3.731  10.245
21342SOL    HW265859  12.798   3.608  10.316
21343SOL     OW65860   2.234   4.894  13.946
21343SOL    HW165861   2.234   4.955  13.872
21343SOL    HW265862   2.218   4.950  14.022
21344SOL     OW65863   8.740   3.146   5.029
21344SOL    HW165864   8.806   3.162   4.963
21344SOL    HW265865   8.662   3.121   4.980
21345SOL     OW65866   0.407   8.022  11.064
21345SOL    HW165867   0.375   8.043  10.977
21345SOL    HW265868   0.472   8.090  11.083
21346SOL     OW65869   7.724   0.916  11.091
21346SOL    HW165870   7.669   0.892  11.017
21346SOL    HW265871   7.663   0.947  11.158
21347SOL     OW65872   1.140   7.447   9.976
21347SOL    HW165873   1.158   7.468  10.068
21347SOL    HW265874   1.133   7.351   9.974
21348SOL     OW65875   8.138  14.321   1.917
21348SOL    HW165876   8.051  14.317   1.957
21348SOL    HW265877   8.183  14.391   1.963
21349SOL     OW65878   6.462   2.992  11.912
21349SOL    HW165879   6.494   2.936  11.841
21349SOL    HW265880   6.535   2.999  11.973
21350SOL     OW65881   0.807   8.869   6.347
21350SOL    HW165882   0.866   8.877   6.422
21350SOL    HW265883   0.788   8.775   6.341
21351SOL     OW65884   0.280   0.836   1.334
21351SOL    HW165885   0.344   0.850   1.404
21351SOL    HW265886   0.328   0.792   1.265
21352SOL     OW65887  13.850   5.736  13.160
21352SOL    HW165888  13.902   5.656  13.163
21352SOL    HW265889  13.909   5.804  13.191
21353SOL     OW65890   9.729   6.420  13.745
21353SOL    HW165891   9.642   6.407  13.706
21353SOL    HW265892   9.743   6.514  13.742
21354SOL     OW65893   8.698   6.948   9.786
21354SOL    HW165894   8.778   6.997   9.806
21354SOL    HW265895   8.662   6.993   9.709
21355SOL     OW65896  11.329   9.554  10.461
21355SOL    HW165897  11.295   9.468  10.438
21355SOL    HW265898  11.301   9.567  10.552
21356SOL     OW65899   5.975  12.465  12.369
21356SOL    HW165900   6.033  12.397  12.403
21356SOL    HW265901   5.986  12.461  12.274
21357SOL     OW65902   0.665  13.192   9.567
21357SOL    HW165903   0.718  13.140   9.507
21357SOL    HW265904   0.713  13.275   9.575
21358SOL     OW65905  12.843   8.444  13.392
21358SOL    HW165906  12.784   8.482  13.457
21358SOL    HW265907  12.786   8.399  13.330
21359SOL     OW65908   3.746   5.212  13.708
21359SOL    HW165909   3.662   5.166  13.707
21359SOL    HW265910   3.728   5.296  13.667
21360SOL     OW65911  12.050   6.086   7.347
21360SOL    HW165912  12.075   6.113   7.259
21360SOL    HW265913  12.127   6.041   7.381
21361SOL     OW65914   2.162  14.170   3.914
21361SOL    HW165915   2.143  14.259   3.884
21361SOL    HW265916   2.088  14.148   3.970
21362SOL     OW65917  10.387  14.505  14.392
21362SOL    HW165918  10.303  14.462  14.372
21362SOL    HW265919  10.396  14.571  14.323
21363SOL     OW65920   1.840   8.735  13.587
21363SOL    HW165921   1.845   8.649  13.630
21363SOL    HW265922   1.893   8.725  13.508
21364SOL     OW65923   5.188  11.875   4.154
21364SOL    HW165924   5.136  11.832   4.222
21364SOL    HW265925   5.207  11.962   4.189
21365SOL     OW65926   1.561  13.772   9.195
21365SOL    HW165927   1.527  13.844   9.143
21365SOL    HW265928   1.636  13.810   9.241
21366SOL     OW65929   2.569   1.740   6.196
21366SOL    HW165930   2.529   1.827   6.205
21366SOL    HW265931   2.598   1.718   6.285
21367SOL     OW65932   0.801   3.407   4.682
21367SOL    HW165933   0.870   3.394   4.617
21367SOL    HW265934   0.744   3.473   4.643
21368SOL     OW65935   8.361   4.557   1.731
21368SOL    HW165936   8.287   4.498   1.746
21368SOL    HW265937   8.341   4.601   1.649
21369SOL     OW65938  14.561   5.823   2.745
21369SOL    HW165939  14.506   5.798   2.671
21369SOL    HW265940  14.556   5.919   2.748
21370SOL     OW65941   5.648   7.535   3.591
21370SOL    HW165942   5.572   7.503   3.542
21370SOL    HW265943   5.614   7.602   3.649
21371SOL     OW65944   2.792  11.850   7.658
21371SOL    HW165945   2.869  11.800   7.684
21371SOL    HW265946   2.721  11.786   7.653
21372SOL     OW65947   8.288   8.226   1.137
21372SOL    HW165948   8.296   8.207   1.231
21372SOL    HW265949   8.313   8.318   1.130
21373SOL     OW65950   2.069  14.655   6.391
21373SOL    HW165951   2.120  14.720   6.344
21373SOL    HW265952   2.110  14.571   6.369
21374SOL     OW65953   4.481  14.591   8.729
21374SOL    HW165954   4.454  14.505   8.697
21374SOL    HW265955   4.404  14.647   8.715
21375SOL     OW65956   9.841   3.542  14.281
21375SOL    HW165957   9.753   3.579  14.270
21375SOL    HW265958   9.832   3.478  14.351
21376SOL     OW65959   8.064   3.652   8.566
21376SOL    HW165960   8.013   3.683   8.641
21376SOL    HW265961   8.016   3.575   8.536
21377SOL     OW65962   8.634  13.903   6.399
21377SOL    HW165963   8.580  13.827   6.420
21377SOL    HW265964   8.674  13.881   6.315
21378SOL     OW65965   2.169  11.424   1.759
21378SOL    HW165966   2.092  11.387   1.715
21378SOL    HW265967   2.145  11.516   1.775
21379SOL     OW65968   6.678   6.404  13.291
21379SOL    HW165969   6.620   6.466  13.336
21379SOL    HW265970   6.646   6.318  13.319
21380SOL     OW65971   7.183  13.145  13.938
21380SOL    HW165972   7.243  13.128  13.865
21380SOL    HW265973   7.106  13.092  13.917
21381SOL     OW65974   4.298   1.090  10.090
21381SOL    HW165975   4.233   1.056  10.152
21381SOL    HW265976   4.299   1.184  10.106
21382SOL     OW65977  10.737  12.106   6.939
21382SOL    HW165978  10.812  12.137   6.888
21382SOL    HW265979  10.727  12.015   6.911
21383SOL     OW65980   5.981  11.421  14.544
21383SOL    HW165981   5.904  11.378  14.508
21383SOL    HW265982   6.049  11.353  14.543
21384SOL     OW65983   9.589  10.973   7.077
21384SOL    HW165984   9.596  11.064   7.104
21384SOL    HW265985   9.623  10.923   7.152
21385SOL     OW65986  10.678   1.220  13.472
21385SOL    HW165987  10.758   1.258  13.508
21385SOL    HW265988  10.630   1.295  13.437
21386SOL     OW65989   9.159   8.559  14.435
21386SOL    HW165990   9.174   8.613  14.513
21386SOL    HW265991   9.064   8.563  14.421
21387SOL     OW65992   8.105   8.779  10.252
21387SOL    HW165993   8.140   8.690  10.263
21387SOL    HW265994   8.029   8.769  10.195
21388SOL     OW65995  10.962   5.455   9.202
21388SOL    HW165996  10.919   5.370   9.193
21388SOL    HW265997  11.034   5.453   9.139
21389SOL     OW65998   1.068   0.171  12.042
21389SOL    HW165999   1.066   0.242  12.106
21389SOL    HW266000   1.144   0.191  11.986
21390SOL     OW66001   1.983  13.844  13.657
21390SOL    HW166002   1.908  13.797  13.693
21390SOL    HW266003   2.055  13.824  13.718
21391SOL     OW66004   5.934   4.300   3.622
21391SOL    HW166005   6.004   4.352   3.581
21391SOL    HW266006   5.882   4.364   3.670
21392SOL     OW66007   6.131  11.450  13.451
21392SOL    HW166008   6.195  11.381  13.434
21392SOL    HW266009   6.067  11.409  13.509
21393SOL     OW66010   2.129   7.365   3.685
21393SOL    HW166011   2.170   7.448   3.711
21393SOL    HW266012   2.190   7.327   3.622
21394SOL     OW66013   1.531  13.330   0.028
21394SOL    HW166014   1.522  13.415  14.868
21394SOL    HW266015   1.442  13.299   0.042
21395SOL     OW66016   0.817   5.727  12.043
21395SOL    HW166017   0.910   5.727  12.019
21395SOL    HW266018   0.810   5.661  12.112
21396SOL     OW66019   9.197  10.306   2.563
21396SOL    HW166020   9.286  10.336   2.578
21396SOL    HW266021   9.207  10.228   2.508
21397SOL     OW66022   4.203  13.062   4.260
21397SOL    HW166023   4.255  13.107   4.327
21397SOL    HW266024   4.268  13.018   4.205
21398SOL     OW66025  11.027  13.071   8.790
21398SOL    HW166026  11.037  12.976   8.804
21398SOL    HW266027  11.107  13.109   8.826
21399SOL     OW66028  11.724   8.728  13.491
21399SOL    HW166029  11.696   8.790  13.423
21399SOL    HW266030  11.803   8.687  13.455
21400SOL     OW66031  12.669   4.971  14.453
21400SOL    HW166032  12.700   4.912  14.384
21400SOL    HW266033  12.575   4.954  14.459
21401SOL     OW66034   9.011   4.719   9.929
21401SOL    HW166035   9.027   4.632   9.893
21401SOL    HW266036   8.917   4.733   9.917
21402SOL     OW66037   9.542  10.333   7.252
21402SOL    HW166038   9.582  10.418   7.270
21402SOL    HW266039   9.504  10.342   7.165
21403SOL     OW66040  14.468  11.483   5.513
21403SOL    HW166041  14.432  11.451   5.596
21403SOL    HW266042  14.513  11.564   5.536
21404SOL     OW66043   2.437  13.757   8.446
21404SOL    HW166044   2.414  13.836   8.496
21404SOL    HW266045   2.355  13.708   8.441
21405SOL     OW66046  11.795  12.742  14.531
21405SOL    HW166047  11.862  12.742  14.599
21405SOL    HW266048  11.790  12.834  14.503
21406SOL     OW66049   5.699   2.828  13.582
21406SOL    HW166050   5.768   2.762  13.593
21406SOL    HW266051   5.724   2.899  13.642
21407SOL     OW66052   8.303   6.694   0.687
21407SOL    HW166053   8.270   6.782   0.701
21407SOL    HW266054   8.236   6.637   0.725
21408SOL     OW66055   2.839  14.701   8.265
21408SOL    HW166056   2.783  14.749   8.203
21408SOL    HW266057   2.919  14.682   8.217
21409SOL     OW66058   1.080   4.729   4.680
21409SOL    HW166059   1.127   4.646   4.675
21409SOL    HW266060   0.995   4.711   4.641
21410SOL     OW66061   7.781  12.067   4.714
21410SOL    HW166062   7.786  12.148   4.766
21410SOL    HW266063   7.774  11.997   4.779
21411SOL     OW66064   8.878  11.490  13.225
21411SOL    HW166065   8.966  11.455  13.238
21411SOL    HW266066   8.825  11.448  13.292
21412SOL     OW66067   0.961  14.588   3.332
21412SOL    HW166068   0.980  14.567   3.423
21412SOL    HW266069   0.908  14.515   3.301
21413SOL     OW66070   8.172   1.909  12.897
21413SOL    HW166071   8.178   2.002  12.875
21413SOL    HW266072   8.181   1.864  12.813
21414SOL     OW66073   5.896   9.377  12.114
21414SOL    HW166074   5.829   9.330  12.164
21414SOL    HW266075   5.977   9.362  12.162
21415SOL     OW66076  10.297   9.557  10.460
21415SOL    HW166077  10.312   9.605  10.379
21415SOL    HW266078  10.329   9.615  10.529
21416SOL     OW66079   0.403   9.690   3.451
21416SOL    HW166080   0.327   9.743   3.428
21416SOL    HW266081   0.416   9.632   3.376
21417SOL     OW66082   5.053  13.510  11.864
21417SOL    HW166083   5.058  13.534  11.956
21417SOL    HW266084   4.973  13.458  11.857
21418SOL     OW66085   9.716   1.648   1.774
21418SOL    HW166086   9.720   1.553   1.780
21418SOL    HW266087   9.629   1.670   1.806
21419SOL     OW66088  13.934  14.787   7.312
21419SOL    HW166089  13.892  14.872   7.319
21419SOL    HW266090  13.890  14.744   7.238
21420SOL     OW66091   4.909  14.407   7.357
21420SOL    HW166092   4.987  14.370   7.316
21420SOL    HW266093   4.893  14.352   7.433
21421SOL     OW66094   3.479  12.765   5.675
21421SOL    HW166095   3.394  12.767   5.719
21421SOL    HW266096   3.529  12.835   5.716
21422SOL     OW66097   0.470  12.973   7.465
21422SOL    HW166098   0.519  12.978   7.547
21422SOL    HW266099   0.381  13.001   7.488
21423SOL     OW66100  13.271   6.795   3.106
21423SOL    HW166101  13.344   6.846   3.143
21423SOL    HW266102  13.224   6.858   3.052
21424SOL     OW66103  11.256  11.693   3.367
21424SOL    HW166104  11.265  11.637   3.290
21424SOL    HW266105  11.341  11.686   3.411
21425SOL     OW66106  14.056  11.157   9.200
21425SOL    HW166107  13.994  11.229   9.190
21425SOL    HW266108  14.082  11.160   9.293
21426SOL     OW66109   7.328   9.338   8.443
21426SOL    HW166110   7.279   9.374   8.517
21426SOL    HW266111   7.372   9.261   8.478
21427SOL     OW66112   6.591   2.727   6.957
21427SOL    HW166113   6.514   2.776   6.928
21427SOL    HW266114   6.570   2.700   7.047
21428SOL     OW66115   1.695  11.012   8.076
21428SOL    HW166116   1.623  11.064   8.041
21428SOL    HW266117   1.734  11.067   8.144
21429SOL     OW66118   1.385   2.776  13.942
21429SOL    HW166119   1.339   2.804  13.863
21429SOL    HW266120   1.417   2.688  13.921
21430SOL     OW66121  10.430   1.239   9.788
21430SOL    HW166122  10.450   1.157   9.831
21430SOL    HW266123  10.413   1.215   9.697
21431SOL     OW66124  10.137  14.854  10.208
21431SOL    HW166125  10.187  14.773  10.209
21431SOL    HW266126  10.107  14.865  10.299
21432SOL     OW66127  14.223  10.646   2.107
21432SOL    HW166128  14.147  10.638   2.165
21432SOL    HW266129  14.185  10.652   2.019
21433SOL     OW66130   1.219   1.700   8.227
21433SOL    HW166131   1.162   1.738   8.294
21433SOL    HW266132   1.269   1.774   8.193
21434SOL     OW66133  12.178   2.060  12.538
21434SOL    HW166134  12.105   2.094  12.589
21434SOL    HW266135  12.150   1.972  12.511
21435SOL     OW66136   8.313  12.257   9.108
21435SOL    HW166137   8.406  12.260   9.088
21435SOL    HW266138   8.284  12.171   9.078
21436SOL     OW66139  14.770   1.284   0.008
21436SOL    HW166140  14.820   1.353   0.050
21436SOL    HW266141  14.825   1.207   0.013
21437SOL     OW66142   6.478   6.540  11.713
21437SOL    HW166143   6.464   6.495  11.796
21437SOL    HW266144   6.570   6.565  11.715
21438SOL     OW66145  14.676  12.740   7.354
21438SOL    HW166146  14.744  12.687   7.312
21438SOL    HW266147  14.619  12.676   7.396
21439SOL     OW66148   1.331  11.916   0.335
21439SOL    HW166149   1.387  11.850   0.376
21439SOL    HW266150   1.313  11.979   0.404
21440SOL     OW66151   3.107   8.492   4.027
21440SOL    HW166152   3.197   8.509   4.001
21440SOL    HW266153   3.098   8.397   4.025
21441SOL     OW66154   0.237  14.193   6.165
21441SOL    HW166155   0.287  14.275   6.172
21441SOL    HW266156   0.170  14.212   6.099
21442SOL     OW66157   2.685   8.891  10.939
21442SOL    HW166158   2.654   8.933  10.858
21442SOL    HW266159   2.775   8.865  10.919
21443SOL     OW66160   1.416  11.877  13.478
21443SOL    HW166161   1.393  11.786  13.497
21443SOL    HW266162   1.388  11.890  13.388
21444SOL     OW66163  11.043   9.512  11.362
21444SOL    HW166164  11.054   9.604  11.340
21444SOL    HW266165  11.132   9.476  11.363
21445SOL     OW66166   9.504  12.341   7.061
21445SOL    HW166167   9.579  12.368   7.008
21445SOL    HW266168   9.541  12.282   7.127
21446SOL     OW66169  14.381   7.997   1.878
21446SOL    HW166170  14.317   7.970   1.812
21446SOL    HW266171  14.428   7.917   1.900
21447SOL     OW66172   5.041   1.251  10.211
21447SOL    HW166173   4.984   1.327  10.201
21447SOL    HW266174   5.035   1.229  10.304
21448SOL     OW66175   4.601   2.560   4.199
21448SOL    HW166176   4.550   2.592   4.273
21448SOL    HW266177   4.538   2.514   4.144
21449SOL     OW66178   1.358  10.557  10.353
21449SOL    HW166179   1.329  10.467  10.340
21449SOL    HW266180   1.430  10.568  10.291
21450SOL     OW66181  13.913   5.910  11.059
21450SOL    HW166182  13.859   5.895  11.137
21450SOL    HW266183  13.933   5.823  11.026
21451SOL     OW66184   3.442   4.280  13.089
21451SOL    HW166185   3.390   4.360  13.098
21451SOL    HW266186   3.466   4.257  13.178
21452SOL     OW66187   8.431   1.019  12.451
21452SOL    HW166188   8.435   1.010  12.547
21452SOL    HW266189   8.446   0.930  12.418
21453SOL     OW66190  11.409   3.519  11.240
21453SOL    HW166191  11.357   3.484  11.168
21453SOL    HW266192  11.367   3.485  11.319
21454SOL     OW66193   2.475  11.422  10.438
21454SOL    HW166194   2.551  11.419  10.380
21454SOL    HW266195   2.417  11.487  10.398
21455SOL     OW66196  11.148  14.546   6.223
21455SOL    HW166197  11.083  14.494   6.175
21455SOL    HW266198  11.204  14.583   6.154
21456SOL     OW66199   8.185  11.128   1.691
21456SOL    HW166200   8.123  11.197   1.670
21456SOL    HW266201   8.260  11.144   1.634
21457SOL     OW66202   4.590   3.313   4.719
21457SOL    HW166203   4.650   3.239   4.712
21457SOL    HW266204   4.634   3.374   4.777
21458SOL     OW66205   3.909   5.130   5.511
21458SOL    HW166206   3.860   5.055   5.545
21458SOL    HW266207   3.974   5.149   5.579
21459SOL     OW66208   9.857  14.789   2.409
21459SOL    HW166209   9.783  14.787   2.470
21459SOL    HW266210   9.837  14.720   2.346
21460SOL     OW66211   4.233  11.328  11.343
21460SOL    HW166212   4.160  11.379  11.308
21460SOL    HW266213   4.200  11.238  11.349
21461SOL     OW66214   7.372  12.422   2.219
21461SOL    HW166215   7.340  12.471   2.143
21461SOL    HW266216   7.302  12.432   2.284
21462SOL     OW66217   4.907   0.911   8.470
21462SOL    HW166218   4.868   0.885   8.387
21462SOL    HW266219   5.001   0.907   8.455
21463SOL     OW66220  11.479   0.954   0.885
21463SOL    HW166221  11.391   0.958   0.923
21463SOL    HW266222  11.467   0.978   0.793
21464SOL     OW66223   2.922   8.103   4.208
21464SOL    HW166224   3.009   8.142   4.198
21464SOL    HW266225   2.867   8.153   4.148
21465SOL     OW66226   8.421  14.042   5.041
21465SOL    HW166227   8.417  14.135   5.063
21465SOL    HW266228   8.480  14.005   5.107
21466SOL     OW66229   7.331   9.749  13.919
21466SOL    HW166230   7.290   9.805  13.985
21466SOL    HW266231   7.410   9.797  13.893
21467SOL     OW66232   5.813  14.631  10.643
21467SOL    HW166233   5.743  14.575  10.677
21467SOL    HW266234   5.881  14.627  10.710
21468SOL     OW66235  14.583   0.318   4.503
21468SOL    HW166236  14.607   0.371   4.426
21468SOL    HW266237  14.512   0.366   4.545
21469SOL     OW66238  13.033   7.479  11.008
21469SOL    HW166239  13.041   7.529  10.927
21469SOL    HW266240  12.939   7.465  11.018
21470SOL     OW66241   7.537  10.070   7.940
21470SOL    HW166242   7.552   9.976   7.948
21470SOL    HW266243   7.621  10.106   7.913
21471SOL     OW66244  10.113  13.721   6.554
21471SOL    HW166245  10.123  13.744   6.646
21471SOL    HW266246  10.094  13.804   6.510
21472SOL     OW66247  10.224   3.332  13.649
21472SOL    HW166248  10.244   3.269  13.718
21472SOL    HW266249  10.255   3.416  13.684
21473SOL     OW66250  12.879  14.246  11.667
21473SOL    HW166251  12.897  14.159  11.703
21473SOL    HW266252  12.843  14.229  11.580
21474SOL     OW66253  13.841   4.310   8.951
21474SOL    HW166254  13.849   4.385   8.892
21474SOL    HW266255  13.748   4.286   8.946
21475SOL     OW66256   7.261  13.564   3.006
21475SOL    HW166257   7.199  13.634   3.028
21475SOL    HW266258   7.243  13.544   2.915
21476SOL     OW66259   7.606   9.902  10.611
21476SOL    HW166260   7.618   9.823  10.559
21476SOL    HW266261   7.587   9.869  10.699
21477SOL     OW66262   1.655   1.293  11.707
21477SOL    HW166263   1.748   1.311  11.693
21477SOL    HW266264   1.643   1.294  11.802
21478SOL     OW66265   4.929   4.367   1.356
21478SOL    HW166266   5.024   4.373   1.368
21478SOL    HW266267   4.916   4.290   1.301
21479SOL     OW66268   4.487   3.929  13.254
21479SOL    HW166269   4.577   3.903  13.235
21479SOL    HW266270   4.470   3.896  13.342
21480SOL     OW66271  14.611   3.384   6.840
21480SOL    HW166272  14.589   3.391   6.747
21480SOL    HW266273  14.572   3.301   6.867
21481SOL     OW66274   7.150  12.801   5.964
21481SOL    HW166275   7.057  12.787   5.986
21481SOL    HW266276   7.188  12.713   5.965
21482SOL     OW66277   7.955   6.189   2.691
21482SOL    HW166278   7.899   6.136   2.748
21482SOL    HW266279   7.897   6.256   2.656
21483SOL     OW66280   0.279   8.712   4.197
21483SOL    HW166281   0.334   8.740   4.269
21483SOL    HW266282   0.270   8.617   4.208
21484SOL     OW66283   2.387  12.512  13.511
21484SOL    HW166284   2.439  12.542  13.585
21484SOL    HW266285   2.300  12.496  13.548
21485SOL     OW66286  14.229   4.453  11.441
21485SOL    HW166287  14.318   4.432  11.469
21485SOL    HW266288  14.240   4.486  11.352
21486SOL     OW66289  10.697  11.938   5.431
21486SOL    HW166290  10.770  11.990   5.464
21486SOL    HW266291  10.625  11.957   5.491
21487SOL     OW66292  10.550   9.585  11.030
21487SOL    HW166293  10.531   9.527  11.103
21487SOL    HW266294  10.508   9.544  10.954
21488SOL     OW66295   0.170  11.228   5.724
21488SOL    HW166296   0.185  11.290   5.796
21488SOL    HW266297   0.102  11.268   5.671
21489SOL     OW66298  10.403  11.168   3.405
21489SOL    HW166299  10.336  11.215   3.355
21489SOL    HW266300  10.486  11.192   3.364
21490SOL     OW66301   0.252   4.177   3.568
21490SOL    HW166302   0.172   4.152   3.523
21490SOL    HW266303   0.249   4.272   3.573
21491SOL     OW66304   3.158   5.649   8.891
21491SOL    HW166305   3.243   5.615   8.863
21491SOL    HW266306   3.098   5.575   8.880
21492SOL     OW66307  12.525  13.534   8.937
21492SOL    HW166308  12.605  13.552   8.986
21492SOL    HW266309  12.545  13.456   8.886
21493SOL     OW66310   8.897   2.324  12.187
21493SOL    HW166311   8.975   2.301  12.239
21493SOL    HW266312   8.932   2.360  12.106
21494SOL     OW66313  12.926   6.962  12.312
21494SOL    HW166314  12.997   7.000  12.260
21494SOL    HW266315  12.969   6.894  12.365
21495SOL     OW66316   0.306   8.691  14.194
21495SOL    HW166317   0.388   8.668  14.237
21495SOL    HW266318   0.266   8.756  14.252
21496SOL     OW66319   4.447  11.017   2.025
21496SOL    HW166320   4.356  11.014   1.996
21496SOL    HW266321   4.442  11.042   2.117
21497SOL     OW66322   7.988   1.756   7.381
21497SOL    HW166323   7.989   1.661   7.367
21497SOL    HW266324   7.927   1.789   7.314
21498SOL     OW66325  11.822   3.739   3.124
21498SOL    HW166326  11.770   3.771   3.051
21498SOL    HW266327  11.762   3.739   3.199
21499SOL     OW66328   7.596  10.199   5.447
21499SOL    HW166329   7.610  10.104   5.443
21499SOL    HW266330   7.553  10.212   5.532
21500SOL     OW66331   6.270  12.015   3.032
21500SOL    HW166332   6.267  11.972   3.117
21500SOL    HW266333   6.247  12.106   3.050
21501SOL     OW66334  11.803   5.125   8.132
21501SOL    HW166335  11.890   5.112   8.170
21501SOL    HW266336  11.802   5.070   8.054
21502SOL     OW66337   9.482   1.001  11.388
21502SOL    HW166338   9.542   0.952  11.445
21502SOL    HW266339   9.411   1.027  11.447
21503SOL     OW66340  10.414   6.810  12.113
21503SOL    HW166341  10.378   6.867  12.180
21503SOL    HW266342  10.460   6.869  12.053
21504SOL     OW66343   7.018  10.467   2.125
21504SOL    HW166344   7.098  10.505   2.088
21504SOL    HW266345   7.015  10.500   2.215
21505SOL     OW66346   1.789   9.414   3.804
21505SOL    HW166347   1.844   9.339   3.828
21505SOL    HW266348   1.851   9.481   3.776
21506SOL     OW66349   5.429   5.874  12.943
21506SOL    HW166350   5.498   5.918  12.894
21506SOL    HW266351   5.352   5.929  12.931
21507SOL     OW66352  11.302   6.974  14.556
21507SOL    HW166353  11.226   7.012  14.600
21507SOL    HW266354  11.280   6.976  14.463
21508SOL     OW66355   5.508  14.454   2.051
21508SOL    HW166356   5.535  14.364   2.033
21508SOL    HW266357   5.580  14.489   2.104
21509SOL     OW66358   3.764   0.828  11.798
21509SOL    HW166359   3.701   0.825  11.870
21509SOL    HW266360   3.712   0.809  11.719
21510SOL     OW66361  13.032  12.993   0.776
21510SOL    HW166362  13.101  12.976   0.840
21510SOL    HW266363  13.054  13.079   0.740
21511SOL     OW66364  11.133  13.689  11.891
21511SOL    HW166365  11.165  13.763  11.839
21511SOL    HW266366  11.089  13.729  11.966
21512SOL     OW66367  14.334   0.200   0.122
21512SOL    HW166368  14.406   0.222   0.181
21512SOL    HW266369  14.375   0.153   0.050
21513SOL     OW66370  13.916   5.380   5.565
21513SOL    HW166371  13.923   5.457   5.509
21513SOL    HW266372  13.870   5.412   5.643
21514SOL     OW66373   8.463   2.103   7.914
21514SOL    HW166374   8.459   2.185   7.863
21514SOL    HW266375   8.443   2.035   7.850
21515SOL     OW66376  13.840  10.838   1.817
21515SOL    HW166377  13.916  10.788   1.849
21515SOL    HW266378  13.836  10.819   1.724
21516SOL     OW66379   0.232   8.606  13.772
21516SOL    HW166380   0.227   8.627  13.678
21516SOL    HW266381   0.243   8.690  13.815
21517SOL     OW66382   0.772   9.991   7.793
21517SOL    HW166383   0.770   9.922   7.859
21517SOL    HW266384   0.815   9.952   7.718
21518SOL     OW66385   8.449   8.186   4.621
21518SOL    HW166386   8.492   8.118   4.673
21518SOL    HW266387   8.381   8.140   4.572
21519SOL     OW66388   6.771   2.515   7.200
21519SOL    HW166389   6.857   2.503   7.160
21519SOL    HW266390   6.738   2.426   7.214
21520SOL     OW66391   6.690   8.298  10.268
21520SOL    HW166392   6.599   8.315  10.293
21520SOL    HW266393   6.712   8.216  10.312
21521SOL     OW66394   3.509   5.679  10.534
21521SOL    HW166395   3.530   5.713  10.621
21521SOL    HW266396   3.431   5.727  10.507
21522SOL     OW66397   7.272   8.180   8.463
21522SOL    HW166398   7.317   8.173   8.379
21522SOL    HW266399   7.338   8.152   8.527
21523SOL     OW66400   5.516   8.110   3.384
21523SOL    HW166401   5.566   8.167   3.325
21523SOL    HW266402   5.556   8.123   3.470
21524SOL     OW66403   5.629   7.860   4.024
21524SOL    HW166404   5.624   7.771   4.059
21524SOL    HW266405   5.539   7.881   4.000
21525SOL     OW66406   2.981  12.134  10.545
21525SOL    HW166407   3.040  12.163  10.477
21525SOL    HW266408   2.988  12.201  10.614
21526SOL     OW66409   3.600   2.597   6.423
21526SOL    HW166410   3.530   2.655   6.454
21526SOL    HW266411   3.576   2.510   6.456
21527SOL     OW66412   3.523   7.969  10.653
21527SOL    HW166413   3.492   8.022  10.580
21527SOL    HW266414   3.446   7.920  10.682
21528SOL     OW66415  10.901   7.879   4.444
21528SOL    HW166416  10.960   7.953   4.429
21528SOL    HW266417  10.901   7.867   4.539
21529SOL     OW66418   2.766  14.779  13.424
21529SOL    HW166419   2.860  14.762  13.432
21529SOL    HW266420   2.728  14.694  13.405
21530SOL     OW66421   7.094  14.291   6.940
21530SOL    HW166422   7.039  14.316   7.014
21530SOL    HW266423   7.154  14.225   6.975
21531SOL     OW66424  13.963   7.259  10.501
21531SOL    HW166425  13.962   7.303  10.586
21531SOL    HW266426  13.873   7.265  10.470
21532SOL     OW66427   4.057  13.927   9.908
21532SOL    HW166428   4.132  13.943   9.965
21532SOL    HW266429   3.984  13.972   9.951
21533SOL     OW66430   5.340  13.616   3.174
21533SOL    HW166431   5.274  13.684   3.182
21533SOL    HW266432   5.290  13.535   3.161
21534SOL     OW66433   0.006   0.583   6.932
21534SOL    HW166434  14.819   0.567   6.997
21534SOL    HW266435  14.841   0.619   6.856
21535SOL     OW66436   2.959   6.785   0.124
21535SOL    HW166437   2.872   6.765   0.091
21535SOL    HW266438   2.959   6.881   0.134
21536SOL     OW66439   3.570   9.236   9.964
21536SOL    HW166440   3.543   9.151   9.929
21536SOL    HW266441   3.664   9.240   9.947
21537SOL     OW66442  10.919   0.267   5.439
21537SOL    HW166443  11.000   0.216   5.447
21537SOL    HW266444  10.859   0.226   5.501
21538SOL     OW66445  11.751  11.934   9.525
21538SOL    HW166446  11.750  12.021   9.565
21538SOL    HW266447  11.731  11.950   9.432
21539SOL     OW66448   6.879  14.531   5.970
21539SOL    HW166449   6.882  14.583   6.050
21539SOL    HW266450   6.932  14.454   5.990
21540SOL     OW66451   9.935  10.405   3.149
21540SOL    HW166452   9.945  10.310   3.158
21540SOL    HW266453   9.903  10.434   3.235
21541SOL     OW66454   6.562   5.547   3.308
21541SOL    HW166455   6.562   5.517   3.400
21541SOL    HW266456   6.609   5.630   3.310
21542SOL     OW66457   4.646   8.722   8.257
21542SOL    HW166458   4.644   8.652   8.322
21542SOL    HW266459   4.569   8.776   8.277
21543SOL     OW66460  10.821  14.805   5.511
21543SOL    HW166461  10.746  14.747   5.527
21543SOL    HW266462  10.782   0.004   5.479
21544SOL     OW66463  14.781   9.238  13.806
21544SOL    HW166464  14.813   9.189  13.882
21544SOL    HW266465  14.849   9.302  13.788
21545SOL     OW66466   8.567   9.021   6.865
21545SOL    HW166467   8.477   9.022   6.899
21545SOL    HW266468   8.560   8.970   6.784
21546SOL     OW66469   6.441   7.446   8.746
21546SOL    HW166470   6.359   7.402   8.722
21546SOL    HW266471   6.486   7.385   8.804
21547SOL     OW66472   7.875   9.986   4.702
21547SOL    HW166473   7.841  10.075   4.701
21547SOL    HW266474   7.847   9.950   4.786
21548SOL     OW66475  14.708   9.703   8.742
21548SOL    HW166476  14.794   9.685   8.703
21548SOL    HW266477  14.688   9.624   8.792
21549SOL     OW66478  12.087  12.395  13.758
21549SOL    HW166479  12.008  12.407  13.811
21549SOL    HW266480  12.107  12.301  13.766
21550SOL     OW66481   6.441   7.512   9.436
21550SOL    HW166482   6.518   7.562   9.462
21550SOL    HW266483   6.391   7.572   9.380
21551SOL     OW66484   4.744  13.644   6.471
21551SOL    HW166485   4.665  13.690   6.440
21551SOL    HW266486   4.771  13.692   6.549
21552SOL     OW66487   2.348   6.482   6.917
21552SOL    HW166488   2.416   6.459   6.853
21552SOL    HW266489   2.317   6.569   6.889
21553SOL     OW66490   9.955   6.421   4.772
21553SOL    HW166491  10.005   6.373   4.706
21553SOL    HW266492   9.992   6.509   4.770
21554SOL     OW66493  14.401  10.365  13.203
21554SOL    HW166494  14.442  10.284  13.232
21554SOL    HW266495  14.401  10.421  13.280
21555SOL     OW66496   0.582   2.332   2.212
21555SOL    HW166497   0.636   2.371   2.142
21555SOL    HW266498   0.514   2.284   2.165
21556SOL     OW66499  13.625  11.314   9.199
21556SOL    HW166500  13.684  11.351   9.265
21556SOL    HW266501  13.542  11.358   9.213
21557SOL     OW66502  12.791  13.526   1.318
21557SOL    HW166503  12.794  13.433   1.343
21557SOL    HW266504  12.880  13.557   1.335
21558SOL     OW66505  10.175   3.374   1.993
21558SOL    HW166506  10.128   3.443   2.039
21558SOL    HW266507  10.146   3.381   1.902
21559SOL     OW66508   5.255   9.927   4.173
21559SOL    HW166509   5.257  10.022   4.183
21559SOL    HW266510   5.253   9.912   4.079
21560SOL     OW66511   6.669  11.429  11.858
21560SOL    HW166512   6.671  11.443  11.763
21560SOL    HW266513   6.694  11.337  11.868
21561SOL     OW66514   1.570   8.934   6.908
21561SOL    HW166515   1.526   8.858   6.870
21561SOL    HW266516   1.660   8.905   6.922
21562SOL     OW66517   6.752   6.471   3.269
21562SOL    HW166518   6.662   6.440   3.273
21562SOL    HW266519   6.805   6.391   3.273
21563SOL     OW66520   8.392  10.353  10.094
21563SOL    HW166521   8.381  10.281  10.156
21563SOL    HW266522   8.485  10.351  10.072
21564SOL     OW66523   4.924   3.133   1.879
21564SOL    HW166524   4.966   3.049   1.899
21564SOL    HW266525   4.935   3.185   1.959
21565SOL     OW66526   6.781  10.636   5.241
21565SOL    HW166527   6.754  10.558   5.290
21565SOL    HW266528   6.810  10.601   5.156
21566SOL     OW66529   5.957   8.734  13.389
21566SOL    HW166530   5.964   8.639  13.385
21566SOL    HW266531   5.986   8.764  13.303
21567SOL     OW66532   0.373  10.086   6.500
21567SOL    HW166533   0.446  10.136   6.537
21567SOL    HW266534   0.326  10.054   6.577
21568SOL     OW66535  14.209   4.918   4.238
21568SOL    HW166536  14.214   5.012   4.220
21568SOL    HW266537  14.200   4.912   4.333
21569SOL     OW66538   4.210   1.413  12.299
21569SOL    HW166539   4.190   1.507  12.294
21569SOL    HW266540   4.132   1.369  12.265
21570SOL     OW66541   4.975  14.826   8.625
21570SOL    HW166542   4.905  14.791   8.680
21570SOL    HW266543   5.013   0.015   8.676
21571SOL     OW66544  14.204   0.628  12.144
21571SOL    HW166545  14.186   0.711  12.187
21571SOL    HW266546  14.207   0.650  12.051
21572SOL     OW66547  14.780   5.621  11.097
21572SOL    HW166548  14.723   5.548  11.072
21572SOL    HW266549  14.720   5.688  11.130
21573SOL     OW66550   4.513   1.436   2.956
21573SOL    HW166551   4.526   1.374   2.884
21573SOL    HW266552   4.420   1.458   2.954
21574SOL     OW66553   5.313   7.498   2.442
21574SOL    HW166554   5.246   7.445   2.399
21574SOL    HW266555   5.304   7.585   2.404
21575SOL     OW66556  14.462   8.807  12.821
21575SOL    HW166557  14.528   8.739  12.808
21575SOL    HW266558  14.449   8.846  12.735
21576SOL     OW66559  12.841   9.622   6.587
21576SOL    HW166560  12.829   9.550   6.525
21576SOL    HW266561  12.807   9.699   6.541
21577SOL     OW66562   6.132  12.609   2.851
21577SOL    HW166563   6.052  12.609   2.904
21577SOL    HW266564   6.194  12.555   2.900
21578SOL     OW66565  10.174   1.832  13.480
21578SOL    HW166566  10.258   1.870  13.505
21578SOL    HW266567  10.197   1.757  13.426
21579SOL     OW66568   5.318   2.278   5.580
21579SOL    HW166569   5.306   2.372   5.567
21579SOL    HW266570   5.257   2.255   5.649
21580SOL     OW66571   9.996   2.846   3.366
21580SOL    HW166572   9.961   2.928   3.330
21580SOL    HW266573  10.077   2.832   3.317
21581SOL     OW66574  14.739   1.961   4.583
21581SOL    HW166575  14.646   1.938   4.581
21581SOL    HW266576  14.778   1.906   4.516
21582SOL     OW66577   4.931  11.051   3.022
21582SOL    HW166578   4.875  10.979   2.992
21582SOL    HW266579   4.869  11.120   3.047
21583SOL     OW66580   5.208  11.002   2.985
21583SOL    HW166581   5.116  11.020   3.003
21583SOL    HW266582   5.255  11.069   3.036
21584SOL     OW66583   8.069  13.720   3.354
21584SOL    HW166584   8.162  13.738   3.367
21584SOL    HW266585   8.059  13.628   3.381
21585SOL     OW66586   5.876   8.614   3.270
21585SOL    HW166587   5.932   8.654   3.204
21585SOL    HW266588   5.935   8.564   3.325
21586SOL     OW66589   6.368   6.582  11.147
21586SOL    HW166590   6.323   6.583  11.063
21586SOL    HW266591   6.372   6.489  11.172
21587SOL     OW66592   4.855  11.398   8.512
21587SOL    HW166593   4.880  11.427   8.424
21587SOL    HW266594   4.933  11.409   8.565
21588SOL     OW66595   7.381   6.953   6.105
21588SOL    HW166596   7.460   6.911   6.072
21588SOL    HW266597   7.350   7.007   6.032
21589SOL     OW66598   3.916  13.626   3.528
21589SOL    HW166599   3.932  13.619   3.434
21589SOL    HW266600   3.999  13.657   3.565
21590SOL     OW66601   7.300   1.248  14.559
21590SOL    HW166602   7.256   1.178  14.510
21590SOL    HW266603   7.270   1.237  14.649
21591SOL     OW66604   7.794  13.380  10.798
21591SOL    HW166605   7.759  13.337  10.720
21591SOL    HW266606   7.753  13.334  10.871
21592SOL     OW66607   8.066   1.729  11.068
21592SOL    HW166608   8.142   1.752  11.014
21592SOL    HW266609   8.091   1.646  11.110
21593SOL     OW66610   1.414   6.978  14.460
21593SOL    HW166611   1.445   7.031  14.387
21593SOL    HW266612   1.399   7.040  14.531
21594SOL     OW66613   9.927   1.957   0.355
21594SOL    HW166614   9.936   1.935   0.262
21594SOL    HW266615  10.003   1.914   0.396
21595SOL     OW66616   4.956   0.031   6.221
21595SOL    HW166617   5.000  14.834   6.191
21595SOL    HW266618   4.865   0.004   6.235
21596SOL     OW66619   4.295   6.587   8.009
21596SOL    HW166620   4.310   6.581   7.915
21596SOL    HW266621   4.323   6.503   8.044
21597SOL     OW66622  14.385   6.952   9.777
21597SOL    HW166623  14.442   6.876   9.781
21597SOL    HW266624  14.405   7.002   9.856
21598SOL     OW66625   1.849   1.699   7.231
21598SOL    HW166626   1.897   1.700   7.314
21598SOL    HW266627   1.758   1.717   7.255
21599SOL     OW66628   0.472   7.239  12.664
21599SOL    HW166629   0.506   7.278  12.584
21599SOL    HW266630   0.377   7.253  12.659
21600SOL     OW66631   3.789  10.131  14.135
21600SOL    HW166632   3.769  10.037  14.133
21600SOL    HW266633   3.807  10.149  14.228
21601SOL     OW66634  11.848  13.601  14.866
21601SOL    HW166635  11.933  13.622  14.826
21601SOL    HW266636  11.801  13.684  14.866
21602SOL     OW66637   8.856   3.302   7.944
21602SOL    HW166638   8.931   3.245   7.959
21602SOL    HW266639   8.780   3.248   7.965
21603SOL     OW66640   2.737  12.235  10.367
21603SOL    HW166641   2.811  12.294  10.380
21603SOL    HW266642   2.684  12.247  10.446
21604SOL     OW66643   9.414   9.834  11.170
21604SOL    HW166644   9.383   9.809  11.257
21604SOL    HW266645   9.446   9.923  11.180
21605SOL     OW66646   3.039  14.735  13.466
21605SOL    HW166647   3.081  14.818  13.443
21605SOL    HW266648   3.105  14.668  13.449
21606SOL     OW66649   0.938  14.878  11.292
21606SOL    HW166650   0.909  14.788  11.308
21606SOL    HW266651   0.948   0.000  11.197
21607SOL     OW66652   9.636   7.004  13.412
21607SOL    HW166653   9.648   6.914  13.441
21607SOL    HW266654   9.675   7.058  13.481
21608SOL     OW66655   1.028   8.135   4.672
21608SOL    HW166656   1.010   8.056   4.622
21608SOL    HW266657   1.113   8.120   4.712
21609SOL     OW66658   5.649   9.441  14.362
21609SOL    HW166659   5.587   9.497  14.410
21609SOL    HW266660   5.655   9.361  14.414
21610SOL     OW66661  11.412   6.363   6.436
21610SOL    HW166662  11.497   6.360   6.481
21610SOL    HW266663  11.370   6.442   6.471
21611SOL     OW66664  13.273  10.815   0.700
21611SOL    HW166665  13.352  10.847   0.657
21611SOL    HW266666  13.207  10.814   0.631
21612SOL     OW66667   9.730  13.703   2.103
21612SOL    HW166668   9.820  13.692   2.073
21612SOL    HW266669   9.688  13.619   2.084
21613SOL     OW66670  12.515   9.580  14.387
21613SOL    HW166671  12.469   9.577  14.303
21613SOL    HW266672  12.605   9.600  14.364
21614SOL     OW66673   0.888   3.645   7.563
21614SOL    HW166674   0.961   3.584   7.571
21614SOL    HW266675   0.845   3.621   7.481
21615SOL     OW66676  13.037   0.478  12.656
21615SOL    HW166677  12.967   0.537  12.685
21615SOL    HW266678  13.004   0.440  12.574
21616SOL     OW66679   0.026   2.476  11.714
21616SOL    HW166680  14.847   2.405  11.728
21616SOL    HW266681   0.080   2.478  11.793
21617SOL     OW66682   3.403   4.220   3.337
21617SOL    HW166683   3.478   4.262   3.380
21617SOL    HW266684   3.436   4.195   3.251
21618SOL     OW66685   5.621   9.564  11.883
21618SOL    HW166686   5.545   9.608  11.921
21618SOL    HW266687   5.605   9.471  11.897
21619SOL     OW66688  10.609   4.521   9.593
21619SOL    HW166689  10.566   4.437   9.574
21619SOL    HW266690  10.654   4.507   9.676
21620SOL     OW66691   7.770   3.740   2.499
21620SOL    HW166692   7.783   3.717   2.407
21620SOL    HW266693   7.708   3.674   2.532
21621SOL     OW66694  11.387  10.184   5.807
21621SOL    HW166695  11.434  10.107   5.774
21621SOL    HW266696  11.451  10.231   5.861
21622SOL     OW66697  14.303   3.518   1.865
21622SOL    HW166698  14.378   3.470   1.831
21622SOL    HW266699  14.273   3.467   1.940
21623SOL     OW66700   7.513   3.650   1.717
21623SOL    HW166701   7.528   3.621   1.808
21623SOL    HW266702   7.456   3.582   1.680
21624SOL     OW66703  14.562   1.393  10.454
21624SOL    HW166704  14.573   1.452  10.529
21624SOL    HW266705  14.626   1.425  10.390
21625SOL     OW66706  12.038   0.916   9.170
21625SOL    HW166707  11.956   0.888   9.129
21625SOL    HW266708  12.086   0.834   9.185
21626SOL     OW66709  10.189  14.635  11.190
21626SOL    HW166710  10.129  14.666  11.122
21626SOL    HW266711  10.134  14.627  11.268
21627SOL     OW66712  10.357  14.413  11.373
21627SOL    HW166713  10.393  14.501  11.388
21627SOL    HW266714  10.300  14.424  11.297
21628SOL     OW66715   2.889   8.769   7.967
21628SOL    HW166716   2.891   8.817   8.050
21628SOL    HW266717   2.816   8.708   7.976
21629SOL     OW66718  14.849   4.150  11.663
21629SOL    HW166719  14.755   4.140  11.677
21629SOL    HW266720  14.857   4.164  11.568
21630SOL     OW66721  11.736  14.689   4.441
21630SOL    HW166722  11.680  14.635   4.497
21630SOL    HW266723  11.677  14.757   4.407
21631SOL     OW66724  10.819   3.572  12.648
21631SOL    HW166725  10.771   3.506  12.598
21631SOL    HW266726  10.875   3.522  12.708
21632SOL     OW66727   8.367   8.111   0.688
21632SOL    HW166728   8.377   8.088   0.781
21632SOL    HW266729   8.321   8.036   0.650
21633SOL     OW66730   6.300   8.349  11.783
21633SOL    HW166731   6.326   8.312  11.867
21633SOL    HW266732   6.379   8.345  11.729
21634SOL     OW66733   3.658   6.505  12.238
21634SOL    HW166734   3.742   6.471  12.206
21634SOL    HW266735   3.598   6.430  12.232
21635SOL     OW66736  11.600   6.451   2.135
21635SOL    HW166737  11.679   6.487   2.096
21635SOL    HW266738  11.538   6.524   2.136
21636SOL     OW66739   0.863   3.965  12.965
21636SOL    HW166740   0.904   3.903  12.905
21636SOL    HW266741   0.769   3.952  12.953
21637SOL     OW66742  14.193   2.483   9.759
21637SOL    HW166743  14.275   2.435   9.749
21637SOL    HW266744  14.128   2.416   9.779
21638SOL     OW66745   1.919  14.110   0.918
21638SOL    HW166746   1.862  14.158   0.977
21638SOL    HW266747   1.986  14.072   0.975
21639SOL     OW66748  14.324   2.431  12.095
21639SOL    HW166749  14.247   2.376  12.083
21639SOL    HW266750  14.297   2.518  12.063
21640SOL     OW66751  10.763   0.026  10.259
21640SOL    HW166752  10.834   0.068  10.307
21640SOL    HW266753  10.756   0.075  10.177
21641SOL     OW66754  10.514   6.869   2.810
21641SOL    HW166755  10.461   6.860   2.889
21641SOL    HW266756  10.604   6.871   2.841
21642SOL     OW66757  12.519   8.024   1.156
21642SOL    HW166758  12.556   8.087   1.218
21642SOL    HW266759  12.434   8.062   1.132
21643SOL     OW66760   5.201   6.204   7.005
21643SOL    HW166761   5.138   6.263   7.046
21643SOL    HW266762   5.166   6.188   6.918
21644SOL     OW66763   8.993   7.988   9.081
21644SOL    HW166764   9.084   7.999   9.054
21644SOL    HW266765   8.982   7.894   9.091
21645SOL     OW66766  14.538   6.795  11.852
21645SOL    HW166767  14.533   6.881  11.811
21645SOL    HW266768  14.448   6.765  11.855
21646SOL     OW66769  11.981   7.431   2.797
21646SOL    HW166770  11.986   7.455   2.704
21646SOL    HW266771  11.998   7.337   2.798
21647SOL     OW66772   9.568   4.500  12.143
21647SOL    HW166773   9.649   4.548  12.126
21647SOL    HW266774   9.498   4.562  12.123
21648SOL     OW66775  11.243   8.964   1.033
21648SOL    HW166776  11.258   9.058   1.041
21648SOL    HW266777  11.331   8.926   1.033
21649SOL     OW66778   2.934  13.891   7.946
21649SOL    HW166779   2.889  13.974   7.927
21649SOL    HW266780   3.001  13.915   8.011
21650SOL     OW66781  10.940  12.896  14.118
21650SOL    HW166782  10.936  12.818  14.062
21650SOL    HW266783  11.029  12.928  14.108
21651SOL     OW66784   9.717  13.393   1.819
21651SOL    HW166785   9.692  13.316   1.768
21651SOL    HW266786   9.812  13.395   1.816
21652SOL     OW66787   4.088  11.095   2.016
21652SOL    HW166788   4.085  11.004   1.987
21652SOL    HW266789   4.122  11.091   2.105
21653SOL     OW66790   5.168   9.501   5.907
21653SOL    HW166791   5.232   9.565   5.874
21653SOL    HW266792   5.109   9.485   5.833
21654SOL     OW66793   3.626   4.025   5.219
21654SOL    HW166794   3.700   4.054   5.166
21654SOL    HW266795   3.655   3.943   5.258
21655SOL     OW66796   4.371  13.227  12.282
21655SOL    HW166797   4.324  13.151  12.247
21655SOL    HW266798   4.378  13.210  12.376
21656SOL     OW66799   8.886  12.981  11.732
21656SOL    HW166800   8.893  13.075  11.748
21656SOL    HW266801   8.966  12.944  11.769
21657SOL     OW66802   3.738   8.817   5.244
21657SOL    HW166803   3.704   8.734   5.212
21657SOL    HW266804   3.712   8.881   5.178
21658SOL     OW66805   6.092  14.638  13.842
21658SOL    HW166806   6.054  14.670  13.761
21658SOL    HW266807   6.184  14.667  13.839
21659SOL     OW66808   5.596   4.267   5.060
21659SOL    HW166809   5.502   4.266   5.047
21659SOL    HW266810   5.609   4.320   5.139
21660SOL     OW66811   7.515  14.072   5.373
21660SOL    HW166812   7.506  13.987   5.416
21660SOL    HW266813   7.452  14.069   5.301
21661SOL     OW66814   9.576   3.351   2.362
21661SOL    HW166815   9.663   3.391   2.366
21661SOL    HW266816   9.556   3.329   2.453
21662SOL     OW66817   1.807   6.435   0.848
21662SOL    HW166818   1.742   6.505   0.854
21662SOL    HW266819   1.758   6.355   0.865
21663SOL     OW66820   5.882   2.318   3.097
21663SOL    HW166821   5.910   2.316   3.005
21663SOL    HW266822   5.792   2.287   3.095
21664SOL     OW66823   8.291   4.294   0.408
21664SOL    HW166824   8.330   4.367   0.457
21664SOL    HW266825   8.279   4.328   0.320
21665SOL     OW66826  14.572   1.321  13.756
21665SOL    HW166827  14.583   1.245  13.814
21665SOL    HW266828  14.655   1.368  13.762
21666SOL     OW66829   2.413  12.319   1.932
21666SOL    HW166830   2.360  12.287   1.859
21666SOL    HW266831   2.475  12.248   1.949
21667SOL     OW66832   0.543   3.254   0.921
21667SOL    HW166833   0.543   3.308   0.842
21667SOL    HW266834   0.464   3.279   0.968
21668SOL     OW66835   0.293   6.066   1.496
21668SOL    HW166836   0.360   6.030   1.437
21668SOL    HW266837   0.254   6.138   1.447
21669SOL     OW66838  14.114  12.103   3.470
21669SOL    HW166839  14.078  12.146   3.392
21669SOL    HW266840  14.118  12.171   3.536
21670SOL     OW66841   3.099  13.458   7.131
21670SOL    HW166842   3.084  13.549   7.104
21670SOL    HW266843   3.012  13.418   7.130
21671SOL     OW66844  10.913  11.530   5.491
21671SOL    HW166845  10.897  11.462   5.425
21671SOL    HW266846  10.997  11.568   5.466
21672SOL     OW66847  10.071   5.709   1.913
21672SOL    HW166848  10.021   5.718   1.994
21672SOL    HW266849  10.148   5.658   1.938
21673SOL     OW66850  13.967  13.128  14.035
21673SOL    HW166851  13.941  13.132  13.942
21673SOL    HW266852  13.893  13.166  14.082
21674SOL     OW66853  10.329  12.712  13.617
21674SOL    HW166854  10.261  12.779  13.624
21674SOL    HW266855  10.287  12.632  13.648
21675SOL     OW66856   6.758   3.065   1.128
21675SOL    HW166857   6.814   3.133   1.166
21675SOL    HW266858   6.819   3.006   1.085
21676SOL     OW66859   5.024  11.714  13.407
21676SOL    HW166860   5.011  11.639  13.466
21676SOL    HW266861   5.054  11.785  13.465
21677SOL     OW66862  12.137   9.817   6.836
21677SOL    HW166863  12.203   9.886   6.835
21677SOL    HW266864  12.174   9.750   6.894
21678SOL     OW66865  11.061   2.529   9.359
21678SOL    HW166866  10.974   2.510   9.324
21678SOL    HW266867  11.045   2.581   9.437
21679SOL     OW66868   3.332  12.406   3.625
21679SOL    HW166869   3.329  12.355   3.544
21679SOL    HW266870   3.417  12.386   3.663
21680SOL     OW66871   4.202   1.152   7.870
21680SOL    HW166872   4.282   1.195   7.901
21680SOL    HW266873   4.140   1.223   7.858
21681SOL     OW66874  12.158  11.780   9.565
21681SOL    HW166875  12.251  11.788   9.547
21681SOL    HW266876  12.117  11.848   9.512
21682SOL     OW66877   0.739  10.096   2.888
21682SOL    HW166878   0.767  10.035   2.819
21682SOL    HW266879   0.769  10.056   2.969
21683SOL     OW66880   6.100  12.071   2.818
21683SOL    HW166881   6.159  12.145   2.801
21683SOL    HW266882   6.134  12.032   2.898
21684SOL     OW66883   3.869   8.027  12.330
21684SOL    HW166884   3.785   8.056  12.295
21684SOL    HW266885   3.906   7.970  12.263
21685SOL     OW66886  14.265   5.001   6.157
21685SOL    HW166887  14.251   5.087   6.117
21685SOL    HW266888  14.353   4.976   6.129
21686SOL     OW66889   8.544   7.853   9.759
21686SOL    HW166890   8.631   7.877   9.727
21686SOL    HW266891   8.545   7.757   9.762
21687SOL     OW66892  14.487   6.610   5.345
21687SOL    HW166893  14.417   6.601   5.409
21687SOL    HW266894  14.560   6.560   5.383
21688SOL     OW66895   7.456   5.122  11.847
21688SOL    HW166896   7.496   5.037  11.828
21688SOL    HW266897   7.377   5.123  11.792
21689SOL     OW66898   9.398  13.077   2.643
21689SOL    HW166899   9.372  13.168   2.659
21689SOL    HW266900   9.337  13.025   2.695
21690SOL     OW66901   7.812   1.847  12.717
21690SOL    HW166902   7.861   1.837  12.636
21690SOL    HW266903   7.740   1.905  12.695
21691SOL     OW66904  10.697  14.456   9.680
21691SOL    HW166905  10.683  14.399   9.604
21691SOL    HW266906  10.635  14.528   9.666
21692SOL     OW66907  13.016   7.958   2.582
21692SOL    HW166908  12.921   7.962   2.568
21692SOL    HW266909  13.049   7.908   2.508
21693SOL     OW66910   5.539   3.021  10.683
21693SOL    HW166911   5.624   3.040  10.643
21693SOL    HW266912   5.496   3.106  10.688
21694SOL     OW66913   2.518   4.522  14.675
21694SOL    HW166914   2.514   4.449  14.612
21694SOL    HW266915   2.611   4.545  14.678
21695SOL     OW66916   8.543   0.604   9.741
21695SOL    HW166917   8.487   0.599   9.818
21695SOL    HW266918   8.626   0.639   9.774
21696SOL     OW66919   9.234  13.929  12.030
21696SOL    HW166920   9.219  14.021  12.007
21696SOL    HW266921   9.170  13.881  11.978
21697SOL     OW66922  12.059  13.343  13.871
21697SOL    HW166923  12.102  13.385  13.796
21697SOL    HW266924  12.098  13.256  13.875
21698SOL     OW66925   3.167   0.975  10.289
21698SOL    HW166926   3.079   0.971  10.325
21698SOL    HW266927   3.160   1.032  10.212
21699SOL     OW66928   0.421  14.009  14.285
21699SOL    HW166929   0.468  14.032  14.205
21699SOL    HW266930   0.344  13.961  14.254
21700SOL     OW66931   2.385   3.895  12.833
21700SOL    HW166932   2.465   3.937  12.803
21700SOL    HW266933   2.407   3.860  12.920
21701SOL     OW66934  13.729   9.802   7.178
21701SOL    HW166935  13.784   9.877   7.156
21701SOL    HW266936  13.773   9.761   7.253
21702SOL     OW66937   8.311  14.094   7.671
21702SOL    HW166938   8.288  14.142   7.592
21702SOL    HW266939   8.284  14.004   7.653
21703SOL     OW66940  13.361   2.056   5.246
21703SOL    HW166941  13.277   2.039   5.203
21703SOL    HW266942  13.337   2.104   5.326
21704SOL     OW66943   7.758  14.467   6.943
21704SOL    HW166944   7.673  14.426   6.957
21704SOL    HW266945   7.788  14.492   7.031
21705SOL     OW66946  14.326   2.759   0.433
21705SOL    HW166947  14.275   2.686   0.397
21705SOL    HW266948  14.264   2.806   0.489
21706SOL     OW66949   2.153   5.295   4.848
21706SOL    HW166950   2.156   5.336   4.934
21706SOL    HW266951   2.123   5.205   4.866
21707SOL     OW66952  10.728   6.796   8.814
21707SOL    HW166953  10.806   6.806   8.870
21707SOL    HW266954  10.722   6.880   8.768
21708SOL     OW66955  11.256   6.916   8.724
21708SOL    HW166956  11.328   6.974   8.750
21708SOL    HW266957  11.257   6.846   8.790
21709SOL     OW66958  11.345  14.485  10.475
21709SOL    HW166959  11.307  14.453  10.557
21709SOL    HW266960  11.437  14.500  10.496
21710SOL     OW66961   3.714  10.956   8.211
21710SOL    HW166962   3.730  11.048   8.189
21710SOL    HW266963   3.752  10.907   8.139
21711SOL     OW66964   4.802  13.237  10.553
21711SOL    HW166965   4.883  13.279  10.523
21711SOL    HW266966   4.829  13.150  10.582
21712SOL     OW66967  10.437   7.297   3.145
21712SOL    HW166968  10.433   7.360   3.216
21712SOL    HW266969  10.453   7.213   3.188
21713SOL     OW66970   1.635   9.887   9.116
21713SOL    HW166971   1.603   9.977   9.118
21713SOL    HW266972   1.613   9.852   9.202
21714SOL     OW66973  14.598   6.881   6.839
21714SOL    HW166974  14.522   6.921   6.882
21714SOL    HW266975  14.652   6.956   6.813
21715SOL     OW66976  11.931   3.001  12.410
21715SOL    HW166977  11.893   2.991  12.496
21715SOL    HW266978  11.937   2.912  12.375
21716SOL     OW66979   0.573   1.793   1.998
21716SOL    HW166980   0.492   1.748   1.973
21716SOL    HW266981   0.617   1.811   1.915
21717SOL     OW66982   1.530   1.007  10.457
21717SOL    HW166983   1.446   1.052  10.469
21717SOL    HW266984   1.524   0.970  10.369
21718SOL     OW66985   4.860   1.516   1.600
21718SOL    HW166986   4.831   1.519   1.509
21718SOL    HW266987   4.949   1.550   1.598
21719SOL     OW66988  11.326   6.715   4.753
21719SOL    HW166989  11.400   6.690   4.808
21719SOL    HW266990  11.355   6.795   4.709
21720SOL     OW66991   5.140   9.138  11.289
21720SOL    HW166992   5.150   9.047  11.262
21720SOL    HW266993   5.227   9.165  11.317
21721SOL     OW66994   7.581  12.925  10.093
21721SOL    HW166995   7.597  12.963  10.007
21721SOL    HW266996   7.668  12.912  10.131
21722SOL     OW66997   4.802  12.084  12.924
21722SOL    HW166998   4.826  12.040  12.842
21722SOL    HW266999   4.768  12.014  12.980
21723SOL     OW67000   6.635   5.251   2.123
21723SOL    HW167001   6.665   5.161   2.134
21723SOL    HW267002   6.616   5.280   2.213
21724SOL     OW67003   4.704   0.187  12.490
21724SOL    HW167004   4.771   0.124  12.514
21724SOL    HW267005   4.743   0.273  12.510
21725SOL     OW67006  11.805  10.823   3.890
21725SOL    HW167007  11.792  10.916   3.872
21725SOL    HW267008  11.789  10.780   3.806
21726SOL     OW67009   9.995   4.299   9.963
21726SOL    HW167010  10.085   4.282   9.934
21726SOL    HW267011  10.003   4.314  10.057
21727SOL     OW67012   0.467  13.479  10.534
21727SOL    HW167013   0.433  13.414  10.472
21727SOL    HW267014   0.403  13.479  10.605
21728SOL     OW67015   7.652   9.975   1.862
21728SOL    HW167016   7.642  10.026   1.942
21728SOL    HW267017   7.565   9.972   1.823
21729SOL     OW67018   1.262  14.685   6.312
21729SOL    HW167019   1.253  14.635   6.232
21729SOL    HW267020   1.197  14.755   6.304
21730SOL     OW67021  14.295   1.196  11.891
21730SOL    HW167022  14.291   1.183  11.796
21730SOL    HW267023  14.238   1.271  11.908
21731SOL     OW67024   0.307   9.514   5.952
21731SOL    HW167025   0.387   9.545   5.995
21731SOL    HW267026   0.314   9.418   5.956
21732SOL     OW67027   5.155  10.791  12.733
21732SOL    HW167028   5.097  10.834  12.670
21732SOL    HW267029   5.117  10.812  12.819
21733SOL     OW67030   4.703   4.818   0.531
21733SOL    HW167031   4.751   4.868   0.597
21733SOL    HW267032   4.642   4.764   0.580
21734SOL     OW67033  13.876   9.255  12.351
21734SOL    HW167034  13.940   9.220  12.413
21734SOL    HW267035  13.852   9.180  12.297
21735SOL     OW67036   6.538   0.334  11.751
21735SOL    HW167037   6.582   0.282  11.819
21735SOL    HW267038   6.603   0.340  11.681
21736SOL     OW67039   3.192   6.347   4.612
21736SOL    HW167040   3.166   6.281   4.548
21736SOL    HW267041   3.179   6.431   4.567
21737SOL     OW67042  11.421   9.769   7.915
21737SOL    HW167043  11.382   9.720   7.987
21737SOL    HW267044  11.360   9.758   7.842
21738SOL     OW67045  12.178   8.334   6.894
21738SOL    HW167046  12.253   8.389   6.868
21738SOL    HW267047  12.209   8.244   6.884
21739SOL     OW67048   6.991   9.269   0.830
21739SOL    HW167049   6.943   9.349   0.849
21739SOL    HW267050   7.051   9.258   0.904
21740SOL     OW67051  13.316   7.240  14.782
21740SOL    HW167052  13.241   7.297  14.795
21740SOL    HW267053  13.347   7.221  14.871
21741SOL     OW67054   7.930  13.678  14.843
21741SOL    HW167055   7.839  13.686  14.812
21741SOL    HW267056   7.974  13.756  14.809
21742SOL     OW67057   9.071   6.282   6.783
21742SOL    HW167058   9.019   6.338   6.839
21742SOL    HW267059   9.122   6.228   6.843
21743SOL     OW67060  12.267  11.058   4.673
21743SOL    HW167061  12.303  11.102   4.596
21743SOL    HW267062  12.334  10.993   4.696
21744SOL     OW67063  10.839   9.196   6.192
21744SOL    HW167064  10.897   9.122   6.209
21744SOL    HW267065  10.774   9.192   6.263
21745SOL     OW67066   3.849   5.083   6.891
21745SOL    HW167067   3.915   5.041   6.946
21745SOL    HW267068   3.870   5.054   6.802
21746SOL     OW67069  11.592   9.590  13.973
21746SOL    HW167070  11.569   9.621  13.886
21746SOL    HW267071  11.635   9.664  14.014
21747SOL     OW67072  13.153  11.006   1.788
21747SOL    HW167073  13.155  10.989   1.693
21747SOL    HW267074  13.060  11.016   1.808
21748SOL     OW67075   6.593  14.470   0.793
21748SOL    HW167076   6.544  14.552   0.788
21748SOL    HW267077   6.617  14.451   0.702
21749SOL     OW67078   4.512  12.242   6.315
21749SOL    HW167079   4.482  12.284   6.395
21749SOL    HW267080   4.501  12.148   6.330
21750SOL     OW67081  13.657   0.954   6.298
21750SOL    HW167082  13.653   1.047   6.320
21750SOL    HW267083  13.633   0.909   6.379
21751SOL     OW67084  13.467   0.474   4.362
21751SOL    HW167085  13.445   0.555   4.407
21751SOL    HW267086  13.520   0.502   4.287
21752SOL     OW67087  12.982   7.237   7.581
21752SOL    HW167088  13.024   7.320   7.558
21752SOL    HW267089  12.892   7.260   7.604
21753SOL     OW67090   3.271  13.607  12.541
21753SOL    HW167091   3.313  13.694  12.543
21753SOL    HW267092   3.243  13.597  12.450
21754SOL     OW67093   6.370   8.518  14.165
21754SOL    HW167094   6.274   8.523  14.160
21754SOL    HW267095   6.390   8.425  14.166
21755SOL     OW67096   6.071  10.674   3.254
21755SOL    HW167097   6.112  10.732   3.318
21755SOL    HW267098   6.144  10.645   3.198
21756SOL     OW67099  14.602  12.490   3.748
21756SOL    HW167100  14.682  12.442   3.770
21756SOL    HW267101  14.634  12.575   3.717
21757SOL     OW67102   8.553   5.840   5.979
21757SOL    HW167103   8.634   5.812   6.022
21757SOL    HW267104   8.562   5.935   5.972
21758SOL     OW67105  12.065   1.713  13.201
21758SOL    HW167106  12.132   1.644  13.206
21758SOL    HW267107  12.094   1.769  13.129
21759SOL     OW67108   0.720   5.251   6.610
21759SOL    HW167109   0.646   5.285   6.661
21759SOL    HW267110   0.679   5.209   6.534
21760SOL     OW67111   2.950   0.566  10.445
21760SOL    HW167112   2.917   0.483  10.478
21760SOL    HW267113   2.871   0.618  10.429
21761SOL     OW67114   3.252  12.684  13.964
21761SOL    HW167115   3.304  12.752  13.922
21761SOL    HW267116   3.314  12.615  13.987
21762SOL     OW67117   8.410   5.944   9.234
21762SOL    HW167118   8.505   5.946   9.251
21762SOL    HW267119   8.372   5.911   9.315
21763SOL     OW67120   8.425   0.940   4.309
21763SOL    HW167121   8.463   0.877   4.248
21763SOL    HW267122   8.414   1.020   4.257
21764SOL     OW67123   7.509  13.960  11.211
21764SOL    HW167124   7.478  14.047  11.237
21764SOL    HW267125   7.596  13.953  11.249
21765SOL     OW67126   8.794   1.244   8.288
21765SOL    HW167127   8.845   1.325   8.284
21765SOL    HW267128   8.798   1.210   8.199
21766SOL     OW67129   1.383  13.935   5.033
21766SOL    HW167130   1.420  13.978   4.956
21766SOL    HW267131   1.428  13.850   5.037
21767SOL     OW67132  14.493  13.240  13.127
21767SOL    HW167133  14.479  13.335  13.134
21767SOL    HW267134  14.575  13.225  13.174
21768SOL     OW67135   1.597   9.535  11.179
21768SOL    HW167136   1.548   9.616  11.167
21768SOL    HW267137   1.535   9.466  11.155
21769SOL     OW67138  13.842  11.414   2.952
21769SOL    HW167139  13.811  11.385   3.038
21769SOL    HW267140  13.929  11.374   2.942
21770SOL     OW67141   5.917   9.308   8.966
21770SOL    HW167142   5.903   9.342   8.878
21770SOL    HW267143   5.831   9.315   9.009
21771SOL     OW67144  11.848  13.167   2.274
21771SOL    HW167145  11.762  13.187   2.311
21771SOL    HW267146  11.837  13.178   2.180
21772SOL     OW67147  13.261  11.420  12.670
21772SOL    HW167148  13.323  11.480  12.711
21772SOL    HW267149  13.195  11.477  12.629
21773SOL     OW67150  12.836  11.034   4.257
21773SOL    HW167151  12.840  10.965   4.322
21773SOL    HW267152  12.762  11.010   4.201
21774SOL     OW67153   2.312   9.756   7.863
21774SOL    HW167154   2.224   9.793   7.863
21774SOL    HW267155   2.369   9.829   7.838
21775SOL     OW67156  14.396   4.839  11.909
21775SOL    HW167157  14.429   4.786  11.836
21775SOL    HW267158  14.310   4.803  11.928
21776SOL     OW67159  12.901   6.208   7.312
21776SOL    HW167160  12.834   6.151   7.275
21776SOL    HW267161  12.982   6.181   7.269
21777SOL     OW67162  14.742   6.635  11.623
21777SOL    HW167163  14.776   6.619  11.535
21777SOL    HW267164  14.801   6.700  11.660
21778SOL     OW67165  11.145   0.150   1.146
21778SOL    HW167166  11.228   0.103   1.150
21778SOL    HW267167  11.168   0.242   1.156
21779SOL     OW67168  13.871   4.058   8.275
21779SOL    HW167169  13.797   4.095   8.323
21779SOL    HW267170  13.877   3.968   8.306
21780SOL     OW67171   7.186  13.704  12.242
21780SOL    HW167172   7.242  13.750  12.179
21780SOL    HW267173   7.106  13.756  12.245
21781SOL     OW67174  10.393  11.273   3.046
21781SOL    HW167175  10.485  11.283   3.071
21781SOL    HW267176  10.380  11.340   2.979
21782SOL     OW67177   8.797   9.180  13.548
21782SOL    HW167178   8.798   9.275  13.553
21782SOL    HW267179   8.890   9.155  13.553
21783SOL     OW67180   9.381   8.066  14.073
21783SOL    HW167181   9.413   8.144  14.118
21783SOL    HW267182   9.442   7.997  14.099
21784SOL     OW67183  12.432   7.406  11.971
21784SOL    HW167184  12.417   7.491  12.012
21784SOL    HW267185  12.486   7.358  12.034
21785SOL     OW67186   3.533   4.966  10.057
21785SOL    HW167187   3.607   4.937  10.004
21785SOL    HW267188   3.536   5.062  10.052
21786SOL     OW67189   6.069   7.633   7.256
21786SOL    HW167190   5.990   7.671   7.296
21786SOL    HW267191   6.140   7.690   7.286
21787SOL     OW67192  10.969  12.880  10.821
21787SOL    HW167193  10.963  12.907  10.730
21787SOL    HW267194  10.927  12.794  10.823
21788SOL     OW67195   5.634   7.252   9.527
21788SOL    HW167196   5.590   7.176   9.489
21788SOL    HW267197   5.712   7.265   9.473
21789SOL     OW67198   4.787  14.077   2.456
21789SOL    HW167199   4.870  14.033   2.439
21789SOL    HW267200   4.809  14.170   2.457
21790SOL     OW67201   6.223   1.483  12.922
21790SOL    HW167202   6.228   1.556  12.984
21790SOL    HW267203   6.268   1.516  12.844
21791SOL     OW67204   5.891  11.309   9.819
21791SOL    HW167205   5.954  11.280   9.885
21791SOL    HW267206   5.806  11.283   9.854
21792SOL     OW67207   1.115   2.380  12.921
21792SOL    HW167208   1.120   2.285  12.916
21792SOL    HW267209   1.032   2.402  12.878
21793SOL     OW67210   1.548   9.571  14.179
21793SOL    HW167211   1.578   9.482  14.196
21793SOL    HW267212   1.455   9.569  14.198
21794SOL     OW67213  10.974  10.985  14.249
21794SOL    HW167214  11.029  10.916  14.287
21794SOL    HW267215  11.031  11.028  14.184
21795SOL     OW67216  14.235   4.602  10.203
21795SOL    HW167217  14.143   4.627  10.195
21795SOL    HW267218  14.276   4.675  10.250
21796SOL     OW67219   2.447   3.410  12.708
21796SOL    HW167220   2.394   3.450  12.639
21796SOL    HW267221   2.498   3.343  12.663
21797SOL     OW67222  12.186   8.660   5.023
21797SOL    HW167223  12.273   8.623   5.004
21797SOL    HW267224  12.131   8.629   4.951
21798SOL     OW67225   9.932  10.090   1.127
21798SOL    HW167226   9.910  10.180   1.103
21798SOL    HW267227   9.863  10.038   1.087
21799SOL     OW67228   7.661   6.110   9.774
21799SOL    HW167229   7.654   6.184   9.834
21799SOL    HW267230   7.592   6.050   9.803
21800SOL     OW67231  10.660   1.744   5.616
21800SOL    HW167232  10.695   1.781   5.697
21800SOL    HW267233  10.582   1.695   5.644
21801SOL     OW67234   7.993   6.051  14.296
21801SOL    HW167235   7.969   6.103  14.218
21801SOL    HW267236   8.006   5.963  14.262
21802SOL     OW67237  11.071   5.403   3.356
21802SOL    HW167238  10.990   5.362   3.325
21802SOL    HW267239  11.093   5.466   3.288
21803SOL     OW67240   4.527  12.758   7.432
21803SOL    HW167241   4.473  12.808   7.371
21803SOL    HW267242   4.466  12.726   7.498
21804SOL     OW67243  10.724  12.634   8.487
21804SOL    HW167244  10.751  12.545   8.465
21804SOL    HW267245  10.724  12.681   8.404
21805SOL     OW67246   7.346  12.870   8.728
21805SOL    HW167247   7.335  12.776   8.745
21805SOL    HW267248   7.257  12.904   8.722
21806SOL     OW67249   7.324   1.344   1.038
21806SOL    HW167250   7.327   1.309   0.949
21806SOL    HW267251   7.380   1.422   1.036
21807SOL     OW67252   6.558   1.777  14.571
21807SOL    HW167253   6.653   1.777  14.586
21807SOL    HW267254   6.524   1.843  14.632
21808SOL     OW67255   7.794   8.528   2.794
21808SOL    HW167256   7.748   8.447   2.772
21808SOL    HW267257   7.852   8.544   2.720
21809SOL     OW67258   0.008   5.795   6.786
21809SOL    HW167259   0.005   5.856   6.712
21809SOL    HW267260  14.872   5.848   6.863
21810SOL     OW67261   5.370   7.332  11.423
21810SOL    HW167262   5.435   7.322  11.354
21810SOL    HW267263   5.333   7.419  11.408
21811SOL     OW67264   1.666   7.263  12.450
21811SOL    HW167265   1.695   7.265  12.359
21811SOL    HW267266   1.616   7.344  12.461
21812SOL     OW67267   2.812  10.691   3.325
21812SOL    HW167268   2.803  10.596   3.321
21812SOL    HW267269   2.902  10.708   3.300
21813SOL     OW67270  14.349   8.200  13.694
21813SOL    HW167271  14.258   8.227  13.709
21813SOL    HW267272  14.383   8.265  13.633
21814SOL     OW67273   8.203   6.138   0.416
21814SOL    HW167274   8.121   6.115   0.459
21814SOL    HW267275   8.203   6.084   0.336
21815SOL     OW67276   0.033   5.445   9.510
21815SOL    HW167277  14.827   5.436   9.546
21815SOL    HW267278   0.023   5.433   9.416
21816SOL     OW67279   0.135   4.054  13.624
21816SOL    HW167280   0.109   3.993  13.555
21816SOL    HW267281   0.190   4.001  13.683
21817SOL     OW67282   4.474   5.420  10.193
21817SOL    HW167283   4.414   5.494  10.194
21817SOL    HW267284   4.458   5.377  10.109
21818SOL     OW67285   6.575   0.649   2.337
21818SOL    HW167286   6.522   0.660   2.258
21818SOL    HW267287   6.527   0.696   2.405
21819SOL     OW67288   3.349  13.027   2.740
21819SOL    HW167289   3.370  13.120   2.731
21819SOL    HW267290   3.417  12.983   2.688
21820SOL     OW67291   1.706   6.786   3.953
21820SOL    HW167292   1.754   6.840   4.015
21820SOL    HW267293   1.616   6.784   3.987
21821SOL     OW67294   5.721   2.973  12.192
21821SOL    HW167295   5.774   3.053  12.199
21821SOL    HW267296   5.631   3.005  12.186
21822SOL     OW67297   8.972   7.615   4.630
21822SOL    HW167298   8.949   7.677   4.699
21822SOL    HW267299   9.060   7.641   4.603
21823SOL     OW67300  10.609  14.345   9.001
21823SOL    HW167301  10.675  14.328   9.068
21823SOL    HW267302  10.570  14.259   8.983
21824SOL     OW67303  11.585   4.361  12.421
21824SOL    HW167304  11.507   4.397  12.463
21824SOL    HW267305  11.559   4.349  12.330
21825SOL     OW67306   5.508   0.216   6.515
21825SOL    HW167307   5.523   0.273   6.439
21825SOL    HW267308   5.446   0.265   6.569
21826SOL     OW67309  13.429  12.448  14.785
21826SOL    HW167310  13.381  12.385  14.839
21826SOL    HW267311  13.374  12.461  14.708
21827SOL     OW67312   7.890   7.999  14.297
21827SOL    HW167313   7.968   7.950  14.325
21827SOL    HW267314   7.828   7.931  14.272
21828SOL     OW67315   3.325   2.416   5.910
21828SOL    HW167316   3.283   2.469   5.842
21828SOL    HW267317   3.263   2.345   5.927
21829SOL     OW67318   2.499   8.929   4.506
21829SOL    HW167319   2.581   8.972   4.483
21829SOL    HW267320   2.491   8.940   4.600
21830SOL     OW67321  13.655  12.056   9.297
21830SOL    HW167322  13.634  12.037   9.205
21830SOL    HW267323  13.749  12.041   9.303
21831SOL     OW67324  14.464  13.789   5.315
21831SOL    HW167325  14.404  13.862   5.330
21831SOL    HW267326  14.429  13.717   5.368
21832SOL     OW67327   2.483  11.583  11.201
21832SOL    HW167328   2.431  11.504  11.215
21832SOL    HW267329   2.534  11.564  11.122
21833SOL     OW67330   9.389   1.118   4.784
21833SOL    HW167331   9.320   1.140   4.722
21833SOL    HW267332   9.365   1.032   4.817
21834SOL     OW67333  13.485  11.402   5.526
21834SOL    HW167334  13.413  11.458   5.498
21834SOL    HW267335  13.540  11.459   5.580
21835SOL     OW67336   2.521   0.018   6.098
21835SOL    HW167337   2.536  14.819   6.147
21835SOL    HW267338   2.605   0.064   6.102
21836SOL     OW67339   2.155   2.109   8.800
21836SOL    HW167340   2.104   2.066   8.731
21836SOL    HW267341   2.148   2.050   8.875
21837SOL     OW67342   0.820   4.300   9.918
21837SOL    HW167343   0.767   4.302   9.998
21837SOL    HW267344   0.904   4.263   9.947
21838SOL     OW67345  13.703   3.510   5.808
21838SOL    HW167346  13.759   3.580   5.842
21838SOL    HW267347  13.749   3.429   5.830
21839SOL     OW67348  10.053  10.106   1.590
21839SOL    HW167349  10.017  10.074   1.673
21839SOL    HW267350  10.037  10.035   1.528
21840SOL     OW67351  10.811   6.240  13.614
21840SOL    HW167352  10.779   6.276  13.532
21840SOL    HW267353  10.895   6.283  13.628
21841SOL     OW67354   0.799   2.703   2.920
21841SOL    HW167355   0.862   2.646   2.875
21841SOL    HW267356   0.773   2.654   2.998
21842SOL     OW67357   1.196  11.475  10.224
21842SOL    HW167358   1.167  11.390  10.191
21842SOL    HW267359   1.290  11.464  10.237
21843SOL     OW67360   6.176   2.472   1.336
21843SOL    HW167361   6.257   2.466   1.386
21843SOL    HW267362   6.184   2.554   1.287
21844SOL     OW67363   8.210   1.788   1.342
21844SOL    HW167364   8.207   1.829   1.255
21844SOL    HW267365   8.287   1.732   1.339
21845SOL     OW67366   5.966   2.417   2.524
21845SOL    HW167367   5.900   2.361   2.565
21845SOL    HW267368   5.920   2.499   2.507
21846SOL     OW67369   7.925   0.102   5.256
21846SOL    HW167370   7.897   0.186   5.219
21846SOL    HW267371   7.870   0.090   5.333
21847SOL     OW67372   9.669   8.495   3.963
21847SOL    HW167373   9.726   8.505   4.039
21847SOL    HW267374   9.728   8.501   3.888
21848SOL     OW67375   3.945  14.007   9.609
21848SOL    HW167376   3.877  14.050   9.558
21848SOL    HW267377   3.928  14.034   9.700
21849SOL     OW67378   0.364   0.077  10.885
21849SOL    HW167379   0.436   0.057  10.944
21849SOL    HW267380   0.350   0.172  10.896
21850SOL     OW67381   6.992  11.651   4.575
21850SOL    HW167382   6.950  11.722   4.526
21850SOL    HW267383   7.028  11.693   4.653
21851SOL     OW67384   2.153  10.662   4.926
21851SOL    HW167385   2.064  10.627   4.915
21851SOL    HW267386   2.209  10.584   4.930
21852SOL     OW67387  14.156  12.590   4.687
21852SOL    HW167388  14.159  12.646   4.609
21852SOL    HW267389  14.194  12.507   4.659
21853SOL     OW67390   3.113  14.132   2.707
21853SOL    HW167391   3.172  14.103   2.637
21853SOL    HW267392   3.025  14.116   2.673
21854SOL     OW67393   7.037   8.298   8.523
21854SOL    HW167394   7.121   8.258   8.499
21854SOL    HW267395   6.994   8.231   8.576
21855SOL     OW67396   0.181  13.966  12.805
21855SOL    HW167397   0.227  14.045  12.831
21855SOL    HW267398   0.221  13.941  12.721
21856SOL     OW67399  12.658   2.319   5.546
21856SOL    HW167400  12.663   2.364   5.631
21856SOL    HW267401  12.613   2.236   5.565
21857SOL     OW67402   5.176  13.142  10.659
21857SOL    HW167403   5.119  13.066  10.648
21857SOL    HW267404   5.125  13.216  10.626
21858SOL     OW67405  10.058   9.245  10.748
21858SOL    HW167406  10.012   9.327  10.732
21858SOL    HW267407  10.053   9.233  10.843
21859SOL     OW67408   0.126   5.308   2.504
21859SOL    HW167409   0.164   5.250   2.570
21859SOL    HW267410   0.073   5.250   2.449
21860SOL     OW67411  14.620  10.889  13.604
21860SOL    HW167412  14.653  10.887  13.514
21860SOL    HW267413  14.636  10.801  13.638
21861SOL     OW67414   1.898   2.574  13.121
21861SOL    HW167415   1.978   2.603  13.078
21861SOL    HW267416   1.829   2.587  13.057
21862SOL     OW67417   3.802   8.060   9.105
21862SOL    HW167418   3.734   8.042   9.170
21862SOL    HW267419   3.847   7.976   9.093
21863SOL     OW67420   7.562   2.984   5.102
21863SOL    HW167421   7.567   2.889   5.087
21863SOL    HW267422   7.490   2.995   5.163
21864SOL     OW67423  13.820   5.541   7.768
21864SOL    HW167424  13.898   5.574   7.724
21864SOL    HW267425  13.752   5.605   7.749
21865SOL     OW67426   0.925  14.441   7.885
21865SOL    HW167427   1.003  14.469   7.933
21865SOL    HW267428   0.949  14.450   7.793
21866SOL     OW67429   7.534   0.509  10.992
21866SOL    HW167430   7.447   0.532  11.024
21866SOL    HW267431   7.528   0.518  10.897
21867SOL     OW67432   4.924   9.640   6.382
21867SOL    HW167433   4.840   9.601   6.358
21867SOL    HW267434   4.959   9.675   6.300
21868SOL     OW67435  11.577   0.838   0.610
21868SOL    HW167436  11.580   0.777   0.684
21868SOL    HW267437  11.529   0.791   0.542
21869SOL     OW67438   3.088   3.229   0.367
21869SOL    HW167439   3.045   3.294   0.311
21869SOL    HW267440   3.098   3.273   0.451
21870SOL     OW67441   1.194   1.409   8.161
21870SOL    HW167442   1.214   1.385   8.252
21870SOL    HW267443   1.160   1.498   8.167
21871SOL     OW67444   8.939   0.844  11.760
21871SOL    HW167445   8.856   0.880  11.731
21871SOL    HW267446   8.940   0.859  11.855
21872SOL     OW67447   0.782   5.701   6.731
21872SOL    HW167448   0.720   5.690   6.659
21872SOL    HW267449   0.855   5.643   6.711
21873SOL     OW67450   7.357   9.212  13.053
21873SOL    HW167451   7.420   9.273  13.014
21873SOL    HW267452   7.408   9.159  13.113
21874SOL     OW67453   0.152   1.343  14.600
21874SOL    HW167454   0.241   1.379  14.604
21874SOL    HW267455   0.095   1.419  14.598
21875SOL     OW67456  13.255  13.020   6.258
21875SOL    HW167457  13.246  12.950   6.194
21875SOL    HW267458  13.170  13.065   6.257
21876SOL     OW67459   0.270  13.060   4.435
21876SOL    HW167460   0.266  13.155   4.439
21876SOL    HW267461   0.178  13.032   4.431
21877SOL     OW67462  11.469   3.876   1.822
21877SOL    HW167463  11.536   3.944   1.806
21877SOL    HW267464  11.424   3.906   1.901
21878SOL     OW67465  10.252  12.947  13.378
21878SOL    HW167466  10.200  12.976  13.303
21878SOL    HW267467  10.191  12.945  13.451
21879SOL     OW67468   1.023  10.748  10.390
21879SOL    HW167469   0.963  10.699  10.446
21879SOL    HW267470   0.994  10.839  10.399
21880SOL     OW67471  12.890   2.105  12.334
21880SOL    HW167472  12.841   2.156  12.399
21880SOL    HW267473  12.977   2.145  12.334
21881SOL     OW67474   8.055   5.241  12.191
21881SOL    HW167475   8.021   5.269  12.276
21881SOL    HW267476   8.009   5.296  12.128
21882SOL     OW67477  13.042   8.181   6.027
21882SOL    HW167478  12.951   8.158   6.047
21882SOL    HW267479  13.074   8.110   5.972
21883SOL     OW67480  10.174   7.743   0.739
21883SOL    HW167481  10.120   7.813   0.704
21883SOL    HW267482  10.214   7.781   0.818
21884SOL     OW67483   2.226   1.885  13.915
21884SOL    HW167484   2.286   1.955  13.941
21884SOL    HW267485   2.157   1.929  13.865
21885SOL     OW67486  13.465   8.875   3.685
21885SOL    HW167487  13.395   8.852   3.746
21885SOL    HW267488  13.546   8.862   3.734
21886SOL     OW67489   9.383   4.127   0.712
21886SOL    HW167490   9.440   4.180   0.656
21886SOL    HW267491   9.352   4.189   0.779
21887SOL     OW67492  10.279  13.299   0.625
21887SOL    HW167493  10.209  13.333   0.681
21887SOL    HW267494  10.234  13.266   0.547
21888SOL     OW67495   8.248  14.674   4.182
21888SOL    HW167496   8.256  14.687   4.088
21888SOL    HW267497   8.324  14.719   4.219
21889SOL     OW67498  11.901  10.062  13.507
21889SOL    HW167499  11.836  10.125  13.538
21889SOL    HW267500  11.867  10.033  13.423
21890SOL     OW67501   9.586   0.568  12.320
21890SOL    HW167502   9.530   0.538  12.248
21890SOL    HW267503   9.662   0.606  12.276
21891SOL     OW67504  12.818  11.785   4.826
21891SOL    HW167505  12.743  11.738   4.791
21891SOL    HW267506  12.786  11.822   4.909
21892SOL     OW67507   0.614   2.814  13.924
21892SOL    HW167508   0.544   2.878  13.914
21892SOL    HW267509   0.647   2.829  14.013
21893SOL     OW67510   4.494   0.504   7.233
21893SOL    HW167511   4.470   0.458   7.313
21893SOL    HW267512   4.577   0.465   7.205
21894SOL     OW67513   3.659   2.838  14.868
21894SOL    HW167514   3.729   2.883   0.033
21894SOL    HW267515   3.593   2.819   0.053
21895SOL     OW67516   6.104   7.699  13.584
21895SOL    HW167517   6.118   7.742  13.668
21895SOL    HW267518   6.107   7.606  13.603
21896SOL     OW67519   8.838   8.704   0.837
21896SOL    HW167520   8.877   8.731   0.921
21896SOL    HW267521   8.812   8.785   0.795
21897SOL     OW67522  13.007  13.859   7.242
21897SOL    HW167523  12.934  13.920   7.232
21897SOL    HW267524  12.993  13.818   7.327
21898SOL     OW67525   9.117  12.771  14.255
21898SOL    HW167526   9.028  12.745  14.231
21898SOL    HW267527   9.109  12.863  14.280
21899SOL     OW67528   3.439   8.428   9.302
21899SOL    HW167529   3.462   8.448   9.211
21899SOL    HW267530   3.502   8.360   9.328
21900SOL     OW67531  11.278   4.314  11.827
21900SOL    HW167532  11.217   4.387  11.812
21900SOL    HW267533  11.249   4.246  11.766
21901SOL     OW67534   6.945  10.917   0.907
21901SOL    HW167535   6.927  10.856   0.979
21901SOL    HW267536   6.926  10.867   0.828
21902SOL     OW67537   2.570   3.184   9.261
21902SOL    HW167538   2.528   3.270   9.264
21902SOL    HW267539   2.653   3.197   9.307
21903SOL     OW67540  13.648   7.229   2.387
21903SOL    HW167541  13.692   7.166   2.445
21903SOL    HW267542  13.666   7.195   2.299
21904SOL     OW67543  12.413   8.330   2.271
21904SOL    HW167544  12.323   8.339   2.239
21904SOL    HW267545  12.448   8.419   2.270
21905SOL     OW67546   9.340   4.007  11.633
21905SOL    HW167547   9.301   4.056  11.706
21905SOL    HW267548   9.390   3.938  11.675
21906SOL     OW67549   1.953  11.698  13.676
21906SOL    HW167550   1.981  11.611  13.702
21906SOL    HW267551   2.016  11.757  13.719
21907SOL     OW67552   5.131   1.917   0.801
21907SOL    HW167553   5.171   1.830   0.799
21907SOL    HW267554   5.108   1.930   0.893
21908SOL     OW67555   1.284  13.471   2.825
21908SOL    HW167556   1.338  13.491   2.902
21908SOL    HW267557   1.313  13.532   2.758
21909SOL     OW67558   5.380  14.273  12.469
21909SOL    HW167559   5.373  14.251  12.376
21909SOL    HW267560   5.347  14.363  12.474
21910SOL     OW67561  12.817   6.828   5.137
21910SOL    HW167562  12.848   6.836   5.047
21910SOL    HW267563  12.723   6.847   5.132
21911SOL     OW67564   7.812  13.712   0.574
21911SOL    HW167565   7.876  13.730   0.504
21911SOL    HW267566   7.866  13.700   0.652
21912SOL     OW67567   1.234   8.556   5.353
21912SOL    HW167568   1.230   8.460   5.353
21912SOL    HW267569   1.321   8.576   5.320
21913SOL     OW67570   4.323   9.588   7.384
21913SOL    HW167571   4.240   9.547   7.358
21913SOL    HW267572   4.307   9.620   7.473
21914SOL     OW67573   3.382  13.381   8.251
21914SOL    HW167574   3.442  13.312   8.279
21914SOL    HW267575   3.296  13.353   8.281
21915SOL     OW67576   1.264  11.566   9.863
21915SOL    HW167577   1.172  11.578   9.841
21915SOL    HW267578   1.263  11.535   9.953
21916SOL     OW67579  10.539   1.924   2.319
21916SOL    HW167580  10.531   1.987   2.247
21916SOL    HW267581  10.601   1.859   2.288
21917SOL     OW67582   5.634   6.015   7.364
21917SOL    HW167583   5.626   5.931   7.411
21917SOL    HW267584   5.543   6.044   7.352
21918SOL     OW67585   9.071   7.925   7.780
21918SOL    HW167586   8.996   7.913   7.722
21918SOL    HW267587   9.062   7.855   7.846
21919SOL     OW67588   1.023   0.190   9.962
21919SOL    HW167589   1.018   0.099   9.992
21919SOL    HW267590   1.005   0.242  10.041
21920SOL     OW67591   3.382   0.761  12.159
21920SOL    HW167592   3.292   0.728  12.163
21920SOL    HW267593   3.428   0.716  12.229
21921SOL     OW67594   5.963  11.699  12.901
21921SOL    HW167595   5.916  11.662  12.827
21921SOL    HW267596   5.895  11.733  12.959
21922SOL     OW67597   9.347   1.137   2.400
21922SOL    HW167598   9.432   1.150   2.360
21922SOL    HW267599   9.352   1.184   2.484
21923SOL     OW67600   3.674   7.857   7.221
21923SOL    HW167601   3.662   7.869   7.127
21923SOL    HW267602   3.737   7.786   7.228
21924SOL     OW67603  12.500   6.664  12.057
21924SOL    HW167604  12.431   6.731  12.062
21924SOL    HW267605  12.538   6.677  11.970
21925SOL     OW67606   7.987   2.834  11.241
21925SOL    HW167607   8.061   2.859  11.185
21925SOL    HW267608   7.955   2.753  11.203
21926SOL     OW67609   7.639  10.393  14.161
21926SOL    HW167610   7.667  10.301  14.158
21926SOL    HW267611   7.689  10.431  14.233
21927SOL     OW67612   1.925  12.392  13.113
21927SOL    HW167613   1.916  12.486  13.096
21927SOL    HW267614   1.962  12.387  13.201
21928SOL     OW67615   9.125   1.881  14.474
21928SOL    HW167616   9.201   1.938  14.464
21928SOL    HW267617   9.160   1.793  14.460
21929SOL     OW67618  14.836   7.749   1.359
21929SOL    HW167619   0.011   7.672   1.361
21929SOL    HW267620  14.844   7.782   1.269
21930SOL     OW67621   5.167  11.844  13.015
21930SOL    HW167622   5.254  11.872  13.044
21930SOL    HW267623   5.154  11.890  12.932
21931SOL     OW67624   6.228   9.081   9.737
21931SOL    HW167625   6.175   9.087   9.658
21931SOL    HW267626   6.188   9.143   9.798
21932SOL     OW67627   3.747   6.894   9.014
21932SOL    HW167628   3.717   6.876   9.103
21932SOL    HW267629   3.842   6.904   9.022
21933SOL     OW67630   6.295   1.874  12.675
21933SOL    HW167631   6.218   1.918  12.709
21933SOL    HW267632   6.367   1.905  12.730
21934SOL     OW67633   6.383   5.359   6.472
21934SOL    HW167634   6.339   5.415   6.407
21934SOL    HW267635   6.443   5.305   6.421
21935SOL     OW67636  11.282   0.099   0.865
21935SOL    HW167637  11.331   0.036   0.812
21935SOL    HW267638  11.192   0.067   0.864
21936SOL     OW67639   8.396   2.415  14.413
21936SOL    HW167640   8.461   2.408  14.344
21936SOL    HW267641   8.312   2.422  14.367
21937SOL     OW67642   3.022  12.761  14.632
21937SOL    HW167643   3.051  12.847  14.661
21937SOL    HW267644   3.074  12.743  14.553
21938SOL     OW67645   2.316   4.318   9.425
21938SOL    HW167646   2.406   4.328   9.454
21938SOL    HW267647   2.265   4.376   9.482
21939SOL     OW67648  10.998  14.775   8.490
21939SOL    HW167649  11.052  14.722   8.549
21939SOL    HW267650  10.910  14.741   8.500
21940SOL     OW67651   6.007  13.979  14.795
21940SOL    HW167652   5.954  14.056  14.814
21940SOL    HW267653   6.063  14.005  14.722
21941SOL     OW67654  14.056  11.254   3.031
21941SOL    HW167655  14.092  11.172   2.998
21941SOL    HW267656  14.064  11.247   3.127
21942SOL     OW67657  11.140   5.371   1.277
21942SOL    HW167658  11.087   5.349   1.353
21942SOL    HW267659  11.201   5.437   1.310
21943SOL     OW67660   0.844  13.138  14.249
21943SOL    HW167661   0.826  13.206  14.314
21943SOL    HW267662   0.892  13.182  14.180
21944SOL     OW67663   6.060   3.262  10.151
21944SOL    HW167664   6.042   3.304  10.235
21944SOL    HW267665   6.000   3.304  10.090
21945SOL     OW67666  14.312  13.620  10.384
21945SOL    HW167667  14.245  13.572  10.432
21945SOL    HW267668  14.293  13.712  10.401
21946SOL     OW67669   3.268   4.541  12.884
21946SOL    HW167670   3.311   4.493  12.813
21946SOL    HW267671   3.331   4.538  12.956
21947SOL     OW67672   0.130   5.576   0.366
21947SOL    HW167673   0.191   5.504   0.379
21947SOL    HW267674   0.045   5.534   0.354
21948SOL     OW67675   0.176   7.035   6.295
21948SOL    HW167676   0.117   7.098   6.336
21948SOL    HW267677   0.262   7.075   6.302
21949SOL     OW67678   4.486  10.279   0.332
21949SOL    HW167679   4.553  10.275   0.401
21949SOL    HW267680   4.535  10.274   0.250
21950SOL     OW67681  11.643   0.030  14.432
21950SOL    HW167682  11.705   0.101  14.448
21950SOL    HW267683  11.611   0.046  14.344
21951SOL     OW67684   7.118   4.201  12.037
21951SOL    HW167685   7.147   4.147  12.110
21951SOL    HW267686   7.033   4.164  12.011
21952SOL     OW67687  13.609  12.089  14.596
21952SOL    HW167688  13.684  12.137  14.632
21952SOL    HW267689  13.627  11.997  14.615
21953SOL     OW67690   9.965   7.036   8.384
21953SOL    HW167691   9.935   7.125   8.403
21953SOL    HW267692   9.958   6.990   8.468
21954SOL     OW67693   0.691   5.657   3.684
21954SOL    HW167694   0.668   5.610   3.764
21954SOL    HW267695   0.704   5.588   3.619
21955SOL     OW67696   1.394   8.405   5.154
21955SOL    HW167697   1.423   8.389   5.064
21955SOL    HW267698   1.470   8.443   5.197
21956SOL     OW67699  12.181   7.581   0.524
21956SOL    HW167700  12.101   7.590   0.472
21956SOL    HW267701  12.222   7.667   0.522
21957SOL     OW67702  14.531  12.859   5.034
21957SOL    HW167703  14.488  12.800   4.973
21957SOL    HW267704  14.460  12.901   5.082
21958SOL     OW67705   7.480  10.119  13.444
21958SOL    HW167706   7.406  10.160  13.398
21958SOL    HW267707   7.445  10.098  13.531
21959SOL     OW67708  11.275   5.988  13.550
21959SOL    HW167709  11.259   5.905  13.595
21959SOL    HW267710  11.216   6.050  13.591
21960SOL     OW67711  11.601   7.225  13.436
21960SOL    HW167712  11.548   7.205  13.513
21960SOL    HW267713  11.630   7.316  13.451
21961SOL     OW67714   9.924   7.782  14.594
21961SOL    HW167715   9.844   7.822  14.628
21961SOL    HW267716   9.945   7.713  14.656
21962SOL     OW67717   8.717  13.618   4.787
21962SOL    HW167718   8.782  13.575   4.843
21962SOL    HW267719   8.649  13.648   4.847
21963SOL     OW67720   8.597   0.940   5.214
21963SOL    HW167721   8.612   0.992   5.134
21963SOL    HW267722   8.567   0.855   5.182
21964SOL     OW67723  12.980   4.879  10.701
21964SOL    HW167724  12.906   4.868  10.641
21964SOL    HW267725  12.959   4.958  10.751
21965SOL     OW67726   6.139  10.174   8.788
21965SOL    HW167727   6.050  10.209   8.782
21965SOL    HW267728   6.127  10.079   8.786
21966SOL     OW67729  10.066   4.351  14.383
21966SOL    HW167730  10.058   4.445  14.368
21966SOL    HW267731   9.998   4.330  14.447
21967SOL     OW67732  14.273  10.277   0.010
21967SOL    HW167733  14.341  10.339   0.037
21967SOL    HW267734  14.295  10.196   0.056
21968SOL     OW67735  11.196  12.323   6.535
21968SOL    HW167736  11.219  12.265   6.607
21968SOL    HW267737  11.272  12.320   6.476
21969SOL     OW67738  14.642  10.868   9.227
21969SOL    HW167739  14.620  10.875   9.320
21969SOL    HW267740  14.566  10.826   9.187
21970SOL     OW67741   3.642   4.550  13.534
21970SOL    HW167742   3.703   4.509  13.472
21970SOL    HW267743   3.676   4.526  13.620
21971SOL     OW67744   7.850  12.341   7.790
21971SOL    HW167745   7.928  12.288   7.806
21971SOL    HW267746   7.809  12.351   7.876
21972SOL     OW67747  14.066   2.268  14.057
21972SOL    HW167748  14.005   2.195  14.067
21972SOL    HW267749  14.022   2.342  14.100
21973SOL     OW67750  10.325  14.617  10.038
21973SOL    HW167751  10.413  14.651  10.022
21973SOL    HW267752  10.323  14.599  10.132
21974SOL     OW67753  13.442  13.763  10.379
21974SOL    HW167754  13.358  13.752  10.422
21974SOL    HW267755  13.421  13.767  10.286
21975SOL     OW67756  13.438   4.388  14.437
21975SOL    HW167757  13.410   4.360  14.525
21975SOL    HW267758  13.510   4.330  14.415
21976SOL     OW67759   4.409   6.705   4.868
21976SOL    HW167760   4.367   6.638   4.921
21976SOL    HW267761   4.464   6.754   4.929
21977SOL     OW67762   3.691  10.044  13.163
21977SOL    HW167763   3.705   9.966  13.110
21977SOL    HW267764   3.690  10.116  13.101
21978SOL     OW67765   9.354   2.840  14.778
21978SOL    HW167766   9.431   2.808  14.825
21978SOL    HW267767   9.284   2.841  14.845
21979SOL     OW67768   1.127  10.527  12.284
21979SOL    HW167769   1.053  10.502  12.228
21979SOL    HW267770   1.175  10.592  12.232
21980SOL     OW67771   0.463  13.911  11.914
21980SOL    HW167772   0.527  13.981  11.920
21980SOL    HW267773   0.460  13.873  12.001
21981SOL     OW67774   7.276   6.978   2.586
21981SOL    HW167775   7.255   7.071   2.574
21981SOL    HW267776   7.332   6.976   2.664
21982SOL     OW67777  10.807   6.911   0.262
21982SOL    HW167778  10.832   6.990   0.214
21982SOL    HW267779  10.840   6.839   0.209
21983SOL     OW67780   8.343   9.875   1.949
21983SOL    HW167781   8.259   9.830   1.960
21983SOL    HW267782   8.407   9.817   1.990
21984SOL     OW67783  13.201  14.388  14.474
21984SOL    HW167784  13.272  14.412  14.533
21984SOL    HW267785  13.166  14.472  14.444
21985SOL     OW67786   2.059   5.049   1.106
21985SOL    HW167787   2.121   5.073   1.175
21985SOL    HW267788   2.113   5.040   1.027
21986SOL     OW67789   6.052   8.473   6.118
21986SOL    HW167790   6.103   8.450   6.196
21986SOL    HW267791   5.991   8.400   6.108
21987SOL     OW67792  14.795  14.752   6.992
21987SOL    HW167793  14.861  14.683   6.981
21987SOL    HW267794  14.752  14.731   7.075
21988SOL     OW67795   5.535  11.586  11.689
21988SOL    HW167796   5.617  11.613  11.648
21988SOL    HW267797   5.490  11.668  11.709
21989SOL     OW67798   0.199   4.622   7.407
21989SOL    HW167799   0.159   4.638   7.322
21989SOL    HW267800   0.291   4.643   7.395
21990SOL     OW67801   4.987   1.900   5.296
21990SOL    HW167802   5.027   1.984   5.271
21990SOL    HW267803   5.031   1.876   5.377
21991SOL     OW67804  12.980   4.973   3.574
21991SOL    HW167805  12.953   4.913   3.504
21991SOL    HW267806  12.899   5.015   3.603
21992SOL     OW67807  11.094   0.009  14.448
21992SOL    HW167808  11.118  14.801  14.424
21992SOL    HW267809  11.162   0.036  14.510
21993SOL     OW67810   8.331   3.354   6.156
21993SOL    HW167811   8.313   3.264   6.184
21993SOL    HW267812   8.246   3.388   6.129
21994SOL     OW67813   5.414  12.904   7.042
21994SOL    HW167814   5.390  12.984   6.995
21994SOL    HW267815   5.331  12.869   7.075
21995SOL     OW67816  11.837  10.338  14.598
21995SOL    HW167817  11.857  10.431  14.584
21995SOL    HW267818  11.922  10.299  14.618
21996SOL     OW67819  10.157   1.958  12.016
21996SOL    HW167820  10.131   2.041  12.056
21996SOL    HW267821  10.115   1.960  11.929
21997SOL     OW67822  13.675   1.086   1.615
21997SOL    HW167823  13.729   1.072   1.537
21997SOL    HW267824  13.705   1.020   1.677
21998SOL     OW67825   2.061   1.898   1.560
21998SOL    HW167826   2.157   1.894   1.556
21998SOL    HW267827   2.033   1.895   1.469
21999SOL     OW67828  12.360   2.764  11.965
21999SOL    HW167829  12.289   2.742  11.904
21999SOL    HW267830  12.389   2.851  11.938
22000SOL     OW67831  10.848  11.906   1.086
22000SOL    HW167832  10.935  11.878   1.117
22000SOL    HW267833  10.795  11.827   1.090
22001SOL     OW67834   4.285   2.419  14.197
22001SOL    HW167835   4.377   2.401  14.211
22001SOL    HW267836   4.242   2.392  14.278
22002SOL     OW67837  12.154   6.559   1.099
22002SOL    HW167838  12.219   6.595   1.159
22002SOL    HW267839  12.190   6.575   1.011
22003SOL     OW67840  10.351   4.042   5.343
22003SOL    HW167841  10.414   3.997   5.287
22003SOL    HW267842  10.385   4.031   5.432
22004SOL     OW67843  12.879   4.034   9.413
22004SOL    HW167844  12.917   3.952   9.382
22004SOL    HW267845  12.952   4.082   9.451
22005SOL     OW67846   6.230  10.705   6.845
22005SOL    HW167847   6.276  10.625   6.871
22005SOL    HW267848   6.138  10.686   6.864
22006SOL     OW67849   1.031   8.930  13.155
22006SOL    HW167850   1.118   8.905  13.124
22006SOL    HW267851   1.016   8.877  13.232
22007SOL     OW67852   0.769  10.410   9.894
22007SOL    HW167853   0.729  10.365   9.968
22007SOL    HW267854   0.697  10.424   9.833
22008SOL     OW67855   2.196  14.063  13.134
22008SOL    HW167856   2.201  13.980  13.181
22008SOL    HW267857   2.164  14.125  13.200
22009SOL     OW67858   8.978  14.850  14.649
22009SOL    HW167859   8.903  14.792  14.653
22009SOL    HW267860   9.034  14.823  14.721
22010SOL     OW67861  12.554   1.623   5.262
22010SOL    HW167862  12.468   1.609   5.222
22010SOL    HW267863  12.617   1.597   5.194
22011SOL     OW67864   8.356   1.439   8.894
22011SOL    HW167865   8.401   1.523   8.896
22011SOL    HW267866   8.418   1.379   8.851
22012SOL     OW67867   7.098   3.865  11.041
22012SOL    HW167868   7.138   3.921  10.975
22012SOL    HW267869   7.074   3.785  10.995
22013SOL     OW67870  10.352   4.950   7.253
22013SOL    HW167871  10.431   4.952   7.198
22013SOL    HW267872  10.340   4.858   7.275
22014SOL     OW67873   9.614  14.775   2.560
22014SOL    HW167874   9.576  14.845   2.508
22014SOL    HW267875   9.541  14.716   2.580
22015SOL     OW67876  11.224   7.045   0.606
22015SOL    HW167877  11.173   6.989   0.664
22015SOL    HW267878  11.189   7.133   0.620
22016SOL     OW67879   1.491   9.635   7.390
22016SOL    HW167880   1.555   9.698   7.425
22016SOL    HW267881   1.457   9.590   7.467
22017SOL     OW67882   8.716   7.437  11.867
22017SOL    HW167883   8.752   7.465  11.783
22017SOL    HW267884   8.636   7.489  11.878
22018SOL     OW67885  14.405   1.155   0.093
22018SOL    HW167886  14.327   1.206   0.114
22018SOL    HW267887  14.446   1.137   0.177
22019SOL     OW67888   2.326   1.818  12.781
22019SOL    HW167889   2.373   1.861  12.710
22019SOL    HW267890   2.358   1.860  12.861
22020SOL     OW67891   6.390   7.246   6.814
22020SOL    HW167892   6.431   7.281   6.735
22020SOL    HW267893   6.364   7.157   6.791
22021SOL     OW67894   8.911  10.554  10.817
22021SOL    HW167895   8.831  10.603  10.840
22021SOL    HW267896   8.961  10.551  10.899
22022SOL     OW67897   6.053   0.133  12.140
22022SOL    HW167898   6.086   0.176  12.219
22022SOL    HW267899   5.974   0.087  12.169
22023SOL     OW67900   3.014  14.237   8.955
22023SOL    HW167901   3.063  14.175   8.901
22023SOL    HW267902   3.027  14.207   9.045
22024SOL     OW67903  10.663   6.935   3.689
22024SOL    HW167904  10.725   6.927   3.616
22024SOL    HW267905  10.664   6.849   3.731
22025SOL     OW67906   6.799   4.659  11.984
22025SOL    HW167907   6.719   4.625  11.944
22025SOL    HW267908   6.856   4.583  11.993
22026SOL     OW67909  13.870   2.022   5.588
22026SOL    HW167910  13.926   1.955   5.627
22026SOL    HW267911  13.924   2.060   5.518
22027SOL     OW67912   7.888   3.641   6.273
22027SOL    HW167913   7.916   3.700   6.342
22027SOL    HW267914   7.918   3.683   6.192
22028SOL     OW67915  11.948  12.625   2.640
22028SOL    HW167916  11.969  12.533   2.656
22028SOL    HW267917  11.955  12.635   2.545
22029SOL     OW67918   7.829  10.193   1.691
22029SOL    HW167919   7.743  10.183   1.733
22029SOL    HW267920   7.851  10.286   1.704
22030SOL     OW67921   7.108   5.969  13.719
22030SOL    HW167922   7.149   5.973  13.806
22030SOL    HW267923   7.096   6.060  13.694
22031SOL     OW67924   4.924   0.857   5.259
22031SOL    HW167925   4.963   0.925   5.205
22031SOL    HW267926   4.845   0.898   5.296
22032SOL     OW67927   0.971  10.450  10.842
22032SOL    HW167928   0.915  10.450  10.765
22032SOL    HW267929   0.921  10.498  10.908
22033SOL     OW67930   5.127   0.960  10.287
22033SOL    HW167931   5.164   1.048  10.295
22033SOL    HW267932   5.076   0.962  10.207
22034SOL     OW67933   1.089   2.467   9.891
22034SOL    HW167934   1.053   2.389   9.848
22034SOL    HW267935   1.184   2.458   9.880
22035SOL     OW67936   0.285   5.307  13.934
22035SOL    HW167937   0.232   5.249  13.990
22035SOL    HW267938   0.236   5.389  13.932
22036SOL     OW67939  14.256   8.342   3.416
22036SOL    HW167940  14.191   8.280   3.382
22036SOL    HW267941  14.204   8.417   3.445
22037SOL     OW67942   0.157   3.050   7.872
22037SOL    HW167943   0.210   2.983   7.830
22037SOL    HW267944   0.201   3.132   7.849
22038SOL     OW67945   9.716  10.518   4.420
22038SOL    HW167946   9.656  10.568   4.475
22038SOL    HW267947   9.718  10.431   4.461
22039SOL     OW67948   2.812   0.413   5.176
22039SOL    HW167949   2.886   0.394   5.235
22039SOL    HW267950   2.836   0.371   5.094
22040SOL     OW67951  12.818   2.091   3.992
22040SOL    HW167952  12.865   2.145   3.929
22040SOL    HW267953  12.877   2.018   4.010
22041SOL     OW67954   3.593  10.377   5.187
22041SOL    HW167955   3.655  10.304   5.186
22041SOL    HW267956   3.585  10.403   5.095
22042SOL     OW67957  14.286  14.361   3.811
22042SOL    HW167958  14.197  14.335   3.786
22042SOL    HW267959  14.319  14.286   3.860
22043SOL     OW67960   3.315   7.211  10.450
22043SOL    HW167961   3.322   7.140  10.386
22043SOL    HW267962   3.279   7.170  10.528
22044SOL     OW67963   4.816   5.143   3.613
22044SOL    HW167964   4.840   5.229   3.580
22044SOL    HW267965   4.892   5.088   3.595
22045SOL     OW67966   4.473  10.959   4.963
22045SOL    HW167967   4.397  10.903   4.978
22045SOL    HW267968   4.491  10.951   4.869
22046SOL     OW67969  13.099  14.440  13.643
22046SOL    HW167970  13.069  14.354  13.613
22046SOL    HW267971  13.165  14.421  13.709
22047SOL     OW67972   3.137   1.637   8.987
22047SOL    HW167973   3.069   1.653   9.051
22047SOL    HW267974   3.215   1.618   9.039
22048SOL     OW67975   5.495   5.108   3.015
22048SOL    HW167976   5.460   5.194   2.993
22048SOL    HW267977   5.418   5.057   3.041
22049SOL     OW67978  14.094  12.429   4.048
22049SOL    HW167979  14.127  12.457   4.133
22049SOL    HW267980  14.164  12.375   4.011
22050SOL     OW67981  10.354  12.266   1.626
22050SOL    HW167982  10.343  12.171   1.623
22050SOL    HW267983  10.318  12.297   1.543
22051SOL     OW67984   4.256   4.071   0.367
22051SOL    HW167985   4.326   4.007   0.363
22051SOL    HW267986   4.186   4.035   0.313
22052SOL     OW67987   3.507   6.710  13.417
22052SOL    HW167988   3.432   6.759  13.452
22052SOL    HW267989   3.548   6.671  13.494
22053SOL     OW67990   5.839   4.964   1.281
22053SOL    HW167991   5.780   4.929   1.214
22053SOL    HW267992   5.787   5.030   1.326
22054SOL     OW67993  13.910   3.827   5.292
22054SOL    HW167994  13.953   3.910   5.274
22054SOL    HW267995  13.977   3.761   5.275
22055SOL     OW67996   2.013   1.767  14.417
22055SOL    HW167997   2.082   1.711  14.453
22055SOL    HW267998   2.023   1.760  14.322
22056SOL     OW67999   2.032   3.080   6.258
22056SOL    HW168000   2.046   3.074   6.353
22056SOL    HW268001   2.055   2.994   6.225
22057SOL     OW68002   1.448  13.221   4.579
22057SOL    HW168003   1.441  13.126   4.569
22057SOL    HW268004   1.427  13.255   4.492
22058SOL     OW68005   9.438   8.200  11.763
22058SOL    HW168006   9.352   8.160  11.762
22058SOL    HW268007   9.421   8.291  11.790
22059SOL     OW68008   9.762   0.411   0.691
22059SOL    HW168009   9.802   0.327   0.714
22059SOL    HW268010   9.726   0.444   0.774
22060SOL     OW68011   6.451   6.527   6.326
22060SOL    HW168012   6.491   6.577   6.254
22060SOL    HW268013   6.414   6.450   6.283
22061SOL     OW68014  12.973  12.611  13.394
22061SOL    HW168015  12.931  12.674  13.452
22061SOL    HW268016  13.044  12.574  13.447
22062SOL     OW68017  13.029   0.499   4.726
22062SOL    HW168018  13.005   0.556   4.653
22062SOL    HW268019  12.978   0.532   4.800
22063SOL     OW68020  12.824   4.644  12.618
22063SOL    HW168021  12.755   4.589  12.655
22063SOL    HW268022  12.818   4.726  12.668
22064SOL     OW68023   3.820   6.448   0.188
22064SOL    HW168024   3.830   6.430   0.095
22064SOL    HW268025   3.881   6.520   0.205
22065SOL     OW68026   7.472   4.298  10.735
22065SOL    HW168027   7.526   4.321  10.810
22065SOL    HW268028   7.455   4.381  10.692
22066SOL     OW68029  13.760  14.553   6.586
22066SOL    HW168030  13.722  14.626   6.537
22066SOL    HW268031  13.713  14.476   6.554
22067SOL     OW68032   0.463   4.518   7.079
22067SOL    HW168033   0.468   4.423   7.088
22067SOL    HW268034   0.394   4.532   7.014
22068SOL     OW68035  12.569   3.946  12.369
22068SOL    HW168036  12.630   3.892  12.420
22068SOL    HW268037  12.624   3.988  12.303
22069SOL     OW68038   8.662   5.650   4.154
22069SOL    HW168039   8.660   5.713   4.227
22069SOL    HW268040   8.754   5.649   4.127
22070SOL     OW68041   2.595   4.358  11.478
22070SOL    HW168042   2.648   4.284  11.449
22070SOL    HW268043   2.529   4.319  11.536
22071SOL     OW68044   5.881   3.988   7.374
22071SOL    HW168045   5.914   4.073   7.344
22071SOL    HW268046   5.959   3.933   7.380
22072SOL     OW68047   2.020   6.019   5.559
22072SOL    HW168048   1.948   6.044   5.501
22072SOL    HW268049   2.083   6.090   5.551
22073SOL     OW68050   1.913   9.065  14.308
22073SOL    HW168051   1.824   9.068  14.346
22073SOL    HW268052   1.914   8.985  14.256
22074SOL     OW68053  10.644   9.760   4.087
22074SOL    HW168054  10.625   9.853   4.096
22074SOL    HW268055  10.567   9.716   4.123
22075SOL     OW68056   8.982   1.927   5.939
22075SOL    HW168057   8.974   1.860   6.007
22075SOL    HW268058   9.067   1.909   5.897
22076SOL     OW68059   2.698  13.889   2.723
22076SOL    HW168060   2.772  13.854   2.673
22076SOL    HW268061   2.734  13.966   2.768
22077SOL     OW68062  11.629  13.942   1.599
22077SOL    HW168063  11.616  14.017   1.540
22077SOL    HW268064  11.609  13.976   1.686
22078SOL     OW68065   6.669  13.509   3.856
22078SOL    HW168066   6.718  13.439   3.900
22078SOL    HW268067   6.632  13.561   3.927
22079SOL     OW68068  14.790   2.256   6.515
22079SOL    HW168069  14.776   2.162   6.524
22079SOL    HW268070   0.003   2.265   6.506
22080SOL     OW68071   3.125  11.678   9.939
22080SOL    HW168072   3.219  11.679   9.958
22080SOL    HW268073   3.120  11.659   9.845
22081SOL     OW68074   6.173   7.443   1.788
22081SOL    HW168075   6.249   7.444   1.845
22081SOL    HW268076   6.098   7.443   1.848
22082SOL     OW68077  11.676   6.565   6.036
22082SOL    HW168078  11.611   6.629   6.007
22082SOL    HW268079  11.753   6.618   6.058
22083SOL     OW68080   0.059   5.913   9.076
22083SOL    HW168081   0.004   5.906   9.154
22083SOL    HW268082   0.007   5.873   9.007
22084SOL     OW68083  11.391   5.350   8.327
22084SOL    HW168084  11.477   5.309   8.340
22084SOL    HW268085  11.366   5.326   8.238
22085SOL     OW68086   9.835  10.345   7.149
22085SOL    HW168087   9.779  10.309   7.079
22085SOL    HW268088   9.922  10.311   7.130
22086SOL     OW68089   5.195   6.239  13.717
22086SOL    HW168090   5.164   6.177  13.782
22086SOL    HW268091   5.160   6.207  13.634
22087SOL     OW68092   9.444  13.761   2.765
22087SOL    HW168093   9.505  13.691   2.788
22087SOL    HW268094   9.496  13.841   2.772
22088SOL     OW68095   3.618  14.838  10.508
22088SOL    HW168096   3.684  14.861  10.442
22088SOL    HW268097   3.541   0.007  10.484
22089SOL     OW68098   1.702   5.687  13.362
22089SOL    HW168099   1.623   5.738  13.347
22089SOL    HW268100   1.688   5.606  13.312
22090SOL     OW68101   5.332  11.814  12.054
22090SOL    HW168102   5.255  11.775  12.096
22090SOL    HW268103   5.321  11.794  11.961
22091SOL     OW68104   5.899  11.700  14.600
22091SOL    HW168105   5.810  11.670  14.617
22091SOL    HW268106   5.946  11.621  14.574
22092SOL     OW68107  10.473   8.531   9.049
22092SOL    HW168108  10.391   8.482   9.046
22092SOL    HW268109  10.451   8.612   9.094
22093SOL     OW68110  14.434  11.035  12.331
22093SOL    HW168111  14.350  11.078  12.344
22093SOL    HW268112  14.420  10.945  12.362
22094SOL     OW68113  12.906  13.854   9.639
22094SOL    HW168114  12.888  13.780   9.697
22094SOL    HW268115  12.997  13.876   9.656
22095SOL     OW68116  14.198   5.446  13.325
22095SOL    HW168117  14.288   5.432  13.357
22095SOL    HW268118  14.208   5.456  13.231
22096SOL     OW68119   6.016  10.073  13.506
22096SOL    HW168120   5.935  10.077  13.557
22096SOL    HW268121   6.078  10.127  13.555
22097SOL     OW68122   0.669   7.459   3.628
22097SOL    HW168123   0.702   7.445   3.717
22097SOL    HW268124   0.748   7.468   3.575
22098SOL     OW68125   8.574  13.314   9.538
22098SOL    HW168126   8.618  13.294   9.456
22098SOL    HW268127   8.482  13.327   9.513
22099SOL     OW68128  11.838   4.811   2.033
22099SOL    HW168129  11.749   4.792   2.004
22099SOL    HW268130  11.839   4.785   2.125
22100SOL     OW68131   6.065  11.831  10.234
22100SOL    HW168132   6.153  11.799  10.214
22100SOL    HW268133   6.059  11.828  10.330
22101SOL     OW68134   5.602   6.540   6.539
22101SOL    HW168135   5.520   6.550   6.492
22101SOL    HW268136   5.654   6.480   6.485
22102SOL     OW68137   1.506   0.360   6.991
22102SOL    HW168138   1.581   0.418   6.989
22102SOL    HW268139   1.500   0.324   6.903
22103SOL     OW68140   1.640   3.573   2.624
22103SOL    HW168141   1.681   3.526   2.551
22103SOL    HW268142   1.592   3.644   2.582
22104SOL     OW68143   1.322  10.807   2.901
22104SOL    HW168144   1.248  10.799   2.842
22104SOL    HW268145   1.296  10.876   2.963
22105SOL     OW68146   2.458   7.808   5.110
22105SOL    HW168147   2.465   7.896   5.146
22105SOL    HW268148   2.364   7.793   5.101
22106SOL     OW68149   8.684   4.736   0.651
22106SOL    HW168150   8.663   4.690   0.732
22106SOL    HW268151   8.724   4.669   0.595
22107SOL     OW68152   6.461   7.955  11.899
22107SOL    HW168153   6.450   7.871  11.943
22107SOL    HW268154   6.420   7.943  11.814
22108SOL     OW68155   6.649  13.494   4.714
22108SOL    HW168156   6.643  13.521   4.805
22108SOL    HW268157   6.626  13.572   4.664
22109SOL     OW68158   1.353   8.012   5.605
22109SOL    HW168159   1.259   8.015   5.626
22109SOL    HW268160   1.396   8.021   5.690
22110SOL     OW68161   4.162   6.018  10.731
22110SOL    HW168162   4.204   5.931  10.731
22110SOL    HW268163   4.202   6.063  10.657
22111SOL     OW68164   6.463  11.196   7.020
22111SOL    HW168165   6.383  11.191   7.072
22111SOL    HW268166   6.467  11.112   6.974
22112SOL     OW68167  14.761  10.100   3.304
22112SOL    HW168168  14.784  10.093   3.211
22112SOL    HW268169  14.713  10.182   3.311
22113SOL     OW68170   7.444  14.762  14.818
22113SOL    HW168171   7.464  14.808   0.017
22113SOL    HW268172   7.518  14.780  14.760
22114SOL     OW68173   3.105   2.272  11.564
22114SOL    HW168174   3.132   2.311  11.647
22114SOL    HW268175   3.091   2.179  11.585
22115SOL     OW68176   4.828   0.837   4.292
22115SOL    HW168177   4.890   0.779   4.337
22115SOL    HW268178   4.769   0.867   4.361
22116SOL     OW68179  14.247  10.135   0.862
22116SOL    HW168180  14.180  10.074   0.832
22116SOL    HW268181  14.199  10.202   0.910
22117SOL     OW68182   8.531   6.022   3.840
22117SOL    HW168183   8.604   6.084   3.837
22117SOL    HW268184   8.470   6.054   3.773
22118SOL     OW68185   2.935  14.044  10.683
22118SOL    HW168186   2.863  14.054  10.621
22118SOL    HW268187   2.964  14.133  10.700
22119SOL     OW68188  12.817  11.027  11.432
22119SOL    HW168189  12.910  11.021  11.411
22119SOL    HW268190  12.779  11.073  11.357
22120SOL     OW68191   9.180  12.226  12.373
22120SOL    HW168192   9.152  12.229  12.282
22120SOL    HW268193   9.103  12.254  12.423
22121SOL     OW68194   3.955  13.087   3.748
22121SOL    HW168195   3.861  13.084   3.761
22121SOL    HW268196   3.987  13.146   3.816
22122SOL     OW68197   0.101  10.461   7.336
22122SOL    HW168198   0.181  10.410   7.350
22122SOL    HW268199   0.062  10.423   7.257
22123SOL     OW68200  10.882  11.619  14.273
22123SOL    HW168201  10.862  11.651  14.361
22123SOL    HW268202  10.967  11.659  14.252
22124SOL     OW68203  13.421   4.462   3.728
22124SOL    HW168204  13.398   4.515   3.805
22124SOL    HW268205  13.508   4.493   3.702
22125SOL     OW68206  11.454  13.643   0.695
22125SOL    HW168207  11.509  13.721   0.690
22125SOL    HW268208  11.508  13.572   0.659
22126SOL     OW68209  11.626   7.093   0.714
22126SOL    HW168210  11.611   7.186   0.696
22126SOL    HW268211  11.588   7.079   0.801
22127SOL     OW68212  13.342   1.494   6.887
22127SOL    HW168213  13.316   1.439   6.813
22127SOL    HW268214  13.261   1.511   6.935
22128SOL     OW68215   0.957  13.754   7.983
22128SOL    HW168216   0.918  13.737   7.898
22128SOL    HW268217   0.903  13.704   8.045
22129SOL     OW68218   4.724   4.976   4.442
22129SOL    HW168219   4.783   5.034   4.491
22129SOL    HW268220   4.636   5.005   4.467
22130SOL     OW68221  10.579   0.717   6.739
22130SOL    HW168222  10.614   0.672   6.816
22130SOL    HW268223  10.621   0.672   6.665
22131SOL     OW68224   6.374   5.301  13.357
22131SOL    HW168225   6.357   5.354  13.435
22131SOL    HW268226   6.454   5.253  13.378
22132SOL     OW68227  11.294   2.759   9.388
22132SOL    HW168228  11.263   2.795   9.304
22132SOL    HW268229  11.214   2.739   9.436
22133SOL     OW68230   1.308   7.275   1.025
22133SOL    HW168231   1.377   7.275   1.092
22133SOL    HW268232   1.295   7.368   1.005
22134SOL     OW68233   8.681  12.919   0.730
22134SOL    HW168234   8.723  12.930   0.815
22134SOL    HW268235   8.691  13.004   0.687
22135SOL     OW68236  10.870   8.380   0.471
22135SOL    HW168237  10.953   8.343   0.500
22135SOL    HW268238  10.829   8.412   0.551
22136SOL     OW68239   7.558   0.536  13.433
22136SOL    HW168240   7.582   0.473  13.501
22136SOL    HW268241   7.467   0.559  13.453
22137SOL     OW68242   7.913  14.684  13.471
22137SOL    HW168243   7.989  14.703  13.526
22137SOL    HW268244   7.947  14.629  13.401
22138SOL     OW68245  13.089  14.755   1.460
22138SOL    HW168246  13.165  14.698   1.472
22138SOL    HW268247  13.123  14.843   1.477
22139SOL     OW68248   1.990   6.373  10.463
22139SOL    HW168249   2.026   6.453  10.426
22139SOL    HW268250   1.949   6.328  10.389
22140SOL     OW68251   7.046   7.927   8.037
22140SOL    HW168252   7.010   7.844   8.068
22140SOL    HW268253   7.042   7.921   7.942
22141SOL     OW68254  13.779  12.723   5.312
22141SOL    HW168255  13.745  12.707   5.225
22141SOL    HW268256  13.867  12.685   5.310
22142SOL     OW68257   1.988  13.215   4.428
22142SOL    HW168258   1.946  13.284   4.479
22142SOL    HW268259   2.028  13.158   4.494
22143SOL     OW68260  13.525  11.326   1.571
22143SOL    HW168261  13.447  11.283   1.605
22143SOL    HW268262  13.536  11.403   1.626
22144SOL     OW68263   4.036  13.468   6.946
22144SOL    HW168264   3.972  13.401   6.922
22144SOL    HW268265   4.121  13.424   6.937
22145SOL     OW68266  10.762   1.555  10.814
22145SOL    HW168267  10.768   1.649  10.829
22145SOL    HW268268  10.781   1.516  10.900
22146SOL     OW68269  12.172   7.471  12.155
22146SOL    HW168270  12.156   7.446  12.063
22146SOL    HW268271  12.267   7.464  12.165
22147SOL     OW68272  11.386   8.418   2.510
22147SOL    HW168273  11.409   8.328   2.487
22147SOL    HW268274  11.430   8.433   2.594
22148SOL     OW68275   9.257   8.620  12.941
22148SOL    HW168276   9.282   8.556  13.008
22148SOL    HW268277   9.294   8.703  12.972
22149SOL     OW68278   5.736   2.228  14.126
22149SOL    HW168279   5.672   2.157  14.134
22149SOL    HW268280   5.789   2.204  14.050
22150SOL     OW68281   7.795   1.037   0.325
22150SOL    HW168282   7.888   1.056   0.313
22150SOL    HW268283   7.751   1.122   0.321
22151SOL     OW68284   2.356  12.183  12.486
22151SOL    HW168285   2.352  12.120  12.558
22151SOL    HW268286   2.444  12.172  12.449
22152SOL     OW68287  10.148   9.891   0.669
22152SOL    HW168288  10.102   9.832   0.730
22152SOL    HW268289  10.174   9.965   0.723
22153SOL     OW68290   1.049  13.789   4.064
22153SOL    HW168291   0.994  13.859   4.100
22153SOL    HW268292   1.063  13.729   4.138
22154SOL     OW68293  11.308   6.964   5.771
22154SOL    HW168294  11.347   7.051   5.775
22154SOL    HW268295  11.215   6.978   5.785
22155SOL     OW68296  13.401   7.384   8.261
22155SOL    HW168297  13.496   7.396   8.273
22155SOL    HW268298  13.377   7.449   8.195
22156SOL     OW68299   7.786   4.729   3.059
22156SOL    HW168300   7.868   4.699   3.021
22156SOL    HW268301   7.746   4.649   3.095
22157SOL     OW68302   7.466  10.386   1.988
22157SOL    HW168303   7.504  10.318   1.932
22157SOL    HW268304   7.416  10.337   2.053
22158SOL     OW68305  12.745   0.151   2.989
22158SOL    HW168306  12.744   0.055   2.982
22158SOL    HW268307  12.689   0.181   2.917
22159SOL     OW68308  12.062   9.735  10.445
22159SOL    HW168309  11.994   9.763  10.385
22159SOL    HW268310  12.134   9.796  10.430
22160SOL     OW68311   4.726   6.956  14.505
22160SOL    HW168312   4.753   7.010  14.580
22160SOL    HW268313   4.729   6.866  14.538
22161SOL     OW68314   9.207  11.090   7.103
22161SOL    HW168315   9.115  11.114   7.104
22161SOL    HW268316   9.253  11.174   7.095
22162SOL     OW68317   0.794  12.718  10.779
22162SOL    HW168318   0.742  12.797  10.791
22162SOL    HW268319   0.757  12.676  10.702
22163SOL     OW68320   3.040   0.191   6.043
22163SOL    HW168321   3.003   0.261   6.097
22163SOL    HW268322   3.082   0.132   6.106
22164SOL     OW68323  10.846  13.525   1.678
22164SOL    HW168324  10.863  13.551   1.587
22164SOL    HW268325  10.803  13.440   1.671
22165SOL     OW68326   9.042   9.896   4.742
22165SOL    HW168327   9.102   9.953   4.791
22165SOL    HW268328   8.965   9.888   4.797
22166SOL     OW68329  14.397   7.005   0.500
22166SOL    HW168330  14.393   6.989   0.405
22166SOL    HW268331  14.435   6.925   0.536
22167SOL     OW68332   7.362  13.919   4.354
22167SOL    HW168333   7.337  13.871   4.275
22167SOL    HW268334   7.283  13.918   4.408
22168SOL     OW68335   1.848  11.627   4.639
22168SOL    HW168336   1.875  11.637   4.547
22168SOL    HW268337   1.897  11.694   4.686
22169SOL     OW68338  11.329   3.859  12.312
22169SOL    HW168339  11.267   3.882  12.242
22169SOL    HW268340  11.283   3.794  12.364
22170SOL     OW68341   4.018  13.797   2.191
22170SOL    HW168342   4.001  13.731   2.259
22170SOL    HW268343   4.075  13.861   2.234
22171SOL     OW68344   5.203  12.799  11.210
22171SOL    HW168345   5.158  12.734  11.264
22171SOL    HW268346   5.241  12.861  11.273
22172SOL     OW68347  13.000   9.308  12.111
22172SOL    HW168348  12.917   9.308  12.063
22172SOL    HW268349  13.058   9.363  12.059
22173SOL     OW68350   4.815   5.972   2.602
22173SOL    HW168351   4.765   5.993   2.680
22173SOL    HW268352   4.894   5.928   2.635
22174SOL     OW68353   5.916  10.414  13.442
22174SOL    HW168354   5.900  10.346  13.376
22174SOL    HW268355   5.942  10.491  13.391
22175SOL     OW68356   3.002   8.230   5.161
22175SOL    HW168357   3.012   8.213   5.067
22175SOL    HW268358   3.086   8.267   5.187
22176SOL     OW68359   5.202  13.716   4.991
22176SOL    HW168360   5.219  13.637   4.940
22176SOL    HW268361   5.214  13.788   4.929
22177SOL     OW68362   3.551   0.647  14.642
22177SOL    HW168363   3.585   0.617  14.557
22177SOL    HW268364   3.532   0.567  14.690
22178SOL     OW68365   8.881   8.364   4.105
22178SOL    HW168366   8.958   8.326   4.147
22178SOL    HW268367   8.860   8.303   4.034
22179SOL     OW68368   5.208   4.016  12.152
22179SOL    HW168369   5.164   4.050  12.073
22179SOL    HW268370   5.169   3.930  12.166
22180SOL     OW68371   7.964   6.578   9.314
22180SOL    HW168372   8.017   6.653   9.287
22180SOL    HW268373   7.896   6.615   9.370
22181SOL     OW68374   0.903   5.326   3.674
22181SOL    HW168375   0.946   5.310   3.758
22181SOL    HW268376   0.947   5.404   3.639
22182SOL     OW68377   6.557   6.371   8.719
22182SOL    HW168378   6.471   6.376   8.761
22182SOL    HW268379   6.561   6.448   8.663
22183SOL     OW68380   1.052   1.304   3.037
22183SOL    HW168381   1.077   1.380   3.091
22183SOL    HW268382   0.962   1.322   3.011
22184SOL     OW68383  11.282   5.086  13.732
22184SOL    HW168384  11.195   5.050  13.750
22184SOL    HW268385  11.264   5.173  13.696
22185SOL     OW68386  12.830   6.455  10.974
22185SOL    HW168387  12.899   6.459  11.040
22185SOL    HW268388  12.829   6.363  10.947
22186SOL     OW68389   4.713   0.079  14.309
22186SOL    HW168390   4.628   0.120  14.324
22186SOL    HW268391   4.749   0.124  14.233
22187SOL     OW68392  14.731   1.938   6.955
22187SOL    HW168393  14.814   1.934   6.907
22187SOL    HW268394  14.736   1.865   7.017
22188SOL     OW68395   2.624   4.246  10.782
22188SOL    HW168396   2.664   4.328  10.810
22188SOL    HW268397   2.658   4.231  10.694
22189SOL     OW68398   6.242  14.848   3.232
22189SOL    HW168399   6.227  14.848   3.138
22189SOL    HW268400   6.282  14.763   3.250
22190SOL     OW68401  10.511  10.176   6.096
22190SOL    HW168402  10.471  10.263   6.092
22190SOL    HW268403  10.596  10.190   6.136
22191SOL     OW68404   7.700  11.988   8.196
22191SOL    HW168405   7.692  11.902   8.237
22191SOL    HW268406   7.709  11.969   8.102
22192SOL     OW68407   4.976   8.392   7.461
22192SOL    HW168408   4.900   8.371   7.407
22192SOL    HW268409   4.983   8.319   7.522
22193SOL     OW68410   9.873  13.335   8.083
22193SOL    HW168411   9.851  13.242   8.090
22193SOL    HW268412   9.806  13.380   8.135
22194SOL     OW68413   5.486  10.401   6.821
22194SOL    HW168414   5.487  10.382   6.915
22194SOL    HW268415   5.548  10.474   6.811
22195SOL     OW68416   1.136  11.184  11.414
22195SOL    HW168417   1.166  11.213  11.500
22195SOL    HW268418   1.168  11.094  11.407
22196SOL     OW68419   9.773   5.023   6.572
22196SOL    HW168420   9.786   4.930   6.553
22196SOL    HW268421   9.861   5.058   6.586
22197SOL     OW68422  12.936  14.313   0.235
22197SOL    HW168423  12.985  14.345   0.311
22197SOL    HW268424  12.844  14.315   0.263
22198SOL     OW68425   8.433  10.477  11.925
22198SOL    HW168426   8.444  10.567  11.955
22198SOL    HW268427   8.521  10.440  11.929
22199SOL     OW68428  11.641  13.609   1.550
22199SOL    HW168429  11.621  13.703   1.541
22199SOL    HW268430  11.730  13.607   1.585
22200SOL     OW68431   9.558   3.625   9.921
22200SOL    HW168432   9.476   3.656   9.959
22200SOL    HW268433   9.616   3.701   9.923
22201SOL     OW68434  14.054   4.609  11.640
22201SOL    HW168435  14.119   4.571  11.581
22201SOL    HW268436  14.019   4.684  11.592
22202SOL     OW68437   9.718   4.340  13.179
22202SOL    HW168438   9.780   4.312  13.246
22202SOL    HW268439   9.715   4.436  13.189
22203SOL     OW68440  11.521   3.065  14.475
22203SOL    HW168441  11.565   3.104  14.399
22203SOL    HW268442  11.570   2.985  14.492
22204SOL     OW68443   1.727   4.440  10.181
22204SOL    HW168444   1.739   4.410  10.271
22204SOL    HW268445   1.784   4.383  10.129
22205SOL     OW68446   2.666   0.371  12.980
22205SOL    HW168447   2.697   0.462  12.989
22205SOL    HW268448   2.638   0.347  13.068
22206SOL     OW68449  12.311   7.007   0.447
22206SOL    HW168450  12.323   7.101   0.444
22206SOL    HW268451  12.390   6.974   0.492
22207SOL     OW68452  11.518  14.320   7.602
22207SOL    HW168453  11.450  14.302   7.537
22207SOL    HW268454  11.600  14.294   7.560
22208SOL     OW68455   6.842   3.386   3.528
22208SOL    HW168456   6.834   3.318   3.595
22208SOL    HW268457   6.870   3.464   3.577
22209SOL     OW68458   9.687   7.560  14.444
22209SOL    HW168459   9.630   7.523  14.512
22209SOL    HW268460   9.634   7.629  14.405
22210SOL     OW68461   6.380   3.873   0.614
22210SOL    HW168462   6.439   3.948   0.617
22210SOL    HW268463   6.434   3.799   0.643
22211SOL     OW68464  11.288   3.045  13.498
22211SOL    HW168465  11.304   2.998  13.416
22211SOL    HW268466  11.198   3.023  13.521
22212SOL     OW68467   6.494   8.259  14.224
22212SOL    HW168468   6.511   8.241  14.317
22212SOL    HW268469   6.574   8.301  14.193
22213SOL     OW68470   5.615   7.554   4.469
22213SOL    HW168471   5.585   7.611   4.540
22213SOL    HW268472   5.678   7.607   4.420
22214SOL     OW68473   8.354   6.745   5.460
22214SOL    HW168474   8.292   6.800   5.507
22214SOL    HW268475   8.438   6.760   5.505
22215SOL     OW68476  13.542  10.122  12.359
22215SOL    HW168477  13.464  10.100  12.307
22215SOL    HW268478  13.577  10.037  12.386
22216SOL     OW68479  13.754   0.848   2.504
22216SOL    HW168480  13.736   0.870   2.595
22216SOL    HW268481  13.834   0.796   2.506
22217SOL     OW68482  11.397  13.667  11.552
22217SOL    HW168483  11.409  13.588  11.605
22217SOL    HW268484  11.416  13.640  11.462
22218SOL     OW68485  10.695   7.314   0.402
22218SOL    HW168486  10.670   7.332   0.311
22218SOL    HW268487  10.673   7.222   0.415
22219SOL     OW68488   8.992  14.027  11.258
22219SOL    HW168489   8.923  14.093  11.259
22219SOL    HW268490   8.974  13.974  11.181
22220SOL     OW68491   2.699   0.601   5.425
22220SOL    HW168492   2.769   0.609   5.490
22220SOL    HW268493   2.672   0.509   5.430
22221SOL     OW68494  10.355  10.817   5.212
22221SOL    HW168495  10.412  10.772   5.274
22221SOL    HW268496  10.331  10.898   5.257
22222SOL     OW68497   2.521  12.735   3.510
22222SOL    HW168498   2.426  12.732   3.519
22222SOL    HW268499   2.540  12.825   3.486
22223SOL     OW68500   4.122   8.653   1.359
22223SOL    HW168501   4.107   8.575   1.305
22223SOL    HW268502   4.035   8.676   1.393
22224SOL     OW68503  11.631   3.781   5.129
22224SOL    HW168504  11.596   3.853   5.182
22224SOL    HW268505  11.712   3.756   5.175
22225SOL     OW68506   2.665   9.227  11.807
22225SOL    HW168507   2.760   9.242  11.799
22225SOL    HW268508   2.626   9.313  11.791
22226SOL     OW68509   3.127   1.545  11.512
22226SOL    HW168510   3.059   1.612  11.511
22226SOL    HW268511   3.125   1.506  11.425
22227SOL     OW68512   7.142  11.443   3.784
22227SOL    HW168513   7.185  11.367   3.744
22227SOL    HW268514   7.091  11.407   3.856
22228SOL     OW68515  13.164  11.931   8.897
22228SOL    HW168516  13.205  11.950   8.813
22228SOL    HW268517  13.123  11.845   8.884
22229SOL     OW68518   9.118  11.624   4.044
22229SOL    HW168519   9.061  11.555   4.010
22229SOL    HW268520   9.060  11.677   4.099
22230SOL     OW68521   8.225  10.970   3.972
22230SOL    HW168522   8.207  10.923   4.054
22230SOL    HW268523   8.266  10.905   3.916
22231SOL     OW68524   0.788   3.262  11.308
22231SOL    HW168525   0.753   3.175  11.291
22231SOL    HW268526   0.728   3.322  11.264
22232SOL     OW68527   8.089   1.447   6.358
22232SOL    HW168528   8.120   1.383   6.422
22232SOL    HW268529   8.022   1.497   6.404
22233SOL     OW68530  12.885   7.494   4.444
22233SOL    HW168531  12.916   7.500   4.534
22233SOL    HW268532  12.876   7.400   4.427
22234SOL     OW68533   2.037  13.112   1.978
22234SOL    HW168534   2.093  13.088   1.905
22234SOL    HW268535   1.982  13.035   1.994
22235SOL     OW68536   4.489  11.744  13.592
22235SOL    HW168537   4.399  11.731  13.561
22235SOL    HW268538   4.494  11.837  13.614
22236SOL     OW68539   0.421  13.106   5.365
22236SOL    HW168540   0.504  13.142   5.395
22236SOL    HW268541   0.371  13.182   5.336
22237SOL     OW68542   4.723  13.100  10.031
22237SOL    HW168543   4.808  13.061  10.010
22237SOL    HW268544   4.731  13.191  10.004
22238SOL     OW68545   3.338   7.898   8.786
22238SOL    HW168546   3.278   7.915   8.714
22238SOL    HW268547   3.348   7.803   8.788
22239SOL     OW68548   0.435   7.021   0.003
22239SOL    HW168549   0.356   7.052  14.841
22239SOL    HW268550   0.402   6.969   0.076
22240SOL     OW68551  12.418  10.293   8.789
22240SOL    HW168552  12.402  10.198   8.788
22240SOL    HW268553  12.362  10.325   8.860
22241SOL     OW68554  10.025  12.598   5.290
22241SOL    HW168555   9.950  12.541   5.302
22241SOL    HW268556  10.013  12.637   5.204
22242SOL     OW68557   1.579  12.857  11.248
22242SOL    HW168558   1.520  12.818  11.312
22242SOL    HW268559   1.588  12.948  11.276
22243SOL     OW68560  12.232   2.497   9.866
22243SOL    HW168561  12.306   2.439   9.851
22243SOL    HW268562  12.215   2.491   9.960
22244SOL     OW68563  10.127  13.466   2.778
22244SOL    HW168564  10.174  13.392   2.816
22244SOL    HW268565  10.060  13.426   2.722
22245SOL     OW68566   0.896   2.496   4.162
22245SOL    HW168567   0.863   2.412   4.130
22245SOL    HW268568   0.819   2.538   4.200
22246SOL     OW68569   2.475   5.979  13.195
22246SOL    HW168570   2.531   6.029  13.255
22246SOL    HW268571   2.386   6.006  13.217
22247SOL     OW68572   4.689  10.066  13.818
22247SOL    HW168573   4.749  10.131  13.855
22247SOL    HW268574   4.727   9.982  13.845
22248SOL     OW68575   2.559   0.281   8.627
22248SOL    HW168576   2.615   0.286   8.550
22248SOL    HW268577   2.566   0.190   8.656
22249SOL     OW68578  11.751  12.190  14.111
22249SOL    HW168579  11.681  12.125  14.101
22249SOL    HW268580  11.719  12.249  14.180
22250SOL     OW68581   3.807  11.561   3.312
22250SOL    HW168582   3.859  11.484   3.289
22250SOL    HW268583   3.866  11.635   3.298
22251SOL     OW68584   4.464   8.741   4.790
22251SOL    HW168585   4.452   8.678   4.718
22251SOL    HW268586   4.532   8.801   4.758
22252SOL     OW68587   9.992   1.924  11.753
22252SOL    HW168588  10.037   1.946  11.671
22252SOL    HW268589   9.901   1.908  11.728
22253SOL     OW68590   6.246   9.643   3.908
22253SOL    HW168591   6.314   9.606   3.853
22253SOL    HW268592   6.165   9.605   3.875
22254SOL     OW68593  10.193  12.001   3.867
22254SOL    HW168594  10.176  11.909   3.884
22254SOL    HW268595  10.186  12.010   3.772
22255SOL     OW68596   8.975   6.422   7.540
22255SOL    HW168597   8.998   6.484   7.609
22255SOL    HW268598   9.039   6.351   7.550
22256SOL     OW68599  14.090   4.421   8.469
22256SOL    HW168600  14.135   4.338   8.485
22256SOL    HW268601  14.160   4.487   8.473
22257SOL     OW68602   5.801  12.785  10.050
22257SOL    HW168603   5.889  12.793  10.085
22257SOL    HW268604   5.813  12.748   9.962
22258SOL     OW68605  10.201   0.475  12.854
22258SOL    HW168606  10.212   0.547  12.917
22258SOL    HW268607  10.126   0.502  12.800
22259SOL     OW68608   0.445   1.234  14.611
22259SOL    HW168609   0.399   1.155  14.583
22259SOL    HW268610   0.417   1.247  14.701
22260SOL     OW68611   1.528   1.267   9.574
22260SOL    HW168612   1.487   1.348   9.603
22260SOL    HW268613   1.485   1.246   9.492
22261SOL     OW68614   1.810   9.390  10.461
22261SOL    HW168615   1.750   9.425  10.395
22261SOL    HW268616   1.876   9.458  10.474
22262SOL     OW68617   3.099  13.522   6.248
22262SOL    HW168618   3.129  13.455   6.309
22262SOL    HW268619   3.116  13.484   6.161
22263SOL     OW68620   4.939   8.853   2.551
22263SOL    HW168621   4.897   8.859   2.637
22263SOL    HW268622   5.009   8.789   2.564
22264SOL     OW68623   4.355  10.304  13.786
22264SOL    HW168624   4.313  10.289  13.871
22264SOL    HW268625   4.329  10.230  13.732
22265SOL     OW68626  12.478   1.237  10.754
22265SOL    HW168627  12.532   1.236  10.675
22265SOL    HW268628  12.405   1.295  10.732
22266SOL     OW68629   1.382   6.050   7.200
22266SOL    HW168630   1.385   6.145   7.186
22266SOL    HW268631   1.443   6.014   7.136
22267SOL     OW68632  10.748   0.237  14.350
22267SOL    HW168633  10.774   0.244  14.441
22267SOL    HW268634  10.784   0.153  14.321
22268SOL     OW68635  11.669   4.043   1.749
22268SOL    HW168636  11.617   4.120   1.769
22268SOL    HW268637  11.759   4.070   1.765
22269SOL     OW68638   2.799   4.439   7.256
22269SOL    HW168639   2.705   4.452   7.267
22269SOL    HW268640   2.812   4.438   7.161
22270SOL     OW68641   3.426  10.449   7.064
22270SOL    HW168642   3.465  10.362   7.063
22270SOL    HW268643   3.364  10.447   7.137
22271SOL     OW68644   5.156   6.803   0.966
22271SOL    HW168645   5.109   6.821   1.048
22271SOL    HW268646   5.089   6.806   0.898
22272SOL     OW68647   0.667   6.193   2.737
22272SOL    HW168648   0.679   6.168   2.645
22272SOL    HW268649   0.572   6.196   2.749
22273SOL     OW68650   1.118  12.267   7.250
22273SOL    HW168651   1.176  12.332   7.288
22273SOL    HW268652   1.052  12.251   7.318
22274SOL     OW68653   7.573  12.291   1.218
22274SOL    HW168654   7.504  12.225   1.227
22274SOL    HW268655   7.653  12.240   1.209
22275SOL     OW68656   1.299   1.373   6.055
22275SOL    HW168657   1.352   1.393   5.978
22275SOL    HW268658   1.236   1.445   6.060
22276SOL     OW68659   2.659   3.470   0.662
22276SOL    HW168660   2.644   3.479   0.568
22276SOL    HW268661   2.637   3.556   0.698
22277SOL     OW68662  11.629  11.946   8.716
22277SOL    HW168663  11.705  12.002   8.701
22277SOL    HW268664  11.653  11.862   8.677
22278SOL     OW68665   8.717   5.693   8.930
22278SOL    HW168666   8.749   5.657   8.848
22278SOL    HW268667   8.795   5.720   8.978
22279SOL     OW68668   6.829   8.950   2.838
22279SOL    HW168669   6.886   8.885   2.880
22279SOL    HW268670   6.785   8.993   2.911
22280SOL     OW68671   3.202  11.503   0.129
22280SOL    HW168672   3.201  11.582   0.184
22280SOL    HW268673   3.224  11.433   0.190
22281SOL     OW68674   4.962   6.456  10.769
22281SOL    HW168675   4.875   6.459  10.730
22281SOL    HW268676   4.986   6.548  10.782
22282SOL     OW68677   1.592   0.463   1.833
22282SOL    HW168678   1.644   0.428   1.906
22282SOL    HW268679   1.647   0.531   1.795
22283SOL     OW68680   1.707  14.254  10.291
22283SOL    HW168681   1.717  14.274  10.384
22283SOL    HW268682   1.779  14.195  10.271
22284SOL     OW68683  10.389   7.892   6.850
22284SOL    HW168684  10.302   7.880   6.889
22284SOL    HW268685  10.392   7.985   6.828
22285SOL     OW68686  10.539   4.733  12.174
22285SOL    HW168687  10.518   4.825  12.191
22285SOL    HW268688  10.625   4.736  12.132
22286SOL     OW68689   5.860   3.396   7.095
22286SOL    HW168690   5.910   3.443   7.162
22286SOL    HW268691   5.847   3.460   7.025
22287SOL     OW68692   3.264   4.750  12.081
22287SOL    HW168693   3.326   4.696  12.130
22287SOL    HW268694   3.304   4.762  11.995
22288SOL     OW68695   3.473   5.432  14.199
22288SOL    HW168696   3.475   5.456  14.292
22288SOL    HW268697   3.450   5.513  14.154
22289SOL     OW68698  12.606   7.288  13.647
22289SOL    HW168699  12.682   7.303  13.591
22289SOL    HW268700  12.614   7.198  13.676
22290SOL     OW68701   3.787   2.053  12.343
22290SOL    HW168702   3.808   2.029  12.434
22290SOL    HW268703   3.838   1.991  12.290
22291SOL     OW68704  12.308   6.036   2.382
22291SOL    HW168705  12.339   5.992   2.303
22291SOL    HW268706  12.382   6.031   2.442
22292SOL     OW68707   1.799  12.738  11.150
22292SOL    HW168708   1.716  12.774  11.181
22292SOL    HW268709   1.800  12.759  11.056
22293SOL     OW68710   0.805  11.070   8.832
22293SOL    HW168711   0.719  11.028   8.825
22293SOL    HW268712   0.866  11.003   8.802
22294SOL     OW68713  10.460   1.414   8.994
22294SOL    HW168714  10.463   1.340   9.055
22294SOL    HW268715  10.485   1.489   9.047
22295SOL     OW68716   3.810   9.350   8.740
22295SOL    HW168717   3.837   9.323   8.652
22295SOL    HW268718   3.893   9.362   8.787
22296SOL     OW68719  14.482  14.265  11.491
22296SOL    HW168720  14.471  14.206  11.416
22296SOL    HW268721  14.476  14.208  11.567
22297SOL     OW68722  12.397   9.078  13.917
22297SOL    HW168723  12.347   9.026  13.854
22297SOL    HW268724  12.429   9.153  13.866
22298SOL     OW68725   5.832   4.579  13.093
22298SOL    HW168726   5.858   4.517  13.161
22298SOL    HW268727   5.910   4.589  13.038
22299SOL     OW68728   1.190  11.411   2.323
22299SOL    HW168729   1.237  11.372   2.250
22299SOL    HW268730   1.176  11.502   2.297
22300SOL     OW68731  13.237   6.488  12.464
22300SOL    HW168732  13.272   6.432  12.534
22300SOL    HW268733  13.147   6.507  12.491
22301SOL     OW68734  11.586  12.928   7.481
22301SOL    HW168735  11.644  12.992   7.440
22301SOL    HW268736  11.502  12.973   7.490
22302SOL     OW68737   4.948   7.432   4.268
22302SOL    HW168738   5.012   7.382   4.318
22302SOL    HW268739   4.908   7.491   4.332
22303SOL     OW68740   5.849   7.418  12.682
22303SOL    HW168741   5.754   7.415  12.674
22303SOL    HW268742   5.868   7.365  12.760
22304SOL     OW68743   4.772   9.927  14.413
22304SOL    HW168744   4.681   9.901  14.425
22304SOL    HW268745   4.770   9.980  14.332
22305SOL     OW68746  13.939   1.983  11.115
22305SOL    HW168747  13.996   1.962  11.189
22305SOL    HW268748  13.979   1.938  11.041
22306SOL     OW68749   8.131  13.684  12.773
22306SOL    HW168750   8.058  13.705  12.831
22306SOL    HW268751   8.198  13.648  12.831
22307SOL     OW68752   9.758  13.331  10.229
22307SOL    HW168753   9.810  13.285  10.163
22307SOL    HW268754   9.669  13.331  10.194
22308SOL     OW68755   0.779   8.415   3.556
22308SOL    HW168756   0.850   8.462   3.600
22308SOL    HW268757   0.702   8.429   3.612
22309SOL     OW68758   8.903   3.527   5.342
22309SOL    HW168759   8.926   3.609   5.387
22309SOL    HW268760   8.971   3.518   5.275
22310SOL     OW68761   2.327   9.643  10.747
22310SOL    HW168762   2.263   9.700  10.703
22310SOL    HW268763   2.274   9.585  10.801
22311SOL     OW68764  14.361  11.436   5.767
22311SOL    HW168765  14.410  11.477   5.838
22311SOL    HW268766  14.276  11.415   5.805
22312SOL     OW68767   5.578   3.666   5.790
22312SOL    HW168768   5.605   3.619   5.711
22312SOL    HW268769   5.484   3.681   5.779
22313SOL     OW68770   2.345   5.017   0.816
22313SOL    HW168771   2.408   5.009   0.744
22313SOL    HW268772   2.279   4.949   0.798
22314SOL     OW68773  13.115  10.738  10.044
22314SOL    HW168774  13.114  10.644  10.061
22314SOL    HW268775  13.207  10.763  10.048
22315SOL     OW68776   8.296  11.052   8.037
22315SOL    HW168777   8.333  11.088   8.118
22315SOL    HW268778   8.366  10.998   8.001
22316SOL     OW68779   9.071   3.536  13.520
22316SOL    HW168780   9.039   3.622  13.551
22316SOL    HW268781   8.994   3.479  13.528
22317SOL     OW68782   2.629   9.213   2.622
22317SOL    HW168783   2.567   9.274   2.581
22317SOL    HW268784   2.574   9.155   2.674
22318SOL     OW68785  12.491  13.749  13.235
22318SOL    HW168786  12.551  13.725  13.164
22318SOL    HW268787  12.438  13.670  13.249
22319SOL     OW68788   9.808   8.583   4.158
22319SOL    HW168789   9.791   8.658   4.215
22319SOL    HW268790   9.899   8.592   4.133
22320SOL     OW68791   1.489   8.124  13.816
22320SOL    HW168792   1.519   8.070  13.744
22320SOL    HW268793   1.548   8.199  13.817
22321SOL     OW68794  10.029  11.417  13.241
22321SOL    HW168795   9.952  11.365  13.265
22321SOL    HW268796  10.091  11.353  13.207
22322SOL     OW68797   4.253  11.690   8.184
22322SOL    HW168798   4.247  11.603   8.224
22322SOL    HW268799   4.314  11.738   8.240
22323SOL     OW68800   5.071   5.082  14.215
22323SOL    HW168801   5.069   5.014  14.147
22323SOL    HW268802   4.979   5.099  14.235
22324SOL     OW68803  10.902   1.873   7.967
22324SOL    HW168804  10.971   1.827   7.920
22324SOL    HW268805  10.938   1.961   7.983
22325SOL     OW68806  14.677  13.235   9.961
22325SOL    HW168807  14.641  13.155   9.924
22325SOL    HW268808  14.646  13.304   9.902
22326SOL     OW68809  11.875  12.063   8.675
22326SOL    HW168810  11.877  12.147   8.721
22326SOL    HW268811  11.933  12.074   8.600
22327SOL     OW68812   5.232   5.089  14.652
22327SOL    HW168813   5.244   5.024  14.721
22327SOL    HW268814   5.217   5.038  14.572
22328SOL     OW68815   4.621   6.233  10.626
22328SOL    HW168816   4.714   6.217  10.607
22328SOL    HW268817   4.612   6.329  10.620
22329SOL     OW68818   1.348   2.974   3.337
22329SOL    HW168819   1.429   2.956   3.289
22329SOL    HW268820   1.377   3.000   3.424
22330SOL     OW68821  11.451   9.886   1.152
22330SOL    HW168822  11.405   9.879   1.068
22330SOL    HW268823  11.417   9.813   1.204
22331SOL     OW68824   3.025   3.244   4.420
22331SOL    HW168825   3.034   3.251   4.515
22331SOL    HW268826   3.083   3.311   4.385
22332SOL     OW68827   2.489   6.787   0.380
22332SOL    HW168828   2.468   6.783   0.286
22332SOL    HW268829   2.418   6.840   0.417
22333SOL     OW68830   0.224   4.757  11.882
22333SOL    HW168831   0.173   4.783  11.805
22333SOL    HW268832   0.305   4.720  11.847
22334SOL     OW68833  11.993  12.339   1.344
22334SOL    HW168834  11.993  12.246   1.320
22334SOL    HW268835  11.961  12.384   1.266
22335SOL     OW68836  14.055  10.217   3.835
22335SOL    HW168837  14.019  10.244   3.750
22335SOL    HW268838  13.978  10.207   3.891
22336SOL     OW68839   6.817   2.630   8.931
22336SOL    HW168840   6.897   2.669   8.895
22336SOL    HW268841   6.785   2.572   8.863
22337SOL     OW68842   1.108   5.349  11.829
22337SOL    HW168843   1.056   5.335  11.908
22337SOL    HW268844   1.152   5.266  11.814
22338SOL     OW68845   2.352   7.302   4.342
22338SOL    HW168846   2.374   7.237   4.275
22338SOL    HW268847   2.346   7.251   4.423
22339SOL     OW68848   9.032   0.786  13.652
22339SOL    HW168849   8.975   0.853  13.615
22339SOL    HW268850   9.040   0.720  13.583
22340SOL     OW68851   3.329   1.299   6.882
22340SOL    HW168852   3.347   1.215   6.838
22340SOL    HW268853   3.384   1.362   6.835
22341SOL     OW68854  11.444   6.897   5.382
22341SOL    HW168855  11.361   6.895   5.430
22341SOL    HW268856  11.447   6.812   5.337
22342SOL     OW68857   3.786   4.244  10.940
22342SOL    HW168858   3.725   4.215  11.008
22342SOL    HW268859   3.730   4.274  10.869
22343SOL     OW68860   7.345  13.367  14.131
22343SOL    HW168861   7.403  13.408  14.068
22343SOL    HW268862   7.285  13.314  14.078
22344SOL     OW68863   4.947  12.522   3.020
22344SOL    HW168864   4.852  12.518   3.019
22344SOL    HW268865   4.974  12.447   3.074
22345SOL     OW68866   8.195  10.708   6.200
22345SOL    HW168867   8.263  10.752   6.250
22345SOL    HW268868   8.173  10.631   6.253
22346SOL     OW68869   0.175   3.114  12.797
22346SOL    HW168870   0.196   3.023  12.776
22346SOL    HW268871   0.096   3.109  12.850
22347SOL     OW68872   0.131  10.702  11.076
22347SOL    HW168873   0.153  10.684  10.984
22347SOL    HW268874   0.215  10.695  11.122
22348SOL     OW68875   5.768   7.999   7.383
22348SOL    HW168876   5.731   8.032   7.302
22348SOL    HW268877   5.755   8.070   7.446
22349SOL     OW68878   7.076   3.284   5.293
22349SOL    HW168879   7.134   3.240   5.230
22349SOL    HW268880   7.109   3.258   5.379
22350SOL     OW68881  11.232   5.362   4.381
22350SOL    HW168882  11.324   5.337   4.376
22350SOL    HW268883  11.233   5.448   4.423
22351SOL     OW68884   2.169   6.119   6.063
22351SOL    HW168885   2.073   6.118   6.062
22351SOL    HW268886   2.193   6.186   5.999
22352SOL     OW68887   0.015   4.587   1.046
22352SOL    HW168888  14.835   4.638   0.993
22352SOL    HW268889  14.866   4.599   1.136
22353SOL     OW68890  13.712   2.147   2.809
22353SOL    HW168891  13.626   2.189   2.802
22353SOL    HW268892  13.691   2.056   2.829
22354SOL     OW68893   9.081   8.586   6.093
22354SOL    HW168894   9.085   8.510   6.035
22354SOL    HW268895   9.004   8.635   6.063
22355SOL     OW68896   4.791   9.995   0.297
22355SOL    HW168897   4.819   9.909   0.327
22355SOL    HW268898   4.872  10.044   0.282
22356SOL     OW68899  14.773  13.598   2.476
22356SOL    HW168900  14.848  13.576   2.420
22356SOL    HW268901  14.775  13.693   2.483
22357SOL     OW68902   6.831   4.437  10.921
22357SOL    HW168903   6.783   4.476  10.847
22357SOL    HW268904   6.870   4.357  10.885
22358SOL     OW68905   8.279   6.886  13.265
22358SOL    HW168906   8.199   6.834  13.272
22358SOL    HW268907   8.320   6.878  13.351
22359SOL     OW68908  11.609   9.526  10.474
22359SOL    HW168909  11.515   9.538  10.489
22359SOL    HW268910  11.646   9.613  10.485
22360SOL     OW68911   4.130   4.282  14.519
22360SOL    HW168912   4.049   4.321  14.551
22360SOL    HW268913   4.151   4.333  14.440
22361SOL     OW68914   9.515   0.909  14.770
22361SOL    HW168915   9.472   0.952  14.696
22361SOL    HW268916   9.543   0.824  14.735
22362SOL     OW68917   9.096   5.416   3.457
22362SOL    HW168918   9.146   5.335   3.457
22362SOL    HW268919   9.160   5.484   3.437
22363SOL     OW68920   6.078   3.863   0.152
22363SOL    HW168921   6.167   3.860   0.188
22363SOL    HW268922   6.049   3.771   0.154
22364SOL     OW68923  12.230  12.387  12.312
22364SOL    HW168924  12.235  12.399  12.217
22364SOL    HW268925  12.195  12.299  12.324
22365SOL     OW68926   0.262   6.700   1.929
22365SOL    HW168927   0.318   6.760   1.978
22365SOL    HW268928   0.276   6.615   1.971
22366SOL     OW68929   0.705   5.630   4.428
22366SOL    HW168930   0.665   5.705   4.472
22366SOL    HW268931   0.643   5.559   4.439
22367SOL     OW68932  14.491   4.664  13.932
22367SOL    HW168933  14.472   4.579  13.894
22367SOL    HW268934  14.569   4.695  13.885
22368SOL     OW68935   0.008   1.851   1.681
22368SOL    HW168936   0.061   1.896   1.615
22368SOL    HW268937  14.805   1.839   1.640
22369SOL     OW68938   9.655  11.436   2.323
22369SOL    HW168939   9.621  11.507   2.377
22369SOL    HW268940   9.709  11.479   2.257
22370SOL     OW68941   5.810   5.419   7.868
22370SOL    HW168942   5.847   5.340   7.831
22370SOL    HW268943   5.874   5.449   7.933
22371SOL     OW68944  13.273  11.264   8.474
22371SOL    HW168945  13.247  11.178   8.442
22371SOL    HW268946  13.331  11.246   8.547
22372SOL     OW68947   5.109   0.043  12.873
22372SOL    HW168948   5.145   0.129  12.894
22372SOL    HW268949   5.079   0.008  12.957
22373SOL     OW68950  12.333   6.040  10.150
22373SOL    HW168951  12.385   6.034  10.230
22373SOL    HW268952  12.327   5.950  10.118
22374SOL     OW68953  12.871  12.775   0.864
22374SOL    HW168954  12.898  12.856   0.820
22374SOL    HW268955  12.788  12.797   0.906
22375SOL     OW68956   8.123   9.702   6.032
22375SOL    HW168957   8.122   9.676   6.124
22375SOL    HW268958   8.189   9.771   6.028
22376SOL     OW68959  10.771   7.641   6.860
22376SOL    HW168960  10.779   7.576   6.930
22376SOL    HW268961  10.727   7.715   6.901
22377SOL     OW68962   0.749   7.856  13.072
22377SOL    HW168963   0.765   7.785  13.134
22377SOL    HW268964   0.654   7.859  13.062
22378SOL     OW68965   8.180   6.824   6.769
22378SOL    HW168966   8.126   6.771   6.711
22378SOL    HW268967   8.117   6.868   6.826
22379SOL     OW68968   2.844   0.298   9.623
22379SOL    HW168969   2.922   0.341   9.586
22379SOL    HW268970   2.873   0.209   9.643
22380SOL     OW68971   2.526   5.165  14.034
22380SOL    HW168972   2.434   5.190  14.042
22380SOL    HW268973   2.527   5.071  14.053
22381SOL     OW68974   0.871   8.242   7.839
22381SOL    HW168975   0.877   8.239   7.934
22381SOL    HW268976   0.835   8.156   7.814
22382SOL     OW68977   3.745   8.842   6.828
22382SOL    HW168978   3.679   8.781   6.861
22382SOL    HW268979   3.827   8.810   6.866
22383SOL     OW68980   1.977   9.636   8.520
22383SOL    HW168981   2.007   9.699   8.585
22383SOL    HW268982   2.029   9.655   8.442
22384SOL     OW68983  11.780   3.962   7.548
22384SOL    HW168984  11.805   4.054   7.534
22384SOL    HW268985  11.727   3.940   7.471
22385SOL     OW68986   3.797   7.902   3.826
22385SOL    HW168987   3.832   7.905   3.737
22385SOL    HW268988   3.873   7.910   3.883
22386SOL     OW68989  11.561   3.321  14.603
22386SOL    HW168990  11.581   3.403  14.558
22386SOL    HW268991  11.569   3.254  14.536
22387SOL     OW68992  10.573   6.887  14.669
22387SOL    HW168993  10.520   6.907  14.592
22387SOL    HW268994  10.558   6.961  14.728
22388SOL     OW68995   3.194   1.861   0.233
22388SOL    HW168996   3.099   1.860   0.221
22388SOL    HW268997   3.210   1.937   0.289
22389SOL     OW68998   3.988  13.463  14.012
22389SOL    HW168999   3.955  13.551  13.992
22389SOL    HW269000   4.083  13.473  14.012
22390SOL     OW69001  14.639   9.418   5.990
22390SOL    HW169002  14.720   9.459   6.021
22390SOL    HW269003  14.662   9.381   5.904
22391SOL     OW69004  12.871  14.302  13.821
22391SOL    HW169005  12.867  14.398  13.825
22391SOL    HW269006  12.880  14.283  13.727
22392SOL     OW69007   1.131   2.406   5.426
22392SOL    HW169008   1.093   2.455   5.353
22392SOL    HW269009   1.096   2.449   5.504
22393SOL     OW69010   7.460  11.050   8.985
22393SOL    HW169011   7.473  11.144   8.996
22393SOL    HW269012   7.547  11.012   9.000
22394SOL     OW69013  11.266   0.907  11.046
22394SOL    HW169014  11.188   0.858  11.023
22394SOL    HW269015  11.237   0.998  11.050
22395SOL     OW69016   4.369  11.964   2.224
22395SOL    HW169017   4.452  11.929   2.193
22395SOL    HW269018   4.371  12.057   2.199
22396SOL     OW69019   7.992   7.645  10.687
22396SOL    HW169020   7.982   7.631  10.593
22396SOL    HW269021   8.032   7.732  10.694
22397SOL     OW69022   8.844  11.898   9.815
22397SOL    HW169023   8.777  11.907   9.747
22397SOL    HW269024   8.817  11.820   9.864
22398SOL     OW69025   7.656   3.057  10.609
22398SOL    HW169026   7.726   2.997  10.582
22398SOL    HW269027   7.585   3.041  10.547
22399SOL     OW69028   8.170   8.462   1.451
22399SOL    HW169029   8.085   8.471   1.409
22399SOL    HW269030   8.151   8.465   1.545
22400SOL     OW69031  12.575   7.271  14.813
22400SOL    HW169032  12.502   7.240  14.759
22400SOL    HW269033  12.567   7.222   0.013
22401SOL     OW69034   1.020   9.448   2.775
22401SOL    HW169035   0.980   9.497   2.704
22401SOL    HW269036   1.070   9.379   2.732
22402SOL     OW69037   7.496  12.200  13.300
22402SOL    HW169038   7.561  12.131  13.288
22402SOL    HW269039   7.462  12.186  13.388
22403SOL     OW69040  14.606   4.864   3.692
22403SOL    HW169041  14.674   4.799   3.711
22403SOL    HW269042  14.653   4.947   3.687
22404SOL     OW69043   2.992   6.011  11.612
22404SOL    HW169044   3.088   6.014  11.619
22404SOL    HW269045   2.976   5.952  11.539
22405SOL     OW69046  13.976   9.027   2.962
22405SOL    HW169047  13.970   9.048   2.868
22405SOL    HW269048  14.010   8.937   2.964
22406SOL     OW69049  10.694   9.994   4.403
22406SOL    HW169050  10.772   9.947   4.373
22406SOL    HW269051  10.634   9.925   4.430
22407SOL     OW69052  11.426   2.216   8.644
22407SOL    HW169053  11.419   2.185   8.554
22407SOL    HW269054  11.413   2.311   8.638
22408SOL     OW69055   0.490  12.056   5.330
22408SOL    HW169056   0.495  11.966   5.300
22408SOL    HW269057   0.525  12.108   5.258
22409SOL     OW69058   5.146   1.486   8.125
22409SOL    HW169059   5.052   1.478   8.141
22409SOL    HW269060   5.152   1.533   8.042
22410SOL     OW69061  10.492   5.811   2.281
22410SOL    HW169062  10.435   5.864   2.225
22410SOL    HW269063  10.521   5.739   2.224
22411SOL     OW69064  12.360   6.428  10.139
22411SOL    HW169065  12.337   6.513  10.102
22411SOL    HW269066  12.277   6.389  10.164
22412SOL     OW69067   7.576   3.302  13.333
22412SOL    HW169068   7.539   3.388  13.351
22412SOL    HW269069   7.501   3.242  13.342
22413SOL     OW69070   0.325   5.492   2.540
22413SOL    HW169071   0.262   5.426   2.514
22413SOL    HW269072   0.289   5.530   2.620
22414SOL     OW69073  10.305   9.797   3.624
22414SOL    HW169074  10.390   9.761   3.601
22414SOL    HW269075  10.308   9.806   3.720
22415SOL     OW69076   8.013  13.759   5.967
22415SOL    HW169077   8.087  13.777   5.909
22415SOL    HW269078   7.938  13.797   5.921
22416SOL     OW69079   8.156   6.906  12.789
22416SOL    HW169080   8.129   6.937  12.876
22416SOL    HW269081   8.192   6.984  12.746
22417SOL     OW69082  11.561  14.359   2.714
22417SOL    HW169083  11.489  14.296   2.715
22417SOL    HW269084  11.541  14.421   2.783
22418SOL     OW69085  12.969   5.194   9.665
22418SOL    HW169086  12.965   5.099   9.652
22418SOL    HW269087  12.991   5.204   9.758
22419SOL     OW69088  12.575  11.866  10.317
22419SOL    HW169089  12.660  11.824  10.325
22419SOL    HW269090  12.594  11.958  10.297
22420SOL     OW69091   2.971  13.236   6.249
22420SOL    HW169092   2.886  13.239   6.205
22420SOL    HW269093   3.031  13.277   6.187
22421SOL     OW69094   7.924  14.514  11.530
22421SOL    HW169095   7.907  14.608  11.539
22421SOL    HW269096   7.848  14.479  11.485
22422SOL     OW69097   5.982   2.002   3.423
22422SOL    HW169098   6.014   1.987   3.512
22422SOL    HW269099   5.953   2.093   3.423
22423SOL     OW69100   0.667   2.258  13.518
22423SOL    HW169101   0.643   2.215  13.601
22423SOL    HW269102   0.592   2.314  13.497
22424SOL     OW69103   0.008   5.188   2.280
22424SOL    HW169104  14.882   5.097   2.252
22424SOL    HW269105   0.071   5.226   2.218
22425SOL     OW69106   3.869   2.044   2.065
22425SOL    HW169107   3.862   1.956   2.028
22425SOL    HW269108   3.854   2.102   1.991
22426SOL     OW69109   8.296   2.145  14.174
22426SOL    HW169110   8.236   2.129  14.246
22426SOL    HW269111   8.295   2.240  14.163
22427SOL     OW69112   9.378   1.904  10.114
22427SOL    HW169113   9.387   1.847  10.190
22427SOL    HW269114   9.443   1.872  10.052
22428SOL     OW69115   9.458   5.629  11.736
22428SOL    HW169116   9.443   5.658  11.647
22428SOL    HW269117   9.539   5.673  11.763
22429SOL     OW69118  10.117  11.283   7.998
22429SOL    HW169119  10.200  11.309   7.956
22429SOL    HW269120  10.125  11.313   8.088
22430SOL     OW69121  12.927  11.418  11.358
22430SOL    HW169122  12.883  11.410  11.443
22430SOL    HW269123  12.860  11.397  11.294
22431SOL     OW69124   7.884   8.392   4.286
22431SOL    HW169125   7.909   8.482   4.268
22431SOL    HW269126   7.800   8.398   4.331
22432SOL     OW69127  11.203   7.597   0.739
22432SOL    HW169128  11.251   7.679   0.743
22432SOL    HW269129  11.111   7.623   0.746
22433SOL     OW69130  11.014  12.124   9.370
22433SOL    HW169131  10.934  12.176   9.360
22433SOL    HW269132  11.080  12.173   9.322
22434SOL     OW69133  10.943   7.755   0.790
22434SOL    HW169134  10.884   7.808   0.843
22434SOL    HW269135  10.935   7.792   0.702
22435SOL     OW69136  13.782   9.384   4.226
22435SOL    HW169137  13.792   9.467   4.179
22435SOL    HW269138  13.858   9.379   4.283
22436SOL     OW69139  11.490   9.670  12.744
22436SOL    HW169140  11.510   9.609  12.674
22436SOL    HW269141  11.497   9.757  12.704
22437SOL     OW69142  10.711   9.933   8.205
22437SOL    HW169143  10.747  10.013   8.166
22437SOL    HW269144  10.763   9.862   8.167
22438SOL     OW69145   9.407  14.432   6.887
22438SOL    HW169146   9.457  14.428   6.968
22438SOL    HW269147   9.315  14.437   6.915
22439SOL     OW69148   6.709  10.668  12.505
22439SOL    HW169149   6.723  10.683  12.412
22439SOL    HW269150   6.614  10.660  12.514
22440SOL     OW69151  14.780   5.340   1.956
22440SOL    HW169152  14.743   5.346   2.044
22440SOL    HW269153  14.705   5.348   1.898
22441SOL     OW69154   9.711  10.512   6.835
22441SOL    HW169155   9.718  10.552   6.921
22441SOL    HW269156   9.697  10.419   6.853
22442SOL     OW69157  13.799   0.818   4.470
22442SOL    HW169158  13.837   0.904   4.490
22442SOL    HW269159  13.730   0.806   4.535
22443SOL     OW69160   8.034  11.793   5.227
22443SOL    HW169161   8.123  11.809   5.196
22443SOL    HW269162   7.980  11.851   5.173
22444SOL     OW69163   2.093  11.207  12.842
22444SOL    HW169164   2.014  11.184  12.793
22444SOL    HW269165   2.065  11.211  12.933
22445SOL     OW69166  13.076   9.394   5.944
22445SOL    HW169167  13.120   9.458   5.888
22445SOL    HW269168  13.132   9.316   5.940
22446SOL     OW69169  13.370   4.081   4.636
22446SOL    HW169170  13.303   4.061   4.570
22446SOL    HW269171  13.357   4.015   4.704
22447SOL     OW69172   1.020  14.293   2.222
22447SOL    HW169173   1.069  14.374   2.210
22447SOL    HW269174   0.958  14.312   2.292
22448SOL     OW69175  11.055   1.203  10.211
22448SOL    HW169176  11.114   1.171  10.279
22448SOL    HW269177  11.047   1.130  10.150
22449SOL     OW69178   1.710   6.989   9.872
22449SOL    HW169179   1.690   6.989   9.779
22449SOL    HW269180   1.804   7.008   9.877
22450SOL     OW69181  14.660   7.369   5.273
22450SOL    HW169182  14.664   7.455   5.231
22450SOL    HW269183  14.729   7.318   5.230
22451SOL     OW69184  12.156   1.976   6.747
22451SOL    HW169185  12.160   1.886   6.714
22451SOL    HW269186  12.185   1.969   6.838
22452SOL     OW69187   1.799   2.041   4.956
22452SOL    HW169188   1.805   2.120   5.010
22452SOL    HW269189   1.746   2.067   4.881
22453SOL     OW69190   3.585   9.416   2.268
22453SOL    HW169191   3.531   9.450   2.196
22453SOL    HW269192   3.529   9.351   2.311
22454SOL     OW69193   6.576  12.787   2.823
22454SOL    HW169194   6.497  12.837   2.804
22454SOL    HW269195   6.546  12.713   2.876
22455SOL     OW69196  10.457   4.895   5.071
22455SOL    HW169197  10.499   4.980   5.056
22455SOL    HW269198  10.523   4.831   5.042
22456SOL     OW69199   8.014   4.427   7.329
22456SOL    HW169200   7.931   4.456   7.291
22456SOL    HW269201   8.068   4.506   7.330
22457SOL     OW69202   7.435  12.118   6.602
22457SOL    HW169203   7.482  12.120   6.685
22457SOL    HW269204   7.402  12.029   6.594
22458SOL     OW69205  14.292  13.015   0.219
22458SOL    HW169206  14.361  13.080   0.213
22458SOL    HW269207  14.257  13.007   0.130
22459SOL     OW69208   0.063  12.982   7.854
22459SOL    HW169209  14.882  13.053   7.865
22459SOL    HW269210   0.023  12.908   7.899
22460SOL     OW69211   4.953  13.410  10.115
22460SOL    HW169212   4.965  13.487  10.170
22460SOL    HW269213   4.860  13.390  10.122
22461SOL     OW69214  13.528  11.527  10.558
22461SOL    HW169215  13.484  11.565  10.634
22461SOL    HW269216  13.460  11.477  10.513
22462SOL     OW69217  14.810   4.732  10.476
22462SOL    HW169218  14.786   4.772  10.559
22462SOL    HW269219  14.859   4.800  10.430
22463SOL     OW69220  13.437   1.017   5.411
22463SOL    HW169221  13.436   0.962   5.332
22463SOL    HW269222  13.504   0.977   5.467
22464SOL     OW69223   3.256   2.121  12.537
22464SOL    HW169224   3.349   2.141  12.526
22464SOL    HW269225   3.249   2.028  12.514
22465SOL     OW69226   2.142   9.443   7.541
22465SOL    HW169227   2.050   9.439   7.516
22465SOL    HW269228   2.158   9.534   7.562
22466SOL     OW69229  11.251   4.502  11.502
22466SOL    HW169230  11.332   4.461  11.533
22466SOL    HW269231  11.281   4.576  11.449
22467SOL     OW69232   3.051  10.324   2.607
22467SOL    HW169233   3.015  10.318   2.519
22467SOL    HW269234   3.146  10.324   2.594
22468SOL     OW69235   8.254   0.038  10.257
22468SOL    HW169236   8.246  14.839  10.207
22468SOL    HW269237   8.189   0.030  10.327
22469SOL     OW69238   6.940   2.352  13.405
22469SOL    HW169239   6.905   2.403  13.479
22469SOL    HW269240   7.033   2.344  13.423
22470SOL     OW69241   3.576  12.309   0.992
22470SOL    HW169242   3.524  12.338   0.917
22470SOL    HW269243   3.536  12.226   1.019
22471SOL     OW69244   9.159   9.685   1.420
22471SOL    HW169245   9.146   9.721   1.508
22471SOL    HW269246   9.075   9.644   1.398
22472SOL     OW69247   9.319  14.015   4.329
22472SOL    HW169248   9.340  13.946   4.392
22472SOL    HW269249   9.404  14.049   4.302
22473SOL     OW69250   0.155   8.744  10.453
22473SOL    HW169251   0.236   8.776  10.492
22473SOL    HW269252   0.106   8.707  10.526
22474SOL     OW69253   4.939   3.912   5.747
22474SOL    HW169254   4.872   3.977   5.768
22474SOL    HW269255   4.915   3.881   5.659
22475SOL     OW69256   3.924  14.476  10.659
22475SOL    HW169257   3.905  14.543  10.725
22475SOL    HW269258   3.851  14.414  10.667
22476SOL     OW69259  13.369   0.504   7.055
22476SOL    HW169260  13.284   0.487   7.096
22476SOL    HW269261  13.350   0.506   6.961
22477SOL     OW69262   6.883   0.277   7.391
22477SOL    HW169263   6.807   0.221   7.410
22477SOL    HW269264   6.856   0.330   7.316
22478SOL     OW69265   1.297  12.726   7.486
22478SOL    HW169266   1.251  12.715   7.569
22478SOL    HW269267   1.263  12.807   7.450
22479SOL     OW69268   7.096   2.581  12.912
22479SOL    HW169269   7.130   2.661  12.954
22479SOL    HW269270   7.109   2.596  12.819
22480SOL     OW69271   6.576   6.825   8.078
22480SOL    HW169272   6.584   6.736   8.044
22480SOL    HW269273   6.648   6.873   8.038
22481SOL     OW69274  11.950  14.258   9.310
22481SOL    HW169275  11.893  14.321   9.264
22481SOL    HW269276  11.889  14.202   9.358
22482SOL     OW69277  14.450   7.003   2.568
22482SOL    HW169278  14.517   7.015   2.635
22482SOL    HW269279  14.449   6.909   2.549
22483SOL     OW69280   4.604   4.180   5.096
22483SOL    HW169281   4.633   4.189   5.005
22483SOL    HW269282   4.559   4.096   5.098
22484SOL     OW69283  12.394   7.418   2.590
22484SOL    HW169284  12.394   7.380   2.678
22484SOL    HW269285  12.421   7.509   2.604
22485SOL     OW69286  12.404   8.388   4.491
22485SOL    HW169287  12.327   8.444   4.483
22485SOL    HW269288  12.413   8.347   4.405
22486SOL     OW69289  14.652   6.899   1.148
22486SOL    HW169290  14.615   6.896   1.236
22486SOL    HW269291  14.621   6.819   1.106
22487SOL     OW69292  12.057   4.756  11.281
22487SOL    HW169293  12.085   4.666  11.266
22487SOL    HW269294  12.065   4.799  11.195
22488SOL     OW69295   3.875   5.000   8.507
22488SOL    HW169296   3.842   4.923   8.460
22488SOL    HW269297   3.971   4.991   8.502
22489SOL     OW69298   0.230   1.901  13.657
22489SOL    HW169299   0.147   1.895  13.703
22489SOL    HW269300   0.296   1.882  13.724
22490SOL     OW69301   6.352  13.880  12.984
22490SOL    HW169302   6.303  13.801  12.962
22490SOL    HW269303   6.307  13.950  12.937
22491SOL     OW69304   3.214   1.998   8.535
22491SOL    HW169305   3.284   2.017   8.598
22491SOL    HW269306   3.144   1.960   8.587
22492SOL     OW69307   1.666   6.948   9.167
22492SOL    HW169308   1.735   6.897   9.210
22492SOL    HW269309   1.640   6.895   9.092
22493SOL     OW69310   0.470   8.695   5.424
22493SOL    HW169311   0.456   8.788   5.406
22493SOL    HW269312   0.545   8.671   5.369
22494SOL     OW69313  12.572   5.092   3.159
22494SOL    HW169314  12.560   5.025   3.091
22494SOL    HW269315  12.613   5.165   3.113
22495SOL     OW69316  10.545  10.445  13.517
22495SOL    HW169317  10.517  10.519  13.570
22495SOL    HW269318  10.637  10.461  13.499
22496SOL     OW69319  10.005  11.040   0.565
22496SOL    HW169320   9.972  11.096   0.494
22496SOL    HW269321  10.062  11.098   0.616
22497SOL     OW69322  10.642   8.979   0.722
22497SOL    HW169323  10.568   9.004   0.667
22497SOL    HW269324  10.678   9.063   0.751
22498SOL     OW69325  12.929   6.613  14.078
22498SOL    HW169326  12.835   6.602  14.090
22498SOL    HW269327  12.943   6.708  14.080
22499SOL     OW69328   0.777   9.527   4.078
22499SOL    HW169329   0.748   9.443   4.112
22499SOL    HW269330   0.734   9.536   3.993
22500SOL     OW69331  12.866   6.176   5.306
22500SOL    HW169332  12.785   6.126   5.309
22500SOL    HW269333  12.839   6.267   5.322
22501SOL     OW69334   3.086   0.948   8.158
22501SOL    HW169335   3.003   0.935   8.113
22501SOL    HW269336   3.082   0.889   8.233
22502SOL     OW69337   6.156  13.985   8.146
22502SOL    HW169338   6.099  13.911   8.127
22502SOL    HW269339   6.242  13.946   8.160
22503SOL     OW69340  13.646   6.847   2.724
22503SOL    HW169341  13.618   6.756   2.720
22503SOL    HW269342  13.565   6.898   2.716
22504SOL     OW69343  11.842  11.508   2.213
22504SOL    HW169344  11.927  11.466   2.201
22504SOL    HW269345  11.838  11.573   2.142
22505SOL     OW69346   5.335   3.051   9.520
22505SOL    HW169347   5.280   2.979   9.489
22505SOL    HW269348   5.376   3.016   9.600
22506SOL     OW69349  10.089   6.497  13.555
22506SOL    HW169350  10.178   6.530  13.567
22506SOL    HW269351  10.054   6.548  13.482
22507SOL     OW69352   8.736   1.200   2.485
22507SOL    HW169353   8.653   1.195   2.532
22507SOL    HW269354   8.724   1.143   2.410
22508SOL     OW69355  13.176   4.222  14.598
22508SOL    HW169356  13.241   4.227  14.668
22508SOL    HW269357  13.228   4.221  14.517
22509SOL     OW69358   7.756   5.254  10.791
22509SOL    HW169359   7.737   5.187  10.857
22509SOL    HW269360   7.683   5.247  10.729
22510SOL     OW69361   2.768   6.916   2.461
22510SOL    HW169362   2.720   6.908   2.378
22510SOL    HW269363   2.801   6.828   2.479
22511SOL     OW69364  14.642   8.021   9.999
22511SOL    HW169365  14.655   8.116  10.008
22511SOL    HW269366  14.725   7.983  10.029
22512SOL     OW69367   8.068   7.585  11.925
22512SOL    HW169368   8.059   7.634  12.007
22512SOL    HW269369   7.979   7.573  11.894
22513SOL     OW69370   0.767   5.418  10.763
22513SOL    HW169371   0.770   5.367  10.682
22513SOL    HW269372   0.677   5.411  10.793
22514SOL     OW69373   2.285   9.627   4.667
22514SOL    HW169374   2.360   9.575   4.696
22514SOL    HW269375   2.208   9.577   4.696
22515SOL     OW69376   3.322  11.119  13.675
22515SOL    HW169377   3.373  11.172  13.614
22515SOL    HW269378   3.375  11.040  13.689
22516SOL     OW69379  12.036   5.134   9.462
22516SOL    HW169380  11.988   5.212   9.436
22516SOL    HW269381  12.126   5.149   9.431
22517SOL     OW69382  13.414  11.636  12.791
22517SOL    HW169383  13.486  11.608  12.734
22517SOL    HW269384  13.456  11.686  12.861
22518SOL     OW69385   0.910   4.801   7.727
22518SOL    HW169386   0.912   4.714   7.686
22518SOL    HW269387   0.937   4.861   7.657
22519SOL     OW69388  14.139   1.177  13.579
22519SOL    HW169389  14.210   1.158  13.517
22519SOL    HW269390  14.166   1.135  13.660
22520SOL     OW69391  10.374   7.968   1.874
22520SOL    HW169392  10.429   7.974   1.951
22520SOL    HW269393  10.319   7.890   1.890
22521SOL     OW69394   9.475  13.919   5.446
22521SOL    HW169395   9.453  13.977   5.519
22521SOL    HW269396   9.561  13.883   5.469
22522SOL     OW69397  13.588  13.425   2.026
22522SOL    HW169398  13.510  13.422   2.082
22522SOL    HW269399  13.634  13.343   2.044
22523SOL     OW69400  13.497   5.507   7.467
22523SOL    HW169401  13.504   5.440   7.535
22523SOL    HW269402  13.413   5.549   7.484
22524SOL     OW69403  12.179  13.088   6.298
22524SOL    HW169404  12.215  13.068   6.384
22524SOL    HW269405  12.251  13.073   6.237
22525SOL     OW69406   8.408   1.083  12.122
22525SOL    HW169407   8.349   1.100  12.049
22525SOL    HW269408   8.467   1.014  12.090
22526SOL     OW69409  13.640  11.247   2.168
22526SOL    HW169410  13.589  11.166   2.171
22526SOL    HW269411  13.636  11.274   2.076
22527SOL     OW69412   2.138  14.000  14.273
22527SOL    HW169413   2.125  13.932  14.340
22527SOL    HW269414   2.049  14.028  14.252
22528SOL     OW69415   4.311  10.347   2.236
22528SOL    HW169416   4.331  10.368   2.145
22528SOL    HW269417   4.231  10.295   2.233
22529SOL     OW69418   6.769   0.779   6.187
22529SOL    HW169419   6.848   0.820   6.151
22529SOL    HW269420   6.706   0.850   6.192
22530SOL     OW69421   3.446   8.785   6.923
22530SOL    HW169422   3.385   8.853   6.954
22530SOL    HW269423   3.406   8.752   6.843
22531SOL     OW69424   4.692   7.105   9.248
22531SOL    HW169425   4.695   7.049   9.325
22531SOL    HW269426   4.773   7.157   9.253
22532SOL     OW69427   8.531   3.594   5.663
22532SOL    HW169428   8.519   3.505   5.630
22532SOL    HW269429   8.475   3.598   5.741
22533SOL     OW69430   4.564   2.099   0.227
22533SOL    HW169431   4.525   2.183   0.254
22533SOL    HW269432   4.547   2.040   0.300
22534SOL     OW69433  10.508  14.408  13.515
22534SOL    HW169434  10.413  14.398  13.522
22534SOL    HW269435  10.519  14.480  13.453
22535SOL     OW69436   1.599   9.578   6.063
22535SOL    HW169437   1.646   9.579   5.980
22535SOL    HW269438   1.652   9.520   6.119
22536SOL     OW69439  11.496  10.724  13.823
22536SOL    HW169440  11.570  10.721  13.884
22536SOL    HW269441  11.511  10.651  13.763
22537SOL     OW69442  14.182   5.846   3.523
22537SOL    HW169443  14.248   5.811   3.464
22537SOL    HW269444  14.206   5.938   3.535
22538SOL     OW69445   5.478   3.483   2.877
22538SOL    HW169446   5.552   3.427   2.852
22538SOL    HW269447   5.510   3.572   2.863
22539SOL     OW69448   3.194   5.860   6.238
22539SOL    HW169449   3.271   5.816   6.273
22539SOL    HW269450   3.163   5.915   6.309
22540SOL     OW69451   2.561   5.820   5.563
22540SOL    HW169452   2.593   5.870   5.639
22540SOL    HW269453   2.635   5.765   5.538
22541SOL     OW69454   6.636  10.416   0.779
22541SOL    HW169455   6.716  10.372   0.750
22541SOL    HW269456   6.569  10.388   0.717
22542SOL     OW69457   0.575   2.755  11.103
22542SOL    HW169458   0.564   2.783  11.012
22542SOL    HW269459   0.666   2.777  11.123
22543SOL     OW69460   8.018   9.180   4.888
22543SOL    HW169461   7.984   9.090   4.886
22543SOL    HW269462   7.964   9.225   4.953
22544SOL     OW69463   3.374  14.680   9.856
22544SOL    HW169464   3.434  14.611   9.882
22544SOL    HW269465   3.294  14.663   9.907
22545SOL     OW69466  14.771   9.189   8.465
22545SOL    HW169467  14.810   9.134   8.533
22545SOL    HW269468  14.678   9.166   8.467
22546SOL     OW69469   6.008   7.734  12.645
22546SOL    HW169470   5.917   7.704  12.651
22546SOL    HW269471   6.060   7.655  12.658
22547SOL     OW69472  10.892   2.454   6.966
22547SOL    HW169473  10.940   2.503   7.032
22547SOL    HW269474  10.875   2.369   7.006
22548SOL     OW69475  13.056   7.925  13.568
22548SOL    HW169476  13.067   8.019  13.554
22548SOL    HW269477  12.982   7.901  13.513
22549SOL     OW69478  14.314   7.941  13.408
22549SOL    HW169479  14.246   7.904  13.352
22549SOL    HW269480  14.345   8.018  13.361
22550SOL     OW69481  12.236   6.552  10.690
22550SOL    HW169482  12.305   6.538  10.756
22550SOL    HW269483  12.218   6.464  10.656
22551SOL     OW69484   2.671   0.724   3.218
22551SOL    HW169485   2.736   0.775   3.265
22551SOL    HW269486   2.587   0.758   3.250
22552SOL     OW69487   4.991   8.114   1.473
22552SOL    HW169488   5.036   8.031   1.491
22552SOL    HW269489   5.042   8.180   1.519
22553SOL     OW69490   0.922   9.719   9.720
22553SOL    HW169491   0.827   9.702   9.722
22553SOL    HW269492   0.930   9.808   9.755
22554SOL     OW69493  10.829   6.034   7.345
22554SOL    HW169494  10.801   6.046   7.254
22554SOL    HW269495  10.788   6.106   7.392
22555SOL     OW69496  12.903  12.534  14.144
22555SOL    HW169497  12.866  12.446  14.155
22555SOL    HW269498  12.924  12.562  14.234
22556SOL     OW69499   4.401   3.752  10.870
22556SOL    HW169500   4.459   3.706  10.810
22556SOL    HW269501   4.333   3.789  10.814
22557SOL     OW69502   1.326   5.006  14.058
22557SOL    HW169503   1.316   5.049  14.144
22557SOL    HW269504   1.372   5.071  14.005
22558SOL     OW69505  13.533   4.290  10.780
22558SOL    HW169506  13.440   4.307  10.791
22558SOL    HW269507  13.547   4.296  10.685
22559SOL     OW69508   0.078   7.436  14.684
22559SOL    HW169509   0.054   7.508  14.626
22559SOL    HW269510   0.138   7.474  14.747
22560SOL     OW69511   1.766   9.601   2.601
22560SOL    HW169512   1.699   9.552   2.553
22560SOL    HW269513   1.849   9.564   2.571
22561SOL     OW69514   1.510  11.179   6.578
22561SOL    HW169515   1.509  11.183   6.674
22561SOL    HW269516   1.595  11.215   6.554
22562SOL     OW69517   1.671   8.639   6.127
22562SOL    HW169518   1.755   8.614   6.166
22562SOL    HW269519   1.606   8.620   6.195
22563SOL     OW69520  10.574  10.115   0.457
22563SOL    HW169521  10.521  10.145   0.384
22563SOL    HW269522  10.526  10.039   0.491
22564SOL     OW69523   4.518   1.650   7.563
22564SOL    HW169524   4.480   1.682   7.645
22564SOL    HW269525   4.472   1.699   7.495
22565SOL     OW69526   0.621   9.116  10.665
22565SOL    HW169527   0.636   9.077  10.751
22565SOL    HW269528   0.666   9.058  10.603
22566SOL     OW69529   1.404   8.336  10.087
22566SOL    HW169530   1.439   8.416  10.128
22566SOL    HW269531   1.461   8.266  10.119
22567SOL     OW69532   6.758  13.854   9.989
22567SOL    HW169533   6.697  13.784   9.966
22567SOL    HW269534   6.772  13.843  10.083
22568SOL     OW69535   1.616   5.281   6.316
22568SOL    HW169536   1.605   5.188   6.337
22568SOL    HW269537   1.527   5.311   6.293
22569SOL     OW69538   0.096   0.048   6.897
22569SOL    HW169539   0.041   0.119   6.863
22569SOL    HW269540   0.035  14.868   6.936
22570SOL     OW69541  11.960   5.421   3.525
22570SOL    HW169542  12.009   5.463   3.455
22570SOL    HW269543  11.887   5.378   3.481
22571SOL     OW69544  10.053  10.695   8.580
22571SOL    HW169545   9.958  10.706   8.577
22571SOL    HW269546  10.074  10.694   8.674
22572SOL     OW69547   4.256   7.824   1.808
22572SOL    HW169548   4.168   7.824   1.770
22572SOL    HW269549   4.245   7.781   1.893
22573SOL     OW69550   9.437   8.356   6.577
22573SOL    HW169551   9.467   8.431   6.525
22573SOL    HW269552   9.517   8.316   6.609
22574SOL     OW69553   4.637   3.375   2.100
22574SOL    HW169554   4.646   3.289   2.140
22574SOL    HW269555   4.567   3.364   2.035
22575SOL     OW69556   8.903   8.774   4.715
22575SOL    HW169557   8.860   8.723   4.646
22575SOL    HW269558   8.834   8.791   4.779
22576SOL     OW69559   7.372   6.708   9.238
22576SOL    HW169560   7.407   6.744   9.156
22576SOL    HW269561   7.301   6.650   9.210
22577SOL     OW69562  13.212   9.190   9.371
22577SOL    HW169563  13.290   9.135   9.360
22577SOL    HW269564  13.139   9.132   9.348
22578SOL     OW69565   1.130   2.138   2.355
22578SOL    HW169566   1.078   2.127   2.275
22578SOL    HW269567   1.220   2.125   2.328
22579SOL     OW69568   2.473   7.018   3.305
22579SOL    HW169569   2.544   7.005   3.242
22579SOL    HW269570   2.399   7.047   3.252
22580SOL     OW69571  10.807   6.994  14.451
22580SOL    HW169572  10.796   7.070  14.508
22580SOL    HW269573  10.819   6.920  14.512
22581SOL     OW69574  14.795   6.718  14.089
22581SOL    HW169575  14.786   6.624  14.074
22581SOL    HW269576  14.762   6.758  14.008
22582SOL     OW69577  10.205  11.770   1.611
22582SOL    HW169578  10.199  11.689   1.662
22582SOL    HW269579  10.142  11.759   1.540
22583SOL     OW69580  12.154   2.836  12.875
22583SOL    HW169581  12.240   2.878  12.864
22583SOL    HW269582  12.156   2.799  12.963
22584SOL     OW69583   1.167   2.185   1.168
22584SOL    HW169584   1.203   2.268   1.201
22584SOL    HW269585   1.189   2.121   1.236
22585SOL     OW69586  10.549   8.950   2.879
22585SOL    HW169587  10.645   8.951   2.876
22585SOL    HW269588  10.527   8.857   2.878
22586SOL     OW69589  11.993   9.094  11.553
22586SOL    HW169590  11.926   9.093  11.486
22586SOL    HW269591  12.066   9.044  11.515
22587SOL     OW69592  13.956  11.342   7.089
22587SOL    HW169593  13.883  11.322   7.031
22587SOL    HW269594  13.994  11.257   7.111
22588SOL     OW69595   2.693   6.732   3.705
22588SOL    HW169596   2.682   6.827   3.700
22588SOL    HW269597   2.788   6.719   3.703
22589SOL     OW69598   8.326   8.335   2.330
22589SOL    HW169599   8.314   8.325   2.424
22589SOL    HW269600   8.394   8.402   2.322
22590SOL     OW69601   8.688  14.230   1.378
22590SOL    HW169602   8.616  14.273   1.331
22590SOL    HW269603   8.765  14.283   1.355
22591SOL     OW69604   1.590  13.815  10.944
22591SOL    HW169605   1.556  13.900  10.915
22591SOL    HW269606   1.600  13.764  10.863
22592SOL     OW69607  14.252  12.059   7.014
22592SOL    HW169608  14.166  12.043   7.052
22592SOL    HW269609  14.263  11.988   6.951
22593SOL     OW69610   7.971  12.964   5.500
22593SOL    HW169611   7.963  13.043   5.553
22593SOL    HW269612   8.048  12.979   5.446
22594SOL     OW69613   7.954   5.355   3.789
22594SOL    HW169614   7.883   5.324   3.845
22594SOL    HW269615   7.910   5.381   3.708
22595SOL     OW69616  13.051  14.256   5.040
22595SOL    HW169617  13.021  14.181   4.989
22595SOL    HW269618  12.978  14.276   5.099
22596SOL     OW69619  13.249   2.963  14.730
22596SOL    HW169620  13.264   3.053  14.760
22596SOL    HW269621  13.328   2.941  14.680
22597SOL     OW69622   8.614   5.275  12.726
22597SOL    HW169623   8.608   5.210  12.797
22597SOL    HW269624   8.577   5.355  12.764
22598SOL     OW69625   6.141  14.683   5.095
22598SOL    HW169626   6.157  14.744   5.023
22598SOL    HW269627   6.219  14.628   5.098
22599SOL     OW69628   0.718   1.885   0.292
22599SOL    HW169629   0.682   1.930   0.216
22599SOL    HW269630   0.773   1.816   0.256
22600SOL     OW69631  14.188  11.626  10.911
22600SOL    HW169632  14.126  11.554  10.909
22600SOL    HW269633  14.172  11.669  10.995
22601SOL     OW69634   6.980   0.042   1.610
22601SOL    HW169635   6.954  14.875   1.688
22601SOL    HW269636   6.976  14.860   1.539
22602SOL     OW69637  13.984  13.343   7.312
22602SOL    HW169638  13.940  13.277   7.259
22602SOL    HW269639  13.968  13.316   7.402
22603SOL     OW69640   7.767  14.667  14.209
22603SOL    HW169641   7.783  14.581  14.248
22603SOL    HW269642   7.689  14.654  14.155
22604SOL     OW69643  12.573   0.410   5.366
22604SOL    HW169644  12.522   0.487   5.342
22604SOL    HW269645  12.661   0.444   5.384
22605SOL     OW69646  14.177  10.351   5.002
22605SOL    HW169647  14.263  10.381   5.031
22605SOL    HW269648  14.116  10.415   5.040
22606SOL     OW69649   8.538   7.664   1.512
22606SOL    HW169650   8.624   7.636   1.543
22606SOL    HW269651   8.484   7.586   1.517
22607SOL     OW69652  13.973   7.447   7.759
22607SOL    HW169653  13.936   7.475   7.676
22607SOL    HW269654  14.058   7.491   7.764
22608SOL     OW69655  10.682   9.878  12.470
22608SOL    HW169656  10.643   9.897  12.384
22608SOL    HW269657  10.769   9.919  12.466
22609SOL     OW69658   0.988  14.501   8.317
22609SOL    HW169659   1.021  14.522   8.230
22609SOL    HW269660   0.894  14.521   8.313
22610SOL     OW69661   4.597   5.483   6.364
22610SOL    HW169662   4.628   5.540   6.435
22610SOL    HW269663   4.662   5.413   6.359
22611SOL     OW69664   7.040   7.212  12.988
22611SOL    HW169665   7.110   7.263  13.029
22611SOL    HW269666   7.045   7.126  13.031
22612SOL     OW69667  12.366  10.391  12.789
22612SOL    HW169668  12.373  10.479  12.828
22612SOL    HW269669  12.390  10.332  12.860
22613SOL     OW69670   3.330   2.350   6.329
22613SOL    HW169671   3.264   2.415   6.304
22613SOL    HW269672   3.380   2.335   6.249
22614SOL     OW69673   0.098  10.923   9.278
22614SOL    HW169674   0.141  10.966   9.205
22614SOL    HW269675   0.011  10.901   9.245
22615SOL     OW69676  10.586   9.838   8.749
22615SOL    HW169677  10.673   9.842   8.788
22615SOL    HW269678  10.555   9.929   8.747
22616SOL     OW69679   7.705   3.263  11.207
22616SOL    HW169680   7.788   3.223  11.181
22616SOL    HW269681   7.729   3.322  11.279
22617SOL     OW69682   6.057  11.142   0.161
22617SOL    HW169683   6.092  11.231   0.171
22617SOL    HW269684   6.063  11.105   0.249
22618SOL     OW69685  14.046   9.687  10.610
22618SOL    HW169686  13.960   9.705  10.648
22618SOL    HW269687  14.093   9.770  10.616
22619SOL     OW69688  12.083  13.836  10.981
22619SOL    HW169689  11.996  13.873  10.999
22619SOL    HW269690  12.105  13.788  11.061
22620SOL     OW69691   4.380   1.617   9.234
22620SOL    HW169692   4.344   1.561   9.302
22620SOL    HW269693   4.365   1.706   9.266
22621SOL     OW69694   9.617   8.569  14.532
22621SOL    HW169695   9.652   8.509  14.597
22621SOL    HW269696   9.606   8.516  14.454
22622SOL     OW69697   6.365   9.119   0.132
22622SOL    HW169698   6.315   9.198   0.152
22622SOL    HW269699   6.354   9.106   0.038
22623SOL     OW69700  11.553  14.423  13.910
22623SOL    HW169701  11.586  14.353  13.854
22623SOL    HW269702  11.632  14.468  13.942
22624SOL     OW69703   4.464   2.034  14.856
22624SOL    HW169704   4.476   2.036   0.069
22624SOL    HW269705   4.536   2.087  14.822
22625SOL     OW69706  12.903  12.104  14.554
22625SOL    HW169707  12.942  12.160  14.487
22625SOL    HW269708  12.958  12.025  14.553
22626SOL     OW69709  12.932   6.806   3.278
22626SOL    HW169710  12.895   6.723   3.249
22626SOL    HW269711  13.023   6.804   3.246
22627SOL     OW69712   6.881  10.181   0.400
22627SOL    HW169713   6.831  10.126   0.340
22627SOL    HW269714   6.940  10.122   0.445
22628SOL     OW69715  14.462   4.934   0.498
22628SOL    HW169716  14.485   4.976   0.415
22628SOL    HW269717  14.529   4.865   0.509
22629SOL     OW69718   3.725   5.967   3.563
22629SOL    HW169719   3.667   5.959   3.487
22629SOL    HW269720   3.689   6.039   3.614
22630SOL     OW69721   1.478   2.629   5.861
22630SOL    HW169722   1.517   2.706   5.819
22630SOL    HW269723   1.460   2.570   5.788
22631SOL     OW69724   9.849  11.717   8.324
22631SOL    HW169725   9.828  11.624   8.310
22631SOL    HW269726   9.767  11.756   8.354
22632SOL     OW69727  12.793  14.377   2.481
22632SOL    HW169728  12.866  14.326   2.445
22632SOL    HW269729  12.715  14.328   2.453
22633SOL     OW69730   1.179  11.371   8.440
22633SOL    HW169731   1.184  11.459   8.478
22633SOL    HW269732   1.145  11.386   8.351
22634SOL     OW69733   0.660  13.267   5.814
22634SOL    HW169734   0.585  13.233   5.862
22634SOL    HW269735   0.655  13.362   5.826
22635SOL     OW69736  13.781   5.251   0.357
22635SOL    HW169737  13.688   5.267   0.365
22635SOL    HW269738  13.791   5.157   0.373
22636SOL     OW69739  10.912   4.803   5.544
22636SOL    HW169740  10.866   4.723   5.569
22636SOL    HW269741  10.930   4.848   5.627
22637SOL     OW69742  13.600   5.424   6.652
22637SOL    HW169743  13.670   5.363   6.674
22637SOL    HW269744  13.558   5.443   6.736
22638SOL     OW69745   4.291   0.200   3.213
22638SOL    HW169746   4.310   0.107   3.214
22638SOL    HW269747   4.360   0.239   3.267
22639SOL     OW69748  12.949   2.032   2.226
22639SOL    HW169749  12.867   2.079   2.216
22639SOL    HW269750  12.925   1.952   2.273
22640SOL     OW69751   5.262   9.868  13.454
22640SOL    HW169752   5.339   9.851  13.509
22640SOL    HW269753   5.261   9.796  13.392
22641SOL     OW69754   3.332   2.050   0.056
22641SOL    HW169755   3.343   2.007  14.853
22641SOL    HW269756   3.306   1.978   0.115
22642SOL     OW69757  11.952   1.624   5.047
22642SOL    HW169758  11.942   1.712   5.083
22642SOL    HW269759  11.997   1.637   4.963
22643SOL     OW69760  14.572  13.586   7.746
22643SOL    HW169761  14.493  13.625   7.707
22643SOL    HW269762  14.607  13.654   7.802
22644SOL     OW69763  11.043  13.199   0.821
22644SOL    HW169764  11.042  13.106   0.845
22644SOL    HW269765  11.055  13.200   0.726
22645SOL     OW69766   0.085   8.177   5.223
22645SOL    HW169767   0.117   8.108   5.283
22645SOL    HW269768   0.020   8.225   5.274
22646SOL     OW69769  11.729  11.006   7.791
22646SOL    HW169770  11.722  10.992   7.886
22646SOL    HW269771  11.741  10.918   7.755
22647SOL     OW69772   3.159  10.194   5.026
22647SOL    HW169773   3.104  10.258   5.071
22647SOL    HW269774   3.182  10.130   5.093
22648SOL     OW69775   7.009  13.387   7.519
22648SOL    HW169776   6.961  13.439   7.454
22648SOL    HW269777   6.964  13.303   7.521
22649SOL     OW69778   0.284   2.332   1.006
22649SOL    HW169779   0.347   2.324   1.078
22649SOL    HW269780   0.273   2.242   0.974
22650SOL     OW69781   5.374   8.400  14.407
22650SOL    HW169782   5.443   8.390  14.473
22650SOL    HW269783   5.326   8.477  14.434
22651SOL     OW69784  12.546   4.809   8.899
22651SOL    HW169785  12.476   4.842   8.842
22651SOL    HW269786  12.546   4.870   8.973
22652SOL     OW69787   7.355   5.206   3.436
22652SOL    HW169788   7.343   5.113   3.456
22652SOL    HW269789   7.339   5.213   3.342
22653SOL     OW69790  10.505   0.214   1.617
22653SOL    HW169791  10.532   0.282   1.679
22653SOL    HW269792  10.410   0.223   1.611
22654SOL     OW69793  10.998   8.159  10.269
22654SOL    HW169794  10.996   8.070  10.304
22654SOL    HW269795  11.036   8.150  10.182
22655SOL     OW69796  10.506   8.072   2.356
22655SOL    HW169797  10.418   8.090   2.391
22655SOL    HW269798  10.548   8.021   2.426
22656SOL     OW69799   4.652   8.558   1.581
22656SOL    HW169800   4.559   8.580   1.594
22656SOL    HW269801   4.683   8.536   1.669
22657SOL     OW69802  11.657  12.449  13.701
22657SOL    HW169803  11.720  12.407  13.760
22657SOL    HW269804  11.695  12.438  13.614
22658SOL     OW69805  10.864  13.317   7.945
22658SOL    HW169806  10.858  13.360   7.859
22658SOL    HW269807  10.826  13.230   7.931
22659SOL     OW69808   7.753   2.313   1.638
22659SOL    HW169809   7.712   2.323   1.723
22659SOL    HW269810   7.769   2.219   1.628
22660SOL     OW69811   7.586  13.064   7.781
22660SOL    HW169812   7.652  13.093   7.843
22660SOL    HW269813   7.532  13.001   7.830
22661SOL     OW69814  10.393   1.862   1.950
22661SOL    HW169815  10.305   1.881   1.982
22661SOL    HW269816  10.445   1.939   1.975
22662SOL     OW69817   1.601   0.966   3.089
22662SOL    HW169818   1.638   0.965   3.177
22662SOL    HW269819   1.655   1.029   3.041
22663SOL     OW69820  10.164   3.998   7.658
22663SOL    HW169821  10.091   4.056   7.678
22663SOL    HW269822  10.193   3.966   7.744
22664SOL     OW69823   7.916   5.705   3.630
22664SOL    HW169824   7.842   5.766   3.625
22664SOL    HW269825   7.959   5.725   3.713
22665SOL     OW69826  10.038   0.430  14.393
22665SOL    HW169827   9.990   0.417  14.475
22665SOL    HW269828   9.980   0.485  14.340
22666SOL     OW69829   4.479   0.901   2.484
22666SOL    HW169830   4.526   0.885   2.566
22666SOL    HW269831   4.511   0.832   2.425
22667SOL     OW69832   0.143   7.160  10.025
22667SOL    HW169833   0.145   7.229  10.092
22667SOL    HW269834   0.174   7.204   9.946
22668SOL     OW69835  12.855  12.137  10.919
22668SOL    HW169836  12.907  12.124  10.839
22668SOL    HW269837  12.780  12.189  10.889
22669SOL     OW69838   1.238   7.317   6.122
22669SOL    HW169839   1.224   7.224   6.103
22669SOL    HW269840   1.166   7.362   6.077
22670SOL     OW69841   0.141  10.226   8.656
22670SOL    HW169842   0.148  10.238   8.561
22670SOL    HW269843   0.071  10.284   8.683
22671SOL     OW69844   3.358   8.678   6.674
22671SOL    HW169845   3.291   8.720   6.619
22671SOL    HW269846   3.418   8.638   6.612
22672SOL     OW69847   1.404   9.736  11.128
22672SOL    HW169848   1.341   9.683  11.079
22672SOL    HW269849   1.354   9.773  11.201
22673SOL     OW69850   0.285  13.805   4.451
22673SOL    HW169851   0.325  13.729   4.408
22673SOL    HW269852   0.297  13.877   4.390
22674SOL     OW69853   1.761   6.749   1.615
22674SOL    HW169854   1.706   6.793   1.680
22674SOL    HW269855   1.834   6.809   1.601
22675SOL     OW69856   7.571  13.838   3.182
22675SOL    HW169857   7.545  13.759   3.228
22675SOL    HW269858   7.667  13.836   3.182
22676SOL     OW69859   9.369  11.785  14.769
22676SOL    HW169860   9.297  11.826  14.816
22676SOL    HW269861   9.333  11.702  14.737
22677SOL     OW69862  11.099   7.445   8.787
22677SOL    HW169863  11.150   7.473   8.711
22677SOL    HW269864  11.164   7.425   8.854
22678SOL     OW69865   7.871  13.177   3.951
22678SOL    HW169866   7.830  13.149   4.033
22678SOL    HW269867   7.958  13.209   3.978
22679SOL     OW69868   7.152   6.776   3.446
22679SOL    HW169869   7.210   6.801   3.518
22679SOL    HW269870   7.190   6.695   3.412
22680SOL     OW69871   5.048   3.111  10.727
22680SOL    HW169872   5.050   3.090  10.634
22680SOL    HW269873   5.024   3.029  10.770
22681SOL     OW69874   5.567   2.429   1.706
22681SOL    HW169875   5.523   2.458   1.627
22681SOL    HW269876   5.542   2.337   1.716
22682SOL     OW69877  12.282   5.194   9.298
22682SOL    HW169878  12.235   5.130   9.244
22682SOL    HW269879  12.281   5.274   9.246
22683SOL     OW69880  11.911  10.709  14.170
22683SOL    HW169881  11.829  10.661  14.152
22683SOL    HW269882  11.975  10.640  14.188
22684SOL     OW69883   5.911   9.534   8.746
22684SOL    HW169884   5.996   9.518   8.705
22684SOL    HW269885   5.923   9.614   8.798
22685SOL     OW69886   2.393   4.553   9.139
22685SOL    HW169887   2.425   4.642   9.121
22685SOL    HW269888   2.414   4.538   9.231
22686SOL     OW69889   9.706   1.057  13.947
22686SOL    HW169890   9.633   1.034  14.005
22686SOL    HW269891   9.664   1.070  13.861
22687SOL     OW69892   3.765  11.556   6.953
22687SOL    HW169893   3.797  11.527   7.038
22687SOL    HW269894   3.719  11.638   6.972
22688SOL     OW69895   9.016   9.610  13.589
22688SOL    HW169896   9.087   9.660  13.628
22688SOL    HW269897   9.045   9.592  13.500
22689SOL     OW69898  13.718  11.524   4.767
22689SOL    HW169899  13.737  11.576   4.689
22689SOL    HW269900  13.799  11.527   4.818
22690SOL     OW69901   3.031  10.813   3.195
22690SOL    HW169902   2.982  10.858   3.125
22690SOL    HW269903   3.083  10.748   3.150
22691SOL     OW69904   3.073   9.859  12.969
22691SOL    HW169905   3.141   9.914  13.007
22691SOL    HW269906   2.999   9.919  12.956
22692SOL     OW69907   1.447  14.653  12.480
22692SOL    HW169908   1.515  14.709  12.516
22692SOL    HW269909   1.486  14.566  12.477
22693SOL     OW69910  14.686   3.466   7.360
22693SOL    HW169911  14.709   3.417   7.282
22693SOL    HW269912  14.675   3.399   7.428
22694SOL     OW69913   1.372   7.009  10.900
22694SOL    HW169914   1.343   6.918  10.909
22694SOL    HW269915   1.416   7.028  10.983
22695SOL     OW69916   6.343  14.786  10.875
22695SOL    HW169917   6.328  14.698  10.909
22695SOL    HW269918   6.258  14.830  10.883
22696SOL     OW69919   3.615  13.491   5.102
22696SOL    HW169920   3.544  13.460   5.158
22696SOL    HW269921   3.605  13.442   5.020
22697SOL     OW69922  10.900  12.024   2.719
22697SOL    HW169923  10.970  12.027   2.654
22697SOL    HW269924  10.946  12.021   2.803
22698SOL     OW69925   0.932   1.659   2.094
22698SOL    HW169926   0.975   1.589   2.145
22698SOL    HW269927   0.859   1.687   2.150
22699SOL     OW69928   4.488   6.068   1.520
22699SOL    HW169929   4.409   6.019   1.499
22699SOL    HW269930   4.467   6.158   1.496
22700SOL     OW69931   7.788  10.610   0.703
22700SOL    HW169932   7.780  10.639   0.794
22700SOL    HW269933   7.717  10.547   0.691
22701SOL     OW69934  10.800   2.696   9.589
22701SOL    HW169935  10.724   2.738   9.630
22701SOL    HW269936  10.769   2.609   9.565
22702SOL     OW69937   3.536   1.594   4.671
22702SOL    HW169938   3.613   1.538   4.663
22702SOL    HW269939   3.569   1.683   4.654
22703SOL     OW69940   2.957   6.613  14.286
22703SOL    HW169941   2.998   6.661  14.214
22703SOL    HW269942   2.940   6.679  14.353
22704SOL     OW69943   6.620   3.004   9.142
22704SOL    HW169944   6.573   3.080   9.108
22704SOL    HW269945   6.679   3.041   9.208
22705SOL     OW69946   1.490   0.018   7.056
22705SOL    HW169947   1.421  14.847   7.014
22705SOL    HW269948   1.484   0.103   7.013
22706SOL     OW69949  14.034   6.354  14.000
22706SOL    HW169950  13.958   6.323  14.049
22706SOL    HW269951  14.102   6.288  14.016
22707SOL     OW69952   5.802   3.010   1.001
22707SOL    HW169953   5.867   2.942   0.981
22707SOL    HW269954   5.854   3.089   1.016
22708SOL     OW69955  14.451   0.501  13.756
22708SOL    HW169956  14.414   0.554  13.826
22708SOL    HW269957  14.520   0.555  13.718
22709SOL     OW69958  12.536  12.173   3.825
22709SOL    HW169959  12.600  12.154   3.893
22709SOL    HW269960  12.475  12.235   3.866
22710SOL     OW69961   6.157   5.304  14.555
22710SOL    HW169962   6.089   5.278  14.494
22710SOL    HW269963   6.234   5.254  14.528
22711SOL     OW69964   0.818  12.551  10.243
22711SOL    HW169965   0.885  12.494  10.203
22711SOL    HW269966   0.826  12.634  10.195
22712SOL     OW69967   2.749  10.538  11.492
22712SOL    HW169968   2.734  10.606  11.557
22712SOL    HW269969   2.663  10.523  11.453
22713SOL     OW69970  13.126  14.356   3.139
22713SOL    HW169971  13.161  14.424   3.197
22713SOL    HW269972  13.074  14.299   3.197
22714SOL     OW69973   7.002   8.473  12.886
22714SOL    HW169974   7.003   8.528  12.964
22714SOL    HW269975   7.047   8.524  12.819
22715SOL     OW69976  11.041   2.492   0.233
22715SOL    HW169977  11.033   2.458   0.144
22715SOL    HW269978  11.034   2.415   0.289
22716SOL     OW69979  10.655   8.002   1.268
22716SOL    HW169980  10.638   8.081   1.318
22716SOL    HW269981  10.727   8.026   1.209
22717SOL     OW69982   9.033   2.099  11.144
22717SOL    HW169983   9.080   2.025  11.181
22717SOL    HW269984   9.046   2.091  11.049
22718SOL     OW69985   1.757   1.305   3.412
22718SOL    HW169986   1.728   1.309   3.321
22718SOL    HW269987   1.830   1.243   3.411
22719SOL     OW69988   3.339  12.874   8.755
22719SOL    HW169989   3.363  12.874   8.848
22719SOL    HW269990   3.271  12.807   8.747
22720SOL     OW69991   2.902   1.603   6.742
22720SOL    HW169992   2.883   1.581   6.651
22720SOL    HW269993   2.982   1.555   6.762
22721SOL     OW69994  14.458  11.199   4.008
22721SOL    HW169995  14.435  11.258   4.080
22721SOL    HW269996  14.414  11.236   3.932
22722SOL     OW69997   1.056   9.817   0.580
22722SOL    HW169998   1.055   9.882   0.509
22722SOL    HW269999   1.146   9.818   0.612
22723SOL     OW70000   7.297   1.360   0.316
22723SOL    HW170001   7.319   1.438   0.264
22723SOL    HW270002   7.375   1.344   0.369
22724SOL     OW70003   6.482   9.646   7.887
22724SOL    HW170004   6.528   9.563   7.880
22724SOL    HW270005   6.433   9.653   7.805
22725SOL     OW70006   0.213   4.519   2.274
22725SOL    HW170007   0.130   4.489   2.235
22725SOL    HW270008   0.192   4.604   2.311
22726SOL     OW70009   6.920   2.506  11.396
22726SOL    HW170010   6.839   2.457  11.411
22726SOL    HW270011   6.984   2.440  11.370
22727SOL     OW70012   2.417  13.006   1.922
22727SOL    HW170013   2.448  13.002   2.012
22727SOL    HW270014   2.437  13.095   1.893
22728SOL     OW70015   2.403   7.137   6.350
22728SOL    HW170016   2.465   7.117   6.420
22728SOL    HW270017   2.379   7.051   6.314
22729SOL     OW70018   1.617   8.167  11.979
22729SOL    HW170019   1.710   8.188  11.967
22729SOL    HW270020   1.584   8.238  12.035
22730SOL     OW70021   8.931   4.082   3.303
22730SOL    HW170022   8.986   4.101   3.379
22730SOL    HW270023   8.865   4.151   3.302
22731SOL     OW70024   9.389  14.267  11.687
22731SOL    HW170025   9.294  14.252  11.686
22731SOL    HW270026   9.414  14.255  11.779
22732SOL     OW70027  12.675  11.759   0.211
22732SOL    HW170028  12.611  11.792   0.148
22732SOL    HW270029  12.757  11.756   0.163
22733SOL     OW70030   5.314   1.465   9.142
22733SOL    HW170031   5.403   1.435   9.128
22733SOL    HW270032   5.276   1.401   9.203
22734SOL     OW70033   3.139   6.711   8.754
22734SOL    HW170034   3.139   6.766   8.833
22734SOL    HW270035   3.223   6.664   8.758
22735SOL     OW70036   9.147  13.861   2.103
22735SOL    HW170037   9.086  13.934   2.111
22735SOL    HW270038   9.145  13.838   2.010
22736SOL     OW70039  13.095   5.291   7.723
22736SOL    HW170040  13.082   5.311   7.815
22736SOL    HW270041  13.019   5.239   7.698
22737SOL     OW70042  13.367   2.015  10.822
22737SOL    HW170043  13.424   1.956  10.773
22737SOL    HW270044  13.370   2.097  10.773
22738SOL     OW70045  14.619   4.515   6.137
22738SOL    HW170046  14.577   4.573   6.201
22738SOL    HW270047  14.696   4.563   6.108
22739SOL     OW70048  10.853   3.893  13.598
22739SOL    HW170049  10.811   3.877  13.513
22739SOL    HW270050  10.828   3.818  13.651
22740SOL     OW70051   7.008   8.191   9.192
22740SOL    HW170052   7.001   8.265   9.132
22740SOL    HW270053   6.919   8.180   9.227
22741SOL     OW70054   8.911   9.123  11.624
22741SOL    HW170055   8.859   9.081  11.555
22741SOL    HW270056   8.854   9.124  11.700
22742SOL     OW70057  11.942  10.438  14.878
22742SOL    HW170058  11.857  10.472   0.024
22742SOL    HW270059  11.982  10.510  14.831
22743SOL     OW70060   3.880  10.811   5.175
22743SOL    HW170061   3.903  10.719   5.160
22743SOL    HW270062   3.848  10.842   5.090
22744SOL     OW70063   5.605  12.115   2.503
22744SOL    HW170064   5.520  12.087   2.537
22744SOL    HW270065   5.584  12.184   2.439
22745SOL     OW70066   9.992   3.272   9.809
22745SOL    HW170067   9.995   3.366   9.793
22745SOL    HW270068   9.923   3.261   9.874
22746SOL     OW70069   9.161  12.955  10.929
22746SOL    HW170070   9.147  12.903  10.849
22746SOL    HW270071   9.256  12.960  10.938
22747SOL     OW70072  11.935   7.002   6.956
22747SOL    HW170073  11.862   7.064   6.953
22747SOL    HW270074  11.998   7.042   7.017
22748SOL     OW70075  12.103  14.004   5.374
22748SOL    HW170076  12.113  13.978   5.282
22748SOL    HW270077  12.057  13.931   5.415
22749SOL     OW70078   0.093   3.971   1.470
22749SOL    HW170079   0.023   3.944   1.530
22749SOL    HW270080   0.061   4.052   1.431
22750SOL     OW70081   2.689  12.289   2.772
22750SOL    HW170082   2.611  12.344   2.783
22750SOL    HW270083   2.726  12.282   2.860
22751SOL     OW70084  10.621   2.386  12.789
22751SOL    HW170085  10.703   2.417  12.826
22751SOL    HW270086  10.580   2.335  12.859
22752SOL     OW70087   5.681   8.117   3.913
22752SOL    HW170088   5.658   8.029   3.944
22752SOL    HW270089   5.699   8.166   3.993
22753SOL     OW70090  14.212  11.457  12.211
22753SOL    HW170091  14.125  11.493  12.225
22753SOL    HW270092  14.204  11.400  12.135
22754SOL     OW70093   4.902   5.405  10.221
22754SOL    HW170094   4.962   5.479  10.214
22754SOL    HW270095   4.950   5.339  10.269
22755SOL     OW70096  14.022  12.053   3.021
22755SOL    HW170097  13.955  12.001   3.065
22755SOL    HW270098  13.973  12.110   2.962
22756SOL     OW70099   7.110  12.788  11.142
22756SOL    HW170100   7.184  12.840  11.108
22756SOL    HW270101   7.033  12.839  11.118
22757SOL     OW70102   2.885   7.540  10.583
22757SOL    HW170103   2.825   7.471  10.610
22757SOL    HW270104   2.888   7.600  10.657
22758SOL     OW70105   4.883  14.124  12.557
22758SOL    HW170106   4.947  14.098  12.490
22758SOL    HW270107   4.800  14.132  12.509
22759SOL     OW70108   0.381  14.740   1.587
22759SOL    HW170109   0.411  14.795   1.659
22759SOL    HW270110   0.426  14.656   1.601
22760SOL     OW70111   3.764   5.469  13.041
22760SOL    HW170112   3.685   5.523  13.036
22760SOL    HW270113   3.827   5.514  12.984
22761SOL     OW70114   8.796   0.985   4.515
22761SOL    HW170115   8.863   0.950   4.456
22761SOL    HW270116   8.736   1.033   4.457
22762SOL     OW70117   4.004   8.596  13.627
22762SOL    HW170118   4.046   8.645  13.697
22762SOL    HW270119   3.924   8.561  13.666
22763SOL     OW70120   1.656   3.125   4.147
22763SOL    HW170121   1.668   3.078   4.065
22763SOL    HW270122   1.694   3.068   4.213
22764SOL     OW70123   7.044  12.710   0.415
22764SOL    HW170124   7.028  12.618   0.433
22764SOL    HW270125   7.139  12.720   0.421
22765SOL     OW70126   8.083  10.682  12.851
22765SOL    HW170127   8.083  10.629  12.771
22765SOL    HW270128   8.039  10.629  12.916
22766SOL     OW70129  11.466  12.121   4.039
22766SOL    HW170130  11.478  12.180   4.114
22766SOL    HW270131  11.542  12.063   4.042
22767SOL     OW70132  13.347  12.597   1.267
22767SOL    HW170133  13.395  12.659   1.322
22767SOL    HW270134  13.365  12.511   1.305
22768SOL     OW70135  11.491  14.263  12.084
22768SOL    HW170136  11.489  14.179  12.129
22768SOL    HW270137  11.519  14.326  12.151
22769SOL     OW70138   3.373   4.987  14.043
22769SOL    HW170139   3.285   4.958  14.067
22769SOL    HW270140   3.380   5.075  14.078
22770SOL     OW70141   1.405   7.959   8.196
22770SOL    HW170142   1.345   7.901   8.149
22770SOL    HW270143   1.374   7.959   8.286
22771SOL     OW70144   0.523   2.956   3.379
22771SOL    HW170145   0.436   2.925   3.357
22771SOL    HW270146   0.575   2.876   3.389
22772SOL     OW70147  14.146  11.647   5.262
22772SOL    HW170148  14.209  11.586   5.226
22772SOL    HW270149  14.118  11.607   5.345
22773SOL     OW70150   5.196   1.494  12.554
22773SOL    HW170151   5.170   1.516  12.465
22773SOL    HW270152   5.118   1.514  12.607
22774SOL     OW70153  11.876  11.590   2.494
22774SOL    HW170154  11.966  11.579   2.524
22774SOL    HW270155  11.877  11.563   2.403
22775SOL     OW70156   4.767   4.434  14.102
22775SOL    HW170157   4.744   4.357  14.050
22775SOL    HW270158   4.790   4.501  14.038
22776SOL     OW70159   0.842   3.048  10.822
22776SOL    HW170160   0.905   3.085  10.760
22776SOL    HW270161   0.792   3.123  10.853
22777SOL     OW70162  11.380   5.185   5.286
22777SOL    HW170163  11.291   5.150   5.294
22777SOL    HW270164  11.405   5.165   5.196
22778SOL     OW70165   1.903   2.646   1.912
22778SOL    HW170166   1.975   2.709   1.907
22778SOL    HW270167   1.946   2.562   1.929
22779SOL     OW70168   5.484  10.608   4.423
22779SOL    HW170169   5.481  10.522   4.465
22779SOL    HW270170   5.468  10.670   4.494
22780SOL     OW70171   0.573   6.795  14.792
22780SOL    HW170172   0.536   6.857  14.855
22780SOL    HW270173   0.648   6.841  14.755
22781SOL     OW70174   1.709   4.437   5.174
22781SOL    HW170175   1.787   4.420   5.121
22781SOL    HW270176   1.637   4.400   5.122
22782SOL     OW70177   9.031   7.846   8.234
22782SOL    HW170178   9.012   7.939   8.248
22782SOL    HW270179   9.071   7.817   8.316
22783SOL     OW70180   9.205   3.581   3.013
22783SOL    HW170181   9.127   3.530   3.034
22783SOL    HW270182   9.246   3.598   3.098
22784SOL     OW70183  12.690   2.827   7.308
22784SOL    HW170184  12.734   2.780   7.380
22784SOL    HW270185  12.761   2.875   7.265
22785SOL     OW70186  14.305   9.684  13.281
22785SOL    HW170187  14.268   9.611  13.232
22785SOL    HW270188  14.308   9.653  13.371
22786SOL     OW70189   7.993  12.378   2.799
22786SOL    HW170190   7.912  12.332   2.820
22786SOL    HW270191   7.966  12.447   2.738
22787SOL     OW70192   1.523   8.617  12.351
22787SOL    HW170193   1.517   8.526  12.377
22787SOL    HW270194   1.551   8.614  12.259
22788SOL     OW70195  13.100   4.435   9.610
22788SOL    HW170196  13.130   4.506   9.554
22788SOL    HW270197  13.004   4.440   9.606
22789SOL     OW70198  11.233   0.642   2.644
22789SOL    HW170199  11.212   0.732   2.620
22789SOL    HW270200  11.315   0.623   2.597
22790SOL     OW70201   8.050  13.433   6.895
22790SOL    HW170202   7.982  13.418   6.829
22790SOL    HW270203   8.122  13.376   6.868
22791SOL     OW70204  13.543   7.922   4.450
22791SOL    HW170205  13.465   7.946   4.500
22791SOL    HW270206  13.612   7.978   4.484
22792SOL     OW70207  14.505   5.942   0.439
22792SOL    HW170208  14.564   5.925   0.366
22792SOL    HW270209  14.563   5.967   0.511
22793SOL     OW70210   6.048   4.801   3.714
22793SOL    HW170211   6.058   4.847   3.797
22793SOL    HW270212   5.987   4.854   3.664
22794SOL     OW70213   4.066   2.719   9.643
22794SOL    HW170214   4.005   2.669   9.589
22794SOL    HW270215   4.133   2.750   9.582
22795SOL     OW70216   6.469   1.040  12.391
22795SOL    HW170217   6.491   1.131  12.372
22795SOL    HW270218   6.418   1.011  12.316
22796SOL     OW70219   5.455  10.964   9.093
22796SOL    HW170220   5.466  10.889   9.035
22796SOL    HW270221   5.473  10.929   9.181
22797SOL     OW70222   7.563   8.027   4.167
22797SOL    HW170223   7.646   8.072   4.149
22797SOL    HW270224   7.521   8.080   4.234
22798SOL     OW70225   2.139   1.388   7.841
22798SOL    HW170226   2.121   1.352   7.754
22798SOL    HW270227   2.156   1.312   7.896
22799SOL     OW70228   7.434  12.365   5.875
22799SOL    HW170229   7.349  12.360   5.919
22799SOL    HW270230   7.495  12.394   5.943
22800SOL     OW70231  10.325  11.130   8.621
22800SOL    HW170232  10.377  11.114   8.700
22800SOL    HW270233  10.336  11.223   8.604
22801SOL     OW70234   7.220   1.674   1.967
22801SOL    HW170235   7.293   1.638   1.917
22801SOL    HW270236   7.149   1.610   1.956
22802SOL     OW70237   8.413   9.821  14.461
22802SOL    HW170238   8.365   9.898  14.492
22802SOL    HW270239   8.487   9.813  14.520
22803SOL     OW70240   4.478   0.050   9.894
22803SOL    HW170241   4.537   0.028   9.822
22803SOL    HW270242   4.472   0.145   9.892
22804SOL     OW70243  13.283  13.415  11.106
22804SOL    HW170244  13.358  13.389  11.159
22804SOL    HW270245  13.294  13.368  11.024
22805SOL     OW70246   9.810  10.634   5.904
22805SOL    HW170247   9.774  10.688   5.974
22805SOL    HW270248   9.796  10.685   5.825
22806SOL     OW70249  13.655  12.848   1.619
22806SOL    HW170250  13.746  12.834   1.597
22806SOL    HW270251  13.656  12.920   1.683
22807SOL     OW70252  12.774   8.107   6.073
22807SOL    HW170253  12.799   8.021   6.107
22807SOL    HW270254  12.686   8.094   6.039
22808SOL     OW70255   3.063  12.566  13.512
22808SOL    HW170256   3.146  12.592  13.553
22808SOL    HW270257   3.057  12.472  13.530
22809SOL     OW70258  12.817  12.684  14.755
22809SOL    HW170259  12.781  12.624  14.690
22809SOL    HW270260  12.864  12.628  14.816
22810SOL     OW70261   1.201   6.197  14.734
22810SOL    HW170262   1.148   6.231  14.662
22810SOL    HW270263   1.291   6.204  14.703
22811SOL     OW70264  13.948  13.904  11.725
22811SOL    HW170265  13.893  13.826  11.725
22811SOL    HW270266  14.037  13.870  11.742
22812SOL     OW70267   1.953  11.018  10.170
22812SOL    HW170268   1.979  11.103  10.206
22812SOL    HW270269   2.000  11.012  10.087
22813SOL     OW70270   0.686   2.518   2.395
22813SOL    HW170271   0.620   2.507   2.464
22813SOL    HW270272   0.663   2.451   2.330
22814SOL     OW70273   2.775   1.708   1.537
22814SOL    HW170274   2.851   1.685   1.590
22814SOL    HW270275   2.710   1.640   1.557
22815SOL     OW70276   8.065   7.378   0.786
22815SOL    HW170277   8.045   7.449   0.848
22815SOL    HW270278   7.993   7.379   0.723
22816SOL     OW70279  11.000  14.302   2.225
22816SOL    HW170280  10.964  14.218   2.195
22816SOL    HW270281  10.949  14.323   2.303
22817SOL     OW70282  11.012   6.432   5.967
22817SOL    HW170283  11.000   6.369   5.895
22817SOL    HW270284  10.924   6.461   5.988
22818SOL     OW70285   4.038   0.403  10.802
22818SOL    HW170286   3.960   0.350  10.815
22818SOL    HW270287   4.061   0.434  10.889
22819SOL     OW70288   0.534   8.338   2.142
22819SOL    HW170289   0.564   8.310   2.056
22819SOL    HW270290   0.537   8.258   2.195
22820SOL     OW70291  11.482   3.787   1.341
22820SOL    HW170292  11.430   3.714   1.373
22820SOL    HW270293  11.484   3.775   1.246
22821SOL     OW70294   4.163  13.224  13.781
22821SOL    HW170295   4.117  13.196  13.860
22821SOL    HW270296   4.229  13.157  13.768
22822SOL     OW70297   2.156  13.157   9.165
22822SOL    HW170298   2.154  13.064   9.140
22822SOL    HW270299   2.172  13.156   9.260
22823SOL     OW70300   1.263   6.180   4.462
22823SOL    HW170301   1.288   6.094   4.427
22823SOL    HW270302   1.236   6.162   4.552
22824SOL     OW70303   3.287  10.154  14.619
22824SOL    HW170304   3.214  10.093  14.622
22824SOL    HW270305   3.304  10.167  14.525
22825SOL     OW70306  10.394  11.006   5.618
22825SOL    HW170307  10.301  11.000   5.637
22825SOL    HW270308  10.406  11.094   5.581
22826SOL     OW70309  14.147   6.256  11.568
22826SOL    HW170310  14.183   6.189  11.626
22826SOL    HW270311  14.202   6.252  11.490
22827SOL     OW70312  10.223  12.399  14.020
22827SOL    HW170313  10.181  12.351  13.949
22827SOL    HW270314  10.222  12.491  13.992
22828SOL     OW70315   8.332   0.443   4.643
22828SOL    HW170316   8.295   0.517   4.690
22828SOL    HW270317   8.357   0.479   4.558
22829SOL     OW70318   4.047   5.396   5.874
22829SOL    HW170319   4.066   5.352   5.956
22829SOL    HW270320   3.965   5.443   5.891
22830SOL     OW70321   7.245   9.339   9.033
22830SOL    HW170322   7.340   9.353   9.035
22830SOL    HW270323   7.212   9.385   9.110
22831SOL     OW70324  10.752   0.639   7.236
22831SOL    HW170325  10.836   0.660   7.276
22831SOL    HW270326  10.691   0.631   7.310
22832SOL     OW70327  13.252  14.214   3.515
22832SOL    HW170328  13.322  14.273   3.544
22832SOL    HW270329  13.174  14.244   3.562
22833SOL     OW70330   4.116   7.096   1.250
22833SOL    HW170331   4.189   7.101   1.311
22833SOL    HW270332   4.098   7.002   1.241
22834SOL     OW70333   6.578   1.845   3.341
22834SOL    HW170334   6.636   1.920   3.327
22834SOL    HW270335   6.505   1.879   3.393
22835SOL     OW70336   5.113  12.251   6.902
22835SOL    HW170337   5.048  12.184   6.880
22835SOL    HW270338   5.091  12.276   6.992
22836SOL     OW70339  12.998  11.169   0.325
22836SOL    HW170340  12.943  11.113   0.271
22836SOL    HW270341  12.939  11.236   0.359
22837SOL     OW70342   4.129  14.735   5.351
22837SOL    HW170343   4.158  14.662   5.405
22837SOL    HW270344   4.202  14.798   5.356
22838SOL     OW70345  11.389   1.020  11.472
22838SOL    HW170346  11.483   1.033  11.465
22838SOL    HW270347  11.377   0.972  11.554
22839SOL     OW70348   0.281   5.762  12.703
22839SOL    HW170349   0.232   5.719  12.634
22839SOL    HW270350   0.297   5.850  12.671
22840SOL     OW70351   0.962  12.132  11.750
22840SOL    HW170352   0.943  12.155  11.659
22840SOL    HW270353   1.019  12.055  11.744
22841SOL     OW70354   2.497  13.531   9.100
22841SOL    HW170355   2.522  13.517   9.191
22841SOL    HW270356   2.450  13.451   9.075
22842SOL     OW70357   0.042  10.981   5.068
22842SOL    HW170358   0.009  11.069   5.086
22842SOL    HW270359   0.115  10.970   5.129
22843SOL     OW70360   2.602   2.792   1.567
22843SOL    HW170361   2.664   2.863   1.586
22843SOL    HW270362   2.657   2.717   1.547
22844SOL     OW70363   3.130   4.436  11.883
22844SOL    HW170364   3.177   4.433  11.967
22844SOL    HW270365   3.068   4.508  11.893
22845SOL     OW70366  13.626   0.502   6.832
22845SOL    HW170367  13.539   0.484   6.797
22845SOL    HW270368  13.632   0.597   6.835
22846SOL     OW70369   6.589   2.388   2.271
22846SOL    HW170370   6.505   2.422   2.241
22846SOL    HW270371   6.595   2.416   2.363
22847SOL     OW70372  13.598   2.583   1.621
22847SOL    HW170373  13.517   2.631   1.600
22847SOL    HW270374  13.569   2.494   1.638
22848SOL     OW70375   2.866  10.332   1.522
22848SOL    HW170376   2.885  10.426   1.528
22848SOL    HW270377   2.820  10.322   1.438
22849SOL     OW70378   1.348   0.150   2.513
22849SOL    HW170379   1.308   0.127   2.597
22849SOL    HW270380   1.295   0.222   2.480
22850SOL     OW70381  10.544   2.319  11.110
22850SOL    HW170382  10.554   2.369  11.029
22850SOL    HW270383  10.451   2.298  11.115
22851SOL     OW70384   8.272   1.266  10.247
22851SOL    HW170385   8.194   1.277  10.194
22851SOL    HW270386   8.296   1.174  10.235
22852SOL     OW70387   6.272   8.907   1.610
22852SOL    HW170388   6.307   8.871   1.529
22852SOL    HW270389   6.224   8.834   1.650
22853SOL     OW70390  11.343  12.464  11.572
22853SOL    HW170391  11.396  12.423  11.641
22853SOL    HW270392  11.390  12.544  11.550
22854SOL     OW70393  14.146   5.279   0.733
22854SOL    HW170394  14.154   5.367   0.770
22854SOL    HW270395  14.185   5.222   0.799
22855SOL     OW70396   9.694   5.852   9.578
22855SOL    HW170397   9.787   5.862   9.597
22855SOL    HW270398   9.652   5.851   9.664
22856SOL     OW70399  12.683   1.550   7.350
22856SOL    HW170400  12.716   1.510   7.432
22856SOL    HW270401  12.663   1.475   7.294
22857SOL     OW70402   8.843   8.096   6.744
22857SOL    HW170403   8.771   8.034   6.754
22857SOL    HW270404   8.857   8.130   6.833
22858SOL     OW70405   5.175   6.818  13.971
22858SOL    HW170406   5.129   6.742  13.933
22858SOL    HW270407   5.259   6.820  13.925
22859SOL     OW70408  14.093   7.786  13.314
22859SOL    HW170409  14.064   7.716  13.256
22859SOL    HW270410  14.071   7.755  13.402
22860SOL     OW70411   3.360   1.527  10.154
22860SOL    HW170412   3.428   1.488  10.209
22860SOL    HW270413   3.396   1.524  10.065
22861SOL     OW70414  14.606  12.211  11.720
22861SOL    HW170415  14.590  12.290  11.670
22861SOL    HW270416  14.635  12.242  11.806
22862SOL     OW70417   1.538   3.457   6.591
22862SOL    HW170418   1.538   3.537   6.643
22862SOL    HW270419   1.552   3.387   6.655
22863SOL     OW70420   1.087  13.350  10.730
22863SOL    HW170421   1.054  13.310  10.650
22863SOL    HW270422   1.052  13.439  10.728
22864SOL     OW70423   9.554   5.707   7.189
22864SOL    HW170424   9.477   5.708   7.132
22864SOL    HW270425   9.591   5.796   7.181
22865SOL     OW70426   6.809   5.315  13.466
22865SOL    HW170427   6.827   5.243  13.526
22865SOL    HW270428   6.861   5.388  13.500
22866SOL     OW70429   4.304   6.680   1.562
22866SOL    HW170430   4.263   6.618   1.622
22866SOL    HW270431   4.299   6.638   1.476
22867SOL     OW70432  13.145   4.619  10.334
22867SOL    HW170433  13.055   4.588  10.344
22867SOL    HW270434  13.143   4.672  10.254
22868SOL     OW70435   1.804   3.020   8.494
22868SOL    HW170436   1.885   2.987   8.455
22868SOL    HW270437   1.750   3.046   8.420
22869SOL     OW70438   9.511   5.957   7.429
22869SOL    HW170439   9.592   5.919   7.462
22869SOL    HW270440   9.499   6.037   7.480
22870SOL     OW70441   6.375   7.146   2.427
22870SOL    HW170442   6.471   7.143   2.433
22870SOL    HW270443   6.348   7.191   2.507
22871SOL     OW70444   5.511  11.421   0.558
22871SOL    HW170445   5.546  11.496   0.508
22871SOL    HW270446   5.481  11.459   0.640
22872SOL     OW70447   5.015   0.070   0.653
22872SOL    HW170448   4.981   0.085   0.565
22872SOL    HW270449   5.040  14.860   0.654
22873SOL     OW70450   4.114   3.531   8.137
22873SOL    HW170451   4.194   3.501   8.094
22873SOL    HW270452   4.142   3.552   8.226
22874SOL     OW70453   2.143   4.076   8.759
22874SOL    HW170454   2.152   4.078   8.855
22874SOL    HW270455   2.193   3.999   8.732
22875SOL     OW70456  10.203  14.753  13.318
22875SOL    HW170457  10.269  14.684  13.315
22875SOL    HW270458  10.243  14.823  13.368
22876SOL     OW70459   4.598   0.426   8.750
22876SOL    HW170460   4.565   0.503   8.796
22876SOL    HW270461   4.543   0.354   8.782
22877SOL     OW70462   6.426   2.662  11.301
22877SOL    HW170463   6.375   2.727  11.252
22877SOL    HW270464   6.449   2.596  11.235
22878SOL     OW70465   0.729   4.252   8.208
22878SOL    HW170466   0.802   4.294   8.164
22878SOL    HW270467   0.765   4.170   8.242
22879SOL     OW70468   9.317  11.607   8.524
22879SOL    HW170469   9.361  11.574   8.446
22879SOL    HW270470   9.374  11.677   8.556
22880SOL     OW70471   1.806   1.898   4.492
22880SOL    HW170472   1.870   1.868   4.556
22880SOL    HW270473   1.731   1.926   4.545
22881SOL     OW70474   8.971   6.295   2.471
22881SOL    HW170475   9.034   6.289   2.542
22881SOL    HW270476   8.959   6.205   2.441
22882SOL     OW70477   2.108   8.079   6.153
22882SOL    HW170478   2.178   8.040   6.205
22882SOL    HW270479   2.028   8.052   6.197
22883SOL     OW70480   2.120   3.119  11.997
22883SOL    HW170481   2.214   3.133  12.005
22883SOL    HW270482   2.081   3.187  12.052
22884SOL     OW70483   8.569   9.250   1.960
22884SOL    HW170484   8.616   9.280   1.882
22884SOL    HW270485   8.481   9.285   1.950
22885SOL     OW70486   0.544  12.183   4.346
22885SOL    HW170487   0.453  12.193   4.317
22885SOL    HW270488   0.539  12.121   4.419
22886SOL     OW70489   3.140  13.180   4.284
22886SOL    HW170490   3.116  13.169   4.376
22886SOL    HW270491   3.068  13.231   4.246
22887SOL     OW70492   0.954  14.369  12.478
22887SOL    HW170493   0.862  14.356  12.499
22887SOL    HW270494   0.959  14.459  12.445
22888SOL     OW70495   4.271   2.994   0.266
22888SOL    HW170496   4.367   3.001   0.262
22888SOL    HW270497   4.252   2.990   0.359
22889SOL     OW70498  14.457  14.492   6.272
22889SOL    HW170499  14.496  14.576   6.247
22889SOL    HW270500  14.390  14.515   6.337
22890SOL     OW70501   1.720   3.071   1.565
22890SOL    HW170502   1.643   3.094   1.617
22890SOL    HW270503   1.770   3.013   1.622
22891SOL     OW70504   0.238   4.004  14.823
22891SOL    HW170505   0.304   3.950  14.866
22891SOL    HW270506   0.154   3.964  14.847
22892SOL     OW70507   6.074  13.754   2.868
22892SOL    HW170508   6.139  13.782   2.932
22892SOL    HW270509   5.991  13.759   2.915
22893SOL     OW70510  14.716   9.145   0.909
22893SOL    HW170511  14.771   9.183   0.841
22893SOL    HW270512  14.768   9.150   0.988
22894SOL     OW70513  11.780  13.819  10.989
22894SOL    HW170514  11.733  13.900  11.009
22894SOL    HW270515  11.720  13.749  11.014
22895SOL     OW70516  12.438  10.210  13.643
22895SOL    HW170517  12.433  10.299  13.677
22895SOL    HW270518  12.357  10.169  13.673
22896SOL     OW70519  12.474  10.656  12.811
22896SOL    HW170520  12.521  10.604  12.745
22896SOL    HW270521  12.503  10.746  12.794
22897SOL     OW70522  11.934  13.944  12.572
22897SOL    HW170523  11.990  13.901  12.506
22897SOL    HW270524  11.855  13.890  12.575
22898SOL     OW70525   2.189   1.941  10.399
22898SOL    HW170526   2.205   1.898  10.315
22898SOL    HW270527   2.157   1.871  10.456
22899SOL     OW70528   2.267   9.705  12.539
22899SOL    HW170529   2.226   9.661  12.614
22899SOL    HW270530   2.194   9.728  12.482
22900SOL     OW70531   4.994   4.735   6.115
22900SOL    HW170532   5.064   4.801   6.117
22900SOL    HW270533   4.913   4.786   6.111
22901SOL     OW70534   6.100   5.504   7.224
22901SOL    HW170535   6.156   5.564   7.274
22901SOL    HW270536   6.016   5.548   7.218
22902SOL     OW70537   0.048   5.853  11.442
22902SOL    HW170538  14.860   5.901  11.486
22902SOL    HW270539   0.124   5.912  11.446
22903SOL     OW70540  13.035   3.731  10.175
22903SOL    HW170541  13.108   3.712  10.234
22903SOL    HW270542  13.072   3.791  10.110
22904SOL     OW70543   5.497   4.583  11.139
22904SOL    HW170544   5.535   4.668  11.162
22904SOL    HW270545   5.537   4.560  11.055
22905SOL     OW70546  14.294   6.184  12.313
22905SOL    HW170547  14.316   6.105  12.264
22905SOL    HW270548  14.240   6.153  12.386
22906SOL     OW70549   3.714  13.111   3.549
22906SOL    HW170550   3.741  13.201   3.566
22906SOL    HW270551   3.716  13.068   3.634
22907SOL     OW70552   2.443   4.252   0.779
22907SOL    HW170553   2.485   4.196   0.844
22907SOL    HW270554   2.514   4.279   0.722
22908SOL     OW70555   2.331   1.435   0.416
22908SOL    HW170556   2.354   1.366   0.354
22908SOL    HW270557   2.325   1.391   0.501
22909SOL     OW70558   4.198   1.386   2.656
22909SOL    HW170559   4.230   1.310   2.608
22909SOL    HW270560   4.260   1.456   2.634
22910SOL     OW70561   9.945  11.981   8.374
22910SOL    HW170562   9.915  12.040   8.304
22910SOL    HW270563   9.914  11.895   8.348
22911SOL     OW70564   9.723   2.349  14.117
22911SOL    HW170565   9.786   2.404  14.071
22911SOL    HW270566   9.673   2.306  14.047
22912SOL     OW70567   0.451  11.291  14.352
22912SOL    HW170568   0.472  11.223  14.288
22912SOL    HW270569   0.373  11.258  14.397
22913SOL     OW70570  11.069  14.018  14.475
22913SOL    HW170571  11.050  14.072  14.398
22913SOL    HW270572  11.163  14.028  14.489
22914SOL     OW70573   7.456   8.472  12.276
22914SOL    HW170574   7.400   8.472  12.198
22914SOL    HW270575   7.498   8.386  12.274
22915SOL     OW70576   8.818  14.135  10.144
22915SOL    HW170577   8.857  14.181  10.070
22915SOL    HW270578   8.848  14.045  10.134
22916SOL     OW70579   8.535   0.020  14.018
22916SOL    HW170580   8.456   0.065  14.046
22916SOL    HW270581   8.606   0.081  14.038
22917SOL     OW70582   4.077   8.031  11.708
22917SOL    HW170583   4.067   8.122  11.682
22917SOL    HW270584   4.052   8.029  11.800
22918SOL     OW70585   6.724  11.417   7.514
22918SOL    HW170586   6.809  11.388   7.548
22918SOL    HW270587   6.727  11.513   7.520
22919SOL     OW70588   0.252   6.535   3.610
22919SOL    HW170589   0.330   6.518   3.663
22919SOL    HW270590   0.287   6.551   3.522
22920SOL     OW70591   3.776   7.365   1.016
22920SOL    HW170592   3.841   7.301   1.047
22920SOL    HW270593   3.774   7.432   1.083
22921SOL     OW70594   6.687   2.111  14.281
22921SOL    HW170595   6.674   2.062  14.363
22921SOL    HW270596   6.754   2.176  14.302
22922SOL     OW70597   9.145   9.967  13.763
22922SOL    HW170598   9.066  10.000  13.806
22922SOL    HW270599   9.157   9.879  13.800
22923SOL     OW70600   7.376   4.337  14.769
22923SOL    HW170601   7.399   4.281  14.843
22923SOL    HW270602   7.282   4.354  14.780
22924SOL     OW70603  14.198   3.083   8.980
22924SOL    HW170604  14.155   3.084   8.895
22924SOL    HW270605  14.153   3.014   9.030
22925SOL     OW70606   1.721  13.694  13.712
22925SOL    HW170607   1.714  13.616  13.767
22925SOL    HW270608   1.719  13.659  13.623
22926SOL     OW70609  13.178   5.790   2.777
22926SOL    HW170610  13.090   5.780   2.741
22926SOL    HW270611  13.191   5.712   2.831
22927SOL     OW70612  13.413  13.327   7.572
22927SOL    HW170613  13.326  13.344   7.609
22927SOL    HW270614  13.428  13.400   7.512
22928SOL     OW70615   1.973   2.031   9.343
22928SOL    HW170616   2.063   2.064   9.337
22928SOL    HW270617   1.924   2.083   9.278
22929SOL     OW70618   2.914   5.346   9.850
22929SOL    HW170619   2.822   5.325   9.836
22929SOL    HW270620   2.930   5.423   9.796
22930SOL     OW70621  12.849   3.342   6.150
22930SOL    HW170622  12.833   3.248   6.153
22930SOL    HW270623  12.807   3.376   6.229
22931SOL     OW70624   4.617   0.787   2.996
22931SOL    HW170625   4.577   0.864   2.956
22931SOL    HW270626   4.545   0.724   3.004
22932SOL     OW70627   6.155  12.796  11.042
22932SOL    HW170628   6.223  12.742  11.081
22932SOL    HW270629   6.073  12.754  11.068
22933SOL     OW70630   8.966  12.680   1.303
22933SOL    HW170631   9.004  12.653   1.220
22933SOL    HW270632   9.041  12.693   1.361
22934SOL     OW70633  11.171  11.296  14.318
22934SOL    HW170634  11.242  11.248  14.360
22934SOL    HW270635  11.164  11.378  14.368
22935SOL     OW70636   1.259   6.065   1.906
22935SOL    HW170637   1.214   6.108   1.833
22935SOL    HW270638   1.249   5.971   1.889
22936SOL     OW70639   4.721   5.121   7.269
22936SOL    HW170640   4.746   5.178   7.341
22936SOL    HW270641   4.719   5.033   7.307
22937SOL     OW70642   8.007  12.364  14.156
22937SOL    HW170643   7.966  12.277  14.152
22937SOL    HW270644   7.933  12.424  14.167
22938SOL     OW70645   1.444  11.964   5.823
22938SOL    HW170646   1.409  12.016   5.896
22938SOL    HW270647   1.539  11.972   5.831
22939SOL     OW70648   4.006  12.894   4.800
22939SOL    HW170649   4.056  12.880   4.881
22939SOL    HW270650   4.065  12.865   4.731
22940SOL     OW70651   3.063   3.226   7.229
22940SOL    HW170652   3.020   3.216   7.314
22940SOL    HW270653   3.142   3.277   7.248
22941SOL     OW70654   0.894  13.774   7.325
22941SOL    HW170655   0.888  13.678   7.329
22941SOL    HW270656   0.826  13.800   7.263
22942SOL     OW70657   0.987   1.318   1.842
22942SOL    HW170658   0.909   1.370   1.825
22942SOL    HW270659   1.058   1.382   1.851
22943SOL     OW70660   2.849  10.988  14.813
22943SOL    HW170661   2.872  10.910  14.763
22943SOL    HW270662   2.831  11.055  14.747
22944SOL     OW70663  13.292   0.971  11.992
22944SOL    HW170664  13.300   0.914  12.068
22944SOL    HW270665  13.321   0.917  11.919
22945SOL     OW70666   5.159  12.469   0.834
22945SOL    HW170667   5.120  12.489   0.918
22945SOL    HW270668   5.189  12.553   0.800
22946SOL     OW70669   0.222  11.093   1.834
22946SOL    HW170670   0.256  11.164   1.889
22946SOL    HW270671   0.252  11.115   1.746
22947SOL     OW70672   8.191   2.684   6.546
22947SOL    HW170673   8.213   2.744   6.475
22947SOL    HW270674   8.120   2.630   6.511
22948SOL     OW70675   3.996   2.948  11.596
22948SOL    HW170676   3.934   2.876  11.585
22948SOL    HW270677   4.075   2.920  11.551
22949SOL     OW70678   8.791   7.635  12.736
22949SOL    HW170679   8.707   7.665  12.770
22949SOL    HW270680   8.807   7.690  12.659
22950SOL     OW70681   6.170   3.564  11.898
22950SOL    HW170682   6.236   3.551  11.965
22950SOL    HW270683   6.220   3.586  11.819
22951SOL     OW70684   6.397  14.715  13.859
22951SOL    HW170685   6.457  14.761  13.799
22951SOL    HW270686   6.424  14.623  13.854
22952SOL     OW70687  13.086  11.702   8.549
22952SOL    HW170688  13.010  11.741   8.592
22952SOL    HW270689  13.106  11.760   8.476
22953SOL     OW70690   4.286  13.472   0.579
22953SOL    HW170691   4.275  13.378   0.564
22953SOL    HW270692   4.317  13.506   0.494
22954SOL     OW70693   7.739   8.900   7.056
22954SOL    HW170694   7.705   8.876   6.969
22954SOL    HW270695   7.748   8.995   7.053
22955SOL     OW70696   7.451   7.120   9.637
22955SOL    HW170697   7.475   7.209   9.662
22955SOL    HW270698   7.455   7.121   9.541
22956SOL     OW70699   1.523   4.406   9.159
22956SOL    HW170700   1.595   4.438   9.213
22956SOL    HW270701   1.532   4.311   9.161
22957SOL     OW70702   9.027  11.352  12.790
22957SOL    HW170703   8.997  11.382  12.704
22957SOL    HW270704   9.038  11.258  12.781
22958SOL     OW70705   2.367   3.066   0.649
22958SOL    HW170706   2.455   3.046   0.682
22958SOL    HW270707   2.322   2.982   0.651
22959SOL     OW70708   4.590  13.708   6.964
22959SOL    HW170709   4.581  13.746   6.877
22959SOL    HW270710   4.671  13.745   6.999
22960SOL     OW70711   2.567   7.341  12.622
22960SOL    HW170712   2.483   7.295  12.613
22960SOL    HW270713   2.599   7.350  12.533
22961SOL     OW70714   1.386   9.780  10.809
22961SOL    HW170715   1.347   9.724  10.876
22961SOL    HW270716   1.337   9.761  10.730
22962SOL     OW70717   0.381   5.880  12.131
22962SOL    HW170718   0.454   5.940  12.146
22962SOL    HW270719   0.421   5.801  12.096
22963SOL     OW70720   5.336  12.196   5.378
22963SOL    HW170721   5.376  12.132   5.436
22963SOL    HW270722   5.394  12.273   5.384
22964SOL     OW70723  12.581  14.442   4.956
22964SOL    HW170724  12.530  14.395   4.890
22964SOL    HW270725  12.520  14.455   5.029
22965SOL     OW70726  10.130   0.244   0.378
22965SOL    HW170727  10.057   0.307   0.378
22965SOL    HW270728  10.170   0.254   0.292
22966SOL     OW70729  12.249   2.992   3.069
22966SOL    HW170730  12.243   3.046   2.990
22966SOL    HW270731  12.215   2.907   3.042
22967SOL     OW70732  12.932  14.620   3.391
22967SOL    HW170733  12.878  14.560   3.442
22967SOL    HW270734  13.008  14.636   3.446
22968SOL     OW70735   2.996   1.004   4.688
22968SOL    HW170736   2.944   0.937   4.642
22968SOL    HW270737   3.087   0.981   4.668
22969SOL     OW70738  14.489  13.662  11.417
22969SOL    HW170739  14.486  13.707  11.501
22969SOL    HW270740  14.515  13.731  11.355
22970SOL     OW70741   0.642   0.960  10.345
22970SOL    HW170742   0.566   0.975  10.402
22970SOL    HW270743   0.612   0.892  10.284
22971SOL     OW70744   2.170   0.508   4.142
22971SOL    HW170745   2.243   0.451   4.168
22971SOL    HW270746   2.209   0.571   4.082
22972SOL     OW70747   5.400   6.128   7.341
22972SOL    HW170748   5.367   6.206   7.386
22972SOL    HW270749   5.421   6.158   7.253
22973SOL     OW70750  10.392   0.492   3.023
22973SOL    HW170751  10.344   0.460   2.946
22973SOL    HW270752  10.457   0.424   3.040
22974SOL     OW70753  11.086   3.220  11.779
22974SOL    HW170754  11.001   3.264  11.786
22974SOL    HW270755  11.149   3.282  11.816
22975SOL     OW70756  12.281   9.309   8.454
22975SOL    HW170757  12.190   9.304   8.427
22975SOL    HW270758  12.305   9.219   8.474
22976SOL     OW70759   3.625  13.141   5.504
22976SOL    HW170760   3.634  13.166   5.596
22976SOL    HW270761   3.693  13.191   5.459
22977SOL     OW70762  13.178   0.110   1.574
22977SOL    HW170763  13.151   0.189   1.527
22977SOL    HW270764  13.248   0.138   1.632
22978SOL     OW70765   6.357   0.244   5.659
22978SOL    HW170766   6.332   0.312   5.723
22978SOL    HW270767   6.292   0.251   5.589
22979SOL     OW70768   4.493  11.877   5.611
22979SOL    HW170769   4.450  11.917   5.686
22979SOL    HW270770   4.511  11.950   5.552
22980SOL     OW70771  11.166  13.929   0.521
22980SOL    HW170772  11.109  13.956   0.449
22980SOL    HW270773  11.185  13.836   0.504
22981SOL     OW70774  10.746  13.422  12.119
22981SOL    HW170775  10.828  13.377  12.099
22981SOL    HW270776  10.732  13.406  12.212
22982SOL     OW70777   7.528   0.363  13.116
22982SOL    HW170778   7.494   0.321  13.195
22982SOL    HW270779   7.498   0.307  13.044
22983SOL     OW70780   0.670   4.810   7.180
22983SOL    HW170781   0.659   4.824   7.086
22983SOL    HW270782   0.726   4.733   7.186
22984SOL     OW70783   6.790   3.014   2.734
22984SOL    HW170784   6.848   2.980   2.802
22984SOL    HW270785   6.783   2.944   2.670
22985SOL     OW70786  10.150  13.445   5.921
22985SOL    HW170787  10.164  13.399   5.838
22985SOL    HW270788  10.076  13.504   5.903
22986SOL     OW70789  11.247   2.692  11.560
22986SOL    HW170790  11.171   2.681  11.504
22986SOL    HW270791  11.294   2.767  11.524
22987SOL     OW70792   7.965   7.619   0.385
22987SOL    HW170793   7.893   7.682   0.381
22987SOL    HW270794   7.988   7.602   0.294
22988SOL     OW70795   2.867   1.399   5.030
22988SOL    HW170796   2.903   1.368   5.113
22988SOL    HW270797   2.894   1.332   4.967
22989SOL     OW70798   0.205  13.299  14.547
22989SOL    HW170799   0.128  13.340  14.508
22989SOL    HW270800   0.252  13.261  14.473
22990SOL     OW70801   4.862   6.833  13.742
22990SOL    HW170802   4.773   6.808  13.764
22990SOL    HW270803   4.852   6.907  13.681
22991SOL     OW70804   0.647   8.397  10.312
22991SOL    HW170805   0.578   8.392  10.246
22991SOL    HW270806   0.719   8.347  10.276
22992SOL     OW70807  12.157   7.239  12.410
22992SOL    HW170808  12.170   7.254  12.503
22992SOL    HW270809  12.185   7.321  12.369
22993SOL     OW70810   2.044   0.511   5.452
22993SOL    HW170811   1.956   0.519   5.488
22993SOL    HW270812   2.031   0.483   5.361
22994SOL     OW70813  12.848   0.969   3.297
22994SOL    HW170814  12.857   0.909   3.223
22994SOL    HW270815  12.756   0.963   3.321
22995SOL     OW70816   2.349   7.873  11.157
22995SOL    HW170817   2.319   7.783  11.142
22995SOL    HW270818   2.325   7.919  11.076
22996SOL     OW70819   1.529  10.259  12.450
22996SOL    HW170820   1.496  10.349  12.457
22996SOL    HW270821   1.622  10.269  12.426
22997SOL     OW70822  12.123   2.628   8.971
22997SOL    HW170823  12.082   2.541   8.982
22997SOL    HW270824  12.160   2.647   9.057
22998SOL     OW70825   2.066   0.648   0.648
22998SOL    HW170826   2.006   0.708   0.694
22998SOL    HW270827   2.010   0.574   0.622
22999SOL     OW70828  12.973   3.829  13.928
22999SOL    HW170829  12.964   3.853  14.020
22999SOL    HW270830  12.933   3.902  13.880
23000SOL     OW70831   9.871   7.734   3.552
23000SOL    HW170832   9.910   7.732   3.640
23000SOL    HW270833   9.831   7.821   3.545
23001SOL     OW70834   9.320  13.133   5.567
23001SOL    HW170835   9.386  13.199   5.547
23001SOL    HW270836   9.347  13.056   5.517
23002SOL     OW70837  10.937  12.477   1.887
23002SOL    HW170838  10.998  12.457   1.958
23002SOL    HW270839  10.854  12.498   1.931
23003SOL     OW70840  11.718  13.077   8.796
23003SOL    HW170841  11.750  13.033   8.717
23003SOL    HW270842  11.790  13.070   8.858
23004SOL     OW70843   9.330  13.575  11.701
23004SOL    HW170844   9.311  13.666  11.677
23004SOL    HW270845   9.253  13.547  11.751
23005SOL     OW70846   9.021   4.395  12.451
23005SOL    HW170847   9.087   4.396  12.382
23005SOL    HW270848   9.066   4.360  12.528
23006SOL     OW70849   6.327  10.745   4.044
23006SOL    HW170850   6.261  10.736   4.113
23006SOL    HW270851   6.299  10.683   3.976
23007SOL     OW70852   8.078   0.731   8.720
23007SOL    HW170853   8.004   0.705   8.665
23007SOL    HW270854   8.115   0.808   8.676
23008SOL     OW70855  13.226   4.461   1.914
23008SOL    HW170856  13.229   4.447   2.009
23008SOL    HW270857  13.150   4.519   1.902
23009SOL     OW70858   1.862   7.067   1.338
23009SOL    HW170859   1.844   7.108   1.423
23009SOL    HW270860   1.790   7.005   1.326
23010SOL     OW70861   2.723   1.096   9.111
23010SOL    HW170862   2.694   1.097   9.020
23010SOL    HW270863   2.650   1.059   9.160
23011SOL     OW70864   6.133   0.117  14.080
23011SOL    HW170865   6.147   0.141  14.172
23011SOL    HW270866   6.214   0.074  14.054
23012SOL     OW70867   5.153  12.443   4.577
23012SOL    HW170868   5.093  12.506   4.537
23012SOL    HW270869   5.178  12.482   4.660
23013SOL     OW70870   0.888  13.161   4.715
23013SOL    HW170871   0.958  13.224   4.697
23013SOL    HW270872   0.816  13.214   4.748
23014SOL     OW70873   0.931  10.340   1.177
23014SOL    HW170874   1.007  10.370   1.227
23014SOL    HW270875   0.967  10.278   1.114
23015SOL     OW70876   4.935   6.813  12.843
23015SOL    HW170877   4.861   6.805  12.783
23015SOL    HW270878   4.897   6.849  12.923
23016SOL     OW70879   1.266   6.527   9.441
23016SOL    HW170880   1.294   6.617   9.458
23016SOL    HW270881   1.347   6.480   9.423
23017SOL     OW70882   7.510  13.234   5.253
23017SOL    HW170883   7.423  13.222   5.290
23017SOL    HW270884   7.520  13.161   5.192
23018SOL     OW70885   7.921   3.195  12.896
23018SOL    HW170886   7.915   3.153  12.982
23018SOL    HW270887   7.877   3.133  12.836
23019SOL     OW70888   8.779   7.727  14.157
23019SOL    HW170889   8.779   7.812  14.200
23019SOL    HW270890   8.719   7.674  14.209
23020SOL     OW70891   2.514  12.630   4.161
23020SOL    HW170892   2.517  12.666   4.072
23020SOL    HW270893   2.428  12.656   4.193
23021SOL     OW70894  12.156   9.316  13.177
23021SOL    HW170895  12.173   9.333  13.084
23021SOL    HW270896  12.240   9.331  13.220
23022SOL     OW70897   4.544   0.391   1.287
23022SOL    HW170898   4.580   0.466   1.335
23022SOL    HW270899   4.507   0.429   1.208
23023SOL     OW70900   7.646   7.366  12.338
23023SOL    HW170901   7.553   7.371  12.317
23023SOL    HW270902   7.685   7.319  12.265
23024SOL     OW70903  13.991   2.546   3.405
23024SOL    HW170904  13.985   2.508   3.318
23024SOL    HW270905  13.905   2.531   3.444
23025SOL     OW70906   2.366   5.638  12.160
23025SOL    HW170907   2.384   5.607  12.248
23025SOL    HW270908   2.275   5.669  12.164
23026SOL     OW70909  13.525   2.926   7.274
23026SOL    HW170910  13.483   2.863   7.216
23026SOL    HW270911  13.472   3.006   7.267
23027SOL     OW70912   7.832   4.036   9.440
23027SOL    HW170913   7.828   4.016   9.534
23027SOL    HW270914   7.829   3.950   9.397
23028SOL     OW70915   4.117  11.087  13.293
23028SOL    HW170916   4.175  11.027  13.340
23028SOL    HW270917   4.175  11.133  13.232
23029SOL     OW70918   0.861  14.728  13.437
23029SOL    HW170919   0.777  14.689  13.412
23029SOL    HW270920   0.858  14.816  13.399
23030SOL     OW70921   7.067  14.274   7.884
23030SOL    HW170922   7.054  14.349   7.941
23030SOL    HW270923   7.114  14.210   7.938
23031SOL     OW70924  10.703  13.638  14.808
23031SOL    HW170925  10.784  13.677  14.843
23031SOL    HW270926  10.680  13.571  14.872
23032SOL     OW70927   8.533   2.917   3.855
23032SOL    HW170928   8.604   2.884   3.799
23032SOL    HW270929   8.504   2.997   3.812
23033SOL     OW70930  11.533  13.123   4.157
23033SOL    HW170931  11.504  13.084   4.240
23033SOL    HW270932  11.463  13.183   4.133
23034SOL     OW70933  10.695   2.712   3.386
23034SOL    HW170934  10.620   2.656   3.367
23034SOL    HW270935  10.659   2.779   3.446
23035SOL     OW70936   0.305   5.927   6.944
23035SOL    HW170937   0.325   6.004   6.997
23035SOL    HW270938   0.375   5.865   6.964
23036SOL     OW70939  12.857  10.713   6.399
23036SOL    HW170940  12.919  10.686   6.332
23036SOL    HW270941  12.823  10.797   6.368
23037SOL     OW70942   2.217   1.722   6.177
23037SOL    HW170943   2.233   1.670   6.255
23037SOL    HW270944   2.280   1.794   6.182
23038SOL     OW70945  13.537   9.880   3.942
23038SOL    HW170946  13.619   9.906   3.985
23038SOL    HW270947  13.537   9.784   3.948
23039SOL     OW70948   9.300   1.750   2.404
23039SOL    HW170949   9.372   1.733   2.465
23039SOL    HW270950   9.329   1.827   2.354
23040SOL     OW70951   4.592  11.296   0.070
23040SOL    HW170952   4.602  11.372   0.128
23040SOL    HW270953   4.620  11.222   0.122
23041SOL     OW70954   5.359   0.259   8.945
23041SOL    HW170955   5.375   0.203   8.870
23041SOL    HW270956   5.309   0.204   9.006
23042SOL     OW70957   3.185   4.569   5.903
23042SOL    HW170958   3.156   4.533   5.819
23042SOL    HW270959   3.241   4.643   5.879
23043SOL     OW70960   7.452  13.419   6.781
23043SOL    HW170961   7.524  13.413   6.719
23043SOL    HW270962   7.421  13.329   6.791
23044SOL     OW70963   8.744  13.833   4.565
23044SOL    HW170964   8.705  13.794   4.643
23044SOL    HW270965   8.750  13.927   4.586
23045SOL     OW70966   5.787   9.433   5.954
23045SOL    HW170967   5.813   9.487   5.879
23045SOL    HW270968   5.795   9.343   5.924
23046SOL     OW70969   6.976   4.953  14.281
23046SOL    HW170970   7.046   4.978  14.342
23046SOL    HW270971   6.911   4.911  14.337
23047SOL     OW70972   3.074   7.503  13.341
23047SOL    HW170973   3.030   7.512  13.256
23047SOL    HW270974   3.100   7.592  13.364
23048SOL     OW70975   2.354   6.376   9.311
23048SOL    HW170976   2.363   6.455   9.257
23048SOL    HW270977   2.303   6.404   9.387
23049SOL     OW70978   6.658  11.027  11.379
23049SOL    HW170979   6.600  11.091  11.420
23049SOL    HW270980   6.691  10.975  11.452
23050SOL     OW70981   9.416   3.030  10.022
23050SOL    HW170982   9.508   3.055  10.009
23050SOL    HW270983   9.420   2.941  10.058
23051SOL     OW70984   5.755   5.804  11.971
23051SOL    HW170985   5.728   5.806  11.879
23051SOL    HW270986   5.759   5.896  11.997
23052SOL     OW70987   8.539   9.129  13.628
23052SOL    HW170988   8.625   9.156  13.596
23052SOL    HW270989   8.517   9.052  13.577
23053SOL     OW70990   6.573   2.094   9.196
23053SOL    HW170991   6.528   2.117   9.115
23053SOL    HW270992   6.624   2.172   9.218
23054SOL     OW70993  11.800   3.210   3.693
23054SOL    HW170994  11.846   3.210   3.776
23054SOL    HW270995  11.737   3.282   3.700
23055SOL     OW70996  14.835  14.393   2.964
23055SOL    HW170997  14.773  14.425   3.029
23055SOL    HW270998  14.780  14.361   2.892
23056SOL     OW70999   0.296  10.450  12.952
23056SOL    HW171000   0.234  10.514  12.987
23056SOL    HW271001   0.327  10.487  12.870
23057SOL     OW71002   8.800   9.772  12.440
23057SOL    HW171003   8.812   9.678  12.448
23057SOL    HW271004   8.883   9.810  12.469
23058SOL     OW71005   9.510   4.330  13.871
23058SOL    HW171006   9.505   4.332  13.967
23058SOL    HW271007   9.534   4.419  13.847
23059SOL     OW71008   2.903  10.799  13.860
23059SOL    HW171009   2.870  10.710  13.869
23059SOL    HW271010   2.842  10.841  13.799
23060SOL     OW71011   0.396   5.290   3.240
23060SOL    HW171012   0.476   5.297   3.292
23060SOL    HW271013   0.421   5.323   3.153
23061SOL     OW71014  13.148   2.406  10.654
23061SOL    HW171015  13.236   2.445  10.649
23061SOL    HW271016  13.162   2.321  10.696
23062SOL     OW71017   3.394   3.783  13.959
23062SOL    HW171018   3.316   3.783  13.904
23062SOL    HW271019   3.440   3.702  13.936
23063SOL     OW71020   8.799   5.602   7.225
23063SOL    HW171021   8.803   5.621   7.132
23063SOL    HW271022   8.884   5.633   7.259
23064SOL     OW71023  10.557   7.671  12.173
23064SOL    HW171024  10.591   7.648  12.087
23064SOL    HW271025  10.571   7.765  12.180
23065SOL     OW71026  10.187   9.295   1.323
23065SOL    HW171027  10.152   9.310   1.235
23065SOL    HW271028  10.143   9.361   1.377
23066SOL     OW71029   2.925   6.818   7.258
23066SOL    HW171030   2.841   6.858   7.283
23066SOL    HW271031   2.907   6.724   7.255
23067SOL     OW71032   6.700  13.583  13.861
23067SOL    HW171033   6.782  13.544  13.830
23067SOL    HW271034   6.660  13.514  13.914
23068SOL     OW71035   6.109   0.551   7.970
23068SOL    HW171036   6.147   0.604   8.040
23068SOL    HW271037   6.096   0.612   7.898
23069SOL     OW71038   2.032   9.484   4.116
23069SOL    HW171039   1.944   9.449   4.101
23069SOL    HW271040   2.083   9.408   4.144
23070SOL     OW71041  10.787   7.529   1.664
23070SOL    HW171042  10.861   7.474   1.689
23070SOL    HW271043  10.714   7.467   1.653
23071SOL     OW71044   0.588  12.924  12.515
23071SOL    HW171045   0.591  12.914  12.610
23071SOL    HW271046   0.549  12.843  12.483
23072SOL     OW71047   1.226   8.800  13.044
23072SOL    HW171048   1.247   8.819  12.953
23072SOL    HW271049   1.301   8.751  13.076
23073SOL     OW71050   2.820   2.554   1.790
23073SOL    HW171051   2.847   2.551   1.881
23073SOL    HW271052   2.901   2.567   1.741
23074SOL     OW71053   0.912   5.014  10.459
23074SOL    HW171054   0.949   4.944  10.405
23074SOL    HW271055   0.841   5.051  10.406
23075SOL     OW71056   3.021   3.566   2.828
23075SOL    HW171057   3.086   3.511   2.784
23075SOL    HW271058   3.072   3.621   2.887
23076SOL     OW71059   2.466   7.432   2.886
23076SOL    HW171060   2.552   7.433   2.927
23076SOL    HW271061   2.470   7.500   2.819
23077SOL     OW71062   1.054   1.941   6.936
23077SOL    HW171063   1.065   1.936   6.841
23077SOL    HW271064   1.143   1.930   6.970
23078SOL     OW71065  10.200   9.104   0.305
23078SOL    HW171066  10.179   9.176   0.364
23078SOL    HW271067  10.146   9.119   0.228
23079SOL     OW71068  11.390   0.636   6.494
23079SOL    HW171069  11.334   0.560   6.509
23079SOL    HW271070  11.333   0.711   6.511
23080SOL     OW71071   7.496   4.956   4.160
23080SOL    HW171072   7.507   4.886   4.224
23080SOL    HW271073   7.582   4.996   4.152
23081SOL     OW71074  12.823  14.662   8.683
23081SOL    HW171075  12.866  14.617   8.755
23081SOL    HW271076  12.878  14.644   8.607
23082SOL     OW71077   6.164  11.616   4.024
23082SOL    HW171078   6.080  11.594   3.982
23082SOL    HW271079   6.188  11.536   4.072
23083SOL     OW71080   0.842  10.191  12.574
23083SOL    HW171081   0.911  10.245  12.613
23083SOL    HW271082   0.817  10.131  12.645
23084SOL     OW71083   9.989   9.234   9.330
23084SOL    HW171084   9.932   9.235   9.407
23084SOL    HW271085   9.929   9.247   9.256
23085SOL     OW71086  14.811  14.277  12.710
23085SOL    HW171087  14.836  14.228  12.789
23085SOL    HW271088  14.727  14.238  12.685
23086SOL     OW71089  14.084  10.496   0.896
23086SOL    HW171090  14.098  10.413   0.940
23086SOL    HW271091  14.019  10.541   0.950
23087SOL     OW71092   1.224   3.913   7.954
23087SOL    HW171093   1.288   3.940   7.888
23087SOL    HW271094   1.140   3.919   7.909
23088SOL     OW71095   7.901  13.492  12.330
23088SOL    HW171096   7.890  13.525  12.419
23088SOL    HW271097   7.915  13.571  12.277
23089SOL     OW71098   2.439   7.949   5.401
23089SOL    HW171099   2.374   7.881   5.379
23089SOL    HW271100   2.518   7.900   5.423
23090SOL     OW71101   6.150   7.485  11.397
23090SOL    HW171102   6.096   7.550  11.443
23090SOL    HW271103   6.213   7.456  11.463
23091SOL     OW71104   0.185  13.102   8.603
23091SOL    HW171105   0.108  13.091   8.660
23091SOL    HW271106   0.216  13.190   8.622
23092SOL     OW71107   0.023  13.461  10.395
23092SOL    HW171108   0.053  13.551  10.381
23092SOL    HW271109  14.848  13.443  10.320
23093SOL     OW71110   1.475   7.977   4.602
23093SOL    HW171111   1.560   8.011   4.628
23093SOL    HW271112   1.475   7.981   4.507
23094SOL     OW71113   5.327   9.334   2.990
23094SOL    HW171114   5.234   9.317   2.974
23094SOL    HW271115   5.328   9.401   3.058
23095SOL     OW71116   7.469  13.180  11.549
23095SOL    HW171117   7.545  13.123  11.555
23095SOL    HW271118   7.403  13.138  11.605
23096SOL     OW71119  11.021   6.704  12.642
23096SOL    HW171120  11.111   6.731  12.624
23096SOL    HW271121  10.983   6.686  12.556
23097SOL     OW71122  13.770   2.353   5.324
23097SOL    HW171123  13.804   2.439   5.348
23097SOL    HW271124  13.804   2.338   5.236
23098SOL     OW71125   3.235  14.358  13.353
23098SOL    HW171126   3.181  14.362  13.431
23098SOL    HW271127   3.182  14.312  13.288
23099SOL     OW71128  11.398  11.931   4.300
23099SOL    HW171129  11.482  11.916   4.258
23099SOL    HW271130  11.333  11.907   4.234
23100SOL     OW71131   7.089   0.246   4.847
23100SOL    HW171132   7.141   0.200   4.912
23100SOL    HW271133   7.152   0.272   4.780
23101SOL     OW71134   3.310   7.997   5.779
23101SOL    HW171135   3.293   8.080   5.823
23101SOL    HW271136   3.234   7.986   5.720
23102SOL     OW71137   7.121   2.602   0.633
23102SOL    HW171138   7.150   2.639   0.717
23102SOL    HW271139   7.127   2.507   0.647
23103SOL     OW71140  13.490  12.672  12.129
23103SOL    HW171141  13.398  12.692  12.109
23103SOL    HW271142  13.539  12.740  12.083
23104SOL     OW71143   0.689   3.243  10.963
23104SOL    HW171144   0.678   3.318  11.022
23104SOL    HW271145   0.602   3.202  10.960
23105SOL     OW71146   0.381   8.134  10.056
23105SOL    HW171147   0.357   8.047  10.025
23105SOL    HW271148   0.408   8.121  10.146
23106SOL     OW71149   7.577   4.630   5.451
23106SOL    HW171150   7.614   4.649   5.537
23106SOL    HW271151   7.584   4.713   5.403
23107SOL     OW71152  12.072   9.115   3.660
23107SOL    HW171153  12.062   9.083   3.750
23107SOL    HW271154  11.983   9.113   3.624
23108SOL     OW71155   0.101   2.544   2.482
23108SOL    HW171156   0.125   2.568   2.571
23108SOL    HW271157   0.054   2.620   2.448
23109SOL     OW71158   7.213   7.086   0.111
23109SOL    HW171159   7.142   7.112   0.053
23109SOL    HW271160   7.201   6.992   0.125
23110SOL     OW71161   4.411  13.556   7.120
23110SOL    HW171162   4.464  13.558   7.200
23110SOL    HW271163   4.462  13.606   7.057
23111SOL     OW71164  14.747   0.368  13.146
23111SOL    HW171165  14.716   0.319  13.070
23111SOL    HW271166  14.733   0.309  13.220
23112SOL     OW71167   3.571   7.804  13.466
23112SOL    HW171168   3.637   7.774  13.529
23112SOL    HW271169   3.568   7.899  13.478
23113SOL     OW71170   8.591   9.032  14.685
23113SOL    HW171171   8.653   9.099  14.658
23113SOL    HW271172   8.615   9.013  14.776
23114SOL     OW71173   1.360   5.851   4.687
23114SOL    HW171174   1.393   5.809   4.766
23114SOL    HW271175   1.268   5.871   4.706
23115SOL     OW71176  11.699  13.824   7.825
23115SOL    HW171177  11.706  13.729   7.816
23115SOL    HW271178  11.788  13.853   7.841
23116SOL     OW71179   6.424   2.584   6.612
23116SOL    HW171180   6.369   2.508   6.596
23116SOL    HW271181   6.373   2.658   6.580
23117SOL     OW71182  12.306   1.003  12.015
23117SOL    HW171183  12.332   1.095  12.022
23117SOL    HW271184  12.247   1.001  11.940
23118SOL     OW71185   7.347   6.874   0.715
23118SOL    HW171186   7.307   6.940   0.659
23118SOL    HW271187   7.318   6.791   0.679
23119SOL     OW71188   3.982   2.185   3.792
23119SOL    HW171189   4.067   2.221   3.818
23119SOL    HW271190   3.993   2.163   3.699
23120SOL     OW71191   2.269   0.304   5.381
23120SOL    HW171192   2.340   0.273   5.325
23120SOL    HW271193   2.302   0.292   5.470
23121SOL     OW71194  11.237   1.369  14.786
23121SOL    HW171195  11.179   1.432  14.743
23121SOL    HW271196  11.189   1.342  14.864
23122SOL     OW71197   3.638  13.581  11.369
23122SOL    HW171198   3.602  13.499  11.404
23122SOL    HW271199   3.624  13.574  11.275
23123SOL     OW71200  12.372   0.352   8.077
23123SOL    HW171201  12.293   0.390   8.040
23123SOL    HW271202  12.431   0.340   8.003
23124SOL     OW71203  13.315  11.827  14.802
23124SOL    HW171204  13.224  11.810  14.777
23124SOL    HW271205  13.366  11.802  14.726
23125SOL     OW71206  14.050  10.368   7.010
23125SOL    HW171207  13.955  10.376   7.021
23125SOL    HW271208  14.087  10.440   7.060
23126SOL     OW71209   1.836   5.265   5.108
23126SOL    HW171210   1.784   5.186   5.097
23126SOL    HW271211   1.774   5.337   5.095
23127SOL     OW71212   5.039  14.060   2.802
23127SOL    HW171213   4.971  14.127   2.816
23127SOL    HW271214   5.012  14.014   2.723
23128SOL     OW71215  11.079  12.041   2.916
23128SOL    HW171216  11.159  12.000   2.950
23128SOL    HW271217  11.036  12.077   2.994
23129SOL     OW71218   9.546  13.715  10.905
23129SOL    HW171219   9.559  13.695  10.812
23129SOL    HW271220   9.600  13.650  10.951
23130SOL     OW71221  13.993   5.077   4.972
23130SOL    HW171222  13.920   5.061   5.033
23130SOL    HW271223  14.055   5.130   5.023
23131SOL     OW71224   4.510  13.157  10.785
23131SOL    HW171225   4.565  13.209  10.843
23131SOL    HW271226   4.570  13.098  10.740
23132SOL     OW71227   7.941  12.607   8.261
23132SOL    HW171228   7.887  12.596   8.182
23132SOL    HW271229   7.984  12.523   8.273
23133SOL     OW71230   8.752  13.042   4.528
23133SOL    HW171231   8.685  13.075   4.587
23133SOL    HW271232   8.724  12.954   4.505
23134SOL     OW71233   2.135   7.899  14.229
23134SOL    HW171234   2.118   7.887  14.322
23134SOL    HW271235   2.219   7.945  14.226
23135SOL     OW71236   5.314   7.347   3.310
23135SOL    HW171237   5.319   7.442   3.317
23135SOL    HW271238   5.405   7.317   3.320
23136SOL     OW71239   0.835  10.809   3.410
23136SOL    HW171240   0.759  10.859   3.441
23136SOL    HW271241   0.802  10.719   3.403
23137SOL     OW71242  13.891   8.363   0.050
23137SOL    HW171243  13.836   8.390  14.859
23137SOL    HW271244  13.833   8.314   0.107
23138SOL     OW71245   3.446   1.047   0.096
23138SOL    HW171246   3.524   1.102   0.105
23138SOL    HW271247   3.481   0.958   0.086
23139SOL     OW71248   5.294   0.838   6.974
23139SOL    HW171249   5.224   0.817   7.036
23139SOL    HW271250   5.308   0.932   6.984
23140SOL     OW71251   7.109  11.471   3.128
23140SOL    HW171252   7.075  11.381   3.136
23140SOL    HW271253   7.173  11.466   3.056
23141SOL     OW71254   9.230   3.662   8.613
23141SOL    HW171255   9.172   3.635   8.684
23141SOL    HW271256   9.233   3.586   8.555
23142SOL     OW71257   0.275   0.353   1.934
23142SOL    HW171258   0.317   0.414   1.995
23142SOL    HW271259   0.262   0.273   1.986
23143SOL     OW71260  10.572   6.482   5.794
23143SOL    HW171261  10.549   6.563   5.839
23143SOL    HW271262  10.488   6.440   5.776
23144SOL     OW71263  12.230  11.026  14.852
23144SOL    HW171264  12.210  11.068   0.054
23144SOL    HW271265  12.147  10.989  14.823
23145SOL     OW71266  14.476   1.017  12.702
23145SOL    HW171267  14.559   0.991  12.661
23145SOL    HW271268  14.409   0.975  12.648
23146SOL     OW71269   9.042   0.308   4.187
23146SOL    HW171270   8.969   0.289   4.246
23146SOL    HW271271   9.115   0.258   4.222
23147SOL     OW71272  14.760  13.173   7.957
23147SOL    HW171273  14.708  13.137   8.029
23147SOL    HW271274  14.702  13.236   7.915
23148SOL     OW71275  11.565   2.682   5.095
23148SOL    HW171276  11.616   2.741   5.040
23148SOL    HW271277  11.516   2.740   5.154
23149SOL     OW71278   1.618   4.469   1.508
23149SOL    HW171279   1.661   4.426   1.435
23149SOL    HW271280   1.526   4.475   1.483
23150SOL     OW71281   1.293  14.618   0.920
23150SOL    HW171282   1.292  14.523   0.929
23150SOL    HW271283   1.201  14.641   0.904
23151SOL     OW71284  12.623   8.797  11.652
23151SOL    HW171285  12.619   8.787  11.557
23151SOL    HW271286  12.547   8.749  11.684
23152SOL     OW71287   7.679   4.308   5.865
23152SOL    HW171288   7.587   4.295   5.845
23152SOL    HW271289   7.682   4.388   5.918
23153SOL     OW71290   4.249   6.830   2.917
23153SOL    HW171291   4.186   6.780   2.865
23153SOL    HW271292   4.275   6.770   2.987
23154SOL     OW71293   3.482  10.194  14.818
23154SOL    HW171294   3.421  10.230  14.755
23154SOL    HW271295   3.439  10.116  14.853
23155SOL     OW71296   6.023   9.229   2.198
23155SOL    HW171297   5.964   9.158   2.220
23155SOL    HW271298   6.092   9.225   2.264
23156SOL     OW71299   7.967   4.756  13.326
23156SOL    HW171300   8.022   4.781  13.252
23156SOL    HW271301   8.021   4.695  13.377
23157SOL     OW71302   0.822   8.091   9.932
23157SOL    HW171303   0.811   8.123  10.022
23157SOL    HW271304   0.916   8.093   9.918
23158SOL     OW71305   9.930  11.473   0.564
23158SOL    HW171306   9.940  11.528   0.642
23158SOL    HW271307   9.889  11.532   0.500
23159SOL     OW71308   1.305   8.525  14.072
23159SOL    HW171309   1.293   8.434  14.101
23159SOL    HW271310   1.398   8.532  14.051
23160SOL     OW71311  11.259   0.029   0.227
23160SOL    HW171312  11.236   0.098   0.289
23160SOL    HW271313  11.222  14.831   0.265
23161SOL     OW71314   6.553   5.426  14.737
23161SOL    HW171315   6.488   5.361  14.761
23161SOL    HW271316   6.527   5.455  14.649
23162SOL     OW71317  13.616   7.849   5.935
23162SOL    HW171318  13.561   7.841   6.013
23162SOL    HW271319  13.626   7.944   5.922
23163SOL     OW71320  11.768   9.065   5.991
23163SOL    HW171321  11.717   9.088   6.069
23163SOL    HW271322  11.731   9.120   5.921
23164SOL     OW71323   6.069   0.666   5.548
23164SOL    HW171324   5.975   0.681   5.559
23164SOL    HW271325   6.108   0.693   5.632
23165SOL     OW71326  12.996   6.847   1.141
23165SOL    HW171327  12.991   6.804   1.055
23165SOL    HW271328  12.986   6.940   1.122
23166SOL     OW71329   1.071   0.272   1.192
23166SOL    HW171330   1.165   0.271   1.171
23166SOL    HW271331   1.068   0.248   1.285
23167SOL     OW71332   9.691   8.342  10.702
23167SOL    HW171333   9.605   8.344  10.660
23167SOL    HW271334   9.751   8.374  10.634
23168SOL     OW71335  10.658  12.413  14.068
23168SOL    HW171336  10.686  12.327  14.036
23168SOL    HW271337  10.579  12.395  14.119
23169SOL     OW71338   1.510   8.726   7.158
23169SOL    HW171339   1.530   8.646   7.208
23169SOL    HW271340   1.591   8.777   7.162
23170SOL     OW71341   8.625  13.961  14.191
23170SOL    HW171342   8.614  13.994  14.281
23170SOL    HW271343   8.719  13.954  14.179
23171SOL     OW71344  11.313   6.082   7.871
23171SOL    HW171345  11.355   6.167   7.877
23171SOL    HW271346  11.314   6.048   7.961
23172SOL     OW71347   6.102  12.247  10.221
23172SOL    HW171348   6.029  12.234  10.161
23172SOL    HW271349   6.140  12.332  10.195
23173SOL     OW71350   0.214   0.211  11.954
23173SOL    HW171351   0.131   0.166  11.941
23173SOL    HW271352   0.247   0.229  11.866
23174SOL     OW71353   2.469   8.392  14.147
23174SOL    HW171354   2.452   8.386  14.053
23174SOL    HW271355   2.559   8.361  14.157
23175SOL     OW71356  14.531   2.314  14.291
23175SOL    HW171357  14.502   2.379  14.228
23175SOL    HW271358  14.463   2.246  14.288
23176SOL     OW71359   0.233  12.193   4.387
23176SOL    HW171360   0.203  12.192   4.478
23176SOL    HW271361   0.238  12.286   4.364
23177SOL     OW71362   3.625   0.348  12.529
23177SOL    HW171363   3.590   0.376  12.613
23177SOL    HW271364   3.646   0.256  12.541
23178SOL     OW71365   7.347   5.779  12.884
23178SOL    HW171366   7.323   5.849  12.823
23178SOL    HW271367   7.407   5.821  12.945
23179SOL     OW71368  10.115  13.000   9.607
23179SOL    HW171369  10.022  12.989   9.588
23179SOL    HW271370  10.138  12.925   9.661
23180SOL     OW71371  13.433  11.096   0.995
23180SOL    HW171372  13.469  11.134   0.915
23180SOL    HW271373  13.439  11.002   0.983
23181SOL     OW71374   9.164   3.624   1.845
23181SOL    HW171375   9.090   3.652   1.898
23181SOL    HW271376   9.132   3.630   1.755
23182SOL     OW71377  13.545   9.285   5.369
23182SOL    HW171378  13.605   9.350   5.404
23182SOL    HW271379  13.537   9.219   5.438
23183SOL     OW71380   8.906  12.651   7.653
23183SOL    HW171381   8.948  12.576   7.695
23183SOL    HW271382   8.893  12.623   7.562
23184SOL     OW71383   9.010   7.517   5.106
23184SOL    HW171384   8.944   7.582   5.129
23184SOL    HW271385   9.022   7.466   5.186
23185SOL     OW71386   4.979   5.045  13.852
23185SOL    HW171387   4.925   5.006  13.920
23185SOL    HW271388   5.052   4.984  13.840
23186SOL     OW71389  10.044   5.669   1.637
23186SOL    HW171390  10.064   5.656   1.729
23186SOL    HW271391   9.957   5.709   1.637
23187SOL     OW71392   0.703  13.731   6.414
23187SOL    HW171393   0.780  13.697   6.369
23187SOL    HW271394   0.635  13.664   6.400
23188SOL     OW71395   4.034   8.034   1.810
23188SOL    HW171396   4.048   7.940   1.796
23188SOL    HW271397   4.029   8.071   1.721
23189SOL     OW71398   1.569  12.633   0.193
23189SOL    HW171399   1.575  12.685   0.112
23189SOL    HW271400   1.613  12.687   0.258
23190SOL     OW71401   6.823   9.719  14.237
23190SOL    HW171402   6.819   9.773  14.158
23190SOL    HW271403   6.734   9.720  14.271
23191SOL     OW71404   4.459  11.813   4.166
23191SOL    HW171405   4.477  11.809   4.072
23191SOL    HW271406   4.538  11.851   4.204
23192SOL     OW71407  12.846   7.347  13.032
23192SOL    HW171408  12.917   7.298  12.990
23192SOL    HW271409  12.811   7.402  12.963
23193SOL     OW71410  12.522   4.953   6.258
23193SOL    HW171411  12.526   5.040   6.220
23193SOL    HW271412  12.554   4.895   6.189
23194SOL     OW71413  10.762  10.718  11.464
23194SOL    HW171414  10.852  10.701  11.437
23194SOL    HW271415  10.710  10.706  11.385
23195SOL     OW71416   3.266   9.505   5.594
23195SOL    HW171417   3.201   9.575   5.588
23195SOL    HW271418   3.327   9.535   5.661
23196SOL     OW71419  14.346  12.879   3.301
23196SOL    HW171420  14.308  12.867   3.214
23196SOL    HW271421  14.422  12.820   3.303
23197SOL     OW71422   2.391  11.941   9.875
23197SOL    HW171423   2.354  12.029   9.878
23197SOL    HW271424   2.346  11.893   9.944
23198SOL     OW71425  11.977  13.317   8.678
23198SOL    HW171426  12.041  13.249   8.656
23198SOL    HW271427  11.940  13.289   8.762
23199SOL     OW71428   3.975  10.166  13.957
23199SOL    HW171429   3.895  10.180  14.007
23199SOL    HW271430   4.044  10.154  14.022
23200SOL     OW71431   6.988   7.814  14.474
23200SOL    HW171432   6.992   7.802  14.568
23200SOL    HW271433   6.908   7.767  14.447
23201SOL     OW71434   9.915   6.238   3.157
23201SOL    HW171435   9.885   6.201   3.240
23201SOL    HW271436  10.009   6.247   3.168
23202SOL     OW71437  11.762  10.923   8.659
23202SOL    HW171438  11.744  10.985   8.589
23202SOL    HW271439  11.810  10.974   8.725
23203SOL     OW71440   0.684   5.950   2.256
23203SOL    HW171441   0.697   5.857   2.275
23203SOL    HW271442   0.745   5.967   2.183
23204SOL     OW71443  10.753   8.032   5.666
23204SOL    HW171444  10.676   7.983   5.697
23204SOL    HW271445  10.811   7.965   5.630
23205SOL     OW71446  13.237   6.982   6.983
23205SOL    HW171447  13.242   7.061   7.037
23205SOL    HW271448  13.179   7.006   6.911
23206SOL     OW71449   1.969   9.221  12.204
23206SOL    HW171450   1.893   9.198  12.258
23206SOL    HW271451   2.042   9.173  12.242
23207SOL     OW71452   2.006  11.127   6.016
23207SOL    HW171453   1.921  11.123   5.973
23207SOL    HW271454   2.008  11.214   6.057
23208SOL     OW71455  10.191  10.995  12.961
23208SOL    HW171456  10.200  11.089  12.975
23208SOL    HW271457  10.109  10.985  12.912
23209SOL     OW71458   8.112  11.042  13.863
23209SOL    HW171459   8.158  11.017  13.943
23209SOL    HW271460   8.145  10.982  13.797
23210SOL     OW71461  10.717  14.182  12.384
23210SOL    HW171462  10.808  14.208  12.395
23210SOL    HW271463  10.673  14.215  12.462
23211SOL     OW71464  12.640   4.736   6.679
23211SOL    HW171465  12.618   4.727   6.586
23211SOL    HW271466  12.721   4.685   6.689
23212SOL     OW71467   8.008   2.264   5.451
23212SOL    HW171468   7.963   2.286   5.532
23212SOL    HW271469   8.004   2.344   5.398
23213SOL     OW71470  10.404   3.480   2.834
23213SOL    HW171471  10.436   3.435   2.913
23213SOL    HW271472  10.327   3.430   2.808
23214SOL     OW71473   8.135   4.400   6.648
23214SOL    HW171474   8.049   4.359   6.654
23214SOL    HW271475   8.135   4.467   6.717
23215SOL     OW71476  13.899   7.025   5.908
23215SOL    HW171477  13.924   6.958   5.845
23215SOL    HW271478  13.832   7.076   5.864
23216SOL     OW71479   3.301  10.584   0.764
23216SOL    HW171480   3.295  10.613   0.672
23216SOL    HW271481   3.213  10.594   0.798
23217SOL     OW71482   5.992  10.685   5.404
23217SOL    HW171483   5.974  10.776   5.378
23217SOL    HW271484   6.087  10.677   5.400
23218SOL     OW71485   5.858   4.931   4.317
23218SOL    HW171486   5.775   4.967   4.348
23218SOL    HW271487   5.918   4.941   4.390
23219SOL     OW71488   0.728  11.758   7.007
23219SOL    HW171489   0.679  11.699   6.949
23219SOL    HW271490   0.819  11.729   7.000
23220SOL     OW71491   4.951   2.785   1.489
23220SOL    HW171492   4.859   2.762   1.473
23220SOL    HW271493   4.963   2.770   1.582
23221SOL     OW71494   6.325   7.124   9.812
23221SOL    HW171495   6.410   7.126   9.767
23221SOL    HW271496   6.344   7.083   9.896
23222SOL     OW71497  13.467   4.602   3.970
23222SOL    HW171498  13.534   4.631   3.908
23222SOL    HW271499  13.500   4.518   4.003
23223SOL     OW71500   3.720   2.691   1.825
23223SOL    HW171501   3.797   2.633   1.828
23223SOL    HW271502   3.754   2.777   1.849
23224SOL     OW71503  10.274   8.118   6.244
23224SOL    HW171504  10.200   8.156   6.290
23224SOL    HW271505  10.330   8.192   6.223
23225SOL     OW71506  13.456  10.498  11.555
23225SOL    HW171507  13.422  10.408  11.560
23225SOL    HW271508  13.474  10.522  11.646
23226SOL     OW71509   9.125  13.179  11.413
23226SOL    HW171510   9.127  13.141  11.325
23226SOL    HW271511   9.187  13.126  11.463
23227SOL     OW71512   6.831  11.964  11.640
23227SOL    HW171513   6.736  11.954  11.634
23227SOL    HW271514   6.845  12.022  11.714
23228SOL     OW71515  13.537   8.480   1.260
23228SOL    HW171516  13.503   8.510   1.175
23228SOL    HW271517  13.632   8.481   1.249
23229SOL     OW71518  10.876   8.989  13.879
23229SOL    HW171519  10.915   8.966  13.795
23229SOL    HW271520  10.800   9.042  13.856
23230SOL     OW71521   0.599   4.906   3.701
23230SOL    HW171522   0.575   4.815   3.721
23230SOL    HW271523   0.525   4.939   3.651
23231SOL     OW71524  14.260   1.348  10.455
23231SOL    HW171525  14.220   1.273  10.411
23231SOL    HW271526  14.353   1.343  10.433
23232SOL     OW71527   9.310   6.605   3.314
23232SOL    HW171528   9.343   6.568   3.232
23232SOL    HW271529   9.382   6.658   3.347
23233SOL     OW71530  13.350   9.004   1.081
23233SOL    HW171531  13.383   8.999   1.171
23233SOL    HW271532  13.428   9.021   1.028
23234SOL     OW71533   8.162   7.147  13.434
23234SOL    HW171534   8.106   7.174  13.507
23234SOL    HW271535   8.228   7.090  13.474
23235SOL     OW71536   5.473   9.766  11.005
23235SOL    HW171537   5.563   9.746  10.978
23235SOL    HW271538   5.422   9.761  10.924
23236SOL     OW71539   7.847   3.241   4.481
23236SOL    HW171540   7.843   3.322   4.430
23236SOL    HW271541   7.804   3.263   4.564
23237SOL     OW71542  12.682   5.419   7.128
23237SOL    HW171543  12.611   5.394   7.069
23237SOL    HW271544  12.757   5.368   7.098
23238SOL     OW71545   7.715  11.274   6.081
23238SOL    HW171546   7.633  11.229   6.061
23238SOL    HW271547   7.749  11.231   6.159
23239SOL     OW71548  10.721   6.782   5.968
23239SOL    HW171549  10.646   6.737   6.007
23239SOL    HW271550  10.791   6.773   6.033
23240SOL     OW71551  13.981   0.475   1.151
23240SOL    HW171552  13.932   0.393   1.159
23240SOL    HW271553  13.917   0.538   1.120
23241SOL     OW71554   1.981   6.265  10.216
23241SOL    HW171555   1.972   6.179  10.175
23241SOL    HW271556   1.921   6.322  10.168
23242SOL     OW71557  11.520  10.829  13.370
23242SOL    HW171558  11.442  10.774  13.369
23242SOL    HW271559  11.549  10.828  13.461
23243SOL     OW71560  12.907   0.838   3.068
23243SOL    HW171561  12.813   0.837   3.051
23243SOL    HW271562  12.942   0.762   3.021
23244SOL     OW71563  12.205  14.089   9.591
23244SOL    HW171564  12.246  14.173   9.613
23244SOL    HW271565  12.112  14.104   9.605
23245SOL     OW71566   0.508   9.829  10.666
23245SOL    HW171567   0.594   9.838  10.707
23245SOL    HW271568   0.523   9.771  10.592
23246SOL     OW71569   2.987   4.032   4.008
23246SOL    HW171570   3.053   4.102   4.004
23246SOL    HW271571   3.028   3.958   3.965
23247SOL     OW71572  14.564  11.353   0.927
23247SOL    HW171573  14.544  11.445   0.946
23247SOL    HW271574  14.611  11.355   0.843
23248SOL     OW71575  10.769  10.127  13.505
23248SOL    HW171576  10.771  10.218  13.475
23248SOL    HW271577  10.676  10.107  13.516
23249SOL     OW71578   8.542   5.015  11.008
23249SOL    HW171579   8.465   5.052  11.051
23249SOL    HW271580   8.590   4.971  11.078
23250SOL     OW71581   2.088   6.254   8.445
23250SOL    HW171582   2.006   6.205   8.452
23250SOL    HW271583   2.121   6.260   8.535
23251SOL     OW71584   2.871   0.199   9.052
23251SOL    HW171585   2.929   0.192   9.128
23251SOL    HW271586   2.880   0.114   9.008
23252SOL     OW71587   2.192   5.049   6.392
23252SOL    HW171588   2.124   5.115   6.402
23252SOL    HW271589   2.267   5.096   6.357
23253SOL     OW71590   8.454   1.248   0.882
23253SOL    HW171591   8.432   1.219   0.970
23253SOL    HW271592   8.525   1.311   0.893
23254SOL     OW71593  12.659   3.289   9.816
23254SOL    HW171594  12.741   3.279   9.768
23254SOL    HW271595  12.622   3.201   9.819
23255SOL     OW71596   3.958  12.027   9.904
23255SOL    HW171597   4.035  12.060   9.950
23255SOL    HW271598   3.989  12.014   9.814
23256SOL     OW71599   8.376  11.694   6.138
23256SOL    HW171600   8.358  11.779   6.178
23256SOL    HW271601   8.292  11.665   6.104
23257SOL     OW71602   6.622  13.098   1.933
23257SOL    HW171603   6.532  13.124   1.913
23257SOL    HW271604   6.622  13.087   2.029
23258SOL     OW71605   8.244   6.887  14.114
23258SOL    HW171606   8.292   6.952  14.062
23258SOL    HW271607   8.311   6.822  14.138
23259SOL     OW71608   5.763   3.732   8.241
23259SOL    HW171609   5.815   3.706   8.318
23259SOL    HW271610   5.739   3.823   8.258
23260SOL     OW71611   9.634   9.573   6.610
23260SOL    HW171612   9.643   9.551   6.518
23260SOL    HW271613   9.552   9.622   6.615
23261SOL     OW71614   3.412   9.924  14.861
23261SOL    HW171615   3.345   9.858  14.875
23261SOL    HW271616   3.493   9.884   0.010
23262SOL     OW71617   9.147  11.096   3.134
23262SOL    HW171618   9.059  11.071   3.107
23262SOL    HW271619   9.182  11.144   3.059
23263SOL     OW71620  13.861   1.286   4.076
23263SOL    HW171621  13.872   1.220   4.144
23263SOL    HW271622  13.944   1.334   4.076
23264SOL     OW71623   3.459   4.197   2.443
23264SOL    HW171624   3.381   4.143   2.448
23264SOL    HW271625   3.452   4.241   2.358
23265SOL     OW71626   0.912  14.139   9.622
23265SOL    HW171627   0.829  14.184   9.606
23265SOL    HW271628   0.936  14.103   9.537
23266SOL     OW71629   9.441  11.259   3.417
23266SOL    HW171630   9.527  11.231   3.450
23266SOL    HW271631   9.415  11.189   3.357
23267SOL     OW71632   0.847  12.882   8.973
23267SOL    HW171633   0.833  12.860   9.065
23267SOL    HW271634   0.912  12.820   8.942
23268SOL     OW71635   8.401  13.127   3.731
23268SOL    HW171636   8.434  13.201   3.783
23268SOL    HW271637   8.440  13.139   3.645
23269SOL     OW71638   7.247   8.795   9.932
23269SOL    HW171639   7.246   8.843  10.015
23269SOL    HW271640   7.282   8.858   9.869
23270SOL     OW71641   5.028   6.811   4.033
23270SOL    HW171642   5.100   6.874   4.029
23270SOL    HW271643   4.955   6.860   4.071
23271SOL     OW71644  14.296   6.965  11.682
23271SOL    HW171645  14.256   6.984  11.767
23271SOL    HW271646  14.256   6.883  11.654
23272SOL     OW71647   8.418   2.355  11.691
23272SOL    HW171648   8.412   2.397  11.605
23272SOL    HW271649   8.420   2.261  11.672
23273SOL     OW71650   7.169   3.232   3.308
23273SOL    HW171651   7.201   3.266   3.392
23273SOL    HW271652   7.074   3.238   3.314
23274SOL     OW71653   9.430   9.817   5.421
23274SOL    HW171654   9.385   9.896   5.390
23274SOL    HW271655   9.520   9.846   5.437
23275SOL     OW71656  12.770   4.223  10.631
23275SOL    HW171657  12.756   4.132  10.657
23275SOL    HW271658  12.781   4.219  10.536
23276SOL     OW71659   6.356   8.823   6.540
23276SOL    HW171660   6.342   8.783   6.454
23276SOL    HW271661   6.355   8.750   6.601
23277SOL     OW71662   4.670   0.388   7.945
23277SOL    HW171663   4.589   0.363   7.989
23277SOL    HW271664   4.690   0.476   7.977
23278SOL     OW71665   1.045  12.747   7.631
23278SOL    HW171666   1.046  12.791   7.546
23278SOL    HW271667   0.958  12.707   7.636
23279SOL     OW71668  10.302   2.709   0.546
23279SOL    HW171669  10.387   2.754   0.551
23279SOL    HW271670  10.251   2.746   0.618
23280SOL     OW71671  13.783   9.845   3.008
23280SOL    HW171672  13.768   9.916   2.945
23280SOL    HW271673  13.722   9.863   3.079
23281SOL     OW71674  12.132   1.951   2.307
23281SOL    HW171675  12.068   2.020   2.290
23281SOL    HW271676  12.101   1.908   2.386
23282SOL     OW71677   1.960   3.957  12.270
23282SOL    HW171678   1.931   3.964  12.179
23282SOL    HW271679   2.021   4.029  12.281
23283SOL     OW71680   6.068   5.772  11.079
23283SOL    HW171681   6.132   5.790  11.010
23283SOL    HW271682   5.983   5.792  11.038
23284SOL     OW71683   9.519   8.830   9.523
23284SOL    HW171684   9.517   8.914   9.478
23284SOL    HW271685   9.544   8.767   9.456
23285SOL     OW71686   0.051   2.734   3.245
23285SOL    HW171687   0.018   2.677   3.176
23285SOL    HW271688   0.031   2.822   3.215
23286SOL     OW71689   3.628  10.454   6.008
23286SOL    HW171690   3.612  10.443   5.914
23286SOL    HW271691   3.549  10.497   6.041
23287SOL     OW71692   0.379  13.486   1.596
23287SOL    HW171693   0.338  13.519   1.516
23287SOL    HW271694   0.305  13.461   1.652
23288SOL     OW71695   5.058   3.077   4.151
23288SOL    HW171696   4.970   3.051   4.180
23288SOL    HW271697   5.110   2.997   4.157
23289SOL     OW71698   5.176   8.668   5.073
23289SOL    HW171699   5.185   8.575   5.054
23289SOL    HW271700   5.144   8.671   5.163
23290SOL     OW71701   1.048   7.638   2.465
23290SOL    HW171702   1.064   7.696   2.391
23290SOL    HW271703   0.953   7.643   2.479
23291SOL     OW71704   3.881   8.044  10.328
23291SOL    HW171705   3.914   7.955  10.321
23291SOL    HW271706   3.910   8.087  10.248
23292SOL     OW71707   0.611   1.275   8.645
23292SOL    HW171708   0.526   1.316   8.629
23292SOL    HW271709   0.651   1.268   8.558
23293SOL     OW71710   8.052   1.494  14.700
23293SOL    HW171711   8.017   1.532  14.780
23293SOL    HW271712   8.109   1.562  14.664
23294SOL     OW71713   0.306  11.155   4.342
23294SOL    HW171714   0.234  11.093   4.331
23294SOL    HW271715   0.349  11.127   4.423
23295SOL     OW71716  13.532   8.149   1.315
23295SOL    HW171717  13.578   8.191   1.388
23295SOL    HW271718  13.479   8.081   1.356
23296SOL     OW71719  10.074  14.545   2.916
23296SOL    HW171720   9.984  14.522   2.893
23296SOL    HW271721  10.119  14.554   2.832
23297SOL     OW71722  12.436   6.340   3.325
23297SOL    HW171723  12.454   6.428   3.357
23297SOL    HW271724  12.449   6.346   3.230
23298SOL     OW71725   8.030  12.805   6.044
23298SOL    HW171726   8.121  12.788   6.068
23298SOL    HW271727   7.979  12.766   6.115
23299SOL     OW71728   3.978  14.480   8.942
23299SOL    HW171729   4.001  14.524   9.024
23299SOL    HW271730   4.057  14.487   8.888
23300SOL     OW71731   5.641   3.660   1.504
23300SOL    HW171732   5.639   3.741   1.454
23300SOL    HW271733   5.587   3.679   1.581
23301SOL     OW71734   2.734   8.415   6.331
23301SOL    HW171735   2.798   8.420   6.403
23301SOL    HW271736   2.776   8.461   6.258
23302SOL     OW71737   6.024  12.399  14.455
23302SOL    HW171738   6.087  12.340  14.413
23302SOL    HW271739   6.074  12.440  14.526
23303SOL     OW71740   9.045   7.772   8.535
23303SOL    HW171741   9.057   7.691   8.584
23303SOL    HW271742   8.951   7.790   8.542
23304SOL     OW71743   7.795   2.826   3.585
23304SOL    HW171744   7.819   2.912   3.619
23304SOL    HW271745   7.877   2.790   3.550
23305SOL     OW71746   0.605   3.175   2.951
23305SOL    HW171747   0.648   3.238   3.008
23305SOL    HW271748   0.628   3.090   2.987
23306SOL     OW71749   6.153   3.506   6.816
23306SOL    HW171750   6.080   3.551   6.859
23306SOL    HW271751   6.213   3.484   6.888
23307SOL     OW71752   8.841   3.794   6.348
23307SOL    HW171753   8.821   3.887   6.339
23307SOL    HW271754   8.872   3.767   6.262
23308SOL     OW71755   5.256  13.837   0.436
23308SOL    HW171756   5.173  13.835   0.388
23308SOL    HW271757   5.261  13.751   0.479
23309SOL     OW71758   7.752  13.816   4.859
23309SOL    HW171759   7.816  13.885   4.843
23309SOL    HW271760   7.700  13.812   4.779
23310SOL     OW71761   6.904  12.535   4.958
23310SOL    HW171762   6.933  12.626   4.956
23310SOL    HW271763   6.809  12.540   4.958
23311SOL     OW71764  13.460   7.254   5.849
23311SOL    HW171765  13.433   7.297   5.768
23311SOL    HW271766  13.452   7.160   5.830
23312SOL     OW71767   2.232   7.310  13.613
23312SOL    HW171768   2.286   7.294  13.536
23312SOL    HW271769   2.147   7.339  13.578
23313SOL     OW71770   4.348  10.402   3.693
23313SOL    HW171771   4.288  10.339   3.653
23313SOL    HW271772   4.434  10.362   3.685
23314SOL     OW71773   8.925   3.321   6.257
23314SOL    HW171774   8.957   3.248   6.205
23314SOL    HW271775   9.000   3.380   6.265
23315SOL     OW71776  14.407   4.533  12.825
23315SOL    HW171777  14.380   4.491  12.906
23315SOL    HW271778  14.502   4.539  12.830
23316SOL     OW71779   5.787   7.210   4.793
23316SOL    HW171780   5.875   7.173   4.802
23316SOL    HW271781   5.732   7.135   4.769
23317SOL     OW71782   8.294   2.252   6.123
23317SOL    HW171783   8.375   2.288   6.085
23317SOL    HW271784   8.324   2.199   6.196
23318SOL     OW71785  12.935   9.240   5.366
23318SOL    HW171786  12.860   9.281   5.324
23318SOL    HW271787  13.006   9.303   5.354
23319SOL     OW71788   1.113   4.248  11.475
23319SOL    HW171789   1.074   4.260  11.388
23319SOL    HW271790   1.053   4.189  11.520
23320SOL     OW71791   9.528   7.381   0.049
23320SOL    HW171792   9.442   7.421   0.037
23320SOL    HW271793   9.510   7.288   0.059
23321SOL     OW71794   3.487  12.768   7.633
23321SOL    HW171795   3.394  12.783   7.613
23321SOL    HW271796   3.532  12.838   7.585
23322SOL     OW71797  14.179   3.085   8.245
23322SOL    HW171798  14.191   2.992   8.225
23322SOL    HW271799  14.156   3.125   8.161
23323SOL     OW71800   8.890  13.577   9.870
23323SOL    HW171801   8.796  13.589   9.884
23323SOL    HW271802   8.929  13.659   9.900
23324SOL     OW71803   2.472  12.126   8.517
23324SOL    HW171804   2.531  12.129   8.592
23324SOL    HW271805   2.428  12.041   8.523
23325SOL     OW71806   8.790  12.363   8.349
23325SOL    HW171807   8.815  12.367   8.441
23325SOL    HW271808   8.817  12.276   8.321
23326SOL     OW71809   0.093   7.851  14.155
23326SOL    HW171810   0.103   7.777  14.215
23326SOL    HW271811   0.039   7.817  14.083
23327SOL     OW71812  11.913  14.154   9.633
23327SOL    HW171813  11.915  14.200   9.717
23327SOL    HW271814  11.863  14.211   9.575
23328SOL     OW71815   0.645   7.132   2.811
23328SOL    HW171816   0.713   7.102   2.750
23328SOL    HW271817   0.640   7.063   2.877
23329SOL     OW71818   5.427   8.010   1.722
23329SOL    HW171819   5.343   8.033   1.761
23329SOL    HW271820   5.405   7.963   1.642
23330SOL     OW71821   8.747   6.180   3.821
23330SOL    HW171822   8.693   6.255   3.797
23330SOL    HW271823   8.827   6.218   3.857
23331SOL     OW71824   6.781   4.049   4.504
23331SOL    HW171825   6.733   4.073   4.425
23331SOL    HW271826   6.803   4.133   4.545
23332SOL     OW71827  14.467  11.009  12.048
23332SOL    HW171828  14.457  10.980  12.139
23332SOL    HW271829  14.526  10.945  12.008
23333SOL     OW71830   3.007   8.257  12.557
23333SOL    HW171831   3.047   8.200  12.491
23333SOL    HW271832   2.917   8.270  12.526
23334SOL     OW71833   3.486   3.955  12.517
23334SOL    HW171834   3.410   3.898  12.531
23334SOL    HW271835   3.517   3.933  12.429
23335SOL     OW71836   2.232   3.287  10.670
23335SOL    HW171837   2.138   3.301  10.682
23335SOL    HW271838   2.238   3.203  10.624
23336SOL     OW71839   2.098   0.583   2.412
23336SOL    HW171840   2.098   0.495   2.449
23336SOL    HW271841   2.104   0.569   2.317
23337SOL     OW71842   2.234   2.487   2.508
23337SOL    HW171843   2.292   2.517   2.439
23337SOL    HW271844   2.171   2.429   2.464
23338SOL     OW71845   3.824  12.161   0.589
23338SOL    HW171846   3.818  12.229   0.521
23338SOL    HW271847   3.916  12.136   0.590
23339SOL     OW71848   7.601   4.326  13.694
23339SOL    HW171849   7.619   4.395  13.630
23339SOL    HW271850   7.662   4.343  13.766
23340SOL     OW71851  13.738   0.277   8.289
23340SOL    HW171852  13.797   0.280   8.364
23340SOL    HW271853  13.794   0.249   8.216
23341SOL     OW71854   3.897  10.376   8.878
23341SOL    HW171855   3.917  10.428   8.956
23341SOL    HW271856   3.859  10.295   8.913
23342SOL     OW71857  10.987   1.018  11.203
23342SOL    HW171858  10.924   1.088  11.190
23342SOL    HW271859  11.060   1.041  11.145
23343SOL     OW71860   5.466   2.341  12.352
23343SOL    HW171861   5.530   2.387  12.298
23343SOL    HW271862   5.473   2.250  12.324
23344SOL     OW71863  13.354   4.518  11.892
23344SOL    HW171864  13.270   4.524  11.936
23344SOL    HW271865  13.373   4.424  11.887
23345SOL     OW71866   5.355   3.093   6.548
23345SOL    HW171867   5.314   3.080   6.634
23345SOL    HW271868   5.366   3.005   6.513
23346SOL     OW71869   6.693   8.750   4.547
23346SOL    HW171870   6.627   8.688   4.579
23346SOL    HW271871   6.642   8.823   4.512
23347SOL     OW71872  13.970   7.150  14.400
23347SOL    HW171873  13.984   7.156  14.494
23347SOL    HW271874  14.020   7.073  14.372
23348SOL     OW71875   2.552   8.333   9.295
23348SOL    HW171876   2.573   8.389   9.370
23348SOL    HW271877   2.622   8.268   9.293
23349SOL     OW71878   7.260   1.300   8.915
23349SOL    HW171879   7.185   1.298   8.975
23349SOL    HW271880   7.303   1.216   8.926
23350SOL     OW71881  11.173   9.651   6.897
23350SOL    HW171882  11.198   9.559   6.906
23350SOL    HW271883  11.103   9.651   6.831
23351SOL     OW71884   6.787  14.556   9.508
23351SOL    HW171885   6.788  14.523   9.418
23351SOL    HW271886   6.847  14.630   9.507
23352SOL     OW71887   6.087   0.021   3.719
23352SOL    HW171888   6.094  14.874   3.810
23352SOL    HW271889   6.035  14.835   3.676
23353SOL     OW71890   0.593   3.339   3.506
23353SOL    HW171891   0.542   3.419   3.510
23353SOL    HW271892   0.552   3.288   3.436
23354SOL     OW71893  14.824   5.460   7.544
23354SOL    HW171894  14.823   5.453   7.448
23354SOL    HW271895  14.758   5.397   7.573
23355SOL     OW71896   0.852  10.848   0.528
23355SOL    HW171897   0.877  10.918   0.589
23355SOL    HW271898   0.932  10.832   0.478
23356SOL     OW71899   7.912  10.514  14.504
23356SOL    HW171900   7.818  10.510  14.489
23356SOL    HW271901   7.922  10.567  14.583
23357SOL     OW71902  13.576   8.309   2.068
23357SOL    HW171903  13.514   8.366   2.023
23357SOL    HW271904  13.607   8.249   2.000
23358SOL     OW71905   7.958   1.889   0.651
23358SOL    HW171906   8.023   1.876   0.582
23358SOL    HW271907   7.991   1.964   0.701
23359SOL     OW71908  10.327   7.305   7.199
23359SOL    HW171909  10.313   7.210   7.189
23359SOL    HW271910  10.260   7.345   7.143
23360SOL     OW71911   5.859   6.030   1.911
23360SOL    HW171912   5.884   5.980   1.989
23360SOL    HW271913   5.892   5.978   1.838
23361SOL     OW71914   1.660   7.324   7.388
23361SOL    HW171915   1.652   7.275   7.469
23361SOL    HW271916   1.611   7.273   7.324
23362SOL     OW71917   2.827  11.727  14.301
23362SOL    HW171918   2.795  11.808  14.341
23362SOL    HW271919   2.901  11.700  14.355
23363SOL     OW71920   2.734  13.575   0.357
23363SOL    HW171921   2.823  13.539   0.356
23363SOL    HW271922   2.743  13.660   0.400
23364SOL     OW71923   9.946  11.259   0.409
23364SOL    HW171924   9.934  11.323   0.479
23364SOL    HW271925   9.898  11.294   0.335
23365SOL     OW71926   4.112   3.281   9.177
23365SOL    HW171927   4.069   3.197   9.159
23365SOL    HW271928   4.201   3.268   9.146
23366SOL     OW71929  14.769  10.423   9.444
23366SOL    HW171930  14.738  10.340   9.479
23366SOL    HW271931  14.816  10.400   9.364
23367SOL     OW71932  13.120   5.371   4.481
23367SOL    HW171933  13.095   5.402   4.394
23367SOL    HW271934  13.143   5.450   4.530
23368SOL     OW71935   4.714  10.025  10.766
23368SOL    HW171936   4.762   9.956  10.722
23368SOL    HW271937   4.781  10.083  10.802
23369SOL     OW71938  13.964   8.787  12.304
23369SOL    HW171939  14.048   8.755  12.271
23369SOL    HW271940  13.977   8.795  12.399
23370SOL     OW71941   3.481   7.538  12.343
23370SOL    HW171942   3.538   7.476  12.296
23370SOL    HW271943   3.472   7.501  12.431
23371SOL     OW71944   2.072  10.794   8.724
23371SOL    HW171945   2.131  10.856   8.682
23371SOL    HW271946   2.119  10.764   8.802
23372SOL     OW71947  14.055   7.549   2.559
23372SOL    HW171948  14.024   7.459   2.574
23372SOL    HW271949  14.123   7.540   2.492
23373SOL     OW71950   1.663   8.489  11.083
23373SOL    HW171951   1.621   8.425  11.142
23373SOL    HW271952   1.706   8.551  11.141
23374SOL     OW71953   6.736  12.943  12.994
23374SOL    HW171954   6.664  12.966  12.935
23374SOL    HW271955   6.790  13.022  12.998
23375SOL     OW71956   2.520   1.418  13.323
23375SOL    HW171957   2.607   1.456  13.333
23375SOL    HW271958   2.463   1.493  13.306
23376SOL     OW71959  12.663   0.318   6.473
23376SOL    HW171960  12.689   0.262   6.400
23376SOL    HW271961  12.583   0.362   6.442
23377SOL     OW71962   8.650   0.562  14.441
23377SOL    HW171963   8.643   0.517  14.525
23377SOL    HW271964   8.674   0.492  14.379
23378SOL     OW71965   0.628   5.615   2.053
23378SOL    HW171966   0.643   5.537   1.999
23378SOL    HW271967   0.533   5.624   2.056
23379SOL     OW71968   5.273  10.280   6.072
23379SOL    HW171969   5.289  10.329   5.991
23379SOL    HW271970   5.189  10.313   6.104
23380SOL     OW71971   8.258   7.150   7.102
23380SOL    HW171972   8.342   7.140   7.147
23380SOL    HW271973   8.196   7.174   7.171
23381SOL     OW71974  13.409  11.591  11.256
23381SOL    HW171975  13.387  11.673  11.212
23381SOL    HW271976  13.504  11.585  11.250
23382SOL     OW71977   9.259   6.073   2.380
23382SOL    HW171978   9.218   6.154   2.349
23382SOL    HW271979   9.305   6.098   2.460
23383SOL     OW71980   0.382  13.575  12.720
23383SOL    HW171981   0.371  13.603  12.629
23383SOL    HW271982   0.474  13.592  12.740
23384SOL     OW71983  10.802  10.391  11.011
23384SOL    HW171984  10.817  10.472  11.059
23384SOL    HW271985  10.876  10.385  10.950
23385SOL     OW71986   9.253   4.968   4.639
23385SOL    HW171987   9.251   5.057   4.673
23385SOL    HW271988   9.252   4.978   4.544
23386SOL     OW71989  13.599   4.601  11.734
23386SOL    HW171990  13.604   4.560  11.647
23386SOL    HW271991  13.529   4.554  11.779
23387SOL     OW71992   2.707  13.252   6.097
23387SOL    HW171993   2.713  13.158   6.084
23387SOL    HW271994   2.620  13.275   6.065
23388SOL     OW71995  11.552   7.602  10.774
23388SOL    HW171996  11.525   7.663  10.706
23388SOL    HW271997  11.510   7.635  10.854
23389SOL     OW71998  12.631   3.640   5.125
23389SOL    HW171999  12.702   3.628   5.062
23389SOL    HW272000  12.552   3.617   5.075
23390SOL     OW72001   6.944   8.787   0.710
23390SOL    HW172002   6.942   8.799   0.615
23390SOL    HW272003   6.947   8.692   0.722
23391SOL     OW72004   8.912   2.586  12.456
23391SOL    HW172005   8.946   2.502  12.425
23391SOL    HW272006   8.889   2.569  12.548
23392SOL     OW72007   1.678   5.335  14.309
23392SOL    HW172008   1.649   5.412  14.357
23392SOL    HW272009   1.760   5.360  14.269
23393SOL     OW72010   2.980  12.272   7.448
23393SOL    HW172011   2.990  12.179   7.468
23393SOL    HW272012   3.037  12.316   7.512
23394SOL     OW72013  12.238  14.723   3.521
23394SOL    HW172014  12.181  14.660   3.476
23394SOL    HW272015  12.308  14.741   3.458
23395SOL     OW72016   4.757   5.723  13.948
23395SOL    HW172017   4.792   5.713  13.859
23395SOL    HW272018   4.662   5.728  13.936
23396SOL     OW72019  14.777  12.211   0.751
23396SOL    HW172020  14.749  12.243   0.836
23396SOL    HW272021  14.702  12.225   0.694
23397SOL     OW72022  13.513   2.752   3.892
23397SOL    HW172023  13.538   2.820   3.954
23397SOL    HW272024  13.433   2.784   3.851
23398SOL     OW72025   5.310   0.227   7.765
23398SOL    HW172026   5.362   0.305   7.785
23398SOL    HW272027   5.365   0.175   7.706
23399SOL     OW72028   3.866  14.205   4.926
23399SOL    HW172029   3.910  14.282   4.892
23399SOL    HW272030   3.898  14.197   5.016
23400SOL     OW72031  13.822   3.379   0.368
23400SOL    HW172032  13.788   3.458   0.410
23400SOL    HW272033  13.892   3.410   0.311
23401SOL     OW72034  12.074   9.678   6.616
23401SOL    HW172035  12.069   9.732   6.695
23401SOL    HW272036  12.123   9.732   6.554
23402SOL     OW72037  12.942   5.402   5.160
23402SOL    HW172038  12.949   5.485   5.208
23402SOL    HW272039  12.875   5.353   5.208
23403SOL     OW72040   9.859  13.529   7.187
23403SOL    HW172041   9.853  13.458   7.251
23403SOL    HW272042   9.904  13.490   7.112
23404SOL     OW72043   0.507   9.840   2.992
23404SOL    HW172044   0.536   9.765   2.940
23404SOL    HW272045   0.583   9.897   2.997
23405SOL     OW72046   8.325  14.351   5.081
23405SOL    HW172047   8.245  14.301   5.061
23405SOL    HW272048   8.374  14.352   5.000
23406SOL     OW72049   1.870   1.682   7.638
23406SOL    HW172050   1.794   1.654   7.689
23406SOL    HW272051   1.944   1.634   7.677
23407SOL     OW72052   1.841  12.841   4.310
23407SOL    HW172053   1.856  12.763   4.255
23407SOL    HW272054   1.858  12.914   4.251
23408SOL     OW72055   1.759   1.711   3.176
23408SOL    HW172056   1.846   1.707   3.136
23408SOL    HW272057   1.766   1.780   3.242
23409SOL     OW72058   1.223   3.496   6.836
23409SOL    HW172059   1.226   3.444   6.756
23409SOL    HW272060   1.196   3.434   6.904
23410SOL     OW72061  11.838   6.507   6.763
23410SOL    HW172062  11.853   6.592   6.805
23410SOL    HW272063  11.744   6.491   6.774
23411SOL     OW72064   7.984  10.449  12.085
23411SOL    HW172065   7.962  10.401  12.165
23411SOL    HW272066   8.077  10.434  12.072
23412SOL     OW72067  12.885   5.036   1.551
23412SOL    HW172068  12.972   5.066   1.579
23412SOL    HW272069  12.844   5.114   1.514
23413SOL     OW72070   4.517  14.314   1.123
23413SOL    HW172071   4.449  14.262   1.079
23413SOL    HW272072   4.476  14.342   1.205
23414SOL     OW72073  10.148   7.414   9.547
23414SOL    HW172074  10.156   7.429   9.453
23414SOL    HW272075  10.214   7.347   9.566
23415SOL     OW72076   3.781   2.184   0.081
23415SOL    HW172077   3.848   2.167   0.148
23415SOL    HW272078   3.828   2.180  14.880
23416SOL     OW72079   1.406   2.791  10.551
23416SOL    HW172080   1.360   2.846  10.614
23416SOL    HW272081   1.424   2.710  10.599
23417SOL     OW72082  13.449   7.880   1.410
23417SOL    HW172083  13.492   7.835   1.483
23417SOL    HW272084  13.357   7.887   1.437
23418SOL     OW72085  11.546   6.745   7.660
23418SOL    HW172086  11.468   6.717   7.707
23418SOL    HW272087  11.612   6.678   7.680
23419SOL     OW72088   5.987   3.089   6.913
23419SOL    HW172089   6.063   3.042   6.949
23419SOL    HW272090   6.018   3.179   6.900
23420SOL     OW72091  14.860   7.758  14.538
23420SOL    HW172092   0.010   7.750  14.628
23420SOL    HW272093  14.864   7.852  14.519
23421SOL     OW72094   4.305   8.752  12.389
23421SOL    HW172095   4.330   8.662  12.411
23421SOL    HW272096   4.362   8.776  12.315
23422SOL     OW72097   6.499   6.873   8.905
23422SOL    HW172098   6.499   6.806   8.974
23422SOL    HW272099   6.556   6.837   8.837
23423SOL     OW72100  10.528  14.687   1.301
23423SOL    HW172101  10.563  14.627   1.235
23423SOL    HW272102  10.433  14.677   1.295
23424SOL     OW72103   4.596  11.828   2.495
23424SOL    HW172104   4.607  11.830   2.400
23424SOL    HW272105   4.682  11.800   2.528
23425SOL     OW72106   0.356   0.877   5.569
23425SOL    HW172107   0.348   0.781   5.566
23425SOL    HW272108   0.419   0.894   5.639
23426SOL     OW72109   3.863  12.848  12.260
23426SOL    HW172110   3.908  12.805  12.187
23426SOL    HW272111   3.855  12.779  12.327
23427SOL     OW72112   1.244  14.642   6.575
23427SOL    HW172113   1.299  14.564   6.585
23427SOL    HW272114   1.249  14.663   6.482
23428SOL     OW72115   3.139  13.898  13.532
23428SOL    HW172116   3.145  13.802  13.526
23428SOL    HW272117   3.051  13.918  13.499
23429SOL     OW72118   6.176  13.125   2.177
23429SOL    HW172119   6.154  13.181   2.252
23429SOL    HW272120   6.093  13.085   2.153
23430SOL     OW72121   5.103  10.138  11.510
23430SOL    HW172122   5.171  10.175  11.454
23430SOL    HW272123   5.131  10.048  11.526
23431SOL     OW72124   5.368   3.363   4.421
23431SOL    HW172125   5.362   3.430   4.489
23431SOL    HW272126   5.277   3.342   4.400
23432SOL     OW72127  10.127   8.054  14.418
23432SOL    HW172128  10.127   7.962  14.391
23432SOL    HW272129  10.112   8.103  14.337
23433SOL     OW72130  14.859  11.150  13.117
23433SOL    HW172131   0.053  11.130  13.063
23433SOL    HW272132  14.784  11.120  13.066
23434SOL     OW72133  13.964   7.971  13.729
23434SOL    HW172134  13.970   7.875  13.725
23434SOL    HW272135  13.872   7.990  13.710
23435SOL     OW72136   8.848   4.560   4.725
23435SOL    HW172137   8.930   4.514   4.709
23435SOL    HW272138   8.788   4.494   4.760
23436SOL     OW72139   0.691   6.209  11.691
23436SOL    HW172140   0.767   6.233  11.744
23436SOL    HW272141   0.628   6.175  11.755
23437SOL     OW72142   3.011  11.904  11.150
23437SOL    HW172143   2.945  11.965  11.119
23437SOL    HW272144   3.087  11.959  11.170
23438SOL     OW72145   1.938   9.673   8.844
23438SOL    HW172146   1.992   9.594   8.847
23438SOL    HW272147   1.849   9.641   8.831
23439SOL     OW72148   3.155  13.113   1.539
23439SOL    HW172149   3.171  13.206   1.552
23439SOL    HW272150   3.236  13.070   1.566
23440SOL     OW72151  11.186   9.664   7.178
23440SOL    HW172152  11.146   9.577   7.183
23440SOL    HW272153  11.173   9.691   7.087
23441SOL     OW72154  12.912   5.373   1.637
23441SOL    HW172155  12.859   5.324   1.574
23441SOL    HW272156  12.848   5.413   1.696
23442SOL     OW72157   8.540  11.021   3.125
23442SOL    HW172158   8.537  11.115   3.107
23442SOL    HW272159   8.584  11.014   3.210
23443SOL     OW72160   9.228   0.946   8.178
23443SOL    HW172161   9.141   0.977   8.202
23443SOL    HW272162   9.271   1.023   8.140
23444SOL     OW72163   2.051   5.006   5.628
23444SOL    HW172164   2.021   5.057   5.553
23444SOL    HW272165   2.081   5.072   5.691
23445SOL     OW72166  13.324   1.462   3.602
23445SOL    HW172167  13.410   1.491   3.571
23445SOL    HW272168  13.273   1.542   3.610
23446SOL     OW72169   7.090   6.833   2.440
23446SOL    HW172170   7.009   6.793   2.471
23446SOL    HW272171   7.140   6.853   2.519
23447SOL     OW72172   8.709  14.845   1.003
23447SOL    HW172173   8.724  14.865   1.095
23447SOL    HW272174   8.773   0.016   0.956
23448SOL     OW72175   3.005   2.189  12.749
23448SOL    HW172176   3.084   2.244  12.748
23448SOL    HW272177   2.942   2.238  12.801
23449SOL     OW72178   5.766   3.083   5.898
23449SOL    HW172179   5.738   3.082   5.989
23449SOL    HW272180   5.699   3.035   5.851
23450SOL     OW72181   1.124  14.748   9.123
23450SOL    HW172182   1.073  14.705   9.192
23450SOL    HW272183   1.122  14.686   9.050
23451SOL     OW72184   5.469  10.958  12.803
23451SOL    HW172185   5.478  10.872  12.846
23451SOL    HW272186   5.537  11.012  12.845
23452SOL     OW72187  11.863  14.594   0.162
23452SOL    HW172188  11.802  14.522   0.147
23452SOL    HW272189  11.823  14.668   0.117
23453SOL     OW72190  12.871  12.596   0.642
23453SOL    HW172191  12.863  12.649   0.721
23453SOL    HW272192  12.964  12.597   0.621
23454SOL     OW72193   0.401   2.517  10.795
23454SOL    HW172194   0.403   2.423  10.814
23454SOL    HW272195   0.419   2.524  10.702
23455SOL     OW72196   7.511  13.216   6.299
23455SOL    HW172197   7.535  13.167   6.220
23455SOL    HW272198   7.589  13.269   6.318
23456SOL     OW72199   7.230   1.862   6.341
23456SOL    HW172200   7.201   1.771   6.342
23456SOL    HW272201   7.165   1.908   6.394
23457SOL     OW72202  10.971   0.679   5.947
23457SOL    HW172203  11.005   0.751   5.999
23457SOL    HW272204  10.958   0.716   5.860
23458SOL     OW72205  12.793   8.123   4.671
23458SOL    HW172206  12.784   8.029   4.658
23458SOL    HW272207  12.703   8.154   4.686
23459SOL     OW72208  11.486   7.318   1.083
23459SOL    HW172209  11.517   7.234   1.118
23459SOL    HW272210  11.419   7.347   1.144
23460SOL     OW72211   5.769   3.274  13.882
23460SOL    HW172212   5.773   3.289  13.977
23460SOL    HW272213   5.859   3.288  13.853
23461SOL     OW72214   3.787   9.702   5.718
23461SOL    HW172215   3.740   9.642   5.776
23461SOL    HW272216   3.739   9.785   5.725
23462SOL     OW72217   0.759  12.375   5.309
23462SOL    HW172218   0.748  12.356   5.402
23462SOL    HW272219   0.693  12.322   5.264
23463SOL     OW72220   4.485  11.408  10.800
23463SOL    HW172221   4.497  11.427  10.893
23463SOL    HW272222   4.434  11.482  10.767
23464SOL     OW72223   5.518   8.664   1.961
23464SOL    HW172224   5.509   8.747   2.007
23464SOL    HW272225   5.440   8.657   1.907
23465SOL     OW72226   1.794  13.213  12.935
23465SOL    HW172227   1.848  13.275  12.888
23465SOL    HW272228   1.759  13.263  13.009
23466SOL     OW72229   0.128   6.927   2.094
23466SOL    HW172230   0.211   6.916   2.141
23466SOL    HW272231   0.142   6.883   2.010
23467SOL     OW72232   5.804  10.520   1.761
23467SOL    HW172233   5.803  10.570   1.843
23467SOL    HW272234   5.891  10.480   1.759
23468SOL     OW72235   8.139   3.158   1.797
23468SOL    HW172236   8.049   3.149   1.829
23468SOL    HW272237   8.159   3.073   1.758
23469SOL     OW72238  10.307   2.061   8.701
23469SOL    HW172239  10.397   2.050   8.669
23469SOL    HW272240  10.299   1.996   8.771
23470SOL     OW72241  12.625   0.909   6.897
23470SOL    HW172242  12.683   0.975   6.859
23470SOL    HW272243  12.642   0.913   6.991
23471SOL     OW72244   5.735  11.973  11.531
23471SOL    HW172245   5.643  11.966  11.557
23471SOL    HW272246   5.743  12.060  11.491
23472SOL     OW72247   0.336   7.000   0.484
23472SOL    HW172248   0.359   7.087   0.513
23472SOL    HW272249   0.398   6.942   0.527
23473SOL     OW72250  13.547   4.490  14.819
23473SOL    HW172251  13.547   4.513   0.030
23473SOL    HW272252  13.640   4.489  14.795
23474SOL     OW72253   8.486  12.761   0.640
23474SOL    HW172254   8.553  12.816   0.681
23474SOL    HW272255   8.413  12.820   0.626
23475SOL     OW72256   6.140   3.366  14.252
23475SOL    HW172257   6.116   3.451  14.287
23475SOL    HW272258   6.166   3.315  14.329
23476SOL     OW72259   2.013  13.131   0.469
23476SOL    HW172260   1.938  13.190   0.477
23476SOL    HW272261   2.088  13.184   0.493
23477SOL     OW72262   0.986   7.867   0.749
23477SOL    HW172263   1.072   7.832   0.726
23477SOL    HW272264   0.988   7.872   0.845
23478SOL     OW72265   9.128   0.130   9.719
23478SOL    HW172266   9.181   0.069   9.770
23478SOL    HW272267   9.040   0.121   9.756
23479SOL     OW72268  12.958   1.861   3.836
23479SOL    HW172269  13.003   1.847   3.919
23479SOL    HW272270  13.026   1.891   3.776
23480SOL     OW72271  14.257  13.953   8.425
23480SOL    HW172272  14.209  13.997   8.496
23480SOL    HW272273  14.348  13.953   8.455
23481SOL     OW72274   0.647  13.631  14.139
23481SOL    HW172275   0.638  13.550  14.189
23481SOL    HW272276   0.680  13.695  14.201
23482SOL     OW72277   4.278   1.465  13.803
23482SOL    HW172278   4.353   1.407  13.790
23482SOL    HW272279   4.203   1.407  13.806
23483SOL     OW72280   3.319   4.865   8.916
23483SOL    HW172281   3.225   4.883   8.914
23483SOL    HW272282   3.332   4.797   8.849
23484SOL     OW72283   4.200   2.020  10.196
23484SOL    HW172284   4.147   2.087  10.240
23484SOL    HW272285   4.258   2.070  10.139
23485SOL     OW72286  12.151  12.529   2.914
23485SOL    HW172287  12.174  12.485   2.995
23485SOL    HW272288  12.233  12.570   2.884
23486SOL     OW72289  10.616   4.559   2.905
23486SOL    HW172290  10.549   4.627   2.904
23486SOL    HW272291  10.698   4.606   2.890
23487SOL     OW72292  12.130   6.374   1.754
23487SOL    HW172293  12.045   6.418   1.747
23487SOL    HW272294  12.164   6.401   1.839
23488SOL     OW72295  13.212  12.312  10.043
23488SOL    HW172296  13.143  12.295   9.979
23488SOL    HW272297  13.293  12.286   9.999
23489SOL     OW72298   5.899   8.078   3.362
23489SOL    HW172299   5.929   8.090   3.272
23489SOL    HW272300   5.979   8.064   3.412
23490SOL     OW72301   9.992   3.794  10.913
23490SOL    HW172302   9.991   3.817  10.820
23490SOL    HW272303   9.900   3.783  10.936
23491SOL     OW72304  12.278   0.502   9.445
23491SOL    HW172305  12.328   0.421   9.441
23491SOL    HW272306  12.235   0.499   9.531
23492SOL     OW72307   7.088   7.895   3.645
23492SOL    HW172308   7.077   7.890   3.550
23492SOL    HW272309   7.178   7.867   3.660
23493SOL     OW72310  13.469  14.727   7.386
23493SOL    HW172311  13.511  14.667   7.324
23493SOL    HW272312  13.540  14.786   7.414
23494SOL     OW72313   8.873   1.896   3.463
23494SOL    HW172314   8.840   1.862   3.546
23494SOL    HW272315   8.920   1.976   3.487
23495SOL     OW72316   7.385   0.168   3.822
23495SOL    HW172317   7.400   0.149   3.729
23495SOL    HW272318   7.430   0.097   3.869
23496SOL     OW72319   0.535  10.273  11.856
23496SOL    HW172320   0.629  10.259  11.869
23496SOL    HW272321   0.501  10.188  11.828
23497SOL     OW72322  11.874  12.226   5.645
23497SOL    HW172323  11.953  12.207   5.594
23497SOL    HW272324  11.802  12.216   5.582
23498SOL     OW72325   8.407   2.324   7.710
23498SOL    HW172326   8.442   2.265   7.643
23498SOL    HW272327   8.350   2.384   7.661
23499SOL     OW72328   8.610   6.592   3.650
23499SOL    HW172329   8.570   6.678   3.667
23499SOL    HW272330   8.561   6.558   3.575
23500SOL     OW72331  10.234   7.370  12.064
23500SOL    HW172332  10.175   7.395  12.136
23500SOL    HW272333  10.217   7.277  12.050
23501SOL     OW72334  13.539   4.434   3.100
23501SOL    HW172335  13.538   4.403   3.010
23501SOL    HW272336  13.480   4.375   3.147
23502SOL     OW72337   6.189   1.020   9.283
23502SOL    HW172338   6.225   0.998   9.197
23502SOL    HW272339   6.254   0.986   9.345
23503SOL     OW72340  11.907   2.841   5.186
23503SOL    HW172341  11.870   2.794   5.261
23503SOL    HW272342  11.861   2.806   5.110
23504SOL     OW72343   4.391   6.828  13.364
23504SOL    HW172344   4.366   6.892  13.431
23504SOL    HW272345   4.353   6.746  13.395
23505SOL     OW72346   4.312   0.363   7.995
23505SOL    HW172347   4.340   0.310   7.920
23505SOL    HW272348   4.247   0.423   7.958
23506SOL     OW72349   4.970   2.257   0.035
23506SOL    HW172350   5.017   2.195   0.091
23506SOL    HW272351   4.893   2.208   0.005
23507SOL     OW72352   2.851   0.313   2.912
23507SOL    HW172353   2.763   0.276   2.926
23507SOL    HW272354   2.835   0.406   2.899
23508SOL     OW72355   8.697   9.334  11.372
23508SOL    HW172356   8.659   9.401  11.429
23508SOL    HW272357   8.626   9.271  11.358
23509SOL     OW72358   8.225   5.767   1.589
23509SOL    HW172359   8.171   5.696   1.623
23509SOL    HW272360   8.250   5.818   1.666
23510SOL     OW72361   1.189  10.856   3.198
23510SOL    HW172362   1.201  10.814   3.283
23510SOL    HW272363   1.142  10.937   3.217
23511SOL     OW72364   5.352   2.707  12.813
23511SOL    HW172365   5.319   2.674  12.730
23511SOL    HW272366   5.274   2.735  12.861
23512SOL     OW72367   6.227   3.286   5.164
23512SOL    HW172368   6.313   3.277   5.205
23512SOL    HW272369   6.234   3.363   5.108
23513SOL     OW72370  11.022   7.814   7.341
23513SOL    HW172371  11.036   7.903   7.309
23513SOL    HW272372  11.047   7.758   7.268
23514SOL     OW72373  10.315  12.274   6.595
23514SOL    HW172374  10.236  12.230   6.565
23514SOL    HW272375  10.283  12.358   6.628
23515SOL     OW72376   3.982   9.203   6.481
23515SOL    HW172377   4.012   9.112   6.480
23515SOL    HW272378   3.925   9.208   6.558
23516SOL     OW72379   5.389   9.993  12.453
23516SOL    HW172380   5.390   9.913  12.401
23516SOL    HW272381   5.346  10.057  12.397
23517SOL     OW72382   1.440   0.714   9.293
23517SOL    HW172383   1.501   0.773   9.250
23517SOL    HW272384   1.369   0.702   9.230
23518SOL     OW72385   1.783   2.570   3.500
23518SOL    HW172386   1.859   2.627   3.490
23518SOL    HW272387   1.727   2.593   3.426
23519SOL     OW72388   1.668   1.561  13.669
23519SOL    HW172389   1.589   1.554  13.722
23519SOL    HW272390   1.713   1.638  13.704
23520SOL     OW72391   2.476  12.999   8.927
23520SOL    HW172392   2.543  12.980   8.993
23520SOL    HW272393   2.522  13.052   8.862
23521SOL     OW72394  12.293   8.158   9.920
23521SOL    HW172395  12.338   8.166  10.004
23521SOL    HW272396  12.224   8.093   9.935
23522SOL     OW72397  10.958   9.496   4.072
23522SOL    HW172398  10.907   9.561   4.023
23522SOL    HW272399  10.950   9.416   4.020
23523SOL     OW72400   3.416  10.093   6.744
23523SOL    HW172401   3.424  10.001   6.770
23523SOL    HW272402   3.330  10.120   6.777
23524SOL     OW72403   1.291  11.830   6.541
23524SOL    HW172404   1.212  11.780   6.559
23524SOL    HW272405   1.263  11.921   6.549
23525SOL     OW72406  10.878   1.992  11.657
23525SOL    HW172407  10.837   1.906  11.667
23525SOL    HW272408  10.806   2.054  11.666
23526SOL     OW72409  13.714   5.785  11.240
23526SOL    HW172410  13.626   5.778  11.203
23526SOL    HW272411  13.701   5.824  11.327
23527SOL     OW72412   9.111   6.553  10.273
23527SOL    HW172413   9.178   6.486  10.287
23527SOL    HW272414   9.048   6.512  10.214
23528SOL     OW72415   5.694   7.823   0.226
23528SOL    HW172416   5.654   7.744   0.192
23528SOL    HW272417   5.764   7.792   0.285
23529SOL     OW72418   3.691   5.949  14.766
23529SOL    HW172419   3.686   5.889  14.840
23529SOL    HW272420   3.607   5.939  14.722
23530SOL     OW72421  11.214  13.350   7.174
23530SOL    HW172422  11.291  13.322   7.123
23530SOL    HW272423  11.164  13.270   7.189
23531SOL     OW72424   7.807   3.665   9.041
23531SOL    HW172425   7.861   3.682   8.964
23531SOL    HW272426   7.724   3.708   9.022
23532SOL     OW72427  12.533  12.642   8.252
23532SOL    HW172428  12.556  12.567   8.306
23532SOL    HW272429  12.591  12.712   8.283
23533SOL     OW72430  14.331   9.142   2.808
23533SOL    HW172431  14.249   9.184   2.835
23533SOL    HW272432  14.346   9.074   2.874
23534SOL     OW72433   4.293   3.412  13.504
23534SOL    HW172434   4.271   3.377  13.591
23534SOL    HW272435   4.257   3.501  13.504
23535SOL     OW72436  14.189   0.119  11.656
23535SOL    HW172437  14.137   0.135  11.577
23535SOL    HW272438  14.275   0.093  11.623
23536SOL     OW72439   4.691   7.282  13.333
23536SOL    HW172440   4.646   7.227  13.269
23536SOL    HW272441   4.784   7.264  13.319
23537SOL     OW72442   8.498   7.051   9.383
23537SOL    HW172443   8.516   7.123   9.323
23537SOL    HW272444   8.577   7.044   9.436
23538SOL     OW72445  14.231   9.001  12.725
23538SOL    HW172446  14.326   9.001  12.722
23538SOL    HW272447  14.209   9.078  12.779
23539SOL     OW72448   4.935  11.169  10.782
23539SOL    HW172449   4.897  11.231  10.845
23539SOL    HW272450   4.892  11.086  10.802
23540SOL     OW72451  14.827   0.383   6.314
23540SOL    HW172452  14.849   0.465   6.269
23540SOL    HW272453  14.753   0.348   6.264
23541SOL     OW72454   1.875   5.461  13.697
23541SOL    HW172455   1.948   5.472  13.635
23541SOL    HW272456   1.866   5.546  13.739
23542SOL     OW72457   1.781   8.117  10.301
23542SOL    HW172458   1.761   8.097  10.209
23542SOL    HW272459   1.730   8.195  10.320
23543SOL     OW72460   4.191  13.601  11.125
23543SOL    HW172461   4.238  13.666  11.072
23543SOL    HW272462   4.208  13.627  11.215
23544SOL     OW72463   8.803  13.721   0.649
23544SOL    HW172464   8.809  13.736   0.554
23544SOL    HW272465   8.855  13.791   0.688
23545SOL     OW72466  12.285   2.240   6.351
23545SOL    HW172467  12.205   2.262   6.303
23545SOL    HW272468  12.340   2.319   6.343
23546SOL     OW72469  12.230  11.155  13.117
23546SOL    HW172470  12.226  11.174  13.023
23546SOL    HW272471  12.249  11.240  13.158
23547SOL     OW72472   3.728  12.206   7.106
23547SOL    HW172473   3.649  12.221   7.053
23547SOL    HW272474   3.716  12.262   7.182
23548SOL     OW72475   7.134  14.436   0.631
23548SOL    HW172476   7.069  14.367   0.619
23548SOL    HW272477   7.216  14.399   0.598
23549SOL     OW72478   8.472   2.362   6.999
23549SOL    HW172479   8.536   2.391   7.064
23549SOL    HW272480   8.523   2.350   6.919
23550SOL     OW72481  12.610  13.573   1.888
23550SOL    HW172482  12.640  13.546   1.975
23550SOL    HW272483  12.682  13.551   1.829
23551SOL     OW72484  12.094  14.184  11.740
23551SOL    HW172485  12.064  14.270  11.711
23551SOL    HW272486  12.033  14.123  11.700
23552SOL     OW72487  12.144  10.885   5.105
23552SOL    HW172488  12.070  10.902   5.164
23552SOL    HW272489  12.104  10.879   5.018
23553SOL     OW72490   4.963   0.321  14.501
23553SOL    HW172491   4.885   0.373  14.480
23553SOL    HW272492   5.001   0.364  14.577
23554SOL     OW72493   7.773  12.586   3.463
23554SOL    HW172494   7.835  12.651   3.497
23554SOL    HW272495   7.824  12.537   3.397
23555SOL     OW72496   9.679   9.516   6.354
23555SOL    HW172497   9.665   9.521   6.259
23555SOL    HW272498   9.756   9.459   6.363
23556SOL     OW72499  12.742   2.762  10.919
23556SOL    HW172500  12.817   2.821  10.912
23556SOL    HW272501  12.775   2.678  10.889
23557SOL     OW72502   4.572   0.632   8.287
23557SOL    HW172503   4.598   0.633   8.195
23557SOL    HW272504   4.536   0.719   8.303
23558SOL     OW72505   7.800   7.877   1.901
23558SOL    HW172506   7.717   7.924   1.915
23558SOL    HW272507   7.849   7.933   1.841
23559SOL     OW72508   5.149   1.267   1.007
23559SOL    HW172509   5.204   1.327   0.958
23559SOL    HW272510   5.065   1.313   1.017
23560SOL     OW72511  13.934   9.781   1.551
23560SOL    HW172512  13.977   9.865   1.564
23560SOL    HW272513  13.982   9.721   1.608
23561SOL     OW72514  14.105   6.403   0.883
23561SOL    HW172515  14.021   6.395   0.838
23561SOL    HW272516  14.086   6.382   0.974
23562SOL     OW72517   5.247  12.851  10.956
23562SOL    HW172518   5.162  12.886  10.930
23562SOL    HW272519   5.233  12.816  11.044
23563SOL     OW72520   7.896   8.552   9.793
23563SOL    HW172521   7.897   8.598   9.877
23563SOL    HW272522   7.888   8.460   9.816
23564SOL     OW72523  10.705   5.670  12.114
23564SOL    HW172524  10.740   5.654  12.202
23564SOL    HW272525  10.618   5.706  12.130
23565SOL     OW72526  12.042   7.263   7.107
23565SOL    HW172527  12.092   7.339   7.138
23565SOL    HW272528  12.108   7.207   7.066
23566SOL     OW72529   2.833  10.948   2.166
23566SOL    HW172530   2.913  10.922   2.211
23566SOL    HW272531   2.764  10.897   2.208
23567SOL     OW72532   6.434   4.564   1.090
23567SOL    HW172533   6.487   4.630   1.046
23567SOL    HW272534   6.493   4.490   1.102
23568SOL     OW72535  11.887   3.069  14.659
23568SOL    HW172536  11.855   3.150  14.699
23568SOL    HW272537  11.982   3.082  14.650
23569SOL     OW72538  10.488  13.715   4.462
23569SOL    HW172539  10.419  13.654   4.491
23569SOL    HW272540  10.452  13.757   4.384
23570SOL     OW72541  12.172   6.675  14.198
23570SOL    HW172542  12.234   6.743  14.224
23570SOL    HW272543  12.121   6.658  14.277
23571SOL     OW72544  13.128  13.675  10.165
23571SOL    HW172545  13.080  13.667  10.083
23571SOL    HW272546  13.072  13.728  10.221
23572SOL     OW72547  11.026   2.758   0.984
23572SOL    HW172548  11.084   2.791   0.916
23572SOL    HW272549  11.070   2.780   1.066
23573SOL     OW72550  13.788   8.896  13.198
23573SOL    HW172551  13.873   8.910  13.154
23573SOL    HW272552  13.773   8.802  13.188
23574SOL     OW72553   4.454   9.641   1.786
23574SOL    HW172554   4.421   9.580   1.852
23574SOL    HW272555   4.547   9.618   1.777
23575SOL     OW72556  12.363  14.104  14.698
23575SOL    HW172557  12.387  14.015  14.724
23575SOL    HW272558  12.446  14.143  14.670
23576SOL     OW72559   6.160  13.646  11.981
23576SOL    HW172560   6.136  13.730  12.020
23576SOL    HW272561   6.085  13.622  11.927
23577SOL     OW72562   8.586  13.965   9.339
23577SOL    HW172563   8.619  13.984   9.251
23577SOL    HW272564   8.662  13.980   9.396
23578SOL     OW72565   9.991   0.462  12.656
23578SOL    HW172566   9.991   0.476  12.561
23578SOL    HW272567   9.926   0.524  12.689
23579SOL     OW72568   0.987  13.429   7.462
23579SOL    HW172569   1.033  13.456   7.382
23579SOL    HW272570   0.895  13.420   7.434
23580SOL     OW72571  14.609  11.194  14.635
23580SOL    HW172572  14.577  11.111  14.670
23580SOL    HW272573  14.669  11.170  14.565
23581SOL     OW72574   1.155  12.780   4.613
23581SOL    HW172575   1.174  12.761   4.705
23581SOL    HW272576   1.069  12.821   4.614
23582SOL     OW72577  12.701  14.761  14.345
23582SOL    HW172578  12.715  14.798  14.258
23582SOL    HW272579  12.682  14.669  14.329
23583SOL     OW72580   8.512   3.074  10.643
23583SOL    HW172581   8.551   2.987  10.639
23583SOL    HW272582   8.521   3.109  10.554
23584SOL     OW72583  13.575  11.427   9.763
23584SOL    HW172584  13.534  11.370   9.828
23584SOL    HW272585  13.518  11.504   9.760
23585SOL     OW72586   0.619   7.306   9.496
23585SOL    HW172587   0.645   7.300   9.404
23585SOL    HW272588   0.544   7.366   9.496
23586SOL     OW72589   4.584   3.317   8.060
23586SOL    HW172590   4.597   3.230   8.100
23586SOL    HW272591   4.647   3.319   7.987
23587SOL     OW72592   8.499   7.083   1.623
23587SOL    HW172593   8.451   7.023   1.680
23587SOL    HW272594   8.450   7.081   1.540
23588SOL     OW72595   5.044  10.873   9.968
23588SOL    HW172596   5.053  10.813   9.894
23588SOL    HW272597   4.975  10.836  10.022
23589SOL     OW72598  13.185  11.429   6.447
23589SOL    HW172599  13.194  11.389   6.534
23589SOL    HW272600  13.242  11.505   6.450
23590SOL     OW72601   8.234  11.076   3.288
23590SOL    HW172602   8.212  11.009   3.223
23590SOL    HW272603   8.300  11.130   3.246
23591SOL     OW72604  11.195  13.177  11.527
23591SOL    HW172605  11.173  13.258  11.482
23591SOL    HW272606  11.220  13.116  11.457
23592SOL     OW72607   6.036  14.438   2.337
23592SOL    HW172608   6.033  14.431   2.433
23592SOL    HW272609   6.121  14.400   2.313
23593SOL     OW72610   8.494  10.582   2.579
23593SOL    HW172611   8.415  10.619   2.618
23593SOL    HW272612   8.482  10.594   2.485
23594SOL     OW72613  11.958  13.006  10.335
23594SOL    HW172614  11.925  13.045  10.254
23594SOL    HW272615  12.016  12.936  10.307
23595SOL     OW72616   5.743   2.624  14.042
23595SOL    HW172617   5.693   2.602  14.121
23595SOL    HW272618   5.834   2.619  14.069
23596SOL     OW72619   3.073  11.124   7.716
23596SOL    HW172620   3.036  11.037   7.702
23596SOL    HW272621   3.139  11.111   7.784
23597SOL     OW72622   7.619   5.394   7.971
23597SOL    HW172623   7.588   5.319   7.921
23597SOL    HW272624   7.702   5.364   8.010
23598SOL     OW72625   9.078   0.104   7.256
23598SOL    HW172626   9.066   0.044   7.331
23598SOL    HW272627   9.131   0.053   7.194
23599SOL     OW72628  14.799   8.374   8.119
23599SOL    HW172629  14.822   8.461   8.151
23599SOL    HW272630  14.876   8.321   8.139
23600SOL     OW72631  13.953   7.234  11.036
23600SOL    HW172632  13.947   7.328  11.051
23600SOL    HW272633  13.924   7.194  11.118
23601SOL     OW72634   1.683   7.130  12.786
23601SOL    HW172635   1.757   7.070  12.790
23601SOL    HW272636   1.678   7.156  12.694
23602SOL     OW72637  11.297   3.867   7.592
23602SOL    HW172638  11.257   3.931   7.534
23602SOL    HW272639  11.296   3.908   7.678
23603SOL     OW72640   0.961   0.174   7.914
23603SOL    HW172641   0.933   0.230   7.986
23603SOL    HW272642   1.049   0.203   7.893
23604SOL     OW72643   1.026   7.966  11.988
23604SOL    HW172644   0.934   7.970  12.016
23604SOL    HW272645   1.022   7.970  11.892
23605SOL     OW72646   2.445  11.923  14.750
23605SOL    HW172647   2.430  11.944  14.658
23605SOL    HW272648   2.478  11.834  14.750
23606SOL     OW72649   5.845   9.004   2.589
23606SOL    HW172650   5.776   8.938   2.585
23606SOL    HW272651   5.876   9.001   2.679
23607SOL     OW72652   9.594   7.095  13.948
23607SOL    HW172653   9.659   7.037  13.989
23607SOL    HW272654   9.581   7.164  14.013
23608SOL     OW72655   3.907  13.329   7.594
23608SOL    HW172656   3.815  13.330   7.571
23608SOL    HW272657   3.934  13.238   7.583
23609SOL     OW72658   0.210   5.635  10.350
23609SOL    HW172659   0.269   5.678  10.411
23609SOL    HW272660   0.123   5.668  10.372
23610SOL     OW72661   4.034  10.416   8.089
23610SOL    HW172662   3.984  10.335   8.082
23610SOL    HW272663   4.110  10.403   8.033
23611SOL     OW72664   1.649   5.567   5.616
23611SOL    HW172665   1.568   5.610   5.642
23611SOL    HW272666   1.677   5.519   5.694
23612SOL     OW72667   5.407   7.633  11.280
23612SOL    HW172668   5.354   7.635  11.360
23612SOL    HW272669   5.376   7.707  11.228
23613SOL     OW72670   5.388   7.216   8.641
23613SOL    HW172671   5.469   7.255   8.609
23613SOL    HW272672   5.319   7.264   8.596
23614SOL     OW72673   0.528   1.053   3.740
23614SOL    HW172674   0.621   1.043   3.764
23614SOL    HW272675   0.508   1.144   3.758
23615SOL     OW72676   3.853   8.073   0.851
23615SOL    HW172677   3.938   8.100   0.887
23615SOL    HW272678   3.875   8.008   0.784
23616SOL     OW72679  10.649   7.979  11.884
23616SOL    HW172680  10.567   7.947  11.846
23616SOL    HW272681  10.690   8.030  11.814
23617SOL     OW72682  13.934   3.135  13.558
23617SOL    HW172683  14.019   3.178  13.551
23617SOL    HW272684  13.932   3.099  13.647
23618SOL     OW72685   9.963   2.822   8.370
23618SOL    HW172686   9.914   2.818   8.452
23618SOL    HW272687   9.901   2.794   8.303
23619SOL     OW72688   5.383   4.221   6.219
23619SOL    HW172689   5.427   4.271   6.151
23619SOL    HW272690   5.421   4.133   6.213
23620SOL     OW72691   8.267   1.671   5.193
23620SOL    HW172692   8.308   1.746   5.235
23620SOL    HW272693   8.247   1.700   5.104
23621SOL     OW72694   9.489  12.303   0.560
23621SOL    HW172695   9.459  12.378   0.611
23621SOL    HW272696   9.581  12.293   0.583
23622SOL     OW72697   0.568   0.203   8.689
23622SOL    HW172698   0.524   0.242   8.614
23622SOL    HW272699   0.518   0.123   8.708
23623SOL     OW72700   4.515   4.732   9.271
23623SOL    HW172701   4.442   4.773   9.226
23623SOL    HW272702   4.582   4.721   9.203
23624SOL     OW72703   1.854   2.277   9.206
23624SOL    HW172704   1.861   2.283   9.111
23624SOL    HW272705   1.945   2.275   9.237
23625SOL     OW72706   0.430  10.980   2.053
23625SOL    HW172707   0.482  11.047   2.008
23625SOL    HW272708   0.400  11.022   2.133
23626SOL     OW72709   4.543  10.976  10.311
23626SOL    HW172710   4.500  10.894  10.291
23626SOL    HW272711   4.637  10.955  10.310
23627SOL     OW72712   1.673   5.755   0.753
23627SOL    HW172713   1.653   5.792   0.667
23627SOL    HW272714   1.723   5.823   0.798
23628SOL     OW72715  14.628   8.995  11.809
23628SOL    HW172716  14.724   8.998  11.814
23628SOL    HW272717  14.602   9.087  11.797
23629SOL     OW72718   9.696   2.919   5.065
23629SOL    HW172719   9.704   2.868   5.145
23629SOL    HW272720   9.602   2.931   5.053
23630SOL     OW72721   6.285  10.749  11.301
23630SOL    HW172722   6.337  10.804  11.242
23630SOL    HW272723   6.344  10.678  11.325
23631SOL     OW72724   0.319   8.861   7.850
23631SOL    HW172725   0.239   8.834   7.896
23631SOL    HW272726   0.305   8.834   7.759
23632SOL     OW72727  11.874  12.992   3.565
23632SOL    HW172728  11.794  12.940   3.562
23632SOL    HW272729  11.851  13.070   3.615
23633SOL     OW72730   8.283  11.409  13.947
23633SOL    HW172731   8.284  11.367  14.033
23633SOL    HW272732   8.262  11.500  13.965
23634SOL     OW72733   5.294   9.062   8.677
23634SOL    HW172734   5.242   9.022   8.608
23634SOL    HW272735   5.259   9.151   8.685
23635SOL     OW72736   7.857   7.736   7.415
23635SOL    HW172737   7.826   7.823   7.441
23635SOL    HW272738   7.875   7.692   7.498
23636SOL     OW72739   8.661  10.332  11.865
23636SOL    HW172740   8.660  10.282  11.783
23636SOL    HW272741   8.695  10.417  11.840
23637SOL     OW72742  12.578   5.765   6.372
23637SOL    HW172743  12.527   5.845   6.381
23637SOL    HW272744  12.669   5.792   6.385
23638SOL     OW72745  14.675   3.810  11.255
23638SOL    HW172746  14.674   3.804  11.160
23638SOL    HW272747  14.679   3.718  11.284
23639SOL     OW72748  11.881   2.542  12.898
23639SOL    HW172749  11.838   2.580  12.975
23639SOL    HW272750  11.952   2.490  12.935
23640SOL     OW72751   5.344   9.218   0.564
23640SOL    HW172752   5.400   9.151   0.604
23640SOL    HW272753   5.403   9.289   0.541
23641SOL     OW72754   4.401   5.570   7.817
23641SOL    HW172755   4.437   5.630   7.751
23641SOL    HW272756   4.366   5.627   7.885
23642SOL     OW72757   8.716   2.998   6.062
23642SOL    HW172758   8.695   3.021   5.971
23642SOL    HW272759   8.654   3.049   6.114
23643SOL     OW72760  12.716   9.741   3.630
23643SOL    HW172761  12.699   9.650   3.609
23643SOL    HW272762  12.781   9.738   3.701
23644SOL     OW72763  12.014  10.481   0.299
23644SOL    HW172764  11.931  10.439   0.323
23644SOL    HW272765  12.051  10.509   0.382
23645SOL     OW72766   8.159   5.921  11.448
23645SOL    HW172767   8.192   5.960  11.528
23645SOL    HW272768   8.071   5.958  11.438
23646SOL     OW72769  13.142  13.930   2.127
23646SOL    HW172770  13.145  14.009   2.072
23646SOL    HW272771  13.049  13.915   2.141
23647SOL     OW72772   6.042   4.420   4.246
23647SOL    HW172773   5.975   4.489   4.241
23647SOL    HW272774   6.015   4.356   4.181
23648SOL     OW72775   5.354   7.978  11.295
23648SOL    HW172776   5.262   7.962  11.313
23648SOL    HW272777   5.374   7.925  11.218
23649SOL     OW72778   9.375   1.439  12.527
23649SOL    HW172779   9.353   1.390  12.448
23649SOL    HW272780   9.399   1.526  12.495
23650SOL     OW72781   4.072   8.840  10.017
23650SOL    HW172782   3.989   8.798  10.041
23650SOL    HW272783   4.134   8.810  10.084
23651SOL     OW72784  12.199   2.228   2.444
23651SOL    HW172785  12.119   2.207   2.396
23651SOL    HW272786  12.265   2.245   2.376
23652SOL     OW72787   7.383   8.259   8.161
23652SOL    HW172788   7.370   8.324   8.092
23652SOL    HW272789   7.430   8.188   8.119
23653SOL     OW72790   4.438   0.601   4.610
23653SOL    HW172791   4.473   0.590   4.521
23653SOL    HW272792   4.466   0.689   4.636
23654SOL     OW72793   7.031   7.193  10.538
23654SOL    HW172794   7.104   7.183  10.599
23654SOL    HW272795   7.066   7.250  10.468
23655SOL     OW72796   9.893   6.991   2.917
23655SOL    HW172797   9.898   7.073   2.868
23655SOL    HW272798   9.882   6.924   2.850
23656SOL     OW72799  14.188   2.785   4.429
23656SOL    HW172800  14.105   2.782   4.380
23656SOL    HW272801  14.256   2.789   4.362
23657SOL     OW72802  14.126  13.458  11.846
23657SOL    HW172803  14.211  13.445  11.887
23657SOL    HW272804  14.072  13.499  11.914
23658SOL     OW72805  10.536   4.485   0.135
23658SOL    HW172806  10.441   4.501   0.132
23658SOL    HW272807  10.562   4.478   0.043
23659SOL     OW72808  13.513   6.573   3.956
23659SOL    HW172809  13.423   6.594   3.982
23659SOL    HW272810  13.508   6.561   3.861
23660SOL     OW72811   4.468  11.061  13.269
23660SOL    HW172812   4.485  10.967  13.271
23660SOL    HW272813   4.413  11.073  13.191
23661SOL     OW72814  10.554   4.102  12.830
23661SOL    HW172815  10.649   4.114  12.818
23661SOL    HW272816  10.538   4.012  12.801
23662SOL     OW72817   6.596  10.512  14.633
23662SOL    HW172818   6.596  10.477  14.544
23662SOL    HW272819   6.507  10.496  14.666
23663SOL     OW72820  13.590  11.532   5.028
23663SOL    HW172821  13.662  11.538   5.091
23663SOL    HW272822  13.615  11.594   4.959
23664SOL     OW72823   4.953   8.136   1.862
23664SOL    HW172824   4.873   8.131   1.914
23664SOL    HW272825   4.935   8.205   1.798
23665SOL     OW72826  10.390   3.189   9.118
23665SOL    HW172827  10.331   3.148   9.055
23665SOL    HW272828  10.440   3.117   9.156
23666SOL     OW72829  11.070   1.909  13.032
23666SOL    HW172830  11.030   1.824  13.015
23666SOL    HW272831  11.025   1.941  13.110
23667SOL     OW72832  11.103   3.116   6.346
23667SOL    HW172833  11.085   3.129   6.439
23667SOL    HW272834  11.016   3.101   6.308
23668SOL     OW72835   4.984   8.658   1.879
23668SOL    HW172836   4.939   8.617   1.952
23668SOL    HW272837   4.950   8.613   1.801
23669SOL     OW72838   4.177   4.351  12.013
23669SOL    HW172839   4.190   4.285  11.946
23669SOL    HW272840   4.135   4.305  12.086
23670SOL     OW72841   1.104   1.093   3.288
23670SOL    HW172842   1.113   1.151   3.212
23670SOL    HW272843   1.013   1.065   3.287
23671SOL     OW72844   9.274   7.430   5.997
23671SOL    HW172845   9.188   7.392   5.976
23671SOL    HW272846   9.337   7.363   5.971
23672SOL     OW72847  11.737   6.067  12.447
23672SOL    HW172848  11.646   6.083  12.473
23672SOL    HW272849  11.787   6.135  12.492
23673SOL     OW72850   9.550   0.861   1.194
23673SOL    HW172851   9.510   0.786   1.151
23673SOL    HW272852   9.638   0.832   1.218
23674SOL     OW72853   7.790   8.510  10.090
23674SOL    HW172854   7.824   8.430  10.130
23674SOL    HW272855   7.696   8.494  10.082
23675SOL     OW72856   2.748  13.943  10.077
23675SOL    HW172857   2.719  13.867  10.026
23675SOL    HW272858   2.674  14.003  10.074
23676SOL     OW72859   8.585   0.886   2.555
23676SOL    HW172860   8.673   0.848   2.558
23676SOL    HW272861   8.527   0.815   2.584
23677SOL     OW72862   1.041   0.149   3.496
23677SOL    HW172863   0.994   0.065   3.500
23677SOL    HW272864   1.130   0.125   3.468
23678SOL     OW72865   2.900   1.208   1.895
23678SOL    HW172866   2.991   1.189   1.869
23678SOL    HW272867   2.849   1.197   1.814
23679SOL     OW72868  11.402  13.171   8.368
23679SOL    HW172869  11.411  13.158   8.274
23679SOL    HW272870  11.335  13.238   8.377
23680SOL     OW72871  14.552  12.831   2.465
23680SOL    HW172872  14.585  12.752   2.422
23680SOL    HW272873  14.622  12.858   2.524
23681SOL     OW72874  11.338  13.611   5.605
23681SOL    HW172875  11.306  13.524   5.629
23681SOL    HW272876  11.304  13.669   5.673
23682SOL     OW72877   6.631   6.712   8.739
23682SOL    HW172878   6.608   6.669   8.657
23682SOL    HW272879   6.681   6.645   8.787
23683SOL     OW72880   7.114   2.090   9.438
23683SOL    HW172881   7.064   2.152   9.493
23683SOL    HW272882   7.107   2.126   9.350
23684SOL     OW72883   9.246   0.768   2.639
23684SOL    HW172884   9.209   0.835   2.695
23684SOL    HW272885   9.190   0.692   2.653
23685SOL     OW72886   8.382  11.855   3.424
23685SOL    HW172887   8.415  11.846   3.334
23685SOL    HW272888   8.287  11.848   3.415
23686SOL     OW72889   1.268   4.628   6.223
23686SOL    HW172890   1.340   4.666   6.274
23686SOL    HW272891   1.310   4.574   6.157
23687SOL     OW72892   2.406   8.146   3.662
23687SOL    HW172893   2.407   8.152   3.566
23687SOL    HW272894   2.333   8.088   3.682
23688SOL     OW72895  11.228   1.123   9.216
23688SOL    HW172896  11.135   1.132   9.195
23688SOL    HW272897  11.233   1.047   9.273
23689SOL     OW72898  10.277   1.156  13.563
23689SOL    HW172899  10.342   1.111  13.509
23689SOL    HW272900  10.193   1.135  13.521
23690SOL     OW72901   2.562   2.688   9.354
23690SOL    HW172902   2.484   2.726   9.395
23690SOL    HW272903   2.631   2.752   9.369
23691SOL     OW72904  13.695   2.185   3.374
23691SOL    HW172905  13.785   2.184   3.407
23691SOL    HW272906  13.703   2.157   3.282
23692SOL     OW72907   2.364   7.209  11.279
23692SOL    HW172908   2.436   7.260  11.243
23692SOL    HW272909   2.356   7.134  11.219
23693SOL     OW72910   1.130   2.873   3.683
23693SOL    HW172911   1.210   2.849   3.730
23693SOL    HW272912   1.151   2.956   3.640
23694SOL     OW72913  10.519  11.866  12.068
23694SOL    HW172914  10.555  11.928  12.131
23694SOL    HW272915  10.436  11.906  12.040
23695SOL     OW72916  14.778  11.217   4.367
23695SOL    HW172917  14.713  11.148   4.370
23695SOL    HW272918  14.812  11.223   4.456
23696SOL     OW72919  11.503   6.426  12.815
23696SOL    HW172920  11.540   6.514  12.806
23696SOL    HW272921  11.497   6.393  12.725
23697SOL     OW72922  14.736   8.926  10.641
23697SOL    HW172923  14.657   8.870  10.645
23697SOL    HW272924  14.804   8.873  10.683
23698SOL     OW72925   0.142   7.381   2.186
23698SOL    HW172926   0.072   7.344   2.132
23698SOL    HW272927   0.145   7.473   2.161
23699SOL     OW72928   2.387   3.477   9.664
23699SOL    HW172929   2.299   3.508   9.644
23699SOL    HW272930   2.411   3.424   9.588
23700SOL     OW72931   1.027  13.130  12.780
23700SOL    HW172932   0.991  13.216  12.759
23700SOL    HW272933   1.112  13.128  12.736
23701SOL     OW72934   2.259   2.624   2.238
23701SOL    HW172935   2.271   2.572   2.158
23701SOL    HW272936   2.282   2.713   2.213
23702SOL     OW72937   2.090   0.684  11.688
23702SOL    HW172938   2.001   0.682  11.724
23702SOL    HW272939   2.136   0.748  11.742
23703SOL     OW72940   3.158   8.986  13.957
23703SOL    HW172941   3.129   8.901  13.991
23703SOL    HW272942   3.183   8.969  13.866
23704SOL     OW72943  12.404   5.781  13.634
23704SOL    HW172944  12.436   5.736  13.556
23704SOL    HW272945  12.309   5.771  13.631
23705SOL     OW72946   9.281   0.219  13.979
23705SOL    HW172947   9.373   0.193  13.980
23705SOL    HW272948   9.283   0.314  13.984
23706SOL     OW72949   7.246  11.002   5.462
23706SOL    HW172950   7.291  10.978   5.381
23706SOL    HW272951   7.229  10.919   5.506
23707SOL     OW72952   0.579   7.566   4.521
23707SOL    HW172953   0.668   7.549   4.490
23707SOL    HW272954   0.526   7.566   4.441
23708SOL     OW72955   8.007  13.993  12.293
23708SOL    HW172956   7.976  13.904  12.277
23708SOL    HW272957   8.065  13.984  12.369
23709SOL     OW72958  10.584   4.335   8.261
23709SOL    HW172959  10.528   4.328   8.339
23709SOL    HW272960  10.564   4.421   8.225
23710SOL     OW72961  13.078  11.592  10.630
23710SOL    HW172962  12.991  11.552  10.631
23710SOL    HW272963  13.063  11.683  10.654
23711SOL     OW72964   2.674  14.362   1.896
23711SOL    HW172965   2.716  14.320   1.821
23711SOL    HW272966   2.719  14.325   1.972
23712SOL     OW72967  12.809  13.176  11.842
23712SOL    HW172968  12.825  13.084  11.823
23712SOL    HW272969  12.892  13.219  11.822
23713SOL     OW72970   9.859   7.219   3.595
23713SOL    HW172971   9.766   7.195   3.591
23713SOL    HW272972   9.864   7.281   3.668
23714SOL     OW72973   0.319  12.875  10.794
23714SOL    HW172974   0.389  12.819  10.829
23714SOL    HW272975   0.254  12.879  10.863
23715SOL     OW72976   9.706   4.958   0.243
23715SOL    HW172977   9.766   4.966   0.317
23715SOL    HW272978   9.760   4.979   0.166
23716SOL     OW72979   4.444   2.821   2.777
23716SOL    HW172980   4.379   2.752   2.765
23716SOL    HW272981   4.501   2.814   2.701
23717SOL     OW72982   0.845   2.215  11.931
23717SOL    HW172983   0.818   2.306  11.915
23717SOL    HW272984   0.933   2.222  11.967
23718SOL     OW72985   8.589  12.377  14.053
23718SOL    HW172986   8.582  12.395  14.147
23718SOL    HW272987   8.504  12.400  14.017
23719SOL     OW72988  14.213   1.882  12.841
23719SOL    HW172989  14.192   1.915  12.929
23719SOL    HW272990  14.197   1.957  12.783
23720SOL     OW72991   3.395   0.796  13.795
23720SOL    HW172992   3.366   0.717  13.749
23720SOL    HW272993   3.328   0.810  13.862
23721SOL     OW72994   3.977  10.420   3.751
23721SOL    HW172995   3.954  10.362   3.824
23721SOL    HW272996   3.920  10.392   3.679
23722SOL     OW72997   6.318  13.500   4.481
23722SOL    HW172998   6.340  13.556   4.556
23722SOL    HW272999   6.287  13.419   4.520
23723SOL     OW73000  12.687   4.727   1.734
23723SOL    HW173001  12.742   4.730   1.655
23723SOL    HW273002  12.701   4.639   1.769
23724SOL     OW73003  14.617   5.511   9.536
23724SOL    HW173004  14.544   5.573   9.536
23724SOL    HW273005  14.632   5.492   9.628
23725SOL     OW73006   6.706  14.574   5.266
23725SOL    HW173007   6.794  14.613   5.271
23725SOL    HW273008   6.647  14.648   5.278
23726SOL     OW73009   0.709  11.766   5.549
23726SOL    HW173010   0.768  11.716   5.493
23726SOL    HW273011   0.670  11.831   5.490
23727SOL     OW73012  11.804   9.654   8.976
23727SOL    HW173013  11.900   9.659   8.982
23727SOL    HW273014  11.773   9.729   9.028
23728SOL     OW73015  12.613   5.069  13.202
23728SOL    HW173016  12.629   4.976  13.222
23728SOL    HW273017  12.700   5.105  13.185
23729SOL     OW73018  12.086   4.935   4.184
23729SOL    HW173019  12.012   4.914   4.128
23729SOL    HW273020  12.053   5.001   4.245
23730SOL     OW73021   5.699   0.488   0.858
23730SOL    HW173022   5.725   0.525   0.942
23730SOL    HW273023   5.613   0.527   0.840
23731SOL     OW73024  14.217  12.711   0.537
23731SOL    HW173025  14.220  12.698   0.442
23731SOL    HW273026  14.219  12.806   0.548
23732SOL     OW73027   5.546  13.311   3.400
23732SOL    HW173028   5.501  13.293   3.482
23732SOL    HW273029   5.639  13.305   3.422
23733SOL     OW73030   0.267   9.631   1.761
23733SOL    HW173031   0.191   9.678   1.727
23733SOL    HW273032   0.323   9.700   1.798
23734SOL     OW73033   4.548   7.905  10.683
23734SOL    HW173034   4.572   7.992  10.651
23734SOL    HW273035   4.496   7.867  10.611
23735SOL     OW73036   1.395   8.816   5.911
23735SOL    HW173037   1.394   8.763   5.990
23735SOL    HW273038   1.359   8.901   5.938
23736SOL     OW73039   1.516   6.069  11.092
23736SOL    HW173040   1.568   6.043  11.017
23736SOL    HW273041   1.571   6.132  11.139
23737SOL     OW73042  11.181  12.075  12.508
23737SOL    HW173043  11.254  12.027  12.469
23737SOL    HW273044  11.103  12.032  12.472
23738SOL     OW73045   8.368  13.153   1.648
23738SOL    HW173046   8.308  13.156   1.573
23738SOL    HW273047   8.439  13.212   1.624
23739SOL     OW73048   6.272   3.339  10.500
23739SOL    HW173049   6.256   3.246  10.483
23739SOL    HW273050   6.219   3.359  10.578
23740SOL     OW73051  13.924   7.157   3.753
23740SOL    HW173052  13.983   7.225   3.721
23740SOL    HW273053  13.982   7.083   3.772
23741SOL     OW73054   8.419   3.540  10.546
23741SOL    HW173055   8.451   3.472  10.605
23741SOL    HW273056   8.389   3.609  10.603
23742SOL     OW73057   0.790  11.410   5.805
23742SOL    HW173058   0.822  11.374   5.723
23742SOL    HW273059   0.759  11.498   5.783
23743SOL     OW73060  11.332  12.984   0.309
23743SOL    HW173061  11.290  12.961   0.392
23743SOL    HW273062  11.405  13.040   0.333
23744SOL     OW73063   8.813   8.088   0.149
23744SOL    HW173064   8.844   8.011   0.198
23744SOL    HW273065   8.729   8.110   0.189
23745SOL     OW73066  10.081   1.704   7.527
23745SOL    HW173067  10.003   1.649   7.536
23745SOL    HW273068  10.057   1.787   7.570
23746SOL     OW73069   8.681   2.772   0.596
23746SOL    HW173070   8.772   2.779   0.624
23746SOL    HW273071   8.631   2.814   0.665
23747SOL     OW73072   5.184  13.771   5.251
23747SOL    HW173073   5.196  13.748   5.159
23747SOL    HW273074   5.108  13.721   5.279
23748SOL     OW73075   9.240  10.227   1.707
23748SOL    HW173076   9.243  10.150   1.650
23748SOL    HW273077   9.322  10.222   1.757
23749SOL     OW73078   7.344   8.997   4.568
23749SOL    HW173079   7.364   9.003   4.661
23749SOL    HW273080   7.262   9.046   4.558
23750SOL     OW73081  13.439  13.054   7.089
23750SOL    HW173082  13.419  13.105   7.168
23750SOL    HW273083  13.428  12.963   7.116
23751SOL     OW73084   6.494   0.293  13.421
23751SOL    HW173085   6.515   0.200  13.423
23751SOL    HW273086   6.557   0.331  13.359
23752SOL     OW73087   9.502   0.093   7.776
23752SOL    HW173088   9.443   0.045   7.719
23752SOL    HW273089   9.495   0.184   7.746
23753SOL     OW73090   0.756  11.733   1.268
23753SOL    HW173091   0.688  11.779   1.218
23753SOL    HW273092   0.731  11.641   1.262
23754SOL     OW73093  12.714   4.561   7.842
23754SOL    HW173094  12.799   4.599   7.823
23754SOL    HW273095  12.669   4.559   7.758
23755SOL     OW73096  11.465  13.854  14.731
23755SOL    HW173097  11.493  13.841  14.822
23755SOL    HW273098  11.376  13.888  14.738
23756SOL     OW73099  12.174  14.108   9.955
23756SOL    HW173100  12.261  14.071   9.967
23756SOL    HW273101  12.162  14.168  10.029
23757SOL     OW73102   8.533   1.132   0.414
23757SOL    HW173103   8.559   1.086   0.494
23757SOL    HW273104   8.463   1.078   0.378
23758SOL     OW73105  13.802   8.845  10.359
23758SOL    HW173106  13.715   8.810  10.337
23758SOL    HW273107  13.786   8.910  10.427
23759SOL     OW73108   8.315  12.735  12.663
23759SOL    HW173109   8.227  12.721  12.699
23759SOL    HW273110   8.303  12.805  12.597
23760SOL     OW73111  12.351   5.860   0.983
23760SOL    HW173112  12.436   5.901   1.000
23760SOL    HW273113  12.362   5.770   1.011
23761SOL     OW73114   1.840   0.750   7.684
23761SOL    HW173115   1.847   0.795   7.600
23761SOL    HW273116   1.899   0.675   7.675
23762SOL     OW73117   0.485   6.795   0.647
23762SOL    HW173118   0.509   6.729   0.583
23762SOL    HW273119   0.566   6.815   0.693
23763SOL     OW73120  12.624  11.159   1.680
23763SOL    HW173121  12.656  11.248   1.665
23763SOL    HW273122  12.532  11.170   1.702
23764SOL     OW73123  11.349  11.674   2.697
23764SOL    HW173124  11.410  11.703   2.629
23764SOL    HW273125  11.273  11.731   2.687
23765SOL     OW73126  13.030   2.883   6.932
23765SOL    HW173127  12.970   2.854   6.864
23765SOL    HW273128  13.109   2.910   6.884
23766SOL     OW73129   6.955   0.342   6.549
23766SOL    HW173130   6.865   0.330   6.518
23766SOL    HW273131   6.947   0.400   6.625
23767SOL     OW73132   6.261  12.604   9.655
23767SOL    HW173133   6.200  12.677   9.642
23767SOL    HW273134   6.212  12.542   9.710
23768SOL     OW73135   2.859   5.564   1.957
23768SOL    HW173136   2.849   5.470   1.966
23768SOL    HW273137   2.913   5.576   1.879
23769SOL     OW73138   6.628   2.052   7.651
23769SOL    HW173139   6.705   2.000   7.672
23769SOL    HW273140   6.555   1.991   7.658
23770SOL     OW73141   6.429  13.202  13.810
23770SOL    HW173142   6.401  13.286  13.846
23770SOL    HW273143   6.400  13.204  13.718
23771SOL     OW73144   7.256   3.629  13.344
23771SOL    HW173145   7.280   3.558  13.284
23771SOL    HW273146   7.336   3.680  13.356
23772SOL     OW73147  13.783   7.081   6.720
23772SOL    HW173148  13.754   6.990   6.713
23772SOL    HW273149  13.731   7.117   6.793
23773SOL     OW73150   6.178  13.447  11.504
23773SOL    HW173151   6.172  13.351  11.506
23773SOL    HW273152   6.106  13.475  11.448
23774SOL     OW73153  12.079  10.254   1.987
23774SOL    HW173154  12.107  10.343   1.964
23774SOL    HW273155  11.986  10.262   2.005
23775SOL     OW73156   6.784  14.741  14.866
23775SOL    HW173157   6.690  14.731   0.003
23775SOL    HW273158   6.796  14.835  14.854
23776SOL     OW73159   2.066   0.225   8.748
23776SOL    HW173160   2.028   0.239   8.834
23776SOL    HW273161   2.115   0.143   8.756
23777SOL     OW73162  11.626   7.105   1.203
23777SOL    HW173163  11.636   7.010   1.213
23777SOL    HW273164  11.650   7.140   1.289
23778SOL     OW73165   8.492   0.395  13.695
23778SOL    HW173166   8.496   0.299  13.688
23778SOL    HW273167   8.404   0.417  13.666
23779SOL     OW73168   6.302   3.984   3.037
23779SOL    HW173169   6.282   3.891   3.027
23779SOL    HW273170   6.321   3.994   3.131
23780SOL     OW73171   4.012   6.921   3.387
23780SOL    HW173172   4.010   6.948   3.478
23780SOL    HW273173   3.977   6.996   3.338
23781SOL     OW73174   4.720   4.028   6.701
23781SOL    HW173175   4.688   3.970   6.632
23781SOL    HW273176   4.762   3.970   6.764
23782SOL     OW73177  11.156  14.518   3.690
23782SOL    HW173178  11.188  14.588   3.746
23782SOL    HW273179  11.076  14.553   3.651
23783SOL     OW73180   3.942   8.924   3.052
23783SOL    HW173181   3.890   8.999   3.080
23783SOL    HW273182   4.032   8.946   3.078
23784SOL     OW73183  10.316   7.346  14.062
23784SOL    HW173184  10.299   7.255  14.089
23784SOL    HW273185  10.366   7.339  13.982
23785SOL     OW73186   5.661   5.975  14.313
23785SOL    HW173187   5.699   5.988  14.226
23785SOL    HW273188   5.576   6.019  14.309
23786SOL     OW73189   5.702   2.252   7.429
23786SOL    HW173190   5.714   2.231   7.336
23786SOL    HW273191   5.762   2.194   7.475
23787SOL     OW73192   8.094   0.065   4.562
23787SOL    HW173193   8.035   0.130   4.523
23787SOL    HW273194   8.071  14.865   4.519
23788SOL     OW73195  13.643   9.195   9.927
23788SOL    HW173196  13.627   9.153  10.011
23788SOL    HW273197  13.646   9.123   9.864
23789SOL     OW73198   4.580   9.969   7.559
23789SOL    HW173199   4.552  10.037   7.499
23789SOL    HW273200   4.554  10.001   7.646
23790SOL     OW73201  13.268  13.410   8.073
23790SOL    HW173202  13.291  13.502   8.084
23790SOL    HW273203  13.343  13.372   8.028
23791SOL     OW73204   9.873  13.203   3.437
23791SOL    HW173205   9.939  13.221   3.504
23791SOL    HW273206   9.914  13.139   3.379
23792SOL     OW73207   7.067   0.241   0.584
23792SOL    HW173208   7.152   0.283   0.567
23792SOL    HW273209   7.019   0.250   0.501
23793SOL     OW73210   3.256  11.732  11.068
23793SOL    HW173211   3.219  11.660  11.118
23793SOL    HW273212   3.181  11.788  11.047
23794SOL     OW73213  12.435   0.054   9.644
23794SOL    HW173214  12.518   0.006   9.638
23794SOL    HW273215  12.391   0.037   9.561
23795SOL     OW73216   8.548  12.948   1.173
23795SOL    HW173217   8.522  12.865   1.132
23795SOL    HW273218   8.619  12.924   1.233
23796SOL     OW73219   0.017  12.985  11.445
23796SOL    HW173220  14.809  13.008  11.470
23796SOL    HW273221   0.015  12.984  11.349
23797SOL     OW73222  13.114   9.801   9.011
23797SOL    HW173223  13.055   9.859   9.059
23797SOL    HW273224  13.115   9.836   8.922
23798SOL     OW73225   8.632  12.983   8.974
23798SOL    HW173226   8.673  13.069   8.967
23798SOL    HW273227   8.617  12.956   8.883
23799SOL     OW73228  13.129   3.857   9.402
23799SOL    HW173229  13.155   3.939   9.360
23799SOL    HW273230  13.199   3.839   9.464
23800SOL     OW73231  11.485   8.633  11.293
23800SOL    HW173232  11.488   8.670  11.205
23800SOL    HW273233  11.576   8.627  11.320
23801SOL     OW73234   3.896   8.315  14.338
23801SOL    HW173235   3.803   8.320  14.315
23801SOL    HW273236   3.916   8.221  14.336
23802SOL     OW73237   8.134  12.700   1.862
23802SOL    HW173238   8.098  12.645   1.792
23802SOL    HW273239   8.196  12.758   1.817
23803SOL     OW73240  14.648  10.078   2.091
23803SOL    HW173241  14.613  10.133   2.161
23803SOL    HW273242  14.683  10.139   2.026
23804SOL     OW73243   3.103   6.407   6.236
23804SOL    HW173244   3.018   6.427   6.196
23804SOL    HW273245   3.109   6.312   6.234
23805SOL     OW73246  11.044  10.000   4.496
23805SOL    HW173247  11.047   9.974   4.588
23805SOL    HW273248  10.960  10.044   4.485
23806SOL     OW73249  11.648   1.344   4.010
23806SOL    HW173250  11.659   1.374   4.100
23806SOL    HW273251  11.654   1.423   3.956
23807SOL     OW73252   4.253  12.563   9.557
23807SOL    HW173253   4.233  12.473   9.585
23807SOL    HW273254   4.294  12.553   9.472
23808SOL     OW73255  11.646   5.465  11.064
23808SOL    HW173256  11.605   5.551  11.065
23808SOL    HW273257  11.634   5.431  11.152
23809SOL     OW73258  13.568   2.197   6.169
23809SOL    HW173259  13.562   2.166   6.260
23809SOL    HW273260  13.661   2.218   6.157
23810SOL     OW73261   3.476  10.436   0.375
23810SOL    HW173262   3.548  10.476   0.424
23810SOL    HW273263   3.520  10.385   0.307
23811SOL     OW73264   2.349  13.818   8.022
23811SOL    HW173265   2.436  13.796   8.054
23811SOL    HW273266   2.290  13.784   8.090
23812SOL     OW73267  11.234   5.733  13.644
23812SOL    HW173268  11.170   5.688  13.589
23812SOL    HW273269  11.257   5.670  13.712
23813SOL     OW73270   1.617  12.432   2.647
23813SOL    HW173271   1.521  12.432   2.640
23813SOL    HW273272   1.639  12.521   2.676
23814SOL     OW73273   4.628   8.712   9.624
23814SOL    HW173274   4.704   8.682   9.574
23814SOL    HW273275   4.554   8.703   9.563
23815SOL     OW73276   4.306   3.698   0.194
23815SOL    HW173277   4.395   3.664   0.185
23815SOL    HW273278   4.307   3.780   0.145
23816SOL     OW73279   6.693   5.814   6.550
23816SOL    HW173280   6.675   5.768   6.468
23816SOL    HW273281   6.735   5.896   6.522
23817SOL     OW73282   7.070   3.450  10.949
23817SOL    HW173283   7.095   3.400  11.027
23817SOL    HW273284   7.153   3.484  10.916
23818SOL     OW73285   0.874  12.813  11.452
23818SOL    HW173286   0.930  12.787  11.525
23818SOL    HW273287   0.935  12.841  11.384
23819SOL     OW73288   1.417   3.285  14.513
23819SOL    HW173289   1.441   3.352  14.577
23819SOL    HW273290   1.323   3.295  14.500
23820SOL     OW73291   1.386  10.116   8.390
23820SOL    HW173292   1.396  10.150   8.301
23820SOL    HW273293   1.344  10.188   8.438
23821SOL     OW73294   5.199   6.664   6.361
23821SOL    HW173295   5.283   6.638   6.325
23821SOL    HW273296   5.221   6.707   6.444
23822SOL     OW73297  13.429   0.541  12.688
23822SOL    HW173298  13.387   0.575  12.767
23822SOL    HW273299  13.396   0.451  12.680
23823SOL     OW73300  12.229  10.082   7.335
23823SOL    HW173301  12.226   9.990   7.311
23823SOL    HW273302  12.231  10.130   7.252
23824SOL     OW73303  13.971  14.115   2.682
23824SOL    HW173304  13.967  14.086   2.591
23824SOL    HW273305  13.887  14.088   2.720
23825SOL     OW73306   4.124  10.612  10.087
23825SOL    HW173307   4.189  10.630  10.019
23825SOL    HW273308   4.125  10.517  10.097
23826SOL     OW73309   7.684   5.801   2.690
23826SOL    HW173310   7.697   5.750   2.770
23826SOL    HW273311   7.743   5.760   2.626
23827SOL     OW73312  14.234   7.878   7.815
23827SOL    HW173313  14.298   7.830   7.763
23827SOL    HW273314  14.159   7.819   7.823
23828SOL     OW73315  11.780   9.695   2.739
23828SOL    HW173316  11.771   9.600   2.733
23828SOL    HW273317  11.783   9.713   2.833
23829SOL     OW73318   9.246  14.230   3.394
23829SOL    HW173319   9.191  14.302   3.423
23829SOL    HW273320   9.336  14.262   3.404
23830SOL     OW73321   8.393   6.695   8.456
23830SOL    HW173322   8.341   6.622   8.422
23830SOL    HW273323   8.331   6.767   8.464
23831SOL     OW73324   9.200  13.250   9.282
23831SOL    HW173325   9.130  13.200   9.324
23831SOL    HW273326   9.163  13.277   9.198
23832SOL     OW73327   1.189  12.284   1.948
23832SOL    HW173328   1.261  12.254   2.004
23832SOL    HW273329   1.161  12.205   1.901
23833SOL     OW73330   4.748   8.232   1.678
23833SOL    HW173331   4.669   8.236   1.733
23833SOL    HW273332   4.722   8.179   1.603
23834SOL     OW73333  14.304  14.048   9.083
23834SOL    HW173334  14.330  13.973   9.137
23834SOL    HW273335  14.258  14.010   9.009
23835SOL     OW73336  11.299   4.881  12.582
23835SOL    HW173337  11.276   4.854  12.493
23835SOL    HW273338  11.216   4.904  12.623
23836SOL     OW73339   6.790  12.322   0.462
23836SOL    HW173340   6.780  12.250   0.399
23836SOL    HW273341   6.700  12.351   0.479
23837SOL     OW73342   6.931   9.660  12.645
23837SOL    HW173343   7.009   9.607  12.628
23837SOL    HW273344   6.892   9.673  12.558
23838SOL     OW73345  12.969  12.786   4.687
23838SOL    HW173346  13.025  12.712   4.661
23838SOL    HW273347  13.022  12.863   4.667
23839SOL     OW73348   7.968  12.093  14.094
23839SOL    HW173349   7.942  12.045  14.173
23839SOL    HW273350   7.998  12.026  14.033
23840SOL     OW73351   7.779   1.965   5.282
23840SOL    HW173352   7.746   1.913   5.209
23840SOL    HW273353   7.869   1.988   5.257
23841SOL     OW73354  10.957   7.009   4.859
23841SOL    HW173355  10.991   6.939   4.914
23841SOL    HW273356  11.008   7.003   4.777
23842SOL     OW73357   8.987  13.967   5.841
23842SOL    HW173358   8.997  13.970   5.937
23842SOL    HW273359   9.039  14.042   5.810
23843SOL     OW73360   0.540  11.189   8.681
23843SOL    HW173361   0.563  11.250   8.751
23843SOL    HW273362   0.533  11.104   8.725
23844SOL     OW73363  11.518  12.113  11.544
23844SOL    HW173364  11.428  12.134  11.520
23844SOL    HW273365  11.511  12.080  11.634
23845SOL     OW73366   9.020   0.930  10.474
23845SOL    HW173367   8.948   0.871  10.450
23845SOL    HW273368   8.984   0.983  10.545
23846SOL     OW73369   6.371   4.218   7.369
23846SOL    HW173370   6.304   4.277   7.402
23846SOL    HW273371   6.436   4.276   7.329
23847SOL     OW73372   5.905   0.785   6.125
23847SOL    HW173373   5.862   0.846   6.185
23847SOL    HW273374   5.998   0.792   6.147
23848SOL     OW73375   4.074   1.702   4.147
23848SOL    HW173376   3.988   1.743   4.157
23848SOL    HW273377   4.056   1.608   4.146
23849SOL     OW73378  13.895  11.451   4.572
23849SOL    HW173379  13.904  11.488   4.484
23849SOL    HW273380  13.806  11.416   4.575
23850SOL     OW73381   2.909   1.030   0.779
23850SOL    HW173382   2.869   1.096   0.723
23850SOL    HW273383   2.961   1.080   0.842
23851SOL     OW73384   1.079  14.851   1.774
23851SOL    HW173385   1.130  14.822   1.699
23851SOL    HW273386   1.123   0.049   1.803
23852SOL     OW73387  12.155  10.089  11.544
23852SOL    HW173388  12.172  10.171  11.591
23852SOL    HW273389  12.094  10.114  11.475
23853SOL     OW73390   4.834   9.040   7.296
23853SOL    HW173391   4.757   9.021   7.242
23853SOL    HW273392   4.886   8.960   7.293
23854SOL     OW73393   7.993   3.143  14.829
23854SOL    HW173394   8.084   3.161  14.853
23854SOL    HW273395   7.998   3.061  14.779
23855SOL     OW73396  11.517  13.599   9.473
23855SOL    HW173397  11.513  13.545   9.393
23855SOL    HW273398  11.597  13.571   9.516
23856SOL     OW73399  10.263   1.483   7.980
23856SOL    HW173400  10.201   1.436   7.924
23856SOL    HW273401  10.304   1.415   8.033
23857SOL     OW73402  10.122   9.040   8.026
23857SOL    HW173403  10.207   8.999   8.042
23857SOL    HW273404  10.126   9.069   7.935
23858SOL     OW73405   4.915  13.378  12.636
23858SOL    HW173406   4.897  13.452  12.693
23858SOL    HW273407   5.001  13.346  12.665
23859SOL     OW73408   5.163  10.556   9.145
23859SOL    HW173409   5.186  10.468   9.173
23859SOL    HW273410   5.141  10.546   9.052
23860SOL     OW73411   1.377   3.118   9.120
23860SOL    HW173412   1.456   3.092   9.073
23860SOL    HW273413   1.317   3.149   9.052
23861SOL     OW73414   4.799  12.604  14.493
23861SOL    HW173415   4.861  12.544  14.451
23861SOL    HW273416   4.752  12.549  14.556
23862SOL     OW73417   8.892  12.435   4.906
23862SOL    HW173418   8.880  12.482   4.988
23862SOL    HW273419   8.809  12.390   4.891
23863SOL     OW73420   6.275   0.690   4.703
23863SOL    HW173421   6.362   0.674   4.667
23863SOL    HW273422   6.254   0.780   4.679
23864SOL     OW73423   6.203  10.246   0.692
23864SOL    HW173424   6.288  10.266   0.653
23864SOL    HW273425   6.168  10.331   0.720
23865SOL     OW73426   2.045  11.366   6.810
23865SOL    HW173427   1.979  11.352   6.879
23865SOL    HW273428   2.008  11.435   6.755
23866SOL     OW73429  12.557  14.618   0.550
23866SOL    HW173430  12.524  14.684   0.488
23866SOL    HW273431  12.635  14.583   0.508
23867SOL     OW73432   6.256  10.053   9.349
23867SOL    HW173433   6.222   9.998   9.420
23867SOL    HW273434   6.179  10.101   9.317
23868SOL     OW73435   8.513   9.168   3.052
23868SOL    HW173436   8.486   9.259   3.042
23868SOL    HW273437   8.434   9.117   3.034
23869SOL     OW73438   6.706  12.306   1.450
23869SOL    HW173439   6.661  12.372   1.503
23869SOL    HW273440   6.643  12.285   1.381
23870SOL     OW73441   6.980   1.002   8.610
23870SOL    HW173442   7.049   1.065   8.632
23870SOL    HW273443   7.016   0.952   8.537
23871SOL     OW73444   9.698   5.788  10.380
23871SOL    HW173445   9.725   5.717  10.322
23871SOL    HW273446   9.625   5.751  10.430
23872SOL     OW73447   9.868   3.228   4.195
23872SOL    HW173448   9.882   3.321   4.210
23872SOL    HW273449   9.844   3.222   4.102
23873SOL     OW73450   5.148   7.310   4.866
23873SOL    HW173451   5.210   7.353   4.925
23873SOL    HW273452   5.198   7.238   4.828
23874SOL     OW73453  10.096  11.904  12.438
23874SOL    HW173454  10.077  11.844  12.366
23874SOL    HW273455  10.120  11.847  12.511
23875SOL     OW73456  14.269   4.648  14.766
23875SOL    HW173457  14.250   4.742  14.776
23875SOL    HW273458  14.184   4.608  14.749
23876SOL     OW73459   1.708  14.660   5.893
23876SOL    HW173460   1.634  14.610   5.857
23876SOL    HW273461   1.679  14.689   5.979
23877SOL     OW73462   8.492   5.290   7.553
23877SOL    HW173463   8.441   5.363   7.587
23877SOL    HW273464   8.566   5.331   7.508
23878SOL     OW73465   4.250  11.211   4.504
23878SOL    HW173466   4.281  11.134   4.456
23878SOL    HW273467   4.220  11.177   4.588
23879SOL     OW73468   6.133  14.089   0.927
23879SOL    HW173469   6.197  14.053   0.866
23879SOL    HW273470   6.184  14.115   1.004
23880SOL     OW73471  11.687   2.334   4.106
23880SOL    HW173472  11.679   2.249   4.064
23880SOL    HW273473  11.772   2.331   4.150
23881SOL     OW73474   0.481   5.499  14.052
23881SOL    HW173475   0.527   5.415  14.048
23881SOL    HW273476   0.551   5.564  14.058
23882SOL     OW73477  11.206   1.309   7.394
23882SOL    HW173478  11.267   1.381   7.388
23882SOL    HW273479  11.183   1.288   7.304
23883SOL     OW73480   1.128   6.227   6.122
23883SOL    HW173481   1.163   6.290   6.186
23883SOL    HW273482   1.040   6.258   6.104
23884SOL     OW73483  11.526   1.457   3.513
23884SOL    HW173484  11.486   1.438   3.428
23884SOL    HW273485  11.550   1.549   3.508
23885SOL     OW73486   8.959   5.398   8.570
23885SOL    HW173487   8.971   5.445   8.487
23885SOL    HW273488   8.865   5.379   8.574
23886SOL     OW73489  12.016   1.534   3.244
23886SOL    HW173490  11.944   1.476   3.221
23886SOL    HW273491  12.071   1.537   3.166
23887SOL     OW73492  14.446   3.002   1.290
23887SOL    HW173493  14.494   3.048   1.221
23887SOL    HW273494  14.359   3.044   1.291
23888SOL     OW73495  14.202   7.046   9.033
23888SOL    HW173496  14.142   7.100   9.084
23888SOL    HW273497  14.289   7.075   9.061
23889SOL     OW73498  14.591   0.360   7.544
23889SOL    HW173499  14.681   0.333   7.560
23889SOL    HW273500  14.578   0.345   7.450
23890SOL     OW73501   7.489   4.408  12.585
23890SOL    HW173502   7.446   4.331  12.621
23890SOL    HW273503   7.573   4.376  12.550
23891SOL     OW73504  11.596  12.968   1.915
23891SOL    HW173505  11.575  12.953   2.007
23891SOL    HW273506  11.516  12.946   1.868
23892SOL     OW73507  11.705  11.591  11.489
23892SOL    HW173508  11.711  11.503  11.526
23892SOL    HW273509  11.654  11.580  11.409
23893SOL     OW73510   3.504   0.967  12.851
23893SOL    HW173511   3.509   0.995  12.943
23893SOL    HW273512   3.526   0.874  12.854
23894SOL     OW73513  13.174  14.616   4.196
23894SOL    HW173514  13.257  14.664   4.198
23894SOL    HW273515  13.109  14.680   4.226
23895SOL     OW73516   6.093   0.707   8.718
23895SOL    HW173517   6.106   0.620   8.754
23895SOL    HW273518   6.081   0.693   8.624
23896SOL     OW73519  10.835  12.451   7.032
23896SOL    HW173520  10.800  12.380   7.085
23896SOL    HW273521  10.802  12.531   7.074
23897SOL     OW73522  10.263   6.355  10.791
23897SOL    HW173523  10.262   6.397  10.705
23897SOL    HW273524  10.281   6.426  10.853
23898SOL     OW73525  11.880   0.981   5.110
23898SOL    HW173526  11.934   1.055   5.081
23898SOL    HW273527  11.925   0.948   5.188
23899SOL     OW73528  13.861   6.699   1.734
23899SOL    HW173529  13.793   6.751   1.777
23899SOL    HW273530  13.926   6.764   1.705
23900SOL     OW73531   8.876   3.264  11.137
23900SOL    HW173532   8.943   3.230  11.077
23900SOL    HW273533   8.808   3.298  11.079
23901SOL     OW73534  11.392  14.252   6.328
23901SOL    HW173535  11.455  14.313   6.288
23901SOL    HW273536  11.336  14.308   6.382
23902SOL     OW73537   9.773   5.862   3.350
23902SOL    HW173538   9.857   5.871   3.394
23902SOL    HW273539   9.773   5.774   3.313
23903SOL     OW73540   8.327   7.663  10.408
23903SOL    HW173541   8.353   7.748  10.373
23903SOL    HW273542   8.342   7.669  10.502
23904SOL     OW73543   5.097   4.736   5.663
23904SOL    HW173544   5.126   4.817   5.620
23904SOL    HW273545   5.007   4.755   5.689
23905SOL     OW73546  10.548  13.901   8.803
23905SOL    HW173547  10.458  13.878   8.780
23905SOL    HW273548  10.597  13.820   8.788
23906SOL     OW73549  14.879   3.142  13.022
23906SOL    HW173550   0.011   3.101  13.107
23906SOL    HW273551  14.794   3.187  13.030
23907SOL     OW73552   4.195  10.808   4.290
23907SOL    HW173553   4.204  10.751   4.367
23907SOL    HW273554   4.240  10.760   4.220
23908SOL     OW73555  12.979  13.996   3.349
23908SOL    HW173556  12.925  13.939   3.294
23908SOL    HW273557  13.037  13.936   3.396
23909SOL     OW73558   2.043   3.524   5.416
23909SOL    HW173559   2.011   3.447   5.462
23909SOL    HW273560   2.067   3.585   5.485
23910SOL     OW73561  14.480  14.803   2.017
23910SOL    HW173562  14.446  14.800   1.928
23910SOL    HW273563  14.475  14.712   2.048
23911SOL     OW73564   4.874  14.599   6.584
23911SOL    HW173565   4.968  14.611   6.598
23911SOL    HW273566   4.867  14.581   6.490
23912SOL     OW73567   8.110   2.362   7.176
23912SOL    HW173568   8.125   2.451   7.207
23912SOL    HW273569   8.015   2.356   7.164
23913SOL     OW73570   4.368  10.993   4.391
23913SOL    HW173571   4.386  11.002   4.297
23913SOL    HW273572   4.304  10.923   4.396
23914SOL     OW73573   0.501   7.289   1.199
23914SOL    HW173574   0.405   7.287   1.192
23914SOL    HW273575   0.523   7.207   1.242
23915SOL     OW73576   8.179   0.479   2.715
23915SOL    HW173577   8.264   0.449   2.745
23915SOL    HW273578   8.137   0.516   2.793
23916SOL     OW73579   1.894   0.179  13.533
23916SOL    HW173580   1.972   0.135  13.567
23916SOL    HW273581   1.822   0.118  13.552
23917SOL     OW73582   3.291   9.136   1.815
23917SOL    HW173583   3.206   9.176   1.830
23917SOL    HW273584   3.300   9.132   1.720
23918SOL     OW73585   5.437  13.451  10.578
23918SOL    HW173586   5.389  13.528  10.610
23918SOL    HW273587   5.461  13.403  10.657
23919SOL     OW73588  11.851  12.178   9.389
23919SOL    HW173589  11.812  12.239   9.327
23919SOL    HW273590  11.795  12.183   9.467
23920SOL     OW73591   4.072  12.425  14.569
23920SOL    HW173592   4.109  12.337  14.559
23920SOL    HW273593   4.077  12.463  14.482
23921SOL     OW73594   2.410   6.240   4.603
23921SOL    HW173595   2.433   6.229   4.510
23921SOL    HW273596   2.316   6.260   4.602
23922SOL     OW73597   2.852   9.816   0.303
23922SOL    HW173598   2.858   9.895   0.249
23922SOL    HW273599   2.763   9.820   0.340
23923SOL     OW73600   8.532   3.791  13.792
23923SOL    HW173601   8.455   3.753  13.834
23923SOL    HW273602   8.507   3.882  13.773
23924SOL     OW73603  12.408  13.677   7.707
23924SOL    HW173604  12.407  13.641   7.618
23924SOL    HW273605  12.434  13.603   7.762
23925SOL     OW73606   6.621   0.249   6.024
23925SOL    HW173607   6.555   0.233   6.091
23925SOL    HW273608   6.583   0.315   5.967
23926SOL     OW73609   9.428  13.131  13.444
23926SOL    HW173610   9.423  13.077  13.365
23926SOL    HW273611   9.405  13.072  13.515
23927SOL     OW73612  12.167  14.190  14.846
23927SOL    HW173613  12.154  14.282  14.821
23927SOL    HW273614  12.227  14.156  14.781
23928SOL     OW73615   2.628  13.245   6.780
23928SOL    HW173616   2.558  13.296   6.820
23928SOL    HW273617   2.706  13.266   6.832
23929SOL     OW73618   6.917  12.023   0.605
23929SOL    HW173619   6.823  12.007   0.608
23929SOL    HW273620   6.927  12.115   0.628
23930SOL     OW73621   6.932  13.336   0.646
23930SOL    HW173622   6.990  13.404   0.612
23930SOL    HW273623   6.930  13.269   0.577
23931SOL     OW73624  10.701   4.342   9.012
23931SOL    HW173625  10.789   4.305   9.004
23931SOL    HW273626  10.710   4.411   9.077
23932SOL     OW73627  13.756   9.607   2.842
23932SOL    HW173628  13.765   9.669   2.914
23932SOL    HW273629  13.734   9.524   2.885
23933SOL     OW73630  11.311   7.995   2.189
23933SOL    HW173631  11.365   8.063   2.149
23933SOL    HW273632  11.250   7.969   2.120
23934SOL     OW73633  12.552   2.373   1.349
23934SOL    HW173634  12.500   2.409   1.421
23934SOL    HW273635  12.643   2.378   1.380
23935SOL     OW73636   0.554  14.758  11.851
23935SOL    HW173637   0.480  14.701  11.827
23935SOL    HW273638   0.567  14.742  11.944
23936SOL     OW73639   6.287   6.638   9.546
23936SOL    HW173640   6.206   6.679   9.517
23936SOL    HW273641   6.309   6.682   9.628
23937SOL     OW73642   7.011   8.194  13.004
23937SOL    HW173643   7.059   8.245  12.940
23937SOL    HW273644   6.991   8.112  12.959
23938SOL     OW73645   7.133   6.249  11.834
23938SOL    HW173646   7.185   6.328  11.822
23938SOL    HW273647   7.181   6.199  11.900
23939SOL     OW73648   1.150   9.254   2.622
23939SOL    HW173649   1.146   9.170   2.667
23939SOL    HW273650   1.232   9.252   2.573
23940SOL     OW73651   7.712  13.690   8.678
23940SOL    HW173652   7.717  13.782   8.705
23940SOL    HW273653   7.716  13.693   8.583
23941SOL     OW73654  14.675   9.029   7.555
23941SOL    HW173655  14.712   9.099   7.501
23941SOL    HW273656  14.580   9.038   7.544
23942SOL     OW73657  12.941   0.121   0.728
23942SOL    HW173658  13.021   0.162   0.759
23942SOL    HW273659  12.970   0.058   0.662
23943SOL     OW73660   0.478   6.308   5.491
23943SOL    HW173661   0.491   6.214   5.484
23943SOL    HW273662   0.540   6.337   5.557
23944SOL     OW73663   9.716   4.123   0.720
23944SOL    HW173664   9.650   4.143   0.786
23944SOL    HW273665   9.796   4.164   0.753
23945SOL     OW73666  13.535   0.130  12.118
23945SOL    HW173667  13.461   0.085  12.077
23945SOL    HW273668  13.563   0.194  12.052
23946SOL     OW73669   9.808   4.926   1.543
23946SOL    HW173670   9.835   4.852   1.597
23946SOL    HW273671   9.713   4.928   1.549
23947SOL     OW73672   1.366  14.191   0.380
23947SOL    HW173673   1.431  14.177   0.311
23947SOL    HW273674   1.374  14.284   0.401
23948SOL     OW73675   9.098   3.003  10.323
23948SOL    HW173676   9.086   3.029  10.231
23948SOL    HW273677   9.139   2.917  10.318
23949SOL     OW73678  14.844   6.195   5.568
23949SOL    HW173679  14.839   6.225   5.478
23949SOL    HW273680  14.826   6.101   5.563
23950SOL     OW73681  13.739   3.193   4.282
23950SOL    HW173682  13.647   3.210   4.262
23950SOL    HW273683  13.738   3.156   4.370
23951SOL     OW73684  10.969   2.026  14.285
23951SOL    HW173685  11.003   2.115  14.293
23951SOL    HW273686  11.046   1.972  14.269
23952SOL     OW73687   0.273   7.921   9.613
23952SOL    HW173688   0.253   7.846   9.670
23952SOL    HW273689   0.367   7.914   9.597
23953SOL     OW73690   7.984   3.541   7.417
23953SOL    HW173691   7.960   3.528   7.325
23953SOL    HW273692   7.976   3.635   7.431
23954SOL     OW73693  12.526   6.435  13.940
23954SOL    HW173694  12.565   6.366  13.994
23954SOL    HW273695  12.498   6.389  13.861
23955SOL     OW73696   2.186   9.822   5.161
23955SOL    HW173697   2.224   9.860   5.240
23955SOL    HW273698   2.197   9.889   5.094
23956SOL     OW73699  13.994   0.048   5.042
23956SOL    HW173700  14.032   0.041   5.129
23956SOL    HW273701  14.028  14.854   4.995
23957SOL     OW73702   1.979   9.147   6.190
23957SOL    HW173703   2.075   9.150   6.193
23957SOL    HW273704   1.951   9.180   6.276
23958SOL     OW73705   4.341   5.619   7.299
23958SOL    HW173706   4.325   5.604   7.205
23958SOL    HW273707   4.409   5.555   7.322
23959SOL     OW73708   0.248   0.298   7.665
23959SOL    HW173709   0.262   0.360   7.594
23959SOL    HW273710   0.328   0.245   7.667
23960SOL     OW73711   2.550  12.574  14.449
23960SOL    HW173712   2.542  12.652  14.503
23960SOL    HW273713   2.643  12.553  14.452
23961SOL     OW73714   0.253   8.923   3.395
23961SOL    HW173715   0.197   8.894   3.323
23961SOL    HW273716   0.213   8.886   3.474
23962SOL     OW73717  11.849  10.605   1.724
23962SOL    HW173718  11.936  10.586   1.688
23962SOL    HW273719  11.788  10.573   1.657
23963SOL     OW73720  10.272   4.238  14.271
23963SOL    HW173721  10.321   4.311  14.233
23963SOL    HW273722  10.209   4.280  14.330
23964SOL     OW73723   4.730   0.995   0.014
23964SOL    HW173724   4.676   0.992  14.816
23964SOL    HW273725   4.794   1.064  14.878
23965SOL     OW73726   1.265  13.450  10.272
23965SOL    HW173727   1.327  13.385  10.305
23965SOL    HW273728   1.271  13.444  10.177
23966SOL     OW73729   8.491   8.046   7.055
23966SOL    HW173730   8.510   7.969   7.001
23966SOL    HW273731   8.495   8.120   6.994
23967SOL     OW73732   8.869   9.505   4.339
23967SOL    HW173733   8.804   9.516   4.270
23967SOL    HW273734   8.941   9.458   4.297
23968SOL     OW73735  13.110  13.714   3.378
23968SOL    HW173736  13.155  13.795   3.406
23968SOL    HW273737  13.104  13.662   3.458
23969SOL     OW73738   3.415  11.552   2.990
23969SOL    HW173739   3.464  11.554   3.073
23969SOL    HW273740   3.473  11.506   2.929
23970SOL     OW73741  12.901   3.995   1.122
23970SOL    HW173742  12.876   3.911   1.159
23970SOL    HW273743  12.991   4.009   1.153
23971SOL     OW73744   8.278  10.237  10.956
23971SOL    HW173745   8.244  10.326  10.949
23971SOL    HW273746   8.319  10.233  11.043
23972SOL     OW73747  14.639   2.116   1.480
23972SOL    HW173748  14.721   2.109   1.431
23972SOL    HW273749  14.654   2.188   1.542
23973SOL     OW73750  14.451   3.307   3.000
23973SOL    HW173751  14.459   3.394   3.041
23973SOL    HW273752  14.464   3.246   3.072
23974SOL     OW73753   2.843   4.319  14.014
23974SOL    HW173754   2.809   4.271  13.938
23974SOL    HW273755   2.885   4.397  13.976
23975SOL     OW73756   7.215  12.812   5.099
23975SOL    HW173757   7.250  12.747   5.038
23975SOL    HW273758   7.134  12.773   5.131
23976SOL     OW73759  13.996  14.145   6.120
23976SOL    HW173760  13.961  14.206   6.055
23976SOL    HW273761  14.073  14.106   6.078
23977SOL     OW73762   0.393   9.159   2.858
23977SOL    HW173763   0.360   9.074   2.829
23977SOL    HW273764   0.435   9.196   2.781
23978SOL     OW73765   1.939  13.144   6.697
23978SOL    HW173766   1.878  13.184   6.635
23978SOL    HW273767   1.905  13.166   6.783
23979SOL     OW73768   7.095   2.415   1.538
23979SOL    HW173769   7.007   2.429   1.573
23979SOL    HW273770   7.098   2.321   1.517
23980SOL     OW73771   9.696  13.265   9.334
23980SOL    HW173772   9.725  13.174   9.326
23980SOL    HW273773   9.765  13.316   9.290
23981SOL     OW73774   2.893  13.200   5.848
23981SOL    HW173775   2.988  13.205   5.858
23981SOL    HW273776   2.865  13.292   5.844
23982SOL     OW73777   7.943  12.355  10.835
23982SOL    HW173778   7.929  12.393  10.922
23982SOL    HW273779   7.868  12.385  10.784
23983SOL     OW73780   0.314  10.233   1.076
23983SOL    HW173781   0.336  10.263   1.164
23983SOL    HW273782   0.396  10.201   1.039
23984SOL     OW73783   6.980   7.380   2.603
23984SOL    HW173784   6.901   7.358   2.555
23984SOL    HW273785   7.017   7.455   2.556
23985SOL     OW73786   8.608   9.426   7.065
23985SOL    HW173787   8.612   9.475   7.147
23985SOL    HW273788   8.699   9.402   7.047
23986SOL     OW73789   7.183   5.794   3.386
23986SOL    HW173790   7.126   5.866   3.414
23986SOL    HW273791   7.178   5.730   3.457
23987SOL     OW73792   6.701   3.485   3.110
23987SOL    HW173793   6.668   3.506   3.023
23987SOL    HW273794   6.776   3.543   3.122
23988SOL     OW73795  13.965   8.653   5.765
23988SOL    HW173796  13.874   8.624   5.760
23988SOL    HW273797  14.001   8.634   5.678
23989SOL     OW73798  14.835   0.226   8.470
23989SOL    HW173799  14.831   0.247   8.376
23989SOL    HW273800   0.002   0.300   8.508
23990SOL     OW73801   6.596  14.549  10.575
23990SOL    HW173802   6.653  14.472  10.574
23990SOL    HW273803   6.633  14.604  10.644
23991SOL     OW73804   2.763  14.399   5.804
23991SOL    HW173805   2.747  14.378   5.896
23991SOL    HW273806   2.753  14.316   5.758
23992SOL     OW73807  14.554   2.018   0.595
23992SOL    HW173808  14.574   1.987   0.506
23992SOL    HW273809  14.458   2.016   0.600
23993SOL     OW73810   2.755  12.275   7.654
23993SOL    HW173811   2.840  12.305   7.687
23993SOL    HW273812   2.777  12.203   7.595
23994SOL     OW73813  12.576   6.081  13.340
23994SOL    HW173814  12.605   6.007  13.287
23994SOL    HW273815  12.575   6.048  13.430
23995SOL     OW73816  12.152   6.617   1.529
23995SOL    HW173817  12.110   6.544   1.483
23995SOL    HW273818  12.086   6.647   1.591
23996SOL     OW73819   5.575   6.087  13.744
23996SOL    HW173820   5.555   6.178  13.766
23996SOL    HW273821   5.503   6.060  13.687
23997SOL     OW73822   8.193   6.568   1.072
23997SOL    HW173823   8.127   6.578   1.141
23997SOL    HW273824   8.219   6.658   1.052
23998SOL     OW73825   6.499   9.500   8.368
23998SOL    HW173826   6.493   9.405   8.371
23998SOL    HW273827   6.459   9.529   8.450
23999SOL     OW73828   4.597   4.272   1.293
23999SOL    HW173829   4.545   4.348   1.319
23999SOL    HW273830   4.601   4.276   1.198
24000SOL     OW73831   1.494   4.185   5.490
24000SOL    HW173832   1.526   4.154   5.575
24000SOL    HW273833   1.571   4.182   5.433
24001SOL     OW73834   2.654   2.470   1.512
24001SOL    HW173835   2.682   2.398   1.569
24001SOL    HW273836   2.628   2.540   1.573
24002SOL     OW73837  11.144   6.098  11.624
24002SOL    HW173838  11.070   6.127  11.572
24002SOL    HW273839  11.180   6.023  11.576
24003SOL     OW73840   1.884   9.537  13.748
24003SOL    HW173841   1.805   9.483  13.751
24003SOL    HW273842   1.869   9.605  13.814
24004SOL     OW73843  12.962  12.192   0.795
24004SOL    HW173844  12.891  12.142   0.754
24004SOL    HW273845  13.015  12.222   0.721
24005SOL     OW73846  14.247  12.072   5.399
24005SOL    HW173847  14.317  12.064   5.464
24005SOL    HW273848  14.283  12.030   5.321
24006SOL     OW73849  13.721   6.697  10.152
24006SOL    HW173850  13.671   6.717  10.231
24006SOL    HW273851  13.779   6.626  10.178
24007SOL     OW73852   7.057   4.896   7.774
24007SOL    HW173853   7.106   4.841   7.836
24007SOL    HW273854   7.012   4.960   7.829
24008SOL     OW73855  11.373   8.255   4.329
24008SOL    HW173856  11.299   8.282   4.384
24008SOL    HW273857  11.345   8.275   4.240
24009SOL     OW73858   2.642   0.569   7.291
24009SOL    HW173859   2.690   0.498   7.335
24009SOL    HW273860   2.566   0.585   7.347
24010SOL     OW73861  13.850   7.457   5.962
24010SOL    HW173862  13.816   7.539   5.926
24010SOL    HW273863  13.773   7.410   5.993
24011SOL     OW73864   0.405  14.367   5.694
24011SOL    HW173865   0.439  14.413   5.617
24011SOL    HW273866   0.344  14.302   5.659
24012SOL     OW73867   0.326   0.974   7.542
24012SOL    HW173868   0.357   0.886   7.521
24012SOL    HW273869   0.403   1.018   7.578
24013SOL     OW73870  10.655   9.327   5.800
24013SOL    HW173871  10.741   9.292   5.826
24013SOL    HW273872  10.675   9.394   5.734
24014SOL     OW73873   3.772   5.571  11.590
24014SOL    HW173874   3.788   5.561  11.496
24014SOL    HW273875   3.775   5.482  11.625
24015SOL     OW73876   5.313  14.875   2.840
24015SOL    HW173877   5.393  14.840   2.801
24015SOL    HW273878   5.300  14.825   2.920
24016SOL     OW73879   7.802  13.177  12.616
24016SOL    HW173880   7.842  13.158  12.532
24016SOL    HW273881   7.725  13.120  12.620
24017SOL     OW73882   4.766  12.741   1.609
24017SOL    HW173883   4.726  12.732   1.523
24017SOL    HW273884   4.833  12.808   1.598
24018SOL     OW73885   4.754   1.630  14.631
24018SOL    HW173886   4.711   1.652  14.714
24018SOL    HW273887   4.713   1.548  14.604
24019SOL     OW73888   1.252   8.812  14.134
24019SOL    HW173889   1.276   8.724  14.105
24019SOL    HW273890   1.188   8.798  14.203
24020SOL     OW73891   0.776   5.926   6.500
24020SOL    HW173892   0.723   5.975   6.564
24020SOL    HW273893   0.730   5.843   6.490
24021SOL     OW73894   5.291  13.247   2.158
24021SOL    HW173895   5.208  13.236   2.205
24021SOL    HW273896   5.306  13.342   2.158
24022SOL     OW73897   7.901  12.914   7.802
24022SOL    HW173898   7.826  12.945   7.853
24022SOL    HW273899   7.976  12.960   7.839
24023SOL     OW73900  12.395   8.929  10.472
24023SOL    HW173901  12.394   8.834  10.478
24023SOL    HW273902  12.303   8.955  10.475
24024SOL     OW73903  10.276   8.805  11.674
24024SOL    HW173904  10.219   8.863  11.624
24024SOL    HW273905  10.217   8.740  11.713
24025SOL     OW73906  12.419   8.554   3.141
24025SOL    HW173907  12.399   8.479   3.197
24025SOL    HW273908  12.431   8.627   3.202
24026SOL     OW73909   2.730   5.837   0.416
24026SOL    HW173910   2.766   5.914   0.371
24026SOL    HW273911   2.788   5.824   0.491
24027SOL     OW73912   0.445   5.867   0.831
24027SOL    HW173913   0.500   5.829   0.763
24027SOL    HW273914   0.375   5.803   0.844
24028SOL     OW73915  13.699   4.341   5.274
24028SOL    HW173916  13.680   4.433   5.288
24028SOL    HW273917  13.619   4.295   5.301
24029SOL     OW73918  11.675  10.408   7.642
24029SOL    HW173919  11.626  10.445   7.716
24029SOL    HW273920  11.609  10.361   7.590
24030SOL     OW73921   6.072  10.027   7.424
24030SOL    HW173922   6.107   9.969   7.356
24030SOL    HW273923   6.090  10.115   7.392
24031SOL     OW73924  14.735   6.653   2.731
24031SOL    HW173925  14.663   6.712   2.706
24031SOL    HW273926  14.761   6.682   2.818
24032SOL     OW73927   1.912  10.999   7.738
24032SOL    HW173928   1.961  11.081   7.743
24032SOL    HW273929   1.894  10.976   7.829
24033SOL     OW73930   6.289  13.513   3.443
24033SOL    HW173931   6.284  13.421   3.419
24033SOL    HW273932   6.232  13.521   3.520
24034SOL     OW73933   9.789   7.145   7.580
24034SOL    HW173934   9.858   7.153   7.647
24034SOL    HW273935   9.794   7.227   7.531
24035SOL     OW73936  10.220  11.830   6.061
24035SOL    HW173937  10.219  11.923   6.085
24035SOL    HW273938  10.150  11.792   6.114
24036SOL     OW73939   5.994  14.211  13.521
24036SOL    HW173940   6.020  14.280  13.583
24036SOL    HW273941   5.979  14.258  13.439
24037SOL     OW73942   4.944   4.246   3.531
24037SOL    HW173943   4.889   4.296   3.470
24037SOL    HW273944   4.943   4.298   3.611
24038SOL     OW73945   6.499  11.413   5.076
24038SOL    HW173946   6.586  11.447   5.100
24038SOL    HW273947   6.462  11.382   5.158
24039SOL     OW73948  11.172  14.445   8.910
24039SOL    HW173949  11.076  14.447   8.901
24039SOL    HW273950  11.187  14.452   9.004
24040SOL     OW73951   3.115   3.466   3.632
24040SOL    HW173952   3.091   3.443   3.542
24040SOL    HW273953   3.033   3.497   3.671
24041SOL     OW73954  13.051   7.695  12.960
24041SOL    HW173955  13.031   7.636  12.887
24041SOL    HW273956  12.990   7.768  12.948
24042SOL     OW73957   0.609  11.160  10.532
24042SOL    HW173958   0.622  11.229  10.597
24042SOL    HW273959   0.698  11.132  10.509
24043SOL     OW73960  12.456   6.114  11.640
24043SOL    HW173961  12.511   6.151  11.710
24043SOL    HW273962  12.454   6.182  11.573
24044SOL     OW73963  12.461   3.097   1.535
24044SOL    HW173964  12.533   3.100   1.472
24044SOL    HW273965  12.478   3.171   1.594
24045SOL     OW73966   7.954   4.604   3.572
24045SOL    HW173967   7.927   4.512   3.574
24045SOL    HW273968   7.878   4.652   3.605
24046SOL     OW73969  11.446   0.830   4.952
24046SOL    HW173970  11.439   0.918   4.990
24046SOL    HW273971  11.537   0.825   4.921
24047SOL     OW73972   3.449   2.429  10.585
24047SOL    HW173973   3.493   2.490  10.526
24047SOL    HW273974   3.367   2.408  10.540
24048SOL     OW73975   7.110   0.234   7.650
24048SOL    HW173976   7.026   0.217   7.608
24048SOL    HW273977   7.159   0.153   7.639
24049SOL     OW73978   1.599  14.748  13.515
24049SOL    HW173979   1.613  14.784  13.602
24049SOL    HW273980   1.630  14.816  13.455
24050SOL     OW73981   0.793   6.604   3.959
24050SOL    HW173982   0.813   6.658   3.882
24050SOL    HW273983   0.856   6.632   4.025
24051SOL     OW73984   9.147  13.581   9.408
24051SOL    HW173985   9.116  13.492   9.425
24051SOL    HW273986   9.242  13.572   9.395
24052SOL     OW73987   9.059   8.933  10.979
24052SOL    HW173988   9.079   9.019  10.943
24052SOL    HW273989   9.077   8.872  10.908
24053SOL     OW73990   2.104   9.100   5.861
24053SOL    HW173991   2.124   9.128   5.771
24053SOL    HW273992   2.086   9.006   5.853
24054SOL     OW73993   5.383   2.231  10.719
24054SOL    HW173994   5.476   2.228  10.743
24054SOL    HW273995   5.348   2.147  10.750
24055SOL     OW73996   6.773   0.847   2.356
24055SOL    HW173997   6.711   0.774   2.354
24055SOL    HW273998   6.847   0.816   2.304
24056SOL     OW73999   4.105  10.009   2.643
24056SOL    HW174000   4.090  10.054   2.560
24056SOL    HW274001   4.041   9.937   2.643
24057SOL     OW74002  14.426   8.109   3.715
24057SOL    HW174003  14.433   8.152   3.630
24057SOL    HW274004  14.372   8.031   3.698
24058SOL     OW74005   2.005   5.559   6.199
24058SOL    HW174006   1.965   5.474   6.182
24058SOL    HW274007   1.941   5.623   6.170
24059SOL     OW74008   3.638  13.521  11.109
24059SOL    HW174009   3.631  13.564  11.024
24059SOL    HW274010   3.729  13.535  11.135
24060SOL     OW74011   6.769   7.910  12.463
24060SOL    HW174012   6.702   7.855  12.423
24060SOL    HW274013   6.745   7.914  12.555
24061SOL     OW74014  13.893  11.735   7.070
24061SOL    HW174015  13.930  11.655   7.107
24061SOL    HW274016  13.810  11.707   7.031
24062SOL     OW74017   3.641   4.820   2.067
24062SOL    HW174018   3.659   4.892   2.128
24062SOL    HW274019   3.550   4.831   2.042
24063SOL     OW74020   3.677   5.951   1.081
24063SOL    HW174021   3.595   5.907   1.104
24063SOL    HW274022   3.745   5.885   1.094
24064SOL     OW74023   1.609   9.921   5.643
24064SOL    HW174024   1.551   9.866   5.590
24064SOL    HW274025   1.630   9.867   5.720
24065SOL     OW74026  10.844  13.318   4.638
24065SOL    HW174027  10.773  13.326   4.574
24065SOL    HW274028  10.823  13.382   4.706
24066SOL     OW74029   5.824  10.735   5.011
24066SOL    HW174030   5.875  10.699   5.084
24066SOL    HW274031   5.758  10.669   4.993
24067SOL     OW74032   6.156   1.221   5.092
24067SOL    HW174033   6.119   1.228   5.180
24067SOL    HW274034   6.231   1.281   5.094
24068SOL     OW74035   9.467   1.243   1.079
24068SOL    HW174036   9.402   1.203   1.022
24068SOL    HW274037   9.463   1.337   1.059
24069SOL     OW74038  11.548  14.184   1.473
24069SOL    HW174039  11.470  14.232   1.498
24069SOL    HW274040  11.609  14.251   1.442
24070SOL     OW74041  10.220   0.411  10.690
24070SOL    HW174042  10.313   0.432  10.705
24070SOL    HW274043  10.186   0.488  10.643
24071SOL     OW74044   4.451   6.402   3.187
24071SOL    HW174045   4.472   6.434   3.099
24071SOL    HW274046   4.421   6.479   3.235
24072SOL     OW74047   9.639   5.336   8.467
24072SOL    HW174048   9.602   5.250   8.487
24072SOL    HW274049   9.704   5.351   8.536
24073SOL     OW74050   2.908   6.282   4.131
24073SOL    HW174051   2.998   6.263   4.108
24073SOL    HW274052   2.890   6.367   4.092
24074SOL     OW74053   2.583   4.751   6.197
24074SOL    HW174054   2.592   4.846   6.185
24074SOL    HW274055   2.549   4.719   6.114
24075SOL     OW74056   9.538   0.346   7.611
24075SOL    HW174057   9.518   0.436   7.585
24075SOL    HW274058   9.506   0.293   7.538
24076SOL     OW74059  13.056  11.883   4.717
24076SOL    HW174060  13.131  11.834   4.749
24076SOL    HW274061  12.981  11.847   4.764
24077SOL     OW74062   2.923   7.525  13.630
24077SOL    HW174063   2.979   7.449  13.611
24077SOL    HW274064   2.841   7.506  13.585
24078SOL     OW74065  11.551   2.325  10.245
24078SOL    HW174066  11.534   2.403  10.299
24078SOL    HW274067  11.622   2.352  10.186
24079SOL     OW74068   6.529   7.920   4.882
24079SOL    HW174069   6.526   7.846   4.943
24079SOL    HW274070   6.598   7.976   4.917
24080SOL     OW74071   1.196   0.578   9.095
24080SOL    HW174072   1.237   0.505   9.048
24080SOL    HW274073   1.110   0.545   9.121
24081SOL     OW74074   8.587   6.365   7.210
24081SOL    HW174075   8.592   6.270   7.199
24081SOL    HW274076   8.670   6.389   7.251
24082SOL     OW74077  11.392  13.440   3.218
24082SOL    HW174078  11.329  13.369   3.223
24082SOL    HW274079  11.428  13.447   3.306
24083SOL     OW74080  14.843   8.509   5.683
24083SOL    HW174081   0.012   8.588   5.669
24083SOL    HW274082   0.023   8.447   5.723
24084SOL     OW74083  10.638   7.338  12.181
24084SOL    HW174084  10.603   7.251  12.198
24084SOL    HW274085  10.604   7.361  12.094
24085SOL     OW74086   4.617   9.638   3.445
24085SOL    HW174087   4.544   9.596   3.491
24085SOL    HW274088   4.644   9.574   3.380
24086SOL     OW74089  12.291   7.687  10.706
24086SOL    HW174090  12.343   7.721  10.779
24086SOL    HW274091  12.298   7.754  10.638
24087SOL     OW74092   3.197   0.041   8.766
24087SOL    HW174093   3.282   0.014   8.800
24087SOL    HW274094   3.205   0.136   8.757
24088SOL     OW74095   3.606   9.247  14.684
24088SOL    HW174096   3.577   9.238  14.594
24088SOL    HW274097   3.593   9.161  14.723
24089SOL     OW74098   9.436   4.432  10.666
24089SOL    HW174099   9.401   4.480  10.591
24089SOL    HW274100   9.361   4.423  10.725
24090SOL     OW74101   2.714  13.026   5.753
24090SOL    HW174102   2.683  13.070   5.674
24090SOL    HW274103   2.775  13.089   5.792
24091SOL     OW74104  10.532   1.079   1.115
24091SOL    HW174105  10.534   1.141   1.042
24091SOL    HW274106  10.446   1.037   1.109
24092SOL     OW74107   4.330   1.948   8.651
24092SOL    HW174108   4.334   1.870   8.706
24092SOL    HW274109   4.237   1.970   8.647
24093SOL     OW74110  14.636  13.114   0.711
24093SOL    HW174111  14.616  13.092   0.620
24093SOL    HW274112  14.550  13.118   0.754
24094SOL     OW74113  13.226   6.115   4.115
24094SOL    HW174114  13.310   6.110   4.068
24094SOL    HW274115  13.163   6.144   4.049
24095SOL     OW74116   9.416   1.194   4.316
24095SOL    HW174117   9.471   1.156   4.247
24095SOL    HW274118   9.404   1.285   4.289
24096SOL     OW74119   3.702  11.843  13.409
24096SOL    HW174120   3.614  11.819  13.380
24096SOL    HW274121   3.760  11.784  13.361
24097SOL     OW74122   9.979  11.514   3.446
24097SOL    HW174123   9.955  11.502   3.355
24097SOL    HW274124  10.039  11.441   3.466
24098SOL     OW74125   0.846  10.137   0.116
24098SOL    HW174126   0.763  10.183   0.128
24098SOL    HW274127   0.911  10.207   0.114
24099SOL     OW74128   0.951   7.792  14.446
24099SOL    HW174129   0.988   7.875  14.477
24099SOL    HW274130   0.954   7.734  14.521
24100SOL     OW74131   3.133   3.699   1.452
24100SOL    HW174132   3.112   3.732   1.539
24100SOL    HW274133   3.137   3.604   1.462
24101SOL     OW74134   7.900   1.724  13.952
24101SOL    HW174135   7.912   1.697  14.044
24101SOL    HW274136   7.881   1.642  13.906
24102SOL     OW74137   1.221  11.490   2.001
24102SOL    HW174138   1.194  11.560   2.061
24102SOL    HW274139   1.215  11.529   1.914
24103SOL     OW74140  10.394   0.554  11.123
24103SOL    HW174141  10.443   0.633  11.145
24103SOL    HW274142  10.411   0.494  11.196
24104SOL     OW74143   7.794   1.310  11.225
24104SOL    HW174144   7.823   1.270  11.144
24104SOL    HW274145   7.776   1.401  11.202
24105SOL     OW74146  11.213   2.102   5.000
24105SOL    HW174147  11.186   2.132   4.913
24105SOL    HW274148  11.225   2.007   4.990
24106SOL     OW74149   3.139  13.624  14.577
24106SOL    HW174150   3.151  13.549  14.636
24106SOL    HW274151   3.225  13.637  14.537
24107SOL     OW74152  13.223  10.326   0.665
24107SOL    HW174153  13.258  10.325   0.576
24107SOL    HW274154  13.245  10.239   0.700
24108SOL     OW74155   7.434   2.635  12.690
24108SOL    HW174156   7.345   2.606  12.673
24108SOL    HW274157   7.469   2.657  12.604
24109SOL     OW74158   4.136   9.881  11.525
24109SOL    HW174159   4.107   9.790  11.527
24109SOL    HW274160   4.178   9.895  11.610
24110SOL     OW74161   9.121   1.893   9.014
24110SOL    HW174162   9.130   1.820   8.952
24110SOL    HW274163   9.104   1.969   8.959
24111SOL     OW74164   7.650   6.429   2.897
24111SOL    HW174165   7.673   6.405   2.986
24111SOL    HW274166   7.587   6.362   2.870
24112SOL     OW74167   8.349  13.419   6.293
24112SOL    HW174168   8.300  13.465   6.225
24112SOL    HW274169   8.286  13.408   6.364
24113SOL     OW74170   4.666   4.446  11.379
24113SOL    HW174171   4.633   4.356  11.383
24113SOL    HW274172   4.631   4.481  11.297
24114SOL     OW74173   4.237   7.185   6.182
24114SOL    HW174174   4.258   7.278   6.172
24114SOL    HW274175   4.176   7.182   6.256
24115SOL     OW74176   4.756   5.936  12.049
24115SOL    HW174177   4.727   6.001  11.986
24115SOL    HW274178   4.839   5.903  12.014
24116SOL     OW74179   1.250   4.121   8.912
24116SOL    HW174180   1.345   4.120   8.897
24116SOL    HW274181   1.239   4.074   8.994
24117SOL     OW74182  10.420   3.474   1.508
24117SOL    HW174183  10.327   3.480   1.485
24117SOL    HW274184  10.449   3.393   1.465
24118SOL     OW74185   9.717  13.667  14.261
24118SOL    HW174186   9.659  13.595  14.236
24118SOL    HW274187   9.770  13.631  14.332
24119SOL     OW74188   1.484  10.115  11.132
24119SOL    HW174189   1.536  10.047  11.173
24119SOL    HW274190   1.502  10.106  11.038
24120SOL     OW74191  11.409   8.598   5.904
24120SOL    HW174192  11.336   8.539   5.884
24120SOL    HW274193  11.451   8.559   5.981
24121SOL     OW74194  11.969  13.134   7.125
24121SOL    HW174195  12.062  13.116   7.116
24121SOL    HW274196  11.937  13.142   7.035
24122SOL     OW74197   3.026   7.019   1.855
24122SOL    HW174198   3.079   7.043   1.780
24122SOL    HW274199   3.073   7.057   1.930
24123SOL     OW74200  14.781  13.362   0.716
24123SOL    HW174201  14.792  13.420   0.792
24123SOL    HW274202  14.724  13.292   0.748
24124SOL     OW74203  11.910   3.017   7.570
24124SOL    HW174204  11.956   2.948   7.523
24124SOL    HW274205  11.976   3.058   7.625
24125SOL     OW74206   2.814   9.458   7.474
24125SOL    HW174207   2.743   9.431   7.532
24125SOL    HW274208   2.882   9.392   7.487
24126SOL     OW74209   5.327  12.534   6.085
24126SOL    HW174210   5.276  12.469   6.037
24126SOL    HW274211   5.378  12.482   6.148
24127SOL     OW74212   3.227   6.298  13.584
24127SOL    HW174213   3.290   6.316  13.653
24127SOL    HW274214   3.167   6.372  13.586
24128SOL     OW74215   3.581   2.561   8.548
24128SOL    HW174216   3.596   2.625   8.478
24128SOL    HW274217   3.547   2.484   8.503
24129SOL     OW74218  13.456   6.534   3.694
24129SOL    HW174219  13.379   6.582   3.666
24129SOL    HW274220  13.511   6.527   3.616
24130SOL     OW74221  10.803   9.183   0.551
24130SOL    HW174222  10.782   9.116   0.486
24130SOL    HW274223  10.897   9.174   0.566
24131SOL     OW74224  10.703  10.162   9.116
24131SOL    HW174225  10.726  10.209   9.036
24131SOL    HW274226  10.652  10.087   9.086
24132SOL     OW74227   4.769   5.270  11.892
24132SOL    HW174228   4.697   5.209  11.879
24132SOL    HW274229   4.741   5.350  11.847
24133SOL     OW74230   0.513   5.736   4.138
24133SOL    HW174231   0.540   5.815   4.184
24133SOL    HW274232   0.574   5.668   4.168
24134SOL     OW74233   3.438  13.299   1.898
24134SOL    HW174234   3.362  13.319   1.844
24134SOL    HW274235   3.512  13.338   1.850
24135SOL     OW74236   0.871   2.329  14.715
24135SOL    HW174237   0.799   2.385  14.685
24135SOL    HW274238   0.890   2.273  14.640
24136SOL     OW74239  11.722  11.321   8.345
24136SOL    HW174240  11.796  11.312   8.405
24136SOL    HW274241  11.758  11.300   8.259
24137SOL     OW74242  13.883  12.415   3.376
24137SOL    HW174243  13.790  12.410   3.353
24137SOL    HW274244  13.926  12.361   3.310
24138SOL     OW74245   9.112  12.462   5.342
24138SOL    HW174246   9.123  12.439   5.434
24138SOL    HW274247   9.148  12.387   5.294
24139SOL     OW74248   1.208   5.036   4.294
24139SOL    HW174249   1.135   5.008   4.238
24139SOL    HW274250   1.231   4.958   4.344
24140SOL     OW74251   5.235   8.533  12.697
24140SOL    HW174252   5.150   8.499  12.668
24140SOL    HW274253   5.275   8.569  12.618
24141SOL     OW74254   1.321   6.267   5.200
24141SOL    HW174255   1.404   6.279   5.154
24141SOL    HW274256   1.264   6.223   5.136
24142SOL     OW74257   5.449   4.158   3.122
24142SOL    HW174258   5.415   4.075   3.154
24142SOL    HW274259   5.436   4.219   3.195
24143SOL     OW74260   2.513  11.983   2.984
24143SOL    HW174261   2.525  12.078   2.988
24143SOL    HW274262   2.575  11.948   3.049
24144SOL     OW74263   3.924   8.174  14.701
24144SOL    HW174264   3.905   8.080  14.705
24144SOL    HW274265   4.008   8.183  14.745
24145SOL     OW74266  13.215   7.564  11.838
24145SOL    HW174267  13.138   7.572  11.780
24145SOL    HW274268  13.199   7.629  11.907
24146SOL     OW74269   1.497   7.227  13.395
24146SOL    HW174270   1.501   7.173  13.474
24146SOL    HW274271   1.522   7.168  13.324
24147SOL     OW74272   3.254  14.065   3.182
24147SOL    HW174273   3.265  14.024   3.097
24147SOL    HW274274   3.212  13.999   3.236
24148SOL     OW74275   8.249  11.137   6.979
24148SOL    HW174276   8.253  11.069   6.912
24148SOL    HW274277   8.297  11.100   7.053
24149SOL     OW74278  11.800   0.683   3.959
24149SOL    HW174279  11.729   0.624   3.985
24149SOL    HW274280  11.798   0.753   4.024
24150SOL     OW74281   5.078   1.407   4.512
24150SOL    HW174282   5.069   1.332   4.453
24150SOL    HW274283   5.138   1.376   4.580
24151SOL     OW74284   2.377   7.012   9.231
24151SOL    HW174285   2.331   7.088   9.193
24151SOL    HW274286   2.359   6.941   9.170
24152SOL     OW74287   1.173   1.137  13.452
24152SOL    HW174288   1.231   1.207  13.419
24152SOL    HW274289   1.186   1.065  13.390
24153SOL     OW74290  10.318   0.414   5.628
24153SOL    HW174291  10.406   0.418   5.590
24153SOL    HW274292  10.325   0.349   5.698
24154SOL     OW74293   4.847  13.082  11.570
24154SOL    HW174294   4.776  13.142  11.543
24154SOL    HW274295   4.900  13.072  11.491
24155SOL     OW74296   2.232   1.334  11.387
24155SOL    HW174297   2.317   1.298  11.363
24155SOL    HW274298   2.252   1.402  11.452
24156SOL     OW74299   9.609   5.666   7.699
24156SOL    HW174300   9.648   5.691   7.616
24156SOL    HW274301   9.671   5.696   7.765
24157SOL     OW74302   9.900   1.671   3.748
24157SOL    HW174303   9.953   1.660   3.669
24157SOL    HW274304   9.812   1.643   3.722
24158SOL     OW74305  10.234   7.876   7.466
24158SOL    HW174306  10.165   7.818   7.499
24158SOL    HW274307  10.214   7.961   7.505
24159SOL     OW74308  14.610   6.162  11.508
24159SOL    HW174309  14.600   6.251  11.543
24159SOL    HW274310  14.694   6.132  11.544
24160SOL     OW74311  10.482  11.754  10.458
24160SOL    HW174312  10.390  11.736  10.439
24160SOL    HW274313  10.526  11.746  10.373
24161SOL     OW74314   1.617  12.564   9.992
24161SOL    HW174315   1.558  12.625  10.036
24161SOL    HW274316   1.619  12.487  10.049
24162SOL     OW74317  12.631  10.351   4.590
24162SOL    HW174318  12.649  10.264   4.627
24162SOL    HW274319  12.665  10.412   4.656
24163SOL     OW74320   3.425   6.596   0.423
24163SOL    HW174321   3.509   6.618   0.465
24163SOL    HW274322   3.407   6.670   0.366
24164SOL     OW74323   6.167   0.093   4.162
24164SOL    HW174324   6.160   0.181   4.123
24164SOL    HW274325   6.105   0.095   4.235
24165SOL     OW74326   7.419  11.612   6.527
24165SOL    HW174327   7.380  11.568   6.603
24165SOL    HW274328   7.433  11.702   6.556
24166SOL     OW74329   7.185  10.661   0.794
24166SOL    HW174330   7.097  10.624   0.795
24166SOL    HW274331   7.241  10.591   0.760
24167SOL     OW74332   7.376   9.332  11.597
24167SOL    HW174333   7.417   9.250  11.570
24167SOL    HW274334   7.314   9.352  11.527
24168SOL     OW74335  10.584   6.962   7.856
24168SOL    HW174336  10.503   7.011   7.866
24168SOL    HW274337  10.571   6.882   7.906
24169SOL     OW74338   7.262   0.716   8.844
24169SOL    HW174339   7.253   0.744   8.935
24169SOL    HW274340   7.241   0.794   8.793
24170SOL     OW74341   4.311  11.639   7.512
24170SOL    HW174342   4.306  11.735   7.519
24170SOL    HW274343   4.378  11.614   7.576
24171SOL     OW74344   2.449  11.511   5.807
24171SOL    HW174345   2.436  11.544   5.896
24171SOL    HW274346   2.379  11.551   5.755
24172SOL     OW74347  10.500   6.262   2.611
24172SOL    HW174348  10.422   6.308   2.578
24172SOL    HW274349  10.523   6.309   2.691
24173SOL     OW74350   5.067   3.954   0.567
24173SOL    HW174351   5.144   4.002   0.537
24173SOL    HW274352   5.102   3.887   0.625
24174SOL     OW74353   5.105  14.105  12.782
24174SOL    HW174354   5.066  14.134  12.700
24174SOL    HW274355   5.042  14.130  12.849
24175SOL     OW74356  10.423   7.461   6.340
24175SOL    HW174357  10.349   7.437   6.284
24175SOL    HW274358  10.399   7.429   6.427
24176SOL     OW74359  11.044   7.522   6.025
24176SOL    HW174360  11.098   7.459   5.978
24176SOL    HW274361  11.107   7.580   6.068
24177SOL     OW74362   1.315   1.698   9.342
24177SOL    HW174363   1.293   1.744   9.261
24177SOL    HW274364   1.397   1.652   9.323
24178SOL     OW74365   6.462  14.055   4.447
24178SOL    HW174366   6.385  13.999   4.437
24178SOL    HW274367   6.519  14.031   4.373
24179SOL     OW74368  12.422   8.155  12.137
24179SOL    HW174369  12.380   8.239  12.119
24179SOL    HW274370  12.456   8.165  12.226
24180SOL     OW74371   7.156  10.986   6.305
24180SOL    HW174372   7.215  11.059   6.325
24180SOL    HW274373   7.213  10.909   6.306
24181SOL     OW74374   2.392   9.284  12.163
24181SOL    HW174375   2.351   9.251  12.083
24181SOL    HW274376   2.335   9.355  12.191
24182SOL     OW74377   4.518  13.672  11.379
24182SOL    HW174378   4.546  13.675  11.471
24182SOL    HW274379   4.502  13.764  11.356
24183SOL     OW74380  10.282  10.005   2.675
24183SOL    HW174381  10.357   9.989   2.733
24183SOL    HW274382  10.209   9.959   2.716
24184SOL     OW74383   8.474  13.809   2.984
24184SOL    HW174384   8.456  13.760   2.904
24184SOL    HW274385   8.422  13.889   2.975
24185SOL     OW74386   1.280   6.917  11.968
24185SOL    HW174387   1.240   6.967  12.039
24185SOL    HW274388   1.206   6.887  11.916
24186SOL     OW74389   6.882   7.911   2.230
24186SOL    HW174390   6.902   7.825   2.268
24186SOL    HW274391   6.812   7.894   2.167
24187SOL     OW74392  10.576   5.494   7.424
24187SOL    HW174393  10.529   5.450   7.495
24187SOL    HW274394  10.513   5.497   7.352
24188SOL     OW74395   4.782  12.676   0.352
24188SOL    HW174396   4.778  12.686   0.257
24188SOL    HW274397   4.797  12.765   0.385
24189SOL     OW74398   4.209   7.972  14.626
24189SOL    HW174399   4.193   7.919  14.705
24189SOL    HW274400   4.189   8.062  14.653
24190SOL     OW74401   4.013   8.070   6.642
24190SOL    HW174402   4.075   8.128   6.687
24190SOL    HW274403   4.068   8.005   6.599
24191SOL     OW74404   3.643   0.758  13.662
24191SOL    HW174405   3.636   0.776  13.569
24191SOL    HW274406   3.554   0.739  13.690
24192SOL     OW74407   8.640   7.841   3.351
24192SOL    HW174408   8.724   7.856   3.395
24192SOL    HW274409   8.664   7.793   3.271
24193SOL     OW74410   2.762   0.161   6.108
24193SOL    HW174411   2.846   0.157   6.062
24193SOL    HW274412   2.784   0.200   6.193
24194SOL     OW74413   0.437  13.664   0.792
24194SOL    HW174414   0.467  13.728   0.857
24194SOL    HW274415   0.500  13.592   0.798
24195SOL     OW74416  13.467  11.256   7.873
24195SOL    HW174417  13.465  11.347   7.845
24195SOL    HW274418  13.560  11.235   7.880
24196SOL     OW74419   6.113  14.702   0.540
24196SOL    HW174420   6.203  14.709   0.508
24196SOL    HW274421   6.123  14.701   0.636
24197SOL     OW74422  11.508  10.915   8.740
24197SOL    HW174423  11.595  10.936   8.705
24197SOL    HW274424  11.516  10.827   8.776
24198SOL     OW74425   8.999  13.736   5.718
24198SOL    HW174426   8.916  13.697   5.746
24198SOL    HW274427   9.007  13.816   5.770
24199SOL     OW74428  10.353   2.745  10.612
24199SOL    HW174429  10.426   2.750  10.551
24199SOL    HW274430  10.372   2.667  10.665
24200SOL     OW74431  10.825   0.489   3.820
24200SOL    HW174432  10.786   0.440   3.747
24200SOL    HW274433  10.751   0.510   3.877
24201SOL     OW74434   2.311   6.508   8.452
24201SOL    HW174435   2.269   6.568   8.390
24201SOL    HW274436   2.365   6.564   8.507
24202SOL     OW74437   8.678  12.771   4.457
24202SOL    HW174438   8.757  12.728   4.424
24202SOL    HW274439   8.651  12.829   4.385
24203SOL     OW74440   6.655   3.849   3.289
24203SOL    HW174441   6.577   3.799   3.311
24203SOL    HW274442   6.727   3.787   3.301
24204SOL     OW74443   3.998   9.936  14.623
24204SOL    HW174444   3.925   9.991  14.594
24204SOL    HW274445   3.990   9.855  14.573
24205SOL     OW74446   1.684   4.761   1.378
24205SOL    HW174447   1.706   4.741   1.287
24205SOL    HW274448   1.639   4.683   1.410
24206SOL     OW74449   0.602   5.097   7.240
24206SOL    HW174450   0.527   5.121   7.185
24206SOL    HW274451   0.598   5.002   7.246
24207SOL     OW74452   1.839   0.246  10.265
24207SOL    HW174453   1.755   0.224  10.305
24207SOL    HW274454   1.817   0.277  10.177
24208SOL     OW74455   2.879   8.543   6.090
24208SOL    HW174456   2.948   8.509   6.033
24208SOL    HW274457   2.825   8.597   6.033
24209SOL     OW74458   5.991   0.152   9.958
24209SOL    HW174459   5.986   0.187   9.869
24209SOL    HW274460   6.023   0.225  10.011
24210SOL     OW74461   6.481   6.239   2.882
24210SOL    HW174462   6.445   6.307   2.824
24210SOL    HW274463   6.440   6.158   2.851
24211SOL     OW74464  13.594   5.145   2.359
24211SOL    HW174465  13.595   5.055   2.391
24211SOL    HW274466  13.503   5.159   2.332
24212SOL     OW74467   1.455  12.713  12.619
24212SOL    HW174468   1.413  12.731  12.535
24212SOL    HW274469   1.396  12.748  12.685
24213SOL     OW74470  14.558   9.932   8.940
24213SOL    HW174471  14.527   9.854   8.894
24213SOL    HW274472  14.623   9.971   8.881
24214SOL     OW74473   0.550   6.888   4.545
24214SOL    HW174474   0.506   6.956   4.596
24214SOL    HW274475   0.502   6.886   4.462
24215SOL     OW74476  14.716   3.051   4.295
24215SOL    HW174477  14.656   3.006   4.354
24215SOL    HW274478  14.660   3.087   4.227
24216SOL     OW74479  14.844   5.034   3.926
24216SOL    HW174480  14.820   5.073   3.842
24216SOL    HW274481   0.057   5.045   3.932
24217SOL     OW74482   6.051   2.250  13.174
24217SOL    HW174483   6.052   2.326  13.115
24217SOL    HW274484   6.134   2.257  13.221
24218SOL     OW74485   7.831   9.624   3.867
24218SOL    HW174486   7.801   9.601   3.779
24218SOL    HW274487   7.836   9.541   3.913
24219SOL     OW74488  13.526   8.491   9.534
24219SOL    HW174489  13.488   8.511   9.448
24219SOL    HW274490  13.590   8.423   9.517
24220SOL     OW74491   9.314   4.300   7.221
24220SOL    HW174492   9.333   4.392   7.202
24220SOL    HW274493   9.378   4.252   7.168
24221SOL     OW74494   0.293  11.262   6.616
24221SOL    HW174495   0.248  11.204   6.678
24221SOL    HW274496   0.353  11.313   6.670
24222SOL     OW74497   8.957   5.385  13.692
24222SOL    HW174498   8.878   5.341  13.723
24222SOL    HW274499   9.002   5.320  13.638
24223SOL     OW74500  13.900   4.998  10.326
24223SOL    HW174501  13.946   5.040  10.398
24223SOL    HW274502  13.911   4.904  10.341
24224SOL     OW74503   6.983  14.067  14.585
24224SOL    HW174504   6.907  14.110  14.624
24224SOL    HW274505   6.958  13.975  14.580
24225SOL     OW74506   5.432  14.798   7.113
24225SOL    HW174507   5.512  14.851   7.105
24225SOL    HW274508   5.392  14.828   7.194
24226SOL     OW74509   0.273  12.076  11.574
24226SOL    HW174510   0.274  12.123  11.491
24226SOL    HW274511   0.205  12.119  11.626
24227SOL     OW74512   0.263  14.576   3.389
24227SOL    HW174513   0.312  14.501   3.356
24227SOL    HW274514   0.192  14.538   3.441
24228SOL     OW74515   2.099   0.022   6.704
24228SOL    HW174516   2.139  14.825   6.669
24228SOL    HW274517   2.147   0.094   6.663
24229SOL     OW74518  11.050   9.609   3.530
24229SOL    HW174519  11.042   9.703   3.546
24229SOL    HW274520  10.959   9.579   3.524
24230SOL     OW74521   9.831  14.254  10.923
24230SOL    HW174522   9.821  14.294  10.837
24230SOL    HW274523   9.783  14.171  10.916
24231SOL     OW74524   7.935  11.343   5.904
24231SOL    HW174525   7.886  11.280   5.955
24231SOL    HW274526   7.888  11.426   5.916
24232SOL     OW74527  11.582   1.900   0.928
24232SOL    HW174528  11.568   1.806   0.917
24232SOL    HW274529  11.677   1.909   0.938
24233SOL     OW74530   2.820  12.939  14.815
24233SOL    HW174531   2.872  12.971   0.007
24233SOL    HW274532   2.855  12.851  14.797
24234SOL     OW74533   3.910  14.845   6.863
24234SOL    HW174534   4.003  14.857   6.841
24234SOL    HW274535   3.878   0.051   6.881
24235SOL     OW74536  12.733   0.101  14.659
24235SOL    HW174537  12.790   0.030  14.690
24235SOL    HW274538  12.777   0.181  14.686
24236SOL     OW74539   2.879  12.656  10.583
24236SOL    HW174540   2.871  12.641  10.677
24236SOL    HW274541   2.794  12.630  10.548
24237SOL     OW74542   1.201   3.224  11.780
24237SOL    HW174543   1.116   3.266  11.785
24237SOL    HW274544   1.212   3.201  11.688
24238SOL     OW74545  10.732   0.522   1.745
24238SOL    HW174546  10.654   0.510   1.800
24238SOL    HW274547  10.775   0.437   1.745
24239SOL     OW74548   4.119   7.196  12.102
24239SOL    HW174549   4.177   7.202  12.025
24239SOL    HW274550   4.179   7.195  12.176
24240SOL     OW74551   2.240   7.093   5.949
24240SOL    HW174552   2.239   7.189   5.941
24240SOL    HW274553   2.216   7.062   5.862
24241SOL     OW74554   7.623   2.737   2.977
24241SOL    HW174555   7.687   2.667   2.995
24241SOL    HW274556   7.670   2.798   2.920
24242SOL     OW74557   4.314  14.453   0.557
24242SOL    HW174558   4.329  14.525   0.617
24242SOL    HW274559   4.401  14.421   0.535
24243SOL     OW74560   4.600  14.546   9.217
24243SOL    HW174561   4.575  14.468   9.168
24243SOL    HW274562   4.619  14.514   9.305
24244SOL     OW74563   6.603  11.127   5.387
24244SOL    HW174564   6.573  11.072   5.315
24244SOL    HW274565   6.583  11.077   5.466
24245SOL     OW74566  14.308   4.795   8.107
24245SOL    HW174567  14.294   4.748   8.189
24245SOL    HW274568  14.235   4.768   8.051
24246SOL     OW74569   2.174  11.319  11.833
24246SOL    HW174570   2.247  11.260  11.850
24246SOL    HW274571   2.096  11.265  11.841
24247SOL     OW74572   7.619   9.274  12.409
24247SOL    HW174573   7.603   9.210  12.479
24247SOL    HW274574   7.635   9.221  12.331
24248SOL     OW74575  14.243  12.851  13.523
24248SOL    HW174576  14.292  12.932  13.539
24248SOL    HW274577  14.259  12.798  13.601
24249SOL     OW74578   3.536   1.284   2.985
24249SOL    HW174579   3.463   1.254   2.930
24249SOL    HW274580   3.607   1.224   2.965
24250SOL     OW74581  11.673  13.732  11.898
24250SOL    HW174582  11.721  13.689  11.968
24250SOL    HW274583  11.601  13.673  11.878
24251SOL     OW74584   4.265   4.588   0.729
24251SOL    HW174585   4.175   4.557   0.724
24251SOL    HW274586   4.292   4.568   0.819
24252SOL     OW74587   9.626   3.035   1.924
24252SOL    HW174588   9.597   2.998   2.007
24252SOL    HW274589   9.682   2.967   1.886
24253SOL     OW74590   5.364   6.665   0.314
24253SOL    HW174591   5.450   6.698   0.288
24253SOL    HW274592   5.322   6.640   0.231
24254SOL     OW74593   7.927   9.330  11.028
24254SOL    HW174594   7.908   9.329  11.122
24254SOL    HW274595   7.956   9.242  11.007
24255SOL     OW74596   3.687   9.066  14.179
24255SOL    HW174597   3.603   9.019  14.183
24255SOL    HW274598   3.675   9.141  14.237
24256SOL     OW74599  14.315   2.540  11.149
24256SOL    HW174600  14.340   2.478  11.081
24256SOL    HW274601  14.273   2.485  11.216
24257SOL     OW74602   8.919   5.380   5.880
24257SOL    HW174603   8.842   5.435   5.896
24257SOL    HW274604   8.916   5.314   5.950
24258SOL     OW74605   9.851   3.718  10.126
24258SOL    HW174606   9.900   3.801  10.132
24258SOL    HW274607   9.821   3.701  10.215
24259SOL     OW74608  12.307   7.592  12.942
24259SOL    HW174609  12.241   7.546  12.994
24259SOL    HW274610  12.371   7.622  13.006
24260SOL     OW74611  11.508   3.591  12.115
24260SOL    HW174612  11.561   3.534  12.058
24260SOL    HW274613  11.488   3.536  12.191
24261SOL     OW74614   8.417   8.712   3.737
24261SOL    HW174615   8.418   8.624   3.698
24261SOL    HW274616   8.385   8.768   3.666
24262SOL     OW74617   2.164  10.381   0.065
24262SOL    HW174618   2.072  10.375   0.039
24262SOL    HW274619   2.168  10.339   0.151
24263SOL     OW74620   0.027   0.509   3.275
24263SOL    HW174621   0.116   0.475   3.275
24263SOL    HW274622  14.861   0.451   3.215
24264SOL     OW74623   7.703   8.975   0.031
24264SOL    HW174624   7.726   8.891  14.873
24264SOL    HW274625   7.711   8.960   0.125
24265SOL     OW74626   1.894   2.332   5.381
24265SOL    HW174627   1.916   2.370   5.296
24265SOL    HW274628   1.820   2.274   5.363
24266SOL     OW74629   3.187   7.435   7.987
24266SOL    HW174630   3.217   7.511   8.038
24266SOL    HW274631   3.132   7.472   7.919
24267SOL     OW74632  12.630   6.719   3.159
24267SOL    HW174633  12.700   6.658   3.185
24267SOL    HW274634  12.581   6.735   3.240
24268SOL     OW74635   4.551  14.388   8.932
24268SOL    HW174636   4.634  14.342   8.946
24268SOL    HW274637   4.572  14.456   8.868
24269SOL     OW74638   4.888  11.882   1.295
24269SOL    HW174639   4.926  11.818   1.355
24269SOL    HW274640   4.929  11.864   1.211
24270SOL     OW74641   8.448   3.849   1.675
24270SOL    HW174642   8.384   3.912   1.707
24270SOL    HW274643   8.405   3.764   1.681
24271SOL     OW74644   2.449   8.423   8.728
24271SOL    HW174645   2.504   8.500   8.715
24271SOL    HW274646   2.363   8.459   8.751
24272SOL     OW74647   0.376  14.586   8.126
24272SOL    HW174648   0.391  14.492   8.123
24272SOL    HW274649   0.350  14.604   8.217
24273SOL     OW74650   3.609  12.500   4.004
24273SOL    HW174651   3.659  12.486   4.084
24273SOL    HW274652   3.593  12.594   4.001
24274SOL     OW74653   4.066   2.520   6.451
24274SOL    HW174654   4.010   2.555   6.381
24274SOL    HW274655   4.135   2.473   6.405
24275SOL     OW74656  13.725   7.618   7.653
24275SOL    HW174657  13.649   7.677   7.658
24275SOL    HW274658  13.695   7.537   7.694
24276SOL     OW74659   9.823   5.969   4.859
24276SOL    HW174660   9.846   6.017   4.938
24276SOL    HW274661   9.896   5.908   4.846
24277SOL     OW74662   3.927   4.131   9.619
24277SOL    HW174663   3.845   4.106   9.576
24277SOL    HW274664   3.922   4.089   9.705
24278SOL     OW74665  11.825   6.277  14.588
24278SOL    HW174666  11.767   6.348  14.614
24278SOL    HW274667  11.784   6.198  14.623
24279SOL     OW74668   7.307   0.276   5.095
24279SOL    HW174669   7.383   0.249   5.042
24279SOL    HW274670   7.341   0.345   5.152
24280SOL     OW74671  14.081   0.588   6.191
24280SOL    HW174672  14.167   0.630   6.191
24280SOL    HW274673  14.019   0.661   6.193
24281SOL     OW74674   6.388   4.154   3.898
24281SOL    HW174675   6.329   4.115   3.962
24281SOL    HW274676   6.402   4.244   3.930
24282SOL     OW74677   0.351   3.577   5.357
24282SOL    HW174678   0.264   3.579   5.397
24282SOL    HW274679   0.381   3.667   5.361
24283SOL     OW74680   1.048   3.326   7.028
24283SOL    HW174681   0.992   3.251   7.048
24283SOL    HW274682   1.060   3.370   7.112
24284SOL     OW74683   8.708   9.032  13.964
24284SOL    HW174684   8.679   8.945  13.937
24284SOL    HW274685   8.633   9.088  13.948
24285SOL     OW74686   0.789   4.997   4.241
24285SOL    HW174687   0.757   5.023   4.328
24285SOL    HW274688   0.818   5.078   4.200
24286SOL     OW74689  14.342   6.562   4.564
24286SOL    HW174690  14.407   6.498   4.534
24286SOL    HW274691  14.258   6.524   4.542
24287SOL     OW74692   3.648   8.628  11.977
24287SOL    HW174693   3.579   8.691  11.994
24287SOL    HW274694   3.666   8.588  12.062
24288SOL     OW74695   1.600  13.985  10.514
24288SOL    HW174696   1.543  14.018  10.444
24288SOL    HW274697   1.640  13.907  10.476
24289SOL     OW74698   7.922   6.404  11.956
24289SOL    HW174699   7.876   6.359  12.027
24289SOL    HW274700   7.979   6.467  12.001
24290SOL     OW74701   5.762   2.477   6.749
24290SOL    HW174702   5.773   2.546   6.815
24290SOL    HW274703   5.692   2.508   6.693
24291SOL     OW74704   0.633   5.201   9.247
24291SOL    HW174705   0.630   5.138   9.175
24291SOL    HW274706   0.698   5.266   9.220
24292SOL     OW74707  13.966   6.498  10.838
24292SOL    HW174708  13.894   6.561  10.837
24292SOL    HW274709  13.931   6.421  10.794
24293SOL     OW74710   6.380   9.852   7.632
24293SOL    HW174711   6.452   9.902   7.594
24293SOL    HW274712   6.367   9.778   7.573
24294SOL     OW74713   9.038   2.187   7.775
24294SOL    HW174714   8.975   2.224   7.837
24294SOL    HW274715   9.058   2.100   7.810
24295SOL     OW74716   7.601  14.369   7.674
24295SOL    HW174717   7.594  14.464   7.676
24295SOL    HW274718   7.510  14.338   7.678
24296SOL     OW74719   4.021   2.255  12.695
24296SOL    HW174720   4.086   2.325  12.697
24296SOL    HW274721   4.054   2.193  12.629
24297SOL     OW74722  10.716   1.792   8.133
24297SOL    HW174723  10.663   1.719   8.100
24297SOL    HW274724  10.783   1.804   8.066
24298SOL     OW74725   7.912   4.649  12.078
24298SOL    HW174726   7.835   4.599  12.051
24298SOL    HW274727   7.898   4.668  12.171
24299SOL     OW74728   1.500   3.632  10.040
24299SOL    HW174729   1.588   3.619  10.073
24299SOL    HW274730   1.490   3.567   9.970
24300SOL     OW74731   2.855  10.867   0.871
24300SOL    HW174732   2.894  10.888   0.786
24300SOL    HW274733   2.785  10.930   0.882
24301SOL     OW74734   1.133   1.543   1.907
24301SOL    HW174735   1.213   1.513   1.950
24301SOL    HW274736   1.082   1.583   1.977
24302SOL     OW74737  11.762   4.943   7.945
24302SOL    HW174738  11.805   4.915   7.864
24302SOL    HW274739  11.676   4.975   7.916
24303SOL     OW74740   0.391  14.180   1.872
24303SOL    HW174741   0.326  14.208   1.937
24303SOL    HW274742   0.444  14.258   1.856
24304SOL     OW74743  10.698   4.955  13.751
24304SOL    HW174744  10.603   4.955  13.757
24304SOL    HW274745  10.724   5.043  13.777
24305SOL     OW74746   3.296   4.214   1.796
24305SOL    HW174747   3.278   4.307   1.813
24305SOL    HW274748   3.217   4.168   1.825
24306SOL     OW74749  14.187   3.482   8.510
24306SOL    HW174750  14.163   3.565   8.551
24306SOL    HW274751  14.105   3.433   8.506
24307SOL     OW74752   3.800   2.007  13.320
24307SOL    HW174753   3.726   2.044  13.368
24307SOL    HW274754   3.801   1.915  13.345
24308SOL     OW74755  11.529   8.680  14.400
24308SOL    HW174756  11.495   8.769  14.401
24308SOL    HW274757  11.454   8.625  14.423
24309SOL     OW74758   2.729   1.842  12.502
24309SOL    HW174759   2.719   1.794  12.584
24309SOL    HW274760   2.804   1.899  12.518
24310SOL     OW74761   3.303   0.587  10.914
24310SOL    HW174762   3.387   0.631  10.930
24310SOL    HW274763   3.304   0.512  10.973
24311SOL     OW74764  13.560   0.200   9.174
24311SOL    HW174765  13.639   0.205   9.228
24311SOL    HW274766  13.583   0.139   9.103
24312SOL     OW74767   0.600   5.168   0.208
24312SOL    HW174768   0.544   5.153   0.284
24312SOL    HW274769   0.665   5.231   0.239
24313SOL     OW74770   2.041  12.280   0.563
24313SOL    HW174771   1.968  12.340   0.550
24313SOL    HW274772   2.026  12.208   0.502
24314SOL     OW74773   7.254   1.955   1.900
24314SOL    HW174774   7.238   1.862   1.913
24314SOL    HW274775   7.213   1.975   1.815
24315SOL     OW74776   5.276  13.330   6.166
24315SOL    HW174777   5.273  13.306   6.074
24315SOL    HW274778   5.185  13.328   6.195
24316SOL     OW74779   4.052   0.124   0.917
24316SOL    HW174780   4.093   0.052   0.869
24316SOL    HW274781   4.000   0.170   0.851
24317SOL     OW74782   1.216   2.965   8.889
24317SOL    HW174783   1.191   3.057   8.903
24317SOL    HW274784   1.224   2.957   8.794
24318SOL     OW74785  11.793   5.999   2.450
24318SOL    HW174786  11.808   5.937   2.379
24318SOL    HW274787  11.879   6.036   2.468
24319SOL     OW74788   1.258  11.234  13.490
24319SOL    HW174789   1.336  11.291  13.483
24319SOL    HW274790   1.257  11.206  13.581
24320SOL     OW74791   3.380   5.470   1.904
24320SOL    HW174792   3.357   5.552   1.948
24320SOL    HW274793   3.472   5.455   1.926
24321SOL     OW74794   1.828  14.722   5.658
24321SOL    HW174795   1.802  14.695   5.746
24321SOL    HW274796   1.760  14.784   5.631
24322SOL     OW74797   3.891  11.788   8.011
24322SOL    HW174798   3.798  11.781   7.992
24322SOL    HW274799   3.918  11.699   8.035
24323SOL     OW74800   3.718   8.424   0.510
24323SOL    HW174801   3.718   8.380   0.425
24323SOL    HW274802   3.696   8.356   0.573
24324SOL     OW74803  13.666   1.803   6.850
24324SOL    HW174804  13.670   1.768   6.939
24324SOL    HW274805  13.734   1.871   6.848
24325SOL     OW74806   1.497   3.581  13.850
24325SOL    HW174807   1.413   3.624  13.831
24325SOL    HW274808   1.535   3.564  13.764
24326SOL     OW74809  10.468  10.732   8.747
24326SOL    HW174810  10.391  10.770   8.789
24326SOL    HW274811  10.491  10.794   8.678
24327SOL     OW74812   7.790  11.790   1.165
24327SOL    HW174813   7.771  11.792   1.259
24327SOL    HW274814   7.795  11.882   1.140
24328SOL     OW74815   0.229  14.846   8.413
24328SOL    HW174816   0.212  14.816   8.324
24328SOL    HW274817   0.239   0.059   8.404
24329SOL     OW74818   3.687  12.439   7.271
24329SOL    HW174819   3.621  12.479   7.326
24329SOL    HW274820   3.750  12.508   7.253
24330SOL     OW74821   5.314  10.871  14.234
24330SOL    HW174822   5.405  10.850  14.213
24330SOL    HW274823   5.297  10.825  14.316
24331SOL     OW74824  10.330   0.661  12.393
24331SOL    HW174825  10.391   0.592  12.368
24331SOL    HW274826  10.377   0.711  12.459
24332SOL     OW74827  12.795   8.664   3.758
24332SOL    HW174828  12.840   8.680   3.841
24332SOL    HW274829  12.712   8.624   3.782
24333SOL     OW74830   8.816   5.213   4.674
24333SOL    HW174831   8.822   5.126   4.636
24333SOL    HW274832   8.888   5.262   4.634
24334SOL     OW74833   5.581  10.112  13.603
24334SOL    HW174834   5.497  10.133  13.563
24334SOL    HW274835   5.572  10.140  13.694
24335SOL     OW74836   0.500  12.396   1.594
24335SOL    HW174837   0.593  12.372   1.588
24335SOL    HW274838   0.496  12.482   1.552
24336SOL     OW74839  11.213   7.694   6.180
24336SOL    HW174840  11.295   7.739   6.199
24336SOL    HW274841  11.197   7.640   6.258
24337SOL     OW74842   7.024   9.905   1.273
24337SOL    HW174843   7.015   9.815   1.304
24337SOL    HW274844   7.044   9.955   1.351
24338SOL     OW74845   5.394   1.031  11.477
24338SOL    HW174846   5.325   0.975  11.512
24338SOL    HW274847   5.469   1.015  11.535
24339SOL     OW74848   2.725  13.461  14.296
24339SOL    HW174849   2.656  13.396  14.307
24339SOL    HW274850   2.763  13.441  14.210
24340SOL     OW74851   3.318  12.396  14.242
24340SOL    HW174852   3.350  12.309  14.216
24340SOL    HW274853   3.383  12.457  14.207
24341SOL     OW74854   1.536   6.424  14.438
24341SOL    HW174855   1.528   6.373  14.358
24341SOL    HW274856   1.446   6.446  14.462
24342SOL     OW74857   7.846   8.771   2.901
24342SOL    HW174858   7.850   8.833   2.828
24342SOL    HW274859   7.822   8.687   2.861
24343SOL     OW74860   1.134  11.039   9.230
24343SOL    HW174861   1.132  10.975   9.158
24343SOL    HW274862   1.185  11.112   9.195
24344SOL     OW74863   8.185  10.279   0.587
24344SOL    HW174864   8.123  10.352   0.590
24344SOL    HW274865   8.149  10.215   0.648
24345SOL     OW74866   6.666   4.588  10.365
24345SOL    HW174867   6.594   4.529  10.344
24345SOL    HW274868   6.722   4.587  10.288
24346SOL     OW74869   4.485  14.556   9.921
24346SOL    HW174870   4.467  14.466   9.947
24346SOL    HW274871   4.496  14.552   9.826
24347SOL     OW74872   7.184   6.361   9.027
24347SOL    HW174873   7.167   6.383   8.935
24347SOL    HW274874   7.250   6.292   9.023
24348SOL     OW74875   2.770  11.109   3.241
24348SOL    HW174876   2.691  11.061   3.220
24348SOL    HW274877   2.820  11.050   3.298
24349SOL     OW74878   8.592   4.367  13.706
24349SOL    HW174879   8.586   4.449  13.754
24349SOL    HW274880   8.612   4.393  13.616
24350SOL     OW74881   3.973   2.571   1.802
24350SOL    HW174882   4.025   2.651   1.792
24350SOL    HW274883   4.012   2.510   1.739
24351SOL     OW74884   7.998   8.190   9.208
24351SOL    HW174885   7.999   8.276   9.250
24351SOL    HW274886   8.004   8.208   9.115
24352SOL     OW74887  13.865  14.800   4.292
24352SOL    HW174888  13.949  14.845   4.288
24352SOL    HW274889  13.841  14.800   4.385
24353SOL     OW74890  12.908  13.205   2.005
24353SOL    HW174891  12.833  13.206   2.065
24353SOL    HW274892  12.948  13.291   2.016
24354SOL     OW74893   0.257   2.682  14.867
24354SOL    HW174894   0.314   2.725   0.049
24354SOL    HW274895   0.175   2.669   0.031
24355SOL     OW74896   1.964   9.548   5.371
24355SOL    HW174897   1.968   9.491   5.448
24355SOL    HW274898   1.982   9.636   5.405
24356SOL     OW74899  13.918   6.442   9.434
24356SOL    HW174900  13.991   6.384   9.455
24356SOL    HW274901  13.840   6.389   9.449
24357SOL     OW74902  12.856  12.631  13.885
24357SOL    HW174903  12.923  12.699  13.884
24357SOL    HW274904  12.841  12.614  13.979
24358SOL     OW74905   7.638   5.025   3.712
24358SOL    HW174906   7.674   5.037   3.624
24358SOL    HW274907   7.582   5.101   3.726
24359SOL     OW74908   7.563  11.067   0.628
24359SOL    HW174909   7.510  11.073   0.707
24359SOL    HW274910   7.651  11.045   0.659
24360SOL     OW74911   3.760  11.932   1.189
24360SOL    HW174912   3.776  11.878   1.111
24360SOL    HW274913   3.829  11.906   1.251
24361SOL     OW74914   2.156   7.401   2.126
24361SOL    HW174915   2.212   7.378   2.052
24361SOL    HW274916   2.210   7.383   2.203
24362SOL     OW74917  13.395  11.886   4.151
24362SOL    HW174918  13.406  11.876   4.056
24362SOL    HW274919  13.450  11.961   4.173
24363SOL     OW74920   3.813   4.798  14.050
24363SOL    HW174921   3.895   4.799  14.000
24363SOL    HW274922   3.793   4.891  14.064
24364SOL     OW74923   2.670   0.932  11.297
24364SOL    HW174924   2.628   0.980  11.368
24364SOL    HW274925   2.615   0.855  11.284
24365SOL     OW74926   1.933  10.797  13.017
24365SOL    HW174927   2.028  10.805  13.007
24365SOL    HW274928   1.898  10.828  12.933
24366SOL     OW74929   7.917   1.638  14.216
24366SOL    HW174930   7.868   1.561  14.245
24366SOL    HW274931   7.918   1.696  14.292
24367SOL     OW74932  10.578   5.552   9.922
24367SOL    HW174933  10.646   5.486   9.938
24367SOL    HW274934  10.627   5.633   9.907
24368SOL     OW74935   0.966   7.662   9.084
24368SOL    HW174936   1.032   7.695   9.145
24368SOL    HW274937   0.901   7.619   9.139
24369SOL     OW74938   4.843  13.178  13.277
24369SOL    HW174939   4.843  13.197  13.371
24369SOL    HW274940   4.753  13.197  13.249
24370SOL     OW74941  10.753   1.984   7.398
24370SOL    HW174942  10.728   1.933   7.475
24370SOL    HW274943  10.788   2.066   7.433
24371SOL     OW74944  10.463   0.497   6.389
24371SOL    HW174945  10.551   0.464   6.407
24371SOL    HW274946  10.420   0.426   6.341
24372SOL     OW74947   5.409   8.867   6.649
24372SOL    HW174948   5.498   8.857   6.615
24372SOL    HW274949   5.356   8.811   6.593
24373SOL     OW74950   0.119   1.327   2.547
24373SOL    HW174951   0.088   1.322   2.457
24373SOL    HW274952   0.084   1.249   2.590
24374SOL     OW74953  14.249  10.288  11.123
24374SOL    HW174954  14.205  10.372  11.121
24374SOL    HW274955  14.240  10.258  11.214
24375SOL     OW74956  14.119   7.359   5.926
24375SOL    HW174957  14.114   7.375   5.832
24375SOL    HW274958  14.029   7.372   5.957
24376SOL     OW74959   8.610  11.154   9.793
24376SOL    HW174960   8.654  11.239   9.791
24376SOL    HW274961   8.553  11.155   9.715
24377SOL     OW74962   1.784  11.543   4.231
24377SOL    HW174963   1.711  11.544   4.294
24377SOL    HW274964   1.759  11.607   4.164
24378SOL     OW74965  10.707  11.645   8.270
24378SOL    HW174966  10.758  11.700   8.210
24378SOL    HW274967  10.766  11.573   8.294
24379SOL     OW74968   2.875   5.673  14.197
24379SOL    HW174969   2.822   5.743  14.234
24379SOL    HW274970   2.836   5.656  14.111
24380SOL     OW74971   9.719  14.061  10.426
24380SOL    HW174972   9.640  14.023  10.464
24380SOL    HW274973   9.709  14.048  10.332
24381SOL     OW74974   1.681  11.942   1.976
24381SOL    HW174975   1.696  11.848   1.973
24381SOL    HW274976   1.644  11.958   2.063
24382SOL     OW74977   9.358  13.327  13.015
24382SOL    HW174978   9.314  13.287  13.090
24382SOL    HW274979   9.321  13.283  12.939
24383SOL     OW74980   7.350  12.233   9.105
24383SOL    HW174981   7.431  12.259   9.061
24383SOL    HW274982   7.344  12.292   9.181
24384SOL     OW74983  11.491   1.859  11.154
24384SOL    HW174984  11.454   1.937  11.112
24384SOL    HW274985  11.516   1.889  11.242
24385SOL     OW74986  12.225   0.917   8.258
24385SOL    HW174987  12.182   0.864   8.191
24385SOL    HW274988  12.154   0.948   8.314
24386SOL     OW74989   7.507   1.243   5.529
24386SOL    HW174990   7.443   1.224   5.460
24386SOL    HW274991   7.501   1.169   5.589
24387SOL     OW74992   2.230   7.197   9.056
24387SOL    HW174993   2.200   7.262   9.119
24387SOL    HW274994   2.242   7.245   8.974
24388SOL     OW74995   1.954  11.318  12.385
24388SOL    HW174996   1.998  11.324  12.300
24388SOL    HW274997   1.881  11.258  12.369
24389SOL     OW74998   6.274  14.386   6.957
24389SOL    HW174999   6.235  14.321   7.015
24389SOL    HW275000   6.225  14.378   6.875
24390SOL     OW75001   5.682   2.518   2.376
24390SOL    HW175002   5.592   2.496   2.399
24390SOL    HW275003   5.682   2.529   2.281
24391SOL     OW75004   5.744  13.048   3.784
24391SOL    HW175005   5.754  12.955   3.763
24391SOL    HW275006   5.826  13.071   3.828
24392SOL     OW75007   5.579   8.701   0.451
24392SOL    HW175008   5.635   8.676   0.524
24392SOL    HW275009   5.605   8.791   0.430
24393SOL     OW75010   7.463  11.471  13.149
24393SOL    HW175011   7.401  11.398  13.148
24393SOL    HW275012   7.508  11.464  13.233
24394SOL     OW75013   9.195   1.229   1.759
24394SOL    HW175014   9.199   1.135   1.776
24394SOL    HW275015   9.219   1.237   1.667
24395SOL     OW75016   9.717   1.657   8.369
24395SOL    HW175017   9.631   1.637   8.406
24395SOL    HW275018   9.751   1.572   8.340
24396SOL     OW75019   0.965   4.357   7.087
24396SOL    HW175020   0.944   4.305   7.164
24396SOL    HW275021   0.948   4.298   7.013
24397SOL     OW75022  11.647   0.888   8.834
24397SOL    HW175023  11.567   0.941   8.825
24397SOL    HW275024  11.618   0.798   8.821
24398SOL     OW75025   4.316  13.746   3.653
24398SOL    HW175026   4.326  13.813   3.586
24398SOL    HW275027   4.233  13.767   3.696
24399SOL     OW75028   2.983   8.198  13.936
24399SOL    HW175029   3.020   8.230  13.854
24399SOL    HW275030   3.046   8.225  14.003
24400SOL     OW75031   1.946  12.670  14.031
24400SOL    HW175032   1.944  12.650  14.125
24400SOL    HW275033   1.903  12.755  14.024
24401SOL     OW75034   6.232   7.361   9.042
24401SOL    HW175035   6.282   7.280   9.031
24401SOL    HW275036   6.299   7.430   9.042
24402SOL     OW75037  10.759   6.449   4.901
24402SOL    HW175038  10.790   6.405   4.822
24402SOL    HW275039  10.732   6.378   4.960
24403SOL     OW75040  14.060  12.202  14.531
24403SOL    HW175041  14.150  12.198  14.499
24403SOL    HW275042  14.065  12.175  14.622
24404SOL     OW75043   7.227   6.323  13.667
24404SOL    HW175044   7.172   6.259  13.624
24404SOL    HW275045   7.295   6.345  13.603
24405SOL     OW75046  14.451   5.944   7.110
24405SOL    HW175047  14.513   6.004   7.067
24405SOL    HW275048  14.492   5.858   7.103
24406SOL     OW75049  14.767   1.963  13.948
24406SOL    HW175050  14.819   1.930  14.021
24406SOL    HW275051  14.696   1.899  13.939
24407SOL     OW75052   2.395   5.468   2.155
24407SOL    HW175053   2.315   5.517   2.174
24407SOL    HW275054   2.380   5.429   2.069
24408SOL     OW75055   5.415  13.313  12.718
24408SOL    HW175056   5.454  13.240  12.670
24408SOL    HW275057   5.326  13.320  12.683
24409SOL     OW75058   1.997  14.781  14.521
24409SOL    HW175059   2.023  14.723  14.448
24409SOL    HW275060   1.989  14.722  14.596
24410SOL     OW75061   2.669   2.027  14.509
24410SOL    HW175062   2.582   1.998  14.535
24410SOL    HW275063   2.653   2.092  14.440
24411SOL     OW75064  10.128   1.546  12.709
24411SOL    HW175065  10.133   1.569  12.616
24411SOL    HW275066  10.092   1.624  12.751
24412SOL     OW75067   9.631  13.070   7.635
24412SOL    HW175068   9.603  13.096   7.722
24412SOL    HW275069   9.561  13.100   7.577
24413SOL     OW75070   3.606  10.486  13.944
24413SOL    HW175071   3.560  10.529  13.872
24413SOL    HW275072   3.578  10.394  13.939
24414SOL     OW75073   7.115  13.969   3.591
24414SOL    HW175074   7.202  13.952   3.627
24414SOL    HW275075   7.059  13.903   3.632
24415SOL     OW75076   3.050   1.291   6.054
24415SOL    HW175077   2.992   1.221   6.024
24415SOL    HW275078   3.127   1.283   5.998
24416SOL     OW75079   2.311   5.135   3.392
24416SOL    HW175080   2.271   5.100   3.472
24416SOL    HW275081   2.266   5.217   3.376
24417SOL     OW75082   7.697   5.807   5.480
24417SOL    HW175083   7.675   5.754   5.403
24417SOL    HW275084   7.672   5.896   5.456
24418SOL     OW75085   4.532   2.354  13.688
24418SOL    HW175086   4.564   2.343  13.599
24418SOL    HW275087   4.585   2.293  13.740
24419SOL     OW75088   1.110   5.317   2.600
24419SOL    HW175089   1.200   5.324   2.632
24419SOL    HW275090   1.078   5.234   2.635
24420SOL     OW75091  10.054   8.154  14.183
24420SOL    HW175092   9.997   8.143  14.107
24420SOL    HW275093  10.132   8.197  14.148
24421SOL     OW75094  11.546  13.604  14.607
24421SOL    HW175095  11.484  13.538  14.639
24421SOL    HW275096  11.533  13.678  14.666
24422SOL     OW75097   7.329   6.434   0.938
24422SOL    HW175098   7.408   6.380   0.929
24422SOL    HW275099   7.361   6.521   0.959
24423SOL     OW75100  12.145  13.473   2.929
24423SOL    HW175101  12.229  13.514   2.949
24423SOL    HW275102  12.080  13.540   2.948
24424SOL     OW75103   6.706   3.124  13.823
24424SOL    HW175104   6.731   3.125  13.731
24424SOL    HW275105   6.649   3.047  13.832
24425SOL     OW75106   5.368   5.648  14.574
24425SOL    HW175107   5.361   5.553  14.586
24425SOL    HW275108   5.417   5.658  14.492
24426SOL     OW75109   9.832   4.551   8.455
24426SOL    HW175110   9.740   4.553   8.482
24426SOL    HW275111   9.830   4.572   8.362
24427SOL     OW75112   7.458   9.946  13.225
24427SOL    HW175113   7.537   9.927  13.174
24427SOL    HW275114   7.490   9.997  13.300
24428SOL     OW75115   0.396   5.624   7.732
24428SOL    HW175116   0.433   5.586   7.812
24428SOL    HW275117   0.308   5.589   7.727
24429SOL     OW75118  14.703   1.038  14.550
24429SOL    HW175119  14.633   0.980  14.521
24429SOL    HW275120  14.665   1.087  14.623
24430SOL     OW75121   6.255   4.707   1.369
24430SOL    HW175122   6.160   4.708   1.380
24430SOL    HW275123   6.290   4.712   1.459
24431SOL     OW75124   1.936   1.980   5.644
24431SOL    HW175125   1.878   1.973   5.568
24431SOL    HW275126   1.915   1.904   5.698
24432SOL     OW75127   2.011   0.550   1.920
24432SOL    HW175128   2.046   0.463   1.906
24432SOL    HW275129   2.044   0.602   1.847
24433SOL     OW75130   0.002   6.447   7.432
24433SOL    HW175131   0.087   6.479   7.461
24433SOL    HW275132   0.004   6.353   7.452
24434SOL     OW75133  13.302   8.563   0.274
24434SOL    HW175134  13.323   8.484   0.323
24434SOL    HW275135  13.385   8.591   0.236
24435SOL     OW75136   7.651   7.435  14.550
24435SOL    HW175137   7.720   7.374  14.576
24435SOL    HW275138   7.570   7.383  14.551
24436SOL     OW75139  13.497   7.661   8.830
24436SOL    HW175140  13.512   7.595   8.898
24436SOL    HW275141  13.548   7.736   8.859
24437SOL     OW75142   2.226   7.556  14.261
24437SOL    HW175143   2.202   7.527  14.349
24437SOL    HW275144   2.282   7.632  14.275
24438SOL     OW75145   0.409   3.693   4.512
24438SOL    HW175146   0.344   3.679   4.581
24438SOL    HW275147   0.479   3.630   4.531
24439SOL     OW75148   8.184   8.095   0.183
24439SOL    HW175149   8.263   8.150   0.183
24439SOL    HW275150   8.139   8.118   0.102
24440SOL     OW75151   5.773  12.846  10.588
24440SOL    HW175152   5.737  12.797  10.514
24440SOL    HW275153   5.863  12.815  10.596
24441SOL     OW75154   2.615   3.385   8.855
24441SOL    HW175155   2.617   3.443   8.931
24441SOL    HW275156   2.647   3.439   8.782
24442SOL     OW75157  13.308   3.166  14.202
24442SOL    HW175158  13.328   3.166  14.108
24442SOL    HW275159  13.393   3.177  14.245
24443SOL     OW75160  14.224   8.930  13.283
24443SOL    HW175161  14.272   8.852  13.254
24443SOL    HW275162  14.214   8.982  13.203
24444SOL     OW75163   0.919  12.874   4.780
24444SOL    HW175164   0.890  12.877   4.871
24444SOL    HW275165   0.917  12.965   4.751
24445SOL     OW75166   5.551   5.702   9.369
24445SOL    HW175167   5.643   5.713   9.391
24445SOL    HW275168   5.532   5.774   9.309
24446SOL     OW75169   2.879  13.348  10.785
24446SOL    HW175170   2.935  13.278  10.818
24446SOL    HW275171   2.924  13.428  10.812
24447SOL     OW75172  10.131  13.259   1.175
24447SOL    HW175173  10.068  13.190   1.195
24447SOL    HW275174  10.132  13.313   1.254
24448SOL     OW75175   8.411  14.270  10.685
24448SOL    HW175176   8.344  14.306  10.743
24448SOL    HW275177   8.413  14.331  10.611
24449SOL     OW75178   3.733   8.888  13.520
24449SOL    HW175179   3.757   8.965  13.570
24449SOL    HW275180   3.797   8.821  13.546
24450SOL     OW75181   1.885   5.021   4.248
24450SOL    HW175182   1.885   5.108   4.288
24450SOL    HW275183   1.949   4.972   4.300
24451SOL     OW75184   9.937   9.696   7.357
24451SOL    HW175185   9.860   9.753   7.357
24451SOL    HW275186   9.975   9.707   7.444
24452SOL     OW75187  13.921  10.039   6.332
24452SOL    HW175188  13.923   9.944   6.324
24452SOL    HW275189  13.829  10.059   6.350
24453SOL     OW75190   4.334  10.612  14.579
24453SOL    HW175191   4.247  10.573  14.575
24453SOL    HW275192   4.342  10.663  14.499
24454SOL     OW75193   7.349   3.135   8.722
24454SOL    HW175194   7.277   3.182   8.764
24454SOL    HW275195   7.334   3.149   8.628
24455SOL     OW75196   1.447  13.149  12.150
24455SOL    HW175197   1.497  13.110  12.221
24455SOL    HW275198   1.436  13.077  12.087
24456SOL     OW75199  10.581   4.843  12.815
24456SOL    HW175200  10.492   4.853  12.849
24456SOL    HW275201  10.596   4.923  12.764
24457SOL     OW75202  12.280  12.243   7.289
24457SOL    HW175203  12.224  12.228   7.365
24457SOL    HW275204  12.232  12.204   7.216
24458SOL     OW75205   5.902   5.642  10.761
24458SOL    HW175206   5.822   5.647  10.709
24458SOL    HW275207   5.957   5.579  10.715
24459SOL     OW75208  12.573  11.201   1.277
24459SOL    HW175209  12.498  11.200   1.218
24459SOL    HW275210  12.642  11.154   1.230
24460SOL     OW75211  13.927   7.100  12.995
24460SOL    HW175212  13.983   7.177  12.999
24460SOL    HW275213  13.978   7.036  12.945
24461SOL     OW75214   6.458  14.352  10.910
24461SOL    HW175215   6.394  14.402  10.961
24461SOL    HW275216   6.442  14.378  10.819
24462SOL     OW75217   9.563   8.188  11.047
24462SOL    HW175218   9.507   8.185  11.124
24462SOL    HW275219   9.587   8.280  11.038
24463SOL     OW75220   6.354  14.642   0.446
24463SOL    HW175221   6.376  14.692   0.368
24463SOL    HW275222   6.370  14.551   0.422
24464SOL     OW75223   5.877   3.635   2.841
24464SOL    HW175224   5.830   3.684   2.773
24464SOL    HW275225   5.889   3.548   2.803
24465SOL     OW75226   1.917  10.957   9.406
24465SOL    HW175227   1.830  10.976   9.369
24465SOL    HW275228   1.967  11.037   9.390
24466SOL     OW75229   6.173  12.935   0.810
24466SOL    HW175230   6.249  12.935   0.868
24466SOL    HW275231   6.207  12.966   0.726
24467SOL     OW75232   7.375   0.503   5.376
24467SOL    HW175233   7.342   0.547   5.454
24467SOL    HW275234   7.333   0.416   5.378
24468SOL     OW75235   9.608   2.848   7.229
24468SOL    HW175236   9.703   2.843   7.230
24468SOL    HW275237   9.583   2.805   7.147
24469SOL     OW75238  10.832  14.113   3.659
24469SOL    HW175239  10.752  14.165   3.650
24469SOL    HW275240  10.892  14.169   3.708
24470SOL     OW75241   8.906   2.776   4.020
24470SOL    HW175242   8.826   2.762   4.071
24470SOL    HW275243   8.977   2.759   4.082
24471SOL     OW75244   0.209   5.542   6.533
24471SOL    HW175245   0.176   5.455   6.553
24471SOL    HW275246   0.272   5.560   6.602
24472SOL     OW75247   2.610   2.884   5.294
24472SOL    HW175248   2.610   2.905   5.387
24472SOL    HW275249   2.684   2.825   5.282
24473SOL     OW75250  13.640   1.045   9.523
24473SOL    HW175251  13.681   0.973   9.570
24473SOL    HW275252  13.646   1.119   9.583
24474SOL     OW75253  11.141   6.978  12.811
24474SOL    HW175254  11.192   6.915  12.861
24474SOL    HW275255  11.205   7.031  12.765
24475SOL     OW75256   4.225   0.390   3.689
24475SOL    HW175257   4.237   0.300   3.719
24475SOL    HW275258   4.279   0.397   3.611
24476SOL     OW75259  14.761   8.815  14.533
24476SOL    HW175260  14.713   8.881  14.483
24476SOL    HW275261  14.735   8.732  14.493
24477SOL     OW75262   0.624   9.747   1.009
24477SOL    HW175263   0.662   9.751   1.097
24477SOL    HW275264   0.631   9.836   0.975
24478SOL     OW75265   3.916  13.996   7.181
24478SOL    HW175266   3.859  13.945   7.124
24478SOL    HW275267   3.941  14.072   7.129
24479SOL     OW75268  10.393   7.676   0.343
24479SOL    HW175269  10.399   7.771   0.335
24479SOL    HW275270  10.480   7.650   0.374
24480SOL     OW75271   4.046   4.159  11.188
24480SOL    HW175272   4.025   4.118  11.272
24480SOL    HW275273   4.032   4.090  11.123
24481SOL     OW75274   3.702   4.923   5.738
24481SOL    HW175275   3.770   4.930   5.806
24481SOL    HW275276   3.679   4.830   5.738
24482SOL     OW75277   7.298   4.800  13.480
24482SOL    HW175278   7.322   4.768  13.393
24482SOL    HW275279   7.311   4.725  13.538
24483SOL     OW75280   6.653  11.825  13.116
24483SOL    HW175281   6.740  11.855  13.088
24483SOL    HW275282   6.666  11.798  13.207
24484SOL     OW75283   9.507   1.359   6.581
24484SOL    HW175284   9.461   1.374   6.498
24484SOL    HW275285   9.460   1.411   6.645
24485SOL     OW75286   9.277   8.256   7.071
24485SOL    HW175287   9.285   8.346   7.102
24485SOL    HW275288   9.340   8.249   6.999
24486SOL     OW75289  13.272  13.141   0.291
24486SOL    HW175290  13.351  13.087   0.280
24486SOL    HW275291  13.206  13.098   0.236
24487SOL     OW75292   6.493   7.727   0.524
24487SOL    HW175293   6.451   7.658   0.574
24487SOL    HW275294   6.574   7.688   0.492
24488SOL     OW75295   5.423   9.805   3.431
24488SOL    HW175296   5.364   9.825   3.358
24488SOL    HW275297   5.451   9.891   3.463
24489SOL     OW75298  10.196   3.806  10.092
24489SOL    HW175299  10.166   3.767  10.011
24489SOL    HW275300  10.173   3.742  10.160
24490SOL     OW75301   1.621   0.876   9.165
24490SOL    HW175302   1.652   0.816   9.097
24490SOL    HW275303   1.698   0.890   9.220
24491SOL     OW75304  12.855  13.085   6.988
24491SOL    HW175305  12.869  13.056   6.898
24491SOL    HW275306  12.765  13.119   6.988
24492SOL     OW75307   1.104  13.031   4.365
24492SOL    HW175308   1.012  13.036   4.390
24492SOL    HW275309   1.122  12.937   4.358
24493SOL     OW75310   5.788   0.307  12.650
24493SOL    HW175311   5.787   0.349  12.564
24493SOL    HW275312   5.809   0.379  12.711
24494SOL     OW75313   9.987  10.117   5.223
24494SOL    HW175314  10.016  10.167   5.299
24494SOL    HW275315   9.911  10.166   5.190
24495SOL     OW75316  11.345   5.775   4.192
24495SOL    HW175317  11.251   5.760   4.198
24495SOL    HW275318  11.382   5.734   4.270
24496SOL     OW75319   3.299   9.432   0.100
24496SOL    HW175320   3.259   9.389   0.175
24496SOL    HW275321   3.386   9.457   0.130
24497SOL     OW75322   4.575  14.429   8.266
24497SOL    HW175323   4.516  14.396   8.199
24497SOL    HW275324   4.590  14.354   8.324
24498SOL     OW75325   2.522   1.047   5.199
24498SOL    HW175326   2.539   1.122   5.257
24498SOL    HW275327   2.523   0.971   5.257
24499SOL     OW75328   3.171   0.811  13.242
24499SOL    HW175329   3.156   0.721  13.213
24499SOL    HW275330   3.092   0.834  13.291
24500SOL     OW75331  13.021  13.609   1.512
24500SOL    HW175332  12.982  13.694   1.491
24500SOL    HW275333  13.103  13.630   1.555
24501SOL     OW75334   5.842  10.580  10.996
24501SOL    HW175335   5.868  10.627  10.917
24501SOL    HW275336   5.918  10.525  11.017
24502SOL     OW75337  11.946  11.225   2.230
24502SOL    HW175338  11.872  11.232   2.170
24502SOL    HW275339  11.984  11.139   2.211
24503SOL     OW75340   3.407   4.441  13.624
24503SOL    HW175341   3.340   4.502  13.590
24503SOL    HW275342   3.490   4.476  13.591
24504SOL     OW75343  13.713   3.574   6.333
24504SOL    HW175344  13.778   3.504   6.343
24504SOL    HW275345  13.764   3.648   6.297
24505SOL     OW75346  11.170  11.547   1.819
24505SOL    HW175347  11.142  11.465   1.777
24505SOL    HW275348  11.099  11.608   1.802
24506SOL     OW75349   9.382   1.722   0.325
24506SOL    HW175350   9.437   1.776   0.269
24506SOL    HW275351   9.354   1.650   0.267
24507SOL     OW75352   2.121  10.418   8.941
24507SOL    HW175353   2.159  10.340   8.983
24507SOL    HW275354   2.195  10.475   8.925
24508SOL     OW75355   1.789   0.789   0.538
24508SOL    HW175356   1.808   0.695   0.542
24508SOL    HW275357   1.835   0.819   0.460
24509SOL     OW75358  11.174  11.353   2.406
24509SOL    HW175359  11.137  11.374   2.492
24509SOL    HW275360  11.099  11.320   2.355
24510SOL     OW75361   1.398  12.417  14.575
24510SOL    HW175362   1.380  12.340  14.630
24510SOL    HW275363   1.331  12.414  14.507
24511SOL     OW75364  11.667   9.294   5.833
24511SOL    HW175365  11.581   9.265   5.862
24511SOL    HW275366  11.649   9.368   5.775
24512SOL     OW75367   1.901   0.853   6.645
24512SOL    HW175368   1.844   0.923   6.676
24512SOL    HW275369   1.847   0.774   6.650
24513SOL     OW75370   5.446   9.107   5.354
24513SOL    HW175371   5.441   9.202   5.346
24513SOL    HW275372   5.512   9.081   5.290
24514SOL     OW75373   9.908   2.971   2.823
24514SOL    HW175374   9.936   2.888   2.785
24514SOL    HW275375   9.943   2.970   2.912
24515SOL     OW75376   4.131   2.209   5.069
24515SOL    HW175377   4.176   2.293   5.080
24515SOL    HW275378   4.108   2.182   5.158
24516SOL     OW75379   4.465   6.917  11.098
24516SOL    HW175380   4.435   6.882  11.014
24516SOL    HW275381   4.560   6.925  11.088
24517SOL     OW75382   9.289  10.332  10.387
24517SOL    HW175383   9.286  10.267  10.457
24517SOL    HW275384   9.221  10.395  10.410
24518SOL     OW75385   9.636  14.067   6.686
24518SOL    HW175386   9.683  14.012   6.750
24518SOL    HW275387   9.675  14.154   6.696
24519SOL     OW75388  10.042   9.960  11.548
24519SOL    HW175389   9.978  10.006  11.494
24519SOL    HW275390   9.993   9.889  11.589
24520SOL     OW75391  12.326   4.461   0.656
24520SOL    HW175392  12.283   4.508   0.728
24520SOL    HW275393  12.415   4.495   0.656
24521SOL     OW75394   7.309   9.938  11.709
24521SOL    HW175395   7.334   9.936  11.617
24521SOL    HW275396   7.250   9.863  11.720
24522SOL     OW75397   2.796   6.085   4.963
24522SOL    HW175398   2.752   6.044   4.888
24522SOL    HW275399   2.735   6.074   5.035
24523SOL     OW75400   8.073   3.580   8.254
24523SOL    HW175401   8.061   3.655   8.196
24523SOL    HW275402   8.114   3.617   8.332
24524SOL     OW75403   5.610   8.832   1.405
24524SOL    HW175404   5.559   8.905   1.439
24524SOL    HW275405   5.700   8.865   1.398
24525SOL     OW75406   3.464   6.019   3.047
24525SOL    HW175407   3.434   5.933   3.076
24525SOL    HW275408   3.528   6.001   2.978
24526SOL     OW75409  10.205  14.763  10.882
24526SOL    HW175410  10.205  14.859  10.882
24526SOL    HW275411  10.122  14.739  10.922
24527SOL     OW75412  13.474   1.316   9.272
24527SOL    HW175413  13.478   1.377   9.346
24527SOL    HW275414  13.399   1.260   9.291
24528SOL     OW75415   4.425  11.204   7.960
24528SOL    HW175416   4.514  11.199   7.925
24528SOL    HW275417   4.381  11.269   7.904
24529SOL     OW75418   7.377   3.258  14.176
24529SOL    HW175419   7.429   3.325  14.220
24529SOL    HW275420   7.344   3.203  14.247
24530SOL     OW75421  11.713  13.560   7.825
24530SOL    HW175422  11.686  13.529   7.739
24530SOL    HW275423  11.688  13.489   7.885
24531SOL     OW75424   2.488   3.773   6.927
24531SOL    HW175425   2.533   3.831   6.865
24531SOL    HW275426   2.487   3.822   7.009
24532SOL     OW75427  12.817   1.039  12.437
24532SOL    HW175428  12.780   0.982  12.369
24532SOL    HW275429  12.827   1.124  12.394
24533SOL     OW75430  10.469   8.701   5.239
24533SOL    HW175431  10.415   8.760   5.290
24533SOL    HW275432  10.518   8.650   5.304
24534SOL     OW75433   0.736  12.122  11.297
24534SOL    HW175434   0.652  12.076  11.300
24534SOL    HW275435   0.721  12.196  11.238
24535SOL     OW75436   6.890   4.876   5.453
24535SOL    HW175437   6.903   4.963   5.415
24535SOL    HW275438   6.796   4.861   5.449
24536SOL     OW75439  13.789   5.571  13.446
24536SOL    HW175440  13.853   5.639  13.467
24536SOL    HW275441  13.830   5.490  13.477
24537SOL     OW75442   1.287   2.626   7.033
24537SOL    HW175443   1.343   2.683   6.980
24537SOL    HW275444   1.220   2.595   6.972
24538SOL     OW75445  13.884  14.181  14.223
24538SOL    HW175446  13.945  14.139  14.162
24538SOL    HW275447  13.817  14.220  14.167
24539SOL     OW75448  12.281   1.124   7.150
24539SOL    HW175449  12.310   1.081   7.069
24539SOL    HW275450  12.310   1.215   7.140
24540SOL     OW75451   2.382   8.702  14.558
24540SOL    HW175452   2.349   8.761  14.626
24540SOL    HW275453   2.404   8.759  14.485
24541SOL     OW75454  10.156  10.585   3.888
24541SOL    HW175455  10.134  10.524   3.817
24541SOL    HW275456  10.073  10.598   3.934
24542SOL     OW75457   9.416  13.672   7.354
24542SOL    HW175458   9.415  13.642   7.446
24542SOL    HW275459   9.446  13.595   7.305
24543SOL     OW75460  10.400   8.427   1.611
24543SOL    HW175461  10.333   8.397   1.673
24543SOL    HW275462  10.397   8.362   1.541
24544SOL     OW75463  11.946   9.038   3.090
24544SOL    HW175464  11.886   8.965   3.100
24544SOL    HW275465  11.967   9.064   3.180
24545SOL     OW75466  14.578  10.282   3.387
24545SOL    HW175467  14.511  10.305   3.323
24545SOL    HW275468  14.531  10.227   3.450
24546SOL     OW75469   7.149  13.733   1.445
24546SOL    HW175470   7.098  13.724   1.365
24546SOL    HW275471   7.173  13.826   1.448
24547SOL     OW75472   4.490  12.468  13.727
24547SOL    HW175473   4.499  12.379  13.692
24547SOL    HW275474   4.492  12.525  13.650
24548SOL     OW75475   1.273   3.076  12.035
24548SOL    HW175476   1.223   3.149  11.997
24548SOL    HW275477   1.228   3.057  12.117
24549SOL     OW75478   0.674  11.670   4.960
24549SOL    HW175479   0.699  11.588   4.918
24549SOL    HW275480   0.717  11.738   4.909
24550SOL     OW75481  12.345   9.730   5.205
24550SOL    HW175482  12.260   9.713   5.247
24550SOL    HW275483  12.375   9.644   5.177
24551SOL     OW75484   0.222   7.783  13.172
24551SOL    HW175485   0.196   7.875  13.173
24551SOL    HW275486   0.178   7.746  13.095
24552SOL     OW75487   4.839   6.015   3.346
24552SOL    HW175488   4.827   5.986   3.437
24552SOL    HW275489   4.883   6.100   3.354
24553SOL     OW75490   0.698  14.448   6.078
24553SOL    HW175491   0.724  14.524   6.131
24553SOL    HW275492   0.780  14.412   6.045
24554SOL     OW75493   0.677  13.692   9.047
24554SOL    HW175494   0.743  13.750   9.009
24554SOL    HW275495   0.653  13.735   9.129
24555SOL     OW75496   0.712   0.055   6.821
24555SOL    HW175497   0.643   0.083   6.761
24555SOL    HW275498   0.671  14.870   6.875
24556SOL     OW75499   7.858   8.648  13.317
24556SOL    HW175500   7.771   8.665  13.280
24556SOL    HW275501   7.859   8.554  13.334
24557SOL     OW75502   1.749   4.963   9.703
24557SOL    HW175503   1.690   4.904   9.749
24557SOL    HW275504   1.796   5.009   9.773
24558SOL     OW75505  13.038   1.336   1.132
24558SOL    HW175506  13.033   1.257   1.186
24558SOL    HW275507  13.003   1.406   1.187
24559SOL     OW75508   5.346   7.162   1.284
24559SOL    HW175509   5.273   7.205   1.241
24559SOL    HW275510   5.406   7.139   1.212
24560SOL     OW75511   1.549   7.197   9.148
24560SOL    HW175512   1.493   7.190   9.071
24560SOL    HW275513   1.567   7.106   9.173
24561SOL     OW75514   7.467   5.924   6.844
24561SOL    HW175515   7.473   6.014   6.812
24561SOL    HW275516   7.403   5.929   6.916
24562SOL     OW75517   4.851  12.945   2.161
24562SOL    HW175518   4.864  13.037   2.140
24562SOL    HW275519   4.925  12.900   2.121
24563SOL     OW75520   8.173   3.139   6.534
24563SOL    HW175521   8.266   3.164   6.539
24563SOL    HW275522   8.126   3.220   6.550
24564SOL     OW75523   8.742   3.671  14.618
24564SOL    HW175524   8.687   3.598  14.592
24564SOL    HW275525   8.795   3.690  14.541
24565SOL     OW75526   9.808   6.176   1.534
24565SOL    HW175527   9.901   6.192   1.516
24565SOL    HW275528   9.784   6.106   1.473
24566SOL     OW75529   9.727   6.888  14.089
24566SOL    HW175530   9.787   6.832  14.040
24566SOL    HW275531   9.644   6.840  14.086
24567SOL     OW75532   9.157  14.261   6.353
24567SOL    HW175533   9.123  14.274   6.265
24567SOL    HW275534   9.239  14.213   6.340
24568SOL     OW75535  14.622   3.225   2.228
24568SOL    HW175536  14.562   3.210   2.301
24568SOL    HW275537  14.662   3.310   2.247
24569SOL     OW75538   5.648  13.058  13.518
24569SOL    HW175539   5.600  13.056  13.435
24569SOL    HW275540   5.731  13.101  13.497
24570SOL     OW75541   6.260  10.154  14.487
24570SOL    HW175542   6.235  10.137  14.578
24570SOL    HW275543   6.227  10.242  14.470
24571SOL     OW75544   2.412  10.330   5.634
24571SOL    HW175545   2.360  10.271   5.689
24571SOL    HW275546   2.361  10.411   5.633
24572SOL     OW75547   1.717   4.666  12.509
24572SOL    HW175548   1.702   4.571  12.517
24572SOL    HW275549   1.637   4.706  12.543
24573SOL     OW75550   9.284  13.539   7.896
24573SOL    HW175551   9.251  13.471   7.954
24573SOL    HW275552   9.209  13.597   7.881
24574SOL     OW75553  13.592   5.200   8.820
24574SOL    HW175554  13.533   5.211   8.745
24574SOL    HW275555  13.658   5.269   8.808
24575SOL     OW75556   6.736  11.331  12.683
24575SOL    HW175557   6.645  11.328  12.654
24575SOL    HW275558   6.750  11.423  12.706
24576SOL     OW75559   5.011   4.196   6.692
24576SOL    HW175560   4.965   4.156   6.619
24576SOL    HW275561   5.093   4.227   6.653
24577SOL     OW75562   5.974   5.550  11.699
24577SOL    HW175563   5.893   5.533  11.652
24577SOL    HW275564   6.026   5.471  11.687
24578SOL     OW75565  10.616   3.846   4.934
24578SOL    HW175566  10.671   3.779   4.894
24578SOL    HW275567  10.535   3.845   4.883
24579SOL     OW75568  12.389   3.603  11.614
24579SOL    HW175569  12.449   3.675  11.636
24579SOL    HW275570  12.368   3.563  11.698
24580SOL     OW75571   0.799  12.258   2.947
24580SOL    HW175572   0.718  12.308   2.939
24580SOL    HW275573   0.776  12.171   2.913
24581SOL     OW75574  12.346  14.503  10.712
24581SOL    HW175575  12.357  14.451  10.791
24581SOL    HW275576  12.253  14.493  10.689
24582SOL     OW75577  14.839   4.432  10.521
24582SOL    HW175578  14.849   4.527  10.522
24582SOL    HW275579  14.787   4.413  10.599
24583SOL     OW75580  12.909   2.157   1.481
24583SOL    HW175581  12.922   2.063   1.488
24583SOL    HW275582  12.831   2.167   1.427
24584SOL     OW75583   3.938   6.292   3.488
24584SOL    HW175584   4.016   6.265   3.536
24584SOL    HW275585   3.969   6.306   3.398
24585SOL     OW75586   1.168  10.651   8.130
24585SOL    HW175587   1.214  10.616   8.206
24585SOL    HW275588   1.228  10.637   8.056
24586SOL     OW75589   6.999   5.056  12.328
24586SOL    HW175590   7.092   5.069  12.311
24586SOL    HW275591   6.980   4.969  12.292
24587SOL     OW75592  14.537  11.506   6.026
24587SOL    HW175593  14.607  11.441   6.032
24587SOL    HW275594  14.582  11.588   6.006
24588SOL     OW75595  12.096  10.285  10.556
24588SOL    HW175596  12.072  10.287  10.463
24588SOL    HW275597  12.054  10.206  10.590
24589SOL     OW75598   5.364   9.334  14.213
24589SOL    HW175599   5.284   9.307  14.168
24589SOL    HW275600   5.365   9.430  14.204
24590SOL     OW75601   5.401  13.688   2.549
24590SOL    HW175602   5.472  13.648   2.599
24590SOL    HW275603   5.340  13.617   2.532
24591SOL     OW75604  10.691  11.702   6.997
24591SOL    HW175605  10.747  11.764   6.951
24591SOL    HW275606  10.741  11.677   7.075
24592SOL     OW75607   3.207   7.952   7.758
24592SOL    HW175608   3.131   7.943   7.702
24592SOL    HW275609   3.263   7.878   7.737
24593SOL     OW75610  10.018   6.003  11.611
24593SOL    HW175611   9.977   5.990  11.525
24593SOL    HW275612  10.109   6.025  11.591
24594SOL     OW75613  11.542  10.263   3.366
24594SOL    HW175614  11.558  10.233   3.456
24594SOL    HW275615  11.473  10.205   3.333
24595SOL     OW75616   4.083   3.171   7.955
24595SOL    HW175617   4.027   3.236   7.998
24595SOL    HW275618   4.061   3.088   7.998
24596SOL     OW75619   2.878  12.050   6.315
24596SOL    HW175620   2.842  12.131   6.352
24596SOL    HW275621   2.956  12.032   6.369
24597SOL     OW75622  12.578   2.744   4.417
24597SOL    HW175623  12.648   2.727   4.354
24597SOL    HW275624  12.553   2.657   4.449
24598SOL     OW75625  14.005   3.713   0.590
24598SOL    HW175626  13.969   3.795   0.625
24598SOL    HW275627  14.036   3.736   0.502
24599SOL     OW75628  11.784   2.156   9.464
24599SOL    HW175629  11.776   2.250   9.484
24599SOL    HW275630  11.760   2.112   9.546
24600SOL     OW75631   0.657   2.646   5.470
24600SOL    HW175632   0.627   2.620   5.384
24600SOL    HW275633   0.738   2.596   5.483
24601SOL     OW75634  12.016  12.397   0.852
24601SOL    HW175635  11.990  12.487   0.874
24601SOL    HW275636  12.109  12.394   0.871
24602SOL     OW75637   6.879  14.374   6.673
24602SOL    HW175638   6.925  14.355   6.755
24602SOL    HW275639   6.925  14.323   6.607
24603SOL     OW75640   7.356   0.117   3.131
24603SOL    HW175641   7.299   0.193   3.124
24603SOL    HW275642   7.351   0.091   3.223
24604SOL     OW75643  11.545   4.112  14.772
24604SOL    HW175644  11.556   4.034  14.827
24604SOL    HW275645  11.451   4.129  14.774
24605SOL     OW75646   9.708   1.682  14.083
24605SOL    HW175647   9.795   1.687  14.043
24605SOL    HW275648   9.701   1.591  14.113
24606SOL     OW75649   3.469  12.739  10.663
24606SOL    HW175650   3.466  12.754  10.568
24606SOL    HW275651   3.560  12.717  10.681
24607SOL     OW75652   8.966   3.855   3.587
24607SOL    HW175653   9.062   3.848   3.593
24607SOL    HW275654   8.934   3.776   3.632
24608SOL     OW75655  10.074   1.019   4.052
24608SOL    HW175656  10.118   0.994   4.133
24608SOL    HW275657  10.047   0.936   4.013
24609SOL     OW75658   0.224   3.546   6.611
24609SOL    HW175659   0.200   3.461   6.575
24609SOL    HW275660   0.141   3.594   6.615
24610SOL     OW75661   4.555   9.133   5.373
24610SOL    HW175662   4.597   9.207   5.416
24610SOL    HW275663   4.515   9.083   5.444
24611SOL     OW75664   0.555   1.662   4.463
24611SOL    HW175665   0.486   1.602   4.490
24611SOL    HW275666   0.564   1.647   4.369
24612SOL     OW75667   2.164   1.343   6.367
24612SOL    HW175668   2.165   1.397   6.446
24612SOL    HW275669   2.080   1.361   6.326
24613SOL     OW75670   6.429  11.979   9.592
24613SOL    HW175671   6.406  11.899   9.639
24613SOL    HW275672   6.524  11.987   9.602
24614SOL     OW75673  14.289  12.932   2.469
24614SOL    HW175674  14.363  12.873   2.457
24614SOL    HW275675  14.327  13.015   2.496
24615SOL     OW75676  13.309   0.326   3.175
24615SOL    HW175677  13.258   0.322   3.256
24615SOL    HW275678  13.368   0.251   3.181
24616SOL     OW75679  11.717   8.063   4.800
24616SOL    HW175680  11.763   8.090   4.720
24616SOL    HW275681  11.767   8.103   4.871
24617SOL     OW75682   2.767   0.649   3.498
24617SOL    HW175683   2.679   0.645   3.537
24617SOL    HW275684   2.779   0.742   3.476
24618SOL     OW75685   7.142   2.700   6.964
24618SOL    HW175686   7.126   2.706   7.058
24618SOL    HW275687   7.079   2.634   6.933
24619SOL     OW75688   2.361   0.976  10.205
24619SOL    HW175689   2.362   0.903  10.142
24619SOL    HW275690   2.268   0.994  10.219
24620SOL     OW75691  11.087  14.460  13.660
24620SOL    HW175692  11.180  14.438  13.655
24620SOL    HW275693  11.086  14.556  13.664
24621SOL     OW75694  10.048   6.279  10.006
24621SOL    HW175695  10.078   6.241   9.924
24621SOL    HW275696   9.952   6.273  10.001
24622SOL     OW75697  11.044   5.661   0.471
24622SOL    HW175698  11.134   5.684   0.493
24622SOL    HW275699  10.998   5.663   0.555
24623SOL     OW75700  12.100   3.304   8.117
24623SOL    HW175701  12.156   3.280   8.191
24623SOL    HW275702  12.099   3.400   8.118
24624SOL     OW75703  14.744   1.426   5.097
24624SOL    HW175704  14.827   1.401   5.137
24624SOL    HW275705  14.763   1.508   5.051
24625SOL     OW75706   0.352   6.307   5.186
24625SOL    HW175707   0.432   6.265   5.156
24625SOL    HW275708   0.353   6.296   5.281
24626SOL     OW75709   9.097   6.709  12.680
24626SOL    HW175710   9.125   6.797  12.706
24626SOL    HW275711   9.016   6.695  12.728
24627SOL     OW75712   3.111  10.365  11.176
24627SOL    HW175713   3.130  10.455  11.202
24627SOL    HW275714   3.025  10.347  11.212
24628SOL     OW75715   0.777  12.830   2.710
24628SOL    HW175716   0.855  12.828   2.766
24628SOL    HW275717   0.752  12.739   2.701
24629SOL     OW75718  12.464   0.946   8.377
24629SOL    HW175719  12.506   0.860   8.372
24629SOL    HW275720  12.387   0.939   8.322
24630SOL     OW75721   4.572  14.038   1.240
24630SOL    HW175722   4.566  14.059   1.333
24630SOL    HW275723   4.494  13.985   1.222
24631SOL     OW75724  12.413   0.518   5.034
24631SOL    HW175725  12.503   0.487   5.025
24631SOL    HW275726  12.398   0.519   5.129
24632SOL     OW75727   1.626   5.964   0.269
24632SOL    HW175728   1.574   5.921   0.201
24632SOL    HW275729   1.645   6.050   0.233
24633SOL     OW75730   0.144  11.775   2.400
24633SOL    HW175731   0.083  11.827   2.453
24633SOL    HW275732   0.207  11.839   2.366
24634SOL     OW75733   9.149   1.205   6.233
24634SOL    HW175734   9.224   1.256   6.264
24634SOL    HW275735   9.180   1.114   6.236
24635SOL     OW75736   9.788  13.063  14.445
24635SOL    HW175737   9.820  13.121  14.514
24635SOL    HW275738   9.726  13.005  14.490
24636SOL     OW75739  10.019   4.686   6.289
24636SOL    HW175740  10.007   4.591   6.278
24636SOL    HW275741  10.093   4.708   6.232
24637SOL     OW75742   6.945  12.491   3.654
24637SOL    HW175743   6.936  12.545   3.732
24637SOL    HW275744   6.941  12.401   3.685
24638SOL     OW75745  10.723   2.011   1.551
24638SOL    HW175746  10.734   2.057   1.468
24638SOL    HW275747  10.788   1.941   1.549
24639SOL     OW75748  13.930   7.904   0.874
24639SOL    HW175749  13.852   7.877   0.825
24639SOL    HW275750  13.938   7.839   0.944
24640SOL     OW75751   2.725   3.226   9.714
24640SOL    HW175752   2.755   3.188   9.797
24640SOL    HW275753   2.748   3.319   9.721
24641SOL     OW75754   8.895  12.497   8.990
24641SOL    HW175755   8.937  12.427   9.041
24641SOL    HW275756   8.955  12.513   8.917
24642SOL     OW75757   7.058   5.515   7.934
24642SOL    HW175758   7.007   5.473   7.865
24642SOL    HW275759   7.144   5.530   7.895
24643SOL     OW75760   0.667   6.521   3.529
24643SOL    HW175761   0.651   6.466   3.452
24643SOL    HW275762   0.623   6.604   3.509
24644SOL     OW75763   4.937   8.943   0.517
24644SOL    HW175764   4.981   9.024   0.492
24644SOL    HW275765   4.876   8.969   0.585
24645SOL     OW75766  13.050   1.530   3.101
24645SOL    HW175767  13.074   1.510   3.011
24645SOL    HW275768  12.961   1.565   3.095
24646SOL     OW75769  10.189  10.001   7.434
24646SOL    HW175770  10.164   9.980   7.344
24646SOL    HW275771  10.116  10.054   7.468
24647SOL     OW75772  10.302   6.477   6.165
24647SOL    HW175773  10.207   6.473   6.179
24647SOL    HW275774  10.339   6.421   6.234
24648SOL     OW75775  14.534  11.119   8.925
24648SOL    HW175776  14.574  11.143   9.009
24648SOL    HW275777  14.441  11.108   8.945
24649SOL     OW75778   7.305  14.169   9.143
24649SOL    HW175779   7.272  14.079   9.150
24649SOL    HW275780   7.393  14.160   9.108
24650SOL     OW75781  10.040   8.972   9.945
24650SOL    HW175782  10.113   8.979  10.006
24650SOL    HW275783  10.065   9.028   9.871
24651SOL     OW75784   9.819  13.953  11.574
24651SOL    HW175785   9.785  13.954  11.485
24651SOL    HW275786   9.755  14.002  11.625
24652SOL     OW75787   3.891  13.511  11.177
24652SOL    HW175788   3.956  13.530  11.110
24652SOL    HW275789   3.942  13.485  11.254
24653SOL     OW75790   6.601   7.930  10.801
24653SOL    HW175791   6.581   7.935  10.895
24653SOL    HW275792   6.518   7.950  10.757
24654SOL     OW75793  10.361   4.070   2.513
24654SOL    HW175794  10.280   4.048   2.559
24654SOL    HW275795  10.375   3.997   2.453
24655SOL     OW75796   5.704  13.467   4.294
24655SOL    HW175797   5.698  13.443   4.202
24655SOL    HW275798   5.619  13.441   4.331
24656SOL     OW75799   0.819   3.396  13.624
24656SOL    HW175800   0.810   3.455  13.549
24656SOL    HW275801   0.893   3.431  13.673
24657SOL     OW75802   8.732   4.227  14.152
24657SOL    HW175803   8.776   4.276  14.083
24657SOL    HW275804   8.710   4.143  14.112
24658SOL     OW75805  10.497   7.764   5.373
24658SOL    HW175806  10.497   7.860   5.369
24658SOL    HW275807  10.575   7.742   5.424
24659SOL     OW75808   5.407   8.650   5.391
24659SOL    HW175809   5.411   8.615   5.480
24659SOL    HW275810   5.329   8.610   5.353
24660SOL     OW75811   1.680  10.382   9.631
24660SOL    HW175812   1.675  10.362   9.538
24660SOL    HW275813   1.727  10.308   9.670
24661SOL     OW75814   5.191   1.555   3.326
24661SOL    HW175815   5.100   1.584   3.316
24661SOL    HW275816   5.208   1.505   3.246
24662SOL     OW75817  10.214   7.472  12.506
24662SOL    HW175818  10.258   7.501  12.426
24662SOL    HW275819  10.280   7.419  12.551
24663SOL     OW75820   9.147  12.407   4.956
24663SOL    HW175821   9.055  12.390   4.938
24663SOL    HW275822   9.160  12.498   4.929
24664SOL     OW75823  10.324  10.448   2.567
24664SOL    HW175824  10.355  10.455   2.476
24664SOL    HW275825  10.358  10.364   2.597
24665SOL     OW75826  11.563  11.418  12.006
24665SOL    HW175827  11.503  11.440  11.935
24665SOL    HW275828  11.546  11.325  12.023
24666SOL     OW75829   1.930   8.505  14.753
24666SOL    HW175830   1.909   8.512  14.660
24666SOL    HW275831   2.016   8.463  14.755
24667SOL     OW75832  11.087   7.344  13.783
24667SOL    HW175833  11.001   7.385  13.776
24667SOL    HW275834  11.098   7.297  13.701
24668SOL     OW75835  14.272   5.967   1.883
24668SOL    HW175836  14.245   5.922   1.963
24668SOL    HW275837  14.249   6.059   1.898
24669SOL     OW75838   9.671   0.748   3.822
24669SOL    HW175839   9.752   0.706   3.793
24669SOL    HW275840   9.688   0.842   3.815
24670SOL     OW75841   5.944   1.545  14.584
24670SOL    HW175842   5.935   1.457  14.622
24670SOL    HW275843   5.863   1.559  14.536
24671SOL     OW75844   5.328   5.639  12.942
24671SOL    HW175845   5.354   5.729  12.924
24671SOL    HW275846   5.384   5.613  13.015
24672SOL     OW75847   5.341   3.364   8.163
24672SOL    HW175848   5.322   3.289   8.219
24672SOL    HW275849   5.303   3.439   8.208
24673SOL     OW75850   8.353   5.635  13.905
24673SOL    HW175851   8.383   5.586  13.982
24673SOL    HW275852   8.330   5.722  13.939
24674SOL     OW75853   6.896   5.903  10.476
24674SOL    HW175854   6.900   5.998  10.484
24674SOL    HW275855   6.860   5.887  10.389
24675SOL     OW75856   5.671   1.748   7.478
24675SOL    HW175857   5.582   1.714   7.470
24675SOL    HW275858   5.665   1.839   7.450
24676SOL     OW75859   9.586   0.660   8.734
24676SOL    HW175860   9.639   0.734   8.705
24676SOL    HW275861   9.649   0.601   8.776
24677SOL     OW75862   3.629   8.857  12.257
24677SOL    HW175863   3.612   8.875  12.350
24677SOL    HW275864   3.543   8.843  12.219
24678SOL     OW75865  10.020   2.748   3.802
24678SOL    HW175866   9.926   2.763   3.791
24678SOL    HW275867  10.032   2.746   3.897
24679SOL     OW75868   2.444   4.478  13.801
24679SOL    HW175869   2.489   4.411  13.750
24679SOL    HW275870   2.383   4.430  13.857
24680SOL     OW75871  13.514   5.503  13.899
24680SOL    HW175872  13.493   5.413  13.926
24680SOL    HW275873  13.506   5.501  13.804
24681SOL     OW75874   3.092   6.884   9.003
24681SOL    HW175875   3.157   6.955   9.003
24681SOL    HW275876   3.013   6.924   8.966
24682SOL     OW75877  11.243   3.399  11.928
24682SOL    HW175878  11.242   3.476  11.985
24682SOL    HW275879  11.305   3.421  11.859
24683SOL     OW75880  11.920   4.575   0.399
24683SOL    HW175881  11.917   4.511   0.470
24683SOL    HW275882  11.839   4.625   0.408
24684SOL     OW75883   2.567   1.521   3.201
24684SOL    HW175884   2.536   1.551   3.287
24684SOL    HW275885   2.593   1.600   3.155
24685SOL     OW75886   3.011   3.510  14.631
24685SOL    HW175887   3.096   3.467  14.636
24685SOL    HW275888   2.960   3.456  14.570
24686SOL     OW75889  11.813  12.447   9.226
24686SOL    HW175890  11.903  12.479   9.226
24686SOL    HW275891  11.807  12.392   9.149
24687SOL     OW75892  10.418   9.330   4.074
24687SOL    HW175893  10.343   9.389   4.065
24687SOL    HW275894  10.454   9.349   4.161
24688SOL     OW75895   4.441  11.601   5.237
24688SOL    HW175896   4.506  11.531   5.245
24688SOL    HW275897   4.376  11.582   5.304
24689SOL     OW75898   4.544   8.115   7.269
24689SOL    HW175899   4.542   8.075   7.182
24689SOL    HW275900   4.520   8.207   7.253
24690SOL     OW75901   6.888  11.088   5.691
24690SOL    HW175902   6.934  11.024   5.746
24690SOL    HW275903   6.869  11.160   5.751
24691SOL     OW75904   3.260   3.848  12.774
24691SOL    HW175905   3.186   3.830  12.832
24691SOL    HW275906   3.250   3.785  12.702
24692SOL     OW75907  13.186  11.864  13.881
24692SOL    HW175908  13.185  11.959  13.866
24692SOL    HW275909  13.265  11.833  13.837
24693SOL     OW75910   4.319  14.544  14.281
24693SOL    HW175911   4.321  14.505  14.194
24693SOL    HW275912   4.404  14.587  14.291
24694SOL     OW75913   2.388   8.681  11.348
24694SOL    HW175914   2.461   8.678  11.410
24694SOL    HW275915   2.406   8.611  11.287
24695SOL     OW75916   5.982   4.567   9.592
24695SOL    HW175917   5.901   4.610   9.565
24695SOL    HW275918   5.964   4.473   9.582
24696SOL     OW75919   4.456   0.948   9.205
24696SOL    HW175920   4.480   0.953   9.298
24696SOL    HW275921   4.456   1.039   9.176
24697SOL     OW75922  14.548   2.974   9.262
24697SOL    HW175923  14.547   2.898   9.203
24697SOL    HW275924  14.577   2.938   9.346
24698SOL     OW75925   2.743  12.755  12.702
24698SOL    HW175926   2.804  12.829  12.704
24698SOL    HW275927   2.699  12.757  12.787
24699SOL     OW75928  11.417   2.981   0.151
24699SOL    HW175929  11.454   3.006   0.235
24699SOL    HW275930  11.413   2.885   0.154
24700SOL     OW75931   0.886   6.040   9.290
24700SOL    HW175932   0.798   6.036   9.328
24700SOL    HW275933   0.893   5.959   9.239
24701SOL     OW75934   0.988  12.804   2.359
24701SOL    HW175935   0.904  12.815   2.314
24701SOL    HW275936   0.964  12.777   2.448
24702SOL     OW75937   1.947   7.212  11.630
24702SOL    HW175938   1.980   7.122  11.619
24702SOL    HW275939   2.026   7.265  11.636
24703SOL     OW75940   1.910   5.710   6.909
24703SOL    HW175941   1.901   5.615   6.913
24703SOL    HW275942   1.820   5.742   6.916
24704SOL     OW75943  13.614   0.062   8.961
24704SOL    HW175944  13.662  14.862   8.946
24704SOL    HW275945  13.645   0.122   8.894
24705SOL     OW75946   4.237   8.880   4.786
24705SOL    HW175947   4.289   8.955   4.758
24705SOL    HW275948   4.302   8.817   4.819
24706SOL     OW75949   0.575   1.592   5.337
24706SOL    HW175950   0.526   1.546   5.269
24706SOL    HW275951   0.524   1.577   5.417
24707SOL     OW75952   0.126  11.718  14.534
24707SOL    HW175953   0.117  11.812  14.548
24707SOL    HW275954   0.082  11.702  14.451
24708SOL     OW75955  13.835   8.662   2.715
24708SOL    HW175956  13.770   8.636   2.780
24708SOL    HW275957  13.790   8.652   2.631
24709SOL     OW75958   4.253   3.879   8.037
24709SOL    HW175959   4.344   3.895   8.010
24709SOL    HW275960   4.211   3.843   7.959
24710SOL     OW75961   7.453   8.732  13.451
24710SOL    HW175962   7.467   8.758  13.542
24710SOL    HW275963   7.368   8.770  13.429
24711SOL     OW75964  11.045   0.371   9.972
24711SOL    HW175965  11.041   0.425   9.893
24711SOL    HW275966  11.060   0.433  10.043
24712SOL     OW75967   4.288  14.684  10.051
24712SOL    HW175968   4.321  14.760  10.100
24712SOL    HW275969   4.366  14.648  10.008
24713SOL     OW75970   7.376   1.498  13.509
24713SOL    HW175971   7.433   1.447  13.566
24713SOL    HW275972   7.427   1.577  13.489
24714SOL     OW75973   0.945   0.369   3.625
24714SOL    HW175974   0.988   0.295   3.581
24714SOL    HW275975   1.014   0.434   3.636
24715SOL     OW75976   7.429   5.270   8.635
24715SOL    HW175977   7.396   5.355   8.606
24715SOL    HW275978   7.390   5.258   8.722
24716SOL     OW75979   8.262  11.817   0.461
24716SOL    HW175980   8.268  11.852   0.372
24716SOL    HW275981   8.313  11.737   0.458
24717SOL     OW75982  11.340   6.068  12.560
24717SOL    HW175983  11.298   6.019  12.630
24717SOL    HW275984  11.337   6.009  12.484
24718SOL     OW75985   8.035   2.419   1.850
24718SOL    HW175986   8.023   2.324   1.858
24718SOL    HW275987   8.037   2.435   1.756
24719SOL     OW75988   1.518   7.566  14.291
24719SOL    HW175989   1.571   7.571  14.211
24719SOL    HW275990   1.429   7.547  14.259
24720SOL     OW75991  12.475  13.862   8.685
24720SOL    HW175992  12.561  13.876   8.647
24720SOL    HW275993  12.416  13.916   8.632
24721SOL     OW75994   9.132  14.518   6.370
24721SOL    HW175995   9.219  14.539   6.334
24721SOL    HW275996   9.132  14.423   6.377
24722SOL     OW75997   2.221  12.458  14.834
24722SOL    HW175998   2.216  12.495  14.746
24722SOL    HW275999   2.222  12.364  14.820
24723SOL     OW76000  14.279   2.483  14.432
24723SOL    HW176001  14.227   2.560  14.413
24723SOL    HW276002  14.225   2.409  14.402
24724SOL     OW76003   2.709   0.314   0.804
24724SOL    HW176004   2.634   0.344   0.753
24724SOL    HW276005   2.682   0.230   0.841
24725SOL     OW76006   9.112   3.849  14.349
24725SOL    HW176007   9.125   3.919  14.285
24725SOL    HW276008   9.172   3.871  14.421
24726SOL     OW76009   6.291   2.422   3.152
24726SOL    HW176010   6.357   2.372   3.200
24726SOL    HW276011   6.341   2.484   3.099
24727SOL     OW76012   0.074  10.087  11.231
24727SOL    HW176013   0.019  10.165  11.227
24727SOL    HW276014   0.164  10.119  11.231
24728SOL     OW76015   3.713   7.113  13.527
24728SOL    HW176016   3.638   7.104  13.469
24728SOL    HW276017   3.752   7.026  13.530
24729SOL     OW76018   3.270   8.562  13.143
24729SOL    HW176019   3.249   8.526  13.057
24729SOL    HW276020   3.221   8.645  13.146
24730SOL     OW76021   4.339   3.135   5.364
24730SOL    HW176022   4.293   3.076   5.305
24730SOL    HW276023   4.363   3.080   5.439
24731SOL     OW76024   7.675   5.432   4.492
24731SOL    HW176025   7.639   5.347   4.465
24731SOL    HW276026   7.600   5.492   4.488
24732SOL     OW76027   8.943   5.920   7.161
24732SOL    HW176028   8.906   5.970   7.089
24732SOL    HW276029   8.962   5.985   7.229
24733SOL     OW76030   5.644   7.026  11.457
24733SOL    HW176031   5.549   7.016  11.464
24733SOL    HW276032   5.655   7.098  11.396
24734SOL     OW76033   0.843   4.409   9.110
24734SOL    HW176034   0.880   4.496   9.095
24734SOL    HW276035   0.749   4.422   9.107
24735SOL     OW76036   6.138   8.216   1.710
24735SOL    HW176037   6.115   8.279   1.779
24735SOL    HW276038   6.071   8.229   1.643
24736SOL     OW76039  11.576  14.360  11.097
24736SOL    HW176040  11.569  14.371  11.002
24736SOL    HW276041  11.668  14.377  11.117
24737SOL     OW76042   0.789   9.066   8.726
24737SOL    HW176043   0.883   9.064   8.744
24737SOL    HW276044   0.780   9.127   8.653
24738SOL     OW76045   4.878  13.957  11.529
24738SOL    HW176046   4.838  14.044  11.537
24738SOL    HW276047   4.963  13.974  11.488
24739SOL     OW76048   4.649   6.530   3.537
24739SOL    HW176049   4.686   6.618   3.528
24739SOL    HW276050   4.568   6.544   3.588
24740SOL     OW76051   2.721   1.972   8.618
24740SOL    HW176052   2.733   2.011   8.531
24740SOL    HW276053   2.632   1.997   8.643
24741SOL     OW76054   6.197   0.781   2.262
24741SOL    HW176055   6.168   0.860   2.216
24741SOL    HW276056   6.289   0.772   2.238
24742SOL     OW76057   6.901  12.484   5.341
24742SOL    HW176058   6.978  12.444   5.299
24742SOL    HW276059   6.894  12.570   5.300
24743SOL     OW76060  14.767   4.197  12.052
24743SOL    HW176061  14.710   4.129  12.015
24743SOL    HW276062  14.791   4.251  11.977
24744SOL     OW76063  13.310  14.252  13.038
24744SOL    HW176064  13.304  14.183  12.972
24744SOL    HW276065  13.219  14.275  13.057
24745SOL     OW76066   8.501   8.565   1.982
24745SOL    HW176067   8.507   8.659   2.000
24745SOL    HW276068   8.587   8.542   1.947
24746SOL     OW76069  12.824  10.867  13.315
24746SOL    HW176070  12.732  10.872  13.340
24746SOL    HW276071  12.856  10.957  13.319
24747SOL     OW76072   5.188   8.969   7.855
24747SOL    HW176073   5.150   8.928   7.778
24747SOL    HW276074   5.281   8.948   7.851
24748SOL     OW76075   2.967   5.598  12.636
24748SOL    HW176076   2.924   5.522  12.597
24748SOL    HW276077   3.008   5.564  12.715
24749SOL     OW76078   3.094   3.717  12.952
24749SOL    HW176079   3.000   3.719  12.934
24749SOL    HW276080   3.121   3.628  12.929
24750SOL     OW76081  14.635  12.587  13.907
24750SOL    HW176082  14.696  12.593  13.833
24750SOL    HW276083  14.582  12.509  13.889
24751SOL     OW76084   0.094   2.534   5.697
24751SOL    HW176085   0.086   2.482   5.617
24751SOL    HW276086   0.050   2.482   5.764
24752SOL     OW76087   9.163   7.653  11.416
24752SOL    HW176088   9.131   7.718  11.354
24752SOL    HW276089   9.256   7.671  11.425
24753SOL     OW76090   8.649   8.833  14.462
24753SOL    HW176091   8.706   8.882  14.403
24753SOL    HW276092   8.635   8.891  14.537
24754SOL     OW76093   9.306  11.333  13.429
24754SOL    HW176094   9.343  11.278  13.498
24754SOL    HW276095   9.230  11.373  13.470
24755SOL     OW76096  13.821   5.833   5.715
24755SOL    HW176097  13.769   5.827   5.795
24755SOL    HW276098  13.759   5.815   5.645
24756SOL     OW76099   7.128  11.213   8.931
24756SOL    HW176100   7.033  11.208   8.915
24756SOL    HW276101   7.155  11.122   8.941
24757SOL     OW76102   5.456  11.119  11.492
24757SOL    HW176103   5.550  11.139  11.488
24757SOL    HW276104   5.426  11.160  11.573
24758SOL     OW76105  11.563  12.041  11.804
24758SOL    HW176106  11.544  11.953  11.838
24758SOL    HW276107  11.606  12.086  11.877
24759SOL     OW76108   0.150  11.616   3.602
24759SOL    HW176109   0.217  11.600   3.536
24759SOL    HW276110   0.153  11.540   3.659
24760SOL     OW76111   0.902   2.114  10.934
24760SOL    HW176112   0.950   2.091  10.855
24760SOL    HW276113   0.812   2.131  10.905
24761SOL     OW76114  11.987   3.606   4.967
24761SOL    HW176115  11.931   3.543   4.921
24761SOL    HW276116  12.013   3.561   5.047
24762SOL     OW76117   8.860   1.042   1.304
24762SOL    HW176118   8.805   0.977   1.347
24762SOL    HW276119   8.875   1.109   1.370
24763SOL     OW76120  11.227   7.723  11.444
24763SOL    HW176121  11.141   7.761  11.424
24763SOL    HW276122  11.211   7.629  11.449
24764SOL     OW76123  12.894   8.541   0.744
24764SOL    HW176124  12.838   8.578   0.674
24764SOL    HW276125  12.847   8.562   0.825
24765SOL     OW76126   6.545   8.773   6.924
24765SOL    HW176127   6.564   8.781   6.831
24765SOL    HW276128   6.455   8.742   6.928
24766SOL     OW76129  11.296   1.277  12.280
24766SOL    HW176130  11.257   1.228  12.208
24766SOL    HW276131  11.243   1.253  12.356
24767SOL     OW76132   0.111   9.583   2.402
24767SOL    HW176133   0.134   9.630   2.322
24767SOL    HW276134   0.122   9.490   2.379
24768SOL     OW76135   9.504   7.988   4.294
24768SOL    HW176136   9.512   8.075   4.333
24768SOL    HW276137   9.412   7.980   4.271
24769SOL     OW76138  12.283  10.782  11.952
24769SOL    HW176139  12.334  10.704  11.931
24769SOL    HW276140  12.271  10.778  12.047
24770SOL     OW76141   0.284   1.273   9.663
24770SOL    HW176142   0.295   1.210   9.592
24770SOL    HW276143   0.277   1.358   9.619
24771SOL     OW76144   0.950  13.139   1.653
24771SOL    HW176145   0.921  13.224   1.620
24771SOL    HW276146   0.988  13.158   1.739
24772SOL     OW76147   1.840  13.147   2.616
24772SOL    HW176148   1.795  13.183   2.539
24772SOL    HW276149   1.860  13.057   2.591
24773SOL     OW76150   1.006  10.569   4.854
24773SOL    HW176151   0.998  10.474   4.859
24773SOL    HW276152   1.077  10.583   4.790
24774SOL     OW76153   5.741  12.110   1.766
24774SOL    HW176154   5.719  12.149   1.851
24774SOL    HW276155   5.812  12.049   1.785
24775SOL     OW76156   0.566   8.064  12.232
24775SOL    HW176157   0.541   7.973  12.222
24775SOL    HW276158   0.548   8.104  12.147
24776SOL     OW76159   9.039   4.133   9.844
24776SOL    HW176160   9.008   4.171   9.762
24776SOL    HW276161   9.119   4.182   9.864
24777SOL     OW76162  13.703  14.196  13.666
24777SOL    HW176163  13.738  14.253  13.597
24777SOL    HW276164  13.626  14.154  13.626
24778SOL     OW76165   4.864   6.221  14.299
24778SOL    HW176166   4.772   6.216  14.323
24778SOL    HW276167   4.904   6.274  14.369
24779SOL     OW76168   9.909  10.808   4.562
24779SOL    HW176169   9.815  10.792   4.564
24779SOL    HW276170   9.945  10.745   4.625
24780SOL     OW76171   6.842  14.080   9.545
24780SOL    HW176172   6.793  14.109   9.468
24780SOL    HW276173   6.785  14.015   9.587
24781SOL     OW76174   8.105   9.234  12.175
24781SOL    HW176175   8.132   9.203  12.262
24781SOL    HW276176   8.028   9.180  12.154
24782SOL     OW76177   9.423   7.816   4.595
24782SOL    HW176178   9.384   7.819   4.682
24782SOL    HW276179   9.506   7.770   4.607
24783SOL     OW76180   4.867  14.400   9.793
24783SOL    HW176181   4.845  14.330   9.854
24783SOL    HW276182   4.907  14.467   9.847
24784SOL     OW76183  13.712  13.875   4.240
24784SOL    HW176184  13.776  13.945   4.224
24784SOL    HW276185  13.666  13.866   4.156
24785SOL     OW76186   1.344   9.392   9.819
24785SOL    HW176187   1.266   9.448   9.818
24785SOL    HW276188   1.339   9.343   9.737
24786SOL     OW76189   2.401   7.707  12.020
24786SOL    HW176190   2.445   7.711  11.936
24786SOL    HW276191   2.309   7.726  12.000
24787SOL     OW76192   6.802   2.284   2.563
24787SOL    HW176193   6.706   2.282   2.560
24787SOL    HW276194   6.829   2.238   2.484
24788SOL     OW76195   7.139   2.160   1.428
24788SOL    HW176196   7.102   2.087   1.378
24788SOL    HW276197   7.221   2.181   1.383
24789SOL     OW76198   9.321   9.239   3.624
24789SOL    HW176199   9.309   9.334   3.631
24789SOL    HW276200   9.256   9.203   3.684
24790SOL     OW76201   1.980   4.763   2.470
24790SOL    HW176202   1.901   4.752   2.523
24790SOL    HW276203   1.956   4.827   2.403
24791SOL     OW76204   5.553  10.552  12.728
24791SOL    HW176205   5.532  10.464  12.760
24791SOL    HW276206   5.552  10.607  12.805
24792SOL     OW76207  10.331   7.540   7.835
24792SOL    HW176208  10.366   7.629   7.831
24792SOL    HW276209  10.343   7.506   7.746
24793SOL     OW76210   5.406  10.455  11.671
24793SOL    HW176211   5.454  10.381  11.633
24793SOL    HW276212   5.451  10.533  11.638
24794SOL     OW76213   8.922   8.992   6.250
24794SOL    HW176214   8.858   8.923   6.231
24794SOL    HW276215   8.871   9.061   6.292
24795SOL     OW76216  11.271   6.384  13.034
24795SOL    HW176217  11.192   6.415  12.990
24795SOL    HW276218  11.343   6.414  12.977
24796SOL     OW76219   8.337   0.568   7.818
24796SOL    HW176220   8.270   0.530   7.760
24796SOL    HW276221   8.419   0.553   7.772
24797SOL     OW76222   4.054   8.952   5.910
24797SOL    HW176223   3.981   9.005   5.879
24797SOL    HW276224   4.040   8.866   5.870
24798SOL     OW76225   4.398  12.961   5.438
24798SOL    HW176226   4.490  12.937   5.430
24798SOL    HW276227   4.357  12.886   5.481
24799SOL     OW76228   9.976  11.925   2.804
24799SOL    HW176229  10.012  11.843   2.772
24799SOL    HW276230   9.891  11.901   2.841
24800SOL     OW76231   0.845  13.049   7.677
24800SOL    HW176232   0.774  12.985   7.674
24800SOL    HW276233   0.873  13.048   7.769
24801SOL     OW76234   6.978  12.942  12.779
24801SOL    HW176235   7.062  12.909  12.809
24801SOL    HW276236   6.998  12.991  12.700
24802SOL     OW76237   0.081   3.629   5.467
24802SOL    HW176238   0.011   3.671   5.417
24802SOL    HW276239   0.045   3.545   5.493
24803SOL     OW76240   7.144  12.189  12.940
24803SOL    HW176241   7.215  12.125  12.952
24803SOL    HW276242   7.069  12.137  12.912
24804SOL     OW76243   1.054   7.570   1.150
24804SOL    HW176244   1.142   7.606   1.138
24804SOL    HW276245   1.062   7.515   1.228
24805SOL     OW76246  11.328   2.876  14.606
24805SOL    HW176247  11.327   2.953  14.662
24805SOL    HW276248  11.397   2.894  14.541
24806SOL     OW76249   5.628   0.411   9.874
24806SOL    HW176250   5.548   0.414   9.822
24806SOL    HW276251   5.657   0.502   9.880
24807SOL     OW76252   4.969   2.134  12.893
24807SOL    HW176253   5.007   2.171  12.973
24807SOL    HW276254   5.007   2.046  12.887
24808SOL     OW76255   3.719  14.489   3.383
24808SOL    HW176256   3.713  14.395   3.367
24808SOL    HW276257   3.765  14.497   3.467
24809SOL     OW76258   3.315   7.316  12.517
24809SOL    HW176259   3.264   7.352  12.444
24809SOL    HW276260   3.289   7.224  12.522
24810SOL     OW76261   6.414   9.657   3.044
24810SOL    HW176262   6.431   9.717   2.971
24810SOL    HW276263   6.327   9.621   3.025
24811SOL     OW76264  12.585  11.397  10.520
24811SOL    HW176265  12.564  11.458  10.590
24811SOL    HW276266  12.577  11.311  10.560
24812SOL     OW76267  13.942  12.356   7.125
24812SOL    HW176268  13.954  12.451   7.123
24812SOL    HW276269  13.927  12.333   7.034
24813SOL     OW76270   9.953   4.677   3.260
24813SOL    HW176271   9.955   4.773   3.253
24813SOL    HW276272  10.040   4.649   3.231
24814SOL     OW76273   4.243   3.803   9.316
24814SOL    HW176274   4.155   3.815   9.351
24814SOL    HW276275   4.301   3.841   9.382
24815SOL     OW76276  14.598   0.002   3.536
24815SOL    HW176277  14.548   0.078   3.565
24815SOL    HW276278  14.538  14.836   3.478
24816SOL     OW76279   2.766   7.746  12.637
24816SOL    HW176280   2.809   7.773  12.718
24816SOL    HW276281   2.836   7.707  12.585
24817SOL     OW76282   8.502   4.314   6.917
24817SOL    HW176283   8.438   4.318   6.846
24817SOL    HW276284   8.452   4.333   6.996
24818SOL     OW76285  14.587   6.752   4.278
24818SOL    HW176286  14.615   6.815   4.212
24818SOL    HW276287  14.668   6.722   4.319
24819SOL     OW76288   0.378   7.782   2.241
24819SOL    HW176289   0.294   7.738   2.256
24819SOL    HW276290   0.394   7.833   2.320
24820SOL     OW76291   6.870   1.558   3.054
24820SOL    HW176292   6.791   1.601   3.086
24820SOL    HW276293   6.875   1.583   2.962
24821SOL     OW76294   2.184   5.236   8.711
24821SOL    HW176295   2.145   5.322   8.724
24821SOL    HW276296   2.111   5.174   8.719
24822SOL     OW76297  12.499   2.216  11.922
24822SOL    HW176298  12.442   2.145  11.893
24822SOL    HW276299  12.563   2.172  11.979
24823SOL     OW76300  13.191   3.186   4.345
24823SOL    HW176301  13.117   3.238   4.312
24823SOL    HW276302  13.150   3.110   4.386
24824SOL     OW76303   4.669   2.791  12.011
24824SOL    HW176304   4.595   2.794  11.951
24824SOL    HW276305   4.643   2.730  12.080
24825SOL     OW76306   8.000  12.938   6.505
24825SOL    HW176307   7.955  12.906   6.583
24825SOL    HW276308   8.080  12.885   6.499
24826SOL     OW76309   8.959  12.984   0.575
24826SOL    HW176310   8.975  13.000   0.668
24826SOL    HW276311   9.027  12.923   0.549
24827SOL     OW76312   5.325   0.168  13.703
24827SOL    HW176313   5.326   0.143  13.796
24827SOL    HW276314   5.393   0.114  13.663
24828SOL     OW76315  11.660   6.491   0.762
24828SOL    HW176316  11.632   6.400   0.773
24828SOL    HW276317  11.636   6.533   0.845
24829SOL     OW76318  13.257  12.757  12.668
24829SOL    HW176319  13.300  12.694  12.726
24829SOL    HW276320  13.261  12.715  12.581
24830SOL     OW76321   1.942   5.113   3.190
24830SOL    HW176322   2.020   5.166   3.205
24830SOL    HW276323   1.975   5.023   3.181
24831SOL     OW76324   2.788   8.153  13.553
24831SOL    HW176325   2.812   8.237  13.515
24831SOL    HW276326   2.777   8.095  13.478
24832SOL     OW76327   6.596   0.851  11.345
24832SOL    HW176328   6.682   0.886  11.320
24832SOL    HW276329   6.546   0.852  11.263
24833SOL     OW76330   9.890  14.161   2.622
24833SOL    HW176331   9.890  14.169   2.717
24833SOL    HW276332   9.867  14.069   2.606
24834SOL     OW76333   6.280  12.982  13.287
24834SOL    HW176334   6.257  12.892  13.311
24834SOL    HW276335   6.375  12.982  13.285
24835SOL     OW76336   3.079  11.509  14.080
24835SOL    HW176337   3.164  11.503  14.038
24835SOL    HW276338   3.071  11.428  14.131
24836SOL     OW76339  12.717   6.940   3.673
24836SOL    HW176340  12.792   6.910   3.623
24836SOL    HW276341  12.723   7.036   3.670
24837SOL     OW76342   1.440   2.329  10.913
24837SOL    HW176343   1.469   2.257  10.969
24837SOL    HW276344   1.517   2.385  10.904
24838SOL     OW76345   4.191   1.864  12.522
24838SOL    HW176346   4.247   1.896  12.593
24838SOL    HW276347   4.122   1.931  12.515
24839SOL     OW76348   8.429   9.391  11.776
24839SOL    HW176349   8.515   9.393  11.819
24839SOL    HW276350   8.384   9.469  11.808
24840SOL     OW76351   9.129   8.214   8.438
24840SOL    HW176352   9.115   8.161   8.516
24840SOL    HW276353   9.067   8.180   8.374
24841SOL     OW76354   2.501   7.738  14.041
24841SOL    HW176355   2.586   7.729  13.998
24841SOL    HW276356   2.438   7.738  13.968
24842SOL     OW76357   2.108  13.997   8.167
24842SOL    HW176358   2.083  14.009   8.075
24842SOL    HW276359   2.113  13.903   8.179
24843SOL     OW76360   9.746  12.815   1.154
24843SOL    HW176361   9.816  12.773   1.103
24843SOL    HW276362   9.670  12.758   1.142
24844SOL     OW76363   0.862  13.843   2.966
24844SOL    HW176364   0.922  13.769   2.959
24844SOL    HW276365   0.920  13.919   2.976
24845SOL     OW76366  13.359   5.688  14.423
24845SOL    HW176367  13.421   5.616  14.433
24845SOL    HW276368  13.348   5.698  14.328
24846SOL     OW76369   1.150  10.870   7.504
24846SOL    HW176370   1.187  10.786   7.531
24846SOL    HW276371   1.224  10.917   7.465
24847SOL     OW76372   6.286   2.190   0.617
24847SOL    HW176373   6.273   2.269   0.565
24847SOL    HW276374   6.282   2.119   0.554
24848SOL     OW76375   7.857   5.270  14.347
24848SOL    HW176376   7.845   5.193  14.402
24848SOL    HW276377   7.952   5.279  14.337
24849SOL     OW76378   2.090   5.024   4.911
24849SOL    HW176379   2.019   4.968   4.943
24849SOL    HW276380   2.088   5.014   4.816
24850SOL     OW76381   9.200   8.802   3.598
24850SOL    HW176382   9.154   8.739   3.542
24850SOL    HW276383   9.289   8.806   3.562
24851SOL     OW76384   0.491   6.896   1.586
24851SOL    HW176385   0.399   6.918   1.599
24851SOL    HW276386   0.504   6.814   1.634
24852SOL     OW76387   6.505   1.928   9.964
24852SOL    HW176388   6.531   1.988   9.893
24852SOL    HW276389   6.555   1.957  10.040
24853SOL     OW76390   5.123  11.357   5.061
24853SOL    HW176391   5.045  11.304   5.079
24853SOL    HW276392   5.193  11.293   5.048
24854SOL     OW76393  13.880   1.913   6.488
24854SOL    HW176394  13.911   1.880   6.403
24854SOL    HW276395  13.849   2.001   6.468
24855SOL     OW76396   2.458   4.876  12.198
24855SOL    HW176397   2.426   4.898  12.110
24855SOL    HW276398   2.553   4.877  12.189
24856SOL     OW76399   1.330   3.977   7.287
24856SOL    HW176400   1.301   4.066   7.265
24856SOL    HW276401   1.249   3.926   7.287
24857SOL     OW76402   2.885  13.778   8.924
24857SOL    HW176403   2.918  13.744   9.008
24857SOL    HW276404   2.911  13.712   8.860
24858SOL     OW76405   1.520  12.671   8.006
24858SOL    HW176406   1.613  12.692   8.005
24858SOL    HW276407   1.476  12.756   8.015
24859SOL     OW76408   5.057   4.827   3.728
24859SOL    HW176409   5.075   4.891   3.798
24859SOL    HW276410   5.127   4.763   3.736
24860SOL     OW76411   4.642   3.710   7.382
24860SOL    HW176412   4.628   3.654   7.306
24860SOL    HW276413   4.723   3.758   7.362
24861SOL     OW76414  12.220  12.896  11.554
24861SOL    HW176415  12.222  12.804  11.584
24861SOL    HW276416  12.251  12.946  11.630
24862SOL     OW76417   3.364   1.924   6.914
24862SOL    HW176418   3.287   1.966   6.953
24862SOL    HW276419   3.429   1.994   6.906
24863SOL     OW76420  12.205   0.947  14.148
24863SOL    HW176421  12.168   0.865  14.180
24863SOL    HW276422  12.279   0.964  14.206
24864SOL     OW76423   4.261   5.558   1.234
24864SOL    HW176424   4.260   5.643   1.188
24864SOL    HW276425   4.235   5.495   1.167
24865SOL     OW76426   2.024   2.716  12.882
24865SOL    HW176427   1.997   2.676  12.799
24865SOL    HW276428   1.952   2.776  12.903
24866SOL     OW76429  11.364  13.241   2.047
24866SOL    HW176430  11.387  13.320   2.097
24866SOL    HW276431  11.388  13.262   1.957
24867SOL     OW76432   2.826   7.584  12.277
24867SOL    HW176433   2.754   7.643  12.252
24867SOL    HW276434   2.881   7.578  12.199
24868SOL     OW76435  13.313  11.642   7.910
24868SOL    HW176436  13.283  11.731   7.894
24868SOL    HW276437  13.402  11.640   7.875
24869SOL     OW76438   5.584  13.863   1.927
24869SOL    HW176439   5.559  13.940   1.877
24869SOL    HW276440   5.602  13.896   2.015
24870SOL     OW76441   8.774  12.379   6.213
24870SOL    HW176442   8.850  12.393   6.156
24870SOL    HW276443   8.704  12.430   6.173
24871SOL     OW76444   9.043  14.473  14.709
24871SOL    HW176445   8.953  14.473  14.678
24871SOL    HW276446   9.093  14.430  14.640
24872SOL     OW76447   9.734   6.538  11.149
24872SOL    HW176448   9.750   6.445  11.167
24872SOL    HW276449   9.722   6.578  11.235
24873SOL     OW76450   5.085  10.696   2.356
24873SOL    HW176451   5.171  10.715   2.394
24873SOL    HW276452   5.075  10.760   2.286
24874SOL     OW76453   3.150  10.655   4.076
24874SOL    HW176454   3.176  10.662   4.168
24874SOL    HW276455   3.172  10.565   4.052
24875SOL     OW76456   9.735  14.831   9.401
24875SOL    HW176457   9.818  14.860   9.361
24875SOL    HW276458   9.755  14.822   9.494
24876SOL     OW76459   8.718   7.329  12.125
24876SOL    HW176460   8.653   7.259  12.130
24876SOL    HW276461   8.700   7.373  12.042
24877SOL     OW76462  11.139   3.464   2.184
24877SOL    HW176463  11.180   3.444   2.269
24877SOL    HW276464  11.177   3.548   2.158
24878SOL     OW76465   2.046   5.129  10.441
24878SOL    HW176466   2.120   5.148  10.499
24878SOL    HW276467   2.039   5.205  10.384
24879SOL     OW76468   5.808  13.580  13.329
24879SOL    HW176469   5.771  13.609  13.245
24879SOL    HW276470   5.890  13.537  13.305
24880SOL     OW76471  11.040   3.662   6.051
24880SOL    HW176472  11.068   3.745   6.088
24880SOL    HW276473  11.036   3.602   6.126
24881SOL     OW76474   9.755   6.687   4.025
24881SOL    HW176475   9.772   6.753   4.092
24881SOL    HW276476   9.664   6.660   4.041
24882SOL     OW76477  12.470   0.747   9.566
24882SOL    HW176478  12.460   0.652   9.577
24882SOL    HW276479  12.388   0.783   9.600
24883SOL     OW76480  13.810  13.591   2.055
24883SOL    HW176481  13.739  13.528   2.042
24883SOL    HW276482  13.770  13.663   2.102
24884SOL     OW76483   0.672  14.643  14.099
24884SOL    HW176484   0.724  14.717  14.069
24884SOL    HW276485   0.655  14.661  14.191
24885SOL     OW76486  10.729   5.690   7.234
24885SOL    HW176487  10.817   5.726   7.244
24885SOL    HW276488  10.730   5.609   7.286
24886SOL     OW76489   7.748   2.481   8.319
24886SOL    HW176490   7.692   2.477   8.397
24886SOL    HW276491   7.687   2.477   8.246
24887SOL     OW76492   1.147   3.559  11.671
24887SOL    HW176493   1.201   3.514  11.606
24887SOL    HW276494   1.207   3.619  11.715
24888SOL     OW76495   6.862  13.835   5.472
24888SOL    HW176496   6.942  13.863   5.427
24888SOL    HW276497   6.884  13.749   5.507
24889SOL     OW76498   6.755   1.357  14.706
24889SOL    HW176499   6.710   1.303  14.772
24889SOL    HW276500   6.836   1.384  14.748
24890SOL     OW76501   7.908   8.066   7.227
24890SOL    HW176502   7.991   8.104   7.259
24890SOL    HW276503   7.880   8.009   7.298
24891SOL     OW76504   3.008   3.551   0.334
24891SOL    HW176505   3.098   3.525   0.352
24891SOL    HW276506   2.965   3.548   0.420
24892SOL     OW76507   4.593   2.450   7.361
24892SOL    HW176508   4.548   2.470   7.278
24892SOL    HW276509   4.595   2.354   7.364
24893SOL     OW76510  11.758   9.644   1.860
24893SOL    HW176511  11.853   9.645   1.875
24893SOL    HW276512  11.725   9.720   1.906
24894SOL     OW76513   0.976   8.152   4.262
24894SOL    HW176514   0.951   8.060   4.272
24894SOL    HW276515   0.966   8.189   4.350
24895SOL     OW76516   2.133   4.917   3.161
24895SOL    HW176517   2.140   4.870   3.244
24895SOL    HW276518   2.215   4.966   3.154
24896SOL     OW76519   4.459   0.910  10.205
24896SOL    HW176520   4.413   0.985  10.167
24896SOL    HW276521   4.475   0.851  10.131
24897SOL     OW76522   0.923  10.677   4.245
24897SOL    HW176523   0.925  10.768   4.216
24897SOL    HW276524   0.836  10.665   4.283
24898SOL     OW76525  12.643  13.064  14.489
24898SOL    HW176526  12.716  13.007  14.514
24898SOL    HW276527  12.676  13.113  14.413
24899SOL     OW76528  13.291  13.894  12.164
24899SOL    HW176529  13.255  13.982  12.173
24899SOL    HW276530  13.289  13.858  12.252
24900SOL     OW76531  13.865   8.835   2.315
24900SOL    HW176532  13.906   8.754   2.345
24900SOL    HW276533  13.819   8.811   2.235
24901SOL     OW76534  10.350   0.725  13.256
24901SOL    HW176535  10.381   0.677  13.333
24901SOL    HW276536  10.430   0.746  13.207
24902SOL     OW76537  14.576   6.865   8.878
24902SOL    HW176538  14.594   6.836   8.968
24902SOL    HW276539  14.635   6.940   8.865
24903SOL     OW76540   1.773   8.304  13.284
24903SOL    HW176541   1.792   8.309  13.190
24903SOL    HW276542   1.847   8.348  13.326
24904SOL     OW76543  13.045   5.945   3.869
24904SOL    HW176544  12.989   6.000   3.924
24904SOL    HW276545  13.095   5.892   3.932
24905SOL     OW76546   2.537   6.513   3.745
24905SOL    HW176547   2.448   6.542   3.728
24905SOL    HW276548   2.591   6.590   3.727
24906SOL     OW76549   3.472  12.664   1.050
24906SOL    HW176550   3.400  12.652   0.987
24906SOL    HW276551   3.470  12.585   1.103
24907SOL     OW76552  14.592   0.032   1.308
24907SOL    HW176553  14.514   0.021   1.362
24907SOL    HW276554  14.637   0.107   1.347
24908SOL     OW76555   2.741   1.841   1.026
24908SOL    HW176556   2.785   1.925   1.043
24908SOL    HW276557   2.728   1.803   1.112
24909SOL     OW76558   6.590   4.754   8.550
24909SOL    HW176559   6.568   4.805   8.628
24909SOL    HW276560   6.666   4.798   8.513
24910SOL     OW76561   9.281   7.535   6.859
24910SOL    HW176562   9.279   7.580   6.774
24910SOL    HW276563   9.370   7.549   6.892
24911SOL     OW76564   7.441   1.206   9.474
24911SOL    HW176565   7.536   1.206   9.489
24911SOL    HW276566   7.405   1.241   9.555
24912SOL     OW76567   1.966   1.728   2.371
24912SOL    HW176568   1.929   1.640   2.383
24912SOL    HW276569   1.907   1.785   2.420
24913SOL     OW76570   2.100  11.696   1.773
24913SOL    HW176571   2.141  11.771   1.732
24913SOL    HW276572   2.006  11.714   1.769
24914SOL     OW76573   7.385   3.199   6.705
24914SOL    HW176574   7.444   3.123   6.702
24914SOL    HW276575   7.398   3.243   6.621
24915SOL     OW76576   1.671   5.696   9.782
24915SOL    HW176577   1.667   5.736   9.695
24915SOL    HW276578   1.600   5.631   9.782
24916SOL     OW76579   9.825   3.708   8.684
24916SOL    HW176580   9.913   3.689   8.652
24916SOL    HW276581   9.770   3.641   8.643
24917SOL     OW76582   2.258  14.108   6.121
24917SOL    HW176583   2.298  14.045   6.181
24917SOL    HW276584   2.264  14.192   6.167
24918SOL     OW76585  14.262  10.226   6.022
24918SOL    HW176586  14.354  10.253   6.027
24918SOL    HW276587  14.265  10.139   5.983
24919SOL     OW76588   5.792   6.623   3.718
24919SOL    HW176589   5.741   6.544   3.704
24919SOL    HW276590   5.844   6.634   3.638
24920SOL     OW76591   9.957  14.004   2.148
24920SOL    HW176592   9.986  13.912   2.144
24920SOL    HW276593   9.873  14.004   2.102
24921SOL     OW76594  13.755   4.819  10.134
24921SOL    HW176595  13.728   4.889  10.192
24921SOL    HW276596  13.690   4.750  10.147
24922SOL     OW76597   4.193   1.846   8.164
24922SOL    HW176598   4.125   1.788   8.131
24922SOL    HW276599   4.166   1.867   8.253
24923SOL     OW76600  11.947  13.998   9.202
24923SOL    HW176601  11.953  14.092   9.218
24923SOL    HW276602  11.941  13.959   9.290
24924SOL     OW76603   9.300  11.612   4.255
24924SOL    HW176604   9.253  11.587   4.175
24924SOL    HW276605   9.273  11.546   4.319
24925SOL     OW76606   8.872   9.175  12.275
24925SOL    HW176607   8.933   9.114  12.236
24925SOL    HW276608   8.841   9.229  12.203
24926SOL     OW76609   0.016   0.191  14.811
24926SOL    HW176610  14.869   0.138  14.737
24926SOL    HW276611   0.020   0.129   0.002
24927SOL     OW76612   1.188   7.136   3.967
24927SOL    HW176613   1.238   7.179   3.897
24927SOL    HW276614   1.185   7.201   4.038
24928SOL     OW76615   3.338   8.276   3.567
24928SOL    HW176616   3.258   8.328   3.575
24928SOL    HW276617   3.360   8.251   3.657
24929SOL     OW76618   8.933   5.489  11.873
24929SOL    HW176619   9.029   5.487  11.872
24929SOL    HW276620   8.911   5.565  11.926
24930SOL     OW76621  10.497   1.458  13.422
24930SOL    HW176622  10.439   1.473  13.347
24930SOL    HW276623  10.438   1.448  13.496
24931SOL     OW76624  10.412  14.477   2.077
24931SOL    HW176625  10.373  14.468   1.990
24931SOL    HW276626  10.506  14.466   2.062
24932SOL     OW76627  10.378   9.738   2.475
24932SOL    HW176628  10.416   9.790   2.404
24932SOL    HW276629  10.449   9.728   2.538
24933SOL     OW76630   1.519  10.163  13.981
24933SOL    HW176631   1.485  10.213  13.907
24933SOL    HW276632   1.570  10.227  14.032
24934SOL     OW76633   7.396   5.999   3.940
24934SOL    HW176634   7.339   6.052   3.995
24934SOL    HW276635   7.481   6.001   3.985
24935SOL     OW76636   3.882   8.185   6.418
24935SOL    HW176637   3.974   8.208   6.417
24935SOL    HW276638   3.869   8.136   6.499
24936SOL     OW76639   8.722   7.682  10.384
24936SOL    HW176640   8.734   7.777  10.387
24936SOL    HW276641   8.638   7.670  10.341
24937SOL     OW76642   7.797  13.330   3.682
24937SOL    HW176643   7.703  13.345   3.678
24937SOL    HW276644   7.813  13.296   3.770
24938SOL     OW76645   6.575   6.741   6.640
24938SOL    HW176646   6.521   6.793   6.698
24938SOL    HW276647   6.552   6.771   6.552
24939SOL     OW76648   5.244   1.947   1.851
24939SOL    HW176649   5.210   2.035   1.836
24939SOL    HW276650   5.334   1.960   1.882
24940SOL     OW76651   3.450   3.221  10.267
24940SOL    HW176652   3.463   3.229  10.361
24940SOL    HW276653   3.450   3.311  10.234
24941SOL     OW76654   9.990   6.227   1.213
24941SOL    HW176655   9.944   6.286   1.154
24941SOL    HW276656  10.057   6.282   1.254
24942SOL     OW76657  12.684  11.830   6.766
24942SOL    HW176658  12.750  11.850   6.833
24942SOL    HW276659  12.733  11.825   6.684
24943SOL     OW76660  11.657   5.247   0.329
24943SOL    HW176661  11.612   5.294   0.259
24943SOL    HW276662  11.595   5.248   0.402
24944SOL     OW76663   7.172  12.999   2.026
24944SOL    HW176664   7.199  13.091   2.027
24944SOL    HW276665   7.078  13.002   2.006
24945SOL     OW76666   5.471  13.051   8.005
24945SOL    HW176667   5.498  13.017   8.091
24945SOL    HW276668   5.396  12.997   7.981
24946SOL     OW76669   0.629  14.652   1.194
24946SOL    HW176670   0.562  14.620   1.134
24946SOL    HW276671   0.636  14.583   1.261
24947SOL     OW76672   8.327   0.457   0.901
24947SOL    HW176673   8.334   0.496   0.814
24947SOL    HW276674   8.323   0.532   0.960
24948SOL     OW76675   2.103  10.916   3.680
24948SOL    HW176676   2.069  10.892   3.593
24948SOL    HW276677   2.034  10.892   3.740
24949SOL     OW76678  14.418   4.847  11.488
24949SOL    HW176679  14.388   4.914  11.549
24949SOL    HW276680  14.363   4.857  11.411
24950SOL     OW76681   4.349   7.502   0.188
24950SOL    HW176682   4.416   7.554   0.144
24950SOL    HW276683   4.384   7.486   0.276
24951SOL     OW76684   2.414  14.700   5.648
24951SOL    HW176685   2.484  14.740   5.597
24951SOL    HW276686   2.454  14.676   5.731
24952SOL     OW76687   0.130  11.349   8.983
24952SOL    HW176688   0.171  11.286   8.923
24952SOL    HW276689   0.199  11.368   9.048
24953SOL     OW76690   2.988  14.155   8.430
24953SOL    HW176691   3.052  14.219   8.397
24953SOL    HW276692   2.924  14.147   8.359
24954SOL     OW76693   9.736  12.524   7.098
24954SOL    HW176694   9.682  12.598   7.072
24954SOL    HW276695   9.746  12.533   7.192
24955SOL     OW76696   3.147   3.389   0.919
24955SOL    HW176697   3.170   3.481   0.936
24955SOL    HW276698   3.203   3.363   0.846
24956SOL     OW76699   9.791  11.723   9.922
24956SOL    HW176700   9.789  11.666   9.845
24956SOL    HW276701   9.770  11.664   9.995
24957SOL     OW76702   5.069  11.486  12.950
24957SOL    HW176703   5.157  11.519  12.935
24957SOL    HW276704   5.037  11.534  13.026
24958SOL     OW76705   2.993   2.541   0.925
24958SOL    HW176706   2.997   2.487   0.846
24958SOL    HW276707   3.018   2.629   0.895
24959SOL     OW76708   1.280  13.107  12.648
24959SOL    HW176709   1.279  13.070  12.560
24959SOL    HW276710   1.332  13.046  12.700
24960SOL     OW76711   5.011   7.239  11.568
24960SOL    HW176712   5.097   7.235  11.610
24960SOL    HW276713   4.974   7.322  11.598
24961SOL     OW76714   0.937   7.349   7.157
24961SOL    HW176715   0.863   7.315   7.108
24961SOL    HW276716   0.902   7.361   7.246
24962SOL     OW76717   9.681   7.655   5.882
24962SOL    HW176718   9.722   7.663   5.968
24962SOL    HW276719   9.623   7.731   5.875
24963SOL     OW76720   1.733   0.301   0.732
24963SOL    HW176721   1.638   0.304   0.742
24963SOL    HW276722   1.749   0.230   0.670
24964SOL     OW76723  12.341   9.859   9.630
24964SOL    HW176724  12.375   9.783   9.582
24964SOL    HW276725  12.415   9.889   9.683
24965SOL     OW76726  14.283  10.685   2.750
24965SOL    HW176727  14.317  10.602   2.715
24965SOL    HW276728  14.210  10.706   2.692
24966SOL     OW76729   7.606   0.072  10.299
24966SOL    HW176730   7.698   0.085  10.278
24966SOL    HW276731   7.578   0.001  10.241
24967SOL     OW76732   9.849  11.909  13.412
24967SOL    HW176733   9.903  11.860  13.473
24967SOL    HW276734   9.806  11.842  13.359
24968SOL     OW76735  13.125   5.797  12.135
24968SOL    HW176736  13.156   5.732  12.072
24968SOL    HW276737  13.175   5.877  12.114
24969SOL     OW76738   4.687  11.832   5.345
24969SOL    HW176739   4.777  11.833   5.377
24969SOL    HW276740   4.676  11.744   5.308
24970SOL     OW76741  12.364   1.572  14.046
24970SOL    HW176742  12.303   1.639  14.078
24970SOL    HW276743  12.449   1.615  14.048
24971SOL     OW76744   1.940   3.778   7.666
24971SOL    HW176745   1.952   3.683   7.676
24971SOL    HW276746   1.962   3.814   7.752
24972SOL     OW76747   3.287  12.248  13.140
24972SOL    HW176748   3.326  12.179  13.194
24972SOL    HW276749   3.203  12.266  13.181
24973SOL     OW76750   0.145  13.707  10.872
24973SOL    HW176751   0.084  13.641  10.839
24973SOL    HW276752   0.122  13.717  10.964
24974SOL     OW76753   4.537   0.223  13.754
24974SOL    HW176754   4.491   0.299  13.790
24974SOL    HW276755   4.555   0.247  13.663
24975SOL     OW76756   3.979   8.954   8.316
24975SOL    HW176757   3.917   8.884   8.295
24975SOL    HW276758   4.046   8.911   8.369
24976SOL     OW76759   0.204   1.439   4.974
24976SOL    HW176760   0.252   1.422   4.893
24976SOL    HW276761   0.145   1.365   4.982
24977SOL     OW76762   1.019  11.730   4.892
24977SOL    HW176763   1.045  11.703   4.980
24977SOL    HW276764   1.002  11.824   4.901
24978SOL     OW76765  10.061  10.680   4.785
24978SOL    HW176766  10.147  10.671   4.743
24978SOL    HW276767  10.081  10.707   4.875
24979SOL     OW76768  13.103   1.965   2.031
24979SOL    HW176769  13.036   2.005   2.086
24979SOL    HW276770  13.160   1.919   2.091
24980SOL     OW76771   5.182   9.962   6.376
24980SOL    HW176772   5.236   9.960   6.455
24980SOL    HW276773   5.094   9.938   6.406
24981SOL     OW76774   7.710   4.648  14.331
24981SOL    HW176775   7.726   4.733  14.373
24981SOL    HW276776   7.772   4.646  14.258
24982SOL     OW76777   1.990   2.161  10.955
24982SOL    HW176778   2.050   2.219  10.909
24982SOL    HW276779   2.046   2.090  10.987
24983SOL     OW76780   4.117   9.255  12.910
24983SOL    HW176781   4.144   9.339  12.875
24983SOL    HW276782   4.177   9.192  12.871
24984SOL     OW76783   8.412   3.218   7.500
24984SOL    HW176784   8.425   3.189   7.410
24984SOL    HW276785   8.347   3.288   7.493
24985SOL     OW76786   0.646   2.876   6.708
24985SOL    HW176787   0.629   2.839   6.622
24985SOL    HW276788   0.616   2.967   6.701
24986SOL     OW76789  10.530  14.345  11.898
24986SOL    HW176790  10.518  14.255  11.868
24986SOL    HW276791  10.441  14.376  11.917
24987SOL     OW76792   6.529  14.822   0.309
24987SOL    HW176793   6.482   0.015   0.345
24987SOL    HW276794   6.616  14.855   0.288
24988SOL     OW76795   3.348  11.019   6.713
24988SOL    HW176796   3.317  10.942   6.665
24988SOL    HW276797   3.438  10.998   6.736
24989SOL     OW76798   6.648  10.367   6.030
24989SOL    HW176799   6.594  10.356   6.109
24989SOL    HW276800   6.717  10.428   6.056
24990SOL     OW76801  12.393   1.400   1.547
24990SOL    HW176802  12.428   1.401   1.458
24990SOL    HW276803  12.336   1.476   1.551
24991SOL     OW76804   3.768  14.557   5.068
24991SOL    HW176805   3.844  14.596   5.112
24991SOL    HW276806   3.805  14.504   4.998
24992SOL     OW76807  13.925   1.478  14.309
24992SOL    HW176808  13.958   1.393  14.338
24992SOL    HW276809  13.965   1.491  14.222
24993SOL     OW76810  10.327   8.973   9.379
24993SOL    HW176811  10.418   8.961   9.352
24993SOL    HW276812  10.332   9.030   9.456
24994SOL     OW76813   0.308  13.541   7.493
24994SOL    HW176814   0.342  13.471   7.437
24994SOL    HW276815   0.385  13.579   7.534
24995SOL     OW76816   8.293   1.673   3.496
24995SOL    HW176817   8.233   1.607   3.530
24995SOL    HW276818   8.368   1.623   3.464
24996SOL     OW76819   8.553   6.340   1.634
24996SOL    HW176820   8.591   6.252   1.632
24996SOL    HW276821   8.491   6.337   1.707
24997SOL     OW76822   7.902   4.361  13.086
24997SOL    HW176823   7.912   4.352  12.991
24997SOL    HW276824   7.862   4.448  13.098
24998SOL     OW76825   6.769   9.049  10.263
24998SOL    HW176826   6.723   8.965  10.264
24998SOL    HW276827   6.812   9.052  10.178
24999SOL     OW76828  11.032   7.766   5.861
24999SOL    HW176829  11.103   7.814   5.903
24999SOL    HW276830  11.049   7.674   5.884
25000SOL     OW76831   8.197   1.679   9.506
25000SOL    HW176832   8.224   1.723   9.425
25000SOL    HW276833   8.271   1.622   9.528
25001SOL     OW76834   6.538   3.044   6.085
25001SOL    HW176835   6.489   2.994   6.151
25001SOL    HW276836   6.474   3.104   6.048
25002SOL     OW76837  10.147   6.803  11.960
25002SOL    HW176838  10.238   6.775  11.967
25002SOL    HW276839  10.106   6.736  11.905
25003SOL     OW76840  11.480   6.657   8.037
25003SOL    HW176841  11.429   6.692   7.964
25003SOL    HW276842  11.559   6.712   8.040
25004SOL     OW76843   6.317   9.316   2.802
25004SOL    HW176844   6.227   9.296   2.776
25004SOL    HW276845   6.361   9.336   2.720
25005SOL     OW76846   8.523   9.929  14.241
25005SOL    HW176847   8.533  10.022  14.260
25005SOL    HW276848   8.485   9.893  14.321
25006SOL     OW76849  11.887   9.636   4.148
25006SOL    HW176850  11.802   9.617   4.107
25006SOL    HW276851  11.891   9.578   4.224
25007SOL     OW76852   4.339   1.289   3.310
25007SOL    HW176853   4.367   1.254   3.395
25007SOL    HW276854   4.417   1.333   3.276
25008SOL     OW76855  11.473   2.888  11.705
25008SOL    HW176856  11.528   2.837  11.645
25008SOL    HW276857  11.401   2.919  11.651
25009SOL     OW76858   8.988   3.773  13.602
25009SOL    HW176859   9.075   3.809  13.583
25009SOL    HW276860   8.958   3.824  13.678
25010SOL     OW76861  14.403  11.968   0.548
25010SOL    HW176862  14.343  11.979   0.474
25010SOL    HW276863  14.362  11.901   0.603
25011SOL     OW76864   5.239   2.837   0.917
25011SOL    HW176865   5.299   2.767   0.944
25011SOL    HW276866   5.278   2.872   0.837
25012SOL     OW76867   9.722   9.322  12.359
25012SOL    HW176868   9.666   9.385  12.406
25012SOL    HW276869   9.748   9.259  12.426
25013SOL     OW76870  14.382   9.147   4.514
25013SOL    HW176871  14.395   9.080   4.448
25013SOL    HW276872  14.408   9.229   4.472
25014SOL     OW76873   3.022   9.008  11.952
25014SOL    HW176874   3.014   9.100  11.981
25014SOL    HW276875   2.937   8.969  11.973
25015SOL     OW76876  14.133   8.975   4.637
25015SOL    HW176877  14.196   8.997   4.706
25015SOL    HW276878  14.116   9.059   4.594
25016SOL     OW76879  11.887   1.675  14.790
25016SOL    HW176880  11.864   1.586  14.815
25016SOL    HW276881  11.886   1.675  14.694
25017SOL     OW76882   6.968   9.153   2.513
25017SOL    HW176883   6.967   9.088   2.443
25017SOL    HW276884   7.061   9.164   2.535
25018SOL     OW76885   4.216   4.249   8.609
25018SOL    HW176886   4.262   4.332   8.607
25018SOL    HW276887   4.210   4.227   8.702
25019SOL     OW76888   4.747  12.721  12.321
25019SOL    HW176889   4.693  12.788  12.280
25019SOL    HW276890   4.771  12.758  12.406
25020SOL     OW76891   4.067   5.415   1.679
25020SOL    HW176892   4.096   5.498   1.719
25020SOL    HW276893   4.144   5.359   1.682
25021SOL     OW76894  10.666  13.679  10.038
25021SOL    HW176895  10.606  13.678   9.964
25021SOL    HW276896  10.722  13.755  10.023
25022SOL     OW76897   8.048   4.937   3.921
25022SOL    HW176898   8.071   4.953   3.830
25022SOL    HW276899   8.131   4.920   3.965
25023SOL     OW76900   0.715  10.344   7.019
25023SOL    HW176901   0.654  10.293   7.073
25023SOL    HW276902   0.678  10.339   6.930
25024SOL     OW76903   9.343   5.594   0.276
25024SOL    HW176904   9.350   5.614   0.183
25024SOL    HW276905   9.425   5.627   0.314
25025SOL     OW76906   6.734  12.065  10.021
25025SOL    HW176907   6.722  12.118   9.942
25025SOL    HW276908   6.797  11.998   9.996
25026SOL     OW76909  13.447   7.352   5.113
25026SOL    HW176910  13.505   7.307   5.051
25026SOL    HW276911  13.471   7.444   5.107
25027SOL     OW76912   3.690   1.232  13.107
25027SOL    HW176913   3.625   1.170  13.139
25027SOL    HW276914   3.647   1.279  13.036
25028SOL     OW76915   6.375   9.645  10.807
25028SOL    HW176916   6.353   9.611  10.893
25028SOL    HW276917   6.470   9.659  10.810
25029SOL     OW76918  14.236   6.106  11.782
25029SOL    HW176919  14.313   6.078  11.733
25029SOL    HW276920  14.270   6.167  11.847
25030SOL     OW76921  14.799   0.001  12.446
25030SOL    HW176922  14.728   0.062  12.424
25030SOL    HW276923  14.789  14.868  12.540
25031SOL     OW76924   9.358   0.540  10.213
25031SOL    HW176925   9.404   0.459  10.193
25031SOL    HW276926   9.320   0.525  10.300
25032SOL     OW76927   7.856  10.429   0.953
25032SOL    HW176928   7.808  10.353   0.921
25032SOL    HW276929   7.793  10.501   0.949
25033SOL     OW76930   1.649  12.572   5.844
25033SOL    HW176931   1.731  12.617   5.861
25033SOL    HW276932   1.583  12.624   5.890
25034SOL     OW76933   0.242   7.305   3.142
25034SOL    HW176934   0.195   7.362   3.081
25034SOL    HW276935   0.284   7.366   3.203
25035SOL     OW76936  14.119   5.238  13.732
25035SOL    HW176937  14.115   5.145  13.754
25035SOL    HW276938  14.100   5.282  13.815
25036SOL     OW76939   5.473   7.888  12.006
25036SOL    HW176940   5.449   7.946  12.078
25036SOL    HW276941   5.430   7.805  12.027
25037SOL     OW76942   3.321   6.122   8.427
25037SOL    HW176943   3.336   6.065   8.352
25037SOL    HW276944   3.349   6.208   8.398
25038SOL     OW76945   1.031   3.043   2.265
25038SOL    HW176946   0.946   3.003   2.281
25038SOL    HW276947   1.017   3.136   2.278
25039SOL     OW76948   7.143   0.191   6.669
25039SOL    HW176949   7.217   0.203   6.609
25039SOL    HW276950   7.072   0.242   6.629
25040SOL     OW76951  13.969   9.765   8.409
25040SOL    HW176952  14.017   9.722   8.339
25040SOL    HW276953  13.931   9.843   8.368
25041SOL     OW76954   0.609  14.081   6.280
25041SOL    HW176955   0.572  14.117   6.361
25041SOL    HW276956   0.536  14.034   6.240
25042SOL     OW76957   7.004   4.851   5.786
25042SOL    HW176958   6.945   4.919   5.752
25042SOL    HW276959   7.056   4.824   5.711
25043SOL     OW76960  13.606  10.806  11.365
25043SOL    HW176961  13.583  10.810  11.272
25043SOL    HW276962  13.608  10.713  11.386
25044SOL     OW76963  11.974   0.168   9.067
25044SOL    HW176964  11.890   0.123   9.078
25044SOL    HW276965  11.978   0.186   8.973
25045SOL     OW76966   8.416  12.322   5.048
25045SOL    HW176967   8.503  12.324   5.087
25045SOL    HW276968   8.431  12.304   4.955
25046SOL     OW76969   5.902   6.714   4.587
25046SOL    HW176970   5.888   6.620   4.576
25046SOL    HW276971   5.845   6.755   4.523
25047SOL     OW76972   4.234   2.945   5.171
25047SOL    HW176973   4.197   3.017   5.121
25047SOL    HW276974   4.289   2.897   5.108
25048SOL     OW76975   4.619   1.788   7.908
25048SOL    HW176976   4.711   1.790   7.931
25048SOL    HW276977   4.573   1.802   7.991
25049SOL     OW76978   6.381   4.656   6.784
25049SOL    HW176979   6.435   4.735   6.782
25049SOL    HW276980   6.427   4.596   6.842
25050SOL     OW76981  12.894   5.730  12.878
25050SOL    HW176982  12.827   5.704  12.941
25050SOL    HW276983  12.927   5.813  12.910
25051SOL     OW76984   9.240  14.640  14.826
25051SOL    HW176985   9.173  14.599  14.772
25051SOL    HW276986   9.322  14.599  14.798
25052SOL     OW76987   4.282   8.379   9.759
25052SOL    HW176988   4.231   8.425   9.692
25052SOL    HW276989   4.217   8.338   9.816
25053SOL     OW76990   6.573   7.855   2.831
25053SOL    HW176991   6.560   7.804   2.911
25053SOL    HW276992   6.492   7.844   2.782
25054SOL     OW76993  12.372   5.910   7.895
25054SOL    HW176994  12.294   5.963   7.882
25054SOL    HW276995  12.428   5.933   7.820
25055SOL     OW76996   3.307   2.732  12.265
25055SOL    HW176997   3.239   2.674  12.231
25055SOL    HW276998   3.386   2.705  12.219
25056SOL     OW76999   2.660   4.175  13.476
25056SOL    HW177000   2.716   4.248  13.451
25056SOL    HW277001   2.656   4.119  13.399
25057SOL     OW77002   4.670   0.559  14.174
25057SOL    HW177003   4.633   0.486  14.125
25057SOL    HW277004   4.762   0.562  14.148
25058SOL     OW77005   9.679  11.055  12.296
25058SOL    HW177006   9.726  10.977  12.325
25058SOL    HW277007   9.740  11.127  12.313
25059SOL     OW77008   6.510  14.796   6.874
25059SOL    HW177009   6.600  14.789   6.904
25059SOL    HW277010   6.462  14.733   6.928
25060SOL     OW77011   8.693   6.397   4.424
25060SOL    HW177012   8.611   6.417   4.379
25060SOL    HW277013   8.687   6.444   4.507
25061SOL     OW77014   5.338   8.737   8.653
25061SOL    HW177015   5.255   8.779   8.630
25061SOL    HW277016   5.372   8.703   8.571
25062SOL     OW77017   0.114   5.248   5.048
25062SOL    HW177018   0.176   5.175   5.046
25062SOL    HW277019   0.107   5.277   4.957
25063SOL     OW77020  13.493  11.868   6.253
25063SOL    HW177021  13.499  11.898   6.344
25063SOL    HW277022  13.583  11.867   6.222
25064SOL     OW77023  11.712   1.682   9.688
25064SOL    HW177024  11.632   1.730   9.710
25064SOL    HW277025  11.689   1.631   9.611
25065SOL     OW77026  12.860  14.509   1.311
25065SOL    HW177027  12.899  14.525   1.225
25065SOL    HW277028  12.783  14.566   1.314
25066SOL     OW77029   4.373   3.149  14.765
25066SOL    HW177030   4.363   3.059  14.794
25066SOL    HW277031   4.284   3.182  14.756
25067SOL     OW77032  13.660   0.157  12.699
25067SOL    HW177033  13.708   0.226  12.653
25067SOL    HW277034  13.599   0.124  12.633
25068SOL     OW77035   0.629  10.106  11.006
25068SOL    HW177036   0.544  10.062  10.997
25068SOL    HW277037   0.607  10.197  11.026
25069SOL     OW77038   4.491   7.111   5.323
25069SOL    HW177039   4.585   7.123   5.336
25069SOL    HW277040   4.472   7.024   5.359
25070SOL     OW77041   4.677   2.666  13.813
25070SOL    HW177042   4.698   2.756  13.838
25070SOL    HW277043   4.748   2.613  13.850
25071SOL     OW77044   8.737   9.147   2.518
25071SOL    HW177045   8.686   9.155   2.438
25071SOL    HW277046   8.827   9.162   2.492
25072SOL     OW77047   8.778   8.837   3.055
25072SOL    HW177048   8.731   8.880   3.127
25072SOL    HW277049   8.773   8.901   2.983
25073SOL     OW77050   5.343   7.860  12.516
25073SOL    HW177051   5.328   7.935  12.573
25073SOL    HW277052   5.438   7.861  12.500
25074SOL     OW77053   4.079   5.215  11.732
25074SOL    HW177054   4.032   5.162  11.796
25074SOL    HW277055   4.170   5.189  11.741
25075SOL     OW77056  12.800   3.697   6.552
25075SOL    HW177057  12.878   3.680   6.499
25075SOL    HW277058  12.798   3.625   6.615
25076SOL     OW77059  12.895   1.218   8.032
25076SOL    HW177060  12.981   1.210   8.074
25076SOL    HW277061  12.833   1.182   8.096
25077SOL     OW77062  13.480   2.718  10.801
25077SOL    HW177063  13.553   2.723  10.863
25077SOL    HW277064  13.503   2.782  10.733
25078SOL     OW77065  10.659   3.979   9.687
25078SOL    HW177066  10.695   3.959   9.773
25078SOL    HW277067  10.696   4.065   9.665
25079SOL     OW77068   7.479   8.502   3.089
25079SOL    HW177069   7.415   8.567   3.119
25079SOL    HW277070   7.549   8.554   3.050
25080SOL     OW77071  14.195   3.934   0.916
25080SOL    HW177072  14.114   3.939   0.865
25080SOL    HW277073  14.264   3.919   0.851
25081SOL     OW77074  12.566  14.096  13.449
25081SOL    HW177075  12.483  14.094  13.498
25081SOL    HW277076  12.589  14.004  13.438
25082SOL     OW77077   2.777   9.694   2.691
25082SOL    HW177078   2.848   9.733   2.741
25082SOL    HW277079   2.775   9.743   2.609
25083SOL     OW77080   9.685   6.357   7.989
25083SOL    HW177081   9.742   6.404   8.050
25083SOL    HW277082   9.703   6.265   8.004
25084SOL     OW77083   0.839  10.719   1.015
25084SOL    HW177084   0.848  10.811   0.991
25084SOL    HW277085   0.927  10.693   1.042
25085SOL     OW77086   9.561   7.572   8.205
25085SOL    HW177087   9.574   7.577   8.110
25085SOL    HW277088   9.479   7.619   8.221
25086SOL     OW77089   9.245   7.002   0.885
25086SOL    HW177090   9.185   6.965   0.950
25086SOL    HW277091   9.282   7.079   0.928
25087SOL     OW77092  13.438   1.699  10.109
25087SOL    HW177093  13.400   1.785  10.130
25087SOL    HW277094  13.369   1.637  10.129
25088SOL     OW77095   6.767   6.879  12.055
25088SOL    HW177096   6.843   6.859  12.000
25088SOL    HW277097   6.692   6.868  11.996
25089SOL     OW77098   8.984   9.267  13.214
25089SOL    HW177099   9.076   9.256  13.238
25089SOL    HW277100   8.975   9.360  13.192
25090SOL     OW77101   5.043  11.496  13.593
25090SOL    HW177102   4.982  11.430  13.559
25090SOL    HW277103   5.116  11.446  13.628
25091SOL     OW77104   0.081   1.483  11.943
25091SOL    HW177105   0.095   1.554  12.006
25091SOL    HW277106   0.166   1.471  11.902
25092SOL     OW77107  12.547   3.306  11.887
25092SOL    HW177108  12.609   3.335  11.954
25092SOL    HW277109  12.469   3.360  11.900
25093SOL     OW77110   0.328   6.160   6.698
25093SOL    HW177111   0.297   6.250   6.696
25093SOL    HW277112   0.395   6.159   6.767
25094SOL     OW77113   4.183  10.460   3.949
25094SOL    HW177114   4.124  10.444   3.875
25094SOL    HW277115   4.125  10.490   4.019
25095SOL     OW77116   0.265  14.150   8.953
25095SOL    HW177117   0.356  14.142   8.926
25095SOL    HW277118   0.269  14.186   9.042
25096SOL     OW77119   9.086  12.485   9.273
25096SOL    HW177120   9.019  12.553   9.270
25096SOL    HW277121   9.053  12.420   9.336
25097SOL     OW77122   0.513  10.283   8.076
25097SOL    HW177123   0.551  10.324   7.999
25097SOL    HW277124   0.529  10.347   8.146
25098SOL     OW77125   6.394   0.107  14.409
25098SOL    HW177126   6.438   0.057  14.340
25098SOL    HW277127   6.456   0.175  14.433
25099SOL     OW77128   0.733   9.877  10.837
25099SOL    HW177129   0.803   9.861  10.901
25099SOL    HW277130   0.660   9.910  10.889
25100SOL     OW77131   9.025   4.660   7.226
25100SOL    HW177132   9.094   4.726   7.229
25100SOL    HW277133   9.001   4.654   7.133
25101SOL     OW77134  10.577   4.087   1.020
25101SOL    HW177135  10.646   4.028   1.051
25101SOL    HW277136  10.565   4.063   0.928
25102SOL     OW77137   3.277   1.206   2.866
25102SOL    HW177138   3.249   1.266   2.934
25102SOL    HW277139   3.220   1.224   2.792
25103SOL     OW77140   3.842   6.373   0.834
25103SOL    HW177141   3.934   6.378   0.862
25103SOL    HW277142   3.840   6.304   0.769
25104SOL     OW77143   7.019  14.668   2.308
25104SOL    HW177144   7.020  14.724   2.386
25104SOL    HW277145   7.111  14.655   2.287
25105SOL     OW77146  13.378  13.631   3.564
25105SOL    HW177147  13.442  13.679   3.512
25105SOL    HW277148  13.333  13.574   3.501
25106SOL     OW77149  10.136   9.358   5.628
25106SOL    HW177150  10.170   9.279   5.587
25106SOL    HW277151  10.103   9.330   5.713
25107SOL     OW77152  11.579   6.740   3.261
25107SOL    HW177153  11.618   6.782   3.184
25107SOL    HW277154  11.628   6.658   3.270
25108SOL     OW77155  12.013   2.078  13.046
25108SOL    HW177156  11.927   2.106  13.013
25108SOL    HW277157  12.027   1.992  13.006
25109SOL     OW77158   0.208  13.285  12.439
25109SOL    HW177159   0.161  13.327  12.511
25109SOL    HW277160   0.141  13.271  12.372
25110SOL     OW77161   8.750   0.680   5.013
25110SOL    HW177162   8.812   0.628   4.961
25110SOL    HW277163   8.684   0.709   4.949
25111SOL     OW77164   6.772  14.815   9.737
25111SOL    HW177165   6.799  14.783   9.823
25111SOL    HW277166   6.686  14.776   9.722
25112SOL     OW77167   7.948  12.234   1.477
25112SOL    HW177168   8.038  12.238   1.446
25112SOL    HW277169   7.947  12.288   1.556
25113SOL     OW77170   5.489  11.611   7.145
25113SOL    HW177171   5.439  11.692   7.152
25113SOL    HW277172   5.545  11.611   7.223
25114SOL     OW77173   9.510   1.745   6.575
25114SOL    HW177174   9.548   1.684   6.512
25114SOL    HW277175   9.479   1.818   6.521
25115SOL     OW77176   8.588   1.641   4.914
25115SOL    HW177177   8.617   1.655   4.824
25115SOL    HW277178   8.570   1.729   4.947
25116SOL     OW77179  11.211   9.069  14.660
25116SOL    HW177180  11.190   9.000  14.723
25116SOL    HW277181  11.129   9.117  14.650
25117SOL     OW77182   6.449   0.041   4.778
25117SOL    HW177183   6.493   0.104   4.836
25117SOL    HW277184   6.516  14.857   4.759
25118SOL     OW77185   8.806   5.093   9.890
25118SOL    HW177186   8.884   5.100   9.835
25118SOL    HW277187   8.822   5.151   9.964
25119SOL     OW77188   9.242   8.118   6.558
25119SOL    HW177189   9.205   8.031   6.567
25119SOL    HW277190   9.324   8.105   6.511
25120SOL     OW77191   2.561  12.030   0.427
25120SOL    HW177192   2.500  11.973   0.475
25120SOL    HW277193   2.626  12.055   0.493
25121SOL     OW77194   6.803  11.426   8.891
25121SOL    HW177195   6.878  11.447   8.946
25121SOL    HW277196   6.839  11.419   8.803
25122SOL     OW77197  13.477   5.793  13.710
25122SOL    HW177198  13.488   5.888  13.697
25122SOL    HW277199  13.395   5.772  13.665
25123SOL     OW77200   4.384   1.805   7.370
25123SOL    HW177201   4.294   1.774   7.382
25123SOL    HW277202   4.388   1.886   7.421
25124SOL     OW77203  12.790   3.173   7.109
25124SOL    HW177204  12.783   3.220   7.193
25124SOL    HW277205  12.847   3.228   7.056
25125SOL     OW77206  13.945   2.253   5.067
25125SOL    HW177207  13.952   2.180   5.005
25125SOL    HW277208  13.891   2.317   5.022
25126SOL     OW77209   5.654   3.021   3.784
25126SOL    HW177210   5.603   3.099   3.765
25126SOL    HW277211   5.709   3.008   3.706
25127SOL     OW77212  14.411  11.098  11.539
25127SOL    HW177213  14.362  11.083  11.458
25127SOL    HW277214  14.503  11.094  11.512
25128SOL     OW77215  13.775  10.900  11.979
25128SOL    HW177216  13.792  10.809  12.004
25128SOL    HW277217  13.685  10.899  11.946
25129SOL     OW77218   8.082   1.588   6.621
25129SOL    HW177219   8.059   1.673   6.585
25129SOL    HW277220   8.015   1.571   6.687
25130SOL     OW77221  14.219   5.198   2.266
25130SOL    HW177222  14.304   5.202   2.222
25130SOL    HW277223  14.239   5.214   2.358
25131SOL     OW77224   2.759   4.148   1.159
25131SOL    HW177225   2.790   4.224   1.208
25131SOL    HW277226   2.839   4.107   1.126
25132SOL     OW77227   8.901  13.156  13.693
25132SOL    HW177228   8.958  13.143  13.770
25132SOL    HW277229   8.854  13.238  13.712
25133SOL     OW77230  10.361  12.242  14.602
25133SOL    HW177231  10.273  12.210  14.584
25133SOL    HW277232  10.385  12.290  14.522
25134SOL     OW77233   1.407   9.751   0.438
25134SOL    HW177234   1.481   9.711   0.391
25134SOL    HW277235   1.349   9.677   0.457
25135SOL     OW77236  13.456   8.615  10.072
25135SOL    HW177237  13.518   8.589  10.004
25135SOL    HW277238  13.467   8.548  10.140
25136SOL     OW77239   9.461   6.146   8.721
25136SOL    HW177240   9.398   6.102   8.665
25136SOL    HW277241   9.409   6.207   8.774
25137SOL     OW77242   1.291   1.847   4.911
25137SOL    HW177243   1.235   1.778   4.948
25137SOL    HW277244   1.319   1.898   4.987
25138SOL     OW77245   3.585   0.380  13.899
25138SOL    HW177246   3.565   0.287  13.889
25138SOL    HW277247   3.603   0.411  13.811
25139SOL     OW77248   5.509  13.648   0.525
25139SOL    HW177249   5.549  13.630   0.440
25139SOL    HW277250   5.417  13.623   0.514
25140SOL     OW77251   7.345  10.221   9.080
25140SOL    HW177252   7.373  10.249   8.993
25140SOL    HW277253   7.332  10.127   9.073
25141SOL     OW77254   0.707  14.845   4.659
25141SOL    HW177255   0.670   0.036   4.609
25141SOL    HW277256   0.761   0.006   4.726
25142SOL     OW77257  11.814   4.755   6.852
25142SOL    HW177258  11.869   4.681   6.878
25142SOL    HW277259  11.735   4.715   6.816
25143SOL     OW77260  13.157   3.261   3.164
25143SOL    HW177261  13.241   3.256   3.211
25143SOL    HW277262  13.099   3.307   3.224
25144SOL     OW77263  12.246  11.625   4.463
25144SOL    HW177264  12.303  11.656   4.533
25144SOL    HW277265  12.240  11.531   4.476
25145SOL     OW77266   0.454  13.708   7.079
25145SOL    HW177267   0.372  13.755   7.086
25145SOL    HW277268   0.510  13.746   7.147
25146SOL     OW77269  10.031   2.406   7.825
25146SOL    HW177270  10.109   2.414   7.879
25146SOL    HW277271  10.047   2.465   7.751
25147SOL     OW77272   4.040  13.628   3.095
25147SOL    HW177273   4.016  13.697   3.033
25147SOL    HW277274   3.961  13.611   3.145
25148SOL     OW77275   9.659   6.831  11.803
25148SOL    HW177276   9.577   6.878  11.816
25148SOL    HW277277   9.718   6.868  11.870
25149SOL     OW77278   8.857  14.756  13.252
25149SOL    HW177279   8.906  14.735  13.173
25149SOL    HW277280   8.778  14.801  13.221
25150SOL     OW77281   6.317   8.517   8.170
25150SOL    HW177282   6.294   8.424   8.170
25150SOL    HW277283   6.241   8.561   8.134
25151SOL     OW77284   6.027  12.262  13.805
25151SOL    HW177285   5.954  12.237  13.749
25151SOL    HW277286   5.987  12.274  13.892
25152SOL     OW77287   3.187  10.120   1.608
25152SOL    HW177288   3.178  10.214   1.619
25152SOL    HW277289   3.251  10.110   1.538
25153SOL     OW77290   1.186   4.906   4.886
25153SOL    HW177291   1.124   4.883   4.955
25153SOL    HW277292   1.150   4.866   4.807
25154SOL     OW77293  13.604   9.736   0.190
25154SOL    HW177294  13.681   9.688   0.220
25154SOL    HW277295  13.608   9.730   0.095
25155SOL     OW77296  10.722   7.307   1.933
25155SOL    HW177297  10.662   7.290   2.006
25155SOL    HW277298  10.671   7.288   1.855
25156SOL     OW77299  13.904  13.386   3.330
25156SOL    HW177300  13.961  13.314   3.303
25156SOL    HW277301  13.963  13.460   3.344
25157SOL     OW77302   6.092  12.748   0.120
25157SOL    HW177303   6.111  12.655   0.134
25157SOL    HW277304   6.014  12.749   0.065
25158SOL     OW77305   8.419  14.405   4.057
25158SOL    HW177306   8.455  14.320   4.031
25158SOL    HW277307   8.339  14.384   4.104
25159SOL     OW77308   9.916  14.839   1.648
25159SOL    HW177309   9.966  14.866   1.725
25159SOL    HW277310   9.857   0.030   1.631
25160SOL     OW77311   2.457   9.351   2.955
25160SOL    HW177312   2.523   9.413   2.925
25160SOL    HW277313   2.504   9.291   3.013
25161SOL     OW77314  13.769   4.000  14.514
25161SOL    HW177315  13.768   4.095  14.528
25161SOL    HW277316  13.686   3.981  14.470
25162SOL     OW77317  12.596   9.995   8.245
25162SOL    HW177318  12.632  10.008   8.157
25162SOL    HW277319  12.650   9.926   8.283
25163SOL     OW77320   7.986  14.255   3.079
25163SOL    HW177321   7.890  14.260   3.081
25163SOL    HW277322   8.009  14.275   2.988
25164SOL     OW77323   3.469  11.875  13.803
25164SOL    HW177324   3.431  11.790  13.780
25164SOL    HW277325   3.552  11.853  13.847
25165SOL     OW77326   0.385   6.108   7.126
25165SOL    HW177327   0.328   6.057   7.183
25165SOL    HW277328   0.399   6.190   7.173
25166SOL     OW77329   8.893   4.819   0.203
25166SOL    HW177330   8.864   4.903   0.169
25166SOL    HW277331   8.957   4.788   0.139
25167SOL     OW77332   1.901   2.431  14.249
25167SOL    HW177333   1.875   2.342  14.275
25167SOL    HW277334   1.902   2.428  14.153
25168SOL     OW77335   8.923   3.145   4.842
25168SOL    HW177336   8.974   3.161   4.762
25168SOL    HW277337   8.954   3.061   4.874
25169SOL     OW77338   0.684  14.852   5.192
25169SOL    HW177339   0.778  14.856   5.175
25169SOL    HW277340   0.645   0.028   5.126
25170SOL     OW77341   7.729   6.434  12.833
25170SOL    HW177342   7.805   6.493  12.836
25170SOL    HW277343   7.743   6.382  12.754
25171SOL     OW77344   4.897   7.304   9.204
25171SOL    HW177345   4.970   7.326   9.262
25171SOL    HW277346   4.828   7.365   9.229
25172SOL     OW77347   7.534  10.794   6.678
25172SOL    HW177348   7.623  10.812   6.649
25172SOL    HW277349   7.482  10.797   6.599
25173SOL     OW77350   9.081  11.391   3.284
25173SOL    HW177351   9.154  11.329   3.280
25173SOL    HW277352   9.011  11.342   3.326
25174SOL     OW77353  13.574  12.536  13.069
25174SOL    HW177354  13.495  12.575  13.107
25174SOL    HW277355  13.600  12.470  13.133
25175SOL     OW77356   0.325  12.437  12.894
25175SOL    HW177357   0.269  12.366  12.862
25175SOL    HW277358   0.321  12.504  12.826
25176SOL     OW77359   4.907  12.343   8.294
25176SOL    HW177360   4.908  12.374   8.203
25176SOL    HW277361   4.996  12.358   8.326
25177SOL     OW77362   9.028   1.722   6.829
25177SOL    HW177363   8.935   1.713   6.810
25177SOL    HW277364   9.033   1.786   6.899
25178SOL     OW77365   9.867   9.683   3.962
25178SOL    HW177366   9.799   9.629   3.922
25178SOL    HW277367   9.863   9.766   3.914
25179SOL     OW77368   1.470   2.977   1.674
25179SOL    HW177369   1.451   3.056   1.725
25179SOL    HW277370   1.388   2.928   1.674
25180SOL     OW77371  10.804   4.522  13.174
25180SOL    HW177372  10.850   4.466  13.111
25180SOL    HW277373  10.771   4.595  13.121
25181SOL     OW77374   4.244   4.481   9.005
25181SOL    HW177375   4.221   4.538   9.078
25181SOL    HW277376   4.339   4.473   9.009
25182SOL     OW77377  11.084   8.201   2.293
25182SOL    HW177378  11.155   8.157   2.247
25182SOL    HW277379  11.041   8.254   2.225
25183SOL     OW77380   3.284  13.410   3.925
25183SOL    HW177381   3.302  13.316   3.923
25183SOL    HW277382   3.189  13.416   3.937
25184SOL     OW77383   9.855   6.499   4.330
25184SOL    HW177384   9.906   6.562   4.380
25184SOL    HW277385   9.904   6.417   4.338
25185SOL     OW77386   1.124  11.012  11.154
25185SOL    HW177387   1.140  11.104  11.172
25185SOL    HW277388   1.209  10.978  11.127
25186SOL     OW77389  12.770   9.367  10.415
25186SOL    HW177390  12.833   9.398  10.480
25186SOL    HW277391  12.714   9.306  10.463
25187SOL     OW77392   3.321   5.685   8.355
25187SOL    HW177393   3.325   5.589   8.352
25187SOL    HW277394   3.230   5.705   8.332
25188SOL     OW77395   0.899   2.188   0.657
25188SOL    HW177396   0.890   2.138   0.576
25188SOL    HW277397   0.883   2.279   0.631
25189SOL     OW77398   6.589  14.181   2.535
25189SOL    HW177399   6.574  14.186   2.441
25189SOL    HW277400   6.634  14.262   2.557
25190SOL     OW77401   9.331  12.571   0.684
25190SOL    HW177402   9.321  12.507   0.755
25190SOL    HW277403   9.287  12.650   0.716
25191SOL     OW77404   7.393   0.852   8.188
25191SOL    HW177405   7.309   0.808   8.200
25191SOL    HW277406   7.372   0.929   8.135
25192SOL     OW77407  14.179   1.296   6.442
25192SOL    HW177408  14.255   1.273   6.495
25192SOL    HW277409  14.142   1.373   6.485
25193SOL     OW77410   7.939  13.822   4.212
25193SOL    HW177411   7.865  13.764   4.230
25193SOL    HW277412   7.971  13.794   4.126
25194SOL     OW77413  14.214   9.286   6.193
25194SOL    HW177414  14.193   9.196   6.167
25194SOL    HW277415  14.284   9.276   6.257
25195SOL     OW77416   8.566   0.677  10.615
25195SOL    HW177417   8.510   0.602  10.594
25195SOL    HW277418   8.614   0.650  10.693
25196SOL     OW77419   1.328  10.971   4.900
25196SOL    HW177420   1.345  10.898   4.960
25196SOL    HW277421   1.237  10.996   4.918
25197SOL     OW77422   8.298   5.634  14.828
25197SOL    HW177423   8.271   5.567   0.009
25197SOL    HW277424   8.363   5.589  14.772
25198SOL     OW77425  10.957   1.107   8.151
25198SOL    HW177426  10.863   1.100   8.138
25198SOL    HW277427  10.969   1.193   8.192
25199SOL     OW77428   8.770  13.699   2.172
25199SOL    HW177429   8.680  13.721   2.146
25199SOL    HW277430   8.777  13.730   2.262
25200SOL     OW77431   0.525   7.066   1.319
25200SOL    HW177432   0.555   7.009   1.248
25200SOL    HW277433   0.490   7.006   1.385
25201SOL     OW77434   8.632  13.057   0.130
25201SOL    HW177435   8.585  13.013   0.201
25201SOL    HW277436   8.581  13.036   0.051
25202SOL     OW77437  14.842   8.486  13.123
25202SOL    HW177438  14.865   8.428  13.196
25202SOL    HW277439  14.841   8.429  13.047
25203SOL     OW77440   9.821  12.837  11.998
25203SOL    HW177441   9.846  12.748  11.971
25203SOL    HW277442   9.757  12.864  11.932
25204SOL     OW77443  12.580   2.870  10.488
25204SOL    HW177444  12.674   2.882  10.483
25204SOL    HW277445  12.568   2.782  10.524
25205SOL     OW77446   7.673  10.887   5.166
25205SOL    HW177447   7.729  10.820   5.207
25205SOL    HW277448   7.674  10.865   5.073
25206SOL     OW77449   8.395   4.121  12.722
25206SOL    HW177450   8.410   4.185  12.792
25206SOL    HW277451   8.334   4.057  12.760
25207SOL     OW77452  10.060   4.836  14.854
25207SOL    HW177453  10.112   4.863  14.778
25207SOL    HW277454  10.075   4.741  14.860
25208SOL     OW77455   9.936   2.811   0.580
25208SOL    HW177456  10.015   2.781   0.624
25208SOL    HW277457   9.962   2.891   0.534
25209SOL     OW77458   9.016  13.793   4.712
25209SOL    HW177459   8.953  13.828   4.649
25209SOL    HW277460   8.977  13.811   4.797
25210SOL     OW77461  13.176  12.628   9.358
25210SOL    HW177462  13.166  12.656   9.449
25210SOL    HW277463  13.137  12.541   9.355
25211SOL     OW77464   7.965  14.830   4.200
25211SOL    HW177465   8.055  14.849   4.171
25211SOL    HW277466   7.937   0.028   4.245
25212SOL     OW77467   5.658   5.273   9.458
25212SOL    HW177468   5.749   5.263   9.484
25212SOL    HW277469   5.611   5.203   9.503
25213SOL     OW77470   7.523   5.661   1.627
25213SOL    HW177471   7.500   5.677   1.535
25213SOL    HW277472   7.454   5.706   1.677
25214SOL     OW77473  10.735  12.739   1.962
25214SOL    HW177474  10.829  12.727   1.952
25214SOL    HW277475  10.715  12.700   2.048
25215SOL     OW77476   1.140  12.854   2.043
25215SOL    HW177477   1.101  12.921   2.099
25215SOL    HW277478   1.107  12.771   2.078
25216SOL     OW77479  12.688  13.590   0.864
25216SOL    HW177480  12.757  13.528   0.840
25216SOL    HW277481  12.659  13.563   0.951
25217SOL     OW77482  10.487   0.410   6.920
25217SOL    HW177483  10.555   0.351   6.955
25217SOL    HW277484  10.489   0.394   6.826
25218SOL     OW77485   4.756  11.070  13.296
25218SOL    HW177486   4.663  11.092  13.307
25218SOL    HW277487   4.760  11.029  13.209
25219SOL     OW77488   4.253  13.942  13.579
25219SOL    HW177489   4.339  13.961  13.617
25219SOL    HW277490   4.260  13.969  13.488
25220SOL     OW77491   4.089  12.570  14.323
25220SOL    HW177492   4.023  12.639  14.312
25220SOL    HW277493   4.128  12.560  14.236
25221SOL     OW77494   9.721  11.287   1.547
25221SOL    HW177495   9.637  11.242   1.533
25221SOL    HW277496   9.782  11.241   1.489
25222SOL     OW77497   9.308   8.368  12.483
25222SOL    HW177498   9.226   8.377  12.435
25222SOL    HW277499   9.358   8.447  12.461
25223SOL     OW77500   8.882  13.431   8.635
25223SOL    HW177501   8.894  13.342   8.669
25223SOL    HW277502   8.964  13.452   8.591
25224SOL     OW77503   3.184   6.134   5.096
25224SOL    HW177504   3.142   6.056   5.060
25224SOL    HW277505   3.183   6.197   5.024
25225SOL     OW77506   1.195   5.990   5.914
25225SOL    HW177507   1.258   5.921   5.932
25225SOL    HW277508   1.185   6.036   5.997
25226SOL     OW77509  14.111  14.674  12.825
25226SOL    HW177510  14.173  14.682  12.898
25226SOL    HW277511  14.106  14.762  12.788
25227SOL     OW77512  10.248  12.692   0.756
25227SOL    HW177513  10.258  12.782   0.727
25227SOL    HW277514  10.167  12.662   0.715
25228SOL     OW77515   4.211   8.276  12.263
25228SOL    HW177516   4.158   8.303  12.188
25228SOL    HW277517   4.269   8.208  12.228
25229SOL     OW77518   6.409   6.879  11.419
25229SOL    HW177519   6.343   6.824  11.461
25229SOL    HW277520   6.359   6.946  11.372
25230SOL     OW77521   4.625   9.087  12.088
25230SOL    HW177522   4.592   9.154  12.147
25230SOL    HW277523   4.677   9.135  12.023
25231SOL     OW77524   4.657  12.788  12.985
25231SOL    HW177525   4.705  12.726  12.931
25231SOL    HW277526   4.601  12.836  12.924
25232SOL     OW77527  13.181  11.440  14.226
25232SOL    HW177528  13.252  11.457  14.164
25232SOL    HW277529  13.126  11.519  14.222
25233SOL     OW77530  14.268   9.894  11.301
25233SOL    HW177531  14.216   9.820  11.332
25233SOL    HW277532  14.205   9.952  11.259
25234SOL     OW77533   6.028  10.874   9.781
25234SOL    HW177534   5.958  10.936   9.761
25234SOL    HW277535   6.037  10.822   9.702
25235SOL     OW77536  13.526   4.061   6.579
25235SOL    HW177537  13.597   4.124   6.570
25235SOL    HW277538  13.450   4.105   6.541
25236SOL     OW77539   1.733   5.509   6.395
25236SOL    HW177540   1.681   5.429   6.390
25236SOL    HW277541   1.740   5.528   6.489
25237SOL     OW77542  10.390   6.099   8.933
25237SOL    HW177543  10.478   6.090   8.969
25237SOL    HW277544  10.404   6.133   8.844
25238SOL     OW77545   3.477  10.761   0.904
25238SOL    HW177546   3.551  10.701   0.918
25238SOL    HW277547   3.401  10.704   0.894
25239SOL     OW77548  13.658   4.128   3.280
25239SOL    HW177549  13.722   4.098   3.215
25239SOL    HW277550  13.645   4.053   3.337
25240SOL     OW77551  14.669   0.379   5.575
25240SOL    HW177552  14.718   0.381   5.493
25240SOL    HW277553  14.707   0.305   5.624
25241SOL     OW77554   7.167   0.525  11.930
25241SOL    HW177555   7.074   0.545  11.924
25241SOL    HW277556   7.174   0.468  12.006
25242SOL     OW77557   0.609   4.788  11.495
25242SOL    HW177558   0.635   4.701  11.464
25242SOL    HW277559   0.516   4.794  11.474
25243SOL     OW77560  11.563   1.405   9.168
25243SOL    HW177561  11.484   1.401   9.114
25243SOL    HW277562  11.557   1.330   9.227
25244SOL     OW77563   3.655   8.309   2.343
25244SOL    HW177564   3.562   8.325   2.324
25244SOL    HW277565   3.700   8.331   2.261
25245SOL     OW77566  12.752   4.643   8.400
25245SOL    HW177567  12.841   4.636   8.365
25245SOL    HW277568  12.760   4.611   8.490
25246SOL     OW77569   3.414   6.722   9.351
25246SOL    HW177570   3.335   6.679   9.320
25246SOL    HW277571   3.466   6.652   9.391
25247SOL     OW77572  11.336  12.199   3.792
25247SOL    HW177573  11.282  12.269   3.830
25247SOL    HW277574  11.401  12.180   3.859
25248SOL     OW77575  11.456   9.002   4.419
25248SOL    HW177576  11.469   9.027   4.510
25248SOL    HW277577  11.528   9.045   4.372
25249SOL     OW77578   4.168   3.466  10.656
25249SOL    HW177579   4.217   3.416  10.721
25249SOL    HW277580   4.234   3.498  10.595
25250SOL     OW77581   6.272  10.175  14.028
25250SOL    HW177582   6.276  10.234  14.103
25250SOL    HW277583   6.346  10.115  14.040
25251SOL     OW77584   3.751   4.272  12.314
25251SOL    HW177585   3.707   4.260  12.230
25251SOL    HW277586   3.726   4.360  12.342
25252SOL     OW77587  12.149   7.902  12.356
25252SOL    HW177588  12.207   7.851  12.299
25252SOL    HW277589  12.200   7.915  12.436
25253SOL     OW77590  13.567   3.077   9.371
25253SOL    HW177591  13.563   3.170   9.394
25253SOL    HW277592  13.483   3.058   9.329
25254SOL     OW77593   7.470   1.159  14.263
25254SOL    HW177594   7.563   1.134  14.266
25254SOL    HW277595   7.467   1.243  14.309
25255SOL     OW77596   5.880   7.127  12.601
25255SOL    HW177597   5.895   7.145  12.694
25255SOL    HW277598   5.785   7.128  12.591
25256SOL     OW77599  11.136  10.673   5.638
25256SOL    HW177600  11.184  10.742   5.591
25256SOL    HW277601  11.143  10.698   5.730
25257SOL     OW77602  12.948   3.130   1.911
25257SOL    HW177603  12.935   3.127   1.816
25257SOL    HW277604  13.003   3.207   1.925
25258SOL     OW77605   2.600  14.587  13.288
25258SOL    HW177606   2.603  14.521  13.219
25258SOL    HW277607   2.604  14.537  13.370
25259SOL     OW77608  11.453   1.644   1.223
25259SOL    HW177609  11.422   1.598   1.145
25259SOL    HW277610  11.406   1.727   1.222
25260SOL     OW77611   0.976   3.181   9.188
25260SOL    HW177612   0.940   3.209   9.103
25260SOL    HW277613   0.907   3.127   9.226
25261SOL     OW77614   2.806   0.575   2.868
25261SOL    HW177615   2.771   0.659   2.840
25261SOL    HW277616   2.898   0.577   2.842
25262SOL     OW77617   8.561  13.886   5.221
25262SOL    HW177618   8.563  13.792   5.243
25262SOL    HW277619   8.648  13.918   5.245
25263SOL     OW77620  11.745   8.686   7.887
25263SOL    HW177621  11.816   8.626   7.862
25263SOL    HW277622  11.769   8.715   7.975
25264SOL     OW77623   5.777   0.830   8.356
25264SOL    HW177624   5.776   0.787   8.270
25264SOL    HW277625   5.703   0.890   8.353
25265SOL     OW77626  11.325  10.233   7.074
25265SOL    HW177627  11.269  10.251   7.150
25265SOL    HW277628  11.279  10.165   7.025
25266SOL     OW77629  12.392   5.049   1.346
25266SOL    HW177630  12.432   5.117   1.400
25266SOL    HW277631  12.454   4.977   1.348
25267SOL     OW77632  13.580   8.048   9.264
25267SOL    HW177633  13.552   8.039   9.173
25267SOL    HW277634  13.643   8.119   9.262
25268SOL     OW77635  12.811   6.777  11.233
25268SOL    HW177636  12.757   6.703  11.260
25268SOL    HW277637  12.901   6.743  11.234
25269SOL     OW77638   1.054  10.347  10.441
25269SOL    HW177639   1.067  10.293  10.364
25269SOL    HW277640   1.019  10.430  10.407
25270SOL     OW77641   1.043   8.186   9.105
25270SOL    HW177642   1.035   8.141   9.021
25270SOL    HW277643   1.015   8.276   9.087
25271SOL     OW77644   1.787   8.111   4.278
25271SOL    HW177645   1.822   8.025   4.301
25271SOL    HW277646   1.812   8.122   4.186
25272SOL     OW77647   7.249   5.943   6.278
25272SOL    HW177648   7.299   5.989   6.345
25272SOL    HW277649   7.195   6.012   6.237
25273SOL     OW77650   9.524   0.054  13.705
25273SOL    HW177651   9.518   0.111  13.782
25273SOL    HW277652   9.587   0.098  13.647
25274SOL     OW77653   3.269   5.312   7.144
25274SOL    HW177654   3.349   5.347   7.183
25274SOL    HW277655   3.199   5.345   7.199
25275SOL     OW77656   8.167   5.387   6.699
25275SOL    HW177657   8.220   5.464   6.722
25275SOL    HW277658   8.083   5.403   6.741
25276SOL     OW77659  11.999   9.717  13.413
25276SOL    HW177660  12.069   9.732  13.476
25276SOL    HW277661  12.005   9.625  13.390
25277SOL     OW77662  14.157   7.921   1.749
25277SOL    HW177663  14.128   8.006   1.716
25277SOL    HW277664  14.076   7.871   1.759
25278SOL     OW77665  11.769   7.522  10.901
25278SOL    HW177666  11.686   7.540  10.856
25278SOL    HW277667  11.835   7.567  10.849
25279SOL     OW77668   8.705   3.960  10.133
25279SOL    HW177669   8.796   3.951  10.161
25279SOL    HW277670   8.696   4.052  10.110
25280SOL     OW77671  11.286   8.817   6.600
25280SOL    HW177672  11.255   8.897   6.642
25280SOL    HW277673  11.362   8.791   6.651
25281SOL     OW77674  10.629  11.841  14.278
25281SOL    HW177675  10.598  11.824  14.189
25281SOL    HW277676  10.551  11.830  14.333
25282SOL     OW77677   9.343   8.596  12.226
25282SOL    HW177678   9.299   8.514  12.204
25282SOL    HW277679   9.382   8.580  12.312
25283SOL     OW77680  12.571  13.749   9.384
25283SOL    HW177681  12.614  13.789   9.308
25283SOL    HW277682  12.516  13.819   9.420
25284SOL     OW77683   3.664  11.873   2.495
25284SOL    HW177684   3.588  11.816   2.480
25284SOL    HW277685   3.707  11.877   2.409
25285SOL     OW77686  14.388  11.984  10.141
25285SOL    HW177687  14.380  12.068  10.094
25285SOL    HW277688  14.324  11.927  10.099
25286SOL     OW77689   3.355  13.249   5.542
25286SOL    HW177690   3.308  13.190   5.601
25286SOL    HW277691   3.435  13.202   5.521
25287SOL     OW77692  14.554   0.082  11.785
25287SOL    HW177693  14.646   0.092  11.762
25287SOL    HW277694  14.507   0.132  11.718
25288SOL     OW77695   5.098   7.048   2.665
25288SOL    HW177696   5.157   7.123   2.666
25288SOL    HW277697   5.072   7.036   2.756
25289SOL     OW77698  13.165   0.575  13.165
25289SOL    HW177699  13.099   0.540  13.225
25289SOL    HW277700  13.138   0.545  13.079
25290SOL     OW77701   2.120   2.322   8.360
25290SOL    HW177702   2.103   2.251   8.422
25290SOL    HW277703   2.204   2.358   8.388
25291SOL     OW77704   7.979  13.655   0.803
25291SOL    HW177705   8.054  13.603   0.772
25291SOL    HW277706   8.005  13.683   0.891
25292SOL     OW77707   7.113  10.693  13.709
25292SOL    HW177708   7.067  10.748  13.645
25292SOL    HW277709   7.170  10.754  13.756
25293SOL     OW77710   3.985  13.707   1.551
25293SOL    HW177711   3.988  13.778   1.487
25293SOL    HW277712   4.009  13.629   1.501
25294SOL     OW77713   3.391  12.785   9.176
25294SOL    HW177714   3.411  12.702   9.132
25294SOL    HW277715   3.430  12.777   9.263
25295SOL     OW77716  12.826   7.730  13.137
25295SOL    HW177717  12.814   7.777  13.220
25295SOL    HW277718  12.914   7.755  13.108
25296SOL     OW77719   4.666  10.682   3.598
25296SOL    HW177720   4.705  10.761   3.636
25296SOL    HW277721   4.655  10.623   3.673
25297SOL     OW77722   9.529  14.508   5.626
25297SOL    HW177723   9.531  14.556   5.543
25297SOL    HW277724   9.517  14.576   5.693
25298SOL     OW77725  11.090   9.525   2.350
25298SOL    HW177726  11.184   9.510   2.344
25298SOL    HW277727  11.060   9.463   2.416
25299SOL     OW77728  10.719   0.575   6.556
25299SOL    HW177729  10.758   0.584   6.469
25299SOL    HW277730  10.769   0.505   6.598
25300SOL     OW77731   9.220  14.821   0.139
25300SOL    HW177732   9.231  14.761   0.064
25300SOL    HW277733   9.195   0.022   0.099
25301SOL     OW77734  14.343   5.145   8.845
25301SOL    HW177735  14.364   5.061   8.886
25301SOL    HW277736  14.320   5.122   8.755
25302SOL     OW77737  11.166   6.212  13.690
25302SOL    HW177738  11.087   6.265  13.680
25302SOL    HW277739  11.230   6.272  13.729
25303SOL     OW77740   8.003  14.734   2.343
25303SOL    HW177741   8.043  14.777   2.418
25303SOL    HW277742   7.909  14.736   2.362
25304SOL     OW77743   4.674  11.370   4.861
25304SOL    HW177744   4.598  11.381   4.919
25304SOL    HW277745   4.648  11.415   4.780
25305SOL     OW77746  11.099   3.420  12.536
25305SOL    HW177747  11.164   3.353  12.514
25305SOL    HW277748  11.017   3.373  12.544
25306SOL     OW77749  12.789  13.871  10.741
25306SOL    HW177750  12.847  13.832  10.806
25306SOL    HW277751  12.703  13.870  10.782
25307SOL     OW77752  13.096  11.547   4.707
25307SOL    HW177753  13.026  11.550   4.773
25307SOL    HW277754  13.176  11.563   4.757
25308SOL     OW77755   5.511   9.234   7.541
25308SOL    HW177756   5.474   9.321   7.521
25308SOL    HW277757   5.471   9.176   7.476
25309SOL     OW77758  11.628   9.227   3.863
25309SOL    HW177759  11.623   9.183   3.778
25309SOL    HW277760  11.541   9.264   3.877
25310SOL     OW77761  10.758   4.261   0.738
25310SOL    HW177762  10.778   4.292   0.650
25310SOL    HW277763  10.703   4.184   0.724
25311SOL     OW77764  12.253   4.813   9.578
25311SOL    HW177765  12.280   4.722   9.584
25311SOL    HW277766  12.289   4.843   9.494
25312SOL     OW77767   0.613   6.348  10.389
25312SOL    HW177768   0.582   6.437  10.373
25312SOL    HW277769   0.592   6.301  10.308
25313SOL     OW77770   8.924   0.893  10.115
25313SOL    HW177771   8.975   0.848  10.183
25313SOL    HW277772   8.962   0.862  10.033
25314SOL     OW77773   6.778   2.861  10.135
25314SOL    HW177774   6.821   2.890  10.055
25314SOL    HW277775   6.849   2.823  10.188
25315SOL     OW77776   4.757  14.809   8.461
25315SOL    HW177777   4.777  14.816   8.367
25315SOL    HW277778   4.838  14.834   8.505
25316SOL     OW77779   9.236   5.318   6.723
25316SOL    HW177780   9.173   5.373   6.677
25316SOL    HW277781   9.296   5.381   6.764
25317SOL     OW77782   5.921   3.430   9.989
25317SOL    HW177783   5.919   3.395   9.900
25317SOL    HW277784   5.967   3.514   9.981
25318SOL     OW77785  14.313   3.010  12.284
25318SOL    HW177786  14.357   2.995  12.201
25318SOL    HW277787  14.379   3.055  12.338
25319SOL     OW77788   8.150   8.357  10.003
25319SOL    HW177789   8.069   8.404  10.024
25319SOL    HW277790   8.174   8.390   9.916
25320SOL     OW77791   5.049  14.407   8.593
25320SOL    HW177792   5.097  14.380   8.671
25320SOL    HW277793   5.078  14.496   8.576
25321SOL     OW77794  12.999   6.850   8.053
25321SOL    HW177795  13.042   6.765   8.066
25321SOL    HW277796  12.907   6.828   8.039
25322SOL     OW77797  10.013   7.392  10.239
25322SOL    HW177798   9.969   7.347  10.311
25322SOL    HW277799   9.980   7.348  10.160
25323SOL     OW77800   4.734   4.318   9.133
25323SOL    HW177801   4.779   4.381   9.190
25323SOL    HW277802   4.663   4.284   9.188
25324SOL     OW77803  14.766  10.084  13.110
25324SOL    HW177804  14.749  10.008  13.054
25324SOL    HW277805  14.792  10.153  13.049
25325SOL     OW77806   8.150   3.246  12.778
25325SOL    HW177807   8.067   3.236  12.825
25325SOL    HW277808   8.215   3.259  12.847
25326SOL     OW77809   1.679  13.749  10.409
25326SOL    HW177810   1.765  13.711  10.427
25326SOL    HW277811   1.656  13.715  10.323
25327SOL     OW77812  11.341   8.159   9.051
25327SOL    HW177813  11.390   8.209   8.985
25327SOL    HW277814  11.350   8.068   9.024
25328SOL     OW77815   6.046  10.340   9.352
25328SOL    HW177816   6.130  10.378   9.376
25328SOL    HW277817   6.049  10.335   9.256
25329SOL     OW77818  11.526   3.916   3.140
25329SOL    HW177819  11.446   3.967   3.134
25329SOL    HW277820  11.544   3.912   3.234
25330SOL     OW77821   2.964   4.784   6.435
25330SOL    HW177822   3.016   4.862   6.417
25330SOL    HW277823   3.029   4.714   6.447
25331SOL     OW77824  13.352   8.537   5.965
25331SOL    HW177825  13.429   8.531   6.021
25331SOL    HW277826  13.295   8.465   5.994
25332SOL     OW77827   8.339  12.247   5.718
25332SOL    HW177828   8.419  12.201   5.695
25332SOL    HW277829   8.339  12.325   5.663
25333SOL     OW77830   3.130  13.816  12.772
25333SOL    HW177831   3.212  13.859  12.749
25333SOL    HW277832   3.063  13.885  12.764
25334SOL     OW77833   2.266  13.663   7.768
25334SOL    HW177834   2.195  13.692   7.711
25334SOL    HW277835   2.284  13.737   7.825
25335SOL     OW77836   6.378  14.277  11.379
25335SOL    HW177837   6.338  14.362  11.360
25335SOL    HW277838   6.449  14.269  11.315
25336SOL     OW77839   2.233   6.282  13.952
25336SOL    HW177840   2.155   6.226  13.959
25336SOL    HW277841   2.295   6.243  14.013
25337SOL     OW77842   3.288   8.220   7.787
25337SOL    HW177843   3.270   8.131   7.757
25337SOL    HW277844   3.338   8.208   7.868
25338SOL     OW77845  11.208   8.309   0.933
25338SOL    HW177846  11.120   8.344   0.949
25338SOL    HW277847  11.195   8.241   0.867
25339SOL     OW77848   7.713   2.303   6.967
25339SOL    HW177849   7.674   2.230   7.015
25339SOL    HW277850   7.730   2.369   7.035
25340SOL     OW77851   8.495   1.962  14.795
25340SOL    HW177852   8.469   1.950  14.704
25340SOL    HW277853   8.414   1.988  14.840
25341SOL     OW77854  10.044   0.814   7.929
25341SOL    HW177855  10.000   0.873   7.867
25341SOL    HW277856   9.975   0.787   7.990
25342SOL     OW77857   1.158  10.936  11.860
25342SOL    HW177858   1.217  10.953  11.787
25342SOL    HW277859   1.078  10.984  11.839
25343SOL     OW77860   2.490  10.773   1.864
25343SOL    HW177861   2.491  10.798   1.956
25343SOL    HW277862   2.546  10.836   1.820
25344SOL     OW77863   8.926  13.290   5.284
25344SOL    HW177864   8.834  13.262   5.289
25344SOL    HW277865   8.972  13.230   5.344
25345SOL     OW77866  14.814   7.340   2.033
25345SOL    HW177867  14.851   7.365   1.948
25345SOL    HW277868  14.720   7.353   2.023
25346SOL     OW77869   2.917   3.703   0.715
25346SOL    HW177870   2.879   3.696   0.628
25346SOL    HW277871   2.849   3.674   0.775
25347SOL     OW77872   9.189   0.558   6.064
25347SOL    HW177873   9.123   0.619   6.096
25347SOL    HW277874   9.150   0.471   6.074
25348SOL     OW77875  13.868  12.178  12.156
25348SOL    HW177876  13.800  12.125  12.115
25348SOL    HW277877  13.940  12.117  12.173
25349SOL     OW77878   1.272   3.016  10.663
25349SOL    HW177879   1.297   3.105  10.688
25349SOL    HW277880   1.194   3.027  10.609
25350SOL     OW77881   4.388   4.974  10.389
25350SOL    HW177882   4.476   4.944  10.415
25350SOL    HW277883   4.361   4.911  10.322
25351SOL     OW77884  13.682   2.929  12.093
25351SOL    HW177885  13.661   2.919  12.186
25351SOL    HW277886  13.643   3.013  12.069
25352SOL     OW77887   4.788   4.170  12.765
25352SOL    HW177888   4.836   4.244  12.804
25352SOL    HW277889   4.719   4.211  12.714
25353SOL     OW77890  14.518   0.097   9.950
25353SOL    HW177891  14.518   0.165   9.884
25353SOL    HW277892  14.438   0.047   9.934
25354SOL     OW77893   1.850  10.476   2.384
25354SOL    HW177894   1.823  10.396   2.340
25354SOL    HW277895   1.811  10.547   2.332
25355SOL     OW77896   9.540   0.114   3.100
25355SOL    HW177897   9.550   0.206   3.124
25355SOL    HW277898   9.592   0.067   3.165
25356SOL     OW77899   7.189   1.240   6.423
25356SOL    HW177900   7.150   1.171   6.477
25356SOL    HW277901   7.283   1.227   6.433
25357SOL     OW77902   1.192   7.202   9.621
25357SOL    HW177903   1.126   7.272   9.623
25357SOL    HW277904   1.141   7.121   9.622
25358SOL     OW77905   3.906  12.060  12.618
25358SOL    HW177906   3.918  12.019  12.532
25358SOL    HW277907   3.885  11.986  12.676
25359SOL     OW77908   8.009  11.628   1.655
25359SOL    HW177909   7.971  11.647   1.569
25359SOL    HW277910   7.997  11.533   1.666
25360SOL     OW77911  11.416   4.327   4.792
25360SOL    HW177912  11.447   4.324   4.882
25360SOL    HW277913  11.323   4.350   4.799
25361SOL     OW77914  14.395   8.448  12.733
25361SOL    HW177915  14.469   8.390  12.715
25361SOL    HW277916  14.427   8.508  12.801
25362SOL     OW77917  10.590  12.223  11.675
25362SOL    HW177918  10.495  12.221  11.684
25362SOL    HW277919  10.605  12.212  11.581
25363SOL     OW77920   8.444   2.914   4.630
25363SOL    HW177921   8.356   2.899   4.664
25363SOL    HW277922   8.437   2.898   4.536
25364SOL     OW77923  14.288   0.118  11.256
25364SOL    HW177924  14.211   0.132  11.311
25364SOL    HW277925  14.279   0.029  11.224
25365SOL     OW77926   0.285  14.710   7.886
25365SOL    HW177927   0.246  14.678   7.804
25365SOL    HW277928   0.293  14.632   7.940
25366SOL     OW77929   1.368   2.962  12.456
25366SOL    HW177930   1.305   3.034  12.447
25366SOL    HW277931   1.350   2.905  12.382
25367SOL     OW77932   8.659   8.302  14.179
25367SOL    HW177933   8.588   8.237  14.176
25367SOL    HW277934   8.737   8.254  14.152
25368SOL     OW77935  12.975   0.741  12.429
25368SOL    HW177936  13.042   0.725  12.362
25368SOL    HW277937  13.000   0.825  12.468
25369SOL     OW77938   6.403   1.003  13.200
25369SOL    HW177939   6.386   0.912  13.223
25369SOL    HW277940   6.429   1.045  13.282
25370SOL     OW77941   5.194   8.054  13.890
25370SOL    HW177942   5.289   8.046  13.882
25370SOL    HW277943   5.178   8.067  13.984
25371SOL     OW77944   6.993  12.858   3.296
25371SOL    HW177945   6.963  12.800   3.366
25371SOL    HW277946   7.088  12.866   3.311
25372SOL     OW77947  14.222   9.237   2.137
25372SOL    HW177948  14.146   9.293   2.122
25372SOL    HW277949  14.206   9.196   2.222
25373SOL     OW77950   4.500  11.649  10.268
25373SOL    HW177951   4.482  11.651  10.362
25373SOL    HW277952   4.592  11.625  10.262
25374SOL     OW77953   7.707   5.028  10.934
25374SOL    HW177954   7.632   4.999  10.987
25374SOL    HW277955   7.777   4.967  10.957
25375SOL     OW77956  10.766   3.222   2.715
25375SOL    HW177957  10.797   3.308   2.687
25375SOL    HW277958  10.734   3.181   2.634
25376SOL     OW77959  13.598   0.352   2.508
25376SOL    HW177960  13.508   0.321   2.510
25376SOL    HW277961  13.606   0.408   2.585
25377SOL     OW77962  12.673   9.392  12.272
25377SOL    HW177963  12.645   9.343  12.349
25377SOL    HW277964  12.759   9.358  12.250
25378SOL     OW77965  10.320   5.211  11.640
25378SOL    HW177966  10.227   5.192  11.624
25378SOL    HW277967  10.340   5.164  11.721
25379SOL     OW77968   6.920  13.119   4.666
25379SOL    HW177969   6.958  13.049   4.718
25379SOL    HW277970   6.861  13.165   4.726
25380SOL     OW77971  11.412   3.177   3.792
25380SOL    HW177972  11.384   3.119   3.862
25380SOL    HW277973  11.343   3.243   3.785
25381SOL     OW77974  14.722   2.784  13.979
25381SOL    HW177975  14.653   2.829  14.028
25381SOL    HW277976  14.793   2.772  14.043
25382SOL     OW77977  12.593  11.270  14.436
25382SOL    HW177978  12.513  11.302  14.478
25382SOL    HW277979  12.630  11.209  14.500
25383SOL     OW77980   8.744   7.189  11.316
25383SOL    HW177981   8.808   7.155  11.379
25383SOL    HW277982   8.780   7.166  11.230
25384SOL     OW77983  13.637  13.250  10.959
25384SOL    HW177984  13.651  13.334  10.916
25384SOL    HW277985  13.695  13.252  11.035
25385SOL     OW77986  11.576   3.027   1.355
25385SOL    HW177987  11.551   2.963   1.421
25385SOL    HW277988  11.545   2.990   1.272
25386SOL     OW77989   7.703   1.660   4.437
25386SOL    HW177990   7.733   1.750   4.427
25386SOL    HW277991   7.717   1.640   4.530
25387SOL     OW77992  10.368   6.601  13.682
25387SOL    HW177993  10.343   6.564  13.766
25387SOL    HW277994  10.455   6.564  13.663
25388SOL     OW77995   3.659  13.224   5.776
25388SOL    HW177996   3.749  13.203   5.753
25388SOL    HW277997   3.663  13.247   5.869
25389SOL     OW77998   5.270  11.972   6.905
25389SOL    HW177999   5.199  11.993   6.845
25389SOL    HW278000   5.346  12.018   6.869
25390SOL     OW78001   7.405   0.022   8.694
25390SOL    HW178002   7.368  14.819   8.720
25390SOL    HW278003   7.366   0.039   8.608
25391SOL     OW78004   7.395   0.545   9.884
25391SOL    HW178005   7.307   0.516   9.909
25391SOL    HW278006   7.411   0.623   9.938
25392SOL     OW78007   7.125   0.520  14.648
25392SOL    HW178008   7.048   0.576  14.660
25392SOL    HW278009   7.126   0.464  14.726
25393SOL     OW78010   0.486   2.548  10.544
25393SOL    HW178011   0.547   2.487  10.505
25393SOL    HW278012   0.427   2.573  10.473
25394SOL     OW78013   8.672   2.286   4.417
25394SOL    HW178014   8.696   2.331   4.336
25394SOL    HW278015   8.577   2.273   4.410
25395SOL     OW78016   7.624   4.389   9.644
25395SOL    HW178017   7.659   4.478   9.648
25395SOL    HW278018   7.677   4.340   9.706
25396SOL     OW78019   4.896   3.294  14.154
25396SOL    HW178020   4.849   3.220  14.193
25396SOL    HW278021   4.979   3.257  14.124
25397SOL     OW78022   1.828   2.992   5.329
25397SOL    HW178023   1.893   2.943   5.279
25397SOL    HW278024   1.744   2.951   5.305
25398SOL     OW78025  14.585  12.703  10.679
25398SOL    HW178026  14.653  12.749  10.728
25398SOL    HW278027  14.628  12.674  10.599
25399SOL     OW78028   7.085   0.840   8.431
25399SOL    HW178029   7.079   0.777   8.360
25399SOL    HW278030   7.142   0.799   8.495
25400SOL     OW78031  11.722   4.369  10.443
25400SOL    HW178032  11.718   4.274  10.450
25400SOL    HW278033  11.765   4.385  10.359
25401SOL     OW78034  13.066   3.656   6.394
25401SOL    HW178035  13.103   3.600   6.325
25401SOL    HW278036  13.111   3.740   6.384
25402SOL     OW78037   2.267   3.745   5.117
25402SOL    HW178038   2.234   3.681   5.054
25402SOL    HW278039   2.361   3.749   5.100
25403SOL     OW78040   8.130   8.500  13.654
25403SOL    HW178041   8.125   8.427  13.592
25403SOL    HW278042   8.189   8.562  13.612
25404SOL     OW78043   7.396   2.128  12.024
25404SOL    HW178044   7.413   2.040  12.059
25404SOL    HW278045   7.464   2.141  11.958
25405SOL     OW78046  11.986  13.822   8.972
25405SOL    HW178047  11.996  13.747   9.030
25405SOL    HW278048  11.984  13.898   9.031
25406SOL     OW78049   5.381  12.675  14.043
25406SOL    HW178050   5.378  12.770  14.054
25406SOL    HW278051   5.419  12.642  14.124
25407SOL     OW78052   6.314   0.459  12.301
25407SOL    HW178053   6.364   0.423  12.229
25407SOL    HW278054   6.239   0.400  12.312
25408SOL     OW78055  13.005  10.283  10.544
25408SOL    HW178056  12.965  10.310  10.627
25408SOL    HW278057  13.020  10.365  10.497
25409SOL     OW78058   1.092   0.396  12.638
25409SOL    HW178059   1.062   0.392  12.729
25409SOL    HW278060   1.146   0.318  12.627
25410SOL     OW78061  14.616  11.421   0.223
25410SOL    HW178062  14.544  11.359   0.239
25410SOL    HW278063  14.620  11.428   0.128
25411SOL     OW78064  11.926  10.803  13.247
25411SOL    HW178065  11.831  10.816  13.244
25411SOL    HW278066  11.962  10.879  13.201
25412SOL     OW78067   8.645   9.182   2.218
25412SOL    HW178068   8.703   9.108   2.200
25412SOL    HW278069   8.620   9.215   2.131
25413SOL     OW78070   4.084   1.422   3.387
25413SOL    HW178071   4.070   1.406   3.480
25413SOL    HW278072   4.134   1.346   3.357
25414SOL     OW78073  13.057  12.868  13.070
25414SOL    HW178074  12.981  12.890  13.123
25414SOL    HW278075  13.072  12.775  13.087
25415SOL     OW78076   3.716  10.950  12.325
25415SOL    HW178077   3.789  10.888  12.319
25415SOL    HW278078   3.742  11.023  12.269
25416SOL     OW78079   3.067  14.260   0.885
25416SOL    HW178080   3.119  14.183   0.861
25416SOL    HW278081   3.027  14.288   0.803
25417SOL     OW78082   0.785  13.575   0.510
25417SOL    HW178083   0.694  13.547   0.502
25417SOL    HW278084   0.786  13.634   0.585
25418SOL     OW78085   0.015  11.224   2.588
25418SOL    HW178086   0.079  11.273   2.639
25418SOL    HW278087  14.881  11.144   2.640
25419SOL     OW78088   2.828   8.396   5.344
25419SOL    HW178089   2.849   8.489   5.339
25419SOL    HW278090   2.889   8.355   5.284
25420SOL     OW78091   0.111   1.339   6.907
25420SOL    HW178092   0.071   1.262   6.868
25420SOL    HW278093   0.074   1.343   6.995
25421SOL     OW78094   3.817  12.455   2.653
25421SOL    HW178095   3.752  12.509   2.699
25421SOL    HW278096   3.849  12.394   2.720
25422SOL     OW78097   8.330   2.491   1.095
25422SOL    HW178098   8.276   2.510   1.171
25422SOL    HW278099   8.298   2.552   1.027
25423SOL     OW78100  10.352  13.498   5.304
25423SOL    HW178101  10.259  13.520   5.302
25423SOL    HW278102  10.358  13.416   5.256
25424SOL     OW78103  12.097   1.820   7.894
25424SOL    HW178104  12.055   1.749   7.846
25424SOL    HW278105  12.031   1.890   7.896
25425SOL     OW78106   7.194   8.887   2.657
25425SOL    HW178107   7.248   8.877   2.735
25425SOL    HW278108   7.126   8.820   2.666
25426SOL     OW78109   6.789   9.474  11.578
25426SOL    HW178110   6.845   9.410  11.622
25426SOL    HW278111   6.701   9.456  11.610
25427SOL     OW78112   8.447   8.063  13.437
25427SOL    HW178113   8.477   8.034  13.350
25427SOL    HW278114   8.525   8.103  13.476
25428SOL     OW78115   9.966  13.139   6.583
25428SOL    HW178116  10.006  13.146   6.497
25428SOL    HW278117   9.928  13.052   6.586
25429SOL     OW78118  10.245  12.345  10.273
25429SOL    HW178119  10.196  12.365  10.353
25429SOL    HW278120  10.252  12.250  10.273
25430SOL     OW78121  10.964   7.957   1.295
25430SOL    HW178122  11.020   7.880   1.307
25430SOL    HW278123  10.945   7.987   1.384
25431SOL     OW78124   4.009   4.921  10.360
25431SOL    HW178125   4.083   4.980  10.378
25431SOL    HW278126   3.978   4.947  10.273
25432SOL     OW78127   8.817  10.280   3.479
25432SOL    HW178128   8.832  10.309   3.389
25432SOL    HW278129   8.741  10.222   3.474
25433SOL     OW78130  12.080   8.963   8.726
25433SOL    HW178131  12.055   9.006   8.807
25433SOL    HW278132  11.998   8.952   8.678
25434SOL     OW78133   3.840   3.027   1.248
25434SOL    HW178134   3.897   3.028   1.171
25434SOL    HW278135   3.838   2.935   1.275
25435SOL     OW78136   3.188  13.284   3.155
25435SOL    HW178137   3.134  13.361   3.173
25435SOL    HW278138   3.126  13.211   3.150
25436SOL     OW78139   9.606   3.679   2.938
25436SOL    HW178140   9.655   3.747   2.891
25436SOL    HW278141   9.515   3.694   2.913
25437SOL     OW78142  10.098   6.189   1.529
25437SOL    HW178143  10.119   6.271   1.485
25437SOL    HW278144  10.169   6.175   1.591
25438SOL     OW78145   0.863   2.924   8.835
25438SOL    HW178146   0.814   2.881   8.766
25438SOL    HW278147   0.886   3.010   8.799
25439SOL     OW78148   5.087   4.296   9.423
25439SOL    HW178149   5.144   4.219   9.431
25439SOL    HW278150   5.011   4.275   9.477
25440SOL     OW78151   2.571   3.942   9.242
25440SOL    HW178152   2.550   3.856   9.279
25440SOL    HW278153   2.516   4.003   9.291
25441SOL     OW78154   3.424  13.653   1.960
25441SOL    HW178155   3.430  13.636   2.054
25441SOL    HW278156   3.500  13.608   1.922
25442SOL     OW78157  10.319   5.503   9.541
25442SOL    HW178158  10.325   5.577   9.481
25442SOL    HW278159  10.341   5.426   9.489
25443SOL     OW78160  10.743   9.545   8.530
25443SOL    HW178161  10.709   9.456   8.539
25443SOL    HW278162  10.667   9.602   8.538
25444SOL     OW78163   3.571   4.633  14.717
25444SOL    HW178164   3.624   4.605  14.792
25444SOL    HW278165   3.504   4.565  14.708
25445SOL     OW78166   4.056   8.108  13.571
25445SOL    HW178167   4.011   8.192  13.568
25445SOL    HW278168   4.139   8.124  13.525
25446SOL     OW78169   3.635   1.575   2.453
25446SOL    HW178170   3.723   1.537   2.451
25446SOL    HW278171   3.636   1.632   2.530
25447SOL     OW78172   8.003  14.080   4.215
25447SOL    HW178173   7.993  13.985   4.217
25447SOL    HW278174   8.096  14.094   4.200
25448SOL     OW78175   7.631  10.260  13.113
25448SOL    HW178176   7.675  10.177  13.096
25448SOL    HW278177   7.702  10.321  13.132
25449SOL     OW78178  13.382  11.531   8.288
25449SOL    HW178179  13.290  11.545   8.311
25449SOL    HW278180  13.384  11.446   8.246
25450SOL     OW78181   9.803   8.156   6.947
25450SOL    HW178182   9.852   8.081   6.913
25450SOL    HW278183   9.731   8.117   6.996
25451SOL     OW78184   8.057   1.180   5.231
25451SOL    HW178185   8.146   1.146   5.221
25451SOL    HW278186   8.006   1.135   5.164
25452SOL     OW78187  10.432   4.283   9.470
25452SOL    HW178188  10.371   4.294   9.543
25452SOL    HW278189  10.412   4.196   9.435
25453SOL     OW78190   8.823   1.582  10.777
25453SOL    HW178191   8.827   1.660  10.833
25453SOL    HW278192   8.745   1.534  10.808
25454SOL     OW78193   6.542   6.663  12.736
25454SOL    HW178194   6.505   6.730  12.678
25454SOL    HW278195   6.479   6.591  12.733
25455SOL     OW78196   8.754   9.288   5.073
25455SOL    HW178197   8.832   9.236   5.093
25455SOL    HW278198   8.683   9.224   5.069
25456SOL     OW78199   4.723   1.156   5.995
25456SOL    HW178200   4.805   1.204   5.987
25456SOL    HW278201   4.715   1.138   6.089
25457SOL     OW78202   3.144   4.479  14.689
25457SOL    HW178203   3.187   4.395  14.703
25457SOL    HW278204   3.215   4.543  14.686
25458SOL     OW78205   3.682   5.775  13.825
25458SOL    HW178206   3.671   5.813  13.912
25458SOL    HW278207   3.751   5.710  13.835
25459SOL     OW78208   8.278   8.947  10.012
25459SOL    HW178209   8.343   8.997   9.963
25459SOL    HW278210   8.267   8.866   9.962
25460SOL     OW78211  13.086  13.081   5.929
25460SOL    HW178212  13.135  13.037   5.999
25460SOL    HW278213  13.090  13.021   5.855
25461SOL     OW78214  10.053  13.295  14.023
25461SOL    HW178215  10.002  13.237  13.966
25461SOL    HW278216  10.121  13.331  13.966
25462SOL     OW78217  14.826  11.466   6.235
25462SOL    HW178218   0.007  11.425   6.294
25462SOL    HW278219  14.850  11.558   6.234
25463SOL     OW78220   1.158   2.133  13.888
25463SOL    HW178221   1.188   2.120  13.798
25463SOL    HW278222   1.065   2.153  13.880
25464SOL     OW78223   8.317  13.603   8.768
25464SOL    HW178224   8.245  13.588   8.830
25464SOL    HW278225   8.372  13.669   8.810
25465SOL     OW78226   7.810   3.445   4.312
25465SOL    HW178227   7.828   3.476   4.224
25465SOL    HW278228   7.741   3.503   4.344
25466SOL     OW78229  14.668   4.334  12.533
25466SOL    HW178230  14.733   4.342  12.603
25466SOL    HW278231  14.633   4.245  12.543
25467SOL     OW78232   8.808  13.173   4.246
25467SOL    HW178233   8.797  13.231   4.321
25467SOL    HW278234   8.810  13.230   4.170
25468SOL     OW78235   8.523  10.592  12.556
25468SOL    HW178236   8.472  10.516  12.528
25468SOL    HW278237   8.570  10.620  12.477
25469SOL     OW78238  13.043  12.015   3.027
25469SOL    HW178239  13.002  12.011   2.941
25469SOL    HW278240  13.132  11.983   3.014
25470SOL     OW78241   6.666   7.352   0.448
25470SOL    HW178242   6.752   7.374   0.484
25470SOL    HW278243   6.678   7.266   0.408
25471SOL     OW78244   1.601   7.933   2.590
25471SOL    HW178245   1.603   7.990   2.667
25471SOL    HW278246   1.563   7.987   2.520
25472SOL     OW78247  11.540   4.613   8.484
25472SOL    HW178248  11.482   4.570   8.547
25472SOL    HW278249  11.534   4.558   8.405
25473SOL     OW78250   4.478   1.382   8.418
25473SOL    HW178251   4.430   1.445   8.364
25473SOL    HW278252   4.515   1.434   8.489
25474SOL     OW78253   9.238   1.301   5.929
25474SOL    HW178254   9.156   1.256   5.950
25474SOL    HW278255   9.274   1.250   5.857
25475SOL     OW78256   3.211  10.769  13.828
25475SOL    HW178257   3.189  10.676  13.838
25475SOL    HW278258   3.141  10.815  13.874
25476SOL     OW78259   2.584   2.736  11.783
25476SOL    HW178260   2.664   2.757  11.830
25476SOL    HW278261   2.605   2.658  11.733
25477SOL     OW78262  14.170  14.406  13.600
25477SOL    HW178263  14.225  14.437  13.672
25477SOL    HW278264  14.109  14.345  13.642
25478SOL     OW78265  13.855  14.712   3.660
25478SOL    HW178266  13.819  14.657   3.729
25478SOL    HW278267  13.943  14.735   3.690
25479SOL     OW78268  13.578   2.261   9.536
25479SOL    HW178269  13.612   2.172   9.540
25479SOL    HW278270  13.484   2.252   9.546
25480SOL     OW78271   0.816  12.843  11.116
25480SOL    HW178272   0.888  12.784  11.096
25480SOL    HW278273   0.853  12.931  11.102
25481SOL     OW78274  13.133   6.551   9.162
25481SOL    HW178275  13.227   6.568   9.172
25481SOL    HW278276  13.109   6.500   9.239
25482SOL     OW78277  14.266  13.469   5.094
25482SOL    HW178278  14.307  13.464   5.007
25482SOL    HW278279  14.331  13.513   5.148
25483SOL     OW78280   4.729  10.967   6.040
25483SOL    HW178281   4.689  10.888   6.077
25483SOL    HW278282   4.760  10.940   5.954
25484SOL     OW78283   3.383   8.283   4.221
25484SOL    HW178284   3.432   8.208   4.254
25484SOL    HW278285   3.391   8.349   4.290
25485SOL     OW78286   4.932   1.978  11.287
25485SOL    HW178287   4.876   1.911  11.247
25485SOL    HW278288   4.903   2.060  11.247
25486SOL     OW78289   4.775   0.538   0.852
25486SOL    HW178290   4.790   0.467   0.915
25486SOL    HW278291   4.780   0.496   0.766
25487SOL     OW78292   0.134   5.606   1.606
25487SOL    HW178293   0.222   5.581   1.579
25487SOL    HW278294   0.114   5.548   1.680
25488SOL     OW78295   2.276   0.873  11.810
25488SOL    HW178296   2.355   0.839  11.852
25488SOL    HW278297   2.235   0.928  11.877
25489SOL     OW78298   4.415   6.044   5.480
25489SOL    HW178299   4.498   6.046   5.527
25489SOL    HW278300   4.349   6.060   5.547
25490SOL     OW78301  12.761   7.169   1.711
25490SOL    HW178302  12.763   7.261   1.736
25490SOL    HW278303  12.749   7.122   1.794
25491SOL     OW78304  10.265   5.464  14.055
25491SOL    HW178305  10.283   5.494  14.145
25491SOL    HW278306  10.316   5.522  14.000
25492SOL     OW78307   2.283  12.412  13.816
25492SOL    HW178308   2.365  12.443  13.852
25492SOL    HW278309   2.220  12.482  13.835
25493SOL     OW78310   3.840   3.292   3.427
25493SOL    HW178311   3.871   3.256   3.344
25493SOL    HW278312   3.842   3.386   3.414
25494SOL     OW78313  12.740   8.028  12.855
25494SOL    HW178314  12.814   8.049  12.912
25494SOL    HW278315  12.689   7.964  12.905
25495SOL     OW78316   7.195   9.943  14.061
25495SOL    HW178317   7.121   9.914  14.008
25495SOL    HW278318   7.160  10.014  14.115
25496SOL     OW78319   6.668   0.814   0.925
25496SOL    HW178320   6.739   0.777   0.977
25496SOL    HW278321   6.628   0.739   0.882
25497SOL     OW78322  14.295   4.438   3.997
25497SOL    HW178323  14.356   4.456   4.068
25497SOL    HW278324  14.312   4.507   3.933
25498SOL     OW78325   1.043  12.321   7.851
25498SOL    HW178326   1.109  12.354   7.912
25498SOL    HW278327   1.077  12.342   7.764
25499SOL     OW78328   5.603   5.092   7.829
25499SOL    HW178329   5.586   5.000   7.846
25499SOL    HW278330   5.680   5.093   7.773
25500SOL     OW78331   2.723  11.832   2.207
25500SOL    HW178332   2.671  11.816   2.128
25500SOL    HW278333   2.669  11.892   2.259
25501SOL     OW78334  12.563   2.169   7.976
25501SOL    HW178335  12.482   2.138   8.017
25501SOL    HW278336  12.632   2.118   8.018
25502SOL     OW78337   4.446   8.976   0.163
25502SOL    HW178338   4.516   8.925   0.203
25502SOL    HW278339   4.475   9.067   0.171
25503SOL     OW78340  14.241   1.785   0.121
25503SOL    HW178341  14.175   1.724   0.153
25503SOL    HW278342  14.196   1.837   0.054
25504SOL     OW78343   6.454  10.616   7.423
25504SOL    HW178344   6.468  10.562   7.346
25504SOL    HW278345   6.512  10.692   7.410
25505SOL     OW78346  13.185  13.330   4.099
25505SOL    HW178347  13.193  13.411   4.149
25505SOL    HW278348  13.273  13.291   4.101
25506SOL     OW78349   4.225  11.335   3.948
25506SOL    HW178350   4.178  11.370   4.023
25506SOL    HW278351   4.295  11.398   3.931
25507SOL     OW78352   4.671   9.195   8.284
25507SOL    HW178353   4.601   9.250   8.250
25507SOL    HW278354   4.627   9.131   8.340
25508SOL     OW78355   8.817   5.445   1.958
25508SOL    HW178356   8.731   5.479   1.983
25508SOL    HW278357   8.819   5.454   1.862
25509SOL     OW78358   6.791   5.057   6.252
25509SOL    HW178359   6.874   5.011   6.264
25509SOL    HW278360   6.778   5.058   6.157
25510SOL     OW78361  12.208   2.332   8.276
25510SOL    HW178362  12.241   2.420   8.255
25510SOL    HW278363  12.218   2.325   8.371
25511SOL     OW78364   6.433   2.997   9.421
25511SOL    HW178365   6.438   3.081   9.375
25511SOL    HW278366   6.388   2.939   9.360
25512SOL     OW78367   6.133   3.796   7.347
25512SOL    HW178368   6.207   3.857   7.355
25512SOL    HW278369   6.137   3.765   7.257
25513SOL     OW78370  10.143   7.281   8.427
25513SOL    HW178371  10.139   7.283   8.331
25513SOL    HW278372  10.129   7.371   8.454
25514SOL     OW78373  13.265   8.735   8.938
25514SOL    HW178374  13.216   8.817   8.933
25514SOL    HW278375  13.343   8.750   8.885
25515SOL     OW78376   8.361   3.019   0.765
25515SOL    HW178377   8.286   3.075   0.780
25515SOL    HW278378   8.383   3.032   0.673
25516SOL     OW78379   7.673   0.822   1.451
25516SOL    HW178380   7.597   0.861   1.409
25516SOL    HW278381   7.715   0.771   1.383
25517SOL     OW78382  13.605  12.282  10.304
25517SOL    HW178383  13.676  12.301  10.243
25517SOL    HW278384  13.575  12.195  10.280
25518SOL     OW78385   4.126   5.243   6.124
25518SOL    HW178386   4.221   5.251   6.117
25518SOL    HW278387   4.108   5.151   6.105
25519SOL     OW78388  10.141  11.095   5.316
25519SOL    HW178389  10.227  11.103   5.273
25519SOL    HW278390  10.115  11.185   5.333
25520SOL     OW78391   2.881   9.988   5.065
25520SOL    HW178392   2.925   9.916   5.020
25520SOL    HW278393   2.898  10.065   5.010
25521SOL     OW78394  12.198   5.121   2.771
25521SOL    HW178395  12.167   5.181   2.838
25521SOL    HW278396  12.294   5.123   2.780
25522SOL     OW78397   3.812  13.891   8.533
25522SOL    HW178398   3.858  13.837   8.598
25522SOL    HW278399   3.797  13.975   8.578
25523SOL     OW78400  13.691  10.124  12.078
25523SOL    HW178401  13.630  10.190  12.045
25523SOL    HW278402  13.675  10.047  12.024
25524SOL     OW78403  10.617  14.605   3.267
25524SOL    HW178404  10.692  14.664   3.271
25524SOL    HW278405  10.545  14.659   3.235
25525SOL     OW78406   9.408  11.748   0.247
25525SOL    HW178407   9.430  11.680   0.184
25525SOL    HW278408   9.440  11.829   0.207
25526SOL     OW78409  10.794   0.941  12.976
25526SOL    HW178410  10.788   0.964  13.069
25526SOL    HW278411  10.867   0.993  12.943
25527SOL     OW78412   8.298   1.865   6.621
25527SOL    HW178413   8.222   1.829   6.666
25527SOL    HW278414   8.262   1.916   6.548
25528SOL     OW78415   6.146   9.245   7.278
25528SOL    HW178416   6.106   9.245   7.191
25528SOL    HW278417   6.235   9.211   7.264
25529SOL     OW78418   1.590  12.950   5.820
25529SOL    HW178419   1.667  12.901   5.791
25529SOL    HW278420   1.534  12.884   5.862
25530SOL     OW78421  14.508  14.053   5.274
25530SOL    HW178422  14.540  14.091   5.193
25530SOL    HW278423  14.568  13.981   5.293
25531SOL     OW78424   9.900  13.721  13.104
25531SOL    HW178425   9.834  13.690  13.165
25531SOL    HW278426   9.887  13.669  13.025
25532SOL     OW78427  11.097   8.789   2.959
25532SOL    HW178428  11.024   8.727   2.964
25532SOL    HW278429  11.136   8.774   2.873
25533SOL     OW78430  12.862   6.538   7.381
25533SOL    HW178431  12.886   6.454   7.341
25533SOL    HW278432  12.894   6.604   7.320
25534SOL     OW78433   7.558   9.929   9.088
25534SOL    HW178434   7.568   9.837   9.063
25534SOL    HW278435   7.543   9.975   9.005
25535SOL     OW78436  11.039   2.594   6.667
25535SOL    HW178437  11.042   2.608   6.572
25535SOL    HW278438  10.963   2.538   6.680
25536SOL     OW78439   3.968  13.739  10.458
25536SOL    HW178440   3.958  13.819  10.406
25536SOL    HW278441   4.047  13.754  10.510
25537SOL     OW78442   7.047  11.663   5.385
25537SOL    HW178443   7.041  11.573   5.351
25537SOL    HW278444   7.120  11.660   5.447
25538SOL     OW78445  11.815   2.081  11.116
25538SOL    HW178446  11.736   2.060  11.066
25538SOL    HW278447  11.887   2.058  11.058
25539SOL     OW78448   3.063   6.369   3.520
25539SOL    HW178449   3.139   6.418   3.488
25539SOL    HW278450   3.091   6.333   3.604
25540SOL     OW78451   1.544   6.205   3.113
25540SOL    HW178452   1.480   6.242   3.052
25540SOL    HW278453   1.621   6.188   3.060
25541SOL     OW78454   6.163   7.942   0.726
25541SOL    HW178455   6.171   8.005   0.653
25541SOL    HW278456   6.117   7.868   0.689
25542SOL     OW78457   3.839  14.684   8.742
25542SOL    HW178458   3.889  14.612   8.781
25542SOL    HW278459   3.878  14.763   8.779
25543SOL     OW78460  12.360  10.736   2.648
25543SOL    HW178461  12.453  10.755   2.661
25543SOL    HW278462  12.336  10.682   2.724
25544SOL     OW78463   5.636   7.524   6.700
25544SOL    HW178464   5.583   7.518   6.621
25544SOL    HW278465   5.712   7.468   6.682
25545SOL     OW78466  14.646   1.555  10.680
25545SOL    HW178467  14.737   1.525  10.681
25545SOL    HW278468  14.650   1.645  10.647
25546SOL     OW78469  12.986   7.309   3.559
25546SOL    HW178470  13.041   7.239   3.595
25546SOL    HW278471  12.908   7.309   3.615
25547SOL     OW78472   3.119   4.029   7.923
25547SOL    HW178473   3.046   4.090   7.920
25547SOL    HW278474   3.196   4.085   7.936
25548SOL     OW78475   4.688   6.991  12.447
25548SOL    HW178476   4.743   6.920  12.478
25548SOL    HW278477   4.636   7.017  12.523
25549SOL     OW78478   8.036   6.367  10.274
25549SOL    HW178479   8.118   6.327  10.246
25549SOL    HW278480   7.976   6.354  10.200
25550SOL     OW78481   8.205   3.826   3.280
25550SOL    HW178482   8.199   3.919   3.257
25550SOL    HW278483   8.291   3.817   3.321
25551SOL     OW78484  10.912   6.011   8.508
25551SOL    HW178485  10.940   6.038   8.595
25551SOL    HW278486  10.832   6.062   8.492
25552SOL     OW78487  12.676   5.196  10.240
25552SOL    HW178488  12.746   5.192  10.305
25552SOL    HW278489  12.657   5.104  10.220
25553SOL     OW78490   3.853   9.719   7.139
25553SOL    HW178491   3.778   9.748   7.087
25553SOL    HW278492   3.929   9.761   7.098
25554SOL     OW78493   2.051   1.700   4.243
25554SOL    HW178494   2.098   1.662   4.169
25554SOL    HW278495   2.115   1.700   4.314
25555SOL     OW78496  12.540   5.535   9.493
25555SOL    HW178497  12.553   5.515   9.401
25555SOL    HW278498  12.521   5.629   9.494
25556SOL     OW78499   6.516   1.770   9.559
25556SOL    HW178500   6.441   1.729   9.603
25556SOL    HW278501   6.500   1.755   9.466
25557SOL     OW78502   7.992   8.237  14.667
25557SOL    HW178503   7.910   8.278  14.640
25557SOL    HW278504   8.046   8.309  14.698
25558SOL     OW78505   6.856   3.721  12.080
25558SOL    HW178506   6.845   3.658  12.009
25558SOL    HW278507   6.767   3.747  12.103
25559SOL     OW78508  11.518  11.498  11.263
25559SOL    HW178509  11.493  11.455  11.182
25559SOL    HW278510  11.452  11.470  11.327
25560SOL     OW78511  12.095  14.493   8.210
25560SOL    HW178512  12.190  14.503   8.209
25560SOL    HW278513  12.078  14.417   8.153
25561SOL     OW78514  13.553  14.290   6.533
25561SOL    HW178515  13.524  14.299   6.624
25561SOL    HW278516  13.560  14.195   6.520
25562SOL     OW78517  10.657  14.364   1.733
25562SOL    HW178518  10.655  14.293   1.670
25562SOL    HW278519  10.707  14.433   1.690
25563SOL     OW78520  13.440   7.874  10.732
25563SOL    HW178521  13.452   7.800  10.673
25563SOL    HW278522  13.369   7.925  10.692
25564SOL     OW78523   1.960   8.271   4.930
25564SOL    HW178524   2.004   8.215   4.867
25564SOL    HW278525   1.999   8.248   5.014
25565SOL     OW78526   7.488  14.809   5.848
25565SOL    HW178527   7.570  14.763   5.832
25565SOL    HW278528   7.452  14.766   5.926
25566SOL     OW78529   6.085  13.156   1.659
25566SOL    HW178530   6.097  13.065   1.685
25566SOL    HW278531   5.995  13.177   1.686
25567SOL     OW78532   1.699  13.353   1.772
25567SOL    HW178533   1.792  13.355   1.748
25567SOL    HW278534   1.654  13.357   1.688
25568SOL     OW78535   9.157  11.094  13.313
25568SOL    HW178536   9.196  11.176  13.342
25568SOL    HW278537   9.084  11.121  13.258
25569SOL     OW78538   0.182  12.596  14.081
25569SOL    HW178539   0.267  12.580  14.040
25569SOL    HW278540   0.129  12.635  14.011
25570SOL     OW78541   3.590  12.459  10.880
25570SOL    HW178542   3.555  12.546  10.896
25570SOL    HW278543   3.517  12.410  10.841
25571SOL     OW78544   7.335  12.722  11.703
25571SOL    HW178545   7.360  12.792  11.764
25571SOL    HW278546   7.368  12.642  11.745
25572SOL     OW78547   2.813  11.413   5.606
25572SOL    HW178548   2.840  11.422   5.698
25572SOL    HW278549   2.718  11.404   5.610
25573SOL     OW78550   6.853   9.244  14.342
25573SOL    HW178551   6.782   9.303  14.316
25573SOL    HW278552   6.885   9.208  14.260
25574SOL     OW78553   4.431   1.841  14.669
25574SOL    HW178554   4.415   1.899  14.744
25574SOL    HW278555   4.466   1.899  14.601
25575SOL     OW78556  11.057   6.157   8.744
25575SOL    HW178557  10.978   6.194   8.705
25575SOL    HW278558  11.026   6.110   8.821
25576SOL     OW78559   0.416   0.917  13.994
25576SOL    HW178560   0.444   0.934  13.904
25576SOL    HW278561   0.397   1.004  14.030
25577SOL     OW78562  14.062   0.516  12.889
25577SOL    HW178563  14.045   0.521  12.983
25577SOL    HW278564  14.024   0.432  12.862
25578SOL     OW78565  14.602   5.049   0.275
25578SOL    HW178566  14.591   4.963   0.233
25578SOL    HW278567  14.679   5.086   0.234
25579SOL     OW78568   0.669   0.661   2.572
25579SOL    HW178569   0.587   0.708   2.556
25579SOL    HW278570   0.731   0.729   2.598
25580SOL     OW78571  11.732   3.730   6.638
25580SOL    HW178572  11.823   3.737   6.667
25580SOL    HW278573  11.686   3.688   6.711
25581SOL     OW78574  13.834   4.366  10.429
25581SOL    HW178575  13.922   4.393  10.402
25581SOL    HW278576  13.777   4.435  10.395
25582SOL     OW78577   4.767   2.820  10.966
25582SOL    HW178578   4.680   2.787  10.942
25582SOL    HW278579   4.786   2.780  11.051
25583SOL     OW78580  13.077  10.142  13.579
25583SOL    HW178581  13.155  10.154  13.526
25583SOL    HW278582  13.013  10.204  13.542
25584SOL     OW78583   1.251  12.006   2.135
25584SOL    HW178584   1.222  12.071   2.199
25584SOL    HW278585   1.308  12.054   2.076
25585SOL     OW78586   2.114   3.082   9.667
25585SOL    HW178587   2.145   3.110   9.580
25585SOL    HW278588   2.191   3.089   9.723
25586SOL     OW78589   4.851   9.443   4.844
25586SOL    HW178590   4.933   9.492   4.841
25586SOL    HW278591   4.828   9.428   4.753
25587SOL     OW78592   9.443   7.810   7.378
25587SOL    HW178593   9.412   7.888   7.331
25587SOL    HW278594   9.412   7.823   7.467
25588SOL     OW78595   5.355   0.851   8.678
25588SOL    HW178596   5.445   0.872   8.700
25588SOL    HW278597   5.304   0.879   8.754
25589SOL     OW78598  10.786   4.197   9.517
25589SOL    HW178599  10.853   4.156   9.463
25589SOL    HW278600  10.822   4.197   9.606
25590SOL     OW78601  12.666   3.912   7.428
25590SOL    HW178602  12.699   3.879   7.511
25590SOL    HW278603  12.572   3.902   7.434
25591SOL     OW78604   7.991   9.447   1.334
25591SOL    HW178605   7.936   9.454   1.412
25591SOL    HW278606   7.947   9.503   1.269
25592SOL     OW78607   8.403  11.157   1.074
25592SOL    HW178608   8.315  11.170   1.040
25592SOL    HW278609   8.440  11.246   1.078
25593SOL     OW78610   0.570   7.526   3.047
25593SOL    HW178611   0.580   7.619   3.067
25593SOL    HW278612   0.560   7.484   3.133
25594SOL     OW78613   9.042   5.714   7.289
25594SOL    HW178614   9.051   5.645   7.224
25594SOL    HW278615   9.006   5.789   7.241
25595SOL     OW78616  10.121  13.673  13.257
25595SOL    HW178617  10.041  13.668  13.204
25595SOL    HW278618  10.170  13.746  13.220
25596SOL     OW78619  10.106  11.235  12.800
25596SOL    HW178620  10.187  11.266  12.761
25596SOL    HW278621  10.112  11.259  12.892
25597SOL     OW78622   7.085  12.870  12.272
25597SOL    HW178623   7.137  12.790  12.282
25597SOL    HW278624   7.050  12.864  12.183
25598SOL     OW78625   6.825   9.091   0.044
25598SOL    HW178626   6.754   9.054   0.096
25598SOL    HW278627   6.800   9.183   0.031
25599SOL     OW78628   1.993  11.532   5.690
25599SOL    HW178629   1.974  11.571   5.605
25599SOL    HW278630   1.930  11.460   5.698
25600SOL     OW78631   9.712  10.124   3.418
25600SOL    HW178632   9.767  10.093   3.490
25600SOL    HW278633   9.753  10.090   3.339
25601SOL     OW78634  14.621   1.127  13.942
25601SOL    HW178635  14.616   1.035  13.967
25601SOL    HW278636  14.618   1.174  14.026
25602SOL     OW78637   6.772   5.187   6.728
25602SOL    HW178638   6.689   5.232   6.738
25602SOL    HW278639   6.771   5.119   6.796
25603SOL     OW78640   8.455   9.245   7.618
25603SOL    HW178641   8.361   9.242   7.635
25603SOL    HW278642   8.466   9.315   7.554
25604SOL     OW78643   0.453   2.320  11.106
25604SOL    HW178644   0.475   2.279  11.023
25604SOL    HW278645   0.398   2.255  11.151
25605SOL     OW78646  12.187   7.439   8.462
25605SOL    HW178647  12.243   7.368   8.433
25605SOL    HW278648  12.218   7.459   8.551
25606SOL     OW78649   6.766   2.284   0.216
25606SOL    HW178650   6.676   2.278   0.250
25606SOL    HW278651   6.810   2.206   0.250
25607SOL     OW78652   0.484   5.791   1.614
25607SOL    HW178653   0.525   5.859   1.561
25607SOL    HW278654   0.394   5.821   1.626
25608SOL     OW78655  13.504  14.612   0.597
25608SOL    HW178656  13.581  14.651   0.639
25608SOL    HW278657  13.462  14.685   0.551
25609SOL     OW78658   5.395  10.278  12.377
25609SOL    HW178659   5.442  10.342  12.431
25609SOL    HW278660   5.309  10.317  12.362
25610SOL     OW78661   6.476  10.377   2.550
25610SOL    HW178662   6.553  10.329   2.520
25610SOL    HW278663   6.417  10.378   2.474
25611SOL     OW78664  10.208   8.606  12.123
25611SOL    HW178665  10.147   8.579  12.055
25611SOL    HW278666  10.230   8.526  12.169
25612SOL     OW78667   1.861   6.185  10.731
25612SOL    HW178668   1.871   6.278  10.707
25612SOL    HW278669   1.828   6.143  10.651
25613SOL     OW78670   0.776   8.222   7.094
25613SOL    HW178671   0.737   8.135   7.088
25613SOL    HW278672   0.845   8.213   7.160
25614SOL     OW78673   4.393   0.448   6.671
25614SOL    HW178674   4.326   0.516   6.680
25614SOL    HW278675   4.395   0.429   6.577
25615SOL     OW78676  11.403  11.491  14.589
25615SOL    HW178677  11.488  11.499  14.545
25615SOL    HW278678  11.421  11.433  14.663
25616SOL     OW78679  11.668   3.224  11.155
25616SOL    HW178680  11.652   3.315  11.179
25616SOL    HW278681  11.721   3.229  11.076
25617SOL     OW78682   6.868   4.245   3.021
25617SOL    HW178683   6.958   4.217   3.007
25617SOL    HW278684   6.840   4.279   2.936
25618SOL     OW78685   4.866   8.050   2.259
25618SOL    HW178686   4.888   8.133   2.302
25618SOL    HW278687   4.834   7.994   2.330
25619SOL     OW78688   5.512   4.855  10.952
25619SOL    HW178689   5.493   4.763  10.933
25619SOL    HW278690   5.593   4.873  10.905
25620SOL     OW78691  10.185  12.192   4.363
25620SOL    HW178692  10.191  12.286   4.348
25620SOL    HW278693  10.108  12.165   4.314
25621SOL     OW78694   9.563   8.476   1.584
25621SOL    HW178695   9.631   8.477   1.517
25621SOL    HW278696   9.609   8.455   1.666
25622SOL     OW78697  13.403  11.799   0.776
25622SOL    HW178698  13.398  11.745   0.855
25622SOL    HW278699  13.312  11.819   0.754
25623SOL     OW78700   6.042   9.532   1.742
25623SOL    HW178701   6.134   9.556   1.752
25623SOL    HW278702   6.027   9.465   1.808
25624SOL     OW78703  12.597  11.477   9.489
25624SOL    HW178704  12.548  11.427   9.554
25624SOL    HW278705  12.671  11.421   9.467
25625SOL     OW78706   4.390  13.727   6.028
25625SOL    HW178707   4.335  13.785   6.081
25625SOL    HW278708   4.361  13.742   5.938
25626SOL     OW78709  12.413   2.417   4.862
25626SOL    HW178710  12.358   2.385   4.790
25626SOL    HW278711  12.433   2.508   4.838
25627SOL     OW78712   0.794   8.544   6.787
25627SOL    HW178713   0.832   8.627   6.816
25627SOL    HW278714   0.718   8.569   6.735
25628SOL     OW78715   4.671   8.079   7.781
25628SOL    HW178716   4.635   8.054   7.695
25628SOL    HW278717   4.743   8.017   7.795
25629SOL     OW78718   9.287   2.840  13.441
25629SOL    HW178719   9.208   2.894  13.455
25629SOL    HW278720   9.335   2.885  13.372
25630SOL     OW78721  12.146   5.637   5.305
25630SOL    HW178722  12.216   5.646   5.240
25630SOL    HW278723  12.151   5.718   5.357
25631SOL     OW78724   7.024   7.218   7.971
25631SOL    HW178725   7.082   7.189   7.901
25631SOL    HW278726   6.966   7.282   7.929
25632SOL     OW78727   0.818  10.850   1.888
25632SOL    HW178728   0.849  10.847   1.978
25632SOL    HW278729   0.896  10.866   1.835
25633SOL     OW78730  12.086   6.415   1.375
25633SOL    HW178731  12.067   6.330   1.334
25633SOL    HW278732  12.150   6.455   1.315
25634SOL     OW78733  14.040  13.647  14.174
25634SOL    HW178734  14.119  13.634  14.122
25634SOL    HW278735  13.970  13.657  14.110
25635SOL     OW78736   7.077   0.427   9.179
25635SOL    HW178737   7.078   0.454   9.087
25635SOL    HW278738   6.985   0.408   9.197
25636SOL     OW78739   7.830   6.236  14.732
25636SOL    HW178740   7.763   6.175  14.765
25636SOL    HW278741   7.781   6.297  14.677
25637SOL     OW78742  13.608   2.811  10.023
25637SOL    HW178743  13.542   2.869  10.061
25637SOL    HW278744  13.690   2.860  10.029
25638SOL     OW78745   8.574   6.640   7.574
25638SOL    HW178746   8.536   6.656   7.660
25638SOL    HW278747   8.627   6.561   7.585
25639SOL     OW78748  12.555   2.679  14.443
25639SOL    HW178749  12.523   2.618  14.509
25639SOL    HW278750  12.488   2.679  14.375
25640SOL     OW78751   3.714   1.545  10.078
25640SOL    HW178752   3.640   1.513  10.027
25640SOL    HW278753   3.696   1.638  10.092
25641SOL     OW78754  12.866   7.783  14.265
25641SOL    HW178755  12.911   7.755  14.185
25641SOL    HW278756  12.774   7.788  14.240
25642SOL     OW78757   2.678  10.733  12.461
25642SOL    HW178758   2.715  10.819  12.439
25642SOL    HW278759   2.604  10.753  12.519
25643SOL     OW78760   3.710  11.296   7.581
25643SOL    HW178761   3.752  11.250   7.654
25643SOL    HW278762   3.635  11.240   7.558
25644SOL     OW78763  10.110  13.156  10.313
25644SOL    HW178764  10.087  13.247  10.330
25644SOL    HW278765  10.135  13.121  10.399
25645SOL     OW78766   6.580  11.861  11.610
25645SOL    HW178767   6.612  11.808  11.537
25645SOL    HW278768   6.502  11.905  11.576
25646SOL     OW78769   7.729   9.320   2.130
25646SOL    HW178770   7.726   9.268   2.050
25646SOL    HW278771   7.738   9.410   2.100
25647SOL     OW78772   7.555   2.947   8.011
25647SOL    HW178773   7.516   2.902   7.936
25647SOL    HW278774   7.602   3.021   7.973
25648SOL     OW78775   3.325   3.174   6.734
25648SOL    HW178776   3.319   3.104   6.799
25648SOL    HW278777   3.405   3.221   6.758
25649SOL     OW78778   0.067   3.279   6.784
25649SOL    HW178779  14.875   3.225   6.810
25649SOL    HW278780   0.076   3.264   6.690
25650SOL     OW78781   9.246   8.414  11.574
25650SOL    HW178782   9.310   8.371  11.517
25650SOL    HW278783   9.161   8.391  11.535
25651SOL     OW78784   4.029   4.324   0.370
25651SOL    HW178785   4.001   4.233   0.368
25651SOL    HW278786   4.092   4.328   0.442
25652SOL     OW78787   8.850  10.304   2.940
25652SOL    HW178788   8.780  10.312   2.875
25652SOL    HW278789   8.922  10.357   2.905
25653SOL     OW78790   7.984  11.563   2.855
25653SOL    HW178791   7.980  11.579   2.760
25653SOL    HW278792   8.035  11.636   2.889
25654SOL     OW78793   2.624   6.090  10.242
25654SOL    HW178794   2.577   6.136  10.172
25654SOL    HW278795   2.700   6.051  10.199
25655SOL     OW78796   3.567   4.040  12.773
25655SOL    HW178797   3.534   4.014  12.687
25655SOL    HW278798   3.650   3.994  12.781
25656SOL     OW78799  14.211  13.855  10.503
25656SOL    HW178800  14.193  13.837  10.596
25656SOL    HW278801  14.275  13.925  10.504
25657SOL     OW78802  14.646   7.828   9.762
25657SOL    HW178803  14.639   7.904   9.820
25657SOL    HW278804  14.556   7.811   9.734
25658SOL     OW78805   7.995  14.720   4.465
25658SOL    HW178806   7.933  14.748   4.398
25658SOL    HW278807   8.042  14.646   4.425
25659SOL     OW78808   4.883   6.735  14.009
25659SOL    HW178809   4.870   6.819  13.965
25659SOL    HW278810   4.942   6.686  13.951
25660SOL     OW78811  10.305   3.150   8.091
25660SOL    HW178812  10.296   3.225   8.149
25660SOL    HW278813  10.314   3.188   8.003
25661SOL     OW78814  10.254   6.809   9.274
25661SOL    HW178815  10.200   6.865   9.219
25661SOL    HW278816  10.253   6.724   9.230
25662SOL     OW78817   4.004   7.903   4.793
25662SOL    HW178818   4.093   7.869   4.795
25662SOL    HW278819   3.987   7.930   4.883
25663SOL     OW78820   3.295  12.561  13.651
25663SOL    HW178821   3.335  12.636  13.693
25663SOL    HW278822   3.313  12.488  13.711
25664SOL     OW78823   8.365   5.204   3.732
25664SOL    HW178824   8.358   5.255   3.652
25664SOL    HW278825   8.342   5.266   3.802
25665SOL     OW78826   6.868   7.117   3.257
25665SOL    HW178827   6.857   7.212   3.254
25665SOL    HW278828   6.962   7.105   3.268
25666SOL     OW78829   4.065   2.057   7.650
25666SOL    HW178830   4.141   2.006   7.677
25666SOL    HW278831   4.001   1.991   7.622
25667SOL     OW78832   5.588  14.584   7.326
25667SOL    HW178833   5.602  14.535   7.245
25667SOL    HW278834   5.508  14.634   7.311
25668SOL     OW78835   4.956   1.571   6.677
25668SOL    HW178836   4.980   1.556   6.586
25668SOL    HW278837   5.036   1.607   6.717
25669SOL     OW78838  12.813   8.499   2.234
25669SOL    HW178839  12.738   8.548   2.270
25669SOL    HW278840  12.774   8.419   2.199
25670SOL     OW78841   6.574  11.442   0.505
25670SOL    HW178842   6.559  11.373   0.440
25670SOL    HW278843   6.534  11.409   0.585
25671SOL     OW78844   1.448  11.040   7.228
25671SOL    HW178845   1.510  10.985   7.276
25671SOL    HW278846   1.386  11.068   7.295
25672SOL     OW78847   9.013   1.135  10.292
25672SOL    HW178848   9.033   1.064  10.353
25672SOL    HW278849   8.926   1.114  10.258
25673SOL     OW78850  10.707  13.637   5.457
25673SOL    HW178851  10.738  13.578   5.526
25673SOL    HW278852  10.611  13.638   5.467
25674SOL     OW78853  10.861  14.004  12.638
25674SOL    HW178854  10.894  14.004  12.548
25674SOL    HW278855  10.880  13.916  12.670
25675SOL     OW78856   0.073  10.407  12.556
25675SOL    HW178857   0.153  10.358  12.538
25675SOL    HW278858   0.102  10.497  12.566
25676SOL     OW78859   6.376   1.595  14.661
25676SOL    HW178860   6.452   1.632  14.617
25676SOL    HW278861   6.375   1.503  14.635
25677SOL     OW78862   7.748   3.995   2.634
25677SOL    HW178863   7.763   3.912   2.588
25677SOL    HW278864   7.696   3.972   2.710
25678SOL     OW78865   2.122  14.174   5.150
25678SOL    HW178866   2.157  14.195   5.063
25678SOL    HW278867   2.186  14.211   5.211
25679SOL     OW78868  13.721  10.026   2.843
25679SOL    HW178869  13.696   9.949   2.793
25679SOL    HW278870  13.770  10.080   2.782
25680SOL     OW78871   9.647   2.674   9.741
25680SOL    HW178872   9.672   2.663   9.649
25680SOL    HW278873   9.615   2.764   9.747
25681SOL     OW78874   4.455   0.903   4.363
25681SOL    HW178875   4.399   0.877   4.289
25681SOL    HW278876   4.447   0.998   4.366
25682SOL     OW78877   9.334  12.077  11.444
25682SOL    HW178878   9.374  12.048  11.526
25682SOL    HW278879   9.402  12.063  11.378
25683SOL     OW78880  12.279   0.095  12.757
25683SOL    HW178881  12.248   0.116  12.845
25683SOL    HW278882  12.221   0.025  12.726
25684SOL     OW78883   2.710   1.981   7.547
25684SOL    HW178884   2.692   1.999   7.455
25684SOL    HW278885   2.665   2.051   7.595
25685SOL     OW78886   7.691   2.223   9.024
25685SOL    HW178887   7.671   2.157   8.959
25685SOL    HW278888   7.615   2.281   9.026
25686SOL     OW78889   8.023   1.033   9.703
25686SOL    HW178890   7.959   0.961   9.703
25686SOL    HW278891   7.978   1.105   9.747
25687SOL     OW78892   3.711  11.896   4.181
25687SOL    HW178893   3.728  11.913   4.089
25687SOL    HW278894   3.794  11.861   4.215
25688SOL     OW78895   0.788  10.177  10.293
25688SOL    HW178896   0.716  10.129  10.335
25688SOL    HW278897   0.867  10.145  10.337
25689SOL     OW78898   7.590  14.651   6.451
25689SOL    HW178899   7.668  14.660   6.397
25689SOL    HW278900   7.620  14.607   6.530
25690SOL     OW78901   4.795   1.720   0.156
25690SOL    HW178902   4.748   1.774   0.219
25690SOL    HW278903   4.729   1.694   0.092
25691SOL     OW78904   0.006   8.369   2.331
25691SOL    HW178905   0.098   8.393   2.319
25691SOL    HW278906  14.855   8.354   2.243
25692SOL     OW78907  13.534   3.314   7.183
25692SOL    HW178908  13.529   3.401   7.144
25692SOL    HW278909  13.569   3.259   7.113
25693SOL     OW78910   4.232  12.364  12.911
25693SOL    HW178911   4.212  12.374  12.818
25693SOL    HW278912   4.146  12.369  12.953
25694SOL     OW78913  13.348  11.108   5.920
25694SOL    HW178914  13.421  11.050   5.898
25694SOL    HW278915  13.389  11.182   5.964
25695SOL     OW78916  13.319   9.080  10.498
25695SOL    HW178917  13.275   9.083  10.583
25695SOL    HW278918  13.269   9.014  10.448
25696SOL     OW78919   5.810  14.520  12.506
25696SOL    HW178920   5.753  14.445  12.491
25696SOL    HW278921   5.778  14.559  12.587
25697SOL     OW78922   1.080   1.545   1.651
25697SOL    HW178923   1.099   1.546   1.745
25697SOL    HW278924   0.989   1.573   1.645
25698SOL     OW78925   1.761   0.610   6.211
25698SOL    HW178926   1.804   0.673   6.269
25698SOL    HW278927   1.787   0.638   6.123
25699SOL     OW78928   0.193   9.054   6.880
25699SOL    HW178929   0.170   9.147   6.888
25699SOL    HW278930   0.120   9.015   6.832
25700SOL     OW78931   5.085   9.195   2.457
25700SOL    HW178932   5.165   9.214   2.409
25700SOL    HW278933   5.050   9.117   2.414
25701SOL     OW78934   7.702   3.001   2.373
25701SOL    HW178935   7.777   2.943   2.391
25701SOL    HW278936   7.640   2.946   2.326
25702SOL     OW78937   4.687  13.071   4.415
25702SOL    HW178938   4.765  13.022   4.387
25702SOL    HW278939   4.621  13.003   4.427
25703SOL     OW78940   6.240  11.455   3.559
25703SOL    HW178941   6.270  11.528   3.613
25703SOL    HW278942   6.310  11.441   3.495
25704SOL     OW78943  10.640   7.256  12.722
25704SOL    HW178944  10.627   7.187  12.787
25704SOL    HW278945  10.675   7.330  12.772
25705SOL     OW78946   0.382   9.819   1.280
25705SOL    HW178947   0.297   9.846   1.248
25705SOL    HW278948   0.404   9.883   1.348
25706SOL     OW78949  12.543  10.731   8.212
25706SOL    HW178950  12.513  10.677   8.285
25706SOL    HW278951  12.639  10.726   8.216
25707SOL     OW78952   1.805   8.500   3.366
25707SOL    HW178953   1.771   8.538   3.447
25707SOL    HW278954   1.899   8.521   3.367
25708SOL     OW78955   1.463   7.679   4.587
25708SOL    HW178956   1.516   7.622   4.642
25708SOL    HW278957   1.500   7.766   4.600
25709SOL     OW78958   2.886   4.565   4.448
25709SOL    HW178959   2.939   4.641   4.472
25709SOL    HW278960   2.932   4.490   4.486
25710SOL     OW78961  11.790   8.535   5.123
25710SOL    HW178962  11.703   8.524   5.083
25710SOL    HW278963  11.775   8.593   5.197
25711SOL     OW78964   1.151  10.076   1.906
25711SOL    HW178965   1.161  10.101   1.998
25711SOL    HW278966   1.219  10.126   1.860
25712SOL     OW78967  12.864   1.782   2.340
25712SOL    HW178968  12.948   1.752   2.375
25712SOL    HW278969  12.801   1.718   2.372
25713SOL     OW78970   8.519   2.891   5.608
25713SOL    HW178971   8.589   2.860   5.665
25713SOL    HW278972   8.549   2.977   5.578
25714SOL     OW78973   9.884   1.899  14.732
25714SOL    HW178974   9.800   1.941  14.713
25714SOL    HW278975   9.950   1.960  14.698
25715SOL     OW78976   5.683   9.474   6.212
25715SOL    HW178977   5.739   9.445   6.140
25715SOL    HW278978   5.635   9.396   6.239
25716SOL     OW78979   6.689  10.743   4.585
25716SOL    HW178980   6.641  10.819   4.550
25716SOL    HW278981   6.763  10.733   4.525
25717SOL     OW78982  11.680   6.247   7.656
25717SOL    HW178983  11.728   6.241   7.573
25717SOL    HW278984  11.640   6.161   7.666
25718SOL     OW78985   9.146   6.192   0.880
25718SOL    HW178986   9.086   6.130   0.921
25718SOL    HW278987   9.098   6.275   0.878
25719SOL     OW78988   8.579   5.139   1.438
25719SOL    HW178989   8.556   5.124   1.346
25719SOL    HW278990   8.579   5.052   1.478
25720SOL     OW78991   5.974  14.372   0.927
25720SOL    HW178992   5.919  14.391   1.003
25720SOL    HW278993   5.911  14.345   0.859
25721SOL     OW78994  14.680   3.872   3.350
25721SOL    HW178995  14.594   3.911   3.334
25721SOL    HW278996  14.686   3.801   3.286
25722SOL     OW78997   9.338   3.171  10.260
25722SOL    HW178998   9.267   3.183  10.198
25722SOL    HW278999   9.391   3.100  10.223
25723SOL     OW79000   5.024   5.780   7.428
25723SOL    HW179001   5.015   5.705   7.369
25723SOL    HW279002   4.937   5.819   7.432
25724SOL     OW79003   5.164   9.626  10.578
25724SOL    HW179004   5.197   9.555  10.523
25724SOL    HW279005   5.138   9.583  10.660
25725SOL     OW79006   9.569   5.163   4.874
25725SOL    HW179007   9.521   5.179   4.955
25725SOL    HW279008   9.572   5.248   4.830
25726SOL     OW79009   3.356   2.511   6.969
25726SOL    HW179010   3.448   2.486   6.964
25726SOL    HW279011   3.316   2.471   6.893
25727SOL     OW79012  11.520  14.618  10.087
25727SOL    HW179013  11.516  14.604   9.992
25727SOL    HW279014  11.437  14.660  10.108
25728SOL     OW79015   7.733   3.538   0.237
25728SOL    HW179016   7.783   3.571   0.312
25728SOL    HW279017   7.768   3.586   0.162
25729SOL     OW79018  10.295   7.999   5.589
25729SOL    HW179019  10.360   7.949   5.540
25729SOL    HW279020  10.247   8.049   5.522
25730SOL     OW79021   9.998  13.390  12.193
25730SOL    HW179022  10.033  13.316  12.243
25730SOL    HW279023  10.033  13.467  12.238
25731SOL     OW79024   9.194   1.555  10.208
25731SOL    HW179025   9.231   1.560  10.296
25731SOL    HW279026   9.106   1.592  10.217
25732SOL     OW79027  13.918   8.031  10.952
25732SOL    HW179028  13.843   7.992  10.906
25732SOL    HW279029  13.957   8.091  10.889
25733SOL     OW79030  10.739   3.981  11.100
25733SOL    HW179031  10.706   3.906  11.050
25733SOL    HW279032  10.678   4.052  11.080
25734SOL     OW79033   1.999  13.161  11.149
25734SOL    HW179034   2.082  13.136  11.110
25734SOL    HW279035   1.950  13.201  11.077
25735SOL     OW79036  13.516   6.850  11.361
25735SOL    HW179037  13.589   6.826  11.417
25735SOL    HW279038  13.526   6.944  11.347
25736SOL     OW79039   0.163   9.727  11.508
25736SOL    HW179040   0.101   9.664  11.473
25736SOL    HW279041   0.165   9.710  11.602
25737SOL     OW79042  12.426  12.139   4.185
25737SOL    HW179043  12.429  12.055   4.140
25737SOL    HW279044  12.354  12.186   4.144
25738SOL     OW79045   2.763  12.292   6.747
25738SOL    HW179046   2.840  12.241   6.773
25738SOL    HW279047   2.797  12.379   6.726
25739SOL     OW79048   9.014   9.418   0.627
25739SOL    HW179049   9.071   9.494   0.614
25739SOL    HW279050   8.973   9.404   0.541
25740SOL     OW79051   7.778   8.885   0.281
25740SOL    HW179052   7.837   8.822   0.323
25740SOL    HW279053   7.736   8.932   0.353
25741SOL     OW79054   7.116  13.853   9.441
25741SOL    HW179055   7.151  13.935   9.476
25741SOL    HW279056   7.108  13.796   9.517
25742SOL     OW79057  11.246  11.201   4.486
25742SOL    HW179058  11.227  11.173   4.576
25742SOL    HW279059  11.164  11.239   4.455
25743SOL     OW79060  11.519   5.928   6.259
25743SOL    HW179061  11.436   5.887   6.233
25743SOL    HW279062  11.583   5.896   6.195
25744SOL     OW79063   7.344   5.436  10.999
25744SOL    HW179064   7.252   5.430  10.974
25744SOL    HW279065   7.391   5.447  10.916
25745SOL     OW79066  13.600  11.056   3.621
25745SOL    HW179067  13.519  11.008   3.636
25745SOL    HW279068  13.652  11.040   3.700
25746SOL     OW79069  10.611  10.989   6.068
25746SOL    HW179070  10.567  10.928   6.128
25746SOL    HW279071  10.566  11.072   6.082
25747SOL     OW79072   6.753   4.915  11.034
25747SOL    HW179073   6.737   4.842  10.975
25747SOL    HW279074   6.767   4.875  11.119
25748SOL     OW79075   8.153   8.101   6.129
25748SOL    HW179076   8.081   8.144   6.083
25748SOL    HW279077   8.172   8.023   6.077
25749SOL     OW79078  11.575  12.785  14.841
25749SOL    HW179079  11.620  12.857  14.796
25749SOL    HW279080  11.606  12.790   0.049
25750SOL     OW79081  14.693  11.538   1.981
25750SOL    HW179082  14.732  11.613   2.027
25750SOL    HW279083  14.701  11.465   2.042
25751SOL     OW79084   4.801   4.952  11.122
25751SOL    HW179085   4.874   4.921  11.176
25751SOL    HW279086   4.765   4.872  11.083
25752SOL     OW79087   4.569   5.088  13.967
25752SOL    HW179088   4.534   5.104  14.055
25752SOL    HW279089   4.573   5.175  13.927
25753SOL     OW79090   1.937   4.844   7.270
25753SOL    HW179091   1.982   4.906   7.213
25753SOL    HW279092   1.952   4.759   7.229
25754SOL     OW79093   3.992   6.973  13.742
25754SOL    HW179094   4.011   7.053  13.694
25754SOL    HW279095   4.034   6.985  13.827
25755SOL     OW79096  13.344   6.110  14.637
25755SOL    HW179097  13.365   6.033  14.583
25755SOL    HW279098  13.427   6.155  14.647
25756SOL     OW79099  14.245   0.020   7.241
25756SOL    HW179100  14.204   0.036   7.326
25756SOL    HW279101  14.242   0.105   7.197
25757SOL     OW79102   9.018   3.676   6.638
25757SOL    HW179103   8.926   3.695   6.656
25757SOL    HW279104   9.053   3.757   6.601
25758SOL     OW79105   3.960  12.547  12.734
25758SOL    HW179106   4.018  12.482  12.695
25758SOL    HW279107   3.936  12.509  12.819
25759SOL     OW79108  13.042  11.679   6.286
25759SOL    HW179109  12.989  11.716   6.356
25759SOL    HW279110  13.131  11.678   6.321
25760SOL     OW79111   2.214  11.516   0.917
25760SOL    HW179112   2.306  11.545   0.919
25760SOL    HW279113   2.169  11.580   0.973
25761SOL     OW79114   1.919   9.347  14.398
25761SOL    HW179115   1.887   9.367  14.311
25761SOL    HW279116   1.936   9.253  14.397
25762SOL     OW79117   2.082  11.252   7.202
25762SOL    HW179118   1.993  11.282   7.187
25762SOL    HW279119   2.119  11.314   7.264
25763SOL     OW79120   1.931   6.646   8.129
25763SOL    HW179121   1.891   6.709   8.069
25763SOL    HW279122   1.948   6.569   8.076
25764SOL     OW79123   8.762  13.293   1.287
25764SOL    HW179124   8.810  13.213   1.305
25764SOL    HW279125   8.677  13.281   1.330
25765SOL     OW79126  13.217   0.960  13.970
25765SOL    HW179127  13.265   0.877  13.972
25765SOL    HW279128  13.222   0.988  13.878
25766SOL     OW79129   6.262   9.139   3.307
25766SOL    HW179130   6.229   9.227   3.323
25766SOL    HW279131   6.330   9.150   3.240
25767SOL     OW79132   8.127   5.418   1.583
25767SOL    HW179133   8.069   5.343   1.567
25767SOL    HW279134   8.089   5.461   1.660
25768SOL     OW79135   2.146   4.500   6.056
25768SOL    HW179136   2.134   4.506   5.961
25768SOL    HW279137   2.078   4.440   6.085
25769SOL     OW79138   0.223   0.847   7.914
25769SOL    HW179139   0.301   0.843   7.970
25769SOL    HW279140   0.218   0.939   7.887
25770SOL     OW79141   6.931   7.922   9.176
25770SOL    HW179142   7.003   7.864   9.198
25770SOL    HW279143   6.972   8.006   9.154
25771SOL     OW79144  12.776   7.394  11.055
25771SOL    HW179145  12.760   7.316  11.001
25771SOL    HW279146  12.690   7.433  11.066
25772SOL     OW79147   8.274   1.608   3.145
25772SOL    HW179148   8.353   1.619   3.199
25772SOL    HW279149   8.303   1.629   3.056
25773SOL     OW79150  12.234   9.501  11.273
25773SOL    HW179151  12.250   9.510  11.179
25773SOL    HW279152  12.146   9.463  11.279
25774SOL     OW79153  11.971   6.471  11.052
25774SOL    HW179154  11.902   6.464  11.117
25774SOL    HW279155  11.992   6.381  11.029
25775SOL     OW79156  10.043   9.580  11.153
25775SOL    HW179157  10.113   9.612  11.096
25775SOL    HW279158  10.083   9.573  11.240
25776SOL     OW79159   2.044   1.497   4.810
25776SOL    HW179160   2.119   1.555   4.801
25776SOL    HW279161   1.985   1.542   4.871
25777SOL     OW79162   7.151   2.337  12.508
25777SOL    HW179163   7.170   2.320  12.601
25777SOL    HW279164   7.237   2.334  12.465
25778SOL     OW79165   9.982   5.498  12.530
25778SOL    HW179166   9.960   5.477  12.621
25778SOL    HW279167   9.911   5.459  12.479
25779SOL     OW79168  13.329  10.860   3.756
25779SOL    HW179169  13.262  10.843   3.821
25779SOL    HW279170  13.321  10.954   3.738
25780SOL     OW79171  14.405  10.462   2.228
25780SOL    HW179172  14.400  10.544   2.276
25780SOL    HW279173  14.353  10.477   2.149
25781SOL     OW79174  14.307   5.958   6.699
25781SOL    HW179175  14.343   5.955   6.610
25781SOL    HW279176  14.339   6.040   6.735
25782SOL     OW79177   4.525   4.392   4.075
25782SOL    HW179178   4.497   4.381   4.166
25782SOL    HW279179   4.509   4.485   4.057
25783SOL     OW79180   5.170   3.704   2.176
25783SOL    HW179181   5.101   3.684   2.239
25783SOL    HW279182   5.190   3.797   2.191
25784SOL     OW79183   8.433   5.594   9.901
25784SOL    HW179184   8.499   5.663   9.912
25784SOL    HW279185   8.483   5.518   9.872
25785SOL     OW79186  14.687   1.619   8.982
25785SOL    HW179187  14.658   1.692   9.036
25785SOL    HW279188  14.782   1.632   8.974
25786SOL     OW79189  13.104   5.395   1.354
25786SOL    HW179190  13.120   5.324   1.291
25786SOL    HW279191  13.018   5.429   1.330
25787SOL     OW79192  11.021   4.646  12.403
25787SOL    HW179193  11.042   4.621  12.493
25787SOL    HW279194  11.056   4.575  12.349
25788SOL     OW79195  10.416   7.814  11.056
25788SOL    HW179196  10.370   7.898  11.053
25788SOL    HW279197  10.407   7.779  10.968
25789SOL     OW79198   0.507   8.783   8.654
25789SOL    HW179199   0.430   8.729   8.635
25789SOL    HW279200   0.470   8.866   8.684
25790SOL     OW79201   8.040  11.465   8.467
25790SOL    HW179202   8.073  11.381   8.433
25790SOL    HW279203   8.111  11.527   8.450
25791SOL     OW79204   1.088   6.945   9.681
25791SOL    HW179205   1.085   6.919   9.773
25791SOL    HW279206   1.024   6.887   9.638
25792SOL     OW79207   9.618   3.934  14.798
25792SOL    HW179208   9.697   3.941  14.745
25792SOL    HW279209   9.648   3.893  14.880
25793SOL     OW79210   8.236   3.724   0.467
25793SOL    HW179211   8.153   3.719   0.515
25793SOL    HW279212   8.247   3.817   0.448
25794SOL     OW79213   9.536  11.511   6.801
25794SOL    HW179214   9.443  11.511   6.825
25794SOL    HW279215   9.544  11.582   6.737
25795SOL     OW79216   3.501  10.257   3.637
25795SOL    HW179217   3.502  10.183   3.697
25795SOL    HW279218   3.527  10.332   3.690
25796SOL     OW79219   4.800   4.529   6.182
25796SOL    HW179220   4.863   4.589   6.144
25796SOL    HW279221   4.765   4.481   6.106
25797SOL     OW79222   1.184   8.694  10.528
25797SOL    HW179223   1.181   8.737  10.614
25797SOL    HW279224   1.232   8.754  10.472
25798SOL     OW79225   9.104   2.728  12.021
25798SOL    HW179226   9.031   2.678  11.984
25798SOL    HW279227   9.130   2.678  12.098
25799SOL     OW79228  12.147   5.294   7.695
25799SOL    HW179229  12.064   5.261   7.730
25799SOL    HW279230  12.141   5.279   7.601
25800SOL     OW79231   7.661  11.786   4.073
25800SOL    HW179232   7.673  11.698   4.038
25800SOL    HW279233   7.627  11.837   3.999
25801SOL     OW79234   8.481  14.209  10.959
25801SOL    HW179235   8.419  14.182  10.892
25801SOL    HW279236   8.489  14.304  10.948
25802SOL     OW79237   4.188   2.199   9.925
25802SOL    HW179238   4.167   2.257   9.998
25802SOL    HW279239   4.281   2.216   9.906
25803SOL     OW79240   0.424   9.295   5.374
25803SOL    HW179241   0.370   9.275   5.297
25803SOL    HW279242   0.393   9.380   5.404
25804SOL     OW79243  12.210   3.462   2.009
25804SOL    HW179244  12.256   3.379   1.998
25804SOL    HW279245  12.205   3.499   1.921
25805SOL     OW79246   0.592  10.894   4.681
25805SOL    HW179247   0.646  10.962   4.639
25805SOL    HW279248   0.653  10.845   4.736
25806SOL     OW79249   3.767   6.093  10.708
25806SOL    HW179250   3.821   6.048  10.773
25806SOL    HW279251   3.771   6.036  10.631
25807SOL     OW79252   3.755   0.391   8.060
25807SOL    HW179253   3.746   0.471   8.111
25807SOL    HW279254   3.816   0.413   7.990
25808SOL     OW79255   0.921   4.990  13.671
25808SOL    HW179256   0.839   4.950  13.701
25808SOL    HW279257   0.942   5.055  13.738
25809SOL     OW79258  11.634   1.181   1.707
25809SOL    HW179259  11.707   1.144   1.757
25809SOL    HW279260  11.652   1.156   1.616
25810SOL     OW79261  14.760  14.702   3.707
25810SOL    HW179262  14.684  14.650   3.736
25810SOL    HW279263  14.722  14.775   3.659
25811SOL     OW79264   7.121  10.477  11.584
25811SOL    HW179265   7.032  10.444  11.598
25811SOL    HW279266   7.176  10.398  11.579
25812SOL     OW79267  13.041   0.915   4.830
25812SOL    HW179268  13.129   0.909   4.795
25812SOL    HW279269  12.984   0.917   4.753
25813SOL     OW79270  13.024  12.853  13.945
25813SOL    HW179271  13.079  12.847  14.024
25813SOL    HW279272  12.955  12.916  13.969
25814SOL     OW79273   9.971  14.404   4.544
25814SOL    HW179274  10.026  14.326   4.533
25814SOL    HW279275  10.029  14.477   4.520
25815SOL     OW79276  13.828  14.080   1.110
25815SOL    HW179277  13.836  14.006   1.170
25815SOL    HW279278  13.881  14.149   1.150
25816SOL     OW79279  12.728   8.065   1.982
25816SOL    HW179280  12.801   8.018   1.942
25816SOL    HW279281  12.654   8.005   1.973
25817SOL     OW79282   4.482   6.612   8.729
25817SOL    HW179283   4.540   6.671   8.777
25817SOL    HW279284   4.442   6.667   8.662
25818SOL     OW79285   5.256   7.094   9.838
25818SOL    HW179286   5.309   7.167   9.808
25818SOL    HW279287   5.297   7.067   9.921
25819SOL     OW79288   6.984   4.158   2.421
25819SOL    HW179289   6.964   4.140   2.513
25819SOL    HW279290   7.046   4.090   2.395
25820SOL     OW79291   1.281   2.379  13.221
25820SOL    HW179292   1.244   2.339  13.143
25820SOL    HW279293   1.209   2.378  13.285
25821SOL     OW79294  13.751   7.006   5.570
25821SOL    HW179295  13.742   7.074   5.637
25821SOL    HW279296  13.713   6.928   5.610
25822SOL     OW79297   2.222   7.182   8.611
25822SOL    HW179298   2.308   7.224   8.616
25822SOL    HW279299   2.241   7.088   8.610
25823SOL     OW79300   4.638   9.446  10.710
25823SOL    HW179301   4.543   9.437  10.711
25823SOL    HW279302   4.665   9.432  10.801
25824SOL     OW79303   9.080   4.389  12.989
25824SOL    HW179304   8.995   4.390  13.032
25824SOL    HW279305   9.109   4.297  12.995
25825SOL     OW79306   6.532   2.772   2.842
25825SOL    HW179307   6.627   2.767   2.853
25825SOL    HW279308   6.517   2.852   2.792
25826SOL     OW79309   1.425  13.959  14.611
25826SOL    HW179310   1.345  14.010  14.618
25826SOL    HW279311   1.447  13.937  14.702
25827SOL     OW79312   6.044   4.585  11.299
25827SOL    HW179313   6.054   4.679  11.314
25827SOL    HW279314   6.099   4.543  11.365
25828SOL     OW79315  12.095   2.577   6.628
25828SOL    HW179316  12.185   2.561   6.655
25828SOL    HW279317  12.091   2.671   6.610
25829SOL     OW79318  10.094   2.453   6.253
25829SOL    HW179319  10.103   2.363   6.223
25829SOL    HW279320  10.018   2.451   6.313
25830SOL     OW79321   2.684  10.520   2.170
25830SOL    HW179322   2.699  10.481   2.256
25830SOL    HW279323   2.591  10.505   2.153
25831SOL     OW79324  11.166   3.331   3.804
25831SOL    HW179325  11.078   3.364   3.819
25831SOL    HW279326  11.174   3.325   3.709
25832SOL     OW79327   0.082   5.939  10.294
25832SOL    HW179328   0.098   6.008  10.357
25832SOL    HW279329   0.031   5.873  10.342
25833SOL     OW79330  11.933   1.141   1.402
25833SOL    HW179331  11.837   1.137   1.394
25833SOL    HW279332  11.964   1.061   1.359
25834SOL     OW79333   0.196  14.290   0.899
25834SOL    HW179334   0.173  14.325   0.986
25834SOL    HW279335   0.136  14.217   0.886
25835SOL     OW79336  14.422   4.125   3.930
25835SOL    HW179337  14.453   4.134   4.020
25835SOL    HW279338  14.338   4.172   3.929
25836SOL     OW79339   3.770  11.971   3.450
25836SOL    HW179340   3.797  12.051   3.494
25836SOL    HW279341   3.810  11.976   3.363
25837SOL     OW79342  10.994   8.502   2.671
25837SOL    HW179343  10.960   8.507   2.582
25837SOL    HW279344  11.039   8.417   2.674
25838SOL     OW79345   3.951   5.352  14.535
25838SOL    HW179346   3.971   5.303  14.614
25838SOL    HW279347   4.030   5.403  14.517
25839SOL     OW79348   9.320   8.085   0.204
25839SOL    HW179349   9.245   8.079   0.262
25839SOL    HW279350   9.312   8.172   0.163
25840SOL     OW79351   5.315  13.805  14.686
25840SOL    HW179352   5.303  13.744  14.613
25840SOL    HW279353   5.256  13.878  14.665
25841SOL     OW79354  14.201   4.975  11.660
25841SOL    HW179355  14.176   4.956  11.570
25841SOL    HW279356  14.118   4.974  11.708
25842SOL     OW79357   2.113   8.741   6.276
25842SOL    HW179358   2.033   8.767   6.230
25842SOL    HW279359   2.131   8.653   6.243
25843SOL     OW79360   5.905   8.977   4.523
25843SOL    HW179361   5.840   9.029   4.476
25843SOL    HW279362   5.902   8.891   4.479
25844SOL     OW79363   5.163   0.540   1.095
25844SOL    HW179364   5.191   0.629   1.072
25844SOL    HW279365   5.237   0.504   1.144
25845SOL     OW79366  11.744   4.618   4.130
25845SOL    HW179367  11.725   4.694   4.185
25845SOL    HW279368  11.809   4.568   4.179
25846SOL     OW79369   7.659   8.776   9.373
25846SOL    HW179370   7.716   8.762   9.297
25846SOL    HW279371   7.700   8.724   9.442
25847SOL     OW79372   1.135   2.979   4.057
25847SOL    HW179373   1.049   3.019   4.044
25847SOL    HW279374   1.188   3.048   4.096
25848SOL     OW79375  13.365   4.454  12.571
25848SOL    HW179376  13.391   4.434  12.481
25848SOL    HW279377  13.414   4.533  12.593
25849SOL     OW79378   6.572  13.589  10.325
25849SOL    HW179379   6.529  13.674  10.314
25849SOL    HW279380   6.525  13.531  10.265
25850SOL     OW79381  11.655  10.818  13.137
25850SOL    HW179382  11.641  10.898  13.086
25850SOL    HW279383  11.603  10.831  13.216
25851SOL     OW79384   3.211   7.772   0.765
25851SOL    HW179385   3.171   7.732   0.842
25851SOL    HW279386   3.154   7.747   0.692
25852SOL     OW79387   7.296  11.155  12.658
25852SOL    HW179388   7.230  11.215  12.623
25852SOL    HW279389   7.248  11.075  12.678
25853SOL     OW79390  13.362   1.033   2.679
25853SOL    HW179391  13.392   1.003   2.764
25853SOL    HW279392  13.415   0.984   2.616
25854SOL     OW79393   7.790  11.025   0.759
25854SOL    HW179394   7.866  10.967   0.760
25854SOL    HW279395   7.796  11.075   0.840
25855SOL     OW79396  13.607   7.224  12.458
25855SOL    HW179397  13.566   7.265  12.382
25855SOL    HW279398  13.684   7.179  12.423
25856SOL     OW79399  11.525   5.464  14.285
25856SOL    HW179400  11.469   5.460  14.207
25856SOL    HW279401  11.533   5.557  14.305
25857SOL     OW79402   2.315   2.002   7.467
25857SOL    HW179403   2.221   1.993   7.450
25857SOL    HW279404   2.327   1.966   7.555
25858SOL     OW79405   6.622  10.086   9.449
25858SOL    HW179406   6.561  10.037   9.505
25858SOL    HW279407   6.626  10.034   9.369
25859SOL     OW79408  12.009   6.139   1.739
25859SOL    HW179409  12.059   6.219   1.756
25859SOL    HW279410  11.996   6.100   1.826
25860SOL     OW79411   6.656  10.039   3.414
25860SOL    HW179412   6.652  10.000   3.501
25860SOL    HW279413   6.565  10.039   3.384
25861SOL     OW79414   2.709   9.907   2.464
25861SOL    HW179415   2.625   9.936   2.499
25861SOL    HW279416   2.735   9.977   2.404
25862SOL     OW79417  10.003   4.496  12.814
25862SOL    HW179418  10.049   4.526  12.736
25862SOL    HW279419   9.960   4.574  12.848
25863SOL     OW79420  10.440   8.115   9.654
25863SOL    HW179421  10.424   8.086   9.564
25863SOL    HW279422  10.374   8.069   9.706
25864SOL     OW79423   4.639   8.583   7.565
25864SOL    HW179424   4.635   8.634   7.484
25864SOL    HW279425   4.626   8.492   7.537
25865SOL     OW79426   1.507   9.181  13.617
25865SOL    HW179427   1.593   9.155  13.583
25865SOL    HW279428   1.459   9.210  13.540
25866SOL     OW79429  11.811   1.056  14.684
25866SOL    HW179430  11.833   0.968  14.654
25866SOL    HW279431  11.872   1.114  14.639
25867SOL     OW79432   7.642   6.708  11.883
25867SOL    HW179433   7.705   6.713  11.955
25867SOL    HW279434   7.684   6.651  11.818
25868SOL     OW79435   1.686   7.473   7.138
25868SOL    HW179436   1.684   7.444   7.230
25868SOL    HW279437   1.768   7.520   7.130
25869SOL     OW79438  12.738  10.302  14.045
25869SOL    HW179439  12.770  10.339  14.127
25869SOL    HW279440  12.734  10.378  13.986
25870SOL     OW79441  10.975   4.207   7.751
25870SOL    HW179442  10.960   4.284   7.806
25870SOL    HW279443  10.901   4.205   7.691
25871SOL     OW79444   7.275   2.937  14.638
25871SOL    HW179445   7.294   2.855  14.683
25871SOL    HW279446   7.199   2.973  14.685
25872SOL     OW79447   3.901   2.113   3.066
25872SOL    HW179448   3.842   2.105   2.991
25872SOL    HW279449   3.989   2.107   3.029
25873SOL     OW79450   6.866   7.132  11.922
25873SOL    HW179451   6.894   7.075  11.851
25873SOL    HW279452   6.920   7.106  11.996
25874SOL     OW79453   6.424   8.561   9.035
25874SOL    HW179454   6.449   8.498   9.103
25874SOL    HW279455   6.417   8.644   9.081
25875SOL     OW79456   9.381   7.674   0.588
25875SOL    HW179457   9.287   7.686   0.594
25875SOL    HW279458   9.403   7.617   0.662
25876SOL     OW79459  12.742   9.734   5.709
25876SOL    HW179460  12.684   9.684   5.766
25876SOL    HW279461  12.766   9.673   5.639
25877SOL     OW79462   3.910   8.690   9.728
25877SOL    HW179463   3.889   8.658   9.816
25877SOL    HW279464   3.890   8.784   9.732
25878SOL     OW79465   0.120   0.901   9.784
25878SOL    HW179466   0.041   0.848   9.791
25878SOL    HW279467   0.183   0.845   9.739
25879SOL     OW79468   3.837  10.964   3.313
25879SOL    HW179469   3.895  11.003   3.377
25879SOL    HW279470   3.763  11.024   3.307
25880SOL     OW79471   5.151  12.096   7.975
25880SOL    HW179472   5.202  12.016   7.958
25880SOL    HW279473   5.060  12.067   7.971
25881SOL     OW79474  13.928   4.211   4.088
25881SOL    HW179475  13.981   4.280   4.129
25881SOL    HW279476  13.931   4.138   4.150
25882SOL     OW79477   4.706   4.056   9.969
25882SOL    HW179478   4.712   4.017  10.056
25882SOL    HW279479   4.796   4.081   9.948
25883SOL     OW79480   8.080   7.345  14.796
25883SOL    HW179481   8.169   7.382  14.800
25883SOL    HW279482   8.024   7.421  14.780
25884SOL     OW79483   2.308  13.925   6.582
25884SOL    HW179484   2.387  13.871   6.590
25884SOL    HW279485   2.244  13.883   6.639
25885SOL     OW79486  11.255   0.589   9.401
25885SOL    HW179487  11.185   0.654   9.399
25885SOL    HW279488  11.253   0.554   9.490
25886SOL     OW79489   0.134   5.222   3.202
25886SOL    HW179490   0.128   5.278   3.124
25886SOL    HW279491   0.225   5.229   3.230
25887SOL     OW79492   2.657   6.241   9.853
25887SOL    HW179493   2.592   6.286   9.907
25887SOL    HW279494   2.670   6.299   9.778
25888SOL     OW79495   2.734   0.452   4.814
25888SOL    HW179496   2.711   0.532   4.862
25888SOL    HW279497   2.800   0.409   4.869
25889SOL     OW79498   5.572  10.185  13.862
25889SOL    HW179499   5.570  10.158  13.953
25889SOL    HW279500   5.629  10.261  13.861
25890SOL     OW79501   8.505   2.144   8.661
25890SOL    HW179502   8.595   2.151   8.630
25890SOL    HW279503   8.491   2.226   8.708
25891SOL     OW79504   0.910   8.014  11.752
25891SOL    HW179505   0.911   8.107  11.776
25891SOL    HW279506   0.948   8.012  11.664
25892SOL     OW79507   1.535   6.970  14.091
25892SOL    HW179508   1.552   6.964  13.997
25892SOL    HW279509   1.515   6.881  14.117
25893SOL     OW79510   6.719  12.358   9.141
25893SOL    HW179511   6.697  12.343   9.233
25893SOL    HW279512   6.812  12.336   9.134
25894SOL     OW79513  11.544  11.113  11.596
25894SOL    HW179514  11.596  11.034  11.605
25894SOL    HW279515  11.530  11.123  11.502
25895SOL     OW79516   0.797   7.322  11.595
25895SOL    HW179517   0.706   7.325  11.623
25895SOL    HW279518   0.828   7.412  11.605
25896SOL     OW79519   2.878   5.906   9.637
25896SOL    HW179520   2.825   5.979   9.604
25896SOL    HW279521   2.965   5.921   9.601
25897SOL     OW79522   9.420  10.956   5.426
25897SOL    HW179523   9.515  10.946   5.434
25897SOL    HW279524   9.385  10.921   5.508
25898SOL     OW79525   2.794   1.889  13.834
25898SOL    HW179526   2.823   1.804  13.866
25898SOL    HW279527   2.699   1.881  13.828
25899SOL     OW79528   3.926  11.652   2.719
25899SOL    HW179529   3.896  11.573   2.673
25899SOL    HW279530   3.898  11.639   2.809
25900SOL     OW79531   0.535   5.856  11.350
25900SOL    HW179532   0.490   5.788  11.399
25900SOL    HW279533   0.600   5.891  11.411
25901SOL     OW79534  13.288   6.398   4.866
25901SOL    HW179535  13.209   6.401   4.812
25901SOL    HW279536  13.319   6.307   4.860
25902SOL     OW79537   8.523   9.604   9.217
25902SOL    HW179538   8.455   9.616   9.284
25902SOL    HW279539   8.570   9.687   9.216
25903SOL     OW79540   6.848  12.138  11.834
25903SOL    HW179541   6.789  12.125  11.908
25903SOL    HW279542   6.845  12.232  11.816
25904SOL     OW79543   4.720   1.642  12.605
25904SOL    HW179544   4.751   1.559  12.568
25904SOL    HW279545   4.770   1.709  12.558
25905SOL     OW79546  11.989   6.185   9.569
25905SOL    HW179547  12.003   6.136   9.488
25905SOL    HW279548  12.076   6.217   9.593
25906SOL     OW79549   3.408   0.222  13.607
25906SOL    HW179550   3.487   0.226  13.553
25906SOL    HW279551   3.358   0.148  13.572
25907SOL     OW79552   6.334  13.831   6.738
25907SOL    HW179553   6.401  13.837   6.670
25907SOL    HW279554   6.280  13.909   6.725
25908SOL     OW79555   0.518   8.941   8.411
25908SOL    HW179556   0.542   8.895   8.491
25908SOL    HW279557   0.567   8.897   8.341
25909SOL     OW79558   3.268   7.272   8.917
25909SOL    HW179559   3.317   7.341   8.961
25909SOL    HW279560   3.270   7.296   8.825
25910SOL     OW79561   6.911   4.221  10.717
25910SOL    HW179562   6.877   4.248  10.632
25910SOL    HW279563   7.002   4.251  10.717
25911SOL     OW79564   8.233   0.117  12.389
25911SOL    HW179565   8.153   0.090  12.434
25911SOL    HW279566   8.210   0.201  12.348
25912SOL     OW79567  11.028  12.732  13.540
25912SOL    HW179568  11.061  12.664  13.600
25912SOL    HW279569  11.021  12.810  13.595
25913SOL     OW79570  14.666  12.886  11.880
25913SOL    HW179571  14.661  12.875  11.975
25913SOL    HW279572  14.715  12.809  11.850
25914SOL     OW79573   3.333   6.869   1.928
25914SOL    HW179574   3.249   6.827   1.914
25914SOL    HW279575   3.354   6.910   1.844
25915SOL     OW79576   7.364  10.655  11.538
25915SOL    HW179577   7.433  10.603  11.580
25915SOL    HW279578   7.285  10.635  11.589
25916SOL     OW79579   1.813   9.861   0.177
25916SOL    HW179580   1.793   9.930   0.114
25916SOL    HW279581   1.752   9.791   0.155
25917SOL     OW79582   4.473  14.651  13.975
25917SOL    HW179583   4.529  14.661  14.052
25917SOL    HW279584   4.475  14.557  13.956
25918SOL     OW79585   1.099   7.720   9.941
25918SOL    HW179586   1.007   7.707   9.920
25918SOL    HW279587   1.137   7.632   9.940
25919SOL     OW79588   6.549  10.786   3.743
25919SOL    HW179589   6.642  10.793   3.720
25919SOL    HW279590   6.528  10.694   3.730
25920SOL     OW79591   3.704   1.201  12.798
25920SOL    HW179592   3.749   1.262  12.741
25920SOL    HW279593   3.632   1.252  12.836
25921SOL     OW79594   4.372  10.387   3.035
25921SOL    HW179595   4.404  10.381   2.945
25921SOL    HW279596   4.331  10.473   3.040
25922SOL     OW79597  14.597   3.605   6.382
25922SOL    HW179598  14.588   3.545   6.308
25922SOL    HW279599  14.570   3.690   6.347
25923SOL     OW79600   2.396   5.223  12.496
25923SOL    HW179601   2.409   5.249  12.587
25923SOL    HW279602   2.466   5.159  12.479
25924SOL     OW79603   7.889  11.724  11.786
25924SOL    HW179604   7.928  11.809  11.803
25924SOL    HW279605   7.898  11.711  11.691
25925SOL     OW79606  12.065  14.487   5.104
25925SOL    HW179607  12.060  14.411   5.047
25925SOL    HW279608  12.127  14.462   5.173
25926SOL     OW79609   1.547  12.702   4.905
25926SOL    HW179610   1.510  12.776   4.953
25926SOL    HW279611   1.616  12.740   4.851
25927SOL     OW79612   3.218   7.892   9.838
25927SOL    HW179613   3.301   7.877   9.791
25927SOL    HW279614   3.233   7.855   9.925
25928SOL     OW79615  10.136   2.682   7.282
25928SOL    HW179616  10.195   2.735   7.335
25928SOL    HW279617  10.191   2.611   7.249
25929SOL     OW79618   1.746   3.615   8.910
25929SOL    HW179619   1.829   3.593   8.953
25929SOL    HW279620   1.769   3.683   8.847
25930SOL     OW79621  11.700   2.042  13.046
25930SOL    HW179622  11.673   2.125  13.008
25930SOL    HW279623  11.714   1.984  12.972
25931SOL     OW79624   0.988   6.402   5.760
25931SOL    HW179625   0.954   6.467   5.821
25931SOL    HW279626   1.037   6.341   5.815
25932SOL     OW79627   5.061  14.089   9.203
25932SOL    HW179628   5.097  14.083   9.291
25932SOL    HW279629   5.110  14.161   9.162
25933SOL     OW79630   1.316   0.887   2.352
25933SOL    HW179631   1.394   0.877   2.297
25933SOL    HW279632   1.351   0.911   2.438
25934SOL     OW79633  10.733  12.673   9.301
25934SOL    HW179634  10.680  12.724   9.362
25934SOL    HW279635  10.678  12.598   9.278
25935SOL     OW79636   5.666   8.519  13.324
25935SOL    HW179637   5.716   8.562  13.255
25935SOL    HW279638   5.582   8.565  13.325
25936SOL     OW79639  11.694   2.120   3.903
25936SOL    HW179640  11.738   2.035   3.907
25936SOL    HW279641  11.730   2.162   3.825
25937SOL     OW79642   1.120   0.161   7.594
25937SOL    HW179643   1.034   0.122   7.575
25937SOL    HW279644   1.183   0.094   7.570
25938SOL     OW79645   7.181   4.567   9.926
25938SOL    HW179646   7.277   4.560   9.924
25938SOL    HW279647   7.164   4.654   9.890
25939SOL     OW79648   5.853  10.160  11.786
25939SOL    HW179649   5.772  10.164  11.836
25939SOL    HW279650   5.849  10.238  11.729
25940SOL     OW79651   2.641   5.931  12.997
25940SOL    HW179652   2.661   5.858  13.055
25940SOL    HW279653   2.575   5.982  13.045
25941SOL     OW79654   8.026  12.844  10.987
25941SOL    HW179655   7.940  12.819  10.954
25941SOL    HW279656   8.080  12.766  10.976
25942SOL     OW79657   2.238   5.390   8.985
25942SOL    HW179658   2.313   5.448   8.998
25942SOL    HW279659   2.218   5.399   8.892
25943SOL     OW79660   6.743  13.746   0.295
25943SOL    HW179661   6.733  13.656   0.325
25943SOL    HW279662   6.656  13.785   0.306
25944SOL     OW79663  10.682  12.088   0.985
25944SOL    HW179664  10.744  12.025   1.023
25944SOL    HW279665  10.702  12.088   0.892
25945SOL     OW79666  12.254   3.781   2.306
25945SOL    HW179667  12.187   3.789   2.239
25945SOL    HW279668  12.205   3.772   2.388
25946SOL     OW79669   2.048   7.402   4.630
25946SOL    HW179670   2.058   7.315   4.668
25946SOL    HW279671   1.954   7.411   4.613
25947SOL     OW79672   6.838   4.430  13.405
25947SOL    HW179673   6.865   4.516  13.372
25947SOL    HW279674   6.832   4.375  13.327
25948SOL     OW79675  10.584   6.461  14.114
25948SOL    HW179676  10.592   6.557  14.108
25948SOL    HW279677  10.602   6.430  14.026
25949SOL     OW79678  11.027   5.493   2.437
25949SOL    HW179679  11.112   5.448   2.449
25949SOL    HW279680  11.005   5.524   2.525
25950SOL     OW79681   4.061   6.692  11.436
25950SOL    HW179682   4.021   6.623  11.488
25950SOL    HW279683   4.079   6.651  11.352
25951SOL     OW79684  12.901   3.140   4.533
25951SOL    HW179685  12.879   3.050   4.558
25951SOL    HW279686  12.954   3.173   4.606
25952SOL     OW79687   3.935  14.540   1.888
25952SOL    HW179688   3.895  14.625   1.908
25952SOL    HW279689   3.865  14.490   1.848
25953SOL     OW79690   7.937  13.625   7.688
25953SOL    HW179691   7.998  13.691   7.721
25953SOL    HW279692   7.897  13.589   7.768
25954SOL     OW79693   7.488   2.085  12.867
25954SOL    HW179694   7.530   2.127  12.943
25954SOL    HW279695   7.394   2.092  12.885
25955SOL     OW79696  11.073   2.213  11.500
25955SOL    HW179697  11.161   2.241  11.529
25955SOL    HW279698  11.013   2.265  11.554
25956SOL     OW79699   3.076  11.956   0.672
25956SOL    HW179700   3.051  11.993   0.756
25956SOL    HW279701   3.115  12.029   0.624
25957SOL     OW79702   8.234   6.150   1.563
25957SOL    HW179703   8.317   6.105   1.580
25957SOL    HW279704   8.248   6.197   1.481
25958SOL     OW79705  13.302  12.238   6.314
25958SOL    HW179706  13.298  12.300   6.242
25958SOL    HW279707  13.232  12.175   6.297
25959SOL     OW79708   6.678   8.002  12.989
25959SOL    HW179709   6.614   8.061  13.029
25959SOL    HW279710   6.666   7.919  13.033
25960SOL     OW79711   9.661   4.018   3.523
25960SOL    HW179712   9.753   4.017   3.498
25960SOL    HW279713   9.634   4.109   3.511
25961SOL     OW79714   7.744   1.947   6.989
25961SOL    HW179715   7.826   1.936   6.940
25961SOL    HW279716   7.679   1.967   6.922
25962SOL     OW79717   6.461   9.954   9.609
25962SOL    HW179718   6.406  10.027   9.639
25962SOL    HW279719   6.473   9.900   9.687
25963SOL     OW79720  12.138   7.670   1.099
25963SOL    HW179721  12.122   7.730   1.172
25963SOL    HW279722  12.185   7.722   1.034
25964SOL     OW79723   4.289   6.455  13.684
25964SOL    HW179724   4.211   6.461  13.630
25964SOL    HW279725   4.330   6.373  13.658
25965SOL     OW79726   0.076  10.043   1.814
25965SOL    HW179727   0.018  10.025   1.740
25965SOL    HW279728   0.087  10.138   1.814
25966SOL     OW79729   8.616  10.387   4.768
25966SOL    HW179730   8.686  10.432   4.815
25966SOL    HW279731   8.646  10.296   4.761
25967SOL     OW79732   5.030   9.151   1.983
25967SOL    HW179733   5.019   9.227   2.040
25967SOL    HW279734   4.973   9.084   2.021
25968SOL     OW79735   4.648  14.863   0.618
25968SOL    HW179736   4.654   0.051   0.552
25968SOL    HW279737   4.657   0.028   0.701
25969SOL     OW79738   0.235   5.700   0.899
25969SOL    HW179739   0.194   5.623   0.939
25969SOL    HW279740   0.188   5.712   0.817
25970SOL     OW79741   9.579  14.818  10.017
25970SOL    HW179742   9.585  14.735  10.064
25970SOL    HW279743   9.668  14.831   9.982
25971SOL     OW79744   2.878   0.043   0.723
25971SOL    HW179745   2.960   0.092   0.726
25971SOL    HW279746   2.861   0.029   0.630
25972SOL     OW79747   3.973  13.337   5.529
25972SOL    HW179748   3.952  13.252   5.490
25972SOL    HW279749   3.887  13.379   5.542
25973SOL     OW79750   1.639  11.754   7.878
25973SOL    HW179751   1.675  11.682   7.826
25973SOL    HW279752   1.561  11.716   7.919
25974SOL     OW79753   7.646   8.850   8.693
25974SOL    HW179754   7.554   8.824   8.695
25974SOL    HW279755   7.649   8.932   8.741
25975SOL     OW79756  12.786   5.345  13.064
25975SOL    HW179757  12.855   5.317  13.124
25975SOL    HW279758  12.803   5.295  12.984
25976SOL     OW79759   5.466   6.356   2.573
25976SOL    HW179760   5.467   6.411   2.651
25976SOL    HW279761   5.428   6.273   2.602
25977SOL     OW79762  13.725  14.776   1.435
25977SOL    HW179763  13.686  14.757   1.350
25977SOL    HW279764  13.654  14.814   1.486
25978SOL     OW79765  10.188   5.207   6.119
25978SOL    HW179766  10.182   5.182   6.026
25978SOL    HW279767  10.263   5.158   6.152
25979SOL     OW79768   8.183   5.057   6.683
25979SOL    HW179769   8.202   5.142   6.722
25979SOL    HW279770   8.092   5.064   6.655
25980SOL     OW79771  10.821   4.994  10.108
25980SOL    HW179772  10.914   5.014  10.117
25980SOL    HW279773  10.777   5.079  10.113
25981SOL     OW79774   4.514   0.787   6.526
25981SOL    HW179775   4.575   0.860   6.536
25981SOL    HW279776   4.565   0.718   6.484
25982SOL     OW79777   2.582  11.460  14.782
25982SOL    HW179778   2.647  11.396  14.753
25982SOL    HW279779   2.625  11.510  14.851
25983SOL     OW79780   0.856   1.652   3.665
25983SOL    HW179781   0.836   1.566   3.700
25983SOL    HW279782   0.939   1.676   3.705
25984SOL     OW79783  11.809   8.011  13.234
25984SOL    HW179784  11.902   8.009  13.259
25984SOL    HW279785  11.765   8.047  13.311
25985SOL     OW79786   3.425  13.320   3.624
25985SOL    HW179787   3.411  13.229   3.650
25985SOL    HW279788   3.494  13.352   3.682
25986SOL     OW79789  13.439   1.211   8.556
25986SOL    HW179790  13.512   1.150   8.566
25986SOL    HW279791  13.371   1.160   8.511
25987SOL     OW79792   5.201  12.008   0.471
25987SOL    HW179793   5.186  11.999   0.565
25987SOL    HW279794   5.145  12.081   0.445
25988SOL     OW79795   0.060  13.652   2.242
25988SOL    HW179796   0.025  13.732   2.202
25988SOL    HW279797   0.146  13.678   2.274
25989SOL     OW79798   9.959   1.038   5.734
25989SOL    HW179799   9.905   0.959   5.728
25989SOL    HW279800   9.911   1.095   5.794
25990SOL     OW79801   7.961   7.463  14.438
25990SOL    HW179802   7.952   7.509  14.521
25990SOL    HW279803   8.055   7.444  14.431
25991SOL     OW79804   9.687   0.127   5.429
25991SOL    HW179805   9.652   0.068   5.363
25991SOL    HW279806   9.758   0.174   5.385
25992SOL     OW79807   3.378   2.935   5.282
25992SOL    HW179808   3.339   2.863   5.331
25992SOL    HW279809   3.326   3.012   5.307
25993SOL     OW79810  13.609  13.199   8.273
25993SOL    HW179811  13.639  13.288   8.294
25993SOL    HW279812  13.687  13.156   8.238
25994SOL     OW79813  11.522  12.438   9.793
25994SOL    HW179814  11.493  12.348   9.782
25994SOL    HW279815  11.468  12.473   9.864
25995SOL     OW79816  10.920  11.349  13.103
25995SOL    HW179817  11.014  11.333  13.095
25995SOL    HW279818  10.897  11.398  13.025
25996SOL     OW79819   9.302   8.177   5.024
25996SOL    HW179820   9.243   8.231   4.970
25996SOL    HW279821   9.376   8.157   4.966
25997SOL     OW79822   8.634   8.960  12.989
25997SOL    HW179823   8.560   8.923  12.939
25997SOL    HW279824   8.678   9.018  12.927
25998SOL     OW79825   0.185  14.182   4.938
25998SOL    HW179826   0.095  14.213   4.930
25998SOL    HW279827   0.236  14.245   4.887
25999SOL     OW79828  13.945   0.151  14.519
25999SOL    HW179829  14.000   0.077  14.545
25999SOL    HW279830  14.000   0.228  14.533
26000SOL     OW79831   4.679   1.633   4.886
26000SOL    HW179832   4.734   1.708   4.906
26000SOL    HW279833   4.594   1.670   4.863
26001SOL     OW79834   6.107   9.079   0.915
26001SOL    HW179835   6.030   9.074   0.972
26001SOL    HW279836   6.098   9.005   0.855
26002SOL     OW79837   1.753   2.773   2.195
26002SOL    HW179838   1.719   2.861   2.181
26002SOL    HW279839   1.719   2.723   2.121
26003SOL     OW79840   9.638   8.245  10.283
26003SOL    HW179841   9.564   8.186  10.266
26003SOL    HW279842   9.598   8.322  10.324
26004SOL     OW79843   1.670   3.795  12.655
26004SOL    HW179844   1.751   3.824  12.612
26004SOL    HW279845   1.700   3.754  12.737
26005SOL     OW79846  13.530   2.699   0.690
26005SOL    HW179847  13.440   2.729   0.700
26005SOL    HW279848  13.523   2.618   0.639
26006SOL     OW79849   2.652  12.348  12.449
26006SOL    HW179850   2.662  12.262  12.408
26006SOL    HW279851   2.679  12.334  12.540
26007SOL     OW79852   6.060   9.640   6.380
26007SOL    HW179853   6.060   9.567   6.319
26007SOL    HW279854   6.064   9.718   6.325
26008SOL     OW79855   7.898   6.094  12.340
26008SOL    HW179856   7.839   6.019  12.327
26008SOL    HW279857   7.845   6.170  12.320
26009SOL     OW79858   0.479   0.089   7.110
26009SOL    HW179859   0.569   0.108   7.135
26009SOL    HW279860   0.482   0.002   7.071
26010SOL     OW79861   5.747  12.654   6.106
26010SOL    HW179862   5.654  12.673   6.090
26010SOL    HW279863   5.791  12.737   6.089
26011SOL     OW79864   0.254   6.601   7.558
26011SOL    HW179865   0.238   6.684   7.604
26011SOL    HW279866   0.291   6.544   7.624
26012SOL     OW79867  13.898  11.899  13.742
26012SOL    HW179868  13.986  11.879  13.774
26012SOL    HW279869  13.906  11.901  13.647
26013SOL     OW79870   2.152  14.743   1.840
26013SOL    HW179871   2.139  14.658   1.882
26013SOL    HW279872   2.199  14.723   1.759
26014SOL     OW79873   8.179   7.501   9.663
26014SOL    HW179874   8.213   7.432   9.607
26014SOL    HW279875   8.186   7.465   9.752
26015SOL     OW79876  10.732   4.432   7.022
26015SOL    HW179877  10.755   4.497   7.088
26015SOL    HW279878  10.816   4.395   6.994
26016SOL     OW79879  10.558   8.901  11.005
26016SOL    HW179880  10.645   8.917  11.042
26016SOL    HW279881  10.574   8.848  10.927
26017SOL     OW79882   5.615   2.451   7.083
26017SOL    HW179883   5.686   2.390   7.062
26017SOL    HW279884   5.579   2.476   6.998
26018SOL     OW79885   5.969  10.236   3.258
26018SOL    HW179886   6.048  10.269   3.216
26018SOL    HW279887   5.958  10.147   3.224
26019SOL     OW79888   6.803   4.431   0.698
26019SOL    HW179889   6.895   4.435   0.723
26019SOL    HW279890   6.804   4.431   0.602
26020SOL     OW79891  10.480   9.255  12.917
26020SOL    HW179892  10.502   9.168  12.885
26020SOL    HW279893  10.384   9.257  12.916
26021SOL     OW79894   5.562   0.980   0.006
26021SOL    HW179895   5.623   0.910  14.863
26021SOL    HW279896   5.597   1.058  14.846
26022SOL     OW79897   1.497   8.070   0.550
26022SOL    HW179898   1.568   8.008   0.534
26022SOL    HW279899   1.503   8.134   0.479
26023SOL     OW79900   2.011  13.297   3.088
26023SOL    HW179901   2.020  13.202   3.080
26023SOL    HW279902   2.077  13.332   3.027
26024SOL     OW79903   1.280  13.269  12.363
26024SOL    HW179904   1.192  13.284  12.331
26024SOL    HW279905   1.300  13.178  12.340
26025SOL     OW79906   3.003  13.546   0.278
26025SOL    HW179907   3.076  13.488   0.258
26025SOL    HW279908   3.037  13.606   0.344
26026SOL     OW79909   6.277  13.370   4.082
26026SOL    HW179910   6.299  13.289   4.128
26026SOL    HW279911   6.193  13.396   4.120
26027SOL     OW79912   2.541   7.529   7.727
26027SOL    HW179913   2.536   7.485   7.811
26027SOL    HW279914   2.504   7.616   7.743
26028SOL     OW79915   0.637   1.977   5.185
26028SOL    HW179916   0.666   2.007   5.099
26028SOL    HW279917   0.598   2.056   5.225
26029SOL     OW79918  13.396   7.453  13.786
26029SOL    HW179919  13.476   7.498  13.813
26029SOL    HW279920  13.425   7.392  13.718
26030SOL     OW79921  13.952   4.676  10.772
26030SOL    HW179922  13.999   4.741  10.825
26030SOL    HW279923  13.990   4.592  10.797
26031SOL     OW79924  12.026   7.835   8.762
26031SOL    HW179925  12.042   7.928   8.769
26031SOL    HW279926  12.087   7.794   8.823
26032SOL     OW79927  11.444   8.168  13.850
26032SOL    HW179928  11.456   8.179  13.944
26032SOL    HW279929  11.360   8.124  13.841
26033SOL     OW79930   3.838  13.530   8.864
26033SOL    HW179931   3.752  13.556   8.831
26033SOL    HW279932   3.830  13.534   8.959
26034SOL     OW79933   5.051   1.227  10.521
26034SOL    HW179934   5.015   1.233  10.609
26034SOL    HW279935   5.105   1.148  10.522
26035SOL     OW79936   5.541   9.003  14.813
26035SOL    HW179937   5.507   9.091  14.795
26035SOL    HW279938   5.610   9.017  14.878
26036SOL     OW79939   4.687  12.561   5.553
26036SOL    HW179940   4.782  12.566   5.540
26036SOL    HW279941   4.655  12.648   5.529
26037SOL     OW79942  13.266  14.518   3.329
26037SOL    HW179943  13.220  14.566   3.397
26037SOL    HW279944  13.358  14.522   3.355
26038SOL     OW79945   8.508   2.634   4.675
26038SOL    HW179946   8.501   2.728   4.658
26038SOL    HW279947   8.549   2.598   4.596
26039SOL     OW79948  13.346   2.292  14.848
26039SOL    HW179949  13.438   2.268  14.860
26039SOL    HW279950  13.302   2.210  14.827
26040SOL     OW79951   9.652   4.650  12.714
26040SOL    HW179952   9.666   4.722  12.776
26040SOL    HW279953   9.591   4.685  12.650
26041SOL     OW79954  13.249   9.148   0.260
26041SOL    HW179955  13.322   9.086   0.252
26041SOL    HW279956  13.279   9.226   0.214
26042SOL     OW79957   8.084   2.808  12.592
26042SOL    HW179958   8.146   2.753  12.544
26042SOL    HW279959   8.076   2.887  12.539
26043SOL     OW79960   7.395   2.996   5.547
26043SOL    HW179961   7.488   2.999   5.526
26043SOL    HW279962   7.391   3.004   5.642
26044SOL     OW79963   0.421   6.339   6.134
26044SOL    HW179964   0.342   6.393   6.140
26044SOL    HW279965   0.429   6.298   6.220
26045SOL     OW79966  10.075   1.990  14.523
26045SOL    HW179967  10.084   2.067  14.467
26045SOL    HW279968  10.156   1.987  14.573
26046SOL     OW79969   9.984   7.587  14.760
26046SOL    HW179970  10.053   7.535  14.721
26046SOL    HW279971   9.919   7.523  14.789
26047SOL     OW79972   8.527   1.863   9.481
26047SOL    HW179973   8.608   1.830   9.519
26047SOL    HW279974   8.465   1.865   9.554
26048SOL     OW79975  11.846   8.487  12.141
26048SOL    HW179976  11.818   8.530  12.061
26048SOL    HW279977  11.798   8.404  12.142
26049SOL     OW79978   6.745   8.781  14.458
26049SOL    HW179979   6.661   8.793  14.503
26049SOL    HW279980   6.806   8.836  14.507
26050SOL     OW79981  14.459   3.305   5.187
26050SOL    HW179982  14.395   3.247   5.227
26050SOL    HW279983  14.431   3.313   5.096
26051SOL     OW79984   0.505   1.745   4.117
26051SOL    HW179985   0.481   1.653   4.126
26051SOL    HW279986   0.600   1.743   4.105
26052SOL     OW79987   4.824  10.545   8.477
26052SOL    HW179988   4.834  10.569   8.385
26052SOL    HW279989   4.890  10.596   8.524
26053SOL     OW79990   0.171   7.019  10.293
26053SOL    HW179991   0.093   7.071  10.313
26053SOL    HW279992   0.208   7.060  10.215
26054SOL     OW79993   7.103  12.205   0.237
26054SOL    HW179994   7.171  12.174   0.178
26054SOL    HW279995   7.082  12.129   0.291
26055SOL     OW79996   8.701   6.103   1.559
26055SOL    HW179997   8.788   6.069   1.581
26055SOL    HW279998   8.718   6.182   1.508
26056SOL     OW79999   3.519   7.225  10.651
26056SOL    HW180000   3.466   7.176  10.588
26056SOL    HW280001   3.541   7.306  10.605
26057SOL     OW80002   5.172  11.680   1.071
26057SOL    HW180003   5.107  11.742   1.105
26057SOL    HW280004   5.162  11.602   1.125
26058SOL     OW80005  13.506   7.962   9.007
26058SOL    HW180006  13.587   7.933   8.965
26058SOL    HW280007  13.460   8.012   8.939
26059SOL     OW80008   6.069  14.277  10.276
26059SOL    HW180009   6.064  14.188  10.310
26059SOL    HW280010   6.085  14.332  10.353
26060SOL     OW80011  13.524  12.936   1.170
26060SOL    HW180012  13.439  12.979   1.178
26060SOL    HW280013  13.540  12.898   1.256
26061SOL     OW80014   1.085   4.255  10.571
26061SOL    HW180015   1.116   4.334  10.527
26061SOL    HW280016   1.141   4.247  10.648
26062SOL     OW80017   8.615   4.796  11.614
26062SOL    HW180018   8.570   4.713  11.598
26062SOL    HW280019   8.562   4.861  11.568
26063SOL     OW80020   9.047   5.641   0.361
26063SOL    HW180021   9.131   5.623   0.319
26063SOL    HW280022   8.999   5.558   0.357
26064SOL     OW80023   3.234  12.363  10.492
26064SOL    HW180024   3.323  12.401  10.489
26064SOL    HW280025   3.244  12.275  10.455
26065SOL     OW80026   0.478  11.122   4.553
26065SOL    HW180027   0.569  11.109   4.524
26065SOL    HW280028   0.474  11.080   4.639
26066SOL     OW80029  13.034   8.445   5.016
26066SOL    HW180030  13.009   8.501   4.943
26066SOL    HW280031  12.982   8.478   5.090
26067SOL     OW80032   7.306  14.377   5.884
26067SOL    HW180033   7.298  14.418   5.970
26067SOL    HW280034   7.300  14.283   5.901
26068SOL     OW80035   0.447   6.108  13.852
26068SOL    HW180036   0.462   6.200  13.832
26068SOL    HW280037   0.413   6.107  13.941
26069SOL     OW80038  13.830   1.027  13.768
26069SOL    HW180039  13.851   1.113  13.806
26069SOL    HW280040  13.853   1.035  13.675
26070SOL     OW80041   0.422  13.614   7.865
26070SOL    HW180042   0.424  13.518   7.865
26070SOL    HW280043   0.357  13.637   7.931
26071SOL     OW80044   9.584   5.906  14.369
26071SOL    HW180045   9.633   5.876  14.446
26071SOL    HW280046   9.506   5.850  14.367
26072SOL     OW80047   5.248  12.736   7.438
26072SOL    HW180048   5.313  12.792   7.395
26072SOL    HW280049   5.219  12.787   7.513
26073SOL     OW80050  13.598   0.717   5.852
26073SOL    HW180051  13.601   0.638   5.907
26073SOL    HW280052  13.506   0.741   5.849
26074SOL     OW80053   2.503  13.616  11.891
26074SOL    HW180054   2.556  13.612  11.811
26074SOL    HW280055   2.416  13.585  11.864
26075SOL     OW80056  14.702   9.825   3.915
26075SOL    HW180057  14.640   9.858   3.850
26075SOL    HW280058  14.785   9.819   3.868
26076SOL     OW80059   3.581   0.544   7.864
26076SOL    HW180060   3.526   0.529   7.942
26076SOL    HW280061   3.567   0.635   7.842
26077SOL     OW80062   9.650   6.279   5.804
26077SOL    HW180063   9.687   6.324   5.879
26077SOL    HW280064   9.586   6.219   5.841
26078SOL     OW80065   4.987  12.157   8.963
26078SOL    HW180066   4.923  12.114   8.905
26078SOL    HW280067   5.025  12.227   8.909
26079SOL     OW80068   1.277   4.363   4.982
26079SOL    HW180069   1.340   4.430   4.954
26079SOL    HW280070   1.266   4.378   5.076
26080SOL     OW80071   7.134   9.461   2.204
26080SOL    HW180072   7.220   9.502   2.207
26080SOL    HW280073   7.147   9.383   2.149
26081SOL     OW80074   6.043   2.278   0.969
26081SOL    HW180075   6.132   2.304   0.943
26081SOL    HW280076   6.019   2.210   0.907
26082SOL     OW80077   4.228  10.230   1.245
26082SOL    HW180078   4.175  10.152   1.260
26082SOL    HW280079   4.200  10.262   1.160
26083SOL     OW80080  13.903   5.359   0.988
26083SOL    HW180081  13.938   5.274   0.963
26083SOL    HW280082  13.836   5.339   1.054
26084SOL     OW80083   1.514   0.138  13.294
26084SOL    HW180084   1.507   0.178  13.381
26084SOL    HW280085   1.600   0.095  13.294
26085SOL     OW80086  11.640  14.655   7.718
26085SOL    HW180087  11.552  14.690   7.703
26085SOL    HW280088  11.628  14.585   7.782
26086SOL     OW80089  10.578   5.592   5.635
26086SOL    HW180090  10.487   5.567   5.618
26086SOL    HW280091  10.601   5.651   5.563
26087SOL     OW80092   6.258   5.085  10.141
26087SOL    HW180093   6.274   5.066  10.048
26087SOL    HW280094   6.265   4.999  10.184
26088SOL     OW80095   7.097   9.354   7.203
26088SOL    HW180096   7.081   9.435   7.251
26088SOL    HW280097   7.031   9.293   7.237
26089SOL     OW80098  12.390   7.393   4.150
26089SOL    HW180099  12.321   7.445   4.109
26089SOL    HW280100  12.351   7.306   4.163
26090SOL     OW80101   1.573  12.164  12.752
26090SOL    HW180102   1.613  12.163  12.839
26090SOL    HW280103   1.530  12.249  12.747
26091SOL     OW80104   8.463   6.401  14.106
26091SOL    HW180105   8.391   6.340  14.117
26091SOL    HW280106   8.539   6.355  14.142
26092SOL     OW80107   5.844   7.471   3.806
26092SOL    HW180108   5.758   7.463   3.766
26092SOL    HW280109   5.831   7.532   3.878
26093SOL     OW80110  13.912  13.309  10.061
26093SOL    HW180111  13.986  13.288  10.004
26093SOL    HW280112  13.949  13.365  10.129
26094SOL     OW80113   7.304   2.458   6.810
26094SOL    HW180114   7.281   2.382   6.756
26094SOL    HW280115   7.220   2.502   6.826
26095SOL     OW80116   7.472   1.811   2.848
26095SOL    HW180117   7.420   1.889   2.826
26095SOL    HW280118   7.435   1.781   2.931
26096SOL     OW80119   3.524  13.737  12.018
26096SOL    HW180120   3.472  13.766  12.093
26096SOL    HW280121   3.483  13.778  11.942
26097SOL     OW80122  10.695  10.677   5.779
26097SOL    HW180123  10.713  10.730   5.857
26097SOL    HW280124  10.771  10.691   5.723
26098SOL     OW80125   9.855   7.634  10.301
26098SOL    HW180126   9.907   7.554  10.299
26098SOL    HW280127   9.868   7.674  10.215
26099SOL     OW80128   7.306   4.223  10.952
26099SOL    HW180129   7.367   4.239  10.880
26099SOL    HW280130   7.349   4.260  11.029
26100SOL     OW80131  11.570   9.439   9.323
26100SOL    HW180132  11.552   9.389   9.403
26100SOL    HW280133  11.662   9.463   9.330
26101SOL     OW80134   6.066   2.883   8.586
26101SOL    HW180135   6.111   2.895   8.502
26101SOL    HW280136   5.974   2.871   8.563
26102SOL     OW80137  12.152   7.490  13.920
26102SOL    HW180138  12.071   7.488  13.867
26102SOL    HW280139  12.128   7.445  14.001
26103SOL     OW80140  13.494   1.033   7.532
26103SOL    HW180141  13.551   0.958   7.515
26103SOL    HW280142  13.519   1.098   7.465
26104SOL     OW80143   3.874   3.998   7.798
26104SOL    HW180144   3.811   3.956   7.856
26104SOL    HW280145   3.847   4.089   7.794
26105SOL     OW80146  13.023   5.907   6.161
26105SOL    HW180147  13.093   5.842   6.164
26105SOL    HW280148  13.003   5.916   6.068
26106SOL     OW80149   0.013   4.118   3.466
26106SOL    HW180150  14.844   4.196   3.446
26106SOL    HW280151   0.012   4.067   3.385
26107SOL     OW80152   0.996  10.355   9.131
26107SOL    HW180153   0.997  10.450   9.118
26107SOL    HW280154   1.031  10.320   9.049
26108SOL     OW80155   0.281   4.480   4.608
26108SOL    HW180156   0.340   4.550   4.637
26108SOL    HW280157   0.273   4.422   4.684
26109SOL     OW80158   9.291   0.709   7.580
26109SOL    HW180159   9.331   0.675   7.499
26109SOL    HW280160   9.211   0.657   7.590
26110SOL     OW80161  14.416   1.211   8.920
26110SOL    HW180162  14.469   1.259   8.983
26110SOL    HW280163  14.371   1.279   8.870
26111SOL     OW80164   5.006   4.409  14.759
26111SOL    HW180165   5.025   4.376  14.671
26111SOL    HW280166   4.953   4.487  14.744
26112SOL     OW80167   4.127   6.431   0.866
26112SOL    HW180168   4.184   6.367   0.825
26112SOL    HW280169   4.121   6.402   0.957
26113SOL     OW80170  14.071   0.124   6.368
26113SOL    HW180171  14.092   0.117   6.461
26113SOL    HW280172  14.110   0.207   6.340
26114SOL     OW80173   8.976  11.109   6.208
26114SOL    HW180174   9.000  11.120   6.116
26114SOL    HW280175   9.015  11.026   6.234
26115SOL     OW80176   0.921   9.429  10.911
26115SOL    HW180177   0.998   9.374  10.926
26115SOL    HW280178   0.848   9.378  10.948
26116SOL     OW80179   7.556   0.814   4.065
26116SOL    HW180180   7.515   0.886   4.112
26116SOL    HW280181   7.484   0.770   4.020
26117SOL     OW80182  11.040   4.664   5.972
26117SOL    HW180183  11.027   4.675   6.066
26117SOL    HW280184  11.008   4.575   5.954
26118SOL     OW80185  12.729  12.650   8.624
26118SOL    HW180186  12.803  12.609   8.668
26118SOL    HW280187  12.702  12.720   8.684
26119SOL     OW80188  13.937   4.260  12.760
26119SOL    HW180189  13.863   4.205  12.786
26119SOL    HW280190  13.970   4.221  12.680
26120SOL     OW80191   9.937   5.070   0.367
26120SOL    HW180192   9.914   5.131   0.437
26120SOL    HW280193   9.979   5.125   0.300
26121SOL     OW80194   3.623   9.154   6.216
26121SOL    HW180195   3.676   9.209   6.274
26121SOL    HW280196   3.534   9.186   6.228
26122SOL     OW80197   0.416  11.299  11.572
26122SOL    HW180198   0.454  11.356  11.639
26122SOL    HW280199   0.457  11.214  11.585
26123SOL     OW80200   6.070  12.561   4.183
26123SOL    HW180201   6.115  12.561   4.268
26123SOL    HW280202   6.109  12.487   4.136
26124SOL     OW80203   3.934  13.729   6.984
26124SOL    HW180204   3.956  13.642   7.018
26124SOL    HW280205   3.866  13.761   7.043
26125SOL     OW80206   0.382  14.862   6.252
26125SOL    HW180207   0.451   0.046   6.247
26125SOL    HW280208   0.407  14.796   6.188
26126SOL     OW80209  11.482   4.549  14.539
26126SOL    HW180210  11.441   4.463  14.531
26126SOL    HW280211  11.473   4.571  14.632
26127SOL     OW80212   7.978   8.810  11.498
26127SOL    HW180213   8.014   8.835  11.413
26127SOL    HW280214   7.971   8.715  11.494
26128SOL     OW80215   8.681  12.709   2.679
26128SOL    HW180216   8.673  12.754   2.595
26128SOL    HW280217   8.774  12.685   2.685
26129SOL     OW80218   7.840   1.573  12.388
26129SOL    HW180219   7.807   1.484  12.371
26129SOL    HW280220   7.931   1.570  12.359
26130SOL     OW80221  14.380   9.678   2.223
26130SOL    HW180222  14.362   9.743   2.155
26130SOL    HW280223  14.466   9.642   2.199
26131SOL     OW80224   4.710   3.377  13.041
26131SOL    HW180225   4.703   3.367  12.946
26131SOL    HW280226   4.764   3.304  13.069
26132SOL     OW80227   8.253  10.106   2.138
26132SOL    HW180228   8.230  10.026   2.185
26132SOL    HW280229   8.328  10.082   2.084
26133SOL     OW80230  10.156   0.090  14.190
26133SOL    HW180231  10.066   0.117  14.174
26133SOL    HW280232  10.149   0.021  14.256
26134SOL     OW80233   5.630  10.121  11.026
26134SOL    HW180234   5.657  10.191  10.966
26134SOL    HW280235   5.535  10.131  11.031
26135SOL     OW80236   6.733   1.395   2.364
26135SOL    HW180237   6.754   1.302   2.353
26135SOL    HW280238   6.701   1.423   2.279
26136SOL     OW80239   6.796   7.182   6.782
26136SOL    HW180240   6.851   7.152   6.711
26136SOL    HW280241   6.757   7.264   6.750
26137SOL     OW80242  14.485   9.998   1.688
26137SOL    HW180243  14.459   9.938   1.618
26137SOL    HW280244  14.503   9.941   1.763
26138SOL     OW80245  11.607   9.447   9.710
26138SOL    HW180246  11.543   9.409   9.770
26138SOL    HW280247  11.629   9.376   9.650
26139SOL     OW80248   2.863   3.273   3.436
26139SOL    HW180249   2.794   3.335   3.413
26139SOL    HW280250   2.840   3.193   3.388
26140SOL     OW80251   2.381  11.936   8.050
26140SOL    HW180252   2.409  11.853   8.089
26140SOL    HW280253   2.460  11.989   8.046
26141SOL     OW80254  14.508   9.192   0.742
26141SOL    HW180255  14.505   9.099   0.720
26141SOL    HW280256  14.573   9.198   0.812
26142SOL     OW80257   0.687   0.236   4.228
26142SOL    HW180258   0.732   0.261   4.147
26142SOL    HW280259   0.648   0.151   4.208
26143SOL     OW80260  14.375   0.086  10.439
26143SOL    HW180261  14.370   0.162  10.496
26143SOL    HW280262  14.323   0.111  10.362
26144SOL     OW80263   4.812   8.107   5.302
26144SOL    HW180264   4.764   8.029   5.274
26144SOL    HW280265   4.843   8.086   5.390
26145SOL     OW80266   3.621   3.228   5.529
26145SOL    HW180267   3.666   3.287   5.590
26145SOL    HW280268   3.528   3.249   5.540
26146SOL     OW80269   0.154  13.054  12.843
26146SOL    HW180270   0.205  13.135  12.840
26146SOL    HW280271   0.220  12.985  12.848
26147SOL     OW80272   2.204  12.934   4.889
26147SOL    HW180273   2.267  12.915   4.820
26147SOL    HW280274   2.159  12.851   4.903
26148SOL     OW80275  12.794  12.640   1.707
26148SOL    HW180276  12.705  12.674   1.704
26148SOL    HW280277  12.787  12.551   1.671
26149SOL     OW80278   9.446   5.604   8.132
26149SOL    HW180279   9.539   5.623   8.119
26149SOL    HW280280   9.404   5.634   8.052
26150SOL     OW80281  12.236   7.951   3.426
26150SOL    HW180282  12.275   7.904   3.352
26150SOL    HW280283  12.178   7.886   3.467
26151SOL     OW80284   3.383   4.370  12.679
26151SOL    HW180285   3.371   4.295  12.621
26151SOL    HW280286   3.455   4.346  12.736
26152SOL     OW80287   0.675   1.400  13.913
26152SOL    HW180288   0.603   1.342  13.888
26152SOL    HW280289   0.754   1.352  13.887
26153SOL     OW80290   8.095  14.017  10.745
26153SOL    HW180291   8.011  14.021  10.791
26153SOL    HW280292   8.154  13.972  10.805
26154SOL     OW80293   3.013  11.355  11.224
26154SOL    HW180294   2.956  11.394  11.158
26154SOL    HW280295   2.958  11.345  11.301
26155SOL     OW80296   4.401   6.353   8.067
26155SOL    HW180297   4.340   6.281   8.078
26155SOL    HW280298   4.480   6.326   8.114
26156SOL     OW80299   3.016   3.913  14.857
26156SOL    HW180300   3.101   3.875  14.834
26156SOL    HW280301   3.001   3.980  14.791
26157SOL     OW80302   3.522  12.508   9.425
26157SOL    HW180303   3.603  12.559   9.432
26157SOL    HW280304   3.511  12.495   9.331
26158SOL     OW80305   5.121   1.653  13.983
26158SOL    HW180306   5.217   1.652  13.991
26158SOL    HW280307   5.105   1.672  13.890
26159SOL     OW80308   2.524  12.730   6.607
26159SOL    HW180309   2.465  12.742   6.681
26159SOL    HW280310   2.573  12.812   6.602
26160SOL     OW80311  13.183  10.155  11.822
26160SOL    HW180312  13.109  10.112  11.865
26160SOL    HW280313  13.254  10.148  11.885
26161SOL     OW80314   2.066   8.221   9.214
26161SOL    HW180315   2.104   8.135   9.231
26161SOL    HW280316   2.129   8.283   9.251
26162SOL     OW80317   6.049   2.244   1.243
26162SOL    HW180318   6.035   2.252   1.148
26162SOL    HW280319   6.082   2.330   1.269
26163SOL     OW80320   0.576  11.592  11.387
26163SOL    HW180321   0.634  11.641  11.329
26163SOL    HW280322   0.552  11.654  11.456
26164SOL     OW80323  11.715   8.048   4.498
26164SOL    HW180324  11.793   8.045   4.443
26164SOL    HW280325  11.664   8.121   4.464
26165SOL     OW80326   1.859   8.135  14.091
26165SOL    HW180327   1.896   8.109  14.174
26165SOL    HW280328   1.867   8.058  14.035
26166SOL     OW80329   0.575   7.833   9.918
26166SOL    HW180330   0.570   7.911   9.862
26166SOL    HW280331   0.657   7.791   9.893
26167SOL     OW80332   7.389   6.693   0.981
26167SOL    HW180333   7.388   6.769   1.039
26167SOL    HW280334   7.474   6.696   0.938
26168SOL     OW80335  14.069   2.159   7.041
26168SOL    HW180336  14.156   2.168   7.081
26168SOL    HW280337  14.064   2.229   6.977
26169SOL     OW80338   1.341   2.640   6.593
26169SOL    HW180339   1.378   2.648   6.505
26169SOL    HW280340   1.259   2.593   6.580
26170SOL     OW80341  12.940  13.396   3.961
26170SOL    HW180342  12.860  13.428   4.003
26170SOL    HW280343  12.993  13.363   4.034
26171SOL     OW80344   0.037   6.516   5.914
26171SOL    HW180345   0.092   6.507   5.992
26171SOL    HW280346  14.846   6.571   5.942
26172SOL     OW80347   3.696   2.462  13.697
26172SOL    HW180348   3.769   2.518  13.724
26172SOL    HW280349   3.715   2.438  13.606
26173SOL     OW80350   9.029  13.025  13.160
26173SOL    HW180351   9.034  13.029  13.256
26173SOL    HW280352   8.948  12.979  13.142
26174SOL     OW80353  13.443   8.793   8.730
26174SOL    HW180354  13.423   8.886   8.718
26174SOL    HW280355  13.424   8.754   8.645
26175SOL     OW80356   4.594  11.869   4.460
26175SOL    HW180357   4.656  11.901   4.525
26175SOL    HW280358   4.648  11.822   4.396
26176SOL     OW80359   0.492   2.821   8.988
26176SOL    HW180360   0.574   2.781   9.017
26176SOL    HW280361   0.435   2.817   9.065
26177SOL     OW80362  13.636   0.056   6.492
26177SOL    HW180363  13.703   0.014   6.439
26177SOL    HW280364  13.670   0.144   6.510
26178SOL     OW80365   1.069   5.263  10.279
26178SOL    HW180366   1.052   5.222  10.364
26178SOL    HW280367   1.025   5.207  10.216
26179SOL     OW80368   5.548   5.771   4.807
26179SOL    HW180369   5.461   5.755   4.772
26179SOL    HW280370   5.543   5.859   4.845
26180SOL     OW80371   4.959   6.377   1.162
26180SOL    HW180372   4.943   6.436   1.089
26180SOL    HW280373   5.053   6.377   1.174
26181SOL     OW80374   7.915   9.481  14.161
26181SOL    HW180375   7.883   9.570  14.145
26181SOL    HW280376   8.010   9.490  14.166
26182SOL     OW80377  12.269  10.403  14.773
26182SOL    HW180378  12.351  10.361  14.797
26182SOL    HW280379  12.237  10.441  14.854
26183SOL     OW80380   1.059   2.848  11.023
26183SOL    HW180381   1.099   2.810  10.945
26183SOL    HW280382   1.109   2.811  11.096
26184SOL     OW80383   3.429   8.082  10.397
26184SOL    HW180384   3.373   8.091  10.320
26184SOL    HW280385   3.514   8.116  10.369
26185SOL     OW80386   2.655  13.576   4.404
26185SOL    HW180387   2.640  13.658   4.451
26185SOL    HW280388   2.749  13.574   4.388
26186SOL     OW80389   4.019  13.825   8.981
26186SOL    HW180390   4.106  13.865   8.977
26186SOL    HW280391   3.988  13.844   9.069
26187SOL     OW80392  10.159   5.873   8.867
26187SOL    HW180393  10.122   5.793   8.830
26187SOL    HW280394  10.237   5.890   8.815
26188SOL     OW80395   2.270   9.199   6.193
26188SOL    HW180396   2.340   9.245   6.239
26188SOL    HW280397   2.263   9.244   6.109
26189SOL     OW80398   7.557   6.515  10.851
26189SOL    HW180399   7.504   6.534  10.929
26189SOL    HW280400   7.640   6.482  10.886
26190SOL     OW80401   8.834  13.524   6.173
26190SOL    HW180402   8.748  13.556   6.145
26190SOL    HW280403   8.832  13.530   6.269
26191SOL     OW80404   6.376   3.493   1.538
26191SOL    HW180405   6.306   3.440   1.500
26191SOL    HW280406   6.370   3.577   1.492
26192SOL     OW80407   6.443   5.694   8.666
26192SOL    HW180408   6.455   5.601   8.648
26192SOL    HW280409   6.529   5.724   8.696
26193SOL     OW80410   2.066   0.906   3.248
26193SOL    HW180411   2.018   0.893   3.166
26193SOL    HW280412   2.129   0.974   3.228
26194SOL     OW80413   2.149  11.730  11.603
26194SOL    HW180414   2.142  11.806  11.545
26194SOL    HW280415   2.064  11.725  11.645
26195SOL     OW80416  13.930  14.827   4.711
26195SOL    HW180417  13.847  14.800   4.672
26195SOL    HW280418  13.946  14.763   4.780
26196SOL     OW80419   0.215   3.030  12.450
26196SOL    HW180420   0.225   3.118  12.413
26196SOL    HW280421   0.270   3.031  12.529
26197SOL     OW80422   7.614   1.799   5.439
26197SOL    HW180423   7.668   1.728   5.474
26197SOL    HW280424   7.677   1.863   5.406
26198SOL     OW80425  12.231   1.653   5.498
26198SOL    HW180426  12.140   1.659   5.528
26198SOL    HW280427  12.282   1.644   5.579
26199SOL     OW80428   5.765  14.279  13.055
26199SOL    HW180429   5.713  14.208  13.092
26199SOL    HW280430   5.785  14.251  12.966
26200SOL     OW80431   3.917   3.951   4.770
26200SOL    HW180432   3.854   4.021   4.753
26200SOL    HW280433   4.001   3.995   4.778
26201SOL     OW80434   8.363   2.148   5.087
26201SOL    HW180435   8.278   2.191   5.076
26201SOL    HW280436   8.424   2.220   5.103
26202SOL     OW80437   6.760   0.016   4.436
26202SOL    HW180438   6.766   0.076   4.511
26202SOL    HW280439   6.702  14.828   4.466
26203SOL     OW80440  12.810   5.319   0.371
26203SOL    HW180441  12.786   5.358   0.287
26203SOL    HW280442  12.899   5.284   0.356
26204SOL     OW80443   9.727   4.482   1.943
26204SOL    HW180444   9.780   4.555   1.975
26204SOL    HW280445   9.640   4.499   1.980
26205SOL     OW80446   8.064   5.315   6.459
26205SOL    HW180447   8.109   5.335   6.541
26205SOL    HW280448   8.088   5.386   6.400
26206SOL     OW80449   6.432   0.193   6.270
26206SOL    HW180450   6.380   0.179   6.349
26206SOL    HW280451   6.446   0.105   6.235
26207SOL     OW80452   4.672   3.636   3.921
26207SOL    HW180453   4.706   3.606   3.837
26207SOL    HW280454   4.728   3.709   3.946
26208SOL     OW80455   1.524   7.072   0.141
26208SOL    HW180456   1.594   7.132   0.117
26208SOL    HW280457   1.543   7.047   0.232
26209SOL     OW80458  13.566  11.774   0.560
26209SOL    HW180459  13.516  11.781   0.641
26209SOL    HW280460  13.653  11.746   0.588
26210SOL     OW80461   6.840  10.974  13.335
26210SOL    HW180462   6.825  10.923  13.255
26210SOL    HW280463   6.883  10.912  13.395
26211SOL     OW80464  11.877   8.727   4.832
26211SOL    HW180465  11.870   8.755   4.741
26211SOL    HW280466  11.858   8.805   4.883
26212SOL     OW80467  12.865   8.928   8.273
26212SOL    HW180468  12.833   8.902   8.359
26212SOL    HW280469  12.820   8.869   8.212
26213SOL     OW80470   6.284   8.491   9.614
26213SOL    HW180471   6.189   8.506   9.619
26213SOL    HW280472   6.300   8.422   9.678
26214SOL     OW80473   2.849  11.408   9.821
26214SOL    HW180474   2.872  11.501   9.826
26214SOL    HW280475   2.818  11.396   9.732
26215SOL     OW80476   4.192  13.900   9.638
26215SOL    HW180477   4.184  13.838   9.711
26215SOL    HW280478   4.109  13.948   9.637
26216SOL     OW80479   4.507  11.498   1.371
26216SOL    HW180480   4.549  11.581   1.395
26216SOL    HW280481   4.569  11.455   1.312
26217SOL     OW80482  14.116   3.905   9.754
26217SOL    HW180483  14.026   3.923   9.726
26217SOL    HW280484  14.122   3.809   9.754
26218SOL     OW80485   4.596  12.833   3.878
26218SOL    HW180486   4.515  12.860   3.921
26218SOL    HW280487   4.576  12.746   3.842
26219SOL     OW80488  14.415  10.305  14.641
26219SOL    HW180489  14.372  10.313  14.726
26219SOL    HW280490  14.367  10.235  14.596
26220SOL     OW80491   3.389   7.417  11.107
26220SOL    HW180492   3.395   7.397  11.014
26220SOL    HW280493   3.480   7.420  11.137
26221SOL     OW80494   3.449   7.664   8.615
26221SOL    HW180495   3.521   7.698   8.561
26221SOL    HW280496   3.404   7.602   8.558
26222SOL     OW80497  13.875   9.096  14.661
26222SOL    HW180498  13.943   9.098  14.595
26222SOL    HW280499  13.878   9.006  14.695
26223SOL     OW80500  14.384  10.945   4.150
26223SOL    HW180501  14.292  10.968   4.141
26223SOL    HW280502  14.432  11.023   4.121
26224SOL     OW80503   4.788   5.728   1.604
26224SOL    HW180504   4.859   5.694   1.659
26224SOL    HW280505   4.784   5.822   1.626
26225SOL     OW80506   6.006   8.350   7.342
26225SOL    HW180507   6.089   8.367   7.297
26225SOL    HW280508   5.985   8.433   7.386
26226SOL     OW80509   8.812   8.999  10.704
26226SOL    HW180510   8.805   9.065  10.772
26226SOL    HW280511   8.722   8.975  10.684
26227SOL     OW80512  12.162   0.996  14.780
26227SOL    HW180513  12.162   0.978  14.686
26227SOL    HW280514  12.069   0.999  14.803
26228SOL     OW80515   1.409  14.398  12.619
26228SOL    HW180516   1.358  14.406  12.700
26228SOL    HW280517   1.347  14.420  12.550
26229SOL     OW80518   1.618   9.039   4.037
26229SOL    HW180519   1.531   9.075   4.020
26229SOL    HW280520   1.629   8.972   3.970
26230SOL     OW80521  10.800   9.157   1.576
26230SOL    HW180522  10.851   9.077   1.570
26230SOL    HW280523  10.754   9.150   1.660
26231SOL     OW80524   2.848   0.556   3.976
26231SOL    HW180525   2.779   0.617   4.002
26231SOL    HW280526   2.886   0.527   4.059
26232SOL     OW80527   3.661  12.369   4.669
26232SOL    HW180528   3.752  12.345   4.687
26232SOL    HW280529   3.614  12.285   4.667
26233SOL     OW80530  10.520   1.131   4.174
26233SOL    HW180531  10.430   1.135   4.207
26233SOL    HW280532  10.515   1.165   4.085
26234SOL     OW80533   8.955   6.072  10.601
26234SOL    HW180534   8.924   6.113  10.521
26234SOL    HW280535   8.881   6.019  10.631
26235SOL     OW80536   4.939  13.026   3.047
26235SOL    HW180537   4.961  13.017   2.955
26235SOL    HW280538   4.844  13.036   3.049
26236SOL     OW80539   2.868   0.365  12.598
26236SOL    HW180540   2.792   0.308  12.589
26236SOL    HW280541   2.832   0.449  12.628
26237SOL     OW80542   3.431  14.527   0.293
26237SOL    HW180543   3.393  14.521   0.380
26237SOL    HW280544   3.525  14.515   0.307
26238SOL     OW80545  13.536   0.090  13.579
26238SOL    HW180546  13.443   0.074  13.561
26238SOL    HW280547  13.572   0.003  13.596
26239SOL     OW80548  10.397   8.034  12.635
26239SOL    HW180549  10.370   7.974  12.565
26239SOL    HW280550  10.319   8.086  12.653
26240SOL     OW80551   9.591   6.393  12.174
26240SOL    HW180552   9.611   6.319  12.116
26240SOL    HW280553   9.581   6.467  12.115
26241SOL     OW80554  14.022   9.023   4.297
26241SOL    HW180555  13.968   9.036   4.376
26241SOL    HW280556  14.007   8.932   4.272
26242SOL     OW80557   2.963  10.964   4.015
26242SOL    HW180558   2.905  10.891   3.993
26242SOL    HW280559   3.036  10.956   3.953
26243SOL     OW80560  14.315   1.127   5.467
26243SOL    HW180561  14.369   1.125   5.546
26243SOL    HW280562  14.358   1.068   5.406
26244SOL     OW80563   3.265   1.875   4.942
26244SOL    HW180564   3.302   1.957   4.975
26244SOL    HW280565   3.172   1.881   4.964
26245SOL     OW80566   0.871   5.063   4.932
26245SOL    HW180567   0.861   5.140   4.876
26245SOL    HW280568   0.869   4.989   4.871
26246SOL     OW80569   0.658   2.301   2.612
26246SOL    HW180570   0.612   2.249   2.547
26246SOL    HW280571   0.749   2.271   2.606
26247SOL     OW80572   6.718  12.279   7.936
26247SOL    HW180573   6.656  12.348   7.960
26247SOL    HW280574   6.672  12.225   7.872
26248SOL     OW80575  14.796  12.544   0.147
26248SOL    HW180576  14.867  12.493   0.110
26248SOL    HW280577  14.811  12.541   0.242
26249SOL     OW80578   0.201   7.375   5.090
26249SOL    HW180579   0.269   7.330   5.040
26249SOL    HW280580   0.245   7.451   5.128
26250SOL     OW80581   7.032   4.692  11.229
26250SOL    HW180582   7.126   4.713  11.230
26250SOL    HW280583   6.991   4.766  11.274
26251SOL     OW80584  11.998   5.731  11.223
26251SOL    HW180585  11.955   5.656  11.182
26251SOL    HW280586  12.034   5.781  11.149
26252SOL     OW80587  13.769  11.487   3.715
26252SOL    HW180588  13.817  11.540   3.651
26252SOL    HW280589  13.721  11.423   3.662
26253SOL     OW80590  10.432  14.125   8.399
26253SOL    HW180591  10.410  14.201   8.453
26253SOL    HW280592  10.404  14.149   8.311
26254SOL     OW80593  11.879   8.150  14.639
26254SOL    HW180594  11.875   8.182  14.729
26254SOL    HW280595  11.909   8.225  14.587
26255SOL     OW80596   7.537  13.639   8.250
26255SOL    HW180597   7.503  13.600   8.170
26255SOL    HW280598   7.560  13.565   8.306
26256SOL     OW80599  14.786  12.320   7.786
26256SOL    HW180600  14.749  12.312   7.698
26256SOL    HW280601  14.869  12.273   7.780
26257SOL     OW80602   4.759   3.663   6.331
26257SOL    HW180603   4.805   3.663   6.247
26257SOL    HW280604   4.741   3.571   6.348
26258SOL     OW80605   6.815   1.100  12.945
26258SOL    HW180606   6.902   1.088  12.908
26258SOL    HW280607   6.760   1.122  12.871
26259SOL     OW80608   5.707   7.617   0.396
26259SOL    HW180609   5.674   7.532   0.424
26259SOL    HW280610   5.653   7.680   0.443
26260SOL     OW80611   1.262   8.318  12.794
26260SOL    HW180612   1.209   8.328  12.716
26260SOL    HW280613   1.261   8.224  12.812
26261SOL     OW80614   0.768   1.622   4.131
26261SOL    HW180615   0.831   1.600   4.063
26261SOL    HW280616   0.768   1.547   4.190
26262SOL     OW80617   6.888   1.214   7.236
26262SOL    HW180618   6.819   1.152   7.213
26262SOL    HW280619   6.842   1.286   7.279
26263SOL     OW80620   4.716  11.583   6.594
26263SOL    HW180621   4.699  11.535   6.513
26263SOL    HW280622   4.712  11.517   6.663
26264SOL     OW80623  13.008   6.658  10.567
26264SOL    HW180624  12.917   6.654  10.597
26264SOL    HW280625  13.047   6.576  10.599
26265SOL     OW80626   7.472   9.496  12.502
26265SOL    HW180627   7.510   9.409  12.490
26265SOL    HW280628   7.518   9.551  12.439
26266SOL     OW80629  11.390  12.325   1.256
26266SOL    HW180630  11.475  12.281   1.258
26266SOL    HW280631  11.363  12.329   1.348
26267SOL     OW80632   0.827  10.927  13.928
26267SOL    HW180633   0.819  11.007  13.979
26267SOL    HW280634   0.741  10.886  13.934
26268SOL     OW80635   9.782   8.089  10.837
26268SOL    HW180636   9.712   8.091  10.903
26268SOL    HW280637   9.778   8.176  10.796
26269SOL     OW80638   5.423   1.093   2.169
26269SOL    HW180639   5.436   1.110   2.262
26269SOL    HW280640   5.366   1.016   2.166
26270SOL     OW80641   2.929   4.425   3.519
26270SOL    HW180642   2.919   4.517   3.542
26270SOL    HW280643   2.894   4.378   3.595
26271SOL     OW80644   0.542   5.942   5.067
26271SOL    HW180645   0.544   6.032   5.035
26271SOL    HW280646   0.634   5.922   5.087
26272SOL     OW80647   5.034   6.217   5.358
26272SOL    HW180648   5.033   6.313   5.361
26272SOL    HW280649   5.077   6.190   5.439
26273SOL     OW80650  12.828   9.166   0.307
26273SOL    HW180651  12.898   9.219   0.345
26273SOL    HW280652  12.841   9.174   0.212
26274SOL     OW80653   3.260   0.563   6.236
26274SOL    HW180654   3.354   0.566   6.219
26274SOL    HW280655   3.237   0.654   6.257
26275SOL     OW80656  12.410   1.749   9.013
26275SOL    HW180657  12.326   1.704   9.012
26275SOL    HW280658  12.445   1.734   9.101
26276SOL     OW80659   0.186   2.576  10.969
26276SOL    HW180660   0.232   2.573  11.054
26276SOL    HW280661   0.255   2.559  10.905
26277SOL     OW80662   1.926   1.347  11.673
26277SOL    HW180663   1.993   1.405  11.711
26277SOL    HW280664   1.937   1.357  11.578
26278SOL     OW80665  12.005   0.887   3.342
26278SOL    HW180666  11.933   0.825   3.349
26278SOL    HW280667  12.055   0.876   3.423
26279SOL     OW80668   3.725   0.493   9.824
26279SOL    HW180669   3.766   0.453   9.901
26279SOL    HW280670   3.659   0.430   9.797
26280SOL     OW80671   4.675   0.853  10.388
26280SOL    HW180672   4.589   0.859  10.346
26280SOL    HW280673   4.737   0.860  10.315
26281SOL     OW80674   1.178   1.274  14.155
26281SOL    HW180675   1.204   1.326  14.231
26281SOL    HW280676   1.137   1.196  14.192
26282SOL     OW80677   7.122   8.662  12.651
26282SOL    HW180678   7.183   8.729  12.622
26282SOL    HW280679   7.098   8.616  12.570
26283SOL     OW80680  10.011   1.809   3.970
26283SOL    HW180681   9.978   1.768   3.890
26283SOL    HW280682  10.025   1.901   3.947
26284SOL     OW80683   1.578   8.739  11.026
26284SOL    HW180684   1.672   8.750  11.010
26284SOL    HW280685   1.567   8.646  11.045
26285SOL     OW80686   5.925   4.630   9.974
26285SOL    HW180687   5.886   4.650   9.888
26285SOL    HW280688   5.994   4.566   9.955
26286SOL     OW80689   1.494  14.323   1.158
26286SOL    HW180690   1.453  14.321   1.244
26286SOL    HW280691   1.539  14.239   1.150
26287SOL     OW80692   5.969   9.807   5.523
26287SOL    HW180693   5.984   9.880   5.463
26287SOL    HW280694   6.052   9.760   5.526
26288SOL     OW80695   9.755  10.572   1.068
26288SOL    HW180696   9.759  10.481   1.039
26288SOL    HW280697   9.814  10.619   1.009
26289SOL     OW80698  11.707   7.530   5.661
26289SOL    HW180699  11.710   7.625   5.664
26289SOL    HW280700  11.632   7.507   5.716
26290SOL     OW80701   7.571   8.553  10.873
26290SOL    HW180702   7.664   8.570  10.860
26290SOL    HW280703   7.527   8.621  10.821
26291SOL     OW80704  11.499   1.892   4.874
26291SOL    HW180705  11.540   1.808   4.896
26291SOL    HW280706  11.438   1.871   4.804
26292SOL     OW80707   2.990   5.686   3.608
26292SOL    HW180708   3.017   5.715   3.695
26292SOL    HW280709   2.895   5.697   3.608
26293SOL     OW80710   5.487   5.466   0.217
26293SOL    HW180711   5.520   5.411   0.287
26293SOL    HW280712   5.402   5.429   0.194
26294SOL     OW80713  13.155   0.739   1.887
26294SOL    HW180714  13.103   0.661   1.866
26294SOL    HW280715  13.184   0.772   1.802
26295SOL     OW80716   2.055   6.901   3.852
26295SOL    HW180717   1.981   6.932   3.904
26295SOL    HW280718   2.126   6.961   3.873
26296SOL     OW80719  11.769  12.511   9.737
26296SOL    HW180720  11.681  12.481   9.761
26296SOL    HW280721  11.754  12.587   9.681
26297SOL     OW80722   2.582   4.307   3.111
26297SOL    HW180723   2.530   4.227   3.107
26297SOL    HW280724   2.620   4.307   3.199
26298SOL     OW80725   3.874  12.842   1.683
26298SOL    HW180726   3.939  12.800   1.741
26298SOL    HW280727   3.925  12.871   1.608
26299SOL     OW80728   8.660   6.233   2.628
26299SOL    HW180729   8.748   6.197   2.629
26299SOL    HW280730   8.605   6.160   2.600
26300SOL     OW80731   5.468  12.622   9.262
26300SOL    HW180732   5.550  12.645   9.219
26300SOL    HW280733   5.438  12.705   9.301
26301SOL     OW80734   9.252  13.346   1.438
26301SOL    HW180735   9.284  13.420   1.387
26301SOL    HW280736   9.260  13.271   1.379
26302SOL     OW80737  12.933   5.000   0.288
26302SOL    HW180738  13.015   4.996   0.239
26302SOL    HW280739  12.865   4.986   0.223
26303SOL     OW80740   5.076   5.437   7.522
26303SOL    HW180741   5.105   5.359   7.569
26303SOL    HW280742   5.087   5.508   7.586
26304SOL     OW80743   4.948   6.752   1.834
26304SOL    HW180744   4.967   6.713   1.749
26304SOL    HW280745   4.992   6.694   1.897
26305SOL     OW80746  13.345   3.846  14.119
26305SOL    HW180747  13.367   3.936  14.142
26305SOL    HW280748  13.249   3.844  14.120
26306SOL     OW80749   3.847   7.275   1.954
26306SOL    HW180750   3.898   7.355   1.964
26306SOL    HW280751   3.765   7.304   1.913
26307SOL     OW80752   0.014   3.955   9.312
26307SOL    HW180753   0.052   4.029   9.360
26307SOL    HW280754   0.077   3.884   9.323
26308SOL     OW80755   9.260   5.125   6.109
26308SOL    HW180756   9.259   5.210   6.153
26308SOL    HW280757   9.215   5.066   6.169
26309SOL     OW80758   8.240   5.296   5.332
26309SOL    HW180759   8.326   5.254   5.330
26309SOL    HW280760   8.249   5.369   5.270
26310SOL     OW80761   5.083   8.805  13.370
26310SOL    HW180762   5.133   8.784  13.291
26310SOL    HW280763   5.119   8.888  13.400
26311SOL     OW80764   9.650  11.924   8.387
26311SOL    HW180765   9.626  11.880   8.305
26311SOL    HW280766   9.688  12.007   8.359
26312SOL     OW80767  14.310   3.548  10.437
26312SOL    HW180768  14.255   3.589  10.504
26312SOL    HW280769  14.254   3.544  10.359
26313SOL     OW80770   7.319  11.626   2.428
26313SOL    HW180771   7.311  11.720   2.440
26313SOL    HW280772   7.242  11.601   2.377
26314SOL     OW80773  12.309   0.039   4.304
26314SOL    HW180774  12.294  14.872   4.223
26314SOL    HW280775  12.377   0.102   4.281
26315SOL     OW80776  14.225   5.815   3.874
26315SOL    HW180777  14.307   5.863   3.881
26315SOL    HW280778  14.202   5.818   3.781
26316SOL     OW80779   3.047   0.535   0.047
26316SOL    HW180780   2.971   0.477   0.060
26316SOL    HW280781   3.092   0.533   0.131
26317SOL     OW80782   5.866  11.136  12.430
26317SOL    HW180783   5.795  11.198  12.443
26317SOL    HW280784   5.823  11.055  12.403
26318SOL     OW80785   0.809   4.003   3.331
26318SOL    HW180786   0.816   4.047   3.416
26318SOL    HW280787   0.827   3.911   3.350
26319SOL     OW80788   6.258   9.546  13.374
26319SOL    HW180789   6.256   9.591  13.289
26319SOL    HW280790   6.247   9.616  13.438
26320SOL     OW80791   1.664   0.588   3.279
26320SOL    HW180792   1.647   0.640   3.200
26320SOL    HW280793   1.593   0.525   3.282
26321SOL     OW80794   0.785   3.459   6.549
26321SOL    HW180795   0.784   3.364   6.535
26321SOL    HW280796   0.820   3.469   6.637
26322SOL     OW80797   1.684  11.604  10.248
26322SOL    HW180798   1.675  11.689  10.292
26322SOL    HW280799   1.775  11.600  10.220
26323SOL     OW80800  14.816  14.849   6.691
26323SOL    HW180801  14.821  14.811   6.779
26323SOL    HW280802  14.863  14.788   6.635
26324SOL     OW80803   1.256   6.919  10.058
26324SOL    HW180804   1.307   6.914   9.977
26324SOL    HW280805   1.321   6.925  10.128
26325SOL     OW80806  12.947   2.988   6.117
26325SOL    HW180807  12.895   2.912   6.090
26325SOL    HW280808  13.019   2.990   6.054
26326SOL     OW80809   7.463  10.861   7.962
26326SOL    HW180810   7.422  10.850   7.877
26326SOL    HW280811   7.408  10.812   8.023
26327SOL     OW80812   1.684   7.479  12.977
26327SOL    HW180813   1.724   7.464  12.891
26327SOL    HW280814   1.664   7.391  13.009
26328SOL     OW80815   3.479  14.092  10.368
26328SOL    HW180816   3.387  14.074  10.388
26328SOL    HW280817   3.527  14.065  10.446
26329SOL     OW80818  10.075  12.817   3.457
26329SOL    HW180819  10.134  12.756   3.413
26329SOL    HW280820  10.027  12.764   3.520
26330SOL     OW80821   1.063   5.617  11.620
26330SOL    HW180822   1.077   5.584  11.531
26330SOL    HW280823   1.145   5.596  11.666
26331SOL     OW80824  13.296  10.426   4.895
26331SOL    HW180825  13.322  10.480   4.970
26331SOL    HW280826  13.344  10.344   4.906
26332SOL     OW80827   1.496  11.782  10.986
26332SOL    HW180828   1.402  11.800  10.986
26332SOL    HW280829   1.531  11.842  11.053
26333SOL     OW80830   2.088   5.462  13.530
26333SOL    HW180831   2.094   5.498  13.442
26333SOL    HW280832   2.145   5.385  13.528
26334SOL     OW80833   4.747  13.598   5.460
26334SOL    HW180834   4.813  13.572   5.525
26334SOL    HW280835   4.675  13.634   5.513
26335SOL     OW80836   9.685   1.550   4.705
26335SOL    HW180837   9.661   1.527   4.615
26335SOL    HW280838   9.720   1.469   4.742
26336SOL     OW80839   9.643   7.313   8.257
26336SOL    HW180840   9.627   7.405   8.238
26336SOL    HW280841   9.658   7.273   8.171
26337SOL     OW80842   6.185   7.698   1.720
26337SOL    HW180843   6.233   7.729   1.796
26337SOL    HW280844   6.169   7.605   1.738
26338SOL     OW80845  14.511  10.181  11.177
26338SOL    HW180846  14.442  10.237  11.139
26338SOL    HW280847  14.503  10.098  11.130
26339SOL     OW80848  13.453  10.269   0.971
26339SOL    HW180849  13.391  10.341   0.964
26339SOL    HW280850  13.500  10.269   0.888
26340SOL     OW80851   4.640   0.682   5.271
26340SOL    HW180852   4.592   0.635   5.204
26340SOL    HW280853   4.574   0.705   5.337
26341SOL     OW80854  11.617   4.164   2.278
26341SOL    HW180855  11.541   4.201   2.232
26341SOL    HW280856  11.586   4.150   2.368
26342SOL     OW80857  14.457   4.037  14.057
26342SOL    HW180858  14.457   4.038  14.153
26342SOL    HW280859  14.541   4.075  14.032
26343SOL     OW80860   5.369   0.100   9.980
26343SOL    HW180861   5.329   0.154  10.048
26343SOL    HW280862   5.453   0.143   9.963
26344SOL     OW80863   2.739   1.133  13.413
26344SOL    HW180864   2.648   1.145  13.441
26344SOL    HW280865   2.791   1.167  13.485
26345SOL     OW80866   9.828   1.983   4.320
26345SOL    HW180867   9.900   2.038   4.350
26345SOL    HW280868   9.801   2.022   4.236
26346SOL     OW80869  10.677   2.178  13.248
26346SOL    HW180870  10.625   2.101  13.272
26346SOL    HW280871  10.616   2.251  13.252
26347SOL     OW80872  13.586   9.193   3.829
26347SOL    HW180873  13.612   9.280   3.799
26347SOL    HW280874  13.530   9.159   3.759
26348SOL     OW80875  11.452   7.667   0.250
26348SOL    HW180876  11.529   7.623   0.214
26348SOL    HW280877  11.393   7.595   0.275
26349SOL     OW80878   9.012   7.096  11.443
26349SOL    HW180879   8.966   7.069  11.522
26349SOL    HW280880   9.034   7.013  11.399
26350SOL     OW80881  10.794  10.462   1.007
26350SOL    HW180882  10.769  10.549   1.038
26350SOL    HW280883  10.712  10.425   0.974
26351SOL     OW80884   8.005   9.656   2.897
26351SOL    HW180885   7.983   9.568   2.929
26351SOL    HW280886   8.060   9.640   2.820
26352SOL     OW80887   6.326   8.196   7.561
26352SOL    HW180888   6.398   8.250   7.529
26352SOL    HW280889   6.331   8.116   7.509
26353SOL     OW80890   4.094  12.104   2.641
26353SOL    HW180891   4.148  12.111   2.562
26353SOL    HW280892   4.025  12.043   2.617
26354SOL     OW80893  10.920   4.876  12.348
26354SOL    HW180894  10.937   4.932  12.424
26354SOL    HW280895  10.932   4.787  12.380
26355SOL     OW80896   8.175  13.365   3.666
26355SOL    HW180897   8.163  13.274   3.638
26355SOL    HW280898   8.125  13.416   3.603
26356SOL     OW80899  10.762   5.172   3.019
26356SOL    HW180900  10.685   5.217   3.052
26356SOL    HW280901  10.730   5.087   2.991
26357SOL     OW80902   3.114  11.553   4.008
26357SOL    HW180903   3.200  11.570   3.970
26357SOL    HW280904   3.114  11.602   4.091
26358SOL     OW80905   9.443  14.490  11.264
26358SOL    HW180906   9.372  14.552  11.279
26358SOL    HW280907   9.487  14.484  11.349
26359SOL     OW80908   2.039   0.123   9.312
26359SOL    HW180909   2.073   0.058   9.374
26359SOL    HW280910   1.956   0.086   9.281
26360SOL     OW80911   6.476   2.294   0.256
26360SOL    HW180912   6.443   2.323   0.341
26360SOL    HW280913   6.431   2.351   0.193
26361SOL     OW80914  12.493   6.362  11.142
26361SOL    HW180915  12.582   6.346  11.172
26361SOL    HW280916  12.440   6.360  11.222
26362SOL     OW80917   1.444   7.565   3.290
26362SOL    HW180918   1.412   7.567   3.380
26362SOL    HW280919   1.412   7.645   3.251
26363SOL     OW80920   1.009   9.533   7.135
26363SOL    HW180921   0.958   9.613   7.150
26363SOL    HW280922   0.979   9.473   7.203
26364SOL     OW80923  11.618   5.567   6.684
26364SOL    HW180924  11.561   5.631   6.726
26364SOL    HW280925  11.629   5.601   6.594
26365SOL     OW80926   4.219   0.331   8.261
26365SOL    HW180927   4.256   0.364   8.179
26365SOL    HW280928   4.290   0.279   8.300
26366SOL     OW80929  14.728  11.494   3.743
26366SOL    HW180930  14.809  11.470   3.787
26366SOL    HW280931  14.712  11.422   3.681
26367SOL     OW80932  12.504  12.791   5.079
26367SOL    HW180933  12.575  12.765   5.021
26367SOL    HW280934  12.547  12.845   5.146
26368SOL     OW80935  14.563   2.562   4.125
26368SOL    HW180936  14.628   2.605   4.068
26368SOL    HW280937  14.528   2.491   4.071
26369SOL     OW80938   7.009  10.781   1.374
26369SOL    HW180939   6.942  10.760   1.310
26369SOL    HW280940   6.964  10.835   1.440
26370SOL     OW80941   9.642  10.046   7.907
26370SOL    HW180942   9.671   9.970   7.857
26370SOL    HW280943   9.679  10.034   7.994
26371SOL     OW80944  11.509  13.718   7.251
26371SOL    HW180945  11.429  13.746   7.206
26371SOL    HW280946  11.488  13.631   7.284
26372SOL     OW80947   3.557  11.499   3.220
26372SOL    HW180948   3.492  11.469   3.284
26372SOL    HW280949   3.641  11.490   3.265
26373SOL     OW80950   4.558  12.728   8.496
26373SOL    HW180951   4.561  12.639   8.461
26373SOL    HW280952   4.576  12.784   8.421
26374SOL     OW80953   6.473  12.281   4.204
26374SOL    HW180954   6.544  12.249   4.147
26374SOL    HW280955   6.512  12.353   4.253
26375SOL     OW80956   1.476   1.332  13.569
26375SOL    HW180957   1.526   1.400  13.614
26375SOL    HW280958   1.403   1.314  13.629
26376SOL     OW80959  13.185   0.752   3.092
26376SOL    HW180960  13.120   0.683   3.076
26376SOL    HW280961  13.250   0.740   3.022
26377SOL     OW80962   2.963   3.200   7.490
26377SOL    HW180963   2.907   3.131   7.525
26377SOL    HW280964   2.944   3.276   7.545
26378SOL     OW80965   9.004   9.175   2.458
26378SOL    HW180966   9.049   9.115   2.397
26378SOL    HW280967   9.054   9.167   2.539
26379SOL     OW80968  11.650   8.779   9.297
26379SOL    HW180969  11.559   8.768   9.325
26379SOL    HW280970  11.656   8.872   9.273
26380SOL     OW80971   4.127  12.307   9.572
26380SOL    HW180972   4.032  12.312   9.565
26380SOL    HW280973   4.150  12.226   9.527
26381SOL     OW80974   4.929   4.402   1.002
26381SOL    HW180975   4.868   4.445   1.061
26381SOL    HW280976   5.014   4.441   1.023
26382SOL     OW80977  13.768   7.742  11.953
26382SOL    HW180978  13.725   7.795  11.885
26382SOL    HW280979  13.736   7.653  11.938
26383SOL     OW80980   7.361   4.320   8.981
26383SOL    HW180981   7.455   4.338   8.983
26383SOL    HW280982   7.328   4.370   8.906
26384SOL     OW80983   3.213   6.620  13.614
26384SOL    HW180984   3.128   6.576  13.616
26384SOL    HW280985   3.246   6.611  13.703
26385SOL     OW80986   1.459   3.330  10.197
26385SOL    HW180987   1.534   3.286  10.236
26385SOL    HW280988   1.470   3.318  10.103
26386SOL     OW80989   4.849   0.891   1.129
26386SOL    HW180990   4.789   0.966   1.137
26386SOL    HW280991   4.812   0.839   1.058
26387SOL     OW80992   9.980   9.756   7.631
26387SOL    HW180993  10.060   9.805   7.647
26387SOL    HW280994   9.997   9.670   7.669
26388SOL     OW80995   5.733   9.620   2.480
26388SOL    HW180996   5.658   9.645   2.426
26388SOL    HW280997   5.794   9.578   2.418
26389SOL     OW80998   2.421   6.350   1.900
26389SOL    HW180999   2.374   6.432   1.916
26389SOL    HW281000   2.472   6.367   1.821
26390SOL     OW81001  11.668  10.858  11.614
26390SOL    HW181002  11.703  10.868  11.703
26390SOL    HW281003  11.645  10.765  11.608
26391SOL     OW81004  10.459   8.381  11.789
26391SOL    HW181005  10.484   8.339  11.872
26391SOL    HW281006  10.463   8.475  11.808
26392SOL     OW81007  13.489   2.903  14.123
26392SOL    HW181008  13.443   2.976  14.165
26392SOL    HW281009  13.564   2.944  14.080
26393SOL     OW81010   2.347  12.302   6.121
26393SOL    HW181011   2.368  12.391   6.151
26393SOL    HW281012   2.383  12.298   6.032
26394SOL     OW81013  12.477   8.707   0.393
26394SOL    HW181014  12.545   8.689   0.328
26394SOL    HW281015  12.519   8.765   0.456
26395SOL     OW81016   4.033  13.662   6.436
26395SOL    HW181017   3.942  13.633   6.426
26395SOL    HW281018   4.027  13.742   6.487
26396SOL     OW81019   0.845   0.435   2.547
26396SOL    HW181020   0.906   0.469   2.481
26396SOL    HW281021   0.769   0.493   2.543
26397SOL     OW81022  11.348   0.608  11.795
26397SOL    HW181023  11.414   0.539  11.788
26397SOL    HW281024  11.337   0.621  11.889
26398SOL     OW81025  10.981   4.725   5.041
26398SOL    HW181026  10.954   4.685   5.124
26398SOL    HW281027  11.056   4.779   5.065
26399SOL     OW81028   5.295  13.509   8.428
26399SOL    HW181029   5.319  13.473   8.514
26399SOL    HW281030   5.205  13.539   8.439
26400SOL     OW81031   2.747  13.756   4.045
26400SOL    HW181032   2.673  13.696   4.056
26400SOL    HW281033   2.720  13.835   4.091
26401SOL     OW81034   6.627   8.613  13.048
26401SOL    HW181035   6.602   8.625  13.140
26401SOL    HW281036   6.611   8.699  13.008
26402SOL     OW81037   9.110  14.142  13.558
26402SOL    HW181038   9.174  14.076  13.587
26402SOL    HW281039   9.028  14.094  13.553
26403SOL     OW81040   1.262  14.034   0.088
26403SOL    HW181041   1.344  14.070   0.122
26403SOL    HW281042   1.197  14.050   0.157
26404SOL     OW81043  13.351   9.828   9.830
26404SOL    HW181044  13.422   9.781   9.786
26404SOL    HW281045  13.313   9.763   9.890
26405SOL     OW81046   5.897   8.450  10.544
26405SOL    HW181047   5.831   8.517  10.525
26405SOL    HW281048   5.899   8.395  10.466
26406SOL     OW81049   6.599  13.648   8.723
26406SOL    HW181050   6.586  13.738   8.754
26406SOL    HW281051   6.623  13.657   8.631
26407SOL     OW81052   9.772  14.683  11.553
26407SOL    HW181053   9.706  14.625  11.515
26407SOL    HW281054   9.729  14.723  11.628
26408SOL     OW81055  14.407   8.623  14.431
26408SOL    HW181056  14.352   8.552  14.462
26408SOL    HW281057  14.497   8.592  14.446
26409SOL     OW81058  13.502   9.103   5.544
26409SOL    HW181059  13.504   9.029   5.483
26409SOL    HW281060  13.539   9.069   5.625
26410SOL     OW81061   2.704  12.957  10.722
26410SOL    HW181062   2.728  13.049  10.708
26410SOL    HW281063   2.742  12.911  10.648
26411SOL     OW81064  11.324   6.480   8.441
26411SOL    HW181065  11.254   6.430   8.482
26411SOL    HW281066  11.360   6.534   8.513
26412SOL     OW81067  13.954  10.478   8.359
26412SOL    HW181068  13.898  10.539   8.311
26412SOL    HW281069  14.043  10.512   8.347
26413SOL     OW81070  11.735   3.388  10.662
26413SOL    HW181071  11.814   3.430  10.696
26413SOL    HW281072  11.705   3.446  10.593
26414SOL     OW81073   8.466  14.172   0.307
26414SOL    HW181074   8.373  14.158   0.290
26414SOL    HW281075   8.485  14.258   0.272
26415SOL     OW81076  13.029   9.211   6.399
26415SOL    HW181077  12.990   9.145   6.342
26415SOL    HW281078  12.994   9.294   6.367
26416SOL     OW81079   1.295   2.475  13.986
26416SOL    HW181080   1.365   2.471  13.921
26416SOL    HW281081   1.326   2.419  14.057
26417SOL     OW81082  14.487   9.921   6.617
26417SOL    HW181083  14.491   9.860   6.691
26417SOL    HW281084  14.431   9.993   6.647
26418SOL     OW81085   2.304   7.087   9.475
26418SOL    HW181086   2.340   7.048   9.396
26418SOL    HW281087   2.277   7.175   9.449
26419SOL     OW81088   7.161   9.099   3.661
26419SOL    HW181089   7.178   9.125   3.752
26419SOL    HW281090   7.203   9.013   3.653
26420SOL     OW81091   6.343   7.810  13.724
26420SOL    HW181092   6.297   7.810  13.808
26420SOL    HW281093   6.346   7.903  13.699
26421SOL     OW81094   7.454   1.643   6.703
26421SOL    HW181095   7.545   1.669   6.686
26421SOL    HW281096   7.440   1.666   6.795
26422SOL     OW81097  13.893   3.364  10.782
26422SOL    HW181098  13.937   3.412  10.852
26422SOL    HW281099  13.962   3.348  10.717
26423SOL     OW81100   6.325   3.577   7.559
26423SOL    HW181101   6.357   3.562   7.649
26423SOL    HW281102   6.235   3.605   7.570
26424SOL     OW81103   5.388  13.278  13.193
26424SOL    HW181104   5.376  13.287  13.099
26424SOL    HW281105   5.430  13.192  13.203
26425SOL     OW81106   3.326   4.203   7.943
26425SOL    HW181107   3.282   4.280   7.906
26425SOL    HW281108   3.419   4.220   7.929
26426SOL     OW81109   3.244   0.140   9.484
26426SOL    HW181110   3.274   0.172   9.569
26426SOL    HW281111   3.297   0.188   9.420
26427SOL     OW81112  12.981  13.773  12.259
26427SOL    HW181113  12.977  13.794  12.353
26427SOL    HW281114  12.896  13.733  12.240
26428SOL     OW81115  13.157   8.054   4.141
26428SOL    HW181116  13.160   7.962   4.118
26428SOL    HW281117  13.070   8.083   4.113
26429SOL     OW81118   9.379   6.275  12.465
26429SOL    HW181119   9.468   6.295  12.495
26429SOL    HW281120   9.326   6.347  12.499
26430SOL     OW81121  11.858   8.692   5.639
26430SOL    HW181122  11.915   8.679   5.714
26430SOL    HW281123  11.775   8.651   5.664
26431SOL     OW81124   1.120  13.205  10.159
26431SOL    HW181125   1.146  13.115  10.180
26431SOL    HW281126   1.098  13.244  10.244
26432SOL     OW81127   9.150   3.921   6.571
26432SOL    HW181128   9.108   3.962   6.496
26432SOL    HW281129   9.231   3.884   6.536
26433SOL     OW81130   1.703   3.690   7.878
26433SOL    HW181131   1.681   3.758   7.816
26433SOL    HW281132   1.770   3.729   7.934
26434SOL     OW81133   7.919   2.813   2.365
26434SOL    HW181134   7.985   2.879   2.343
26434SOL    HW281135   7.969   2.743   2.408
26435SOL     OW81136   5.083  12.643   6.507
26435SOL    HW181137   5.060  12.735   6.520
26435SOL    HW281138   5.163  12.645   6.454
26436SOL     OW81139   3.996  14.612   0.710
26436SOL    HW181140   4.039  14.528   0.697
26436SOL    HW281141   3.910  14.590   0.747
26437SOL     OW81142   6.858   9.084   6.711
26437SOL    HW181143   6.895   9.153   6.765
26437SOL    HW281144   6.833   9.128   6.630
26438SOL     OW81145   3.978  14.710   2.281
26438SOL    HW181146   3.911  14.726   2.347
26438SOL    HW281147   4.006  14.797   2.253
26439SOL     OW81148   1.112   0.906  14.792
26439SOL    HW181149   1.070   0.920  14.877
26439SOL    HW281150   1.068   0.967  14.733
26440SOL     OW81151   5.297   6.221   0.149
26440SOL    HW181152   5.339   6.139   0.124
26440SOL    HW281153   5.352   6.289   0.110
26441SOL     OW81154   3.093   4.053   5.573
26441SOL    HW181155   3.105   4.080   5.482
26441SOL    HW281156   3.009   4.006   5.573
26442SOL     OW81157   4.266  14.800   3.076
26442SOL    HW181158   4.244  14.708   3.063
26442SOL    HW281159   4.314  14.824   2.998
26443SOL     OW81160  13.509   4.666   3.487
26443SOL    HW181161  13.429   4.690   3.534
26443SOL    HW281162  13.481   4.657   3.396
26444SOL     OW81163   8.298   4.039   1.207
26444SOL    HW181164   8.295   4.098   1.282
26444SOL    HW281165   8.254   3.960   1.238
26445SOL     OW81166   0.946   6.020   1.157
26445SOL    HW181167   0.994   5.988   1.234
26445SOL    HW281168   0.941   6.115   1.170
26446SOL     OW81169   8.005   6.487   5.301
26446SOL    HW181170   7.986   6.498   5.394
26446SOL    HW281171   8.097   6.512   5.292
26447SOL     OW81172   2.533  11.558  12.834
26447SOL    HW181173   2.489  11.561  12.920
26447SOL    HW281174   2.532  11.649  12.804
26448SOL     OW81175   9.189   4.789   0.918
26448SOL    HW181176   9.273   4.813   0.956
26448SOL    HW281177   9.189   4.829   0.831
26449SOL     OW81178   2.503   5.968   8.899
26449SOL    HW181179   2.595   5.942   8.895
26449SOL    HW281180   2.456   5.887   8.918
26450SOL     OW81181   7.406   0.335  11.844
26450SOL    HW181182   7.406   0.346  11.939
26450SOL    HW281183   7.401   0.424  11.809
26451SOL     OW81184   3.185   0.173   7.076
26451SOL    HW181185   3.272   0.156   7.112
26451SOL    HW281186   3.177   0.269   7.077
26452SOL     OW81187   5.079  14.564   3.871
26452SOL    HW181188   5.105  14.549   3.962
26452SOL    HW281189   5.046  14.654   3.870
26453SOL     OW81190   7.949   4.924   5.345
26453SOL    HW181191   7.980   4.979   5.274
26453SOL    HW281192   7.853   4.927   5.339
26454SOL     OW81193   0.673   0.426   3.691
26454SOL    HW181194   0.752   0.417   3.637
26454SOL    HW281195   0.620   0.349   3.670
26455SOL     OW81196   0.722   7.677  13.289
26455SOL    HW181197   0.732   7.584  13.307
26455SOL    HW281198   0.702   7.716  13.375
26456SOL     OW81199   3.304   8.221   4.912
26456SOL    HW181200   3.380   8.237   4.856
26456SOL    HW281201   3.331   8.150   4.969
26457SOL     OW81202   6.257  12.305   0.033
26457SOL    HW181203   6.180  12.255   0.009
26457SOL    HW281204   6.301  12.253   0.100
26458SOL     OW81205  11.070  14.622   7.373
26458SOL    HW181206  11.041  14.660   7.456
26458SOL    HW281207  11.159  14.590   7.391
26459SOL     OW81208   0.569   6.589  13.938
26459SOL    HW181209   0.544   6.681  13.953
26459SOL    HW281210   0.576   6.552  14.026
26460SOL     OW81211   2.483   9.270  14.778
26460SOL    HW181212   2.477   9.218  14.698
26460SOL    HW281213   2.536   9.346  14.753
26461SOL     OW81214  11.515   2.110   9.039
26461SOL    HW181215  11.446   2.043   9.051
26461SOL    HW281216  11.555   2.118   9.126
26462SOL     OW81217   2.276   2.947  12.569
26462SOL    HW181218   2.260   2.853  12.562
26462SOL    HW281219   2.212   2.978  12.634
26463SOL     OW81220  10.981   0.023   6.739
26463SOL    HW181221  11.011   0.041   6.650
26463SOL    HW281222  11.054   0.050   6.794
26464SOL     OW81223   6.817   4.368   7.414
26464SOL    HW181224   6.899   4.322   7.436
26464SOL    HW281225   6.798   4.340   7.325
26465SOL     OW81226   4.329   5.539  11.361
26465SOL    HW181227   4.267   5.509  11.428
26465SOL    HW281228   4.323   5.473  11.292
26466SOL     OW81229   1.000   0.236   2.779
26466SOL    HW181230   0.965   0.267   2.862
26466SOL    HW281231   0.970   0.300   2.714
26467SOL     OW81232   6.668   1.419   9.544
26467SOL    HW181233   6.612   1.417   9.622
26467SOL    HW281234   6.703   1.508   9.543
26468SOL     OW81235   6.903   0.201  14.642
26468SOL    HW181236   6.908   0.189  14.736
26468SOL    HW281237   6.972   0.144  14.607
26469SOL     OW81238   8.312   1.656   7.169
26469SOL    HW181239   8.395   1.647   7.217
26469SOL    HW281240   8.312   1.747   7.139
26470SOL     OW81241   5.528   8.938  12.115
26470SOL    HW181242   5.470   8.871  12.152
26470SOL    HW281243   5.616   8.904  12.133
26471SOL     OW81244   3.695   3.680  14.778
26471SOL    HW181245   3.734   3.761  14.811
26471SOL    HW281246   3.626   3.659  14.842
26472SOL     OW81247   5.022   3.145   8.397
26472SOL    HW181248   5.099   3.201   8.407
26472SOL    HW281249   5.055   3.067   8.353
26473SOL     OW81250  11.582  13.555   5.407
26473SOL    HW181251  11.584  13.460   5.395
26473SOL    HW281252  11.492  13.573   5.435
26474SOL     OW81253  12.255   3.848   7.370
26474SOL    HW181254  12.276   3.762   7.333
26474SOL    HW281255  12.171   3.872   7.330
26475SOL     OW81256  14.816  13.693   4.303
26475SOL    HW181257  14.882  13.749   4.261
26475SOL    HW281258  14.793  13.629   4.236
26476SOL     OW81259   8.831  13.378  14.450
26476SOL    HW181260   8.918  13.386  14.412
26476SOL    HW281261   8.773  13.363  14.376
26477SOL     OW81262   7.654  14.575   7.914
26477SOL    HW181263   7.680  14.484   7.929
26477SOL    HW281264   7.677  14.591   7.822
26478SOL     OW81265   1.018   0.395   3.263
26478SOL    HW181266   1.016   0.311   3.309
26478SOL    HW281267   0.980   0.377   3.177
26479SOL     OW81268  11.910   7.923   0.131
26479SOL    HW181269  11.894   7.868   0.054
26479SOL    HW281270  11.827   7.921   0.180
26480SOL     OW81271   1.948   1.950   7.983
26480SOL    HW181272   1.987   1.892   7.917
26480SOL    HW281273   1.963   1.905   8.066
26481SOL     OW81274   2.963  13.111   3.175
26481SOL    HW181275   2.950  13.017   3.185
26481SOL    HW281276   2.895  13.151   3.230
26482SOL     OW81277  14.867   1.888  11.448
26482SOL    HW181278   0.075   1.920  11.445
26482SOL    HW281279  14.842   1.893  11.540
26483SOL     OW81280   7.919  10.666  14.752
26483SOL    HW181281   7.828  10.645  14.772
26483SOL    HW281282   7.926  10.759  14.773
26484SOL     OW81283   4.401   0.043   6.669
26484SOL    HW181284   4.408  14.846   6.723
26484SOL    HW281285   4.477   0.096   6.694
26485SOL     OW81286   5.613   5.519  11.174
26485SOL    HW181287   5.653   5.601  11.146
26485SOL    HW281288   5.612   5.464  11.096
26486SOL     OW81289   0.667   9.662  11.673
26486SOL    HW181290   0.583   9.634  11.635
26486SOL    HW281291   0.733   9.624  11.616
26487SOL     OW81292   8.075   9.815  10.704
26487SOL    HW181293   8.152   9.760  10.684
26487SOL    HW281294   8.000   9.758  10.687
26488SOL     OW81295  12.358   5.774  10.059
26488SOL    HW181296  12.419   5.726  10.003
26488SOL    HW281297  12.283   5.792  10.002
26489SOL     OW81298  14.066  12.062   8.623
26489SOL    HW181299  14.159  12.046   8.640
26489SOL    HW281300  14.061  12.155   8.600
26490SOL     OW81301   4.045   0.167  11.212
26490SOL    HW181302   4.105   0.213  11.153
26490SOL    HW281303   4.027   0.230  11.282
26491SOL     OW81304   2.172   0.629   7.244
26491SOL    HW181305   2.232   0.567   7.286
26491SOL    HW281306   2.170   0.704   7.303
26492SOL     OW81307   2.479  10.085   5.117
26492SOL    HW181308   2.399  10.039   5.143
26492SOL    HW281309   2.465  10.106   5.024
26493SOL     OW81310   8.862   2.136   5.083
26493SOL    HW181311   8.902   2.159   4.999
26493SOL    HW281312   8.837   2.044   5.073
26494SOL     OW81313  14.262  13.968   5.552
26494SOL    HW181314  14.243  14.039   5.491
26494SOL    HW281315  14.215  13.893   5.517
26495SOL     OW81316  10.502   5.406  11.725
26495SOL    HW181317  10.579   5.427  11.672
26495SOL    HW281318  10.453   5.342  11.672
26496SOL     OW81319   9.861   8.376  14.377
26496SOL    HW181320   9.788   8.396  14.319
26496SOL    HW281321   9.921   8.449  14.365
26497SOL     OW81322   4.270  14.774   7.886
26497SOL    HW181323   4.216  14.707   7.927
26497SOL    HW281324   4.226  14.794   7.804
26498SOL     OW81325   5.084  13.871   4.273
26498SOL    HW181326   5.148  13.804   4.298
26498SOL    HW281327   5.019  13.871   4.343
26499SOL     OW81328   9.071   5.334   7.284
26499SOL    HW181329   9.152   5.319   7.333
26499SOL    HW281330   9.001   5.313   7.347
26500SOL     OW81331   1.015   4.461   4.906
26500SOL    HW181332   1.059   4.392   4.955
26500SOL    HW281333   0.962   4.414   4.841
26501SOL     OW81334   4.156   2.611   7.153
26501SOL    HW181335   4.078   2.613   7.209
26501SOL    HW281336   4.122   2.626   7.065
26502SOL     OW81337  10.072   1.304   1.179
26502SOL    HW181338  10.165   1.299   1.198
26502SOL    HW281339  10.037   1.364   1.244
26503SOL     OW81340  13.082   3.114  12.827
26503SOL    HW181341  13.142   3.039  12.825
26503SOL    HW281342  13.074   3.141  12.736
26504SOL     OW81343   1.554   4.245   4.024
26504SOL    HW181344   1.554   4.295   3.942
26504SOL    HW281345   1.492   4.291   4.080
26505SOL     OW81346   6.513  13.524  13.452
26505SOL    HW181347   6.469  13.598  13.410
26505SOL    HW281348   6.601  13.556  13.473
26506SOL     OW81349  11.352   0.310   4.847
26506SOL    HW181350  11.426   0.253   4.869
26506SOL    HW281351  11.313   0.270   4.770
26507SOL     OW81352   8.490  11.123  10.628
26507SOL    HW181353   8.585  11.119  10.637
26507SOL    HW281354   8.464  11.198  10.682
26508SOL     OW81355   5.766   3.021   7.061
26508SOL    HW181356   5.763   3.091   7.127
26508SOL    HW281357   5.844   3.040   7.009
26509SOL     OW81358   7.367   4.301  10.273
26509SOL    HW181359   7.279   4.320  10.240
26509SOL    HW281360   7.410   4.386  10.276
26510SOL     OW81361   6.513   4.147  13.445
26510SOL    HW181362   6.555   4.155  13.531
26510SOL    HW281363   6.429   4.192  13.455
26511SOL     OW81364   4.005   7.625   8.246
26511SOL    HW181365   4.081   7.682   8.237
26511SOL    HW281366   3.951   7.667   8.313
26512SOL     OW81367  14.873  11.679   0.296
26512SOL    HW181368   0.074  11.673   0.343
26512SOL    HW281369   0.015  11.718   0.211
26513SOL     OW81370  13.239   1.690   0.110
26513SOL    HW181371  13.145   1.704   0.123
26513SOL    HW281372  13.261   1.619   0.170
26514SOL     OW81373   5.942   6.453  12.111
26514SOL    HW181374   6.022   6.416  12.074
26514SOL    HW281375   5.945   6.546  12.086
26515SOL     OW81376   4.647  12.244   5.676
26515SOL    HW181377   4.740  12.224   5.664
26515SOL    HW281378   4.621  12.284   5.593
26516SOL     OW81379   6.542   8.123   6.971
26516SOL    HW181380   6.549   8.033   6.939
26516SOL    HW281381   6.449   8.135   6.989
26517SOL     OW81382   6.024   0.851   9.512
26517SOL    HW181383   6.066   0.904   9.579
26517SOL    HW281384   6.038   0.900   9.430
26518SOL     OW81385  12.506   8.537   3.654
26518SOL    HW181386  12.564   8.497   3.590
26518SOL    HW281387  12.525   8.631   3.650
26519SOL     OW81388  10.309  11.048   2.948
26519SOL    HW181389  10.392  11.014   2.912
26519SOL    HW281390  10.334  11.125   2.999
26520SOL     OW81391  13.233   3.526   6.234
26520SOL    HW181392  13.260   3.435   6.249
26520SOL    HW281393  13.309   3.567   6.192
26521SOL     OW81394  14.664  14.292   0.728
26521SOL    HW181395  14.743  14.248   0.757
26521SOL    HW281396  14.619  14.317   0.809
26522SOL     OW81397  14.308  11.635   6.053
26522SOL    HW181398  14.398  11.605   6.045
26522SOL    HW281399  14.313  11.730   6.043
26523SOL     OW81400  13.225  14.663  13.601
26523SOL    HW181401  13.174  14.583  13.588
26523SOL    HW281402  13.269  14.677  13.517
26524SOL     OW81403  13.026   9.130  11.537
26524SOL    HW181404  13.025   9.059  11.472
26524SOL    HW281405  13.004   9.086  11.619
26525SOL     OW81406  14.213   5.567   1.677
26525SOL    HW181407  14.147   5.508   1.715
26525SOL    HW281408  14.177   5.592   1.592
26526SOL     OW81409   2.461   1.134   6.493
26526SOL    HW181410   2.465   1.111   6.586
26526SOL    HW281411   2.515   1.212   6.484
26527SOL     OW81412  10.135  13.700  11.216
26527SOL    HW181413  10.058  13.657  11.253
26527SOL    HW281414  10.182  13.630  11.172
26528SOL     OW81415   1.385   5.876   6.553
26528SOL    HW181416   1.378   5.797   6.607
26528SOL    HW281417   1.295   5.909   6.548
26529SOL     OW81418   8.670   6.467  12.179
26529SOL    HW181419   8.757   6.479  12.215
26529SOL    HW281420   8.669   6.378  12.146
26530SOL     OW81421   9.607   8.970   1.017
26530SOL    HW181422   9.674   9.000   1.079
26530SOL    HW281423   9.557   9.048   0.996
26531SOL     OW81424   6.181  10.104   7.670
26531SOL    HW181425   6.163  10.040   7.602
26531SOL    HW281426   6.275  10.098   7.685
26532SOL     OW81427  14.718   2.178  13.577
26532SOL    HW181428  14.749   2.258  13.535
26532SOL    HW281429  14.695   2.205  13.666
26533SOL     OW81430  12.547   2.969  11.519
26533SOL    HW181431  12.514   2.945  11.606
26533SOL    HW281432  12.614   2.903  11.500
26534SOL     OW81433   6.471  11.756  10.816
26534SOL    HW181434   6.491  11.681  10.761
26534SOL    HW281435   6.526  11.827  10.781
26535SOL     OW81436   1.142   6.179  12.890
26535SOL    HW181437   1.076   6.125  12.847
26535SOL    HW281438   1.141   6.262  12.843
26536SOL     OW81439   5.080  10.791  14.749
26536SOL    HW181440   5.160  10.799  14.696
26536SOL    HW281441   5.011  10.770  14.686
26537SOL     OW81442   5.822   1.708   8.538
26537SOL    HW181443   5.901   1.677   8.582
26537SOL    HW281444   5.753   1.646   8.564
26538SOL     OW81445   7.753   3.496   0.735
26538SOL    HW181446   7.814   3.497   0.809
26538SOL    HW281447   7.714   3.409   0.737
26539SOL     OW81448  11.588   7.999   0.186
26539SOL    HW181449  11.590   8.027   0.278
26539SOL    HW281450  11.517   8.051   0.148
26540SOL     OW81451   1.928  14.424   2.452
26540SOL    HW181452   1.838  14.420   2.483
26540SOL    HW281453   1.981  14.417   2.532
26541SOL     OW81454   4.033   7.577  13.249
26541SOL    HW181455   3.970   7.512  13.219
26541SOL    HW281456   3.998   7.661  13.217
26542SOL     OW81457   9.033   9.589  10.669
26542SOL    HW181458   9.127   9.591  10.651
26542SOL    HW281459   8.993   9.635  10.595
26543SOL     OW81460   5.503   6.142   9.864
26543SOL    HW181461   5.490   6.114   9.955
26543SOL    HW281462   5.580   6.093   9.835
26544SOL     OW81463   5.519  11.499  10.788
26544SOL    HW181464   5.546  11.423  10.841
26544SOL    HW281465   5.447  11.538  10.837
26545SOL     OW81466  14.810   9.320   3.727
26545SOL    HW181467  14.855   9.280   3.652
26545SOL    HW281468  14.812   9.414   3.708
26546SOL     OW81469  11.486   2.208  12.190
26546SOL    HW181470  11.476   2.114  12.203
26546SOL    HW281471  11.570   2.217  12.145
26547SOL     OW81472   0.476   1.699  11.978
26547SOL    HW181473   0.550   1.751  11.944
26547SOL    HW281474   0.437   1.660  11.900
26548SOL     OW81475  11.997   0.918   4.784
26548SOL    HW181476  11.990   1.000   4.832
26548SOL    HW281477  12.017   0.852   4.851
26549SOL     OW81478   8.396   7.060  13.980
26549SOL    HW181479   8.487   7.076  14.005
26549SOL    HW281480   8.401   7.020  13.893
26550SOL     OW81481  13.742  13.136  12.317
26550SOL    HW181482  13.770  13.052  12.353
26550SOL    HW281483  13.662  13.115  12.268
26551SOL     OW81484   4.631   4.296   3.137
26551SOL    HW181485   4.624   4.269   3.046
26551SOL    HW281486   4.563   4.246   3.182
26552SOL     OW81487   3.112  10.689   7.180
26552SOL    HW181488   3.122  10.672   7.087
26552SOL    HW281489   3.177  10.756   7.199
26553SOL     OW81490  14.246  11.992  12.926
26553SOL    HW181491  14.166  11.969  12.972
26553SOL    HW281492  14.222  12.067  12.871
26554SOL     OW81493   4.439   1.012  11.163
26554SOL    HW181494   4.434   0.943  11.097
26554SOL    HW281495   4.418   1.092  11.117
26555SOL     OW81496   0.659   2.039   2.928
26555SOL    HW181497   0.741   1.991   2.940
26555SOL    HW281498   0.659   2.104   2.999
26556SOL     OW81499   4.146  14.114   6.337
26556SOL    HW181500   4.178  14.148   6.421
26556SOL    HW281501   4.199  14.159   6.271
26557SOL     OW81502   3.626  13.722   3.078
26557SOL    HW181503   3.627  13.658   3.007
26557SOL    HW281504   3.610  13.670   3.157
26558SOL     OW81505  11.252  11.255   2.804
26558SOL    HW181506  11.233  11.296   2.888
26558SOL    HW281507  11.324  11.195   2.822
26559SOL     OW81508  10.003   5.450  14.731
26559SOL    HW181509   9.913   5.418  14.733
26559SOL    HW281510  10.013   5.498  14.813
26560SOL     OW81511  12.459   1.457   6.979
26560SOL    HW181512  12.476   1.547   6.951
26560SOL    HW281513  12.367   1.442   6.958
26561SOL     OW81514   7.728  11.970   9.189
26561SOL    HW181515   7.680  11.925   9.120
26561SOL    HW281516   7.801  12.013   9.144
26562SOL     OW81517   3.531   8.581   2.183
26562SOL    HW181518   3.482   8.654   2.221
26562SOL    HW281519   3.589   8.622   2.118
26563SOL     OW81520  11.467   0.129   1.921
26563SOL    HW181521  11.527   0.172   1.859
26563SOL    HW281522  11.389   0.184   1.919
26564SOL     OW81523   2.721  13.241   9.146
26564SOL    HW181524   2.738  13.170   9.207
26564SOL    HW281525   2.629  13.229   9.121
26565SOL     OW81526   6.301  13.728  13.609
26565SOL    HW181527   6.345  13.740  13.525
26565SOL    HW281528   6.367  13.752  13.674
26566SOL     OW81529  14.565   8.286   1.149
26566SOL    HW181530  14.557   8.198   1.112
26566SOL    HW281531  14.656   8.311   1.133
26567SOL     OW81532   1.981  10.506   5.727
26567SOL    HW181533   2.017  10.509   5.815
26567SOL    HW281534   1.888  10.525   5.738
26568SOL     OW81535  12.365   8.121   7.245
26568SOL    HW181536  12.337   8.074   7.324
26568SOL    HW281537  12.453   8.152   7.266
26569SOL     OW81538   8.418   8.323  12.344
26569SOL    HW181539   8.434   8.312  12.438
26569SOL    HW281540   8.489   8.379  12.314
26570SOL     OW81541   8.686  10.168   5.012
26570SOL    HW181542   8.740  10.235   5.055
26570SOL    HW281543   8.717  10.167   4.922
26571SOL     OW81544  13.472  14.065   2.144
26571SOL    HW181545  13.386  14.096   2.115
26571SOL    HW281546  13.510  14.141   2.189
26572SOL     OW81547   1.549   2.715   1.748
26572SOL    HW181548   1.549   2.804   1.713
26572SOL    HW281549   1.468   2.676   1.714
26573SOL     OW81550  11.576   4.105  12.735
26573SOL    HW181551  11.527   4.084  12.814
26573SOL    HW281552  11.653   4.047  12.739
26574SOL     OW81553  12.191  12.335  11.749
26574SOL    HW181554  12.222  12.336  11.659
26574SOL    HW281555  12.097  12.352  11.743
26575SOL     OW81556   1.336   1.812  14.819
26575SOL    HW181557   1.373   1.875  14.881
26575SOL    HW281558   1.372   1.728  14.846
26576SOL     OW81559  12.989   1.757   0.112
26576SOL    HW181560  12.932   1.684   0.133
26576SOL    HW281561  12.940   1.835   0.140
26577SOL     OW81562   9.628   9.611   8.161
26577SOL    HW181563   9.696   9.545   8.177
26577SOL    HW281564   9.629   9.666   8.239
26578SOL     OW81565  14.053   7.579   3.897
26578SOL    HW181566  13.977   7.550   3.847
26578SOL    HW281567  14.126   7.576   3.834
26579SOL     OW81568  14.795   3.423  12.797
26579SOL    HW181569  14.821   3.414  12.889
26579SOL    HW281570  14.775   3.333  12.769
26580SOL     OW81571   6.782  13.318   4.046
26580SOL    HW181572   6.786  13.263   4.124
26580SOL    HW281573   6.827  13.266   3.978
26581SOL     OW81574   6.823  10.610   6.834
26581SOL    HW181575   6.735  10.589   6.865
26581SOL    HW281576   6.880  10.601   6.910
26582SOL     OW81577   6.093  12.267   8.500
26582SOL    HW181578   6.011  12.222   8.521
26582SOL    HW281579   6.129  12.217   8.426
26583SOL     OW81580   5.460   9.428   8.937
26583SOL    HW181581   5.450   9.481   8.857
26583SOL    HW281582   5.525   9.476   8.989
26584SOL     OW81583  10.532  13.026  14.179
26584SOL    HW181584  10.560  12.988  14.096
26584SOL    HW281585  10.581  12.978  14.245
26585SOL     OW81586   7.745   7.801  14.203
26585SOL    HW181587   7.729   7.808  14.109
26585SOL    HW281588   7.685   7.732  14.233
26586SOL     OW81589   0.411  14.377  14.349
26586SOL    HW181590   0.390  14.376  14.256
26586SOL    HW281591   0.504  14.354  14.353
26587SOL     OW81592   3.631   4.636   9.608
26587SOL    HW181593   3.719   4.673   9.610
26587SOL    HW281594   3.645   4.541   9.601
26588SOL     OW81595  13.742  14.205   9.013
26588SOL    HW181596  13.726  14.277   9.075
26588SOL    HW281597  13.730  14.244   8.927
26589SOL     OW81598   1.356  11.750   3.053
26589SOL    HW181599   1.272  11.773   3.094
26589SOL    HW281600   1.418  11.746   3.126
26590SOL     OW81601   4.624   0.276  12.246
26590SOL    HW181602   4.652   0.240  12.330
26590SOL    HW281603   4.529   0.285  12.255
26591SOL     OW81604   6.313   8.482   1.735
26591SOL    HW181605   6.315   8.441   1.822
26591SOL    HW281606   6.392   8.536   1.733
26592SOL     OW81607   8.735  13.973   5.704
26592SOL    HW181608   8.824  13.956   5.735
26592SOL    HW281609   8.686  13.997   5.782
26593SOL     OW81610   4.610   1.520   8.157
26593SOL    HW181611   4.540   1.561   8.207
26593SOL    HW281612   4.586   1.428   8.152
26594SOL     OW81613  10.813   5.224   9.157
26594SOL    HW181614  10.820   5.145   9.104
26594SOL    HW281615  10.759   5.283   9.104
26595SOL     OW81616  10.562  12.958   2.017
26595SOL    HW181617  10.647  12.918   2.002
26595SOL    HW281618  10.520  12.960   1.931
26596SOL     OW81619   4.006   4.483   9.955
26596SOL    HW181620   4.059   4.558   9.983
26596SOL    HW281621   3.917   4.507   9.979
26597SOL     OW81622   1.369   9.325   7.370
26597SOL    HW181623   1.375   9.321   7.275
26597SOL    HW281624   1.278   9.353   7.387
26598SOL     OW81625   3.978   6.954   3.655
26598SOL    HW181626   3.941   6.877   3.699
26598SOL    HW281627   3.930   7.028   3.693
26599SOL     OW81628   3.444   9.918   1.713
26599SOL    HW181629   3.403   9.843   1.756
26599SOL    HW281630   3.463   9.980   1.784
26600SOL     OW81631   9.515  14.527  12.160
26600SOL    HW181632   9.499  14.507  12.252
26600SOL    HW281633   9.561  14.612  12.161
26601SOL     OW81634  12.924   6.143   4.040
26601SOL    HW181635  12.932   6.229   4.081
26601SOL    HW281636  12.836   6.113   4.064
26602SOL     OW81637   9.138   8.864   6.342
26602SOL    HW181638   9.088   8.946   6.337
26602SOL    HW281639   9.140   8.832   6.251
26603SOL     OW81640   6.499   7.899   8.448
26603SOL    HW181641   6.495   7.806   8.470
26603SOL    HW281642   6.519   7.900   8.354
26604SOL     OW81643   6.759   9.420   1.489
26604SOL    HW181644   6.766   9.408   1.584
26604SOL    HW281645   6.715   9.341   1.458
26605SOL     OW81646   1.698   0.601   8.309
26605SOL    HW181647   1.617   0.639   8.274
26605SOL    HW281648   1.767   0.660   8.280
26606SOL     OW81649  14.607   0.716  11.706
26606SOL    HW181650  14.561   0.651  11.759
26606SOL    HW281651  14.692   0.727  11.750
26607SOL     OW81652   7.825   1.774  12.128
26607SOL    HW181653   7.906   1.753  12.174
26607SOL    HW281654   7.756   1.761  12.194
26608SOL     OW81655  10.589  13.812   6.504
26608SOL    HW181656  10.560  13.764   6.427
26608SOL    HW281657  10.557  13.761   6.579
26609SOL     OW81658   4.598   3.872  12.123
26609SOL    HW181659   4.508   3.894  12.147
26609SOL    HW281660   4.614   3.787  12.164
26610SOL     OW81661  13.262   9.747   7.787
26610SOL    HW181662  13.204   9.821   7.807
26610SOL    HW281663  13.327   9.784   7.728
26611SOL     OW81664  11.849   9.210   1.043
26611SOL    HW181665  11.760   9.231   1.071
26611SOL    HW281666  11.859   9.257   0.960
26612SOL     OW81667   0.620  10.541   5.086
26612SOL    HW181668   0.529  10.518   5.070
26612SOL    HW281669   0.667  10.513   5.008
26613SOL     OW81670   2.110   6.636   5.076
26613SOL    HW181671   2.041   6.614   5.138
26613SOL    HW281672   2.183   6.667   5.131
26614SOL     OW81673   9.429  11.798   4.515
26614SOL    HW181674   9.351  11.787   4.460
26614SOL    HW281675   9.396  11.832   4.598
26615SOL     OW81676  10.718   6.446   9.237
26615SOL    HW181677  10.785   6.515   9.235
26615SOL    HW281678  10.769   6.365   9.242
26616SOL     OW81679   6.478  14.849   0.976
26616SOL    HW181680   6.533  14.876   1.049
26616SOL    HW281681   6.389  14.859   1.008
26617SOL     OW81682  14.506  13.839  14.193
26617SOL    HW181683  14.542  13.832  14.104
26617SOL    HW281684  14.471  13.752  14.212
26618SOL     OW81685  10.632  11.002  10.355
26618SOL    HW181686  10.681  10.973  10.277
26618SOL    HW281687  10.642  10.930  10.417
26619SOL     OW81688   6.434   0.737  13.545
26619SOL    HW181689   6.362   0.677  13.528
26619SOL    HW281690   6.497   0.685  13.594
26620SOL     OW81691   4.697   5.079  12.396
26620SOL    HW181692   4.748   5.059  12.474
26620SOL    HW281693   4.729   5.018  12.330
26621SOL     OW81694  13.372   6.165   2.765
26621SOL    HW181695  13.448   6.191   2.817
26621SOL    HW281696  13.301   6.222   2.797
26622SOL     OW81697  11.108   5.837   3.446
26622SOL    HW181698  11.095   5.929   3.469
26622SOL    HW281699  11.138   5.839   3.355
26623SOL     OW81700  13.452   0.288   3.972
26623SOL    HW181701  13.480   0.296   3.880
26623SOL    HW281702  13.534   0.272   4.020
26624SOL     OW81703   6.653  12.852   1.638
26624SOL    HW181704   6.579  12.907   1.661
26624SOL    HW281705   6.668  12.798   1.716
26625SOL     OW81706   4.986   0.926   1.351
26625SOL    HW181707   4.936   0.904   1.273
26625SOL    HW281708   4.971   0.853   1.411
26626SOL     OW81709  10.288   5.291   4.198
26626SOL    HW181710  10.264   5.347   4.272
26626SOL    HW281711  10.289   5.350   4.123
26627SOL     OW81712   8.468   4.173   1.713
26627SOL    HW181713   8.396   4.156   1.774
26627SOL    HW281714   8.546   4.177   1.769
26628SOL     OW81715  12.063   4.562  10.805
26628SOL    HW181716  11.973   4.581  10.777
26628SOL    HW281717  12.118   4.617  10.750
26629SOL     OW81718   7.094   3.787  11.317
26629SOL    HW181719   7.090   3.759  11.225
26629SOL    HW281720   7.004   3.777  11.349
26630SOL     OW81721   4.293   5.749  12.631
26630SOL    HW181722   4.386   5.726  12.633
26630SOL    HW281723   4.278   5.796  12.712
26631SOL     OW81724   6.313  13.223   7.909
26631SOL    HW181725   6.375  13.267   7.967
26631SOL    HW281726   6.332  13.130   7.918
26632SOL     OW81727   0.815   4.329  12.143
26632SOL    HW181728   0.905   4.354  12.164
26632SOL    HW281729   0.821   4.235  12.123
26633SOL     OW81730   2.257  13.443   0.309
26633SOL    HW181731   2.350  13.436   0.286
26633SOL    HW281732   2.255  13.438   0.404
26634SOL     OW81733   5.418   5.205  10.727
26634SOL    HW181734   5.493   5.149  10.709
26634SOL    HW281735   5.371   5.161  10.797
26635SOL     OW81736  14.396   6.189   9.221
26635SOL    HW181737  14.339   6.265   9.227
26635SOL    HW281738  14.370   6.134   9.295
26636SOL     OW81739   2.733   6.264   1.476
26636SOL    HW181740   2.786   6.258   1.556
26636SOL    HW281741   2.793   6.242   1.405
26637SOL     OW81742   4.984   9.729   1.855
26637SOL    HW181743   5.051   9.750   1.790
26637SOL    HW281744   5.022   9.659   1.908
26638SOL     OW81745   6.033   5.847  14.268
26638SOL    HW181746   5.973   5.917  14.294
26638SOL    HW281747   6.047   5.797  14.349
26639SOL     OW81748   9.596   4.325   4.246
26639SOL    HW181749   9.634   4.355   4.163
26639SOL    HW281750   9.579   4.406   4.294
26640SOL     OW81751   3.851  12.645   3.134
26640SOL    HW181752   3.858  12.565   3.083
26640SOL    HW281753   3.759  12.672   3.123
26641SOL     OW81754   7.814   2.114   2.928
26641SOL    HW181755   7.796   2.022   2.908
26641SOL    HW281756   7.909   2.119   2.935
26642SOL     OW81757   7.245   7.657   7.125
26642SOL    HW181758   7.265   7.751   7.121
26642SOL    HW281759   7.227   7.633   7.034
26643SOL     OW81760   2.591   5.571   4.493
26643SOL    HW181761   2.670   5.597   4.445
26643SOL    HW281762   2.622   5.557   4.583
26644SOL     OW81763   2.574   8.867   0.825
26644SOL    HW181764   2.553   8.781   0.861
26644SOL    HW281765   2.588   8.852   0.732
26645SOL     OW81766   7.816   2.961   5.004
26645SOL    HW181767   7.738   2.996   5.046
26645SOL    HW281768   7.792   2.953   4.912
26646SOL     OW81769   7.835  14.063  10.839
26646SOL    HW181770   7.808  14.133  10.897
26646SOL    HW281771   7.797  14.084  10.755
26647SOL     OW81772   2.757  13.396   1.003
26647SOL    HW181773   2.791  13.485   1.010
26647SOL    HW281774   2.825  13.340   1.041
26648SOL     OW81775   3.641  14.604   9.199
26648SOL    HW181776   3.555  14.566   9.218
26648SOL    HW281777   3.702  14.533   9.218
26649SOL     OW81778   8.837  11.829  10.419
26649SOL    HW181779   8.915  11.779  10.397
26649SOL    HW281780   8.779  11.817  10.344
26650SOL     OW81781   8.872   5.969   8.926
26650SOL    HW181782   8.923   6.030   8.980
26650SOL    HW281783   8.869   5.889   8.977
26651SOL     OW81784   1.386   5.472  10.557
26651SOL    HW181785   1.375   5.565  10.577
26651SOL    HW281786   1.384   5.469  10.461
26652SOL     OW81787  14.287  14.352   3.396
26652SOL    HW181788  14.198  14.384   3.384
26652SOL    HW281789  14.325  14.350   3.308
26653SOL     OW81790   7.740  13.898  14.519
26653SOL    HW181791   7.801  13.890  14.446
26653SOL    HW281792   7.714  13.807  14.538
26654SOL     OW81793   8.429   9.520   0.745
26654SOL    HW181794   8.401   9.541   0.656
26654SOL    HW281795   8.364   9.457   0.776
26655SOL     OW81796   1.073   5.811  12.322
26655SOL    HW181797   1.088   5.886  12.265
26655SOL    HW281798   1.107   5.839  12.407
26656SOL     OW81799   4.853  13.222   2.152
26656SOL    HW181800   4.797  13.258   2.221
26656SOL    HW281801   4.838  13.279   2.077
26657SOL     OW81802   5.033  10.963   7.906
26657SOL    HW181803   5.125  10.973   7.929
26657SOL    HW281804   5.019  11.029   7.838
26658SOL     OW81805   1.671   1.308   9.160
26658SOL    HW181806   1.651   1.394   9.123
26658SOL    HW281807   1.750   1.323   9.213
26659SOL     OW81808   4.661   2.442   5.532
26659SOL    HW181809   4.644   2.510   5.597
26659SOL    HW281810   4.595   2.457   5.464
26660SOL     OW81811   0.193  12.243  12.778
26660SOL    HW181812   0.251  12.236  12.701
26660SOL    HW281813   0.144  12.161  12.779
26661SOL     OW81814  13.008   7.070   6.851
26661SOL    HW181815  12.969   6.983   6.862
26661SOL    HW281816  12.988   7.093   6.760
26662SOL     OW81817   6.188  14.077  12.895
26662SOL    HW181818   6.137  14.035  12.826
26662SOL    HW281819   6.193  14.169  12.868
26663SOL     OW81820   2.635   7.822  12.978
26663SOL    HW181821   2.722   7.796  12.948
26663SOL    HW281822   2.652   7.894  13.038
26664SOL     OW81823   7.606   4.968   7.874
26664SOL    HW181824   7.556   5.048   7.892
26664SOL    HW281825   7.585   4.947   7.783
26665SOL     OW81826   9.750   8.117  12.146
26665SOL    HW181827   9.714   8.064  12.217
26665SOL    HW281828   9.708   8.083  12.067
26666SOL     OW81829  14.435  12.495   3.091
26666SOL    HW181830  14.458  12.569   3.147
26666SOL    HW281831  14.519  12.457   3.066
26667SOL     OW81832   8.114   3.916   8.454
26667SOL    HW181833   8.097   3.874   8.539
26667SOL    HW281834   8.041   3.889   8.399
26668SOL     OW81835   3.734   6.272   1.465
26668SOL    HW181836   3.797   6.288   1.535
26668SOL    HW281837   3.673   6.209   1.501
26669SOL     OW81838   3.915   9.176   1.442
26669SOL    HW181839   3.873   9.261   1.432
26669SOL    HW281840   3.894   9.130   1.360
26670SOL     OW81841   2.816   1.296  14.748
26670SOL    HW181842   2.859   1.239  14.812
26670SOL    HW281843   2.863   1.379  14.755
26671SOL     OW81844   2.347   4.995   5.022
26671SOL    HW181845   2.265   5.036   4.995
26671SOL    HW281846   2.321   4.928   5.085
26672SOL     OW81847   3.990   8.689  14.753
26672SOL    HW181848   4.044   8.706  14.829
26672SOL    HW281849   4.044   8.715  14.678
26673SOL     OW81850   6.044  10.553  13.922
26673SOL    HW181851   5.957  10.536  13.955
26673SOL    HW281852   6.042  10.524  13.831
26674SOL     OW81853  10.372  12.468   1.131
26674SOL    HW181854  10.379  12.552   1.086
26674SOL    HW281855  10.455  12.423   1.111
26675SOL     OW81856   4.949   8.351   9.432
26675SOL    HW181857   4.941   8.337   9.338
26675SOL    HW281858   4.941   8.263   9.470
26676SOL     OW81859  11.188   4.942  11.775
26676SOL    HW181860  11.278   4.937  11.742
26676SOL    HW281861  11.133   4.927  11.699
26677SOL     OW81862  13.437   6.633   4.990
26677SOL    HW181863  13.398   6.564   4.936
26677SOL    HW281864  13.416   6.608   5.080
26678SOL     OW81865   4.834   3.333   8.450
26678SOL    HW181866   4.758   3.309   8.503
26678SOL    HW281867   4.881   3.251   8.436
26679SOL     OW81868   7.593   7.619  13.429
26679SOL    HW181869   7.541   7.645  13.352
26679SOL    HW281870   7.601   7.700  13.480
26680SOL     OW81871   0.795   2.765   2.326
26680SOL    HW181872   0.721   2.704   2.332
26680SOL    HW281873   0.850   2.743   2.401
26681SOL     OW81874   3.230  10.241   9.751
26681SOL    HW181875   3.271  10.184   9.687
26681SOL    HW281876   3.265  10.212   9.835
26682SOL     OW81877   2.705   6.818  14.683
26682SOL    HW181878   2.705   6.725  14.660
26682SOL    HW281879   2.665   6.821  14.770
26683SOL     OW81880   2.799   5.084   8.677
26683SOL    HW181881   2.766   5.157   8.624
26683SOL    HW281882   2.848   5.126   8.748
26684SOL     OW81883   9.216  12.732  11.458
26684SOL    HW181884   9.123  12.741  11.479
26684SOL    HW281885   9.217  12.681  11.377
26685SOL     OW81886   9.419   6.937   2.068
26685SOL    HW181887   9.376   7.022   2.061
26685SOL    HW281888   9.358   6.876   2.024
26686SOL     OW81889  10.967  11.497  11.749
26686SOL    HW181890  11.024  11.529  11.819
26686SOL    HW281891  10.883  11.482  11.792
26687SOL     OW81892   1.940  14.054   9.214
26687SOL    HW181893   1.929  13.976   9.160
26687SOL    HW281894   1.903  14.125   9.161
26688SOL     OW81895  10.001   8.444  14.816
26688SOL    HW181896  10.073   8.428  14.877
26688SOL    HW281897   9.955   8.360  14.810
26689SOL     OW81898   2.977   1.789   5.497
26689SOL    HW181899   3.007   1.851   5.430
26689SOL    HW281900   2.994   1.702   5.459
26690SOL     OW81901  10.709  12.196  13.738
26690SOL    HW181902  10.756  12.257  13.795
26690SOL    HW281903  10.688  12.121  13.795
26691SOL     OW81904   0.040  10.243   5.263
26691SOL    HW181905  14.872  10.189   5.324
26691SOL    HW281906   0.070  10.182   5.195
26692SOL     OW81907  11.478   6.134   2.701
26692SOL    HW181908  11.436   6.106   2.782
26692SOL    HW281909  11.471   6.229   2.701
26693SOL     OW81910   7.233   0.665   0.175
26693SOL    HW181911   7.194   0.588   0.217
26693SOL    HW281912   7.327   0.655   0.188
26694SOL     OW81913   7.149  13.639  10.745
26694SOL    HW181914   7.115  13.708  10.688
26694SOL    HW281915   7.244  13.642  10.733
26695SOL     OW81916   9.916   6.258   1.874
26695SOL    HW181917   9.847   6.233   1.813
26695SOL    HW281918   9.915   6.354   1.873
26696SOL     OW81919   1.051   5.427   8.291
26696SOL    HW181920   0.956   5.434   8.292
26696SOL    HW281921   1.068   5.333   8.299
26697SOL     OW81922   0.057   4.801   9.721
26697SOL    HW181923   0.114   4.831   9.650
26697SOL    HW281924   0.097   4.835   9.801
26698SOL     OW81925   3.379  13.184  12.442
26698SOL    HW181926   3.439  13.227  12.502
26698SOL    HW281927   3.417  13.199  12.355
26699SOL     OW81928   6.400   0.525  13.825
26699SOL    HW181929   6.418   0.442  13.869
26699SOL    HW281930   6.479   0.540  13.772
26700SOL     OW81931   9.846  10.687  14.206
26700SOL    HW181932   9.848  10.637  14.125
26700SOL    HW281933   9.928  10.663  14.250
26701SOL     OW81934  11.140   4.997   1.104
26701SOL    HW181935  11.064   5.040   1.143
26701SOL    HW281936  11.113   4.906   1.091
26702SOL     OW81937   6.591   9.946   3.028
26702SOL    HW181938   6.505   9.975   3.058
26702SOL    HW281939   6.607   9.864   3.074
26703SOL     OW81940  12.351   4.557   9.656
26703SOL    HW181941  12.428   4.522   9.610
26703SOL    HW281942  12.387   4.591   9.738
26704SOL     OW81943   7.857   9.578   4.241
26704SOL    HW181944   7.889   9.518   4.174
26704SOL    HW281945   7.907   9.555   4.320
26705SOL     OW81946   7.658  13.884   9.301
26705SOL    HW181947   7.608  13.855   9.377
26705SOL    HW281948   7.693  13.970   9.325
26706SOL     OW81949   3.471  10.411   7.497
26706SOL    HW181950   3.415  10.416   7.574
26706SOL    HW281951   3.426  10.465   7.432
26707SOL     OW81952  12.332   9.911   8.604
26707SOL    HW181953  12.312   9.818   8.594
26707SOL    HW281954  12.251   9.956   8.582
26708SOL     OW81955   1.297   9.761  13.325
26708SOL    HW181956   1.331   9.851  13.319
26708SOL    HW281957   1.341   9.724  13.402
26709SOL     OW81958   2.088   6.461  12.186
26709SOL    HW181959   2.039   6.537  12.152
26709SOL    HW281960   2.030   6.424  12.253
26710SOL     OW81961   6.679  12.466   7.145
26710SOL    HW181962   6.627  12.448   7.067
26710SOL    HW281963   6.707  12.557   7.134
26711SOL     OW81964   1.473   2.478   2.101
26711SOL    HW181965   1.550   2.526   2.071
26711SOL    HW281966   1.497   2.386   2.091
26712SOL     OW81967   3.213   1.393   3.976
26712SOL    HW181968   3.127   1.421   3.947
26712SOL    HW281969   3.198   1.352   4.061
26713SOL     OW81970   5.328   4.760  11.508
26713SOL    HW181971   5.257   4.801  11.459
26713SOL    HW281972   5.398   4.825  11.509
26714SOL     OW81973   1.864   1.587   9.011
26714SOL    HW181974   1.841   1.633   9.092
26714SOL    HW281975   1.943   1.537   9.034
26715SOL     OW81976  13.961  14.052  12.674
26715SOL    HW181977  13.974  14.084  12.585
26715SOL    HW281978  13.866  14.053  12.686
26716SOL     OW81979   8.723   5.556  10.333
26716SOL    HW181980   8.814   5.530  10.346
26716SOL    HW281981   8.674   5.504  10.397
26717SOL     OW81982   1.978  11.137  11.877
26717SOL    HW181983   1.947  11.060  11.924
26717SOL    HW281984   1.970  11.114  11.785
26718SOL     OW81985  10.894   8.453  12.361
26718SOL    HW181986  10.843   8.526  12.396
26718SOL    HW281987  10.959   8.495  12.304
26719SOL     OW81988   4.666   6.853  13.059
26719SOL    HW181989   4.751   6.853  13.102
26719SOL    HW281990   4.641   6.761  13.055
26720SOL     OW81991   9.519   0.606  12.606
26720SOL    HW181992   9.525   0.511  12.620
26720SOL    HW281993   9.544   0.617  12.514
26721SOL     OW81994  13.772  11.038   9.999
26721SOL    HW181995  13.771  11.133   9.999
26721SOL    HW281996  13.861  11.015   9.974
26722SOL     OW81997   9.758  14.623   3.117
26722SOL    HW181998   9.755  14.716   3.141
26722SOL    HW281999   9.710  14.618   3.035
26723SOL     OW82000  12.494   9.030   0.716
26723SOL    HW182001  12.462   9.117   0.695
26723SOL    HW282002  12.420   8.972   0.701
26724SOL     OW82003   9.429  13.355   3.779
26724SOL    HW182004   9.456  13.279   3.727
26724SOL    HW282005   9.334  13.353   3.775
26725SOL     OW82006   1.723  12.051   5.315
26725SOL    HW182007   1.694  11.988   5.249
26725SOL    HW282008   1.777  12.113   5.267
26726SOL     OW82009   5.231   4.694   8.270
26726SOL    HW182010   5.307   4.636   8.258
26726SOL    HW282011   5.240   4.726   8.360
26727SOL     OW82012  11.625   9.809   0.813
26727SOL    HW182013  11.679   9.790   0.889
26727SOL    HW282014  11.668   9.883   0.771
26728SOL     OW82015  14.623   7.754  11.647
26728SOL    HW182016  14.692   7.692  11.621
26728SOL    HW282017  14.652   7.787  11.732
26729SOL     OW82018   7.113   3.282  11.894
26729SOL    HW182019   7.079   3.241  11.815
26729SOL    HW282020   7.060   3.361  11.905
26730SOL     OW82021   3.954   5.257  10.577
26730SOL    HW182022   4.027   5.199  10.556
26730SOL    HW282023   3.994   5.344  10.583
26731SOL     OW82024   2.320  14.330   2.707
26731SOL    HW182025   2.333  14.304   2.798
26731SOL    HW282026   2.387  14.397   2.692
26732SOL     OW82027   5.069   6.694   7.966
26732SOL    HW182028   5.147   6.690   7.912
26732SOL    HW282029   5.102   6.705   8.055
26733SOL     OW82030   1.248   4.591  13.073
26733SOL    HW182031   1.335   4.623  13.099
26733SOL    HW282032   1.258   4.496  13.069
26734SOL     OW82033  14.778   5.873   6.541
26734SOL    HW182034  14.839   5.807   6.507
26734SOL    HW282035  14.822   5.956   6.528
26735SOL     OW82036  11.489   5.238   0.835
26735SOL    HW182037  11.431   5.306   0.871
26735SOL    HW282038  11.434   5.160   0.832
26736SOL     OW82039  13.548  14.714  14.291
26736SOL    HW182040  13.542  14.809  14.291
26736SOL    HW282041  13.641  14.696  14.304
26737SOL     OW82042  11.894   4.156  12.227
26737SOL    HW182043  11.910   4.250  12.223
26737SOL    HW282044  11.851   4.142  12.311
26738SOL     OW82045   5.944   5.436   6.859
26738SOL    HW182046   5.932   5.510   6.919
26738SOL    HW282047   6.026   5.456   6.814
26739SOL     OW82048  12.687  14.237   6.095
26739SOL    HW182049  12.685  14.197   6.008
26739SOL    HW282050  12.717  14.326   6.080
26740SOL     OW82051   6.065   2.703   9.920
26740SOL    HW182052   6.037   2.784   9.877
26740SOL    HW282053   6.109   2.733  10.000
26741SOL     OW82054  11.914   1.004  10.371
26741SOL    HW182055  11.857   1.024  10.297
26741SOL    HW282056  11.857   1.007  10.448
26742SOL     OW82057   9.573   1.549  10.076
26742SOL    HW182058   9.651   1.546  10.020
26742SOL    HW282059   9.499   1.546  10.015
26743SOL     OW82060   7.916  12.525   9.925
26743SOL    HW182061   7.941  12.550  10.014
26743SOL    HW282062   7.998  12.528   9.876
26744SOL     OW82063   9.081   0.627   1.082
26744SOL    HW182064   9.174   0.614   1.064
26744SOL    HW282065   9.051   0.542   1.116
26745SOL     OW82066   8.452  14.625   1.705
26745SOL    HW182067   8.421  14.705   1.663
26745SOL    HW282068   8.530  14.601   1.655
26746SOL     OW82069   1.747   0.172   3.368
26746SOL    HW182070   1.840   0.153   3.353
26746SOL    HW282071   1.708   0.173   3.281
26747SOL     OW82072   7.973  14.683   3.305
26747SOL    HW182073   7.889  14.641   3.286
26747SOL    HW282074   7.986  14.670   3.399
26748SOL     OW82075   9.366   2.013   7.906
26748SOL    HW182076   9.444   2.034   7.855
26748SOL    HW282077   9.308   1.968   7.844
26749SOL     OW82078   1.720   3.376   5.748
26749SOL    HW182079   1.717   3.295   5.697
26749SOL    HW282080   1.723   3.446   5.683
26750SOL     OW82081   7.428   2.529   2.259
26750SOL    HW182082   7.383   2.461   2.210
26750SOL    HW282083   7.507   2.547   2.208
26751SOL     OW82084  11.522  11.526   4.319
26751SOL    HW182085  11.436  11.550   4.283
26751SOL    HW282086  11.502  11.457   4.382
26752SOL     OW82087  11.287  12.405   1.023
26752SOL    HW182088  11.217  12.404   1.089
26752SOL    HW282089  11.366  12.380   1.071
26753SOL     OW82090   7.664  12.919   5.586
26753SOL    HW182091   7.655  12.850   5.652
26753SOL    HW282092   7.685  12.872   5.505
26754SOL     OW82093   7.051  12.940  13.249
26754SOL    HW182094   7.082  12.864  13.200
26754SOL    HW282095   7.080  12.924  13.339
26755SOL     OW82096   2.269   8.888  13.338
26755SOL    HW182097   2.265   8.801  13.378
26755SOL    HW282098   2.312   8.943  13.404
26756SOL     OW82099   4.412   9.560   3.091
26756SOL    HW182100   4.377   9.575   3.179
26756SOL    HW282101   4.506   9.552   3.103
26757SOL     OW82102   0.944   7.697   8.393
26757SOL    HW182103   0.935   7.728   8.483
26757SOL    HW282104   0.899   7.763   8.340
26758SOL     OW82105  12.639   3.499   7.856
26758SOL    HW182106  12.645   3.486   7.761
26758SOL    HW282107  12.657   3.412   7.893
26759SOL     OW82108   9.399   3.044   0.117
26759SOL    HW182109   9.313   3.004   0.107
26759SOL    HW282110   9.452   2.977   0.159
26760SOL     OW82111   5.860   5.500   8.857
26760SOL    HW182112   5.876   5.475   8.948
26760SOL    HW282113   5.808   5.580   8.863
26761SOL     OW82114  11.280   4.725   2.790
26761SOL    HW182115  11.231   4.807   2.801
26761SOL    HW282116  11.368   4.753   2.763
26762SOL     OW82117  11.348  12.961  14.869
26762SOL    HW182118  11.414  12.892  14.866
26762SOL    HW282119  11.346  12.989   0.079
26763SOL     OW82120   1.845   3.427  12.047
26763SOL    HW182121   1.878   3.364  12.111
26763SOL    HW282122   1.763   3.458  12.085
26764SOL     OW82123   0.600  11.754  10.369
26764SOL    HW182124   0.649  11.679  10.336
26764SOL    HW282125   0.598  11.741  10.464
26765SOL     OW82126   6.644  11.692  14.849
26765SOL    HW182127   6.646  11.598  14.868
26765SOL    HW282128   6.682  11.700  14.762
26766SOL     OW82129  10.421   7.456   5.677
26766SOL    HW182130  10.388   7.489   5.761
26766SOL    HW282131  10.480   7.385   5.701
26767SOL     OW82132   0.249   4.633  14.263
26767SOL    HW182133   0.156   4.614  14.253
26767SOL    HW282134   0.251   4.713  14.316
26768SOL     OW82135   5.247   6.247   9.929
26768SOL    HW182136   5.214   6.158   9.912
26768SOL    HW282137   5.321   6.257   9.869
26769SOL     OW82138   2.657   4.503   8.261
26769SOL    HW182139   2.733   4.517   8.318
26769SOL    HW282140   2.594   4.569   8.290
26770SOL     OW82141   9.294   8.774   4.449
26770SOL    HW182142   9.377   8.793   4.493
26770SOL    HW282143   9.272   8.855   4.403
26771SOL     OW82144  14.150  10.984   3.972
26771SOL    HW182145  14.131  10.951   3.884
26771SOL    HW282146  14.142  11.079   3.964
26772SOL     OW82147   8.912  13.257   4.722
26772SOL    HW182148   8.840  13.296   4.673
26772SOL    HW282149   8.935  13.178   4.673
26773SOL     OW82150   3.948   5.003  11.855
26773SOL    HW182151   3.870   5.055  11.875
26773SOL    HW282152   3.921   4.912  11.871
26774SOL     OW82153  12.738  10.444   2.245
26774SOL    HW182154  12.728  10.501   2.322
26774SOL    HW282155  12.758  10.505   2.173
26775SOL     OW82156   1.684  10.173   6.373
26775SOL    HW182157   1.592  10.187   6.352
26775SOL    HW282158   1.731  10.186   6.290
26776SOL     OW82159  11.789   5.864   5.386
26776SOL    HW182160  11.860   5.801   5.368
26776SOL    HW282161  11.834   5.944   5.412
26777SOL     OW82162  12.325  14.398   7.400
26777SOL    HW182163  12.413  14.430   7.420
26777SOL    HW282164  12.299  14.350   7.478
26778SOL     OW82165  14.332   4.636   5.901
26778SOL    HW182166  14.306   4.699   5.834
26778SOL    HW282167  14.285   4.555   5.879
26779SOL     OW82168   9.209   0.962   9.562
26779SOL    HW182169   9.291   0.964   9.512
26779SOL    HW282170   9.208   1.044   9.610
26780SOL     OW82171   3.268   7.509  12.197
26780SOL    HW182172   3.354   7.523  12.237
26780SOL    HW282173   3.237   7.427  12.234
26781SOL     OW82174   1.125   3.618   3.431
26781SOL    HW182175   1.140   3.595   3.339
26781SOL    HW282176   1.208   3.657   3.460
26782SOL     OW82177   9.788   5.507  11.149
26782SOL    HW182178   9.759   5.520  11.240
26782SOL    HW282179   9.786   5.594  11.110
26783SOL     OW82180   4.160   8.872   5.560
26783SOL    HW182181   4.076   8.833   5.532
26783SOL    HW282182   4.215   8.797   5.582
26784SOL     OW82183   6.631  14.313   1.261
26784SOL    HW182184   6.720  14.341   1.239
26784SOL    HW282185   6.581  14.331   1.182
26785SOL     OW82186  11.578   2.866   4.349
26785SOL    HW182187  11.599   2.790   4.403
26785SOL    HW282188  11.651   2.927   4.362
26786SOL     OW82189   5.766  11.698  12.260
26786SOL    HW182190   5.759  11.641  12.183
26786SOL    HW282191   5.675  11.715  12.285
26787SOL     OW82192   4.194   6.554   6.545
26787SOL    HW182193   4.240   6.584   6.466
26787SOL    HW282194   4.231   6.467   6.561
26788SOL     OW82195  12.190   9.086   5.207
26788SOL    HW182196  12.189   9.085   5.112
26788SOL    HW282197  12.114   9.033   5.232
26789SOL     OW82198  13.063  10.419  10.967
26789SOL    HW182199  13.156  10.399  10.972
26789SOL    HW282200  13.034  10.422  11.058
26790SOL     OW82201   8.058  12.709   8.504
26790SOL    HW182202   8.028  12.662   8.427
26790SOL    HW282203   8.066  12.800   8.476
26791SOL     OW82204   3.187   4.760  13.240
26791SOL    HW182205   3.254   4.825  13.262
26791SOL    HW282206   3.138   4.801  13.169
26792SOL     OW82207  11.759  13.233   3.682
26792SOL    HW182208  11.712  13.254   3.763
26792SOL    HW282209  11.693  13.240   3.614
26793SOL     OW82210  13.565  12.090   2.511
26793SOL    HW182211  13.521  12.145   2.446
26793SOL    HW282212  13.539  12.001   2.488
26794SOL     OW82213  10.107   2.533  13.894
26794SOL    HW182214  10.109   2.628  13.905
26794SOL    HW282215  10.174   2.500  13.954
26795SOL     OW82216   7.461   2.516  14.827
26795SOL    HW182217   7.518   2.563   0.006
26795SOL    HW282218   7.380   2.568  14.826
26796SOL     OW82219   2.254   2.525  14.881
26796SOL    HW182220   2.276   2.560  14.795
26796SOL    HW282221   2.338   2.498   0.037
26797SOL     OW82222   1.527  13.558  14.008
26797SOL    HW182223   1.479  13.626  14.055
26797SOL    HW282224   1.507  13.573  13.916
26798SOL     OW82225  11.696  13.061   1.644
26798SOL    HW182226  11.715  13.034   1.734
26798SOL    HW282227  11.755  13.135   1.629
26799SOL     OW82228  14.710   3.734   9.845
26799SOL    HW182229  14.708   3.824   9.879
26799SOL    HW282230  14.799   3.723   9.811
26800SOL     OW82231   8.940   7.655  11.902
26800SOL    HW182232   8.943   7.559  11.899
26800SOL    HW282233   8.862   7.678  11.852
26801SOL     OW82234   0.398   4.451  12.993
26801SOL    HW182235   0.476   4.405  12.962
26801SOL    HW282236   0.407   4.539  12.959
26802SOL     OW82237   3.586  14.781  12.732
26802SOL    HW182238   3.629  14.788  12.817
26802SOL    HW282239   3.498  14.750  12.752
26803SOL     OW82240   4.077   8.913   3.611
26803SOL    HW182241   4.088   8.845   3.545
26803SOL    HW282242   4.022   8.874   3.678
26804SOL     OW82243   5.449  10.042   0.080
26804SOL    HW182244   5.405  10.029  14.878
26804SOL    HW282245   5.491   9.959   0.100
26805SOL     OW82246   4.355   7.966   1.188
26805SOL    HW182247   4.382   8.058   1.190
26805SOL    HW282248   4.297   7.957   1.264
26806SOL     OW82249  14.335   9.680  12.760
26806SOL    HW182250  14.242   9.665  12.774
26806SOL    HW282251  14.373   9.673  12.848
26807SOL     OW82252   0.707  11.571   7.541
26807SOL    HW182253   0.719  11.627   7.465
26807SOL    HW282254   0.631  11.517   7.520
26808SOL     OW82255   8.103   0.356   9.197
26808SOL    HW182256   8.148   0.404   9.267
26808SOL    HW282257   8.010   0.371   9.214
26809SOL     OW82258   1.790   3.147  12.990
26809SOL    HW182259   1.735   3.212  12.946
26809SOL    HW282260   1.775   3.161  13.083
26810SOL     OW82261  14.717   4.485  13.682
26810SOL    HW182262  14.624   4.490  13.662
26810SOL    HW282263  14.757   4.453  13.601
26811SOL     OW82264   0.893  13.643   3.909
26811SOL    HW182265   0.894  13.603   3.995
26811SOL    HW282266   0.959  13.712   3.913
26812SOL     OW82267   1.827   2.496   4.365
26812SOL    HW182268   1.891   2.500   4.436
26812SOL    HW282269   1.857   2.424   4.309
26813SOL     OW82270   3.652  13.984   4.270
26813SOL    HW182271   3.716  13.916   4.251
26813SOL    HW282272   3.599  13.948   4.341
26814SOL     OW82273   4.626   6.014   3.166
26814SOL    HW182274   4.705   6.011   3.221
26814SOL    HW282275   4.558   6.049   3.224
26815SOL     OW82276  12.458  10.010   8.846
26815SOL    HW182277  12.382  10.007   8.903
26815SOL    HW282278  12.427   9.975   8.763
26816SOL     OW82279   9.149  10.630   5.210
26816SOL    HW182280   9.111  10.712   5.239
26816SOL    HW282281   9.128  10.568   5.280
26817SOL     OW82282   1.838   4.884   5.012
26817SOL    HW182283   1.766   4.916   4.958
26817SOL    HW282284   1.802   4.806   5.055
26818SOL     OW82285   6.215   2.884   0.766
26818SOL    HW182286   6.218   2.976   0.792
26818SOL    HW282287   6.281   2.876   0.698
26819SOL     OW82288   1.567   9.375   9.322
26819SOL    HW182289   1.618   9.412   9.394
26819SOL    HW282290   1.608   9.410   9.243
26820SOL     OW82291  11.899   7.097   3.506
26820SOL    HW182292  11.835   7.074   3.572
26820SOL    HW282293  11.869   7.055   3.426
26821SOL     OW82294   2.473   5.788   4.804
26821SOL    HW182295   2.542   5.787   4.738
26821SOL    HW282296   2.435   5.876   4.796
26822SOL     OW82297   2.340  11.405   2.172
26822SOL    HW182298   2.297  11.478   2.128
26822SOL    HW282299   2.396  11.446   2.238
26823SOL     OW82300  14.393   5.629   3.950
26823SOL    HW182301  14.325   5.694   3.934
26823SOL    HW282302  14.347   5.545   3.946
26824SOL     OW82303   4.801   3.503  12.570
26824SOL    HW182304   4.893   3.532  12.570
26824SOL    HW282305   4.780   3.490  12.478
26825SOL     OW82306   1.497  14.286  12.874
26825SOL    HW182307   1.413  14.256  12.840
26825SOL    HW282308   1.556  14.211  12.862
26826SOL     OW82309   8.079   6.748  11.717
26826SOL    HW182310   8.155   6.692  11.702
26826SOL    HW282311   8.054   6.779  11.629
26827SOL     OW82312   2.032  12.708   5.276
26827SOL    HW182313   1.940  12.681   5.272
26827SOL    HW282314   2.061  12.709   5.185
26828SOL     OW82315   8.940   0.590   6.646
26828SOL    HW182316   9.009   0.653   6.624
26828SOL    HW282317   8.909   0.618   6.732
26829SOL     OW82318   7.434  12.371  14.570
26829SOL    HW182319   7.428  12.300  14.507
26829SOL    HW282320   7.486  12.336  14.642
26830SOL     OW82321   3.752  11.464   8.900
26830SOL    HW182322   3.688  11.534   8.886
26830SOL    HW282323   3.729  11.428   8.986
26831SOL     OW82324   3.904  11.353   9.588
26831SOL    HW182325   3.966  11.286   9.617
26831SOL    HW282326   3.845  11.366   9.662
26832SOL     OW82327   1.765   3.683   7.101
26832SOL    HW182328   1.719   3.766   7.096
26832SOL    HW282329   1.696   3.617   7.096
26833SOL     OW82330  13.045   0.180   5.012
26833SOL    HW182331  13.076   0.270   5.002
26833SOL    HW282332  13.112   0.127   4.969
26834SOL     OW82333  14.209  14.186   4.471
26834SOL    HW182334  14.267  14.133   4.526
26834SOL    HW282335  14.237  14.169   4.382
26835SOL     OW82336  13.452   0.950   2.912
26835SOL    HW182337  13.448   0.979   3.003
26835SOL    HW282338  13.419   0.860   2.913
26836SOL     OW82339   2.433   7.988   7.850
26836SOL    HW182340   2.385   7.915   7.812
26836SOL    HW282341   2.436   8.054   7.781
26837SOL     OW82342   6.089   8.163   2.335
26837SOL    HW182343   6.141   8.200   2.264
26837SOL    HW282344   6.152   8.148   2.406
26838SOL     OW82345   3.333   0.497   4.087
26838SOL    HW182346   3.423   0.526   4.074
26838SOL    HW282347   3.314   0.443   4.010
26839SOL     OW82348  14.544   2.761   1.353
26839SOL    HW182349  14.618   2.790   1.406
26839SOL    HW282350  14.488   2.838   1.344
26840SOL     OW82351  11.443   2.632   4.124
26840SOL    HW182352  11.354   2.651   4.095
26840SOL    HW282353  11.471   2.712   4.169
26841SOL     OW82354   7.598  12.995   1.035
26841SOL    HW182355   7.510  12.959   1.047
26841SOL    HW282356   7.651  12.950   1.101
26842SOL     OW82357   1.722   1.803   2.568
26842SOL    HW182358   1.632   1.786   2.597
26842SOL    HW282359   1.729   1.898   2.565
26843SOL     OW82360   3.220   0.296   9.716
26843SOL    HW182361   3.187   0.207   9.729
26843SOL    HW282362   3.176   0.327   9.637
26844SOL     OW82363  12.910  10.130   6.662
26844SOL    HW182364  12.955  10.051   6.632
26844SOL    HW282365  12.826  10.129   6.616
26845SOL     OW82366   0.978  11.324   1.250
26845SOL    HW182367   0.902  11.266   1.254
26845SOL    HW282368   0.950  11.404   1.295
26846SOL     OW82369   0.829  10.281   5.068
26846SOL    HW182370   0.763  10.221   5.104
26846SOL    HW282371   0.790  10.310   4.985
26847SOL     OW82372   9.586   2.235   2.666
26847SOL    HW182373   9.511   2.180   2.642
26847SOL    HW282374   9.633   2.247   2.584
26848SOL     OW82375   1.922   6.668   5.285
26848SOL    HW182376   1.881   6.670   5.371
26848SOL    HW282377   1.912   6.757   5.251
26849SOL     OW82378   8.868   1.834   2.809
26849SOL    HW182379   8.794   1.804   2.756
26849SOL    HW282380   8.892   1.759   2.862
26850SOL     OW82381  14.641   5.042   3.134
26850SOL    HW182382  14.556   5.044   3.178
26850SOL    HW282383  14.703   5.072   3.200
26851SOL     OW82384  14.106   2.439   6.423
26851SOL    HW182385  14.016   2.461   6.399
26851SOL    HW282386  14.098   2.390   6.505
26852SOL     OW82387   9.779  11.517   0.980
26852SOL    HW182388   9.749  11.559   1.061
26852SOL    HW282389   9.699  11.505   0.928
26853SOL     OW82390   6.467   5.342   9.329
26853SOL    HW182391   6.384   5.333   9.377
26853SOL    HW282392   6.446   5.314   9.240
26854SOL     OW82393   0.998   4.103   9.656
26854SOL    HW182394   1.032   4.036   9.714
26854SOL    HW282395   0.903   4.089   9.657
26855SOL     OW82396  12.654  14.464  13.083
26855SOL    HW182397  12.575  14.516  13.076
26855SOL    HW282398  12.644  14.416  13.165
26856SOL     OW82399   3.215   3.648  12.563
26856SOL    HW182400   3.277   3.633  12.492
26856SOL    HW282401   3.129   3.631  12.524
26857SOL     OW82402   5.290   5.786   4.674
26857SOL    HW182403   5.335   5.801   4.590
26857SOL    HW282404   5.203   5.756   4.649
26858SOL     OW82405   3.446   7.975   4.331
26858SOL    HW182406   3.445   7.919   4.408
26858SOL    HW282407   3.390   7.931   4.268
26859SOL     OW82408   1.277  12.006  12.499
26859SOL    HW182409   1.336  11.942  12.460
26859SOL    HW282410   1.201  11.956  12.526
26860SOL     OW82411   1.009   7.492  14.260
26860SOL    HW182412   0.962   7.445  14.191
26860SOL    HW282413   0.940   7.535  14.311
26861SOL     OW82414  10.504  13.868   3.570
26861SOL    HW182415  10.549  13.787   3.545
26861SOL    HW282416  10.533  13.932   3.505
26862SOL     OW82417   7.450   2.699   1.020
26862SOL    HW182418   7.418   2.660   1.102
26862SOL    HW282419   7.514   2.764   1.048
26863SOL     OW82420   7.734   7.712  10.433
26863SOL    HW182421   7.684   7.691  10.355
26863SOL    HW282422   7.822   7.679  10.416
26864SOL     OW82423   6.704  11.143  14.745
26864SOL    HW182424   6.759  11.211  14.706
26864SOL    HW282425   6.688  11.081  14.675
26865SOL     OW82426   9.480   7.937   3.452
26865SOL    HW182427   9.472   7.933   3.356
26865SOL    HW282428   9.491   8.030   3.471
26866SOL     OW82429   0.919   9.846  11.981
26866SOL    HW182430   0.836   9.870  11.940
26866SOL    HW282431   0.921   9.751  11.978
26867SOL     OW82432   4.443   2.075   7.117
26867SOL    HW182433   4.407   2.146   7.170
26867SOL    HW282434   4.404   2.087   7.030
26868SOL     OW82435  12.978  14.122   1.208
26868SOL    HW182436  13.053  14.105   1.151
26868SOL    HW282437  12.903  14.118   1.150
26869SOL     OW82438   2.782  11.199   4.744
26869SOL    HW182439   2.777  11.204   4.648
26869SOL    HW282440   2.751  11.112   4.766
26870SOL     OW82441  14.345  10.308   0.657
26870SOL    HW182442  14.345  10.236   0.720
26870SOL    HW282443  14.432  10.306   0.618
26871SOL     OW82444  14.721   0.478   1.007
26871SOL    HW182445  14.711   0.509   1.098
26871SOL    HW282446  14.669   0.398   1.003
26872SOL     OW82447  11.641   6.160   8.641
26872SOL    HW182448  11.683   6.184   8.558
26872SOL    HW282449  11.548   6.156   8.620
26873SOL     OW82450  11.261   0.754   7.608
26873SOL    HW182451  11.299   0.759   7.696
26873SOL    HW282452  11.199   0.682   7.613
26874SOL     OW82453   1.682  11.063   2.116
26874SOL    HW182454   1.614  11.069   2.184
26874SOL    HW282455   1.745  11.131   2.140
26875SOL     OW82456   0.476   4.992   3.959
26875SOL    HW182457   0.389   5.033   3.960
26875SOL    HW282458   0.495   4.976   3.867
26876SOL     OW82459   5.626   6.257   6.392
26876SOL    HW182460   5.708   6.208   6.389
26876SOL    HW282461   5.625   6.306   6.310
26877SOL     OW82462   0.950  11.389  11.100
26877SOL    HW182463   0.961  11.376  11.194
26877SOL    HW282464   1.014  11.330  11.060
26878SOL     OW82465   8.533   1.688   3.222
26878SOL    HW182466   8.555   1.708   3.313
26878SOL    HW282467   8.513   1.774   3.183
26879SOL     OW82468   4.995   2.871  14.200
26879SOL    HW182469   5.079   2.885  14.157
26879SOL    HW282470   4.998   2.779  14.227
26880SOL     OW82471   8.232  14.859  11.569
26880SOL    HW182472   8.177   0.019  11.634
26880SOL    HW282473   8.232  14.766  11.593
26881SOL     OW82474   1.946   8.341   2.670
26881SOL    HW182475   1.885   8.413   2.685
26881SOL    HW282476   2.008   8.375   2.605
26882SOL     OW82477   3.767   8.385   1.221
26882SOL    HW182478   3.700   8.433   1.174
26882SOL    HW282479   3.758   8.295   1.191
26883SOL     OW82480  12.997   2.521   4.110
26883SOL    HW182481  13.034   2.439   4.141
26883SOL    HW282482  12.969   2.503   4.020
26884SOL     OW82483   0.837  11.142  14.670
26884SOL    HW182484   0.782  11.075  14.709
26884SOL    HW282485   0.925  11.103  14.668
26885SOL     OW82486   7.285   8.519   0.015
26885SOL    HW182487   7.256   8.554  14.812
26885SOL    HW282488   7.214   8.460   0.042
26886SOL     OW82489   8.332   2.335   0.122
26886SOL    HW182490   8.261   2.357   0.182
26886SOL    HW282491   8.410   2.335   0.177
26887SOL     OW82492  14.600   6.349   6.164
26887SOL    HW182493  14.600   6.370   6.071
26887SOL    HW282494  14.534   6.281   6.173
26888SOL     OW82495   0.315   6.143  14.096
26888SOL    HW182496   0.254   6.091  14.150
26888SOL    HW282497   0.342   6.215  14.153
26889SOL     OW82498   0.384   6.548   7.013
26889SOL    HW182499   0.324   6.481   7.047
26889SOL    HW282500   0.387   6.615   7.082
26890SOL     OW82501   1.602   5.061   5.101
26890SOL    HW182502   1.642   5.026   5.180
26890SOL    HW282503   1.513   5.025   5.102
26891SOL     OW82504  10.966   5.559   2.187
26891SOL    HW182505  10.906   5.633   2.179
26891SOL    HW282506  10.975   5.545   2.281
26892SOL     OW82507   8.680   7.191   2.085
26892SOL    HW182508   8.659   7.248   2.158
26892SOL    HW282509   8.598   7.180   2.038
26893SOL     OW82510   9.147   9.950   5.702
26893SOL    HW182511   9.119   9.937   5.611
26893SOL    HW282512   9.153   9.862   5.738
26894SOL     OW82513   9.793   0.701   0.862
26894SOL    HW182514   9.840   0.653   0.794
26894SOL    HW282515   9.857   0.711   0.933
26895SOL     OW82516   6.317  10.387   1.105
26895SOL    HW182517   6.235  10.364   1.062
26895SOL    HW282518   6.361  10.445   1.043
26896SOL     OW82519   8.020   2.487  12.285
26896SOL    HW182520   7.925   2.497  12.284
26896SOL    HW282521   8.035   2.394  12.268
26897SOL     OW82522   6.947   5.702   6.719
26897SOL    HW182523   6.982   5.790   6.704
26897SOL    HW282524   6.980   5.651   6.645
26898SOL     OW82525   9.271   4.859   5.522
26898SOL    HW182526   9.198   4.798   5.529
26898SOL    HW282527   9.231   4.946   5.529
26899SOL     OW82528   7.637   6.194  10.878
26899SOL    HW182529   7.727   6.223  10.895
26899SOL    HW282530   7.624   6.121  10.939
26900SOL     OW82531   1.452   5.531  11.135
26900SOL    HW182532   1.428   5.489  11.218
26900SOL    HW282533   1.434   5.464  11.068
26901SOL     OW82534   4.071   8.748   3.382
26901SOL    HW182535   4.145   8.731   3.324
26901SOL    HW282536   4.023   8.666   3.384
26902SOL     OW82537   7.523   9.960   5.042
26902SOL    HW182538   7.556   9.875   5.012
26902SOL    HW282539   7.447   9.939   5.097
26903SOL     OW82540   0.172   3.922   8.602
26903SOL    HW182541   0.181   3.865   8.679
26903SOL    HW282542   0.154   4.008   8.640
26904SOL     OW82543   9.160   0.308  14.392
26904SOL    HW182544   9.114   0.359  14.326
26904SOL    HW282545   9.119   0.222  14.388
26905SOL     OW82546   8.626   6.872   4.609
26905SOL    HW182547   8.688   6.945   4.601
26905SOL    HW282548   8.641   6.819   4.530
26906SOL     OW82549   4.576   2.383   2.655
26906SOL    HW182550   4.482   2.365   2.649
26906SOL    HW282551   4.590   2.457   2.596
26907SOL     OW82552   7.008  11.303   3.384
26907SOL    HW182553   7.027  11.280   3.293
26907SOL    HW282554   7.038  11.227   3.434
26908SOL     OW82555   5.067  14.014  11.868
26908SOL    HW182556   5.150  14.000  11.821
26908SOL    HW282557   5.022  13.930  11.861
26909SOL     OW82558   1.790   1.464  10.075
26909SOL    HW182559   1.849   1.536  10.051
26909SOL    HW282560   1.742   1.496  10.151
26910SOL     OW82561   8.438   3.531   2.931
26910SOL    HW182562   8.498   3.490   2.993
26910SOL    HW282563   8.364   3.559   2.984
26911SOL     OW82564  14.754   3.065   5.345
26911SOL    HW182565  14.703   3.095   5.421
26911SOL    HW282566  14.713   2.982   5.321
26912SOL     OW82567   7.556   6.651   5.385
26912SOL    HW182568   7.603   6.707   5.323
26912SOL    HW282569   7.614   6.646   5.461
26913SOL     OW82570   5.866   6.528   9.161
26913SOL    HW182571   5.959   6.550   9.174
26913SOL    HW282572   5.833   6.516   9.250
26914SOL     OW82573   2.971  12.273   9.666
26914SOL    HW182574   2.959  12.364   9.695
26914SOL    HW282575   3.041  12.239   9.722
26915SOL     OW82576   6.147   0.240  14.330
26915SOL    HW182577   6.115   0.161  14.373
26915SOL    HW282578   6.240   0.245  14.355
26916SOL     OW82579  10.414  11.266   0.416
26916SOL    HW182580  10.351  11.339   0.415
26916SOL    HW282581  10.394  11.216   0.338
26917SOL     OW82582  13.734  14.783   9.330
26917SOL    HW182583  13.823  14.753   9.315
26917SOL    HW282584  13.722  14.853   9.266
26918SOL     OW82585   9.764   3.319  13.613
26918SOL    HW182586   9.673   3.303  13.587
26918SOL    HW282587   9.815   3.276  13.544
26919SOL     OW82588   9.856   2.192  14.284
26919SOL    HW182589   9.785   2.164  14.341
26919SOL    HW282590   9.826   2.274  14.245
26920SOL     OW82591  12.232  14.221   5.687
26920SOL    HW182592  12.139  14.211   5.710
26920SOL    HW282593  12.247  14.315   5.687
26921SOL     OW82594   7.706   8.678   3.117
26921SOL    HW182595   7.673   8.761   3.151
26921SOL    HW282596   7.760   8.702   3.042
26922SOL     OW82597   7.879   7.265   2.908
26922SOL    HW182598   7.963   7.264   2.954
26922SOL    HW282599   7.903   7.281   2.816
26923SOL     OW82600   5.053   6.051   5.738
26923SOL    HW182601   5.062   6.031   5.645
26923SOL    HW282602   5.075   6.144   5.745
26924SOL     OW82603  13.748   1.590   8.632
26924SOL    HW182604  13.761   1.679   8.666
26924SOL    HW282605  13.778   1.595   8.541
26925SOL     OW82606   9.987   0.531   2.732
26925SOL    HW182607   9.933   0.496   2.803
26925SOL    HW282608  10.010   0.619   2.761
26926SOL     OW82609  11.955   6.031   1.992
26926SOL    HW182610  11.973   6.046   2.084
26926SOL    HW282611  11.883   6.090   1.971
26927SOL     OW82612   8.058   2.701   1.835
26927SOL    HW182613   8.081   2.703   1.928
26927SOL    HW282614   8.073   2.610   1.809
26928SOL     OW82615   2.578   7.709   4.101
26928SOL    HW182616   2.535   7.773   4.159
26928SOL    HW282617   2.582   7.753   4.016
26929SOL     OW82618  11.159   8.417  11.997
26929SOL    HW182619  11.084   8.460  12.039
26929SOL    HW282620  11.125   8.387  11.913
26930SOL     OW82621  14.645   2.627   4.963
26930SOL    HW182622  14.582   2.562   4.993
26930SOL    HW282623  14.654   2.611   4.869
26931SOL     OW82624   1.571   1.238   5.075
26931SOL    HW182625   1.605   1.248   4.986
26931SOL    HW282626   1.617   1.305   5.125
26932SOL     OW82627  12.757   6.700  10.855
26932SOL    HW182628  12.769   6.658  10.940
26932SOL    HW282629  12.751   6.628  10.793
26933SOL     OW82630  12.258   0.568   0.811
26933SOL    HW182631  12.177   0.518   0.815
26933SOL    HW282632  12.234   0.655   0.842
26934SOL     OW82633   6.629   5.356   2.840
26934SOL    HW182634   6.699   5.366   2.775
26934SOL    HW282635   6.657   5.409   2.914
26935SOL     OW82636   2.427  12.634   5.764
26935SOL    HW182637   2.365  12.665   5.830
26935SOL    HW282638   2.440  12.709   5.706
26936SOL     OW82639  10.089  10.468   4.340
26936SOL    HW182640  10.014  10.524   4.321
26936SOL    HW282641  10.160  10.529   4.359
26937SOL     OW82642   2.186   9.108   0.308
26937SOL    HW182643   2.216   9.099   0.218
26937SOL    HW282644   2.174   9.018   0.339
26938SOL     OW82645  10.817  14.149   7.242
26938SOL    HW182646  10.761  14.082   7.203
26938SOL    HW282647  10.809  14.224   7.183
26939SOL     OW82648  10.632   1.388  11.007
26939SOL    HW182649  10.596   1.475  11.023
26939SOL    HW282650  10.580   1.354  10.933
26940SOL     OW82651   3.675   2.257  13.862
26940SOL    HW182652   3.644   2.206  13.787
26940SOL    HW282653   3.685   2.346  13.828
26941SOL     OW82654   7.290   4.084   6.149
26941SOL    HW182655   7.266   4.026   6.222
26941SOL    HW282656   7.357   4.142   6.184
26942SOL     OW82657   3.970   5.861   7.365
26942SOL    HW182658   3.961   5.842   7.271
26942SOL    HW282659   3.917   5.939   7.379
26943SOL     OW82660   1.163   7.930  10.128
26943SOL    HW182661   1.164   8.007  10.072
26943SOL    HW282662   1.126   7.861  10.073
26944SOL     OW82663   3.845  14.804   8.103
26944SOL    HW182664   3.880  14.806   8.014
26944SOL    HW282665   3.918  14.829   8.158
26945SOL     OW82666   1.584  14.531  12.975
26945SOL    HW182667   1.574  14.449  12.926
26945SOL    HW282668   1.501  14.543  13.020
26946SOL     OW82669   5.953   0.228   9.246
26946SOL    HW182670   6.037   0.267   9.272
26946SOL    HW282671   5.975   0.171   9.172
26947SOL     OW82672   2.127   0.240   6.439
26947SOL    HW182673   2.137   0.316   6.382
26947SOL    HW282674   2.214   0.226   6.476
26948SOL     OW82675   6.887   2.068   5.345
26948SOL    HW182676   6.843   2.033   5.268
26948SOL    HW282677   6.979   2.073   5.320
26949SOL     OW82678   5.411   6.085   0.732
26949SOL    HW182679   5.477   6.154   0.741
26949SOL    HW282680   5.363   6.088   0.815
26950SOL     OW82681   4.517   1.389  14.551
26950SOL    HW182682   4.466   1.358  14.625
26950SOL    HW282683   4.457   1.444  14.501
26951SOL     OW82684   5.767  12.462   6.300
26951SOL    HW182685   5.781  12.535   6.240
26951SOL    HW282686   5.774  12.384   6.245
26952SOL     OW82687  13.625   1.357   0.874
26952SOL    HW182688  13.698   1.407   0.836
26952SOL    HW282689  13.626   1.274   0.827
26953SOL     OW82690   0.656  13.513   8.585
26953SOL    HW182691   0.563  13.504   8.606
26953SOL    HW282692   0.675  13.606   8.595
26954SOL     OW82693   7.448   8.731   7.518
26954SOL    HW182694   7.418   8.723   7.609
26954SOL    HW282695   7.498   8.813   7.517
26955SOL     OW82696   2.209   6.458   0.027
26955SOL    HW182697   2.123   6.500   0.026
26955SOL    HW282698   2.195   6.373  14.867
26956SOL     OW82699  12.474  14.873   0.823
26956SOL    HW182700  12.444   0.018   0.736
26956SOL    HW282701  12.567  14.851   0.810
26957SOL     OW82702   0.951   2.556  14.074
26957SOL    HW182703   0.930   2.612  13.999
26957SOL    HW282704   1.028   2.597  14.114
26958SOL     OW82705   8.421   6.408   8.322
26958SOL    HW182706   8.480   6.413   8.397
26958SOL    HW282707   8.439   6.323   8.283
26959SOL     OW82708  11.551   0.374   6.267
26959SOL    HW182709  11.619   0.403   6.205
26959SOL    HW282710  11.500   0.453   6.284
26960SOL     OW82711   6.882  10.573   8.004
26960SOL    HW182712   6.862  10.596   8.094
26960SOL    HW282713   6.825  10.499   7.984
26961SOL     OW82714   3.559   6.611  12.467
26961SOL    HW182715   3.555   6.520  12.495
26961SOL    HW282716   3.591   6.606  12.376
26962SOL     OW82717   9.368   2.389  13.805
26962SOL    HW182718   9.370   2.367  13.712
26962SOL    HW282719   9.452   2.361  13.839
26963SOL     OW82720   1.986   4.289  13.598
26963SOL    HW182721   2.022   4.295  13.687
26963SOL    HW282722   1.993   4.378  13.564
26964SOL     OW82723  12.720   7.562  13.804
26964SOL    HW182724  12.645   7.521  13.848
26964SOL    HW282725  12.711   7.534  13.713
26965SOL     OW82726   1.138  12.331   5.609
26965SOL    HW182727   1.111  12.413   5.568
26965SOL    HW282728   1.070  12.269   5.586
26966SOL     OW82729   3.297   8.390   9.834
26966SOL    HW182730   3.362   8.442   9.786
26966SOL    HW282731   3.250   8.453   9.888
26967SOL     OW82732   2.271   0.655  13.318
26967SOL    HW182733   2.259   0.679  13.226
26967SOL    HW282734   2.199   0.698  13.364
26968SOL     OW82735   1.737  14.652   1.286
26968SOL    HW182736   1.792  14.722   1.252
26968SOL    HW282737   1.665  14.646   1.224
26969SOL     OW82738   5.005   9.478   2.527
26969SOL    HW182739   5.034   9.389   2.507
26969SOL    HW282740   5.021   9.487   2.621
26970SOL     OW82741  10.568   2.167   0.075
26970SOL    HW182742  10.534   2.251   0.045
26970SOL    HW282743  10.616   2.132   0.001
26971SOL     OW82744   2.090   3.353   0.520
26971SOL    HW182745   2.025   3.362   0.450
26971SOL    HW282746   2.039   3.361   0.600
26972SOL     OW82747  12.780   5.588   5.681
26972SOL    HW182748  12.714   5.583   5.751
26972SOL    HW282749  12.771   5.506   5.633
26973SOL     OW82750  14.301   7.179   8.682
26973SOL    HW182751  14.311   7.085   8.698
26973SOL    HW282752  14.217   7.187   8.638
26974SOL     OW82753   4.098   4.605   6.017
26974SOL    HW182754   4.032   4.579   6.081
26974SOL    HW282755   4.157   4.662   6.066
26975SOL     OW82756   3.579  11.948   5.481
26975SOL    HW182757   3.613  11.939   5.392
26975SOL    HW282758   3.657  11.945   5.536
26976SOL     OW82759   4.020   2.160  13.216
26976SOL    HW182760   4.002   2.186  13.126
26976SOL    HW282761   3.950   2.099  13.238
26977SOL     OW82762   7.214   3.494  12.607
26977SOL    HW182763   7.260   3.563  12.655
26977SOL    HW282764   7.141   3.540  12.565
26978SOL     OW82765   3.169  12.666  14.430
26978SOL    HW182766   3.174  12.578  14.391
26978SOL    HW282767   3.201  12.724  14.360
26979SOL     OW82768   1.844   6.856   0.009
26979SOL    HW182769   1.806   6.851  14.803
26979SOL    HW282770   1.807   6.782   0.056
26980SOL     OW82771   2.616  14.672  12.483
26980SOL    HW182772   2.692  14.654  12.538
26980SOL    HW282773   2.605  14.592  12.431
26981SOL     OW82774   6.151   1.092   1.113
26981SOL    HW182775   6.239   1.110   1.081
26981SOL    HW282776   6.159   1.097   1.209
26982SOL     OW82777  14.694   8.521   7.235
26982SOL    HW182778  14.608   8.535   7.276
26982SOL    HW282779  14.677   8.457   7.166
26983SOL     OW82780   2.630   9.286   6.493
26983SOL    HW182781   2.648   9.231   6.417
26983SOL    HW282782   2.707   9.276   6.549
26984SOL     OW82783   7.498  14.283   2.255
26984SOL    HW182784   7.555  14.215   2.291
26984SOL    HW282785   7.506  14.273   2.160
26985SOL     OW82786  11.252   6.787   9.746
26985SOL    HW182787  11.252   6.721   9.816
26985SOL    HW282788  11.305   6.748   9.676
26986SOL     OW82789   7.569   4.042   5.013
26986SOL    HW182790   7.575   3.985   4.937
26986SOL    HW282791   7.660   4.053   5.042
26987SOL     OW82792  12.096  10.280   2.342
26987SOL    HW182793  12.151  10.318   2.411
26987SOL    HW282794  12.152  10.212   2.303
26988SOL     OW82795  11.848  13.937   6.821
26988SOL    HW182796  11.838  13.999   6.893
26988SOL    HW282797  11.868  13.991   6.745
26989SOL     OW82798  11.796   3.929   0.603
26989SOL    HW182799  11.845   3.986   0.662
26989SOL    HW282800  11.734   3.987   0.559
26990SOL     OW82801   3.501  12.109   1.911
26990SOL    HW182802   3.472  12.115   2.002
26990SOL    HW282803   3.438  12.049   1.870
26991SOL     OW82804   8.257  14.794   6.075
26991SOL    HW182805   8.249  14.698   6.074
26991SOL    HW282806   8.289  14.814   6.163
26992SOL     OW82807  13.592  11.423   2.858
26992SOL    HW182808  13.563  11.341   2.899
26992SOL    HW282809  13.686  11.426   2.874
26993SOL     OW82810   7.666   9.618  11.442
26993SOL    HW182811   7.733   9.552  11.460
26993SOL    HW282812   7.715   9.692  11.405
26994SOL     OW82813   8.442   3.486   7.142
26994SOL    HW182814   8.371   3.460   7.199
26994SOL    HW282815   8.448   3.581   7.152
26995SOL     OW82816  10.152   9.421   2.574
26995SOL    HW182817  10.160   9.516   2.562
26995SOL    HW282818  10.060   9.402   2.557
26996SOL     OW82819   4.227   9.024   2.293
26996SOL    HW182820   4.188   9.101   2.336
26996SOL    HW282821   4.321   9.035   2.307
26997SOL     OW82822  10.499  13.149  11.769
26997SOL    HW182823  10.420  13.139  11.716
26997SOL    HW282824  10.490  13.085  11.839
26998SOL     OW82825  10.851   4.675   2.567
26998SOL    HW182826  10.889   4.587   2.567
26998SOL    HW282827  10.926   4.733   2.581
26999SOL     OW82828   1.053   9.373   9.961
26999SOL    HW182829   1.137   9.341   9.994
26999SOL    HW282830   1.023   9.436  10.027
27000SOL     OW82831   3.773   6.351  10.597
27000SOL    HW182832   3.763   6.258  10.619
27000SOL    HW282833   3.820   6.388  10.672
27001SOL     OW82834   4.958  11.674  14.313
27001SOL    HW182835   4.870  11.703  14.336
27001SOL    HW282836   4.944  11.613  14.240
27002SOL     OW82837   7.983   7.833   1.214
27002SOL    HW182838   8.004   7.919   1.249
27002SOL    HW282839   7.911   7.849   1.153
27003SOL     OW82840  13.005  13.298  13.644
27003SOL    HW182841  13.053  13.236  13.591
27003SOL    HW282842  12.913  13.279  13.625
27004SOL     OW82843   8.863  10.914  11.072
27004SOL    HW182844   8.810  10.973  11.126
27004SOL    HW282845   8.949  10.915  11.113
27005SOL     OW82846   3.010  11.386   3.173
27005SOL    HW182847   2.929  11.437   3.166
27005SOL    HW282848   3.074  11.448   3.209
27006SOL     OW82849   0.449  10.958   2.959
27006SOL    HW182850   0.484  11.047   2.964
27006SOL    HW282851   0.488  10.912   3.034
27007SOL     OW82852   9.647   4.079   8.815
27007SOL    HW182853   9.666   3.989   8.841
27007SOL    HW282854   9.719   4.102   8.755
27008SOL     OW82855   2.169  12.954   8.398
27008SOL    HW182856   2.113  12.881   8.372
27008SOL    HW282857   2.109  13.019   8.432
27009SOL     OW82858   0.404   1.552  12.605
27009SOL    HW182859   0.487   1.507  12.588
27009SOL    HW282860   0.342   1.482  12.626
27010SOL     OW82861   6.980  14.697   7.223
27010SOL    HW182862   7.006  14.758   7.155
27010SOL    HW282863   7.059  14.648   7.243
27011SOL     OW82864   0.912   0.525   2.836
27011SOL    HW182865   0.972   0.599   2.832
27011SOL    HW282866   0.855   0.536   2.759
27012SOL     OW82867   9.968   7.442  13.430
27012SOL    HW182868   9.962   7.473  13.520
27012SOL    HW282869  10.010   7.514  13.382
27013SOL     OW82870  13.950   7.448   6.504
27013SOL    HW182871  13.972   7.492   6.422
27013SOL    HW282872  14.034   7.422   6.541
27014SOL     OW82873   9.689   1.223  12.253
27014SOL    HW182874   9.728   1.308  12.231
27014SOL    HW282875   9.763   1.164  12.263
27015SOL     OW82876   1.857  14.447   4.670
27015SOL    HW182877   1.768  14.441   4.634
27015SOL    HW282878   1.883  14.357   4.686
27016SOL     OW82879  10.016  10.898   9.848
27016SOL    HW182880   9.966  10.817   9.856
27016SOL    HW282881  10.021  10.915   9.754
27017SOL     OW82882  11.200   3.681   5.661
27017SOL    HW182883  11.231   3.706   5.574
27017SOL    HW282884  11.156   3.759   5.694
27018SOL     OW82885  10.891  14.317   6.376
27018SOL    HW182886  10.985  14.333   6.387
27018SOL    HW282887  10.875  14.236   6.425
27019SOL     OW82888  14.504  13.339   5.923
27019SOL    HW182889  14.570  13.364   5.989
27019SOL    HW282890  14.426  13.319   5.974
27020SOL     OW82891   6.889  10.606   9.204
27020SOL    HW182892   6.905  10.565   9.289
27020SOL    HW282893   6.952  10.565   9.145
27021SOL     OW82894   5.183  13.612   7.629
27021SOL    HW182895   5.142  13.650   7.707
27021SOL    HW282896   5.141  13.657   7.556
27022SOL     OW82897   1.009   7.105  11.652
27022SOL    HW182898   0.943   7.147  11.597
27022SOL    HW282899   1.079   7.082  11.591
27023SOL     OW82900   4.702   0.279  11.216
27023SOL    HW182901   4.771   0.275  11.150
27023SOL    HW282902   4.634   0.220  11.184
27024SOL     OW82903   0.597   3.656  12.937
27024SOL    HW182904   0.660   3.588  12.914
27024SOL    HW282905   0.519   3.634  12.887
27025SOL     OW82906   8.286   6.559   5.282
27025SOL    HW182907   8.312   6.642   5.321
27025SOL    HW282908   8.267   6.580   5.191
27026SOL     OW82909  10.089   5.328  14.318
27026SOL    HW182910  10.155   5.389  14.286
27026SOL    HW282911  10.105   5.323  14.412
27027SOL     OW82912   7.563   7.076   2.261
27027SOL    HW182913   7.599   7.153   2.305
27027SOL    HW282914   7.498   7.111   2.200
27028SOL     OW82915   0.040   1.556   6.737
27028SOL    HW182916  14.842   1.580   6.783
27028SOL    HW282917   0.080   1.488   6.791
27029SOL     OW82918   5.225   5.947  12.413
27029SOL    HW182919   5.205   5.855  12.397
27029SOL    HW282920   5.231   5.954  12.508
27030SOL     OW82921  13.828  13.539   2.423
27030SOL    HW182922  13.772  13.466   2.450
27030SOL    HW282923  13.917  13.506   2.436
27031SOL     OW82924  10.597   4.097  13.543
27031SOL    HW182925  10.660   4.033  13.576
27031SOL    HW282926  10.620   4.108  13.451
27032SOL     OW82927   3.770   6.060   9.583
27032SOL    HW182928   3.695   6.120   9.579
27032SOL    HW282929   3.813   6.080   9.666
27033SOL     OW82930   7.577   3.920  13.748
27033SOL    HW182931   7.550   3.994  13.693
27033SOL    HW282932   7.502   3.861  13.747
27034SOL     OW82933   1.762   2.582   9.704
27034SOL    HW182934   1.852   2.572   9.672
27034SOL    HW282935   1.708   2.537   9.639
27035SOL     OW82936   2.071   7.203   2.857
27035SOL    HW182937   1.994   7.248   2.892
27035SOL    HW282938   2.042   7.113   2.841
27036SOL     OW82939   2.870  10.670   2.010
27036SOL    HW182940   2.844  10.762   2.011
27036SOL    HW282941   2.819  10.630   2.080
27037SOL     OW82942   5.699   8.682   8.040
27037SOL    HW182943   5.774   8.669   8.099
27037SOL    HW282944   5.731   8.742   7.973
27038SOL     OW82945   2.153   9.447   4.847
27038SOL    HW182946   2.072   9.447   4.896
27038SOL    HW282947   2.222   9.459   4.913
27039SOL     OW82948   1.077  12.143   3.984
27039SOL    HW182949   1.130  12.175   4.057
27039SOL    HW282950   1.136  12.086   3.934
27040SOL     OW82951   7.091   5.316  11.867
27040SOL    HW182952   7.065   5.225  11.849
27040SOL    HW282953   7.010   5.366  11.860
27041SOL     OW82954   9.595   5.494   8.826
27041SOL    HW182955   9.689   5.478   8.821
27041SOL    HW282956   9.562   5.425   8.883
27042SOL     OW82957  13.438   9.490   7.290
27042SOL    HW182958  13.393   9.406   7.280
27042SOL    HW282959  13.451   9.498   7.385
27043SOL     OW82960   4.441  10.865   7.711
27043SOL    HW182961   4.391  10.923   7.653
27043SOL    HW282962   4.514  10.834   7.658
27044SOL     OW82963  10.468   6.639   6.706
27044SOL    HW182964  10.457   6.606   6.795
27044SOL    HW282965  10.378   6.654   6.675
27045SOL     OW82966   4.806  14.803   2.070
27045SOL    HW182967   4.895  14.784   2.098
27045SOL    HW282968   4.815  14.876   2.009
27046SOL     OW82969   3.212  13.938   7.742
27046SOL    HW182970   3.240  13.857   7.785
27046SOL    HW282971   3.202  14.001   7.813
27047SOL     OW82972  12.809   7.111  10.535
27047SOL    HW182973  12.791   7.048  10.465
27047SOL    HW282974  12.807   7.060  10.615
27048SOL     OW82975   9.752   1.786   8.912
27048SOL    HW182976   9.718   1.802   9.000
27048SOL    HW282977   9.847   1.793   8.921
27049SOL     OW82978   6.601   4.301   9.657
27049SOL    HW182979   6.597   4.238   9.585
27049SOL    HW282980   6.544   4.264   9.724
27050SOL     OW82981  14.352   5.956   1.152
27050SOL    HW182982  14.371   6.050   1.149
27050SOL    HW282983  14.388   5.922   1.069
27051SOL     OW82984   7.383   0.295  12.117
27051SOL    HW182985   7.289   0.282  12.130
27051SOL    HW282986   7.424   0.230  12.174
27052SOL     OW82987   9.281   6.921   4.107
27052SOL    HW182988   9.299   6.963   4.023
27052SOL    HW282989   9.327   6.837   4.102
27053SOL     OW82990   3.318  13.047   0.447
27053SOL    HW182991   3.253  13.049   0.377
27053SOL    HW282992   3.366  12.965   0.433
27054SOL     OW82993   8.277  10.429   6.259
27054SOL    HW182994   8.255  10.382   6.340
27054SOL    HW282995   8.230  10.382   6.190
27055SOL     OW82996   0.319   3.027   5.358
27055SOL    HW182997   0.365   2.965   5.416
27055SOL    HW282998   0.389   3.070   5.309
27056SOL     OW82999   6.655  11.166   7.443
27056SOL    HW183000   6.675  11.259   7.447
27056SOL    HW283001   6.709  11.126   7.511
27057SOL     OW83002  14.541   7.163   1.140
27057SOL    HW183003  14.567   7.072   1.137
27057SOL    HW283004  14.464   7.164   1.197
27058SOL     OW83005  14.102  12.191   2.280
27058SOL    HW183006  14.078  12.235   2.362
27058SOL    HW283007  14.080  12.099   2.295
27059SOL     OW83008  10.145   2.829   1.400
27059SOL    HW183009  10.109   2.821   1.488
27059SOL    HW283010  10.158   2.739   1.371
27060SOL     OW83011   1.650   2.979   7.400
27060SOL    HW183012   1.654   2.921   7.324
27060SOL    HW283013   1.570   2.953   7.446
27061SOL     OW83014  13.427  10.210  10.525
27061SOL    HW183015  13.483  10.141  10.490
27061SOL    HW283016  13.488  10.274  10.562
27062SOL     OW83017  12.750   6.514  14.847
27062SOL    HW183018  12.663   6.479  14.868
27062SOL    HW283019  12.797   6.515   0.049
27063SOL     OW83020  12.589   7.103   4.119
27063SOL    HW183021  12.496   7.125   4.109
27063SOL    HW283022  12.632   7.145   4.045
27064SOL     OW83023   6.431  10.531  11.462
27064SOL    HW183024   6.459  10.457  11.516
27064SOL    HW283025   6.432  10.606  11.520
27065SOL     OW83026   3.459   6.529   4.343
27065SOL    HW183027   3.466   6.475   4.421
27065SOL    HW283028   3.542   6.516   4.297
27066SOL     OW83029  11.330   7.083   1.752
27066SOL    HW183030  11.340   7.178   1.749
27066SOL    HW283031  11.267   7.068   1.822
27067SOL     OW83032  14.078   1.121   2.178
27067SOL    HW183033  14.106   1.047   2.125
27067SOL    HW283034  14.049   1.186   2.114
27068SOL     OW83035  13.656  12.483   2.175
27068SOL    HW183036  13.748  12.492   2.202
27068SOL    HW283037  13.661  12.441   2.089
27069SOL     OW83038   7.479   8.467   8.009
27069SOL    HW183039   7.469   8.458   7.915
27069SOL    HW283040   7.573   8.455   8.025
27070SOL     OW83041  14.635  11.716   9.318
27070SOL    HW183042  14.564  11.751   9.371
27070SOL    HW283043  14.714  11.733   9.370
27071SOL     OW83044   3.496  11.401   6.235
27071SOL    HW183045   3.442  11.344   6.289
27071SOL    HW283046   3.585  11.369   6.247
27072SOL     OW83047  11.594   6.978   2.642
27072SOL    HW183048  11.649   7.052   2.618
27072SOL    HW283049  11.584   6.928   2.560
27073SOL     OW83050  10.284   0.348  14.230
27073SOL    HW183051  10.225   0.274  14.217
27073SOL    HW283052  10.330   0.328  14.312
27074SOL     OW83053   3.303  10.555   0.190
27074SOL    HW183054   3.214  10.583   0.214
27074SOL    HW283055   3.341  10.523   0.272
27075SOL     OW83056  11.350  14.187   9.816
27075SOL    HW183057  11.357  14.248   9.890
27075SOL    HW283058  11.258  14.161   9.816
27076SOL     OW83059   6.480   8.125   3.241
27076SOL    HW183060   6.387   8.110   3.257
27076SOL    HW283061   6.482   8.179   3.161
27077SOL     OW83062   8.898  11.590   9.329
27077SOL    HW183063   8.828  11.654   9.313
27077SOL    HW283064   8.975  11.627   9.286
27078SOL     OW83065   5.466  13.488  12.048
27078SOL    HW183066   5.555  13.456  12.037
27078SOL    HW283067   5.434  13.445  12.127
27079SOL     OW83068   2.478  14.570   0.139
27079SOL    HW183069   2.467  14.591   0.231
27079SOL    HW283070   2.569  14.590   0.120
27080SOL     OW83071  13.111   0.599  13.547
27080SOL    HW183072  13.041   0.554  13.499
27080SOL    HW283073  13.076   0.687  13.562
27081SOL     OW83074   1.098   1.397  10.123
27081SOL    HW183075   1.048   1.470  10.086
27081SOL    HW283076   1.067   1.320  10.076
27082SOL     OW83077  12.910   5.639   5.311
27082SOL    HW183078  12.862   5.718   5.334
27082SOL    HW283079  12.974   5.628   5.381
27083SOL     OW83080   1.940   5.914   7.119
27083SOL    HW183081   1.974   5.877   7.200
27083SOL    HW283082   1.953   5.845   7.054
27084SOL     OW83083   9.120   9.602  12.628
27084SOL    HW183084   9.052   9.669  12.617
27084SOL    HW283085   9.202   9.647  12.609
27085SOL     OW83086   3.152  11.660   1.799
27085SOL    HW183087   3.094  11.694   1.867
27085SOL    HW283088   3.226  11.622   1.847
27086SOL     OW83089   9.583  10.860  12.517
27086SOL    HW183090   9.653  10.918  12.548
27086SOL    HW283091   9.562  10.893  12.430
27087SOL     OW83092   6.080   1.780  14.607
27087SOL    HW183093   6.026   1.701  14.611
27087SOL    HW283094   6.164   1.754  14.645
27088SOL     OW83095   1.285   5.568   8.313
27088SOL    HW183096   1.208   5.510   8.307
27088SOL    HW283097   1.305   5.591   8.222
27089SOL     OW83098  14.566  10.935   0.142
27089SOL    HW183099  14.613  11.017   0.132
27089SOL    HW283100  14.541  10.932   0.234
27090SOL     OW83101  13.972  13.493  12.577
27090SOL    HW183102  14.014  13.416  12.615
27090SOL    HW283103  13.890  13.460  12.540
27091SOL     OW83104  10.355  12.886   6.844
27091SOL    HW183105  10.448  12.861   6.843
27091SOL    HW283106  10.310  12.808   6.876
27092SOL     OW83107  11.496  11.037  12.531
27092SOL    HW183108  11.508  10.946  12.506
27092SOL    HW283109  11.468  11.033  12.623
27093SOL     OW83110   9.079   9.433   9.646
27093SOL    HW183111   9.115   9.483   9.719
27093SOL    HW283112   9.019   9.371   9.687
27094SOL     OW83113  12.237  11.085  12.486
27094SOL    HW183114  12.225  11.167  12.439
27094SOL    HW283115  12.325  11.090  12.523
27095SOL     OW83116   1.485   0.487  12.471
27095SOL    HW183117   1.482   0.421  12.401
27095SOL    HW283118   1.497   0.570  12.426
27096SOL     OW83119   4.170   8.714   5.232
27096SOL    HW183120   4.123   8.704   5.315
27096SOL    HW283121   4.102   8.702   5.165
27097SOL     OW83122   0.399  11.615   9.043
27097SOL    HW183123   0.405  11.701   9.001
27097SOL    HW283124   0.358  11.633   9.128
27098SOL     OW83125   2.889  10.537   4.041
27098SOL    HW183126   2.966  10.569   4.087
27098SOL    HW283127   2.862  10.609   3.984
27099SOL     OW83128   3.180   9.413   7.098
27099SOL    HW183129   3.090   9.385   7.077
27099SOL    HW283130   3.230   9.332   7.101
27100SOL     OW83131   1.264   0.800   9.549
27100SOL    HW183132   1.233   0.856   9.620
27100SOL    HW283133   1.185   0.767   9.507
27101SOL     OW83134  11.371   1.264   8.007
27101SOL    HW183135  11.426   1.255   8.085
27101SOL    HW283136  11.302   1.324   8.033
27102SOL     OW83137   0.482   2.045   6.184
27102SOL    HW183138   0.565   2.058   6.139
27102SOL    HW283139   0.435   1.981   6.130
27103SOL     OW83140   5.111   7.247  10.465
27103SOL    HW183141   5.157   7.242  10.381
27103SOL    HW283142   5.019   7.232  10.443
27104SOL     OW83143   7.302   1.907  10.007
27104SOL    HW183144   7.208   1.892  10.000
27104SOL    HW283145   7.321   1.973   9.940
27105SOL     OW83146   4.066   3.890   5.228
27105SOL    HW183147   4.002   3.843   5.174
27105SOL    HW283148   4.036   3.981   5.227
27106SOL     OW83149   6.380  10.953   1.084
27106SOL    HW183150   6.335  10.976   1.003
27106SOL    HW283151   6.366  11.027   1.142
27107SOL     OW83152  11.487  11.037   0.345
27107SOL    HW183153  11.522  11.003   0.428
27107SOL    HW283154  11.435  11.113   0.371
27108SOL     OW83155   2.312  14.020   0.377
27108SOL    HW183156   2.232  14.066   0.350
27108SOL    HW283157   2.342  13.976   0.298
27109SOL     OW83158   6.388   6.435   8.267
27109SOL    HW183159   6.320   6.474   8.322
27109SOL    HW283160   6.467   6.487   8.285
27110SOL     OW83161   3.942   9.408   5.782
27110SOL    HW183162   3.884   9.335   5.762
27110SOL    HW283163   3.902   9.484   5.739
27111SOL     OW83164   6.712  13.715  13.243
27111SOL    HW183165   6.745  13.690  13.329
27111SOL    HW283166   6.775  13.781  13.212
27112SOL     OW83167   7.395  11.395   7.440
27112SOL    HW183168   7.424  11.305   7.452
27112SOL    HW283169   7.314  11.401   7.490
27113SOL     OW83170   4.547   7.905   5.749
27113SOL    HW183171   4.606   7.960   5.697
27113SOL    HW283172   4.588   7.819   5.748
27114SOL     OW83173   4.755  13.744  11.148
27114SOL    HW183174   4.714  13.819  11.191
27114SOL    HW283175   4.789  13.691  11.220
27115SOL     OW83176   1.334   7.928   7.354
27115SOL    HW183177   1.304   7.995   7.293
27115SOL    HW283178   1.262   7.866   7.360
27116SOL     OW83179   3.376   1.890   4.369
27116SOL    HW183180   3.346   1.940   4.445
27116SOL    HW283181   3.451   1.840   4.402
27117SOL     OW83182   2.610   1.738   5.730
27117SOL    HW183183   2.681   1.739   5.666
27117SOL    HW283184   2.651   1.709   5.811
27118SOL     OW83185  12.595  10.634   3.197
27118SOL    HW183186  12.593  10.646   3.102
27118SOL    HW283187  12.539  10.558   3.213
27119SOL     OW83188   3.543   4.454   3.065
27119SOL    HW183189   3.538   4.549   3.054
27119SOL    HW283190   3.452   4.425   3.063
27120SOL     OW83191   5.973   3.439   6.477
27120SOL    HW183192   5.937   3.463   6.391
27120SOL    HW283193   5.983   3.343   6.472
27121SOL     OW83194  12.249   4.942   1.750
27121SOL    HW183195  12.187   4.905   1.812
27121SOL    HW283196  12.208   4.928   1.664
27122SOL     OW83197   6.878   5.102  14.047
27122SOL    HW183198   6.898   5.172  14.109
27122SOL    HW283199   6.947   5.036  14.062
27123SOL     OW83200  11.142   5.270  12.451
27123SOL    HW183201  11.224   5.264  12.403
27123SOL    HW283202  11.077   5.228  12.394
27124SOL     OW83203  10.225   0.098   3.659
27124SOL    HW183204  10.162   0.164   3.688
27124SOL    HW283205  10.281   0.083   3.735
27125SOL     OW83206  13.596   5.097   1.562
27125SOL    HW183207  13.583   5.104   1.657
27125SOL    HW283208  13.608   5.188   1.533
27126SOL     OW83209  12.799  13.502  12.302
27126SOL    HW183210  12.826  13.431  12.245
27126SOL    HW283211  12.844  13.486  12.385
27127SOL     OW83212  14.622  10.047  14.489
27127SOL    HW183213  14.531  10.024  14.471
27127SOL    HW283214  14.659  10.069  14.403
27128SOL     OW83215  12.550   0.866  12.034
27128SOL    HW183216  12.467   0.909  12.014
27128SOL    HW283217  12.561   0.878  12.128
27129SOL     OW83218   7.860  10.080   0.747
27129SOL    HW183219   7.843  10.130   0.667
27129SOL    HW283220   7.807  10.124   0.814
27130SOL     OW83221   3.132   2.473   4.207
27130SOL    HW183222   3.225   2.494   4.207
27130SOL    HW283223   3.088   2.558   4.203
27131SOL     OW83224  14.826   0.150  13.568
27131SOL    HW183225  14.852   0.188  13.651
27131SOL    HW283226   0.007   0.079  13.553
27132SOL     OW83227   6.117   3.017   4.467
27132SOL    HW183228   6.201   2.971   4.476
27132SOL    HW283229   6.070   2.968   4.400
27133SOL     OW83230   8.732   3.222  11.670
27133SOL    HW183231   8.658   3.171  11.637
27133SOL    HW283232   8.806   3.193  11.616
27134SOL     OW83233   2.309   7.109   3.881
27134SOL    HW183234   2.378   7.057   3.839
27134SOL    HW283235   2.353   7.190   3.907
27135SOL     OW83236   2.460   5.381  10.674
27135SOL    HW183237   2.430   5.422  10.755
27135SOL    HW283238   2.488   5.455  10.619
27136SOL     OW83239   6.552   4.209   1.564
27136SOL    HW183240   6.515   4.229   1.650
27136SOL    HW283241   6.562   4.113   1.565
27137SOL     OW83242   2.983   2.041   6.418
27137SOL    HW183243   2.907   2.041   6.361
27137SOL    HW283244   3.051   2.086   6.368
27138SOL     OW83245   4.567   1.264   0.126
27138SOL    HW183246   4.486   1.215   0.109
27138SOL    HW283247   4.606   1.220   0.201
27139SOL     OW83248  12.878   1.031   9.575
27139SOL    HW183249  12.849   0.940   9.567
27139SOL    HW283250  12.885   1.063   9.485
27140SOL     OW83251   9.531  14.685   5.422
27140SOL    HW183252   9.484  14.764   5.395
27140SOL    HW283253   9.559  14.644   5.340
27141SOL     OW83254   7.148   1.071   5.719
27141SOL    HW183255   7.114   0.991   5.679
27141SOL    HW283256   7.077   1.102   5.774
27142SOL     OW83257   7.788   5.048  11.524
27142SOL    HW183258   7.870   4.998  11.526
27142SOL    HW283259   7.725   4.990  11.483
27143SOL     OW83260  10.716   1.346   5.550
27143SOL    HW183261  10.746   1.262   5.516
27143SOL    HW283262  10.720   1.406   5.475
27144SOL     OW83263  13.388  12.205  10.521
27144SOL    HW183264  13.466  12.165  10.559
27144SOL    HW283265  13.380  12.166  10.434
27145SOL     OW83266   5.169   5.624   6.861
27145SOL    HW183267   5.206   5.702   6.821
27145SOL    HW283268   5.203   5.624   6.951
27146SOL     OW83269   1.491   9.017  12.524
27146SOL    HW183270   1.515   9.009  12.431
27146SOL    HW283271   1.435   9.094  12.528
27147SOL     OW83272   7.289   5.484  12.649
27147SOL    HW183273   7.201   5.503  12.683
27147SOL    HW283274   7.278   5.403  12.600
27148SOL     OW83275   7.980  13.270   7.971
27148SOL    HW183276   8.057  13.308   8.013
27148SOL    HW283277   7.941  13.343   7.922
27149SOL     OW83278  11.154  13.886  14.160
27149SOL    HW183279  11.149  13.977  14.188
27149SOL    HW283280  11.233  13.852  14.203
27150SOL     OW83281   3.447   9.061   4.188
27150SOL    HW183282   3.431   9.013   4.107
27150SOL    HW283283   3.447   9.153   4.163
27151SOL     OW83284  10.590  14.075   3.415
27151SOL    HW183285  10.609  14.094   3.323
27151SOL    HW283286  10.604  14.157   3.461
27152SOL     OW83287   5.552  13.553  11.391
27152SOL    HW183288   5.552  13.497  11.469
27152SOL    HW283289   5.586  13.497  11.321
27153SOL     OW83290  10.611  12.323   1.082
27153SOL    HW183291  10.683  12.337   1.143
27153SOL    HW283292  10.634  12.243   1.035
27154SOL     OW83293   7.464   1.593   1.628
27154SOL    HW183294   7.549   1.573   1.588
27154SOL    HW283295   7.481   1.666   1.687
27155SOL     OW83296   0.987  10.427  10.152
27155SOL    HW183297   1.001  10.333  10.165
27155SOL    HW283298   0.895  10.434  10.127
27156SOL     OW83299   8.073   3.792  14.842
27156SOL    HW183300   8.118   3.857  14.787
27156SOL    HW283301   8.106   3.809   0.048
27157SOL     OW83302  13.905   1.941  13.183
27157SOL    HW183303  13.956   1.864  13.209
27157SOL    HW283304  13.820   1.906  13.155
27158SOL     OW83305   6.406  11.070  12.088
27158SOL    HW183306   6.338  11.032  12.144
27158SOL    HW283307   6.476  11.005  12.089
27159SOL     OW83308   0.368   9.299  14.455
27159SOL    HW183309   0.417   9.242  14.395
27159SOL    HW283310   0.348   9.242  14.530
27160SOL     OW83311   7.937   9.252   2.521
27160SOL    HW183312   7.941   9.348   2.512
27160SOL    HW283313   7.980   9.220   2.442
27161SOL     OW83314  11.861   9.696   7.157
27161SOL    HW183315  11.821   9.611   7.140
27161SOL    HW283316  11.788   9.757   7.161
27162SOL     OW83317   2.243   8.116  13.945
27162SOL    HW183318   2.310   8.083  13.884
27162SOL    HW283319   2.166   8.063  13.926
27163SOL     OW83320  13.245   8.254   5.769
27163SOL    HW183321  13.174   8.199   5.735
27163SOL    HW283322  13.231   8.254   5.864
27164SOL     OW83323   7.575   7.290  13.400
27164SOL    HW183324   7.536   7.336  13.474
27164SOL    HW283325   7.655   7.250  13.436
27165SOL     OW83326   1.713  10.555   5.757
27165SOL    HW183327   1.668  10.577   5.838
27165SOL    HW283328   1.646  10.564   5.689
27166SOL     OW83329  11.361  12.889  12.837
27166SOL    HW183330  11.363  12.968  12.782
27166SOL    HW283331  11.294  12.907  12.902
27167SOL     OW83332   0.194  13.351   6.138
27167SOL    HW183333   0.155  13.274   6.098
27167SOL    HW283334   0.225  13.321   6.223
27168SOL     OW83335   3.923  11.099  12.618
27168SOL    HW183336   3.908  11.139  12.532
27168SOL    HW283337   3.843  11.049  12.636
27169SOL     OW83338  13.432   3.440  11.087
27169SOL    HW183339  13.398   3.528  11.101
27169SOL    HW283340  13.425   3.426  10.992
27170SOL     OW83341  11.593   4.571   4.584
27170SOL    HW183342  11.560   4.587   4.673
27170SOL    HW283343  11.561   4.484   4.562
27171SOL     OW83344   5.031   9.840   6.587
27171SOL    HW183345   5.064   9.831   6.676
27171SOL    HW283346   5.008   9.751   6.561
27172SOL     OW83347  12.561  13.837   1.964
27172SOL    HW183348  12.508  13.833   2.044
27172SOL    HW283349  12.567  13.746   1.934
27173SOL     OW83350   4.193   8.998   0.285
27173SOL    HW183351   4.222   9.072   0.338
27173SOL    HW283352   4.273   8.964   0.245
27174SOL     OW83353   0.724   6.661   3.191
27174SOL    HW183354   0.696   6.618   3.110
27174SOL    HW283355   0.782   6.598   3.233
27175SOL     OW83356   5.749  13.385  13.640
27175SOL    HW183357   5.833  13.351  13.607
27175SOL    HW283358   5.774  13.449  13.706
27176SOL     OW83359   5.395   7.037   6.411
27176SOL    HW183360   5.385   7.024   6.317
27176SOL    HW283361   5.429   7.126   6.419
27177SOL     OW83362   0.147   8.061  13.146
27177SOL    HW183363   0.198   8.141  13.155
27177SOL    HW283364   0.105   8.049  13.232
27178SOL     OW83365  13.469   2.986   3.222
27178SOL    HW183366  13.557   2.950   3.228
27178SOL    HW283367  13.453   2.995   3.128
27179SOL     OW83368   2.088  13.144   7.745
27179SOL    HW183369   2.100  13.190   7.828
27179SOL    HW283370   2.067  13.213   7.682
27180SOL     OW83371   4.883  14.250   9.321
27180SOL    HW183372   4.952  14.189   9.293
27180SOL    HW283373   4.890  14.252   9.416
27181SOL     OW83374   1.184  11.719  10.466
27181SOL    HW183375   1.275  11.736  10.493
27181SOL    HW283376   1.167  11.783  10.397
27182SOL     OW83377   5.537   2.460  13.641
27182SOL    HW183378   5.608   2.499  13.692
27182SOL    HW283379   5.579   2.430  13.561
27183SOL     OW83380   9.705  10.952   5.280
27183SOL    HW183381   9.687  11.013   5.351
27183SOL    HW283382   9.701  11.006   5.201
27184SOL     OW83383  14.874   4.932  13.043
27184SOL    HW183384   0.007   4.992  13.117
27184SOL    HW283385   0.080   4.916  13.007
27185SOL     OW83386   4.980   4.464  11.863
27185SOL    HW183387   4.919   4.391  11.877
27185SOL    HW283388   4.978   4.480  11.769
27186SOL     OW83389   0.690  13.052   4.029
27186SOL    HW183390   0.597  13.070   4.015
27186SOL    HW283391   0.716  12.998   3.954
27187SOL     OW83392   6.251   6.432   9.387
27187SOL    HW183393   6.225   6.479   9.308
27187SOL    HW283394   6.248   6.497   9.456
27188SOL     OW83395   0.190  12.336   4.649
27188SOL    HW183396   0.130  12.305   4.718
27188SOL    HW283397   0.191  12.431   4.661
27189SOL     OW83398   0.894  14.410   5.330
27189SOL    HW183399   0.892  14.501   5.362
27189SOL    HW283400   0.971  14.407   5.273
27190SOL     OW83401  13.973  10.605   7.159
27190SOL    HW183402  13.970  10.525   7.212
27190SOL    HW283403  13.907  10.661   7.199
27191SOL     OW83404   7.118   2.318   9.616
27191SOL    HW183405   7.201   2.367   9.617
27191SOL    HW283406   7.093   2.311   9.708
27192SOL     OW83407   5.420  13.616  12.497
27192SOL    HW183408   5.390  13.565  12.422
27192SOL    HW283409   5.386  13.705  12.481
27193SOL     OW83410  10.004   5.387  13.981
27193SOL    HW183411  10.096   5.410  13.985
27193SOL    HW283412   9.975   5.386  14.072
27194SOL     OW83413   5.668  14.107   5.713
27194SOL    HW183414   5.749  14.156   5.723
27194SOL    HW283415   5.642  14.121   5.622
27195SOL     OW83416   6.587   0.025   3.608
27195SOL    HW183417   6.511  14.862   3.646
27195SOL    HW283418   6.592  14.874   3.518
27196SOL     OW83419   3.197   6.089  13.376
27196SOL    HW183420   3.199   6.151  13.449
27196SOL    HW283421   3.128   6.026  13.400
27197SOL     OW83422   1.906   6.408  10.963
27197SOL    HW183423   1.930   6.445  10.878
27197SOL    HW283424   1.944   6.321  10.963
27198SOL     OW83425   5.339   9.997  13.968
27198SOL    HW183426   5.398  10.052  14.019
27198SOL    HW283427   5.259  10.049  13.961
27199SOL     OW83428   6.850  12.940   5.485
27199SOL    HW183429   6.883  13.030   5.489
27199SOL    HW283430   6.908  12.890   5.542
27200SOL     OW83431   9.331  14.776   5.005
27200SOL    HW183432   9.358  14.715   4.936
27200SOL    HW283433   9.405  14.836   5.015
27201SOL     OW83434   5.098   7.344   2.356
27201SOL    HW183435   5.028   7.343   2.291
27201SOL    HW283436   5.113   7.252   2.378
27202SOL     OW83437   3.679  10.519   3.569
27202SOL    HW183438   3.731  10.595   3.544
27202SOL    HW283439   3.626  10.550   3.643
27203SOL     OW83440   5.963   2.050   0.167
27203SOL    HW183441   6.058   2.038   0.164
27203SOL    HW283442   5.929   1.987   0.104
27204SOL     OW83443  13.628  10.011  10.485
27204SOL    HW183444  13.683  10.001  10.407
27204SOL    HW283445  13.598   9.923  10.505
27205SOL     OW83446   8.173  13.858   1.788
27205SOL    HW183447   8.114  13.782   1.799
27205SOL    HW283448   8.141  13.922   1.852
27206SOL     OW83449  14.566   5.198   4.665
27206SOL    HW183450  14.601   5.259   4.601
27206SOL    HW283451  14.502   5.249   4.715
27207SOL     OW83452   2.243   5.778   6.108
27207SOL    HW183453   2.259   5.785   6.014
27207SOL    HW283454   2.306   5.838   6.148
27208SOL     OW83455  11.940  12.974   7.984
27208SOL    HW183456  11.962  13.067   7.979
27208SOL    HW283457  11.902  12.962   8.071
27209SOL     OW83458   1.064  13.124   4.070
27209SOL    HW183459   1.054  13.036   4.032
27209SOL    HW283460   1.057  13.109   4.165
27210SOL     OW83461  13.983  11.351   8.228
27210SOL    HW183462  14.072  11.376   8.253
27210SOL    HW283463  13.927  11.393   8.293
27211SOL     OW83464  10.751  11.102  14.735
27211SOL    HW183465  10.660  11.094  14.706
27211SOL    HW283466  10.803  11.091  14.656
27212SOL     OW83467  11.192   8.666  12.764
27212SOL    HW183468  11.145   8.591  12.728
27212SOL    HW283469  11.150   8.742  12.724
27213SOL     OW83470   3.100  14.761   9.488
27213SOL    HW183471   3.142  14.846   9.477
27213SOL    HW283472   3.088  14.728   9.399
27214SOL     OW83473  11.992   1.363   8.351
27214SOL    HW183474  11.977   1.449   8.391
27214SOL    HW283475  12.074   1.374   8.303
27215SOL     OW83476  10.538  12.109  14.210
27215SOL    HW183477  10.544  12.098  14.115
27215SOL    HW283478  10.603  12.049  14.245
27216SOL     OW83479   1.816  11.872  10.967
27216SOL    HW183480   1.759  11.885  11.043
27216SOL    HW283481   1.809  11.779  10.948
27217SOL     OW83482   7.945   1.148  14.875
27217SOL    HW183483   8.000   1.080  14.837
27217SOL    HW283484   7.863   1.144  14.826
27218SOL     OW83485   8.850   1.639   7.096
27218SOL    HW183486   8.812   1.726   7.108
27218SOL    HW283487   8.867   1.607   7.184
27219SOL     OW83488  10.474   5.291   9.261
27219SOL    HW183489  10.529   5.368   9.254
27219SOL    HW283490  10.490   5.242   9.181
27220SOL     OW83491  14.494   3.065   7.673
27220SOL    HW183492  14.520   3.025   7.590
27220SOL    HW283493  14.554   3.028   7.737
27221SOL     OW83494   8.024  11.382   3.083
27221SOL    HW183495   8.095  11.438   3.116
27221SOL    HW283496   7.997  11.423   3.001
27222SOL     OW83497  14.099   7.369  12.944
27222SOL    HW183498  14.115   7.403  13.032
27222SOL    HW283499  14.098   7.447  12.888
27223SOL     OW83500  14.663   6.672  14.588
27223SOL    HW183501  14.700   6.760  14.599
27223SOL    HW283502  14.724   6.627  14.530
27224SOL     OW83503   9.659   7.255   7.976
27224SOL    HW183504   9.732   7.315   7.985
27224SOL    HW283505   9.699   7.168   7.976
27225SOL     OW83506   2.999  13.823   9.796
27225SOL    HW183507   2.940  13.899   9.791
27225SOL    HW283508   3.086  13.861   9.790
27226SOL     OW83509   3.170   2.167   8.773
27226SOL    HW183510   3.235   2.207   8.715
27226SOL    HW283511   3.089   2.215   8.753
27227SOL     OW83512   5.104  11.190   9.149
27227SOL    HW183513   5.053  11.270   9.145
27227SOL    HW283514   5.050  11.125   9.104
27228SOL     OW83515   3.171   7.875  14.297
27228SOL    HW183516   3.099   7.908  14.350
27228SOL    HW283517   3.144   7.788  14.270
27229SOL     OW83518   2.320   3.938   1.423
27229SOL    HW183519   2.359   4.007   1.368
27229SOL    HW283520   2.387   3.870   1.426
27230SOL     OW83521   1.047   8.211   9.383
27230SOL    HW183522   1.059   8.217   9.288
27230SOL    HW283523   1.098   8.135   9.408
27231SOL     OW83524   6.293   6.011  11.016
27231SOL    HW183525   6.237   6.085  11.038
27231SOL    HW283526   6.336   6.037  10.934
27232SOL     OW83527   5.924   1.069  11.724
27232SOL    HW183528   5.896   0.981  11.750
27232SOL    HW283529   5.877   1.127  11.784
27233SOL     OW83530   4.977   0.294   2.772
27233SOL    HW183531   5.001   0.263   2.684
27233SOL    HW283532   5.030   0.241   2.831
27234SOL     OW83533   4.642   2.380   8.321
27234SOL    HW183534   4.673   2.460   8.363
27234SOL    HW283535   4.721   2.332   8.299
27235SOL     OW83536  11.861   6.706   9.859
27235SOL    HW183537  11.769   6.685   9.844
27235SOL    HW283538  11.908   6.630   9.825
27236SOL     OW83539  12.864   6.516   3.209
27236SOL    HW183540  12.841   6.423   3.201
27236SOL    HW283541  12.917   6.534   3.131
27237SOL     OW83542   5.776   7.179  12.004
27237SOL    HW183543   5.809   7.099  11.964
27237SOL    HW283544   5.681   7.173  11.997
27238SOL     OW83545   7.432  10.252   5.679
27238SOL    HW183546   7.486  10.321   5.717
27238SOL    HW283547   7.342  10.285   5.687
27239SOL     OW83548  10.680  13.926   6.086
27239SOL    HW183549  10.744  13.868   6.043
27239SOL    HW283550  10.614  13.866   6.122
27240SOL     OW83551   4.581   4.390   2.760
27240SOL    HW183552   4.616   4.401   2.849
27240SOL    HW283553   4.544   4.476   2.738
27241SOL     OW83554   2.721  11.910  13.677
27241SOL    HW183555   2.637  11.925  13.634
27241SOL    HW283556   2.698  11.878  13.765
27242SOL     OW83557   9.117  14.047   3.220
27242SOL    HW183558   9.166  14.102   3.281
27242SOL    HW283559   9.047  14.103   3.187
27243SOL     OW83560   3.445   8.254   3.850
27243SOL    HW183561   3.532   8.272   3.815
27243SOL    HW283562   3.455   8.173   3.899
27244SOL     OW83563   5.734   1.518  14.401
27244SOL    HW183564   5.658   1.555  14.356
27244SOL    HW283565   5.766   1.449  14.343
27245SOL     OW83566   4.564   7.059   2.586
27245SOL    HW183567   4.624   7.110   2.531
27245SOL    HW283568   4.619   6.993   2.627
27246SOL     OW83569   2.451   2.277   8.419
27246SOL    HW183570   2.500   2.274   8.337
27246SOL    HW283571   2.411   2.364   8.421
27247SOL     OW83572  12.473   8.801  12.085
27247SOL    HW183573  12.382   8.815  12.058
27247SOL    HW283574  12.514   8.887  12.078
27248SOL     OW83575   7.490   8.834  10.172
27248SOL    HW183576   7.515   8.801  10.086
27248SOL    HW283577   7.515   8.764  10.232
27249SOL     OW83578  13.740   4.794  11.868
27249SOL    HW183579  13.682   4.861  11.904
27249SOL    HW283580  13.681   4.730  11.827
27250SOL     OW83581   7.537   4.792   4.908
27250SOL    HW183582   7.629   4.782   4.934
27250SOL    HW283583   7.534   4.878   4.865
27251SOL     OW83584   5.409  11.680   4.988
27251SOL    HW183585   5.336  11.708   4.933
27251SOL    HW283586   5.378  11.599   5.029
27252SOL     OW83587   7.008   9.083   8.001
27252SOL    HW183588   6.995   8.988   8.011
27252SOL    HW283589   7.076   9.104   8.066
27253SOL     OW83590   4.320   7.477   5.233
27253SOL    HW183591   4.312   7.537   5.159
27253SOL    HW283592   4.370   7.526   5.299
27254SOL     OW83593  11.563  11.370   8.886
27254SOL    HW183594  11.543  11.283   8.850
27254SOL    HW283595  11.531  11.366   8.976
27255SOL     OW83596  14.155   9.800  10.343
27255SOL    HW183597  14.144   9.747  10.422
27255SOL    HW283598  14.108   9.881  10.361
27256SOL     OW83599  11.211   4.900   5.947
27256SOL    HW183600  11.252   4.876   5.864
27256SOL    HW283601  11.208   4.818   5.996
27257SOL     OW83602   8.770   7.965   9.675
27257SOL    HW183603   8.804   8.017   9.748
27257SOL    HW283604   8.717   8.027   9.625
27258SOL     OW83605   5.018   4.381   2.123
27258SOL    HW183606   5.000   4.452   2.061
27258SOL    HW283607   5.111   4.361   2.111
27259SOL     OW83608   7.271  13.903   2.951
27259SOL    HW183609   7.195  13.844   2.950
27259SOL    HW283610   7.327  13.871   2.881
27260SOL     OW83611   5.588  10.405   5.716
27260SOL    HW183612   5.593  10.344   5.789
27260SOL    HW283613   5.571  10.490   5.756
27261SOL     OW83614   9.654  10.722   9.625
27261SOL    HW183615   9.631  10.760   9.541
27261SOL    HW283616   9.579  10.742   9.682
27262SOL     OW83617  13.848   1.151  12.391
27262SOL    HW183618  13.837   1.206  12.314
27262SOL    HW283619  13.773   1.173  12.447
27263SOL     OW83620   7.248  10.741   9.506
27263SOL    HW183621   7.171  10.703   9.464
27263SOL    HW283622   7.214  10.815   9.557
27264SOL     OW83623   4.986  12.469  12.657
27264SOL    HW183624   5.041  12.451  12.581
27264SOL    HW283625   4.944  12.386  12.676
27265SOL     OW83626   1.757   9.151  10.636
27265SOL    HW183627   1.769   9.231  10.586
27265SOL    HW283628   1.717   9.090  10.574
27266SOL     OW83629   6.044   1.339   6.698
27266SOL    HW183630   6.091   1.270   6.745
27266SOL    HW283631   5.952   1.319   6.712
27267SOL     OW83632   6.205  13.495   2.453
27267SOL    HW183633   6.179  13.556   2.384
27267SOL    HW283634   6.238  13.550   2.524
27268SOL     OW83635  14.442   6.659  12.720
27268SOL    HW183636  14.480   6.572  12.734
27268SOL    HW283637  14.385   6.673  12.795
27269SOL     OW83638  10.670   5.966   6.059
27269SOL    HW183639  10.662   5.913   5.980
27269SOL    HW283640  10.587   5.954   6.105
27270SOL     OW83641   6.999   9.294   0.384
27270SOL    HW183642   6.990   9.209   0.426
27270SOL    HW283643   6.915   9.308   0.339
27271SOL     OW83644   4.841   7.464   7.937
27271SOL    HW183645   4.812   7.373   7.949
27271SOL    HW283646   4.818   7.485   7.846
27272SOL     OW83647   7.643   7.259  14.089
27272SOL    HW183648   7.663   7.194  14.156
27272SOL    HW283649   7.706   7.242  14.019
27273SOL     OW83650   7.507   0.188  10.698
27273SOL    HW183651   7.436   0.176  10.634
27273SOL    HW283652   7.580   0.222  10.646
27274SOL     OW83653  12.606   9.431   9.753
27274SOL    HW183654  12.686   9.382   9.773
27274SOL    HW283655  12.553   9.424   9.832
27275SOL     OW83656  12.704   0.851  13.582
27275SOL    HW183657  12.683   0.811  13.666
27275SOL    HW283658  12.642   0.922  13.572
27276SOL     OW83659   8.905  12.725   9.668
27276SOL    HW183660   8.810  12.727   9.676
27276SOL    HW283661   8.924  12.781   9.593
27277SOL     OW83662  13.893   8.890   6.317
27277SOL    HW183663  13.881   8.915   6.409
27277SOL    HW283664  13.952   8.815   6.320
27278SOL     OW83665  14.635   3.361  14.085
27278SOL    HW183666  14.691   3.420  14.135
27278SOL    HW283667  14.550   3.405  14.082
27279SOL     OW83668  11.991  14.464   7.047
27279SOL    HW183669  12.073  14.434   7.087
27279SOL    HW283670  11.994  14.559   7.055
27280SOL     OW83671   8.698   5.691   7.651
27280SOL    HW183672   8.656   5.773   7.625
27280SOL    HW283673   8.790   5.703   7.625
27281SOL     OW83674   5.906   0.912   1.459
27281SOL    HW183675   5.945   0.833   1.421
27281SOL    HW283676   5.813   0.904   1.439
27282SOL     OW83677   1.659   8.122   9.214
27282SOL    HW183678   1.565   8.137   9.212
27282SOL    HW283679   1.677   8.065   9.139
27283SOL     OW83680   7.793   1.802   0.981
27283SOL    HW183681   7.841   1.721   0.992
27283SOL    HW283682   7.742   1.811   1.062
27284SOL     OW83683  10.128   5.690   1.253
27284SOL    HW183684  10.099   5.742   1.327
27284SOL    HW283685  10.053   5.689   1.193
27285SOL     OW83686   4.362   6.071   2.319
27285SOL    HW183687   4.361   5.979   2.293
27285SOL    HW283688   4.437   6.108   2.274
27286SOL     OW83689  14.700  12.498   0.470
27286SOL    HW183690  14.701  12.403   0.470
27286SOL    HW283691  14.663  12.522   0.555
27287SOL     OW83692   0.982   6.506  12.019
27287SOL    HW183693   0.905   6.449  12.025
27287SOL    HW283694   0.984   6.533  11.927
27288SOL     OW83695   3.719   7.295   9.114
27288SOL    HW183696   3.659   7.369   9.121
27288SOL    HW283697   3.672   7.222   9.154
27289SOL     OW83698  13.088  13.088  14.625
27289SOL    HW183699  13.082  13.165  14.681
27289SOL    HW283700  13.159  13.036  14.663
27290SOL     OW83701  10.197   2.383   8.417
27290SOL    HW183702  10.169   2.422   8.334
27290SOL    HW283703  10.116   2.357   8.460
27291SOL     OW83704   4.623   6.737  14.127
27291SOL    HW183705   4.694   6.700  14.075
27291SOL    HW283706   4.634   6.832  14.118
27292SOL     OW83707  12.841  11.572  13.185
27292SOL    HW183708  12.787  11.564  13.263
27292SOL    HW283709  12.903  11.642  13.205
27293SOL     OW83710   0.578   6.150  12.764
27293SOL    HW183711   0.485   6.168  12.748
27293SOL    HW283712   0.618   6.153  12.677
27294SOL     OW83713  12.324   2.914  13.522
27294SOL    HW183714  12.400   2.857  13.531
27294SOL    HW283715  12.346   2.990  13.576
27295SOL     OW83716   9.203  13.908  10.149
27295SOL    HW183717   9.222  13.970  10.219
27295SOL    HW283718   9.229  13.953  10.069
27296SOL     OW83719  12.304   3.271   2.941
27296SOL    HW183720  12.299   3.271   2.846
27296SOL    HW283721  12.396   3.290   2.961
27297SOL     OW83722  12.426  10.389  12.267
27297SOL    HW183723  12.359  10.374  12.200
27297SOL    HW283724  12.446  10.301  12.301
27298SOL     OW83725  11.561   2.545   6.054
27298SOL    HW183726  11.542   2.454   6.077
27298SOL    HW283727  11.476   2.580   6.026
27299SOL     OW83728   1.738  10.426  12.443
27299SOL    HW183729   1.689  10.498  12.402
27299SOL    HW283730   1.793  10.468  12.508
27300SOL     OW83731   6.916   0.728   4.551
27300SOL    HW183732   6.847   0.716   4.485
27300SOL    HW283733   6.916   0.822   4.570
27301SOL     OW83734   3.780   7.671   0.370
27301SOL    HW183735   3.779   7.765   0.350
27301SOL    HW283736   3.694   7.654   0.409
27302SOL     OW83737   8.741  13.911   9.723
27302SOL    HW183738   8.683  13.924   9.798
27302SOL    HW283739   8.708  13.832   9.680
27303SOL     OW83740   0.002  13.924   4.947
27303SOL    HW183741  14.870  13.934   4.853
27303SOL    HW283742   0.093  13.950   4.961
27304SOL     OW83743  12.721   0.031   6.355
27304SOL    HW183744  12.799   0.001   6.308
27304SOL    HW283745  12.657  14.842   6.342
27305SOL     OW83746   9.135   8.204   6.262
27305SOL    HW183747   9.203   8.271   6.266
27305SOL    HW283748   9.113   8.187   6.353
27306SOL     OW83749   1.295  10.052   5.745
27306SOL    HW183750   1.279   9.958   5.754
27306SOL    HW283751   1.305  10.066   5.650
27307SOL     OW83752  10.685   9.480   6.528
27307SOL    HW183753  10.618   9.459   6.592
27307SOL    HW283754  10.637   9.498   6.447
27308SOL     OW83755   4.384   6.691   9.536
27308SOL    HW183756   4.417   6.653   9.455
27308SOL    HW283757   4.297   6.654   9.547
27309SOL     OW83758  12.020   6.825   1.699
27309SOL    HW183759  11.962   6.850   1.627
27309SOL    HW283760  12.006   6.894   1.765
27310SOL     OW83761  11.835   7.297   8.768
27310SOL    HW183762  11.802   7.285   8.857
27310SOL    HW283763  11.784   7.235   8.715
27311SOL     OW83764  10.485   2.421   7.530
27311SOL    HW183765  10.481   2.337   7.576
27311SOL    HW283766  10.394   2.443   7.511
27312SOL     OW83767   2.324  10.870   4.904
27312SOL    HW183768   2.409  10.839   4.872
27312SOL    HW283769   2.282  10.792   4.940
27313SOL     OW83770   3.024   5.831   2.328
27313SOL    HW183771   2.952   5.894   2.332
27313SOL    HW283772   2.989   5.753   2.371
27314SOL     OW83773  11.232   6.755   5.528
27314SOL    HW183774  11.251   6.839   5.570
27314SOL    HW283775  11.190   6.703   5.597
27315SOL     OW83776   9.516   1.995   9.343
27315SOL    HW183777   9.485   2.076   9.383
27315SOL    HW283778   9.524   1.934   9.416
27316SOL     OW83779   3.550   8.875   8.935
27316SOL    HW183780   3.587   8.956   8.902
27316SOL    HW283781   3.527   8.825   8.857
27317SOL     OW83782   2.003  14.325   7.825
27317SOL    HW183783   1.954  14.244   7.828
27317SOL    HW283784   2.046  14.331   7.910
27318SOL     OW83785   9.914   7.487   8.078
27318SOL    HW183786   9.852   7.557   8.055
27318SOL    HW283787  10.000   7.528   8.069
27319SOL     OW83788  10.990   5.803   7.301
27319SOL    HW183789  10.942   5.881   7.272
27319SOL    HW283790  11.075   5.836   7.328
27320SOL     OW83791   5.466  13.337   3.907
27320SOL    HW183792   5.404  13.277   3.949
27320SOL    HW283793   5.414  13.414   3.886
27321SOL     OW83794  12.090  14.144  10.391
27321SOL    HW183795  11.998  14.161  10.410
27321SOL    HW283796  12.123  14.103  10.471
27322SOL     OW83797   0.858   9.583   7.767
27322SOL    HW183798   0.872   9.635   7.847
27322SOL    HW283799   0.902   9.632   7.698
27323SOL     OW83800  13.470  13.287   7.926
27323SOL    HW183801  13.539  13.349   7.905
27323SOL    HW283802  13.503  13.203   7.894
27324SOL     OW83803  12.073   9.768   0.663
27324SOL    HW183804  12.011   9.743   0.594
27324SOL    HW283805  12.021   9.768   0.743
27325SOL     OW83806   0.347   9.551  12.214
27325SOL    HW183807   0.441   9.564  12.200
27325SOL    HW283808   0.306   9.584  12.135
27326SOL     OW83809   6.119   0.370   4.049
27326SOL    HW183810   6.093   0.315   3.975
27326SOL    HW283811   6.037   0.397   4.090
27327SOL     OW83812  11.847   1.672   2.589
27327SOL    HW183813  11.789   1.642   2.518
27327SOL    HW283814  11.830   1.612   2.661
27328SOL     OW83815   9.449   9.652   7.322
27328SOL    HW183816   9.484   9.613   7.242
27328SOL    HW283817   9.527   9.670   7.375
27329SOL     OW83818   2.400  12.501   9.844
27329SOL    HW183819   2.351  12.444   9.784
27329SOL    HW283820   2.490  12.471   9.836
27330SOL     OW83821   6.619   8.909   6.646
27330SOL    HW183822   6.611   8.969   6.721
27330SOL    HW283823   6.533   8.911   6.605
27331SOL     OW83824   3.622  12.335  11.143
27331SOL    HW183825   3.709  12.352  11.179
27331SOL    HW283826   3.632  12.347  11.049
27332SOL     OW83827   9.117  11.839   7.445
27332SOL    HW183828   9.156  11.853   7.531
27332SOL    HW283829   9.054  11.910   7.434
27333SOL     OW83830   8.742   3.401  13.042
27333SOL    HW183831   8.723   3.429  12.953
27333SOL    HW283832   8.825   3.354  13.035
27334SOL     OW83833   5.292  13.299  11.944
27334SOL    HW183834   5.285  13.291  11.849
27334SOL    HW283835   5.361  13.364  11.957
27335SOL     OW83836   2.557  12.257  12.756
27335SOL    HW183837   2.631  12.310  12.726
27335SOL    HW283838   2.483  12.287  12.704
27336SOL     OW83839  11.089  10.414   7.364
27336SOL    HW183840  11.076  10.361   7.285
27336SOL    HW283841  11.007  10.461   7.375
27337SOL     OW83842   9.318  13.431   1.931
27337SOL    HW183843   9.224  13.446   1.941
27337SOL    HW283844   9.325  13.378   1.852
27338SOL     OW83845   4.988  13.891   7.925
27338SOL    HW183846   5.025  13.950   7.991
27338SOL    HW283847   4.958  13.949   7.855
27339SOL     OW83848  10.049   6.624   4.504
27339SOL    HW183849  10.081   6.657   4.587
27339SOL    HW283850  10.118   6.566   4.473
27340SOL     OW83851   8.000   4.944   4.862
27340SOL    HW183852   8.081   4.928   4.813
27340SOL    HW283853   8.025   5.007   4.930
27341SOL     OW83854  12.313   6.856  14.808
27341SOL    HW183855  12.338   6.771  14.773
27341SOL    HW283856  12.244   6.837  14.872
27342SOL     OW83857  10.517  14.052  13.132
27342SOL    HW183858  10.462  14.058  13.211
27342SOL    HW283859  10.459  14.078  13.061
27343SOL     OW83860   6.697  10.757   1.588
27343SOL    HW183861   6.700  10.732   1.680
27343SOL    HW283862   6.704  10.852   1.589
27344SOL     OW83863   4.246   8.983  14.674
27344SOL    HW183864   4.323   8.932  14.698
27344SOL    HW283865   4.194   8.924  14.620
27345SOL     OW83866   8.097   5.379   9.524
27345SOL    HW183867   8.143   5.410   9.603
27345SOL    HW283868   8.167   5.351   9.465
27346SOL     OW83869  11.163  12.390   4.528
27346SOL    HW183870  11.169  12.482   4.501
27346SOL    HW283871  11.122  12.394   4.614
27347SOL     OW83872   2.347   9.920   5.892
27347SOL    HW183873   2.348   9.825   5.875
27347SOL    HW283874   2.398   9.931   5.972
27348SOL     OW83875   4.636   5.932  11.434
27348SOL    HW183876   4.709   5.940  11.373
27348SOL    HW283877   4.671   5.961  11.518
27349SOL     OW83878   2.951   5.663   0.616
27349SOL    HW183879   2.991   5.728   0.673
27349SOL    HW283880   3.021   5.635   0.558
27350SOL     OW83881  13.345   6.537   7.884
27350SOL    HW183882  13.279   6.596   7.848
27350SOL    HW283883  13.368   6.576   7.969
27351SOL     OW83884   6.372   5.579   6.632
27351SOL    HW183885   6.355   5.525   6.555
27351SOL    HW283886   6.296   5.564   6.689
27352SOL     OW83887   9.731  14.317   0.649
27352SOL    HW183888   9.671  14.250   0.617
27352SOL    HW283889   9.704  14.332   0.740
27353SOL     OW83890   5.552  11.264   1.571
27353SOL    HW183891   5.556  11.191   1.510
27353SOL    HW283892   5.590  11.230   1.652
27354SOL     OW83893   2.530  12.173   6.810
27354SOL    HW183894   2.513  12.099   6.751
27354SOL    HW283895   2.607  12.216   6.774
27355SOL     OW83896   8.594   2.338   0.231
27355SOL    HW183897   8.582   2.433   0.222
27355SOL    HW283898   8.603   2.324   0.325
27356SOL     OW83899   9.109  12.788  11.800
27356SOL    HW183900   9.124  12.754  11.888
27356SOL    HW283901   9.197  12.803  11.765
27357SOL     OW83902   6.009   2.759  12.595
27357SOL    HW183903   6.071   2.787  12.662
27357SOL    HW283904   5.998   2.835  12.538
27358SOL     OW83905   7.046  14.476   1.537
27358SOL    HW183906   7.001  14.560   1.529
27358SOL    HW283907   6.986  14.421   1.587
27359SOL     OW83908   2.476  12.933   3.980
27359SOL    HW183909   2.507  12.977   4.059
27359SOL    HW283910   2.556  12.913   3.931
27360SOL     OW83911  13.668   2.992  11.105
27360SOL    HW183912  13.588   3.029  11.069
27360SOL    HW283913  13.684   2.913  11.054
27361SOL     OW83914  12.925   2.247   0.287
27361SOL    HW183915  12.989   2.301   0.241
27361SOL    HW283916  12.916   2.288   0.373
27362SOL     OW83917   6.232   6.860  14.793
27362SOL    HW183918   6.328   6.858  14.791
27362SOL    HW283919   6.206   6.824  14.708
27363SOL     OW83920   2.132  13.711   3.105
27363SOL    HW183921   2.061  13.686   3.045
27363SOL    HW283922   2.094  13.777   3.162
27364SOL     OW83923   0.224   0.138   7.145
27364SOL    HW183924   0.318   0.124   7.153
27364SOL    HW283925   0.204   0.114   7.054
27365SOL     OW83926   3.259   7.690  12.586
27365SOL    HW183927   3.307   7.751  12.530
27365SOL    HW283928   3.322   7.621  12.606
27366SOL     OW83929   5.737  12.201   7.889
27366SOL    HW183930   5.757  12.185   7.797
27366SOL    HW283931   5.679  12.130   7.914
27367SOL     OW83932   7.421  12.888   2.093
27367SOL    HW183933   7.347  12.924   2.043
27367SOL    HW283934   7.380  12.845   2.168
27368SOL     OW83935  11.763   7.106   8.002
27368SOL    HW183936  11.815   7.184   8.022
27368SOL    HW283937  11.787   7.085   7.911
27369SOL     OW83938   4.491   8.592   5.045
27369SOL    HW183939   4.472   8.624   4.957
27369SOL    HW283940   4.584   8.612   5.058
27370SOL     OW83941  13.585   9.825   9.087
27370SOL    HW183942  13.646   9.764   9.129
27370SOL    HW283943  13.623   9.912   9.104
27371SOL     OW83944   0.310   5.670   6.132
27371SOL    HW183945   0.243   5.602   6.138
27371SOL    HW283946   0.264   5.748   6.101
27372SOL     OW83947   4.430   0.385   3.503
27372SOL    HW183948   4.458   0.301   3.468
27372SOL    HW283949   4.496   0.447   3.473
27373SOL     OW83950   4.360   6.281   0.668
27373SOL    HW183951   4.428   6.281   0.735
27373SOL    HW283952   4.372   6.364   0.622
27374SOL     OW83953  10.416   2.284  10.263
27374SOL    HW183954  10.438   2.223  10.193
27374SOL    HW283955  10.450   2.243  10.342
27375SOL     OW83956  12.338  12.847   3.336
27375SOL    HW183957  12.343  12.788   3.261
27375SOL    HW283958  12.244  12.857   3.353
27376SOL     OW83959  13.513  12.420   1.508
27376SOL    HW183960  13.515  12.357   1.579
27376SOL    HW283961  13.604  12.451   1.501
27377SOL     OW83962   7.059  10.001   0.531
27377SOL    HW183963   7.136  10.044   0.570
27377SOL    HW283964   7.092   9.918   0.499
27378SOL     OW83965   1.162   7.318   4.172
27378SOL    HW183966   1.074   7.299   4.203
27378SOL    HW283967   1.181   7.406   4.206
27379SOL     OW83968   8.954  14.471   7.645
27379SOL    HW183969   8.931  14.381   7.666
27379SOL    HW283970   8.914  14.488   7.560
27380SOL     OW83971  12.904  14.836  13.394
27380SOL    HW183972  12.857   0.038  13.389
27380SOL    HW283973  12.879  14.791  13.313
27381SOL     OW83974  14.835  13.683   0.576
27381SOL    HW183975   0.009  13.635   0.637
27381SOL    HW283976  14.852  13.642   0.491
27382SOL     OW83977  14.044  11.131   3.332
27382SOL    HW183978  13.986  11.124   3.408
27382SOL    HW283979  14.067  11.040   3.312
27383SOL     OW83980   6.113  14.651   8.498
27383SOL    HW183981   6.171  14.692   8.434
27383SOL    HW283982   6.084  14.723   8.554
27384SOL     OW83983   5.779   6.472   0.781
27384SOL    HW183984   5.829   6.415   0.722
27384SOL    HW283985   5.688   6.462   0.753
27385SOL     OW83986   6.216   8.656   1.128
27385SOL    HW183987   6.222   8.717   1.055
27385SOL    HW283988   6.236   8.571   1.090
27386SOL     OW83989   7.365   3.847   6.591
27386SOL    HW183990   7.339   3.756   6.595
27386SOL    HW283991   7.329   3.880   6.509
27387SOL     OW83992   3.467   5.642  12.723
27387SOL    HW183993   3.507   5.594  12.796
27387SOL    HW283994   3.418   5.575  12.675
27388SOL     OW83995   3.951   6.759   6.241
27388SOL    HW183996   3.919   6.725   6.324
27388SOL    HW283997   4.046   6.763   6.250
27389SOL     OW83998  12.512   2.942  10.216
27389SOL    HW183999  12.537   2.911  10.303
27389SOL    HW284000  12.583   2.912  10.159
27390SOL     OW84001   1.587   0.886  11.699
27390SOL    HW184002   1.615   0.959  11.644
27390SOL    HW284003   1.662   0.869  11.756
27391SOL     OW84004  13.120  11.937   0.073
27391SOL    HW184005  13.074  12.011   0.034
27391SOL    HW284006  13.205  11.935   0.028
27392SOL     OW84007  11.988   0.209   3.409
27392SOL    HW184008  12.002   0.304   3.410
27392SOL    HW284009  12.069   0.173   3.447
27393SOL     OW84010  12.102   7.261  14.466
27393SOL    HW184011  12.057   7.271  14.382
27393SOL    HW284012  12.055   7.318  14.526
27394SOL     OW84013   5.599  14.452   6.649
27394SOL    HW184014   5.519  14.475   6.696
27394SOL    HW284015   5.569  14.418   6.564
27395SOL     OW84016  12.350   1.104  13.126
27395SOL    HW184017  12.289   1.032  13.109
27395SOL    HW284018  12.330   1.133  13.215
27396SOL     OW84019   4.766   5.289   6.315
27396SOL    HW184020   4.778   5.238   6.395
27396SOL    HW284021   4.853   5.296   6.277
27397SOL     OW84022   7.296   6.196  11.378
27397SOL    HW184023   7.286   6.125  11.314
27397SOL    HW284024   7.390   6.200  11.396
27398SOL     OW84025  11.384   7.913   1.472
27398SOL    HW184026  11.319   7.858   1.429
27398SOL    HW284027  11.337   7.958   1.542
27399SOL     OW84028   8.758   2.044   6.795
27399SOL    HW184029   8.701   1.993   6.737
27399SOL    HW284030   8.844   2.040   6.753
27400SOL     OW84031   5.506  11.079  10.528
27400SOL    HW184032   5.591  11.073  10.572
27400SOL    HW284033   5.522  11.136  10.453
27401SOL     OW84034   1.582   0.120   8.058
27401SOL    HW184035   1.643   0.186   8.093
27401SOL    HW284036   1.580   0.136   7.964
27402SOL     OW84037   0.655   3.558   4.488
27402SOL    HW184038   0.716   3.545   4.416
27402SOL    HW284039   0.685   3.639   4.530
27403SOL     OW84040   8.061   0.731   8.081
27403SOL    HW184041   8.151   0.747   8.051
27403SOL    HW284042   8.018   0.816   8.073
27404SOL     OW84043   0.710   8.738   2.598
27404SOL    HW184044   0.689   8.814   2.545
27404SOL    HW284045   0.805   8.737   2.602
27405SOL     OW84046  10.737  10.641   9.987
27405SOL    HW184047  10.805  10.683   9.934
27405SOL    HW284048  10.709  10.566   9.934
27406SOL     OW84049  10.762   5.371   8.779
27406SOL    HW184050  10.686   5.334   8.824
27406SOL    HW284051  10.790   5.303   8.718
27407SOL     OW84052  11.237   4.472   4.946
27407SOL    HW184053  11.172   4.519   4.894
27407SOL    HW284054  11.190   4.446   5.025
27408SOL     OW84055   6.486   8.188  10.050
27408SOL    HW184056   6.474   8.129   9.976
27408SOL    HW284057   6.572   8.228  10.035
27409SOL     OW84058  13.607   4.753   0.482
27409SOL    HW184059  13.533   4.739   0.541
27409SOL    HW284060  13.673   4.690   0.512
27410SOL     OW84061  11.768   3.481   2.043
27410SOL    HW184062  11.768   3.546   1.973
27410SOL    HW284063  11.818   3.407   2.007
27411SOL     OW84064   1.513   5.171   2.563
27411SOL    HW184065   1.446   5.239   2.574
27411SOL    HW284066   1.463   5.090   2.550
27412SOL     OW84067  11.667   3.444   3.768
27412SOL    HW184068  11.733   3.510   3.746
27412SOL    HW284069  11.584   3.491   3.771
27413SOL     OW84070   4.642  11.577   3.247
27413SOL    HW184071   4.724  11.536   3.217
27413SOL    HW284072   4.582  11.504   3.258
27414SOL     OW84073  14.302  12.892   3.036
27414SOL    HW184074  14.288  12.950   2.961
27414SOL    HW284075  14.389  12.855   3.021
27415SOL     OW84076  11.432  11.309  10.733
27415SOL    HW184077  11.481  11.390  10.720
27415SOL    HW284078  11.470  11.248  10.670
27416SOL     OW84079   5.920  14.266   7.175
27416SOL    HW184080   5.914  14.245   7.268
27416SOL    HW284081   5.872  14.348   7.165
27417SOL     OW84082   5.243   0.640   3.173
27417SOL    HW184083   5.232   0.684   3.258
27417SOL    HW284084   5.188   0.690   3.113
27418SOL     OW84085  12.172   2.679   9.230
27418SOL    HW184086  12.164   2.595   9.275
27418SOL    HW284087  12.178   2.743   9.300
27419SOL     OW84088   8.544  14.018  10.497
27419SOL    HW184089   8.617  14.053  10.445
27419SOL    HW284090   8.484  14.092  10.506
27420SOL     OW84091   2.262  10.084   7.659
27420SOL    HW184092   2.260  10.033   7.740
27420SOL    HW284093   2.219  10.029   7.594
27421SOL     OW84094  10.167   9.728   2.088
27421SOL    HW184095  10.180   9.635   2.109
27421SOL    HW284096  10.159   9.771   2.173
27422SOL     OW84097   1.369   4.443   0.234
27422SOL    HW184098   1.380   4.537   0.217
27422SOL    HW284099   1.445   4.419   0.288
27423SOL     OW84100   4.991  13.399   1.367
27423SOL    HW184101   5.045  13.320   1.374
27423SOL    HW284102   5.027  13.458   1.434
27424SOL     OW84103   0.188   6.371  13.846
27424SOL    HW184104   0.278   6.364  13.814
27424SOL    HW284105   0.168   6.282  13.877
27425SOL     OW84106   2.520   2.773  14.096
27425SOL    HW184107   2.588   2.809  14.040
27425SOL    HW284108   2.438   2.799  14.054
27426SOL     OW84109   4.167   4.153   4.362
27426SOL    HW184110   4.184   4.192   4.277
27426SOL    HW284111   4.220   4.203   4.423
27427SOL     OW84112  13.811   2.227   9.853
27427SOL    HW184113  13.776   2.290   9.916
27427SOL    HW284114  13.812   2.143   9.900
27428SOL     OW84115  11.632  11.516   4.066
27428SOL    HW184116  11.622  11.537   4.159
27428SOL    HW284117  11.563  11.452   4.049
27429SOL     OW84118   9.726   4.411   7.365
27429SOL    HW184119   9.709   4.363   7.284
27429SOL    HW284120   9.680   4.362   7.433
27430SOL     OW84121   9.445  14.702   5.806
27430SOL    HW184122   9.416  14.770   5.746
27430SOL    HW284123   9.516  14.743   5.856
27431SOL     OW84124   8.775   6.157   7.697
27431SOL    HW184125   8.737   6.136   7.783
27431SOL    HW284126   8.869   6.152   7.711
27432SOL     OW84127   3.057  12.016   7.546
27432SOL    HW184128   2.980  11.974   7.583
27432SOL    HW284129   3.106  12.047   7.622
27433SOL     OW84130   6.967   4.270  14.664
27433SOL    HW184131   7.013   4.189  14.687
27433SOL    HW284132   6.970   4.322  14.744
27434SOL     OW84133   1.017   7.314  12.351
27434SOL    HW184134   0.948   7.249  12.346
27434SOL    HW284135   1.071   7.286  12.426
27435SOL     OW84136  13.890  14.683  13.483
27435SOL    HW184137  13.978  14.691  13.520
27435SOL    HW284138  13.901  14.704  13.391
27436SOL     OW84139   4.300   2.728  12.168
27436SOL    HW184140   4.255   2.653  12.129
27436SOL    HW284141   4.301   2.795  12.099
27437SOL     OW84142  13.707  10.711   4.536
27437SOL    HW184143  13.681  10.761   4.459
27437SOL    HW284144  13.798  10.684   4.518
27438SOL     OW84145  12.487  11.805   6.369
27438SOL    HW184146  12.455  11.754   6.443
27438SOL    HW284147  12.562  11.854   6.404
27439SOL     OW84148   4.222   7.669  10.366
27439SOL    HW184149   4.225   7.612  10.443
27439SOL    HW284150   4.295   7.641  10.312
27440SOL     OW84151   3.352  13.922  11.171
27440SOL    HW184152   3.370  14.016  11.179
27440SOL    HW284153   3.433  13.884  11.138
27441SOL     OW84154   3.102   5.989   9.457
27441SOL    HW184155   3.196   6.003   9.445
27441SOL    HW284156   3.061   6.066   9.419
27442SOL     OW84157   3.619  14.289   5.018
27442SOL    HW184158   3.703  14.253   4.991
27442SOL    HW284159   3.603  14.362   4.958
27443SOL     OW84160  12.053   5.077   5.255
27443SOL    HW184161  11.990   5.010   5.283
27443SOL    HW284162  12.097   5.104   5.336
27444SOL     OW84163   9.539   1.698  13.866
27444SOL    HW184164   9.583   1.690  13.951
27444SOL    HW284165   9.458   1.649  13.876
27445SOL     OW84166   2.092   4.206  12.185
27445SOL    HW184167   2.086   4.251  12.101
27445SOL    HW284168   2.151   4.261  12.238
27446SOL     OW84169  10.600  10.361   3.423
27446SOL    HW184170  10.672  10.384   3.482
27446SOL    HW284171  10.529  10.420   3.447
27447SOL     OW84172   5.335   0.126  13.108
27447SOL    HW184173   5.260   0.175  13.073
27447SOL    HW284174   5.410   0.183  13.092
27448SOL     OW84175  11.751   7.687   6.689
27448SOL    HW184176  11.681   7.633   6.727
27448SOL    HW284177  11.787   7.634   6.619
27449SOL     OW84178   0.035  13.185   7.358
27449SOL    HW184179  14.855  13.147   7.420
27449SOL    HW284180  14.862  13.220   7.287
27450SOL     OW84181   4.616  14.557   2.031
27450SOL    HW184182   4.527  14.538   2.060
27450SOL    HW284183   4.624  14.652   2.038
27451SOL     OW84184  14.521   8.938   9.169
27451SOL    HW184185  14.501   8.918   9.077
27451SOL    HW284186  14.552   9.029   9.166
27452SOL     OW84187   7.796   1.174  10.952
27452SOL    HW184188   7.891   1.186  10.957
27452SOL    HW284189   7.783   1.080  10.960
27453SOL     OW84190  13.457   1.134  10.126
27453SOL    HW184191  13.382   1.077  10.108
27453SOL    HW284192  13.425   1.196  10.192
27454SOL     OW84193   0.670   8.573   5.231
27454SOL    HW184194   0.650   8.499   5.174
27454SOL    HW284195   0.740   8.543   5.288
27455SOL     OW84196   1.040  11.842  14.352
27455SOL    HW184197   1.106  11.843  14.421
27455SOL    HW284198   1.043  11.930  14.314
27456SOL     OW84199   2.025  13.005  13.344
27456SOL    HW184200   2.050  12.918  13.312
27456SOL    HW284201   2.083  13.065  13.298
27457SOL     OW84202   5.434  10.984  11.180
27457SOL    HW184203   5.421  10.960  11.272
27457SOL    HW284204   5.517  11.032  11.179
27458SOL     OW84205  10.488   3.189   4.806
27458SOL    HW184206  10.515   3.265   4.857
27458SOL    HW284207  10.556   3.124   4.821
27459SOL     OW84208   8.287   2.355   2.256
27459SOL    HW184209   8.316   2.279   2.305
27459SOL    HW284210   8.335   2.351   2.174
27460SOL     OW84211   8.818  14.218   7.932
27460SOL    HW184212   8.911  14.239   7.929
27460SOL    HW284213   8.778  14.276   7.867
27461SOL     OW84214   8.878   6.435  12.376
27461SOL    HW184215   8.948   6.378  12.408
27461SOL    HW284216   8.805   6.418  12.437
27462SOL     OW84217   1.204  10.171   3.037
27462SOL    HW184218   1.151  10.240   3.077
27462SOL    HW284219   1.285  10.171   3.087
27463SOL     OW84220  11.137  12.056   0.591
27463SOL    HW184221  11.169  12.074   0.680
27463SOL    HW284222  11.042  12.066   0.597
27464SOL     OW84223   9.161   0.295  14.672
27464SOL    HW184224   9.197   0.207  14.685
27464SOL    HW284225   9.156   0.305  14.577
27465SOL     OW84226  13.977   1.815  12.469
27465SOL    HW184227  13.983   1.786  12.560
27465SOL    HW284228  14.067   1.816  12.438
27466SOL     OW84229  13.639   2.147  11.427
27466SOL    HW184230  13.668   2.107  11.509
27466SOL    HW284231  13.671   2.237  11.433
27467SOL     OW84232   9.900   4.673  13.552
27467SOL    HW184233   9.916   4.583  13.523
27467SOL    HW284234   9.900   4.724  13.470
27468SOL     OW84235   7.685  13.564   2.433
27468SOL    HW184236   7.641  13.523   2.358
27468SOL    HW284237   7.618  13.566   2.502
27469SOL     OW84238   0.843   9.882  14.585
27469SOL    HW184239   0.800   9.905  14.668
27469SOL    HW284240   0.889   9.800  14.603
27470SOL     OW84241   8.518   9.120   5.084
27470SOL    HW184242   8.460   9.048   5.058
27470SOL    HW284243   8.468   9.199   5.065
27471SOL     OW84244   6.161   7.127   2.266
27471SOL    HW184245   6.206   7.153   2.347
27471SOL    HW284246   6.231   7.097   2.208
27472SOL     OW84247   1.330   8.942   8.949
27472SOL    HW184248   1.328   8.850   8.973
27472SOL    HW284249   1.238   8.963   8.929
27473SOL     OW84250   8.839  12.459  10.088
27473SOL    HW184251   8.909  12.521  10.108
27473SOL    HW284252   8.840  12.398  10.161
27474SOL     OW84253  14.875   7.677  13.013
27474SOL    HW184254  14.782   7.678  12.992
27474SOL    HW284255   0.036   7.665  12.928
27475SOL     OW84256  11.679   7.034   4.831
27475SOL    HW184257  11.734   6.957   4.819
27475SOL    HW284258  11.738   7.108   4.818
27476SOL     OW84259   1.482   9.698  11.400
27476SOL    HW184260   1.560   9.735  11.360
27476SOL    HW284261   1.511   9.613  11.433
27477SOL     OW84262   1.068   4.971  11.381
27477SOL    HW184263   1.137   5.001  11.322
27477SOL    HW284264   0.996   5.032  11.366
27478SOL     OW84265  11.668  10.782   4.805
27478SOL    HW184266  11.600  10.715   4.801
27478SOL    HW284267  11.724  10.764   4.730
27479SOL     OW84268   9.372   6.963  13.547
27479SOL    HW184269   9.449   6.988  13.496
27479SOL    HW284270   9.380   7.011  13.629
27480SOL     OW84271   7.972   9.368   0.699
27480SOL    HW184272   7.960   9.348   0.792
27480SOL    HW284273   7.975   9.464   0.696
27481SOL     OW84274   0.491   6.500   3.737
27481SOL    HW184275   0.561   6.523   3.676
27481SOL    HW284276   0.481   6.405   3.727
27482SOL     OW84277   6.889   3.253   3.301
27482SOL    HW184278   6.831   3.182   3.329
27482SOL    HW284279   6.871   3.324   3.363
27483SOL     OW84280   8.357   1.759  11.039
27483SOL    HW184281   8.326   1.822  11.103
27483SOL    HW284282   8.382   1.682  11.090
27484SOL     OW84283  13.287   8.898  11.896
27484SOL    HW184284  13.255   8.821  11.848
27484SOL    HW284285  13.209   8.951  11.910
27485SOL     OW84286  10.755   0.680   8.407
27485SOL    HW184287  10.808   0.619   8.356
27485SOL    HW284288  10.667   0.673   8.370
27486SOL     OW84289   5.757  12.092   8.548
27486SOL    HW184290   5.777  11.998   8.550
27486SOL    HW284291   5.795  12.126   8.629
27487SOL     OW84292  12.237  10.439   8.961
27487SOL    HW184293  12.289  10.499   9.014
27487SOL    HW284294  12.206  10.373   9.023
27488SOL     OW84295  11.455  14.579   5.356
27488SOL    HW184296  11.527  14.515   5.354
27488SOL    HW284297  11.464  14.622   5.441
27489SOL     OW84298  11.219  10.041  12.855
27489SOL    HW184299  11.220  10.036  12.950
27489SOL    HW284300  11.195   9.953  12.827
27490SOL     OW84301   3.291   1.572   2.071
27490SOL    HW184302   3.232   1.534   2.136
27490SOL    HW284303   3.290   1.666   2.088
27491SOL     OW84304   6.416   5.767   6.354
27491SOL    HW184305   6.494   5.794   6.305
27491SOL    HW284306   6.425   5.809   6.439
27492SOL     OW84307   6.484   8.858   0.585
27492SOL    HW184308   6.514   8.788   0.527
27492SOL    HW284309   6.565   8.905   0.609
27493SOL     OW84310   3.723   9.412  13.900
27493SOL    HW184311   3.722   9.501  13.866
27493SOL    HW284312   3.789   9.367  13.848
27494SOL     OW84313  11.091   4.358  13.538
27494SOL    HW184314  11.020   4.341  13.601
27494SOL    HW284315  11.109   4.273  13.499
27495SOL     OW84316  12.824   9.599  13.536
27495SOL    HW184317  12.760   9.577  13.604
27495SOL    HW284318  12.905   9.613  13.584
27496SOL     OW84319   4.662   0.562   3.517
27496SOL    HW184320   4.690   0.489   3.573
27496SOL    HW284321   4.613   0.619   3.576
27497SOL     OW84322   1.985   7.363   9.609
27497SOL    HW184323   2.032   7.355   9.691
27497SOL    HW284324   1.894   7.342   9.631
27498SOL     OW84325   0.536   6.275   7.530
27498SOL    HW184326   0.610   6.218   7.550
27498SOL    HW284327   0.519   6.321   7.611
27499SOL     OW84328  11.478   1.588  14.093
27499SOL    HW184329  11.463   1.650  14.022
27499SOL    HW284330  11.537   1.633  14.153
27500SOL     OW84331  10.160   9.991   1.990
27500SOL    HW184332  10.173   9.897   2.000
27500SOL    HW284333  10.225  10.018   1.924
27501SOL     OW84334   6.838   8.677  11.854
27501SOL    HW184335   6.886   8.737  11.797
27501SOL    HW284336   6.834   8.722  11.938
27502SOL     OW84337   0.978   7.471  11.201
27502SOL    HW184338   1.019   7.406  11.144
27502SOL    HW284339   0.905   7.506  11.150
27503SOL     OW84340   1.199   2.758  10.784
27503SOL    HW184341   1.203   2.847  10.750
27503SOL    HW284342   1.281   2.746  10.831
27504SOL     OW84343   0.847   7.640  12.391
27504SOL    HW184344   0.891   7.607  12.313
27504SOL    HW284345   0.817   7.562  12.436
27505SOL     OW84346   0.018   5.032   6.720
27505SOL    HW184347   0.108   5.016   6.694
27505SOL    HW284348   0.023   5.102   6.785
27506SOL     OW84349   5.201  13.340  13.724
27506SOL    HW184350   5.194  13.315  13.631
27506SOL    HW284351   5.288  13.380  13.731
27507SOL     OW84352   2.821  12.619   1.671
27507SOL    HW184353   2.875  12.559   1.723
27507SOL    HW284354   2.825  12.702   1.718
27508SOL     OW84355   8.477  13.758   2.348
27508SOL    HW184356   8.506  13.824   2.285
27508SOL    HW284357   8.467  13.678   2.297
27509SOL     OW84358   9.552   9.275   5.774
27509SOL    HW184359   9.610   9.198   5.775
27509SOL    HW284360   9.521   9.283   5.863
27510SOL     OW84361   3.387   4.071   4.196
27510SOL    HW184362   3.463   4.044   4.248
27510SOL    HW284363   3.352   3.989   4.160
27511SOL     OW84364   0.311  10.832  11.783
27511SOL    HW184365   0.287  10.741  11.770
27511SOL    HW284366   0.274  10.879  11.709
27512SOL     OW84367   9.837  12.163   2.530
27512SOL    HW184368   9.751  12.205   2.526
27512SOL    HW284369   9.862  12.167   2.622
27513SOL     OW84370  11.153   5.207   7.671
27513SOL    HW184371  11.121   5.239   7.586
27513SOL    HW284372  11.206   5.279   7.704
27514SOL     OW84373  13.406  12.553   6.414
27514SOL    HW184374  13.429  12.518   6.328
27514SOL    HW284375  13.315  12.527   6.427
27515SOL     OW84376  10.564  11.509   5.146
27515SOL    HW184377  10.608  11.546   5.222
27515SOL    HW284378  10.500  11.575   5.120
27516SOL     OW84379   2.932   6.934   6.436
27516SOL    HW184380   2.929   7.011   6.492
27516SOL    HW284381   3.024   6.911   6.430
27517SOL     OW84382   9.101  14.377   8.032
27517SOL    HW184383   9.123  14.338   8.116
27517SOL    HW284384   9.182  14.417   8.002
27518SOL     OW84385   8.389  13.603   6.728
27518SOL    HW184386   8.406  13.559   6.811
27518SOL    HW284387   8.393  13.696   6.749
27519SOL     OW84388   6.085  12.735  11.933
27519SOL    HW184389   6.025  12.662  11.919
27519SOL    HW284390   6.028  12.807  11.960
27520SOL     OW84391   1.841   0.264  12.300
27520SOL    HW184392   1.867   0.199  12.235
27520SOL    HW284393   1.852   0.220  12.384
27521SOL     OW84394   6.536   4.755   3.405
27521SOL    HW184395   6.493   4.800   3.478
27521SOL    HW284396   6.500   4.667   3.406
27522SOL     OW84397  11.978   4.512   6.564
27522SOL    HW184398  12.031   4.466   6.630
27522SOL    HW284399  12.042   4.560   6.512
27523SOL     OW84400   5.082   7.923   3.396
27523SOL    HW184401   5.013   7.869   3.357
27523SOL    HW284402   5.096   7.884   3.483
27524SOL     OW84403   3.202  11.830   2.051
27524SOL    HW184404   3.243  11.862   2.131
27524SOL    HW284405   3.200  11.735   2.060
27525SOL     OW84406   8.467   8.168   1.925
27525SOL    HW184407   8.494   8.102   1.862
27525SOL    HW284408   8.384   8.135   1.961
27526SOL     OW84409   8.488   2.833   8.984
27526SOL    HW184410   8.515   2.921   8.955
27526SOL    HW284411   8.445   2.848   9.068
27527SOL     OW84412   1.139   3.834  14.586
27527SOL    HW184413   1.050   3.870  14.593
27527SOL    HW284414   1.130   3.742  14.612
27528SOL     OW84415   6.619   1.639   7.724
27528SOL    HW184416   6.681   1.712   7.719
27528SOL    HW284417   6.597   1.619   7.633
27529SOL     OW84418  11.054   4.965   7.634
27529SOL    HW184419  11.002   4.987   7.557
27529SOL    HW284420  11.088   5.049   7.665
27530SOL     OW84421   9.053   7.739   1.833
27530SOL    HW184422   9.097   7.693   1.761
27530SOL    HW284423   9.106   7.818   1.846
27531SOL     OW84424   6.695   2.511   1.413
27531SOL    HW184425   6.628   2.578   1.417
27531SOL    HW284426   6.692   2.478   1.323
27532SOL     OW84427   6.976   8.927  11.800
27532SOL    HW184428   6.994   8.943  11.707
27532SOL    HW284429   7.056   8.887  11.833
27533SOL     OW84430   2.426   6.377  14.561
27533SOL    HW184431   2.463   6.315  14.499
27533SOL    HW284432   2.429   6.332  14.646
27534SOL     OW84433   0.859   1.432   8.794
27534SOL    HW184434   0.822   1.362   8.740
27534SOL    HW284435   0.790   1.454   8.856
27535SOL     OW84436   4.673  12.641   6.902
27535SOL    HW184437   4.598  12.604   6.857
27535SOL    HW284438   4.748  12.589   6.872
27536SOL     OW84439   3.178  13.156   6.812
27536SOL    HW184440   3.088  13.188   6.802
27536SOL    HW284441   3.228  13.203   6.746
27537SOL     OW84442  12.434  11.391   0.781
27537SOL    HW184443  12.456  11.416   0.871
27537SOL    HW284444  12.457  11.298   0.775
27538SOL     OW84445  11.217  11.267  13.914
27538SOL    HW184446  11.253  11.180  13.928
27538SOL    HW284447  11.293  11.323  13.899
27539SOL     OW84448   4.720   6.576   4.008
27539SOL    HW184449   4.721   6.481   4.001
27539SOL    HW284450   4.709   6.593   4.102
27540SOL     OW84451   4.536   0.543   7.680
27540SOL    HW184452   4.559   0.461   7.635
27540SOL    HW284453   4.470   0.517   7.744
27541SOL     OW84454   4.270  13.323   3.209
27541SOL    HW184455   4.352  13.317   3.258
27541SOL    HW284456   4.296  13.308   3.118
27542SOL     OW84457   9.725   0.059   8.289
27542SOL    HW184458   9.671   0.063   8.210
27542SOL    HW284459   9.780  14.863   8.277
27543SOL     OW84460  13.372   3.097  12.512
27543SOL    HW184461  13.278   3.090  12.494
27543SOL    HW284462  13.381   3.070  12.604
27544SOL     OW84463   3.293  12.167   5.697
27544SOL    HW184464   3.305  12.250   5.743
27544SOL    HW284465   3.333  12.182   5.611
27545SOL     OW84466   9.883   0.573   5.914
27545SOL    HW184467   9.863   0.496   5.967
27545SOL    HW284468   9.975   0.590   5.930
27546SOL     OW84469   7.296  12.562   1.997
27546SOL    HW184470   7.352  12.599   1.929
27546SOL    HW284471   7.232  12.630   2.015
27547SOL     OW84472  11.603   3.066   9.372
27547SOL    HW184473  11.588   3.160   9.375
27547SOL    HW284474  11.563   3.033   9.454
27548SOL     OW84475   6.206   6.006   8.119
27548SOL    HW184476   6.140   5.950   8.159
27548SOL    HW284477   6.155   6.072   8.071
27549SOL     OW84478   3.451   1.602   8.323
27549SOL    HW184479   3.429   1.578   8.414
27549SOL    HW284480   3.412   1.689   8.311
27550SOL     OW84481  11.600   0.923  10.499
27550SOL    HW184482  11.661   0.850  10.491
27550SOL    HW284483  11.519   0.891  10.459
27551SOL     OW84484  13.642   8.587  13.674
27551SOL    HW184485  13.698   8.550  13.742
27551SOL    HW284486  13.700   8.643  13.622
27552SOL     OW84487   7.926   8.493   2.555
27552SOL    HW184488   7.914   8.468   2.463
27552SOL    HW284489   7.992   8.432   2.588
27553SOL     OW84490   3.538  12.599   2.174
27553SOL    HW184491   3.519  12.590   2.267
27553SOL    HW284492   3.589  12.679   2.167
27554SOL     OW84493  12.548   6.069  10.338
27554SOL    HW184494  12.605   6.032  10.404
27554SOL    HW284495  12.498   6.137  10.384
27555SOL     OW84496  12.256   4.927   0.234
27555SOL    HW184497  12.269   4.868   0.308
27555SOL    HW284498  12.162   4.946   0.235
27556SOL     OW84499   1.736   3.188   4.497
27556SOL    HW184500   1.793   3.122   4.535
27556SOL    HW284501   1.790   3.233   4.433
27557SOL     OW84502   9.873   3.415   2.355
27557SOL    HW184503   9.924   3.343   2.393
27557SOL    HW284504   9.894   3.411   2.261
27558SOL     OW84505  13.152   4.405   4.871
27558SOL    HW184506  13.085   4.386   4.937
27558SOL    HW284507  13.233   4.372   4.908
27559SOL     OW84508   7.892   1.196   8.730
27559SOL    HW184509   7.876   1.107   8.762
27559SOL    HW284510   7.985   1.211   8.748
27560SOL     OW84511   0.083  11.073   7.447
27560SOL    HW184512   0.050  11.003   7.503
27560SOL    HW284513   0.030  11.149   7.470
27561SOL     OW84514   7.607   4.135   9.143
27561SOL    HW184515   7.574   4.221   9.169
27561SOL    HW284516   7.564   4.073   9.202
27562SOL     OW84517   2.812  10.995   7.113
27562SOL    HW184518   2.887  10.989   7.173
27562SOL    HW284519   2.739  11.021   7.169
27563SOL     OW84520   0.738   2.015  14.094
27563SOL    HW184521   0.833   2.015  14.093
27563SOL    HW284522   0.712   1.975  14.011
27564SOL     OW84523  13.194  14.692   7.372
27564SOL    HW184524  13.178  14.737   7.454
27564SOL    HW284525  13.289  14.690   7.363
27565SOL     OW84526  11.676   5.139   2.232
27565SOL    HW184527  11.701   5.184   2.312
27565SOL    HW284528  11.582   5.155   2.224
27566SOL     OW84529  12.085   0.172   6.045
27566SOL    HW184530  12.085   0.135   6.134
27566SOL    HW284531  12.172   0.151   6.011
27567SOL     OW84532   9.362  12.173  13.489
27567SOL    HW184533   9.325  12.085  13.475
27567SOL    HW284534   9.431  12.159  13.554
27568SOL     OW84535   5.742   3.455  14.506
27568SOL    HW184536   5.755   3.476  14.413
27568SOL    HW284537   5.735   3.540  14.549
27569SOL     OW84538  13.395  10.497   5.852
27569SOL    HW184539  13.395  10.579   5.803
27569SOL    HW284540  13.312  10.495   5.898
27570SOL     OW84541  10.029  11.058   3.076
27570SOL    HW184542   9.962  11.093   3.017
27570SOL    HW284543  10.097  11.024   3.018
27571SOL     OW84544  11.799   5.040  12.059
27571SOL    HW184545  11.792   4.966  12.118
27571SOL    HW284546  11.883   5.027  12.014
27572SOL     OW84547  13.165  10.516  12.163
27572SOL    HW184548  13.076  10.517  12.128
27572SOL    HW284549  13.179  10.426  12.191
27573SOL     OW84550   5.621   2.828   1.711
27573SOL    HW184551   5.702   2.789   1.746
27573SOL    HW284552   5.634   2.827   1.616
27574SOL     OW84553   1.822   5.335   7.721
27574SOL    HW184554   1.851   5.251   7.756
27574SOL    HW284555   1.803   5.388   7.798
27575SOL     OW84556   3.554   4.718   5.294
27575SOL    HW184557   3.504   4.687   5.370
27575SOL    HW284558   3.488   4.742   5.230
27576SOL     OW84559   4.953   4.581  10.967
27576SOL    HW184560   4.994   4.510  11.017
27576SOL    HW284561   5.024   4.616  10.913
27577SOL     OW84562  13.083  14.229   7.366
27577SOL    HW184563  13.162  14.270   7.401
27577SOL    HW284564  13.115  14.152   7.319
27578SOL     OW84565   4.791   0.966   7.487
27578SOL    HW184566   4.764   0.906   7.418
27578SOL    HW284567   4.738   1.044   7.473
27579SOL     OW84568   9.258  12.629   0.199
27579SOL    HW184569   9.217  12.594   0.277
27579SOL    HW284570   9.199  12.698   0.169
27580SOL     OW84571  12.779   8.733   9.975
27580SOL    HW184572  12.798   8.755  10.066
27580SOL    HW284573  12.708   8.792   9.950
27581SOL     OW84574  10.869  12.252   7.236
27581SOL    HW184575  10.784  12.254   7.281
27581SOL    HW284576  10.907  12.168   7.262
27582SOL     OW84577  11.849  11.316  13.752
27582SOL    HW184578  11.875  11.270  13.832
27582SOL    HW284579  11.928  11.362  13.724
27583SOL     OW84580   6.105   1.323  10.497
27583SOL    HW184581   6.041   1.388  10.528
27583SOL    HW284582   6.183   1.375  10.475
27584SOL     OW84583  13.505   6.480   7.018
27584SOL    HW184584  13.524   6.571   6.996
27584SOL    HW284585  13.589   6.443   7.044
27585SOL     OW84586  11.395   3.276   2.676
27585SOL    HW184587  11.412   3.188   2.644
27585SOL    HW284588  11.348   3.263   2.758
27586SOL     OW84589  12.002  12.598   4.757
27586SOL    HW184590  12.021  12.686   4.725
27586SOL    HW284591  11.906  12.593   4.757
27587SOL     OW84592   8.736  10.546   4.931
27587SOL    HW184593   8.810  10.596   4.966
27587SOL    HW284594   8.669  10.612   4.913
27588SOL     OW84595  10.343   5.031   9.719
27588SOL    HW184596  10.428   5.032   9.676
27588SOL    HW284597  10.349   5.100   9.785
27589SOL     OW84598  13.249   8.818   4.783
27589SOL    HW184599  13.257   8.806   4.877
27589SOL    HW284600  13.162   8.857   4.771
27590SOL     OW84601  12.340  14.326  11.828
27590SOL    HW184602  12.395  14.271  11.883
27590SOL    HW284603  12.270  14.268  11.798
27591SOL     OW84604  10.982   4.190   5.283
27591SOL    HW184605  10.932   4.109   5.279
27591SOL    HW284606  10.927   4.249   5.335
27592SOL     OW84607   6.083   7.152  12.420
27592SOL    HW184608   6.077   7.065  12.381
27592SOL    HW284609   6.002   7.162  12.470
27593SOL     OW84610  11.655  14.484   4.020
27593SOL    HW184611  11.631  14.455   4.108
27593SOL    HW284612  11.574  14.478   3.969
27594SOL     OW84613   3.104   2.289   4.801
27594SOL    HW184614   3.145   2.273   4.716
27594SOL    HW284615   3.111   2.383   4.813
27595SOL     OW84616   0.730   2.953   5.307
27595SOL    HW184617   0.717   2.896   5.383
27595SOL    HW284618   0.821   2.940   5.282
27596SOL     OW84619   6.091   4.630   5.640
27596SOL    HW184620   6.141   4.557   5.676
27596SOL    HW284621   6.081   4.691   5.713
27597SOL     OW84622   9.987   8.475   9.138
27597SOL    HW184623   9.991   8.487   9.233
27597SOL    HW284624   9.901   8.509   9.113
27598SOL     OW84625  10.740  13.800   9.499
27598SOL    HW184626  10.734  13.721   9.446
27598SOL    HW284627  10.670  13.791   9.563
27599SOL     OW84628  11.506   8.231  10.784
27599SOL    HW184629  11.486   8.149  10.738
27599SOL    HW284630  11.557   8.204  10.860
27600SOL     OW84631   2.471  12.610  12.817
27600SOL    HW184632   2.461  12.701  12.787
27600SOL    HW284633   2.438  12.557  12.744
27601SOL     OW84634   1.532   4.067   6.083
27601SOL    HW184635   1.540   4.118   6.164
27601SOL    HW284636   1.605   4.006   6.086
27602SOL     OW84637   3.594   2.800   3.334
27602SOL    HW184638   3.504   2.816   3.307
27602SOL    HW284639   3.588   2.731   3.400
27603SOL     OW84640   1.294   4.338  13.191
27603SOL    HW184641   1.388   4.323  13.197
27603SOL    HW284642   1.261   4.264  13.141
27604SOL     OW84643   0.506  13.738  13.222
27604SOL    HW184644   0.519  13.811  13.161
27604SOL    HW284645   0.573  13.751  13.289
27605SOL     OW84646   7.856   9.407   7.139
27605SOL    HW184647   7.946   9.427   7.116
27605SOL    HW284648   7.805   9.479   7.101
27606SOL     OW84649   3.956   6.011  13.023
27606SOL    HW184650   3.996   6.074  12.964
27606SOL    HW284651   3.865   6.040  13.031
27607SOL     OW84652   0.533   6.135  10.927
27607SOL    HW184653   0.536   6.120  10.832
27607SOL    HW284654   0.465   6.077  10.959
27608SOL     OW84655   0.309   9.695   7.564
27608SOL    HW184656   0.235   9.703   7.624
27608SOL    HW284657   0.375   9.647   7.614
27609SOL     OW84658   7.389  12.860   2.370
27609SOL    HW184659   7.331  12.935   2.379
27609SOL    HW284660   7.460  12.878   2.432
27610SOL     OW84661   3.241  12.003   2.458
27610SOL    HW184662   3.155  12.044   2.469
27610SOL    HW284663   3.303  12.075   2.458
27611SOL     OW84664   0.088   9.483  13.797
27611SOL    HW184665   0.044   9.474  13.882
27611SOL    HW284666   0.166   9.428  13.804
27612SOL     OW84667   3.825  12.300   9.012
27612SOL    HW184668   3.850  12.392   9.002
27612SOL    HW284669   3.876  12.269   9.087
27613SOL     OW84670   9.086  13.649   8.256
27613SOL    HW184671   9.157  13.662   8.319
27613SOL    HW284672   9.111  13.570   8.208
27614SOL     OW84673   1.656  13.820   0.526
27614SOL    HW184674   1.692  13.890   0.581
27614SOL    HW284675   1.591  13.777   0.581
27615SOL     OW84676   2.852   9.800   7.289
27615SOL    HW184677   2.910   9.745   7.341
27615SOL    HW284678   2.804   9.852   7.353
27616SOL     OW84679   3.221   0.907   9.209
27616SOL    HW184680   3.158   0.938   9.144
27616SOL    HW284681   3.233   0.981   9.268
27617SOL     OW84682   6.982   0.907   3.857
27617SOL    HW184683   6.926   0.831   3.841
27617SOL    HW284684   7.028   0.886   3.938
27618SOL     OW84685  10.064   0.862  12.378
27618SOL    HW184686   9.988   0.906  12.339
27618SOL    HW284687  10.106   0.816  12.305
27619SOL     OW84688  12.119   8.317   4.146
27619SOL    HW184689  12.113   8.412   4.131
27619SOL    HW284690  12.040   8.281   4.105
27620SOL     OW84691  10.545   9.999  11.176
27620SOL    HW184692  10.497  10.082  11.169
27620SOL    HW284693  10.483   9.932  11.147
27621SOL     OW84694  11.790   9.162   6.665
27621SOL    HW184695  11.840   9.111   6.601
27621SOL    HW284696  11.771   9.100   6.735
27622SOL     OW84697  14.879  12.854   7.560
27622SOL    HW184698  14.812  12.825   7.498
27622SOL    HW284699  14.835  12.918   7.615
27623SOL     OW84700   1.081   6.678  10.072
27623SOL    HW184701   1.117   6.641  10.153
27623SOL    HW284702   1.143   6.747  10.048
27624SOL     OW84703  12.255  13.386   6.883
27624SOL    HW184704  12.189  13.438   6.837
27624SOL    HW284705  12.233  13.395   6.975
27625SOL     OW84706   5.726  13.960   6.753
27625SOL    HW184707   5.777  13.935   6.830
27625SOL    HW284708   5.775  14.033   6.714
27626SOL     OW84709   6.303  10.242   2.135
27626SOL    HW184710   6.341  10.309   2.192
27626SOL    HW284711   6.346  10.161   2.161
27627SOL     OW84712   8.561   6.095   2.228
27627SOL    HW184713   8.600   6.171   2.185
27627SOL    HW284714   8.614   6.021   2.199
27628SOL     OW84715  11.706   4.148   4.486
27628SOL    HW184716  11.764   4.072   4.493
27628SOL    HW284717  11.765   4.223   4.486
27629SOL     OW84718   4.999  14.331   6.413
27629SOL    HW184719   4.918  14.375   6.388
27629SOL    HW284720   5.044  14.315   6.330
27630SOL     OW84721   0.966   3.462  10.478
27630SOL    HW184722   0.975   3.538  10.421
27630SOL    HW284723   0.937   3.392  10.419
27631SOL     OW84724   6.958   9.367  10.920
27631SOL    HW184725   6.932   9.384  10.830
27631SOL    HW284726   7.052   9.353  10.916
27632SOL     OW84727   7.098   0.713   1.544
27632SOL    HW184728   7.034   0.745   1.607
27632SOL    HW284729   7.130   0.631   1.582
27633SOL     OW84730  13.844   4.887   7.730
27633SOL    HW184731  13.904   4.863   7.800
27633SOL    HW284732  13.874   4.835   7.655
27634SOL     OW84733  10.214   6.049   3.152
27634SOL    HW184734  10.185   6.136   3.179
27634SOL    HW284735  10.211   6.050   3.057
27635SOL     OW84736  13.050   8.801   1.362
27635SOL    HW184737  13.130   8.847   1.386
27635SOL    HW284738  13.044   8.728   1.424
27636SOL     OW84739   3.835  10.374   6.858
27636SOL    HW184740   3.774  10.425   6.912
27636SOL    HW284741   3.780  10.311   6.812
27637SOL     OW84742  14.411   5.517   7.584
27637SOL    HW184743  14.330   5.501   7.536
27637SOL    HW284744  14.465   5.439   7.569
27638SOL     OW84745   0.416   1.217   2.381
27638SOL    HW184746   0.464   1.225   2.299
27638SOL    HW284747   0.330   1.184   2.355
27639SOL     OW84748   3.388   3.634   4.469
27639SOL    HW184749   3.329   3.710   4.473
27639SOL    HW284750   3.376   3.600   4.380
27640SOL     OW84751  11.608  13.092   4.911
27640SOL    HW184752  11.598  13.187   4.916
27640SOL    HW284753  11.531  13.062   4.862
27641SOL     OW84754   1.020   9.230   4.379
27641SOL    HW184755   0.975   9.152   4.347
27641SOL    HW284756   1.102   9.197   4.416
27642SOL     OW84757   5.943  10.404  12.656
27642SOL    HW184758   5.898  10.407  12.740
27642SOL    HW284759   6.000  10.327  12.662
27643SOL     OW84760  11.894   4.009  11.789
27643SOL    HW184761  11.886   3.914  11.793
27643SOL    HW284762  11.808   4.042  11.815
27644SOL     OW84763   0.702  14.267   5.770
27644SOL    HW184764   0.680  14.355   5.741
27644SOL    HW284765   0.784  14.247   5.725
27645SOL     OW84766   2.421  13.409   7.574
27645SOL    HW184767   2.342  13.382   7.621
27645SOL    HW284768   2.480  13.440   7.643
27646SOL     OW84769   7.349   6.171   8.974
27646SOL    HW184770   7.308   6.085   8.961
27646SOL    HW284771   7.443   6.153   8.965
27647SOL     OW84772   2.609   2.223  12.942
27647SOL    HW184773   2.524   2.247  12.905
27647SOL    HW284774   2.590   2.202  13.033
27648SOL     OW84775  11.184   8.396  12.412
27648SOL    HW184776  11.250   8.463  12.397
27648SOL    HW284777  11.234   8.319  12.439
27649SOL     OW84778   4.280   9.940  10.732
27649SOL    HW184779   4.185   9.936  10.738
27649SOL    HW284780   4.312   9.878  10.797
27650SOL     OW84781   8.740   1.536  12.321
27650SOL    HW184782   8.718   1.468  12.386
27650SOL    HW284783   8.657   1.558  12.280
27651SOL     OW84784   3.621   6.125   6.214
27651SOL    HW184785   3.661   6.068   6.148
27651SOL    HW284786   3.686   6.194   6.229
27652SOL     OW84787  10.811   8.859  13.256
27652SOL    HW184788  10.785   8.860  13.164
27652SOL    HW284789  10.893   8.810  13.257
27653SOL     OW84790  14.569   2.511   7.074
27653SOL    HW184791  14.590   2.570   7.146
27653SOL    HW284792  14.563   2.568   6.997
27654SOL     OW84793   5.496   3.200   0.344
27654SOL    HW184794   5.539   3.172   0.263
27654SOL    HW284795   5.526   3.137   0.409
27655SOL     OW84796  12.720  11.166   5.883
27655SOL    HW184797  12.777  11.243   5.890
27655SOL    HW284798  12.711  11.153   5.788
27656SOL     OW84799   7.208   1.608   1.524
27656SOL    HW184800   7.158   1.663   1.585
27656SOL    HW284801   7.291   1.593   1.569
27657SOL     OW84802   2.715   5.049   8.159
27657SOL    HW184803   2.644   4.991   8.187
27657SOL    HW284804   2.759   5.074   8.241
27658SOL     OW84805   9.447   0.840  12.386
27658SOL    HW184806   9.537   0.855  12.416
27658SOL    HW284807   9.396   0.834  12.466
27659SOL     OW84808  11.712   3.656  10.835
27659SOL    HW184809  11.750   3.723  10.892
27659SOL    HW284810  11.787   3.607  10.801
27660SOL     OW84811  10.701   3.582   5.516
27660SOL    HW184812  10.654   3.612   5.438
27660SOL    HW284813  10.789   3.562   5.484
27661SOL     OW84814   9.056   6.235  12.487
27661SOL    HW184815   9.118   6.296  12.526
27661SOL    HW284816   9.110   6.174  12.436
27662SOL     OW84817  14.150   4.607   6.332
27662SOL    HW184818  14.141   4.696   6.296
27662SOL    HW284819  14.155   4.551   6.255
27663SOL     OW84820  10.392   8.035  10.758
27663SOL    HW184821  10.332   7.961  10.744
27663SOL    HW284822  10.348   8.090  10.823
27664SOL     OW84823   8.528   9.827  13.282
27664SOL    HW184824   8.481   9.768  13.342
27664SOL    HW284825   8.553   9.771  13.208
27665SOL     OW84826   4.368   7.210   3.911
27665SOL    HW184827   4.286   7.258   3.921
27665SOL    HW284828   4.354   7.153   3.835
27666SOL     OW84829   5.262   9.575   6.204
27666SOL    HW184830   5.311   9.497   6.178
27666SOL    HW284831   5.290   9.592   6.294
27667SOL     OW84832   7.700  12.417  13.339
27667SOL    HW184833   7.758  12.383  13.407
27667SOL    HW284834   7.624  12.359  13.343
27668SOL     OW84835  14.238   9.114   5.242
27668SOL    HW184836  14.261   9.207   5.252
27668SOL    HW284837  14.256   9.076   5.328
27669SOL     OW84838   1.829   7.788  10.974
27669SOL    HW184839   1.741   7.789  10.938
27669SOL    HW284840   1.878   7.728  10.917
27670SOL     OW84841   7.757   3.639   8.580
27670SOL    HW184842   7.758   3.562   8.637
27670SOL    HW284843   7.665   3.666   8.579
27671SOL     OW84844   2.368  13.504   8.072
27671SOL    HW184845   2.284  13.475   8.038
27671SOL    HW284846   2.428  13.498   7.998
27672SOL     OW84847   1.154  12.761   0.586
27672SOL    HW184848   1.207  12.840   0.581
27672SOL    HW284849   1.115  12.751   0.499
27673SOL     OW84850   5.448   0.011   9.706
27673SOL    HW184851   5.539  14.871   9.725
27673SOL    HW284852   5.412   0.038   9.790
27674SOL     OW84853   8.687  10.044   6.738
27674SOL    HW184854   8.677  10.129   6.696
27674SOL    HW284855   8.601  10.003   6.731
27675SOL     OW84856   7.420  14.468   4.925
27675SOL    HW184857   7.514  14.466   4.905
27675SOL    HW284858   7.406  14.391   4.980
27676SOL     OW84859  12.071  11.783   3.018
27676SOL    HW184860  12.096  11.715   2.955
27676SOL    HW284861  12.056  11.861   2.965
27677SOL     OW84862   4.668   3.688   9.245
27677SOL    HW184863   4.699   3.623   9.182
27677SOL    HW284864   4.573   3.679   9.245
27678SOL     OW84865   7.581   7.547   4.477
27678SOL    HW184866   7.559   7.515   4.564
27678SOL    HW284867   7.502   7.591   4.446
27679SOL     OW84868   9.903  13.292   9.168
27679SOL    HW184869   9.909  13.237   9.090
27679SOL    HW284870   9.888  13.381   9.134
27680SOL     OW84871   6.671   6.362  14.732
27680SOL    HW184872   6.701   6.363  14.640
27680SOL    HW284873   6.618   6.441  14.741
27681SOL     OW84874   1.273  12.636   4.326
27681SOL    HW184875   1.314  12.567   4.378
27681SOL    HW284876   1.346  12.690   4.294
27682SOL     OW84877   4.288  14.385  14.070
27682SOL    HW184878   4.209  14.330  14.073
27682SOL    HW284879   4.359  14.326  14.095
27683SOL     OW84880   4.340  12.856   1.941
27683SOL    HW184881   4.364  12.947   1.954
27683SOL    HW284882   4.388  12.808   2.008
27684SOL     OW84883   2.017  10.534   2.972
27684SOL    HW184884   2.002  10.442   2.950
27684SOL    HW284885   1.966  10.583   2.908
27685SOL     OW84886   5.292  11.452   4.338
27685SOL    HW184887   5.205  11.434   4.375
27685SOL    HW284888   5.332  11.512   4.401
27686SOL     OW84889   8.481   0.053  14.665
27686SOL    HW184890   8.494   0.123  14.729
27686SOL    HW284891   8.530  14.861  14.699
27687SOL     OW84892  10.967   6.021   3.898
27687SOL    HW184893  11.055   6.024   3.860
27687SOL    HW284894  10.946   5.927   3.900
27688SOL     OW84895   2.690   8.867   1.709
27688SOL    HW184896   2.699   8.835   1.799
27688SOL    HW284897   2.708   8.961   1.716
27689SOL     OW84898  11.311   1.851   4.666
27689SOL    HW184899  11.273   1.763   4.670
27689SOL    HW284900  11.305   1.876   4.574
27690SOL     OW84901   6.611  10.027  14.343
27690SOL    HW184902   6.707  10.024  14.342
27690SOL    HW284903   6.590  10.114  14.375
27691SOL     OW84904   7.620   4.745   9.336
27691SOL    HW184905   7.592   4.817   9.392
27691SOL    HW284906   7.650   4.677   9.397
27692SOL     OW84907   2.451  11.605   8.337
27692SOL    HW184908   2.464  11.541   8.267
27692SOL    HW284909   2.455  11.553   8.418
27693SOL     OW84910  13.122   5.978   7.538
27693SOL    HW184911  13.053   5.917   7.564
27693SOL    HW284912  13.095   6.062   7.574
27694SOL     OW84913  11.467  10.418   4.794
27694SOL    HW184914  11.384  10.459   4.769
27694SOL    HW284915  11.533  10.460   4.739
27695SOL     OW84916   9.716  11.477   6.571
27695SOL    HW184917   9.630  11.496   6.534
27695SOL    HW284918   9.705  11.393   6.616
27696SOL     OW84919  11.519  14.690  12.215
27696SOL    HW184920  11.569  14.746  12.275
27696SOL    HW284921  11.555  14.709  12.129
27697SOL     OW84922  12.861  13.360   0.799
27697SOL    HW184923  12.949  13.386   0.827
27697SOL    HW284924  12.825  13.312   0.874
27698SOL     OW84925  14.126   7.157   3.251
27698SOL    HW184926  14.217   7.129   3.240
27698SOL    HW284927  14.076   7.097   3.195
27699SOL     OW84928   0.585   0.429   2.720
27699SOL    HW184929   0.513   0.466   2.771
27699SOL    HW284930   0.626   0.505   2.678
27700SOL     OW84931  12.342  12.058  10.565
27700SOL    HW184932  12.292  12.120  10.619
27700SOL    HW284933  12.369  12.109  10.489
27701SOL     OW84934  13.781   1.108   3.331
27701SOL    HW184935  13.823   1.093   3.246
27701SOL    HW284936  13.705   1.050   3.330
27702SOL     OW84937   6.539   5.914   9.957
27702SOL    HW184938   6.568   5.893   9.869
27702SOL    HW284939   6.566   6.005   9.970
27703SOL     OW84940   0.372  13.474   1.132
27703SOL    HW184941   0.408  13.523   1.058
27703SOL    HW284942   0.319  13.405   1.092
27704SOL     OW84943   5.655   3.336  10.496
27704SOL    HW184944   5.716   3.263  10.490
27704SOL    HW284945   5.668   3.371  10.584
27705SOL     OW84946   7.653   7.798   7.975
27705SOL    HW184947   7.629   7.831   8.062
27705SOL    HW284948   7.655   7.703   7.985
27706SOL     OW84949  10.994  12.592  11.349
27706SOL    HW184950  10.989  12.583  11.254
27706SOL    HW284951  11.022  12.505  11.379
27707SOL     OW84952   3.855   7.920   0.632
27707SOL    HW184953   3.782   7.972   0.598
27707SOL    HW284954   3.814   7.837   0.657
27708SOL     OW84955   0.859  13.035   6.089
27708SOL    HW184956   0.872  13.033   5.994
27708SOL    HW284957   0.892  13.120   6.116
27709SOL     OW84958   3.886   0.756   4.799
27709SOL    HW184959   3.921   0.742   4.711
27709SOL    HW284960   3.795   0.727   4.793
27710SOL     OW84961  10.284   3.541   8.168
27710SOL    HW184962  10.201   3.509   8.134
27710SOL    HW284963  10.267   3.559   8.261
27711SOL     OW84964   8.174   5.707  12.705
27711SOL    HW184965   8.151   5.737  12.793
27711SOL    HW284966   8.102   5.737  12.650
27712SOL     OW84967  12.250  11.291   2.295
27712SOL    HW184968  12.294  11.360   2.246
27712SOL    HW284969  12.163  11.285   2.256
27713SOL     OW84970  12.365  12.959  10.997
27713SOL    HW184971  12.405  12.922  11.076
27713SOL    HW284972  12.342  13.049  11.022
27714SOL     OW84973   9.473  13.324  14.793
27714SOL    HW184974   9.390  13.336  14.746
27714SOL    HW284975   9.484  13.404  14.844
27715SOL     OW84976   6.398   1.880   7.639
27715SOL    HW184977   6.322   1.824   7.656
27715SOL    HW284978   6.457   1.825   7.587
27716SOL     OW84979   2.288   3.077   2.893
27716SOL    HW184980   2.308   3.093   2.801
27716SOL    HW284981   2.247   3.158   2.923
27717SOL     OW84982  10.589  12.601   7.577
27717SOL    HW184983  10.545  12.609   7.661
27717SOL    HW284984  10.648  12.526   7.588
27718SOL     OW84985   9.158   8.369   6.548
27718SOL    HW184986   9.247   8.403   6.551
27718SOL    HW284987   9.169   8.274   6.550
27719SOL     OW84988  12.973   3.750  13.362
27719SOL    HW184989  12.971   3.658  13.338
27719SOL    HW284990  12.886   3.783  13.339
27720SOL     OW84991   3.238   7.069   8.161
27720SOL    HW184992   3.257   7.109   8.076
27720SOL    HW284993   3.311   7.095   8.217
27721SOL     OW84994   2.130   4.511  12.552
27721SOL    HW184995   2.187   4.566  12.607
27721SOL    HW284996   2.081   4.458  12.615
27722SOL     OW84997   1.521   7.190  10.735
27722SOL    HW184998   1.487   7.223  10.819
27722SOL    HW284999   1.497   7.257  10.672
27723SOL     OW85000   8.598  10.205   8.319
27723SOL    HW185001   8.538  10.278   8.305
27723SOL    HW285002   8.669  10.220   8.257
27724SOL     OW85003  11.201  10.216  10.739
27724SOL    HW185004  11.293  10.203  10.718
27724SOL    HW285005  11.155  10.192  10.658
27725SOL     OW85006   4.022   1.394   3.645
27725SOL    HW185007   3.932   1.417   3.624
27725SOL    HW285008   4.048   1.456   3.713
27726SOL     OW85009   8.760  13.127   7.617
27726SOL    HW185010   8.786  13.044   7.578
27726SOL    HW285011   8.836  13.153   7.670
27727SOL     OW85012   5.856   6.467  12.353
27727SOL    HW185013   5.915   6.481  12.279
27727SOL    HW285014   5.778   6.520  12.333
27728SOL     OW85015  14.219   3.286   3.287
27728SOL    HW185016  14.240   3.327   3.371
27728SOL    HW285017  14.142   3.333   3.255
27729SOL     OW85018   6.846   0.991   4.620
27729SOL    HW185019   6.848   1.085   4.637
27729SOL    HW285020   6.757   0.974   4.588
27730SOL     OW85021   1.667   6.287   1.684
27730SOL    HW185022   1.726   6.272   1.758
27730SOL    HW285023   1.724   6.315   1.613
27731SOL     OW85024   9.012   8.268   2.994
27731SOL    HW185025   9.025   8.203   3.064
27731SOL    HW285026   8.936   8.236   2.946
27732SOL     OW85027   1.902  14.755  14.057
27732SOL    HW185028   1.864  14.669  14.042
27732SOL    HW285029   1.979  14.757  14.001
27733SOL     OW85030   3.976   6.912   6.981
27733SOL    HW185031   3.976   6.896   6.886
27733SOL    HW285032   3.955   7.005   6.990
27734SOL     OW85033  13.495   0.547  11.325
27734SOL    HW185034  13.466   0.606  11.394
27734SOL    HW285035  13.415   0.522  11.280
27735SOL     OW85036  14.471  12.796  14.700
27735SOL    HW185037  14.476  12.889  14.680
27735SOL    HW285038  14.392  12.766  14.655
27736SOL     OW85039   1.806   3.817   7.440
27736SOL    HW185040   1.712   3.800   7.436
27736SOL    HW285041   1.832   3.784   7.526
27737SOL     OW85042   3.102   5.446   2.132
27737SOL    HW185043   3.152   5.392   2.072
27737SOL    HW285044   3.123   5.536   2.109
27738SOL     OW85045  12.778   9.645   9.299
27738SOL    HW185046  12.790   9.595   9.219
27738SOL    HW285047  12.866   9.658   9.333
27739SOL     OW85048  14.514   5.349  14.217
27739SOL    HW185049  14.437   5.400  14.190
27739SOL    HW285050  14.550   5.315  14.135
27740SOL     OW85051   1.191  10.554   4.616
27740SOL    HW185052   1.275  10.513   4.596
27740SOL    HW285053   1.130  10.512   4.554
27741SOL     OW85054   9.296   6.455   5.857
27741SOL    HW185055   9.334   6.406   5.784
27741SOL    HW285056   9.344   6.538   5.858
27742SOL     OW85057   9.344   8.462  11.148
27742SOL    HW185058   9.409   8.500  11.206
27742SOL    HW285059   9.326   8.530  11.083
27743SOL     OW85060   1.146   0.579   0.570
27743SOL    HW185061   1.142   0.578   0.665
27743SOL    HW285062   1.186   0.496   0.546
27744SOL     OW85063   0.404  10.859   1.759
27744SOL    HW185064   0.452  10.777   1.748
27744SOL    HW285065   0.409  10.877   1.853
27745SOL     OW85066   9.085  10.751   8.666
27745SOL    HW185067   9.043  10.752   8.580
27745SOL    HW285068   9.125  10.664   8.673
27746SOL     OW85069  13.555   4.375   2.835
27746SOL    HW185070  13.546   4.412   2.747
27746SOL    HW285071  13.590   4.287   2.820
27747SOL     OW85072   6.747  13.575   2.402
27747SOL    HW185073   6.726  13.643   2.338
27747SOL    HW285074   6.769  13.622   2.482
27748SOL     OW85075   2.967   3.413   0.103
27748SOL    HW185076   2.960   3.464   0.184
27748SOL    HW285077   2.943   3.473   0.033
27749SOL     OW85078  11.241   9.254  13.725
27749SOL    HW185079  11.300   9.280  13.654
27749SOL    HW285080  11.161   9.303  13.709
27750SOL     OW85081   3.097   2.968  11.104
27750SOL    HW185082   3.164   2.902  11.088
27750SOL    HW285083   3.099   2.982  11.198
27751SOL     OW85084   1.955   2.366   8.959
27751SOL    HW185085   1.952   2.369   8.863
27751SOL    HW285086   2.048   2.376   8.980
27752SOL     OW85087   4.542   7.675   7.755
27752SOL    HW185088   4.452   7.694   7.729
27752SOL    HW285089   4.534   7.631   7.840
27753SOL     OW85090   9.812  12.287  12.560
27753SOL    HW185091   9.904  12.314  12.571
27753SOL    HW285092   9.814  12.192  12.574
27754SOL     OW85093   6.309   3.661  12.289
27754SOL    HW185094   6.300   3.572  12.324
27754SOL    HW285095   6.232   3.707  12.321
27755SOL     OW85096   8.997   6.561   5.725
27755SOL    HW185097   9.039   6.542   5.808
27755SOL    HW285098   8.903   6.558   5.744
27756SOL     OW85099   9.908  12.228   3.306
27756SOL    HW185100   9.999  12.205   3.288
27756SOL    HW285101   9.865  12.225   3.221
27757SOL     OW85102   4.736   7.785   5.261
27757SOL    HW185103   4.819   7.787   5.308
27757SOL    HW285104   4.752   7.731   5.184
27758SOL     OW85105   6.346   2.475   7.040
27758SOL    HW185106   6.398   2.421   6.981
27758SOL    HW285107   6.300   2.412   7.096
27759SOL     OW85108  14.447   7.699   7.159
27759SOL    HW185109  14.495   7.678   7.240
27759SOL    HW285110  14.358   7.718   7.188
27760SOL     OW85111   4.758   7.230  11.370
27760SOL    HW185112   4.830   7.179  11.406
27760SOL    HW285113   4.681   7.200  11.419
27761SOL     OW85114  13.116   9.989   6.876
27761SOL    HW185115  13.159   9.969   6.959
27761SOL    HW285116  13.166   9.941   6.810
27762SOL     OW85117   6.286  10.767   6.370
27762SOL    HW185118   6.288  10.759   6.274
27762SOL    HW285119   6.200  10.805   6.389
27763SOL     OW85120   2.697   6.868   1.749
27763SOL    HW185121   2.764   6.819   1.701
27763SOL    HW285122   2.684   6.948   1.698
27764SOL     OW85123   5.570  10.002   9.322
27764SOL    HW185124   5.548   9.944   9.395
27764SOL    HW285125   5.638   9.955   9.274
27765SOL     OW85126   1.921   0.452   4.427
27765SOL    HW185127   1.911   0.520   4.493
27765SOL    HW285128   1.954   0.376   4.474
27766SOL     OW85129   9.260   3.126   5.058
27766SOL    HW185130   9.184   3.179   5.084
27766SOL    HW285131   9.319   3.188   5.015
27767SOL     OW85132  10.415  14.793   3.217
27767SOL    HW185133  10.330  14.751   3.203
27767SOL    HW285134  10.409  14.829   3.306
27768SOL     OW85135  11.276  11.448   1.152
27768SOL    HW185136  11.281  11.413   1.241
27768SOL    HW285137  11.195  11.499   1.151
27769SOL     OW85138   4.765  10.863   3.991
27769SOL    HW185139   4.853  10.830   3.973
27769SOL    HW285140   4.721  10.860   3.906
27770SOL     OW85141   3.493   8.573  13.282
27770SOL    HW185142   3.572   8.552  13.233
27770SOL    HW285143   3.421   8.542  13.227
27771SOL     OW85144  10.436   2.309  13.299
27771SOL    HW185145  10.368   2.249  13.271
27771SOL    HW285146  10.426   2.315  13.394
27772SOL     OW85147   7.773   6.886  12.325
27772SOL    HW185148   7.866   6.898  12.303
27772SOL    HW285149   7.771   6.807  12.379
27773SOL     OW85150   4.332   0.384   2.518
27773SOL    HW185151   4.342   0.475   2.545
27773SOL    HW285152   4.240   0.377   2.492
27774SOL     OW85153   2.527   4.090   2.126
27774SOL    HW185154   2.507   4.178   2.158
27774SOL    HW285155   2.442   4.054   2.099
27775SOL     OW85156  14.241   5.982   9.649
27775SOL    HW185157  14.168   5.950   9.702
27775SOL    HW285158  14.306   6.011   9.714
27776SOL     OW85159   9.790  12.706  12.339
27776SOL    HW185160   9.773  12.734  12.429
27776SOL    HW285161   9.767  12.782  12.286
27777SOL     OW85162  11.605   5.777   0.963
27777SOL    HW185163  11.637   5.709   1.023
27777SOL    HW285164  11.604   5.734   0.877
27778SOL     OW85165   9.560  14.463   7.152
27778SOL    HW185166   9.634  14.518   7.174
27778SOL    HW285167   9.593  14.373   7.158
27779SOL     OW85168   6.184   2.919   8.328
27779SOL    HW185169   6.260   2.865   8.309
27779SOL    HW285170   6.205   3.005   8.290
27780SOL     OW85171   3.778   5.300   8.098
27780SOL    HW185172   3.734   5.319   8.015
27780SOL    HW285173   3.849   5.240   8.074
27781SOL     OW85174   4.162   8.759  10.676
27781SOL    HW185175   4.089   8.700  10.694
27781SOL    HW285176   4.193   8.733  10.589
27782SOL     OW85177   3.120   8.633   7.847
27782SOL    HW185178   3.164   8.595   7.923
27782SOL    HW285179   3.052   8.690   7.885
27783SOL     OW85180   5.138   6.576   8.927
27783SOL    HW185181   5.074   6.564   8.857
27783SOL    HW285182   5.184   6.492   8.932
27784SOL     OW85183   8.375   3.091   2.053
27784SOL    HW185184   8.370   3.118   2.145
27784SOL    HW285185   8.393   3.172   2.005
27785SOL     OW85186   5.665  11.625   4.554
27785SOL    HW185187   5.709  11.678   4.488
27785SOL    HW285188   5.732  11.567   4.587
27786SOL     OW85189   6.981  10.605   5.436
27786SOL    HW185190   7.018  10.528   5.394
27786SOL    HW285191   6.897  10.575   5.470
27787SOL     OW85192   7.236   6.008   8.341
27787SOL    HW185193   7.268   6.090   8.304
27787SOL    HW285194   7.141   6.010   8.326
27788SOL     OW85195   2.984  10.278   3.760
27788SOL    HW185196   3.017  10.325   3.683
27788SOL    HW285197   2.901  10.320   3.780
27789SOL     OW85198  13.684   8.612   2.484
27789SOL    HW185199  13.595   8.594   2.454
27789SOL    HW285200  13.740   8.564   2.423
27790SOL     OW85201   3.993   4.629   2.123
27790SOL    HW185202   3.956   4.605   2.038
27790SOL    HW285203   3.922   4.610   2.185
27791SOL     OW85204   1.134  13.658   5.288
27791SOL    HW185205   1.229  13.673   5.286
27791SOL    HW285206   1.112  13.660   5.381
27792SOL     OW85207   6.478  14.125   2.285
27792SOL    HW185208   6.431  14.042   2.282
27792SOL    HW285209   6.523  14.130   2.200
27793SOL     OW85210  10.427  12.107   0.481
27793SOL    HW185211  10.391  12.048   0.547
27793SOL    HW285212  10.485  12.052   0.428
27794SOL     OW85213   3.079   8.341  10.684
27794SOL    HW185214   3.035   8.266  10.723
27794SOL    HW285215   3.008   8.397  10.651
27795SOL     OW85216   8.514  12.309  10.897
27795SOL    HW185217   8.605  12.294  10.872
27795SOL    HW285218   8.515  12.305  10.993
27796SOL     OW85219   2.721   6.840   4.411
27796SOL    HW185220   2.792   6.875   4.464
27796SOL    HW285221   2.732   6.745   4.414
27797SOL     OW85222  12.888  12.825   1.422
27797SOL    HW185223  12.958  12.790   1.367
27797SOL    HW285224  12.928  12.898   1.469
27798SOL     OW85225   1.034   3.196   4.835
27798SOL    HW185226   1.060   3.176   4.925
27798SOL    HW285227   1.064   3.286   4.822
27799SOL     OW85228   8.858   7.614   6.839
27799SOL    HW185229   8.853   7.705   6.866
27799SOL    HW285230   8.803   7.567   6.901
27800SOL     OW85231  10.306   9.473  14.376
27800SOL    HW185232  10.321   9.551  14.323
27800SOL    HW285233  10.241   9.500  14.440
27801SOL     OW85234   0.737   8.259   0.836
27801SOL    HW185235   0.818   8.278   0.788
27801SOL    HW285236   0.759   8.279   0.927
27802SOL     OW85237   5.224   2.295  10.305
27802SOL    HW185238   5.172   2.362  10.260
27802SOL    HW285239   5.272   2.250  10.236
27803SOL     OW85240  13.364   4.128   3.611
27803SOL    HW185241  13.381   4.172   3.694
27803SOL    HW285242  13.389   4.193   3.545
27804SOL     OW85243   6.939   8.235   1.189
27804SOL    HW185244   7.003   8.199   1.251
27804SOL    HW285245   6.882   8.289   1.242
27805SOL     OW85246   4.388   9.506  10.984
27805SOL    HW185247   4.468   9.462  11.013
27805SOL    HW285248   4.333   9.510  11.062
27806SOL     OW85249   5.987   4.804  14.683
27806SOL    HW185250   5.926   4.735  14.654
27806SOL    HW285251   5.966   4.879  14.627
27807SOL     OW85252   1.879   3.710   2.013
27807SOL    HW185253   1.844   3.799   2.006
27807SOL    HW285254   1.947   3.717   2.080
27808SOL     OW85255   8.807   5.499   6.508
27808SOL    HW185256   8.733   5.547   6.544
27808SOL    HW285257   8.852   5.462   6.584
27809SOL     OW85258   3.469   9.811   7.540
27809SOL    HW185259   3.527   9.884   7.564
27809SOL    HW285260   3.500   9.783   7.454
27810SOL     OW85261   6.457  11.300  11.306
27810SOL    HW185262   6.402  11.229  11.339
27810SOL    HW285263   6.398  11.352  11.251
27811SOL     OW85264  10.678   9.024  14.325
27811SOL    HW185265  10.660   9.041  14.418
27811SOL    HW285266  10.772   9.011  14.321
27812SOL     OW85267   1.592   5.642   8.917
27812SOL    HW185268   1.540   5.698   8.859
27812SOL    HW285269   1.650   5.702   8.964
27813SOL     OW85270  14.242  14.381  11.412
27813SOL    HW185271  14.208  14.374  11.501
27813SOL    HW285272  14.318  14.323  11.411
27814SOL     OW85273   5.111  10.850  14.407
27814SOL    HW185274   5.045  10.781  14.401
27814SOL    HW285275   5.104  10.897  14.324
27815SOL     OW85276   1.117  11.489   0.908
27815SOL    HW185277   1.168  11.450   0.979
27815SOL    HW285278   1.057  11.549   0.952
27816SOL     OW85279   5.605   5.444  12.756
27816SOL    HW185280   5.637   5.371  12.810
27816SOL    HW285281   5.520   5.414  12.724
27817SOL     OW85282   1.957   1.761  10.771
27817SOL    HW185283   1.997   1.709  10.842
27817SOL    HW285284   1.873   1.789  10.806
27818SOL     OW85285  13.163   6.213  13.673
27818SOL    HW185286  13.169   6.171  13.587
27818SOL    HW285287  13.107   6.154  13.724
27819SOL     OW85288   6.341  10.316  10.760
27819SOL    HW185289   6.252  10.300  10.728
27819SOL    HW285290   6.346  10.411  10.771
27820SOL     OW85291   8.865   3.175   8.679
27820SOL    HW185292   8.938   3.183   8.741
27820SOL    HW285293   8.825   3.263   8.678
27821SOL     OW85294   3.234   0.729  10.480
27821SOL    HW185295   3.258   0.770  10.563
27821SOL    HW285296   3.141   0.750  10.470
27822SOL     OW85297   7.399   5.213   1.726
27822SOL    HW185298   7.478   5.268   1.721
27822SOL    HW285299   7.425   5.130   1.687
27823SOL     OW85300   1.718  13.031   7.752
27823SOL    HW185301   1.772  13.063   7.679
27823SOL    HW285302   1.655  12.972   7.711
27824SOL     OW85303   4.649  13.450   6.852
27824SOL    HW185304   4.633  13.543   6.870
27824SOL    HW285305   4.649  13.408   6.938
27825SOL     OW85306   7.062   9.234   4.715
27825SOL    HW185307   7.099   9.234   4.626
27825SOL    HW285308   7.020   9.149   4.724
27826SOL     OW85309   5.662   0.740  13.180
27826SOL    HW185310   5.696   0.816  13.133
27826SOL    HW285311   5.573   0.764  13.204
27827SOL     OW85312   2.367  10.413   3.612
27827SOL    HW185313   2.422  10.386   3.539
27827SOL    HW285314   2.294  10.461   3.571
27828SOL     OW85315  10.982   1.513   4.571
27828SOL    HW185316  10.942   1.589   4.528
27828SOL    HW285317  11.020   1.462   4.499
27829SOL     OW85318   0.175  13.885   3.108
27829SOL    HW185319   0.216  13.822   3.048
27829SOL    HW285320   0.223  13.967   3.093
27830SOL     OW85321   9.245  11.636   5.551
27830SOL    HW185322   9.198  11.558   5.522
27830SOL    HW285323   9.182  11.707   5.540
27831SOL     OW85324   9.953  12.736   2.745
27831SOL    HW185325  10.027  12.776   2.700
27831SOL    HW285326   9.965  12.642   2.734
27832SOL     OW85327   1.030  14.355  14.100
27832SOL    HW185328   1.021  14.281  14.160
27832SOL    HW285329   0.957  14.345  14.039
27833SOL     OW85330  11.414   8.878   6.252
27833SOL    HW185331  11.383   8.859   6.163
27833SOL    HW285332  11.351   8.834   6.309
27834SOL     OW85333   4.892  14.870  12.515
27834SOL    HW185334   4.977  14.872  12.473
27834SOL    HW285335   4.897  14.798  12.578
27835SOL     OW85336   7.933   4.900  12.031
27835SOL    HW185337   7.922   4.806  12.039
27835SOL    HW285338   8.021   4.917  12.064
27836SOL     OW85339  14.733  11.926   6.714
27836SOL    HW185340  14.728  11.980   6.792
27836SOL    HW285341  14.795  11.972   6.657
27837SOL     OW85342   3.796  11.204   8.786
27837SOL    HW185343   3.865  11.218   8.721
27837SOL    HW285344   3.777  11.292   8.819
27838SOL     OW85345   0.449  10.055   8.671
27838SOL    HW185346   0.368  10.093   8.704
27838SOL    HW285347   0.459  10.091   8.583
27839SOL     OW85348   4.335  12.749   5.637
27839SOL    HW185349   4.260  12.728   5.692
27839SOL    HW285350   4.390  12.671   5.640
27840SOL     OW85351   5.902   5.044  14.154
27840SOL    HW185352   5.966   5.114  14.144
27840SOL    HW285353   5.947   4.966  14.120
27841SOL     OW85354  12.923   1.332  10.289
27841SOL    HW185355  12.926   1.278  10.210
27841SOL    HW285356  12.832   1.324  10.319
27842SOL     OW85357   3.451   3.225   1.557
27842SOL    HW185358   3.474   3.232   1.465
27842SOL    HW285359   3.420   3.312   1.581
27843SOL     OW85360  10.091   9.577  14.524
27843SOL    HW185361  10.064   9.636  14.454
27843SOL    HW285362  10.043   9.607  14.601
27844SOL     OW85363   2.142  14.326   9.913
27844SOL    HW185364   2.213  14.329   9.848
27844SOL    HW285365   2.186  14.304   9.995
27845SOL     OW85366   2.304  11.450   9.760
27845SOL    HW185367   2.243  11.524   9.763
27845SOL    HW285368   2.390  11.489   9.752
27846SOL     OW85369  14.199  10.360  12.773
27846SOL    HW185370  14.125  10.412  12.742
27846SOL    HW285371  14.158  10.282  12.813
27847SOL     OW85372   8.016   4.050  14.408
27847SOL    HW185373   8.005   4.123  14.468
27847SOL    HW285374   7.972   3.976  14.451
27848SOL     OW85375  14.194  10.182  11.396
27848SOL    HW185376  14.120  10.133  11.432
27848SOL    HW285377  14.163  10.273  11.395
27849SOL     OW85378   1.260  14.724   5.715
27849SOL    HW185379   1.286  14.795   5.656
27849SOL    HW285380   1.325  14.656   5.700
27850SOL     OW85381   0.901  11.410   9.066
27850SOL    HW185382   0.882  11.366   9.148
27850SOL    HW285383   0.927  11.341   9.006
27851SOL     OW85384  11.293   6.913   1.548
27851SOL    HW185385  11.290   6.973   1.623
27851SOL    HW285386  11.234   6.953   1.484
27852SOL     OW85387   6.619   4.719  11.289
27852SOL    HW185388   6.669   4.677  11.359
27852SOL    HW285389   6.617   4.812  11.314
27853SOL     OW85390  11.065  11.792  14.851
27853SOL    HW185391  11.152  11.811   0.003
27853SOL    HW285392  11.062  11.696  14.845
27854SOL     OW85393   1.282  12.021   3.838
27854SOL    HW185394   1.265  11.934   3.874
27854SOL    HW285395   1.376  12.022   3.820
27855SOL     OW85396   1.681  10.380   2.643
27855SOL    HW185397   1.728  10.401   2.562
27855SOL    HW285398   1.736  10.314   2.685
27856SOL     OW85399   1.780   5.405  10.367
27856SOL    HW185400   1.719   5.429  10.298
27856SOL    HW285401   1.725   5.375  10.439
27857SOL     OW85402   7.615   7.772  14.723
27857SOL    HW185403   7.577   7.777  14.635
27857SOL    HW285404   7.665   7.690  14.723
27858SOL     OW85405   1.399  11.829   1.269
27858SOL    HW185406   1.421  11.918   1.241
27858SOL    HW285407   1.339  11.840   1.343
27859SOL     OW85408   9.532   5.457   2.161
27859SOL    HW185409   9.498   5.423   2.244
27859SOL    HW285410   9.477   5.416   2.094
27860SOL     OW85411  13.713   6.146   4.088
27860SOL    HW185412  13.695   6.079   4.154
27860SOL    HW285413  13.632   6.154   4.039
27861SOL     OW85414   2.219   8.612  11.999
27861SOL    HW185415   2.165   8.619  11.919
27861SOL    HW285416   2.203   8.694  12.045
27862SOL     OW85417   9.452  14.029  13.662
27862SOL    HW185418   9.492  14.105  13.702
27862SOL    HW285419   9.440  14.052  13.570
27863SOL     OW85420   8.339  13.571   5.683
27863SOL    HW185421   8.429  13.593   5.706
27863SOL    HW285422   8.313  13.504   5.746
27864SOL     OW85423   1.160   6.890   1.147
27864SOL    HW185424   1.081   6.854   1.107
27864SOL    HW285425   1.182   6.828   1.217
27865SOL     OW85426   4.767   2.933   0.883
27865SOL    HW185427   4.684   2.898   0.850
27865SOL    HW285428   4.759   2.925   0.978
27866SOL     OW85429   9.292   3.946   8.947
27866SOL    HW185430   9.334   3.875   8.900
27866SOL    HW285431   9.200   3.921   8.953
27867SOL     OW85432   1.683   8.476  13.460
27867SOL    HW185433   1.690   8.413  13.389
27867SOL    HW285434   1.763   8.464  13.511
27868SOL     OW85435   7.557   5.258  14.262
27868SOL    HW185436   7.594   5.254  14.174
27868SOL    HW285437   7.628   5.293  14.316
27869SOL     OW85438  12.829   9.664   3.296
27869SOL    HW185439  12.739   9.635   3.286
27869SOL    HW285440  12.876   9.623   3.224
27870SOL     OW85441  11.548   3.015   6.496
27870SOL    HW185442  11.603   2.994   6.571
27870SOL    HW285443  11.477   2.951   6.499
27871SOL     OW85444  12.534   9.471  10.853
27871SOL    HW185445  12.578   9.550  10.820
27871SOL    HW285446  12.596   9.400  10.835
27872SOL     OW85447   1.208  10.233   4.052
27872SOL    HW185448   1.193  10.153   4.001
27872SOL    HW285449   1.166  10.302   4.000
27873SOL     OW85450   5.342  13.627   1.169
27873SOL    HW185451   5.385  13.600   1.250
27873SOL    HW285452   5.324  13.721   1.182
27874SOL     OW85453   3.657  11.602   5.249
27874SOL    HW185454   3.659  11.696   5.231
27874SOL    HW285455   3.571  11.573   5.218
27875SOL     OW85456   9.144   9.675   0.718
27875SOL    HW185457   9.236   9.703   0.722
27875SOL    HW285458   9.107   9.704   0.802
27876SOL     OW85459   8.639   9.842  14.633
27876SOL    HW185460   8.642   9.842  14.729
27876SOL    HW285461   8.715   9.894  14.607
27877SOL     OW85462   1.877   3.746   3.782
27877SOL    HW185463   1.824   3.824   3.764
27877SOL    HW285464   1.885   3.744   3.878
27878SOL     OW85465   8.250   7.091  14.454
27878SOL    HW185466   8.221   7.115  14.542
27878SOL    HW285467   8.339   7.057  14.467
27879SOL     OW85468   5.206  10.821   8.657
27879SOL    HW185469   5.196  10.908   8.696
27879SOL    HW285470   5.252  10.836   8.575
27880SOL     OW85471   1.446   3.094   3.792
27880SOL    HW185472   1.492   3.142   3.723
27880SOL    HW285473   1.516   3.061   3.848
27881SOL     OW85474   3.121   0.551   5.273
27881SOL    HW185475   3.028   0.550   5.251
27881SOL    HW285476   3.143   0.459   5.287
27882SOL     OW85477   5.286   6.627   2.826
27882SOL    HW185478   5.271   6.662   2.914
27882SOL    HW285479   5.381   6.619   2.819
27883SOL     OW85480   2.705   6.690   0.065
27883SOL    HW185481   2.717   6.625  14.879
27883SOL    HW285482   2.621   6.668   0.105
27884SOL     OW85483   8.717  12.790   1.351
27884SOL    HW185484   8.803  12.751   1.369
27884SOL    HW285485   8.654  12.730   1.391
27885SOL     OW85486   8.852   2.809   7.870
27885SOL    HW185487   8.838   2.828   7.778
27885SOL    HW285488   8.875   2.893   7.909
27886SOL     OW85489   1.455   1.913  12.544
27886SOL    HW185490   1.426   1.831  12.584
27886SOL    HW285491   1.501   1.887  12.465
27887SOL     OW85492  12.224   1.547   4.608
27887SOL    HW185493  12.186   1.491   4.540
27887SOL    HW285494  12.302   1.585   4.568
27888SOL     OW85495  10.246   3.171   7.508
27888SOL    HW185496  10.167   3.155   7.559
27888SOL    HW285497  10.214   3.209   7.426
27889SOL     OW85498   1.641   6.397   3.612
27889SOL    HW185499   1.717   6.454   3.622
27889SOL    HW285500   1.567   6.450   3.644
27890SOL     OW85501   5.416   6.492   7.877
27890SOL    HW185502   5.382   6.579   7.859
27890SOL    HW285503   5.447   6.497   7.967
27891SOL     OW85504   9.406  12.818  11.832
27891SOL    HW185505   9.370  12.892  11.881
27891SOL    HW285506   9.501  12.831  11.837
27892SOL     OW85507   1.411  14.056   7.041
27892SOL    HW185508   1.327  14.010   7.046
27892SOL    HW285509   1.457  14.028   7.120
27893SOL     OW85510   7.056   9.031   2.268
27893SOL    HW185511   7.028   8.956   2.216
27893SOL    HW285512   7.138   9.001   2.310
27894SOL     OW85513   5.283   0.386   5.992
27894SOL    HW185514   5.210   0.326   6.006
27894SOL    HW285515   5.354   0.331   5.959
27895SOL     OW85516  14.645   5.444   7.811
27895SOL    HW185517  14.561   5.459   7.853
27895SOL    HW285518  14.626   5.388   7.736
27896SOL     OW85519   1.551   3.736  13.382
27896SOL    HW185520   1.641   3.767  13.376
27896SOL    HW285521   1.498   3.815  13.379
27897SOL     OW85522   2.174  14.836   8.781
27897SOL    HW185523   2.229  14.813   8.856
27897SOL    HW285524   2.088  14.855   8.819
27898SOL     OW85525   9.753   5.549   0.383
27898SOL    HW185526   9.785   5.483   0.321
27898SOL    HW285527   9.710   5.498   0.451
27899SOL     OW85528   8.459   1.053  13.689
27899SOL    HW185529   8.376   1.014  13.664
27899SOL    HW285530   8.514   0.978  13.715
27900SOL     OW85531   5.897   1.092   5.246
27900SOL    HW185532   5.802   1.093   5.243
27900SOL    HW285533   5.922   1.009   5.205
27901SOL     OW85534  13.444   5.616   7.778
27901SOL    HW185535  13.514   5.650   7.722
27901SOL    HW285536  13.433   5.525   7.750
27902SOL     OW85537   9.728   0.653   0.046
27902SOL    HW185538   9.688   0.620   0.125
27902SOL    HW285539   9.772   0.734   0.074
27903SOL     OW85540   5.640   8.766   5.060
27903SOL    HW185541   5.629   8.675   5.034
27903SOL    HW285542   5.645   8.764   5.155
27904SOL     OW85543   4.021   7.609   0.440
27904SOL    HW185544   3.940   7.627   0.393
27904SOL    HW285545   4.056   7.695   0.462
27905SOL     OW85546   7.076   8.588  14.435
27905SOL    HW185547   7.054   8.602  14.527
27905SOL    HW285548   7.000   8.543  14.398
27906SOL     OW85549   8.667   9.082   0.063
27906SOL    HW185550   8.681   9.094   0.157
27906SOL    HW285551   8.703   8.995   0.044
27907SOL     OW85552   6.202  10.353   3.137
27907SOL    HW185553   6.223  10.441   3.108
27907SOL    HW285554   6.285  10.305   3.132
27908SOL     OW85555   5.897  11.286   1.516
27908SOL    HW185556   5.870  11.353   1.578
27908SOL    HW285557   5.954  11.227   1.566
27909SOL     OW85558   2.667   3.770  11.282
27909SOL    HW185559   2.761   3.768  11.264
27909SOL    HW285560   2.661   3.776  11.377
27910SOL     OW85561   1.167   1.473  12.761
27910SOL    HW185562   1.073   1.479  12.781
27910SOL    HW285563   1.175   1.395  12.706
27911SOL     OW85564   4.986  10.280  11.995
27911SOL    HW185565   4.903  10.323  12.014
27911SOL    HW285566   5.047  10.316  12.058
27912SOL     OW85567  12.103   7.052   8.417
27912SOL    HW185568  12.057   6.972   8.446
27912SOL    HW285569  12.035   7.104   8.374
27913SOL     OW85570  12.319  14.044  10.780
27913SOL    HW185571  12.354  13.956  10.794
27913SOL    HW285572  12.380  14.084  10.717
27914SOL     OW85573  14.223  10.894  14.323
27914SOL    HW185574  14.194  10.836  14.252
27914SOL    HW285575  14.169  10.972  14.313
27915SOL     OW85576   0.484   4.456   3.613
27915SOL    HW185577   0.501   4.384   3.674
27915SOL    HW285578   0.390   4.470   3.618
27916SOL     OW85579   7.294  13.841  14.330
27916SOL    HW185580   7.248  13.758  14.342
27916SOL    HW285581   7.283  13.887  14.413
27917SOL     OW85582   0.604  11.439   4.559
27917SOL    HW185583   0.626  11.377   4.489
27917SOL    HW285584   0.508  11.445   4.556
27918SOL     OW85585  10.027   5.868   3.527
27918SOL    HW185586  10.101   5.906   3.574
27918SOL    HW285587   9.996   5.798   3.584
27919SOL     OW85588   8.703  10.392   1.737
27919SOL    HW185589   8.693  10.482   1.706
27919SOL    HW285590   8.735  10.344   1.661
27920SOL     OW85591  12.994   7.502   2.173
27920SOL    HW185592  13.069   7.509   2.232
27920SOL    HW285593  13.002   7.578   2.115
27921SOL     OW85594  10.133  13.301  10.708
27921SOL    HW185595  10.158  13.217  10.668
27921SOL    HW285596  10.118  13.359  10.633
27922SOL     OW85597   3.068   7.351  12.297
27922SOL    HW185598   2.983   7.363  12.340
27922SOL    HW285599   3.077   7.257  12.288
27923SOL     OW85600  11.459  13.946  12.481
27923SOL    HW185601  11.381  13.995  12.508
27923SOL    HW285602  11.532  14.004  12.501
27924SOL     OW85603   4.430  13.827   2.167
27924SOL    HW185604   4.520  13.829   2.199
27924SOL    HW285605   4.378  13.794   2.240
27925SOL     OW85606  11.125   8.125   6.433
27925SOL    HW185607  11.149   8.165   6.516
27925SOL    HW285608  11.201   8.073   6.408
27926SOL     OW85609   2.808   5.395   9.471
27926SOL    HW185610   2.782   5.415   9.381
27926SOL    HW285611   2.875   5.460   9.492
27927SOL     OW85612  10.742  11.659   5.333
27927SOL    HW185613  10.702  11.735   5.377
27927SOL    HW285614  10.770  11.602   5.405
27928SOL     OW85615   6.091   8.836   9.554
27928SOL    HW185616   6.033   8.864   9.483
27928SOL    HW285617   6.180   8.846   9.518
27929SOL     OW85618  11.164   3.420   8.767
27929SOL    HW185619  11.243   3.464   8.798
27929SOL    HW285620  11.110   3.411   8.846
27930SOL     OW85621  10.802   7.891   2.188
27930SOL    HW185622  10.820   7.935   2.271
27930SOL    HW285623  10.870   7.824   2.181
27931SOL     OW85624   5.124  12.973   8.966
27931SOL    HW185625   5.156  12.924   9.042
27931SOL    HW285626   5.040  12.933   8.945
27932SOL     OW85627  13.364   0.838   6.374
27932SOL    HW185628  13.335   0.760   6.326
27932SOL    HW285629  13.366   0.811   6.465
27933SOL     OW85630   7.839   6.709   0.590
27933SOL    HW185631   7.883   6.626   0.569
27933SOL    HW285632   7.747   6.694   0.568
27934SOL     OW85633  12.499  12.691  12.399
27934SOL    HW185634  12.561  12.639  12.347
27934SOL    HW285635  12.519  12.782  12.377
27935SOL     OW85636   9.669   6.805  14.727
27935SOL    HW185637   9.677   6.814  14.822
27935SOL    HW285638   9.717   6.724  14.706
27936SOL     OW85639   8.307  13.883   0.654
27936SOL    HW185640   8.274  13.887   0.744
27936SOL    HW285641   8.327  13.791   0.640
27937SOL     OW85642   1.708   5.441   3.420
27937SOL    HW185643   1.677   5.526   3.451
27937SOL    HW285644   1.651   5.420   3.346
27938SOL     OW85645   5.980   7.339   0.401
27938SOL    HW185646   6.052   7.278   0.417
27938SOL    HW285647   5.993   7.408   0.466
27939SOL     OW85648   4.367   4.490  13.992
27939SOL    HW185649   4.335   4.451  13.911
27939SOL    HW285650   4.398   4.416  14.044
27940SOL     OW85651   3.049  13.245  13.311
27940SOL    HW185652   3.002  13.177  13.360
27940SOL    HW285653   3.139  13.240  13.343
27941SOL     OW85654  13.100   3.730   1.159
27941SOL    HW185655  13.109   3.728   1.063
27941SOL    HW285656  13.173   3.784   1.189
27942SOL     OW85657   6.457   1.098   2.843
27942SOL    HW185658   6.548   1.073   2.826
27942SOL    HW285659   6.459   1.193   2.851
27943SOL     OW85660   0.089  10.760   6.170
27943SOL    HW185661   0.008  10.785   6.126
27943SOL    HW285662   0.061  10.702   6.241
27944SOL     OW85663   1.636   0.208   2.716
27944SOL    HW185664   1.575   0.265   2.668
27944SOL    HW285665   1.716   0.259   2.723
27945SOL     OW85666  12.604   5.091   6.003
27945SOL    HW185667  12.645   5.176   6.022
27945SOL    HW285668  12.512   5.112   5.987
27946SOL     OW85669  14.591   5.354  11.142
27946SOL    HW185670  14.627   5.308  11.218
27946SOL    HW285671  14.618   5.302  11.067
27947SOL     OW85672   2.882   4.639  11.229
27947SOL    HW185673   2.872   4.557  11.277
27947SOL    HW285674   2.841   4.622  11.144
27948SOL     OW85675   5.101  13.134   6.498
27948SOL    HW185676   5.128  13.079   6.424
27948SOL    HW285677   5.077  13.072   6.567
27949SOL     OW85678   0.751   3.438   0.182
27949SOL    HW185679   0.803   3.477   0.252
27949SOL    HW285680   0.764   3.495   0.107
27950SOL     OW85681  10.671   9.805   7.454
27950SOL    HW185682  10.688   9.774   7.543
27950SOL    HW285683  10.596   9.863   7.464
27951SOL     OW85684   8.851   6.105   7.004
27951SOL    HW185685   8.765   6.108   7.045
27951SOL    HW285686   8.864   6.192   6.968
27952SOL     OW85687  11.517   1.608  10.697
27952SOL    HW185688  11.437   1.652  10.669
27952SOL    HW285689  11.527   1.633  10.789
27953SOL     OW85690  13.424   7.996   2.868
27953SOL    HW185691  13.377   7.915   2.888
27953SOL    HW285692  13.373   8.065   2.912
27954SOL     OW85693   9.632  13.974   4.018
27954SOL    HW185694   9.597  13.886   4.026
27954SOL    HW285695   9.578  14.027   4.076
27955SOL     OW85696  11.981  14.522   6.516
27955SOL    HW185697  11.995  14.496   6.607
27955SOL    HW285698  12.040  14.465   6.466
27956SOL     OW85699  11.029   2.395   3.733
27956SOL    HW185700  10.957   2.418   3.674
27956SOL    HW285701  10.987   2.342   3.801
27957SOL     OW85702   6.995  11.420   0.107
27957SOL    HW185703   6.973  11.506   0.070
27957SOL    HW285704   6.924  11.400   0.167
27958SOL     OW85705   3.589   1.470  11.384
27958SOL    HW185706   3.531   1.459  11.459
27958SOL    HW285707   3.557   1.548  11.340
27959SOL     OW85708   3.141  14.836   3.282
27959SOL    HW185709   3.170   0.010   3.210
27959SOL    HW285710   3.139  14.748   3.244
27960SOL     OW85711  14.005  14.439  12.717
27960SOL    HW185712  14.062  14.504  12.758
27960SOL    HW285713  14.065  14.384  12.667
27961SOL     OW85714   7.007   7.808   6.811
27961SOL    HW185715   6.912   7.806   6.817
27961SOL    HW285716   7.029   7.900   6.800
27962SOL     OW85717  12.258  13.939  11.743
27962SOL    HW185718  12.328  13.987  11.699
27962SOL    HW285719  12.197  14.007  11.772
27963SOL     OW85720   8.115   2.041   5.598
27963SOL    HW185721   8.184   2.077   5.653
27963SOL    HW285722   8.076   2.118   5.555
27964SOL     OW85723   5.979  13.682   3.312
27964SOL    HW185724   5.968  13.719   3.400
27964SOL    HW285725   6.073  13.685   3.296
27965SOL     OW85726  10.906   1.515   5.656
27965SOL    HW185727  10.915   1.504   5.750
27965SOL    HW285728  10.827   1.466   5.633
27966SOL     OW85729   9.194   1.367  13.807
27966SOL    HW185730   9.242   1.295  13.847
27966SOL    HW285731   9.244   1.387  13.728
27967SOL     OW85732   8.615  12.964   7.365
27967SOL    HW185733   8.637  13.053   7.337
27967SOL    HW285734   8.692  12.935   7.415
27968SOL     OW85735   8.467  10.961  13.435
27968SOL    HW185736   8.546  10.962  13.490
27968SOL    HW285737   8.408  10.899  13.479
27969SOL     OW85738   2.425  13.331   6.541
27969SOL    HW185739   2.518  13.353   6.535
27969SOL    HW285740   2.420  13.266   6.612
27970SOL     OW85741  13.964   5.029   8.074
27970SOL    HW185742  14.000   5.109   8.113
27970SOL    HW285743  13.909   4.992   8.143
27971SOL     OW85744  10.218  12.841   9.006
27971SOL    HW185745  10.129  12.878   9.003
27971SOL    HW285746  10.211  12.761   8.954
27972SOL     OW85747  11.469   8.890   3.094
27972SOL    HW185748  11.436   8.829   3.161
27972SOL    HW285749  11.420   8.970   3.109
27973SOL     OW85750  12.176   6.621   6.392
27973SOL    HW185751  12.184   6.626   6.297
27973SOL    HW285752  12.089   6.584   6.407
27974SOL     OW85753   7.768   2.567   3.883
27974SOL    HW185754   7.721   2.651   3.880
27974SOL    HW285755   7.860   2.592   3.885
27975SOL     OW85756   9.043  10.792  11.276
27975SOL    HW185757   9.007  10.860  11.332
27975SOL    HW285758   9.134  10.820  11.261
27976SOL     OW85759   9.300  14.345   9.234
27976SOL    HW185760   9.310  14.341   9.330
27976SOL    HW285761   9.252  14.426   9.219
27977SOL     OW85762  14.353   6.054   3.229
27977SOL    HW185763  14.301   6.070   3.308
27977SOL    HW285764  14.408   5.979   3.252
27978SOL     OW85765   9.464  14.026  12.124
27978SOL    HW185766   9.379  14.004  12.087
27978SOL    HW285767   9.492  13.946  12.169
27979SOL     OW85768   1.156  10.091   0.730
27979SOL    HW185769   1.078  10.039   0.748
27979SOL    HW285770   1.227  10.027   0.724
27980SOL     OW85771   0.913   3.336  10.179
27980SOL    HW185772   0.973   3.264  10.160
27980SOL    HW285773   0.966   3.415  10.171
27981SOL     OW85774   8.645   9.166  12.757
27981SOL    HW185775   8.676   9.221  12.685
27981SOL    HW285776   8.655   9.076  12.725
27982SOL     OW85777   9.864   4.552   4.141
27982SOL    HW185778   9.809   4.627   4.161
27982SOL    HW285779   9.803   4.484   4.112
27983SOL     OW85780   9.463  14.524  14.461
27983SOL    HW185781   9.413  14.456  14.505
27983SOL    HW285782   9.495  14.483  14.381
27984SOL     OW85783   7.213   0.979   7.612
27984SOL    HW185784   7.191   1.026   7.692
27984SOL    HW285785   7.168   1.027   7.542
27985SOL     OW85786   4.410  14.591  12.241
27985SOL    HW185787   4.498  14.626  12.224
27985SOL    HW285788   4.406  14.510  12.190
27986SOL     OW85789   4.405   9.602  10.034
27986SOL    HW185790   4.316   9.605   9.999
27986SOL    HW285791   4.407   9.669  10.102
27987SOL     OW85792   5.827   2.065  11.384
27987SOL    HW185793   5.899   2.003  11.368
27987SOL    HW285794   5.779   2.067  11.300
27988SOL     OW85795  13.353   7.748   4.722
27988SOL    HW185796  13.318   7.794   4.646
27988SOL    HW285797  13.443   7.726   4.698
27989SOL     OW85798  13.488   9.073   1.902
27989SOL    HW185799  13.533   9.147   1.862
27989SOL    HW285800  13.399   9.105   1.920
27990SOL     OW85801   4.556   0.600  10.601
27990SOL    HW185802   4.638   0.643  10.577
27990SOL    HW285803   4.503   0.670  10.640
27991SOL     OW85804   1.604   5.756   4.951
27991SOL    HW185805   1.602   5.829   5.013
27991SOL    HW285806   1.648   5.792   4.874
27992SOL     OW85807   7.313   3.475   9.155
27992SOL    HW185808   7.297   3.560   9.195
27992SOL    HW285809   7.225   3.439   9.139
27993SOL     OW85810   3.768   5.867   6.047
27993SOL    HW185811   3.735   5.856   5.958
27993SOL    HW285812   3.856   5.903   6.036
27994SOL     OW85813   9.850   5.389   8.628
27994SOL    HW185814   9.939   5.422   8.613
27994SOL    HW285815   9.848   5.370   8.722
27995SOL     OW85816  12.290   8.380   2.653
27995SOL    HW185817  12.385   8.393   2.647
27995SOL    HW285818  12.254   8.466   2.674
27996SOL     OW85819   0.523   8.413   9.703
27996SOL    HW185820   0.614   8.392   9.726
27996SOL    HW285821   0.483   8.440   9.785
27997SOL     OW85822   1.566   7.214   1.905
27997SOL    HW185823   1.658   7.205   1.929
27997SOL    HW285824   1.522   7.235   1.987
27998SOL     OW85825   6.057   6.208   1.451
27998SOL    HW185826   5.987   6.233   1.511
27998SOL    HW285827   6.108   6.288   1.438
27999SOL     OW85828   0.569  13.775  12.624
27999SOL    HW185829   0.631  13.740  12.560
27999SOL    HW285830   0.623  13.824  12.686
28000SOL     OW85831   5.685   6.015   3.669
28000SOL    HW185832   5.597   5.991   3.641
28000SOL    HW285833   5.674   6.049   3.758
28001SOL     OW85834   3.745   3.699   4.088
28001SOL    HW185835   3.742   3.788   4.122
28001SOL    HW285836   3.764   3.709   3.995
28002SOL     OW85837   7.453  10.583   9.518
28002SOL    HW185838   7.425  10.555   9.605
28002SOL    HW285839   7.385  10.644   9.489
28003SOL     OW85840  11.859  11.559  14.775
28003SOL    HW185841  11.782  11.519  14.735
28003SOL    HW285842  11.895  11.615  14.706
28004SOL     OW85843   1.543  13.657   0.293
28004SOL    HW185844   1.611  13.666   0.226
28004SOL    HW285845   1.559  13.728   0.355
28005SOL     OW85846   3.628   7.912   3.417
28005SOL    HW185847   3.642   7.917   3.511
28005SOL    HW285848   3.535   7.888   3.408
28006SOL     OW85849   2.685  13.701   9.957
28006SOL    HW185850   2.730  13.698   9.873
28006SOL    HW285851   2.650  13.613   9.969
28007SOL     OW85852   5.529   3.699   2.400
28007SOL    HW185853   5.483   3.629   2.353
28007SOL    HW285854   5.461   3.759   2.427
28008SOL     OW85855   0.834   8.388   2.610
28008SOL    HW185856   0.764   8.414   2.549
28008SOL    HW285857   0.893   8.463   2.613
28009SOL     OW85858  11.390  11.625   7.243
28009SOL    HW185859  11.364  11.545   7.198
28009SOL    HW285860  11.355  11.616   7.331
28010SOL     OW85861  13.726   8.174  12.806
28010SOL    HW185862  13.776   8.092  12.808
28010SOL    HW285863  13.761   8.221  12.730
28011SOL     OW85864   0.650   3.588   2.706
28011SOL    HW185865   0.705   3.510   2.707
28011SOL    HW285866   0.569   3.560   2.664
28012SOL     OW85867  10.786   4.950   8.086
28012SOL    HW185868  10.829   4.896   8.020
28012SOL    HW285869  10.755   4.888   8.152
28013SOL     OW85870   2.510   1.853   9.807
28013SOL    HW185871   2.423   1.871   9.843
28013SOL    HW285872   2.534   1.933   9.760
28014SOL     OW85873   4.738   1.443   6.814
28014SOL    HW185874   4.815   1.480   6.770
28014SOL    HW285875   4.737   1.485   6.900
28015SOL     OW85876  11.149  10.672  13.068
28015SOL    HW185877  11.194  10.736  13.014
28015SOL    HW285878  11.057  10.677  13.041
28016SOL     OW85879  14.327  12.055  13.799
28016SOL    HW185880  14.422  12.042  13.798
28016SOL    HW285881  14.315  12.139  13.844
28017SOL     OW85882  14.076   9.288  11.389
28017SOL    HW185883  14.015   9.220  11.419
28017SOL    HW285884  14.096   9.262  11.298
28018SOL     OW85885  10.944  11.993   7.336
28018SOL    HW185886  10.975  11.939   7.264
28018SOL    HW285887  10.934  11.932   7.409
28019SOL     OW85888  12.232   6.261  12.929
28019SOL    HW185889  12.193   6.337  12.973
28019SOL    HW285890  12.275   6.298  12.852
28020SOL     OW85891  10.886  12.329   7.961
28020SOL    HW185892  10.795  12.304   7.981
28020SOL    HW285893  10.928  12.247   7.934
28021SOL     OW85894   5.367   2.577   9.845
28021SOL    HW185895   5.342   2.669   9.852
28021SOL    HW285896   5.444   2.568   9.902
28022SOL     OW85897   8.108   3.370   3.249
28022SOL    HW185898   8.180   3.419   3.208
28022SOL    HW285899   8.036   3.432   3.253
28023SOL     OW85900   5.157  14.746   9.473
28023SOL    HW185901   5.074  14.723   9.515
28023SOL    HW285902   5.164  14.686   9.399
28024SOL     OW85903   2.022  11.931   5.391
28024SOL    HW185904   1.972  11.884   5.458
28024SOL    HW285905   2.062  12.004   5.438
28025SOL     OW85906   5.799   1.649  11.176
28025SOL    HW185907   5.800   1.557  11.203
28025SOL    HW285908   5.757   1.694  11.248
28026SOL     OW85909  13.807   8.463  13.431
28026SOL    HW185910  13.892   8.499  13.457
28026SOL    HW285911  13.744   8.531  13.453
28027SOL     OW85912  13.256  11.716  14.429
28027SOL    HW185913  13.204  11.706  14.349
28027SOL    HW285914  13.347  11.713  14.400
28028SOL     OW85915  13.252  14.035  10.921
28028SOL    HW185916  13.256  13.949  10.965
28028SOL    HW285917  13.159  14.047  10.901
28029SOL     OW85918   9.546  11.209   0.093
28029SOL    HW185919   9.599  11.152   0.148
28029SOL    HW285920   9.466  11.159   0.076
28030SOL     OW85921  11.812   3.488  11.923
28030SOL    HW185922  11.858   3.457  11.846
28030SOL    HW285923  11.737   3.429  11.933
28031SOL     OW85924   1.824   9.010   6.622
28031SOL    HW185925   1.888   9.075   6.593
28031SOL    HW285926   1.876   8.933   6.644
28032SOL     OW85927   5.617   3.012  11.026
28032SOL    HW185928   5.671   3.085  10.995
28032SOL    HW285929   5.532   3.027  10.985
28033SOL     OW85930  11.403   2.610  13.745
28033SOL    HW185931  11.486   2.653  13.721
28033SOL    HW285932  11.369   2.663  13.818
28034SOL     OW85933   3.089   5.373  12.807
28034SOL    HW185934   3.129   5.379  12.894
28034SOL    HW285935   3.093   5.280  12.785
28035SOL     OW85936   5.362   0.706   5.517
28035SOL    HW185937   5.413   0.787   5.523
28035SOL    HW285938   5.427   0.636   5.523
28036SOL     OW85939  14.552  14.696   5.909
28036SOL    HW185940  14.464  14.715   5.942
28036SOL    HW285941  14.603  14.678   5.988
28037SOL     OW85942  13.714   0.206   6.167
28037SOL    HW185943  13.784   0.270   6.177
28037SOL    HW285944  13.723   0.148   6.243
28038SOL     OW85945   2.102   2.932   3.768
28038SOL    HW185946   2.185   2.976   3.788
28038SOL    HW285947   2.111   2.906   3.676
28039SOL     OW85948   7.720   5.888   9.550
28039SOL    HW185949   7.780   5.962   9.562
28039SOL    HW285950   7.739   5.855   9.462
28040SOL     OW85951  11.137  13.194   0.568
28040SOL    HW185952  11.101  13.258   0.506
28040SOL    HW285953  11.212  13.239   0.608
28041SOL     OW85954   3.697  10.426   4.755
28041SOL    HW185955   3.683  10.342   4.800
28041SOL    HW285956   3.715  10.401   4.665
28042SOL     OW85957   7.432   4.984   1.603
28042SOL    HW185958   7.443   5.000   1.510
28042SOL    HW285959   7.440   4.889   1.613
28043SOL     OW85960   0.636   7.465   1.033
28043SOL    HW185961   0.725   7.432   1.021
28043SOL    HW285962   0.584   7.387   1.054
28044SOL     OW85963  13.564  11.153  11.569
28044SOL    HW185964  13.520  11.071  11.593
28044SOL    HW285965  13.575  11.147  11.474
28045SOL     OW85966   7.289   1.097   6.894
28045SOL    HW185967   7.223   1.130   6.955
28045SOL    HW285968   7.362   1.158   6.901
28046SOL     OW85969   2.073   8.944   2.709
28046SOL    HW185970   2.064   8.953   2.614
28046SOL    HW285971   1.985   8.921   2.740
28047SOL     OW85972  12.828   3.711   0.954
28047SOL    HW185973  12.839   3.678   1.043
28047SOL    HW285974  12.749   3.668   0.922
28048SOL     OW85975   2.923   6.645  11.301
28048SOL    HW185976   2.966   6.659  11.217
28048SOL    HW285977   2.987   6.676  11.366
28049SOL     OW85978   5.669   8.354   2.716
28049SOL    HW185979   5.745   8.410   2.702
28049SOL    HW285980   5.632   8.384   2.799
28050SOL     OW85981   0.836   0.223  13.072
28050SOL    HW185982   0.807   0.152  13.016
28050SOL    HW285983   0.858   0.294  13.012
28051SOL     OW85984   4.636  10.943  10.761
28051SOL    HW185985   4.727  10.940  10.791
28051SOL    HW285986   4.624  10.863  10.710
28052SOL     OW85987   5.811  12.166  14.424
28052SOL    HW185988   5.865  12.098  14.384
28052SOL    HW285989   5.874  12.227  14.464
28053SOL     OW85990  14.187   7.793  14.482
28053SOL    HW185991  14.225   7.711  14.513
28053SOL    HW285992  14.099   7.769  14.452
28054SOL     OW85993  10.132  11.656  13.281
28054SOL    HW185994  10.114  11.709  13.203
28054SOL    HW285995  10.081  11.576  13.269
28055SOL     OW85996   1.757   8.601   0.879
28055SOL    HW185997   1.784   8.655   0.804
28055SOL    HW285998   1.694   8.539   0.842
28056SOL     OW85999   9.510   6.096   2.855
28056SOL    HW186000   9.577   6.157   2.886
28056SOL    HW286001   9.432   6.117   2.906
28057SOL     OW86002   2.347  11.509   4.195
28057SOL    HW186003   2.282  11.446   4.226
28057SOL    HW286004   2.430  11.477   4.230
28058SOL     OW86005  10.986   6.983   3.742
28058SOL    HW186006  10.953   6.901   3.706
28058SOL    HW286007  11.049   7.014   3.677
28059SOL     OW86008   3.735   9.851   0.782
28059SOL    HW186009   3.786   9.841   0.862
28059SOL    HW286010   3.767   9.782   0.724
28060SOL     OW86011   6.494   6.616   3.811
28060SOL    HW186012   6.477   6.582   3.723
28060SOL    HW286013   6.555   6.689   3.798
28061SOL     OW86014   2.544   9.370   3.256
28061SOL    HW186015   2.580   9.295   3.209
28061SOL    HW286016   2.616   9.432   3.261
28062SOL     OW86017  10.734  10.957  10.796
28062SOL    HW186018  10.825  10.959  10.766
28062SOL    HW286019  10.738  10.912  10.880
28063SOL     OW86020   6.399  14.766  14.582
28063SOL    HW186021   6.409  14.823  14.658
28063SOL    HW286022   6.375  14.824  14.510
28064SOL     OW86023  10.343   6.203   9.195
28064SOL    HW186024  10.382   6.290   9.205
28064SOL    HW286025  10.326   6.195   9.101
28065SOL     OW86026   2.042   0.982  13.122
28065SOL    HW186027   1.955   0.979  13.162
28065SOL    HW286028   2.099   1.020  13.189
28066SOL     OW86029   7.628   4.387   8.517
28066SOL    HW186030   7.569   4.389   8.593
28066SOL    HW286031   7.572   4.363   8.444
28067SOL     OW86032   4.599   3.662   2.356
28067SOL    HW186033   4.572   3.745   2.395
28067SOL    HW286034   4.543   3.597   2.398
28068SOL     OW86035   5.659   7.826   1.267
28068SOL    HW186036   5.691   7.847   1.179
28068SOL    HW286037   5.727   7.861   1.325
28069SOL     OW86038  10.140  13.525  13.564
28069SOL    HW186039  10.074  13.551  13.500
28069SOL    HW286040  10.115  13.571  13.645
28070SOL     OW86041  11.715   4.799   9.620
28070SOL    HW186042  11.716   4.880   9.672
28070SOL    HW286043  11.782   4.813   9.553
28071SOL     OW86044   8.295   7.603   3.075
28071SOL    HW186045   8.258   7.595   2.987
28071SOL    HW286046   8.283   7.696   3.097
28072SOL     OW86047   2.432   0.951  13.544
28072SOL    HW186048   2.474   1.037  13.537
28072SOL    HW286049   2.436   0.930  13.638
28073SOL     OW86050   7.747   2.806   8.157
28073SOL    HW186051   7.683   2.849   8.101
28073SOL    HW286052   7.798   2.878   8.195
28074SOL     OW86053   9.320  14.584   4.162
28074SOL    HW186054   9.339  14.605   4.071
28074SOL    HW286055   9.382  14.515   4.185
28075SOL     OW86056   4.893   1.480   9.274
28075SOL    HW186057   4.879   1.574   9.263
28075SOL    HW286058   4.869   1.442   9.190
28076SOL     OW86059   7.061  12.665   6.576
28076SOL    HW186060   7.066  12.722   6.653
28076SOL    HW286061   7.006  12.592   6.603
28077SOL     OW86062  11.689   0.620   0.209
28077SOL    HW186063  11.750   0.693   0.222
28077SOL    HW286064  11.603   0.662   0.199
28078SOL     OW86065  11.440  11.078   2.923
28078SOL    HW186066  11.450  10.985   2.945
28078SOL    HW286067  11.528  11.115   2.934
28079SOL     OW86068  14.496   1.498   8.222
28079SOL    HW186069  14.527   1.578   8.180
28079SOL    HW286070  14.494   1.433   8.151
28080SOL     OW86071  11.702   8.322   2.058
28080SOL    HW186072  11.723   8.415   2.066
28080SOL    HW286073  11.739   8.296   1.973
28081SOL     OW86074   4.644  12.914  13.721
28081SOL    HW186075   4.627  12.892  13.812
28081SOL    HW286076   4.738  12.896  13.709
28082SOL     OW86077  10.781   4.849  14.373
28082SOL    HW186078  10.691   4.862  14.403
28082SOL    HW286079  10.773   4.792  14.297
28083SOL     OW86080   5.302  10.035  12.727
28083SOL    HW186081   5.378  10.002  12.775
28083SOL    HW286082   5.306   9.989  12.642
28084SOL     OW86083   8.646   9.709   6.603
28084SOL    HW186084   8.675   9.788   6.558
28084SOL    HW286085   8.553   9.702   6.581
28085SOL     OW86086   3.210   6.880   6.520
28085SOL    HW186087   3.240   6.789   6.525
28085SOL    HW286088   3.275   6.930   6.569
28086SOL     OW86089  14.264   0.992   5.133
28086SOL    HW186090  14.221   1.076   5.149
28086SOL    HW286091  14.206   0.927   5.172
28087SOL     OW86092   3.650   4.556  11.916
28087SOL    HW186093   3.611   4.621  11.857
28087SOL    HW286094   3.668   4.481  11.859
28088SOL     OW86095   7.945   5.917   1.833
28088SOL    HW186096   7.945   5.997   1.782
28088SOL    HW286097   7.901   5.853   1.778
28089SOL     OW86098   1.882   1.019  12.314
28089SOL    HW186099   1.945   0.947  12.311
28089SOL    HW286100   1.824   0.997  12.387
28090SOL     OW86101   9.321  10.330   5.260
28090SOL    HW186102   9.376  10.277   5.318
28090SOL    HW286103   9.373  10.408   5.242
28091SOL     OW86104   1.703  10.711   3.862
28091SOL    HW186105   1.620  10.756   3.844
28091SOL    HW286106   1.677  10.625   3.894
28092SOL     OW86107  10.832   9.514   3.385
28092SOL    HW186108  10.874   9.431   3.360
28092SOL    HW286109  10.742   9.506   3.355
28093SOL     OW86110  12.053  12.140   6.261
28093SOL    HW186111  12.067  12.136   6.355
28093SOL    HW286112  12.002  12.061   6.241
28094SOL     OW86113   3.046  10.089   5.675
28094SOL    HW186114   3.094  10.036   5.611
28094SOL    HW286115   2.969  10.121   5.628
28095SOL     OW86116  13.365  14.799   2.209
28095SOL    HW186117  13.455  14.814   2.237
28095SOL    HW286118  13.326  14.749   2.280
28096SOL     OW86119   0.187   2.338  14.116
28096SOL    HW186120   0.186   2.423  14.072
28096SOL    HW286121   0.118   2.288  14.072
28097SOL     OW86122   3.046  14.729   4.028
28097SOL    HW186123   3.114  14.792   4.051
28097SOL    HW286124   3.020  14.753   3.939
28098SOL     OW86125   4.231   4.621   2.290
28098SOL    HW186126   4.238   4.705   2.336
28098SOL    HW286127   4.151   4.629   2.238
28099SOL     OW86128  14.404  11.346   6.189
28099SOL    HW186129  14.308  11.343   6.186
28099SOL    HW286130  14.429  11.407   6.120
28100SOL     OW86131   5.360   3.166   3.864
28100SOL    HW186132   5.418   3.235   3.897
28100SOL    HW286133   5.388   3.152   3.774
28101SOL     OW86134   4.030   0.129   4.693
28101SOL    HW186135   4.037   0.218   4.728
28101SOL    HW286136   3.942   0.124   4.658
28102SOL     OW86137   4.256   7.436   6.116
28102SOL    HW186138   4.247   7.509   6.055
28102SOL    HW286139   4.257   7.476   6.203
28103SOL     OW86140   4.389   8.605   9.443
28103SOL    HW186141   4.444   8.547   9.390
28103SOL    HW286142   4.314   8.551   9.467
28104SOL     OW86143  12.956   5.052  13.755
28104SOL    HW186144  12.941   5.080  13.846
28104SOL    HW286145  13.040   5.093  13.731
28105SOL     OW86146   3.677   6.228   3.883
28105SOL    HW186147   3.729   6.150   3.899
28105SOL    HW286148   3.607   6.199   3.825
28106SOL     OW86149   9.455   2.987  12.855
28106SOL    HW186150   9.416   3.069  12.825
28106SOL    HW286151   9.494   2.948  12.777
28107SOL     OW86152   5.443   2.499   8.744
28107SOL    HW186153   5.518   2.439   8.742
28107SOL    HW286154   5.482   2.586   8.739
28108SOL     OW86155   0.004   2.118   7.686
28108SOL    HW186156   0.031   2.077   7.769
28108SOL    HW286157  14.791   2.125   7.692
28109SOL     OW86158  12.332  13.325  13.499
28109SOL    HW186159  12.411  13.279  13.470
28109SOL    HW286160  12.333  13.317  13.594
28110SOL     OW86161   1.258  13.014   2.448
28110SOL    HW186162   1.198  12.965   2.391
28110SOL    HW286163   1.202  13.050   2.516
28111SOL     OW86164   5.451   3.024   7.520
28111SOL    HW186165   5.534   3.015   7.568
28111SOL    HW286166   5.472   2.994   7.431
28112SOL     OW86167   3.497  11.740   3.778
28112SOL    HW186168   3.447  11.784   3.846
28112SOL    HW286169   3.582  11.784   3.778
28113SOL     OW86170  12.232   3.337  12.273
28113SOL    HW186171  12.160   3.274  12.264
28113SOL    HW286172  12.278   3.309  12.352
28114SOL     OW86173   0.325   8.497   3.004
28114SOL    HW186174   0.411   8.532   2.981
28114SOL    HW286175   0.342   8.414   3.046
28115SOL     OW86176  14.686  10.845   7.740
28115SOL    HW186177  14.657  10.936   7.741
28115SOL    HW286178  14.732  10.834   7.823
28116SOL     OW86179   2.901  13.286   7.251
28116SOL    HW186180   2.944  13.275   7.336
28116SOL    HW286181   2.841  13.359   7.264
28117SOL     OW86182   1.994   3.670   6.871
28117SOL    HW186183   2.067   3.624   6.912
28117SOL    HW286184   1.943   3.704   6.944
28118SOL     OW86185  13.713   0.643   5.309
28118SOL    HW186186  13.638   0.608   5.260
28118SOL    HW286187  13.738   0.721   5.260
28119SOL     OW86188   1.742   1.896   8.682
28119SOL    HW186189   1.663   1.874   8.633
28119SOL    HW286190   1.729   1.986   8.711
28120SOL     OW86191   0.813   9.293  13.726
28120SOL    HW186192   0.791   9.313  13.817
28120SOL    HW286193   0.861   9.210  13.731
28121SOL     OW86194  10.396   8.758   9.199
28121SOL    HW186195  10.429   8.835   9.245
28121SOL    HW286196  10.329   8.722   9.257
28122SOL     OW86197   6.763  10.659   2.763
28122SOL    HW186198   6.703  10.720   2.806
28122SOL    HW286199   6.746  10.669   2.670
28123SOL     OW86200   4.725   4.015   2.716
28123SOL    HW186201   4.798   3.961   2.744
28123SOL    HW286202   4.731   4.016   2.620
28124SOL     OW86203   4.422  11.882   0.399
28124SOL    HW186204   4.482  11.862   0.471
28124SOL    HW286205   4.393  11.796   0.367
28125SOL     OW86206   5.248   8.222   2.322
28125SOL    HW186207   5.258   8.148   2.261
28125SOL    HW286208   5.308   8.202   2.394
28126SOL     OW86209   3.644   4.457   8.944
28126SOL    HW186210   3.619   4.400   8.872
28126SOL    HW286211   3.644   4.400   9.021
28127SOL     OW86212  10.401  11.681   1.075
28127SOL    HW186213  10.306  11.676   1.083
28127SOL    HW286214  10.417  11.759   1.022
28128SOL     OW86215  13.882   5.336   6.704
28128SOL    HW186216  13.949   5.405   6.703
28128SOL    HW286217  13.924   5.261   6.661
28129SOL     OW86218   0.556   5.748   5.713
28129SOL    HW186219   0.507   5.780   5.789
28129SOL    HW286220   0.590   5.828   5.672
28130SOL     OW86221   2.299   1.612   7.513
28130SOL    HW186222   2.379   1.646   7.473
28130SOL    HW286223   2.321   1.603   7.606
28131SOL     OW86224  12.621   6.197  10.101
28131SOL    HW186225  12.599   6.132  10.168
28131SOL    HW286226  12.543   6.203  10.046
28132SOL     OW86227   5.128  10.833   5.922
28132SOL    HW186228   5.139  10.926   5.943
28132SOL    HW286229   5.195  10.788   5.973
28133SOL     OW86230  11.474   8.623   2.382
28133SOL    HW186231  11.430   8.544   2.414
28133SOL    HW286232  11.484   8.678   2.460
28134SOL     OW86233  14.714   1.593   5.704
28134SOL    HW186234  14.629   1.576   5.662
28134SOL    HW286235  14.704   1.560   5.793
28135SOL     OW86236  11.557  13.232   7.675
28135SOL    HW186237  11.470  13.193   7.680
28135SOL    HW286238  11.589  13.209   7.587
28136SOL     OW86239  13.364  11.074  11.164
28136SOL    HW186240  13.303  11.105  11.097
28136SOL    HW286241  13.324  10.993  11.196
28137SOL     OW86242   8.480  14.310   4.853
28137SOL    HW186243   8.512  14.300   4.763
28137SOL    HW286244   8.551  14.277   4.908
28138SOL     OW86245   3.519   0.557   7.138
28138SOL    HW186246   3.485   0.534   7.052
28138SOL    HW286247   3.596   0.501   7.149
28139SOL     OW86248  12.733   2.554   5.305
28139SOL    HW186249  12.773   2.475   5.270
28139SOL    HW286250  12.692   2.526   5.387
28140SOL     OW86251  14.226  14.254  13.334
28140SOL    HW186252  14.154  14.236  13.274
28140SOL    HW286253  14.185  14.259  13.421
28141SOL     OW86254  14.870  11.318  12.645
28141SOL    HW186255   0.049  11.338  12.574
28141SOL    HW286256  14.881  11.225  12.661
28142SOL     OW86257   0.940  11.954   3.106
28142SOL    HW186258   0.886  12.006   3.165
28142SOL    HW286259   1.029  11.989   3.118
28143SOL     OW86260   7.819   4.200   6.444
28143SOL    HW186261   7.831   4.207   6.349
28143SOL    HW286262   7.740   4.147   6.454
28144SOL     OW86263  13.668   2.207  12.247
28144SOL    HW186264  13.680   2.290  12.294
28144SOL    HW286265  13.689   2.140  12.312
28145SOL     OW86266  12.047   6.189  11.016
28145SOL    HW186267  11.974   6.181  11.078
28145SOL    HW286268  12.105   6.115  11.037
28146SOL     OW86269   2.449  13.649   6.547
28146SOL    HW186270   2.507  13.594   6.599
28146SOL    HW286271   2.367  13.651   6.596
28147SOL     OW86272   9.299   6.716  10.121
28147SOL    HW186273   9.302   6.795  10.175
28147SOL    HW286274   9.231   6.662  10.162
28148SOL     OW86275   3.245  10.383   1.900
28148SOL    HW186276   3.250  10.457   1.961
28148SOL    HW286277   3.220  10.308   1.954
28149SOL     OW86278   1.703   8.215   8.342
28149SOL    HW186279   1.644   8.276   8.297
28149SOL    HW286280   1.788   8.259   8.342
28150SOL     OW86281  10.200   8.609   4.463
28150SOL    HW186282  10.270   8.651   4.512
28150SOL    HW286283  10.170   8.676   4.401
28151SOL     OW86284   7.743   7.948  13.481
28151SOL    HW186285   7.824   7.991  13.453
28151SOL    HW286286   7.696   7.932  13.399
28152SOL     OW86287   7.852   4.584   9.781
28152SOL    HW186288   7.861   4.491   9.804
28152SOL    HW286289   7.847   4.629   9.865
28153SOL     OW86290   7.284   8.721   1.947
28153SOL    HW186291   7.212   8.660   1.956
28153SOL    HW286292   7.245   8.799   1.908
28154SOL     OW86293   0.047   5.626  10.016
28154SOL    HW186294   0.131   5.626  10.060
28154SOL    HW286295   0.042   5.540   9.973
28155SOL     OW86296  13.833  11.099   4.947
28155SOL    HW186297  13.922  11.131   4.951
28155SOL    HW286298  13.829  11.049   4.865
28156SOL     OW86299  12.815  14.022   9.440
28156SOL    HW186300  12.825  13.958   9.511
28156SOL    HW286301  12.884  14.001   9.378
28157SOL     OW86302   2.808   0.901   1.619
28157SOL    HW186303   2.772   0.813   1.632
28157SOL    HW286304   2.835   0.928   1.706
28158SOL     OW86305   9.204   0.367  12.057
28158SOL    HW186306   9.188   0.290  12.112
28158SOL    HW286307   9.185   0.338  11.968
28159SOL     OW86308  13.687   2.125   4.859
28159SOL    HW186309  13.640   2.191   4.808
28159SOL    HW286310  13.642   2.043   4.839
28160SOL     OW86311  14.522  12.238   9.648
28160SOL    HW186312  14.568  12.242   9.732
28160SOL    HW286313  14.431  12.219   9.672
28161SOL     OW86314   5.780   0.800   0.035
28161SOL    HW186315   5.799   0.792   0.128
28161SOL    HW286316   5.866   0.799  14.875
28162SOL     OW86317  13.320  14.568   6.387
28162SOL    HW186318  13.271  14.554   6.468
28162SOL    HW286319  13.273  14.639   6.343
28163SOL     OW86320   6.091  14.288   9.748
28163SOL    HW186321   6.187  14.281   9.744
28163SOL    HW286322   6.068  14.243   9.829
28164SOL     OW86323   5.794  10.024   2.289
28164SOL    HW186324   5.717   9.988   2.333
28164SOL    HW286325   5.781  10.119   2.291
28165SOL     OW86326  10.791   5.328   2.458
28165SOL    HW186327  10.879   5.357   2.433
28165SOL    HW286328  10.805   5.255   2.518
28166SOL     OW86329   5.816  11.175  11.903
28166SOL    HW186330   5.890  11.123  11.934
28166SOL    HW286331   5.783  11.220  11.981
28167SOL     OW86332  13.823   7.260   3.080
28167SOL    HW186333  13.874   7.180   3.081
28167SOL    HW286334  13.833   7.293   2.990
28168SOL     OW86335   8.325   5.804   5.790
28168SOL    HW186336   8.408   5.804   5.839
28168SOL    HW286337   8.262   5.764   5.850
28169SOL     OW86338   5.808   4.162  14.099
28169SOL    HW186339   5.824   4.191  14.189
28169SOL    HW286340   5.773   4.073  14.109
28170SOL     OW86341   7.827  12.030  13.071
28170SOL    HW186342   7.839  12.109  13.018
28170SOL    HW286343   7.774  11.973  13.015
28171SOL     OW86344   7.003   9.115  12.691
28171SOL    HW186345   6.954   9.070  12.622
28171SOL    HW286346   6.978   9.069  12.771
28172SOL     OW86347  10.155   0.296   4.880
28172SOL    HW186348  10.249   0.282   4.890
28172SOL    HW286349  10.121   0.211   4.853
28173SOL     OW86350   4.195  14.631  13.311
28173SOL    HW186351   4.123  14.693  13.319
28173SOL    HW286352   4.166  14.554  13.359
28174SOL     OW86353  13.598   3.560  11.921
28174SOL    HW186354  13.511   3.524  11.906
28174SOL    HW286355  13.657   3.505  11.869
28175SOL     OW86356  11.778   5.968   6.535
28175SOL    HW186357  11.686   5.951   6.515
28175SOL    HW286358  11.775   6.036   6.603
28176SOL     OW86359  12.412   6.675  11.440
28176SOL    HW186360  12.322   6.655  11.413
28176SOL    HW286361  12.421   6.769  11.424
28177SOL     OW86362   7.682   0.287   7.699
28177SOL    HW186363   7.668   0.255   7.788
28177SOL    HW286364   7.771   0.324   7.700
28178SOL     OW86365  13.088  12.355  10.843
28178SOL    HW186366  13.116  12.368  10.934
28178SOL    HW286367  13.169  12.340  10.795
28179SOL     OW86368  10.314   7.062  14.081
28179SOL    HW186369  10.301   6.967  14.071
28179SOL    HW286370  10.307   7.077  14.175
28180SOL     OW86371   9.682   4.873  11.088
28180SOL    HW186372   9.681   4.915  11.002
28180SOL    HW286373   9.668   4.944  11.150
28181SOL     OW86374   7.940   8.395   6.538
28181SOL    HW186375   7.859   8.351   6.511
28181SOL    HW286376   7.944   8.381   6.633
28182SOL     OW86377  13.548   7.530  11.347
28182SOL    HW186378  13.579   7.588  11.278
28182SOL    HW286379  13.554   7.583  11.427
28183SOL     OW86380   6.195   4.351  13.244
28183SOL    HW186381   6.287   4.350  13.219
28183SOL    HW286382   6.157   4.276  13.197
28184SOL     OW86383   1.396   7.113   8.922
28184SOL    HW186384   1.359   7.179   8.864
28184SOL    HW286385   1.339   7.037   8.912
28185SOL     OW86386   0.594   8.080  13.439
28185SOL    HW186387   0.505   8.045  13.440
28185SOL    HW286388   0.639   8.032  13.508
28186SOL     OW86389   0.062  12.672   5.384
28186SOL    HW186390   0.109  12.592   5.362
28186SOL    HW286391   0.068  12.727   5.306
28187SOL     OW86392   3.313  14.478   8.754
28187SOL    HW186393   3.337  14.390   8.723
28187SOL    HW286394   3.217  14.476   8.759
28188SOL     OW86395   7.860   7.235   3.352
28188SOL    HW186396   7.792   7.247   3.285
28188SOL    HW286397   7.822   7.271   3.432
28189SOL     OW86398   1.599  14.856  14.742
28189SOL    HW186399   1.635   0.057  14.773
28189SOL    HW286400   1.632  14.847  14.653
28190SOL     OW86401   2.935   2.642   2.756
28190SOL    HW186402   3.028   2.619   2.762
28190SOL    HW286403   2.934   2.735   2.732
28191SOL     OW86404   1.531   8.979   0.522
28191SOL    HW186405   1.449   8.946   0.484
28191SOL    HW286406   1.502   9.033   0.596
28192SOL     OW86407   2.132  12.764   9.604
28192SOL    HW186408   2.065  12.730   9.664
28192SOL    HW286409   2.100  12.850   9.579
28193SOL     OW86410  11.831  12.898   7.077
28193SOL    HW186411  11.868  12.985   7.094
28193SOL    HW286412  11.832  12.855   7.163
28194SOL     OW86413  14.684   2.129   5.284
28194SOL    HW186414  14.607   2.172   5.320
28194SOL    HW286415  14.651   2.075   5.213
28195SOL     OW86416   0.843  14.775  10.787
28195SOL    HW186417   0.792  14.726  10.852
28195SOL    HW286418   0.884  14.707  10.734
28196SOL     OW86419  10.802   2.777  13.828
28196SOL    HW186420  10.890   2.812  13.826
28196SOL    HW286421  10.812   2.687  13.861
28197SOL     OW86422   8.360   0.752   9.306
28197SOL    HW186423   8.413   0.816   9.354
28197SOL    HW286424   8.313   0.804   9.242
28198SOL     OW86425   3.438  11.037  11.306
28198SOL    HW186426   3.370  10.972  11.290
28198SOL    HW286427   3.500  10.993  11.365
28199SOL     OW86428  10.192   2.482  10.272
28199SOL    HW186429  10.122   2.439  10.322
28199SOL    HW286430  10.267   2.424  10.281
28200SOL     OW86431   8.685   7.585   0.969
28200SOL    HW186432   8.736   7.612   1.046
28200SOL    HW286433   8.599   7.560   1.005
28201SOL     OW86434   4.090   5.816  12.418
28201SOL    HW186435   4.009   5.772  12.442
28201SOL    HW286436   4.156   5.779  12.478
28202SOL     OW86437   2.586   6.149   0.374
28202SOL    HW186438   2.508   6.106   0.410
28202SOL    HW286439   2.553   6.228   0.332
28203SOL     OW86440   5.366   2.155   9.849
28203SOL    HW186441   5.383   2.062   9.835
28203SOL    HW286442   5.433   2.200   9.796
28204SOL     OW86443   3.525   6.267  11.901
28204SOL    HW186444   3.607   6.249  11.855
28204SOL    HW286445   3.550   6.272  11.994
28205SOL     OW86446   9.180  10.707  12.756
28205SOL    HW186447   9.162  10.622  12.797
28205SOL    HW286448   9.232  10.754  12.822
28206SOL     OW86449   1.780   8.190   1.440
28206SOL    HW186450   1.747   8.275   1.471
28206SOL    HW286451   1.710   8.158   1.382
28207SOL     OW86452   6.632   0.470   6.605
28207SOL    HW186453   6.613   0.436   6.518
28207SOL    HW286454   6.720   0.508   6.597
28208SOL     OW86455   0.922   0.900   1.568
28208SOL    HW186456   0.847   0.893   1.508
28208SOL    HW286457   0.918   0.991   1.599
28209SOL     OW86458   9.837   0.637  11.573
28209SOL    HW186459   9.807   0.586  11.498
28209SOL    HW286460   9.798   0.592  11.649
28210SOL     OW86461  10.279   3.146   5.936
28210SOL    HW186462  10.315   3.106   5.857
28210SOL    HW286463  10.192   3.177   5.909
28211SOL     OW86464   3.146   3.044   9.980
28211SOL    HW186465   3.150   2.993  10.061
28211SOL    HW286466   3.062   3.090   9.984
28212SOL     OW86467  11.522  14.748   0.067
28212SOL    HW186468  11.497  14.663   0.030
28212SOL    HW286469  11.535  14.731   0.160
28213SOL     OW86470   3.184  13.293   3.483
28213SOL    HW186471   3.235  13.350   3.541
28213SOL    HW286472   3.229  13.298   3.398
28214SOL     OW86473   3.814   7.345   7.670
28214SOL    HW186474   3.786   7.411   7.606
28214SOL    HW286475   3.856   7.277   7.618
28215SOL     OW86476   1.386   1.071   4.978
28215SOL    HW186477   1.461   1.120   5.012
28215SOL    HW286478   1.416   1.040   4.892
28216SOL     OW86479   8.072   0.431   5.280
28216SOL    HW186480   7.978   0.423   5.265
28216SOL    HW286481   8.113   0.384   5.207
28217SOL     OW86482  12.298   6.299   7.573
28217SOL    HW186483  12.290   6.338   7.659
28217SOL    HW286484  12.213   6.313   7.532
28218SOL     OW86485   0.583   1.037   7.664
28218SOL    HW186486   0.644   0.990   7.607
28218SOL    HW286487   0.576   0.982   7.742
28219SOL     OW86488   9.846  11.858   4.312
28219SOL    HW186489   9.847  11.953   4.307
28219SOL    HW286490   9.806  11.839   4.397
28220SOL     OW86491  12.035   5.026  10.670
28220SOL    HW186492  12.062   5.106  10.624
28220SOL    HW286493  12.002   5.057  10.754
28221SOL     OW86494   9.072  14.511   4.091
28221SOL    HW186495   9.167  14.517   4.105
28221SOL    HW286496   9.034  14.535   4.176
28222SOL     OW86497  12.720   4.231  11.846
28222SOL    HW186498  12.703   4.141  11.875
28222SOL    HW286499  12.651   4.283  11.886
28223SOL     OW86500   1.196   3.597   5.449
28223SOL    HW186501   1.148   3.559   5.522
28223SOL    HW286502   1.286   3.565   5.460
28224SOL     OW86503   2.368   1.137  12.341
28224SOL    HW186504   2.285   1.183  12.334
28224SOL    HW286505   2.421   1.169  12.268
28225SOL     OW86506   0.821  14.441  14.588
28225SOL    HW186507   0.751  14.378  14.607
28225SOL    HW286508   0.801  14.516  14.646
28226SOL     OW86509   9.577   4.684  11.295
28226SOL    HW186510   9.571   4.733  11.213
28226SOL    HW286511   9.643   4.731  11.347
28227SOL     OW86512  12.344   0.851  11.698
28227SOL    HW186513  12.303   0.864  11.612
28227SOL    HW286514  12.435   0.878  11.685
28228SOL     OW86515   0.119   1.579  11.122
28228SOL    HW186516   0.120   1.494  11.166
28228SOL    HW286517   0.055   1.631  11.171
28229SOL     OW86518  14.422  10.435   5.088
28229SOL    HW186519  14.517  10.424   5.087
28229SOL    HW286520  14.406  10.510   5.030
28230SOL     OW86521   4.769  14.632   5.812
28230SOL    HW186522   4.829  14.561   5.836
28230SOL    HW286523   4.704  14.634   5.883
28231SOL     OW86524   1.988   2.554   8.406
28231SOL    HW186525   2.043   2.629   8.427
28231SOL    HW286526   2.049   2.492   8.363
28232SOL     OW86527   3.022   3.753  14.543
28232SOL    HW186528   2.997   3.663  14.564
28232SOL    HW286529   3.075   3.782  14.617
28233SOL     OW86530   0.308   3.033  13.189
28233SOL    HW186531   0.347   3.095  13.128
28233SOL    HW286532   0.217   3.062  13.198
28234SOL     OW86533  10.368   0.977   1.351
28234SOL    HW186534  10.322   0.904   1.392
28234SOL    HW286535  10.351   1.051   1.410
28235SOL     OW86536   2.735   9.468  11.125
28235SOL    HW186537   2.829   9.475  11.140
28235SOL    HW286538   2.702   9.557  11.138
28236SOL     OW86539   4.591  14.693  11.456
28236SOL    HW186540   4.616  14.697  11.364
28236SOL    HW286541   4.649  14.754  11.500
28237SOL     OW86542  12.067   7.916   1.208
28237SOL    HW186543  12.084   7.971   1.284
28237SOL    HW286544  12.069   7.976   1.134
28238SOL     OW86545   5.663   0.715  12.486
28238SOL    HW186546   5.670   0.792  12.430
28238SOL    HW286547   5.707   0.740  12.567
28239SOL     OW86548   2.260   5.686   0.905
28239SOL    HW186549   2.277   5.781   0.902
28239SOL    HW286550   2.339   5.646   0.869
28240SOL     OW86551  11.790  12.395   1.668
28240SOL    HW186552  11.753  12.327   1.612
28240SOL    HW286553  11.838  12.346   1.735
28241SOL     OW86554   6.088   5.239  14.095
28241SOL    HW186555   6.144   5.187  14.038
28241SOL    HW286556   6.125   5.327  14.093
28242SOL     OW86557   6.645   6.276  13.613
28242SOL    HW186558   6.611   6.347  13.558
28242SOL    HW286559   6.587   6.202  13.594
28243SOL     OW86560   5.959   1.687   5.821
28243SOL    HW186561   5.955   1.747   5.746
28243SOL    HW286562   5.878   1.638   5.816
28244SOL     OW86563  12.250  13.405  10.478
28244SOL    HW186564  12.231  13.478  10.418
28244SOL    HW286565  12.341  13.381  10.458
28245SOL     OW86566  12.467   2.187   7.714
28245SOL    HW186567  12.508   2.228   7.790
28245SOL    HW286568  12.441   2.100   7.744
28246SOL     OW86569  10.506   4.615  12.566
28246SOL    HW186570  10.463   4.530  12.553
28246SOL    HW286571  10.599   4.594  12.577
28247SOL     OW86572   4.885   2.421   1.566
28247SOL    HW186573   4.820   2.478   1.607
28247SOL    HW286574   4.956   2.480   1.541
28248SOL     OW86575  10.818  14.401   4.571
28248SOL    HW186576  10.835  14.314   4.534
28248SOL    HW286577  10.858  14.398   4.658
28249SOL     OW86578  12.271   5.446  12.990
28249SOL    HW186579  12.279   5.413  12.900
28249SOL    HW286580  12.336   5.398  13.040
28250SOL     OW86581   1.609  13.094   9.152
28250SOL    HW186582   1.568  13.078   9.237
28250SOL    HW286583   1.701  13.072   9.165
28251SOL     OW86584  12.146  14.421   8.531
28251SOL    HW186585  12.179  14.423   8.441
28251SOL    HW286586  12.071  14.481   8.531
28252SOL     OW86587   1.690   9.506   9.107
28252SOL    HW186588   1.638   9.536   9.032
28252SOL    HW286589   1.781   9.509   9.077
28253SOL     OW86590   3.292   1.845   5.775
28253SOL    HW186591   3.316   1.794   5.698
28253SOL    HW286592   3.373   1.855   5.824
28254SOL     OW86593   8.549  10.196   1.842
28254SOL    HW186594   8.619  10.260   1.840
28254SOL    HW286595   8.524  10.185   1.750
28255SOL     OW86596   6.412   9.947   8.891
28255SOL    HW186597   6.500   9.911   8.904
28255SOL    HW286598   6.397  10.002   8.968
28256SOL     OW86599   2.254  10.763   0.849
28256SOL    HW186600   2.276  10.856   0.852
28256SOL    HW286601   2.306  10.723   0.918
28257SOL     OW86602   0.236  10.579  11.669
28257SOL    HW186603   0.145  10.572  11.697
28257SOL    HW286604   0.244  10.514  11.599
28258SOL     OW86605   7.785  14.549   5.538
28258SOL    HW186606   7.838  14.554   5.459
28258SOL    HW286607   7.709  14.497   5.512
28259SOL     OW86608   2.381  10.930   8.405
28259SOL    HW186609   2.406  10.995   8.470
28259SOL    HW286610   2.403  10.846   8.446
28260SOL     OW86611  12.282   8.662   2.385
28260SOL    HW186612  12.239   8.746   2.403
28260SOL    HW286613  12.262   8.608   2.461
28261SOL     OW86614   1.751   1.629  14.243
28261SOL    HW186615   1.828   1.664  14.197
28261SOL    HW286616   1.685   1.618  14.175
28262SOL     OW86617   5.646   1.680   2.575
28262SOL    HW186618   5.720   1.638   2.532
28262SOL    HW286619   5.582   1.694   2.506
28263SOL     OW86620  11.359   9.988   3.099
28263SOL    HW186621  11.368   9.982   3.004
28263SOL    HW286622  11.308  10.067   3.113
28264SOL     OW86623   4.027   2.475   7.895
28264SOL    HW186624   4.090   2.420   7.849
28264SOL    HW286625   4.000   2.424   7.971
28265SOL     OW86626  13.464   9.142   9.002
28265SOL    HW186627  13.519   9.123   8.925
28265SOL    HW286628  13.399   9.205   8.969
28266SOL     OW86629   9.388   4.073   4.874
28266SOL    HW186630   9.322   4.138   4.850
28266SOL    HW286631   9.464   4.095   4.820
28267SOL     OW86632   8.019   9.194   6.792
28267SOL    HW186633   8.046   9.199   6.883
28267SOL    HW286634   8.072   9.124   6.754
28268SOL     OW86635   1.678   8.669  11.346
28268SOL    HW186636   1.593   8.702  11.316
28268SOL    HW286637   1.742   8.722  11.299
28269SOL     OW86638  14.510   8.664   9.899
28269SOL    HW186639  14.560   8.720   9.959
28269SOL    HW286640  14.572   8.640   9.831
28270SOL     OW86641   8.641   5.696   6.603
28270SOL    HW186642   8.611   5.649   6.681
28270SOL    HW286643   8.622   5.788   6.622
28271SOL     OW86644   7.844   3.154  11.545
28271SOL    HW186645   7.897   3.078  11.522
28271SOL    HW286646   7.821   3.140  11.637
28272SOL     OW86647   8.717   1.212  10.965
28272SOL    HW186648   8.811   1.190  10.961
28272SOL    HW286649   8.699   1.257  10.883
28273SOL     OW86650  12.554  10.969  13.356
28273SOL    HW186651  12.498  11.039  13.390
28273SOL    HW286652  12.499  10.924  13.292
28274SOL     OW86653  13.794   3.057  14.459
28274SOL    HW186654  13.786   3.064  14.554
28274SOL    HW286655  13.788   2.963  14.442
28275SOL     OW86656   0.175  13.312   1.241
28275SOL    HW186657   0.107  13.272   1.186
28275SOL    HW286658   0.185  13.252   1.314
28276SOL     OW86659   9.614   3.146  13.954
28276SOL    HW186660   9.544   3.159  13.891
28276SOL    HW286661   9.647   3.234  13.972
28277SOL     OW86662   7.952   6.842  14.807
28277SOL    HW186663   7.997   6.855   0.009
28277SOL    HW286664   8.006   6.890  14.744
28278SOL     OW86665  12.811   7.681   8.846
28278SOL    HW186666  12.828   7.647   8.758
28278SOL    HW286667  12.795   7.775   8.832
28279SOL     OW86668   1.467  11.383   5.113
28279SOL    HW186669   1.493  11.291   5.115
28279SOL    HW286670   1.373  11.382   5.098
28280SOL     OW86671  11.935  10.747  11.270
28280SOL    HW186672  11.872  10.764  11.340
28280SOL    HW286673  11.883  10.754  11.190
28281SOL     OW86674   4.699  14.630   4.949
28281SOL    HW186675   4.765  14.577   4.905
28281SOL    HW286676   4.707  14.716   4.908
28282SOL     OW86677  14.307   9.480   7.166
28282SOL    HW186678  14.283   9.461   7.257
28282SOL    HW286679  14.384   9.536   7.173
28283SOL     OW86680  10.655   0.087   0.231
28283SOL    HW186681  10.609   0.109   0.150
28283SOL    HW286682  10.599   0.123   0.300
28284SOL     OW86683   3.389   3.113   4.183
28284SOL    HW186684   3.452   3.130   4.113
28284SOL    HW286685   3.410   3.177   4.251
28285SOL     OW86686   8.262   3.177  13.414
28285SOL    HW186687   8.286   3.266  13.385
28285SOL    HW286688   8.273   3.179  13.509
28286SOL     OW86689   4.069   8.730   0.102
28286SOL    HW186690   3.978   8.742   0.131
28286SOL    HW286691   4.102   8.819   0.090
28287SOL     OW86692   5.604   9.914   2.425
28287SOL    HW186693   5.581   9.825   2.398
28287SOL    HW286694   5.521   9.953   2.452
28288SOL     OW86695   2.254  14.326   5.584
28288SOL    HW186696   2.252  14.245   5.635
28288SOL    HW286697   2.333  14.371   5.616
28289SOL     OW86698   3.158   8.658   5.127
28289SOL    HW186699   3.207   8.653   5.045
28289SOL    HW286700   3.220   8.693   5.191
28290SOL     OW86701  10.429   1.899   1.000
28290SOL    HW186702  10.489   1.894   1.074
28290SOL    HW286703  10.426   1.810   0.965
28291SOL     OW86704  12.602  13.680  11.346
28291SOL    HW186705  12.589  13.745  11.277
28291SOL    HW286706  12.523  13.686  11.400
28292SOL     OW86707   9.141  12.710   9.915
28292SOL    HW186708   9.215  12.769   9.927
28292SOL    HW286709   9.180  12.626   9.892
28293SOL     OW86710   8.443   8.509   6.214
28293SOL    HW186711   8.349   8.516   6.198
28293SOL    HW286712   8.484   8.556   6.141
28294SOL     OW86713  12.471   5.359   1.287
28294SOL    HW186714  12.422   5.411   1.223
28294SOL    HW286715  12.524   5.299   1.234
28295SOL     OW86716   1.802   5.310   8.124
28295SOL    HW186717   1.868   5.359   8.171
28295SOL    HW286718   1.754   5.262   8.192
28296SOL     OW86719   8.554  12.589   6.820
28296SOL    HW186720   8.628  12.536   6.790
28296SOL    HW286721   8.565  12.673   6.776
28297SOL     OW86722   6.233  11.180   2.863
28297SOL    HW186723   6.214  11.213   2.951
28297SOL    HW286724   6.314  11.225   2.838
28298SOL     OW86725  10.728   7.119   4.884
28298SOL    HW186726  10.805   7.063   4.870
28298SOL    HW286727  10.745   7.197   4.831
28299SOL     OW86728  11.069   1.693   8.881
28299SOL    HW186729  11.104   1.679   8.969
28299SOL    HW286730  10.974   1.699   8.894
28300SOL     OW86731   8.486   2.802  11.094
28300SOL    HW186732   8.562   2.758  11.130
28300SOL    HW286733   8.521   2.861  11.027
28301SOL     OW86734  13.795   8.752  13.485
28301SOL    HW186735  13.725   8.740  13.420
28301SOL    HW286736  13.771   8.833  13.530
28302SOL     OW86737   5.231   6.217   3.617
28302SOL    HW186738   5.286   6.198   3.541
28302SOL    HW286739   5.262   6.303   3.647
28303SOL     OW86740   8.127  14.441   8.773
28303SOL    HW186741   8.035  14.416   8.766
28303SOL    HW286742   8.173  14.379   8.715
28304SOL     OW86743  10.072   1.430  12.042
28304SOL    HW186744  10.085   1.515  12.000
28304SOL    HW286745  10.046   1.452  12.132
28305SOL     OW86746   8.824   1.770   4.308
28305SOL    HW186747   8.742   1.738   4.271
28305SOL    HW286748   8.822   1.864   4.293
28306SOL     OW86749   0.713  14.265   8.877
28306SOL    HW186750   0.738  14.231   8.963
28306SOL    HW286751   0.746  14.355   8.876
28307SOL     OW86752  12.771  11.360  11.140
28307SOL    HW186753  12.685  11.374  11.101
28307SOL    HW286754  12.834  11.391  11.075
28308SOL     OW86755  12.141   8.239   2.826
28308SOL    HW186756  12.192   8.308   2.783
28308SOL    HW286757  12.195   8.213   2.901
28309SOL     OW86758   1.026   6.888  13.561
28309SOL    HW186759   1.086   6.922  13.628
28309SOL    HW286760   1.070   6.909  13.478
28310SOL     OW86761   1.648   6.736  11.954
28310SOL    HW186762   1.702   6.815  11.951
28310SOL    HW286763   1.710   6.665  11.968
28311SOL     OW86764   7.308   4.213  13.974
28311SOL    HW186765   7.255   4.182  14.048
28311SOL    HW286766   7.384   4.253  14.015
28312SOL     OW86767   8.582   7.533   5.973
28312SOL    HW186768   8.628   7.575   6.046
28312SOL    HW286769   8.650   7.487   5.925
28313SOL     OW86770  14.506  11.951   9.845
28313SOL    HW186771  14.418  11.986   9.834
28313SOL    HW286772  14.501  11.898   9.924
28314SOL     OW86773  12.784   4.434   6.261
28314SOL    HW186774  12.787   4.338   6.264
28314SOL    HW286775  12.703   4.454   6.216
28315SOL     OW86776  14.095   8.096   7.501
28315SOL    HW186777  14.101   8.092   7.405
28315SOL    HW286778  14.019   8.042   7.522
28316SOL     OW86779   6.186   4.659   8.364
28316SOL    HW186780   6.123   4.707   8.416
28316SOL    HW286781   6.138   4.635   8.284
28317SOL     OW86782   5.782  12.596   5.018
28317SOL    HW186783   5.810  12.677   4.977
28317SOL    HW286784   5.802  12.607   5.111
28318SOL     OW86785  12.420   6.379   9.178
28318SOL    HW186786  12.479   6.415   9.245
28318SOL    HW286787  12.471   6.310   9.135
28319SOL     OW86788   7.462  10.193  12.892
28319SOL    HW186789   7.528  10.235  12.948
28319SOL    HW286790   7.502  10.110  12.866
28320SOL     OW86791   9.910   2.674   0.289
28320SOL    HW186792   9.908   2.711   0.377
28320SOL    HW286793   9.872   2.586   0.299
28321SOL     OW86794   1.230   3.192   5.876
28321SOL    HW186795   1.143   3.202   5.837
28321SOL    HW286796   1.289   3.238   5.815
28322SOL     OW86797   8.581   1.800   5.983
28322SOL    HW186798   8.601   1.891   5.965
28322SOL    HW286799   8.666   1.758   5.995
28323SOL     OW86800   1.981   8.479   6.983
28323SOL    HW186801   1.970   8.450   6.892
28323SOL    HW286802   2.027   8.407   7.026
28324SOL     OW86803   3.343   5.712   4.624
28324SOL    HW186804   3.366   5.801   4.650
28324SOL    HW286805   3.282   5.682   4.691
28325SOL     OW86806   0.955   0.978   2.335
28325SOL    HW186807   0.934   1.024   2.417
28325SOL    HW286808   1.024   1.032   2.295
28326SOL     OW86809   0.558   1.125   2.119
28326SOL    HW186810   0.613   1.071   2.062
28326SOL    HW286811   0.599   1.212   2.115
28327SOL     OW86812   3.481  13.473   5.793
28327SOL    HW186813   3.403  13.442   5.747
28327SOL    HW286814   3.523  13.394   5.826
28328SOL     OW86815  10.690  11.917   3.030
28328SOL    HW186816  10.635  11.968   2.971
28328SOL    HW286817  10.674  11.826   3.005
28329SOL     OW86818  13.840   4.103   0.817
28329SOL    HW186819  13.757   4.133   0.779
28329SOL    HW286820  13.871   4.177   0.868
28330SOL     OW86821  11.417   4.641  14.237
28330SOL    HW186822  11.428   4.623  14.331
28330SOL    HW286823  11.490   4.597  14.195
28331SOL     OW86824   7.685   0.339  10.090
28331SOL    HW186825   7.733   0.273  10.140
28331SOL    HW286826   7.741   0.359  10.016
28332SOL     OW86827   9.299   7.453   7.431
28332SOL    HW186828   9.325   7.443   7.523
28332SOL    HW286829   9.239   7.528   7.430
28333SOL     OW86830  13.429  10.434  10.173
28333SOL    HW186831  13.514  10.396  10.195
28333SOL    HW286832  13.415  10.411  10.081
28334SOL     OW86833   1.597   3.236   0.002
28334SOL    HW186834   1.572   3.232   0.094
28334SOL    HW286835   1.566   3.322  14.855
28335SOL     OW86836  11.639  14.486  10.480
28335SOL    HW186837  11.704  14.430  10.437
28335SOL    HW286838  11.659  14.574  10.448
28336SOL     OW86839  12.131   4.630  10.352
28336SOL    HW186840  12.080   4.686  10.410
28336SOL    HW286841  12.157   4.688  10.280
28337SOL     OW86842   8.362   1.080   5.947
28337SOL    HW186843   8.408   1.149   5.900
28337SOL    HW286844   8.419   1.059   6.021
28338SOL     OW86845  14.821   1.803   3.451
28338SOL    HW186846   0.017   1.757   3.481
28338SOL    HW286847  14.837   1.823   3.359
28339SOL     OW86848  12.679   7.458   2.901
28339SOL    HW186849  12.702   7.402   2.975
28339SOL    HW286850  12.635   7.400   2.839
28340SOL     OW86851  10.306   6.278   4.318
28340SOL    HW186852  10.270   6.366   4.306
28340SOL    HW286853  10.304   6.238   4.231
28341SOL     OW86854   6.989   9.008   4.277
28341SOL    HW186855   7.039   8.927   4.272
28341SOL    HW286856   6.913   8.986   4.331
28342SOL     OW86857  12.717  13.588   8.636
28342SOL    HW186858  12.704  13.517   8.699
28342SOL    HW286859  12.720  13.543   8.551
28343SOL     OW86860   5.235   6.086  11.596
28343SOL    HW186861   5.207   6.174  11.623
28343SOL    HW286862   5.328   6.083  11.617
28344SOL     OW86863   9.064   1.984   5.197
28344SOL    HW186864   9.145   2.017   5.236
28344SOL    HW286865   9.006   2.060   5.194
28345SOL     OW86866  13.945  14.697   8.267
28345SOL    HW186867  14.020  14.638   8.255
28345SOL    HW286868  13.868  14.639   8.264
28346SOL     OW86869   4.948  12.557   2.264
28346SOL    HW186870   4.873  12.510   2.227
28346SOL    HW286871   5.021  12.496   2.254
28347SOL     OW86872   4.947   3.441   5.383
28347SOL    HW186873   5.022   3.500   5.385
28347SOL    HW286874   4.986   3.354   5.380
28348SOL     OW86875  14.325  11.517   1.989
28348SOL    HW186876  14.356  11.608   1.982
28348SOL    HW286877  14.401  11.464   1.967
28349SOL     OW86878  12.601  12.483  13.449
28349SOL    HW186879  12.648  12.516  13.372
28349SOL    HW286880  12.646  12.523  13.523
28350SOL     OW86881  10.318   9.522  10.027
28350SOL    HW186882  10.364   9.605  10.043
28350SOL    HW286883  10.227   9.540  10.053
28351SOL     OW86884   4.484  10.745   3.400
28351SOL    HW186885   4.557  10.754   3.462
28351SOL    HW286886   4.406  10.744   3.455
28352SOL     OW86887   5.137   9.874   4.902
28352SOL    HW186888   5.201   9.934   4.865
28352SOL    HW286889   5.160   9.867   4.994
28353SOL     OW86890   9.954   6.823  12.834
28353SOL    HW186891   9.939   6.918  12.832
28353SOL    HW286892   9.986   6.802  12.747
28354SOL     OW86893   8.176  13.968   0.439
28354SOL    HW186894   8.217  13.928   0.516
28354SOL    HW286895   8.127  13.898   0.398
28355SOL     OW86896   1.795  13.326  14.358
28355SOL    HW186897   1.733  13.390  14.324
28355SOL    HW286898   1.741  13.260  14.401
28356SOL     OW86899   7.312   4.861   3.118
28356SOL    HW186900   7.396   4.907   3.123
28356SOL    HW286901   7.288   4.844   3.210
28357SOL     OW86902   7.605   7.833  11.015
28357SOL    HW186903   7.690   7.790  11.016
28357SOL    HW286904   7.563   7.800  10.935
28358SOL     OW86905   4.782   7.739   6.778
28358SOL    HW186906   4.748   7.828   6.775
28358SOL    HW286907   4.830   7.734   6.861
28359SOL     OW86908   2.475  12.644   7.002
28359SOL    HW186909   2.423  12.575   7.045
28359SOL    HW286910   2.544  12.665   7.065
28360SOL     OW86911   9.999   8.755   8.991
28360SOL    HW186912  10.062   8.825   9.011
28360SOL    HW286913   9.957   8.737   9.075
28361SOL     OW86914   4.438   4.901  11.664
28361SOL    HW186915   4.499   4.876  11.594
28361SOL    HW286916   4.469   4.853  11.741
28362SOL     OW86917   8.499   4.188   3.906
28362SOL    HW186918   8.577   4.235   3.879
28362SOL    HW286919   8.531   4.104   3.939
28363SOL     OW86920   8.296  10.381   4.551
28363SOL    HW186921   8.342  10.370   4.468
28363SOL    HW286922   8.207  10.403   4.525
28364SOL     OW86923   1.260   4.031   0.538
28364SOL    HW186924   1.209   4.110   0.557
28364SOL    HW286925   1.195   3.962   0.532
28365SOL     OW86926  14.753   5.421   1.500
28365SOL    HW186927  14.722   5.477   1.571
28365SOL    HW286928  14.699   5.444   1.425
28366SOL     OW86929   0.923   1.630   8.076
28366SOL    HW186930   0.942   1.721   8.055
28366SOL    HW286931   0.945   1.581   7.997
28367SOL     OW86932   5.204   9.714  13.753
28367SOL    HW186933   5.291   9.755  13.756
28367SOL    HW286934   5.218   9.632  13.705
28368SOL     OW86935   2.613   0.889   5.641
28368SOL    HW186936   2.672   0.863   5.570
28368SOL    HW286937   2.541   0.826   5.636
28369SOL     OW86938  10.691  14.525  12.336
28369SOL    HW186939  10.725  14.582  12.267
28369SOL    HW286940  10.720  14.437  12.311
28370SOL     OW86941  10.003   1.295   1.750
28370SOL    HW186942  10.059   1.232   1.704
28370SOL    HW286943  10.011   1.272   1.842
28371SOL     OW86944   7.691   5.549   2.215
28371SOL    HW186945   7.780   5.519   2.195
28371SOL    HW286946   7.676   5.524   2.306
28372SOL     OW86947   8.416   2.207  10.844
28372SOL    HW186948   8.451   2.120  10.861
28372SOL    HW286949   8.324   2.202  10.871
28373SOL     OW86950   5.394  14.453   8.208
28373SOL    HW186951   5.486  14.427   8.208
28373SOL    HW286952   5.348  14.376   8.242
28374SOL     OW86953   0.035   1.324   4.637
28374SOL    HW186954   0.040   1.410   4.595
28374SOL    HW286955   0.122   1.311   4.675
28375SOL     OW86956   7.378  13.710   7.986
28375SOL    HW186957   7.394  13.645   7.917
28375SOL    HW286958   7.430  13.786   7.959
28376SOL     OW86959   9.465   8.633   7.774
28376SOL    HW186960   9.383   8.660   7.731
28376SOL    HW286961   9.461   8.537   7.775
28377SOL     OW86962   5.801  11.081  10.550
28377SOL    HW186963   5.819  11.163  10.504
28377SOL    HW286964   5.841  11.014  10.495
28378SOL     OW86965  12.490  11.289   5.949
28378SOL    HW186966  12.571  11.238   5.939
28378SOL    HW286967  12.455  11.260   6.034
28379SOL     OW86968   8.119  12.290  11.296
28379SOL    HW186969   8.050  12.240  11.252
28379SOL    HW286970   8.094  12.381  11.285
28380SOL     OW86971   9.879   7.452   1.920
28380SOL    HW186972   9.806   7.393   1.943
28380SOL    HW286973   9.855   7.536   1.960
28381SOL     OW86974   4.042  14.187   6.737
28381SOL    HW186975   4.118  14.157   6.689
28381SOL    HW286976   3.985  14.110   6.743
28382SOL     OW86977   9.107   0.846   5.758
28382SOL    HW186978   9.128   0.839   5.665
28382SOL    HW286979   9.158   0.776   5.800
28383SOL     OW86980  11.289  10.573  12.624
28383SOL    HW186981  11.369  10.530  12.655
28383SOL    HW286982  11.311  10.605  12.537
28384SOL     OW86983   1.692   0.192   3.099
28384SOL    HW186984   1.693   0.280   3.064
28384SOL    HW286985   1.744   0.141   3.038
28385SOL     OW86986   8.387   8.962   8.860
28385SOL    HW186987   8.405   9.033   8.922
28385SOL    HW286988   8.292   8.948   8.868
28386SOL     OW86989  13.048   0.214  12.920
28386SOL    HW186990  12.953   0.218  12.913
28386SOL    HW286991  13.077   0.179  12.835
28387SOL     OW86992  13.606   5.610   9.012
28387SOL    HW186993  13.644   5.640   9.094
28387SOL    HW286994  13.677   5.564   8.968
28388SOL     OW86995   4.174  14.187   9.535
28388SOL    HW186996   4.189  14.152   9.447
28388SOL    HW286997   4.187  14.112   9.592
28389SOL     OW86998   1.059   5.874   9.963
28389SOL    HW186999   1.007   5.883   9.883
28389SOL    HW287000   1.143   5.839   9.934
28390SOL     OW87001   1.615  13.517   9.742
28390SOL    HW187002   1.629  13.612   9.745
28390SOL    HW287003   1.695  13.483   9.702
28391SOL     OW87004   0.592   0.513  12.372
28391SOL    HW187005   0.604   0.458  12.295
28391SOL    HW287006   0.509   0.558  12.356
28392SOL     OW87007  11.106   7.276  13.516
28392SOL    HW187008  11.105   7.343  13.448
28392SOL    HW287009  11.080   7.196  13.470
28393SOL     OW87010   3.172   8.069   0.917
28393SOL    HW187011   3.184   8.123   0.838
28393SOL    HW287012   3.083   8.035   0.909
28394SOL     OW87013  13.620   9.960  11.844
28394SOL    HW187014  13.595   9.896  11.776
28394SOL    HW287015  13.576  10.041  11.818
28395SOL     OW87016   8.721   6.198  10.423
28395SOL    HW187017   8.694   6.179  10.333
28395SOL    HW287018   8.797   6.256  10.413
28396SOL     OW87019   0.285   6.606   0.989
28396SOL    HW187020   0.235   6.617   1.070
28396SOL    HW287021   0.321   6.693   0.971
28397SOL     OW87022   0.894   9.525  10.131
28397SOL    HW187023   0.831   9.568  10.074
28397SOL    HW287024   0.841   9.475  10.193
28398SOL     OW87025   2.257  13.359   9.689
28398SOL    HW187026   2.284  13.278   9.731
28398SOL    HW287027   2.219  13.411   9.759
28399SOL     OW87028   4.856   5.217   8.268
28399SOL    HW187029   4.872   5.156   8.196
28399SOL    HW287030   4.934   5.211   8.322
28400SOL     OW87031   0.004   8.139   5.622
28400SOL    HW187032   0.062   8.206   5.659
28400SOL    HW287033   0.009   8.067   5.684
28401SOL     OW87034  14.255   0.266   4.224
28401SOL    HW187035  14.176   0.305   4.263
28401SOL    HW287036  14.260   0.179   4.263
28402SOL     OW87037  10.190   6.806  14.053
28402SOL    HW187038  10.096   6.822  14.069
28402SOL    HW287039  10.192   6.728  13.998
28403SOL     OW87040   6.718  11.099   0.856
28403SOL    HW187041   6.686  11.165   0.918
28403SOL    HW287042   6.779  11.046   0.908
28404SOL     OW87043   4.383   5.986  12.318
28404SOL    HW187044   4.345   6.074  12.317
28404SOL    HW287045   4.351   5.946  12.237
28405SOL     OW87046  14.568   9.279  11.819
28405SOL    HW187047  14.634   9.321  11.764
28405SOL    HW287048  14.544   9.346  11.883
28406SOL     OW87049   3.610  11.505   3.805
28406SOL    HW187050   3.688  11.466   3.764
28406SOL    HW287051   3.584  11.575   3.745
28407SOL     OW87052   3.148   3.109  12.087
28407SOL    HW187053   3.054   3.101  12.102
28407SOL    HW287054   3.184   3.138  12.171
28408SOL     OW87055   2.151  13.638  12.029
28408SOL    HW187056   2.069  13.615  12.073
28408SOL    HW287057   2.215  13.647  12.101
28409SOL     OW87058   1.554   2.580  11.814
28409SOL    HW187059   1.641   2.618  11.807
28409SOL    HW287060   1.540   2.536  11.730
28410SOL     OW87061  12.039  11.502  13.734
28410SOL    HW187062  11.990  11.532  13.658
28410SOL    HW287063  12.119  11.554  13.734
28411SOL     OW87064   7.797  10.799   0.250
28411SOL    HW187065   7.818  10.707   0.230
28411SOL    HW287066   7.806  10.805   0.345
28412SOL     OW87067   4.318   9.207  13.674
28412SOL    HW187068   4.322   9.130  13.731
28412SOL    HW287069   4.360   9.277  13.724
28413SOL     OW87070   6.127   5.694  10.126
28413SOL    HW187071   6.182   5.746  10.068
28413SOL    HW287072   6.062   5.653  10.068
28414SOL     OW87073   3.313   7.056  14.085
28414SOL    HW187074   3.329   7.078  14.177
28414SOL    HW287075   3.393   7.010  14.057
28415SOL     OW87076   7.097  13.441   8.299
28415SOL    HW187077   7.164  13.457   8.366
28415SOL    HW287078   7.138  13.471   8.218
28416SOL     OW87079   9.593   7.009   7.477
28416SOL    HW187080   9.663   7.062   7.516
28416SOL    HW287081   9.512   7.053   7.502
28417SOL     OW87082   7.851   8.786   4.608
28417SOL    HW187083   7.802   8.706   4.628
28417SOL    HW287084   7.804   8.854   4.656
28418SOL     OW87085   9.625  11.946  13.025
28418SOL    HW187086   9.596  11.961  12.936
28418SOL    HW287087   9.576  11.869  13.054
28419SOL     OW87088   5.870   7.370   2.499
28419SOL    HW187089   5.872   7.438   2.566
28419SOL    HW287090   5.864   7.417   2.416
28420SOL     OW87091   1.028  12.045   6.770
28420SOL    HW187092   1.008  11.982   6.701
28420SOL    HW287093   1.030  12.130   6.726
28421SOL     OW87094  11.763   2.950  11.202
28421SOL    HW187095  11.826   2.958  11.273
28421SOL    HW287096  11.722   3.037  11.198
28422SOL     OW87097  10.912   4.016   8.510
28422SOL    HW187098  10.923   4.086   8.575
28422SOL    HW287099  10.820   4.022   8.484
28423SOL     OW87100  12.399  14.250  13.160
28423SOL    HW187101  12.492  14.233  13.151
28423SOL    HW287102  12.393  14.343  13.181
28424SOL     OW87103   1.436  14.315   2.043
28424SOL    HW187104   1.514  14.369   2.052
28424SOL    HW287105   1.450  14.265   1.963
28425SOL     OW87106   4.623  12.157   8.911
28425SOL    HW187107   4.586  12.083   8.960
28425SOL    HW287108   4.587  12.235   8.954
28426SOL     OW87109   0.556   1.736  12.275
28426SOL    HW187110   0.515   1.741  12.189
28426SOL    HW287111   0.489   1.769  12.335
28427SOL     OW87112  14.337  10.402   9.089
28427SOL    HW187113  14.344  10.307   9.098
28427SOL    HW287114  14.427  10.430   9.070
28428SOL     OW87115   1.251  14.012  14.153
28428SOL    HW187116   1.259  14.106  14.168
28428SOL    HW287117   1.270  13.973  14.238
28429SOL     OW87118   0.657   1.319  10.913
28429SOL    HW187119   0.665   1.286  10.824
28429SOL    HW287120   0.565   1.342  10.922
28430SOL     OW87121   7.018   4.080   6.484
28430SOL    HW187122   7.084   4.149   6.487
28430SOL    HW287123   6.944   4.116   6.534
28431SOL     OW87124   5.669   5.484   2.749
28431SOL    HW187125   5.685   5.420   2.679
28431SOL    HW287126   5.573   5.488   2.755
28432SOL     OW87127   8.592   8.034   0.292
28432SOL    HW187128   8.512   7.992   0.260
28432SOL    HW287129   8.641   7.963   0.333
28433SOL     OW87130  10.435   6.739  11.680
28433SOL    HW187131  10.468   6.661  11.635
28433SOL    HW287132  10.342   6.722  11.693
28434SOL     OW87133   1.173   7.154   1.226
28434SOL    HW187134   1.218   7.204   1.158
28434SOL    HW287135   1.178   7.063   1.196
28435SOL     OW87136   2.902  11.760   5.487
28435SOL    HW187137   2.949  11.682   5.458
28435SOL    HW287138   2.969  11.816   5.526
28436SOL     OW87139   7.344   2.502   1.664
28436SOL    HW187140   7.263   2.470   1.625
28436SOL    HW287141   7.412   2.484   1.598
28437SOL     OW87142  11.948   0.280   1.506
28437SOL    HW187143  11.979   0.299   1.417
28437SOL    HW287144  11.977   0.355   1.558
28438SOL     OW87145  13.869  10.559  13.567
28438SOL    HW187146  13.842  10.525  13.482
28438SOL    HW287147  13.960  10.586  13.554
28439SOL     OW87148   7.824  13.392   8.893
28439SOL    HW187149   7.793  13.319   8.840
28439SOL    HW287150   7.876  13.446   8.834
28440SOL     OW87151   6.778   7.456   3.215
28440SOL    HW187152   6.741   7.503   3.290
28440SOL    HW287153   6.717   7.384   3.199
28441SOL     OW87154   5.407   0.587   6.969
28441SOL    HW187155   5.370   0.674   6.982
28441SOL    HW287156   5.489   0.588   7.017
28442SOL     OW87157   8.597   8.776   8.763
28442SOL    HW187158   8.555   8.768   8.677
28442SOL    HW287159   8.527   8.806   8.821
28443SOL     OW87160   0.686   5.825   6.018
28443SOL    HW187161   0.650   5.739   6.042
28443SOL    HW287162   0.610   5.875   5.987
28444SOL     OW87163  10.026   9.725  14.743
28444SOL    HW187164   9.980   9.807  14.726
28444SOL    HW287165  10.023   9.715  14.838
28445SOL     OW87166   7.439  10.033   3.377
28445SOL    HW187167   7.345  10.047   3.387
28445SOL    HW287168   7.467  10.099   3.313
28446SOL     OW87169   9.253   8.268   1.011
28446SOL    HW187170   9.253   8.186   0.961
28446SOL    HW287171   9.311   8.326   0.962
28447SOL     OW87172  11.961   5.193   6.087
28447SOL    HW187173  11.973   5.098   6.086
28447SOL    HW287174  11.900   5.208   6.159
28448SOL     OW87175  14.172   1.137  13.937
28448SOL    HW187176  14.124   1.100  14.011
28448SOL    HW287177  14.186   1.229  13.962
28449SOL     OW87178   7.328   6.126   1.158
28449SOL    HW187179   7.421   6.149   1.168
28449SOL    HW287180   7.300   6.175   1.081
28450SOL     OW87181  12.200   1.998   8.384
28450SOL    HW187182  12.293   1.982   8.395
28450SOL    HW287183  12.186   2.087   8.416
28451SOL     OW87184   4.553   8.427   9.249
28451SOL    HW187185   4.550   8.334   9.272
28451SOL    HW287186   4.552   8.428   9.154
28452SOL     OW87187   5.640   1.828   7.001
28452SOL    HW187188   5.716   1.870   7.042
28452SOL    HW287189   5.568   1.842   7.062
28453SOL     OW87190   8.042  13.264   2.814
28453SOL    HW187191   8.121  13.248   2.763
28453SOL    HW287192   8.074  13.295   2.899
28454SOL     OW87193  10.405   5.582  12.502
28454SOL    HW187194  10.341   5.646  12.471
28454SOL    HW287195  10.444   5.623  12.578
28455SOL     OW87196  13.172   5.848   9.569
28455SOL    HW187197  13.119   5.782   9.525
28455SOL    HW287198  13.211   5.899   9.498
28456SOL     OW87199  14.652   5.476   9.148
28456SOL    HW187200  14.657   5.557   9.097
28456SOL    HW287201  14.565   5.440   9.127
28457SOL     OW87202   1.576   8.071   1.303
28457SOL    HW187203   1.524   8.148   1.328
28457SOL    HW287204   1.512   8.008   1.272
28458SOL     OW87205   1.097   7.357   0.530
28458SOL    HW187206   1.135   7.438   0.494
28458SOL    HW287207   1.172   7.306   0.560
28459SOL     OW87208  11.922   1.492   5.791
28459SOL    HW187209  11.840   1.524   5.828
28459SOL    HW287210  11.948   1.559   5.728
28460SOL     OW87211  12.486   7.532   3.672
28460SOL    HW187212  12.393   7.555   3.671
28460SOL    HW287213  12.507   7.513   3.580
28461SOL     OW87214  14.144   5.865  12.661
28461SOL    HW187215  14.090   5.835  12.733
28461SOL    HW287216  14.234   5.844  12.688
28462SOL     OW87217  14.465  12.892   6.727
28462SOL    HW187218  14.484  12.949   6.802
28462SOL    HW287219  14.423  12.815   6.765
28463SOL     OW87220   6.895  13.902   7.334
28463SOL    HW187221   6.948  13.902   7.413
28463SOL    HW287222   6.919  13.984   7.289
28464SOL     OW87223  12.872   8.254  12.197
28464SOL    HW187224  12.851   8.251  12.290
28464SOL    HW287225  12.823   8.182  12.158
28465SOL     OW87226  12.572  14.585  11.105
28465SOL    HW187227  12.633  14.518  11.135
28465SOL    HW287228  12.624  14.642  11.048
28466SOL     OW87229   8.837   0.479   6.241
28466SOL    HW187230   8.927   0.457   6.265
28466SOL    HW287231   8.825   0.440   6.154
28467SOL     OW87232   9.476   9.344  13.692
28467SOL    HW187233   9.423   9.366  13.768
28467SOL    HW287234   9.535   9.275  13.723
28468SOL     OW87235   0.380   7.069  11.925
28468SOL    HW187236   0.367   6.975  11.937
28468SOL    HW287237   0.424   7.077  11.840
28469SOL     OW87238   0.574  10.261   0.987
28469SOL    HW187239   0.599  10.282   0.897
28469SOL    HW287240   0.564  10.347   1.030
28470SOL     OW87241   7.110  10.239   7.994
28470SOL    HW187242   7.055  10.215   7.919
28470SOL    HW287243   7.139  10.328   7.975
28471SOL     OW87244   9.050   3.157  10.092
28471SOL    HW187245   9.106   3.147  10.015
28471SOL    HW287246   8.961   3.154  10.057
28472SOL     OW87247   6.753   3.709   1.011
28472SOL    HW187248   6.790   3.650   0.945
28472SOL    HW287249   6.713   3.780   0.960
28473SOL     OW87250   2.703  14.049   7.622
28473SOL    HW187251   2.645  14.000   7.681
28473SOL    HW287252   2.768  13.984   7.595
28474SOL     OW87253   4.517   1.390  11.603
28474SOL    HW187254   4.540   1.348  11.520
28474SOL    HW287255   4.556   1.477  11.597
28475SOL     OW87256   5.687  14.370  14.377
28475SOL    HW187257   5.601  14.410  14.386
28475SOL    HW287258   5.747  14.431  14.422
28476SOL     OW87259   4.246   5.612   2.851
28476SOL    HW187260   4.249   5.565   2.934
28476SOL    HW287261   4.328   5.589   2.807
28477SOL     OW87262   4.847   1.929  14.731
28477SOL    HW187263   4.831   1.836  14.715
28477SOL    HW287264   4.942   1.937  14.736
28478SOL     OW87265  13.707   5.881   5.146
28478SOL    HW187266  13.679   5.789   5.145
28478SOL    HW287267  13.633   5.928   5.183
28479SOL     OW87268   9.641   0.459   5.254
28479SOL    HW187269   9.715   0.435   5.310
28479SOL    HW287270   9.668   0.542   5.214
28480SOL     OW87271   8.693  12.320   9.298
28480SOL    HW187272   8.650  12.397   9.335
28480SOL    HW287273   8.635  12.292   9.226
28481SOL     OW87274   8.561  14.150   5.885
28481SOL    HW187275   8.531  14.149   5.976
28481SOL    HW287276   8.622  14.224   5.881
28482SOL     OW87277  12.331  11.736   6.106
28482SOL    HW187278  12.355  11.800   6.173
28482SOL    HW287279  12.345  11.781   6.023
28483SOL     OW87280   0.898   7.460   8.257
28483SOL    HW187281   0.942   7.485   8.176
28483SOL    HW287282   0.922   7.527   8.320
28484SOL     OW87283   0.300   3.983  11.990
28484SOL    HW187284   0.310   4.048  11.920
28484SOL    HW287285   0.272   4.035  12.066
28485SOL     OW87286   3.075   5.052  11.868
28485SOL    HW187287   2.998   5.090  11.910
28485SOL    HW287288   3.094   4.973  11.920
28486SOL     OW87289   7.546  12.126  11.328
28486SOL    HW187290   7.530  12.216  11.357
28486SOL    HW287291   7.592  12.085  11.401
28487SOL     OW87292   3.708  10.480   7.069
28487SOL    HW187293   3.615  10.498   7.078
28487SOL    HW287294   3.741  10.473   7.158
28488SOL     OW87295   0.740  11.079   4.523
28488SOL    HW187296   0.738  11.148   4.457
28488SOL    HW287297   0.829  11.044   4.519
28489SOL     OW87298   4.159  11.620   6.657
28489SOL    HW187299   4.087  11.604   6.597
28489SOL    HW287300   4.118  11.656   6.735
28490SOL     OW87301   3.663  10.189   4.881
28490SOL    HW187302   3.601  10.116   4.885
28490SOL    HW287303   3.749  10.149   4.891
28491SOL     OW87304   9.454   6.241   3.307
28491SOL    HW187305   9.506   6.313   3.271
28491SOL    HW287306   9.517   6.190   3.359
28492SOL     OW87307   3.802  12.219   0.110
28492SOL    HW187308   3.728  12.268   0.146
28492SOL    HW287309   3.872  12.284   0.103
28493SOL     OW87310   5.607   1.953   2.380
28493SOL    HW187311   5.608   1.938   2.475
28493SOL    HW287312   5.629   2.046   2.371
28494SOL     OW87313   1.084   9.863   5.933
28494SOL    HW187314   1.124   9.790   5.886
28494SOL    HW287315   1.031   9.908   5.867
28495SOL     OW87316  13.384  11.254   1.222
28495SOL    HW187317  13.405  11.186   1.158
28495SOL    HW287318  13.426  11.225   1.303
28496SOL     OW87319   1.052   6.867  11.844
28496SOL    HW187320   1.028   6.781  11.809
28496SOL    HW287321   1.022   6.930  11.778
28497SOL     OW87322   0.162   1.586   7.570
28497SOL    HW187323   0.250   1.554   7.592
28497SOL    HW287324   0.107   1.507   7.570
28498SOL     OW87325   9.699   2.499   2.671
28498SOL    HW187326   9.647   2.425   2.701
28498SOL    HW287327   9.686   2.566   2.738
28499SOL     OW87328   8.243   8.038   2.015
28499SOL    HW187329   8.282   8.040   2.103
28499SOL    HW287330   8.229   7.945   1.997
28500SOL     OW87331   9.517   3.381   5.201
28500SOL    HW187332   9.605   3.373   5.163
28500SOL    HW287333   9.460   3.398   5.127
28501SOL     OW87334  11.886   2.305  11.229
28501SOL    HW187335  11.942   2.344  11.161
28501SOL    HW287336  11.851   2.226  11.188
28502SOL     OW87337  13.891  10.708   3.253
28502SOL    HW187338  13.818  10.658   3.215
28502SOL    HW287339  13.849  10.785   3.291
28503SOL     OW87340  13.008   3.254  12.201
28503SOL    HW187341  13.059   3.208  12.267
28503SOL    HW287342  13.069   3.267  12.128
28504SOL     OW87343  11.351  12.278   7.416
28504SOL    HW187344  11.440  12.282   7.451
28504SOL    HW287345  11.322  12.369   7.413
28505SOL     OW87346   9.140   9.727  13.184
28505SOL    HW187347   9.077   9.750  13.251
28505SOL    HW287348   9.124   9.634  13.166
28506SOL     OW87349   5.764   9.511   7.576
28506SOL    HW187350   5.770   9.454   7.652
28506SOL    HW287351   5.681   9.559   7.588
28507SOL     OW87352   7.985  10.581   8.934
28507SOL    HW187353   7.966  10.621   8.849
28507SOL    HW287354   8.075  10.549   8.926
28508SOL     OW87355  10.528   5.608  13.200
28508SOL    HW187356  10.584   5.544  13.245
28508SOL    HW287357  10.580   5.687  13.195
28509SOL     OW87358  13.880   5.413   0.106
28509SOL    HW187359  13.908   5.395   0.195
28509SOL    HW287360  13.814   5.345   0.087
28510SOL     OW87361  14.785   7.550  11.415
28510SOL    HW187362  14.866   7.596  11.391
28510SOL    HW287363  14.727   7.563  11.340
28511SOL     OW87364   1.244   9.356  10.513
28511SOL    HW187365   1.274   9.289  10.574
28511SOL    HW287366   1.259   9.319  10.427
28512SOL     OW87367   8.871  10.886  14.195
28512SOL    HW187368   8.878  10.952  14.264
28512SOL    HW287369   8.853  10.936  14.115
28513SOL     OW87370   0.514   7.325  11.941
28513SOL    HW187371   0.452   7.395  11.961
28513SOL    HW287372   0.474   7.246  11.977
28514SOL     OW87373   8.093   4.260   5.219
28514SOL    HW187374   8.093   4.174   5.261
28514SOL    HW287375   8.017   4.305   5.255
28515SOL     OW87376   9.656   5.403  12.944
28515SOL    HW187377   9.640   5.493  12.974
28515SOL    HW287378   9.689   5.357  13.021
28516SOL     OW87379   7.840   5.582   4.644
28516SOL    HW187380   7.789   5.542   4.714
28516SOL    HW287381   7.796   5.554   4.564
28517SOL     OW87382   3.566  11.712  11.278
28517SOL    HW187383   3.511  11.772  11.227
28517SOL    HW287384   3.558  11.743  11.368
28518SOL     OW87385  10.956  13.510   9.997
28518SOL    HW187386  10.964  13.497   9.903
28518SOL    HW287387  10.867  13.480  10.017
28519SOL     OW87388   2.757   2.404  11.067
28519SOL    HW187389   2.782   2.478  11.122
28519SOL    HW287390   2.725   2.443  10.986
28520SOL     OW87391   2.525  13.649  10.595
28520SOL    HW187392   2.520  13.723  10.655
28520SOL    HW287393   2.605  13.602  10.621
28521SOL     OW87394  10.642   9.406   8.081
28521SOL    HW187395  10.603   9.452   8.155
28521SOL    HW287396  10.735   9.399   8.103
28522SOL     OW87397  10.213  12.795  10.474
28522SOL    HW187398  10.258  12.713  10.454
28522SOL    HW287399  10.167  12.778  10.556
28523SOL     OW87400  10.500  14.097  10.257
28523SOL    HW187401  10.436  14.044  10.305
28523SOL    HW287402  10.519  14.045  10.179
28524SOL     OW87403   9.973   6.122   2.804
28524SOL    HW187404   9.896   6.088   2.758
28524SOL    HW287405   9.983   6.064   2.880
28525SOL     OW87406  12.960   0.665   6.204
28525SOL    HW187407  12.952   0.718   6.283
28525SOL    HW287408  12.875   0.674   6.159
28526SOL     OW87409   8.864  12.424  11.780
28526SOL    HW187410   8.942  12.372  11.801
28526SOL    HW287411   8.796  12.359  11.764
28527SOL     OW87412  14.774   6.309   3.060
28527SOL    HW187413  14.693   6.277   3.022
28527SOL    HW287414  14.843   6.262   3.013
28528SOL     OW87415  11.328  13.485  11.088
28528SOL    HW187416  11.317  13.479  11.183
28528SOL    HW287417  11.405  13.431  11.069
28529SOL     OW87418   7.009   2.260   8.801
28529SOL    HW187419   7.025   2.166   8.800
28529SOL    HW287420   6.989   2.279   8.893
28530SOL     OW87421  13.663  12.807   9.036
28530SOL    HW187422  13.593  12.869   9.053
28530SOL    HW287423  13.630  12.724   9.070
28531SOL     OW87424  14.684   2.706   6.215
28531SOL    HW187425  14.632   2.644   6.165
28531SOL    HW287426  14.775   2.688   6.191
28532SOL     OW87427   0.170   1.827   2.186
28532SOL    HW187428   0.084   1.837   2.226
28532SOL    HW287429   0.152   1.809   2.094
28533SOL     OW87430   0.599   4.450   9.474
28533SOL    HW187431   0.665   4.421   9.536
28533SOL    HW287432   0.644   4.515   9.419
28534SOL     OW87433   3.425   3.863   7.333
28534SOL    HW187434   3.494   3.890   7.394
28534SOL    HW287435   3.424   3.932   7.266
28535SOL     OW87436   5.209   8.662  13.881
28535SOL    HW187437   5.147   8.729  13.908
28535SOL    HW287438   5.211   8.667  13.786
28536SOL     OW87439   1.206   2.815  10.376
28536SOL    HW187440   1.129   2.852  10.332
28536SOL    HW287441   1.268   2.888  10.381
28537SOL     OW87442  11.549   9.266  10.161
28537SOL    HW187443  11.476   9.319  10.129
28537SOL    HW287444  11.534   9.260  10.256
28538SOL     OW87445   5.822   4.570   1.154
28538SOL    HW187446   5.787   4.573   1.065
28538SOL    HW287447   5.745   4.557   1.210
28539SOL     OW87448  10.447  10.213   0.187
28539SOL    HW187449  10.366  10.253   0.218
28539SOL    HW287450  10.424  10.121   0.175
28540SOL     OW87451   0.852  10.236   4.716
28540SOL    HW187452   0.776  10.181   4.695
28540SOL    HW287453   0.911  10.224   4.642
28541SOL     OW87454   2.075  13.856  14.510
28541SOL    HW187455   2.108  13.770  14.537
28541SOL    HW287456   2.030  13.890  14.587
28542SOL     OW87457   8.253  13.868   7.509
28542SOL    HW187458   8.288  13.918   7.435
28542SOL    HW287459   8.159  13.884   7.506
28543SOL     OW87460  10.931  14.531   0.436
28543SOL    HW187461  10.899  14.547   0.525
28543SOL    HW287462  11.014  14.485   0.449
28544SOL     OW87463   9.121  11.837  11.092
28544SOL    HW187464   9.037  11.872  11.061
28544SOL    HW287465   9.168  11.914  11.124
28545SOL     OW87466  10.509   5.097  12.684
28545SOL    HW187467  10.463   5.165  12.636
28545SOL    HW287468  10.557   5.144  12.753
28546SOL     OW87469  14.539   6.394   2.313
28546SOL    HW187470  14.631   6.411   2.293
28546SOL    HW287471  14.530   6.415   2.406
28547SOL     OW87472  11.518  14.332   0.716
28547SOL    HW187473  11.480  14.360   0.800
28547SOL    HW287474  11.460  14.261   0.687
28548SOL     OW87475   5.409  10.241   7.813
28548SOL    HW187476   5.402  10.153   7.778
28548SOL    HW287477   5.492  10.274   7.780
28549SOL     OW87478   0.935   4.667   1.744
28549SOL    HW187479   1.000   4.606   1.709
28549SOL    HW287480   0.875   4.612   1.793
28550SOL     OW87481   1.863   4.149   9.092
28550SOL    HW187482   1.902   4.108   9.015
28550SOL    HW287483   1.931   4.210   9.124
28551SOL     OW87484   1.235   8.439   9.185
28551SOL    HW187485   1.170   8.474   9.246
28551SOL    HW287486   1.185   8.417   9.107
28552SOL     OW87487   6.984  14.790   6.408
28552SOL    HW187488   7.074  14.784   6.441
28552SOL    HW287489   6.956  14.698   6.399
28553SOL     OW87490   5.038   8.839  11.081
28553SOL    HW187491   5.026   8.923  11.037
28553SOL    HW287492   4.958   8.826  11.131
28554SOL     OW87493   0.951   9.193  10.515
28554SOL    HW187494   0.982   9.272  10.559
28554SOL    HW287495   1.013   9.180  10.443
28555SOL     OW87496  10.352   3.816   7.273
28555SOL    HW187497  10.338   3.765   7.353
28555SOL    HW287498  10.268   3.859   7.258
28556SOL     OW87499   1.530  11.851   2.633
28556SOL    HW187500   1.589  11.789   2.675
28556SOL    HW287501   1.586  11.926   2.612
28557SOL     OW87502   6.556  14.107   7.597
28557SOL    HW187503   6.650  14.091   7.611
28557SOL    HW287504   6.520  14.022   7.573
28558SOL     OW87505   2.285   7.763   2.765
28558SOL    HW187506   2.235   7.697   2.717
28558SOL    HW287507   2.254   7.754   2.855
28559SOL     OW87508   5.142  11.127  13.692
28559SOL    HW187509   5.178  11.177  13.619
28559SOL    HW287510   5.138  11.190  13.765
28560SOL     OW87511   4.385   2.484   4.052
28560SOL    HW187512   4.298   2.524   4.045
28560SOL    HW287513   4.418   2.484   3.962
28561SOL     OW87514  12.941   3.085   1.258
28561SOL    HW187515  13.002   3.073   1.331
28561SOL    HW287516  12.964   3.170   1.220
28562SOL     OW87517  12.980   3.329  14.718
28562SOL    HW187518  12.972   3.257  14.656
28562SOL    HW287519  13.030   3.396  14.672
28563SOL     OW87520   7.934   1.684   7.965
28563SOL    HW187521   7.977   1.766   7.985
28563SOL    HW287522   7.983   1.647   7.891
28564SOL     OW87523  10.779   4.334   5.442
28564SOL    HW187524  10.779   4.359   5.534
28564SOL    HW287525  10.716   4.394   5.401
28565SOL     OW87526  10.428   8.266   6.467
28565SOL    HW187527  10.401   8.185   6.510
28565SOL    HW287528  10.515   8.246   6.432
28566SOL     OW87529   0.741   2.370  11.512
28566SOL    HW187530   0.717   2.462  11.505
28566SOL    HW287531   0.785   2.350  11.430
28567SOL     OW87532   6.189  13.216   0.666
28567SOL    HW187533   6.131  13.152   0.624
28567SOL    HW287534   6.219  13.272   0.594
28568SOL     OW87535   2.212  12.249   3.970
28568SOL    HW187536   2.299  12.289   3.974
28568SOL    HW287537   2.213  12.181   4.037
28569SOL     OW87538   3.638  12.888  12.476
28569SOL    HW187539   3.624  12.906  12.383
28569SOL    HW287540   3.594  12.805  12.491
28570SOL     OW87541  13.093  10.596   3.701
28570SOL    HW187542  13.093  10.691   3.691
28570SOL    HW287543  13.130  10.582   3.788
28571SOL     OW87544   3.924   1.848   6.336
28571SOL    HW187545   3.967   1.769   6.369
28571SOL    HW287546   3.993   1.913   6.333
28572SOL     OW87547   2.328   0.993  12.868
28572SOL    HW187548   2.252   0.961  12.820
28572SOL    HW287549   2.329   0.941  12.948
28573SOL     OW87550   7.104  10.304  11.943
28573SOL    HW187551   7.174  10.264  11.892
28573SOL    HW287552   7.024  10.261  11.912
28574SOL     OW87553  14.405  10.463  12.931
28574SOL    HW187554  14.412  10.414  13.013
28574SOL    HW287555  14.322  10.433  12.892
28575SOL     OW87556   8.484   8.808   2.068
28575SOL    HW187557   8.503   8.863   1.992
28575SOL    HW287558   8.535   8.847   2.139
28576SOL     OW87559   3.492  14.385  10.241
28576SOL    HW187560   3.474  14.479  10.240
28576SOL    HW287561   3.554  14.373  10.313
28577SOL     OW87562  12.542   6.914  12.616
28577SOL    HW187563  12.578   6.942  12.531
28577SOL    HW287564  12.447   6.919  12.605
28578SOL     OW87565   6.122   3.529  14.706
28578SOL    HW187566   6.147   3.436  14.699
28578SOL    HW287567   6.163   3.571  14.631
28579SOL     OW87568   5.583   3.916  10.352
28579SOL    HW187569   5.524   3.904  10.278
28579SOL    HW287570   5.671   3.912  10.313
28580SOL     OW87571   0.344   7.200  10.760
28580SOL    HW187572   0.319   7.204  10.667
28580SOL    HW287573   0.345   7.292  10.788
28581SOL     OW87574  12.288   2.210  10.095
28581SOL    HW187575  12.240   2.131  10.120
28581SOL    HW287576  12.226   2.261  10.043
28582SOL     OW87577   8.529   0.106   8.779
28582SOL    HW187578   8.465   0.094   8.709
28582SOL    HW287579   8.590   0.033   8.769
28583SOL     OW87580   0.122   7.663  11.294
28583SOL    HW187581   0.195   7.623  11.246
28583SOL    HW287582   0.118   7.753  11.262
28584SOL     OW87583   7.807   7.686   3.540
28584SOL    HW187584   7.759   7.603   3.531
28584SOL    HW287585   7.759   7.734   3.608
28585SOL     OW87586   1.659   2.978   1.163
28585SOL    HW187587   1.601   2.979   1.087
28585SOL    HW287588   1.606   2.939   1.233
28586SOL     OW87589   9.688  13.610   6.333
28586SOL    HW187590   9.777  13.615   6.299
28586SOL    HW287591   9.641  13.680   6.287
28587SOL     OW87592   9.577   7.890  13.236
28587SOL    HW187593   9.555   7.797  13.238
28587SOL    HW287594   9.560   7.920  13.325
28588SOL     OW87595   8.945  13.501  10.446
28588SOL    HW187596   8.956  13.406  10.457
28588SOL    HW287597   8.921  13.512  10.354
28589SOL     OW87598   6.224   0.792   5.754
28589SOL    HW187599   6.260   0.881   5.765
28589SOL    HW287600   6.203   0.764   5.843
28590SOL     OW87601  12.951  13.885   1.507
28590SOL    HW187602  12.883  13.926   1.453
28590SOL    HW287603  12.952  13.938   1.587
28591SOL     OW87604  14.845   8.372  12.885
28591SOL    HW187605  14.843   8.322  12.803
28591SOL    HW287606   0.045   8.421  12.882
28592SOL     OW87607   7.668  11.540   8.036
28592SOL    HW187608   7.748  11.591   8.049
28592SOL    HW287609   7.655  11.540   7.941
28593SOL     OW87610   4.880   3.289   6.798
28593SOL    HW187611   4.808   3.226   6.800
28593SOL    HW287612   4.952   3.242   6.755
28594SOL     OW87613  12.817   5.259   6.931
28594SOL    HW187614  12.865   5.312   6.867
28594SOL    HW287615  12.737   5.234   6.885
28595SOL     OW87616  12.716  12.793   7.928
28595SOL    HW187617  12.636  12.743   7.941
28595SOL    HW287618  12.701  12.844   7.848
28596SOL     OW87619   7.910   4.759  10.016
28596SOL    HW187620   7.937   4.819  10.085
28596SOL    HW287621   7.990   4.712   9.993
28597SOL     OW87622   3.853   7.870   2.221
28597SOL    HW187623   3.831   7.843   2.310
28597SOL    HW287624   3.771   7.867   2.173
28598SOL     OW87625   1.019  13.218  13.764
28598SOL    HW187626   0.987  13.271  13.691
28598SOL    HW287627   1.114  13.214  13.751
28599SOL     OW87628   1.034  14.243   8.249
28599SOL    HW187629   1.106  14.262   8.189
28599SOL    HW287630   1.001  14.329   8.274
28600SOL     OW87631   4.124   5.547   6.822
28600SOL    HW187632   4.072   5.468   6.834
28600SOL    HW287633   4.059   5.617   6.813
28601SOL     OW87634  12.350   5.261   6.622
28601SOL    HW187635  12.375   5.189   6.563
28601SOL    HW287636  12.328   5.218   6.704
28602SOL     OW87637   8.655   1.431  13.226
28602SOL    HW187638   8.601   1.475  13.291
28602SOL    HW287639   8.734   1.485  13.219
28603SOL     OW87640   4.426   3.817   9.554
28603SOL    HW187641   4.425   3.799   9.648
28603SOL    HW287642   4.432   3.912   9.548
28604SOL     OW87643  13.098   3.389   6.538
28604SOL    HW187644  13.030   3.443   6.497
28604SOL    HW287645  13.052   3.310   6.567
28605SOL     OW87646   9.704  10.968  10.188
28605SOL    HW187647   9.720  10.943  10.278
28605SOL    HW287648   9.790  10.989  10.152
28606SOL     OW87649  12.305  14.386   1.289
28606SOL    HW187650  12.316  14.299   1.329
28606SOL    HW287651  12.380  14.396   1.231
28607SOL     OW87652   6.681  14.718   6.183
28607SOL    HW187653   6.760  14.771   6.192
28607SOL    HW287654   6.611  14.783   6.171
28608SOL     OW87655   3.817   5.636   2.349
28608SOL    HW187656   3.808   5.675   2.262
28608SOL    HW287657   3.867   5.556   2.334
28609SOL     OW87658   6.845  13.324   8.479
28609SOL    HW187659   6.911  13.373   8.430
28609SOL    HW287660   6.872  13.333   8.570
28610SOL     OW87661   7.954  11.703   4.560
28610SOL    HW187662   7.907  11.695   4.477
28610SOL    HW287663   7.927  11.627   4.611
28611SOL     OW87664   3.586  11.042   1.322
28611SOL    HW187665   3.610  10.962   1.368
28611SOL    HW287666   3.522  11.015   1.257
28612SOL     OW87667  10.424  12.523   1.497
28612SOL    HW187668  10.363  12.566   1.557
28612SOL    HW287669  10.370  12.465   1.444
28613SOL     OW87670   6.737   7.593   3.631
28613SOL    HW187671   6.763   7.570   3.720
28613SOL    HW287672   6.680   7.669   3.642
28614SOL     OW87673   7.550   7.858   8.246
28614SOL    HW187674   7.494   7.858   8.324
28614SOL    HW287675   7.617   7.924   8.265
28615SOL     OW87676  10.077   7.516   5.972
28615SOL    HW187677  10.098   7.468   6.052
28615SOL    HW287678  10.097   7.455   5.901
28616SOL     OW87679   6.936  14.444  11.975
28616SOL    HW187680   6.904  14.417  11.889
28616SOL    HW287681   6.875  14.405  12.037
28617SOL     OW87682   2.279   1.521   9.810
28617SOL    HW187683   2.226   1.549   9.735
28617SOL    HW287684   2.268   1.591   9.874
28618SOL     OW87685   6.861   3.119   5.820
28618SOL    HW187686   6.782   3.065   5.816
28618SOL    HW287687   6.841   3.194   5.765
28619SOL     OW87688   7.505  12.718   8.193
28619SOL    HW187689   7.503  12.629   8.159
28619SOL    HW287690   7.514  12.707   8.288
28620SOL     OW87691   7.692   1.431   7.498
28620SOL    HW187692   7.774   1.384   7.509
28620SOL    HW287693   7.666   1.455   7.587
28621SOL     OW87694   2.665   8.468   1.471
28621SOL    HW187695   2.630   8.400   1.413
28621SOL    HW287696   2.589   8.501   1.518
28622SOL     OW87697   1.129   9.246   6.809
28622SOL    HW187698   1.103   9.186   6.879
28622SOL    HW287699   1.145   9.329   6.854
28623SOL     OW87700   5.722  12.925   8.957
28623SOL    HW187701   5.754  12.932   8.866
28623SOL    HW287702   5.802  12.917   9.009
28624SOL     OW87703   7.127  12.479   7.714
28624SOL    HW187704   7.174  12.552   7.672
28624SOL    HW287705   7.062  12.520   7.770
28625SOL     OW87706   3.914   8.217   3.119
28625SOL    HW187707   3.887   8.245   3.031
28625SOL    HW287708   3.850   8.259   3.177
28626SOL     OW87709   0.328   1.470  11.807
28626SOL    HW187710   0.280   1.488  11.726
28626SOL    HW287711   0.352   1.378  11.800
28627SOL     OW87712  12.430   0.500   9.711
28627SOL    HW187713  12.349   0.448   9.717
28627SOL    HW287714  12.430   0.553   9.791
28628SOL     OW87715   4.978   2.592   3.690
28628SOL    HW187716   5.023   2.583   3.774
28628SOL    HW287717   4.906   2.530   3.695
28629SOL     OW87718   0.044   9.925   0.229
28629SOL    HW187719   0.127   9.884   0.206
28629SOL    HW287720   0.025   9.892   0.317
28630SOL     OW87721   2.737  14.880  11.813
28630SOL    HW187722   2.817   0.014  11.764
28630SOL    HW287723   2.673  14.853  11.747
28631SOL     OW87724   0.458  14.374   6.252
28631SOL    HW187725   0.545  14.343   6.275
28631SOL    HW287726   0.469  14.417   6.167
28632SOL     OW87727   5.503   1.825   9.178
28632SOL    HW187728   5.512   1.802   9.086
28632SOL    HW287729   5.438   1.896   9.178
28633SOL     OW87730   8.624   1.279  13.010
28633SOL    HW187731   8.635   1.330  13.090
28633SOL    HW287732   8.709   1.284  12.966
28634SOL     OW87733   9.903   8.713   9.855
28634SOL    HW187734   9.849   8.733   9.932
28634SOL    HW287735   9.977   8.773   9.861
28635SOL     OW87736   8.841   2.157   8.173
28635SOL    HW187737   8.864   2.218   8.103
28635SOL    HW287738   8.754   2.184   8.202
28636SOL     OW87739   1.289   7.861  10.553
28636SOL    HW187740   1.268   7.950  10.526
28636SOL    HW287741   1.271   7.807  10.475
28637SOL     OW87742   3.917  13.607   6.707
28637SOL    HW187743   3.938  13.596   6.799
28637SOL    HW287744   3.836  13.657   6.706
28638SOL     OW87745   3.175   4.481   4.240
28638SOL    HW187746   3.100   4.518   4.193
28638SOL    HW287747   3.246   4.542   4.222
28639SOL     OW87748   5.113  12.146   3.319
28639SOL    HW187749   5.184  12.082   3.315
28639SOL    HW287750   5.084  12.142   3.410
28640SOL     OW87751   5.488   3.411   3.937
28640SOL    HW187752   5.451   3.449   3.858
28640SOL    HW287753   5.574   3.451   3.945
28641SOL     OW87754  12.056   4.460   1.548
28641SOL    HW187755  12.068   4.380   1.599
28641SOL    HW287756  12.043   4.529   1.613
28642SOL     OW87757   7.292   5.951   7.041
28642SOL    HW187758   7.267   5.923   7.129
28642SOL    HW287759   7.211   5.948   6.990
28643SOL     OW87760  14.098   5.578   1.407
28643SOL    HW187761  14.144   5.548   1.328
28643SOL    HW287762  14.023   5.519   1.415
28644SOL     OW87763   1.832  13.573   3.328
28644SOL    HW187764   1.870  13.657   3.303
28644SOL    HW287765   1.795  13.589   3.415
28645SOL     OW87766  14.853  13.030   0.830
28645SOL    HW187767  14.772  13.063   0.791
28645SOL    HW287768  14.852  12.936   0.814
28646SOL     OW87769   8.779  10.815   0.316
28646SOL    HW187770   8.769  10.726   0.348
28646SOL    HW287771   8.852  10.810   0.253
28647SOL     OW87772   3.623   7.227  11.252
28647SOL    HW187773   3.584   7.196  11.334
28647SOL    HW287774   3.658   7.314  11.274
28648SOL     OW87775  10.695   2.368  14.131
28648SOL    HW187776  10.730   2.331  14.211
28648SOL    HW287777  10.657   2.452  14.157
28649SOL     OW87778  12.771  13.411   0.377
28649SOL    HW187779  12.810  13.355   0.444
28649SOL    HW287780  12.778  13.500   0.413
28650SOL     OW87781   1.694   5.454  12.006
28650SOL    HW187782   1.669   5.386  11.944
28650SOL    HW287783   1.744   5.516  11.953
28651SOL     OW87784   3.946   6.666   0.005
28651SOL    HW187785   4.008   6.674   0.078
28651SOL    HW287786   3.963   6.743  14.833
28652SOL     OW87787  10.869  14.371   2.457
28652SOL    HW187788  10.800  14.353   2.520
28652SOL    HW287789  10.917  14.445   2.493
28653SOL     OW87790   1.595   1.731   2.918
28653SOL    HW187791   1.655   1.773   2.857
28653SOL    HW287792   1.645   1.726   3.000
28654SOL     OW87793   3.544  14.522   9.971
28654SOL    HW187794   3.623  14.567   9.999
28654SOL    HW287795   3.543  14.440  10.021
28655SOL     OW87796   4.830  11.163  10.511
28655SOL    HW187797   4.888  11.149  10.586
28655SOL    HW287798   4.777  11.239  10.535
28656SOL     OW87799   6.344   5.498   8.259
28656SOL    HW187800   6.296   5.467   8.336
28656SOL    HW287801   6.276   5.525   8.198
28657SOL     OW87802   0.260   3.201   6.359
28657SOL    HW187803   0.237   3.248   6.439
28657SOL    HW287804   0.181   3.203   6.306
28658SOL     OW87805   4.817  12.254  12.680
28658SOL    HW187806   4.726  12.283  12.667
28658SOL    HW287807   4.809  12.167  12.718
28659SOL     OW87808   8.749   6.495  12.993
28659SOL    HW187809   8.659   6.499  12.962
28659SOL    HW287810   8.757   6.571  13.051
28660SOL     OW87811   6.488   0.414   0.493
28660SOL    HW187812   6.546   0.477   0.451
28660SOL    HW287813   6.546   0.344   0.523
28661SOL     OW87814   2.901  12.269   1.693
28661SOL    HW187815   2.973  12.213   1.720
28661SOL    HW287816   2.910  12.347   1.747
28662SOL     OW87817   3.557   1.158   9.210
28662SOL    HW187818   3.643   1.122   9.189
28662SOL    HW287819   3.510   1.158   9.127
28663SOL     OW87820  13.405   2.762   5.437
28663SOL    HW187821  13.453   2.713   5.371
28663SOL    HW287822  13.333   2.804   5.389
28664SOL     OW87823  14.246  12.976   9.923
28664SOL    HW187824  14.217  12.900   9.973
28664SOL    HW287825  14.258  13.045   9.989
28665SOL     OW87826   0.321   3.969   0.339
28665SOL    HW187827   0.256   4.034   0.365
28665SOL    HW287828   0.300   3.892   0.392
28666SOL     OW87829  11.915   8.201   0.392
28666SOL    HW187830  11.940   8.211   0.300
28666SOL    HW287831  11.824   8.229   0.395
28667SOL     OW87832   7.852   3.974  11.676
28667SOL    HW187833   7.844   3.993  11.770
28667SOL    HW287834   7.946   3.980  11.659
28668SOL     OW87835   5.046  13.984   2.410
28668SOL    HW187836   5.125  13.961   2.460
28668SOL    HW287837   5.077  14.049   2.346
28669SOL     OW87838   0.060   8.092  13.426
28669SOL    HW187839   0.054   8.068  13.519
28669SOL    HW287840  14.854   8.077  13.392
28670SOL     OW87841   0.796   4.634   9.410
28670SOL    HW187842   0.771   4.704   9.470
28670SOL    HW287843   0.867   4.589   9.456
28671SOL     OW87844  10.244   7.725   7.233
28671SOL    HW187845  10.264   7.802   7.285
28671SOL    HW287846  10.322   7.670   7.240
28672SOL     OW87847  10.737  12.135   6.221
28672SOL    HW187848  10.669  12.128   6.287
28672SOL    HW287849  10.816  12.160   6.269
28673SOL     OW87850   5.503   9.937   5.924
28673SOL    HW187851   5.594   9.944   5.953
28673SOL    HW287852   5.452   9.936   6.004
28674SOL     OW87853   9.120   0.152   5.630
28674SOL    HW187854   9.026   0.163   5.641
28674SOL    HW287855   9.156   0.240   5.634
28675SOL     OW87856   4.826   4.128   0.302
28675SOL    HW187857   4.799   4.043   0.336
28675SOL    HW287858   4.746   4.164   0.264
28676SOL     OW87859  11.318  13.139   7.733
28676SOL    HW187860  11.231  13.123   7.769
28676SOL    HW287861  11.371  13.067   7.767
28677SOL     OW87862   5.850  10.758   8.267
28677SOL    HW187863   5.920  10.695   8.285
28677SOL    HW287864   5.784  10.741   8.334
28678SOL     OW87865   7.134   4.414  14.845
28678SOL    HW187866   7.064   4.389   0.023
28678SOL    HW287867   7.092   4.473  14.783
28679SOL     OW87868  10.502   2.182  12.971
28679SOL    HW187869  10.584   2.160  13.015
28679SOL    HW287870  10.436   2.132  13.018
28680SOL     OW87871   2.049   1.593  10.969
28680SOL    HW187872   1.974   1.535  10.981
28680SOL    HW287873   2.104   1.577  11.045
28681SOL     OW87874   4.031   3.632  10.069
28681SOL    HW187875   4.035   3.603  10.161
28681SOL    HW287876   4.122   3.637  10.042
28682SOL     OW87877   5.476   8.735   2.422
28682SOL    HW187878   5.439   8.666   2.477
28682SOL    HW287879   5.529   8.688   2.357
28683SOL     OW87880   6.831   7.700   8.832
28683SOL    HW187881   6.761   7.669   8.774
28683SOL    HW287882   6.813   7.792   8.846
28684SOL     OW87883   9.128   6.989   0.105
28684SOL    HW187884   9.173   6.905   0.094
28684SOL    HW287885   9.146   7.014   0.196
28685SOL     OW87886  12.783   2.054   8.073
28685SOL    HW187887  12.842   1.980   8.091
28685SOL    HW287888  12.798   2.115   8.145
28686SOL     OW87889  13.693  10.283   2.313
28686SOL    HW187890  13.749  10.212   2.281
28686SOL    HW287891  13.671  10.333   2.234
28687SOL     OW87892   1.230  11.833  11.053
28687SOL    HW187893   1.156  11.789  11.012
28687SOL    HW287894   1.202  11.851  11.143
28688SOL     OW87895  12.623   0.825  14.795
28688SOL    HW187896  12.656   0.735  14.787
28688SOL    HW287897  12.670   0.874  14.727
28689SOL     OW87898   8.279  10.615   6.755
28689SOL    HW187899   8.192  10.614   6.716
28689SOL    HW287900   8.319  10.532   6.726
28690SOL     OW87901   4.412   3.827   8.516
28690SOL    HW187902   4.368   3.824   8.600
28690SOL    HW287903   4.446   3.916   8.509
28691SOL     OW87904   4.119   3.120   2.645
28691SOL    HW187905   4.211   3.104   2.624
28691SOL    HW287906   4.121   3.181   2.718
28692SOL     OW87907   4.038   6.988   5.774
28692SOL    HW187908   3.980   6.941   5.833
28692SOL    HW287909   4.066   7.065   5.824
28693SOL     OW87910   7.344  10.588  10.571
28693SOL    HW187911   7.426  10.539  10.579
28693SOL    HW287912   7.328  10.623  10.658
28694SOL     OW87913   0.316  12.476   4.145
28694SOL    HW187914   0.270  12.530   4.209
28694SOL    HW287915   0.408  12.501   4.154
28695SOL     OW87916   7.248   0.169  14.126
28695SOL    HW187917   7.270   0.233  14.194
28695SOL    HW287918   7.279   0.085  14.162
28696SOL     OW87919   2.230   1.952   5.933
28696SOL    HW187920   2.209   1.976   6.023
28696SOL    HW287921   2.306   1.894   5.941
28697SOL     OW87922   9.380   3.505   6.269
28697SOL    HW187923   9.312   3.542   6.324
28697SOL    HW287924   9.337   3.433   6.222
28698SOL     OW87925   1.760   1.583   2.008
28698SOL    HW187926   1.824   1.650   1.985
28698SOL    HW287927   1.735   1.544   1.924
28699SOL     OW87928  13.296  12.014   0.427
28699SOL    HW187929  13.306  12.060   0.344
28699SOL    HW287930  13.367  11.950   0.428
28700SOL     OW87931   2.710   1.832   3.763
28700SOL    HW187932   2.803   1.846   3.747
28700SOL    HW287933   2.674   1.921   3.772
28701SOL     OW87934   5.911  11.239  13.118
28701SOL    HW187935   5.934  11.293  13.193
28701SOL    HW287936   5.822  11.208  13.136
28702SOL     OW87937  13.044  14.387  12.179
28702SOL    HW187938  12.952  14.400  12.204
28702SOL    HW287939  13.039  14.334  12.099
28703SOL     OW87940   7.300   5.839   4.856
28703SOL    HW187941   7.264   5.814   4.941
28703SOL    HW287942   7.247   5.913   4.827
28704SOL     OW87943  14.078   2.661  14.367
28704SOL    HW187944  14.015   2.615  14.422
28704SOL    HW287945  14.065   2.754  14.387
28705SOL     OW87946   8.184  12.427   0.927
28705SOL    HW187947   8.172  12.378   0.846
28705SOL    HW287948   8.278  12.421   0.945
28706SOL     OW87949  13.419  11.541   6.961
28706SOL    HW187950  13.335  11.587   6.964
28706SOL    HW287951  13.399  11.452   6.989
28707SOL     OW87952  14.397   0.464  10.487
28707SOL    HW187953  14.326   0.400  10.499
28707SOL    HW287954  14.475   0.417  10.516
28708SOL     OW87955   3.719   4.147  11.185
28708SOL    HW187956   3.722   4.052  11.196
28708SOL    HW287957   3.776   4.181  11.254
28709SOL     OW87958   4.183   3.780   0.418
28709SOL    HW187959   4.215   3.750   0.333
28709SOL    HW287960   4.099   3.821   0.399
28710SOL     OW87961  13.043   4.906   4.633
28710SOL    HW187962  12.982   4.901   4.707
28710SOL    HW287963  13.127   4.876   4.670
28711SOL     OW87964   0.794   1.979   5.809
28711SOL    HW187965   0.868   2.030   5.774
28711SOL    HW287966   0.797   1.897   5.760
28712SOL     OW87967  10.030  10.624  12.022
28712SOL    HW187968   9.977  10.601  11.945
28712SOL    HW287969   9.974  10.683  12.073
28713SOL     OW87970   2.426  11.687   3.010
28713SOL    HW187971   2.363  11.630   2.967
28713SOL    HW287972   2.379  11.769   3.025
28714SOL     OW87973   9.879   4.596  10.156
28714SOL    HW187974   9.888   4.689  10.176
28714SOL    HW287975   9.936   4.582  10.080
28715SOL     OW87976  11.579   6.000   7.636
28715SOL    HW187977  11.485   5.994   7.656
28715SOL    HW287978  11.622   5.974   7.717
28716SOL     OW87979  12.411  13.741  14.135
28716SOL    HW187980  12.410  13.646  14.120
28716SOL    HW287981  12.497  13.768  14.103
28717SOL     OW87982   6.137  11.101   8.221
28717SOL    HW187983   6.043  11.089   8.207
28717SOL    HW287984   6.154  11.061   8.306
28718SOL     OW87985  13.118   0.433   7.246
28718SOL    HW187986  13.130   0.499   7.314
28718SOL    HW287987  13.162   0.355   7.280
28719SOL     OW87988  14.527   7.868  12.733
28719SOL    HW187989  14.460   7.826  12.679
28719SOL    HW287990  14.608   7.858  12.683
28720SOL     OW87991   2.421  11.180   7.814
28720SOL    HW187992   2.373  11.252   7.772
28720SOL    HW287993   2.352  11.124   7.850
28721SOL     OW87994   0.177   5.042   5.735
28721SOL    HW187995   0.083   5.046   5.753
28721SOL    HW287996   0.184   4.988   5.657
28722SOL     OW87997   3.022   7.875   2.006
28722SOL    HW187998   2.982   7.830   2.082
28722SOL    HW287999   3.078   7.809   1.966
28723SOL     OW88000   2.336   4.061   9.323
28723SOL    HW188001   2.312   3.999   9.392
28723SOL    HW288002   2.325   4.147   9.364
28724SOL     OW88003   7.471   8.097  10.547
28724SOL    HW188004   7.550   8.066  10.502
28724SOL    HW288005   7.418   8.138  10.479
28725SOL     OW88006  12.745   2.531   0.972
28725SOL    HW188007  12.787   2.482   1.042
28725SOL    HW288008  12.720   2.614   1.013
28726SOL     OW88009   4.046   0.388  10.519
28726SOL    HW188010   4.037   0.360  10.610
28726SOL    HW288011   3.968   0.353  10.475
28727SOL     OW88012   3.371   9.224   7.161
28727SOL    HW188013   3.441   9.273   7.204
28727SOL    HW288014   3.402   9.133   7.161
28728SOL     OW88015   9.006  11.848   2.002
28728SOL    HW188016   9.001  11.753   1.991
28728SOL    HW288017   8.938  11.883   1.944
28729SOL     OW88018   6.170   7.816   2.479
28729SOL    HW188019   6.173   7.900   2.434
28729SOL    HW288020   6.223   7.828   2.557
28730SOL     OW88021  12.561   0.457  14.326
28730SOL    HW188022  12.629   0.525  14.323
28730SOL    HW288023  12.598   0.389  14.384
28731SOL     OW88024   4.456   9.291   7.188
28731SOL    HW188025   4.511   9.355   7.143
28731SOL    HW288026   4.374   9.337   7.206
28732SOL     OW88027   8.277  11.068  14.546
28732SOL    HW188028   8.340  11.139  14.533
28732SOL    HW288029   8.319  10.992  14.507
28733SOL     OW88030  13.436   6.348   3.305
28733SOL    HW188031  13.470   6.275   3.253
28733SOL    HW288032  13.439   6.423   3.246
28734SOL     OW88033   6.301   0.318   4.862
28734SOL    HW188034   6.346   0.254   4.918
28734SOL    HW288035   6.372   0.368   4.822
28735SOL     OW88036   1.937   8.402   8.329
28735SOL    HW188037   1.971   8.491   8.343
28735SOL    HW288038   1.960   8.382   8.238
28736SOL     OW88039   0.902  14.387  10.256
28736SOL    HW188040   0.935  14.305  10.293
28736SOL    HW288041   0.957  14.455  10.293
28737SOL     OW88042  12.538  14.590  10.508
28737SOL    HW188043  12.514  14.532  10.580
28737SOL    HW288044  12.461  14.591  10.451
28738SOL     OW88045   4.601  11.961   9.665
28738SOL    HW188046   4.607  11.867   9.647
28738SOL    HW288047   4.656  12.001   9.598
28739SOL     OW88048  12.466   6.880   3.412
28739SOL    HW188049  12.385   6.908   3.454
28739SOL    HW288050  12.479   6.791   3.443
28740SOL     OW88051   0.896   3.763  13.775
28740SOL    HW188052   0.814   3.775  13.728
28740SOL    HW288053   0.886   3.679  13.820
28741SOL     OW88054   9.444  14.647   0.831
28741SOL    HW188055   9.374  14.692   0.783
28741SOL    HW288056   9.520  14.704   0.824
28742SOL     OW88057   8.469   2.173   1.328
28742SOL    HW188058   8.548   2.226   1.340
28742SOL    HW288059   8.477   2.104   1.394
28743SOL     OW88060   9.925  10.575   7.642
28743SOL    HW188061   9.862  10.622   7.587
28743SOL    HW288062   9.921  10.620   7.727
28744SOL     OW88063   6.830   2.773   2.563
28744SOL    HW188064   6.829   2.689   2.608
28744SOL    HW288065   6.888   2.759   2.488
28745SOL     OW88066   4.440  13.730   4.326
28745SOL    HW188067   4.457  13.821   4.352
28745SOL    HW288068   4.354  13.711   4.362
28746SOL     OW88069   8.456  14.140  13.819
28746SOL    HW188070   8.444  14.116  13.911
28746SOL    HW288071   8.500  14.225  13.821
28747SOL     OW88072   9.360  14.867  14.424
28747SOL    HW188073   9.276  14.874  14.379
28747SOL    HW288074   9.412  14.809  14.369
28748SOL     OW88075  13.536   8.782  10.291
28748SOL    HW188076  13.452   8.820  10.318
28748SOL    HW288077  13.512   8.716  10.226
28749SOL     OW88078   9.367  13.563   9.922
28749SOL    HW188079   9.293  13.597   9.972
28749SOL    HW288080   9.437  13.555   9.987
28750SOL     OW88081  14.340   9.796   6.445
28750SOL    HW188082  14.325   9.709   6.481
28750SOL    HW288083  14.398   9.839   6.508
28751SOL     OW88084  12.318  11.894  10.237
28751SOL    HW188085  12.275  11.881  10.322
28751SOL    HW288086  12.410  11.875  10.254
28752SOL     OW88087   3.356   0.114  12.596
28752SOL    HW188088   3.385   0.205  12.607
28752SOL    HW288089   3.436   0.068  12.569
28753SOL     OW88090   6.989   7.307   4.064
28753SOL    HW188091   7.025   7.318   4.152
28753SOL    HW288092   6.899   7.340   4.070
28754SOL     OW88093   6.177  10.131   6.595
28754SOL    HW188094   6.229  10.104   6.671
28754SOL    HW288095   6.135  10.050   6.565
28755SOL     OW88096   2.681   8.983   6.034
28755SOL    HW188097   2.751   9.002   5.972
28755SOL    HW288098   2.601   9.007   5.987
28756SOL     OW88099   5.849   2.428   5.099
28756SOL    HW188100   5.770   2.400   5.146
28756SOL    HW288101   5.822   2.435   5.008
28757SOL     OW88102   1.837  14.769   3.133
28757SOL    HW188103   1.860  14.822   3.057
28757SOL    HW288104   1.920  14.729   3.160
28758SOL     OW88105  12.560  10.598  13.122
28758SOL    HW188106  12.483  10.627  13.171
28758SOL    HW288107  12.535  10.608  13.030
28759SOL     OW88108  11.038   9.826   9.982
28759SOL    HW188109  11.041   9.826  10.078
28759SOL    HW288110  10.971   9.760   9.960
28760SOL     OW88111   0.628  10.193   3.945
28760SOL    HW188112   0.566  10.131   3.982
28760SOL    HW288113   0.605  10.196   3.852
28761SOL     OW88114   6.649   3.016   7.887
28761SOL    HW188115   6.718   2.949   7.885
28761SOL    HW288116   6.690   3.093   7.846
28762SOL     OW88117   5.727  13.913   5.055
28762SOL    HW188118   5.702  13.884   4.967
28762SOL    HW288119   5.644  13.932   5.098
28763SOL     OW88120  14.354   4.127   8.779
28763SOL    HW188121  14.341   4.173   8.696
28763SOL    HW288122  14.272   4.142   8.827
28764SOL     OW88123   6.785   0.418   7.154
28764SOL    HW188124   6.726   0.348   7.125
28764SOL    HW288125   6.747   0.498   7.117
28765SOL     OW88126   5.839  10.165  13.687
28765SOL    HW188127   5.837  10.091  13.747
28765SOL    HW288128   5.762  10.153  13.631
28766SOL     OW88129   8.481   7.323   8.355
28766SOL    HW188130   8.477   7.417   8.337
28766SOL    HW288131   8.399   7.304   8.400
28767SOL     OW88132  12.167  11.065   9.128
28767SOL    HW188133  12.189  11.057   9.220
28767SOL    HW288134  12.236  11.121   9.092
28768SOL     OW88135   7.730  10.464  12.756
28768SOL    HW188136   7.816  10.445  12.718
28768SOL    HW288137   7.698  10.539  12.706
28769SOL     OW88138  13.114   1.126   1.285
28769SOL    HW188139  13.069   1.120   1.370
28769SOL    HW288140  13.203   1.155   1.307
28770SOL     OW88141   0.255  11.442   7.784
28770SOL    HW188142   0.166  11.411   7.799
28770SOL    HW288143   0.251  11.536   7.802
28771SOL     OW88144   1.532  13.141  12.441
28771SOL    HW188145   1.569  13.055  12.460
28771SOL    HW288146   1.442  13.136  12.475
28772SOL     OW88147   1.036  11.977  14.850
28772SOL    HW188148   0.955  11.953   0.014
28772SOL    HW288149   1.080  12.037   0.028
28773SOL     OW88150   0.928  10.509   0.416
28773SOL    HW188151   0.920  10.441   0.483
28773SOL    HW288152   0.984  10.576   0.457
28774SOL     OW88153  14.629   6.973   3.078
28774SOL    HW188154  14.584   7.011   3.003
28774SOL    HW288155  14.700   7.035   3.097
28775SOL     OW88156  14.060  13.680   5.084
28775SOL    HW188157  14.005  13.612   5.123
28775SOL    HW288158  14.134  13.632   5.047
28776SOL     OW88159  14.332   2.723   4.913
28776SOL    HW188160  14.395   2.662   4.950
28776SOL    HW288161  14.366   2.810   4.936
28777SOL     OW88162   9.490  13.788   6.226
28777SOL    HW188163   9.440  13.709   6.206
28777SOL    HW288164   9.443  13.829   6.299
28778SOL     OW88165  10.741  13.485   4.843
28778SOL    HW188166  10.680  13.525   4.906
28778SOL    HW288167  10.800  13.433   4.897
28779SOL     OW88168   8.224   0.478  13.471
28779SOL    HW188169   8.199   0.563  13.432
28779SOL    HW288170   8.165   0.415  13.430
28780SOL     OW88171   6.183   8.969  10.052
28780SOL    HW188172   6.228   9.044  10.011
28780SOL    HW288173   6.144   8.922   9.978
28781SOL     OW88174  14.394  13.776  12.756
28781SOL    HW188175  14.346  13.747  12.833
28781SOL    HW288176  14.413  13.868  12.772
28782SOL     OW88177   7.690   6.700  14.755
28782SOL    HW188178   7.752   6.769  14.780
28782SOL    HW288179   7.738   6.618  14.771
28783SOL     OW88180   3.097   9.208  14.110
28783SOL    HW188181   3.079   9.292  14.068
28783SOL    HW288182   3.110   9.147  14.036
28784SOL     OW88183  12.160  14.715  11.301
28784SOL    HW188184  12.220  14.688  11.231
28784SOL    HW288185  12.106  14.638  11.318
28785SOL     OW88186   0.425   2.928   6.310
28785SOL    HW188187   0.434   3.011   6.356
28785SOL    HW288188   0.432   2.951   6.218
28786SOL     OW88189   5.366  11.175   1.274
28786SOL    HW188190   5.281  11.184   1.315
28786SOL    HW288191   5.381  11.259   1.229
28787SOL     OW88192   6.891   3.670  11.638
28787SOL    HW188193   6.926   3.584  11.616
28787SOL    HW288194   6.955   3.732  11.602
28788SOL     OW88195  11.093   1.969  10.370
28788SOL    HW188196  11.165   1.968  10.433
28788SOL    HW288197  11.118   2.036  10.306
28789SOL     OW88198   0.088   4.337   4.337
28789SOL    HW188199   0.025   4.390   4.289
28789SOL    HW288200   0.058   4.341   4.428
28790SOL     OW88201   0.362   8.139   1.382
28790SOL    HW188202   0.339   8.050   1.408
28790SOL    HW288203   0.426   8.167   1.447
28791SOL     OW88204  10.833  14.524   0.173
28791SOL    HW188205  10.895  14.542   0.244
28791SOL    HW288206  10.747  14.533   0.214
28792SOL     OW88207   8.855   6.131   1.993
28792SOL    HW188208   8.918   6.201   1.975
28792SOL    HW288209   8.773   6.177   2.013
28793SOL     OW88210   5.061  11.626   1.682
28793SOL    HW188211   5.046  11.620   1.776
28793SOL    HW288212   4.983  11.586   1.642
28794SOL     OW88213   7.828   0.178  12.658
28794SOL    HW188214   7.890   0.106  12.672
28794SOL    HW288215   7.758   0.139  12.605
28795SOL     OW88216   7.519  13.757  10.272
28795SOL    HW188217   7.580  13.831  10.272
28795SOL    HW288218   7.512  13.731  10.363
28796SOL     OW88219   6.642  12.396   5.358
28796SOL    HW188220   6.619  12.475   5.406
28796SOL    HW288221   6.738  12.398   5.352
28797SOL     OW88222  11.679  13.555   6.743
28797SOL    HW188223  11.679  13.547   6.647
28797SOL    HW288224  11.739  13.488   6.773
28798SOL     OW88225   1.363   8.358   7.137
28798SOL    HW188226   1.326   8.385   7.053
28798SOL    HW288227   1.431   8.295   7.114
28799SOL     OW88228   7.869  11.196  10.198
28799SOL    HW188229   7.952  11.188  10.150
28799SOL    HW288230   7.814  11.250  10.141
28800SOL     OW88231  14.514   7.697  10.125
28800SOL    HW188232  14.494   7.604  10.141
28800SOL    HW288233  14.429   7.741  10.132
28801SOL     OW88234   5.220   5.946   8.566
28801SOL    HW188235   5.245   5.856   8.586
28801SOL    HW288236   5.289   5.999   8.605
28802SOL     OW88237  12.060   4.012  10.111
28802SOL    HW188238  12.138   3.957  10.116
28802SOL    HW288239  12.075   4.068  10.035
28803SOL     OW88240   6.795   6.890   0.777
28803SOL    HW188241   6.842   6.808   0.765
28803SOL    HW288242   6.751   6.880   0.861
28804SOL     OW88243  11.091   4.345   2.109
28804SOL    HW188244  11.151   4.419   2.106
28804SOL    HW288245  11.055   4.339   2.020
28805SOL     OW88246   7.239   9.826   9.512
28805SOL    HW188247   7.163   9.837   9.455
28805SOL    HW288248   7.304   9.782   9.457
28806SOL     OW88249  11.430   9.181   3.115
28806SOL    HW188250  11.365   9.215   3.176
28806SOL    HW288251  11.497   9.249   3.110
28807SOL     OW88252   4.678   0.470   6.663
28807SOL    HW188253   4.592   0.468   6.704
28807SOL    HW288254   4.737   0.436   6.730
28808SOL     OW88255   5.568  10.225   2.822
28808SOL    HW188256   5.549  10.317   2.808
28808SOL    HW288257   5.572  10.187   2.734
28809SOL     OW88258   7.620   2.888   1.099
28809SOL    HW188259   7.621   2.983   1.085
28809SOL    HW288260   7.664   2.877   1.183
28810SOL     OW88261  12.330   6.856  14.358
28810SOL    HW188262  12.283   6.860  14.442
28810SOL    HW288263  12.332   6.947  14.328
28811SOL     OW88264   5.380  12.324  11.433
28811SOL    HW188265   5.442  12.263  11.394
28811SOL    HW288266   5.429  12.367  11.503
28812SOL     OW88267   8.930   0.287  12.326
28812SOL    HW188268   9.021   0.317  12.332
28812SOL    HW288269   8.891   0.313  12.410
28813SOL     OW88270   4.090  13.532   7.617
28813SOL    HW188271   4.042  13.449   7.610
28813SOL    HW288272   4.035  13.587   7.671
28814SOL     OW88273  11.866   1.301   2.356
28814SOL    HW188274  11.901   1.303   2.267
28814SOL    HW288275  11.887   1.213   2.387
28815SOL     OW88276   4.721  14.212   7.254
28815SOL    HW188277   4.759  14.300   7.257
28815SOL    HW288278   4.682  14.200   7.340
28816SOL     OW88279   2.882   6.934   8.481
28816SOL    HW188280   2.813   6.923   8.546
28816SOL    HW288281   2.930   6.851   8.483
28817SOL     OW88282   5.085  10.061  13.190
28817SOL    HW188283   4.999  10.077  13.150
28817SOL    HW288284   5.121   9.989  13.139
28818SOL     OW88285   8.481  11.771  11.667
28818SOL    HW188286   8.399  11.728  11.694
28818SOL    HW288287   8.458  11.818  11.587
28819SOL     OW88288   9.299  11.255   0.321
28819SOL    HW188289   9.247  11.206   0.384
28819SOL    HW288290   9.234  11.294   0.262
28820SOL     OW88291   4.319   8.654   8.992
28820SOL    HW188292   4.304   8.699   8.909
28820SOL    HW288293   4.392   8.701   9.033
28821SOL     OW88294   2.852   7.798   8.696
28821SOL    HW188295   2.815   7.874   8.740
28821SOL    HW288296   2.812   7.799   8.609
28822SOL     OW88297  10.677   2.474   0.496
28822SOL    HW188298  10.592   2.498   0.459
28822SOL    HW288299  10.716   2.415   0.431
28823SOL     OW88300   9.677   8.425  11.393
28823SOL    HW188301   9.741   8.436  11.323
28823SOL    HW288302   9.688   8.503  11.448
28824SOL     OW88303  12.346  13.361   9.226
28824SOL    HW188304  12.344  13.277   9.181
28824SOL    HW288305  12.254  13.381   9.244
28825SOL     OW88306   0.967  11.536   4.429
28825SOL    HW188307   1.047  11.587   4.422
28825SOL    HW288308   0.960  11.514   4.522
28826SOL     OW88309   2.285   3.162   3.277
28826SOL    HW188310   2.243   3.243   3.247
28826SOL    HW288311   2.378   3.184   3.281
28827SOL     OW88312   5.909   2.815  11.153
28827SOL    HW188313   5.949   2.857  11.078
28827SOL    HW288314   5.933   2.722  11.144
28828SOL     OW88315  11.180   2.772   3.064
28828SOL    HW188316  11.128   2.755   2.985
28828SOL    HW288317  11.150   2.707   3.127
28829SOL     OW88318  11.381   2.925   3.233
28829SOL    HW188319  11.380   2.886   3.145
28829SOL    HW288320  11.416   3.013   3.220
28830SOL     OW88321   2.680   4.230   8.989
28830SOL    HW188322   2.719   4.144   9.003
28830SOL    HW288323   2.591   4.223   9.025
28831SOL     OW88324   7.560   2.982   3.061
28831SOL    HW188325   7.643   3.020   3.090
28831SOL    HW288326   7.584   2.900   3.018
28832SOL     OW88327  12.239  13.742   1.707
28832SOL    HW188328  12.227  13.806   1.777
28832SOL    HW288329  12.276  13.666   1.751
28833SOL     OW88330   9.962  12.562  13.492
28833SOL    HW188331   9.884  12.617  13.484
28833SOL    HW288332   9.952  12.497  13.422
28834SOL     OW88333  10.056   0.523   8.802
28834SOL    HW188334  10.001   0.486   8.872
28834SOL    HW288335  10.003   0.514   8.723
28835SOL     OW88336   4.346   3.617  12.436
28835SOL    HW188337   4.279   3.673  12.475
28835SOL    HW288338   4.423   3.630  12.491
28836SOL     OW88339   5.690   3.848   0.681
28836SOL    HW188340   5.665   3.906   0.609
28836SOL    HW288341   5.642   3.767   0.663
28837SOL     OW88342   1.238   1.088  10.522
28837SOL    HW188343   1.151   1.121  10.546
28837SOL    HW288344   1.227   1.053  10.434
28838SOL     OW88345  11.827   1.989   0.445
28838SOL    HW188346  11.852   2.081   0.456
28838SOL    HW288347  11.746   1.992   0.394
28839SOL     OW88348  13.386  14.715   4.974
28839SOL    HW188349  13.426  14.663   4.904
28839SOL    HW288350  13.312  14.663   5.004
28840SOL     OW88351  14.252  12.744  12.443
28840SOL    HW188352  14.280  12.689  12.516
28840SOL    HW288353  14.318  12.728  12.374
28841SOL     OW88354   3.018   3.544   2.247
28841SOL    HW188355   3.020   3.533   2.342
28841SOL    HW288356   2.925   3.556   2.226
28842SOL     OW88357  12.897   5.061   6.349
28842SOL    HW188358  12.960   5.049   6.421
28842SOL    HW288359  12.813   5.074   6.393
28843SOL     OW88360   3.703   3.150  11.778
28843SOL    HW188361   3.791   3.111  11.782
28843SOL    HW288362   3.645   3.080  11.807
28844SOL     OW88363  10.670  10.867   0.828
28844SOL    HW188364  10.659  10.861   0.733
28844SOL    HW288365  10.603  10.929   0.857
28845SOL     OW88366  14.091  13.852  13.267
28845SOL    HW188367  14.048  13.896  13.193
28845SOL    HW288368  14.184  13.875  13.257
28846SOL     OW88369   5.204   9.442   0.931
28846SOL    HW188370   5.215   9.359   0.884
28846SOL    HW288371   5.111   9.444   0.956
28847SOL     OW88372  13.134   3.304  11.574
28847SOL    HW188373  13.042   3.323  11.554
28847SOL    HW288374  13.167   3.385  11.615
28848SOL     OW88375   0.508   3.036   4.231
28848SOL    HW188376   0.436   3.063   4.289
28848SOL    HW288377   0.486   3.074   4.146
28849SOL     OW88378   0.666   8.898  14.398
28849SOL    HW188379   0.717   8.938  14.327
28849SOL    HW288380   0.622   8.973  14.440
28850SOL     OW88381   2.977   2.350   6.321
28850SOL    HW188382   3.002   2.393   6.403
28850SOL    HW288383   3.020   2.401   6.253
28851SOL     OW88384  10.658   8.582   2.298
28851SOL    HW188385  10.611   8.501   2.280
28851SOL    HW288386  10.679   8.617   2.211
28852SOL     OW88387   3.028  10.694   9.898
28852SOL    HW188388   3.017  10.604   9.869
28852SOL    HW288389   2.955  10.741   9.858
28853SOL     OW88390   9.244   8.930  11.916
28853SOL    HW188391   9.338   8.944  11.904
28853SOL    HW288392   9.238   8.869  11.989
28854SOL     OW88393   0.111   2.293  12.416
28854SOL    HW188394   0.072   2.332  12.338
28854SOL    HW288395   0.135   2.204  12.389
28855SOL     OW88396   5.174   4.650   0.548
28855SOL    HW188397   5.176   4.567   0.499
28855SOL    HW288398   5.085   4.683   0.534
28856SOL     OW88399   9.157   5.176   3.240
28856SOL    HW188400   9.218   5.103   3.232
28856SOL    HW288401   9.205   5.251   3.203
28857SOL     OW88402   2.122  10.659   6.892
28857SOL    HW188403   2.194  10.617   6.844
28857SOL    HW288404   2.089  10.725   6.831
28858SOL     OW88405   2.875   7.386   2.355
28858SOL    HW188406   2.907   7.332   2.283
28858SOL    HW288407   2.832   7.460   2.313
28859SOL     OW88408  10.049   2.578   9.297
28859SOL    HW188409  10.066   2.484   9.293
28859SOL    HW288410  10.047   2.606   9.205
28860SOL     OW88411   5.750  14.313  11.051
28860SOL    HW188412   5.663  14.275  11.043
28860SOL    HW288413   5.802  14.268  10.985
28861SOL     OW88414  12.898   7.445   9.355
28861SOL    HW188415  12.936   7.404   9.277
28861SOL    HW288416  12.892   7.374   9.419
28862SOL     OW88417   8.576  13.243   7.487
28862SOL    HW188418   8.501  13.202   7.530
28862SOL    HW288419   8.652  13.205   7.530
28863SOL     OW88420  11.768   7.168   0.959
28863SOL    HW188421  11.856   7.203   0.971
28863SOL    HW288422  11.745   7.132   1.044
28864SOL     OW88423   5.223  12.650   0.230
28864SOL    HW188424   5.214  12.701   0.310
28864SOL    HW288425   5.265  12.568   0.258
28865SOL     OW88426  11.181   4.231   8.542
28865SOL    HW188427  11.093   4.250   8.574
28865SOL    HW288428  11.168   4.181   8.462
28866SOL     OW88429   2.117  10.623  12.399
28866SOL    HW188430   2.106  10.568  12.322
28866SOL    HW288431   2.117  10.712  12.365
28867SOL     OW88432  12.575   3.175   6.175
28867SOL    HW188433  12.560   3.088   6.213
28867SOL    HW288434  12.602   3.229   6.250
28868SOL     OW88435  12.655   1.180   2.299
28868SOL    HW188436  12.566   1.208   2.316
28868SOL    HW288437  12.648   1.086   2.282
28869SOL     OW88438   3.175   8.135  14.159
28869SOL    HW188439   3.239   8.113  14.091
28869SOL    HW288440   3.164   8.054  14.209
28870SOL     OW88441   5.031   5.933   5.495
28870SOL    HW188442   5.047   5.847   5.532
28870SOL    HW288443   4.936   5.941   5.491
28871SOL     OW88444  11.580  14.247   5.627
28871SOL    HW188445  11.603  14.274   5.716
28871SOL    HW288446  11.486  14.264   5.619
28872SOL     OW88447   2.711   9.847   9.875
28872SOL    HW188448   2.777   9.793   9.919
28872SOL    HW288449   2.754   9.932   9.863
28873SOL     OW88450   8.220  12.696   5.539
28873SOL    HW188451   8.279  12.708   5.613
28873SOL    HW288452   8.218  12.782   5.496
28874SOL     OW88453   8.583  12.497  12.941
28874SOL    HW188454   8.522  12.464  12.875
28874SOL    HW288455   8.596  12.424  13.001
28875SOL     OW88456   4.610   4.578   1.669
28875SOL    HW188457   4.604   4.495   1.621
28875SOL    HW288458   4.584   4.555   1.759
28876SOL     OW88459   1.372   2.715  11.001
28876SOL    HW188460   1.467   2.705  11.009
28876SOL    HW288461   1.354   2.801  11.041
28877SOL     OW88462  10.094   5.396   5.847
28877SOL    HW188463  10.174   5.439   5.878
28877SOL    HW288464  10.025   5.429   5.904
28878SOL     OW88465   5.996   4.040  12.497
28878SOL    HW188466   6.086   4.034  12.465
28878SOL    HW288467   5.958   4.112  12.448
28879SOL     OW88468   7.088   6.629   2.788
28879SOL    HW188469   7.080   6.534   2.790
28879SOL    HW288470   7.179   6.646   2.811
28880SOL     OW88471   4.071  11.470   4.125
28880SOL    HW188472   4.153  11.515   4.146
28880SOL    HW288473   4.012  11.492   4.198
28881SOL     OW88474   1.809  14.350   8.801
28881SOL    HW188475   1.878  14.373   8.739
28881SOL    HW288476   1.795  14.256   8.787
28882SOL     OW88477  13.016   8.569   9.756
28882SOL    HW188478  12.981   8.502   9.814
28882SOL    HW288479  13.111   8.566   9.769
28883SOL     OW88480  13.613   6.431  13.929
28883SOL    HW188481  13.655   6.360  13.977
28883SOL    HW288482  13.634   6.510  13.979
28884SOL     OW88483  10.331   5.451   6.732
28884SOL    HW188484  10.369   5.538   6.715
28884SOL    HW288485  10.253   5.469   6.784
28885SOL     OW88486   4.688   8.348   6.503
28885SOL    HW188487   4.770   8.374   6.545
28885SOL    HW288488   4.694   8.384   6.415
28886SOL     OW88489   2.778   5.802   5.232
28886SOL    HW188490   2.711   5.785   5.167
28886SOL    HW288491   2.823   5.881   5.201
28887SOL     OW88492  14.189  12.196   4.941
28887SOL    HW188493  14.138  12.244   4.876
28887SOL    HW288494  14.166  12.237   5.024
28888SOL     OW88495  12.027   1.700   5.989
28888SOL    HW188496  11.965   1.717   6.060
28888SOL    HW288497  12.021   1.606   5.974
28889SOL     OW88498   5.747   0.996  13.087
28889SOL    HW188499   5.837   1.002  13.056
28889SOL    HW288500   5.721   1.086  13.107
28890SOL     OW88501  12.500   4.757   8.379
28890SOL    HW188502  12.589   4.724   8.390
28890SOL    HW288503  12.511   4.852   8.372
28891SOL     OW88504   5.594  12.947   4.697
28891SOL    HW188505   5.610  13.012   4.629
28891SOL    HW288506   5.566  12.998   4.773
28892SOL     OW88507   3.317   4.518   7.221
28892SOL    HW188508   3.362   4.602   7.206
28892SOL    HW288509   3.231   4.543   7.254
28893SOL     OW88510   9.061  14.444   9.912
28893SOL    HW188511   9.028  14.380   9.849
28893SOL    HW288512   8.983  14.477   9.957
28894SOL     OW88513   4.284   1.366   7.300
28894SOL    HW188514   4.214   1.396   7.243
28894SOL    HW288515   4.365   1.394   7.257
28895SOL     OW88516   8.490   4.777   4.689
28895SOL    HW188517   8.482   4.683   4.672
28895SOL    HW288518   8.416   4.816   4.643
28896SOL     OW88519  14.360   2.212   9.197
28896SOL    HW188520  14.341   2.276   9.266
28896SOL    HW288521  14.405   2.141   9.243
28897SOL     OW88522   6.700  13.461   0.712
28897SOL    HW188523   6.627  13.402   0.690
28897SOL    HW288524   6.777  13.405   0.711
28898SOL     OW88525  11.382   3.533   1.472
28898SOL    HW188526  11.450   3.503   1.413
28898SOL    HW288527  11.420   3.522   1.560
28899SOL     OW88528   2.529   9.912   1.010
28899SOL    HW188529   2.567   9.986   0.962
28899SOL    HW288530   2.435   9.928   1.009
28900SOL     OW88531   3.566   5.661   9.797
28900SOL    HW188532   3.502   5.601   9.835
28900SOL    HW288533   3.513   5.728   9.753
28901SOL     OW88534   3.610   2.785   7.567
28901SOL    HW188535   3.613   2.782   7.471
28901SOL    HW288536   3.693   2.825   7.592
28902SOL     OW88537  13.743   7.297   1.360
28902SOL    HW188538  13.730   7.337   1.275
28902SOL    HW288539  13.660   7.307   1.406
28903SOL     OW88540   1.027   6.582   0.551
28903SOL    HW188541   1.032   6.646   0.480
28903SOL    HW288542   1.002   6.500   0.508
28904SOL     OW88543   0.697  10.354  11.358
28904SOL    HW188544   0.725  10.286  11.297
28904SOL    HW288545   0.711  10.436  11.311
28905SOL     OW88546  14.536   4.479  12.077
28905SOL    HW188547  14.441   4.484  12.067
28905SOL    HW288548  14.551   4.396  12.122
28906SOL     OW88549  12.687  11.312   3.152
28906SOL    HW188550  12.762  11.343   3.202
28906SOL    HW288551  12.634  11.263   3.215
28907SOL     OW88552  12.069   7.992   4.107
28907SOL    HW188553  12.022   8.022   4.029
28907SOL    HW288554  12.027   8.039   4.179
28908SOL     OW88555  13.872   9.411   5.089
28908SOL    HW188556  13.918   9.429   5.171
28908SOL    HW288557  13.868   9.316   5.084
28909SOL     OW88558  11.471   4.323  11.631
28909SOL    HW188559  11.396   4.308  11.688
28909SOL    HW288560  11.523   4.390  11.676
28910SOL     OW88561  12.466   5.831   0.218
28910SOL    HW188562  12.446   5.737   0.225
28910SOL    HW288563  12.417   5.872   0.288
28911SOL     OW88564  10.581   0.926   8.411
28911SOL    HW188565  10.513   0.859   8.420
28911SOL    HW288566  10.663   0.876   8.409
28912SOL     OW88567   2.588  12.585   5.400
28912SOL    HW188568   2.519  12.644   5.370
28912SOL    HW288569   2.541  12.514   5.444
28913SOL     OW88570  11.883  14.337   3.798
28913SOL    HW188571  11.967  14.341   3.754
28913SOL    HW288572  11.866  14.426   3.827
28914SOL     OW88573  12.773  14.580   4.826
28914SOL    HW188574  12.718  14.547   4.897
28914SOL    HW288575  12.723  14.651   4.787
28915SOL     OW88576   7.943   8.332   4.653
28915SOL    HW188577   8.022   8.386   4.651
28915SOL    HW288578   7.872   8.395   4.661
28916SOL     OW88579   2.448  13.582  14.677
28916SOL    HW188580   2.527  13.551  14.632
28916SOL    HW288581   2.463  13.561  14.769
28917SOL     OW88582  10.769  10.612   8.016
28917SOL    HW188583  10.713  10.643   8.087
28917SOL    HW288584  10.710  10.602   7.942
28918SOL     OW88585   3.873  13.032  13.662
28918SOL    HW188586   3.812  13.098  13.694
28918SOL    HW288587   3.931  13.080  13.602
28919SOL     OW88588  11.720  11.591  13.264
28919SOL    HW188589  11.661  11.541  13.320
28919SOL    HW288590  11.673  11.599  13.180
28920SOL     OW88591   4.669  10.457  10.884
28920SOL    HW188592   4.592  10.423  10.929
28920SOL    HW288593   4.679  10.546  10.917
28921SOL     OW88594   4.519   6.823   0.579
28921SOL    HW188595   4.496   6.820   0.486
28921SOL    HW288596   4.596   6.879   0.583
28922SOL     OW88597  13.433   7.136   1.866
28922SOL    HW188598  13.526   7.133   1.844
28922SOL    HW288599  13.421   7.222   1.906
28923SOL     OW88600  12.574   9.077   9.269
28923SOL    HW188601  12.533   9.160   9.295
28923SOL    HW288602  12.618   9.047   9.349
28924SOL     OW88603   8.406  12.155   2.692
28924SOL    HW188604   8.399  12.063   2.718
28924SOL    HW288605   8.357  12.203   2.759
28925SOL     OW88606   0.672   5.390  10.257
28925SOL    HW188607   0.718   5.474  10.267
28925SOL    HW288608   0.655   5.383  10.163
28926SOL     OW88609   7.259  14.249  12.073
28926SOL    HW188610   7.312  14.292  12.005
28926SOL    HW288611   7.204  14.188  12.024
28927SOL     OW88612  11.244   3.011   7.964
28927SOL    HW188613  11.321   3.067   7.974
28927SOL    HW288614  11.216   2.991   8.053
28928SOL     OW88615   9.669  11.564   8.594
28928SOL    HW188616   9.688  11.532   8.506
28928SOL    HW288617   9.611  11.639   8.581
28929SOL     OW88618  13.910  11.769   5.162
28929SOL    HW188619  13.980  11.727   5.212
28929SOL    HW288620  13.957  11.826   5.100
28930SOL     OW88621   3.725   3.520  14.379
28930SOL    HW188622   3.657   3.585  14.358
28930SOL    HW288623   3.801   3.549  14.329
28931SOL     OW88624   1.250   8.539  14.467
28931SOL    HW188625   1.273   8.505  14.553
28931SOL    HW288626   1.333   8.541  14.419
28932SOL     OW88627  13.149  12.535  13.839
28932SOL    HW188628  13.159  12.469  13.909
28932SOL    HW288629  13.066  12.579  13.859
28933SOL     OW88630   3.694   0.583  10.103
28933SOL    HW188631   3.628   0.577  10.171
28933SOL    HW288632   3.645   0.591  10.021
28934SOL     OW88633  10.042   5.571   3.991
28934SOL    HW188634  10.131   5.538   3.984
28934SOL    HW288635  10.004   5.523   4.065
28935SOL     OW88636   0.803   6.647   7.343
28935SOL    HW188637   0.826   6.648   7.436
28935SOL    HW288638   0.751   6.568   7.332
28936SOL     OW88639  11.244   2.811   5.171
28936SOL    HW188640  11.307   2.807   5.242
28936SOL    HW288641  11.281   2.755   5.102
28937SOL     OW88642   3.622   8.302   0.270
28937SOL    HW188643   3.574   8.224   0.245
28937SOL    HW288644   3.687   8.315   0.201
28938SOL     OW88645  14.757   6.239  13.623
28938SOL    HW188646  14.683   6.299  13.608
28938SOL    HW288647  14.722   6.172  13.682
28939SOL     OW88648   9.815  12.369   2.166
28939SOL    HW188649   9.727  12.346   2.195
28939SOL    HW288650   9.852  12.420   2.238
28940SOL     OW88651   1.194   1.451   5.650
28940SOL    HW188652   1.145   1.508   5.592
28940SOL    HW288653   1.274   1.430   5.601
28941SOL     OW88654  10.757   2.699   8.561
28941SOL    HW188655  10.771   2.778   8.613
28941SOL    HW288656  10.841   2.685   8.516
28942SOL     OW88657   4.722   6.966   7.823
28942SOL    HW188658   4.816   6.973   7.806
28942SOL    HW288659   4.688   6.913   7.751
28943SOL     OW88660  11.079   5.840   3.095
28943SOL    HW188661  11.089   5.848   3.001
28943SOL    HW288662  11.164   5.867   3.131
28944SOL     OW88663   7.952   1.810  12.468
28944SOL    HW188664   7.894   1.740  12.437
28944SOL    HW288665   8.019   1.765  12.519
28945SOL     OW88666  13.236   2.142   3.868
28945SOL    HW188667  13.194   2.106   3.790
28945SOL    HW288668  13.289   2.070   3.902
28946SOL     OW88669   1.204  13.325   6.763
28946SOL    HW188670   1.292  13.332   6.726
28946SOL    HW288671   1.145  13.344   6.690
28947SOL     OW88672  11.197   2.022   0.987
28947SOL    HW188673  11.160   2.047   0.902
28947SOL    HW288674  11.215   1.928   0.978
28948SOL     OW88675  10.433   7.709   1.780
28948SOL    HW188676  10.519   7.737   1.811
28948SOL    HW288677  10.430   7.615   1.798
28949SOL     OW88678   2.740  14.321   9.150
28949SOL    HW188679   2.775  14.274   9.225
28949SOL    HW288680   2.814  14.330   9.090
28950SOL     OW88681   9.125  10.478   7.495
28950SOL    HW188682   9.068  10.451   7.567
28950SOL    HW288683   9.195  10.413   7.495
28951SOL     OW88684  11.668  13.094   6.729
28951SOL    HW188685  11.670  13.164   6.664
28951SOL    HW288686  11.580  13.097   6.765
28952SOL     OW88687  12.058   9.461   3.318
28952SOL    HW188688  11.989   9.397   3.305
28952SOL    HW288689  12.091   9.444   3.406
28953SOL     OW88690  14.324   6.018   4.870
28953SOL    HW188691  14.406   6.052   4.906
28953SOL    HW288692  14.283   5.972   4.944
28954SOL     OW88693  11.009   0.770   9.393
28954SOL    HW188694  11.006   0.864   9.411
28954SOL    HW288695  10.926   0.737   9.427
28955SOL     OW88696   0.678  14.014   5.837
28955SOL    HW188697   0.586  13.989   5.850
28955SOL    HW288698   0.673  14.100   5.795
28956SOL     OW88699   0.466   3.001   6.061
28956SOL    HW188700   0.428   3.063   5.999
28956SOL    HW288701   0.560   3.000   6.039
28957SOL     OW88702   6.038   9.366   8.386
28957SOL    HW188703   6.116   9.325   8.348
28957SOL    HW288704   6.074   9.430   8.449
28958SOL     OW88705   1.145   0.113  11.427
28958SOL    HW188706   1.089   0.177  11.471
28958SOL    HW288707   1.084   0.052  11.385
28959SOL     OW88708  12.209   4.074  14.305
28959SOL    HW188709  12.224   4.134  14.378
28959SOL    HW288710  12.129   4.107  14.264
28960SOL     OW88711  10.605   2.481   9.549
28960SOL    HW188712  10.646   2.397   9.573
28960SOL    HW288713  10.514   2.472   9.577
28961SOL     OW88714  12.187   9.102   6.787
28961SOL    HW188715  12.253   9.158   6.746
28961SOL    HW288716  12.222   9.083   6.874
28962SOL     OW88717   7.614   3.346  12.283
28962SOL    HW188718   7.542   3.362  12.222
28962SOL    HW288719   7.587   3.391  12.364
28963SOL     OW88720  11.455   3.755  13.273
28963SOL    HW188721  11.490   3.748  13.184
28963SOL    HW288722  11.374   3.704  13.271
28964SOL     OW88723   4.374  10.801  13.893
28964SOL    HW188724   4.318  10.837  13.962
28964SOL    HW288725   4.436  10.745  13.939
28965SOL     OW88726   9.067  14.572  13.893
28965SOL    HW188727   9.129  14.559  13.965
28965SOL    HW288728   9.094  14.510  13.826
28966SOL     OW88729   8.933   9.958  11.647
28966SOL    HW188730   8.980  10.036  11.677
28966SOL    HW288731   9.002   9.897  11.621
28967SOL     OW88732   4.518   8.139   0.262
28967SOL    HW188733   4.532   8.216   0.208
28967SOL    HW288734   4.579   8.074   0.228
28968SOL     OW88735  12.773  13.562   3.618
28968SOL    HW188736  12.792  13.592   3.707
28968SOL    HW288737  12.797  13.470   3.617
28969SOL     OW88738   7.546   9.015  12.266
28969SOL    HW188739   7.619   8.974  12.312
28969SOL    HW288740   7.469   8.991  12.318
28970SOL     OW88741  14.507  10.025  10.701
28970SOL    HW188742  14.487  10.096  10.640
28970SOL    HW288743  14.514   9.947  10.646
28971SOL     OW88744   4.476  10.537  13.628
28971SOL    HW188745   4.482  10.475  13.700
28971SOL    HW288746   4.514  10.491  13.553
28972SOL     OW88747   7.050   1.960   6.933
28972SOL    HW188748   7.126   1.904   6.918
28972SOL    HW288749   7.000   1.915   7.002
28973SOL     OW88750  11.140   9.367   1.756
28973SOL    HW188751  11.119   9.323   1.838
28973SOL    HW288752  11.063   9.419   1.736
28974SOL     OW88753   4.067  13.092  12.421
28974SOL    HW188754   4.103  13.052  12.342
28974SOL    HW288755   4.102  13.041  12.493
28975SOL     OW88756  12.501   7.265   8.982
28975SOL    HW188757  12.570   7.330   8.970
28975SOL    HW288758  12.420   7.311   8.956
28976SOL     OW88759  12.588   0.837  12.726
28976SOL    HW188760  12.514   0.857  12.669
28976SOL    HW288761  12.555   0.771  12.786
28977SOL     OW88762   5.329   2.838  14.414
28977SOL    HW188763   5.259   2.773  14.420
28977SOL    HW288764   5.378   2.829  14.496
28978SOL     OW88765   2.850  10.094   9.524
28978SOL    HW188766   2.892  10.117   9.441
28978SOL    HW288767   2.761  10.068   9.499
28979SOL     OW88768   3.614   0.815  13.394
28979SOL    HW188769   3.619   0.731  13.349
28979SOL    HW288770   3.696   0.859  13.372
28980SOL     OW88771  10.629   9.046  12.776
28980SOL    HW188772  10.598   9.032  12.686
28980SOL    HW288773  10.692   9.118  12.769
28981SOL     OW88774   7.600   6.631   7.103
28981SOL    HW188775   7.597   6.553   7.160
28981SOL    HW288776   7.589   6.705   7.163
28982SOL     OW88777  12.227   6.911  12.998
28982SOL    HW188778  12.174   6.916  13.078
28982SOL    HW288779  12.274   6.828  13.006
28983SOL     OW88780   9.866   3.423   7.154
28983SOL    HW188781   9.784   3.375   7.139
28983SOL    HW288782   9.885   3.465   7.070
28984SOL     OW88783   1.924  12.865   0.498
28984SOL    HW188784   1.964  12.949   0.475
28984SOL    HW288785   1.991  12.800   0.476
28985SOL     OW88786  13.202   7.694   8.470
28985SOL    HW188787  13.296   7.712   8.464
28985SOL    HW288788  13.196   7.619   8.530
28986SOL     OW88789  11.155   4.690   2.342
28986SOL    HW188790  11.160   4.762   2.404
28986SOL    HW288791  11.132   4.731   2.258
28987SOL     OW88792   0.601  12.504   4.195
28987SOL    HW188793   0.685  12.458   4.195
28987SOL    HW288794   0.577  12.512   4.287
28988SOL     OW88795   0.037   9.305   7.594
28988SOL    HW188796   0.118   9.284   7.547
28988SOL    HW288797   0.026   9.233   7.656
28989SOL     OW88798   8.796  14.397   3.788
28989SOL    HW188799   8.794  14.434   3.876
28989SOL    HW288800   8.715  14.426   3.747
28990SOL     OW88801   3.062   9.075  11.307
28990SOL    HW188802   2.979   9.068  11.260
28990SOL    HW288803   3.039   9.120  11.389
28991SOL     OW88804   5.749   6.832  11.074
28991SOL    HW188805   5.820   6.768  11.075
28991SOL    HW288806   5.687   6.798  11.139
28992SOL     OW88807   3.816  11.639   5.654
28992SOL    HW188808   3.740  11.584   5.634
28992SOL    HW288809   3.780  11.710   5.707
28993SOL     OW88810   9.474  12.380  10.970
28993SOL    HW188811   9.381  12.388  10.989
28993SOL    HW288812   9.518  12.408  11.051
28994SOL     OW88813   7.261  14.500   0.968
28994SOL    HW188814   7.340  14.460   1.002
28994SOL    HW288815   7.288  14.586   0.937
28995SOL     OW88816   5.461   2.158   7.096
28995SOL    HW188817   5.406   2.233   7.119
28995SOL    HW288818   5.548   2.180   7.131
28996SOL     OW88819   0.660   7.718  12.717
28996SOL    HW188820   0.712   7.649  12.677
28996SOL    HW288821   0.725   7.777  12.756
28997SOL     OW88822  13.622   3.828   5.310
28997SOL    HW188823  13.565   3.891   5.267
28997SOL    HW288824  13.695   3.881   5.343
28998SOL     OW88825  10.172  11.195  10.556
28998SOL    HW188826  10.162  11.271  10.613
28998SOL    HW288827  10.083  11.163  10.543
28999SOL     OW88828   3.657   5.623   0.432
28999SOL    HW188829   3.573   5.656   0.463
28999SOL    HW288830   3.715   5.629   0.508
29000SOL     OW88831   1.774  12.271   9.952
29000SOL    HW188832   1.828  12.319  10.015
29000SOL    HW288833   1.826  12.194   9.929
29001SOL     OW88834   3.431   3.110   3.358
29001SOL    HW188835   3.382   3.114   3.440
29001SOL    HW288836   3.411   3.025   3.321
29002SOL     OW88837   4.093  10.553  10.549
29002SOL    HW188838   4.028  10.609  10.593
29002SOL    HW288839   4.097  10.474  10.603
29003SOL     OW88840   4.669   9.222   2.107
29003SOL    HW188841   4.635   9.148   2.057
29003SOL    HW288842   4.643   9.204   2.197
29004SOL     OW88843   8.600  11.243   4.457
29004SOL    HW188844   8.624  11.294   4.535
29004SOL    HW288845   8.677  11.191   4.437
29005SOL     OW88846  12.817   2.983   8.495
29005SOL    HW188847  12.814   3.068   8.537
29005SOL    HW288848  12.902   2.946   8.522
29006SOL     OW88849   6.726   1.566  13.802
29006SOL    HW188850   6.636   1.566  13.771
29006SOL    HW288851   6.740   1.653  13.839
29007SOL     OW88852   7.320   4.740  14.050
29007SOL    HW188853   7.281   4.791  13.979
29007SOL    HW288854   7.323   4.650  14.016
29008SOL     OW88855   5.961  13.173   8.797
29008SOL    HW188856   6.039  13.170   8.743
29008SOL    HW288857   5.898  13.115   8.753
29009SOL     OW88858   9.419  10.063  11.861
29009SOL    HW188859   9.505  10.035  11.829
29009SOL    HW288860   9.427  10.060  11.956
29010SOL     OW88861   3.737   3.701   1.462
29010SOL    HW188862   3.832   3.703   1.460
29010SOL    HW288863   3.712   3.790   1.489
29011SOL     OW88864  14.547  12.902   9.080
29011SOL    HW188865  14.619  12.866   9.027
29011SOL    HW288866  14.577  12.990   9.103
29012SOL     OW88867  11.916   6.625  10.716
29012SOL    HW188868  12.008   6.636  10.741
29012SOL    HW288869  11.919   6.604  10.623
29013SOL     OW88870   6.476  11.319  12.593
29013SOL    HW188871   6.489  11.405  12.552
29013SOL    HW288872   6.385  11.319  12.620
29014SOL     OW88873  13.468   7.366   1.972
29014SOL    HW188874  13.539   7.404   1.921
29014SOL    HW288875  13.397   7.430   1.967
29015SOL     OW88876  13.209   1.360   7.687
29015SOL    HW188877  13.145   1.430   7.701
29015SOL    HW288878  13.286   1.405   7.652
29016SOL     OW88879  10.022  11.372   4.447
29016SOL    HW188880  10.085  11.395   4.378
29016SOL    HW288881  10.070  11.386   4.529
29017SOL     OW88882  14.569   4.620   6.386
29017SOL    HW188883  14.538   4.704   6.420
29017SOL    HW288884  14.557   4.559   6.459
29018SOL     OW88885   5.589  13.668   8.035
29018SOL    HW188886   5.540  13.717   7.969
29018SOL    HW288887   5.661  13.627   7.987
29019SOL     OW88888   3.972   2.207   0.821
29019SOL    HW188889   3.914   2.277   0.789
29019SOL    HW288890   3.920   2.161   0.887
29020SOL     OW88891   6.757  12.880   5.773
29020SOL    HW188892   6.670  12.920   5.762
29020SOL    HW288893   6.807  12.911   5.697
29021SOL     OW88894   2.643   3.913   1.624
29021SOL    HW188895   2.610   3.827   1.596
29021SOL    HW288896   2.574   3.949   1.679
29022SOL     OW88897   3.396  12.420   0.012
29022SOL    HW188898   3.335  12.456  14.829
29022SOL    HW288899   3.362  12.332   0.031
29023SOL     OW88900  12.852   0.753   5.686
29023SOL    HW188901  12.762   0.760   5.716
29023SOL    HW288902  12.901   0.729   5.765
29024SOL     OW88903  13.493   3.811  11.333
29024SOL    HW188904  13.545   3.778  11.260
29024SOL    HW288905  13.557   3.853  11.391
29025SOL     OW88906  11.048  12.305   5.664
29025SOL    HW188907  11.088  12.275   5.745
29025SOL    HW288908  11.097  12.384   5.641
29026SOL     OW88909  10.749   0.373   0.598
29026SOL    HW188910  10.728   0.280   0.601
29026SOL    HW288911  10.738   0.402   0.689
29027SOL     OW88912   0.153   0.730  14.843
29027SOL    HW188913   0.236   0.744  14.797
29027SOL    HW288914   0.155   0.793   0.034
29028SOL     OW88915   1.157  10.632   2.458
29028SOL    HW188916   1.149  10.537   2.467
29028SOL    HW288917   1.111  10.668   2.534
29029SOL     OW88918   6.085   4.585   5.194
29029SOL    HW188919   6.159   4.645   5.182
29029SOL    HW288920   6.044   4.579   5.107
29030SOL     OW88921  14.157   6.670   4.236
29030SOL    HW188922  14.079   6.690   4.185
29030SOL    HW288923  14.190   6.756   4.263
29031SOL     OW88924   1.272  10.934   8.787
29031SOL    HW188925   1.333  10.869   8.753
29031SOL    HW288926   1.231  10.971   8.709
29032SOL     OW88927   6.063   4.422   6.208
29032SOL    HW188928   6.000   4.351   6.226
29032SOL    HW288929   6.014   4.485   6.156
29033SOL     OW88930   7.467  12.949   1.785
29033SOL    HW188931   7.550  12.968   1.827
29033SOL    HW288932   7.409  13.020   1.813
29034SOL     OW88933   4.159   1.027   8.654
29034SOL    HW188934   4.122   1.111   8.681
29034SOL    HW288935   4.248   1.048   8.626
29035SOL     OW88936  11.798  12.852   5.165
29035SOL    HW188937  11.874  12.797   5.186
29035SOL    HW288938  11.814  12.880   5.075
29036SOL     OW88939   7.002   2.160   9.842
29036SOL    HW188940   6.949   2.147   9.921
29036SOL    HW288941   6.947   2.125   9.772
29037SOL     OW88942   9.854  12.136   0.711
29037SOL    HW188943   9.830  12.109   0.800
29037SOL    HW288944   9.947  12.116   0.704
29038SOL     OW88945  13.349  13.903   9.002
29038SOL    HW188946  13.295  13.982   9.001
29038SOL    HW288947  13.434  13.932   9.035
29039SOL     OW88948   6.002   9.323   4.951
29039SOL    HW188949   6.013   9.368   4.867
29039SOL    HW288950   5.952   9.244   4.931
29040SOL     OW88951   8.237   5.350   8.744
29040SOL    HW188952   8.247   5.403   8.823
29040SOL    HW288953   8.187   5.406   8.684
29041SOL     OW88954   6.934  14.382  11.052
29041SOL    HW188955   6.930  14.319  10.979
29041SOL    HW288956   6.962  14.464  11.011
29042SOL     OW88957  14.036  13.043  11.574
29042SOL    HW188958  14.060  13.071  11.486
29042SOL    HW288959  14.108  13.070  11.630
29043SOL     OW88960  10.592  11.976   4.465
29043SOL    HW188961  10.631  12.001   4.549
29043SOL    HW288962  10.498  11.978   4.482
29044SOL     OW88963   8.363   7.018  14.727
29044SOL    HW188964   8.394   7.048  14.812
29044SOL    HW288965   8.432   6.961  14.694
29045SOL     OW88966  11.339  11.341   7.096
29045SOL    HW188967  11.281  11.344   7.020
29045SOL    HW288968  11.327  11.253   7.132
29046SOL     OW88969   0.119   6.581  12.304
29046SOL    HW188970   0.026   6.559  12.308
29046SOL    HW288971   0.122   6.675  12.325
29047SOL     OW88972   5.686   9.353   6.761
29047SOL    HW188973   5.696   9.344   6.667
29047SOL    HW288974   5.593   9.371   6.774
29048SOL     OW88975   3.524   6.895  13.989
29048SOL    HW188976   3.617   6.918  13.981
29048SOL    HW288977   3.517   6.853  14.074
29049SOL     OW88978   6.267   6.674  11.931
29049SOL    HW188979   6.354   6.711  11.942
29049SOL    HW288980   6.214   6.716  11.999
29050SOL     OW88981  12.844   0.675  12.675
29050SOL    HW188982  12.888   0.683  12.591
29050SOL    HW288983  12.780   0.746  12.676
29051SOL     OW88984   3.320  14.815   5.958
29051SOL    HW188985   3.236  14.774   5.939
29051SOL    HW288986   3.303  14.871   6.034
29052SOL     OW88987   5.811   1.612   1.995
29052SOL    HW188988   5.869   1.540   2.021
29052SOL    HW288989   5.779   1.586   1.908
29053SOL     OW88990   8.094   3.637   7.741
29053SOL    HW188991   8.091   3.637   7.645
29053SOL    HW288992   8.185   3.617   7.762
29054SOL     OW88993   7.665   1.339   2.445
29054SOL    HW188994   7.617   1.273   2.396
29054SOL    HW288995   7.624   1.422   2.419
29055SOL     OW88996   9.733   3.340   9.104
29055SOL    HW188997   9.816   3.345   9.151
29055SOL    HW288998   9.673   3.396   9.153
29056SOL     OW88999   4.173   4.983   7.890
29056SOL    HW189000   4.224   5.004   7.812
29056SOL    HW289001   4.235   4.995   7.963
29057SOL     OW89002   5.011   0.258   3.895
29057SOL    HW189003   5.102   0.230   3.899
29057SOL    HW289004   5.015   0.351   3.872
29058SOL     OW89005   7.569   2.827   9.784
29058SOL    HW189006   7.601   2.889   9.849
29058SOL    HW289007   7.513   2.879   9.726
29059SOL     OW89008  12.837  11.569   7.524
29059SOL    HW189009  12.819  11.650   7.573
29059SOL    HW289010  12.827  11.594   7.432
29060SOL     OW89011  11.727  13.985   4.674
29060SOL    HW189012  11.812  13.948   4.648
29060SOL    HW289013  11.680  13.911   4.713
29061SOL     OW89014   0.684  13.048   0.083
29061SOL    HW189015   0.674  13.137   0.114
29061SOL    HW289016   0.772  13.022   0.111
29062SOL     OW89017   3.376   3.296   1.303
29062SOL    HW189018   3.426   3.350   1.242
29062SOL    HW289019   3.306   3.258   1.250
29063SOL     OW89020  14.116   7.993   1.360
29063SOL    HW189021  14.041   7.998   1.300
29063SOL    HW289022  14.083   8.027   1.443
29064SOL     OW89023  14.431   0.810   8.321
29064SOL    HW189024  14.353   0.863   8.309
29064SOL    HW289025  14.483   0.825   8.242
29065SOL     OW89026   5.421  11.162   4.171
29065SOL    HW189027   5.356  11.119   4.117
29065SOL    HW289028   5.420  11.114   4.254
29066SOL     OW89029   2.332   0.420   9.863
29066SOL    HW189030   2.424   0.418   9.889
29066SOL    HW289031   2.335   0.440   9.769
29067SOL     OW89032   6.859   3.435  12.910
29067SOL    HW189033   6.768   3.413  12.932
29067SOL    HW289034   6.909   3.404  12.985
29068SOL     OW89035  14.155   2.510   7.443
29068SOL    HW189036  14.214   2.441   7.471
29068SOL    HW289037  14.074   2.494   7.492
29069SOL     OW89038  10.829   4.991   3.443
29069SOL    HW189039  10.752   4.974   3.389
29069SOL    HW289040  10.854   4.905   3.476
29070SOL     OW89041   0.087  11.829   1.593
29070SOL    HW189042   0.158  11.806   1.534
29070SOL    HW289043   0.079  11.753   1.652
29071SOL     OW89044   7.984   4.586   8.192
29071SOL    HW189045   7.927   4.605   8.267
29071SOL    HW289046   8.062   4.639   8.207
29072SOL     OW89047   7.741   9.904   4.466
29072SOL    HW189048   7.659   9.866   4.498
29072SOL    HW289049   7.794   9.917   4.545
29073SOL     OW89050   7.185   9.620  12.848
29073SOL    HW189051   7.140   9.535  12.849
29073SOL    HW289052   7.162   9.661  12.931
29074SOL     OW89053  13.910   2.312   2.704
29074SOL    HW189054  13.898   2.295   2.611
29074SOL    HW289055  13.851   2.251   2.748
29075SOL     OW89056   5.200   5.869   2.889
29075SOL    HW189057   5.216   5.776   2.908
29075SOL    HW289058   5.250   5.916   2.955
29076SOL     OW89059  11.327  10.203   6.690
29076SOL    HW189060  11.329  10.133   6.625
29076SOL    HW289061  11.416  10.239   6.688
29077SOL     OW89062   8.244  10.936   6.765
29077SOL    HW189063   8.320  10.969   6.717
29077SOL    HW289064   8.246  10.842   6.751
29078SOL     OW89065   8.600  14.124   6.609
29078SOL    HW189066   8.643  14.087   6.532
29078SOL    HW289067   8.513  14.148   6.580
29079SOL     OW89068   7.593  12.875   6.633
29079SOL    HW189069   7.626  12.846   6.718
29079SOL    HW289070   7.553  12.797   6.595
29080SOL     OW89071   9.836   4.027  12.769
29080SOL    HW189072   9.785   4.042  12.848
29080SOL    HW289073   9.917   4.076  12.783
29081SOL     OW89074  12.664   6.665   7.056
29081SOL    HW189075  12.607   6.720   7.001
29081SOL    HW289076  12.619   6.662   7.140
29082SOL     OW89077   0.669   1.172   3.492
29082SOL    HW189078   0.583   1.173   3.451
29082SOL    HW289079   0.673   1.089   3.539
29083SOL     OW89080   1.175  10.174   1.173
29083SOL    HW189081   1.246  10.116   1.201
29083SOL    HW289082   1.141  10.212   1.254
29084SOL     OW89083   3.713   7.405   0.248
29084SOL    HW189084   3.724   7.475   0.312
29084SOL    HW289085   3.702   7.325   0.300
29085SOL     OW89086   9.121   2.249   9.333
29085SOL    HW189087   9.089   2.172   9.288
29085SOL    HW289088   9.083   2.244   9.421
29086SOL     OW89089   2.196  11.158   4.570
29086SOL    HW189090   2.119  11.186   4.520
29086SOL    HW289091   2.161  11.134   4.656
29087SOL     OW89092   3.355   7.035   8.993
29087SOL    HW189093   3.330   7.116   8.947
29087SOL    HW289094   3.382   6.976   8.923
29088SOL     OW89095  11.782   0.029   4.097
29088SOL    HW189096  11.855   0.025   4.159
29088SOL    HW289097  11.815  14.870   4.017
29089SOL     OW89098  11.364   2.417  13.075
29089SOL    HW189099  11.413   2.475  13.133
29089SOL    HW289100  11.303   2.370  13.132
29090SOL     OW89101  14.648   6.212   5.056
29090SOL    HW189102  14.725   6.266   5.076
29090SOL    HW289103  14.639   6.154   5.132
29091SOL     OW89104  11.280  14.548   8.428
29091SOL    HW189105  11.242  14.493   8.497
29091SOL    HW289106  11.217  14.542   8.356
29092SOL     OW89107   1.192   3.638   7.588
29092SOL    HW189108   1.281   3.643   7.621
29092SOL    HW289109   1.181   3.546   7.563
29093SOL     OW89110   8.155  13.644   7.100
29093SOL    HW189111   8.119  13.613   7.183
29093SOL    HW289112   8.150  13.568   7.042
29094SOL     OW89113  12.755  13.472   3.084
29094SOL    HW189114  12.798  13.417   3.019
29094SOL    HW289115  12.760  13.422   3.165
29095SOL     OW89116  14.654   9.277   4.698
29095SOL    HW189117  14.578   9.330   4.674
29095SOL    HW289118  14.720   9.341   4.725
29096SOL     OW89119   9.312   4.970  13.575
29096SOL    HW189120   9.373   5.024  13.626
29096SOL    HW289121   9.318   5.006  13.487
29097SOL     OW89122  14.147   5.999   7.926
29097SOL    HW189123  14.096   6.079   7.915
29097SOL    HW289124  14.208   6.019   7.997
29098SOL     OW89125  13.189   0.171  11.253
29098SOL    HW189126  13.182   0.217  11.337
29098SOL    HW289127  13.195   0.078  11.278
29099SOL     OW89128   3.892   4.219   9.997
29099SOL    HW189129   3.801   4.225  10.027
29099SOL    HW289130   3.913   4.309   9.970
29100SOL     OW89131  11.460  14.365   3.035
29100SOL    HW189132  11.548  14.369   3.072
29100SOL    HW289133  11.447  14.272   3.015
29101SOL     OW89134   2.404   7.769   9.632
29101SOL    HW189135   2.475   7.788   9.695
29101SOL    HW289136   2.382   7.677   9.648
29102SOL     OW89137   0.734  10.475  11.892
29102SOL    HW189138   0.642  10.484  11.868
29102SOL    HW289139   0.756  10.384  11.872
29103SOL     OW89140   2.887  13.746  13.573
29103SOL    HW189141   2.936  13.684  13.521
29103SOL    HW289142   2.940  13.758  13.652
29104SOL     OW89143   4.447  12.844  13.543
29104SOL    HW189144   4.489  12.871  13.461
29104SOL    HW289145   4.516  12.850  13.608
29105SOL     OW89146   2.281   5.211  14.780
29105SOL    HW189147   2.373   5.208  14.806
29105SOL    HW289148   2.274   5.144  14.713
29106SOL     OW89149   1.406   8.743   3.767
29106SOL    HW189150   1.369   8.671   3.716
29106SOL    HW289151   1.390   8.821   3.713
29107SOL     OW89152   7.449   1.443   3.488
29107SOL    HW189153   7.499   1.523   3.473
29107SOL    HW289154   7.361   1.462   3.454
29108SOL     OW89155   5.961   6.418   8.860
29108SOL    HW189156   5.928   6.443   8.947
29108SOL    HW289157   5.936   6.326   8.851
29109SOL     OW89158  11.759   7.205   0.206
29109SOL    HW189159  11.849   7.192   0.235
29109SOL    HW289160  11.706   7.163   0.274
29110SOL     OW89161   4.305   8.090  12.068
29110SOL    HW189162   4.368   8.159  12.046
29110SOL    HW289163   4.239   8.095  11.998
29111SOL     OW89164  10.533   5.246   3.479
29111SOL    HW189165  10.484   5.266   3.558
29111SOL    HW289166  10.622   5.229   3.508
29112SOL     OW89167   5.062   7.550  12.107
29112SOL    HW189168   4.977   7.539  12.064
29112SOL    HW289169   5.056   7.497  12.186
29113SOL     OW89170   0.213   7.794   3.252
29113SOL    HW189171   0.243   7.868   3.198
29113SOL    HW289172   0.118   7.801   3.251
29114SOL     OW89173   7.371   3.492   2.695
29114SOL    HW189174   7.282   3.486   2.729
29114SOL    HW289175   7.416   3.415   2.730
29115SOL     OW89176   4.812  12.137  11.522
29115SOL    HW189177   4.879  12.141  11.454
29115SOL    HW289178   4.784  12.228  11.534
29116SOL     OW89179  13.228   8.639   0.702
29116SOL    HW189180  13.252   8.696   0.776
29116SOL    HW289181  13.141   8.606   0.725
29117SOL     OW89182  10.016  14.579   7.221
29117SOL    HW189183  10.044  14.487   7.229
29117SOL    HW289184   9.994  14.604   7.311
29118SOL     OW89185  13.588   9.703   5.395
29118SOL    HW189186  13.513   9.723   5.338
29118SOL    HW289187  13.656   9.764   5.366
29119SOL     OW89188   1.973   0.214  10.512
29119SOL    HW189189   1.953   0.215  10.418
29119SOL    HW289190   2.060   0.252  10.519
29120SOL     OW89191  11.885   6.765   7.610
29120SOL    HW189192  11.835   6.689   7.637
29120SOL    HW289193  11.968   6.729   7.577
29121SOL     OW89194   5.020   5.651   9.593
29121SOL    HW189195   4.978   5.709   9.529
29121SOL    HW289196   4.954   5.638   9.661
29122SOL     OW89197   2.981   4.476   1.051
29122SOL    HW189198   3.064   4.520   1.029
29122SOL    HW289199   2.991   4.450   1.142
29123SOL     OW89200  14.366   0.959   3.438
29123SOL    HW189201  14.401   1.044   3.463
29123SOL    HW289202  14.437   0.916   3.390
29124SOL     OW89203  11.060  10.977  12.477
29124SOL    HW189204  11.024  10.946  12.393
29124SOL    HW289205  11.125  11.042  12.452
29125SOL     OW89206   1.094  14.008   2.986
29125SOL    HW189207   1.178  13.965   3.007
29125SOL    HW289208   1.111  14.054   2.904
29126SOL     OW89209   5.373   3.648   0.362
29126SOL    HW189210   5.306   3.683   0.303
29126SOL    HW289211   5.430   3.596   0.306
29127SOL     OW89212   7.465   3.333   5.929
29127SOL    HW189213   7.377   3.310   5.959
29127SOL    HW289214   7.460   3.331   5.834
29128SOL     OW89215  13.740   5.204   8.541
29128SOL    HW189216  13.678   5.131   8.547
29128SOL    HW289217  13.698   5.266   8.481
29129SOL     OW89218  14.482   0.577   2.498
29129SOL    HW189219  14.416   0.517   2.534
29129SOL    HW289220  14.432   0.657   2.477
29130SOL     OW89221   7.003   9.236   2.097
29130SOL    HW189222   6.988   9.166   2.034
29130SOL    HW289223   7.018   9.191   2.180
29131SOL     OW89224   6.319  13.695   1.605
29131SOL    HW189225   6.357  13.764   1.659
29131SOL    HW289226   6.260  13.648   1.665
29132SOL     OW89227  13.245  11.708   7.518
29132SOL    HW189228  13.158  11.721   7.480
29132SOL    HW289229  13.259  11.785   7.574
29133SOL     OW89230   6.649   0.856   6.946
29133SOL    HW189231   6.664   0.823   6.858
29133SOL    HW289232   6.624   0.778   6.997
29134SOL     OW89233   3.867  14.155   6.157
29134SOL    HW189234   3.925  14.189   6.089
29134SOL    HW289235   3.856  14.062   6.136
29135SOL     OW89236  13.068   4.797   2.335
29135SOL    HW189237  12.993   4.752   2.296
29135SOL    HW289238  13.113   4.838   2.262
29136SOL     OW89239   4.008  11.945  11.589
29136SOL    HW189240   3.918  11.935  11.618
29136SOL    HW289241   4.001  11.980  11.500
29137SOL     OW89242   0.329   2.340  11.555
29137SOL    HW189243   0.339   2.428  11.521
29137SOL    HW289244   0.253   2.344  11.613
29138SOL     OW89245   9.792  11.981   1.457
29138SOL    HW189246   9.712  11.933   1.433
29138SOL    HW289247   9.784  11.994   1.552
29139SOL     OW89248   6.081  11.153   7.644
29139SOL    HW189249   6.171  11.186   7.639
29139SOL    HW289250   6.072  11.097   7.566
29140SOL     OW89251  10.523   8.957  10.260
29140SOL    HW189252  10.606   8.931  10.221
29140SOL    HW289253  10.514   8.903  10.338
29141SOL     OW89254   5.999  11.937   5.745
29141SOL    HW189255   6.076  11.994   5.754
29141SOL    HW289256   6.035  11.848   5.747
29142SOL     OW89257   2.304  10.788   5.764
29142SOL    HW189258   2.257  10.865   5.796
29142SOL    HW289259   2.386  10.789   5.813
29143SOL     OW89260   1.134  10.565  14.131
29143SOL    HW189261   1.043  10.535  14.134
29143SOL    HW289262   1.144  10.619  14.209
29144SOL     OW89263   1.639  14.487   7.152
29144SOL    HW189264   1.569  14.480   7.087
29144SOL    HW289265   1.653  14.582   7.162
29145SOL     OW89266   3.121   5.768  13.617
29145SOL    HW189267   3.141   5.704  13.549
29145SOL    HW289268   3.060   5.829  13.576
29146SOL     OW89269  12.185  10.457   7.394
29146SOL    HW189270  12.127  10.396   7.439
29146SOL    HW289271  12.143  10.472   7.309
29147SOL     OW89272  14.114   1.185   0.568
29147SOL    HW189273  14.060   1.126   0.620
29147SOL    HW289274  14.203   1.169   0.597
29148SOL     OW89275   0.124   9.773   6.133
29148SOL    HW189276   0.135   9.843   6.069
29148SOL    HW289277   0.160   9.810   6.214
29149SOL     OW89278   1.198   4.955   5.384
29149SOL    HW189279   1.108   4.947   5.352
29149SOL    HW289280   1.236   5.024   5.331
29150SOL     OW89281   0.990  14.271  12.192
29150SOL    HW189282   0.960  14.347  12.141
29150SOL    HW289283   1.035  14.309  12.268
29151SOL     OW89284   2.061  13.963  12.899
29151SOL    HW189285   2.106  13.986  12.981
29151SOL    HW289286   2.128  13.919  12.847
29152SOL     OW89287  10.432   6.287   7.371
29152SOL    HW189288  10.342   6.300   7.402
29152SOL    HW289289  10.475   6.240   7.442
29153SOL     OW89290   3.648   1.755  13.497
29153SOL    HW189291   3.743   1.751  13.500
29153SOL    HW289292   3.622   1.673  13.455
29154SOL     OW89293   2.345  11.416  12.663
29154SOL    HW189294   2.314  11.506  12.671
29154SOL    HW289295   2.440  11.422  12.670
29155SOL     OW89296   1.821  14.565   1.552
29155SOL    HW189297   1.799  14.588   1.461
29155SOL    HW289298   1.747  14.597   1.603
29156SOL     OW89299  14.099   7.664   9.690
29156SOL    HW189300  14.130   7.589   9.741
29156SOL    HW289301  14.014   7.636   9.655
29157SOL     OW89302   6.717   2.593  12.842
29157SOL    HW189303   6.656   2.623  12.909
29157SOL    HW289304   6.664   2.539  12.783
29158SOL     OW89305   2.267  14.520   8.908
29158SOL    HW189306   2.350  14.472   8.910
29158SOL    HW289307   2.288  14.605   8.946
29159SOL     OW89308   6.565   2.981   4.630
29159SOL    HW189309   6.490   2.928   4.603
29159SOL    HW289310   6.601   3.016   4.549
29160SOL     OW89311   4.672  13.539   9.774
29160SOL    HW189312   4.702  13.563   9.686
29160SOL    HW289313   4.686  13.618   9.827
29161SOL     OW89314   8.968   0.934   6.011
29161SOL    HW189315   9.036   0.902   5.952
29161SOL    HW289316   8.886   0.903   5.972
29162SOL     OW89317  13.897   3.293   7.245
29162SOL    HW189318  13.856   3.379   7.250
29162SOL    HW289319  13.958   3.291   7.318
29163SOL     OW89320   7.725  14.648   5.804
29163SOL    HW189321   7.755  14.611   5.721
29163SOL    HW289322   7.686  14.574   5.851
29164SOL     OW89323   5.626   1.184   7.209
29164SOL    HW189324   5.581   1.142   7.135
29164SOL    HW289325   5.618   1.121   7.280
29165SOL     OW89326   5.950  11.216   2.918
29165SOL    HW189327   5.880  11.232   2.855
29165SOL    HW289328   6.005  11.149   2.877
29166SOL     OW89329   3.630   1.659   4.943
29166SOL    HW189330   3.704   1.625   4.993
29166SOL    HW289331   3.669   1.717   4.878
29167SOL     OW89332  11.326   6.801   2.816
29167SOL    HW189333  11.262   6.747   2.863
29167SOL    HW289334  11.330   6.882   2.867
29168SOL     OW89335   4.850  11.412   6.204
29168SOL    HW189336   4.797  11.352   6.152
29168SOL    HW289337   4.786  11.467   6.250
29169SOL     OW89338   7.503   6.460  13.199
29169SOL    HW189339   7.590   6.438  13.166
29169SOL    HW289340   7.447   6.389  13.166
29170SOL     OW89341   9.009   3.863  10.141
29170SOL    HW189342   9.090   3.909  10.118
29170SOL    HW289343   9.036   3.798  10.206
29171SOL     OW89344   8.731   7.438   3.101
29171SOL    HW189345   8.712   7.484   3.183
29171SOL    HW289346   8.748   7.348   3.128
29172SOL     OW89347   6.753   9.525  11.997
29172SOL    HW189348   6.796   9.477  11.927
29172SOL    HW289349   6.787   9.614  11.990
29173SOL     OW89350  10.311  10.201   1.140
29173SOL    HW189351  10.389  10.205   1.084
29173SOL    HW289352  10.246  10.254   1.093
29174SOL     OW89353   8.645   4.409   5.316
29174SOL    HW189354   8.581   4.373   5.378
29174SOL    HW289355   8.592   4.446   5.246
29175SOL     OW89356  11.927   2.427   5.978
29175SOL    HW189357  11.877   2.370   5.920
29175SOL    HW289358  11.869   2.500   5.997
29176SOL     OW89359  13.362   9.866   7.466
29176SOL    HW189360  13.432   9.868   7.532
29176SOL    HW289361  13.408   9.869   7.382
29177SOL     OW89362  10.524  13.077   9.559
29177SOL    HW189363  10.524  13.099   9.466
29177SOL    HW289364  10.442  13.114   9.592
29178SOL     OW89365   6.666   7.675  12.348
29178SOL    HW189366   6.672   7.601  12.288
29178SOL    HW289367   6.732   7.657  12.415
29179SOL     OW89368   1.621   7.868  10.805
29179SOL    HW189369   1.527   7.866  10.824
29179SOL    HW289370   1.626   7.903  10.716
29180SOL     OW89371   2.025   3.113   7.210
29180SOL    HW189372   2.004   3.037   7.265
29180SOL    HW289373   2.111   3.093   7.174
29181SOL     OW89374   9.652  10.895   6.524
29181SOL    HW189375   9.578  10.859   6.475
29181SOL    HW289376   9.657  10.986   6.497
29182SOL     OW89377   0.394   6.587   6.558
29182SOL    HW189378   0.354   6.609   6.642
29182SOL    HW289379   0.334   6.524   6.519
29183SOL     OW89380  12.668   9.563   0.232
29183SOL    HW189381  12.602   9.611   0.183
29183SOL    HW289382  12.619   9.494   0.277
29184SOL     OW89383  11.966   8.960  14.395
29184SOL    HW189384  12.025   8.919  14.459
29184SOL    HW289385  12.000   8.933  14.310
29185SOL     OW89386  12.742   1.654   9.722
29185SOL    HW189387  12.722   1.718   9.790
29185SOL    HW289388  12.764   1.574   9.770
29186SOL     OW89389  14.224   9.817  12.160
29186SOL    HW189390  14.157   9.869  12.203
29186SOL    HW289391  14.182   9.734  12.141
29187SOL     OW89392   1.019  12.738   4.333
29187SOL    HW189393   0.973  12.664   4.372
29187SOL    HW289394   1.110  12.708   4.325
29188SOL     OW89395  13.976  10.659  13.912
29188SOL    HW189396  13.914  10.685  13.844
29188SOL    HW289397  14.048  10.618  13.865
29189SOL     OW89398   3.945  12.277  10.362
29189SOL    HW189399   3.910  12.194  10.331
29189SOL    HW289400   3.911  12.341  10.299
29190SOL     OW89401   0.339  13.028   7.719
29190SOL    HW189402   0.284  13.074   7.656
29190SOL    HW289403   0.277  12.991   7.782
29191SOL     OW89404   6.579  10.273  11.863
29191SOL    HW189405   6.561  10.232  11.947
29191SOL    HW289406   6.526  10.353  11.863
29192SOL     OW89407  11.515  12.092   0.693
29192SOL    HW189408  11.580  12.069   0.627
29192SOL    HW289409  11.517  12.187   0.697
29193SOL     OW89410   7.678   5.808   7.009
29193SOL    HW189411   7.597   5.812   6.958
29193SOL    HW289412   7.649   5.813   7.100
29194SOL     OW89413   1.913   7.764  11.942
29194SOL    HW189414   1.829   7.771  11.987
29194SOL    HW289415   1.919   7.672  11.917
29195SOL     OW89416   2.918   0.350   7.998
29195SOL    HW189417   3.005   0.350   7.958
29195SOL    HW289418   2.876   0.272   7.963
29196SOL     OW89419  10.264  12.509  10.053
29196SOL    HW189420  10.185  12.562  10.044
29196SOL    HW289421  10.258  12.471  10.141
29197SOL     OW89422  13.623   5.300   0.958
29197SOL    HW189423  13.627   5.209   0.989
29197SOL    HW289424  13.650   5.295   0.866
29198SOL     OW89425   2.644   2.241   7.909
29198SOL    HW189426   2.657   2.279   7.822
29198SOL    HW289427   2.584   2.168   7.895
29199SOL     OW89428   5.452   7.838   9.065
29199SOL    HW189429   5.482   7.749   9.080
29199SOL    HW289430   5.393   7.831   8.989
29200SOL     OW89431   0.330   3.392  13.692
29200SOL    HW189432   0.342   3.298  13.705
29200SOL    HW289433   0.416   3.423  13.661
29201SOL     OW89434   7.263   4.949   7.278
29201SOL    HW189435   7.247   5.024   7.335
29201SOL    HW289436   7.326   4.895   7.325
29202SOL     OW89437   0.324   9.525  12.790
29202SOL    HW189438   0.270   9.447  12.783
29202SOL    HW289439   0.352   9.544  12.700
29203SOL     OW89440   1.963   2.715  12.584
29203SOL    HW189441   1.909   2.791  12.602
29203SOL    HW289442   1.956   2.703  12.489
29204SOL     OW89443   1.723   5.172   3.036
29204SOL    HW189444   1.785   5.144   3.103
29204SOL    HW289445   1.641   5.187   3.083
29205SOL     OW89446   6.200   6.414  12.431
29205SOL    HW189447   6.207   6.342  12.494
29205SOL    HW289448   6.291   6.436  12.410
29206SOL     OW89449   1.868   3.998   7.205
29206SOL    HW189450   1.832   3.953   7.281
29206SOL    HW289451   1.791   4.033   7.160
29207SOL     OW89452  14.723  12.046   5.018
29207SOL    HW189453  14.643  12.080   4.978
29207SOL    HW289454  14.716  11.951   5.009
29208SOL     OW89455   6.493   2.508   5.139
29208SOL    HW189456   6.416   2.551   5.176
29208SOL    HW289457   6.552   2.580   5.115
29209SOL     OW89458   3.953   2.249  11.838
29209SOL    HW189459   4.028   2.195  11.810
29209SOL    HW289460   3.959   2.249  11.934
29210SOL     OW89461   5.343  11.851  14.182
29210SOL    HW189462   5.380  11.938  14.164
29210SOL    HW289463   5.391  11.792  14.123
29211SOL     OW89464   7.764   5.486  11.857
29211SOL    HW189465   7.848   5.483  11.903
29211SOL    HW289466   7.776   5.431  11.780
29212SOL     OW89467  13.355  14.861  10.356
29212SOL    HW189468  13.350   0.074  10.353
29212SOL    HW289469  13.334  14.839  10.447
29213SOL     OW89470   1.320  11.541   3.425
29213SOL    HW189471   1.237  11.566   3.466
29213SOL    HW289472   1.375  11.512   3.498
29214SOL     OW89473   2.424  10.520   6.073
29214SOL    HW189474   2.366  10.579   6.123
29214SOL    HW289475   2.492  10.576   6.038
29215SOL     OW89476   2.485   6.299   6.066
29215SOL    HW189477   2.535   6.378   6.088
29215SOL    HW289478   2.471   6.256   6.151
29216SOL     OW89479  10.401  12.753   3.623
29216SOL    HW189480  10.404  12.841   3.585
29216SOL    HW289481  10.333  12.758   3.690
29217SOL     OW89482   1.078  11.640  11.981
29217SOL    HW189483   1.082  11.735  11.970
29217SOL    HW289484   1.147  11.620  12.045
29218SOL     OW89485   1.179   1.267   4.567
29218SOL    HW189486   1.173   1.343   4.624
29218SOL    HW289487   1.198   1.303   4.481
29219SOL     OW89488   3.142   5.120   0.109
29219SOL    HW189489   3.115   5.210   0.092
29219SOL    HW289490   3.060   5.072   0.119
29220SOL     OW89491   5.020  10.387   5.917
29220SOL    HW189492   5.007  10.473   5.958
29220SOL    HW289493   5.109  10.390   5.881
29221SOL     OW89494   9.753  14.876   3.228
29221SOL    HW189495   9.751   0.090   3.226
29221SOL    HW289496   9.750  14.854   3.321
29222SOL     OW89497  13.703  10.709   7.663
29222SOL    HW189498  13.778  10.768   7.662
29222SOL    HW289499  13.631  10.763   7.697
29223SOL     OW89500   4.379   1.266   0.985
29223SOL    HW189501   4.388   1.361   0.998
29223SOL    HW289502   4.295   1.255   0.942
29224SOL     OW89503   1.614   3.402   8.311
29224SOL    HW189504   1.658   3.462   8.371
29224SOL    HW289505   1.581   3.459   8.241
29225SOL     OW89506   0.596   9.625  11.195
29225SOL    HW189507   0.558   9.661  11.276
29225SOL    HW289508   0.541   9.661  11.125
29226SOL     OW89509   2.857   1.755   0.699
29226SOL    HW189510   2.853   1.850   0.688
29226SOL    HW289511   2.913   1.742   0.776
29227SOL     OW89512   1.133   8.772   6.706
29227SOL    HW189513   1.063   8.763   6.771
29227SOL    HW289514   1.188   8.843   6.740
29228SOL     OW89515   6.121   2.044  12.999
29228SOL    HW189516   6.129   2.084  12.912
29228SOL    HW289517   6.088   2.115  13.055
29229SOL     OW89518   7.650  14.211   5.745
29229SOL    HW189519   7.641  14.274   5.674
29229SOL    HW289520   7.567  14.164   5.745
29230SOL     OW89521   5.752  11.761   7.114
29230SOL    HW189522   5.702  11.686   7.082
29230SOL    HW289523   5.827  11.767   7.055
29231SOL     OW89524   6.139   4.063   6.824
29231SOL    HW189525   6.113   4.060   6.732
29231SOL    HW289526   6.065   4.026   6.872
29232SOL     OW89527  10.898  14.671   4.053
29232SOL    HW189528  10.854  14.620   4.121
29232SOL    HW289529  10.983  14.692   4.091
29233SOL     OW89530  10.473   3.239   0.214
29233SOL    HW189531  10.485   3.147   0.189
29233SOL    HW289532  10.487   3.288   0.132
29234SOL     OW89533   6.765  13.439   2.795
29234SOL    HW189534   6.786  13.360   2.845
29234SOL    HW289535   6.674  13.427   2.768
29235SOL     OW89536   5.722  12.693   9.129
29235SOL    HW189537   5.811  12.677   9.098
29235SOL    HW289538   5.704  12.784   9.107
29236SOL     OW89539  11.477   6.928   4.668
29236SOL    HW189540  11.412   6.996   4.680
29236SOL    HW289541  11.558   6.965   4.703
29237SOL     OW89542   7.801  12.619   1.777
29237SOL    HW189543   7.756  12.654   1.854
29237SOL    HW289544   7.838  12.696   1.734
29238SOL     OW89545   7.352   4.931   5.827
29238SOL    HW189546   7.318   5.018   5.804
29238SOL    HW289547   7.297   4.871   5.777
29239SOL     OW89548   2.462  14.232   3.701
29239SOL    HW189549   2.509  14.170   3.756
29239SOL    HW289550   2.431  14.300   3.761
29240SOL     OW89551   6.776   8.181  11.091
29240SOL    HW189552   6.850   8.122  11.076
29240SOL    HW289553   6.753   8.167  11.183
29241SOL     OW89554   7.103   4.845   4.592
29241SOL    HW189555   7.126   4.916   4.531
29241SOL    HW289556   7.116   4.884   4.679
29242SOL     OW89557   8.343   4.235   2.842
29242SOL    HW189558   8.432   4.211   2.816
29242SOL    HW289559   8.355   4.286   2.923
29243SOL     OW89560   8.463  12.954   5.242
29243SOL    HW189561   8.485  12.995   5.159
29243SOL    HW289562   8.547  12.933   5.281
29244SOL     OW89563   4.432   6.784  11.854
29244SOL    HW189564   4.437   6.715  11.921
29244SOL    HW289565   4.522   6.799  11.828
29245SOL     OW89566  10.792   8.832   5.376
29245SOL    HW189567  10.752   8.864   5.456
29245SOL    HW289568  10.845   8.906   5.345
29246SOL     OW89569   9.773   5.480   5.967
29246SOL    HW189570   9.854   5.488   6.017
29246SOL    HW289571   9.711   5.439   6.028
29247SOL     OW89572   3.809   5.258   5.042
29247SOL    HW189573   3.759   5.218   5.112
29247SOL    HW289574   3.747   5.267   4.970
29248SOL     OW89575   3.792  12.546   1.645
29248SOL    HW189576   3.759  12.635   1.661
29248SOL    HW289577   3.773  12.531   1.552
29249SOL     OW89578  14.429   9.204   8.595
29249SOL    HW189579  14.462   9.132   8.541
29249SOL    HW289580  14.334   9.200   8.585
29250SOL     OW89581   3.076  11.006  12.229
29250SOL    HW189582   3.005  10.970  12.282
29250SOL    HW289583   3.061  11.100  12.228
29251SOL     OW89584  12.058   1.345   9.697
29251SOL    HW189585  12.106   1.415   9.653
29251SOL    HW289586  12.102   1.265   9.669
29252SOL     OW89587   3.903   9.661   4.030
29252SOL    HW189588   3.909   9.756   4.035
29252SOL    HW289589   3.885   9.642   3.938
29253SOL     OW89590   5.605   2.949   4.280
29253SOL    HW189591   5.530   2.893   4.260
29253SOL    HW289592   5.628   2.988   4.195
29254SOL     OW89593   7.117  14.802  12.668
29254SOL    HW189594   7.188  14.862  12.645
29254SOL    HW289595   7.160  14.718  12.683
29255SOL     OW89596  13.521   3.383   8.671
29255SOL    HW189597  13.594   3.322   8.681
29255SOL    HW289598  13.496   3.405   8.761
29256SOL     OW89599  12.271  10.022  14.249
29256SOL    HW189600  12.237  10.012  14.160
29256SOL    HW289601  12.245  10.110  14.275
29257SOL     OW89602   9.777  11.237   6.948
29257SOL    HW189603   9.769  11.231   7.043
29257SOL    HW289604   9.813  11.325   6.933
29258SOL     OW89605  13.830   5.919   0.148
29258SOL    HW189606  13.913   5.890   0.109
29258SOL    HW289607  13.821   6.010   0.121
29259SOL     OW89608  12.231   4.265   3.309
29259SOL    HW189609  12.212   4.333   3.244
29259SOL    HW289610  12.242   4.313   3.391
29260SOL     OW89611   3.926   7.612   4.046
29260SOL    HW189612   3.980   7.680   4.085
29260SOL    HW289613   3.839   7.652   4.036
29261SOL     OW89614  12.467   9.032  11.339
29261SOL    HW189615  12.522   9.085  11.397
29261SOL    HW289616  12.462   9.083  11.258
29262SOL     OW89617  12.035   9.604   7.814
29262SOL    HW189618  12.087   9.538   7.859
29262SOL    HW289619  12.003   9.662   7.883
29263SOL     OW89620  12.431   6.479   9.865
29263SOL    HW189621  12.484   6.538   9.919
29263SOL    HW289622  12.398   6.414   9.926
29264SOL     OW89623   3.828  14.209   2.135
29264SOL    HW189624   3.786  14.212   2.049
29264SOL    HW289625   3.786  14.135   2.180
29265SOL     OW89626   6.476  13.506   4.258
29265SOL    HW189627   6.430  13.473   4.180
29265SOL    HW289628   6.407  13.519   4.323
29266SOL     OW89629   1.725   3.276  13.817
29266SOL    HW189630   1.738   3.201  13.760
29266SOL    HW289631   1.718   3.351  13.758
29267SOL     OW89632  11.712   1.352  14.066
29267SOL    HW189633  11.640   1.319  14.120
29267SOL    HW289634  11.673   1.426  14.018
29268SOL     OW89635   9.164  14.380   7.040
29268SOL    HW189636   9.163  14.297   7.087
29268SOL    HW289637   9.209  14.440   7.099
29269SOL     OW89638   6.110  13.137   7.036
29269SOL    HW189639   6.109  13.188   6.955
29269SOL    HW289640   6.109  13.203   7.106
29270SOL     OW89641   1.044  12.447   8.697
29270SOL    HW189642   0.966  12.499   8.717
29270SOL    HW289643   1.067  12.405   8.779
29271SOL     OW89644  13.318   2.102   4.292
29271SOL    HW189645  13.385   2.101   4.360
29271SOL    HW289646  13.363   2.073   4.212
29272SOL     OW89647  11.052   7.205   2.195
29272SOL    HW189648  11.005   7.287   2.210
29272SOL    HW289649  10.998   7.157   2.133
29273SOL     OW89650   6.282   6.394   2.439
29273SOL    HW189651   6.348   6.454   2.408
29273SOL    HW289652   6.285   6.402   2.535
29274SOL     OW89653   4.531  11.100   7.159
29274SOL    HW189654   4.581  11.176   7.190
29274SOL    HW289655   4.549  11.097   7.065
29275SOL     OW89656   2.848   9.168   7.290
29275SOL    HW189657   2.796   9.202   7.217
29275SOL    HW289658   2.933   9.210   7.280
29276SOL     OW89659   9.920   4.000   3.385
29276SOL    HW189660   9.975   3.985   3.462
29276SOL    HW289661   9.959   4.076   3.342
29277SOL     OW89662  13.000   7.638   0.690
29277SOL    HW189663  12.935   7.587   0.737
29277SOL    HW289664  13.070   7.652   0.753
29278SOL     OW89665  11.126   3.075   2.631
29278SOL    HW189666  11.064   3.133   2.587
29278SOL    HW289667  11.084   3.055   2.715
29279SOL     OW89668   7.824   9.083  13.988
29279SOL    HW189669   7.793   9.171  14.009
29279SOL    HW289670   7.751   9.026  14.009
29280SOL     OW89671   7.102   7.000  11.644
29280SOL    HW189672   7.155   6.935  11.599
29280SOL    HW289673   7.019   7.001  11.597
29281SOL     OW89674   4.188   5.796   1.726
29281SOL    HW189675   4.244   5.838   1.792
29281SOL    HW289676   4.211   5.703   1.730
29282SOL     OW89677   9.548   3.843  13.573
29282SOL    HW189678   9.559   3.884  13.659
29282SOL    HW289679   9.581   3.908  13.512
29283SOL     OW89680  12.262  10.085  10.365
29283SOL    HW189681  12.264  10.140  10.443
29283SOL    HW289682  12.295  10.000  10.395
29284SOL     OW89683  12.866   4.007   6.553
29284SOL    HW189684  12.840   3.915   6.542
29284SOL    HW289685  12.959   4.003   6.576
29285SOL     OW89686  11.852  14.845  11.457
29285SOL    HW189687  11.845  14.756  11.423
29285SOL    HW289688  11.819   0.019  11.387
29286SOL     OW89689   6.353   6.102   1.289
29286SOL    HW189690   6.301   6.047   1.231
29286SOL    HW289691   6.309   6.098   1.373
29287SOL     OW89692  14.315  14.339   9.602
29287SOL    HW189693  14.290  14.308   9.515
29287SOL    HW289694  14.248  14.302   9.660
29288SOL     OW89695   4.828   9.266   9.496
29288SOL    HW189696   4.782   9.196   9.542
29288SOL    HW289697   4.860   9.324   9.565
29289SOL     OW89698  13.350  13.187   4.390
29289SOL    HW189699  13.387  13.099   4.392
29289SOL    HW289700  13.275  13.180   4.330
29290SOL     OW89701   7.015  14.518   2.621
29290SOL    HW189702   7.097  14.528   2.573
29290SOL    HW289703   6.956  14.582   2.581
29291SOL     OW89704   0.859   4.949   3.740
29291SOL    HW189705   0.852   4.886   3.811
29291SOL    HW289706   0.772   4.950   3.699
29292SOL     OW89707  11.461   5.970   8.349
29292SOL    HW189708  11.450   6.058   8.312
29292SOL    HW289709  11.411   5.973   8.430
29293SOL     OW89710   0.256  10.257   1.656
29293SOL    HW189711   0.191  10.237   1.587
29293SOL    HW289712   0.260  10.353   1.657
29294SOL     OW89713   1.576   8.052   8.524
29294SOL    HW189714   1.502   8.020   8.472
29294SOL    HW289715   1.624   8.109   8.463
29295SOL     OW89716  11.334   9.831   2.427
29295SOL    HW189717  11.299   9.919   2.410
29295SOL    HW289718  11.358   9.798   2.341
29296SOL     OW89719  14.839   3.020   8.349
29296SOL    HW189720  14.830   2.971   8.268
29296SOL    HW289721  14.751   3.020   8.387
29297SOL     OW89722   2.790   6.117  13.859
29297SOL    HW189723   2.712   6.114  13.914
29297SOL    HW289724   2.832   6.200  13.880
29298SOL     OW89725   5.429   4.899   1.177
29298SOL    HW189726   5.375   4.921   1.101
29298SOL    HW289727   5.382   4.937   1.251
29299SOL     OW89728   2.645   8.674   0.615
29299SOL    HW189729   2.731   8.678   0.573
29299SOL    HW289730   2.641   8.587   0.653
29300SOL     OW89731  11.903  14.153   1.497
29300SOL    HW189732  11.870  14.230   1.451
29300SOL    HW289733  11.901  14.177   1.589
29301SOL     OW89734   3.354  14.079  11.621
29301SOL    HW189735   3.325  14.095  11.711
29301SOL    HW289736   3.369  14.166  11.585
29302SOL     OW89737   3.656   0.625   4.722
29302SOL    HW189738   3.681   0.631   4.629
29302SOL    HW289739   3.568   0.589   4.721
29303SOL     OW89740   7.198   5.157   6.797
29303SOL    HW189741   7.194   5.082   6.856
29303SOL    HW289742   7.291   5.178   6.791
29304SOL     OW89743   8.357  14.132   1.093
29304SOL    HW189744   8.385  14.059   1.147
29304SOL    HW289745   8.327  14.092   1.011
29305SOL     OW89746   6.940  11.981  10.420
29305SOL    HW189747   6.920  12.001  10.512
29305SOL    HW289748   6.864  12.015  10.372
29306SOL     OW89749   8.884   9.617   1.389
29306SOL    HW189750   8.865   9.540   1.336
29306SOL    HW289751   8.812   9.622   1.451
29307SOL     OW89752   2.408  11.243   8.496
29307SOL    HW189753   2.496  11.238   8.458
29307SOL    HW289754   2.409  11.324   8.547
29308SOL     OW89755  14.829   5.569  10.641
29308SOL    HW189756  14.814   5.535  10.553
29308SOL    HW289757  14.747   5.553  10.688
29309SOL     OW89758   2.530   7.885  13.438
29309SOL    HW189759   2.577   7.940  13.374
29309SOL    HW289760   2.440   7.885  13.407
29310SOL     OW89761   7.644   0.854   9.873
29310SOL    HW189762   7.688   0.917   9.930
29310SOL    HW289763   7.690   0.771   9.889
29311SOL     OW89764   3.682   2.211  11.768
29311SOL    HW189765   3.776   2.214  11.786
29311SOL    HW289766   3.672   2.256  11.684
29312SOL     OW89767   4.586   4.986   7.566
29312SOL    HW189768   4.627   4.927   7.503
29312SOL    HW289769   4.658   5.020   7.618
29313SOL     OW89770   3.168   2.856   4.764
29313SOL    HW189771   3.086   2.871   4.717
29313SOL    HW289772   3.206   2.943   4.773
29314SOL     OW89773  10.378   0.153   5.284
29314SOL    HW189774  10.456   0.148   5.339
29314SOL    HW289775  10.408   0.125   5.198
29315SOL     OW89776   9.386   4.007   7.667
29315SOL    HW189777   9.367   4.060   7.589
29315SOL    HW289778   9.320   3.937   7.665
29316SOL     OW89779   0.910   4.283   3.420
29316SOL    HW189780   0.980   4.343   3.392
29316SOL    HW289781   0.835   4.308   3.367
29317SOL     OW89782  12.165  11.794  10.435
29317SOL    HW189783  12.179  11.709  10.392
29317SOL    HW289784  12.118  11.772  10.516
29318SOL     OW89785   0.258   9.474   8.779
29318SOL    HW189786   0.321   9.542   8.802
29318SOL    HW289787   0.307   9.414   8.723
29319SOL     OW89788  13.015   0.870  11.799
29319SOL    HW189789  12.937   0.867  11.743
29319SOL    HW289790  12.983   0.849  11.887
29320SOL     OW89791   8.418  13.852  14.573
29320SOL    HW189792   8.414  13.768  14.526
29320SOL    HW289793   8.482  13.904  14.524
29321SOL     OW89794   7.815   0.984   6.125
29321SOL    HW189795   7.864   1.065   6.143
29321SOL    HW289796   7.748   1.011   6.063
29322SOL     OW89797   7.465   6.935  12.212
29322SOL    HW189798   7.559   6.939  12.229
29322SOL    HW289799   7.428   6.890  12.288
29323SOL     OW89800   2.782  13.809   0.508
29323SOL    HW189801   2.776  13.904   0.500
29323SOL    HW289802   2.841  13.796   0.583
29324SOL     OW89803   2.600  13.630   0.031
29324SOL    HW189804   2.633  13.717   0.053
29324SOL    HW289805   2.667  13.594  14.854
29325SOL     OW89806  14.041  12.140  10.087
29325SOL    HW189807  14.094  12.204  10.135
29325SOL    HW289808  13.990  12.095  10.155
29326SOL     OW89809  11.814   4.289   8.707
29326SOL    HW189810  11.809   4.298   8.612
29326SOL    HW289811  11.834   4.197   8.722
29327SOL     OW89812   0.936  13.289   6.087
29327SOL    HW189813   0.936  13.368   6.141
29327SOL    HW289814   0.995  13.311   6.014
29328SOL     OW89815   4.962  12.600   6.858
29328SOL    HW189816   4.951  12.574   6.950
29328SOL    HW289817   4.951  12.695   6.859
29329SOL     OW89818   2.156   1.296   8.434
29329SOL    HW189819   2.210   1.374   8.418
29329SOL    HW289820   2.070   1.331   8.458
29330SOL     OW89821   9.506   3.386   9.305
29330SOL    HW189822   9.460   3.420   9.381
29330SOL    HW289823   9.470   3.299   9.291
29331SOL     OW89824  12.657   4.352   8.196
29331SOL    HW189825  12.591   4.306   8.143
29331SOL    HW289826  12.633   4.444   8.189
29332SOL     OW89827   6.898   0.330   3.384
29332SOL    HW189828   6.881   0.421   3.361
29332SOL    HW289829   6.821   0.303   3.434
29333SOL     OW89830   9.312   2.957   1.205
29333SOL    HW189831   9.229   2.995   1.179
29333SOL    HW289832   9.367   3.032   1.228
29334SOL     OW89833   7.145  14.634   6.068
29334SOL    HW189834   7.169  14.557   6.119
29334SOL    HW289835   7.162  14.708   6.127
29335SOL     OW89836   1.253   3.638   2.672
29335SOL    HW189837   1.289   3.558   2.634
29335SOL    HW289838   1.160   3.621   2.683
29336SOL     OW89839  13.899   7.962   4.312
29336SOL    HW189840  13.877   8.055   4.316
29336SOL    HW289841  13.958   7.948   4.386
29337SOL     OW89842  10.459   5.659   0.361
29337SOL    HW189843  10.388   5.688   0.418
29337SOL    HW289844  10.449   5.711   0.281
29338SOL     OW89845   9.970   6.938   6.817
29338SOL    HW189846  10.029   6.866   6.843
29338SOL    HW289847   9.906   6.942   6.888
29339SOL     OW89848  11.075  12.230  10.798
29339SOL    HW189849  11.055  12.293  10.729
29339SOL    HW289850  11.165  12.202  10.780
29340SOL     OW89851  14.635   8.505  11.891
29340SOL    HW189852  14.724   8.488  11.861
29340SOL    HW289853  14.618   8.596  11.867
29341SOL     OW89854  11.726   9.199   4.533
29341SOL    HW189855  11.638   9.188   4.570
29341SOL    HW289856  11.721   9.162   4.445
29342SOL     OW89857  14.771   2.394   1.205
29342SOL    HW189858  14.847   2.337   1.191
29342SOL    HW289859  14.775   2.416   1.298
29343SOL     OW89860  12.728   2.488  13.733
29343SOL    HW189861  12.662   2.544  13.692
29343SOL    HW289862  12.802   2.490  13.672
29344SOL     OW89863  12.282  12.032   2.679
29344SOL    HW189864  12.372  12.007   2.656
29344SOL    HW289865  12.258  11.970   2.749
29345SOL     OW89866   1.952   1.152  13.341
29345SOL    HW189867   1.981   1.195  13.421
29345SOL    HW289868   1.867   1.114  13.363
29346SOL     OW89869   6.921   2.666   9.546
29346SOL    HW189870   6.845   2.694   9.495
29346SOL    HW289871   6.992   2.660   9.482
29347SOL     OW89872   0.404   6.074   2.772
29347SOL    HW189873   0.464   5.999   2.772
29347SOL    HW289874   0.325   6.041   2.729
29348SOL     OW89875   2.919   7.205  13.291
29348SOL    HW189876   3.011   7.231  13.286
29348SOL    HW289877   2.882   7.231  13.206
29349SOL     OW89878   8.373  13.087   3.073
29349SOL    HW189879   8.341  13.152   3.136
29349SOL    HW289880   8.389  13.137   2.993
29350SOL     OW89881   2.668   2.405   2.546
29350SOL    HW189882   2.610   2.452   2.605
29350SOL    HW289883   2.688   2.468   2.477
29351SOL     OW89884   8.832   2.420   6.903
29351SOL    HW189885   8.774   2.495   6.887
29351SOL    HW289886   8.892   2.450   6.971
29352SOL     OW89887   4.577   3.628  10.699
29352SOL    HW189888   4.657   3.678  10.682
29352SOL    HW289889   4.563   3.578  10.618
29353SOL     OW89890   0.262   5.165   2.669
29353SOL    HW189891   0.341   5.120   2.641
29353SOL    HW289892   0.200   5.095   2.690
29354SOL     OW89893   2.583   2.988   6.193
29354SOL    HW189894   2.497   3.005   6.153
29354SOL    HW289895   2.569   3.001   6.287
29355SOL     OW89896   5.704   9.785  14.332
29355SOL    HW189897   5.629   9.813  14.384
29355SOL    HW289898   5.676   9.798  14.241
29356SOL     OW89899   3.459  11.120   4.964
29356SOL    HW189900   3.432  11.048   5.021
29356SOL    HW289901   3.555  11.118   4.966
29357SOL     OW89902   2.718   5.585  13.963
29357SOL    HW189903   2.747   5.649  13.898
29357SOL    HW289904   2.737   5.500  13.923
29358SOL     OW89905   3.423   3.673  10.385
29358SOL    HW189906   3.371   3.738  10.433
29358SOL    HW289907   3.376   3.661  10.303
29359SOL     OW89908   7.445  13.217   8.064
29359SOL    HW189909   7.429  13.169   7.983
29359SOL    HW289910   7.454  13.149   8.131
29360SOL     OW89911   4.908   7.931   0.887
29360SOL    HW189912   4.952   8.014   0.906
29360SOL    HW289913   4.816   7.955   0.876
29361SOL     OW89914  10.884  12.181   2.029
29361SOL    HW189915  10.857  12.267   2.061
29361SOL    HW289916  10.936  12.144   2.101
29362SOL     OW89917   6.059   7.437  10.602
29362SOL    HW189918   6.150   7.452  10.576
29362SOL    HW289919   6.008   7.491  10.543
29363SOL     OW89920   9.195   2.212   4.979
29363SOL    HW189921   9.241   2.183   4.900
29363SOL    HW289922   9.103   2.205   4.956
29364SOL     OW89923  12.974   5.439   8.945
29364SOL    HW189924  12.946   5.368   8.888
29364SOL    HW289925  12.931   5.517   8.909
29365SOL     OW89926  14.631  13.982   2.111
29365SOL    HW189927  14.712  13.964   2.160
29365SOL    HW289928  14.607  13.897   2.074
29366SOL     OW89929   3.176   4.390   2.465
29366SOL    HW189930   3.200   4.342   2.543
29366SOL    HW289931   3.138   4.324   2.406
29367SOL     OW89932   2.767   6.498  10.471
29367SOL    HW189933   2.797   6.563  10.408
29367SOL    HW289934   2.674   6.517  10.484
29368SOL     OW89935   3.812   4.781   3.636
29368SOL    HW189936   3.821   4.700   3.687
29368SOL    HW289937   3.884   4.836   3.666
29369SOL     OW89938   6.651  13.168   0.772
29369SOL    HW189939   6.584  13.100   0.780
29369SOL    HW289940   6.641  13.200   0.683
29370SOL     OW89941   1.906   6.909   4.252
29370SOL    HW189942   1.993   6.947   4.266
29370SOL    HW289943   1.874   6.953   4.173
29371SOL     OW89944   3.583  12.413   4.345
29371SOL    HW189945   3.613  12.500   4.319
29371SOL    HW289946   3.647  12.383   4.409
29372SOL     OW89947  14.672   6.444   6.656
29372SOL    HW189948  14.755   6.492   6.656
29372SOL    HW289949  14.691   6.364   6.606
29373SOL     OW89950   7.761   8.324   7.484
29373SOL    HW189951   7.722   8.260   7.425
29373SOL    HW289952   7.802   8.389   7.426
29374SOL     OW89953   3.496   1.081   9.594
29374SOL    HW189954   3.421   1.042   9.548
29374SOL    HW289955   3.544   1.007   9.629
29375SOL     OW89956   8.719   8.597  13.041
29375SOL    HW189957   8.731   8.510  13.002
29375SOL    HW289958   8.781   8.653  12.996
29376SOL     OW89959   8.887  10.714  10.324
29376SOL    HW189960   8.880  10.757  10.410
29376SOL    HW289961   8.913  10.624  10.344
29377SOL     OW89962   5.628   2.226  11.458
29377SOL    HW189963   5.699   2.162  11.464
29377SOL    HW289964   5.604   2.244  11.549
29378SOL     OW89965   6.122   5.436   1.581
29378SOL    HW189966   6.120   5.524   1.618
29378SOL    HW289967   6.077   5.443   1.497
29379SOL     OW89968  13.846  12.338  10.897
29379SOL    HW189969  13.864  12.295  10.813
29379SOL    HW289970  13.929  12.378  10.922
29380SOL     OW89971   8.950   8.544  12.876
29380SOL    HW189972   8.971   8.455  12.848
29380SOL    HW289973   9.009   8.561  12.950
29381SOL     OW89974   6.092  10.735   0.005
29381SOL    HW189975   6.171  10.789  14.877
29381SOL    HW289976   6.039  10.781   0.070
29382SOL     OW89977   2.258  13.465   5.910
29382SOL    HW189978   2.297  13.550   5.929
29382SOL    HW289979   2.193  13.482   5.843
29383SOL     OW89980   2.830   9.677   9.484
29383SOL    HW189981   2.848   9.662   9.391
29383SOL    HW289982   2.757   9.740   9.484
29384SOL     OW89983   2.756   2.935  12.400
29384SOL    HW189984   2.814   2.861  12.422
29384SOL    HW289985   2.689   2.934  12.468
29385SOL     OW89986  11.494   9.508   3.281
29385SOL    HW189987  11.452   9.566   3.218
29385SOL    HW289988  11.424   9.485   3.343
29386SOL     OW89989   5.911   6.481   4.339
29386SOL    HW189990   5.919   6.455   4.430
29386SOL    HW289991   5.819   6.464   4.317
29387SOL     OW89992  11.150  10.483   0.541
29387SOL    HW189993  11.230  10.519   0.502
29387SOL    HW289994  11.182  10.412   0.598
29388SOL     OW89995   7.249   4.218   1.708
29388SOL    HW189996   7.186   4.253   1.771
29388SOL    HW289997   7.197   4.192   1.632
29389SOL     OW89998   5.957   7.688  10.778
29389SOL    HW189999   5.927   7.640  10.700
29389SOL    HW290000   6.025   7.633  10.816
29390SOL     OW90001   8.649   1.756  13.835
29390SOL    HW190002   8.587   1.683  13.840
29390SOL    HW290003   8.715   1.726  13.772
29391SOL     OW90004   3.726  13.632   4.783
29391SOL    HW190005   3.703  13.546   4.748
29391SOL    HW290006   3.812  13.651   4.746
29392SOL     OW90007  12.502  14.852   7.470
29392SOL    HW190008  12.556  14.841   7.549
29392SOL    HW290009  12.419   0.005   7.502
29393SOL     OW90010   6.788   7.594   0.673
29393SOL    HW190011   6.841   7.527   0.629
29393SOL    HW290012   6.698   7.572   0.649
29394SOL     OW90013  11.689   3.059  11.825
29394SOL    HW190014  11.627   3.095  11.887
29394SOL    HW290015  11.636   3.007  11.764
29395SOL     OW90016  12.515   9.772   1.816
29395SOL    HW190017  12.466   9.853   1.832
29395SOL    HW290018  12.449   9.703   1.821
29396SOL     OW90019   0.365  11.114   2.267
29396SOL    HW190020   0.275  11.131   2.295
29396SOL    HW290021   0.418  11.133   2.344
29397SOL     OW90022   9.048   9.731   4.002
29397SOL    HW190023   9.019   9.820   3.979
29397SOL    HW290024   9.033   9.725   4.097
29398SOL     OW90025   4.070   8.608   9.077
29398SOL    HW190026   4.159   8.607   9.042
29398SOL    HW290027   4.020   8.663   9.016
29399SOL     OW90028  10.097   5.208  10.015
29399SOL    HW190029  10.004   5.188  10.022
29399SOL    HW290030  10.140   5.139  10.066
29400SOL     OW90031   6.905   6.874   0.017
29400SOL    HW190032   6.987   6.847  14.857
29400SOL    HW290033   6.852   6.793   0.020
29401SOL     OW90034   6.962   4.879  13.779
29401SOL    HW190035   6.943   4.973  13.767
29401SOL    HW290036   6.969   4.845  13.689
29402SOL     OW90037   6.853   8.523  13.447
29402SOL    HW190038   6.812   8.450  13.400
29402SOL    HW290039   6.941   8.491  13.468
29403SOL     OW90040  12.728   0.402   5.692
29403SOL    HW190041  12.748   0.314   5.725
29403SOL    HW290042  12.747   0.459   5.767
29404SOL     OW90043   3.721   3.555   8.011
29404SOL    HW190044   3.666   3.574   7.935
29404SOL    HW290045   3.714   3.633   8.066
29405SOL     OW90046   1.845   6.338   8.549
29405SOL    HW190047   1.755   6.317   8.525
29405SOL    HW290048   1.864   6.420   8.504
29406SOL     OW90049   7.080   2.396   4.206
29406SOL    HW190050   6.989   2.370   4.222
29406SOL    HW290051   7.073   2.472   4.148
29407SOL     OW90052   1.829   8.741   4.402
29407SOL    HW190053   1.854   8.791   4.479
29407SOL    HW290054   1.912   8.727   4.356
29408SOL     OW90055  12.631  11.576  14.660
29408SOL    HW190056  12.726  11.581  14.670
29408SOL    HW290057  12.608  11.487  14.686
29409SOL     OW90058  13.947   9.170  11.763
29409SOL    HW190059  13.920   9.166  11.671
29409SOL    HW290060  14.042   9.159  11.761
29410SOL     OW90061  11.058   0.392  14.086
29410SOL    HW190062  11.036   0.359  14.173
29410SOL    HW290063  11.098   0.318  14.041
29411SOL     OW90064   0.281  11.801   0.274
29411SOL    HW190065   0.302  11.716   0.311
29411SOL    HW290066   0.236  11.847   0.345
29412SOL     OW90067   7.119   7.354   6.222
29412SOL    HW190068   7.085   7.385   6.137
29412SOL    HW290069   7.041   7.344   6.276
29413SOL     OW90070   3.985   3.247  13.713
29413SOL    HW190071   4.079   3.243  13.729
29413SOL    HW290072   3.965   3.168  13.663
29414SOL     OW90073   8.592  10.654   6.373
29414SOL    HW190074   8.680  10.688   6.390
29414SOL    HW290075   8.552  10.645   6.460
29415SOL     OW90076  11.871   1.705  14.518
29415SOL    HW190077  11.952   1.668  14.484
29415SOL    HW290078  11.890   1.798  14.530
29416SOL     OW90079  13.209  11.432  13.837
29416SOL    HW190080  13.282  11.489  13.861
29416SOL    HW290081  13.166  11.478  13.765
29417SOL     OW90082  13.192   0.675   0.401
29417SOL    HW190083  13.181   0.649   0.493
29417SOL    HW290084  13.197   0.771   0.405
29418SOL     OW90085  13.105   1.815  11.972
29418SOL    HW190086  13.177   1.758  11.999
29418SOL    HW290087  13.043   1.811  12.045
29419SOL     OW90088  13.692   5.774   1.961
29419SOL    HW190089  13.688   5.851   1.904
29419SOL    HW290090  13.611   5.777   2.011
29420SOL     OW90091   1.046  12.810  10.712
29420SOL    HW190092   1.032  12.769  10.627
29420SOL    HW290093   0.970  12.783  10.764
29421SOL     OW90094  13.752   0.338   7.251
29421SOL    HW190095  13.824   0.303   7.302
29421SOL    HW290096  13.731   0.269   7.188
29422SOL     OW90097  12.769  13.209  13.559
29422SOL    HW190098  12.778  13.283  13.499
29422SOL    HW290099  12.686  13.168  13.535
29423SOL     OW90100   0.183   5.633  11.851
29423SOL    HW190101   0.190   5.652  11.757
29423SOL    HW290102   0.198   5.538  11.857
29424SOL     OW90103   1.917   5.063  10.684
29424SOL    HW190104   1.828   5.028  10.689
29424SOL    HW290105   1.925   5.097  10.595
29425SOL     OW90106   0.503   5.884  10.326
29425SOL    HW190107   0.442   5.861  10.396
29425SOL    HW290108   0.451   5.936  10.265
29426SOL     OW90109  10.094   5.988   4.065
29426SOL    HW190110  10.169   5.931   4.051
29426SOL    HW290111  10.068   6.014   3.977
29427SOL     OW90112   6.169  14.699   6.688
29427SOL    HW190113   6.224  14.775   6.707
29427SOL    HW290114   6.090  14.713   6.741
29428SOL     OW90115  11.125  13.132  13.903
29428SOL    HW190116  11.033  13.131  13.929
29428SOL    HW290117  11.127  13.185  13.823
29429SOL     OW90118   9.305   6.468   1.645
29429SOL    HW190119   9.375   6.532   1.637
29429SOL    HW290120   9.282   6.446   1.554
29430SOL     OW90121   2.870  13.859   8.320
29430SOL    HW190122   2.782  13.892   8.304
29430SOL    HW290123   2.883  13.793   8.252
29431SOL     OW90124  10.819   7.218  14.156
29431SOL    HW190125  10.805   7.160  14.081
29431SOL    HW290126  10.733   7.227  14.196
29432SOL     OW90127   7.862   8.108  10.592
29432SOL    HW190128   7.926   8.159  10.543
29432SOL    HW290129   7.812   8.173  10.642
29433SOL     OW90130  11.331   8.808   9.814
29433SOL    HW190131  11.239   8.791   9.832
29433SOL    HW290132  11.378   8.754   9.878
29434SOL     OW90133   0.663   3.646   7.348
29434SOL    HW190134   0.679   3.738   7.327
29434SOL    HW290135   0.581   3.647   7.398
29435SOL     OW90136   5.668   3.688  14.831
29435SOL    HW190137   5.754   3.708  14.794
29435SOL    HW290138   5.671   3.725   0.037
29436SOL     OW90139  10.468   9.438  10.811
29436SOL    HW190140  10.501   9.356  10.848
29436SOL    HW290141  10.541   9.474  10.761
29437SOL     OW90142  13.801   5.102   5.774
29437SOL    HW190143  13.879   5.120   5.722
29437SOL    HW290144  13.747   5.045   5.719
29438SOL     OW90145  12.350   7.824   0.482
29438SOL    HW190146  12.433   7.831   0.434
29438SOL    HW290147  12.283   7.851   0.418
29439SOL     OW90148  12.974   1.423  10.685
29439SOL    HW190149  13.029   1.476  10.743
29439SOL    HW290150  12.994   1.455  10.597
29440SOL     OW90151   6.681  14.018  11.090
29440SOL    HW190152   6.658  14.098  11.138
29440SOL    HW290153   6.596  13.979  11.068
29441SOL     OW90154   1.452   4.517  13.489
29441SOL    HW190155   1.505   4.594  13.468
29441SOL    HW290156   1.488   4.447  13.434
29442SOL     OW90157   3.107   1.460   1.102
29442SOL    HW190158   3.134   1.419   1.184
29442SOL    HW290159   3.014   1.476   1.112
29443SOL     OW90160   9.091   9.090  14.249
29443SOL    HW190161   9.145   9.018  14.281
29443SOL    HW290162   9.053   9.130  14.327
29444SOL     OW90163   1.185  12.186   0.468
29444SOL    HW190164   1.175  12.257   0.531
29444SOL    HW290165   1.279  12.164   0.471
29445SOL     OW90166   3.009   0.018  10.702
29445SOL    HW190167   3.057   0.086  10.749
29445SOL    HW290168   3.015  14.823  10.758
29446SOL     OW90169   7.112  13.199   7.246
29446SOL    HW190170   7.150  13.286   7.233
29446SOL    HW290171   7.027  13.217   7.287
29447SOL     OW90172   0.659  11.952   5.884
29447SOL    HW190173   0.582  11.968   5.829
29447SOL    HW290174   0.636  11.991   5.969
29448SOL     OW90175  13.397   0.299   1.202
29448SOL    HW190176  13.311   0.287   1.162
29448SOL    HW290177  13.377   0.324   1.292
29449SOL     OW90178   7.213  10.003  12.138
29449SOL    HW190179   7.174   9.953  12.066
29449SOL    HW290180   7.192   9.953  12.216
29450SOL     OW90181   7.328   9.794   1.765
29450SOL    HW190182   7.265   9.731   1.728
29450SOL    HW290183   7.376   9.743   1.831
29451SOL     OW90184   1.319  13.409   8.956
29451SOL    HW190185   1.359  13.342   8.900
29451SOL    HW290186   1.370  13.407   9.037
29452SOL     OW90187   0.001   6.863  11.436
29452SOL    HW190188  14.794   6.869  11.401
29452SOL    HW290189  14.876   6.900  11.524
29453SOL     OW90190   5.742  11.880   3.424
29453SOL    HW190191   5.808  11.915   3.484
29453SOL    HW290192   5.707  11.957   3.380
29454SOL     OW90193   5.569   4.872   2.311
29454SOL    HW190194   5.556   4.808   2.381
29454SOL    HW290195   5.664   4.880   2.302
29455SOL     OW90196   5.680  10.210   9.507
29455SOL    HW190197   5.740  10.284   9.496
29455SOL    HW290198   5.657  10.185   9.417
29456SOL     OW90199  12.149   4.951   6.669
29456SOL    HW190200  12.234   4.989   6.649
29456SOL    HW290201  12.145   4.948   6.765
29457SOL     OW90202   5.535  11.749   7.840
29457SOL    HW190203   5.552  11.804   7.763
29457SOL    HW290204   5.588  11.671   7.827
29458SOL     OW90205   7.131   3.443   7.039
29458SOL    HW190206   7.203   3.486   7.084
29458SOL    HW290207   7.062   3.434   7.105
29459SOL     OW90208   1.086   8.882   5.165
29459SOL    HW190209   1.058   8.933   5.089
29459SOL    HW290210   1.071   8.791   5.139
29460SOL     OW90211   1.043   5.676  10.869
29460SOL    HW190212   0.958   5.716  10.890
29460SOL    HW290213   1.052   5.688  10.775
29461SOL     OW90214   2.119   4.671   9.430
29461SOL    HW190215   2.203   4.703   9.462
29461SOL    HW290216   2.059   4.744   9.446
29462SOL     OW90217   3.528  12.925  10.909
29462SOL    HW190218   3.467  12.973  10.965
29462SOL    HW290219   3.501  12.834  10.915
29463SOL     OW90220   9.709  14.684  11.224
29463SOL    HW190221   9.616  14.706  11.231
29463SOL    HW290222   9.752  14.748  11.282
29464SOL     OW90223  13.258   5.685  11.904
29464SOL    HW190224  13.334   5.742  11.902
29464SOL    HW290225  13.294   5.596  11.900
29465SOL     OW90226   0.794   0.552   4.219
29465SOL    HW190227   0.784   0.617   4.150
29465SOL    HW290228   0.709   0.508   4.223
29466SOL     OW90229  14.676   9.222   0.393
29466SOL    HW190230  14.605   9.264   0.441
29466SOL    HW290231  14.645   9.220   0.302
29467SOL     OW90232  14.626  11.709   5.561
29467SOL    HW190233  14.714  11.736   5.537
29467SOL    HW290234  14.570  11.748   5.494
29468SOL     OW90235   0.758   3.012  14.588
29468SOL    HW190236   0.667   2.984  14.579
29468SOL    HW290237   0.804   2.973  14.514
29469SOL     OW90238   6.449   3.328   3.509
29469SOL    HW190239   6.407   3.290   3.432
29469SOL    HW290240   6.493   3.407   3.476
29470SOL     OW90241   4.421   0.202  12.545
29470SOL    HW190242   4.385   0.222  12.459
29470SOL    HW290243   4.505   0.159  12.526
29471SOL     OW90244   6.974  12.382   3.290
29471SOL    HW190245   6.905  12.447   3.277
29471SOL    HW290246   6.963  12.322   3.216
29472SOL     OW90247   3.910   3.006   9.692
29472SOL    HW190248   3.880   3.077   9.634
29472SOL    HW290249   3.955   2.945   9.633
29473SOL     OW90250  12.786  14.737  12.826
29473SOL    HW190251  12.802  14.698  12.740
29473SOL    HW290252  12.694  14.761  12.825
29474SOL     OW90253   1.081   0.665   1.932
29474SOL    HW190254   1.160   0.612   1.943
29474SOL    HW290255   1.083   0.727   2.006
29475SOL     OW90256   5.707   8.168  14.666
29475SOL    HW190257   5.720   8.108  14.740
29475SOL    HW290258   5.795   8.189  14.636
29476SOL     OW90259  13.590   6.468   9.020
29476SOL    HW190260  13.671   6.502   9.059
29476SOL    HW290261  13.585   6.511   8.934
29477SOL     OW90262  13.803  12.387  13.541
29477SOL    HW190263  13.878  12.394  13.482
29477SOL    HW290264  13.837  12.343  13.619
29478SOL     OW90265   3.798   8.497   3.446
29478SOL    HW190266   3.748   8.553   3.387
29478SOL    HW290267   3.886   8.495   3.408
29479SOL     OW90268   8.064   3.617   9.834
29479SOL    HW190269   7.970   3.604   9.847
29479SOL    HW290270   8.094   3.657   9.916
29480SOL     OW90271  14.686  13.161   6.867
29480SOL    HW190272  14.707  13.075   6.905
29480SOL    HW290273  14.771  13.198   6.845
29481SOL     OW90274  13.445  11.275  13.880
29481SOL    HW190275  13.500  11.289  13.803
29481SOL    HW290276  13.366  11.326  13.862
29482SOL     OW90277  12.129   3.887   8.280
29482SOL    HW190278  12.121   3.937   8.362
29482SOL    HW290279  12.111   3.952   8.212
29483SOL     OW90280  12.829  12.400  11.920
29483SOL    HW190281  12.785  12.325  11.880
29483SOL    HW290282  12.894  12.427  11.855
29484SOL     OW90283   9.794   1.754   6.189
29484SOL    HW190284   9.733   1.704   6.134
29484SOL    HW290285   9.739   1.821   6.230
29485SOL     OW90286  11.604  14.586   2.090
29485SOL    HW190287  11.540  14.522   2.120
29485SOL    HW290288  11.558  14.670   2.091
29486SOL     OW90289  13.694  14.235   4.846
29486SOL    HW190290  13.683  14.160   4.788
29486SOL    HW290291  13.749  14.296   4.796
29487SOL     OW90292   9.011   8.976   1.364
29487SOL    HW190293   8.991   8.986   1.271
29487SOL    HW290294   9.094   9.022   1.375
29488SOL     OW90295   9.720   8.207   9.062
29488SOL    HW190296   9.750   8.156   9.138
29488SOL    HW290297   9.683   8.287   9.100
29489SOL     OW90298   5.155  12.615  12.829
29489SOL    HW190299   5.092  12.564  12.779
29489SOL    HW290300   5.169  12.564  12.909
29490SOL     OW90301  12.148  13.690  11.626
29490SOL    HW190302  12.063  13.654  11.652
29490SOL    HW290303  12.161  13.765  11.684
29491SOL     OW90304   4.226  13.517   0.039
29491SOL    HW190305   4.201  13.592   0.094
29491SOL    HW290306   4.294  13.473   0.089
29492SOL     OW90307   5.658   4.028   7.058
29492SOL    HW190308   5.587   4.088   7.079
29492SOL    HW290309   5.736   4.083   7.049
29493SOL     OW90310   4.935   3.407  13.285
29493SOL    HW190311   4.938   3.327  13.232
29493SOL    HW290312   4.968   3.381  13.371
29494SOL     OW90313   1.262  11.117   8.488
29494SOL    HW190314   1.222  11.204   8.483
29494SOL    HW290315   1.188  11.058   8.503
29495SOL     OW90316   4.457   7.729  13.975
29495SOL    HW190317   4.533   7.762  13.927
29495SOL    HW290318   4.463   7.634  13.968
29496SOL     OW90319   2.981   4.556   2.273
29496SOL    HW190320   3.054   4.519   2.323
29496SOL    HW290321   2.916   4.579   2.339
29497SOL     OW90322   8.233   4.674   6.203
29497SOL    HW190323   8.152   4.640   6.240
29497SOL    HW290324   8.248   4.756   6.250
29498SOL     OW90325  11.803  11.083   0.305
29498SOL    HW190326  11.709  11.066   0.313
29498SOL    HW290327  11.844  11.011   0.353
29499SOL     OW90328   3.286   0.838  14.101
29499SOL    HW190329   3.327   0.824  14.186
29499SOL    HW290330   3.236   0.758  14.085
29500SOL     OW90331  13.128   8.847   6.223
29500SOL    HW190332  13.173   8.869   6.305
29500SOL    HW290333  13.049   8.901   6.224
29501SOL     OW90334   0.624   4.999   2.302
29501SOL    HW190335   0.665   5.086   2.298
29501SOL    HW290336   0.694   4.939   2.276
29502SOL     OW90337  14.034   2.418  10.868
29502SOL    HW190338  14.009   2.385  10.954
29502SOL    HW290339  14.129   2.431  10.874
29503SOL     OW90340  11.000  12.064  10.030
29503SOL    HW190341  10.938  11.992  10.040
29503SOL    HW290342  10.973  12.128  10.095
29504SOL     OW90343  12.337   3.535   0.968
29504SOL    HW190344  12.294   3.453   0.944
29504SOL    HW290345  12.282   3.573   1.036
29505SOL     OW90346   8.723   7.890   8.165
29505SOL    HW190347   8.784   7.950   8.208
29505SOL    HW290348   8.751   7.889   8.074
29506SOL     OW90349   0.216  13.635   8.139
29506SOL    HW190350   0.297  13.596   8.170
29506SOL    HW290351   0.233  13.729   8.139
29507SOL     OW90352   2.222  12.702   1.643
29507SOL    HW190353   2.280  12.650   1.699
29507SOL    HW290354   2.208  12.648   1.566
29508SOL     OW90355  12.982  12.509   8.496
29508SOL    HW190356  13.042  12.570   8.538
29508SOL    HW290357  12.964  12.443   8.562
29509SOL     OW90358   1.266   8.662   7.011
29509SOL    HW190359   1.307   8.746   7.031
29509SOL    HW290360   1.330   8.616   6.957
29510SOL     OW90361   9.768  13.311   6.683
29510SOL    HW190362   9.731  13.342   6.600
29510SOL    HW290363   9.840  13.254   6.657
29511SOL     OW90364  11.547   7.546   2.269
29511SOL    HW190365  11.522   7.632   2.302
29511SOL    HW290366  11.619   7.518   2.325
29512SOL     OW90367  10.034   1.415   2.288
29512SOL    HW190368  10.085   1.379   2.360
29512SOL    HW290369  10.096   1.470   2.240
29513SOL     OW90370  11.460   9.377   4.567
29513SOL    HW190371  11.549   9.407   4.589
29513SOL    HW290372  11.455   9.289   4.605
29514SOL     OW90373   6.989  13.485   2.295
29514SOL    HW190374   6.982  13.404   2.244
29514SOL    HW290375   6.899  13.505   2.320
29515SOL     OW90376   4.375   4.366  10.481
29515SOL    HW190377   4.344   4.438  10.536
29515SOL    HW290378   4.395   4.407  10.397
29516SOL     OW90379   6.341  11.977   4.763
29516SOL    HW190380   6.423  11.927   4.772
29516SOL    HW290381   6.282  11.938   4.828
29517SOL     OW90382   7.886   2.914  13.486
29517SOL    HW190383   7.931   2.898  13.403
29517SOL    HW290384   7.926   2.994  13.520
29518SOL     OW90385   1.676   0.110  13.709
29518SOL    HW190386   1.678   0.149  13.796
29518SOL    HW290387   1.623   0.171  13.657
29519SOL     OW90388   3.451  14.028   7.363
29519SOL    HW190389   3.519  14.025   7.430
29519SOL    HW290390   3.472  13.955   7.305
29520SOL     OW90391   9.515   3.601   4.963
29520SOL    HW190392   9.602   3.636   4.979
29520SOL    HW290393   9.463   3.676   4.934
29521SOL     OW90394   5.808   8.649   2.714
29521SOL    HW190395   5.827   8.616   2.627
29521SOL    HW290396   5.766   8.734   2.698
29522SOL     OW90397   7.951  13.605   8.778
29522SOL    HW190398   7.862  13.635   8.758
29522SOL    HW290399   8.008  13.662   8.727
29523SOL     OW90400   8.877  12.340   5.644
29523SOL    HW190401   8.933  12.304   5.713
29523SOL    HW290402   8.788  12.323   5.674
29524SOL     OW90403   3.664   2.668   8.799
29524SOL    HW190404   3.705   2.753   8.781
29524SOL    HW290405   3.633   2.638   8.713
29525SOL     OW90406   0.447  13.754   3.462
29525SOL    HW190407   0.438  13.731   3.370
29525SOL    HW290408   0.362  13.793   3.485
29526SOL     OW90409   1.854  10.052   4.247
29526SOL    HW190410   1.817   9.989   4.185
29526SOL    HW290411   1.783  10.070   4.309
29527SOL     OW90412   2.451   9.015   5.917
29527SOL    HW190413   2.445   9.096   5.867
29527SOL    HW290414   2.399   9.032   5.996
29528SOL     OW90415   4.073   9.999   1.285
29528SOL    HW190416   4.014  10.023   1.214
29528SOL    HW290417   4.020  10.005   1.364
29529SOL     OW90418   3.716   2.633  14.714
29529SOL    HW190419   3.671   2.712  14.744
29529SOL    HW290420   3.809   2.656  14.719
29530SOL     OW90421   7.310   3.602   5.261
29530SOL    HW190422   7.401   3.629   5.259
29530SOL    HW290423   7.262   3.681   5.285
29531SOL     OW90424  11.219   0.889   2.530
29531SOL    HW190425  11.228   0.962   2.591
29531SOL    HW290426  11.154   0.918   2.466
29532SOL     OW90427  13.182   7.046   9.441
29532SOL    HW190428  13.237   7.040   9.520
29532SOL    HW290429  13.229   6.995   9.375
29533SOL     OW90430   1.029  11.226   4.284
29533SOL    HW190431   1.053  11.248   4.194
29533SOL    HW290432   0.971  11.297   4.311
29534SOL     OW90433   6.959   2.803   0.495
29534SOL    HW190434   7.013   2.745   0.548
29534SOL    HW290435   6.893   2.746   0.456
29535SOL     OW90436   8.610   4.266   1.480
29535SOL    HW190437   8.609   4.361   1.471
29535SOL    HW290438   8.577   4.250   1.569
29536SOL     OW90439  11.693  10.476   1.095
29536SOL    HW190440  11.633  10.401   1.096
29536SOL    HW290441  11.767  10.448   1.149
29537SOL     OW90442  10.908   0.059  12.199
29537SOL    HW190443  10.988   0.063  12.147
29537SOL    HW290444  10.852  14.877  12.154
29538SOL     OW90445   3.553   5.896  14.385
29538SOL    HW190446   3.596   5.843  14.452
29538SOL    HW290447   3.507   5.833  14.330
29539SOL     OW90448   6.341  13.018   5.489
29539SOL    HW190449   6.375  12.935   5.457
29539SOL    HW290450   6.383  13.031   5.574
29540SOL     OW90451  12.727  13.263   9.375
29540SOL    HW190452  12.720  13.264   9.471
29540SOL    HW290453  12.669  13.334   9.347
29541SOL     OW90454   9.695   1.474   8.925
29541SOL    HW190455   9.691   1.569   8.918
29541SOL    HW290456   9.623   1.442   8.871
29542SOL     OW90457  13.768   3.616  14.554
29542SOL    HW190458  13.738   3.681  14.618
29542SOL    HW290459  13.822   3.556  14.604
29543SOL     OW90460   0.794   4.437   1.387
29543SOL    HW190461   0.787   4.496   1.461
29543SOL    HW290462   0.836   4.358   1.422
29544SOL     OW90463   4.279  12.671   1.518
29544SOL    HW190464   4.318  12.584   1.510
29544SOL    HW290465   4.223  12.679   1.440
29545SOL     OW90466   9.684  12.082   6.429
29545SOL    HW190467   9.595  12.119   6.433
29545SOL    HW290468   9.675  12.003   6.377
29546SOL     OW90469   5.832  11.192   7.751
29546SOL    HW190470   5.926  11.201   7.732
29546SOL    HW290471   5.796  11.280   7.736
29547SOL     OW90472   6.368  12.697  11.958
29547SOL    HW190473   6.370  12.614  11.911
29547SOL    HW290474   6.277  12.726  11.955
29548SOL     OW90475   5.451  12.095   6.757
29548SOL    HW190476   5.535  12.072   6.719
29548SOL    HW290477   5.419  12.166   6.702
29549SOL     OW90478   1.542  10.145   9.454
29549SOL    HW190479   1.465  10.106   9.412
29549SOL    HW290480   1.506  10.197   9.526
29550SOL     OW90481   8.133  13.814   2.756
29550SOL    HW190482   8.094  13.852   2.834
29550SOL    HW290483   8.081  13.849   2.683
29551SOL     OW90484  14.066   8.688   6.249
29551SOL    HW190485  14.032   8.638   6.323
29551SOL    HW290486  14.042   8.636   6.172
29552SOL     OW90487  12.828   7.476  13.284
29552SOL    HW190488  12.890   7.428  13.229
29552SOL    HW290489  12.801   7.550  13.230
29553SOL     OW90490   3.746   5.686   0.930
29553SOL    HW190491   3.745   5.667   1.024
29553SOL    HW290492   3.654   5.681   0.904
29554SOL     OW90493   9.098   2.109  10.376
29554SOL    HW190494   9.171   2.134  10.318
29554SOL    HW290495   9.031   2.074  10.317
29555SOL     OW90496   4.062  14.046   7.800
29555SOL    HW190497   4.129  13.978   7.795
29555SOL    HW290498   4.039  14.050   7.893
29556SOL     OW90499   1.538   7.088   0.442
29556SOL    HW190500   1.470   7.026   0.417
29556SOL    HW290501   1.551   7.073   0.536
29557SOL     OW90502   5.688   3.649   7.996
29557SOL    HW190503   5.719   3.694   8.074
29557SOL    HW290504   5.731   3.564   7.998
29558SOL     OW90505   6.142  11.734  13.402
29558SOL    HW190506   6.227  11.746  13.359
29558SOL    HW290507   6.143  11.643  13.431
29559SOL     OW90508   4.418   8.097   6.051
29559SOL    HW190509   4.400   8.190   6.039
29559SOL    HW290510   4.512   8.088   6.031
29560SOL     OW90511  12.086   6.275   5.717
29560SOL    HW190512  12.046   6.356   5.750
29560SOL    HW290513  12.156   6.256   5.780
29561SOL     OW90514   3.066   6.731  13.385
29561SOL    HW190515   3.096   6.726  13.476
29561SOL    HW290516   3.018   6.814  13.380
29562SOL     OW90517   4.800   3.317   0.496
29562SOL    HW190518   4.705   3.313   0.490
29562SOL    HW290519   4.822   3.264   0.572
29563SOL     OW90520  13.744  14.216   3.198
29563SOL    HW190521  13.714  14.130   3.169
29563SOL    HW290522  13.747  14.269   3.118
29564SOL     OW90523  10.275  11.922  13.569
29564SOL    HW190524  10.323  12.005  13.573
29564SOL    HW290525  10.339  11.856  13.597
29565SOL     OW90526   5.192  13.555  13.949
29565SOL    HW190527   5.262  13.511  13.901
29565SOL    HW290528   5.112  13.516  13.914
29566SOL     OW90529   7.425   0.449   3.917
29566SOL    HW190530   7.483   0.434   3.992
29566SOL    HW290531   7.416   0.362   3.877
29567SOL     OW90532   1.977   0.052  13.156
29567SOL    HW190533   1.998  14.847  13.191
29567SOL    HW290534   2.062   0.096  13.149
29568SOL     OW90535   9.367   6.946  13.904
29568SOL    HW190536   9.399   6.856  13.897
29568SOL    HW290537   9.446   6.998  13.919
29569SOL     OW90538   0.658   0.050  10.329
29569SOL    HW190539   0.616   0.116  10.384
29569SOL    HW290540   0.590   0.026  10.265
29570SOL     OW90541  14.116  13.159  12.294
29570SOL    HW190542  14.090  13.079  12.250
29570SOL    HW290543  14.189  13.133  12.350
29571SOL     OW90544   2.173   0.384  10.307
29571SOL    HW190545   2.156   0.302  10.260
29571SOL    HW290546   2.136   0.452  10.250
29572SOL     OW90547   1.920   4.336   0.066
29572SOL    HW190548   1.968   4.295   0.138
29572SOL    HW290549   1.989   4.376   0.012
29573SOL     OW90550   6.144   1.480   0.115
29573SOL    HW190551   6.174   1.399   0.074
29573SOL    HW290552   6.065   1.504   0.066
29574SOL     OW90553  12.902   3.463  11.785
29574SOL    HW190554  12.997   3.453  11.780
29574SOL    HW290555  12.887   3.513  11.865
29575SOL     OW90556  10.787   6.771   0.839
29575SOL    HW190557  10.825   6.746   0.755
29575SOL    HW290558  10.806   6.864   0.847
29576SOL     OW90559   7.103  10.536   9.017
29576SOL    HW190560   7.134  10.626   9.006
29576SOL    HW290561   7.164  10.498   9.082
29577SOL     OW90562  10.650   9.196   8.338
29577SOL    HW190563  10.732   9.205   8.290
29577SOL    HW290564  10.676   9.168   8.426
29578SOL     OW90565   6.431  14.600  14.158
29578SOL    HW190566   6.423  14.599  14.253
29578SOL    HW290567   6.408  14.511  14.131
29579SOL     OW90568  14.663   1.924  13.141
29579SOL    HW190569  14.631   1.935  13.230
29579SOL    HW290570  14.644   2.007  13.097
29580SOL     OW90571   9.989  13.565  14.383
29580SOL    HW190572  10.080  13.542  14.404
29580SOL    HW290573   9.956  13.489  14.335
29581SOL     OW90574   8.677  13.509   7.111
29581SOL    HW190575   8.761  13.506   7.065
29581SOL    HW290576   8.651  13.601   7.106
29582SOL     OW90577   3.128   0.931  12.366
29582SOL    HW190578   3.086   0.888  12.291
29582SOL    HW290579   3.152   0.860  12.425
29583SOL     OW90580   8.386   7.783   5.449
29583SOL    HW190581   8.444   7.737   5.388
29583SOL    HW290582   8.445   7.827   5.509
29584SOL     OW90583  13.647   4.038   2.287
29584SOL    HW190584  13.559   4.001   2.277
29584SOL    HW290585  13.698   3.998   2.217
29585SOL     OW90586  11.289   3.239  14.202
29585SOL    HW190587  11.235   3.230  14.123
29585SOL    HW290588  11.366   3.288  14.173
29586SOL     OW90589   4.498   3.093   3.795
29586SOL    HW190590   4.472   3.164   3.736
29586SOL    HW290591   4.509   3.017   3.738
29587SOL     OW90592  10.129   8.145  10.562
29587SOL    HW190593  10.199   8.200  10.526
29587SOL    HW290594  10.056   8.157  10.501
29588SOL     OW90595  10.840  10.046   5.239
29588SOL    HW190596  10.798  10.098   5.171
29588SOL    HW290597  10.776   9.979   5.261
29589SOL     OW90598   6.970   5.149   2.498
29589SOL    HW190599   7.000   5.133   2.587
29589SOL    HW290600   6.874   5.147   2.504
29590SOL     OW90601   2.012  11.213   9.362
29590SOL    HW190602   2.106  11.205   9.374
29590SOL    HW290603   1.992  11.301   9.394
29591SOL     OW90604   3.492  12.237   9.474
29591SOL    HW190605   3.457  12.274   9.555
29591SOL    HW290606   3.536  12.310   9.431
29592SOL     OW90607  12.339   0.174   8.845
29592SOL    HW190608  12.327   0.143   8.755
29592SOL    HW290609  12.274   0.244   8.854
29593SOL     OW90610  13.944  13.240   1.465
29593SOL    HW190611  13.868  13.182   1.460
29593SOL    HW290612  13.911  13.326   1.441
29594SOL     OW90613  10.567   0.848  13.645
29594SOL    HW190614  10.472   0.831  13.646
29594SOL    HW290615  10.577   0.930  13.692
29595SOL     OW90616  13.895   4.315   0.982
29595SOL    HW190617  13.825   4.274   1.033
29595SOL    HW290618  13.864   4.405   0.967
29596SOL     OW90619   4.192  11.295  10.363
29596SOL    HW190620   4.101  11.305  10.392
29596SOL    HW290621   4.202  11.202  10.347
29597SOL     OW90622   4.292   5.149   1.092
29597SOL    HW190623   4.261   5.059   1.095
29597SOL    HW290624   4.379   5.145   1.131
29598SOL     OW90625   8.332  12.868   7.916
29598SOL    HW190626   8.349  12.785   7.961
29598SOL    HW290627   8.388  12.866   7.838
29599SOL     OW90628   6.511   2.288   2.554
29599SOL    HW190629   6.452   2.243   2.494
29599SOL    HW290630   6.454   2.316   2.626
29600SOL     OW90631  13.282   4.199  11.056
29600SOL    HW190632  13.235   4.185  11.138
29600SOL    HW290633  13.322   4.285  11.065
29601SOL     OW90634   6.304   5.514   9.776
29601SOL    HW190635   6.285   5.600   9.812
29601SOL    HW290636   6.217   5.477   9.757
29602SOL     OW90637  10.365   3.440   8.983
29602SOL    HW190638  10.401   3.375   9.044
29602SOL    HW290639  10.278   3.460   9.018
29603SOL     OW90640   4.641   2.715   3.710
29603SOL    HW190641   4.606   2.781   3.650
29603SOL    HW290642   4.620   2.749   3.797
29604SOL     OW90643   7.486  11.149   4.659
29604SOL    HW190644   7.518  11.147   4.569
29604SOL    HW290645   7.536  11.082   4.705
29605SOL     OW90646  13.362   6.975  10.547
29605SOL    HW190647  13.350   6.938  10.460
29605SOL    HW290648  13.296   6.931  10.601
29606SOL     OW90649   0.733   1.420   5.715
29606SOL    HW190650   0.809   1.467   5.681
29606SOL    HW290651   0.739   1.429   5.810
29607SOL     OW90652   4.079   5.900  10.393
29607SOL    HW190653   4.146   5.919  10.458
29607SOL    HW290654   4.126   5.862  10.320
29608SOL     OW90655  11.760  13.958   7.586
29608SOL    HW190656  11.703  13.936   7.659
29608SOL    HW290657  11.701  13.962   7.510
29609SOL     OW90658   9.798   7.014   7.957
29609SOL    HW190659   9.792   6.928   7.997
29609SOL    HW290660   9.792   6.997   7.863
29610SOL     OW90661   0.430   5.371   7.109
29610SOL    HW190662   0.427   5.303   7.177
29610SOL    HW290663   0.517   5.360   7.069
29611SOL     OW90664   1.758  14.469   7.773
29611SOL    HW190665   1.716  14.428   7.698
29611SOL    HW290666   1.841  14.423   7.784
29612SOL     OW90667  13.965  14.259   4.572
29612SOL    HW190668  14.041  14.239   4.517
29612SOL    HW290669  13.963  14.187   4.636
29613SOL     OW90670   4.815   4.765   4.607
29613SOL    HW190671   4.827   4.685   4.556
29613SOL    HW290672   4.767   4.823   4.548
29614SOL     OW90673   3.127  11.984   6.747
29614SOL    HW190674   3.213  11.998   6.786
29614SOL    HW290675   3.117  11.889   6.744
29615SOL     OW90676   7.071   1.594   5.591
29615SOL    HW190677   7.155   1.559   5.561
29615SOL    HW290678   7.094   1.662   5.654
29616SOL     OW90679  11.220   8.210   1.377
29616SOL    HW190680  11.131   8.244   1.368
29616SOL    HW290681  11.277   8.285   1.361
29617SOL     OW90682   4.636  11.991   8.685
29617SOL    HW190683   4.571  11.930   8.722
29617SOL    HW290684   4.632  12.067   8.743
29618SOL     OW90685   3.848   4.303   7.855
29618SOL    HW190686   3.907   4.333   7.786
29618SOL    HW290687   3.907   4.270   7.923
29619SOL     OW90688   4.673   3.592  13.773
29619SOL    HW190689   4.708   3.562  13.857
29619SOL    HW290690   4.712   3.678  13.760
29620SOL     OW90691   9.306   7.837  12.892
29620SOL    HW190692   9.396   7.805  12.897
29620SOL    HW290693   9.259   7.788  12.960
29621SOL     OW90694  13.845   1.346   7.988
29621SOL    HW190695  13.756   1.311   7.982
29621SOL    HW290696  13.891   1.284   8.045
29622SOL     OW90697  11.873  10.929   6.887
29622SOL    HW190698  11.830  10.855   6.845
29622SOL    HW290699  11.825  10.941   6.969
29623SOL     OW90700   4.087  11.009   6.527
29623SOL    HW190701   4.093  10.959   6.608
29623SOL    HW290702   4.085  10.942   6.458
29624SOL     OW90703  10.632   3.788   7.273
29624SOL    HW190704  10.537   3.796   7.262
29624SOL    HW290705  10.665   3.876   7.255
29625SOL     OW90706   8.903   0.396  10.735
29625SOL    HW190707   8.868   0.375  10.822
29625SOL    HW290708   8.964   0.469  10.751
29626SOL     OW90709   8.868  10.613  14.538
29626SOL    HW190710   8.871  10.679  14.607
29626SOL    HW290711   8.934  10.549  14.563
29627SOL     OW90712   6.413   9.481   6.884
29627SOL    HW190713   6.362   9.431   6.947
29627SOL    HW290714   6.492   9.505   6.930
29628SOL     OW90715   6.038   1.724   9.227
29628SOL    HW190716   6.050   1.695   9.137
29628SOL    HW290717   5.962   1.783   9.223
29629SOL     OW90718  13.769  14.692   1.740
29629SOL    HW190719  13.840  14.628   1.752
29629SOL    HW290720  13.779  14.722   1.650
29630SOL     OW90721   9.493  12.616  11.596
29630SOL    HW190722   9.435  12.692  11.605
29630SOL    HW290723   9.521  12.618  11.505
29631SOL     OW90724   9.760   1.481  11.455
29631SOL    HW190725   9.692   1.521  11.509
29631SOL    HW290726   9.803   1.419  11.514
29632SOL     OW90727  11.625   1.215   9.351
29632SOL    HW190728  11.615   1.120   9.344
29632SOL    HW290729  11.713   1.227   9.386
29633SOL     OW90730   1.130   0.487   5.642
29633SOL    HW190731   1.051   0.446   5.606
29633SOL    HW290732   1.098   0.565   5.687
29634SOL     OW90733  14.532   3.684   8.797
29634SOL    HW190734  14.605   3.734   8.833
29634SOL    HW290735  14.487   3.647   8.873
29635SOL     OW90736  14.337   8.550  11.804
29635SOL    HW190737  14.342   8.514  11.893
29635SOL    HW290738  14.419   8.599  11.794
29636SOL     OW90739   6.312   2.248  14.733
29636SOL    HW190740   6.315   2.282  14.822
29636SOL    HW290741   6.238   2.293  14.693
29637SOL     OW90742   1.606   8.125   3.069
29637SOL    HW190743   1.601   8.030   3.057
29637SOL    HW290744   1.670   8.136   3.140
29638SOL     OW90745   9.469   5.417   2.788
29638SOL    HW190746   9.458   5.326   2.815
29638SOL    HW290747   9.391   5.461   2.823
29639SOL     OW90748   1.566   3.847  14.002
29639SOL    HW190749   1.552   3.757  13.974
29639SOL    HW290750   1.661   3.858  14.006
29640SOL     OW90751   4.193  14.368   9.211
29640SOL    HW190752   4.115  14.313   9.217
29640SOL    HW290753   4.162  14.456   9.230
29641SOL     OW90754   9.373   8.659   3.236
29641SOL    HW190755   9.298   8.622   3.283
29641SOL    HW290756   9.362   8.629   3.146
29642SOL     OW90757   2.524   4.433  12.389
29642SOL    HW190758   2.586   4.375  12.345
29642SOL    HW290759   2.438   4.395  12.372
29643SOL     OW90760   3.306   8.100   5.421
29643SOL    HW190761   3.364   8.026   5.403
29643SOL    HW290762   3.248   8.069   5.491
29644SOL     OW90763  11.175   1.972   2.180
29644SOL    HW190764  11.205   2.015   2.100
29644SOL    HW290765  11.130   2.041   2.229
29645SOL     OW90766  10.005  14.598   2.003
29645SOL    HW190767  10.054  14.542   2.063
29645SOL    HW290768  10.059  14.676   1.993
29646SOL     OW90769   1.356  10.491   1.075
29646SOL    HW190770   1.261  10.482   1.069
29646SOL    HW290771   1.387  10.480   0.985
29647SOL     OW90772  11.804   0.829   9.548
29647SOL    HW190773  11.716   0.794   9.531
29647SOL    HW290774  11.860   0.785   9.484
29648SOL     OW90775   7.784   4.391   4.929
29648SOL    HW190776   7.710   4.436   4.970
29648SOL    HW290777   7.859   4.447   4.946
29649SOL     OW90778  14.690   6.746   5.671
29649SOL    HW190779  14.624   6.741   5.603
29649SOL    HW290780  14.681   6.835   5.706
29650SOL     OW90781   2.889   7.057   0.774
29650SOL    HW190782   2.959   7.118   0.748
29650SOL    HW290783   2.841   7.105   0.841
29651SOL     OW90784   8.615  14.384   0.802
29651SOL    HW190785   8.579  14.473   0.808
29651SOL    HW290786   8.609  14.362   0.709
29652SOL     OW90787  11.067   5.754  14.317
29652SOL    HW190788  11.135   5.726  14.256
29652SOL    HW290789  11.092   5.843  14.341
29653SOL     OW90790   4.310  10.241   5.649
29653SOL    HW190791   4.344  10.275   5.732
29653SOL    HW290792   4.311  10.146   5.661
29654SOL     OW90793   5.678   6.745  12.954
29654SOL    HW190794   5.629   6.784  13.027
29654SOL    HW290795   5.763   6.722  12.992
29655SOL     OW90796  10.988   8.965   1.575
29655SOL    HW190797  11.060   8.952   1.513
29655SOL    HW290798  11.028   8.951   1.661
29656SOL     OW90799  14.279   9.799  11.897
29656SOL    HW190800  14.329   9.871  11.859
29656SOL    HW290801  14.254   9.830  11.984
29657SOL     OW90802  12.363  11.258   1.716
29657SOL    HW190803  12.324  11.239   1.801
29657SOL    HW290804  12.400  11.346   1.726
29658SOL     OW90805  11.900  13.628   1.707
29658SOL    HW190806  11.932  13.670   1.628
29658SOL    HW290807  11.969  13.566   1.731
29659SOL     OW90808  12.751   8.523   2.968
29659SOL    HW190809  12.800   8.545   3.047
29659SOL    HW290810  12.672   8.577   2.973
29660SOL     OW90811   0.848   2.963   6.270
29660SOL    HW190812   0.791   2.886   6.261
29660SOL    HW290813   0.934   2.933   6.240
29661SOL     OW90814  13.072   0.983  12.528
29661SOL    HW190815  12.985   1.016  12.506
29661SOL    HW290816  13.131   1.056  12.508
29662SOL     OW90817   1.670   7.914   9.830
29662SOL    HW190818   1.687   7.836   9.778
29662SOL    HW290819   1.586   7.947   9.798
29663SOL     OW90820  14.336   8.561   6.428
29663SOL    HW190821  14.244   8.555   6.451
29663SOL    HW290822  14.338   8.614   6.348
29664SOL     OW90823   2.877  13.047   0.746
29664SOL    HW190824   2.798  13.083   0.706
29664SOL    HW290825   2.932  13.022   0.672
29665SOL     OW90826   2.957  10.502  10.468
29665SOL    HW190827   2.882  10.495  10.527
29665SOL    HW290828   2.974  10.596  10.462
29666SOL     OW90829  13.855   3.960   5.712
29666SOL    HW190830  13.945   3.970   5.743
29666SOL    HW290831  13.851   3.870   5.680
29667SOL     OW90832  10.414  11.466   1.627
29667SOL    HW190833  10.337  11.484   1.681
29667SOL    HW290834  10.480  11.436   1.689
29668SOL     OW90835   0.317   6.226   0.986
29668SOL    HW190836   0.292   6.315   0.959
29668SOL    HW290837   0.357   6.238   1.073
29669SOL     OW90838  10.683   0.868   9.295
29669SOL    HW190839  10.699   0.896   9.385
29669SOL    HW290840  10.626   0.792   9.304
29670SOL     OW90841   9.506   6.730   5.249
29670SOL    HW190842   9.510   6.635   5.238
29670SOL    HW290843   9.540   6.745   5.337
29671SOL     OW90844   4.953  10.945   8.696
29671SOL    HW190845   4.874  10.921   8.648
29671SOL    HW290846   5.019  10.882   8.666
29672SOL     OW90847  13.315  13.174  11.399
29672SOL    HW190848  13.277  13.181  11.312
29672SOL    HW290849  13.410  13.173  11.385
29673SOL     OW90850   7.152   4.109  14.178
29673SOL    HW190851   7.069   4.077  14.213
29673SOL    HW290852   7.214   4.097  14.249
29674SOL     OW90853   6.146  10.544   3.631
29674SOL    HW190854   6.105  10.460   3.610
29674SOL    HW290855   6.129  10.599   3.554
29675SOL     OW90856   0.317  14.589   6.803
29675SOL    HW190857   0.384  14.536   6.758
29675SOL    HW290858   0.344  14.589   6.894
29676SOL     OW90859  13.909   4.078   7.424
29676SOL    HW190860  13.894   4.030   7.505
29676SOL    HW290861  13.938   4.012   7.361
29677SOL     OW90862  10.141  10.899  14.385
29677SOL    HW190863  10.100  10.889  14.470
29677SOL    HW290864  10.146  10.810  14.350
29678SOL     OW90865   8.870  12.531  14.564
29678SOL    HW190866   8.835  12.602  14.511
29678SOL    HW290867   8.919  12.574  14.634
29679SOL     OW90868  13.040   6.555   8.031
29679SOL    HW190869  13.038   6.475   8.084
29679SOL    HW290870  13.015   6.527   7.943
29680SOL     OW90871   9.626  14.180   5.320
29680SOL    HW190872   9.609  14.112   5.386
29680SOL    HW290873   9.698  14.231   5.357
29681SOL     OW90874   2.049  10.969   8.952
29681SOL    HW190875   2.014  10.977   8.864
29681SOL    HW290876   2.000  11.032   9.004
29682SOL     OW90877   5.358   0.770   2.917
29682SOL    HW190878   5.270   0.802   2.937
29682SOL    HW290879   5.410   0.793   2.994
29683SOL     OW90880   4.767   1.985   7.737
29683SOL    HW190881   4.774   1.889   7.737
29683SOL    HW290882   4.763   2.009   7.829
29684SOL     OW90883   3.321   3.900  14.210
29684SOL    HW190884   3.338   3.875  14.119
29684SOL    HW290885   3.405   3.890  14.254
29685SOL     OW90886  13.832  10.541   4.977
29685SOL    HW190887  13.777  10.618   4.983
29685SOL    HW290888  13.781  10.471   5.017
29686SOL     OW90889   3.962   8.049   8.836
29686SOL    HW190890   3.911   8.120   8.795
29686SOL    HW290891   3.959   8.069   8.929
29687SOL     OW90892  13.825   5.331   9.039
29687SOL    HW190893  13.844   5.241   9.065
29687SOL    HW290894  13.887   5.384   9.089
29688SOL     OW90895   4.434   9.637  13.851
29688SOL    HW190896   4.494   9.641  13.925
29688SOL    HW290897   4.451   9.551  13.811
29689SOL     OW90898  11.767   8.345  13.223
29689SOL    HW190899  11.786   8.286  13.296
29689SOL    HW290900  11.700   8.301  13.172
29690SOL     OW90901   2.575  11.500   5.272
29690SOL    HW190902   2.566  11.542   5.357
29690SOL    HW290903   2.559  11.570   5.209
29691SOL     OW90904  10.052  13.925   6.357
29691SOL    HW190905  10.064  13.901   6.265
29691SOL    HW290906   9.958  13.925   6.370
29692SOL     OW90907   7.480  12.348   1.894
29692SOL    HW190908   7.526  12.395   1.824
29692SOL    HW290909   7.455  12.416   1.956
29693SOL     OW90910   2.390   5.276   5.673
29693SOL    HW190911   2.448   5.238   5.607
29693SOL    HW290912   2.392   5.370   5.656
29694SOL     OW90913   5.694  14.733  13.151
29694SOL    HW190914   5.661  14.692  13.231
29694SOL    HW290915   5.668  14.824  13.157
29695SOL     OW90916   8.012   3.449  14.784
29695SOL    HW190917   8.108   3.448  14.778
29695SOL    HW290918   7.986   3.361  14.759
29696SOL     OW90919   9.619  13.533   6.841
29696SOL    HW190920   9.646  13.446   6.869
29696SOL    HW290921   9.651  13.592   6.909
29697SOL     OW90922   3.309  14.330  10.767
29697SOL    HW190923   3.390  14.283  10.748
29697SOL    HW290924   3.329  14.379  10.847
29698SOL     OW90925   2.115  13.038  10.294
29698SOL    HW190926   2.183  13.104  10.282
29698SOL    HW290927   2.163  12.956  10.307
29699SOL     OW90928   4.167  10.576   0.985
29699SOL    HW190929   4.149  10.486   1.014
29699SOL    HW290930   4.115  10.586   0.906
29700SOL     OW90931  10.200   9.298  13.909
29700SOL    HW190932  10.139   9.356  13.956
29700SOL    HW290933  10.145   9.231  13.870
29701SOL     OW90934   7.891   9.255   8.416
29701SOL    HW190935   7.888   9.297   8.330
29701SOL    HW290936   7.980   9.273   8.448
29702SOL     OW90937   3.098   6.493  13.248
29702SOL    HW190938   3.188   6.470  13.271
29702SOL    HW290939   3.089   6.585  13.275
29703SOL     OW90940   9.421  14.202  10.099
29703SOL    HW190941   9.445  14.290  10.129
29703SOL    HW290942   9.406  14.212  10.005
29704SOL     OW90943  11.794   9.900   8.337
29704SOL    HW190944  11.765   9.916   8.427
29704SOL    HW290945  11.791   9.985   8.295
29705SOL     OW90946   8.364   4.815   1.418
29705SOL    HW190947   8.439   4.848   1.466
29705SOL    HW290948   8.290   4.867   1.449
29706SOL     OW90949  10.190   3.362  11.752
29706SOL    HW190950  10.145   3.407  11.824
29706SOL    HW290951  10.165   3.411  11.674
29707SOL     OW90952   1.636  14.135  13.975
29707SOL    HW190953   1.575  14.196  13.933
29707SOL    HW290954   1.629  14.055  13.924
29708SOL     OW90955  12.959  10.631   4.629
29708SOL    HW190956  12.991  10.721   4.641
29708SOL    HW290957  12.971  10.590   4.714
29709SOL     OW90958  13.032   6.049   4.738
29709SOL    HW190959  12.979   6.066   4.660
29709SOL    HW290960  13.119   6.081   4.715
29710SOL     OW90961   5.274  11.165   3.513
29710SOL    HW190962   5.199  11.141   3.567
29710SOL    HW290963   5.241  11.234   3.456
29711SOL     OW90964   9.048  14.051  11.728
29711SOL    HW190965   9.055  14.145  11.712
29711SOL    HW290966   8.967  14.025  11.683
29712SOL     OW90967  14.683  11.890   1.884
29712SOL    HW190968  14.685  11.798   1.855
29712SOL    HW290969  14.741  11.891   1.961
29713SOL     OW90970   3.715   4.406  13.223
29713SOL    HW190971   3.649   4.352  13.265
29713SOL    HW290972   3.760   4.347  13.162
29714SOL     OW90973   0.711   0.319  13.977
29714SOL    HW190974   0.792   0.349  14.019
29714SOL    HW290975   0.683   0.393  13.923
29715SOL     OW90976  14.522   3.036   1.038
29715SOL    HW190977  14.528   2.969   0.970
29715SOL    HW290978  14.499   3.116   0.992
29716SOL     OW90979  10.524   6.985  11.172
29716SOL    HW190980  10.490   6.906  11.215
29716SOL    HW290981  10.494   7.057  11.227
29717SOL     OW90982   9.023  12.181  12.137
29717SOL    HW190983   9.040  12.253  12.076
29717SOL    HW290984   8.928  12.177  12.144
29718SOL     OW90985  14.571   2.401  11.460
29718SOL    HW190986  14.511   2.377  11.530
29718SOL    HW290987  14.532   2.479  11.421
29719SOL     OW90988   5.274   2.114  14.272
29719SOL    HW190989   5.299   2.042  14.214
29719SOL    HW290990   5.294   2.082  14.360
29720SOL     OW90991  10.252   1.620  13.355
29720SOL    HW190992  10.244   1.525  13.347
29720SOL    HW290993  10.265   1.651  13.266
29721SOL     OW90994  14.130  12.973   0.791
29721SOL    HW190995  14.084  12.889   0.796
29721SOL    HW290996  14.110  13.007   0.704
29722SOL     OW90997   4.979   0.643   9.184
29722SOL    HW190998   4.911   0.633   9.250
29722SOL    HW290999   4.982   0.558   9.139
29723SOL     OW91000  14.109   2.936   6.838
29723SOL    HW191001  14.081   3.011   6.891
29723SOL    HW291002  14.161   2.883   6.898
29724SOL     OW91003   6.275   1.641   9.695
29724SOL    HW191004   6.236   1.649   9.608
29724SOL    HW291005   6.202   1.655   9.755
29725SOL     OW91006  10.156  12.102   3.293
29725SOL    HW191007  10.147  12.033   3.228
29725SOL    HW291008  10.250  12.119   3.298
29726SOL     OW91009   6.654  13.462  12.239
29726SOL    HW191010   6.639  13.433  12.328
29726SOL    HW291011   6.683  13.553  12.248
29727SOL     OW91012   2.415   4.477   8.774
29727SOL    HW191013   2.343   4.424   8.739
29727SOL    HW291014   2.389   4.497   8.864
29728SOL     OW91015   2.947   9.219   2.525
29728SOL    HW191016   2.944   9.252   2.435
29728SOL    HW291017   2.914   9.130   2.519
29729SOL     OW91018   1.663   8.013   3.861
29729SOL    HW191019   1.736   8.039   3.916
29729SOL    HW291020   1.599   7.976   3.921
29730SOL     OW91021   5.456   0.248  13.396
29730SOL    HW191022   5.482   0.339  13.386
29730SOL    HW291023   5.366   0.245  13.363
29731SOL     OW91024   8.001  10.730  10.850
29731SOL    HW191025   7.909  10.755  10.844
29731SOL    HW291026   8.026  10.709  10.760
29732SOL     OW91027   8.362   6.169   3.694
29732SOL    HW191028   8.335   6.228   3.764
29732SOL    HW291029   8.307   6.193   3.619
29733SOL     OW91030   9.195   9.336   4.778
29733SOL    HW191031   9.165   9.388   4.703
29733SOL    HW291032   9.201   9.398   4.850
29734SOL     OW91033  14.519   3.184   2.731
29734SOL    HW191034  14.452   3.232   2.681
29734SOL    HW291035  14.493   3.195   2.823
29735SOL     OW91036   8.246  14.237   3.155
29735SOL    HW191037   8.252  14.314   3.211
29735SOL    HW291038   8.152  14.223   3.142
29736SOL     OW91039  11.769   6.613   9.139
29736SOL    HW191040  11.808   6.604   9.226
29736SOL    HW291041  11.837   6.654   9.086
29737SOL     OW91042   1.850   0.556   3.081
29737SOL    HW191043   1.813   0.548   3.169
29737SOL    HW291044   1.919   0.489   3.078
29738SOL     OW91045   2.252   5.800   8.495
29738SOL    HW191046   2.287   5.737   8.432
29738SOL    HW291047   2.165   5.823   8.461
29739SOL     OW91048   3.435   9.912   9.088
29739SOL    HW191049   3.514   9.899   9.141
29739SOL    HW291050   3.466   9.957   9.010
29740SOL     OW91051   0.610   3.209   1.735
29740SOL    HW191052   0.587   3.294   1.774
29740SOL    HW291053   0.584   3.145   1.801
29741SOL     OW91054   9.113   4.994   7.846
29741SOL    HW191055   9.188   5.032   7.892
29741SOL    HW291056   9.043   5.058   7.858
29742SOL     OW91057   4.871   0.574   1.214
29742SOL    HW191058   4.962   0.571   1.186
29742SOL    HW291059   4.834   0.491   1.184
29743SOL     OW91060  12.779   9.727   0.862
29743SOL    HW191061  12.702   9.689   0.822
29743SOL    HW291062  12.853   9.683   0.820
29744SOL     OW91063  14.071   6.156  12.962
29744SOL    HW191064  14.068   6.159  13.058
29744SOL    HW291065  14.161   6.132  12.941
29745SOL     OW91066   7.651   9.068  10.865
29745SOL    HW191067   7.630   9.123  10.941
29745SOL    HW291068   7.662   9.129  10.793
29746SOL     OW91069  13.910  13.640  13.125
29746SOL    HW191070  13.996  13.633  13.167
29746SOL    HW291071  13.930  13.662  13.034
29747SOL     OW91072  10.326  13.320   1.412
29747SOL    HW191073  10.383  13.387   1.374
29747SOL    HW291074  10.265  13.369   1.467
29748SOL     OW91075  14.004  11.154  10.800
29748SOL    HW191076  14.088  11.109  10.787
29748SOL    HW291077  13.945  11.113  10.736
29749SOL     OW91078   8.784   4.644  12.088
29749SOL    HW191079   8.809   4.726  12.129
29749SOL    HW291080   8.766   4.667  11.997
29750SOL     OW91081   9.521   7.658   4.344
29750SOL    HW191082   9.517   7.753   4.332
29750SOL    HW291083   9.582   7.646   4.417
29751SOL     OW91084   1.740   4.216  12.512
29751SOL    HW191085   1.807   4.207  12.445
29751SOL    HW291086   1.778   4.174  12.590
29752SOL     OW91087  13.260  10.290   2.739
29752SOL    HW191088  13.185  10.349   2.747
29752SOL    HW291089  13.336  10.348   2.728
29753SOL     OW91090  11.648   0.063   2.522
29753SOL    HW191091  11.719   0.119   2.491
29753SOL    HW291092  11.640  14.877   2.455
29754SOL     OW91093   7.833  11.177   3.829
29754SOL    HW191094   7.748  11.216   3.848
29754SOL    HW291095   7.857  11.132   3.910
29755SOL     OW91096  12.923   3.616   2.231
29755SOL    HW191097  12.943   3.532   2.190
29755SOL    HW291098  12.997   3.632   2.291
29756SOL     OW91099   2.011  12.016   7.305
29756SOL    HW191100   2.045  12.025   7.394
29756SOL    HW291101   2.088  11.999   7.251
29757SOL     OW91102   3.891   9.919   2.514
29757SOL    HW191103   3.804   9.882   2.530
29757SOL    HW291104   3.914   9.888   2.427
29758SOL     OW91105  11.413   0.083   8.281
29758SOL    HW191106  11.337   0.040   8.321
29758SOL    HW291107  11.450   0.016   8.223
29759SOL     OW91108   8.455   5.256  13.365
29759SOL    HW191109   8.410   5.200  13.302
29759SOL    HW291110   8.514   5.310  13.311
29760SOL     OW91111   2.309  10.841  12.086
29760SOL    HW191112   2.389  10.867  12.131
29760SOL    HW291113   2.339  10.805  12.002
29761SOL     OW91114   6.030   9.690   4.379
29761SOL    HW191115   6.093   9.691   4.451
29761SOL    HW291116   5.964   9.626   4.406
29762SOL     OW91117   4.204   6.108   3.008
29762SOL    HW191118   4.299   6.107   3.009
29762SOL    HW291119   4.179   6.018   2.985
29763SOL     OW91120   0.656   8.020  13.725
29763SOL    HW191121   0.604   7.940  13.726
29763SOL    HW291122   0.687   8.029  13.816
29764SOL     OW91123  13.799   9.602  11.631
29764SOL    HW191124  13.861   9.554  11.577
29764SOL    HW291125  13.767   9.672  11.574
29765SOL     OW91126  12.725  10.102  12.578
29765SOL    HW191127  12.688  10.016  12.599
29765SOL    HW291128  12.748  10.140  12.663
29766SOL     OW91129   6.132  10.349   9.800
29766SOL    HW191130   6.160  10.439   9.815
29766SOL    HW291131   6.089  10.324   9.882
29767SOL     OW91132   5.997   8.565   8.827
29767SOL    HW191133   5.971   8.505   8.897
29767SOL    HW291134   6.021   8.508   8.754
29768SOL     OW91135   7.311   6.062  14.334
29768SOL    HW191136   7.403   6.075  14.311
29768SOL    HW291137   7.269   6.144  14.306
29769SOL     OW91138  10.206   1.308   0.154
29769SOL    HW191139  10.213   1.370   0.227
29769SOL    HW291140  10.296   1.298   0.122
29770SOL     OW91141   2.141   4.110   0.443
29770SOL    HW191142   2.217   4.108   0.385
29770SOL    HW291143   2.076   4.162   0.396
29771SOL     OW91144  13.058   8.741  14.237
29771SOL    HW191145  12.995   8.807  14.266
29771SOL    HW291146  13.036   8.663  14.287
29772SOL     OW91147   0.088   9.330  14.746
29772SOL    HW191148   0.003   9.322  14.703
29772SOL    HW291149   0.068   9.325  14.840
29773SOL     OW91150  10.665  13.916   7.216
29773SOL    HW191151  10.610  13.850   7.259
29773SOL    HW291152  10.752  13.875   7.211
29774SOL     OW91153   6.784   2.039   9.347
29774SOL    HW191154   6.746   2.013   9.264
29774SOL    HW291155   6.771   2.134   9.351
29775SOL     OW91156  12.200   9.471   7.216
29775SOL    HW191157  12.143   9.401   7.248
29775SOL    HW291158  12.178   9.546   7.271
29776SOL     OW91159   5.047   7.841   8.828
29776SOL    HW191160   4.997   7.888   8.762
29776SOL    HW291161   5.114   7.903   8.856
29777SOL     OW91162   5.336   9.360   2.348
29777SOL    HW191163   5.428   9.387   2.345
29777SOL    HW291164   5.295   9.422   2.408
29778SOL     OW91165   1.924  10.823   5.416
29778SOL    HW191166   1.982  10.879   5.364
29778SOL    HW291167   1.917  10.868   5.500
29779SOL     OW91168   7.805  13.057   9.455
29779SOL    HW191169   7.855  13.129   9.418
29779SOL    HW291170   7.778  13.005   9.379
29780SOL     OW91171   2.840   9.494  12.241
29780SOL    HW191172   2.914   9.541  12.202
29780SOL    HW291173   2.771   9.497  12.176
29781SOL     OW91174   3.763  13.648   0.262
29781SOL    HW191175   3.798  13.673   0.347
29781SOL    HW291176   3.832  13.595   0.222
29782SOL     OW91177   0.636  14.331   8.346
29782SOL    HW191178   0.623  14.300   8.256
29782SOL    HW291179   0.659  14.423   8.336
29783SOL     OW91180  14.776  14.685  13.806
29783SOL    HW191181  14.824  14.648  13.880
29783SOL    HW291182  14.806  14.775  13.800
29784SOL     OW91183   3.624   6.405   6.763
29784SOL    HW191184   3.647   6.494   6.737
29784SOL    HW291185   3.548   6.384   6.709
29785SOL     OW91186   3.895  13.715  13.953
29785SOL    HW191187   3.865  13.796  13.912
29785SOL    HW291188   3.863  13.720  14.043
29786SOL     OW91189  14.209  14.159  14.510
29786SOL    HW191190  14.222  14.112  14.427
29786SOL    HW291191  14.138  14.220  14.492
29787SOL     OW91192   0.043  10.119   1.074
29787SOL    HW191193   0.130  10.153   1.053
29787SOL    HW291194   0.008  10.089   0.990
29788SOL     OW91195  12.465   0.285   2.095
29788SOL    HW191196  12.491   0.196   2.071
29788SOL    HW291197  12.542   0.339   2.077
29789SOL     OW91198  12.090   1.224  14.193
29789SOL    HW191199  12.046   1.243  14.111
29789SOL    HW291200  12.131   1.138  14.180
29790SOL     OW91201   1.609  11.298  11.184
29790SOL    HW191202   1.577  11.386  11.166
29790SOL    HW291203   1.704  11.310  11.197
29791SOL     OW91204  13.609   2.696   9.724
29791SOL    HW191205  13.628   2.604   9.704
29791SOL    HW291206  13.662   2.716   9.801
29792SOL     OW91207   8.380  11.885   0.210
29792SOL    HW191208   8.426  11.808   0.175
29792SOL    HW291209   8.340  11.926   0.134
29793SOL     OW91210   8.923   6.425   7.834
29793SOL    HW191211   8.946   6.424   7.927
29793SOL    HW291212   8.828   6.437   7.834
29794SOL     OW91213   1.002   2.877   2.676
29794SOL    HW191214   0.969   2.963   2.649
29794SOL    HW291215   1.087   2.870   2.633
29795SOL     OW91216  11.819   2.828   5.548
29795SOL    HW191217  11.857   2.764   5.488
29795SOL    HW291218  11.895   2.866   5.593
29796SOL     OW91219  11.462  10.996  14.385
29796SOL    HW191220  11.413  11.067  14.427
29796SOL    HW291221  11.419  10.985  14.300
29797SOL     OW91222  12.114   5.506  14.765
29797SOL    HW191223  12.044   5.492  14.829
29797SOL    HW291224  12.193   5.519  14.817
29798SOL     OW91225   1.074  14.372  14.500
29798SOL    HW191226   1.093  14.449  14.446
29798SOL    HW291227   0.994  14.394  14.546
29799SOL     OW91228   6.837  12.305  13.171
29799SOL    HW191229   6.880  12.378  13.215
29799SOL    HW291230   6.747  12.334  13.159
29800SOL     OW91231   1.223   7.808   9.659
29800SOL    HW191232   1.239   7.731   9.713
29800SOL    HW291233   1.133   7.799   9.628
29801SOL     OW91234   9.265   3.881   0.727
29801SOL    HW191235   9.312   3.964   0.717
29801SOL    HW291236   9.175   3.902   0.704
29802SOL     OW91237   6.665   2.792   9.386
29802SOL    HW191238   6.708   2.878   9.382
29802SOL    HW291239   6.585   2.803   9.336
29803SOL     OW91240  13.061   1.526   9.228
29803SOL    HW191241  13.092   1.594   9.169
29803SOL    HW291242  13.045   1.571   9.311
29804SOL     OW91243  10.167  11.000   2.426
29804SOL    HW191244  10.251  11.030   2.389
29804SOL    HW291245  10.191  10.931   2.487
29805SOL     OW91246   0.544  10.930   8.788
29805SOL    HW191247   0.509  10.901   8.872
29805SOL    HW291248   0.502  10.875   8.723
29806SOL     OW91249  13.850  13.458  14.624
29806SOL    HW191250  13.921  13.490  14.568
29806SOL    HW291251  13.774  13.454  14.565
29807SOL     OW91252   4.850  11.938   8.907
29807SOL    HW191253   4.776  11.981   8.949
29807SOL    HW291254   4.838  11.845   8.925
29808SOL     OW91255  10.385   8.436  10.163
29808SOL    HW191256  10.327   8.510  10.175
29808SOL    HW291257  10.472   8.475  10.152
29809SOL     OW91258   4.146  14.830   4.954
29809SOL    HW191259   4.065  14.873   4.925
29809SOL    HW291260   4.118  14.774   5.026
29810SOL     OW91261   5.237  11.239  14.850
29810SOL    HW191262   5.253  11.307  14.785
29810SOL    HW291263   5.297  11.168  14.825
29811SOL     OW91264  13.074   9.305  13.905
29811SOL    HW191265  13.056   9.374  13.969
29811SOL    HW291266  13.136   9.247  13.948
29812SOL     OW91267   0.311   3.078   8.639
29812SOL    HW191268   0.395   3.036   8.657
29812SOL    HW291269   0.295   3.061   8.546
29813SOL     OW91270  13.361   2.092   6.875
29813SOL    HW191271  13.373   2.183   6.849
29813SOL    HW291272  13.266   2.083   6.887
29814SOL     OW91273   0.811  12.357   8.493
29814SOL    HW191274   0.879  12.357   8.559
29814SOL    HW291275   0.743  12.414   8.528
29815SOL     OW91276   1.996   4.573  13.546
29815SOL    HW191277   1.973   4.614  13.462
29815SOL    HW291278   2.032   4.645  13.598
29816SOL     OW91279   1.577   2.513   7.859
29816SOL    HW191280   1.504   2.455   7.881
29816SOL    HW291281   1.655   2.464   7.885
29817SOL     OW91282   2.979  11.840  13.330
29817SOL    HW191283   2.887  11.850  13.353
29817SOL    HW291284   3.027  11.872  13.407
29818SOL     OW91285  12.640  14.614  11.845
29818SOL    HW191286  12.630  14.554  11.920
29818SOL    HW291287  12.721  14.586  11.803
29819SOL     OW91288  13.312   9.211   6.748
29819SOL    HW191289  13.237   9.257   6.712
29819SOL    HW291290  13.384   9.230   6.688
29820SOL     OW91291   7.187   1.567   5.082
29820SOL    HW191292   7.183   1.540   5.174
29820SOL    HW291293   7.273   1.536   5.052
29821SOL     OW91294  11.723   4.860  13.578
29821SOL    HW191295  11.679   4.938  13.544
29821SOL    HW291296  11.674   4.838  13.657
29822SOL     OW91297  12.970   4.839  13.573
29822SOL    HW191298  12.941   4.894  13.646
29822SOL    HW291299  13.053   4.803  13.602
29823SOL     OW91300   9.431   9.665   5.649
29823SOL    HW191301   9.430   9.724   5.574
29823SOL    HW291302   9.351   9.684   5.697
29824SOL     OW91303  13.713   5.408   7.355
29824SOL    HW191304  13.777   5.425   7.424
29824SOL    HW291305  13.636   5.459   7.379
29825SOL     OW91306   3.282  12.237   9.221
29825SOL    HW191307   3.353  12.203   9.276
29825SOL    HW291308   3.321  12.310   9.173
29826SOL     OW91309   7.452  10.934   6.888
29826SOL    HW191310   7.537  10.955   6.928
29826SOL    HW291311   7.474  10.890   6.806
29827SOL     OW91312  11.501   2.451   8.900
29827SOL    HW191313  11.430   2.507   8.868
29827SOL    HW291314  11.458   2.392   8.962
29828SOL     OW91315   8.528   7.346   5.211
29828SOL    HW191316   8.456   7.300   5.253
29828SOL    HW291317   8.599   7.344   5.276
29829SOL     OW91318   0.569   1.086   2.733
29829SOL    HW191319   0.591   1.073   2.641
29829SOL    HW291320   0.613   1.015   2.779
29830SOL     OW91321   9.504   1.764   1.470
29830SOL    HW191322   9.567   1.780   1.400
29830SOL    HW291323   9.529   1.678   1.506
29831SOL     OW91324  12.399   4.388   0.114
29831SOL    HW191325  12.372   4.480   0.107
29831SOL    HW291326  12.384   4.365   0.205
29832SOL     OW91327  13.932  11.108  12.654
29832SOL    HW191328  14.003  11.045  12.665
29832SOL    HW291329  13.853  11.054  12.650
29833SOL     OW91330   7.582  11.210   2.291
29833SOL    HW191331   7.505  11.267   2.286
29833SOL    HW291332   7.656  11.270   2.300
29834SOL     OW91333   9.015   0.357   2.252
29834SOL    HW191334   9.073   0.426   2.219
29834SOL    HW291335   9.063   0.317   2.324
29835SOL     OW91336   6.527  12.300   3.087
29835SOL    HW191337   6.550  12.212   3.118
29835SOL    HW291338   6.610  12.348   3.087
29836SOL     OW91339  11.215  13.328   4.275
29836SOL    HW191340  11.248  13.380   4.348
29836SOL    HW291341  11.187  13.246   4.315
29837SOL     OW91342   8.767   8.282   0.421
29837SOL    HW191343   8.862   8.286   0.408
29837SOL    HW291344   8.752   8.194   0.455
29838SOL     OW91345   1.092   4.445  13.363
29838SOL    HW191346   1.026   4.512  13.347
29838SOL    HW291347   1.147   4.445  13.285
29839SOL     OW91348   1.311  11.459   5.998
29839SOL    HW191349   1.231  11.462   5.947
29839SOL    HW291350   1.340  11.550   6.003
29840SOL     OW91351  12.736   9.526   1.575
29840SOL    HW191352  12.726   9.471   1.652
29840SOL    HW291353  12.746   9.464   1.502
29841SOL     OW91354  12.817  12.139   3.437
29841SOL    HW191355  12.868  12.087   3.500
29841SOL    HW291356  12.738  12.163   3.485
29842SOL     OW91357  11.827   4.458  12.481
29842SOL    HW191358  11.752   4.403  12.458
29842SOL    HW291359  11.794   4.516  12.549
29843SOL     OW91360   0.521  13.991   3.372
29843SOL    HW191361   0.498  13.910   3.417
29843SOL    HW291362   0.445  14.048   3.386
29844SOL     OW91363   8.117   7.211   9.074
29844SOL    HW191364   8.144   7.213   8.982
29844SOL    HW291365   8.161   7.134   9.110
29845SOL     OW91366   3.341  10.292  14.384
29845SOL    HW191367   3.260  10.245  14.366
29845SOL    HW291368   3.410  10.228  14.368
29846SOL     OW91369   0.650  13.439   3.349
29846SOL    HW191370   0.641  13.529   3.317
29846SOL    HW291371   0.722  13.443   3.412
29847SOL     OW91372  13.898   1.632   8.405
29847SOL    HW191373  13.874   1.722   8.386
29847SOL    HW291374  13.984   1.639   8.447
29848SOL     OW91375  10.448   4.624  14.234
29848SOL    HW191376  10.452   4.559  14.164
29848SOL    HW291377  10.509   4.692  14.208
29849SOL     OW91378   9.602   3.748   4.612
29849SOL    HW191379   9.645   3.789   4.537
29849SOL    HW291380   9.652   3.779   4.688
29850SOL     OW91381   2.620   2.414  14.442
29850SOL    HW191382   2.545   2.356  14.426
29850SOL    HW291383   2.601   2.492  14.388
29851SOL     OW91384  11.448   5.759   6.786
29851SOL    HW191385  11.363   5.715   6.776
29851SOL    HW291386  11.466   5.796   6.699
29852SOL     OW91387  13.718  14.514  10.338
29852SOL    HW191388  13.672  14.560  10.408
29852SOL    HW291389  13.769  14.446  10.383
29853SOL     OW91390   1.929   1.351   6.207
29853SOL    HW191391   1.874   1.379   6.134
29853SOL    HW291392   1.965   1.267   6.179
29854SOL     OW91393  10.528   3.582  10.698
29854SOL    HW191394  10.539   3.548  10.787
29854SOL    HW291395  10.603   3.546  10.650
29855SOL     OW91396   3.466  12.501  13.898
29855SOL    HW191397   3.560  12.501  13.879
29855SOL    HW291398   3.433  12.421  13.857
29856SOL     OW91399   7.130   1.293   8.672
29856SOL    HW191400   7.035   1.294   8.685
29856SOL    HW291401   7.166   1.303   8.761
29857SOL     OW91402  11.471   1.857  11.728
29857SOL    HW191403  11.507   1.945  11.729
29857SOL    HW291404  11.388   1.865  11.681
29858SOL     OW91405   4.708   4.530   0.416
29858SOL    HW191406   4.673   4.514   0.328
29858SOL    HW291407   4.714   4.626   0.422
29859SOL     OW91408  12.773   5.385   0.629
29859SOL    HW191409  12.774   5.373   0.534
29859SOL    HW291410  12.746   5.300   0.663
29860SOL     OW91411  13.542   1.954  12.608
29860SOL    HW191412  13.614   1.936  12.669
29860SOL    HW291413  13.476   1.888  12.629
29861SOL     OW91414   7.159   2.709  14.396
29861SOL    HW191415   7.210   2.644  14.444
29861SOL    HW291416   7.089   2.659  14.354
29862SOL     OW91417   4.672   7.272   8.829
29862SOL    HW191418   4.619   7.217   8.771
29862SOL    HW291419   4.681   7.355   8.781
29863SOL     OW91420   8.012  13.095  11.093
29863SOL    HW191421   8.037  13.004  11.076
29863SOL    HW291422   7.924  13.102  11.055
29864SOL     OW91423  13.300   5.778   5.684
29864SOL    HW191424  13.348   5.725   5.748
29864SOL    HW291425  13.360   5.850   5.663
29865SOL     OW91426   6.709   9.149  11.443
29865SOL    HW191427   6.796   9.131  11.478
29865SOL    HW291428   6.726   9.197  11.362
29866SOL     OW91429  10.235  12.359   5.975
29866SOL    HW191430  10.282  12.397   5.901
29866SOL    HW291431  10.155  12.410   5.982
29867SOL     OW91432   8.779  14.142  14.674
29867SOL    HW191433   8.874  14.130  14.665
29867SOL    HW291434   8.763  14.137  14.769
29868SOL     OW91435   1.543  12.082  11.849
29868SOL    HW191436   1.608  12.150  11.829
29868SOL    HW291437   1.537  12.082  11.945
29869SOL     OW91438   7.826  11.207   1.443
29869SOL    HW191439   7.818  11.158   1.525
29869SOL    HW291440   7.736  11.226   1.418
29870SOL     OW91441   6.721   6.901  12.314
29870SOL    HW191442   6.723   6.905  12.218
29870SOL    HW291443   6.640   6.948  12.337
29871SOL     OW91444  12.040  11.001   3.832
29871SOL    HW191445  11.986  11.068   3.790
29871SOL    HW291446  12.081  10.954   3.759
29872SOL     OW91447   6.694   6.037  14.541
29872SOL    HW191448   6.750   6.067  14.469
29872SOL    HW291449   6.756   6.012  14.610
29873SOL     OW91450  12.265   4.399   7.606
29873SOL    HW191451  12.192   4.417   7.548
29873SOL    HW291452  12.268   4.304   7.613
29874SOL     OW91453  14.427   8.078   6.112
29874SOL    HW191454  14.334   8.056   6.125
29874SOL    HW291455  14.451   8.126   6.192
29875SOL     OW91456  12.780   4.661   3.531
29875SOL    HW191457  12.701   4.685   3.579
29875SOL    HW291458  12.802   4.739   3.480
29876SOL     OW91459   0.117   0.402  14.240
29876SOL    HW191460   0.102   0.351  14.320
29876SOL    HW291461   0.147   0.487  14.272
29877SOL     OW91462   9.517   8.855   4.631
29877SOL    HW191463   9.576   8.818   4.697
29877SOL    HW291464   9.555   8.941   4.611
29878SOL     OW91465  10.851   2.339  11.914
29878SOL    HW191466  10.775   2.308  11.963
29878SOL    HW291467  10.897   2.396  11.975
29879SOL     OW91468  10.668  11.052   3.296
29879SOL    HW191469  10.658  11.032   3.389
29879SOL    HW291470  10.638  10.972   3.251
29880SOL     OW91471   9.114   2.645  14.203
29880SOL    HW191472   9.175   2.617  14.134
29880SOL    HW291473   9.170   2.676  14.274
29881SOL     OW91474   7.364   9.419   5.725
29881SOL    HW191475   7.332   9.441   5.812
29881SOL    HW291476   7.295   9.364   5.687
29882SOL     OW91477  12.922   4.675   0.598
29882SOL    HW191478  12.906   4.767   0.579
29882SOL    HW291479  13.017   4.665   0.590
29883SOL     OW91480   2.994   1.003   6.588
29883SOL    HW191481   2.943   1.058   6.529
29883SOL    HW291482   2.954   1.016   6.674
29884SOL     OW91483   2.247   8.201   0.341
29884SOL    HW191484   2.262   8.259   0.415
29884SOL    HW291485   2.217   8.259   0.270
29885SOL     OW91486   4.428  11.591   2.051
29885SOL    HW191487   4.438  11.502   2.016
29885SOL    HW291488   4.349  11.624   2.009
29886SOL     OW91489   9.523   8.826   5.504
29886SOL    HW191490   9.443   8.856   5.461
29886SOL    HW291491   9.496   8.749   5.553
29887SOL     OW91492   0.778  12.875   5.030
29887SOL    HW191493   0.751  12.799   5.083
29887SOL    HW291494   0.701  12.896   4.977
29888SOL     OW91495   2.899  14.303   6.631
29888SOL    HW191496   2.917  14.351   6.712
29888SOL    HW291497   2.815  14.260   6.647
29889SOL     OW91498  11.981  12.371   6.865
29889SOL    HW191499  11.917  12.438   6.840
29889SOL    HW291500  12.030  12.353   6.785
29890SOL     OW91501   3.150  12.260  12.859
29890SOL    HW191502   3.231  12.249  12.810
29890SOL    HW291503   3.178  12.271  12.950
29891SOL     OW91504   2.572  13.355  13.693
29891SOL    HW191505   2.587  13.446  13.670
29891SOL    HW291506   2.515  13.358  13.770
29892SOL     OW91507   5.289   2.621   5.023
29892SOL    HW191508   5.326   2.697   4.978
29892SOL    HW291509   5.207   2.603   4.978
29893SOL     OW91510   2.666   9.126  12.066
29893SOL    HW191511   2.687   9.138  11.974
29893SOL    HW291512   2.571   9.122  12.069
29894SOL     OW91513  11.249   1.781  10.173
29894SOL    HW191514  11.279   1.726  10.245
29894SOL    HW291515  11.160   1.807  10.198
29895SOL     OW91516   3.195  11.680  14.808
29895SOL    HW191517   3.193  11.618  14.881
29895SOL    HW291518   3.268  11.650  14.753
29896SOL     OW91519   5.807  14.163  12.799
29896SOL    HW191520   5.841  14.074  12.787
29896SOL    HW291521   5.819  14.205  12.714
29897SOL     OW91522   5.669   3.705  11.756
29897SOL    HW191523   5.611   3.778  11.734
29897SOL    HW291524   5.633   3.670  11.837
29898SOL     OW91525   7.203  13.463   1.869
29898SOL    HW191526   7.232  13.533   1.810
29898SOL    HW291527   7.107  13.469   1.867
29899SOL     OW91528  12.637   5.349   6.625
29899SOL    HW191529  12.728   5.347   6.595
29899SOL    HW291530  12.587   5.380   6.549
29900SOL     OW91531  12.117   0.545   0.045
29900SOL    HW191532  12.165   0.564   0.126
29900SOL    HW291533  12.078   0.459   0.060
29901SOL     OW91534  10.355  11.095   5.144
29901SOL    HW191535  10.435  11.139   5.115
29901SOL    HW291536  10.337  11.030   5.076
29902SOL     OW91537   3.838   1.833   4.469
29902SOL    HW191538   3.862   1.758   4.414
29902SOL    HW291539   3.887   1.906   4.432
29903SOL     OW91540  12.038   3.029  11.747
29903SOL    HW191541  11.958   2.984  11.720
29903SOL    HW291542  12.102   3.005  11.681
29904SOL     OW91543   6.157   5.804   3.624
29904SOL    HW191544   6.154   5.713   3.654
29904SOL    HW291545   6.218   5.846   3.684
29905SOL     OW91546  11.926   4.979   9.687
29905SOL    HW191547  11.886   5.034   9.755
29905SOL    HW291548  11.965   5.041   9.626
29906SOL     OW91549   1.307   3.968  14.729
29906SOL    HW191550   1.255   3.907  14.677
29906SOL    HW291551   1.392   3.969  14.686
29907SOL     OW91552   3.770   0.897   0.789
29907SOL    HW191553   3.732   0.939   0.866
29907SOL    HW291554   3.794   0.969   0.731
29908SOL     OW91555   3.953   0.553  11.026
29908SOL    HW191556   3.876   0.556  10.970
29908SOL    HW291557   3.954   0.637  11.072
29909SOL     OW91558  13.306  14.492  12.285
29909SOL    HW191559  13.313  14.412  12.338
29909SOL    HW291560  13.234  14.475  12.225
29910SOL     OW91561  13.674   8.277   6.861
29910SOL    HW191562  13.658   8.366   6.889
29910SOL    HW291563  13.716   8.286   6.775
29911SOL     OW91564  11.263   1.110   8.280
29911SOL    HW191565  11.358   1.099   8.281
29911SOL    HW291566  11.234   1.066   8.200
29912SOL     OW91567  14.642  13.786  13.672
29912SOL    HW191568  14.558  13.787  13.627
29912SOL    HW291569  14.705  13.817  13.608
29913SOL     OW91570   9.128   3.538   5.629
29913SOL    HW191571   9.144   3.585   5.547
29913SOL    HW291572   9.033   3.538   5.639
29914SOL     OW91573   2.861   6.389   1.190
29914SOL    HW191574   2.857   6.435   1.106
29914SOL    HW291575   2.802   6.437   1.248
29915SOL     OW91576   3.846  13.967  13.015
29915SOL    HW191577   3.922  13.913  13.038
29915SOL    HW291578   3.785  13.954  13.087
29916SOL     OW91579  12.142   3.896   4.739
29916SOL    HW191580  12.189   3.959   4.685
29916SOL    HW291581  12.210   3.834   4.768
29917SOL     OW91582   2.112  12.467  12.206
29917SOL    HW191583   2.063  12.408  12.264
29917SOL    HW291584   2.196  12.424  12.195
29918SOL     OW91585  14.359   1.758  11.594
29918SOL    HW191586  14.442   1.770  11.640
29918SOL    HW291587  14.380   1.773  11.502
29919SOL     OW91588   8.336   4.357  10.558
29919SOL    HW191589   8.341   4.363  10.463
29919SOL    HW291590   8.409   4.410  10.589
29920SOL     OW91591   4.252   2.832   3.969
29920SOL    HW191592   4.192   2.766   4.003
29920SOL    HW291593   4.221   2.914   4.005
29921SOL     OW91594   4.805   8.834   4.809
29921SOL    HW191595   4.897   8.812   4.794
29921SOL    HW291596   4.789   8.909   4.751
29922SOL     OW91597   5.566   1.056   0.815
29922SOL    HW191598   5.581   0.986   0.751
29922SOL    HW291599   5.568   1.137   0.763
29923SOL     OW91600   5.903   0.527   2.682
29923SOL    HW191601   5.883   0.495   2.594
29923SOL    HW291602   5.882   0.454   2.739
29924SOL     OW91603   0.803  13.621   7.777
29924SOL    HW191604   0.811  13.532   7.744
29924SOL    HW291605   0.709  13.636   7.787
29925SOL     OW91606   9.746   3.160   8.547
29925SOL    HW191607   9.713   3.080   8.587
29925SOL    HW291608   9.689   3.174   8.471
29926SOL     OW91609   6.735   2.490  13.606
29926SOL    HW191610   6.741   2.435  13.683
29926SOL    HW291611   6.666   2.554  13.627
29927SOL     OW91612   5.245   2.894   6.384
29927SOL    HW191613   5.253   2.861   6.473
29927SOL    HW291614   5.308   2.843   6.333
29928SOL     OW91615  12.345   6.019  12.833
29928SOL    HW191616  12.279   5.999  12.767
29928SOL    HW291617  12.309   6.092  12.882
29929SOL     OW91618  13.200   0.119  10.032
29929SOL    HW191619  13.253   0.143   9.957
29929SOL    HW291620  13.223   0.182  10.100
29930SOL     OW91621   0.438   7.513  14.639
29930SOL    HW191622   0.384   7.452  14.589
29930SOL    HW291623   0.428   7.596  14.594
29931SOL     OW91624  11.581   3.987   4.044
29931SOL    HW191625  11.640   3.916   4.071
29931SOL    HW291626  11.592   4.054   4.112
29932SOL     OW91627  11.757  12.758   8.811
29932SOL    HW191628  11.713  12.768   8.727
29932SOL    HW291629  11.733  12.836   8.861
29933SOL     OW91630  14.001   2.712   8.581
29933SOL    HW191631  13.935   2.650   8.614
29933SOL    HW291632  13.988   2.791   8.634
29934SOL     OW91633   3.039   0.394   9.480
29934SOL    HW191634   3.010   0.364   9.394
29934SOL    HW291635   3.066   0.484   9.466
29935SOL     OW91636  13.123  13.526   0.148
29935SOL    HW191637  13.117  13.518   0.243
29935SOL    HW291638  13.145  13.618   0.133
29936SOL     OW91639   9.869   0.390  14.612
29936SOL    HW191640   9.829   0.395  14.699
29936SOL    HW291641   9.810   0.334  14.562
29937SOL     OW91642  12.004   6.784   8.079
29937SOL    HW191643  11.983   6.768   8.171
29937SOL    HW291644  12.089   6.741   8.066
29938SOL     OW91645   2.424   7.964  11.398
29938SOL    HW191646   2.473   8.042  11.373
29938SOL    HW291647   2.379   7.937  11.318
29939SOL     OW91648   6.116   9.225   9.943
29939SOL    HW191649   6.127   9.312   9.906
29939SOL    HW291650   6.133   9.236  10.036
29940SOL     OW91651   5.464  12.893   9.052
29940SOL    HW191652   5.478  12.906   9.146
29940SOL    HW291653   5.543  12.929   9.011
29941SOL     OW91654  12.967   0.631   4.507
29941SOL    HW191655  12.950   0.725   4.510
29941SOL    HW291656  12.985   0.613   4.415
29942SOL     OW91657  13.806  11.801   9.053
29942SOL    HW191658  13.756  11.868   9.007
29942SOL    HW291659  13.829  11.843   9.137
29943SOL     OW91660   2.238   7.149  10.200
29943SOL    HW191661   2.305   7.084  10.218
29943SOL    HW291662   2.286   7.232  10.197
29944SOL     OW91663  11.997   8.791  12.245
29944SOL    HW191664  12.082   8.802  12.287
29944SOL    HW291665  12.000   8.704  12.206
29945SOL     OW91666   5.342   7.809   0.304
29945SOL    HW191667   5.386   7.802   0.219
29945SOL    HW291668   5.303   7.723   0.318
29946SOL     OW91669   5.979   1.134   9.133
29946SOL    HW191670   5.923   1.182   9.194
29946SOL    HW291671   6.009   1.058   9.182
29947SOL     OW91672  10.506  14.591   2.453
29947SOL    HW191673  10.458  14.595   2.371
29947SOL    HW291674  10.458  14.527   2.506
29948SOL     OW91675   6.459   3.936   6.756
29948SOL    HW191676   6.406   3.983   6.821
29948SOL    HW291677   6.456   3.990   6.678
29949SOL     OW91678   3.378   2.568  14.372
29949SOL    HW191679   3.293   2.523  14.372
29949SOL    HW291680   3.355   2.660  14.355
29950SOL     OW91681   5.093   9.575   3.447
29950SOL    HW191682   5.011   9.560   3.493
29950SOL    HW291683   5.138   9.490   3.450
29951SOL     OW91684   0.674   2.261   9.448
29951SOL    HW191685   0.720   2.337   9.412
29951SOL    HW291686   0.683   2.271   9.542
29952SOL     OW91687   4.324   6.472  10.056
29952SOL    HW191688   4.405   6.491  10.010
29952SOL    HW291689   4.311   6.547  10.114
29953SOL     OW91690  12.249   1.730   2.380
29953SOL    HW191691  12.187   1.776   2.324
29953SOL    HW291692  12.321   1.706   2.321
29954SOL     OW91693  13.613   9.032   9.643
29954SOL    HW191694  13.536   9.083   9.620
29954SOL    HW291695  13.580   8.943   9.656
29955SOL     OW91696   4.023   3.233  13.267
29955SOL    HW191697   4.111   3.195  13.266
29955SOL    HW291698   3.984   3.204  13.185
29956SOL     OW91699  14.235   0.479  13.577
29956SOL    HW191700  14.155   0.439  13.611
29956SOL    HW291701  14.304   0.449  13.637
29957SOL     OW91702  13.142   5.756   5.183
29957SOL    HW191703  13.109   5.827   5.128
29957SOL    HW291704  13.063   5.711   5.214
29958SOL     OW91705   6.925  11.434   9.150
29958SOL    HW191706   6.996  11.400   9.205
29958SOL    HW291707   6.878  11.356   9.120
29959SOL     OW91708   1.092   7.010   3.685
29959SOL    HW191709   1.070   7.058   3.765
29959SOL    HW291710   1.050   7.059   3.615
29960SOL     OW91711  10.186   6.869   6.505
29960SOL    HW191712  10.094   6.886   6.485
29960SOL    HW291713  10.202   6.915   6.587
29961SOL     OW91714   5.380   0.384   9.762
29961SOL    HW191715   5.399   0.313   9.701
29961SOL    HW291716   5.286   0.377   9.779
29962SOL     OW91717   4.675  11.382  13.096
29962SOL    HW191718   4.675  11.474  13.070
29962SOL    HW291719   4.641  11.383  13.186
29963SOL     OW91720   8.158  12.114  10.079
29963SOL    HW191721   8.131  12.023  10.072
29963SOL    HW291722   8.094  12.162  10.026
29964SOL     OW91723  13.673   4.020  14.237
29964SOL    HW191724  13.759   4.059  14.250
29964SOL    HW291725  13.679   3.934  14.279
29965SOL     OW91726   7.375   5.092  12.831
29965SOL    HW191727   7.290   5.098  12.788
29965SOL    HW291728   7.372   5.158  12.900
29966SOL     OW91729   4.048  12.563   4.717
29966SOL    HW191730   3.991  12.614   4.659
29966SOL    HW291731   4.134  12.567   4.677
29967SOL     OW91732  14.678  14.121   3.936
29967SOL    HW191733  14.708  14.212   3.930
29967SOL    HW291734  14.752  14.069   3.905
29968SOL     OW91735  14.210  12.216   9.027
29968SOL    HW191736  14.257  12.190   8.948
29968SOL    HW291737  14.260  12.290   9.061
29969SOL     OW91738  14.836   8.802   4.434
29969SOL    HW191739   0.037   8.847   4.424
29969SOL    HW291740  14.826   8.750   4.354
29970SOL     OW91741   3.288   1.395   6.240
29970SOL    HW191742   3.269   1.441   6.159
29970SOL    HW291743   3.217   1.331   6.249
29971SOL     OW91744  12.368   6.362  14.595
29971SOL    HW191745  12.292   6.310  14.622
29971SOL    HW291746  12.360   6.369  14.500
29972SOL     OW91747   5.698  10.279   3.490
29972SOL    HW191748   5.752  10.200   3.488
29972SOL    HW291749   5.692  10.301   3.583
29973SOL     OW91750   0.737   3.041   5.961
29973SOL    HW191751   0.811   2.986   5.936
29973SOL    HW291752   0.773   3.130   5.962
29974SOL     OW91753   7.054  11.192   3.143
29974SOL    HW191754   6.972  11.207   3.097
29974SOL    HW291755   7.105  11.136   3.084
29975SOL     OW91756   2.135  14.675  14.803
29975SOL    HW191757   2.040  14.675  14.799
29975SOL    HW291758   2.156  14.659   0.013
29976SOL     OW91759   3.792   7.565   5.841
29976SOL    HW191760   3.739   7.504   5.790
29976SOL    HW291761   3.878   7.523   5.846
29977SOL     OW91762  13.704   5.031  12.210
29977SOL    HW191763  13.637   4.963  12.208
29977SOL    HW291764  13.774   4.998  12.155
29978SOL     OW91765   1.835  10.840   2.040
29978SOL    HW191766   1.783  10.920   2.045
29978SOL    HW291767   1.923  10.867   2.066
29979SOL     OW91768   9.637   3.986   6.230
29979SOL    HW191769   9.706   3.926   6.259
29979SOL    HW291770   9.579   3.996   6.305
29980SOL     OW91771  14.368  14.641  10.880
29980SOL    HW191772  14.432  14.652  10.950
29980SOL    HW291773  14.394  14.704  10.813
29981SOL     OW91774   4.637   4.710  13.413
29981SOL    HW191775   4.628   4.789  13.467
29981SOL    HW291776   4.714   4.666  13.448
29982SOL     OW91777   4.082   1.333   1.002
29982SOL    HW191778   3.988   1.316   0.992
29982SOL    HW291779   4.101   1.401   0.938
29983SOL     OW91780   7.882   9.448  11.541
29983SOL    HW191781   7.840   9.390  11.603
29983SOL    HW291782   7.973   9.454  11.570
29984SOL     OW91783  12.727  10.395   6.734
29984SOL    HW191784  12.761  10.439   6.811
29984SOL    HW291785  12.768  10.308   6.735
29985SOL     OW91786   2.900   0.251   9.942
29985SOL    HW191787   2.928   0.342   9.928
29985SOL    HW291788   2.938   0.227  10.027
29986SOL     OW91789  11.135   4.626   8.471
29986SOL    HW191790  11.149   4.565   8.544
29986SOL    HW291791  11.090   4.574   8.405
29987SOL     OW91792  14.853  12.119   3.267
29987SOL    HW191793  14.785  12.132   3.201
29987SOL    HW291794  14.858  12.203   3.313
29988SOL     OW91795  13.552   0.303   0.514
29988SOL    HW191796  13.524   0.289   0.424
29988SOL    HW291797  13.595   0.389   0.512
29989SOL     OW91798   4.394   9.501   4.433
29989SOL    HW191799   4.396   9.407   4.415
29989SOL    HW291800   4.312   9.515   4.479
29990SOL     OW91801   3.749   3.289   4.070
29990SOL    HW191802   3.715   3.201   4.086
29990SOL    HW291803   3.790   3.282   3.983
29991SOL     OW91804  12.543  11.580   2.721
29991SOL    HW191805  12.510  11.534   2.798
29991SOL    HW291806  12.607  11.642   2.755
29992SOL     OW91807   5.237   6.080   0.987
29992SOL    HW191808   5.264   5.994   0.954
29992SOL    HW291809   5.216   6.065   1.079
29993SOL     OW91810  13.436  10.906  11.624
29993SOL    HW191811  13.351  10.863  11.618
29993SOL    HW291812  13.488  10.866  11.554
29994SOL     OW91813   6.934   0.178  11.090
29994SOL    HW191814   6.840   0.162  11.093
29994SOL    HW291815   6.956   0.172  10.997
29995SOL     OW91816  11.442   2.771   5.826
29995SOL    HW191817  11.397   2.850   5.799
29995SOL    HW291818  11.460   2.724   5.744
29996SOL     OW91819  10.956   9.069   1.180
29996SOL    HW191820  10.992   9.129   1.245
29996SOL    HW291821  10.940   9.123   1.103
29997SOL     OW91822  11.334  13.646   4.857
29997SOL    HW191823  11.350  13.587   4.931
29997SOL    HW291824  11.282  13.717   4.895
29998SOL     OW91825   5.459   1.051   7.028
29998SOL    HW191826   5.524   0.985   7.050
29998SOL    HW291827   5.466   1.061   6.933
29999SOL     OW91828   8.730  11.559   3.974
29999SOL    HW191829   8.697  11.649   3.982
29999SOL    HW291830   8.824  11.568   3.960
30000SOL     OW91831   5.804   2.742   7.870
30000SOL    HW191832   5.880   2.789   7.906
30000SOL    HW291833   5.769   2.800   7.803
30001SOL     OW91834   6.809  13.537  10.481
30001SOL    HW191835   6.870  13.477  10.438
30001SOL    HW291836   6.730  13.533  10.426
30002SOL     OW91837   1.774  10.008   3.461
30002SOL    HW191838   1.699  10.050   3.504
30002SOL    HW291839   1.734   9.945   3.400
30003SOL     OW91840  11.551   5.742  12.496
30003SOL    HW191841  11.604   5.817  12.521
30003SOL    HW291842  11.543   5.690  12.577
30004SOL     OW91843   4.196  10.067  13.053
30004SOL    HW191844   4.235  10.067  12.966
30004SOL    HW291845   4.190  10.159  13.077
30005SOL     OW91846  14.038  12.772   5.699
30005SOL    HW191847  14.120  12.734   5.730
30005SOL    HW291848  14.034  12.859   5.739
30006SOL     OW91849  11.944  14.428   0.480
30006SOL    HW191850  11.897  14.354   0.441
30006SOL    HW291851  12.032  14.424   0.442
30007SOL     OW91852  10.020   8.449  11.964
30007SOL    HW191853   9.931   8.483  11.960
30007SOL    HW291854  10.034   8.408  11.879
30008SOL     OW91855  10.562   0.304  14.660
30008SOL    HW191856  10.530   0.316  14.570
30008SOL    HW291857  10.585   0.211  14.665
30009SOL     OW91858   6.537   4.890   3.020
30009SOL    HW191859   6.602   4.913   2.954
30009SOL    HW291860   6.569   4.931   3.100
30010SOL     OW91861  10.326   7.820   7.806
30010SOL    HW191862  10.344   7.914   7.816
30010SOL    HW291863  10.231   7.814   7.803
30011SOL     OW91864   1.910  11.422  11.819
30011SOL    HW191865   1.917  11.400  11.726
30011SOL    HW291866   1.999  11.414  11.852
30012SOL     OW91867  10.867   3.338   0.656
30012SOL    HW191868  10.775   3.355   0.676
30012SOL    HW291869  10.886   3.253   0.696
30013SOL     OW91870   3.466  13.316   7.341
30013SOL    HW191871   3.382  13.300   7.383
30013SOL    HW291872   3.445  13.325   7.248
30014SOL     OW91873   2.847   8.761   5.581
30014SOL    HW191874   2.825   8.686   5.636
30014SOL    HW291875   2.767   8.815   5.581
30015SOL     OW91876   3.553   0.011   4.041
30015SOL    HW191877   3.495  14.821   4.065
30015SOL    HW291878   3.562   0.004   3.946
30016SOL     OW91879   8.277   4.184   1.433
30016SOL    HW191880   8.364   4.166   1.469
30016SOL    HW291881   8.224   4.207   1.509
30017SOL     OW91882   1.921  10.348   4.362
30017SOL    HW191883   1.956  10.437   4.371
30017SOL    HW291884   1.990  10.299   4.317
30018SOL     OW91885  13.164  13.550   0.770
30018SOL    HW191886  13.137  13.614   0.835
30018SOL    HW291887  13.099  13.556   0.701
30019SOL     OW91888   7.710   2.302   7.669
30019SOL    HW191889   7.654   2.247   7.614
30019SOL    HW291890   7.772   2.241   7.708
30020SOL     OW91891  10.877  13.459   5.592
30020SOL    HW191892  10.888  13.479   5.685
30020SOL    HW291893  10.863  13.365   5.589
30021SOL     OW91894  14.403  14.238   6.352
30021SOL    HW191895  14.308  14.250   6.350
30021SOL    HW291896  14.439  14.324   6.332
30022SOL     OW91897  13.721  11.295  12.318
30022SOL    HW191898  13.749  11.205  12.338
30022SOL    HW291899  13.796  11.334  12.274
30023SOL     OW91900   2.735   5.631   3.941
30023SOL    HW191901   2.690   5.672   4.015
30023SOL    HW291902   2.796   5.698   3.910
30024SOL     OW91903  11.960   3.420   6.490
30024SOL    HW191904  11.940   3.426   6.583
30024SOL    HW291905  12.047   3.458   6.482
30025SOL     OW91906  11.679   8.739   9.751
30025SOL    HW191907  11.654   8.808   9.690
30025SOL    HW291908  11.710   8.668   9.695
30026SOL     OW91909   4.025  14.375   8.577
30026SOL    HW191910   3.931  14.376   8.555
30026SOL    HW291911   4.054  14.288   8.548
30027SOL     OW91912  14.293   5.116  10.004
30027SOL    HW191913  14.286   5.109   9.909
30027SOL    HW291914  14.337   5.035  10.031
30028SOL     OW91915  12.894   5.137  14.346
30028SOL    HW191916  12.949   5.070  14.307
30028SOL    HW291917  12.806   5.100  14.346
30029SOL     OW91918  13.448   6.480  14.688
30029SOL    HW191919  13.363   6.516  14.715
30029SOL    HW291920  13.469   6.527  14.607
30030SOL     OW91921  13.094   3.166   5.749
30030SOL    HW191922  13.069   3.247   5.794
30030SOL    HW291923  13.187   3.156   5.768
30031SOL     OW91924   9.160   0.399   1.584
30031SOL    HW191925   9.071   0.434   1.571
30031SOL    HW291926   9.150   0.305   1.570
30032SOL     OW91927   4.228   9.153   9.266
30032SOL    HW191928   4.249   9.193   9.182
30032SOL    HW291929   4.274   9.069   9.265
30033SOL     OW91930  13.691   0.695   4.976
30033SOL    HW191931  13.721   0.604   4.971
30033SOL    HW291932  13.772   0.746   4.985
30034SOL     OW91933  11.274  13.055   9.871
30034SOL    HW191934  11.234  13.128   9.919
30034SOL    HW291935  11.266  13.081   9.779
30035SOL     OW91936   0.317   3.205  14.755
30035SOL    HW191937   0.368   3.125  14.766
30035SOL    HW291938   0.374   3.275  14.787
30036SOL     OW91939   3.027   6.649   9.507
30036SOL    HW191940   2.985   6.598   9.576
30036SOL    HW291941   3.098   6.593   9.476
30037SOL     OW91942   7.882   1.809   4.251
30037SOL    HW191943   7.953   1.794   4.314
30037SOL    HW291944   7.838   1.724   4.244
30038SOL     OW91945   4.585  14.494   7.682
30038SOL    HW191946   4.650  14.529   7.744
30038SOL    HW291947   4.504  14.541   7.703
30039SOL     OW91948   0.409  11.832   8.864
30039SOL    HW191949   0.428  11.925   8.850
30039SOL    HW291950   0.389  11.798   8.776
30040SOL     OW91951  11.181  13.753  12.998
30040SOL    HW191952  11.142  13.673  12.961
30040SOL    HW291953  11.249  13.721  13.057
30041SOL     OW91954   0.947   8.305   6.675
30041SOL    HW191955   0.856   8.277   6.667
30041SOL    HW291956   0.941   8.400   6.687
30042SOL     OW91957  14.370   2.905   1.583
30042SOL    HW191958  14.396   2.948   1.501
30042SOL    HW291959  14.451   2.865   1.615
30043SOL     OW91960   7.808   3.084  11.810
30043SOL    HW191961   7.782   3.071  11.901
30043SOL    HW291962   7.855   3.004  11.786
30044SOL     OW91963   5.939   8.733   1.116
30044SOL    HW191964   5.942   8.826   1.094
30044SOL    HW291965   6.030   8.704   1.111
30045SOL     OW91966   2.505   5.497   8.472
30045SOL    HW191967   2.439   5.550   8.428
30045SOL    HW291968   2.547   5.447   8.402
30046SOL     OW91969   1.664   6.061   8.827
30046SOL    HW191970   1.717   6.134   8.796
30046SOL    HW291971   1.710   6.029   8.905
30047SOL     OW91972   1.324  12.860   6.579
30047SOL    HW191973   1.376  12.908   6.643
30047SOL    HW291974   1.329  12.913   6.500
30048SOL     OW91975   5.803  10.060  10.629
30048SOL    HW191976   5.870  10.067  10.698
30048SOL    HW291977   5.847  10.015  10.557
30049SOL     OW91978  14.243   9.446  11.514
30049SOL    HW191979  14.184   9.391  11.464
30049SOL    HW291980  14.240   9.412  11.603
30050SOL     OW91981   3.430   1.010  13.422
30050SOL    HW191982   3.457   1.044  13.507
30050SOL    HW291983   3.488   0.936  13.406
30051SOL     OW91984   1.550   8.082   3.600
30051SOL    HW191985   1.517   7.994   3.580
30051SOL    HW291986   1.602   8.071   3.679
30052SOL     OW91987   6.484  12.590   3.009
30052SOL    HW191988   6.568  12.582   3.053
30052SOL    HW291989   6.474  12.508   2.961
30053SOL     OW91990  13.066  12.179  12.136
30053SOL    HW191991  13.076  12.093  12.175
30053SOL    HW291992  13.077  12.165  12.042
30054SOL     OW91993   1.288   3.950   5.569
30054SOL    HW191994   1.258   3.907   5.489
30054SOL    HW291995   1.349   4.017   5.539
30055SOL     OW91996   2.066  11.117   1.475
30055SOL    HW191997   1.972  11.098   1.483
30055SOL    HW291998   2.070  11.210   1.454
30056SOL     OW91999   3.623   6.943   0.092
30056SOL    HW192000   3.675   6.972   0.017
30056SOL    HW292001   3.547   7.001   0.093
30057SOL     OW92002  14.569   0.930   9.605
30057SOL    HW192003  14.554   0.980   9.686
30057SOL    HW292004  14.485   0.888   9.588
30058SOL     OW92005  14.457   0.769   2.942
30058SOL    HW192006  14.408   0.840   2.900
30058SOL    HW292007  14.437   0.691   2.891
30059SOL     OW92008  13.124  13.979  13.081
30059SOL    HW192009  13.103  14.069  13.057
30059SOL    HW292010  13.178  13.988  13.160
30060SOL     OW92011   0.942  14.024   7.173
30060SOL    HW192012   0.972  13.945   7.219
30060SOL    HW292013   0.942  13.999   7.081
30061SOL     OW92014   0.024  14.668   4.729
30061SOL    HW192015  14.845  14.674   4.803
30061SOL    HW292016   0.099  14.721   4.756
30062SOL     OW92017  12.987  13.245   5.035
30062SOL    HW192018  12.947  13.294   5.107
30062SOL    HW292019  12.941  13.274   4.957
30063SOL     OW92020  10.801   8.861  13.536
30063SOL    HW192021  10.797   8.851  13.441
30063SOL    HW292022  10.849   8.784  13.566
30064SOL     OW92023  10.905  12.222   5.445
30064SOL    HW192024  10.970  12.242   5.512
30064SOL    HW292025  10.853  12.303   5.438
30065SOL     OW92026  10.085   9.867   2.307
30065SOL    HW192027  10.004   9.918   2.307
30065SOL    HW292028  10.151   9.926   2.341
30066SOL     OW92029   2.196   7.791   9.052
30066SOL    HW192030   2.101   7.784   9.059
30066SOL    HW292031   2.213   7.803   8.959
30067SOL     OW92032  14.173  11.377  14.297
30067SOL    HW192033  14.237  11.307  14.300
30067SOL    HW292034  14.181  11.413  14.208
30068SOL     OW92035  10.435   9.865  14.004
30068SOL    HW192036  10.501   9.862  13.934
30068SOL    HW292037  10.423   9.959  14.021
30069SOL     OW92038  12.479   8.105   4.092
30069SOL    HW192039  12.445   8.191   4.118
30069SOL    HW292040  12.567   8.102   4.131
30070SOL     OW92041   0.532   7.561   9.659
30070SOL    HW192042   0.437   7.555   9.656
30070SOL    HW292043   0.555   7.537   9.749
30071SOL     OW92044  13.238   5.546   0.564
30071SOL    HW192045  13.190   5.622   0.531
30071SOL    HW292046  13.214   5.540   0.656
30072SOL     OW92047  14.767   9.857   1.375
30072SOL    HW192048  14.739   9.766   1.381
30072SOL    HW292049  14.746   9.882   1.285
30073SOL     OW92050   2.394   3.490   4.445
30073SOL    HW192051   2.344   3.536   4.513
30073SOL    HW292052   2.412   3.404   4.483
30074SOL     OW92053  11.196   7.095   6.542
30074SOL    HW192054  11.187   7.006   6.509
30074SOL    HW292055  11.185   7.151   6.465
30075SOL     OW92056   1.888   7.931   6.957
30075SOL    HW192057   1.936   7.897   6.881
30075SOL    HW292058   1.827   7.862   6.980
30076SOL     OW92059   0.064  13.719  11.124
30076SOL    HW192060   0.101  13.677  11.201
30076SOL    HW292061  14.852  13.721  11.141
30077SOL     OW92062   6.631   4.146  11.629
30077SOL    HW192063   6.542   4.156  11.664
30077SOL    HW292064   6.655   4.057  11.655
30078SOL     OW92065   5.603   4.223  11.162
30078SOL    HW192066   5.676   4.285  11.151
30078SOL    HW292067   5.643   4.147  11.205
30079SOL     OW92068   2.127   9.340   3.700
30079SOL    HW192069   2.057   9.334   3.634
30079SOL    HW292070   2.112   9.424   3.743
30080SOL     OW92071   9.257   7.983  13.180
30080SOL    HW192072   9.263   7.938  13.264
30080SOL    HW292073   9.322   7.940  13.125
30081SOL     OW92074  13.819  11.413   9.627
30081SOL    HW192075  13.804  11.482   9.561
30081SOL    HW292076  13.751  11.427   9.692
30082SOL     OW92077   4.855   8.904   1.299
30082SOL    HW192078   4.924   8.848   1.263
30082SOL    HW292079   4.774   8.859   1.276
30083SOL     OW92080   0.170   4.168   8.669
30083SOL    HW192081   0.236   4.236   8.657
30083SOL    HW292082   0.088   4.215   8.682
30084SOL     OW92083   7.356  12.732  14.865
30084SOL    HW192084   7.279  12.679   0.002
30084SOL    HW292085   7.430  12.679   0.014
30085SOL     OW92086   5.036   8.143   4.980
30085SOL    HW192087   5.065   8.229   4.951
30085SOL    HW292088   5.022   8.152   5.074
30086SOL     OW92089   8.452   6.735  10.067
30086SOL    HW192090   8.537   6.744  10.109
30086SOL    HW292091   8.471   6.734   9.974
30087SOL     OW92092   3.525  10.426  11.729
30087SOL    HW192093   3.583  10.353  11.709
30087SOL    HW292094   3.437  10.393  11.710
30088SOL     OW92095   0.767   6.389   7.765
30088SOL    HW192096   0.743   6.358   7.678
30088SOL    HW292097   0.861   6.371   7.771
30089SOL     OW92098   0.181   9.282   9.689
30089SOL    HW192099   0.180   9.264   9.595
30089SOL    HW292100   0.099   9.330   9.705
30090SOL     OW92101   1.107   0.570  13.199
30090SOL    HW192102   1.182   0.629  13.200
30090SOL    HW292103   1.143   0.485  13.173
30091SOL     OW92104  11.744  13.076  10.886
30091SOL    HW192105  11.759  13.166  10.916
30091SOL    HW292106  11.831  13.044  10.862
30092SOL     OW92107  10.702   5.782  11.500
30092SOL    HW192108  10.740   5.790  11.587
30092SOL    HW292109  10.609   5.764  11.516
30093SOL     OW92110   3.106   0.763  12.729
30093SOL    HW192111   3.154   0.770  12.646
30093SOL    HW292112   3.174   0.763  12.796
30094SOL     OW92113   9.661   0.018   1.096
30094SOL    HW192114   9.714  14.848   1.036
30094SOL    HW292115   9.616  14.835   1.151
30095SOL     OW92116   2.861  13.339  13.758
30095SOL    HW192117   2.869  13.253  13.716
30095SOL    HW292118   2.767  13.350  13.772
30096SOL     OW92119  12.431   4.171   6.445
30096SOL    HW192120  12.460   4.190   6.355
30096SOL    HW292121  12.337   4.156   6.437
30097SOL     OW92122   4.896  13.409   6.745
30097SOL    HW192123   4.806  13.430   6.768
30097SOL    HW292124   4.950  13.454   6.810
30098SOL     OW92125   7.020   8.892   6.768
30098SOL    HW192126   6.971   8.817   6.804
30098SOL    HW292127   6.952   8.956   6.746
30099SOL     OW92128   7.870   4.435   0.867
30099SOL    HW192129   7.881   4.485   0.947
30099SOL    HW292130   7.945   4.376   0.864
30100SOL     OW92131   1.500   2.771  11.373
30100SOL    HW192132   1.464   2.682  11.365
30100SOL    HW292133   1.446   2.813  11.439
30101SOL     OW92134   0.056  10.991   1.088
30101SOL    HW192135  14.876  10.918   1.078
30101SOL    HW292136   0.116  10.962   1.157
30102SOL     OW92137   0.270   0.120   5.945
30102SOL    HW192138   0.351   0.080   5.913
30102SOL    HW292139   0.283   0.214   5.933
30103SOL     OW92140   8.965   5.812   3.218
30103SOL    HW192141   8.950   5.901   3.249
30103SOL    HW292142   8.918   5.757   3.280
30104SOL     OW92143   4.994   0.938   7.666
30104SOL    HW192144   5.077   0.971   7.631
30104SOL    HW292145   4.928   0.965   7.602
30105SOL     OW92146   1.186   2.655  14.173
30105SOL    HW192147   1.193   2.600  14.251
30105SOL    HW292148   1.220   2.602  14.102
30106SOL     OW92149   5.384   0.564  13.197
30106SOL    HW192150   5.471   0.557  13.237
30106SOL    HW292151   5.323   0.562  13.271
30107SOL     OW92152  12.705   2.868   5.690
30107SOL    HW192153  12.745   2.955   5.692
30107SOL    HW292154  12.629   2.874   5.748
30108SOL     OW92155  10.812   8.122   7.019
30108SOL    HW192156  10.719   8.128   6.997
30108SOL    HW292157  10.815   8.064   7.095
30109SOL     OW92158   4.318  14.139  10.447
30109SOL    HW192159   4.341  14.199  10.376
30109SOL    HW292160   4.310  14.195  10.524
30110SOL     OW92161   4.117   6.620   5.062
30110SOL    HW192162   4.087   6.541   5.017
30110SOL    HW292163   4.188   6.591   5.118
30111SOL     OW92164   7.966  10.446   6.343
30111SOL    HW192165   7.921  10.434   6.427
30111SOL    HW292166   8.059  10.435   6.363
30112SOL     OW92167   1.926   0.607   9.616
30112SOL    HW192168   1.905   0.648   9.533
30112SOL    HW292169   1.842   0.603   9.663
30113SOL     OW92170   9.017  11.081   0.042
30113SOL    HW192171   9.000  10.999  14.879
30113SOL    HW292172   9.107  11.103   0.018
30114SOL     OW92173   9.027   3.412   7.034
30114SOL    HW192174   8.970   3.473   7.082
30114SOL    HW292175   9.047   3.343   7.097
30115SOL     OW92176   7.467   1.680  11.922
30115SOL    HW192177   7.527   1.606  11.935
30115SOL    HW292178   7.493   1.717  11.837
30116SOL     OW92179   8.553  14.316   0.530
30116SOL    HW192180   8.471  14.303   0.578
30116SOL    HW292181   8.556  14.243   0.468
30117SOL     OW92182  12.308   5.627   9.746
30117SOL    HW192183  12.398   5.626   9.715
30117SOL    HW292184  12.310   5.578   9.828
30118SOL     OW92185   2.019   1.947   6.479
30118SOL    HW192186   1.955   1.905   6.421
30118SOL    HW292187   1.990   2.038   6.485
30119SOL     OW92188   0.058   0.053   0.169
30119SOL    HW192189  14.871  14.869   0.154
30119SOL    HW292190   0.073   0.051   0.263
30120SOL     OW92191   4.161   3.246  12.491
30120SOL    HW192192   4.122   3.260  12.578
30120SOL    HW292193   4.180   3.152  12.489
30121SOL     OW92194   1.794   0.576   5.552
30121SOL    HW192195   1.803   0.563   5.646
30121SOL    HW292196   1.700   0.566   5.535
30122SOL     OW92197   6.237   8.718  11.568
30122SOL    HW192198   6.228   8.626  11.543
30122SOL    HW292199   6.221   8.720  11.662
30123SOL     OW92200   3.248  12.778   7.288
30123SOL    HW192201   3.244  12.830   7.369
30123SOL    HW292202   3.297  12.700   7.312
30124SOL     OW92203  13.089   0.184  14.867
30124SOL    HW192204  13.145   0.130  14.813
30124SOL    HW292205  13.148   0.223   0.050
30125SOL     OW92206   3.445  14.179   0.751
30125SOL    HW192207   3.387  14.139   0.816
30125SOL    HW292208   3.388  14.237   0.701
30126SOL     OW92209  14.705   3.353   5.276
30126SOL    HW192210  14.616   3.336   5.245
30126SOL    HW292211  14.735   3.269   5.311
30127SOL     OW92212   4.274  10.184  12.347
30127SOL    HW192213   4.248  10.227  12.266
30127SOL    HW292214   4.353  10.231  12.375
30128SOL     OW92215   3.786  14.399  11.199
30128SOL    HW192216   3.714  14.384  11.137
30128SOL    HW292217   3.744  14.393  11.285
30129SOL     OW92218   8.012   5.028  13.193
30129SOL    HW192219   7.917   5.021  13.200
30129SOL    HW292220   8.027   5.116  13.159
30130SOL     OW92221  12.917  11.851   6.469
30130SOL    HW192222  12.976  11.921   6.497
30130SOL    HW292223  12.830  11.891   6.470
30131SOL     OW92224  13.489  10.803   7.232
30131SOL    HW192225  13.500  10.730   7.291
30131SOL    HW292226  13.504  10.881   7.286
30132SOL     OW92227   7.976  11.242   7.544
30132SOL    HW192228   8.051  11.298   7.565
30132SOL    HW292229   7.911  11.266   7.610
30133SOL     OW92230   9.022  13.744  10.585
30133SOL    HW192231   9.092  13.765  10.523
30133SOL    HW292232   8.965  13.684  10.538
30134SOL     OW92233   1.712   6.206   3.789
30134SOL    HW192234   1.735   6.255   3.868
30134SOL    HW292235   1.673   6.271   3.731
30135SOL     OW92236  10.873   1.760   7.629
30135SOL    HW192237  10.812   1.797   7.692
30135SOL    HW292238  10.915   1.688   7.676
30136SOL     OW92239  13.216   3.485   5.481
30136SOL    HW192240  13.248   3.437   5.558
30136SOL    HW292241  13.262   3.569   5.484
30137SOL     OW92242   4.098  12.042   3.926
30137SOL    HW192243   4.055  12.081   4.003
30137SOL    HW292244   4.137  12.116   3.881
30138SOL     OW92245   1.592   4.623  11.208
30138SOL    HW192246   1.612   4.622  11.114
30138SOL    HW292247   1.549   4.539  11.224
30139SOL     OW92248  12.877   7.235   3.329
30139SOL    HW192249  12.902   7.273   3.413
30139SOL    HW292250  12.822   7.160   3.351
30140SOL     OW92251   1.182   6.740  11.202
30140SOL    HW192252   1.112   6.714  11.261
30140SOL    HW292253   1.157   6.827  11.172
30141SOL     OW92254   1.467  10.262  13.015
30141SOL    HW192255   1.428  10.189  12.967
30141SOL    HW292256   1.528  10.301  12.953
30142SOL     OW92257   5.679  10.373   5.044
30142SOL    HW192258   5.716  10.425   5.115
30142SOL    HW292259   5.736  10.296   5.039
30143SOL     OW92260   4.757   3.101  13.431
30143SOL    HW192261   4.815   3.159  13.482
30143SOL    HW292262   4.669   3.125  13.459
30144SOL     OW92263   3.240   7.695   5.032
30144SOL    HW192264   3.158   7.699   5.081
30144SOL    HW292265   3.304   7.661   5.094
30145SOL     OW92266   2.113   9.255   4.245
30145SOL    HW192267   2.060   9.183   4.279
30145SOL    HW292268   2.174   9.275   4.316
30146SOL     OW92269   2.888   9.747   0.864
30146SOL    HW192270   2.911   9.772   0.954
30146SOL    HW292271   2.804   9.702   0.872
30147SOL     OW92272  10.158  11.770   1.903
30147SOL    HW192273  10.169  11.834   1.832
30147SOL    HW292274  10.247  11.754   1.935
30148SOL     OW92275  10.008  12.869  12.718
30148SOL    HW192276  10.018  12.943  12.659
30148SOL    HW292277  10.042  12.900  12.802
30149SOL     OW92278  10.424  14.787   0.802
30149SOL    HW192279  10.338  14.744   0.796
30149SOL    HW292280  10.445  14.811   0.712
30150SOL     OW92281   8.706   9.465   2.233
30150SOL    HW192282   8.628   9.412   2.218
30150SOL    HW292283   8.724   9.456   2.327
30151SOL     OW92284  11.381   1.618   8.207
30151SOL    HW192285  11.438   1.692   8.185
30151SOL    HW292286  11.339   1.644   8.289
30152SOL     OW92287  11.377   5.194  14.133
30152SOL    HW192288  11.456   5.227  14.177
30152SOL    HW292289  11.401   5.192  14.040
30153SOL     OW92290  11.827  10.018  11.876
30153SOL    HW192291  11.840   9.942  11.933
30153SOL    HW292292  11.875  10.088  11.920
30154SOL     OW92293  12.540  13.360   1.604
30154SOL    HW192294  12.480  13.367   1.678
30154SOL    HW292295  12.485  13.330   1.531
30155SOL     OW92296   5.998   7.997  13.725
30155SOL    HW192297   5.979   7.945  13.803
30155SOL    HW292298   5.913   8.014  13.686
30156SOL     OW92299   9.686   3.628   0.824
30156SOL    HW192300   9.726   3.670   0.900
30156SOL    HW292301   9.657   3.701   0.769
30157SOL     OW92302   0.979   9.806   0.033
30157SOL    HW192303   1.030   9.726   0.044
30157SOL    HW292304   1.035   9.863  14.863
30158SOL     OW92305  11.568   9.019  10.999
30158SOL    HW192306  11.627   8.999  10.926
30158SOL    HW292307  11.532   9.105  10.978
30159SOL     OW92308   7.158   8.327  11.919
30159SOL    HW192309   7.093   8.262  11.944
30159SOL    HW292310   7.117   8.377  11.849
30160SOL     OW92311   3.042   8.772  12.600
30160SOL    HW192312   2.966   8.758  12.544
30160SOL    HW292313   3.069   8.684  12.627
30161SOL     OW92314   6.324  14.148   3.725
30161SOL    HW192315   6.394  14.145   3.790
30161SOL    HW292316   6.344  14.225   3.671
30162SOL     OW92317  12.267  14.075  12.772
30162SOL    HW192318  12.286  14.039  12.685
30162SOL    HW292319  12.271  14.170  12.760
30163SOL     OW92320   5.609  13.659   2.227
30163SOL    HW192321   5.665  13.582   2.215
30163SOL    HW292322   5.655  13.711   2.293
30164SOL     OW92323  10.537  10.534  11.813
30164SOL    HW192324  10.623  10.571  11.793
30164SOL    HW292325  10.497  10.596  11.874
30165SOL     OW92326   0.927  11.332   5.589
30165SOL    HW192327   0.970  11.412   5.558
30165SOL    HW292328   0.893  11.291   5.509
30166SOL     OW92329  10.713   3.429   6.254
30166SOL    HW192330  10.750   3.425   6.342
30166SOL    HW292331  10.785   3.400   6.197
30167SOL     OW92332  12.176   0.362  14.131
30167SOL    HW192333  12.186   0.438  14.075
30167SOL    HW292334  12.224   0.292  14.087
30168SOL     OW92335   4.788   3.820   2.169
30168SOL    HW192336   4.715   3.774   2.209
30168SOL    HW292337   4.749   3.896   2.127
30169SOL     OW92338   5.429   8.458   6.688
30169SOL    HW192339   5.515   8.424   6.712
30169SOL    HW292340   5.437   8.478   6.595
30170SOL     OW92341   8.182   7.234   8.816
30170SOL    HW192342   8.275   7.228   8.796
30170SOL    HW292343   8.138   7.232   8.731
30171SOL     OW92344   9.139   4.938  14.327
30171SOL    HW192345   9.219   4.886  14.331
30171SOL    HW292346   9.110   4.930  14.236
30172SOL     OW92347   1.688  11.914  11.677
30172SOL    HW192348   1.623  11.964  11.726
30172SOL    HW292349   1.697  11.832  11.725
30173SOL     OW92350  12.978   8.171  13.462
30173SOL    HW192351  12.934   8.255  13.450
30173SOL    HW292352  13.049   8.171  13.398
30174SOL     OW92353   3.260   1.287   4.928
30174SOL    HW192354   3.292   1.284   4.838
30174SOL    HW292355   3.242   1.380   4.944
30175SOL     OW92356   5.062  11.696   6.806
30175SOL    HW192357   5.104  11.644   6.875
30175SOL    HW292358   4.984  11.731   6.847
30176SOL     OW92359   2.015   2.086   5.171
30176SOL    HW192360   1.973   2.043   5.246
30176SOL    HW292361   2.095   2.037   5.156
30177SOL     OW92362   9.799   5.296   2.528
30177SOL    HW192363   9.857   5.371   2.523
30177SOL    HW292364   9.710   5.333   2.523
30178SOL     OW92365   8.956   4.116   8.477
30178SOL    HW192366   9.005   4.034   8.486
30178SOL    HW292367   9.013   4.174   8.427
30179SOL     OW92368   6.015  11.984   8.672
30179SOL    HW192369   5.985  12.015   8.758
30179SOL    HW292370   6.111  11.987   8.678
30180SOL     OW92371   3.900   7.728   7.881
30180SOL    HW192372   3.924   7.815   7.848
30180SOL    HW292373   3.830   7.745   7.943
30181SOL     OW92374  13.343   6.921  14.448
30181SOL    HW192375  13.306   6.860  14.385
30181SOL    HW292376  13.280   6.993  14.452
30182SOL     OW92377   4.951   8.742   6.625
30182SOL    HW192378   4.968   8.763   6.717
30182SOL    HW292379   4.873   8.687   6.627
30183SOL     OW92380   7.329  14.221   6.478
30183SOL    HW192381   7.248  14.185   6.516
30183SOL    HW292382   7.338  14.307   6.519
30184SOL     OW92383   2.477   7.324   3.984
30184SOL    HW192384   2.573   7.326   3.977
30184SOL    HW292385   2.461   7.287   4.071
30185SOL     OW92386  11.410  14.408   9.650
30185SOL    HW192387  11.392  14.358   9.570
30185SOL    HW292388  11.428  14.342   9.716
30186SOL     OW92389   6.341   1.737   4.457
30186SOL    HW192390   6.334   1.770   4.368
30186SOL    HW292391   6.431   1.707   4.464
30187SOL     OW92392   5.244   9.097   3.755
30187SOL    HW192393   5.306   9.024   3.765
30187SOL    HW292394   5.160   9.061   3.784
30188SOL     OW92395   3.225  13.831   7.351
30188SOL    HW192396   3.317  13.855   7.349
30188SOL    HW292397   3.217  13.768   7.423
30189SOL     OW92398   5.451   8.018   6.153
30189SOL    HW192399   5.494   7.936   6.128
30189SOL    HW292400   5.522   8.083   6.151
30190SOL     OW92401  10.121   0.471   9.472
30190SOL    HW192402  10.161   0.529   9.407
30190SOL    HW292403  10.195   0.439   9.524
30191SOL     OW92404  14.137  10.416  11.886
30191SOL    HW192405  14.116  10.436  11.977
30191SOL    HW292406  14.191  10.489  11.857
30192SOL     OW92407   3.885   9.842   6.360
30192SOL    HW192408   3.981   9.842   6.349
30192SOL    HW292409   3.870   9.788   6.437
30193SOL     OW92410   1.419   5.096   3.847
30193SOL    HW192411   1.489   5.145   3.889
30193SOL    HW292412   1.366   5.162   3.802
30194SOL     OW92413   2.526   6.216   0.630
30194SOL    HW192414   2.618   6.191   0.617
30194SOL    HW292415   2.508   6.276   0.558
30195SOL     OW92416   9.456   1.210  11.228
30195SOL    HW192417   9.506   1.207  11.147
30195SOL    HW292418   9.489   1.136  11.279
30196SOL     OW92419   6.113   4.910   0.722
30196SOL    HW192420   6.061   4.880   0.796
30196SOL    HW292421   6.057   4.894   0.646
30197SOL     OW92422  10.745   8.440   0.705
30197SOL    HW192423  10.760   8.522   0.754
30197SOL    HW292424  10.705   8.381   0.768
30198SOL     OW92425   5.001   9.128   5.396
30198SOL    HW192426   4.978   9.036   5.410
30198SOL    HW292427   4.956   9.175   5.466
30199SOL     OW92428   7.162  13.326  13.152
30199SOL    HW192429   7.148  13.243  13.107
30199SOL    HW292430   7.081  13.375  13.138
30200SOL     OW92431   4.120  11.983   5.602
30200SOL    HW192432   4.094  11.947   5.687
30200SOL    HW292433   4.146  12.074   5.622
30201SOL     OW92434  13.819  13.710  14.038
30201SOL    HW192435  13.823  13.759  13.956
30201SOL    HW292436  13.727  13.685  14.047
30202SOL     OW92437  14.397   8.505   0.086
30202SOL    HW192438  14.314   8.488   0.040
30202SOL    HW292439  14.462   8.511   0.017
30203SOL     OW92440   1.794   5.164  12.732
30203SOL    HW192441   1.886   5.189  12.737
30203SOL    HW292442   1.763   5.201  12.650
30204SOL     OW92443  12.921   4.257   8.958
30204SOL    HW192444  12.862   4.331   8.942
30204SOL    HW292445  13.008   4.295   8.954
30205SOL     OW92446   8.847  11.931   9.467
30205SOL    HW192447   8.823  11.871   9.397
30205SOL    HW292448   8.774  11.928   9.528
30206SOL     OW92449   7.742   7.105   6.869
30206SOL    HW192450   7.663   7.093   6.817
30206SOL    HW292451   7.798   7.031   6.846
30207SOL     OW92452   4.611  11.438   2.555
30207SOL    HW192453   4.628  11.362   2.499
30207SOL    HW292454   4.549  11.491   2.505
30208SOL     OW92455   0.282   4.337  13.649
30208SOL    HW192456   0.229   4.403  13.694
30208SOL    HW292457   0.222   4.265  13.632
30209SOL     OW92458  13.440   6.425   0.623
30209SOL    HW192459  13.410   6.388   0.706
30209SOL    HW292460  13.454   6.349   0.566
30210SOL     OW92461   9.194   6.528   0.947
30210SOL    HW192462   9.259   6.461   0.926
30210SOL    HW292463   9.186   6.580   0.866
30211SOL     OW92464  12.751  10.929  10.273
30211SOL    HW192465  12.706  10.850  10.303
30211SOL    HW292466  12.794  10.963  10.352
30212SOL     OW92467  12.278  13.626   9.942
30212SOL    HW192468  12.212  13.597   9.879
30212SOL    HW292469  12.294  13.717   9.919
30213SOL     OW92470  11.141   3.896  12.100
30213SOL    HW192471  11.056   3.888  12.058
30213SOL    HW292472  11.165   3.988  12.088
30214SOL     OW92473  12.724   0.260   8.775
30214SOL    HW192474  12.734   0.302   8.861
30214SOL    HW292475  12.681   0.176   8.794
30215SOL     OW92476   4.532   3.443   5.637
30215SOL    HW192477   4.585   3.388   5.580
30215SOL    HW292478   4.533   3.400   5.722
30216SOL     OW92479  13.350   9.479   5.271
30216SOL    HW192480  13.379   9.560   5.229
30216SOL    HW292481  13.430   9.427   5.281
30217SOL     OW92482   8.862   9.652  14.827
30217SOL    HW192483   8.928   9.587  14.804
30217SOL    HW292484   8.788   9.633  14.769
30218SOL     OW92485   8.976   4.712   1.366
30218SOL    HW192486   9.066   4.691   1.388
30218SOL    HW292487   8.982   4.778   1.297
30219SOL     OW92488   6.013  13.096   9.512
30219SOL    HW192489   6.099  13.100   9.469
30219SOL    HW292490   6.016  13.168   9.576
30220SOL     OW92491   0.738  12.632   0.303
30220SOL    HW192492   0.738  12.559   0.242
30220SOL    HW292493   0.651  12.631   0.343
30221SOL     OW92494   6.348   6.764   1.863
30221SOL    HW192495   6.340   6.860   1.860
30221SOL    HW292496   6.290   6.737   1.934
30222SOL     OW92497   4.143  10.074   6.498
30222SOL    HW192498   4.105   9.987   6.513
30222SOL    HW292499   4.216  10.058   6.438
30223SOL     OW92500   6.928   1.633  11.207
30223SOL    HW192501   6.902   1.640  11.299
30223SOL    HW292502   6.903   1.544  11.181
30224SOL     OW92503   3.528   1.398  13.632
30224SOL    HW192504   3.612   1.356  13.615
30224SOL    HW292505   3.534   1.428  13.723
30225SOL     OW92506   3.826   2.988   7.184
30225SOL    HW192507   3.886   3.049   7.227
30225SOL    HW292508   3.761   2.968   7.252
30226SOL     OW92509   1.009   5.567   9.001
30226SOL    HW192510   0.970   5.631   9.061
30226SOL    HW292511   0.942   5.553   8.934
30227SOL     OW92512  10.739   2.058   8.238
30227SOL    HW192513  10.742   1.975   8.192
30227SOL    HW292514  10.829   2.091   8.234
30228SOL     OW92515   5.786   0.624  13.404
30228SOL    HW192516   5.739   0.677  13.339
30228SOL    HW292517   5.868   0.672  13.419
30229SOL     OW92518  12.524   9.266   5.551
30229SOL    HW192519  12.572   9.184   5.536
30229SOL    HW292520  12.471   9.277   5.472
30230SOL     OW92521  13.991  11.550   0.393
30230SOL    HW192522  13.964  11.473   0.443
30230SOL    HW292523  14.086  11.542   0.386
30231SOL     OW92524   4.999   1.170   3.532
30231SOL    HW192525   4.919   1.146   3.485
30231SOL    HW292526   4.976   1.160   3.624
30232SOL     OW92527   7.429  14.250   5.102
30232SOL    HW192528   7.408  14.275   5.192
30232SOL    HW292529   7.436  14.155   5.105
30233SOL     OW92530   7.586  10.985   7.181
30233SOL    HW192531   7.622  11.012   7.097
30233SOL    HW292532   7.662  10.965   7.236
30234SOL     OW92533   3.945  14.072  14.248
30234SOL    HW192534   3.993  14.017  14.185
30234SOL    HW292535   3.856  14.038  14.245
30235SOL     OW92536   8.510   8.609  14.552
30235SOL    HW192537   8.544   8.595  14.640
30235SOL    HW292538   8.562   8.681  14.517
30236SOL     OW92539  10.725  14.824  12.015
30236SOL    HW192540  10.635  14.856  12.025
30236SOL    HW292541  10.730  14.795  11.925
30237SOL     OW92542   1.453   0.395   3.878
30237SOL    HW192543   1.511   0.363   3.947
30237SOL    HW292544   1.451   0.325   3.814
30238SOL     OW92545   3.576   4.593  10.243
30238SOL    HW192546   3.589   4.559  10.332
30238SOL    HW292547   3.481   4.601  10.234
30239SOL     OW92548   3.568  11.926   5.968
30239SOL    HW192549   3.575  11.832   5.955
30239SOL    HW292550   3.549  11.936   6.062
30240SOL     OW92551   7.415   2.158   0.989
30240SOL    HW192552   7.411   2.075   1.037
30240SOL    HW292553   7.490   2.204   1.027
30241SOL     OW92554  12.384   3.295  10.543
30241SOL    HW192555  12.398   3.381  10.583
30241SOL    HW292556  12.453   3.288  10.476
30242SOL     OW92557  12.994  13.652   5.490
30242SOL    HW192558  13.084  13.659   5.457
30242SOL    HW292559  12.992  13.567   5.535
30243SOL     OW92560  10.228   0.790   6.385
30243SOL    HW192561  10.237   0.885   6.386
30243SOL    HW292562  10.194   0.768   6.472
30244SOL     OW92563   4.879  14.235   7.568
30244SOL    HW192564   4.890  14.140   7.574
30244SOL    HW292565   4.788  14.248   7.542
30245SOL     OW92566   9.269   6.459  11.856
30245SOL    HW192567   9.335   6.400  11.819
30245SOL    HW292568   9.310   6.545  11.855
30246SOL     OW92569   4.157   2.868   4.333
30246SOL    HW192570   4.125   2.787   4.371
30246SOL    HW292571   4.092   2.934   4.357
30247SOL     OW92572   9.520  13.073   8.206
30247SOL    HW192573   9.445  13.087   8.149
30247SOL    HW292574   9.585  13.028   8.151
30248SOL     OW92575   6.603  10.917  10.851
30248SOL    HW192576   6.670  10.899  10.917
30248SOL    HW292577   6.587  11.011  10.857
30249SOL     OW92578  11.353   0.204  12.155
30249SOL    HW192579  11.419   0.202  12.224
30249SOL    HW292580  11.380   0.137  12.093
30250SOL     OW92581   5.746   6.371   9.691
30250SOL    HW192582   5.841   6.381   9.688
30250SOL    HW292583   5.732   6.280   9.718
30251SOL     OW92584   3.510   9.321   2.683
30251SOL    HW192585   3.544   9.404   2.715
30251SOL    HW292586   3.586   9.263   2.679
30252SOL     OW92587  11.008   1.639   6.953
30252SOL    HW192588  11.034   1.669   6.866
30252SOL    HW292589  11.089   1.642   7.005
30253SOL     OW92590   1.010   3.667  11.117
30253SOL    HW192591   0.988   3.674  11.210
30253SOL    HW292592   1.091   3.616  11.116
30254SOL     OW92593   5.502   9.801  11.797
30254SOL    HW192594   5.437   9.809  11.867
30254SOL    HW292595   5.578   9.849  11.828
30255SOL     OW92596   9.147  11.224   5.361
30255SOL    HW192597   9.148  11.249   5.268
30255SOL    HW292598   9.127  11.305   5.407
30256SOL     OW92599   6.108  13.282   9.935
30256SOL    HW192600   6.032  13.292   9.878
30256SOL    HW292601   6.113  13.187   9.952
30257SOL     OW92602  13.235   1.095   1.685
30257SOL    HW192603  13.147   1.084   1.721
30257SOL    HW292604  13.229   1.175   1.634
30258SOL     OW92605  13.685   9.061   6.250
30258SOL    HW192606  13.753   8.998   6.276
30258SOL    HW292607  13.616   9.049   6.315
30259SOL     OW92608   6.958  12.328   3.019
30259SOL    HW192609   7.027  12.382   2.980
30259SOL    HW292610   7.003  12.246   3.042
30260SOL     OW92611   2.681   1.781   1.270
30260SOL    HW192612   2.701   1.784   1.363
30260SOL    HW292613   2.586   1.791   1.265
30261SOL     OW92614   0.603   9.848   9.644
30261SOL    HW192615   0.535   9.782   9.661
30261SOL    HW292616   0.646   9.816   9.564
30262SOL     OW92617   4.422   3.606  11.707
30262SOL    HW192618   4.370   3.557  11.770
30262SOL    HW292619   4.360   3.627  11.636
30263SOL     OW92620   0.966   6.608  12.896
30263SOL    HW192621   0.953   6.697  12.864
30263SOL    HW292622   0.904   6.555  12.847
30264SOL     OW92623   8.512   1.136  13.426
30264SOL    HW192624   8.484   1.063  13.371
30264SOL    HW292625   8.474   1.118  13.512
30265SOL     OW92626   4.591   7.453   6.578
30265SOL    HW192627   4.679   7.421   6.560
30265SOL    HW292628   4.567   7.503   6.500
30266SOL     OW92629   7.044  10.070   5.023
30266SOL    HW192630   7.078  10.123   4.950
30266SOL    HW292631   7.121  10.028   5.060
30267SOL     OW92632   0.128  13.113  11.089
30267SOL    HW192633   0.060  13.181  11.086
30267SOL    HW292634   0.194  13.149  11.148
30268SOL     OW92635   7.590  14.326   5.486
30268SOL    HW192636   7.581  14.249   5.430
30268SOL    HW292637   7.502  14.340   5.521
30269SOL     OW92638   9.578   3.612  14.297
30269SOL    HW192639   9.542   3.523  14.289
30269SOL    HW292640   9.535   3.649  14.374
30270SOL     OW92641   9.874   5.769  14.868
30270SOL    HW192642   9.928   5.753  14.790
30270SOL    HW292643   9.841   5.858  14.857
30271SOL     OW92644  13.469  14.083   4.129
30271SOL    HW192645  13.437  14.150   4.069
30271SOL    HW292646  13.463  14.001   4.080
30272SOL     OW92647  14.490  14.067   8.807
30272SOL    HW192648  14.468  13.987   8.855
30272SOL    HW292649  14.408  14.117   8.803
30273SOL     OW92650   7.395  12.007   5.861
30273SOL    HW192651   7.460  12.018   5.792
30273SOL    HW292652   7.447  11.991   5.940
30274SOL     OW92653   8.647  13.167   1.527
30274SOL    HW192654   8.589  13.207   1.463
30274SOL    HW292655   8.612  13.078   1.539
30275SOL     OW92656   5.540  12.364  12.717
30275SOL    HW192657   5.566  12.272  12.712
30275SOL    HW292658   5.570  12.393  12.803
30276SOL     OW92659   3.600  12.691   4.461
30276SOL    HW192660   3.544  12.751   4.412
30276SOL    HW292661   3.544  12.659   4.532
30277SOL     OW92662   6.816   2.344   4.256
30277SOL    HW192663   6.728   2.312   4.235
30277SOL    HW292664   6.809   2.439   4.248
30278SOL     OW92665   8.408  10.654  10.431
30278SOL    HW192666   8.423  10.736  10.385
30278SOL    HW292667   8.328  10.619  10.392
30279SOL     OW92668   9.389   8.493  11.877
30279SOL    HW192669   9.399   8.558  11.807
30279SOL    HW292670   9.456   8.516  11.941
30280SOL     OW92671   0.837   9.515   9.025
30280SOL    HW192672   0.921   9.474   9.006
30280SOL    HW292673   0.847   9.606   8.998
30281SOL     OW92674   0.277  11.351   2.600
30281SOL    HW192675   0.236  11.389   2.522
30281SOL    HW292676   0.358  11.311   2.568
30282SOL     OW92677  12.965   7.135   3.021
30282SOL    HW192678  12.876   7.169   3.013
30282SOL    HW292679  12.990   7.153   3.112
30283SOL     OW92680   7.496   9.992  14.089
30283SOL    HW192681   7.400   9.996  14.090
30283SOL    HW292682   7.516   9.899  14.105
30284SOL     OW92683   1.964  11.179  14.336
30284SOL    HW192684   1.998  11.133  14.413
30284SOL    HW292685   2.039  11.187  14.277
30285SOL     OW92686  14.865  14.175   1.959
30285SOL    HW192687  14.854  14.080   1.964
30285SOL    HW292688  14.834  14.207   2.044
30286SOL     OW92689   2.010   5.836   2.373
30286SOL    HW192690   2.060   5.793   2.304
30286SOL    HW292691   2.057   5.917   2.391
30287SOL     OW92692   7.308   7.083   4.567
30287SOL    HW192693   7.335   7.139   4.494
30287SOL    HW292694   7.272   7.005   4.525
30288SOL     OW92695  14.456  11.990  13.100
30288SOL    HW192696  14.387  11.975  13.035
30288SOL    HW292697  14.481  11.902  13.129
30289SOL     OW92698   5.868  12.333   9.225
30289SOL    HW192699   5.940  12.272   9.239
30289SOL    HW292700   5.802  12.309   9.290
30290SOL     OW92701   4.044   4.871   5.678
30290SOL    HW192702   4.048   4.967   5.684
30290SOL    HW292703   4.115   4.841   5.735
30291SOL     OW92704   1.143   2.306   6.831
30291SOL    HW192705   1.062   2.276   6.872
30291SOL    HW292706   1.144   2.265   6.745
30292SOL     OW92707   1.895   1.337   3.699
30292SOL    HW192708   1.817   1.298   3.659
30292SOL    HW292709   1.947   1.263   3.730
30293SOL     OW92710   6.704   4.102   5.585
30293SOL    HW192711   6.718   4.080   5.677
30293SOL    HW292712   6.699   4.198   5.584
30294SOL     OW92713   6.942   1.615   3.684
30294SOL    HW192714   6.883   1.660   3.744
30294SOL    HW292715   6.923   1.653   3.598
30295SOL     OW92716   5.502  11.912  12.465
30295SOL    HW192717   5.531  11.839  12.410
30295SOL    HW292718   5.408  11.918  12.448
30296SOL     OW92719   0.575  11.169   1.894
30296SOL    HW192720   0.665  11.199   1.908
30296SOL    HW292721   0.557  11.192   1.803
30297SOL     OW92722  13.885   7.492   0.488
30297SOL    HW192723  13.809   7.493   0.430
30297SOL    HW292724  13.940   7.422   0.454
30298SOL     OW92725  10.012  14.863  11.872
30298SOL    HW192726   9.999   0.007  11.781
30298SOL    HW292727   9.927  14.880  11.914
30299SOL     OW92728  14.721  10.042   7.476
30299SOL    HW192729  14.796  10.005   7.524
30299SOL    HW292730  14.708  10.129   7.514
30300SOL     OW92731   5.897  13.897   8.394
30300SOL    HW192732   5.865  13.813   8.359
30300SOL    HW292733   5.920  13.947   8.316
30301SOL     OW92734   3.996   3.375   7.258
30301SOL    HW192735   4.082   3.333   7.268
30301SOL    HW292736   3.940   3.330   7.321
30302SOL     OW92737   3.836   2.208  12.094
30302SOL    HW192738   3.823   2.200  12.188
30302SOL    HW292739   3.834   2.118  12.062
30303SOL     OW92740   3.391   7.477   1.351
30303SOL    HW192741   3.457   7.410   1.337
30303SOL    HW292742   3.382   7.520   1.266
30304SOL     OW92743   1.087  12.619   3.599
30304SOL    HW192744   1.149  12.652   3.664
30304SOL    HW292745   1.141  12.571   3.536
30305SOL     OW92746  11.129  10.157  13.294
30305SOL    HW192747  11.101  10.071  13.326
30305SOL    HW292748  11.103  10.158  13.202
30306SOL     OW92749  13.171   4.931   3.034
30306SOL    HW192750  13.155   5.003   2.973
30306SOL    HW292751  13.175   4.972   3.120
30307SOL     OW92752   1.544   7.825   7.247
30307SOL    HW192753   1.482   7.877   7.298
30307SOL    HW292754   1.493   7.751   7.214
30308SOL     OW92755   3.929   7.195   7.005
30308SOL    HW192756   4.013   7.217   6.965
30308SOL    HW292757   3.864   7.212   6.936
30309SOL     OW92758   1.751   9.157   4.601
30309SOL    HW192759   1.683   9.222   4.581
30309SOL    HW292760   1.760   9.106   4.520
30310SOL     OW92761  12.983  11.313   6.023
30310SOL    HW192762  12.921  11.346   6.089
30310SOL    HW292763  13.063  11.295   6.073
30311SOL     OW92764  12.508   0.613  12.856
30311SOL    HW192765  12.426   0.565  12.866
30311SOL    HW292766  12.560   0.561  12.795
30312SOL     OW92767   6.404  11.481   9.999
30312SOL    HW192768   6.491  11.470   9.960
30312SOL    HW292769   6.388  11.398  10.043
30313SOL     OW92770  12.785  12.342  13.088
30313SOL    HW192771  12.866  12.336  13.037
30313SOL    HW292772  12.747  12.255  13.084
30314SOL     OW92773   0.734   1.702  14.806
30314SOL    HW192774   0.736   1.720   0.019
30314SOL    HW292775   0.808   1.643  14.792
30315SOL     OW92776   6.842   4.775   6.236
30315SOL    HW192777   6.899   4.827   6.293
30315SOL    HW292778   6.805   4.708   6.294
30316SOL     OW92779  13.465  10.764  10.761
30316SOL    HW192780  13.545  10.814  10.773
30316SOL    HW292781  13.412  10.816  10.701
30317SOL     OW92782   4.314   5.563   7.046
30317SOL    HW192783   4.252   5.548   6.975
30317SOL    HW292784   4.400   5.553   7.005
30318SOL     OW92785  11.262  11.202   0.696
30318SOL    HW192786  11.255  11.108   0.684
30318SOL    HW292787  11.275  11.214   0.790
30319SOL     OW92788  10.073   4.557   0.769
30319SOL    HW192789  10.137   4.599   0.711
30319SOL    HW292790  10.090   4.597   0.855
30320SOL     OW92791  10.873  13.752  11.800
30320SOL    HW192792  10.966  13.731  11.808
30320SOL    HW292793  10.851  13.728  11.711
30321SOL     OW92794  12.309   9.164   2.806
30321SOL    HW192795  12.224   9.129   2.834
30321SOL    HW292796  12.318   9.246   2.854
30322SOL     OW92797   7.913   8.832  13.680
30322SOL    HW192798   7.942   8.754  13.729
30322SOL    HW292799   7.969   8.835  13.603
30323SOL     OW92800   2.915   2.593   3.902
30323SOL    HW192801   2.828   2.569   3.933
30323SOL    HW292802   2.901   2.626   3.813
30324SOL     OW92803   4.452   1.073   2.246
30324SOL    HW192804   4.425   1.154   2.288
30324SOL    HW292805   4.512   1.032   2.309
30325SOL     OW92806   2.260   6.091  11.371
30325SOL    HW192807   2.224   6.178  11.354
30325SOL    HW292808   2.339   6.087  11.317
30326SOL     OW92809  11.290   1.829  12.091
30326SOL    HW192810  11.327   1.797  12.172
30326SOL    HW292811  11.235   1.757  12.059
30327SOL     OW92812   5.242   4.994   1.971
30327SOL    HW192813   5.292   4.935   2.027
30327SOL    HW292814   5.257   4.962   1.882
30328SOL     OW92815   5.522   2.059  12.277
30328SOL    HW192816   5.463   1.984  12.264
30328SOL    HW292817   5.527   2.068  12.373
30329SOL     OW92818  10.387  14.224  10.568
30329SOL    HW192819  10.440  14.192  10.495
30329SOL    HW292820  10.297  14.198  10.546
30330SOL     OW92821  13.479  10.562   2.182
30330SOL    HW192822  13.534  10.579   2.258
30330SOL    HW292823  13.499  10.633   2.122
30331SOL     OW92824   9.121   8.252   0.099
30331SOL    HW192825   9.066   8.174   0.090
30331SOL    HW292826   9.115   8.274   0.192
30332SOL     OW92827   7.808   0.219  14.575
30332SOL    HW192828   7.831   0.308  14.600
30332SOL    HW292829   7.763   0.183  14.651
30333SOL     OW92830  12.287  12.407   9.463
30333SOL    HW192831  12.254  12.334   9.411
30333SOL    HW292832  12.299  12.372   9.551
30334SOL     OW92833  10.274  10.729  10.040
30334SOL    HW192834  10.364  10.750  10.014
30334SOL    HW292835  10.259  10.641  10.007
30335SOL     OW92836   4.062   6.245   3.950
30335SOL    HW192837   4.127   6.245   4.020
30335SOL    HW292838   3.978   6.256   3.996
30336SOL     OW92839  10.018   8.077   0.108
30336SOL    HW192840  10.011   7.982   0.098
30336SOL    HW292841  10.039   8.090   0.200
30337SOL     OW92842  13.808   1.952   7.764
30337SOL    HW192843  13.777   1.941   7.854
30337SOL    HW292844  13.739   2.003   7.721
30338SOL     OW92845   7.334   3.133   7.769
30338SOL    HW192846   7.295   3.142   7.683
30338SOL    HW292847   7.311   3.044   7.797
30339SOL     OW92848   8.148   9.238  14.342
30339SOL    HW192849   8.078   9.173  14.334
30339SOL    HW292850   8.229   9.187  14.336
30340SOL     OW92851   0.391   6.844  14.439
30340SOL    HW192852   0.465   6.851  14.378
30340SOL    HW292853   0.428   6.802  14.516
30341SOL     OW92854   5.359  13.242   0.194
30341SOL    HW192855   5.330  13.333   0.190
30341SOL    HW292856   5.295  13.198   0.249
30342SOL     OW92857   5.705  10.720   9.808
30342SOL    HW192858   5.703  10.660   9.733
30342SOL    HW292859   5.742  10.801   9.774
30343SOL     OW92860   5.048  10.666  12.200
30343SOL    HW192861   5.100  10.746  12.207
30343SOL    HW292862   5.058  10.623  12.285
30344SOL     OW92863   4.017   0.404  11.561
30344SOL    HW192864   3.961   0.418  11.485
30344SOL    HW292865   4.084   0.471  11.554
30345SOL     OW92866  13.364   4.771  14.566
30345SOL    HW192867  13.340   4.760  14.658
30345SOL    HW292868  13.297   4.722  14.517
30346SOL     OW92869  11.866   2.368   4.559
30346SOL    HW192870  11.909   2.453   4.565
30346SOL    HW292871  11.838   2.349   4.649
30347SOL     OW92872   4.505   4.546   3.443
30347SOL    HW192873   4.428   4.602   3.436
30347SOL    HW292874   4.577   4.598   3.406
30348SOL     OW92875   7.857   1.538   2.699
30348SOL    HW192876   7.837   1.499   2.784
30348SOL    HW292877   7.772   1.562   2.663
30349SOL     OW92878   7.195   1.825  12.154
30349SOL    HW192879   7.220   1.899  12.099
30349SOL    HW292880   7.190   1.861  12.242
30350SOL     OW92881  13.367   2.578   1.251
30350SOL    HW192882  13.393   2.663   1.286
30350SOL    HW292883  13.323   2.534   1.323
30351SOL     OW92884  12.577  11.830   5.821
30351SOL    HW192885  12.586  11.740   5.790
30351SOL    HW292886  12.597  11.884   5.745
30352SOL     OW92887   4.833   6.496  11.418
30352SOL    HW192888   4.740   6.506  11.394
30352SOL    HW292889   4.844   6.553  11.494
30353SOL     OW92890   9.092  12.283  13.533
30353SOL    HW192891   9.065  12.193  13.546
30353SOL    HW292892   9.180  12.277  13.496
30354SOL     OW92893   1.462   4.521   4.889
30354SOL    HW192894   1.477   4.605   4.932
30354SOL    HW292895   1.512   4.526   4.808
30355SOL     OW92896   3.067  13.951   1.529
30355SOL    HW192897   3.013  13.892   1.475
30355SOL    HW292898   3.143  13.969   1.474
30356SOL     OW92899   6.234   2.841  10.653
30356SOL    HW192900   6.311   2.842  10.596
30356SOL    HW292901   6.228   2.750  10.682
30357SOL     OW92902   4.623   2.917   2.277
30357SOL    HW192903   4.552   2.879   2.226
30357SOL    HW292904   4.691   2.937   2.212
30358SOL     OW92905   2.811  14.805   0.486
30358SOL    HW192906   2.790  14.866   0.416
30358SOL    HW292907   2.897  14.770   0.462
30359SOL     OW92908   5.709   4.608   8.398
30359SOL    HW192909   5.680   4.663   8.325
30359SOL    HW292910   5.805   4.609   8.392
30360SOL     OW92911   5.848   2.592   3.135
30360SOL    HW192912   5.871   2.516   3.082
30360SOL    HW292913   5.911   2.591   3.207
30361SOL     OW92914   0.940  13.924   4.306
30361SOL    HW192915   0.983  13.910   4.390
30361SOL    HW292916   0.918  14.018   4.306
30362SOL     OW92917  11.324   3.370   7.760
30362SOL    HW192918  11.323   3.446   7.703
30362SOL    HW292919  11.273   3.397   7.837
30363SOL     OW92920   5.579   4.624  10.075
30363SOL    HW192921   5.606   4.703  10.120
30363SOL    HW292922   5.488   4.640  10.049
30364SOL     OW92923  10.927   6.835   9.009
30364SOL    HW192924  10.929   6.740   8.998
30364SOL    HW292925  11.019   6.861   9.007
30365SOL     OW92926  10.993   1.778   3.520
30365SOL    HW192927  11.011   1.871   3.539
30365SOL    HW292928  10.944   1.748   3.597
30366SOL     OW92929   7.517   6.929  11.818
30366SOL    HW192930   7.557   6.850  11.855
30366SOL    HW292931   7.425   6.924  11.845
30367SOL     OW92932   7.544  12.364   9.482
30367SOL    HW192933   7.549  12.304   9.557
30367SOL    HW292934   7.568  12.310   9.407
30368SOL     OW92935   7.415   4.939   8.245
30368SOL    HW192936   7.391   4.846   8.249
30368SOL    HW292937   7.509   4.938   8.224
30369SOL     OW92938   8.346  14.162   5.287
30369SOL    HW192939   8.359  14.231   5.223
30369SOL    HW292940   8.257  14.175   5.319
30370SOL     OW92941   1.961   6.753   2.760
30370SOL    HW192942   2.042   6.792   2.726
30370SOL    HW292943   1.987   6.664   2.786
30371SOL     OW92944   5.771   3.266   0.208
30371SOL    HW192945   5.846   3.224   0.248
30371SOL    HW292946   5.781   3.248   0.114
30372SOL     OW92947   1.652  14.701  10.814
30372SOL    HW192948   1.562  14.680  10.790
30372SOL    HW292949   1.645  14.781  10.866
30373SOL     OW92950   5.278   5.906   6.199
30373SOL    HW192951   5.309   5.856   6.275
30373SOL    HW292952   5.250   5.990   6.235
30374SOL     OW92953   8.532   0.077   4.998
30374SOL    HW192954   8.437   0.074   5.006
30374SOL    HW292955   8.564   0.063   5.087
30375SOL     OW92956  12.094   8.039   2.631
30375SOL    HW192957  12.047   8.115   2.597
30375SOL    HW292958  12.134   8.070   2.713
30376SOL     OW92959   8.301   2.438   1.727
30376SOL    HW192960   8.273   2.368   1.787
30376SOL    HW292961   8.338   2.505   1.785
30377SOL     OW92962  14.321   3.401   8.297
30377SOL    HW192963  14.345   3.309   8.305
30377SOL    HW292964  14.272   3.420   8.377
30378SOL     OW92965   3.211  13.594   7.495
30378SOL    HW192966   3.205  13.499   7.504
30378SOL    HW292967   3.123  13.622   7.471
30379SOL     OW92968   8.408   0.499  10.228
30379SOL    HW192969   8.481   0.445  10.255
30379SOL    HW292970   8.338   0.437  10.205
30380SOL     OW92971   3.633  13.940   2.860
30380SOL    HW192972   3.621  13.894   2.943
30380SOL    HW292973   3.663  13.873   2.799
30381SOL     OW92974   4.761   5.859   7.473
30381SOL    HW192975   4.732   5.781   7.520
30381SOL    HW292976   4.739   5.842   7.382
30382SOL     OW92977   8.316   0.104   6.657
30382SOL    HW192978   8.372   0.144   6.724
30382SOL    HW292979   8.235   0.154   6.660
30383SOL     OW92980   3.380   8.791   1.054
30383SOL    HW192981   3.324   8.717   1.031
30383SOL    HW292982   3.324   8.849   1.105
30384SOL     OW92983   3.315   6.491   2.429
30384SOL    HW192984   3.410   6.491   2.422
30384SOL    HW292985   3.285   6.534   2.349
30385SOL     OW92986   0.654  11.289   4.341
30385SOL    HW192987   0.718  11.349   4.305
30385SOL    HW292988   0.580  11.292   4.280
30386SOL     OW92989   9.730   5.519   7.093
30386SOL    HW192990   9.669   5.580   7.132
30386SOL    HW292991   9.675   5.453   7.051
30387SOL     OW92992   2.204   0.602   4.444
30387SOL    HW192993   2.192   0.650   4.362
30387SOL    HW292994   2.140   0.531   4.440
30388SOL     OW92995  10.993   4.053  11.663
30388SOL    HW192996  10.911   4.102  11.654
30388SOL    HW292997  10.972   3.981  11.723
30389SOL     OW92998   5.275   1.926   9.577
30389SOL    HW192999   5.224   2.004   9.555
30389SOL    HW293000   5.257   1.864   9.507
30390SOL     OW93001   4.013  10.461   0.696
30390SOL    HW193002   3.993  10.540   0.646
30390SOL    HW293003   3.946  10.457   0.764
30391SOL     OW93004  11.126   8.061   5.047
30391SOL    HW193005  11.213   8.024   5.033
30391SOL    HW293006  11.110   8.047   5.141
30392SOL     OW93007   0.086   3.635   9.801
30392SOL    HW193008   0.107   3.594   9.885
30392SOL    HW293009   0.114   3.572   9.735
30393SOL     OW93010   5.132   9.822   3.330
30393SOL    HW193011   5.111   9.729   3.326
30393SOL    HW293012   5.070   9.857   3.395
30394SOL     OW93013   9.192   7.069   8.534
30394SOL    HW193014   9.176   7.128   8.608
30394SOL    HW293015   9.205   7.128   8.459
30395SOL     OW93016   7.614   5.133  12.717
30395SOL    HW193017   7.667   5.177  12.783
30395SOL    HW293018   7.529   5.119  12.759
30396SOL     OW93019   6.276   1.158   7.144
30396SOL    HW193020   6.309   1.088   7.088
30396SOL    HW293021   6.334   1.157   7.221
30397SOL     OW93022  13.344   9.132   7.734
30397SOL    HW193023  13.396   9.052   7.731
30397SOL    HW293024  13.310   9.143   7.645
30398SOL     OW93025   6.033  13.274  12.121
30398SOL    HW193026   6.047  13.180  12.119
30398SOL    HW293027   5.944  13.285  12.155
30399SOL     OW93028  12.518   3.047   7.155
30399SOL    HW193029  12.591   3.084   7.107
30399SOL    HW293030  12.543   2.955   7.169
30400SOL     OW93031   3.785   6.271   2.012
30400SOL    HW193032   3.772   6.365   2.002
30400SOL    HW293033   3.733   6.247   2.088
30401SOL     OW93034   7.917  13.663   5.650
30401SOL    HW193035   7.951  13.723   5.584
30401SOL    HW293036   7.822  13.672   5.645
30402SOL     OW93037  13.097  12.821   3.320
30402SOL    HW193038  13.178  12.780   3.351
30402SOL    HW293039  13.030  12.789   3.380
30403SOL     OW93040   9.035  12.301  12.710
30403SOL    HW193041   8.970  12.263  12.769
30403SOL    HW293042   9.105  12.236  12.706
30404SOL     OW93043   4.370  11.897  10.235
30404SOL    HW193044   4.410  11.834  10.176
30404SOL    HW293045   4.309  11.845  10.288
30405SOL     OW93046   7.216  12.420  14.308
30405SOL    HW193047   7.291  12.467  14.270
30405SOL    HW293048   7.228  12.429  14.402
30406SOL     OW93049   8.595   0.034  13.280
30406SOL    HW193050   8.542  14.843  13.249
30406SOL    HW293051   8.576   0.106  13.219
30407SOL     OW93052   4.721   1.399  12.937
30407SOL    HW193053   4.685   1.374  12.852
30407SOL    HW293054   4.652   1.452  12.977
30408SOL     OW93055  12.601   9.242  11.760
30408SOL    HW193056  12.582   9.271  11.670
30408SOL    HW293057  12.688   9.203  11.755
30409SOL     OW93058   2.884   1.652  14.311
30409SOL    HW193059   2.833   1.732  14.302
30409SOL    HW293060   2.966   1.680  14.352
30410SOL     OW93061   8.416   9.214   7.212
30410SOL    HW193062   8.357   9.288   7.202
30410SOL    HW293063   8.502   9.249   7.187
30411SOL     OW93064  13.948   0.486  11.982
30411SOL    HW193065  14.032   0.441  11.973
30411SOL    HW293066  13.914   0.491  11.892
30412SOL     OW93067   0.372   3.319   9.876
30412SOL    HW193068   0.303   3.253   9.878
30412SOL    HW293069   0.352   3.373   9.799
30413SOL     OW93070   6.167   3.456   3.540
30413SOL    HW193071   6.135   3.475   3.452
30413SOL    HW293072   6.248   3.507   3.548
30414SOL     OW93073   6.414   0.897   9.436
30414SOL    HW193074   6.375   0.812   9.414
30414SOL    HW293075   6.492   0.875   9.487
30415SOL     OW93076  12.676   5.274   3.017
30415SOL    HW193077  12.739   5.345   3.031
30415SOL    HW293078  12.594   5.318   2.993
30416SOL     OW93079   4.339  14.074   2.313
30416SOL    HW193080   4.288  14.137   2.262
30416SOL    HW293081   4.419  14.060   2.261
30417SOL     OW93082  12.811   1.671   2.752
30417SOL    HW193083  12.876   1.732   2.717
30417SOL    HW293084  12.733   1.685   2.698
30418SOL     OW93085  12.140   0.701  14.674
30418SOL    HW193086  12.204   0.678  14.742
30418SOL    HW293087  12.069   0.745  14.720
30419SOL     OW93088  11.457  10.835   9.849
30419SOL    HW193089  11.466  10.869   9.760
30419SOL    HW293090  11.453  10.913   9.904
30420SOL     OW93091   5.593   9.663  12.666
30420SOL    HW193092   5.595   9.575  12.628
30420SOL    HW293093   5.613   9.721  12.592
30421SOL     OW93094   6.951   4.181   5.427
30421SOL    HW193095   6.960   4.275   5.411
30421SOL    HW293096   6.894   4.175   5.503
30422SOL     OW93097  12.025   0.168  14.443
30422SOL    HW193098  12.082   0.232  14.400
30422SOL    HW293099  12.067   0.084  14.427
30423SOL     OW93100   3.771  13.298   9.464
30423SOL    HW193101   3.782  13.329   9.554
30423SOL    HW293102   3.712  13.362   9.423
30424SOL     OW93103   9.989  12.234   6.679
30424SOL    HW193104   9.954  12.183   6.606
30424SOL    HW293105   9.920  12.298   6.698
30425SOL     OW93106   1.654   1.272   4.057
30425SOL    HW193107   1.734   1.323   4.045
30425SOL    HW293108   1.601   1.325   4.117
30426SOL     OW93109  13.903  12.879   8.381
30426SOL    HW193110  13.948  12.890   8.465
30426SOL    HW293111  13.815  12.912   8.397
30427SOL     OW93112   7.565   0.502  10.711
30427SOL    HW193113   7.620   0.430  10.681
30427SOL    HW293114   7.490   0.500  10.651
30428SOL     OW93115   3.097   4.908  12.294
30428SOL    HW193116   3.154   4.896  12.371
30428SOL    HW293117   3.131   4.846  12.230
30429SOL     OW93118   7.687   0.511   0.597
30429SOL    HW193119   7.605   0.485   0.637
30429SOL    HW293120   7.715   0.589   0.645
30430SOL     OW93121   4.861  14.695   1.712
30430SOL    HW193122   4.914  14.634   1.763
30430SOL    HW293123   4.770  14.672   1.734
30431SOL     OW93124   8.186  12.406  10.720
30431SOL    HW193125   8.139  12.458  10.654
30431SOL    HW293126   8.117  12.367  10.773
30432SOL     OW93127   4.004  13.911   0.132
30432SOL    HW193128   3.960  13.996   0.128
30432SOL    HW293129   4.004  13.889   0.225
30433SOL     OW93130  12.130   5.722   5.731
30433SOL    HW193131  12.091   5.659   5.792
30433SOL    HW293132  12.185   5.778   5.787
30434SOL     OW93133   4.666   8.700  12.400
30434SOL    HW193134   4.612   8.695  12.321
30434SOL    HW293135   4.735   8.763  12.377
30435SOL     OW93136   8.423  10.240   1.598
30435SOL    HW193137   8.478  10.202   1.530
30435SOL    HW293138   8.437  10.334   1.590
30436SOL     OW93139   7.536   9.723   8.722
30436SOL    HW193140   7.584   9.752   8.799
30436SOL    HW293141   7.503   9.636   8.746
30437SOL     OW93142   9.003  13.592   4.327
30437SOL    HW193143   9.019  13.639   4.246
30437SOL    HW293144   8.909  13.606   4.345
30438SOL     OW93145  12.610   3.506  12.303
30438SOL    HW193146  12.538   3.538  12.249
30438SOL    HW293147  12.682   3.568  12.286
30439SOL     OW93148   2.771   9.360   5.374
30439SOL    HW193149   2.768   9.265   5.360
30439SOL    HW293150   2.798   9.396   5.290
30440SOL     OW93151  11.636  11.742   6.247
30440SOL    HW193152  11.649  11.836   6.246
30440SOL    HW293153  11.700  11.709   6.310
30441SOL     OW93154   5.947  10.918   6.951
30441SOL    HW193155   6.034  10.919   6.913
30441SOL    HW293156   5.945  10.841   7.007
30442SOL     OW93157   7.759   1.188   3.445
30442SOL    HW193158   7.832   1.132   3.473
30442SOL    HW293159   7.681   1.134   3.460
30443SOL     OW93160   7.499  14.337   6.901
30443SOL    HW193161   7.452  14.418   6.880
30443SOL    HW293162   7.464  14.310   6.986
30444SOL     OW93163   2.364   0.759   5.698
30444SOL    HW193164   2.339   0.840   5.654
30444SOL    HW293165   2.389   0.786   5.786
30445SOL     OW93166  12.711   6.503   2.045
30445SOL    HW193167  12.724   6.580   1.989
30445SOL    HW293168  12.778   6.440   2.016
30446SOL     OW93169   2.916   6.953  12.818
30446SOL    HW193170   2.873   6.897  12.753
30446SOL    HW293171   3.009   6.934  12.809
30447SOL     OW93172   1.359   4.681  14.468
30447SOL    HW193173   1.431   4.724  14.421
30447SOL    HW293174   1.336   4.606  14.414
30448SOL     OW93175   9.463   4.370  13.022
30448SOL    HW193176   9.532   4.366  13.088
30448SOL    HW293177   9.509   4.386  12.940
30449SOL     OW93178   3.444   7.264   0.816
30449SOL    HW193179   3.359   7.274   0.859
30449SOL    HW293180   3.487   7.194   0.865
30450SOL     OW93181   4.285   0.962  12.205
30450SOL    HW193182   4.298   1.051  12.239
30450SOL    HW293183   4.278   0.907  12.283
30451SOL     OW93184   0.836   3.725   5.907
30451SOL    HW193185   0.866   3.760   5.991
30451SOL    HW293186   0.913   3.732   5.850
30452SOL     OW93187   3.469   6.904  10.665
30452SOL    HW193188   3.543   6.933  10.719
30452SOL    HW293189   3.489   6.937  10.578
30453SOL     OW93190   5.452   7.911  13.401
30453SOL    HW193191   5.498   7.829  13.383
30453SOL    HW293192   5.370   7.884  13.443
30454SOL     OW93193   5.781   1.435   5.341
30454SOL    HW193194   5.833   1.390   5.408
30454SOL    HW293195   5.718   1.487   5.391
30455SOL     OW93196   1.748   0.476   8.862
30455SOL    HW193197   1.757   0.482   8.767
30455SOL    HW293198   1.660   0.441   8.876
30456SOL     OW93199   5.394   9.130   2.198
30456SOL    HW193200   5.373   9.203   2.257
30456SOL    HW293201   5.408   9.172   2.113
30457SOL     OW93202   2.081   2.857  14.250
30457SOL    HW193203   2.093   2.949  14.271
30457SOL    HW293204   1.999   2.833  14.292
30458SOL     OW93205  10.606  13.138  13.878
30458SOL    HW193206  10.580  13.101  13.794
30458SOL    HW293207  10.590  13.232  13.869
30459SOL     OW93208   2.734   5.970  10.490
30459SOL    HW193209   2.690   5.952  10.407
30459SOL    HW293210   2.740   6.065  10.494
30460SOL     OW93211  14.307   1.954  14.480
30460SOL    HW193212  14.292   1.971  14.386
30460SOL    HW293213  14.223   1.922  14.512
30461SOL     OW93214  11.994  12.810   9.323
30461SOL    HW193215  11.900  12.791   9.331
30461SOL    HW293216  12.003  12.855   9.239
30462SOL     OW93217   1.629  13.961  13.764
30462SOL    HW193218   1.659  13.872  13.750
30462SOL    HW293219   1.651  14.007  13.683
30463SOL     OW93220   6.451   2.588   1.930
30463SOL    HW193221   6.451   2.605   2.025
30463SOL    HW293222   6.414   2.500   1.922
30464SOL     OW93223   4.610  11.720  10.550
30464SOL    HW193224   4.682  11.673  10.592
30464SOL    HW293225   4.535  11.705  10.608
30465SOL     OW93226   1.169   2.543  13.739
30465SOL    HW193227   1.221   2.530  13.819
30465SOL    HW293228   1.153   2.637  13.736
30466SOL     OW93229   7.684   6.219   8.599
30466SOL    HW193230   7.688   6.306   8.559
30466SOL    HW293231   7.593   6.210   8.627
30467SOL     OW93232   8.203  10.767   4.446
30467SOL    HW193233   8.166  10.697   4.391
30467SOL    HW293234   8.193  10.734   4.536
30468SOL     OW93235   8.780   6.991   7.138
30468SOL    HW193236   8.870   7.017   7.118
30468SOL    HW293237   8.764   6.914   7.083
30469SOL     OW93238  10.360   2.343  12.698
30469SOL    HW193239  10.450   2.360  12.724
30469SOL    HW293240  10.310   2.418  12.731
30470SOL     OW93241  12.955   6.449  12.097
30470SOL    HW193242  13.012   6.411  12.164
30470SOL    HW293243  12.884   6.490  12.146
30471SOL     OW93244   9.648  13.309  13.110
30471SOL    HW193245   9.681  13.312  13.021
30471SOL    HW293246   9.553  13.299  13.100
30472SOL     OW93247   1.628   1.010   4.173
30472SOL    HW193248   1.567   0.954   4.124
30472SOL    HW293249   1.620   1.096   4.132
30473SOL     OW93250  12.506   3.331   0.825
30473SOL    HW193251  12.508   3.308   0.732
30473SOL    HW293252  12.415   3.320   0.851
30474SOL     OW93253   7.246   8.580   9.242
30474SOL    HW193254   7.162   8.548   9.273
30474SOL    HW293255   7.247   8.562   9.148
30475SOL     OW93256   3.229   8.591   9.174
30475SOL    HW193257   3.260   8.673   9.136
30475SOL    HW293258   3.308   8.551   9.211
30476SOL     OW93259  14.264   4.357   5.057
30476SOL    HW193260  14.334   4.417   5.082
30476SOL    HW293261  14.300   4.270   5.071
30477SOL     OW93262  14.055   1.608   0.206
30477SOL    HW193263  13.998   1.662   0.262
30477SOL    HW293264  14.032   1.518   0.228
30478SOL     OW93265   4.704  14.760   5.400
30478SOL    HW193266   4.701  14.846   5.359
30478SOL    HW293267   4.763  14.771   5.475
30479SOL     OW93268   6.440   7.614  10.885
30479SOL    HW193269   6.487   7.636  10.966
30479SOL    HW293270   6.394   7.694  10.861
30480SOL     OW93271  10.549  10.065   2.118
30480SOL    HW193272  10.637  10.100   2.109
30480SOL    HW293273  10.555  10.002   2.190
30481SOL     OW93274   2.234   9.443   6.755
30481SOL    HW193275   2.267   9.532   6.769
30481SOL    HW293276   2.244   9.428   6.661
30482SOL     OW93277  10.648  12.754  10.064
30482SOL    HW193278  10.699  12.679  10.092
30482SOL    HW293279  10.596  12.778  10.141
30483SOL     OW93280   3.945  11.711  11.957
30483SOL    HW193281   3.867  11.671  11.994
30483SOL    HW293282   4.015  11.647  11.971
30484SOL     OW93283   8.582   5.039   8.358
30484SOL    HW193284   8.618   5.125   8.336
30484SOL    HW293285   8.576   4.993   8.275
30485SOL     OW93286  12.581   9.946   5.755
30485SOL    HW193287  12.596   9.955   5.850
30485SOL    HW293288  12.634   9.870   5.730
30486SOL     OW93289   2.186   9.813  10.435
30486SOL    HW193290   2.113   9.851  10.386
30486SOL    HW293291   2.264   9.846  10.391
30487SOL     OW93292   3.869   3.743   5.630
30487SOL    HW193293   3.958   3.708   5.632
30487SOL    HW293294   3.832   3.718   5.714
30488SOL     OW93295  10.128  10.949   3.601
30488SOL    HW193296  10.115  10.958   3.506
30488SOL    HW293297  10.218  10.918   3.611
30489SOL     OW93298   7.671   1.843  14.072
30489SOL    HW193299   7.637   1.761  14.106
30489SOL    HW293300   7.731   1.817  14.002
30490SOL     OW93301  12.148   7.500   6.587
30490SOL    HW193302  12.065   7.474   6.629
30490SOL    HW293303  12.202   7.421   6.590
30491SOL     OW93304  12.888  11.820  11.007
30491SOL    HW193305  12.850  11.767  11.077
30491SOL    HW293306  12.851  11.908  11.020
30492SOL     OW93307  10.080  14.244   0.306
30492SOL    HW193308  10.122  14.329   0.298
30492SOL    HW293309  10.112  14.209   0.389
30493SOL     OW93310   5.819   7.896   1.724
30493SOL    HW193311   5.805   7.802   1.714
30493SOL    HW293312   5.890   7.916   1.663
30494SOL     OW93313   2.841   2.404   6.841
30494SOL    HW193314   2.916   2.386   6.897
30494SOL    HW293315   2.794   2.321   6.836
30495SOL     OW93316   8.308   0.826   5.854
30495SOL    HW193317   8.372   0.784   5.911
30495SOL    HW293318   8.317   0.920   5.872
30496SOL     OW93319   1.798   0.191  14.835
30496SOL    HW193320   1.884   0.157  14.810
30496SOL    HW293321   1.800   0.282  14.806
30497SOL     OW93322  13.839   3.890   4.665
30497SOL    HW193323  13.872   3.868   4.752
30497SOL    HW293324  13.812   3.805   4.628
30498SOL     OW93325  11.031   6.398  13.538
30498SOL    HW193326  11.121   6.391  13.508
30498SOL    HW293327  11.022   6.489  13.567
30499SOL     OW93328   7.854   7.440  11.169
30499SOL    HW193329   7.945   7.421  11.145
30499SOL    HW293330   7.821   7.357  11.202
30500SOL     OW93331   5.785  14.304   6.419
30500SOL    HW193332   5.697  14.268   6.431
30500SOL    HW293333   5.773  14.399   6.420
30501SOL     OW93334  11.922   1.618   7.749
30501SOL    HW193335  11.867   1.544   7.723
30501SOL    HW293336  11.879   1.654   7.827
30502SOL     OW93337   2.655   6.856   1.134
30502SOL    HW193338   2.629   6.813   1.052
30502SOL    HW293339   2.639   6.949   1.119
30503SOL     OW93340  14.443   2.949  14.826
30503SOL    HW193341  14.432   2.915   0.033
30503SOL    HW293342  14.495   3.028  14.838
30504SOL     OW93343  13.680   4.556  10.317
30504SOL    HW193344  13.614   4.618  10.347
30504SOL    HW293345  13.649   4.530  10.230
30505SOL     OW93346   6.650   6.913   7.622
30505SOL    HW193347   6.588   6.923   7.550
30505SOL    HW293348   6.632   6.989   7.678
30506SOL     OW93349  13.949   7.219   0.501
30506SOL    HW193350  13.930   7.211   0.595
30506SOL    HW293351  13.866   7.198   0.458
30507SOL     OW93352   4.009   4.553  11.613
30507SOL    HW193353   4.057   4.635  11.606
30507SOL    HW293354   4.046   4.509  11.689
30508SOL     OW93355  12.149   4.769  14.529
30508SOL    HW193356  12.129   4.782  14.437
30508SOL    HW293357  12.209   4.695  14.531
30509SOL     OW93358  10.614  11.506   9.702
30509SOL    HW193359  10.538  11.507   9.644
30509SOL    HW293360  10.619  11.415   9.733
30510SOL     OW93361  13.563   9.681  13.502
30510SOL    HW193362  13.574   9.628  13.581
30510SOL    HW293363  13.540   9.618  13.433
30511SOL     OW93364   5.530   0.728   4.188
30511SOL    HW193365   5.498   0.683   4.266
30511SOL    HW293366   5.621   0.750   4.209
30512SOL     OW93367   9.051   0.925   7.352
30512SOL    HW193368   9.090   0.952   7.436
30512SOL    HW293369   9.070   0.832   7.346
30513SOL     OW93370   2.401   2.782   5.079
30513SOL    HW193371   2.448   2.699   5.073
30513SOL    HW293372   2.449   2.833   5.144
30514SOL     OW93373   4.371   4.857  13.007
30514SOL    HW193374   4.338   4.839  13.095
30514SOL    HW293375   4.465   4.871  13.018
30515SOL     OW93376   8.069  12.882  12.331
30515SOL    HW193377   8.096  12.873  12.240
30515SOL    HW293378   8.090  12.798  12.372
30516SOL     OW93379   7.382  12.226   0.930
30516SOL    HW193380   7.449  12.213   0.863
30516SOL    HW293381   7.412  12.174   1.004
30517SOL     OW93382   1.308  12.711   0.336
30517SOL    HW193383   1.380  12.663   0.378
30517SOL    HW293384   1.240  12.645   0.323
30518SOL     OW93385  14.593   6.716   9.816
30518SOL    HW193386  14.642   6.789   9.778
30518SOL    HW293387  14.654   6.676   9.878
30519SOL     OW93388   9.605   2.466  11.214
30519SOL    HW193389   9.527   2.482  11.267
30519SOL    HW293390   9.573   2.467  11.123
30520SOL     OW93391  10.510   8.216   0.770
30520SOL    HW193392  10.567   8.189   0.842
30520SOL    HW293393  10.498   8.136   0.718
30521SOL     OW93394  12.065   5.362  14.009
30521SOL    HW193395  12.129   5.430  13.992
30521SOL    HW293396  12.094   5.321  14.091
30522SOL     OW93397   3.354   1.443  10.809
30522SOL    HW193398   3.447   1.450  10.830
30522SOL    HW293399   3.350   1.384  10.734
30523SOL     OW93400  13.597  13.234  11.568
30523SOL    HW193401  13.535  13.240  11.641
30523SOL    HW293402  13.666  13.177  11.599
30524SOL     OW93403  11.580   5.342   5.720
30524SOL    HW193404  11.626   5.416   5.760
30524SOL    HW293405  11.594   5.270   5.781
30525SOL     OW93406   8.017   1.366   7.588
30525SOL    HW193407   8.089   1.356   7.526
30525SOL    HW293408   8.028   1.294   7.650
30526SOL     OW93409   4.673   2.058   4.017
30526SOL    HW193410   4.617   2.043   3.941
30526SOL    HW293411   4.740   1.990   4.011
30527SOL     OW93412   0.167   7.164   0.310
30527SOL    HW193413   0.088   7.114   0.292
30527SOL    HW293414   0.220   7.106   0.365
30528SOL     OW93415   2.952   8.057   8.140
30528SOL    HW193416   2.885   7.995   8.169
30528SOL    HW293417   3.019   8.003   8.099
30529SOL     OW93418   4.871  13.972   0.532
30529SOL    HW193419   4.876  13.964   0.627
30529SOL    HW293420   4.918  14.053   0.512
30530SOL     OW93421   4.011   1.848   5.460
30530SOL    HW193422   4.103   1.823   5.464
30530SOL    HW293423   3.980   1.845   5.551
30531SOL     OW93424  13.356   1.311  10.305
30531SOL    HW193425  13.292   1.348  10.244
30531SOL    HW293426  13.303   1.262  10.368
30532SOL     OW93427   2.890  13.718   1.393
30532SOL    HW193428   2.904  13.640   1.448
30532SOL    HW293429   2.797  13.716   1.372
30533SOL     OW93430  10.551  13.693   6.188
30533SOL    HW193431  10.493  13.635   6.139
30533SOL    HW293432  10.579  13.642   6.264
30534SOL     OW93433   1.058  11.715   3.796
30534SOL    HW193434   1.015  11.669   3.724
30534SOL    HW293435   1.142  11.672   3.805
30535SOL     OW93436   4.902   0.382   8.797
30535SOL    HW193437   4.871   0.460   8.844
30535SOL    HW293438   4.852   0.382   8.715
30536SOL     OW93439   8.045   7.924   5.614
30536SOL    HW193440   7.989   7.972   5.554
30536SOL    HW293441   8.018   7.953   5.701
30537SOL     OW93442   3.384  10.732   8.706
30537SOL    HW193443   3.384  10.637   8.696
30537SOL    HW293444   3.303  10.761   8.663
30538SOL     OW93445   5.519   9.659   7.615
30538SOL    HW193446   5.514   9.752   7.592
30538SOL    HW293447   5.442   9.620   7.574
30539SOL     OW93448  12.652  14.057  14.649
30539SOL    HW193449  12.703  14.079  14.727
30539SOL    HW293450  12.713  14.009  14.594
30540SOL     OW93451   1.622   6.502   8.413
30540SOL    HW193452   1.674   6.582   8.419
30540SOL    HW293453   1.543   6.522   8.463
30541SOL     OW93454   8.307   6.703   3.782
30541SOL    HW193455   8.360   6.762   3.728
30541SOL    HW293456   8.251   6.657   3.720
30542SOL     OW93457   3.043   5.171   8.179
30542SOL    HW193458   3.010   5.249   8.133
30542SOL    HW293459   2.978   5.155   8.247
30543SOL     OW93460   5.610   7.224  14.263
30543SOL    HW193461   5.566   7.309  14.258
30543SOL    HW293462   5.549   7.167  14.309
30544SOL     OW93463  14.503  13.563  11.892
30544SOL    HW193464  14.551  13.630  11.843
30544SOL    HW293465  14.436  13.612  11.940
30545SOL     OW93466   5.650   2.034   2.704
30545SOL    HW193467   5.567   2.042   2.656
30545SOL    HW293468   5.626   1.988   2.785
30546SOL     OW93469   9.138   3.533   0.137
30546SOL    HW193470   9.190   3.453   0.130
30546SOL    HW293471   9.161   3.569   0.222
30547SOL     OW93472   6.164  12.171  12.086
30547SOL    HW193473   6.189  12.113  12.159
30547SOL    HW293474   6.232  12.157  12.020
30548SOL     OW93475   2.503   2.255   4.180
30548SOL    HW193476   2.579   2.277   4.127
30548SOL    HW293477   2.447   2.203   4.121
30549SOL     OW93478  10.527   7.656  12.938
30549SOL    HW193479  10.558   7.694  13.020
30549SOL    HW293480  10.543   7.723  12.872
30550SOL     OW93481   7.478   2.504   3.998
30550SOL    HW193482   7.387   2.479   4.017
30550SOL    HW293483   7.486   2.492   3.903
30551SOL     OW93484   2.636  10.235   1.299
30551SOL    HW193485   2.557  10.220   1.350
30551SOL    HW293486   2.675  10.148   1.288
30552SOL     OW93487   3.620   2.438   0.051
30552SOL    HW193488   3.627   2.479  14.847
30552SOL    HW293489   3.674   2.360   0.046
30553SOL     OW93490  12.881  12.371  11.092
30553SOL    HW193491  12.947  12.433  11.121
30553SOL    HW293492  12.927  12.314  11.031
30554SOL     OW93493   7.732   7.570   3.223
30554SOL    HW193494   7.718   7.498   3.162
30554SOL    HW293495   7.679   7.548   3.299
30555SOL     OW93496   0.262   2.323  13.023
30555SOL    HW193497   0.179   2.308  13.068
30555SOL    HW293498   0.326   2.271  13.072
30556SOL     OW93499   0.218   7.333   7.096
30556SOL    HW193500   0.269   7.257   7.069
30556SOL    HW293501   0.129   7.300   7.105
30557SOL     OW93502  13.490   1.474   9.897
30557SOL    HW193503  13.473   1.481   9.991
30557SOL    HW293504  13.544   1.396   9.888
30558SOL     OW93505   9.604  11.697   6.111
30558SOL    HW193506   9.531  11.665   6.164
30558SOL    HW293507   9.669  11.626   6.115
30559SOL     OW93508   2.702   1.864  14.294
30559SOL    HW193509   2.666   1.918  14.224
30559SOL    HW293510   2.711   1.923  14.369
30560SOL     OW93511   5.437   6.757   9.750
30560SOL    HW193512   5.479   6.671   9.751
30560SOL    HW293513   5.447   6.787   9.660
30561SOL     OW93514   4.107   3.252   8.847
30561SOL    HW193515   4.183   3.302   8.875
30561SOL    HW293516   4.093   3.188   8.916
30562SOL     OW93517  10.098  10.622   2.412
30562SOL    HW193518  10.017  10.671   2.401
30562SOL    HW293519  10.071  10.530   2.413
30563SOL     OW93520  12.679   6.337  14.414
30563SOL    HW193521  12.735   6.345  14.491
30563SOL    HW293522  12.737   6.349  14.340
30564SOL     OW93523   0.163   2.801   5.318
30564SOL    HW193524   0.208   2.886   5.315
30564SOL    HW293525   0.139   2.784   5.227
30565SOL     OW93526   9.845   1.700   5.690
30565SOL    HW193527   9.767   1.650   5.715
30565SOL    HW293528   9.918   1.641   5.707
30566SOL     OW93529   6.079   3.847   1.525
30566SOL    HW193530   6.061   3.793   1.602
30566SOL    HW293531   5.995   3.886   1.502
30567SOL     OW93532  13.198  14.225   3.911
30567SOL    HW193533  13.178  14.140   3.950
30567SOL    HW293534  13.219  14.281   3.985
30568SOL     OW93535  14.175   9.494  14.183
30568SOL    HW193536  14.186   9.402  14.205
30568SOL    HW293537  14.171   9.497  14.088
30569SOL     OW93538  14.330   9.825   9.436
30569SOL    HW193539  14.345   9.850   9.345
30569SOL    HW293540  14.259   9.883   9.466
30570SOL     OW93541   0.557   1.412   6.285
30570SOL    HW193542   0.622   1.357   6.330
30570SOL    HW293543   0.518   1.354   6.219
30571SOL     OW93544  12.326   3.707  13.315
30571SOL    HW193545  12.352   3.753  13.235
30571SOL    HW293546  12.245   3.750  13.343
30572SOL     OW93547   0.236   5.496  12.172
30572SOL    HW193548   0.184   5.527  12.246
30572SOL    HW293549   0.315   5.550  12.173
30573SOL     OW93550   2.738  12.172  13.549
30573SOL    HW193551   2.754  12.091  13.597
30573SOL    HW293552   2.723  12.238  13.617
30574SOL     OW93553  14.694   9.995   6.262
30574SOL    HW193554  14.611   9.998   6.311
30574SOL    HW293555  14.717   9.902   6.259
30575SOL     OW93556  10.810   9.466   9.748
30575SOL    HW193557  10.796   9.386   9.697
30575SOL    HW293558  10.722   9.493   9.775
30576SOL     OW93559   0.491  13.567   9.281
30576SOL    HW193560   0.443  13.634   9.329
30576SOL    HW293561   0.575  13.607   9.261
30577SOL     OW93562  13.323  12.902  14.734
30577SOL    HW193563  13.251  12.850  14.699
30577SOL    HW293564  13.401  12.867  14.692
30578SOL     OW93565   1.035   0.837   9.155
30578SOL    HW193566   0.956   0.785   9.140
30578SOL    HW293567   1.104   0.789   9.108
30579SOL     OW93568   4.491   5.693  13.955
30579SOL    HW193569   4.473   5.614  14.006
30579SOL    HW293570   4.410   5.743  13.959
30580SOL     OW93571   4.391   5.935  11.578
30580SOL    HW193572   4.462   5.914  11.516
30580SOL    HW293573   4.409   6.025  11.605
30581SOL     OW93574   8.194   6.097   4.284
30581SOL    HW193575   8.167   6.183   4.252
30581SOL    HW293576   8.199   6.042   4.205
30582SOL     OW93577  14.824   5.697   5.458
30582SOL    HW193578  14.861   5.665   5.376
30582SOL    HW293579  14.758   5.633   5.482
30583SOL     OW93580  12.222   3.674  12.804
30583SOL    HW193581  12.204   3.738  12.872
30583SOL    HW293582  12.297   3.624  12.837
30584SOL     OW93583   0.183   6.477   6.122
30584SOL    HW193584   0.191   6.566   6.158
30584SOL    HW293585   0.113   6.437   6.173
30585SOL     OW93586   6.092   5.142   9.838
30585SOL    HW193587   6.122   5.062   9.795
30585SOL    HW293588   6.170   5.177   9.880
30586SOL     OW93589   8.155  13.237   9.153
30586SOL    HW193590   8.143  13.297   9.079
30586SOL    HW293591   8.181  13.154   9.113
30587SOL     OW93592   4.862   1.950   7.497
30587SOL    HW193593   4.821   1.966   7.582
30587SOL    HW293594   4.857   1.856   7.485
30588SOL     OW93595   1.270   4.073   0.847
30588SOL    HW193596   1.332   4.008   0.814
30588SOL    HW293597   1.294   4.154   0.801
30589SOL     OW93598  12.023   2.511   5.672
30589SOL    HW193599  12.023   2.440   5.736
30589SOL    HW293600  11.949   2.491   5.615
30590SOL     OW93601  11.763   5.177   1.286
30590SOL    HW193602  11.816   5.098   1.273
30590SOL    HW293603  11.690   5.168   1.226
30591SOL     OW93604   7.873   6.658   4.697
30591SOL    HW193605   7.861   6.617   4.783
30591SOL    HW293606   7.806   6.726   4.693
30592SOL     OW93607   4.281   8.517  12.606
30592SOL    HW193608   4.337   8.491  12.533
30592SOL    HW293609   4.327   8.592  12.645
30593SOL     OW93610   3.874  10.337  13.333
30593SOL    HW193611   3.813  10.323  13.406
30593SOL    HW293612   3.891  10.249  13.299
30594SOL     OW93613   1.693   6.862  14.309
30594SOL    HW193614   1.764   6.883  14.370
30594SOL    HW293615   1.647   6.945  14.296
30595SOL     OW93616  12.413   6.896   4.770
30595SOL    HW193617  12.321   6.900   4.793
30595SOL    HW293618  12.417   6.932   4.681
30596SOL     OW93619   3.115   1.979   0.540
30596SOL    HW193620   3.090   2.041   0.608
30596SOL    HW293621   3.163   2.032   0.476
30597SOL     OW93622   9.086   3.219   9.785
30597SOL    HW193623   9.053   3.266   9.709
30597SOL    HW293624   9.141   3.150   9.749
30598SOL     OW93625   7.646  12.040   4.438
30598SOL    HW193626   7.693  12.006   4.514
30598SOL    HW293627   7.703  12.019   4.364
30599SOL     OW93628  11.171   6.706   1.839
30599SOL    HW193629  11.093   6.717   1.785
30599SOL    HW293630  11.208   6.622   1.810
30600SOL     OW93631   3.401  11.864   0.502
30600SOL    HW193632   3.373  11.807   0.573
30600SOL    HW293633   3.421  11.805   0.429
30601SOL     OW93634   1.841  11.564   6.891
30601SOL    HW193635   1.817  11.655   6.877
30601SOL    HW293636   1.912  11.567   6.955
30602SOL     OW93637   3.869   7.756   8.424
30602SOL    HW193638   3.903   7.832   8.471
30602SOL    HW293639   3.786   7.786   8.386
30603SOL     OW93640  14.438  14.732  11.888
30603SOL    HW193641  14.490  14.799  11.846
30603SOL    HW293642  14.463  14.650  11.845
30604SOL     OW93643   6.806  13.460   1.166
30604SOL    HW193644   6.775  13.518   1.097
30604SOL    HW293645   6.756  13.380   1.155
30605SOL     OW93646   7.795   8.246   2.963
30605SOL    HW193647   7.750   8.258   2.880
30605SOL    HW293648   7.778   8.327   3.012
30606SOL     OW93649   6.702   0.404  11.524
30606SOL    HW193650   6.769   0.464  11.556
30606SOL    HW293651   6.709   0.411  11.428
30607SOL     OW93652   9.158   8.615   4.056
30607SOL    HW193653   9.253   8.608   4.054
30607SOL    HW293654   9.136   8.637   4.146
30608SOL     OW93655   4.453   3.976   6.041
30608SOL    HW193656   4.412   3.926   5.970
30608SOL    HW293657   4.482   4.057   6.000
30609SOL     OW93658  11.400  11.835  13.915
30609SOL    HW193659  11.410  11.890  13.838
30609SOL    HW293660  11.344  11.886  13.974
30610SOL     OW93661   5.209   7.544   0.346
30610SOL    HW193662   5.149   7.520   0.275
30610SOL    HW293663   5.182   7.489   0.420
30611SOL     OW93664   8.064   1.875  11.816
30611SOL    HW193665   8.139   1.877  11.757
30611SOL    HW293666   8.067   1.961  11.860
30612SOL     OW93667   8.615   5.463   5.709
30612SOL    HW193668   8.542   5.511   5.670
30612SOL    HW293669   8.670   5.531   5.749
30613SOL     OW93670   7.222   5.023   7.591
30613SOL    HW193671   7.162   4.969   7.643
30613SOL    HW293672   7.170   5.099   7.566
30614SOL     OW93673   6.503   9.939  12.634
30614SOL    HW193674   6.421   9.897  12.659
30614SOL    HW293675   6.564   9.916  12.703
30615SOL     OW93676   4.017  13.737  12.781
30615SOL    HW193677   4.076  13.701  12.848
30615SOL    HW293678   4.066  13.809  12.742
30616SOL     OW93679  12.402   2.941  12.803
30616SOL    HW193680  12.455   2.924  12.881
30616SOL    HW293681  12.446   3.014  12.760
30617SOL     OW93682  12.718   6.489   0.354
30617SOL    HW193683  12.749   6.572   0.390
30617SOL    HW293684  12.685   6.440   0.429
30618SOL     OW93685  13.710  14.030   6.086
30618SOL    HW193686  13.803  14.053   6.087
30618SOL    HW293687  13.665  14.113   6.070
30619SOL     OW93688   3.320  14.851  14.556
30619SOL    HW193689   3.374   0.001  14.484
30619SOL    HW293690   3.321  14.756  14.547
30620SOL     OW93691  14.128  10.391  14.067
30620SOL    HW193692  14.096  10.430  13.986
30620SOL    HW293693  14.207  10.441  14.088
30621SOL     OW93694   6.928   3.677  12.757
30621SOL    HW193695   6.887   3.640  12.680
30621SOL    HW293696   6.886   3.633  12.831
30622SOL     OW93697  14.031   3.016   5.091
30622SOL    HW193698  14.019   3.096   5.143
30622SOL    HW293699  14.081   2.958   5.148
30623SOL     OW93700  11.863   2.749   9.152
30623SOL    HW193701  11.808   2.673   9.172
30623SOL    HW293702  11.951   2.713   9.140
30624SOL     OW93703   2.755   9.729  10.366
30624SOL    HW193704   2.759   9.820  10.336
30624SOL    HW293705   2.847   9.703  10.375
30625SOL     OW93706   8.929  13.924   6.923
30625SOL    HW193707   9.016  13.955   6.898
30625SOL    HW293708   8.868  13.985   6.881
30626SOL     OW93709   8.601   1.152  14.479
30626SOL    HW193710   8.689   1.160  14.443
30626SOL    HW293711   8.560   1.083  14.428
30627SOL     OW93712  12.237   4.488   1.916
30627SOL    HW193713  12.295   4.534   1.856
30627SOL    HW293714  12.193   4.558   1.965
30628SOL     OW93715   2.717   6.829  12.649
30628SOL    HW193716   2.752   6.785  12.572
30628SOL    HW293717   2.662   6.763  12.692
30629SOL     OW93718  14.159   1.645   7.624
30629SOL    HW193719  14.134   1.556   7.601
30629SOL    HW293720  14.121   1.659   7.711
30630SOL     OW93721   8.688  13.812  10.619
30630SOL    HW193722   8.650  13.830  10.705
30630SOL    HW293723   8.637  13.866  10.558
30631SOL     OW93724   2.867   3.944   5.876
30631SOL    HW193725   2.797   3.941   5.941
30631SOL    HW293726   2.851   3.869   5.819
30632SOL     OW93727   4.329   2.404  10.874
30632SOL    HW193728   4.298   2.474  10.816
30632SOL    HW293729   4.261   2.396  10.941
30633SOL     OW93730   6.252  13.761   8.634
30633SOL    HW193731   6.157  13.766   8.645
30633SOL    HW293732   6.287  13.775   8.721
30634SOL     OW93733  12.022  11.417  10.480
30634SOL    HW193734  12.086  11.361  10.523
30634SOL    HW293735  11.978  11.464  10.551
30635SOL     OW93736   2.870  12.005   3.468
30635SOL    HW193737   2.793  11.948   3.475
30635SOL    HW293738   2.899  12.018   3.558
30636SOL     OW93739   6.560  13.455   1.006
30636SOL    HW193740   6.517  13.455   0.921
30636SOL    HW293741   6.609  13.538   1.009
30637SOL     OW93742  11.969   4.697   7.852
30637SOL    HW193743  11.999   4.787   7.839
30637SOL    HW293744  11.947   4.693   7.945
30638SOL     OW93745  11.646   8.208   5.820
30638SOL    HW193746  11.733   8.247   5.827
30638SOL    HW293747  11.589   8.269   5.866
30639SOL     OW93748   6.031  10.512   3.890
30639SOL    HW193749   6.016  10.578   3.958
30639SOL    HW293750   6.057  10.562   3.813
30640SOL     OW93751  12.346  10.749   5.861
30640SOL    HW193752  12.319  10.788   5.945
30640SOL    HW293753  12.264  10.718   5.822
30641SOL     OW93754  14.431   2.921   5.459
30641SOL    HW193755  14.391   3.002   5.426
30641SOL    HW293756  14.506   2.952   5.511
30642SOL     OW93757  10.075   3.798   1.978
30642SOL    HW193758  10.000   3.840   2.019
30642SOL    HW293759  10.041   3.765   1.894
30643SOL     OW93760   6.710   7.034   1.507
30643SOL    HW193761   6.788   6.999   1.549
30643SOL    HW293762   6.637   7.000   1.559
30644SOL     OW93763   4.190  11.320   1.954
30644SOL    HW193764   4.136  11.249   1.989
30644SOL    HW293765   4.128  11.377   1.908
30645SOL     OW93766   6.342  12.321   8.477
30645SOL    HW193767   6.376  12.240   8.440
30645SOL    HW293768   6.248  12.306   8.487
30646SOL     OW93769   2.583   6.063  10.982
30646SOL    HW193770   2.624   6.140  10.942
30646SOL    HW293771   2.554   6.093  11.068
30647SOL     OW93772   9.042  14.565   4.352
30647SOL    HW193773   9.051  14.487   4.406
30647SOL    HW293774   9.126  14.611   4.363
30648SOL     OW93775   3.462   7.786   2.357
30648SOL    HW193776   3.390   7.751   2.410
30648SOL    HW293777   3.541   7.757   2.403
30649SOL     OW93778   3.685   3.592   6.225
30649SOL    HW193779   3.681   3.671   6.171
30649SOL    HW293780   3.696   3.624   6.315
30650SOL     OW93781   8.313   9.354   1.933
30650SOL    HW193782   8.290   9.349   2.026
30650SOL    HW293783   8.230   9.373   1.889
30651SOL     OW93784  14.334   7.071   3.995
30651SOL    HW193785  14.355   7.134   4.063
30651SOL    HW293786  14.412   7.015   3.988
30652SOL     OW93787  13.424   4.327   1.262
30652SOL    HW193788  13.501   4.286   1.301
30652SOL    HW293789  13.414   4.410   1.310
30653SOL     OW93790   6.693   2.358   8.979
30653SOL    HW193791   6.749   2.306   9.037
30653SOL    HW293792   6.711   2.449   9.005
30654SOL     OW93793  14.005  10.633   4.771
30654SOL    HW193794  13.932  10.600   4.824
30654SOL    HW293795  14.016  10.724   4.800
30655SOL     OW93796  14.630   6.039  13.784
30655SOL    HW193797  14.604   5.948  13.772
30655SOL    HW293798  14.699   6.035  13.850
30656SOL     OW93799   2.550  10.264  14.139
30656SOL    HW193800   2.579  10.315  14.214
30656SOL    HW293801   2.589  10.308  14.063
30657SOL     OW93802   8.432   0.243   3.891
30657SOL    HW193803   8.459   0.165   3.841
30657SOL    HW293804   8.462   0.224   3.980
30658SOL     OW93805  10.797  11.789   6.556
30658SOL    HW193806  10.716  11.836   6.535
30658SOL    HW293807  10.779  11.698   6.530
30659SOL     OW93808   5.697  12.446  14.150
30659SOL    HW193809   5.735  12.525  14.188
30659SOL    HW293810   5.670  12.473  14.062
30660SOL     OW93811   1.202   1.048   8.441
30660SOL    HW193812   1.292   1.054   8.470
30660SOL    HW293813   1.208   1.012   8.352
30661SOL     OW93814   4.544  11.256   5.588
30661SOL    HW193815   4.531  11.351   5.587
30661SOL    HW293816   4.471  11.221   5.537
30662SOL     OW93817  12.528   7.089   2.819
30662SOL    HW193818  12.609   7.118   2.779
30662SOL    HW293819  12.491   7.167   2.860
30663SOL     OW93820   1.986   3.620   4.484
30663SOL    HW193821   2.031   3.685   4.429
30663SOL    HW293822   1.920   3.581   4.426
30664SOL     OW93823   5.695  13.267   1.114
30664SOL    HW193824   5.692  13.176   1.083
30664SOL    HW293825   5.765  13.307   1.063
30665SOL     OW93826   8.154   3.866   1.829
30665SOL    HW193827   8.166   3.775   1.800
30665SOL    HW293828   8.073   3.863   1.880
30666SOL     OW93829   1.390   6.210  12.726
30666SOL    HW193830   1.467   6.261  12.750
30666SOL    HW293831   1.400   6.127  12.773
30667SOL     OW93832   5.196   0.201   1.501
30667SOL    HW193833   5.227   0.290   1.485
30667SOL    HW293834   5.106   0.200   1.468
30668SOL     OW93835   6.815   0.718   9.844
30668SOL    HW193836   6.745   0.779   9.821
30668SOL    HW293837   6.864   0.707   9.762
30669SOL     OW93838   6.620   7.434   9.842
30669SOL    HW193839   6.567   7.477   9.776
30669SOL    HW293840   6.675   7.503   9.878
30670SOL     OW93841   7.193   0.356   0.880
30670SOL    HW193842   7.188   0.279   0.937
30670SOL    HW293843   7.143   0.423   0.926
30671SOL     OW93844   8.074   7.092   2.452
30671SOL    HW193845   8.072   7.054   2.364
30671SOL    HW293846   8.128   7.032   2.503
30672SOL     OW93847  14.085   3.683  10.559
30672SOL    HW193848  14.036   3.623  10.503
30672SOL    HW293849  14.057   3.770  10.530
30673SOL     OW93850  12.294   5.548   0.856
30673SOL    HW193851  12.313   5.605   0.781
30673SOL    HW293852  12.231   5.598   0.908
30674SOL     OW93853   5.321  10.044   4.725
30674SOL    HW193854   5.294  10.096   4.649
30674SOL    HW293855   5.366   9.968   4.687
30675SOL     OW93856   2.985   3.650  11.192
30675SOL    HW193857   2.971   3.653  11.098
30675SOL    HW293858   2.934   3.574  11.221
30676SOL     OW93859   0.796   4.248  12.721
30676SOL    HW193860   0.882   4.207  12.732
30676SOL    HW293861   0.758   4.204  12.645
30677SOL     OW93862  13.517   8.265   2.326
30677SOL    HW193863  13.431   8.306   2.334
30677SOL    HW293864  13.532   8.259   2.231
30678SOL     OW93865   5.957  10.645   7.973
30678SOL    HW193866   5.967  10.614   7.883
30678SOL    HW293867   5.883  10.596   8.007
30679SOL     OW93868  14.551   5.327   9.345
30679SOL    HW193869  14.560   5.391   9.416
30679SOL    HW293870  14.615   5.354   9.280
30680SOL     OW93871   3.624   8.331  14.340
30680SOL    HW193872   3.567   8.309  14.414
30680SOL    HW293873   3.580   8.293  14.264
30681SOL     OW93874  13.599   8.346   7.801
30681SOL    HW193875  13.536   8.350   7.872
30681SOL    HW293876  13.659   8.276   7.826
30682SOL     OW93877   4.799   6.907   2.659
30682SOL    HW193878   4.795   6.964   2.736
30682SOL    HW293879   4.891   6.906   2.634
30683SOL     OW93880  14.262  11.051  10.399
30683SOL    HW193881  14.268  11.107  10.476
30683SOL    HW293882  14.280  11.110  10.325
30684SOL     OW93883  14.304   3.646  12.494
30684SOL    HW193884  14.214   3.672  12.511
30684SOL    HW293885  14.315   3.563  12.541
30685SOL     OW93886   1.472  14.222   9.726
30685SOL    HW193887   1.415  14.296   9.745
30685SOL    HW293888   1.436  14.184   9.646
30686SOL     OW93889  11.189   6.270   3.949
30686SOL    HW193890  11.209   6.204   3.882
30686SOL    HW293891  11.164   6.218   4.026
30687SOL     OW93892  14.254   7.092  11.912
30687SOL    HW193893  14.249   7.113  12.005
30687SOL    HW293894  14.270   7.177  11.870
30688SOL     OW93895   3.246   3.891   1.949
30688SOL    HW193896   3.300   3.886   2.028
30688SOL    HW293897   3.184   3.962   1.967
30689SOL     OW93898   7.257   3.346  12.344
30689SOL    HW193899   7.178   3.340  12.290
30689SOL    HW293900   7.225   3.358  12.433
30690SOL     OW93901   7.984  11.373  14.413
30690SOL    HW193902   7.974  11.293  14.360
30690SOL    HW293903   8.077  11.374  14.437
30691SOL     OW93904  13.844   6.470   5.734
30691SOL    HW193905  13.774   6.414   5.701
30691SOL    HW293906  13.854   6.537   5.666
30692SOL     OW93907  13.871   8.255  12.598
30692SOL    HW193908  13.833   8.314  12.532
30692SOL    HW293909  13.920   8.313  12.656
30693SOL     OW93910   1.727   2.112   9.872
30693SOL    HW193911   1.796   2.048   9.854
30693SOL    HW293912   1.767   2.197   9.852
30694SOL     OW93913   6.574   2.158  10.462
30694SOL    HW193914   6.505   2.127  10.403
30694SOL    HW293915   6.638   2.086  10.462
30695SOL     OW93916  14.353   6.527  11.768
30695SOL    HW193917  14.340   6.538  11.863
30695SOL    HW293918  14.270   6.492  11.736
30696SOL     OW93919  13.334   0.308   5.929
30696SOL    HW193920  13.401   0.243   5.951
30696SOL    HW293921  13.290   0.326   6.012
30697SOL     OW93922  14.440  12.612   9.830
30697SOL    HW193923  14.407  12.682   9.773
30697SOL    HW293924  14.498  12.561   9.774
30698SOL     OW93925   8.514   0.110  11.574
30698SOL    HW193926   8.579   0.085  11.508
30698SOL    HW293927   8.430   0.081  11.537
30699SOL     OW93928   7.253  10.873  12.651
30699SOL    HW193929   7.335  10.846  12.692
30699SOL    HW293930   7.276  10.888  12.559
30700SOL     OW93931  12.083   2.458  10.092
30700SOL    HW193932  12.002   2.420  10.126
30700SOL    HW293933  12.091   2.542  10.138
30701SOL     OW93934   4.086  14.383   1.306
30701SOL    HW193935   4.068  14.418   1.394
30701SOL    HW293936   4.015  14.416   1.252
30702SOL     OW93937   0.874  12.800  13.716
30702SOL    HW193938   0.966  12.817  13.736
30702SOL    HW293939   0.844  12.741  13.785
30703SOL     OW93940   0.221   3.350   0.555
30703SOL    HW193941   0.166   3.415   0.597
30703SOL    HW293942   0.174   3.326   0.475
30704SOL     OW93943   7.187  13.441   4.173
30704SOL    HW193944   7.149  13.384   4.240
30704SOL    HW293945   7.266  13.476   4.214
30705SOL     OW93946   0.722  14.330   2.833
30705SOL    HW193947   0.759  14.378   2.907
30705SOL    HW293948   0.644  14.380   2.809
30706SOL     OW93949   1.255  10.803   2.275
30706SOL    HW193950   1.237  10.880   2.328
30706SOL    HW293951   1.237  10.729   2.333
30707SOL     OW93952   4.365  10.131   6.931
30707SOL    HW193953   4.403  10.105   7.015
30707SOL    HW293954   4.278  10.165   6.953
30708SOL     OW93955  10.981   0.534  13.557
30708SOL    HW193956  11.033   0.586  13.496
30708SOL    HW293957  10.901   0.585  13.570
30709SOL     OW93958  10.325  11.371  13.718
30709SOL    HW193959  10.390  11.431  13.681
30709SOL    HW293960  10.274  11.342  13.642
30710SOL     OW93961   7.227   7.704   6.505
30710SOL    HW193962   7.277   7.710   6.586
30710SOL    HW293963   7.292   7.683   6.438
30711SOL     OW93964   1.396   6.587   6.133
30711SOL    HW193965   1.302   6.588   6.115
30711SOL    HW293966   1.433   6.530   6.066
30712SOL     OW93967  11.080   3.826   8.475
30712SOL    HW193968  11.112   3.819   8.565
30712SOL    HW293969  11.024   3.904   8.476
30713SOL     OW93970  12.877  14.217   6.346
30713SOL    HW193971  12.935  14.195   6.273
30713SOL    HW293972  12.828  14.137   6.364
30714SOL     OW93973   1.912   0.692   2.126
30714SOL    HW193974   1.936   0.634   2.053
30714SOL    HW293975   1.840   0.647   2.170
30715SOL     OW93976   1.334   6.247   8.373
30715SOL    HW193977   1.401   6.226   8.309
30715SOL    HW293978   1.274   6.172   8.371
30716SOL     OW93979   5.829   1.201  12.309
30716SOL    HW193980   5.866   1.287  12.327
30716SOL    HW293981   5.903   1.148  12.281
30717SOL     OW93982  14.170   9.033   8.450
30717SOL    HW193983  14.115   8.994   8.382
30717SOL    HW293984  14.135   8.998   8.532
30718SOL     OW93985   9.863   4.737  10.797
30718SOL    HW193986   9.893   4.704  10.881
30718SOL    HW293987   9.829   4.659  10.751
30719SOL     OW93988  14.003   3.795   8.341
30719SOL    HW193989  14.056   3.731   8.294
30719SOL    HW293990  14.067   3.861   8.370
30720SOL     OW93991   5.882  14.206   2.676
30720SOL    HW193992   5.852  14.140   2.738
30720SOL    HW293993   5.926  14.156   2.607
30721SOL     OW93994   7.259  14.479  10.914
30721SOL    HW193995   7.207  14.558  10.929
30721SOL    HW293996   7.248  14.428  10.994
30722SOL     OW93997   2.692   9.127   1.799
30722SOL    HW193998   2.649   9.140   1.884
30722SOL    HW293999   2.713   9.216   1.770
30723SOL     OW94000   1.856  10.149  13.564
30723SOL    HW194001   1.901  10.082  13.615
30723SOL    HW294002   1.926  10.201  13.525
30724SOL     OW94003  13.945  14.669  10.281
30724SOL    HW194004  13.858  14.680  10.320
30724SOL    HW294005  13.931  14.608  10.209
30725SOL     OW94006  13.022  13.482  11.179
30725SOL    HW194007  12.946  13.460  11.126
30725SOL    HW294008  13.096  13.440  11.135
30726SOL     OW94009   9.186   0.127   3.281
30726SOL    HW194010   9.266   0.169   3.313
30726SOL    HW294011   9.131   0.199   3.251
30727SOL     OW94012   8.634  11.260   9.175
30727SOL    HW194013   8.569  11.331   9.171
30727SOL    HW294014   8.718  11.304   9.160
30728SOL     OW94015  10.166  14.603   9.296
30728SOL    HW194016  10.120  14.668   9.243
30728SOL    HW294017  10.106  14.583   9.367
30729SOL     OW94018   9.820  12.865   3.876
30729SOL    HW194019   9.832  12.773   3.897
30729SOL    HW294020   9.752  12.895   3.936
30730SOL     OW94021  14.728  14.679   7.265
30730SOL    HW194022  14.685  14.764   7.256
30730SOL    HW294023  14.735  14.666   7.360
30731SOL     OW94024   9.343   8.682   6.090
30731SOL    HW194025   9.261   8.634   6.079
30731SOL    HW294026   9.321   8.773   6.071
30732SOL     OW94027   3.110   1.749   0.880
30732SOL    HW194028   3.152   1.759   0.795
30732SOL    HW294029   3.174   1.700   0.932
30733SOL     OW94030   9.852   7.684   8.357
30733SOL    HW194031   9.771   7.649   8.320
30733SOL    HW294032   9.899   7.721   8.283
30734SOL     OW94033   3.637   3.759   2.072
30734SOL    HW194034   3.562   3.787   2.125
30734SOL    HW294035   3.622   3.666   2.058
30735SOL     OW94036  11.022  10.163  13.047
30735SOL    HW194037  10.977  10.087  13.011
30735SOL    HW294038  11.037  10.221  12.972
30736SOL     OW94039   0.097   8.022  11.785
30736SOL    HW194040   0.130   8.111  11.772
30736SOL    HW294041   0.140   7.970  11.718
30737SOL     OW94042   7.161  11.523   8.531
30737SOL    HW194043   7.248  11.556   8.555
30737SOL    HW294044   7.110  11.602   8.514
30738SOL     OW94045  13.367  13.154  13.640
30738SOL    HW194046  13.352  13.235  13.689
30738SOL    HW294047  13.286  13.141  13.591
30739SOL     OW94048   2.725  14.092   8.038
30739SOL    HW194049   2.700  14.103   8.130
30739SOL    HW294050   2.767  14.175   8.015
30740SOL     OW94051   5.520   1.541   3.271
30740SOL    HW194052   5.614   1.547   3.289
30740SOL    HW294053   5.485   1.626   3.300
30741SOL     OW94054  11.615   8.193   2.971
30741SOL    HW194055  11.695   8.197   3.024
30741SOL    HW294056  11.643   8.152   2.889
30742SOL     OW94057   2.865  14.018   3.362
30742SOL    HW194058   2.883  14.031   3.269
30742SOL    HW294059   2.916  14.086   3.406
30743SOL     OW94060   7.410   7.897  11.214
30743SOL    HW194061   7.397   7.808  11.247
30743SOL    HW294062   7.486   7.891  11.157
30744SOL     OW94063  12.332  13.078  14.782
30744SOL    HW194064  12.395  13.011  14.758
30744SOL    HW294065  12.350  13.151  14.722
30745SOL     OW94066  14.515   2.669  11.349
30745SOL    HW194067  14.434   2.647  11.302
30745SOL    HW294068  14.501   2.758  11.380
30746SOL     OW94069  12.442   4.763   5.880
30746SOL    HW194070  12.382   4.763   5.806
30746SOL    HW294071  12.433   4.676   5.919
30747SOL     OW94072  14.021   4.754   2.168
30747SOL    HW194073  14.031   4.849   2.158
30747SOL    HW294074  14.053   4.736   2.257
30748SOL     OW94075   3.397   0.160  11.544
30748SOL    HW194076   3.335   0.097  11.580
30748SOL    HW294077   3.377   0.162  11.450
30749SOL     OW94078  10.447  12.729   9.737
30749SOL    HW194079  10.510  12.783   9.786
30749SOL    HW294080  10.474  12.639   9.756
30750SOL     OW94081  10.018   9.909   7.182
30750SOL    HW194082  10.020   9.865   7.097
30750SOL    HW294083   9.961   9.853   7.236
30751SOL     OW94084   3.361   2.598  11.789
30751SOL    HW194085   3.456   2.583  11.797
30751SOL    HW294086   3.322   2.513  11.808
30752SOL     OW94087   4.374  12.683   7.667
30752SOL    HW194088   4.283  12.674   7.696
30752SOL    HW294089   4.425  12.653   7.742
30753SOL     OW94090   3.559   0.338   0.592
30753SOL    HW194091   3.551   0.424   0.550
30753SOL    HW294092   3.555   0.357   0.686
30754SOL     OW94093  11.822   1.953  10.311
30754SOL    HW194094  11.848   1.909  10.391
30754SOL    HW294095  11.741   2.000  10.334
30755SOL     OW94096   3.946   5.035  13.662
30755SOL    HW194097   3.889   5.097  13.707
30755SOL    HW294098   3.896   4.953  13.662
30756SOL     OW94099  12.356   4.326  13.203
30756SOL    HW194100  12.347   4.291  13.114
30756SOL    HW294101  12.279   4.294  13.250
30757SOL     OW94102   6.388  11.573  11.458
30757SOL    HW194103   6.396  11.553  11.364
30757SOL    HW294104   6.325  11.645  11.462
30758SOL     OW94105   5.933  14.734   6.838
30758SOL    HW194106   5.915  14.713   6.929
30758SOL    HW294107   5.897  14.822   6.827
30759SOL     OW94108  11.361   4.549   7.319
30759SOL    HW194109  11.417   4.514   7.388
30759SOL    HW294110  11.412   4.541   7.239
30760SOL     OW94111   9.642  14.100   4.450
30760SOL    HW194112   9.601  14.144   4.375
30760SOL    HW294113   9.677  14.019   4.415
30761SOL     OW94114   2.393  12.016   3.272
30761SOL    HW194115   2.408  12.111   3.272
30761SOL    HW294116   2.375  11.994   3.181
30762SOL     OW94117   5.149  14.405   2.481
30762SOL    HW194118   5.231  14.382   2.525
30762SOL    HW294119   5.174  14.425   2.391
30763SOL     OW94120   3.272   2.811  14.788
30763SOL    HW194121   3.231   2.828  14.703
30763SOL    HW294122   3.345   2.752  14.768
30764SOL     OW94123   1.693  10.301   4.104
30764SOL    HW194124   1.654  10.224   4.146
30764SOL    HW294125   1.772  10.319   4.156
30765SOL     OW94126   1.953   1.323   7.315
30765SOL    HW194127   1.887   1.357   7.255
30765SOL    HW294128   1.904   1.270   7.377
30766SOL     OW94129   3.046  10.615   9.516
30766SOL    HW194130   3.140  10.620   9.498
30766SOL    HW294131   3.029  10.521   9.527
30767SOL     OW94132  11.445  10.444   2.789
30767SOL    HW194133  11.373  10.397   2.747
30767SOL    HW294134  11.451  10.407   2.877
30768SOL     OW94135   6.465   0.474  11.264
30768SOL    HW194136   6.428   0.494  11.178
30768SOL    HW294137   6.458   0.556  11.313
30769SOL     OW94138   3.943   1.648  11.789
30769SOL    HW194139   3.989   1.640  11.873
30769SOL    HW294140   3.885   1.572  11.786
30770SOL     OW94141   8.606   9.647  10.421
30770SOL    HW194142   8.601   9.735  10.382
30770SOL    HW294143   8.515   9.617  10.425
30771SOL     OW94144  13.312  10.536   7.654
30771SOL    HW194145  13.353  10.552   7.739
30771SOL    HW294146  13.386  10.520   7.595
30772SOL     OW94147  13.500   7.340   2.861
30772SOL    HW194148  13.447   7.341   2.781
30772SOL    HW294149  13.562   7.412   2.850
30773SOL     OW94150  13.517  10.698   6.512
30773SOL    HW194151  13.519  10.625   6.449
30773SOL    HW294152  13.559  10.770   6.466
30774SOL     OW94153  10.642   2.023   6.056
30774SOL    HW194154  10.689   2.103   6.032
30774SOL    HW294155  10.598   2.046   6.138
30775SOL     OW94156  13.850  11.453   8.434
30775SOL    HW194157  13.876  11.460   8.526
30775SOL    HW294158  13.754  11.445   8.437
30776SOL     OW94159   2.872   1.718  12.105
30776SOL    HW194160   2.914   1.632  12.111
30776SOL    HW294161   2.782   1.703  12.135
30777SOL     OW94162   4.863  10.984  11.630
30777SOL    HW194163   4.872  10.911  11.690
30777SOL    HW294164   4.857  10.944  11.543
30778SOL     OW94165   9.456  13.750  14.128
30778SOL    HW194166   9.433  13.754  14.036
30778SOL    HW294167   9.547  13.721  14.129
30779SOL     OW94168   6.910   9.988   0.809
30779SOL    HW194169   6.851   9.968   0.883
30779SOL    HW294170   6.903   9.912   0.752
30780SOL     OW94171   5.577   2.873   6.949
30780SOL    HW194172   5.641   2.942   6.970
30780SOL    HW294173   5.492   2.911   6.971
30781SOL     OW94174  11.434  10.026  10.440
30781SOL    HW194175  11.469  10.115  10.444
30781SOL    HW294176  11.468   9.983  10.519
30782SOL     OW94177   1.651   5.376   7.458
30782SOL    HW194178   1.652   5.293   7.505
30782SOL    HW294179   1.702   5.435   7.513
30783SOL     OW94180   3.302  11.262   0.687
30783SOL    HW194181   3.252  11.214   0.754
30783SOL    HW294182   3.236  11.288   0.623
30784SOL     OW94183   2.607   3.568   9.798
30784SOL    HW194184   2.532   3.539   9.746
30784SOL    HW294185   2.572   3.577   9.887
30785SOL     OW94186   3.687   0.115   5.751
30785SOL    HW194187   3.690   0.031   5.704
30785SOL    HW294188   3.774   0.122   5.792
30786SOL     OW94189  10.677   0.694  10.684
30786SOL    HW194190  10.591   0.694  10.642
30786SOL    HW294191  10.712   0.606  10.668
30787SOL     OW94192  12.378   1.760  12.522
30787SOL    HW194193  12.386   1.763  12.427
30787SOL    HW294194  12.383   1.852  12.550
30788SOL     OW94195   8.957   7.303  12.244
30788SOL    HW194196   8.866   7.297  12.215
30788SOL    HW294197   8.954   7.278  12.336
30789SOL     OW94198   3.604  14.697  10.955
30789SOL    HW194199   3.539  14.755  10.915
30789SOL    HW294200   3.608  14.724  11.047
30790SOL     OW94201  10.389  12.759  13.230
30790SOL    HW194202  10.336  12.681  13.243
30790SOL    HW294203  10.336  12.830  13.265
30791SOL     OW94204   4.626  11.419  13.382
30791SOL    HW194205   4.547  11.436  13.432
30791SOL    HW294206   4.678  11.499  13.389
30792SOL     OW94207   6.215  11.767   6.488
30792SOL    HW194208   6.198  11.859   6.508
30792SOL    HW294209   6.128  11.729   6.475
30793SOL     OW94210   9.600  11.516   0.527
30793SOL    HW194211   9.607  11.611   0.516
30793SOL    HW294212   9.659  11.480   0.461
30794SOL     OW94213   0.888   9.650  10.491
30794SOL    HW194214   0.932   9.565  10.485
30794SOL    HW294215   0.907   9.681  10.579
30795SOL     OW94216   4.701   1.221   0.348
30795SOL    HW194217   4.721   1.132   0.376
30795SOL    HW294218   4.779   1.272   0.371
30796SOL     OW94219   3.889   5.685   6.537
30796SOL    HW194220   3.852   5.770   6.560
30796SOL    HW294221   3.840   5.622   6.589
30797SOL     OW94222  11.698  14.237   7.412
30797SOL    HW194223  11.653  14.180   7.350
30797SOL    HW294224  11.791  14.222   7.396
30798SOL     OW94225   9.472  13.429  10.720
30798SOL    HW194226   9.532  13.383  10.660
30798SOL    HW294227   9.397  13.452  10.665
30799SOL     OW94228  14.043  12.729   6.284
30799SOL    HW194229  13.968  12.724   6.225
30799SOL    HW294230  14.017  12.676   6.360
30800SOL     OW94231  10.837   9.670   9.905
30800SOL    HW194232  10.785   9.633   9.976
30800SOL    HW294233  10.827   9.608   9.833
30801SOL     OW94234  14.764  11.948   9.812
30801SOL    HW194235  14.770  11.902   9.729
30801SOL    HW294236  14.672  11.939   9.839
30802SOL     OW94237  12.783   9.261   0.600
30802SOL    HW194238  12.864   9.230   0.559
30802SOL    HW294239  12.714   9.224   0.545
30803SOL     OW94240  14.463  10.487  12.416
30803SOL    HW194241  14.548  10.514  12.451
30803SOL    HW294242  14.450  10.399  12.452
30804SOL     OW94243   9.945   6.694   2.791
30804SOL    HW194244  10.025   6.673   2.840
30804SOL    HW294245   9.972   6.762   2.729
30805SOL     OW94246   2.267   0.231   1.213
30805SOL    HW194247   2.262   0.308   1.157
30805SOL    HW294248   2.286   0.158   1.153
30806SOL     OW94249  10.917   0.918   1.860
30806SOL    HW194250  10.918   0.822   1.858
30806SOL    HW294251  10.977   0.943   1.789
30807SOL     OW94252   8.666  12.698   7.218
30807SOL    HW194253   8.692  12.718   7.128
30807SOL    HW294254   8.626  12.778   7.251
30808SOL     OW94255  13.887   8.962   0.401
30808SOL    HW194256  13.973   8.979   0.363
30808SOL    HW294257  13.905   8.942   0.493
30809SOL     OW94258  14.692   1.815  10.200
30809SOL    HW194259  14.743   1.890  10.231
30809SOL    HW294260  14.672   1.835  10.109
30810SOL     OW94261  10.997   1.218   8.907
30810SOL    HW194262  11.069   1.268   8.869
30810SOL    HW294263  11.027   1.127   8.903
30811SOL     OW94264   5.848   4.223  13.490
30811SOL    HW194265   5.881   4.173  13.565
30811SOL    HW294266   5.759   4.247  13.514
30812SOL     OW94267   9.949   1.731  13.934
30812SOL    HW194268   9.933   1.824  13.918
30812SOL    HW294269   9.940   1.690  13.849
30813SOL     OW94270   3.187  13.357   1.678
30813SOL    HW194271   3.229  13.427   1.627
30813SOL    HW294272   3.104  13.395   1.707
30814SOL     OW94273  10.954   0.591   7.422
30814SOL    HW194274  10.870   0.603   7.466
30814SOL    HW294275  11.017   0.582   7.494
30815SOL     OW94276   8.251   0.365   1.652
30815SOL    HW194277   8.266   0.401   1.565
30815SOL    HW294278   8.158   0.383   1.671
30816SOL     OW94279  14.001   3.546  14.387
30816SOL    HW194280  13.980   3.614  14.324
30816SOL    HW294281  13.921   3.534  14.438
30817SOL     OW94282   8.945   0.810   5.161
30817SOL    HW194283   8.941   0.894   5.209
30817SOL    HW294284   8.853   0.786   5.148
30818SOL     OW94285   9.342  10.073   1.947
30818SOL    HW194286   9.404  10.121   1.893
30818SOL    HW294287   9.269  10.135   1.960
30819SOL     OW94288   9.562   9.815  10.906
30819SOL    HW194289   9.497   9.747  10.926
30819SOL    HW294290   9.561   9.872  10.983
30820SOL     OW94291   1.993  14.541   9.090
30820SOL    HW194292   2.002  14.597   9.013
30820SOL    HW294293   1.919  14.578   9.138
30821SOL     OW94294  12.645   1.332  12.719
30821SOL    HW194295  12.627   1.265  12.785
30821SOL    HW294296  12.560   1.354  12.682
30822SOL     OW94297  10.426   1.784  10.785
30822SOL    HW194298  10.389   1.760  10.700
30822SOL    HW294299  10.350   1.809  10.838
30823SOL     OW94300   0.801   5.487  12.794
30823SOL    HW194301   0.776   5.438  12.716
30823SOL    HW294302   0.862   5.430  12.840
30824SOL     OW94303   0.729   3.985   3.981
30824SOL    HW194304   0.819   3.954   3.985
30824SOL    HW294305   0.690   3.958   4.064
30825SOL     OW94306   4.380  14.677   6.437
30825SOL    HW194307   4.422  14.759   6.409
30825SOL    HW294308   4.322  14.654   6.364
30826SOL     OW94309   8.989   9.129  12.753
30826SOL    HW194310   8.975   9.108  12.845
30826SOL    HW294311   9.052   9.201  12.754
30827SOL     OW94312  10.855   5.759   1.901
30827SOL    HW194313  10.950   5.763   1.889
30827SOL    HW294314  10.842   5.777   1.994
30828SOL     OW94315  10.537   3.427   5.030
30828SOL    HW194316  10.515   3.502   4.973
30828SOL    HW294317  10.478   3.436   5.104
30829SOL     OW94318   0.101   2.613  14.128
30829SOL    HW194319   0.013   2.578  14.117
30829SOL    HW294320   0.098   2.661  14.210
30830SOL     OW94321   5.394   5.244  14.304
30830SOL    HW194322   5.378   5.165  14.252
30830SOL    HW294323   5.426   5.211  14.388
30831SOL     OW94324   5.097   6.851   8.615
30831SOL    HW194325   5.092   6.900   8.696
30831SOL    HW294326   5.189   6.827   8.607
30832SOL     OW94327  13.724   9.479   0.904
30832SOL    HW194328  13.658   9.411   0.920
30832SOL    HW294329  13.718   9.537   0.979
30833SOL     OW94330   5.950  11.691   6.551
30833SOL    HW194331   5.882  11.747   6.512
30833SOL    HW294332   5.901  11.632   6.609
30834SOL     OW94333   8.901   3.427  13.755
30834SOL    HW194334   8.922   3.502  13.811
30834SOL    HW294335   8.819   3.393  13.791
30835SOL     OW94336   3.980   1.805   3.875
30835SOL    HW194337   3.947   1.877   3.928
30835SOL    HW294338   3.989   1.841   3.787
30836SOL     OW94339  12.498   9.592   7.823
30836SOL    HW194340  12.444   9.556   7.893
30836SOL    HW294341  12.441   9.593   7.746
30837SOL     OW94342  13.100   5.239  14.616
30837SOL    HW194343  13.019   5.188  14.615
30837SOL    HW294344  13.083   5.310  14.554
30838SOL     OW94345  10.699   5.850  13.861
30838SOL    HW194346  10.702   5.884  13.951
30838SOL    HW294347  10.764   5.781  13.859
30839SOL     OW94348  11.407   3.736   8.658
30839SOL    HW194349  11.383   3.659   8.708
30839SOL    HW294350  11.336   3.798   8.672
30840SOL     OW94351   0.350  13.919   8.694
30840SOL    HW194352   0.411  13.992   8.704
30840SOL    HW294353   0.272  13.946   8.742
30841SOL     OW94354  12.689  11.221  10.309
30841SOL    HW194355  12.639  11.224  10.227
30841SOL    HW294356  12.630  11.181  10.372
30842SOL     OW94357  12.765  10.823   4.821
30842SOL    HW194358  12.694  10.876   4.859
30842SOL    HW294359  12.845  10.864   4.852
30843SOL     OW94360   2.760  13.460  12.966
30843SOL    HW194361   2.665  13.468  12.957
30843SOL    HW294362   2.781  13.378  12.922
30844SOL     OW94363   4.780   9.683   9.681
30844SOL    HW194364   4.716   9.649   9.743
30844SOL    HW294365   4.730   9.745   9.627
30845SOL     OW94366   1.763   6.244   4.466
30845SOL    HW194367   1.835   6.294   4.505
30845SOL    HW294368   1.713   6.211   4.541
30846SOL     OW94369  12.729   2.939  11.882
30846SOL    HW194370  12.760   2.865  11.830
30846SOL    HW294371  12.754   3.016  11.831
30847SOL     OW94372   1.456   8.134   7.710
30847SOL    HW194373   1.527   8.140   7.774
30847SOL    HW294374   1.475   8.054   7.660
30848SOL     OW94375   7.950   5.760   5.646
30848SOL    HW194376   7.887   5.760   5.573
30848SOL    HW294377   8.024   5.709   5.614
30849SOL     OW94378   5.032   9.791  11.079
30849SOL    HW194379   4.943   9.757  11.065
30849SOL    HW294380   5.021   9.863  11.140
30850SOL     OW94381   0.760  11.263   7.030
30850SOL    HW194382   0.795  11.194   6.974
30850SOL    HW294383   0.679  11.227   7.065
30851SOL     OW94384   9.114  14.611   0.989
30851SOL    HW194385   9.134  14.523   0.958
30851SOL    HW294386   9.140  14.668   0.917
30852SOL     OW94387   0.573   4.005  14.598
30852SOL    HW194388   0.493   3.985  14.550
30852SOL    HW294389   0.637   4.026  14.530
30853SOL     OW94390   8.369   7.814   7.467
30853SOL    HW194391   8.388   7.907   7.480
30853SOL    HW294392   8.318   7.810   7.386
30854SOL     OW94393   7.990   3.828   7.436
30854SOL    HW194394   7.964   3.858   7.349
30854SOL    HW294395   8.035   3.904   7.474
30855SOL     OW94396   0.903  11.337   7.964
30855SOL    HW194397   0.911  11.242   7.956
30855SOL    HW294398   0.985  11.371   7.927
30856SOL     OW94399  14.072  14.868   8.412
30856SOL    HW194400  14.008  14.807   8.374
30856SOL    HW294401  14.081   0.055   8.347
30857SOL     OW94402   0.746  10.223   9.054
30857SOL    HW194403   0.766  10.180   8.971
30857SOL    HW294404   0.814  10.191   9.114
30858SOL     OW94405  13.518  10.737   3.360
30858SOL    HW194406  13.470  10.818   3.372
30858SOL    HW294407  13.591  10.760   3.301
30859SOL     OW94408   1.111   4.934   0.068
30859SOL    HW194409   1.017   4.939   0.055
30859SOL    HW294410   1.143   4.883  14.874
30860SOL     OW94411   2.225  13.573   2.268
30860SOL    HW194412   2.187  13.492   2.234
30860SOL    HW294413   2.313  13.549   2.295
30861SOL     OW94414  10.953   4.355   1.873
30861SOL    HW194415  10.905   4.319   1.798
30861SOL    HW294416  10.888   4.405   1.922
30862SOL     OW94417  11.854   8.852   1.786
30862SOL    HW194418  11.812   8.937   1.775
30862SOL    HW294419  11.798   8.791   1.738
30863SOL     OW94420   4.184   4.262  13.367
30863SOL    HW194421   4.204   4.263  13.274
30863SOL    HW294422   4.159   4.171  13.385
30864SOL     OW94423  13.064   6.016   6.965
30864SOL    HW194424  13.023   5.988   7.046
30864SOL    HW294425  13.135   5.953   6.951
30865SOL     OW94426   3.301   4.945   8.426
30865SOL    HW194427   3.371   4.898   8.471
30865SOL    HW294428   3.346   4.992   8.355
30866SOL     OW94429   1.200   7.721   2.224
30866SOL    HW194430   1.217   7.627   2.235
30866SOL    HW294431   1.272   7.753   2.170
30867SOL     OW94432  10.669  14.847   2.080
30867SOL    HW194433  10.690  14.771   2.135
30867SOL    HW294434  10.584  14.877   2.113
30868SOL     OW94435   3.401  11.841   1.082
30868SOL    HW194436   3.375  11.782   1.153
30868SOL    HW294437   3.472  11.795   1.038
30869SOL     OW94438  12.318  12.854  10.419
30869SOL    HW194439  12.273  12.939  10.426
30869SOL    HW294440  12.370  12.848  10.500
30870SOL     OW94441   1.693   5.291  11.757
30870SOL    HW194442   1.639   5.365  11.731
30870SOL    HW294443   1.681   5.226  11.688
30871SOL     OW94444   0.756  10.598  12.568
30871SOL    HW194445   0.682  10.647  12.532
30871SOL    HW294446   0.796  10.557  12.491
30872SOL     OW94447  11.191   2.084  12.078
30872SOL    HW194448  11.217   1.993  12.086
30872SOL    HW294449  11.150   2.090  11.992
30873SOL     OW94450   5.912  14.221   3.832
30873SOL    HW194451   5.957  14.223   3.748
30873SOL    HW294452   5.846  14.152   3.822
30874SOL     OW94453   2.366  14.196  11.152
30874SOL    HW194454   2.272  14.185  11.135
30874SOL    HW294455   2.409  14.164  11.072
30875SOL     OW94456   0.428  13.994   5.722
30875SOL    HW194457   0.394  14.067   5.671
30875SOL    HW294458   0.373  13.992   5.800
30876SOL     OW94459   8.342   0.518   6.999
30876SOL    HW194460   8.264   0.573   7.007
30876SOL    HW294461   8.384   0.548   6.918
30877SOL     OW94462  13.199  10.329   3.881
30877SOL    HW194463  13.201  10.378   3.963
30877SOL    HW294464  13.291  10.323   3.855
30878SOL     OW94465   0.020   4.194   4.817
30878SOL    HW194466   0.015   4.290   4.817
30878SOL    HW294467  14.813   4.166   4.794
30879SOL     OW94468   3.429  10.487  10.004
30879SOL    HW194469   3.359  10.548  10.029
30879SOL    HW294470   3.409  10.407  10.052
30880SOL     OW94471  13.723   1.481   7.169
30880SOL    HW194472  13.819   1.481   7.163
30880SOL    HW294473  13.695   1.439   7.087
30881SOL     OW94474   7.179   1.711   4.492
30881SOL    HW194475   7.165   1.798   4.529
30881SOL    HW294476   7.274   1.701   4.490
30882SOL     OW94477   0.981   5.304   6.405
30882SOL    HW194478   1.057   5.345   6.363
30882SOL    HW294479   0.934   5.262   6.333
30883SOL     OW94480   4.368   7.336   9.847
30883SOL    HW194481   4.410   7.385   9.776
30883SOL    HW294482   4.413   7.365   9.926
30884SOL     OW94483   8.241   5.507   5.144
30884SOL    HW194484   8.305   5.494   5.074
30884SOL    HW294485   8.160   5.530   5.097
30885SOL     OW94486   3.073   5.064  12.862
30885SOL    HW194487   2.980   5.067  12.882
30885SOL    HW294488   3.098   4.972  12.878
30886SOL     OW94489   4.857   7.131   4.713
30886SOL    HW194490   4.783   7.124   4.773
30886SOL    HW294491   4.934   7.130   4.770
30887SOL     OW94492  13.362   3.108   4.102
30887SOL    HW194493  13.314   3.147   4.175
30887SOL    HW294494  13.351   3.014   4.114
30888SOL     OW94495  14.873   3.581   1.887
30888SOL    HW194496  14.788   3.562   1.925
30888SOL    HW294497  14.871   3.674   1.866
30889SOL     OW94498   9.614  14.708  14.087
30889SOL    HW194499   9.630  14.689  13.994
30889SOL    HW294500   9.657  14.636  14.133
30890SOL     OW94501  13.287   9.240   7.231
30890SOL    HW194502  13.286   9.283   7.146
30890SOL    HW294503  13.331   9.156   7.215
30891SOL     OW94504   1.901  10.896   3.868
30891SOL    HW194505   1.867  10.978   3.905
30891SOL    HW294506   1.829  10.834   3.878
30892SOL     OW94507  12.651  14.540  10.005
30892SOL    HW194508  12.688  14.522  10.091
30892SOL    HW294509  12.676  14.464   9.952
30893SOL     OW94510   0.579   1.732  11.386
30893SOL    HW194511   0.573   1.828  11.382
30893SOL    HW294512   0.656   1.711  11.333
30894SOL     OW94513   8.389  12.808   8.508
30894SOL    HW194514   8.302  12.827   8.474
30894SOL    HW294515   8.374  12.746   8.580
30895SOL     OW94516  10.924   4.042  10.689
30895SOL    HW194517  10.968   3.964  10.657
30895SOL    HW294518  10.927   4.035  10.784
30896SOL     OW94519   3.625   8.062   8.505
30896SOL    HW194520   3.584   8.004   8.442
30896SOL    HW294521   3.563   8.134   8.517
30897SOL     OW94522   3.349  11.942   4.365
30897SOL    HW194523   3.288  11.915   4.296
30897SOL    HW294524   3.367  11.862   4.414
30898SOL     OW94525  14.369   7.177   8.380
30898SOL    HW194526  14.367   7.083   8.364
30898SOL    HW294527  14.278   7.200   8.400
30899SOL     OW94528   9.700  11.446  10.944
30899SOL    HW194529   9.765  11.376  10.931
30899SOL    HW294530   9.749  11.527  10.930
30900SOL     OW94531  12.150   8.435  14.381
30900SOL    HW194532  12.246   8.441  14.384
30900SOL    HW294533  12.133   8.347  14.350
30901SOL     OW94534   9.025   9.749   6.167
30901SOL    HW194535   8.957   9.803   6.208
30901SOL    HW294536   8.978   9.697   6.102
30902SOL     OW94537  12.722   1.489   5.075
30902SOL    HW194538  12.673   1.407   5.067
30902SOL    HW294539  12.814   1.462   5.073
30903SOL     OW94540   0.374   5.386   8.160
30903SOL    HW194541   0.285   5.418   8.173
30903SOL    HW294542   0.362   5.295   8.132
30904SOL     OW94543   4.060   9.623   7.299
30904SOL    HW194544   4.029   9.706   7.263
30904SOL    HW294545   4.012   9.556   7.250
30905SOL     OW94546  13.125   2.887  10.532
30905SOL    HW194547  13.036   2.857  10.516
30905SOL    HW294548  13.143   2.863  10.623
30906SOL     OW94549   6.135   5.476  10.720
30906SOL    HW194550   6.167   5.512  10.637
30906SOL    HW294551   6.210   5.483  10.780
30907SOL     OW94552  12.466  14.131  12.014
30907SOL    HW194553  12.439  14.053  11.967
30907SOL    HW294554  12.561  14.121  12.025
30908SOL     OW94555   3.805   6.343  13.551
30908SOL    HW194556   3.746   6.272  13.574
30908SOL    HW294557   3.880   6.300  13.511
30909SOL     OW94558   0.953   8.089   1.063
30909SOL    HW194559   0.897   8.165   1.048
30909SOL    HW294560   0.894   8.014   1.055
30910SOL     OW94561   0.945  12.468   2.404
30910SOL    HW194562   0.990  12.511   2.476
30910SOL    HW294563   1.012  12.457   2.337
30911SOL     OW94564   0.697  11.278   5.084
30911SOL    HW194565   0.626  11.288   5.022
30911SOL    HW294566   0.775  11.304   5.036
30912SOL     OW94567  12.436   2.049   2.939
30912SOL    HW194568  12.494   2.020   2.869
30912SOL    HW294569  12.348   2.035   2.905
30913SOL     OW94570   5.052   6.761   2.572
30913SOL    HW194571   5.069   6.743   2.665
30913SOL    HW294572   5.105   6.838   2.553
30914SOL     OW94573   4.720   8.823  14.200
30914SOL    HW194574   4.645   8.852  14.149
30914SOL    HW294575   4.789   8.886  14.179
30915SOL     OW94576  11.545   9.498   0.748
30915SOL    HW194577  11.584   9.495   0.835
30915SOL    HW294578  11.514   9.588   0.738
30916SOL     OW94579   9.125   6.678   7.412
30916SOL    HW194580   9.045   6.630   7.431
30916SOL    HW294581   9.102   6.736   7.339
30917SOL     OW94582   0.436  12.183   8.172
30917SOL    HW194583   0.396  12.108   8.217
30917SOL    HW294584   0.412  12.172   8.080
30918SOL     OW94585  10.416   8.707   3.774
30918SOL    HW194586  10.395   8.797   3.800
30918SOL    HW294587  10.475   8.718   3.700
30919SOL     OW94588   6.310   6.847  14.208
30919SOL    HW194589   6.387   6.902  14.195
30919SOL    HW294590   6.346   6.760  14.230
30920SOL     OW94591  13.407  12.657   5.213
30920SOL    HW194592  13.430  12.657   5.120
30920SOL    HW294593  13.368  12.571   5.227
30921SOL     OW94594   4.385  12.395   6.780
30921SOL    HW194595   4.302  12.414   6.824
30921SOL    HW294596   4.387  12.455   6.706
30922SOL     OW94597   1.980   6.609   0.328
30922SOL    HW194598   1.927   6.622   0.249
30922SOL    HW294599   1.917   6.586   0.396
30923SOL     OW94600   6.282  12.413  13.750
30923SOL    HW194601   6.190  12.396  13.771
30923SOL    HW294602   6.315  12.329  13.719
30924SOL     OW94603   0.485   5.349   8.661
30924SOL    HW194604   0.451   5.352   8.572
30924SOL    HW294605   0.438   5.417   8.708
30925SOL     OW94606   4.024  11.614   9.252
30925SOL    HW194607   4.071  11.694   9.274
30925SOL    HW294608   3.954  11.609   9.318
30926SOL     OW94609   7.000   2.316  12.288
30926SOL    HW194610   6.995   2.225  12.318
30926SOL    HW294611   7.029   2.365  12.364
30927SOL     OW94612   6.962   0.120   3.560
30927SOL    HW194613   6.982   0.184   3.492
30927SOL    HW294614   7.045   0.077   3.577
30928SOL     OW94615   3.336  14.637  10.263
30928SOL    HW194616   3.262  14.604  10.212
30928SOL    HW294617   3.372  14.707  10.210
30929SOL     OW94618   2.186   2.125   3.248
30929SOL    HW194619   2.119   2.175   3.294
30929SOL    HW294620   2.269   2.157   3.285
30930SOL     OW94621   7.143   6.832  12.251
30930SOL    HW194622   7.081   6.795  12.314
30930SOL    HW294623   7.161   6.760  12.190
30931SOL     OW94624   8.577   2.896   2.460
30931SOL    HW194625   8.634   2.970   2.444
30931SOL    HW294626   8.630   2.834   2.510
30932SOL     OW94627   4.655  10.714   8.643
30932SOL    HW194628   4.647  10.670   8.728
30932SOL    HW294629   4.684  10.645   8.583
30933SOL     OW94630   8.152   0.337   4.331
30933SOL    HW194631   8.220   0.349   4.264
30933SOL    HW294632   8.070   0.338   4.283
30934SOL     OW94633  13.886   8.718  11.416
30934SOL    HW194634  13.962   8.751  11.464
30934SOL    HW294635  13.923   8.677  11.338
30935SOL     OW94636  12.350  13.835  11.981
30935SOL    HW194637  12.421  13.782  11.944
30935SOL    HW294638  12.302  13.867  11.905
30936SOL     OW94639   4.627   0.719   1.242
30936SOL    HW194640   4.712   0.688   1.210
30936SOL    HW294641   4.649   0.787   1.305
30937SOL     OW94642   2.801   4.754   4.823
30937SOL    HW194643   2.837   4.667   4.808
30937SOL    HW294644   2.712   4.738   4.853
30938SOL     OW94645   4.888  11.441   2.945
30938SOL    HW194646   4.841  11.359   2.960
30938SOL    HW294647   4.820  11.504   2.921
30939SOL     OW94648   4.307   4.756   6.121
30939SOL    HW194649   4.368   4.686   6.143
30939SOL    HW294650   4.358   4.836   6.128
30940SOL     OW94651   7.689   7.839   3.733
30940SOL    HW194652   7.726   7.774   3.793
30940SOL    HW294653   7.685   7.920   3.784
30941SOL     OW94654   1.734   5.847  11.881
30941SOL    HW194655   1.766   5.925  11.836
30941SOL    HW294656   1.652   5.826  11.837
30942SOL     OW94657   0.677  10.912   9.769
30942SOL    HW194658   0.601  10.939   9.718
30942SOL    HW294659   0.647  10.915   9.860
30943SOL     OW94660   7.779   6.872   0.344
30943SOL    HW194661   7.745   6.961   0.349
30943SOL    HW294662   7.811   6.852   0.432
30944SOL     OW94663  13.557   8.637   0.169
30944SOL    HW194664  13.646   8.616   0.196
30944SOL    HW294665  13.567   8.705   0.102
30945SOL     OW94666   6.338  11.376   0.686
30945SOL    HW194667   6.385  11.294   0.673
30945SOL    HW294668   6.330  11.385   0.781
30946SOL     OW94669  13.058  10.717   2.304
30946SOL    HW194670  13.072  10.629   2.339
30946SOL    HW294671  12.974  10.745   2.341
30947SOL     OW94672   1.136   6.121   9.415
30947SOL    HW194673   1.192   6.189   9.379
30947SOL    HW294674   1.065   6.113   9.352
30948SOL     OW94675   1.018   9.275   5.016
30948SOL    HW194676   1.023   9.191   4.970
30948SOL    HW294677   0.924   9.294   5.021
30949SOL     OW94678   7.676   5.167  12.450
30949SOL    HW194679   7.603   5.216  12.411
30949SOL    HW294680   7.652   5.159  12.542
30950SOL     OW94681   4.979   6.671   7.084
30950SOL    HW194682   5.061   6.719   7.072
30950SOL    HW294683   4.953   6.688   7.174
30951SOL     OW94684   0.065   0.862  10.975
30951SOL    HW194685   0.102   0.949  10.963
30951SOL    HW294686   0.054   0.828  10.887
30952SOL     OW94687  13.751  11.991   8.839
30952SOL    HW194688  13.698  12.000   8.760
30952SOL    HW294689  13.812  11.920   8.818
30953SOL     OW94690   9.483   6.551   0.432
30953SOL    HW194691   9.578   6.543   0.433
30953SOL    HW294692   9.456   6.530   0.522
30954SOL     OW94693   4.446   6.433   1.137
30954SOL    HW194694   4.426   6.514   1.090
30954SOL    HW294695   4.542   6.427   1.135
30955SOL     OW94696   5.169  13.920   8.183
30955SOL    HW194697   5.215  13.836   8.187
30955SOL    HW294698   5.183  13.958   8.270
30956SOL     OW94699   1.293   4.131  12.996
30956SOL    HW194700   1.334   4.130  12.909
30956SOL    HW294701   1.295   4.039  13.023
30957SOL     OW94702   6.730  10.581  10.405
30957SOL    HW194703   6.719  10.510  10.342
30957SOL    HW294704   6.746  10.537  10.489
30958SOL     OW94705   6.256   4.511   2.607
30958SOL    HW194706   6.272   4.460   2.528
30958SOL    HW294707   6.182   4.567   2.585
30959SOL     OW94708   1.908   0.297  11.414
30959SOL    HW194709   1.830   0.284  11.361
30959SOL    HW294710   1.958   0.217  11.404
30960SOL     OW94711   5.418   4.372  10.986
30960SOL    HW194712   5.484   4.312  11.020
30960SOL    HW294713   5.417   4.444  11.049
30961SOL     OW94714   8.360   4.927   0.784
30961SOL    HW194715   8.280   4.965   0.819
30961SOL    HW294716   8.419   4.921   0.858
30962SOL     OW94717  14.860  11.927   7.689
30962SOL    HW194718   0.039  11.864   7.728
30962SOL    HW294719   0.016  12.012   7.709
30963SOL     OW94720  12.402   3.203  10.047
30963SOL    HW194721  12.352   3.230  10.124
30963SOL    HW294722  12.419   3.109  10.061
30964SOL     OW94723   3.153   4.083   3.000
30964SOL    HW194724   3.196   3.998   3.010
30964SOL    HW294725   3.102   4.075   2.919
30965SOL     OW94726   5.381   2.278  13.802
30965SOL    HW194727   5.458   2.221  13.791
30965SOL    HW294728   5.408   2.362  13.766
30966SOL     OW94729   2.338   2.877   0.333
30966SOL    HW194730   2.409   2.825   0.372
30966SOL    HW294731   2.372   2.967   0.333
30967SOL     OW94732  11.534  13.817   6.132
30967SOL    HW194733  11.623  13.852   6.130
30967SOL    HW294734  11.480  13.890   6.163
30968SOL     OW94735   3.503  13.749   0.934
30968SOL    HW194736   3.415  13.777   0.913
30968SOL    HW294737   3.538  13.713   0.853
30969SOL     OW94738   8.772  14.652  14.651
30969SOL    HW194739   8.744  14.639  14.560
30969SOL    HW294740   8.711  14.717  14.685
30970SOL     OW94741   0.585   3.845  13.262
30970SOL    HW194742   0.680   3.844  13.268
30970SOL    HW294743   0.560   3.933  13.291
30971SOL     OW94744  10.548   8.723  13.968
30971SOL    HW194745  10.641   8.706  13.984
30971SOL    HW294746  10.527   8.795  14.027
30972SOL     OW94747   9.020   6.080  11.804
30972SOL    HW194748   9.088   6.073  11.736
30972SOL    HW294749   9.068   6.075  11.886
30973SOL     OW94750   1.494   0.971   9.425
30973SOL    HW194751   1.572   0.963   9.480
30973SOL    HW294752   1.462   0.881   9.416
30974SOL     OW94753   4.847   7.911   4.940
30974SOL    HW194754   4.910   7.982   4.932
30974SOL    HW294755   4.877   7.860   5.016
30975SOL     OW94756  12.865  12.169   8.821
30975SOL    HW194757  12.897  12.080   8.832
30975SOL    HW294758  12.918  12.204   8.749
30976SOL     OW94759   1.227   0.565   0.158
30976SOL    HW194760   1.309   0.615   0.150
30976SOL    HW294761   1.172   0.620   0.214
30977SOL     OW94762   2.025  11.915  13.411
30977SOL    HW194763   2.117  11.942  13.407
30977SOL    HW294764   2.024  11.826  13.376
30978SOL     OW94765   7.251   0.266  13.081
30978SOL    HW194766   7.287   0.310  13.158
30978SOL    HW294767   7.250   0.334  13.014
30979SOL     OW94768   7.220   5.394   9.305
30979SOL    HW194769   7.290   5.344   9.264
30979SOL    HW294770   7.255   5.420   9.390
30980SOL     OW94771  10.322  12.779   5.494
30980SOL    HW194772  10.325  12.793   5.589
30980SOL    HW294773  10.400  12.823   5.460
30981SOL     OW94774   7.335  10.527   4.208
30981SOL    HW194775   7.362  10.564   4.124
30981SOL    HW294776   7.387  10.448   4.218
30982SOL     OW94777   9.092  13.145  13.902
30982SOL    HW194778   9.107  13.140  13.997
30982SOL    HW294779   9.154  13.211  13.871
30983SOL     OW94780  12.224   7.238  14.793
30983SOL    HW194781  12.145   7.261  14.744
30983SOL    HW294782  12.222   7.142  14.798
30984SOL     OW94783  12.104   4.702   4.306
30984SOL    HW194784  12.124   4.772   4.244
30984SOL    HW294785  12.087   4.747   4.388
30985SOL     OW94786  10.312   5.587   1.963
30985SOL    HW194787  10.280   5.500   1.940
30985SOL    HW294788  10.379   5.571   2.030
30986SOL     OW94789   5.647   1.274   2.763
30986SOL    HW194790   5.616   1.314   2.681
30986SOL    HW294791   5.572   1.280   2.822
30987SOL     OW94792   7.180  11.580  14.702
30987SOL    HW194793   7.209  11.565  14.792
30987SOL    HW294794   7.249  11.543  14.648
30988SOL     OW94795   6.094   0.161   5.168
30988SOL    HW194796   6.125   0.091   5.111
30988SOL    HW294797   6.151   0.235   5.148
30989SOL     OW94798   8.743   2.392  14.549
30989SOL    HW194799   8.833   2.426  14.545
30989SOL    HW294800   8.723   2.390  14.643
30990SOL     OW94801  11.414   8.459   7.207
30990SOL    HW194802  11.508   8.455   7.220
30990SOL    HW294803  11.401   8.535   7.151
30991SOL     OW94804   2.390   2.200   3.814
30991SOL    HW194805   2.412   2.289   3.787
30991SOL    HW294806   2.361   2.209   3.905
30992SOL     OW94807  13.424   3.877   4.846
30992SOL    HW194808  13.446   3.953   4.900
30992SOL    HW294809  13.487   3.810   4.874
30993SOL     OW94810  10.800   2.109  12.771
30993SOL    HW194811  10.763   2.056  12.841
30993SOL    HW294812  10.863   2.166  12.814
30994SOL     OW94813   0.218   9.590   1.339
30994SOL    HW194814   0.311   9.609   1.328
30994SOL    HW294815   0.191   9.642   1.414
30995SOL     OW94816  11.300   3.083  14.774
30995SOL    HW194817  11.219   3.125  14.804
30995SOL    HW294818  11.349   3.069  14.855
30996SOL     OW94819   6.613   9.518   4.115
30996SOL    HW194820   6.699   9.560   4.106
30996SOL    HW294821   6.631   9.441   4.169
30997SOL     OW94822  13.633  11.993  12.368
30997SOL    HW194823  13.694  11.921  12.350
30997SOL    HW294824  13.554  11.970  12.319
30998SOL     OW94825   0.523  11.706   6.222
30998SOL    HW194826   0.435  11.683   6.252
30998SOL    HW294827   0.529  11.668   6.134
30999SOL     OW94828   4.716   6.970  13.461
30999SOL    HW194829   4.735   7.045  13.517
30999SOL    HW294830   4.623   6.976  13.443
31000SOL     OW94831   8.831  13.979   9.451
31000SOL    HW194832   8.907  13.930   9.418
31000SOL    HW294833   8.819  13.945   9.540
31001SOL     OW94834  14.479   3.285  10.465
31001SOL    HW194835  14.402   3.288  10.522
31001SOL    HW294836  14.548   3.245  10.519
31002SOL     OW94837   6.465   1.669  14.329
31002SOL    HW194838   6.382   1.717  14.318
31002SOL    HW294839   6.502   1.705  14.410
31003SOL     OW94840   6.091   9.601   2.451
31003SOL    HW194841   6.113   9.615   2.543
31003SOL    HW294842   6.058   9.686   2.421
31004SOL     OW94843   4.398   7.587  11.638
31004SOL    HW194844   4.357   7.664  11.598
31004SOL    HW294845   4.354   7.512  11.598
31005SOL     OW94846  12.375   6.235  10.417
31005SOL    HW194847  12.287   6.257  10.448
31005SOL    HW294848  12.384   6.284  10.335
31006SOL     OW94849  14.449   5.800   7.527
31006SOL    HW194850  14.463   5.725   7.584
31006SOL    HW294851  14.363   5.786   7.488
31007SOL     OW94852  10.019   5.255   1.160
31007SOL    HW194853  10.043   5.186   1.099
31007SOL    HW294854   9.993   5.209   1.240
31008SOL     OW94855  11.666   5.072   8.788
31008SOL    HW194856  11.705   5.021   8.716
31008SOL    HW294857  11.668   5.162   8.757
31009SOL     OW94858   3.660  12.633  13.191
31009SOL    HW194859   3.717  12.662  13.261
31009SOL    HW294860   3.647  12.540  13.208
31010SOL     OW94861   9.460   1.504   8.444
31010SOL    HW194862   9.402   1.579   8.430
31010SOL    HW294863   9.460   1.492   8.539
31011SOL     OW94864   5.334  10.962  12.318
31011SOL    HW194865   5.362  11.016  12.393
31011SOL    HW294866   5.393  10.887  12.320
31012SOL     OW94867   6.014   3.265  13.740
31012SOL    HW194868   6.088   3.291  13.685
31012SOL    HW294869   6.011   3.170  13.733
31013SOL     OW94870   7.490   7.695  11.699
31013SOL    HW194871   7.400   7.683  11.670
31013SOL    HW294872   7.503   7.790  11.698
31014SOL     OW94873   3.365   8.127  12.025
31014SOL    HW194874   3.458   8.104  12.034
31014SOL    HW294875   3.318   8.054  12.064
31015SOL     OW94876   3.331   5.645  10.248
31015SOL    HW194877   3.251   5.596  10.269
31015SOL    HW294878   3.341   5.706  10.321
31016SOL     OW94879   8.546  10.863   2.700
31016SOL    HW194880   8.487  10.796   2.667
31016SOL    HW294881   8.544  10.932   2.633
31017SOL     OW94882   5.120   0.253   9.736
31017SOL    HW194883   5.048   0.190   9.744
31017SOL    HW294884   5.167   0.226   9.657
31018SOL     OW94885  12.263   3.559   4.501
31018SOL    HW194886  12.179   3.604   4.492
31018SOL    HW294887  12.313   3.613   4.562
31019SOL     OW94888  10.833   2.377   4.356
31019SOL    HW194889  10.757   2.331   4.321
31019SOL    HW294890  10.822   2.376   4.451
31020SOL     OW94891   1.149  11.540   9.015
31020SOL    HW194892   1.103  11.460   9.042
31020SOL    HW294893   1.083  11.592   8.970
31021SOL     OW94894  10.365   0.322   2.363
31021SOL    HW194895  10.331   0.399   2.408
31021SOL    HW294896  10.458   0.319   2.386
31022SOL     OW94897  14.627   6.327   1.127
31022SOL    HW194898  14.624   6.318   1.222
31022SOL    HW294899  14.636   6.421   1.112
31023SOL     OW94900   0.244  11.563  11.820
31023SOL    HW194901   0.253  11.596  11.731
31023SOL    HW294902   0.208  11.475  11.809
31024SOL     OW94903   9.547  14.409   6.235
31024SOL    HW194904   9.641  14.428   6.241
31024SOL    HW294905   9.534  14.337   6.298
31025SOL     OW94906  14.424   9.075  13.871
31025SOL    HW194907  14.459   9.069  13.960
31025SOL    HW294908  14.408   9.169  13.858
31026SOL     OW94909   8.101   0.210  14.700
31026SOL    HW194910   8.042   0.158  14.755
31026SOL    HW294911   8.157   0.257  14.762
31027SOL     OW94912  13.514   9.516   9.285
31027SOL    HW194913  13.434   9.552   9.245
31027SOL    HW294914  13.570   9.592   9.297
31028SOL     OW94915  11.861   7.196  13.663
31028SOL    HW194916  11.889   7.193  13.755
31028SOL    HW294917  11.900   7.118  13.623
31029SOL     OW94918  12.213   8.644   2.663
31029SOL    HW194919  12.240   8.705   2.731
31029SOL    HW294920  12.136   8.684   2.623
31030SOL     OW94921  12.975   8.881   3.725
31030SOL    HW194922  12.891   8.835   3.717
31030SOL    HW294923  13.039   8.811   3.735
31031SOL     OW94924   3.925   0.855  12.479
31031SOL    HW194925   3.860   0.880  12.545
31031SOL    HW294926   3.931   0.760  12.486
31032SOL     OW94927   8.961  10.956   2.609
31032SOL    HW194928   8.974  10.931   2.517
31032SOL    HW294929   8.925  10.877   2.650
31033SOL     OW94930  14.674  11.174  11.409
31033SOL    HW194931  14.675  11.261  11.370
31033SOL    HW294932  14.732  11.122  11.354
31034SOL     OW94933   4.199  11.575   5.701
31034SOL    HW194934   4.136  11.605   5.765
31034SOL    HW294935   4.284  11.602   5.736
31035SOL     OW94936   3.014  10.099  11.152
31035SOL    HW194937   3.074  10.042  11.199
31035SOL    HW294938   3.068  10.171  11.120
31036SOL     OW94939   0.179   1.545  11.609
31036SOL    HW194940   0.233   1.537  11.530
31036SOL    HW294941   0.093   1.571  11.577
31037SOL     OW94942  12.946   9.963   2.130
31037SOL    HW194943  12.908  10.021   2.196
31037SOL    HW294944  12.874   9.947   2.068
31038SOL     OW94945   1.566   2.500  14.309
31038SOL    HW194946   1.639   2.439  14.317
31038SOL    HW294947   1.551   2.531  14.399
31039SOL     OW94948   5.538   3.039  11.476
31039SOL    HW194949   5.612   3.025  11.417
31039SOL    HW294950   5.537   2.961  11.531
31040SOL     OW94951  10.574   2.478   3.059
31040SOL    HW194952  10.497   2.422   3.047
31040SOL    HW294953  10.591   2.514   2.972
31041SOL     OW94954  12.834  13.167   5.943
31041SOL    HW194955  12.925  13.148   5.964
31041SOL    HW294956  12.834  13.259   5.916
31042SOL     OW94957   1.183   0.353   2.481
31042SOL    HW194958   1.230   0.399   2.412
31042SOL    HW294959   1.142   0.422   2.533
31043SOL     OW94960  14.538   0.357   8.351
31043SOL    HW194961  14.489   0.303   8.289
31043SOL    HW294962  14.517   0.320   8.437
31044SOL     OW94963   4.250  12.789   3.022
31044SOL    HW194964   4.295  12.815   2.941
31044SOL    HW294965   4.175  12.849   3.027
31045SOL     OW94966   5.513  14.397   7.514
31045SOL    HW194967   5.418  14.399   7.525
31045SOL    HW294968   5.535  14.482   7.476
31046SOL     OW94969  11.014   5.271   9.547
31046SOL    HW194970  11.008   5.362   9.516
31046SOL    HW294971  10.999   5.218   9.468
31047SOL     OW94972  13.105  14.664  14.439
31047SOL    HW194973  13.018  14.624  14.449
31047SOL    HW294974  13.093  14.754  14.468
31048SOL     OW94975  10.842   3.125   1.389
31048SOL    HW194976  10.932   3.123   1.422
31048SOL    HW294977  10.806   3.040   1.415
31049SOL     OW94978   5.962   7.908   9.231
31049SOL    HW194979   5.927   7.893   9.143
31049SOL    HW294980   5.888   7.944   9.281
31050SOL     OW94981   7.997   3.845   7.886
31050SOL    HW194982   8.041   3.783   7.827
31050SOL    HW294983   7.992   3.926   7.836
31051SOL     OW94984   0.017   5.275   5.920
31051SOL    HW194985  14.859   5.217   5.855
31051SOL    HW294986   0.062   5.217   5.981
31052SOL     OW94987   8.440   4.080   7.494
31052SOL    HW194988   8.451   4.141   7.421
31052SOL    HW294989   8.446   4.134   7.572
31053SOL     OW94990   5.292  10.771   5.559
31053SOL    HW194991   5.333  10.760   5.473
31053SOL    HW294992   5.280  10.681   5.591
31054SOL     OW94993   0.176   2.080   8.384
31054SOL    HW194994   0.249   2.101   8.325
31054SOL    HW294995   0.216   2.028   8.454
31055SOL     OW94996  11.117   5.907  14.861
31055SOL    HW194997  11.044   5.918  14.800
31055SOL    HW294998  11.194   5.936  14.812
31056SOL     OW94999   0.690   2.947   3.050
31056SOL    HW195000   0.759   2.886   3.023
31056SOL    HW295001   0.715   2.973   3.139
31057SOL     OW95002   7.668   6.782   6.708
31057SOL    HW195003   7.638   6.779   6.617
31057SOL    HW295004   7.758   6.815   6.703
31058SOL     OW95005  10.261   5.735  10.684
31058SOL    HW195006  10.201   5.662  10.672
31058SOL    HW295007  10.329   5.721  10.619
31059SOL     OW95008   0.056  13.215  13.382
31059SOL    HW195009   0.099  13.147  13.435
31059SOL    HW295010   0.123  13.282  13.371
31060SOL     OW95011   0.196  10.428   0.955
31060SOL    HW195012   0.195  10.494   1.024
31060SOL    HW295013   0.235  10.351   0.996
31061SOL     OW95014   6.651   0.348   2.489
31061SOL    HW195015   6.588   0.352   2.417
31061SOL    HW295016   6.605   0.388   2.563
31062SOL     OW95017   4.690   5.016  13.366
31062SOL    HW195018   4.619   5.000  13.305
31062SOL    HW295019   4.768   5.025  13.311
31063SOL     OW95020  11.611   0.781   6.668
31063SOL    HW195021  11.572   0.866   6.687
31063SOL    HW295022  11.540   0.731   6.627
31064SOL     OW95023  13.969   0.293   3.365
31064SOL    HW195024  13.946   0.382   3.392
31064SOL    HW295025  14.002   0.252   3.445
31065SOL     OW95026  13.405  11.327  12.934
31065SOL    HW195027  13.363  11.302  13.016
31065SOL    HW295028  13.353  11.400  12.902
31066SOL     OW95029   6.957   5.536  13.523
31066SOL    HW195030   7.036   5.524  13.576
31066SOL    HW295031   6.973   5.617  13.474
31067SOL     OW95032  10.867   5.923  11.318
31067SOL    HW195033  10.864   6.012  11.352
31067SOL    HW295034  10.827   5.870  11.387
31068SOL     OW95035   8.335   0.784   8.009
31068SOL    HW195036   8.334   0.750   7.920
31068SOL    HW295037   8.375   0.714   8.061
31069SOL     OW95038  14.538   2.959  11.451
31069SOL    HW195039  14.528   2.938  11.544
31069SOL    HW295040  14.621   3.006  11.446
31070SOL     OW95041   3.183   8.420  14.496
31070SOL    HW195042   3.152   8.385  14.580
31070SOL    HW295043   3.275   8.395  14.493
31071SOL     OW95044  11.265   1.598   6.096
31071SOL    HW195045  11.179   1.581   6.136
31071SOL    HW295046  11.328   1.568   6.162
31072SOL     OW95047   1.192   9.617   6.458
31072SOL    HW195048   1.265   9.674   6.435
31072SOL    HW295049   1.120   9.645   6.401
31073SOL     OW95050  14.001   2.678   6.586
31073SOL    HW195051  13.994   2.772   6.600
31073SOL    HW295052  14.065   2.649   6.651
31074SOL     OW95053   0.225   2.498   1.283
31074SOL    HW195054   0.187   2.569   1.232
31074SOL    HW295055   0.309   2.480   1.239
31075SOL     OW95056  12.038  11.575  14.479
31075SOL    HW195057  12.013  11.662  14.510
31075SOL    HW295058  12.127  11.586  14.446
31076SOL     OW95059  14.575  12.595   7.025
31076SOL    HW195060  14.493  12.553   7.053
31076SOL    HW295061  14.570  12.684   7.060
31077SOL     OW95062  14.491   7.392   4.599
31077SOL    HW195063  14.495   7.481   4.634
31077SOL    HW295064  14.576   7.379   4.557
31078SOL     OW95065   7.016   9.698  10.063
31078SOL    HW195066   6.920   9.695  10.069
31078SOL    HW295067   7.038   9.789  10.084
31079SOL     OW95068  12.306   5.126   5.925
31079SOL    HW195069  12.236   5.062   5.917
31079SOL    HW295070  12.260   5.210   5.934
31080SOL     OW95071  14.454  10.350  10.773
31080SOL    HW195072  14.490  10.310  10.694
31080SOL    HW295073  14.365  10.376  10.749
31081SOL     OW95074   9.715   6.329   4.096
31081SOL    HW195075   9.809   6.313   4.097
31081SOL    HW295076   9.703   6.402   4.157
31082SOL     OW95077  10.807   4.567   5.674
31082SOL    HW195078  10.858   4.519   5.739
31082SOL    HW295079  10.720   4.527   5.677
31083SOL     OW95080   2.878   8.941   3.616
31083SOL    HW195081   2.953   8.982   3.574
31083SOL    HW295082   2.850   9.003   3.683
31084SOL     OW95083   4.194  11.609   1.258
31084SOL    HW195084   4.250  11.684   1.238
31084SOL    HW295085   4.255  11.539   1.280
31085SOL     OW95086  12.118   8.085   8.761
31085SOL    HW195087  12.159   8.116   8.680
31085SOL    HW295088  12.098   8.164   8.810
31086SOL     OW95089   2.197  14.307   4.306
31086SOL    HW195090   2.255  14.295   4.231
31086SOL    HW295091   2.256  14.316   4.381
31087SOL     OW95092   6.501  11.950   5.628
31087SOL    HW195093   6.539  12.031   5.593
31087SOL    HW295094   6.543  11.939   5.714
31088SOL     OW95095  11.398   8.758   0.701
31088SOL    HW195096  11.328   8.823   0.697
31088SOL    HW295097  11.426   8.757   0.792
31089SOL     OW95098  13.377  14.081   8.724
31089SOL    HW195099  13.436  14.015   8.687
31089SOL    HW295100  13.321  14.031   8.783
31090SOL     OW95101   3.897   0.612  11.871
31090SOL    HW195102   3.860   0.699  11.856
31090SOL    HW295103   3.987   0.620  11.842
31091SOL     OW95104  10.715  13.641  12.542
31091SOL    HW195105  10.753  13.669  12.458
31091SOL    HW295106  10.661  13.715  12.569
31092SOL     OW95107   1.493   2.565   0.460
31092SOL    HW195108   1.404   2.569   0.495
31092SOL    HW295109   1.528   2.482   0.494
31093SOL     OW95110   7.397  10.682   3.698
31093SOL    HW195111   7.468  10.697   3.636
31093SOL    HW295112   7.317  10.699   3.647
31094SOL     OW95113  10.377   4.338  12.024
31094SOL    HW195114  10.460   4.339  12.072
31094SOL    HW295115  10.343   4.427  12.033
31095SOL     OW95116  13.816   8.909   1.809
31095SOL    HW195117  13.747   8.959   1.765
31095SOL    HW295118  13.896   8.958   1.792
31096SOL     OW95119  13.321   1.352   6.663
31096SOL    HW195120  13.336   1.371   6.570
31096SOL    HW295121  13.320   1.257   6.669
31097SOL     OW95122   5.466   0.978  11.165
31097SOL    HW195123   5.392   0.940  11.213
31097SOL    HW295124   5.539   0.918  11.183
31098SOL     OW95125   7.889   7.763   9.300
31098SOL    HW195126   7.896   7.680   9.347
31098SOL    HW295127   7.925   7.745   9.213
31099SOL     OW95128  12.614   3.439   9.503
31099SOL    HW195129  12.547   3.397   9.450
31099SOL    HW295130  12.625   3.525   9.464
31100SOL     OW95131   2.610   5.052  12.470
31100SOL    HW195132   2.597   4.976  12.527
31100SOL    HW295133   2.653   5.017  12.392
31101SOL     OW95134  12.610   4.659   8.673
31101SOL    HW195135  12.668   4.721   8.718
31101SOL    HW295136  12.526   4.705   8.667
31102SOL     OW95137   4.880   3.071  12.727
31102SOL    HW195138   4.848   3.094  12.640
31102SOL    HW295139   4.806   3.085  12.785
31103SOL     OW95140  12.218   8.674  12.340
31103SOL    HW195141  12.302   8.641  12.307
31103SOL    HW295142  12.157   8.602  12.326
31104SOL     OW95143  10.857   0.514   7.747
31104SOL    HW195144  10.783   0.559   7.706
31104SOL    HW295145  10.830   0.501   7.838
31105SOL     OW95146  11.484   4.251   5.658
31105SOL    HW195147  11.550   4.194   5.619
31105SOL    HW295148  11.530   4.297   5.728
31106SOL     OW95149  10.578   6.265   4.354
31106SOL    HW195150  10.487   6.292   4.342
31106SOL    HW295151  10.572   6.180   4.397
31107SOL     OW95152   2.886   0.903   7.021
31107SOL    HW195153   2.899   0.842   7.094
31107SOL    HW295154   2.969   0.948   7.012
31108SOL     OW95155  13.765   9.795  11.423
31108SOL    HW195156  13.834   9.803  11.489
31108SOL    HW295157  13.806   9.825  11.342
31109SOL     OW95158   3.851   2.930  14.579
31109SOL    HW195159   3.874   2.882  14.659
31109SOL    HW295160   3.936   2.954  14.541
31110SOL     OW95161   0.839  10.189  11.164
31110SOL    HW195162   0.783  10.125  11.119
31110SOL    HW295163   0.876  10.140  11.238
31111SOL     OW95164   1.131   5.514  11.381
31111SOL    HW195165   1.205   5.454  11.373
31111SOL    HW295166   1.121   5.552  11.293
31112SOL     OW95167   2.128  13.545   4.470
31112SOL    HW195168   2.196  13.524   4.534
31112SOL    HW295169   2.176  13.568   4.390
31113SOL     OW95170  14.141   1.444   8.158
31113SOL    HW195171  14.185   1.422   8.075
31113SOL    HW295172  14.048   1.441   8.137
31114SOL     OW95173   3.563   5.991   2.208
31114SOL    HW195174   3.576   6.085   2.196
31114SOL    HW295175   3.493   5.985   2.272
31115SOL     OW95176   2.825  13.319  10.148
31115SOL    HW195177   2.874  13.263  10.087
31115SOL    HW295178   2.753  13.355  10.096
31116SOL     OW95179   0.658  11.659   3.834
31116SOL    HW195180   0.684  11.590   3.773
31116SOL    HW295181   0.721  11.730   3.819
31117SOL     OW95182  14.253   9.107  11.675
31117SOL    HW195183  14.324   9.124  11.613
31117SOL    HW295184  14.234   9.193  11.714
31118SOL     OW95185  14.774   3.394  11.546
31118SOL    HW195186  14.821   3.350  11.475
31118SOL    HW295187  14.746   3.323  11.603
31119SOL     OW95188  13.915  11.875   6.631
31119SOL    HW195189  13.990  11.927   6.600
31119SOL    HW295190  13.889  11.918   6.712
31120SOL     OW95191   9.621   1.160   7.808
31120SOL    HW195192   9.611   1.104   7.885
31120SOL    HW295193   9.684   1.113   7.752
31121SOL     OW95194   5.465  13.719   9.555
31121SOL    HW195195   5.528  13.718   9.483
31121SOL    HW295196   5.519  13.725   9.634
31122SOL     OW95197  13.843   2.169  13.345
31122SOL    HW195198  13.867   2.110  13.274
31122SOL    HW295199  13.923   2.180  13.396
31123SOL     OW95200  11.324   2.859  13.271
31123SOL    HW195201  11.349   2.767  13.264
31123SOL    HW295202  11.396   2.907  13.232
31124SOL     OW95203   6.316   7.393   8.070
31124SOL    HW195204   6.260   7.397   7.992
31124SOL    HW295205   6.282   7.319   8.121
31125SOL     OW95206   2.413  13.106   4.499
31125SOL    HW195207   2.360  13.137   4.425
31125SOL    HW295208   2.475  13.176   4.516
31126SOL     OW95209   6.668   7.744   4.185
31126SOL    HW195210   6.594   7.708   4.232
31126SOL    HW295211   6.736   7.677   4.191
31127SOL     OW95212   8.857   4.261  11.575
31127SOL    HW195213   8.891   4.257  11.664
31127SOL    HW295214   8.893   4.183  11.532
31128SOL     OW95215   0.031   1.684   0.368
31128SOL    HW195216   0.028   1.779   0.373
31128SOL    HW295217  14.850   1.660   0.301
31129SOL     OW95218   9.949   4.551   0.178
31129SOL    HW195219   9.976   4.634   0.219
31129SOL    HW295220   9.862   4.534   0.214
31130SOL     OW95221   1.337   1.540   1.540
31130SOL    HW195222   1.315   1.507   1.453
31130SOL    HW295223   1.253   1.566   1.578
31131SOL     OW95224  10.466  14.882  12.008
31131SOL    HW195225  10.418  14.800  11.995
31131SOL    HW295226  10.422   0.062  11.950
31132SOL     OW95227  10.801   3.217   4.401
31132SOL    HW195228  10.880   3.260   4.433
31132SOL    HW295229  10.733   3.284   4.406
31133SOL     OW95230  12.704   0.147   7.443
31133SOL    HW195231  12.617   0.108   7.431
31133SOL    HW295232  12.704   0.177   7.534
31134SOL     OW95233   5.098  12.974   7.354
31134SOL    HW195234   5.174  12.993   7.408
31134SOL    HW295235   5.030  12.948   7.417
31135SOL     OW95236   5.068   3.054   5.051
31135SOL    HW195237   5.115   2.986   5.099
31135SOL    HW295238   4.988   3.068   5.101
31136SOL     OW95239   2.212   7.480   8.122
31136SOL    HW195240   2.246   7.449   8.207
31136SOL    HW295241   2.117   7.469   8.129
31137SOL     OW95242   2.188  14.536   0.916
31137SOL    HW195243   2.221  14.580   0.838
31137SOL    HW295244   2.161  14.449   0.886
31138SOL     OW95245  13.260   6.060   1.955
31138SOL    HW195246  13.250   6.112   2.035
31138SOL    HW295247  13.293   6.123   1.891
31139SOL     OW95248  10.730   6.394   5.988
31139SOL    HW195249  10.685   6.413   5.905
31139SOL    HW295250  10.671   6.428   6.055
31140SOL     OW95251  12.691   7.885   8.239
31140SOL    HW195252  12.685   7.981   8.244
31140SOL    HW295253  12.614   7.859   8.188
31141SOL     OW95254   9.913   0.760   7.515
31141SOL    HW195255   9.946   0.683   7.469
31141SOL    HW295256   9.977   0.828   7.495
31142SOL     OW95257   7.424  13.638  10.779
31142SOL    HW195258   7.442  13.681  10.863
31142SOL    HW295259   7.448  13.546  10.793
31143SOL     OW95260   1.942  13.290   1.257
31143SOL    HW195261   2.007  13.305   1.189
31143SOL    HW295262   1.984  13.319   1.338
31144SOL     OW95263  11.593  12.401  11.126
31144SOL    HW195264  11.608  12.323  11.072
31144SOL    HW295265  11.584  12.472  11.062
31145SOL     OW95266   3.269   4.867   9.228
31145SOL    HW195267   3.337   4.828   9.173
31145SOL    HW295268   3.309   4.948   9.261
31146SOL     OW95269   5.632  12.082  12.045
31146SOL    HW195270   5.599  12.143  12.112
31146SOL    HW295271   5.727  12.080  12.060
31147SOL     OW95272   9.752  14.260   8.577
31147SOL    HW195273   9.759  14.173   8.618
31147SOL    HW295274   9.704  14.244   8.495
31148SOL     OW95275   5.733   9.817  13.813
31148SOL    HW195276   5.724   9.724  13.832
31148SOL    HW295277   5.779   9.820  13.729
31149SOL     OW95278  14.094   1.566   4.261
31149SOL    HW195279  14.084   1.490   4.202
31149SOL    HW295280  14.034   1.547   4.333
31150SOL     OW95281  13.994  13.398  12.221
31150SOL    HW195282  13.914  13.392  12.273
31150SOL    HW295283  14.037  13.313  12.232
31151SOL     OW95284   8.912   3.527  10.837
31151SOL    HW195285   8.908   3.571  10.752
31151SOL    HW295286   8.824   3.494  10.851
31152SOL     OW95287   5.790   2.979   5.106
31152SOL    HW195288   5.824   3.038   5.173
31152SOL    HW295289   5.749   3.037   5.041
31153SOL     OW95290  14.749   2.329  14.448
31153SOL    HW195291  14.792   2.409  14.417
31153SOL    HW295292  14.665   2.328  14.402
31154SOL     OW95293  13.523   3.138   9.066
31154SOL    HW195294  13.454   3.077   9.092
31154SOL    HW295295  13.541   3.190   9.145
31155SOL     OW95296   6.136   4.362  10.773
31155SOL    HW195297   6.137   4.312  10.691
31155SOL    HW295298   6.099   4.302  10.838
31156SOL     OW95299   3.466   6.235  11.247
31156SOL    HW195300   3.555   6.269  11.246
31156SOL    HW295301   3.457   6.185  11.166
31157SOL     OW95302   9.563   8.870   7.139
31157SOL    HW195303   9.558   8.964   7.118
31157SOL    HW295304   9.529   8.826   7.061
31158SOL     OW95305   2.700   0.144  13.402
31158SOL    HW195306   2.715   0.049  13.408
31158SOL    HW295307   2.611   0.156  13.434
31159SOL     OW95308   6.148   3.099  10.455
31159SOL    HW195309   6.148   3.015  10.501
31159SOL    HW295310   6.100   3.082  10.374
31160SOL     OW95311   2.199   1.761   3.990
31160SOL    HW195312   2.204   1.770   3.895
31160SOL    HW295313   2.137   1.829   4.017
31161SOL     OW95314   9.327   5.765   7.061
31161SOL    HW195315   9.325   5.778   6.966
31161SOL    HW295316   9.257   5.703   7.079
31162SOL     OW95317  11.701   1.882  12.819
31162SOL    HW195318  11.734   1.871  12.729
31162SOL    HW295319  11.750   1.817  12.870
31163SOL     OW95320  10.125  13.160   2.901
31163SOL    HW195321  10.178  13.160   2.822
31163SOL    HW295322  10.120  13.068   2.927
31164SOL     OW95323   4.699  14.324   4.898
31164SOL    HW195324   4.652  14.341   4.980
31164SOL    HW295325   4.782  14.286   4.926
31165SOL     OW95326   8.873   4.682   8.225
31165SOL    HW195327   8.803   4.643   8.172
31165SOL    HW295328   8.868   4.775   8.207
31166SOL     OW95329   2.610   7.872   9.409
31166SOL    HW195330   2.680   7.808   9.393
31166SOL    HW295331   2.542   7.821   9.454
31167SOL     OW95332  13.852   2.430   0.979
31167SOL    HW195333  13.878   2.340   1.001
31167SOL    HW295334  13.771   2.444   1.029
31168SOL     OW95335   3.545  11.264  12.032
31168SOL    HW195336   3.514  11.350  12.061
31168SOL    HW295337   3.477  11.232  11.974
31169SOL     OW95338   5.068   5.201   7.938
31169SOL    HW195339   5.049   5.288   7.904
31169SOL    HW295340   5.132   5.216   8.008
31170SOL     OW95341   8.403   5.637  14.185
31170SOL    HW195342   8.375   5.659  14.274
31170SOL    HW295343   8.375   5.546  14.174
31171SOL     OW95344   5.906   1.418  10.916
31171SOL    HW195345   5.971   1.488  10.924
31171SOL    HW295346   5.854   1.424  10.996
31172SOL     OW95347   5.362   0.161  13.985
31172SOL    HW195348   5.427   0.098  14.017
31172SOL    HW295349   5.363   0.231  14.050
31173SOL     OW95350   0.593  11.022  14.209
31173SOL    HW195351   0.585  10.929  14.187
31173SOL    HW295352   0.625  11.022  14.300
31174SOL     OW95353   0.737   0.132   2.550
31174SOL    HW195354   0.730   0.225   2.571
31174SOL    HW295355   0.704   0.087   2.628
31175SOL     OW95356   9.784   1.681   4.164
31175SOL    HW195357   9.710   1.717   4.212
31175SOL    HW295358   9.853   1.747   4.173
31176SOL     OW95359   2.312  13.498   4.256
31176SOL    HW195360   2.278  13.411   4.276
31176SOL    HW295361   2.320  13.499   4.161
31177SOL     OW95362  10.780   8.071  11.103
31177SOL    HW195363  10.833   7.999  11.139
31177SOL    HW295364  10.718   8.093  11.173
31178SOL     OW95365   3.054   6.017   1.605
31178SOL    HW195366   3.071   6.074   1.530
31178SOL    HW295367   2.966   5.984   1.590
31179SOL     OW95368   8.183   9.497   5.877
31179SOL    HW195369   8.223   9.532   5.797
31179SOL    HW295370   8.155   9.574   5.926
31180SOL     OW95371   3.982  11.521   8.043
31180SOL    HW195372   4.005  11.509   8.136
31180SOL    HW295373   3.902  11.470   8.031
31181SOL     OW95374   3.311  12.430   2.681
31181SOL    HW195375   3.234  12.382   2.651
31181SOL    HW295376   3.374  12.362   2.704
31182SOL     OW95377   6.375   5.054   8.911
31182SOL    HW195378   6.294   5.023   8.870
31182SOL    HW295379   6.392   5.138   8.869
31183SOL     OW95380   0.864   7.137   5.323
31183SOL    HW195381   0.948   7.120   5.280
31183SOL    HW295382   0.806   7.164   5.251
31184SOL     OW95383   8.212  10.251  13.411
31184SOL    HW195384   8.132  10.236  13.462
31184SOL    HW295385   8.194  10.210  13.327
31185SOL     OW95386   1.418   5.002  14.841
31185SOL    HW195387   1.329   4.968  14.830
31185SOL    HW295388   1.452   5.010  14.752
31186SOL     OW95389  10.098   3.548   7.870
31186SOL    HW195390  10.022   3.555   7.812
31186SOL    HW295391  10.060   3.540   7.958
31187SOL     OW95392   4.912   8.633   4.260
31187SOL    HW195393   4.880   8.671   4.178
31187SOL    HW295394   5.007   8.626   4.247
31188SOL     OW95395  10.145   3.695  10.481
31188SOL    HW195396  10.060   3.733  10.460
31188SOL    HW295397  10.167   3.642  10.405
31189SOL     OW95398   7.798   0.678   3.733
31189SOL    HW195399   7.744   0.610   3.692
31189SOL    HW295400   7.740   0.753   3.740
31190SOL     OW95401  11.421   7.840  14.854
31190SOL    HW195402  11.451   7.910  14.795
31190SOL    HW295403  11.464   7.859   0.055
31191SOL     OW95404   0.565   5.339  12.949
31191SOL    HW195405   0.648   5.363  12.908
31191SOL    HW295406   0.530   5.421  12.982
31192SOL     OW95407   4.407   9.390   8.478
31192SOL    HW195408   4.469   9.438   8.532
31192SOL    HW295409   4.448   9.385   8.391
31193SOL     OW95410  12.457  14.401   6.155
31193SOL    HW195411  12.470  14.453   6.234
31193SOL    HW295412  12.543  14.362   6.138
31194SOL     OW95413   7.640  13.719   0.962
31194SOL    HW195414   7.609  13.646   1.016
31194SOL    HW295415   7.721  13.748   1.005
31195SOL     OW95416   0.596   0.258   1.951
31195SOL    HW195417   0.622   0.167   1.941
31195SOL    HW295418   0.627   0.283   2.038
31196SOL     OW95419  14.778   4.787   4.309
31196SOL    HW195420  14.848   4.743   4.357
31196SOL    HW295421  14.772   4.874   4.350
31197SOL     OW95422   4.942  12.558  13.256
31197SOL    HW195423   4.897  12.528  13.177
31197SOL    HW295424   4.920  12.651  13.262
31198SOL     OW95425  12.038  10.734  13.908
31198SOL    HW195426  12.039  10.644  13.877
31198SOL    HW295427  11.991  10.730  13.991
31199SOL     OW95428   0.940   7.853   4.077
31199SOL    HW195429   0.893   7.936   4.086
31199SOL    HW295430   0.988   7.843   4.158
31200SOL     OW95431   6.269   6.143   9.145
31200SOL    HW195432   6.190   6.195   9.159
31200SOL    HW295433   6.325   6.163   9.219
31201SOL     OW95434  13.904   8.775   5.276
31201SOL    HW195435  13.827   8.739   5.233
31201SOL    HW295436  13.972   8.772   5.209
31202SOL     OW95437   9.519  13.076  14.766
31202SOL    HW195438   9.428  13.054  14.786
31202SOL    HW295439   9.524  13.170  14.778
31203SOL     OW95440   5.943  12.648   2.145
31203SOL    HW195441   5.965  12.556   2.160
31203SOL    HW295442   5.961  12.690   2.229
31204SOL     OW95443   6.163  13.245   5.722
31204SOL    HW195444   6.137  13.332   5.693
31204SOL    HW295445   6.153  13.190   5.644
31205SOL     OW95446   8.944   9.621  12.874
31205SOL    HW195447   9.021   9.598  12.822
31205SOL    HW295448   8.871   9.584  12.825
31206SOL     OW95449  13.534   3.884  11.971
31206SOL    HW195450  13.489   3.901  11.889
31206SOL    HW295451  13.625   3.909  11.955
31207SOL     OW95452  13.356   1.057   8.316
31207SOL    HW195453  13.329   0.974   8.275
31207SOL    HW295454  13.404   1.103   8.246
31208SOL     OW95455  12.760   0.137  11.544
31208SOL    HW195456  12.768   0.058  11.491
31208SOL    HW295457  12.740   0.206  11.480
31209SOL     OW95458   8.603   7.663   6.663
31209SOL    HW195459   8.532   7.694   6.606
31209SOL    HW295460   8.650   7.743   6.687
31210SOL     OW95461   9.221  11.370  14.769
31210SOL    HW195462   9.164  11.422  14.826
31210SOL    HW295463   9.258  11.433  14.708
31211SOL     OW95464   9.749  14.111   1.285
31211SOL    HW195465   9.740  14.017   1.269
31211SOL    HW295466   9.698  14.127   1.365
31212SOL     OW95467   4.546   6.397   6.493
31212SOL    HW195468   4.545   6.362   6.582
31212SOL    HW295469   4.479   6.347   6.446
31213SOL     OW95470   8.185  12.037   1.794
31213SOL    HW195471   8.201  11.962   1.738
31213SOL    HW295472   8.267  12.086   1.794
31214SOL     OW95473  12.125   8.462   1.027
31214SOL    HW195474  12.124   8.410   0.947
31214SOL    HW295475  12.185   8.534   1.008
31215SOL     OW95476   9.056   1.059   2.445
31215SOL    HW195477   9.142   1.091   2.416
31215SOL    HW295478   9.044   1.098   2.531
31216SOL     OW95479  13.238  13.750   3.028
31216SOL    HW195480  13.180  13.707   3.091
31216SOL    HW295481  13.293  13.679   2.994
31217SOL     OW95482   7.514  12.900   4.506
31217SOL    HW195483   7.537  12.827   4.564
31217SOL    HW295484   7.594  12.952   4.500
31218SOL     OW95485   4.721   6.965   0.964
31218SOL    HW195486   4.647   6.996   1.016
31218SOL    HW295487   4.684   6.895   0.910
31219SOL     OW95488   5.830   0.835   8.744
31219SOL    HW195489   5.804   0.857   8.833
31219SOL    HW295490   5.904   0.775   8.755
31220SOL     OW95491  14.261  10.748  10.452
31220SOL    HW195492  14.263  10.844  10.450
31220SOL    HW295493  14.324  10.725  10.520
31221SOL     OW95494   1.091   6.208   3.918
31221SOL    HW195495   1.083   6.171   4.006
31221SOL    HW295496   1.003   6.242   3.899
31222SOL     OW95497  11.763   4.335  11.786
31222SOL    HW195498  11.718   4.419  11.781
31222SOL    HW295499  11.701   4.276  11.830
31223SOL     OW95500  10.472  12.319  10.817
31223SOL    HW195501  10.559  12.283  10.835
31223SOL    HW295502  10.423  12.247  10.778
31224SOL     OW95503   2.145   3.018  11.582
31224SOL    HW195504   2.161   3.025  11.488
31224SOL    HW295505   2.227   2.984  11.617
31225SOL     OW95506  13.346  11.962   3.151
31225SOL    HW195507  13.411  12.002   3.092
31225SOL    HW295508  13.385  11.879   3.176
31226SOL     OW95509   0.465  12.556   3.416
31226SOL    HW195510   0.524  12.610   3.364
31226SOL    HW295511   0.380  12.599   3.407
31227SOL     OW95512   6.932   6.922   6.417
31227SOL    HW195513   6.914   6.838   6.460
31227SOL    HW295514   6.904   6.910   6.327
31228SOL     OW95515  11.304   3.639   1.752
31228SOL    HW195516  11.222   3.684   1.732
31228SOL    HW295517  11.366   3.709   1.772
31229SOL     OW95518  14.235   7.470  14.282
31229SOL    HW195519  14.329   7.478  14.295
31229SOL    HW295520  14.197   7.491  14.367
31230SOL     OW95521   1.193   8.207   0.223
31230SOL    HW195522   1.204   8.154   0.144
31230SOL    HW295523   1.177   8.295   0.191
31231SOL     OW95524   4.160   6.281   4.561
31231SOL    HW195525   4.075   6.325   4.565
31231SOL    HW295526   4.199   6.297   4.647
31232SOL     OW95527  14.798   9.551  14.451
31232SOL    HW195528  14.783   9.553  14.545
31232SOL    HW295529   0.010   9.535  14.442
31233SOL     OW95530  13.324  10.119   5.934
31233SOL    HW195531  13.270  10.197   5.948
31233SOL    HW295532  13.414  10.151   5.939
31234SOL     OW95533   7.799   7.104   5.356
31234SOL    HW195534   7.762   7.184   5.395
31234SOL    HW295535   7.869   7.136   5.298
31235SOL     OW95536   5.008   7.518  13.027
31235SOL    HW195537   5.062   7.589  13.062
31235SOL    HW295538   4.986   7.465  13.104
31236SOL     OW95539   1.818   3.982   6.386
31236SOL    HW195540   1.750   3.946   6.444
31236SOL    HW295541   1.803   4.076   6.388
31237SOL     OW95542  12.946   5.833   2.645
31237SOL    HW195543  12.887   5.821   2.720
31237SOL    HW295544  12.887   5.842   2.570
31238SOL     OW95545   0.013  12.799  13.997
31238SOL    HW195546   0.016  12.895  13.994
31238SOL    HW295547  14.847  12.779  14.077
31239SOL     OW95548   8.405   2.151  13.215
31239SOL    HW195549   8.471   2.082  13.227
31239SOL    HW295550   8.389   2.153  13.121
31240SOL     OW95551   0.235  10.220   8.129
31240SOL    HW195552   0.199  10.134   8.108
31240SOL    HW295553   0.328  10.213   8.107
31241SOL     OW95554   1.498   6.410  12.268
31241SOL    HW195555   1.492   6.485  12.328
31241SOL    HW295556   1.477   6.335  12.323
31242SOL     OW95557   0.210  10.496   4.200
31242SOL    HW195558   0.144  10.473   4.134
31242SOL    HW295559   0.291  10.456   4.168
31243SOL     OW95560   0.275   4.510   5.240
31243SOL    HW195561   0.303   4.430   5.195
31243SOL    HW295562   0.223   4.557   5.175
31244SOL     OW95563   6.369   9.361  11.388
31244SOL    HW195564   6.286   9.390  11.350
31244SOL    HW295565   6.437   9.408  11.339
31245SOL     OW95566  14.518   7.343   0.098
31245SOL    HW195567  14.473   7.390   0.169
31245SOL    HW295568  14.540   7.258   0.136
31246SOL     OW95569   4.001  13.885  10.933
31246SOL    HW195570   3.970  13.800  10.902
31246SOL    HW295571   3.921  13.931  10.959
31247SOL     OW95572  14.365   4.123   2.598
31247SOL    HW195573  14.381   4.150   2.688
31247SOL    HW295574  14.270   4.129   2.588
31248SOL     OW95575   1.712  11.817  13.277
31248SOL    HW195576   1.706  11.727  13.309
31248SOL    HW295577   1.704  11.872  13.355
31249SOL     OW95578   2.574  12.444   7.510
31249SOL    HW195579   2.634  12.395   7.566
31249SOL    HW295580   2.541  12.378   7.449
31250SOL     OW95581  12.961   8.498  10.577
31250SOL    HW195582  12.955   8.474  10.484
31250SOL    HW295583  12.892   8.562  10.590
31251SOL     OW95584  13.832  12.240  14.114
31251SOL    HW195585  13.908  12.184  14.097
31251SOL    HW295586  13.808  12.221  14.204
31252SOL     OW95587   4.390   2.915   4.726
31252SOL    HW195588   4.355   2.966   4.799
31252SOL    HW295589   4.426   2.836   4.766
31253SOL     OW95590  10.015  14.550   9.627
31253SOL    HW195591   9.985  14.461   9.643
31253SOL    HW295592   9.980  14.571   9.540
31254SOL     OW95593   4.906   9.396   3.935
31254SOL    HW195594   4.976   9.330   3.940
31254SOL    HW295595   4.840   9.366   3.996
31255SOL     OW95596   7.594  10.079  11.780
31255SOL    HW195597   7.505  10.044  11.775
31255SOL    HW295598   7.649  10.003  11.797
31256SOL     OW95599   5.341  10.882  10.547
31256SOL    HW195600   5.416  10.940  10.555
31256SOL    HW295601   5.290  10.917  10.474
31257SOL     OW95602  10.658   8.580   7.529
31257SOL    HW195603  10.730   8.641   7.545
31257SOL    HW295604  10.691   8.523   7.460
31258SOL     OW95605   6.619   6.590  13.558
31258SOL    HW195606   6.562   6.630  13.491
31258SOL    HW295607   6.565   6.586  13.636
31259SOL     OW95608  12.091   3.641  11.541
31259SOL    HW195609  12.182   3.614  11.558
31259SOL    HW295610  12.038   3.573  11.584
31260SOL     OW95611   1.907   0.674   4.580
31260SOL    HW195612   1.839   0.688   4.514
31260SOL    HW295613   1.943   0.761   4.597
31261SOL     OW95614   2.111  14.745   9.423
31261SOL    HW195615   2.030  14.712   9.385
31261SOL    HW295616   2.153  14.668   9.461
31262SOL     OW95617  10.844   4.044   2.553
31262SOL    HW195618  10.890   4.006   2.628
31262SOL    HW295619  10.782   3.977   2.525
31263SOL     OW95620   0.197   4.783   2.388
31263SOL    HW195621   0.244   4.832   2.320
31263SOL    HW295622   0.222   4.825   2.470
31264SOL     OW95623   2.399   9.461   9.363
31264SOL    HW195624   2.411   9.449   9.457
31264SOL    HW295625   2.466   9.525   9.339
31265SOL     OW95626   6.352  11.700   6.018
31265SOL    HW195627   6.443  11.673   6.034
31265SOL    HW295628   6.358  11.793   5.999
31266SOL     OW95629  13.119   8.486   9.224
31266SOL    HW195630  13.106   8.458   9.133
31266SOL    HW295631  13.113   8.405   9.275
31267SOL     OW95632   7.104  14.796  13.861
31267SOL    HW195633   7.037  14.863  13.876
31267SOL    HW295634   7.162  14.835  13.796
31268SOL     OW95635  13.840  11.581   7.849
31268SOL    HW195636  13.882  11.561   7.933
31268SOL    HW295637  13.887  11.658   7.817
31269SOL     OW95638   5.039   9.707   7.087
31269SOL    HW195639   4.984   9.740   7.158
31269SOL    HW295640   5.060   9.784   7.034
31270SOL     OW95641   1.028   4.574   3.411
31270SOL    HW195642   0.943   4.606   3.441
31270SOL    HW295643   1.028   4.591   3.317
31271SOL     OW95644   0.022   1.543   0.987
31271SOL    HW195645   0.056   1.614   0.933
31271SOL    HW295646   0.100   1.495   1.015
31272SOL     OW95647   6.900  14.104   9.093
31272SOL    HW195648   6.893  14.033   9.156
31272SOL    HW295649   6.926  14.061   9.011
31273SOL     OW95650   0.588   6.654   4.739
31273SOL    HW195651   0.622   6.656   4.650
31273SOL    HW295652   0.496   6.677   4.731
31274SOL     OW95653   0.012   1.964   0.487
31274SOL    HW195654  14.840   1.950   0.564
31274SOL    HW295655   0.101   1.945   0.515
31275SOL     OW95656   9.341  10.866   0.375
31275SOL    HW195657   9.340  10.868   0.279
31275SOL    HW295658   9.249  10.865   0.400
31276SOL     OW95659  13.576   8.043  10.500
31276SOL    HW195660  13.615   8.058  10.586
31276SOL    HW295661  13.649   8.044  10.439
31277SOL     OW95662   9.234   0.561   3.118
31277SOL    HW195663   9.139   0.550   3.105
31277SOL    HW295664   9.243   0.589   3.209
31278SOL     OW95665   0.488   4.331   2.694
31278SOL    HW195666   0.441   4.377   2.764
31278SOL    HW295667   0.463   4.376   2.614
31279SOL     OW95668  14.341   9.260   3.160
31279SOL    HW195669  14.414   9.221   3.206
31279SOL    HW295670  14.352   9.354   3.172
31280SOL     OW95671   4.602   9.589   4.610
31280SOL    HW195672   4.547   9.536   4.553
31280SOL    HW295673   4.542   9.621   4.677
31281SOL     OW95674  12.234   7.698   6.402
31281SOL    HW195675  12.289   7.759   6.450
31281SOL    HW295676  12.211   7.631   6.466
31282SOL     OW95677   1.895  10.871   6.097
31282SOL    HW195678   1.937  10.949   6.059
31282SOL    HW295679   1.909  10.881   6.192
31283SOL     OW95680   0.762   7.751  10.804
31283SOL    HW195681   0.832   7.705  10.759
31283SOL    HW295682   0.685   7.696  10.790
31284SOL     OW95683   3.679   4.440   4.314
31284SOL    HW195684   3.632   4.415   4.234
31284SOL    HW295685   3.741   4.507   4.285
31285SOL     OW95686  14.548   2.938   9.847
31285SOL    HW195687  14.477   2.928   9.909
31285SOL    HW295688  14.547   2.858   9.795
31286SOL     OW95689  13.868   7.207   9.349
31286SOL    HW195690  13.856   7.113   9.355
31286SOL    HW295691  13.954   7.222   9.389
31287SOL     OW95692   7.546  11.009  14.187
31287SOL    HW195693   7.622  10.970  14.146
31287SOL    HW295694   7.575  11.032  14.275
31288SOL     OW95695  11.462   0.718   9.574
31288SOL    HW195696  11.386   0.664   9.550
31288SOL    HW295697  11.426   0.806   9.584
31289SOL     OW95698  11.343   3.003   4.024
31289SOL    HW195699  11.280   2.970   3.960
31289SOL    HW295700  11.292   3.021   4.102
31290SOL     OW95701   8.075   3.859   2.496
31290SOL    HW195702   7.979   3.866   2.502
31290SOL    HW295703   8.107   3.904   2.574
31291SOL     OW95704   0.024   1.348  10.931
31291SOL    HW195705  14.814   1.346  10.906
31291SOL    HW295706   0.037   1.435  10.969
31292SOL     OW95707   9.646  12.178  13.164
31292SOL    HW195708   9.727  12.160  13.213
31292SOL    HW295709   9.617  12.092  13.134
31293SOL     OW95710   1.505   0.170   3.739
31293SOL    HW195711   1.587   0.121   3.730
31293SOL    HW295712   1.443   0.124   3.682
31294SOL     OW95713   1.607   0.954   3.361
31294SOL    HW195714   1.666   0.912   3.424
31294SOL    HW295715   1.519   0.933   3.393
31295SOL     OW95716   9.089   1.626   8.093
31295SOL    HW195717   9.055   1.714   8.109
31295SOL    HW295718   9.098   1.621   7.997
31296SOL     OW95719  14.661  10.821   2.760
31296SOL    HW195720  14.640  10.739   2.803
31296SOL    HW295721  14.581  10.874   2.768
31297SOL     OW95722   4.440   7.186   9.296
31297SOL    HW195723   4.524   7.150   9.266
31297SOL    HW295724   4.438   7.275   9.260
31298SOL     OW95725   6.847   2.809  13.465
31298SOL    HW195726   6.799   2.756  13.401
31298SOL    HW295727   6.792   2.886  13.480
31299SOL     OW95728   0.521   9.283   5.769
31299SOL    HW195729   0.534   9.355   5.707
31299SOL    HW295730   0.426   9.283   5.785
31300SOL     OW95731   0.491   2.302   6.839
31300SOL    HW195732   0.402   2.275   6.863
31300SOL    HW295733   0.489   2.306   6.743
31301SOL     OW95734   7.009   4.777   8.723
31301SOL    HW195735   7.028   4.729   8.804
31301SOL    HW295736   7.092   4.778   8.676
31302SOL     OW95737  12.522  11.451  12.784
31302SOL    HW195738  12.584  11.498  12.839
31302SOL    HW295739  12.463  11.408  12.845
31303SOL     OW95740   2.450   6.437   3.338
31303SOL    HW195741   2.375   6.387   3.369
31303SOL    HW295742   2.483   6.387   3.263
31304SOL     OW95743  10.932   6.812  10.225
31304SOL    HW195744  10.959   6.805  10.317
31304SOL    HW295745  10.860   6.749  10.217
31305SOL     OW95746   6.756   6.328   7.979
31305SOL    HW195747   6.688   6.263   7.996
31305SOL    HW295748   6.717   6.411   8.005
31306SOL     OW95749   0.114   0.292  13.354
31306SOL    HW195750   0.048   0.256  13.414
31306SOL    HW295751   0.157   0.361  13.405
31307SOL     OW95752   0.259   3.264  12.358
31307SOL    HW195753   0.285   3.356  12.358
31307SOL    HW295754   0.309   3.225  12.286
31308SOL     OW95755   5.514   6.353  13.227
31308SOL    HW195756   5.516   6.414  13.153
31308SOL    HW295757   5.570   6.281  13.200
31309SOL     OW95758   1.437  11.242  14.340
31309SOL    HW195759   1.474  11.169  14.389
31309SOL    HW295760   1.345  11.245  14.368
31310SOL     OW95761   9.305  13.527   7.005
31310SOL    HW195762   9.300  13.454   6.943
31310SOL    HW295763   9.390  13.515   7.048
31311SOL     OW95764   2.528   9.531   1.740
31311SOL    HW195765   2.491   9.606   1.787
31311SOL    HW295766   2.504   9.547   1.648
31312SOL     OW95767   3.761   6.600  14.087
31312SOL    HW195768   3.777   6.678  14.035
31312SOL    HW295769   3.842   6.586  14.136
31313SOL     OW95770   9.604   1.239   7.391
31313SOL    HW195771   9.524   1.253   7.341
31313SOL    HW295772   9.665   1.201   7.327
31314SOL     OW95773   6.224   6.239  12.633
31314SOL    HW195774   6.155   6.230  12.699
31314SOL    HW295775   6.229   6.152  12.593
31315SOL     OW95776  11.124   6.108   1.576
31315SOL    HW195777  11.033   6.100   1.607
31315SOL    HW295778  11.117   6.149   1.490
31316SOL     OW95779   4.597   8.365   0.138
31316SOL    HW195780   4.691   8.346   0.132
31316SOL    HW295781   4.586   8.447   0.091
31317SOL     OW95782  14.308  11.484  12.710
31317SOL    HW195783  14.329  11.455  12.622
31317SOL    HW295784  14.314  11.579  12.707
31318SOL     OW95785   1.605   3.570   8.096
31318SOL    HW195786   1.625   3.651   8.144
31318SOL    HW295787   1.627   3.589   8.005
31319SOL     OW95788   9.833   0.686   8.101
31319SOL    HW195789   9.753   0.633   8.098
31319SOL    HW295790   9.808   0.764   8.151
31320SOL     OW95791   9.106  12.953   1.772
31320SOL    HW195792   9.093  13.047   1.754
31320SOL    HW295793   9.199  12.945   1.791
31321SOL     OW95794   6.228   5.621  12.820
31321SOL    HW195795   6.311   5.595  12.861
31321SOL    HW295796   6.252   5.694  12.763
31322SOL     OW95797  13.593   0.670  12.537
31322SOL    HW195798  13.583   0.642  12.446
31322SOL    HW295799  13.548   0.603  12.588
31323SOL     OW95800   7.536   6.605  12.673
31323SOL    HW195801   7.457   6.654  12.699
31323SOL    HW295802   7.552   6.545  12.746
31324SOL     OW95803   2.611   3.002   0.752
31324SOL    HW195804   2.705   3.017   0.754
31324SOL    HW295805   2.596   2.931   0.814
31325SOL     OW95806   6.185   1.704   5.553
31325SOL    HW195807   6.124   1.777   5.567
31325SOL    HW295808   6.193   1.698   5.458
31326SOL     OW95809   4.177   0.159  14.566
31326SOL    HW195810   4.160   0.164  14.660
31326SOL    HW295811   4.148   0.072  14.541
31327SOL     OW95812   1.995   5.876  12.767
31327SOL    HW195813   2.059   5.852  12.834
31327SOL    HW295814   2.033   5.952  12.723
31328SOL     OW95815   8.251   7.882   5.990
31328SOL    HW195816   8.310   7.808   5.975
31328SOL    HW295817   8.183   7.873   5.923
31329SOL     OW95818  13.539   5.118   6.357
31329SOL    HW195819  13.539   5.114   6.261
31329SOL    HW295820  13.629   5.099   6.382
31330SOL     OW95821  10.882  13.826  11.078
31330SOL    HW195822  10.880  13.731  11.082
31330SOL    HW295823  10.824  13.854  11.150
31331SOL     OW95824   1.035   9.452  14.817
31331SOL    HW195825   1.063   9.391   0.004
31331SOL    HW295826   1.003   9.396  14.746
31332SOL     OW95827  12.607   7.928  10.097
31332SOL    HW195828  12.674   7.996  10.104
31332SOL    HW295829  12.554   7.938  10.177
31333SOL     OW95830   1.372  12.689   2.030
31333SOL    HW195831   1.288  12.725   2.058
31333SOL    HW295832   1.392  12.734   1.948
31334SOL     OW95833  10.597  12.617   1.735
31334SOL    HW195834  10.600  12.690   1.674
31334SOL    HW295835  10.628  12.653   1.818
31335SOL     OW95836  11.223   8.100   0.753
31335SOL    HW195837  11.137   8.073   0.788
31335SOL    HW295838  11.246   8.030   0.692
31336SOL     OW95839   8.558   1.862   0.702
31336SOL    HW195840   8.602   1.816   0.631
31336SOL    HW295841   8.578   1.809   0.780
31337SOL     OW95842  10.832   9.038   0.092
31337SOL    HW195843  10.790   9.023   0.177
31337SOL    HW295844  10.827   8.954   0.048
31338SOL     OW95845   3.865   0.058   0.529
31338SOL    HW195846   3.816  14.861   0.554
31338SOL    HW295847   3.955   0.041   0.557
31339SOL     OW95848   6.290   9.547   4.713
31339SOL    HW195849   6.369   9.514   4.756
31339SOL    HW295850   6.315   9.633   4.681
31340SOL     OW95851  14.369   9.230  12.863
31340SOL    HW195852  14.285   9.270  12.840
31340SOL    HW295853  14.415   9.222  12.780
31341SOL     OW95854   2.131   9.493  13.585
31341SOL    HW195855   2.068   9.523  13.651
31341SOL    HW295856   2.202   9.557  13.590
31342SOL     OW95857   2.876  12.308  14.680
31342SOL    HW195858   2.926  12.287  14.759
31342SOL    HW295859   2.922  12.263  14.609
31343SOL     OW95860   0.557   9.430   6.227
31343SOL    HW195861   0.638   9.463   6.268
31343SOL    HW295862   0.503   9.508   6.215
31344SOL     OW95863   9.747   8.455  11.954
31344SOL    HW195864   9.725   8.514  11.882
31344SOL    HW295865   9.685   8.383  11.947
31345SOL     OW95866  13.325   8.423   8.926
31345SOL    HW195867  13.418   8.423   8.949
31345SOL    HW295868  13.298   8.514   8.934
31346SOL     OW95869   5.861  12.027   2.095
31346SOL    HW195870   5.929  12.080   2.053
31346SOL    HW295871   5.899  12.003   2.180
31347SOL     OW95872  13.979   3.045  10.991
31347SOL    HW195873  14.040   3.117  11.010
31347SOL    HW295874  13.893   3.087  10.987
31348SOL     OW95875   6.275   7.818  11.522
31348SOL    HW195876   6.201   7.760  11.500
31348SOL    HW295877   6.236   7.886  11.577
31349SOL     OW95878  11.770  12.579  12.564
31349SOL    HW195879  11.701  12.636  12.530
31349SOL    HW295880  11.851  12.626  12.545
31350SOL     OW95881   8.780   5.859   3.874
31350SOL    HW195882   8.753   5.939   3.918
31350SOL    HW295883   8.720   5.850   3.800
31351SOL     OW95884  11.068  10.161   7.235
31351SOL    HW195885  11.041  10.136   7.147
31351SOL    HW295886  11.024  10.099   7.293
31352SOL     OW95887  11.635   0.112   7.586
31352SOL    HW195888  11.595   0.198   7.573
31352SOL    HW295889  11.561   0.051   7.586
31353SOL     OW95890   5.100   0.404   0.150
31353SOL    HW195891   5.021   0.456   0.164
31353SOL    HW295892   5.156   0.423   0.225
31354SOL     OW95893   8.460  14.575   4.820
31354SOL    HW195894   8.474  14.482   4.840
31354SOL    HW295895   8.526  14.621   4.873
31355SOL     OW95896   0.578  11.210   3.029
31355SOL    HW195897   0.564  11.297   3.066
31355SOL    HW295898   0.656  11.220   2.975
31356SOL     OW95899  13.816  10.949   2.175
31356SOL    HW195900  13.830  11.042   2.195
31356SOL    HW295901  13.785  10.948   2.085
31357SOL     OW95902  14.445   9.532  13.037
31357SOL    HW195903  14.498   9.457  13.062
31357SOL    HW295904  14.448   9.591  13.112
31358SOL     OW95905   9.468   5.860   0.420
31358SOL    HW195906   9.513   5.813   0.350
31358SOL    HW295907   9.539   5.897   0.473
31359SOL     OW95908  13.761  10.776   7.186
31359SOL    HW195909  13.691  10.760   7.123
31359SOL    HW295910  13.762  10.871   7.197
31360SOL     OW95911   3.111  11.988   1.175
31360SOL    HW195912   3.099  11.924   1.105
31360SOL    HW295913   3.036  12.047   1.167
31361SOL     OW95914   8.921   2.044  14.574
31361SOL    HW195915   8.962   1.959  14.558
31361SOL    HW295916   8.953   2.100  14.504
31362SOL     OW95917  10.519   7.771  13.967
31362SOL    HW195918  10.467   7.846  13.938
31362SOL    HW295919  10.531   7.718  13.888
31363SOL     OW95920   9.554   9.234  14.049
31363SOL    HW195921   9.647   9.251  14.059
31363SOL    HW295922   9.536   9.162  14.109
31364SOL     OW95923   9.619   6.320   1.171
31364SOL    HW195924   9.567   6.240   1.168
31364SOL    HW295925   9.559   6.388   1.139
31365SOL     OW95926   3.671   8.507   8.600
31365SOL    HW195927   3.738   8.565   8.564
31365SOL    HW295928   3.679   8.426   8.550
31366SOL     OW95929   3.730  11.130  10.414
31366SOL    HW195930   3.658  11.156  10.472
31366SOL    HW295931   3.698  11.050  10.371
31367SOL     OW95932   1.061  12.698   0.836
31367SOL    HW195933   1.029  12.763   0.899
31367SOL    HW295934   1.091  12.750   0.761
31368SOL     OW95935  13.105   9.824   4.560
31368SOL    HW195936  13.079   9.740   4.596
31368SOL    HW295937  13.094   9.815   4.465
31369SOL     OW95938   1.832  11.456   9.121
31369SOL    HW195939   1.908  11.489   9.072
31369SOL    HW295940   1.756  11.484   9.070
31370SOL     OW95941  14.373   9.330  13.845
31370SOL    HW195942  14.294   9.371  13.812
31370SOL    HW295943  14.428   9.403  13.873
31371SOL     OW95944   8.697   0.592   0.319
31371SOL    HW195945   8.658   0.528   0.379
31371SOL    HW295946   8.698   0.548   0.234
31372SOL     OW95947  10.466  11.100  11.306
31372SOL    HW195948  10.378  11.078  11.339
31372SOL    HW295949  10.457  11.097  11.211
31373SOL     OW95950  12.921  10.088   2.553
31373SOL    HW195951  12.838  10.096   2.600
31373SOL    HW295952  12.907  10.138   2.472
31374SOL     OW95953  12.905   8.027  10.112
31374SOL    HW195954  12.917   8.079  10.032
31374SOL    HW295955  12.971   7.958  10.105
31375SOL     OW95956   5.413   4.475  10.306
31375SOL    HW195957   5.377   4.435  10.385
31375SOL    HW295958   5.506   4.453  10.308
31376SOL     OW95959   3.471   9.376  10.170
31376SOL    HW195960   3.380   9.393  10.146
31376SOL    HW295961   3.507   9.329  10.094
31377SOL     OW95962  14.257  10.052  13.369
31377SOL    HW195963  14.322  10.119  13.390
31377SOL    HW295964  14.234  10.069  13.278
31378SOL     OW95965   9.300  12.123   2.634
31378SOL    HW195966   9.275  12.108   2.543
31378SOL    HW295967   9.220  12.155   2.676
31379SOL     OW95968   7.480   5.501  12.838
31379SOL    HW195969   7.570   5.484  12.812
31379SOL    HW295970   7.429   5.491  12.757
31380SOL     OW95971   7.769   2.490   6.677
31380SOL    HW195972   7.817   2.558   6.724
31380SOL    HW295973   7.693   2.536   6.641
31381SOL     OW95974   4.880   8.292   0.066
31381SOL    HW195975   4.863   8.362   0.003
31381SOL    HW295976   4.950   8.328   0.121
31382SOL     OW95977   6.883   9.412   2.387
31382SOL    HW195978   6.954   9.422   2.324
31382SOL    HW295979   6.899   9.326   2.426
31383SOL     OW95980   2.548   7.214   1.786
31383SOL    HW195981   2.524   7.143   1.725
31383SOL    HW295982   2.644   7.207   1.792
31384SOL     OW95983   2.338   5.066  10.322
31384SOL    HW195984   2.304   5.113  10.398
31384SOL    HW295985   2.340   5.131  10.252
31385SOL     OW95986   4.684   7.927   4.692
31385SOL    HW195987   4.668   7.842   4.652
31385SOL    HW295988   4.720   7.906   4.778
31386SOL     OW95989  14.622  13.840   5.617
31386SOL    HW195990  14.544  13.824   5.669
31386SOL    HW295991  14.607  13.925   5.575
31387SOL     OW95992   7.975   1.827   2.768
31387SOL    HW195993   8.012   1.751   2.723
31387SOL    HW295994   7.884   1.803   2.785
31388SOL     OW95995   1.555  12.298   4.000
31388SOL    HW195996   1.593  12.385   4.004
31388SOL    HW295997   1.527  12.279   4.089
31389SOL     OW95998  14.437  11.117   9.681
31389SOL    HW195999  14.417  11.204   9.714
31389SOL    HW296000  14.391  11.111   9.598
31390SOL     OW96001  12.752  12.085  13.932
31390SOL    HW196002  12.758  12.036  14.014
31390SOL    HW296003  12.714  12.023  13.869
31391SOL     OW96004   7.937   5.953  12.952
31391SOL    HW196005   7.906   5.886  13.013
31391SOL    HW296006   8.015   5.988  12.994
31392SOL     OW96007   7.254  14.071  13.366
31392SOL    HW196008   7.309  14.097  13.291
31392SOL    HW296009   7.313  14.026  13.425
31393SOL     OW96010   4.761  13.365   1.955
31393SOL    HW196011   4.686  13.312   1.927
31393SOL    HW296012   4.800  13.397   1.873
31394SOL     OW96013   4.103   2.704   6.862
31394SOL    HW196014   4.015   2.717   6.897
31394SOL    HW296015   4.093   2.712   6.767
31395SOL     OW96016   3.944  13.958   1.713
31395SOL    HW196017   3.949  13.894   1.643
31395SOL    HW296018   3.981  13.914   1.789
31396SOL     OW96019   5.104  12.343   5.462
31396SOL    HW196020   5.178  12.286   5.480
31396SOL    HW296021   5.112  12.365   5.369
31397SOL     OW96022  10.206  10.140  14.597
31397SOL    HW196023  10.211  10.055  14.552
31397SOL    HW296024  10.286  10.143  14.650
31398SOL     OW96025   7.675  10.647  14.091
31398SOL    HW196026   7.691  10.662  13.998
31398SOL    HW296027   7.618  10.570  14.094
31399SOL     OW96028   0.818  12.145   3.909
31399SOL    HW196029   0.908  12.158   3.941
31399SOL    HW296030   0.765  12.139   3.988
31400SOL     OW96031  12.516   7.272   7.928
31400SOL    HW196032  12.479   7.331   7.863
31400SOL    HW296033  12.448   7.206   7.943
31401SOL     OW96034  14.564   8.457  13.917
31401SOL    HW196035  14.576   8.545  13.881
31401SOL    HW296036  14.469   8.450  13.932
31402SOL     OW96037   8.275   5.868  10.910
31402SOL    HW196038   8.321   5.929  10.968
31402SOL    HW296039   8.326   5.870  10.829
31403SOL     OW96040   4.528  10.087  12.435
31403SOL    HW196041   4.565  10.094  12.347
31403SOL    HW296042   4.458  10.022  12.426
31404SOL     OW96043   6.116  14.159   7.875
31404SOL    HW196044   6.181  14.103   7.919
31404SOL    HW296045   6.082  14.215   7.944
31405SOL     OW96046   4.265   1.407  11.912
31405SOL    HW196047   4.205   1.425  11.840
31405SOL    HW296048   4.323   1.339  11.879
31406SOL     OW96049  14.232  13.308   7.855
31406SOL    HW196050  14.239  13.401   7.877
31406SOL    HW296051  14.219  13.307   7.760
31407SOL     OW96052  12.382   7.479   3.221
31407SOL    HW196053  12.438   7.493   3.145
31407SOL    HW296054  12.439   7.495   3.296
31408SOL     OW96055   7.052  13.970   7.536
31408SOL    HW196056   6.978  14.025   7.563
31408SOL    HW296057   7.126  14.003   7.586
31409SOL     OW96058   8.175  12.468   0.507
31409SOL    HW196059   8.159  12.547   0.457
31409SOL    HW296060   8.259  12.435   0.475
31410SOL     OW96061   7.323   1.052  11.501
31410SOL    HW196062   7.359   1.141  11.500
31410SOL    HW296063   7.327   1.025  11.592
31411SOL     OW96064   6.224   9.438   9.800
31411SOL    HW196065   6.263   9.416   9.715
31411SOL    HW296066   6.141   9.481   9.778
31412SOL     OW96067   5.947   0.408   4.986
31412SOL    HW196068   5.931   0.424   4.894
31412SOL    HW296069   5.998   0.327   4.988
31413SOL     OW96070   4.594  14.563  14.526
31413SOL    HW196071   4.667  14.625  14.518
31413SOL    HW296072   4.517  14.613  14.501
31414SOL     OW96073   9.272   9.542  10.554
31414SOL    HW196074   9.284   9.447  10.555
31414SOL    HW296075   9.340   9.574  10.494
31415SOL     OW96076  10.464  13.763  14.292
31415SOL    HW196077  10.469  13.811  14.374
31415SOL    HW296078  10.521  13.812  14.232
31416SOL     OW96079   5.535   4.449   6.574
31416SOL    HW196080   5.481   4.524   6.600
31416SOL    HW296081   5.609   4.450   6.636
31417SOL     OW96082  12.333   6.945   1.862
31417SOL    HW196083  12.325   6.936   1.767
31417SOL    HW296084  12.288   7.027   1.882
31418SOL     OW96085   8.413   6.058  14.161
31418SOL    HW196086   8.377   6.093  14.242
31418SOL    HW296087   8.501   6.096  14.156
31419SOL     OW96088  14.351   9.781   8.161
31419SOL    HW196089  14.355   9.796   8.255
31419SOL    HW296090  14.378   9.865   8.122
31420SOL     OW96091   4.395   1.080   6.375
31420SOL    HW196092   4.463   1.085   6.442
31420SOL    HW296093   4.323   1.033   6.417
31421SOL     OW96094   6.168   2.914   7.048
31421SOL    HW196095   6.141   2.921   7.140
31421SOL    HW296096   6.200   2.824   7.040
31422SOL     OW96097   8.059   1.965  10.393
31422SOL    HW196098   8.148   1.991  10.417
31422SOL    HW296099   8.004   2.037  10.423
31423SOL     OW96100   0.916   9.782   7.237
31423SOL    HW196101   0.916   9.869   7.198
31423SOL    HW296102   0.826   9.769   7.267
31424SOL     OW96103   4.771   2.708   3.357
31424SOL    HW196104   4.680   2.708   3.385
31424SOL    HW296105   4.783   2.792   3.313
31425SOL     OW96106   8.098  10.289   0.872
31425SOL    HW196107   8.042  10.358   0.907
31425SOL    HW296108   8.187  10.325   0.879
31426SOL     OW96109   4.411   1.856   5.356
31426SOL    HW196110   4.411   1.827   5.265
31426SOL    HW296111   4.503   1.857   5.381
31427SOL     OW96112  10.999  11.066   4.595
31427SOL    HW196113  11.069  11.070   4.661
31427SOL    HW296114  10.940  11.137   4.619
31428SOL     OW96115  11.941  10.920  10.483
31428SOL    HW196116  11.927  10.915  10.389
31428SOL    HW296117  11.901  11.004  10.509
31429SOL     OW96118  11.047   1.413  12.885
31429SOL    HW196119  11.083   1.444  12.802
31429SOL    HW296120  10.965   1.369  12.861
31430SOL     OW96121   3.484  10.424   8.028
31430SOL    HW196122   3.565  10.442   8.077
31430SOL    HW296123   3.515  10.381   7.947
31431SOL     OW96124   4.206   7.740  10.980
31431SOL    HW196125   4.130   7.793  10.955
31431SOL    HW296126   4.281   7.787  10.944
31432SOL     OW96127   8.185   3.590   3.076
31432SOL    HW196128   8.199   3.674   3.119
31432SOL    HW296129   8.119   3.607   3.009
31433SOL     OW96130   1.332  13.469  13.187
31433SOL    HW196131   1.408  13.452  13.131
31433SOL    HW296132   1.258  13.435  13.138
31434SOL     OW96133   0.101   4.523   6.691
31434SOL    HW196134   0.161   4.580   6.740
31434SOL    HW296135   0.040   4.584   6.650
31435SOL     OW96136   6.015   3.892  14.077
31435SOL    HW196137   5.936   3.921  14.122
31435SOL    HW296138   5.983   3.842  14.002
31436SOL     OW96139   8.565  14.380  13.847
31436SOL    HW196140   8.629  14.369  13.917
31436SOL    HW296141   8.527  14.467  13.862
31437SOL     OW96142  14.658   2.930   5.609
31437SOL    HW196143  14.699   2.893   5.531
31437SOL    HW296144  14.654   2.857   5.671
31438SOL     OW96145  11.459   1.238  10.997
31438SOL    HW196146  11.365   1.224  10.994
31438SOL    HW296147  11.485   1.242  10.904
31439SOL     OW96148   8.602   6.747  11.254
31439SOL    HW196149   8.567   6.748  11.165
31439SOL    HW296150   8.577   6.832  11.291
31440SOL     OW96151   5.360   0.556  12.423
31440SOL    HW196152   5.435   0.596  12.466
31440SOL    HW296153   5.288   0.617  12.436
31441SOL     OW96154   9.947  11.951   0.041
31441SOL    HW196155   9.976  12.003  14.849
31441SOL    HW296156  10.025  11.940   0.096
31442SOL     OW96157   9.175  12.231   5.199
31442SOL    HW196158   9.094  12.182   5.185
31442SOL    HW296159   9.181  12.291   5.124
31443SOL     OW96160  13.335   1.595   6.407
31443SOL    HW196161  13.280   1.610   6.484
31443SOL    HW296162  13.372   1.680   6.387
31444SOL     OW96163  11.656   8.147  12.422
31444SOL    HW196164  11.742   8.185  12.441
31444SOL    HW296165  11.671   8.085  12.351
31445SOL     OW96166   0.504   2.820   3.662
31445SOL    HW196167   0.564   2.791   3.594
31445SOL    HW296168   0.527   2.912   3.678
31446SOL     OW96169   5.984   8.332   3.146
31446SOL    HW196170   5.997   8.336   3.241
31446SOL    HW296171   5.919   8.399   3.128
31447SOL     OW96172  12.481   0.118  14.738
31447SOL    HW196173  12.451   0.203  14.708
31447SOL    HW296174  12.576   0.119  14.721
31448SOL     OW96175  12.183  12.936   0.360
31448SOL    HW196176  12.140  12.861   0.319
31448SOL    HW296177  12.184  13.003   0.291
31449SOL     OW96178   4.178   2.745   1.714
31449SOL    HW196179   4.152   2.824   1.666
31449SOL    HW296180   4.271   2.735   1.693
31450SOL     OW96181   7.273   0.377  14.406
31450SOL    HW196182   7.195   0.432  14.419
31450SOL    HW296183   7.264   0.307  14.471
31451SOL     OW96184   5.537   3.492  13.887
31451SOL    HW196185   5.595   3.438  13.834
31451SOL    HW296186   5.503   3.432  13.954
31452SOL     OW96187  13.731  10.287   8.313
31452SOL    HW196188  13.675  10.342   8.259
31452SOL    HW296189  13.810  10.339   8.327
31453SOL     OW96190  14.397   9.661   6.778
31453SOL    HW196191  14.458   9.602   6.822
31453SOL    HW296192  14.387   9.623   6.690
31454SOL     OW96193  14.837   9.191   6.148
31454SOL    HW196194  14.793   9.111   6.179
31454SOL    HW296195  14.810   9.198   6.056
31455SOL     OW96196  13.167   1.902  10.569
31455SOL    HW196197  13.259   1.927  10.571
31455SOL    HW296198  13.163   1.821  10.620
31456SOL     OW96199   7.506  13.367   4.881
31456SOL    HW196200   7.544  13.381   4.968
31456SOL    HW296201   7.550  13.289   4.848
31457SOL     OW96202  13.527   1.513   1.374
31457SOL    HW196203  13.611   1.467   1.369
31457SOL    HW296204  13.536   1.570   1.451
31458SOL     OW96205   6.698   9.379  14.872
31458SOL    HW196206   6.738   9.364  14.786
31458SOL    HW296207   6.639   9.453  14.858
31459SOL     OW96208  10.890   4.731  10.301
31459SOL    HW196209  10.878   4.736  10.206
31459SOL    HW296210  10.977   4.692  10.312
31460SOL     OW96211   0.746  13.502  11.815
31460SOL    HW196212   0.652  13.484  11.821
31460SOL    HW296213   0.752  13.594  11.790
31461SOL     OW96214   4.396   2.640   9.110
31461SOL    HW196215   4.457   2.675   9.175
31461SOL    HW296216   4.353   2.717   9.073
31462SOL     OW96217  10.817   6.787   9.825
31462SOL    HW196218  10.821   6.883   9.824
31462SOL    HW296219  10.725   6.767   9.812
31463SOL     OW96220   8.589  13.801   7.174
31463SOL    HW196221   8.524  13.767   7.236
31463SOL    HW296222   8.653  13.846   7.230
31464SOL     OW96223   8.329   5.430   0.154
31464SOL    HW196224   8.418   5.396   0.163
31464SOL    HW296225   8.306   5.459   0.242
31465SOL     OW96226  13.082   7.997   0.852
31465SOL    HW196227  13.073   8.010   0.758
31465SOL    HW296228  12.992   8.003   0.886
31466SOL     OW96229   4.747  14.197   6.190
31466SOL    HW196230   4.767  14.287   6.213
31466SOL    HW296231   4.730  14.199   6.096
31467SOL     OW96232   5.137   1.960   7.422
31467SOL    HW196233   5.142   2.023   7.351
31467SOL    HW296234   5.057   1.983   7.469
31468SOL     OW96235  14.385   4.185  11.571
31468SOL    HW196236  14.378   4.090  11.574
31468SOL    HW296237  14.478   4.203  11.563
31469SOL     OW96238   2.718   4.269  12.274
31469SOL    HW196239   2.794   4.282  12.331
31469SOL    HW296240   2.754   4.263  12.186
31470SOL     OW96241  10.393   7.215   5.977
31470SOL    HW196242  10.358   7.148   5.917
31470SOL    HW296243  10.472   7.246   5.934
31471SOL     OW96244   1.904   1.114   6.422
31471SOL    HW196245   1.978   1.059   6.396
31471SOL    HW296246   1.840   1.103   6.352
31472SOL     OW96247  12.972  14.509   2.685
31472SOL    HW196248  12.966  14.426   2.637
31472SOL    HW296249  12.962  14.485   2.777
31473SOL     OW96250   0.648  11.655   8.037
31473SOL    HW196251   0.637  11.561   8.050
31473SOL    HW296252   0.605  11.695   8.112
31474SOL     OW96253   2.953  11.969   2.118
31474SOL    HW196254   3.020  11.901   2.125
31474SOL    HW296255   2.870  11.922   2.128
31475SOL     OW96256  14.031  13.976   7.509
31475SOL    HW196257  14.049  13.948   7.420
31475SOL    HW296258  14.054  13.901   7.564
31476SOL     OW96259  10.453  13.210   1.118
31476SOL    HW196260  10.476  13.295   1.080
31476SOL    HW296261  10.382  13.229   1.179
31477SOL     OW96262   6.264   5.964   0.334
31477SOL    HW196263   6.306   5.878   0.326
31477SOL    HW296264   6.315   6.022   0.277
31478SOL     OW96265   4.177   0.628  11.492
31478SOL    HW196266   4.150   0.592  11.407
31478SOL    HW296267   4.152   0.720  11.489
31479SOL     OW96268  12.467   2.628   1.192
31479SOL    HW196269  12.527   2.692   1.230
31479SOL    HW296270  12.493   2.545   1.232
31480SOL     OW96271   4.518   4.902   8.788
31480SOL    HW196272   4.599   4.876   8.743
31480SOL    HW296273   4.514   4.846   8.865
31481SOL     OW96274  10.165   5.337  12.369
31481SOL    HW196275  10.184   5.390  12.291
31481SOL    HW296276  10.112   5.395  12.424
31482SOL     OW96277  10.643   1.097   0.008
31482SOL    HW196278  10.638   1.062   0.097
31482SOL    HW296279  10.573   1.054  14.843
31483SOL     OW96280   8.982  14.654   9.385
31483SOL    HW196281   9.018  14.614   9.465
31483SOL    HW296282   8.933  14.729   9.417
31484SOL     OW96283  10.969   0.887   2.990
31484SOL    HW196284  10.970   0.865   2.897
31484SOL    HW296285  11.036   0.830   3.029
31485SOL     OW96286   9.085  11.606   0.017
31485SOL    HW196287   9.047  11.693   0.015
31485SOL    HW296288   9.085  11.581   0.110
31486SOL     OW96289   4.852  14.125  13.510
31486SOL    HW196290   4.929  14.136  13.454
31486SOL    HW296291   4.778  14.125  13.449
31487SOL     OW96292   3.675   0.729   3.196
31487SOL    HW196293   3.584   0.738   3.167
31487SOL    HW296294   3.674   0.656   3.257
31488SOL     OW96295   3.155   8.800   6.491
31488SOL    HW196296   3.077   8.765   6.533
31488SOL    HW296297   3.161   8.752   6.408
31489SOL     OW96298  11.145   8.565   6.150
31489SOL    HW196299  11.084   8.497   6.180
31489SOL    HW296300  11.220   8.516   6.117
31490SOL     OW96301   4.491   3.106   2.082
31490SOL    HW196302   4.492   3.143   2.170
31490SOL    HW296303   4.398   3.098   2.061
31491SOL     OW96304   4.150   1.676  12.343
31491SOL    HW196305   4.165   1.739  12.413
31491SOL    HW296306   4.193   1.714  12.266
31492SOL     OW96307  13.324   3.112  13.610
31492SOL    HW196308  13.286   3.028  13.634
31492SOL    HW296309  13.382   3.134  13.684
31493SOL     OW96310   4.141   4.880   4.327
31493SOL    HW196311   4.230   4.844   4.325
31493SOL    HW296312   4.115   4.875   4.419
31494SOL     OW96313   4.934   9.335  12.490
31494SOL    HW196314   4.893   9.390  12.423
31494SOL    HW296315   4.874   9.339  12.564
31495SOL     OW96316   9.676  11.157   3.522
31495SOL    HW196317   9.649  11.102   3.596
31495SOL    HW296318   9.767  11.134   3.507
31496SOL     OW96319   0.370   6.438   8.846
31496SOL    HW196320   0.353   6.471   8.934
31496SOL    HW296321   0.313   6.362   8.837
31497SOL     OW96322  12.243   4.253   9.496
31497SOL    HW196323  12.241   4.177   9.555
31497SOL    HW296324  12.274   4.325   9.551
31498SOL     OW96325   0.633   2.760   2.714
31498SOL    HW196326   0.719   2.755   2.757
31498SOL    HW296327   0.581   2.816   2.770
31499SOL     OW96328  11.392   3.678  14.639
31499SOL    HW196329  11.348   3.750  14.683
31499SOL    HW296330  11.485   3.700  14.645
31500SOL     OW96331  10.224   0.598  14.878
31500SOL    HW196332  10.257   0.676  14.834
31500SOL    HW296333  10.259   0.604   0.085
31501SOL     OW96334   2.122   1.274   1.657
31501SOL    HW196335   2.162   1.198   1.698
31501SOL    HW296336   2.128   1.256   1.563
31502SOL     OW96337   3.562   1.139   6.511
31502SOL    HW196338   3.477   1.134   6.466
31502SOL    HW296339   3.610   1.206   6.463
31503SOL     OW96340   3.779  11.666  13.661
31503SOL    HW196341   3.812  11.655  13.572
31503SOL    HW296342   3.761  11.577  13.691
31504SOL     OW96343   8.135   5.287  14.267
31504SOL    HW196344   8.117   5.269  14.175
31504SOL    HW296345   8.134   5.383  14.273
31505SOL     OW96346   5.243  10.974   1.585
31505SOL    HW196347   5.236  10.907   1.517
31505SOL    HW296348   5.294  10.933   1.654
31506SOL     OW96349   3.079  10.824  10.229
31506SOL    HW196350   3.049  10.913  10.246
31506SOL    HW296351   3.031  10.797  10.151
31507SOL     OW96352   7.984   2.150   1.904
31507SOL    HW196353   7.895   2.115   1.905
31507SOL    HW296354   8.031   2.099   1.970
31508SOL     OW96355  11.822   1.675   8.242
31508SOL    HW196356  11.766   1.750   8.263
31508SOL    HW296357  11.845   1.638   8.327
31509SOL     OW96358   4.591   0.527  14.667
31509SOL    HW196359   4.629   0.510  14.580
31509SOL    HW296360   4.661   0.507  14.728
31510SOL     OW96361   7.224   3.702  10.724
31510SOL    HW196362   7.261   3.685  10.637
31510SOL    HW296363   7.273   3.777  10.757
31511SOL     OW96364  13.442   3.976   9.889
31511SOL    HW196365  13.498   4.040   9.845
31511SOL    HW296366  13.498   3.937   9.955
31512SOL     OW96367   0.228  12.728  13.742
31512SOL    HW196368   0.312  12.752  13.702
31512SOL    HW296369   0.199  12.807  13.787
31513SOL     OW96370  10.736   9.495   1.795
31513SOL    HW196371  10.728   9.439   1.872
31513SOL    HW296372  10.794   9.566   1.823
31514SOL     OW96373   4.172   9.174  10.840
31514SOL    HW196374   4.237   9.148  10.775
31514SOL    HW296375   4.110   9.228  10.791
31515SOL     OW96376   6.707  11.311   1.034
31515SOL    HW196377   6.641  11.358   1.085
31515SOL    HW296378   6.712  11.359   0.951
31516SOL     OW96379   3.802  12.460   2.165
31516SOL    HW196380   3.721  12.509   2.154
31516SOL    HW296381   3.871  12.519   2.134
31517SOL     OW96382   9.447   9.734   3.665
31517SOL    HW196383   9.353   9.750   3.659
31517SOL    HW296384   9.463   9.721   3.758
31518SOL     OW96385   5.950   1.720   4.776
31518SOL    HW196386   6.040   1.720   4.743
31518SOL    HW296387   5.912   1.800   4.741
31519SOL     OW96388  10.455  13.237   8.058
31519SOL    HW196389  10.420  13.196   7.978
31519SOL    HW296390  10.459  13.165   8.121
31520SOL     OW96391  13.410  12.359   9.345
31520SOL    HW196392  13.317  12.367   9.366
31520SOL    HW296393  13.451  12.332   9.427
31521SOL     OW96394   8.141  11.953   2.056
31521SOL    HW196395   8.051  11.920   2.054
31521SOL    HW296396   8.159  11.980   1.966
31522SOL     OW96397   5.060   8.050  13.669
31522SOL    HW196398   5.120   7.990  13.624
31522SOL    HW296399   5.098   8.059  13.757
31523SOL     OW96400   0.195   8.544  12.827
31523SOL    HW196401   0.237   8.460  12.809
31523SOL    HW296402   0.267   8.604  12.845
31524SOL     OW96403   1.002   5.267   9.635
31524SOL    HW196404   0.920   5.302   9.599
31524SOL    HW296405   1.024   5.327   9.705
31525SOL     OW96406  12.952   5.670  13.561
31525SOL    HW196407  12.955   5.766  13.566
31525SOL    HW296408  12.883   5.645  13.622
31526SOL     OW96409   3.692   8.607   1.934
31526SOL    HW196410   3.742   8.611   1.852
31526SOL    HW296411   3.644   8.690   1.936
31527SOL     OW96412  12.003  13.329   7.552
31527SOL    HW196413  12.056  13.406   7.530
31527SOL    HW296414  12.067  13.260   7.569
31528SOL     OW96415   3.047   3.130  13.958
31528SOL    HW196416   3.028   3.106  13.867
31528SOL    HW296417   2.990   3.205  13.976
31529SOL     OW96418  14.253   3.688  12.993
31529SOL    HW196419  14.228   3.602  12.959
31529SOL    HW296420  14.182   3.747  12.965
31530SOL     OW96421   1.125   8.321  13.203
31530SOL    HW196422   1.200   8.360  13.249
31530SOL    HW296423   1.154   8.232  13.182
31531SOL     OW96424  11.425  11.459   5.237
31531SOL    HW196425  11.331  11.451   5.253
31531SOL    HW296426  11.450  11.543   5.276
31532SOL     OW96427   5.612   1.542  10.767
31532SOL    HW196428   5.583   1.495  10.845
31532SOL    HW296429   5.569   1.627  10.772
31533SOL     OW96430  14.640   7.926   4.827
31533SOL    HW196431  14.697   8.003   4.831
31533SOL    HW296432  14.697   7.856   4.793
31534SOL     OW96433  13.874   3.088   0.708
31534SOL    HW196434  13.822   3.040   0.772
31534SOL    HW296435  13.863   3.039   0.627
31535SOL     OW96436   1.876  13.919   3.742
31535SOL    HW196437   1.789  13.901   3.705
31535SOL    HW296438   1.917  13.978   3.678
31536SOL     OW96439   6.800   4.191   6.652
31536SOL    HW196440   6.783   4.269   6.705
31536SOL    HW296441   6.714   4.153   6.637
31537SOL     OW96442   7.212   9.316   0.995
31537SOL    HW196443   7.257   9.321   0.911
31537SOL    HW296444   7.219   9.224   1.021
31538SOL     OW96445   4.300  12.649   9.299
31538SOL    HW196446   4.326  12.735   9.331
31538SOL    HW296447   4.254  12.666   9.217
31539SOL     OW96448   3.418   3.077   5.031
31539SOL    HW196449   3.352   3.118   5.086
31539SOL    HW296450   3.465   3.019   5.090
31540SOL     OW96451   2.295   0.728   8.774
31540SOL    HW196452   2.337   0.715   8.859
31540SOL    HW296453   2.363   0.706   8.710
31541SOL     OW96454   9.936  10.110   9.998
31541SOL    HW196455   9.887  10.160  10.063
31541SOL    HW296456   9.994  10.174   9.957
31542SOL     OW96457   5.735   0.031   5.825
31542SOL    HW196458   5.642   0.052   5.813
31542SOL    HW296459   5.737  14.859   5.904
31543SOL     OW96460  14.479  14.780   6.772
31543SOL    HW196461  14.451  14.814   6.857
31543SOL    HW296462  14.477  14.855   6.713
31544SOL     OW96463   7.334   0.768   3.220
31544SOL    HW196464   7.384   0.775   3.139
31544SOL    HW296465   7.340   0.855   3.259
31545SOL     OW96466  12.240  12.393   9.748
31545SOL    HW196467  12.153  12.389   9.708
31545SOL    HW296468  12.244  12.317   9.805
31546SOL     OW96469   8.826  10.981  10.130
31546SOL    HW196470   8.829  10.889  10.103
31546SOL    HW296471   8.881  11.026  10.065
31547SOL     OW96472  12.276   9.425  10.218
31547SOL    HW196473  12.248   9.420  10.310
31547SOL    HW296474  12.330   9.503  10.213
31548SOL     OW96475   4.988   9.834   5.843
31548SOL    HW196476   4.923   9.781   5.888
31548SOL    HW296477   4.998   9.912   5.896
31549SOL     OW96478   4.913   9.281  10.311
31549SOL    HW196479   4.954   9.342  10.249
31549SOL    HW296480   4.833   9.326  10.338
31550SOL     OW96481  10.448   0.152  11.389
31550SOL    HW196482  10.489   0.234  11.414
31550SOL    HW296483  10.515   0.105  11.341
31551SOL     OW96484   6.261   9.001   2.024
31551SOL    HW196485   6.348   8.990   1.984
31551SOL    HW296486   6.273   9.067   2.091
31552SOL     OW96487   8.190   0.164   2.557
31552SOL    HW196488   8.102   0.140   2.589
31552SOL    HW296489   8.197   0.258   2.575
31553SOL     OW96490   9.200   9.172  11.516
31553SOL    HW196491   9.203   9.238  11.447
31553SOL    HW296492   9.106   9.164  11.537
31554SOL     OW96493  11.504  10.358   7.372
31554SOL    HW196494  11.590  10.319   7.354
31554SOL    HW296495  11.472  10.313   7.450
31555SOL     OW96496  13.666   8.230   5.319
31555SOL    HW196497  13.646   8.265   5.406
31555SOL    HW296498  13.708   8.146   5.336
31556SOL     OW96499   2.603   6.621  10.904
31556SOL    HW196500   2.653   6.546  10.939
31556SOL    HW296501   2.519   6.584  10.878
31557SOL     OW96502  10.824   7.179   7.654
31557SOL    HW196503  10.816   7.258   7.602
31557SOL    HW296504  10.858   7.113   7.593
31558SOL     OW96505  14.300   2.170  14.218
31558SOL    HW196506  14.346   2.094  14.183
31558SOL    HW296507  14.239   2.196  14.149
31559SOL     OW96508   3.785  13.183   9.909
31559SOL    HW196509   3.836  13.123   9.856
31559SOL    HW296510   3.772  13.260   9.854
31560SOL     OW96511  12.274   3.241   4.108
31560SOL    HW196512  12.250   3.150   4.092
31560SOL    HW296513  12.368   3.238   4.128
31561SOL     OW96514   3.352   1.390   9.138
31561SOL    HW196515   3.404   1.362   9.213
31561SOL    HW296516   3.415   1.432   9.079
31562SOL     OW96517   6.564  12.891   6.050
31562SOL    HW196518   6.481  12.842   6.054
31562SOL    HW296519   6.604  12.877   6.135
31563SOL     OW96520   3.933   6.425   0.497
31563SOL    HW196521   3.987   6.486   0.549
31563SOL    HW296522   3.991   6.395   0.427
31564SOL     OW96523  13.130   0.283   3.385
31564SOL    HW196524  13.048   0.332   3.375
31564SOL    HW296525  13.104   0.205   3.435
31565SOL     OW96526   5.534   9.739   4.014
31565SOL    HW196527   5.606   9.798   4.039
31565SOL    HW296528   5.550   9.719   3.922
31566SOL     OW96529   6.041  10.756  10.093
31566SOL    HW196530   5.991  10.814  10.035
31566SOL    HW296531   5.981  10.683  10.109
31567SOL     OW96532  14.738  12.943   2.613
31567SOL    HW196533  14.730  13.035   2.640
31567SOL    HW296534  14.830  12.933   2.589
31568SOL     OW96535   8.928  14.428   0.614
31568SOL    HW196536   9.020  14.418   0.591
31568SOL    HW296537   8.929  14.452   0.707
31569SOL     OW96538  13.969   6.173  11.169
31569SOL    HW196539  13.957   6.080  11.154
31569SOL    HW296540  14.046   6.179  11.226
31570SOL     OW96541   7.340   6.834   4.046
31570SOL    HW196542   7.385   6.750   4.043
31570SOL    HW296543   7.258   6.820   4.000
31571SOL     OW96544   4.423  13.508   9.503
31571SOL    HW196545   4.379  13.525   9.420
31571SOL    HW296546   4.448  13.416   9.499
31572SOL     OW96547   1.007  11.806   6.586
31572SOL    HW196548   0.973  11.721   6.614
31572SOL    HW296549   1.012  11.800   6.491
31573SOL     OW96550   2.271  14.439  13.412
31573SOL    HW196551   2.344  14.377  13.403
31573SOL    HW296552   2.311  14.525  13.400
31574SOL     OW96553  12.765   5.112  12.535
31574SOL    HW196554  12.692   5.172  12.550
31574SOL    HW296555  12.774   5.107  12.440
31575SOL     OW96556   5.587  13.174  10.987
31575SOL    HW196557   5.683  13.174  10.992
31575SOL    HW296558   5.563  13.266  10.988
31576SOL     OW96559  12.233   2.320  14.427
31576SOL    HW196560  12.320   2.308  14.390
31576SOL    HW296561  12.173   2.285  14.361
31577SOL     OW96562   5.891   1.525   2.823
31577SOL    HW196563   5.933   1.599   2.867
31577SOL    HW296564   5.839   1.482   2.891
31578SOL     OW96565  10.611   7.709  13.168
31578SOL    HW196566  10.551   7.741  13.236
31578SOL    HW296567  10.685   7.674  13.217
31579SOL     OW96568   7.819  14.441   9.765
31579SOL    HW196569   7.867  14.400   9.838
31579SOL    HW296570   7.753  14.496   9.808
31580SOL     OW96571  11.405   6.693   7.023
31580SOL    HW196572  11.433   6.607   7.056
31580SOL    HW296573  11.312   6.683   7.004
31581SOL     OW96574   7.907   4.013   8.732
31581SOL    HW196575   7.899   4.039   8.824
31581SOL    HW296576   7.915   4.096   8.684
31582SOL     OW96577  10.992  10.800   6.633
31582SOL    HW196578  10.994  10.877   6.691
31582SOL    HW296579  11.039  10.733   6.681
31583SOL     OW96580  14.545   8.299   4.485
31583SOL    HW196581  14.496   8.380   4.501
31583SOL    HW296582  14.578   8.274   4.572
31584SOL     OW96583  11.439   0.350   3.198
31584SOL    HW196584  11.526   0.330   3.233
31584SOL    HW296585  11.422   0.280   3.136
31585SOL     OW96586  14.486  11.413  14.787
31585SOL    HW196587  14.535  11.336  14.759
31585SOL    HW296588  14.552  11.482  14.796
31586SOL     OW96589   9.212   9.736   2.800
31586SOL    HW196590   9.202   9.688   2.718
31586SOL    HW296591   9.199   9.827   2.775
31587SOL     OW96592  11.357  13.128  14.599
31587SOL    HW196593  11.423  13.196  14.584
31587SOL    HW296594  11.369  13.103  14.691
31588SOL     OW96595   1.217  11.529   6.794
31588SOL    HW196596   1.151  11.598   6.790
31588SOL    HW296597   1.168  11.452   6.823
31589SOL     OW96598  11.572   6.084   4.977
31589SOL    HW196599  11.586   6.039   5.060
31589SOL    HW296600  11.658   6.082   4.934
31590SOL     OW96601   4.465   8.156   8.765
31590SOL    HW196602   4.434   8.243   8.788
31590SOL    HW296603   4.387   8.100   8.769
31591SOL     OW96604  10.488   8.130   2.695
31591SOL    HW196605  10.541   8.197   2.652
31591SOL    HW296606  10.499   8.052   2.642
31592SOL     OW96607  11.163  10.659   4.589
31592SOL    HW196608  11.096  10.613   4.538
31592SOL    HW296609  11.121  10.675   4.674
31593SOL     OW96610  11.612  10.081   2.717
31593SOL    HW196611  11.629  10.013   2.651
31593SOL    HW296612  11.683  10.071   2.780
31594SOL     OW96613  13.473   3.623   1.526
31594SOL    HW196614  13.542   3.618   1.591
31594SOL    HW296615  13.518   3.645   1.444
31595SOL     OW96616   9.097   9.750   2.329
31595SOL    HW196617   9.032   9.819   2.319
31595SOL    HW296618   9.090   9.724   2.421
31596SOL     OW96619  14.404  11.869   9.409
31596SOL    HW196620  14.359  11.953   9.418
31596SOL    HW296621  14.385  11.841   9.320
31597SOL     OW96622  11.118   3.859   2.748
31597SOL    HW196623  11.192   3.914   2.775
31597SOL    HW296624  11.158   3.782   2.709
31598SOL     OW96625   2.441  12.648  13.950
31598SOL    HW196626   2.452  12.618  14.041
31598SOL    HW296627   2.379  12.720  13.956
31599SOL     OW96628   4.897   8.275  10.325
31599SOL    HW196629   4.895   8.369  10.308
31599SOL    HW296630   4.825   8.240  10.271
31600SOL     OW96631   3.824   5.922   5.217
31600SOL    HW196632   3.870   6.006   5.212
31600SOL    HW296633   3.748   5.941   5.272
31601SOL     OW96634  12.127   7.410  11.019
31601SOL    HW196635  12.054   7.428  11.078
31601SOL    HW296636  12.142   7.493  10.974
31602SOL     OW96637   1.283   2.213   0.469
31602SOL    HW196638   1.213   2.199   0.406
31602SOL    HW296639   1.293   2.129   0.513
31603SOL     OW96640   6.832   5.601  10.848
31603SOL    HW196641   6.745   5.636  10.862
31603SOL    HW296642   6.822   5.542  10.773
31604SOL     OW96643   8.896   5.748   2.241
31604SOL    HW196644   8.865   5.671   2.290
31604SOL    HW296645   8.985   5.761   2.271
31605SOL     OW96646  10.562  14.205  12.606
31605SOL    HW196647  10.617  14.236  12.678
31605SOL    HW296648  10.501  14.144  12.648
31606SOL     OW96649  14.737  11.781   4.913
31606SOL    HW196650  14.816  11.806   4.866
31606SOL    HW296651  14.666  11.793   4.849
31607SOL     OW96652   6.752  12.024   8.967
31607SOL    HW196653   6.790  12.096   9.017
31607SOL    HW296654   6.666  12.011   9.007
31608SOL     OW96655   2.308   9.311   7.733
31608SOL    HW196656   2.223   9.336   7.697
31608SOL    HW296657   2.294   9.309   7.828
31609SOL     OW96658  11.742  14.705  11.054
31609SOL    HW196659  11.825  14.751  11.061
31609SOL    HW296660  11.720  14.708  10.961
31610SOL     OW96661   0.181   2.407  10.587
31610SOL    HW196662   0.108   2.361  10.627
31610SOL    HW296663   0.219   2.459  10.658
31611SOL     OW96664  12.062   7.174   0.226
31611SOL    HW196665  12.011   7.096   0.207
31611SOL    HW296666  12.061   7.225   0.145
31612SOL     OW96667  10.312  12.760   5.184
31612SOL    HW196668  10.243  12.798   5.130
31612SOL    HW296669  10.272  12.751   5.271
31613SOL     OW96670   3.266  10.163   7.426
31613SOL    HW196671   3.324  10.170   7.501
31613SOL    HW296672   3.189  10.115   7.459
31614SOL     OW96673  11.444  12.107  14.554
31614SOL    HW196674  11.540  12.110  14.558
31614SOL    HW296675  11.425  12.057  14.475
31615SOL     OW96676   3.300  14.363   3.859
31615SOL    HW196677   3.250  14.287   3.888
31615SOL    HW296678   3.390  14.329   3.849
31616SOL     OW96679   0.102   4.558   0.641
31616SOL    HW196680   0.141   4.599   0.563
31616SOL    HW296681   0.105   4.464   0.623
31617SOL     OW96682  14.656   6.893   8.285
31617SOL    HW196683  14.613   6.826   8.339
31617SOL    HW296684  14.670   6.850   8.200
31618SOL     OW96685   6.945   8.356   2.632
31618SOL    HW196686   6.866   8.408   2.614
31618SOL    HW296687   6.983   8.397   2.710
31619SOL     OW96688  10.580   4.750   0.047
31619SOL    HW196689  10.607   4.829   0.094
31619SOL    HW296690  10.584   4.680   0.112
31620SOL     OW96691  13.710   6.872   4.010
31620SOL    HW196692  13.641   6.824   4.056
31620SOL    HW296693  13.728   6.948   4.065
31621SOL     OW96694  11.682   6.566   9.688
31621SOL    HW196695  11.724   6.497   9.637
31621SOL    HW296696  11.636   6.521   9.758
31622SOL     OW96697  13.748  13.010   6.489
31622SOL    HW196698  13.803  12.986   6.564
31622SOL    HW296699  13.695  13.083   6.520
31623SOL     OW96700  11.518  10.288   9.816
31623SOL    HW196701  11.547  10.374   9.785
31623SOL    HW296702  11.585  10.228   9.786
31624SOL     OW96703   2.476   4.562  11.201
31624SOL    HW196704   2.404   4.609  11.159
31624SOL    HW296705   2.442   4.539  11.288
31625SOL     OW96706   1.321   6.941   0.389
31625SOL    HW196707   1.276   6.857   0.395
31625SOL    HW296708   1.253   7.006   0.407
31626SOL     OW96709   6.932   3.774   8.296
31626SOL    HW196710   6.948   3.682   8.318
31626SOL    HW296711   6.986   3.789   8.218
31627SOL     OW96712   0.030  12.285   9.898
31627SOL    HW196713   0.072  12.268   9.983
31627SOL    HW296714   0.072  12.364   9.866
31628SOL     OW96715   7.532  13.564   7.505
31628SOL    HW196716   7.437  13.572   7.509
31628SOL    HW296717   7.547  13.482   7.457
31629SOL     OW96718   6.590  14.257  13.114
31629SOL    HW196719   6.595  14.171  13.158
31629SOL    HW296720   6.523  14.305  13.163
31630SOL     OW96721   0.961   8.959   2.661
31630SOL    HW196722   0.987   8.871   2.635
31630SOL    HW296723   1.039   8.998   2.699
31631SOL     OW96724  13.361  12.520   1.739
31631SOL    HW196725  13.393  12.525   1.649
31631SOL    HW296726  13.291  12.455   1.736
31632SOL     OW96727  10.111  10.458  14.026
31632SOL    HW196728  10.064  10.426  14.103
31632SOL    HW296729  10.141  10.379  13.982
31633SOL     OW96730   6.911  11.251   1.493
31633SOL    HW196731   6.930  11.238   1.400
31633SOL    HW296732   6.955  11.333   1.515
31634SOL     OW96733  13.117   4.831   2.750
31634SOL    HW196734  13.116   4.913   2.700
31634SOL    HW296735  13.146   4.857   2.837
31635SOL     OW96736   8.438   1.897   5.164
31635SOL    HW196737   8.531   1.885   5.148
31635SOL    HW296738   8.420   1.987   5.135
31636SOL     OW96739  13.288   9.356  11.687
31636SOL    HW196740  13.230   9.363  11.763
31636SOL    HW296741  13.354   9.293  11.712
31637SOL     OW96742   5.560  13.167   4.553
31637SOL    HW196743   5.466  13.158   4.567
31637SOL    HW296744   5.586  13.241   4.608
31638SOL     OW96745   2.475   5.780   7.255
31638SOL    HW196746   2.382   5.798   7.262
31638SOL    HW296747   2.514   5.861   7.222
31639SOL     OW96748   9.052   7.881   5.400
31639SOL    HW196749   9.107   7.921   5.333
31639SOL    HW296750   9.083   7.790   5.406
31640SOL     OW96751   6.804   3.448  14.232
31640SOL    HW196752   6.849   3.372  14.269
31640SOL    HW296753   6.843   3.458  14.145
31641SOL     OW96754   3.739   8.318   1.799
31641SOL    HW196755   3.708   8.264   1.727
31641SOL    HW296756   3.661   8.335   1.852
31642SOL     OW96757   7.221  13.870   9.185
31642SOL    HW196758   7.202  13.873   9.279
31642SOL    HW296759   7.315  13.852   9.181
31643SOL     OW96760   2.112   3.941   3.352
31643SOL    HW196761   2.121   3.924   3.258
31643SOL    HW296762   2.025   3.909   3.374
31644SOL     OW96763   2.335  13.869  13.651
31644SOL    HW196764   2.421  13.845  13.686
31644SOL    HW296765   2.283  13.891  13.729
31645SOL     OW96766  14.669   9.907  12.310
31645SOL    HW196767  14.597   9.849  12.332
31645SOL    HW296768  14.650   9.988  12.358
31646SOL     OW96769  14.670   4.489   7.674
31646SOL    HW196770  14.639   4.575   7.646
31646SOL    HW296771  14.607   4.427   7.638
31647SOL     OW96772   3.322   1.431  13.128
31647SOL    HW196773   3.304   1.392  13.213
31647SOL    HW296774   3.321   1.525  13.143
31648SOL     OW96775   2.503  12.398  10.881
31648SOL    HW196776   2.435  12.341  10.915
31648SOL    HW296777   2.523  12.457  10.955
31649SOL     OW96778   1.694   1.438  10.439
31649SOL    HW196779   1.634   1.475  10.374
31649SOL    HW296780   1.650   1.452  10.523
31650SOL     OW96781   6.629   1.169   6.114
31650SOL    HW196782   6.574   1.123   6.177
31650SOL    HW296783   6.693   1.216   6.167
31651SOL     OW96784   7.034   7.693   2.537
31651SOL    HW196785   7.027   7.751   2.613
31651SOL    HW296786   7.128   7.677   2.527
31652SOL     OW96787   0.630   5.884   4.549
31652SOL    HW196788   0.656   5.977   4.552
31652SOL    HW296789   0.605   5.863   4.639
31653SOL     OW96790   0.072   5.167  10.452
31653SOL    HW196791   0.100   5.254  10.423
31653SOL    HW296792   0.076   5.113  10.373
31654SOL     OW96793   3.389   3.493   9.384
31654SOL    HW196794   3.433   3.453   9.309
31654SOL    HW296795   3.461   3.519   9.443
31655SOL     OW96796   4.911   2.139   1.535
31655SOL    HW196797   4.900   2.232   1.556
31655SOL    HW296798   4.913   2.136   1.439
31656SOL     OW96799   6.212  11.328  11.498
31656SOL    HW196800   6.246  11.418  11.498
31656SOL    HW296801   6.126  11.335  11.457
31657SOL     OW96802   6.701   4.529   9.920
31657SOL    HW196803   6.643   4.458   9.948
31657SOL    HW296804   6.735   4.499   9.835
31658SOL     OW96805   4.472   3.591   1.761
31658SOL    HW196806   4.464   3.681   1.730
31658SOL    HW296807   4.563   3.568   1.747
31659SOL     OW96808  10.013  10.538  13.531
31659SOL    HW196809  10.003  10.470  13.597
31659SOL    HW296810   9.928  10.583  13.529
31660SOL     OW96811  14.487   2.053   2.521
31660SOL    HW196812  14.465   1.964   2.549
31660SOL    HW296813  14.412   2.080   2.467
31661SOL     OW96814   7.192   3.528   5.605
31661SOL    HW196815   7.124   3.596   5.596
31661SOL    HW296816   7.144   3.448   5.625
31662SOL     OW96817   7.573  13.832  12.423
31662SOL    HW196818   7.571  13.928  12.429
31662SOL    HW296819   7.590  13.803  12.512
31663SOL     OW96820  10.645  13.612   1.242
31663SOL    HW196821  10.653  13.705   1.223
31663SOL    HW296822  10.704  13.570   1.180
31664SOL     OW96823   2.123  14.611  10.906
31664SOL    HW196824   2.080  14.572  10.830
31664SOL    HW296825   2.204  14.649  10.871
31665SOL     OW96826  10.904  12.720   8.830
31665SOL    HW196827  10.988  12.765   8.821
31665SOL    HW296828  10.925  12.627   8.817
31666SOL     OW96829  11.298   2.242  10.812
31666SOL    HW196830  11.294   2.317  10.752
31666SOL    HW296831  11.212   2.201  10.804
31667SOL     OW96832   2.082   1.349   5.595
31667SOL    HW196833   2.173   1.369   5.617
31667SOL    HW296834   2.071   1.380   5.505
31668SOL     OW96835   6.438   1.785  13.579
31668SOL    HW196836   6.377   1.729  13.532
31668SOL    HW296837   6.428   1.759  13.671
31669SOL     OW96838  10.465   2.163   7.665
31669SOL    HW196839  10.408   2.098   7.706
31669SOL    HW296840  10.544   2.164   7.720
31670SOL     OW96841   8.702   7.329   4.274
31670SOL    HW196842   8.744   7.245   4.254
31670SOL    HW296843   8.743   7.358   4.356
31671SOL     OW96844  14.112  13.829   2.544
31671SOL    HW196845  14.057  13.899   2.510
31671SOL    HW296846  14.064  13.794   2.618
31672SOL     OW96847  10.569   7.539  14.604
31672SOL    HW196848  10.581   7.556  14.511
31672SOL    HW296849  10.475   7.543  14.618
31673SOL     OW96850  12.791   6.418   1.556
31673SOL    HW196851  12.791   6.513   1.550
31673SOL    HW296852  12.727   6.390   1.491
31674SOL     OW96853   8.754   6.180   7.989
31674SOL    HW196854   8.742   6.272   7.966
31674SOL    HW296855   8.758   6.180   8.085
31675SOL     OW96856   9.098   1.081   0.662
31675SOL    HW196857   9.174   1.120   0.620
31675SOL    HW296858   9.108   0.987   0.648
31676SOL     OW96859  14.521   2.310   9.011
31676SOL    HW196860  14.443   2.282   9.058
31676SOL    HW296861  14.563   2.229   8.983
31677SOL     OW96862   1.427  11.607   7.671
31677SOL    HW196863   1.522  11.609   7.656
31677SOL    HW296864   1.396  11.530   7.624
31678SOL     OW96865   2.687   0.849   9.858
31678SOL    HW196866   2.734   0.891   9.931
31678SOL    HW296867   2.605   0.820   9.897
31679SOL     OW96868  11.146   6.169  14.001
31679SOL    HW196869  11.132   6.235  14.069
31679SOL    HW296870  11.065   6.171  13.949
31680SOL     OW96871  11.826   9.489   9.910
31680SOL    HW196872  11.859   9.579   9.914
31680SOL    HW296873  11.779   9.485   9.826
31681SOL     OW96874   4.781   9.316   3.070
31681SOL    HW196875   4.699   9.289   3.028
31681SOL    HW296876   4.797   9.250   3.137
31682SOL     OW96877   1.381  12.490   6.385
31682SOL    HW196878   1.353  12.553   6.451
31682SOL    HW296879   1.439  12.430   6.433
31683SOL     OW96880  11.865   4.407  14.265
31683SOL    HW196881  11.887   4.475  14.200
31683SOL    HW296882  11.936   4.412  14.329
31684SOL     OW96883   6.607   6.580   2.728
31684SOL    HW196884   6.638   6.542   2.810
31684SOL    HW296885   6.553   6.655   2.755
31685SOL     OW96886   1.139  14.340   5.171
31685SOL    HW196887   1.110  14.289   5.246
31685SOL    HW296888   1.230  14.313   5.157
31686SOL     OW96889   8.728   8.225   6.309
31686SOL    HW196890   8.694   8.292   6.368
31686SOL    HW296891   8.734   8.268   6.224
31687SOL     OW96892   7.808   4.420   8.090
31687SOL    HW196893   7.879   4.479   8.116
31687SOL    HW296894   7.839   4.380   8.009
31688SOL     OW96895   6.221  10.213  13.582
31688SOL    HW196896   6.236  10.301  13.616
31688SOL    HW296897   6.303  10.166  13.601
31689SOL     OW96898   4.538  11.227   8.186
31689SOL    HW196899   4.548  11.321   8.203
31689SOL    HW296900   4.467  11.222   8.122
31690SOL     OW96901  10.220   3.562  10.257
31690SOL    HW196902  10.295   3.554  10.198
31690SOL    HW296903  10.175   3.478  10.250
31691SOL     OW96904   2.945  12.934   3.992
31691SOL    HW196905   2.924  12.914   3.901
31691SOL    HW296906   2.889  13.008   4.014
31692SOL     OW96907   3.503   7.856   6.108
31692SOL    HW196908   3.440   7.809   6.163
31692SOL    HW296909   3.501   7.810   6.024
31693SOL     OW96910   7.520   2.663  13.339
31693SOL    HW196911   7.479   2.595  13.286
31693SOL    HW296912   7.454   2.685  13.405
31694SOL     OW96913  10.924   8.536   9.497
31694SOL    HW196914  10.972   8.582   9.566
31694SOL    HW296915  10.984   8.469   9.465
31695SOL     OW96916  13.139   1.336   0.231
31695SOL    HW196917  13.088   1.255   0.234
31695SOL    HW296918  13.170   1.349   0.320
31696SOL     OW96919   5.152   6.768  11.392
31696SOL    HW196920   5.101   6.839  11.355
31696SOL    HW296921   5.237   6.807  11.413
31697SOL     OW96922  12.558  13.417   5.810
31697SOL    HW196923  12.571  13.364   5.890
31697SOL    HW296924  12.548  13.352   5.740
31698SOL     OW96925   7.421   6.204  11.770
31698SOL    HW196926   7.514   6.194  11.750
31698SOL    HW296927   7.393   6.281  11.720
31699SOL     OW96928   5.673   5.626   9.610
31699SOL    HW196929   5.600   5.666   9.563
31699SOL    HW296930   5.648   5.631   9.702
31700SOL     OW96931   9.928  12.954  14.720
31700SOL    HW196932   9.921  13.045  14.689
31700SOL    HW296933  10.009  12.953  14.771
31701SOL     OW96934   2.600   4.870   0.963
31701SOL    HW196935   2.534   4.935   0.937
31701SOL    HW296936   2.674   4.923   0.991
31702SOL     OW96937   5.051   8.482  10.535
31702SOL    HW196938   5.036   8.404  10.589
31702SOL    HW296939   4.986   8.545  10.565
31703SOL     OW96940  10.169  14.612  13.643
31703SOL    HW196941  10.224  14.681  13.682
31703SOL    HW296942  10.080  14.648  13.645
31704SOL     OW96943  11.825   3.808  11.271
31704SOL    HW196944  11.740   3.850  11.285
31704SOL    HW296945  11.863   3.800  11.358
31705SOL     OW96946   5.018   1.560   9.659
31705SOL    HW196947   5.020   1.474   9.700
31705SOL    HW296948   5.072   1.615   9.715
31706SOL     OW96949   7.033   0.553   2.007
31706SOL    HW196950   7.122   0.544   1.972
31706SOL    HW296951   7.041   0.527   2.099
31707SOL     OW96952   2.008   5.771   0.791
31707SOL    HW196953   2.090   5.727   0.813
31707SOL    HW296954   2.019   5.796   0.699
31708SOL     OW96955   1.472  13.312   6.689
31708SOL    HW196956   1.501  13.342   6.603
31708SOL    HW296957   1.513  13.373   6.751
31709SOL     OW96958   7.196   3.499   9.894
31709SOL    HW196959   7.240   3.584   9.897
31709SOL    HW296960   7.135   3.501   9.968
31710SOL     OW96961   4.454   8.486   1.896
31710SOL    HW196962   4.497   8.427   1.958
31710SOL    HW296963   4.389   8.431   1.852
31711SOL     OW96964  14.082   0.439   5.094
31711SOL    HW196965  14.012   0.464   5.034
31711SOL    HW296966  14.038   0.423   5.177
31712SOL     OW96967   0.659   1.178  11.803
31712SOL    HW196968   0.689   1.243  11.739
31712SOL    HW296969   0.718   1.190  11.878
31713SOL     OW96970   7.095  14.830  11.297
31713SOL    HW196971   7.024  14.782  11.255
31713SOL    HW296972   7.134  14.881  11.227
31714SOL     OW96973   3.853  12.444  10.921
31714SOL    HW196974   3.872  12.360  10.878
31714SOL    HW296975   3.763  12.463  10.898
31715SOL     OW96976   4.683   5.428   8.335
31715SOL    HW196977   4.647   5.375   8.406
31715SOL    HW296978   4.744   5.369   8.290
31716SOL     OW96979   8.099   1.503  11.225
31716SOL    HW196980   8.175   1.449  11.205
31716SOL    HW296981   8.060   1.461  11.302
31717SOL     OW96982  10.242   7.946   9.786
31717SOL    HW196983  10.210   7.871   9.735
31717SOL    HW296984  10.224   7.922   9.877
31718SOL     OW96985   9.622  12.723   4.266
31718SOL    HW196986   9.555  12.680   4.212
31718SOL    HW296987   9.690  12.657   4.278
31719SOL     OW96988  14.048   3.652   5.793
31719SOL    HW196989  14.037   3.563   5.761
31719SOL    HW296990  13.977   3.664   5.856
31720SOL     OW96991   6.572   0.326   3.129
31720SOL    HW196992   6.621   0.244   3.133
31720SOL    HW296993   6.613   0.377   3.060
31721SOL     OW96994   6.206  13.648  13.000
31721SOL    HW196995   6.190  13.697  13.081
31721SOL    HW296996   6.210  13.556  13.029
31722SOL     OW96997  10.481   5.640   3.109
31722SOL    HW196998  10.404   5.615   3.057
31722SOL    HW296999  10.530   5.698   3.051
31723SOL     OW97000  13.536   3.437  14.436
31723SOL    HW197001  13.495   3.444  14.522
31723SOL    HW297002  13.571   3.524  14.419
31724SOL     OW97003  13.566   2.383   4.660
31724SOL    HW197004  13.649   2.429   4.663
31724SOL    HW297005  13.540   2.387   4.567
31725SOL     OW97006   7.371  12.610   4.988
31725SOL    HW197007   7.436  12.680   4.977
31725SOL    HW297008   7.414  12.545   5.042
31726SOL     OW97009  13.819  12.759   1.992
31726SOL    HW197010  13.747  12.822   1.991
31726SOL    HW297011  13.876  12.787   1.921
31727SOL     OW97012  12.177   0.420   1.750
31727SOL    HW197013  12.251   0.388   1.698
31727SOL    HW297014  12.190   0.380   1.836
31728SOL     OW97015   7.320  10.095   9.898
31728SOL    HW197016   7.228  10.119   9.897
31728SOL    HW297017   7.322  10.007   9.935
31729SOL     OW97018   8.582   4.176   4.266
31729SOL    HW197019   8.599   4.092   4.308
31729SOL    HW297020   8.614   4.166   4.177
31730SOL     OW97021  13.869   9.195  13.497
31730SOL    HW197022  13.936   9.126  13.494
31730SOL    HW297023  13.886   9.249  13.420
31731SOL     OW97024  13.358  13.683   4.932
31731SOL    HW197025  13.417  13.661   4.859
31731SOL    HW297026  13.412  13.674   5.010
31732SOL     OW97027  12.151  11.798   9.918
31732SOL    HW197028  12.214  11.870   9.913
31732SOL    HW297029  12.115  11.803  10.006
31733SOL     OW97030   7.526   8.020  14.248
31733SOL    HW197031   7.609   8.005  14.203
31733SOL    HW297032   7.472   7.945  14.224
31734SOL     OW97033   0.413   6.649  14.632
31734SOL    HW197034   0.459   6.568  14.656
31734SOL    HW297035   0.462   6.718  14.678
31735SOL     OW97036  13.636  11.263   1.882
31735SOL    HW197037  13.667  11.192   1.826
31735SOL    HW297038  13.548  11.283   1.850
31736SOL     OW97039   4.349   5.602   0.070
31736SOL    HW197040   4.340   5.562   0.157
31736SOL    HW297041   4.439   5.635   0.069
31737SOL     OW97042  12.577   8.651  10.824
31737SOL    HW197043  12.508   8.681  10.764
31737SOL    HW297044  12.533   8.590  10.883
31738SOL     OW97045   4.825   8.183   0.750
31738SOL    HW197046   4.853   8.157   0.662
31738SOL    HW297047   4.745   8.132   0.764
31739SOL     OW97048  10.744  13.263   8.208
31739SOL    HW197049  10.801  13.285   8.134
31739SOL    HW297050  10.711  13.176   8.188
31740SOL     OW97051   2.265   2.057  13.660
31740SOL    HW197052   2.340   2.021  13.612
31740SOL    HW297053   2.189   2.029  13.609
31741SOL     OW97054   3.545   0.880   8.458
31741SOL    HW197055   3.531   0.834   8.541
31741SOL    HW297056   3.516   0.818   8.391
31742SOL     OW97057   5.975   1.186  13.860
31742SOL    HW197058   5.954   1.097  13.834
31742SOL    HW297059   5.974   1.236  13.778
31743SOL     OW97060   0.071   2.822   4.871
31743SOL    HW197061   0.119   2.755   4.919
31743SOL    HW297062   0.016   2.773   4.809
31744SOL     OW97063   0.781  14.837   6.490
31744SOL    HW197064   0.689  14.856   6.510
31744SOL    HW297065   0.824  14.836   6.576
31745SOL     OW97066   2.664   6.704  12.999
31745SOL    HW197067   2.625   6.675  12.917
31745SOL    HW297068   2.758   6.705  12.981
31746SOL     OW97069   6.755  11.030   8.042
31746SOL    HW197070   6.801  11.040   7.959
31746SOL    HW297071   6.663  11.041   8.021
31747SOL     OW97072  14.763   6.722   2.984
31747SOL    HW197073  14.693   6.783   3.007
31747SOL    HW297074  14.834   6.744   3.043
31748SOL     OW97075   7.658  10.002   3.543
31748SOL    HW197076   7.740  10.026   3.498
31748SOL    HW297077   7.591  10.011   3.476
31749SOL     OW97078  11.877   3.915  10.535
31749SOL    HW197079  11.958   3.894  10.581
31749SOL    HW297080  11.836   3.831  10.518
31750SOL     OW97081   1.409   8.377   1.834
31750SOL    HW197082   1.460   8.361   1.755
31750SOL    HW297083   1.458   8.444   1.882
31751SOL     OW97084   0.871  12.790  10.155
31751SOL    HW197085   0.792  12.839  10.179
31751SOL    HW297086   0.927  12.855  10.113
31752SOL     OW97087   7.215   1.854  14.581
31752SOL    HW197088   7.293   1.870  14.528
31752SOL    HW297089   7.235   1.775  14.631
31753SOL     OW97090   8.770   0.004   4.456
31753SOL    HW197091   8.711  14.868   4.529
31753SOL    HW297092   8.784  14.800   4.416
31754SOL     OW97093   5.234   8.427   9.291
31754SOL    HW197094   5.151   8.412   9.245
31754SOL    HW297095   5.235   8.360   9.360
31755SOL     OW97096   8.760   5.434  11.657
31755SOL    HW197097   8.818   5.468  11.590
31755SOL    HW297098   8.800   5.459  11.740
31756SOL     OW97099  10.394   2.580   8.143
31756SOL    HW197100  10.328   2.552   8.207
31756SOL    HW297101  10.390   2.675   8.145
31757SOL     OW97102   8.087   6.097   7.201
31757SOL    HW197103   8.041   6.017   7.178
31757SOL    HW297104   8.040   6.166   7.154
31758SOL     OW97105  13.441   9.483   5.697
31758SOL    HW197106  13.438   9.410   5.759
31758SOL    HW297107  13.534   9.488   5.672
31759SOL     OW97108   7.455  10.623  12.569
31759SOL    HW197109   7.387  10.603  12.633
31759SOL    HW297110   7.424  10.584  12.487
31760SOL     OW97111   3.196  12.660   5.519
31760SOL    HW197112   3.264  12.606   5.478
31760SOL    HW297113   3.203  12.641   5.612
31761SOL     OW97114   1.831   9.970   1.691
31761SOL    HW197115   1.850  10.020   1.612
31761SOL    HW297116   1.907   9.983   1.747
31762SOL     OW97117   5.633  11.593   1.887
31762SOL    HW197118   5.698  11.631   1.947
31762SOL    HW297119   5.579  11.667   1.860
31763SOL     OW97120  14.131   5.108  14.320
31763SOL    HW197121  14.194   5.177  14.302
31763SOL    HW297122  14.173   5.053  14.387
31764SOL     OW97123   7.942  12.498   0.289
31764SOL    HW197124   7.968  12.580   0.248
31764SOL    HW297125   7.931  12.520   0.382
31765SOL     OW97126   2.152  13.773   0.635
31765SOL    HW197127   2.133  13.845   0.574
31765SOL    HW297128   2.094  13.789   0.709
31766SOL     OW97129   9.096   5.844  11.545
31766SOL    HW197130   9.004   5.850  11.572
31766SOL    HW297131   9.093   5.842  11.449
31767SOL     OW97132   4.372   7.891   8.497
31767SOL    HW197133   4.447   7.950   8.509
31767SOL    HW297134   4.296   7.948   8.506
31768SOL     OW97135   7.430  10.821  11.958
31768SOL    HW197136   7.482  10.884  11.909
31768SOL    HW297137   7.342  10.827  11.919
31769SOL     OW97138  13.272   5.335   8.319
31769SOL    HW197139  13.340   5.307   8.258
31769SOL    HW297140  13.294   5.426   8.339
31770SOL     OW97141   1.136  12.585   2.259
31770SOL    HW197142   1.082  12.659   2.287
31770SOL    HW297143   1.218  12.595   2.307
31771SOL     OW97144   7.974   3.403  10.062
31771SOL    HW197145   8.040   3.470  10.047
31771SOL    HW297146   8.024   3.325  10.085
31772SOL     OW97147   4.930   6.698   9.397
31772SOL    HW197148   4.995   6.682   9.328
31772SOL    HW297149   4.980   6.693   9.478
31773SOL     OW97150  10.979   7.883  14.227
31773SOL    HW197151  11.064   7.848  14.201
31773SOL    HW297152  10.957   7.837  14.308
31774SOL     OW97153   0.930   9.608   6.796
31774SOL    HW197154   0.885   9.679   6.749
31774SOL    HW297155   1.023   9.628   6.786
31775SOL     OW97156   2.395   5.337   4.712
31775SOL    HW197157   2.393   5.432   4.723
31775SOL    HW297158   2.316   5.306   4.757
31776SOL     OW97159   6.934   3.380   7.277
31776SOL    HW197160   7.004   3.417   7.331
31776SOL    HW297161   6.944   3.285   7.285
31777SOL     OW97162   7.971  11.823  13.991
31777SOL    HW197163   7.995  11.738  14.026
31777SOL    HW297164   7.917  11.803  13.915
31778SOL     OW97165  14.749  10.266   5.602
31778SOL    HW197166  14.724  10.175   5.618
31778SOL    HW297167  14.688  10.297   5.535
31779SOL     OW97168   7.763   9.407  13.212
31779SOL    HW197169   7.694   9.437  13.153
31779SOL    HW297170   7.788   9.322  13.179
31780SOL     OW97171  10.222   2.982  14.311
31780SOL    HW197172  10.137   3.021  14.335
31780SOL    HW297173  10.226   2.989  14.216
31781SOL     OW97174  14.232   1.015   1.202
31781SOL    HW197175  14.152   1.050   1.164
31781SOL    HW297176  14.293   1.007   1.128
31782SOL     OW97177   3.374   1.777   5.505
31782SOL    HW197178   3.343   1.803   5.418
31782SOL    HW297179   3.459   1.737   5.489
31783SOL     OW97180   7.960   3.299   2.408
31783SOL    HW197181   8.041   3.256   2.379
31783SOL    HW297182   7.942   3.364   2.340
31784SOL     OW97183   3.708   4.714   4.071
31784SOL    HW197184   3.638   4.755   4.120
31784SOL    HW297185   3.768   4.680   4.138
31785SOL     OW97186  12.187   4.755   2.298
31785SOL    HW197187  12.254   4.814   2.264
31785SOL    HW297188  12.169   4.788   2.386
31786SOL     OW97189   6.451  10.522  11.778
31786SOL    HW197190   6.475  10.609  11.746
31786SOL    HW297191   6.355  10.522  11.777
31787SOL     OW97192   0.787   3.689   6.402
31787SOL    HW197193   0.715   3.731   6.450
31787SOL    HW297194   0.817   3.620   6.461
31788SOL     OW97195   9.273   7.103  11.120
31788SOL    HW197196   9.327   7.175  11.152
31788SOL    HW297197   9.229   7.139  11.043
31789SOL     OW97198  12.148   6.125   8.717
31789SOL    HW197199  12.217   6.191   8.728
31789SOL    HW297200  12.146   6.108   8.623
31790SOL     OW97201   0.228   5.023  11.439
31790SOL    HW197202   0.174   5.101  11.422
31790SOL    HW297203   0.243   5.025  11.533
31791SOL     OW97204  13.006   0.336   1.459
31791SOL    HW197205  13.013   0.401   1.529
31791SOL    HW297206  13.027   0.384   1.379
31792SOL     OW97207   5.779   0.577   1.110
31792SOL    HW197208   5.837   0.531   1.171
31792SOL    HW297209   5.739   0.646   1.163
31793SOL     OW97210   9.108   1.850   0.692
31793SOL    HW197211   9.104   1.755   0.683
31793SOL    HW297212   9.171   1.864   0.763
31794SOL     OW97213  10.424   6.411  13.249
31794SOL    HW197214  10.473   6.336  13.281
31794SOL    HW297215  10.339   6.405  13.293
31795SOL     OW97216  12.837   7.222  12.142
31795SOL    HW197217  12.857   7.128  12.150
31795SOL    HW297218  12.887   7.250  12.066
31796SOL     OW97219   7.823  11.616   7.404
31796SOL    HW197220   7.788  11.651   7.322
31796SOL    HW297221   7.897  11.673   7.424
31797SOL     OW97222   5.470   0.427   7.837
31797SOL    HW197223   5.521   0.367   7.892
31797SOL    HW297224   5.484   0.513   7.876
31798SOL     OW97225   8.799  13.106   5.837
31798SOL    HW197226   8.789  13.139   5.926
31798SOL    HW297227   8.892  13.086   5.829
31799SOL     OW97228  10.140  12.130  11.638
31799SOL    HW197229  10.095  12.089  11.565
31799SOL    HW297230  10.207  12.185  11.598
31800SOL     OW97231   7.610  12.787  11.176
31800SOL    HW197232   7.703  12.770  11.189
31800SOL    HW297233   7.578  12.711  11.128
31801SOL     OW97234  12.065  12.839   3.383
31801SOL    HW197235  11.987  12.893   3.395
31801SOL    HW297236  12.040  12.753   3.418
31802SOL     OW97237   2.084   8.486   9.897
31802SOL    HW197238   2.076   8.572   9.856
31802SOL    HW297239   2.178   8.466   9.891
31803SOL     OW97240   5.047   9.895  10.776
31803SOL    HW197241   5.105   9.971  10.784
31803SOL    HW297242   5.054   9.850  10.860
31804SOL     OW97243   9.704  11.136   0.897
31804SOL    HW197244   9.720  11.058   0.950
31804SOL    HW297245   9.624  11.173   0.933
31805SOL     OW97246   0.667   2.206   8.969
31805SOL    HW197247   0.626   2.212   9.055
31805SOL    HW297248   0.728   2.279   8.966
31806SOL     OW97249  14.075   0.632   0.027
31806SOL    HW197250  14.111   0.612  14.823
31806SOL    HW297251  14.058   0.546   0.066
31807SOL     OW97252   2.318  11.848   1.627
31807SOL    HW197253   2.260  11.840   1.551
31807SOL    HW297254   2.374  11.771   1.623
31808SOL     OW97255   1.877   4.473   4.691
31808SOL    HW197256   1.820   4.401   4.716
31808SOL    HW297257   1.818   4.537   4.649
31809SOL     OW97258   3.371   1.696  12.694
31809SOL    HW197259   3.445   1.671  12.639
31809SOL    HW297260   3.408   1.756  12.759
31810SOL     OW97261   0.391   5.460  11.526
31810SOL    HW197262   0.298   5.480  11.513
31810SOL    HW297263   0.428   5.459  11.437
31811SOL     OW97264   9.001  13.805   9.366
31811SOL    HW197265   8.977  13.822   9.275
31811SOL    HW297266   9.010  13.710   9.371
31812SOL     OW97267  11.125   2.661  11.833
31812SOL    HW197268  11.177   2.650  11.754
31812SOL    HW297269  11.103   2.755  11.835
31813SOL     OW97270  13.928  14.809   9.786
31813SOL    HW197271  13.852  14.812   9.729
31813SOL    HW297272  14.003  14.814   9.727
31814SOL     OW97273   9.846  12.196   0.277
31814SOL    HW197274   9.889  12.210   0.193
31814SOL    HW297275   9.796  12.276   0.292
31815SOL     OW97276   9.210   9.414  13.833
31815SOL    HW197277   9.240   9.330  13.868
31815SOL    HW297278   9.140   9.391  13.772
31816SOL     OW97279   2.894  11.570   2.221
31816SOL    HW197280   2.814  11.521   2.201
31816SOL    HW297281   2.879  11.657   2.184
31817SOL     OW97282   7.029   6.468  10.155
31817SOL    HW197283   6.944   6.503  10.128
31817SOL    HW297284   7.087   6.544  10.156
31818SOL     OW97285  12.952   7.139   3.875
31818SOL    HW197286  13.044   7.168   3.871
31818SOL    HW297287  12.945   7.092   3.957
31819SOL     OW97288  12.126   9.393   0.393
31819SOL    HW197289  12.201   9.401   0.334
31819SOL    HW297290  12.075   9.320   0.357
31820SOL     OW97291   0.691   7.298   8.204
31820SOL    HW197292   0.710   7.211   8.240
31820SOL    HW297293   0.753   7.356   8.248
31821SOL     OW97294  11.350   5.466  13.356
31821SOL    HW197295  11.440   5.461  13.390
31821SOL    HW297296  11.348   5.401  13.286
31822SOL     OW97297  13.594  10.402   5.034
31822SOL    HW197298  13.528  10.447   5.086
31822SOL    HW297299  13.575  10.429   4.944
31823SOL     OW97300  10.498   1.912  12.264
31823SOL    HW197301  10.492   2.008  12.268
31823SOL    HW297302  10.483   1.891  12.172
31824SOL     OW97303   7.843   4.143   5.027
31824SOL    HW197304   7.802   4.226   5.001
31824SOL    HW297305   7.904   4.123   4.956
31825SOL     OW97306   6.813   2.699   1.607
31825SOL    HW197307   6.782   2.635   1.671
31825SOL    HW297308   6.775   2.670   1.524
31826SOL     OW97309   0.278   1.522   0.400
31826SOL    HW197310   0.195   1.565   0.381
31826SOL    HW297311   0.277   1.442   0.348
31827SOL     OW97312  10.638  13.471   4.539
31827SOL    HW197313  10.609  13.557   4.510
31827SOL    HW297314  10.565  13.436   4.590
31828SOL     OW97315   1.025   7.040   7.339
31828SOL    HW197316   1.027   6.980   7.413
31828SOL    HW297317   1.109   7.028   7.295
31829SOL     OW97318  10.326   4.003   9.728
31829SOL    HW197319  10.351   4.027   9.818
31829SOL    HW297320  10.408   3.987   9.683
31830SOL     OW97321  13.267  13.919  11.504
31830SOL    HW197322  13.240  13.901  11.413
31830SOL    HW297323  13.286  14.013  11.504
31831SOL     OW97324   3.348   8.251  10.838
31831SOL    HW197325   3.271   8.304  10.819
31831SOL    HW297326   3.397   8.250  10.756
31832SOL     OW97327  11.743   3.700   4.396
31832SOL    HW197328  11.709   3.612   4.376
31832SOL    HW297329  11.706   3.720   4.482
31833SOL     OW97330   5.812  12.465   8.691
31833SOL    HW197331   5.882  12.425   8.741
31833SOL    HW297332   5.732  12.421   8.721
31834SOL     OW97333  10.123   0.949   5.351
31834SOL    HW197334  10.212   0.933   5.384
31834SOL    HW297335  10.067   0.903   5.413
31835SOL     OW97336   7.249   1.168  13.012
31835SOL    HW197337   7.305   1.113  13.068
31835SOL    HW297338   7.294   1.252  13.008
31836SOL     OW97339   8.118   9.620  12.046
31836SOL    HW197340   8.089   9.545  11.993
31836SOL    HW297341   8.049   9.686  12.034
31837SOL     OW97342  12.160   7.974   5.394
31837SOL    HW197343  12.109   8.047   5.360
31837SOL    HW297344  12.250   7.996   5.372
31838SOL     OW97345   8.077  11.925  10.395
31838SOL    HW197346   8.025  11.879  10.329
31838SOL    HW297347   8.036  12.011  10.403
31839SOL     OW97348  11.387   3.938  11.761
31839SOL    HW197349  11.296   3.915  11.779
31839SOL    HW297350  11.430   3.854  11.742
31840SOL     OW97351   2.510  12.177  14.855
31840SOL    HW197352   2.525  12.238  14.783
31840SOL    HW297353   2.504  12.091  14.813
31841SOL     OW97354  11.787   1.425  14.808
31841SOL    HW197355  11.804   1.405  14.715
31841SOL    HW297356  11.692   1.415  14.816
31842SOL     OW97357   0.584   0.502   5.352
31842SOL    HW197358   0.620   0.450   5.280
31842SOL    HW297359   0.565   0.438   5.421
31843SOL     OW97360   4.225   2.388  12.348
31843SOL    HW197361   4.316   2.397  12.319
31843SOL    HW297362   4.212   2.465  12.405
31844SOL     OW97363   5.727  11.029   6.876
31844SOL    HW197364   5.674  10.955   6.904
31844SOL    HW297365   5.816  11.007   6.904
31845SOL     OW97366  13.972   0.158   9.037
31845SOL    HW197367  14.053   0.155   8.986
31845SOL    HW297368  13.932   0.242   9.013
31846SOL     OW97369  12.858  12.369  12.197
31846SOL    HW197370  12.864  12.427  12.121
31846SOL    HW297371  12.912  12.294  12.175
31847SOL     OW97372  14.801   6.033  13.252
31847SOL    HW197373  14.877   6.008  13.199
31847SOL    HW297374  14.824   6.118  13.288
31848SOL     OW97375   8.437   8.519  12.039
31848SOL    HW197376   8.531   8.505  12.052
31848SOL    HW297377   8.428   8.615  12.033
31849SOL     OW97378  14.310  13.761   9.133
31849SOL    HW197379  14.349  13.712   9.205
31849SOL    HW297380  14.241  13.705   9.100
31850SOL     OW97381   8.729   7.026  13.675
31850SOL    HW197382   8.804   7.083  13.656
31850SOL    HW297383   8.653   7.084  13.671
31851SOL     OW97384  10.894   9.960   2.036
31851SOL    HW197385  10.963   9.945   2.101
31851SOL    HW297386  10.902  10.052   2.012
31852SOL     OW97387  12.380  13.395   6.491
31852SOL    HW197388  12.402  13.345   6.413
31852SOL    HW297389  12.465  13.416   6.531
31853SOL     OW97390   0.414  11.106  11.370
31853SOL    HW197391   0.498  11.070  11.343
31853SOL    HW297392   0.422  11.201  11.356
31854SOL     OW97393  14.531  12.667   3.277
31854SOL    HW197394  14.534  12.596   3.341
31854SOL    HW297395  14.623  12.690   3.262
31855SOL     OW97396   0.744  10.391   8.601
31855SOL    HW197397   0.704  10.387   8.514
31855SOL    HW297398   0.730  10.304   8.638
31856SOL     OW97399   0.207  11.302  10.162
31856SOL    HW197400   0.292  11.266  10.138
31856SOL    HW297401   0.212  11.395  10.139
31857SOL     OW97402   1.685   2.854   7.167
31857SOL    HW197403   1.617   2.789   7.184
31857SOL    HW297404   1.726   2.825   7.085
31858SOL     OW97405   2.603  13.647   8.110
31858SOL    HW197406   2.511  13.624   8.127
31858SOL    HW297407   2.617  13.728   8.158
31859SOL     OW97408   2.880   2.046   1.154
31859SOL    HW197409   2.864   2.133   1.118
31859SOL    HW297410   2.835   2.046   1.238
31860SOL     OW97411   6.248   5.870   6.184
31860SOL    HW197412   6.304   5.823   6.246
31860SOL    HW297413   6.257   5.962   6.208
31861SOL     OW97414   0.163  11.644   5.956
31861SOL    HW197415   0.153  11.737   5.978
31861SOL    HW297416   0.194  11.645   5.865
31862SOL     OW97417  11.779   6.996  11.258
31862SOL    HW197418  11.836   7.047  11.315
31862SOL    HW297419  11.726   7.061  11.212
31863SOL     OW97420  12.046  12.833   1.011
31863SOL    HW197421  12.140  12.832   0.990
31863SOL    HW297422  12.040  12.785   1.094
31864SOL     OW97423   7.667  13.560   1.452
31864SOL    HW197424   7.636  13.591   1.537
31864SOL    HW297425   7.729  13.628   1.422
31865SOL     OW97426  11.644  11.359  11.652
31865SOL    HW197427  11.613  11.268  11.647
31865SOL    HW297428  11.572  11.406  11.694
31866SOL     OW97429   6.294  12.592  12.710
31866SOL    HW197430   6.285  12.553  12.623
31866SOL    HW297431   6.372  12.550  12.747
31867SOL     OW97432   5.185   5.678  12.403
31867SOL    HW197433   5.155   5.629  12.327
31867SOL    HW297434   5.121   5.658  12.471
31868SOL     OW97435  10.372   5.678   9.302
31868SOL    HW197436  10.325   5.756   9.273
31868SOL    HW297437  10.462   5.707   9.314
31869SOL     OW97438  12.417   5.137   9.839
31869SOL    HW197439  12.429   5.177   9.753
31869SOL    HW297440  12.419   5.210   9.901
31870SOL     OW97441   5.116  10.432  12.995
31870SOL    HW197442   5.115  10.368  12.924
31870SOL    HW297443   5.023  10.443  13.018
31871SOL     OW97444  12.926  10.039   7.206
31871SOL    HW197445  12.961  10.106   7.264
31871SOL    HW297446  12.937   9.957   7.255
31872SOL     OW97447  13.681   2.727  11.913
31872SOL    HW197448  13.642   2.656  11.962
31872SOL    HW297449  13.692   2.798  11.977
31873SOL     OW97450   0.310  14.587   9.551
31873SOL    HW197451   0.310  14.565   9.645
31873SOL    HW297452   0.389  14.641   9.539
31874SOL     OW97453   7.550   5.191   4.408
31874SOL    HW197454   7.610   5.117   4.402
31874SOL    HW297455   7.549   5.228   4.320
31875SOL     OW97456  14.393   4.600   3.769
31875SOL    HW197457  14.356   4.687   3.785
31875SOL    HW297458  14.486   4.609   3.792
31876SOL     OW97459  10.640   4.993   0.203
31876SOL    HW197460  10.552   5.020   0.231
31876SOL    HW297461  10.681   5.073   0.173
31877SOL     OW97462   0.590   2.041  11.118
31877SOL    HW197463   0.673   2.087  11.133
31877SOL    HW297464   0.565   2.008  11.205
31878SOL     OW97465   3.425  11.478   1.661
31878SOL    HW197466   3.429  11.500   1.754
31878SOL    HW297467   3.509  11.437   1.642
31879SOL     OW97468   5.211   0.695  12.806
31879SOL    HW197469   5.239   0.745  12.730
31879SOL    HW297470   5.164   0.620  12.770
31880SOL     OW97471   9.363  14.544   3.897
31880SOL    HW197472   9.427  14.600   3.854
31880SOL    HW297473   9.371  14.459   3.852
31881SOL     OW97474   3.139   0.329  12.667
31881SOL    HW197475   3.145   0.245  12.713
31881SOL    HW297476   3.060   0.322  12.615
31882SOL     OW97477   1.586   7.574   4.167
31882SOL    HW197478   1.566   7.480   4.166
31882SOL    HW297479   1.680   7.578   4.152
31883SOL     OW97480   3.890  11.317  14.248
31883SOL    HW197481   3.970  11.365  14.270
31883SOL    HW297482   3.899  11.298  14.154
31884SOL     OW97483   0.928   3.778   9.471
31884SOL    HW197484   0.848   3.803   9.518
31884SOL    HW297485   0.919   3.684   9.456
31885SOL     OW97486  12.381   5.101   4.743
31885SOL    HW197487  12.305   5.151   4.773
31885SOL    HW297488  12.448   5.118   4.809
31886SOL     OW97489   8.583  11.098  12.116
31886SOL    HW197490   8.669  11.132  12.140
31886SOL    HW297491   8.565  11.029  12.179
31887SOL     OW97492   9.306  11.505   2.858
31887SOL    HW197493   9.390  11.552   2.851
31887SOL    HW297494   9.266  11.515   2.771
31888SOL     OW97495  13.060   2.243   2.345
31888SOL    HW197496  13.010   2.168   2.312
31888SOL    HW297497  13.038   2.314   2.285
31889SOL     OW97498   2.232  12.183   3.664
31889SOL    HW197499   2.218  12.179   3.759
31889SOL    HW297500   2.259  12.273   3.647
31890SOL     OW97501   9.223   6.565   9.349
31890SOL    HW197502   9.134   6.598   9.357
31890SOL    HW297503   9.278   6.643   9.348
31891SOL     OW97504  12.692  14.808   6.692
31891SOL    HW197505  12.724  14.720   6.708
31891SOL    HW297506  12.728  14.860   6.764
31892SOL     OW97507  13.064   2.620   2.300
31892SOL    HW197508  13.062   2.566   2.221
31892SOL    HW297509  13.125   2.691   2.278
31893SOL     OW97510  11.386  11.707   1.627
31893SOL    HW197511  11.388  11.720   1.722
31893SOL    HW297512  11.305  11.751   1.599
31894SOL     OW97513   3.068   4.983  14.520
31894SOL    HW197514   2.982   4.986  14.562
31894SOL    HW297515   3.120   4.923  14.573
31895SOL     OW97516   0.058  13.990   8.134
31895SOL    HW197517   0.118  14.021   8.066
31895SOL    HW297518   0.110  13.990   8.214
31896SOL     OW97519  13.921   7.990   8.395
31896SOL    HW197520  13.958   8.023   8.477
31896SOL    HW297521  13.839   7.948   8.420
31897SOL     OW97522   9.802   9.672   7.906
31897SOL    HW197523   9.742   9.601   7.928
31897SOL    HW297524   9.865   9.674   7.979
31898SOL     OW97525  13.689  14.538   8.334
31898SOL    HW197526  13.646  14.579   8.259
31898SOL    HW297527  13.621  14.531   8.400
31899SOL     OW97528   9.050   8.193  10.394
31899SOL    HW197529   9.081   8.162  10.479
31899SOL    HW297530   8.967   8.237  10.414
31900SOL     OW97531  11.498   3.557   6.485
31900SOL    HW197532  11.570   3.505   6.450
31900SOL    HW297533  11.448   3.496   6.539
31901SOL     OW97534   0.618   8.361  13.146
31901SOL    HW197535   0.596   8.418  13.220
31901SOL    HW297536   0.713   8.353  13.149
31902SOL     OW97537   9.306   0.299   8.323
31902SOL    HW197538   9.256   0.325   8.246
31902SOL    HW297539   9.262   0.342   8.397
31903SOL     OW97540   7.956  14.477   6.475
31903SOL    HW197541   8.003  14.473   6.559
31903SOL    HW297542   7.885  14.413   6.484
31904SOL     OW97543   8.352   5.455   8.233
31904SOL    HW197544   8.293   5.467   8.158
31904SOL    HW297545   8.363   5.543   8.269
31905SOL     OW97546  10.949   5.748   5.579
31905SOL    HW197547  10.937   5.752   5.674
31905SOL    HW297548  11.000   5.668   5.565
31906SOL     OW97549  10.152  12.935   4.558
31906SOL    HW197550  10.103  12.981   4.489
31906SOL    HW297551  10.243  12.936   4.527
31907SOL     OW97552  10.744   7.560   3.912
31907SOL    HW197553  10.697   7.643   3.920
31907SOL    HW297554  10.681   7.500   3.872
31908SOL     OW97555   3.601   9.468   8.077
31908SOL    HW197556   3.544   9.518   8.019
31908SOL    HW297557   3.608   9.382   8.037
31909SOL     OW97558   2.012  14.100   3.561
31909SOL    HW197559   1.980  14.091   3.471
31909SOL    HW297560   2.087  14.158   3.554
31910SOL     OW97561   6.353  12.917   1.601
31910SOL    HW197562   6.277  12.861   1.586
31910SOL    HW297563   6.427  12.867   1.566
31911SOL     OW97564  13.996   1.694   6.940
31911SOL    HW197565  13.997   1.730   6.852
31911SOL    HW297566  13.932   1.623   6.937
31912SOL     OW97567   4.872   3.029   2.151
31912SOL    HW197568   4.944   3.065   2.203
31912SOL    HW297569   4.914   2.968   2.091
31913SOL     OW97570  13.713   1.561   6.153
31913SOL    HW197571  13.722   1.629   6.218
31913SOL    HW297572  13.619   1.556   6.135
31914SOL     OW97573  13.171  12.730   1.943
31914SOL    HW197574  13.254  12.746   1.897
31914SOL    HW297575  13.127  12.815   1.945
31915SOL     OW97576   5.125   7.306   7.967
31915SOL    HW197577   5.153   7.334   7.880
31915SOL    HW297578   5.145   7.379   8.024
31916SOL     OW97579   1.706   6.520  10.317
31916SOL    HW197580   1.624   6.516  10.366
31916SOL    HW297581   1.737   6.610  10.329
31917SOL     OW97582   8.108  10.348  13.939
31917SOL    HW197583   8.052  10.282  13.980
31917SOL    HW297584   8.135  10.308  13.856
31918SOL     OW97585   8.385   3.353   3.513
31918SOL    HW197586   8.477   3.352   3.490
31918SOL    HW297587   8.346   3.420   3.456
31919SOL     OW97588   8.312  14.409   7.164
31919SOL    HW197589   8.344  14.360   7.089
31919SOL    HW297590   8.237  14.359   7.195
31920SOL     OW97591   4.746   9.943   8.029
31920SOL    HW197592   4.714  10.019   8.079
31920SOL    HW297593   4.684   9.874   8.048
31921SOL     OW97594   1.432   6.310   1.848
31921SOL    HW197595   1.432   6.245   1.918
31921SOL    HW297596   1.502   6.283   1.789
31922SOL     OW97597   5.790  14.156   9.846
31922SOL    HW197598   5.733  14.232   9.858
31922SOL    HW297599   5.857  14.186   9.785
31923SOL     OW97600   3.701   6.061   4.576
31923SOL    HW197601   3.738   6.055   4.487
31923SOL    HW297602   3.773   6.034   4.633
31924SOL     OW97603   2.753   7.220   5.405
31924SOL    HW197604   2.777   7.213   5.497
31924SOL    HW297605   2.803   7.150   5.362
31925SOL     OW97606   2.613  11.807  12.816
31925SOL    HW197607   2.694  11.855  12.803
31925SOL    HW297608   2.561  11.862  12.876
31926SOL     OW97609   0.338   2.445   1.705
31926SOL    HW197610   0.276   2.372   1.700
31926SOL    HW297611   0.282   2.522   1.717
31927SOL     OW97612   6.489   4.667  14.714
31927SOL    HW197613   6.532   4.583  14.729
31927SOL    HW297614   6.416   4.668  14.776
31928SOL     OW97615  12.236   8.290   3.078
31928SOL    HW197616  12.209   8.368   3.029
31928SOL    HW297617  12.193   8.299   3.163
31929SOL     OW97618  13.974   6.542  14.880
31929SOL    HW197619  13.899   6.593   0.030
31929SOL    HW297620  14.050   6.591   0.028
31930SOL     OW97621   9.370   7.724   3.067
31930SOL    HW197622   9.457   7.703   3.099
31930SOL    HW297623   9.363   7.677   2.984
31931SOL     OW97624   8.066   5.902  11.906
31931SOL    HW197625   7.999   5.922  11.841
31931SOL    HW297626   8.063   5.975  11.968
31932SOL     OW97627   6.129   9.048  11.858
31932SOL    HW197628   6.222   9.069  11.857
31932SOL    HW297629   6.109   9.023  11.768
31933SOL     OW97630  13.859   3.478   3.898
31933SOL    HW197631  13.865   3.452   3.990
31933SOL    HW297632  13.830   3.569   3.900
31934SOL     OW97633   0.061   4.624   3.389
31934SOL    HW197634  14.866   4.583   3.428
31934SOL    HW297635   0.102   4.555   3.337
31935SOL     OW97636   0.774   3.514  10.674
31935SOL    HW197637   0.763   3.428  10.713
31935SOL    HW297638   0.855   3.507  10.622
31936SOL     OW97639  10.676  13.302   1.680
31936SOL    HW197640  10.590  13.266   1.659
31936SOL    HW297641  10.738  13.236   1.651
31937SOL     OW97642   8.158   4.688   3.776
31937SOL    HW197643   8.082   4.651   3.731
31937SOL    HW297644   8.120   4.736   3.850
31938SOL     OW97645   7.151  12.387   5.507
31938SOL    HW197646   7.058  12.405   5.520
31938SOL    HW297647   7.161  12.376   5.412
31939SOL     OW97648   1.157  10.246   8.928
31939SOL    HW197649   1.204  10.329   8.927
31939SOL    HW297650   1.137  10.228   8.836
31940SOL     OW97651   8.872   0.963   8.927
31940SOL    HW197652   8.935   1.028   8.895
31940SOL    HW297653   8.808   1.014   8.978
31941SOL     OW97654   4.917   0.302   4.191
31941SOL    HW197655   4.846   0.345   4.143
31941SOL    HW297656   4.979   0.274   4.124
31942SOL     OW97657   5.823   3.231   2.346
31942SOL    HW197658   5.918   3.232   2.338
31942SOL    HW297659   5.806   3.245   2.439
31943SOL     OW97660  13.037   8.949   4.895
31943SOL    HW197661  13.033   9.024   4.954
31943SOL    HW297662  12.964   8.963   4.834
31944SOL     OW97663   9.130   3.072  12.690
31944SOL    HW197664   9.079   3.075  12.609
31944SOL    HW297665   9.098   3.146  12.741
31945SOL     OW97666  13.809   6.892   7.697
31945SOL    HW197667  13.756   6.916   7.773
31945SOL    HW297668  13.890   6.942   7.707
31946SOL     OW97669   9.316   4.078  14.205
31946SOL    HW197670   9.227   4.097  14.176
31946SOL    HW297671   9.357   4.037  14.128
31947SOL     OW97672  14.651   1.615   6.823
31947SOL    HW197673  14.654   1.560   6.901
31947SOL    HW297674  14.575   1.671   6.835
31948SOL     OW97675   7.916   2.841   9.461
31948SOL    HW197676   7.955   2.773   9.407
31948SOL    HW297677   7.975   2.848   9.536
31949SOL     OW97678   3.971  12.748  10.148
31949SOL    HW197679   4.054  12.720  10.188
31949SOL    HW297680   3.961  12.839  10.176
31950SOL     OW97681  12.729   7.395  14.356
31950SOL    HW197682  12.707   7.302  14.363
31950SOL    HW297683  12.820   7.395  14.325
31951SOL     OW97684   6.180   9.126   7.590
31951SOL    HW197685   6.181   9.041   7.545
31951SOL    HW297686   6.138   9.107   7.674
31952SOL     OW97687   6.949   1.028  10.487
31952SOL    HW197688   6.896   1.095  10.531
31952SOL    HW297689   6.894   0.998  10.415
31953SOL     OW97690   8.335   9.231  13.375
31953SOL    HW197691   8.403   9.173  13.341
31953SOL    HW297692   8.380   9.314  13.390
31954SOL     OW97693   1.968  12.473   0.070
31954SOL    HW197694   1.949  12.560   0.035
31954SOL    HW297695   2.063  12.463   0.057
31955SOL     OW97696   4.400   7.914   4.321
31955SOL    HW197697   4.466   7.957   4.375
31955SOL    HW297698   4.448   7.844   4.276
31956SOL     OW97699   5.375  12.787   4.525
31956SOL    HW197700   5.431  12.828   4.592
31956SOL    HW297701   5.436  12.742   4.467
31957SOL     OW97702  11.817   4.401   8.950
31957SOL    HW197703  11.794   4.356   8.868
31957SOL    HW297704  11.762   4.360   9.016
31958SOL     OW97705   6.022  10.380  12.183
31958SOL    HW197706   5.961  10.407  12.115
31958SOL    HW297707   5.983  10.300  12.219
31959SOL     OW97708   0.103   5.498  11.224
31959SOL    HW197709   0.042   5.542  11.165
31959SOL    HW297710   0.181   5.553  11.223
31960SOL     OW97711   3.845   6.428  14.798
31960SOL    HW197712   3.880   6.507  14.839
31960SOL    HW297713   3.805   6.459  14.717
31961SOL     OW97714   8.727  14.655  14.356
31961SOL    HW197715   8.684  14.738  14.337
31961SOL    HW297716   8.699  14.597  14.286
31962SOL     OW97717  11.937  10.825   1.066
31962SOL    HW197718  11.968  10.904   1.023
31962SOL    HW297719  12.004  10.759   1.046
31963SOL     OW97720   1.804   7.688  13.723
31963SOL    HW197721   1.755   7.655  13.799
31963SOL    HW297722   1.873   7.623  13.709
31964SOL     OW97723   0.520   0.994  13.758
31964SOL    HW197724   0.614   1.003  13.774
31964SOL    HW297725   0.510   1.015  13.665
31965SOL     OW97726   5.716  11.381   0.298
31965SOL    HW197727   5.747  11.382   0.388
31965SOL    HW297728   5.670  11.297   0.290
31966SOL     OW97729   9.939  12.743   6.800
31966SOL    HW197730   9.922  12.817   6.858
31966SOL    HW297731   9.976  12.782   6.721
31967SOL     OW97732   4.021   1.168   4.857
31967SOL    HW197733   4.005   1.080   4.890
31967SOL    HW297734   4.071   1.155   4.776
31968SOL     OW97735   5.920   6.937   7.582
31968SOL    HW197736   5.988   6.956   7.647
31968SOL    HW297737   5.939   6.996   7.510
31969SOL     OW97738   5.094   2.149   7.180
31969SOL    HW197739   5.104   2.162   7.085
31969SOL    HW297740   5.001   2.133   7.192
31970SOL     OW97741  10.594   7.276   8.395
31970SOL    HW197742  10.551   7.316   8.471
31970SOL    HW297743  10.639   7.349   8.351
31971SOL     OW97744   5.946  14.598  14.231
31971SOL    HW197745   5.902  14.640  14.305
31971SOL    HW297746   5.912  14.643  14.154
31972SOL     OW97747  14.793   7.377   9.659
31972SOL    HW197748  14.748   7.300   9.694
31972SOL    HW297749  14.872   7.342   9.617
31973SOL     OW97750   7.151   5.981   3.806
31973SOL    HW197751   7.111   5.909   3.855
31973SOL    HW297752   7.237   5.993   3.847
31974SOL     OW97753   1.459   6.066  13.536
31974SOL    HW197754   1.431   6.146  13.493
31974SOL    HW297755   1.484   6.007  13.465
31975SOL     OW97756   3.277   7.799  10.100
31975SOL    HW197757   3.220   7.723  10.114
31975SOL    HW297758   3.259   7.856  10.175
31976SOL     OW97759   5.413   0.148   3.467
31976SOL    HW197760   5.466   0.093   3.409
31976SOL    HW297761   5.470   0.222   3.489
31977SOL     OW97762  10.170   3.491   2.647
31977SOL    HW197763  10.088   3.531   2.678
31977SOL    HW297764  10.149   3.398   2.641
31978SOL     OW97765  11.745   7.537   8.055
31978SOL    HW197766  11.733   7.632   8.044
31978SOL    HW297767  11.672   7.511   8.112
31979SOL     OW97768  11.720   8.796   6.084
31979SOL    HW197769  11.665   8.790   6.162
31979SOL    HW297770  11.675   8.859   6.028
31980SOL     OW97771   8.537   8.657   1.661
31980SOL    HW197772   8.483   8.620   1.732
31980SOL    HW297773   8.523   8.598   1.587
31981SOL     OW97774   8.151   7.678   5.556
31981SOL    HW197775   8.111   7.764   5.563
31981SOL    HW297776   8.239   7.694   5.522
31982SOL     OW97777  10.182  12.431  10.593
31982SOL    HW197778  10.186  12.516  10.636
31982SOL    HW297779  10.212  12.369  10.660
31983SOL     OW97780   3.519   6.188   5.470
31983SOL    HW197781   3.531   6.223   5.382
31983SOL    HW297782   3.441   6.233   5.503
31984SOL     OW97783   7.936  14.197   3.819
31984SOL    HW197784   7.912  14.191   3.911
31984SOL    HW297785   7.920  14.110   3.784
31985SOL     OW97786   7.187   4.981   2.442
31985SOL    HW197787   7.144   5.065   2.459
31985SOL    HW297788   7.119   4.915   2.458
31986SOL     OW97789   1.344   8.772   7.824
31986SOL    HW197790   1.343   8.721   7.905
31986SOL    HW297791   1.289   8.848   7.843
31987SOL     OW97792   9.384   9.800   0.647
31987SOL    HW197793   9.396   9.872   0.709
31987SOL    HW297794   9.455   9.739   0.668
31988SOL     OW97795   9.799  11.844   5.430
31988SOL    HW197796   9.868  11.791   5.470
31988SOL    HW297797   9.722  11.787   5.430
31989SOL     OW97798   1.173   7.691   6.586
31989SOL    HW197799   1.246   7.749   6.566
31989SOL    HW297800   1.214   7.610   6.616
31990SOL     OW97801   8.261  14.797   3.908
31990SOL    HW197802   8.244  14.805   3.814
31990SOL    HW297803   8.347  14.837   3.920
31991SOL     OW97804   0.136   7.431  10.623
31991SOL    HW197805   0.194   7.379  10.568
31991SOL    HW297806   0.139   7.519  10.586
31992SOL     OW97807   4.254  13.651   1.857
31992SOL    HW197808   4.202  13.581   1.897
31992SOL    HW297809   4.267  13.622   1.767
31993SOL     OW97810  13.798  13.536   8.915
31993SOL    HW197811  13.838  13.541   9.002
31993SOL    HW297812  13.836  13.457   8.876
31994SOL     OW97813   7.523  10.165  10.553
31994SOL    HW197814   7.521  10.081  10.599
31994SOL    HW297815   7.606  10.164  10.505
31995SOL     OW97816  12.897   0.689  13.095
31995SOL    HW197817  12.947   0.632  13.037
31995SOL    HW297818  12.904   0.776  13.055
31996SOL     OW97819  13.045  14.257  13.078
31996SOL    HW197820  13.003  14.336  13.045
31996SOL    HW297821  12.993  14.232  13.154
31997SOL     OW97822  13.964   0.966  13.275
31997SOL    HW197823  14.053   0.935  13.292
31997SOL    HW297824  13.923   0.894  13.227
31998SOL     OW97825  10.651  11.392  11.605
31998SOL    HW197826  10.707  11.437  11.542
31998SOL    HW297827  10.685  11.418  11.690
31999SOL     OW97828   9.517  14.157   4.201
31999SOL    HW197829   9.593  14.215   4.197
31999SOL    HW297830   9.462  14.185   4.128
32000SOL     OW97831  10.462  14.592   9.427
32000SOL    HW197832  10.373  14.561   9.409
32000SOL    HW297833  10.453  14.645   9.506
32001SOL     OW97834  11.102  14.170  11.455
32001SOL    HW197835  11.071  14.249  11.500
32001SOL    HW297836  11.039  14.157  11.384
32002SOL     OW97837  11.176  11.849   4.090
32002SOL    HW197838  11.149  11.815   4.175
32002SOL    HW297839  11.136  11.935   4.084
32003SOL     OW97840   4.168   4.864   0.798
32003SOL    HW197841   4.152   4.770   0.787
32003SOL    HW297842   4.183   4.875   0.892
32004SOL     OW97843   2.020  11.448   8.795
32004SOL    HW197844   2.084  11.507   8.835
32004SOL    HW297845   1.962  11.506   8.746
32005SOL     OW97846   3.670   5.498   1.882
32005SOL    HW197847   3.644   5.530   1.795
32005SOL    HW297848   3.718   5.417   1.864
32006SOL     OW97849  11.846   0.985   6.121
32006SOL    HW197850  11.803   0.956   6.040
32006SOL    HW297851  11.811   0.926   6.188
32007SOL     OW97852  11.870  12.208  10.359
32007SOL    HW197853  11.947  12.152  10.346
32007SOL    HW297854  11.808  12.177  10.293
32008SOL     OW97855   6.305   6.868   2.443
32008SOL    HW197856   6.339   6.944   2.395
32008SOL    HW297857   6.211   6.885   2.452
32009SOL     OW97858  10.983  14.622   4.451
32009SOL    HW197859  11.070  14.584   4.462
32009SOL    HW297860  10.923  14.560   4.493
32010SOL     OW97861   5.219   5.333  13.206
32010SOL    HW197862   5.183   5.370  13.125
32010SOL    HW297863   5.306   5.372  13.214
32011SOL     OW97864   4.402  11.107   8.509
32011SOL    HW197865   4.471  11.152   8.461
32011SOL    HW297866   4.385  11.028   8.458
32012SOL     OW97867   9.981   4.782   8.498
32012SOL    HW197868  10.063   4.733   8.489
32012SOL    HW297869   9.916   4.715   8.519
32013SOL     OW97870   1.547   0.338  12.045
32013SOL    HW197871   1.486   0.382  11.986
32013SOL    HW297872   1.618   0.308  11.989
32014SOL     OW97873   2.726   9.863   0.655
32014SOL    HW197874   2.792   9.794   0.659
32014SOL    HW297875   2.643   9.816   0.649
32015SOL     OW97876   8.606   9.599   5.244
32015SOL    HW197877   8.611   9.632   5.333
32015SOL    HW297878   8.534   9.536   5.245
32016SOL     OW97879  13.716  13.499   7.443
32016SOL    HW197880  13.750  13.415   7.474
32016SOL    HW297881  13.650  13.475   7.378
32017SOL     OW97882  12.552   4.257  13.388
32017SOL    HW197883  12.517   4.294  13.469
32017SOL    HW297884  12.499   4.297  13.319
32018SOL     OW97885   0.137   3.455  10.042
32018SOL    HW197886   0.132   3.369  10.083
32018SOL    HW297887   0.230   3.476  10.039
32019SOL     OW97888   6.399   0.153   7.716
32019SOL    HW197889   6.361   0.169   7.629
32019SOL    HW297890   6.485   0.115   7.698
32020SOL     OW97891   2.374  14.808  12.004
32020SOL    HW197892   2.405  14.736  11.950
32020SOL    HW297893   2.445  14.872  12.003
32021SOL     OW97894   7.852   3.153   1.892
32021SOL    HW197895   7.794   3.090   1.934
32021SOL    HW297896   7.858   3.226   1.953
32022SOL     OW97897   3.616   8.090  11.938
32022SOL    HW197898   3.645   8.009  11.897
32022SOL    HW297899   3.648   8.159  11.880
32023SOL     OW97900  11.314   7.728   4.902
32023SOL    HW197901  11.385   7.792   4.894
32023SOL    HW297902  11.346   7.664   4.965
32024SOL     OW97903   5.697  12.876  12.099
32024SOL    HW197904   5.635  12.949  12.098
32024SOL    HW297905   5.703  12.851  12.191
32025SOL     OW97906   9.572  10.384   5.591
32025SOL    HW197907   9.658  10.416   5.618
32025SOL    HW297908   9.587  10.294   5.564
32026SOL     OW97909   9.989   5.569  12.064
32026SOL    HW197910   9.926   5.598  11.998
32026SOL    HW297911  10.027   5.490  12.028
32027SOL     OW97912   3.073   2.887  13.083
32027SOL    HW197913   2.985   2.926  13.083
32027SOL    HW297914   3.107   2.906  13.170
32028SOL     OW97915   3.304   8.409  10.532
32028SOL    HW197916   3.230   8.374  10.582
32028SOL    HW297917   3.369   8.339  10.532
32029SOL     OW97918   2.788  11.899   7.252
32029SOL    HW197919   2.835  11.827   7.293
32029SOL    HW297920   2.855  11.945   7.201
32030SOL     OW97921  13.084   7.556  10.098
32030SOL    HW197922  13.023   7.552  10.024
32030SOL    HW297923  13.167   7.583  10.058
32031SOL     OW97924   6.553   2.931  13.503
32031SOL    HW197925   6.554   2.932  13.408
32031SOL    HW297926   6.620   2.994  13.529
32032SOL     OW97927   7.483   2.888   9.459
32032SOL    HW197928   7.549   2.952   9.432
32032SOL    HW297929   7.436   2.931   9.530
32033SOL     OW97930   2.744  12.307   3.452
32033SOL    HW197931   2.825  12.353   3.429
32033SOL    HW297932   2.742  12.230   3.395
32034SOL     OW97933  12.770   2.035  12.102
32034SOL    HW197934  12.687   2.023  12.148
32034SOL    HW297935  12.832   2.058  12.171
32035SOL     OW97936  10.805   4.704  14.605
32035SOL    HW197937  10.780   4.615  14.579
32035SOL    HW297938  10.829   4.747  14.524
32036SOL     OW97939   3.533  14.758  14.001
32036SOL    HW197940   3.599  14.705  13.957
32036SOL    HW297941   3.581  14.800  14.073
32037SOL     OW97942   6.570   8.568  14.827
32037SOL    HW197943   6.577   8.487  14.879
32037SOL    HW297944   6.660   8.588  14.802
32038SOL     OW97945   6.142   2.544   1.767
32038SOL    HW197946   6.108   2.629   1.740
32038SOL    HW297947   6.224   2.534   1.720
32039SOL     OW97948  11.082   0.412   4.599
32039SOL    HW197949  11.157   0.356   4.620
32039SOL    HW297950  11.081   0.415   4.504
32040SOL     OW97951  14.208   7.630  10.879
32040SOL    HW197952  14.218   7.548  10.927
32040SOL    HW297953  14.141   7.678  10.928
32041SOL     OW97954   4.678  14.792   0.954
32041SOL    HW197955   4.698  14.806   1.047
32041SOL    HW297956   4.760  14.762   0.916
32042SOL     OW97957  12.402   2.352   0.013
32042SOL    HW197958  12.492   2.380   0.031
32042SOL    HW297959  12.401   2.336  14.801
32043SOL     OW97960  11.629  12.472   3.763
32043SOL    HW197961  11.664  12.396   3.810
32043SOL    HW297962  11.553  12.499   3.815
32044SOL     OW97963   6.825   1.610   1.120
32044SOL    HW197964   6.871   1.652   1.192
32044SOL    HW297965   6.827   1.516   1.142
32045SOL     OW97966   8.812  11.667   4.889
32045SOL    HW197967   8.829  11.735   4.824
32045SOL    HW297968   8.756  11.709   4.954
32046SOL     OW97969  11.108   6.607   8.310
32046SOL    HW197970  11.069   6.545   8.250
32046SOL    HW297971  11.180   6.559   8.352
32047SOL     OW97972  14.616  10.425   1.952
32047SOL    HW197973  14.635  10.380   1.870
32047SOL    HW297974  14.528  10.397   1.975
32048SOL     OW97975  14.228   1.355   9.959
32048SOL    HW197976  14.272   1.336   9.877
32048SOL    HW297977  14.299   1.363  10.023
32049SOL     OW97978  13.985   7.103  10.095
32049SOL    HW197979  13.989   7.041  10.022
32049SOL    HW297980  13.891   7.108  10.116
32050SOL     OW97981   3.989   2.975   5.935
32050SOL    HW197982   3.986   3.067   5.909
32050SOL    HW297983   3.907   2.938   5.901
32051SOL     OW97984   0.578   4.330   3.335
32051SOL    HW197985   0.547   4.241   3.353
32051SOL    HW297986   0.546   4.383   3.408
32052SOL     OW97987   8.333   3.528   8.608
32052SOL    HW197988   8.291   3.611   8.584
32052SOL    HW297989   8.259   3.467   8.619
32053SOL     OW97990   6.141   8.964   6.893
32053SOL    HW197991   6.187   8.991   6.813
32053SOL    HW297992   6.209   8.961   6.960
32054SOL     OW97993  14.594  12.610   9.549
32054SOL    HW197994  14.507  12.627   9.513
32054SOL    HW297995  14.654  12.622   9.475
32055SOL     OW97996   1.121  14.480   0.387
32055SOL    HW197997   1.123  14.478   0.483
32055SOL    HW297998   1.039  14.436   0.364
32056SOL     OW97999  11.482   5.548   8.532
32056SOL    HW198000  11.510   5.459   8.553
32056SOL    HW298001  11.426   5.537   8.455
32057SOL     OW98002  10.345   1.914   3.645
32057SOL    HW198003  10.357   1.936   3.738
32057SOL    HW298004  10.404   1.975   3.599
32058SOL     OW98005  12.766   0.609   8.685
32058SOL    HW198006  12.699   0.556   8.643
32058SOL    HW298007  12.726   0.639   8.767
32059SOL     OW98008   9.038  11.808   1.333
32059SOL    HW198009   9.000  11.895   1.344
32059SOL    HW298010   9.100  11.799   1.405
32060SOL     OW98011   8.754   9.576   4.953
32060SOL    HW198012   8.715   9.518   5.019
32060SOL    HW298013   8.845   9.548   4.947
32061SOL     OW98014   9.083   2.175  11.478
32061SOL    HW198015   9.102   2.192  11.386
32061SOL    HW298016   9.139   2.236  11.526
32062SOL     OW98017  13.236   6.641   3.968
32062SOL    HW198018  13.204   6.723   3.930
32062SOL    HW298019  13.171   6.576   3.942
32063SOL     OW98020  11.985   0.044   1.681
32063SOL    HW198021  11.982   0.106   1.608
32063SOL    HW298022  11.918   0.076   1.741
32064SOL     OW98023   7.412   0.905   9.262
32064SOL    HW198024   7.491   0.902   9.209
32064SOL    HW298025   7.378   0.994   9.251
32065SOL     OW98026   9.320  11.033   6.825
32065SOL    HW198027   9.400  11.080   6.847
32065SOL    HW298028   9.278  11.016   6.910
32066SOL     OW98029   4.236   5.566   9.614
32066SOL    HW198030   4.237   5.583   9.708
32066SOL    HW298031   4.223   5.652   9.574
32067SOL     OW98032  14.100   5.860   5.747
32067SOL    HW198033  14.139   5.935   5.701
32067SOL    HW298034  14.013   5.850   5.709
32068SOL     OW98035   6.931   5.284   4.915
32068SOL    HW198036   6.954   5.358   4.971
32068SOL    HW298037   6.930   5.209   4.975
32069SOL     OW98038  11.934  13.527   3.974
32069SOL    HW198039  11.925  13.513   3.880
32069SOL    HW298040  12.012  13.479   3.999
32070SOL     OW98041   8.412  11.155   2.714
32070SOL    HW198042   8.438  11.126   2.801
32070SOL    HW298043   8.364  11.081   2.677
32071SOL     OW98044  13.041   9.012   9.970
32071SOL    HW198045  13.064   9.067  10.044
32071SOL    HW298046  13.071   8.924   9.994
32072SOL     OW98047  12.387   0.644   8.592
32072SOL    HW198048  12.461   0.619   8.648
32072SOL    HW298049  12.414   0.617   8.504
32073SOL     OW98050   0.364   6.485   0.752
32073SOL    HW198051   0.342   6.549   0.821
32073SOL    HW298052   0.449   6.451   0.777
32074SOL     OW98053   9.785   5.374   6.348
32074SOL    HW198054   9.779   5.289   6.392
32074SOL    HW298055   9.703   5.418   6.371
32075SOL     OW98056   0.445  11.439   5.719
32075SOL    HW198057   0.376  11.505   5.723
32075SOL    HW298058   0.486  11.453   5.633
32076SOL     OW98059  10.940   5.963  12.745
32076SOL    HW198060  10.906   6.029  12.684
32076SOL    HW298061  10.949   6.010  12.828
32077SOL     OW98062  10.304   7.240  10.283
32077SOL    HW198063  10.277   7.322  10.241
32077SOL    HW298064  10.367   7.267  10.350
32078SOL     OW98065   6.007   6.742   8.634
32078SOL    HW198066   5.986   6.806   8.702
32078SOL    HW298067   5.998   6.790   8.552
32079SOL     OW98068   7.728   0.737  10.199
32079SOL    HW198069   7.771   0.689  10.269
32079SOL    HW298070   7.649   0.687  10.180
32080SOL     OW98071   5.658   8.763  14.391
32080SOL    HW198072   5.603   8.835  14.360
32080SOL    HW298073   5.669   8.779  14.485
32081SOL     OW98074   1.809  11.506  14.480
32081SOL    HW198075   1.852  11.421  14.469
32081SOL    HW298076   1.718  11.484  14.500
32082SOL     OW98077  12.646  10.953   4.082
32082SOL    HW198078  12.619  11.039   4.049
32082SOL    HW298079  12.577  10.894   4.052
32083SOL     OW98080   0.762   6.573  10.803
32083SOL    HW198081   0.840   6.520  10.790
32083SOL    HW298082   0.751   6.621  10.720
32084SOL     OW98083  14.301   1.081  10.726
32084SOL    HW198084  14.209   1.090  10.705
32084SOL    HW298085  14.320   1.155  10.784
32085SOL     OW98086   3.480   1.273   4.739
32085SOL    HW198087   3.525   1.342   4.690
32085SOL    HW298088   3.550   1.220   4.777
32086SOL     OW98089  10.381   7.133   7.913
32086SOL    HW198090  10.436   7.161   7.986
32086SOL    HW298091  10.402   7.194   7.842
32087SOL     OW98092  12.193  11.232   0.178
32087SOL    HW198093  12.213  11.323   0.157
32087SOL    HW298094  12.127  11.237   0.247
32088SOL     OW98095   6.760  12.879   2.163
32088SOL    HW198096   6.732  12.917   2.247
32088SOL    HW298097   6.720  12.793   2.161
32089SOL     OW98098   5.744   9.079   1.675
32089SOL    HW198099   5.720   9.157   1.625
32089SOL    HW298100   5.665   9.057   1.724
32090SOL     OW98101   6.028  10.314   3.545
32090SOL    HW198102   5.992  10.288   3.461
32090SOL    HW298103   6.087  10.243   3.570
32091SOL     OW98104   2.368  10.087   0.762
32091SOL    HW198105   2.460  10.113   0.769
32091SOL    HW298106   2.338  10.079   0.852
32092SOL     OW98107  12.709   9.249   3.580
32092SOL    HW198108  12.759   9.184   3.530
32092SOL    HW298109  12.737   9.333   3.544
32093SOL     OW98110  13.813   0.409   0.207
32093SOL    HW198111  13.778   0.492   0.174
32093SOL    HW298112  13.824   0.422   0.301
32094SOL     OW98113   0.102   8.830   1.149
32094SOL    HW198114   0.194   8.855   1.157
32094SOL    HW298115   0.104   8.747   1.100
32095SOL     OW98116  14.389  10.812   3.549
32095SOL    HW198117  14.449  10.780   3.616
32095SOL    HW298118  14.349  10.733   3.513
32096SOL     OW98119   2.487   5.126   5.457
32096SOL    HW198120   2.395   5.136   5.433
32096SOL    HW298121   2.536   5.141   5.376
32097SOL     OW98122   8.358  11.850   1.144
32097SOL    HW198123   8.441  11.803   1.152
32097SOL    HW298124   8.321  11.820   1.061
32098SOL     OW98125   0.906  11.623   9.357
32098SOL    HW198126   0.891  11.665   9.272
32098SOL    HW298127   0.869  11.535   9.347
32099SOL     OW98128  11.625  13.166   4.521
32099SOL    HW198129  11.583  13.243   4.483
32099SOL    HW298130  11.628  13.184   4.615
32100SOL     OW98131  13.648  11.761   3.463
32100SOL    HW198132  13.738  11.771   3.492
32100SOL    HW298133  13.609  11.848   3.471
32101SOL     OW98134   9.307   8.382  10.754
32101SOL    HW198135   9.272   8.438  10.824
32101SOL    HW298136   9.325   8.443  10.682
32102SOL     OW98137   3.139   6.258  12.323
32102SOL    HW198138   3.065   6.206  12.292
32102SOL    HW298139   3.131   6.256  12.418
32103SOL     OW98140  14.381  13.948  11.937
32103SOL    HW198141  14.474  13.950  11.956
32103SOL    HW298142  14.338  13.949  12.023
32104SOL     OW98143   4.057   4.835   9.340
32104SOL    HW198144   4.023   4.908   9.289
32104SOL    HW298145   4.035   4.856   9.431
32105SOL     OW98146   4.492  14.553   3.011
32105SOL    HW198147   4.528  14.641   3.022
32105SOL    HW298148   4.466  14.549   2.919
32106SOL     OW98149   4.932  13.531   4.786
32106SOL    HW198150   4.990  13.549   4.712
32106SOL    HW298151   4.978  13.466   4.838
32107SOL     OW98152   2.275   2.461   9.587
32107SOL    HW198153   2.264   2.370   9.615
32107SOL    HW298154   2.362   2.485   9.617
32108SOL     OW98155   1.140   4.248   0.165
32108SOL    HW198156   1.155   4.341   0.183
32108SOL    HW298157   1.047   4.235   0.182
32109SOL     OW98158   1.609   5.416   1.252
32109SOL    HW198159   1.551   5.382   1.184
32109SOL    HW298160   1.552   5.428   1.328
32110SOL     OW98161   7.149  14.489   6.377
32110SOL    HW198162   7.059  14.468   6.401
32110SOL    HW298163   7.198  14.482   6.459
32111SOL     OW98164   6.587  12.856   0.847
32111SOL    HW198165   6.670  12.833   0.889
32111SOL    HW298166   6.526  12.788   0.877
32112SOL     OW98167  14.205   6.485   7.432
32112SOL    HW198168  14.201   6.539   7.511
32112SOL    HW298169  14.126   6.431   7.435
32113SOL     OW98170   4.568   4.100  10.299
32113SOL    HW198171   4.644   4.048  10.272
32113SOL    HW298172   4.572   4.178  10.245
32114SOL     OW98173   8.767   8.663   3.370
32114SOL    HW198174   8.805   8.594   3.315
32114SOL    HW298175   8.673   8.648   3.365
32115SOL     OW98176   5.353   3.809   4.592
32115SOL    HW198177   5.434   3.791   4.544
32115SOL    HW298178   5.285   3.769   4.539
32116SOL     OW98179  11.669  12.414   2.700
32116SOL    HW198180  11.709  12.460   2.773
32116SOL    HW298181  11.620  12.342   2.741
32117SOL     OW98182  10.850   8.392   3.167
32117SOL    HW198183  10.775   8.365   3.115
32117SOL    HW298184  10.861   8.322   3.232
32118SOL     OW98185   4.728   5.937   2.869
32118SOL    HW198186   4.722   5.978   2.956
32118SOL    HW298187   4.639   5.942   2.834
32119SOL     OW98188   3.933   5.268  13.914
32119SOL    HW198189   3.952   5.212  13.990
32119SOL    HW298190   3.852   5.233  13.878
32120SOL     OW98191   2.077   9.930   0.078
32120SOL    HW198192   2.115   9.994   0.017
32120SOL    HW298193   2.015   9.881   0.025
32121SOL     OW98194  14.231   3.497   7.580
32121SOL    HW198195  14.294   3.444   7.629
32121SOL    HW298196  14.249   3.587   7.607
32122SOL     OW98197   1.366  11.641  13.681
32122SOL    HW198198   1.358  11.564  13.736
32122SOL    HW298199   1.410  11.706  13.736
32123SOL     OW98200  12.336  11.792   0.956
32123SOL    HW198201  12.405  11.821   0.897
32123SOL    HW298202  12.260  11.844   0.932
32124SOL     OW98203   3.496   4.864   3.864
32124SOL    HW198204   3.524   4.865   3.772
32124SOL    HW298205   3.506   4.955   3.892
32125SOL     OW98206   1.519   2.428  11.558
32125SOL    HW198207   1.476   2.347  11.587
32125SOL    HW298208   1.607   2.401  11.532
32126SOL     OW98209   6.589  13.933   1.954
32126SOL    HW198210   6.660  13.925   1.889
32126SOL    HW298211   6.608  14.016   1.999
32127SOL     OW98212   5.898   8.141   1.225
32127SOL    HW198213   5.972   8.147   1.166
32127SOL    HW298214   5.821   8.149   1.168
32128SOL     OW98215   9.072  10.670   9.556
32128SOL    HW198216   9.149  10.614   9.548
32128SOL    HW298217   9.048  10.666   9.648
32129SOL     OW98218   5.032   4.609  13.258
32129SOL    HW198219   5.058   4.692  13.296
32129SOL    HW298220   5.037   4.623  13.163
32130SOL     OW98221  11.152  12.765  14.723
32130SOL    HW198222  11.196  12.818  14.789
32130SOL    HW298223  11.161  12.675  14.754
32131SOL     OW98224   0.578   7.492   9.906
32131SOL    HW198225   0.635   7.428   9.948
32131SOL    HW298226   0.519   7.521   9.976
32132SOL     OW98227  12.075  12.539   9.146
32132SOL    HW198228  12.160  12.496   9.146
32132SOL    HW298229  12.081  12.605   9.215
32133SOL     OW98230  12.746   2.752  12.549
32133SOL    HW198231  12.689   2.823  12.520
32133SOL    HW298232  12.769   2.706  12.468
32134SOL     OW98233   4.601   7.408  12.148
32134SOL    HW198234   4.620   7.494  12.185
32134SOL    HW298235   4.637   7.346  12.211
32135SOL     OW98236   3.934   0.760   9.179
32135SOL    HW198237   3.840   0.765   9.192
32135SOL    HW298238   3.971   0.798   9.259
32136SOL     OW98239   5.671   8.879  14.012
32136SOL    HW198240   5.616   8.802  14.026
32136SOL    HW298241   5.626   8.950  14.057
32137SOL     OW98242   4.305   2.742   0.529
32137SOL    HW198243   4.357   2.662   0.536
32137SOL    HW298244   4.250   2.728   0.452
32138SOL     OW98245   3.319  14.270   5.576
32138SOL    HW198246   3.243  14.292   5.629
32138SOL    HW298247   3.380  14.343   5.590
32139SOL     OW98248   8.028  11.593  14.186
32139SOL    HW198249   8.038  11.519  14.246
32139SOL    HW298250   7.940  11.581  14.149
32140SOL     OW98251   1.829   3.284   3.620
32140SOL    HW198252   1.821   3.378   3.632
32140SOL    HW298253   1.861   3.252   3.705
32141SOL     OW98254  12.149   5.461  14.509
32141SOL    HW198255  12.126   5.465  14.602
32141SOL    HW298256  12.237   5.497  14.505
32142SOL     OW98257   8.574  14.480  12.515
32142SOL    HW198258   8.622  14.408  12.474
32142SOL    HW298259   8.488  14.442  12.536
32143SOL     OW98260   7.003   8.048  11.005
32143SOL    HW198261   7.049   8.045  11.089
32143SOL    HW298262   7.033   8.129  10.965
32144SOL     OW98263   3.480  14.123   8.247
32144SOL    HW198264   3.570  14.128   8.214
32144SOL    HW298265   3.490  14.125   8.342
32145SOL     OW98266  13.506   1.206   6.066
32145SOL    HW198267  13.505   1.226   6.160
32145SOL    HW298268  13.455   1.125   6.058
32146SOL     OW98269   2.706  11.695   2.918
32146SOL    HW198270   2.612  11.701   2.933
32146SOL    HW298271   2.730  11.607   2.948
32147SOL     OW98272   5.657   0.482   8.843
32147SOL    HW198273   5.597   0.424   8.796
32147SOL    HW298274   5.599   0.546   8.885
32148SOL     OW98275   5.725   6.891   3.788
32148SOL    HW198276   5.758   6.804   3.767
32148SOL    HW298277   5.693   6.926   3.705
32149SOL     OW98278  14.841   9.237   2.673
32149SOL    HW198279  14.775   9.260   2.738
32149SOL    HW298280  14.820   9.291   2.597
32150SOL     OW98281   6.631   5.640   5.437
32150SOL    HW198282   6.698   5.630   5.369
32150SOL    HW298283   6.572   5.707   5.403
32151SOL     OW98284   5.585   7.671   2.409
32151SOL    HW198285   5.499   7.685   2.370
32151SOL    HW298286   5.630   7.612   2.349
32152SOL     OW98287   8.976  12.891   2.543
32152SOL    HW198288   8.951  12.802   2.564
32152SOL    HW298289   8.893  12.937   2.528
32153SOL     OW98290  11.507   5.141   6.804
32153SOL    HW198291  11.523   5.203   6.733
32153SOL    HW298292  11.456   5.190   6.868
32154SOL     OW98293   7.862  10.942   2.063
32154SOL    HW198294   7.856  10.915   2.154
32154SOL    HW298295   7.905  10.869   2.019
32155SOL     OW98296   7.093   6.713  10.622
32155SOL    HW198297   7.103   6.725  10.527
32155SOL    HW298298   7.162   6.766  10.660
32156SOL     OW98299   9.562  14.381   5.947
32156SOL    HW198300   9.494  14.421   5.893
32156SOL    HW298301   9.519  14.363   6.031
32157SOL     OW98302  12.901   8.025   4.368
32157SOL    HW198303  12.905   7.991   4.457
32157SOL    HW298304  12.897   7.948   4.312
32158SOL     OW98305  14.678   5.494   1.239
32158SOL    HW198306  14.588   5.464   1.249
32158SOL    HW298307  14.688   5.509   1.145
32159SOL     OW98308  10.781   5.517   3.668
32159SOL    HW198309  10.804   5.445   3.609
32159SOL    HW298310  10.852   5.580   3.657
32160SOL     OW98311   6.784   5.988   8.093
32160SOL    HW198312   6.860   5.996   8.036
32160SOL    HW298313   6.720   6.048   8.056
32161SOL     OW98314   3.682   4.224   7.437
32161SOL    HW198315   3.624   4.166   7.486
32161SOL    HW298316   3.684   4.305   7.488
32162SOL     OW98317   1.728   1.933   8.357
32162SOL    HW198318   1.674   2.012   8.356
32162SOL    HW298319   1.668   1.864   8.384
32163SOL     OW98320   1.072  12.203   5.848
32163SOL    HW198321   1.155  12.155   5.850
32163SOL    HW298322   1.084  12.269   5.779
32164SOL     OW98323   3.193  13.905  14.004
32164SOL    HW198324   3.211  13.989  13.961
32164SOL    HW298325   3.098  13.903  14.014
32165SOL     OW98326  11.829   0.187  13.475
32165SOL    HW198327  11.840   0.094  13.455
32165SOL    HW298328  11.834   0.230  13.390
32166SOL     OW98329   0.230   6.390   5.440
32166SOL    HW198330   0.169   6.436   5.497
32166SOL    HW298331   0.300   6.361   5.499
32167SOL     OW98332   3.440  13.167   8.041
32167SOL    HW198333   3.459  13.097   8.103
32167SOL    HW298334   3.521  13.177   7.990
32168SOL     OW98335   6.728   5.403  11.118
32168SOL    HW198336   6.660   5.350  11.159
32168SOL    HW298337   6.680   5.467  11.066
32169SOL     OW98338   1.751   6.679   4.576
32169SOL    HW198339   1.815   6.611   4.596
32169SOL    HW298340   1.733   6.668   4.483
32170SOL     OW98341   7.462   4.146  11.985
32170SOL    HW198342   7.492   4.072  11.933
32170SOL    HW298343   7.467   4.115  12.075
32171SOL     OW98344   2.010   4.122   4.988
32171SOL    HW198345   2.099   4.121   5.024
32171SOL    HW298346   1.997   4.034   4.954
32172SOL     OW98347   1.706  13.836   7.785
32172SOL    HW198348   1.699  13.871   7.874
32172SOL    HW298349   1.616  13.836   7.753
32173SOL     OW98350  13.250  10.673   0.314
32173SOL    HW198351  13.322  10.720   0.272
32173SOL    HW298352  13.174  10.729   0.300
32174SOL     OW98353  11.646   8.003   3.986
32174SOL    HW198354  11.584   8.024   3.917
32174SOL    HW298355  11.673   8.089   4.021
32175SOL     OW98356  10.542  12.737  14.412
32175SOL    HW198357  10.503  12.820  14.440
32175SOL    HW298358  10.623  12.762  14.368
32176SOL     OW98359   1.807  14.331   2.215
32176SOL    HW198360   1.868  14.374   2.275
32176SOL    HW298361   1.743  14.399   2.194
32177SOL     OW98362   3.448   9.706   5.722
32177SOL    HW198363   3.366   9.694   5.771
32177SOL    HW298364   3.483   9.789   5.753
32178SOL     OW98365  13.568   8.073   2.525
32178SOL    HW198366  13.553   8.145   2.465
32178SOL    HW298367  13.481   8.043   2.550
32179SOL     OW98368   2.344   7.040   0.420
32179SOL    HW198369   2.309   6.986   0.349
32179SOL    HW298370   2.267   7.063   0.472
32180SOL     OW98371   1.347   2.948  14.151
32180SOL    HW198372   1.368   2.881  14.086
32180SOL    HW298373   1.324   3.026  14.100
32181SOL     OW98374   3.242  10.111  10.008
32181SOL    HW198375   3.148  10.109  10.024
32181SOL    HW298376   3.278  10.040  10.062
32182SOL     OW98377   1.178   1.975  10.998
32182SOL    HW198378   1.138   2.050  10.954
32182SOL    HW298379   1.253   1.953  10.944
32183SOL     OW98380  13.500   9.950  13.459
32183SOL    HW198381  13.454   9.957  13.543
32183SOL    HW298382  13.544   9.865  13.463
32184SOL     OW98383   7.325   6.656  12.984
32184SOL    HW198384   7.300   6.566  13.004
32184SOL    HW298385   7.305   6.667  12.890
32185SOL     OW98386   7.164   7.579  10.106
32185SOL    HW198387   7.237   7.638  10.119
32185SOL    HW298388   7.171   7.515  10.177
32186SOL     OW98389   0.033   7.744   0.181
32186SOL    HW198390   0.103   7.705   0.234
32186SOL    HW298391  14.856   7.671   0.161
32187SOL     OW98392   0.801   5.641  10.360
32187SOL    HW198393   0.862   5.582  10.406
32187SOL    HW298394   0.854   5.680  10.290
32188SOL     OW98395  11.308   6.084   9.939
32188SOL    HW198396  11.319   6.090  10.033
32188SOL    HW298397  11.273   6.169   9.913
32189SOL     OW98398   5.351  14.741   7.395
32189SOL    HW198399   5.310  14.775   7.475
32189SOL    HW298400   5.280  14.696   7.349
32190SOL     OW98401   1.245   5.351  12.214
32190SOL    HW198402   1.308   5.409  12.257
32190SOL    HW298403   1.261   5.363  12.120
32191SOL     OW98404   2.568  12.721   3.209
32191SOL    HW198405   2.491  12.670   3.182
32191SOL    HW298406   2.568  12.715   3.304
32192SOL     OW98407  13.924  13.775   6.062
32192SOL    HW198408  13.957  13.865   6.069
32192SOL    HW298409  13.917  13.759   5.968
32193SOL     OW98410   5.432   6.134  14.311
32193SOL    HW198411   5.486   6.212  14.326
32193SOL    HW298412   5.342   6.165  14.319
32194SOL     OW98413   9.174   4.753   8.000
32194SOL    HW198414   9.105   4.818   7.985
32194SOL    HW298415   9.251   4.804   8.023
32195SOL     OW98416   0.994  10.637   2.068
32195SOL    HW198417   0.961  10.715   2.113
32195SOL    HW298418   1.078  10.665   2.030
32196SOL     OW98419  10.118   0.531  11.299
32196SOL    HW198420  10.096   0.549  11.208
32196SOL    HW298421  10.163   0.447  11.297
32197SOL     OW98422   5.065  11.893   7.611
32197SOL    HW198423   5.099  11.966   7.559
32197SOL    HW298424   5.083  11.816   7.557
32198SOL     OW98425   2.651   9.679   6.897
32198SOL    HW198426   2.646   9.624   6.819
32198SOL    HW298427   2.568   9.727   6.898
32199SOL     OW98428   7.698  12.129  14.253
32199SOL    HW198429   7.756  12.186  14.303
32199SOL    HW298430   7.736  12.042  14.261
32200SOL     OW98431   8.096  11.812   6.342
32200SOL    HW198432   8.115  11.719   6.339
32200SOL    HW298433   8.072  11.834   6.252
32201SOL     OW98434  13.380   8.269  12.000
32201SOL    HW198435  13.285   8.253  12.000
32201SOL    HW298436  13.406   8.259  12.091
32202SOL     OW98437   9.464   1.034  10.651
32202SOL    HW198438   9.402   0.962  10.661
32202SOL    HW298439   9.443   1.071  10.565
32203SOL     OW98440   9.188   2.422  14.838
32203SOL    HW198441   9.106   2.471  14.833
32203SOL    HW298442   9.237   2.452  14.762
32204SOL     OW98443   5.579   5.624   5.591
32204SOL    HW198444   5.484   5.639   5.592
32204SOL    HW298445   5.589   5.542   5.542
32205SOL     OW98446  11.430  12.016   9.978
32205SOL    HW198447  11.358  12.064  10.021
32205SOL    HW298448  11.481  11.979  10.050
32206SOL     OW98449   4.926  13.389  10.983
32206SOL    HW198450   4.911  13.388  11.078
32206SOL    HW298451   5.015  13.356  10.973
32207SOL     OW98452   5.090  11.430   0.599
32207SOL    HW198453   5.023  11.469   0.542
32207SOL    HW298454   5.110  11.499   0.662
32208SOL     OW98455   6.826   4.575   8.733
32208SOL    HW198456   6.887   4.649   8.741
32208SOL    HW298457   6.746   4.605   8.775
32209SOL     OW98458   0.033   9.732   1.664
32209SOL    HW198459  14.860   9.657   1.642
32209SOL    HW298460  14.854   9.806   1.666
32210SOL     OW98461   8.358  14.855   5.806
32210SOL    HW198462   8.311  14.795   5.749
32210SOL    HW298463   8.313  14.849   5.890
32211SOL     OW98464  13.626   8.459   3.472
32211SOL    HW198465  13.671   8.492   3.549
32211SOL    HW298466  13.559   8.525   3.452
32212SOL     OW98467  11.921  11.428   7.126
32212SOL    HW198468  11.826  11.423   7.135
32212SOL    HW298469  11.935  11.443   7.032
32213SOL     OW98470   4.353   9.243   4.138
32213SOL    HW198471   4.261   9.217   4.125
32213SOL    HW298472   4.391   9.240   4.050
32214SOL     OW98473  14.602   9.595   4.478
32214SOL    HW198474  14.587   9.670   4.535
32214SOL    HW298475  14.691   9.567   4.497
32215SOL     OW98476   5.909   7.061   6.598
32215SOL    HW198477   5.919   7.038   6.690
32215SOL    HW298478   5.867   6.985   6.559
32216SOL     OW98479   3.188  10.745  12.780
32216SOL    HW198480   3.112  10.724  12.834
32216SOL    HW298481   3.171  10.834  12.748
32217SOL     OW98482  11.287  13.904   4.687
32217SOL    HW198483  11.379  13.892   4.710
32217SOL    HW298484  11.274  13.848   4.611
32218SOL     OW98485   0.034  10.737   0.375
32218SOL    HW198486   0.088  10.669   0.413
32218SOL    HW298487  14.827  10.717   0.405
32219SOL     OW98488   0.115  13.709  12.965
32219SOL    HW198489   0.136  13.764  12.890
32219SOL    HW298490   0.180  13.638  12.961
32220SOL     OW98491  10.225  10.827   0.905
32220SOL    HW198492  10.265  10.863   0.825
32220SOL    HW298493  10.183  10.902   0.947
32221SOL     OW98494   6.637  14.543   7.591
32221SOL    HW198495   6.549  14.572   7.568
32221SOL    HW298496   6.655  14.470   7.531
32222SOL     OW98497  10.720  13.308  11.332
32222SOL    HW198498  10.633  13.348  11.328
32222SOL    HW298499  10.759  13.344  11.412
32223SOL     OW98500  11.583   9.957  10.708
32223SOL    HW198501  11.656   9.984  10.763
32223SOL    HW298502  11.515   9.932  10.771
32224SOL     OW98503   9.930   3.138  13.831
32224SOL    HW198504   9.890   3.051  13.826
32224SOL    HW298505   9.864   3.197  13.793
32225SOL     OW98506   8.461  13.048   4.594
32225SOL    HW198507   8.479  13.117   4.658
32225SOL    HW298508   8.427  13.095   4.517
32226SOL     OW98509   7.835   0.120   8.658
32226SOL    HW198510   7.925   0.093   8.674
32226SOL    HW298511   7.826   0.202   8.707
32227SOL     OW98512   8.783   4.444   7.597
32227SOL    HW198513   8.757   4.486   7.679
32227SOL    HW298514   8.705   4.450   7.541
32228SOL     OW98515   2.162  10.783  13.930
32228SOL    HW198516   2.106  10.792  13.853
32228SOL    HW298517   2.249  10.765  13.895
32229SOL     OW98518   7.356   0.955   9.560
32229SOL    HW198519   7.396   1.039   9.537
32229SOL    HW298520   7.283   0.946   9.499
32230SOL     OW98521  12.922   7.136   4.749
32230SOL    HW198522  12.840   7.087   4.751
32230SOL    HW298523  12.991   7.070   4.747
32231SOL     OW98524   6.853   6.960  14.593
32231SOL    HW198525   6.837   6.868  14.569
32231SOL    HW298526   6.784   6.981  14.655
32232SOL     OW98527   0.743   3.284   2.742
32232SOL    HW198528   0.789   3.333   2.810
32232SOL    HW298529   0.685   3.224   2.790
32233SOL     OW98530   4.152   1.784  11.684
32233SOL    HW198531   4.077   1.734  11.717
32233SOL    HW298532   4.168   1.748  11.597
32234SOL     OW98533   2.918   7.871   7.691
32234SOL    HW198534   2.881   7.849   7.606
32234SOL    HW298535   2.845   7.905   7.742
32235SOL     OW98536   5.133   7.132   3.781
32235SOL    HW198537   5.164   7.219   3.806
32235SOL    HW298538   5.045   7.147   3.748
32236SOL     OW98539   0.976  10.411   3.944
32236SOL    HW198540   0.900  10.463   3.972
32236SOL    HW298541   0.944  10.321   3.943
32237SOL     OW98542   3.310   3.050   8.339
32237SOL    HW198543   3.387   3.065   8.394
32237SOL    HW298544   3.346   3.033   8.251
32238SOL     OW98545  10.895   2.231   6.138
32238SOL    HW198546  10.880   2.311   6.188
32238SOL    HW298547  10.857   2.249   6.052
32239SOL     OW98548   9.122  11.434   8.582
32239SOL    HW198549   9.178  11.373   8.630
32239SOL    HW298550   9.181  11.507   8.559
32240SOL     OW98551   8.314   1.581  11.815
32240SOL    HW198552   8.237   1.560  11.869
32240SOL    HW298553   8.281   1.580  11.725
32241SOL     OW98554  12.606  11.122   2.163
32241SOL    HW198555  12.524  11.160   2.131
32241SOL    HW298556  12.588  11.100   2.254
32242SOL     OW98557   1.764   2.824  14.561
32242SOL    HW198558   1.748   2.915  14.534
32242SOL    HW298559   1.798   2.782  14.482
32243SOL     OW98560   9.559   9.082   7.855
32243SOL    HW198561   9.617   9.092   7.780
32243SOL    HW298562   9.577   8.994   7.889
32244SOL     OW98563   8.331  10.394   1.145
32244SOL    HW198564   8.236  10.400   1.143
32244SOL    HW298565   8.355  10.360   1.059
32245SOL     OW98566   8.351  11.935  14.483
32245SOL    HW198567   8.401  11.923  14.563
32245SOL    HW298568   8.347  12.030  14.472
32246SOL     OW98569   5.547  11.356   2.052
32246SOL    HW198570   5.584  11.422   1.993
32246SOL    HW298571   5.608  11.353   2.126
32247SOL     OW98572   6.665   1.912   4.218
32247SOL    HW198573   6.600   1.843   4.202
32247SOL    HW298574   6.679   1.952   4.132
32248SOL     OW98575  12.001   8.255  11.795
32248SOL    HW198576  11.985   8.189  11.863
32248SOL    HW298577  11.981   8.338  11.837
32249SOL     OW98578   1.658  12.783  10.435
32249SOL    HW198579   1.697  12.731  10.505
32249SOL    HW298580   1.731  12.798  10.374
32250SOL     OW98581   2.973  10.360   2.343
32250SOL    HW198582   3.065  10.341   2.325
32250SOL    HW298583   2.950  10.430   2.282
32251SOL     OW98584  12.360   6.176   0.048
32251SOL    HW198585  12.427   6.110   0.068
32251SOL    HW298586  12.291   6.160   0.112
32252SOL     OW98587  13.629  13.499  14.485
32252SOL    HW198588  13.632  13.579  14.432
32252SOL    HW298589  13.547  13.507  14.534
32253SOL     OW98590   7.981   5.352   8.354
32253SOL    HW198591   7.952   5.350   8.263
32253SOL    HW298592   7.906   5.320   8.404
32254SOL     OW98593   8.600   4.943   9.970
32254SOL    HW198594   8.527   4.995   9.935
32254SOL    HW298595   8.677   4.996   9.953
32255SOL     OW98596   2.629  13.927   6.481
32255SOL    HW198597   2.593  13.839   6.480
32255SOL    HW298598   2.699  13.925   6.416
32256SOL     OW98599  10.935   4.959  12.616
32256SOL    HW198600  10.910   4.906  12.692
32256SOL    HW298601  11.005   5.016  12.649
32257SOL     OW98602   8.047   0.579  11.689
32257SOL    HW198603   7.972   0.568  11.630
32257SOL    HW298604   8.010   0.572  11.777
32258SOL     OW98605   3.192  13.348   9.945
32258SOL    HW198606   3.179  13.442   9.932
32258SOL    HW298607   3.287  13.337   9.951
32259SOL     OW98608   1.683  10.131   3.879
32259SOL    HW198609   1.599  10.125   3.923
32259SOL    HW298610   1.731  10.197   3.929
32260SOL     OW98611   0.176   3.554   7.387
32260SOL    HW198612   0.175   3.471   7.340
32260SOL    HW298613   0.090   3.557   7.431
32261SOL     OW98614   1.187  13.755   7.011
32261SOL    HW198615   1.211  13.681   6.955
32261SOL    HW298616   1.096  13.773   6.988
32262SOL     OW98617   2.502  12.851  14.186
32262SOL    HW198618   2.425  12.862  14.241
32262SOL    HW298619   2.467  12.836  14.098
32263SOL     OW98620   0.100   0.949   9.015
32263SOL    HW198621   0.138   0.862   9.021
32263SOL    HW298622   0.006   0.935   9.021
32264SOL     OW98623   4.987   4.801   9.130
32264SOL    HW198624   4.963   4.850   9.052
32264SOL    HW298625   4.931   4.836   9.199
32265SOL     OW98626  12.851  14.625   8.343
32265SOL    HW198627  12.917  14.621   8.412
32265SOL    HW298628  12.857  14.539   8.299
32266SOL     OW98629   2.678   4.507   2.281
32266SOL    HW198630   2.723   4.577   2.234
32266SOL    HW298631   2.665   4.439   2.215
32267SOL     OW98632   2.522   8.485  12.164
32267SOL    HW198633   2.534   8.509  12.256
32267SOL    HW298634   2.595   8.528  12.119
32268SOL     OW98635  12.934  14.315   8.276
32268SOL    HW198636  12.868  14.274   8.220
32268SOL    HW298637  12.914  14.283   8.364
32269SOL     OW98638   1.609   1.708  13.157
32269SOL    HW198639   1.619   1.724  13.064
32269SOL    HW298640   1.571   1.789  13.192
32270SOL     OW98641   7.273   9.636   4.077
32270SOL    HW198642   7.214   9.691   4.128
32270SOL    HW298643   7.344   9.694   4.051
32271SOL     OW98644  12.775  13.406  10.751
32271SOL    HW198645  12.693  13.357  10.756
32271SOL    HW298646  12.774  13.446  10.665
32272SOL     OW98647   2.816   4.664   6.645
32272SOL    HW198648   2.866   4.718   6.585
32272SOL    HW298649   2.729   4.705   6.647
32273SOL     OW98650   4.709  11.303  14.275
32273SOL    HW198651   4.801  11.315  14.254
32273SOL    HW298652   4.706  11.220  14.324
32274SOL     OW98653  10.704   5.305   7.087
32274SOL    HW198654  10.745   5.308   7.000
32274SOL    HW298655  10.667   5.217   7.094
32275SOL     OW98656  10.783   6.154  10.347
32275SOL    HW198657  10.786   6.113  10.433
32275SOL    HW298658  10.765   6.083  10.287
32276SOL     OW98659   6.333   3.339  14.731
32276SOL    HW198660   6.416   3.291  14.739
32276SOL    HW298661   6.276   3.300  14.797
32277SOL     OW98662  14.349  10.896   0.009
32277SOL    HW198663  14.301  10.819   0.040
32277SOL    HW298664  14.429  10.896   0.060
32278SOL     OW98665   5.061  12.912   9.726
32278SOL    HW198666   5.111  12.969   9.666
32278SOL    HW298667   5.082  12.945   9.813
32279SOL     OW98668   7.630  14.289   3.649
32279SOL    HW198669   7.682  14.259   3.723
32279SOL    HW298670   7.667  14.242   3.573
32280SOL     OW98671   1.920   4.342  13.268
32280SOL    HW198672   1.913   4.268  13.207
32280SOL    HW298673   1.866   4.317  13.343
32281SOL     OW98674   0.323  13.412   0.169
32281SOL    HW198675   0.274  13.330   0.174
32281SOL    HW298676   0.356  13.414   0.079
32282SOL     OW98677   4.184   9.969   4.947
32282SOL    HW198678   4.264   9.961   5.000
32282SOL    HW298679   4.216   9.988   4.859
32283SOL     OW98680   0.388   3.575   3.634
32283SOL    HW198681   0.386   3.494   3.685
32283SOL    HW298682   0.300   3.582   3.597
32284SOL     OW98683   4.625   0.808   3.916
32284SOL    HW198684   4.699   0.775   3.966
32284SOL    HW298685   4.591   0.731   3.870
32285SOL     OW98686   5.560   8.856   7.246
32285SOL    HW198687   5.500   8.818   7.183
32285SOL    HW298688   5.639   8.875   7.196
32286SOL     OW98689  13.818  12.240   3.637
32286SOL    HW198690  13.826  12.249   3.542
32286SOL    HW298691  13.829  12.329   3.670
32287SOL     OW98692   8.082   2.510   8.477
32287SOL    HW198693   8.026   2.542   8.406
32287SOL    HW298694   8.021   2.487   8.547
32288SOL     OW98695   4.119   3.595  13.850
32288SOL    HW198696   4.178   3.536  13.898
32288SOL    HW298697   4.076   3.647  13.918
32289SOL     OW98698   4.457   6.950   8.255
32289SOL    HW198699   4.385   6.892   8.281
32289SOL    HW298700   4.488   6.914   8.172
32290SOL     OW98701   8.411  13.490   7.846
32290SOL    HW198702   8.408  13.575   7.803
32290SOL    HW298703   8.505  13.470   7.852
32291SOL     OW98704   1.499   0.383   4.965
32291SOL    HW198705   1.502   0.334   5.047
32291SOL    HW298706   1.514   0.474   4.990
32292SOL     OW98707   3.604   0.624   0.451
32292SOL    HW198708   3.513   0.644   0.427
32292SOL    HW298709   3.649   0.709   0.446
32293SOL     OW98710  11.114   1.633   0.226
32293SOL    HW198711  11.099   1.703   0.163
32293SOL    HW298712  11.176   1.671   0.289
32294SOL     OW98713  12.221   4.621  13.283
32294SOL    HW198714  12.303   4.620  13.233
32294SOL    HW298715  12.240   4.569  13.361
32295SOL     OW98716  13.703   3.805  14.736
32295SOL    HW198717  13.713   3.861  14.659
32295SOL    HW298718  13.738   3.858  14.808
32296SOL     OW98719   8.732  12.786  10.086
32296SOL    HW198720   8.726  12.692  10.072
32296SOL    HW298721   8.671  12.803  10.158
32297SOL     OW98722   7.778  10.548   2.468
32297SOL    HW198723   7.718  10.621   2.451
32297SOL    HW298724   7.728  10.490   2.526
32298SOL     OW98725   1.146   9.518   5.960
32298SOL    HW198726   1.124   9.434   5.921
32298SOL    HW298727   1.115   9.583   5.896
32299SOL     OW98728   4.996   1.905   3.019
32299SOL    HW198729   5.039   1.829   3.058
32299SOL    HW298730   5.060   1.941   2.959
32300SOL     OW98731  11.521   5.529  13.732
32300SOL    HW198732  11.576   5.507  13.656
32300SOL    HW298733  11.531   5.623  13.742
32301SOL     OW98734   4.819   5.128   5.857
32301SOL    HW198735   4.899   5.094   5.896
32301SOL    HW298736   4.820   5.096   5.767
32302SOL     OW98737  10.701   0.513  10.428
32302SOL    HW198738  10.715   0.505  10.522
32302SOL    HW298739  10.621   0.464  10.410
32303SOL     OW98740   3.303   9.916   8.777
32303SOL    HW198741   3.304   9.928   8.682
32303SOL    HW298742   3.378   9.967   8.809
32304SOL     OW98743  11.204   9.739   4.006
32304SOL    HW198744  11.205   9.801   4.079
32304SOL    HW298745  11.241   9.659   4.043
32305SOL     OW98746  10.200   8.736  11.147
32305SOL    HW198747  10.116   8.704  11.115
32305SOL    HW298748  10.178   8.805  11.209
32306SOL     OW98749  13.878  10.208  11.817
32306SOL    HW198750  13.862  10.252  11.900
32306SOL    HW298751  13.814  10.245  11.756
32307SOL     OW98752   1.843   4.419   3.939
32307SOL    HW198753   1.794   4.434   4.020
32307SOL    HW298754   1.818   4.493   3.883
32308SOL     OW98755   0.742   1.049   8.791
32308SOL    HW198756   0.812   1.089   8.843
32308SOL    HW298757   0.695   1.123   8.753
32309SOL     OW98758   4.496  12.368   4.256
32309SOL    HW198759   4.470  12.319   4.178
32309SOL    HW298760   4.582  12.335   4.278
32310SOL     OW98761  14.772   5.037   9.643
32310SOL    HW198762  14.830   4.962   9.658
32310SOL    HW298763  14.777   5.053   9.549
32311SOL     OW98764  11.770  10.278  13.219
32311SOL    HW198765  11.721  10.356  13.245
32311SOL    HW298766  11.739  10.209  13.278
32312SOL     OW98767  13.386   6.957  14.815
32312SOL    HW198768  13.440   6.902  14.758
32312SOL    HW298769  13.379   7.040  14.769
32313SOL     OW98770  10.778  12.088   5.887
32313SOL    HW198771  10.801  12.066   5.796
32313SOL    HW298772  10.847  12.047   5.939
32314SOL     OW98773   7.864   4.185  13.737
32314SOL    HW198774   7.851   4.128  13.813
32314SOL    HW298775   7.942   4.236  13.758
32315SOL     OW98776   8.280   5.324   1.134
32315SOL    HW198777   8.256   5.377   1.210
32315SOL    HW298778   8.208   5.262   1.124
32316SOL     OW98779   7.624   7.240   1.478
32316SOL    HW198780   7.611   7.335   1.474
32316SOL    HW298781   7.686   7.221   1.408
32317SOL     OW98782  12.831   6.774   0.062
32317SOL    HW198783  12.834   6.692   0.013
32317SOL    HW298784  12.805   6.747   0.151
32318SOL     OW98785  13.676  13.607   8.100
32318SOL    HW198786  13.671  13.601   8.004
32318SOL    HW298787  13.587  13.628   8.127
32319SOL     OW98788   3.939  13.329   8.696
32319SOL    HW198789   3.895  13.353   8.614
32319SOL    HW298790   3.916  13.399   8.757
32320SOL     OW98791  12.710   1.201   6.286
32320SOL    HW198792  12.691   1.288   6.322
32320SOL    HW298793  12.667   1.141   6.347
32321SOL     OW98794   0.849   7.212   8.573
32321SOL    HW198795   0.756   7.209   8.597
32321SOL    HW298796   0.871   7.121   8.553
32322SOL     OW98797   3.168   5.349   6.832
32322SOL    HW198798   3.163   5.265   6.786
32322SOL    HW298799   3.183   5.325   6.923
32323SOL     OW98800   1.071  13.903  10.717
32323SOL    HW198801   0.995  13.858  10.754
32323SOL    HW298802   1.072  13.988  10.761
32324SOL     OW98803  14.682   5.822  14.833
32324SOL    HW198804  14.615   5.852  14.772
32324SOL    HW298805  14.688   5.894   0.015
32325SOL     OW98806   9.918   5.540   7.724
32325SOL    HW198807  10.009   5.512   7.720
32325SOL    HW298808   9.871   5.465   7.761
32326SOL     OW98809   8.831   1.005   2.302
32326SOL    HW198810   8.856   0.941   2.235
32326SOL    HW298811   8.914   1.031   2.343
32327SOL     OW98812  13.151  14.830   6.925
32327SOL    HW198813  13.147  14.825   7.021
32327SOL    HW298814  13.194   0.031   6.907
32328SOL     OW98815   4.030  12.987   1.505
32328SOL    HW198816   4.064  13.076   1.516
32328SOL    HW298817   4.035  12.971   1.410
32329SOL     OW98818   0.527   7.208  10.998
32329SOL    HW198819   0.482   7.137  11.043
32329SOL    HW298820   0.500   7.200  10.906
32330SOL     OW98821   2.677   2.934   9.385
32330SOL    HW198822   2.606   2.975   9.433
32330SOL    HW298823   2.754   2.945   9.441
32331SOL     OW98824   6.695   4.856   9.325
32331SOL    HW198825   6.657   4.769   9.311
32331SOL    HW298826   6.636   4.915   9.279
32332SOL     OW98827  13.885   2.412   3.192
32332SOL    HW198828  13.926   2.395   3.107
32332SOL    HW298829  13.799   2.448   3.170
32333SOL     OW98830   6.458   2.195   1.168
32333SOL    HW198831   6.427   2.215   1.256
32333SOL    HW298832   6.469   2.280   1.126
32334SOL     OW98833   5.850  12.020  14.103
32334SOL    HW198834   5.927  11.992  14.152
32334SOL    HW298835   5.776  11.983  14.152
32335SOL     OW98836   3.555   7.177   7.747
32335SOL    HW198837   3.631   7.120   7.746
32335SOL    HW298838   3.551   7.213   7.658
32336SOL     OW98839   4.915   7.528   5.961
32336SOL    HW198840   4.987   7.498   5.906
32336SOL    HW298841   4.849   7.459   5.955
32337SOL     OW98842   7.872   8.681   7.585
32337SOL    HW198843   7.806   8.694   7.653
32337SOL    HW298844   7.900   8.590   7.596
32338SOL     OW98845   5.487  14.384   3.076
32338SOL    HW198846   5.441  14.413   2.997
32338SOL    HW298847   5.419  14.374   3.142
32339SOL     OW98848   6.938   1.497  14.063
32339SOL    HW198849   6.938   1.485  14.158
32339SOL    HW298850   6.848   1.517  14.041
32340SOL     OW98851   4.735   2.468   8.687
32340SOL    HW198852   4.802   2.400   8.686
32340SOL    HW298853   4.784   2.549   8.702
32341SOL     OW98854   8.879   2.153   7.011
32341SOL    HW198855   8.838   2.108   6.938
32341SOL    HW298856   8.881   2.246   6.986
32342SOL     OW98857  12.822   8.374   7.458
32342SOL    HW198858  12.849   8.414   7.375
32342SOL    HW298859  12.866   8.289   7.459
32343SOL     OW98860  11.710   3.110   7.770
32343SOL    HW198861  11.785   3.114   7.830
32343SOL    HW298862  11.738   3.049   7.701
32344SOL     OW98863   9.849  10.989  14.116
32344SOL    HW198864   9.765  11.007  14.158
32344SOL    HW298865   9.858  10.894  14.119
32345SOL     OW98866   2.252   6.501   4.603
32345SOL    HW198867   2.336   6.531   4.568
32345SOL    HW298868   2.212   6.451   4.532
32346SOL     OW98869   1.233   9.030   9.772
32346SOL    HW198870   1.282   9.089   9.714
32346SOL    HW298871   1.205   8.958   9.715
32347SOL     OW98872  11.210   8.195   8.314
32347SOL    HW198873  11.282   8.236   8.362
32347SOL    HW298874  11.239   8.196   8.223
32348SOL     OW98875  11.346   5.516   4.059
32348SOL    HW198876  11.323   5.480   4.145
32348SOL    HW298877  11.354   5.610   4.074
32349SOL     OW98878  12.189   1.717   6.733
32349SOL    HW198879  12.112   1.662   6.718
32349SOL    HW298880  12.231   1.724   6.647
32350SOL     OW98881   4.213  13.481   2.945
32350SOL    HW198882   4.294  13.523   2.974
32350SOL    HW298883   4.143  13.537   2.980
32351SOL     OW98884   9.333  10.129   4.096
32351SOL    HW198885   9.345  10.198   4.031
32351SOL    HW298886   9.293  10.057   4.048
32352SOL     OW98887   4.861  12.285  13.277
32352SOL    HW198888   4.862  12.242  13.363
32352SOL    HW298889   4.904  12.370  13.292
32353SOL     OW98890   5.838  12.928   8.720
32353SOL    HW198891   5.791  12.942   8.638
32353SOL    HW298892   5.901  12.859   8.700
32354SOL     OW98893   2.629   4.640  13.928
32354SOL    HW198894   2.560   4.594  13.880
32354SOL    HW298895   2.627   4.602  14.015
32355SOL     OW98896  11.830   4.038   2.149
32355SOL    HW198897  11.901   4.030   2.213
32355SOL    HW298898  11.778   4.112   2.181
32356SOL     OW98899   7.665   3.802   6.002
32356SOL    HW198900   7.644   3.891   6.032
32356SOL    HW298901   7.598   3.747   6.042
32357SOL     OW98902   5.348   6.793   2.602
32357SOL    HW198903   5.304   6.764   2.682
32357SOL    HW298904   5.403   6.866   2.630
32358SOL     OW98905   4.777   3.442   2.353
32358SOL    HW198906   4.767   3.537   2.364
32358SOL    HW298907   4.720   3.421   2.279
32359SOL     OW98908   7.054  12.964   0.677
32359SOL    HW198909   7.063  12.985   0.585
32359SOL    HW298910   7.026  12.872   0.678
32360SOL     OW98911  14.503  10.366   1.486
32360SOL    HW198912  14.473  10.307   1.417
32360SOL    HW298913  14.468  10.451   1.461
32361SOL     OW98914  13.967   7.486  13.201
32361SOL    HW198915  13.975   7.524  13.114
32361SOL    HW298916  13.896   7.424  13.195
32362SOL     OW98917   9.206  12.949   2.793
32362SOL    HW198918   9.143  13.004   2.841
32362SOL    HW298919   9.170  12.860   2.800
32363SOL     OW98920   2.318   6.586  13.382
32363SOL    HW198921   2.257   6.523  13.420
32363SOL    HW298922   2.387   6.596  13.448
32364SOL     OW98923   9.927   7.142  12.028
32364SOL    HW198924   9.882   7.059  12.046
32364SOL    HW298925  10.015   7.116  12.000
32365SOL     OW98926  13.515   2.477   2.534
32365SOL    HW198927  13.423   2.503   2.524
32365SOL    HW298928  13.527   2.407   2.469
32366SOL     OW98929  10.530   3.077   6.401
32366SOL    HW198930  10.484   3.115   6.326
32366SOL    HW298931  10.460   3.052   6.461
32367SOL     OW98932   0.813   8.680   4.843
32367SOL    HW198933   0.899   8.719   4.859
32367SOL    HW298934   0.808   8.606   4.904
32368SOL     OW98935   0.808   9.342   6.455
32368SOL    HW198936   0.801   9.412   6.390
32368SOL    HW298937   0.901   9.341   6.479
32369SOL     OW98938   0.585   5.018   0.761
32369SOL    HW198939   0.555   5.063   0.840
32369SOL    HW298940   0.599   4.928   0.789
32370SOL     OW98941   6.910   7.608  13.043
32370SOL    HW198942   6.868   7.533  13.085
32370SOL    HW298943   6.900   7.679  13.106
32371SOL     OW98944   4.180  13.694   2.678
32371SOL    HW198945   4.244  13.622   2.684
32371SOL    HW298946   4.097  13.651   2.658
32372SOL     OW98947  12.300  13.937   7.663
32372SOL    HW198948  12.242  13.921   7.589
32372SOL    HW298949  12.337  13.851   7.683
32373SOL     OW98950   7.634   4.894  12.375
32373SOL    HW198951   7.668   4.982  12.357
32373SOL    HW298952   7.655   4.878  12.467
32374SOL     OW98953   0.665   4.164  11.221
32374SOL    HW198954   0.589   4.128  11.175
32374SOL    HW298955   0.648   4.146  11.313
32375SOL     OW98956   7.568  14.718  10.465
32375SOL    HW198957   7.642  14.743  10.409
32375SOL    HW298958   7.594  14.745  10.553
32376SOL     OW98959   0.275  11.010   5.210
32376SOL    HW198960   0.334  10.946   5.171
32376SOL    HW298961   0.277  10.991   5.304
32377SOL     OW98962   9.702   4.903   9.784
32377SOL    HW198963   9.617   4.932   9.816
32377SOL    HW298964   9.686   4.877   9.693
32378SOL     OW98965  13.738   5.976   1.774
32378SOL    HW198966  13.793   5.983   1.696
32378SOL    HW298967  13.675   6.048   1.767
32379SOL     OW98968  11.486  11.738   3.519
32379SOL    HW198969  11.577  11.742   3.549
32379SOL    HW298970  11.442  11.807   3.568
32380SOL     OW98971  10.150   2.389   6.733
32380SOL    HW198972  10.239   2.364   6.756
32380SOL    HW298973  10.142   2.479   6.765
32381SOL     OW98974  10.695   6.399   9.980
32381SOL    HW198975  10.785   6.427   9.995
32381SOL    HW298976  10.695   6.306  10.001
32382SOL     OW98977   7.787  10.168   7.947
32382SOL    HW198978   7.841  10.118   8.008
32382SOL    HW298979   7.849  10.221   7.897
32383SOL     OW98980   8.558   4.925   1.583
32383SOL    HW198981   8.639   4.877   1.597
32383SOL    HW298982   8.529   4.951   1.670
32384SOL     OW98983   3.210  13.548   2.952
32384SOL    HW198984   3.153  13.515   3.021
32384SOL    HW298985   3.150  13.582   2.886
32385SOL     OW98986  10.200   5.388   8.758
32385SOL    HW198987  10.155   5.332   8.822
32385SOL    HW298988  10.281   5.413   8.802
32386SOL     OW98989   0.026  13.343   8.707
32386SOL    HW198990   0.038  13.365   8.615
32386SOL    HW298991  14.837  13.279   8.708
32387SOL     OW98992  11.007   0.907   4.689
32387SOL    HW198993  11.080   0.872   4.638
32387SOL    HW298994  10.972   0.831   4.736
32388SOL     OW98995   2.103  11.771  12.029
32388SOL    HW198996   2.170  11.839  12.037
32388SOL    HW298997   2.146  11.701  11.979
32389SOL     OW98998   2.513   1.778   7.436
32389SOL    HW198999   2.469   1.860   7.458
32389SOL    HW299000   2.546   1.791   7.347
32390SOL     OW99001   9.684  10.020   6.289
32390SOL    HW199002   9.612  10.065   6.334
32390SOL    HW299003   9.678   9.929   6.320
32391SOL     OW99004   6.580   2.058   8.741
32391SOL    HW199005   6.533   1.977   8.724
32391SOL    HW299006   6.539   2.122   8.684
32392SOL     OW99007  12.162   8.546  11.081
32392SOL    HW199008  12.096   8.478  11.094
32392SOL    HW299009  12.233   8.503  11.033
32393SOL     OW99010  10.109  12.100   8.698
32393SOL    HW199011  10.040  12.050   8.655
32393SOL    HW299012  10.077  12.115   8.787
32394SOL     OW99013   7.245  10.297  12.756
32394SOL    HW199014   7.188  10.219  12.756
32394SOL    HW299015   7.328  10.266  12.793
32395SOL     OW99016  11.262  14.288  14.691
32395SOL    HW199017  11.244  14.342  14.614
32395SOL    HW299018  11.328  14.226  14.661
32396SOL     OW99019  10.579   2.707  10.419
32396SOL    HW199020  10.548   2.680  10.333
32396SOL    HW299021  10.631   2.633  10.450
32397SOL     OW99022   6.194   2.477   8.851
32397SOL    HW199023   6.107   2.443   8.833
32397SOL    HW299024   6.228   2.502   8.765
32398SOL     OW99025   9.266   3.167  10.695
32398SOL    HW199026   9.311   3.203  10.618
32398SOL    HW299027   9.246   3.077  10.671
32399SOL     OW99028   8.691   6.892  14.680
32399SOL    HW199029   8.690   6.976  14.633
32399SOL    HW299030   8.746   6.909  14.756
32400SOL     OW99031  13.096   7.966   5.833
32400SOL    HW199032  13.168   7.927   5.881
32400SOL    HW299033  13.092   7.918   5.751
32401SOL     OW99034  11.157  14.268   9.562
32401SOL    HW199035  11.224  14.250   9.497
32401SOL    HW299036  11.166  14.362   9.581
32402SOL     OW99037  14.723  14.061   9.807
32402SOL    HW199038  14.628  14.063   9.794
32402SOL    HW299039  14.758  14.106   9.730
32403SOL     OW99040   7.165  13.942   1.999
32403SOL    HW199041   7.168  13.888   1.919
32403SOL    HW299042   7.255  13.943   2.030
32404SOL     OW99043  11.280  12.627   8.885
32404SOL    HW199044  11.245  12.546   8.848
32404SOL    HW299045  11.313  12.602   8.971
32405SOL     OW99046   7.306   7.760   4.468
32405SOL    HW199047   7.223   7.794   4.499
32405SOL    HW299048   7.372   7.818   4.507
32406SOL     OW99049   1.968   2.206  13.456
32406SOL    HW199050   1.920   2.195  13.374
32406SOL    HW299051   1.969   2.119  13.495
32407SOL     OW99052   9.643  10.744   2.576
32407SOL    HW199053   9.670  10.822   2.622
32407SOL    HW299054   9.668  10.671   2.633
32408SOL     OW99055  10.689   9.404   6.894
32408SOL    HW199056  10.688   9.313   6.862
32408SOL    HW299057  10.767   9.409   6.949
32409SOL     OW99058   1.089   5.371   7.474
32409SOL    HW199059   1.145   5.447   7.490
32409SOL    HW299060   1.063   5.380   7.382
32410SOL     OW99061  12.711   0.715   2.785
32410SOL    HW199062  12.686   0.751   2.870
32410SOL    HW299063  12.747   0.789   2.737
32411SOL     OW99064   7.833   2.678  14.325
32411SOL    HW199065   7.830   2.700  14.232
32411SOL    HW299066   7.742   2.678  14.354
32412SOL     OW99067   2.933   9.127   8.069
32412SOL    HW199068   2.945   9.068   7.994
32412SOL    HW299069   2.924   9.068   8.144
32413SOL     OW99070  10.740   4.407  13.422
32413SOL    HW199071  10.769   4.451  13.342
32413SOL    HW299072  10.677   4.468  13.461
32414SOL     OW99073   4.681   7.670   5.648
32414SOL    HW199074   4.757   7.635   5.695
32414SOL    HW299075   4.689   7.635   5.560
32415SOL     OW99076  13.389   7.251   8.635
32415SOL    HW199077  13.433   7.186   8.581
32415SOL    HW299078  13.455   7.320   8.649
32416SOL     OW99079  11.621  12.062  10.439
32416SOL    HW199080  11.706  12.029  10.469
32416SOL    HW299081  11.560  11.990  10.456
32417SOL     OW99082   5.845   0.695  14.109
32417SOL    HW199083   5.837   0.675  14.015
32417SOL    HW299084   5.916   0.639  14.139
32418SOL     OW99085   7.555  10.040  12.537
32418SOL    HW199086   7.580  10.058  12.446
32418SOL    HW299087   7.521  10.124  12.569
32419SOL     OW99088   9.991  10.304   9.586
32419SOL    HW199089   9.925  10.372   9.598
32419SOL    HW299090  10.038  10.329   9.507
32420SOL     OW99091   5.214  13.851   3.544
32420SOL    HW199092   5.129  13.816   3.516
32420SOL    HW299093   5.197  13.887   3.631
32421SOL     OW99094  13.761  12.656   7.999
32421SOL    HW199095  13.678  12.617   8.028
32421SOL    HW299096  13.763  12.643   7.904
32422SOL     OW99097  11.044   1.449   6.525
32422SOL    HW199098  11.066   1.387   6.455
32422SOL    HW299099  11.116   1.512   6.524
32423SOL     OW99100  13.066   4.337  13.679
32423SOL    HW199101  13.066   4.384  13.596
32423SOL    HW299102  13.081   4.245  13.654
32424SOL     OW99103   6.232  13.992   2.824
32424SOL    HW199104   6.173  13.924   2.792
32424SOL    HW299105   6.249  13.967   2.915
32425SOL     OW99106   9.516  12.115  13.758
32425SOL    HW199107   9.497  12.022  13.763
32425SOL    HW299108   9.601  12.120  13.714
32426SOL     OW99109   4.931   3.408   4.611
32426SOL    HW199110   4.869   3.479   4.625
32426SOL    HW299111   4.985   3.407   4.690
32427SOL     OW99112   9.530  12.531  10.709
32427SOL    HW199113   9.530  12.506  10.801
32427SOL    HW299114   9.501  12.453  10.663
32428SOL     OW99115   3.023   6.401   9.095
32428SOL    HW199116   3.051   6.321   9.052
32428SOL    HW299117   2.944   6.427   9.047
32429SOL     OW99118   4.214   8.709  10.957
32429SOL    HW199119   4.207   8.751  10.871
32429SOL    HW299120   4.206   8.616  10.939
32430SOL     OW99121   6.090   2.806   1.684
32430SOL    HW199122   6.092   2.887   1.736
32430SOL    HW299123   6.066   2.835   1.596
32431SOL     OW99124   5.635   8.379   9.931
32431SOL    HW199125   5.591   8.337   9.857
32431SOL    HW299126   5.571   8.376  10.002
32432SOL     OW99127   9.044   9.714   6.836
32432SOL    HW199128   9.032   9.808   6.829
32432SOL    HW299129   9.060   9.684   6.746
32433SOL     OW99130  12.932   6.913   2.052
32433SOL    HW199131  12.918   6.885   1.961
32433SOL    HW299132  12.846   6.944   2.080
32434SOL     OW99133  13.222   4.253  14.322
32434SOL    HW199134  13.286   4.316  14.354
32434SOL    HW299135  13.273   4.188  14.273
32435SOL     OW99136  10.307   1.796   9.270
32435SOL    HW199137  10.369   1.859   9.306
32435SOL    HW299138  10.222   1.841   9.274
32436SOL     OW99139   9.964  14.168  13.303
32436SOL    HW199140  10.012  14.250  13.293
32436SOL    HW299141   9.918  14.157  13.221
32437SOL     OW99142   7.735   0.028   1.851
32437SOL    HW199143   7.825   0.062   1.848
32437SOL    HW299144   7.734  14.839   1.786
32438SOL     OW99145   2.053   6.946   4.840
32438SOL    HW199146   2.062   6.859   4.802
32438SOL    HW299147   2.134   6.960   4.888
32439SOL     OW99148   0.281   8.421   2.341
32439SOL    HW199149   0.329   8.477   2.280
32439SOL    HW299150   0.343   8.353   2.366
32440SOL     OW99151  10.604   2.666   6.219
32440SOL    HW199152  10.522   2.692   6.178
32440SOL    HW299153  10.602   2.571   6.221
32441SOL     OW99154   3.532   9.528  12.978
32441SOL    HW199155   3.609   9.478  12.952
32441SOL    HW299156   3.518   9.503  13.069
32442SOL     OW99157   1.595   0.992   0.218
32442SOL    HW199158   1.589   0.906   0.178
32442SOL    HW299159   1.686   1.018   0.205
32443SOL     OW99160  11.696   1.995   2.020
32443SOL    HW199161  11.616   1.972   2.067
32443SOL    HW299162  11.767   1.963   2.077
32444SOL     OW99163   3.559   2.583   3.517
32444SOL    HW199164   3.515   2.645   3.575
32444SOL    HW299165   3.609   2.526   3.576
32445SOL     OW99166  12.135  13.868   9.794
32445SOL    HW199167  12.211  13.872   9.736
32445SOL    HW299168  12.145  13.943   9.853
32446SOL     OW99169   9.703   1.026   4.110
32446SOL    HW199170   9.639   1.006   4.178
32446SOL    HW299171   9.775   0.965   4.125
32447SOL     OW99172   5.286  11.031  12.596
32447SOL    HW199173   5.346  11.105  12.586
32447SOL    HW299174   5.313  10.989  12.678
32448SOL     OW99175  13.219   5.167   7.008
32448SOL    HW199176  13.249   5.132   6.924
32448SOL    HW299177  13.185   5.090   7.055
32449SOL     OW99178  11.449   9.790   9.349
32449SOL    HW199179  11.446   9.750   9.262
32449SOL    HW299180  11.403   9.728   9.405
32450SOL     OW99181   2.254  12.915   3.453
32450SOL    HW199182   2.234  12.841   3.395
32450SOL    HW299183   2.269  12.988   3.393
32451SOL     OW99184   3.233  12.860   1.326
32451SOL    HW199185   3.306  12.800   1.337
32451SOL    HW299186   3.159  12.816   1.368
32452SOL     OW99187  13.526   2.743   1.031
32452SOL    HW199188  13.434   2.745   1.005
32452SOL    HW299189  13.552   2.651   1.020
32453SOL     OW99190   6.384   3.253   3.236
32453SOL    HW199191   6.305   3.287   3.194
32453SOL    HW299192   6.447   3.241   3.165
32454SOL     OW99193   6.234   7.979  12.185
32454SOL    HW199194   6.279   7.930  12.254
32454SOL    HW299195   6.252   8.071  12.206
32455SOL     OW99196   1.408   4.023  13.362
32455SOL    HW199197   1.363   4.107  13.378
32455SOL    HW299198   1.498   4.048  13.342
32456SOL     OW99199  12.611  10.631   8.496
32456SOL    HW199200  12.677  10.562   8.505
32456SOL    HW299201  12.659  10.713   8.513
32457SOL     OW99202   6.178   0.595  10.025
32457SOL    HW199203   6.238   0.522  10.043
32457SOL    HW299204   6.150   0.625  10.112
32458SOL     OW99205   3.952   7.111  14.197
32458SOL    HW199206   3.878   7.051  14.203
32458SOL    HW299207   3.918   7.187  14.150
32459SOL     OW99208   4.319   4.376  11.465
32459SOL    HW199209   4.347   4.467  11.470
32459SOL    HW299210   4.308   4.360  11.371
32460SOL     OW99211  12.321   4.997   5.183
32460SOL    HW199212  12.359   5.080   5.212
32460SOL    HW299213  12.233   5.020   5.153
32461SOL     OW99214   3.387   0.186  10.644
32461SOL    HW199215   3.384   0.150  10.556
32461SOL    HW299216   3.395   0.281  10.632
32462SOL     OW99217   9.160  12.261   2.355
32462SOL    HW199218   9.107  12.309   2.292
32462SOL    HW299219   9.122  12.173   2.358
32463SOL     OW99220   0.911  14.530   7.619
32463SOL    HW199221   0.836  14.486   7.581
32463SOL    HW299222   0.876  14.612   7.654
32464SOL     OW99223  10.015   9.740   3.072
32464SOL    HW199224   9.981   9.687   3.144
32464SOL    HW299225  10.098   9.774   3.104
32465SOL     OW99226  13.567  12.761  14.367
32465SOL    HW199227  13.613  12.826  14.314
32465SOL    HW299228  13.610  12.678  14.345
32466SOL     OW99229  14.202   6.208   5.157
32466SOL    HW199230  14.286   6.253   5.150
32466SOL    HW299231  14.145   6.253   5.094
32467SOL     OW99232   4.857   0.158  12.020
32467SOL    HW199233   4.891   0.071  12.042
32467SOL    HW299234   4.768   0.142  11.990
32468SOL     OW99235  11.472   6.748   0.208
32468SOL    HW199236  11.482   6.829   0.159
32468SOL    HW299237  11.392   6.760   0.258
32469SOL     OW99238   1.913  11.214  10.894
32469SOL    HW199239   1.911  11.272  10.970
32469SOL    HW299240   2.000  11.229  10.855
32470SOL     OW99241   4.995   4.213   9.893
32470SOL    HW199242   4.996   4.152   9.819
32470SOL    HW299243   5.033   4.294   9.857
32471SOL     OW99244   5.932   9.789  10.775
32471SOL    HW199245   5.908   9.727  10.844
32471SOL    HW299246   6.012   9.831  10.809
32472SOL     OW99247  13.170  12.301   0.608
32472SOL    HW199248  13.176  12.357   0.685
32472SOL    HW299249  13.245  12.242   0.614
32473SOL     OW99250   4.864  13.647   0.016
32473SOL    HW199251   4.821  13.717  14.848
32473SOL    HW299252   4.958  13.662   0.001
32474SOL     OW99253   1.674   6.182   0.106
32474SOL    HW199254   1.704   6.185   0.015
32474SOL    HW299255   1.675   6.273   0.135
32475SOL     OW99256  11.903   7.363   5.042
32475SOL    HW199257  11.870   7.300   5.106
32475SOL    HW299258  11.977   7.405   5.086
32476SOL     OW99259   5.429  14.862   6.400
32476SOL    HW199260   5.406   0.021   6.318
32476SOL    HW299261   5.428   0.051   6.464
32477SOL     OW99262   5.942   3.061   9.167
32477SOL    HW199263   5.955   2.973   9.204
32477SOL    HW299264   5.960   3.120   9.241
32478SOL     OW99265   8.305   3.234   4.997
32478SOL    HW199266   8.372   3.234   5.065
32478SOL    HW299267   8.234   3.182   5.033
32479SOL     OW99268   4.311   7.247   7.170
32479SOL    HW199269   4.277   7.337   7.175
32479SOL    HW299270   4.405   7.257   7.185
32480SOL     OW99271   2.854   2.156  13.742
32480SOL    HW199272   2.767   2.191  13.722
32480SOL    HW299273   2.838   2.066  13.770
32481SOL     OW99274   1.329   3.118   5.008
32481SOL    HW199275   1.287   3.032   5.012
32481SOL    HW299276   1.326   3.151   5.098
32482SOL     OW99277  14.256   1.124   3.717
32482SOL    HW199278  14.215   1.039   3.701
32482SOL    HW299279  14.310   1.110   3.795
32483SOL     OW99280  10.347  11.189   3.710
32483SOL    HW199281  10.346  11.161   3.618
32483SOL    HW299282  10.422  11.249   3.715
32484SOL     OW99283  14.880   2.275   1.881
32484SOL    HW199284  14.788   2.252   1.869
32484SOL    HW299285   0.016   2.255   1.973
32485SOL     OW99286   5.169   0.815   0.351
32485SOL    HW199287   5.250   0.793   0.307
32485SOL    HW299288   5.117   0.735   0.346
32486SOL     OW99289   0.803   7.841   3.633
32486SOL    HW199290   0.870   7.845   3.565
32486SOL    HW299291   0.851   7.821   3.713
32487SOL     OW99292   2.728   2.095  11.490
32487SOL    HW199293   2.804   2.151  11.471
32487SOL    HW299294   2.652   2.149  11.468
32488SOL     OW99295   4.119   1.817  14.367
32488SOL    HW199296   4.100   1.828  14.274
32488SOL    HW299297   4.033   1.808  14.409
32489SOL     OW99298   1.515  10.604  13.780
32489SOL    HW199299   1.538  10.516  13.750
32489SOL    HW299300   1.492  10.651  13.700
32490SOL     OW99301  11.680   4.559   5.100
32490SOL    HW199302  11.744   4.625   5.076
32490SOL    HW299303  11.690   4.491   5.034
32491SOL     OW99304  14.242   6.417   3.964
32491SOL    HW199305  14.175   6.439   4.028
32491SOL    HW299306  14.324   6.442   4.006
32492SOL     OW99307   6.326   5.892   5.300
32492SOL    HW199308   6.334   5.900   5.205
32492SOL    HW299309   6.254   5.951   5.322
32493SOL     OW99310   4.709   5.459  10.603
32493SOL    HW199311   4.674   5.441  10.516
32493SOL    HW299312   4.787   5.405  10.610
32494SOL     OW99313  12.811   0.839   1.869
32494SOL    HW199314  12.806   0.862   1.962
32494SOL    HW299315  12.766   0.755   1.862
32495SOL     OW99316   7.493   9.621  14.850
32495SOL    HW199317   7.441   9.620  14.770
32495SOL    HW299318   7.494   9.529  14.878
32496SOL     OW99319  13.948  13.753   1.812
32496SOL    HW199320  14.000  13.698   1.753
32496SOL    HW299321  13.932  13.698   1.888
32497SOL     OW99322   2.181   3.290   0.145
32497SOL    HW199323   2.090   3.297   0.120
32497SOL    HW299324   2.217   3.221   0.089
32498SOL     OW99325  11.298   3.685   3.116
32498SOL    HW199326  11.372   3.639   3.155
32498SOL    HW299327  11.242   3.707   3.190
32499SOL     OW99328  11.629   3.345   4.088
32499SOL    HW199329  11.653   3.255   4.070
32499SOL    HW299330  11.552   3.362   4.034
32500SOL     OW99331   3.745   7.757   8.094
32500SOL    HW199332   3.703   7.823   8.149
32500SOL    HW299333   3.689   7.680   8.103
32501SOL     OW99334   0.040   6.226   5.313
32501SOL    HW199335   0.120   6.276   5.330
32501SOL    HW299336  14.880   6.273   5.241
32502SOL     OW99337  10.833  13.573  11.100
32502SOL    HW199338  10.902  13.519  11.062
32502SOL    HW299339  10.752  13.537  11.063
32503SOL     OW99340   3.475   5.875   4.218
32503SOL    HW199341   3.550   5.823   4.247
32503SOL    HW299342   3.399   5.834   4.259
32504SOL     OW99343   6.846   5.924   2.481
32504SOL    HW199344   6.867   5.833   2.498
32504SOL    HW299345   6.819   5.959   2.566
32505SOL     OW99346  10.546  11.935   6.540
32505SOL    HW199347  10.538  12.027   6.514
32505SOL    HW299348  10.504  11.930   6.626
32506SOL     OW99349   2.077   7.713   6.730
32506SOL    HW199350   2.154   7.725   6.674
32506SOL    HW299351   2.111   7.721   6.819
32507SOL     OW99352  14.110   5.608   2.022
32507SOL    HW199353  14.057   5.573   2.094
32507SOL    HW299354  14.056   5.677   1.984
32508SOL     OW99355  10.329   0.629   8.703
32508SOL    HW199356  10.245   0.592   8.732
32508SOL    HW299357  10.312   0.663   8.615
32509SOL     OW99358   6.637  12.579   2.172
32509SOL    HW199359   6.557  12.626   2.196
32509SOL    HW299360   6.648  12.514   2.242
32510SOL     OW99361  13.052   1.778  10.321
32510SOL    HW199362  13.117   1.784  10.251
32510SOL    HW299363  13.086   1.832  10.392
32511SOL     OW99364   3.473  11.826   3.402
32511SOL    HW199365   3.437  11.904   3.360
32511SOL    HW299366   3.537  11.792   3.339
32512SOL     OW99367   1.349   4.982   2.340
32512SOL    HW199368   1.264   5.018   2.315
32512SOL    HW299369   1.413   5.046   2.307
32513SOL     OW99370   2.836   6.160   0.614
32513SOL    HW199371   2.927   6.188   0.615
32513SOL    HW299372   2.829   6.105   0.536
32514SOL     OW99373   3.267   2.773  10.998
32514SOL    HW199374   3.317   2.730  10.929
32514SOL    HW299375   3.209   2.704  11.032
32515SOL     OW99376   7.836   2.583   8.989
32515SOL    HW199377   7.807   2.587   8.898
32515SOL    HW299378   7.928   2.557   8.984
32516SOL     OW99379   2.882   4.213   8.482
32516SOL    HW199380   2.795   4.214   8.442
32516SOL    HW299381   2.911   4.304   8.478
32517SOL     OW99382   1.108   5.452  13.530
32517SOL    HW199383   1.060   5.463  13.448
32517SOL    HW299384   1.122   5.358  13.538
32518SOL     OW99385  13.386   1.030   0.226
32518SOL    HW199386  13.354   1.111   0.267
32518SOL    HW299387  13.359   0.961   0.286
32519SOL     OW99388   6.698   8.371   7.777
32519SOL    HW199389   6.615   8.354   7.822
32519SOL    HW299390   6.750   8.292   7.792
32520SOL     OW99391   1.816  10.193   6.141
32520SOL    HW199392   1.882  10.146   6.091
32520SOL    HW299393   1.759  10.233   6.075
32521SOL     OW99394  13.806   9.416  13.089
32521SOL    HW199395  13.816   9.459  13.004
32521SOL    HW299396  13.785   9.487  13.149
32522SOL     OW99397  12.101  10.263   5.314
32522SOL    HW199398  12.041  10.333   5.287
32522SOL    HW299399  12.051  10.182   5.298
32523SOL     OW99400   8.046  13.229   0.699
32523SOL    HW199401   8.117  13.174   0.666
32523SOL    HW299402   7.972  13.170   0.708
32524SOL     OW99403  14.827   6.252   4.396
32524SOL    HW199404  14.868   6.172   4.363
32524SOL    HW299405  14.791   6.295   4.319
32525SOL     OW99406   3.971   2.577   2.743
32525SOL    HW199407   3.931   2.527   2.815
32525SOL    HW299408   3.924   2.549   2.665
32526SOL     OW99409   5.214   5.499  10.861
32526SOL    HW199410   5.296   5.528  10.820
32526SOL    HW299411   5.235   5.492  10.954
32527SOL     OW99412  10.482   5.855   7.243
32527SOL    HW199413  10.462   5.877   7.334
32527SOL    HW299414  10.548   5.786   7.249
32528SOL     OW99415   7.976  11.070  14.542
32528SOL    HW199416   7.966  11.106  14.454
32528SOL    HW299417   8.059  11.105  14.573
32529SOL     OW99418   6.790   4.767  12.740
32529SOL    HW199419   6.837   4.699  12.692
32529SOL    HW299420   6.798   4.846  12.686
32530SOL     OW99421  14.393  12.017   7.540
32530SOL    HW199422  14.369  12.019   7.633
32530SOL    HW299423  14.309  12.018   7.494
32531SOL     OW99424   1.732   3.281  11.522
32531SOL    HW199425   1.799   3.264  11.588
32531SOL    HW299426   1.780   3.313  11.446
32532SOL     OW99427  10.402   4.643   9.062
32532SOL    HW199428  10.378   4.736   9.067
32532SOL    HW299429  10.362   4.603   9.139
32533SOL     OW99430   1.376   2.170  11.518
32533SOL    HW199431   1.468   2.142  11.518
32533SOL    HW299432   1.327   2.091  11.499
32534SOL     OW99433  11.225   0.559   5.924
32534SOL    HW199434  11.252   0.501   5.996
32534SOL    HW299435  11.138   0.589   5.948
32535SOL     OW99436   9.823  13.171  11.814
32535SOL    HW199437   9.877  13.174  11.734
32535SOL    HW299438   9.793  13.261  11.826
32536SOL     OW99439   2.537   2.599   3.109
32536SOL    HW199440   2.609   2.597   3.046
32536SOL    HW299441   2.471   2.540   3.073
32537SOL     OW99442  14.373   9.776   0.193
32537SOL    HW199443  14.282   9.757   0.170
32537SOL    HW299444  14.394   9.716   0.264
32538SOL     OW99445  11.126  11.426   9.777
32538SOL    HW199446  11.187  11.429   9.703
32538SOL    HW299447  11.040  11.427   9.736
32539SOL     OW99448   8.642   3.751   3.786
32539SOL    HW199449   8.575   3.764   3.719
32539SOL    HW299450   8.647   3.655   3.796
32540SOL     OW99451   7.264   0.787  13.026
32540SOL    HW199452   7.311   0.811  12.946
32540SOL    HW299453   7.216   0.867  13.050
32541SOL     OW99454  11.285  11.780  13.214
32541SOL    HW199455  11.318  11.725  13.143
32541SOL    HW299456  11.200  11.810  13.184
32542SOL     OW99457  13.582   6.265  14.567
32542SOL    HW199458  13.519   6.333  14.593
32542SOL    HW299459  13.663   6.289  14.613
32543SOL     OW99460  11.712   0.833   4.204
32543SOL    HW199461  11.651   0.775   4.250
32543SOL    HW299462  11.695   0.920   4.241
32544SOL     OW99463   6.105   3.532  10.706
32544SOL    HW199464   6.056   3.607  10.739
32544SOL    HW299465   6.177   3.570  10.656
32545SOL     OW99466   4.070   7.453   5.833
32545SOL    HW199467   4.108   7.419   5.752
32545SOL    HW299468   4.121   7.532   5.853
32546SOL     OW99469   8.076   7.196   2.035
32546SOL    HW199470   7.981   7.196   2.043
32546SOL    HW299471   8.102   7.285   2.059
32547SOL     OW99472  14.398  13.717  13.545
32547SOL    HW199473  14.378  13.770  13.467
32547SOL    HW299474  14.313  13.699  13.584
32548SOL     OW99475  11.681  13.536  12.697
32548SOL    HW199476  11.671  13.440  12.696
32548SOL    HW299477  11.604  13.568  12.651
32549SOL     OW99478  14.645   0.725   0.090
32549SOL    HW199479  14.629   0.641   0.133
32549SOL    HW299480  14.692   0.701   0.010
32550SOL     OW99481   6.453   8.887  11.096
32550SOL    HW199482   6.398   8.844  11.162
32550SOL    HW299483   6.540   8.849  11.109
32551SOL     OW99484   2.716  12.940  13.206
32551SOL    HW199485   2.647  12.990  13.250
32551SOL    HW299486   2.786  13.004  13.192
32552SOL     OW99487   7.327  13.385  12.222
32552SOL    HW199488   7.295  13.367  12.310
32552SOL    HW299489   7.394  13.452  12.235
32553SOL     OW99490   7.318   2.188   4.589
32553SOL    HW199491   7.334   2.093   4.596
32553SOL    HW299492   7.330   2.207   4.496
32554SOL     OW99493  11.440   2.066   8.140
32554SOL    HW199494  11.526   2.105   8.121
32554SOL    HW299495  11.377   2.135   8.118
32555SOL     OW99496   3.609   1.940  12.079
32555SOL    HW199497   3.592   2.035  12.083
32555SOL    HW299498   3.527   1.903  12.047
32556SOL     OW99499   3.849  13.495   7.822
32556SOL    HW199500   3.863  13.427   7.756
32556SOL    HW299501   3.859  13.449   7.906
32557SOL     OW99502  10.538  13.214  10.331
32557SOL    HW199503  10.609  13.278  10.324
32557SOL    HW299504  10.470  13.248  10.272
32558SOL     OW99505   2.356   6.571   7.450
32558SOL    HW199506   2.390   6.608   7.531
32558SOL    HW299507   2.423   6.508   7.422
32559SOL     OW99508   7.008   9.487  14.662
32559SOL    HW199509   6.981   9.453  14.747
32559SOL    HW299510   7.049   9.572  14.681
32560SOL     OW99511   3.508   8.685   5.695
32560SOL    HW199512   3.561   8.681   5.615
32560SOL    HW299513   3.434   8.740   5.671
32561SOL     OW99514   5.954   4.249   7.993
32561SOL    HW199515   5.917   4.315   8.051
32561SOL    HW299516   5.887   4.181   7.989
32562SOL     OW99517   0.288   9.607  10.807
32562SOL    HW199518   0.308   9.685  10.754
32562SOL    HW299519   0.335   9.536  10.763
32563SOL     OW99520  10.486   5.195   5.980
32563SOL    HW199521  10.515   5.155   5.897
32563SOL    HW299522  10.451   5.122   6.031
32564SOL     OW99523   4.726   6.392   8.278
32564SOL    HW199524   4.804   6.440   8.252
32564SOL    HW299525   4.657   6.458   8.281
32565SOL     OW99526   1.770   5.496   2.696
32565SOL    HW199527   1.730   5.419   2.738
32565SOL    HW299528   1.792   5.466   2.607
32566SOL     OW99529   9.701   7.775  11.970
32566SOL    HW199530   9.682   7.815  11.885
32566SOL    HW299531   9.628   7.802  12.026
32567SOL     OW99532   9.008   8.665   7.918
32567SOL    HW199533   9.055   8.741   7.882
32567SOL    HW299534   8.918   8.696   7.929
32568SOL     OW99535   8.245   9.075   6.433
32568SOL    HW199536   8.219   9.145   6.374
32568SOL    HW299537   8.208   8.996   6.394
32569SOL     OW99538   8.898   2.998  10.700
32569SOL    HW199539   8.819   3.023  10.651
32569SOL    HW299540   8.921   3.077  10.749
32570SOL     OW99541  11.973  10.971  14.737
32570SOL    HW199542  11.934  10.923  14.664
32570SOL    HW299543  11.955  11.063  14.717
32571SOL     OW99544   8.345   8.395   0.378
32571SOL    HW199545   8.312   8.478   0.343
32571SOL    HW299546   8.376   8.348   0.301
32572SOL     OW99547   1.096  14.536   2.364
32572SOL    HW199548   1.038  14.542   2.440
32572SOL    HW299549   1.121  14.626   2.345
32573SOL     OW99550  10.090   3.668   7.264
32573SOL    HW199551  10.023   3.732   7.287
32573SOL    HW299552  10.068   3.591   7.317
32574SOL     OW99553  10.160   4.939  14.633
32574SOL    HW199554  10.133   5.014  14.686
32574SOL    HW299555  10.222   4.975  14.570
32575SOL     OW99556   7.123   8.202   9.946
32575SOL    HW199557   7.212   8.208   9.910
32575SOL    HW299558   7.096   8.293   9.958
32576SOL     OW99559   7.077   5.904  11.965
32576SOL    HW199560   7.156   5.958  11.956
32576SOL    HW299561   7.109   5.821  12.000
32577SOL     OW99562   2.933  12.172   1.440
32577SOL    HW199563   2.908  12.195   1.529
32577SOL    HW299564   3.010  12.225   1.422
32578SOL     OW99565   9.207  12.085  11.170
32578SOL    HW199566   9.238  12.093  11.260
32578SOL    HW299567   9.129  12.140  11.167
32579SOL     OW99568   5.171  10.017   2.981
32579SOL    HW199569   5.230  10.017   2.906
32579SOL    HW299570   5.084  10.028   2.943
32580SOL     OW99571  10.412   2.699   2.668
32580SOL    HW199572  10.444   2.775   2.618
32580SOL    HW299573  10.405   2.629   2.603
32581SOL     OW99574   9.953  14.019   8.130
32581SOL    HW199575   9.986  14.018   8.220
32581SOL    HW299576   9.865  13.982   8.137
32582SOL     OW99577   0.651  10.655   3.721
32582SOL    HW199578   0.580  10.664   3.657
32582SOL    HW299579   0.730  10.677   3.672
32583SOL     OW99580  10.716   7.113   8.813
32583SOL    HW199581  10.809   7.101   8.836
32583SOL    HW299582  10.716   7.185   8.751
32584SOL     OW99583  11.052   1.312   3.208
32584SOL    HW199584  10.970   1.356   3.186
32584SOL    HW299585  11.062   1.244   3.141
32585SOL     OW99586  13.037  11.439   6.865
32585SOL    HW199587  13.099  11.395   6.807
32585SOL    HW299588  13.087  11.461   6.943
32586SOL     OW99589  13.606  12.392   7.807
32586SOL    HW199590  13.523  12.431   7.836
32586SOL    HW299591  13.652  12.463   7.763
32587SOL     OW99592  14.686   9.245   9.982
32587SOL    HW199593  14.683   9.177  10.049
32587SOL    HW299594  14.631   9.316  10.017
32588SOL     OW99595   7.229   3.195   9.570
32588SOL    HW199596   7.294   3.222   9.505
32588SOL    HW299597   7.159   3.154   9.520
32589SOL     OW99598  14.120   7.865   4.123
32589SOL    HW199599  14.057   7.893   4.190
32589SOL    HW299600  14.118   7.769   4.127
32590SOL     OW99601  13.325   5.734   5.396
32590SOL    HW199602  13.276   5.731   5.314
32590SOL    HW299603  13.262   5.706   5.462
32591SOL     OW99604  12.802   3.710  12.214
32591SOL    HW199605  12.867   3.762  12.166
32591SOL    HW299606  12.853   3.659  12.276
32592SOL     OW99607  13.217   4.482  11.278
32592SOL    HW199608  13.182   4.456  11.193
32592SOL    HW299609  13.240   4.574  11.267
32593SOL     OW99610   8.141   3.953   1.572
32593SOL    HW199611   8.103   4.040   1.570
32593SOL    HW299612   8.141   3.928   1.664
32594SOL     OW99613  13.514  12.688   2.239
32594SOL    HW199614  13.527  12.701   2.333
32594SOL    HW299615  13.574  12.618   2.216
32595SOL     OW99616   3.430   1.222   0.763
32595SOL    HW199617   3.367   1.269   0.708
32595SOL    HW299618   3.462   1.152   0.706
32596SOL     OW99619  14.714   6.218   1.783
32596SOL    HW199620  14.687   6.175   1.864
32596SOL    HW299621  14.633   6.227   1.733
32597SOL     OW99622  14.217   6.792   4.788
32597SOL    HW199623  14.126   6.769   4.802
32597SOL    HW299624  14.224   6.805   4.693
32598SOL     OW99625   8.474   2.660   1.399
32598SOL    HW199626   8.516   2.701   1.475
32598SOL    HW299627   8.428   2.584   1.435
32599SOL     OW99628  11.666   9.117   4.275
32599SOL    HW199629  11.688   9.199   4.230
32599SOL    HW299630  11.658   9.053   4.205
32600SOL     OW99631  12.905   5.868  10.926
32600SOL    HW199632  12.874   5.788  10.884
32600SOL    HW299633  12.828   5.903  10.970
32601SOL     OW99634   5.991   8.812   0.158
32601SOL    HW199635   5.967   8.723   0.185
32601SOL    HW299636   6.015   8.856   0.239
32602SOL     OW99637   6.481   7.065  14.049
32602SOL    HW199638   6.460   7.022  13.966
32602SOL    HW299639   6.531   7.143  14.023
32603SOL     OW99640   6.089  10.882  10.706
32603SOL    HW199641   6.172  10.899  10.751
32603SOL    HW299642   6.107  10.899  10.614
32604SOL     OW99643  13.477   1.317  14.430
32604SOL    HW199644  13.464   1.366  14.512
32604SOL    HW299645  13.396   1.268  14.418
32605SOL     OW99646   2.732   1.115   7.551
32605SOL    HW199647   2.780   1.064   7.486
32605SOL    HW299648   2.742   1.206   7.523
32606SOL     OW99649   9.824  14.785   0.891
32606SOL    HW199650   9.904  14.836   0.904
32606SOL    HW299651   9.849  14.718   0.828
32607SOL     OW99652  10.417   4.809   2.897
32607SOL    HW199653  10.511   4.807   2.879
32607SOL    HW299654  10.379   4.748   2.835
32608SOL     OW99655   8.836   5.290  12.077
32608SOL    HW199656   8.879   5.318  12.158
32608SOL    HW299657   8.825   5.370  12.027
32609SOL     OW99658   8.603   4.068  10.748
32609SOL    HW199659   8.651   4.142  10.713
32609SOL    HW299660   8.512   4.098  10.751
32610SOL     OW99661   3.840   0.409   3.226
32610SOL    HW199662   3.814   0.317   3.213
32610SOL    HW299663   3.760   0.452   3.255
32611SOL     OW99664  12.215   0.881   4.324
32611SOL    HW199665  12.214   0.918   4.413
32611SOL    HW299666  12.122   0.868   4.303
32612SOL     OW99667   3.404  10.209  12.030
32612SOL    HW199668   3.409  10.297  12.068
32612SOL    HW299669   3.311  10.194  12.015
32613SOL     OW99670   1.498   5.842   0.488
32613SOL    HW199671   1.456   5.915   0.534
32613SOL    HW299672   1.564   5.883   0.432
32614SOL     OW99673   1.473   8.717   3.053
32614SOL    HW199674   1.552   8.679   3.093
32614SOL    HW299675   1.457   8.796   3.104
32615SOL     OW99676   0.971   6.844  12.427
32615SOL    HW199677   0.963   6.816  12.336
32615SOL    HW299678   1.065   6.856  12.441
32616SOL     OW99679   7.826  13.750   3.191
32616SOL    HW199680   7.838  13.685   3.122
32616SOL    HW299681   7.895  13.731   3.255
32617SOL     OW99682   5.261   3.503   2.036
32617SOL    HW199683   5.176   3.465   2.012
32617SOL    HW299684   5.240   3.579   2.089
32618SOL     OW99685  10.040   3.828   7.509
32618SOL    HW199686  10.099   3.886   7.558
32618SOL    HW299687  10.036   3.867   7.421
32619SOL     OW99688  10.538   0.276  13.017
32619SOL    HW199689  10.609   0.223  13.052
32619SOL    HW299690  10.514   0.233  12.935
32620SOL     OW99691  11.013  11.869   7.124
32620SOL    HW199692  11.054  11.794   7.081
32620SOL    HW299693  10.968  11.916   7.054
32621SOL     OW99694   7.417   2.634   5.906
32621SOL    HW199695   7.381   2.638   5.818
32621SOL    HW299696   7.498   2.684   5.901
32622SOL     OW99697  10.135   6.121  13.773
32622SOL    HW199698  10.080   6.199  13.783
32622SOL    HW299699  10.191   6.140  13.698
32623SOL     OW99700   3.202   4.681   8.421
32623SOL    HW199701   3.247   4.757   8.384
32623SOL    HW299702   3.112   4.689   8.388
32624SOL     OW99703   4.633   2.363  13.058
32624SOL    HW199704   4.656   2.309  12.983
32624SOL    HW299705   4.626   2.301  13.131
32625SOL     OW99706  14.098  14.463   9.881
32625SOL    HW199707  14.103  14.524   9.807
32625SOL    HW299708  14.077  14.379   9.841
32626SOL     OW99709   4.186  10.853   1.927
32626SOL    HW199710   4.223  10.779   1.878
32626SOL    HW299711   4.162  10.816   2.012
32627SOL     OW99712   9.084   1.761   6.164
32627SOL    HW199713   9.106   1.770   6.257
32627SOL    HW299714   9.159   1.716   6.126
32628SOL     OW99715   0.547   0.970  11.608
32628SOL    HW199716   0.597   0.951  11.529
32628SOL    HW299717   0.610   1.008  11.668
32629SOL     OW99718   2.467  11.893   1.337
32629SOL    HW199719   2.377  11.912   1.310
32629SOL    HW299720   2.508  11.979   1.348
32630SOL     OW99721  11.359  14.101   0.650
32630SOL    HW199722  11.298  14.036   0.617
32630SOL    HW299723  11.321  14.132   0.732
32631SOL     OW99724   2.530  12.416  12.983
32631SOL    HW199725   2.525  12.348  12.916
32631SOL    HW299726   2.517  12.498  12.935
32632SOL     OW99727   7.909  12.181   8.066
32632SOL    HW199728   7.974  12.168   7.997
32632SOL    HW299729   7.911  12.099   8.116
32633SOL     OW99730   9.367  13.494   5.257
32633SOL    HW199731   9.384  13.587   5.247
32633SOL    HW299732   9.280  13.480   5.219
32634SOL     OW99733   7.976  12.786  12.029
32634SOL    HW199734   7.952  12.732  12.104
32634SOL    HW299735   8.068  12.810  12.046
32635SOL     OW99736   9.132  10.194   8.085
32635SOL    HW199737   9.137  10.289   8.072
32635SOL    HW299738   9.050  10.180   8.132
32636SOL     OW99739   7.044   0.069   8.379
32636SOL    HW199740   6.954   0.070   8.410
32636SOL    HW299741   7.053  14.869   8.331
32637SOL     OW99742   4.816   3.812   7.179
32637SOL    HW199743   4.893   3.786   7.127
32637SOL    HW299744   4.742   3.799   7.119
32638SOL     OW99745   3.773   9.908  11.909
32638SOL    HW199746   3.861   9.922  11.945
32638SOL    HW299747   3.714   9.924  11.983
32639SOL     OW99748   7.080   0.702   5.375
32639SOL    HW199749   7.051   0.778   5.326
32639SOL    HW299750   7.134   0.653   5.313
32640SOL     OW99751  14.318   2.539   2.447
32640SOL    HW199752  14.342   2.493   2.367
32640SOL    HW299753  14.375   2.615   2.450
32641SOL     OW99754   6.887  11.691   1.115
32641SOL    HW199755   6.973  11.671   1.150
32641SOL    HW299756   6.902  11.763   1.053
32642SOL     OW99757   6.722   9.874   4.907
32642SOL    HW199758   6.680   9.805   4.959
32642SOL    HW299759   6.742   9.942   4.970
32643SOL     OW99760   0.325   4.976   7.432
32643SOL    HW199761   0.318   4.900   7.490
32643SOL    HW299762   0.416   5.005   7.440
32644SOL     OW99763   9.964   5.559  13.243
32644SOL    HW199764   9.880   5.524  13.214
32644SOL    HW299765  10.016   5.565  13.163
32645SOL     OW99766  13.913   9.630   0.732
32645SOL    HW199767  13.865   9.569   0.788
32645SOL    HW299768  13.847   9.693   0.703
32646SOL     OW99769   5.055   4.639  13.640
32646SOL    HW199770   5.079   4.594  13.559
32646SOL    HW299771   4.960   4.646  13.636
32647SOL     OW99772  10.504  13.643   7.766
32647SOL    HW199773  10.499  13.608   7.855
32647SOL    HW299774  10.518  13.737   7.778
32648SOL     OW99775  13.410  10.167   2.973
32648SOL    HW199776  13.349  10.223   3.021
32648SOL    HW299777  13.398  10.192   2.882
32649SOL     OW99778   3.458   8.356  14.869
32649SOL    HW199779   3.411   8.274  14.876
32649SOL    HW299780   3.546   8.331  14.840
32650SOL     OW99781  13.943   0.893   8.250
32650SOL    HW199782  13.966   0.862   8.162
32650SOL    HW299783  13.848   0.906   8.246
32651SOL     OW99784   5.561   3.105   2.157
32651SOL    HW199785   5.572   3.192   2.194
32651SOL    HW299786   5.649   3.078   2.131
32652SOL     OW99787  10.538   4.912  11.491
32652SOL    HW199788  10.534   4.817  11.502
32652SOL    HW299789  10.560   4.924  11.399
32653SOL     OW99790  13.296   7.921   0.574
32653SOL    HW199791  13.221   7.980   0.579
32653SOL    HW299792  13.271   7.854   0.510
32654SOL     OW99793  12.697   8.836  11.922
32654SOL    HW199794  12.703   8.740  11.927
32654SOL    HW299795  12.663   8.853  11.834
32655SOL     OW99796  14.697   2.530   7.451
32655SOL    HW199797  14.683   2.553   7.543
32655SOL    HW299798  14.643   2.593   7.402
32656SOL     OW99799   2.122   9.142   4.516
32656SOL    HW199800   2.081   9.128   4.601
32656SOL    HW299801   2.175   9.221   4.528
32657SOL     OW99802   5.944  12.329   9.737
32657SOL    HW199803   5.981  12.390   9.674
32657SOL    HW299804   5.852  12.320   9.711
32658SOL     OW99805   3.273   0.734  12.490
32658SOL    HW199806   3.361   0.750  12.456
32658SOL    HW299807   3.285   0.666  12.557
32659SOL     OW99808  12.647   2.972  12.428
32659SOL    HW199809  12.683   2.993  12.341
32659SOL    HW299810  12.553   2.993  12.420
32660SOL     OW99811   9.956   2.059  11.073
32660SOL    HW199812   9.886   2.102  11.025
32660SOL    HW299813  10.034   2.073  11.019
32661SOL     OW99814   6.164   9.814   2.108
32661SOL    HW199815   6.094   9.805   2.044
32661SOL    HW299816   6.228   9.747   2.084
32662SOL     OW99817   2.310   6.426  12.592
32662SOL    HW199818   2.296   6.519  12.574
32662SOL    HW299819   2.313   6.385  12.505
32663SOL     OW99820   7.846  13.692   6.552
32663SOL    HW199821   7.769  13.746   6.564
32663SOL    HW299822   7.896  13.702   6.633
32664SOL     OW99823   3.160   2.705   5.914
32664SOL    HW199824   3.180   2.799   5.911
32664SOL    HW299825   3.152   2.680   5.822
32665SOL     OW99826   4.296   8.622   2.383
32665SOL    HW199827   4.244   8.601   2.460
32665SOL    HW299828   4.270   8.557   2.317
32666SOL     OW99829   4.772   7.892   3.575
32666SOL    HW199830   4.703   7.948   3.610
32666SOL    HW299831   4.734   7.852   3.498
32667SOL     OW99832   4.016   9.518   0.728
32667SOL    HW199833   4.026   9.518   0.823
32667SOL    HW299834   4.016   9.425   0.705
32668SOL     OW99835  10.292   4.159  10.296
32668SOL    HW199836  10.329   4.125  10.378
32668SOL    HW299837  10.319   4.251  10.294
32669SOL     OW99838   5.698   8.203   1.707
32669SOL    HW199839   5.616   8.157   1.690
32669SOL    HW299840   5.752   8.140   1.754
32670SOL     OW99841  10.716  14.205   0.965
32670SOL    HW199842  10.675  14.227   0.882
32670SOL    HW299843  10.805  14.239   0.958
32671SOL     OW99844  14.432  10.083   4.052
32671SOL    HW199845  14.526  10.068   4.066
32671SOL    HW299846  14.428  10.171   4.014
32672SOL     OW99847  12.631   9.066  10.407
32672SOL    HW199848  12.540   9.039  10.416
32672SOL    HW299849  12.674   9.034  10.487
32673SOL     OW99850   7.365   1.951   8.707
32673SOL    HW199851   7.281   1.979   8.742
32673SOL    HW299852   7.344   1.914   8.621
32674SOL     OW99853   7.268   6.958   7.784
32674SOL    HW199854   7.324   7.017   7.835
32674SOL    HW299855   7.202   7.015   7.745
32675SOL     OW99856   6.169   0.604   2.654
32675SOL    HW199857   6.083   0.572   2.626
32675SOL    HW299858   6.153   0.643   2.740
32676SOL     OW99859  10.457   8.785  13.299
32676SOL    HW199860  10.476   8.699  13.262
32676SOL    HW299861  10.521   8.795  13.369
32677SOL     OW99862   9.183   3.883   6.113
32677SOL    HW199863   9.145   3.801   6.143
32677SOL    HW299864   9.243   3.858   6.043
32678SOL     OW99865   9.849  10.393   8.955
32678SOL    HW199866   9.821  10.478   8.922
32678SOL    HW299867   9.809  10.329   8.895
32679SOL     OW99868   1.219  14.138   0.892
32679SOL    HW199869   1.217  14.158   0.799
32679SOL    HW299870   1.244  14.220   0.934
32680SOL     OW99871   3.858  14.583   0.359
32680SOL    HW199872   3.802  14.629   0.422
32680SOL    HW299873   3.809  14.586   0.277
32681SOL     OW99874   5.938  12.528  11.819
32681SOL    HW199875   5.935  12.488  11.732
32681SOL    HW299876   5.856  12.577  11.826
32682SOL     OW99877  12.925   6.413   7.840
32682SOL    HW199878  12.883   6.328   7.855
32682SOL    HW299879  12.981   6.399   7.764
32683SOL     OW99880   1.569  14.579   6.134
32683SOL    HW199881   1.594  14.498   6.178
32683SOL    HW299882   1.477  14.591   6.156
32684SOL     OW99883   9.363   3.754   6.483
32684SOL    HW199884   9.415   3.692   6.533
32684SOL    HW299885   9.421   3.783   6.413
32685SOL     OW99886   7.716  14.660  11.884
32685SOL    HW199887   7.706  14.746  11.843
32685SOL    HW299888   7.696  14.598  11.814
32686SOL     OW99889   9.670   9.385   0.575
32686SOL    HW199890   9.749   9.367   0.524
32686SOL    HW299891   9.599   9.342   0.527
32687SOL     OW99892  12.094   5.637  13.851
32687SOL    HW199893  12.110   5.660  13.759
32687SOL    HW299894  12.007   5.597  13.851
32688SOL     OW99895   0.954   6.523   8.986
32688SOL    HW199896   0.882   6.486   9.037
32688SOL    HW299897   0.968   6.610   9.023
32689SOL     OW99898  11.762   1.282   8.221
32689SOL    HW199899  11.844   1.293   8.270
32689SOL    HW299900  11.789   1.243   8.138
32690SOL     OW99901   4.927  11.886   5.477
32690SOL    HW199902   4.896  11.963   5.524
32690SOL    HW299903   4.991  11.845   5.536
32691SOL     OW99904   4.396   9.384   0.286
32691SOL    HW199905   4.382   9.334   0.367
32691SOL    HW299906   4.409   9.474   0.317
32692SOL     OW99907   2.565  12.754   1.866
32692SOL    HW199908   2.527  12.825   1.918
32692SOL    HW299909   2.553  12.676   1.921
32693SOL     OW99910   9.182   3.795   9.270
32693SOL    HW199911   9.095   3.800   9.231
32693SOL    HW299912   9.241   3.818   9.198
32694SOL     OW99913   4.134   1.600  10.575
32694SOL    HW199914   4.171   1.688  10.568
32694SOL    HW299915   4.180   1.560  10.649
32695SOL     OW99916   3.165   4.844  10.564
32695SOL    HW199917   3.251   4.872  10.597
32695SOL    HW299918   3.112   4.835  10.643
32696SOL     OW99919   9.141   6.777  14.144
32696SOL    HW199920   9.221   6.801  14.191
32696SOL    HW299921   9.113   6.696  14.186
32697SOL     OW99922   0.422   9.948   2.185
32697SOL    HW199923   0.455   9.964   2.273
32697SOL    HW299924   0.406   9.854   2.181
32698SOL     OW99925  12.912  11.823  13.591
32698SOL    HW199926  12.919  11.808  13.497
32698SOL    HW299927  12.965  11.900  13.607
32699SOL     OW99928  10.797   1.325   1.580
32699SOL    HW199929  10.869   1.387   1.585
32699SOL    HW299930  10.722   1.373   1.617
32700SOL     OW99931   5.363  11.313   9.195
32700SOL    HW199932   5.296  11.253   9.161
32700SOL    HW299933   5.387  11.276   9.280
32701SOL     OW99934   6.818   7.445   6.974
32701SOL    HW199935   6.726   7.459   6.997
32701SOL    HW299936   6.818   7.447   6.878
32702SOL     OW99937   8.637   1.135   9.017
32702SOL    HW199938   8.563   1.079   8.993
32702SOL    HW299939   8.622   1.216   8.967
32703SOL     OW99940   0.109   3.445  11.994
32703SOL    HW199941   0.140   3.535  11.985
32703SOL    HW299942   0.021   3.454  12.032
32704SOL     OW99943   6.227   4.046  12.922
32704SOL    HW199944   6.303   4.036  12.865
32704SOL    HW299945   6.255   4.008  13.005
32705SOL     OW99946   1.453   9.389   6.316
32705SOL    HW199947   1.449   9.357   6.406
32705SOL    HW299948   1.407   9.473   6.319
32706SOL     OW99949  11.788   5.667  14.147
32706SOL    HW199950  11.883   5.676  14.149
32706SOL    HW299951  11.755   5.754  14.168
32707SOL     OW99952   5.971   2.768   4.735
32707SOL    HW199953   5.981   2.769   4.830
32707SOL    HW299954   5.887   2.725   4.720
32708SOL     OW99955   5.828   9.311   2.528
32708SOL    HW199956   5.858   9.357   2.450
32708SOL    HW299957   5.793   9.228   2.495
32709SOL     OW99958   8.677   3.395  10.999
32709SOL    HW199959   8.634   3.472  10.961
32709SOL    HW299960   8.606   3.348  11.043
32710SOL     OW99961   6.832  14.126   3.102
32710SOL    HW199962   6.849  14.032   3.101
32710SOL    HW299963   6.827  14.148   3.195
32711SOL     OW99964   2.131   7.707   3.466
32711SOL    HW199965   2.090   7.775   3.413
32711SOL    HW299966   2.174   7.650   3.402
32712SOL     OW99967   5.991   0.351  11.857
32712SOL    HW199968   6.017   0.442  11.872
32712SOL    HW299969   6.066   0.300  11.889
32713SOL     OW99970  11.093   3.240   3.281
32713SOL    HW199971  11.109   3.158   3.234
32713SOL    HW299972  11.031   3.287   3.225
32714SOL     OW99973  11.144   9.238   7.873
32714SOL    HW199974  11.201   9.172   7.913
32714SOL    HW299975  11.126   9.300   7.944
32715SOL     OW99976   1.536   3.379   2.823
32715SOL    HW199977   1.547   3.444   2.753
32715SOL    HW299978   1.625   3.351   2.844
32716SOL     OW99979   1.456   5.672   3.817
32716SOL    HW199980   1.545   5.637   3.824
32716SOL    HW299981   1.451   5.704   3.726
32717SOL     OW99982  11.865  11.833   9.786
32717SOL    HW199983  11.802  11.855   9.718
32717SOL    HW299984  11.886  11.916   9.828
32718SOL     OW99985  14.015   8.119   8.004
32718SOL    HW199986  14.046   8.208   8.019
32718SOL    HW299987  14.094   8.065   8.003
32719SOL     OW99988   6.488   0.277  13.977
32719SOL    HW199989   6.471   0.236  14.062
32719SOL    HW299990   6.540   0.212  13.930
32720SOL     OW99991   6.054   9.449   6.193
32720SOL    HW199992   6.051   9.353   6.192
32720SOL    HW299993   6.023   9.474   6.106
32721SOL     OW99994  11.241   0.187  13.025
32721SOL    HW199995  11.167   0.211  13.081
32721SOL    HW299996  11.211   0.108  12.979
32722SOL     OW99997  11.514   7.316   6.847
32722SOL    HW199998  11.497   7.286   6.758
32722SOL    HW299999  11.454   7.265   6.902
32723SOL     OW    0   8.886   7.365  12.686
32723SOL    HW1    1   8.952   7.358  12.617
32723SOL    HW2    2   8.841   7.447  12.667
32724SOL     OW    3   8.920   8.210   2.041
32724SOL    HW1    4   8.835   8.204   2.084
32724SOL    HW2    5   8.904   8.263   1.963
32725SOL     OW    6  11.839  13.371  13.297
32725SOL    HW1    7  11.819  13.462  13.317
32725SOL    HW2    8  11.754  13.327  13.293
32726SOL     OW    9   3.736   8.475   6.541
32726SOL    HW1   10   3.763   8.550   6.488
32726SOL    HW2   11   3.793   8.403   6.512
32727SOL     OW   12   1.153   3.774   1.743
32727SOL    HW1   13   1.175   3.827   1.820
32727SOL    HW2   14   1.130   3.689   1.779
32728SOL     OW   15   7.390   2.598   1.280
32728SOL    HW1   16   7.443   2.526   1.315
32728SOL    HW2   17   7.306   2.558   1.258
32729SOL     OW   18   9.909  13.916   5.865
32729SOL    HW1   19  10.004  13.900   5.862
32729SOL    HW2   20   9.870  13.829   5.859
32730SOL     OW   21   5.587   0.686   5.313
32730SOL    HW1   22   5.666   0.667   5.263
32730SOL    HW2   23   5.538   0.603   5.313
32731SOL     OW   24   8.172   5.457   0.394
32731SOL    HW1   25   8.138   5.371   0.371
32731SOL    HW2   26   8.095   5.514   0.396
32732SOL     OW   27   4.765  13.116   6.361
32732SOL    HW1   28   4.842  13.155   6.402
32732SOL    HW2   29   4.728  13.059   6.429
32733SOL     OW   30   6.157   6.117   7.089
32733SOL    HW1   31   6.102   6.050   7.129
32733SOL    HW2   32   6.096   6.171   7.038
32734SOL     OW   33  14.591   0.847  13.984
32734SOL    HW1   34  14.497   0.864  13.992
32734SOL    HW2   35  14.611   0.789  14.057
32735SOL     OW   36   9.018   8.865  13.004
32735SOL    HW1   37   8.963   8.943  12.995
32735SOL    HW2   38   9.023   8.829  12.916
32736SOL     OW   39   1.423  10.774   1.077
32736SOL    HW1   40   1.477  10.695   1.088
32736SOL    HW2   41   1.365  10.753   1.004
32737SOL     OW   42   5.625  11.239  13.600
32737SOL    HW1   43   5.539  11.276  13.620
32737SOL    HW2   44   5.666  11.226  13.686
32738SOL     OW   45   5.362   5.726   3.650
32738SOL    HW1   46   5.436   5.713   3.709
32738SOL    HW2   47   5.393   5.790   3.586
32739SOL     OW   48   4.788  13.153   0.352
32739SOL    HW1   49   4.766  13.208   0.426
32739SOL    HW2   50   4.813  13.069   0.391
32740SOL     OW   51   7.149  14.605   8.470
32740SOL    HW1   52   7.145  14.515   8.439
32740SOL    HW2   53   7.151  14.658   8.391
32741SOL     OW   54   2.061   0.148  14.710
32741SOL    HW1   55   2.116   0.095  14.653
32741SOL    HW2   56   2.066   0.236  14.673
32742SOL     OW   57  10.258  11.090  12.421
32742SOL    HW1   58  10.261  11.015  12.362
32742SOL    HW2   59  10.283  11.165  12.367
32743SOL     OW   60  11.486  13.493   9.217
32743SOL    HW1   61  11.448  13.407   9.199
32743SOL    HW2   62  11.473  13.542   9.136
32744SOL     OW   63   7.491  13.410   2.839
32744SOL    HW1   64   7.477  13.317   2.854
32744SOL    HW2   65   7.415  13.452   2.880
32745SOL     OW   66  12.116   2.085  12.226
32745SOL    HW1   67  12.145   2.172  12.254
32745SOL    HW2   68  12.168   2.024  12.279
32746SOL     OW   69   4.230   3.256   2.862
32746SOL    HW1   70   4.323   3.276   2.855
32746SOL    HW2   71   4.187   3.342   2.860
32747SOL     OW   72   8.134  12.009   0.101
32747SOL    HW1   73   8.059  11.951   0.111
32747SOL    HW2   74   8.136  12.060   0.183
32748SOL     OW   75   3.808   3.483   7.645
32748SOL    HW1   76   3.817   3.579   7.643
32748SOL    HW2   77   3.859   3.456   7.722
32749SOL     OW   78   8.258   1.060  11.891
32749SOL    HW1   79   8.172   1.028  11.865
32749SOL    HW2   80   8.320   1.002  11.847
32750SOL     OW   81   3.558  10.638   2.433
32750SOL    HW1   82   3.586  10.631   2.525
32750SOL    HW2   83   3.638  10.618   2.383
32751SOL     OW   84   6.841   3.010   5.477
32751SOL    HW1   85   6.765   2.959   5.507
32751SOL    HW2   86   6.805   3.097   5.459
32752SOL     OW   87   8.116   7.117   9.471
32752SOL    HW1   88   8.102   7.047   9.535
32752SOL    HW2   89   8.164   7.076   9.399
32753SOL     OW   90  11.124  14.211   8.724
32753SOL    HW1   91  11.037  14.175   8.740
32753SOL    HW2   92  11.142  14.267   8.800
32754SOL     OW   93   0.894   8.619   7.312
32754SOL    HW1   94   0.934   8.586   7.393
32754SOL    HW2   95   0.940   8.573   7.242
32755SOL     OW   96  13.936   9.183   6.472
32755SOL    HW1   97  13.985   9.221   6.545
32755SOL    HW2   98  13.996   9.188   6.397
32756SOL     OW   99  14.019   6.412   2.642
32756SOL    HW1  100  14.006   6.505   2.625
32756SOL    HW2  101  14.005   6.402   2.736
32757SOL     OW  102   3.126   5.797  14.224
32757SOL    HW1  103   3.062   5.746  14.273
32757SOL    HW2  104   3.094   5.795  14.133
32758SOL     OW  105  11.228   1.203   4.498
32758SOL    HW1  106  11.306   1.149   4.483
32758SOL    HW2  107  11.262   1.283   4.539
32759SOL     OW  108   3.019   5.342   9.224
32759SOL    HW1  109   3.110   5.342   9.196
32759SOL    HW2  110   2.988   5.431   9.204
32760SOL     OW  111  11.488  14.491   6.225
32760SOL    HW1  112  11.445  14.550   6.163
32760SOL    HW2  113  11.559  14.542   6.262
32761SOL     OW  114   6.500   9.806   1.500
32761SOL    HW1  115   6.543   9.730   1.538
32761SOL    HW2  116   6.571   9.869   1.487
32762SOL     OW  117   3.265   4.620   9.820
32762SOL    HW1  118   3.205   4.546   9.809
32762SOL    HW2  119   3.344   4.581   9.856
32763SOL     OW  120  11.911  14.720  14.035
32763SOL    HW1  121  11.854  14.643  14.034
32763SOL    HW2  122  11.892  14.765  13.953
32764SOL     OW  123   1.316  13.450   9.310
32764SOL    HW1  124   1.384  13.435   9.244
32764SOL    HW2  125   1.237  13.411   9.272
32765SOL     OW  126   6.538   4.140   9.047
32765SOL    HW1  127   6.551   4.183   8.963
32765SOL    HW2  128   6.492   4.205   9.100
32766SOL     OW  129   9.966  12.024  10.483
32766SOL    HW1  130   9.943  12.063  10.399
32766SOL    HW2  131   9.900  11.956  10.496
32767SOL     OW  132   0.399  10.437   3.983
32767SOL    HW1  133   0.454  10.507   4.020
32767SOL    HW2  134   0.361  10.476   3.904
32768SOL     OW  135   4.942  10.929   2.218
32768SOL    HW1  136   4.859  10.961   2.182
32768SOL    HW2  137   4.932  10.935   2.312
32769SOL     OW  138   5.537   9.256   4.540
32769SOL    HW1  139   5.495   9.238   4.625
32769SOL    HW2  140   5.621   9.211   4.545
32770SOL     OW  141   2.671   6.171  13.382
32770SOL    HW1  142   2.584   6.212  13.386
32770SOL    HW2  143   2.731   6.246  13.376
32771SOL     OW  144   9.206  10.226   3.467
32771SOL    HW1  145   9.229  10.137   3.443
32771SOL    HW2  146   9.287  10.265   3.498
32772SOL     OW  147  12.259   3.010   1.793
32772SOL    HW1  148  12.294   3.000   1.704
32772SOL    HW2  149  12.259   2.921   1.828
32773SOL     OW  150  10.178   9.067   7.298
32773SOL    HW1  151  10.180   9.092   7.205
32773SOL    HW2  152  10.172   8.971   7.296
32774SOL     OW  153   2.688   3.229   7.379
32774SOL    HW1  154   2.696   3.302   7.440
32774SOL    HW2  155   2.777   3.195   7.370
32775SOL     OW  156  12.518   4.608  13.154
32775SOL    HW1  157  12.588   4.626  13.091
32775SOL    HW2  158  12.557   4.544  13.214
32776SOL     OW  159   7.662   6.962  11.576
32776SOL    HW1  160   7.592   6.976  11.512
32776SOL    HW2  161   7.619   6.973  11.661
32777SOL     OW  162   0.847   2.119   1.570
32777SOL    HW1  163   0.836   2.175   1.494
32777SOL    HW2  164   0.942   2.112   1.581
32778SOL     OW  165   6.956  11.192  11.518
32778SOL    HW1  166   7.043  11.232  11.512
32778SOL    HW2  167   6.934  11.169  11.428
32779SOL     OW  168   1.802   6.092  13.065
32779SOL    HW1  169   1.879   6.117  13.012
32779SOL    HW2  170   1.778   6.172  13.111
32780SOL     OW  171   2.764   8.815   2.602
32780SOL    HW1  172   2.674   8.813   2.569
32780SOL    HW2  173   2.814   8.859   2.533
32781SOL     OW  174   4.912   6.701   5.534
32781SOL    HW1  175   4.936   6.783   5.491
32781SOL    HW2  176   4.969   6.695   5.610
32782SOL     OW  177  13.115   4.402   0.547
32782SOL    HW1  178  13.120   4.357   0.632
32782SOL    HW2  179  13.044   4.359   0.500
32783SOL     OW  180   9.332   3.630   0.852
32783SOL    HW1  181   9.254   3.577   0.838
32783SOL    HW2  182   9.309   3.716   0.817
32784SOL     OW  183   5.446   9.760   7.290
32784SOL    HW1  184   5.416   9.751   7.200
32784SOL    HW2  185   5.536   9.725   7.288
32785SOL     OW  186   9.885  10.462  11.831
32785SOL    HW1  187   9.864  10.378  11.872
32785SOL    HW2  188   9.977  10.453  11.805
32786SOL     OW  189  13.276   7.710  12.298
32786SOL    HW1  190  13.293   7.795  12.340
32786SOL    HW2  191  13.182   7.696  12.310
32787SOL     OW  192  10.048   2.127   0.089
32787SOL    HW1  193  10.127   2.075   0.076
32787SOL    HW2  194  10.080   2.216   0.107
32788SOL     OW  195   2.138  10.318   9.993
32788SOL    HW1  196   2.163  10.375   9.920
32788SOL    HW2  197   2.049  10.292   9.974
32789SOL     OW  198  10.315   1.105   7.367
32789SOL    HW1  199  10.410   1.099   7.372
32789SOL    HW2  200  10.298   1.146   7.282
32790SOL     OW  201   7.142  12.428   1.765
32790SOL    HW1  202   7.093  12.511   1.762
32790SOL    HW2  203   7.187  12.430   1.849
32791SOL     OW  204  10.389  14.678  11.408
32791SOL    HW1  205  10.465  14.730  11.380
32791SOL    HW2  206  10.328  14.683  11.334
32792SOL     OW  207   1.246   6.508  10.750
32792SOL    HW1  208   1.281   6.425  10.719
32792SOL    HW2  209   1.271   6.512  10.842
32793SOL     OW  210   4.752   6.371   6.995
32793SOL    HW1  211   4.680   6.418   7.038
32793SOL    HW2  212   4.724   6.279   6.995
32794SOL     OW  213   1.497  10.121   9.128
32794SOL    HW1  214   1.509  10.198   9.072
32794SOL    HW2  215   1.402  10.104   9.125
32795SOL     OW  216  11.269   7.607   4.139
32795SOL    HW1  217  11.177   7.623   4.158
32795SOL    HW2  218  11.314   7.626   4.222
32796SOL     OW  219   7.226   2.176   5.900
32796SOL    HW1  220   7.179   2.165   5.818
32796SOL    HW2  221   7.157   2.186   5.966
32797SOL     OW  222   0.349   2.828   7.803
32797SOL    HW1  223   0.407   2.756   7.830
32797SOL    HW2  224   0.336   2.814   7.710
32798SOL     OW  225  11.960   9.985   6.683
32798SOL    HW1  226  11.979   9.913   6.743
32798SOL    HW2  227  12.045  10.009   6.646
32799SOL     OW  228   7.027  11.445  13.713
32799SOL    HW1  229   6.941  11.425  13.751
32799SOL    HW2  230   7.009  11.465  13.621
32800SOL     OW  231   0.660   1.656  11.653
32800SOL    HW1  232   0.621   1.695  11.575
32800SOL    HW2  233   0.674   1.564  11.629
32801SOL     OW  234   7.392  12.076  12.113
32801SOL    HW1  235   7.362  12.147  12.057
32801SOL    HW2  236   7.431  12.013  12.053
32802SOL     OW  237  14.220   1.874   6.534
32802SOL    HW1  238  14.237   1.892   6.441
32802SOL    HW2  239  14.265   1.945   6.580
32803SOL     OW  240  10.820  14.500   8.361
32803SOL    HW1  241  10.778  14.569   8.413
32803SOL    HW2  242  10.805  14.420   8.412
32804SOL     OW  243  10.248   0.689  11.542
32804SOL    HW1  244  10.208   0.629  11.478
32804SOL    HW2  245  10.315   0.636  11.585
32805SOL     OW  246   5.579  13.781  12.068
32805SOL    HW1  247   5.564  13.688  12.085
32805SOL    HW2  248   5.492  13.818  12.059
32806SOL     OW  249  10.318   7.053   5.784
32806SOL    HW1  250  10.291   7.031   5.695
32806SOL    HW2  251  10.244   7.025   5.839
32807SOL     OW  252   8.447   8.767   6.406
32807SOL    HW1  253   8.472   8.802   6.491
32807SOL    HW2  254   8.526   8.722   6.375
32808SOL     OW  255   1.828  11.863   0.241
32808SOL    HW1  256   1.832  11.836   0.333
32808SOL    HW2  257   1.744  11.909   0.233
32809SOL     OW  258  12.557   2.154  14.723
32809SOL    HW1  259  12.624   2.130  14.786
32809SOL    HW2  260  12.599   2.142  14.638
32810SOL     OW  261  13.583  12.739   4.232
32810SOL    HW1  262  13.677  12.757   4.234
32810SOL    HW2  263  13.577  12.644   4.226
32811SOL     OW  264   5.715   7.798  11.897
32811SOL    HW1  265   5.626   7.831  11.908
32811SOL    HW2  266   5.765   7.841  11.967
32812SOL     OW  267   5.842   5.350  11.241
32812SOL    HW1  268   5.759   5.397  11.258
32812SOL    HW2  269   5.867   5.378  11.153
32813SOL     OW  270   7.808  10.934   7.348
32813SOL    HW1  271   7.851  10.851   7.333
32813SOL    HW2  272   7.807  10.944   7.444
32814SOL     OW  273  11.902  12.211   7.249
32814SOL    HW1  274  11.995  12.202   7.228
32814SOL    HW2  275  11.894  12.299   7.285
32815SOL     OW  276   9.184   8.087  11.800
32815SOL    HW1  277   9.128   8.066  11.875
32815SOL    HW2  278   9.138   8.052  11.724
32816SOL     OW  279   1.309  13.838   7.237
32816SOL    HW1  280   1.250  13.821   7.310
32816SOL    HW2  281   1.279  13.781   7.167
32817SOL     OW  282   1.122   6.072  10.510
32817SOL    HW1  283   1.047   6.128  10.533
32817SOL    HW2  284   1.083   5.986  10.492
32818SOL     OW  285   7.339  11.624   7.908
32818SOL    HW1  286   7.258  11.621   7.857
32818SOL    HW2  287   7.313  11.665   7.990
32819SOL     OW  288   4.867   5.166   5.056
32819SOL    HW1  289   4.890   5.096   4.994
32819SOL    HW2  290   4.836   5.238   5.000
32820SOL     OW  291   7.056   1.797  13.824
32820SOL    HW1  292   7.024   1.710  13.801
32820SOL    HW2  293   7.151   1.789  13.821
32821SOL     OW  294   8.725  10.559   0.404
32821SOL    HW1  295   8.800  10.499   0.398
32821SOL    HW2  296   8.649  10.501   0.411
32822SOL     OW  297   8.702  10.912  11.507
32822SOL    HW1  298   8.641  10.985  11.502
32822SOL    HW2  299   8.782  10.944  11.465
32823SOL     OW  300  10.895  12.353  13.859
32823SOL    HW1  301  10.964  12.365  13.923
32823SOL    HW2  302  10.884  12.439  13.819
32824SOL     OW  303   0.784  13.484   5.039
32824SOL    HW1  304   0.783  13.419   5.109
32824SOL    HW2  305   0.694  13.517   5.036
32825SOL     OW  306   0.511   6.427  13.239
32825SOL    HW1  307   0.496   6.455  13.329
32825SOL    HW2  308   0.565   6.496  13.201
32826SOL     OW  309  13.730   0.302   9.483
32826SOL    HW1  310  13.651   0.335   9.439
32826SOL    HW2  311  13.769   0.242   9.419
32827SOL     OW  312  14.303   1.076   1.841
32827SOL    HW1  313  14.341   1.089   1.754
32827SOL    HW2  314  14.316   1.160   1.885
32828SOL     OW  315  11.678  12.616   5.437
32828SOL    HW1  316  11.766  12.651   5.449
32828SOL    HW2  317  11.621  12.678   5.481
32829SOL     OW  318  13.767   6.658  11.130
32829SOL    HW1  319  13.825   6.625  11.199
32829SOL    HW2  320  13.683   6.616  11.148
32830SOL     OW  321   5.238  12.359   1.182
32830SOL    HW1  322   5.173  12.396   1.122
32830SOL    HW2  323   5.239  12.266   1.161
32831SOL     OW  324   6.367   9.291  10.870
32831SOL    HW1  325   6.320   9.210  10.890
32831SOL    HW2  326   6.374   9.292  10.775
32832SOL     OW  327   9.819   8.067   0.491
32832SOL    HW1  328   9.850   8.153   0.460
32832SOL    HW2  329   9.856   8.005   0.429
32833SOL     OW  330  11.337   7.314  14.121
32833SOL    HW1  331  11.244   7.335  14.116
32833SOL    HW2  332  11.340   7.219  14.107
32834SOL     OW  333   0.399   4.677   0.556
32834SOL    HW1  334   0.332   4.679   0.488
32834SOL    HW2  335   0.482   4.672   0.507
32835SOL     OW  336   7.953  14.627   0.175
32835SOL    HW1  337   7.994  14.541   0.160
32835SOL    HW2  338   8.018  14.676   0.225
32836SOL     OW  339   1.638   3.130  12.274
32836SOL    HW1  340   1.696   3.075  12.326
32836SOL    HW2  341   1.613   3.075  12.200
32837SOL     OW  342  12.411   9.141  14.376
32837SOL    HW1  343  12.427   9.064  14.322
32837SOL    HW2  344  12.359   9.109  14.449
32838SOL     OW  345   1.836  12.104   9.316
32838SOL    HW1  346   1.847  12.064   9.230
32838SOL    HW2  347   1.761  12.059   9.355
32839SOL     OW  348  12.192   3.852  11.780
32839SOL    HW1  349  12.208   3.814  11.694
32839SOL    HW2  350  12.211   3.945  11.769
32840SOL     OW  351   5.883   8.499  12.134
32840SOL    HW1  352   5.899   8.412  12.172
32840SOL    HW2  353   5.789   8.501  12.119
32841SOL     OW  354  10.398   0.824   7.483
32841SOL    HW1  355  10.320   0.874   7.462
32841SOL    HW2  356  10.392   0.746   7.428
32842SOL     OW  357   0.751   2.517  11.964
32842SOL    HW1  358   0.663   2.549  11.986
32842SOL    HW2  359   0.770   2.557  11.880
32843SOL     OW  360   8.338   1.023   0.263
32843SOL    HW1  361   8.359   0.936   0.228
32843SOL    HW2  362   8.286   1.065   0.195
32844SOL     OW  363  13.825   7.474   3.776
32844SOL    HW1  364  13.805   7.486   3.683
32844SOL    HW2  365  13.810   7.381   3.792
32845SOL     OW  366   4.601   5.193   5.444
32845SOL    HW1  367   4.678   5.244   5.419
32845SOL    HW2  368   4.532   5.221   5.384
32846SOL     OW  369   0.464  12.538   3.685
32846SOL    HW1  370   0.536  12.483   3.718
32846SOL    HW2  371   0.476  12.538   3.590
32847SOL     OW  372   4.334   8.654   5.607
32847SOL    HW1  373   4.370   8.566   5.607
32847SOL    HW2  374   4.410   8.712   5.606
32848SOL     OW  375   0.121  13.731   1.744
32848SOL    HW1  376   0.047  13.729   1.806
32848SOL    HW2  377   0.194  13.694   1.793
32849SOL     OW  378  11.208  13.767   8.571
32849SOL    HW1  379  11.303  13.757   8.564
32849SOL    HW2  380  11.181  13.800   8.485
32850SOL     OW  381   1.136   7.471   1.388
32850SOL    HW1  382   1.150   7.377   1.372
32850SOL    HW2  383   1.077   7.474   1.462
32851SOL     OW  384   2.063  12.715   6.817
32851SOL    HW1  385   2.010  12.752   6.746
32851SOL    HW2  386   2.030  12.759   6.896
32852SOL     OW  387   5.791   4.248   8.436
32852SOL    HW1  388   5.865   4.187   8.439
32852SOL    HW2  389   5.719   4.200   8.477
32853SOL     OW  390   2.570   0.202   3.763
32853SOL    HW1  391   2.474   0.196   3.770
32853SOL    HW2  392   2.586   0.209   3.669
32854SOL     OW  393   1.464   8.280   7.458
32854SOL    HW1  394   1.487   8.209   7.398
32854SOL    HW2  395   1.452   8.238   7.543
32855SOL     OW  396   7.923  13.729  10.458
32855SOL    HW1  397   7.942  13.665  10.389
32855SOL    HW2  398   7.933  13.680  10.540
32856SOL     OW  399  11.917   8.161   2.157
32856SOL    HW1  400  11.949   8.108   2.083
32856SOL    HW2  401  11.843   8.210   2.121
32857SOL     OW  402   4.387  11.505   0.551
32857SOL    HW1  403   4.442  11.579   0.577
32857SOL    HW2  404   4.304  11.545   0.523
32858SOL     OW  405   5.699  12.323   0.278
32858SOL    HW1  406   5.782  12.357   0.312
32858SOL    HW2  407   5.722  12.239   0.238
32859SOL     OW  408   2.097   7.802   3.004
32859SOL    HW1  409   2.012   7.832   2.972
32859SOL    HW2  410   2.083   7.711   3.030
32860SOL     OW  411   2.061   7.877   8.224
32860SOL    HW1  412   2.068   7.950   8.285
32860SOL    HW2  413   2.000   7.816   8.265
32861SOL     OW  414   0.571   3.036   8.243
32861SOL    HW1  415   0.666   3.026   8.239
32861SOL    HW2  416   0.541   3.021   8.154
32862SOL     OW  417   4.221   6.276  11.796
32862SOL    HW1  418   4.141   6.258  11.845
32862SOL    HW2  419   4.204   6.361  11.755
32863SOL     OW  420   5.882  12.584  10.835
32863SOL    HW1  421   5.960  12.609  10.786
32863SOL    HW2  422   5.836  12.523  10.777
32864SOL     OW  423   9.034   9.434   7.693
32864SOL    HW1  424   9.018   9.515   7.644
32864SOL    HW2  425   9.126   9.441   7.720
32865SOL     OW  426   5.601  11.200  10.897
32865SOL    HW1  427   5.677  11.195  10.839
32865SOL    HW2  428   5.639  11.194  10.985
32866SOL     OW  429   3.373   1.572  10.509
32866SOL    HW1  430   3.440   1.538  10.449
32866SOL    HW2  431   3.419   1.638  10.560
32867SOL     OW  432  12.641   6.406   4.831
32867SOL    HW1  433  12.600   6.479   4.784
32867SOL    HW2  434  12.728   6.438   4.854
32868SOL     OW  435   2.000  11.403   0.805
32868SOL    HW1  436   2.070  11.436   0.862
32868SOL    HW2  437   2.035  11.322   0.768
32869SOL     OW  438   9.801  14.504  10.349
32869SOL    HW1  439   9.709  14.499  10.375
32869SOL    HW2  440   9.840  14.424  10.384
32870SOL     OW  441  10.901  10.808   9.363
32870SOL    HW1  442  10.972  10.867   9.390
32870SOL    HW2  443  10.944  10.723   9.353
32871SOL     OW  444   6.942   6.140   6.919
32871SOL    HW1  445   6.899   6.140   6.833
32871SOL    HW2  446   6.939   6.049   6.948
32872SOL     OW  447   9.758   4.117  13.020
32872SOL    HW1  448   9.790   4.061  13.091
32872SOL    HW2  449   9.738   4.201  13.063
32873SOL     OW  450   8.293   9.459   7.960
32873SOL    HW1  451   8.246   9.392   7.911
32873SOL    HW2  452   8.234   9.534   7.962
32874SOL     OW  453   3.398  10.397   4.674
32874SOL    HW1  454   3.429  10.308   4.692
32874SOL    HW2  455   3.358  10.426   4.756
32875SOL     OW  456   8.886   6.455  14.099
32875SOL    HW1  457   8.966   6.493  14.136
32875SOL    HW2  458   8.908   6.362  14.087
32876SOL     OW  459   3.291   2.713   8.727
32876SOL    HW1  460   3.362   2.775   8.709
32876SOL    HW2  461   3.323   2.663   8.802
32877SOL     OW  462   1.067  14.152   4.410
32877SOL    HW1  463   1.147  14.100   4.413
32877SOL    HW2  464   1.055  14.172   4.317
32878SOL     OW  465   1.617  13.984   9.552
32878SOL    HW1  466   1.538  13.943   9.515
32878SOL    HW2  467   1.617  14.072   9.515
32879SOL     OW  468   5.245  10.205   4.512
32879SOL    HW1  469   5.257  10.200   4.418
32879SOL    HW2  470   5.150  10.209   4.523
32880SOL     OW  471   3.364   4.112   3.917
32880SOL    HW1  472   3.295   4.174   3.942
32880SOL    HW2  473   3.332   4.072   3.836
32881SOL     OW  474   2.187   4.794   0.785
32881SOL    HW1  475   2.235   4.737   0.845
32881SOL    HW2  476   2.189   4.747   0.701
32882SOL     OW  477   7.135   5.732   7.732
32882SOL    HW1  478   7.225   5.751   7.703
32882SOL    HW2  479   7.085   5.728   7.650
32883SOL     OW  480  10.529   8.182  14.879
32883SOL    HW1  481  10.450   8.215   0.039
32883SOL    HW2  482  10.529   8.088   0.015
32884SOL     OW  483   7.510   6.477   8.158
32884SOL    HW1  484   7.513   6.509   8.067
32884SOL    HW2  485   7.598   6.443   8.174
32885SOL     OW  486   3.802  12.869  14.011
32885SOL    HW1  487   3.820  12.849  13.920
32885SOL    HW2  488   3.711  12.843  14.024
32886SOL     OW  489   3.586  11.993   8.708
32886SOL    HW1  490   3.620  12.003   8.797
32886SOL    HW2  491   3.575  12.083   8.677
32887SOL     OW  492   8.543   1.399  14.038
32887SOL    HW1  493   8.603   1.427  14.107
32887SOL    HW2  494   8.488   1.475  14.021
32888SOL     OW  495   5.145   3.853   1.125
32888SOL    HW1  496   5.139   3.779   1.065
32888SOL    HW2  497   5.101   3.823   1.205
32889SOL     OW  498   4.093  13.019   1.843
32889SOL    HW1  499   4.146  13.078   1.789
32889SOL    HW2  500   4.092  12.936   1.794
32890SOL     OW  501   6.796   5.414   6.003
32890SOL    HW1  502   6.749   5.365   5.935
32890SOL    HW2  503   6.735   5.418   6.076
32891SOL     OW  504   5.095   3.873   7.798
32891SOL    HW1  505   5.178   3.918   7.781
32891SOL    HW2  506   5.049   3.875   7.714
32892SOL     OW  507   0.120   7.518   1.593
32892SOL    HW1  508   0.044   7.519   1.650
32892SOL    HW2  509   0.084   7.522   1.504
32893SOL     OW  510   2.389   9.934  11.414
32893SOL    HW1  511   2.317   9.874  11.395
32893SOL    HW2  512   2.383  10.001  11.345
32894SOL     OW  513   0.552   3.314   4.406
32894SOL    HW1  514   0.528   3.241   4.463
32894SOL    HW2  515   0.585   3.381   4.466
32895SOL     OW  516   9.025  10.309   1.577
32895SOL    HW1  517   9.098  10.262   1.617
32895SOL    HW2  518   8.965  10.240   1.549
32896SOL     OW  519   2.187   9.858   7.092
32896SOL    HW1  520   2.232   9.873   7.175
32896SOL    HW2  521   2.120   9.926   7.088
32897SOL     OW  522   2.529  14.267   1.115
32897SOL    HW1  523   2.492  14.260   1.203
32897SOL    HW2  524   2.480  14.203   1.063
32898SOL     OW  525   9.087   8.723  10.738
32898SOL    HW1  526   9.147   8.693  10.669
32898SOL    HW2  527   9.008   8.750  10.691
32899SOL     OW  528   5.032   6.737   4.771
32899SOL    HW1  529   5.008   6.644   4.769
32899SOL    HW2  530   5.083   6.747   4.851
32900SOL     OW  531   9.719   0.810  11.250
32900SOL    HW1  532   9.687   0.878  11.191
32900SOL    HW2  533   9.641   0.758  11.272
32901SOL     OW  534  14.733  13.843  11.234
32901SOL    HW1  535  14.666  13.901  11.268
32901SOL    HW2  536  14.808  13.855  11.293
32902SOL     OW  537   0.022   3.275  11.340
32902SOL    HW1  538   0.114   3.268  11.314
32902SOL    HW2  539  14.872   3.352  11.294
32903SOL     OW  540   3.576  10.871   3.889
32903SOL    HW1  541   3.533  10.810   3.830
32903SOL    HW2  542   3.557  10.958   3.852
32904SOL     OW  543  13.112   9.923   3.288
32904SOL    HW1  544  13.113  10.015   3.315
32904SOL    HW2  545  13.022   9.895   3.303
32905SOL     OW  546   4.371  13.426  10.297
32905SOL    HW1  547   4.353  13.356  10.234
32905SOL    HW2  548   4.430  13.388  10.361
32906SOL     OW  549   8.178  10.049  14.724
32906SOL    HW1  550   8.140  10.115  14.665
32906SOL    HW2  551   8.114   9.978  14.724
32907SOL     OW  552   9.766   6.287  11.239
32907SOL    HW1  553   9.808   6.259  11.158
32907SOL    HW2  554   9.819   6.247  11.309
32908SOL     OW  555   2.967   6.221   9.343
32908SOL    HW1  556   2.984   6.175   9.261
32908SOL    HW2  557   2.877   6.198   9.365
32909SOL     OW  558   4.598  10.669   3.008
32909SOL    HW1  559   4.553  10.602   2.957
32909SOL    HW2  560   4.667  10.701   2.950
32910SOL     OW  561   1.836   7.192   9.112
32910SOL    HW1  562   1.877   7.109   9.088
32910SOL    HW2  563   1.742   7.173   9.115
32911SOL     OW  564  10.503  10.451   8.761
32911SOL    HW1  565  10.479  10.542   8.743
32911SOL    HW2  566  10.422  10.412   8.796
32912SOL     OW  567   5.693   1.178  13.764
32912SOL    HW1  568   5.764   1.231  13.727
32912SOL    HW2  569   5.640   1.152  13.689
32913SOL     OW  570  12.161   6.104  11.467
32913SOL    HW1  571  12.145   6.127  11.558
32913SOL    HW2  572  12.099   6.034  11.448
32914SOL     OW  573   6.066   5.249   1.781
32914SOL    HW1  574   6.147   5.202   1.798
32914SOL    HW2  575   6.092   5.325   1.729
32915SOL     OW  576  13.776  10.113   3.503
32915SOL    HW1  577  13.713  10.061   3.553
32915SOL    HW2  578  13.804  10.055   3.432
32916SOL     OW  579   9.400   8.106   8.380
32916SOL    HW1  580   9.379   8.017   8.406
32916SOL    HW2  581   9.316   8.151   8.379
32917SOL     OW  582  10.641   4.509   5.243
32917SOL    HW1  583  10.685   4.585   5.206
32917SOL    HW2  584  10.638   4.446   5.171
32918SOL     OW  585   4.536  13.899  13.406
32918SOL    HW1  586   4.597  13.867  13.339
32918SOL    HW2  587   4.556  13.992  13.414
32919SOL     OW  588   6.654   6.944   2.714
32919SOL    HW1  589   6.731   6.888   2.724
32919SOL    HW2  590   6.581   6.883   2.711
32920SOL     OW  591   4.081   8.033   3.248
32920SOL    HW1  592   4.003   7.977   3.239
32920SOL    HW2  593   4.056   8.116   3.209
32921SOL     OW  594   0.821   1.088   7.855
32921SOL    HW1  595   0.871   1.128   7.927
32921SOL    HW2  596   0.777   1.162   7.813
32922SOL     OW  597   3.387   7.056   0.208
32922SOL    HW1  598   3.340   7.047   0.125
32922SOL    HW2  599   3.378   7.148   0.230
32923SOL     OW  600   0.272  11.973   4.649
32923SOL    HW1  601   0.299  11.925   4.570
32923SOL    HW2  602   0.348  12.028   4.670
32924SOL     OW  603   5.230   7.609  11.478
32924SOL    HW1  604   5.231   7.612  11.574
32924SOL    HW2  605   5.138   7.623  11.455
32925SOL     OW  606   4.008  14.433  11.595
32925SOL    HW1  607   4.028  14.527  11.595
32925SOL    HW2  608   4.082  14.393  11.550
32926SOL     OW  609  13.473  10.428   9.161
32926SOL    HW1  610  13.440  10.344   9.127
32926SOL    HW2  611  13.396  10.470   9.198
32927SOL     OW  612   7.422   8.260  11.839
32927SOL    HW1  613   7.398   8.197  11.770
32927SOL    HW2  614   7.338   8.285  11.878
32928SOL     OW  615  14.056   1.615  10.875
32928SOL    HW1  616  14.149   1.606  10.891
32928SOL    HW2  617  14.038   1.555  10.803
32929SOL     OW  618   6.589   6.849  11.682
32929SOL    HW1  619   6.532   6.864  11.606
32929SOL    HW2  620   6.651   6.783  11.652
32930SOL     OW  621   6.255  14.701   8.853
32930SOL    HW1  622   6.259  14.721   8.946
32930SOL    HW2  623   6.255  14.605   8.849
32931SOL     OW  624  12.591  10.034   3.156
32931SOL    HW1  625  12.589   9.982   3.077
32931SOL    HW2  626  12.676  10.079   3.154
32932SOL     OW  627   2.495  10.036   7.107
32932SOL    HW1  628   2.561  10.015   7.042
32932SOL    HW2  629   2.413  10.042   7.058
32933SOL     OW  630   2.362   3.455  11.494
32933SOL    HW1  631   2.273   3.437  11.465
32933SOL    HW2  632   2.411   3.472  11.413
32934SOL     OW  633   1.456   8.401  12.061
32934SOL    HW1  634   1.530   8.462  12.063
32934SOL    HW2  635   1.392   8.439  12.120
32935SOL     OW  636  12.485   2.447   8.011
32935SOL    HW1  637  12.519   2.358   8.011
32935SOL    HW2  638  12.547   2.497   8.064
32936SOL     OW  639   7.016  14.193  10.591
32936SOL    HW1  640   7.034  14.153  10.506
32936SOL    HW2  641   7.085  14.258  10.603
32937SOL     OW  642   1.112  11.066   0.363
32937SOL    HW1  643   1.069  11.152   0.372
32937SOL    HW2  644   1.193  11.074   0.413
32938SOL     OW  645   9.969  12.718   5.539
32938SOL    HW1  646   9.989  12.675   5.456
32938SOL    HW2  647   9.967  12.647   5.604
32939SOL     OW  648   3.137  11.112   0.893
32939SOL    HW1  649   3.049  11.120   0.930
32939SOL    HW2  650   3.126  11.052   0.818
32940SOL     OW  651   4.358   5.290  11.165
32940SOL    HW1  652   4.394   5.332  11.087
32940SOL    HW2  653   4.433   5.250  11.208
32941SOL     OW  654  13.329  12.991   6.522
32941SOL    HW1  655  13.270  13.053   6.565
32941SOL    HW2  656  13.296  12.985   6.432
32942SOL     OW  657  12.939   7.184   5.928
32942SOL    HW1  658  12.915   7.270   5.964
32942SOL    HW2  659  12.977   7.136   6.001
32943SOL     OW  660   0.954   9.628   1.721
32943SOL    HW1  661   0.961   9.720   1.697
32943SOL    HW2  662   0.962   9.627   1.816
32944SOL     OW  663   0.873   9.858  13.954
32944SOL    HW1  664   0.780   9.862  13.978
32944SOL    HW2  665   0.883   9.773  13.910
32945SOL     OW  666   4.400   6.582   6.137
32945SOL    HW1  667   4.396   6.655   6.075
32945SOL    HW2  668   4.413   6.504   6.082
32946SOL     OW  669   5.338   5.234   9.635
32946SOL    HW1  670   5.367   5.180   9.562
32946SOL    HW2  671   5.295   5.309   9.595
32947SOL     OW  672   3.411   6.645  10.739
32947SOL    HW1  673   3.452   6.593  10.670
32947SOL    HW2  674   3.421   6.736  10.711
32948SOL     OW  675   9.830   9.114  10.317
32948SOL    HW1  676   9.902   9.109  10.380
32948SOL    HW2  677   9.869   9.158  10.241
32949SOL     OW  678  11.165   7.754  11.949
32949SOL    HW1  679  11.200   7.665  11.952
32949SOL    HW2  680  11.083   7.750  11.999
32950SOL     OW  681   3.775   0.626   8.453
32950SOL    HW1  682   3.699   0.644   8.398
32950SOL    HW2  683   3.850   0.640   8.396
32951SOL     OW  684  13.879   1.221   6.397
32951SOL    HW1  685  13.956   1.189   6.350
32951SOL    HW2  686  13.805   1.185   6.349
32952SOL     OW  687   0.266   8.585   3.649
32952SOL    HW1  688   0.246   8.496   3.677
32952SOL    HW2  689   0.254   8.583   3.554
32953SOL     OW  690  11.852   0.853   7.668
32953SOL    HW1  691  11.764   0.854   7.705
32953SOL    HW2  692  11.839   0.865   7.574
32954SOL     OW  693   3.041   0.931   5.564
32954SOL    HW1  694   3.114   0.871   5.547
32954SOL    HW2  695   3.061   0.969   5.650
32955SOL     OW  696  10.352   3.585   5.175
32955SOL    HW1  697  10.327   3.590   5.083
32955SOL    HW2  698  10.282   3.632   5.221
32956SOL     OW  699  12.890   3.474   9.561
32956SOL    HW1  700  12.924   3.416   9.630
32956SOL    HW2  701  12.803   3.441   9.543
32957SOL     OW  702  10.886   6.185   1.709
32957SOL    HW1  703  10.797   6.218   1.721
32957SOL    HW2  704  10.921   6.177   1.797
32958SOL     OW  705  12.427   8.793   9.159
32958SOL    HW1  706  12.489   8.865   9.156
32958SOL    HW2  707  12.468   8.728   9.216
32959SOL     OW  708  11.698   7.769  11.375
32959SOL    HW1  709  11.606   7.776  11.350
32959SOL    HW2  710  11.706   7.681  11.412
32960SOL     OW  711  13.874  14.070   8.719
32960SOL    HW1  712  13.868  14.058   8.624
32960SOL    HW2  713  13.802  14.131   8.740
32961SOL     OW  714   5.193   9.902  12.174
32961SOL    HW1  715   5.142   9.966  12.225
32961SOL    HW2  716   5.132   9.872  12.106
32962SOL     OW  717  14.549   9.363  14.324
32962SOL    HW1  718  14.482   9.353  14.391
32962SOL    HW2  719  14.546   9.456  14.301
32963SOL     OW  720  11.504   7.022   4.314
32963SOL    HW1  721  11.443   7.039   4.243
32963SOL    HW2  722  11.556   7.103   4.321
32964SOL     OW  723   1.664   4.989  11.032
32964SOL    HW1  724   1.687   4.978  10.940
32964SOL    HW2  725   1.725   4.932  11.079
32965SOL     OW  726   9.981   4.089   8.916
32965SOL    HW1  727   9.969   4.180   8.887
32965SOL    HW2  728  10.049   4.054   8.859
32966SOL     OW  729  11.391   1.183   6.002
32966SOL    HW1  730  11.336   1.198   6.079
32966SOL    HW2  731  11.387   1.089   5.988
32967SOL     OW  732  14.821  12.588  12.036
32967SOL    HW1  733  14.825  12.655  12.104
32967SOL    HW2  734  14.877  12.518  12.068
32968SOL     OW  735  14.040  11.263  14.807
32968SOL    HW1  736  14.064  11.253  14.714
32968SOL    HW2  737  14.041  11.358  14.821
32969SOL     OW  738  10.468   4.664  11.414
32969SOL    HW1  739  10.498   4.653  11.324
32969SOL    HW2  740  10.382   4.623  11.415
32970SOL     OW  741   0.205   3.832   0.738
32970SOL    HW1  742   0.283   3.856   0.688
32970SOL    HW2  743   0.225   3.747   0.775
32971SOL     OW  744   9.883  14.046  13.662
32971SOL    HW1  745   9.849  14.135  13.651
32971SOL    HW2  746   9.918  14.044  13.751
32972SOL     OW  747  11.310   2.023  13.910
32972SOL    HW1  748  11.353   2.089  13.856
32972SOL    HW2  749  11.237   2.069  13.952
32973SOL     OW  750  13.025   8.653   2.543
32973SOL    HW1  751  13.037   8.558   2.547
32973SOL    HW2  752  13.057   8.677   2.456
32974SOL     OW  753   5.569   8.478   1.279
32974SOL    HW1  754   5.633   8.479   1.350
32974SOL    HW2  755   5.598   8.547   1.219
32975SOL     OW  756   3.377   7.568  11.883
32975SOL    HW1  757   3.355   7.509  11.810
32975SOL    HW2  758   3.343   7.523  11.961
32976SOL     OW  759  14.497   9.425  10.066
32976SOL    HW1  760  14.424   9.363  10.060
32976SOL    HW2  761  14.468   9.501  10.016
32977SOL     OW  762   7.485   9.771  11.850
32977SOL    HW1  763   7.427   9.817  11.790
32977SOL    HW2  764   7.554   9.735  11.794
32978SOL     OW  765   9.097   2.860   7.550
32978SOL    HW1  766   9.127   2.791   7.609
32978SOL    HW2  767   9.099   2.939   7.603
32979SOL     OW  768   4.083   5.929  14.817
32979SOL    HW1  769   4.167   5.969  14.838
32979SOL    HW2  770   4.045   5.907   0.021
32980SOL     OW  771  13.481   7.957   6.636
32980SOL    HW1  772  13.546   7.922   6.575
32980SOL    HW2  773  13.408   7.895   6.631
32981SOL     OW  774  14.445   1.430   3.043
32981SOL    HW1  775  14.381   1.446   2.974
32981SOL    HW2  776  14.397   1.379   3.109
32982SOL     OW  777   7.877   5.440   2.970
32982SOL    HW1  778   7.925   5.474   3.045
32982SOL    HW2  779   7.858   5.349   2.993
32983SOL     OW  780  11.103   2.974   0.309
32983SOL    HW1  781  11.152   3.037   0.256
32983SOL    HW2  782  11.119   2.890   0.267
32984SOL     OW  783   1.773   8.140   5.713
32984SOL    HW1  784   1.855   8.184   5.691
32984SOL    HW2  785   1.729   8.200   5.774
32985SOL     OW  786   5.617   4.948   0.141
32985SOL    HW1  787   5.600   4.883   0.074
32985SOL    HW2  788   5.712   4.962   0.137
32986SOL     OW  789  11.309   0.673   0.563
32986SOL    HW1  790  11.262   0.746   0.523
32986SOL    HW2  791  11.307   0.693   0.657
32987SOL     OW  792   5.153  10.188  14.022
32987SOL    HW1  793   5.104  10.267  13.999
32987SOL    HW2  794   5.156  10.189  14.118
32988SOL     OW  795   2.519  11.348  10.988
32988SOL    HW1  796   2.494  11.273  10.934
32988SOL    HW2  797   2.533  11.419  10.925
32989SOL     OW  798   4.173  12.128  10.037
32989SOL    HW1  799   4.259  12.155  10.070
32989SOL    HW2  800   4.142  12.064  10.100
32990SOL     OW  801   9.191   8.951   5.180
32990SOL    HW1  802   9.111   8.994   5.150
32990SOL    HW2  803   9.231   9.013   5.240
32991SOL     OW  804   8.456   1.714   7.533
32991SOL    HW1  805   8.362   1.697   7.529
32991SOL    HW2  806   8.463   1.809   7.545
32992SOL     OW  807   8.286   0.836   0.592
32992SOL    HW1  808   8.292   0.921   0.636
32992SOL    HW2  809   8.366   0.830   0.539
32993SOL     OW  810  10.504  13.423  12.019
32993SOL    HW1  811  10.589  13.412  12.062
32993SOL    HW2  812  10.497  13.348  11.960
32994SOL     OW  813  11.409   8.921  14.380
32994SOL    HW1  814  11.317   8.899  14.392
32994SOL    HW2  815  11.422   8.999  14.434
32995SOL     OW  816  11.007   5.219   0.126
32995SOL    HW1  817  10.972   5.144   0.078
32995SOL    HW2  818  10.982   5.295   0.074
32996SOL     OW  819   5.687   9.611   7.236
32996SOL    HW1  820   5.660   9.530   7.278
32996SOL    HW2  821   5.701   9.587   7.144
32997SOL     OW  822  14.412   2.429  12.896
32997SOL    HW1  823  14.466   2.353  12.875
32997SOL    HW2  824  14.404   2.427  12.991
32998SOL     OW  825   8.631   3.957   5.799
32998SOL    HW1  826   8.583   3.941   5.718
32998SOL    HW2  827   8.683   4.035   5.781
32999SOL     OW  828  14.179  14.696   1.633
32999SOL    HW1  829  14.141  14.783   1.616
32999SOL    HW2  830  14.103  14.639   1.647
33000SOL     OW  831   2.916   2.273  14.846
33000SOL    HW1  832   2.887   2.282  14.755
33000SOL    HW2  833   2.926   2.179  14.859
33001SOL     OW  834   2.240   7.962   6.360
33001SOL    HW1  835   2.322   7.998   6.395
33001SOL    HW2  836   2.181   7.959   6.436
33002SOL     OW  837  13.590  13.595  14.844
33002SOL    HW1  838  13.576  13.664  14.779
33002SOL    HW2  839  13.601  13.515  14.792
33003SOL     OW  840  14.742   5.863   2.355
33003SOL    HW1  841  14.759   5.890   2.265
33003SOL    HW2  842  14.650   5.889   2.371
33004SOL     OW  843  13.659   9.519   5.015
33004SOL    HW1  844  13.690   9.604   4.983
33004SOL    HW2  845  13.738   9.477   5.050
33005SOL     OW  846  13.368  13.085   5.703
33005SOL    HW1  847  13.408  13.031   5.771
33005SOL    HW2  848  13.364  13.173   5.742
33006SOL     OW  849  12.648  10.170   0.970
33006SOL    HW1  850  12.582  10.152   1.037
33006SOL    HW2  851  12.729  10.187   1.019
33007SOL     OW  852  10.637   5.307   6.185
33007SOL    HW1  853  10.586   5.268   6.114
33007SOL    HW2  854  10.581   5.298   6.262
33008SOL     OW  855  12.194  11.403   5.581
33008SOL    HW1  856  12.098  11.397   5.578
33008SOL    HW2  857  12.215  11.472   5.519
33009SOL     OW  858   0.531  10.612  13.272
33009SOL    HW1  859   0.438  10.600  13.293
33009SOL    HW2  860   0.531  10.657  13.188
33010SOL     OW  861  11.634   5.950   1.540
33010SOL    HW1  862  11.645   6.028   1.595
33010SOL    HW2  863  11.679   5.880   1.587
33011SOL     OW  864  12.926   9.579  12.282
33011SOL    HW1  865  12.938   9.485  12.267
33011SOL    HW2  866  12.856   9.604  12.221
33012SOL     OW  867   3.499   8.620   0.021
33012SOL    HW1  868   3.509   8.531  14.870
33012SOL    HW2  869   3.576   8.667  14.870
33013SOL     OW  870   3.329   0.267   0.932
33013SOL    HW1  871   3.391   0.334   0.904
33013SOL    HW2  872   3.273   0.254   0.856
33014SOL     OW  873   9.345   6.101   9.418
33014SOL    HW1  874   9.409   6.124   9.485
33014SOL    HW2  875   9.353   6.006   9.408
33015SOL     OW  876   5.744   7.325  10.205
33015SOL    HW1  877   5.820   7.278  10.239
33015SOL    HW2  878   5.681   7.256  10.182
33016SOL     OW  879   4.260   3.198  12.826
33016SOL    HW1  880   4.232   3.115  12.864
33016SOL    HW2  881   4.308   3.173  12.746
33017SOL     OW  882   7.547   5.320  11.595
33017SOL    HW1  883   7.504   5.295  11.677
33017SOL    HW2  884   7.640   5.308  11.612
33018SOL     OW  885   9.379  13.904   0.533
33018SOL    HW1  886   9.303  13.846   0.539
33018SOL    HW2  887   9.437  13.860   0.471
33019SOL     OW  888   7.872   2.072   0.907
33019SOL    HW1  889   7.957   2.073   0.952
33019SOL    HW2  890   7.845   1.980   0.910
33020SOL     OW  891  14.477  12.725  14.069
33020SOL    HW1  892  14.425  12.649  14.093
33020SOL    HW2  893  14.547  12.689  14.014
33021SOL     OW  894  14.862   0.567   1.777
33021SOL    HW1  895  14.824   0.483   1.752
33021SOL    HW2  896   0.065   0.569   1.732
33022SOL     OW  897  14.815  10.198  11.499
33022SOL    HW1  898  14.820  10.226  11.407
33022SOL    HW2  899  14.794  10.105  11.495
33023SOL     OW  900   5.926   7.389  12.422
33023SOL    HW1  901   5.908   7.404  12.515
33023SOL    HW2  902   5.999   7.327  12.422
33024SOL     OW  903   2.929   5.508   8.568
33024SOL    HW1  904   2.913   5.564   8.644
33024SOL    HW2  905   3.016   5.471   8.583
33025SOL     OW  906   2.950   2.725   7.980
33025SOL    HW1  907   2.984   2.776   7.906
33025SOL    HW2  908   2.937   2.637   7.945
33026SOL     OW  909   3.844  10.970   8.945
33026SOL    HW1  910   3.912  10.956   8.878
33026SOL    HW2  911   3.793  11.044   8.911
33027SOL     OW  912   3.280   6.014   3.875
33027SOL    HW1  913   3.345   5.955   3.914
33027SOL    HW2  914   3.275   5.986   3.784
33028SOL     OW  915  11.896   3.621  13.595
33028SOL    HW1  916  11.929   3.533  13.614
33028SOL    HW2  917  11.822   3.607  13.535
33029SOL     OW  918   3.459  13.284  11.101
33029SOL    HW1  919   3.532  13.338  11.131
33029SOL    HW2  920   3.401  13.345  11.055
33030SOL     OW  921  14.322  14.138  13.670
33030SOL    HW1  922  14.407  14.105  13.699
33030SOL    HW2  923  14.338  14.231  13.651
33031SOL     OW  924   4.538  11.227  10.077
33031SOL    HW1  925   4.528  11.248  10.170
33031SOL    HW2  926   4.494  11.143  10.066
33032SOL     OW  927  11.274   8.059  12.674
33032SOL    HW1  928  11.202   7.998  12.663
33032SOL    HW2  929  11.295   8.089  12.585
33033SOL     OW  930   0.429   8.664   6.866
33033SOL    HW1  931   0.455   8.572   6.867
33033SOL    HW2  932   0.491   8.706   6.806
33034SOL     OW  933   2.659   4.603  14.215
33034SOL    HW1  934   2.728   4.565  14.270
33034SOL    HW2  935   2.578   4.589  14.264
33035SOL     OW  936   4.105  12.679   7.747
33035SOL    HW1  937   4.045  12.752   7.731
33035SOL    HW2  938   4.079  12.612   7.684
33036SOL     OW  939   5.702  10.599   9.557
33036SOL    HW1  940   5.746  10.642   9.483
33036SOL    HW2  941   5.755  10.520   9.574
33037SOL     OW  942  12.661   7.446   1.055
33037SOL    HW1  943  12.574   7.485   1.056
33037SOL    HW2  944  12.721   7.519   1.037
33038SOL     OW  945   4.275  12.952   9.400
33038SOL    HW1  946   4.205  12.896   9.432
33038SOL    HW2  947   4.250  13.040   9.428
33039SOL     OW  948  13.020   8.224   9.673
33039SOL    HW1  949  12.991   8.142   9.633
33039SOL    HW2  950  12.999   8.213   9.766
33040SOL     OW  951   1.836   8.180   0.051
33040SOL    HW1  952   1.759   8.217   0.008
33040SOL    HW2  953   1.885   8.139  14.863
33041SOL     OW  954  10.485   0.191  10.908
33041SOL    HW1  955  10.479   0.272  10.958
33041SOL    HW2  956  10.397   0.155  10.909
33042SOL     OW  957   6.947  14.162   0.273
33042SOL    HW1  958   6.907  14.093   0.219
33042SOL    HW2  959   6.881  14.181   0.340
33043SOL     OW  960   9.269   5.987   9.053
33043SOL    HW1  961   9.349   5.943   9.082
33043SOL    HW2  962   9.287   6.011   8.962
33044SOL     OW  963   0.149   0.345  12.656
33044SOL    HW1  964   0.145   0.435  12.624
33044SOL    HW2  965   0.073   0.302  12.617
33045SOL     OW  966   8.298   7.926  13.614
33045SOL    HW1  967   8.317   7.833  13.616
33045SOL    HW2  968   8.356   7.962  13.547
33046SOL     OW  969   8.281   0.667  10.637
33046SOL    HW1  970   8.202   0.626  10.671
33046SOL    HW2  971   8.347   0.598  10.639
33047SOL     OW  972   4.140   2.657   4.867
33047SOL    HW1  973   4.196   2.699   4.932
33047SOL    HW2  974   4.068   2.719   4.854
33048SOL     OW  975   2.643  10.335  13.170
33048SOL    HW1  976   2.599  10.252  13.187
33048SOL    HW2  977   2.697  10.318  13.093
33049SOL     OW  978   3.633  14.528   6.243
33049SOL    HW1  979   3.567  14.566   6.186
33049SOL    HW2  980   3.645  14.439   6.209
33050SOL     OW  981   1.724   0.453  14.298
33050SOL    HW1  982   1.817   0.465  14.312
33050SOL    HW2  983   1.682   0.489  14.376
33051SOL     OW  984   7.508  10.954  11.725
33051SOL    HW1  985   7.580  10.896  11.750
33051SOL    HW2  986   7.537  10.993  11.643
33052SOL     OW  987   7.353  11.548   6.234
33052SOL    HW1  988   7.286  11.596   6.184
33052SOL    HW2  989   7.415  11.615   6.261
33053SOL     OW  990  13.478   0.876   2.206
33053SOL    HW1  991  13.415   0.934   2.162
33053SOL    HW2  992  13.444   0.788   2.189
33054SOL     OW  993   4.890   7.301  14.244
33054SOL    HW1  994   4.904   7.368  14.311
33054SOL    HW2  995   4.831   7.342  14.181
33055SOL     OW  996  10.253  12.048  10.360
33055SOL    HW1  997  10.267  11.964  10.316
33055SOL    HW2  998  10.163  12.044  10.391
33056SOL     OW  999  13.432  12.713  12.412
33056SOL    HW1 1000  13.437  12.681  12.322
33056SOL    HW2 1001  13.440  12.633  12.465
33057SOL     OW 1002   5.456   4.738   4.343
33057SOL    HW1 1003   5.522   4.699   4.285
33057SOL    HW2 1004   5.403   4.793   4.285
33058SOL     OW 1005  13.512  14.863   5.424
33058SOL    HW1 1006  13.421  14.865   5.395
33058SOL    HW2 1007  13.553   0.056   5.381
33059SOL     OW 1008   0.279  13.009   0.939
33059SOL    HW1 1009   0.187  13.030   0.923
33059SOL    HW2 1010   0.302  12.947   0.870
33060SOL     OW 1011   4.044  14.733  14.018
33060SOL    HW1 1012   4.138  14.754  14.019
33060SOL    HW2 1013   4.023  14.721  13.926
33061SOL     OW 1014   2.166   8.931  10.908
33061SOL    HW1 1015   2.112   8.991  10.857
33061SOL    HW2 1016   2.198   8.984  10.981
33062SOL     OW 1017   6.672  11.361  10.321
33062SOL    HW1 1018   6.670  11.445  10.366
33062SOL    HW2 1019   6.583  11.350  10.286
33063SOL     OW 1020   2.873  13.815   8.604
33063SOL    HW1 1021   2.784  13.835   8.632
33063SOL    HW2 1022   2.879  13.853   8.516
33064SOL     OW 1023  10.934  11.089  13.766
33064SOL    HW1 1024  10.839  11.097  13.758
33064SOL    HW2 1025  10.965  11.179  13.773
33065SOL     OW 1026   6.905   1.219   9.479
33065SOL    HW1 1027   6.836   1.238   9.542
33065SOL    HW2 1028   6.868   1.246   9.395
33066SOL     OW 1029   7.995   3.280   7.906
33066SOL    HW1 1030   7.953   3.195   7.892
33066SOL    HW2 1031   8.083   3.270   7.868
33067SOL     OW 1032   5.550  12.100  12.669
33067SOL    HW1 1033   5.598  12.056  12.739
33067SOL    HW2 1034   5.548  12.037  12.598
33068SOL     OW 1035   2.029   4.406   3.534
33068SOL    HW1 1036   1.993   4.471   3.475
33068SOL    HW2 1037   1.961   4.393   3.601
33069SOL     OW 1038   5.952   0.594   9.120
33069SOL    HW1 1039   5.953   0.509   9.075
33069SOL    HW2 1040   5.993   0.576   9.204
33070SOL     OW 1041  11.482   0.549   7.230
33070SOL    HW1 1042  11.518   0.573   7.316
33070SOL    HW2 1043  11.546   0.583   7.168
33071SOL     OW 1044  13.198   8.316  12.661
33071SOL    HW1 1045  13.251   8.281  12.590
33071SOL    HW2 1046  13.253   8.306  12.739
33072SOL     OW 1047   1.645  10.189  14.356
33072SOL    HW1 1048   1.619  10.255  14.292
33072SOL    HW2 1049   1.718  10.142  14.315
33073SOL     OW 1050   1.800  14.309   2.840
33073SOL    HW1 1051   1.831  14.339   2.926
33073SOL    HW2 1052   1.880  14.284   2.794
33074SOL     OW 1053   7.161   4.638  12.332
33074SOL    HW1 1054   7.158   4.626  12.237
33074SOL    HW2 1055   7.240   4.691  12.347
33075SOL     OW 1056   3.911   1.754   8.612
33075SOL    HW1 1057   3.981   1.717   8.558
33075SOL    HW2 1058   3.912   1.702   8.692
33076SOL     OW 1059  12.196   7.971   6.265
33076SOL    HW1 1060  12.283   8.005   6.242
33076SOL    HW2 1061  12.204   7.876   6.253
33077SOL     OW 1062   2.589   4.174  12.978
33077SOL    HW1 1063   2.553   4.259  12.950
33077SOL    HW2 1064   2.595   4.124  12.897
33078SOL     OW 1065   8.787   3.377  10.201
33078SOL    HW1 1066   8.850   3.417  10.140
33078SOL    HW2 1067   8.706   3.371  10.151
33079SOL     OW 1068   0.431  10.333   9.357
33079SOL    HW1 1069   0.492  10.261   9.374
33079SOL    HW2 1070   0.447  10.394   9.429
33080SOL     OW 1071  10.270   8.442   2.538
33080SOL    HW1 1072  10.282   8.414   2.629
33080SOL    HW2 1073  10.222   8.524   2.545
33081SOL     OW 1074  12.083   9.011   0.587
33081SOL    HW1 1075  12.102   9.056   0.505
33081SOL    HW2 1076  11.994   8.976   0.574
33082SOL     OW 1077   6.604   9.665   8.171
33082SOL    HW1 1078   6.549   9.617   8.232
33082SOL    HW2 1079   6.651   9.597   8.123
33083SOL     OW 1080   2.213   7.235   7.934
33083SOL    HW1 1081   2.268   7.312   7.949
33083SOL    HW2 1082   2.136   7.249   7.990
33084SOL     OW 1083   6.066  10.249   2.374
33084SOL    HW1 1084   6.061  10.202   2.291
33084SOL    HW2 1085   6.071  10.181   2.440
33085SOL     OW 1086   8.335   2.229   0.421
33085SOL    HW1 1087   8.344   2.324   0.435
33085SOL    HW2 1088   8.353   2.191   0.507
33086SOL     OW 1089   9.694   7.476   4.482
33086SOL    HW1 1090   9.717   7.416   4.553
33086SOL    HW2 1091   9.635   7.424   4.426
33087SOL     OW 1092  11.027   1.161   6.724
33087SOL    HW1 1093  11.009   1.118   6.807
33087SOL    HW2 1094  11.013   1.254   6.742
33088SOL     OW 1095  10.042   9.020  14.206
33088SOL    HW1 1096   9.968   9.013  14.265
33088SOL    HW2 1097  10.102   9.081  14.249
33089SOL     OW 1098   4.323   1.797  12.146
33089SOL    HW1 1099   4.333   1.801  12.051
33089SOL    HW2 1100   4.399   1.843  12.181
33090SOL     OW 1101  13.503   5.831   8.640
33090SOL    HW1 1102  13.462   5.812   8.725
33090SOL    HW2 1103  13.527   5.745   8.606
33091SOL     OW 1104   9.217   8.341   4.306
33091SOL    HW1 1105   9.250   8.271   4.362
33091SOL    HW2 1106   9.199   8.413   4.366
33092SOL     OW 1107  11.032   7.495   9.962
33092SOL    HW1 1108  11.018   7.408   9.924
33092SOL    HW2 1109  11.080   7.478  10.043
33093SOL     OW 1110   7.047   9.088  10.697
33093SOL    HW1 1111   6.998   9.109  10.618
33093SOL    HW2 1112   7.109   9.160  10.707
33094SOL     OW 1113   0.368  12.019   6.885
33094SOL    HW1 1114   0.290  11.975   6.850
33094SOL    HW2 1115   0.439  11.990   6.828
33095SOL     OW 1116   2.259   5.152   7.477
33095SOL    HW1 1117   2.183   5.096   7.466
33095SOL    HW2 1118   2.249   5.219   7.409
33096SOL     OW 1119   7.628   6.852  13.582
33096SOL    HW1 1120   7.679   6.794  13.526
33096SOL    HW2 1121   7.537   6.839  13.553
33097SOL     OW 1122  12.148   0.535   3.104
33097SOL    HW1 1123  12.191   0.461   3.147
33097SOL    HW2 1124  12.057   0.508   3.096
33098SOL     OW 1125   8.547   8.098  11.126
33098SOL    HW1 1126   8.549   8.059  11.213
33098SOL    HW2 1127   8.631   8.143  11.117
33099SOL     OW 1128  11.674  12.832   7.721
33099SOL    HW1 1129  11.756  12.878   7.739
33099SOL    HW2 1130  11.647  12.864   7.635
33100SOL     OW 1131  14.192   1.185   2.428
33100SOL    HW1 1132  14.167   1.133   2.351
33100SOL    HW2 1133  14.169   1.275   2.405
33101SOL     OW 1134   5.314   7.638  12.039
33101SOL    HW1 1135   5.294   7.657  11.947
33101SOL    HW2 1136   5.250   7.572  12.064
33102SOL     OW 1137  13.130  13.266   8.242
33102SOL    HW1 1138  13.078  13.221   8.176
33102SOL    HW2 1139  13.185  13.327   8.193
33103SOL     OW 1140  14.057   3.756   4.501
33103SOL    HW1 1141  14.079   3.804   4.582
33103SOL    HW2 1142  13.969   3.723   4.516
33104SOL     OW 1143   6.036   9.653   5.934
33104SOL    HW1 1144   5.945   9.681   5.946
33104SOL    HW2 1145   6.082   9.691   6.009
33105SOL     OW 1146  12.339  12.430  12.748
33105SOL    HW1 1147  12.355  12.410  12.656
33105SOL    HW2 1148  12.249  12.461  12.751
33106SOL     OW 1149  10.855  12.148   5.152
33106SOL    HW1 1150  10.765  12.167   5.127
33106SOL    HW2 1151  10.854  12.151   5.248
33107SOL     OW 1152   6.357  10.028   1.238
33107SOL    HW1 1153   6.290   9.981   1.188
33107SOL    HW2 1154   6.412   9.959   1.275
33108SOL     OW 1155   9.469  13.754   2.278
33108SOL    HW1 1156   9.476  13.685   2.213
33108SOL    HW2 1157   9.460  13.709   2.361
33109SOL     OW 1158  11.106  14.428   7.661
33109SOL    HW1 1159  11.037  14.491   7.639
33109SOL    HW2 1160  11.105  14.365   7.590
33110SOL     OW 1161   2.394   8.648   6.042
33110SOL    HW1 1162   2.449   8.647   5.964
33110SOL    HW2 1163   2.422   8.726   6.090
33111SOL     OW 1164   4.824   4.569   8.060
33111SOL    HW1 1165   4.895   4.519   8.099
33111SOL    HW2 1166   4.811   4.644   8.118
33112SOL     OW 1167  14.450  10.243  13.512
33112SOL    HW1 1168  14.470  10.224  13.604
33112SOL    HW2 1169  14.509  10.315  13.489
33113SOL     OW 1170   1.398   6.432  10.092
33113SOL    HW1 1171   1.347   6.413  10.171
33113SOL    HW2 1172   1.353   6.385  10.022
33114SOL     OW 1173   4.545   5.701  12.671
33114SOL    HW1 1174   4.551   5.623  12.726
33114SOL    HW2 1175   4.636   5.724  12.652
33115SOL     OW 1176  10.157   0.720  10.655
33115SOL    HW1 1177  10.178   0.802  10.700
33115SOL    HW2 1178  10.062   0.721  10.647
33116SOL     OW 1179   6.276   6.977   8.801
33116SOL    HW1 1180   6.319   6.992   8.717
33116SOL    HW2 1181   6.345   6.942   8.857
33117SOL     OW 1182  14.556   6.983   7.523
33117SOL    HW1 1183  14.600   7.050   7.470
33117SOL    HW2 1184  14.554   6.906   7.466
33118SOL     OW 1185   6.123   4.618   1.891
33118SOL    HW1 1186   6.102   4.653   1.804
33118SOL    HW2 1187   6.038   4.606   1.933
33119SOL     OW 1188   4.814  12.806  13.343
33119SOL    HW1 1189   4.847  12.789  13.431
33119SOL    HW2 1190   4.726  12.841  13.357
33120SOL     OW 1191   1.829   4.822   4.637
33120SOL    HW1 1192   1.837   4.752   4.572
33120SOL    HW2 1193   1.914   4.824   4.680
33121SOL     OW 1194  10.040   0.662   9.861
33121SOL    HW1 1195  10.010   0.726   9.925
33121SOL    HW2 1196  10.063   0.585   9.914
33122SOL     OW 1197  10.725   5.619   6.830
33122SOL    HW1 1198  10.740   5.620   6.735
33122SOL    HW2 1199  10.793   5.560   6.864
33123SOL     OW 1200   7.615   6.980  10.882
33123SOL    HW1 1201   7.522   6.956  10.882
33123SOL    HW2 1202   7.623   7.045  10.952
33124SOL     OW 1203  13.873   1.499   6.476
33124SOL    HW1 1204  13.799   1.553   6.447
33124SOL    HW2 1205  13.877   1.428   6.413
33125SOL     OW 1206   5.388  10.163   0.862
33125SOL    HW1 1207   5.338  10.119   0.794
33125SOL    HW2 1208   5.359  10.254   0.858
33126SOL     OW 1209   8.515   4.009   6.848
33126SOL    HW1 1210   8.594   3.963   6.879
33126SOL    HW2 1211   8.544   4.100   6.836
33127SOL     OW 1212   9.614   6.897  14.475
33127SOL    HW1 1213   9.628   6.865  14.564
33127SOL    HW2 1214   9.628   6.991  14.481
33128SOL     OW 1215   2.101   0.575  12.156
33128SOL    HW1 1216   2.152   0.541  12.083
33128SOL    HW2 1217   2.166   0.607  12.219
33129SOL     OW 1218   6.978  11.630   5.027
33129SOL    HW1 1219   7.059  11.626   5.077
33129SOL    HW2 1220   6.996  11.694   4.957
33130SOL     OW 1221   8.183   0.954   8.614
33130SOL    HW1 1222   8.204   1.004   8.535
33130SOL    HW2 1223   8.247   0.983   8.679
33131SOL     OW 1224   9.641   4.833   9.104
33131SOL    HW1 1225   9.639   4.741   9.130
33131SOL    HW2 1226   9.680   4.879   9.178
33132SOL     OW 1227  14.674   7.643   7.840
33132SOL    HW1 1228  14.680   7.552   7.868
33132SOL    HW2 1229  14.606   7.681   7.896
33133SOL     OW 1230  10.379   2.875   5.028
33133SOL    HW1 1231  10.293   2.846   5.059
33133SOL    HW2 1232  10.438   2.858   5.101
33134SOL     OW 1233   3.492   6.468  14.271
33134SOL    HW1 1234   3.483   6.419  14.190
33134SOL    HW2 1235   3.560   6.533  14.253
33135SOL     OW 1236   3.902  11.315   6.054
33135SOL    HW1 1237   3.824  11.261   6.044
33135SOL    HW2 1238   3.869  11.404   6.070
33136SOL     OW 1239   9.723   1.181  14.714
33136SOL    HW1 1240   9.747   1.163  14.623
33136SOL    HW2 1241   9.761   1.108  14.763
33137SOL     OW 1242   7.647   7.530   6.435
33137SOL    HW1 1243   7.712   7.600   6.440
33137SOL    HW2 1244   7.637   7.500   6.525
33138SOL     OW 1245  11.129   0.394   7.212
33138SOL    HW1 1246  11.093   0.324   7.267
33138SOL    HW2 1247  11.068   0.401   7.139
33139SOL     OW 1248   2.724  14.043   6.063
33139SOL    HW1 1249   2.684  14.127   6.087
33139SOL    HW2 1250   2.688  14.023   5.977
33140SOL     OW 1251   2.655   5.313   6.189
33140SOL    HW1 1252   2.597   5.373   6.142
33140SOL    HW2 1253   2.740   5.358   6.190
33141SOL     OW 1254   2.315   9.653   5.893
33141SOL    HW1 1255   2.244   9.650   5.828
33141SOL    HW2 1256   2.304   9.573   5.944
33142SOL     OW 1257   4.066   1.624   9.899
33142SOL    HW1 1258   4.099   1.646   9.986
33142SOL    HW2 1259   4.008   1.697   9.877
33143SOL     OW 1260   9.656   0.767  14.219
33143SOL    HW1 1261   9.601   0.732  14.148
33143SOL    HW2 1262   9.599   0.764  14.296
33144SOL     OW 1263  13.567   1.490  10.403
33144SOL    HW1 1264  13.481   1.447  10.404
33144SOL    HW2 1265  13.577   1.525  10.492
33145SOL     OW 1266   6.478  12.089   6.560
33145SOL    HW1 1267   6.508  12.040   6.483
33145SOL    HW2 1268   6.466  12.178   6.528
33146SOL     OW 1269   3.958  10.845   6.739
33146SOL    HW1 1270   3.865  10.868   6.737
33146SOL    HW2 1271   3.960  10.751   6.755
33147SOL     OW 1272   1.597   2.959  10.474
33147SOL    HW1 1273   1.673   2.910  10.505
33147SOL    HW2 1274   1.524   2.897  10.480
33148SOL     OW 1275  13.106   4.799  13.996
33148SOL    HW1 1276  13.067   4.717  14.026
33148SOL    HW2 1277  13.137   4.781  13.908
33149SOL     OW 1278  10.434  11.810  12.835
33149SOL    HW1 1279  10.404  11.884  12.887
33149SOL    HW2 1280  10.529  11.821  12.830
33150SOL     OW 1281  11.044   2.292  12.435
33150SOL    HW1 1282  10.990   2.367  12.461
33150SOL    HW2 1283  10.986   2.239  12.381
33151SOL     OW 1284   6.649  14.583  13.994
33151SOL    HW1 1285   6.687  14.533  14.066
33151SOL    HW2 1286   6.568  14.620  14.030
33152SOL     OW 1287  13.942   1.932   2.817
33152SOL    HW1 1288  13.994   1.983   2.755
33152SOL    HW2 1289  13.960   1.973   2.902
33153SOL     OW 1290   7.981  14.766   8.184
33153SOL    HW1 1291   7.904  14.809   8.147
33153SOL    HW2 1292   8.052  14.791   8.125
33154SOL     OW 1293  10.145  12.230  12.908
33154SOL    HW1 1294  10.154  12.306  12.965
33154SOL    HW2 1295  10.124  12.267  12.822
33155SOL     OW 1296   3.348   1.087  14.017
33155SOL    HW1 1297   3.317   0.998  14.035
33155SOL    HW2 1298   3.443   1.082  14.026
33156SOL     OW 1299  14.527   7.753   5.312
33156SOL    HW1 1300  14.573   7.698   5.376
33156SOL    HW2 1301  14.592   7.771   5.245
33157SOL     OW 1302   1.497   8.019   5.851
33157SOL    HW1 1303   1.518   7.952   5.916
33157SOL    HW2 1304   1.582   8.048   5.818
33158SOL     OW 1305   7.542  13.357   2.107
33158SOL    HW1 1306   7.560  13.276   2.155
33158SOL    HW2 1307   7.550  13.333   2.015
33159SOL     OW 1308   9.866   8.129   5.523
33159SOL    HW1 1309   9.865   8.118   5.618
33159SOL    HW2 1310   9.780   8.167   5.502
33160SOL     OW 1311  12.885  11.344   5.257
33160SOL    HW1 1312  12.976  11.323   5.234
33160SOL    HW2 1313  12.834  11.312   5.183
33161SOL     OW 1314   0.096   8.671   2.063
33161SOL    HW1 1315   0.142   8.587   2.053
33161SOL    HW2 1316   0.099   8.711   1.976
33162SOL     OW 1317   1.452   1.893   5.457
33162SOL    HW1 1318   1.458   1.898   5.362
33162SOL    HW2 1319   1.369   1.848   5.474
33163SOL     OW 1320  13.588   2.584   4.102
33163SOL    HW1 1321  13.533   2.612   4.029
33163SOL    HW2 1322  13.628   2.665   4.133
33164SOL     OW 1323   3.772   5.102   4.282
33164SOL    HW1 1324   3.818   5.116   4.364
33164SOL    HW2 1325   3.702   5.040   4.303
33165SOL     OW 1326   3.197   2.292   4.526
33165SOL    HW1 1327   3.266   2.226   4.532
33165SOL    HW2 1328   3.125   2.248   4.480
33166SOL     OW 1329   4.529   1.265   2.470
33166SOL    HW1 1330   4.492   1.340   2.423
33166SOL    HW2 1331   4.453   1.212   2.495
33167SOL     OW 1332   1.966   8.061   2.690
33167SOL    HW1 1333   2.060   8.045   2.692
33167SOL    HW2 1334   1.958   8.155   2.671
33168SOL     OW 1335   9.501   0.657  11.304
33168SOL    HW1 1336   9.474   0.617  11.387
33168SOL    HW2 1337   9.430   0.636  11.243
33169SOL     OW 1338   9.315   7.376   9.300
33169SOL    HW1 1339   9.298   7.298   9.246
33169SOL    HW2 1340   9.325   7.447   9.237
33170SOL     OW 1341  11.365   4.237   2.149
33170SOL    HW1 1342  11.358   4.314   2.092
33170SOL    HW2 1343  11.275   4.221   2.177
33171SOL     OW 1344  10.299   7.916  12.866
33171SOL    HW1 1345  10.298   7.835  12.814
33171SOL    HW2 1346  10.315   7.985  12.801
33172SOL     OW 1347   1.824   3.115   9.192
33172SOL    HW1 1348   1.758   3.055   9.228
33172SOL    HW2 1349   1.817   3.105   9.098
33173SOL     OW 1350   1.027   5.375   9.888
33173SOL    HW1 1351   1.033   5.293   9.937
33173SOL    HW2 1352   0.957   5.424   9.931
33174SOL     OW 1353   0.580   9.794   0.131
33174SOL    HW1 1354   0.585   9.726   0.199
33174SOL    HW2 1355   0.575   9.876   0.180
33175SOL     OW 1356  12.320  13.967  12.527
33175SOL    HW1 1357  12.336  13.994  12.437
33175SOL    HW2 1358  12.366  13.883  12.535
33176SOL     OW 1359   1.781   9.538   5.848
33176SOL    HW1 1360   1.752   9.533   5.757
33176SOL    HW2 1361   1.834   9.460   5.860
33177SOL     OW 1362  13.311  11.796   7.285
33177SOL    HW1 1363  13.286  11.759   7.370
33177SOL    HW2 1364  13.306  11.891   7.298
33178SOL     OW 1365   6.032   7.042  14.880
33178SOL    HW1 1366   6.024   7.039   0.094
33178SOL    HW2 1367   6.126   7.032  14.864
33179SOL     OW 1368   0.937   3.009   7.351
33179SOL    HW1 1369   0.947   2.997   7.256
33179SOL    HW2 1370   0.914   3.101   7.361
33180SOL     OW 1371   4.467   9.630   0.384
33180SOL    HW1 1372   4.530   9.640   0.313
33180SOL    HW2 1373   4.453   9.719   0.416
33181SOL     OW 1374  12.408   1.542  11.378
33181SOL    HW1 1375  12.446   1.495  11.452
33181SOL    HW2 1376  12.466   1.617  11.365
33182SOL     OW 1377   5.570   4.946   6.146
33182SOL    HW1 1378   5.495   5.005   6.143
33182SOL    HW2 1379   5.540   4.872   6.200
33183SOL     OW 1380  13.628  12.674   8.379
33183SOL    HW1 1381  13.644  12.768   8.372
33183SOL    HW2 1382  13.695  12.643   8.441
33184SOL     OW 1383  13.297   6.406   1.565
33184SOL    HW1 1384  13.344   6.338   1.517
33184SOL    HW2 1385  13.206   6.399   1.534
33185SOL     OW 1386   9.975   2.617   4.830
33185SOL    HW1 1387   9.922   2.592   4.906
33185SOL    HW2 1388   9.966   2.712   4.825
33186SOL     OW 1389  10.512  13.519   8.967
33186SOL    HW1 1390  10.587  13.572   8.941
33186SOL    HW2 1391  10.458  13.512   8.888
33187SOL     OW 1392  13.613   6.829   8.097
33187SOL    HW1 1393  13.560   6.812   8.175
33187SOL    HW2 1394  13.703   6.817   8.127
33188SOL     OW 1395   1.093   0.708   5.828
33188SOL    HW1 1396   1.070   0.632   5.882
33188SOL    HW2 1397   1.059   0.783   5.876
33189SOL     OW 1398  11.942   7.700   4.121
33189SOL    HW1 1399  11.857   7.678   4.159
33189SOL    HW2 1400  11.954   7.792   4.143
33190SOL     OW 1401   0.251  12.518   9.604
33190SOL    HW1 1402   0.323  12.548   9.659
33190SOL    HW2 1403   0.172  12.546   9.651
33191SOL     OW 1404   9.681  14.868   2.038
33191SOL    HW1 1405   9.641  14.828   1.961
33191SOL    HW2 1406   9.698   0.077   2.013
33192SOL     OW 1407  11.167   5.220   9.117
33192SOL    HW1 1408  11.097   5.238   9.054
33192SOL    HW2 1409  11.218   5.150   9.078
33193SOL     OW 1410   1.159  13.056   1.499
33193SOL    HW1 1411   1.102  13.060   1.576
33193SOL    HW2 1412   1.114  12.995   1.440
33194SOL     OW 1413   6.751  13.643   0.929
33194SOL    HW1 1414   6.729  13.730   0.896
33194SOL    HW2 1415   6.738  13.585   0.854
33195SOL     OW 1416   0.651   7.627   7.935
33195SOL    HW1 1417   0.719   7.672   7.985
33195SOL    HW2 1418   0.687   7.540   7.919
33196SOL     OW 1419  10.678  14.670  14.514
33196SOL    HW1 1420  10.695  14.672  14.608
33196SOL    HW2 1421  10.584  14.690  14.506
33197SOL     OW 1422   2.770   2.592   1.081
33197SOL    HW1 1423   2.780   2.540   1.161
33197SOL    HW2 1424   2.848   2.570   1.029
33198SOL     OW 1425   0.137   6.700   2.704
33198SOL    HW1 1426   0.183   6.700   2.621
33198SOL    HW2 1427   0.044   6.694   2.680
33199SOL     OW 1428  14.422   8.848   4.101
33199SOL    HW1 1429  14.399   8.761   4.133
33199SOL    HW2 1430  14.515   8.841   4.078
33200SOL     OW 1431   3.446   6.917   9.535
33200SOL    HW1 1432   3.420   6.852   9.601
33200SOL    HW2 1433   3.438   6.871   9.452
33201SOL     OW 1434   8.606   2.394   2.235
33201SOL    HW1 1435   8.660   2.349   2.170
33201SOL    HW2 1436   8.608   2.337   2.312
33202SOL     OW 1437   9.621   3.634   7.225
33202SOL    HW1 1438   9.630   3.569   7.295
33202SOL    HW2 1439   9.707   3.634   7.182
33203SOL     OW 1440  13.274   2.537  11.730
33203SOL    HW1 1441  13.181   2.516  11.737
33203SOL    HW2 1442  13.278   2.632  11.739
33204SOL     OW 1443  13.154   2.967   3.461
33204SOL    HW1 1444  13.211   2.894   3.485
33204SOL    HW2 1445  13.175   2.985   3.369
33205SOL     OW 1446   2.223  14.275  14.811
33205SOL    HW1 1447   2.302  14.324  14.787
33205SOL    HW2 1448   2.192  14.317   0.009
33206SOL     OW 1449  14.876  14.236  11.961
33206SOL    HW1 1450   0.031  14.164  12.012
33206SOL    HW2 1451  14.788  14.206  11.938
33207SOL     OW 1452  14.773   3.355   8.241
33207SOL    HW1 1453  14.729   3.440   8.236
33207SOL    HW2 1454  14.723   3.306   8.307
33208SOL     OW 1455  14.091   9.904  10.028
33208SOL    HW1 1456  14.124   9.875  10.113
33208SOL    HW2 1457  14.019   9.843  10.008
33209SOL     OW 1458   3.478   6.123   8.741
33209SOL    HW1 1459   3.417   6.051   8.726
33209SOL    HW2 1460   3.563   6.089   8.715
33210SOL     OW 1461   3.223  11.695   5.714
33210SOL    HW1 1462   3.223  11.704   5.809
33210SOL    HW2 1463   3.187  11.608   5.697
33211SOL     OW 1464   5.890   8.625   3.918
33211SOL    HW1 1465   5.892   8.721   3.916
33211SOL    HW2 1466   5.867   8.599   3.829
33212SOL     OW 1467  13.903   4.715  12.856
33212SOL    HW1 1468  13.987   4.756  12.839
33212SOL    HW2 1469  13.897   4.710  12.952
33213SOL     OW 1470  10.880   9.233   5.921
33213SOL    HW1 1471  10.853   9.235   6.013
33213SOL    HW2 1472  10.966   9.275   5.920
33214SOL     OW 1473   6.317   0.641   0.377
33214SOL    HW1 1474   6.362   0.670   0.298
33214SOL    HW2 1475   6.359   0.557   0.399
33215SOL     OW 1476   8.796   9.199   6.389
33215SOL    HW1 1477   8.790   9.294   6.387
33215SOL    HW2 1478   8.705   9.169   6.400
33216SOL     OW 1479  13.351   1.864   1.627
33216SOL    HW1 1480  13.406   1.789   1.607
33216SOL    HW2 1481  13.379   1.932   1.566
33217SOL     OW 1482  10.547   1.345   5.001
33217SOL    HW1 1483  10.568   1.429   5.042
33217SOL    HW2 1484  10.528   1.366   4.910
33218SOL     OW 1485   7.573   0.498   5.193
33218SOL    HW1 1486   7.510   0.509   5.264
33218SOL    HW2 1487   7.536   0.548   5.120
33219SOL     OW 1488   0.738  10.675   7.720
33219SOL    HW1 1489   0.812  10.621   7.690
33219SOL    HW2 1490   0.723  10.737   7.649
33220SOL     OW 1491  12.993   6.872  14.043
33220SOL    HW1 1492  13.087   6.891  14.051
33220SOL    HW2 1493  12.950   6.944  14.089
33221SOL     OW 1494   6.858  12.566   2.002
33221SOL    HW1 1495   6.782  12.557   2.060
33221SOL    HW2 1496   6.860  12.484   1.952
33222SOL     OW 1497  11.157   3.646  10.992
33222SOL    HW1 1498  11.220   3.586  10.952
33222SOL    HW2 1499  11.098   3.670  10.920
33223SOL     OW 1500  14.186  11.727   9.937
33223SOL    HW1 1501  14.256  11.667   9.963
33223SOL    HW2 1502  14.139  11.680   9.867
33224SOL     OW 1503  13.434  11.694  12.076
33224SOL    HW1 1504  13.409  11.655  11.992
33224SOL    HW2 1505  13.371  11.657  12.138
33225SOL     OW 1506   9.186   3.286   6.471
33225SOL    HW1 1507   9.229   3.220   6.417
33225SOL    HW2 1508   9.135   3.236   6.535
33226SOL     OW 1509   1.647  10.350  14.130
33226SOL    HW1 1510   1.717  10.411  14.106
33226SOL    HW2 1511   1.567  10.402  14.123
33227SOL     OW 1512   7.829  14.751  11.534
33227SOL    HW1 1513   7.736  14.760  11.514
33227SOL    HW2 1514   7.853  14.834  11.575
33228SOL     OW 1515   1.902  10.133   1.483
33228SOL    HW1 1516   1.833  10.196   1.462
33228SOL    HW2 1517   1.897  10.068   1.413
33229SOL     OW 1518   7.844  14.123  11.697
33229SOL    HW1 1519   7.814  14.138  11.787
33229SOL    HW2 1520   7.770  14.149  11.643
33230SOL     OW 1521   2.665   4.387   2.034
33230SOL    HW1 1522   2.573   4.371   2.055
33230SOL    HW2 1523   2.663   4.429   1.947
33231SOL     OW 1524  13.530   8.980   2.707
33231SOL    HW1 1525  13.598   8.933   2.660
33231SOL    HW2 1526  13.494   8.916   2.769
33232SOL     OW 1527  12.330   1.883   0.418
33232SOL    HW1 1528  12.267   1.955   0.410
33232SOL    HW2 1529  12.413   1.925   0.437
33233SOL     OW 1530  10.914   3.883  11.946
33233SOL    HW1 1531  10.902   3.969  11.905
33233SOL    HW2 1532  10.842   3.830  11.910
33234SOL     OW 1533   1.682   5.025  11.591
33234SOL    HW1 1534   1.689   4.944  11.542
33234SOL    HW2 1535   1.732   5.009  11.671
33235SOL     OW 1536   3.570   0.009  14.841
33235SOL    HW1 1537   3.553   0.080  14.778
33235SOL    HW2 1538   3.514  14.819  14.812
33236SOL     OW 1539  12.307  12.653   3.565
33236SOL    HW1 1540  12.240  12.713   3.598
33236SOL    HW2 1541  12.336  12.693   3.482
33237SOL     OW 1542   7.364   7.540   5.183
33237SOL    HW1 1543   7.406   7.597   5.120
33237SOL    HW2 1544   7.433   7.518   5.246
33238SOL     OW 1545   0.126  10.708   9.645
33238SOL    HW1 1546   0.175  10.674   9.720
33238SOL    HW2 1547   0.121  10.802   9.661
33239SOL     OW 1548   6.036   7.260  10.208
33239SOL    HW1 1549   6.099   7.301  10.148
33239SOL    HW2 1550   6.089   7.219  10.276
33240SOL     OW 1551   7.417   1.007   3.303
33240SOL    HW1 1552   7.418   1.098   3.274
33240SOL    HW2 1553   7.507   0.990   3.330
33241SOL     OW 1554   5.732  13.221  10.143
33241SOL    HW1 1555   5.825  13.199  10.153
33241SOL    HW2 1556   5.685  13.142  10.171
33242SOL     OW 1557  10.490   1.031   8.701
33242SOL    HW1 1558  10.573   1.022   8.652
33242SOL    HW2 1559  10.427   0.979   8.651
33243SOL     OW 1560  14.319   3.343   6.836
33243SOL    HW1 1561  14.314   3.428   6.794
33243SOL    HW2 1562  14.237   3.335   6.884
33244SOL     OW 1563   1.059   5.169   2.854
33244SOL    HW1 1564   1.145   5.205   2.877
33244SOL    HW2 1565   1.004   5.246   2.840
33245SOL     OW 1566   0.353   8.018   5.595
33245SOL    HW1 1567   0.334   8.014   5.689
33245SOL    HW2 1568   0.360   8.111   5.576
33246SOL     OW 1569   2.843   2.025  14.080
33246SOL    HW1 1570   2.792   2.103  14.058
33246SOL    HW2 1571   2.829   1.966  14.006
33247SOL     OW 1572   9.719  11.754   1.858
33247SOL    HW1 1573   9.702  11.665   1.890
33247SOL    HW2 1574   9.720  11.807   1.938
33248SOL     OW 1575  10.948   1.397   8.173
33248SOL    HW1 1576  10.959   1.445   8.256
33248SOL    HW2 1577  10.859   1.416   8.145
33249SOL     OW 1578  12.030   3.846   6.639
33249SOL    HW1 1579  12.083   3.815   6.712
33249SOL    HW2 1580  12.093   3.884   6.577
33250SOL     OW 1581  10.744   0.524  14.315
33250SOL    HW1 1582  10.667   0.548  14.366
33250SOL    HW2 1583  10.733   0.430  14.298
33251SOL     OW 1584   6.555   3.925   1.360
33251SOL    HW1 1585   6.604   3.848   1.331
33251SOL    HW2 1586   6.526   3.967   1.280
33252SOL     OW 1587   7.565   8.821   2.531
33252SOL    HW1 1588   7.576   8.886   2.600
33252SOL    HW2 1589   7.649   8.821   2.484
33253SOL     OW 1590  11.325   4.122   8.988
33253SOL    HW1 1591  11.287   4.198   9.032
33253SOL    HW2 1592  11.305   4.048   9.045
33254SOL     OW 1593   0.366   1.179  12.699
33254SOL    HW1 1594   0.438   1.220  12.651
33254SOL    HW2 1595   0.304   1.250  12.714
33255SOL     OW 1596   4.668   7.340   6.190
33255SOL    HW1 1597   4.659   7.252   6.225
33255SOL    HW2 1598   4.596   7.350   6.128
33256SOL     OW 1599   6.617   9.866   4.168
33256SOL    HW1 1600   6.552   9.824   4.224
33256SOL    HW2 1601   6.639   9.948   4.213
33257SOL     OW 1602  14.448   9.015   3.330
33257SOL    HW1 1603  14.368   8.970   3.304
33257SOL    HW2 1604  14.518   8.951   3.315
33258SOL     OW 1605   1.543   1.158   3.589
33258SOL    HW1 1606   1.602   1.213   3.537
33258SOL    HW2 1607   1.455   1.182   3.561
33259SOL     OW 1608   9.792   3.395   0.467
33259SOL    HW1 1609   9.820   3.462   0.530
33259SOL    HW2 1610   9.724   3.345   0.514
33260SOL     OW 1611   7.596   6.290   6.965
33260SOL    HW1 1612   7.635   6.369   6.928
33260SOL    HW2 1613   7.529   6.323   7.025
33261SOL     OW 1614  12.933   8.668   5.838
33261SOL    HW1 1615  13.002   8.697   5.898
33261SOL    HW2 1616  12.979   8.615   5.772
33262SOL     OW 1617   3.276   0.953  14.777
33262SOL    HW1 1618   3.348   0.932  14.717
33262SOL    HW2 1619   3.318   1.002  14.848
33263SOL     OW 1620   1.323  10.493   5.292
33263SOL    HW1 1621   1.256  10.560   5.283
33263SOL    HW2 1622   1.400  10.540   5.324
33264SOL     OW 1623   0.207   0.595  12.585
33264SOL    HW1 1624   0.250   0.614  12.502
33264SOL    HW2 1625   0.262   0.637  12.651
33265SOL     OW 1626   3.949  10.581  12.503
33265SOL    HW1 1627   4.029  10.631  12.491
33265SOL    HW2 1628   3.929  10.546  12.416
33266SOL     OW 1629   5.464  10.906   9.392
33266SOL    HW1 1630   5.428  10.826   9.431
33266SOL    HW2 1631   5.387  10.958   9.368
33267SOL     OW 1632  14.872   8.183  12.217
33267SOL    HW1 1633   0.079   8.149  12.212
33267SOL    HW2 1634  14.833   8.138  12.293
33268SOL     OW 1635  14.617   0.701  13.706
33268SOL    HW1 1636  14.652   0.757  13.637
33268SOL    HW2 1637  14.610   0.758  13.782
33269SOL     OW 1638   8.577   1.331   7.398
33269SOL    HW1 1639   8.635   1.254   7.404
33269SOL    HW2 1640   8.597   1.368   7.312
33270SOL     OW 1641   4.552  13.802   0.994
33270SOL    HW1 1642   4.540  13.894   0.972
33270SOL    HW2 1643   4.474  13.759   0.960
33271SOL     OW 1644   8.190  14.310  11.463
33271SOL    HW1 1645   8.165  14.284  11.551
33271SOL    HW2 1646   8.107  14.321  11.416
33272SOL     OW 1647  13.830  10.018   1.872
33272SOL    HW1 1648  13.772  10.079   1.827
33272SOL    HW2 1649  13.894   9.993   1.807
33273SOL     OW 1650   8.511  11.727   3.621
33273SOL    HW1 1651   8.473  11.748   3.536
33273SOL    HW2 1652   8.553  11.808   3.650
33274SOL     OW 1653   0.982   6.979  11.017
33274SOL    HW1 1654   0.981   6.911  10.950
33274SOL    HW2 1655   0.944   7.056  10.974
33275SOL     OW 1656   0.364   1.171  13.393
33275SOL    HW1 1657   0.293   1.112  13.418
33275SOL    HW2 1658   0.444   1.123  13.413
33276SOL     OW 1659   8.035   0.154   0.316
33276SOL    HW1 1660   7.945   0.186   0.307
33276SOL    HW2 1661   8.067   0.192   0.397
33277SOL     OW 1662   5.410  14.832   4.367
33277SOL    HW1 1663   5.323  14.865   4.385
33277SOL    HW2 1664   5.437  14.789   4.448
33278SOL     OW 1665   2.491  14.726   6.442
33278SOL    HW1 1666   2.476  14.651   6.384
33278SOL    HW2 1667   2.521  14.688   6.524
33279SOL     OW 1668   1.124  14.298  13.131
33279SOL    HW1 1669   1.099  14.340  13.213
33279SOL    HW2 1670   1.220  14.307  13.128
33280SOL     OW 1671   9.781  12.879   9.742
33280SOL    HW1 1672   9.716  12.824   9.700
33280SOL    HW2 1673   9.800  12.835   9.825
33281SOL     OW 1674  10.038   4.061  10.321
33281SOL    HW1 1675  10.001   4.120  10.388
33281SOL    HW2 1676  10.125   4.098  10.303
33282SOL     OW 1677   8.850   9.227  12.007
33282SOL    HW1 1678   8.937   9.202  11.976
33282SOL    HW2 1679   8.790   9.173  11.955
33283SOL     OW 1680   7.382  13.525   7.088
33283SOL    HW1 1681   7.392  13.433   7.064
33283SOL    HW2 1682   7.288  13.539   7.091
33284SOL     OW 1683   0.840   5.996   1.996
33284SOL    HW1 1684   0.895   6.007   1.918
33284SOL    HW2 1685   0.761   5.952   1.964
33285SOL     OW 1686   2.712   3.995   4.027
33285SOL    HW1 1687   2.702   4.018   3.935
33285SOL    HW2 1688   2.807   3.985   4.039
33286SOL     OW 1689  14.744   5.420   6.069
33286SOL    HW1 1690  14.806   5.364   6.022
33286SOL    HW2 1691  14.663   5.369   6.071
33287SOL     OW 1692   4.813  12.935   0.560
33287SOL    HW1 1693   4.803  12.862   0.621
33287SOL    HW2 1694   4.783  13.011   0.609
33288SOL     OW 1695  11.013   2.721   8.412
33288SOL    HW1 1696  10.984   2.679   8.331
33288SOL    HW2 1697  11.036   2.810   8.385
33289SOL     OW 1698   1.475   9.649   2.761
33289SOL    HW1 1699   1.446   9.628   2.849
33289SOL    HW2 1700   1.567   9.622   2.758
33290SOL     OW 1701   4.808  10.365   3.723
33290SOL    HW1 1702   4.778  10.328   3.640
33290SOL    HW2 1703   4.901  10.345   3.726
33291SOL     OW 1704   9.010   2.703   9.611
33291SOL    HW1 1705   8.950   2.701   9.685
33291SOL    HW2 1706   8.984   2.628   9.557
33292SOL     OW 1707   5.275   6.190   8.294
33292SOL    HW1 1708   5.224   6.198   8.375
33292SOL    HW2 1709   5.226   6.241   8.230
33293SOL     OW 1710   7.985   3.465  13.083
33293SOL    HW1 1711   7.929   3.402  13.128
33293SOL    HW2 1712   7.937   3.488  13.004
33294SOL     OW 1713   5.297  14.336  10.442
33294SOL    HW1 1714   5.250  14.366  10.520
33294SOL    HW2 1715   5.355  14.267  10.474
33295SOL     OW 1716  13.392  13.377  10.562
33295SOL    HW1 1717  13.456  13.424  10.615
33295SOL    HW2 1718  13.408  13.285  10.581
33296SOL     OW 1719   0.466  14.836  10.167
33296SOL    HW1 1720   0.408  14.818  10.242
33296SOL    HW2 1721   0.418   0.019  10.115
33297SOL     OW 1722   8.881   2.176   1.181
33297SOL    HW1 1723   8.899   2.170   1.275
33297SOL    HW2 1724   8.945   2.240   1.149
33298SOL     OW 1725   5.689   9.815   0.444
33298SOL    HW1 1726   5.760   9.879   0.436
33298SOL    HW2 1727   5.643   9.819   0.360
33299SOL     OW 1728   4.339   7.171   8.370
33299SOL    HW1 1729   4.333   7.082   8.336
33299SOL    HW2 1730   4.321   7.162   8.464
33300SOL     OW 1731   6.110   4.194   2.238
33300SOL    HW1 1732   6.057   4.174   2.160
33300SOL    HW2 1733   6.051   4.242   2.295
33301SOL     OW 1734   5.037   5.549   7.275
33301SOL    HW1 1735   5.123   5.550   7.233
33301SOL    HW2 1736   5.053   5.517   7.363
33302SOL     OW 1737  11.187   7.023   5.322
33302SOL    HW1 1738  11.150   6.990   5.239
33302SOL    HW2 1739  11.114   7.017   5.384
33303SOL     OW 1740  12.421  11.933   9.112
33303SOL    HW1 1741  12.457  11.994   9.047
33303SOL    HW2 1742  12.495  11.879   9.137
33304SOL     OW 1743   2.227   7.338   4.880
33304SOL    HW1 1744   2.210   7.403   4.812
33304SOL    HW2 1745   2.281   7.383   4.944
33305SOL     OW 1746  14.106   4.499   3.627
33305SOL    HW1 1747  14.200   4.518   3.623
33305SOL    HW2 1748  14.092   4.466   3.715
33306SOL     OW 1749   0.619   5.423   5.428
33306SOL    HW1 1750   0.591   5.422   5.519
33306SOL    HW2 1751   0.676   5.347   5.419
33307SOL     OW 1752   5.864   7.859   3.124
33307SOL    HW1 1753   5.794   7.894   3.068
33307SOL    HW2 1754   5.943   7.902   3.092
33308SOL     OW 1755   0.956  11.897   0.734
33308SOL    HW1 1756   0.976  11.874   0.643
33308SOL    HW2 1757   0.997  11.983   0.747
33309SOL     OW 1758   1.330  10.617   9.659
33309SOL    HW1 1759   1.303  10.708   9.671
33309SOL    HW2 1760   1.347  10.609   9.565
33310SOL     OW 1761   3.591   7.707  11.974
33310SOL    HW1 1762   3.583   7.762  12.052
33310SOL    HW2 1763   3.502   7.677  11.956
33311SOL     OW 1764   1.862  13.000   5.286
33311SOL    HW1 1765   1.799  12.943   5.241
33311SOL    HW2 1766   1.947  12.972   5.252
33312SOL     OW 1767   9.710  11.447   3.517
33312SOL    HW1 1768   9.788  11.462   3.464
33312SOL    HW2 1769   9.681  11.359   3.492
33313SOL     OW 1770   2.302   1.030  13.886
33313SOL    HW1 1771   2.372   1.087  13.917
33313SOL    HW2 1772   2.235   1.090  13.853
33314SOL     OW 1773   8.719   7.175  12.419
33314SOL    HW1 1774   8.786   7.132  12.472
33314SOL    HW2 1775   8.685   7.106  12.363
33315SOL     OW 1776   4.773  10.930   3.707
33315SOL    HW1 1777   4.718  11.008   3.697
33315SOL    HW2 1778   4.862  10.963   3.697
33316SOL     OW 1779   4.136   0.045   4.460
33316SOL    HW1 1780   4.096   0.060   4.545
33316SOL    HW2 1781   4.080   0.091   4.397
33317SOL     OW 1782   8.436   5.107   3.185
33317SOL    HW1 1783   8.504   5.081   3.247
33317SOL    HW2 1784   8.475   5.095   3.099
33318SOL     OW 1785   7.791   7.227   7.116
33318SOL    HW1 1786   7.850   7.296   7.086
33318SOL    HW2 1787   7.756   7.189   7.035
33319SOL     OW 1788  12.349   7.955  12.555
33319SOL    HW1 1789  12.295   7.972  12.631
33319SOL    HW2 1790  12.410   8.030  12.552
33320SOL     OW 1791   6.345   1.905   3.479
33320SOL    HW1 1792   6.363   1.923   3.571
33320SOL    HW2 1793   6.332   1.992   3.440
33321SOL     OW 1794   6.478  10.260  11.169
33321SOL    HW1 1795   6.458  10.207  11.246
33321SOL    HW2 1796   6.431  10.342  11.183
33322SOL     OW 1797   5.428  10.558   3.394
33322SOL    HW1 1798   5.463  10.587   3.478
33322SOL    HW2 1799   5.494  10.586   3.330
33323SOL     OW 1800   7.635   2.465  14.466
33323SOL    HW1 1801   7.665   2.536  14.523
33323SOL    HW2 1802   7.714   2.434  14.422
33324SOL     OW 1803   7.558   7.826  12.237
33324SOL    HW1 1804   7.588   7.903  12.189
33324SOL    HW2 1805   7.539   7.859  12.325
33325SOL     OW 1806   1.544   7.457  11.713
33325SOL    HW1 1807   1.460   7.414  11.694
33325SOL    HW2 1808   1.610   7.395  11.682
33326SOL     OW 1809   4.342   5.146  11.751
33326SOL    HW1 1810   4.359   5.147  11.845
33326SOL    HW2 1811   4.375   5.061  11.721
33327SOL     OW 1812   3.063  11.694   1.523
33327SOL    HW1 1813   3.118  11.710   1.600
33327SOL    HW2 1814   3.081  11.603   1.499
33328SOL     OW 1815   5.815   3.513   3.384
33328SOL    HW1 1816   5.806   3.593   3.331
33328SOL    HW2 1817   5.764   3.447   3.338
33329SOL     OW 1818   2.273   4.206  12.663
33329SOL    HW1 1819   2.207   4.138  12.649
33329SOL    HW2 1820   2.224   4.277  12.704
33330SOL     OW 1821   4.526   6.707   9.277
33330SOL    HW1 1822   4.578   6.630   9.253
33330SOL    HW2 1823   4.583   6.757   9.335
33331SOL     OW 1824   3.662  12.795   6.530
33331SOL    HW1 1825   3.752  12.819   6.550
33331SOL    HW2 1826   3.635  12.739   6.603
33332SOL     OW 1827   1.660   9.513  10.246
33332SOL    HW1 1828   1.604   9.568  10.300
33332SOL    HW2 1829   1.615   9.508  10.162
33333SOL     OW 1830   2.978  10.101   9.997
33333SOL    HW1 1831   2.975  10.013   9.961
33333SOL    HW2 1832   2.938  10.156   9.929
33334SOL     OW 1833  13.485  13.966   1.236
33334SOL    HW1 1834  13.546  14.015   1.292
33334SOL    HW2 1835  13.408  14.023   1.229
33335SOL     OW 1836   3.337   2.767   7.272
33335SOL    HW1 1837   3.391   2.691   7.292
33335SOL    HW2 1838   3.264   2.761   7.334
33336SOL     OW 1839   4.390   3.200  10.645
33336SOL    HW1 1840   4.461   3.141  10.671
33336SOL    HW2 1841   4.377   3.257  10.721
33337SOL     OW 1842   9.207  14.241  13.287
33337SOL    HW1 1843   9.228  14.331  13.313
33337SOL    HW2 1844   9.170  14.202  13.366
33338SOL     OW 1845  11.403   0.551   4.721
33338SOL    HW1 1846  11.400   0.468   4.767
33338SOL    HW2 1847  11.485   0.548   4.671
33339SOL     OW 1848   7.208  14.331   7.436
33339SOL    HW1 1849   7.123  14.372   7.452
33339SOL    HW2 1850   7.193  14.273   7.361
33340SOL     OW 1851   5.811  13.647   8.615
33340SOL    HW1 1852   5.842  13.570   8.663
33340SOL    HW2 1853   5.747  13.612   8.553
33341SOL     OW 1854  13.070   5.946   2.988
33341SOL    HW1 1855  13.108   5.901   2.913
33341SOL    HW2 1856  13.105   5.900   3.064
33342SOL     OW 1857  10.643   5.747   3.804
33342SOL    HW1 1858  10.638   5.699   3.722
33342SOL    HW2 1859  10.651   5.839   3.777
33343SOL     OW 1860  13.995   9.741   3.812
33343SOL    HW1 1861  13.928   9.783   3.864
33343SOL    HW2 1862  13.951   9.719   3.729
33344SOL     OW 1863   0.723  13.898  12.775
33344SOL    HW1 1864   0.756  13.969  12.720
33344SOL    HW2 1865   0.728  13.932  12.864
33345SOL     OW 1866  12.997   8.178   7.081
33345SOL    HW1 1867  13.001   8.213   6.992
33345SOL    HW2 1868  13.079   8.129   7.091
33346SOL     OW 1869   5.520  12.886   6.455
33346SOL    HW1 1870   5.584  12.822   6.486
33346SOL    HW2 1871   5.550  12.910   6.367
33347SOL     OW 1872  12.832   2.194   3.710
33347SOL    HW1 1873  12.751   2.145   3.724
33347SOL    HW2 1874  12.819   2.238   3.626
33348SOL     OW 1875  13.261   8.115   1.758
33348SOL    HW1 1876  13.175   8.130   1.798
33348SOL    HW2 1877  13.243   8.056   1.685
33349SOL     OW 1878  14.567   4.131  14.839
33349SOL    HW1 1879  14.489   4.115   0.010
33349SOL    HW2 1880  14.641   4.115   0.016
33350SOL     OW 1881   0.055   8.986  10.046
33350SOL    HW1 1882   0.120   8.941  10.100
33350SOL    HW2 1883   0.006   8.916  10.003
33351SOL     OW 1884  13.958   2.227   2.455
33351SOL    HW1 1885  13.995   2.296   2.400
33351SOL    HW2 1886  13.898   2.180   2.397
33352SOL     OW 1887  10.139   3.377   3.641
33352SOL    HW1 1888  10.075   3.316   3.605
33352SOL    HW2 1889  10.086   3.443   3.685
33353SOL     OW 1890   4.695   2.647   7.558
33353SOL    HW1 1891   4.666   2.580   7.495
33353SOL    HW2 1892   4.690   2.729   7.510
33354SOL     OW 1893  11.324  12.616   6.385
33354SOL    HW1 1894  11.287  12.591   6.470
33354SOL    HW2 1895  11.249  12.615   6.326
33355SOL     OW 1896  12.330   3.607   0.218
33355SOL    HW1 1897  12.264   3.553   0.174
33355SOL    HW2 1898  12.313   3.696   0.188
33356SOL     OW 1899  10.614  10.674   7.342
33356SOL    HW1 1900  10.541  10.615   7.360
33356SOL    HW2 1901  10.601  10.702   7.251
33357SOL     OW 1902   2.701   1.273   3.706
33357SOL    HW1 1903   2.659   1.241   3.786
33357SOL    HW2 1904   2.699   1.368   3.714
33358SOL     OW 1905  14.640   5.731   7.192
33358SOL    HW1 1906  14.670   5.642   7.209
33358SOL    HW2 1907  14.635   5.771   7.279
33359SOL     OW 1908  13.840   1.569   0.461
33359SOL    HW1 1909  13.837   1.474   0.449
33359SOL    HW2 1910  13.780   1.586   0.533
33360SOL     OW 1911   4.611  12.047  12.464
33360SOL    HW1 1912   4.567  12.085  12.387
33360SOL    HW2 1913   4.545  11.991  12.504
33361SOL     OW 1914   6.069   5.876  13.828
33361SOL    HW1 1915   6.108   5.950  13.875
33361SOL    HW2 1916   5.975   5.885  13.845
33362SOL     OW 1917   3.388  10.242  10.206
33362SOL    HW1 1918   3.334  10.191  10.145
33362SOL    HW2 1919   3.325  10.293  10.257
33363SOL     OW 1920   3.122   0.142   4.839
33363SOL    HW1 1921   3.169   0.122   4.759
33363SOL    HW2 1922   3.173   0.211   4.881
33364SOL     OW 1923   8.307   3.825   5.454
33364SOL    HW1 1924   8.219   3.860   5.461
33364SOL    HW2 1925   8.301   3.758   5.387
33365SOL     OW 1926   4.776  14.368   3.483
33365SOL    HW1 1927   4.722  14.380   3.561
33365SOL    HW2 1928   4.721  14.319   3.423
33366SOL     OW 1929  12.053   6.687   4.949
33366SOL    HW1 1930  12.100   6.637   4.883
33366SOL    HW2 1931  12.097   6.665   5.031
33367SOL     OW 1932   0.512   0.010  12.850
33367SOL    HW1 1933   0.552   0.096  12.863
33367SOL    HW2 1934   0.440   0.007  12.913
33368SOL     OW 1935  13.267   6.239  14.139
33368SOL    HW1 1936  13.237   6.148  14.144
33368SOL    HW2 1937  13.362   6.233  14.146
33369SOL     OW 1938   2.443   9.212  13.318
33369SOL    HW1 1939   2.410   9.180  13.234
33369SOL    HW2 1940   2.374   9.269  13.351
33370SOL     OW 1941   0.441   5.748  13.839
33370SOL    HW1 1942   0.383   5.734  13.764
33370SOL    HW2 1943   0.529   5.749  13.802
33371SOL     OW 1944   2.871   2.336  12.935
33371SOL    HW1 1945   2.824   2.320  13.016
33371SOL    HW2 1946   2.845   2.425  12.909
33372SOL     OW 1947   1.203   3.974   9.968
33372SOL    HW1 1948   1.255   3.942   9.895
33372SOL    HW2 1949   1.137   3.906   9.983
33373SOL     OW 1950  10.128   1.751  14.431
33373SOL    HW1 1951  10.203   1.722  14.484
33373SOL    HW2 1952  10.092   1.825  14.480
33374SOL     OW 1953   2.217  10.254   2.427
33374SOL    HW1 1954   2.178  10.324   2.374
33374SOL    HW2 1955   2.209  10.176   2.373
33375SOL     OW 1956   5.904  13.783  13.509
33375SOL    HW1 1957   5.936  13.830  13.431
33375SOL    HW2 1958   5.851  13.712  13.474
33376SOL     OW 1959   5.826  13.613   9.033
33376SOL    HW1 1960   5.861  13.533   8.994
33376SOL    HW2 1961   5.732  13.610   9.014
33377SOL     OW 1962   4.514   0.401   9.074
33377SOL    HW1 1963   4.531   0.475   9.015
33377SOL    HW2 1964   4.455   0.345   9.025
33378SOL     OW 1965  14.146  13.550   3.632
33378SOL    HW1 1966  14.152  13.455   3.643
33378SOL    HW2 1967  14.147  13.564   3.538
33379SOL     OW 1968   9.648  10.517  12.919
33379SOL    HW1 1969   9.711  10.446  12.921
33379SOL    HW2 1970   9.637  10.543  13.010
33380SOL     OW 1971  11.776   0.264  14.423
33380SOL    HW1 1972  11.756   0.313  14.503
33380SOL    HW2 1973  11.869   0.244  14.429
33381SOL     OW 1974  14.158  12.038   0.405
33381SOL    HW1 1975  14.110  12.120   0.414
33381SOL    HW2 1976  14.096  11.971   0.433
33382SOL     OW 1977  13.521  11.809  14.609
33382SOL    HW1 1978  13.566  11.746  14.666
33382SOL    HW2 1979  13.534  11.775  14.521
33383SOL     OW 1980  12.687  12.129  11.453
33383SOL    HW1 1981  12.608  12.092  11.491
33383SOL    HW2 1982  12.680  12.111  11.359
33384SOL     OW 1983   6.398  11.405  10.334
33384SOL    HW1 1984   6.309  11.371  10.324
33384SOL    HW2 1985   6.390  11.499  10.320
33385SOL     OW 1986   4.804   5.719   4.876
33385SOL    HW1 1987   4.758   5.729   4.792
33385SOL    HW2 1988   4.788   5.802   4.922
33386SOL     OW 1989   7.353  13.467  14.415
33386SOL    HW1 1990   7.376  13.456  14.322
33386SOL    HW2 1991   7.275  13.413  14.427
33387SOL     OW 1992  11.744  13.815  12.819
33387SOL    HW1 1993  11.834  13.809  12.852
33387SOL    HW2 1994  11.727  13.730  12.780
33388SOL     OW 1995  10.440   4.966  12.255
33388SOL    HW1 1996  10.455   4.959  12.349
33388SOL    HW2 1997  10.479   5.050  12.230
33389SOL     OW 1998   8.869  11.379   1.181
33389SOL    HW1 1999   8.896  11.310   1.121
33389SOL    HW2 2000   8.861  11.336   1.266
33390SOL     OW 2001   4.999   5.494   7.863
33390SOL    HW1 2002   5.038   5.518   7.947
33390SOL    HW2 2003   5.046   5.547   7.798
33391SOL     OW 2004  11.198   6.771  11.925
33391SOL    HW1 2005  11.155   6.715  11.989
33391SOL    HW2 2006  11.233   6.710  11.860
33392SOL     OW 2007   2.034   9.188   4.768
33392SOL    HW1 2008   1.942   9.202   4.746
33392SOL    HW2 2009   2.071   9.277   4.774
33393SOL     OW 2010   3.203   2.620   2.780
33393SOL    HW1 2011   3.223   2.633   2.688
33393SOL    HW2 2012   3.271   2.560   2.811
33394SOL     OW 2013   4.795   2.619   5.057
33394SOL    HW1 2014   4.774   2.634   5.149
33394SOL    HW2 2015   4.809   2.525   5.050
33395SOL     OW 2016   9.299   1.907   1.687
33395SOL    HW1 2017   9.345   1.873   1.610
33395SOL    HW2 2018   9.247   1.980   1.655
33396SOL     OW 2019  11.367  13.231   6.529
33396SOL    HW1 2020  11.462  13.248   6.529
33396SOL    HW2 2021  11.346  13.210   6.619
33397SOL     OW 2022   8.324  12.940   9.644
33397SOL    HW1 2023   8.386  13.002   9.682
33397SOL    HW2 2024   8.327  12.959   9.550
33398SOL     OW 2025   2.338   2.805   9.686
33398SOL    HW1 2026   2.258   2.757   9.705
33398SOL    HW2 2027   2.357   2.854   9.766
33399SOL     OW 2028  14.134   5.730  13.041
33399SOL    HW1 2029  14.170   5.757  13.126
33399SOL    HW2 2030  14.147   5.635  13.038
33400SOL     OW 2031  11.309  13.583   9.773
33400SOL    HW1 2032  11.243  13.634   9.819
33400SOL    HW2 2033  11.315  13.624   9.686
33401SOL     OW 2034   6.902  13.351  14.043
33401SOL    HW1 2035   6.889  13.269  14.090
33401SOL    HW2 2036   6.832  13.353  13.978
33402SOL     OW 2037   5.427   8.102  14.737
33402SOL    HW1 2038   5.413   8.188  14.778
33402SOL    HW2 2039   5.516   8.078  14.759
33403SOL     OW 2040   9.005  10.824   5.319
33403SOL    HW1 2041   9.007  10.893   5.252
33403SOL    HW2 2042   9.044  10.865   5.397
33404SOL     OW 2043   9.810   2.112   4.625
33404SOL    HW1 2044   9.776   2.023   4.639
33404SOL    HW2 2045   9.844   2.138   4.711
33405SOL     OW 2046  12.334  11.168   5.613
33405SOL    HW1 2047  12.269  11.238   5.601
33405SOL    HW2 2048  12.404  11.209   5.664
33406SOL     OW 2049   0.003   0.821   0.709
33406SOL    HW1 2050   0.053   0.901   0.725
33406SOL    HW2 2051   0.033   0.760   0.776
33407SOL     OW 2052   3.508  13.202   0.212
33407SOL    HW1 2053   3.589  13.253   0.206
33407SOL    HW2 2054   3.516  13.154   0.294
33408SOL     OW 2055   4.780  14.140   9.893
33408SOL    HW1 2056   4.775  14.080   9.818
33408SOL    HW2 2057   4.852  14.107   9.946
33409SOL     OW 2058  10.282   6.357   2.500
33409SOL    HW1 2059  10.305   6.449   2.483
33409SOL    HW2 2060  10.193   6.360   2.534
33410SOL     OW 2061   0.569   8.282  13.803
33410SOL    HW1 2062   0.515   8.238  13.869
33410SOL    HW2 2063   0.616   8.211  13.759
33411SOL     OW 2064   4.378  14.063   1.736
33411SOL    HW1 2065   4.381  14.050   1.830
33411SOL    HW2 2066   4.286  14.080   1.716
33412SOL     OW 2067   3.479  13.116   9.643
33412SOL    HW1 2068   3.477  13.208   9.670
33412SOL    HW2 2069   3.395  13.101   9.601
33413SOL     OW 2070  13.449   8.671   3.487
33413SOL    HW1 2071  13.371   8.716   3.456
33413SOL    HW2 2072  13.487   8.731   3.551
33414SOL     OW 2073   4.998   5.878   7.108
33414SOL    HW1 2074   5.079   5.891   7.156
33414SOL    HW2 2075   5.024   5.878   7.016
33415SOL     OW 2076  13.456  13.688   0.197
33415SOL    HW1 2077  13.518  13.626   0.159
33415SOL    HW2 2078  13.465  13.767   0.144
33416SOL     OW 2079  10.818   0.177   8.519
33416SOL    HW1 2080  10.778   0.264   8.517
33416SOL    HW2 2081  10.889   0.185   8.583
33417SOL     OW 2082   4.659   7.198   3.644
33417SOL    HW1 2083   4.599   7.188   3.570
33417SOL    HW2 2084   4.678   7.109   3.672
33418SOL     OW 2085  10.415   4.228   4.614
33418SOL    HW1 2086  10.322   4.236   4.635
33418SOL    HW2 2087  10.460   4.247   4.697
33419SOL     OW 2088   2.998  11.126  11.088
33419SOL    HW1 2089   3.025  11.211  11.123
33419SOL    HW2 2090   2.902  11.131  11.084
33420SOL     OW 2091   7.060   2.726   3.280
33420SOL    HW1 2092   7.071   2.691   3.191
33420SOL    HW2 2093   7.051   2.820   3.267
33421SOL     OW 2094   2.995   3.191   5.912
33421SOL    HW1 2095   2.937   3.245   5.857
33421SOL    HW2 2096   3.058   3.254   5.948
33422SOL     OW 2097   0.442  14.554   6.467
33422SOL    HW1 2098   0.444  14.500   6.388
33422SOL    HW2 2099   0.399  14.499   6.532
33423SOL     OW 2100   1.552  10.653   4.209
33423SOL    HW1 2101   1.612  10.609   4.270
33423SOL    HW2 2102   1.466  10.644   4.249
33424SOL     OW 2103   4.895  13.791   3.755
33424SOL    HW1 2104   4.876  13.786   3.849
33424SOL    HW2 2105   4.920  13.702   3.731
33425SOL     OW 2106   5.613   7.413   0.824
33425SOL    HW1 2107   5.558   7.476   0.870
33425SOL    HW2 2108   5.647   7.356   0.892
33426SOL     OW 2109   4.537   4.316  10.129
33426SOL    HW1 2110   4.468   4.294  10.065
33426SOL    HW2 2111   4.611   4.343  10.076
33427SOL     OW 2112   1.064  10.847   6.179
33427SOL    HW1 2113   1.116  10.767   6.195
33427SOL    HW2 2114   1.126  10.907   6.138
33428SOL     OW 2115  10.031   2.630   2.865
33428SOL    HW1 2116  10.113   2.584   2.882
33428SOL    HW2 2117  10.002   2.596   2.780
33429SOL     OW 2118   9.113  10.223   1.984
33429SOL    HW1 2119   9.051  10.294   1.967
33429SOL    HW2 2120   9.057  10.150   2.012
33430SOL     OW 2121   0.233  14.698   7.246
33430SOL    HW1 2122   0.198  14.786   7.257
33430SOL    HW2 2123   0.316  14.699   7.294
33431SOL     OW 2124  13.146   8.794   7.042
33431SOL    HW1 2125  13.198   8.874   7.054
33431SOL    HW2 2126  13.211   8.725   7.029
33432SOL     OW 2127   2.627  11.135   7.264
33432SOL    HW1 2128   2.634  11.074   7.337
33432SOL    HW2 2129   2.533  11.141   7.246
33433SOL     OW 2130   7.837   6.784   4.199
33433SOL    HW1 2131   7.874   6.807   4.114
33433SOL    HW2 2132   7.861   6.856   4.257
33434SOL     OW 2133   3.659   3.852   0.314
33434SOL    HW1 2134   3.619   3.913   0.376
33434SOL    HW2 2135   3.612   3.770   0.328
33435SOL     OW 2136  10.435   1.643   4.863
33435SOL    HW1 2137  10.404   1.575   4.803
33435SOL    HW2 2138  10.394   1.724   4.832
33436SOL     OW 2139   6.138   2.639   2.880
33436SOL    HW1 2140   6.121   2.548   2.905
33436SOL    HW2 2141   6.060   2.666   2.831
33437SOL     OW 2142   2.658  13.030  11.294
33437SOL    HW1 2143   2.629  13.118  11.318
33437SOL    HW2 2144   2.584  12.994  11.245
33438SOL     OW 2145   3.895   3.781   5.067
33438SOL    HW1 2146   3.853   3.760   4.983
33438SOL    HW2 2147   3.947   3.704   5.087
33439SOL     OW 2148   6.631  13.054  11.884
33439SOL    HW1 2149   6.675  13.106  11.951
33439SOL    HW2 2150   6.555  13.106  11.858
33440SOL     OW 2151   4.316   9.089  12.824
33440SOL    HW1 2152   4.397   9.131  12.796
33440SOL    HW2 2153   4.300   9.021  12.758
33441SOL     OW 2154   9.465  12.568   4.076
33441SOL    HW1 2155   9.475  12.490   4.022
33441SOL    HW2 2156   9.406  12.625   4.026
33442SOL     OW 2157   4.077   5.684   1.428
33442SOL    HW1 2158   4.104   5.765   1.471
33442SOL    HW2 2159   4.158   5.647   1.394
33443SOL     OW 2160   4.668   1.043  13.252
33443SOL    HW1 2161   4.579   1.079  13.249
33443SOL    HW2 2162   4.709   1.074  13.172
33444SOL     OW 2163   7.618   1.211  12.961
33444SOL    HW1 2164   7.583   1.149  13.026
33444SOL    HW2 2165   7.626   1.293  13.008
33445SOL     OW 2166   3.888   3.223   7.445
33445SOL    HW1 2167   3.960   3.204   7.507
33445SOL    HW2 2168   3.844   3.299   7.482
33446SOL     OW 2169  11.661   1.621   3.843
33446SOL    HW1 2170  11.600   1.691   3.861
33446SOL    HW2 2171  11.612   1.559   3.790
33447SOL     OW 2172  11.702  12.300  11.603
33447SOL    HW1 2173  11.646  12.342  11.670
33447SOL    HW2 2174  11.652  12.223  11.576
33448SOL     OW 2175  10.405  12.858   1.755
33448SOL    HW1 2176  10.339  12.818   1.697
33448SOL    HW2 2177  10.480  12.873   1.698
33449SOL     OW 2178  12.852   1.239   9.378
33449SOL    HW1 2179  12.799   1.311   9.412
33449SOL    HW2 2180  12.829   1.235   9.285
33450SOL     OW 2181   0.957   2.759  10.567
33450SOL    HW1 2182   0.956   2.687  10.630
33450SOL    HW2 2183   1.047   2.762  10.535
33451SOL     OW 2184   9.546   7.925   2.259
33451SOL    HW1 2185   9.461   7.970   2.263
33451SOL    HW2 2186   9.528   7.839   2.297
33452SOL     OW 2187   7.678   0.860  14.166
33452SOL    HW1 2188   7.585   0.841  14.174
33452SOL    HW2 2189   7.721   0.776  14.178
33453SOL     OW 2190  11.852   3.779   8.272
33453SOL    HW1 2191  11.857   3.833   8.351
33453SOL    HW2 2192  11.874   3.840   8.201
33454SOL     OW 2193   8.865  10.534   6.499
33454SOL    HW1 2194   8.865  10.627   6.520
33454SOL    HW2 2195   8.889  10.491   6.581
33455SOL     OW 2196  10.683   9.568  11.802
33455SOL    HW1 2197  10.631   9.647  11.787
33455SOL    HW2 2198  10.676   9.552  11.896
33456SOL     OW 2199  13.419  13.860   3.941
33456SOL    HW1 2200  13.395  13.785   3.996
33456SOL    HW2 2201  13.355  13.860   3.871
33457SOL     OW 2202   7.865  12.305  11.599
33457SOL    HW1 2203   7.862  12.227  11.654
33457SOL    HW2 2204   7.862  12.273  11.509
33458SOL     OW 2205   0.670   5.044  14.845
33458SOL    HW1 2206   0.669   5.120  14.788
33458SOL    HW2 2207   0.642   5.077   0.049
33459SOL     OW 2208   3.568  11.706   0.265
33459SOL    HW1 2209   3.587  11.624   0.310
33459SOL    HW2 2210   3.576  11.686   0.172
33460SOL     OW 2211  14.410  10.716  14.369
33460SOL    HW1 2212  14.342  10.782  14.357
33460SOL    HW2 2213  14.363  10.639  14.400
33461SOL     OW 2214   0.891   7.419   0.190
33461SOL    HW1 2215   0.961   7.449   0.132
33461SOL    HW2 2216   0.869   7.496   0.243
33462SOL     OW 2217  11.293   3.378  10.979
33462SOL    HW1 2218  11.248   3.344  10.901
33462SOL    HW2 2219  11.381   3.399  10.948
33463SOL     OW 2220   7.153   5.157   6.480
33463SOL    HW1 2221   7.181   5.157   6.572
33463SOL    HW2 2222   7.078   5.216   6.478
33464SOL     OW 2223   1.777   4.747  13.796
33464SOL    HW1 2224   1.727   4.668  13.818
33464SOL    HW2 2225   1.865   4.715  13.779
33465SOL     OW 2226  10.225  14.639  12.173
33465SOL    HW1 2227  10.250  14.668  12.085
33465SOL    HW2 2228  10.279  14.561  12.188
33466SOL     OW 2229   0.937   8.175   7.296
33466SOL    HW1 2230   0.876   8.227   7.349
33466SOL    HW2 2231   0.983   8.120   7.359
33467SOL     OW 2232  10.977  11.783   1.802
33467SOL    HW1 2233  10.922  11.822   1.734
33467SOL    HW2 2234  10.957  11.834   1.881
33468SOL     OW 2235  11.609   4.722   7.707
33468SOL    HW1 2236  11.639   4.805   7.670
33468SOL    HW2 2237  11.604   4.737   7.801
33469SOL     OW 2238   7.419   0.507   0.728
33469SOL    HW1 2239   7.336   0.479   0.765
33469SOL    HW2 2240   7.429   0.598   0.756
33470SOL     OW 2241   8.484   2.454  14.798
33470SOL    HW1 2242   8.445   2.409  14.723
33470SOL    HW2 2243   8.416   2.451  14.866
33471SOL     OW 2244   5.030  14.254  14.443
33471SOL    HW1 2245   4.943  14.215  14.439
33471SOL    HW2 2246   5.018  14.344  14.413
33472SOL     OW 2247   6.104  14.688   7.837
33472SOL    HW1 2248   6.137  14.777   7.825
33472SOL    HW2 2249   6.134  14.641   7.759
33473SOL     OW 2250  12.712   1.490   5.462
33473SOL    HW1 2251  12.765   1.569   5.473
33473SOL    HW2 2252  12.633   1.521   5.418
33474SOL     OW 2253  10.266   0.159  12.653
33474SOL    HW1 2254  10.199   0.144  12.587
33474SOL    HW2 2255  10.294   0.249  12.639
33475SOL     OW 2256   4.366   7.239  14.025
33475SOL    HW1 2257   4.424   7.297  13.975
33475SOL    HW2 2258   4.300   7.298  14.062
33476SOL     OW 2259  12.564   0.672   4.493
33476SOL    HW1 2260  12.638   0.677   4.554
33476SOL    HW2 2261  12.487   0.673   4.550
33477SOL     OW 2262   7.584   9.769  12.109
33477SOL    HW1 2263   7.546   9.848  12.147
33477SOL    HW2 2264   7.569   9.777  12.015
33478SOL     OW 2265   1.418  14.379   2.313
33478SOL    HW1 2266   1.362  14.457   2.316
33478SOL    HW2 2267   1.418  14.353   2.221
33479SOL     OW 2268   0.365  14.539   0.461
33479SOL    HW1 2269   0.451  14.579   0.472
33479SOL    HW2 2270   0.383  14.451   0.430
33480SOL     OW 2271   4.083  12.943   2.387
33480SOL    HW1 2272   4.113  13.034   2.388
33480SOL    HW2 2273   4.139  12.899   2.451
33481SOL     OW 2274  11.614   9.807   2.228
33481SOL    HW1 2275  11.630   9.821   2.322
33481SOL    HW2 2276  11.607   9.896   2.192
33482SOL     OW 2277  13.677   2.540  12.376
33482SOL    HW1 2278  13.677   2.625  12.420
33482SOL    HW2 2279  13.712   2.479  12.441
33483SOL     OW 2280   6.805  12.157   4.818
33483SOL    HW1 2281   6.769  12.147   4.730
33483SOL    HW2 2282   6.899  12.142   4.807
33484SOL     OW 2283   7.476   1.478  12.291
33484SOL    HW1 2284   7.493   1.568  12.319
33484SOL    HW2 2285   7.534   1.425  12.345
33485SOL     OW 2286   0.259  13.780  13.288
33485SOL    HW1 2287   0.351  13.757  13.298
33485SOL    HW2 2288   0.234  13.747  13.202
33486SOL     OW 2289   3.223   0.351   2.731
33486SOL    HW1 2290   3.299   0.382   2.780
33486SOL    HW2 2291   3.150   0.359   2.792
33487SOL     OW 2292  11.846   5.467  13.177
33487SOL    HW1 2293  11.809   5.383  13.151
33487SOL    HW2 2294  11.769   5.521  13.198
33488SOL     OW 2295   7.202   4.375   7.863
33488SOL    HW1 2296   7.126   4.411   7.909
33488SOL    HW2 2297   7.241   4.313   7.925
33489SOL     OW 2298  14.490   3.611   7.490
33489SOL    HW1 2299  14.410   3.569   7.457
33489SOL    HW2 2300  14.559   3.576   7.435
33490SOL     OW 2301   4.984   4.296   8.805
33490SOL    HW1 2302   5.035   4.269   8.882
33490SOL    HW2 2303   4.984   4.392   8.808
33491SOL     OW 2304   4.602  10.166  11.532
33491SOL    HW1 2305   4.552  10.093  11.495
33491SOL    HW2 2306   4.692  10.134  11.535
33492SOL     OW 2307   8.797  12.564   1.656
33492SOL    HW1 2308   8.780  12.651   1.692
33492SOL    HW2 2309   8.746  12.561   1.575
33493SOL     OW 2310   7.076  13.667   7.891
33493SOL    HW1 2311   7.104  13.688   7.980
33493SOL    HW2 2312   7.096  13.574   7.880
33494SOL     OW 2313   4.247   6.112   9.031
33494SOL    HW1 2314   4.286   6.127   8.945
33494SOL    HW2 2315   4.177   6.049   9.016
33495SOL     OW 2316   2.682   4.031   0.288
33495SOL    HW1 2317   2.654   4.121   0.306
33495SOL    HW2 2318   2.715   4.034   0.198
33496SOL     OW 2319   5.011   3.373   3.396
33496SOL    HW1 2320   4.930   3.364   3.347
33496SOL    HW2 2321   4.984   3.373   3.488
33497SOL     OW 2322   5.522   5.300   7.646
33497SOL    HW1 2323   5.591   5.275   7.585
33497SOL    HW2 2324   5.520   5.229   7.711
33498SOL     OW 2325  11.766   5.131  14.042
33498SOL    HW1 2326  11.757   5.221  14.075
33498SOL    HW2 2327  11.733   5.134  13.953
33499SOL     OW 2328   6.436   2.897   7.488
33499SOL    HW1 2329   6.409   2.821   7.436
33499SOL    HW2 2330   6.528   2.911   7.465
33500SOL     OW 2331   9.262   1.260   5.453
33500SOL    HW1 2332   9.190   1.197   5.449
33500SOL    HW2 2333   9.338   1.208   5.480
33501SOL     OW 2334   5.993  13.714  10.582
33501SOL    HW1 2335   6.076  13.761  10.587
33501SOL    HW2 2336   6.011  13.640  10.524
33502SOL     OW 2337   0.405   9.301  10.210
33502SOL    HW1 2338   0.438   9.244  10.141
33502SOL    HW2 2339   0.356   9.369  10.164
33503SOL     OW 2340  14.747   3.247   7.970
33503SOL    HW1 2341  14.818   3.262   7.907
33503SOL    HW2 2342  14.773   3.295   8.048
33504SOL     OW 2343   8.966  13.168  12.939
33504SOL    HW1 2344   9.001  13.154  13.027
33504SOL    HW2 2345   8.877  13.201  12.953
33505SOL     OW 2346   6.504  10.327  13.126
33505SOL    HW1 2347   6.498  10.232  13.120
33505SOL    HW2 2348   6.569  10.351  13.060
33506SOL     OW 2349   5.532   6.437   3.029
33506SOL    HW1 2350   5.615   6.432   3.076
33506SOL    HW2 2351   5.521   6.530   3.009
33507SOL     OW 2352   9.455   3.204  10.948
33507SOL    HW1 2353   9.423   3.210  10.858
33507SOL    HW2 2354   9.381   3.170  10.998
33508SOL     OW 2355  14.312   2.768   7.550
33508SOL    HW1 2356  14.263   2.712   7.490
33508SOL    HW2 2357  14.329   2.713   7.626
33509SOL     OW 2358   2.782  13.118   4.108
33509SOL    HW1 2359   2.822  13.187   4.160
33509SOL    HW2 2360   2.712  13.084   4.163
33510SOL     OW 2361   8.263   5.454  12.316
33510SOL    HW1 2362   8.225   5.394  12.252
33510SOL    HW2 2363   8.198   5.524  12.326
33511SOL     OW 2364   0.854  13.503   1.585
33511SOL    HW1 2365   0.801  13.424   1.579
33511SOL    HW2 2366   0.822  13.560   1.516
33512SOL     OW 2367  12.240   1.758   5.815
33512SOL    HW1 2368  12.159   1.747   5.864
33512SOL    HW2 2369  12.211   1.790   5.729
33513SOL     OW 2370  14.023   8.458  12.786
33513SOL    HW1 2371  14.073   8.377  12.795
33513SOL    HW2 2372  14.084   8.519  12.744
33514SOL     OW 2373   9.013   2.516   8.948
33514SOL    HW1 2374   8.959   2.594   8.935
33514SOL    HW2 2375   9.055   2.530   9.033
33515SOL     OW 2376  12.554  13.352   2.832
33515SOL    HW1 2377  12.538  13.300   2.911
33515SOL    HW2 2378  12.524  13.296   2.761
33516SOL     OW 2379  12.703   4.989   1.143
33516SOL    HW1 2380  12.783   4.965   1.096
33516SOL    HW2 2381  12.708   4.941   1.226
33517SOL     OW 2382   2.794   9.877   4.121
33517SOL    HW1 2383   2.713   9.851   4.164
33517SOL    HW2 2384   2.789   9.839   4.034
33518SOL     OW 2385   8.334  12.660  11.286
33518SOL    HW1 2386   8.371  12.674  11.373
33518SOL    HW2 2387   8.373  12.729  11.232
33519SOL     OW 2388  12.230   2.251   7.856
33519SOL    HW1 2389  12.181   2.173   7.882
33519SOL    HW2 2390  12.272   2.227   7.774
33520SOL     OW 2391   0.915   6.577   4.764
33520SOL    HW1 2392   0.898   6.660   4.809
33520SOL    HW2 2393   0.982   6.599   4.699
33521SOL     OW 2394  12.697   1.954   7.616
33521SOL    HW1 2395  12.691   2.041   7.577
33521SOL    HW2 2396  12.779   1.955   7.666
33522SOL     OW 2397  14.166  12.257  11.184
33522SOL    HW1 2398  14.125  12.241  11.099
33522SOL    HW2 2399  14.257  12.228  11.172
33523SOL     OW 2400   5.053   9.584   7.793
33523SOL    HW1 2401   5.068   9.656   7.732
33523SOL    HW2 2402   5.141   9.552   7.815
33524SOL     OW 2403   9.286   1.088  10.443
33524SOL    HW1 2404   9.234   1.013  10.471
33524SOL    HW2 2405   9.228   1.138  10.386
33525SOL     OW 2406  10.961   2.135   6.376
33525SOL    HW1 2407  10.876   2.121   6.418
33525SOL    HW2 2408  10.939   2.158   6.285
33526SOL     OW 2409  10.012  10.240   2.081
33526SOL    HW1 2410  10.029  10.148   2.065
33526SOL    HW2 2411   9.976  10.243   2.170
33527SOL     OW 2412   9.008  14.684   8.360
33527SOL    HW1 2413   8.977  14.612   8.414
33527SOL    HW2 2414   9.101  14.666   8.347
33528SOL     OW 2415   0.537   9.125  12.960
33528SOL    HW1 2416   0.447   9.107  12.986
33528SOL    HW2 2417   0.586   9.048  12.989
33529SOL     OW 2418  11.588   2.079  10.366
33529SOL    HW1 2419  11.541   2.026  10.302
33529SOL    HW2 2420  11.581   2.169  10.333
33530SOL     OW 2421   0.390   1.755  12.779
33530SOL    HW1 2422   0.442   1.723  12.853
33530SOL    HW2 2423   0.362   1.676  12.733
33531SOL     OW 2424   0.733   8.858   5.840
33531SOL    HW1 2425   0.815   8.906   5.852
33531SOL    HW2 2426   0.760   8.773   5.804
33532SOL     OW 2427   3.968  10.598   6.870
33532SOL    HW1 2428   3.928  10.516   6.841
33532SOL    HW2 2429   4.061  10.576   6.884
33533SOL     OW 2430  14.864  13.833  14.802
33533SOL    HW1 2431  14.781  13.867  14.768
33533SOL    HW2 2432  14.872  13.870   0.008
33534SOL     OW 2433   3.603  13.719   5.707
33534SOL    HW1 2434   3.548  13.789   5.742
33534SOL    HW2 2435   3.568  13.639   5.746
33535SOL     OW 2436  14.788   9.204  13.007
33535SOL    HW1 2437  14.876   9.231  13.033
33535SOL    HW2 2438  14.730   9.266  13.051
33536SOL     OW 2439   5.553  12.499   3.316
33536SOL    HW1 2440   5.552  12.407   3.340
33536SOL    HW2 2441   5.461  12.519   3.295
33537SOL     OW 2442   4.760   3.582   1.703
33537SOL    HW1 2443   4.825   3.644   1.738
33537SOL    HW2 2444   4.801   3.496   1.713
33538SOL     OW 2445  14.034  14.493  14.392
33538SOL    HW1 2446  14.120  14.493  14.433
33538SOL    HW2 2447  13.993  14.412  14.422
33539SOL     OW 2448   8.834   7.004   8.066
33539SOL    HW1 2449   8.752   6.972   8.104
33539SOL    HW2 2450   8.856   7.081   8.119
33540SOL     OW 2451   5.489   4.378   1.992
33540SOL    HW1 2452   5.423   4.338   1.935
33540SOL    HW2 2453   5.523   4.306   2.044
33541SOL     OW 2454  14.652   7.135   0.247
33541SOL    HW1 2455  14.697   7.051   0.257
33541SOL    HW2 2456  14.645   7.170   0.335
33542SOL     OW 2457   5.268  12.323  12.748
33542SOL    HW1 2458   5.363  12.330  12.740
33542SOL    HW2 2459   5.244  12.392  12.810
33543SOL     OW 2460  11.251   9.093   2.297
33543SOL    HW1 2461  11.321   9.126   2.240
33543SOL    HW2 2462  11.181   9.068   2.237
33544SOL     OW 2463  13.725   7.591   0.098
33544SOL    HW1 2464  13.784   7.516   0.102
33544SOL    HW2 2465  13.768   7.658   0.150
33545SOL     OW 2466   7.232  13.348   4.932
33545SOL    HW1 2467   7.213  13.414   4.866
33545SOL    HW2 2468   7.321  13.318   4.911
33546SOL     OW 2469   4.404   4.573  13.180
33546SOL    HW1 2470   4.320   4.584  13.225
33546SOL    HW2 2471   4.460   4.529  13.244
33547SOL     OW 2472   1.046  11.688   8.034
33547SOL    HW1 2473   1.011  11.774   8.010
33547SOL    HW2 2474   1.059  11.643   7.951
33548SOL     OW 2475   9.667   8.073   9.624
33548SOL    HW1 2476   9.748   8.066   9.675
33548SOL    HW2 2477   9.597   8.069   9.690
33549SOL     OW 2478  14.129   4.815   3.099
33549SOL    HW1 2479  14.042   4.853   3.086
33549SOL    HW2 2480  14.171   4.873   3.162
33550SOL     OW 2481   5.699   9.496  11.124
33550SOL    HW1 2482   5.696   9.447  11.206
33550SOL    HW2 2483   5.713   9.429  11.056
33551SOL     OW 2484   3.300  14.432  12.414
33551SOL    HW1 2485   3.390  14.460  12.393
33551SOL    HW2 2486   3.259  14.418  12.329
33552SOL     OW 2487   6.595   1.741   2.407
33552SOL    HW1 2488   6.541   1.786   2.472
33552SOL    HW2 2489   6.533   1.714   2.338
33553SOL     OW 2490   8.759   5.930  11.193
33553SOL    HW1 2491   8.676   5.896  11.161
33553SOL    HW2 2492   8.807   5.852  11.222
33554SOL     OW 2493   4.923  11.984   8.067
33554SOL    HW1 2494   4.890  11.982   8.157
33554SOL    HW2 2495   4.960  11.897   8.052
33555SOL     OW 2496  12.875   3.261   2.499
33555SOL    HW1 2497  12.818   3.301   2.433
33555SOL    HW2 2498  12.878   3.325   2.570
33556SOL     OW 2499  12.354  14.144  11.189
33556SOL    HW1 2500  12.279  14.152  11.248
33556SOL    HW2 2501  12.326  14.189  11.109
33557SOL     OW 2502   8.944   3.175   0.113
33557SOL    HW1 2503   8.882   3.134   0.053
33557SOL    HW2 2504   8.931   3.129   0.196
33558SOL     OW 2505   9.432   3.026   3.813
33558SOL    HW1 2506   9.510   2.987   3.772
33558SOL    HW2 2507   9.405   3.094   3.751
33559SOL     OW 2508   2.883  12.819   1.345
33559SOL    HW1 2509   2.933  12.737   1.348
33559SOL    HW2 2510   2.831  12.812   1.265
33560SOL     OW 2511   2.745   6.064   2.650
33560SOL    HW1 2512   2.797   6.010   2.709
33560SOL    HW2 2513   2.808   6.126   2.613
33561SOL     OW 2514  12.269   3.050   1.321
33561SOL    HW1 2515  12.308   3.048   1.408
33561SOL    HW2 2516  12.193   3.107   1.330
33562SOL     OW 2517  13.766   9.841   0.586
33562SOL    HW1 2518  13.756   9.934   0.603
33562SOL    HW2 2519  13.682   9.802   0.610
33563SOL     OW 2520   4.512   0.031   5.620
33563SOL    HW1 2521   4.561   0.085   5.558
33563SOL    HW2 2522   4.577   0.006   5.686
33564SOL     OW 2523  12.223   7.137   3.094
33564SOL    HW1 2524  12.227   7.186   3.176
33564SOL    HW2 2525  12.204   7.047   3.121
33565SOL     OW 2526   7.141   7.512   5.964
33565SOL    HW1 2527   7.145   7.523   5.869
33565SOL    HW2 2528   7.049   7.496   5.983
33566SOL     OW 2529   3.650   3.660  12.397
33566SOL    HW1 2530   3.555   3.670  12.391
33566SOL    HW2 2531   3.685   3.735  12.349
33567SOL     OW 2532  12.193  13.899  14.620
33567SOL    HW1 2533  12.198  13.887  14.715
33567SOL    HW2 2534  12.200  13.994  14.608
33568SOL     OW 2535  12.279   9.096  10.149
33568SOL    HW1 2536  12.371   9.084  10.170
33568SOL    HW2 2537  12.248   9.165  10.209
33569SOL     OW 2538   8.850   2.515   6.371
33569SOL    HW1 2539   8.900   2.476   6.442
33569SOL    HW2 2540   8.829   2.441   6.313
33570SOL     OW 2541   3.006   0.664  10.859
33570SOL    HW1 2542   3.089   0.617  10.850
33570SOL    HW2 2543   2.942   0.596  10.879
33571SOL     OW 2544   1.864  14.873  10.665
33571SOL    HW1 2545   1.905   0.069  10.627
33571SOL    HW2 2546   1.829   0.021  10.749
33572SOL     OW 2547   6.871   6.631   9.153
33572SOL    HW1 2548   6.808   6.565   9.181
33572SOL    HW2 2549   6.842   6.658   9.066
33573SOL     OW 2550   9.363   8.255   3.081
33573SOL    HW1 2551   9.430   8.192   3.056
33573SOL    HW2 2552   9.293   8.201   3.119
33574SOL     OW 2553   5.015  14.532  14.374
33574SOL    HW1 2554   4.944  14.572  14.425
33574SOL    HW2 2555   5.088  14.592  14.385
33575SOL     OW 2556   4.703  11.236   6.062
33575SOL    HW1 2557   4.723  11.142   6.070
33575SOL    HW2 2558   4.634  11.240   5.996
33576SOL     OW 2559   3.213   0.047   9.834
33576SOL    HW1 2560   3.201   0.063   9.928
33576SOL    HW2 2561   3.275  14.857   9.830
33577SOL     OW 2562   7.889   3.359   8.597
33577SOL    HW1 2563   7.916   3.287   8.542
33577SOL    HW2 2564   7.952   3.361   8.669
33578SOL     OW 2565  11.028   8.678   1.361
33578SOL    HW1 2566  11.051   8.770   1.373
33578SOL    HW2 2567  11.050   8.659   1.270
33579SOL     OW 2568   4.850   9.312   8.680
33579SOL    HW1 2569   4.888   9.341   8.763
33579SOL    HW2 2570   4.916   9.335   8.614
33580SOL     OW 2571  11.057   6.505  12.901
33580SOL    HW1 2572  11.019   6.587  12.871
33580SOL    HW2 2573  11.076   6.456  12.821
33581SOL     OW 2574  11.324  12.977   7.412
33581SOL    HW1 2575  11.289  12.931   7.336
33581SOL    HW2 2576  11.247  12.994   7.467
33582SOL     OW 2577   5.638   2.216   2.365
33582SOL    HW1 2578   5.546   2.239   2.376
33582SOL    HW2 2579   5.686   2.290   2.403
33583SOL     OW 2580   9.888  11.734  11.923
33583SOL    HW1 2581   9.867  11.812  11.872
33583SOL    HW2 2582   9.964  11.696  11.879
33584SOL     OW 2583  13.622   9.110   9.320
33584SOL    HW1 2584  13.609   9.157   9.402
33584SOL    HW2 2585  13.538   9.115   9.275
33585SOL     OW 2586   4.963   3.233   7.466
33585SOL    HW1 2587   5.052   3.261   7.443
33585SOL    HW2 2588   4.952   3.262   7.557
33586SOL     OW 2589  12.431  12.573  10.236
33586SOL    HW1 2590  12.349  12.599  10.279
33586SOL    HW2 2591  12.498  12.584  10.304
33587SOL     OW 2592  14.527   7.549   1.786
33587SOL    HW1 2593  14.443   7.538   1.740
33587SOL    HW2 2594  14.522   7.637   1.823
33588SOL     OW 2595   2.513   3.385   4.020
33588SOL    HW1 2596   2.490   3.468   3.978
33588SOL    HW2 2597   2.446   3.373   4.087
33589SOL     OW 2598   9.702   8.616   9.442
33589SOL    HW1 2599   9.717   8.524   9.463
33589SOL    HW2 2600   9.768   8.636   9.375
33590SOL     OW 2601   3.659  14.608  13.673
33590SOL    HW1 2602   3.701  14.543  13.616
33590SOL    HW2 2603   3.584  14.563  13.710
33591SOL     OW 2604  12.626   6.779  11.825
33591SOL    HW1 2605  12.710   6.776  11.780
33591SOL    HW2 2606  12.579   6.851  11.782
33592SOL     OW 2607   5.965  12.120   2.576
33592SOL    HW1 2608   6.028  12.101   2.645
33592SOL    HW2 2609   5.881  12.129   2.622
33593SOL     OW 2610   9.039   8.617   3.437
33593SOL    HW1 2611   9.041   8.548   3.370
33593SOL    HW2 2612   8.949   8.648   3.437
33594SOL     OW 2613   4.335   7.736   3.627
33594SOL    HW1 2614   4.353   7.654   3.581
33594SOL    HW2 2615   4.277   7.784   3.568
33595SOL     OW 2616   2.502   7.474  11.221
33595SOL    HW1 2617   2.538   7.523  11.294
33595SOL    HW2 2618   2.577   7.456  11.165
33596SOL     OW 2619   4.044  12.833  13.759
33596SOL    HW1 2620   3.998  12.903  13.711
33596SOL    HW2 2621   4.122  12.816  13.706
33597SOL     OW 2622   1.141   6.333   4.286
33597SOL    HW1 2623   1.176   6.288   4.363
33597SOL    HW2 2624   1.219   6.358   4.236
33598SOL     OW 2625   1.729   8.104  10.031
33598SOL    HW1 2626   1.772   8.185  10.004
33598SOL    HW2 2627   1.742   8.044   9.957
33599SOL     OW 2628   6.667  14.140   9.359
33599SOL    HW1 2629   6.636  14.196   9.430
33599SOL    HW2 2630   6.590  14.125   9.305
33600SOL     OW 2631  14.081   9.607  11.822
33600SOL    HW1 2632  14.155   9.667  11.830
33600SOL    HW2 2633  14.025   9.648  11.755
33601SOL     OW 2634   6.802   1.038   7.543
33601SOL    HW1 2635   6.819   1.032   7.637
33601SOL    HW2 2636   6.767   0.952   7.520
33602SOL     OW 2637  12.146  10.688   8.876
33602SOL    HW1 2638  12.066  10.681   8.823
33602SOL    HW2 2639  12.157  10.600   8.913
33603SOL     OW 2640   0.830   3.201   8.721
33603SOL    HW1 2641   0.737   3.220   8.706
33603SOL    HW2 2642   0.862   3.278   8.768
33604SOL     OW 2643  10.339  14.704   1.677
33604SOL    HW1 2644  10.430  14.684   1.655
33604SOL    HW2 2645  10.346  14.759   1.755
33605SOL     OW 2646  10.066   7.867  12.648
33605SOL    HW1 2647   9.981   7.825  12.633
33605SOL    HW2 2648  10.118   7.801  12.693
33606SOL     OW 2649   8.559   5.675  11.800
33606SOL    HW1 2650   8.556   5.759  11.755
33606SOL    HW2 2651   8.569   5.611  11.729
33607SOL     OW 2652  11.089   5.790  11.740
33607SOL    HW1 2653  11.088   5.694  11.734
33607SOL    HW2 2654  11.015   5.811  11.796
33608SOL     OW 2655   4.326  12.009  12.526
33608SOL    HW1 2656   4.255  11.969  12.475
33608SOL    HW2 2657   4.284  12.038  12.607
33609SOL     OW 2658   2.229   4.371   6.946
33609SOL    HW1 2659   2.256   4.295   6.894
33609SOL    HW2 2660   2.134   4.363   6.953
33610SOL     OW 2661   8.623   9.566   7.637
33610SOL    HW1 2662   8.557   9.560   7.567
33610SOL    HW2 2663   8.575   9.547   7.717
33611SOL     OW 2664   7.196   8.205   7.929
33611SOL    HW1 2665   7.223   8.188   8.019
33611SOL    HW2 2666   7.163   8.121   7.897
33612SOL     OW 2667   5.630  12.773   0.678
33612SOL    HW1 2668   5.591  12.722   0.608
33612SOL    HW2 2669   5.725  12.762   0.667
33613SOL     OW 2670  14.625   8.851   6.162
33613SOL    HW1 2671  14.644   8.880   6.251
33613SOL    HW2 2672  14.566   8.777   6.173
33614SOL     OW 2673   6.555  14.001  13.604
33614SOL    HW1 2674   6.580  14.072  13.663
33614SOL    HW2 2675   6.538  13.927  13.662
33615SOL     OW 2676   1.664  13.854  14.190
33615SOL    HW1 2677   1.628  13.887  14.108
33615SOL    HW2 2678   1.718  13.779  14.165
33616SOL     OW 2679  13.625  11.797   7.416
33616SOL    HW1 2680  13.534  11.788   7.446
33616SOL    HW2 2681  13.618  11.821   7.324
33617SOL     OW 2682  10.751   0.225  10.890
33617SOL    HW1 2683  10.659   0.198  10.892
33617SOL    HW2 2684  10.767   0.261  10.978
33618SOL     OW 2685   9.893  13.903   7.665
33618SOL    HW1 2686   9.987  13.886   7.666
33618SOL    HW2 2687   9.864  13.871   7.579
33619SOL     OW 2688   4.932   3.821  14.654
33619SOL    HW1 2689   4.882   3.740  14.647
33619SOL    HW2 2690   4.893   3.867  14.729
33620SOL     OW 2691   5.681   7.185   3.583
33620SOL    HW1 2692   5.768   7.211   3.614
33620SOL    HW2 2693   5.626   7.186   3.662
33621SOL     OW 2694   1.252   6.210  11.270
33621SOL    HW1 2695   1.213   6.200  11.183
33621SOL    HW2 2696   1.316   6.139  11.277
33622SOL     OW 2697  13.119  12.556   5.210
33622SOL    HW1 2698  13.178  12.509   5.268
33622SOL    HW2 2699  13.031  12.534   5.241
33623SOL     OW 2700   1.895   6.159   5.240
33623SOL    HW1 2701   1.838   6.232   5.265
33623SOL    HW2 2702   1.843   6.110   5.176
33624SOL     OW 2703   7.144   2.569   4.803
33624SOL    HW1 2704   7.215   2.619   4.844
33624SOL    HW2 2705   7.153   2.481   4.838
33625SOL     OW 2706   0.054   5.574   3.584
33625SOL    HW1 2707  14.848   5.611   3.586
33625SOL    HW2 2708   0.062   5.536   3.496
33626SOL     OW 2709   7.333  13.121  11.232
33626SOL    HW1 2710   7.385  13.201  11.236
33626SOL    HW2 2711   7.261  13.136  11.293
33627SOL     OW 2712  13.413  12.873   8.593
33627SOL    HW1 2713  13.391  12.860   8.686
33627SOL    HW2 2714  13.336  12.916   8.556
33628SOL     OW 2715   4.400   6.770   2.031
33628SOL    HW1 2716   4.405   6.676   2.016
33628SOL    HW2 2717   4.331   6.781   2.097
33629SOL     OW 2718   9.724   4.719  14.716
33629SOL    HW1 2719   9.692   4.736  14.805
33629SOL    HW2 2720   9.666   4.650  14.683
33630SOL     OW 2721  14.720   4.772  10.950
33630SOL    HW1 2722  14.753   4.697  11.001
33630SOL    HW2 2723  14.639   4.740  10.910
33631SOL     OW 2724  14.564  11.420  10.792
33631SOL    HW1 2725  14.646  11.468  10.801
33631SOL    HW2 2726  14.564  11.389  10.701
33632SOL     OW 2727   3.678   3.547   6.886
33632SOL    HW1 2728   3.740   3.529   6.957
33632SOL    HW2 2729   3.647   3.636   6.904
33633SOL     OW 2730   6.161   7.941   9.406
33633SOL    HW1 2731   6.183   8.031   9.379
33633SOL    HW2 2732   6.100   7.910   9.339
33634SOL     OW 2733   4.468  14.308  12.652
33634SOL    HW1 2734   4.475  14.399  12.623
33634SOL    HW2 2735   4.522  14.258  12.591
33635SOL     OW 2736  11.909   6.168  13.156
33635SOL    HW1 2737  11.994   6.194  13.191
33635SOL    HW2 2738  11.846   6.206  13.217
33636SOL     OW 2739   0.921   4.117  14.091
33636SOL    HW1 2740   0.828   4.132  14.111
33636SOL    HW2 2741   0.968   4.166  14.158
33637SOL     OW 2742  13.499  10.557   9.447
33637SOL    HW1 2743  13.552  10.621   9.399
33637SOL    HW2 2744  13.424  10.541   9.391
33638SOL     OW 2745   8.488   5.114   7.775
33638SOL    HW1 2746   8.408   5.148   7.817
33638SOL    HW2 2747   8.492   5.159   7.691
33639SOL     OW 2748  12.375   3.210   0.327
33639SOL    HW1 2749  12.463   3.225   0.292
33639SOL    HW2 2750  12.318   3.261   0.269
33640SOL     OW 2751   6.865   8.600  14.786
33640SOL    HW1 2752   6.945   8.651  14.773
33640SOL    HW2 2753   6.869   8.533  14.718
33641SOL     OW 2754   6.146   7.157  14.485
33641SOL    HW1 2755   6.200   7.135  14.560
33641SOL    HW2 2756   6.145   7.253  14.484
33642SOL     OW 2757   1.238   5.976  14.235
33642SOL    HW1 2758   1.252   5.954  14.328
33642SOL    HW2 2759   1.151   5.941  14.215
33643SOL     OW 2760  11.236   9.114  12.196
33643SOL    HW1 2761  11.146   9.084  12.182
33643SOL    HW2 2762  11.259   9.159  12.115
33644SOL     OW 2763   1.517   4.589  12.056
33644SOL    HW1 2764   1.513   4.513  11.998
33644SOL    HW2 2765   1.438   4.582  12.110
33645SOL     OW 2766   4.510   1.574   1.484
33645SOL    HW1 2767   4.462   1.536   1.411
33645SOL    HW2 2768   4.596   1.596   1.447
33646SOL     OW 2769   6.367  14.330   7.263
33646SOL    HW1 2770   6.393  14.349   7.173
33646SOL    HW2 2771   6.310  14.254   7.256
33647SOL     OW 2772   2.643   3.795   6.443
33647SOL    HW1 2773   2.696   3.872   6.463
33647SOL    HW2 2774   2.705   3.723   6.443
33648SOL     OW 2775   2.691   0.523   8.665
33648SOL    HW1 2776   2.644   0.441   8.653
33648SOL    HW2 2777   2.726   0.518   8.754
33649SOL     OW 2778  14.748   0.765   7.436
33649SOL    HW1 2779  14.653   0.753   7.443
33649SOL    HW2 2780  14.759   0.808   7.351
33650SOL     OW 2781   0.672   7.852   4.312
33650SOL    HW1 2782   0.642   7.773   4.356
33650SOL    HW2 2783   0.652   7.837   4.219
33651SOL     OW 2784   1.226   4.870   7.854
33651SOL    HW1 2785   1.177   4.952   7.842
33651SOL    HW2 2786   1.167   4.814   7.904
33652SOL     OW 2787  11.108  12.651   9.888
33652SOL    HW1 2788  11.085  12.681   9.976
33652SOL    HW2 2789  11.204  12.650   9.888
33653SOL     OW 2790   9.331  10.871   9.478
33653SOL    HW1 2791   9.240  10.858   9.453
33653SOL    HW2 2792   9.381  10.834   9.405
33654SOL     OW 2793  10.135   3.447  13.366
33654SOL    HW1 2794  10.045   3.450  13.335
33654SOL    HW2 2795  10.132   3.398  13.448
33655SOL     OW 2796   6.992  13.580   8.636
33655SOL    HW1 2797   6.969  13.623   8.718
33655SOL    HW2 2798   7.059  13.636   8.597
33656SOL     OW 2799   7.403   5.771  13.241
33656SOL    HW1 2800   7.357   5.846  13.203
33656SOL    HW2 2801   7.338   5.728  13.296
33657SOL     OW 2802   3.213   9.050  14.327
33657SOL    HW1 2803   3.146   8.989  14.356
33657SOL    HW2 2804   3.164   9.124  14.290
33658SOL     OW 2805   6.735   3.077  10.757
33658SOL    HW1 2806   6.644   3.089  10.729
33658SOL    HW2 2807   6.779   3.157  10.727
33659SOL     OW 2808  10.323  13.311   8.774
33659SOL    HW1 2809  10.288  13.368   8.706
33659SOL    HW2 2810  10.405  13.277   8.736
33660SOL     OW 2811   2.516   7.534   7.433
33660SOL    HW1 2812   2.568   7.614   7.437
33660SOL    HW2 2813   2.427   7.562   7.454
33661SOL     OW 2814   5.320   3.988   5.004
33661SOL    HW1 2815   5.386   4.010   5.070
33661SOL    HW2 2816   5.277   4.071   4.984
33662SOL     OW 2817   3.533  10.355   1.841
33662SOL    HW1 2818   3.507  10.346   1.750
33662SOL    HW2 2819   3.468  10.414   1.879
33663SOL     OW 2820  14.765   3.849   0.611
33663SOL    HW1 2821  14.837   3.864   0.672
33663SOL    HW2 2822  14.804   3.858   0.524
33664SOL     OW 2823   7.555  12.126   6.340
33664SOL    HW1 2824   7.518  12.141   6.427
33664SOL    HW2 2825   7.608  12.047   6.351
33665SOL     OW 2826   2.935  14.159  11.674
33665SOL    HW1 2827   3.000  14.202  11.730
33665SOL    HW2 2828   2.880  14.230  11.642
33666SOL     OW 2829  14.252  14.027  11.342
33666SOL    HW1 2830  14.187  13.957  11.350
33666SOL    HW2 2831  14.237  14.083  11.418
33667SOL     OW 2832   6.531   3.558   8.224
33667SOL    HW1 2833   6.511   3.551   8.317
33667SOL    HW2 2834   6.573   3.643   8.214
33668SOL     OW 2835  12.793  11.844   7.577
33668SOL    HW1 2836  12.764  11.935   7.576
33668SOL    HW2 2837  12.880  11.847   7.616
33669SOL     OW 2838  14.100   3.514  14.035
33669SOL    HW1 2839  14.056   3.573  14.097
33669SOL    HW2 2840  14.122   3.437  14.087
33670SOL     OW 2841  14.386  10.301   7.449
33670SOL    HW1 2842  14.441  10.225   7.466
33670SOL    HW2 2843  14.380  10.346   7.533
33671SOL     OW 2844   6.579   9.026  14.669
33671SOL    HW1 2845   6.570   9.109  14.715
33671SOL    HW2 2846   6.670   9.025  14.639
33672SOL     OW 2847  12.198  14.702   5.374
33672SOL    HW1 2848  12.116  14.713   5.326
33672SOL    HW2 2849  12.210  14.607   5.380
33673SOL     OW 2850   4.028   1.632   1.477
33673SOL    HW1 2851   3.941   1.672   1.473
33673SOL    HW2 2852   4.085   1.701   1.511
33674SOL     OW 2853   1.883  14.347   3.103
33674SOL    HW1 2854   1.912  14.256   3.102
33674SOL    HW2 2855   1.964  14.397   3.117
33675SOL     OW 2856   9.220  10.801   9.945
33675SOL    HW1 2857   9.237  10.855  10.022
33675SOL    HW2 2858   9.249  10.713   9.971
33676SOL     OW 2859   3.976   2.795  12.413
33676SOL    HW1 2860   4.040   2.730  12.440
33676SOL    HW2 2861   4.018   2.879  12.430
33677SOL     OW 2862   9.771   2.856   3.754
33677SOL    HW1 2863   9.743   2.886   3.840
33677SOL    HW2 2864   9.697   2.805   3.721
33678SOL     OW 2865  13.061   0.619  10.417
33678SOL    HW1 2866  12.968   0.601  10.434
33678SOL    HW2 2867  13.108   0.564  10.480
33679SOL     OW 2868   9.815  11.960   2.332
33679SOL    HW1 2869   9.721  11.963   2.316
33679SOL    HW2 2870   9.832  12.032   2.393
33680SOL     OW 2871   4.558   5.552   9.848
33680SOL    HW1 2872   4.511   5.469   9.862
33680SOL    HW2 2873   4.489   5.618   9.849
33681SOL     OW 2874   6.435   1.355   9.712
33681SOL    HW1 2875   6.367   1.292   9.689
33681SOL    HW2 2876   6.390   1.439   9.714
33682SOL     OW 2877   7.831   1.599   6.451
33682SOL    HW1 2878   7.762   1.552   6.403
33682SOL    HW2 2879   7.794   1.613   6.538
33683SOL     OW 2880   2.563   5.626  13.205
33683SOL    HW1 2881   2.553   5.654  13.296
33683SOL    HW2 2882   2.648   5.661  13.178
33684SOL     OW 2883  12.511   2.700   8.589
33684SOL    HW1 2884  12.483   2.769   8.528
33684SOL    HW2 2885  12.461   2.717   8.669
33685SOL     OW 2886   8.458   5.480   6.426
33685SOL    HW1 2887   8.534   5.449   6.376
33685SOL    HW2 2888   8.429   5.559   6.380
33686SOL     OW 2889   6.340   5.836   4.294
33686SOL    HW1 2890   6.421   5.827   4.345
33686SOL    HW2 2891   6.278   5.776   4.336
33687SOL     OW 2892  11.339   5.010   4.588
33687SOL    HW1 2893  11.422   5.057   4.580
33687SOL    HW2 2894  11.300   5.017   4.501
33688SOL     OW 2895   3.769  13.988   5.111
33688SOL    HW1 2896   3.825  14.062   5.136
33688SOL    HW2 2897   3.701  13.986   5.179
33689SOL     OW 2898   3.120   2.352   3.298
33689SOL    HW1 2899   3.168   2.289   3.245
33689SOL    HW2 2900   3.133   2.436   3.253
33690SOL     OW 2901   5.932   3.813  11.175
33690SOL    HW1 2902   5.954   3.731  11.218
33690SOL    HW2 2903   6.005   3.872  11.197
33691SOL     OW 2904   5.614   9.620  14.713
33691SOL    HW1 2905   5.678   9.666  14.659
33691SOL    HW2 2906   5.667   9.577  14.781
33692SOL     OW 2907   9.500   2.936   8.942
33692SOL    HW1 2908   9.522   2.900   9.028
33692SOL    HW2 2909   9.472   2.861   8.891
33693SOL     OW 2910   0.484   7.445   7.717
33693SOL    HW1 2911   0.424   7.502   7.765
33693SOL    HW2 2912   0.426   7.385   7.669
33694SOL     OW 2913  12.444   6.479   5.075
33694SOL    HW1 2914  12.411   6.565   5.048
33694SOL    HW2 2915  12.515   6.499   5.135
33695SOL     OW 2916   6.987  13.711   9.935
33695SOL    HW1 2917   6.908  13.766   9.936
33695SOL    HW2 2918   6.966  13.638   9.993
33696SOL     OW 2919   2.946   5.465  14.365
33696SOL    HW1 2920   2.898   5.389  14.329
33696SOL    HW2 2921   2.913   5.539  14.314
33697SOL     OW 2922   6.630   9.574   1.994
33697SOL    HW1 2923   6.654   9.481   1.995
33697SOL    HW2 2924   6.696   9.616   2.050
33698SOL     OW 2925   2.083   5.021   4.626
33698SOL    HW1 2926   2.121   5.025   4.538
33698SOL    HW2 2927   2.008   5.080   4.623
33699SOL     OW 2928  13.176  13.243   0.703
33699SOL    HW1 2929  13.177  13.327   0.656
33699SOL    HW2 2930  13.266  13.211   0.694
33700SOL     OW 2931   8.527  13.799   8.867
33700SOL    HW1 2932   8.588  13.865   8.899
33700SOL    HW2 2933   8.522  13.815   8.773
33701SOL     OW 2934   1.373   5.192  10.222
33701SOL    HW1 2935   1.389   5.181  10.316
33701SOL    HW2 2936   1.314   5.268  10.216
33702SOL     OW 2937   4.150  11.594   7.297
33702SOL    HW1 2938   4.197  11.594   7.380
33702SOL    HW2 2939   4.199  11.533   7.242
33703SOL     OW 2940   7.114   9.490  12.554
33703SOL    HW1 2941   7.197   9.461  12.516
33703SOL    HW2 2942   7.047   9.447  12.500
33704SOL     OW 2943   0.204   4.196   9.031
33704SOL    HW1 2944   0.121   4.155   9.008
33704SOL    HW2 2945   0.267   4.158   8.971
33705SOL     OW 2946   9.479   7.271  14.128
33705SOL    HW1 2947   9.394   7.228  14.123
33705SOL    HW2 2948   9.465   7.346  14.186
33706SOL     OW 2949   4.740   2.103   6.400
33706SOL    HW1 2950   4.696   2.046   6.337
33706SOL    HW2 2951   4.670   2.152   6.442
33707SOL     OW 2952   5.741  11.609  13.690
33707SOL    HW1 2953   5.826  11.566  13.700
33707SOL    HW2 2954   5.716  11.632  13.780
33708SOL     OW 2955   1.053   9.444  11.711
33708SOL    HW1 2956   1.099   9.460  11.629
33708SOL    HW2 2957   1.074   9.353  11.732
33709SOL     OW 2958  10.432   2.985  11.367
33709SOL    HW1 2959  10.462   3.021  11.284
33709SOL    HW2 2960  10.483   2.905  11.380
33710SOL     OW 2961  13.530   4.491   5.056
33710SOL    HW1 2962  13.548   4.555   4.987
33710SOL    HW2 2963  13.459   4.437   5.020
33711SOL     OW 2964  14.015  13.699  12.775
33711SOL    HW1 2965  14.025  13.631  12.708
33711SOL    HW2 2966  13.920  13.707  12.786
33712SOL     OW 2967  11.278  14.665  14.449
33712SOL    HW1 2968  11.343  14.659  14.379
33712SOL    HW2 2969  11.324  14.707  14.521
33713SOL     OW 2970   7.269   1.351   9.647
33713SOL    HW1 2971   7.312   1.405   9.713
33713SOL    HW2 2972   7.245   1.412   9.577
33714SOL     OW 2973   6.206   9.911   3.401
33714SOL    HW1 2974   6.140   9.871   3.457
33714SOL    HW2 2975   6.280   9.929   3.460
33715SOL     OW 2976   1.073  14.650  10.996
33715SOL    HW1 2977   1.033  14.656  10.909
33715SOL    HW2 2978   1.154  14.700  10.989
33716SOL     OW 2979   0.019   5.110  14.354
33716SOL    HW1 2980  14.868   5.022  14.371
33716SOL    HW2 2981   0.087   5.124  14.420
33717SOL     OW 2982  14.364   9.949  13.890
33717SOL    HW1 2983  14.348  10.031  13.937
33717SOL    HW2 2984  14.346   9.969  13.799
33718SOL     OW 2985   2.507   9.581   0.326
33718SOL    HW1 2986   2.473   9.536   0.249
33718SOL    HW2 2987   2.602   9.584   0.312
33719SOL     OW 2988   0.399   8.127  12.008
33719SOL    HW1 2989   0.332   8.060  12.016
33719SOL    HW2 2990   0.356   8.208  12.036
33720SOL     OW 2991   2.946   2.259  13.463
33720SOL    HW1 2992   2.929   2.243  13.556
33720SOL    HW2 2993   2.949   2.354  13.455
33721SOL     OW 2994  13.738   4.563   9.569
33721SOL    HW1 2995  13.721   4.479   9.526
33721SOL    HW2 2996  13.687   4.559   9.650
33722SOL     OW 2997  11.210   3.466   4.842
33722SOL    HW1 2998  11.272   3.430   4.906
33722SOL    HW2 2999  11.259   3.469   4.760
33723SOL     OW 3000  11.273   1.459  10.129
33723SOL    HW1 3001  11.190   1.424  10.162
33723SOL    HW2 3002  11.312   1.503  10.204
33724SOL     OW 3003  11.947   2.573   3.285
33724SOL    HW1 3004  11.869   2.601   3.237
33724SOL    HW2 3005  11.916   2.557   3.374
33725SOL     OW 3006   5.161   3.014   7.620
33725SOL    HW1 3007   5.108   3.003   7.540
33725SOL    HW2 3008   5.251   2.998   7.591
33726SOL     OW 3009   9.823  10.286  14.395
33726SOL    HW1 3010   9.754  10.281  14.461
33726SOL    HW2 3011   9.790  10.347  14.329
33727SOL     OW 3012   7.418  14.648  12.871
33727SOL    HW1 3013   7.384  14.721  12.924
33727SOL    HW2 3014   7.437  14.687  12.786
33728SOL     OW 3015  12.251   4.229   1.099
33728SOL    HW1 3016  12.300   4.303   1.136
33728SOL    HW2 3017  12.305   4.200   1.026
33729SOL     OW 3018   4.414  14.340  11.296
33729SOL    HW1 3019   4.355  14.395  11.244
33729SOL    HW2 3020   4.391  14.250  11.270
33730SOL     OW 3021  11.780   5.955  11.903
33730SOL    HW1 3022  11.821   5.884  11.952
33730SOL    HW2 3023  11.740   6.010  11.970
33731SOL     OW 3024   6.204  13.541  14.356
33731SOL    HW1 3025   6.151  13.600  14.302
33731SOL    HW2 3026   6.141  13.490  14.406
33732SOL     OW 3027  12.065   4.165   7.609
33732SOL    HW1 3028  12.126   4.098   7.577
33732SOL    HW2 3029  12.091   4.179   7.700
33733SOL     OW 3030  12.898   6.975   7.384
33733SOL    HW1 3031  12.865   6.949   7.298
33733SOL    HW2 3032  12.871   7.066   7.394
33734SOL     OW 3033   6.488   9.126  13.298
33734SOL    HW1 3034   6.411   9.070  13.297
33734SOL    HW2 3035   6.455   9.212  13.324
33735SOL     OW 3036   3.030   0.615   2.698
33735SOL    HW1 3037   3.125   0.601   2.699
33735SOL    HW2 3038   3.019   0.705   2.671
33736SOL     OW 3039  10.626  13.069   4.903
33736SOL    HW1 3040  10.707  13.119   4.910
33736SOL    HW2 3041  10.576  13.094   4.981
33737SOL     OW 3042   5.114   5.454   2.858
33737SOL    HW1 3043   5.169   5.528   2.881
33737SOL    HW2 3044   5.027   5.479   2.889
33738SOL     OW 3045   2.529   1.944   0.707
33738SOL    HW1 3046   2.600   1.990   0.662
33738SOL    HW2 3047   2.536   1.853   0.678
33739SOL     OW 3048   3.065  12.532   1.120
33739SOL    HW1 3049   3.082  12.534   1.214
33739SOL    HW2 3050   3.064  12.624   1.093
33740SOL     OW 3051   0.793   2.418   0.561
33740SOL    HW1 3052   0.801   2.479   0.634
33740SOL    HW2 3053   0.798   2.473   0.483
33741SOL     OW 3054   3.022   2.458  10.298
33741SOL    HW1 3055   2.962   2.514  10.248
33741SOL    HW2 3056   3.015   2.372  10.256
33742SOL     OW 3057   5.045   5.363  14.481
33742SOL    HW1 3058   5.090   5.415  14.415
33742SOL    HW2 3059   5.056   5.272  14.452
33743SOL     OW 3060  10.496   4.681   7.661
33743SOL    HW1 3061  10.506   4.655   7.753
33743SOL    HW2 3062  10.404   4.707   7.654
33744SOL     OW 3063   4.173   3.831  12.496
33744SOL    HW1 3064   4.092   3.806  12.452
33744SOL    HW2 3065   4.201   3.910  12.451
33745SOL     OW 3066  11.562  10.990  11.100
33745SOL    HW1 3067  11.618  10.934  11.155
33745SOL    HW2 3068  11.508  10.928  11.051
33746SOL     OW 3069  11.522  11.349  13.430
33746SOL    HW1 3070  11.470  11.295  13.490
33746SOL    HW2 3071  11.512  11.438  13.464
33747SOL     OW 3072  10.603   3.867   7.815
33747SOL    HW1 3073  10.657   3.798   7.774
33747SOL    HW2 3074  10.513   3.837   7.804
33748SOL     OW 3075   0.395  11.814  10.973
33748SOL    HW1 3076   0.313  11.824  11.021
33748SOL    HW2 3077   0.406  11.719  10.964
33749SOL     OW 3078   4.927   0.243  10.722
33749SOL    HW1 3079   4.915   0.336  10.741
33749SOL    HW2 3080   5.020   0.227  10.738
33750SOL     OW 3081   2.438   5.270   7.635
33750SOL    HW1 3082   2.393   5.274   7.551
33750SOL    HW2 3083   2.479   5.184   7.637
33751SOL     OW 3084   2.652   3.264   1.515
33751SOL    HW1 3085   2.582   3.271   1.450
33751SOL    HW2 3086   2.681   3.173   1.509
33752SOL     OW 3087   6.081   1.504  11.370
33752SOL    HW1 3088   6.126   1.483  11.288
33752SOL    HW2 3089   6.012   1.438  11.377
33753SOL     OW 3090  10.811   0.192  13.061
33753SOL    HW1 3091  10.885   0.223  13.113
33753SOL    HW2 3092  10.847   0.181  12.973
33754SOL     OW 3093   3.142  11.910   3.097
33754SOL    HW1 3094   3.212  11.907   3.163
33754SOL    HW2 3095   3.182  11.875   3.018
33755SOL     OW 3096   3.673   7.605   3.014
33755SOL    HW1 3097   3.645   7.662   3.085
33755SOL    HW2 3098   3.626   7.523   3.028
33756SOL     OW 3099  13.991  12.788  12.578
33756SOL    HW1 3100  14.071  12.769  12.528
33756SOL    HW2 3101  13.937  12.710  12.568
33757SOL     OW 3102   8.476   8.411   3.045
33757SOL    HW1 3103   8.392   8.392   3.003
33757SOL    HW2 3104   8.527   8.330   3.035
33758SOL     OW 3105   6.092  13.739  10.145
33758SOL    HW1 3106   6.008  13.747  10.189
33758SOL    HW2 3107   6.077  13.773  10.057
33759SOL     OW 3108   6.192  10.259  11.617
33759SOL    HW1 3109   6.101  10.278  11.638
33759SOL    HW2 3110   6.203  10.166  11.639
33760SOL     OW 3111  10.607  13.823  13.299
33760SOL    HW1 3112  10.536  13.885  13.318
33760SOL    HW2 3113  10.626  13.836  13.206
33761SOL     OW 3114  11.366   5.010   7.650
33761SOL    HW1 3115  11.329   5.076   7.709
33761SOL    HW2 3116  11.293   4.982   7.596
33762SOL     OW 3117   3.299   3.126   3.603
33762SOL    HW1 3118   3.242   3.165   3.670
33762SOL    HW2 3119   3.371   3.087   3.653
33763SOL     OW 3120   5.755  11.849  10.376
33763SOL    HW1 3121   5.840  11.824  10.413
33763SOL    HW2 3122   5.691  11.818  10.440
33764SOL     OW 3123   8.100  14.239   2.628
33764SOL    HW1 3124   8.089  14.238   2.723
33764SOL    HW2 3125   8.074  14.151   2.600
33765SOL     OW 3126   8.213  11.541   2.262
33765SOL    HW1 3127   8.137  11.599   2.257
33765SOL    HW2 3128   8.199  11.477   2.193
33766SOL     OW 3129  11.345  14.254   7.380
33766SOL    HW1 3130  11.396  14.227   7.304
33766SOL    HW2 3131  11.289  14.179   7.401
33767SOL     OW 3132   8.018   1.461   7.255
33767SOL    HW1 3133   8.100   1.455   7.206
33767SOL    HW2 3134   7.963   1.392   7.219
33768SOL     OW 3135   4.071   9.672   1.173
33768SOL    HW1 3136   4.055   9.615   1.248
33768SOL    HW2 3137   4.145   9.726   1.200
33769SOL     OW 3138  11.984   3.739   1.215
33769SOL    HW1 3139  11.977   3.803   1.145
33769SOL    HW2 3140  11.919   3.767   1.280
33770SOL     OW 3141  10.267   2.013  10.705
33770SOL    HW1 3142  10.173   2.030  10.712
33770SOL    HW2 3143  10.306   2.057  10.780
33771SOL     OW 3144   2.048   6.815  13.345
33771SOL    HW1 3145   2.122   6.809  13.405
33771SOL    HW2 3146   1.988   6.747  13.375
33772SOL     OW 3147   1.059  11.491  10.488
33772SOL    HW1 3148   1.066  11.444  10.404
33772SOL    HW2 3149   1.112  11.570  10.475
33773SOL     OW 3150  11.116   7.818  10.612
33773SOL    HW1 3151  11.045   7.787  10.669
33773SOL    HW2 3152  11.140   7.904  10.647
33774SOL     OW 3153  13.592   5.533  12.995
33774SOL    HW1 3154  13.672   5.494  12.960
33774SOL    HW2 3155  13.524   5.468  12.977
33775SOL     OW 3156   2.490  13.111   1.603
33775SOL    HW1 3157   2.412  13.100   1.548
33775SOL    HW2 3158   2.510  13.023   1.634
33776SOL     OW 3159   7.749   5.448  13.140
33776SOL    HW1 3160   7.699   5.503  13.079
33776SOL    HW2 3161   7.700   5.366  13.144
33777SOL     OW 3162   1.930  11.698  11.753
33777SOL    HW1 3163   1.907  11.722  11.843
33777SOL    HW2 3164   1.881  11.617  11.737
33778SOL     OW 3165  13.161   5.350   9.126
33778SOL    HW1 3166  13.105   5.394   9.063
33778SOL    HW2 3167  13.161   5.407   9.203
33779SOL     OW 3168  14.533   9.633   1.230
33779SOL    HW1 3169  14.561   9.712   1.185
33779SOL    HW2 3170  14.470   9.592   1.171
33780SOL     OW 3171   7.388   6.885   4.820
33780SOL    HW1 3172   7.453   6.941   4.862
33780SOL    HW2 3173   7.358   6.936   4.744
33781SOL     OW 3174   9.361  13.792  14.741
33781SOL    HW1 3175   9.374  13.770  14.649
33781SOL    HW2 3176   9.329  13.883  14.740
33782SOL     OW 3177   4.758  13.822   8.435
33782SOL    HW1 3178   4.801  13.830   8.350
33782SOL    HW2 3179   4.771  13.730   8.459
33783SOL     OW 3180   7.102   1.179   2.498
33783SOL    HW1 3181   7.145   1.265   2.500
33783SOL    HW2 3182   7.171   1.119   2.468
33784SOL     OW 3183   6.317  11.158   1.274
33784SOL    HW1 3184   6.355  11.179   1.359
33784SOL    HW2 3185   6.229  11.193   1.278
33785SOL     OW 3186  11.502   2.052  12.778
33785SOL    HW1 3187  11.562   1.982  12.805
33785SOL    HW2 3188  11.459   2.018  12.700
33786SOL     OW 3189   7.631   4.220   5.434
33786SOL    HW1 3190   7.565   4.233   5.503
33786SOL    HW2 3191   7.624   4.298   5.379
33787SOL     OW 3192   1.606  10.546   0.654
33787SOL    HW1 3193   1.565  10.617   0.605
33787SOL    HW2 3194   1.684  10.523   0.604
33788SOL     OW 3195   4.174   4.365   9.628
33788SOL    HW1 3196   4.132   4.280   9.638
33788SOL    HW2 3197   4.236   4.353   9.556
33789SOL     OW 3198   6.189   1.316   9.079
33789SOL    HW1 3199   6.247   1.252   9.038
33789SOL    HW2 3200   6.133   1.264   9.138
33790SOL     OW 3201   6.294   4.378   4.312
33790SOL    HW1 3202   6.338   4.453   4.274
33790SOL    HW2 3203   6.201   4.398   4.302
33791SOL     OW 3204  12.281   1.446   7.647
33791SOL    HW1 3205  12.207   1.398   7.684
33791SOL    HW2 3206  12.358   1.399   7.681
33792SOL     OW 3207   7.435   2.205  13.530
33792SOL    HW1 3208   7.510   2.146  13.520
33792SOL    HW2 3209   7.454   2.255  13.609
33793SOL     OW 3210  13.654  14.657   4.840
33793SOL    HW1 3211  13.710  14.607   4.780
33793SOL    HW2 3212  13.716  14.704   4.896
33794SOL     OW 3213  12.531   3.744   2.360
33794SOL    HW1 3214  12.435   3.748   2.361
33794SOL    HW2 3215  12.559   3.832   2.384
33795SOL     OW 3216  13.477  13.468   6.979
33795SOL    HW1 3217  13.411  13.410   6.942
33795SOL    HW2 3218  13.546  13.472   6.913
33796SOL     OW 3219   1.671   0.384   9.330
33796SOL    HW1 3220   1.624   0.310   9.368
33796SOL    HW2 3221   1.764   0.362   9.342
33797SOL     OW 3222   2.602  10.840   5.693
33797SOL    HW1 3223   2.633  10.902   5.627
33797SOL    HW2 3224   2.571  10.765   5.643
33798SOL     OW 3225  14.638   8.814   4.859
33798SOL    HW1 3226  14.598   8.838   4.775
33798SOL    HW2 3227  14.567   8.772   4.907
33799SOL     OW 3228  13.991   8.356   0.312
33799SOL    HW1 3229  13.977   8.365   0.217
33799SOL    HW2 3230  14.030   8.440   0.338
33800SOL     OW 3231  10.006  14.263   0.698
33800SOL    HW1 3232   9.999  14.210   0.619
33800SOL    HW2 3233   9.916  14.289   0.718
33801SOL     OW 3234   6.327   7.186   2.709
33801SOL    HW1 3235   6.242   7.209   2.671
33801SOL    HW2 3236   6.308   7.174   2.802
33802SOL     OW 3237  14.068  10.402  14.653
33802SOL    HW1 3238  14.026  10.441  14.576
33802SOL    HW2 3239  14.034  10.312  14.656
33803SOL     OW 3240   5.680  11.924   3.966
33803SOL    HW1 3241   5.623  11.999   3.978
33803SOL    HW2 3242   5.691  11.887   4.053
33804SOL     OW 3243  14.091   2.703   9.619
33804SOL    HW1 3244  14.132   2.620   9.644
33804SOL    HW2 3245  14.150   2.739   9.553
33805SOL     OW 3246   2.007   2.526  10.219
33805SOL    HW1 3247   2.055   2.581  10.280
33805SOL    HW2 3248   1.969   2.587  10.156
33806SOL     OW 3249   8.582   1.616   7.298
33806SOL    HW1 3250   8.645   1.688   7.289
33806SOL    HW2 3251   8.531   1.638   7.376
33807SOL     OW 3252  10.299  13.040   8.459
33807SOL    HW1 3253  10.378  13.010   8.414
33807SOL    HW2 3254  10.318  13.026   8.552
33808SOL     OW 3255   7.500  12.109   7.159
33808SOL    HW1 3256   7.582  12.124   7.112
33808SOL    HW2 3257   7.448  12.055   7.099
33809SOL     OW 3258  14.581   0.889  11.113
33809SOL    HW1 3259  14.655   0.859  11.166
33809SOL    HW2 3260  14.581   0.831  11.037
33810SOL     OW 3261  12.169  11.361   7.562
33810SOL    HW1 3262  12.136  11.359   7.472
33810SOL    HW2 3263  12.173  11.269   7.588
33811SOL     OW 3264   4.875   9.949   2.663
33811SOL    HW1 3265   4.871   9.865   2.708
33811SOL    HW2 3266   4.907   9.928   2.575
33812SOL     OW 3267   7.111  13.633  14.438
33812SOL    HW1 3268   7.172  13.560  14.445
33812SOL    HW2 3269   7.075  13.625  14.349
33813SOL     OW 3270   1.581   1.392  13.173
33813SOL    HW1 3271   1.613   1.465  13.226
33813SOL    HW2 3272   1.536   1.433  13.100
33814SOL     OW 3273  11.853   6.571   7.086
33814SOL    HW1 3274  11.928   6.525   7.123
33814SOL    HW2 3275  11.782   6.554   7.148
33815SOL     OW 3276   3.739   8.566   9.547
33815SOL    HW1 3277   3.785   8.614   9.615
33815SOL    HW2 3278   3.803   8.560   9.475
33816SOL     OW 3279   0.636   4.225  14.771
33816SOL    HW1 3280   0.593   4.180  14.699
33816SOL    HW2 3281   0.569   4.234  14.838
33817SOL     OW 3282   6.657  13.188   1.332
33817SOL    HW1 3283   6.592  13.186   1.402
33817SOL    HW2 3284   6.609  13.216   1.254
33818SOL     OW 3285  12.286   8.126   3.860
33818SOL    HW1 3286  12.210   8.068   3.855
33818SOL    HW2 3287  12.314   8.121   3.952
33819SOL     OW 3288   0.408   2.551   2.080
33819SOL    HW1 3289   0.386   2.461   2.104
33819SOL    HW2 3290   0.325   2.588   2.048
33820SOL     OW 3291   5.760   7.662   7.994
33820SOL    HW1 3292   5.712   7.665   8.076
33820SOL    HW2 3293   5.763   7.753   7.964
33821SOL     OW 3294   1.487   0.269  11.640
33821SOL    HW1 3295   1.433   0.327  11.587
33821SOL    HW2 3296   1.577   0.297  11.624
33822SOL     OW 3297   9.392   9.948   9.323
33822SOL    HW1 3298   9.411   9.902   9.404
33822SOL    HW2 3299   9.300   9.930   9.306
33823SOL     OW 3300  12.135   4.210   4.218
33823SOL    HW1 3301  12.191   4.278   4.181
33823SOL    HW2 3302  12.074   4.188   4.147
33824SOL     OW 3303  12.248   7.655   5.492
33824SOL    HW1 3304  12.171   7.685   5.443
33824SOL    HW2 3305  12.218   7.576   5.536
33825SOL     OW 3306   1.889   8.824   6.123
33825SOL    HW1 3307   1.813   8.792   6.076
33825SOL    HW2 3308   1.895   8.917   6.099
33826SOL     OW 3309   6.637   9.022   4.221
33826SOL    HW1 3310   6.567   8.980   4.172
33826SOL    HW2 3311   6.718   8.994   4.178
33827SOL     OW 3312   2.318   4.190  14.494
33827SOL    HW1 3313   2.351   4.216  14.409
33827SOL    HW2 3314   2.272   4.107  14.477
33828SOL     OW 3315  12.018   4.337   2.077
33828SOL    HW1 3316  12.056   4.258   2.114
33828SOL    HW2 3317  12.088   4.374   2.023
33829SOL     OW 3318  13.631  12.647   3.050
33829SOL    HW1 3319  13.662  12.667   3.139
33829SOL    HW2 3320  13.580  12.567   3.060
33830SOL     OW 3321  13.452   1.833  14.866
33830SOL    HW1 3322  13.399   1.840  14.787
33830SOL    HW2 3323  13.388   1.834   0.055
33831SOL     OW 3324  10.383   9.497   0.970
33831SOL    HW1 3325  10.386   9.402   0.965
33831SOL    HW2 3326  10.439   9.527   0.899
33832SOL     OW 3327   1.439   0.015   0.493
33832SOL    HW1 3328   1.390   0.091   0.522
33832SOL    HW2 3329   1.402  14.823   0.542
33833SOL     OW 3330  11.280   1.660   7.075
33833SOL    HW1 3331  11.344   1.728   7.096
33833SOL    HW2 3332  11.332   1.584   7.049
33834SOL     OW 3333  11.371   6.231   3.591
33834SOL    HW1 3334  11.280   6.233   3.622
33834SOL    HW2 3335  11.386   6.141   3.562
33835SOL     OW 3336   1.990   1.021   7.982
33835SOL    HW1 3337   1.910   0.971   7.999
33835SOL    HW2 3338   1.970   1.070   7.902
33836SOL     OW 3339   0.616   5.296  12.335
33836SOL    HW1 3340   0.677   5.223  12.337
33836SOL    HW2 3341   0.530   5.256  12.347
33837SOL     OW 3342  13.132   2.889  10.272
33837SOL    HW1 3343  13.133   2.853  10.361
33837SOL    HW2 3344  13.126   2.813  10.215
33838SOL     OW 3345  12.116   8.539  14.106
33838SOL    HW1 3346  12.066   8.467  14.066
33838SOL    HW2 3347  12.146   8.504  14.190
33839SOL     OW 3348   0.846  10.406  14.290
33839SOL    HW1 3349   0.920  10.358  14.255
33839SOL    HW2 3350   0.770  10.372  14.242
33840SOL     OW 3351   3.578   9.589   3.919
33840SOL    HW1 3352   3.495   9.596   3.965
33840SOL    HW2 3353   3.609   9.679   3.909
33841SOL     OW 3354   5.166   2.594   7.635
33841SOL    HW1 3355   5.241   2.556   7.682
33841SOL    HW2 3356   5.109   2.627   7.704
33842SOL     OW 3357  11.437   7.431   0.819
33842SOL    HW1 3358  11.369   7.478   0.866
33842SOL    HW2 3359  11.481   7.379   0.886
33843SOL     OW 3360   6.733   9.308   1.985
33843SOL    HW1 3361   6.829   9.302   1.987
33843SOL    HW2 3362   6.703   9.222   2.014
33844SOL     OW 3363  12.042  11.344   3.998
33844SOL    HW1 3364  11.988  11.283   4.047
33844SOL    HW2 3365  12.117  11.362   4.056
33845SOL     OW 3366   3.584  14.779   7.439
33845SOL    HW1 3367   3.531  14.847   7.480
33845SOL    HW2 3368   3.642  14.827   7.379
33846SOL     OW 3369   7.703   4.871   1.501
33846SOL    HW1 3370   7.664   4.824   1.574
33846SOL    HW2 3371   7.628   4.903   1.450
33847SOL     OW 3372   6.166   8.208   0.642
33847SOL    HW1 3373   6.249   8.217   0.595
33847SOL    HW2 3374   6.102   8.190   0.573
33848SOL     OW 3375  13.927   0.857   0.039
33848SOL    HW1 3376  13.879   0.845   0.120
33848SOL    HW2 3377  13.978   0.777   0.028
33849SOL     OW 3378  10.493   1.805  14.508
33849SOL    HW1 3379  10.438   1.878  14.478
33849SOL    HW2 3380  10.541   1.841  14.583
33850SOL     OW 3381  14.741   0.366  12.591
33850SOL    HW1 3382  14.669   0.428  12.603
33850SOL    HW2 3383  14.701   0.291  12.547
33851SOL     OW 3384  14.882   9.276   2.003
33851SOL    HW1 3385   0.023   9.233   1.920
33851SOL    HW2 3386  14.829   9.211   2.050
33852SOL     OW 3387   1.190   4.323   2.184
33852SOL    HW1 3388   1.274   4.292   2.217
33852SOL    HW2 3389   1.125   4.268   2.228
33853SOL     OW 3390   3.417   2.309  13.416
33853SOL    HW1 3391   3.334   2.296  13.371
33853SOL    HW2 3392   3.445   2.221  13.440
33854SOL     OW 3393  13.376   2.333   6.705
33854SOL    HW1 3394  13.354   2.381   6.785
33854SOL    HW2 3395  13.470   2.348   6.693
33855SOL     OW 3396  12.379   1.005   6.883
33855SOL    HW1 3397  12.326   0.959   6.818
33855SOL    HW2 3398  12.454   0.948   6.899
33856SOL     OW 3399   3.494   8.950   2.809
33856SOL    HW1 3400   3.407   8.945   2.850
33856SOL    HW2 3401   3.550   8.896   2.866
33857SOL     OW 3402  13.348   8.641   2.231
33857SOL    HW1 3403  13.252   8.641   2.236
33857SOL    HW2 3404  13.375   8.721   2.275
33858SOL     OW 3405   1.762   8.865   4.628
33858SOL    HW1 3406   1.692   8.906   4.578
33858SOL    HW2 3407   1.767   8.917   4.709
33859SOL     OW 3408   5.273   0.670   7.943
33859SOL    HW1 3409   5.357   0.687   7.900
33859SOL    HW2 3410   5.220   0.747   7.922
33860SOL     OW 3411   9.951   8.937   8.790
33860SOL    HW1 3412   9.855   8.941   8.786
33860SOL    HW2 3413   9.970   8.870   8.856
33861SOL     OW 3414   1.545  10.411   1.254
33861SOL    HW1 3415   1.524  10.486   1.310
33861SOL    HW2 3416   1.485  10.418   1.181
33862SOL     OW 3417   1.699   4.312   7.583
33862SOL    HW1 3418   1.746   4.232   7.607
33862SOL    HW2 3419   1.663   4.293   7.496
33863SOL     OW 3420   9.015   8.284   4.958
33863SOL    HW1 3421   8.938   8.339   4.945
33863SOL    HW2 3422   9.052   8.273   4.870
33864SOL     OW 3423   6.295   9.777  12.062
33864SOL    HW1 3424   6.226   9.740  12.117
33864SOL    HW2 3425   6.250   9.805  11.983
33865SOL     OW 3426   4.801  10.965  10.305
33865SOL    HW1 3427   4.811  11.052  10.344
33865SOL    HW2 3428   4.861  10.909  10.356
33866SOL     OW 3429  14.765  14.000   6.401
33866SOL    HW1 3430  14.843  13.960   6.363
33866SOL    HW2 3431  14.693  13.946   6.368
33867SOL     OW 3432   5.718  13.526   5.184
33867SOL    HW1 3433   5.769  13.545   5.106
33867SOL    HW2 3434   5.645  13.587   5.181
33868SOL     OW 3435   1.965   8.089  11.229
33868SOL    HW1 3436   2.020   8.159  11.265
33868SOL    HW2 3437   1.877   8.126  11.228
33869SOL     OW 3438   4.002   4.342   7.649
33869SOL    HW1 3439   3.956   4.387   7.578
33869SOL    HW2 3440   4.027   4.258   7.612
33870SOL     OW 3441   0.562  13.034   3.494
33870SOL    HW1 3442   0.519  12.987   3.564
33870SOL    HW2 3443   0.650  12.996   3.489
33871SOL     OW 3444   4.668   8.854  10.141
33871SOL    HW1 3445   4.622   8.860  10.057
33871SOL    HW2 3446   4.741   8.794  10.124
33872SOL     OW 3447  10.573   2.383   3.670
33872SOL    HW1 3448  10.482   2.353   3.669
33872SOL    HW2 3449  10.566   2.477   3.655
33873SOL     OW 3450  12.808  14.789   1.041
33873SOL    HW1 3451  12.735  14.780   1.102
33873SOL    HW2 3452  12.885  14.799   1.098
33874SOL     OW 3453   2.343   4.200  11.607
33874SOL    HW1 3454   2.275   4.138  11.634
33874SOL    HW2 3455   2.311   4.236  11.524
33875SOL     OW 3456   8.254  11.905   3.889
33875SOL    HW1 3457   8.233  11.824   3.936
33875SOL    HW2 3458   8.332  11.882   3.837
33876SOL     OW 3459   8.259   4.124   1.863
33876SOL    HW1 3460   8.195   4.195   1.858
33876SOL    HW2 3461   8.206   4.044   1.855
33877SOL     OW 3462   5.666   6.695  11.575
33877SOL    HW1 3463   5.755   6.693  11.609
33877SOL    HW2 3464   5.616   6.744  11.640
33878SOL     OW 3465  10.367   1.329   5.933
33878SOL    HW1 3466  10.449   1.323   5.884
33878SOL    HW2 3467  10.300   1.346   5.867
33879SOL     OW 3468   9.083   1.844   3.691
33879SOL    HW1 3469   8.995   1.842   3.729
33879SOL    HW2 3470   9.100   1.937   3.673
33880SOL     OW 3471   3.270  11.394   9.242
33880SOL    HW1 3472   3.219  11.322   9.279
33880SOL    HW2 3473   3.343  11.352   9.196
33881SOL     OW 3474   2.069   9.724   0.278
33881SOL    HW1 3475   1.978   9.734   0.250
33881SOL    HW2 3476   2.117   9.792   0.231
33882SOL     OW 3477  12.801  13.652   4.791
33882SOL    HW1 3478  12.876  13.666   4.733
33882SOL    HW2 3479  12.738  13.718   4.764
33883SOL     OW 3480  12.122  14.215   5.086
33883SOL    HW1 3481  12.195  14.196   5.145
33883SOL    HW2 3482  12.084  14.129   5.066
33884SOL     OW 3483   4.550   7.571  12.709
33884SOL    HW1 3484   4.592   7.491  12.678
33884SOL    HW2 3485   4.523   7.550  12.799
33885SOL     OW 3486   7.662  13.676  10.042
33885SOL    HW1 3487   7.619  13.590  10.032
33885SOL    HW2 3488   7.624  13.713  10.121
33886SOL     OW 3489  13.225   4.463   3.339
33886SOL    HW1 3490  13.219   4.503   3.252
33886SOL    HW2 3491  13.288   4.392   3.329
33887SOL     OW 3492   7.074   1.817   0.832
33887SOL    HW1 3493   7.130   1.894   0.821
33887SOL    HW2 3494   6.996   1.836   0.780
33888SOL     OW 3495   0.283  13.135   9.314
33888SOL    HW1 3496   0.287  13.084   9.395
33888SOL    HW2 3497   0.287  13.226   9.344
33889SOL     OW 3498  12.629   4.482  10.205
33889SOL    HW1 3499  12.619   4.389  10.228
33889SOL    HW2 3500  12.542   4.519  10.215
33890SOL     OW 3501   9.522  12.329   6.139
33890SOL    HW1 3502   9.457  12.345   6.206
33890SOL    HW2 3503   9.586  12.400   6.150
33891SOL     OW 3504  12.568   6.641   3.765
33891SOL    HW1 3505  12.515   6.720   3.747
33891SOL    HW2 3506  12.648   6.654   3.715
33892SOL     OW 3507  12.644   3.991   2.358
33892SOL    HW1 3508  12.594   4.070   2.336
33892SOL    HW2 3509  12.700   3.977   2.282
33893SOL     OW 3510   2.960   2.405   0.379
33893SOL    HW1 3511   2.990   2.489   0.345
33893SOL    HW2 3512   2.865   2.406   0.365
33894SOL     OW 3513   5.938   0.350  14.096
33894SOL    HW1 3514   5.977   0.372  14.011
33894SOL    HW2 3515   5.995   0.283  14.132
33895SOL     OW 3516   1.315   3.513   9.098
33895SOL    HW1 3517   1.326   3.519   9.193
33895SOL    HW2 3518   1.399   3.481   9.066
33896SOL     OW 3519   8.890  11.468   8.296
33896SOL    HW1 3520   8.936  11.546   8.329
33896SOL    HW2 3521   8.911  11.466   8.203
33897SOL     OW 3522   1.299   3.913   2.280
33897SOL    HW1 3523   1.376   3.858   2.263
33897SOL    HW2 3524   1.333   4.002   2.282
33898SOL     OW 3525   2.144   9.435   1.325
33898SOL    HW1 3526   2.062   9.467   1.363
33898SOL    HW2 3527   2.195   9.404   1.399
33899SOL     OW 3528  10.042   1.655  11.908
33899SOL    HW1 3529   9.988   1.611  11.843
33899SOL    HW2 3530  10.030   1.749  11.890
33900SOL     OW 3531   0.717   2.422   7.333
33900SOL    HW1 3532   0.680   2.407   7.247
33900SOL    HW2 3533   0.779   2.494   7.321
33901SOL     OW 3534   0.125   3.635  14.310
33901SOL    HW1 3535   0.158   3.682  14.387
33901SOL    HW2 3536   0.138   3.696  14.238
33902SOL     OW 3537   9.026  12.381   3.453
33902SOL    HW1 3538   9.005  12.289   3.468
33902SOL    HW2 3539   9.044  12.387   3.359
33903SOL     OW 3540   5.956  10.241   1.533
33903SOL    HW1 3541   5.953  10.306   1.604
33903SOL    HW2 3542   6.045  10.207   1.535
33904SOL     OW 3543   0.128  12.741  12.541
33904SOL    HW1 3544   0.155  12.783  12.459
33904SOL    HW2 3545   0.061  12.800  12.577
33905SOL     OW 3546  13.443  13.464   9.701
33905SOL    HW1 3547  13.426  13.526   9.771
33905SOL    HW2 3548  13.445  13.379   9.744
33906SOL     OW 3549   6.885   4.738   4.360
33906SOL    HW1 3550   6.887   4.823   4.314
33906SOL    HW2 3551   6.963   4.692   4.329
33907SOL     OW 3552   4.159  13.697   0.248
33907SOL    HW1 3553   4.096  13.714   0.317
33907SOL    HW2 3554   4.163  13.779   0.199
33908SOL     OW 3555  14.326   9.535   6.516
33908SOL    HW1 3556  14.364   9.461   6.467
33908SOL    HW2 3557  14.233   9.531   6.496
33909SOL     OW 3558   1.716   7.607   0.716
33909SOL    HW1 3559   1.808   7.593   0.738
33909SOL    HW2 3560   1.714   7.609   0.620
33910SOL     OW 3561   3.477   8.608  14.198
33910SOL    HW1 3562   3.427   8.576  14.123
33910SOL    HW2 3563   3.419   8.595  14.273
33911SOL     OW 3564   0.563   3.730   0.882
33911SOL    HW1 3565   0.580   3.761   0.971
33911SOL    HW2 3566   0.486   3.673   0.891
33912SOL     OW 3567  13.860   8.982   7.964
33912SOL    HW1 3568  13.799   8.919   8.003
33912SOL    HW2 3569  13.938   8.978   8.020
33913SOL     OW 3570   6.080   8.534   0.477
33913SOL    HW1 3571   6.067   8.464   0.413
33913SOL    HW2 3572   6.173   8.556   0.470
33914SOL     OW 3573   6.175  10.280   3.892
33914SOL    HW1 3574   6.124  10.356   3.919
33914SOL    HW2 3575   6.140  10.208   3.944
33915SOL     OW 3576   6.718  12.819   3.819
33915SOL    HW1 3577   6.658  12.874   3.870
33915SOL    HW2 3578   6.734  12.869   3.739
33916SOL     OW 3579  11.240   8.518  11.306
33916SOL    HW1 3580  11.247   8.435  11.353
33916SOL    HW2 3581  11.330   8.538  11.279
33917SOL     OW 3582   5.079  10.573  11.941
33917SOL    HW1 3583   5.047  10.568  12.031
33917SOL    HW2 3584   5.152  10.511  11.937
33918SOL     OW 3585   0.046   9.634   8.371
33918SOL    HW1 3586  14.864   9.661   8.305
33918SOL    HW2 3587   0.118   9.697   8.362
33919SOL     OW 3588   4.899   4.852  12.284
33919SOL    HW1 3589   4.854   4.796  12.348
33919SOL    HW2 3590   4.972   4.890  12.333
33920SOL     OW 3591   8.507  14.418   2.855
33920SOL    HW1 3592   8.531  14.336   2.899
33920SOL    HW2 3593   8.545  14.410   2.767
33921SOL     OW 3594   0.819   3.473   5.710
33921SOL    HW1 3595   0.788   3.415   5.641
33921SOL    HW2 3596   0.786   3.559   5.687
33922SOL     OW 3597   4.442  14.661   2.522
33922SOL    HW1 3598   4.452  14.590   2.459
33922SOL    HW2 3599   4.428  14.739   2.468
33923SOL     OW 3600  13.895   3.718  12.374
33923SOL    HW1 3601  13.818   3.691  12.324
33923SOL    HW2 3602  13.905   3.811  12.354
33924SOL     OW 3603  10.790   0.439  10.673
33924SOL    HW1 3604  10.743   0.371  10.721
33924SOL    HW2 3605  10.882   0.423  10.693
33925SOL     OW 3606  14.861   7.198  11.230
33925SOL    HW1 3607  14.775   7.160  11.210
33925SOL    HW2 3608   0.039   7.156  11.169
33926SOL     OW 3609   6.352   7.344   1.156
33926SOL    HW1 3610   6.442   7.369   1.178
33926SOL    HW2 3611   6.310   7.328   1.241
33927SOL     OW 3612   3.237   3.857  10.459
33927SOL    HW1 3613   3.153   3.818  10.481
33927SOL    HW2 3614   3.279   3.874  10.544
33928SOL     OW 3615   2.460   1.325   9.784
33928SOL    HW1 3616   2.412   1.407   9.793
33928SOL    HW2 3617   2.507   1.315   9.867
33929SOL     OW 3618   8.714  11.306  14.262
33929SOL    HW1 3619   8.764  11.360  14.323
33929SOL    HW2 3620   8.625  11.341  14.266
33930SOL     OW 3621   6.657  11.015   4.813
33930SOL    HW1 3622   6.613  10.949   4.760
33930SOL    HW2 3623   6.592  11.084   4.826
33931SOL     OW 3624  11.478  14.280  10.252
33931SOL    HW1 3625  11.517  14.319  10.175
33931SOL    HW2 3626  11.438  14.354  10.299
33932SOL     OW 3627  10.823   1.854   6.431
33932SOL    HW1 3628  10.838   1.869   6.524
33932SOL    HW2 3629  10.736   1.891   6.415
33933SOL     OW 3630   6.690   1.107  10.458
33933SOL    HW1 3631   6.598   1.124  10.441
33933SOL    HW2 3632   6.727   1.087  10.372
33934SOL     OW 3633  14.120  10.762  12.453
33934SOL    HW1 3634  14.199  10.782  12.503
33934SOL    HW2 3635  14.097  10.672  12.479
33935SOL     OW 3636   1.666   0.198   1.264
33935SOL    HW1 3637   1.748   0.155   1.241
33935SOL    HW2 3638   1.604   0.125   1.277
33936SOL     OW 3639   7.908   0.137  11.609
33936SOL    HW1 3640   7.854   0.209  11.642
33936SOL    HW2 3641   7.998   0.166  11.624
33937SOL     OW 3642   5.639   4.975   2.019
33937SOL    HW1 3643   5.668   4.962   1.929
33937SOL    HW2 3644   5.584   4.898   2.038
33938SOL     OW 3645  14.013   6.596   5.939
33938SOL    HW1 3646  14.080   6.528   5.948
33938SOL    HW2 3647  13.959   6.566   5.865
33939SOL     OW 3648   7.812   0.462  13.342
33939SOL    HW1 3649   7.846   0.452  13.431
33939SOL    HW2 3650   7.717   0.466  13.353
33940SOL     OW 3651  10.301   3.064   1.624
33940SOL    HW1 3652  10.222   3.074   1.677
33940SOL    HW2 3653  10.368   3.114   1.672
33941SOL     OW 3654   1.396   8.130   5.146
33941SOL    HW1 3655   1.461   8.087   5.202
33941SOL    HW2 3656   1.368   8.206   5.197
33942SOL     OW 3657   0.555   1.624   1.155
33942SOL    HW1 3658   0.551   1.638   1.250
33942SOL    HW2 3659   0.482   1.675   1.120
33943SOL     OW 3660   9.177   3.193  14.613
33943SOL    HW1 3661   9.208   3.264  14.557
33943SOL    HW2 3662   9.244   3.125  14.604
33944SOL     OW 3663   3.257   1.410  13.696
33944SOL    HW1 3664   3.227   1.329  13.735
33944SOL    HW2 3665   3.348   1.392  13.670
33945SOL     OW 3666   3.882   0.900  12.205
33945SOL    HW1 3667   3.836   0.816  12.199
33945SOL    HW2 3668   3.911   0.904  12.296
33946SOL     OW 3669   9.920   1.637   8.575
33946SOL    HW1 3670   9.836   1.667   8.543
33946SOL    HW2 3671   9.984   1.689   8.527
33947SOL     OW 3672   4.980  12.633   4.470
33947SOL    HW1 3673   4.920  12.621   4.397
33947SOL    HW2 3674   4.931  12.684   4.534
33948SOL     OW 3675  14.844   4.721   5.469
33948SOL    HW1 3676  14.758   4.679   5.466
33948SOL    HW2 3677  14.875   4.707   5.558
33949SOL     OW 3678   1.362   8.511   1.199
33949SOL    HW1 3679   1.301   8.507   1.126
33949SOL    HW2 3680   1.308   8.499   1.277
33950SOL     OW 3681   9.079   7.765   7.987
33950SOL    HW1 3682   9.069   7.799   8.075
33950SOL    HW2 3683   9.104   7.673   7.999
33951SOL     OW 3684   7.634   6.643   9.026
33951SOL    HW1 3685   7.710   6.642   9.085
33951SOL    HW2 3686   7.671   6.663   8.940
33952SOL     OW 3687  10.735  13.089   7.929
33952SOL    HW1 3688  10.654  13.044   7.904
33952SOL    HW2 3689  10.802  13.021   7.925
33953SOL     OW 3690   2.906   6.835  11.594
33953SOL    HW1 3691   2.944   6.757  11.635
33953SOL    HW2 3692   2.820   6.806  11.563
33954SOL     OW 3693   1.123   2.832  13.751
33954SOL    HW1 3694   1.091   2.857  13.837
33954SOL    HW2 3695   1.049   2.847  13.692
33955SOL     OW 3696   8.245   1.917   3.320
33955SOL    HW1 3697   8.284   1.836   3.353
33955SOL    HW2 3698   8.167   1.930   3.374
33956SOL     OW 3699   7.039  11.431   0.393
33956SOL    HW1 3700   7.112  11.388   0.348
33956SOL    HW2 3701   7.059  11.421   0.486
33957SOL     OW 3702  10.010   2.491   4.325
33957SOL    HW1 3703  10.061   2.568   4.302
33957SOL    HW2 3704  10.058   2.451   4.398
33958SOL     OW 3705   9.542   0.132  13.435
33958SOL    HW1 3706   9.554   0.037  13.443
33958SOL    HW2 3707   9.461   0.150  13.484
33959SOL     OW 3708  14.564   1.610   4.370
33959SOL    HW1 3709  14.503   1.613   4.445
33959SOL    HW2 3710  14.507   1.608   4.293
33960SOL     OW 3711   9.038   1.882   8.117
33960SOL    HW1 3712   8.975   1.946   8.086
33960SOL    HW2 3713   9.122   1.928   8.116
33961SOL     OW 3714   6.312   2.429   0.074
33961SOL    HW1 3715   6.288   2.513   0.032
33961SOL    HW2 3716   6.229   2.394   0.106
33962SOL     OW 3717   7.129   3.494  14.360
33962SOL    HW1 3718   7.074   3.416  14.369
33962SOL    HW2 3719   7.145   3.501  14.266
33963SOL     OW 3720   2.522   5.843   0.167
33963SOL    HW1 3721   2.427   5.845   0.176
33963SOL    HW2 3722   2.542   5.915   0.107
33964SOL     OW 3723   6.270  11.388   7.839
33964SOL    HW1 3724   6.330  11.390   7.914
33964SOL    HW2 3725   6.312  11.327   7.778
33965SOL     OW 3726   9.573   8.602   5.001
33965SOL    HW1 3727   9.602   8.530   5.057
33965SOL    HW2 3728   9.488   8.628   5.037
33966SOL     OW 3729   9.449   2.577   9.240
33966SOL    HW1 3730   9.464   2.537   9.326
33966SOL    HW2 3731   9.503   2.525   9.180
33967SOL     OW 3732   2.068   4.225   1.367
33967SOL    HW1 3733   2.160   4.216   1.392
33967SOL    HW2 3734   2.063   4.311   1.325
33968SOL     OW 3735  11.973   0.646   2.041
33968SOL    HW1 3736  12.022   0.580   2.090
33968SOL    HW2 3737  12.033   0.676   1.973
33969SOL     OW 3738   2.052   5.658   1.517
33969SOL    HW1 3739   2.118   5.592   1.497
33969SOL    HW2 3740   2.097   5.719   1.576
33970SOL     OW 3741   1.704   7.704   9.598
33970SOL    HW1 3742   1.654   7.772   9.552
33970SOL    HW2 3743   1.749   7.656   9.528
33971SOL     OW 3744  14.706  13.769  11.815
33971SOL    HW1 3745  14.776  13.704  11.820
33971SOL    HW2 3746  14.730  13.834  11.882
33972SOL     OW 3747   7.069   5.316   1.195
33972SOL    HW1 3748   7.090   5.334   1.287
33972SOL    HW2 3749   7.132   5.250   1.168
33973SOL     OW 3750   2.266  13.540  12.827
33973SOL    HW1 3751   2.240  13.490  12.749
33973SOL    HW2 3752   2.263  13.632  12.799
33974SOL     OW 3753  13.929   7.012  14.026
33974SOL    HW1 3754  14.022   7.020  14.045
33974SOL    HW2 3755  13.899   6.939  14.080
33975SOL     OW 3756   4.311   0.141   3.819
33975SOL    HW1 3757   4.344   0.051   3.824
33975SOL    HW2 3758   4.348   0.184   3.896
33976SOL     OW 3759  14.303   3.383   9.926
33976SOL    HW1 3760  14.318   3.464   9.974
33976SOL    HW2 3761  14.383   3.332   9.938
33977SOL     OW 3762   1.963   0.184  11.962
33977SOL    HW1 3763   1.897   0.132  12.008
33977SOL    HW2 3764   2.031   0.121  11.937
33978SOL     OW 3765  11.782  10.552   1.454
33978SOL    HW1 3766  11.798  10.628   1.399
33978SOL    HW2 3767  11.834  10.482   1.414
33979SOL     OW 3768   2.615   6.002   3.796
33979SOL    HW1 3769   2.582   5.953   3.871
33979SOL    HW2 3770   2.583   6.091   3.809
33980SOL     OW 3771   3.928   0.841   7.921
33980SOL    HW1 3772   3.969   0.900   7.985
33980SOL    HW2 3773   3.867   0.897   7.873
33981SOL     OW 3774   7.084   5.900   1.510
33981SOL    HW1 3775   7.007   5.895   1.454
33981SOL    HW2 3776   7.084   5.818   1.559
33982SOL     OW 3777  12.019   0.580   5.397
33982SOL    HW1 3778  11.934   0.623   5.387
33982SOL    HW2 3779  12.038   0.545   5.310
33983SOL     OW 3780   5.547   6.725  11.225
33983SOL    HW1 3781   5.471   6.690  11.178
33983SOL    HW2 3782   5.519   6.730  11.316
33984SOL     OW 3783   7.954  12.593   5.526
33984SOL    HW1 3784   7.920  12.651   5.458
33984SOL    HW2 3785   8.044  12.622   5.540
33985SOL     OW 3786   3.190   9.671  13.709
33985SOL    HW1 3787   3.281   9.645  13.721
33985SOL    HW2 3788   3.177   9.743  13.771
33986SOL     OW 3789   3.037   9.581  10.508
33986SOL    HW1 3790   3.109   9.560  10.568
33986SOL    HW2 3791   2.958   9.578  10.562
33987SOL     OW 3792   2.914   5.036   1.652
33987SOL    HW1 3793   2.905   4.941   1.663
33987SOL    HW2 3794   2.828   5.065   1.623
33988SOL     OW 3795   6.395   2.982  10.191
33988SOL    HW1 3796   6.332   3.024  10.132
33988SOL    HW2 3797   6.418   3.049  10.255
33989SOL     OW 3798  12.190  10.172   9.512
33989SOL    HW1 3799  12.148  10.165   9.597
33989SOL    HW2 3800  12.268  10.116   9.519
33990SOL     OW 3801   9.801   1.427  14.157
33990SOL    HW1 3802   9.843   1.351  14.118
33990SOL    HW2 3803   9.872   1.471  14.205
33991SOL     OW 3804   2.468   9.704   7.580
33991SOL    HW1 3805   2.477   9.778   7.640
33991SOL    HW2 3806   2.495   9.628   7.631
33992SOL     OW 3807  10.225   9.431  13.154
33992SOL    HW1 3808  10.155   9.424  13.219
33992SOL    HW2 3809  10.202   9.366  13.087
33993SOL     OW 3810   6.504   6.345   3.295
33993SOL    HW1 3811   6.447   6.296   3.354
33993SOL    HW2 3812   6.525   6.284   3.225
33994SOL     OW 3813  12.559   8.258   3.839
33994SOL    HW1 3814  12.599   8.177   3.807
33994SOL    HW2 3815  12.509   8.231   3.916
33995SOL     OW 3816  12.029  13.517   5.433
33995SOL    HW1 3817  11.986  13.466   5.502
33995SOL    HW2 3818  12.106  13.465   5.410
33996SOL     OW 3819   7.322   7.408  11.029
33996SOL    HW1 3820   7.305   7.487  10.979
33996SOL    HW2 3821   7.284   7.337  10.977
33997SOL     OW 3822  11.250   2.285  13.295
33997SOL    HW1 3823  11.250   2.216  13.228
33997SOL    HW2 3824  11.192   2.253  13.363
33998SOL     OW 3825  13.227   1.492  12.106
33998SOL    HW1 3826  13.150   1.484  12.163
33998SOL    HW2 3827  13.300   1.465  12.162
33999SOL     OW 3828   1.228   4.746  13.406
33999SOL    HW1 3829   1.234   4.652  13.418
33999SOL    HW2 3830   1.284   4.765  13.330
34000SOL     OW 3831   1.036   6.128   6.691
34000SOL    HW1 3832   0.960   6.073   6.713
34000SOL    HW2 3833   1.088   6.129   6.772
34001SOL     OW 3834  14.735   3.402  12.043
34001SOL    HW1 3835  14.667   3.358  12.095
34001SOL    HW2 3836  14.690   3.427  11.963
34002SOL     OW 3837   3.082   2.120   3.587
34002SOL    HW1 3838   3.093   2.074   3.504
34002SOL    HW2 3839   3.043   2.055   3.646
34003SOL     OW 3840  12.011  14.038  12.046
34003SOL    HW1 3841  11.924  14.009  12.017
34003SOL    HW2 3842  12.012  14.132  12.026
34004SOL     OW 3843   7.428   8.580   6.619
34004SOL    HW1 3844   7.430   8.580   6.523
34004SOL    HW2 3845   7.394   8.666   6.642
34005SOL     OW 3846   8.601   7.712  14.383
34005SOL    HW1 3847   8.581   7.682  14.472
34005SOL    HW2 3848   8.515   7.729  14.344
34006SOL     OW 3849  13.545  10.760  10.358
34006SOL    HW1 3850  13.596  10.835  10.326
34006SOL    HW2 3851  13.591  10.683  10.324
34007SOL     OW 3852   9.037   8.382   6.820
34007SOL    HW1 3853   9.096   8.383   6.744
34007SOL    HW2 3854   8.949   8.392   6.782
34008SOL     OW 3855   3.306  14.424   0.818
34008SOL    HW1 3856   3.333  14.500   0.870
34008SOL    HW2 3857   3.224  14.396   0.857
34009SOL     OW 3858   9.342   0.975  11.665
34009SOL    HW1 3859   9.270   0.931  11.619
34009SOL    HW2 3860   9.298   1.030  11.730
34010SOL     OW 3861   1.877   9.327   3.231
34010SOL    HW1 3862   1.814   9.278   3.283
34010SOL    HW2 3863   1.827   9.360   3.157
34011SOL     OW 3864  13.343   7.566   0.182
34011SOL    HW1 3865  13.335   7.474   0.205
34011SOL    HW2 3866  13.253   7.598   0.176
34012SOL     OW 3867   5.498  11.045   0.672
34012SOL    HW1 3868   5.464  11.077   0.755
34012SOL    HW2 3869   5.490  11.120   0.612
34013SOL     OW 3870   6.992   2.446   6.928
34013SOL    HW1 3871   6.920   2.460   6.867
34013SOL    HW2 3872   7.024   2.357   6.908
34014SOL     OW 3873  10.993   2.896   0.586
34014SOL    HW1 3874  11.047   2.909   0.508
34014SOL    HW2 3875  10.977   2.801   0.588
34015SOL     OW 3876   3.426   2.191   9.608
34015SOL    HW1 3877   3.453   2.205   9.518
34015SOL    HW2 3878   3.358   2.256   9.624
34016SOL     OW 3879  10.383  11.371   8.547
34016SOL    HW1 3880  10.344  11.432   8.609
34016SOL    HW2 3881  10.475  11.397   8.542
34017SOL     OW 3882  10.884   1.147   2.527
34017SOL    HW1 3883  10.962   1.161   2.472
34017SOL    HW2 3884  10.825   1.219   2.504
34018SOL     OW 3885   9.188  10.537   6.229
34018SOL    HW1 3886   9.098  10.506   6.233
34018SOL    HW2 3887   9.207  10.568   6.318
34019SOL     OW 3888   4.418  13.219   6.010
34019SOL    HW1 3889   4.453  13.308   6.002
34019SOL    HW2 3890   4.481  13.164   5.964
34020SOL     OW 3891   6.590  11.471  11.591
34020SOL    HW1 3892   6.656  11.536  11.565
34020SOL    HW2 3893   6.510  11.500  11.546
34021SOL     OW 3894   2.295   7.629  10.290
34021SOL    HW1 3895   2.262   7.627  10.380
34021SOL    HW2 3896   2.335   7.715  10.280
34022SOL     OW 3897   8.638  12.774   3.204
34022SOL    HW1 3898   8.693  12.822   3.265
34022SOL    HW2 3899   8.548  12.796   3.230
34023SOL     OW 3900   2.778  11.953  14.418
34023SOL    HW1 3901   2.784  12.032  14.364
34023SOL    HW2 3902   2.687  11.950  14.446
34024SOL     OW 3903   8.810   9.595   3.149
34024SOL    HW1 3904   8.801   9.534   3.076
34024SOL    HW2 3905   8.875   9.554   3.206
34025SOL     OW 3906   8.859  12.341  12.343
34025SOL    HW1 3907   8.795  12.330  12.273
34025SOL    HW2 3908   8.851  12.433  12.368
34026SOL     OW 3909  12.852  11.126   6.577
34026SOL    HW1 3910  12.808  11.052   6.618
34026SOL    HW2 3911  12.834  11.200   6.634
34027SOL     OW 3912   7.524  12.937  14.103
34027SOL    HW1 3913   7.432  12.942  14.132
34027SOL    HW2 3914   7.559  13.024  14.121
34028SOL     OW 3915   4.201  10.570  14.272
34028SOL    HW1 3916   4.160  10.633  14.333
34028SOL    HW2 3917   4.136  10.558  14.204
34029SOL     OW 3918   4.973  12.786   3.714
34029SOL    HW1 3919   5.054  12.767   3.761
34029SOL    HW2 3920   4.904  12.751   3.769
34030SOL     OW 3921  12.800   1.032   5.705
34030SOL    HW1 3922  12.758   1.066   5.626
34030SOL    HW2 3923  12.871   0.976   5.673
34031SOL     OW 3924   3.213   2.431  10.477
34031SOL    HW1 3925   3.146   2.455  10.414
34031SOL    HW2 3926   3.228   2.337  10.461
34032SOL     OW 3927   3.361   1.749  11.477
34032SOL    HW1 3928   3.276   1.705  11.470
34032SOL    HW2 3929   3.353   1.806  11.553
34033SOL     OW 3930  13.642   4.045   4.530
34033SOL    HW1 3931  13.571   4.076   4.587
34033SOL    HW2 3932  13.713   4.022   4.591
34034SOL     OW 3933  11.617   9.817  13.494
34034SOL    HW1 3934  11.565   9.859  13.563
34034SOL    HW2 3935  11.655   9.891  13.445
34035SOL     OW 3936   9.568   2.002   8.396
34035SOL    HW1 3937   9.644   1.953   8.428
34035SOL    HW2 3938   9.493   1.961   8.440
34036SOL     OW 3939  10.824   7.188  14.708
34036SOL    HW1 3940  10.831   7.257  14.642
34036SOL    HW2 3941  10.730   7.181  14.726
34037SOL     OW 3942  14.552   6.154   2.923
34037SOL    HW1 3943  14.580   6.141   2.833
34037SOL    HW2 3944  14.484   6.221   2.918
34038SOL     OW 3945   9.789   0.281   3.123
34038SOL    HW1 3946   9.844   0.284   3.201
34038SOL    HW2 3947   9.712   0.334   3.145
34039SOL     OW 3948   2.863  12.567  14.519
34039SOL    HW1 3949   2.919  12.638  14.550
34039SOL    HW2 3950   2.889  12.492  14.572
34040SOL     OW 3951   5.585   2.548   7.336
34040SOL    HW1 3952   5.595   2.548   7.241
34040SOL    HW2 3953   5.620   2.464   7.364
34041SOL     OW 3954  10.119   2.475  12.399
34041SOL    HW1 3955  10.191   2.440  12.346
34041SOL    HW2 3956  10.101   2.405  12.462
34042SOL     OW 3957   0.530   9.869  11.395
34042SOL    HW1 3958   0.436   9.884  11.404
34042SOL    HW2 3959   0.561   9.858  11.485
34043SOL     OW 3960   8.190   8.536  11.589
34043SOL    HW1 3961   8.213   8.453  11.630
34043SOL    HW2 3962   8.274   8.576  11.568
34044SOL     OW 3963   2.779   6.568  11.983
34044SOL    HW1 3964   2.784   6.635  12.051
34044SOL    HW2 3965   2.790   6.485  12.029
34045SOL     OW 3966  13.566   0.852  12.994
34045SOL    HW1 3967  13.592   0.919  12.931
34045SOL    HW2 3968  13.645   0.799  13.007
34046SOL     OW 3969   5.599  13.232   3.676
34046SOL    HW1 3970   5.646  13.159   3.714
34046SOL    HW2 3971   5.558  13.276   3.750
34047SOL     OW 3972  13.143   6.718   0.424
34047SOL    HW1 3973  13.187   6.701   0.507
34047SOL    HW2 3974  13.204   6.686   0.357
34048SOL     OW 3975  10.811   3.051  11.406
34048SOL    HW1 3976  10.831   3.061  11.313
34048SOL    HW2 3977  10.757   2.972  11.411
34049SOL     OW 3978   5.229   5.850   8.981
34049SOL    HW1 3979   5.195   5.921   8.927
34049SOL    HW2 3980   5.207   5.770   8.933
34050SOL     OW 3981  13.530  12.915   7.616
34050SOL    HW1 3982  13.579  12.995   7.634
34050SOL    HW2 3983  13.439  12.936   7.635
34051SOL     OW 3984  11.068   5.789   7.680
34051SOL    HW1 3985  11.106   5.723   7.621
34051SOL    HW2 3986  10.987   5.815   7.637
34052SOL     OW 3987   5.882   4.452  10.627
34052SOL    HW1 3988   5.914   4.364  10.649
34052SOL    HW2 3989   5.877   4.497  10.712
34053SOL     OW 3990   5.878   0.209   3.559
34053SOL    HW1 3991   5.927   0.148   3.614
34053SOL    HW2 3992   5.944   0.252   3.505
34054SOL     OW 3993   9.033  10.424  11.315
34054SOL    HW1 3994   8.954  10.372  11.331
34054SOL    HW2 3995   9.046  10.473  11.396
34055SOL     OW 3996  12.360  14.127   6.158
34055SOL    HW1 3997  12.329  14.217   6.158
34055SOL    HW2 3998  12.406  14.118   6.074
34056SOL     OW 3999   6.801   2.935  13.171
34056SOL    HW1 4000   6.884   2.953  13.216
34056SOL    HW2 4001   6.807   2.842  13.148
34057SOL     OW 4002   3.872   9.230   8.055
34057SOL    HW1 4003   3.818   9.240   7.977
34057SOL    HW2 4004   3.920   9.149   8.041
34058SOL     OW 4005   7.698  11.517   9.275
34058SOL    HW1 4006   7.766  11.578   9.304
34058SOL    HW2 4007   7.706  11.442   9.334
34059SOL     OW 4008  13.593   6.552   2.324
34059SOL    HW1 4009  13.506   6.552   2.364
34059SOL    HW2 4010  13.653   6.534   2.397
34060SOL     OW 4011   5.893   4.518   6.983
34060SOL    HW1 4012   5.975   4.548   6.944
34060SOL    HW2 4013   5.843   4.599   6.998
34061SOL     OW 4014  11.720  10.224   5.641
34061SOL    HW1 4015  11.796  10.257   5.689
34061SOL    HW2 4016  11.733  10.130   5.636
34062SOL     OW 4017  12.146   8.274  13.057
34062SOL    HW1 4018  12.197   8.297  12.980
34062SOL    HW2 4019  12.117   8.357  13.094
34063SOL     OW 4020   8.496   9.144  11.677
34063SOL    HW1 4021   8.466   9.231  11.704
34063SOL    HW2 4022   8.527   9.156  11.587
34064SOL     OW 4023   1.222  11.754  14.566
34064SOL    HW1 4024   1.310  11.784  14.586
34064SOL    HW2 4025   1.172  11.772  14.646
34065SOL     OW 4026   5.703   6.712   8.154
34065SOL    HW1 4027   5.797   6.701   8.145
34065SOL    HW2 4028   5.687   6.805   8.140
34066SOL     OW 4029   5.906  11.406  14.850
34066SOL    HW1 4030   5.919  11.409  14.755
34066SOL    HW2 4031   5.824  11.358  14.862
34067SOL     OW 4032   8.459   1.865   5.683
34067SOL    HW1 4033   8.552   1.870   5.662
34067SOL    HW2 4034   8.434   1.955   5.704
34068SOL     OW 4035   4.271   4.609   5.604
34068SOL    HW1 4036   4.334   4.553   5.560
34068SOL    HW2 4037   4.230   4.659   5.534
34069SOL     OW 4038   0.405   1.504   9.144
34069SOL    HW1 4039   0.407   1.454   9.062
34069SOL    HW2 4040   0.314   1.499   9.172
34070SOL     OW 4041  14.578   7.386  13.310
34070SOL    HW1 4042  14.673   7.394  13.307
34070SOL    HW2 4043  14.549   7.462  13.360
34071SOL     OW 4044   7.617   2.564  11.076
34071SOL    HW1 4045   7.592   2.611  11.155
34071SOL    HW2 4046   7.629   2.473  11.104
34072SOL     OW 4047   3.631  13.800   1.541
34072SOL    HW1 4048   3.610  13.708   1.524
34072SOL    HW2 4049   3.662  13.800   1.632
34073SOL     OW 4050   8.476   7.762   2.442
34073SOL    HW1 4051   8.566   7.767   2.476
34073SOL    HW2 4052   8.487   7.764   2.347
34074SOL     OW 4053   9.776  13.538   2.645
34074SOL    HW1 4054   9.739  13.550   2.732
34074SOL    HW2 4055   9.702  13.514   2.590
34075SOL     OW 4056  11.536   2.395  14.033
34075SOL    HW1 4057  11.459   2.359  13.988
34075SOL    HW2 4058  11.611   2.359  13.986
34076SOL     OW 4059   7.203  10.827  10.041
34076SOL    HW1 4060   7.231  10.854  10.128
34076SOL    HW2 4061   7.210  10.906   9.988
34077SOL     OW 4062  14.399   6.373   2.563
34077SOL    HW1 4063  14.493   6.365   2.576
34077SOL    HW2 4064  14.369   6.427   2.636
34078SOL     OW 4065   6.473   4.283  14.493
34078SOL    HW1 4066   6.558   4.298  14.452
34078SOL    HW2 4067   6.491   4.284  14.587
34079SOL     OW 4068  11.732  13.405   9.315
34079SOL    HW1 4069  11.743  13.429   9.408
34079SOL    HW2 4070  11.638  13.396   9.303
34080SOL     OW 4071  14.425  10.685   6.598
34080SOL    HW1 4072  14.433  10.653   6.688
34080SOL    HW2 4073  14.515  10.699   6.570
34081SOL     OW 4074   9.132  14.851   2.504
34081SOL    HW1 4075   9.107  14.847   2.411
34081SOL    HW2 4076   9.116   0.060   2.529
34082SOL     OW 4077   1.742   5.956   2.418
34082SOL    HW1 4078   1.764   6.049   2.421
34082SOL    HW2 4079   1.826   5.911   2.422
34083SOL     OW 4080   3.384   4.669   4.085
34083SOL    HW1 4081   3.371   4.749   4.136
34083SOL    HW2 4082   3.397   4.700   3.995
34084SOL     OW 4083   5.487  11.495   1.427
34084SOL    HW1 4084   5.493  11.407   1.466
34084SOL    HW2 4085   5.393  11.510   1.418
34085SOL     OW 4086   9.605   1.289  12.614
34085SOL    HW1 4087   9.676   1.346  12.585
34085SOL    HW2 4088   9.526   1.332  12.581
34086SOL     OW 4089  12.064   3.791   2.529
34086SOL    HW1 4090  11.994   3.736   2.562
34086SOL    HW2 4091  12.134   3.784   2.594
34087SOL     OW 4092  12.947  14.744   2.553
34087SOL    HW1 4093  12.985  14.664   2.590
34087SOL    HW2 4094  12.951  14.808   2.625
34088SOL     OW 4095   4.598  10.261  14.022
34088SOL    HW1 4096   4.628  10.294  14.107
34088SOL    HW2 4097   4.551  10.181  14.042
34089SOL     OW 4098   0.402   0.235  14.605
34089SOL    HW1 4099   0.394   0.144  14.578
34089SOL    HW2 4100   0.417   0.284  14.524
34090SOL     OW 4101  10.629   1.783   9.643
34090SOL    HW1 4102  10.718   1.813   9.664
34090SOL    HW2 4103  10.576   1.815   9.716
34091SOL     OW 4104  13.910   4.730   4.918
34091SOL    HW1 4105  13.892   4.807   4.864
34091SOL    HW2 4106  13.857   4.660   4.880
34092SOL     OW 4107   9.353  10.032   8.440
34092SOL    HW1 4108   9.395  10.048   8.525
34092SOL    HW2 4109   9.419   9.984   8.389
34093SOL     OW 4110   8.106   6.470  10.546
34093SOL    HW1 4111   8.018   6.480  10.582
34093SOL    HW2 4112   8.093   6.445  10.455
34094SOL     OW 4113   8.914   5.139   7.082
34094SOL    HW1 4114   8.933   5.053   7.119
34094SOL    HW2 4115   8.971   5.199   7.130
34095SOL     OW 4116  13.013  10.043   3.615
34095SOL    HW1 4117  12.981   9.971   3.560
34095SOL    HW2 4118  12.945  10.110   3.609
34096SOL     OW 4119   2.606   3.178   2.205
34096SOL    HW1 4120   2.549   3.220   2.141
34096SOL    HW2 4121   2.597   3.084   2.187
34097SOL     OW 4122   7.833   2.562  12.600
34097SOL    HW1 4123   7.816   2.470  12.620
34097SOL    HW2 4124   7.907   2.586  12.655
34098SOL     OW 4125   7.860   8.487   8.495
34098SOL    HW1 4126   7.790   8.538   8.536
34098SOL    HW2 4127   7.834   8.479   8.403
34099SOL     OW 4128   6.099  12.211  12.715
34099SOL    HW1 4129   6.146  12.227  12.634
34099SOL    HW2 4130   6.167  12.185  12.777
34100SOL     OW 4131   6.338   9.753   9.438
34100SOL    HW1 4132   6.269   9.772   9.502
34100SOL    HW2 4133   6.409   9.813   9.460
34101SOL     OW 4134   6.388  11.141   3.512
34101SOL    HW1 4135   6.461  11.188   3.553
34101SOL    HW2 4136   6.348  11.205   3.454
34102SOL     OW 4137  13.336   0.339   5.465
34102SOL    HW1 4138  13.262   0.394   5.441
34102SOL    HW2 4139  13.380   0.386   5.535
34103SOL     OW 4140  13.619   1.679   5.064
34103SOL    HW1 4141  13.655   1.757   5.106
34103SOL    HW2 4142  13.554   1.646   5.126
34104SOL     OW 4143   9.980   3.109  10.641
34104SOL    HW1 4144   9.927   3.052  10.696
34104SOL    HW2 4145  10.063   3.062  10.631
34105SOL     OW 4146   2.691   6.281  12.758
34105SOL    HW1 4147   2.614   6.264  12.811
34105SOL    HW2 4148   2.662   6.265  12.668
34106SOL     OW 4149   4.499  10.976   1.753
34106SOL    HW1 4150   4.576  11.031   1.747
34106SOL    HW2 4151   4.470  10.985   1.844
34107SOL     OW 4152   4.850   8.676  13.404
34107SOL    HW1 4153   4.856   8.700  13.497
34107SOL    HW2 4154   4.930   8.711  13.365
34108SOL     OW 4155   0.757   1.923   2.456
34108SOL    HW1 4156   0.766   1.895   2.547
34108SOL    HW2 4157   0.719   2.010   2.461
34109SOL     OW 4158   4.578  12.720  14.617
34109SOL    HW1 4159   4.585  12.696  14.709
34109SOL    HW2 4160   4.666  12.711  14.582
34110SOL     OW 4161  13.987  13.180   7.941
34110SOL    HW1 4162  13.945  13.114   7.885
34110SOL    HW2 4163  14.074  13.191   7.903
34111SOL     OW 4164   4.584  10.768   6.178
34111SOL    HW1 4165   4.520  10.750   6.110
34111SOL    HW2 4166   4.549  10.726   6.256
34112SOL     OW 4167   0.547   0.383   2.439
34112SOL    HW1 4168   0.546   0.429   2.523
34112SOL    HW2 4169   0.479   0.316   2.448
34113SOL     OW 4170   2.275  11.869   1.079
34113SOL    HW1 4171   2.209  11.938   1.084
34113SOL    HW2 4172   2.258  11.814   1.155
34114SOL     OW 4173   0.292  13.219  11.914
34114SOL    HW1 4174   0.211  13.231  11.865
34114SOL    HW2 4175   0.268  13.236  12.005
34115SOL     OW 4176  14.198   0.921  14.362
34115SOL    HW1 4177  14.156   0.852  14.412
34115SOL    HW2 4178  14.267   0.954  14.419
34116SOL     OW 4179  11.022   5.890   0.677
34116SOL    HW1 4180  11.034   5.844   0.760
34116SOL    HW2 4181  11.106   5.933   0.661
34117SOL     OW 4182  12.438   4.702  11.553
34117SOL    HW1 4183  12.495   4.732  11.482
34117SOL    HW2 4184  12.423   4.609  11.534
34118SOL     OW 4185   6.418   6.245   9.853
34118SOL    HW1 4186   6.435   6.310   9.785
34118SOL    HW2 4187   6.366   6.292   9.919
34119SOL     OW 4188  10.432  13.107  10.052
34119SOL    HW1 4189  10.382  13.065   9.982
34119SOL    HW2 4190  10.523  13.094  10.027
34120SOL     OW 4191   2.527  13.675  12.752
34120SOL    HW1 4192   2.604  13.706  12.705
34120SOL    HW2 4193   2.524  13.581  12.735
34121SOL     OW 4194   9.068   2.949   0.484
34121SOL    HW1 4195   9.049   3.017   0.419
34121SOL    HW2 4196   9.119   2.993   0.552
34122SOL     OW 4197  11.971  12.922  12.705
34122SOL    HW1 4198  11.994  12.872  12.626
34122SOL    HW2 4199  11.875  12.920  12.708
34123SOL     OW 4200  14.513   1.461   3.400
34123SOL    HW1 4201  14.597   1.449   3.358
34123SOL    HW2 4202  14.448   1.437   3.334
34124SOL     OW 4203   0.605   5.349  14.263
34124SOL    HW1 4204   0.510   5.336  14.274
34124SOL    HW2 4205   0.641   5.260  14.265
34125SOL     OW 4206   9.742   0.783   7.790
34125SOL    HW1 4207   9.732   0.815   7.700
34125SOL    HW2 4208   9.798   0.706   7.781
34126SOL     OW 4209   6.929   8.238  12.197
34126SOL    HW1 4210   6.864   8.303  12.222
34126SOL    HW2 4211   7.013   8.276  12.225
34127SOL     OW 4212   5.996   7.516   8.127
34127SOL    HW1 4213   5.906   7.536   8.101
34127SOL    HW2 4214   6.049   7.579   8.079
34128SOL     OW 4215   9.148  10.330  13.899
34128SOL    HW1 4216   9.072  10.295  13.945
34128SOL    HW2 4217   9.113  10.361  13.815
34129SOL     OW 4218   5.456   5.879  10.830
34129SOL    HW1 4219   5.391   5.935  10.787
34129SOL    HW2 4220   5.516   5.941  10.872
34130SOL     OW 4221   6.347   7.795   4.074
34130SOL    HW1 4222   6.369   7.876   4.119
34130SOL    HW2 4223   6.260   7.811   4.036
34131SOL     OW 4224   4.236   5.069   1.562
34131SOL    HW1 4225   4.300   5.065   1.491
34131SOL    HW2 4226   4.168   5.128   1.529
34132SOL     OW 4227   8.342  12.249   2.989
34132SOL    HW1 4228   8.314  12.180   3.049
34132SOL    HW2 4229   8.435  12.260   3.006
34133SOL     OW 4230  10.151   3.328   1.465
34133SOL    HW1 4231  10.148   3.234   1.445
34133SOL    HW2 4232  10.192   3.368   1.388
34134SOL     OW 4233   8.334  10.259  11.792
34134SOL    HW1 4234   8.291  10.212  11.864
34134SOL    HW2 4235   8.346  10.348  11.826
34135SOL     OW 4236   1.738  10.207   0.595
34135SOL    HW1 4237   1.649  10.198   0.559
34135SOL    HW2 4238   1.776  10.279   0.545
34136SOL     OW 4239  14.548  12.485   2.652
34136SOL    HW1 4240  14.617  12.469   2.716
34136SOL    HW2 4241  14.531  12.399   2.613
34137SOL     OW 4242   7.462  11.408   8.164
34137SOL    HW1 4243   7.482  11.315   8.152
34137SOL    HW2 4244   7.540  11.453   8.132
34138SOL     OW 4245   0.564   5.897   0.269
34138SOL    HW1 4246   0.606   5.906   0.184
34138SOL    HW2 4247   0.480   5.943   0.259
34139SOL     OW 4248   4.483  10.655   9.292
34139SOL    HW1 4249   4.468  10.739   9.248
34139SOL    HW2 4250   4.461  10.590   9.225
34140SOL     OW 4251  11.221   2.681   2.189
34140SOL    HW1 4252  11.282   2.632   2.134
34140SOL    HW2 4253  11.243   2.654   2.278
34141SOL     OW 4254   1.027   6.771   5.548
34141SOL    HW1 4255   0.961   6.807   5.488
34141SOL    HW2 4256   0.977   6.713   5.606
34142SOL     OW 4257  14.041  14.503  11.191
34142SOL    HW1 4258  14.083  14.458  11.265
34142SOL    HW2 4259  13.948  14.502  11.212
34143SOL     OW 4260   4.296   9.683   4.228
34143SOL    HW1 4261   4.237   9.641   4.165
34143SOL    HW2 4262   4.357   9.614   4.253
34144SOL     OW 4263  10.034   2.162  10.223
34144SOL    HW1 4264  10.060   2.213  10.300
34144SOL    HW2 4265   9.972   2.218  10.177
34145SOL     OW 4266  10.142   1.709   3.586
34145SOL    HW1 4267  10.174   1.619   3.591
34145SOL    HW2 4268  10.220   1.763   3.597
34146SOL     OW 4269   1.847  11.506   3.008
34146SOL    HW1 4270   1.827  11.420   2.971
34146SOL    HW2 4271   1.942  11.510   3.010
34147SOL     OW 4272  10.068   9.971  12.973
34147SOL    HW1 4273  10.128   9.988  12.900
34147SOL    HW2 4274  10.054  10.057  13.013
34148SOL     OW 4275   4.212   8.113   7.980
34148SOL    HW1 4276   4.176   8.158   8.057
34148SOL    HW2 4277   4.175   8.025   7.984
34149SOL     OW 4278   8.833  10.061   8.022
34149SOL    HW1 4279   8.805   9.969   8.017
34149SOL    HW2 4280   8.809  10.098   7.937
34150SOL     OW 4281  14.805   9.625  11.821
34150SOL    HW1 4282  14.730   9.641  11.878
34150SOL    HW2 4283  14.841   9.712  11.803
34151SOL     OW 4284   5.163   7.905   5.541
34151SOL    HW1 4285   5.243   7.912   5.487
34151SOL    HW2 4286   5.196   7.887   5.629
34152SOL     OW 4287  14.629   9.259   7.303
34152SOL    HW1 4288  14.691   9.273   7.231
34152SOL    HW2 4289  14.554   9.217   7.261
34153SOL     OW 4290   9.046   1.640   2.046
34153SOL    HW1 4291   9.126   1.588   2.046
34153SOL    HW2 4292   9.010   1.628   2.134
34154SOL     OW 4293   7.143   1.757  10.275
34154SOL    HW1 4294   7.233   1.730  10.257
34154SOL    HW2 4295   7.103   1.679  10.314
34155SOL     OW 4296  11.028   6.530   0.248
34155SOL    HW1 4297  11.093   6.544   0.179
34155SOL    HW2 4298  10.980   6.452   0.220
34156SOL     OW 4299  12.772  12.418   1.561
34156SOL    HW1 4300  12.835  12.349   1.580
34156SOL    HW2 4301  12.776  12.429   1.466
34157SOL     OW 4302   4.312   7.493   3.477
34157SOL    HW1 4303   4.249   7.421   3.473
34157SOL    HW2 4304   4.398   7.450   3.477
34158SOL     OW 4305   5.685  11.186   9.969
34158SOL    HW1 4306   5.642  11.247  10.030
34158SOL    HW2 4307   5.626  11.183   9.893
34159SOL     OW 4308  13.989  13.564  10.876
34159SOL    HW1 4309  14.024  13.477  10.855
34159SOL    HW2 4310  13.976  13.561  10.971
34160SOL     OW 4311   6.579   9.174   6.129
34160SOL    HW1 4312   6.622   9.194   6.213
34160SOL    HW2 4313   6.560   9.260   6.092
34161SOL     OW 4314   4.294   2.876  14.789
34161SOL    HW1 4315   4.367   2.861  14.849
34161SOL    HW2 4316   4.225   2.913  14.844
34162SOL     OW 4317  12.941   6.950   5.766
34162SOL    HW1 4318  12.903   7.019   5.821
34162SOL    HW2 4319  13.016   6.991   5.724
34163SOL     OW 4320   2.136  11.012   0.008
34163SOL    HW1 4321   2.182  10.932  14.867
34163SOL    HW2 4322   2.100  10.995   0.095
34164SOL     OW 4323   5.266   7.392  10.729
34164SOL    HW1 4324   5.217   7.314  10.704
34164SOL    HW2 4325   5.353   7.361  10.751
34165SOL     OW 4326   6.175   5.627  12.283
34165SOL    HW1 4327   6.125   5.696  12.240
34165SOL    HW2 4328   6.255   5.619  12.231
34166SOL     OW 4329  10.449  10.632   3.813
34166SOL    HW1 4330  10.470  10.561   3.874
34166SOL    HW2 4331  10.354  10.630   3.805
34167SOL     OW 4332  13.395   6.352   8.204
34167SOL    HW1 4333  13.399   6.369   8.298
34167SOL    HW2 4334  13.357   6.431   8.166
34168SOL     OW 4335  12.127   5.500   9.581
34168SOL    HW1 4336  12.184   5.423   9.575
34168SOL    HW2 4337  12.169   5.556   9.647
34169SOL     OW 4338  12.456   5.190  13.710
34169SOL    HW1 4339  12.472   5.149  13.625
34169SOL    HW2 4340  12.542   5.223  13.737
34170SOL     OW 4341  14.639   0.121   0.532
34170SOL    HW1 4342  14.609   0.133   0.622
34170SOL    HW2 4343  14.698   0.046   0.536
34171SOL     OW 4344   3.738   9.166   4.304
34171SOL    HW1 4345   3.769   9.236   4.246
34171SOL    HW2 4346   3.681   9.210   4.367
34172SOL     OW 4347   1.100   5.755   5.724
34172SOL    HW1 4348   1.008   5.731   5.728
34172SOL    HW2 4349   1.100   5.848   5.701
34173SOL     OW 4350   9.067   4.944   4.912
34173SOL    HW1 4351   9.054   4.946   4.817
34173SOL    HW2 4352   9.049   5.034   4.940
34174SOL     OW 4353   4.330  11.437  13.943
34174SOL    HW1 4354   4.249  11.419  13.992
34174SOL    HW2 4355   4.392  11.373  13.978
34175SOL     OW 4356   7.094   2.190   3.761
34175SOL    HW1 4357   7.030   2.231   3.820
34175SOL    HW2 4358   7.057   2.199   3.674
34176SOL     OW 4359  14.574   1.136  14.770
34176SOL    HW1 4360  14.640   1.199  14.800
34176SOL    HW2 4361  14.515   1.125  14.845
34177SOL     OW 4362   0.585   5.361   4.903
34177SOL    HW1 4363   0.493   5.367   4.929
34177SOL    HW2 4364   0.620   5.449   4.919
34178SOL     OW 4365   1.442  12.972   0.569
34178SOL    HW1 4366   1.349  12.994   0.575
34178SOL    HW2 4367   1.473  13.022   0.493
34179SOL     OW 4368   6.291  11.114   8.011
34179SOL    HW1 4369   6.380  11.124   8.045
34179SOL    HW2 4370   6.236  11.115   8.089
34180SOL     OW 4371   5.307  12.498   2.906
34180SOL    HW1 4372   5.282  12.447   2.828
34180SOL    HW2 4373   5.258  12.457   2.977
34181SOL     OW 4374   3.449  10.199   3.980
34181SOL    HW1 4375   3.460  10.122   3.923
34181SOL    HW2 4376   3.412  10.164   4.060
34182SOL     OW 4377  12.786  11.133  13.341
34182SOL    HW1 4378  12.691  11.133  13.353
34182SOL    HW2 4379  12.801  11.203  13.278
34183SOL     OW 4380   9.936  13.676   6.181
34183SOL    HW1 4381  10.023  13.711   6.163
34183SOL    HW2 4382   9.882  13.753   6.198
34184SOL     OW 4383  13.747  13.864  13.207
34184SOL    HW1 4384  13.729  13.875  13.300
34184SOL    HW2 4385  13.815  13.796  13.204
34185SOL     OW 4386   4.653  14.867   0.190
34185SOL    HW1 4387   4.650  14.785   0.238
34185SOL    HW2 4388   4.612  14.847   0.106
34186SOL     OW 4389   4.184   3.897  10.676
34186SOL    HW1 4390   4.147   3.891  10.587
34186SOL    HW2 4391   4.159   3.985  10.706
34187SOL     OW 4392  10.658  11.382   8.505
34187SOL    HW1 4393  10.674  11.354   8.414
34187SOL    HW2 4394  10.745  11.403   8.539
34188SOL     OW 4395  10.061  10.705   5.057
34188SOL    HW1 4396  10.009  10.779   5.087
34188SOL    HW2 4397  10.109  10.676   5.136
34189SOL     OW 4398   7.448   9.346   2.177
34189SOL    HW1 4399   7.540   9.336   2.151
34189SOL    HW2 4400   7.401   9.281   2.125
34190SOL     OW 4401   6.745  13.264   8.922
34190SOL    HW1 4402   6.823  13.309   8.956
34190SOL    HW2 4403   6.672  13.313   8.959
34191SOL     OW 4404   8.048  10.098   1.821
34191SOL    HW1 4405   7.979  10.145   1.773
34191SOL    HW2 4406   8.016  10.094   1.911
34192SOL     OW 4407   2.175   0.037   2.055
34192SOL    HW1 4408   2.153  14.881   1.971
34192SOL    HW2 4409   2.195  14.843   2.111
34193SOL     OW 4410   1.373   0.090   6.123
34193SOL    HW1 4411   1.450   0.039   6.097
34193SOL    HW2 4412   1.387   0.108   6.216
34194SOL     OW 4413  14.834  13.544   5.821
34194SOL    HW1 4414   0.030  13.599   5.810
34194SOL    HW2 4415  14.797  13.538   5.733
34195SOL     OW 4416   5.539   4.882  13.678
34195SOL    HW1 4417   5.586   4.843  13.604
34195SOL    HW2 4418   5.447   4.874  13.653
34196SOL     OW 4419   6.180  14.826   0.973
34196SOL    HW1 4420   6.179  14.736   1.004
34196SOL    HW2 4421   6.114  14.870   1.026
34197SOL     OW 4422   2.922   6.599  11.724
34197SOL    HW1 4423   2.831   6.626  11.734
34197SOL    HW2 4424   2.946   6.563  11.810
34198SOL     OW 4425   1.959  10.141   0.274
34198SOL    HW1 4426   1.909  10.217   0.244
34198SOL    HW2 4427   1.948  10.076   0.205
34199SOL     OW 4428   4.426  14.782  14.481
34199SOL    HW1 4429   4.472  14.864  14.500
34199SOL    HW2 4430   4.333  14.802  14.495
34200SOL     OW 4431   0.406  12.759   9.580
34200SOL    HW1 4432   0.435  12.701   9.651
34200SOL    HW2 4433   0.312  12.768   9.595
34201SOL     OW 4434  14.496   0.575  11.296
34201SOL    HW1 4435  14.404   0.581  11.320
34201SOL    HW2 4436  14.506   0.486  11.261
34202SOL     OW 4437   7.210  11.992   9.706
34202SOL    HW1 4438   7.191  11.975   9.798
34202SOL    HW2 4439   7.215  12.088   9.700
34203SOL     OW 4440   8.718   9.086  11.813
34203SOL    HW1 4441   8.700   9.016  11.877
34203SOL    HW2 4442   8.632   9.109  11.778
34204SOL     OW 4443   3.268   2.990  12.464
34204SOL    HW1 4444   3.293   2.920  12.404
34204SOL    HW2 4445   3.279   3.071  12.413
34205SOL     OW 4446  10.450   0.306   4.573
34205SOL    HW1 4447  10.513   0.333   4.639
34205SOL    HW2 4448  10.419   0.389   4.535
34206SOL     OW 4449  12.135   3.367  11.458
34206SOL    HW1 4450  12.075   3.296  11.434
34206SOL    HW2 4451  12.222   3.332  11.438
34207SOL     OW 4452  14.534  14.448   4.504
34207SOL    HW1 4453  14.562  14.539   4.508
34207SOL    HW2 4454  14.524  14.429   4.411
34208SOL     OW 4455   4.953   4.154  10.706
34208SOL    HW1 4456   4.959   4.247  10.726
34208SOL    HW2 4457   4.889   4.149  10.635
34209SOL     OW 4458   7.831   4.037   1.292
34209SOL    HW1 4459   7.768   4.013   1.223
34209SOL    HW2 4460   7.786   4.016   1.374
34210SOL     OW 4461   8.068  10.343   6.096
34210SOL    HW1 4462   7.998  10.334   6.032
34210SOL    HW2 4463   8.026  10.385   6.172
34211SOL     OW 4464   2.051  12.055   1.747
34211SOL    HW1 4465   1.969  12.036   1.701
34211SOL    HW2 4466   2.066  12.149   1.731
34212SOL     OW 4467   2.730   8.853   1.429
34212SOL    HW1 4468   2.718   8.841   1.524
34212SOL    HW2 4469   2.684   8.779   1.390
34213SOL     OW 4470  13.156  13.038   9.409
34213SOL    HW1 4471  13.211  13.087   9.470
34213SOL    HW2 4472  13.077  13.018   9.458
34214SOL     OW 4473  11.076   1.899   2.474
34214SOL    HW1 4474  11.073   1.804   2.481
34214SOL    HW2 4475  11.118   1.916   2.389
34215SOL     OW 4476   2.949  10.279   9.034
34215SOL    HW1 4477   2.867  10.328   9.027
34215SOL    HW2 4478   2.963  10.243   8.946
34216SOL     OW 4479  12.220   2.178   5.103
34216SOL    HW1 4480  12.205   2.272   5.094
34216SOL    HW2 4481  12.265   2.168   5.187
34217SOL     OW 4482   7.870   9.356  14.880
34217SOL    HW1 4483   7.880   9.264   0.022
34217SOL    HW2 4484   7.950   9.378  14.833
34218SOL     OW 4485   6.819   6.545   8.862
34218SOL    HW1 4486   6.904   6.507   8.841
34218SOL    HW2 4487   6.764   6.469   8.884
34219SOL     OW 4488  14.021  13.911  11.458
34219SOL    HW1 4489  13.954  13.843  11.451
34219SOL    HW2 4490  13.974  13.988  11.490
34220SOL     OW 4491  11.131  14.780   3.029
34220SOL    HW1 4492  11.104  14.781   2.937
34220SOL    HW2 4493  11.219  14.817   3.029
34221SOL     OW 4494   4.485   4.590  11.683
34221SOL    HW1 4495   4.397   4.559  11.702
34221SOL    HW2 4496   4.530   4.589  11.767
34222SOL     OW 4497  10.116   7.615  12.915
34222SOL    HW1 4498  10.201   7.572  12.907
34222SOL    HW2 4499  10.133   7.694  12.966
34223SOL     OW 4500   9.053  12.720   7.016
34223SOL    HW1 4501   8.993  12.650   6.990
34223SOL    HW2 4502   9.124  12.676   7.062
34224SOL     OW 4503  14.073   0.875   6.052
34224SOL    HW1 4504  13.981   0.899   6.064
34224SOL    HW2 4505  14.073   0.815   5.979
34225SOL     OW 4506   0.149  13.370   1.799
34225SOL    HW1 4507   0.112  13.416   1.875
34225SOL    HW2 4508   0.083  13.379   1.731
34226SOL     OW 4509   3.683   6.900   3.586
34226SOL    HW1 4510   3.588   6.897   3.590
34226SOL    HW2 4511   3.708   6.828   3.528
34227SOL     OW 4512   6.307   0.552   0.791
34227SOL    HW1 4513   6.270   0.582   0.874
34227SOL    HW2 4514   6.307   0.629   0.735
34228SOL     OW 4515   3.208   2.665   9.562
34228SOL    HW1 4516   3.264   2.695   9.490
34228SOL    HW2 4517   3.229   2.723   9.635
34229SOL     OW 4518   1.997   3.247  11.654
34229SOL    HW1 4519   1.949   3.224  11.734
34229SOL    HW2 4520   2.052   3.171  11.637
34230SOL     OW 4521   8.808   7.596   9.864
34230SOL    HW1 4522   8.816   7.629   9.953
34230SOL    HW2 4523   8.889   7.623   9.821
34231SOL     OW 4524   9.807   9.340   9.097
34231SOL    HW1 4525   9.850   9.425   9.090
34231SOL    HW2 4526   9.808   9.305   9.008
34232SOL     OW 4527   8.940   6.639   9.114
34232SOL    HW1 4528   8.957   6.635   9.208
34232SOL    HW2 4529   8.861   6.692   9.106
34233SOL     OW 4530   0.282   1.914   4.124
34233SOL    HW1 4531   0.357   1.856   4.141
34233SOL    HW2 4532   0.209   1.854   4.107
34234SOL     OW 4533   8.190   0.510   6.611
34234SOL    HW1 4534   8.142   0.467   6.682
34234SOL    HW2 4535   8.122   0.553   6.559
34235SOL     OW 4536   5.975   3.746  10.787
34235SOL    HW1 4537   5.973   3.778  10.697
34235SOL    HW2 4538   5.882   3.741  10.812
34236SOL     OW 4539   5.826   7.904  11.640
34236SOL    HW1 4540   5.825   7.996  11.615
34236SOL    HW2 4541   5.794   7.902  11.730
34237SOL     OW 4542  14.323   4.513   6.550
34237SOL    HW1 4543  14.262   4.542   6.483
34237SOL    HW2 4544  14.390   4.464   6.502
34238SOL     OW 4545   5.910   3.342   9.746
34238SOL    HW1 4546   5.992   3.293   9.744
34238SOL    HW2 4547   5.913   3.399   9.670
34239SOL     OW 4548  10.756   5.672   1.053
34239SOL    HW1 4549  10.847   5.667   1.080
34239SOL    HW2 4550  10.747   5.760   1.016
34240SOL     OW 4551   1.645  13.881   2.195
34240SOL    HW1 4552   1.553  13.902   2.177
34240SOL    HW2 4553   1.694  13.951   2.153
34241SOL     OW 4554   6.443  12.379  10.232
34241SOL    HW1 4555   6.537  12.376  10.249
34241SOL    HW2 4556   6.415  12.288  10.236
34242SOL     OW 4557  11.285   5.601   3.575
34242SOL    HW1 4558  11.255   5.637   3.491
34242SOL    HW2 4559  11.380   5.613   3.574
34243SOL     OW 4560   8.255   1.104   2.817
34243SOL    HW1 4561   8.321   1.168   2.792
34243SOL    HW2 4562   8.195   1.099   2.742
34244SOL     OW 4563   6.332  13.849   4.168
34244SOL    HW1 4564   6.258  13.795   4.195
34244SOL    HW2 4565   6.299  13.898   4.092
34245SOL     OW 4566   9.654   0.867  11.543
34245SOL    HW1 4567   9.708   0.789  11.535
34245SOL    HW2 4568   9.612   0.859  11.629
34246SOL     OW 4569   7.147   8.337   2.120
34246SOL    HW1 4570   7.200   8.258   2.124
34246SOL    HW2 4571   7.097   8.336   2.202
34247SOL     OW 4572   4.339  13.498   7.568
34247SOL    HW1 4573   4.244  13.511   7.559
34247SOL    HW2 4574   4.357  13.521   7.659
34248SOL     OW 4575  13.850  13.419   0.432
34248SOL    HW1 4576  13.817  13.467   0.507
34248SOL    HW2 4577  13.772  13.395   0.383
34249SOL     OW 4578   4.296  11.726  11.014
34249SOL    HW1 4579   4.351  11.779  11.072
34249SOL    HW2 4580   4.209  11.730  11.053
34250SOL     OW 4581   1.046   2.881   2.979
34250SOL    HW1 4582   1.016   2.862   3.068
34250SOL    HW2 4583   0.978   2.842   2.923
34251SOL     OW 4584   9.318  14.550   4.612
34251SOL    HW1 4585   9.293  14.626   4.664
34251SOL    HW2 4586   9.357  14.588   4.533
34252SOL     OW 4587   8.528  11.149  11.804
34252SOL    HW1 4588   8.540  11.244  11.801
34252SOL    HW2 4589   8.496  11.132  11.893
34253SOL     OW 4590   5.073   6.909   9.750
34253SOL    HW1 4591   5.154   6.944   9.788
34253SOL    HW2 4592   5.044   6.976   9.689
34254SOL     OW 4593   3.246   3.223  12.308
34254SOL    HW1 4594   3.179   3.287  12.331
34254SOL    HW2 4595   3.318   3.275  12.272
34255SOL     OW 4596   0.358  14.701   3.918
34255SOL    HW1 4597   0.449  14.677   3.938
34255SOL    HW2 4598   0.336  14.767   3.984
34256SOL     OW 4599   8.781   5.178  10.426
34256SOL    HW1 4600   8.692   5.148  10.447
34256SOL    HW2 4601   8.809   5.225  10.505
34257SOL     OW 4602  12.856  11.624   1.389
34257SOL    HW1 4603  12.875  11.615   1.482
34257SOL    HW2 4604  12.928  11.578   1.345
34258SOL     OW 4605   7.731  11.286   1.723
34258SOL    HW1 4606   7.652  11.330   1.693
34258SOL    HW2 4607   7.710  11.258   1.812
34259SOL     OW 4608  11.204   4.541   5.329
34259SOL    HW1 4609  11.126   4.533   5.273
34259SOL    HW2 4610  11.274   4.569   5.269
34260SOL     OW 4611   1.132   3.491  13.658
34260SOL    HW1 4612   1.145   3.545  13.736
34260SOL    HW2 4613   1.123   3.555  13.587
34261SOL     OW 4614   2.343   9.846  11.859
34261SOL    HW1 4615   2.255   9.881  11.847
34261SOL    HW2 4616   2.357   9.788  11.785
34262SOL     OW 4617   6.242   9.235   6.489
34262SOL    HW1 4618   6.298   9.194   6.423
34262SOL    HW2 4619   6.262   9.328   6.484
34263SOL     OW 4620  10.513   5.986   5.260
34263SOL    HW1 4621  10.557   6.018   5.339
34263SOL    HW2 4622  10.420   5.986   5.283
34264SOL     OW 4623   8.721   7.455   7.445
34264SOL    HW1 4624   8.770   7.457   7.363
34264SOL    HW2 4625   8.705   7.361   7.461
34265SOL     OW 4626   0.173   1.233   5.528
34265SOL    HW1 4627   0.083   1.201   5.521
34265SOL    HW2 4628   0.218   1.190   5.455
34266SOL     OW 4629   1.456   6.887   4.161
34266SOL    HW1 4630   1.466   6.954   4.228
34266SOL    HW2 4631   1.363   6.866   4.161
34267SOL     OW 4632   7.322   9.721  11.082
34267SOL    HW1 4633   7.294   9.812  11.084
34267SOL    HW2 4634   7.363   9.707  11.168
34268SOL     OW 4635   3.174   1.609  10.350
34268SOL    HW1 4636   3.240   1.594  10.417
34268SOL    HW2 4637   3.222   1.608  10.267
34269SOL     OW 4638  10.220  14.105  14.750
34269SOL    HW1 4639  10.280  14.143  14.686
34269SOL    HW2 4640  10.220  14.169  14.822
34270SOL     OW 4641   1.079   9.663   1.404
34270SOL    HW1 4642   1.148   9.658   1.470
34270SOL    HW2 4643   1.052   9.755   1.405
34271SOL     OW 4644   7.435   3.382   5.193
34271SOL    HW1 4645   7.379   3.451   5.229
34271SOL    HW2 4646   7.501   3.367   5.260
34272SOL     OW 4647   2.728   7.221  10.419
34272SOL    HW1 4648   2.808   7.209  10.470
34272SOL    HW2 4649   2.756   7.268  10.340
34273SOL     OW 4650   5.076   6.976   2.930
34273SOL    HW1 4651   5.141   6.981   3.000
34273SOL    HW2 4652   5.031   6.893   2.945
34274SOL     OW 4653   8.471   5.720   5.277
34274SOL    HW1 4654   8.514   5.648   5.229
34274SOL    HW2 4655   8.468   5.792   5.215
34275SOL     OW 4656  11.076   9.310  14.387
34275SOL    HW1 4657  11.162   9.308  14.345
34275SOL    HW2 4658  11.017   9.339  14.318
34276SOL     OW 4659   7.276   0.968   4.898
34276SOL    HW1 4660   7.230   0.930   4.973
34276SOL    HW2 4661   7.256   0.908   4.825
34277SOL     OW 4662   3.668   2.806  14.428
34277SOL    HW1 4663   3.719   2.835  14.503
34277SOL    HW2 4664   3.577   2.824  14.451
34278SOL     OW 4665   1.784  12.136   0.957
34278SOL    HW1 4666   1.718  12.072   0.982
34278SOL    HW2 4667   1.868  12.090   0.968
34279SOL     OW 4668   7.825  10.153   1.412
34279SOL    HW1 4669   7.879  10.226   1.383
34279SOL    HW2 4670   7.811  10.169   1.506
34280SOL     OW 4671  11.605   3.482   4.335
34280SOL    HW1 4672  11.553   3.432   4.398
34280SOL    HW2 4673  11.614   3.423   4.260
34281SOL     OW 4674  14.699  14.527   7.538
34281SOL    HW1 4675  14.659  14.599   7.587
34281SOL    HW2 4676  14.625  14.477   7.503
34282SOL     OW 4677   6.361  12.336   1.887
34282SOL    HW1 4678   6.317  12.389   1.820
34282SOL    HW2 4679   6.330  12.372   1.970
34283SOL     OW 4680   5.031   5.172   0.579
34283SOL    HW1 4681   4.962   5.234   0.555
34283SOL    HW2 4682   5.111   5.224   0.577
34284SOL     OW 4683   4.833   0.258  10.465
34284SOL    HW1 4684   4.758   0.317  10.471
34284SOL    HW2 4685   4.877   0.265  10.549
34285SOL     OW 4686   2.564  13.258   0.007
34285SOL    HW1 4687   2.602  13.300   0.085
34285SOL    HW2 4688   2.475  13.293   0.001
34286SOL     OW 4689  10.572  11.713   1.567
34286SOL    HW1 4690  10.534  11.772   1.632
34286SOL    HW2 4691  10.534  11.627   1.588
34287SOL     OW 4692   2.365   1.744   0.935
34287SOL    HW1 4693   2.328   1.758   0.847
34287SOL    HW2 4694   2.423   1.669   0.924
34288SOL     OW 4695   4.988  13.434   5.252
34288SOL    HW1 4696   5.068  13.383   5.259
34288SOL    HW2 4697   4.983  13.482   5.335
34289SOL     OW 4698   4.687   1.413  13.731
34289SOL    HW1 4699   4.712   1.376  13.646
34289SOL    HW2 4700   4.713   1.505  13.726
34290SOL     OW 4701   5.251   7.561  10.984
34290SOL    HW1 4702   5.327   7.606  11.022
34290SOL    HW2 4703   5.280   7.471  10.972
34291SOL     OW 4704  10.648   3.549  10.411
34291SOL    HW1 4705  10.603   3.630  10.437
34291SOL    HW2 4706  10.591   3.509  10.346
34292SOL     OW 4707   3.781  12.178   9.459
34292SOL    HW1 4708   3.688  12.183   9.480
34292SOL    HW2 4709   3.824  12.232   9.525
34293SOL     OW 4710   1.301  11.491   1.524
34293SOL    HW1 4711   1.336  11.403   1.528
34293SOL    HW2 4712   1.325  11.531   1.607
34294SOL     OW 4713  12.883   6.866  11.688
34294SOL    HW1 4714  12.890   6.945  11.635
34294SOL    HW2 4715  12.929   6.888  11.770
34295SOL     OW 4716   5.584  11.846   6.063
34295SOL    HW1 4717   5.625  11.841   5.977
34295SOL    HW2 4718   5.623  11.774   6.113
34296SOL     OW 4719   8.492   9.920  11.346
34296SOL    HW1 4720   8.553   9.900  11.417
34296SOL    HW2 4721   8.409   9.880  11.372
34297SOL     OW 4722  12.692   4.379  13.116
34297SOL    HW1 4723  12.743   4.443  13.166
34297SOL    HW2 4724  12.738   4.296  13.130
34298SOL     OW 4725   6.377   5.972   1.723
34298SOL    HW1 4726   6.413   6.061   1.716
34298SOL    HW2 4727   6.400   5.944   1.812
34299SOL     OW 4728  10.011   6.357  13.778
34299SOL    HW1 4729   9.925   6.397  13.773
34299SOL    HW2 4730  10.057   6.389  13.700
34300SOL     OW 4731   7.252   2.359  10.621
34300SOL    HW1 4732   7.271   2.389  10.709
34300SOL    HW2 4733   7.215   2.436  10.577
34301SOL     OW 4734  14.652  13.634   2.751
34301SOL    HW1 4735  14.596  13.617   2.675
34301SOL    HW2 4736  14.622  13.719   2.784
34302SOL     OW 4737   2.614  11.388  13.223
34302SOL    HW1 4738   2.533  11.367  13.176
34302SOL    HW2 4739   2.669  11.432  13.158
34303SOL     OW 4740  13.624   3.602   3.597
34303SOL    HW1 4741  13.635   3.638   3.509
34303SOL    HW2 4742  13.538   3.561   3.596
34304SOL     OW 4743   2.914   2.995   3.312
34304SOL    HW1 4744   2.885   2.913   3.352
34304SOL    HW2 4745   2.983   3.027   3.369
34305SOL     OW 4746   6.362   2.129  11.684
34305SOL    HW1 4747   6.444   2.102  11.726
34305SOL    HW2 4748   6.297   2.125  11.754
34306SOL     OW 4749   1.848   2.095  14.588
34306SOL    HW1 4750   1.940   2.080  14.608
34306SOL    HW2 4751   1.818   2.013  14.550
34307SOL     OW 4752   6.954   3.268  13.446
34307SOL    HW1 4753   7.015   3.262  13.519
34307SOL    HW2 4754   6.958   3.360  13.418
34308SOL     OW 4755   8.127   0.974   1.748
34308SOL    HW1 4756   8.111   0.958   1.841
34308SOL    HW2 4757   8.162   1.064   1.745
34309SOL     OW 4758   2.841  13.309   7.723
34309SOL    HW1 4759   2.763  13.255   7.710
34309SOL    HW2 4760   2.831  13.347   7.810
34310SOL     OW 4761  14.402   8.101   5.529
34310SOL    HW1 4762  14.363   8.022   5.493
34310SOL    HW2 4763  14.328   8.152   5.562
34311SOL     OW 4764   7.465   4.385  11.823
34311SOL    HW1 4765   7.492   4.312  11.879
34311SOL    HW2 4766   7.382   4.357  11.784
34312SOL     OW 4767   2.960   7.056   8.843
34312SOL    HW1 4768   2.978   7.104   8.762
34312SOL    HW2 4769   2.893   6.993   8.819
34313SOL     OW 4770   8.031  12.602  13.325
34313SOL    HW1 4771   8.075  12.676  13.367
34313SOL    HW2 4772   8.040  12.531  13.388
34314SOL     OW 4773   9.969   7.332  11.263
34314SOL    HW1 4774  10.061   7.357  11.270
34314SOL    HW2 4775   9.949   7.291  11.347
34315SOL     OW 4776   9.913  10.692   1.382
34315SOL    HW1 4777   9.866  10.740   1.314
34315SOL    HW2 4778  10.003  10.685   1.350
34316SOL     OW 4779  12.786   9.712   9.668
34316SOL    HW1 4780  12.813   9.625   9.641
34316SOL    HW2 4781  12.853   9.770   9.631
34317SOL     OW 4782   7.757   7.301   3.604
34317SOL    HW1 4783   7.692   7.322   3.671
34317SOL    HW2 4784   7.808   7.230   3.642
34318SOL     OW 4785   6.143   0.744   6.679
34318SOL    HW1 4786   6.194   0.702   6.610
34318SOL    HW2 4787   6.190   0.825   6.699
34319SOL     OW 4788   1.478   3.888   1.275
34319SOL    HW1 4789   1.408   3.923   1.220
34319SOL    HW2 4790   1.440   3.884   1.362
34320SOL     OW 4791   6.839   2.636  11.685
34320SOL    HW1 4792   6.874   2.597  11.605
34320SOL    HW2 4793   6.845   2.730  11.670
34321SOL     OW 4794   9.331   3.511  13.636
34321SOL    HW1 4795   9.245   3.486  13.602
34321SOL    HW2 4796   9.317   3.597  13.675
34322SOL     OW 4797   5.885   7.193  14.209
34322SOL    HW1 4798   5.791   7.211  14.205
34322SOL    HW2 4799   5.903   7.183  14.303
34323SOL     OW 4800   3.374  13.119   7.735
34323SOL    HW1 4801   3.391  13.212   7.744
34323SOL    HW2 4802   3.296  13.102   7.787
34324SOL     OW 4803   4.873  11.412  11.802
34324SOL    HW1 4804   4.828  11.345  11.751
34324SOL    HW2 4805   4.952  11.431  11.752
34325SOL     OW 4806   5.272   3.796  12.591
34325SOL    HW1 4807   5.180   3.775  12.575
34325SOL    HW2 4808   5.315   3.782  12.507
34326SOL     OW 4809   0.216   6.508   4.272
34326SOL    HW1 4810   0.271   6.531   4.197
34326SOL    HW2 4811   0.222   6.584   4.330
34327SOL     OW 4812   3.313   5.320   5.848
34327SOL    HW1 4813   3.357   5.334   5.765
34327SOL    HW2 4814   3.339   5.232   5.875
34328SOL     OW 4815   6.205   1.259  13.656
34328SOL    HW1 4816   6.184   1.166  13.648
34328SOL    HW2 4817   6.125   1.304  13.631
34329SOL     OW 4818  13.383   7.814   5.624
34329SOL    HW1 4819  13.403   7.903   5.654
34329SOL    HW2 4820  13.464   7.783   5.584
34330SOL     OW 4821   0.463   7.054   3.348
34330SOL    HW1 4822   0.446   7.145   3.372
34330SOL    HW2 4823   0.557   7.043   3.361
34331SOL     OW 4824   8.974  13.672  11.538
34331SOL    HW1 4825   8.986  13.589  11.492
34331SOL    HW2 4826   9.021  13.736  11.485
34332SOL     OW 4827   4.952  13.123   5.888
34332SOL    HW1 4828   4.929  13.067   5.962
34332SOL    HW2 4829   4.875  13.179   5.876
34333SOL     OW 4830   2.746   8.765   3.181
34333SOL    HW1 4831   2.803   8.710   3.234
34333SOL    HW2 4832   2.739   8.847   3.230
34334SOL     OW 4833   1.196   4.523  11.470
34334SOL    HW1 4834   1.175   4.558  11.557
34334SOL    HW2 4835   1.188   4.428  11.479
34335SOL     OW 4836  12.664   8.095   2.988
34335SOL    HW1 4837  12.717   8.069   3.064
34335SOL    HW2 4838  12.724   8.145   2.933
34336SOL     OW 4839  14.844   3.950   0.368
34336SOL    HW1 4840  14.874   4.037   0.341
34336SOL    HW2 4841  14.781   3.925   0.301
34337SOL     OW 4842  12.179   6.158   5.109
34337SOL    HW1 4843  12.201   6.132   5.020
34337SOL    HW2 4844  12.127   6.238   5.099
34338SOL     OW 4845   2.848  10.095  13.445
34338SOL    HW1 4846   2.914  10.163  13.437
34338SOL    HW2 4847   2.798  10.101  13.363
34339SOL     OW 4848   5.792   1.152   0.152
34339SOL    HW1 4849   5.864   1.161   0.215
34339SOL    HW2 4850   5.717   1.123   0.204
34340SOL     OW 4851   5.531   6.821   9.021
34340SOL    HW1 4852   5.618   6.780   9.018
34340SOL    HW2 4853   5.548   6.910   9.051
34341SOL     OW 4854  12.972   8.181  11.827
34341SOL    HW1 4855  12.917   8.259  11.820
34341SOL    HW2 4856  13.005   8.183  11.917
34342SOL     OW 4857   8.058   8.825  14.388
34342SOL    HW1 4858   8.052   8.730  14.393
34342SOL    HW2 4859   8.029   8.856  14.474
34343SOL     OW 4860   3.688  11.752   6.633
34343SOL    HW1 4861   3.728  11.833   6.667
34343SOL    HW2 4862   3.608  11.782   6.590
34344SOL     OW 4863   2.940  10.866   9.543
34344SOL    HW1 4864   2.967  10.776   9.524
34344SOL    HW2 4865   2.915  10.864   9.636
34345SOL     OW 4866   8.259  10.929   1.139
34345SOL    HW1 4867   8.185  10.961   1.086
34345SOL    HW2 4868   8.304  11.009   1.167
34346SOL     OW 4869   1.596   3.240   7.449
34346SOL    HW1 4870   1.670   3.295   7.424
34346SOL    HW2 4871   1.628   3.150   7.435
34347SOL     OW 4872   4.211   1.324  11.413
34347SOL    HW1 4873   4.270   1.249  11.421
34347SOL    HW2 4874   4.184   1.325  11.321
34348SOL     OW 4875   5.024   9.596  12.190
34348SOL    HW1 4876   5.062   9.508  12.198
34348SOL    HW2 4877   4.934   9.585  12.219
34349SOL     OW 4878   5.252  10.515  14.604
34349SOL    HW1 4879   5.285  10.514  14.694
34349SOL    HW2 4880   5.171  10.464  14.608
34350SOL     OW 4881   1.015  13.975   7.775
34350SOL    HW1 4882   1.109  13.991   7.762
34350SOL    HW2 4883   1.012  13.901   7.836
34351SOL     OW 4884   1.043  13.639   5.546
34351SOL    HW1 4885   0.950  13.633   5.527
34351SOL    HW2 4886   1.052  13.604   5.634
34352SOL     OW 4887  10.749   7.757   8.901
34352SOL    HW1 4888  10.706   7.840   8.925
34352SOL    HW2 4889  10.695   7.690   8.942
34353SOL     OW 4890   2.645   3.476  10.510
34353SOL    HW1 4891   2.600   3.560  10.506
34353SOL    HW2 4892   2.575   3.411  10.517
34354SOL     OW 4893   7.415   9.520  12.749
34354SOL    HW1 4894   7.325   9.552  12.755
34354SOL    HW2 4895   7.430   9.508  12.655
34355SOL     OW 4896   4.090   1.796   8.924
34355SOL    HW1 4897   4.001   1.820   8.898
34355SOL    HW2 4898   4.124   1.745   8.851
34356SOL     OW 4899   0.574   5.677  11.565
34356SOL    HW1 4900   0.498   5.619  11.565
34356SOL    HW2 4901   0.642   5.628  11.611
34357SOL     OW 4902   5.291   6.122  12.852
34357SOL    HW1 4903   5.305   6.134  12.758
34357SOL    HW2 4904   5.335   6.197  12.892
34358SOL     OW 4905   1.625   0.901   7.496
34358SOL    HW1 4906   1.667   0.858   7.421
34358SOL    HW2 4907   1.559   0.838   7.526
34359SOL     OW 4908   8.179   4.678  11.170
34359SOL    HW1 4909   8.217   4.598  11.134
34359SOL    HW2 4910   8.209   4.681  11.261
34360SOL     OW 4911   5.004  12.451   5.850
34360SOL    HW1 4912   5.062  12.410   5.915
34360SOL    HW2 4913   4.918  12.450   5.891
34361SOL     OW 4914   9.721   2.636  13.403
34361SOL    HW1 4915   9.699   2.626  13.310
34361SOL    HW2 4916   9.636   2.634  13.447
34362SOL     OW 4917   4.381   8.715  11.178
34362SOL    HW1 4918   4.338   8.728  11.093
34362SOL    HW2 4919   4.395   8.804  11.211
34363SOL     OW 4920   1.287   9.919  10.268
34363SOL    HW1 4921   1.265   9.979  10.196
34363SOL    HW2 4922   1.204   9.877  10.291
34364SOL     OW 4923   3.834   9.448   7.255
34364SOL    HW1 4924   3.739   9.438   7.243
34364SOL    HW2 4925   3.846   9.455   7.349
34365SOL     OW 4926   3.783   0.320   4.624
34365SOL    HW1 4927   3.773   0.399   4.571
34365SOL    HW2 4928   3.793   0.250   4.560
34366SOL     OW 4929  14.681   9.623   2.264
34366SOL    HW1 4930  14.709   9.601   2.175
34366SOL    HW2 4931  14.730   9.702   2.286
34367SOL     OW 4932   7.664  12.942   4.038
34367SOL    HW1 4933   7.736  12.879   4.037
34367SOL    HW2 4934   7.702  13.022   4.073
34368SOL     OW 4935   9.515   0.685   2.595
34368SOL    HW1 4936   9.580   0.717   2.657
34368SOL    HW2 4937   9.431   0.708   2.635
34369SOL     OW 4938   1.148   3.215  11.513
34369SOL    HW1 4939   1.055   3.236  11.520
34369SOL    HW2 4940   1.158   3.180  11.425
34370SOL     OW 4941   7.336   7.266   4.351
34370SOL    HW1 4942   7.288   7.347   4.333
34370SOL    HW2 4943   7.299   7.202   4.290
34371SOL     OW 4944   1.640   8.511   1.945
34371SOL    HW1 4945   1.655   8.604   1.930
34371SOL    HW2 4946   1.722   8.478   1.982
34372SOL     OW 4947   4.995   1.407   5.486
34372SOL    HW1 4948   4.905   1.427   5.510
34372SOL    HW2 4949   4.990   1.320   5.445
34373SOL     OW 4950  14.424   5.641   2.336
34373SOL    HW1 4951  14.475   5.666   2.259
34373SOL    HW2 4952  14.334   5.638   2.305
34374SOL     OW 4953  10.175   7.085  14.359
34374SOL    HW1 4954  10.172   7.126  14.445
34374SOL    HW2 4955  10.113   7.135  14.306
34375SOL     OW 4956  13.952   0.726   9.386
34375SOL    HW1 4957  13.958   0.738   9.480
34375SOL    HW2 4958  13.865   0.759   9.363
34376SOL     OW 4959   1.255  10.692   2.020
34376SOL    HW1 4960   1.317  10.619   2.025
34376SOL    HW2 4961   1.267  10.739   2.103
34377SOL     OW 4962  11.806  12.657  13.599
34377SOL    HW1 4963  11.766  12.652  13.512
34377SOL    HW2 4964  11.753  12.600  13.654
34378SOL     OW 4965  12.538   8.988   4.286
34378SOL    HW1 4966  12.451   9.012   4.319
34378SOL    HW2 4967  12.595   9.059   4.315
34379SOL     OW 4968   4.041  14.817  13.000
34379SOL    HW1 4969   4.076   0.022  13.021
34379SOL    HW2 4970   4.117  14.768  12.968
34380SOL     OW 4971   8.885  14.196   0.425
34380SOL    HW1 4972   8.812  14.135   0.433
34380SOL    HW2 4973   8.870  14.261   0.493
34381SOL     OW 4974  12.038   7.340   0.778
34381SOL    HW1 4975  12.113   7.396   0.798
34381SOL    HW2 4976  12.073   7.271   0.722
34382SOL     OW 4977  12.449   6.907  10.056
34382SOL    HW1 4978  12.530   6.956  10.067
34382SOL    HW2 4979  12.394   6.963  10.001
34383SOL     OW 4980   1.037  11.283   8.826
34383SOL    HW1 4981   1.108  11.219   8.818
34383SOL    HW2 4982   0.969  11.251   8.766
34384SOL     OW 4983  13.580  14.555   9.444
34384SOL    HW1 4984  13.646  14.608   9.401
34384SOL    HW2 4985  13.626  14.516   9.519
34385SOL     OW 4986  10.680   9.671  10.422
34385SOL    HW1 4987  10.741   9.739  10.449
34385SOL    HW2 4988  10.638   9.707  10.344
34386SOL     OW 4989   0.372   5.674   2.026
34386SOL    HW1 4990   0.310   5.717   1.968
34386SOL    HW2 4991   0.331   5.590   2.048
34387SOL     OW 4992  12.094   8.287   2.514
34387SOL    HW1 4993  12.163   8.328   2.567
34387SOL    HW2 4994  12.125   8.294   2.424
34388SOL     OW 4995   6.621   3.338  12.986
34388SOL    HW1 4996   6.572   3.314  13.065
34388SOL    HW2 4997   6.556   3.337  12.916
34389SOL     OW 4998  11.518   3.092  12.934
34389SOL    HW1 4999  11.579   3.032  12.891
34389SOL    HW2 5000  11.564   3.176  12.936
34390SOL     OW 5001   9.844  10.019   3.233
34390SOL    HW1 5002   9.842  10.029   3.138
34390SOL    HW2 5003   9.798   9.937   3.250
34391SOL     OW 5004  10.753   0.619   6.961
34391SOL    HW1 5005  10.843   0.600   6.937
34391SOL    HW2 5006  10.752   0.618   7.056
34392SOL     OW 5007   3.425  12.935  12.801
34392SOL    HW1 5008   3.376  12.906  12.724
34392SOL    HW2 5009   3.441  12.854  12.850
34393SOL     OW 5010  13.285   7.293   0.796
34393SOL    HW1 5011  13.330   7.210   0.782
34393SOL    HW2 5012  13.226   7.301   0.721
34394SOL     OW 5013   8.308   4.164   5.492
34394SOL    HW1 5014   8.387   4.114   5.471
34394SOL    HW2 5015   8.302   4.230   5.422
34395SOL     OW 5016   7.753  10.274  11.321
34395SOL    HW1 5017   7.777  10.307  11.235
34395SOL    HW2 5018   7.666  10.310  11.338
34396SOL     OW 5019   8.781   1.878   5.013
34396SOL    HW1 5020   8.755   1.885   4.921
34396SOL    HW2 5021   8.854   1.816   5.013
34397SOL     OW 5022   9.859   3.414   3.891
34397SOL    HW1 5023   9.887   3.323   3.897
34397SOL    HW2 5024   9.825   3.423   3.802
34398SOL     OW 5025   3.196   6.372   0.040
34398SOL    HW1 5026   3.289   6.396   0.034
34398SOL    HW2 5027   3.198   6.280   0.068
34399SOL     OW 5028   6.798  12.274   5.075
34399SOL    HW1 5029   6.859  12.335   5.032
34399SOL    HW2 5030   6.766  12.218   5.004
34400SOL     OW 5031  13.180   5.872   0.426
34400SOL    HW1 5032  13.182   5.801   0.362
34400SOL    HW2 5033  13.113   5.932   0.393
34401SOL     OW 5034   8.400   2.271   4.486
34401SOL    HW1 5035   8.394   2.366   4.480
34401SOL    HW2 5036   8.353   2.248   4.566
34402SOL     OW 5037   4.355   9.921   1.359
34402SOL    HW1 5038   4.265   9.952   1.366
34402SOL    HW2 5039   4.397   9.954   1.439
34403SOL     OW 5040   0.538   5.437  11.297
34403SOL    HW1 5041   0.626   5.457  11.330
34403SOL    HW2 5042   0.551   5.360  11.242
34404SOL     OW 5043  12.714   7.000  12.793
34404SOL    HW1 5044  12.626   6.982  12.760
34404SOL    HW2 5045  12.704   7.077  12.848
34405SOL     OW 5046   5.047   9.640   4.150
34405SOL    HW1 5047   5.107   9.641   4.225
34405SOL    HW2 5048   5.016   9.550   4.146
34406SOL     OW 5049  14.874   4.471  11.376
34406SOL    HW1 5050  14.857   4.490  11.468
34406SOL    HW2 5051  14.813   4.529  11.329
34407SOL     OW 5052  14.124   9.676   2.570
34407SOL    HW1 5053  14.216   9.702   2.564
34407SOL    HW2 5054  14.126   9.590   2.610
34408SOL     OW 5055   7.087  10.822  11.983
34408SOL    HW1 5056   7.102  10.760  12.055
34408SOL    HW2 5057   7.030  10.888  12.021
34409SOL     OW 5058  11.684   3.957   0.944
34409SOL    HW1 5059  11.672   4.052   0.955
34409SOL    HW2 5060  11.775   3.941   0.970
34410SOL     OW 5061   4.393   3.957   9.977
34410SOL    HW1 5062   4.454   4.016   9.933
34410SOL    HW2 5063   4.307   3.997   9.964
34411SOL     OW 5064   2.125   1.990  10.744
34411SOL    HW1 5065   2.201   1.992  10.686
34411SOL    HW2 5066   2.093   1.900  10.739
34412SOL     OW 5067   4.855   3.227  10.503
34412SOL    HW1 5068   4.870   3.293  10.571
34412SOL    HW2 5069   4.759   3.224  10.494
34413SOL     OW 5070  10.028   1.502   5.194
34413SOL    HW1 5071  10.049   1.585   5.151
34413SOL    HW2 5072   9.970   1.457   5.133
34414SOL     OW 5073   1.475   0.308  14.595
34414SOL    HW1 5074   1.517   0.389  14.565
34414SOL    HW2 5075   1.479   0.249  14.520
34415SOL     OW 5076   1.866   4.067   1.464
34415SOL    HW1 5077   1.943   4.115   1.432
34415SOL    HW2 5078   1.794   4.098   1.409
34416SOL     OW 5079   3.401   6.968   7.678
34416SOL    HW1 5080   3.373   7.003   7.594
34416SOL    HW2 5081   3.455   7.037   7.716
34417SOL     OW 5082  13.769   9.816   9.490
34417SOL    HW1 5083  13.788   9.910   9.489
34417SOL    HW2 5084  13.821   9.780   9.418
34418SOL     OW 5085  10.435   4.842   6.378
34418SOL    HW1 5086  10.388   4.892   6.445
34418SOL    HW2 5087  10.515   4.812   6.423
34419SOL     OW 5088  10.045   8.070   1.601
34419SOL    HW1 5089  10.014   7.981   1.621
34419SOL    HW2 5090  10.048   8.074   1.506
34420SOL     OW 5091   1.698  12.452  13.643
34420SOL    HW1 5092   1.740  12.465  13.558
34420SOL    HW2 5093   1.701  12.357  13.657
34421SOL     OW 5094  11.982  11.786  14.646
34421SOL    HW1 5095  11.934  11.869  14.652
34421SOL    HW2 5096  12.059  11.799  14.701
34422SOL     OW 5097   2.571   9.693   8.084
34422SOL    HW1 5098   2.501   9.628   8.075
34422SOL    HW2 5099   2.642   9.659   8.029
34423SOL     OW 5100  13.831   6.302  14.705
34423SOL    HW1 5101  13.868   6.214  14.713
34423SOL    HW2 5102  13.862   6.348  14.782
34424SOL     OW 5103   1.153  13.074   2.981
34424SOL    HW1 5104   1.225  13.119   2.936
34424SOL    HW2 5105   1.197  13.014   3.042
34425SOL     OW 5106   2.215   8.631   4.125
34425SOL    HW1 5107   2.165   8.554   4.153
34425SOL    HW2 5108   2.188   8.700   4.186
34426SOL     OW 5109   8.764  14.491   9.968
34426SOL    HW1 5110   8.689  14.518  10.021
34426SOL    HW2 5111   8.726  14.442   9.895
34427SOL     OW 5112   0.001   4.524  11.666
34427SOL    HW1 5113  14.839   4.514  11.751
34427SOL    HW2 5114   0.033   4.614  11.666
34428SOL     OW 5115  11.521   6.789   3.754
34428SOL    HW1 5116  11.503   6.783   3.661
34428SOL    HW2 5117  11.441   6.760   3.797
34429SOL     OW 5118  10.992  10.045   6.994
34429SOL    HW1 5119  11.062   9.989   6.961
34429SOL    HW2 5120  10.912  10.000   6.968
34430SOL     OW 5121  14.542  13.978   8.561
34430SOL    HW1 5122  14.633  14.008   8.556
34430SOL    HW2 5123  14.515  14.000   8.650
34431SOL     OW 5124  10.097   1.252   6.422
34431SOL    HW1 5125  10.087   1.262   6.516
34431SOL    HW2 5126  10.041   1.320   6.384
34432SOL     OW 5127  11.458  14.692  10.822
34432SOL    HW1 5128  11.506  14.745  10.758
34432SOL    HW2 5129  11.408  14.756  10.873
34433SOL     OW 5130   1.381   7.655   4.008
34433SOL    HW1 5131   1.458   7.634   4.061
34433SOL    HW2 5132   1.316   7.686   4.071
34434SOL     OW 5133  12.856   5.427   9.182
34434SOL    HW1 5134  12.902   5.423   9.098
34434SOL    HW2 5135  12.852   5.520   9.203
34435SOL     OW 5136   1.068  13.786   2.714
34435SOL    HW1 5137   0.989  13.763   2.667
34435SOL    HW2 5138   1.070  13.726   2.788
34436SOL     OW 5139   6.817   5.078   5.990
34436SOL    HW1 5140   6.804   5.165   5.953
34436SOL    HW2 5141   6.822   5.020   5.913
34437SOL     OW 5142  10.575  14.146   8.681
34437SOL    HW1 5143  10.483  14.148   8.653
34437SOL    HW2 5144  10.585  14.062   8.726
34438SOL     OW 5145   2.068   9.561   6.063
34438SOL    HW1 5146   2.085   9.473   6.030
34438SOL    HW2 5147   1.980   9.557   6.100
34439SOL     OW 5148   7.850   6.779  10.140
34439SOL    HW1 5149   7.777   6.718  10.132
34439SOL    HW2 5150   7.922   6.737  10.093
34440SOL     OW 5151   3.227   2.081  13.774
34440SOL    HW1 5152   3.219   2.176  13.771
34440SOL    HW2 5153   3.217   2.059  13.866
34441SOL     OW 5154   6.316   2.824   6.583
34441SOL    HW1 5155   6.360   2.852   6.664
34441SOL    HW2 5156   6.290   2.906   6.541
34442SOL     OW 5157   5.979   4.233   0.292
34442SOL    HW1 5158   6.046   4.246   0.225
34442SOL    HW2 5159   6.010   4.157   0.342
34443SOL     OW 5160   6.954  14.614   3.898
34443SOL    HW1 5161   6.961  14.700   3.940
34443SOL    HW2 5162   6.927  14.633   3.809
34444SOL     OW 5163   7.162   7.569   2.158
34444SOL    HW1 5164   7.151   7.544   2.066
34444SOL    HW2 5165   7.242   7.523   2.186
34445SOL     OW 5166   4.934   5.549   3.824
34445SOL    HW1 5167   4.928   5.633   3.780
34445SOL    HW2 5168   4.990   5.565   3.900
34446SOL     OW 5169   1.789  14.172   5.374
34446SOL    HW1 5170   1.696  14.172   5.394
34446SOL    HW2 5171   1.825  14.243   5.427
34447SOL     OW 5172  14.648   3.912   0.175
34447SOL    HW1 5173  14.560   3.941   0.198
34447SOL    HW2 5174  14.636   3.851   0.102
34448SOL     OW 5175   4.158   5.677   7.502
34448SOL    HW1 5176   4.215   5.657   7.427
34448SOL    HW2 5177   4.099   5.745   7.470
34449SOL     OW 5178  13.209   6.350  12.220
34449SOL    HW1 5179  13.236   6.424  12.275
34449SOL    HW2 5180  13.220   6.273  12.277
34450SOL     OW 5181   7.555   8.649  14.760
34450SOL    HW1 5182   7.639   8.646  14.714
34450SOL    HW2 5183   7.572   8.606  14.844
34451SOL     OW 5184  11.338   3.838  13.629
34451SOL    HW1 5185  11.344   3.747  13.656
34451SOL    HW2 5186  11.246   3.860  13.637
34452SOL     OW 5187   5.226  11.632   0.012
34452SOL    HW1 5188   5.221  11.585   0.096
34452SOL    HW2 5189   5.313  11.612  14.861
34453SOL     OW 5190   4.679   1.931   4.699
34453SOL    HW1 5191   4.606   1.873   4.719
34453SOL    HW2 5192   4.646   1.985   4.627
34454SOL     OW 5193   9.596  10.266  13.806
34454SOL    HW1 5194   9.643  10.218  13.739
34454SOL    HW2 5195   9.520  10.211  13.827
34455SOL     OW 5196   3.319  14.606   0.563
34455SOL    HW1 5197   3.330  14.571   0.652
34455SOL    HW2 5198   3.353  14.695   0.568
34456SOL     OW 5199  13.552  12.992   0.585
34456SOL    HW1 5200  13.503  12.964   0.508
34456SOL    HW2 5201  13.528  12.929   0.653
34457SOL     OW 5202   6.286   1.518  10.569
34457SOL    HW1 5203   6.341   1.453  10.613
34457SOL    HW2 5204   6.343   1.595  10.559
34458SOL     OW 5205   0.335   5.317  14.596
34458SOL    HW1 5206   0.270   5.386  14.612
34458SOL    HW2 5207   0.416   5.352  14.633
34459SOL     OW 5208  14.874   1.789   2.387
34459SOL    HW1 5209  14.779   1.779   2.391
34459SOL    HW2 5210   0.011   1.859   2.450
34460SOL     OW 5211   4.384  12.059   6.828
34460SOL    HW1 5212   4.297  12.019   6.835
34460SOL    HW2 5213   4.402  12.060   6.734
34461SOL     OW 5214  10.298  12.805   7.178
34461SOL    HW1 5215  10.357  12.781   7.249
34461SOL    HW2 5216  10.222  12.845   7.221
34462SOL     OW 5217   9.072  14.790   3.404
34462SOL    HW1 5218   9.097  14.873   3.364
34462SOL    HW2 5219   9.037  14.813   3.489
34463SOL     OW 5220   3.480  12.769  13.694
34463SOL    HW1 5221   3.575  12.757  13.691
34463SOL    HW2 5222   3.466  12.831  13.766
34464SOL     OW 5223  12.293  10.740  13.972
34464SOL    HW1 5224  12.204  10.756  13.941
34464SOL    HW2 5225  12.314  10.816  14.026
34465SOL     OW 5226   3.751   0.981   7.641
34465SOL    HW1 5227   3.828   1.022   7.602
34465SOL    HW2 5228   3.738   1.029   7.723
34466SOL     OW 5229  10.102   4.101   3.896
34466SOL    HW1 5230  10.180   4.097   3.951
34466SOL    HW2 5231  10.029   4.092   3.958
34467SOL     OW 5232   4.183   6.240   5.200
34467SOL    HW1 5233   4.186   6.160   5.253
34467SOL    HW2 5234   4.092   6.267   5.201
34468SOL     OW 5235   4.366   5.578   4.940
34468SOL    HW1 5236   4.434   5.513   4.928
34468SOL    HW2 5237   4.412   5.656   4.973
34469SOL     OW 5238   4.230   6.732   6.779
34469SOL    HW1 5239   4.206   6.646   6.745
34469SOL    HW2 5240   4.300   6.714   6.841
34470SOL     OW 5241  11.856   8.507   3.828
34470SOL    HW1 5242  11.836   8.591   3.787
34470SOL    HW2 5243  11.932   8.474   3.780
34471SOL     OW 5244   1.829  11.157  11.625
34471SOL    HW1 5245   1.769  11.196  11.561
34471SOL    HW2 5246   1.855  11.074  11.586
34472SOL     OW 5247   4.553   0.994   5.577
34472SOL    HW1 5248   4.471   1.011   5.625
34472SOL    HW2 5249   4.580   0.907   5.605
34473SOL     OW 5250   6.895   0.205   0.359
34473SOL    HW1 5251   6.866   0.262   0.288
34473SOL    HW2 5252   6.945   0.136   0.316
34474SOL     OW 5253   0.057  11.230   2.322
34474SOL    HW1 5254   0.020  11.210   2.408
34474SOL    HW2 5255   0.098  11.316   2.334
34475SOL     OW 5256  14.441  10.827   3.108
34475SOL    HW1 5257  14.481  10.912   3.125
34475SOL    HW2 5258  14.346  10.844   3.113
34476SOL     OW 5259   4.814   1.969  10.638
34476SOL    HW1 5260   4.908   1.954  10.636
34476SOL    HW2 5261   4.784   1.930  10.720
34477SOL     OW 5262   6.390   7.383  11.897
34477SOL    HW1 5263   6.473   7.429  11.906
34477SOL    HW2 5264   6.342   7.404  11.977
34478SOL     OW 5265   6.915  10.538   8.835
34478SOL    HW1 5266   6.967  10.517   8.757
34478SOL    HW2 5267   6.978  10.540   8.907
34479SOL     OW 5268   3.279   6.511   3.459
34479SOL    HW1 5269   3.313   6.477   3.376
34479SOL    HW2 5270   3.342   6.481   3.525
34480SOL     OW 5271   6.977  11.085   4.570
34480SOL    HW1 5272   7.005  10.995   4.552
34480SOL    HW2 5273   6.919  11.108   4.498
34481SOL     OW 5274   5.573  11.542  11.078
34481SOL    HW1 5275   5.517  11.607  11.037
34481SOL    HW2 5276   5.651  11.540  11.022
34482SOL     OW 5277   4.087   9.597  11.479
34482SOL    HW1 5278   4.008   9.598  11.533
34482SOL    HW2 5279   4.057   9.567  11.393
34483SOL     OW 5280  11.479  12.377   3.307
34483SOL    HW1 5281  11.533  12.422   3.372
34483SOL    HW2 5282  11.412  12.334   3.359
34484SOL     OW 5283   4.339  14.047   2.009
34484SOL    HW1 5284   4.244  14.047   2.023
34484SOL    HW2 5285   4.369  13.966   2.051
34485SOL     OW 5286  14.578  13.287   7.786
34485SOL    HW1 5287  14.583  13.383   7.781
34485SOL    HW2 5288  14.519  13.262   7.715
34486SOL     OW 5289  11.726   5.913  13.101
34486SOL    HW1 5290  11.744   5.957  13.018
34486SOL    HW2 5291  11.811   5.878  13.128
34487SOL     OW 5292   2.721   3.789   3.650
34487SOL    HW1 5293   2.682   3.828   3.571
34487SOL    HW2 5294   2.686   3.842   3.722
34488SOL     OW 5295   4.068   2.620   4.050
34488SOL    HW1 5296   4.006   2.623   3.977
34488SOL    HW2 5297   4.013   2.615   4.128
34489SOL     OW 5298   9.139  10.590   2.438
34489SOL    HW1 5299   9.165  10.523   2.501
34489SOL    HW2 5300   9.076  10.548   2.381
34490SOL     OW 5301   4.546  13.085   2.407
34490SOL    HW1 5302   4.612  13.067   2.474
34490SOL    HW2 5303   4.574  13.168   2.368
34491SOL     OW 5304   7.613  11.761   3.551
34491SOL    HW1 5305   7.553  11.715   3.609
34491SOL    HW2 5306   7.693  11.771   3.602
34492SOL     OW 5307   4.022   3.897  14.313
34492SOL    HW1 5308   3.990   3.958  14.247
34492SOL    HW2 5309   3.988   3.931  14.396
34493SOL     OW 5310  11.075  10.401  12.515
34493SOL    HW1 5311  11.001  10.407  12.575
34493SOL    HW2 5312  11.144  10.453  12.556
34494SOL     OW 5313   4.843  10.673   6.756
34494SOL    HW1 5314   4.809  10.626   6.680
34494SOL    HW2 5315   4.926  10.631   6.776
34495SOL     OW 5316  13.661   2.611   8.348
34495SOL    HW1 5317  13.669   2.698   8.309
34495SOL    HW2 5318  13.654   2.551   8.273
34496SOL     OW 5319   1.510   0.209   7.799
34496SOL    HW1 5320   1.530   0.154   7.724
34496SOL    HW2 5321   1.592   0.254   7.819
34497SOL     OW 5322  12.989  14.452  14.813
34497SOL    HW1 5323  12.974  14.374  14.866
34497SOL    HW2 5324  13.083  14.470  14.821
34498SOL     OW 5325   3.596   4.540   6.751
34498SOL    HW1 5326   3.555   4.459   6.781
34498SOL    HW2 5327   3.572   4.605   6.817
34499SOL     OW 5328   8.000   2.973  11.469
34499SOL    HW1 5329   7.985   2.931  11.384
34499SOL    HW2 5330   8.078   2.929  11.504
34500SOL     OW 5331   8.752   7.482   9.137
34500SOL    HW1 5332   8.693   7.557   9.137
34500SOL    HW2 5333   8.712   7.420   9.076
34501SOL     OW 5334   0.392   7.848   4.882
34501SOL    HW1 5335   0.314   7.890   4.844
34501SOL    HW2 5336   0.412   7.776   4.823
34502SOL     OW 5337   9.023   4.320   7.507
34502SOL    HW1 5338   8.945   4.376   7.503
34502SOL    HW2 5339   9.064   4.330   7.421
34503SOL     OW 5340   7.149   9.089   9.364
34503SOL    HW1 5341   7.123   9.145   9.292
34503SOL    HW2 5342   7.231   9.127   9.396
34504SOL     OW 5343   1.983   4.588   0.995
34504SOL    HW1 5344   1.937   4.560   0.916
34504SOL    HW2 5345   2.069   4.546   0.989
34505SOL     OW 5346   4.691   2.166  14.742
34505SOL    HW1 5347   4.695   2.239  14.680
34505SOL    HW2 5348   4.737   2.095  14.699
34506SOL     OW 5349   3.009   6.710  14.638
34506SOL    HW1 5350   2.971   6.767  14.705
34506SOL    HW2 5351   2.966   6.736  14.557
34507SOL     OW 5352   0.784   7.388   5.728
34507SOL    HW1 5353   0.800   7.295   5.742
34507SOL    HW2 5354   0.781   7.398   5.633
34508SOL     OW 5355   2.943  10.210   8.340
34508SOL    HW1 5356   2.854  10.204   8.307
34508SOL    HW2 5357   2.987  10.269   8.279
34509SOL     OW 5358   7.849  13.048   2.268
34509SOL    HW1 5359   7.843  13.047   2.364
34509SOL    HW2 5360   7.764  13.081   2.239
34510SOL     OW 5361   2.434  13.300   1.793
34510SOL    HW1 5362   2.345  13.323   1.766
34510SOL    HW2 5363   2.467  13.243   1.724
34511SOL     OW 5364   5.671  12.404  10.496
34511SOL    HW1 5365   5.653  12.475  10.558
34511SOL    HW2 5366   5.751  12.432  10.451
34512SOL     OW 5367   1.625   5.313  10.582
34512SOL    HW1 5368   1.658   5.268  10.660
34512SOL    HW2 5369   1.534   5.335  10.604
34513SOL     OW 5370   9.603   3.314   4.023
34513SOL    HW1 5371   9.596   3.218   4.023
34513SOL    HW2 5372   9.616   3.337   3.932
34514SOL     OW 5373  10.290   1.483   0.342
34514SOL    HW1 5374  10.376   1.483   0.300
34514SOL    HW2 5375  10.301   1.538   0.419
34515SOL     OW 5376   8.560  12.023   3.733
34515SOL    HW1 5377   8.482  12.069   3.702
34515SOL    HW2 5378   8.594  12.078   3.803
34516SOL     OW 5379   4.161  12.265  13.715
34516SOL    HW1 5380   4.157  12.182  13.668
34516SOL    HW2 5381   4.233  12.253  13.777
34517SOL     OW 5382   0.932  12.583   1.777
34517SOL    HW1 5383   0.930  12.671   1.738
34517SOL    HW2 5384   0.995  12.590   1.848
34518SOL     OW 5385  13.804   2.425  13.083
34518SOL    HW1 5386  13.787   2.395  13.172
34518SOL    HW2 5387  13.752   2.365  13.028
34519SOL     OW 5388   5.677   8.836  14.672
34519SOL    HW1 5389   5.600   8.885  14.700
34519SOL    HW2 5390   5.698   8.778  14.746
34520SOL     OW 5391   0.176   8.632   5.930
34520SOL    HW1 5392   0.225   8.709   5.959
34520SOL    HW2 5393   0.171   8.641   5.835
34521SOL     OW 5394  14.215   4.164   8.475
34521SOL    HW1 5395  14.213   4.074   8.441
34521SOL    HW2 5396  14.222   4.218   8.396
34522SOL     OW 5397   8.987  10.911   4.755
34522SOL    HW1 5398   9.014  10.819   4.758
34522SOL    HW2 5399   8.895  10.909   4.784
34523SOL     OW 5400  14.335   1.955   5.076
34523SOL    HW1 5401  14.430   1.948   5.085
34523SOL    HW2 5402  14.322   2.034   5.023
34524SOL     OW 5403  13.418   6.177   5.505
34524SOL    HW1 5404  13.331   6.165   5.543
34524SOL    HW2 5405  13.415   6.265   5.466
34525SOL     OW 5406  13.984   4.344   0.076
34525SOL    HW1 5407  14.038   4.367   0.153
34525SOL    HW2 5408  14.041   4.289   0.023
34526SOL     OW 5409   0.725  12.359   4.466
34526SOL    HW1 5410   0.671  12.282   4.447
34526SOL    HW2 5411   0.663  12.426   4.493
34527SOL     OW 5412   5.767   1.857   9.227
34527SOL    HW1 5413   5.672   1.847   9.241
34527SOL    HW2 5414   5.781   1.951   9.231
34528SOL     OW 5415  14.758   4.915   7.695
34528SOL    HW1 5416  14.811   4.879   7.767
34528SOL    HW2 5417  14.692   4.968   7.739
34529SOL     OW 5418   0.912   3.740   2.982
34529SOL    HW1 5419   0.860   3.801   2.929
34529SOL    HW2 5420   0.996   3.784   2.993
34530SOL     OW 5421   0.148  12.129   0.601
34530SOL    HW1 5422   0.070  12.165   0.642
34530SOL    HW2 5423   0.214  12.198   0.611
34531SOL     OW 5424  11.894   0.381  11.052
34531SOL    HW1 5425  11.814   0.415  11.092
34531SOL    HW2 5426  11.951   0.362  11.127
34532SOL     OW 5427  13.772   8.948   0.133
34532SOL    HW1 5428  13.810   9.025   0.176
34532SOL    HW2 5429  13.796   8.874   0.189
34533SOL     OW 5430   6.744   3.571  10.731
34533SOL    HW1 5431   6.742   3.504  10.800
34533SOL    HW2 5432   6.828   3.614  10.742
34534SOL     OW 5433   8.720   0.127   9.239
34534SOL    HW1 5434   8.662   0.050   9.233
34534SOL    HW2 5435   8.698   0.179   9.162
34535SOL     OW 5436   4.790   4.277   1.576
34535SOL    HW1 5437   4.770   4.192   1.537
34535SOL    HW2 5438   4.833   4.326   1.506
34536SOL     OW 5439   4.478   8.685   6.227
34536SOL    HW1 5440   4.536   8.609   6.233
34536SOL    HW2 5441   4.391   8.649   6.243
34537SOL     OW 5442   2.869  11.518  13.086
34537SOL    HW1 5443   2.884  11.432  13.048
34537SOL    HW2 5444   2.953  11.542  13.124
34538SOL     OW 5445  11.200   8.342  11.726
34538SOL    HW1 5446  11.261   8.294  11.670
34538SOL    HW2 5447  11.248   8.421  11.750
34539SOL     OW 5448   1.425  10.088   3.189
34539SOL    HW1 5449   1.499  10.149   3.187
34539SOL    HW2 5450   1.433  10.043   3.274
34540SOL     OW 5451   3.271   3.452   3.055
34540SOL    HW1 5452   3.223   3.458   3.137
34540SOL    HW2 5453   3.224   3.387   3.004
34541SOL     OW 5454   6.754  12.538  13.295
34541SOL    HW1 5455   6.710  12.603  13.240
34541SOL    HW2 5456   6.682  12.488  13.334
34542SOL     OW 5457   9.996   5.289   0.123
34542SOL    HW1 5458   9.900   5.300   0.121
34542SOL    HW2 5459  10.030   5.378   0.127
34543SOL     OW 5460   2.463   6.273  13.793
34543SOL    HW1 5461   2.372   6.270  13.824
34543SOL    HW2 5462   2.474   6.190  13.747
34544SOL     OW 5463  12.943  10.378   1.726
34544SOL    HW1 5464  12.888  10.439   1.677
34544SOL    HW2 5465  13.032  10.411   1.714
34545SOL     OW 5466   6.099   8.526   5.528
34545SOL    HW1 5467   6.005   8.534   5.546
34545SOL    HW2 5468   6.123   8.441   5.563
34546SOL     OW 5469  13.540   8.496   4.485
34546SOL    HW1 5470  13.473   8.537   4.538
34546SOL    HW2 5471  13.593   8.568   4.451
34547SOL     OW 5472   9.806   8.659  14.812
34547SOL    HW1 5473   9.795   8.646   0.025
34547SOL    HW2 5474   9.878   8.601  14.789
34548SOL     OW 5475   4.753  14.304   1.390
34548SOL    HW1 5476   4.699  14.350   1.454
34548SOL    HW2 5477   4.730  14.211   1.401
34549SOL     OW 5478   6.572   1.970   5.180
34549SOL    HW1 5479   6.520   1.949   5.102
34549SOL    HW2 5480   6.560   2.064   5.192
34550SOL     OW 5481   9.895   9.353   2.499
34550SOL    HW1 5482   9.876   9.280   2.558
34550SOL    HW2 5483   9.950   9.314   2.431
34551SOL     OW 5484  13.897   0.609  11.165
34551SOL    HW1 5485  13.875   0.620  11.072
34551SOL    HW2 5486  13.861   0.524  11.189
34552SOL     OW 5487   1.939  13.906  11.351
34552SOL    HW1 5488   1.922  13.980  11.409
34552SOL    HW2 5489   1.924  13.940  11.263
34553SOL     OW 5490  13.681   6.903  13.614
34553SOL    HW1 5491  13.648   6.987  13.648
34553SOL    HW2 5492  13.745   6.875  13.679
34554SOL     OW 5493   0.004   1.504   3.859
34554SOL    HW1 5494  14.851   1.429   3.810
34554SOL    HW2 5495  14.812   1.536   3.910
34555SOL     OW 5496   0.163  13.497  10.092
34555SOL    HW1 5497   0.129  13.415  10.128
34555SOL    HW2 5498   0.118  13.508  10.008
34556SOL     OW 5499  12.394   2.024  12.691
34556SOL    HW1 5500  12.324   2.045  12.629
34556SOL    HW2 5501  12.362   2.057  12.775
34557SOL     OW 5502   0.725   7.515  14.265
34557SOL    HW1 5503   0.727   7.529  14.170
34557SOL    HW2 5504   0.687   7.595  14.300
34558SOL     OW 5505   8.877   0.914   8.429
34558SOL    HW1 5506   8.931   0.946   8.500
34558SOL    HW2 5507   8.813   0.984   8.414
34559SOL     OW 5508  14.692   2.903   3.693
34559SOL    HW1 5509  14.676   2.836   3.627
34559SOL    HW2 5510  14.787   2.903   3.705
34560SOL     OW 5511  14.251  12.799  13.262
34560SOL    HW1 5512  14.241  12.828  13.352
34560SOL    HW2 5513  14.344  12.814  13.242
34561SOL     OW 5514   7.356   1.557   8.936
34561SOL    HW1 5515   7.307   1.475   8.935
34561SOL    HW2 5516   7.384   1.569   8.845
34562SOL     OW 5517   9.925   9.574   9.014
34562SOL    HW1 5518   9.870   9.652   9.006
34562SOL    HW2 5519  10.009   9.607   9.045
34563SOL     OW 5520   9.953  12.917   0.173
34563SOL    HW1 5521   9.876  12.966   0.145
34563SOL    HW2 5522  10.025  12.981   0.169
34564SOL     OW 5523  11.267   7.256   2.366
34564SOL    HW1 5524  11.221   7.224   2.288
34564SOL    HW2 5525  11.259   7.351   2.361
34565SOL     OW 5526  10.344   7.477  12.825
34565SOL    HW1 5527  10.355   7.383  12.839
34565SOL    HW2 5528  10.412   7.517  12.878
34566SOL     OW 5529   8.123  14.163   6.388
34566SOL    HW1 5530   8.133  14.232   6.322
34566SOL    HW2 5531   8.048  14.112   6.358
34567SOL     OW 5532   0.665   0.565   1.653
34567SOL    HW1 5533   0.597   0.498   1.640
34567SOL    HW2 5534   0.643   0.604   1.737
34568SOL     OW 5535  11.667   8.530   3.001
34568SOL    HW1 5536  11.672   8.564   3.090
34568SOL    HW2 5537  11.575   8.541   2.977
34569SOL     OW 5538  13.435  11.610  13.859
34569SOL    HW1 5539  13.518  11.569  13.834
34569SOL    HW2 5540  13.458  11.702  13.874
34570SOL     OW 5541   1.585  13.384   6.445
34570SOL    HW1 5542   1.671  13.427   6.443
34570SOL    HW2 5543   1.564  13.369   6.353
34571SOL     OW 5544   8.660   0.358   7.894
34571SOL    HW1 5545   8.746   0.324   7.919
34571SOL    HW2 5546   8.634   0.303   7.820
34572SOL     OW 5547  12.033  14.504   6.775
34572SOL    HW1 5548  12.018  14.492   6.868
34572SOL    HW2 5549  12.128  14.511   6.766
34573SOL     OW 5550  10.653  12.982   9.899
34573SOL    HW1 5551  10.674  12.907   9.954
34573SOL    HW2 5552  10.680  13.058   9.951
34574SOL     OW 5553  13.707   7.089  10.142
34574SOL    HW1 5554  13.679   7.032  10.071
34574SOL    HW2 5555  13.733   7.029  10.212
34575SOL     OW 5556  14.588   1.027   7.823
34575SOL    HW1 5557  14.600   1.102   7.882
34575SOL    HW2 5558  14.585   1.065   7.736
34576SOL     OW 5559  13.782   8.785   2.074
34576SOL    HW1 5560  13.789   8.690   2.071
34576SOL    HW2 5561  13.781   8.811   1.981
34577SOL     OW 5562   0.743  11.217   1.332
34577SOL    HW1 5563   0.764  11.139   1.384
34577SOL    HW2 5564   0.734  11.185   1.243
34578SOL     OW 5565   1.109   5.650  11.137
34578SOL    HW1 5566   1.181   5.714  11.134
34578SOL    HW2 5567   1.072   5.651  11.049
34579SOL     OW 5568   2.715   0.091   9.419
34579SOL    HW1 5569   2.780   0.155   9.450
34579SOL    HW2 5570   2.647   0.093   9.487
34580SOL     OW 5571   8.162   0.618   3.604
34580SOL    HW1 5572   8.106   0.552   3.563
34580SOL    HW2 5573   8.246   0.609   3.560
34581SOL     OW 5574  13.707   7.812   9.247
34581SOL    HW1 5575  13.652   7.889   9.232
34581SOL    HW2 5576  13.650   7.752   9.296
34582SOL     OW 5577   9.539   9.955  14.026
34582SOL    HW1 5578   9.472   9.998  13.972
34582SOL    HW2 5579   9.506   9.961  14.115
34583SOL     OW 5580   9.060   3.874   8.545
34583SOL    HW1 5581   8.991   3.811   8.523
34583SOL    HW2 5582   9.135   3.820   8.570
34584SOL     OW 5583  13.102   5.873   8.460
34584SOL    HW1 5584  13.025   5.887   8.405
34584SOL    HW2 5585  13.176   5.894   8.402
34585SOL     OW 5586   1.413   0.030   9.612
34585SOL    HW1 5587   1.467   0.016   9.690
34585SOL    HW2 5588   1.342  14.849   9.620
34586SOL     OW 5589  11.798   8.528  11.874
34586SOL    HW1 5590  11.806   8.611  11.827
34586SOL    HW2 5591  11.718   8.488  11.838
34587SOL     OW 5592  13.624   1.551  14.375
34587SOL    HW1 5593  13.584   1.465  14.382
34587SOL    HW2 5594  13.710   1.535  14.337
34588SOL     OW 5595   5.628  11.997  10.191
34588SOL    HW1 5596   5.622  12.081  10.236
34588SOL    HW2 5597   5.674  11.940  10.253
34589SOL     OW 5598  10.931   2.579  14.712
34589SOL    HW1 5599  10.881   2.642  14.661
34589SOL    HW2 5600  10.926   2.498  14.661
34590SOL     OW 5601  12.261  12.614   7.517
34590SOL    HW1 5602  12.295  12.544   7.572
34590SOL    HW2 5603  12.339  12.657   7.483
34591SOL     OW 5604   1.446   6.986  12.825
34591SOL    HW1 5605   1.393   7.063  12.806
34591SOL    HW2 5606   1.532   7.021  12.849
34592SOL     OW 5607   6.910   0.441   6.804
34592SOL    HW1 5608   6.987   0.494   6.787
34592SOL    HW2 5609   6.925   0.404   6.891
34593SOL     OW 5610  10.731   7.125   9.487
34593SOL    HW1 5611  10.668   7.132   9.558
34593SOL    HW2 5612  10.686   7.161   9.411
34594SOL     OW 5613  13.186   7.519   5.964
34594SOL    HW1 5614  13.272   7.490   5.934
34594SOL    HW2 5615  13.189   7.615   5.960
34595SOL     OW 5616   3.149   4.048   4.832
34595SOL    HW1 5617   3.185   3.963   4.855
34595SOL    HW2 5618   3.128   4.041   4.739
34596SOL     OW 5619   8.778  10.936   8.403
34596SOL    HW1 5620   8.696  10.943   8.451
34596SOL    HW2 5621   8.800  10.843   8.405
34597SOL     OW 5622   1.879  14.070  14.251
34597SOL    HW1 5623   1.799  14.073  14.304
34597SOL    HW2 5624   1.847  14.054  14.162
34598SOL     OW 5625   4.971   1.493   1.033
34598SOL    HW1 5626   4.908   1.429   1.068
34598SOL    HW2 5627   4.947   1.575   1.075
34599SOL     OW 5628  10.987   3.031   7.840
34599SOL    HW1 5629  10.953   3.116   7.868
34599SOL    HW2 5630  11.069   3.021   7.889
34600SOL     OW 5631  14.664  13.050   5.341
34600SOL    HW1 5632  14.670  13.061   5.246
34600SOL    HW2 5633  14.754  13.037   5.370
34601SOL     OW 5634   4.959   1.556  13.091
34601SOL    HW1 5635   4.878   1.563  13.142
34601SOL    HW2 5636   4.942   1.484  13.030
34602SOL     OW 5637   2.015  14.113  12.626
34602SOL    HW1 5638   2.100  14.127  12.585
34602SOL    HW2 5639   2.030  14.042  12.689
34603SOL     OW 5640   6.070   5.097  14.792
34603SOL    HW1 5641   6.059   5.062  14.703
34603SOL    HW2 5642   6.130   5.035  14.834
34604SOL     OW 5643   1.526   9.702   8.369
34604SOL    HW1 5644   1.538   9.787   8.327
34604SOL    HW2 5645   1.453   9.716   8.430
34605SOL     OW 5646   3.890  14.089  10.029
34605SOL    HW1 5647   3.822  14.044  10.079
34605SOL    HW2 5648   3.860  14.179  10.023
34606SOL     OW 5649   3.762   1.249   2.083
34606SOL    HW1 5650   3.749   1.170   2.031
34606SOL    HW2 5651   3.674   1.284   2.095
34607SOL     OW 5652  10.266   8.186  10.096
34607SOL    HW1 5653  10.327   8.122  10.132
34607SOL    HW2 5654  10.298   8.270  10.129
34608SOL     OW 5655  14.485  13.452   8.944
34608SOL    HW1 5656  14.483  13.437   9.038
34608SOL    HW2 5657  14.410  13.402   8.910
34609SOL     OW 5658   7.661  14.521   0.317
34609SOL    HW1 5659   7.599  14.508   0.245
34609SOL    HW2 5660   7.739  14.473   0.290
34610SOL     OW 5661   9.533   4.466   4.689
34610SOL    HW1 5662   9.459   4.522   4.713
34610SOL    HW2 5663   9.599   4.483   4.756
34611SOL     OW 5664  12.629   4.597  13.442
34611SOL    HW1 5665  12.592   4.517  13.480
34611SOL    HW2 5666  12.641   4.655  13.516
34612SOL     OW 5667   2.936   2.010   2.146
34612SOL    HW1 5668   3.029   1.998   2.124
34612SOL    HW2 5669   2.925   2.105   2.151
34613SOL     OW 5670   3.700   7.120   8.826
34613SOL    HW1 5671   3.693   7.036   8.872
34613SOL    HW2 5672   3.782   7.158   8.857
34614SOL     OW 5673   3.256   3.165   2.136
34614SOL    HW1 5674   3.289   3.091   2.085
34614SOL    HW2 5675   3.173   3.134   2.172
34615SOL     OW 5676   8.091   3.463  12.391
34615SOL    HW1 5677   8.126   3.524  12.326
34615SOL    HW2 5678   8.030   3.409  12.342
34616SOL     OW 5679   2.606   6.409   4.652
34616SOL    HW1 5680   2.565   6.483   4.608
34616SOL    HW2 5681   2.536   6.345   4.665
34617SOL     OW 5682  10.381   7.615   9.410
34617SOL    HW1 5683  10.417   7.526   9.413
34617SOL    HW2 5684  10.450   7.670   9.448
34618SOL     OW 5685  11.204   4.873  12.926
34618SOL    HW1 5686  11.281   4.925  12.948
34618SOL    HW2 5687  11.132   4.937  12.924
34619SOL     OW 5688   6.018   3.926  12.192
34619SOL    HW1 5689   6.058   3.947  12.108
34619SOL    HW2 5690   5.935   3.974  12.192
34620SOL     OW 5691   2.666  10.670   7.516
34620SOL    HW1 5692   2.737  10.667   7.453
34620SOL    HW2 5693   2.647  10.579   7.537
34621SOL     OW 5694   3.276   0.049   4.632
34621SOL    HW1 5695   3.340  14.860   4.633
34621SOL    HW2 5696   3.219   0.029   4.558
34622SOL     OW 5697   6.037   0.203   3.201
34622SOL    HW1 5698   6.024   0.108   3.194
34622SOL    HW2 5699   6.125   0.218   3.166
34623SOL     OW 5700   7.237   2.741   0.843
34623SOL    HW1 5701   7.241   2.832   0.813
34623SOL    HW2 5702   7.300   2.736   0.914
34624SOL     OW 5703   4.787   3.176   2.430
34624SOL    HW1 5704   4.808   3.266   2.405
34624SOL    HW2 5705   4.721   3.148   2.367
34625SOL     OW 5706  11.999   7.241   9.750
34625SOL    HW1 5707  12.088   7.223   9.721
34625SOL    HW2 5708  11.948   7.246   9.668
34626SOL     OW 5709   3.484  10.669   2.914
34626SOL    HW1 5710   3.442  10.753   2.895
34626SOL    HW2 5711   3.527  10.683   2.998
34627SOL     OW 5712   6.259  12.923  10.330
34627SOL    HW1 5713   6.255  13.012  10.365
34627SOL    HW2 5714   6.317  12.876  10.390
34628SOL     OW 5715   0.682   2.339   1.755
34628SOL    HW1 5716   0.610   2.323   1.694
34628SOL    HW2 5717   0.739   2.263   1.745
34629SOL     OW 5718   0.535   4.070   9.316
34629SOL    HW1 5719   0.455   4.117   9.292
34629SOL    HW2 5720   0.596   4.089   9.244
34630SOL     OW 5721   4.177   4.759  11.620
34630SOL    HW1 5722   4.172   4.797  11.707
34630SOL    HW2 5723   4.271   4.761  11.598
34631SOL     OW 5724   8.684   9.892   5.780
34631SOL    HW1 5725   8.646   9.880   5.868
34631SOL    HW2 5726   8.747   9.963   5.792
34632SOL     OW 5727   7.010   7.787  11.028
34632SOL    HW1 5728   6.943   7.747  10.972
34632SOL    HW2 5729   7.013   7.878  11.001
34633SOL     OW 5730   6.751  13.262  13.830
34633SOL    HW1 5731   6.722  13.177  13.863
34633SOL    HW2 5732   6.700  13.275  13.750
34634SOL     OW 5733   5.672  12.128   3.326
34634SOL    HW1 5734   5.598  12.189   3.335
34634SOL    HW2 5735   5.708  12.147   3.239
34635SOL     OW 5736   6.391   4.059   2.201
34635SOL    HW1 5737   6.403   3.978   2.151
34635SOL    HW2 5738   6.440   4.125   2.151
34636SOL     OW 5739   1.295   1.004  13.190
34636SOL    HW1 5740   1.359   1.029  13.256
34636SOL    HW2 5741   1.247   1.085  13.171
34637SOL     OW 5742   0.844  12.361   4.815
34637SOL    HW1 5743   0.880  12.450   4.822
34637SOL    HW2 5744   0.749  12.373   4.822
34638SOL     OW 5745  13.174   4.296   8.099
34638SOL    HW1 5746  13.092   4.324   8.139
34638SOL    HW2 5747  13.155   4.212   8.059
34639SOL     OW 5748   6.095   6.706  12.404
34639SOL    HW1 5749   6.113   6.738  12.316
34639SOL    HW2 5750   6.094   6.610  12.395
34640SOL     OW 5751   6.458  11.884  14.735
34640SOL    HW1 5752   6.366  11.858  14.730
34640SOL    HW2 5753   6.500  11.815  14.786
34641SOL     OW 5754   0.243  14.137   1.484
34641SOL    HW1 5755   0.273  14.068   1.425
34641SOL    HW2 5756   0.176  14.096   1.538
34642SOL     OW 5757  12.318  12.252  11.439
34642SOL    HW1 5758  12.346  12.161  11.426
34642SOL    HW2 5759  12.398  12.298  11.463
34643SOL     OW 5760   7.147   3.148  13.214
34643SOL    HW1 5761   7.084   3.219  13.230
34643SOL    HW2 5762   7.118   3.109  13.131
34644SOL     OW 5763   1.370  10.106  11.799
34644SOL    HW1 5764   1.375  10.185  11.744
34644SOL    HW2 5765   1.420  10.040  11.751
34645SOL     OW 5766   8.592   4.106  12.377
34645SOL    HW1 5767   8.521   4.156  12.418
34645SOL    HW2 5768   8.655   4.091  12.448
34646SOL     OW 5769  12.077  12.519  12.743
34646SOL    HW1 5770  12.033  12.495  12.824
34646SOL    HW2 5771  12.057  12.612  12.731
34647SOL     OW 5772  11.814  11.580   6.040
34647SOL    HW1 5773  11.789  11.497   6.079
34647SOL    HW2 5774  11.778  11.646   6.098
34648SOL     OW 5775   8.361  12.062   4.150
34648SOL    HW1 5776   8.449  12.076   4.114
34648SOL    HW2 5777   8.302  12.085   4.079
34649SOL     OW 5778   5.353  14.508  14.701
34649SOL    HW1 5779   5.265  14.506  14.739
34649SOL    HW2 5780   5.385  14.418  14.710
34650SOL     OW 5781  10.675   0.526  13.310
34650SOL    HW1 5782  10.701   0.587  13.241
34650SOL    HW2 5783  10.644   0.581  13.381
34651SOL     OW 5784   4.588   1.670  14.870
34651SOL    HW1 5785   4.572   1.578   0.009
34651SOL    HW2 5786   4.501   1.707  14.855
34652SOL     OW 5787  14.846   9.847   9.862
34652SOL    HW1 5788  14.813   9.840   9.951
34652SOL    HW2 5789   0.041   9.791   9.859
34653SOL     OW 5790   9.004   2.723  13.173
34653SOL    HW1 5791   8.944   2.764  13.111
34653SOL    HW2 5792   8.976   2.755  13.259
34654SOL     OW 5793  13.757   2.180   4.493
34654SOL    HW1 5794  13.725   2.226   4.415
34654SOL    HW2 5795  13.678   2.161   4.544
34655SOL     OW 5796   4.886   8.095   0.496
34655SOL    HW1 5797   4.972   8.076   0.458
34655SOL    HW2 5798   4.825   8.088   0.423
34656SOL     OW 5799   4.919   9.606  13.993
34656SOL    HW1 5800   4.919   9.578  14.085
34656SOL    HW2 5801   4.979   9.680  13.991
34657SOL     OW 5802  10.666   7.274  10.936
34657SOL    HW1 5803  10.670   7.368  10.919
34657SOL    HW2 5804  10.606   7.240  10.870
34658SOL     OW 5805  11.860   1.188   8.866
34658SOL    HW1 5806  11.875   1.194   8.772
34658SOL    HW2 5807  11.797   1.258   8.885
34659SOL     OW 5808   3.670  14.391  10.520
34659SOL    HW1 5809   3.723  14.420  10.446
34659SOL    HW2 5810   3.644  14.472  10.564
34660SOL     OW 5811   2.274   8.367  13.232
34660SOL    HW1 5812   2.354   8.392  13.278
34660SOL    HW2 5813   2.278   8.415  13.148
34661SOL     OW 5814   7.294  13.149   1.733
34661SOL    HW1 5815   7.322  13.200   1.657
34661SOL    HW2 5816   7.199  13.157   1.734
34662SOL     OW 5817   6.274   2.254  14.230
34662SOL    HW1 5818   6.340   2.316  14.264
34662SOL    HW2 5819   6.326   2.183  14.192
34663SOL     OW 5820  11.716   1.568   4.207
34663SOL    HW1 5821  11.801   1.580   4.165
34663SOL    HW2 5822  11.679   1.657   4.211
34664SOL     OW 5823   8.510   2.636   2.149
34664SOL    HW1 5824   8.537   2.547   2.174
34664SOL    HW2 5825   8.582   2.692   2.178
34665SOL     OW 5826   8.964   3.046  12.227
34665SOL    HW1 5827   8.957   3.106  12.153
34665SOL    HW2 5828   9.031   2.983  12.200
34666SOL     OW 5829  13.115   0.803   9.311
34666SOL    HW1 5830  13.139   0.877   9.367
34666SOL    HW2 5831  13.042   0.761   9.357
34667SOL     OW 5832  10.311   4.133   7.456
34667SOL    HW1 5833  10.304   4.213   7.508
34667SOL    HW2 5834  10.254   4.070   7.501
34668SOL     OW 5835   7.901  14.778   6.489
34668SOL    HW1 5836   7.870  14.736   6.409
34668SOL    HW2 5837   7.948  14.709   6.537
34669SOL     OW 5838  12.297  12.026  10.908
34669SOL    HW1 5839  12.245  12.070  10.975
34669SOL    HW2 5840  12.287  12.081  10.830
34670SOL     OW 5841  13.236   4.193  12.144
34670SOL    HW1 5842  13.273   4.104  12.150
34670SOL    HW2 5843  13.256   4.221  12.055
34671SOL     OW 5844   3.121   0.727  10.143
34671SOL    HW1 5845   3.169   0.809  10.154
34671SOL    HW2 5846   3.181   0.660  10.177
34672SOL     OW 5847   2.733   7.335   3.995
34672SOL    HW1 5848   2.795   7.408   3.994
34672SOL    HW2 5849   2.786   7.258   3.972
34673SOL     OW 5850   4.188   7.779   3.102
34673SOL    HW1 5851   4.100   7.802   3.071
34673SOL    HW2 5852   4.247   7.819   3.038
34674SOL     OW 5853   9.663   5.854   6.579
34674SOL    HW1 5854   9.684   5.872   6.670
34674SOL    HW2 5855   9.584   5.904   6.561
34675SOL     OW 5856   4.692   8.055   2.989
34675SOL    HW1 5857   4.733   8.136   3.020
34675SOL    HW2 5858   4.759   8.013   2.935
34676SOL     OW 5859   0.534   0.765  10.199
34676SOL    HW1 5860   0.438   0.764  10.201
34676SOL    HW2 5861   0.559   0.672  10.203
34677SOL     OW 5862  10.745   7.228   7.900
34677SOL    HW1 5863  10.771   7.203   7.812
34677SOL    HW2 5864  10.679   7.163   7.925
34678SOL     OW 5865  10.639   5.543  11.126
34678SOL    HW1 5866  10.607   5.496  11.203
34678SOL    HW2 5867  10.683   5.475  11.073
34679SOL     OW 5868   8.005  14.109   8.967
34679SOL    HW1 5869   8.022  14.017   8.984
34679SOL    HW2 5870   7.958  14.110   8.883
34680SOL     OW 5871   4.698  12.956  10.676
34680SOL    HW1 5872   4.691  12.953  10.581
34680SOL    HW2 5873   4.632  12.894  10.707
34681SOL     OW 5874  11.194   3.876   5.313
34681SOL    HW1 5875  11.266   3.817   5.335
34681SOL    HW2 5876  11.119   3.819   5.298
34682SOL     OW 5877  10.060   4.389   9.424
34682SOL    HW1 5878  10.106   4.322   9.474
34682SOL    HW2 5879   9.984   4.343   9.386
34683SOL     OW 5880   2.385  11.361   0.536
34683SOL    HW1 5881   2.358  11.374   0.445
34683SOL    HW2 5882   2.423  11.445   0.562
34684SOL     OW 5883   4.542   6.632   6.358
34684SOL    HW1 5884   4.503   6.629   6.270
34684SOL    HW2 5885   4.538   6.542   6.389
34685SOL     OW 5886   8.891  13.351  12.456
34685SOL    HW1 5887   8.837  13.274  12.477
34685SOL    HW2 5888   8.978  13.314  12.441
34686SOL     OW 5889   9.765   3.828   4.131
34686SOL    HW1 5890   9.693   3.861   4.076
34686SOL    HW2 5891   9.805   3.760   4.078
34687SOL     OW 5892  14.667   0.335   2.847
34687SOL    HW1 5893  14.688   0.324   2.940
34687SOL    HW2 5894  14.685   0.427   2.829
34688SOL     OW 5895  10.016   4.279   5.178
34688SOL    HW1 5896   9.923   4.298   5.181
34688SOL    HW2 5897  10.058   4.364   5.164
34689SOL     OW 5898   7.694   1.979   8.226
34689SOL    HW1 5899   7.734   1.952   8.308
34689SOL    HW2 5900   7.619   2.033   8.252
34690SOL     OW 5901   5.115  13.577   9.218
34690SOL    HW1 5902   5.080  13.611   9.300
34690SOL    HW2 5903   5.092  13.643   9.153
34691SOL     OW 5904   9.979  14.303  11.715
34691SOL    HW1 5905   9.957  14.393  11.739
34691SOL    HW2 5906   9.921  14.284  11.641
34692SOL     OW 5907   9.938   0.917   7.276
34692SOL    HW1 5908   9.916   0.997   7.229
34692SOL    HW2 5909   9.860   0.862   7.267
34693SOL     OW 5910   2.084  10.781   1.717
34693SOL    HW1 5911   2.168  10.796   1.674
34693SOL    HW2 5912   2.060  10.866   1.754
34694SOL     OW 5913   6.138  13.964   3.630
34694SOL    HW1 5914   6.209  14.019   3.664
34694SOL    HW2 5915   6.079  14.026   3.588
34695SOL     OW 5916  13.468   2.528   0.253
34695SOL    HW1 5917  13.481   2.578   0.173
34695SOL    HW2 5918  13.428   2.590   0.314
34696SOL     OW 5919   2.655   7.051   3.057
34696SOL    HW1 5920   2.723   7.059   3.124
34696SOL    HW2 5921   2.637   6.957   3.051
34697SOL     OW 5922   8.443  13.980   1.307
34697SOL    HW1 5923   8.379  13.981   1.378
34697SOL    HW2 5924   8.526  14.004   1.350
34698SOL     OW 5925   8.865   2.566  14.163
34698SOL    HW1 5926   8.817   2.607  14.235
34698SOL    HW2 5927   8.954   2.603  14.170
34699SOL     OW 5928   4.692   3.827   8.647
34699SOL    HW1 5929   4.600   3.847   8.635
34699SOL    HW2 5930   4.738   3.895   8.598
34700SOL     OW 5931  13.382   2.969  10.459
34700SOL    HW1 5932  13.300   2.921  10.470
34700SOL    HW2 5933  13.374   3.043  10.519
34701SOL     OW 5934  12.697   5.084   7.350
34701SOL    HW1 5935  12.672   5.040   7.269
34701SOL    HW2 5936  12.778   5.042   7.377
34702SOL     OW 5937   1.071   1.682  10.890
34702SOL    HW1 5938   1.053   1.588  10.896
34702SOL    HW2 5939   1.047   1.716  10.976
34703SOL     OW 5940   2.798  11.462   7.308
34703SOL    HW1 5941   2.732  11.434   7.245
34703SOL    HW2 5942   2.807  11.388   7.369
34704SOL     OW 5943   3.878   3.599   0.201
34704SOL    HW1 5944   3.953   3.583   0.258
34704SOL    HW2 5945   3.850   3.512   0.172
34705SOL     OW 5946   6.412   5.421   8.610
34705SOL    HW1 5947   6.320   5.421   8.584
34705SOL    HW2 5948   6.453   5.353   8.557
34706SOL     OW 5949   6.360   5.617  11.517
34706SOL    HW1 5950   6.421   5.641  11.447
34706SOL    HW2 5951   6.343   5.524  11.504
34707SOL     OW 5952   7.124   7.875  12.019
34707SOL    HW1 5953   7.215   7.846  12.017
34707SOL    HW2 5954   7.074   7.801  11.983
34708SOL     OW 5955   2.568   6.103   7.921
34708SOL    HW1 5956   2.618   6.180   7.896
34708SOL    HW2 5957   2.549   6.115   8.014
34709SOL     OW 5958  14.477   1.858  11.324
34709SOL    HW1 5959  14.453   1.887  11.235
34709SOL    HW2 5960  14.534   1.928  11.357
34710SOL     OW 5961  11.903   9.566   0.423
34710SOL    HW1 5962  11.989   9.525   0.409
34710SOL    HW2 5963  11.847   9.495   0.454
34711SOL     OW 5964  14.695  12.310  12.312
34711SOL    HW1 5965  14.610  12.333  12.277
34711SOL    HW2 5966  14.715  12.379  12.376
34712SOL     OW 5967   0.592   6.150  13.240
34712SOL    HW1 5968   0.560   6.241  13.236
34712SOL    HW2 5969   0.625   6.133  13.152
34713SOL     OW 5970   4.935   5.322  10.707
34713SOL    HW1 5971   4.992   5.262  10.661
34713SOL    HW2 5972   4.989   5.360  10.776
34714SOL     OW 5973  13.655   0.042  14.605
34714SOL    HW1 5974  13.640  14.829  14.607
34714SOL    HW2 5975  13.739   0.052  14.560
34715SOL     OW 5976   0.300   9.920   3.195
34715SOL    HW1 5977   0.358   9.932   3.271
34715SOL    HW2 5978   0.358   9.889   3.125
34716SOL     OW 5979  13.677   5.945  10.804
34716SOL    HW1 5980  13.668   5.860  10.760
34716SOL    HW2 5981  13.765   5.974  10.780
34717SOL     OW 5982  11.484   3.813  10.878
34717SOL    HW1 5983  11.570   3.790  10.843
34717SOL    HW2 5984  11.425   3.745  10.845
34718SOL     OW 5985  13.191  11.557   5.368
34718SOL    HW1 5986  13.157  11.646   5.375
34718SOL    HW2 5987  13.268  11.565   5.311
34719SOL     OW 5988   2.834  12.635  10.857
34719SOL    HW1 5989   2.764  12.686  10.899
34719SOL    HW2 5990   2.817  12.545  10.886
34720SOL     OW 5991   8.593  13.219  10.364
34720SOL    HW1 5992   8.538  13.246  10.290
34720SOL    HW2 5993   8.623  13.301  10.402
34721SOL     OW 5994  14.620   2.228   1.952
34721SOL    HW1 5995  14.528   2.248   1.933
34721SOL    HW2 5996  14.628   2.133   1.938
34722SOL     OW 5997   0.234  14.160  10.060
34722SOL    HW1 5998   0.223  14.237  10.116
34722SOL    HW2 5999   0.262  14.195   9.976
34723SOL     OW 6000   2.331   9.300  10.955
34723SOL    HW1 6001   2.369   9.219  10.986
34723SOL    HW2 6002   2.404   9.362  10.952
34724SOL     OW 6003   5.961   7.935   6.608
34724SOL    HW1 6004   5.923   7.853   6.639
34724SOL    HW2 6005   5.945   7.934   6.514
34725SOL     OW 6006  12.864   5.190  12.866
34725SOL    HW1 6007  12.788   5.177  12.809
34725SOL    HW2 6008  12.936   5.209  12.806
34726SOL     OW 6009   9.853  13.126  12.453
34726SOL    HW1 6010   9.782  13.174  12.408
34726SOL    HW2 6011   9.808  13.055  12.498
34727SOL     OW 6012   3.544   0.203   3.103
34727SOL    HW1 6013   3.607   0.158   3.159
34727SOL    HW2 6014   3.510   0.275   3.157
34728SOL     OW 6015   9.673   4.364  11.536
34728SOL    HW1 6016   9.607   4.295  11.543
34728SOL    HW2 6017   9.665   4.395  11.446
34729SOL     OW 6018   3.769   5.401  14.330
34729SOL    HW1 6019   3.698   5.432  14.386
34729SOL    HW2 6020   3.834   5.367  14.392
34730SOL     OW 6021  10.286   8.936   3.362
34730SOL    HW1 6022  10.356   8.878   3.390
34730SOL    HW2 6023  10.249   8.972   3.443
34731SOL     OW 6024  13.514  11.993   3.497
34731SOL    HW1 6025  13.475  12.072   3.460
34731SOL    HW2 6026  13.459  11.972   3.573
34732SOL     OW 6027   2.422   5.233   0.614
34732SOL    HW1 6028   2.348   5.250   0.556
34732SOL    HW2 6029   2.398   5.275   0.697
34733SOL     OW 6030   6.219   8.760  14.860
34733SOL    HW1 6031   6.137   8.799   0.007
34733SOL    HW2 6032   6.246   8.814  14.785
34734SOL     OW 6033   1.771   7.614   7.806
34734SOL    HW1 6034   1.837   7.656   7.861
34734SOL    HW2 6035   1.690   7.662   7.825
34735SOL     OW 6036   9.783   0.706   9.053
34735SOL    HW1 6037   9.735   0.634   9.013
34735SOL    HW2 6038   9.719   0.778   9.058
34736SOL     OW 6039   4.510  13.876  13.685
34736SOL    HW1 6040   4.556  13.914  13.610
34736SOL    HW2 6041   4.481  13.790  13.654
34737SOL     OW 6042   4.568   9.714   1.402
34737SOL    HW1 6043   4.523   9.797   1.387
34737SOL    HW2 6044   4.660   9.737   1.408
34738SOL     OW 6045  11.827   0.601   0.590
34738SOL    HW1 6046  11.758   0.605   0.525
34738SOL    HW2 6047  11.890   0.538   0.554
34739SOL     OW 6048   2.221  13.353  14.624
34739SOL    HW1 6049   2.259  13.382  14.542
34739SOL    HW2 6050   2.295  13.346  14.684
34740SOL     OW 6051   7.993  13.128   6.798
34740SOL    HW1 6052   7.967  13.168   6.882
34740SOL    HW2 6053   8.050  13.193   6.758
34741SOL     OW 6054   5.060   4.387  14.475
34741SOL    HW1 6055   4.983   4.337  14.449
34741SOL    HW2 6056   5.132   4.349  14.424
34742SOL     OW 6057   6.439   2.742   5.371
34742SOL    HW1 6058   6.470   2.795   5.297
34742SOL    HW2 6059   6.367   2.691   5.334
34743SOL     OW 6060   9.794   3.872   4.768
34743SOL    HW1 6061   9.876   3.867   4.719
34743SOL    HW2 6062   9.816   3.924   4.846
34744SOL     OW 6063   5.260  11.378   9.984
34744SOL    HW1 6064   5.246  11.434   9.908
34744SOL    HW2 6065   5.174  11.341  10.003
34745SOL     OW 6066   9.809   5.676   5.429
34745SOL    HW1 6067   9.758   5.702   5.506
34745SOL    HW2 6068   9.844   5.758   5.394
34746SOL     OW 6069   7.686  14.604  13.599
34746SOL    HW1 6070   7.715  14.633  13.685
34746SOL    HW2 6071   7.764  14.611  13.544
34747SOL     OW 6072  11.449   0.994   6.763
34747SOL    HW1 6073  11.425   0.937   6.836
34747SOL    HW2 6074  11.391   1.069   6.771
34748SOL     OW 6075   9.444   9.608   2.890
34748SOL    HW1 6076   9.486   9.606   2.976
34748SOL    HW2 6077   9.359   9.649   2.906
34749SOL     OW 6078   1.388   9.780   1.087
34749SOL    HW1 6079   1.477   9.765   1.057
34749SOL    HW2 6080   1.333   9.736   1.021
34750SOL     OW 6081   1.327  13.263   4.862
34750SOL    HW1 6082   1.397  13.260   4.796
34750SOL    HW2 6083   1.247  13.277   4.811
34751SOL     OW 6084   8.713  13.853   2.672
34751SOL    HW1 6085   8.764  13.837   2.593
34751SOL    HW2 6086   8.688  13.766   2.702
34752SOL     OW 6087   9.645   5.039  11.290
34752SOL    HW1 6088   9.611   5.117  11.245
34752SOL    HW2 6089   9.610   5.045  11.379
34753SOL     OW 6090  14.240   9.955   5.517
34753SOL    HW1 6091  14.308  10.011   5.555
34753SOL    HW2 6092  14.161   9.976   5.567
34754SOL     OW 6093  12.600   0.710   7.818
34754SOL    HW1 6094  12.526   0.681   7.870
34754SOL    HW2 6095  12.663   0.637   7.823
34755SOL     OW 6096  14.211   0.649   4.933
34755SOL    HW1 6097  14.177   0.578   4.988
34755SOL    HW2 6098  14.135   0.704   4.917
34756SOL     OW 6099  12.082   0.713   6.993
34756SOL    HW1 6100  12.045   0.696   6.906
34756SOL    HW2 6101  12.171   0.678   6.987
34757SOL     OW 6102   0.325   4.387   8.619
34757SOL    HW1 6103   0.391   4.334   8.575
34757SOL    HW2 6104   0.333   4.474   8.580
34758SOL     OW 6105   1.458   5.007  13.220
34758SOL    HW1 6106   1.415   5.089  13.197
34758SOL    HW2 6107   1.538   5.034  13.265
34759SOL     OW 6108   6.387   8.224   0.490
34759SOL    HW1 6109   6.413   8.152   0.548
34759SOL    HW2 6110   6.452   8.292   0.506
34760SOL     OW 6111   9.855   5.395  12.769
34760SOL    HW1 6112   9.915   5.351  12.829
34760SOL    HW2 6113   9.774   5.406  12.818
34761SOL     OW 6114   4.242   5.469  14.262
34761SOL    HW1 6115   4.316   5.529  14.260
34761SOL    HW2 6116   4.227   5.446  14.170
34762SOL     OW 6117   9.205   1.627   9.508
34762SOL    HW1 6118   9.203   1.721   9.525
34762SOL    HW2 6119   9.180   1.618   9.416
34763SOL     OW 6120   2.527  12.313  11.724
34763SOL    HW1 6121   2.531  12.219  11.709
34763SOL    HW2 6122   2.457  12.344  11.666
34764SOL     OW 6123   7.897   1.135  13.540
34764SOL    HW1 6124   7.893   1.058  13.597
34764SOL    HW2 6125   7.839   1.114  13.468
34765SOL     OW 6126   7.765   4.333   9.890
34765SOL    HW1 6127   7.839   4.309   9.945
34765SOL    HW2 6128   7.701   4.370   9.951
34766SOL     OW 6129   2.557   7.731  11.772
34766SOL    HW1 6130   2.647   7.757  11.754
34766SOL    HW2 6131   2.556   7.636  11.758
34767SOL     OW 6132  10.126  12.213   5.707
34767SOL    HW1 6133  10.159  12.261   5.783
34767SOL    HW2 6134  10.057  12.157   5.741
34768SOL     OW 6135   0.395   5.133  12.221
34768SOL    HW1 6136   0.340   5.061  12.192
34768SOL    HW2 6137   0.449   5.156  12.145
34769SOL     OW 6138   0.128  14.687   5.582
34769SOL    HW1 6139   0.078  14.731   5.651
34769SOL    HW2 6140   0.217  14.683   5.615
34770SOL     OW 6141   4.003   3.716   4.145
34770SOL    HW1 6142   3.908   3.719   4.129
34770SOL    HW2 6143   4.013   3.656   4.219
34771SOL     OW 6144   2.290   7.302   3.473
34771SOL    HW1 6145   2.292   7.229   3.412
34771SOL    HW2 6146   2.362   7.359   3.446
34772SOL     OW 6147  11.797   8.204   1.007
34772SOL    HW1 6148  11.869   8.195   1.068
34772SOL    HW2 6149  11.792   8.119   0.963
34773SOL     OW 6150   2.993   6.944  11.363
34773SOL    HW1 6151   3.057   6.875  11.347
34773SOL    HW2 6152   2.972   6.936  11.456
34774SOL     OW 6153   6.321  13.387   8.531
34774SOL    HW1 6154   6.409  13.374   8.495
34774SOL    HW2 6155   6.282  13.453   8.474
34775SOL     OW 6156   5.623  12.631  10.671
34775SOL    HW1 6157   5.551  12.644  10.732
34775SOL    HW2 6158   5.676  12.710  10.678
34776SOL     OW 6159  10.036   8.689   8.458
34776SOL    HW1 6160  10.051   8.654   8.546
34776SOL    HW2 6161  10.100   8.760   8.450
34777SOL     OW 6162  10.185  12.431  11.988
34777SOL    HW1 6163  10.146  12.430  12.076
34777SOL    HW2 6164  10.179  12.341  11.958
34778SOL     OW 6165   1.362   8.968   8.354
34778SOL    HW1 6166   1.390   9.003   8.439
34778SOL    HW2 6167   1.354   9.046   8.298
34779SOL     OW 6168   4.704   1.649  12.010
34779SOL    HW1 6169   4.610   1.630  12.008
34779SOL    HW2 6170   4.712   1.729  12.061
34780SOL     OW 6171   2.296   9.269   8.952
34780SOL    HW1 6172   2.289   9.267   9.047
34780SOL    HW2 6173   2.389   9.256   8.934
34781SOL     OW 6174  12.607  11.099   9.506
34781SOL    HW1 6175  12.569  11.024   9.551
34781SOL    HW2 6176  12.665  11.139   9.571
34782SOL     OW 6177  11.507   9.046   2.536
34782SOL    HW1 6178  11.475   9.022   2.623
34782SOL    HW2 6179  11.577   8.984   2.518
34783SOL     OW 6180  11.757   9.637   6.656
34783SOL    HW1 6181  11.760   9.615   6.750
34783SOL    HW2 6182  11.843   9.614   6.623
34784SOL     OW 6183  10.708   0.906  12.486
34784SOL    HW1 6184  10.716   0.852  12.408
34784SOL    HW2 6185  10.798   0.923  12.513
34785SOL     OW 6186  11.533   3.890   8.460
34785SOL    HW1 6187  11.474   3.834   8.512
34785SOL    HW2 6188  11.621   3.861   8.485
34786SOL     OW 6189   7.574   5.314  12.007
34786SOL    HW1 6190   7.650   5.354  11.963
34786SOL    HW2 6191   7.562   5.231  11.961
34787SOL     OW 6192   5.291   8.445  12.203
34787SOL    HW1 6193   5.238   8.369  12.179
34787SOL    HW2 6194   5.303   8.492  12.121
34788SOL     OW 6195   6.107  14.843  11.616
34788SOL    HW1 6196   6.176  14.833  11.681
34788SOL    HW2 6197   6.067  14.756  11.610
34789SOL     OW 6198   1.555  14.768   2.701
34789SOL    HW1 6199   1.485  14.720   2.747
34789SOL    HW2 6200   1.518  14.856   2.687
34790SOL     OW 6201   5.178   8.152   0.241
34790SOL    HW1 6202   5.273   8.152   0.246
34790SOL    HW2 6203   5.156   8.235   0.198
34791SOL     OW 6204   1.148  13.871   9.893
34791SOL    HW1 6205   1.062  13.911   9.892
34791SOL    HW2 6206   1.149  13.813   9.817
34792SOL     OW 6207  14.313   2.951   9.481
34792SOL    HW1 6208  14.377   3.018   9.505
34792SOL    HW2 6209  14.230   2.997   9.478
34793SOL     OW 6210  11.158  12.724   2.869
34793SOL    HW1 6211  11.072  12.717   2.911
34793SOL    HW2 6212  11.205  12.788   2.923
34794SOL     OW 6213   1.287  14.548   6.057
34794SOL    HW1 6214   1.345  14.501   5.996
34794SOL    HW2 6215   1.199  14.518   6.034
34795SOL     OW 6216  11.921  11.969   0.356
34795SOL    HW1 6217  11.844  12.010   0.395
34795SOL    HW2 6218  11.943  11.898   0.417
34796SOL     OW 6219   8.805   2.951   9.781
34796SOL    HW1 6220   8.811   2.970   9.687
34796SOL    HW2 6221   8.712   2.937   9.797
34797SOL     OW 6222  10.924   0.467  14.757
34797SOL    HW1 6223  10.940   0.541  14.700
34797SOL    HW2 6224  10.984   0.480  14.831
34798SOL     OW 6225  11.284  14.486  10.992
34798SOL    HW1 6226  11.292  14.552  11.062
34798SOL    HW2 6227  11.245  14.410  11.035
34799SOL     OW 6228   0.784  11.324  12.284
34799SOL    HW1 6229   0.696  11.288  12.287
34799SOL    HW2 6230   0.842  11.249  12.299
34800SOL     OW 6231   5.243   3.379   5.071
34800SOL    HW1 6232   5.257   3.397   4.978
34800SOL    HW2 6233   5.309   3.434   5.115
34801SOL     OW 6234  12.800   8.608   1.842
34801SOL    HW1 6235  12.888   8.622   1.808
34801SOL    HW2 6236  12.805   8.526   1.891
34802SOL     OW 6237   6.153   9.633  12.973
34802SOL    HW1 6238   6.211   9.650  13.047
34802SOL    HW2 6239   6.066   9.655  13.006
34803SOL     OW 6240   2.569   1.571   0.920
34803SOL    HW1 6241   2.591   1.511   0.992
34803SOL    HW2 6242   2.631   1.643   0.930
34804SOL     OW 6243   2.930   6.080   8.038
34804SOL    HW1 6244   2.943   6.056   7.947
34804SOL    HW2 6245   2.979   6.162   8.049
34805SOL     OW 6246   5.360  10.757   7.365
34805SOL    HW1 6247   5.382  10.796   7.281
34805SOL    HW2 6248   5.437  10.773   7.420
34806SOL     OW 6249  14.853  13.843   9.126
34806SOL    HW1 6250   0.045  13.791   9.096
34806SOL    HW2 6251  14.776  13.803   9.085
34807SOL     OW 6252   9.503  11.475   5.597
34807SOL    HW1 6253   9.472  11.396   5.552
34807SOL    HW2 6254   9.454  11.476   5.679
34808SOL     OW 6255   2.063  10.450  12.192
34808SOL    HW1 6256   2.096  10.361  12.194
34808SOL    HW2 6257   2.117  10.495  12.127
34809SOL     OW 6258   9.871   0.798   1.488
34809SOL    HW1 6259   9.950   0.839   1.524
34809SOL    HW2 6260   9.805   0.867   1.491
34810SOL     OW 6261  13.619   9.963   6.126
34810SOL    HW1 6262  13.624   9.917   6.210
34810SOL    HW2 6263  13.632  10.055   6.147
34811SOL     OW 6264   3.117   6.131   4.046
34811SOL    HW1 6265   3.184   6.090   3.992
34811SOL    HW2 6266   3.072   6.059   4.088
34812SOL     OW 6267  11.767   8.134  14.249
34812SOL    HW1 6268  11.853   8.093  14.241
34812SOL    HW2 6269  11.718   8.104  14.172
34813SOL     OW 6270  13.675   2.589   6.098
34813SOL    HW1 6271  13.686   2.677   6.061
34813SOL    HW2 6272  13.583   2.585   6.124
34814SOL     OW 6273   8.143   5.821   4.829
34814SOL    HW1 6274   8.086   5.762   4.879
34814SOL    HW2 6275   8.137   5.905   4.875
34815SOL     OW 6276   0.881   5.570   8.057
34815SOL    HW1 6277   0.969   5.602   8.078
34815SOL    HW2 6278   0.825   5.607   8.125
34816SOL     OW 6279  14.576  13.126   1.543
34816SOL    HW1 6280  14.623  13.165   1.617
34816SOL    HW2 6281  14.490  13.103   1.579
34817SOL     OW 6282  12.119  14.312   6.389
34817SOL    HW1 6283  12.087  14.237   6.340
34817SOL    HW2 6284  12.213  14.295   6.401
34818SOL     OW 6285  13.740   4.402   9.847
34818SOL    HW1 6286  13.690   4.413   9.766
34818SOL    HW2 6287  13.735   4.308   9.866
34819SOL     OW 6288   2.522  14.360  14.481
34819SOL    HW1 6289   2.478  14.399  14.556
34819SOL    HW2 6290   2.478  14.276  14.467
34820SOL     OW 6291   6.432   8.291   7.829
34820SOL    HW1 6292   6.415   8.229   7.900
34820SOL    HW2 6293   6.395   8.250   7.751
34821SOL     OW 6294   8.817  11.564  13.559
34821SOL    HW1 6295   8.774  11.511  13.493
34821SOL    HW2 6296   8.748  11.584  13.623
34822SOL     OW 6297  12.485   5.174   5.712
34822SOL    HW1 6298  12.413   5.167   5.775
34822SOL    HW2 6299  12.488   5.088   5.670
34823SOL     OW 6300  12.299   5.837   4.009
34823SOL    HW1 6301  12.339   5.770   3.953
34823SOL    HW2 6302  12.359   5.847   4.082
34824SOL     OW 6303   7.724  14.042   8.812
34824SOL    HW1 6304   7.755  14.131   8.798
34824SOL    HW2 6305   7.682  14.045   8.898
34825SOL     OW 6306  13.213  11.913  11.460
34825SOL    HW1 6307  13.206  12.008  11.465
34825SOL    HW2 6308  13.248  11.896  11.372
34826SOL     OW 6309   2.249  11.837   6.250
34826SOL    HW1 6310   2.276  11.928   6.257
34826SOL    HW2 6311   2.273  11.799   6.335
34827SOL     OW 6312   2.728  13.108   5.451
34827SOL    HW1 6313   2.706  13.063   5.369
34827SOL    HW2 6314   2.789  13.178   5.424
34828SOL     OW 6315   5.258   2.432   8.918
34828SOL    HW1 6316   5.344   2.442   8.876
34828SOL    HW2 6317   5.277   2.391   9.002
34829SOL     OW 6318  12.046   9.981   3.497
34829SOL    HW1 6319  12.039   9.980   3.592
34829SOL    HW2 6320  12.107   9.909   3.477
34830SOL     OW 6321   8.712  10.863  12.063
34830SOL    HW1 6322   8.725  10.953  12.035
34830SOL    HW2 6323   8.796  10.839  12.103
34831SOL     OW 6324   1.750   0.879   8.199
34831SOL    HW1 6325   1.771   0.850   8.110
34831SOL    HW2 6326   1.753   0.974   8.194
34832SOL     OW 6327   6.478  11.356   8.847
34832SOL    HW1 6328   6.445  11.390   8.931
34832SOL    HW2 6329   6.533  11.282   8.872
34833SOL     OW 6330  13.729  10.144  12.942
34833SOL    HW1 6331  13.759  10.077  13.004
34833SOL    HW2 6332  13.806  10.165  12.890
34834SOL     OW 6333  10.911   7.416  10.309
34834SOL    HW1 6334  10.933   7.509  10.299
34834SOL    HW2 6335  10.941   7.394  10.398
34835SOL     OW 6336   4.843   8.309  13.575
34835SOL    HW1 6337   4.828   8.294  13.668
34835SOL    HW2 6338   4.929   8.353  13.572
34836SOL     OW 6339   9.263   2.076   3.957
34836SOL    HW1 6340   9.325   2.010   3.925
34836SOL    HW2 6341   9.255   2.139   3.886
34837SOL     OW 6342   2.842   5.394  13.319
34837SOL    HW1 6343   2.856   5.351  13.234
34837SOL    HW2 6344   2.892   5.475  13.314
34838SOL     OW 6345  11.999   7.224  10.251
34838SOL    HW1 6346  12.005   7.309  10.207
34838SOL    HW2 6347  11.921   7.184  10.214
34839SOL     OW 6348   1.020  12.852   1.061
34839SOL    HW1 6349   1.112  12.871   1.079
34839SOL    HW2 6350   1.007  12.763   1.092
34840SOL     OW 6351   4.345  10.479   1.352
34840SOL    HW1 6352   4.334  10.384   1.358
34840SOL    HW2 6353   4.431  10.491   1.312
34841SOL     OW 6354  10.071   9.287  12.449
34841SOL    HW1 6355  10.000   9.350  12.463
34841SOL    HW2 6356  10.035   9.204  12.481
34842SOL     OW 6357   8.182   2.584   0.717
34842SOL    HW1 6358   8.235   2.614   0.790
34842SOL    HW2 6359   8.097   2.564   0.756
34843SOL     OW 6360  13.686   7.879   3.394
34843SOL    HW1 6361  13.710   7.970   3.379
34843SOL    HW2 6362  13.654   7.876   3.484
34844SOL     OW 6363   6.220  10.155   1.553
34844SOL    HW1 6364   6.301  10.192   1.518
34844SOL    HW2 6365   6.222  10.063   1.527
34845SOL     OW 6366   1.523   6.097   5.325
34845SOL    HW1 6367   1.436   6.138   5.322
34845SOL    HW2 6368   1.552   6.110   5.415
34846SOL     OW 6369  13.764   1.259   8.907
34846SOL    HW1 6370  13.780   1.169   8.936
34846SOL    HW2 6371  13.668   1.269   8.912
34847SOL     OW 6372   4.610   2.488   9.696
34847SOL    HW1 6373   4.575   2.399   9.695
34847SOL    HW2 6374   4.677   2.488   9.627
34848SOL     OW 6375   6.349  10.558   0.045
34848SOL    HW1 6376   6.336  10.526  14.838
34848SOL    HW2 6377   6.268  10.603   0.067
34849SOL     OW 6378   8.419   2.730   8.429
34849SOL    HW1 6379   8.396   2.717   8.521
34849SOL    HW2 6380   8.389   2.650   8.386
34850SOL     OW 6381  11.614   0.614   1.329
34850SOL    HW1 6382  11.699   0.602   1.371
34850SOL    HW2 6383  11.628   0.585   1.239
34851SOL     OW 6384   6.891  13.813  10.519
34851SOL    HW1 6385   6.894  13.718  10.530
34851SOL    HW2 6386   6.876  13.825  10.425
34852SOL     OW 6387   8.681   2.146  14.397
34852SOL    HW1 6388   8.729   2.195  14.464
34852SOL    HW2 6389   8.660   2.212  14.331
34853SOL     OW 6390   3.650  11.396   4.404
34853SOL    HW1 6391   3.672  11.345   4.481
34853SOL    HW2 6392   3.626  11.331   4.338
34854SOL     OW 6393   9.369  14.293   5.226
34854SOL    HW1 6394   9.406  14.370   5.182
34854SOL    HW2 6395   9.441  14.258   5.278
34855SOL     OW 6396   9.458  11.059   2.440
34855SOL    HW1 6397   9.419  11.034   2.524
34855SOL    HW2 6398   9.542  11.099   2.464
34856SOL     OW 6399   9.877   7.527   7.778
34856SOL    HW1 6400   9.951   7.576   7.815
34856SOL    HW2 6401   9.800   7.561   7.824
34857SOL     OW 6402  14.023   9.128  10.468
34857SOL    HW1 6403  13.997   9.159  10.382
34857SOL    HW2 6404  14.078   9.198  10.503
34858SOL     OW 6405   9.327   5.813  12.566
34858SOL    HW1 6406   9.363   5.814  12.478
34858SOL    HW2 6407   9.246   5.762  12.559
34859SOL     OW 6408   2.798   4.791   7.085
34859SOL    HW1 6409   2.738   4.838   7.028
34859SOL    HW2 6410   2.756   4.793   7.171
34860SOL     OW 6411  13.145  12.589   4.599
34860SOL    HW1 6412  13.219  12.582   4.538
34860SOL    HW2 6413  13.138  12.501   4.637
34861SOL     OW 6414  12.154  12.200  13.487
34861SOL    HW1 6415  12.100  12.210  13.566
34861SOL    HW2 6416  12.220  12.269  13.494
34862SOL     OW 6417  14.700   3.271   7.543
34862SOL    HW1 6418  14.620   3.259   7.596
34862SOL    HW2 6419  14.720   3.183   7.511
34863SOL     OW 6420   0.309   1.214   5.288
34863SOL    HW1 6421   0.381   1.244   5.344
34863SOL    HW2 6422   0.349   1.201   5.202
34864SOL     OW 6423   6.190  13.157   8.644
34864SOL    HW1 6424   6.133  13.162   8.567
34864SOL    HW2 6425   6.244  13.236   8.640
34865SOL     OW 6426  10.243   4.842  13.213
34865SOL    HW1 6427  10.200   4.858  13.298
34865SOL    HW2 6428  10.231   4.748  13.199
34866SOL     OW 6429   5.227   1.402   0.763
34866SOL    HW1 6430   5.139   1.424   0.730
34866SOL    HW2 6431   5.249   1.321   0.716
34867SOL     OW 6432   0.595   3.687   9.310
34867SOL    HW1 6433   0.667   3.741   9.277
34867SOL    HW2 6434   0.549   3.658   9.231
34868SOL     OW 6435  12.067  13.534   2.001
34868SOL    HW1 6436  12.059  13.461   1.939
34868SOL    HW2 6437  12.148  13.578   1.977
34869SOL     OW 6438   2.353  14.370   1.909
34869SOL    HW1 6439   2.419  14.439   1.903
34869SOL    HW2 6440   2.271  14.416   1.925
34870SOL     OW 6441   7.733   1.380   5.533
34870SOL    HW1 6442   7.709   1.466   5.568
34870SOL    HW2 6443   7.651   1.332   5.527
34871SOL     OW 6444   0.940   6.393   8.758
34871SOL    HW1 6445   0.957   6.451   8.831
34871SOL    HW2 6446   0.849   6.367   8.767
34872SOL     OW 6447  14.020   9.032   7.446
34872SOL    HW1 6448  14.082   8.979   7.396
34872SOL    HW2 6449  13.955   9.060   7.382
34873SOL     OW 6450   4.940   6.367  13.985
34873SOL    HW1 6451   4.951   6.366  14.080
34873SOL    HW2 6452   4.906   6.280  13.964
34874SOL     OW 6453   7.310   6.965   7.267
34874SOL    HW1 6454   7.269   6.881   7.245
34874SOL    HW2 6455   7.317   7.011   7.184
34875SOL     OW 6456   9.817   9.504  13.438
34875SOL    HW1 6457   9.885   9.571  13.439
34875SOL    HW2 6458   9.843   9.445  13.367
34876SOL     OW 6459  13.280   1.692  13.845
34876SOL    HW1 6460  13.274   1.714  13.938
34876SOL    HW2 6461  13.340   1.618  13.842
34877SOL     OW 6462   6.218   3.924   4.754
34877SOL    HW1 6463   6.291   3.962   4.705
34877SOL    HW2 6464   6.172   4.000   4.792
34878SOL     OW 6465   9.163  13.799   3.710
34878SOL    HW1 6466   9.162  13.823   3.617
34878SOL    HW2 6467   9.071  13.785   3.732
34879SOL     OW 6468   4.753   3.614   4.324
34879SOL    HW1 6469   4.765   3.678   4.253
34879SOL    HW2 6470   4.815   3.545   4.304
34880SOL     OW 6471   4.874   9.897  14.748
34880SOL    HW1 6472   4.787   9.909  14.709
34880SOL    HW2 6473   4.911   9.985  14.751
34881SOL     OW 6474   9.815   6.939   5.421
34881SOL    HW1 6475   9.812   7.025   5.463
34881SOL    HW2 6476   9.902   6.906   5.440
34882SOL     OW 6477  12.407   3.637   7.291
34882SOL    HW1 6478  12.473   3.646   7.221
34882SOL    HW2 6479  12.427   3.552   7.331
34883SOL     OW 6480   6.107   3.265   6.718
34883SOL    HW1 6481   6.130   3.351   6.753
34883SOL    HW2 6482   6.061   3.284   6.636
34884SOL     OW 6483  11.359   9.807   2.694
34884SOL    HW1 6484  11.350   9.836   2.603
34884SOL    HW2 6485  11.359   9.888   2.745
34885SOL     OW 6486   7.521   9.786  10.856
34885SOL    HW1 6487   7.498   9.730  10.930
34885SOL    HW2 6488   7.555   9.867  10.896
34886SOL     OW 6489   6.221   2.638   7.745
34886SOL    HW1 6490   6.311   2.643   7.713
34886SOL    HW2 6491   6.228   2.654   7.839
34887SOL     OW 6492  10.612   5.452  11.423
34887SOL    HW1 6493  10.562   5.372  11.409
34887SOL    HW2 6494  10.698   5.422  11.453
34888SOL     OW 6495  11.957   9.210   0.760
34888SOL    HW1 6496  11.999   9.285   0.719
34888SOL    HW2 6497  12.007   9.135   0.729
34889SOL     OW 6498   5.541  10.624  10.011
34889SOL    HW1 6499   5.589  10.673   9.944
34889SOL    HW2 6500   5.469  10.682  10.035
34890SOL     OW 6501   8.154   4.194  12.096
34890SOL    HW1 6502   8.248   4.203  12.112
34890SOL    HW2 6503   8.116   4.274  12.134
34891SOL     OW 6504   4.891   2.613   6.653
34891SOL    HW1 6505   4.905   2.547   6.585
34891SOL    HW2 6506   4.934   2.577   6.730
34892SOL     OW 6507   5.430  14.080  13.905
34892SOL    HW1 6508   5.490  14.007  13.919
34892SOL    HW2 6509   5.419  14.083  13.810
34893SOL     OW 6510   2.394   2.296  14.351
34893SOL    HW1 6511   2.342   2.232  14.400
34893SOL    HW2 6512   2.329   2.356  14.315
34894SOL     OW 6513   6.975  12.755   4.440
34894SOL    HW1 6514   7.000  12.673   4.482
34894SOL    HW2 6515   7.053  12.780   4.391
34895SOL     OW 6516  14.178  10.937   0.488
34895SOL    HW1 6517  14.215  10.955   0.575
34895SOL    HW2 6518  14.114  11.007   0.475
34896SOL     OW 6519   0.639  12.181   7.291
34896SOL    HW1 6520   0.573  12.125   7.331
34896SOL    HW2 6521   0.672  12.130   7.217
34897SOL     OW 6522   5.630   4.991  11.569
34897SOL    HW1 6523   5.705   4.978  11.511
34897SOL    HW2 6524   5.557   5.012  11.510
34898SOL     OW 6525   7.143   0.583   3.157
34898SOL    HW1 6526   7.203   0.658   3.153
34898SOL    HW2 6527   7.160   0.543   3.242
34899SOL     OW 6528   0.311   3.516  12.350
34899SOL    HW1 6529   0.309   3.578  12.423
34899SOL    HW2 6530   0.221   3.517  12.316
34900SOL     OW 6531  12.057   3.239   4.632
34900SOL    HW1 6532  12.111   3.265   4.707
34900SOL    HW2 6533  12.108   3.268   4.556
34901SOL     OW 6534   5.435  10.149   6.240
34901SOL    HW1 6535   5.398  10.186   6.160
34901SOL    HW2 6536   5.365  10.093   6.275
34902SOL     OW 6537   4.042  14.753  14.785
34902SOL    HW1 6538   3.963  14.772  14.835
34902SOL    HW2 6539   4.101  14.713  14.849
34903SOL     OW 6540   0.091   0.428   9.047
34903SOL    HW1 6541   0.133   0.513   9.031
34903SOL    HW2 6542   0.153   0.364   9.013
34904SOL     OW 6543  14.655   8.077   2.042
34904SOL    HW1 6544  14.651   8.163   1.999
34904SOL    HW2 6545  14.605   8.020   1.984
34905SOL     OW 6546   0.933  12.480  14.419
34905SOL    HW1 6547   0.859  12.487  14.359
34905SOL    HW2 6548   1.005  12.526  14.374
34906SOL     OW 6549   1.841   1.323   0.162
34906SOL    HW1 6550   1.807   1.348   0.076
34906SOL    HW2 6551   1.797   1.382   0.223
34907SOL     OW 6552   3.283  12.874  13.088
34907SOL    HW1 6553   3.256  12.803  13.147
34907SOL    HW2 6554   3.367  12.846  13.053
34908SOL     OW 6555  12.789   1.372   7.545
34908SOL    HW1 6556  12.744   1.362   7.629
34908SOL    HW2 6557  12.856   1.438   7.561
34909SOL     OW 6558  13.044  11.672   3.056
34909SOL    HW1 6559  13.072  11.684   3.146
34909SOL    HW2 6560  12.950  11.652   3.062
34910SOL     OW 6561   6.305  12.094   2.023
34910SOL    HW1 6562   6.349  12.175   1.997
34910SOL    HW2 6563   6.367  12.025   1.999
34911SOL     OW 6564   1.789   5.831  13.012
34911SOL    HW1 6565   1.774   5.921  13.042
34911SOL    HW2 6566   1.871   5.836  12.962
34912SOL     OW 6567  14.863   2.751  10.579
34912SOL    HW1 6568  14.809   2.698  10.638
34912SOL    HW2 6569   0.056   2.778  10.632
34913SOL     OW 6570  14.270  10.943   8.249
34913SOL    HW1 6571  14.194  10.982   8.291
34913SOL    HW2 6572  14.325  10.913   8.321
34914SOL     OW 6573   7.133   2.604  10.488
34914SOL    HW1 6574   7.059   2.654  10.452
34914SOL    HW2 6575   7.206   2.667  10.488
34915SOL     OW 6576   7.427   9.674  11.328
34915SOL    HW1 6577   7.374   9.733  11.381
34915SOL    HW2 6578   7.509   9.666  11.376
34916SOL     OW 6579   4.423   6.094   4.824
34916SOL    HW1 6580   4.458   6.032   4.759
34916SOL    HW2 6581   4.494   6.106   4.886
34917SOL     OW 6582   0.779   7.492   2.891
34917SOL    HW1 6583   0.788   7.442   2.973
34917SOL    HW2 6584   0.687   7.520   2.890
34918SOL     OW 6585   0.780   0.633  11.498
34918SOL    HW1 6586   0.829   0.596  11.425
34918SOL    HW2 6587   0.724   0.561  11.527
34919SOL     OW 6588   0.891   8.675  13.072
34919SOL    HW1 6589   0.938   8.704  13.151
34919SOL    HW2 6590   0.955   8.684  13.002
34920SOL     OW 6591   1.014   8.999   0.022
34920SOL    HW1 6592   0.949   9.041  14.848
34920SOL    HW2 6593   1.056   8.934  14.847
34921SOL     OW 6594  13.014  13.824   6.644
34921SOL    HW1 6595  12.921  13.843   6.631
34921SOL    HW2 6596  13.051  13.907   6.676
34922SOL     OW 6597  14.574   7.811  13.862
34922SOL    HW1 6598  14.566   7.851  13.776
34922SOL    HW2 6599  14.489   7.825  13.903
34923SOL     OW 6600  14.120  14.251   1.222
34923SOL    HW1 6601  14.194  14.237   1.164
34923SOL    HW2 6602  14.094  14.342   1.207
34924SOL     OW 6603   2.830  10.197   9.786
34924SOL    HW1 6604   2.735  10.192   9.780
34924SOL    HW2 6605   2.861  10.177   9.698
34925SOL     OW 6606  12.964  12.360   2.814
34925SOL    HW1 6607  13.052  12.328   2.797
34925SOL    HW2 6608  12.922  12.291   2.865
34926SOL     OW 6609  10.636   6.379   8.934
34926SOL    HW1 6610  10.695   6.408   9.005
34926SOL    HW2 6611  10.672   6.421   8.856
34927SOL     OW 6612   2.645   4.365  10.220
34927SOL    HW1 6613   2.578   4.352  10.153
34927SOL    HW2 6614   2.704   4.290  10.210
34928SOL     OW 6615   9.707   8.631  11.688
34928SOL    HW1 6616   9.726   8.723  11.670
34928SOL    HW2 6617   9.612   8.628  11.701
34929SOL     OW 6618   3.161   8.030   6.365
34929SOL    HW1 6619   3.173   8.109   6.312
34929SOL    HW2 6620   3.250   7.998   6.381
34930SOL     OW 6621   2.546  11.635   9.178
34930SOL    HW1 6622   2.582  11.678   9.100
34930SOL    HW2 6623   2.459  11.675   9.188
34931SOL     OW 6624  14.289   0.872   0.570
34931SOL    HW1 6625  14.225   0.875   0.641
34931SOL    HW2 6626  14.272   0.789   0.525
34932SOL     OW 6627  13.383   9.958   4.483
34932SOL    HW1 6628  13.342   9.896   4.543
34932SOL    HW2 6629  13.325   9.961   4.407
34933SOL     OW 6630   5.996   3.791   0.433
34933SOL    HW1 6631   6.051   3.734   0.486
34933SOL    HW2 6632   6.057   3.856   0.397
34934SOL     OW 6633  14.009   7.732  12.541
34934SOL    HW1 6634  14.035   7.710  12.451
34934SOL    HW2 6635  13.999   7.827  12.539
34935SOL     OW 6636  12.509   7.961  10.366
34935SOL    HW1 6637  12.429   8.010  10.387
34935SOL    HW2 6638  12.557   7.958  10.449
34936SOL     OW 6639  10.151   4.065  14.562
34936SOL    HW1 6640  10.097   4.142  14.579
34936SOL    HW2 6641  10.221   4.070  14.626
34937SOL     OW 6642   5.561   0.337   9.136
34937SOL    HW1 6643   5.475   0.357   9.098
34937SOL    HW2 6644   5.601   0.277   9.074
34938SOL     OW 6645   2.695   3.228   4.657
34938SOL    HW1 6646   2.736   3.263   4.578
34938SOL    HW2 6647   2.628   3.168   4.624
34939SOL     OW 6648   0.256   7.936   5.866
34939SOL    HW1 6649   0.332   7.990   5.885
34939SOL    HW2 6650   0.209   7.929   5.949
34940SOL     OW 6651   6.532   9.424   6.047
34940SOL    HW1 6652   6.570   9.453   6.129
34940SOL    HW2 6653   6.459   9.485   6.031
34941SOL     OW 6654   3.603   7.235   5.352
34941SOL    HW1 6655   3.692   7.201   5.344
34941SOL    HW2 6656   3.613   7.329   5.366
34942SOL     OW 6657   6.274   9.043   4.414
34942SOL    HW1 6658   6.273   9.139   4.407
34942SOL    HW2 6659   6.224   9.024   4.493
34943SOL     OW 6660  11.487  10.907   5.621
34943SOL    HW1 6661  11.414  10.888   5.562
34943SOL    HW2 6662  11.526  10.822   5.639
34944SOL     OW 6663  11.208  12.435  14.338
34944SOL    HW1 6664  11.286  12.412  14.389
34944SOL    HW2 6665  11.231  12.516  14.293
34945SOL     OW 6666   3.379  11.949   6.909
34945SOL    HW1 6667   3.398  11.856   6.904
34945SOL    HW2 6668   3.450  11.985   6.964
34946SOL     OW 6669   0.857   1.778  13.021
34946SOL    HW1 6670   0.805   1.829  12.958
34946SOL    HW2 6671   0.909   1.843  13.068
34947SOL     OW 6672  12.791   2.535   8.556
34947SOL    HW1 6673  12.796   2.598   8.628
34947SOL    HW2 6674  12.700   2.543   8.524
34948SOL     OW 6675   0.692   0.119   0.699
34948SOL    HW1 6676   0.777   0.101   0.660
34948SOL    HW2 6677   0.687   0.215   0.703
34949SOL     OW 6678   5.146   7.157  14.192
34949SOL    HW1 6679   5.075   7.213  14.223
34949SOL    HW2 6680   5.223   7.186  14.241
34950SOL     OW 6681   9.160   4.497   4.408
34950SOL    HW1 6682   9.183   4.588   4.428
34950SOL    HW2 6683   9.064   4.495   4.415
34951SOL     OW 6684   8.852   8.169   3.905
34951SOL    HW1 6685   8.760   8.172   3.876
34951SOL    HW2 6686   8.895   8.113   3.840
34952SOL     OW 6687   7.540  14.783   3.329
34952SOL    HW1 6688   7.569  14.695   3.353
34952SOL    HW2 6689   7.492  14.771   3.247
34953SOL     OW 6690   9.369   0.443   9.147
34953SOL    HW1 6691   9.277   0.437   9.119
34953SOL    HW2 6692   9.373   0.392   9.228
34954SOL     OW 6693   1.392   4.145  11.089
34954SOL    HW1 6694   1.301   4.140  11.116
34954SOL    HW2 6695   1.427   4.057  11.106
34955SOL     OW 6696  14.794   3.593   9.561
34955SOL    HW1 6697  14.775   3.674   9.607
34955SOL    HW2 6698  14.835   3.621   9.479
34956SOL     OW 6699   7.254   4.547   2.330
34956SOL    HW1 6700   7.240   4.498   2.411
34956SOL    HW2 6701   7.267   4.637   2.359
34957SOL     OW 6702  13.112  12.485  11.216
34957SOL    HW1 6703  13.131  12.559  11.160
34957SOL    HW2 6704  13.197  12.446  11.235
34958SOL     OW 6705   9.789   9.628  14.513
34958SOL    HW1 6706   9.736   9.621  14.593
34958SOL    HW2 6707   9.767   9.714  14.478
34959SOL     OW 6708   7.371  11.734  10.908
34959SOL    HW1 6709   7.420  11.696  10.835
34959SOL    HW2 6710   7.420  11.813  10.931
34960SOL     OW 6711   6.389   0.418   5.419
34960SOL    HW1 6712   6.388   0.499   5.471
34960SOL    HW2 6713   6.480   0.388   5.425
34961SOL     OW 6714  11.217  11.969   5.037
34961SOL    HW1 6715  11.271  12.041   5.003
34961SOL    HW2 6716  11.268  11.934   5.110
34962SOL     OW 6717   2.549  12.060  11.616
34962SOL    HW1 6718   2.635  12.028  11.591
34962SOL    HW2 6719   2.498  12.059  11.535
34963SOL     OW 6720  14.339  14.083  10.181
34963SOL    HW1 6721  14.253  14.070  10.140
34963SOL    HW2 6722  14.320  14.080  10.275
34964SOL     OW 6723   2.664   3.523  12.848
34964SOL    HW1 6724   2.626   3.544  12.933
34964SOL    HW2 6725   2.588   3.506  12.792
34965SOL     OW 6726   9.793   3.769   8.285
34965SOL    HW1 6727   9.805   3.731   8.372
34965SOL    HW2 6728   9.877   3.811   8.266
34966SOL     OW 6729   9.770  14.808   9.676
34966SOL    HW1 6730   9.793  14.748   9.747
34966SOL    HW2 6731   9.795   0.013   9.708
34967SOL     OW 6732   2.254   3.513   2.848
34967SOL    HW1 6733   2.199   3.452   2.897
34967SOL    HW2 6734   2.288   3.460   2.775
34968SOL     OW 6735   4.329   0.966  12.955
34968SOL    HW1 6736   4.274   0.983  13.032
34968SOL    HW2 6737   4.404   1.025  12.965
34969SOL     OW 6738   8.649  11.245   2.645
34969SOL    HW1 6739   8.708  11.224   2.718
34969SOL    HW2 6740   8.569  11.196   2.664
34970SOL     OW 6741   4.354  13.060  10.985
34970SOL    HW1 6742   4.396  13.101  10.909
34970SOL    HW2 6743   4.278  13.115  11.003
34971SOL     OW 6744  14.256   2.185  12.308
34971SOL    HW1 6745  14.342   2.147  12.294
34971SOL    HW2 6746  14.195   2.119  12.276
34972SOL     OW 6747   1.740  11.379   6.704
34972SOL    HW1 6748   1.741  11.442   6.777
34972SOL    HW2 6749   1.691  11.424   6.635
34973SOL     OW 6750   5.725   7.756   4.331
34973SOL    HW1 6751   5.682   7.831   4.373
34973SOL    HW2 6752   5.798   7.794   4.282
34974SOL     OW 6753  13.227  14.581  11.045
34974SOL    HW1 6754  13.224  14.655  11.106
34974SOL    HW2 6755  13.301  14.601  10.987
34975SOL     OW 6756   5.727  12.103   5.903
34975SOL    HW1 6757   5.744  12.022   5.951
34975SOL    HW2 6758   5.741  12.080   5.811
34976SOL     OW 6759  10.621   7.375   6.141
34976SOL    HW1 6760  10.612   7.466   6.169
34976SOL    HW2 6761  10.550   7.329   6.184
34977SOL     OW 6762   8.344  10.245  10.494
34977SOL    HW1 6763   8.414  10.309  10.481
34977SOL    HW2 6764   8.295  10.245  10.412
34978SOL     OW 6765  12.994   6.035  10.234
34978SOL    HW1 6766  12.915   5.983  10.215
34978SOL    HW2 6767  12.983   6.115  10.183
34979SOL     OW 6768   4.168  12.879   9.778
34979SOL    HW1 6769   4.192  12.815   9.845
34979SOL    HW2 6770   4.240  12.941   9.777
34980SOL     OW 6771   9.309  12.200   6.897
34980SOL    HW1 6772   9.333  12.109   6.880
34980SOL    HW2 6773   9.371  12.229   6.964
34981SOL     OW 6774  11.027   0.075   4.264
34981SOL    HW1 6775  11.063   0.028   4.189
34981SOL    HW2 6776  10.937   0.097   4.238
34982SOL     OW 6777   8.618  12.070   5.002
34982SOL    HW1 6778   8.701  12.068   5.049
34982SOL    HW2 6779   8.558  12.116   5.061
34983SOL     OW 6780  11.632  13.252   0.216
34983SOL    HW1 6781  11.719  13.284   0.193
34983SOL    HW2 6782  11.633  13.159   0.193
34984SOL     OW 6783   1.607  12.327   1.893
34984SOL    HW1 6784   1.670  12.331   1.821
34984SOL    HW2 6785   1.604  12.417   1.927
34985SOL     OW 6786  13.590   6.185   1.698
34985SOL    HW1 6787  13.509   6.186   1.751
34985SOL    HW2 6788  13.616   6.277   1.694
34986SOL     OW 6789   3.304  10.884   7.235
34986SOL    HW1 6790   3.361  10.959   7.218
34986SOL    HW2 6791   3.355  10.827   7.292
34987SOL     OW 6792   8.608   6.098   7.165
34987SOL    HW1 6793   8.520   6.083   7.129
34987SOL    HW2 6794   8.602   6.064   7.255
34988SOL     OW 6795   9.347  14.829   3.053
34988SOL    HW1 6796   9.430  14.878   3.062
34988SOL    HW2 6797   9.320  14.847   2.963
34989SOL     OW 6798   5.878   8.609   2.966
34989SOL    HW1 6799   5.973   8.617   2.967
34989SOL    HW2 6800   5.856   8.603   2.873
34990SOL     OW 6801  12.550  12.971   4.765
34990SOL    HW1 6802  12.533  13.025   4.688
34990SOL    HW2 6803  12.606  13.025   4.821
34991SOL     OW 6804  11.365   9.660   2.193
34991SOL    HW1 6805  11.451   9.686   2.161
34991SOL    HW2 6806  11.382   9.586   2.252
34992SOL     OW 6807   7.406  11.499   5.016
34992SOL    HW1 6808   7.493  11.511   5.054
34992SOL    HW2 6809   7.405  11.409   4.985
34993SOL     OW 6810   8.303   1.130   5.540
34993SOL    HW1 6811   8.217   1.089   5.544
34993SOL    HW2 6812   8.297   1.205   5.599
34994SOL     OW 6813   7.136   0.592   6.740
34994SOL    HW1 6814   7.188   0.604   6.661
34994SOL    HW2 6815   7.093   0.677   6.753
34995SOL     OW 6816   5.335   7.771   2.305
34995SOL    HW1 6817   5.293   7.723   2.234
34995SOL    HW2 6818   5.345   7.860   2.272
34996SOL     OW 6819  11.898   4.245   4.042
34996SOL    HW1 6820  11.899   4.327   4.092
34996SOL    HW2 6821  11.836   4.261   3.971
34997SOL     OW 6822  10.065   4.416   1.532
34997SOL    HW1 6823   9.994   4.409   1.467
34997SOL    HW2 6824  10.070   4.509   1.552
34998SOL     OW 6825   6.279   3.405  12.369
34998SOL    HW1 6826   6.335   3.345  12.320
34998SOL    HW2 6827   6.191   3.371  12.358
34999SOL     OW 6828   2.331   5.679   1.697
34999SOL    HW1 6829   2.410   5.692   1.644
34999SOL    HW2 6830   2.363   5.672   1.787
35000SOL     OW 6831   1.868   5.851   0.305
35000SOL    HW1 6832   1.864   5.788   0.234
35000SOL    HW2 6833   1.778   5.883   0.315
35001SOL     OW 6834  10.231  14.395  13.511
35001SOL    HW1 6835  10.206  14.472  13.562
35001SOL    HW2 6836  10.194  14.410  13.424
35002SOL     OW 6837   2.862  14.646   2.968
35002SOL    HW1 6838   2.893  14.735   2.951
35002SOL    HW2 6839   2.888  14.628   3.058
35003SOL     OW 6840   3.935   3.440   9.019
35003SOL    HW1 6841   3.888   3.377   8.964
35003SOL    HW2 6842   3.990   3.387   9.076
35004SOL     OW 6843  11.168   2.235  12.689
35004SOL    HW1 6844  11.147   2.240  12.596
35004SOL    HW2 6845  11.173   2.141  12.708
35005SOL     OW 6846  10.766   0.144   4.149
35005SOL    HW1 6847  10.700   0.077   4.165
35005SOL    HW2 6848  10.726   0.225   4.183
35006SOL     OW 6849  12.921   2.551  13.534
35006SOL    HW1 6850  12.879   2.632  13.504
35006SOL    HW2 6851  12.988   2.533  13.468
35007SOL     OW 6852  10.266   8.776   5.750
35007SOL    HW1 6853  10.359   8.765   5.770
35007SOL    HW2 6854  10.254   8.871   5.747
35008SOL     OW 6855   9.324  10.493   5.608
35008SOL    HW1 6856   9.306  10.549   5.684
35008SOL    HW2 6857   9.413  10.460   5.622
35009SOL     OW 6858   4.101   1.056   5.476
35009SOL    HW1 6859   4.064   0.968   5.475
35009SOL    HW2 6860   4.029   1.112   5.505
35010SOL     OW 6861   5.010   0.517  13.146
35010SOL    HW1 6862   5.080   0.526  13.210
35010SOL    HW2 6863   4.934   0.489  13.197
35011SOL     OW 6864   6.509  14.780   5.432
35011SOL    HW1 6865   6.496  14.874   5.422
35011SOL    HW2 6866   6.571  14.773   5.505
35012SOL     OW 6867   8.123  13.016   7.936
35012SOL    HW1 6868   8.189  12.956   7.903
35012SOL    HW2 6869   8.149  13.102   7.901
35013SOL     OW 6870   1.102  11.102   7.040
35013SOL    HW1 6871   1.089  11.033   7.105
35013SOL    HW2 6872   1.183  11.079   6.995
35014SOL     OW 6873   9.815  12.822  10.007
35014SOL    HW1 6874   9.804  12.827  10.102
35014SOL    HW2 6875   9.910  12.830   9.994
35015SOL     OW 6876  13.602   6.031  10.108
35015SOL    HW1 6877  13.670   5.990  10.055
35015SOL    HW2 6878  13.520   5.998  10.071
35016SOL     OW 6879   4.254   6.316  14.577
35016SOL    HW1 6880   4.276   6.284  14.489
35016SOL    HW2 6881   4.272   6.410  14.574
35017SOL     OW 6882  10.142  13.493   0.330
35017SOL    HW1 6883  10.080  13.521   0.262
35017SOL    HW2 6884  10.207  13.563   0.334
35018SOL     OW 6885   7.084   6.583  13.559
35018SOL    HW1 6886   7.032   6.507  13.587
35018SOL    HW2 6887   7.137   6.549  13.486
35019SOL     OW 6888   3.362   8.235   8.833
35019SOL    HW1 6889   3.418   8.178   8.886
35019SOL    HW2 6890   3.273   8.211   8.858
35020SOL     OW 6891  14.164   7.637   3.597
35020SOL    HW1 6892  14.172   7.634   3.502
35020SOL    HW2 6893  14.158   7.545   3.624
35021SOL     OW 6894   8.175   0.263   8.952
35021SOL    HW1 6895   8.179   0.347   8.904
35021SOL    HW2 6896   8.172   0.288   9.044
35022SOL     OW 6897   2.853   1.550   8.088
35022SOL    HW1 6898   2.879   1.508   8.006
35022SOL    HW2 6899   2.819   1.478   8.142
35023SOL     OW 6900  13.070   4.190   9.266
35023SOL    HW1 6901  13.085   4.131   9.192
35023SOL    HW2 6902  13.076   4.278   9.228
35024SOL     OW 6903   9.587   2.400   1.258
35024SOL    HW1 6904   9.503   2.434   1.290
35024SOL    HW2 6905   9.570   2.307   1.241
35025SOL     OW 6906   5.991   2.948   5.428
35025SOL    HW1 6907   6.025   2.862   5.454
35025SOL    HW2 6908   6.029   3.009   5.492
35026SOL     OW 6909  13.326  11.055   8.010
35026SOL    HW1 6910  13.257  11.097   7.957
35026SOL    HW2 6911  13.407  11.096   7.981
35027SOL     OW 6912   5.025   3.294  12.194
35027SOL    HW1 6913   5.003   3.347  12.117
35027SOL    HW2 6914   5.090   3.231  12.162
35028SOL     OW 6915   2.852  10.770   6.866
35028SOL    HW1 6916   2.920  10.828   6.901
35028SOL    HW2 6917   2.897  10.686   6.854
35029SOL     OW 6918   0.224   8.570   7.416
35029SOL    HW1 6919   0.137   8.538   7.439
35029SOL    HW2 6920   0.219   8.589   7.322
35030SOL     OW 6921  11.584  13.767   2.208
35030SOL    HW1 6922  11.658  13.712   2.184
35030SOL    HW2 6923  11.545  13.723   2.284
35031SOL     OW 6924   6.334  13.808  10.391
35031SOL    HW1 6925   6.311  13.787  10.481
35031SOL    HW2 6926   6.266  13.766  10.338
35032SOL     OW 6927   3.127   3.816   3.908
35032SOL    HW1 6928   3.072   3.740   3.921
35032SOL    HW2 6929   3.174   3.798   3.826
35033SOL     OW 6930   0.530  10.023  12.934
35033SOL    HW1 6931   0.486   9.963  12.874
35033SOL    HW2 6932   0.618  10.034  12.897
35034SOL     OW 6933   8.240   7.897   2.443
35034SOL    HW1 6934   8.329   7.863   2.454
35034SOL    HW2 6935   8.183   7.825   2.469
35035SOL     OW 6936  13.045  10.023   0.845
35035SOL    HW1 6937  12.993  10.021   0.764
35035SOL    HW2 6938  13.019  10.105   0.887
35036SOL     OW 6939   1.353   2.592   1.618
35036SOL    HW1 6940   1.358   2.580   1.523
35036SOL    HW2 6941   1.336   2.504   1.652
35037SOL     OW 6942  11.123   3.612   1.520
35037SOL    HW1 6943  11.084   3.670   1.454
35037SOL    HW2 6944  11.214   3.603   1.493
35038SOL     OW 6945   4.313  10.493   0.634
35038SOL    HW1 6946   4.326  10.398   0.643
35038SOL    HW2 6947   4.218  10.503   0.631
35039SOL     OW 6948   2.840   0.958  10.078
35039SOL    HW1 6949   2.789   1.026  10.122
35039SOL    HW2 6950   2.929   0.992  10.077
35040SOL     OW 6951  13.013   6.362   1.711
35040SOL    HW1 6952  12.932   6.382   1.663
35040SOL    HW2 6953  13.050   6.287   1.665
35041SOL     OW 6954   8.789  12.902  13.124
35041SOL    HW1 6955   8.808  12.865  13.038
35041SOL    HW2 6956   8.724  12.843  13.162
35042SOL     OW 6957   8.937  10.980  10.808
35042SOL    HW1 6958   9.015  11.031  10.831
35042SOL    HW2 6959   8.914  10.935  10.890
35043SOL     OW 6960   9.005   9.162   6.588
35043SOL    HW1 6961   8.939   9.165   6.519
35043SOL    HW2 6962   9.006   9.250   6.625
35044SOL     OW 6963   9.634   2.971   9.664
35044SOL    HW1 6964   9.570   2.911   9.627
35044SOL    HW2 6965   9.587   3.054   9.674
35045SOL     OW 6966  14.664   5.954   0.681
35045SOL    HW1 6967  14.642   5.987   0.768
35045SOL    HW2 6968  14.749   5.993   0.661
35046SOL     OW 6969  12.984   6.382   2.685
35046SOL    HW1 6970  12.978   6.358   2.592
35046SOL    HW2 6971  12.938   6.466   2.691
35047SOL     OW 6972   5.323  12.684   6.351
35047SOL    HW1 6973   5.407  12.722   6.377
35047SOL    HW2 6974   5.345  12.623   6.281
35048SOL     OW 6975   4.099   6.171   2.288
35048SOL    HW1 6976   4.186   6.141   2.315
35048SOL    HW2 6977   4.085   6.132   2.202
35049SOL     OW 6978   0.535  14.006  13.582
35049SOL    HW1 6979   0.526  13.913  13.559
35049SOL    HW2 6980   0.619  14.032  13.544
35050SOL     OW 6981   3.234   3.434   1.493
35050SOL    HW1 6982   3.300   3.405   1.429
35050SOL    HW2 6983   3.188   3.353   1.517
35051SOL     OW 6984   9.222   1.197   1.492
35051SOL    HW1 6985   9.242   1.232   1.406
35051SOL    HW2 6986   9.228   1.102   1.481
35052SOL     OW 6987  14.716   0.592   9.083
35052SOL    HW1 6988  14.730   0.506   9.121
35052SOL    HW2 6989  14.693   0.575   8.992
35053SOL     OW 6990  10.212   0.140  10.595
35053SOL    HW1 6991  10.305   0.143  10.570
35053SOL    HW2 6992  10.200   0.215  10.653
35054SOL     OW 6993   1.765   0.678   9.037
35054SOL    HW1 6994   1.823   0.714   8.971
35054SOL    HW2 6995   1.724   0.603   8.995
35055SOL     OW 6996  11.972   8.512   7.842
35055SOL    HW1 6997  12.022   8.432   7.857
35055SOL    HW2 6998  11.986   8.532   7.749
35056SOL     OW 6999   6.784  11.586  12.733
35056SOL    HW1 7000   6.696  11.617  12.755
35056SOL    HW2 7001   6.841  11.658  12.758
35057SOL     OW 7002   0.704   8.841   3.926
35057SOL    HW1 7003   0.623   8.870   3.968
35057SOL    HW2 7004   0.677   8.817   3.837
35058SOL     OW 7005   1.257   0.057   4.549
35058SOL    HW1 7006   1.200   0.007   4.490
35058SOL    HW2 7007   1.197   0.095   4.613
35059SOL     OW 7008   9.697   5.891   2.298
35059SOL    HW1 7009   9.778   5.920   2.256
35059SOL    HW2 7010   9.726   5.831   2.366
35060SOL     OW 7011  11.895   7.601  12.731
35060SOL    HW1 7012  11.810   7.631  12.699
35060SOL    HW2 7013  11.958   7.662  12.691
35061SOL     OW 7014   3.398   5.658   2.807
35061SOL    HW1 7015   3.464   5.592   2.786
35061SOL    HW2 7016   3.439   5.714   2.872
35062SOL     OW 7017   9.591   2.150   3.743
35062SOL    HW1 7018   9.561   2.094   3.814
35062SOL    HW2 7019   9.677   2.179   3.770
35063SOL     OW 7020   3.605   5.904  12.456
35063SOL    HW1 7021   3.510   5.893  12.455
35063SOL    HW2 7022   3.622   5.969  12.388
35064SOL     OW 7023  13.485  14.038   7.349
35064SOL    HW1 7024  13.525  14.062   7.432
35064SOL    HW2 7025  13.545  13.974   7.310
35065SOL     OW 7026   5.374   1.168   8.664
35065SOL    HW1 7027   5.341   1.079   8.676
35065SOL    HW2 7028   5.300   1.224   8.688
35066SOL     OW 7029   8.054   8.032   0.408
35066SOL    HW1 7030   7.998   7.968   0.364
35066SOL    HW2 7031   8.108   8.069   0.339
35067SOL     OW 7032   8.650   3.027   3.518
35067SOL    HW1 7033   8.628   3.109   3.474
35067SOL    HW2 7034   8.743   3.037   3.541
35068SOL     OW 7035   2.783   5.254   2.725
35068SOL    HW1 7036   2.811   5.336   2.764
35068SOL    HW2 7037   2.687   5.254   2.735
35069SOL     OW 7038   8.569   6.883   8.968
35069SOL    HW1 7039   8.474   6.895   8.961
35069SOL    HW2 7040   8.603   6.919   8.886
35070SOL     OW 7041   3.050  10.560   6.840
35070SOL    HW1 7042   3.118  10.627   6.845
35070SOL    HW2 7043   3.098  10.479   6.821
35071SOL     OW 7044  10.134   7.515   1.151
35071SOL    HW1 7045  10.160   7.602   1.180
35071SOL    HW2 7046  10.200   7.490   1.086
35072SOL     OW 7047  11.549   8.879   5.660
35072SOL    HW1 7048  11.522   8.947   5.598
35072SOL    HW2 7049  11.521   8.912   5.746
35073SOL     OW 7050   1.500   3.820  12.325
35073SOL    HW1 7051   1.477   3.801  12.416
35073SOL    HW2 7052   1.528   3.912  12.327
35074SOL     OW 7053   2.759  13.219   3.331
35074SOL    HW1 7054   2.800  13.287   3.384
35074SOL    HW2 7055   2.731  13.264   3.251
35075SOL     OW 7056   9.411   8.843   2.122
35075SOL    HW1 7057   9.405   8.900   2.199
35075SOL    HW2 7058   9.394   8.902   2.048
35076SOL     OW 7059  12.416  10.411   3.205
35076SOL    HW1 7060  12.334  10.362   3.206
35076SOL    HW2 7061  12.443  10.411   3.113
35077SOL     OW 7062   1.324   1.818   7.773
35077SOL    HW1 7063   1.324   1.722   7.777
35077SOL    HW2 7064   1.237   1.840   7.740
35078SOL     OW 7065   2.855  11.772   9.236
35078SOL    HW1 7066   2.887  11.805   9.152
35078SOL    HW2 7067   2.784  11.831   9.261
35079SOL     OW 7068   2.223  11.239   5.202
35079SOL    HW1 7069   2.203  11.332   5.198
35079SOL    HW2 7070   2.251  11.217   5.113
35080SOL     OW 7071  10.118   2.656   6.072
35080SOL    HW1 7072  10.053   2.639   6.004
35080SOL    HW2 7073  10.109   2.583   6.133
35081SOL     OW 7074  12.381   9.406   3.808
35081SOL    HW1 7075  12.423   9.322   3.788
35081SOL    HW2 7076  12.333   9.390   3.889
35082SOL     OW 7077   6.642  13.869   9.103
35082SOL    HW1 7078   6.660  13.776   9.115
35082SOL    HW2 7079   6.714  13.913   9.148
35083SOL     OW 7080   1.573   7.789  10.058
35083SOL    HW1 7081   1.529   7.726  10.001
35083SOL    HW2 7082   1.644   7.824  10.004
35084SOL     OW 7083   0.509   6.174   6.892
35084SOL    HW1 7084   0.469   6.184   6.978
35084SOL    HW2 7085   0.552   6.089   6.895
35085SOL     OW 7086   9.511  11.057  10.030
35085SOL    HW1 7087   9.575  11.015  10.087
35085SOL    HW2 7088   9.513  11.006   9.949
35086SOL     OW 7089   0.826   1.180  10.315
35086SOL    HW1 7090   0.830   1.173  10.219
35086SOL    HW2 7091   0.743   1.139  10.338
35087SOL     OW 7092   4.719   7.191   1.345
35087SOL    HW1 7093   4.760   7.118   1.390
35087SOL    HW2 7094   4.697   7.253   1.415
35088SOL     OW 7095  11.892   2.815  11.612
35088SOL    HW1 7096  11.934   2.773  11.537
35088SOL    HW2 7097  11.853   2.895  11.577
35089SOL     OW 7098  13.584   4.200   7.443
35089SOL    HW1 7099  13.547   4.287   7.457
35089SOL    HW2 7100  13.627   4.205   7.358
35090SOL     OW 7101   2.017   5.526   3.745
35090SOL    HW1 7102   1.980   5.594   3.688
35090SOL    HW2 7103   2.099   5.564   3.777
35091SOL     OW 7104  14.068   6.650  14.328
35091SOL    HW1 7105  14.147   6.596  14.330
35091SOL    HW2 7106  14.024   6.632  14.411
35092SOL     OW 7107   0.136   1.227   9.108
35092SOL    HW1 7108   0.079   1.167   9.060
35092SOL    HW2 7109   0.183   1.171   9.170
35093SOL     OW 7110   2.080   5.735  10.148
35093SOL    HW1 7111   2.117   5.703  10.066
35093SOL    HW2 7112   2.128   5.689  10.216
35094SOL     OW 7113   4.084  12.102   0.621
35094SOL    HW1 7114   4.082  12.044   0.698
35094SOL    HW2 7115   4.118  12.185   0.655
35095SOL     OW 7116   1.970  11.879  14.228
35095SOL    HW1 7117   1.970  11.913  14.317
35095SOL    HW2 7118   1.888  11.913  14.190
35096SOL     OW 7119   9.608   1.567   5.780
35096SOL    HW1 7120   9.577   1.477   5.794
35096SOL    HW2 7121   9.612   1.605   5.868
35097SOL     OW 7122  14.189  11.581  14.024
35097SOL    HW1 7123  14.280  11.609  14.015
35097SOL    HW2 7124  14.193  11.485  14.022
35098SOL     OW 7125   6.829   3.273   1.451
35098SOL    HW1 7126   6.883   3.224   1.390
35098SOL    HW2 7127   6.757   3.214   1.472
35099SOL     OW 7128   7.048   8.362   3.495
35099SOL    HW1 7129   7.028   8.326   3.581
35099SOL    HW2 7130   7.081   8.287   3.445
35100SOL     OW 7131  11.078   6.404   9.323
35100SOL    HW1 7132  11.049   6.491   9.349
35100SOL    HW2 7133  11.173   6.404   9.338
35101SOL     OW 7134   4.262   7.505   2.668
35101SOL    HW1 7135   4.185   7.548   2.629
35101SOL    HW2 7136   4.234   7.482   2.757
35102SOL     OW 7137   7.339   8.214   1.857
35102SOL    HW1 7138   7.410   8.216   1.921
35102SOL    HW2 7139   7.280   8.146   1.890
35103SOL     OW 7140   4.487   5.136   8.392
35103SOL    HW1 7141   4.554   5.103   8.332
35103SOL    HW2 7142   4.404   5.115   8.349
35104SOL     OW 7143   7.226   2.096   3.471
35104SOL    HW1 7144   7.257   2.108   3.560
35104SOL    HW2 7145   7.152   2.156   3.462
35105SOL     OW 7146   2.026  11.321   0.011
35105SOL    HW1 7147   2.058  11.381   0.078
35105SOL    HW2 7148   1.999  11.243   0.059
35106SOL     OW 7149   6.501   1.899   1.503
35106SOL    HW1 7150   6.555   1.841   1.450
35106SOL    HW2 7151   6.564   1.954   1.549
35107SOL     OW 7152   8.338   6.734  12.051
35107SOL    HW1 7153   8.320   6.818  12.094
35107SOL    HW2 7154   8.392   6.686  12.114
35108SOL     OW 7155   1.556   8.162  10.778
35108SOL    HW1 7156   1.621   8.114  10.829
35108SOL    HW2 7157   1.558   8.121  10.691
35109SOL     OW 7158   0.863   6.904  10.191
35109SOL    HW1 7159   0.920   6.952  10.131
35109SOL    HW2 7160   0.874   6.949  10.275
35110SOL     OW 7161  10.367  10.157  11.038
35110SOL    HW1 7162  10.417  10.237  11.054
35110SOL    HW2 7163  10.389  10.132  10.948
35111SOL     OW 7164   7.497   0.703   9.438
35111SOL    HW1 7165   7.468   0.714   9.528
35111SOL    HW2 7166   7.471   0.785   9.395
35112SOL     OW 7167   6.790   9.946   1.042
35112SOL    HW1 7168   6.840   9.898   1.107
35112SOL    HW2 7169   6.749  10.017   1.091
35113SOL     OW 7170  10.016   0.174   8.232
35113SOL    HW1 7171  10.071   0.191   8.156
35113SOL    HW2 7172   9.944   0.236   8.225
35114SOL     OW 7173  13.803   9.912   3.924
35114SOL    HW1 7174  13.823   9.998   3.960
35114SOL    HW2 7175  13.747   9.930   3.849
35115SOL     OW 7176   5.058   7.221  10.017
35115SOL    HW1 7177   5.028   7.132  10.039
35115SOL    HW2 7178   5.153   7.216  10.022
35116SOL     OW 7179   4.794   8.463   3.438
35116SOL    HW1 7180   4.771   8.423   3.354
35116SOL    HW2 7181   4.826   8.390   3.491
35117SOL     OW 7182   3.304   7.827  10.779
35117SOL    HW1 7183   3.237   7.843  10.713
35117SOL    HW2 7184   3.268   7.758  10.835
35118SOL     OW 7185   9.713   3.114   6.563
35118SOL    HW1 7186   9.751   3.202   6.567
35118SOL    HW2 7187   9.774   3.059   6.611
35119SOL     OW 7188   5.539  11.329   6.781
35119SOL    HW1 7189   5.461  11.277   6.765
35119SOL    HW2 7190   5.606  11.265   6.806
35120SOL     OW 7191   2.972  13.055   7.979
35120SOL    HW1 7192   3.050  13.106   8.002
35120SOL    HW2 7193   3.004  12.988   7.918
35121SOL     OW 7194   2.980  10.049   0.632
35121SOL    HW1 7195   2.995  10.083   0.543
35121SOL    HW2 7196   2.979   9.954   0.621
35122SOL     OW 7197   7.067   4.472   4.232
35122SOL    HW1 7198   7.100   4.554   4.269
35122SOL    HW2 7199   7.036   4.422   4.308
35123SOL     OW 7200   8.939  10.695   5.012
35123SOL    HW1 7201   8.883  10.751   5.066
35123SOL    HW2 7202   9.016  10.679   5.066
35124SOL     OW 7203  14.865   1.041   3.923
35124SOL    HW1 7204   0.070   1.081   3.927
35124SOL    HW2 7205  14.873   0.962   3.977
35125SOL     OW 7206  13.286  14.000  13.323
35125SOL    HW1 7207  13.374  14.010  13.287
35125SOL    HW2 7208  13.279  13.908  13.346
35126SOL     OW 7209  13.891  14.226   5.834
35126SOL    HW1 7210  13.853  14.221   5.746
35126SOL    HW2 7211  13.884  14.319   5.857
35127SOL     OW 7212   6.470   7.862  10.407
35127SOL    HW1 7213   6.426   7.914  10.340
35127SOL    HW2 7214   6.481   7.776  10.366
35128SOL     OW 7215  14.208   5.901   6.961
35128SOL    HW1 7216  14.210   5.957   6.884
35128SOL    HW2 7217  14.276   5.937   7.019
35129SOL     OW 7218  14.110   9.413   8.341
35129SOL    HW1 7219  14.090   9.403   8.434
35129SOL    HW2 7220  14.028   9.443   8.301
35130SOL     OW 7221   1.725  10.262  11.239
35130SOL    HW1 7222   1.684  10.180  11.211
35130SOL    HW2 7223   1.805  10.267  11.187
35131SOL     OW 7224  13.028   2.359   2.746
35131SOL    HW1 7225  12.945   2.314   2.735
35131SOL    HW2 7226  13.084   2.324   2.678
35132SOL     OW 7227   2.563   1.512   6.698
35132SOL    HW1 7228   2.623   1.587   6.698
35132SOL    HW2 7229   2.586   1.463   6.777
35133SOL     OW 7230  11.182   8.314   0.532
35133SOL    HW1 7231  11.223   8.252   0.471
35133SOL    HW2 7232  11.206   8.280   0.619
35134SOL     OW 7233   1.536   9.444  11.510
35134SOL    HW1 7234   1.498   9.366  11.470
35134SOL    HW2 7235   1.577   9.413  11.591
35135SOL     OW 7236   5.357   2.180   5.080
35135SOL    HW1 7237   5.400   2.125   5.014
35135SOL    HW2 7238   5.279   2.213   5.035
35136SOL     OW 7239  10.281   9.108   1.127
35136SOL    HW1 7240  10.306   9.106   1.219
35136SOL    HW2 7241  10.361   9.134   1.081
35137SOL     OW 7242   8.229   4.205   3.881
35137SOL    HW1 7243   8.199   4.262   3.952
35137SOL    HW2 7244   8.322   4.190   3.900
35138SOL     OW 7245   5.789   7.418   0.221
35138SOL    HW1 7246   5.741   7.458   0.293
35138SOL    HW2 7247   5.851   7.358   0.264
35139SOL     OW 7248   5.707  11.383   4.800
35139SOL    HW1 7249   5.644  11.326   4.845
35139SOL    HW2 7250   5.740  11.441   4.869
35140SOL     OW 7251   6.660   6.990   3.405
35140SOL    HW1 7252   6.673   6.895   3.407
35140SOL    HW2 7253   6.715   7.020   3.332
35141SOL     OW 7254   2.733  13.598   1.826
35141SOL    HW1 7255   2.694  13.528   1.878
35141SOL    HW2 7256   2.736  13.674   1.885
35142SOL     OW 7257   5.850   7.629   4.041
35142SOL    HW1 7258   5.769   7.605   4.086
35142SOL    HW2 7259   5.918   7.618   4.108
35143SOL     OW 7260  12.616  12.656  10.677
35143SOL    HW1 7261  12.620  12.745  10.714
35143SOL    HW2 7262  12.674  12.605  10.733
35144SOL     OW 7263  14.442   6.811  11.181
35144SOL    HW1 7264  14.438   6.772  11.094
35144SOL    HW2 7265  14.372   6.768  11.230
35145SOL     OW 7266   6.130   2.384  10.320
35145SOL    HW1 7267   6.048   2.404  10.365
35145SOL    HW2 7268   6.194   2.444  10.359
35146SOL     OW 7269   3.421  13.032   0.030
35146SOL    HW1 7270   3.447  13.081   0.109
35146SOL    HW2 7271   3.496  13.042  14.853
35147SOL     OW 7272  11.616  13.228  12.641
35147SOL    HW1 7273  11.667  13.212  12.561
35147SOL    HW2 7274  11.535  13.180  12.628
35148SOL     OW 7275   3.526   8.962  10.385
35148SOL    HW1 7276   3.437   8.976  10.417
35148SOL    HW2 7277   3.558   9.050  10.364
35149SOL     OW 7278   0.517   3.500   9.089
35149SOL    HW1 7279   0.582   3.516   9.021
35149SOL    HW2 7280   0.563   3.447   9.154
35150SOL     OW 7281   9.943  10.586   9.140
35150SOL    HW1 7282   9.919  10.523   9.073
35150SOL    HW2 7283   9.923  10.672   9.102
35151SOL     OW 7284   4.900   5.792   4.119
35151SOL    HW1 7285   4.910   5.861   4.054
35151SOL    HW2 7286   4.816   5.810   4.161
35152SOL     OW 7287   9.556  11.807   0.492
35152SOL    HW1 7288   9.636  11.858   0.478
35152SOL    HW2 7289   9.510  11.811   0.408
35153SOL     OW 7290   7.445  13.943  14.785
35153SOL    HW1 7291   7.482  13.963  14.871
35153SOL    HW2 7292   7.488  14.004  14.725
35154SOL     OW 7293  11.395  10.957  12.230
35154SOL    HW1 7294  11.343  11.025  12.272
35154SOL    HW2 7295  11.430  10.905  12.303
35155SOL     OW 7296   9.840   5.692  12.939
35155SOL    HW1 7297   9.858   5.769  12.993
35155SOL    HW2 7298   9.747   5.700  12.917
35156SOL     OW 7299   3.241   7.845   3.766
35156SOL    HW1 7300   3.146   7.847   3.764
35156SOL    HW2 7301   3.268   7.868   3.678
35157SOL     OW 7302  11.020  11.174   9.611
35157SOL    HW1 7303  10.957  11.188   9.541
35157SOL    HW2 7304  11.010  11.250   9.669
35158SOL     OW 7305   8.312   1.456   6.623
35158SOL    HW1 7306   8.234   1.511   6.628
35158SOL    HW2 7307   8.282   1.368   6.643
35159SOL     OW 7308   3.327   6.918  13.534
35159SOL    HW1 7309   3.234   6.916  13.556
35159SOL    HW2 7310   3.372   6.903  13.617
35160SOL     OW 7311  14.751   2.741   6.840
35160SOL    HW1 7312  14.772   2.834   6.839
35160SOL    HW2 7313  14.836   2.697   6.843
35161SOL     OW 7314   9.888  12.317   3.738
35161SOL    HW1 7315   9.983  12.329   3.746
35161SOL    HW2 7316   9.869  12.240   3.791
35162SOL     OW 7317   2.707   7.412   6.465
35162SOL    HW1 7318   2.798   7.436   6.485
35162SOL    HW2 7319   2.691   7.450   6.379
35163SOL     OW 7320  14.481   1.308  14.468
35163SOL    HW1 7321  14.421   1.348  14.406
35163SOL    HW2 7322  14.444   1.328  14.554
35164SOL     OW 7323   4.253   7.586   1.286
35164SOL    HW1 7324   4.253   7.530   1.208
35164SOL    HW2 7325   4.268   7.674   1.252
35165SOL     OW 7326   6.057   8.245  14.177
35165SOL    HW1 7327   6.072   8.304  14.251
35165SOL    HW2 7328   6.130   8.184  14.180
35166SOL     OW 7329   9.583   7.371   2.775
35166SOL    HW1 7330   9.665   7.413   2.801
35166SOL    HW2 7331   9.610   7.295   2.724
35167SOL     OW 7332   9.293   9.437   1.938
35167SOL    HW1 7333   9.212   9.394   1.966
35167SOL    HW2 7334   9.289   9.524   1.978
35168SOL     OW 7335   8.431   4.617  12.510
35168SOL    HW1 7336   8.335   4.617  12.511
35168SOL    HW2 7337   8.455   4.526  12.524
35169SOL     OW 7338   7.226   2.544  13.717
35169SOL    HW1 7339   7.235   2.580  13.805
35169SOL    HW2 7340   7.132   2.540  13.702
35170SOL     OW 7341   1.054  11.810   5.433
35170SOL    HW1 7342   1.133  11.771   5.470
35170SOL    HW2 7343   0.995  11.821   5.507
35171SOL     OW 7344  13.145   0.223   7.616
35171SOL    HW1 7345  13.232   0.245   7.650
35171SOL    HW2 7346  13.108   0.164   7.682
35172SOL     OW 7347   5.571   8.189   5.545
35172SOL    HW1 7348   5.614   8.179   5.460
35172SOL    HW2 7349   5.566   8.101   5.580
35173SOL     OW 7350   9.164  11.372   9.882
35173SOL    HW1 7351   9.204  11.436   9.941
35173SOL    HW2 7352   9.213  11.291   9.898
35174SOL     OW 7353  14.799   9.335   3.027
35174SOL    HW1 7354  14.868   9.397   3.003
35174SOL    HW2 7355  14.744   9.384   3.087
35175SOL     OW 7356   3.649   8.416  11.386
35175SOL    HW1 7357   3.580   8.465  11.341
35175SOL    HW2 7358   3.729   8.437  11.337
35176SOL     OW 7359   8.571   7.776  11.265
35176SOL    HW1 7360   8.649   7.729  11.294
35176SOL    HW2 7361   8.567   7.853  11.322
35177SOL     OW 7362   7.347   5.335  14.865
35177SOL    HW1 7363   7.340   5.385   0.065
35177SOL    HW2 7364   7.332   5.400  14.796
35178SOL     OW 7365   9.725   9.559   2.495
35178SOL    HW1 7366   9.654   9.528   2.439
35178SOL    HW2 7367   9.780   9.481   2.509
35179SOL     OW 7368   8.455   8.398  13.920
35179SOL    HW1 7369   8.492   8.419  14.006
35179SOL    HW2 7370   8.388   8.333  13.938
35180SOL     OW 7371   2.490  13.465  12.975
35180SOL    HW1 7372   2.417  13.516  12.939
35180SOL    HW2 7373   2.455  13.377  12.985
35181SOL     OW 7374  13.642   0.800   8.560
35181SOL    HW1 7375  13.615   0.789   8.469
35181SOL    HW2 7376  13.675   0.891   8.564
35182SOL     OW 7377   9.718   6.535   4.677
35182SOL    HW1 7378   9.712   6.469   4.608
35182SOL    HW2 7379   9.792   6.506   4.730
35183SOL     OW 7380   3.899  11.321   5.351
35183SOL    HW1 7381   3.915  11.410   5.320
35183SOL    HW2 7382   3.896  11.328   5.446
35184SOL     OW 7383   5.703  11.082   7.516
35184SOL    HW1 7384   5.765  11.097   7.588
35184SOL    HW2 7385   5.725  11.150   7.452
35185SOL     OW 7386   2.952  12.985   8.451
35185SOL    HW1 7387   2.994  13.071   8.451
35185SOL    HW2 7388   2.980  12.943   8.370
35186SOL     OW 7389   8.929   9.089   5.093
35186SOL    HW1 7390   8.945   9.076   4.999
35186SOL    HW2 7391   8.865   9.023   5.116
35187SOL     OW 7392   7.194   7.337  11.342
35187SOL    HW1 7393   7.171   7.321  11.434
35187SOL    HW2 7394   7.124   7.394  11.310
35188SOL     OW 7395   2.606  10.145   3.645
35188SOL    HW1 7396   2.696  10.119   3.629
35188SOL    HW2 7397   2.557  10.063   3.643
35189SOL     OW 7398   8.352   3.334   0.552
35189SOL    HW1 7399   8.342   3.255   0.499
35189SOL    HW2 7400   8.434   3.374   0.521
35190SOL     OW 7401  13.139   0.268   9.222
35190SOL    HW1 7402  13.226   0.288   9.257
35190SOL    HW2 7403  13.122   0.178   9.251
35191SOL     OW 7404   4.156  11.517  12.057
35191SOL    HW1 7405   4.155  11.435  12.008
35191SOL    HW2 7406   4.246  11.526  12.087
35192SOL     OW 7407   7.517  12.033  10.022
35192SOL    HW1 7408   7.606  12.001  10.013
35192SOL    HW2 7409   7.509  12.102   9.956
35193SOL     OW 7410  12.005   8.359   3.643
35193SOL    HW1 7411  12.006   8.270   3.607
35193SOL    HW2 7412  12.098   8.380   3.656
35194SOL     OW 7413   8.232   3.872   8.917
35194SOL    HW1 7414   8.302   3.810   8.935
35194SOL    HW2 7415   8.274   3.942   8.867
35195SOL     OW 7416  12.614   3.870   9.979
35195SOL    HW1 7417  12.560   3.797   9.948
35195SOL    HW2 7418  12.651   3.907   9.899
35196SOL     OW 7419  13.695  12.051   6.015
35196SOL    HW1 7420  13.714  12.037   5.922
35196SOL    HW2 7421  13.675  12.144   6.021
35197SOL     OW 7422   1.133   1.862   9.712
35197SOL    HW1 7423   1.090   1.863   9.626
35197SOL    HW2 7424   1.100   1.940   9.756
35198SOL     OW 7425   5.358   4.841  14.198
35198SOL    HW1 7426   5.407   4.764  14.171
35198SOL    HW2 7427   5.346   4.891  14.117
35199SOL     OW 7428   0.710   9.093   6.511
35199SOL    HW1 7429   0.743   9.183   6.503
35199SOL    HW2 7430   0.734   9.051   6.429
35200SOL     OW 7431   3.573   3.140  12.258
35200SOL    HW1 7432   3.647   3.188  12.220
35200SOL    HW2 7433   3.555   3.071  12.195
35201SOL     OW 7434   3.600   4.658   1.489
35201SOL    HW1 7435   3.560   4.703   1.414
35201SOL    HW2 7436   3.655   4.590   1.450
35202SOL     OW 7437  12.886  13.267   4.366
35202SOL    HW1 7438  12.916  13.243   4.454
35202SOL    HW2 7439  12.829  13.194   4.340
35203SOL     OW 7440  11.121  14.091  10.171
35203SOL    HW1 7441  11.089  14.030  10.237
35203SOL    HW2 7442  11.114  14.178  10.212
35204SOL     OW 7443  12.376  12.113   4.476
35204SOL    HW1 7444  12.346  12.142   4.390
35204SOL    HW2 7445  12.302  12.130   4.534
35205SOL     OW 7446   0.257   7.229   1.140
35205SOL    HW1 7447   0.195   7.282   1.090
35205SOL    HW2 7448   0.204   7.158   1.177
35206SOL     OW 7449   6.334   9.296   4.298
35206SOL    HW1 7450   6.368   9.248   4.222
35206SOL    HW2 7451   6.318   9.385   4.265
35207SOL     OW 7452  14.056   2.382   2.954
35207SOL    HW1 7453  14.010   2.385   2.870
35207SOL    HW2 7454  14.132   2.440   2.942
35208SOL     OW 7455   6.994   9.860   3.013
35208SOL    HW1 7456   7.057   9.879   3.083
35208SOL    HW2 7457   6.955   9.776   3.036
35209SOL     OW 7458   9.857   7.164   0.965
35209SOL    HW1 7459   9.820   7.089   0.918
35209SOL    HW2 7460   9.789   7.231   0.960
35210SOL     OW 7461  12.477  11.565   0.290
35210SOL    HW1 7462  12.496  11.519   0.372
35210SOL    HW2 7463  12.552  11.623   0.276
35211SOL     OW 7464  13.361  12.906  13.768
35211SOL    HW1 7465  13.382  12.991  13.731
35211SOL    HW2 7466  13.380  12.915  13.861
35212SOL     OW 7467   8.776  12.741  14.446
35212SOL    HW1 7468   8.777  12.814  14.508
35212SOL    HW2 7469   8.759  12.781  14.361
35213SOL     OW 7470  14.128  13.857   7.245
35213SOL    HW1 7471  14.088  13.919   7.184
35213SOL    HW2 7472  14.083  13.775   7.228
35214SOL     OW 7473  13.719  13.277   4.612
35214SOL    HW1 7474  13.709  13.230   4.695
35214SOL    HW2 7475  13.632  13.310   4.592
35215SOL     OW 7476   8.381   1.276   9.147
35215SOL    HW1 7477   8.328   1.291   9.226
35215SOL    HW2 7478   8.384   1.361   9.104
35216SOL     OW 7479   2.231   4.870   9.096
35216SOL    HW1 7480   2.319   4.837   9.112
35216SOL    HW2 7481   2.239   4.922   9.016
35217SOL     OW 7482   8.809   0.451   2.992
35217SOL    HW1 7483   8.723   0.469   3.030
35217SOL    HW2 7484   8.869   0.504   3.044
35218SOL     OW 7485  13.992   1.008   4.344
35218SOL    HW1 7486  14.048   1.082   4.366
35218SOL    HW2 7487  14.053   0.936   4.325
35219SOL     OW 7488   2.994  12.191   0.854
35219SOL    HW1 7489   2.951  12.273   0.830
35219SOL    HW2 7490   2.925  12.141   0.899
35220SOL     OW 7491   3.517   2.044   2.657
35220SOL    HW1 7492   3.523   2.130   2.700
35220SOL    HW2 7493   3.434   2.007   2.687
35221SOL     OW 7494  14.538   0.039  12.769
35221SOL    HW1 7495  14.481   0.077  12.835
35221SOL    HW2 7496  14.504  14.832  12.757
35222SOL     OW 7497  12.601   9.309   7.454
35222SOL    HW1 7498  12.689   9.324   7.488
35222SOL    HW2 7499  12.564   9.243   7.513
35223SOL     OW 7500  12.379   7.483   5.076
35223SOL    HW1 7501  12.394   7.478   4.981
35223SOL    HW2 7502  12.465   7.505   5.112
35224SOL     OW 7503   0.313   1.435  10.192
35224SOL    HW1 7504   0.247   1.379  10.233
35224SOL    HW2 7505   0.276   1.458  10.107
35225SOL     OW 7506   4.717  11.818   5.718
35225SOL    HW1 7507   4.762  11.774   5.646
35225SOL    HW2 7508   4.625  11.813   5.695
35226SOL     OW 7509   2.978   9.727   8.227
35226SOL    HW1 7510   2.982   9.807   8.280
35226SOL    HW2 7511   3.056   9.731   8.173
35227SOL     OW 7512   6.118  13.461  11.152
35227SOL    HW1 7513   6.045  13.481  11.211
35227SOL    HW2 7514   6.147  13.374  11.178
35228SOL     OW 7515  11.529   2.512   1.350
35228SOL    HW1 7516  11.607   2.525   1.296
35228SOL    HW2 7517  11.468   2.465   1.294
35229SOL     OW 7518   6.643   3.954  12.280
35229SOL    HW1 7519   6.655   4.049  12.277
35229SOL    HW2 7520   6.589   3.939  12.358
35230SOL     OW 7521   7.301   7.715   4.920
35230SOL    HW1 7522   7.394   7.710   4.944
35230SOL    HW2 7523   7.268   7.626   4.937
35231SOL     OW 7524  14.840  11.316  11.897
35231SOL    HW1 7525  14.768  11.271  11.853
35231SOL    HW2 7526  14.805  11.403  11.919
35232SOL     OW 7527  14.792  12.383   5.086
35232SOL    HW1 7528  14.867  12.386   5.146
35232SOL    HW2 7529  14.735  12.315   5.123
35233SOL     OW 7530   2.613   3.933  12.179
35233SOL    HW1 7531   2.595   3.856  12.232
35233SOL    HW2 7532   2.702   3.922  12.148
35234SOL     OW 7533   0.156   8.346   5.776
35234SOL    HW1 7534   0.200   8.351   5.861
35234SOL    HW2 7535   0.226   8.345   5.712
35235SOL     OW 7536   3.974   3.658   9.641
35235SOL    HW1 7537   4.057   3.617   9.667
35235SOL    HW2 7538   3.935   3.687   9.723
35236SOL     OW 7539  11.625  14.361   5.372
35236SOL    HW1 7540  11.716  14.388   5.359
35236SOL    HW2 7541  11.625  14.316   5.456
35237SOL     OW 7542  12.667  10.197   2.640
35237SOL    HW1 7543  12.623  10.151   2.568
35237SOL    HW2 7544  12.641  10.288   2.631
35238SOL     OW 7545   1.673   8.555  12.072
35238SOL    HW1 7546   1.634   8.594  11.994
35238SOL    HW2 7547   1.733   8.622  12.104
35239SOL     OW 7548   9.893   4.124  13.540
35239SOL    HW1 7549   9.868   4.160  13.625
35239SOL    HW2 7550   9.972   4.073  13.557
35240SOL     OW 7551   6.873   7.017   1.737
35240SOL    HW1 7552   6.944   6.965   1.775
35240SOL    HW2 7553   6.794   6.986   1.783
35241SOL     OW 7554   8.276   9.129  12.360
35241SOL    HW1 7555   8.264   9.098  12.449
35241SOL    HW2 7556   8.353   9.186  12.364
35242SOL     OW 7557  11.592   0.157  11.554
35242SOL    HW1 7558  11.675   0.110  11.562
35242SOL    HW2 7559  11.581   0.171  11.460
35243SOL     OW 7560   0.794  11.787  14.450
35243SOL    HW1 7561   0.723  11.813  14.392
35243SOL    HW2 7562   0.874  11.811  14.403
35244SOL     OW 7563   9.589   2.702   3.610
35244SOL    HW1 7564   9.554   2.616   3.586
35244SOL    HW2 7565   9.562   2.760   3.539
35245SOL     OW 7566  13.025   8.320  14.669
35245SOL    HW1 7567  12.933   8.330  14.645
35245SOL    HW2 7568  13.028   8.341  14.762
35246SOL     OW 7569  10.735   0.105   5.116
35246SOL    HW1 7570  10.782   0.024   5.096
35246SOL    HW2 7571  10.643   0.083   5.103
35247SOL     OW 7572   8.971   7.380  11.964
35247SOL    HW1 7573   8.982   7.375  12.059
35247SOL    HW2 7574   8.878   7.397  11.952
35248SOL     OW 7575   7.652   0.784   6.661
35248SOL    HW1 7576   7.560   0.784   6.684
35248SOL    HW2 7577   7.673   0.876   6.641
35249SOL     OW 7578  10.504  13.379   0.097
35249SOL    HW1 7579  10.444  13.453   0.099
35249SOL    HW2 7580  10.585  13.411   0.136
35250SOL     OW 7581   5.025   1.745   2.598
35250SOL    HW1 7582   5.112   1.722   2.632
35250SOL    HW2 7583   5.018   1.695   2.516
35251SOL     OW 7584   7.473   5.531   6.933
35251SOL    HW1 7585   7.529   5.503   6.861
35251SOL    HW2 7586   7.384   5.532   6.896
35252SOL     OW 7587  12.292   4.471  12.176
35252SOL    HW1 7588  12.243   4.455  12.096
35252SOL    HW2 7589  12.283   4.565  12.191
35253SOL     OW 7590   6.528  10.312   3.205
35253SOL    HW1 7591   6.523  10.223   3.239
35253SOL    HW2 7592   6.517  10.302   3.110
35254SOL     OW 7593   7.242   4.544   7.147
35254SOL    HW1 7594   7.215   4.455   7.124
35254SOL    HW2 7595   7.191   4.565   7.225
35255SOL     OW 7596  13.192   1.331  11.639
35255SOL    HW1 7597  13.137   1.254  11.629
35255SOL    HW2 7598  13.147   1.383  11.706
35256SOL     OW 7599  13.360   7.012   6.168
35256SOL    HW1 7600  13.424   6.995   6.098
35256SOL    HW2 7601  13.317   6.928   6.183
35257SOL     OW 7602   7.407   1.539  10.409
35257SOL    HW1 7603   7.349   1.581  10.473
35257SOL    HW2 7604   7.436   1.611  10.352
35258SOL     OW 7605   9.150   5.532   6.017
35258SOL    HW1 7606   9.077   5.595   6.019
35258SOL    HW2 7607   9.114   5.456   5.971
35259SOL     OW 7608   2.659  12.394   9.813
35259SOL    HW1 7609   2.693  12.359   9.895
35259SOL    HW2 7610   2.736  12.430   9.769
35260SOL     OW 7611  13.141   0.951  10.424
35260SOL    HW1 7612  13.160   1.044  10.436
35260SOL    HW2 7613  13.145   0.914  10.512
35261SOL     OW 7614  11.634   1.929   5.752
35261SOL    HW1 7615  11.593   2.011   5.724
35261SOL    HW2 7616  11.578   1.861   5.715
35262SOL     OW 7617   2.480  14.472   4.292
35262SOL    HW1 7618   2.456  14.537   4.358
35262SOL    HW2 7619   2.573  14.487   4.276
35263SOL     OW 7620  10.556   9.532   6.314
35263SOL    HW1 7621  10.577   9.532   6.220
35263SOL    HW2 7622  10.479   9.589   6.321
35264SOL     OW 7623   9.214   7.192   9.123
35264SOL    HW1 7624   9.187   7.213   9.034
35264SOL    HW2 7625   9.155   7.123   9.151
35265SOL     OW 7626   8.450  14.364  11.382
35265SOL    HW1 7627   8.367  14.332  11.419
35265SOL    HW2 7628   8.486  14.288  11.335
35266SOL     OW 7629   3.051   0.232   9.253
35266SOL    HW1 7630   3.128   0.223   9.309
35266SOL    HW2 7631   3.078   0.294   9.185
35267SOL     OW 7632   4.106  14.429   6.832
35267SOL    HW1 7633   4.160  14.477   6.770
35267SOL    HW2 7634   4.082  14.349   6.785
35268SOL     OW 7635   9.865   1.529   2.638
35268SOL    HW1 7636   9.822   1.557   2.558
35268SOL    HW2 7637   9.958   1.551   2.625
35269SOL     OW 7638  10.070   1.778   3.270
35269SOL    HW1 7639  10.019   1.708   3.230
35269SOL    HW2 7640  10.110   1.738   3.348
35270SOL     OW 7641   4.237   3.254   7.310
35270SOL    HW1 7642   4.223   3.283   7.400
35270SOL    HW2 7643   4.307   3.310   7.277
35271SOL     OW 7644  12.628   3.700   7.115
35271SOL    HW1 7645  12.711   3.660   7.138
35271SOL    HW2 7646  12.638   3.792   7.140
35272SOL     OW 7647   5.369   2.142  10.137
35272SOL    HW1 7648   5.296   2.082  10.120
35272SOL    HW2 7649   5.433   2.120  10.069
35273SOL     OW 7650   0.996   6.479   0.979
35273SOL    HW1 7651   0.967   6.522   1.059
35273SOL    HW2 7652   1.037   6.549   0.927
35274SOL     OW 7653   8.691   1.500  14.271
35274SOL    HW1 7654   8.667   1.592  14.284
35274SOL    HW2 7655   8.763   1.485  14.331
35275SOL     OW 7656  13.290   2.785   2.353
35275SOL    HW1 7657  13.368   2.744   2.315
35275SOL    HW2 7658  13.304   2.778   2.448
35276SOL     OW 7659   9.985  11.478  14.873
35276SOL    HW1 7660  10.041  11.453   0.064
35276SOL    HW2 7661  10.023  11.560  14.840
35277SOL     OW 7662  12.264  13.822  14.870
35277SOL    HW1 7663  12.351  13.851   0.016
35277SOL    HW2 7664  12.203  13.870   0.044
35278SOL     OW 7665   5.738  10.416   3.245
35278SOL    HW1 7666   5.793  10.345   3.212
35278SOL    HW2 7667   5.734  10.401   3.340
35279SOL     OW 7668  12.593   8.594  13.242
35279SOL    HW1 7669  12.634   8.619  13.325
35279SOL    HW2 7670  12.502   8.622  13.250
35280SOL     OW 7671   6.857  11.397   2.075
35280SOL    HW1 7672   6.788  11.463   2.071
35280SOL    HW2 7673   6.812  11.316   2.098
35281SOL     OW 7674   7.872   6.463  13.779
35281SOL    HW1 7675   7.801   6.520  13.747
35281SOL    HW2 7676   7.886   6.491  13.870
35282SOL     OW 7677   4.433   9.328  11.688
35282SOL    HW1 7678   4.406   9.248  11.732
35282SOL    HW2 7679   4.487   9.374  11.752
35283SOL     OW 7680   5.512   5.268   7.988
35283SOL    HW1 7681   5.596   5.315   7.994
35283SOL    HW2 7682   5.529   5.196   7.928
35284SOL     OW 7683   9.017   2.189  14.374
35284SOL    HW1 7684   8.949   2.228  14.319
35284SOL    HW2 7685   9.099   2.226  14.341
35285SOL     OW 7686   3.134  13.070   1.926
35285SOL    HW1 7687   3.109  13.042   2.014
35285SOL    HW2 7688   3.195  13.143   1.940
35286SOL     OW 7689   4.984  12.798   5.199
35286SOL    HW1 7690   5.012  12.782   5.289
35286SOL    HW2 7691   5.061  12.836   5.157
35287SOL     OW 7692   8.057   1.732   4.455
35287SOL    HW1 7693   8.134   1.788   4.462
35287SOL    HW2 7694   8.060   1.677   4.533
35288SOL     OW 7695   7.367   0.305  11.164
35288SOL    HW1 7696   7.431   0.374  11.147
35288SOL    HW2 7697   7.376   0.286  11.257
35289SOL     OW 7698   8.756  13.612   5.192
35289SOL    HW1 7699   8.682  13.564   5.153
35289SOL    HW2 7700   8.778  13.562   5.271
35290SOL     OW 7701   4.424   8.038  14.216
35290SOL    HW1 7702   4.470   8.045  14.132
35290SOL    HW2 7703   4.429   7.945  14.238
35291SOL     OW 7704   4.589   2.482  10.206
35291SOL    HW1 7705   4.563   2.543  10.136
35291SOL    HW2 7706   4.554   2.397  10.177
35292SOL     OW 7707   7.968  10.523  12.634
35292SOL    HW1 7708   8.029  10.461  12.595
35292SOL    HW2 7709   7.958  10.592  12.569
35293SOL     OW 7710   2.060   1.919   0.823
35293SOL    HW1 7711   2.130   1.881   0.770
35293SOL    HW2 7712   1.980   1.885   0.783
35294SOL     OW 7713  13.714   1.496   4.859
35294SOL    HW1 7714  13.648   1.516   4.926
35294SOL    HW2 7715  13.699   1.403   4.839
35295SOL     OW 7716   7.300   5.420   6.070
35295SOL    HW1 7717   7.316   5.366   6.147
35295SOL    HW2 7718   7.222   5.381   6.030
35296SOL     OW 7719  11.511   9.570   2.641
35296SOL    HW1 7720  11.465   9.652   2.659
35296SOL    HW2 7721  11.512   9.525   2.725
35297SOL     OW 7722   1.808  14.697   0.294
35297SOL    HW1 7723   1.877  14.670   0.355
35297SOL    HW2 7724   1.843  14.775   0.251
35298SOL     OW 7725   9.028   2.381  13.357
35298SOL    HW1 7726   9.088   2.452  13.382
35298SOL    HW2 7727   8.987   2.411  13.277
35299SOL     OW 7728   1.712   6.709  13.048
35299SOL    HW1 7729   1.752   6.666  12.973
35299SOL    HW2 7730   1.777   6.701  13.118
35300SOL     OW 7731   6.986   3.372  13.150
35300SOL    HW1 7732   7.072   3.415  13.153
35300SOL    HW2 7733   6.951   3.383  13.239
35301SOL     OW 7734   2.487   2.501   6.604
35301SOL    HW1 7735   2.494   2.560   6.529
35301SOL    HW2 7736   2.549   2.431   6.586
35302SOL     OW 7737  13.645   6.964   4.433
35302SOL    HW1 7738  13.619   6.951   4.341
35302SOL    HW2 7739  13.605   7.048   4.457
35303SOL     OW 7740   2.789   1.685   2.817
35303SOL    HW1 7741   2.845   1.760   2.796
35303SOL    HW2 7742   2.848   1.621   2.856
35304SOL     OW 7743  11.648   3.621   7.174
35304SOL    HW1 7744  11.703   3.583   7.242
35304SOL    HW2 7745  11.622   3.706   7.208
35305SOL     OW 7746   5.852   9.015  14.604
35305SOL    HW1 7747   5.884   9.028  14.693
35305SOL    HW2 7748   5.788   8.944  14.612
35306SOL     OW 7749  12.861   6.231   0.574
35306SOL    HW1 7750  12.855   6.206   0.482
35306SOL    HW2 7751  12.956   6.239   0.590
35307SOL     OW 7752   1.890   2.864   5.068
35307SOL    HW1 7753   1.962   2.872   5.005
35307SOL    HW2 7754   1.876   2.770   5.075
35308SOL     OW 7755   2.065  10.826   7.547
35308SOL    HW1 7756   2.154  10.795   7.566
35308SOL    HW2 7757   2.067  10.919   7.571
35309SOL     OW 7758   4.445   8.304  11.967
35309SOL    HW1 7759   4.528   8.349  11.983
35309SOL    HW2 7760   4.387   8.373  11.933
35310SOL     OW 7761  10.369   9.379   5.388
35310SOL    HW1 7762  10.295   9.403   5.444
35310SOL    HW2 7763  10.428   9.454   5.394
35311SOL     OW 7764  11.518   1.543   4.842
35311SOL    HW1 7765  11.569   1.573   4.767
35311SOL    HW2 7766  11.581   1.502   4.901
35312SOL     OW 7767   0.089   1.439   2.292
35312SOL    HW1 7768   0.077   1.442   2.197
35312SOL    HW2 7769   0.164   1.496   2.308
35313SOL     OW 7770   2.621   5.123   3.445
35313SOL    HW1 7771   2.527   5.123   3.432
35313SOL    HW2 7772   2.653   5.049   3.394
35314SOL     OW 7773  11.998   6.418   0.504
35314SOL    HW1 7774  12.011   6.419   0.599
35314SOL    HW2 7775  11.966   6.505   0.483
35315SOL     OW 7776   3.103  12.203   4.193
35315SOL    HW1 7777   3.197  12.205   4.209
35315SOL    HW2 7778   3.074  12.120   4.229
35316SOL     OW 7779   9.627   1.069  11.927
35316SOL    HW1 7780   9.593   1.046  12.014
35316SOL    HW2 7781   9.711   1.023  11.921
35317SOL     OW 7782   7.194  11.422  12.664
35317SOL    HW1 7783   7.234  11.487  12.722
35317SOL    HW2 7784   7.128  11.470  12.614
35318SOL     OW 7785   7.402   0.160   8.182
35318SOL    HW1 7786   7.321   0.208   8.166
35318SOL    HW2 7787   7.470   0.227   8.187
35319SOL     OW 7788   4.787   1.097  11.219
35319SOL    HW1 7789   4.806   1.056  11.135
35319SOL    HW2 7790   4.871   1.132  11.249
35320SOL     OW 7791   5.430  10.022  10.581
35320SOL    HW1 7792   5.477   9.941  10.599
35320SOL    HW2 7793   5.489  10.072  10.526
35321SOL     OW 7794  12.117  12.530   3.932
35321SOL    HW1 7795  12.042  12.543   3.875
35321SOL    HW2 7796  12.107  12.442   3.967
35322SOL     OW 7797   3.344  12.386   3.981
35322SOL    HW1 7798   3.429  12.429   3.974
35322SOL    HW2 7799   3.280  12.456   3.963
35323SOL     OW 7800  14.425   7.569   8.333
35323SOL    HW1 7801  14.521   7.572   8.337
35323SOL    HW2 7802  14.405   7.483   8.298
35324SOL     OW 7803  11.803   8.862   5.433
35324SOL    HW1 7804  11.824   8.943   5.480
35324SOL    HW2 7805  11.801   8.795   5.501
35325SOL     OW 7806  12.828   8.085   8.455
35325SOL    HW1 7807  12.762   8.021   8.430
35325SOL    HW2 7808  12.780   8.153   8.502
35326SOL     OW 7809   7.662  13.152   6.982
35326SOL    HW1 7810   7.744  13.162   7.030
35326SOL    HW2 7811   7.610  13.091   7.036
35327SOL     OW 7812   8.504   6.017   2.924
35327SOL    HW1 7813   8.502   6.094   2.982
35327SOL    HW2 7814   8.545   5.949   2.976
35328SOL     OW 7815   5.771   4.967   7.605
35328SOL    HW1 7816   5.784   5.058   7.581
35328SOL    HW2 7817   5.854   4.924   7.582
35329SOL     OW 7818   7.226   7.615   6.836
35329SOL    HW1 7819   7.295   7.654   6.783
35329SOL    HW2 7820   7.145   7.648   6.798
35330SOL     OW 7821  11.090   1.945   7.701
35330SOL    HW1 7822  11.037   1.869   7.678
35330SOL    HW2 7823  11.032   2.000   7.754
35331SOL     OW 7824  12.089  10.629   0.928
35331SOL    HW1 7825  12.063  10.537   0.923
35331SOL    HW2 7826  12.184  10.627   0.936
35332SOL     OW 7827   5.122   2.013   3.810
35332SOL    HW1 7828   5.091   1.991   3.898
35332SOL    HW2 7829   5.073   1.954   3.752
35333SOL     OW 7830   3.236   9.044   1.516
35333SOL    HW1 7831   3.141   9.037   1.508
35333SOL    HW2 7832   3.256   9.133   1.488
35334SOL     OW 7833   7.274  11.445   6.683
35334SOL    HW1 7834   7.192  11.484   6.655
35334SOL    HW2 7835   7.298  11.386   6.611
35335SOL     OW 7836  11.116   2.269   6.548
35335SOL    HW1 7837  11.070   2.211   6.488
35335SOL    HW2 7838  11.047   2.321   6.589
35336SOL     OW 7839   4.185  10.837   3.895
35336SOL    HW1 7840   4.264  10.785   3.912
35336SOL    HW2 7841   4.127  10.777   3.849
35337SOL     OW 7842   6.347   6.580  14.237
35337SOL    HW1 7843   6.280   6.557  14.172
35337SOL    HW2 7844   6.332   6.520  14.310
35338SOL     OW 7845   0.298   4.056   7.194
35338SOL    HW1 7846   0.241   4.070   7.269
35338SOL    HW2 7847   0.321   4.144   7.164
35339SOL     OW 7848  13.573   6.676   9.381
35339SOL    HW1 7849  13.609   6.591   9.359
35339SOL    HW2 7850  13.481   6.659   9.402
35340SOL     OW 7851  14.601   5.860   5.739
35340SOL    HW1 7852  14.636   5.798   5.804
35340SOL    HW2 7853  14.508   5.864   5.759
35341SOL     OW 7854   8.076   3.463   6.038
35341SOL    HW1 7855   8.020   3.420   6.103
35341SOL    HW2 7856   8.051   3.555   6.042
35342SOL     OW 7857   6.562  10.831   7.901
35342SOL    HW1 7858   6.633  10.815   7.839
35342SOL    HW2 7859   6.504  10.893   7.857
35343SOL     OW 7860   3.840  10.894   3.025
35343SOL    HW1 7861   3.818  10.925   3.113
35343SOL    HW2 7862   3.932  10.915   3.015
35344SOL     OW 7863   5.445   7.938   9.432
35344SOL    HW1 7864   5.453   7.930   9.527
35344SOL    HW2 7865   5.445   7.847   9.401
35345SOL     OW 7866   3.008   7.557  12.798
35345SOL    HW1 7867   3.097   7.521  12.798
35345SOL    HW2 7868   2.981   7.555  12.706
35346SOL     OW 7869   7.063   1.070  12.840
35346SOL    HW1 7870   7.082   1.121  12.762
35346SOL    HW2 7871   7.132   1.093  12.902
35347SOL     OW 7872  12.818   7.374   4.107
35347SOL    HW1 7873  12.784   7.386   4.018
35347SOL    HW2 7874  12.834   7.279   4.113
35348SOL     OW 7875   2.616   3.653   9.295
35348SOL    HW1 7876   2.572   3.660   9.210
35348SOL    HW2 7877   2.699   3.610   9.276
35349SOL     OW 7878   1.962   3.403   1.635
35349SOL    HW1 7879   1.919   3.452   1.705
35349SOL    HW2 7880   1.893   3.387   1.570
35350SOL     OW 7881  13.125   6.257   9.493
35350SOL    HW1 7882  13.156   6.346   9.483
35350SOL    HW2 7883  13.048   6.264   9.549
35351SOL     OW 7884   9.440   2.697   2.299
35351SOL    HW1 7885   9.405   2.633   2.361
35351SOL    HW2 7886   9.387   2.776   2.313
35352SOL     OW 7887   4.424  12.576  12.907
35352SOL    HW1 7888   4.411  12.484  12.886
35352SOL    HW2 7889   4.336  12.611  12.920
35353SOL     OW 7890  10.271   8.258  14.069
35353SOL    HW1 7891  10.280   8.342  14.114
35353SOL    HW2 7892  10.360   8.237  14.041
35354SOL     OW 7893   9.792   7.020   8.844
35354SOL    HW1 7894   9.815   6.943   8.895
35354SOL    HW2 7895   9.876   7.058   8.818
35355SOL     OW 7896   7.095   0.811  14.355
35355SOL    HW1 7897   7.189   0.802  14.340
35355SOL    HW2 7898   7.083   0.789  14.447
35356SOL     OW 7899  11.424   9.753   6.852
35356SOL    HW1 7900  11.456   9.686   6.791
35356SOL    HW2 7901  11.333   9.729   6.869
35357SOL     OW 7902  13.068   2.689  12.036
35357SOL    HW1 7903  13.065   2.595  12.056
35357SOL    HW2 7904  13.155   2.702  11.998
35358SOL     OW 7905   5.850   5.582  14.303
35358SOL    HW1 7906   5.758   5.595  14.278
35358SOL    HW2 7907   5.847   5.565  14.397
35359SOL     OW 7908   4.207  10.624   4.813
35359SOL    HW1 7909   4.205  10.690   4.883
35359SOL    HW2 7910   4.115  10.601   4.799
35360SOL     OW 7911   5.661  13.452  14.725
35360SOL    HW1 7912   5.749  13.445  14.688
35360SOL    HW2 7913   5.644  13.546  14.729
35361SOL     OW 7914   8.531  13.987   7.949
35361SOL    HW1 7915   8.454  13.962   7.999
35361SOL    HW2 7916   8.514  13.955   7.861
35362SOL     OW 7917   2.898   8.460   9.970
35362SOL    HW1 7918   2.908   8.384  10.028
35362SOL    HW2 7919   2.839   8.519  10.018
35363SOL     OW 7920   3.690   0.570  13.280
35363SOL    HW1 7921   3.602   0.542  13.257
35363SOL    HW2 7922   3.740   0.489  13.287
35364SOL     OW 7923  13.662   2.871   3.534
35364SOL    HW1 7924  13.700   2.937   3.475
35364SOL    HW2 7925  13.594   2.919   3.582
35365SOL     OW 7926   8.077   2.060   1.091
35365SOL    HW1 7927   8.095   1.967   1.078
35365SOL    HW2 7928   8.162   2.099   1.109
35366SOL     OW 7929   9.861   4.032  10.123
35366SOL    HW1 7930   9.777   4.066  10.154
35366SOL    HW2 7931   9.921   4.046  10.196
35367SOL     OW 7932   8.138   5.738  12.100
35367SOL    HW1 7933   8.112   5.802  12.033
35367SOL    HW2 7934   8.226   5.710  12.073
35368SOL     OW 7935   7.481   8.979   2.774
35368SOL    HW1 7936   7.455   8.903   2.825
35368SOL    HW2 7937   7.471   9.053   2.834
35369SOL     OW 7938   4.550   2.213   5.234
35369SOL    HW1 7939   4.464   2.173   5.243
35369SOL    HW2 7940   4.553   2.280   5.303
35370SOL     OW 7941   6.981  14.637   4.330
35370SOL    HW1 7942   6.969  14.712   4.272
35370SOL    HW2 7943   7.025  14.673   4.407
35371SOL     OW 7944  12.816   1.304  12.370
35371SOL    HW1 7945  12.796   1.361  12.445
35371SOL    HW2 7946  12.894   1.343  12.331
35372SOL     OW 7947  11.190  14.448   5.228
35372SOL    HW1 7948  11.243  14.449   5.308
35372SOL    HW2 7949  11.180  14.540   5.205
35373SOL     OW 7950  10.826   5.310   0.867
35373SOL    HW1 7951  10.859   5.359   0.942
35373SOL    HW2 7952  10.846   5.365   0.792
35374SOL     OW 7953  14.068   0.604   1.970
35374SOL    HW1 7954  13.984   0.563   1.991
35374SOL    HW2 7955  14.084   0.581   1.879
35375SOL     OW 7956   2.577   0.331   3.265
35375SOL    HW1 7957   2.539   0.407   3.222
35375SOL    HW2 7958   2.602   0.273   3.193
35376SOL     OW 7959  10.127   7.359   5.746
35376SOL    HW1 7960  10.211   7.323   5.719
35376SOL    HW2 7961  10.096   7.408   5.670
35377SOL     OW 7962   8.160   7.635   2.523
35377SOL    HW1 7963   8.113   7.630   2.606
35377SOL    HW2 7964   8.200   7.548   2.513
35378SOL     OW 7965   6.333   5.508  10.949
35378SOL    HW1 7966   6.399   5.577  10.954
35378SOL    HW2 7967   6.333   5.468  11.036
35379SOL     OW 7968   6.387  11.056   4.243
35379SOL    HW1 7969   6.377  11.043   4.149
35379SOL    HW2 7970   6.320  11.001   4.283
35380SOL     OW 7971   7.843   0.057   4.835
35380SOL    HW1 7972   7.769  14.879   4.844
35380SOL    HW2 7973   7.904   0.011   4.777
35381SOL     OW 7974   9.154   0.668   8.096
35381SOL    HW1 7975   9.083   0.673   8.161
35381SOL    HW2 7976   9.226   0.715   8.136
35382SOL     OW 7977   5.374   9.603  14.155
35382SOL    HW1 7978   5.307   9.651  14.107
35382SOL    HW2 7979   5.391   9.656  14.232
35383SOL     OW 7980   4.759   8.172   9.842
35383SOL    HW1 7981   4.672   8.194   9.811
35383SOL    HW2 7982   4.818   8.214   9.779
35384SOL     OW 7983   8.984   3.154   6.602
35384SOL    HW1 7984   9.031   3.107   6.671
35384SOL    HW2 7985   8.965   3.240   6.640
35385SOL     OW 7986   3.740   0.391   5.350
35385SOL    HW1 7987   3.729   0.297   5.361
35385SOL    HW2 7988   3.771   0.422   5.435
35386SOL     OW 7989   4.508  13.678   4.063
35386SOL    HW1 7990   4.431  13.661   4.009
35386SOL    HW2 7991   4.474  13.716   4.143
35387SOL     OW 7992   1.235  14.713  14.273
35387SOL    HW1 7993   1.286  14.662  14.210
35387SOL    HW2 7994   1.151  14.667  14.278
35388SOL     OW 7995   9.364  13.131   9.899
35388SOL    HW1 7996   9.448  13.142   9.855
35388SOL    HW2 7997   9.299  13.135   9.828
35389SOL     OW 7998   8.337  11.902   2.284
35389SOL    HW1 7999   8.431  11.910   2.267
35389SOL    HW2 8000   8.297  11.909   2.197
35390SOL     OW 8001   2.626  13.976   7.285
35390SOL    HW1 8002   2.695  13.972   7.219
35390SOL    HW2 8003   2.634  13.894   7.333
35391SOL     OW 8004   1.552   0.413   5.971
35391SOL    HW1 8005   1.498   0.476   5.923
35391SOL    HW2 8006   1.514   0.328   5.950
35392SOL     OW 8007   8.754  13.825   6.139
35392SOL    HW1 8008   8.667  13.834   6.100
35392SOL    HW2 8009   8.758  13.735   6.170
35393SOL     OW 8010  12.722   0.356   2.002
35393SOL    HW1 8011  12.805   0.365   2.050
35393SOL    HW2 8012  12.747   0.354   1.910
35394SOL     OW 8013  14.398   8.835  13.537
35394SOL    HW1 8014  14.323   8.835  13.478
35394SOL    HW2 8015  14.450   8.911  13.510
35395SOL     OW 8016   6.595  11.666   2.626
35395SOL    HW1 8017   6.661  11.606   2.660
35395SOL    HW2 8018   6.640  11.751   2.621
35396SOL     OW 8019  11.923   5.288   7.263
35396SOL    HW1 8020  11.974   5.342   7.203
35396SOL    HW2 8021  11.836   5.328   7.263
35397SOL     OW 8022  13.371   9.359   8.859
35397SOL    HW1 8023  13.384   9.366   8.765
35397SOL    HW2 8024  13.418   9.434   8.895
35398SOL     OW 8025   1.212   8.915   1.502
35398SOL    HW1 8026   1.215   9.000   1.546
35398SOL    HW2 8027   1.124   8.882   1.519
35399SOL     OW 8028   1.836   4.326  11.504
35399SOL    HW1 8029   1.767   4.380  11.544
35399SOL    HW2 8030   1.868   4.272  11.576
35400SOL     OW 8031   0.956   4.010   4.822
35400SOL    HW1 8032   0.933   4.064   4.898
35400SOL    HW2 8033   0.879   4.015   4.765
35401SOL     OW 8034   8.950   1.578   2.933
35401SOL    HW1 8035   9.003   1.510   2.975
35401SOL    HW2 8036   8.877   1.591   2.993
35402SOL     OW 8037   0.608   7.075  10.141
35402SOL    HW1 8038   0.600   7.075  10.045
35402SOL    HW2 8039   0.677   7.012  10.159
35403SOL     OW 8040  11.522  12.371  11.778
35403SOL    HW1 8041  11.453  12.408  11.833
35403SOL    HW2 8042  11.552  12.294  11.825
35404SOL     OW 8043   4.467   4.490   5.443
35404SOL    HW1 8044   4.554   4.450   5.443
35404SOL    HW2 8045   4.479   4.572   5.395
35405SOL     OW 8046  12.754   4.050  12.200
35405SOL    HW1 8047  12.753   4.142  12.226
35405SOL    HW2 8048  12.708   4.047  12.117
35406SOL     OW 8049   0.295   0.849   3.079
35406SOL    HW1 8050   0.263   0.883   2.996
35406SOL    HW2 8051   0.216   0.830   3.129
35407SOL     OW 8052   0.339   9.072   0.459
35407SOL    HW1 8053   0.312   8.989   0.419
35407SOL    HW2 8054   0.259   9.124   0.462
35408SOL     OW 8055   7.683   4.998   1.107
35408SOL    HW1 8056   7.635   5.080   1.124
35408SOL    HW2 8057   7.764   5.008   1.157
35409SOL     OW 8058   9.338   9.723   8.638
35409SOL    HW1 8059   9.259   9.777   8.643
35409SOL    HW2 8060   9.374   9.725   8.726
35410SOL     OW 8061   3.035   7.355   3.249
35410SOL    HW1 8062   3.022   7.397   3.164
35410SOL    HW2 8063   3.106   7.292   3.234
35411SOL     OW 8064   4.977   4.119   2.011
35411SOL    HW1 8065   5.000   4.183   2.078
35411SOL    HW2 8066   4.965   4.171   1.931
35412SOL     OW 8067   6.294   4.279  14.068
35412SOL    HW1 8068   6.252   4.322  13.993
35412SOL    HW2 8069   6.226   4.222  14.104
35413SOL     OW 8070  13.400   5.681   5.007
35413SOL    HW1 8071  13.435   5.625   5.075
35413SOL    HW2 8072  13.324   5.724   5.048
35414SOL     OW 8073  11.530   8.617   9.940
35414SOL    HW1 8074  11.596   8.674   9.900
35414SOL    HW2 8075  11.579   8.541   9.970
35415SOL     OW 8076   4.849   2.114   4.913
35415SOL    HW1 8077   4.847   2.019   4.927
35415SOL    HW2 8078   4.837   2.124   4.819
35416SOL     OW 8079   8.329   6.575   4.649
35416SOL    HW1 8080   8.292   6.521   4.579
35416SOL    HW2 8081   8.295   6.663   4.632
35417SOL     OW 8082  10.637  11.822   8.782
35417SOL    HW1 8083  10.597  11.827   8.695
35417SOL    HW2 8084  10.729  11.845   8.768
35418SOL     OW 8085   8.979  10.373   7.687
35418SOL    HW1 8086   9.045  10.319   7.730
35418SOL    HW2 8087   8.919  10.311   7.646
35419SOL     OW 8088  13.237   7.213   4.716
35419SOL    HW1 8089  13.331   7.217   4.737
35419SOL    HW2 8090  13.201   7.291   4.757
35420SOL     OW 8091  10.998   2.153   8.210
35420SOL    HW1 8092  11.076   2.115   8.168
35420SOL    HW2 8093  11.002   2.246   8.187
35421SOL     OW 8094  13.310   1.223  12.699
35421SOL    HW1 8095  13.309   1.245  12.605
35421SOL    HW2 8096  13.218   1.207  12.720
35422SOL     OW 8097   4.773   2.520   4.643
35422SOL    HW1 8098   4.808   2.531   4.732
35422SOL    HW2 8099   4.759   2.609   4.611
35423SOL     OW 8100  12.453   8.425   1.028
35423SOL    HW1 8101  12.489   8.421   1.117
35423SOL    HW2 8102  12.377   8.368   1.030
35424SOL     OW 8103   5.226  13.148   2.600
35424SOL    HW1 8104   5.313  13.180   2.578
35424SOL    HW2 8105   5.229  13.054   2.580
35425SOL     OW 8106  13.157  12.349   9.600
35425SOL    HW1 8107  13.163  12.257   9.626
35425SOL    HW2 8108  13.247  12.380   9.602
35426SOL     OW 8109   1.940   8.919   0.574
35426SOL    HW1 8110   1.925   8.943   0.483
35426SOL    HW2 8111   1.857   8.879   0.602
35427SOL     OW 8112  13.767   6.104   4.970
35427SOL    HW1 8113  13.674   6.127   4.972
35427SOL    HW2 8114  13.775   6.031   5.033
35428SOL     OW 8115   2.103   8.095   0.547
35428SOL    HW1 8116   2.177   8.044   0.580
35428SOL    HW2 8117   2.115   8.095   0.452
35429SOL     OW 8118   9.492   8.302   2.725
35429SOL    HW1 8119   9.557   8.275   2.661
35429SOL    HW2 8120   9.441   8.224   2.742
35430SOL     OW 8121   7.840  10.060  12.967
35430SOL    HW1 8122   7.871  10.150  12.957
35430SOL    HW2 8123   7.885  10.011  12.898
35431SOL     OW 8124   1.886  11.508   8.096
35431SOL    HW1 8125   1.931  11.585   8.060
35431SOL    HW2 8126   1.819  11.543   8.154
35432SOL     OW 8127   9.080  11.161  12.422
35432SOL    HW1 8128   9.099  11.147  12.515
35432SOL    HW2 8129   9.150  11.219  12.392
35433SOL     OW 8130   4.096   8.678   2.035
35433SOL    HW1 8131   4.034   8.620   2.080
35433SOL    HW2 8132   4.088   8.761   2.081
35434SOL     OW 8133  12.493  12.393   2.764
35434SOL    HW1 8134  12.407  12.432   2.781
35434SOL    HW2 8135  12.552  12.442   2.821
35435SOL     OW 8136   3.428   3.990   4.669
35435SOL    HW1 8137   3.441   3.978   4.763
35435SOL    HW2 8138   3.421   4.085   4.658
35436SOL     OW 8139  13.377   7.722   2.951
35436SOL    HW1 8140  13.316   7.704   3.022
35436SOL    HW2 8141  13.462   7.734   2.993
35437SOL     OW 8142   1.077  12.927  10.295
35437SOL    HW1 8143   1.116  12.876  10.224
35437SOL    HW2 8144   1.006  12.872  10.329
35438SOL     OW 8145   2.699   5.046   3.754
35438SOL    HW1 8146   2.697   5.078   3.664
35438SOL    HW2 8147   2.748   5.113   3.802
35439SOL     OW 8148   8.452   9.621   2.722
35439SOL    HW1 8149   8.512   9.663   2.783
35439SOL    HW2 8150   8.489   9.535   2.706
35440SOL     OW 8151   6.781   6.974   9.988
35440SOL    HW1 8152   6.859   7.014   9.950
35440SOL    HW2 8153   6.727   7.048  10.015
35441SOL     OW 8154   2.376   9.802   3.937
35441SOL    HW1 8155   2.418   9.883   3.968
35441SOL    HW2 8156   2.368   9.747   4.015
35442SOL     OW 8157   2.102   2.459   6.050
35442SOL    HW1 8158   2.014   2.488   6.026
35442SOL    HW2 8159   2.142   2.433   5.967
35443SOL     OW 8160  10.657   1.417   2.978
35443SOL    HW1 8161  10.591   1.485   2.994
35443SOL    HW2 8162  10.718   1.426   3.052
35444SOL     OW 8163   1.452   4.784   4.982
35444SOL    HW1 8164   1.365   4.819   4.968
35444SOL    HW2 8165   1.507   4.830   4.919
35445SOL     OW 8166   2.514  10.003  14.352
35445SOL    HW1 8167   2.510   9.909  14.371
35445SOL    HW2 8168   2.545  10.008  14.262
35446SOL     OW 8169   6.240   4.498   5.882
35446SOL    HW1 8170   6.330   4.480   5.854
35446SOL    HW2 8171   6.245   4.582   5.926
35447SOL     OW 8172  12.283   4.885   8.952
35447SOL    HW1 8173  12.239   4.942   9.015
35447SOL    HW2 8174  12.261   4.923   8.867
35448SOL     OW 8175   5.855  10.977   2.613
35448SOL    HW1 8176   5.817  10.967   2.700
35448SOL    HW2 8177   5.783  11.009   2.558
35449SOL     OW 8178   7.761   8.518   9.063
35449SOL    HW1 8179   7.746   8.444   9.120
35449SOL    HW2 8180   7.854   8.512   9.040
35450SOL     OW 8181   4.645   6.188  13.819
35450SOL    HW1 8182   4.725   6.158  13.861
35450SOL    HW2 8183   4.595   6.231  13.888
35451SOL     OW 8184   8.575   4.461   7.413
35451SOL    HW1 8185   8.526   4.493   7.488
35451SOL    HW2 8186   8.573   4.533   7.349
35452SOL     OW 8187   7.028   2.196   6.800
35452SOL    HW1 8188   6.962   2.200   6.730
35452SOL    HW2 8189   7.032   2.104   6.824
35453SOL     OW 8190  11.058   6.727  11.087
35453SOL    HW1 8191  11.016   6.740  11.002
35453SOL    HW2 8192  11.069   6.632  11.093
35454SOL     OW 8193  12.578   5.923   2.609
35454SOL    HW1 8194  12.652   5.983   2.600
35454SOL    HW2 8195  12.530   5.955   2.685
35455SOL     OW 8196   4.396  12.222   2.171
35455SOL    HW1 8197   4.348  12.296   2.208
35455SOL    HW2 8198   4.456  12.262   2.108
35456SOL     OW 8199   7.359   1.708   0.471
35456SOL    HW1 8200   7.334   1.669   0.387
35456SOL    HW2 8201   7.422   1.646   0.508
35457SOL     OW 8202   1.701   7.372  12.133
35457SOL    HW1 8203   1.780   7.408  12.173
35457SOL    HW2 8204   1.661   7.446  12.088
35458SOL     OW 8205   9.640   9.886   8.711
35458SOL    HW1 8206   9.723   9.839   8.724
35458SOL    HW2 8207   9.575   9.833   8.755
35459SOL     OW 8208  13.538   4.352   6.400
35459SOL    HW1 8209  13.609   4.322   6.344
35459SOL    HW2 8210  13.563   4.324   6.488
35460SOL     OW 8211  11.664   8.204   3.420
35460SOL    HW1 8212  11.685   8.271   3.355
35460SOL    HW2 8213  11.689   8.242   3.504
35461SOL     OW 8214   6.832   9.044  12.990
35461SOL    HW1 8215   6.891   9.018  13.061
35461SOL    HW2 8216   6.816   9.137  13.004
35462SOL     OW 8217  12.576  12.385   2.505
35462SOL    HW1 8218  12.540  12.364   2.591
35462SOL    HW2 8219  12.652  12.328   2.497
35463SOL     OW 8220   7.529   0.848   8.428
35463SOL    HW1 8221   7.489   0.853   8.342
35463SOL    HW2 8222   7.602   0.911   8.424
35464SOL     OW 8223   6.808   2.808   5.729
35464SOL    HW1 8224   6.874   2.815   5.799
35464SOL    HW2 8225   6.740   2.870   5.754
35465SOL     OW 8226  10.142   4.737  12.662
35465SOL    HW1 8227  10.220   4.682  12.664
35465SOL    HW2 8228  10.161   4.810  12.721
35466SOL     OW 8229   9.117   2.781  12.445
35466SOL    HW1 8230   9.049   2.727  12.406
35466SOL    HW2 8231   9.142   2.843  12.376
35467SOL     OW 8232  10.459   8.553  13.165
35467SOL    HW1 8233  10.544   8.513  13.144
35467SOL    HW2 8234  10.407   8.482  13.201
35468SOL     OW 8235   9.514   1.023   8.985
35468SOL    HW1 8236   9.605   1.034   9.010
35468SOL    HW2 8237   9.488   0.939   9.023
35469SOL     OW 8238   0.800   8.387  11.395
35469SOL    HW1 8239   0.868   8.329  11.430
35469SOL    HW2 8240   0.723   8.367  11.447
35470SOL     OW 8241   9.508   7.034   5.640
35470SOL    HW1 8242   9.525   7.125   5.666
35470SOL    HW2 8243   9.462   7.041   5.556
35471SOL     OW 8244  10.798   5.440   3.272
35471SOL    HW1 8245  10.799   5.518   3.328
35471SOL    HW2 8246  10.719   5.448   3.220
35472SOL     OW 8247   2.512   6.664  14.218
35472SOL    HW1 8248   2.542   6.754  14.215
35472SOL    HW2 8249   2.417   6.671  14.233
35473SOL     OW 8250   2.066  11.808   0.099
35473SOL    HW1 8251   2.129  11.826   0.168
35473SOL    HW2 8252   1.981  11.809   0.143
35474SOL     OW 8253   9.700   4.073  10.671
35474SOL    HW1 8254   9.607   4.063  10.650
35474SOL    HW2 8255   9.735   4.127  10.600
35475SOL     OW 8256   0.777   9.874  11.186
35475SOL    HW1 8257   0.774   9.779  11.175
35475SOL    HW2 8258   0.699   9.895  11.237
35476SOL     OW 8259   7.959  13.375   4.225
35476SOL    HW1 8260   7.983  13.357   4.134
35476SOL    HW2 8261   7.869  13.409   4.220
35477SOL     OW 8262   2.608  11.124  12.622
35477SOL    HW1 8263   2.566  11.102  12.539
35477SOL    HW2 8264   2.561  11.072  12.687
35478SOL     OW 8265   7.354   9.160   2.971
35478SOL    HW1 8266   7.349   9.175   3.066
35478SOL    HW2 8267   7.264   9.150   2.943
35479SOL     OW 8268   3.662   7.244  13.087
35479SOL    HW1 8269   3.623   7.159  13.065
35479SOL    HW2 8270   3.595   7.287  13.139
35480SOL     OW 8271   2.133   3.949   7.577
35480SOL    HW1 8272   2.044   3.927   7.605
35480SOL    HW2 8273   2.160   3.874   7.523
35481SOL     OW 8274   9.496  12.170   5.080
35481SOL    HW1 8275   9.548  12.199   5.155
35481SOL    HW2 8276   9.460  12.250   5.043
35482SOL     OW 8277   9.947   7.829   1.590
35482SOL    HW1 8278   9.888   7.771   1.542
35482SOL    HW2 8279  10.026   7.777   1.604
35483SOL     OW 8280  11.382  11.995   8.578
35483SOL    HW1 8281  11.445  12.039   8.520
35483SOL    HW2 8282  11.437  11.950   8.643
35484SOL     OW 8283   2.472  10.440   4.368
35484SOL    HW1 8284   2.421  10.508   4.412
35484SOL    HW2 8285   2.548  10.486   4.333
35485SOL     OW 8286   6.325  10.409   9.459
35485SOL    HW1 8287   6.382  10.348   9.505
35485SOL    HW2 8288   6.364  10.495   9.476
35486SOL     OW 8289   5.372   0.845   1.499
35486SOL    HW1 8290   5.378   0.910   1.429
35486SOL    HW2 8291   5.459   0.804   1.500
35487SOL     OW 8292   7.592  12.876   6.323
35487SOL    HW1 8293   7.562  12.802   6.377
35487SOL    HW2 8294   7.523  12.942   6.332
35488SOL     OW 8295  11.424   1.523   2.342
35488SOL    HW1 8296  11.518   1.537   2.330
35488SOL    HW2 8297  11.384   1.555   2.261
35489SOL     OW 8298   6.579  10.394   1.558
35489SOL    HW1 8299   6.516  10.335   1.517
35489SOL    HW2 8300   6.529  10.473   1.579
35490SOL     OW 8301   1.748   9.749   3.035
35490SOL    HW1 8302   1.693   9.827   3.034
35490SOL    HW2 8303   1.792   9.749   2.949
35491SOL     OW 8304   0.026   9.188   0.722
35491SOL    HW1 8305   0.085   9.250   0.766
35491SOL    HW2 8306   0.039   9.205   0.629
35492SOL     OW 8307   2.468   8.255   7.077
35492SOL    HW1 8308   2.543   8.299   7.036
35492SOL    HW2 8309   2.437   8.194   7.010
35493SOL     OW 8310  10.559  10.995  13.180
35493SOL    HW1 8311  10.595  11.082  13.198
35493SOL    HW2 8312  10.464  11.008  13.179
35494SOL     OW 8313   9.983  10.767  11.182
35494SOL    HW1 8314   9.966  10.730  11.095
35494SOL    HW2 8315  10.026  10.851  11.164
35495SOL     OW 8316  11.095   8.045   0.069
35495SOL    HW1 8317  11.123   8.134   0.092
35495SOL    HW2 8318  11.165   7.989   0.104
35496SOL     OW 8319  13.221   6.976   1.823
35496SOL    HW1 8320  13.312   7.005   1.829
35496SOL    HW2 8321  13.219   6.891   1.866
35497SOL     OW 8322   2.541   0.791  14.177
35497SOL    HW1 8323   2.482   0.741  14.121
35497SOL    HW2 8324   2.487   0.864  14.209
35498SOL     OW 8325  12.989  12.090  13.540
35498SOL    HW1 8326  12.912  12.092  13.483
35498SOL    HW2 8327  12.977  12.163  13.600
35499SOL     OW 8328  13.445   7.285  11.854
35499SOL    HW1 8329  13.428   7.366  11.806
35499SOL    HW2 8330  13.364   7.270  11.903
35500SOL     OW 8331   0.020  13.187  11.858
35500SOL    HW1 8332  14.853  13.155  11.782
35500SOL    HW2 8333  14.866  13.273  11.876
35501SOL     OW 8334   5.362  10.864   4.098
35501SOL    HW1 8335   5.350  10.852   4.004
35501SOL    HW2 8336   5.455  10.848   4.112
35502SOL     OW 8337   0.751  13.435   1.871
35502SOL    HW1 8338   0.827  13.396   1.827
35502SOL    HW2 8339   0.696  13.466   1.799
35503SOL     OW 8340  11.241  12.935   5.740
35503SOL    HW1 8341  11.237  13.006   5.676
35503SOL    HW2 8342  11.294  12.867   5.697
35504SOL     OW 8343  12.351  13.652   5.468
35504SOL    HW1 8344  12.363  13.688   5.381
35504SOL    HW2 8345  12.324  13.727   5.522
35505SOL     OW 8346   8.064   4.315  10.569
35505SOL    HW1 8347   8.043   4.270  10.488
35505SOL    HW2 8348   8.154   4.344  10.557
35506SOL     OW 8349   7.224   5.567   6.775
35506SOL    HW1 8350   7.267   5.551   6.691
35506SOL    HW2 8351   7.133   5.585   6.753
35507SOL     OW 8352   8.388   0.998  12.701
35507SOL    HW1 8353   8.300   0.985  12.666
35507SOL    HW2 8354   8.373   1.021  12.793
35508SOL     OW 8355   3.031  11.614   0.784
35508SOL    HW1 8356   3.066  11.653   0.864
35508SOL    HW2 8357   2.979  11.540   0.814
35509SOL     OW 8358   4.176   0.872   5.235
35509SOL    HW1 8359   4.190   0.948   5.292
35509SOL    HW2 8360   4.130   0.907   5.159
35510SOL     OW 8361   6.661   2.965   6.665
35510SOL    HW1 8362   6.717   3.040   6.646
35510SOL    HW2 8363   6.644   2.971   6.759
35511SOL     OW 8364   2.218  10.950  14.303
35511SOL    HW1 8365   2.269  11.017  14.348
35511SOL    HW2 8366   2.228  10.872  14.358
35512SOL     OW 8367   5.927  12.193   8.170
35512SOL    HW1 8368   5.844  12.179   8.216
35512SOL    HW2 8369   5.912  12.271   8.116
35513SOL     OW 8370  10.764  13.390  12.389
35513SOL    HW1 8371  10.803  13.322  12.445
35513SOL    HW2 8372  10.678  13.406  12.428
35514SOL     OW 8373   4.686   9.616   2.787
35514SOL    HW1 8374   4.682   9.646   2.696
35514SOL    HW2 8375   4.624   9.673   2.833
35515SOL     OW 8376   7.139   4.390   5.635
35515SOL    HW1 8377   7.169   4.423   5.550
35515SOL    HW2 8378   7.219   4.379   5.686
35516SOL     OW 8379   7.813   2.620   3.120
35516SOL    HW1 8380   7.877   2.689   3.139
35516SOL    HW2 8381   7.813   2.565   3.198
35517SOL     OW 8382   3.837   8.688   3.023
35517SOL    HW1 8383   3.908   8.623   3.022
35517SOL    HW2 8384   3.881   8.772   3.020
35518SOL     OW 8385   6.710  12.902   3.563
35518SOL    HW1 8386   6.720  12.830   3.501
35518SOL    HW2 8387   6.620  12.933   3.550
35519SOL     OW 8388   9.568  10.962   0.473
35519SOL    HW1 8389   9.559  11.057   0.479
35519SOL    HW2 8390   9.488  10.932   0.430
35520SOL     OW 8391  14.229   8.086  14.376
35520SOL    HW1 8392  14.180   8.004  14.385
35520SOL    HW2 8393  14.290   8.070  14.305
35521SOL     OW 8394   0.759   7.911  14.719
35521SOL    HW1 8395   0.838   7.908  14.773
35521SOL    HW2 8396   0.743   7.820  14.694
35522SOL     OW 8397  10.716  12.399   4.714
35522SOL    HW1 8398  10.754  12.334   4.773
35522SOL    HW2 8399  10.642  12.354   4.673
35523SOL     OW 8400  14.772   4.210   9.169
35523SOL    HW1 8401  14.705   4.236   9.106
35523SOL    HW2 8402  14.824   4.145   9.122
35524SOL     OW 8403   4.548   5.155   1.179
35524SOL    HW1 8404   4.609   5.086   1.153
35524SOL    HW2 8405   4.592   5.236   1.154
35525SOL     OW 8406   3.460   1.044   4.155
35525SOL    HW1 8407   3.526   1.075   4.216
35525SOL    HW2 8408   3.499   1.057   4.069
35526SOL     OW 8409  11.878   0.410   2.747
35526SOL    HW1 8410  11.938   0.349   2.706
35526SOL    HW2 8411  11.856   0.472   2.677
35527SOL     OW 8412  11.683  13.393  13.555
35527SOL    HW1 8413  11.686  13.384  13.459
35527SOL    HW2 8414  11.616  13.459  13.571
35528SOL     OW 8415   4.919   0.116   6.764
35528SOL    HW1 8416   4.862   0.082   6.695
35528SOL    HW2 8417   4.925   0.044   6.827
35529SOL     OW 8418  11.230   5.866   5.774
35529SOL    HW1 8419  11.216   5.953   5.809
35529SOL    HW2 8420  11.315   5.870   5.730
35530SOL     OW 8421  12.129  12.228   7.059
35530SOL    HW1 8422  12.071  12.291   7.015
35530SOL    HW2 8423  12.107  12.143   7.021
35531SOL     OW 8424   4.392   3.411   1.936
35531SOL    HW1 8425   4.305   3.439   1.967
35531SOL    HW2 8426   4.417   3.479   1.873
35532SOL     OW 8427   2.179   2.424   1.771
35532SOL    HW1 8428   2.236   2.363   1.723
35532SOL    HW2 8429   2.107   2.441   1.711
35533SOL     OW 8430  11.899  13.604   5.101
35533SOL    HW1 8431  11.863  13.680   5.146
35533SOL    HW2 8432  11.863  13.529   5.148
35534SOL     OW 8433   1.645  13.256   2.018
35534SOL    HW1 8434   1.671  13.294   1.934
35534SOL    HW2 8435   1.708  13.291   2.081
35535SOL     OW 8436   0.788   5.484   8.835
35535SOL    HW1 8437   0.744   5.476   8.751
35535SOL    HW2 8438   0.825   5.398   8.852
35536SOL     OW 8439   4.247   3.772  12.774
35536SOL    HW1 8440   4.224   3.784  12.682
35536SOL    HW2 8441   4.188   3.831  12.821
35537SOL     OW 8442   5.552  10.268  11.578
35537SOL    HW1 8443   5.528  10.176  11.585
35537SOL    HW2 8444   5.571  10.282  11.485
35538SOL     OW 8445   0.639  11.059   0.616
35538SOL    HW1 8446   0.598  11.145   0.614
35538SOL    HW2 8447   0.667  11.044   0.526
35539SOL     OW 8448   3.840   2.069   4.705
35539SOL    HW1 8449   3.914   2.101   4.756
35539SOL    HW2 8450   3.791   2.013   4.765
35540SOL     OW 8451   8.047   7.590   8.429
35540SOL    HW1 8452   8.064   7.684   8.428
35540SOL    HW2 8453   7.980   7.577   8.496
35541SOL     OW 8454  12.548   2.707  14.019
35541SOL    HW1 8455  12.532   2.775  13.953
35541SOL    HW2 8456  12.602   2.750  14.085
35542SOL     OW 8457   6.742   5.167  11.270
35542SOL    HW1 8458   6.808   5.216  11.222
35542SOL    HW2 8459   6.765   5.179  11.362
35543SOL     OW 8460   3.810   4.591   8.076
35543SOL    HW1 8461   3.841   4.663   8.022
35543SOL    HW2 8462   3.882   4.528   8.077
35544SOL     OW 8463   2.580   9.087   7.149
35544SOL    HW1 8464   2.493   9.123   7.167
35544SOL    HW2 8465   2.634   9.164   7.129
35545SOL     OW 8466  10.601   9.496  11.526
35545SOL    HW1 8467  10.676   9.555  11.532
35545SOL    HW2 8468  10.598   9.451  11.610
35546SOL     OW 8469  10.773  10.235   4.105
35546SOL    HW1 8470  10.722  10.249   4.026
35546SOL    HW2 8471  10.845  10.177   4.079
35547SOL     OW 8472   9.949   6.128   5.884
35547SOL    HW1 8473   9.898   6.133   5.965
35547SOL    HW2 8474   9.901   6.066   5.829
35548SOL     OW 8475   0.158   8.804   5.113
35548SOL    HW1 8476   0.140   8.711   5.126
35548SOL    HW2 8477   0.212   8.807   5.034
35549SOL     OW 8478   3.732   8.110   5.414
35549SOL    HW1 8479   3.677   8.146   5.483
35549SOL    HW2 8480   3.808   8.076   5.460
35550SOL     OW 8481   9.200   0.147   3.630
35550SOL    HW1 8482   9.220   0.053   3.629
35550SOL    HW2 8483   9.239   0.180   3.548
35551SOL     OW 8484   1.544   6.225   0.990
35551SOL    HW1 8485   1.548   6.134   0.962
35551SOL    HW2 8486   1.453   6.238   1.016
35552SOL     OW 8487   7.924   1.790  14.462
35552SOL    HW1 8488   7.883   1.724  14.518
35552SOL    HW2 8489   8.011   1.804  14.500
35553SOL     OW 8490  11.919   6.598  10.446
35553SOL    HW1 8491  11.895   6.689  10.462
35553SOL    HW2 8492  11.963   6.601  10.361
35554SOL     OW 8493  10.729   3.254  10.127
35554SOL    HW1 8494  10.704   3.191  10.059
35554SOL    HW2 8495  10.821   3.274  10.109
35555SOL     OW 8496   1.872  11.384  14.162
35555SOL    HW1 8497   1.795  11.432  14.192
35555SOL    HW2 8498   1.858  11.294  14.190
35556SOL     OW 8499  11.922   8.063  11.359
35556SOL    HW1 8500  11.970   8.143  11.382
35556SOL    HW2 8501  11.864   8.047  11.433
35557SOL     OW 8502  10.884  11.923   5.688
35557SOL    HW1 8503  10.876  11.830   5.707
35557SOL    HW2 8504  10.949  11.928   5.618
35558SOL     OW 8505  14.419  10.959  14.624
35558SOL    HW1 8506  14.403  10.952  14.718
35558SOL    HW2 8507  14.401  10.871  14.590
35559SOL     OW 8508  12.478  13.799   8.071
35559SOL    HW1 8509  12.408  13.740   8.099
35559SOL    HW2 8510  12.440  13.887   8.080
35560SOL     OW 8511  10.013   3.821  13.397
35560SOL    HW1 8512   9.995   3.743  13.345
35560SOL    HW2 8513   9.981   3.799  13.484
35561SOL     OW 8514   4.064   4.140   7.313
35561SOL    HW1 8515   4.102   4.195   7.245
35561SOL    HW2 8516   4.139   4.100   7.357
35562SOL     OW 8517   1.555   5.571   4.693
35562SOL    HW1 8518   1.638   5.617   4.708
35562SOL    HW2 8519   1.533   5.589   4.602
35563SOL     OW 8520   9.072   0.364   3.333
35563SOL    HW1 8521   8.988   0.396   3.368
35563SOL    HW2 8522   9.133   0.436   3.349
35564SOL     OW 8523   6.929   1.547  12.979
35564SOL    HW1 8524   6.984   1.487  13.031
35564SOL    HW2 8525   6.869   1.489  12.931
35565SOL     OW 8526   8.867   6.725   5.496
35565SOL    HW1 8527   8.914   6.705   5.577
35565SOL    HW2 8528   8.905   6.665   5.431
35566SOL     OW 8529   6.258   8.075  14.204
35566SOL    HW1 8530   6.305   8.003  14.246
35566SOL    HW2 8531   6.322   8.146  14.200
35567SOL     OW 8532   4.637   4.880  10.459
35567SOL    HW1 8533   4.689   4.945  10.505
35567SOL    HW2 8534   4.702   4.824  10.416
35568SOL     OW 8535   4.169   3.984   1.938
35568SOL    HW1 8536   4.247   3.929   1.941
35568SOL    HW2 8537   4.126   3.970   2.023
35569SOL     OW 8538   0.826   7.692   5.567
35569SOL    HW1 8539   0.780   7.776   5.565
35569SOL    HW2 8540   0.788   7.646   5.642
35570SOL     OW 8541   0.286   5.378  13.536
35570SOL    HW1 8542   0.195   5.404  13.550
35570SOL    HW2 8543   0.309   5.419  13.452
35571SOL     OW 8544  11.341   9.910   9.587
35571SOL    HW1 8545  11.308   9.824   9.559
35571SOL    HW2 8546  11.288   9.973   9.539
35572SOL     OW 8547   4.031   6.924   8.543
35572SOL    HW1 8548   4.030   6.943   8.637
35572SOL    HW2 8549   3.940   6.906   8.521
35573SOL     OW 8550   9.572   0.539   0.243
35573SOL    HW1 8551   9.567   0.592   0.322
35573SOL    HW2 8552   9.481   0.519   0.221
35574SOL     OW 8553  11.413   3.654   7.876
35574SOL    HW1 8554  11.322   3.627   7.862
35574SOL    HW2 8555  11.448   3.667   7.788
35575SOL     OW 8556  10.889   5.113  11.257
35575SOL    HW1 8557  10.912   5.027  11.222
35575SOL    HW2 8558  10.930   5.175  11.198
35576SOL     OW 8559   5.155   6.085  10.336
35576SOL    HW1 8560   5.068   6.063  10.303
35576SOL    HW2 8561   5.180   6.010  10.390
35577SOL     OW 8562   9.846  10.308   4.135
35577SOL    HW1 8563   9.778  10.250   4.170
35577SOL    HW2 8564   9.920  10.250   4.119
35578SOL     OW 8565   4.765   9.636   1.743
35578SOL    HW1 8566   4.733   9.557   1.787
35578SOL    HW2 8567   4.851   9.652   1.782
35579SOL     OW 8568   0.399  11.186  14.000
35579SOL    HW1 8569   0.488  11.218  13.986
35579SOL    HW2 8570   0.347  11.231  13.934
35580SOL     OW 8571   3.995   0.051   8.463
35580SOL    HW1 8572   4.075   0.014   8.426
35580SOL    HW2 8573   3.952   0.095   8.389
35581SOL     OW 8574   1.059   7.992   5.431
35581SOL    HW1 8575   1.092   7.904   5.447
35581SOL    HW2 8576   1.083   8.011   5.340
35582SOL     OW 8577  14.718   5.952   5.476
35582SOL    HW1 8578  14.676   5.946   5.562
35582SOL    HW2 8579  14.719   5.862   5.443
35583SOL     OW 8580   5.494   5.972  10.076
35583SOL    HW1 8581   5.474   5.968  10.169
35583SOL    HW2 8582   5.563   5.907  10.063
35584SOL     OW 8583   5.119  11.043   6.269
35584SOL    HW1 8584   5.150  11.061   6.180
35584SOL    HW2 8585   5.060  10.969   6.259
35585SOL     OW 8586   8.017   5.135   1.949
35585SOL    HW1 8587   7.930   5.157   1.915
35585SOL    HW2 8588   8.060   5.088   1.878
35586SOL     OW 8589  10.482   1.945   9.424
35586SOL    HW1 8590  10.423   1.993   9.483
35586SOL    HW2 8591  10.505   1.866   9.473
35587SOL     OW 8592   8.528   1.394  14.758
35587SOL    HW1 8593   8.531   1.425  14.667
35587SOL    HW2 8594   8.609   1.346  14.770
35588SOL     OW 8595   9.516   0.926   4.293
35588SOL    HW1 8596   9.514   0.831   4.300
35588SOL    HW2 8597   9.455   0.957   4.360
35589SOL     OW 8598   0.011   4.238  12.700
35589SOL    HW1 8599   0.003   4.270  12.790
35589SOL    HW2 8600   0.105   4.227  12.687
35590SOL     OW 8601  13.510   8.306   4.285
35590SOL    HW1 8602  13.548   8.355   4.212
35590SOL    HW2 8603  13.504   8.370   4.356
35591SOL     OW 8604   7.615  12.596  11.986
35591SOL    HW1 8605   7.682  12.532  11.964
35591SOL    HW2 8606   7.643  12.631  12.071
35592SOL     OW 8607   8.538   4.375   0.596
35592SOL    HW1 8608   8.578   4.417   0.519
35592SOL    HW2 8609   8.548   4.281   0.580
35593SOL     OW 8610   7.293  11.695  12.410
35593SOL    HW1 8611   7.304  11.634  12.338
35593SOL    HW2 8612   7.360  11.669  12.474
35594SOL     OW 8613   5.299   4.657   2.762
35594SOL    HW1 8614   5.293   4.561   2.755
35594SOL    HW2 8615   5.262   4.677   2.848
35595SOL     OW 8616   2.159   1.836   1.834
35595SOL    HW1 8617   2.231   1.773   1.836
35595SOL    HW2 8618   2.193   1.912   1.881
35596SOL     OW 8619  12.785  14.643   9.758
35596SOL    HW1 8620  12.763  14.603   9.843
35596SOL    HW2 8621  12.879  14.658   9.763
35597SOL     OW 8622  11.161   6.585  14.657
35597SOL    HW1 8623  11.132   6.506  14.702
35597SOL    HW2 8624  11.120   6.657  14.705
35598SOL     OW 8625   9.977  13.485  11.311
35598SOL    HW1 8626   9.977  13.409  11.253
35598SOL    HW2 8627   9.951  13.450  11.396
35599SOL     OW 8628   2.166  13.201   2.739
35599SOL    HW1 8629   2.104  13.269   2.765
35599SOL    HW2 8630   2.242  13.248   2.705
35600SOL     OW 8631   6.857  12.395   1.035
35600SOL    HW1 8632   6.923  12.463   1.020
35600SOL    HW2 8633   6.813  12.421   1.116
35601SOL     OW 8634   0.640   8.351   0.293
35601SOL    HW1 8635   0.633   8.363   0.388
35601SOL    HW2 8636   0.611   8.261   0.278
35602SOL     OW 8637   3.749  11.224   8.143
35602SOL    HW1 8638   3.728  11.262   8.058
35602SOL    HW2 8639   3.749  11.299   8.203
35603SOL     OW 8640   6.011   6.187   3.290
35603SOL    HW1 8641   5.938   6.186   3.352
35603SOL    HW2 8642   6.061   6.107   3.310
35604SOL     OW 8643  13.513  10.811   4.920
35604SOL    HW1 8644  13.491  10.788   4.830
35604SOL    HW2 8645  13.430  10.832   4.961
35605SOL     OW 8646   9.319  14.637  14.052
35605SOL    HW1 8647   9.404  14.671  14.024
35605SOL    HW2 8648   9.260  14.713  14.046
35606SOL     OW 8649   8.983  11.284  11.275
35606SOL    HW1 8650   8.957  11.259  11.186
35606SOL    HW2 8651   8.972  11.379  11.278
35607SOL     OW 8652   8.106  10.968  11.254
35607SOL    HW1 8653   8.145  11.013  11.329
35607SOL    HW2 8654   8.142  10.879  11.258
35608SOL     OW 8655   4.285   3.750  14.535
35608SOL    HW1 8656   4.237   3.669  14.523
35608SOL    HW2 8657   4.292   3.761  14.630
35609SOL     OW 8658   3.557  12.186   8.286
35609SOL    HW1 8659   3.560  12.278   8.309
35609SOL    HW2 8660   3.465  12.168   8.270
35610SOL     OW 8661   3.059  12.919   2.930
35610SOL    HW1 8662   3.051  12.995   2.872
35610SOL    HW2 8663   3.022  12.948   3.014
35611SOL     OW 8664   2.825  11.481   3.553
35611SOL    HW1 8665   2.751  11.519   3.599
35611SOL    HW2 8666   2.896  11.544   3.565
35612SOL     OW 8667   7.906   7.291   6.691
35612SOL    HW1 8668   7.843   7.291   6.764
35612SOL    HW2 8669   7.890   7.208   6.646
35613SOL     OW 8670   0.588   0.299  12.584
35613SOL    HW1 8671   0.594   0.371  12.521
35613SOL    HW2 8672   0.508   0.253  12.561
35614SOL     OW 8673   4.095  13.706  13.423
35614SOL    HW1 8674   4.133  13.788  13.455
35614SOL    HW2 8675   4.113  13.706  13.329
35615SOL     OW 8676   6.769  14.541  14.301
35615SOL    HW1 8677   6.802  14.452  14.290
35615SOL    HW2 8678   6.742  14.545  14.393
35616SOL     OW 8679  14.120   0.867   5.309
35616SOL    HW1 8680  14.103   0.940   5.368
35616SOL    HW2 8681  14.128   0.791   5.366
35617SOL     OW 8682  14.831  11.173   5.407
35617SOL    HW1 8683  14.825  11.198   5.315
35617SOL    HW2 8684  14.848  11.254   5.454
35618SOL     OW 8685   7.617  12.374   6.819
35618SOL    HW1 8686   7.711  12.391   6.828
35618SOL    HW2 8687   7.609  12.280   6.836
35619SOL     OW 8688  13.267  14.149   9.012
35619SOL    HW1 8689  13.213  14.227   9.025
35619SOL    HW2 8690  13.357  14.182   9.016
35620SOL     OW 8691   6.927   0.904  11.486
35620SOL    HW1 8692   6.930   0.979  11.427
35620SOL    HW2 8693   6.977   0.932  11.563
35621SOL     OW 8694   7.329   2.183   7.343
35621SOL    HW1 8695   7.287   2.104   7.309
35621SOL    HW2 8696   7.263   2.251   7.334
35622SOL     OW 8697  11.212   8.288  12.776
35622SOL    HW1 8698  11.230   8.202  12.736
35622SOL    HW2 8699  11.296   8.334  12.769
35623SOL     OW 8700   6.511  11.149   2.019
35623SOL    HW1 8701   6.459  11.222   2.051
35623SOL    HW2 8702   6.583  11.142   2.081
35624SOL     OW 8703   0.666  13.428  12.210
35624SOL    HW1 8704   0.692  13.520  12.217
35624SOL    HW2 8705   0.731  13.389  12.151
35625SOL     OW 8706  12.568  13.508   7.044
35625SOL    HW1 8707  12.534  13.570   7.109
35625SOL    HW2 8708  12.556  13.422   7.086
35626SOL     OW 8709  13.241   8.847  10.314
35626SOL    HW1 8710  13.153   8.867  10.346
35626SOL    HW2 8711  13.253   8.906  10.240
35627SOL     OW 8712  10.952   1.945  12.599
35627SOL    HW1 8713  11.035   1.933  12.645
35627SOL    HW2 8714  10.897   1.992  12.661
35628SOL     OW 8715   7.264   8.536  10.056
35628SOL    HW1 8716   7.183   8.495  10.027
35628SOL    HW2 8717   7.250   8.629  10.041
35629SOL     OW 8718   3.629   8.183   1.586
35629SOL    HW1 8719   3.650   8.114   1.523
35629SOL    HW2 8720   3.544   8.216   1.557
35630SOL     OW 8721   7.488   9.673   5.185
35630SOL    HW1 8722   7.434   9.745   5.219
35630SOL    HW2 8723   7.442   9.594   5.213
35631SOL     OW 8724  11.714   5.383   4.048
35631SOL    HW1 8725  11.639   5.347   4.000
35631SOL    HW2 8726  11.775   5.411   3.979
35632SOL     OW 8727   8.152   2.072   7.781
35632SOL    HW1 8728   8.204   2.142   7.741
35632SOL    HW2 8729   8.084   2.053   7.716
35633SOL     OW 8730   1.540   5.957   4.198
35633SOL    HW1 8731   1.489   5.915   4.129
35633SOL    HW2 8732   1.629   5.925   4.185
35634SOL     OW 8733   9.377  12.130   9.135
35634SOL    HW1 8734   9.437  12.154   9.065
35634SOL    HW2 8735   9.318  12.065   9.095
35635SOL     OW 8736  11.377   9.736   5.961
35635SOL    HW1 8737  11.398   9.700   5.875
35635SOL    HW2 8738  11.345   9.661   6.011
35636SOL     OW 8739   9.852   9.166   3.474
35636SOL    HW1 8740   9.917   9.234   3.455
35636SOL    HW2 8741   9.875   9.094   3.416
35637SOL     OW 8742   4.892   1.035  11.862
35637SOL    HW1 8743   4.869   0.947  11.830
35637SOL    HW2 8744   4.833   1.094  11.815
35638SOL     OW 8745   6.009   3.958  14.665
35638SOL    HW1 8746   5.968   4.034  14.624
35638SOL    HW2 8747   6.014   3.980  14.758
35639SOL     OW 8748   2.982  12.734   0.033
35639SOL    HW1 8749   3.029  12.681  14.851
35639SOL    HW2 8750   3.041  12.807   0.052
35640SOL     OW 8751   5.270   1.201   7.993
35640SOL    HW1 8752   5.276   1.295   7.975
35640SOL    HW2 8753   5.185   1.190   8.037
35641SOL     OW 8754   3.300  10.262   6.520
35641SOL    HW1 8755   3.222  10.221   6.480
35641SOL    HW2 8756   3.362  10.190   6.529
35642SOL     OW 8757   9.976  12.543   4.156
35642SOL    HW1 8758   9.915  12.497   4.099
35642SOL    HW2 8759  10.058  12.546   4.106
35643SOL     OW 8760   1.098   3.222   8.472
35643SOL    HW1 8761   1.010   3.186   8.481
35643SOL    HW2 8762   1.156   3.146   8.481
35644SOL     OW 8763   2.275   3.763  14.200
35644SOL    HW1 8764   2.206   3.708  14.236
35644SOL    HW2 8765   2.245   3.783  14.111
35645SOL     OW 8766  12.315   2.434   8.850
35645SOL    HW1 8767  12.252   2.408   8.917
35645SOL    HW2 8768  12.272   2.414   8.767
35646SOL     OW 8769   0.376  11.707  13.797
35646SOL    HW1 8770   0.396  11.800  13.807
35646SOL    HW2 8771   0.398  11.669  13.882
35647SOL     OW 8772   4.946  10.054   7.628
35647SOL    HW1 8773   4.872  10.075   7.570
35647SOL    HW2 8774   4.917  10.083   7.714
35648SOL     OW 8775   6.007   6.129   0.050
35648SOL    HW1 8776   5.992   6.039   0.019
35648SOL    HW2 8777   6.100   6.144   0.037
35649SOL     OW 8778   2.389   8.078   9.489
35649SOL    HW1 8779   2.359   8.047   9.403
35649SOL    HW2 8780   2.484   8.066   9.488
35650SOL     OW 8781   5.998   0.178   1.159
35650SOL    HW1 8782   6.021   0.228   1.237
35650SOL    HW2 8783   5.970   0.093   1.193
35651SOL     OW 8784   7.083   9.797   4.164
35651SOL    HW1 8785   7.064   9.888   4.139
35651SOL    HW2 8786   7.028   9.782   4.241
35652SOL     OW 8787   3.990   6.485   7.073
35652SOL    HW1 8788   3.907   6.523   7.101
35652SOL    HW2 8789   3.974   6.459   6.982
35653SOL     OW 8790  12.534  13.340  12.611
35653SOL    HW1 8791  12.593  13.332  12.686
35653SOL    HW2 8792  12.452  13.301  12.641
35654SOL     OW 8793  12.746   5.749   9.226
35654SOL    HW1 8794  12.684   5.682   9.196
35654SOL    HW2 8795  12.786   5.782   9.145
35655SOL     OW 8796  12.515  14.544   3.808
35655SOL    HW1 8797  12.433  14.536   3.855
35655SOL    HW2 8798  12.510  14.478   3.739
35656SOL     OW 8799   7.629   1.228   5.200
35656SOL    HW1 8800   7.685   1.172   5.252
35656SOL    HW2 8801   7.674   1.313   5.198
35657SOL     OW 8802   5.376   9.349   4.290
35657SOL    HW1 8803   5.424   9.266   4.299
35657SOL    HW2 8804   5.416   9.391   4.214
35658SOL     OW 8805   0.052   9.177   0.435
35658SOL    HW1 8806  14.845   9.209   0.444
35658SOL    HW2 8807   0.056   9.139   0.347
35659SOL     OW 8808   6.034   5.784  13.453
35659SOL    HW1 8809   5.940   5.805  13.450
35659SOL    HW2 8810   6.077   5.865  13.427
35660SOL     OW 8811   6.160   9.689   5.345
35660SOL    HW1 8812   6.183   9.631   5.273
35660SOL    HW2 8813   6.217   9.765   5.335
35661SOL     OW 8814  13.741  10.345   3.312
35661SOL    HW1 8815  13.733  10.311   3.223
35661SOL    HW2 8816  13.736  10.268   3.368
35662SOL     OW 8817   9.634   2.824   4.800
35662SOL    HW1 8818   9.717   2.847   4.843
35662SOL    HW2 8819   9.576   2.797   4.872
35663SOL     OW 8820  10.911   0.933  14.026
35663SOL    HW1 8821  10.819   0.957  14.019
35663SOL    HW2 8822  10.911   0.848  14.069
35664SOL     OW 8823   9.684  13.112   8.589
35664SOL    HW1 8824   9.710  13.022   8.569
35664SOL    HW2 8825   9.669  13.112   8.684
35665SOL     OW 8826  11.877   0.838   6.570
35665SOL    HW1 8827  11.869   0.887   6.488
35665SOL    HW2 8828  11.787   0.814   6.592
35666SOL     OW 8829   8.040  14.869   5.023
35666SOL    HW1 8830   7.973  14.869   4.954
35666SOL    HW2 8831   7.996   0.025   5.099
35667SOL     OW 8832   9.530  12.601  13.983
35667SOL    HW1 8833   9.441  12.633  13.996
35667SOL    HW2 8834   9.521  12.506  13.973
35668SOL     OW 8835   7.387   9.158  11.871
35668SOL    HW1 8836   7.398   9.251  11.850
35668SOL    HW2 8837   7.416   9.112  11.792
35669SOL     OW 8838  12.041   7.195   7.724
35669SOL    HW1 8839  12.097   7.139   7.777
35669SOL    HW2 8840  11.957   7.148   7.720
35670SOL     OW 8841   2.388   8.155   3.364
35670SOL    HW1 8842   2.461   8.212   3.340
35670SOL    HW2 8843   2.409   8.071   3.322
35671SOL     OW 8844   0.314  13.215  14.318
35671SOL    HW1 8845   0.396  13.199  14.273
35671SOL    HW2 8846   0.303  13.310  14.315
35672SOL     OW 8847   4.120   7.581  12.946
35672SOL    HW1 8848   4.141   7.505  12.999
35672SOL    HW2 8849   4.183   7.648  12.972
35673SOL     OW 8850   0.224   7.726  10.815
35673SOL    HW1 8851   0.269   7.808  10.792
35673SOL    HW2 8852   0.161   7.713  10.743
35674SOL     OW 8853   7.765   6.981   6.413
35674SOL    HW1 8854   7.740   6.892   6.388
35674SOL    HW2 8855   7.684   7.032   6.408
35675SOL     OW 8856   4.580   0.270  14.053
35675SOL    HW1 8857   4.547   0.272  14.143
35675SOL    HW2 8858   4.516   0.216  14.006
35676SOL     OW 8859   4.047  10.698   9.071
35676SOL    HW1 8860   3.952  10.696   9.072
35676SOL    HW2 8861   4.070  10.788   9.093
35677SOL     OW 8862  11.230   7.138  12.367
35677SOL    HW1 8863  11.235   7.209  12.431
35677SOL    HW2 8864  11.220   7.183  12.283
35678SOL     OW 8865  12.338  11.567  11.854
35678SOL    HW1 8866  12.369  11.609  11.934
35678SOL    HW2 8867  12.391  11.487  11.846
35679SOL     OW 8868   3.405   7.571  11.509
35679SOL    HW1 8869   3.329   7.629  11.507
35679SOL    HW2 8870   3.379   7.499  11.566
35680SOL     OW 8871   8.726   1.708   3.970
35680SOL    HW1 8872   8.681   1.628   3.998
35680SOL    HW2 8873   8.672   1.779   4.003
35681SOL     OW 8874   2.225  13.190   4.305
35681SOL    HW1 8875   2.191  13.239   4.231
35681SOL    HW2 8876   2.148  13.153   4.347
35682SOL     OW 8877   4.734   8.657   5.699
35682SOL    HW1 8878   4.821   8.622   5.718
35682SOL    HW2 8879   4.738   8.680   5.606
35683SOL     OW 8880   6.707   0.998   2.805
35683SOL    HW1 8881   6.767   0.981   2.732
35683SOL    HW2 8882   6.754   1.060   2.861
35684SOL     OW 8883   4.018   2.610  13.448
35684SOL    HW1 8884   4.028   2.517  13.429
35684SOL    HW2 8885   4.035   2.617  13.542
35685SOL     OW 8886   6.915   6.399   7.302
35685SOL    HW1 8887   6.887   6.488   7.282
35685SOL    HW2 8888   6.877   6.346   7.232
35686SOL     OW 8889   9.181   8.056  10.191
35686SOL    HW1 8890   9.168   8.085  10.101
35686SOL    HW2 8891   9.151   8.129  10.245
35687SOL     OW 8892   6.811  10.144   6.390
35687SOL    HW1 8893   6.828  10.103   6.305
35687SOL    HW2 8894   6.898  10.154   6.430
35688SOL     OW 8895   1.380  13.562   5.822
35688SOL    HW1 8896   1.355  13.510   5.899
35688SOL    HW2 8897   1.362  13.652   5.847
35689SOL     OW 8898  13.572  14.058   0.988
35689SOL    HW1 8899  13.665  14.057   1.007
35689SOL    HW2 8900  13.534  13.992   1.046
35690SOL     OW 8901   3.867   3.239   1.456
35690SOL    HW1 8902   3.812   3.216   1.382
35690SOL    HW2 8903   3.811   3.227   1.533
35691SOL     OW 8904   4.738   9.204   1.427
35691SOL    HW1 8905   4.695   9.154   1.496
35691SOL    HW2 8906   4.802   9.144   1.389
35692SOL     OW 8907  11.167  12.726   1.820
35692SOL    HW1 8908  11.102  12.697   1.757
35692SOL    HW2 8909  11.117  12.746   1.899
35693SOL     OW 8910   9.859   0.699   5.216
35693SOL    HW1 8911   9.861   0.735   5.305
35693SOL    HW2 8912   9.931   0.637   5.214
35694SOL     OW 8913  14.185   0.473   1.682
35694SOL    HW1 8914  14.205   0.566   1.668
35694SOL    HW2 8915  14.114   0.455   1.621
35695SOL     OW 8916  13.930   4.125   5.160
35695SOL    HW1 8917  13.869   4.147   5.231
35695SOL    HW2 8918  14.013   4.107   5.204
35696SOL     OW 8919   3.660   8.094   4.167
35696SOL    HW1 8920   3.727   8.135   4.222
35696SOL    HW2 8921   3.596   8.058   4.230
35697SOL     OW 8922  11.452   8.690   8.137
35697SOL    HW1 8923  11.491   8.776   8.125
35697SOL    HW2 8924  11.475   8.666   8.227
35698SOL     OW 8925   9.384   2.044   9.839
35698SOL    HW1 8926   9.471   2.085   9.835
35698SOL    HW2 8927   9.402   1.952   9.854
35699SOL     OW 8928   4.791  10.771   5.275
35699SOL    HW1 8929   4.833  10.706   5.331
35699SOL    HW2 8930   4.829  10.855   5.302
35700SOL     OW 8931   5.447   1.599  12.542
35700SOL    HW1 8932   5.430   1.681  12.588
35700SOL    HW2 8933   5.363   1.552  12.544
35701SOL     OW 8934   3.090  10.780  13.533
35701SOL    HW1 8935   3.129  10.792  13.620
35701SOL    HW2 8936   3.010  10.833  13.535
35702SOL     OW 8937   3.561   1.798  13.082
35702SOL    HW1 8938   3.611   1.723  13.050
35702SOL    HW2 8939   3.539   1.848  13.004
35703SOL     OW 8940  13.362   2.719   4.917
35703SOL    HW1 8941  13.380   2.710   4.824
35703SOL    HW2 8942  13.442   2.758   4.953
35704SOL     OW 8943   4.344  13.878   1.309
35704SOL    HW1 8944   4.298  13.959   1.332
35704SOL    HW2 8945   4.368  13.839   1.393
35705SOL     OW 8946  12.792  14.177  10.215
35705SOL    HW1 8947  12.851  14.102  10.229
35705SOL    HW2 8948  12.851  14.249  10.190
35706SOL     OW 8949   4.610   9.817   9.503
35706SOL    HW1 8950   4.655   9.886   9.552
35706SOL    HW2 8951   4.546   9.864   9.449
35707SOL     OW 8952  12.551  11.092   0.815
35707SOL    HW1 8953  12.626  11.074   0.872
35707SOL    HW2 8954  12.589  11.128   0.735
35708SOL     OW 8955  10.494   1.712   1.232
35708SOL    HW1 8956  10.519   1.804   1.235
35708SOL    HW2 8957  10.481   1.688   1.324
35709SOL     OW 8958   1.620  13.234   8.369
35709SOL    HW1 8959   1.599  13.321   8.402
35709SOL    HW2 8960   1.547  13.212   8.310
35710SOL     OW 8961   9.950  13.533   8.704
35710SOL    HW1 8962  10.004  13.565   8.776
35710SOL    HW2 8963   9.970  13.591   8.631
35711SOL     OW 8964  10.349  14.452   8.016
35711SOL    HW1 8965  10.391  14.536   7.994
35711SOL    HW2 8966  10.263  14.477   8.051
35712SOL     OW 8967  14.642  12.336   8.029
35712SOL    HW1 8968  14.721  12.319   7.978
35712SOL    HW2 8969  14.629  12.257   8.081
35713SOL     OW 8970  13.082   3.069   7.720
35713SOL    HW1 8971  13.173   3.038   7.722
35713SOL    HW2 8972  13.073   3.120   7.800
35714SOL     OW 8973   6.238   8.442   7.210
35714SOL    HW1 8974   6.273   8.444   7.121
35714SOL    HW2 8975   6.313   8.462   7.266
35715SOL     OW 8976   1.360  13.549   4.009
35715SOL    HW1 8977   1.450  13.553   4.043
35715SOL    HW2 8978   1.331  13.460   4.028
35716SOL     OW 8979  11.697   1.998  14.417
35716SOL    HW1 8980  11.788   2.019  14.439
35716SOL    HW2 8981  11.657   2.083  14.396
35717SOL     OW 8982   7.331   3.997  10.533
35717SOL    HW1 8983   7.356   3.932  10.468
35717SOL    HW2 8984   7.410   4.050  10.547
35718SOL     OW 8985   5.074  11.946   8.515
35718SOL    HW1 8986   5.161  11.982   8.496
35718SOL    HW2 8987   5.031  12.014   8.566
35719SOL     OW 8988   8.357  13.985   9.563
35719SOL    HW1 8989   8.402  13.929   9.500
35719SOL    HW2 8990   8.272  14.003   9.523
35720SOL     OW 8991   7.487  11.350   1.652
35720SOL    HW1 8992   7.398  11.384   1.637
35720SOL    HW2 8993   7.486  11.322   1.744
35721SOL     OW 8994   0.108   9.243  12.443
35721SOL    HW1 8995   0.042   9.309  12.462
35721SOL    HW2 8996   0.147   9.271  12.360
35722SOL     OW 8997  11.997  11.639   8.431
35722SOL    HW1 8998  12.054  11.574   8.471
35722SOL    HW2 8999  12.035  11.723   8.457
35723SOL     OW 9000   8.603  13.788  10.983
35723SOL    HW1 9001   8.574  13.871  10.945
35723SOL    HW2 9002   8.536  13.725  10.957
35724SOL     OW 9003  14.719  10.398   7.978
35724SOL    HW1 9004  14.680  10.461   7.918
35724SOL    HW2 9005  14.655  10.390   8.049
35725SOL     OW 9006  10.505   3.917  13.229
35725SOL    HW1 9007  10.438   3.935  13.295
35725SOL    HW2 9008  10.508   3.821  13.224
35726SOL     OW 9009   4.979  10.152   8.242
35726SOL    HW1 9010   4.957  10.185   8.330
35726SOL    HW2 9011   4.940  10.216   8.183
35727SOL     OW 9012   8.205  10.942  10.638
35727SOL    HW1 9013   8.274  10.996  10.600
35727SOL    HW2 9014   8.235  10.852  10.624
35728SOL     OW 9015   9.020   3.025   8.019
35728SOL    HW1 9016   9.090   2.988   8.072
35728SOL    HW2 9017   9.055   3.025   7.929
35729SOL     OW 9018  11.944   8.769   7.299
35729SOL    HW1 9019  11.946   8.673   7.293
35729SOL    HW2 9020  11.920   8.787   7.390
35730SOL     OW 9021   4.097   5.499   3.573
35730SOL    HW1 9022   4.101   5.589   3.543
35730SOL    HW2 9023   4.086   5.505   3.668
35731SOL     OW 9024   6.263  13.630   4.711
35731SOL    HW1 9025   6.248  13.720   4.682
35731SOL    HW2 9026   6.322  13.639   4.786
35732SOL     OW 9027   4.278   9.284   9.027
35732SOL    HW1 9028   4.224   9.357   9.058
35732SOL    HW2 9029   4.292   9.303   8.934
35733SOL     OW 9030   7.964  14.426   1.629
35733SOL    HW1 9031   7.911  14.481   1.686
35733SOL    HW2 9032   8.054  14.454   1.645
35734SOL     OW 9033   9.206   2.676   0.642
35734SOL    HW1 9034   9.252   2.677   0.726
35734SOL    HW2 9035   9.275   2.666   0.577
35735SOL     OW 9036   9.220   8.815   8.903
35735SOL    HW1 9037   9.135   8.831   8.944
35735SOL    HW2 9038   9.283   8.824   8.975
35736SOL     OW 9039  12.441   1.472   3.184
35736SOL    HW1 9040  12.519   1.498   3.233
35736SOL    HW2 9041  12.383   1.433   3.249
35737SOL     OW 9042  12.218  11.501  11.030
35737SOL    HW1 9043  12.239  11.470  11.117
35737SOL    HW2 9044  12.268  11.582  11.020
35738SOL     OW 9045  13.002   7.789   7.048
35738SOL    HW1 9046  13.074   7.769   7.107
35738SOL    HW2 9047  12.938   7.834   7.102
35739SOL     OW 9048   8.967  10.711   1.782
35739SOL    HW1 9049   8.986  10.802   1.760
35739SOL    HW2 9050   8.872  10.707   1.788
35740SOL     OW 9051  13.852   0.444   4.959
35740SOL    HW1 9052  13.891   0.407   4.880
35740SOL    HW2 9053  13.814   0.368   5.005
35741SOL     OW 9054   6.930   4.507   6.349
35741SOL    HW1 9055   6.964   4.432   6.300
35741SOL    HW2 9056   6.843   4.478   6.379
35742SOL     OW 9057   4.802   7.848  14.518
35742SOL    HW1 9058   4.844   7.830  14.435
35742SOL    HW2 9059   4.727   7.904  14.496
35743SOL     OW 9060   9.821   4.672   8.820
35743SOL    HW1 9061   9.891   4.701   8.762
35743SOL    HW2 9062   9.747   4.730   8.800
35744SOL     OW 9063   3.173   1.483   7.322
35744SOL    HW1 9064   3.260   1.457   7.353
35744SOL    HW2 9065   3.113   1.440   7.383
35745SOL     OW 9066  13.923  10.325   3.589
35745SOL    HW1 9067  13.871  10.248   3.565
35745SOL    HW2 9068  13.859  10.395   3.596
35746SOL     OW 9069   4.325   1.400  10.192
35746SOL    HW1 9070   4.356   1.348  10.267
35746SOL    HW2 9071   4.270   1.468  10.232
35747SOL     OW 9072   9.753   6.186   7.422
35747SOL    HW1 9073   9.780   6.125   7.353
35747SOL    HW2 9074   9.794   6.269   7.398
35748SOL     OW 9075   9.402  14.650  11.931
35748SOL    HW1 9076   9.452  14.595  11.992
35748SOL    HW2 9077   9.339  14.697  11.986
35749SOL     OW 9078   0.828   7.053   7.119
35749SOL    HW1 9079   0.913   7.043   7.162
35749SOL    HW2 9080   0.844   7.114   7.047
35750SOL     OW 9081   1.932   2.334  13.690
35750SOL    HW1 9082   1.938   2.304  13.599
35750SOL    HW2 9083   2.023   2.348  13.716
35751SOL     OW 9084   1.683  13.534   2.743
35751SOL    HW1 9085   1.763  13.485   2.763
35751SOL    HW2 9086   1.708  13.590   2.669
35752SOL     OW 9087   5.313  10.375   5.145
35752SOL    HW1 9088   5.352  10.322   5.075
35752SOL    HW2 9089   5.363  10.354   5.223
35753SOL     OW 9090  12.398   1.222   4.539
35753SOL    HW1 9091  12.446   1.300   4.568
35753SOL    HW2 9092  12.425   1.210   4.448
35754SOL     OW 9093  14.737  12.858   4.629
35754SOL    HW1 9094  14.730  12.913   4.707
35754SOL    HW2 9095  14.647  12.845   4.601
35755SOL     OW 9096  14.769   8.694  10.274
35755SOL    HW1 9097  14.823   8.681  10.352
35755SOL    HW2 9098  14.829   8.680  10.201
35756SOL     OW 9099  12.200   0.478   2.149
35756SOL    HW1 9100  12.270   0.480   2.213
35756SOL    HW2 9101  12.185   0.385   2.131
35757SOL     OW 9102   8.994  12.134   3.031
35757SOL    HW1 9103   9.038  12.193   2.970
35757SOL    HW2 9104   8.915  12.106   2.984
35758SOL     OW 9105  11.404  12.882  11.971
35758SOL    HW1 9106  11.459  12.943  11.923
35758SOL    HW2 9107  11.332  12.861  11.911
35759SOL     OW 9108  12.907   0.557   7.410
35759SOL    HW1 9109  12.917   0.465   7.431
35759SOL    HW2 9110  12.917   0.561   7.315
35760SOL     OW 9111   9.490   8.339   3.801
35760SOL    HW1 9112   9.503   8.386   3.883
35760SOL    HW2 9113   9.395   8.324   3.797
35761SOL     OW 9114  12.573   3.431   6.612
35761SOL    HW1 9115  12.529   3.349   6.638
35761SOL    HW2 9116  12.505   3.498   6.620
35762SOL     OW 9117  12.238   4.677   6.811
35762SOL    HW1 9118  12.274   4.596   6.846
35762SOL    HW2 9119  12.168   4.700   6.873
35763SOL     OW 9120   6.402   8.087   2.121
35763SOL    HW1 9121   6.326   8.133   2.085
35763SOL    HW2 9122   6.465   8.157   2.139
35764SOL     OW 9123   2.888   9.663   9.215
35764SOL    HW1 9124   2.900   9.751   9.180
35764SOL    HW2 9125   2.938   9.607   9.156
35765SOL     OW 9126   2.979   1.487   8.848
35765SOL    HW1 9127   2.907   1.547   8.828
35765SOL    HW2 9128   3.054   1.545   8.866
35766SOL     OW 9129  12.525  14.329   3.605
35766SOL    HW1 9130  12.533  14.235   3.620
35766SOL    HW2 9131  12.461  14.337   3.534
35767SOL     OW 9132  11.282  10.785   6.566
35767SOL    HW1 9133  11.189  10.810   6.567
35767SOL    HW2 9134  11.292  10.728   6.642
35768SOL     OW 9135   5.160   7.872  14.392
35768SOL    HW1 9136   5.116   7.942  14.441
35768SOL    HW2 9137   5.091   7.833  14.339
35769SOL     OW 9138   9.858   2.355   8.895
35769SOL    HW1 9139   9.889   2.279   8.846
35769SOL    HW2 9140   9.849   2.324   8.985
35770SOL     OW 9141   5.528   3.152   9.312
35770SOL    HW1 9142   5.519   3.060   9.287
35770SOL    HW2 9143   5.472   3.162   9.389
35771SOL     OW 9144   4.124   6.536   5.971
35771SOL    HW1 9145   4.080   6.561   5.891
35771SOL    HW2 9146   4.188   6.605   5.987
35772SOL     OW 9147   1.735   6.374   0.307
35772SOL    HW1 9148   1.755   6.452   0.358
35772SOL    HW2 9149   1.642   6.359   0.319
35773SOL     OW 9150  11.054  11.933   3.627
35773SOL    HW1 9151  11.070  11.912   3.535
35773SOL    HW2 9152  11.139  11.925   3.669
35774SOL     OW 9153   2.453   0.502   5.704
35774SOL    HW1 9154   2.489   0.484   5.791
35774SOL    HW2 9155   2.450   0.597   5.698
35775SOL     OW 9156   3.457  14.797   0.711
35775SOL    HW1 9157   3.409  14.877   0.687
35775SOL    HW2 9158   3.429  14.778   0.800
35776SOL     OW 9159  10.858   4.366  12.750
35776SOL    HW1 9160  10.945   4.341  12.719
35776SOL    HW2 9161  10.809   4.284  12.756
35777SOL     OW 9162   4.563   6.771  10.283
35777SOL    HW1 9163   4.620   6.724  10.222
35777SOL    HW2 9164   4.541   6.852  10.238
35778SOL     OW 9165  14.650   5.201  11.846
35778SOL    HW1 9166  14.658   5.164  11.934
35778SOL    HW2 9167  14.556   5.200  11.828
35779SOL     OW 9168   4.724  13.647  10.442
35779SOL    HW1 9169   4.719  13.569  10.386
35779SOL    HW2 9170   4.709  13.720  10.383
35780SOL     OW 9171   0.956   0.377   2.154
35780SOL    HW1 9172   0.993   0.442   2.214
35780SOL    HW2 9173   0.879   0.343   2.200
35781SOL     OW 9174  13.031   7.641  13.580
35781SOL    HW1 9175  13.031   7.736  13.597
35781SOL    HW2 9176  13.105   7.627  13.522
35782SOL     OW 9177   8.081   6.797   4.440
35782SOL    HW1 9178   8.060   6.717   4.392
35782SOL    HW2 9179   8.170   6.818   4.413
35783SOL     OW 9180   6.494   2.474  10.271
35783SOL    HW1 9181   6.542   2.556  10.254
35783SOL    HW2 9182   6.554   2.405  10.241
35784SOL     OW 9183   7.388  12.799   5.730
35784SOL    HW1 9184   7.470  12.791   5.779
35784SOL    HW2 9185   7.372  12.711   5.696
35785SOL     OW 9186  14.623  12.009   9.524
35785SOL    HW1 9187  14.559  11.939   9.514
35785SOL    HW2 9188  14.590  12.062   9.596
35786SOL     OW 9189   5.261   1.561  12.877
35786SOL    HW1 9190   5.172   1.532  12.897
35786SOL    HW2 9191   5.263   1.567  12.781
35787SOL     OW 9192  13.442  12.393   5.171
35787SOL    HW1 9193  13.453  12.362   5.082
35787SOL    HW2 9194  13.390  12.326   5.214
35788SOL     OW 9195   8.816   5.529  14.488
35788SOL    HW1 9196   8.770   5.573  14.559
35788SOL    HW2 9197   8.748   5.512  14.422
35789SOL     OW 9198  11.098   3.008   4.832
35789SOL    HW1 9199  11.030   3.068   4.802
35789SOL    HW2 9200  11.179   3.058   4.826
35790SOL     OW 9201   1.335   8.174  12.145
35790SOL    HW1 9202   1.360   8.261  12.116
35790SOL    HW2 9203   1.394   8.155  12.219
35791SOL     OW 9204   2.540   0.479  11.432
35791SOL    HW1 9205   2.452   0.492  11.467
35791SOL    HW2 9206   2.598   0.493  11.508
35792SOL     OW 9207   2.777  13.490   7.111
35792SOL    HW1 9208   2.683  13.477   7.103
35792SOL    HW2 9209   2.793  13.577   7.074
35793SOL     OW 9210  13.071   9.362  12.721
35793SOL    HW1 9211  13.121   9.285  12.747
35793SOL    HW2 9212  13.088   9.372  12.628
35794SOL     OW 9213   3.781   5.720   3.969
35794SOL    HW1 9214   3.723   5.652   4.003
35794SOL    HW2 9215   3.771   5.715   3.874
35795SOL     OW 9216   7.078   9.929   9.081
35795SOL    HW1 9217   7.114   9.935   9.169
35795SOL    HW2 9218   7.027   9.847   9.081
35796SOL     OW 9219   1.917  12.200   7.132
35796SOL    HW1 9220   1.824  12.216   7.149
35796SOL    HW2 9221   1.946  12.146   7.206
35797SOL     OW 9222   0.861   8.795  10.156
35797SOL    HW1 9223   0.857   8.888  10.137
35797SOL    HW2 9224   0.893   8.790  10.246
35798SOL     OW 9225   4.915   0.807  11.263
35798SOL    HW1 9226   4.907   0.896  11.297
35798SOL    HW2 9227   4.959   0.817  11.178
35799SOL     OW 9228  11.591   2.718   4.591
35799SOL    HW1 9229  11.565   2.633   4.557
35799SOL    HW2 9230  11.547   2.725   4.676
35800SOL     OW 9231   3.835   4.261  13.012
35800SOL    HW1 9232   3.870   4.263  12.923
35800SOL    HW2 9233   3.860   4.175  13.046
35801SOL     OW 9234   9.306  13.426   6.600
35801SOL    HW1 9235   9.391  13.469   6.605
35801SOL    HW2 9236   9.325  13.341   6.559
35802SOL     OW 9237   0.193  11.296   4.039
35802SOL    HW1 9238   0.266  11.251   4.082
35802SOL    HW2 9239   0.138  11.326   4.111
35803SOL     OW 9240   8.156   0.776  13.418
35803SOL    HW1 9241   8.065   0.749  13.432
35803SOL    HW2 9242   8.176   0.748  13.328
35804SOL     OW 9243  14.808   2.557   1.457
35804SOL    HW1 9244   0.015   2.534   1.429
35804SOL    HW2 9245  14.801   2.651   1.441
35805SOL     OW 9246  11.532   5.003   1.384
35805SOL    HW1 9247  11.577   5.063   1.443
35805SOL    HW2 9248  11.464   5.056   1.343
35806SOL     OW 9249   4.246  14.332   2.816
35806SOL    HW1 9250   4.176  14.325   2.752
35806SOL    HW2 9251   4.315  14.381   2.772
35807SOL     OW 9252   6.416   2.887   7.805
35807SOL    HW1 9253   6.487   2.937   7.845
35807SOL    HW2 9254   6.438   2.885   7.712
35808SOL     OW 9255  11.285  10.086   0.202
35808SOL    HW1 9256  11.317  10.095   0.113
35808SOL    HW2 9257  11.204  10.137   0.204
35809SOL     OW 9258   1.741   4.679   2.596
35809SOL    HW1 9259   1.747   4.769   2.627
35809SOL    HW2 9260   1.675   4.681   2.526
35810SOL     OW 9261   1.558  11.552   0.579
35810SOL    HW1 9262   1.629  11.490   0.592
35810SOL    HW2 9263   1.494  11.531   0.647
35811SOL     OW 9264   7.126   5.497  10.569
35811SOL    HW1 9265   7.198   5.440  10.595
35811SOL    HW2 9266   7.140   5.513  10.475
35812SOL     OW 9267   7.347   6.505   6.835
35812SOL    HW1 9268   7.352   6.598   6.859
35812SOL    HW2 9269   7.276   6.470   6.890
35813SOL     OW 9270   4.116   2.631  11.485
35813SOL    HW1 9271   4.057   2.653  11.558
35813SOL    HW2 9272   4.113   2.535  11.480
35814SOL     OW 9273   3.976   9.977   6.823
35814SOL    HW1 9274   4.059   9.982   6.776
35814SOL    HW2 9275   3.909   9.972   6.754
35815SOL     OW 9276   5.700   1.532   1.750
35815SOL    HW1 9277   5.733   1.539   1.661
35815SOL    HW2 9278   5.608   1.560   1.744
35816SOL     OW 9279   1.466   7.646   0.639
35816SOL    HW1 9280   1.457   7.552   0.621
35816SOL    HW2 9281   1.546   7.654   0.689
35817SOL     OW 9282  14.672   4.638   0.229
35817SOL    HW1 9283  14.698   4.709   0.170
35817SOL    HW2 9284  14.634   4.682   0.305
35818SOL     OW 9285   6.215   1.494  12.380
35818SOL    HW1 9286   6.197   1.487  12.286
35818SOL    HW2 9287   6.281   1.563  12.387
35819SOL     OW 9288  13.503   3.420   6.842
35819SOL    HW1 9289  13.535   3.466   6.765
35819SOL    HW2 9290  13.541   3.468   6.916
35820SOL     OW 9291  10.054   4.921  10.721
35820SOL    HW1 9292  10.116   4.926  10.794
35820SOL    HW2 9293   9.990   4.855  10.748
35821SOL     OW 9294   2.722  10.945  14.456
35821SOL    HW1 9295   2.802  10.901  14.486
35821SOL    HW2 9296   2.662  10.873  14.437
35822SOL     OW 9297  12.247  12.526   1.929
35822SOL    HW1 9298  12.311  12.501   1.996
35822SOL    HW2 9299  12.162  12.511   1.971
35823SOL     OW 9300   3.220  13.978   2.921
35823SOL    HW1 9301   3.238  14.058   2.873
35823SOL    HW2 9302   3.265  13.910   2.871
35824SOL     OW 9303   9.526   6.098  13.924
35824SOL    HW1 9304   9.468   6.143  13.984
35824SOL    HW2 9305   9.524   6.007  13.952
35825SOL     OW 9306   5.726   7.207   9.773
35825SOL    HW1 9307   5.746   7.285   9.826
35825SOL    HW2 9308   5.692   7.243   9.691
35826SOL     OW 9309   7.280   9.630   4.939
35826SOL    HW1 9310   7.315   9.580   5.013
35826SOL    HW2 9311   7.213   9.687   4.978
35827SOL     OW 9312   2.999  13.426   2.424
35827SOL    HW1 9313   3.023  13.483   2.350
35827SOL    HW2 9314   2.968  13.346   2.383
35828SOL     OW 9315  12.973   5.384   2.697
35828SOL    HW1 9316  13.022   5.308   2.726
35828SOL    HW2 9317  12.941   5.425   2.777
35829SOL     OW 9318   0.244   2.015  11.420
35829SOL    HW1 9319   0.340   2.013  11.424
35829SOL    HW2 9320   0.224   2.066  11.341
35830SOL     OW 9321  12.972   3.318   6.977
35830SOL    HW1 9322  12.938   3.362   6.899
35830SOL    HW2 9323  13.057   3.283   6.950
35831SOL     OW 9324   2.601  11.945   3.441
35831SOL    HW1 9325   2.546  11.952   3.519
35831SOL    HW2 9326   2.547  11.981   3.370
35832SOL     OW 9327  10.175   4.903  11.328
35832SOL    HW1 9328  10.101   4.873  11.275
35832SOL    HW2 9329  10.245   4.919  11.264
35833SOL     OW 9330   9.153   4.632   3.857
35833SOL    HW1 9331   9.239   4.670   3.873
35833SOL    HW2 9332   9.121   4.608   3.944
35834SOL     OW 9333  13.949   2.953   8.703
35834SOL    HW1 9334  13.974   2.892   8.773
35834SOL    HW2 9335  13.857   2.931   8.685
35835SOL     OW 9336   4.706  11.001   5.541
35835SOL    HW1 9337   4.791  11.012   5.498
35835SOL    HW2 9338   4.666  11.088   5.536
35836SOL     OW 9339   9.577   5.140   9.247
35836SOL    HW1 9340   9.531   5.099   9.320
35836SOL    HW2 9341   9.661   5.093   9.242
35837SOL     OW 9342   7.723   8.342   0.644
35837SOL    HW1 9343   7.795   8.323   0.584
35837SOL    HW2 9344   7.684   8.256   0.662
35838SOL     OW 9345  13.712  11.119   9.592
35838SOL    HW1 9346  13.743  11.056   9.657
35838SOL    HW2 9347  13.766  11.197   9.606
35839SOL     OW 9348   0.101   8.856  14.691
35839SOL    HW1 9349   0.026   8.838  14.633
35839SOL    HW2 9350   0.140   8.770  14.706
35840SOL     OW 9351   0.392   8.059   7.265
35840SOL    HW1 9352   0.342   7.979   7.246
35840SOL    HW2 9353   0.348   8.127   7.215
35841SOL     OW 9354   5.812   3.852  13.791
35841SOL    HW1 9355   5.791   3.943  13.767
35841SOL    HW2 9356   5.729   3.817  13.824
35842SOL     OW 9357   4.170   5.397   1.040
35842SOL    HW1 9358   4.213   5.312   1.042
35842SOL    HW2 9359   4.189   5.432   0.952
35843SOL     OW 9360   8.704   0.562   6.468
35843SOL    HW1 9361   8.740   0.512   6.395
35843SOL    HW2 9362   8.696   0.499   6.539
35844SOL     OW 9363   1.841   1.790   9.252
35844SOL    HW1 9364   1.852   1.859   9.317
35844SOL    HW2 9365   1.862   1.833   9.169
35845SOL     OW 9366   3.132  14.226  11.491
35845SOL    HW1 9367   3.102  14.200  11.404
35845SOL    HW2 9368   3.080  14.173  11.551
35846SOL     OW 9369   5.374   7.150  13.923
35846SOL    HW1 9370   5.461   7.127  13.956
35846SOL    HW2 9371   5.345   7.220  13.982
35847SOL     OW 9372   0.355   5.176   9.235
35847SOL    HW1 9373   0.448   5.194   9.254
35847SOL    HW2 9374   0.308   5.227   9.301
35848SOL     OW 9375  12.298   5.697  12.630
35848SOL    HW1 9376  12.245   5.720  12.555
35848SOL    HW2 9377  12.387   5.691  12.595
35849SOL     OW 9378  10.852  14.545   1.444
35849SOL    HW1 9379  10.916  14.474   1.447
35849SOL    HW2 9380  10.894  14.618   1.490
35850SOL     OW 9381  10.245  13.946  13.191
35850SOL    HW1 9382  10.271  13.916  13.279
35850SOL    HW2 9383  10.172  14.005  13.207
35851SOL     OW 9384   5.426  11.968  13.643
35851SOL    HW1 9385   5.401  12.053  13.678
35851SOL    HW2 9386   5.453  11.986  13.553
35852SOL     OW 9387   5.725  13.764   0.237
35852SOL    HW1 9388   5.729  13.763   0.332
35852SOL    HW2 9389   5.697  13.675   0.213
35853SOL     OW 9390   8.363   8.310   6.911
35853SOL    HW1 9391   8.366   8.335   6.819
35853SOL    HW2 9392   8.275   8.276   6.924
35854SOL     OW 9393   1.744   9.207   2.653
35854SOL    HW1 9394   1.805   9.271   2.690
35854SOL    HW2 9395   1.729   9.145   2.724
35855SOL     OW 9396  14.757   2.952  14.300
35855SOL    HW1 9397  14.733   2.952  14.393
35855SOL    HW2 9398  14.847   2.919  14.299
35856SOL     OW 9399   7.847  10.056  14.529
35856SOL    HW1 9400   7.793  10.115  14.582
35856SOL    HW2 9401   7.794  10.040  14.450
35857SOL     OW 9402   5.112   2.788  11.382
35857SOL    HW1 9403   5.197   2.757  11.413
35857SOL    HW2 9404   5.131   2.838  11.303
35858SOL     OW 9405   1.141   7.172   4.518
35858SOL    HW1 9406   1.105   7.085   4.535
35858SOL    HW2 9407   1.209   7.158   4.452
35859SOL     OW 9408   6.651   1.022  14.719
35859SOL    HW1 9409   6.583   1.089  14.712
35859SOL    HW2 9410   6.708   1.037  14.644
35860SOL     OW 9411   1.747   7.436  12.690
35860SOL    HW1 9412   1.785   7.523  12.691
35860SOL    HW2 9413   1.673   7.442  12.629
35861SOL     OW 9414   9.401  14.736   7.681
35861SOL    HW1 9415   9.338  14.691   7.626
35861SOL    HW2 9416   9.381  14.707   7.770
35862SOL     OW 9417  11.029   5.808   6.695
35862SOL    HW1 9418  11.118   5.823   6.663
35862SOL    HW2 9419  11.040   5.784   6.787
35863SOL     OW 9420   6.651   4.670  14.227
35863SOL    HW1 9421   6.713   4.632  14.165
35863SOL    HW2 9422   6.703   4.693  14.303
35864SOL     OW 9423   7.101   1.033  11.020
35864SOL    HW1 9424   7.145   1.101  11.070
35864SOL    HW2 9425   7.107   1.062  10.929
35865SOL     OW 9426   4.742  13.321  12.445
35865SOL    HW1 9427   4.666  13.379  12.451
35865SOL    HW2 9428   4.793  13.339  12.524
35866SOL     OW 9429  13.804  12.403   8.341
35866SOL    HW1 9430  13.744  12.337   8.374
35866SOL    HW2 9431  13.800  12.474   8.405
35867SOL     OW 9432  12.656   3.318  11.181
35867SOL    HW1 9433  12.609   3.239  11.207
35867SOL    HW2 9434  12.694   3.296  11.096
35868SOL     OW 9435   0.507   5.281   9.537
35868SOL    HW1 9436   0.561   5.255   9.462
35868SOL    HW2 9437   0.427   5.315   9.497
35869SOL     OW 9438   0.949   1.611   6.737
35869SOL    HW1 9439   0.878   1.663   6.699
35869SOL    HW2 9440   0.992   1.570   6.661
35870SOL     OW 9441   8.888   0.045   0.073
35870SOL    HW1 9442   8.973   0.089   0.074
35870SOL    HW2 9443   8.851   0.062   0.160
35871SOL     OW 9444  12.013   2.719   7.189
35871SOL    HW1 9445  11.955   2.762   7.251
35871SOL    HW2 9446  11.991   2.626   7.196
35872SOL     OW 9447   2.088   0.336  10.897
35872SOL    HW1 9448   2.052   0.390  10.967
35872SOL    HW2 9449   2.158   0.389  10.860
35873SOL     OW 9450  11.379  12.456   9.130
35873SOL    HW1 9451  11.445  12.414   9.074
35873SOL    HW2 9452  11.430  12.501   9.198
35874SOL     OW 9453  11.816   7.573  12.313
35874SOL    HW1 9454  11.878   7.638  12.345
35874SOL    HW2 9455  11.820   7.581  12.218
35875SOL     OW 9456   2.786   0.706  10.211
35875SOL    HW1 9457   2.753   0.679  10.125
35875SOL    HW2 9458   2.859   0.764  10.192
35876SOL     OW 9459  14.865   0.333   0.227
35876SOL    HW1 9460   0.028   0.256   0.193
35876SOL    HW2 9461  14.877   0.400   0.159
35877SOL     OW 9462   7.456  11.292   1.925
35877SOL    HW1 9463   7.428  11.346   1.999
35877SOL    HW2 9464   7.449  11.202   1.957
35878SOL     OW 9465   4.013   9.057  13.208
35878SOL    HW1 9466   3.974   9.015  13.285
35878SOL    HW2 9467   3.976   9.009  13.134
35879SOL     OW 9468   7.131  11.923   8.790
35879SOL    HW1 9469   7.048  11.886   8.820
35879SOL    HW2 9470   7.179  11.941   8.871
35880SOL     OW 9471  14.720  11.616   7.939
35880SOL    HW1 9472  14.793  11.564   7.906
35880SOL    HW2 9473  14.761  11.681   7.997
35881SOL     OW 9474  10.837   5.553  13.777
35881SOL    HW1 9475  10.770   5.504  13.824
35881SOL    HW2 9476  10.919   5.528  13.819
35882SOL     OW 9477  11.076  11.672   5.938
35882SOL    HW1 9478  11.109  11.661   5.849
35882SOL    HW2 9479  10.981  11.676   5.929
35883SOL     OW 9480   5.113  11.915  14.515
35883SOL    HW1 9481   5.107  11.820  14.530
35883SOL    HW2 9482   5.206  11.929  14.495
35884SOL     OW 9483   5.338  13.619   7.252
35884SOL    HW1 9484   5.411  13.558   7.256
35884SOL    HW2 9485   5.366  13.687   7.190
35885SOL     OW 9486   0.021   7.891   2.026
35885SOL    HW1 9487   0.077   7.942   2.085
35885SOL    HW2 9488  14.849   7.837   2.084
35886SOL     OW 9489   5.782  11.592   8.620
35886SOL    HW1 9490   5.808  11.652   8.550
35886SOL    HW2 9491   5.754  11.649   8.691
35887SOL     OW 9492  12.491   6.767  10.938
35887SOL    HW1 9493  12.471   6.819  10.860
35887SOL    HW2 9494  12.580   6.735  10.924
35888SOL     OW 9495   1.464   6.365   0.290
35888SOL    HW1 9496   1.416   6.349   0.371
35888SOL    HW2 9497   1.402   6.344   0.220
35889SOL     OW 9498  10.246  11.028   9.911
35889SOL    HW1 9499  10.183  10.957   9.900
35889SOL    HW2 9500  10.277  11.047   9.823
35890SOL     OW 9501   7.248   7.699   9.341
35890SOL    HW1 9502   7.266   7.750   9.420
35890SOL    HW2 9503   7.230   7.764   9.274
35891SOL     OW 9504   1.670   3.582   0.551
35891SOL    HW1 9505   1.725   3.521   0.600
35891SOL    HW2 9506   1.580   3.556   0.572
35892SOL     OW 9507   6.191   3.327   1.195
35892SOL    HW1 9508   6.137   3.294   1.267
35892SOL    HW2 9509   6.221   3.248   1.150
35893SOL     OW 9510   2.118  12.207  10.608
35893SOL    HW1 9511   2.036  12.257  10.606
35893SOL    HW2 9512   2.186  12.274  10.607
35894SOL     OW 9513   7.473   8.527  13.827
35894SOL    HW1 9514   7.470   8.455  13.764
35894SOL    HW2 9515   7.384   8.533  13.861
35895SOL     OW 9516   9.865   0.371   0.987
35895SOL    HW1 9517   9.902   0.324   1.062
35895SOL    HW2 9518   9.780   0.402   1.018
35896SOL     OW 9519  11.820   2.474  10.586
35896SOL    HW1 9520  11.881   2.534  10.627
35896SOL    HW2 9521  11.785   2.522  10.511
35897SOL     OW 9522   9.092  14.689   1.261
35897SOL    HW1 9523   9.094  14.660   1.170
35897SOL    HW2 9524   9.180  14.721   1.278
35898SOL     OW 9525   3.329   3.326   0.730
35898SOL    HW1 9526   3.329   3.281   0.645
35898SOL    HW2 9527   3.418   3.359   0.740
35899SOL     OW 9528   2.757  11.135   0.869
35899SOL    HW1 9529   2.672  11.107   0.901
35899SOL    HW2 9530   2.767  11.224   0.901
35900SOL     OW 9531   2.345   5.038  10.048
35900SOL    HW1 9532   2.414   5.104  10.040
35900SOL    HW2 9533   2.283   5.059   9.977
35901SOL     OW 9534   3.254  11.629   5.326
35901SOL    HW1 9535   3.266  11.571   5.251
35901SOL    HW2 9536   3.205  11.576   5.389
35902SOL     OW 9537  14.355   6.884   8.305
35902SOL    HW1 9538  14.367   6.894   8.211
35902SOL    HW2 9539  14.417   6.816   8.330
35903SOL     OW 9540   4.636  10.844  14.591
35903SOL    HW1 9541   4.546  10.846  14.560
35903SOL    HW2 9542   4.674  10.928  14.564
35904SOL     OW 9543   2.966   9.981   5.928
35904SOL    HW1 9544   2.896   9.916   5.916
35904SOL    HW2 9545   2.985  10.012   5.839
35905SOL     OW 9546  12.426   8.416  10.754
35905SOL    HW1 9547  12.491   8.432  10.687
35905SOL    HW2 9548  12.475   8.416  10.836
35906SOL     OW 9549  10.627  12.123   2.767
35906SOL    HW1 9550  10.716  12.127   2.733
35906SOL    HW2 9551  10.584  12.056   2.714
35907SOL     OW 9552   5.031   4.485   7.732
35907SOL    HW1 9553   5.057   4.554   7.670
35907SOL    HW2 9554   5.101   4.485   7.798
35908SOL     OW 9555  13.692  13.720  10.368
35908SOL    HW1 9556  13.608  13.735  10.409
35908SOL    HW2 9557  13.725  13.808  10.347
35909SOL     OW 9558   0.359  12.893   3.224
35909SOL    HW1 9559   0.335  12.843   3.302
35909SOL    HW2 9560   0.442  12.935   3.246
35910SOL     OW 9561   1.339   7.581   6.253
35910SOL    HW1 9562   1.354   7.658   6.198
35910SOL    HW2 9563   1.305   7.515   6.192
35911SOL     OW 9564   3.918   4.823  13.390
35911SOL    HW1 9565   3.912   4.731  13.362
35911SOL    HW2 9566   3.971   4.821  13.469
35912SOL     OW 9567   4.307   5.464   6.630
35912SOL    HW1 9568   4.238   5.469   6.696
35912SOL    HW2 9569   4.264   5.427   6.553
35913SOL     OW 9570   2.973   5.881   8.551
35913SOL    HW1 9571   2.880   5.861   8.560
35913SOL    HW2 9572   2.979   5.931   8.469
35914SOL     OW 9573   7.569   3.997  14.172
35914SOL    HW1 9574   7.483   3.977  14.210
35914SOL    HW2 9575   7.628   3.934  14.214
35915SOL     OW 9576   6.248  11.147   2.557
35915SOL    HW1 9577   6.336  11.164   2.524
35915SOL    HW2 9578   6.260  11.136   2.652
35916SOL     OW 9579  14.787   1.481  13.763
35916SOL    HW1 9580  14.763   1.556  13.707
35916SOL    HW2 9581   0.000   1.489  13.773
35917SOL     OW 9582  11.392   0.779   4.469
35917SOL    HW1 9583  11.392   0.872   4.446
35917SOL    HW2 9584  11.484   0.757   4.481
35918SOL     OW 9585   4.367  10.919   8.897
35918SOL    HW1 9586   4.316  10.999   8.905
35918SOL    HW2 9587   4.353  10.891   8.806
35919SOL     OW 9588   2.666   9.633   1.048
35919SOL    HW1 9589   2.650   9.594   0.962
35919SOL    HW2 9590   2.620   9.717   1.045
35920SOL     OW 9591  10.538   6.911   9.100
35920SOL    HW1 9592  10.587   6.847   9.049
35920SOL    HW2 9593  10.523   6.869   9.185
35921SOL     OW 9594   5.258  13.117   9.940
35921SOL    HW1 9595   5.223  13.133  10.028
35921SOL    HW2 9596   5.243  13.199   9.893
35922SOL     OW 9597   3.799  10.726   3.870
35922SOL    HW1 9598   3.853  10.699   3.945
35922SOL    HW2 9599   3.738  10.789   3.906
35923SOL     OW 9600   0.590  10.861  11.391
35923SOL    HW1 9601   0.662  10.924  11.396
35923SOL    HW2 9602   0.572  10.838  11.483
35924SOL     OW 9603   8.373  14.179   6.445
35924SOL    HW1 9604   8.401  14.257   6.398
35924SOL    HW2 9605   8.286  14.160   6.409
35925SOL     OW 9606   4.317  11.908   1.300
35925SOL    HW1 9607   4.230  11.939   1.276
35925SOL    HW2 9608   4.365  11.906   1.217
35926SOL     OW 9609  14.550   2.599   6.801
35926SOL    HW1 9610  14.579   2.508   6.792
35926SOL    HW2 9611  14.631   2.650   6.805
35927SOL     OW 9612  13.611   3.156   7.952
35927SOL    HW1 9613  13.558   3.088   7.910
35927SOL    HW2 9614  13.698   3.116   7.960
35928SOL     OW 9615   7.205  12.273  10.499
35928SOL    HW1 9616   7.180  12.358  10.536
35928SOL    HW2 9617   7.190  12.211  10.570
35929SOL     OW 9618   9.514   1.818  11.834
35929SOL    HW1 9619   9.570   1.896  11.840
35929SOL    HW2 9620   9.483   1.804  11.924
35930SOL     OW 9621  13.067   6.558   2.297
35930SOL    HW1 9622  13.082   6.652   2.303
35930SOL    HW2 9623  13.151   6.518   2.320
35931SOL     OW 9624   3.326   3.667  14.484
35931SOL    HW1 9625   3.283   3.606  14.544
35931SOL    HW2 9626   3.310   3.631  14.397
35932SOL     OW 9627   4.271   7.970  12.294
35932SOL    HW1 9628   4.213   8.003  12.362
35932SOL    HW2 9629   4.240   8.012  12.213
35933SOL     OW 9630  10.460   8.355  13.692
35933SOL    HW1 9631  10.470   8.442  13.732
35933SOL    HW2 9632  10.443   8.372  13.600
35934SOL     OW 9633   0.102  10.280   8.368
35934SOL    HW1 9634   0.126  10.244   8.283
35934SOL    HW2 9635   0.027  10.337   8.351
35935SOL     OW 9636  10.555   6.655   5.505
35935SOL    HW1 9637  10.636   6.678   5.550
35935SOL    HW2 9638  10.579   6.651   5.413
35936SOL     OW 9639  13.254  13.726  13.394
35936SOL    HW1 9640  13.273  13.654  13.334
35936SOL    HW2 9641  13.214  13.685  13.470
35937SOL     OW 9642   8.117   6.369  14.648
35937SOL    HW1 9643   8.087   6.281  14.624
35937SOL    HW2 9644   8.191   6.386  14.589
35938SOL     OW 9645   0.474   2.065   0.999
35938SOL    HW1 9646   0.393   2.076   0.949
35938SOL    HW2 9647   0.542   2.099   0.941
35939SOL     OW 9648   8.608  13.338   6.868
35939SOL    HW1 9649   8.590  13.408   6.930
35939SOL    HW2 9650   8.627  13.262   6.923
35940SOL     OW 9651   7.102   6.436   6.013
35940SOL    HW1 9652   7.143   6.510   5.969
35940SOL    HW2 9653   7.010   6.440   5.985
35941SOL     OW 9654   9.261   3.122  12.356
35941SOL    HW1 9655   9.173   3.156  12.372
35941SOL    HW2 9656   9.249   3.056  12.287
35942SOL     OW 9657   0.627  12.389   8.875
35942SOL    HW1 9658   0.687  12.315   8.883
35942SOL    HW2 9659   0.639  12.420   8.785
35943SOL     OW 9660   9.606   1.587   6.371
35943SOL    HW1 9661   9.567   1.503   6.349
35943SOL    HW2 9662   9.699   1.577   6.349
35944SOL     OW 9663   4.462   9.847   3.256
35944SOL    HW1 9664   4.405   9.913   3.296
35944SOL    HW2 9665   4.449   9.769   3.309
35945SOL     OW 9666  13.219   3.833  14.488
35945SOL    HW1 9667  13.143   3.857  14.541
35945SOL    HW2 9668  13.181   3.787  14.412
35946SOL     OW 9669   9.722   6.783  13.779
35946SOL    HW1 9670   9.738   6.807  13.687
35946SOL    HW2 9671   9.628   6.796  13.791
35947SOL     OW 9672  12.733  11.740  11.272
35947SOL    HW1 9673  12.808  11.764  11.327
35947SOL    HW2 9674  12.703  11.656  11.308
35948SOL     OW 9675  12.401  11.974   3.108
35948SOL    HW1 9676  12.318  12.021   3.103
35948SOL    HW2 9677  12.412  11.955   3.201
35949SOL     OW 9678  11.824  13.650  12.115
35949SOL    HW1 9679  11.819  13.711  12.189
35949SOL    HW2 9680  11.910  13.666  12.076
35950SOL     OW 9681   1.654  10.969   5.512
35950SOL    HW1 9682   1.649  10.956   5.607
35950SOL    HW2 9683   1.563  10.982   5.485
35951SOL     OW 9684  12.116  14.437  14.756
35951SOL    HW1 9685  12.066  14.437  14.838
35951SOL    HW2 9686  12.181  14.507  14.767
35952SOL     OW 9687   2.160  13.250   6.805
35952SOL    HW1 9688   2.100  13.209   6.744
35952SOL    HW2 9689   2.239  13.196   6.801
35953SOL     OW 9690   6.295   1.282   6.890
35953SOL    HW1 9691   6.381   1.256   6.858
35953SOL    HW2 9692   6.292   1.252   6.981
35954SOL     OW 9693   7.426   1.623   4.407
35954SOL    HW1 9694   7.450   1.716   4.406
35954SOL    HW2 9695   7.508   1.577   4.395
35955SOL     OW 9696   6.778   3.436   6.466
35955SOL    HW1 9697   6.737   3.523   6.459
35955SOL    HW2 9698   6.730   3.382   6.403
35956SOL     OW 9699  11.059  13.517  13.623
35956SOL    HW1 9700  10.969  13.506  13.653
35956SOL    HW2 9701  11.111  13.510  13.703
35957SOL     OW 9702  12.526  13.034   5.851
35957SOL    HW1 9703  12.622  13.025   5.849
35957SOL    HW2 9704  12.505  13.078   5.769
35958SOL     OW 9705   5.920   3.913   0.841
35958SOL    HW1 9706   5.853   3.920   0.773
35958SOL    HW2 9707   5.991   3.971   0.811
35959SOL     OW 9708   9.649   1.307   5.543
35959SOL    HW1 9709   9.693   1.392   5.542
35959SOL    HW2 9710   9.664   1.271   5.456
35960SOL     OW 9711  10.770   2.745   0.841
35960SOL    HW1 9712  10.857   2.762   0.875
35960SOL    HW2 9713  10.712   2.756   0.916
35961SOL     OW 9714  13.140   6.347   8.588
35961SOL    HW1 9715  13.154   6.252   8.597
35961SOL    HW2 9716  13.175   6.383   8.670
35962SOL     OW 9717   0.068   0.616   3.772
35962SOL    HW1 9718  14.860   0.587   3.783
35962SOL    HW2 9719   0.066   0.709   3.794
35963SOL     OW 9720  14.544  12.362   9.197
35963SOL    HW1 9721  14.579  12.298   9.259
35963SOL    HW2 9722  14.558  12.322   9.111
35964SOL     OW 9723  14.769   5.407  14.643
35964SOL    HW1 9724  14.770   5.385  14.549
35964SOL    HW2 9725  14.820   5.337  14.684
35965SOL     OW 9726   0.937  10.181  12.312
35965SOL    HW1 9727   0.884  10.172  12.391
35965SOL    HW2 9728   1.018  10.223  12.341
35966SOL     OW 9729   2.798   6.324  12.119
35966SOL    HW1 9730   2.732   6.260  12.092
35966SOL    HW2 9731   2.852   6.277  12.183
35967SOL     OW 9732  13.914   1.041   3.104
35967SOL    HW1 9733  13.937   0.995   3.023
35967SOL    HW2 9734  13.989   1.028   3.161
35968SOL     OW 9735  10.807   4.829  13.499
35968SOL    HW1 9736  10.739   4.762  13.491
35968SOL    HW2 9737  10.784   4.876  13.579
35969SOL     OW 9738   3.995  10.369   9.876
35969SOL    HW1 9739   4.043  10.374   9.958
35969SOL    HW2 9740   3.903  10.359   9.902
35970SOL     OW 9741   4.054   6.688   8.727
35970SOL    HW1 9742   4.116   6.730   8.667
35970SOL    HW2 9743   4.010   6.622   8.674
35971SOL     OW 9744   4.707   4.430  10.358
35971SOL    HW1 9745   4.682   4.410  10.448
35971SOL    HW2 9746   4.643   4.383  10.304
35972SOL     OW 9747  13.489   4.794   7.617
35972SOL    HW1 9748  13.466   4.773   7.526
35972SOL    HW2 9749  13.552   4.725   7.641
35973SOL     OW 9750   4.449   2.789   2.113
35973SOL    HW1 9751   4.365   2.834   2.106
35973SOL    HW2 9752   4.428   2.696   2.108
35974SOL     OW 9753   3.997   8.191   7.426
35974SOL    HW1 9754   4.047   8.272   7.432
35974SOL    HW2 9755   3.933   8.197   7.497
35975SOL     OW 9756  10.232   7.538  10.190
35975SOL    HW1 9757  10.212   7.617  10.240
35975SOL    HW2 9758  10.156   7.481  10.203
35976SOL     OW 9759   4.981   2.078   9.742
35976SOL    HW1 9760   5.013   2.070   9.832
35976SOL    HW2 9761   4.911   2.142   9.748
35977SOL     OW 9762  12.332   3.243   1.912
35977SOL    HW1 9763  12.427   3.238   1.912
35977SOL    HW2 9764  12.304   3.163   1.866
35978SOL     OW 9765  14.273  10.477  14.448
35978SOL    HW1 9766  14.275  10.416  14.521
35978SOL    HW2 9767  14.180  10.490  14.429
35979SOL     OW 9768   1.864  13.469   4.462
35979SOL    HW1 9769   1.820  13.547   4.494
35979SOL    HW2 9770   1.957  13.488   4.472
35980SOL     OW 9771  10.493   5.497   3.736
35980SOL    HW1 9772  10.585   5.524   3.738
35980SOL    HW2 9773  10.496   5.402   3.727
35981SOL     OW 9774   9.776   6.181  10.043
35981SOL    HW1 9775   9.705   6.244  10.030
35981SOL    HW2 9776   9.764   6.149  10.132
35982SOL     OW 9777   4.167  12.679   7.303
35982SOL    HW1 9778   4.232  12.655   7.237
35982SOL    HW2 9779   4.178  12.774   7.314
35983SOL     OW 9780   9.715  10.427   2.477
35983SOL    HW1 9781   9.760  10.494   2.527
35983SOL    HW2 9782   9.781  10.358   2.463
35984SOL     OW 9783  13.344   1.287   4.387
35984SOL    HW1 9784  13.254   1.280   4.356
35984SOL    HW2 9785  13.397   1.289   4.307
35985SOL     OW 9786   9.853   6.232   3.482
35985SOL    HW1 9787   9.888   6.261   3.567
35985SOL    HW2 9788   9.834   6.313   3.435
35986SOL     OW 9789   7.810  12.983   3.330
35986SOL    HW1 9790   7.737  13.041   3.352
35986SOL    HW2 9791   7.870  12.989   3.405
35987SOL     OW 9792   2.337  10.000   3.704
35987SOL    HW1 9793   2.312   9.909   3.721
35987SOL    HW2 9794   2.369  10.032   3.788
35988SOL     OW 9795   1.682   3.748   1.202
35988SOL    HW1 9796   1.618   3.805   1.246
35988SOL    HW2 9797   1.764   3.767   1.247
35989SOL     OW 9798  11.841   1.929   1.778
35989SOL    HW1 9799  11.786   1.852   1.765
35989SOL    HW2 9800  11.816   1.962   1.865
35990SOL     OW 9801   5.473   7.487  14.869
35990SOL    HW1 9802   5.414   7.531   0.048
35990SOL    HW2 9803   5.445   7.517  14.782
35991SOL     OW 9804   4.795   3.512  14.030
35991SOL    HW1 9805   4.875   3.562  14.015
35991SOL    HW2 9806   4.824   3.437  14.082
35992SOL     OW 9807  12.349   1.635   8.359
35992SOL    HW1 9808  12.281   1.667   8.300
35992SOL    HW2 9809  12.325   1.671   8.445
35993SOL     OW 9810   3.194   8.413   5.282
35993SOL    HW1 9811   3.170   8.452   5.198
35993SOL    HW2 9812   3.289   8.419   5.286
35994SOL     OW 9813   2.849   6.620  12.501
35994SOL    HW1 9814   2.872   6.563  12.574
35994SOL    HW2 9815   2.801   6.563  12.440
35995SOL     OW 9816  13.174   6.749   6.119
35995SOL    HW1 9817  13.149   6.785   6.033
35995SOL    HW2 9818  13.109   6.680   6.135
35996SOL     OW 9819   3.728  13.011   6.347
35996SOL    HW1 9820   3.673  12.933   6.360
35996SOL    HW2 9821   3.801  12.999   6.408
35997SOL     OW 9822   2.951  11.621  10.133
35997SOL    HW1 9823   3.018  11.637  10.066
35997SOL    HW2 9824   2.904  11.704  10.140
35998SOL     OW 9825   0.733   6.584   2.148
35998SOL    HW1 9826   0.678   6.651   2.189
35998SOL    HW2 9827   0.797   6.634   2.096
35999SOL     OW 9828   6.583   0.879   5.167
35999SOL    HW1 9829   6.545   0.859   5.081
35999SOL    HW2 9830   6.672   0.846   5.161
36000SOL     OW 9831   9.369   9.304   8.806
36000SOL    HW1 9832   9.366   9.331   8.715
36000SOL    HW2 9833   9.289   9.253   8.819
36001SOL     OW 9834   2.314  10.647   3.295
36001SOL    HW1 9835   2.273  10.730   3.317
36001SOL    HW2 9836   2.320  10.647   3.200
36002SOL     OW 9837   4.499   7.085  13.846
36002SOL    HW1 9838   4.586   7.085  13.885
36002SOL    HW2 9839   4.443   7.127  13.911
36003SOL     OW 9840   7.793   8.141   6.998
36003SOL    HW1 9841   7.719   8.081   6.985
36003SOL    HW2 9842   7.836   8.110   7.078
36004SOL     OW 9843   4.711   5.209   7.027
36004SOL    HW1 9844   4.627   5.255   7.026
36004SOL    HW2 9845   4.718   5.173   7.115
36005SOL     OW 9846   4.031   7.563   7.695
36005SOL    HW1 9847   3.960   7.501   7.683
36005SOL    HW2 9848   3.998   7.625   7.760
36006SOL     OW 9849   4.642  13.227   8.123
36006SOL    HW1 9850   4.695  13.175   8.063
36006SOL    HW2 9851   4.597  13.290   8.067
36007SOL     OW 9852   7.727  11.019   0.106
36007SOL    HW1 9853   7.743  10.941   0.159
36007SOL    HW2 9854   7.775  11.003   0.025
36008SOL     OW 9855  11.969  10.967  14.267
36008SOL    HW1 9856  11.897  11.013  14.309
36008SOL    HW2 9857  11.927  10.906  14.206
36009SOL     OW 9858  11.799  11.447  12.838
36009SOL    HW1 9859  11.845  11.431  12.920
36009SOL    HW2 9860  11.794  11.361  12.796
36010SOL     OW 9861   7.591  11.875  11.180
36010SOL    HW1 9862   7.559  11.942  11.240
36010SOL    HW2 9863   7.563  11.905  11.093
36011SOL     OW 9864   0.469   6.104   8.381
36011SOL    HW1 9865   0.551   6.080   8.338
36011SOL    HW2 9866   0.496   6.138   8.467
36012SOL     OW 9867   7.845   2.482   3.340
36012SOL    HW1 9868   7.798   2.504   3.420
36012SOL    HW2 9869   7.932   2.456   3.369
36013SOL     OW 9870  12.248  11.952   1.285
36013SOL    HW1 9871  12.265  11.860   1.268
36013SOL    HW2 9872  12.299  11.972   1.363
36014SOL     OW 9873   9.375  11.563   3.340
36014SOL    HW1 9874   9.281  11.580   3.343
36014SOL    HW2 9875   9.385  11.471   3.365
36015SOL     OW 9876   9.979   4.611   7.957
36015SOL    HW1 9877   9.967   4.533   8.012
36015SOL    HW2 9878   9.927   4.679   8.000
36016SOL     OW 9879   8.729   5.915   2.093
36016SOL    HW1 9880   8.790   5.986   2.075
36016SOL    HW2 9881   8.780   5.853   2.146
36017SOL     OW 9882   8.187   5.734  10.608
36017SOL    HW1 9883   8.188   5.810  10.551
36017SOL    HW2 9884   8.129   5.759  10.680
36018SOL     OW 9885  12.790   5.246  13.601
36018SOL    HW1 9886  12.856   5.186  13.638
36018SOL    HW2 9887  12.714   5.190  13.583
36019SOL     OW 9888   6.200   7.204  12.886
36019SOL    HW1 9889   6.220   7.214  12.793
36019SOL    HW2 9890   6.123   7.258  12.900
36020SOL     OW 9891   7.473  13.801   5.473
36020SOL    HW1 9892   7.540  13.755   5.525
36020SOL    HW2 9893   7.393  13.793   5.526
36021SOL     OW 9894  10.780   1.976   1.998
36021SOL    HW1 9895  10.854   1.991   1.938
36021SOL    HW2 9896  10.705   2.014   1.954
36022SOL     OW 9897  13.930   4.352   5.414
36022SOL    HW1 9898  13.856   4.309   5.371
36022SOL    HW2 9899  13.974   4.400   5.345
36023SOL     OW 9900   2.797   2.017   0.569
36023SOL    HW1 9901   2.780   2.107   0.598
36023SOL    HW2 9902   2.831   2.027   0.480
36024SOL     OW 9903  12.194   6.729  13.587
36024SOL    HW1 9904  12.247   6.670  13.533
36024SOL    HW2 9905  12.142   6.671  13.642
36025SOL     OW 9906   0.454  11.927   3.517
36025SOL    HW1 9907   0.428  12.002   3.572
36025SOL    HW2 9908   0.549  11.924   3.524
36026SOL     OW 9909  11.233   7.906   3.498
36026SOL    HW1 9910  11.173   7.917   3.424
36026SOL    HW2 9911  11.286   7.986   3.498
36027SOL     OW 9912   2.329   2.019   5.427
36027SOL    HW1 9913   2.279   2.009   5.508
36027SOL    HW2 9914   2.297   2.100   5.389
36028SOL     OW 9915   9.936  12.129  11.130
36028SOL    HW1 9916   9.934  12.055  11.069
36028SOL    HW2 9917   9.980  12.198  11.081
36029SOL     OW 9918   9.952   7.356   3.056
36029SOL    HW1 9919   9.906   7.323   2.979
36029SOL    HW2 9920  10.039   7.316   3.050
36030SOL     OW 9921  11.251   0.128   7.944
36030SOL    HW1 9922  11.270   0.043   7.904
36030SOL    HW2 9923  11.172   0.114   7.995
36031SOL     OW 9924   4.991  10.633   7.099
36031SOL    HW1 9925   5.024  10.616   7.011
36031SOL    HW2 9926   5.006  10.727   7.113
36032SOL     OW 9927  14.755   8.629   6.096
36032SOL    HW1 9928  14.834   8.622   6.042
36032SOL    HW2 9929  14.736   8.722   6.099
36033SOL     OW 9930   9.055   7.378  10.070
36033SOL    HW1 9931   9.006   7.311  10.117
36033SOL    HW2 9932   8.994   7.451  10.061
36034SOL     OW 9933   5.600   4.394   5.353
36034SOL    HW1 9934   5.681   4.400   5.404
36034SOL    HW2 9935   5.574   4.485   5.338
36035SOL     OW 9936  11.075   1.646  14.708
36035SOL    HW1 9937  11.002   1.619  14.653
36035SOL    HW2 9938  11.130   1.699  14.650
36036SOL     OW 9939   9.173   3.199   0.635
36036SOL    HW1 9940   9.253   3.252   0.633
36036SOL    HW2 9941   9.149   3.188   0.543
36037SOL     OW 9942  13.358  10.445  13.202
36037SOL    HW1 9943  13.393  10.403  13.280
36037SOL    HW2 9944  13.324  10.529  13.232
36038SOL     OW 9945   3.726   2.395  13.200
36038SOL    HW1 9946   3.789   2.385  13.129
36038SOL    HW2 9947   3.680   2.477  13.181
36039SOL     OW 9948  12.504   0.128   0.573
36039SOL    HW1 9949  12.470   0.216   0.558
36039SOL    HW2 9950  12.596   0.142   0.596
36040SOL     OW 9951   7.768  14.719  13.831
36040SOL    HW1 9952   7.710  14.792  13.853
36040SOL    HW2 9953   7.856  14.754  13.844
36041SOL     OW 9954   2.777   0.066   0.231
36041SOL    HW1 9955   2.871   0.064   0.211
36041SOL    HW2 9956   2.738   0.112   0.157
36042SOL     OW 9957  14.240   8.500   1.463
36042SOL    HW1 9958  14.311   8.453   1.419
36042SOL    HW2 9959  14.214   8.569   1.402
36043SOL     OW 9960  14.724   6.558  12.253
36043SOL    HW1 9961  14.725   6.603  12.169
36043SOL    HW2 9962  14.656   6.491  12.243
36044SOL     OW 9963  13.454   6.023  13.010
36044SOL    HW1 9964  13.431   6.024  12.918
36044SOL    HW2 9965  13.511   5.946  13.019
36045SOL     OW 9966  10.837   7.245   4.629
36045SOL    HW1 9967  10.882   7.323   4.661
36045SOL    HW2 9968  10.849   7.248   4.534
36046SOL     OW 9969  12.377   1.141  13.834
36046SOL    HW1 9970  12.326   1.158  13.914
36046SOL    HW2 9971  12.461   1.108  13.866
36047SOL     OW 9972  12.156  10.689   3.930
36047SOL    HW1 9973  12.098  10.658   3.860
36047SOL    HW2 9974  12.135  10.634   4.004
36048SOL     OW 9975   2.744   2.570  12.839
36048SOL    HW1 9976   2.657   2.545  12.811
36048SOL    HW2 9977   2.729   2.639  12.904
36049SOL     OW 9978  14.144  11.419   8.974
36049SOL    HW1 9979  14.239  11.422   8.985
36049SOL    HW2 9980  14.130  11.361   8.899
36050SOL     OW 9981   1.784   5.856  14.761
36050SOL    HW1 9982   1.818   5.838  14.848
36050SOL    HW2 9983   1.727   5.781  14.742
36051SOL     OW 9984   6.276   0.046   0.725
36051SOL    HW1 9985   6.258   0.006   0.810
36051SOL    HW2 9986   6.319   0.129   0.746
36052SOL     OW 9987   1.128   2.346   8.410
36052SOL    HW1 9988   1.036   2.372   8.411
36052SOL    HW2 9989   1.165   2.386   8.489
36053SOL     OW 9990   1.535  12.113   7.393
36053SOL    HW1 9991   1.573  12.027   7.410
36053SOL    HW2 9992   1.523  12.151   7.480
36054SOL     OW 9993   3.854   8.683   8.007
36054SOL    HW1 9994   3.854   8.775   7.979
36054SOL    HW2 9995   3.943   8.653   7.991
36055SOL     OW 9996   4.158   5.564   2.300
36055SOL    HW1 9997   4.222   5.501   2.332
36055SOL    HW2 9998   4.207   5.645   2.287
36056SOL     OW 9999   6.476   2.215   8.943
36056SOL    HW110000   6.552   2.273   8.950
36056SOL    HW210001   6.502   2.150   8.879
36057SOL     OW10002   3.272  10.600  14.106
36057SOL    HW110003   3.246  10.687  14.137
36057SOL    HW210004   3.366  10.596  14.124
36058SOL     OW10005   9.515  10.672  11.090
36058SOL    HW110006   9.512  10.767  11.107
36058SOL    HW210007   9.604  10.647  11.114
36059SOL     OW10008  11.689  12.953  13.564
36059SOL    HW110009  11.779  12.938  13.534
36059SOL    HW210010  11.699  12.976  13.656
36060SOL     OW10011  14.326   6.017  11.211
36060SOL    HW110012  14.317   6.024  11.116
36060SOL    HW210013  14.421   6.022  11.226
36061SOL     OW10014  10.791  13.474   1.016
36061SOL    HW110015  10.874  13.467   0.968
36061SOL    HW210016  10.751  13.387   1.007
36062SOL     OW10017  10.132  11.168  14.471
36062SOL    HW110018  10.207  11.226  14.455
36062SOL    HW210019  10.159  11.083  14.435
36063SOL     OW10020   0.872  11.907  13.944
36063SOL    HW110021   0.897  11.976  13.882
36063SOL    HW210022   0.819  11.952  14.010
36064SOL     OW10023  14.807   7.746   9.387
36064SOL    HW110024  14.747   7.688   9.435
36064SOL    HW210025  14.749   7.809   9.345
36065SOL     OW10026   3.507   3.540  13.943
36065SOL    HW110027   3.565   3.470  13.912
36065SOL    HW210028   3.418   3.506  13.928
36066SOL     OW10029   6.790   6.356   5.395
36066SOL    HW110030   6.822   6.431   5.445
36066SOL    HW210031   6.721   6.393   5.339
36067SOL     OW10032   7.355   9.525  10.215
36067SOL    HW110033   7.264   9.537  10.243
36067SOL    HW210034   7.349   9.466  10.139
36068SOL     OW10035   6.457   3.199   9.071
36068SOL    HW110036   6.362   3.190   9.065
36068SOL    HW210037   6.472   3.294   9.074
36069SOL     OW10038  13.874  13.016   9.964
36069SOL    HW110039  13.883  13.111   9.964
36069SOL    HW210040  13.908  12.988  10.049
36070SOL     OW10041   8.347   0.940   3.141
36070SOL    HW110042   8.408   1.013   3.150
36070SOL    HW210043   8.260   0.981   3.137
36071SOL     OW10044  11.958   5.920  11.420
36071SOL    HW110045  11.970   5.857  11.349
36071SOL    HW210046  11.911   5.871  11.488
36072SOL     OW10047  12.075   8.166  10.983
36072SOL    HW110048  12.130   8.164  11.062
36072SOL    HW210049  12.037   8.078  10.978
36073SOL     OW10050  14.419   2.802  11.709
36073SOL    HW110051  14.471   2.724  11.692
36073SOL    HW210052  14.471   2.853  11.771
36074SOL     OW10053  13.322  11.386   9.638
36074SOL    HW110054  13.336  11.376   9.732
36074SOL    HW210055  13.378  11.319   9.598
36075SOL     OW10056   6.502   4.173   6.582
36075SOL    HW110057   6.517   4.143   6.492
36075SOL    HW210058   6.478   4.265   6.573
36076SOL     OW10059   9.369  13.444   3.485
36076SOL    HW110060   9.352  13.529   3.443
36076SOL    HW210061   9.460  13.425   3.464
36077SOL     OW10062   0.871   3.749   3.374
36077SOL    HW110063   0.828   3.678   3.326
36077SOL    HW210064   0.956   3.713   3.399
36078SOL     OW10065   6.612  12.684   3.423
36078SOL    HW110066   6.555  12.619   3.463
36078SOL    HW210067   6.558  12.725   3.355
36079SOL     OW10068   5.143   1.763  10.834
36079SOL    HW110069   5.071   1.773  10.896
36079SOL    HW210070   5.122   1.822  10.762
36080SOL     OW10071  11.019   3.758   0.459
36080SOL    HW110072  11.035   3.789   0.548
36080SOL    HW210073  11.078   3.684   0.448
36081SOL     OW10074   0.352   4.106   5.750
36081SOL    HW110075   0.266   4.077   5.719
36081SOL    HW210076   0.412   4.037   5.721
36082SOL     OW10077   7.968   0.760   3.352
36082SOL    HW110078   8.009   0.678   3.379
36082SOL    HW210079   7.939   0.743   3.262
36083SOL     OW10080   6.454   1.224   1.265
36083SOL    HW110081   6.450   1.217   1.169
36083SOL    HW210082   6.445   1.317   1.283
36084SOL     OW10083  13.311   6.979  12.588
36084SOL    HW110084  13.251   7.026  12.530
36084SOL    HW210085  13.397   6.989  12.546
36085SOL     OW10086   6.000   6.322   0.250
36085SOL    HW110087   6.087   6.302   0.286
36085SOL    HW210088   5.987   6.256   0.183
36086SOL     OW10089  10.296   6.857   5.252
36086SOL    HW110090  10.214   6.907   5.251
36086SOL    HW210091  10.358   6.913   5.297
36087SOL     OW10092   0.950   6.033   5.649
36087SOL    HW110093   0.867   6.032   5.600
36087SOL    HW210094   0.924   6.023   5.740
36088SOL     OW10095   8.900   8.471   7.577
36088SOL    HW110096   8.816   8.515   7.574
36088SOL    HW210097   8.921   8.452   7.486
36089SOL     OW10098   8.527  13.771   1.143
36089SOL    HW110099   8.604  13.797   1.094
36089SOL    HW210100   8.488  13.854   1.172
36090SOL     OW10101   0.451   2.283   4.107
36090SOL    HW110102   0.474   2.199   4.068
36090SOL    HW210103   0.461   2.346   4.037
36091SOL     OW10104   7.919   9.251   4.176
36091SOL    HW110105   7.898   9.229   4.267
36091SOL    HW210106   7.992   9.193   4.154
36092SOL     OW10107   9.534  10.258  12.340
36092SOL    HW110108   9.587  10.329  12.303
36092SOL    HW210109   9.570  10.244  12.428
36093SOL     OW10110   7.627   9.336   7.956
36093SOL    HW110111   7.667   9.410   7.910
36093SOL    HW210112   7.610   9.271   7.888
36094SOL     OW10113   1.670   8.915  13.723
36094SOL    HW110114   1.734   8.857  13.681
36094SOL    HW210115   1.622   8.954  13.650
36095SOL     OW10116   7.113   4.249   7.611
36095SOL    HW110117   7.128   4.337   7.644
36095SOL    HW210118   7.124   4.192   7.688
36096SOL     OW10119  12.750  13.215   6.182
36096SOL    HW110120  12.807  13.168   6.242
36096SOL    HW210121  12.763  13.171   6.097
36097SOL     OW10122   3.479   7.807  13.944
36097SOL    HW110123   3.526   7.753  13.881
36097SOL    HW210124   3.425   7.746  13.993
36098SOL     OW10125  11.509   7.953   5.349
36098SOL    HW110126  11.545   8.039   5.372
36098SOL    HW210127  11.584   7.895   5.346
36099SOL     OW10128   8.464   2.139   0.674
36099SOL    HW110129   8.510   2.170   0.752
36099SOL    HW210130   8.477   2.044   0.675
36100SOL     OW10131   0.868  10.567  14.859
36100SOL    HW110132   0.800  10.593   0.040
36100SOL    HW210133   0.823  10.511  14.797
36101SOL     OW10134   2.141   0.579   5.731
36101SOL    HW110135   2.221   0.631   5.726
36101SOL    HW210136   2.110   0.575   5.640
36102SOL     OW10137   5.476   5.389  14.083
36102SOL    HW110138   5.509   5.325  14.019
36102SOL    HW210139   5.464   5.339  14.163
36103SOL     OW10140   7.492   8.399  11.078
36103SOL    HW110141   7.542   8.463  11.028
36103SOL    HW210142   7.540   8.389  11.160
36104SOL     OW10143   2.419  10.924   2.456
36104SOL    HW110144   2.422  10.923   2.552
36104SOL    HW210145   2.412  11.017   2.434
36105SOL     OW10146   0.223   5.290   6.737
36105SOL    HW110147   0.173   5.295   6.818
36105SOL    HW210148   0.201   5.204   6.700
36106SOL     OW10149  10.369   0.871  11.383
36106SOL    HW110150  10.437   0.821  11.339
36106SOL    HW210151  10.349   0.820  11.462
36107SOL     OW10152  12.045   9.268   2.606
36107SOL    HW110153  11.996   9.241   2.528
36107SOL    HW210154  12.077   9.187   2.644
36108SOL     OW10155   0.696   3.698   5.668
36108SOL    HW110156   0.704   3.730   5.758
36108SOL    HW210157   0.619   3.642   5.670
36109SOL     OW10158   0.003   9.427   1.273
36109SOL    HW110159  14.800   9.441   1.315
36109SOL    HW210160   0.064   9.479   1.326
36110SOL     OW10161   2.591  14.075   3.851
36110SOL    HW110162   2.677  14.049   3.819
36110SOL    HW210163   2.567  14.007   3.914
36111SOL     OW10164   5.595   8.497   5.012
36111SOL    HW110165   5.550   8.525   4.933
36111SOL    HW210166   5.665   8.440   4.981
36112SOL     OW10167  11.770   3.785   1.993
36112SOL    HW110168  11.679   3.787   1.963
36112SOL    HW210169  11.783   3.868   2.039
36113SOL     OW10170   7.409   2.716  10.544
36113SOL    HW110171   7.403   2.694  10.637
36113SOL    HW210172   7.488   2.671  10.514
36114SOL     OW10173   7.533   3.770  14.421
36114SOL    HW110174   7.605   3.829  14.398
36114SOL    HW210175   7.576   3.692  14.455
36115SOL     OW10176  14.620  11.488  13.501
36115SOL    HW110177  14.620  11.423  13.572
36115SOL    HW210178  14.647  11.438  13.424
36116SOL     OW10179   1.864   3.529  12.328
36116SOL    HW110180   1.791   3.565  12.277
36116SOL    HW210181   1.940   3.539  12.271
36117SOL     OW10182  13.976   7.662   9.945
36117SOL    HW110183  13.943   7.726  10.008
36117SOL    HW210184  13.966   7.705   9.860
36118SOL     OW10185   5.197   9.983   1.597
36118SOL    HW110186   5.215  10.075   1.612
36118SOL    HW210187   5.233   9.938   1.673
36119SOL     OW10188   3.211   5.444   3.592
36119SOL    HW110189   3.250   5.528   3.567
36119SOL    HW210190   3.230   5.435   3.685
36120SOL     OW10191  13.244   8.866   1.589
36120SOL    HW110192  13.228   8.926   1.516
36120SOL    HW210193  13.313   8.807   1.558
36121SOL     OW10194   6.178   4.034   0.429
36121SOL    HW110195   6.251   4.079   0.388
36121SOL    HW210196   6.218   3.970   0.488
36122SOL     OW10197   1.382  13.874   9.426
36122SOL    HW110198   1.405  13.829   9.345
36122SOL    HW210199   1.312  13.934   9.400
36123SOL     OW10200  13.416  13.118   4.919
36123SOL    HW110201  13.383  13.206   4.900
36123SOL    HW210202  13.337  13.067   4.940
36124SOL     OW10203   7.875   1.554   5.792
36124SOL    HW110204   7.963   1.575   5.824
36124SOL    HW210205   7.817   1.610   5.844
36125SOL     OW10206  13.693  10.398  10.518
36125SOL    HW110207  13.770  10.373  10.569
36125SOL    HW210208  13.726  10.410  10.429
36126SOL     OW10209   5.928  13.470  11.374
36126SOL    HW110210   5.913  13.513  11.458
36126SOL    HW210211   5.853  13.497  11.320
36127SOL     OW10212   0.152  14.420  12.234
36127SOL    HW110213   0.078  14.360  12.236
36127SOL    HW210214   0.113  14.506  12.252
36128SOL     OW10215   5.214  13.079   7.752
36128SOL    HW110216   5.235  12.986   7.740
36128SOL    HW210217   5.195  13.111   7.664
36129SOL     OW10218   3.227  10.397  10.326
36129SOL    HW110219   3.173  10.460  10.280
36129SOL    HW210220   3.285  10.450  10.381
36130SOL     OW10221   7.681   6.720   3.002
36130SOL    HW110222   7.657   6.700   3.093
36130SOL    HW210223   7.668   6.637   2.955
36131SOL     OW10224  10.019  13.859   5.367
36131SOL    HW110225  10.060  13.829   5.448
36131SOL    HW210226  10.033  13.787   5.305
36132SOL     OW10227   2.864   1.055  11.147
36132SOL    HW110228   2.809   1.032  11.222
36132SOL    HW210229   2.915   0.976  11.130
36133SOL     OW10230   9.430  14.301  14.228
36133SOL    HW110231   9.346  14.347  14.233
36133SOL    HW210232   9.479  14.348  14.160
36134SOL     OW10233   9.309  14.673   1.932
36134SOL    HW110234   9.258  14.609   1.882
36134SOL    HW210235   9.299  14.755   1.883
36135SOL     OW10236   7.347  13.805  10.050
36135SOL    HW110237   7.388  13.768   9.972
36135SOL    HW210238   7.416  13.806  10.115
36136SOL     OW10239  13.783  12.097   7.196
36136SOL    HW110240  13.771  12.189   7.220
36136SOL    HW210241  13.707  12.076   7.142
36137SOL     OW10242   8.094   7.624   0.133
36137SOL    HW110243   8.189   7.616   0.130
36137SOL    HW210244   8.075   7.703   0.082
36138SOL     OW10245  11.464   2.414   9.959
36138SOL    HW110246  11.534   2.475   9.981
36138SOL    HW210247  11.386   2.469   9.951
36139SOL     OW10248   1.371  12.068  14.036
36139SOL    HW110249   1.382  12.014  14.115
36139SOL    HW210250   1.293  12.032  13.994
36140SOL     OW10251   6.487  12.820   7.249
36140SOL    HW110252   6.419  12.885   7.264
36140SOL    HW210253   6.546  12.829   7.324
36141SOL     OW10254   5.801   9.568   0.236
36141SOL    HW110255   5.878   9.520   0.205
36141SOL    HW210256   5.826   9.660   0.232
36142SOL     OW10257   0.400   8.630   0.646
36142SOL    HW110258   0.334   8.658   0.583
36142SOL    HW210259   0.484   8.649   0.604
36143SOL     OW10260   8.297  10.775   4.185
36143SOL    HW110261   8.303  10.807   4.275
36143SOL    HW210262   8.263  10.686   4.194
36144SOL     OW10263   1.183   2.835   8.322
36144SOL    HW110264   1.273   2.841   8.289
36144SOL    HW210265   1.130   2.822   8.244
36145SOL     OW10266   0.985   5.769  10.206
36145SOL    HW110267   1.057   5.706  10.204
36145SOL    HW210268   0.997   5.821  10.127
36146SOL     OW10269   5.326  12.885   2.003
36146SOL    HW110270   5.392  12.897   2.071
36146SOL    HW210271   5.243  12.882   2.050
36147SOL     OW10272   1.589   2.851   4.510
36147SOL    HW110273   1.629   2.907   4.576
36147SOL    HW210274   1.587   2.764   4.551
36148SOL     OW10275  14.657   0.437  11.544
36148SOL    HW110276  14.633   0.491  11.469
36148SOL    HW210277  14.574   0.416  11.587
36149SOL     OW10278   3.136  11.252   6.154
36149SOL    HW110279   3.183  11.259   6.071
36149SOL    HW210280   3.093  11.337   6.165
36150SOL     OW10281  12.904  11.471   2.443
36150SOL    HW110282  12.901  11.477   2.539
36150SOL    HW210283  12.916  11.377   2.426
36151SOL     OW10284   5.077  11.829   5.218
36151SOL    HW110285   5.169  11.851   5.237
36151SOL    HW210286   5.030  11.853   5.298
36152SOL     OW10287  12.813   0.317   0.955
36152SOL    HW110288  12.724   0.347   0.940
36152SOL    HW210289  12.805   0.252   1.025
36153SOL     OW10290  10.933  10.554  14.242
36153SOL    HW110291  10.875  10.477  14.239
36153SOL    HW210292  10.882  10.620  14.289
36154SOL     OW10293  11.202  11.918   7.954
36154SOL    HW110294  11.223  11.866   7.877
36154SOL    HW210295  11.120  11.962   7.931
36155SOL     OW10296   2.021   8.290  11.674
36155SOL    HW110297   1.963   8.357  11.711
36155SOL    HW210298   2.069   8.256  11.749
36156SOL     OW10299   4.011   0.032   3.997
36156SOL    HW110300   4.025   0.070   3.911
36156SOL    HW210301   3.945  14.847   3.983
36157SOL     OW10302   6.454  14.464   8.422
36157SOL    HW110303   6.547  14.472   8.401
36157SOL    HW210304   6.416  14.549   8.399
36158SOL     OW10305  13.262   3.873   6.304
36158SOL    HW110306  13.353   3.880   6.330
36158SOL    HW210307  13.236   3.962   6.282
36159SOL     OW10308   7.664   1.494   9.748
36159SOL    HW110309   7.731   1.530   9.690
36159SOL    HW210310   7.665   1.400   9.731
36160SOL     OW10311   1.977   7.442  13.816
36160SOL    HW110312   2.018   7.377  13.873
36160SOL    HW210313   1.908   7.395  13.770
36161SOL     OW10314  14.743   9.750   4.828
36161SOL    HW110315  14.819   9.776   4.777
36161SOL    HW210316  14.672   9.740   4.764
36162SOL     OW10317   0.556  11.688   4.344
36162SOL    HW110318   0.639  11.680   4.392
36162SOL    HW210319   0.580  11.732   4.262
36163SOL     OW10320   0.469   9.776   7.858
36163SOL    HW110321   0.432   9.713   7.919
36163SOL    HW210322   0.507   9.723   7.788
36164SOL     OW10323   4.094  10.838   6.268
36164SOL    HW110324   4.021  10.787   6.303
36164SOL    HW210325   4.070  10.855   6.177
36165SOL     OW10326  12.815   3.703   6.844
36165SOL    HW110327  12.873   3.632   6.815
36165SOL    HW210328  12.804   3.688   6.938
36166SOL     OW10329   1.939   4.957  13.033
36166SOL    HW110330   1.991   5.032  13.063
36166SOL    HW210331   1.886   4.991  12.962
36167SOL     OW10332   1.811   0.788   2.770
36167SOL    HW110333   1.750   0.714   2.767
36167SOL    HW210334   1.844   0.795   2.680
36168SOL     OW10335  11.629   2.498   3.387
36168SOL    HW110336  11.634   2.482   3.481
36168SOL    HW210337  11.691   2.435   3.349
36169SOL     OW10338   9.352   7.984   4.047
36169SOL    HW110339   9.274   8.020   4.090
36169SOL    HW210340   9.317   7.923   3.981
36170SOL     OW10341   1.307   3.937   9.127
36170SOL    HW110342   1.229   3.883   9.118
36170SOL    HW210343   1.380   3.878   9.107
36171SOL     OW10344   4.730   0.656   7.999
36171SOL    HW110345   4.807   0.667   7.944
36171SOL    HW210346   4.659   0.698   7.951
36172SOL     OW10347   3.552   2.751  10.922
36172SOL    HW110348   3.588   2.815  10.859
36172SOL    HW210349   3.573   2.788  11.008
36173SOL     OW10350   1.798   2.921  10.789
36173SOL    HW110351   1.715   2.970  10.797
36173SOL    HW210352   1.863   2.988  10.770
36174SOL     OW10353  14.865   0.983   8.234
36174SOL    HW110354   0.017   0.975   8.145
36174SOL    HW210355  14.770   0.980   8.223
36175SOL     OW10356   5.514  14.814  10.806
36175SOL    HW110357   5.485  14.731  10.769
36175SOL    HW210358   5.590  14.792  10.859
36176SOL     OW10359   0.121  12.900   4.812
36176SOL    HW110360   0.065  12.967   4.851
36176SOL    HW210361   0.069  12.820   4.819
36177SOL     OW10362   7.177  12.115  14.829
36177SOL    HW110363   7.156  12.208  14.831
36177SOL    HW210364   7.147  12.085  14.743
36178SOL     OW10365  10.912   9.392   8.883
36178SOL    HW110366  11.002   9.364   8.900
36178SOL    HW210367  10.916   9.488   8.887
36179SOL     OW10368   3.767  12.034  13.573
36179SOL    HW110369   3.682  12.073  13.592
36179SOL    HW210370   3.747  11.946  13.542
36180SOL     OW10371   7.514  11.307  14.178
36180SOL    HW110372   7.536  11.215  14.163
36180SOL    HW210373   7.595  11.346  14.211
36181SOL     OW10374   9.117   0.397   8.853
36181SOL    HW110375   9.162   0.482   8.842
36181SOL    HW210376   9.172   0.335   8.806
36182SOL     OW10377   2.906  14.616  12.977
36182SOL    HW110378   2.955  14.578  12.904
36182SOL    HW210379   2.817  14.581  12.967
36183SOL     OW10380   8.638  11.068   1.036
36183SOL    HW110381   8.621  10.974   1.029
36183SOL    HW210382   8.551  11.107   1.051
36184SOL     OW10383   7.969   3.065  11.004
36184SOL    HW110384   7.893   3.075  10.946
36184SOL    HW210385   8.031   3.012  10.954
36185SOL     OW10386   7.855   1.824   8.894
36185SOL    HW110387   7.911   1.870   8.957
36185SOL    HW210388   7.897   1.740   8.881
36186SOL     OW10389   8.051   1.763   7.052
36186SOL    HW110390   8.105   1.710   7.111
36186SOL    HW210391   8.097   1.847   7.046
36187SOL     OW10392   2.767   2.953   3.709
36187SOL    HW110393   2.749   3.027   3.768
36187SOL    HW210394   2.698   2.958   3.643
36188SOL     OW10395  12.333   5.450   3.315
36188SOL    HW110396  12.361   5.539   3.336
36188SOL    HW210397  12.241   5.459   3.293
36189SOL     OW10398   0.648   1.818   7.035
36189SOL    HW110399   0.709   1.870   7.088
36189SOL    HW210400   0.657   1.854   6.947
36190SOL     OW10401   8.499  13.168   4.096
36190SOL    HW110402   8.406  13.151   4.109
36190SOL    HW210403   8.510  13.260   4.118
36191SOL     OW10404   3.744  12.994  10.477
36191SOL    HW110405   3.661  12.946  10.467
36191SOL    HW210406   3.730  13.050  10.553
36192SOL     OW10407   8.301   1.059  11.426
36192SOL    HW110408   8.233   1.030  11.487
36192SOL    HW210409   8.347   0.978  11.402
36193SOL     OW10410  12.955  12.019   1.212
36193SOL    HW110411  12.991  12.074   1.143
36193SOL    HW210412  13.025  11.957   1.233
36194SOL     OW10413   4.304  10.571  11.678
36194SOL    HW110414   4.336  10.648  11.724
36194SOL    HW210415   4.365  10.501  11.702
36195SOL     OW10416  12.677   4.101  11.497
36195SOL    HW110417  12.599   4.061  11.534
36195SOL    HW210418  12.725   4.135  11.573
36196SOL     OW10419  12.345   3.446  12.040
36196SOL    HW110420  12.316   3.389  12.111
36196SOL    HW210421  12.354   3.532  12.079
36197SOL     OW10422   3.875   8.221   6.897
36197SOL    HW110423   3.793   8.231   6.849
36197SOL    HW210424   3.917   8.144   6.857
36198SOL     OW10425   4.538  12.429  10.154
36198SOL    HW110426   4.471  12.463  10.214
36198SOL    HW210427   4.507  12.342  10.129
36199SOL     OW10428   4.595   2.890  10.178
36199SOL    HW110429   4.675   2.923  10.219
36199SOL    HW210430   4.536   2.871  10.251
36200SOL     OW10431   6.746   4.513   5.154
36200SOL    HW110432   6.657   4.504   5.186
36200SOL    HW210433   6.760   4.436   5.098
36201SOL     OW10434  13.182   9.816   2.707
36201SOL    HW110435  13.188   9.908   2.679
36201SOL    HW210436  13.172   9.821   2.802
36202SOL     OW10437  13.644   0.217   2.285
36202SOL    HW110438  13.706   0.272   2.236
36202SOL    HW210439  13.644   0.255   2.373
36203SOL     OW10440  11.508   9.263   3.430
36203SOL    HW110441  11.553   9.181   3.408
36203SOL    HW210442  11.573   9.314   3.478
36204SOL     OW10443   9.522   6.229   7.218
36204SOL    HW110444   9.543   6.163   7.153
36204SOL    HW210445   9.440   6.198   7.257
36205SOL     OW10446   4.231  11.849   4.387
36205SOL    HW110447   4.286  11.837   4.310
36205SOL    HW210448   4.263  11.930   4.427
36206SOL     OW10449   6.814   0.045   4.188
36206SOL    HW110450   6.791   0.015   4.276
36206SOL    HW210451   6.909   0.052   4.188
36207SOL     OW10452   9.387   7.001  12.469
36207SOL    HW110453   9.338   7.067  12.420
36207SOL    HW210454   9.479   7.019  12.449
36208SOL     OW10455   4.846  11.267  11.046
36208SOL    HW110456   4.896  11.190  11.072
36208SOL    HW210457   4.771  11.233  10.997
36209SOL     OW10458  12.154   8.908   1.787
36209SOL    HW110459  12.192   8.839   1.732
36209SOL    HW210460  12.070   8.873   1.815
36210SOL     OW10461   3.606  14.110   1.547
36210SOL    HW110462   3.524  14.157   1.537
36210SOL    HW210463   3.617  14.063   1.464
36211SOL     OW10464   3.679   5.455   7.520
36211SOL    HW110465   3.692   5.543   7.555
36211SOL    HW210466   3.602   5.463   7.464
36212SOL     OW10467  10.184  13.211  12.607
36212SOL    HW110468  10.231  13.188  12.686
36212SOL    HW210469  10.185  13.307  12.605
36213SOL     OW10470   5.407  10.052   3.791
36213SOL    HW110471   5.472   9.987   3.763
36213SOL    HW210472   5.459  10.128   3.817
36214SOL     OW10473   2.301  14.079   9.113
36214SOL    HW110474   2.305  14.171   9.140
36214SOL    HW210475   2.209  14.055   9.121
36215SOL     OW10476   2.033   6.465   4.855
36215SOL    HW110477   2.061   6.535   4.913
36215SOL    HW210478   1.948   6.437   4.890
36216SOL     OW10479   4.965   7.292   1.563
36216SOL    HW110480   4.926   7.306   1.650
36216SOL    HW210481   4.906   7.337   1.503
36217SOL     OW10482   3.660  13.357   3.803
36217SOL    HW110483   3.651  13.451   3.818
36217SOL    HW210484   3.735  13.349   3.744
36218SOL     OW10485  14.595   6.097   5.283
36218SOL    HW110486  14.512   6.060   5.253
36218SOL    HW210487  14.626   6.035   5.350
36219SOL     OW10488   0.898  11.354   3.794
36219SOL    HW110489   0.965  11.354   3.863
36219SOL    HW210490   0.827  11.301   3.829
36220SOL     OW10491   9.878  10.317   5.991
36220SOL    HW110492   9.939  10.391   5.987
36220SOL    HW210493   9.912  10.261   6.060
36221SOL     OW10494   0.319   2.831   7.548
36221SOL    HW110495   0.288   2.901   7.492
36221SOL    HW210496   0.337   2.758   7.489
36222SOL     OW10497  13.040  10.519   3.011
36222SOL    HW110498  12.978  10.585   2.980
36222SOL    HW210499  13.123  10.543   2.971
36223SOL     OW10500  12.863   3.874   8.510
36223SOL    HW110501  12.881   3.922   8.429
36223SOL    HW210502  12.856   3.941   8.577
36224SOL     OW10503   3.339   0.889  11.449
36224SOL    HW110504   3.381   0.889  11.363
36224SOL    HW210505   3.318   0.981  11.465
36225SOL     OW10506  10.172  13.643  10.515
36225SOL    HW110507  10.157  13.729  10.554
36225SOL    HW210508  10.267  13.631  10.518
36226SOL     OW10509  11.901  12.453  11.141
36226SOL    HW110510  11.825  12.511  11.150
36226SOL    HW210511  11.951  12.490  11.069
36227SOL     OW10512   9.054   0.798   1.308
36227SOL    HW110513   9.126   0.772   1.250
36227SOL    HW210514   8.988   0.834   1.250
36228SOL     OW10515  10.320   1.771   9.725
36228SOL    HW110516  10.294   1.680   9.707
36228SOL    HW210517  10.335   1.774   9.819
36229SOL     OW10518  11.896  13.354   0.143
36229SOL    HW110519  11.869  13.446   0.135
36229SOL    HW210520  11.991  13.356   0.130
36230SOL     OW10521   8.871  10.893  13.608
36230SOL    HW110522   8.781  10.884  13.640
36230SOL    HW210523   8.918  10.821  13.650
36231SOL     OW10524   6.705  12.307  13.686
36231SOL    HW110525   6.711  12.356  13.768
36231SOL    HW210526   6.644  12.357  13.632
36232SOL     OW10527   8.567   0.366   8.220
36232SOL    HW110528   8.519   0.314   8.284
36232SOL    HW210529   8.510   0.368   8.143
36233SOL     OW10530  12.049  13.344   1.814
36233SOL    HW110531  12.115  13.328   1.747
36233SOL    HW210532  12.049  13.264   1.868
36234SOL     OW10533  11.688   7.943  14.074
36234SOL    HW110534  11.771   7.902  14.098
36234SOL    HW210535  11.709   7.995  13.996
36235SOL     OW10536  11.131   1.654   2.873
36235SOL    HW110537  11.139   1.654   2.777
36235SOL    HW210538  11.075   1.579   2.892
36236SOL     OW10539   3.135   4.309  13.403
36236SOL    HW110540   3.088   4.301  13.320
36236SOL    HW210541   3.093   4.383  13.447
36237SOL     OW10542   5.955   2.191   5.404
36237SOL    HW110543   5.919   2.187   5.315
36237SOL    HW210544   6.022   2.259   5.400
36238SOL     OW10545  10.251   5.500   3.486
36238SOL    HW110546  10.278   5.570   3.426
36238SOL    HW210547  10.281   5.529   3.572
36239SOL     OW10548  14.430   4.783   5.525
36239SOL    HW110549  14.440   4.860   5.469
36239SOL    HW210550  14.502   4.726   5.500
36240SOL     OW10551   3.649  13.335   6.044
36240SOL    HW110552   3.699  13.317   6.123
36240SOL    HW210553   3.661  13.429   6.029
36241SOL     OW10554   6.563   6.965  14.312
36241SOL    HW110555   6.639   7.007  14.350
36241SOL    HW210556   6.556   7.002  14.224
36242SOL     OW10557   2.053   3.044  12.721
36242SOL    HW110558   2.065   3.138  12.727
36242SOL    HW210559   1.970   3.028  12.767
36243SOL     OW10560  12.166   3.510  11.190
36243SOL    HW110561  12.185   3.599  11.217
36243SOL    HW210562  12.171   3.459  11.271
36244SOL     OW10563   4.923  13.990   0.125
36244SOL    HW110564   4.918  13.975   0.031
36244SOL    HW210565   5.016  13.983   0.146
36245SOL     OW10566  14.498   2.050  14.770
36245SOL    HW110567  14.460   2.036  14.683
36245SOL    HW210568  14.442   2.116  14.810
36246SOL     OW10569   3.991   5.761   9.709
36246SOL    HW110570   3.966   5.804   9.790
36246SOL    HW210571   4.070   5.808   9.681
36247SOL     OW10572   1.285   6.653   6.561
36247SOL    HW110573   1.257   6.743   6.546
36247SOL    HW210574   1.361   6.642   6.504
36248SOL     OW10575   5.620   2.567  14.745
36248SOL    HW110576   5.662   2.490  14.708
36248SOL    HW210577   5.527   2.555  14.726
36249SOL     OW10578  13.958   5.642  11.004
36249SOL    HW110579  13.883   5.604  11.049
36249SOL    HW210580  13.945   5.618  10.912
36250SOL     OW10581  14.042  10.373   1.809
36250SOL    HW110582  14.042  10.468   1.796
36250SOL    HW210583  14.017  10.362   1.901
36251SOL     OW10584   5.992   0.972   7.706
36251SOL    HW110585   5.955   1.001   7.623
36251SOL    HW210586   6.011   1.053   7.754
36252SOL     OW10587  14.580   1.750   9.692
36252SOL    HW110588  14.543   1.706   9.769
36252SOL    HW210589  14.531   1.714   9.618
36253SOL     OW10590  11.347   1.997   2.640
36253SOL    HW110591  11.336   1.919   2.584
36253SOL    HW210592  11.258   2.021   2.665
36254SOL     OW10593  10.323   6.545  10.967
36254SOL    HW110594  10.392   6.611  10.972
36254SOL    HW210595  10.243   6.596  10.953
36255SOL     OW10596   2.627   3.265   2.702
36255SOL    HW110597   2.715   3.231   2.689
36255SOL    HW210598   2.639   3.359   2.713
36256SOL     OW10599   4.222  11.089   3.025
36256SOL    HW110600   4.184  11.141   2.954
36256SOL    HW210601   4.183  11.002   3.015
36257SOL     OW10602   6.741  12.922   8.615
36257SOL    HW110603   6.793  12.981   8.670
36257SOL    HW210604   6.778  12.933   8.527
36258SOL     OW10605   6.168   6.180   5.911
36258SOL    HW110606   6.091   6.126   5.931
36258SOL    HW210607   6.138   6.238   5.841
36259SOL     OW10608   9.013   2.628   7.998
36259SOL    HW110609   8.978   2.608   8.085
36259SOL    HW210610   8.947   2.686   7.959
36260SOL     OW10611   3.485  14.026   6.503
36260SOL    HW110612   3.465  14.028   6.409
36260SOL    HW210613   3.405  13.994   6.544
36261SOL     OW10614  12.759  10.840   4.527
36261SOL    HW110615  12.762  10.821   4.621
36261SOL    HW210616  12.848  10.821   4.495
36262SOL     OW10617   6.851  14.592   6.995
36262SOL    HW110618   6.847  14.504   7.030
36262SOL    HW210619   6.879  14.646   7.069
36263SOL     OW10620  11.789   2.875   0.639
36263SOL    HW110621  11.759   2.881   0.549
36263SOL    HW210622  11.709   2.859   0.690
36264SOL     OW10623   1.374   1.355  12.941
36264SOL    HW110624   1.308   1.401  12.890
36264SOL    HW210625   1.391   1.275  12.891
36265SOL     OW10626   4.881  11.675   7.374
36265SOL    HW110627   4.971  11.663   7.403
36265SOL    HW210628   4.886  11.739   7.304
36266SOL     OW10629   3.720   2.063   3.454
36266SOL    HW110630   3.802   2.085   3.497
36266SOL    HW210631   3.657   2.128   3.487
36267SOL     OW10632   1.520  10.569  10.142
36267SOL    HW110633   1.593  10.630  10.153
36267SOL    HW210634   1.543  10.519  10.064
36268SOL     OW10635   6.330   6.660   1.107
36268SOL    HW110636   6.287   6.663   1.192
36268SOL    HW210637   6.312   6.572   1.074
36269SOL     OW10638  13.699   0.316  13.515
36269SOL    HW110639  13.655   0.369  13.582
36269SOL    HW210640  13.658   0.229  13.523
36270SOL     OW10641   0.075  14.498   9.322
36270SOL    HW110642   0.053  14.582   9.281
36270SOL    HW210643   0.111  14.521   9.407
36271SOL     OW10644  12.659   0.163   5.512
36271SOL    HW110645  12.617   0.244   5.482
36271SOL    HW210646  12.586   0.108   5.541
36272SOL     OW10647   7.024  11.880   5.224
36272SOL    HW110648   6.983  11.958   5.262
36272SOL    HW210649   7.004  11.810   5.286
36273SOL     OW10650  12.305  10.503   8.296
36273SOL    HW110651  12.348  10.500   8.381
36273SOL    HW210652  12.240  10.572   8.304
36274SOL     OW10653  10.842  12.641   4.693
36274SOL    HW110654  10.814  12.551   4.676
36274SOL    HW210655  10.844  12.648   4.789
36275SOL     OW10656  10.382   2.938   3.264
36275SOL    HW110657  10.359   3.027   3.290
36275SOL    HW210658  10.475   2.944   3.239
36276SOL     OW10659  10.797   5.913   1.568
36276SOL    HW110660  10.765   6.003   1.579
36276SOL    HW210661  10.775   5.870   1.650
36277SOL     OW10662   6.080   0.360   6.390
36277SOL    HW110663   6.012   0.417   6.426
36277SOL    HW210664   6.033   0.290   6.345
36278SOL     OW10665  13.430   5.319   9.013
36278SOL    HW110666  13.397   5.243   9.060
36278SOL    HW210667  13.511   5.288   8.971
36279SOL     OW10668   2.168  12.751  10.225
36279SOL    HW110669   2.205  12.746  10.314
36279SOL    HW210670   2.194  12.668  10.184
36280SOL     OW10671   1.356   2.822   9.150
36280SOL    HW110672   1.320   2.894   9.099
36280SOL    HW210673   1.394   2.763   9.085
36281SOL     OW10674  10.960   1.426   6.791
36281SOL    HW110675  10.983   1.462   6.706
36281SOL    HW210676  10.959   1.501   6.850
36282SOL     OW10677   7.401   0.102   7.061
36282SOL    HW110678   7.318   0.140   7.032
36282SOL    HW210679   7.455   0.098   6.982
36283SOL     OW10680   0.018   9.008   8.031
36283SOL    HW110681  14.853   9.051   7.959
36283SOL    HW210682   0.029   8.918   8.001
36284SOL     OW10683  14.232   8.575  12.550
36284SOL    HW110684  14.213   8.491  12.510
36284SOL    HW210685  14.284   8.554  12.628
36285SOL     OW10686  12.549   2.105  10.651
36285SOL    HW110687  12.525   2.038  10.586
36285SOL    HW210688  12.544   2.059  10.735
36286SOL     OW10689   0.725  10.007   2.007
36286SOL    HW110690   0.734   9.929   2.062
36286SOL    HW210691   0.669  10.065   2.059
36287SOL     OW10692   9.806  12.111   3.893
36287SOL    HW110693   9.750  12.035   3.876
36287SOL    HW210694   9.839  12.097   3.982
36288SOL     OW10695  10.246   0.240   5.867
36288SOL    HW110696  10.217   0.244   5.958
36288SOL    HW210697  10.166   0.250   5.815
36289SOL     OW10698   7.207   0.074   2.529
36289SOL    HW110699   7.242   0.112   2.609
36289SOL    HW210700   7.251  14.871   2.521
36290SOL     OW10701   1.149  14.672  14.621
36290SOL    HW110702   1.123  14.648  14.710
36290SOL    HW210703   1.234  14.630  14.609
36291SOL     OW10704   0.217   1.240  12.097
36291SOL    HW110705   0.270   1.319  12.102
36291SOL    HW210706   0.175   1.245  12.011
36292SOL     OW10707   3.994  12.384   5.325
36292SOL    HW110708   3.982  12.289   5.321
36292SOL    HW210709   3.905  12.418   5.339
36293SOL     OW10710   4.495  14.412   4.414
36293SOL    HW110711   4.501  14.398   4.508
36293SOL    HW210712   4.586  14.423   4.385
36294SOL     OW10713  12.932   4.224  11.383
36294SOL    HW110714  12.856   4.187  11.428
36294SOL    HW210715  12.920   4.202  11.291
36295SOL     OW10716   6.093   3.921  10.587
36295SOL    HW110717   6.088   3.960  10.674
36295SOL    HW210718   6.117   3.994  10.529
36296SOL     OW10719   8.662   7.081   8.771
36296SOL    HW110720   8.712   7.019   8.718
36296SOL    HW210721   8.650   7.157   8.715
36297SOL     OW10722   7.498   7.146  12.522
36297SOL    HW110723   7.496   7.210  12.451
36297SOL    HW210724   7.436   7.179  12.587
36298SOL     OW10725   1.607   1.995   7.308
36298SOL    HW110726   1.686   1.994   7.363
36298SOL    HW210727   1.587   2.087   7.297
36299SOL     OW10728   3.279   9.074   9.836
36299SOL    HW110729   3.313   9.120   9.759
36299SOL    HW210730   3.262   9.143   9.900
36300SOL     OW10731   6.051   0.168   7.715
36300SOL    HW110732   5.965   0.200   7.690
36300SOL    HW210733   6.054   0.178   7.810
36301SOL     OW10734  13.784   8.533   5.984
36301SOL    HW110735  13.754   8.567   5.899
36301SOL    HW210736  13.721   8.570   6.047
36302SOL     OW10737  13.033  14.641   3.841
36302SOL    HW110738  12.990  14.579   3.898
36302SOL    HW210739  12.993  14.726   3.862
36303SOL     OW10740  13.285   2.879   0.192
36303SOL    HW110741  13.305   2.841   0.278
36303SOL    HW210742  13.214   2.825   0.158
36304SOL     OW10743   4.737   4.724   2.322
36304SOL    HW110744   4.681   4.751   2.395
36304SOL    HW210745   4.796   4.798   2.309
36305SOL     OW10746   0.383   0.297  14.300
36305SOL    HW110747   0.295   0.320  14.269
36305SOL    HW210748   0.409   0.222  14.247
36306SOL     OW10749   3.946  12.713   2.826
36306SOL    HW110750   3.974  12.775   2.893
36306SOL    HW210751   3.868  12.753   2.787
36307SOL     OW10752   6.453   4.693  12.474
36307SOL    HW110753   6.413   4.709  12.388
36307SOL    HW210754   6.485   4.778  12.502
36308SOL     OW10755  13.408   1.494   0.835
36308SOL    HW110756  13.484   1.436   0.831
36308SOL    HW210757  13.393   1.508   0.929
36309SOL     OW10758   2.678   5.428  14.574
36309SOL    HW110759   2.647   5.470  14.493
36309SOL    HW210760   2.772   5.416  14.560
36310SOL     OW10761  14.129   0.125   6.630
36310SOL    HW110762  14.213   0.122   6.675
36310SOL    HW210763  14.064   0.100   6.696
36311SOL     OW10764  14.869   2.338  10.807
36311SOL    HW110765  14.779   2.324  10.836
36311SOL    HW210766   0.040   2.287  10.867
36312SOL     OW10767   4.909   8.009   7.412
36312SOL    HW110768   4.904   7.938   7.349
36312SOL    HW210769   5.003   8.028   7.419
36313SOL     OW10770  11.542   9.492   4.961
36313SOL    HW110771  11.447   9.500   4.962
36313SOL    HW210772  11.567   9.495   5.054
36314SOL     OW10773   4.601   1.810   1.971
36314SOL    HW110774   4.653   1.749   1.918
36314SOL    HW210775   4.624   1.789   2.062
36315SOL     OW10776   4.082  13.158  11.308
36315SOL    HW110777   4.142  13.112  11.368
36315SOL    HW210778   4.038  13.088  11.260
36316SOL     OW10779   9.525   1.053   6.794
36316SOL    HW110780   9.485   0.979   6.749
36316SOL    HW210781   9.619   1.035   6.791
36317SOL     OW10782  14.608   2.187   1.022
36317SOL    HW110783  14.535   2.188   1.084
36317SOL    HW210784  14.650   2.272   1.033
36318SOL     OW10785  14.831   3.545   8.668
36318SOL    HW110786  14.811   3.458   8.701
36318SOL    HW210787  14.814   3.540   8.574
36319SOL     OW10788  10.412   4.080   5.813
36319SOL    HW110789  10.459   4.135   5.876
36319SOL    HW210790  10.320   4.101   5.828
36320SOL     OW10791   3.381   8.510   1.593
36320SOL    HW110792   3.305   8.537   1.543
36320SOL    HW210793   3.396   8.418   1.569
36321SOL     OW10794   8.087   4.874   7.893
36321SOL    HW110795   8.133   4.955   7.914
36321SOL    HW210796   8.006   4.903   7.851
36322SOL     OW10797  11.040   8.455  12.662
36322SOL    HW110798  11.082   8.383  12.709
36322SOL    HW210799  11.046   8.431  12.570
36323SOL     OW10800   0.533   0.481   4.136
36323SOL    HW110801   0.538   0.568   4.095
36323SOL    HW210802   0.494   0.425   4.069
36324SOL     OW10803  13.299   8.331   0.929
36324SOL    HW110804  13.211   8.367   0.923
36324SOL    HW210805  13.288   8.248   0.976
36325SOL     OW10806   3.544   9.040   1.446
36325SOL    HW110807   3.501   9.102   1.387
36325SOL    HW210808   3.498   8.957   1.432
36326SOL     OW10809   0.605   3.057  11.358
36326SOL    HW110810   0.564   3.112  11.291
36326SOL    HW210811   0.572   3.091  11.441
36327SOL     OW10812   1.821   3.350   2.993
36327SOL    HW110813   1.756   3.391   3.051
36327SOL    HW210814   1.862   3.282   3.047
36328SOL     OW10815  14.322   8.555   5.168
36328SOL    HW110816  14.248   8.501   5.142
36328SOL    HW210817  14.389   8.493   5.196
36329SOL     OW10818   2.312   8.735   8.472
36329SOL    HW110819   2.305   8.644   8.444
36329SOL    HW210820   2.375   8.734   8.543
36330SOL     OW10821  10.458  11.007  13.504
36330SOL    HW110822  10.423  10.974  13.421
36330SOL    HW210823  10.389  10.991  13.568
36331SOL     OW10824   7.765  11.152   1.008
36331SOL    HW110825   7.778  11.247   1.001
36331SOL    HW210826   7.703  11.141   1.079
36332SOL     OW10827   7.097   0.466  10.760
36332SOL    HW110828   7.017   0.489  10.807
36332SOL    HW210829   7.144   0.406  10.819
36333SOL     OW10830   4.095   8.191   9.498
36333SOL    HW110831   4.126   8.122   9.439
36333SOL    HW210832   4.000   8.190   9.488
36334SOL     OW10833  10.694   2.409   9.076
36334SOL    HW110834  10.693   2.314   9.075
36334SOL    HW210835  10.733   2.434   8.993
36335SOL     OW10836  10.785   8.503   8.256
36335SOL    HW110837  10.755   8.487   8.345
36335SOL    HW210838  10.878   8.479   8.257
36336SOL     OW10839   1.922   2.735  13.976
36336SOL    HW110840   1.943   2.798  14.045
36336SOL    HW210841   1.831   2.710  13.994
36337SOL     OW10842   5.011   1.416   2.153
36337SOL    HW110843   4.922   1.393   2.180
36337SOL    HW210844   5.001   1.452   2.065
36338SOL     OW10845   5.270   3.893  13.104
36338SOL    HW110846   5.364   3.908  13.118
36338SOL    HW210847   5.263   3.799  13.087
36339SOL     OW10848   1.122   5.542   0.414
36339SOL    HW110849   1.098   5.524   0.505
36339SOL    HW210850   1.054   5.499   0.362
36340SOL     OW10851   1.648   9.670   0.358
36340SOL    HW110852   1.733   9.703   0.383
36340SOL    HW210853   1.667   9.596   0.300
36341SOL     OW10854   0.979  14.640  12.741
36341SOL    HW110855   0.911  14.701  12.767
36341SOL    HW210856   1.020  14.613  12.823
36342SOL     OW10857   6.786  10.013  14.635
36342SOL    HW110858   6.808  10.092  14.584
36342SOL    HW210859   6.815   9.940  14.580
36343SOL     OW10860   5.316   7.687   5.043
36343SOL    HW110861   5.407   7.715   5.031
36343SOL    HW210862   5.320   7.591   5.036
36344SOL     OW10863   2.131  14.835  11.870
36344SOL    HW110864   2.165  14.875  11.790
36344SOL    HW210865   2.209  14.821  11.924
36345SOL     OW10866  12.755   7.563   0.772
36345SOL    HW110867  12.744   7.638   0.831
36345SOL    HW210868  12.670   7.557   0.727
36346SOL     OW10869  13.563  14.109  12.969
36346SOL    HW110870  13.496  14.178  12.967
36346SOL    HW210871  13.532  14.049  13.037
36347SOL     OW10872   7.776  12.473  10.481
36347SOL    HW110873   7.721  12.533  10.431
36347SOL    HW210874   7.798  12.404  10.419
36348SOL     OW10875   9.877   3.736   0.977
36348SOL    HW110876   9.911   3.796   1.043
36348SOL    HW210877   9.947   3.728   0.913
36349SOL     OW10878   0.524  12.640  10.340
36349SOL    HW110879   0.589  12.581  10.303
36349SOL    HW210880   0.476  12.587  10.403
36350SOL     OW10881   8.369  12.402  11.406
36350SOL    HW110882   8.327  12.458  11.341
36350SOL    HW210883   8.297  12.363  11.455
36351SOL     OW10884  13.233   8.897   0.549
36351SOL    HW110885  13.180   8.867   0.476
36351SOL    HW210886  13.231   8.824   0.611
36352SOL     OW10887  14.338  11.452   1.187
36352SOL    HW110888  14.259  11.461   1.240
36352SOL    HW210889  14.406  11.427   1.250
36353SOL     OW10890  13.101   3.906   8.127
36353SOL    HW110891  13.067   3.817   8.133
36353SOL    HW210892  13.176   3.907   8.186
36354SOL     OW10893   5.194   6.471   0.431
36354SOL    HW110894   5.246   6.510   0.361
36354SOL    HW210895   5.251   6.403   0.468
36355SOL     OW10896   0.243  14.606  10.177
36355SOL    HW110897   0.182  14.545  10.219
36355SOL    HW210898   0.294  14.642  10.249
36356SOL     OW10899   0.396   5.955   9.323
36356SOL    HW110900   0.479   5.925   9.361
36356SOL    HW210901   0.391   6.047   9.347
36357SOL     OW10902   8.869  14.657   5.968
36357SOL    HW110903   8.934  14.685   5.903
36357SOL    HW210904   8.789  14.704   5.944
36358SOL     OW10905   8.112   0.052  12.887
36358SOL    HW110906   8.020   0.030  12.894
36358SOL    HW210907   8.135   0.033  12.797
36359SOL     OW10908  10.378   8.114   7.193
36359SOL    HW110909  10.340   8.028   7.212
36359SOL    HW210910  10.319   8.153   7.128
36360SOL     OW10911   6.085  12.041  11.305
36360SOL    HW110912   6.022  12.039  11.233
36360SOL    HW210913   6.153  11.978  11.279
36361SOL     OW10914   3.812   9.464  12.983
36361SOL    HW110915   3.841   9.547  13.020
36361SOL    HW210916   3.845   9.397  13.043
36362SOL     OW10917   6.174   2.299   7.141
36362SOL    HW110918   6.175   2.207   7.114
36362SOL    HW210919   6.189   2.297   7.235
36363SOL     OW10920  13.669   3.487   9.964
36363SOL    HW110921  13.588   3.447   9.932
36363SOL    HW210922  13.679   3.566   9.912
36364SOL     OW10923   2.175   6.542  13.970
36364SOL    HW110924   2.168   6.447  13.959
36364SOL    HW210925   2.254   6.565  13.921
36365SOL     OW10926   4.271   3.431  14.002
36365SOL    HW110927   4.333   3.482  14.053
36365SOL    HW210928   4.243   3.361  14.061
36366SOL     OW10929  14.156   8.386  14.799
36366SOL    HW110930  14.170   8.293  14.816
36366SOL    HW210931  14.073   8.406  14.843
36367SOL     OW10932  14.201  14.502   4.641
36367SOL    HW110933  14.225  14.449   4.565
36367SOL    HW210934  14.182  14.439   4.710
36368SOL     OW10935   9.527   5.663  10.094
36368SOL    HW110936   9.451   5.714  10.119
36368SOL    HW210937   9.539   5.681  10.001
36369SOL     OW10938   6.231   7.182   7.039
36369SOL    HW110939   6.287   7.229   6.977
36369SOL    HW210940   6.181   7.251   7.082
36370SOL     OW10941   1.697   4.041   3.134
36370SOL    HW110942   1.644   4.061   3.211
36370SOL    HW210943   1.775   4.096   3.143
36371SOL     OW10944   7.358  13.202   4.695
36371SOL    HW110945   7.383  13.115   4.727
36371SOL    HW210946   7.382  13.201   4.602
36372SOL     OW10947   5.498   1.077  11.973
36372SOL    HW110948   5.403   1.065  11.967
36372SOL    HW210949   5.513   1.166  11.941
36373SOL     OW10950  11.494   2.111   2.400
36373SOL    HW110951  11.431   2.113   2.473
36373SOL    HW210952  11.515   2.018   2.390
36374SOL     OW10953   5.955   2.800   6.532
36374SOL    HW110954   5.995   2.715   6.547
36374SOL    HW210955   5.943   2.837   6.620
36375SOL     OW10956   4.348  10.786  13.607
36375SOL    HW110957   4.352  10.816  13.698
36375SOL    HW210958   4.391  10.700  13.608
36376SOL     OW10959   7.505   1.988  11.238
36376SOL    HW110960   7.526   1.941  11.158
36376SOL    HW210961   7.426   2.038  11.217
36377SOL     OW10962   4.550   3.824  11.452
36377SOL    HW110963   4.637   3.847  11.485
36377SOL    HW210964   4.550   3.728  11.448
36378SOL     OW10965  11.980  12.500   7.255
36378SOL    HW110966  11.953  12.524   7.166
36378SOL    HW210967  12.075  12.491   7.250
36379SOL     OW10968   5.199   7.592   9.446
36379SOL    HW110969   5.248   7.510   9.452
36379SOL    HW210970   5.260   7.653   9.404
36380SOL     OW10971   9.369   1.251   8.954
36380SOL    HW110972   9.282   1.211   8.961
36380SOL    HW210973   9.429   1.177   8.955
36381SOL     OW10974   8.202  14.191  11.109
36381SOL    HW110975   8.263  14.146  11.051
36381SOL    HW210976   8.192  14.278  11.070
36382SOL     OW10977   8.963  14.180   5.440
36382SOL    HW110978   8.979  14.263   5.396
36382SOL    HW210979   8.915  14.127   5.377
36383SOL     OW10980  10.003   1.563   4.537
36383SOL    HW110981  10.025   1.489   4.592
36383SOL    HW210982   9.941   1.528   4.473
36384SOL     OW10983  11.867  12.539   3.144
36384SOL    HW110984  11.940  12.580   3.190
36384SOL    HW210985  11.790  12.589   3.171
36385SOL     OW10986   3.716   3.933   8.799
36385SOL    HW110987   3.622   3.937   8.819
36385SOL    HW210988   3.753   4.010   8.841
36386SOL     OW10989  11.039  10.409  10.882
36386SOL    HW110990  11.079  10.485  10.839
36386SOL    HW210991  11.071  10.334  10.831
36387SOL     OW10992   3.483   8.070   0.022
36387SOL    HW110993   3.473   7.984   0.061
36387SOL    HW210994   3.509   8.053  14.814
36388SOL     OW10995   4.069   9.192  10.272
36388SOL    HW110996   4.154   9.218  10.237
36388SOL    HW210997   4.083   9.105  10.310
36389SOL     OW10998   9.571   5.197   0.234
36389SOL    HW110999   9.619   5.115   0.228
36389SOL    HW211000   9.479   5.171   0.238
36390SOL     OW11001   7.128  12.716   1.387
36390SOL    HW111002   7.164  12.676   1.466
36390SOL    HW211003   7.053  12.767   1.418
36391SOL     OW11004   2.039   7.768   8.485
36391SOL    HW111005   1.987   7.831   8.536
36391SOL    HW211006   1.975   7.724   8.429
36392SOL     OW11007   4.617  13.123   2.799
36392SOL    HW111008   4.597  13.216   2.785
36392SOL    HW211009   4.532  13.080   2.799
36393SOL     OW11010   0.166   9.117   8.225
36393SOL    HW111011   0.161   9.213   8.221
36393SOL    HW211012   0.121   9.088   8.146
36394SOL     OW11013   2.328   6.937   0.159
36394SOL    HW111014   2.291   7.003   0.100
36394SOL    HW211015   2.294   6.853   0.126
36395SOL     OW11016   8.047   6.756  12.319
36395SOL    HW111017   8.130   6.716  12.344
36395SOL    HW211018   8.070   6.816  12.247
36396SOL     OW11019   6.774   7.276   7.521
36396SOL    HW111020   6.759   7.289   7.428
36396SOL    HW211021   6.708   7.213   7.548
36397SOL     OW11022   4.012   9.940  10.751
36397SOL    HW111023   3.957   9.984  10.686
36397SOL    HW211024   3.982   9.849  10.751
36398SOL     OW11025  12.393   2.200   9.521
36398SOL    HW111026  12.316   2.203   9.464
36398SOL    HW211027  12.433   2.287   9.512
36399SOL     OW11028   8.871   6.659   7.170
36399SOL    HW111029   8.878   6.654   7.074
36399SOL    HW211030   8.854   6.751   7.189
36400SOL     OW11031   8.971  12.102  11.508
36400SOL    HW111032   9.021  12.181  11.488
36400SOL    HW211033   8.963  12.103  11.604
36401SOL     OW11034   5.344  12.765  13.561
36401SOL    HW111035   5.309  12.795  13.477
36401SOL    HW211036   5.323  12.835  13.623
36402SOL     OW11037  11.331  11.425   8.533
36402SOL    HW111038  11.341  11.502   8.476
36402SOL    HW211039  11.324  11.351   8.473
36403SOL     OW11040   3.034   8.222  11.845
36403SOL    HW111041   3.110   8.166  11.833
36403SOL    HW211042   3.063   8.308  11.814
36404SOL     OW11043   9.771   0.321   4.400
36404SOL    HW111044   9.788   0.319   4.494
36404SOL    HW211045   9.840   0.268   4.361
36405SOL     OW11046   8.589  12.982   4.288
36405SOL    HW111047   8.562  13.034   4.213
36405SOL    HW211048   8.659  13.033   4.329
36406SOL     OW11049   3.968   6.629   1.597
36406SOL    HW111050   3.878   6.607   1.620
36406SOL    HW211051   4.020   6.591   1.668
36407SOL     OW11052   9.793   6.542   0.816
36407SOL    HW111053   9.730   6.492   0.764
36407SOL    HW211054   9.807   6.623   0.767
36408SOL     OW11055   5.878   4.259   5.638
36408SOL    HW111056   5.884   4.164   5.627
36408SOL    HW211057   5.945   4.295   5.580
36409SOL     OW11058  12.120   4.239  13.340
36409SOL    HW111059  12.090   4.308  13.400
36409SOL    HW211060  12.115   4.158  13.391
36410SOL     OW11061   0.774  12.959   8.076
36410SOL    HW111062   0.808  12.951   8.165
36410SOL    HW211063   0.717  13.036   8.078
36411SOL     OW11064   1.842   3.911  14.873
36411SOL    HW111065   1.812   3.950   0.073
36411SOL    HW211066   1.907   3.847   0.017
36412SOL     OW11067   1.198   9.079   2.324
36412SOL    HW111068   1.158   9.161   2.351
36412SOL    HW211069   1.124   9.023   2.300
36413SOL     OW11070   3.328  11.082  12.638
36413SOL    HW111071   3.389  11.036  12.581
36413SOL    HW211072   3.381  11.110  12.713
36414SOL     OW11073   1.195   7.598   0.467
36414SOL    HW111074   1.243   7.565   0.391
36414SOL    HW211075   1.218   7.690   0.473
36415SOL     OW11076  13.614   2.254   5.787
36415SOL    HW111077  13.586   2.164   5.804
36415SOL    HW211078  13.586   2.272   5.698
36416SOL     OW11079  10.548  12.460   9.407
36416SOL    HW111080  10.505  12.540   9.377
36416SOL    HW211081  10.479  12.394   9.409
36417SOL     OW11082   5.630   4.179   2.107
36417SOL    HW111083   5.622   4.095   2.062
36417SOL    HW211084   5.720   4.207   2.090
36418SOL     OW11085  10.991   0.501   5.330
36418SOL    HW111086  11.016   0.558   5.404
36418SOL    HW211087  10.953   0.423   5.372
36419SOL     OW11088   7.667   0.908  11.927
36419SOL    HW111089   7.639   0.839  11.867
36419SOL    HW211090   7.754   0.881  11.956
36420SOL     OW11091   0.722   7.193   1.450
36420SOL    HW111092   0.658   7.126   1.425
36420SOL    HW211093   0.802   7.169   1.404
36421SOL     OW11094  10.504   5.275   7.586
36421SOL    HW111095  10.486   5.185   7.558
36421SOL    HW211096  10.526   5.267   7.679
36422SOL     OW11097  13.194   2.810  11.726
36422SOL    HW111098  13.256   2.807  11.653
36422SOL    HW211099  13.166   2.902  11.729
36423SOL     OW11100  13.065   2.899   5.854
36423SOL    HW111101  12.972   2.912   5.837
36423SOL    HW211102  13.107   2.910   5.768
36424SOL     OW11103   3.267   6.373  10.032
36424SOL    HW111104   3.186   6.419  10.055
36424SOL    HW211105   3.320   6.375  10.111
36425SOL     OW11106   5.810  14.328   1.653
36425SOL    HW111107   5.813  14.410   1.702
36425SOL    HW211108   5.854  14.264   1.710
36426SOL     OW11109   2.086   2.569   3.039
36426SOL    HW111110   1.997   2.539   3.023
36426SOL    HW211111   2.138   2.489   3.045
36427SOL     OW11112   8.833   6.018   0.082
36427SOL    HW111113   8.761   6.008   0.144
36427SOL    HW211114   8.900   5.957   0.113
36428SOL     OW11115  14.418  12.184   6.811
36428SOL    HW111116  14.431  12.114   6.748
36428SOL    HW211117  14.372  12.143   6.884
36429SOL     OW11118   9.674   3.810   0.130
36429SOL    HW111119   9.761   3.783   0.157
36429SOL    HW211120   9.615   3.742   0.164
36430SOL     OW11121  13.805   4.732   2.464
36430SOL    HW111122  13.770   4.691   2.385
36430SOL    HW211123  13.899   4.738   2.449
36431SOL     OW11124   7.620   8.248  13.239
36431SOL    HW111125   7.567   8.311  13.287
36431SOL    HW211126   7.568   8.167  13.241
36432SOL     OW11127   1.039   4.628   6.967
36432SOL    HW111128   1.028   4.543   7.010
36432SOL    HW211129   1.053   4.607   6.875
36433SOL     OW11130  10.676   7.275   6.730
36433SOL    HW111131  10.649   7.218   6.802
36433SOL    HW211132  10.767   7.253   6.714
36434SOL     OW11133  13.288   5.912   9.322
36434SOL    HW111134  13.299   6.000   9.286
36434SOL    HW211135  13.238   5.865   9.255
36435SOL     OW11136   6.079   3.434   4.840
36435SOL    HW111137   6.158   3.420   4.893
36435SOL    HW211138   6.079   3.527   4.820
36436SOL     OW11139   6.185  14.417   0.580
36436SOL    HW111140   6.154  14.335   0.542
36436SOL    HW211141   6.125  14.483   0.546
36437SOL     OW11142   0.446   2.933  14.593
36437SOL    HW111143   0.474   2.942  14.684
36437SOL    HW211144   0.366   2.879  14.598
36438SOL     OW11145   4.087   2.558  14.510
36438SOL    HW111146   4.117   2.468  14.497
36438SOL    HW211147   4.010   2.566  14.453
36439SOL     OW11148   0.038   3.044  13.273
36439SOL    HW111149   0.005   3.091  13.349
36439SOL    HW211150   0.034   2.952  13.298
36440SOL     OW11151  13.041   1.117   7.265
36440SOL    HW111152  12.986   1.101   7.342
36440SOL    HW211153  13.094   1.193   7.289
36441SOL     OW11154  12.205   2.753  11.735
36441SOL    HW111155  12.116   2.755  11.700
36441SOL    HW211156  12.259   2.719  11.662
36442SOL     OW11157  11.176   1.920   8.378
36442SOL    HW111158  11.182   1.825   8.385
36442SOL    HW211159  11.150   1.936   8.287
36443SOL     OW11160  10.051   8.115   1.302
36443SOL    HW111161   9.961   8.111   1.272
36443SOL    HW211162  10.093   8.181   1.246
36444SOL     OW11163   6.725   0.868   3.134
36444SOL    HW111164   6.765   0.844   3.218
36444SOL    HW211165   6.736   0.790   3.080
36445SOL     OW11166   1.587   2.326   9.998
36445SOL    HW111167   1.616   2.320  10.089
36445SOL    HW211168   1.618   2.245   9.958
36446SOL     OW11169   6.109   3.573  13.817
36446SOL    HW111170   6.080   3.569  13.908
36446SOL    HW211171   6.113   3.482  13.789
36447SOL     OW11172  11.398   3.670  10.643
36447SOL    HW111173  11.334   3.708  10.584
36447SOL    HW211174  11.392   3.575  10.628
36448SOL     OW11175  10.990   6.253   2.076
36448SOL    HW111176  11.086   6.256   2.068
36448SOL    HW211177  10.960   6.331   2.031
36449SOL     OW11178   1.979   1.948   4.295
36449SOL    HW111179   1.912   1.933   4.362
36449SOL    HW211180   2.010   1.861   4.271
36450SOL     OW11181   7.936   6.422   3.580
36450SOL    HW111182   7.981   6.463   3.654
36450SOL    HW211183   7.908   6.337   3.615
36451SOL     OW11184   8.061  10.214   6.683
36451SOL    HW111185   7.990  10.164   6.722
36451SOL    HW211186   8.093  10.271   6.753
36452SOL     OW11187  10.987  13.122   9.597
36452SOL    HW111188  11.049  13.128   9.670
36452SOL    HW211189  10.956  13.032   9.599
36453SOL     OW11190   1.510   5.229   8.643
36453SOL    HW111191   1.530   5.321   8.655
36453SOL    HW211192   1.493   5.220   8.549
36454SOL     OW11193   3.157   9.470  12.265
36454SOL    HW111194   3.233   9.516  12.300
36454SOL    HW211195   3.107   9.444  12.343
36455SOL     OW11196   6.247   1.749  11.318
36455SOL    HW111197   6.226   1.675  11.375
36455SOL    HW211198   6.339   1.767  11.334
36456SOL     OW11199  12.899  13.423   5.251
36456SOL    HW111200  12.862  13.506   5.221
36456SOL    HW211201  12.978  13.449   5.300
36457SOL     OW11202  12.387   2.683  11.475
36457SOL    HW111203  12.480   2.669  11.490
36457SOL    HW211204  12.351   2.595  11.468
36458SOL     OW11205  11.147  10.666   1.242
36458SOL    HW111206  11.055  10.682   1.261
36458SOL    HW211207  11.174  10.598   1.304
36459SOL     OW11208  13.211   5.167  14.340
36459SOL    HW111209  13.214   5.240  14.279
36459SOL    HW211210  13.175   5.204  14.421
36460SOL     OW11211   2.523   9.068   5.419
36460SOL    HW111212   2.616   9.051   5.430
36460SOL    HW211213   2.502   9.028   5.334
36461SOL     OW11214   6.966   6.894   1.027
36461SOL    HW111215   6.976   6.810   1.073
36461SOL    HW211216   6.984   6.873   0.935
36462SOL     OW11217   2.636  10.084   0.817
36462SOL    HW111218   2.698  10.143   0.773
36462SOL    HW211219   2.661   9.996   0.787
36463SOL     OW11220   4.367  12.016  14.680
36463SOL    HW111221   4.407  12.099  14.652
36463SOL    HW211222   4.274  12.028  14.662
36464SOL     OW11223   4.497   4.633  14.398
36464SOL    HW111224   4.498   4.681  14.316
36464SOL    HW211225   4.589   4.619  14.419
36465SOL     OW11226   9.668   5.562  13.653
36465SOL    HW111227   9.749   5.533  13.611
36465SOL    HW211228   9.691   5.644  13.697
36466SOL     OW11229  12.995   2.525   6.801
36466SOL    HW111230  12.951   2.610   6.804
36466SOL    HW211231  12.988   2.491   6.890
36467SOL     OW11232   0.228  12.898  12.328
36467SOL    HW111233   0.270  12.983  12.332
36467SOL    HW211234   0.153  12.910  12.270
36468SOL     OW11235   1.607   3.400   4.147
36468SOL    HW111236   1.521   3.394   4.189
36468SOL    HW211237   1.637   3.309   4.139
36469SOL     OW11238   0.832   8.788  12.560
36469SOL    HW111239   0.838   8.844  12.637
36469SOL    HW211240   0.772   8.718  12.586
36470SOL     OW11241   7.521   7.649   5.896
36470SOL    HW111242   7.472   7.723   5.932
36470SOL    HW211243   7.546   7.597   5.973
36471SOL     OW11244  12.244   6.603   4.526
36471SOL    HW111245  12.263   6.651   4.445
36471SOL    HW211246  12.216   6.517   4.497
36472SOL     OW11247   0.410  10.931   8.024
36472SOL    HW111248   0.423  10.956   8.115
36472SOL    HW211249   0.340  10.988   7.993
36473SOL     OW11250   8.503   2.657  12.377
36473SOL    HW111251   8.537   2.744  12.354
36473SOL    HW211252   8.506   2.607  12.296
36474SOL     OW11253  12.424   3.504   5.013
36474SOL    HW111254  12.365   3.551   4.954
36474SOL    HW211255  12.368   3.439   5.056
36475SOL     OW11256   1.985   6.109   6.629
36475SOL    HW111257   1.929   6.032   6.640
36475SOL    HW211258   2.008   6.110   6.537
36476SOL     OW11259   4.580   7.577   6.316
36476SOL    HW111260   4.631   7.510   6.272
36476SOL    HW211261   4.633   7.657   6.309
36477SOL     OW11262   8.942   5.150  10.982
36477SOL    HW111263   9.011   5.209  10.953
36477SOL    HW211264   8.961   5.066  10.940
36478SOL     OW11265   9.547   3.991   6.495
36478SOL    HW111266   9.463   4.035   6.482
36478SOL    HW211267   9.538   3.946   6.578
36479SOL     OW11268  13.825   3.922   6.371
36479SOL    HW111269  13.887   3.908   6.443
36479SOL    HW211270  13.875   3.971   6.306
36480SOL     OW11271  14.130  13.341   3.913
36480SOL    HW111272  14.211  13.392   3.917
36480SOL    HW211273  14.140  13.287   3.835
36481SOL     OW11274   7.931   4.716  12.794
36481SOL    HW111275   7.937   4.807  12.823
36481SOL    HW211276   7.904   4.722  12.702
36482SOL     OW11277  10.427   3.727  12.493
36482SOL    HW111278  10.425   3.783  12.571
36482SOL    HW211279  10.440   3.789  12.421
36483SOL     OW11280   0.377  12.610  14.842
36483SOL    HW111281   0.395  12.696  14.881
36483SOL    HW211282   0.394  12.547   0.030
36484SOL     OW11283   9.299   7.686   2.079
36484SOL    HW111284   9.248   7.753   2.034
36484SOL    HW211285   9.390   7.716   2.071
36485SOL     OW11286  11.763   8.665  14.269
36485SOL    HW111287  11.688   8.637  14.323
36485SOL    HW211288  11.839   8.645  14.323
36486SOL     OW11289   1.683  12.522   0.681
36486SOL    HW111290   1.644  12.608   0.697
36486SOL    HW211291   1.707  12.490   0.768
36487SOL     OW11292   8.236   4.138   8.482
36487SOL    HW111293   8.322   4.126   8.441
36487SOL    HW211294   8.193   4.053   8.472
36488SOL     OW11295  10.524   5.457  10.561
36488SOL    HW111296  10.585   5.501  10.620
36488SOL    HW211297  10.549   5.488  10.473
36489SOL     OW11298   5.073   5.215   1.329
36489SOL    HW111299   5.159   5.224   1.370
36489SOL    HW211300   5.020   5.283   1.371
36490SOL     OW11301   8.142   4.202   8.916
36490SOL    HW111302   8.165   4.263   8.987
36490SOL    HW211303   8.088   4.136   8.959
36491SOL     OW11304   9.293   8.978   1.700
36491SOL    HW111305   9.210   9.014   1.730
36491SOL    HW211306   9.312   9.025   1.619
36492SOL     OW11307  13.134   1.255   8.160
36492SOL    HW111308  13.161   1.346   8.166
36492SOL    HW211309  13.186   1.219   8.089
36493SOL     OW11310   9.090   7.563   1.618
36493SOL    HW111311   9.147   7.517   1.556
36493SOL    HW211312   9.023   7.498   1.640
36494SOL     OW11313   4.914   0.339   7.452
36494SOL    HW111314   4.927   0.253   7.493
36494SOL    HW211315   4.948   0.328   7.363
36495SOL     OW11316   2.398   1.430  10.639
36495SOL    HW111317   2.318   1.430  10.692
36495SOL    HW211318   2.366   1.418  10.549
36496SOL     OW11319   3.389  13.133   6.987
36496SOL    HW111320   3.309  13.116   6.937
36496SOL    HW211321   3.447  13.060   6.965
36497SOL     OW11322   0.286   3.160   4.296
36497SOL    HW111323   0.215   3.137   4.357
36497SOL    HW211324   0.302   3.253   4.312
36498SOL     OW11325  11.568   6.749   6.322
36498SOL    HW111326  11.559   6.821   6.384
36498SOL    HW211327  11.481   6.710   6.318
36499SOL     OW11328  12.090   4.894  13.345
36499SOL    HW111329  12.139   4.812  13.342
36499SOL    HW211330  12.043   4.890  13.428
36500SOL     OW11331  12.799   9.316   8.532
36500SOL    HW111332  12.740   9.390   8.519
36500SOL    HW211333  12.849   9.310   8.451
36501SOL     OW11334   6.992   0.674   7.617
36501SOL    HW111335   7.044   0.626   7.681
36501SOL    HW211336   6.957   0.749   7.666
36502SOL     OW11337   1.064   3.562   1.869
36502SOL    HW111338   1.056   3.487   1.811
36502SOL    HW211339   1.101   3.527   1.949
36503SOL     OW11340  12.836   0.029   4.567
36503SOL    HW111341  12.895   0.095   4.603
36503SOL    HW211342  12.867  14.828   4.602
36504SOL     OW11343   0.113  10.414   5.008
36504SOL    HW111344   0.067  10.442   4.929
36504SOL    HW211345   0.073  10.464   5.079
36505SOL     OW11346   3.478   0.843   1.851
36505SOL    HW111347   3.484   0.934   1.879
36505SOL    HW211348   3.388   0.834   1.818
36506SOL     OW11349  12.898   1.748  12.176
36506SOL    HW111350  12.818   1.780  12.135
36506SOL    HW211351  12.890   1.773  12.268
36507SOL     OW11352   0.453  11.508   6.493
36507SOL    HW111353   0.540  11.472   6.510
36507SOL    HW211354   0.417  11.454   6.423
36508SOL     OW11355   1.599  14.351   4.616
36508SOL    HW111356   1.592  14.368   4.522
36508SOL    HW211357   1.613  14.256   4.622
36509SOL     OW11358   6.145   1.788   0.667
36509SOL    HW111359   6.121   1.753   0.581
36509SOL    HW211360   6.063   1.785   0.717
36510SOL     OW11361   5.339  12.187   2.600
36510SOL    HW111362   5.393  12.263   2.621
36510SOL    HW211363   5.251  12.222   2.590
36511SOL     OW11364  12.017  14.659   1.721
36511SOL    HW111365  12.022  14.747   1.682
36511SOL    HW211366  11.950  14.667   1.789
36512SOL     OW11367   0.335  11.510  12.954
36512SOL    HW111368   0.369  11.596  12.979
36512SOL    HW211369   0.279  11.485  13.027
36513SOL     OW11370   6.399   1.002   2.190
36513SOL    HW111371   6.312   1.038   2.172
36513SOL    HW211372   6.459   1.060   2.146
36514SOL     OW11373   8.998   4.479  10.999
36514SOL    HW111374   8.939   4.552  11.015
36514SOL    HW211375   8.940   4.404  10.987
36515SOL     OW11376   7.082   3.168   8.315
36515SOL    HW111377   7.038   3.206   8.240
36515SOL    HW211378   7.011   3.152   8.379
36516SOL     OW11379  11.307   6.592  10.322
36516SOL    HW111380  11.275   6.663  10.378
36516SOL    HW211381  11.325   6.520  10.382
36517SOL     OW11382   3.575  11.897   8.071
36517SOL    HW111383   3.507  11.963   8.083
36517SOL    HW211384   3.652  11.934   8.115
36518SOL     OW11385   1.135   8.494   1.417
36518SOL    HW111386   1.132   8.402   1.443
36518SOL    HW211387   1.109   8.542   1.496
36519SOL     OW11388   0.891   7.231   9.056
36519SOL    HW111389   0.836   7.212   8.980
36519SOL    HW211390   0.961   7.287   9.021
36520SOL     OW11391   8.496  10.210   3.305
36520SOL    HW111392   8.545  10.134   3.335
36520SOL    HW211393   8.456  10.183   3.222
36521SOL     OW11394   2.834   4.608   9.987
36521SOL    HW111395   2.812   4.548   9.916
36521SOL    HW211396   2.757   4.606  10.044
36522SOL     OW11397  14.415   9.542   6.109
36522SOL    HW111398  14.486   9.507   6.054
36522SOL    HW211399  14.335   9.503   6.073
36523SOL     OW11400   6.464   5.144  12.737
36523SOL    HW111401   6.376   5.180  12.727
36523SOL    HW211402   6.474   5.131  12.831
36524SOL     OW11403   8.438   9.585   3.458
36524SOL    HW111404   8.373   9.516   3.470
36524SOL    HW211405   8.520   9.539   3.445
36525SOL     OW11406  14.379  14.060  12.853
36525SOL    HW111407  14.404  14.119  12.924
36525SOL    HW211408  14.295  14.095  12.821
36526SOL     OW11409   2.844   3.614   6.952
36526SOL    HW111410   2.886   3.699   6.967
36526SOL    HW211411   2.786   3.601   7.027
36527SOL     OW11412  12.017  12.092   8.429
36527SOL    HW111413  12.027  12.187   8.422
36527SOL    HW211414  11.970  12.067   8.350
36528SOL     OW11415   6.559   9.935   2.473
36528SOL    HW111416   6.545   9.984   2.392
36528SOL    HW211417   6.481   9.880   2.482
36529SOL     OW11418   3.440   3.704  11.958
36529SOL    HW111419   3.366   3.720  12.017
36529SOL    HW211420   3.489   3.787  11.960
36530SOL     OW11421  10.671  13.913  10.490
36530SOL    HW111422  10.713  13.836  10.530
36530SOL    HW211423  10.725  13.932  10.414
36531SOL     OW11424   6.954  12.522  11.266
36531SOL    HW111425   6.933  12.537  11.359
36531SOL    HW211426   6.942  12.608  11.225
36532SOL     OW11427  11.995   0.984  13.359
36532SOL    HW111428  11.945   1.043  13.416
36532SOL    HW211429  11.929   0.927  13.320
36533SOL     OW11430   9.670   3.994   8.295
36533SOL    HW111431   9.714   3.909   8.298
36533SOL    HW211432   9.600   3.986   8.360
36534SOL     OW11433  11.631  11.184   0.682
36534SOL    HW111434  11.686  11.160   0.756
36534SOL    HW211435  11.645  11.278   0.671
36535SOL     OW11436   7.973   5.524   3.396
36535SOL    HW111437   7.909   5.457   3.417
36535SOL    HW211438   7.959   5.593   3.462
36536SOL     OW11439  13.864   4.235   0.453
36536SOL    HW111440  13.951   4.250   0.490
36536SOL    HW211441  13.867   4.146   0.419
36537SOL     OW11442   4.023  13.507  12.277
36537SOL    HW111443   3.996  13.596  12.256
36537SOL    HW211444   3.941  13.458  12.285
36538SOL     OW11445   4.591  12.961  12.754
36538SOL    HW111446   4.667  13.006  12.793
36538SOL    HW211447   4.522  13.027  12.755
36539SOL     OW11448   1.060  10.068  11.888
36539SOL    HW111449   1.017   9.986  11.912
36539SOL    HW211450   1.153  10.053  11.908
36540SOL     OW11451   0.875   1.197   8.225
36540SOL    HW111452   0.908   1.222   8.312
36540SOL    HW211453   0.951   1.204   8.168
36541SOL     OW11454   5.855   3.866  10.517
36541SOL    HW111455   5.942   3.900  10.537
36541SOL    HW211456   5.862   3.832  10.428
36542SOL     OW11457  10.497   4.097  14.447
36542SOL    HW111458  10.438   4.154  14.398
36542SOL    HW211459  10.438   4.045  14.503
36543SOL     OW11460   9.551   8.990   9.915
36543SOL    HW111461   9.495   8.913   9.908
36543SOL    HW211462   9.500   9.060   9.874
36544SOL     OW11463   0.197   7.508   5.595
36544SOL    HW111464   0.160   7.563   5.664
36544SOL    HW211465   0.142   7.430   5.595
36545SOL     OW11466   0.944   4.876   6.267
36545SOL    HW111467   1.014   4.872   6.202
36545SOL    HW211468   0.875   4.820   6.232
36546SOL     OW11469   8.314   6.873   7.068
36546SOL    HW111470   8.284   6.950   7.117
36546SOL    HW211471   8.381   6.907   7.009
36547SOL     OW11472  12.413   3.375   7.390
36547SOL    HW111473  12.364   3.321   7.328
36547SOL    HW211474  12.387   3.343   7.476
36548SOL     OW11475   8.642   6.853   8.394
36548SOL    HW111476   8.584   6.928   8.400
36548SOL    HW211477   8.589   6.778   8.421
36549SOL     OW11478  13.292   1.497   2.814
36549SOL    HW111479  13.241   1.486   2.733
36549SOL    HW211480  13.303   1.407   2.847
36550SOL     OW11481   8.495   7.890   1.138
36550SOL    HW111482   8.555   7.818   1.120
36550SOL    HW211483   8.473   7.880   1.231
36551SOL     OW11484   5.299   6.378  11.020
36551SOL    HW111485   5.394   6.389  11.029
36551SOL    HW211486   5.269   6.355  11.108
36552SOL     OW11487   0.145  13.619   6.078
36552SOL    HW111488   0.090  13.638   6.154
36552SOL    HW211489   0.156  13.524   6.080
36553SOL     OW11490  11.394   9.176   8.837
36553SOL    HW111491  11.341   9.244   8.878
36553SOL    HW211492  11.341   9.147   8.762
36554SOL     OW11493   2.325  12.205   9.946
36554SOL    HW111494   2.278  12.287   9.934
36554SOL    HW211495   2.358  12.209  10.036
36555SOL     OW11496   6.970  10.056   4.110
36555SOL    HW111497   7.027  10.129   4.132
36555SOL    HW211498   6.983  10.042   4.016
36556SOL     OW11499  11.864   9.229   6.292
36556SOL    HW111500  11.930   9.269   6.348
36556SOL    HW211501  11.909   9.156   6.249
36557SOL     OW11502   3.046   1.656   3.228
36557SOL    HW111503   2.998   1.616   3.156
36557SOL    HW211504   3.117   1.595   3.247
36558SOL     OW11505  11.455  13.902   5.346
36558SOL    HW111506  11.400  13.825   5.360
36558SOL    HW211507  11.512  13.905   5.423
36559SOL     OW11508   3.240   1.649   4.223
36559SOL    HW111509   3.278   1.646   4.310
36559SOL    HW211510   3.147   1.628   4.236
36560SOL     OW11511   3.617   0.640  10.454
36560SOL    HW111512   3.616   0.661  10.361
36560SOL    HW211513   3.534   0.593  10.469
36561SOL     OW11514  14.718  11.032   6.467
36561SOL    HW111515  14.719  11.087   6.545
36561SOL    HW211516  14.790  10.970   6.480
36562SOL     OW11517   8.669  13.689   9.578
36562SOL    HW111518   8.717  13.606   9.576
36562SOL    HW211519   8.583  13.669   9.543
36563SOL     OW11520   0.770   6.520  12.723
36563SOL    HW111521   0.690   6.524  12.775
36563SOL    HW211522   0.755   6.582  12.651
36564SOL     OW11523   5.011   8.145  14.402
36564SOL    HW111524   4.937   8.178  14.452
36564SOL    HW211525   5.085   8.147  14.463
36565SOL     OW11526   0.556   5.052   9.010
36565SOL    HW111527   0.465   5.076   8.991
36565SOL    HW211528   0.607   5.093   8.940
36566SOL     OW11529   8.981   8.895  11.341
36566SOL    HW111530   8.989   8.910  11.246
36566SOL    HW211531   8.892   8.924  11.362
36567SOL     OW11532  13.247   3.345   5.229
36567SOL    HW111533  13.303   3.293   5.286
36567SOL    HW211534  13.255   3.434   5.262
36568SOL     OW11535   1.777   2.204   4.318
36568SOL    HW111536   1.686   2.175   4.312
36568SOL    HW211537   1.829   2.125   4.308
36569SOL     OW11538  14.232  10.586   5.615
36569SOL    HW111539  14.220  10.658   5.554
36569SOL    HW211540  14.298  10.617   5.677
36570SOL     OW11541   1.772   5.029  13.761
36570SOL    HW111542   1.769   4.938  13.792
36570SOL    HW211543   1.689   5.040  13.715
36571SOL     OW11544   9.559  13.317   4.016
36571SOL    HW111545   9.650  13.335   4.040
36571SOL    HW211546   9.555  13.333   3.922
36572SOL     OW11547   5.505   7.461  12.150
36572SOL    HW111548   5.598   7.481  12.150
36572SOL    HW211549   5.462   7.545  12.131
36573SOL     OW11550   1.666   9.156   3.358
36573SOL    HW111551   1.676   9.067   3.325
36573SOL    HW211552   1.576   9.160   3.391
36574SOL     OW11553  12.933   3.870  12.941
36574SOL    HW111554  13.014   3.853  12.989
36574SOL    HW211555  12.924   3.794  12.883
36575SOL     OW11556  13.216   5.283  14.852
36575SOL    HW111557  13.278   5.211  14.838
36575SOL    HW211558  13.169   5.291  14.769
36576SOL     OW11559   8.944  14.755  10.970
36576SOL    HW111560   8.940  14.728  10.879
36576SOL    HW211561   8.862  14.803  10.985
36577SOL     OW11562  11.762   6.362   5.310
36577SOL    HW111563  11.669   6.358   5.330
36577SOL    HW211564  11.769   6.425   5.238
36578SOL     OW11565  10.496   0.083  13.877
36578SOL    HW111566  10.469   0.165  13.918
36578SOL    HW211567  10.572   0.054  13.928
36579SOL     OW11568   0.483   8.409   1.782
36579SOL    HW111569   0.400   8.362   1.796
36579SOL    HW211570   0.459   8.484   1.729
36580SOL     OW11571  13.636   5.837  12.667
36580SOL    HW111572  13.670   5.903  12.728
36580SOL    HW211573  13.713   5.804  12.622
36581SOL     OW11574  11.659   6.245   1.537
36581SOL    HW111575  11.625   6.262   1.625
36581SOL    HW211576  11.694   6.329   1.508
36582SOL     OW11577   9.151   4.301   8.372
36582SOL    HW111578   9.160   4.390   8.338
36582SOL    HW211579   9.150   4.312   8.467
36583SOL     OW11580   7.129   1.104  10.740
36583SOL    HW111581   7.100   1.195  10.747
36583SOL    HW211582   7.057   1.059  10.697
36584SOL     OW11583  12.202   2.192  11.069
36584SOL    HW111584  12.234   2.198  11.159
36584SOL    HW211585  12.141   2.265  11.061
36585SOL     OW11586   5.268  10.111   0.354
36585SOL    HW111587   5.332  10.119   0.284
36585SOL    HW211588   5.299  10.169   0.423
36586SOL     OW11589  11.114   1.375   9.783
36586SOL    HW111590  11.056   1.361   9.858
36586SOL    HW211591  11.155   1.460   9.799
36587SOL     OW11592   5.156  10.159  14.317
36587SOL    HW111593   5.250  10.144  14.327
36587SOL    HW211594   5.119  10.137  14.402
36588SOL     OW11595   2.268   6.192   7.313
36588SOL    HW111596   2.283   6.208   7.220
36588SOL    HW211597   2.227   6.272   7.345
36589SOL     OW11598  10.424   7.098   2.429
36589SOL    HW111599  10.454   7.184   2.460
36589SOL    HW211600  10.501   7.060   2.387
36590SOL     OW11601   4.868  11.043   9.531
36590SOL    HW111602   4.803  11.027   9.599
36590SOL    HW211603   4.865  10.965   9.476
36591SOL     OW11604   3.335   9.184  12.270
36591SOL    HW111605   3.382   9.227  12.198
36591SOL    HW211606   3.251   9.230  12.274
36592SOL     OW11607  10.195   7.932   4.477
36592SOL    HW111608  10.259   7.983   4.429
36592SOL    HW211609  10.247   7.870   4.528
36593SOL     OW11610  13.049   3.702   1.905
36593SOL    HW111611  12.993   3.742   1.839
36593SOL    HW211612  13.017   3.612   1.912
36594SOL     OW11613   3.842   0.099   2.382
36594SOL    HW111614   3.793   0.018   2.391
36594SOL    HW211615   3.873   0.099   2.292
36595SOL     OW11616  14.242  14.396   8.451
36595SOL    HW111617  14.162  14.434   8.414
36595SOL    HW211618  14.313  14.440   8.405
36596SOL     OW11619   1.887   8.821   8.157
36596SOL    HW111620   1.815   8.759   8.171
36596SOL    HW211621   1.857   8.878   8.086
36597SOL     OW11622  11.804   0.888   5.572
36597SOL    HW111623  11.727   0.846   5.534
36597SOL    HW211624  11.870   0.885   5.503
36598SOL     OW11625   4.836   5.381  12.141
36598SOL    HW111626   4.798   5.351  12.059
36598SOL    HW211627   4.788   5.461  12.162
36599SOL     OW11628  12.940  13.978   9.018
36599SOL    HW111629  12.923  13.966   9.111
36599SOL    HW211630  12.959  14.071   9.009
36600SOL     OW11631  10.171  14.293   3.014
36600SOL    HW111632  10.126  14.224   2.964
36600SOL    HW211633  10.119  14.371   2.998
36601SOL     OW11634   4.868   9.678   8.417
36601SOL    HW111635   4.926   9.713   8.349
36601SOL    HW211636   4.917   9.691   8.499
36602SOL     OW11637  14.359   7.815  11.570
36602SOL    HW111638  14.338   7.895  11.523
36602SOL    HW211639  14.455   7.814  11.575
36603SOL     OW11640   2.564  11.082  14.654
36603SOL    HW111641   2.514  11.109  14.730
36603SOL    HW211642   2.653  11.114  14.671
36604SOL     OW11643   1.995   0.691   8.294
36604SOL    HW111644   2.056   0.733   8.355
36604SOL    HW211645   2.013   0.733   8.210
36605SOL     OW11646  10.616   4.095  10.834
36605SOL    HW111647  10.563   4.047  10.771
36605SOL    HW211648  10.667   4.157  10.781
36606SOL     OW11649   5.323   7.242  14.432
36606SOL    HW111650   5.333   7.153  14.464
36606SOL    HW211651   5.341   7.297  14.508
36607SOL     OW11652  12.037   4.119  11.294
36607SOL    HW111653  12.042   4.028  11.263
36607SOL    HW211654  12.017   4.111  11.387
36608SOL     OW11655   0.271  13.042   0.493
36608SOL    HW111656   0.334  13.065   0.425
36608SOL    HW211657   0.249  13.126   0.534
36609SOL     OW11658   6.559   2.683  13.639
36609SOL    HW111659   6.478   2.681  13.587
36609SOL    HW211660   6.596   2.769  13.623
36610SOL     OW11661   6.449   6.625  13.341
36610SOL    HW111662   6.397   6.673  13.275
36610SOL    HW211663   6.388   6.612  13.414
36611SOL     OW11664  14.759   9.711   6.245
36611SOL    HW111665  14.703   9.634   6.255
36611SOL    HW211666  14.835   9.680   6.197
36612SOL     OW11667   2.857   9.295   0.178
36612SOL    HW111668   2.953   9.294   0.180
36612SOL    HW211669   2.835   9.266   0.089
36613SOL     OW11670  14.146  14.802   9.542
36613SOL    HW111671  14.101  14.799   9.457
36613SOL    HW211672  14.197   0.001   9.539
36614SOL     OW11673   3.712   7.641   5.176
36614SOL    HW111674   3.807   7.637   5.187
36614SOL    HW211675   3.700   7.672   5.086
36615SOL     OW11676   8.668   4.626   7.773
36615SOL    HW111677   8.762   4.625   7.791
36615SOL    HW211678   8.651   4.715   7.743
36616SOL     OW11679   3.767   0.251   1.997
36616SOL    HW111680   3.728   0.337   2.010
36616SOL    HW211681   3.826   0.262   1.923
36617SOL     OW11682   4.344  14.027   0.136
36617SOL    HW111683   4.263  14.068   0.107
36617SOL    HW211684   4.388  14.096   0.187
36618SOL     OW11685   9.189   7.707   5.041
36618SOL    HW111686   9.137   7.740   5.114
36618SOL    HW211687   9.155   7.619   5.025
36619SOL     OW11688   4.303  11.313   1.264
36619SOL    HW111689   4.252  11.284   1.340
36619SOL    HW211690   4.376  11.363   1.301
36620SOL     OW11691   4.966   3.938   7.357
36620SOL    HW111692   5.013   3.986   7.289
36620SOL    HW211693   4.882   3.914   7.316
36621SOL     OW11694  14.128   3.661   3.279
36621SOL    HW111695  14.060   3.594   3.279
36621SOL    HW211696  14.130   3.693   3.370
36622SOL     OW11697   3.094   4.679  10.339
36622SOL    HW111698   3.111   4.744  10.408
36622SOL    HW211699   3.054   4.730  10.268
36623SOL     OW11700   2.956   6.506   7.047
36623SOL    HW111701   2.978   6.446   6.976
36623SOL    HW211702   2.875   6.548   7.018
36624SOL     OW11703   7.914   3.822   6.588
36624SOL    HW111704   7.963   3.831   6.506
36624SOL    HW211705   7.832   3.867   6.572
36625SOL     OW11706   1.854   4.400  12.259
36625SOL    HW111707   1.815   4.488  12.257
36625SOL    HW211708   1.947   4.416  12.247
36626SOL     OW11709  12.491   9.814  11.262
36626SOL    HW111710  12.506   9.908  11.273
36626SOL    HW211711  12.403   9.808  11.225
36627SOL     OW11712   3.435  11.784  12.839
36627SOL    HW111713   3.521  11.747  12.819
36627SOL    HW211714   3.374  11.729  12.791
36628SOL     OW11715   6.355  10.348   4.960
36628SOL    HW111716   6.424  10.283   4.975
36628SOL    HW211717   6.400  10.432   4.968
36629SOL     OW11718   0.491   3.362   5.367
36629SOL    HW111719   0.450   3.448   5.359
36629SOL    HW211720   0.555   3.373   5.437
36630SOL     OW11721   4.868   1.153  13.667
36630SOL    HW111722   4.920   1.087  13.713
36630SOL    HW211723   4.865   1.122  13.576
36631SOL     OW11724   3.533   1.995   7.834
36631SOL    HW111725   3.627   1.984   7.850
36631SOL    HW211726   3.528   2.022   7.742
36632SOL     OW11727  11.701   0.448  10.124
36632SOL    HW111728  11.678   0.365  10.166
36632SOL    HW211729  11.618   0.481  10.088
36633SOL     OW11730   5.582   1.116  10.346
36633SOL    HW111731   5.622   1.085  10.265
36633SOL    HW211732   5.645   1.092  10.414
36634SOL     OW11733   0.242  12.484   9.939
36634SOL    HW111734   0.236  12.577   9.960
36634SOL    HW211735   0.322  12.454   9.981
36635SOL     OW11736  12.798   7.798   7.311
36635SOL    HW111737  12.707   7.794   7.342
36635SOL    HW211738  12.806   7.885   7.272
36636SOL     OW11739  13.465   8.492   8.639
36636SOL    HW111740  13.543   8.459   8.683
36636SOL    HW211741  13.399   8.424   8.652
36637SOL     OW11742  12.075   0.068   6.947
36637SOL    HW111743  12.112   0.062   6.859
36637SOL    HW211744  12.038   0.156   6.952
36638SOL     OW11745   1.239   4.178   6.800
36638SOL    HW111746   1.272   4.089   6.783
36638SOL    HW211747   1.184   4.197   6.724
36639SOL     OW11748  11.111  14.556   2.099
36639SOL    HW111749  11.078  14.470   2.126
36639SOL    HW211750  11.205  14.551   2.111
36640SOL     OW11751  14.406   5.760   0.112
36640SOL    HW111752  14.467   5.823   0.150
36640SOL    HW211753  14.389   5.794   0.024
36641SOL     OW11754  11.166  14.395  14.167
36641SOL    HW111755  11.254  14.405  14.132
36641SOL    HW211756  11.109  14.408  14.091
36642SOL     OW11757  10.857   7.878   3.501
36642SOL    HW111758  10.878   7.829   3.422
36642SOL    HW211759  10.868   7.814   3.572
36643SOL     OW11760   8.154  10.046  12.909
36643SOL    HW111761   8.248  10.052  12.891
36643SOL    HW211762   8.120   9.987  12.841
36644SOL     OW11763   5.399   1.677   8.068
36644SOL    HW111764   5.441   1.661   8.152
36644SOL    HW211765   5.471   1.676   8.005
36645SOL     OW11766   3.248  14.424  14.073
36645SOL    HW111767   3.276  14.483  14.003
36645SOL    HW211768   3.256  14.477  14.153
36646SOL     OW11769   1.659   4.230  12.120
36646SOL    HW111770   1.713   4.294  12.167
36646SOL    HW211771   1.722   4.165  12.088
36647SOL     OW11772  11.436  13.752  13.464
36647SOL    HW111773  11.347  13.766  13.498
36647SOL    HW211774  11.492  13.806  13.521
36648SOL     OW11775   2.216   9.213   2.921
36648SOL    HW111776   2.170   9.181   2.998
36648SOL    HW211777   2.276   9.280   2.955
36649SOL     OW11778   2.811   9.858  10.761
36649SOL    HW111779   2.859   9.932  10.723
36649SOL    HW211780   2.730   9.853  10.710
36650SOL     OW11781  11.193  14.876  11.370
36650SOL    HW111782  11.160   0.003  11.459
36650SOL    HW211783  11.115   0.002  11.314
36651SOL     OW11784   7.074   5.467   2.870
36651SOL    HW111785   7.074   5.423   2.956
36651SOL    HW211786   6.989   5.444   2.832
36652SOL     OW11787  12.377   0.181   1.017
36652SOL    HW111788  12.446   0.247   1.012
36652SOL    HW211789  12.410   0.108   0.965
36653SOL     OW11790  14.394  13.163  11.347
36653SOL    HW111791  14.300  13.149  11.340
36653SOL    HW211792  14.403  13.236  11.408
36654SOL     OW11793   2.299  14.552   1.174
36654SOL    HW111794   2.282  14.507   1.091
36654SOL    HW211795   2.354  14.627   1.151
36655SOL     OW11796  11.593   9.796  11.899
36655SOL    HW111797  11.661   9.837  11.952
36655SOL    HW211798  11.516   9.795  11.956
36656SOL     OW11799  14.739   1.106   5.766
36656SOL    HW111800  14.798   1.054   5.712
36656SOL    HW211801  14.784   1.114   5.850
36657SOL     OW11802   6.103   0.158  11.429
36657SOL    HW111803   6.016   0.192  11.406
36657SOL    HW211804   6.086   0.085  11.488
36658SOL     OW11805   4.559   5.908  13.217
36658SOL    HW111806   4.521   5.829  13.178
36658SOL    HW211807   4.580   5.883  13.307
36659SOL     OW11808   7.357   7.606   2.888
36659SOL    HW111809   7.346   7.553   2.967
36659SOL    HW211810   7.273   7.651   2.878
36660SOL     OW11811   6.406  14.105  14.208
36660SOL    HW111812   6.369  14.136  14.125
36660SOL    HW211813   6.356  14.152  14.275
36661SOL     OW11814  14.300   9.401   5.015
36661SOL    HW111815  14.264   9.379   5.102
36661SOL    HW211816  14.393   9.381   5.022
36662SOL     OW11817   0.868  11.238   0.384
36662SOL    HW111818   0.777  11.267   0.388
36662SOL    HW211819   0.866  11.158   0.332
36663SOL     OW11820   9.470   2.472  14.282
36663SOL    HW111821   9.506   2.514  14.204
36663SOL    HW211822   9.546   2.443  14.332
36664SOL     OW11823   7.905   7.447   1.856
36664SOL    HW111824   7.862   7.391   1.921
36664SOL    HW211825   7.931   7.387   1.786
36665SOL     OW11826  10.028   8.589   8.730
36665SOL    HW111827  10.040   8.637   8.811
36665SOL    HW211828   9.944   8.545   8.740
36666SOL     OW11829   8.364   4.985   1.791
36666SOL    HW111830   8.396   4.972   1.880
36666SOL    HW211831   8.295   4.920   1.780
36667SOL     OW11832  12.637  12.457   1.943
36667SOL    HW111833  12.624  12.405   1.864
36667SOL    HW211834  12.549  12.472   1.977
36668SOL     OW11835   1.717  13.454   5.513
36668SOL    HW111836   1.751  13.468   5.601
36668SOL    HW211837   1.624  13.474   5.520
36669SOL     OW11838   3.703  14.562   5.473
36669SOL    HW111839   3.623  14.535   5.428
36669SOL    HW211840   3.767  14.495   5.452
36670SOL     OW11841   5.415  11.294  12.556
36670SOL    HW111842   5.344  11.356  12.540
36670SOL    HW211843   5.494  11.338  12.525
36671SOL     OW11844   9.211  14.332   0.652
36671SOL    HW111845   9.220  14.334   0.748
36671SOL    HW211846   9.179  14.244   0.633
36672SOL     OW11847   2.496   7.687  12.619
36672SOL    HW111848   2.589   7.700  12.602
36672SOL    HW211849   2.484   7.718  12.709
36673SOL     OW11850  14.824  12.531  10.967
36673SOL    HW111851   0.003  12.468  11.005
36673SOL    HW211852  14.755  12.540  11.033
36674SOL     OW11853  12.894  10.770   4.039
36674SOL    HW111854  12.838  10.698   4.009
36674SOL    HW211855  12.846  10.849   4.017
36675SOL     OW11856   9.789   9.910   6.046
36675SOL    HW111857   9.762   9.968   6.116
36675SOL    HW211858   9.707   9.876   6.009
36676SOL     OW11859   3.548  10.750   0.474
36676SOL    HW111860   3.586  10.816   0.417
36676SOL    HW211861   3.611  10.677   0.472
36677SOL     OW11862   1.672   2.703   9.950
36677SOL    HW111863   1.670   2.658   9.866
36677SOL    HW211864   1.764   2.706   9.973
36678SOL     OW11865  13.158  13.193  12.793
36678SOL    HW111866  13.145  13.111  12.841
36678SOL    HW211867  13.152  13.168  12.701
36679SOL     OW11868  13.147   9.305   5.005
36679SOL    HW111869  13.226   9.252   4.992
36679SOL    HW211870  13.087   9.249   5.054
36680SOL     OW11871  10.797   7.480   7.088
36680SOL    HW111872  10.706   7.473   7.117
36680SOL    HW211873  10.822   7.389   7.070
36681SOL     OW11874   8.474  12.226   2.275
36681SOL    HW111875   8.443  12.274   2.351
36681SOL    HW211876   8.568  12.218   2.288
36682SOL     OW11877   6.910   2.765  11.302
36682SOL    HW111878   6.907   2.677  11.339
36682SOL    HW211879   6.906   2.751  11.207
36683SOL     OW11880  13.760   8.109  13.605
36683SOL    HW111881  13.669   8.140  13.599
36683SOL    HW211882  13.799   8.133  13.521
36684SOL     OW11883   1.248   0.317   8.935
36684SOL    HW111884   1.177   0.369   8.897
36684SOL    HW211885   1.206   0.263   9.001
36685SOL     OW11886   1.433   1.542  14.093
36685SOL    HW111887   1.470   1.628  14.077
36685SOL    HW211888   1.374   1.554  14.167
36686SOL     OW11889  14.248   5.005  13.346
36686SOL    HW111890  14.226   5.090  13.308
36686SOL    HW211891  14.163   4.961  13.357
36687SOL     OW11892  11.095  12.609   6.250
36687SOL    HW111893  11.004  12.581   6.243
36687SOL    HW211894  11.091  12.704   6.244
36688SOL     OW11895   2.726   6.517  13.208
36688SOL    HW111896   2.726   6.559  13.121
36688SOL    HW211897   2.679   6.579  13.264
36689SOL     OW11898  11.731   3.676   8.617
36689SOL    HW111899  11.735   3.613   8.545
36689SOL    HW211900  11.638   3.686   8.635
36690SOL     OW11901   8.955   6.599  13.885
36690SOL    HW111902   8.872   6.604  13.838
36690SOL    HW211903   8.935   6.549  13.964
36691SOL     OW11904  13.612   6.434   1.112
36691SOL    HW111905  13.601   6.438   1.207
36691SOL    HW211906  13.694   6.386   1.099
36692SOL     OW11907   8.638   1.622   8.142
36692SOL    HW111908   8.675   1.557   8.082
36692SOL    HW211909   8.709   1.686   8.154
36693SOL     OW11910   6.348   3.613  12.876
36693SOL    HW111911   6.327   3.627  12.784
36693SOL    HW211912   6.425   3.669  12.892
36694SOL     OW11913   1.505   5.380   4.374
36694SOL    HW111914   1.469   5.324   4.305
36694SOL    HW211915   1.440   5.378   4.444
36695SOL     OW11916   7.511   0.090   1.999
36695SOL    HW111917   7.542   0.134   2.078
36695SOL    HW211918   7.590   0.077   1.946
36696SOL     OW11919   8.341  11.533  13.709
36696SOL    HW111920   8.304  11.481  13.781
36696SOL    HW211921   8.264  11.572  13.666
36697SOL     OW11922   5.699   1.965   3.045
36697SOL    HW111923   5.639   2.038   3.029
36697SOL    HW211924   5.662   1.892   2.995
36698SOL     OW11925  10.270   3.688   0.350
36698SOL    HW111926  10.191   3.740   0.335
36698SOL    HW211927  10.326   3.745   0.404
36699SOL     OW11928   1.087  12.592   8.293
36699SOL    HW111929   1.119  12.617   8.206
36699SOL    HW211930   1.009  12.540   8.276
36700SOL     OW11931   8.620  13.188   7.921
36700SOL    HW111932   8.673  13.124   7.873
36700SOL    HW211933   8.655  13.273   7.894
36701SOL     OW11934  13.293  10.858   5.092
36701SOL    HW111935  13.300  10.766   5.117
36701SOL    HW211936  13.208  10.886   5.128
36702SOL     OW11937   3.733   6.449   3.567
36702SOL    HW111938   3.707   6.502   3.492
36702SOL    HW211939   3.802   6.391   3.533
36703SOL     OW11940   8.887   8.729  10.572
36703SOL    HW111941   8.858   8.721  10.481
36703SOL    HW211942   8.845   8.809  10.604
36704SOL     OW11943  12.649  12.515   9.133
36704SOL    HW111944  12.692  12.588   9.089
36704SOL    HW211945  12.710  12.442   9.124
36705SOL     OW11946   1.144  10.202   1.458
36705SOL    HW111947   1.063  10.190   1.508
36705SOL    HW211948   1.197  10.125   1.480
36706SOL     OW11949   1.243   8.477  10.962
36706SOL    HW111950   1.331   8.466  10.927
36706SOL    HW211951   1.243   8.565  11.000
36707SOL     OW11952  14.028  12.427  14.222
36707SOL    HW111953  14.065  12.497  14.168
36707SOL    HW211954  14.025  12.351  14.164
36708SOL     OW11955   2.274   4.412   4.090
36708SOL    HW111956   2.346   4.427   4.029
36708SOL    HW211957   2.218   4.348   4.046
36709SOL     OW11958   6.774   8.347   3.128
36709SOL    HW111959   6.838   8.279   3.150
36709SOL    HW211960   6.715   8.305   3.066
36710SOL     OW11961   1.573   6.740  13.420
36710SOL    HW111962   1.534   6.726  13.334
36710SOL    HW211963   1.573   6.654  13.461
36711SOL     OW11964   8.967   4.865  10.846
36711SOL    HW111965   8.920   4.833  10.769
36711SOL    HW211966   9.059   4.864  10.821
36712SOL     OW11967  11.187  14.429   9.187
36712SOL    HW111968  11.190  14.511   9.235
36712SOL    HW211969  11.230  14.366   9.245
36713SOL     OW11970  12.179   3.317   9.929
36713SOL    HW111971  12.159   3.369  10.007
36713SOL    HW211972  12.274   3.303   9.934
36714SOL     OW11973  11.248  13.747   4.467
36714SOL    HW111974  11.191  13.677   4.500
36714SOL    HW211975  11.318  13.701   4.421
36715SOL     OW11976  11.445  10.397   0.359
36715SOL    HW111977  11.495  10.386   0.279
36715SOL    HW211978  11.370  10.338   0.349
36716SOL     OW11979   9.808  11.433   5.563
36716SOL    HW111980   9.716  11.409   5.575
36716SOL    HW211981   9.812  11.524   5.593
36717SOL     OW11982   2.379  10.127   6.224
36717SOL    HW111983   2.391  10.033   6.236
36717SOL    HW211984   2.351  10.159   6.310
36718SOL     OW11985   8.693  13.007  13.665
36718SOL    HW111986   8.681  13.030  13.758
36718SOL    HW211987   8.782  13.035  13.645
36719SOL     OW11988   1.046   0.939   6.437
36719SOL    HW111989   1.104   1.008   6.470
36719SOL    HW211990   1.068   0.863   6.490
36720SOL     OW11991   9.778  12.084   8.185
36720SOL    HW111992   9.705  12.144   8.204
36720SOL    HW211993   9.744  12.028   8.115
36721SOL     OW11994   9.286  14.047   1.330
36721SOL    HW111995   9.279  13.956   1.302
36721SOL    HW211996   9.288  14.043   1.425
36722SOL     OW11997   9.312   4.207  13.181
36722SOL    HW111998   9.339   4.124  13.142
36722SOL    HW211999   9.344   4.273  13.121
36723SOL     OW12000  14.438  14.613  10.035
36723SOL    HW112001  14.522  14.585   9.999
36723SOL    HW212002  14.380  14.621   9.959
36724SOL     OW12003   9.026   0.463  11.069
36724SOL    HW112004   8.972   0.535  11.100
36724SOL    HW212005   9.030   0.403  11.143
36725SOL     OW12006   8.721   9.783   7.823
36725SOL    HW112007   8.782   9.799   7.751
36725SOL    HW212008   8.693   9.692   7.811
36726SOL     OW12009  10.648   4.938  11.250
36726SOL    HW112010  10.619   4.934  11.159
36726SOL    HW212011  10.731   4.984  11.247
36727SOL     OW12012   0.292   9.612  13.442
36727SOL    HW112013   0.333   9.697  13.426
36727SOL    HW212014   0.300   9.598  13.536
36728SOL     OW12015   3.810   0.359   4.188
36728SOL    HW112016   3.798   0.354   4.093
36728SOL    HW212017   3.725   0.338   4.224
36729SOL     OW12018  14.329   7.573   6.219
36729SOL    HW112019  14.238   7.595   6.197
36729SOL    HW212020  14.348   7.625   6.297
36730SOL     OW12021   3.482  12.580   4.735
36730SOL    HW112022   3.401  12.530   4.744
36730SOL    HW212023   3.548  12.515   4.708
36731SOL     OW12024  14.314   4.146   2.860
36731SOL    HW112025  14.371   4.200   2.915
36731SOL    HW212026  14.249   4.206   2.825
36732SOL     OW12027  11.238   6.540  10.069
36732SOL    HW112028  11.181   6.614  10.045
36732SOL    HW212029  11.254   6.552  10.163
36733SOL     OW12030   3.560   4.325   6.076
36733SOL    HW112031   3.507   4.246   6.088
36733SOL    HW212032   3.649   4.297   6.099
36734SOL     OW12033   8.320   2.438   9.103
36734SOL    HW112034   8.355   2.354   9.133
36734SOL    HW212035   8.243   2.415   9.051
36735SOL     OW12036   6.357   9.023  12.663
36735SOL    HW112037   6.337   9.116  12.678
36735SOL    HW212038   6.273   8.985  12.637
36736SOL     OW12039  11.744   8.915  14.516
36736SOL    HW112040  11.821   8.948  14.469
36736SOL    HW212041  11.669   8.954  14.471
36737SOL     OW12042  12.338   9.013  12.388
36737SOL    HW112043  12.343   8.931  12.437
36737SOL    HW212044  12.273   9.065  12.435
36738SOL     OW12045   1.212  12.455   2.852
36738SOL    HW112046   1.302  12.432   2.873
36738SOL    HW212047   1.188  12.521   2.918
36739SOL     OW12048  14.057  10.657   6.664
36739SOL    HW112049  13.994  10.684   6.731
36739SOL    HW212050  14.042  10.718   6.592
36740SOL     OW12051   7.006   0.391  13.874
36740SOL    HW112052   7.055   0.473  13.866
36740SOL    HW212053   6.924   0.415  13.917
36741SOL     OW12054   1.136   5.082   6.691
36741SOL    HW112055   1.113   5.040   6.607
36741SOL    HW212056   1.096   5.026   6.757
36742SOL     OW12057  10.253  12.519   5.424
36742SOL    HW112058  10.177  12.541   5.371
36742SOL    HW212059  10.288  12.604   5.452
36743SOL     OW12060   4.293   1.519   4.244
36743SOL    HW112061   4.294   1.508   4.148
36743SOL    HW212062   4.264   1.609   4.257
36744SOL     OW12063   3.657  13.052  14.778
36744SOL    HW112064   3.695  12.982  14.724
36744SOL    HW212065   3.653  13.127  14.720
36745SOL     OW12066  13.979  11.786   2.015
36745SOL    HW112067  13.916  11.838   2.066
36745SOL    HW212068  14.059  11.838   2.016
36746SOL     OW12069   1.953  12.283   4.598
36746SOL    HW112070   1.875  12.327   4.633
36746SOL    HW212071   1.954  12.198   4.641
36747SOL     OW12072  13.715  13.555   3.586
36747SOL    HW112073  13.637  13.550   3.641
36747SOL    HW212074  13.788  13.542   3.646
36748SOL     OW12075  11.580   3.373  11.948
36748SOL    HW112076  11.532   3.427  11.885
36748SOL    HW212077  11.539   3.287  11.943
36749SOL     OW12078  13.627   4.194   1.857
36749SOL    HW112079  13.548   4.245   1.873
36749SOL    HW212080  13.686   4.255   1.812
36750SOL     OW12081  13.583  14.664   9.082
36750SOL    HW112082  13.525  14.724   9.129
36750SOL    HW212083  13.667  14.710   9.078
36751SOL     OW12084   9.508   2.306   8.412
36751SOL    HW112085   9.526   2.212   8.417
36751SOL    HW212086   9.465   2.318   8.328
36752SOL     OW12087   1.434   8.728  14.657
36752SOL    HW112088   1.476   8.734  14.570
36752SOL    HW212089   1.502   8.758  14.718
36753SOL     OW12090   3.586  14.502   2.286
36753SOL    HW112091   3.564  14.504   2.192
36753SOL    HW212092   3.679  14.483   2.288
36754SOL     OW12093  13.001   0.677   2.872
36754SOL    HW112094  13.048   0.751   2.836
36754SOL    HW212095  12.983   0.620   2.797
36755SOL     OW12096   1.650   5.343  11.341
36755SOL    HW112097   1.743   5.339  11.317
36755SOL    HW212098   1.641   5.426  11.388
36756SOL     OW12099   3.484   5.100  13.734
36756SOL    HW112100   3.452   5.121  13.822
36756SOL    HW212101   3.432   5.024  13.708
36757SOL     OW12102   3.905  12.867   5.935
36757SOL    HW112103   3.948  12.867   6.021
36757SOL    HW212104   3.812  12.861   5.955
36758SOL     OW12105   6.887  10.055  10.351
36758SOL    HW112106   6.917  10.145  10.352
36758SOL    HW212107   6.800  10.058  10.391
36759SOL     OW12108  10.009   6.362   9.087
36759SOL    HW112109  10.012   6.369   9.182
36759SOL    HW212110  10.005   6.268   9.069
36760SOL     OW12111   2.805  14.794  13.922
36760SOL    HW112112   2.765  14.837  13.846
36760SOL    HW212113   2.856  14.863  13.964
36761SOL     OW12114   1.691  12.088   6.167
36761SOL    HW112115   1.662  12.179   6.164
36761SOL    HW212116   1.696  12.067   6.260
36762SOL     OW12117   1.445   4.215   0.098
36762SOL    HW112118   1.396   4.277   0.153
36762SOL    HW212119   1.528   4.259   0.080
36763SOL     OW12120   3.603  14.345  14.347
36763SOL    HW112121   3.547  14.282  14.300
36763SOL    HW212122   3.560  14.356  14.432
36764SOL     OW12123   8.420  13.230   6.572
36764SOL    HW112124   8.461  13.316   6.570
36764SOL    HW212125   8.487  13.172   6.609
36765SOL     OW12126  14.219  13.092   8.398
36765SOL    HW112127  14.130  13.102   8.365
36765SOL    HW212128  14.208  13.085   8.493
36766SOL     OW12129   5.021   3.334   4.875
36766SOL    HW112130   4.956   3.330   4.946
36766SOL    HW212131   5.098   3.372   4.916
36767SOL     OW12132  13.639  12.209   1.185
36767SOL    HW112133  13.670  12.145   1.121
36767SOL    HW212134  13.577  12.264   1.136
36768SOL     OW12135  12.643  11.677   6.141
36768SOL    HW112136  12.627  11.608   6.204
36768SOL    HW212137  12.558  11.717   6.126
36769SOL     OW12138  10.231   9.111   4.909
36769SOL    HW112139  10.160   9.174   4.916
36769SOL    HW212140  10.305   9.154   4.952
36770SOL     OW12141   5.422   3.308   7.708
36770SOL    HW112142   5.511   3.311   7.671
36770SOL    HW212143   5.367   3.282   7.634
36771SOL     OW12144  14.521  12.166  14.125
36771SOL    HW112145  14.463  12.090  14.124
36771SOL    HW212146  14.480  12.228  14.064
36772SOL     OW12147   2.578   0.056   8.900
36772SOL    HW112148   2.508   0.116   8.925
36772SOL    HW212149   2.617   0.028   8.982
36773SOL     OW12150   6.819  14.666   8.140
36773SOL    HW112151   6.809  14.757   8.111
36773SOL    HW212152   6.764  14.616   8.079
36774SOL     OW12153   7.909  13.440   6.651
36774SOL    HW112154   7.892  13.358   6.603
36774SOL    HW212155   7.873  13.508   6.594
36775SOL     OW12156  14.129  13.622   9.012
36775SOL    HW112157  14.052  13.568   9.028
36775SOL    HW212158  14.172  13.581   8.937
36776SOL     OW12159   0.175   6.742  10.238
36776SOL    HW112160   0.210   6.825  10.269
36776SOL    HW212161   0.080   6.753  10.241
36777SOL     OW12162  14.805   0.846   6.063
36777SOL    HW112163  14.729   0.894   6.096
36777SOL    HW212164  14.798   0.853   5.968
36778SOL     OW12165   3.138   5.480   4.760
36778SOL    HW112166   3.078   5.414   4.725
36778SOL    HW212167   3.144   5.460   4.853
36779SOL     OW12168   2.017   8.606   3.193
36779SOL    HW112169   2.098   8.587   3.145
36779SOL    HW212170   1.949   8.608   3.126
36780SOL     OW12171   5.455  10.733   7.782
36780SOL    HW112172   5.419  10.682   7.854
36780SOL    HW212173   5.550  10.728   7.793
36781SOL     OW12174   6.549  11.115  10.255
36781SOL    HW112175   6.498  11.101  10.335
36781SOL    HW212176   6.615  11.180  10.280
36782SOL     OW12177  11.291   0.678   8.980
36782SOL    HW112178  11.203   0.640   8.979
36782SOL    HW212179  11.312   0.693   8.888
36783SOL     OW12180   4.937  10.022   6.060
36783SOL    HW112181   4.981  10.104   6.036
36783SOL    HW212182   5.008   9.965   6.088
36784SOL     OW12183  12.261   7.386  10.121
36784SOL    HW112184  12.211   7.333  10.060
36784SOL    HW212185  12.200   7.404  10.193
36785SOL     OW12186   3.810  14.358   9.225
36785SOL    HW112187   3.878  14.296   9.253
36785SOL    HW212188   3.739  14.303   9.192
36786SOL     OW12189   6.344   7.116   9.022
36786SOL    HW112190   6.301   7.063   8.954
36786SOL    HW212191   6.430   7.076   9.033
36787SOL     OW12192   2.030   0.304  13.879
36787SOL    HW112193   2.105   0.267  13.926
36787SOL    HW212194   1.959   0.240  13.893
36788SOL     OW12195   3.843   7.874   6.802
36788SOL    HW112196   3.913   7.927   6.765
36788SOL    HW212197   3.887   7.816   6.864
36789SOL     OW12198   7.001   5.739   2.251
36789SOL    HW112199   7.056   5.681   2.199
36789SOL    HW212200   6.911   5.718   2.225
36790SOL     OW12201   5.748  11.995   1.299
36790SOL    HW112202   5.673  11.936   1.300
36790SOL    HW212203   5.800  11.969   1.375
36791SOL     OW12204  12.580   2.063   3.744
36791SOL    HW112205  12.489   2.082   3.764
36791SOL    HW212206  12.601   1.987   3.798
36792SOL     OW12207   4.307  13.279   9.817
36792SOL    HW112208   4.248  13.300   9.889
36792SOL    HW212209   4.392  13.312   9.845
36793SOL     OW12210  12.905   2.169  11.531
36793SOL    HW112211  12.907   2.074  11.518
36793SOL    HW212212  12.912   2.206  11.443
36794SOL     OW12213  13.063   6.684  11.223
36794SOL    HW112214  13.140   6.682  11.280
36794SOL    HW212215  13.070   6.605  11.170
36795SOL     OW12216  10.803   0.230   1.273
36795SOL    HW112217  10.865   0.221   1.201
36795SOL    HW212218  10.736   0.164   1.255
36796SOL     OW12219   3.119   5.733   1.839
36796SOL    HW112220   3.068   5.705   1.763
36796SOL    HW212221   3.066   5.801   1.880
36797SOL     OW12222   7.323   1.172   9.236
36797SOL    HW112223   7.231   1.148   9.240
36797SOL    HW212224   7.344   1.205   9.323
36798SOL     OW12225   0.743  11.785  13.548
36798SOL    HW112226   0.791  11.866  13.534
36798SOL    HW212227   0.772  11.754  13.634
36799SOL     OW12228   5.832  13.564   7.933
36799SOL    HW112229   5.837  13.470   7.945
36799SOL    HW212230   5.866  13.580   7.845
36800SOL     OW12231   4.917   4.187  11.153
36800SOL    HW112232   4.946   4.096  11.152
36800SOL    HW212233   4.917   4.211  11.246
36801SOL     OW12234   3.657   2.149   6.225
36801SOL    HW112235   3.597   2.203   6.173
36801SOL    HW212236   3.604   2.076   6.256
36802SOL     OW12237   5.278   1.410  14.428
36802SOL    HW112238   5.268   1.492  14.475
36802SOL    HW212239   5.348   1.426  14.365
36803SOL     OW12240   0.722  14.115   1.664
36803SOL    HW112241   0.649  14.053   1.661
36803SOL    HW212242   0.755  14.109   1.754
36804SOL     OW12243  10.044  14.166  10.256
36804SOL    HW112244  10.044  14.083  10.208
36804SOL    HW212245  10.116  14.216  10.218
36805SOL     OW12246  12.356   3.287   9.090
36805SOL    HW112247  12.336   3.355   9.025
36805SOL    HW212248  12.380   3.211   9.038
36806SOL     OW12249   0.384   1.500  14.443
36806SOL    HW112250   0.463   1.474  14.490
36806SOL    HW212251   0.379   1.595  14.455
36807SOL     OW12252   4.115   4.921   6.360
36807SOL    HW112253   4.044   4.865   6.331
36807SOL    HW212254   4.182   4.860   6.392
36808SOL     OW12255   4.782   1.551   1.350
36808SOL    HW112256   4.793   1.607   1.273
36808SOL    HW212257   4.740   1.472   1.316
36809SOL     OW12258  10.038   5.812   9.491
36809SOL    HW112259  10.023   5.844   9.580
36809SOL    HW212260  10.116   5.859   9.462
36810SOL     OW12261  10.601   5.743   7.576
36810SOL    HW112262  10.580   5.677   7.510
36810SOL    HW212263  10.529   5.806   7.569
36811SOL     OW12264   6.832   3.706   4.392
36811SOL    HW112265   6.774   3.670   4.325
36811SOL    HW212266   6.773   3.733   4.463
36812SOL     OW12267   5.542   0.616   5.787
36812SOL    HW112268   5.498   0.677   5.846
36812SOL    HW212269   5.565   0.541   5.842
36813SOL     OW12270  10.667   0.416   5.258
36813SOL    HW112271  10.714   0.487   5.302
36813SOL    HW212272  10.731   0.379   5.198
36814SOL     OW12273  11.067   6.364   6.507
36814SOL    HW112274  11.042   6.329   6.421
36814SOL    HW212275  11.056   6.290   6.567
36815SOL     OW12276  11.160   3.792  11.797
36815SOL    HW112277  11.084   3.791  11.855
36815SOL    HW212278  11.136   3.734  11.725
36816SOL     OW12279   9.133  10.407  14.875
36816SOL    HW112280   9.214  10.457   0.006
36816SOL    HW212281   9.107  10.428  14.785
36817SOL     OW12282   9.445   2.181   9.512
36817SOL    HW112283   9.501   2.183   9.590
36817SOL    HW212284   9.380   2.249   9.527
36818SOL     OW12285   1.288   6.676   7.607
36818SOL    HW112286   1.242   6.638   7.682
36818SOL    HW212287   1.260   6.622   7.533
36819SOL     OW12288   5.440  14.373   3.889
36819SOL    HW112289   5.432  14.362   3.795
36819SOL    HW212290   5.372  14.437   3.912
36820SOL     OW12291   8.453   6.285   3.156
36820SOL    HW112292   8.447   6.196   3.191
36820SOL    HW212293   8.380   6.292   3.094
36821SOL     OW12294  10.083  14.623   1.628
36821SOL    HW112295  10.029  14.702   1.625
36821SOL    HW212296  10.173  14.654   1.619
36822SOL     OW12297  14.113   8.690   1.286
36822SOL    HW112298  14.073   8.775   1.268
36822SOL    HW212299  14.193   8.690   1.233
36823SOL     OW12300   9.631  11.295   4.589
36823SOL    HW112301   9.591  11.363   4.642
36823SOL    HW212302   9.673  11.341   4.517
36824SOL     OW12303   8.382  13.152   8.308
36824SOL    HW112304   8.385  13.127   8.215
36824SOL    HW212305   8.364  13.071   8.354
36825SOL     OW12306  10.874   2.849  10.949
36825SOL    HW112307  10.826   2.770  10.926
36825SOL    HW212308  10.960   2.838  10.909
36826SOL     OW12309  12.817   7.546   4.974
36826SOL    HW112310  12.837   7.637   4.952
36826SOL    HW212311  12.819   7.500   4.891
36827SOL     OW12312   1.702   4.386   3.266
36827SOL    HW112313   1.775   4.329   3.240
36827SOL    HW212314   1.657   4.406   3.185
36828SOL     OW12315   1.556  12.022   9.396
36828SOL    HW112316   1.535  12.112   9.371
36828SOL    HW212317   1.564  11.975   9.313
36829SOL     OW12318   0.809  13.728  10.693
36829SOL    HW112319   0.791  13.770  10.609
36829SOL    HW212320   0.757  13.778  10.756
36830SOL     OW12321   0.696   0.780   1.392
36830SOL    HW112322   0.663   0.732   1.468
36830SOL    HW212323   0.756   0.718   1.349
36831SOL     OW12324   4.720   3.156  12.541
36831SOL    HW112325   4.720   3.227  12.477
36831SOL    HW212326   4.682   3.082  12.494
36832SOL     OW12327  12.489  12.088   8.027
36832SOL    HW112328  12.559  12.024   8.037
36832SOL    HW212329  12.430  12.070   8.100
36833SOL     OW12330  14.845   8.758   1.695
36833SOL    HW112331  14.861   8.792   1.607
36833SOL    HW212332  14.839   8.837   1.750
36834SOL     OW12333   2.682   9.162   3.786
36834SOL    HW112334   2.705   9.170   3.879
36834SOL    HW212335   2.685   9.251   3.752
36835SOL     OW12336  11.880  14.638  12.020
36835SOL    HW112337  11.836  14.567  11.974
36835SOL    HW212338  11.972  14.611  12.024
36836SOL     OW12339   8.669   4.654  10.994
36836SOL    HW112340   8.626   4.623  11.074
36836SOL    HW212341   8.597   4.690  10.941
36837SOL     OW12342   2.708  11.830  14.667
36837SOL    HW112343   2.749  11.764  14.723
36837SOL    HW212344   2.641  11.782  14.619
36838SOL     OW12345   0.132   7.397   0.492
36838SOL    HW112346   0.147   7.322   0.435
36838SOL    HW212347   0.099   7.359   0.573
36839SOL     OW12348   9.303  14.774   9.438
36839SOL    HW112349   9.307  14.691   9.389
36839SOL    HW212350   9.244  14.755   9.511
36840SOL     OW12351   5.191   0.355   6.510
36840SOL    HW112352   5.195   0.299   6.433
36840SOL    HW212353   5.174   0.443   6.475
36841SOL     OW12354  13.101  14.808   5.354
36841SOL    HW112355  13.070  14.841   5.439
36841SOL    HW212356  13.160  14.736   5.377
36842SOL     OW12357   4.863   0.652   2.961
36842SOL    HW112358   4.883   0.628   3.051
36842SOL    HW212359   4.774   0.688   2.964
36843SOL     OW12360  12.283   0.266   7.608
36843SOL    HW112361  12.264   0.175   7.584
36843SOL    HW212362  12.286   0.312   7.525
36844SOL     OW12363  10.551   1.221  14.317
36844SOL    HW112364  10.478   1.270  14.280
36844SOL    HW212365  10.627   1.278  14.302
36845SOL     OW12366  12.064   6.169   9.069
36845SOL    HW112367  12.039   6.146   8.980
36845SOL    HW212368  11.993   6.136   9.123
36846SOL     OW12369  10.026   6.756   6.055
36846SOL    HW112370  10.097   6.800   6.008
36846SOL    HW212371  10.063   6.739   6.142
36847SOL     OW12372   5.741   4.595   7.898
36847SOL    HW112373   5.834   4.616   7.906
36847SOL    HW212374   5.695   4.676   7.921
36848SOL     OW12375   7.490   2.407  11.985
36848SOL    HW112376   7.471   2.494  11.951
36848SOL    HW212377   7.420   2.390  12.047
36849SOL     OW12378   8.728  11.996  13.058
36849SOL    HW112379   8.797  12.029  13.116
36849SOL    HW212380   8.724  11.902  13.077
36850SOL     OW12381  11.786   2.055   7.276
36850SOL    HW112382  11.783   2.118   7.204
36850SOL    HW212383  11.771   1.970   7.235
36851SOL     OW12384   4.484   4.958   5.531
36851SOL    HW112385   4.505   5.048   5.506
36851SOL    HW212386   4.410   4.934   5.475
36852SOL     OW12387   5.093   2.116   7.952
36852SOL    HW112388   4.998   2.121   7.964
36852SOL    HW212389   5.129   2.129   8.040
36853SOL     OW12390   2.521   9.000  11.442
36853SOL    HW112391   2.568   9.009  11.359
36853SOL    HW212392   2.431   8.979  11.416
36854SOL     OW12393  10.842  12.042  11.734
36854SOL    HW112394  10.757  12.086  11.723
36854SOL    HW212395  10.896  12.078  11.664
36855SOL     OW12396   8.285   1.395   0.643
36855SOL    HW112397   8.352   1.350   0.592
36855SOL    HW212398   8.275   1.480   0.600
36856SOL     OW12399   6.006  12.316   1.031
36856SOL    HW112400   6.099  12.337   1.035
36856SOL    HW212401   5.999  12.250   0.962
36857SOL     OW12402  11.391  10.042   4.592
36857SOL    HW112403  11.484  10.066   4.590
36857SOL    HW212404  11.386   9.962   4.540
36858SOL     OW12405  11.485   2.941   1.119
36858SOL    HW112406  11.539   2.868   1.152
36858SOL    HW212407  11.442   2.905   1.042
36859SOL     OW12408   9.271   1.126  13.199
36859SOL    HW112409   9.207   1.198  13.190
36859SOL    HW212410   9.327   1.153  13.272
36860SOL     OW12411   3.131   8.226   9.029
36860SOL    HW112412   3.088   8.231   9.115
36860SOL    HW212413   3.120   8.314   8.992
36861SOL     OW12414   9.998  11.186   2.550
36861SOL    HW112415  10.050  11.114   2.514
36861SOL    HW212416  10.021  11.187   2.643
36862SOL     OW12417   0.658   3.823   3.554
36862SOL    HW112418   0.578   3.828   3.500
36862SOL    HW212419   0.723   3.782   3.497
36863SOL     OW12420  14.544  13.806   7.273
36863SOL    HW112421  14.545  13.898   7.248
36863SOL    HW212422  14.626  13.792   7.320
36864SOL     OW12423   2.471  13.929   4.994
36864SOL    HW112424   2.480  13.984   4.916
36864SOL    HW212425   2.538  13.961   5.054
36865SOL     OW12426  10.811   7.725  13.969
36865SOL    HW112427  10.867   7.799  13.944
36865SOL    HW212428  10.723   7.763  13.974
36866SOL     OW12429   4.891  13.434   1.725
36866SOL    HW112430   4.958  13.486   1.681
36866SOL    HW212431   4.930  13.348   1.737
36867SOL     OW12432   6.718   0.298   4.305
36867SOL    HW112433   6.792   0.253   4.264
36867SOL    HW212434   6.644   0.238   4.295
36868SOL     OW12435   0.439   8.440  10.120
36868SOL    HW112436   0.404   8.351  10.123
36868SOL    HW212437   0.375   8.492  10.169
36869SOL     OW12438  10.524   4.638  13.758
36869SOL    HW112439  10.575   4.688  13.822
36869SOL    HW212440  10.513   4.552  13.799
36870SOL     OW12441  10.016   1.793   8.963
36870SOL    HW112442  10.025   1.702   8.935
36870SOL    HW212443  10.104   1.829   8.952
36871SOL     OW12444  13.721   0.963   1.213
36871SOL    HW112445  13.752   0.991   1.299
36871SOL    HW212446  13.625   0.966   1.219
36872SOL     OW12447   7.653   5.465   3.804
36872SOL    HW112448   7.646   5.537   3.741
36872SOL    HW212449   7.605   5.393   3.765
36873SOL     OW12450   3.442  11.007   6.299
36873SOL    HW112451   3.524  10.994   6.251
36873SOL    HW212452   3.387  10.933   6.273
36874SOL     OW12453   4.289   4.858   9.181
36874SOL    HW112454   4.206   4.841   9.225
36874SOL    HW212455   4.265   4.883   9.092
36875SOL     OW12456   6.453  13.137   7.574
36875SOL    HW112457   6.372  13.188   7.583
36875SOL    HW212458   6.519  13.187   7.623
36876SOL     OW12459   2.195   7.974   3.726
36876SOL    HW112460   2.117   8.024   3.702
36876SOL    HW212461   2.162   7.899   3.775
36877SOL     OW12462  13.119   6.360   9.925
36877SOL    HW112463  13.067   6.297   9.875
36877SOL    HW212464  13.064   6.382  10.001
36878SOL     OW12465  10.245   9.565  12.859
36878SOL    HW112466  10.255   9.648  12.905
36878SOL    HW212467  10.244   9.499  12.928
36879SOL     OW12468  10.609   6.088   9.116
36879SOL    HW112469  10.545   6.102   9.186
36879SOL    HW212470  10.691   6.123   9.151
36880SOL     OW12471   9.796  12.523   3.881
36880SOL    HW112472   9.709  12.482   3.883
36880SOL    HW212473   9.846  12.471   3.818
36881SOL     OW12474  13.969   4.076   8.015
36881SOL    HW112475  13.904   4.019   7.974
36881SOL    HW212476  13.957   4.062   8.109
36882SOL     OW12477   6.265   8.499  11.370
36882SOL    HW112478   6.243   8.518  11.279
36882SOL    HW212479   6.277   8.404  11.373
36883SOL     OW12480   3.134   0.696   9.588
36883SOL    HW112481   3.202   0.629   9.581
36883SOL    HW212482   3.098   0.702   9.499
36884SOL     OW12483  14.308   4.382  14.865
36884SOL    HW112484  14.400   4.381   0.010
36884SOL    HW212485  14.290   4.474  14.846
36885SOL     OW12486  12.319  11.698   8.418
36885SOL    HW112487  12.267  11.738   8.487
36885SOL    HW212488  12.287  11.739   8.337
36886SOL     OW12489   5.832   1.542   8.205
36886SOL    HW112490   5.788   1.527   8.122
36886SOL    HW212491   5.785   1.614   8.246
36887SOL     OW12492   8.093   6.596  14.095
36887SOL    HW112493   8.101   6.690  14.080
36887SOL    HW212494   8.001   6.576  14.078
36888SOL     OW12495   4.133   3.382   5.242
36888SOL    HW112496   4.113   3.288   5.235
36888SOL    HW212497   4.216   3.385   5.291
36889SOL     OW12498  12.364  11.497   2.151
36889SOL    HW112499  12.407  11.531   2.229
36889SOL    HW212500  12.284  11.550   2.144
36890SOL     OW12501   5.234   7.128   7.329
36890SOL    HW112502   5.256   7.198   7.392
36890SOL    HW212503   5.143   7.145   7.306
36891SOL     OW12504   7.712  10.283   7.504
36891SOL    HW112505   7.727  10.339   7.429
36891SOL    HW212506   7.721  10.341   7.580
36892SOL     OW12507   1.796   6.816   3.502
36892SOL    HW112508   1.777   6.776   3.417
36892SOL    HW212509   1.885   6.848   3.495
36893SOL     OW12510  11.345   4.038   6.367
36893SOL    HW112511  11.390   3.977   6.425
36893SOL    HW212512  11.284   3.984   6.317
36894SOL     OW12513   7.271   2.882   7.864
36894SOL    HW112514   7.261   2.888   7.959
36894SOL    HW212515   7.243   2.793   7.842
36895SOL     OW12516   6.840   7.109   5.305
36895SOL    HW112517   6.792   7.173   5.252
36895SOL    HW212518   6.820   7.133   5.396
36896SOL     OW12519   0.984   8.092   3.065
36896SOL    HW112520   1.062   8.049   3.099
36896SOL    HW212521   0.949   8.031   3.000
36897SOL     OW12522   6.600   8.183  14.541
36897SOL    HW112523   6.601   8.275  14.568
36897SOL    HW212524   6.691   8.165  14.517
36898SOL     OW12525  11.583   8.454   0.159
36898SOL    HW112526  11.576   8.545   0.128
36898SOL    HW212527  11.500   8.437   0.203
36899SOL     OW12528  10.328   7.241   9.635
36899SOL    HW112529  10.405   7.260   9.689
36899SOL    HW212530  10.362   7.192   9.560
36900SOL     OW12531  11.880  11.023   3.125
36900SOL    HW112532  11.935  11.049   3.052
36900SOL    HW212533  11.940  11.012   3.199
36901SOL     OW12534  10.074  10.975   8.147
36901SOL    HW112535  10.089  11.022   8.229
36901SOL    HW212536  10.066  11.043   8.081
36902SOL     OW12537   2.841   9.649   3.920
36902SOL    HW112538   2.808   9.599   3.994
36902SOL    HW212539   2.803   9.608   3.843
36903SOL     OW12540  13.475  14.691   4.550
36903SOL    HW112541  13.463  14.783   4.574
36903SOL    HW212542  13.426  14.642   4.616
36904SOL     OW12543  14.500   0.720  12.859
36904SOL    HW112544  14.506   0.807  12.899
36904SOL    HW212545  14.541   0.662  12.923
36905SOL     OW12546   1.067  10.734   3.539
36905SOL    HW112547   0.996  10.752   3.478
36905SOL    HW212548   1.044  10.651   3.580
36906SOL     OW12549   8.427   4.257  10.053
36906SOL    HW112550   8.367   4.300  10.114
36906SOL    HW212551   8.455   4.178  10.099
36907SOL     OW12552  13.974   3.510   0.753
36907SOL    HW112553  14.017   3.526   0.837
36907SOL    HW212554  14.004   3.581   0.697
36908SOL     OW12555   2.165  13.958   7.614
36908SOL    HW112556   2.078  13.983   7.643
36908SOL    HW212557   2.150  13.884   7.555
36909SOL     OW12558   5.717  13.978  13.212
36909SOL    HW112559   5.664  14.038  13.159
36909SOL    HW212560   5.674  13.893  13.203
36910SOL     OW12561   1.540   0.375   0.121
36910SOL    HW112562   1.632   0.376   0.096
36910SOL    HW212563   1.531   0.296   0.174
36911SOL     OW12564   7.504   1.804  10.670
36911SOL    HW112565   7.555   1.884  10.656
36911SOL    HW212566   7.569   1.736  10.685
36912SOL     OW12567  12.645   4.846   6.056
36912SOL    HW112568  12.623   4.938   6.043
36912SOL    HW212569  12.604   4.801   5.982
36913SOL     OW12570  11.248   2.279  14.600
36913SOL    HW112571  11.175   2.221  14.621
36913SOL    HW212572  11.210   2.344  14.541
36914SOL     OW12573   5.384   3.030   1.964
36914SOL    HW112574   5.334   2.987   2.033
36914SOL    HW212575   5.457   3.071   2.010
36915SOL     OW12576  14.638   4.331  11.586
36915SOL    HW112577  14.712   4.389  11.606
36915SOL    HW212578  14.642   4.319  11.491
36916SOL     OW12579   9.742  10.616  11.522
36916SOL    HW112580   9.667  10.673  11.534
36916SOL    HW212581   9.707  10.527  11.533
36917SOL     OW12582   1.573   1.257  10.020
36917SOL    HW112583   1.501   1.260  10.082
36917SOL    HW212584   1.629   1.330  10.044
36918SOL     OW12585   1.232  12.882  13.098
36918SOL    HW112586   1.179  12.962  13.092
36918SOL    HW212587   1.170  12.811  13.082
36919SOL     OW12588   6.025   9.859   3.919
36919SOL    HW112589   6.008   9.775   3.877
36919SOL    HW212590   6.071   9.837   4.000
36920SOL     OW12591   0.519   9.585   2.494
36920SOL    HW112592   0.582   9.652   2.519
36920SOL    HW212593   0.486   9.550   2.577
36921SOL     OW12594   2.575  12.700  12.514
36921SOL    HW112595   2.517  12.635  12.556
36921SOL    HW212596   2.644  12.715  12.578
36922SOL     OW12597  11.478  14.791   8.079
36922SOL    HW112598  11.542  14.829   8.018
36922SOL    HW212599  11.397  14.786   8.028
36923SOL     OW12600  14.633   7.282   6.243
36923SOL    HW112601  14.645   7.190   6.218
36923SOL    HW212602  14.677   7.290   6.328
36924SOL     OW12603   5.652  11.586  14.686
36924SOL    HW112604   5.601  11.637  14.749
36924SOL    HW212605   5.654  11.498  14.724
36925SOL     OW12606   0.917   3.564  11.519
36925SOL    HW112607   0.977   3.589  11.589
36925SOL    HW212608   0.862   3.641  11.505
36926SOL     OW12609   3.015   7.027  13.480
36926SOL    HW112610   2.980   7.091  13.418
36926SOL    HW212611   3.065   7.079  13.543
36927SOL     OW12612   0.785   4.857   2.096
36927SOL    HW112613   0.819   4.781   2.143
36927SOL    HW212614   0.864   4.901   2.064
36928SOL     OW12615   8.994   8.210   0.811
36928SOL    HW112616   9.012   8.233   0.720
36928SOL    HW212617   8.916   8.261   0.833
36929SOL     OW12618   3.507   5.807   3.715
36929SOL    HW112619   3.600   5.783   3.712
36929SOL    HW212620   3.483   5.799   3.807
36930SOL     OW12621   2.394  12.052   2.103
36930SOL    HW112622   2.333  12.098   2.161
36930SOL    HW212623   2.339  12.009   2.039
36931SOL     OW12624   0.779   8.189   5.179
36931SOL    HW112625   0.866   8.222   5.204
36931SOL    HW212626   0.787   8.168   5.086
36932SOL     OW12627   8.730   5.571   8.690
36932SOL    HW112628   8.705   5.491   8.645
36932SOL    HW212629   8.735   5.637   8.620
36933SOL     OW12630   0.497  12.013  13.147
36933SOL    HW112631   0.518  12.054  13.231
36933SOL    HW212632   0.404  12.034  13.134
36934SOL     OW12633   2.492   5.482  11.956
36934SOL    HW112634   2.444   5.504  11.876
36934SOL    HW212635   2.439   5.520  12.027
36935SOL     OW12636   5.637  14.147  14.512
36935SOL    HW112637   5.670  14.226  14.469
36935SOL    HW212638   5.709  14.084  14.505
36936SOL     OW12639   8.060   2.965   3.451
36936SOL    HW112640   8.090   2.966   3.541
36936SOL    HW212641   8.027   2.876   3.437
36937SOL     OW12642   1.399  10.068   2.433
36937SOL    HW112643   1.437  10.002   2.491
36937SOL    HW212644   1.364  10.134   2.492
36938SOL     OW12645   9.780   5.377   2.108
36938SOL    HW112646   9.700   5.426   2.123
36938SOL    HW212647   9.772   5.300   2.165
36939SOL     OW12648   1.813  14.856  12.813
36939SOL    HW112649   1.875  14.800  12.859
36939SOL    HW212650   1.728  14.815  12.827
36940SOL     OW12651   7.540   4.273   0.330
36940SOL    HW112652   7.473   4.273   0.399
36940SOL    HW212653   7.597   4.346   0.353
36941SOL     OW12654   3.158  13.806   5.963
36941SOL    HW112655   3.232  13.767   6.010
36941SOL    HW212656   3.083  13.789   6.019
36942SOL     OW12657   9.179   2.382  11.075
36942SOL    HW112658   9.144   2.313  11.020
36942SOL    HW212659   9.218   2.337  11.150
36943SOL     OW12660   0.162   3.587   3.498
36943SOL    HW112661   0.174   3.502   3.455
36943SOL    HW212662   0.073   3.613   3.477
36944SOL     OW12663  10.959  11.349  10.003
36944SOL    HW112664  11.024  11.359   9.934
36944SOL    HW212665  10.897  11.421   9.988
36945SOL     OW12666   3.256   5.004   5.080
36945SOL    HW112667   3.263   5.053   4.998
36945SOL    HW212668   3.319   5.045   5.138
36946SOL     OW12669  12.173  10.101   3.954
36946SOL    HW112670  12.136  10.187   3.932
36946SOL    HW212671  12.116  10.068   4.024
36947SOL     OW12672   1.645   9.825   5.136
36947SOL    HW112673   1.577   9.887   5.161
36947SOL    HW212674   1.727   9.867   5.161
36948SOL     OW12675   8.073   8.501   9.324
36948SOL    HW112676   7.990   8.539   9.352
36948SOL    HW212677   8.102   8.449   9.399
36949SOL     OW12678   8.891  14.237   2.344
36949SOL    HW112679   8.874  14.331   2.336
36949SOL    HW212680   8.978  14.233   2.383
36950SOL     OW12681   8.351   0.019   8.590
36950SOL    HW112682   8.261  14.874   8.609
36950SOL    HW212683   8.368  14.865   8.503
36951SOL     OW12684  12.513   8.812   9.899
36951SOL    HW112685  12.492   8.745   9.834
36951SOL    HW212686  12.453   8.795   9.971
36952SOL     OW12687   3.518   6.271   1.247
36952SOL    HW112688   3.462   6.205   1.206
36952SOL    HW212689   3.606   6.252   1.213
36953SOL     OW12690   0.338  11.492   8.115
36953SOL    HW112691   0.384  11.466   8.035
36953SOL    HW212692   0.329  11.587   8.108
36954SOL     OW12693  11.474   5.327   7.250
36954SOL    HW112694  11.400   5.364   7.298
36954SOL    HW212695  11.544   5.391   7.261
36955SOL     OW12696   2.691   0.263   8.402
36955SOL    HW112697   2.779   0.227   8.392
36955SOL    HW212698   2.669   0.297   8.316
36956SOL     OW12699   0.646  13.242   7.280
36956SOL    HW112700   0.673  13.155   7.252
36956SOL    HW212701   0.594  13.227   7.359
36957SOL     OW12702  13.955   1.262  12.910
36957SOL    HW112703  14.004   1.233  12.833
36957SOL    HW212704  13.905   1.337  12.879
36958SOL     OW12705   0.491  14.501   5.471
36958SOL    HW112706   0.482  14.557   5.395
36958SOL    HW212707   0.585  14.498   5.488
36959SOL     OW12708  11.699   6.707   1.786
36959SOL    HW112709  11.724   6.748   1.702
36959SOL    HW212710  11.612   6.742   1.804
36960SOL     OW12711  14.321  13.933   5.822
36960SOL    HW112712  14.394  13.872   5.814
36960SOL    HW212713  14.297  13.954   5.731
36961SOL     OW12714   7.331   0.259   6.252
36961SOL    HW112715   7.424   0.281   6.257
36961SOL    HW212716   7.286   0.335   6.287
36962SOL     OW12717  14.406   0.827  14.214
36962SOL    HW112718  14.473   0.783  14.268
36962SOL    HW212719  14.327   0.826  14.269
36963SOL     OW12720   2.430   0.949  11.558
36963SOL    HW112721   2.404   0.935  11.650
36963SOL    HW212722   2.468   1.037  11.557
36964SOL     OW12723   0.291   1.050   7.094
36964SOL    HW112724   0.336   0.990   7.153
36964SOL    HW212725   0.334   1.134   7.109
36965SOL     OW12726   2.696   4.702   9.497
36965SOL    HW112727   2.770   4.762   9.508
36965SOL    HW212728   2.727   4.619   9.532
36966SOL     OW12729   3.396   9.339   5.865
36966SOL    HW112730   3.471   9.339   5.805
36966SOL    HW212731   3.420   9.401   5.934
36967SOL     OW12732   4.323   5.316  14.658
36967SOL    HW112733   4.262   5.354  14.721
36967SOL    HW212734   4.298   5.224  14.654
36968SOL     OW12735   6.360  13.794   5.779
36968SOL    HW112736   6.361  13.780   5.684
36968SOL    HW212737   6.381  13.708   5.816
36969SOL     OW12738   1.214  10.704  13.692
36969SOL    HW112739   1.178  10.736  13.774
36969SOL    HW212740   1.139  10.695  13.633
36970SOL     OW12741  13.762  11.056   0.331
36970SOL    HW112742  13.728  10.973   0.298
36970SOL    HW212743  13.751  11.116   0.258
36971SOL     OW12744   1.402   5.268   1.096
36971SOL    HW112745   1.378   5.200   1.033
36971SOL    HW212746   1.379   5.231   1.181
36972SOL     OW12747   7.498   1.082   1.404
36972SOL    HW112748   7.417   1.103   1.359
36972SOL    HW212749   7.567   1.099   1.339
36973SOL     OW12750   5.708  13.106  12.682
36973SOL    HW112751   5.772  13.059  12.630
36973SOL    HW212752   5.760  13.155  12.746
36974SOL     OW12753  13.228  12.315   5.647
36974SOL    HW112754  13.274  12.248   5.697
36974SOL    HW212755  13.206  12.382   5.712
36975SOL     OW12756  11.196   9.085  10.008
36975SOL    HW112757  11.175   9.124  10.092
36975SOL    HW212758  11.261   9.017  10.028
36976SOL     OW12759  14.037  13.433  10.258
36976SOL    HW112760  13.973  13.447  10.328
36976SOL    HW212761  14.094  13.364  10.291
36977SOL     OW12762  13.764   4.457   4.225
36977SOL    HW112763  13.722   4.466   4.139
36977SOL    HW212764  13.743   4.368   4.253
36978SOL     OW12765  10.874   1.852   9.752
36978SOL    HW112766  10.919   1.798   9.817
36978SOL    HW212767  10.864   1.937   9.795
36979SOL     OW12768   9.363  11.856  10.726
36979SOL    HW112769   9.348  11.892  10.813
36979SOL    HW212770   9.405  11.927  10.677
36980SOL     OW12771  12.811   3.277   3.981
36980SOL    HW112772  12.877   3.345   3.964
36980SOL    HW212773  12.736   3.325   4.015
36981SOL     OW12774  13.704   1.456   3.196
36981SOL    HW112775  13.729   1.519   3.128
36981SOL    HW212776  13.723   1.370   3.157
36982SOL     OW12777  14.656   1.301  10.829
36982SOL    HW112778  14.671   1.234  10.896
36982SOL    HW212779  14.612   1.372  10.875
36983SOL     OW12780   6.492   8.923   8.200
36983SOL    HW112781   6.430   8.952   8.267
36983SOL    HW212782   6.542   9.001   8.178
36984SOL     OW12783   6.090   2.454   9.350
36984SOL    HW112784   6.090   2.384   9.414
36984SOL    HW212785   5.999   2.485   9.348
36985SOL     OW12786  12.566   1.500   9.216
36985SOL    HW112787  12.633   1.493   9.284
36985SOL    HW212788  12.487   1.528   9.263
36986SOL     OW12789   0.254   3.688   5.691
36986SOL    HW112790   0.195   3.688   5.615
36986SOL    HW212791   0.213   3.749   5.752
36987SOL     OW12792   0.083  14.763   0.827
36987SOL    HW112793   0.170  14.725   0.817
36987SOL    HW212794   0.095  14.857   0.810
36988SOL     OW12795   4.511   8.569  12.146
36988SOL    HW112796   4.461   8.628  12.089
36988SOL    HW212797   4.568   8.521  12.086
36989SOL     OW12798   7.043   6.998   7.439
36989SOL    HW112799   7.001   6.993   7.354
36989SOL    HW212800   7.131   6.964   7.424
36990SOL     OW12801   2.475  14.530   5.934
36990SOL    HW112802   2.414  14.539   6.007
36990SOL    HW212803   2.450  14.449   5.891
36991SOL     OW12804   7.967   3.601  11.444
36991SOL    HW112805   7.923   3.615  11.360
36991SOL    HW212806   8.058   3.625  11.427
36992SOL     OW12807   1.186  13.001   5.950
36992SOL    HW112808   1.215  13.004   5.859
36992SOL    HW212809   1.150  12.913   5.961
36993SOL     OW12810   6.869  10.015   1.951
36993SOL    HW112811   6.919  10.056   2.022
36993SOL    HW212812   6.894  10.064   1.873
36994SOL     OW12813   5.771   5.871  11.434
36994SOL    HW112814   5.785   5.792  11.383
36994SOL    HW212815   5.859   5.906  11.450
36995SOL     OW12816   7.877  10.890   4.408
36995SOL    HW112817   7.913  10.810   4.370
36995SOL    HW212818   7.783  10.886   4.390
36996SOL     OW12819  14.449   6.244   3.789
36996SOL    HW112820  14.504   6.275   3.718
36996SOL    HW212821  14.424   6.324   3.836
36997SOL     OW12822  11.581   3.930  11.350
36997SOL    HW112823  11.487   3.914  11.344
36997SOL    HW212824  11.589   4.025  11.354
36998SOL     OW12825  10.296   8.964  11.001
36998SOL    HW112826  10.260   8.878  11.024
36998SOL    HW212827  10.391   8.954  11.012
36999SOL     OW12828   5.983   1.122   1.622
36999SOL    HW112829   5.934   1.081   1.550
36999SOL    HW212830   5.915   1.159   1.678
37000SOL     OW12831   0.816  10.217  11.837
37000SOL    HW112832   0.893  10.165  11.861
37000SOL    HW212833   0.819  10.220  11.742
37001SOL     OW12834  13.815   0.685   1.117
37001SOL    HW112835  13.789   0.758   1.174
37001SOL    HW212836  13.737   0.630   1.111
37002SOL     OW12837  12.792   0.054   6.905
37002SOL    HW112838  12.766   0.040   6.996
37002SOL    HW212839  12.882   0.022   6.901
37003SOL     OW12840   2.698   7.600   1.293
37003SOL    HW112841   2.634   7.597   1.221
37003SOL    HW212842   2.676   7.679   1.341
37004SOL     OW12843   4.446   5.659   2.575
37004SOL    HW112844   4.535   5.624   2.565
37004SOL    HW212845   4.389   5.590   2.541
37005SOL     OW12846   3.301   8.958  12.910
37005SOL    HW112847   3.248   8.984  12.986
37005SOL    HW212848   3.320   9.040  12.865
37006SOL     OW12849   3.381  12.868   3.437
37006SOL    HW112850   3.304  12.919   3.461
37006SOL    HW212851   3.409  12.904   3.352
37007SOL     OW12852   4.114   3.272   2.410
37007SOL    HW112853   4.104   3.197   2.468
37007SOL    HW212854   4.062   3.341   2.451
37008SOL     OW12855   9.028   4.848  11.311
37008SOL    HW112856   8.993   4.794  11.240
37008SOL    HW212857   8.993   4.808  11.391
37009SOL     OW12858   7.022   5.803  11.520
37009SOL    HW112859   7.050   5.895  11.525
37009SOL    HW212860   7.072   5.760  11.590
37010SOL     OW12861  10.051  10.514  12.361
37010SOL    HW112862  10.116  10.584  12.355
37010SOL    HW212863   9.985  10.547  12.422
37011SOL     OW12864  13.841   3.007   8.012
37011SOL    HW112865  13.770   2.946   7.991
37011SOL    HW212866  13.836   3.019   8.106
37012SOL     OW12867  14.690   5.213  13.195
37012SOL    HW112868  14.716   5.172  13.277
37012SOL    HW212869  14.736   5.297  13.195
37013SOL     OW12870   2.496  14.666  12.789
37013SOL    HW112871   2.478  14.752  12.827
37013SOL    HW212872   2.563  14.628  12.845
37014SOL     OW12873   7.352  10.065   1.326
37014SOL    HW112874   7.371   9.973   1.347
37014SOL    HW212875   7.321  10.063   1.236
37015SOL     OW12876   5.586  10.013  12.866
37015SOL    HW112877   5.655   9.947  12.874
37015SOL    HW212878   5.568  10.040  12.956
37016SOL     OW12879   4.018   3.902   3.544
37016SOL    HW112880   3.971   3.926   3.464
37016SOL    HW212881   4.104   3.943   3.535
37017SOL     OW12882  10.778  14.535   7.828
37017SOL    HW112883  10.700  14.502   7.781
37017SOL    HW212884  10.765  14.508   7.918
37018SOL     OW12885   0.918   5.914   7.388
37018SOL    HW112886   0.826   5.905   7.365
37018SOL    HW212887   0.954   5.971   7.320
37019SOL     OW12888  10.540   6.939  12.526
37019SOL    HW112889  10.578   6.851  12.523
37019SOL    HW212890  10.488   6.939  12.607
37020SOL     OW12891   5.125  12.417  13.425
37020SOL    HW112892   5.069  12.493  13.411
37020SOL    HW212893   5.210  12.454  13.452
37021SOL     OW12894  11.518   0.018  10.608
37021SOL    HW112895  11.453   0.072  10.563
37021SOL    HW212896  11.577  14.871  10.538
37022SOL     OW12897   2.329   0.190  14.576
37022SOL    HW112898   2.334   0.238  14.659
37022SOL    HW212899   2.344   0.098  14.601
37023SOL     OW12900   8.939   3.677   2.024
37023SOL    HW112901   8.850   3.643   2.031
37023SOL    HW212902   8.980   3.653   2.107
37024SOL     OW12903  12.905   8.168   3.444
37024SOL    HW112904  12.881   8.247   3.492
37024SOL    HW212905  12.986   8.191   3.399
37025SOL     OW12906   6.794   6.317  14.450
37025SOL    HW112907   6.741   6.356  14.380
37025SOL    HW212908   6.820   6.232  14.416
37026SOL     OW12909   6.083   8.652   1.910
37026SOL    HW112910   6.094   8.652   1.815
37026SOL    HW212911   6.055   8.741   1.931
37027SOL     OW12912   6.920   9.051   9.544
37027SOL    HW112913   6.951   9.041   9.454
37027SOL    HW212914   6.831   9.014   9.543
37028SOL     OW12915   2.498  12.952   7.980
37028SOL    HW112916   2.433  12.921   8.043
37028SOL    HW212917   2.459  13.032   7.943
37029SOL     OW12918   5.742   1.542   6.034
37029SOL    HW112919   5.712   1.511   5.949
37029SOL    HW212920   5.661   1.563   6.082
37030SOL     OW12921   4.404  14.755   3.756
37030SOL    HW112922   4.453  14.725   3.833
37030SOL    HW212923   4.471  14.766   3.688
37031SOL     OW12924   0.941   5.298   7.696
37031SOL    HW112925   0.991   5.351   7.634
37031SOL    HW212926   0.888   5.361   7.745
37032SOL     OW12927  12.541   6.347  13.657
37032SOL    HW112928  12.599   6.410  13.614
37032SOL    HW212929  12.469   6.335  13.596
37033SOL     OW12930   4.604  12.640  10.707
37033SOL    HW112931   4.563  12.553  10.705
37033SOL    HW212932   4.667  12.638  10.635
37034SOL     OW12933  10.925  14.257   2.862
37034SOL    HW112934  10.867  14.200   2.812
37034SOL    HW212935  10.870  14.332   2.886
37035SOL     OW12936   6.055   2.093   0.742
37035SOL    HW112937   6.093   2.015   0.784
37035SOL    HW212938   6.130   2.134   0.698
37036SOL     OW12939   4.526   1.121   8.891
37036SOL    HW112940   4.436   1.130   8.921
37036SOL    HW212941   4.557   1.211   8.880
37037SOL     OW12942   4.128  12.342  12.655
37037SOL    HW112943   4.044  12.322  12.615
37037SOL    HW212944   4.189  12.351  12.581
37038SOL     OW12945   7.140   4.061   5.093
37038SOL    HW112946   7.220   4.037   5.140
37038SOL    HW212947   7.113   3.981   5.049
37039SOL     OW12948  13.066   5.442  13.957
37039SOL    HW112949  12.980   5.484  13.961
37039SOL    HW212950  13.113   5.491  13.890
37040SOL     OW12951   9.127   1.100   7.148
37040SOL    HW112952   9.123   1.059   7.234
37040SOL    HW212953   9.106   1.030   7.087
37041SOL     OW12954   8.141  12.827   2.115
37041SOL    HW112955   8.116  12.780   2.035
37041SOL    HW212956   8.235  12.813   2.123
37042SOL     OW12957   9.924  12.659   0.950
37042SOL    HW112958   9.955  12.569   0.952
37042SOL    HW212959   9.894  12.672   0.861
37043SOL     OW12960  11.962   8.906   9.588
37043SOL    HW112961  11.934   8.818   9.562
37043SOL    HW212962  12.008   8.939   9.511
37044SOL     OW12963   3.591   9.865   4.685
37044SOL    HW112964   3.599   9.802   4.757
37044SOL    HW212965   3.540   9.937   4.723
37045SOL     OW12966   1.667  12.438   8.922
37045SOL    HW112967   1.600  12.393   8.871
37045SOL    HW212968   1.748  12.425   8.872
37046SOL     OW12969  13.353   0.062   3.522
37046SOL    HW112970  13.402   0.078   3.442
37046SOL    HW212971  13.364   0.142   3.573
37047SOL     OW12972   2.242   2.598   6.685
37047SOL    HW112973   2.217   2.531   6.749
37047SOL    HW212974   2.329   2.572   6.655
37048SOL     OW12975   2.386   1.097   9.073
37048SOL    HW112976   2.433   1.089   8.990
37048SOL    HW212977   2.447   1.062   9.138
37049SOL     OW12978   2.768   2.621   8.206
37049SOL    HW112979   2.792   2.655   8.292
37049SOL    HW212980   2.850   2.621   8.157
37050SOL     OW12981   5.392   6.366   6.089
37050SOL    HW112982   5.360   6.435   6.031
37050SOL    HW212983   5.448   6.313   6.033
37051SOL     OW12984   6.801  14.247   8.430
37051SOL    HW112985   6.850  14.296   8.364
37051SOL    HW212986   6.857  14.249   8.507
37052SOL     OW12987   3.247  14.488   4.343
37052SOL    HW112988   3.330  14.532   4.362
37052SOL    HW212989   3.181  14.549   4.375
37053SOL     OW12990   6.049   5.866  14.857
37053SOL    HW112991   6.029   5.870   0.069
37053SOL    HW212992   6.126   5.810  14.851
37054SOL     OW12993   7.237  12.470   8.246
37054SOL    HW112994   7.228  12.384   8.205
37054SOL    HW212995   7.222  12.454   8.339
37055SOL     OW12996   7.229  13.125  14.809
37055SOL    HW112997   7.313  13.110  14.853
37055SOL    HW212998   7.202  13.212  14.836
37056SOL     OW12999   1.390   5.882   3.968
37056SOL    HW113000   1.389   5.795   3.927
37056SOL    HW213001   1.391   5.943   3.895
37057SOL     OW13002   9.113  12.473  10.524
37057SOL    HW113003   9.035  12.483  10.579
37057SOL    HW213004   9.111  12.550  10.467
37058SOL     OW13005  12.905  11.312   0.589
37058SOL    HW113006  12.977  11.285   0.646
37058SOL    HW213007  12.940  11.388   0.542
37059SOL     OW13008   4.141   5.752   3.483
37059SOL    HW113009   4.121   5.833   3.530
37059SOL    HW213010   4.187   5.781   3.405
37060SOL     OW13011  10.877   6.709   0.094
37060SOL    HW113012  10.832   6.660   0.025
37060SOL    HW213013  10.914   6.642   0.150
37061SOL     OW13014  10.711   9.242   7.170
37061SOL    HW113015  10.720   9.147   7.169
37061SOL    HW213016  10.640   9.260   7.107
37062SOL     OW13017   7.624  13.168   9.099
37062SOL    HW113018   7.672  13.093   9.062
37062SOL    HW213019   7.692  13.229   9.125
37063SOL     OW13020  10.552  10.782   6.527
37063SOL    HW113021  10.563  10.796   6.621
37063SOL    HW213022  10.507  10.861   6.496
37064SOL     OW13023   0.365  13.086   2.431
37064SOL    HW113024   0.397  13.002   2.463
37064SOL    HW213025   0.438  13.146   2.443
37065SOL     OW13026   2.462   3.675  10.656
37065SOL    HW113027   2.450   3.580  10.662
37065SOL    HW213028   2.537   3.694  10.712
37066SOL     OW13029   9.824   9.986   2.348
37066SOL    HW113030   9.748   9.953   2.300
37066SOL    HW213031   9.810   9.956   2.438
37067SOL     OW13032  10.104   4.065  13.094
37067SOL    HW113033  10.097   4.085  13.001
37067SOL    HW213034  10.162   4.133  13.129
37068SOL     OW13035   7.362   2.042   7.952
37068SOL    HW113036   7.438   2.073   8.002
37068SOL    HW213037   7.304   2.003   8.018
37069SOL     OW13038   9.838  12.893  10.284
37069SOL    HW113039   9.846  12.987  10.266
37069SOL    HW213040   9.870  12.883  10.373
37070SOL     OW13041   5.099   4.109  10.460
37070SOL    HW113042   5.168   4.173  10.442
37070SOL    HW213043   5.061   4.137  10.543
37071SOL     OW13044   9.588   6.599   3.625
37071SOL    HW113045   9.507   6.571   3.582
37071SOL    HW213046   9.619   6.521   3.671
37072SOL     OW13047   7.519  10.855   8.475
37072SOL    HW113048   7.472  10.933   8.445
37072SOL    HW213049   7.505  10.854   8.570
37073SOL     OW13050   5.148  11.429  12.651
37073SOL    HW113051   5.130  11.335  12.647
37073SOL    HW213052   5.089  11.462  12.719
37074SOL     OW13053   3.839   5.570   3.326
37074SOL    HW113054   3.929   5.592   3.351
37074SOL    HW213055   3.798   5.654   3.307
37075SOL     OW13056   8.137  14.441   3.543
37075SOL    HW113057   8.144  14.386   3.620
37075SOL    HW213058   8.227  14.448   3.510
37076SOL     OW13059   7.757  13.073   7.979
37076SOL    HW113060   7.826  13.138   7.986
37076SOL    HW213061   7.714  13.075   8.065
37077SOL     OW13062  10.829  10.820  14.047
37077SOL    HW113063  10.770  10.773  14.106
37077SOL    HW213064  10.891  10.864  14.106
37078SOL     OW13065  10.774  14.161   3.188
37078SOL    HW113066  10.789  14.219   3.263
37078SOL    HW213067  10.740  14.219   3.120
37079SOL     OW13068  11.174   2.542  14.466
37079SOL    HW113069  11.247   2.551  14.527
37079SOL    HW213070  11.191   2.608  14.398
37080SOL     OW13071   7.053  11.573   5.895
37080SOL    HW113072   7.101  11.653   5.875
37080SOL    HW213073   7.066  11.517   5.819
37081SOL     OW13074  14.356   3.998  12.153
37081SOL    HW113075  14.278   4.003  12.098
37081SOL    HW213076  14.325   3.964  12.237
37082SOL     OW13077   7.237  14.624   7.751
37082SOL    HW113078   7.259  14.555   7.689
37082SOL    HW213079   7.309  14.623   7.814
37083SOL     OW13080  10.308   6.062   2.867
37083SOL    HW113081  10.227   6.062   2.815
37083SOL    HW213082  10.360   5.992   2.828
37084SOL     OW13083   3.046   3.423  12.289
37084SOL    HW113084   2.970   3.456  12.336
37084SOL    HW213085   3.047   3.472  12.207
37085SOL     OW13086   3.265   9.290  10.933
37085SOL    HW113087   3.346   9.239  10.927
37085SOL    HW213088   3.197   9.230  10.903
37086SOL     OW13089   1.466  10.103   4.060
37086SOL    HW113090   1.477  10.092   4.155
37086SOL    HW213091   1.393  10.164   4.051
37087SOL     OW13092  14.511   7.428   3.257
37087SOL    HW113093  14.558   7.353   3.220
37087SOL    HW213094  14.545   7.504   3.209
37088SOL     OW13095   6.982   7.610  11.590
37088SOL    HW113096   7.062   7.601  11.539
37088SOL    HW213097   7.009   7.650  11.672
37089SOL     OW13098  12.172   0.889   3.568
37089SOL    HW113099  12.142   0.833   3.640
37089SOL    HW213100  12.267   0.894   3.579
37090SOL     OW13101   4.463   6.603   2.308
37090SOL    HW113102   4.372   6.606   2.281
37090SOL    HW213103   4.460   6.597   2.403
37091SOL     OW13104   4.754   5.271   2.687
37091SOL    HW113105   4.777   5.215   2.613
37091SOL    HW213106   4.682   5.325   2.655
37092SOL     OW13107   9.978  12.801   5.102
37092SOL    HW113108   9.910  12.864   5.125
37092SOL    HW213109  10.049  12.853   5.065
37093SOL     OW13110   7.935   8.353   1.886
37093SOL    HW113111   7.998   8.283   1.904
37093SOL    HW213112   7.955   8.421   1.951
37094SOL     OW13113  14.606   7.677  12.929
37094SOL    HW113114  14.522   7.635  12.912
37094SOL    HW213115  14.617   7.740  12.858
37095SOL     OW13116   7.810   7.983   7.504
37095SOL    HW113117   7.897   8.010   7.531
37095SOL    HW213118   7.758   7.983   7.584
37096SOL     OW13119   5.258   2.898  13.682
37096SOL    HW113120   5.329   2.834  13.689
37096SOL    HW213121   5.198   2.876  13.753
37097SOL     OW13122  10.900  11.054   8.305
37097SOL    HW113123  10.827  11.003   8.341
37097SOL    HW213124  10.867  11.144   8.303
37098SOL     OW13125   4.162   0.423   1.049
37098SOL    HW113126   4.131   0.504   1.089
37098SOL    HW213127   4.256   0.421   1.067
37099SOL     OW13128   7.328  13.462   9.894
37099SOL    HW113129   7.419  13.453   9.922
37099SOL    HW213130   7.315  13.556   9.881
37100SOL     OW13131  12.614   5.635   1.214
37100SOL    HW113132  12.609   5.615   1.307
37100SOL    HW213133  12.524   5.646   1.186
37101SOL     OW13134   2.161   3.509  13.706
37101SOL    HW113135   2.147   3.417  13.687
37101SOL    HW213136   2.212   3.510  13.787
37102SOL     OW13137   0.243   3.887   6.098
37102SOL    HW113138   0.217   3.818   6.159
37102SOL    HW213139   0.338   3.879   6.092
37103SOL     OW13140  13.769   1.986  10.759
37103SOL    HW113141  13.735   1.911  10.808
37103SOL    HW213142  13.741   2.062  10.810
37104SOL     OW13143   3.482   2.976  11.809
37104SOL    HW113144   3.498   2.994  11.901
37104SOL    HW213145   3.401   2.925  11.808
37105SOL     OW13146   6.972   7.522   4.835
37105SOL    HW113147   7.031   7.492   4.904
37105SOL    HW213148   6.886   7.525   4.876
37106SOL     OW13149   2.190   2.728   1.556
37106SOL    HW113150   2.149   2.642   1.552
37106SOL    HW213151   2.260   2.725   1.490
37107SOL     OW13152   9.112   8.393   5.198
37107SOL    HW113153   9.081   8.346   5.121
37107SOL    HW213154   9.065   8.476   5.196
37108SOL     OW13155   2.954   6.768   3.020
37108SOL    HW113156   2.894   6.694   3.027
37108SOL    HW213157   2.915   6.824   2.952
37109SOL     OW13158   8.285  11.742   7.050
37109SOL    HW113159   8.194  11.731   7.023
37109SOL    HW213160   8.279  11.788   7.134
37110SOL     OW13161   8.262   8.061   4.477
37110SOL    HW113162   8.190   8.114   4.444
37110SOL    HW213163   8.260   7.982   4.423
37111SOL     OW13164  12.195   1.734  14.234
37111SOL    HW113165  12.209   1.814  14.285
37111SOL    HW213166  12.138   1.681  14.290
37112SOL     OW13167   2.043  13.109   4.658
37112SOL    HW113168   1.958  13.074   4.685
37112SOL    HW213169   2.107  13.051   4.700
37113SOL     OW13170  11.613   6.856  11.396
37113SOL    HW113171  11.670   6.900  11.333
37113SOL    HW213172  11.660   6.862  11.480
37114SOL     OW13173   0.029   2.424   6.235
37114SOL    HW113174  14.843   2.356   6.231
37114SOL    HW213175   0.047   2.434   6.328
37115SOL     OW13176   7.566   2.671   0.413
37115SOL    HW113177   7.478   2.697   0.443
37115SOL    HW213178   7.563   2.576   0.411
37116SOL     OW13179   9.072  10.663   3.093
37116SOL    HW113180   9.135  10.591   3.102
37116SOL    HW213181   9.016  10.656   3.170
37117SOL     OW13182  14.030   3.074  12.161
37117SOL    HW113183  14.040   2.979  12.152
37117SOL    HW213184  14.120   3.105  12.175
37118SOL     OW13185   3.045   2.557   1.629
37118SOL    HW113186   3.108   2.625   1.652
37118SOL    HW213187   3.093   2.499   1.569
37119SOL     OW13188   5.605  10.356   4.188
37119SOL    HW113189   5.577  10.431   4.135
37119SOL    HW213190   5.579  10.377   4.277
37120SOL     OW13191  12.134   7.744   1.555
37120SOL    HW113192  12.106   7.692   1.480
37120SOL    HW213193  12.098   7.698   1.631
37121SOL     OW13194   1.227   1.629   2.326
37121SOL    HW113195   1.152   1.636   2.384
37121SOL    HW213196   1.292   1.688   2.363
37122SOL     OW13197   9.288   4.208   1.530
37122SOL    HW113198   9.221   4.208   1.598
37122SOL    HW213199   9.264   4.135   1.473
37123SOL     OW13200   4.895   5.010   8.066
37123SOL    HW113201   4.956   5.050   8.004
37123SOL    HW213202   4.939   4.930   8.095
37124SOL     OW13203   5.728   6.226  10.226
37124SOL    HW113204   5.682   6.142  10.217
37124SOL    HW213205   5.698   6.261  10.310
37125SOL     OW13206   8.951  12.209   9.389
37125SOL    HW113207   8.875  12.250   9.349
37125SOL    HW213208   8.919  12.124   9.421
37126SOL     OW13209   0.148  13.943   6.259
37126SOL    HW113210   0.210  13.881   6.223
37126SOL    HW213211   0.175  14.028   6.224
37127SOL     OW13212   7.799   3.329   2.111
37127SOL    HW113213   7.724   3.339   2.054
37127SOL    HW213214   7.762   3.323   2.199
37128SOL     OW13215  11.534  10.479  10.075
37128SOL    HW113216  11.469  10.412  10.095
37128SOL    HW213217  11.484  10.552  10.040
37129SOL     OW13218   9.127   7.328   2.014
37129SOL    HW113219   9.050   7.316   2.070
37129SOL    HW213220   9.115   7.414   1.975
37130SOL     OW13221  12.370   7.323   5.809
37130SOL    HW113222  12.432   7.338   5.738
37130SOL    HW213223  12.336   7.235   5.793
37131SOL     OW13224  13.150   4.651   8.505
37131SOL    HW113225  13.101   4.683   8.430
37131SOL    HW213226  13.107   4.691   8.581
37132SOL     OW13227  14.705   9.068  10.242
37132SOL    HW113228  14.769   9.021  10.296
37132SOL    HW213229  14.706   9.157  10.275
37133SOL     OW13230  11.475   1.921  14.535
37133SOL    HW113231  11.570   1.930  14.532
37133SOL    HW213232  11.443   2.011  14.546
37134SOL     OW13233   1.784   2.231  13.236
37134SOL    HW113234   1.696   2.232  13.198
37134SOL    HW213235   1.841   2.207  13.164
37135SOL     OW13236   8.356   4.436  11.732
37135SOL    HW113237   8.430   4.479  11.689
37135SOL    HW213238   8.339   4.490  11.810
37136SOL     OW13239  12.618   0.188   1.606
37136SOL    HW113240  12.650   0.142   1.528
37136SOL    HW213241  12.694   0.193   1.663
37137SOL     OW13242  10.788   3.530   1.884
37137SOL    HW113243  10.736   3.450   1.878
37137SOL    HW213244  10.833   3.536   1.799
37138SOL     OW13245   8.637  14.666   7.820
37138SOL    HW113246   8.602  14.722   7.889
37138SOL    HW213247   8.699  14.608   7.864
37139SOL     OW13248   7.630   0.852   3.393
37139SOL    HW113249   7.570   0.789   3.434
37139SOL    HW213250   7.710   0.847   3.446
37140SOL     OW13251   5.908  10.359  11.601
37140SOL    HW113252   5.931  10.380  11.511
37140SOL    HW213253   5.844  10.426  11.626
37141SOL     OW13254  14.578   3.185   0.359
37141SOL    HW113255  14.519   3.240   0.410
37141SOL    HW213256  14.629   3.137   0.425
37142SOL     OW13257   3.405   1.037  10.441
37142SOL    HW113258   3.351   0.974  10.393
37142SOL    HW213259   3.342   1.103  10.471
37143SOL     OW13260  11.350   4.571   2.518
37143SOL    HW113261  11.270   4.605   2.479
37143SOL    HW213262  11.405   4.648   2.534
37144SOL     OW13263   0.933  11.272   4.854
37144SOL    HW113264   0.998  11.204   4.837
37144SOL    HW213265   0.982  11.345   4.892
37145SOL     OW13266   1.000   4.111   6.144
37145SOL    HW113267   1.065   4.180   6.135
37145SOL    HW213268   0.991   4.075   6.056
37146SOL     OW13269   5.366   9.324   3.607
37146SOL    HW113270   5.342   9.232   3.616
37146SOL    HW213271   5.301   9.371   3.659
37147SOL     OW13272  11.105  11.204  10.161
37147SOL    HW113273  11.052  11.258  10.103
37147SOL    HW213274  11.183  11.182  10.110
37148SOL     OW13275   2.659   2.650  12.334
37148SOL    HW113276   2.604   2.728  12.327
37148SOL    HW213277   2.628   2.593  12.263
37149SOL     OW13278   7.540  13.780   4.089
37149SOL    HW113279   7.462  13.836   4.094
37149SOL    HW213280   7.514  13.708   4.032
37150SOL     OW13281   6.846  11.983   0.037
37150SOL    HW113282   6.907  12.053   0.060
37150SOL    HW213283   6.788  11.976   0.112
37151SOL     OW13284   9.985  12.385   0.955
37151SOL    HW113285   9.959  12.300   0.989
37151SOL    HW213286  10.032  12.365   0.874
37152SOL     OW13287  12.650  13.300   5.218
37152SOL    HW113288  12.621  13.357   5.288
37152SOL    HW213289  12.739  13.329   5.198
37153SOL     OW13290  13.504  11.424  11.593
37153SOL    HW113291  13.558  11.345  11.598
37153SOL    HW213292  13.443  11.407  11.521
37154SOL     OW13293   2.549  10.808  13.805
37154SOL    HW113294   2.631  10.808  13.756
37154SOL    HW213295   2.495  10.875  13.763
37155SOL     OW13296   8.975   4.274  11.828
37155SOL    HW113297   8.950   4.327  11.904
37155SOL    HW213298   9.065   4.247  11.846
37156SOL     OW13299   5.649   9.137   1.050
37156SOL    HW113300   5.592   9.151   1.125
37156SOL    HW213301   5.633   9.211   0.992
37157SOL     OW13302  13.794   8.541   1.789
37157SOL    HW113303  13.779   8.636   1.781
37157SOL    HW213304  13.714   8.502   1.754
37158SOL     OW13305   6.750   0.340  13.593
37158SOL    HW113306   6.813   0.309  13.527
37158SOL    HW213307   6.706   0.260  13.622
37159SOL     OW13308  11.210   5.150   3.391
37159SOL    HW113309  11.199   5.243   3.374
37159SOL    HW213310  11.121   5.114   3.389
37160SOL     OW13311  10.821   2.914  12.641
37160SOL    HW113312  10.899   2.912  12.585
37160SOL    HW213313  10.806   2.822  12.665
37161SOL     OW13314   9.458   6.743   5.997
37161SOL    HW113315   9.419   6.782   5.919
37161SOL    HW213316   9.499   6.816   6.043
37162SOL     OW13317  14.777   8.744   6.391
37162SOL    HW113318  14.710   8.683   6.420
37162SOL    HW213319  14.846   8.689   6.354
37163SOL     OW13320   2.690  12.683   9.687
37163SOL    HW113321   2.728  12.737   9.756
37163SOL    HW213322   2.597  12.704   9.689
37164SOL     OW13323   9.467   4.597   0.448
37164SOL    HW113324   9.394   4.535   0.436
37164SOL    HW213325   9.429   4.682   0.427
37165SOL     OW13326  13.354   2.432   3.129
37165SOL    HW113327  13.317   2.364   3.185
37165SOL    HW213328  13.445   2.405   3.117
37166SOL     OW13329   6.126   1.924  10.809
37166SOL    HW113330   6.064   1.919  10.882
37166SOL    HW213331   6.212   1.924  10.851
37167SOL     OW13332  14.676   6.737   4.652
37167SOL    HW113333  14.604   6.714   4.710
37167SOL    HW213334  14.655   6.825   4.620
37168SOL     OW13335   3.874  11.310   9.224
37168SOL    HW113336   3.945  11.286   9.165
37168SOL    HW213337   3.918  11.340   9.303
37169SOL     OW13338  14.224  11.473   0.894
37169SOL    HW113339  14.269  11.444   0.815
37169SOL    HW213340  14.291  11.521   0.943
37170SOL     OW13341  13.650  11.213  10.631
37170SOL    HW113342  13.700  11.284  10.590
37170SOL    HW213343  13.681  11.211  10.722
37171SOL     OW13344  11.792  14.786  13.792
37171SOL    HW113345  11.780  14.738  13.710
37171SOL    HW213346  11.753  14.872  13.775
37172SOL     OW13347  13.396  12.055   8.753
37172SOL    HW113348  13.401  11.969   8.711
37172SOL    HW213349  13.385  12.035   8.846
37173SOL     OW13350  10.156   9.011   6.469
37173SOL    HW113351  10.229   9.046   6.417
37173SOL    HW213352  10.153   8.918   6.446
37174SOL     OW13353  12.740   0.225   2.312
37174SOL    HW113354  12.761   0.217   2.405
37174SOL    HW213355  12.667   0.165   2.298
37175SOL     OW13356   1.256   1.709   9.017
37175SOL    HW113357   1.189   1.641   9.031
37175SOL    HW213358   1.270   1.709   8.922
37176SOL     OW13359  13.672   5.002  11.580
37176SOL    HW113360  13.629   5.033  11.501
37176SOL    HW213361  13.697   4.911  11.561
37177SOL     OW13362   1.427   9.808  12.453
37177SOL    HW113363   1.387   9.721  12.465
37177SOL    HW213364   1.372   9.850  12.386
37178SOL     OW13365  10.247  12.917   2.971
37178SOL    HW113366  10.310  12.869   2.919
37178SOL    HW213367  10.291  12.932   3.055
37179SOL     OW13368   3.933   6.965  11.972
37179SOL    HW113369   3.956   6.935  11.884
37179SOL    HW213370   4.016   6.963  12.020
37180SOL     OW13371   1.422  12.589   4.716
37180SOL    HW113372   1.331  12.601   4.743
37180SOL    HW213373   1.474  12.616   4.792
37181SOL     OW13374  13.000  10.669  12.467
37181SOL    HW113375  12.986  10.576  12.453
37181SOL    HW213376  13.095  10.681  12.457
37182SOL     OW13377  10.312   8.886   0.456
37182SOL    HW113378  10.273   8.941   0.388
37182SOL    HW213379  10.354   8.815   0.408
37183SOL     OW13380   8.632   4.513   1.135
37183SOL    HW113381   8.545   4.509   1.175
37183SOL    HW213382   8.690   4.541   1.205
37184SOL     OW13383   9.332   0.272  12.775
37184SOL    HW113384   9.251   0.224  12.789
37184SOL    HW213385   9.323   0.351  12.827
37185SOL     OW13386   0.020  11.914   7.391
37185SOL    HW113387  14.877  11.905   7.483
37185SOL    HW213388  14.837  11.975   7.355
37186SOL     OW13389   8.483   1.605  12.503
37186SOL    HW113390   8.469   1.590  12.596
37186SOL    HW213391   8.490   1.517  12.466
37187SOL     OW13392   4.749  13.597  13.379
37187SOL    HW113393   4.739  13.687  13.349
37187SOL    HW213394   4.816  13.602  13.448
37188SOL     OW13395  10.199  11.321   1.054
37188SOL    HW113396  10.179  11.410   1.026
37188SOL    HW213397  10.255  11.286   0.986
37189SOL     OW13398   4.408   9.972   9.049
37189SOL    HW113399   4.374   9.927   8.971
37189SOL    HW213400   4.503   9.959   9.044
37190SOL     OW13401   0.827   0.514   7.150
37190SOL    HW113402   0.883   0.438   7.163
37190SOL    HW213403   0.780   0.496   7.069
37191SOL     OW13404   7.619   8.254  14.344
37191SOL    HW113405   7.572   8.325  14.301
37191SOL    HW213406   7.591   8.175  14.298
37192SOL     OW13407  12.686  14.266   5.814
37192SOL    HW113408  12.682  14.358   5.789
37192SOL    HW213409  12.778  14.242   5.804
37193SOL     OW13410   8.550   1.750   9.817
37193SOL    HW113411   8.611   1.702   9.761
37193SOL    HW213412   8.492   1.682   9.852
37194SOL     OW13413  11.952   2.348   7.991
37194SOL    HW113414  12.017   2.417   7.993
37194SOL    HW213415  11.926   2.342   7.899
37195SOL     OW13416   0.491  12.120   2.967
37195SOL    HW113417   0.528  12.108   3.055
37195SOL    HW213418   0.494  12.215   2.953
37196SOL     OW13419   8.080  13.179   8.255
37196SOL    HW113420   8.068  13.139   8.169
37196SOL    HW213421   8.143  13.249   8.241
37197SOL     OW13422  13.805  10.202  12.322
37197SOL    HW113423  13.773  10.158  12.401
37197SOL    HW213424  13.741  10.179  12.255
37198SOL     OW13425   6.812   6.006  13.437
37198SOL    HW113426   6.734   6.040  13.394
37198SOL    HW213427   6.780   5.936  13.495
37199SOL     OW13428  10.150   5.291   2.791
37199SOL    HW113429  10.153   5.204   2.830
37199SOL    HW213430  10.084   5.338   2.841
37200SOL     OW13431   2.775   5.590  10.149
37200SOL    HW113432   2.785   5.496  10.130
37200SOL    HW213433   2.745   5.628  10.067
37201SOL     OW13434  13.359   3.218  10.578
37201SOL    HW113435  13.434   3.273  10.558
37201SOL    HW213436  13.363   3.205  10.672
37202SOL     OW13437   2.111  14.674   7.052
37202SOL    HW113438   2.017  14.690   7.043
37202SOL    HW213439   2.118  14.579   7.061
37203SOL     OW13440   9.814   5.918   1.397
37203SOL    HW113441   9.781   5.839   1.354
37203SOL    HW213442   9.893   5.941   1.349
37204SOL     OW13443   0.634   4.958   8.549
37204SOL    HW113444   0.566   5.012   8.509
37204SOL    HW213445   0.607   4.868   8.533
37205SOL     OW13446   0.742   5.392  11.855
37205SOL    HW113447   0.658   5.437  11.841
37205SOL    HW213448   0.723   5.300  11.835
37206SOL     OW13449   1.925   8.364  12.692
37206SOL    HW113450   1.986   8.437  12.701
37206SOL    HW213451   1.974   8.288  12.724
37207SOL     OW13452   7.639  10.580  14.779
37207SOL    HW113453   7.571  10.518  14.807
37207SOL    HW213454   7.594  10.665  14.778
37208SOL     OW13455   2.577   0.098  12.004
37208SOL    HW113456   2.636   0.056  11.941
37208SOL    HW213457   2.609   0.068  12.089
37209SOL     OW13458  14.845   3.105   4.732
37209SOL    HW113459  14.784   3.120   4.804
37209SOL    HW213460   0.048   3.094   4.775
37210SOL     OW13461  13.829  10.013   8.284
37210SOL    HW113462  13.825  10.014   8.189
37210SOL    HW213463  13.792  10.098   8.310
37211SOL     OW13464   8.581   0.037   9.928
37211SOL    HW113465   8.669   0.010   9.955
37211SOL    HW213466   8.568   0.122   9.970
37212SOL     OW13467  13.587  13.939   3.208
37212SOL    HW113468  13.512  13.955   3.151
37212SOL    HW213469  13.554  13.879   3.275
37213SOL     OW13470   0.846  10.282   5.498
37213SOL    HW113471   0.803  10.360   5.462
37213SOL    HW213472   0.933  10.283   5.458
37214SOL     OW13473  11.998   6.480   7.977
37214SOL    HW113474  12.044   6.401   8.005
37214SOL    HW213475  12.064   6.530   7.928
37215SOL     OW13476   6.286  10.740   6.077
37215SOL    HW113477   6.239  10.663   6.045
37215SOL    HW213478   6.359  10.751   6.017
37216SOL     OW13479   4.990   0.264   7.200
37216SOL    HW113480   5.018   0.293   7.113
37216SOL    HW213481   5.022   0.174   7.207
37217SOL     OW13482   3.824   1.030  10.307
37217SOL    HW113483   3.786   1.048  10.221
37217SOL    HW213484   3.918   1.046  10.295
37218SOL     OW13485   6.677   4.411   3.130
37218SOL    HW113486   6.755   4.358   3.114
37218SOL    HW213487   6.609   4.348   3.153
37219SOL     OW13488  10.204   0.085   1.424
37219SOL    HW113489  10.193   0.144   1.498
37219SOL    HW213490  10.272   0.025   1.451
37220SOL     OW13491   1.048   5.969   3.182
37220SOL    HW113492   1.126   5.990   3.130
37220SOL    HW213493   1.054   6.025   3.259
37221SOL     OW13494   8.502   8.045   2.562
37221SOL    HW113495   8.564   8.057   2.490
37221SOL    HW213496   8.468   8.133   2.579
37222SOL     OW13497   3.090   7.929  11.615
37222SOL    HW113498   3.146   7.973  11.678
37222SOL    HW213499   3.087   7.838  11.645
37223SOL     OW13500   3.733   4.140   4.649
37223SOL    HW113501   3.793   4.214   4.638
37223SOL    HW213502   3.658   4.161   4.593
37224SOL     OW13503   5.530  13.906  10.679
37224SOL    HW113504   5.509  13.928  10.770
37224SOL    HW213505   5.571  13.819  10.684
37225SOL     OW13506  13.531   8.346  13.589
37225SOL    HW113507  13.579   8.426  13.610
37225SOL    HW213508  13.530   8.344  13.493
37226SOL     OW13509  11.251   2.482   0.946
37226SOL    HW113510  11.295   2.420   0.887
37226SOL    HW213511  11.158   2.476   0.923
37227SOL     OW13512   8.239   6.644  12.745
37227SOL    HW113513   8.264   6.658  12.654
37227SOL    HW213514   8.178   6.715  12.765
37228SOL     OW13515   2.392   0.851   0.629
37228SOL    HW113516   2.486   0.861   0.642
37228SOL    HW213517   2.353   0.931   0.665
37229SOL     OW13518   4.756   6.095   2.251
37229SOL    HW113519   4.804   6.141   2.320
37229SOL    HW213520   4.763   6.002   2.275
37230SOL     OW13521   7.236   1.424   3.104
37230SOL    HW113522   7.191   1.391   3.026
37230SOL    HW213523   7.260   1.514   3.081
37231SOL     OW13524   7.669   1.541   8.542
37231SOL    HW113525   7.760   1.548   8.513
37231SOL    HW213526   7.673   1.493   8.624
37232SOL     OW13527   6.972   8.091  11.977
37232SOL    HW113528   6.940   8.116  12.064
37232SOL    HW213529   7.025   8.013  11.993
37233SOL     OW13530  12.419   8.818  12.587
37233SOL    HW113531  12.382   8.743  12.541
37233SOL    HW213532  12.514   8.808  12.576
37234SOL     OW13533   9.113   4.427   5.086
37234SOL    HW113534   9.023   4.457   5.098
37234SOL    HW213535   9.156   4.446   5.169
37235SOL     OW13536  10.005   3.511   8.128
37235SOL    HW113537   9.995   3.496   8.222
37235SOL    HW213538   9.915   3.511   8.095
37236SOL     OW13539  13.603   3.172   0.044
37236SOL    HW113540  13.512   3.173   0.072
37236SOL    HW213541  13.652   3.158   0.125
37237SOL     OW13542  14.288  14.679   5.128
37237SOL    HW113543  14.294  14.757   5.182
37237SOL    HW213544  14.352  14.618   5.165
37238SOL     OW13545   8.015   1.441  11.747
37238SOL    HW113546   7.927   1.430  11.710
37238SOL    HW213547   8.069   1.378  11.699
37239SOL     OW13548   4.565  11.995   2.745
37239SOL    HW113549   4.508  11.918   2.745
37239SOL    HW213550   4.529  12.051   2.677
37240SOL     OW13551  10.812   5.636   8.790
37240SOL    HW113552  10.732   5.685   8.807
37240SOL    HW213553  10.785   5.544   8.796
37241SOL     OW13554   4.487  12.871   4.660
37241SOL    HW113555   4.505  12.819   4.738
37241SOL    HW213556   4.539  12.951   4.671
37242SOL     OW13557  10.593  11.847  14.754
37242SOL    HW113558  10.672  11.833  14.806
37242SOL    HW213559  10.579  11.941  14.756
37243SOL     OW13560   7.290   2.321   0.051
37243SOL    HW113561   7.284   2.231   0.017
37243SOL    HW213562   7.344   2.367  14.868
37244SOL     OW13563  10.227   7.234   1.021
37244SOL    HW113564  10.172   7.162   1.053
37244SOL    HW213565  10.316   7.202   1.033
37245SOL     OW13566   5.291   6.417   2.343
37245SOL    HW113567   5.343   6.409   2.423
37245SOL    HW213568   5.223   6.481   2.365
37246SOL     OW13569   5.432  10.854  11.458
37246SOL    HW113570   5.422  10.948  11.470
37246SOL    HW213571   5.357  10.816  11.504
37247SOL     OW13572   8.121   3.827   4.518
37247SOL    HW113573   8.215   3.832   4.534
37247SOL    HW213574   8.100   3.734   4.528
37248SOL     OW13575   6.644   6.051  12.415
37248SOL    HW113576   6.609   6.101  12.341
37248SOL    HW213577   6.732   6.087  12.429
37249SOL     OW13578   3.730   7.735  14.312
37249SOL    HW113579   3.639   7.758  14.330
37249SOL    HW213580   3.762   7.696  14.394
37250SOL     OW13581  14.404   6.519  11.380
37250SOL    HW113582  14.473   6.516  11.446
37250SOL    HW213583  14.399   6.429  11.346
37251SOL     OW13584  12.378   8.412  14.588
37251SOL    HW113585  12.361   8.341  14.650
37251SOL    HW213586  12.348   8.491  14.634
37252SOL     OW13587  14.203  10.184   7.293
37252SOL    HW113588  14.258  10.207   7.367
37252SOL    HW213589  14.148  10.112   7.325
37253SOL     OW13590   5.671   7.951   2.955
37253SOL    HW113591   5.631   7.864   2.959
37253SOL    HW213592   5.606   8.009   2.994
37254SOL     OW13593   3.551   3.420   8.886
37254SOL    HW113594   3.505   3.457   8.810
37254SOL    HW213595   3.574   3.497   8.939
37255SOL     OW13596   1.019   8.666  12.825
37255SOL    HW113597   0.987   8.753  12.802
37255SOL    HW213598   1.113   8.671  12.814
37256SOL     OW13599   1.677  10.514   8.466
37256SOL    HW113600   1.652  10.531   8.375
37256SOL    HW213601   1.740  10.583   8.487
37257SOL     OW13602   1.709  10.272   5.906
37257SOL    HW113603   1.658  10.284   5.826
37257SOL    HW213604   1.789  10.228   5.877
37258SOL     OW13605  14.514   4.004  13.088
37258SOL    HW113606  14.474   3.970  13.008
37258SOL    HW213607  14.534   4.095  13.068
37259SOL     OW13608   2.851   6.326   4.661
37259SOL    HW113609   2.868   6.318   4.567
37259SOL    HW213610   2.758   6.348   4.667
37260SOL     OW13611   8.364   3.219  14.731
37260SOL    HW113612   8.432   3.183  14.675
37260SOL    HW213613   8.394   3.201  14.820
37261SOL     OW13614  14.313  14.719   6.043
37261SOL    HW113615  14.232  14.669   6.049
37261SOL    HW213616  14.335  14.739   6.134
37262SOL     OW13617  11.586   2.074   5.494
37262SOL    HW113618  11.600   2.146   5.432
37262SOL    HW213619  11.509   2.101   5.544
37263SOL     OW13620   9.539  12.334   3.890
37263SOL    HW113621   9.469  12.295   3.838
37263SOL    HW213622   9.561  12.267   3.955
37264SOL     OW13623   1.372  10.622   7.888
37264SOL    HW113624   1.410  10.556   7.830
37264SOL    HW213625   1.443  10.646   7.948
37265SOL     OW13626   6.613  10.855   2.898
37265SOL    HW113627   6.524  10.825   2.918
37265SOL    HW213628   6.653  10.870   2.984
37266SOL     OW13629   0.899   5.922   4.816
37266SOL    HW113630   0.897   5.836   4.857
37266SOL    HW213631   0.980   5.923   4.764
37267SOL     OW13632   5.667  11.059   9.472
37267SOL    HW113633   5.636  10.978   9.430
37267SOL    HW213634   5.595  11.120   9.462
37268SOL     OW13635   5.164  11.902   9.791
37268SOL    HW113636   5.172  11.988   9.834
37268SOL    HW213637   5.246  11.857   9.810
37269SOL     OW13638   2.086  14.452  11.130
37269SOL    HW113639   1.993  14.442  11.146
37269SOL    HW213640   2.092  14.512  11.056
37270SOL     OW13641   1.398  14.126   2.900
37270SOL    HW113642   1.377  14.034   2.884
37270SOL    HW213643   1.493  14.131   2.887
37271SOL     OW13644   8.473   5.920   0.938
37271SOL    HW113645   8.439   5.951   1.023
37271SOL    HW213646   8.565   5.902   0.954
37272SOL     OW13647   6.234   7.323   3.155
37272SOL    HW113648   6.205   7.273   3.232
37272SOL    HW213649   6.219   7.414   3.179
37273SOL     OW13650   2.622   2.017   2.737
37273SOL    HW113651   2.699   1.969   2.705
37273SOL    HW213652   2.554   1.951   2.745
37274SOL     OW13653  13.226   0.041   4.863
37274SOL    HW113654  13.254   0.064   4.775
37274SOL    HW213655  13.273  14.841   4.882
37275SOL     OW13656   8.437   0.183   6.138
37275SOL    HW113657   8.342   0.186   6.129
37275SOL    HW213658   8.460   0.259   6.190
37276SOL     OW13659   0.177  12.886  10.567
37276SOL    HW113660   0.190  12.961  10.510
37276SOL    HW213661   0.242  12.897  10.636
37277SOL     OW13662   8.589   8.742  11.731
37277SOL    HW113663   8.633   8.662  11.702
37277SOL    HW213664   8.642   8.775  11.803
37278SOL     OW13665   6.690   0.733   1.965
37278SOL    HW113666   6.778   0.747   2.001
37278SOL    HW213667   6.699   0.656   1.909
37279SOL     OW13668   9.574  11.915  14.092
37279SOL    HW113669   9.632  11.963  14.150
37279SOL    HW213670   9.487  11.950  14.110
37280SOL     OW13671  14.199   1.967  10.336
37280SOL    HW113672  14.111   1.950  10.303
37280SOL    HW213673  14.238   1.881  10.348
37281SOL     OW13674   2.198  13.720   7.263
37281SOL    HW113675   2.120  13.775   7.262
37281SOL    HW213676   2.259  13.763   7.203
37282SOL     OW13677  13.007   9.609   1.561
37282SOL    HW113678  13.006   9.633   1.654
37282SOL    HW213679  12.917   9.580   1.543
37283SOL     OW13680  13.941   6.133  10.397
37283SOL    HW113681  13.991   6.131  10.315
37283SOL    HW213682  13.852   6.158  10.369
37284SOL     OW13683   6.662  14.146   4.605
37284SOL    HW113684   6.729  14.080   4.587
37284SOL    HW213685   6.582  14.109   4.568
37285SOL     OW13686   0.549   0.472  10.726
37285SOL    HW113687   0.491   0.529  10.676
37285SOL    HW213688   0.634   0.516  10.722
37286SOL     OW13689  10.442   5.168  10.306
37286SOL    HW113690  10.378   5.148  10.375
37286SOL    HW213691  10.437   5.263  10.295
37287SOL     OW13692  14.127   4.728  14.436
37287SOL    HW113693  14.099   4.757  14.349
37287SOL    HW213694  14.221   4.710  14.426
37288SOL     OW13695   8.190  10.507   8.751
37288SOL    HW113696   8.247  10.529   8.677
37288SOL    HW213697   8.134  10.437   8.718
37289SOL     OW13698   1.857  10.352  10.534
37289SOL    HW113699   1.892  10.414  10.470
37289SOL    HW213700   1.769  10.332  10.503
37290SOL     OW13701   0.462  12.417   7.067
37290SOL    HW113702   0.516  12.347   7.030
37290SOL    HW213703   0.411  12.450   6.993
37291SOL     OW13704   4.619  12.870   7.037
37291SOL    HW113705   4.631  12.784   6.996
37291SOL    HW213706   4.705  12.912   7.029
37292SOL     OW13707   1.552  13.759   3.962
37292SOL    HW113708   1.555  13.839   3.909
37292SOL    HW213709   1.467  13.763   4.005
37293SOL     OW13710   8.286   7.042   4.054
37293SOL    HW113711   8.380   7.046   4.067
37293SOL    HW213712   8.265   6.948   4.061
37294SOL     OW13713  13.220   1.705  11.597
37294SOL    HW113714  13.309   1.721  11.626
37294SOL    HW213715  13.169   1.694  11.677
37295SOL     OW13716   6.722  13.161   4.267
37295SOL    HW113717   6.711  13.235   4.327
37295SOL    HW213718   6.741  13.086   4.323
37296SOL     OW13719  11.432   4.382   6.083
37296SOL    HW113720  11.375   4.435   6.026
37296SOL    HW213721  11.461   4.310   6.027
37297SOL     OW13722   3.672  11.098   6.077
37297SOL    HW113723   3.718  11.053   6.147
37297SOL    HW213724   3.663  11.032   6.008
37298SOL     OW13725  14.775   7.234   4.850
37298SOL    HW113726  14.750   7.186   4.929
37298SOL    HW213727  14.784   7.325   4.880
37299SOL     OW13728  11.858   0.660   8.590
37299SOL    HW113729  11.934   0.602   8.587
37299SOL    HW213730  11.819   0.653   8.502
37300SOL     OW13731   2.399   9.096   2.408
37300SOL    HW113732   2.389   9.160   2.337
37300SOL    HW213733   2.332   9.120   2.472
37301SOL     OW13734  12.017   6.741  11.646
37301SOL    HW113735  12.020   6.794  11.567
37301SOL    HW213736  12.109   6.725  11.668
37302SOL     OW13737   1.050   2.439   6.349
37302SOL    HW113738   0.984   2.389   6.302
37302SOL    HW213739   1.120   2.453   6.286
37303SOL     OW13740   2.563   8.572  13.134
37303SOL    HW113741   2.615   8.647  13.104
37303SOL    HW213742   2.593   8.498  13.081
37304SOL     OW13743   2.194  13.542   0.883
37304SOL    HW113744   2.123  13.602   0.861
37304SOL    HW213745   2.234  13.520   0.799
37305SOL     OW13746   2.503   5.566   0.908
37305SOL    HW113747   2.563   5.510   0.859
37305SOL    HW213748   2.459   5.507   0.969
37306SOL     OW13749  10.953   3.056   3.514
37306SOL    HW113750  11.047   3.073   3.509
37306SOL    HW213751  10.939   2.978   3.460
37307SOL     OW13752  10.509   4.973   0.989
37307SOL    HW113753  10.552   5.012   0.913
37307SOL    HW213754  10.580   4.929   1.037
37308SOL     OW13755   3.035   5.585   3.964
37308SOL    HW113756   3.026   5.679   3.950
37308SOL    HW213757   3.105   5.577   4.029
37309SOL     OW13758   1.978   6.947   5.263
37309SOL    HW113759   2.049   7.008   5.284
37309SOL    HW213760   1.904   7.004   5.240
37310SOL     OW13761  11.913   6.245  10.619
37310SOL    HW113762  11.891   6.281  10.705
37310SOL    HW213763  11.909   6.150  10.631
37311SOL     OW13764   7.540  10.619   2.937
37311SOL    HW113765   7.540  10.576   2.851
37311SOL    HW213766   7.614  10.680   2.933
37312SOL     OW13767  14.774   3.581   2.907
37312SOL    HW113768  14.836   3.649   2.879
37312SOL    HW213769  14.805   3.557   2.995
37313SOL     OW13770   6.225   7.817   7.332
37313SOL    HW113771   6.147   7.836   7.384
37313SOL    HW213772   6.282   7.892   7.346
37314SOL     OW13773  14.220   0.226  10.252
37314SOL    HW113774  14.170   0.222  10.170
37314SOL    HW213775  14.157   0.256  10.317
37315SOL     OW13776  11.127   2.295   8.501
37315SOL    HW113777  11.036   2.321   8.488
37315SOL    HW213778  11.126   2.200   8.503
37316SOL     OW13779  13.711  12.823   9.513
37316SOL    HW113780  13.722  12.915   9.489
37316SOL    HW213781  13.702  12.825   9.609
37317SOL     OW13782   0.013  12.444   8.042
37317SOL    HW113783  14.807  12.474   8.068
37317SOL    HW213784   0.034  12.375   8.105
37318SOL     OW13785   6.204   8.901   3.752
37318SOL    HW113786   6.254   8.939   3.680
37318SOL    HW213787   6.253   8.822   3.776
37319SOL     OW13788   7.853  10.310  10.934
37319SOL    HW113789   7.852  10.353  10.848
37319SOL    HW213790   7.761  10.289  10.951
37320SOL     OW13791   9.894  11.443   2.935
37320SOL    HW113792   9.879  11.348   2.935
37320SOL    HW213793   9.846  11.474   2.858
37321SOL     OW13794  10.688   9.407  14.319
37321SOL    HW113795  10.750   9.359  14.264
37321SOL    HW213796  10.726   9.405  14.406
37322SOL     OW13797   0.968  14.315   5.640
37322SOL    HW113798   1.029  14.318   5.566
37322SOL    HW213799   0.983  14.396   5.688
37323SOL     OW13800   2.283  11.995  12.270
37323SOL    HW113801   2.327  12.047  12.338
37323SOL    HW213802   2.301  11.904  12.295
37324SOL     OW13803  14.073   4.194  14.766
37324SOL    HW113804  14.157   4.226  14.733
37324SOL    HW213805  14.036   4.146  14.692
37325SOL     OW13806   9.098   5.694  12.465
37325SOL    HW113807   9.047   5.642  12.526
37325SOL    HW213808   9.168   5.636  12.435
37326SOL     OW13809   4.767   7.256   5.388
37326SOL    HW113810   4.823   7.207   5.448
37326SOL    HW213811   4.770   7.207   5.306
37327SOL     OW13812   8.335   4.672  13.134
37327SOL    HW113813   8.271   4.741  13.151
37327SOL    HW213814   8.282   4.595  13.111
37328SOL     OW13815   1.616  10.324   8.634
37328SOL    HW113816   1.700  10.293   8.668
37328SOL    HW213817   1.638  10.400   8.580
37329SOL     OW13818  10.857  13.087  10.957
37329SOL    HW113819  10.926  13.118  11.015
37329SOL    HW213820  10.885  12.998  10.933
37330SOL     OW13821   8.853   5.391   8.159
37330SOL    HW113822   8.784   5.425   8.102
37330SOL    HW213823   8.847   5.296   8.150
37331SOL     OW13824  12.643   5.624   4.044
37331SOL    HW113825  12.662   5.701   4.098
37331SOL    HW213826  12.661   5.550   4.102
37332SOL     OW13827   0.121  10.654  12.601
37332SOL    HW113828   0.096  10.701  12.681
37332SOL    HW213829   0.087  10.708  12.530
37333SOL     OW13830   9.234   5.216  14.335
37333SOL    HW113831   9.150   5.240  14.375
37333SOL    HW213832   9.237   5.121  14.342
37334SOL     OW13833   6.603  12.178   1.946
37334SOL    HW113834   6.697  12.192   1.933
37334SOL    HW213835   6.562  12.233   1.880
37335SOL     OW13836   8.349   1.641   2.575
37335SOL    HW113837   8.418   1.602   2.521
37335SOL    HW213838   8.315   1.567   2.626
37336SOL     OW13839  10.669  13.102   3.123
37336SOL    HW113840  10.681  13.137   3.035
37336SOL    HW213841  10.635  13.175   3.174
37337SOL     OW13842  11.963  13.046  10.015
37337SOL    HW113843  12.025  13.062   9.943
37337SOL    HW213844  11.879  13.033   9.972
37338SOL     OW13845   0.454   6.826  10.490
37338SOL    HW113846   0.414   6.883  10.425
37338SOL    HW213847   0.425   6.861  10.574
37339SOL     OW13848   8.732  13.142  12.206
37339SOL    HW113849   8.808  13.112  12.157
37339SOL    HW213850   8.763  13.150  12.296
37340SOL     OW13851   2.303  14.214  14.438
37340SOL    HW113852   2.248  14.276  14.388
37340SOL    HW213853   2.282  14.129  14.401
37341SOL     OW13854   2.944   5.918  13.459
37341SOL    HW113855   2.870   5.939  13.515
37341SOL    HW213856   2.940   5.982  13.389
37342SOL     OW13857   7.836  12.326  13.541
37342SOL    HW113858   7.931  12.334  13.532
37342SOL    HW213859   7.819  12.342  13.633
37343SOL     OW13860   0.780  14.435  11.564
37343SOL    HW113861   0.723  14.358  11.569
37343SOL    HW213862   0.719  14.509  11.565
37344SOL     OW13863   3.900   0.870  14.313
37344SOL    HW113864   3.942   0.784  14.314
37344SOL    HW213865   3.868   0.881  14.224
37345SOL     OW13866   5.776  13.728  11.307
37345SOL    HW113867   5.773  13.820  11.332
37345SOL    HW213868   5.687  13.695  11.324
37346SOL     OW13869  14.773   6.055  10.156
37346SOL    HW113870  14.838   6.023  10.219
37346SOL    HW213871  14.809   6.138  10.125
37347SOL     OW13872   4.106   9.881   7.148
37347SOL    HW113873   4.124   9.833   7.067
37347SOL    HW213874   4.181   9.941   7.156
37348SOL     OW13875   1.147   8.305   8.187
37348SOL    HW113876   1.243   8.313   8.189
37348SOL    HW213877   1.122   8.301   8.279
37349SOL     OW13878   5.268  14.236  13.606
37349SOL    HW113879   5.363  14.227  13.608
37349SOL    HW213880   5.235  14.149  13.629
37350SOL     OW13881   4.460  10.244   4.909
37350SOL    HW113882   4.425  10.179   4.970
37350SOL    HW213883   4.462  10.325   4.959
37351SOL     OW13884   3.795   7.137   2.353
37351SOL    HW113885   3.736   7.172   2.286
37351SOL    HW213886   3.879   7.126   2.308
37352SOL     OW13887   0.206   5.142   3.876
37352SOL    HW113888   0.228   5.207   3.943
37352SOL    HW213889   0.224   5.186   3.793
37353SOL     OW13890  12.159   1.129   5.978
37353SOL    HW113891  12.127   1.156   5.892
37353SOL    HW213892  12.091   1.157   6.039
37354SOL     OW13893   8.994   6.715   4.608
37354SOL    HW113894   9.060   6.676   4.664
37354SOL    HW213895   8.937   6.764   4.668
37355SOL     OW13896   0.865  12.070   3.368
37355SOL    HW113897   0.879  12.111   3.453
37355SOL    HW213898   0.817  11.990   3.386
37356SOL     OW13899  12.235   9.098   4.907
37356SOL    HW113900  12.229   9.028   4.842
37356SOL    HW213901  12.307   9.153   4.877
37357SOL     OW13902   4.747   2.214   5.656
37357SOL    HW113903   4.730   2.208   5.750
37357SOL    HW213904   4.726   2.305   5.634
37358SOL     OW13905   5.326   2.202   4.370
37358SOL    HW113906   5.242   2.158   4.386
37358SOL    HW213907   5.302   2.290   4.341
37359SOL     OW13908   1.286   6.900   5.196
37359SOL    HW113909   1.361   6.865   5.147
37359SOL    HW213910   1.250   6.825   5.242
37360SOL     OW13911   9.650   8.671   9.711
37360SOL    HW113912   9.632   8.731   9.639
37360SOL    HW213913   9.732   8.702   9.749
37361SOL     OW13914  10.272   9.278   3.528
37361SOL    HW113915  10.194   9.223   3.530
37361SOL    HW213916  10.240   9.364   3.555
37362SOL     OW13917   6.414   0.754  13.270
37362SOL    HW113918   6.418   0.781  13.362
37362SOL    HW213919   6.505   0.742  13.244
37363SOL     OW13920   9.277  12.193   2.947
37363SOL    HW113921   9.284  12.106   2.985
37363SOL    HW213922   9.325  12.250   3.008
37364SOL     OW13923  11.974  10.665   2.920
37364SOL    HW113924  11.928  10.747   2.907
37364SOL    HW213925  11.920  10.599   2.875
37365SOL     OW13926   7.054   7.131   8.521
37365SOL    HW113927   7.081   7.044   8.492
37365SOL    HW213928   7.032   7.121   8.613
37366SOL     OW13929   2.193   2.694  13.389
37366SOL    HW113930   2.158   2.618  13.342
37366SOL    HW213931   2.193   2.668  13.481
37367SOL     OW13932  12.649   7.183   5.363
37367SOL    HW113933  12.723   7.179   5.423
37367SOL    HW213934  12.622   7.275   5.365
37368SOL     OW13935   6.328   0.626   5.190
37368SOL    HW113936   6.415   0.641   5.152
37368SOL    HW213937   6.293   0.714   5.203
37369SOL     OW13938   8.953   9.724   2.569
37369SOL    HW113939   8.887   9.773   2.519
37369SOL    HW213940   8.941   9.753   2.659
37370SOL     OW13941   2.536   0.657   0.904
37370SOL    HW113942   2.447   0.668   0.870
37370SOL    HW213943   2.574   0.745   0.900
37371SOL     OW13944   0.819   3.473  12.875
37371SOL    HW113945   0.739   3.427  12.849
37371SOL    HW213946   0.873   3.475  12.796
37372SOL     OW13947   3.332  13.093   1.229
37372SOL    HW113948   3.296  13.023   1.284
37372SOL    HW213949   3.371  13.047   1.154
37373SOL     OW13950   0.472   2.328   8.794
37373SOL    HW113951   0.453   2.324   8.888
37373SOL    HW213952   0.536   2.259   8.779
37374SOL     OW13953  12.003   2.880   1.035
37374SOL    HW113954  12.090   2.913   1.056
37374SOL    HW213955  12.011   2.845   0.947
37375SOL     OW13956   1.132   4.615   3.736
37375SOL    HW113957   1.042   4.635   3.712
37375SOL    HW213958   1.154   4.538   3.685
37376SOL     OW13959   0.383   7.369   1.885
37376SOL    HW113960   0.444   7.442   1.881
37376SOL    HW213961   0.403   7.317   1.807
37377SOL     OW13962   2.828  12.624   3.998
37377SOL    HW113963   2.878  12.608   4.078
37377SOL    HW213964   2.892  12.659   3.937
37378SOL     OW13965   1.948   9.857   9.152
37378SOL    HW113966   1.890   9.783   9.173
37378SOL    HW213967   1.907   9.898   9.076
37379SOL     OW13968   6.597   5.784   8.105
37379SOL    HW113969   6.548   5.808   8.184
37379SOL    HW213970   6.665   5.851   8.097
37380SOL     OW13971  12.165  10.745   4.858
37380SOL    HW113972  12.216  10.726   4.779
37380SOL    HW213973  12.229  10.748   4.929
37381SOL     OW13974  10.045   9.836  13.630
37381SOL    HW113975  10.074   9.831  13.721
37381SOL    HW213976  10.033   9.745  13.603
37382SOL     OW13977   0.506   2.586   1.134
37382SOL    HW113978   0.586   2.637   1.151
37382SOL    HW213979   0.485   2.604   1.042
37383SOL     OW13980  12.900   7.053  11.424
37383SOL    HW113981  12.957   7.022  11.353
37383SOL    HW213982  12.813   7.052  11.386
37384SOL     OW13983  11.971  11.369   3.524
37384SOL    HW113984  11.957  11.460   3.495
37384SOL    HW213985  11.889  11.345   3.567
37385SOL     OW13986   7.111   7.306   3.801
37385SOL    HW113987   7.059   7.364   3.744
37385SOL    HW213988   7.057   7.294   3.878
37386SOL     OW13989  12.951   9.784  14.128
37386SOL    HW113990  13.012   9.816  14.062
37386SOL    HW213991  12.872   9.760  14.079
37387SOL     OW13992   6.939   2.792   4.746
37387SOL    HW113993   6.873   2.861   4.734
37387SOL    HW213994   6.967   2.801   4.837
37388SOL     OW13995  13.601  12.052   9.033
37388SOL    HW113996  13.596  12.147   9.046
37388SOL    HW213997  13.651  12.042   8.952
37389SOL     OW13998  14.774   4.557  11.937
37389SOL    HW113999  14.780   4.652  11.947
37389SOL    HW214000  14.693   4.533  11.981
37390SOL     OW14001   9.179  13.076   2.260
37390SOL    HW114002   9.201  13.017   2.332
37390SOL    HW214003   9.207  13.029   2.182
37391SOL     OW14004   1.970   7.625   2.032
37391SOL    HW114005   2.035   7.696   2.030
37391SOL    HW214006   2.022   7.546   2.045
37392SOL     OW14007   1.720   6.292  13.978
37392SOL    HW114008   1.809   6.257  13.983
37392SOL    HW214009   1.674   6.231  13.921
37393SOL     OW14010  11.098  14.301  13.209
37393SOL    HW114011  11.110  14.217  13.165
37393SOL    HW214012  11.110  14.366  13.140
37394SOL     OW14013   6.382   8.344  13.858
37394SOL    HW114014   6.323   8.268  13.853
37394SOL    HW214015   6.345   8.408  13.798
37395SOL     OW14016  13.478  10.787  12.395
37395SOL    HW114017  13.439  10.740  12.322
37395SOL    HW214018  13.474  10.879  12.368
37396SOL     OW14019   5.532   4.740   0.329
37396SOL    HW114020   5.523   4.834   0.313
37396SOL    HW214021   5.445   4.705   0.313
37397SOL     OW14022   2.125  13.188   9.480
37397SOL    HW114023   2.065  13.127   9.523
37397SOL    HW214024   2.133  13.261   9.540
37398SOL     OW14025  14.183   5.730  11.151
37398SOL    HW114026  14.198   5.824  11.158
37398SOL    HW214027  14.099   5.723  11.106
37399SOL     OW14028   2.228  11.009   1.258
37399SOL    HW114029   2.248  11.097   1.228
37399SOL    HW214030   2.173  11.021   1.335
37400SOL     OW14031   5.778  11.278   5.161
37400SOL    HW114032   5.787  11.371   5.139
37400SOL    HW214033   5.696  11.252   5.118
37401SOL     OW14034   3.207   2.734   6.973
37401SOL    HW114035   3.261   2.657   6.986
37401SOL    HW214036   3.267   2.808   6.985
37402SOL     OW14037   3.477   3.177   0.119
37402SOL    HW114038   3.545   3.216   0.064
37402SOL    HW214039   3.418   3.134   0.058
37403SOL     OW14040   5.042   0.585   7.528
37403SOL    HW114041   5.036   0.497   7.492
37403SOL    HW214042   4.962   0.595   7.579
37404SOL     OW14043   2.329   8.731  12.913
37404SOL    HW114044   2.240   8.753  12.941
37404SOL    HW214045   2.384   8.752  12.988
37405SOL     OW14046   4.913   4.187   8.261
37405SOL    HW114047   4.901   4.277   8.233
37405SOL    HW214048   4.874   4.135   8.190
37406SOL     OW14049   2.513   9.000   7.760
37406SOL    HW114050   2.550   8.925   7.807
37406SOL    HW214051   2.547   9.076   7.807
37407SOL     OW14052   3.248  10.465   4.926
37407SOL    HW114053   3.168  10.421   4.953
37407SOL    HW214054   3.254  10.543   4.982
37408SOL     OW14055   2.785  11.122  14.210
37408SOL    HW114056   2.778  11.079  14.296
37408SOL    HW214057   2.751  11.057  14.148
37409SOL     OW14058   2.156   9.247   0.944
37409SOL    HW114059   2.205   9.296   1.010
37409SOL    HW214060   2.211   9.170   0.927
37410SOL     OW14061   1.804   9.910   0.452
37410SOL    HW114062   1.831   9.896   0.362
37410SOL    HW214063   1.798  10.005   0.461
37411SOL     OW14064  12.811   0.272   1.267
37411SOL    HW114065  12.727   0.227   1.278
37411SOL    HW214066  12.846   0.279   1.356
37412SOL     OW14067   3.248   5.433   2.949
37412SOL    HW114068   3.290   5.406   2.868
37412SOL    HW214069   3.201   5.514   2.927
37413SOL     OW14070  10.406  12.674   7.379
37413SOL    HW114071  10.470  12.656   7.448
37413SOL    HW214072  10.328  12.623   7.404
37414SOL     OW14073   0.702  11.529  12.577
37414SOL    HW114074   0.691  11.439  12.609
37414SOL    HW214075   0.775  11.564  12.627
37415SOL     OW14076   2.660   8.419   2.257
37415SOL    HW114077   2.641   8.426   2.351
37415SOL    HW214078   2.596   8.357   2.224
37416SOL     OW14079  12.572  12.415   5.123
37416SOL    HW114080  12.551  12.322   5.119
37416SOL    HW214081  12.488  12.459   5.106
37417SOL     OW14082   3.855   6.686   4.150
37417SOL    HW114083   3.805   6.614   4.112
37417SOL    HW214084   3.937   6.646   4.179
37418SOL     OW14085  14.239   1.610  10.361
37418SOL    HW114086  14.149   1.635  10.382
37418SOL    HW214087  14.246   1.520  10.393
37419SOL     OW14088   2.799  14.182   1.118
37419SOL    HW114089   2.800  14.124   1.042
37419SOL    HW214090   2.710  14.218   1.120
37420SOL     OW14091   2.294   3.377  11.958
37420SOL    HW114092   2.229   3.402  11.893
37420SOL    HW214093   2.365   3.337  11.907
37421SOL     OW14094   6.775  10.892  11.052
37421SOL    HW114095   6.791  10.821  11.114
37421SOL    HW214096   6.852  10.948  11.060
37422SOL     OW14097   6.219  10.617   9.924
37422SOL    HW114098   6.288  10.657   9.872
37422SOL    HW214099   6.161  10.689   9.947
37423SOL     OW14100   2.039  10.325   6.277
37423SOL    HW114101   2.055  10.367   6.192
37423SOL    HW214102   1.979  10.253   6.258
37424SOL     OW14103   2.836   0.671   2.367
37424SOL    HW114104   2.900   0.741   2.379
37424SOL    HW214105   2.838   0.653   2.273
37425SOL     OW14106   7.191   4.808   1.160
37425SOL    HW114107   7.228   4.749   1.225
37425SOL    HW214108   7.260   4.819   1.095
37426SOL     OW14109   5.289  12.361   6.689
37426SOL    HW114110   5.268  12.310   6.768
37426SOL    HW214111   5.204  12.382   6.651
37427SOL     OW14112   0.784   0.172   7.706
37427SOL    HW114113   0.848   0.153   7.637
37427SOL    HW214114   0.822   0.134   7.785
37428SOL     OW14115   9.042   7.736  10.456
37428SOL    HW114116   9.091   7.794  10.514
37428SOL    HW214117   9.059   7.770  10.368
37429SOL     OW14118   6.535  11.051  12.704
37429SOL    HW114119   6.541  11.142  12.674
37429SOL    HW214120   6.615  11.010  12.670
37430SOL     OW14121  12.587   8.172   7.393
37430SOL    HW114122  12.566   8.090   7.437
37430SOL    HW214123  12.617   8.230   7.462
37431SOL     OW14124  10.349   9.689   6.203
37431SOL    HW114125  10.380   9.656   6.119
37431SOL    HW214126  10.256   9.707   6.189
37432SOL     OW14127  10.865   0.018   8.277
37432SOL    HW114128  10.865  14.808   8.304
37432SOL    HW214129  10.822   0.064   8.350
37433SOL     OW14130   7.704  10.507   2.001
37433SOL    HW114131   7.748  10.468   2.077
37433SOL    HW214132   7.616  10.471   2.003
37434SOL     OW14133  10.843   1.572  10.322
37434SOL    HW114134  10.843   1.489  10.273
37434SOL    HW214135  10.751   1.589  10.340
37435SOL     OW14136  11.060  14.733  14.703
37435SOL    HW114137  11.015  14.815  14.686
37435SOL    HW214138  11.129  14.756  14.765
37436SOL     OW14139   5.186   8.206   3.411
37436SOL    HW114140   5.270   8.219   3.366
37436SOL    HW214141   5.198   8.125   3.461
37437SOL     OW14142   2.201   6.912   8.539
37437SOL    HW114143   2.237   6.840   8.487
37437SOL    HW214144   2.198   6.987   8.479
37438SOL     OW14145   2.131  10.567   1.896
37438SOL    HW114146   2.087  10.645   1.862
37438SOL    HW214147   2.093  10.554   1.982
37439SOL     OW14148   6.710   1.425  12.815
37439SOL    HW114149   6.658   1.345  12.825
37439SOL    HW214150   6.731   1.428  12.722
37440SOL     OW14151   0.480  11.285   0.636
37440SOL    HW114152   0.557  11.325   0.596
37440SOL    HW214153   0.416  11.279   0.566
37441SOL     OW14154   5.418   8.256  10.641
37441SOL    HW114155   5.380   8.306  10.713
37441SOL    HW214156   5.512   8.273  10.647
37442SOL     OW14157   5.564   3.164   5.450
37442SOL    HW114158   5.521   3.220   5.385
37442SOL    HW214159   5.634   3.120   5.401
37443SOL     OW14160   2.050  11.331  13.108
37443SOL    HW114161   2.007  11.416  13.111
37443SOL    HW214162   1.998  11.276  13.167
37444SOL     OW14163   8.540  14.219   8.116
37444SOL    HW114164   8.501  14.154   8.057
37444SOL    HW214165   8.526  14.303   8.072
37445SOL     OW14166  10.919   5.461  10.718
37445SOL    HW114167  11.006   5.424  10.730
37445SOL    HW214168  10.864   5.413  10.780
37446SOL     OW14169   7.056  12.334   2.170
37446SOL    HW114170   7.128  12.398   2.176
37446SOL    HW214171   7.095  12.252   2.201
37447SOL     OW14172   3.909   2.626   9.438
37447SOL    HW114173   3.990   2.667   9.408
37447SOL    HW214174   3.877   2.578   9.362
37448SOL     OW14175   9.766   6.534   9.222
37448SOL    HW114176   9.708   6.475   9.271
37448SOL    HW214177   9.789   6.485   9.144
37449SOL     OW14178  10.084   7.743   1.988
37449SOL    HW114179   9.996   7.705   1.991
37449SOL    HW214180  10.080   7.820   2.045
37450SOL     OW14181  10.748   4.951  11.685
37450SOL    HW114182  10.667   4.972  11.640
37450SOL    HW214183  10.810   4.933  11.615
37451SOL     OW14184   9.529   3.718   1.265
37451SOL    HW114185   9.571   3.686   1.185
37451SOL    HW214186   9.593   3.776   1.305
37452SOL     OW14187  14.473   9.669   4.141
37452SOL    HW114188  14.396   9.632   4.184
37452SOL    HW214189  14.504   9.600   4.083
37453SOL     OW14190   3.170  14.218  11.138
37453SOL    HW114191   3.253  14.175  11.119
37453SOL    HW214192   3.195  14.300  11.181
37454SOL     OW14193  10.684   3.305   0.851
37454SOL    HW114194  10.634   3.223   0.853
37454SOL    HW214195  10.728   3.309   0.936
37455SOL     OW14196   0.614  13.263  11.229
37455SOL    HW114197   0.668  13.197  11.271
37455SOL    HW214198   0.677  13.324  11.190
37456SOL     OW14199  13.910   3.441   2.186
37456SOL    HW114200  13.862   3.523   2.184
37456SOL    HW214201  13.868   3.390   2.256
37457SOL     OW14202  14.028  13.835   0.561
37457SOL    HW114203  13.934  13.853   0.567
37457SOL    HW214204  14.039  13.787   0.479
37458SOL     OW14205  12.298   3.874  12.427
37458SOL    HW114206  12.299   3.780  12.441
37458SOL    HW214207  12.389   3.898  12.412
37459SOL     OW14208  14.370   4.895   7.423
37459SOL    HW114209  14.295   4.843   7.451
37459SOL    HW214210  14.442   4.868   7.480
37460SOL     OW14211   7.623   6.675   9.386
37460SOL    HW114212   7.643   6.582   9.371
37460SOL    HW214213   7.532   6.685   9.358
37461SOL     OW14214   7.192   3.950   2.032
37461SOL    HW114215   7.266   3.919   1.981
37461SOL    HW214216   7.213   4.042   2.052
37462SOL     OW14217  11.998   5.694   4.153
37462SOL    HW114218  12.047   5.776   4.156
37462SOL    HW214219  11.942   5.703   4.075
37463SOL     OW14220   3.762   7.865   6.190
37463SOL    HW114221   3.748   7.866   6.284
37463SOL    HW214222   3.674   7.869   6.152
37464SOL     OW14223   0.793   0.462   6.891
37464SOL    HW114224   0.749   0.428   6.812
37464SOL    HW214225   0.807   0.554   6.871
37465SOL     OW14226   0.939   4.334   8.060
37465SOL    HW114227   0.933   4.362   7.968
37465SOL    HW214228   0.978   4.408   8.105
37466SOL     OW14229   3.530   9.406   8.808
37466SOL    HW114230   3.626   9.403   8.802
37466SOL    HW214231   3.513   9.424   8.900
37467SOL     OW14232   5.223  13.301   5.327
37467SOL    HW114233   5.273  13.364   5.378
37467SOL    HW214234   5.213  13.226   5.385
37468SOL     OW14235   7.984  13.854   8.990
37468SOL    HW114236   7.920  13.810   9.046
37468SOL    HW214237   7.977  13.811   8.905
37469SOL     OW14238  11.838  10.845  14.514
37469SOL    HW114239  11.758  10.828  14.564
37469SOL    HW214240  11.813  10.910  14.448
37470SOL     OW14241   7.451   5.904   7.897
37470SOL    HW114242   7.531   5.938   7.938
37470SOL    HW214243   7.429   5.826   7.948
37471SOL     OW14244  10.818  13.747  13.006
37471SOL    HW114245  10.814  13.722  13.098
37471SOL    HW214246  10.832  13.842  13.007
37472SOL     OW14247  11.315  14.254   2.679
37472SOL    HW114248  11.251  14.228   2.613
37472SOL    HW214249  11.267  14.313   2.737
37473SOL     OW14250   7.814   5.899  11.468
37473SOL    HW114251   7.829   5.971  11.529
37473SOL    HW214252   7.729   5.863  11.493
37474SOL     OW14253  12.703   3.345  10.101
37474SOL    HW114254  12.781   3.291  10.112
37474SOL    HW214255  12.685   3.343  10.007
37475SOL     OW14256  12.836   9.957   5.465
37475SOL    HW114257  12.839   9.863   5.483
37475SOL    HW214258  12.745   9.982   5.481
37476SOL     OW14259   5.415  13.318   1.538
37476SOL    HW114260   5.454  13.315   1.450
37476SOL    HW214261   5.381  13.407   1.546
37477SOL     OW14262   6.305   9.538  12.504
37477SOL    HW114263   6.228   9.586  12.535
37477SOL    HW214264   6.359   9.527  12.583
37478SOL     OW14265  10.547   7.455  10.128
37478SOL    HW114266  10.514   7.493  10.047
37478SOL    HW214267  10.591   7.374  10.100
37479SOL     OW14268  11.561   6.122  13.530
37479SOL    HW114269  11.477   6.080  13.551
37479SOL    HW214270  11.603   6.061  13.469
37480SOL     OW14271   4.501  13.386   4.206
37480SOL    HW114272   4.548  13.433   4.275
37480SOL    HW214273   4.543  13.414   4.125
37481SOL     OW14274   7.723   5.656  14.305
37481SOL    HW114275   7.688   5.580  14.258
37481SOL    HW214276   7.759   5.619  14.386
37482SOL     OW14277   3.309  12.519   2.962
37482SOL    HW114278   3.302  12.482   2.874
37482SOL    HW214279   3.274  12.607   2.954
37483SOL     OW14280   0.595   5.521  13.354
37483SOL    HW114281   0.557   5.485  13.273
37483SOL    HW214282   0.530   5.585  13.384
37484SOL     OW14283   7.945   7.780  10.140
37484SOL    HW114284   7.881   7.774  10.070
37484SOL    HW214285   7.920   7.859  10.189
37485SOL     OW14286   5.453   7.024   2.241
37485SOL    HW114287   5.495   6.970   2.174
37485SOL    HW214288   5.371   6.979   2.261
37486SOL     OW14289   9.646  14.577   6.753
37486SOL    HW114290   9.555  14.546   6.746
37486SOL    HW214291   9.646  14.634   6.830
37487SOL     OW14292  11.124  10.981  13.599
37487SOL    HW114293  11.205  11.028  13.615
37487SOL    HW214294  11.055  11.042  13.627
37488SOL     OW14295   1.552   6.007   8.136
37488SOL    HW114296   1.543   6.095   8.174
37488SOL    HW214297   1.573   6.023   8.044
37489SOL     OW14298   4.759   8.712   3.513
37489SOL    HW114299   4.775   8.619   3.501
37489SOL    HW214300   4.839   8.745   3.553
37490SOL     OW14301  10.566   3.720   1.514
37490SOL    HW114302  10.510   3.643   1.506
37490SOL    HW214303  10.549   3.753   1.602
37491SOL     OW14304   3.522   5.899   3.382
37491SOL    HW114305   3.458   5.830   3.398
37491SOL    HW214306   3.489   5.947   3.306
37492SOL     OW14307   1.246   1.336  11.045
37492SOL    HW114308   1.209   1.256  11.082
37492SOL    HW214309   1.194   1.353  10.967
37493SOL     OW14310   1.107   3.534   5.684
37493SOL    HW114311   1.130   3.540   5.777
37493SOL    HW214312   1.017   3.499   5.684
37494SOL     OW14313  10.630   3.286   1.917
37494SOL    HW114314  10.549   3.285   1.966
37494SOL    HW214315  10.693   3.241   1.973
37495SOL     OW14316  10.396  14.550   6.139
37495SOL    HW114317  10.440  14.570   6.221
37495SOL    HW214318  10.427  14.463   6.114
37496SOL     OW14319   0.264  14.807   9.800
37496SOL    HW114320   0.246  14.723   9.842
37496SOL    HW214321   0.359  14.810   9.790
37497SOL     OW14322   2.580   0.368  13.258
37497SOL    HW114323   2.664   0.334  13.288
37497SOL    HW214324   2.587   0.463  13.271
37498SOL     OW14325  12.630   6.773   1.649
37498SOL    HW114326  12.551   6.719   1.647
37498SOL    HW214327  12.611   6.844   1.587
37499SOL     OW14328  12.474   1.938   8.863
37499SOL    HW114329  12.565   1.936   8.835
37499SOL    HW214330  12.461   1.856   8.910
37500SOL     OW14331   7.480  11.498  13.477
37500SOL    HW114332   7.542  11.475  13.408
37500SOL    HW214333   7.534  11.540  13.545
37501SOL     OW14334   3.888   0.205   0.133
37501SOL    HW114335   3.870   0.192   0.226
37501SOL    HW214336   3.962   0.265   0.131
37502SOL     OW14337   1.567   4.153   9.430
37502SOL    HW114338   1.658   4.176   9.446
37502SOL    HW214339   1.556   4.160   9.335
37503SOL     OW14340   2.800  13.506   9.071
37503SOL    HW114341   2.790  13.415   9.098
37503SOL    HW214342   2.711  13.542   9.075
37504SOL     OW14343  13.134   7.564  13.996
37504SOL    HW114344  13.114   7.527  13.910
37504SOL    HW214345  13.052   7.559  14.044
37505SOL     OW14346   8.846   0.449  10.436
37505SOL    HW114347   8.829   0.398  10.357
37505SOL    HW214348   8.855   0.384  10.505
37506SOL     OW14349  12.797   3.924   4.571
37506SOL    HW114350  12.867   3.892   4.516
37506SOL    HW214351  12.722   3.934   4.512
37507SOL     OW14352   5.183  10.053   2.039
37507SOL    HW114353   5.253  10.024   1.980
37507SOL    HW214354   5.151   9.972   2.080
37508SOL     OW14355   9.886   2.442   1.995
37508SOL    HW114356   9.924   2.466   1.911
37508SOL    HW214357   9.949   2.474   2.060
37509SOL     OW14358   5.969  14.641   0.766
37509SOL    HW114359   5.937  14.694   0.839
37509SOL    HW214360   5.967  14.551   0.799
37510SOL     OW14361   9.056   7.782   2.775
37510SOL    HW114362   8.995   7.787   2.848
37510SOL    HW214363   9.016   7.835   2.706
37511SOL     OW14364   7.568   3.512   9.922
37511SOL    HW114365   7.583   3.521  10.016
37511SOL    HW214366   7.528   3.426   9.912
37512SOL     OW14367   6.809  13.963   6.274
37512SOL    HW114368   6.875  13.895   6.288
37512SOL    HW214369   6.808  14.012   6.356
37513SOL     OW14370   6.484   7.814   8.841
37513SOL    HW114371   6.527   7.739   8.801
37513SOL    HW214372   6.554   7.861   8.887
37514SOL     OW14373   9.041   6.720  12.011
37514SOL    HW114374   8.980   6.717  12.084
37514SOL    HW214375   9.011   6.650  11.953
37515SOL     OW14376  13.890   2.805  11.650
37515SOL    HW114377  13.924   2.822  11.738
37515SOL    HW214378  13.909   2.713  11.635
37516SOL     OW14379  12.961   1.878   5.737
37516SOL    HW114380  13.046   1.842   5.713
37516SOL    HW214381  12.970   1.972   5.723
37517SOL     OW14382  13.447   2.309   8.751
37517SOL    HW114383  13.427   2.344   8.838
37517SOL    HW214384  13.491   2.380   8.706
37518SOL     OW14385  11.909   2.418  11.491
37518SOL    HW114386  11.908   2.380  11.403
37518SOL    HW214387  11.970   2.363  11.540
37519SOL     OW14388   8.253   6.511  14.827
37519SOL    HW114389   8.300   6.575  14.774
37519SOL    HW214390   8.189   6.473  14.766
37520SOL     OW14391  13.225  12.210  11.027
37520SOL    HW114392  13.269  12.161  10.957
37520SOL    HW214393  13.153  12.154  11.054
37521SOL     OW14394   1.397   9.411   7.981
37521SOL    HW114395   1.472   9.367   7.940
37521SOL    HW214396   1.408   9.503   7.957
37522SOL     OW14397  14.614   4.215   3.378
37522SOL    HW114398  14.535   4.167   3.353
37522SOL    HW214399  14.646   4.254   3.296
37523SOL     OW14400   4.125  10.331   5.279
37523SOL    HW114401   4.124  10.236   5.265
37523SOL    HW214402   4.214  10.350   5.308
37524SOL     OW14403   5.927   0.222   8.520
37524SOL    HW114404   5.939   0.278   8.597
37524SOL    HW214405   5.834   0.199   8.521
37525SOL     OW14406  11.353   8.365   9.820
37525SOL    HW114407  11.333   8.279   9.781
37525SOL    HW214408  11.428   8.397   9.771
37526SOL     OW14409  12.439  13.008   7.990
37526SOL    HW114410  12.371  12.949   7.958
37526SOL    HW214411  12.497  12.953   8.041
37527SOL     OW14412   5.434   1.342   3.707
37527SOL    HW114413   5.412   1.349   3.615
37527SOL    HW214414   5.350   1.347   3.753
37528SOL     OW14415   7.346   4.831   5.420
37528SOL    HW114416   7.431   4.836   5.375
37528SOL    HW214417   7.298   4.908   5.389
37529SOL     OW14418  11.721  12.646   1.748
37529SOL    HW114419  11.742  12.552   1.743
37529SOL    HW214420  11.694  12.659   1.839
37530SOL     OW14421   5.389   1.021   1.743
37530SOL    HW114422   5.362   0.945   1.691
37530SOL    HW214423   5.306   1.058   1.776
37531SOL     OW14424   4.570  10.372   9.965
37531SOL    HW114425   4.571  10.451   9.912
37531SOL    HW214426   4.542  10.402  10.052
37532SOL     OW14427  11.442   7.671  11.612
37532SOL    HW114428  11.517   7.633  11.565
37532SOL    HW214429  11.370   7.666  11.550
37533SOL     OW14430   3.406  14.314   8.039
37533SOL    HW114431   3.422  14.266   8.120
37533SOL    HW214432   3.454  14.265   7.973
37534SOL     OW14433   8.309   6.219   9.420
37534SOL    HW114434   8.298   6.199   9.513
37534SOL    HW214435   8.244   6.164   9.376
37535SOL     OW14436   8.193   1.732  12.619
37535SOL    HW114437   8.231   1.788  12.551
37535SOL    HW214438   8.265   1.673  12.644
37536SOL     OW14439   5.008   5.791   4.590
37536SOL    HW114440   5.008   5.853   4.517
37536SOL    HW214441   5.002   5.705   4.548
37537SOL     OW14442   5.536  11.626   5.331
37537SOL    HW114443   5.462  11.582   5.373
37537SOL    HW214444   5.585  11.555   5.289
37538SOL     OW14445   8.229   5.968  10.483
37538SOL    HW114446   8.212   6.026  10.409
37538SOL    HW214447   8.263   6.026  10.551
37539SOL     OW14448   7.301   6.631   1.292
37539SOL    HW114449   7.287   6.640   1.386
37539SOL    HW214450   7.213   6.627   1.255
37540SOL     OW14451   1.679   7.672   3.472
37540SOL    HW114452   1.736   7.645   3.399
37540SOL    HW214453   1.667   7.592   3.523
37541SOL     OW14454   9.712  11.686   4.545
37541SOL    HW114455   9.733  11.608   4.493
37541SOL    HW214456   9.617  11.694   4.539
37542SOL     OW14457   4.923   8.259  11.883
37542SOL    HW114458   4.837   8.218  11.875
37542SOL    HW214459   4.942   8.291  11.794
37543SOL     OW14460  13.265   4.764   9.164
37543SOL    HW114461  13.329   4.756   9.235
37543SOL    HW214462  13.180   4.762   9.208
37544SOL     OW14463   8.837  10.018  13.517
37544SOL    HW114464   8.897  10.001  13.590
37544SOL    HW214465   8.751   9.990  13.549
37545SOL     OW14466   1.640   9.109   6.317
37545SOL    HW114467   1.650   9.171   6.388
37545SOL    HW214468   1.687   9.149   6.243
37546SOL     OW14469   3.096   5.350   5.024
37546SOL    HW114470   3.023   5.324   4.967
37546SOL    HW214471   3.064   5.429   5.067
37547SOL     OW14472   4.237   8.086  10.207
37547SOL    HW114473   4.329   8.067  10.226
37547SOL    HW214474   4.204   8.007  10.165
37548SOL     OW14475   5.049  14.358   5.300
37548SOL    HW114476   5.144  14.356   5.286
37548SOL    HW214477   5.034  14.294   5.370
37549SOL     OW14478  11.071   7.157   4.156
37549SOL    HW114479  11.034   7.205   4.231
37549SOL    HW214480  11.003   7.160   4.089
37550SOL     OW14481  10.658   2.035   7.152
37550SOL    HW114482  10.672   2.014   7.245
37550SOL    HW214483  10.563   2.048   7.145
37551SOL     OW14484  12.096  13.999   3.223
37551SOL    HW114485  12.115  13.953   3.305
37551SOL    HW214486  12.182  14.020   3.186
37552SOL     OW14487   2.675   0.808   2.775
37552SOL    HW114488   2.595   0.824   2.825
37552SOL    HW214489   2.645   0.787   2.687
37553SOL     OW14490   0.739   1.124   3.082
37553SOL    HW114491   0.764   1.067   3.154
37553SOL    HW214492   0.726   1.065   3.008
37554SOL     OW14493   6.818   4.040   9.869
37554SOL    HW114494   6.869   4.074   9.795
37554SOL    HW214495   6.878   3.981   9.915
37555SOL     OW14496   7.602   9.179  14.267
37555SOL    HW114497   7.574   9.263  14.232
37555SOL    HW214498   7.525   9.123  14.260
37556SOL     OW14499   1.559   5.650   2.418
37556SOL    HW114500   1.645   5.684   2.395
37556SOL    HW214501   1.537   5.694   2.500
37557SOL     OW14502  12.887  10.085   7.682
37557SOL    HW114503  12.906  10.059   7.592
37557SOL    HW214504  12.808  10.138   7.675
37558SOL     OW14505   1.787   5.619   1.550
37558SOL    HW114506   1.879   5.643   1.536
37558SOL    HW214507   1.783   5.526   1.526
37559SOL     OW14508   5.673   9.999   6.649
37559SOL    HW114509   5.730  10.059   6.698
37559SOL    HW214510   5.694  10.014   6.557
37560SOL     OW14511   6.967  12.965   1.531
37560SOL    HW114512   6.979  13.014   1.450
37560SOL    HW214513   6.996  13.026   1.600
37561SOL     OW14514   1.335   5.756  10.556
37561SOL    HW114515   1.248   5.784  10.525
37561SOL    HW214516   1.346   5.800  10.640
37562SOL     OW14517   0.010  10.713  13.391
37562SOL    HW114518  14.823  10.711  13.325
37562SOL    HW214519  14.853  10.673  13.468
37563SOL     OW14520   6.017  11.826  13.604
37563SOL    HW114521   6.088  11.884  13.631
37563SOL    HW214522   6.049  11.784  13.525
37564SOL     OW14523  11.974  14.619   8.974
37564SOL    HW114524  11.984  14.581   8.887
37564SOL    HW214525  11.897  14.676   8.967
37565SOL     OW14526   5.266   7.715  10.750
37565SOL    HW114527   5.274   7.660  10.827
37565SOL    HW214528   5.226   7.659  10.684
37566SOL     OW14529   0.785   0.469   9.689
37566SOL    HW114530   0.845   0.411   9.642
37566SOL    HW214531   0.800   0.451   9.781
37567SOL     OW14532   6.101   4.416  12.754
37567SOL    HW114533   6.035   4.485  12.754
37567SOL    HW214534   6.153   4.432  12.675
37568SOL     OW14535  10.212   8.411   7.768
37568SOL    HW114536  10.296   8.431   7.727
37568SOL    HW214537  10.157   8.379   7.697
37569SOL     OW14538   5.077   8.626  10.916
37569SOL    HW114539   5.053   8.704  10.967
37569SOL    HW214540   5.160   8.648  10.875
37570SOL     OW14541   8.936   7.800  13.762
37570SOL    HW114542   9.018   7.805  13.812
37570SOL    HW214543   8.957   7.748  13.685
37571SOL     OW14544   7.359   4.123   0.552
37571SOL    HW114545   7.395   4.113   0.641
37571SOL    HW214546   7.428   4.089   0.495
37572SOL     OW14547   7.355  12.401   4.206
37572SOL    HW114548   7.423  12.341   4.175
37572SOL    HW214549   7.389  12.434   4.289
37573SOL     OW14550  10.257   5.265   3.358
37573SOL    HW114551  10.244   5.347   3.407
37573SOL    HW214552  10.340   5.231   3.391
37574SOL     OW14553  13.375  14.809   6.650
37574SOL    HW114554  13.446  14.861   6.612
37574SOL    HW214555  13.296  14.858   6.630
37575SOL     OW14556   4.297  13.329   4.057
37575SOL    HW114557   4.342  13.252   4.021
37575SOL    HW214558   4.359  13.367   4.118
37576SOL     OW14559   0.533  14.080   7.144
37576SOL    HW114560   0.449  14.043   7.172
37576SOL    HW214561   0.533  14.169   7.177
37577SOL     OW14562   9.827  13.815   4.181
37577SOL    HW114563   9.881  13.882   4.139
37577SOL    HW214564   9.748  13.810   4.127
37578SOL     OW14565   5.985   7.731  14.610
37578SOL    HW114566   5.895   7.716  14.579
37578SOL    HW214567   6.022   7.643  14.621
37579SOL     OW14568  11.056   8.091  10.975
37579SOL    HW114569  11.064   8.129  10.887
37579SOL    HW214570  11.019   8.004  10.960
37580SOL     OW14571  14.623  13.980  14.769
37580SOL    HW114572  14.657  14.068  14.783
37580SOL    HW214573  14.581  13.983  14.683
37581SOL     OW14574   5.670   0.226   1.809
37581SOL    HW114575   5.600   0.196   1.866
37581SOL    HW214576   5.701   0.147   1.764
37582SOL     OW14577  11.808   4.010   3.336
37582SOL    HW114578  11.728   4.047   3.374
37582SOL    HW214579  11.879   4.041   3.392
37583SOL     OW14580   1.213  11.573  12.819
37583SOL    HW114581   1.165  11.655  12.810
37583SOL    HW214582   1.249  11.577  12.908
37584SOL     OW14583  12.026  13.367  11.814
37584SOL    HW114584  12.098  13.405  11.865
37584SOL    HW214585  11.955  13.356  11.878
37585SOL     OW14586  11.979   9.345   0.063
37585SOL    HW114587  11.965   9.259   0.103
37585SOL    HW214588  11.891   9.377   0.043
37586SOL     OW14589   9.422   8.779   0.359
37586SOL    HW114590   9.458   8.693   0.383
37586SOL    HW214591   9.377   8.763   0.276
37587SOL     OW14592   4.691   6.458   4.815
37587SOL    HW114593   4.661   6.438   4.903
37587SOL    HW214594   4.620   6.509   4.776
37588SOL     OW14595   8.657  11.566   2.814
37588SOL    HW114596   8.588  11.500   2.817
37588SOL    HW214597   8.687  11.565   2.723
37589SOL     OW14598   3.334   5.154   1.040
37589SOL    HW114599   3.273   5.152   1.113
37589SOL    HW214600   3.418   5.176   1.080
37590SOL     OW14601  10.504   1.729   4.177
37590SOL    HW114602  10.531   1.637   4.172
37590SOL    HW214603  10.409   1.726   4.169
37591SOL     OW14604  12.220   9.396   1.910
37591SOL    HW114605  12.247   9.367   1.823
37591SOL    HW214606  12.183   9.318   1.951
37592SOL     OW14607   4.329   7.940   9.131
37592SOL    HW114608   4.332   8.030   9.097
37592SOL    HW214609   4.269   7.894   9.072
37593SOL     OW14610   0.807   6.596   5.566
37593SOL    HW114611   0.763   6.515   5.591
37593SOL    HW214612   0.745   6.665   5.589
37594SOL     OW14613   5.952   3.651   2.414
37594SOL    HW114614   5.962   3.593   2.338
37594SOL    HW214615   6.031   3.636   2.466
37595SOL     OW14616   6.704  13.920   8.149
37595SOL    HW114617   6.755  13.964   8.216
37595SOL    HW214618   6.739  13.953   8.066
37596SOL     OW14619   1.410   9.527   2.980
37596SOL    HW114620   1.459   9.527   3.063
37596SOL    HW214621   1.330   9.477   3.000
37597SOL     OW14622   1.569   3.633   7.414
37597SOL    HW114623   1.619   3.556   7.440
37597SOL    HW214624   1.500   3.641   7.480
37598SOL     OW14625   2.591   3.521  12.156
37598SOL    HW114626   2.559   3.582  12.089
37598SOL    HW214627   2.611   3.577  12.231
37599SOL     OW14628   4.631  12.565   5.855
37599SOL    HW114629   4.680  12.509   5.917
37599SOL    HW214630   4.669  12.544   5.770
37600SOL     OW14631  13.510  14.436  10.745
37600SOL    HW114632  13.594  14.397  10.768
37600SOL    HW214633  13.521  14.530  10.760
37601SOL     OW14634   9.363   6.869  11.808
37601SOL    HW114635   9.382   6.799  11.745
37601SOL    HW214636   9.311   6.932  11.758
37602SOL     OW14637   9.651   4.390  12.819
37602SOL    HW114638   9.673   4.482  12.828
37602SOL    HW214639   9.733   4.348  12.794
37603SOL     OW14640   8.696   5.687   0.570
37603SOL    HW114641   8.749   5.754   0.613
37603SOL    HW214642   8.631   5.662   0.636
37604SOL     OW14643   7.090  14.696   8.233
37604SOL    HW114644   7.010  14.652   8.206
37604SOL    HW214645   7.119  14.742   8.154
37605SOL     OW14646   5.493  10.863   1.724
37605SOL    HW114647   5.517  10.899   1.638
37605SOL    HW214648   5.495  10.938   1.783
37606SOL     OW14649   4.960   4.911   7.207
37606SOL    HW114650   4.877   4.903   7.255
37606SOL    HW214651   4.952   4.995   7.162
37607SOL     OW14652   8.436   2.464  13.051
37607SOL    HW114653   8.429   2.388  12.993
37607SOL    HW214654   8.404   2.537  12.999
37608SOL     OW14655   0.219  10.486  10.285
37608SOL    HW114656   0.272  10.465  10.361
37608SOL    HW214657   0.261  10.439  10.213
37609SOL     OW14658  14.801  13.438   4.763
37609SOL    HW114659  14.822  13.408   4.674
37609SOL    HW214660  14.713  13.474   4.756
37610SOL     OW14661   1.157   3.544   8.453
37610SOL    HW114662   1.160   3.448   8.447
37610SOL    HW214663   1.065   3.566   8.440
37611SOL     OW14664   5.263  14.087   5.387
37611SOL    HW114665   5.181  14.038   5.383
37611SOL    HW214666   5.245  14.159   5.447
37612SOL     OW14667   9.698   0.475  11.950
37612SOL    HW114668   9.750   0.395  11.940
37612SOL    HW214669   9.749   0.530  12.010
37613SOL     OW14670   1.616   9.556  14.731
37613SOL    HW114671   1.591   9.516  14.647
37613SOL    HW214672   1.711   9.551  14.732
37614SOL     OW14673   7.355   7.189  13.705
37614SOL    HW114674   7.418   7.260  13.690
37614SOL    HW214675   7.401   7.129  13.764
37615SOL     OW14676  11.341   6.792  12.908
37615SOL    HW114677  11.411   6.743  12.951
37615SOL    HW214678  11.376   6.815  12.822
37616SOL     OW14679   3.364  13.752   2.803
37616SOL    HW114680   3.367  13.680   2.866
37616SOL    HW214681   3.433  13.730   2.740
37617SOL     OW14682   8.527   5.661   6.861
37617SOL    HW114683   8.552   5.733   6.919
37617SOL    HW214684   8.443   5.631   6.895
37618SOL     OW14685  11.250  10.028   7.582
37618SOL    HW114686  11.273  10.004   7.492
37618SOL    HW214687  11.180  10.092   7.573
37619SOL     OW14688  13.319   6.264   0.402
37619SOL    HW114689  13.399   6.300   0.364
37619SOL    HW214690  13.340   6.172   0.418
37620SOL     OW14691   7.722   5.373  13.666
37620SOL    HW114692   7.814   5.398  13.660
37620SOL    HW214693   7.689   5.382  13.576
37621SOL     OW14694  10.539  12.346   0.321
37621SOL    HW114695  10.551  12.280   0.253
37621SOL    HW214696  10.447  12.338   0.347
37622SOL     OW14697   2.717   3.046   9.982
37622SOL    HW114698   2.730   2.972  10.041
37622SOL    HW214699   2.789   3.106  10.002
37623SOL     OW14700   7.960  13.151   1.691
37623SOL    HW114701   7.948  13.171   1.598
37623SOL    HW214702   8.043  13.103   1.694
37624SOL     OW14703   2.514   2.681   7.385
37624SOL    HW114704   2.554   2.664   7.300
37624SOL    HW214705   2.431   2.723   7.364
37625SOL     OW14706  11.732  14.476   6.806
37625SOL    HW114707  11.808  14.463   6.749
37625SOL    HW214708  11.746  14.415   6.879
37626SOL     OW14709   8.449   6.035   5.725
37626SOL    HW114710   8.410   6.094   5.790
37626SOL    HW214711   8.391   5.958   5.726
37627SOL     OW14712  12.272   9.601   6.953
37627SOL    HW114713  12.224   9.582   7.033
37627SOL    HW214714  12.364   9.590   6.977
37628SOL     OW14715   1.430   2.421   8.285
37628SOL    HW114716   1.454   2.415   8.192
37628SOL    HW214717   1.374   2.345   8.300
37629SOL     OW14718   3.092   2.485  13.700
37629SOL    HW114719   3.185   2.464  13.694
37629SOL    HW214720   3.069   2.518  13.613
37630SOL     OW14721  10.121  11.528  10.615
37630SOL    HW114722  10.124  11.601  10.676
37630SOL    HW214723  10.191  11.546  10.552
37631SOL     OW14724   7.676   8.662  12.191
37631SOL    HW114725   7.645   8.589  12.246
37631SOL    HW214726   7.664   8.740  12.246
37632SOL     OW14727  13.111  10.878  10.988
37632SOL    HW114728  13.114  10.925  10.905
37632SOL    HW214729  13.020  10.848  10.996
37633SOL     OW14730   4.650  13.928   4.855
37633SOL    HW114731   4.619  13.953   4.942
37633SOL    HW214732   4.573  13.933   4.799
37634SOL     OW14733  14.836  13.302   4.537
37634SOL    HW114734  14.845  13.209   4.559
37634SOL    HW214735   0.004  13.313   4.456
37635SOL     OW14736   8.369   7.632   2.743
37635SOL    HW114737   8.375   7.726   2.757
37635SOL    HW214738   8.280   7.608   2.769
37636SOL     OW14739   2.370  10.846   5.220
37636SOL    HW114740   2.328  10.854   5.306
37636SOL    HW214741   2.341  10.923   5.172
37637SOL     OW14742  14.160  11.614   4.879
37637SOL    HW114743  14.099  11.560   4.928
37637SOL    HW214744  14.128  11.704   4.891
37638SOL     OW14745   8.290   6.651  12.467
37638SOL    HW114746   8.346   6.574  12.464
37638SOL    HW214747   8.328   6.711  12.402
37639SOL     OW14748   8.353   7.857  13.192
37639SOL    HW114749   8.300   7.936  13.201
37639SOL    HW214750   8.292   7.790  13.162
37640SOL     OW14751   9.346   3.810   1.688
37640SOL    HW114752   9.299   3.746   1.741
37640SOL    HW214753   9.332   3.781   1.598
37641SOL     OW14754  11.221  13.098   9.360
37641SOL    HW114755  11.145  13.147   9.389
37641SOL    HW214756  11.185  13.028   9.305
37642SOL     OW14757   5.748   9.235   9.476
37642SOL    HW114758   5.680   9.168   9.488
37642SOL    HW214759   5.724   9.280   9.395
37643SOL     OW14760   0.021  14.667   1.966
37643SOL    HW114761   0.004  14.634   1.878
37643SOL    HW214762   0.113  14.645   1.983
37644SOL     OW14763   3.643  12.554  14.804
37644SOL    HW114764   3.629  12.634  14.855
37644SOL    HW214765   3.569  12.497  14.827
37645SOL     OW14766  12.493  14.506   7.065
37645SOL    HW114767  12.498  14.581   7.005
37645SOL    HW214768  12.555  14.528   7.135
37646SOL     OW14769  14.013  11.094   1.178
37646SOL    HW114770  14.055  11.087   1.264
37646SOL    HW214771  13.920  11.088   1.195
37647SOL     OW14772  13.534  11.286  14.315
37647SOL    HW114773  13.456  11.301  14.369
37647SOL    HW214774  13.542  11.366  14.262
37648SOL     OW14775   5.070  11.525   4.738
37648SOL    HW114776   5.059  11.467   4.813
37648SOL    HW214777   5.113  11.603   4.773
37649SOL     OW14778   3.556   4.754   7.879
37649SOL    HW114779   3.585   4.823   7.819
37649SOL    HW214780   3.605   4.676   7.853
37650SOL     OW14781  13.296   0.109   8.960
37650SOL    HW114782  13.272   0.066   9.042
37650SOL    HW214783  13.389   0.088   8.948
37651SOL     OW14784   2.772   6.166   7.000
37651SOL    HW114785   2.743   6.083   6.962
37651SOL    HW214786   2.853   6.187   6.954
37652SOL     OW14787   6.789  10.123  10.784
37652SOL    HW114788   6.754  10.174  10.857
37652SOL    HW214789   6.715  10.072  10.752
37653SOL     OW14790   0.414  14.577   7.063
37653SOL    HW114791   0.449  14.494   7.095
37653SOL    HW214792   0.355  14.607   7.132
37654SOL     OW14793   5.453   9.659   8.799
37654SOL    HW114794   5.380   9.711   8.765
37654SOL    HW214795   5.529   9.716   8.791
37655SOL     OW14796   9.231  14.310  12.980
37655SOL    HW114797   9.321  14.308  13.012
37655SOL    HW214798   9.178  14.296  13.058
37656SOL     OW14799   6.897  13.581   9.440
37656SOL    HW114800   6.961  13.519   9.475
37656SOL    HW214801   6.943  13.624   9.368
37657SOL     OW14802   4.227  12.086  12.771
37657SOL    HW114803   4.214  12.065  12.864
37657SOL    HW214804   4.152  12.141  12.748
37658SOL     OW14805  14.057   6.966   8.327
37658SOL    HW114806  14.133   6.923   8.366
37658SOL    HW214807  13.992   6.897   8.318
37659SOL     OW14808   5.234   2.474  12.434
37659SOL    HW114809   5.322   2.452  12.404
37659SOL    HW214810   5.243   2.562  12.471
37660SOL     OW14811  13.569  12.591  12.761
37660SOL    HW114812  13.482  12.552  12.753
37660SOL    HW214813  13.581  12.602  12.856
37661SOL     OW14814   2.048   2.524   4.537
37661SOL    HW114815   2.107   2.571   4.478
37661SOL    HW214816   2.095   2.520   4.621
37662SOL     OW14817   8.571   4.016   6.057
37662SOL    HW114818   8.567   4.111   6.061
37662SOL    HW214819   8.582   3.996   5.964
37663SOL     OW14820  12.400  14.572  12.546
37663SOL    HW114821  12.388  14.612  12.633
37663SOL    HW214822  12.318  14.526  12.530
37664SOL     OW14823   6.264   1.684   3.376
37664SOL    HW114824   6.303   1.760   3.418
37664SOL    HW214825   6.321   1.611   3.401
37665SOL     OW14826   1.229  12.357   4.173
37665SOL    HW114827   1.196  12.422   4.236
37665SOL    HW214828   1.287  12.301   4.225
37666SOL     OW14829   8.618  10.258   0.884
37666SOL    HW114830   8.697  10.258   0.831
37666SOL    HW214831   8.590  10.166   0.887
37667SOL     OW14832   5.019   0.263   8.201
37667SOL    HW114833   5.068   0.332   8.157
37667SOL    HW214834   5.058   0.182   8.170
37668SOL     OW14835   4.298   1.619   6.550
37668SOL    HW114836   4.344   1.699   6.574
37668SOL    HW214837   4.360   1.572   6.493
37669SOL     OW14838  12.694  10.306   1.906
37669SOL    HW114839  12.756  10.279   1.838
37669SOL    HW214840  12.706  10.401   1.913
37670SOL     OW14841   9.500   2.637   1.494
37670SOL    HW114842   9.549   2.699   1.441
37670SOL    HW214843   9.434   2.690   1.539
37671SOL     OW14844  11.105  10.161   6.463
37671SOL    HW114845  11.064  10.191   6.382
37671SOL    HW214846  11.192  10.200   6.462
37672SOL     OW14847   2.829  10.324   4.330
37672SOL    HW114848   2.864  10.278   4.254
37672SOL    HW214849   2.791  10.404   4.295
37673SOL     OW14850  12.557   1.115   9.578
37673SOL    HW114851  12.603   1.181   9.630
37673SOL    HW214852  12.466   1.144   9.576
37674SOL     OW14853  13.122   5.509   9.368
37674SOL    HW114854  13.079   5.551   9.442
37674SOL    HW214855  13.206   5.480   9.402
37675SOL     OW14856   1.466   2.968   6.651
37675SOL    HW114857   1.416   2.965   6.569
37675SOL    HW214858   1.517   3.049   6.644
37676SOL     OW14859   2.705  13.094   9.645
37676SOL    HW114860   2.734  13.032   9.713
37676SOL    HW214861   2.649  13.156   9.692
37677SOL     OW14862   3.831  10.734  11.616
37677SOL    HW114863   3.742  10.730  11.651
37677SOL    HW214864   3.857  10.642  11.607
37678SOL     OW14865   5.803   6.495   6.315
37678SOL    HW114866   5.877   6.434   6.310
37678SOL    HW214867   5.838   6.579   6.287
37679SOL     OW14868   9.750   5.638   3.150
37679SOL    HW114869   9.747   5.600   3.062
37679SOL    HW214870   9.660   5.665   3.168
37680SOL     OW14871  13.703  11.706  12.312
37680SOL    HW114872  13.667  11.624  12.345
37680SOL    HW214873  13.795  11.688  12.296
37681SOL     OW14874  11.032   5.459   1.901
37681SOL    HW114875  10.990   5.497   1.978
37681SOL    HW214876  11.125   5.476   1.913
37682SOL     OW14877   5.731  10.039   8.319
37682SOL    HW114878   5.774  10.062   8.237
37682SOL    HW214879   5.802  10.036   8.383
37683SOL     OW14880   1.157   1.244  13.127
37683SOL    HW114881   1.196   1.294  13.199
37683SOL    HW214882   1.211   1.264  13.051
37684SOL     OW14883  13.031  12.463   8.228
37684SOL    HW114884  12.948  12.482   8.185
37684SOL    HW214885  13.008  12.447   8.319
37685SOL     OW14886  13.277   6.092   4.654
37685SOL    HW114887  13.372   6.091   4.665
37685SOL    HW214888  13.264   6.100   4.559
37686SOL     OW14889   2.383   4.219  13.576
37686SOL    HW114890   2.345   4.271  13.505
37686SOL    HW214891   2.469   4.192  13.543
37687SOL     OW14892  13.979   6.337   4.976
37687SOL    HW114893  13.944   6.352   4.888
37687SOL    HW214894  13.927   6.265   5.011
37688SOL     OW14895   7.926   1.267   5.691
37688SOL    HW114896   7.874   1.328   5.639
37688SOL    HW214897   7.865   1.197   5.714
37689SOL     OW14898   3.589   4.765  13.909
37689SOL    HW114899   3.647   4.789  13.982
37689SOL    HW214900   3.510   4.817  13.925
37690SOL     OW14901  14.048   5.474   4.222
37690SOL    HW114902  13.986   5.402   4.210
37690SOL    HW214903  14.048   5.520   4.138
37691SOL     OW14904  10.207  12.290  13.232
37691SOL    HW114905  10.231  12.292  13.325
37691SOL    HW214906  10.119  12.251  13.231
37692SOL     OW14907   9.829   5.948   2.021
37692SOL    HW114908   9.806   5.942   1.929
37692SOL    HW214909   9.905   6.007   2.024
37693SOL     OW14910  10.615  14.015  14.136
37693SOL    HW114911  10.678  14.016  14.208
37693SOL    HW214912  10.631  13.932  14.091
37694SOL     OW14913   1.921   5.743   3.630
37694SOL    HW114914   1.980   5.796   3.576
37694SOL    HW214915   1.834   5.778   3.611
37695SOL     OW14916   7.264  11.304  11.109
37695SOL    HW114917   7.171  11.320  11.125
37695SOL    HW214918   7.290  11.242  11.177
37696SOL     OW14919  10.288   2.790   6.425
37696SOL    HW114920  10.359   2.729   6.444
37696SOL    HW214921  10.208   2.741   6.446
37697SOL     OW14922  14.804  12.052   3.942
37697SOL    HW114923   0.007  12.046   3.987
37697SOL    HW214924  14.827  12.076   3.852
37698SOL     OW14925  13.481   5.755   9.666
37698SOL    HW114926  13.523   5.673   9.692
37698SOL    HW214927  13.388   5.742   9.688
37699SOL     OW14928   4.066   4.451   8.440
37699SOL    HW114929   3.988   4.481   8.487
37699SOL    HW214930   4.122   4.414   8.508
37700SOL     OW14931   5.467   9.521   2.092
37700SOL    HW114932   5.393   9.464   2.070
37700SOL    HW214933   5.497   9.555   2.008
37701SOL     OW14934  10.605   8.149   4.701
37701SOL    HW114935  10.518   8.188   4.690
37701SOL    HW214936  10.590   8.071   4.753
37702SOL     OW14937   5.081   2.128   2.082
37702SOL    HW114938   5.072   2.061   2.015
37702SOL    HW214939   4.995   2.171   2.085
37703SOL     OW14940   1.071  13.917   5.594
37703SOL    HW114941   0.986  13.892   5.633
37703SOL    HW214942   1.101  13.837   5.550
37704SOL     OW14943   7.018  11.666   2.062
37704SOL    HW114944   6.979  11.753   2.052
37704SOL    HW214945   6.944  11.605   2.051
37705SOL     OW14946   8.517   0.109  12.185
37705SOL    HW114947   8.606   0.097  12.152
37705SOL    HW214948   8.503   0.035  12.245
37706SOL     OW14949  10.871   0.697  14.136
37706SOL    HW114950  10.830   0.639  14.200
37706SOL    HW214951  10.953   0.654  14.113
37707SOL     OW14952   2.910   2.361   5.806
37707SOL    HW114953   2.904   2.350   5.711
37707SOL    HW214954   2.828   2.324   5.839
37708SOL     OW14955   5.604   4.384   5.751
37708SOL    HW114956   5.612   4.465   5.700
37708SOL    HW214957   5.651   4.319   5.700
37709SOL     OW14958   7.018   3.892  11.905
37709SOL    HW114959   6.963   3.819  11.934
37709SOL    HW214960   7.070   3.915  11.982
37710SOL     OW14961  10.538  11.608   3.548
37710SOL    HW114962  10.533  11.704   3.548
37710SOL    HW214963  10.460  11.580   3.499
37711SOL     OW14964   8.992   6.399   4.810
37711SOL    HW114965   8.908   6.353   4.820
37711SOL    HW214966   9.012   6.391   4.716
37712SOL     OW14967   6.040  11.848  11.997
37712SOL    HW114968   6.017  11.940  12.007
37712SOL    HW214969   6.100  11.831  12.070
37713SOL     OW14970  12.753  10.471  13.306
37713SOL    HW114971  12.688  10.529  13.268
37713SOL    HW214972  12.804  10.527  13.365
37714SOL     OW14973  11.289   1.117   2.730
37714SOL    HW114974  11.334   1.201   2.722
37714SOL    HW214975  11.288   1.099   2.824
37715SOL     OW14976  10.804  12.651  13.334
37715SOL    HW114977  10.755  12.576  13.366
37715SOL    HW214978  10.881  12.656  13.391
37716SOL     OW14979  11.771   3.586  10.152
37716SOL    HW114980  11.822   3.663  10.181
37716SOL    HW214981  11.811   3.561  10.068
37717SOL     OW14982  13.633   4.951   2.776
37717SOL    HW114983  13.558   5.004   2.749
37717SOL    HW214984  13.610   4.861   2.750
37718SOL     OW14985  10.300   8.248   4.719
37718SOL    HW114986  10.256   8.199   4.650
37718SOL    HW214987  10.264   8.337   4.713
37719SOL     OW14988   4.094  13.004   9.069
37719SOL    HW114989   4.071  13.031   8.980
37719SOL    HW214990   4.011  13.008   9.117
37720SOL     OW14991   6.743  14.269   8.011
37720SOL    HW114992   6.739  14.358   7.976
37720SOL    HW214993   6.655  14.234   7.998
37721SOL     OW14994   7.901  11.187   9.229
37721SOL    HW114995   7.945  11.103   9.220
37721SOL    HW214996   7.809  11.165   9.243
37722SOL     OW14997   4.940   9.128   2.721
37722SOL    HW114998   4.998   9.164   2.788
37722SOL    HW214999   4.998   9.081   2.662
37723SOL     OW15000   0.510   5.415   1.109
37723SOL    HW115001   0.511   5.508   1.129
37723SOL    HW215002   0.601   5.387   1.117
37724SOL     OW15003   1.677  14.798   0.978
37724SOL    HW115004   1.594  14.823   1.019
37724SOL    HW215005   1.662  14.812   0.884
37725SOL     OW15006   3.320   2.139   8.239
37725SOL    HW115007   3.294   2.103   8.154
37725SOL    HW215008   3.258   2.100   8.301
37726SOL     OW15009   4.268   2.109   6.574
37726SOL    HW115010   4.218   2.099   6.656
37726SOL    HW215011   4.202   2.100   6.505
37727SOL     OW15012   3.684  14.617   0.155
37727SOL    HW115013   3.679  14.707   0.188
37727SOL    HW215014   3.747  14.621   0.083
37728SOL     OW15015   2.687   8.663   5.910
37728SOL    HW115016   2.629   8.592   5.882
37728SOL    HW215017   2.653   8.741   5.867
37729SOL     OW15018   2.149   6.171   9.956
37729SOL    HW115019   2.119   6.243   9.900
37729SOL    HW215020   2.070   6.142  10.002
37730SOL     OW15021   1.939   3.256  11.011
37730SOL    HW115022   1.850   3.276  10.982
37730SOL    HW215023   1.971   3.190  10.950
37731SOL     OW15024  10.854   1.126   3.108
37731SOL    HW115025  10.889   1.040   3.083
37731SOL    HW215026  10.811   1.159   3.029
37732SOL     OW15027   5.336   0.156   6.897
37732SOL    HW115028   5.307   0.068   6.922
37732SOL    HW215029   5.267   0.214   6.929
37733SOL     OW15030  13.220  10.485   7.121
37733SOL    HW115031  13.195  10.393   7.131
37733SOL    HW215032  13.206  10.523   7.208
37734SOL     OW15033   6.728   8.338  13.289
37734SOL    HW115034   6.780   8.259  13.306
37734SOL    HW215035   6.722   8.342  13.193
37735SOL     OW15036  14.614   2.629   4.395
37735SOL    HW115037  14.605   2.605   4.303
37735SOL    HW215038  14.552   2.573   4.441
37736SOL     OW15039  11.724   9.923   3.544
37736SOL    HW115040  11.771   9.999   3.580
37736SOL    HW215041  11.792   9.855   3.536
37737SOL     OW15042  14.726  10.684   3.337
37737SOL    HW115043  14.767  10.735   3.407
37737SOL    HW215044  14.785  10.694   3.263
37738SOL     OW15045  12.144   6.242   8.017
37738SOL    HW115046  12.237   6.235   8.038
37738SOL    HW215047  12.099   6.216   8.097
37739SOL     OW15048   9.357   7.915   2.521
37739SOL    HW115049   9.362   7.874   2.608
37739SOL    HW215050   9.385   8.006   2.536
37740SOL     OW15051   7.782   6.821   3.876
37740SOL    HW115052   7.813   6.898   3.922
37740SOL    HW215053   7.687   6.834   3.869
37741SOL     OW15054   8.803   1.381   5.941
37741SOL    HW115055   8.817   1.412   5.852
37741SOL    HW215056   8.877   1.323   5.958
37742SOL     OW15057   4.272   4.166   9.313
37742SOL    HW115058   4.295   4.126   9.396
37742SOL    HW215059   4.273   4.260   9.330
37743SOL     OW15060   5.885  12.849  14.391
37743SOL    HW115061   5.804  12.864  14.440
37743SOL    HW215062   5.863  12.779  14.329
37744SOL     OW15063  14.739   7.509   0.110
37744SOL    HW115064  14.675   7.576   0.088
37744SOL    HW215065  14.691   7.426   0.101
37745SOL     OW15066   9.251  14.120   8.880
37745SOL    HW115067   9.178  14.059   8.868
37745SOL    HW215068   9.238  14.155   8.968
37746SOL     OW15069  13.350   7.820   6.401
37746SOL    HW115070  13.446   7.829   6.404
37746SOL    HW215071  13.335   7.730   6.373
37747SOL     OW15072   5.532   0.704  13.931
37747SOL    HW115073   5.540   0.794  13.964
37747SOL    HW215074   5.513   0.652  14.009
37748SOL     OW15075   6.093   8.926   3.361
37748SOL    HW115076   6.157   8.994   3.343
37748SOL    HW215077   6.106   8.861   3.292
37749SOL     OW15078   3.664   7.636  13.022
37749SOL    HW115079   3.599   7.566  13.033
37749SOL    HW215080   3.704   7.645  13.108
37750SOL     OW15081  11.634  13.277   2.380
37750SOL    HW115082  11.547  13.258   2.416
37750SOL    HW215083  11.695  13.259   2.451
37751SOL     OW15084   2.569   5.857   1.325
37751SOL    HW115085   2.475   5.878   1.323
37751SOL    HW215086   2.608   5.915   1.260
37752SOL     OW15087  13.823  12.780   4.432
37752SOL    HW115088  13.843  12.687   4.418
37752SOL    HW215089  13.856  12.823   4.353
37753SOL     OW15090   9.966   5.462   4.233
37753SOL    HW115091   9.964   5.553   4.264
37753SOL    HW215092   9.878   5.429   4.250
37754SOL     OW15093   0.078   3.016  11.137
37754SOL    HW115094   0.093   2.943  11.077
37754SOL    HW215095   0.102   2.982  11.223
37755SOL     OW15096  11.087   2.727  13.898
37755SOL    HW115097  11.114   2.647  13.942
37755SOL    HW215098  11.150   2.793  13.929
37756SOL     OW15099   1.305  11.015   5.476
37756SOL    HW115100   1.320  10.955   5.403
37756SOL    HW215101   1.217  10.994   5.507
37757SOL     OW15102  13.889   1.481   0.973
37757SOL    HW115103  13.909   1.441   0.888
37757SOL    HW215104  13.970   1.470   1.024
37758SOL     OW15105   5.081   9.241  13.235
37758SOL    HW115106   5.050   9.197  13.156
37758SOL    HW215107   5.153   9.186  13.266
37759SOL     OW15108   8.065  13.324  14.123
37759SOL    HW115109   7.991  13.287  14.171
37759SOL    HW215110   8.035  13.331  14.033
37760SOL     OW15111   4.747  10.278   1.436
37760SOL    HW115112   4.766  10.293   1.528
37760SOL    HW215113   4.708  10.360   1.406
37761SOL     OW15114  11.383   8.685  14.738
37761SOL    HW115115  11.319   8.680  14.666
37761SOL    HW215116  11.449   8.748  14.707
37762SOL     OW15117   1.231  13.766  12.758
37762SOL    HW115118   1.145  13.783  12.718
37762SOL    HW215119   1.294  13.795  12.692
37763SOL     OW15120  12.597   4.738   6.415
37763SOL    HW115121  12.555   4.820   6.387
37763SOL    HW215122  12.571   4.674   6.348
37764SOL     OW15123   5.866  13.869   2.650
37764SOL    HW115124   5.909  13.788   2.676
37764SOL    HW215125   5.862  13.921   2.731
37765SOL     OW15126  12.112   4.069   5.104
37765SOL    HW115127  12.056   3.998   5.072
37765SOL    HW215128  12.111   4.059   5.199
37766SOL     OW15129  10.981   7.279   3.037
37766SOL    HW115130  11.070   7.260   3.007
37766SOL    HW215131  10.929   7.288   2.957
37767SOL     OW15132   6.200  13.607   9.551
37767SOL    HW115133   6.166  13.697   9.556
37767SOL    HW215134   6.233  13.589   9.638
37768SOL     OW15135  12.644   9.806  13.153
37768SOL    HW115136  12.557   9.810  13.192
37768SOL    HW215137  12.704   9.814  13.227
37769SOL     OW15138   2.763  12.286   4.810
37769SOL    HW115139   2.777  12.238   4.892
37769SOL    HW215140   2.676  12.258   4.780
37770SOL     OW15141   4.316  13.963   3.493
37770SOL    HW115142   4.263  14.013   3.431
37770SOL    HW215143   4.355  14.029   3.550
37771SOL     OW15144   2.982   4.061   1.062
37771SOL    HW115145   3.063   4.082   1.107
37771SOL    HW215146   3.009   4.033   0.975
37772SOL     OW15147  13.618   9.251   0.215
37772SOL    HW115148  13.626   9.234   0.309
37772SOL    HW215149  13.698   9.215   0.177
37773SOL     OW15150  12.453   7.804   5.602
37773SOL    HW115151  12.402   7.848   5.671
37773SOL    HW215152  12.390   7.746   5.560
37774SOL     OW15153   1.837   0.445  12.881
37774SOL    HW115154   1.798   0.376  12.935
37774SOL    HW215155   1.804   0.427  12.792
37775SOL     OW15156  11.518   4.546  10.142
37775SOL    HW115157  11.611   4.567  10.129
37775SOL    HW215158  11.519   4.469  10.200
37776SOL     OW15159  13.442  11.598   2.694
37776SOL    HW115160  13.465  11.534   2.761
37776SOL    HW215161  13.519  11.653   2.686
37777SOL     OW15162   0.320  13.490   2.511
37777SOL    HW115163   0.404  13.471   2.553
37777SOL    HW215164   0.278  13.552   2.570
37778SOL     OW15165   4.679  10.619   7.567
37778SOL    HW115166   4.761  10.572   7.552
37778SOL    HW215167   4.705  10.699   7.613
37779SOL     OW15168   2.405   4.909   4.769
37779SOL    HW115169   2.380   4.933   4.858
37779SOL    HW215170   2.420   4.815   4.773
37780SOL     OW15171   5.487  12.614   7.064
37780SOL    HW115172   5.581  12.618   7.079
37780SOL    HW215173   5.463  12.703   7.038
37781SOL     OW15174   3.455  13.945   5.824
37781SOL    HW115175   3.410  13.866   5.854
37781SOL    HW215176   3.384  14.002   5.793
37782SOL     OW15177   9.613  13.144   2.487
37782SOL    HW115178   9.595  13.238   2.500
37782SOL    HW215179   9.547  13.100   2.540
37783SOL     OW15180   3.982   1.878   9.733
37783SOL    HW115181   3.902   1.897   9.781
37783SOL    HW215182   3.955   1.874   9.641
37784SOL     OW15183   5.473  10.298  12.771
37784SOL    HW115184   5.514  10.241  12.836
37784SOL    HW215185   5.414  10.241  12.722
37785SOL     OW15186   6.869   0.919  10.744
37785SOL    HW115187   6.856   0.867  10.823
37785SOL    HW215188   6.884   0.854  10.675
37786SOL     OW15189   2.620   4.954   1.372
37786SOL    HW115190   2.570   4.873   1.386
37786SOL    HW215191   2.570   5.002   1.306
37787SOL     OW15192   8.678   3.594   2.042
37787SOL    HW115193   8.668   3.688   2.056
37787SOL    HW215194   8.599   3.555   2.081
37788SOL     OW15195  14.739   5.684   4.223
37788SOL    HW115196  14.650   5.649   4.212
37788SOL    HW215197  14.750   5.745   4.150
37789SOL     OW15198  14.410  10.301   4.663
37789SOL    HW115199  14.389  10.238   4.594
37789SOL    HW215200  14.325  10.330   4.696
37790SOL     OW15201   5.299   8.451   7.113
37790SOL    HW115202   5.238   8.524   7.106
37790SOL    HW215203   5.383   8.487   7.084
37791SOL     OW15204   2.080   4.001  13.978
37791SOL    HW115205   2.136   4.039  13.910
37791SOL    HW215206   2.092   4.058  14.054
37792SOL     OW15207   8.428   9.859  11.694
37792SOL    HW115208   8.456   9.918  11.623
37792SOL    HW215209   8.505   9.851  11.750
37793SOL     OW15210   9.375  12.476  11.873
37793SOL    HW115211   9.433  12.516  11.809
37793SOL    HW215212   9.308  12.542  11.890
37794SOL     OW15213  13.267  14.354   0.139
37794SOL    HW115214  13.188  14.362   0.193
37794SOL    HW215215  13.255  14.417   0.069
37795SOL     OW15216  12.489  12.150   7.731
37795SOL    HW115217  12.519  12.132   7.820
37795SOL    HW215218  12.567  12.138   7.676
37796SOL     OW15219   9.976  14.385  12.776
37796SOL    HW115220   9.905  14.347  12.725
37796SOL    HW215221   9.935  14.461  12.820
37797SOL     OW15222   7.840  14.749  10.638
37797SOL    HW115223   7.845  14.815  10.707
37797SOL    HW215224   7.849  14.666  10.685
37798SOL     OW15225  12.165  13.791  13.006
37798SOL    HW115226  12.181  13.805  12.912
37798SOL    HW215227  12.219  13.857  13.049
37799SOL     OW15228  14.841  11.026   2.805
37799SOL    HW115229  14.866  11.049   2.895
37799SOL    HW215230  14.821  10.932   2.809
37800SOL     OW15231   7.867  11.397   0.153
37800SOL    HW115232   7.812  11.343   0.210
37800SOL    HW215233   7.851  11.487   0.182
37801SOL     OW15234  12.023   2.663   8.158
37801SOL    HW115235  11.957   2.614   8.206
37801SOL    HW215236  12.054   2.603   8.090
37802SOL     OW15237   2.445  11.536   1.841
37802SOL    HW115238   2.466  11.543   1.748
37802SOL    HW215239   2.350  11.524   1.844
37803SOL     OW15240  10.990   7.655   4.196
37803SOL    HW115241  10.940   7.652   4.277
37803SOL    HW215242  10.974   7.570   4.155
37804SOL     OW15243   1.703  11.226  12.578
37804SOL    HW115244   1.618  11.184  12.580
37804SOL    HW215245   1.738  11.209  12.491
37805SOL     OW15246  14.553   5.443   7.064
37805SOL    HW115247  14.620   5.422   7.129
37805SOL    HW215248  14.602   5.483   6.992
37806SOL     OW15249   7.588   3.731   9.441
37806SOL    HW115250   7.507   3.690   9.474
37806SOL    HW215251   7.591   3.816   9.484
37807SOL     OW15252   2.177   9.724   2.525
37807SOL    HW115253   2.107   9.662   2.507
37807SOL    HW215254   2.226   9.685   2.597
37808SOL     OW15255  12.595   6.740   4.244
37808SOL    HW115256  12.514   6.714   4.200
37808SOL    HW215257  12.572   6.819   4.292
37809SOL     OW15258   7.932   2.105  10.015
37809SOL    HW115259   7.917   2.019  10.054
37809SOL    HW215260   7.934   2.089   9.921
37810SOL     OW15261   6.178   0.633   0.118
37810SOL    HW115262   6.146   0.546   0.144
37810SOL    HW215263   6.181   0.629   0.022
37811SOL     OW15264   7.687  12.336   6.015
37811SOL    HW115265   7.728  12.381   5.941
37811SOL    HW215266   7.743  12.358   6.089
37812SOL     OW15267  10.286   9.096   8.576
37812SOL    HW115268  10.336   9.015   8.569
37812SOL    HW215269  10.281   9.113   8.670
37813SOL     OW15270  13.116  11.374  12.949
37813SOL    HW115271  13.134  11.285  12.978
37813SOL    HW215272  13.094  11.365  12.856
37814SOL     OW15273   0.822   9.932   3.483
37814SOL    HW115274   0.902   9.932   3.535
37814SOL    HW215275   0.752   9.911   3.545
37815SOL     OW15276  10.830   7.721  12.793
37815SOL    HW115277  10.738   7.750  12.791
37815SOL    HW215278  10.832   7.643  12.738
37816SOL     OW15279   0.986   8.238  11.503
37816SOL    HW115280   1.060   8.237  11.565
37816SOL    HW215281   0.997   8.159  11.451
37817SOL     OW15282   6.010   6.797  14.383
37817SOL    HW115283   5.969   6.878  14.415
37817SOL    HW215284   5.944   6.758  14.327
37818SOL     OW15285  12.650  11.667  14.280
37818SOL    HW115286  12.597  11.612  14.223
37818SOL    HW215287  12.613  11.755  14.269
37819SOL     OW15288  14.344   3.101  13.726
37819SOL    HW115289  14.264   3.128  13.681
37819SOL    HW215290  14.316   3.083  13.816
37820SOL     OW15291   8.442   1.408  14.503
37820SOL    HW115292   8.472   1.317  14.498
37820SOL    HW215293   8.402   1.425  14.417
37821SOL     OW15294   1.926   9.078   0.059
37821SOL    HW115295   1.874   9.014   0.010
37821SOL    HW215296   1.962   9.028   0.132
37822SOL     OW15297   2.921   7.180   6.532
37822SOL    HW115298   2.854   7.198   6.598
37822SOL    HW215299   2.955   7.266   6.508
37823SOL     OW15300   7.962  10.675   9.609
37823SOL    HW115301   8.037  10.702   9.556
37823SOL    HW215302   7.889  10.672   9.547
37824SOL     OW15303   6.801  11.807  14.657
37824SOL    HW115304   6.887  11.848  14.659
37824SOL    HW215305   6.749  11.858  14.719
37825SOL     OW15306  10.513   7.159   7.387
37825SOL    HW115307  10.587   7.117   7.343
37825SOL    HW215308  10.472   7.213   7.319
37826SOL     OW15309  13.637  14.825   2.271
37826SOL    HW115310  13.645   0.038   2.276
37826SOL    HW215311  13.663  14.803   2.181
37827SOL     OW15312   2.641   1.039   4.312
37827SOL    HW115313   2.668   1.071   4.398
37827SOL    HW215314   2.553   1.076   4.299
37828SOL     OW15315   4.540   5.220   3.701
37828SOL    HW115316   4.610   5.277   3.669
37828SOL    HW215317   4.587   5.145   3.739
37829SOL     OW15318   8.603  12.932  11.316
37829SOL    HW115319   8.571  12.900  11.232
37829SOL    HW215320   8.598  12.857  11.375
37830SOL     OW15321  13.636   3.612   9.644
37830SOL    HW115322  13.701   3.543   9.633
37830SOL    HW215323  13.568   3.592   9.581
37831SOL     OW15324   2.421   9.088  14.572
37831SOL    HW115325   2.442   9.068  14.480
37831SOL    HW215326   2.330   9.060  14.582
37832SOL     OW15327   2.238   4.250   4.322
37832SOL    HW115328   2.274   4.314   4.261
37832SOL    HW215329   2.306   4.241   4.389
37833SOL     OW15330   6.495   2.719   8.815
37833SOL    HW115331   6.528   2.775   8.745
37833SOL    HW215332   6.511   2.629   8.785
37834SOL     OW15333   9.523   4.728  10.479
37834SOL    HW115334   9.515   4.754  10.387
37834SOL    HW215335   9.615   4.704  10.489
37835SOL     OW15336   1.745   0.600   6.680
37835SOL    HW115337   1.707   0.573   6.764
37835SOL    HW215338   1.806   0.530   6.658
37836SOL     OW15339   3.667   2.304   1.304
37836SOL    HW115340   3.686   2.348   1.386
37836SOL    HW215341   3.710   2.358   1.237
37837SOL     OW15342   9.295   8.625   0.631
37837SOL    HW115343   9.338   8.636   0.716
37837SOL    HW215344   9.241   8.703   0.621
37838SOL     OW15345   0.531  11.304   9.552
37838SOL    HW115346   0.504  11.219   9.587
37838SOL    HW215347   0.583  11.282   9.474
37839SOL     OW15348   4.652   7.518   6.833
37839SOL    HW115349   4.622   7.480   6.751
37839SOL    HW215350   4.694   7.600   6.807
37840SOL     OW15351   1.903  13.227   3.609
37840SOL    HW115352   1.915  13.256   3.518
37840SOL    HW215353   1.817  13.263   3.634
37841SOL     OW15354   4.842   7.331   1.828
37841SOL    HW115355   4.769   7.326   1.890
37841SOL    HW215356   4.896   7.254   1.849
37842SOL     OW15357   5.166   6.825   4.559
37842SOL    HW115358   5.196   6.915   4.567
37842SOL    HW215359   5.127   6.805   4.644
37843SOL     OW15360  13.586   0.427   0.890
37843SOL    HW115361  13.665   0.428   0.836
37843SOL    HW215362  13.577   0.335   0.916
37844SOL     OW15363   3.443   6.887   1.668
37844SOL    HW115364   3.503   6.952   1.629
37844SOL    HW215365   3.469   6.804   1.629
37845SOL     OW15366   4.345  13.334  14.628
37845SOL    HW115367   4.421  13.371  14.673
37845SOL    HW215368   4.292  13.296  14.697
37846SOL     OW15369   8.132  14.438  13.432
37846SOL    HW115370   8.210  14.464  13.383
37846SOL    HW215371   8.161  14.436  13.523
37847SOL     OW15372  12.901   4.018  13.731
37847SOL    HW115373  12.810   4.016  13.702
37847SOL    HW215374  12.951   4.042  13.653
37848SOL     OW15375   3.101  13.151  13.885
37848SOL    HW115376   3.105  13.131  13.978
37848SOL    HW215377   3.030  13.215  13.877
37849SOL     OW15378  13.704   8.208   0.192
37849SOL    HW115379  13.627   8.257   0.164
37849SOL    HW215380  13.672   8.149   0.259
37850SOL     OW15381   2.050  10.253  14.355
37850SOL    HW115382   2.057  10.335  14.404
37850SOL    HW215383   2.008  10.192  14.415
37851SOL     OW15384   6.446  13.277   4.764
37851SOL    HW115385   6.470  13.322   4.683
37851SOL    HW215386   6.450  13.184   4.742
37852SOL     OW15387   4.890   1.607   6.203
37852SOL    HW115388   4.884   1.700   6.182
37852SOL    HW215389   4.842   1.599   6.286
37853SOL     OW15390   0.513  14.810   6.489
37853SOL    HW115391   0.453  14.835   6.419
37853SOL    HW215392   0.487  14.720   6.511
37854SOL     OW15393   4.160   1.451   6.732
37854SOL    HW115394   4.134   1.532   6.775
37854SOL    HW215395   4.206   1.479   6.653
37855SOL     OW15396   8.928   2.542  14.799
37855SOL    HW115397   8.865   2.471  14.813
37855SOL    HW215398   8.940   2.544  14.704
37856SOL     OW15399   5.205   1.724  13.453
37856SOL    HW115400   5.204   1.708  13.358
37856SOL    HW215401   5.172   1.643  13.491
37857SOL     OW15402  10.806  12.393   8.390
37857SOL    HW115403  10.725  12.354   8.356
37857SOL    HW215404  10.846  12.324   8.443
37858SOL     OW15405   7.209   7.072   4.144
37858SOL    HW115406   7.245   6.991   4.107
37858SOL    HW215407   7.118   7.050   4.164
37859SOL     OW15408  13.819   9.455   9.831
37859SOL    HW115409  13.860   9.395   9.894
37859SOL    HW215410  13.880   9.529   9.827
37860SOL     OW15411   3.536  13.832  14.093
37860SOL    HW115412   3.444  13.857  14.085
37860SOL    HW215413   3.581  13.883  14.026
37861SOL     OW15414  14.040  13.297   6.153
37861SOL    HW115415  13.982  13.316   6.079
37861SOL    HW215416  13.993  13.328   6.230
37862SOL     OW15417   4.203   7.538  11.198
37862SOL    HW115418   4.292   7.559  11.228
37862SOL    HW215419   4.173   7.619  11.156
37863SOL     OW15420  14.158  10.959  13.618
37863SOL    HW115421  14.142  11.053  13.621
37863SOL    HW215422  14.127  10.927  13.703
37864SOL     OW15423   0.752  12.767  14.523
37864SOL    HW115424   0.686  12.720  14.573
37864SOL    HW215425   0.835  12.731  14.554
37865SOL     OW15426  13.834   8.332   2.853
37865SOL    HW115427  13.781   8.262   2.814
37865SOL    HW215428  13.900   8.286   2.905
37866SOL     OW15429   4.611   4.677   6.909
37866SOL    HW115430   4.582   4.640   6.992
37866SOL    HW215431   4.550   4.748   6.891
37867SOL     OW15432  12.752  12.236  13.447
37867SOL    HW115433  12.683  12.170  13.451
37867SOL    HW215434  12.707  12.320  13.445
37868SOL     OW15435  11.281   7.830   5.383
37868SOL    HW115436  11.295   7.736   5.389
37868SOL    HW215437  11.369   7.868   5.382
37869SOL     OW15438   2.057   7.963   4.290
37869SOL    HW115439   2.099   7.903   4.230
37869SOL    HW215440   2.129   8.005   4.338
37870SOL     OW15441   8.622  14.382  12.028
37870SOL    HW115442   8.593  14.296  12.059
37870SOL    HW215443   8.593  14.385  11.937
37871SOL     OW15444   2.850   3.243   9.349
37871SOL    HW115445   2.913   3.223   9.280
37871SOL    HW215446   2.865   3.176   9.415
37872SOL     OW15447   4.268   1.142   9.001
37872SOL    HW115448   4.210   1.066   8.988
37872SOL    HW215449   4.250   1.171   9.090
37873SOL     OW15450   9.001   7.610   9.085
37873SOL    HW115451   8.918   7.564   9.097
37873SOL    HW215452   9.041   7.612   9.172
37874SOL     OW15453   3.486   2.880   8.634
37874SOL    HW115454   3.495   2.948   8.567
37874SOL    HW215455   3.564   2.825   8.621
37875SOL     OW15456   2.976  12.776   1.902
37875SOL    HW115457   2.942  12.865   1.908
37875SOL    HW215458   3.037  12.779   1.828
37876SOL     OW15459   4.572  11.356   1.685
37876SOL    HW115460   4.640  11.299   1.648
37876SOL    HW215461   4.492  11.328   1.640
37877SOL     OW15462  12.663   6.495   2.839
37877SOL    HW115463  12.662   6.503   2.743
37877SOL    HW215464  12.731   6.430   2.857
37878SOL     OW15465   6.753   8.880   0.868
37878SOL    HW115466   6.815   8.859   0.798
37878SOL    HW215467   6.694   8.805   0.872
37879SOL     OW15468   2.150   2.156   1.661
37879SOL    HW115469   2.118   2.070   1.637
37879SOL    HW215470   2.239   2.140   1.694
37880SOL     OW15471   4.554   7.546   0.037
37880SOL    HW115472   4.615   7.506   0.099
37880SOL    HW215473   4.611   7.594  14.859
37881SOL     OW15474   4.896   0.846  14.490
37881SOL    HW115475   4.824   0.833  14.428
37881SOL    HW215476   4.893   0.939  14.511
37882SOL     OW15477   4.088  14.278  12.234
37882SOL    HW115478   4.092  14.279  12.330
37882SOL    HW215479   4.105  14.368  12.209
37883SOL     OW15480  12.949   1.125   6.162
37883SOL    HW115481  12.868   1.132   6.212
37883SOL    HW215482  12.932   1.055   6.099
37884SOL     OW15483   0.412   8.901   7.007
37884SOL    HW115484   0.416   8.812   6.972
37884SOL    HW215485   0.346   8.945   6.954
37885SOL     OW15486  14.021   2.178  13.533
37885SOL    HW115487  14.008   2.128  13.614
37885SOL    HW215488  14.028   2.269  13.561
37886SOL     OW15489   0.064  11.051  13.819
37886SOL    HW115490   0.007  11.077  13.747
37886SOL    HW215491   0.117  11.128  13.837
37887SOL     OW15492   1.336   6.155   9.878
37887SOL    HW115493   1.259   6.141   9.933
37887SOL    HW215494   1.395   6.083   9.900
37888SOL     OW15495   9.908   5.260   2.901
37888SOL    HW115496   9.908   5.164   2.904
37888SOL    HW215497   9.965   5.285   2.974
37889SOL     OW15498  10.865   8.269   7.290
37889SOL    HW115499  10.869   8.248   7.197
37889SOL    HW215500  10.772   8.282   7.309
37890SOL     OW15501   7.763   2.438   9.617
37890SOL    HW115502   7.713   2.474   9.691
37890SOL    HW215503   7.732   2.489   9.542
37891SOL     OW15504   7.345   8.926   4.269
37891SOL    HW115505   7.331   9.021   4.276
37891SOL    HW215506   7.371   8.899   4.357
37892SOL     OW15507   3.975   6.148  13.482
37892SOL    HW115508   3.912   6.076  13.478
37892SOL    HW215509   4.018   6.138  13.567
37893SOL     OW15510   0.828   6.303  12.293
37893SOL    HW115511   0.777   6.371  12.338
37893SOL    HW215512   0.777   6.283  12.215
37894SOL     OW15513   2.978   3.501   2.504
37894SOL    HW115514   3.002   3.558   2.577
37894SOL    HW215515   2.962   3.416   2.544
37895SOL     OW15516   6.273   8.194   0.244
37895SOL    HW115517   6.322   8.213   0.164
37895SOL    HW215518   6.335   8.210   0.315
37896SOL     OW15519   6.010  10.124  10.820
37896SOL    HW115520   5.992  10.210  10.859
37896SOL    HW215521   6.044  10.072  10.893
37897SOL     OW15522   0.754   8.782   5.443
37897SOL    HW115523   0.701   8.816   5.371
37897SOL    HW215524   0.844   8.792   5.414
37898SOL     OW15525  12.015   0.505   4.775
37898SOL    HW115526  12.109   0.507   4.790
37898SOL    HW215527  11.999   0.579   4.717
37899SOL     OW15528   2.715   5.227  13.531
37899SOL    HW115529   2.634   5.177  13.539
37899SOL    HW215530   2.703   5.281  13.453
37900SOL     OW15531   0.678   7.664  10.371
37900SOL    HW115532   0.647   7.579  10.403
37900SOL    HW215533   0.745   7.642  10.306
37901SOL     OW15534   2.443   1.880  11.516
37901SOL    HW115535   2.446   1.911  11.607
37901SOL    HW215536   2.528   1.839  11.501
37902SOL     OW15537   0.570   5.708  12.013
37902SOL    HW115538   0.665   5.718  12.017
37902SOL    HW215539   0.558   5.625  11.966
37903SOL     OW15540  11.746  11.587   1.115
37903SOL    HW115541  11.788  11.513   1.070
37903SOL    HW215542  11.656  11.587   1.083
37904SOL     OW15543   1.199  11.828  13.299
37904SOL    HW115544   1.145  11.831  13.220
37904SOL    HW215545   1.255  11.751  13.287
37905SOL     OW15546  10.708   7.555  10.595
37905SOL    HW115547  10.662   7.589  10.518
37905SOL    HW215548  10.728   7.464  10.572
37906SOL     OW15549   9.947   9.947   3.792
37906SOL    HW115550   9.880   9.894   3.747
37906SOL    HW215551  10.020   9.949   3.731
37907SOL     OW15552  11.140  11.718  14.231
37907SOL    HW115553  11.185  11.686  14.152
37907SOL    HW215554  11.163  11.653  14.299
37908SOL     OW15555   8.187  10.171  14.290
37908SOL    HW115556   8.255  10.185  14.355
37908SOL    HW215557   8.133  10.250  14.293
37909SOL     OW15558  12.138   9.184  10.418
37909SOL    HW115559  12.063   9.158  10.364
37909SOL    HW215560  12.107   9.262  10.464
37910SOL     OW15561  11.905   2.536   9.861
37910SOL    HW115562  11.911   2.619   9.813
37910SOL    HW215563  11.991   2.526   9.902
37911SOL     OW15564   4.147  10.189   0.017
37911SOL    HW115565   4.202  10.147   0.083
37911SOL    HW215566   4.060  10.154   0.031
37912SOL     OW15567  11.963   0.491   8.999
37912SOL    HW115568  12.004   0.495   9.086
37912SOL    HW215569  12.026   0.444   8.945
37913SOL     OW15570   1.062  13.640  10.257
37913SOL    HW115571   1.137  13.592  10.291
37913SOL    HW215572   0.986  13.601  10.301
37914SOL     OW15573  14.157   8.251   4.425
37914SOL    HW115574  14.137   8.301   4.504
37914SOL    HW215575  14.071   8.226   4.391
37915SOL     OW15576   2.506   6.250  12.992
37915SOL    HW115577   2.447   6.214  13.058
37915SOL    HW215578   2.578   6.187  12.987
37916SOL     OW15579  10.159  12.110   4.755
37916SOL    HW115580  10.082  12.146   4.710
37916SOL    HW215581  10.129  12.026   4.790
37917SOL     OW15582   3.464   5.817   5.395
37917SOL    HW115583   3.505   5.731   5.404
37917SOL    HW215584   3.370   5.800   5.407
37918SOL     OW15585   5.263  13.475   7.988
37918SOL    HW115586   5.293  13.396   8.033
37918SOL    HW215587   5.302  13.469   7.900
37919SOL     OW15588  12.140  11.162   0.564
37919SOL    HW115589  12.132  11.170   0.469
37919SOL    HW215590  12.135  11.068   0.580
37920SOL     OW15591  14.561   5.742   7.789
37920SOL    HW115592  14.468   5.743   7.813
37920SOL    HW215593  14.581   5.649   7.776
37921SOL     OW15594   9.986   0.309  12.956
37921SOL    HW115595   9.905   0.291  12.908
37921SOL    HW215596  10.041   0.357  12.894
37922SOL     OW15597  10.116  14.796  13.021
37922SOL    HW115598  10.161  14.776  13.104
37922SOL    HW215599  10.138   0.006  13.005
37923SOL     OW15600   5.450   1.531   7.494
37923SOL    HW115601   5.390   1.604   7.510
37923SOL    HW215602   5.403   1.475   7.432
37924SOL     OW15603   7.397   5.266   4.626
37924SOL    HW115604   7.334   5.194   4.627
37924SOL    HW215605   7.446   5.254   4.544
37925SOL     OW15606   5.639   2.957   2.871
37925SOL    HW115607   5.562   2.938   2.817
37925SOL    HW215608   5.638   2.891   2.940
37926SOL     OW15609  11.471   1.761   3.196
37926SOL    HW115610  11.444   1.675   3.165
37926SOL    HW215611  11.456   1.819   3.121
37927SOL     OW15612   3.665  10.625   7.813
37927SOL    HW115613   3.700  10.609   7.725
37927SOL    HW215614   3.671  10.540   7.857
37928SOL     OW15615   3.120  13.932   3.941
37928SOL    HW115616   3.042  13.882   3.917
37928SOL    HW215617   3.154  13.887   4.018
37929SOL     OW15618   7.655  14.460   6.688
37929SOL    HW115619   7.581  14.506   6.726
37929SOL    HW215620   7.718  14.453   6.760
37930SOL     OW15621   2.269   9.456   9.879
37930SOL    HW115622   2.222   9.506   9.945
37930SOL    HW215623   2.361   9.460   9.907
37931SOL     OW15624   6.263   3.316   0.355
37931SOL    HW115625   6.170   3.335   0.367
37931SOL    HW215626   6.308   3.385   0.404
37932SOL     OW15627   0.131   3.797   2.130
37932SOL    HW115628   0.174   3.877   2.161
37932SOL    HW215629   0.195   3.728   2.147
37933SOL     OW15630   9.148   2.917   0.065
37933SOL    HW115631   9.091   2.874   0.128
37933SOL    HW215632   9.120   2.884  14.862
37934SOL     OW15633  14.038   0.073  10.868
37934SOL    HW115634  14.073   0.127  10.939
37934SOL    HW215635  14.035  14.866  10.904
37935SOL     OW15636  10.506  11.273   4.327
37935SOL    HW115637  10.479  11.183   4.344
37935SOL    HW215638  10.472  11.293   4.240
37936SOL     OW15639   2.739  14.466  13.516
37936SOL    HW115640   2.749  14.428  13.603
37936SOL    HW215641   2.819  14.440  13.469
37937SOL     OW15642  12.816   5.271   5.745
37937SOL    HW115643  12.721   5.277   5.753
37937SOL    HW215644  12.840   5.192   5.794
37938SOL     OW15645  13.317  11.382  11.423
37938SOL    HW115646  13.265  11.320  11.371
37938SOL    HW215647  13.347  11.447  11.359
37939SOL     OW15648   2.302  13.210  10.148
37939SOL    HW115649   2.369  13.142  10.137
37939SOL    HW215650   2.353  13.290  10.164
37940SOL     OW15651   5.448  14.598   9.905
37940SOL    HW115652   5.374  14.642   9.864
37940SOL    HW215653   5.493  14.667   9.954
37941SOL     OW15654  12.394  12.611   5.313
37941SOL    HW115655  12.310  12.625   5.269
37941SOL    HW215656  12.459  12.618   5.243
37942SOL     OW15657   2.138   4.476  13.190
37942SOL    HW115658   2.056   4.434  13.216
37942SOL    HW215659   2.112   4.542  13.126
37943SOL     OW15660   5.521   9.799  10.358
37943SOL    HW115661   5.476   9.745  10.423
37943SOL    HW215662   5.500   9.759  10.274
37944SOL     OW15663   8.768   9.396  14.511
37944SOL    HW115664   8.719   9.446  14.578
37944SOL    HW215665   8.804   9.322  14.559
37945SOL     OW15666   6.523   0.352   1.803
37945SOL    HW115667   6.504   0.341   1.896
37945SOL    HW215668   6.474   0.430   1.777
37946SOL     OW15669  11.862  12.072   5.033
37946SOL    HW115670  11.788  12.017   5.061
37946SOL    HW215671  11.919  12.076   5.110
37947SOL     OW15672   0.439   0.884   7.251
37947SOL    HW115673   0.519   0.933   7.233
37947SOL    HW215674   0.453   0.846   7.338
37948SOL     OW15675  13.648   3.270   9.668
37948SOL    HW115676  13.665   3.298   9.578
37948SOL    HW215677  13.699   3.189   9.678
37949SOL     OW15678   3.330  13.082   2.996
37949SOL    HW115679   3.326  13.025   2.919
37949SOL    HW215680   3.260  13.145   2.983
37950SOL     OW15681  11.696   5.355  14.841
37950SOL    HW115682  11.669   5.377  14.752
37950SOL    HW215683  11.635   5.286  14.867
37951SOL     OW15684  11.578   5.615  12.255
37951SOL    HW115685  11.508   5.639  12.316
37951SOL    HW215686  11.658   5.636  12.302
37952SOL     OW15687   4.860   3.320   1.665
37952SOL    HW115688   4.848   3.261   1.739
37952SOL    HW215689   4.920   3.273   1.607
37953SOL     OW15690   1.067   2.507  13.389
37953SOL    HW115691   1.016   2.487  13.467
37953SOL    HW215692   1.003   2.506  13.318
37954SOL     OW15693  13.352   6.611   2.800
37954SOL    HW115694  13.441   6.579   2.816
37954SOL    HW215695  13.341   6.684   2.860
37955SOL     OW15696   4.141  12.987  11.945
37955SOL    HW115697   4.185  12.987  11.860
37955SOL    HW215698   4.057  13.031  11.929
37956SOL     OW15699   1.817  13.088   1.622
37956SOL    HW115700   1.908  13.082   1.595
37956SOL    HW215701   1.803  13.011   1.677
37957SOL     OW15702  13.199  10.827   7.260
37957SOL    HW115703  13.179  10.741   7.297
37957SOL    HW215704  13.287  10.817   7.223
37958SOL     OW15705   2.047   4.983   1.548
37958SOL    HW115706   2.114   5.035   1.504
37958SOL    HW215707   1.967   5.036   1.539
37959SOL     OW15708   2.054  13.314   0.987
37959SOL    HW115709   1.971  13.318   0.939
37959SOL    HW215710   2.087  13.403   0.986
37960SOL     OW15711   6.743   9.675  10.095
37960SOL    HW115712   6.724   9.603  10.035
37960SOL    HW215713   6.682   9.744  10.070
37961SOL     OW15714  10.781   6.067  11.799
37961SOL    HW115715  10.693   6.048  11.768
37961SOL    HW215716  10.813   5.984  11.835
37962SOL     OW15717   1.922   3.584   7.333
37962SOL    HW115718   1.852   3.620   7.388
37962SOL    HW215719   1.890   3.594   7.244
37963SOL     OW15720  10.082   2.457   1.230
37963SOL    HW115721  10.003   2.443   1.282
37963SOL    HW215722  10.063   2.418   1.145
37964SOL     OW15723  11.643   1.300  10.254
37964SOL    HW115724  11.593   1.350  10.191
37964SOL    HW215725  11.678   1.225  10.205
37965SOL     OW15726   5.151   2.206  12.468
37965SOL    HW115727   5.185   2.295  12.458
37965SOL    HW215728   5.201   2.169  12.540
37966SOL     OW15729  14.288   6.379   7.942
37966SOL    HW115730  14.330   6.298   7.913
37966SOL    HW215731  14.289   6.373   8.038
37967SOL     OW15732  13.022  12.226  14.348
37967SOL    HW115733  12.968  12.214  14.270
37967SOL    HW215734  13.105  12.184  14.326
37968SOL     OW15735   6.111   8.391  14.384
37968SOL    HW115736   6.126   8.486  14.377
37968SOL    HW215737   6.191   8.358  14.425
37969SOL     OW15738   5.893  11.182   7.349
37969SOL    HW115739   5.955  11.114   7.371
37969SOL    HW215740   5.946  11.256   7.320
37970SOL     OW15741   7.388  12.445   4.745
37970SOL    HW115742   7.337  12.473   4.669
37970SOL    HW215743   7.324  12.439   4.816
37971SOL     OW15744   1.786   1.431   5.740
37971SOL    HW115745   1.766   1.448   5.647
37971SOL    HW215746   1.866   1.481   5.756
37972SOL     OW15747  13.612   3.278   4.851
37972SOL    HW115748  13.614   3.292   4.946
37972SOL    HW215749  13.699   3.245   4.830
37973SOL     OW15750  10.132  11.561   7.830
37973SOL    HW115751  10.055  11.538   7.778
37973SOL    HW215752  10.096  11.594   7.913
37974SOL     OW15753   2.195   8.567   9.498
37974SOL    HW115754   2.190   8.531   9.587
37974SOL    HW215755   2.105   8.588   9.476
37975SOL     OW15756   0.333   7.100   7.018
37975SOL    HW115757   0.405   7.087   7.080
37975SOL    HW215758   0.276   7.024   7.031
37976SOL     OW15759  14.286   8.846  14.841
37976SOL    HW115760  14.207   8.792  14.841
37976SOL    HW215761  14.355   8.787  14.812
37977SOL     OW15762   1.657  11.051  13.363
37977SOL    HW115763   1.627  11.085  13.447
37977SOL    HW215764   1.644  10.956  13.369
37978SOL     OW15765   7.321   4.824  10.088
37978SOL    HW115766   7.343   4.910  10.053
37978SOL    HW215767   7.240   4.839  10.138
37979SOL     OW15768   4.091   6.293  11.458
37979SOL    HW115769   4.094   6.243  11.376
37979SOL    HW215770   4.031   6.245  11.514
37980SOL     OW15771  11.157   8.924   1.767
37980SOL    HW115772  11.221   8.995   1.758
37980SOL    HW215773  11.190   8.872   1.840
37981SOL     OW15774   6.459   2.677   5.965
37981SOL    HW115775   6.544   2.693   6.006
37981SOL    HW215776   6.396   2.723   6.020
37982SOL     OW15777   0.399  11.809   3.057
37982SOL    HW115778   0.435  11.780   2.973
37982SOL    HW215779   0.396  11.904   3.050
37983SOL     OW15780  13.737   0.118   0.686
37983SOL    HW115781  13.737   0.166   0.769
37983SOL    HW215782  13.667   0.157   0.635
37984SOL     OW15783   0.160  14.633   0.100
37984SOL    HW115784   0.224  14.674   0.041
37984SOL    HW215785   0.185  14.665   0.187
37985SOL     OW15786   5.142   4.171   5.375
37985SOL    HW115787   5.169   4.080   5.390
37985SOL    HW215788   5.108   4.199   5.460
37986SOL     OW15789   4.037  13.520  10.648
37986SOL    HW115790   4.073  13.465  10.578
37986SOL    HW215791   4.004  13.598  10.603
37987SOL     OW15792   1.107   2.874  14.712
37987SOL    HW115793   1.082   2.784  14.733
37987SOL    HW215794   1.187   2.865  14.660
37988SOL     OW15795  12.466   0.787   1.212
37988SOL    HW115796  12.453   0.706   1.262
37988SOL    HW215797  12.463   0.856   1.277
37989SOL     OW15798   5.412  10.634   9.511
37989SOL    HW115799   5.502  10.616   9.538
37989SOL    HW215800   5.372  10.675   9.588
37990SOL     OW15801   6.645   2.598   0.640
37990SOL    HW115802   6.716   2.560   0.588
37990SOL    HW215803   6.575   2.615   0.576
37991SOL     OW15804   6.544   6.134   6.931
37991SOL    HW115805   6.498   6.142   7.014
37991SOL    HW215806   6.486   6.082   6.876
37992SOL     OW15807  13.036  14.285   1.418
37992SOL    HW115808  12.990  14.369   1.409
37992SOL    HW215809  12.991  14.227   1.357
37993SOL     OW15810   0.100   3.467   8.914
37993SOL    HW115811   0.143   3.405   8.972
37993SOL    HW215812   0.127   3.441   8.826
37994SOL     OW15813   1.706   2.756   5.539
37994SOL    HW115814   1.797   2.781   5.553
37994SOL    HW215815   1.688   2.781   5.449
37995SOL     OW15816   0.504   7.472   6.397
37995SOL    HW115817   0.456   7.428   6.327
37995SOL    HW215818   0.571   7.409   6.423
37996SOL     OW15819   3.068  11.568  13.265
37996SOL    HW115820   3.002  11.519  13.314
37996SOL    HW215821   3.044  11.660  13.277
37997SOL     OW15822  11.794   9.294   1.416
37997SOL    HW115823  11.853   9.360   1.380
37997SOL    HW215824  11.710   9.339   1.423
37998SOL     OW15825   3.864   1.257   3.961
37998SOL    HW115826   3.878   1.347   3.930
37998SOL    HW215827   3.944   1.211   3.937
37999SOL     OW15828   6.019   9.038  10.899
37999SOL    HW115829   6.112   9.019  10.910
37999SOL    HW215830   5.980   8.955  10.873
38000SOL     OW15831   9.012   4.997   7.314
38000SOL    HW115832   9.008   5.065   7.382
38000SOL    HW215833   9.090   4.947   7.335
38001SOL     OW15834   1.257   1.222   2.023
38001SOL    HW115835   1.206   1.199   2.101
38001SOL    HW215836   1.329   1.275   2.057
38002SOL     OW15837  12.907   8.834  14.801
38002SOL    HW115838  13.002   8.839  14.815
38002SOL    HW215839  12.876   8.774  14.869
38003SOL     OW15840   5.513  11.213   5.304
38003SOL    HW115841   5.458  11.288   5.280
38003SOL    HW215842   5.559  11.242   5.383
38004SOL     OW15843  11.450   0.871  11.237
38004SOL    HW115844  11.436   0.940  11.301
38004SOL    HW215845  11.389   0.891  11.166
38005SOL     OW15846   0.148   7.132  10.998
38005SOL    HW115847   0.132   7.226  11.005
38005SOL    HW215848   0.237   7.125  10.963
38006SOL     OW15849   1.020   6.556   7.600
38006SOL    HW115850   1.051   6.489   7.661
38006SOL    HW215851   1.029   6.516   7.514
38007SOL     OW15852   0.608  11.881  14.243
38007SOL    HW115853   0.530  11.936  14.237
38007SOL    HW215854   0.675  11.930  14.196
38008SOL     OW15855  11.113  11.808  10.871
38008SOL    HW115856  11.202  11.774  10.861
38008SOL    HW215857  11.056  11.731  10.867
38009SOL     OW15858   3.500   4.163   1.612
38009SOL    HW115859   3.540   4.246   1.586
38009SOL    HW215860   3.475   4.177   1.704
38010SOL     OW15861  12.142   7.569  14.303
38010SOL    HW115862  12.160   7.593  14.394
38010SOL    HW215863  12.168   7.477  14.297
38011SOL     OW15864   6.416   7.678  13.487
38011SOL    HW115865   6.348   7.721  13.538
38011SOL    HW215866   6.430   7.736  13.412
38012SOL     OW15867   9.960   9.823   0.118
38012SOL    HW115868   9.941   9.904   0.071
38012SOL    HW215869  10.011   9.850   0.194
38013SOL     OW15870   7.973  11.258  13.994
38013SOL    HW115871   8.015  11.331  13.948
38013SOL    HW215872   8.006  11.179  13.950
38014SOL     OW15873  13.086  12.859   5.220
38014SOL    HW115874  13.077  12.766   5.202
38014SOL    HW215875  13.176  12.868   5.254
38015SOL     OW15876  11.959   0.347  10.763
38015SOL    HW115877  11.915   0.321  10.683
38015SOL    HW215878  11.895   0.330  10.832
38016SOL     OW15879   3.223   6.232   4.852
38016SOL    HW115880   3.207   6.285   4.774
38016SOL    HW215881   3.308   6.192   4.836
38017SOL     OW15882   0.750  13.801   4.889
38017SOL    HW115883   0.746  13.763   4.977
38017SOL    HW215884   0.813  13.873   4.897
38018SOL     OW15885   7.194   4.289   5.956
38018SOL    HW115886   7.144   4.208   5.966
38018SOL    HW215887   7.286   4.261   5.964
38019SOL     OW15888   6.526  14.228  12.115
38019SOL    HW115889   6.522  14.244  12.209
38019SOL    HW215890   6.465  14.155  12.100
38020SOL     OW15891   8.751   2.372  13.546
38020SOL    HW115892   8.682   2.338  13.490
38020SOL    HW215893   8.799   2.294  13.575
38021SOL     OW15894   4.803   8.518   2.019
38021SOL    HW115895   4.763   8.439   1.983
38021SOL    HW215896   4.729   8.568   2.055
38022SOL     OW15897   5.395   5.530   6.551
38022SOL    HW115898   5.468   5.477   6.519
38022SOL    HW215899   5.430   5.575   6.628
38023SOL     OW15900   3.020   0.011   0.116
38023SOL    HW115901   3.024  14.798   0.116
38023SOL    HW215902   3.095   0.039   0.063
38024SOL     OW15903  12.779   3.197   4.302
38024SOL    HW115904  12.834   3.272   4.281
38024SOL    HW215905  12.810   3.167   4.388
38025SOL     OW15906   8.749  11.384   9.758
38025SOL    HW115907   8.802  11.350   9.685
38025SOL    HW215908   8.803  11.454   9.796
38026SOL     OW15909   1.267   4.256  10.785
38026SOL    HW115910   1.361   4.271  10.796
38026SOL    HW215911   1.239   4.214  10.866
38027SOL     OW15912   7.829   9.860   3.018
38027SOL    HW115913   7.883   9.805   2.961
38027SOL    HW215914   7.846   9.949   2.988
38028SOL     OW15915   4.491   0.614  10.306
38028SOL    HW115916   4.479   0.608  10.401
38028SOL    HW215917   4.572   0.567  10.289
38029SOL     OW15918   0.307   5.446   9.458
38029SOL    HW115919   0.257   5.487   9.387
38029SOL    HW215920   0.391   5.492   9.457
38030SOL     OW15921   3.193   3.824   4.412
38030SOL    HW115922   3.110   3.781   4.394
38030SOL    HW215923   3.237   3.829   4.327
38031SOL     OW15924   0.884   6.215   4.864
38031SOL    HW115925   0.807   6.249   4.820
38031SOL    HW215926   0.869   6.121   4.873
38032SOL     OW15927   8.523   1.842   6.917
38032SOL    HW115928   8.504   1.754   6.884
38032SOL    HW215929   8.543   1.894   6.839
38033SOL     OW15930   9.933  12.962   3.275
38033SOL    HW115931   9.983  12.933   3.351
38033SOL    HW215932   9.968  12.909   3.203
38034SOL     OW15933   1.046  10.072   2.581
38034SOL    HW115934   0.976  10.124   2.620
38034SOL    HW215935   1.002  10.022   2.512
38035SOL     OW15936   8.969   1.016   0.899
38035SOL    HW115937   9.010   1.062   0.826
38035SOL    HW215938   8.980   0.923   0.878
38036SOL     OW15939  12.060   5.846  12.430
38036SOL    HW115940  11.994   5.808  12.488
38036SOL    HW215941  12.091   5.772  12.378
38037SOL     OW15942  12.393   8.784   8.065
38037SOL    HW115943  12.366   8.876   8.053
38037SOL    HW215944  12.441   8.784   8.148
38038SOL     OW15945   5.979  11.435   8.838
38038SOL    HW115946   5.978  11.482   8.754
38038SOL    HW215947   5.923  11.487   8.895
38039SOL     OW15948   9.413   0.494   6.925
38039SOL    HW115949   9.336   0.521   6.975
38039SOL    HW215950   9.381   0.429   6.863
38040SOL     OW15951   2.063   3.273   8.756
38040SOL    HW115952   1.989   3.285   8.696
38040SOL    HW215953   2.103   3.360   8.764
38041SOL     OW15954  12.712   8.384  11.608
38041SOL    HW115955  12.617   8.382  11.591
38041SOL    HW215956  12.751   8.395  11.521
38042SOL     OW15957   3.612  11.403  14.687
38042SOL    HW115958   3.692  11.427  14.639
38042SOL    HW215959   3.633  11.319  14.728
38043SOL     OW15960   3.998   6.481   2.145
38043SOL    HW115961   3.948   6.525   2.077
38043SOL    HW215962   3.986   6.387   2.128
38044SOL     OW15963   6.586   4.266   7.824
38044SOL    HW115964   6.612   4.187   7.872
38044SOL    HW215965   6.491   4.271   7.835
38045SOL     OW15966   6.140   5.956   1.908
38045SOL    HW115967   6.098   5.891   1.853
38045SOL    HW215968   6.177   5.906   1.981
38046SOL     OW15969   6.885   7.817   3.242
38046SOL    HW115970   6.868   7.800   3.149
38046SOL    HW215971   6.800   7.846   3.277
38047SOL     OW15972  14.471   9.616  10.953
38047SOL    HW115973  14.454   9.602  10.859
38047SOL    HW215974  14.535   9.549  10.975
38048SOL     OW15975   7.908  10.125   3.669
38048SOL    HW115976   7.956  10.096   3.746
38048SOL    HW215977   7.832  10.066   3.665
38049SOL     OW15978  11.206   4.312   6.911
38049SOL    HW115979  11.286   4.363   6.918
38049SOL    HW215980  11.221   4.255   6.836
38050SOL     OW15981   2.727   9.992   8.213
38050SOL    HW115982   2.733   9.942   8.131
38050SOL    HW215983   2.667  10.064   8.193
38051SOL     OW15984   1.136   3.346  14.618
38051SOL    HW115985   1.166   3.297  14.695
38051SOL    HW215986   1.114   3.432  14.652
38052SOL     OW15987  14.300   2.364   8.613
38052SOL    HW115988  14.210   2.340   8.631
38052SOL    HW215989  14.352   2.297   8.657
38053SOL     OW15990   3.728   2.504   4.984
38053SOL    HW115991   3.719   2.493   4.890
38053SOL    HW215992   3.770   2.423   5.014
38054SOL     OW15993  14.237  12.402   7.891
38054SOL    HW115994  14.151  12.443   7.897
38054SOL    HW215995  14.296  12.473   7.868
38055SOL     OW15996   7.131  13.806   8.122
38055SOL    HW115997   7.220  13.776   8.139
38055SOL    HW215998   7.093  13.822   8.208
38056SOL     OW15999   6.418   8.569   0.628
38056SOL    HW116000   6.385   8.598   0.544
38056SOL    HW216001   6.487   8.506   0.606
38057SOL     OW16002  12.452  11.642   8.082
38057SOL    HW116003  12.513  11.712   8.061
38057SOL    HW216004  12.375  11.687   8.119
38058SOL     OW16005   6.140   1.048   1.381
38058SOL    HW116006   6.153   1.106   1.456
38058SOL    HW216007   6.056   1.005   1.399
38059SOL     OW16008   2.683   9.603   4.393
38059SOL    HW116009   2.709   9.536   4.455
38059SOL    HW216010   2.713   9.685   4.433
38060SOL     OW16011  13.476   6.082   7.957
38060SOL    HW116012  13.446   6.017   7.894
38060SOL    HW216013  13.422   6.159   7.939
38061SOL     OW16014   9.330  11.945   7.196
38061SOL    HW116015   9.326  11.884   7.270
38061SOL    HW216016   9.416  11.987   7.205
38062SOL     OW16017   1.128   1.310   1.453
38062SOL    HW116018   1.102   1.390   1.500
38062SOL    HW216019   1.084   1.239   1.500
38063SOL     OW16020   9.394   9.860  13.449
38063SOL    HW116021   9.341   9.940  13.441
38063SOL    HW216022   9.484   9.890  13.440
38064SOL     OW16023  12.097   0.518   3.426
38064SOL    HW116024  12.056   0.557   3.348
38064SOL    HW216025  12.024   0.493   3.482
38065SOL     OW16026   0.266  12.545   6.893
38065SOL    HW116027   0.298  12.577   6.809
38065SOL    HW216028   0.178  12.513   6.875
38066SOL     OW16029  14.699   8.045  13.308
38066SOL    HW116030  14.712   8.064  13.215
38066SOL    HW216031  14.611   8.076  13.327
38067SOL     OW16032   9.747  10.165   5.464
38067SOL    HW116033   9.797  10.131   5.539
38067SOL    HW216034   9.803  10.231   5.425
38068SOL     OW16035   8.245  12.882   4.555
38068SOL    HW116036   8.332  12.907   4.588
38068SOL    HW216037   8.211  12.962   4.515
38069SOL     OW16038  13.202   3.369   7.718
38069SOL    HW116039  13.280   3.400   7.764
38069SOL    HW216040  13.236   3.327   7.639
38070SOL     OW16041   5.094   4.119  11.927
38070SOL    HW116042   5.012   4.169  11.924
38070SOL    HW216043   5.158   4.175  11.885
38071SOL     OW16044  13.648   0.063   2.713
38071SOL    HW116045  13.554   0.078   2.698
38071SOL    HW216046  13.676   0.012   2.638
38072SOL     OW16047   0.687  13.318   4.825
38072SOL    HW116048   0.670  13.411   4.812
38072SOL    HW216049   0.742  13.314   4.904
38073SOL     OW16050   1.941   4.756   0.579
38073SOL    HW116051   1.960   4.806   0.499
38073SOL    HW216052   1.917   4.823   0.643
38074SOL     OW16053   0.985   8.538  14.599
38074SOL    HW116054   1.076   8.567  14.584
38074SOL    HW216055   0.973   8.464  14.539
38075SOL     OW16056   5.944  11.454  13.748
38075SOL    HW116057   6.009  11.478  13.814
38075SOL    HW216058   5.969  11.365  13.722
38076SOL     OW16059  10.387   7.455   7.579
38076SOL    HW116060  10.336   7.399   7.521
38076SOL    HW216061  10.408   7.532   7.527
38077SOL     OW16062   3.679  14.497  12.127
38077SOL    HW116063   3.733  14.519  12.203
38077SOL    HW216064   3.641  14.581  12.100
38078SOL     OW16065   9.646   9.939  13.301
38078SOL    HW116066   9.642   9.855  13.254
38078SOL    HW216067   9.739   9.962  13.300
38079SOL     OW16068   7.718   7.654   3.976
38079SOL    HW116069   7.785   7.669   4.042
38079SOL    HW216070   7.636   7.673   4.021
38080SOL     OW16071   6.303  12.000  10.003
38080SOL    HW116072   6.282  12.075   9.947
38080SOL    HW216073   6.254  11.927   9.965
38081SOL     OW16074  11.998   5.254   5.038
38081SOL    HW116075  12.038   5.208   5.112
38081SOL    HW216076  11.972   5.339   5.074
38082SOL     OW16077   7.097   9.772   3.458
38082SOL    HW116078   7.115   9.805   3.370
38082SOL    HW216079   7.071   9.850   3.508
38083SOL     OW16080   0.220  14.238   3.149
38083SOL    HW116081   0.195  14.203   3.064
38083SOL    HW216082   0.147  14.296   3.173
38084SOL     OW16083   1.246   7.782  12.552
38084SOL    HW116084   1.276   7.783  12.461
38084SOL    HW216085   1.291   7.707  12.592
38085SOL     OW16086  14.688   5.468   5.540
38085SOL    HW116087  14.765   5.446   5.593
38085SOL    HW216088  14.617   5.476   5.604
38086SOL     OW16089  13.824  12.429  12.092
38086SOL    HW116090  13.854  12.341  12.117
38086SOL    HW216091  13.731  12.417  12.072
38087SOL     OW16092   9.275   8.629   2.152
38087SOL    HW116093   9.300   8.564   2.086
38087SOL    HW216094   9.339   8.700   2.141
38088SOL     OW16095   0.578   9.891   6.950
38088SOL    HW116096   0.600   9.799   6.965
38088SOL    HW216097   0.501   9.906   7.005
38089SOL     OW16098   1.714   9.862  14.552
38089SOL    HW116099   1.632   9.840  14.597
38089SOL    HW216100   1.702   9.828  14.463
38090SOL     OW16101   7.087   5.390   5.883
38090SOL    HW116102   7.106   5.484   5.893
38090SOL    HW216103   7.017   5.387   5.818
38091SOL     OW16104  11.876   5.710  14.689
38091SOL    HW116105  11.927   5.634  14.663
38091SOL    HW216106  11.894   5.775  14.621
38092SOL     OW16107   9.552   8.466  12.734
38092SOL    HW116108   9.631   8.452  12.682
38092SOL    HW216109   9.504   8.383  12.728
38093SOL     OW16110   9.550  11.358  11.431
38093SOL    HW116111   9.594  11.402  11.504
38093SOL    HW216112   9.464  11.399  11.427
38094SOL     OW16113   9.958  12.438   1.944
38094SOL    HW116114   9.936  12.380   1.871
38094SOL    HW216115   9.902  12.409   2.016
38095SOL     OW16116   0.581  11.541  14.730
38095SOL    HW116117   0.503  11.531  14.676
38095SOL    HW216118   0.555  11.512  14.817
38096SOL     OW16119   5.999   4.948  12.388
38096SOL    HW116120   6.077   4.902  12.357
38096SOL    HW216121   5.928   4.914  12.334
38097SOL     OW16122  14.667   5.752   3.603
38097SOL    HW116123  14.727   5.797   3.662
38097SOL    HW216124  14.630   5.681   3.656
38098SOL     OW16125   4.906  10.309  14.228
38098SOL    HW116126   4.979  10.258  14.263
38098SOL    HW216127   4.934  10.333  14.139
38099SOL     OW16128   1.314   0.075  10.659
38099SOL    HW116129   1.326   0.161  10.699
38099SOL    HW216130   1.219   0.065  10.651
38100SOL     OW16131  12.628   7.042  13.772
38100SOL    HW116132  12.605   6.967  13.718
38100SOL    HW216133  12.561   7.044  13.840
38101SOL     OW16134   2.615   6.398  11.276
38101SOL    HW116135   2.543   6.461  11.279
38101SOL    HW216136   2.649   6.397  11.365
38102SOL     OW16137   3.152   4.351  13.904
38102SOL    HW116138   3.113   4.308  13.980
38102SOL    HW216139   3.227   4.399  13.939
38103SOL     OW16140   4.755  14.597   6.829
38103SOL    HW116141   4.791  14.592   6.741
38103SOL    HW216142   4.749  14.506   6.858
38104SOL     OW16143   7.227  14.193   0.498
38104SOL    HW116144   7.297  14.198   0.562
38104SOL    HW216145   7.153  14.155   0.546
38105SOL     OW16146   0.147  13.304   0.573
38105SOL    HW116147   0.082  13.274   0.636
38105SOL    HW216148   0.181  13.386   0.610
38106SOL     OW16149   3.753   5.251   1.850
38106SOL    HW116150   3.689   5.193   1.810
38106SOL    HW216151   3.837   5.210   1.832
38107SOL     OW16152  14.133   9.746  14.315
38107SOL    HW116153  14.045   9.749  14.353
38107SOL    HW216154  14.138   9.659  14.275
38108SOL     OW16155   0.822  11.768  11.624
38108SOL    HW116156   0.876  11.690  11.613
38108SOL    HW216157   0.884  11.841  11.617
38109SOL     OW16158  10.212   4.373   5.423
38109SOL    HW116159  10.240   4.382   5.514
38109SOL    HW216160  10.134   4.318   5.428
38110SOL     OW16161  14.372   6.161  14.795
38110SOL    HW116162  14.356   6.238  14.740
38110SOL    HW216163  14.366   6.194   0.002
38111SOL     OW16164   0.174   9.825   3.411
38111SOL    HW116165   0.094   9.848   3.458
38111SOL    HW216166   0.169   9.877   3.330
38112SOL     OW16167  10.973   1.746   8.549
38112SOL    HW116168  10.890   1.772   8.510
38112SOL    HW216169  10.982   1.803   8.626
38113SOL     OW16170   0.465   3.794  12.514
38113SOL    HW116171   0.373   3.809  12.534
38113SOL    HW216172   0.495   3.734  12.583
38114SOL     OW16173   7.393   4.389  11.467
38114SOL    HW116174   7.487   4.376  11.476
38114SOL    HW216175   7.354   4.330  11.531
38115SOL     OW16176   4.534   9.220   8.918
38115SOL    HW116177   4.457   9.214   8.974
38115SOL    HW216178   4.593   9.152   8.951
38116SOL     OW16179  13.153   7.649   1.582
38116SOL    HW116180  13.176   7.604   1.663
38116SOL    HW216181  13.102   7.585   1.532
38117SOL     OW16182  12.682  14.374   6.580
38117SOL    HW116183  12.608  14.335   6.627
38117SOL    HW216184  12.702  14.311   6.511
38118SOL     OW16185  14.758  11.535   4.069
38118SOL    HW116186  14.671  11.540   4.110
38118SOL    HW216187  14.774  11.622   4.035
38119SOL     OW16188   2.362   2.725   7.960
38119SOL    HW116189   2.310   2.701   8.037
38119SOL    HW216190   2.421   2.793   7.991
38120SOL     OW16191   1.825   9.143  12.425
38120SOL    HW116192   1.809   9.167  12.517
38120SOL    HW216193   1.915   9.109  12.425
38121SOL     OW16194   3.257   6.796   1.129
38121SOL    HW116195   3.200   6.735   1.176
38121SOL    HW216196   3.253   6.766   1.038
38122SOL     OW16197   2.456  14.848  13.783
38122SOL    HW116198   2.539  14.881  13.747
38122SOL    HW216199   2.467  14.853  13.878
38123SOL     OW16200   4.342   7.171  10.786
38123SOL    HW116201   4.376   7.219  10.862
38123SOL    HW216202   4.247   7.177  10.794
38124SOL     OW16203   0.605  12.906   1.118
38124SOL    HW116204   0.619  12.980   1.059
38124SOL    HW216205   0.667  12.839   1.088
38125SOL     OW16206   0.262   3.731   3.890
38125SOL    HW116207   0.314   3.734   3.970
38125SOL    HW216208   0.324   3.703   3.822
38126SOL     OW16209  13.656   1.960   4.342
38126SOL    HW116210  13.710   1.882   4.331
38126SOL    HW216211  13.668   2.009   4.261
38127SOL     OW16212   4.681   5.674   8.471
38127SOL    HW116213   4.677   5.662   8.566
38127SOL    HW216214   4.697   5.587   8.436
38128SOL     OW16215   8.352   8.205   8.473
38128SOL    HW116216   8.439   8.179   8.501
38128SOL    HW216217   8.362   8.230   8.381
38129SOL     OW16218   9.983   8.217   2.438
38129SOL    HW116219   9.986   8.287   2.373
38129SOL    HW216220   9.984   8.262   2.522
38130SOL     OW16221   5.865  12.953   7.145
38130SOL    HW116222   5.929  13.025   7.143
38130SOL    HW216223   5.786  12.990   7.106
38131SOL     OW16224   3.098   0.214   6.391
38131SOL    HW116225   3.127   0.161   6.465
38131SOL    HW216226   3.134   0.301   6.407
38132SOL     OW16227   2.229   1.799   3.727
38132SOL    HW116228   2.322   1.791   3.705
38132SOL    HW216229   2.185   1.800   3.642
38133SOL     OW16230   2.831  13.806   9.364
38133SOL    HW116231   2.790  13.722   9.344
38133SOL    HW216232   2.775  13.871   9.322
38134SOL     OW16233   8.543  14.019   4.360
38134SOL    HW116234   8.570  13.949   4.420
38134SOL    HW216235   8.623  14.069   4.344
38135SOL     OW16236   3.507  11.006   1.713
38135SOL    HW116237   3.427  11.054   1.693
38135SOL    HW216238   3.479  10.914   1.717
38136SOL     OW16239  12.199  13.791   2.536
38136SOL    HW116240  12.136  13.798   2.464
38136SOL    HW216241  12.230  13.701   2.532
38137SOL     OW16242  10.990   6.764  14.378
38137SOL    HW116243  10.954   6.717  14.453
38137SOL    HW216244  10.949   6.851  14.383
38138SOL     OW16245  10.653   7.473  11.624
38138SOL    HW116246  10.666   7.423  11.543
38138SOL    HW216247  10.565   7.508  11.617
38139SOL     OW16248  12.408   0.793  10.160
38139SOL    HW116249  12.330   0.743  10.182
38139SOL    HW216250  12.465   0.783  10.237
38140SOL     OW16251  10.626  13.943  12.402
38140SOL    HW116252  10.615  13.905  12.314
38140SOL    HW216253  10.656  14.032  12.386
38141SOL     OW16254   0.455   0.813   1.811
38141SOL    HW116255   0.391   0.742   1.806
38141SOL    HW216256   0.419   0.874   1.875
38142SOL     OW16257   9.620   0.944   7.983
38142SOL    HW116258   9.530   0.912   7.983
38142SOL    HW216259   9.667   0.883   7.926
38143SOL     OW16260   8.267   1.852   1.071
38143SOL    HW116261   8.272   1.838   0.976
38143SOL    HW216262   8.357   1.844   1.101
38144SOL     OW16263   8.306   3.004   3.019
38144SOL    HW116264   8.347   2.941   3.078
38144SOL    HW216265   8.240   3.048   3.073
38145SOL     OW16266  10.900   0.097  13.570
38145SOL    HW116267  10.810   0.109  13.598
38145SOL    HW216268  10.909   0.002  13.557
38146SOL     OW16269   7.262   6.513  13.356
38146SOL    HW116270   7.220   6.432  13.328
38146SOL    HW216271   7.341   6.519  13.302
38147SOL     OW16272   3.272  11.764   5.981
38147SOL    HW116273   3.307  11.775   6.070
38147SOL    HW216274   3.240  11.851   5.957
38148SOL     OW16275   2.893   0.598  11.929
38148SOL    HW116276   2.840   0.545  11.989
38148SOL    HW216277   2.984   0.578  11.954
38149SOL     OW16278  10.484   9.871   6.368
38149SOL    HW116279  10.432   9.843   6.444
38149SOL    HW216280  10.457   9.813   6.297
38150SOL     OW16281   0.481   0.353   5.598
38150SOL    HW116282   0.559   0.316   5.639
38150SOL    HW216283   0.413   0.287   5.613
38151SOL     OW16284   2.117   3.089  12.406
38151SOL    HW116285   2.182   3.052  12.466
38151SOL    HW216286   2.140   3.053  12.320
38152SOL     OW16287   1.646   0.499   8.566
38152SOL    HW116288   1.651   0.531   8.475
38152SOL    HW216289   1.553   0.502   8.586
38153SOL     OW16290   3.307   3.930  11.627
38153SOL    HW116291   3.224   3.947  11.582
38153SOL    HW216292   3.359   4.009  11.612
38154SOL     OW16293   2.639   8.750   6.194
38154SOL    HW116294   2.650   8.829   6.141
38154SOL    HW216295   2.711   8.692   6.167
38155SOL     OW16296   0.297  13.162   1.751
38155SOL    HW116297   0.234  13.234   1.757
38155SOL    HW216298   0.381  13.205   1.737
38156SOL     OW16299   3.335   7.591  13.654
38156SOL    HW116300   3.341   7.509  13.606
38156SOL    HW216301   3.418   7.597  13.702
38157SOL     OW16302   7.701  13.773  12.952
38157SOL    HW116303   7.668  13.755  13.040
38157SOL    HW216304   7.692  13.868  12.943
38158SOL     OW16305   8.613  12.458   8.979
38158SOL    HW116306   8.704  12.478   9.000
38158SOL    HW216307   8.600  12.369   9.013
38159SOL     OW16308   1.233   1.728  11.979
38159SOL    HW116309   1.199   1.642  12.004
38159SOL    HW216310   1.233   1.727  11.883
38160SOL     OW16311   8.563   6.244   4.108
38160SOL    HW116312   8.587   6.272   4.020
38160SOL    HW216313   8.515   6.319   4.145
38161SOL     OW16314  14.598  12.341  11.295
38161SOL    HW116315  14.578  12.406  11.228
38161SOL    HW216316  14.592  12.388  11.378
38162SOL     OW16317   3.698   6.588   0.936
38162SOL    HW116318   3.607   6.583   0.907
38162SOL    HW216319   3.739   6.509   0.901
38163SOL     OW16320   9.446   3.131   2.231
38163SOL    HW116321   9.485   3.198   2.288
38163SOL    HW216322   9.519   3.071   2.212
38164SOL     OW16323  11.050   1.107   6.436
38164SOL    HW116324  11.103   1.069   6.506
38164SOL    HW216325  10.960   1.101   6.467
38165SOL     OW16326  11.638   2.278   9.770
38165SOL    HW116327  11.703   2.293   9.839
38165SOL    HW216328  11.563   2.331   9.795
38166SOL     OW16329   2.695   7.936   3.237
38166SOL    HW116330   2.725   7.986   3.160
38166SOL    HW216331   2.678   8.003   3.303
38167SOL     OW16332   7.128   3.730   6.219
38167SOL    HW116333   7.153   3.638   6.227
38167SOL    HW216334   7.137   3.750   6.126
38168SOL     OW16335   9.844  12.320   9.455
38168SOL    HW116336   9.767  12.324   9.511
38168SOL    HW216337   9.816  12.269   9.378
38169SOL     OW16338  14.260   8.851  11.770
38169SOL    HW116339  14.340   8.800  11.785
38169SOL    HW216340  14.288   8.926  11.719
38170SOL     OW16341  11.900   8.917   7.083
38170SOL    HW116342  11.951   8.852   7.034
38170SOL    HW216343  11.916   8.896   7.175
38171SOL     OW16344  11.950   9.872   4.006
38171SOL    HW116345  11.959   9.778   4.022
38171SOL    HW216346  11.942   9.911   4.094
38172SOL     OW16347   5.190   5.374   4.242
38172SOL    HW116348   5.181   5.466   4.268
38172SOL    HW216349   5.266   5.373   4.184
38173SOL     OW16350   2.486   4.700  11.702
38173SOL    HW116351   2.546   4.687  11.628
38173SOL    HW216352   2.401   4.673  11.669
38174SOL     OW16353   7.413  12.026   9.312
38174SOL    HW116354   7.393  12.100   9.255
38174SOL    HW216355   7.327  11.992   9.339
38175SOL     OW16356   4.773  13.337   5.118
38175SOL    HW116357   4.755  13.420   5.074
38175SOL    HW216358   4.855  13.352   5.165
38176SOL     OW16359   1.029   5.440   0.125
38176SOL    HW116360   0.943   5.468   0.158
38176SOL    HW216361   1.042   5.353   0.163
38177SOL     OW16362   4.279   8.249   1.750
38177SOL    HW116363   4.235   8.238   1.666
38177SOL    HW216364   4.320   8.164   1.767
38178SOL     OW16365   7.270   3.976   0.188
38178SOL    HW116366   7.324   3.916   0.238
38178SOL    HW216367   7.332   4.021   0.130
38179SOL     OW16368   2.464   7.191  12.394
38179SOL    HW116369   2.389   7.232  12.437
38179SOL    HW216370   2.482   7.113  12.446
38180SOL     OW16371   1.876   6.898  11.931
38180SOL    HW116372   1.845   6.972  11.982
38180SOL    HW216373   1.964   6.923  11.903
38181SOL     OW16374   4.180  14.674   7.017
38181SOL    HW116375   4.154  14.761   7.047
38181SOL    HW216376   4.205  14.688   6.925
38182SOL     OW16377   4.399  13.554   5.451
38182SOL    HW116378   4.395  13.479   5.510
38182SOL    HW216379   4.309  13.566   5.422
38183SOL     OW16380  13.324   0.018  11.624
38183SOL    HW116381  13.251   0.060  11.579
38183SOL    HW216382  13.288  14.817  11.657
38184SOL     OW16383  10.167   1.680  13.716
38184SOL    HW116384  10.189   1.729  13.794
38184SOL    HW216385  10.155   1.746  13.648
38185SOL     OW16386   2.562   6.548   6.483
38185SOL    HW116387   2.526   6.607   6.417
38185SOL    HW216388   2.649   6.581   6.501
38186SOL     OW16389  11.992  13.670   0.828
38186SOL    HW116390  11.922  13.605   0.833
38186SOL    HW216391  11.957  13.748   0.872
38187SOL     OW16392   8.433   2.496  11.443
38187SOL    HW116393   8.490   2.570  11.464
38187SOL    HW216394   8.469   2.460  11.362
38188SOL     OW16395  11.516   2.396   6.331
38188SOL    HW116396  11.526   2.358   6.244
38188SOL    HW216397  11.469   2.479   6.315
38189SOL     OW16398   6.045  14.415  10.501
38189SOL    HW116399   5.960  14.416  10.458
38189SOL    HW216400   6.086  14.498  10.476
38190SOL     OW16401   8.685   0.252   9.001
38190SOL    HW116402   8.748   0.300   8.947
38190SOL    HW216403   8.632   0.203   8.938
38191SOL     OW16404   7.935   6.518  10.948
38191SOL    HW116405   8.000   6.552  10.886
38191SOL    HW216406   7.897   6.596  10.988
38192SOL     OW16407  11.994   6.746   3.304
38192SOL    HW116408  11.944   6.828   3.309
38192SOL    HW216409  12.077   6.772   3.262
38193SOL     OW16410   6.556   9.786   0.285
38193SOL    HW116411   6.595   9.865   0.321
38193SOL    HW216412   6.509   9.746   0.359
38194SOL     OW16413   3.824   3.218  14.244
38194SOL    HW116414   3.873   3.136  14.234
38194SOL    HW216415   3.791   3.236  14.156
38195SOL     OW16416  14.636   7.021  10.095
38195SOL    HW116417  14.727   6.993  10.086
38195SOL    HW216418  14.625   7.037  10.188
38196SOL     OW16419  13.665   7.876   8.456
38196SOL    HW116420  13.658   7.783   8.477
38196SOL    HW216421  13.597   7.918   8.510
38197SOL     OW16422   1.319  13.865   4.161
38197SOL    HW116423   1.264  13.932   4.121
38197SOL    HW216424   1.285  13.783   4.127
38198SOL     OW16425   5.990  11.704  14.322
38198SOL    HW116426   6.035  11.783  14.293
38198SOL    HW216427   5.993  11.707  14.417
38199SOL     OW16428   1.706   8.775   9.332
38199SOL    HW116429   1.716   8.855   9.281
38199SOL    HW216430   1.653   8.717   9.277
38200SOL     OW16431   8.467   2.624   3.903
38200SOL    HW116432   8.425   2.624   3.817
38200SOL    HW216433   8.525   2.701   3.901
38201SOL     OW16434   4.871   5.976  13.499
38201SOL    HW116435   4.948   6.024  13.529
38201SOL    HW216436   4.856   6.007  13.410
38202SOL     OW16437   5.698  10.687  13.121
38202SOL    HW116438   5.671  10.742  13.194
38202SOL    HW216439   5.766  10.737  13.077
38203SOL     OW16440   2.935   4.840   9.473
38203SOL    HW116441   3.015   4.834   9.525
38203SOL    HW216442   2.964   4.876   9.389
38204SOL     OW16443   7.839   2.020   6.215
38204SOL    HW116444   7.924   2.030   6.172
38204SOL    HW216445   7.810   2.110   6.233
38205SOL     OW16446  10.445   4.675   6.826
38205SOL    HW116447  10.527   4.716   6.797
38205SOL    HW216448  10.440   4.694   6.920
38206SOL     OW16449  11.705   7.829  13.016
38206SOL    HW116450  11.634   7.874  12.971
38206SOL    HW216451  11.724   7.884  13.092
38207SOL     OW16452  13.848   8.997   7.671
38207SOL    HW116453  13.919   9.022   7.612
38207SOL    HW216454  13.884   9.010   7.759
38208SOL     OW16455   8.099  12.943   8.802
38208SOL    HW116456   8.017  12.902   8.774
38208SOL    HW216457   8.113  13.014   8.739
38209SOL     OW16458   1.441   1.302   0.182
38209SOL    HW116459   1.488   1.221   0.201
38209SOL    HW216460   1.387   1.281   0.107
38210SOL     OW16461  10.175   2.055   2.536
38210SOL    HW116462  10.160   2.061   2.630
38210SOL    HW216463  10.114   1.988   2.505
38211SOL     OW16464   8.068   2.832   7.427
38211SOL    HW116465   8.089   2.896   7.494
38211SOL    HW216466   8.065   2.882   7.345
38212SOL     OW16467   1.466  11.274  13.183
38212SOL    HW116468   1.388  11.245  13.136
38212SOL    HW216469   1.489  11.200  13.239
38213SOL     OW16470   2.659   5.719   9.112
38213SOL    HW116471   2.694   5.771   9.039
38213SOL    HW216472   2.683   5.767   9.190
38214SOL     OW16473   4.291   2.946  12.004
38214SOL    HW116474   4.229   2.989  12.063
38214SOL    HW216475   4.341   3.017  11.964
38215SOL     OW16476  10.800  13.019   2.278
38215SOL    HW116477  10.858  12.943   2.292
38215SOL    HW216478  10.733  13.010   2.346
38216SOL     OW16479   6.033  14.216  13.131
38216SOL    HW116480   6.087  14.149  13.090
38216SOL    HW216481   5.984  14.256  13.059
38217SOL     OW16482   3.178  12.520  12.685
38217SOL    HW116483   3.194  12.456  12.755
38217SOL    HW216484   3.099  12.490  12.642
38218SOL     OW16485  10.722  12.010   1.882
38218SOL    HW116486  10.741  11.933   1.936
38218SOL    HW216487  10.790  12.073   1.904
38219SOL     OW16488  13.819   3.316   5.367
38219SOL    HW116489  13.781   3.403   5.372
38219SOL    HW216490  13.764   3.262   5.423
38220SOL     OW16491  12.834  12.917  14.586
38220SOL    HW116492  12.903  12.974  14.622
38220SOL    HW216493  12.814  12.856  14.657
38221SOL     OW16494   0.439  11.094  14.705
38221SOL    HW116495   0.383  11.153  14.654
38221SOL    HW216496   0.408  11.104  14.796
38222SOL     OW16497   8.734   3.494   4.097
38222SOL    HW116498   8.710   3.556   4.166
38222SOL    HW216499   8.687   3.414   4.119
38223SOL     OW16500   6.054   7.054   9.439
38223SOL    HW116501   6.032   7.070   9.531
38223SOL    HW216502   6.137   7.099   9.426
38224SOL     OW16503   8.268   6.549   0.426
38224SOL    HW116504   8.277   6.593   0.342
38224SOL    HW216505   8.267   6.620   0.490
38225SOL     OW16506   4.643   9.727   0.673
38225SOL    HW116507   4.665   9.808   0.718
38225SOL    HW216508   4.592   9.755   0.597
38226SOL     OW16509  13.166  14.413   9.939
38226SOL    HW116510  13.174  14.328   9.897
38226SOL    HW216511  13.253  14.452   9.932
38227SOL     OW16512   2.084   5.886   7.523
38227SOL    HW116513   1.990   5.899   7.517
38227SOL    HW216514   2.116   5.900   7.433
38228SOL     OW16515   0.338   9.532  12.494
38228SOL    HW116516   0.404   9.464  12.505
38228SOL    HW216517   0.342   9.554  12.401
38229SOL     OW16518   7.897   6.942   0.719
38229SOL    HW116519   7.877   6.878   0.651
38229SOL    HW216520   7.890   6.893   0.801
38230SOL     OW16521   2.185   9.313   7.977
38230SOL    HW116522   2.165   9.220   7.989
38230SOL    HW216523   2.127   9.358   8.039
38231SOL     OW16524  11.731   9.934  12.451
38231SOL    HW116525  11.641   9.952  12.426
38231SOL    HW216526  11.742   9.840  12.437
38232SOL     OW16527   2.948   4.948   0.149
38232SOL    HW116528   2.948   4.877   0.214
38232SOL    HW216529   2.969   4.904   0.066
38233SOL     OW16530   7.583   1.261   6.855
38233SOL    HW116531   7.524   1.273   6.930
38233SOL    HW216532   7.628   1.345   6.847
38234SOL     OW16533  13.490   8.011   8.628
38234SOL    HW116534  13.416   7.960   8.661
38234SOL    HW216535  13.451   8.083   8.579
38235SOL     OW16536   4.503   8.927   3.672
38235SOL    HW116537   4.440   8.961   3.734
38235SOL    HW216538   4.588   8.948   3.710
38236SOL     OW16539   6.080  13.051   8.214
38236SOL    HW116540   6.134  12.972   8.208
38236SOL    HW216541   5.996  13.026   8.177
38237SOL     OW16542   0.187  13.868  14.321
38237SOL    HW116543   0.133  13.794  14.349
38237SOL    HW216544   0.126  13.925  14.273
38238SOL     OW16545   7.994   5.550   1.774
38238SOL    HW116546   7.917   5.606   1.766
38238SOL    HW216547   7.970   5.485   1.840
38239SOL     OW16548   6.250  10.044  11.778
38239SOL    HW116549   6.225  10.104  11.848
38239SOL    HW216550   6.194   9.968  11.790
38240SOL     OW16551  12.041   0.064   6.309
38240SOL    HW116552  12.017   0.132   6.371
38240SOL    HW216553  12.057  14.869   6.363
38241SOL     OW16554  10.017   6.372   5.829
38241SOL    HW116555   9.992   6.279   5.826
38241SOL    HW216556   9.990   6.401   5.916
38242SOL     OW16557   8.764   4.225  14.625
38242SOL    HW116558   8.729   4.137  14.643
38242SOL    HW216559   8.686   4.278  14.608
38243SOL     OW16560   4.050   7.747  14.873
38243SOL    HW116561   4.081   7.658   0.008
38243SOL    HW216562   4.051   7.790   0.076
38244SOL     OW16563   3.691   6.967   9.664
38244SOL    HW116564   3.620   6.963   9.599
38244SOL    HW216565   3.750   7.034   9.629
38245SOL     OW16566   4.618  13.643  14.059
38245SOL    HW116567   4.659  13.611  13.978
38245SOL    HW216568   4.691  13.675  14.111
38246SOL     OW16569  12.034   9.662   7.351
38246SOL    HW116570  11.951   9.651   7.397
38246SOL    HW216571  12.011   9.663   7.258
38247SOL     OW16572   8.949   3.492   3.029
38247SOL    HW116573   8.884   3.559   3.007
38247SOL    HW216574   8.905   3.434   3.091
38248SOL     OW16575   9.708  13.994   5.089
38248SOL    HW116576   9.771  14.053   5.130
38248SOL    HW216577   9.626  14.042   5.090
38249SOL     OW16578   2.485  11.358   7.411
38249SOL    HW116579   2.473  11.437   7.358
38249SOL    HW216580   2.533  11.298   7.354
38250SOL     OW16581   1.213   6.981   6.888
38250SOL    HW116582   1.295   7.022   6.915
38250SOL    HW216583   1.235   6.889   6.877
38251SOL     OW16584  13.344  14.758  12.341
38251SOL    HW116585  13.433  14.746  12.376
38251SOL    HW216586  13.322  14.673  12.304
38252SOL     OW16587   7.058   3.932   2.290
38252SOL    HW116588   6.976   3.914   2.243
38252SOL    HW216589   7.127   3.910   2.227
38253SOL     OW16590   4.736   1.388  10.664
38253SOL    HW116591   4.704   1.374  10.575
38253SOL    HW216592   4.762   1.480  10.667
38254SOL     OW16593   8.308   8.632   7.126
38254SOL    HW116594   8.237   8.569   7.132
38254SOL    HW216595   8.295   8.690   7.201
38255SOL     OW16596   9.910   4.406   8.130
38255SOL    HW116597   9.833   4.463   8.136
38255SOL    HW216598   9.878   4.320   8.156
38256SOL     OW16599  14.662   3.372   1.647
38256SOL    HW116600  14.698   3.292   1.608
38256SOL    HW216601  14.662   3.355   1.741
38257SOL     OW16602   5.613  13.006  13.232
38257SOL    HW116603   5.548  13.000  13.162
38257SOL    HW216604   5.697  12.988  13.189
38258SOL     OW16605   6.307   7.777   9.027
38258SOL    HW116606   6.276   7.864   9.053
38258SOL    HW216607   6.368   7.795   8.955
38259SOL     OW16608   9.310   1.984  13.601
38259SOL    HW116609   9.347   1.938  13.526
38259SOL    HW216610   9.375   2.051  13.622
38260SOL     OW16611   0.301  12.190   1.240
38260SOL    HW116612   0.288  12.235   1.324
38260SOL    HW216613   0.235  12.228   1.182
38261SOL     OW16614  11.400  11.324   5.715
38261SOL    HW116615  11.383  11.363   5.801
38261SOL    HW216616  11.322  11.269   5.698
38262SOL     OW16617  10.433   7.771   6.585
38262SOL    HW116618  10.416   7.687   6.627
38262SOL    HW216619  10.514   7.802   6.627
38263SOL     OW16620  12.393   2.540   2.044
38263SOL    HW116621  12.334   2.543   2.119
38263SOL    HW216622  12.351   2.595   1.977
38264SOL     OW16623   8.296   1.895   8.889
38264SOL    HW116624   8.274   1.960   8.823
38264SOL    HW216625   8.222   1.898   8.951
38265SOL     OW16626   7.027   4.938   6.391
38265SOL    HW116627   7.079   5.014   6.416
38265SOL    HW216628   7.053   4.869   6.453
38266SOL     OW16629  11.269   1.493   4.869
38266SOL    HW116630  11.363   1.510   4.860
38266SOL    HW216631  11.260   1.447   4.952
38267SOL     OW16632  13.791   7.955  11.540
38267SOL    HW116633  13.861   7.891  11.554
38267SOL    HW216634  13.829   8.039  11.567
38268SOL     OW16635   7.388   2.919   6.037
38268SOL    HW116636   7.306   2.945   6.077
38268SOL    HW216637   7.388   2.823   6.041
38269SOL     OW16638   4.897   6.990  10.599
38269SOL    HW116639   4.978   6.940  10.610
38269SOL    HW216640   4.891   7.045  10.677
38270SOL     OW16641   8.788   3.213   4.003
38270SOL    HW116642   8.867   3.158   4.007
38270SOL    HW216643   8.719   3.158   4.038
38271SOL     OW16644   9.256   4.817   9.361
38271SOL    HW116645   9.175   4.834   9.313
38271SOL    HW216646   9.228   4.794   9.450
38272SOL     OW16647   8.130   5.507   8.552
38272SOL    HW116648   8.117   5.602   8.555
38272SOL    HW216649   8.078   5.477   8.478
38273SOL     OW16650  13.784   4.916  13.667
38273SOL    HW116651  13.778   4.910  13.762
38273SOL    HW216652  13.725   4.988  13.644
38274SOL     OW16653  10.756   5.809  12.984
38274SOL    HW116654  10.804   5.866  12.925
38274SOL    HW216655  10.791   5.722  12.967
38275SOL     OW16656   1.404   0.070  10.173
38275SOL    HW116657   1.393   0.146  10.115
38275SOL    HW216658   1.317   0.057  10.212
38276SOL     OW16659   0.781  10.908   7.003
38276SOL    HW116660   0.698  10.911   7.050
38276SOL    HW216661   0.764  10.853   6.927
38277SOL     OW16662   9.641   1.563   3.698
38277SOL    HW116663   9.624   1.557   3.792
38277SOL    HW216664   9.595   1.488   3.660
38278SOL     OW16665  13.214  14.015   7.257
38278SOL    HW116666  13.147  13.949   7.239
38278SOL    HW216667  13.276  13.971   7.315
38279SOL     OW16668  11.354   7.155  12.753
38279SOL    HW116669  11.386   7.202  12.676
38279SOL    HW216670  11.310   7.221  12.806
38280SOL     OW16671  11.178   4.928   6.621
38280SOL    HW116672  11.169   4.945   6.527
38280SOL    HW216673  11.214   4.839   6.625
38281SOL     OW16674   5.452   8.482   2.549
38281SOL    HW116675   5.504   8.402   2.556
38281SOL    HW216676   5.420   8.498   2.638
38282SOL     OW16677   6.666  12.339   3.625
38282SOL    HW116678   6.743  12.291   3.653
38282SOL    HW216679   6.671  12.339   3.529
38283SOL     OW16680   1.020  14.421   4.938
38283SOL    HW116681   0.963  14.344   4.944
38283SOL    HW216682   1.088  14.406   5.004
38284SOL     OW16683  12.068   8.485   7.586
38284SOL    HW116684  12.151   8.513   7.548
38284SOL    HW216685  12.002   8.515   7.523
38285SOL     OW16686   5.712   4.191   3.078
38285SOL    HW116687   5.618   4.203   3.096
38285SOL    HW216688   5.733   4.106   3.118
38286SOL     OW16689  14.327   0.502  13.108
38286SOL    HW116690  14.242   0.522  13.146
38286SOL    HW216691  14.367   0.440  13.169
38287SOL     OW16692  11.448   3.403  12.328
38287SOL    HW116693  11.524   3.346  12.318
38287SOL    HW216694  11.382   3.366  12.270
38288SOL     OW16695   9.993   5.857   5.297
38288SOL    HW116696  10.062   5.791   5.294
38288SOL    HW216697  10.026   5.929   5.244
38289SOL     OW16698  13.841  11.491   5.196
38289SOL    HW116699  13.838  11.430   5.270
38289SOL    HW216700  13.910  11.553   5.218
38290SOL     OW16701  13.770  14.468   9.150
38290SOL    HW116702  13.705  14.538   9.152
38290SOL    HW216703  13.817  14.477   9.233
38291SOL     OW16704  13.326  10.291  12.818
38291SOL    HW116705  13.290  10.242  12.744
38291SOL    HW216706  13.362  10.371  12.779
38292SOL     OW16707   0.448   1.646   3.189
38292SOL    HW116708   0.482   1.630   3.101
38292SOL    HW216709   0.455   1.740   3.201
38293SOL     OW16710   0.217   2.792   8.667
38293SOL    HW116711   0.229   2.731   8.740
38293SOL    HW216712   0.258   2.874   8.697
38294SOL     OW16713   4.469   2.874  11.618
38294SOL    HW116714   4.557   2.852  11.588
38294SOL    HW216715   4.453   2.961  11.584
38295SOL     OW16716  14.467   8.645   7.947
38295SOL    HW116717  14.391   8.586   7.951
38295SOL    HW216718  14.528   8.601   7.887
38296SOL     OW16719   2.468   8.502  10.389
38296SOL    HW116720   2.378   8.485  10.361
38296SOL    HW216721   2.466   8.592  10.422
38297SOL     OW16722   5.707  10.604   4.638
38297SOL    HW116723   5.635  10.643   4.687
38297SOL    HW216724   5.786  10.629   4.687
38298SOL     OW16725   2.747   4.825   8.627
38298SOL    HW116726   2.790   4.909   8.643
38298SOL    HW216727   2.701   4.805   8.708
38299SOL     OW16728   8.052  12.692   4.693
38299SOL    HW116729   8.125  12.743   4.658
38299SOL    HW216730   8.084  12.602   4.694
38300SOL     OW16731   3.262  10.377   4.432
38300SOL    HW116732   3.242  10.286   4.410
38300SOL    HW216733   3.311  10.371   4.514
38301SOL     OW16734   8.673   3.484   7.872
38301SOL    HW116735   8.688   3.559   7.930
38301SOL    HW216736   8.740   3.421   7.898
38302SOL     OW16737   4.898   5.278  13.044
38302SOL    HW116738   4.941   5.199  13.010
38302SOL    HW216739   4.968   5.327  13.087
38303SOL     OW16740   0.316  11.499   8.601
38303SOL    HW116741   0.248  11.452   8.553
38303SOL    HW216742   0.319  11.458   8.687
38304SOL     OW16743   4.862   5.224   5.340
38304SOL    HW116744   4.872   5.186   5.253
38304SOL    HW216745   4.864   5.319   5.324
38305SOL     OW16746   4.717  11.703   9.712
38305SOL    HW116747   4.707  11.667   9.624
38305SOL    HW216748   4.651  11.657   9.764
38306SOL     OW16749   8.016   6.267   5.751
38306SOL    HW116750   7.970   6.200   5.700
38306SOL    HW216751   8.000   6.241   5.842
38307SOL     OW16752   3.542   2.508   3.212
38307SOL    HW116753   3.463   2.461   3.184
38307SOL    HW216754   3.544   2.498   3.307
38308SOL     OW16755   9.625   3.579   6.551
38308SOL    HW116756   9.567   3.551   6.622
38308SOL    HW216757   9.701   3.616   6.596
38309SOL     OW16758   9.890  13.094   1.195
38309SOL    HW116759   9.875  13.072   1.103
38309SOL    HW216760   9.901  13.010   1.239
38310SOL     OW16761   8.689   2.771   3.273
38310SOL    HW116762   8.651   2.766   3.361
38310SOL    HW216763   8.693   2.865   3.254
38311SOL     OW16764   4.090  10.306   8.467
38311SOL    HW116765   4.058  10.217   8.487
38311SOL    HW216766   4.033  10.364   8.518
38312SOL     OW16767  10.316   6.335  13.938
38312SOL    HW116768  10.299   6.266  14.002
38312SOL    HW216769  10.406   6.320  13.909
38313SOL     OW16770   3.639  13.087   0.444
38313SOL    HW116771   3.713  13.113   0.499
38313SOL    HW216772   3.614  13.001   0.477
38314SOL     OW16773  11.562   2.077   1.345
38314SOL    HW116774  11.621   2.152   1.340
38314SOL    HW216775  11.525   2.069   1.257
38315SOL     OW16776   4.706  14.248   0.217
38315SOL    HW116777   4.797  14.228   0.197
38315SOL    HW216778   4.679  14.178   0.278
38316SOL     OW16779   8.635   0.002   9.635
38316SOL    HW116780   8.624   0.015   9.729
38316SOL    HW216781   8.577   0.066   9.595
38317SOL     OW16782   9.092   1.065   5.472
38317SOL    HW116783   8.997   1.054   5.476
38317SOL    HW216784   9.126   0.976   5.459
38318SOL     OW16785   1.889   2.110   7.198
38318SOL    HW116786   1.982   2.126   7.213
38318SOL    HW216787   1.868   2.164   7.121
38319SOL     OW16788   4.289  12.633   4.624
38319SOL    HW116789   4.280  12.725   4.600
38319SOL    HW216790   4.362  12.632   4.686
38320SOL     OW16791   4.276  11.540  10.208
38320SOL    HW116792   4.354  11.596  10.201
38320SOL    HW216793   4.305  11.466  10.262
38321SOL     OW16794   2.964   2.062   4.208
38321SOL    HW116795   2.932   2.072   4.118
38321SOL    HW216796   3.046   2.014   4.199
38322SOL     OW16797  12.393   4.189   7.754
38322SOL    HW116798  12.431   4.142   7.828
38322SOL    HW216799  12.384   4.123   7.685
38323SOL     OW16800   2.367  13.390  11.592
38323SOL    HW116801   2.326  13.308  11.564
38323SOL    HW216802   2.309  13.424  11.660
38324SOL     OW16803   9.155   5.089   3.849
38324SOL    HW116804   9.089   5.096   3.918
38324SOL    HW216805   9.105   5.068   3.770
38325SOL     OW16806  11.644  12.463   3.496
38325SOL    HW116807  11.640  12.461   3.591
38325SOL    HW216808  11.733  12.434   3.474
38326SOL     OW16809   1.639   2.920  13.534
38326SOL    HW116810   1.547   2.897  13.541
38326SOL    HW216811   1.643   2.982  13.461
38327SOL     OW16812   0.382   0.681  14.179
38327SOL    HW116813   0.351   0.638  14.099
38327SOL    HW216814   0.446   0.745  14.148
38328SOL     OW16815  12.342  12.501  13.278
38328SOL    HW116816  12.399  12.471  13.349
38328SOL    HW216817  12.383  12.467  13.198
38329SOL     OW16818   1.766  13.486  13.917
38329SOL    HW116819   1.776  13.395  13.888
38329SOL    HW216820   1.673  13.495  13.937
38330SOL     OW16821  10.797   6.917  12.176
38330SOL    HW116822  10.845   6.999  12.169
38330SOL    HW216823  10.786   6.903  12.270
38331SOL     OW16824  12.379  14.554   2.841
38331SOL    HW116825  12.316  14.593   2.902
38331SOL    HW216826  12.335  14.476   2.807
38332SOL     OW16827  13.395  10.971   0.401
38332SOL    HW116828  13.439  10.917   0.466
38332SOL    HW216829  13.318  11.006   0.446
38333SOL     OW16830   1.455   2.675   4.028
38333SOL    HW116831   1.414   2.694   4.113
38333SOL    HW216832   1.521   2.609   4.049
38334SOL     OW16833  13.331   9.083   8.697
38334SOL    HW116834  13.266   9.057   8.632
38334SOL    HW216835  13.367   9.165   8.662
38335SOL     OW16836   4.662   3.072   2.798
38335SOL    HW116837   4.598   3.001   2.789
38335SOL    HW216838   4.745   3.032   2.773
38336SOL     OW16839   3.119  14.421   1.769
38336SOL    HW116840   3.093  14.338   1.730
38336SOL    HW216841   3.179  14.460   1.706
38337SOL     OW16842   0.352  11.500   1.485
38337SOL    HW116843   0.352  11.496   1.581
38337SOL    HW216844   0.321  11.588   1.465
38338SOL     OW16845   8.844  12.400   4.145
38338SOL    HW116846   8.764  12.438   4.110
38338SOL    HW216847   8.829  12.396   4.240
38339SOL     OW16848  14.545  13.459  12.204
38339SOL    HW116849  14.539  13.450  12.299
38339SOL    HW216850  14.456  13.440  12.173
38340SOL     OW16851   4.946  11.306  12.464
38340SOL    HW116852   4.881  11.237  12.477
38340SOL    HW216853   4.909  11.382  12.508
38341SOL     OW16854   2.160   1.518  11.688
38341SOL    HW116855   2.158   1.540  11.781
38341SOL    HW216856   2.243   1.472  11.677
38342SOL     OW16857   1.447   9.080  12.177
38342SOL    HW116858   1.419   9.152  12.235
38342SOL    HW216859   1.391   9.007  12.202
38343SOL     OW16860   3.448   6.471   0.036
38343SOL    HW116861   3.497   6.466   0.118
38343SOL    HW216862   3.485   6.547  14.872
38344SOL     OW16863   5.425  13.821   1.452
38344SOL    HW116864   5.457  13.911   1.439
38344SOL    HW216865   5.343  13.817   1.404
38345SOL     OW16866  11.260   5.842   8.558
38345SOL    HW116867  11.258   5.774   8.625
38345SOL    HW216868  11.207   5.807   8.486
38346SOL     OW16869  12.764  13.852   8.149
38346SOL    HW116870  12.718  13.772   8.176
38346SOL    HW216871  12.825  13.823   8.081
38347SOL     OW16872  12.330  14.322   9.655
38347SOL    HW116873  12.412  14.292   9.615
38347SOL    HW216874  12.331  14.417   9.645
38348SOL     OW16875  11.261   6.707  11.478
38348SOL    HW116876  11.188   6.650  11.454
38348SOL    HW216877  11.338   6.668  11.437
38349SOL     OW16878  12.237   0.722   9.275
38349SOL    HW116879  12.301   0.784   9.311
38349SOL    HW216880  12.242   0.646   9.334
38350SOL     OW16881   9.644   7.283   5.706
38350SOL    HW116882   9.580   7.347   5.737
38350SOL    HW216883   9.706   7.275   5.779
38351SOL     OW16884   8.819   4.553   0.493
38351SOL    HW116885   8.878   4.478   0.503
38351SOL    HW216886   8.758   4.528   0.424
38352SOL     OW16887   3.431   9.222   6.682
38352SOL    HW116888   3.369   9.279   6.636
38352SOL    HW216889   3.396   9.134   6.668
38353SOL     OW16890   8.508   3.908  10.486
38353SOL    HW116891   8.453   3.861  10.548
38353SOL    HW216892   8.557   3.971  10.540
38354SOL     OW16893   8.330  12.109  13.108
38354SOL    HW116894   8.349  12.120  13.202
38354SOL    HW216895   8.392  12.169  13.065
38355SOL     OW16896  13.730   1.110  14.849
38355SOL    HW116897  13.712   1.178  14.785
38355SOL    HW216898  13.799   1.146   0.023
38356SOL     OW16899   0.351   9.959   3.616
38356SOL    HW116900   0.325  10.028   3.676
38356SOL    HW216901   0.271   9.909   3.600
38357SOL     OW16902   2.185   2.453   6.931
38357SOL    HW116903   2.190   2.357   6.941
38357SOL    HW216904   2.188   2.486   7.021
38358SOL     OW16905  11.069   5.601   4.456
38358SOL    HW116906  11.093   5.649   4.377
38358SOL    HW216907  11.010   5.660   4.503
38359SOL     OW16908   4.685  14.555   8.546
38359SOL    HW116909   4.673  14.638   8.500
38359SOL    HW216910   4.659  14.575   8.637
38360SOL     OW16911   5.566  12.908  12.813
38360SOL    HW116912   5.567  12.821  12.775
38360SOL    HW216913   5.647  12.949  12.782
38361SOL     OW16914  14.738   7.649  13.692
38361SOL    HW116915  14.747   7.699  13.611
38361SOL    HW216916  14.673   7.697  13.743
38362SOL     OW16917  12.238   3.891   7.772
38362SOL    HW116918  12.260   3.827   7.839
38362SOL    HW216919  12.162   3.853   7.726
38363SOL     OW16920  13.597  10.902   6.350
38363SOL    HW116921  13.623  10.904   6.257
38363SOL    HW216922  13.584  10.994   6.373
38364SOL     OW16923  10.031   3.017   8.141
38364SOL    HW116924  10.121   3.048   8.128
38364SOL    HW216925  10.030   2.982   8.230
38365SOL     OW16926  12.166   4.710   0.539
38365SOL    HW116927  12.076   4.710   0.506
38365SOL    HW216928  12.177   4.625   0.580
38366SOL     OW16929  10.817  10.877   2.708
38366SOL    HW116930  10.899  10.927   2.711
38366SOL    HW216931  10.818  10.825   2.788
38367SOL     OW16932   8.851   2.737   2.585
38367SOL    HW116933   8.894   2.820   2.601
38367SOL    HW216934   8.922   2.678   2.559
38368SOL     OW16935  13.972   9.112   2.704
38368SOL    HW116936  13.986   9.071   2.619
38368SOL    HW216937  13.981   9.206   2.687
38369SOL     OW16938  13.115   5.328  12.087
38369SOL    HW116939  13.107   5.239  12.052
38369SOL    HW216940  13.174   5.373  12.026
38370SOL     OW16941  14.648   6.791   7.343
38370SOL    HW116942  14.589   6.791   7.268
38370SOL    HW216943  14.629   6.710   7.389
38371SOL     OW16944   9.133   0.562  14.668
38371SOL    HW116945   9.142   0.468  14.651
38371SOL    HW216946   9.079   0.593  14.595
38372SOL     OW16947  12.493  10.458   1.552
38372SOL    HW116948  12.498  10.446   1.457
38372SOL    HW216949  12.498  10.369   1.587
38373SOL     OW16950   6.100  10.629  11.483
38373SOL    HW116951   6.013  10.652  11.449
38373SOL    HW216952   6.160  10.652  11.412
38374SOL     OW16953  13.724   9.279  13.868
38374SOL    HW116954  13.663   9.351  13.853
38374SOL    HW216955  13.804   9.305  13.822
38375SOL     OW16956   4.173  12.730  12.898
38375SOL    HW116957   4.078  12.739  12.909
38375SOL    HW216958   4.210  12.801  12.949
38376SOL     OW16959   0.312   2.542   5.345
38376SOL    HW116960   0.286   2.627   5.309
38376SOL    HW216961   0.397   2.524   5.305
38377SOL     OW16962  14.705   3.170  12.728
38377SOL    HW116963  14.668   3.145  12.644
38377SOL    HW216964  14.686   3.096  12.786
38378SOL     OW16965  12.920   5.248  13.295
38378SOL    HW116966  12.991   5.310  13.311
38378SOL    HW216967  12.950   5.167  13.337
38379SOL     OW16968   3.647   2.167   3.169
38379SOL    HW116969   3.713   2.155   3.237
38379SOL    HW216970   3.644   2.083   3.124
38380SOL     OW16971  14.620   9.765  11.976
38380SOL    HW116972  14.652   9.854  11.994
38380SOL    HW216973  14.564   9.744  12.051
38381SOL     OW16974   6.413  13.951   1.025
38381SOL    HW116975   6.355  13.938   0.950
38381SOL    HW216976   6.467  14.026   1.001
38382SOL     OW16977   8.990  14.018  12.192
38382SOL    HW116978   8.974  13.971  12.274
38382SOL    HW216979   8.975  13.953  12.124
38383SOL     OW16980   3.759   9.458  14.602
38383SOL    HW116981   3.698   9.385  14.614
38383SOL    HW216982   3.791   9.479  14.690
38384SOL     OW16983   0.311  13.424   9.058
38384SOL    HW116984   0.398  13.427   9.097
38384SOL    HW216985   0.252  13.444   9.130
38385SOL     OW16986   5.358   6.524   7.160
38385SOL    HW116987   5.433   6.473   7.129
38385SOL    HW216988   5.396   6.596   7.210
38386SOL     OW16989   6.059   4.580   8.122
38386SOL    HW116990   6.136   4.549   8.075
38386SOL    HW216991   6.024   4.649   8.067
38387SOL     OW16992  12.562   4.649   4.635
38387SOL    HW116993  12.510   4.710   4.583
38387SOL    HW216994  12.652   4.683   4.629
38388SOL     OW16995  14.279   2.166   5.312
38388SOL    HW116996  14.312   2.078   5.295
38388SOL    HW216997  14.337   2.201   5.381
38389SOL     OW16998  11.408  10.177  11.792
38389SOL    HW116999  11.425  10.250  11.733
38389SOL    HW217000  11.445  10.203  11.876
38390SOL     OW17001   5.009   4.537  10.420
38390SOL    HW117002   4.989   4.460  10.368
38390SOL    HW217003   5.088   4.573  10.379
38391SOL     OW17004   9.404  13.705   6.786
38391SOL    HW117005   9.341  13.634   6.781
38391SOL    HW217006   9.488  13.662   6.800
38392SOL     OW17007  13.581  14.337   5.713
38392SOL    HW117008  13.534  14.269   5.665
38392SOL    HW217009  13.624  14.389   5.645
38393SOL     OW17010  10.757  14.255  14.665
38393SOL    HW117011  10.695  14.324  14.640
38393SOL    HW217012  10.839  14.301  14.683
38394SOL     OW17013   6.165   8.691  14.436
38394SOL    HW117014   6.248   8.717  14.395
38394SOL    HW217015   6.119   8.773  14.450
38395SOL     OW17016   2.762   7.366   5.722
38395SOL    HW117017   2.684   7.345   5.774
38395SOL    HW217018   2.804   7.281   5.706
38396SOL     OW17019   3.505   1.020   0.598
38396SOL    HW117020   3.457   0.954   0.648
38396SOL    HW217021   3.583   0.975   0.566
38397SOL     OW17022   8.571   3.063   4.076
38397SOL    HW117023   8.492   3.034   4.122
38397SOL    HW217024   8.565   3.021   3.990
38398SOL     OW17025   1.505   1.051   8.057
38398SOL    HW117026   1.538   1.056   7.968
38398SOL    HW217027   1.554   1.117   8.105
38399SOL     OW17028   1.709   8.018  13.383
38399SOL    HW117029   1.717   8.101  13.337
38399SOL    HW217030   1.797   7.998  13.412
38400SOL     OW17031   9.518  12.901   0.419
38400SOL    HW117032   9.533  12.918   0.512
38400SOL    HW217033   9.491  12.986   0.384
38401SOL     OW17034   7.316   0.890   6.512
38401SOL    HW117035   7.357   0.897   6.426
38401SOL    HW217036   7.292   0.797   6.519
38402SOL     OW17037   6.799   8.866   7.926
38402SOL    HW117038   6.752   8.937   7.970
38402SOL    HW217039   6.771   8.787   7.972
38403SOL     OW17040   0.350  11.941   1.180
38403SOL    HW117041   0.328  12.030   1.205
38403SOL    HW217042   0.288  11.919   1.110
38404SOL     OW17043  12.722  13.068   4.347
38404SOL    HW117044  12.666  13.068   4.270
38404SOL    HW217045  12.756  12.979   4.352
38405SOL     OW17046  10.582   0.414   1.219
38405SOL    HW117047  10.661   0.359   1.220
38405SOL    HW217048  10.601   0.485   1.280
38406SOL     OW17049   0.431   0.036   0.944
38406SOL    HW117050   0.419   0.026   0.849
38406SOL    HW217051   0.502   0.099   0.953
38407SOL     OW17052  14.096   0.988   8.925
38407SOL    HW117053  14.054   1.036   8.854
38407SOL    HW217054  14.027   0.934   8.963
38408SOL     OW17055   4.596   2.878   0.481
38408SOL    HW117056   4.646   2.856   0.403
38408SOL    HW217057   4.594   2.797   0.533
38409SOL     OW17058   3.011   1.114  13.314
38409SOL    HW117059   3.064   1.110  13.394
38409SOL    HW217060   2.923   1.089  13.343
38410SOL     OW17061  10.578   3.995   4.056
38410SOL    HW117062  10.535   3.912   4.075
38410SOL    HW217063  10.615   3.984   3.969
38411SOL     OW17064   4.531   4.049   8.934
38411SOL    HW117065   4.445   4.028   8.971
38411SOL    HW217066   4.593   4.021   9.001
38412SOL     OW17067   7.971  11.501   6.577
38412SOL    HW117068   8.047  11.516   6.521
38412SOL    HW217069   7.898  11.490   6.516
38413SOL     OW17070  14.796  12.080  12.291
38413SOL    HW117071  14.723  12.044  12.241
38413SOL    HW217072  14.765  12.165  12.322
38414SOL     OW17073  14.095   6.541   1.781
38414SOL    HW117074  14.048   6.457   1.782
38414SOL    HW217075  14.026   6.607   1.778
38415SOL     OW17076  11.046  12.922   7.183
38415SOL    HW117077  11.002  12.849   7.226
38415SOL    HW217078  11.101  12.881   7.116
38416SOL     OW17079   4.598  13.377  10.469
38416SOL    HW117080   4.565  13.412  10.551
38416SOL    HW217081   4.682  13.337  10.492
38417SOL     OW17082  13.559   1.350   0.190
38417SOL    HW117083  13.647   1.322   0.164
38417SOL    HW217084  13.541   1.426   0.135
38418SOL     OW17085   1.198   0.766   7.550
38418SOL    HW117086   1.167   0.838   7.605
38418SOL    HW217087   1.120   0.737   7.502
38419SOL     OW17088  10.272   0.996   4.300
38419SOL    HW117089  10.204   0.984   4.367
38419SOL    HW217090  10.338   0.930   4.322
38420SOL     OW17091   3.530   9.222   8.481
38420SOL    HW117092   3.463   9.266   8.428
38420SOL    HW217093   3.598   9.198   8.418
38421SOL     OW17094  11.260   0.187   4.628
38421SOL    HW117095  11.193   0.118   4.627
38421SOL    HW217096  11.334   0.149   4.581
38422SOL     OW17097   2.674   4.336  11.994
38422SOL    HW117098   2.684   4.431  11.982
38422SOL    HW217099   2.600   4.313  11.938
38423SOL     OW17100   3.364  13.694   8.487
38423SOL    HW117101   3.320  13.733   8.563
38423SOL    HW217102   3.319  13.732   8.412
38424SOL     OW17103   7.840   3.983   0.474
38424SOL    HW117104   7.867   4.049   0.539
38424SOL    HW217105   7.896   3.908   0.492
38425SOL     OW17106   0.161  10.691   9.928
38425SOL    HW117107   0.141  10.638  10.006
38425SOL    HW217108   0.247  10.728   9.946
38426SOL     OW17109   0.472   6.237  10.160
38426SOL    HW117110   0.443   6.278  10.079
38426SOL    HW217111   0.425   6.154  10.163
38427SOL     OW17112   0.265  13.974  10.926
38427SOL    HW117113   0.282  13.879  10.929
38427SOL    HW217114   0.260  13.994  10.832
38428SOL     OW17115   9.199   8.401   2.855
38428SOL    HW117116   9.270   8.342   2.829
38428SOL    HW217117   9.139   8.345   2.905
38429SOL     OW17118  10.389   0.076   6.943
38429SOL    HW117119  10.470   0.109   6.904
38429SOL    HW217120  10.326   0.147   6.932
38430SOL     OW17121  14.054   3.927  12.292
38430SOL    HW117122  14.025   4.009  12.252
38430SOL    HW217123  14.090   3.953  12.377
38431SOL     OW17124   0.358   6.548  14.361
38431SOL    HW117125   0.398   6.595  14.434
38431SOL    HW217126   0.338   6.617  14.296
38432SOL     OW17127   5.550  12.939   9.332
38432SOL    HW117128   5.614  13.006   9.310
38432SOL    HW217129   5.477  12.987   9.371
38433SOL     OW17130   2.132  10.107   1.259
38433SOL    HW117131   2.055  10.126   1.205
38433SOL    HW217132   2.147  10.188   1.308
38434SOL     OW17133   4.345   0.004   2.386
38434SOL    HW117134   4.381   0.086   2.351
38434SOL    HW217135   4.258   0.029   2.418
38435SOL     OW17136   0.668   6.614   7.873
38435SOL    HW117137   0.675   6.664   7.792
38435SOL    HW217138   0.704   6.528   7.851
38436SOL     OW17139   6.533   7.658   9.690
38436SOL    HW117140   6.614   7.670   9.641
38436SOL    HW217141   6.466   7.699   9.635
38437SOL     OW17142   0.853   1.816   2.972
38437SOL    HW117143   0.924   1.753   2.976
38437SOL    HW217144   0.823   1.823   3.063
38438SOL     OW17145   9.744   6.431   2.502
38438SOL    HW117146   9.675   6.497   2.506
38438SOL    HW217147   9.699   6.350   2.480
38439SOL     OW17148  13.613  10.833   0.170
38439SOL    HW117149  13.619  10.783   0.089
38439SOL    HW217150  13.573  10.916   0.145
38440SOL     OW17151  14.118   8.728  14.511
38440SOL    HW117152  14.057   8.691  14.447
38440SOL    HW217153  14.203   8.693  14.485
38441SOL     OW17154  14.155   8.218  12.759
38441SOL    HW117155  14.147   8.132  12.719
38441SOL    HW217156  14.243   8.248  12.734
38442SOL     OW17157  12.486  14.830   7.195
38442SOL    HW117158  12.465  14.826   7.288
38442SOL    HW217159  12.461   0.037   7.168
38443SOL     OW17160   1.116   5.250   1.981
38443SOL    HW117161   1.195   5.223   1.935
38443SOL    HW217162   1.103   5.183   2.048
38444SOL     OW17163  11.360   9.283   5.825
38444SOL    HW117164  11.334   9.341   5.754
38444SOL    HW217165  11.294   9.296   5.893
38445SOL     OW17166   7.376  14.273   8.494
38445SOL    HW117167   7.460  14.249   8.456
38445SOL    HW217168   7.398  14.313   8.578
38446SOL     OW17169   9.988   6.298   4.072
38446SOL    HW117170  10.066   6.267   4.025
38446SOL    HW217171   9.985   6.392   4.053
38447SOL     OW17172  11.825   1.421  11.414
38447SOL    HW117173  11.824   1.436  11.509
38447SOL    HW217174  11.789   1.502  11.377
38448SOL     OW17175   6.486  11.036  10.564
38448SOL    HW117176   6.400  11.045  10.605
38448SOL    HW217177   6.503  10.941  10.565
38449SOL     OW17178   2.636  14.279   0.039
38449SOL    HW117179   2.578  14.275   0.115
38449SOL    HW217180   2.724  14.283   0.077
38450SOL     OW17181   7.561  14.344  10.297
38450SOL    HW117182   7.526  14.279  10.237
38450SOL    HW217183   7.484  14.388  10.333
38451SOL     OW17184  11.963  11.975   4.763
38451SOL    HW117185  11.930  11.890   4.792
38451SOL    HW217186  11.972  12.026   4.844
38452SOL     OW17187   3.026   9.381   8.686
38452SOL    HW117188   2.990   9.462   8.723
38452SOL    HW217189   3.103   9.410   8.637
38453SOL     OW17190   5.569   1.505   6.661
38453SOL    HW117191   5.601   1.582   6.707
38453SOL    HW217192   5.579   1.525   6.568
38454SOL     OW17193   5.821   8.190   4.465
38454SOL    HW117194   5.909   8.167   4.437
38454SOL    HW217195   5.817   8.165   4.557
38455SOL     OW17196   3.557   9.958   5.064
38455SOL    HW117197   3.607   9.878   5.081
38455SOL    HW217198   3.618  10.029   5.088
38456SOL     OW17199   0.385   3.441  14.507
38456SOL    HW117200   0.413   3.363  14.459
38456SOL    HW217201   0.290   3.443  14.496
38457SOL     OW17202   6.790   7.206  12.265
38457SOL    HW117203   6.860   7.161  12.216
38457SOL    HW217204   6.830   7.224  12.350
38458SOL     OW17205   3.480   2.072  11.225
38458SOL    HW117206   3.410   2.135  11.209
38458SOL    HW217207   3.459   1.999  11.167
38459SOL     OW17208  11.708   0.715   4.594
38459SOL    HW117209  11.702   0.689   4.686
38459SOL    HW217210  11.741   0.638   4.549
38460SOL     OW17211  11.135   3.901   3.915
38460SOL    HW117212  11.219   3.946   3.915
38460SOL    HW217213  11.142   3.839   3.988
38461SOL     OW17214   0.098   8.095   1.559
38461SOL    HW117215   0.004   8.105   1.570
38461SOL    HW217216   0.128   8.053   1.640
38462SOL     OW17217   0.423   2.800   0.180
38462SOL    HW117218   0.496   2.826   0.125
38462SOL    HW217219   0.407   2.877   0.236
38463SOL     OW17220  11.162   8.915   1.365
38463SOL    HW117221  11.252   8.882   1.358
38463SOL    HW217222  11.148   8.963   1.283
38464SOL     OW17223   9.853   4.673   4.663
38464SOL    HW117224   9.846   4.591   4.711
38464SOL    HW217225   9.844   4.741   4.729
38465SOL     OW17226   9.327   5.914   1.044
38465SOL    HW117227   9.394   5.868   1.095
38465SOL    HW217228   9.356   5.905   0.953
38466SOL     OW17229   3.189   5.684   7.103
38466SOL    HW117230   3.256   5.737   7.146
38466SOL    HW217231   3.233   5.602   7.081
38467SOL     OW17232   0.232   9.074  12.047
38467SOL    HW117233   0.234   9.154  12.098
38467SOL    HW217234   0.232   9.004  12.112
38468SOL     OW17235  10.136  14.762   8.701
38468SOL    HW117236  10.085  14.829   8.748
38468SOL    HW217237  10.089  14.680   8.718
38469SOL     OW17238   3.859  11.473  12.811
38469SOL    HW117239   3.932  11.484  12.751
38469SOL    HW217240   3.793  11.426  12.760
38470SOL     OW17241   8.771   8.372   7.080
38470SOL    HW117242   8.690   8.423   7.075
38470SOL    HW217243   8.832   8.429   7.126
38471SOL     OW17244   5.561   7.157   7.038
38471SOL    HW117245   5.566   7.078   7.091
38471SOL    HW217246   5.557   7.126   6.947
38472SOL     OW17247   1.315   8.475   9.555
38472SOL    HW117248   1.231   8.522   9.556
38472SOL    HW217249   1.296   8.393   9.510
38473SOL     OW17250  13.539  10.096   1.416
38473SOL    HW117251  13.584  10.173   1.451
38473SOL    HW217252  13.603  10.025   1.425
38474SOL     OW17253   5.756   2.581  13.766
38474SOL    HW117254   5.720   2.626  13.842
38474SOL    HW217255   5.847   2.565  13.789
38475SOL     OW17256  12.698  12.450   8.410
38475SOL    HW117257  12.703  12.412   8.498
38475SOL    HW217258  12.731  12.539   8.420
38476SOL     OW17259   4.794  14.213   2.893
38476SOL    HW117260   4.780  14.287   2.951
38476SOL    HW217261   4.715  14.159   2.903
38477SOL     OW17262   9.328   4.066  14.847
38477SOL    HW117263   9.297   4.135   0.025
38477SOL    HW217264   9.422   4.060  14.865
38478SOL     OW17265   3.474   1.833  10.987
38478SOL    HW117266   3.544   1.786  11.031
38478SOL    HW217267   3.397   1.819  11.042
38479SOL     OW17268  11.791  13.915  14.818
38479SOL    HW117269  11.786  14.001  14.776
38479SOL    HW217270  11.872  13.919  14.870
38480SOL     OW17271   4.001   8.468  10.456
38480SOL    HW117272   3.983   8.561  10.466
38480SOL    HW217273   3.940   8.439  10.389
38481SOL     OW17274   4.970   0.289  11.817
38481SOL    HW117275   4.950   0.233  11.891
38481SOL    HW217276   4.892   0.285  11.762
38482SOL     OW17277  11.036  10.028  10.912
38482SOL    HW117278  10.991  10.065  10.835
38482SOL    HW217279  11.097  10.097  10.938
38483SOL     OW17280  13.545  10.354  13.478
38483SOL    HW117281  13.630  10.309  13.477
38483SOL    HW217282  13.511  10.336  13.565
38484SOL     OW17283   6.330   4.416  12.175
38484SOL    HW117284   6.393   4.468  12.126
38484SOL    HW217285   6.263   4.478  12.202
38485SOL     OW17286   9.432  13.507   2.156
38485SOL    HW117287   9.407  13.447   2.226
38485SOL    HW217288   9.391  13.471   2.078
38486SOL     OW17289   0.823   2.612   0.387
38486SOL    HW117290   0.856   2.688   0.434
38486SOL    HW217291   0.729   2.611   0.405
38487SOL     OW17292   6.016   5.985   1.216
38487SOL    HW117293   6.033   5.981   1.310
38487SOL    HW217294   5.922   6.005   1.209
38488SOL     OW17295   9.525   8.231   3.533
38488SOL    HW117296   9.536   8.272   3.618
38488SOL    HW217297   9.610   8.240   3.490
38489SOL     OW17298  13.803   5.385  10.679
38489SOL    HW117299  13.753   5.434  10.745
38489SOL    HW217300  13.882   5.357  10.726
38490SOL     OW17301   7.629   3.186   7.933
38490SOL    HW117302   7.621   3.281   7.929
38490SOL    HW217303   7.720   3.169   7.907
38491SOL     OW17304  14.402  10.760  12.281
38491SOL    HW117305  14.403  10.702  12.357
38491SOL    HW217306  14.320  10.738  12.235
38492SOL     OW17307   0.480   6.419   8.198
38492SOL    HW117308   0.536   6.364   8.144
38492SOL    HW217309   0.394   6.376   8.195
38493SOL     OW17310   1.379   3.710  10.279
38493SOL    HW117311   1.425   3.669  10.206
38493SOL    HW217312   1.387   3.804  10.263
38494SOL     OW17313  11.509  12.376   4.814
38494SOL    HW117314  11.591  12.328   4.803
38494SOL    HW217315  11.441  12.309   4.804
38495SOL     OW17316  11.961   8.227   8.994
38495SOL    HW117317  12.004   8.147   9.024
38495SOL    HW217318  12.006   8.298   9.041
38496SOL     OW17319   4.873   8.640   9.528
38496SOL    HW117320   4.890   8.628   9.621
38496SOL    HW217321   4.893   8.554   9.489
38497SOL     OW17322   2.261   6.585   0.999
38497SOL    HW117323   2.259   6.646   0.925
38497SOL    HW217324   2.346   6.542   0.993
38498SOL     OW17325   4.504   7.042   6.728
38498SOL    HW117326   4.517   7.073   6.818
38498SOL    HW217327   4.468   6.954   6.738
38499SOL     OW17328   8.450   3.573   4.825
38499SOL    HW117329   8.502   3.493   4.820
38499SOL    HW217330   8.361   3.545   4.802
38500SOL     OW17331  13.583   3.688   2.730
38500SOL    HW117332  13.553   3.739   2.804
38500SOL    HW217333  13.662   3.732   2.700
38501SOL     OW17334   8.525   3.741  10.251
38501SOL    HW117335   8.492   3.785  10.329
38501SOL    HW217336   8.590   3.801  10.215
38502SOL     OW17337   2.994   2.851   5.498
38502SOL    HW117338   2.952   2.937   5.501
38502SOL    HW217339   3.082   2.866   5.531
38503SOL     OW17340   3.361   8.243   9.559
38503SOL    HW117341   3.407   8.325   9.574
38503SOL    HW217342   3.269   8.269   9.554
38504SOL     OW17343   6.746   9.256   4.329
38504SOL    HW117344   6.789   9.216   4.405
38504SOL    HW217345   6.693   9.186   4.291
38505SOL     OW17346   8.289  10.113  13.764
38505SOL    HW117347   8.334  10.073  13.839
38505SOL    HW217348   8.340  10.191  13.744
38506SOL     OW17349  14.167  10.162   6.448
38506SOL    HW117350  14.111  10.179   6.523
38506SOL    HW217351  14.118  10.098   6.396
38507SOL     OW17352   5.662   6.184  12.009
38507SOL    HW117353   5.756   6.182  11.996
38507SOL    HW217354   5.639   6.278  12.010
38508SOL     OW17355   4.526  14.517   5.929
38508SOL    HW117356   4.441  14.550   5.901
38508SOL    HW217357   4.542  14.442   5.871
38509SOL     OW17358  13.829   1.345   5.541
38509SOL    HW117359  13.890   1.393   5.598
38509SOL    HW217360  13.819   1.260   5.584
38510SOL     OW17361   5.787   7.397   4.242
38510SOL    HW117362   5.755   7.307   4.243
38510SOL    HW217363   5.803   7.418   4.334
38511SOL     OW17364   7.539   3.165   7.089
38511SOL    HW117365   7.599   3.092   7.103
38511SOL    HW217366   7.595   3.237   7.062
38512SOL     OW17367   7.802   1.838   8.467
38512SOL    HW117368   7.748   1.845   8.546
38512SOL    HW217369   7.885   1.879   8.490
38513SOL     OW17370  12.308   8.140  10.413
38513SOL    HW117371  12.361   8.210  10.450
38513SOL    HW217372  12.219   8.158  10.444
38514SOL     OW17373   8.709   1.964   1.152
38514SOL    HW117374   8.731   1.951   1.060
38514SOL    HW217375   8.776   2.025   1.184
38515SOL     OW17376  13.570  13.276  11.959
38515SOL    HW117377  13.522  13.258  12.041
38515SOL    HW217378  13.513  13.335  11.910
38516SOL     OW17379   7.081   9.458  13.583
38516SOL    HW117380   7.068   9.537  13.636
38516SOL    HW217381   7.168   9.469  13.544
38517SOL     OW17382   6.571   8.483   1.334
38517SOL    HW117383   6.577   8.415   1.267
38517SOL    HW217384   6.555   8.436   1.415
38518SOL     OW17385   4.543   4.215  14.838
38518SOL    HW117386   4.593   4.178  14.765
38518SOL    HW217387   4.471   4.262  14.796
38519SOL     OW17388  10.856   8.333   3.711
38519SOL    HW117389  10.832   8.364   3.798
38519SOL    HW217390  10.896   8.248   3.725
38520SOL     OW17391  10.539   0.960   9.932
38520SOL    HW117392  10.549   0.892   9.999
38520SOL    HW217393  10.469   0.928   9.876
38521SOL     OW17394   7.889  11.974   5.641
38521SOL    HW117395   7.914  11.886   5.613
38521SOL    HW217396   7.972  12.022   5.647
38522SOL     OW17397   0.781  14.683   9.577
38522SOL    HW117398   0.856  14.655   9.631
38522SOL    HW217399   0.796  14.776   9.562
38523SOL     OW17400  12.354   2.491   9.485
38523SOL    HW117401  12.261   2.500   9.467
38523SOL    HW217402  12.370   2.548   9.560
38524SOL     OW17403  12.422   4.422   5.643
38524SOL    HW117404  12.333   4.402   5.671
38524SOL    HW217405  12.412   4.474   5.563
38525SOL     OW17406   8.717   2.371   4.955
38525SOL    HW117407   8.795   2.403   5.002
38525SOL    HW217408   8.738   2.382   4.863
38526SOL     OW17409   8.013   0.816   3.686
38526SOL    HW117410   8.092   0.766   3.667
38526SOL    HW217411   7.947   0.749   3.706
38527SOL     OW17412  10.237   8.287  14.522
38527SOL    HW117413  10.315   8.245  14.559
38527SOL    HW217414  10.185   8.215  14.488
38528SOL     OW17415   6.972  11.785   6.499
38528SOL    HW117416   6.975  11.863   6.444
38528SOL    HW217417   7.009  11.813   6.583
38529SOL     OW17418   7.403  14.660  13.591
38529SOL    HW117419   7.378  14.753  13.593
38529SOL    HW217420   7.498  14.662  13.580
38530SOL     OW17421  11.115   0.008   2.025
38530SOL    HW117422  11.163  14.840   2.092
38530SOL    HW217423  11.166  14.874   1.945
38531SOL     OW17424   6.575   4.575   6.190
38531SOL    HW117425   6.606   4.661   6.161
38531SOL    HW217426   6.481   4.587   6.204
38532SOL     OW17427   1.032   4.718   9.196
38532SOL    HW117428   1.061   4.660   9.267
38532SOL    HW217429   0.938   4.702   9.188
38533SOL     OW17430   8.984   7.626  12.965
38533SOL    HW117431   8.946   7.559  13.022
38533SOL    HW217432   8.919   7.637  12.895
38534SOL     OW17433   5.730  13.678  10.687
38534SOL    HW117434   5.822  13.706  10.697
38534SOL    HW217435   5.732  13.615  10.615
38535SOL     OW17436   4.907   5.778   1.235
38535SOL    HW117437   4.820   5.760   1.272
38535SOL    HW217438   4.930   5.864   1.271
38536SOL     OW17439   5.294  14.286   6.849
38536SOL    HW117440   5.286  14.216   6.784
38536SOL    HW217441   5.366  14.258   6.906
38537SOL     OW17442   4.973   7.615   0.074
38537SOL    HW117443   4.932   7.669   0.007
38537SOL    HW217444   4.993   7.532   0.030
38538SOL     OW17445   7.722   4.751   3.658
38538SOL    HW117446   7.637   4.721   3.627
38538SOL    HW217447   7.705   4.840   3.691
38539SOL     OW17448   1.967  10.210   1.068
38539SOL    HW117449   1.910  10.277   1.105
38539SOL    HW217450   1.925  10.183   0.987
38540SOL     OW17451   8.828   7.948   2.992
38540SOL    HW117452   8.840   7.965   2.898
38540SOL    HW217453   8.782   7.864   2.994
38541SOL     OW17454   1.062   9.619   5.741
38541SOL    HW117455   1.076   9.539   5.690
38541SOL    HW217456   1.016   9.678   5.681
38542SOL     OW17457   2.340   3.062   4.218
38542SOL    HW117458   2.282   3.067   4.294
38542SOL    HW217459   2.422   3.102   4.248
38543SOL     OW17460  13.316  14.522   4.688
38543SOL    HW117461  13.267  14.473   4.622
38543SOL    HW217462  13.339  14.457   4.755
38544SOL     OW17463   5.996   8.796   3.579
38544SOL    HW117464   6.041   8.833   3.504
38544SOL    HW217465   6.053   8.813   3.653
38545SOL     OW17466   6.046  14.847   1.659
38545SOL    HW117467   6.121  14.862   1.717
38545SOL    HW217468   6.059  14.758   1.626
38546SOL     OW17469   3.082   6.621   1.253
38546SOL    HW117470   3.002   6.655   1.213
38546SOL    HW217471   3.054   6.588   1.339
38547SOL     OW17472   7.701   3.156   1.088
38547SOL    HW117473   7.753   3.236   1.089
38547SOL    HW217474   7.639   3.167   1.160
38548SOL     OW17475  12.167  12.167  11.130
38548SOL    HW117476  12.086  12.151  11.082
38548SOL    HW217477  12.145  12.144  11.221
38549SOL     OW17478   8.703  13.659   6.787
38549SOL    HW117479   8.663  13.739   6.819
38549SOL    HW217480   8.791  13.684   6.761
38550SOL     OW17481  13.145   8.110   6.747
38550SOL    HW117482  13.089   8.183   6.773
38550SOL    HW217483  13.229   8.128   6.788
38551SOL     OW17484  14.702   8.949   2.812
38551SOL    HW117485  14.636   8.890   2.776
38551SOL    HW217486  14.657   9.033   2.822
38552SOL     OW17487   2.997   3.687   4.253
38552SOL    HW117488   3.017   3.756   4.189
38552SOL    HW217489   2.910   3.657   4.228
38553SOL     OW17490  10.945  10.761  10.424
38553SOL    HW117491  11.002  10.685  10.416
38553SOL    HW217492  10.910  10.775  10.336
38554SOL     OW17493   9.438   5.927   2.249
38554SOL    HW117494   9.530   5.937   2.273
38554SOL    HW217495   9.390   5.974   2.317
38555SOL     OW17496  13.185   9.748   9.527
38555SOL    HW117497  13.260   9.785   9.480
38555SOL    HW217498  13.223   9.711   9.607
38556SOL     OW17499   2.630   1.155  11.546
38556SOL    HW117500   2.704   1.099  11.568
38556SOL    HW217501   2.641   1.233  11.600
38557SOL     OW17502  13.359   7.802   1.758
38557SOL    HW117503  13.420   7.841   1.822
38557SOL    HW217504  13.274   7.807   1.801
38558SOL     OW17505   5.688   7.234   5.209
38558SOL    HW117506   5.651   7.281   5.283
38558SOL    HW217507   5.734   7.160   5.248
38559SOL     OW17508  11.666   0.467  11.200
38559SOL    HW117509  11.604   0.421  11.258
38559SOL    HW217510  11.612   0.534  11.158
38560SOL     OW17511   5.485   4.652   2.461
38560SOL    HW117512   5.474   4.565   2.500
38560SOL    HW217513   5.410   4.702   2.493
38561SOL     OW17514   1.876  11.466   6.355
38561SOL    HW117515   1.938  11.462   6.428
38561SOL    HW217516   1.831  11.550   6.366
38562SOL     OW17517   0.919   3.395   7.950
38562SOL    HW117518   0.881   3.481   7.929
38562SOL    HW217519   1.012   3.404   7.931
38563SOL     OW17520  13.227   8.009   2.195
38563SOL    HW117521  13.241   8.104   2.187
38563SOL    HW217522  13.132   7.998   2.184
38564SOL     OW17523   1.784   6.271   2.648
38564SOL    HW117524   1.717   6.321   2.601
38564SOL    HW217525   1.735   6.223   2.715
38565SOL     OW17526   2.790  11.794   0.356
38565SOL    HW117527   2.833  11.756   0.432
38565SOL    HW217528   2.820  11.885   0.354
38566SOL     OW17529   3.781   3.020   3.474
38566SOL    HW117530   3.707   2.981   3.426
38566SOL    HW217531   3.787   3.109   3.440
38567SOL     OW17532  12.667  10.562   6.224
38567SOL    HW117533  12.590  10.569   6.280
38567SOL    HW217534  12.738  10.602   6.274
38568SOL     OW17535  12.928  11.150   9.095
38568SOL    HW117536  12.982  11.196   9.031
38568SOL    HW217537  12.986  11.136   9.170
38569SOL     OW17538   5.631  10.545   2.864
38569SOL    HW117539   5.647  10.501   2.780
38569SOL    HW217540   5.687  10.622   2.862
38570SOL     OW17541   7.039   7.109   7.075
38570SOL    HW117542   7.041   7.111   6.979
38570SOL    HW217543   7.104   7.174   7.102
38571SOL     OW17544   9.665  14.615   7.591
38571SOL    HW117545   9.601  14.656   7.649
38571SOL    HW217546   9.685  14.531   7.634
38572SOL     OW17547  13.268  12.215   0.202
38572SOL    HW117548  13.217  12.277   0.253
38572SOL    HW217549  13.226  12.213   0.116
38573SOL     OW17550   2.937   8.844   0.728
38573SOL    HW117551   3.011   8.856   0.788
38573SOL    HW217552   2.896   8.930   0.722
38574SOL     OW17553   1.636   1.640   2.241
38574SOL    HW117554   1.667   1.620   2.153
38574SOL    HW217555   1.711   1.622   2.297
38575SOL     OW17556  12.640  10.533   1.028
38575SOL    HW117557  12.667  10.624   1.015
38575SOL    HW217558  12.609  10.505   0.942
38576SOL     OW17559   5.388   6.773  10.380
38576SOL    HW117560   5.443   6.771  10.302
38576SOL    HW217561   5.303   6.804  10.349
38577SOL     OW17562   2.556  12.769  14.648
38577SOL    HW117563   2.542  12.861  14.673
38577SOL    HW217564   2.510  12.719  14.715
38578SOL     OW17565   1.805   8.769   6.895
38578SOL    HW117566   1.799   8.688   6.845
38578SOL    HW217567   1.888   8.761   6.942
38579SOL     OW17568   2.854   0.070   7.154
38579SOL    HW117569   2.894   0.133   7.215
38579SOL    HW217570   2.895  14.868   7.177
38580SOL     OW17571   7.546   9.733  12.839
38580SOL    HW117572   7.486   9.804  12.815
38580SOL    HW217573   7.506   9.654  12.801
38581SOL     OW17574  14.164  14.839   4.037
38581SOL    HW117575  14.194   0.041   4.000
38581SOL    HW217576  14.200  14.773   3.979
38582SOL     OW17577   4.260   3.493   8.425
38582SOL    HW117578   4.195   3.472   8.492
38582SOL    HW217579   4.233   3.579   8.392
38583SOL     OW17580   1.965   0.048   0.712
38583SOL    HW117581   1.887  14.875   0.723
38583SOL    HW217582   1.984   0.080   0.801
38584SOL     OW17583  12.605   0.422   9.535
38584SOL    HW117584  12.583   0.453   9.623
38584SOL    HW217585  12.545   0.350   9.519
38585SOL     OW17586   6.374  10.149   5.339
38585SOL    HW117587   6.421  10.138   5.421
38585SOL    HW217588   6.346  10.240   5.338
38586SOL     OW17589  14.244   8.505   0.483
38586SOL    HW117590  14.327   8.463   0.461
38586SOL    HW217591  14.203   8.446   0.546
38587SOL     OW17592   6.359  11.494   2.812
38587SOL    HW117593   6.265  11.498   2.793
38587SOL    HW217594   6.389  11.584   2.800
38588SOL     OW17595   9.349   0.600   9.690
38588SOL    HW117596   9.294   0.529   9.657
38588SOL    HW217597   9.325   0.676   9.638
38589SOL     OW17598   6.467   8.714   1.698
38589SOL    HW117599   6.474   8.749   1.609
38589SOL    HW217600   6.464   8.791   1.754
38590SOL     OW17601   4.932  14.229  11.963
38590SOL    HW117602   4.862  14.237  11.899
38590SOL    HW217603   4.976  14.147  11.941
38591SOL     OW17604   9.927   2.318   8.502
38591SOL    HW117605   9.847   2.361   8.533
38591SOL    HW217606   9.896   2.246   8.447
38592SOL     OW17607  11.769   5.296   4.663
38592SOL    HW117608  11.728   5.269   4.745
38592SOL    HW217609  11.813   5.217   4.631
38593SOL     OW17610   4.901  10.049  10.509
38593SOL    HW117611   4.895  10.098  10.591
38593SOL    HW217612   4.844  10.097  10.448
38594SOL     OW17613   3.622   8.217   6.275
38594SOL    HW117614   3.699   8.204   6.331
38594SOL    HW217615   3.552   8.238   6.336
38595SOL     OW17616   7.024   0.101   9.366
38595SOL    HW117617   7.099   0.105   9.307
38595SOL    HW217618   6.948   0.109   9.308
38596SOL     OW17619   6.338   5.387   2.531
38596SOL    HW117620   6.309   5.426   2.614
38596SOL    HW217621   6.265   5.332   2.504
38597SOL     OW17622   2.804  11.675   5.135
38597SOL    HW117623   2.724  11.713   5.171
38597SOL    HW217624   2.809  11.710   5.046
38598SOL     OW17625   0.843   4.884   0.092
38598SOL    HW117626   0.790   4.940   0.035
38598SOL    HW217627   0.821   4.795   0.066
38599SOL     OW17628   4.004  13.227  10.112
38599SOL    HW117629   3.962  13.170  10.047
38599SOL    HW217630   4.035  13.302  10.061
38600SOL     OW17631   7.295   1.396   2.417
38600SOL    HW117632   7.385   1.401   2.386
38600SOL    HW217633   7.280   1.479   2.462
38601SOL     OW17634   5.231  12.459   0.029
38601SOL    HW117635   5.228  12.534   0.089
38601SOL    HW217636   5.271  12.389   0.081
38602SOL     OW17637  10.259   4.851   2.447
38602SOL    HW117638  10.287   4.765   2.418
38602SOL    HW217639  10.173   4.836   2.487
38603SOL     OW17640   1.654   5.902   1.467
38603SOL    HW117641   1.684   5.812   1.454
38603SOL    HW217642   1.733   5.956   1.455
38604SOL     OW17643   5.930   2.375   1.540
38604SOL    HW117644   6.021   2.402   1.529
38604SOL    HW217645   5.902   2.418   1.621
38605SOL     OW17646  13.369   1.073  14.215
38605SOL    HW117647  13.274   1.081  14.213
38605SOL    HW217648  13.391   1.018  14.140
38606SOL     OW17649   0.096   3.563  10.698
38606SOL    HW117650   0.113   3.657  10.701
38606SOL    HW217651   0.182   3.524  10.680
38607SOL     OW17652  13.042   0.855   8.595
38607SOL    HW117653  13.060   0.929   8.537
38607SOL    HW217654  12.973   0.886   8.653
38608SOL     OW17655   9.836   0.283   8.905
38608SOL    HW117656   9.927   0.300   8.929
38608SOL    HW217657   9.831   0.188   8.897
38609SOL     OW17658  11.557   4.503   7.497
38609SOL    HW117659  11.590   4.560   7.567
38609SOL    HW217660  11.556   4.416   7.536
38610SOL     OW17661   8.902   1.296   3.288
38610SOL    HW117662   8.850   1.361   3.335
38610SOL    HW217663   8.948   1.347   3.221
38611SOL     OW17664   5.523   5.034   9.508
38611SOL    HW117665   5.526   4.969   9.438
38611SOL    HW217666   5.569   4.993   9.581
38612SOL     OW17667  12.019  13.230   0.864
38612SOL    HW117668  12.101  13.190   0.894
38612SOL    HW217669  12.043  13.321   0.847
38613SOL     OW17670   6.718   4.055   4.866
38613SOL    HW117671   6.683   3.980   4.914
38613SOL    HW217672   6.810   4.035   4.852
38614SOL     OW17673  10.899   7.307   8.401
38614SOL    HW117674  10.972   7.245   8.396
38614SOL    HW217675  10.855   7.300   8.316
38615SOL     OW17676   7.014   6.815   4.516
38615SOL    HW117677   6.979   6.778   4.597
38615SOL    HW217678   6.988   6.753   4.448
38616SOL     OW17679   2.580   8.190   6.319
38616SOL    HW117680   2.500   8.230   6.284
38616SOL    HW217681   2.641   8.263   6.329
38617SOL     OW17682   2.536   1.326   5.686
38617SOL    HW117683   2.558   1.309   5.777
38617SOL    HW217684   2.616   1.363   5.648
38618SOL     OW17685  10.860   4.729  10.049
38618SOL    HW117686  10.943   4.733  10.003
38618SOL    HW217687  10.836   4.821  10.063
38619SOL     OW17688   7.480   0.455   1.148
38619SOL    HW117689   7.561   0.500   1.173
38619SOL    HW217690   7.492   0.366   1.180
38620SOL     OW17691   4.874   1.883   6.146
38620SOL    HW117692   4.941   1.919   6.204
38620SOL    HW217693   4.905   1.903   6.058
38621SOL     OW17694   1.192   7.687   6.967
38621SOL    HW117695   1.270   7.690   7.021
38621SOL    HW217696   1.222   7.650   6.883
38622SOL     OW17697   3.383   6.600   8.726
38622SOL    HW117698   3.347   6.515   8.701
38622SOL    HW217699   3.475   6.596   8.699
38623SOL     OW17700  10.286   2.004   9.630
38623SOL    HW117701  10.210   2.024   9.685
38623SOL    HW217702  10.324   1.925   9.669
38624SOL     OW17703  10.529   0.123   8.394
38624SOL    HW117704  10.489   0.101   8.310
38624SOL    HW217705  10.485   0.205   8.420
38625SOL     OW17706   6.488   5.305  12.384
38625SOL    HW117707   6.509   5.396  12.363
38625SOL    HW217708   6.404   5.310  12.431
38626SOL     OW17709   2.931   7.710  11.985
38626SOL    HW117710   2.977   7.720  11.902
38626SOL    HW217711   2.940   7.617  12.006
38627SOL     OW17712   0.597  12.908   2.314
38627SOL    HW117713   0.571  12.876   2.400
38627SOL    HW217714   0.645  12.989   2.333
38628SOL     OW17715   8.273  11.414   6.696
38628SOL    HW117716   8.235  11.454   6.617
38628SOL    HW217717   8.344  11.473   6.720
38629SOL     OW17718  11.043   9.378  13.363
38629SOL    HW117719  11.016   9.315  13.296
38629SOL    HW217720  11.118   9.423  13.324
38630SOL     OW17721  11.744  13.527   9.588
38630SOL    HW117722  11.810  13.587   9.625
38630SOL    HW217723  11.742  13.453   9.649
38631SOL     OW17724   0.427   0.838   8.126
38631SOL    HW117725   0.508   0.878   8.159
38631SOL    HW217726   0.405   0.771   8.191
38632SOL     OW17727  14.021   6.685   9.491
38632SOL    HW117728  14.049   6.649   9.575
38632SOL    HW217729  13.973   6.614   9.449
38633SOL     OW17730   2.559   3.741  10.368
38633SOL    HW117731   2.618   3.747  10.443
38633SOL    HW217732   2.476   3.775  10.399
38634SOL     OW17733   6.711  11.248  12.121
38634SOL    HW117734   6.617  11.263  12.133
38634SOL    HW217735   6.750  11.269  12.206
38635SOL     OW17736  11.530   5.027  13.477
38635SOL    HW117737  11.460   5.010  13.539
38635SOL    HW217738  11.499   4.991  13.394
38636SOL     OW17739   5.173   3.585  11.738
38636SOL    HW117740   5.134   3.500  11.718
38636SOL    HW217741   5.257   3.563  11.780
38637SOL     OW17742   4.964   8.187   7.634
38637SOL    HW117743   4.942   8.105   7.590
38637SOL    HW217744   4.889   8.205   7.690
38638SOL     OW17745  10.588   4.538  10.691
38638SOL    HW117746  10.579   4.457  10.641
38638SOL    HW217747  10.636   4.513  10.770
38639SOL     OW17748   9.876   4.265  10.805
38639SOL    HW117749   9.836   4.300  10.885
38639SOL    HW217750   9.811   4.205  10.770
38640SOL     OW17751  10.973   8.529   8.851
38640SOL    HW117752  10.895   8.478   8.873
38640SOL    HW217753  11.013   8.550   8.935
38641SOL     OW17754   2.550  11.906   7.142
38641SOL    HW117755   2.638  11.898   7.180
38641SOL    HW217756   2.548  11.842   7.071
38642SOL     OW17757   3.195   5.414   2.403
38642SOL    HW117758   3.207   5.509   2.397
38642SOL    HW217759   3.173   5.388   2.314
38643SOL     OW17760  13.287   7.469   5.322
38643SOL    HW117761  13.194   7.450   5.307
38643SOL    HW217762  13.333   7.416   5.257
38644SOL     OW17763  12.697   7.129   8.248
38644SOL    HW117764  12.742   7.209   8.277
38644SOL    HW217765  12.643   7.104   8.324
38645SOL     OW17766   9.257   2.126  13.292
38645SOL    HW117767   9.281   2.120  13.384
38645SOL    HW217768   9.331   2.170  13.251
38646SOL     OW17769   2.585  10.106   1.560
38646SOL    HW117770   2.520  10.045   1.595
38646SOL    HW217771   2.533  10.177   1.523
38647SOL     OW17772  14.730   2.779   2.920
38647SOL    HW117773  14.757   2.704   2.973
38647SOL    HW217774  14.809   2.803   2.871
38648SOL     OW17775  13.817   3.992   3.633
38648SOL    HW117776  13.808   4.085   3.611
38648SOL    HW217777  13.905   3.984   3.670
38649SOL     OW17778  10.921  10.468   3.439
38649SOL    HW117779  10.972  10.547   3.425
38649SOL    HW217780  10.839  10.484   3.393
38650SOL     OW17781   4.474   4.255  14.076
38650SOL    HW117782   4.525   4.237  13.997
38650SOL    HW217783   4.536   4.249  14.148
38651SOL     OW17784  14.490   0.630  14.390
38651SOL    HW117785  14.441   0.548  14.384
38651SOL    HW217786  14.518   0.635  14.481
38652SOL     OW17787   0.711   7.255   7.655
38652SOL    HW117788   0.728   7.307   7.734
38652SOL    HW217789   0.616   7.260   7.644
38653SOL     OW17790  13.679   1.714   6.428
38653SOL    HW117791  13.731   1.783   6.470
38653SOL    HW217792  13.592   1.753   6.417
38654SOL     OW17793  11.814   1.679  12.988
38654SOL    HW117794  11.752   1.665  13.059
38654SOL    HW217795  11.851   1.593  12.970
38655SOL     OW17796  13.424  14.230  10.107
38655SOL    HW117797  13.400  14.318  10.136
38655SOL    HW217798  13.498  14.206  10.162
38656SOL     OW17799   8.856   7.993   6.463
38656SOL    HW117800   8.819   8.058   6.404
38656SOL    HW217801   8.834   8.025   6.550
38657SOL     OW17802  12.760   5.816   4.762
38657SOL    HW117803  12.817   5.786   4.690
38657SOL    HW217804  12.711   5.889   4.725
38658SOL     OW17805  11.203   8.638   4.368
38658SOL    HW117806  11.146   8.562   4.358
38658SOL    HW217807  11.176   8.677   4.451
38659SOL     OW17808   9.075   1.925  10.574
38659SOL    HW117809   9.114   1.985  10.510
38659SOL    HW217810   9.150   1.888  10.621
38660SOL     OW17811   9.343   4.085   5.399
38660SOL    HW117812   9.318   4.152   5.463
38660SOL    HW217813   9.437   4.072   5.414
38661SOL     OW17814  12.547   5.836   9.456
38661SOL    HW117815  12.602   5.906   9.491
38661SOL    HW217816  12.514   5.870   9.373
38662SOL     OW17817   3.913   3.020  13.564
38662SOL    HW117818   3.830   3.018  13.518
38662SOL    HW217819   3.891   2.997  13.655
38663SOL     OW17820  11.046   9.054   9.107
38663SOL    HW117821  11.050   9.144   9.139
38663SOL    HW217822  10.963   9.049   9.060
38664SOL     OW17823   1.863  13.744  14.796
38664SOL    HW117824   1.849  13.808  14.727
38664SOL    HW217825   1.916  13.675  14.755
38665SOL     OW17826   5.438   3.905   0.507
38665SOL    HW117827   5.424   3.850   0.430
38665SOL    HW217828   5.509   3.964   0.482
38666SOL     OW17829  12.789   2.522   0.175
38666SOL    HW117830  12.811   2.456   0.109
38666SOL    HW217831  12.873   2.556   0.204
38667SOL     OW17832  10.890  12.169  10.332
38667SOL    HW117833  10.828  12.207  10.394
38667SOL    HW217834  10.890  12.230  10.259
38668SOL     OW17835   0.281   7.044  13.259
38668SOL    HW117836   0.189   7.061  13.239
38668SOL    HW217837   0.328   7.077  13.182
38669SOL     OW17838  10.591   5.448   4.948
38669SOL    HW117839  10.609   5.360   4.980
38669SOL    HW217840  10.677   5.491   4.945
38670SOL     OW17841   1.936   3.967   8.549
38670SOL    HW117842   1.929   3.954   8.454
38670SOL    HW217843   2.031   3.968   8.565
38671SOL     OW17844  14.393  14.591  14.806
38671SOL    HW117845  14.488  14.591  14.806
38671SOL    HW217846  14.369  14.600   0.016
38672SOL     OW17847   4.221   7.759   9.591
38672SOL    HW117848   4.268   7.687   9.549
38672SOL    HW217849   4.289   7.823   9.612
38673SOL     OW17850  14.441   6.711   2.519
38673SOL    HW117851  14.441   6.629   2.568
38673SOL    HW217852  14.504   6.696   2.448
38674SOL     OW17853  12.911   9.886   1.150
38674SOL    HW117854  12.894   9.814   1.089
38674SOL    HW217855  13.006   9.896   1.149
38675SOL     OW17856  12.570  12.321   4.538
38675SOL    HW117857  12.543  12.360   4.621
38675SOL    HW217858  12.489  12.290   4.498
38676SOL     OW17859   0.460   1.838   0.741
38676SOL    HW117860   0.434   1.750   0.713
38676SOL    HW217861   0.526   1.824   0.809
38677SOL     OW17862  11.232   5.351   0.377
38677SOL    HW117863  11.249   5.288   0.307
38677SOL    HW217864  11.277   5.431   0.349
38678SOL     OW17865   7.227   4.299  11.752
38678SOL    HW117866   7.166   4.278  11.682
38678SOL    HW217867   7.205   4.238  11.823
38679SOL     OW17868  10.696   7.085   3.052
38679SOL    HW117869  10.674   7.164   3.002
38679SOL    HW217870  10.640   7.089   3.129
38680SOL     OW17871   2.997   7.596  14.723
38680SOL    HW117872   3.013   7.502  14.716
38680SOL    HW217873   3.018   7.618  14.813
38681SOL     OW17874  10.197   3.138  12.175
38681SOL    HW117875  10.105   3.133  12.151
38681SOL    HW217876  10.207   3.226  12.213
38682SOL     OW17877   0.590   5.220  11.122
38682SOL    HW117878   0.576   5.171  11.202
38682SOL    HW217879   0.611   5.154  11.056
38683SOL     OW17880   0.900   7.220   4.196
38683SOL    HW117881   0.845   7.186   4.267
38683SOL    HW217882   0.920   7.143   4.142
38684SOL     OW17883   2.109  12.946   7.587
38684SOL    HW117884   2.115  13.003   7.510
38684SOL    HW217885   2.096  13.006   7.660
38685SOL     OW17886   8.682   1.365   8.876
38685SOL    HW117887   8.733   1.383   8.798
38685SOL    HW217888   8.684   1.446   8.927
38686SOL     OW17889  10.845   1.848   2.793
38686SOL    HW117890  10.875   1.839   2.883
38686SOL    HW217891  10.866   1.764   2.752
38687SOL     OW17892   1.130  10.295   4.844
38687SOL    HW117893   1.059  10.328   4.788
38687SOL    HW217894   1.109  10.203   4.857
38688SOL     OW17895  12.384   4.958   8.074
38688SOL    HW117896  12.349   4.979   7.988
38688SOL    HW217897  12.394   4.862   8.073
38689SOL     OW17898   7.524  12.406  13.700
38689SOL    HW117899   7.477  12.414  13.783
38689SOL    HW217900   7.616  12.404  13.724
38690SOL     OW17901   9.047  14.300  12.214
38690SOL    HW117902   9.020  14.293  12.123
38690SOL    HW217903   9.074  14.212  12.239
38691SOL     OW17904  13.121   0.917   2.594
38691SOL    HW117905  13.207   0.956   2.613
38691SOL    HW217906  13.142   0.828   2.565
38692SOL     OW17907   2.567   3.872   4.240
38692SOL    HW117908   2.530   3.952   4.277
38692SOL    HW217909   2.633   3.903   4.178
38693SOL     OW17910  11.372   8.909   2.762
38693SOL    HW117911  11.297   8.850   2.761
38693SOL    HW217912  11.350   8.976   2.827
38694SOL     OW17913   2.325   4.753   2.933
38694SOL    HW117914   2.271   4.825   2.965
38694SOL    HW217915   2.276   4.717   2.859
38695SOL     OW17916   5.422   1.769  12.219
38695SOL    HW117917   5.373   1.766  12.137
38695SOL    HW217918   5.366   1.724  12.283
38696SOL     OW17919  11.100   7.116  14.698
38696SOL    HW117920  11.014   7.158  14.696
38696SOL    HW217921  11.157   7.182  14.737
38697SOL     OW17922   0.025   4.217   9.727
38697SOL    HW117923   0.053   4.181   9.811
38697SOL    HW217924  14.853   4.293   9.750
38698SOL     OW17925  11.178  10.934   2.052
38698SOL    HW117926  11.239  11.007   2.045
38698SOL    HW217927  11.213  10.880   2.123
38699SOL     OW17928   0.954  13.896   6.939
38699SOL    HW117929   1.015  13.942   6.883
38699SOL    HW217930   0.873  13.891   6.888
38700SOL     OW17931   6.761   9.415  11.089
38700SOL    HW117932   6.839   9.398  11.036
38700SOL    HW217933   6.745   9.333  11.135
38701SOL     OW17934  12.764   8.676  13.963
38701SOL    HW117935  12.794   8.686  14.053
38701SOL    HW217936  12.792   8.757  13.920
38702SOL     OW17937   4.038  10.946   9.910
38702SOL    HW117938   4.082  10.922   9.991
38702SOL    HW217939   4.073  10.886   9.844
38703SOL     OW17940   1.722   3.825   5.449
38703SOL    HW117941   1.714   3.870   5.533
38703SOL    HW217942   1.805   3.855   5.413
38704SOL     OW17943  12.552   9.471  12.059
38704SOL    HW117944  12.644   9.494  12.067
38704SOL    HW217945  12.529   9.433  12.144
38705SOL     OW17946   2.741  12.496   9.347
38705SOL    HW117947   2.714  12.468   9.259
38705SOL    HW217948   2.818  12.442   9.366
38706SOL     OW17949  11.448   8.790   2.040
38706SOL    HW117950  11.494   8.805   2.123
38706SOL    HW217951  11.437   8.877   2.002
38707SOL     OW17952   0.394  13.740   3.833
38707SOL    HW117953   0.482  13.775   3.845
38707SOL    HW217954   0.407  13.652   3.798
38708SOL     OW17955  13.849   7.226   1.599
38708SOL    HW117956  13.923   7.287   1.601
38708SOL    HW217957  13.807   7.243   1.514
38709SOL     OW17958  10.082   5.595   7.975
38709SOL    HW117959   9.990   5.573   7.991
38709SOL    HW217960  10.087   5.690   7.988
38710SOL     OW17961  13.900  14.180   2.016
38710SOL    HW117962  13.984  14.155   1.978
38710SOL    HW217963  13.839  14.111   1.989
38711SOL     OW17964  10.039   9.256   8.693
38711SOL    HW117965   9.991   9.225   8.616
38711SOL    HW217966   9.984   9.230   8.767
38712SOL     OW17967   8.902   6.622   6.920
38712SOL    HW117968   8.970   6.639   6.855
38712SOL    HW217969   8.829   6.586   6.871
38713SOL     OW17970   8.869   7.215   9.079
38713SOL    HW117971   8.906   7.134   9.114
38713SOL    HW217972   8.828   7.257   9.154
38714SOL     OW17973   4.806   5.388   4.858
38714SOL    HW117974   4.833   5.473   4.894
38714SOL    HW217975   4.858   5.379   4.778
38715SOL     OW17976   9.881   2.836  13.873
38715SOL    HW117977   9.865   2.771  13.805
38715SOL    HW217978   9.975   2.832  13.890
38716SOL     OW17979   7.396   0.761   0.855
38716SOL    HW117980   7.303   0.738   0.861
38716SOL    HW217981   7.421   0.782   0.945
38717SOL     OW17982  14.430   3.688   1.420
38717SOL    HW117983  14.515   3.670   1.380
38717SOL    HW217984  14.374   3.714   1.347
38718SOL     OW17985   4.590   4.679  13.712
38718SOL    HW117986   4.543   4.611  13.761
38718SOL    HW217987   4.558   4.762  13.750
38719SOL     OW17988   2.333  11.534   0.173
38719SOL    HW117989   2.259  11.526   0.113
38719SOL    HW217990   2.296  11.574   0.252
38720SOL     OW17991  10.928   6.895  10.630
38720SOL    HW117992  10.979   6.969  10.661
38720SOL    HW217993  10.992   6.834  10.594
38721SOL     OW17994   2.246   4.361  12.922
38721SOL    HW117995   2.159   4.356  12.883
38721SOL    HW217996   2.246   4.294  12.990
38722SOL     OW17997   4.659  12.301   0.511
38722SOL    HW117998   4.667  12.377   0.569
38722SOL    HW217999   4.704  12.328   0.430
38723SOL     OW18000   6.424   1.077   1.762
38723SOL    HW118001   6.390   1.114   1.680
38723SOL    HW218002   6.347   1.075   1.820
38724SOL     OW18003  13.692  14.481   7.342
38724SOL    HW118004  13.598  14.469   7.327
38724SOL    HW218005  13.733  14.403   7.305
38725SOL     OW18006  14.651   6.752  13.585
38725SOL    HW118007  14.594   6.779  13.513
38725SOL    HW218008  14.628   6.810  13.657
38726SOL     OW18009   6.396   2.894   6.855
38726SOL    HW118010   6.428   2.983   6.841
38726SOL    HW218011   6.318   2.906   6.909
38727SOL     OW18012  14.683   5.329   3.221
38727SOL    HW118013  14.733   5.402   3.258
38727SOL    HW218014  14.600   5.368   3.195
38728SOL     OW18015   0.001  11.088  10.072
38728SOL    HW118016   0.093  11.114  10.065
38728SOL    HW218017  14.840  11.133   9.999
38729SOL     OW18018   9.407   8.199  12.985
38729SOL    HW118019   9.464   8.137  12.941
38729SOL    HW218020   9.372   8.254  12.915
38730SOL     OW18021  10.553   3.585   8.113
38730SOL    HW118022  10.579   3.664   8.161
38730SOL    HW218023  10.459   3.576   8.132
38731SOL     OW18024   1.661   0.993   6.743
38731SOL    HW118025   1.635   1.023   6.656
38731SOL    HW218026   1.694   1.071   6.787
38732SOL     OW18027   5.572   9.359   0.926
38732SOL    HW118028   5.528   9.413   0.861
38732SOL    HW218029   5.659   9.400   0.936
38733SOL     OW18030   9.459   6.250   8.326
38733SOL    HW118031   9.366   6.238   8.343
38733SOL    HW218032   9.489   6.165   8.296
38734SOL     OW18033  12.232  14.839  12.012
38734SOL    HW118034  12.202  14.748  12.011
38734SOL    HW218035  12.225  14.865  12.104
38735SOL     OW18036   9.800   2.987  13.204
38735SOL    HW118037   9.858   3.052  13.165
38735SOL    HW218038   9.854   2.909  13.214
38736SOL     OW18039   9.265   8.522   9.655
38736SOL    HW118040   9.324   8.523   9.731
38736SOL    HW218041   9.323   8.523   9.579
38737SOL     OW18042  14.776   8.934   3.739
38737SOL    HW118043  14.790   8.978   3.655
38737SOL    HW218044  14.688   8.897   3.733
38738SOL     OW18045   8.238   0.214   0.849
38738SOL    HW118046   8.277   0.301   0.845
38738SOL    HW218047   8.310   0.156   0.876
38739SOL     OW18048   2.280   4.921  13.482
38739SOL    HW118049   2.296   4.854  13.415
38739SOL    HW218050   2.223   4.985  13.440
38740SOL     OW18051  14.330   5.675   9.194
38740SOL    HW118052  14.270   5.603   9.210
38740SOL    HW218053  14.297   5.719   9.116
38741SOL     OW18054   0.220   8.043   4.747
38741SOL    HW118055   0.268   8.062   4.666
38741SOL    HW218056   0.248   8.111   4.808
38742SOL     OW18057   1.364   8.087  13.416
38742SOL    HW118058   1.271   8.080  13.394
38742SOL    HW218059   1.395   8.161  13.363
38743SOL     OW18060   2.416   3.122   8.462
38743SOL    HW118061   2.378   3.127   8.549
38743SOL    HW218062   2.367   3.186   8.410
38744SOL     OW18063  12.084   2.706  10.212
38744SOL    HW118064  12.166   2.670  10.242
38744SOL    HW218065  12.089   2.799  10.234
38745SOL     OW18066   0.970   2.424   4.796
38745SOL    HW118067   0.973   2.383   4.710
38745SOL    HW218068   0.905   2.494   4.787
38746SOL     OW18069   9.080   5.690   5.242
38746SOL    HW118070   9.000   5.733   5.211
38746SOL    HW218071   9.141   5.762   5.258
38747SOL     OW18072   4.174   7.289   8.789
38747SOL    HW118073   4.186   7.374   8.747
38747SOL    HW218074   4.082   7.267   8.773
38748SOL     OW18075   5.206   8.057   1.063
38748SOL    HW118076   5.260   8.126   1.101
38748SOL    HW218077   5.119   8.096   1.055
38749SOL     OW18078   1.510  12.103  12.119
38749SOL    HW118079   1.583  12.049  12.149
38749SOL    HW218080   1.473  12.139  12.199
38750SOL     OW18081  10.298   5.708  11.682
38750SOL    HW118082  10.333   5.684  11.596
38750SOL    HW218083  10.301   5.804  11.684
38751SOL     OW18084   7.862   1.309   0.651
38751SOL    HW118085   7.863   1.315   0.556
38751SOL    HW218086   7.801   1.377   0.679
38752SOL     OW18087   4.195   6.558   7.327
38752SOL    HW118088   4.187   6.578   7.420
38752SOL    HW218089   4.267   6.613   7.296
38753SOL     OW18090  11.000  11.070   2.744
38753SOL    HW118091  11.010  11.110   2.831
38753SOL    HW218092  11.068  11.112   2.691
38754SOL     OW18093   6.170  12.883   6.897
38754SOL    HW118094   6.146  12.945   6.965
38754SOL    HW218095   6.171  12.935   6.816
38755SOL     OW18096   7.595  13.219  12.306
38755SOL    HW118097   7.547  13.257  12.379
38755SOL    HW218098   7.634  13.294  12.261
38756SOL     OW18099   7.081  12.362   7.060
38756SOL    HW118100   7.063  12.286   7.116
38756SOL    HW218101   6.998  12.378   7.015
38757SOL     OW18102   2.699  10.566   4.236
38757SOL    HW118103   2.730  10.584   4.147
38757SOL    HW218104   2.717  10.646   4.285
38758SOL     OW18105   4.821   1.215   9.886
38758SOL    HW118106   4.775   1.215   9.803
38758SOL    HW218107   4.757   1.247   9.949
38759SOL     OW18108   5.817  14.287  12.143
38759SOL    HW118109   5.866  14.221  12.191
38759SOL    HW218110   5.875  14.363  12.141
38760SOL     OW18111   3.888   2.955   4.145
38760SOL    HW118112   3.891   2.988   4.235
38760SOL    HW218113   3.963   2.997   4.102
38761SOL     OW18114   9.480   2.554  14.870
38761SOL    HW118115   9.496   2.579  14.779
38761SOL    HW218116   9.510   2.463  14.876
38762SOL     OW18117  10.338  12.170   7.008
38762SOL    HW118118  10.306  12.080   7.017
38762SOL    HW218119  10.258  12.223   7.009
38763SOL     OW18120  13.216   8.578  10.326
38763SOL    HW118121  13.202   8.672  10.310
38763SOL    HW218122  13.288   8.576  10.389
38764SOL     OW18123   0.023   0.179   5.228
38764SOL    HW118124  14.842   0.249   5.243
38764SOL    HW218125   0.030   0.134   5.312
38765SOL     OW18126  11.280   4.547   5.903
38765SOL    HW118127  11.189   4.558   5.931
38765SOL    HW218128  11.276   4.547   5.807
38766SOL     OW18129   9.255   4.954   1.419
38766SOL    HW118130   9.274   5.034   1.369
38766SOL    HW218131   9.279   4.883   1.360
38767SOL     OW18132   2.643  12.944  12.935
38767SOL    HW118133   2.692  13.016  12.895
38767SOL    HW218134   2.666  12.948  13.028
38768SOL     OW18135   4.416   9.168  11.459
38768SOL    HW118136   4.449   9.196  11.544
38768SOL    HW218137   4.348   9.232  11.437
38769SOL     OW18138   0.165   9.604   6.642
38769SOL    HW118139   0.084   9.572   6.681
38769SOL    HW218140   0.189   9.679   6.697
38770SOL     OW18141   4.082   2.612   4.426
38770SOL    HW118142   4.157   2.562   4.458
38770SOL    HW218143   4.032   2.549   4.374
38771SOL     OW18144   6.807   0.092   9.222
38771SOL    HW118145   6.717   0.120   9.243
38771SOL    HW218146   6.816   0.110   9.129
38772SOL     OW18147  14.790   6.700   6.993
38772SOL    HW118148  14.763   6.639   7.062
38772SOL    HW218149  14.713   6.755   6.977
38773SOL     OW18150  12.482  11.982   6.966
38773SOL    HW118151  12.575  11.984   6.987
38773SOL    HW218152  12.467  11.893   6.931
38774SOL     OW18153   9.257   4.583  11.046
38774SOL    HW118154   9.168   4.608  11.068
38774SOL    HW218155   9.257   4.487  11.052
38775SOL     OW18156   3.574   0.695   0.804
38775SOL    HW118157   3.529   0.720   0.885
38775SOL    HW218158   3.639   0.764   0.791
38776SOL     OW18159  11.397   1.044  14.364
38776SOL    HW118160  11.317   0.993  14.351
38776SOL    HW218161  11.467   0.986  14.335
38777SOL     OW18162   0.486   3.196  14.389
38777SOL    HW118163   0.472   3.106  14.418
38777SOL    HW218164   0.521   3.188  14.301
38778SOL     OW18165  14.513   5.603  10.315
38778SOL    HW118166  14.584   5.547  10.347
38778SOL    HW218167  14.489   5.657  10.390
38779SOL     OW18168   4.793  12.610  12.808
38779SOL    HW118169   4.723  12.638  12.749
38779SOL    HW218170   4.856  12.567  12.751
38780SOL     OW18171   3.045   3.506   8.848
38780SOL    HW118172   3.118   3.567   8.850
38780SOL    HW218173   2.997   3.527   8.768
38781SOL     OW18174  12.061  14.718   9.650
38781SOL    HW118175  11.983  14.704   9.704
38781SOL    HW218176  12.059  14.647   9.586
38782SOL     OW18177   7.034  10.762   0.202
38782SOL    HW118178   6.986  10.766   0.119
38782SOL    HW218179   7.098  10.833   0.196
38783SOL     OW18180  14.186   3.769   6.064
38783SOL    HW118181  14.207   3.842   6.006
38783SOL    HW218182  14.195   3.691   6.009
38784SOL     OW18183  13.570   6.742  13.942
38784SOL    HW118184  13.613   6.696  13.870
38784SOL    HW218185  13.553   6.830  13.908
38785SOL     OW18186  12.236   1.965  14.386
38785SOL    HW118187  12.329   1.950  14.405
38785SOL    HW218188  12.236   2.016  14.306
38786SOL     OW18189  11.791   5.023   0.143
38786SOL    HW118190  11.750   4.937   0.147
38786SOL    HW218191  11.753   5.072   0.215
38787SOL     OW18192   0.180   3.729   0.471
38787SOL    HW118193   0.087   3.710   0.458
38787SOL    HW218194   0.181   3.797   0.539
38788SOL     OW18195   2.381  14.197  11.843
38788SOL    HW118196   2.393  14.218  11.751
38788SOL    HW218197   2.298  14.238  11.867
38789SOL     OW18198   3.751   7.424   4.944
38789SOL    HW118199   3.719   7.507   4.978
38789SOL    HW218200   3.842   7.420   4.972
38790SOL     OW18201   7.069  14.323   9.065
38790SOL    HW118202   7.007  14.250   9.060
38790SOL    HW218203   7.152  14.281   9.088
38791SOL     OW18204   0.705   2.714  12.245
38791SOL    HW118205   0.793   2.711  12.284
38791SOL    HW218206   0.686   2.623  12.222
38792SOL     OW18207  12.445  14.222   8.930
38792SOL    HW118208  12.392  14.190   8.857
38792SOL    HW218209  12.456  14.315   8.913
38793SOL     OW18210   2.829   2.300   4.888
38793SOL    HW118211   2.919   2.301   4.857
38793SOL    HW218212   2.777   2.290   4.809
38794SOL     OW18213  10.361  11.994  13.264
38794SOL    HW118214  10.266  12.009  13.263
38794SOL    HW218215  10.381  11.976  13.356
38795SOL     OW18216   6.051  12.241   6.749
38795SOL    HW118217   5.964  12.277   6.770
38795SOL    HW218218   6.047  12.151   6.781
38796SOL     OW18219   9.580   0.598   2.932
38796SOL    HW118220   9.609   0.615   3.022
38796SOL    HW218221   9.625   0.664   2.880
38797SOL     OW18222   4.607  12.350  11.368
38797SOL    HW118223   4.585  12.380  11.456
38797SOL    HW218224   4.697  12.379  11.354
38798SOL     OW18225   8.545  11.888   6.271
38798SOL    HW118226   8.562  11.825   6.201
38798SOL    HW218227   8.556  11.838   6.352
38799SOL     OW18228  12.825  12.526   6.420
38799SOL    HW118229  12.809  12.619   6.401
38799SOL    HW218230  12.888  12.527   6.492
38800SOL     OW18231   1.720  11.307   1.531
38800SOL    HW118232   1.633  11.280   1.560
38800SOL    HW218233   1.748  11.237   1.472
38801SOL     OW18234  10.085   8.686   2.599
38801SOL    HW118235  10.088   8.721   2.510
38801SOL    HW218236   9.991   8.682   2.619
38802SOL     OW18237  12.239   7.560   2.903
38802SOL    HW118238  12.160   7.526   2.860
38802SOL    HW218239  12.214   7.571   2.994
38803SOL     OW18240  14.564   1.549   8.663
38803SOL    HW118241  14.493   1.514   8.717
38803SOL    HW218242  14.519   1.596   8.593
38804SOL     OW18243   9.768  13.008  11.236
38804SOL    HW118244   9.780  13.095  11.198
38804SOL    HW218245   9.822  12.950  11.182
38805SOL     OW18246   8.762   1.595   3.110
38805SOL    HW118247   8.831   1.641   3.157
38805SOL    HW218248   8.683   1.613   3.160
38806SOL     OW18249  13.920  11.588  13.237
38806SOL    HW118250  13.884  11.639  13.309
38806SOL    HW218251  13.972  11.520  13.280
38807SOL     OW18252  10.056   3.798   4.572
38807SOL    HW118253  10.026   3.740   4.502
38807SOL    HW218254  10.051   3.744   4.651
38808SOL     OW18255  11.064   4.970  13.613
38808SOL    HW118256  11.132   4.905  13.599
38808SOL    HW218257  11.066   5.025  13.534
38809SOL     OW18258   5.882   4.237   1.530
38809SOL    HW118259   5.905   4.183   1.455
38809SOL    HW218260   5.956   4.297   1.539
38810SOL     OW18261   2.877  12.577   8.820
38810SOL    HW118262   2.889  12.648   8.757
38810SOL    HW218263   2.820  12.515   8.776
38811SOL     OW18264  11.399   9.142   7.164
38811SOL    HW118265  11.383   9.204   7.235
38811SOL    HW218266  11.464   9.185   7.108
38812SOL     OW18267   2.135   5.507  10.619
38812SOL    HW118268   2.198   5.573  10.646
38812SOL    HW218269   2.057   5.524  10.672
38813SOL     OW18270  10.378   5.325   0.193
38813SOL    HW118271  10.414   5.405   0.230
38813SOL    HW218272  10.283   5.333   0.205
38814SOL     OW18273   1.407  14.641   3.264
38814SOL    HW118274   1.461  14.695   3.206
38814SOL    HW218275   1.317  14.665   3.242
38815SOL     OW18276   7.692   5.831   1.321
38815SOL    HW118277   7.742   5.873   1.390
38815SOL    HW218278   7.740   5.750   1.301
38816SOL     OW18279  12.346   5.143  12.456
38816SOL    HW118280  12.415   5.111  12.398
38816SOL    HW218281  12.342   5.078  12.527
38817SOL     OW18282  14.657   8.386  13.514
38817SOL    HW118283  14.583   8.443  13.535
38817SOL    HW218284  14.666   8.329  13.591
38818SOL     OW18285   8.672  14.869  10.943
38818SOL    HW118286   8.637  14.861  10.855
38818SOL    HW218287   8.666   0.080  10.963
38819SOL     OW18288   2.699  10.236   5.953
38819SOL    HW118289   2.704  10.146   5.984
38819SOL    HW218290   2.666  10.285   6.029
38820SOL     OW18291   8.042   4.108  10.383
38820SOL    HW118292   7.960   4.060  10.371
38820SOL    HW218293   8.109   4.040  10.392
38821SOL     OW18294   0.905  10.880  11.302
38821SOL    HW118295   0.939  10.791  11.306
38821SOL    HW218296   0.975  10.930  11.260
38822SOL     OW18297  10.127   7.941   7.055
38822SOL    HW118298  10.149   7.863   7.107
38822SOL    HW218299  10.040   7.922   7.019
38823SOL     OW18300  14.038   4.188   6.463
38823SOL    HW118301  14.069   4.197   6.553
38823SOL    HW218302  14.025   4.278   6.433
38824SOL     OW18303   2.138   2.746  14.713
38824SOL    HW118304   2.129   2.780  14.802
38824SOL    HW218305   2.173   2.820  14.663
38825SOL     OW18306   2.496   2.481  12.806
38825SOL    HW118307   2.537   2.396  12.792
38825SOL    HW218308   2.407   2.471  12.770
38826SOL     OW18309  13.644   7.847  13.727
38826SOL    HW118310  13.560   7.830  13.685
38826SOL    HW218311  13.625   7.911  13.796
38827SOL     OW18312  11.525   9.112   6.147
38827SOL    HW118313  11.462   9.170   6.189
38827SOL    HW218314  11.505   9.025   6.182
38828SOL     OW18315   7.363  13.132   4.438
38828SOL    HW118316   7.299  13.104   4.373
38828SOL    HW218317   7.400  13.050   4.471
38829SOL     OW18318  14.640   5.198  14.854
38829SOL    HW118319  14.617   5.209   0.064
38829SOL    HW218320  14.661   5.286  14.824
38830SOL     OW18321  10.099  14.628  10.402
38830SOL    HW118322  10.021  14.617  10.348
38830SOL    HW218323  10.065  14.641  10.491
38831SOL     OW18324  14.553   7.349   1.959
38831SOL    HW118325  14.464   7.342   1.992
38831SOL    HW218326  14.549   7.418   1.893
38832SOL     OW18327   3.826   0.010  14.485
38832SOL    HW118328   3.804   0.002  14.393
38832SOL    HW218329   3.921   0.022  14.487
38833SOL     OW18330   8.832   9.084   1.562
38833SOL    HW118331   8.865   9.079   1.472
38833SOL    HW218332   8.824   8.993   1.589
38834SOL     OW18333  12.566   5.682  13.439
38834SOL    HW118334  12.626   5.608  13.427
38834SOL    HW218335  12.543   5.708  13.350
38835SOL     OW18336   9.865   3.760  12.656
38835SOL    HW118337   9.836   3.817  12.726
38835SOL    HW218338   9.930   3.811  12.608
38836SOL     OW18339   8.791   9.510   6.314
38836SOL    HW118340   8.719   9.573   6.323
38836SOL    HW218341   8.773   9.467   6.230
38837SOL     OW18342  12.224   5.657   0.404
38837SOL    HW118343  12.241   5.566   0.384
38837SOL    HW218344  12.134   5.672   0.373
38838SOL     OW18345   2.657   8.932  13.915
38838SOL    HW118346   2.729   8.900  13.860
38838SOL    HW218347   2.587   8.867  13.902
38839SOL     OW18348  11.939  14.046   2.761
38839SOL    HW118349  11.870  14.077   2.820
38839SOL    HW218350  12.021  14.066   2.806
38840SOL     OW18351  11.199  14.388   4.020
38840SOL    HW118352  11.160  14.341   4.094
38840SOL    HW218353  11.187  14.481   4.042
38841SOL     OW18354  14.061   9.245   5.820
38841SOL    HW118355  14.090   9.306   5.887
38841SOL    HW218356  14.133   9.182   5.811
38842SOL     OW18357  12.162  10.928   3.437
38842SOL    HW118358  12.207  10.861   3.386
38842SOL    HW218359  12.177  10.904   3.528
38843SOL     OW18360   0.071  11.162   4.587
38843SOL    HW118361   0.123  11.142   4.509
38843SOL    HW218362   0.086  11.087   4.645
38844SOL     OW18363   4.085   6.501   5.611
38844SOL    HW118364   4.024   6.521   5.683
38844SOL    HW218365   4.046   6.545   5.535
38845SOL     OW18366   7.658   4.435  14.762
38845SOL    HW118367   7.568   4.406  14.781
38845SOL    HW218368   7.647   4.516  14.713
38846SOL     OW18369   6.552   2.279   9.556
38846SOL    HW118370   6.610   2.351   9.582
38846SOL    HW218371   6.499   2.317   9.485
38847SOL     OW18372   8.109   5.065   6.252
38847SOL    HW118373   8.113   5.139   6.313
38847SOL    HW218374   8.199   5.055   6.221
38848SOL     OW18375   7.421  13.124  14.422
38848SOL    HW118376   7.384  13.098  14.338
38848SOL    HW218377   7.416  13.044  14.476
38849SOL     OW18378   1.672   7.830   2.173
38849SOL    HW118379   1.647   7.756   2.228
38849SOL    HW218380   1.659   7.798   2.083
38850SOL     OW18381   6.481   8.584   4.690
38850SOL    HW118382   6.394   8.567   4.724
38850SOL    HW218383   6.539   8.579   4.766
38851SOL     OW18384  11.349   1.848   2.925
38851SOL    HW118385  11.308   1.934   2.932
38851SOL    HW218386  11.276   1.787   2.918
38852SOL     OW18387  12.297  14.880   8.638
38852SOL    HW118388  12.238   0.001   8.562
38852SOL    HW218389  12.368  14.822   8.611
38853SOL     OW18390   8.941   4.320   1.391
38853SOL    HW118391   8.866   4.380   1.394
38853SOL    HW218392   9.016   4.374   1.415
38854SOL     OW18393   1.157   2.516   4.059
38854SOL    HW118394   1.063   2.514   4.076
38854SOL    HW218395   1.167   2.579   3.987
38855SOL     OW18396  12.336  13.788  10.559
38855SOL    HW118397  12.309  13.790  10.467
38855SOL    HW218398  12.264  13.831  10.605
38856SOL     OW18399   9.655   4.025  12.134
38856SOL    HW118400   9.668   4.110  12.175
38856SOL    HW218401   9.691   3.962  12.196
38857SOL     OW18402   9.228  14.580   5.709
38857SOL    HW118403   9.265  14.569   5.621
38857SOL    HW218404   9.302  14.609   5.762
38858SOL     OW18405   1.675   6.308  11.153
38858SOL    HW118406   1.730   6.230  11.148
38858SOL    HW218407   1.699   6.348  11.237
38859SOL     OW18408   3.873   3.522  14.607
38859SOL    HW118409   3.820   3.564  14.675
38859SOL    HW218410   3.812   3.507  14.535
38860SOL     OW18411  12.452   9.964   7.754
38860SOL    HW118412  12.359   9.964   7.733
38860SOL    HW218413  12.457   9.922   7.840
38861SOL     OW18414  14.215   4.097   1.991
38861SOL    HW118415  14.154   4.029   2.021
38861SOL    HW218416  14.197   4.171   2.048
38862SOL     OW18417   6.114   8.301   6.912
38862SOL    HW118418   6.111   8.264   6.824
38862SOL    HW218419   6.197   8.349   6.915
38863SOL     OW18420  10.532  13.223   8.649
38863SOL    HW118421  10.519  13.225   8.554
38863SOL    HW218422  10.621  13.255   8.662
38864SOL     OW18423   9.005  12.792   0.094
38864SOL    HW118424   8.930  12.798   0.152
38864SOL    HW218425   9.002  12.874   0.044
38865SOL     OW18426   9.900   0.490   7.140
38865SOL    HW118427   9.817   0.472   7.097
38865SOL    HW218428   9.918   0.582   7.119
38866SOL     OW18429  11.006  13.749   1.897
38866SOL    HW118430  10.911  13.744   1.902
38866SOL    HW218431  11.037  13.670   1.941
38867SOL     OW18432  11.962   7.399   4.055
38867SOL    HW118433  11.992   7.490   4.063
38867SOL    HW218434  11.905   7.387   4.131
38868SOL     OW18435   0.518   2.102   8.005
38868SOL    HW118436   0.483   2.116   8.093
38868SOL    HW218437   0.440   2.092   7.949
38869SOL     OW18438   1.948   5.388  11.332
38869SOL    HW118439   1.975   5.410  11.242
38869SOL    HW218440   1.959   5.293  11.337
38870SOL     OW18441   7.687   1.610   1.442
38870SOL    HW118442   7.736   1.559   1.378
38870SOL    HW218443   7.755   1.648   1.498
38871SOL     OW18444   2.344  14.351   9.662
38871SOL    HW118445   2.407  14.296   9.708
38871SOL    HW218446   2.341  14.314   9.573
38872SOL     OW18447  11.566  12.011   7.275
38872SOL    HW118448  11.596  11.926   7.309
38872SOL    HW218449  11.480  11.992   7.238
38873SOL     OW18450  13.676   4.370   5.688
38873SOL    HW118451  13.698   4.303   5.753
38873SOL    HW218452  13.595   4.409   5.721
38874SOL     OW18453   6.738  14.040   2.701
38874SOL    HW118454   6.674  14.095   2.654
38874SOL    HW218455   6.821  14.085   2.688
38875SOL     OW18456   3.042   9.976   1.819
38875SOL    HW118457   3.106  10.003   1.753
38875SOL    HW218458   2.963   9.955   1.769
38876SOL     OW18459   0.046   0.950   7.105
38876SOL    HW118460   0.118   0.999   7.067
38876SOL    HW218461   0.088   0.886   7.162
38877SOL     OW18462  10.433   2.060   5.550
38877SOL    HW118463  10.363   2.022   5.603
38877SOL    HW218464  10.513   2.016   5.581
38878SOL     OW18465   1.339   1.614   9.748
38878SOL    HW118466   1.403   1.684   9.749
38878SOL    HW218467   1.254   1.659   9.746
38879SOL     OW18468   9.718   2.490  12.961
38879SOL    HW118469   9.673   2.525  13.037
38879SOL    HW218470   9.785   2.555  12.940
38880SOL     OW18471   3.650   1.772  11.151
38880SOL    HW118472   3.634   1.837  11.218
38880SOL    HW218473   3.742   1.785  11.126
38881SOL     OW18474   3.498  12.365  10.379
38881SOL    HW118475   3.515  12.282  10.424
38881SOL    HW218476   3.557  12.363  10.304
38882SOL     OW18477   8.404   0.743  11.447
38882SOL    HW118478   8.479   0.707  11.399
38882SOL    HW218479   8.343   0.769  11.379
38883SOL     OW18480  13.100   2.902   4.364
38883SOL    HW118481  13.064   2.863   4.284
38883SOL    HW218482  13.066   2.848   4.435
38884SOL     OW18483  11.734  10.644   0.573
38884SOL    HW118484  11.819  10.614   0.541
38884SOL    HW218485  11.728  10.608   0.662
38885SOL     OW18486  13.018   6.015   2.143
38885SOL    HW118487  13.070   5.990   2.066
38885SOL    HW218488  13.007   5.934   2.192
38886SOL     OW18489  13.227   9.022   5.657
38886SOL    HW118490  13.295   9.080   5.693
38886SOL    HW218491  13.181   8.989   5.734
38887SOL     OW18492  11.761   2.477   2.124
38887SOL    HW118493  11.695   2.423   2.081
38887SOL    HW218494  11.712   2.555   2.152
38888SOL     OW18495   2.482   4.277  11.082
38888SOL    HW118496   2.517   4.343  11.142
38888SOL    HW218497   2.544   4.205  11.087
38889SOL     OW18498   4.624   0.696   0.107
38889SOL    HW118499   4.655   0.744   0.030
38889SOL    HW218500   4.544   0.653   0.078
38890SOL     OW18501  13.726   7.832   0.688
38890SOL    HW118502  13.716   7.854   0.595
38890SOL    HW218503  13.681   7.903   0.734
38891SOL     OW18504   1.166  12.158   3.141
38891SOL    HW118505   1.173  12.109   3.058
38891SOL    HW218506   1.252  12.197   3.153
38892SOL     OW18507   9.374   6.871  14.315
38892SOL    HW118508   9.460   6.877  14.358
38892SOL    HW218509   9.312   6.901  14.381
38893SOL     OW18510   5.918  14.786   9.842
38893SOL    HW118511   5.930  14.866   9.893
38893SOL    HW218512   5.902  14.717   9.907
38894SOL     OW18513   1.469   9.212  11.407
38894SOL    HW118514   1.439   9.153  11.477
38894SOL    HW218515   1.389   9.231  11.357
38895SOL     OW18516   5.929   3.905   8.970
38895SOL    HW118517   6.008   3.959   8.957
38895SOL    HW218518   5.874   3.926   8.894
38896SOL     OW18519   2.198  11.811  10.086
38896SOL    HW118520   2.213  11.816  10.180
38896SOL    HW218521   2.229  11.724  10.061
38897SOL     OW18522  10.474   4.188   8.927
38897SOL    HW118523  10.544   4.250   8.950
38897SOL    HW218524  10.496   4.108   8.974
38898SOL     OW18525   1.290   5.890   2.979
38898SOL    HW118526   1.228   5.819   2.998
38898SOL    HW218527   1.251   5.936   2.905
38899SOL     OW18528   4.301   1.137  10.938
38899SOL    HW118529   4.220   1.185  10.923
38899SOL    HW218530   4.361   1.169  10.871
38900SOL     OW18531   5.933   4.742  14.385
38900SOL    HW118532   5.940   4.666  14.444
38900SOL    HW218533   6.013   4.740  14.334
38901SOL     OW18534  14.551   2.480  12.229
38901SOL    HW118535  14.472   2.443  12.190
38901SOL    HW218536  14.519   2.541  12.295
38902SOL     OW18537  10.069   3.246   2.671
38902SOL    HW118538  10.125   3.169   2.682
38902SOL    HW218539   9.983   3.217   2.701
38903SOL     OW18540   8.502   4.170   8.367
38903SOL    HW118541   8.550   4.089   8.352
38903SOL    HW218542   8.566   4.240   8.354
38904SOL     OW18543  14.873   2.770   7.566
38904SOL    HW118544   0.083   2.767   7.592
38904SOL    HW218545  14.862   2.699   7.503
38905SOL     OW18546   5.515   0.825   5.105
38905SOL    HW118547   5.524   0.773   5.185
38905SOL    HW218548   5.486   0.911   5.135
38906SOL     OW18549   2.578  14.212   1.566
38906SOL    HW118550   2.537  14.156   1.631
38906SOL    HW218551   2.657  14.245   1.608
38907SOL     OW18552   1.451   0.703   4.979
38907SOL    HW118553   1.419   0.726   4.892
38907SOL    HW218554   1.516   0.770   4.999
38908SOL     OW18555   4.968  12.255   4.903
38908SOL    HW118556   4.900  12.264   4.970
38908SOL    HW218557   5.036  12.203   4.945
38909SOL     OW18558   9.230   0.763  12.874
38909SOL    HW118559   9.303   0.746  12.933
38909SOL    HW218560   9.169   0.815  12.927
38910SOL     OW18561   0.807   5.877  12.544
38910SOL    HW118562   0.750   5.949  12.517
38910SOL    HW218563   0.801   5.877  12.639
38911SOL     OW18564   5.933   7.788   6.994
38911SOL    HW118565   5.870   7.744   7.052
38911SOL    HW218566   6.016   7.785   7.043
38912SOL     OW18567  11.439   0.194   6.531
38912SOL    HW118568  11.421   0.130   6.461
38912SOL    HW218569  11.368   0.257   6.525
38913SOL     OW18570  14.052   2.438   2.285
38913SOL    HW118571  14.123   2.467   2.227
38913SOL    HW218572  14.055   2.498   2.359
38914SOL     OW18573   9.313   3.101   6.297
38914SOL    HW118574   9.357   3.141   6.222
38914SOL    HW218575   9.384   3.066   6.351
38915SOL     OW18576   8.593  14.351  14.595
38915SOL    HW118577   8.667  14.291  14.604
38915SOL    HW218578   8.571  14.349  14.502
38916SOL     OW18579   9.098   3.166   3.718
38916SOL    HW118580   9.161   3.231   3.748
38916SOL    HW218581   9.065   3.125   3.799
38917SOL     OW18582   1.702   4.697   5.180
38917SOL    HW118583   1.716   4.602   5.183
38917SOL    HW218584   1.627   4.708   5.122
38918SOL     OW18585   8.634   8.752   9.730
38918SOL    HW118586   8.556   8.778   9.682
38918SOL    HW218587   8.702   8.744   9.663
38919SOL     OW18588  12.140  14.684  11.696
38919SOL    HW118589  12.160  14.728  11.779
38919SOL    HW218590  12.122  14.756  11.635
38920SOL     OW18591   4.865  10.312   1.698
38920SOL    HW118592   4.897  10.373   1.765
38920SOL    HW218593   4.866  10.227   1.741
38921SOL     OW18594   7.723   5.699  12.546
38921SOL    HW118595   7.756   5.756  12.615
38921SOL    HW218596   7.633   5.679  12.573
38922SOL     OW18597  12.156  12.777   4.339
38922SOL    HW118598  12.070  12.760   4.376
38922SOL    HW218599  12.204  12.695   4.350
38923SOL     OW18600  13.330   8.523   4.925
38923SOL    HW118601  13.348   8.445   4.976
38923SOL    HW218602  13.261   8.569   4.974
38924SOL     OW18603   8.554   9.802   6.030
38924SOL    HW118604   8.474   9.848   6.004
38924SOL    HW218605   8.538   9.711   6.007
38925SOL     OW18606  13.343  11.119   5.138
38925SOL    HW118607  13.426  11.130   5.184
38925SOL    HW218608  13.343  11.028   5.109
38926SOL     OW18609  10.475   9.867  11.576
38926SOL    HW118610  10.419   9.944  11.586
38926SOL    HW218611  10.536   9.890  11.507
38927SOL     OW18612   9.677   9.243   2.864
38927SOL    HW118613   9.620   9.167   2.864
38927SOL    HW218614   9.766   9.207   2.867
38928SOL     OW18615   0.469   3.147   6.920
38928SOL    HW118616   0.404   3.078   6.929
38928SOL    HW218617   0.418   3.227   6.912
38929SOL     OW18618  10.360  12.714  12.939
38929SOL    HW118619  10.399  12.709  13.026
38929SOL    HW218620  10.431  12.690  12.880
38930SOL     OW18621   5.797   1.863   5.995
38930SOL    HW118622   5.791   1.813   6.076
38930SOL    HW218623   5.872   1.825   5.949
38931SOL     OW18624  13.947   6.742   4.092
38931SOL    HW118625  13.878   6.778   4.036
38931SOL    HW218626  13.905   6.734   4.178
38932SOL     OW18627   2.378  13.490  10.240
38932SOL    HW118628   2.287  13.502  10.269
38932SOL    HW218629   2.422  13.570  10.269
38933SOL     OW18630   5.809  13.199   1.728
38933SOL    HW118631   5.773  13.118   1.765
38933SOL    HW218632   5.826  13.255   1.804
38934SOL     OW18633   8.122   8.055   7.480
38934SOL    HW118634   8.094   8.070   7.570
38934SOL    HW218635   8.156   8.140   7.451
38935SOL     OW18636   3.030   5.857   5.662
38935SOL    HW118637   3.046   5.951   5.648
38935SOL    HW218638   3.089   5.833   5.733
38936SOL     OW18639   5.665   8.691   3.461
38936SOL    HW118640   5.600   8.725   3.400
38936SOL    HW218641   5.735   8.656   3.405
38937SOL     OW18642   5.837   8.412  11.744
38937SOL    HW118643   5.879   8.435  11.827
38937SOL    HW218644   5.830   8.495  11.697
38938SOL     OW18645   2.135   9.242   9.816
38938SOL    HW118646   2.048   9.263   9.849
38938SOL    HW218647   2.182   9.326   9.816
38939SOL     OW18648  13.986   2.056  12.831
38939SOL    HW118649  14.050   2.071  12.762
38939SOL    HW218650  14.026   2.091  12.910
38940SOL     OW18651   0.567   3.408   3.903
38940SOL    HW118652   0.589   3.482   3.959
38940SOL    HW218653   0.561   3.446   3.815
38941SOL     OW18654   4.701   6.349  11.126
38941SOL    HW118655   4.658   6.317  11.205
38941SOL    HW218656   4.674   6.441  11.119
38942SOL     OW18657   2.272   9.696  11.353
38942SOL    HW118658   2.229   9.736  11.278
38942SOL    HW218659   2.287   9.605  11.326
38943SOL     OW18660  12.608   0.331   9.876
38943SOL    HW118661  12.588   0.319   9.968
38943SOL    HW218662  12.528   0.308   9.829
38944SOL     OW18663  12.047   9.304   8.207
38944SOL    HW118664  11.960   9.336   8.182
38944SOL    HW218665  12.036   9.272   8.297
38945SOL     OW18666   3.613   3.817  10.637
38945SOL    HW118667   3.532   3.868  10.634
38945SOL    HW218668   3.678   3.871  10.591
38946SOL     OW18669   0.274   4.150  11.489
38946SOL    HW118670   0.316   4.065  11.494
38946SOL    HW218671   0.341   4.212  11.516
38947SOL     OW18672   2.832   9.807   3.206
38947SOL    HW118673   2.902   9.863   3.174
38947SOL    HW218674   2.759   9.822   3.145
38948SOL     OW18675  11.295   1.528  13.384
38948SOL    HW118676  11.221   1.469  13.399
38948SOL    HW218677  11.266   1.613  13.418
38949SOL     OW18678   8.020   3.990   7.123
38949SOL    HW118679   8.058   4.064   7.171
38949SOL    HW218680   8.086   3.921   7.129
38950SOL     OW18681   4.947   3.946   3.436
38950SOL    HW118682   4.952   3.993   3.353
38950SOL    HW218683   5.018   3.982   3.489
38951SOL     OW18684   1.455   5.578   5.150
38951SOL    HW118685   1.512   5.513   5.192
38951SOL    HW218686   1.507   5.658   5.149
38952SOL     OW18687   3.516  13.447  11.734
38952SOL    HW118688   3.478  13.384  11.795
38952SOL    HW218689   3.455  13.521  11.735
38953SOL     OW18690   6.336  12.944  13.962
38953SOL    HW118691   6.347  13.005  14.036
38953SOL    HW218692   6.311  13.000  13.889
38954SOL     OW18693  13.590   4.200  10.012
38954SOL    HW118694  13.516   4.142  10.025
38954SOL    HW218695  13.640   4.195  10.094
38955SOL     OW18696  14.401   9.089  11.369
38955SOL    HW118697  14.456   9.036  11.311
38955SOL    HW218698  14.436   9.178  11.360
38956SOL     OW18699   3.485  11.978   6.212
38956SOL    HW118700   3.458  12.028   6.289
38956SOL    HW218701   3.455  11.889   6.230
38957SOL     OW18702   1.170   3.912   3.612
38957SOL    HW118703   1.097   3.973   3.605
38957SOL    HW218704   1.191   3.888   3.522
38958SOL     OW18705   0.212  11.247  14.583
38958SOL    HW118706   0.208  11.151  14.589
38958SOL    HW218707   0.121  11.275  14.583
38959SOL     OW18708  14.611  10.904  14.306
38959SOL    HW118709  14.615  11.000  14.300
38959SOL    HW218710  14.529  10.887  14.353
38960SOL     OW18711   2.238   6.942   1.549
38960SOL    HW118712   2.176   6.917   1.480
38960SOL    HW218713   2.183   6.975   1.620
38961SOL     OW18714  10.536   0.745   8.080
38961SOL    HW118715  10.470   0.735   8.149
38961SOL    HW218716  10.485   0.747   7.999
38962SOL     OW18717  10.303   0.155   4.413
38962SOL    HW118718  10.224   0.208   4.400
38962SOL    HW218719  10.360   0.210   4.467
38963SOL     OW18720  13.110   5.088   9.173
38963SOL    HW118721  13.128   5.044   9.090
38963SOL    HW218722  13.144   5.177   9.161
38964SOL     OW18723   3.197   0.407  13.642
38964SOL    HW118724   3.210   0.395  13.548
38964SOL    HW218725   3.259   0.347  13.683
38965SOL     OW18726   3.124   6.409   2.920
38965SOL    HW118727   3.201   6.352   2.923
38965SOL    HW218728   3.068   6.377   2.990
38966SOL     OW18729   5.828   9.589   6.524
38966SOL    HW118730   5.779   9.510   6.498
38966SOL    HW218731   5.911   9.581   6.477
38967SOL     OW18732   9.757  11.458   4.401
38967SOL    HW118733   9.762  11.488   4.310
38967SOL    HW218734   9.842  11.418   4.418
38968SOL     OW18735  11.248   3.640  12.055
38968SOL    HW118736  11.216   3.727  12.030
38968SOL    HW218737  11.335   3.656  12.092
38969SOL     OW18738   5.383   8.053   9.755
38969SOL    HW118739   5.335   8.038   9.837
38969SOL    HW218740   5.464   8.003   9.765
38970SOL     OW18741  14.425  10.553  11.451
38970SOL    HW118742  14.476  10.526  11.528
38970SOL    HW218743  14.364  10.618  11.484
38971SOL     OW18744   1.759   5.726   6.184
38971SOL    HW118745   1.747   5.696   6.274
38971SOL    HW218746   1.824   5.796   6.191
38972SOL     OW18747  14.191   6.847   2.324
38972SOL    HW118748  14.255   6.914   2.299
38972SOL    HW218749  14.244   6.770   2.346
38973SOL     OW18750  11.794   2.359  14.860
38973SOL    HW118751  11.700   2.373  14.847
38973SOL    HW218752  11.800   2.305   0.057
38974SOL     OW18753   5.931   5.635   0.446
38974SOL    HW118754   5.990   5.560   0.431
38974SOL    HW218755   5.853   5.614   0.395
38975SOL     OW18756  12.720   1.379   1.792
38975SOL    HW118757  12.690   1.331   1.869
38975SOL    HW218758  12.760   1.459   1.827
38976SOL     OW18759   0.416   7.699  12.874
38976SOL    HW118760   0.442   7.713  12.965
38976SOL    HW218761   0.496   7.714  12.824
38977SOL     OW18762   4.674  12.110   4.010
38977SOL    HW118763   4.683  12.072   3.923
38977SOL    HW218764   4.583  12.139   4.015
38978SOL     OW18765   9.581  13.047   3.212
38978SOL    HW118766   9.669  13.020   3.236
38978SOL    HW218767   9.560  12.992   3.136
38979SOL     OW18768   9.727   6.908   3.158
38979SOL    HW118769   9.725   6.814   3.139
38979SOL    HW218770   9.746   6.949   3.074
38980SOL     OW18771  13.218   7.812   9.190
38980SOL    HW118772  13.198   7.889   9.242
38980SOL    HW218773  13.165   7.823   9.110
38981SOL     OW18774  10.553  13.295   0.645
38981SOL    HW118775  10.546  13.210   0.690
38981SOL    HW218776  10.468  13.306   0.602
38982SOL     OW18777   7.400  11.870  13.449
38982SOL    HW118778   7.354  11.797  13.492
38982SOL    HW218779   7.443  11.915  13.521
38983SOL     OW18780   1.822   7.693  12.671
38983SOL    HW118781   1.830   7.749  12.748
38983SOL    HW218782   1.867   7.740  12.601
38984SOL     OW18783   3.986   0.680   7.668
38984SOL    HW118784   4.018   0.662   7.579
38984SOL    HW218785   4.012   0.770   7.685
38985SOL     OW18786  10.861   7.944  14.809
38985SOL    HW118787  10.837   7.976  14.722
38985SOL    HW218788  10.924   8.009  14.841
38986SOL     OW18789   3.706   0.247   7.137
38986SOL    HW118790   3.724   0.241   7.231
38986SOL    HW218791   3.739   0.334   7.113
38987SOL     OW18792   3.634   3.067   9.346
38987SOL    HW118793   3.615   2.991   9.292
38987SOL    HW218794   3.552   3.116   9.348
38988SOL     OW18795   1.211   9.721   6.203
38988SOL    HW118796   1.209   9.649   6.139
38988SOL    HW218797   1.301   9.721   6.235
38989SOL     OW18798   9.944   0.060   6.901
38989SOL    HW118799   9.989   0.135   6.940
38989SOL    HW218800   9.909   0.011   6.976
38990SOL     OW18801  12.966   6.773  14.616
38990SOL    HW118802  13.001   6.831  14.684
38990SOL    HW218803  12.876   6.756  14.643
38991SOL     OW18804  10.492  14.426  14.657
38991SOL    HW118805  10.463  14.464  14.575
38991SOL    HW218806  10.479  14.495  14.722
38992SOL     OW18807   7.077  11.576   2.297
38992SOL    HW118808   7.071  11.616   2.211
38992SOL    HW218809   6.991  11.591   2.336
38993SOL     OW18810   9.442   9.285  12.340
38993SOL    HW118811   9.437   9.212  12.401
38993SOL    HW218812   9.533   9.287  12.311
38994SOL     OW18813   8.161  13.348   4.635
38994SOL    HW118814   8.159  13.393   4.551
38994SOL    HW218815   8.089  13.386   4.685
38995SOL     OW18816   7.986  10.968   6.160
38995SOL    HW118817   7.928  11.030   6.205
38995SOL    HW218818   7.926  10.910   6.112
38996SOL     OW18819   8.618  13.237  13.553
38996SOL    HW118820   8.581  13.294  13.620
38996SOL    HW218821   8.620  13.150  13.594
38997SOL     OW18822   9.626  14.760   6.262
38997SOL    HW118823   9.701  14.820   6.267
38997SOL    HW218824   9.631  14.710   6.344
38998SOL     OW18825   9.554  10.620  10.629
38998SOL    HW118826   9.625  10.607  10.566
38998SOL    HW218827   9.571  10.706  10.667
38999SOL     OW18828   6.659   6.596  14.346
38999SOL    HW118829   6.603   6.536  14.297
38999SOL    HW218830   6.641   6.682  14.308
39000SOL     OW18831  11.403  14.112  13.743
39000SOL    HW118832  11.408  14.146  13.832
39000SOL    HW218833  11.312  14.085  13.732
39001SOL     OW18834   5.033   8.010  12.803
39001SOL    HW118835   4.957   8.057  12.838
39001SOL    HW218836   5.000   7.922  12.785
39002SOL     OW18837  13.870  10.585   5.643
39002SOL    HW118838  13.819  10.587   5.724
39002SOL    HW218839  13.960  10.601   5.672
39003SOL     OW18840   2.045   8.125   1.760
39003SOL    HW118841   2.008   8.092   1.678
39003SOL    HW218842   2.021   8.218   1.761
39004SOL     OW18843   3.216   5.279  10.565
39004SOL    HW118844   3.171   5.233  10.494
39004SOL    HW218845   3.145   5.321  10.615
39005SOL     OW18846  11.075  13.468  13.346
39005SOL    HW118847  11.069  13.494  13.438
39005SOL    HW218848  11.168  13.447  13.334
39006SOL     OW18849   8.725  14.794  13.746
39006SOL    HW118850   8.739   0.004  13.722
39006SOL    HW218851   8.680  14.756  13.671
39007SOL     OW18852   4.840  10.539   9.077
39007SOL    HW118853   4.876  10.523   8.989
39007SOL    HW218854   4.834  10.634   9.083
39008SOL     OW18855   9.689  13.470   8.629
39008SOL    HW118856   9.782  13.469   8.651
39008SOL    HW218857   9.645  13.488   8.712
39009SOL     OW18858   0.290  10.271   7.368
39009SOL    HW118859   0.260  10.184   7.395
39009SOL    HW218860   0.316  10.313   7.450
39010SOL     OW18861  13.532  12.829  11.120
39010SOL    HW118862  13.534  12.854  11.028
39010SOL    HW218863  13.460  12.766  11.126
39011SOL     OW18864  14.677   5.704   0.697
39011SOL    HW118865  14.613   5.644   0.659
39011SOL    HW218866  14.650   5.790   0.665
39012SOL     OW18867   4.447  13.451  10.678
39012SOL    HW118868   4.480  13.374  10.725
39012SOL    HW218869   4.357  13.462  10.711
39013SOL     OW18870  13.242   9.798  13.261
39013SOL    HW118871  13.318   9.745  13.235
39013SOL    HW218872  13.217   9.844  13.182
39014SOL     OW18873   0.537   1.818   8.664
39014SOL    HW118874   0.572   1.768   8.589
39014SOL    HW218875   0.534   1.754   8.735
39015SOL     OW18876   0.788   7.347   2.284
39015SOL    HW118877   0.736   7.267   2.288
39015SOL    HW218878   0.874   7.318   2.254
39016SOL     OW18879  11.744   3.599   0.251
39016SOL    HW118880  11.653   3.570   0.240
39016SOL    HW218881  11.748   3.634   0.340
39017SOL     OW18882  14.215   5.016   4.803
39017SOL    HW118883  14.137   5.012   4.858
39017SOL    HW218884  14.228   5.109   4.787
39018SOL     OW18885   3.371  13.026   2.243
39018SOL    HW118886   3.433  13.084   2.287
39018SOL    HW218887   3.408  13.013   2.156
39019SOL     OW18888   8.251   5.239   8.358
39019SOL    HW118889   8.289   5.317   8.318
39019SOL    HW218890   8.162   5.265   8.381
39020SOL     OW18891   0.319   5.199   8.865
39020SOL    HW118892   0.298   5.106   8.853
39020SOL    HW218893   0.331   5.232   8.776
39021SOL     OW18894   0.299   7.290   0.100
39021SOL    HW118895   0.224   7.243   0.136
39021SOL    HW218896   0.373   7.230   0.110
39022SOL     OW18897   6.525   1.742   9.271
39022SOL    HW118898   6.439   1.780   9.253
39022SOL    HW218899   6.587   1.801   9.228
39023SOL     OW18900   3.912   3.248   6.752
39023SOL    HW118901   3.882   3.202   6.674
39023SOL    HW218902   3.870   3.334   6.748
39024SOL     OW18903   6.583   6.610   5.909
39024SOL    HW118904   6.610   6.639   5.996
39024SOL    HW218905   6.498   6.568   5.923
39025SOL     OW18906   2.275  13.515  10.545
39025SOL    HW118907   2.320  13.588  10.588
39025SOL    HW218908   2.303  13.438  10.593
39026SOL     OW18909   4.942   0.679   2.075
39026SOL    HW118910   4.931   0.754   2.134
39026SOL    HW218911   4.910   0.604   2.125
39027SOL     OW18912  11.252  14.033   6.393
39027SOL    HW118913  11.285  14.118   6.364
39027SOL    HW218914  11.294  13.970   6.334
39028SOL     OW18915  11.420   6.813   0.624
39028SOL    HW118916  11.390   6.903   0.637
39028SOL    HW218917  11.515   6.819   0.622
39029SOL     OW18918   6.748   2.524   6.775
39029SOL    HW118919   6.709   2.564   6.852
39029SOL    HW218920   6.730   2.587   6.704
39030SOL     OW18921  11.259   4.836  13.467
39030SOL    HW118922  11.243   4.742  13.461
39030SOL    HW218923  11.309   4.857  13.389
39031SOL     OW18924  10.709   9.143   9.425
39031SOL    HW118925  10.695   9.223   9.376
39031SOL    HW218926  10.743   9.172   9.510
39032SOL     OW18927   8.520   9.254  13.864
39032SOL    HW118928   8.494   9.222  13.778
39032SOL    HW218929   8.475   9.337  13.874
39033SOL     OW18930   7.272  11.480   2.879
39033SOL    HW118931   7.344  11.542   2.891
39033SOL    HW218932   7.195  11.534   2.863
39034SOL     OW18933  10.054   9.783  10.506
39034SOL    HW118934  10.041   9.866  10.553
39034SOL    HW218935  10.085   9.723  10.574
39035SOL     OW18936  10.407   5.258   1.311
39035SOL    HW118937  10.377   5.168   1.295
39035SOL    HW218938  10.351   5.312   1.256
39036SOL     OW18939   5.049   9.744   0.293
39036SOL    HW118940   4.987   9.765   0.363
39036SOL    HW218941   4.995   9.731   0.215
39037SOL     OW18942   1.491   1.030   1.337
39037SOL    HW118943   1.537   0.947   1.324
39037SOL    HW218944   1.504   1.049   1.430
39038SOL     OW18945  11.836  13.307   1.624
39038SOL    HW118946  11.889  13.369   1.572
39038SOL    HW218947  11.887  13.293   1.704
39039SOL     OW18948   0.834  11.067   8.099
39039SOL    HW118949   0.819  10.980   8.062
39039SOL    HW218950   0.925  11.064   8.131
39040SOL     OW18951   0.080  11.311   0.004
39040SOL    HW118952   0.081  11.403   0.032
39040SOL    HW218953   0.034  11.312  14.802
39041SOL     OW18954   7.500   9.231   1.182
39041SOL    HW118955   7.485   9.322   1.154
39041SOL    HW218956   7.520   9.184   1.102
39042SOL     OW18957   0.846  11.739   2.768
39042SOL    HW118958   0.756  11.765   2.748
39042SOL    HW218959   0.875  11.692   2.690
39043SOL     OW18960   3.374   5.653   0.556
39043SOL    HW118961   3.361   5.730   0.612
39043SOL    HW218962   3.324   5.672   0.477
39044SOL     OW18963   5.346   6.412   9.583
39044SOL    HW118964   5.388   6.336   9.543
39044SOL    HW218965   5.392   6.425   9.666
39045SOL     OW18966   8.104   2.504   5.654
39045SOL    HW118967   8.158   2.539   5.725
39045SOL    HW218968   8.046   2.441   5.696
39046SOL     OW18969   0.170   5.667   2.696
39046SOL    HW118970   0.204   5.714   2.773
39046SOL    HW218971   0.113   5.731   2.653
39047SOL     OW18972   8.228   8.709   5.406
39047SOL    HW118973   8.136   8.685   5.405
39047SOL    HW218974   8.270   8.644   5.462
39048SOL     OW18975   5.557   2.290   1.306
39048SOL    HW118976   5.600   2.370   1.335
39048SOL    HW218977   5.615   2.254   1.239
39049SOL     OW18978   1.277   6.158   1.049
39049SOL    HW118979   1.278   6.083   1.109
39049SOL    HW218980   1.219   6.131   0.978
39050SOL     OW18981  14.632   1.308   9.927
39050SOL    HW118982  14.688   1.297  10.005
39050SOL    HW218983  14.693   1.305   9.854
39051SOL     OW18984   2.552  13.620   4.136
39051SOL    HW118985   2.503  13.538   4.125
39051SOL    HW218986   2.557  13.632   4.231
39052SOL     OW18987  12.225   1.421   8.891
39052SOL    HW118988  12.176   1.448   8.969
39052SOL    HW218989  12.316   1.417   8.921
39053SOL     OW18990   6.134   5.467   7.606
39053SOL    HW118991   6.207   5.448   7.548
39053SOL    HW218992   6.078   5.527   7.556
39054SOL     OW18993   2.256   4.199   6.226
39054SOL    HW118994   2.305   4.280   6.213
39054SOL    HW218995   2.186   4.222   6.287
39055SOL     OW18996  13.011   1.066   0.560
39055SOL    HW118997  12.982   1.144   0.606
39055SOL    HW218998  13.015   1.092   0.468
39056SOL     OW18999   6.455   4.106   4.696
39056SOL    HW119000   6.446   4.181   4.638
39056SOL    HW219001   6.550   4.097   4.708
39057SOL     OW19002  12.867  10.326   4.865
39057SOL    HW119003  12.783  10.369   4.851
39057SOL    HW219004  12.932  10.394   4.851
39058SOL     OW19005  14.444  14.842   3.839
39058SOL    HW119006  14.411   0.044   3.873
39058SOL    HW219007  14.535  14.859   3.817
39059SOL     OW19008   1.513  11.778   4.615
39059SOL    HW119009   1.464  11.712   4.665
39059SOL    HW219010   1.502  11.859   4.666
39060SOL     OW19011  14.006   2.449   7.686
39060SOL    HW119012  14.066   2.391   7.734
39060SOL    HW219013  13.946   2.389   7.640
39061SOL     OW19014   4.788   9.784   9.273
39061SOL    HW119015   4.788   9.690   9.260
39061SOL    HW219016   4.765   9.795   9.366
39062SOL     OW19017   1.927   8.659  13.256
39062SOL    HW119018   1.879   8.622  13.181
39062SOL    HW219019   1.979   8.586  13.290
39063SOL     OW19020   4.189   4.054   1.417
39063SOL    HW119021   4.159   4.142   1.393
39063SOL    HW219022   4.125   3.995   1.377
39064SOL     OW19023   4.553   1.129  12.884
39064SOL    HW119024   4.626   1.171  12.930
39064SOL    HW219025   4.520   1.196  12.825
39065SOL     OW19026   6.910   7.221   2.833
39065SOL    HW119027   6.847   7.251   2.899
39065SOL    HW219028   6.905   7.286   2.764
39066SOL     OW19029   2.437  13.250   9.115
39066SOL    HW119030   2.383  13.259   9.193
39066SOL    HW219031   2.387  13.192   9.057
39067SOL     OW19032  12.916  11.837   5.249
39067SOL    HW119033  12.915  11.921   5.294
39067SOL    HW219034  13.006  11.806   5.257
39068SOL     OW19035   3.725  11.890   5.262
39068SOL    HW119036   3.750  11.922   5.175
39068SOL    HW219037   3.805  11.897   5.314
39069SOL     OW19038  11.492   2.877  11.110
39069SOL    HW119039  11.556   2.895  11.042
39069SOL    HW219040  11.487   2.958  11.160
39070SOL     OW19041   5.057  12.276   3.948
39070SOL    HW119042   4.970  12.313   3.964
39070SOL    HW219043   5.040  12.186   3.919
39071SOL     OW19044   8.008   8.952  10.688
39071SOL    HW119045   7.958   8.877  10.656
39071SOL    HW219046   8.084   8.913  10.732
39072SOL     OW19047  14.068  12.612   1.994
39072SOL    HW119048  13.980  12.641   2.016
39072SOL    HW219049  14.058  12.566   1.910
39073SOL     OW19050   5.075  12.970   2.821
39073SOL    HW119051   5.041  13.003   2.738
39073SOL    HW219052   5.068  12.875   2.814
39074SOL     OW19053   9.985   6.776  10.585
39074SOL    HW119054   9.912   6.837  10.591
39074SOL    HW219055   9.946   6.691  10.606
39075SOL     OW19056   8.675   5.053  12.908
39075SOL    HW119057   8.711   5.021  12.825
39075SOL    HW219058   8.635   4.976  12.948
39076SOL     OW19059   5.186   1.945  10.196
39076SOL    HW119060   5.184   1.852  10.176
39076SOL    HW219061   5.095   1.973  10.190
39077SOL     OW19062   6.437   8.954   5.614
39077SOL    HW119063   6.478   8.891   5.673
39077SOL    HW219064   6.380   8.901   5.559
39078SOL     OW19065   3.315   6.073   2.607
39078SOL    HW119066   3.220   6.062   2.613
39078SOL    HW219067   3.330   6.162   2.640
39079SOL     OW19068  13.103  10.534   8.332
39079SOL    HW119069  13.014  10.557   8.304
39079SOL    HW219070  13.159  10.596   8.286
39080SOL     OW19071  12.560   1.486   8.398
39080SOL    HW119072  12.521   1.402   8.422
39080SOL    HW219073  12.486   1.537   8.366
39081SOL     OW19074  14.830  12.740  10.798
39081SOL    HW119075  14.861  12.802  10.864
39081SOL    HW219076  14.820  12.658  10.846
39082SOL     OW19077   1.980   9.477   8.173
39082SOL    HW119078   1.891   9.486   8.207
39082SOL    HW219079   2.028   9.550   8.213
39083SOL     OW19080   2.064   6.959  13.638
39083SOL    HW119081   2.144   6.909  13.649
39083SOL    HW219082   2.076   7.008  13.557
39084SOL     OW19083  10.285   3.423   5.654
39084SOL    HW119084  10.379   3.417   5.674
39084SOL    HW219085  10.244   3.436   5.739
39085SOL     OW19086   5.516   7.255  10.543
39085SOL    HW119087   5.564   7.182  10.581
39085SOL    HW219088   5.447   7.213  10.491
39086SOL     OW19089   2.742   2.460  10.013
39086SOL    HW119090   2.652   2.427  10.015
39086SOL    HW219091   2.793   2.392  10.057
39087SOL     OW19092   1.321   3.194   1.321
39087SOL    HW119093   1.356   3.156   1.401
39087SOL    HW219094   1.280   3.276   1.348
39088SOL     OW19095   3.147  10.345   3.227
39088SOL    HW119096   3.226  10.304   3.262
39088SOL    HW219097   3.157  10.438   3.248
39089SOL     OW19098   4.077   2.875   5.409
39089SOL    HW119099   4.148   2.838   5.462
39089SOL    HW219100   4.112   2.876   5.320
39090SOL     OW19101   4.165   2.557   1.260
39090SOL    HW119102   4.148   2.645   1.226
39090SOL    HW219103   4.136   2.499   1.191
39091SOL     OW19104   9.283   1.665  14.503
39091SOL    HW119105   9.365   1.673  14.454
39091SOL    HW219106   9.303   1.698  14.590
39092SOL     OW19107   7.228   2.061   0.814
39092SOL    HW119108   7.293   2.104   0.869
39092SOL    HW219109   7.272   2.049   0.730
39093SOL     OW19110   5.264  12.982   4.019
39093SOL    HW119111   5.328  12.954   3.954
39093SOL    HW219112   5.202  12.910   4.024
39094SOL     OW19113   8.865   4.874   5.258
39094SOL    HW119114   8.848   4.950   5.313
39094SOL    HW219115   8.829   4.800   5.306
39095SOL     OW19116   5.743   2.722  12.351
39095SOL    HW119117   5.838   2.732  12.347
39095SOL    HW219118   5.708   2.796  12.301
39096SOL     OW19119   5.941   2.778   0.828
39096SOL    HW119120   6.026   2.813   0.804
39096SOL    HW219121   5.896   2.765   0.745
39097SOL     OW19122   4.988   5.628  12.997
39097SOL    HW119123   5.035   5.711  12.997
39097SOL    HW219124   4.901   5.650  13.030
39098SOL     OW19125   9.028   5.768   5.684
39098SOL    HW119126   8.955   5.827   5.666
39098SOL    HW219127   8.989   5.681   5.684
39099SOL     OW19128  10.571  13.839   1.469
39099SOL    HW119129  10.516  13.916   1.455
39099SOL    HW219130  10.610  13.822   1.383
39100SOL     OW19131   7.938  14.277  14.468
39100SOL    HW119132   8.013  14.229  14.502
39100SOL    HW219133   7.898  14.219  14.404
39101SOL     OW19134   3.683   6.463   8.954
39101SOL    HW119135   3.706   6.547   8.915
39101SOL    HW219136   3.732   6.398   8.904
39102SOL     OW19137  11.432   4.641   6.316
39102SOL    HW119138  11.525   4.640   6.297
39102SOL    HW219139  11.391   4.613   6.234
39103SOL     OW19140   6.436   2.757   2.196
39103SOL    HW119141   6.486   2.834   2.168
39103SOL    HW219142   6.493   2.714   2.260
39104SOL     OW19143  10.133   9.776   0.939
39104SOL    HW119144  10.171   9.842   0.997
39104SOL    HW219145  10.076   9.724   0.996
39105SOL     OW19146  14.518  12.211   2.565
39105SOL    HW119147  14.444  12.221   2.505
39105SOL    HW219148  14.482  12.161   2.639
39106SOL     OW19149   7.231   5.520  13.613
39106SOL    HW119150   7.284   5.472  13.551
39106SOL    HW219151   7.256   5.485  13.699
39107SOL     OW19152   5.220   9.078   0.100
39107SOL    HW119153   5.231   9.154   0.043
39107SOL    HW219154   5.126   9.072   0.113
39108SOL     OW19155   8.639   0.344   6.679
39108SOL    HW119156   8.734   0.336   6.691
39108SOL    HW219157   8.614   0.266   6.630
39109SOL     OW19158  13.181   0.131   3.749
39109SOL    HW119159  13.223   0.202   3.701
39109SOL    HW219160  13.103   0.109   3.697
39110SOL     OW19161   4.324   1.628  10.769
39110SOL    HW119162   4.327   1.701  10.831
39110SOL    HW219163   4.391   1.648  10.704
39111SOL     OW19164  10.512   7.084   8.556
39111SOL    HW119165  10.574   7.056   8.623
39111SOL    HW219166  10.558   7.151   8.507
39112SOL     OW19167  11.382   4.738   1.398
39112SOL    HW119168  11.460   4.708   1.445
39112SOL    HW219169  11.363   4.823   1.437
39113SOL     OW19170  14.004   1.247   7.035
39113SOL    HW119171  13.964   1.308   7.096
39113SOL    HW219172  14.019   1.299   6.955
39114SOL     OW19173   3.097   7.477   4.805
39114SOL    HW119174   3.146   7.545   4.853
39114SOL    HW219175   3.162   7.440   4.745
39115SOL     OW19176   3.779  14.199   1.021
39115SOL    HW119177   3.779  14.104   1.027
39115SOL    HW219178   3.688  14.222   1.000
39116SOL     OW19179  12.871   4.664   8.090
39116SOL    HW119180  12.915   4.615   8.020
39116SOL    HW219181  12.785   4.624   8.097
39117SOL     OW19182   2.092  13.382   8.484
39117SOL    HW119183   2.020  13.320   8.479
39117SOL    HW219184   2.168  13.334   8.451
39118SOL     OW19185   0.131   2.702   1.134
39118SOL    HW119186   0.107   2.795   1.137
39118SOL    HW219187   0.108   2.675   1.045
39119SOL     OW19188   2.744  13.082   6.611
39119SOL    HW119189   2.793  13.146   6.560
39119SOL    HW219190   2.701  13.133   6.680
39120SOL     OW19191   5.035   6.362  11.229
39120SOL    HW119192   4.966   6.324  11.285
39120SOL    HW219193   5.085   6.287  11.198
39121SOL     OW19194  14.539  11.783   4.659
39121SOL    HW119195  14.449  11.814   4.654
39121SOL    HW219196  14.589  11.846   4.608
39122SOL     OW19197   9.561   4.247   0.543
39122SOL    HW119198   9.611   4.167   0.560
39122SOL    HW219199   9.608   4.315   0.591
39123SOL     OW19200  13.428   8.132   6.830
39123SOL    HW119201  13.449   8.086   6.749
39123SOL    HW219202  13.513   8.156   6.868
39124SOL     OW19203   2.965   4.182  12.806
39124SOL    HW119204   2.981   4.269  12.840
39124SOL    HW219205   2.972   4.124  12.882
39125SOL     OW19206   0.340  12.596   0.501
39125SOL    HW119207   0.353  12.628   0.411
39125SOL    HW219208   0.381  12.663   0.556
39126SOL     OW19209   6.456   5.927   9.083
39126SOL    HW119210   6.388   5.963   9.141
39126SOL    HW219211   6.461   5.834   9.107
39127SOL     OW19212   7.551  14.299   1.593
39127SOL    HW119213   7.474  14.273   1.543
39127SOL    HW219214   7.552  14.395   1.587
39128SOL     OW19215   9.016  14.327   2.108
39128SOL    HW119216   9.063  14.302   2.188
39128SOL    HW219217   9.000  14.421   2.119
39129SOL     OW19218   2.698   3.761  12.649
39129SOL    HW119219   2.696   3.705  12.727
39129SOL    HW219220   2.655   3.842  12.677
39130SOL     OW19221   3.277   2.740   6.337
39130SOL    HW119222   3.269   2.702   6.424
39130SOL    HW219223   3.239   2.827   6.345
39131SOL     OW19224  13.057   1.597   9.928
39131SOL    HW119225  12.970   1.560   9.943
39131SOL    HW219226  13.099   1.535   9.868
39132SOL     OW19227   9.297   8.205  11.231
39132SOL    HW119228   9.351   8.210  11.310
39132SOL    HW219229   9.315   8.286  11.184
39133SOL     OW19230   7.442   7.205   4.038
39133SOL    HW119231   7.503   7.193   4.111
39133SOL    HW219232   7.362   7.160   4.065
39134SOL     OW19233   3.828   8.450  11.614
39134SOL    HW119234   3.764   8.434  11.544
39134SOL    HW219235   3.854   8.541  11.602
39135SOL     OW19236   9.889  14.785  12.535
39135SOL    HW119237   9.820  14.845  12.564
39135SOL    HW219238   9.953  14.840  12.492
39136SOL     OW19239   5.655   3.603  10.407
39136SOL    HW119240   5.663   3.640  10.495
39136SOL    HW219241   5.641   3.510  10.421
39137SOL     OW19242   2.393   7.860  10.175
39137SOL    HW119243   2.411   7.953  10.163
39137SOL    HW219244   2.367   7.829  10.089
39138SOL     OW19245  11.079   1.675   4.774
39138SOL    HW119246  11.138   1.614   4.819
39138SOL    HW219247  11.039   1.622   4.704
39139SOL     OW19248  13.316  11.713   1.652
39139SOL    HW119249  13.379  11.692   1.582
39139SOL    HW219250  13.368  11.708   1.732
39140SOL     OW19251   0.312  14.283   9.525
39140SOL    HW119252   0.294  14.276   9.431
39140SOL    HW219253   0.327  14.376   9.540
39141SOL     OW19254   8.751  12.783   6.358
39141SOL    HW119255   8.734  12.843   6.285
39141SOL    HW219256   8.846  12.779   6.365
39142SOL     OW19257  11.142   1.022   5.005
39142SOL    HW119258  11.098   0.982   4.929
39142SOL    HW219259  11.094   1.103   5.020
39143SOL     OW19260  12.334   8.240  11.144
39143SOL    HW119261  12.310   8.173  11.208
39143SOL    HW219262  12.407   8.201  11.095
39144SOL     OW19263   9.199   2.351   8.484
39144SOL    HW119264   9.289   2.323   8.465
39144SOL    HW219265   9.144   2.278   8.457
39145SOL     OW19266  11.678   4.249  14.558
39145SOL    HW119267  11.693   4.197  14.479
39145SOL    HW219268  11.603   4.208  14.601
39146SOL     OW19269   1.990   4.938   0.385
39146SOL    HW119270   2.063   4.977   0.336
39146SOL    HW219271   1.915   4.993   0.364
39147SOL     OW19272   8.755   2.740   3.821
39147SOL    HW119273   8.781   2.650   3.801
39147SOL    HW219274   8.815   2.768   3.890
39148SOL     OW19275   7.842   8.966   7.731
39148SOL    HW119276   7.827   8.883   7.776
39148SOL    HW219277   7.904   8.946   7.662
39149SOL     OW19278  13.484   0.920   2.489
39149SOL    HW119279  13.465   0.954   2.401
39149SOL    HW219280  13.568   0.874   2.478
39150SOL     OW19281   9.318  13.891   3.138
39150SOL    HW119282   9.373  13.967   3.121
39150SOL    HW219283   9.232  13.927   3.161
39151SOL     OW19284   2.301  14.448   8.029
39151SOL    HW119285   2.226  14.388   8.029
39151SOL    HW219286   2.263  14.535   8.024
39152SOL     OW19287   2.223   8.858   9.985
39152SOL    HW119288   2.292   8.917   9.954
39152SOL    HW219289   2.269   8.786  10.027
39153SOL     OW19290   3.597   4.674   5.692
39153SOL    HW119291   3.582   4.600   5.751
39153SOL    HW219292   3.537   4.659   5.619
39154SOL     OW19293  11.630   8.649   8.344
39154SOL    HW119294  11.701   8.675   8.404
39154SOL    HW219295  11.629   8.554   8.349
39155SOL     OW19296   1.112  14.125   7.492
39155SOL    HW119297   1.122  14.189   7.562
39155SOL    HW219298   1.049  14.164   7.432
39156SOL     OW19299   5.268   1.675   6.486
39156SOL    HW119300   5.302   1.645   6.402
39156SOL    HW219301   5.343   1.716   6.529
39157SOL     OW19302   8.181   4.018   3.720
39157SOL    HW119303   8.266   4.001   3.680
39157SOL    HW219304   8.198   4.088   3.783
39158SOL     OW19305   0.865   5.552  10.021
39158SOL    HW119306   0.869   5.640   9.983
39158SOL    HW219307   0.773   5.541  10.046
39159SOL     OW19308   1.497   4.279   6.639
39159SOL    HW119309   1.443   4.279   6.560
39159SOL    HW219310   1.436   4.261   6.710
39160SOL     OW19311   3.139   5.702   0.405
39160SOL    HW119312   3.130   5.791   0.439
39160SOL    HW219313   3.062   5.690   0.348
39161SOL     OW19314   3.979   0.314   9.652
39161SOL    HW119315   4.055   0.283   9.602
39161SOL    HW219316   3.943   0.385   9.599
39162SOL     OW19317   2.185   4.210   9.900
39162SOL    HW119318   2.177   4.293   9.947
39162SOL    HW219319   2.128   4.220   9.823
39163SOL     OW19320   1.492   4.763  13.786
39163SOL    HW119321   1.574   4.761  13.736
39163SOL    HW219322   1.479   4.855  13.808
39164SOL     OW19323  14.312   3.880  13.668
39164SOL    HW119324  14.280   3.867  13.757
39164SOL    HW219325  14.247   3.937  13.627
39165SOL     OW19326   2.750   5.229   4.538
39165SOL    HW119327   2.714   5.182   4.613
39165SOL    HW219328   2.674   5.268   4.495
39166SOL     OW19329   7.557   0.222   2.710
39166SOL    HW119330   7.466   0.223   2.740
39166SOL    HW219331   7.596   0.300   2.750
39167SOL     OW19332   6.951   1.323  10.727
39167SOL    HW119333   6.905   1.406  10.738
39167SOL    HW219334   6.991   1.329  10.640
39168SOL     OW19335   3.596   7.523   0.896
39168SOL    HW119336   3.514   7.474   0.889
39168SOL    HW219337   3.654   7.464   0.944
39169SOL     OW19338  11.150   5.651   6.359
39169SOL    HW119339  11.186   5.614   6.439
39169SOL    HW219340  11.055   5.649   6.372
39170SOL     OW19341  12.471  10.122  11.577
39170SOL    HW119342  12.417  10.145  11.502
39170SOL    HW219343  12.415  10.065  11.630
39171SOL     OW19344   8.699   5.342   3.003
39171SOL    HW119345   8.608   5.364   2.985
39171SOL    HW219346   8.696   5.293   3.086
39172SOL     OW19347   8.534   4.656   1.892
39172SOL    HW119348   8.518   4.741   1.932
39172SOL    HW219349   8.456   4.639   1.840
39173SOL     OW19350   4.570   4.241   0.453
39173SOL    HW119351   4.560   4.207   0.542
39173SOL    HW219352   4.595   4.333   0.466
39174SOL     OW19353  13.738  12.490   6.484
39174SOL    HW119354  13.712  12.402   6.454
39174SOL    HW219355  13.655  12.532   6.506
39175SOL     OW19356  13.865   0.392   8.935
39175SOL    HW119357  13.909   0.477   8.943
39175SOL    HW219358  13.773   0.411   8.957
39176SOL     OW19359   1.586  13.662   2.999
39176SOL    HW119360   1.557  13.664   2.908
39176SOL    HW219361   1.635  13.580   3.006
39177SOL     OW19362   1.065  11.234  10.205
39177SOL    HW119363   0.983  11.283  10.199
39177SOL    HW219364   1.064  11.176  10.128
39178SOL     OW19365   4.529   7.976   5.337
39178SOL    HW119366   4.551   7.892   5.297
39178SOL    HW219367   4.489   8.026   5.266
39179SOL     OW19368  13.412   8.622   7.231
39179SOL    HW119369  13.357   8.620   7.153
39179SOL    HW219370  13.390   8.542   7.278
39180SOL     OW19371   0.892   4.409  13.582
39180SOL    HW119372   0.832   4.444  13.647
39180SOL    HW219373   0.957   4.479  13.570
39181SOL     OW19374  14.690   7.464  12.331
39181SOL    HW119375  14.651   7.432  12.249
39181SOL    HW219376  14.719   7.385  12.376
39182SOL     OW19377   2.468   7.209  11.552
39182SOL    HW119378   2.414   7.217  11.473
39182SOL    HW219379   2.417   7.250  11.621
39183SOL     OW19380  10.204   6.209   5.049
39183SOL    HW119381  10.286   6.237   5.006
39183SOL    HW219382  10.195   6.269   5.123
39184SOL     OW19383   3.645   4.935  10.549
39184SOL    HW119384   3.620   4.923  10.458
39184SOL    HW219385   3.651   5.030  10.560
39185SOL     OW19386  14.027   2.081   7.311
39185SOL    HW119387  14.047   2.062   7.219
39185SOL    HW219388  13.984   2.001   7.343
39186SOL     OW19389  12.331  11.133   9.689
39186SOL    HW119390  12.242  11.133   9.654
39186SOL    HW219391  12.359  11.042   9.685
39187SOL     OW19392   9.459   8.441  10.365
39187SOL    HW119393   9.377   8.428  10.317
39187SOL    HW219394   9.467   8.536  10.374
39188SOL     OW19395  14.067   7.728  11.271
39188SOL    HW119396  14.158   7.707  11.292
39188SOL    HW219397  14.071   7.767  11.184
39189SOL     OW19398   1.338   1.945   8.163
39189SOL    HW119399   1.307   2.011   8.225
39189SOL    HW219400   1.360   1.995   8.084
39190SOL     OW19401  12.827  14.501  13.525
39190SOL    HW119402  12.918  14.482  13.550
39190SOL    HW219403  12.832  14.523  13.432
39191SOL     OW19404   1.892   4.810  12.704
39191SOL    HW119405   1.908   4.771  12.618
39191SOL    HW219406   1.951   4.885  12.708
39192SOL     OW19407   2.937   7.351  14.854
39192SOL    HW119408   2.929   7.270  14.803
39192SOL    HW219409   2.994   7.327   0.045
39193SOL     OW19410  10.852   9.522   3.031
39193SOL    HW119411  10.918   9.476   3.082
39193SOL    HW219412  10.777   9.462   3.029
39194SOL     OW19413  11.490   6.784   9.020
39194SOL    HW119414  11.580   6.756   9.032
39194SOL    HW219415  11.490   6.831   8.937
39195SOL     OW19416  13.302   8.773   3.127
39195SOL    HW119417  13.340   8.833   3.191
39195SOL    HW219418  13.213   8.805   3.114
39196SOL     OW19419  12.380  11.124   3.723
39196SOL    HW119420  12.333  11.043   3.701
39196SOL    HW219421  12.321  11.194   3.697
39197SOL     OW19422   7.157  14.811   7.991
39197SOL    HW119423   7.186   0.019   8.003
39197SOL    HW219424   7.209  14.779   7.917
39198SOL     OW19425   1.140   3.553   5.970
39198SOL    HW119426   1.225   3.513   5.986
39198SOL    HW219427   1.099   3.557   6.056
39199SOL     OW19428   3.911   4.395  11.124
39199SOL    HW119429   3.865   4.366  11.045
39199SOL    HW219430   3.976   4.327  11.140
39200SOL     OW19431   8.534   2.486   7.231
39200SOL    HW119432   8.468   2.526   7.287
39200SOL    HW219433   8.612   2.480   7.288
39201SOL     OW19434   9.649   2.234   4.427
39201SOL    HW119435   9.701   2.274   4.358
39201SOL    HW219436   9.714   2.191   4.483
39202SOL     OW19437   4.308   5.226  14.394
39202SOL    HW119438   4.351   5.257  14.474
39202SOL    HW219439   4.290   5.306  14.345
39203SOL     OW19440  11.229   2.334  13.856
39203SOL    HW119441  11.285   2.329  13.778
39203SOL    HW219442  11.216   2.427  13.871
39204SOL     OW19443   8.032   8.803  13.441
39204SOL    HW119444   8.107   8.746  13.423
39204SOL    HW219445   7.957   8.756  13.406
39205SOL     OW19446   0.339  14.835  14.870
39205SOL    HW119447   0.317   0.040   0.022
39205SOL    HW219448   0.404  14.802   0.050
39206SOL     OW19449   4.900  14.785   6.948
39206SOL    HW119450   4.825  14.748   6.901
39206SOL    HW219451   4.908  14.730   7.026
39207SOL     OW19452   8.755   0.088   5.938
39207SOL    HW119453   8.689   0.059   6.000
39207SOL    HW219454   8.705   0.126   5.865
39208SOL     OW19455   1.096  11.906  11.599
39208SOL    HW119456   1.163  11.974  11.601
39208SOL    HW219457   1.141  11.827  11.628
39209SOL     OW19458   5.739   5.232  10.624
39209SOL    HW119459   5.835   5.235  10.619
39209SOL    HW219460   5.714   5.166  10.560
39210SOL     OW19461   6.575   0.682   9.594
39210SOL    HW119462   6.602   0.688   9.503
39210SOL    HW219463   6.479   0.687   9.591
39211SOL     OW19464   3.485   7.322   2.409
39211SOL    HW119465   3.508   7.390   2.345
39211SOL    HW219466   3.569   7.297   2.448
39212SOL     OW19467  13.234   9.841   6.668
39212SOL    HW119468  13.186   9.760   6.652
39212SOL    HW219469  13.299   9.818   6.735
39213SOL     OW19470   4.727  10.435  12.451
39213SOL    HW119471   4.663  10.441  12.522
39213SOL    HW219472   4.705  10.509  12.393
39214SOL     OW19473   1.146   2.429   4.551
39214SOL    HW119474   1.084   2.359   4.531
39214SOL    HW219475   1.098   2.510   4.533
39215SOL     OW19476  12.802   1.289   0.510
39215SOL    HW119477  12.753   1.367   0.485
39215SOL    HW219478  12.767   1.220   0.454
39216SOL     OW19479   0.531  14.401   6.731
39216SOL    HW119480   0.569  14.323   6.772
39216SOL    HW219481   0.481  14.366   6.657
39217SOL     OW19482   7.883   6.069   4.210
39217SOL    HW119483   7.909   5.996   4.265
39217SOL    HW219484   7.887   6.145   4.268
39218SOL     OW19485  10.437  13.686  11.958
39218SOL    HW119486  10.372  13.706  11.890
39218SOL    HW219487  10.434  13.591  11.968
39219SOL     OW19488   5.392   4.533  13.239
39219SOL    HW119489   5.310   4.484  13.247
39219SOL    HW219490   5.459   4.465  13.235
39220SOL     OW19491   5.120   1.118   0.354
39220SOL    HW119492   5.124   1.150   0.264
39220SOL    HW219493   5.161   1.032   0.351
39221SOL     OW19494   8.960  12.110   3.435
39221SOL    HW119495   8.989  12.037   3.490
39221SOL    HW219496   8.912  12.069   3.363
39222SOL     OW19497   1.850   1.158   7.798
39222SOL    HW119498   1.769   1.109   7.810
39222SOL    HW219499   1.846   1.188   7.707
39223SOL     OW19500  12.104   8.604   3.274
39223SOL    HW119501  12.049   8.539   3.319
39223SOL    HW219502  12.193   8.581   3.299
39224SOL     OW19503   4.707   0.205   9.090
39224SOL    HW119504   4.649   0.148   9.140
39224SOL    HW219505   4.653   0.280   9.065
39225SOL     OW19506  10.547   1.220  12.823
39225SOL    HW119507  10.555   1.129  12.852
39225SOL    HW219508  10.497   1.216  12.742
39226SOL     OW19509   9.258   3.503  12.342
39226SOL    HW119510   9.198   3.431  12.358
39226SOL    HW219511   9.345   3.465  12.352
39227SOL     OW19512  14.229  12.799   1.853
39227SOL    HW119513  14.314  12.822   1.891
39227SOL    HW219514  14.197  12.727   1.906
39228SOL     OW19515  14.326   7.615   2.078
39228SOL    HW119516  14.244   7.627   2.029
39228SOL    HW219517  14.329   7.521   2.095
39229SOL     OW19518   8.630   5.079  14.447
39229SOL    HW119519   8.600   5.021  14.516
39229SOL    HW219520   8.722   5.054  14.432
39230SOL     OW19521  11.685  14.752  12.546
39230SOL    HW119522  11.757  14.814  12.557
39230SOL    HW219523  11.608  14.806  12.531
39231SOL     OW19524   4.879   1.242   1.121
39231SOL    HW119525   4.951   1.212   1.178
39231SOL    HW219526   4.803   1.243   1.178
39232SOL     OW19527   0.562  13.807   8.405
39232SOL    HW119528   0.555  13.902   8.398
39232SOL    HW219529   0.487  13.781   8.460
39233SOL     OW19530  14.198   7.602   4.116
39233SOL    HW119531  14.135   7.602   4.044
39233SOL    HW219532  14.200   7.511   4.146
39234SOL     OW19533  13.705  10.950   8.494
39234SOL    HW119534  13.766  10.876   8.502
39234SOL    HW219535  13.762  11.028   8.496
39235SOL     OW19536  11.238  10.050   4.812
39235SOL    HW119537  11.290  10.074   4.735
39235SOL    HW219538  11.302  10.019   4.876
39236SOL     OW19539   8.187   0.675   2.999
39236SOL    HW119540   8.124   0.721   3.055
39236SOL    HW219541   8.201   0.734   2.925
39237SOL     OW19542   6.440   5.986   7.789
39237SOL    HW119543   6.364   6.044   7.787
39237SOL    HW219544   6.409   5.907   7.833
39238SOL     OW19545   5.998   6.326   7.015
39238SOL    HW119546   5.984   6.413   6.976
39238SOL    HW219547   5.927   6.316   7.078
39239SOL     OW19548  12.375   4.554  10.252
39239SOL    HW119549  12.319   4.586  10.323
39239SOL    HW219550  12.315   4.508  10.193
39240SOL     OW19551   2.037   4.685   6.261
39240SOL    HW119552   2.077   4.631   6.194
39240SOL    HW219553   2.072   4.773   6.246
39241SOL     OW19554  11.289   5.474  11.063
39241SOL    HW119555  11.347   5.490  10.988
39241SOL    HW219556  11.322   5.532  11.131
39242SOL     OW19557  10.080   9.751   6.181
39242SOL    HW119558  10.062   9.738   6.275
39242SOL    HW219559  10.074   9.846   6.169
39243SOL     OW19560   6.596  11.447   0.073
39243SOL    HW119561   6.533  11.394   0.023
39243SOL    HW219562   6.655  11.383   0.113
39244SOL     OW19563  12.844  12.236  12.474
39244SOL    HW119564  12.937  12.219  12.490
39244SOL    HW219565  12.841  12.267  12.384
39245SOL     OW19566   7.902   6.927  11.822
39245SOL    HW119567   7.950   6.846  11.805
39245SOL    HW219568   7.814   6.909  11.789
39246SOL     OW19569   0.739   7.611   2.343
39246SOL    HW119570   0.773   7.655   2.265
39246SOL    HW219571   0.746   7.518   2.323
39247SOL     OW19572  13.614   7.741   5.482
39247SOL    HW119573  13.710   7.735   5.487
39247SOL    HW219574  13.598   7.803   5.411
39248SOL     OW19575   8.766  10.645   8.383
39248SOL    HW119576   8.694  10.636   8.321
39248SOL    HW219577   8.740  10.592   8.459
39249SOL     OW19578   7.264   0.313   5.712
39249SOL    HW119579   7.254   0.261   5.632
39249SOL    HW219580   7.243   0.251   5.783
39250SOL     OW19581   2.806  13.576   4.698
39250SOL    HW119582   2.795  13.640   4.628
39250SOL    HW219583   2.900  13.573   4.714
39251SOL     OW19584   1.290   7.664   8.728
39251SOL    HW119585   1.244   7.739   8.689
39251SOL    HW219586   1.333   7.700   8.805
39252SOL     OW19587  12.010   4.418  11.237
39252SOL    HW119588  12.035   4.326  11.244
39252SOL    HW219589  12.075   4.455  11.177
39253SOL     OW19590  10.212   1.378   5.721
39253SOL    HW119591  10.214   1.295   5.675
39253SOL    HW219592  10.204   1.444   5.653
39254SOL     OW19593  13.320   1.678  11.832
39254SOL    HW119594  13.366   1.594  11.842
39254SOL    HW219595  13.365   1.738  11.892
39255SOL     OW19596   9.392  12.699  12.657
39255SOL    HW119597   9.469  12.646  12.675
39255SOL    HW219598   9.341  12.648  12.594
39256SOL     OW19599   6.502   9.910  14.655
39256SOL    HW119600   6.577   9.904  14.714
39256SOL    HW219601   6.530   9.970  14.586
39257SOL     OW19602  12.530   1.360  11.153
39257SOL    HW119603  12.447   1.350  11.107
39257SOL    HW219604  12.508   1.411  11.231
39258SOL     OW19605   3.202   6.799   3.107
39258SOL    HW119606   3.257   6.866   3.066
39258SOL    HW219607   3.113   6.818   3.077
39259SOL     OW19608  13.560   9.019   7.286
39259SOL    HW119609  13.588   9.063   7.366
39259SOL    HW219610  13.574   9.084   7.217
39260SOL     OW19611  13.158   7.736   2.110
39260SOL    HW119612  13.122   7.773   2.029
39260SOL    HW219613  13.158   7.810   2.171
39261SOL     OW19614   7.577   8.970   7.648
39261SOL    HW119615   7.666   8.950   7.678
39261SOL    HW219616   7.588   8.995   7.556
39262SOL     OW19617   3.056   3.860   6.762
39262SOL    HW119618   3.028   3.878   6.851
39262SOL    HW219619   3.105   3.778   6.769
39263SOL     OW19620  12.592   2.563   9.762
39263SOL    HW119621  12.503   2.549   9.794
39263SOL    HW219622  12.646   2.565   9.841
39264SOL     OW19623   1.264  14.828   7.294
39264SOL    HW119624   1.306  14.870   7.219
39264SOL    HW219625   1.197  14.771   7.256
39265SOL     OW19626  14.159  10.318  10.324
39265SOL    HW119627  14.208  10.363  10.255
39265SOL    HW219628  14.225  10.264  10.368
39266SOL     OW19629  14.788  12.970   3.200
39266SOL    HW119630  14.866  13.000   3.152
39266SOL    HW219631  14.718  13.028   3.171
39267SOL     OW19632  11.580   6.982   1.596
39267SOL    HW119633  11.558   6.910   1.537
39267SOL    HW219634  11.507   7.044   1.588
39268SOL     OW19635   7.229   6.343   6.260
39268SOL    HW119636   7.186   6.415   6.216
39268SOL    HW219637   7.181   6.265   6.232
39269SOL     OW19638   4.956   9.430   5.341
39269SOL    HW119639   5.045   9.455   5.366
39269SOL    HW219640   4.967   9.355   5.282
39270SOL     OW19641   7.826  12.824   5.102
39270SOL    HW119642   7.817  12.729   5.096
39270SOL    HW219643   7.852  12.851   5.014
39271SOL     OW19644  10.387  14.200  13.671
39271SOL    HW119645  10.347  14.286  13.656
39271SOL    HW219646  10.344  14.168  13.751
39272SOL     OW19647  11.403  14.057  12.855
39272SOL    HW119648  11.497  14.038  12.854
39272SOL    HW219649  11.373  14.029  12.768
39273SOL     OW19650  10.951   0.865   0.033
39273SOL    HW119651  10.922   0.846  14.826
39273SOL    HW219652  10.937   0.783   0.081
39274SOL     OW19653   6.126   7.947   0.213
39274SOL    HW119654   6.134   7.938   0.119
39274SOL    HW219655   6.133   8.041   0.230
39275SOL     OW19656  14.838  10.950   0.647
39275SOL    HW119657   0.028  10.888   0.637
39275SOL    HW219658  14.763  10.908   0.604
39276SOL     OW19659  10.139   9.104   5.489
39276SOL    HW119660  10.190   9.044   5.435
39276SOL    HW219661  10.051   9.103   5.450
39277SOL     OW19662  12.538  14.307  11.458
39277SOL    HW119663  12.468  14.273  11.403
39277SOL    HW219664  12.493  14.358  11.525
39278SOL     OW19665   5.982   4.087   2.000
39278SOL    HW119666   6.025   4.002   2.012
39278SOL    HW219667   5.938   4.080   1.915
39279SOL     OW19668  12.143   3.597   9.838
39279SOL    HW119669  12.223   3.637   9.874
39279SOL    HW219670  12.158   3.503   9.845
39280SOL     OW19671   9.494   6.163   5.570
39280SOL    HW119672   9.522   6.096   5.632
39280SOL    HW219673   9.575   6.198   5.533
39281SOL     OW19674   4.753  10.102   0.043
39281SOL    HW119675   4.789  10.040   0.106
39281SOL    HW219676   4.661  10.076   0.034
39282SOL     OW19677   8.261   9.447  12.179
39282SOL    HW119678   8.206   9.371  12.160
39282SOL    HW219679   8.221   9.519  12.131
39283SOL     OW19680   2.092   8.841   9.163
39283SOL    HW119681   2.058   8.930   9.153
39283SOL    HW219682   2.141   8.843   9.245
39284SOL     OW19683   9.834   8.908  12.749
39284SOL    HW119684   9.744   8.876  12.743
39284SOL    HW219685   9.885   8.832  12.776
39285SOL     OW19686   9.838   8.887   9.346
39285SOL    HW119687   9.807   8.903   9.435
39285SOL    HW219688   9.924   8.927   9.343
39286SOL     OW19689  12.375  14.847   5.913
39286SOL    HW119690  12.376  14.829   6.007
39286SOL    HW219691  12.400   0.057   5.905
39287SOL     OW19692   8.591   0.036   2.438
39287SOL    HW119693   8.622   0.113   2.486
39287SOL    HW219694   8.496   0.047   2.432
39288SOL     OW19695  10.586   3.268   1.443
39288SOL    HW119696  10.598   3.214   1.521
39288SOL    HW219697  10.674   3.297   1.419
39289SOL     OW19698  10.471  13.161   6.705
39289SOL    HW119699  10.470  13.120   6.791
39289SOL    HW219700  10.396  13.123   6.659
39290SOL     OW19701  10.835  11.414   4.898
39290SOL    HW119702  10.811  11.472   4.970
39290SOL    HW219703  10.756  11.407   4.845
39291SOL     OW19704  10.561   1.710   4.525
39291SOL    HW119705  10.546   1.792   4.477
39291SOL    HW219706  10.473   1.672   4.534
39292SOL     OW19707   4.416   3.707   9.155
39292SOL    HW119708   4.435   3.758   9.077
39292SOL    HW219709   4.355   3.762   9.205
39293SOL     OW19710   1.299  13.417   1.778
39293SOL    HW119711   1.250  13.499   1.784
39293SOL    HW219712   1.291  13.391   1.687
39294SOL     OW19713  14.596   1.157   7.604
39294SOL    HW119714  14.536   1.154   7.529
39294SOL    HW219715  14.631   1.246   7.604
39295SOL     OW19716   1.518   0.075   0.228
39295SOL    HW119717   1.471   0.016   0.168
39295SOL    HW219718   1.486   0.050   0.315
39296SOL     OW19719   0.274   7.295  13.916
39296SOL    HW119720   0.281   7.228  13.847
39296SOL    HW219721   0.180   7.302  13.934
39297SOL     OW19722   4.552   3.604  10.427
39297SOL    HW119723   4.559   3.699  10.414
39297SOL    HW219724   4.470   3.580  10.384
39298SOL     OW19725   0.124   5.614  11.574
39298SOL    HW119726   0.121   5.706  11.546
39298SOL    HW219727   0.033   5.585  11.571
39299SOL     OW19728   1.640   5.755  10.519
39299SOL    HW119729   1.719   5.703  10.505
39299SOL    HW219730   1.578   5.722  10.454
39300SOL     OW19731  12.005   0.741   3.735
39300SOL    HW119732  11.918   0.749   3.696
39300SOL    HW219733  11.990   0.750   3.829
39301SOL     OW19734   2.261   5.893   3.909
39301SOL    HW119735   2.200   5.820   3.900
39301SOL    HW219736   2.337   5.868   3.856
39302SOL     OW19737   9.502   6.756   3.401
39302SOL    HW119738   9.580   6.704   3.419
39302SOL    HW219739   9.520   6.801   3.319
39303SOL     OW19740  13.043   0.296   5.836
39303SOL    HW119741  13.044   0.365   5.771
39303SOL    HW219742  13.082   0.335   5.914
39304SOL     OW19743  11.757  10.020   5.086
39304SOL    HW119744  11.691  10.086   5.105
39304SOL    HW219745  11.716   9.937   5.114
39305SOL     OW19746  10.052   5.573   3.183
39305SOL    HW119747  10.015   5.562   3.271
39305SOL    HW219748  10.109   5.649   3.190
39306SOL     OW19749  10.456   5.911   7.952
39306SOL    HW119750  10.443   5.825   7.993
39306SOL    HW219751  10.390   5.967   7.994
39307SOL     OW19752  10.571   6.638   0.660
39307SOL    HW119753  10.577   6.731   0.684
39307SOL    HW219754  10.618   6.631   0.577
39308SOL     OW19755  14.099   4.030  13.573
39308SOL    HW119756  14.144   4.038  13.489
39308SOL    HW219757  14.006   4.039  13.552
39309SOL     OW19758   8.258   4.105  10.998
39309SOL    HW119759   8.240   4.012  10.985
39309SOL    HW219760   8.184   4.137  11.050
39310SOL     OW19761  14.322   6.418   4.810
39310SOL    HW119762  14.332   6.504   4.770
39310SOL    HW219763  14.261   6.372   4.753
39311SOL     OW19764   5.526  11.771  10.561
39311SOL    HW119765   5.530  11.793  10.654
39311SOL    HW219766   5.480  11.844  10.520
39312SOL     OW19767  14.119   4.347  14.113
39312SOL    HW119768  14.083   4.414  14.171
39312SOL    HW219769  14.203   4.323  14.152
39313SOL     OW19770   3.193   3.229   1.851
39313SOL    HW119771   3.162   3.186   1.930
39313SOL    HW219772   3.126   3.294   1.831
39314SOL     OW19773   9.129  12.975   5.249
39314SOL    HW119774   9.125  12.880   5.243
39314SOL    HW219775   9.194  13.000   5.183
39315SOL     OW19776   0.718   6.146   2.467
39315SOL    HW119777   0.687   6.100   2.390
39315SOL    HW219778   0.806   6.176   2.444
39316SOL     OW19779   5.585  10.249   2.058
39316SOL    HW119780   5.613  10.183   1.994
39316SOL    HW219781   5.665  10.294   2.083
39317SOL     OW19782   0.943   5.366   3.094
39317SOL    HW119783   0.871   5.334   3.148
39317SOL    HW219784   0.909   5.361   3.004
39318SOL     OW19785   1.148   0.184  14.634
39318SOL    HW119786   1.187   0.260  14.677
39318SOL    HW219787   1.218   0.149  14.579
39319SOL     OW19788   0.419  11.018   3.992
39319SOL    HW119789   0.398  10.967   4.071
39319SOL    HW219790   0.451  10.953   3.929
39320SOL     OW19791   7.978   9.520   2.489
39320SOL    HW119792   7.986   9.577   2.565
39320SOL    HW219793   7.909   9.559   2.436
39321SOL     OW19794  13.842   8.468  13.847
39321SOL    HW119795  13.835   8.537  13.913
39321SOL    HW219796  13.929   8.479  13.810
39322SOL     OW19797   4.672  14.363   1.826
39322SOL    HW119798   4.581  14.360   1.856
39322SOL    HW219799   4.706  14.445   1.863
39323SOL     OW19800   6.957   6.751   3.109
39323SOL    HW119801   6.981   6.837   3.076
39323SOL    HW219802   6.974   6.755   3.203
39324SOL     OW19803   3.066   9.832   4.911
39324SOL    HW119804   3.098   9.896   4.847
39324SOL    HW219805   3.124   9.757   4.900
39325SOL     OW19806   3.248  13.767   0.828
39325SOL    HW119807   3.186  13.727   0.889
39325SOL    HW219808   3.248  13.708   0.752
39326SOL     OW19809   7.266   4.681   0.147
39326SOL    HW119810   7.356   4.673   0.177
39326SOL    HW219811   7.258   4.616   0.078
39327SOL     OW19812   6.333   4.243   8.230
39327SOL    HW119813   6.372   4.326   8.259
39327SOL    HW219814   6.400   4.204   8.174
39328SOL     OW19815   5.901   8.989  14.152
39328SOL    HW119816   5.833   8.958  14.093
39328SOL    HW219817   5.983   8.974  14.105
39329SOL     OW19818   2.653   9.623  13.756
39329SOL    HW119819   2.704   9.628  13.675
39329SOL    HW219820   2.689   9.692  13.811
39330SOL     OW19821   0.123   0.635  10.768
39330SOL    HW119822   0.084   0.580  10.701
39330SOL    HW219823   0.124   0.581  10.847
39331SOL     OW19824   4.050   6.068   6.247
39331SOL    HW119825   4.029   6.034   6.160
39331SOL    HW219826   4.146   6.074   6.247
39332SOL     OW19827  10.919  10.694   9.798
39332SOL    HW119828  10.998  10.695   9.743
39332SOL    HW219829  10.865  10.624   9.760
39333SOL     OW19830   6.763  12.654   9.222
39333SOL    HW119831   6.769  12.581   9.160
39333SOL    HW219832   6.734  12.728   9.169
39334SOL     OW19833   0.321   9.427   3.021
39334SOL    HW119834   0.327   9.333   3.005
39334SOL    HW219835   0.310   9.466   2.935
39335SOL     OW19836  11.126  13.062  12.193
39335SOL    HW119837  11.104  13.086  12.283
39335SOL    HW219838  11.212  13.021  12.199
39336SOL     OW19839   6.647   8.412  13.933
39336SOL    HW119840   6.690   8.483  13.886
39336SOL    HW219841   6.554   8.421  13.913
39337SOL     OW19842   3.923  13.588  10.256
39337SOL    HW119843   3.937  13.647  10.330
39337SOL    HW219844   3.970  13.508  10.280
39338SOL     OW19845   6.374  10.884   9.517
39338SOL    HW119846   6.285  10.883   9.552
39338SOL    HW219847   6.368  10.939   9.439
39339SOL     OW19848   6.212  12.512   1.728
39339SOL    HW119849   6.172  12.428   1.705
39339SOL    HW219850   6.155  12.548   1.797
39340SOL     OW19851   1.079   6.321   2.096
39340SOL    HW119852   1.110   6.386   2.032
39340SOL    HW219853   1.055   6.373   2.172
39341SOL     OW19854   6.048   4.934   7.278
39341SOL    HW119855   6.093   5.018   7.275
39341SOL    HW219856   6.045   4.905   7.187
39342SOL     OW19857   0.567   7.547   1.743
39342SOL    HW119858   0.617   7.485   1.691
39342SOL    HW219859   0.630   7.615   1.768
39343SOL     OW19860   7.992   0.204   1.272
39343SOL    HW119861   7.952   0.189   1.358
39343SOL    HW219862   8.083   0.175   1.283
39344SOL     OW19863  11.289   6.461  11.307
39344SOL    HW119864  11.369   6.514  11.298
39344SOL    HW219865  11.290   6.404  11.230
39345SOL     OW19866   4.725  12.161   6.132
39345SOL    HW119867   4.653  12.177   6.193
39345SOL    HW219868   4.711  12.072   6.100
39346SOL     OW19869   3.760  13.941   2.151
39346SOL    HW119870   3.839  13.889   2.132
39346SOL    HW219871   3.705  13.928   2.073
39347SOL     OW19872  13.896  13.391   3.756
39347SOL    HW119873  13.858  13.304   3.763
39347SOL    HW219874  13.981  13.377   3.714
39348SOL     OW19875   5.805   1.290   4.233
39348SOL    HW119876   5.885   1.290   4.180
39348SOL    HW219877   5.834   1.264   4.320
39349SOL     OW19878  14.473   6.617   8.116
39349SOL    HW119879  14.408   6.611   8.186
39349SOL    HW219880  14.520   6.534   8.120
39350SOL     OW19881   1.002   3.890   3.999
39350SOL    HW119882   0.992   3.833   3.923
39350SOL    HW219883   1.078   3.855   4.045
39351SOL     OW19884   2.908   4.015   0.490
39351SOL    HW119885   2.829   3.988   0.536
39351SOL    HW219886   2.898   3.981   0.401
39352SOL     OW19887  13.875  14.257   7.967
39352SOL    HW119888  13.808  14.313   7.927
39352SOL    HW219889  13.828  14.176   7.987
39353SOL     OW19890   8.772  13.392  13.800
39353SOL    HW119891   8.741  13.448  13.728
39353SOL    HW219892   8.723  13.423  13.876
39354SOL     OW19893  10.535   2.282   2.405
39354SOL    HW119894  10.506   2.373   2.419
39354SOL    HW219895  10.558   2.251   2.492
39355SOL     OW19896   7.600   7.896  13.700
39355SOL    HW119897   7.649   7.932  13.626
39355SOL    HW219898   7.516   7.869  13.662
39356SOL     OW19899  10.240   7.301   2.165
39356SOL    HW119900  10.227   7.330   2.255
39356SOL    HW219901  10.184   7.359   2.113
39357SOL     OW19902   7.820   3.632   1.943
39357SOL    HW119903   7.898   3.577   1.936
39357SOL    HW219904   7.854   3.721   1.938
39358SOL     OW19905   8.022   0.322   2.901
39358SOL    HW119906   7.928   0.319   2.919
39358SOL    HW219907   8.028   0.320   2.806
39359SOL     OW19908   9.383  13.879  12.491
39359SOL    HW119909   9.401  13.827  12.413
39359SOL    HW219910   9.299  13.921  12.474
39360SOL     OW19911  14.681   6.592   1.050
39360SOL    HW119912  14.616   6.635   0.994
39360SOL    HW219913  14.760   6.588   0.996
39361SOL     OW19914   5.679   1.159   2.031
39361SOL    HW119915   5.665   1.251   2.055
39361SOL    HW219916   5.601   1.113   2.064
39362SOL     OW19917   7.568   2.313   9.809
39362SOL    HW119918   7.579   2.408   9.804
39362SOL    HW219919   7.591   2.282   9.721
39363SOL     OW19920   2.743   0.133   7.935
39363SOL    HW119921   2.707   0.215   7.969
39363SOL    HW219922   2.704   0.065   7.990
39364SOL     OW19923  12.707   2.778   8.327
39364SOL    HW119924  12.707   2.722   8.404
39364SOL    HW219925  12.725   2.866   8.360
39365SOL     OW19926   9.025  11.852   1.035
39365SOL    HW119927   9.005  11.883   1.123
39365SOL    HW219928   9.012  11.757   1.040
39366SOL     OW19929   7.338   3.125   9.946
39366SOL    HW119930   7.377   3.201   9.902
39366SOL    HW219931   7.243   3.141   9.942
39367SOL     OW19932   4.801   6.439  13.332
39367SOL    HW119933   4.893   6.417  13.342
39367SOL    HW219934   4.774   6.472  13.418
39368SOL     OW19935   2.492  13.515   9.614
39368SOL    HW119936   2.448  13.583   9.564
39368SOL    HW219937   2.424  13.480   9.672
39369SOL     OW19938   8.358   5.983   6.617
39369SOL    HW119939   8.363   5.934   6.535
39369SOL    HW219940   8.347   6.074   6.589
39370SOL     OW19941   8.417   5.931   2.385
39370SOL    HW119942   8.466   5.991   2.329
39370SOL    HW219943   8.414   5.975   2.470
39371SOL     OW19944   1.074   7.973   8.620
39371SOL    HW119945   1.022   7.898   8.649
39371SOL    HW219946   1.084   8.026   8.699
39372SOL     OW19947   5.516  11.147   9.764
39372SOL    HW119948   5.487  11.165   9.675
39372SOL    HW219949   5.445  11.094   9.802
39373SOL     OW19950   4.142   5.889   2.470
39373SOL    HW119951   4.173   5.860   2.384
39373SOL    HW219952   4.047   5.888   2.462
39374SOL     OW19953   5.736   3.204   7.246
39374SOL    HW119954   5.722   3.186   7.339
39374SOL    HW219955   5.773   3.292   7.243
39375SOL     OW19956   2.652   4.577   3.271
39375SOL    HW119957   2.566   4.560   3.233
39375SOL    HW219958   2.713   4.531   3.213
39376SOL     OW19959   4.260  12.451   4.397
39376SOL    HW119960   4.298  12.498   4.471
39376SOL    HW219961   4.336  12.427   4.343
39377SOL     OW19962   9.117  12.928   6.761
39377SOL    HW119963   9.172  12.938   6.683
39377SOL    HW219964   9.169  12.965   6.832
39378SOL     OW19965   2.263   6.797   3.044
39378SOL    HW119966   2.323   6.859   3.003
39378SOL    HW219967   2.207   6.767   2.972
39379SOL     OW19968   4.918  13.911  14.754
39379SOL    HW119969   4.846  13.899  14.692
39379SOL    HW219970   4.988  13.856  14.721
39380SOL     OW19971   4.590   1.585   8.579
39380SOL    HW119972   4.679   1.601   8.547
39380SOL    HW219973   4.575   1.656   8.642
39381SOL     OW19974  12.556   2.670   5.133
39381SOL    HW119975  12.554   2.607   5.061
39381SOL    HW219976  12.587   2.620   5.208
39382SOL     OW19977   1.076  10.285  13.513
39382SOL    HW119978   1.083  10.271  13.607
39382SOL    HW219979   0.982  10.283  13.495
39383SOL     OW19980   7.338  12.918   1.129
39383SOL    HW119981   7.306  12.840   1.084
39383SOL    HW219982   7.282  12.989   1.098
39384SOL     OW19983   1.677  14.577   3.021
39384SOL    HW119984   1.737  14.507   3.049
39384SOL    HW219985   1.721  14.658   3.046
39385SOL     OW19986   0.104   6.626   1.221
39385SOL    HW119987   0.128   6.609   1.312
39385SOL    HW219988   0.027   6.683   1.226
39386SOL     OW19989   1.822   5.049   1.402
39386SOL    HW119990   1.787   4.982   1.343
39386SOL    HW219991   1.871   5.108   1.345
39387SOL     OW19992   1.748  11.819   5.558
39387SOL    HW119993   1.743  11.785   5.469
39387SOL    HW219994   1.718  11.909   5.551
39388SOL     OW19995   4.097   2.305   1.740
39388SOL    HW119996   4.148   2.275   1.665
39388SOL    HW219997   4.159   2.357   1.792
39389SOL     OW19998   0.729  13.956   6.783
39389SOL    HW119999   0.754  13.967   6.692
39389SOL    HW220000   0.646  13.908   6.780
39390SOL     OW20001   3.143   3.706  13.235
39390SOL    HW120002   3.238   3.705  13.237
39390SOL    HW220003   3.120   3.694  13.143
39391SOL     OW20004   8.555   3.103   6.246
39391SOL    HW120005   8.461   3.088   6.256
39391SOL    HW220006   8.566   3.196   6.265
39392SOL     OW20007   7.212   1.736   6.955
39392SOL    HW120008   7.209   1.654   7.005
39392SOL    HW220009   7.151   1.722   6.882
39393SOL     OW20010  13.153   2.065  12.339
39393SOL    HW120011  13.175   2.018  12.419
39393SOL    HW220012  13.236   2.075  12.293
39394SOL     OW20013   6.394  14.590   3.223
39394SOL    HW120014   6.429  14.558   3.306
39394SOL    HW220015   6.406  14.517   3.162
39395SOL     OW20016  10.334   4.696   4.743
39395SOL    HW120017  10.399   4.680   4.812
39395SOL    HW220018  10.301   4.784   4.760
39396SOL     OW20019   5.694   7.773   2.624
39396SOL    HW120020   5.702   7.867   2.609
39396SOL    HW220021   5.650   7.739   2.546
39397SOL     OW20022  10.796   3.066  14.064
39397SOL    HW120023  10.791   2.985  14.013
39397SOL    HW220024  10.819   3.038  14.152
39398SOL     OW20025  12.503  14.727   6.923
39398SOL    HW120026  12.558  14.770   6.858
39398SOL    HW220027  12.493  14.791   6.993
39399SOL     OW20028   7.233   2.085   9.049
39399SOL    HW120029   7.162   2.149   9.047
39399SOL    HW220030   7.189   2.000   9.048
39400SOL     OW20031   0.113  13.221  13.982
39400SOL    HW120032   0.137  13.175  14.063
39400SOL    HW220033   0.195  13.264  13.955
39401SOL     OW20034   7.474  14.476   9.489
39401SOL    HW120035   7.425  14.533   9.549
39401SOL    HW220036   7.514  14.537   9.426
39402SOL     OW20037   7.709   9.844  13.480
39402SOL    HW120038   7.797   9.805  13.483
39402SOL    HW220039   7.723   9.930  13.442
39403SOL     OW20040  14.466   6.353   0.679
39403SOL    HW120041  14.538   6.409   0.705
39403SOL    HW220042  14.508   6.277   0.638
39404SOL     OW20043   7.533  13.247   0.743
39404SOL    HW120044   7.583  13.320   0.779
39404SOL    HW220045   7.447  13.284   0.725
39405SOL     OW20046   8.516  10.085   2.634
39405SOL    HW120047   8.507  10.136   2.715
39405SOL    HW220048   8.549  10.148   2.570
39406SOL     OW20049   7.728   4.950   2.923
39406SOL    HW120050   7.792   5.018   2.942
39406SOL    HW220051   7.734   4.889   2.996
39407SOL     OW20052   9.007  14.264   4.760
39407SOL    HW120053   9.039  14.320   4.690
39407SOL    HW220054   9.038  14.307   4.840
39408SOL     OW20055   8.806   7.623   8.326
39408SOL    HW120056   8.750   7.583   8.260
39408SOL    HW220057   8.880   7.658   8.277
39409SOL     OW20058   4.096   3.063  12.161
39409SOL    HW120059   4.061   3.146  12.194
39409SOL    HW220060   4.166   3.041  12.223
39410SOL     OW20061  13.442   2.759   0.401
39410SOL    HW120062  13.537   2.746   0.401
39410SOL    HW220063  13.424   2.801   0.485
39411SOL     OW20064   5.636   9.836  10.729
39411SOL    HW120065   5.714   9.883  10.700
39411SOL    HW220066   5.669   9.755  10.767
39412SOL     OW20067   7.501   1.877   6.283
39412SOL    HW120068   7.505   1.973   6.283
39412SOL    HW220069   7.412   1.856   6.308
39413SOL     OW20070   2.304   0.532  11.536
39413SOL    HW120071   2.235   0.506  11.476
39413SOL    HW220072   2.259   0.584  11.603
39414SOL     OW20073   9.758   4.982   7.528
39414SOL    HW120074   9.834   5.033   7.558
39414SOL    HW220075   9.718   5.036   7.461
39415SOL     OW20076   5.662   9.603   9.799
39415SOL    HW120077   5.720   9.662   9.846
39415SOL    HW220078   5.663   9.522   9.851
39416SOL     OW20079  12.753   5.868   2.013
39416SOL    HW120080  12.690   5.826   1.954
39416SOL    HW220081  12.798   5.931   1.957
39417SOL     OW20082   9.770   5.930  11.725
39417SOL    HW120083   9.859   5.964  11.719
39417SOL    HW220084   9.728   5.957  11.643
39418SOL     OW20085  12.528  10.378   5.749
39418SOL    HW120086  12.517  10.360   5.842
39418SOL    HW220087  12.623  10.383   5.737
39419SOL     OW20088   3.811   9.910   3.954
39419SOL    HW120089   3.886   9.945   3.904
39419SOL    HW220090   3.802   9.971   4.027
39420SOL     OW20091   8.130  13.326  12.323
39420SOL    HW120092   8.208  13.378  12.304
39420SOL    HW220093   8.060  13.391  12.331
39421SOL     OW20094   0.463  10.515   2.679
39421SOL    HW120095   0.523  10.469   2.737
39421SOL    HW220096   0.377  10.475   2.696
39422SOL     OW20097   5.343   2.816   7.286
39422SOL    HW120098   5.342   2.730   7.329
39422SOL    HW220099   5.436   2.837   7.276
39423SOL     OW20100   7.878   3.908   1.858
39423SOL    HW120101   7.782   3.906   1.859
39423SOL    HW220102   7.900   3.989   1.813
39424SOL     OW20103  12.630   9.304  14.507
39424SOL    HW120104  12.577   9.231  14.475
39424SOL    HW220105  12.573   9.350  14.567
39425SOL     OW20106  13.928   5.918   6.464
39425SOL    HW120107  13.848   5.964   6.439
39425SOL    HW220108  13.957   5.962   6.544
39426SOL     OW20109   9.555   0.513   0.554
39426SOL    HW120110   9.488   0.453   0.587
39426SOL    HW220111   9.637   0.478   0.589
39427SOL     OW20112   6.495   5.357   1.895
39427SOL    HW120113   6.415   5.320   1.933
39427SOL    HW220114   6.564   5.297   1.920
39428SOL     OW20115  11.277  11.524   8.783
39428SOL    HW120116  11.183  11.517   8.766
39428SOL    HW220117  11.317  11.470   8.714
39429SOL     OW20118   4.698  13.350   0.502
39429SOL    HW120119   4.629  13.348   0.568
39429SOL    HW220120   4.750  13.428   0.524
39430SOL     OW20121  11.008  14.445   1.701
39430SOL    HW120122  11.088  14.434   1.752
39430SOL    HW220123  11.011  14.373   1.637
39431SOL     OW20124   7.872   6.112   4.507
39431SOL    HW120125   7.959   6.128   4.544
39431SOL    HW220126   7.866   6.017   4.499
39432SOL     OW20127   5.878   9.524  14.757
39432SOL    HW120128   5.926   9.452  14.797
39432SOL    HW220129   5.931   9.549  14.681
39433SOL     OW20130  12.505   8.687   5.448
39433SOL    HW120131  12.593   8.651   5.433
39433SOL    HW220132  12.447   8.627   5.401
39434SOL     OW20133   8.669   5.178   1.797
39434SOL    HW120134   8.743   5.188   1.736
39434SOL    HW220135   8.596   5.221   1.753
39435SOL     OW20136   4.622   3.549   1.284
39435SOL    HW120137   4.529   3.544   1.306
39435SOL    HW220138   4.636   3.477   1.223
39436SOL     OW20139  10.969   4.574   8.761
39436SOL    HW120140  10.949   4.593   8.852
39436SOL    HW220141  10.934   4.486   8.746
39437SOL     OW20142   4.672   8.160  10.967
39437SOL    HW120143   4.691   8.207  10.886
39437SOL    HW220144   4.696   8.069  10.948
39438SOL     OW20145   4.606   9.563   9.114
39438SOL    HW120146   4.597   9.469   9.100
39438SOL    HW220147   4.695   9.574   9.147
39439SOL     OW20148  14.342   8.872   0.892
39439SOL    HW120149  14.334   8.858   0.798
39439SOL    HW220150  14.437   8.883   0.906
39440SOL     OW20151   9.812   8.597   0.209
39440SOL    HW120152   9.907   8.611   0.213
39440SOL    HW220153   9.775   8.667   0.262
39441SOL     OW20154   5.659  11.002   2.434
39441SOL    HW120155   5.631  11.017   2.343
39441SOL    HW220156   5.579  11.010   2.486
39442SOL     OW20157  11.793   7.910  10.544
39442SOL    HW120158  11.701   7.929  10.559
39442SOL    HW220159  11.796   7.816  10.527
39443SOL     OW20160  13.226   6.769  13.209
39443SOL    HW120161  13.131   6.781  13.206
39443SOL    HW220162  13.237   6.676  13.227
39444SOL     OW20163   0.697   7.159   3.810
39444SOL    HW120164   0.766   7.132   3.749
39444SOL    HW220165   0.728   7.130   3.895
39445SOL     OW20166   5.879  11.526   1.386
39445SOL    HW120167   5.902  11.451   1.441
39445SOL    HW220168   5.879  11.601   1.446
39446SOL     OW20169   6.844   4.368   0.029
39446SOL    HW120170   6.890   4.319   0.097
39446SOL    HW220171   6.824   4.453   0.069
39447SOL     OW20172   9.593  10.268   3.930
39447SOL    HW120173   9.656  10.310   3.871
39447SOL    HW220174   9.582  10.331   4.001
39448SOL     OW20175  10.604  12.474   3.287
39448SOL    HW120176  10.597  12.451   3.194
39448SOL    HW220177  10.662  12.550   3.288
39449SOL     OW20178   9.380   5.843   7.723
39449SOL    HW120179   9.357   5.823   7.632
39449SOL    HW220180   9.468   5.808   7.734
39450SOL     OW20181   2.849   7.025   3.280
39450SOL    HW120182   2.839   6.932   3.300
39450SOL    HW220183   2.933   7.031   3.234
39451SOL     OW20184   9.185   9.845   8.970
39451SOL    HW120185   9.195   9.918   8.909
39451SOL    HW220186   9.206   9.883   9.056
39452SOL     OW20187  11.675   0.231  14.148
39452SOL    HW120188  11.675   0.270  14.236
39452SOL    HW220189  11.767   0.219  14.127
39453SOL     OW20190   8.637   8.238   2.116
39453SOL    HW120191   8.571   8.216   2.049
39453SOL    HW220192   8.609   8.189   2.193
39454SOL     OW20193   7.876   4.619   1.755
39454SOL    HW120194   7.878   4.704   1.800
39454SOL    HW220195   7.807   4.629   1.689
39455SOL     OW20196   2.922   6.410  13.031
39455SOL    HW120197   2.989   6.418  13.100
39455SOL    HW220198   2.839   6.423  13.076
39456SOL     OW20199   7.945   5.702   4.983
39456SOL    HW120200   7.887   5.627   4.968
39456SOL    HW220201   7.930   5.726   5.075
39457SOL     OW20202   1.912   8.929   1.508
39457SOL    HW120203   1.984   8.961   1.453
39457SOL    HW220204   1.923   8.833   1.509
39458SOL     OW20205   9.886  11.346  13.820
39458SOL    HW120206   9.922  11.426  13.859
39458SOL    HW220207   9.861  11.372  13.731
39459SOL     OW20208   0.535  11.242   1.638
39459SOL    HW120209   0.619  11.213   1.603
39459SOL    HW220210   0.470  11.210   1.575
39460SOL     OW20211   8.405   5.532   8.547
39460SOL    HW120212   8.434   5.501   8.633
39460SOL    HW220213   8.319   5.493   8.535
39461SOL     OW20214  11.846   2.328  10.235
39461SOL    HW120215  11.863   2.268  10.308
39461SOL    HW220216  11.851   2.415  10.275
39462SOL     OW20217   3.931   2.952   5.013
39462SOL    HW120218   4.004   3.014   5.011
39462SOL    HW220219   3.863   2.993   4.960
39463SOL     OW20220   5.276   8.493   3.792
39463SOL    HW120221   5.344   8.530   3.736
39463SOL    HW220222   5.323   8.440   3.856
39464SOL     OW20223  13.736   9.284   2.164
39464SOL    HW120224  13.686   9.209   2.130
39464SOL    HW220225  13.672   9.355   2.168
39465SOL     OW20226   4.946   5.232   4.209
39465SOL    HW120227   4.898   5.270   4.135
39465SOL    HW220228   5.025   5.286   4.217
39466SOL     OW20229  10.517   7.470   7.135
39466SOL    HW120230  10.448   7.408   7.159
39466SOL    HW220231  10.478   7.526   7.069
39467SOL     OW20232   1.547   7.647   0.005
39467SOL    HW120233   1.499   7.678   0.082
39467SOL    HW220234   1.479   7.631  14.822
39468SOL     OW20235   9.659   2.627  12.370
39468SOL    HW120236   9.689   2.586  12.451
39468SOL    HW220237   9.739   2.645  12.321
39469SOL     OW20238  14.076   6.572   2.060
39469SOL    HW120239  14.163   6.581   2.097
39469SOL    HW220240  14.090   6.538   1.972
39470SOL     OW20241   9.363   7.853   8.490
39470SOL    HW120242   9.417   7.780   8.521
39470SOL    HW220243   9.300   7.813   8.430
39471SOL     OW20244   7.733   0.545   0.322
39471SOL    HW120245   7.796   0.617   0.319
39471SOL    HW220246   7.700   0.545   0.412
39472SOL     OW20247   1.242   5.099  11.215
39472SOL    HW120248   1.337   5.108  11.217
39472SOL    HW220249   1.214   5.161  11.147
39473SOL     OW20250   3.264  13.849  14.299
39473SOL    HW120251   3.295  13.762  14.324
39473SOL    HW220252   3.194  13.832  14.236
39474SOL     OW20253  14.334  10.833  13.439
39474SOL    HW120254  14.268  10.881  13.489
39474SOL    HW220255  14.306  10.842  13.348
39475SOL     OW20256  14.279   9.711  14.672
39475SOL    HW120257  14.365   9.715  14.630
39475SOL    HW220258  14.235   9.638  14.630
39476SOL     OW20259  13.260   3.794   1.507
39476SOL    HW120260  13.305   3.713   1.532
39476SOL    HW220261  13.330   3.853   1.480
39477SOL     OW20262  13.579   8.023   6.292
39477SOL    HW120263  13.520   8.098   6.277
39477SOL    HW220264  13.656   8.043   6.238
39478SOL     OW20265  10.985   3.282   4.841
39478SOL    HW120266  10.948   3.278   4.929
39478SOL    HW220267  11.060   3.341   4.850
39479SOL     OW20268   0.758  14.724   3.146
39479SOL    HW120269   0.797  14.738   3.232
39479SOL    HW220270   0.767  14.808   3.101
39480SOL     OW20271   1.368   6.278   0.545
39480SOL    HW120272   1.351   6.321   0.629
39480SOL    HW220273   1.397   6.190   0.569
39481SOL     OW20274  14.750   3.696  13.517
39481SOL    HW120275  14.769   3.608  13.548
39481SOL    HW220276  14.753   3.751  13.596
39482SOL     OW20277   4.337  10.152   6.174
39482SOL    HW120278   4.394  10.103   6.233
39482SOL    HW220279   4.287  10.210   6.232
39483SOL     OW20280   7.771   6.928   4.682
39483SOL    HW120281   7.735   6.966   4.763
39483SOL    HW220282   7.700   6.936   4.619
39484SOL     OW20283   3.561   1.273   7.653
39484SOL    HW120284   3.501   1.226   7.596
39484SOL    HW220285   3.644   1.273   7.605
39485SOL     OW20286  12.575  12.393  10.526
39485SOL    HW120287  12.630  12.345  10.588
39485SOL    HW220288  12.529  12.458  10.580
39486SOL     OW20289   2.067   1.389   0.004
39486SOL    HW120290   2.004   1.458  14.865
39486SOL    HW220291   2.023   1.335   0.069
39487SOL     OW20292  10.527   1.584   6.434
39487SOL    HW120293  10.609   1.559   6.476
39487SOL    HW220294  10.526   1.534   6.352
39488SOL     OW20295   7.856   4.187  11.887
39488SOL    HW120296   7.951   4.182  11.895
39488SOL    HW220297   7.823   4.140  11.963
39489SOL     OW20298  11.116  10.020  13.803
39489SOL    HW120299  11.033  10.053  13.837
39489SOL    HW220300  11.094   9.983  13.717
39490SOL     OW20301   6.903  11.744   5.760
39490SOL    HW120302   6.982  11.799   5.770
39490SOL    HW220303   6.937  11.656   5.742
39491SOL     OW20304   7.146   5.517  14.619
39491SOL    HW120305   7.068   5.561  14.653
39491SOL    HW220306   7.219   5.559  14.665
39492SOL     OW20307  13.747   9.633   0.401
39492SOL    HW120308  13.792   9.705   0.445
39492SOL    HW220309  13.673   9.612   0.458
39493SOL     OW20310   6.391   2.850   1.781
39493SOL    HW120311   6.394   2.758   1.806
39493SOL    HW220312   6.462   2.891   1.831
39494SOL     OW20313  14.263   4.268   0.693
39494SOL    HW120314  14.194   4.318   0.737
39494SOL    HW220315  14.240   4.273   0.600
39495SOL     OW20316   0.669   1.902  11.878
39495SOL    HW120317   0.756   1.877  11.848
39495SOL    HW220318   0.668   1.998  11.870
39496SOL     OW20319   1.017  10.618   9.084
39496SOL    HW120320   1.075  10.693   9.078
39496SOL    HW220321   0.961  10.624   9.006
39497SOL     OW20322  13.275  11.787  13.529
39497SOL    HW120323  13.280  11.882  13.540
39497SOL    HW220324  13.320  11.770  13.447
39498SOL     OW20325   0.666   6.176   4.536
39498SOL    HW120326   0.660   6.237   4.462
39498SOL    HW220327   0.708   6.227   4.605
39499SOL     OW20328  12.232   1.303   5.166
39499SOL    HW120329  12.308   1.245   5.159
39499SOL    HW220330  12.211   1.305   5.259
39500SOL     OW20331   6.636   7.615   8.353
39500SOL    HW120332   6.693   7.539   8.341
39500SOL    HW220333   6.561   7.597   8.296
39501SOL     OW20334   4.093  13.168   8.506
39501SOL    HW120335   4.181  13.196   8.530
39501SOL    HW220336   4.036  13.216   8.565
39502SOL     OW20337  11.046  10.977   5.044
39502SOL    HW120338  10.977  10.937   4.992
39502SOL    HW220339  11.015  11.067   5.059
39503SOL     OW20340   3.253   9.546  12.036
39503SOL    HW120341   3.217   9.624  11.995
39503SOL    HW220342   3.198   9.532  12.113
39504SOL     OW20343   8.271   6.211   3.436
39504SOL    HW120344   8.325   6.289   3.429
39504SOL    HW220345   8.329   6.138   3.413
39505SOL     OW20346   2.641   6.159   3.274
39505SOL    HW120347   2.700   6.191   3.343
39505SOL    HW220348   2.633   6.065   3.292
39506SOL     OW20349   2.728   7.990   8.852
39506SOL    HW120350   2.680   7.963   8.930
39506SOL    HW220351   2.695   8.077   8.832
39507SOL     OW20352  13.899  14.880   7.768
39507SOL    HW120353  13.938  14.854   7.852
39507SOL    HW220354  13.906  14.802   7.713
39508SOL     OW20355  10.759   5.468   7.903
39508SOL    HW120356  10.719   5.555   7.908
39508SOL    HW220357  10.684   5.408   7.903
39509SOL     OW20358   4.778   6.474   4.560
39509SOL    HW120359   4.871   6.492   4.545
39509SOL    HW220360   4.772   6.453   4.653
39510SOL     OW20361   8.985  11.595   8.760
39510SOL    HW120362   9.004  11.537   8.686
39510SOL    HW220363   9.047  11.568   8.828
39511SOL     OW20364  11.293   0.328  12.810
39511SOL    HW120365  11.380   0.365  12.826
39511SOL    HW220366  11.272   0.280  12.890
39512SOL     OW20367   5.676   0.919  10.105
39512SOL    HW120368   5.593   0.930  10.060
39512SOL    HW220369   5.733   0.988  10.069
39513SOL     OW20370   2.234   0.575   1.069
39513SOL    HW120371   2.315   0.525   1.059
39513SOL    HW220372   2.208   0.597   0.979
39514SOL     OW20373   7.365  12.545  13.469
39514SOL    HW120374   7.304  12.573  13.537
39514SOL    HW220375   7.435  12.500  13.516
39515SOL     OW20376   7.523   8.769  11.701
39515SOL    HW120377   7.618   8.775  11.688
39515SOL    HW220378   7.513   8.752  11.794
39516SOL     OW20379  12.352  12.965   1.994
39516SOL    HW120380  12.412  13.036   2.018
39516SOL    HW220381  12.294  13.004   1.929
39517SOL     OW20382  12.212  10.946  10.551
39517SOL    HW120383  12.215  11.038  10.525
39517SOL    HW220384  12.118  10.927  10.559
39518SOL     OW20385  13.115  13.215   8.647
39518SOL    HW120386  13.083  13.305   8.646
39518SOL    HW220387  13.181  13.212   8.579
39519SOL     OW20388   7.535  11.652   1.074
39519SOL    HW120389   7.616  11.681   1.114
39519SOL    HW220390   7.560  11.577   1.020
39520SOL     OW20391   1.367   0.763  12.232
39520SOL    HW120392   1.385   0.788  12.141
39520SOL    HW220393   1.453   0.739  12.267
39521SOL     OW20394  12.185   7.188   1.895
39521SOL    HW120395  12.197   7.251   1.824
39521SOL    HW220396  12.091   7.181   1.905
39522SOL     OW20397   6.371   0.553  12.547
39522SOL    HW120398   6.466   0.536  12.552
39522SOL    HW220399   6.347   0.526  12.459
39523SOL     OW20400   9.408   4.531   7.114
39523SOL    HW120401   9.439   4.585   7.041
39523SOL    HW220402   9.407   4.590   7.189
39524SOL     OW20403   3.839   0.547   8.876
39524SOL    HW120404   3.756   0.547   8.924
39524SOL    HW220405   3.886   0.623   8.910
39525SOL     OW20406   1.771   2.691   8.271
39525SOL    HW120407   1.787   2.775   8.228
39525SOL    HW220408   1.853   2.673   8.318
39526SOL     OW20409   4.862   5.063  14.555
39526SOL    HW120410   4.870   5.050  14.650
39526SOL    HW220411   4.892   4.980  14.517
39527SOL     OW20412   0.041   2.663   6.114
39527SOL    HW120413   0.046   2.568   6.130
39527SOL    HW220414   0.111   2.700   6.168
39528SOL     OW20415   9.918   3.189  13.440
39528SOL    HW120416   9.886   3.161  13.354
39528SOL    HW220417  10.007   3.153  13.445
39529SOL     OW20418   2.079   6.642  10.703
39529SOL    HW120419   2.171   6.625  10.683
39529SOL    HW220420   2.081   6.724  10.753
39530SOL     OW20421   7.863   0.291   9.895
39530SOL    HW120422   7.894   0.214   9.943
39530SOL    HW220423   7.897   0.278   9.806
39531SOL     OW20424  10.532  11.779   7.266
39531SOL    HW120425  10.617  11.750   7.233
39531SOL    HW220426  10.482  11.803   7.189
39532SOL     OW20427   9.867  10.549  14.575
39532SOL    HW120428   9.835  10.525  14.662
39532SOL    HW220429   9.805  10.509  14.515
39533SOL     OW20430   8.491   3.641   8.805
39533SOL    HW120431   8.479   3.583   8.729
39533SOL    HW220432   8.524   3.723   8.767
39534SOL     OW20433   3.243   4.408  12.118
39534SOL    HW120434   3.326   4.443  12.149
39534SOL    HW220435   3.234   4.323  12.162
39535SOL     OW20436  13.355   9.748  10.954
39535SOL    HW120437  13.408   9.674  10.983
39535SOL    HW220438  13.287   9.757  11.021
39536SOL     OW20439  10.839   7.490   9.123
39536SOL    HW120440  10.773   7.542   9.078
39536SOL    HW220441  10.895   7.554   9.166
39537SOL     OW20442   2.888  14.386   3.414
39537SOL    HW120443   2.973  14.356   3.445
39537SOL    HW220444   2.825  14.330   3.459
39538SOL     OW20445   6.540   1.082   5.872
39538SOL    HW120446   6.555   0.988   5.884
39538SOL    HW220447   6.558   1.120   5.958
39539SOL     OW20448  14.800   0.232   1.446
39539SOL    HW120449  14.733   0.238   1.514
39539SOL    HW220450  14.839   0.319   1.442
39540SOL     OW20451   2.965   7.821  10.503
39540SOL    HW120452   2.983   7.819  10.598
39540SOL    HW220453   2.933   7.733  10.483
39541SOL     OW20454   7.575  13.411   9.995
39541SOL    HW120455   7.595  13.329   9.951
39541SOL    HW220456   7.603  13.397  10.086
39542SOL     OW20457   1.892   8.810   7.456
39542SOL    HW120458   1.912   8.777   7.368
39542SOL    HW220459   1.874   8.903   7.443
39543SOL     OW20460   2.671  12.421  13.235
39543SOL    HW120461   2.622  12.427  13.153
39543SOL    HW220462   2.656  12.505  13.278
39544SOL     OW20463  10.407   7.114   3.665
39544SOL    HW120464  10.356   7.085   3.740
39544SOL    HW220465  10.490   7.066   3.672
39545SOL     OW20466  11.620   4.387   4.048
39545SOL    HW120467  11.525   4.395   4.049
39545SOL    HW220468  11.652   4.476   4.066
39546SOL     OW20469   4.310  14.624   4.426
39546SOL    HW120470   4.263  14.615   4.509
39546SOL    HW220471   4.355  14.540   4.416
39547SOL     OW20472  13.055   3.633   9.186
39547SOL    HW120473  12.991   3.695   9.153
39547SOL    HW220474  13.134   3.650   9.135
39548SOL     OW20475   5.095   5.608  14.691
39548SOL    HW120476   5.140   5.524  14.682
39548SOL    HW220477   5.152   5.671  14.647
39549SOL     OW20478   7.895  13.794   9.912
39549SOL    HW120479   7.927  13.859   9.975
39549SOL    HW220480   7.814  13.761   9.951
39550SOL     OW20481  11.376   0.157   3.020
39550SOL    HW120482  11.333   0.110   2.948
39550SOL    HW220483  11.469   0.151   2.999
39551SOL     OW20484   7.020   8.102  14.761
39551SOL    HW120485   7.005   8.009  14.740
39551SOL    HW220486   7.102   8.123  14.717
39552SOL     OW20487   3.919   0.631   6.506
39552SOL    HW120488   3.972   0.555   6.529
39552SOL    HW220489   3.873   0.653   6.587
39553SOL     OW20490  10.535   8.993  13.113
39553SOL    HW120491  10.621   8.977  13.075
39553SOL    HW220492  10.520   8.919  13.171
39554SOL     OW20493   4.022   6.906   1.561
39554SOL    HW120494   4.004   6.821   1.602
39554SOL    HW220495   4.115   6.922   1.580
39555SOL     OW20496   5.723   0.205   2.267
39555SOL    HW120497   5.816   0.190   2.251
39555SOL    HW220498   5.698   0.137   2.329
39556SOL     OW20499   9.706   2.414   8.176
39556SOL    HW120500   9.729   2.446   8.089
39556SOL    HW220501   9.728   2.321   8.174
39557SOL     OW20502   0.398   2.716   2.321
39557SOL    HW120503   0.403   2.634   2.273
39557SOL    HW220504   0.404   2.691   2.414
39558SOL     OW20505   3.178  10.138   4.350
39558SOL    HW120506   3.185  10.062   4.409
39558SOL    HW220507   3.111  10.114   4.287
39559SOL     OW20508   5.910  13.069   2.712
39559SOL    HW120509   5.961  12.991   2.734
39559SOL    HW220510   5.840  13.072   2.778
39560SOL     OW20511  13.633   5.795  13.003
39560SOL    HW120512  13.718   5.804  13.046
39560SOL    HW220513  13.609   5.703  13.016
39561SOL     OW20514   5.572  13.692  14.372
39561SOL    HW120515   5.486  13.649  14.367
39561SOL    HW220516   5.574  13.732  14.459
39562SOL     OW20517   8.434  12.297   0.093
39562SOL    HW120518   8.502  12.319   0.029
39562SOL    HW220519   8.479  12.246   0.160
39563SOL     OW20520  11.090   6.340   8.513
39563SOL    HW120521  11.054   6.321   8.600
39563SOL    HW220522  11.024   6.307   8.452
39564SOL     OW20523  11.921   6.184  13.756
39564SOL    HW120524  11.903   6.214  13.845
39564SOL    HW220525  12.017   6.189  13.748
39565SOL     OW20526  12.898   2.890  13.269
39565SOL    HW120527  12.835   2.881  13.198
39565SOL    HW220528  12.965   2.824  13.250
39566SOL     OW20529   9.693   2.087   0.436
39566SOL    HW120530   9.721   2.170   0.476
39566SOL    HW220531   9.769   2.029   0.446
39567SOL     OW20532   8.250  13.831  11.739
39567SOL    HW120533   8.201  13.887  11.680
39567SOL    HW220534   8.271  13.753  11.687
39568SOL     OW20535  11.031   9.718  13.908
39568SOL    HW120536  10.970   9.674  13.849
39568SOL    HW220537  10.977   9.780  13.957
39569SOL     OW20538   5.683   5.129  13.178
39569SOL    HW120539   5.730   5.115  13.260
39569SOL    HW220540   5.602   5.079  13.188
39570SOL     OW20541   5.517  13.546   9.885
39570SOL    HW120542   5.513  13.472   9.825
39570SOL    HW220543   5.427  13.578   9.890
39571SOL     OW20544   2.058   5.288  11.105
39571SOL    HW120545   1.995   5.292  11.033
39571SOL    HW220546   2.096   5.201  11.099
39572SOL     OW20547  11.739   3.672  12.649
39572SOL    HW120548  11.675   3.677  12.578
39572SOL    HW220549  11.821   3.653  12.605
39573SOL     OW20550   0.957   9.511   5.373
39573SOL    HW120551   1.025   9.491   5.309
39573SOL    HW220552   0.902   9.433   5.376
39574SOL     OW20553  14.249   8.634   1.720
39574SOL    HW120554  14.271   8.560   1.663
39574SOL    HW220555  14.320   8.696   1.708
39575SOL     OW20556   2.149  10.520  10.508
39575SOL    HW120557   2.234  10.509  10.465
39575SOL    HW220558   2.087  10.531  10.436
39576SOL     OW20559   5.889   0.513   1.591
39576SOL    HW120560   5.829   0.503   1.665
39576SOL    HW220561   5.969   0.468   1.618
39577SOL     OW20562  12.255   6.791   6.596
39577SOL    HW120563  12.349   6.772   6.603
39577SOL    HW220564  12.234   6.773   6.504
39578SOL     OW20565  13.952   7.878   6.327
39578SOL    HW120566  13.897   7.925   6.390
39578SOL    HW220567  14.017   7.833   6.381
39579SOL     OW20568   4.611   8.490   3.210
39579SOL    HW120569   4.607   8.508   3.116
39579SOL    HW220570   4.572   8.568   3.250
39580SOL     OW20571   8.975   9.044   4.841
39580SOL    HW120572   8.913   9.077   4.776
39580SOL    HW220573   9.014   8.967   4.800
39581SOL     OW20574  13.008   1.527   8.550
39581SOL    HW120575  12.916   1.544   8.568
39581SOL    HW220576  13.022   1.436   8.577
39582SOL     OW20577   9.454  14.035  13.396
39582SOL    HW120578   9.545  14.013  13.377
39582SOL    HW220579   9.404  13.980  13.336
39583SOL     OW20580   9.262  10.258   2.877
39583SOL    HW120581   9.324  10.290   2.942
39583SOL    HW220582   9.184  10.312   2.890
39584SOL     OW20583   7.702   1.406   8.759
39584SOL    HW120584   7.657   1.400   8.843
39584SOL    HW220585   7.763   1.332   8.759
39585SOL     OW20586   3.976   0.218   1.154
39585SOL    HW120587   3.971   0.311   1.133
39585SOL    HW220588   4.028   0.180   1.083
39586SOL     OW20589   0.298   4.433   2.862
39586SOL    HW120590   0.247   4.354   2.843
39586SOL    HW220591   0.237   4.505   2.845
39587SOL     OW20592   5.737   5.265   7.267
39587SOL    HW120593   5.668   5.211   7.229
39587SOL    HW220594   5.806   5.265   7.200
39588SOL     OW20595   4.750   3.579   9.483
39588SOL    HW120596   4.717   3.640   9.418
39588SOL    HW220597   4.844   3.573   9.466
39589SOL     OW20598   3.534   6.451   7.017
39589SOL    HW120599   3.449   6.495   7.010
39589SOL    HW220600   3.564   6.443   6.927
39590SOL     OW20601   2.994  12.589   7.861
39590SOL    HW120602   3.006  12.506   7.816
39590SOL    HW220603   2.915  12.626   7.822
39591SOL     OW20604  10.449  10.088   5.138
39591SOL    HW120605  10.532  10.039   5.141
39591SOL    HW220606  10.444  10.120   5.048
39592SOL     OW20607  13.894   5.180   3.150
39592SOL    HW120608  13.984   5.192   3.181
39592SOL    HW220609  13.895   5.094   3.106
39593SOL     OW20610   6.303   1.481  14.173
39593SOL    HW120611   6.312   1.386  14.186
39593SOL    HW220612   6.382   1.518  14.210
39594SOL     OW20613   9.365   4.962   3.307
39594SOL    HW120614   9.342   4.870   3.294
39594SOL    HW220615   9.401   4.966   3.396
39595SOL     OW20616   5.835   3.829   9.922
39595SOL    HW120617   5.828   3.740   9.889
39595SOL    HW220618   5.828   3.885   9.845
39596SOL     OW20619   7.624   9.463  13.464
39596SOL    HW120620   7.712   9.501  13.454
39596SOL    HW220621   7.605   9.425  13.378
39597SOL     OW20622   7.602   1.632   2.628
39597SOL    HW120623   7.588   1.646   2.721
39597SOL    HW220624   7.534   1.683   2.585
39598SOL     OW20625  14.559   9.705   0.682
39598SOL    HW120626  14.466   9.694   0.663
39598SOL    HW220627  14.604   9.678   0.602
39599SOL     OW20628   6.591   7.282  12.936
39599SOL    HW120629   6.560   7.192  12.926
39599SOL    HW220630   6.558   7.327  12.858
39600SOL     OW20631   3.547   5.867  10.737
39600SOL    HW120632   3.614   5.932  10.758
39600SOL    HW220633   3.483   5.876  10.807
39601SOL     OW20634  11.356  12.545   8.470
39601SOL    HW120635  11.366  12.634   8.436
39601SOL    HW220636  11.311  12.498   8.400
39602SOL     OW20637   5.067   9.185   3.358
39602SOL    HW120638   5.065   9.142   3.273
39602SOL    HW220639   5.146   9.239   3.356
39603SOL     OW20640   1.086   9.106  10.270
39603SOL    HW120641   1.147   9.080  10.201
39603SOL    HW220642   0.999   9.085  10.234
39604SOL     OW20643   7.975  11.934  12.797
39604SOL    HW120644   8.066  11.961  12.803
39604SOL    HW220645   7.944  11.937  12.888
39605SOL     OW20646   9.870   1.051  10.787
39605SOL    HW120647   9.835   0.965  10.809
39605SOL    HW220648   9.838   1.108  10.857
39606SOL     OW20649   6.846   5.554  14.104
39606SOL    HW120650   6.891   5.576  14.022
39606SOL    HW220651   6.899   5.595  14.172
39607SOL     OW20652   2.341   6.037   0.429
39607SOL    HW120653   2.260   6.087   0.418
39607SOL    HW220654   2.339   5.973   0.358
39608SOL     OW20655   9.444  11.744  13.147
39608SOL    HW120656   9.460  11.679  13.079
39608SOL    HW220657   9.349  11.754  13.149
39609SOL     OW20658   2.240   6.668   3.290
39609SOL    HW120659   2.268   6.699   3.203
39609SOL    HW220660   2.318   6.674   3.344
39610SOL     OW20661   8.710   1.481  11.398
39610SOL    HW120662   8.706   1.490  11.494
39610SOL    HW220663   8.716   1.387  11.383
39611SOL     OW20664   6.204  12.027   2.284
39611SOL    HW120665   6.273  11.961   2.300
39611SOL    HW220666   6.237  12.077   2.209
39612SOL     OW20667  14.222   1.810  10.064
39612SOL    HW120668  14.147   1.861  10.095
39612SOL    HW220669  14.187   1.722  10.050
39613SOL     OW20670  14.310  12.367   5.459
39613SOL    HW120671  14.299  12.459   5.482
39613SOL    HW220672  14.321  12.322   5.543
39614SOL     OW20673   2.721   3.703   4.412
39614SOL    HW120674   2.643   3.744   4.373
39614SOL    HW220675   2.775   3.777   4.441
39615SOL     OW20676   8.164  10.812   9.061
39615SOL    HW120677   8.163  10.771   8.975
39615SOL    HW220678   8.225  10.884   9.053
39616SOL     OW20679   1.054   5.257  12.383
39616SOL    HW120680   0.991   5.198  12.342
39616SOL    HW220681   1.112   5.284  12.311
39617SOL     OW20682   4.985  12.976  10.031
39617SOL    HW120683   5.025  13.044  10.086
39617SOL    HW220684   5.039  12.898  10.047
39618SOL     OW20685   2.978   1.865   7.869
39618SOL    HW120686   2.939   1.911   7.943
39618SOL    HW220687   3.047   1.922   7.839
39619SOL     OW20688  10.487  13.136  13.337
39619SOL    HW120689  10.409  13.082  13.330
39619SOL    HW220690  10.558  13.080  13.309
39620SOL     OW20691  12.179  10.277   9.883
39620SOL    HW120692  12.253  10.217   9.880
39620SOL    HW220693  12.113  10.239   9.825
39621SOL     OW20694   7.139   6.726  13.157
39621SOL    HW120695   7.135   6.645  13.208
39621SOL    HW220696   7.209   6.710  13.093
39622SOL     OW20697   9.263   1.884   4.956
39622SOL    HW120698   9.268   1.793   4.986
39622SOL    HW220699   9.189   1.920   5.004
39623SOL     OW20700   4.590  10.405  11.715
39623SOL    HW120701   4.574  10.361  11.631
39623SOL    HW220702   4.685  10.418  11.717
39624SOL     OW20703   7.938   1.303   8.452
39624SOL    HW120704   7.950   1.398   8.439
39624SOL    HW220705   7.910   1.295   8.543
39625SOL     OW20706   1.181  12.761   6.218
39625SOL    HW120707   1.155  12.726   6.133
39625SOL    HW220708   1.159  12.692   6.280
39626SOL     OW20709   1.121  11.430   5.031
39626SOL    HW120710   1.125  11.521   5.062
39626SOL    HW220711   1.106  11.379   5.110
39627SOL     OW20712   5.711   3.997   2.689
39627SOL    HW120713   5.626   4.005   2.732
39627SOL    HW220714   5.689   3.976   2.598
39628SOL     OW20715   4.217   7.327   0.759
39628SOL    HW120716   4.187   7.310   0.848
39628SOL    HW220717   4.313   7.332   0.767
39629SOL     OW20718   2.756  12.152  14.228
39629SOL    HW120719   2.813  12.223  14.258
39629SOL    HW220720   2.697  12.194  14.166
39630SOL     OW20721   6.960  10.137   7.799
39630SOL    HW120722   6.936  10.215   7.748
39630SOL    HW220723   6.984  10.072   7.734
39631SOL     OW20724   5.993   1.724   3.387
39631SOL    HW120725   5.989   1.810   3.427
39631SOL    HW220726   6.085   1.712   3.364
39632SOL     OW20727  10.833   3.485   2.656
39632SOL    HW120728  10.888   3.457   2.583
39632SOL    HW220729  10.764   3.538   2.616
39633SOL     OW20730   7.696   4.604   2.138
39633SOL    HW120731   7.734   4.646   2.215
39633SOL    HW220732   7.764   4.545   2.106
39634SOL     OW20733  13.507  11.213  13.620
39634SOL    HW120734  13.596  11.209  13.586
39634SOL    HW220735  13.452  11.228  13.543
39635SOL     OW20736   5.657   9.853   9.992
39635SOL    HW120737   5.669   9.797  10.068
39635SOL    HW220738   5.562   9.852   9.976
39636SOL     OW20739  12.978  10.175  12.437
39636SOL    HW120740  12.916  10.238  12.474
39636SOL    HW220741  12.952  10.091  12.474
39637SOL     OW20742   2.459   8.087   1.425
39637SOL    HW120743   2.551   8.070   1.446
39637SOL    HW220744   2.462   8.142   1.346
39638SOL     OW20745   5.669  13.370  14.059
39638SOL    HW120746   5.653  13.351  14.152
39638SOL    HW220747   5.750  13.323  14.039
39639SOL     OW20748   9.448   9.232   6.041
39639SOL    HW120749   9.518   9.222   6.105
39639SOL    HW220750   9.368   9.217   6.090
39640SOL     OW20751   4.374   4.609   9.905
39640SOL    HW120752   4.382   4.517   9.931
39640SOL    HW220753   4.460   4.647   9.922
39641SOL     OW20754  14.548   1.023  13.709
39641SOL    HW120755  14.580   1.059  13.792
39641SOL    HW220756  14.626   1.015  13.655
39642SOL     OW20757  10.112   0.069  12.414
39642SOL    HW120758  10.097   0.107  12.327
39642SOL    HW220759  10.179   0.002  12.399
39643SOL     OW20760  14.024   3.772  14.215
39643SOL    HW120761  14.113   3.795  14.239
39643SOL    HW220762  14.009   3.815  14.130
39644SOL     OW20763  14.139  10.821   7.118
39644SOL    HW120764  14.074  10.752   7.128
39644SOL    HW220765  14.166  10.815   7.026
39645SOL     OW20766   6.490   1.691   2.129
39645SOL    HW120767   6.547   1.742   2.072
39645SOL    HW220768   6.403   1.730   2.119
39646SOL     OW20769   7.201   1.763   7.868
39646SOL    HW120770   7.187   1.751   7.774
39646SOL    HW220771   7.249   1.846   7.875
39647SOL     OW20772   8.897  13.723  12.236
39647SOL    HW120773   8.861  13.637  12.214
39647SOL    HW220774   8.991  13.714  12.225
39648SOL     OW20775   6.805   7.367  13.055
39648SOL    HW120776   6.885   7.329  13.018
39648SOL    HW220777   6.734   7.315  13.017
39649SOL     OW20778   9.663   6.468   0.141
39649SOL    HW120779   9.649   6.396   0.202
39649SOL    HW220780   9.575   6.493   0.113
39650SOL     OW20781  10.303   7.353   6.561
39650SOL    HW120782  10.330   7.332   6.651
39650SOL    HW220783  10.208   7.355   6.564
39651SOL     OW20784   2.655   4.381   2.861
39651SOL    HW120785   2.750   4.375   2.861
39651SOL    HW220786   2.627   4.338   2.941
39652SOL     OW20787  10.578  11.124  12.151
39652SOL    HW120788  10.625  11.206  12.138
39652SOL    HW220789  10.485  11.150  12.154
39653SOL     OW20790   4.305   2.105   5.287
39653SOL    HW120791   4.215   2.108   5.321
39653SOL    HW220792   4.337   2.019   5.312
39654SOL     OW20793  11.428   4.705  12.932
39654SOL    HW120794  11.412   4.635  12.869
39654SOL    HW220795  11.354   4.766  12.919
39655SOL     OW20796   4.331  11.175  14.852
39655SOL    HW120797   4.403  11.183   0.033
39655SOL    HW220798   4.273  11.248  14.872
39656SOL     OW20799   9.708  12.084   5.807
39656SOL    HW120800   9.645  12.095   5.878
39656SOL    HW220801   9.703  11.991   5.784
39657SOL     OW20802  13.149   7.579   9.658
39657SOL    HW120803  13.184   7.632   9.729
39657SOL    HW220804  13.098   7.640   9.605
39658SOL     OW20805   9.269   6.478   1.360
39658SOL    HW120806   9.217   6.521   1.292
39658SOL    HW220807   9.359   6.506   1.342
39659SOL     OW20808   8.824   8.081   7.349
39659SOL    HW120809   8.889   8.148   7.329
39659SOL    HW220810   8.758   8.126   7.403
39660SOL     OW20811  14.838   6.854   3.581
39660SOL    HW120812  14.873   6.923   3.524
39660SOL    HW220813  14.847   6.774   3.529
39661SOL     OW20814  10.630   8.312   2.548
39661SOL    HW120815  10.624   8.292   2.455
39661SOL    HW220816  10.650   8.406   2.552
39662SOL     OW20817   1.381   4.422  12.397
39662SOL    HW120818   1.301   4.370  12.392
39662SOL    HW220819   1.373   4.486  12.326
39663SOL     OW20820  13.672   3.871  10.067
39663SOL    HW120821  13.676   3.843  10.159
39663SOL    HW220822  13.752   3.836  10.028
39664SOL     OW20823  13.383   8.451   9.289
39664SOL    HW120824  13.310   8.497   9.246
39664SOL    HW220825  13.346   8.365   9.312
39665SOL     OW20826   3.896   4.981   6.596
39665SOL    HW120827   3.966   4.937   6.547
39665SOL    HW220828   3.881   5.062   6.549
39666SOL     OW20829   1.517  14.842   9.843
39666SOL    HW120830   1.611  14.828   9.858
39666SOL    HW220831   1.475  14.800   9.918
39667SOL     OW20832   4.896  12.853  14.430
39667SOL    HW120833   4.990  12.838  14.431
39667SOL    HW220834   4.858  12.766  14.420
39668SOL     OW20835   8.215   4.877   4.647
39668SOL    HW120836   8.254   4.964   4.644
39668SOL    HW220837   8.189   4.859   4.557
39669SOL     OW20838  10.424   4.579   9.974
39669SOL    HW120839  10.474   4.609  10.049
39669SOL    HW220840  10.465   4.622   9.899
39670SOL     OW20841   5.270  11.918   3.649
39670SOL    HW120842   5.361  11.934   3.623
39670SOL    HW220843   5.277  11.881   3.737
39671SOL     OW20844   8.143   0.270   0.594
39671SOL    HW120845   8.047   0.275   0.588
39671SOL    HW220846   8.160   0.261   0.688
39672SOL     OW20847  10.611   5.638   0.590
39672SOL    HW120848  10.570   5.684   0.516
39672SOL    HW220849  10.626   5.549   0.557
39673SOL     OW20850  11.030   0.102   7.405
39673SOL    HW120851  10.935   0.102   7.397
39673SOL    HW220852  11.048   0.141   7.490
39674SOL     OW20853   0.218   6.736   4.070
39674SOL    HW120854   0.215   6.814   4.015
39674SOL    HW220855   0.163   6.672   4.025
39675SOL     OW20856   5.643   4.760   6.731
39675SOL    HW120857   5.562   4.710   6.726
39675SOL    HW220858   5.620   4.847   6.700
39676SOL     OW20859   7.404  14.869  13.221
39676SOL    HW120860   7.344  14.808  13.264
39676SOL    HW220861   7.414   0.059  13.283
39677SOL     OW20862   5.400   3.461  11.862
39677SOL    HW120863   5.366   3.481  11.950
39677SOL    HW220864   5.486   3.423  11.878
39678SOL     OW20865   7.419   6.563   3.825
39678SOL    HW120866   7.449   6.556   3.916
39678SOL    HW220867   7.486   6.517   3.774
39679SOL     OW20868  14.612  12.709  12.696
39679SOL    HW120869  14.696  12.694  12.739
39679SOL    HW220870  14.547  12.681  12.759
39680SOL     OW20871   4.587   9.646   8.833
39680SOL    HW120872   4.528   9.720   8.818
39680SOL    HW220873   4.600   9.646   8.928
39681SOL     OW20874   3.720  12.800   2.239
39681SOL    HW120875   3.786  12.854   2.194
39681SOL    HW220876   3.762  12.774   2.321
39682SOL     OW20877   2.149   4.745   7.810
39682SOL    HW120878   2.170   4.744   7.717
39682SOL    HW220879   2.091   4.669   7.822
39683SOL     OW20880   7.422  10.897   1.514
39683SOL    HW120881   7.481  10.908   1.589
39683SOL    HW220882   7.480  10.873   1.441
39684SOL     OW20883   8.821  11.163   3.127
39684SOL    HW120884   8.878  11.173   3.203
39684SOL    HW220885   8.827  11.070   3.105
39685SOL     OW20886  11.967  14.534   3.192
39685SOL    HW120887  11.935  14.444   3.191
39685SOL    HW220888  12.024  14.539   3.115
39686SOL     OW20889  11.675  10.585  14.097
39686SOL    HW120890  11.589  10.600  14.136
39686SOL    HW220891  11.662  10.510  14.038
39687SOL     OW20892   4.476   5.562   8.225
39687SOL    HW120893   4.510   5.647   8.194
39687SOL    HW220894   4.552   5.518   8.261
39688SOL     OW20895   3.745   3.739  12.849
39688SOL    HW120896   3.808   3.698  12.789
39688SOL    HW220897   3.660   3.711  12.816
39689SOL     OW20898  13.745   9.017   6.570
39689SOL    HW120899  13.801   9.076   6.519
39689SOL    HW220900  13.669   9.070   6.593
39690SOL     OW20901   9.470   0.147   0.458
39690SOL    HW120902   9.476   0.053   0.472
39690SOL    HW220903   9.381   0.170   0.485
39691SOL     OW20904  12.796  10.386   7.782
39691SOL    HW120905  12.752  10.463   7.749
39691SOL    HW220906  12.726  10.323   7.799
39692SOL     OW20907  12.376   3.730   0.718
39692SOL    HW120908  12.307   3.705   0.778
39692SOL    HW220909  12.346   3.700   0.632
39693SOL     OW20910   7.062   2.840   5.531
39693SOL    HW120911   7.084   2.776   5.598
39693SOL    HW220912   6.980   2.879   5.560
39694SOL     OW20913   2.628  13.700  14.063
39694SOL    HW120914   2.607  13.740  14.147
39694SOL    HW220915   2.630  13.606  14.080
39695SOL     OW20916   5.937   6.194  12.027
39695SOL    HW120917   5.915   6.269  12.083
39695SOL    HW220918   5.932   6.118  12.085
39696SOL     OW20919   7.390   1.265   3.277
39696SOL    HW120920   7.428   1.322   3.344
39696SOL    HW220921   7.343   1.325   3.219
39697SOL     OW20922   4.139   3.509   0.297
39697SOL    HW120923   4.187   3.544   0.221
39697SOL    HW220924   4.193   3.533   0.372
39698SOL     OW20925   5.686   5.350   2.503
39698SOL    HW120926   5.710   5.442   2.492
39698SOL    HW220927   5.754   5.302   2.458
39699SOL     OW20928   2.604   0.526   6.778
39699SOL    HW120929   2.555   0.608   6.773
39699SOL    HW220930   2.598   0.500   6.870
39700SOL     OW20931   6.942  12.046   2.640
39700SOL    HW120932   7.015  11.984   2.631
39700SOL    HW220933   6.984  12.132   2.644
39701SOL     OW20934  13.560   0.327   1.768
39701SOL    HW120935  13.506   0.271   1.825
39701SOL    HW220936  13.629   0.361   1.826
39702SOL     OW20937   9.819   5.979   9.148
39702SOL    HW120938   9.830   6.050   9.211
39702SOL    HW220939   9.869   5.906   9.184
39703SOL     OW20940  14.228  12.700   7.359
39703SOL    HW120941  14.233  12.624   7.416
39703SOL    HW220942  14.134  12.715   7.346
39704SOL     OW20943  14.720   7.392   6.775
39704SOL    HW120944  14.718   7.467   6.834
39704SOL    HW220945  14.777   7.420   6.703
39705SOL     OW20946   6.421  10.647   8.099
39705SOL    HW120947   6.338  10.680   8.135
39705SOL    HW220948   6.449  10.715   8.038
39706SOL     OW20949   4.412   2.617   6.475
39706SOL    HW120950   4.389   2.535   6.431
39706SOL    HW220951   4.423   2.592   6.567
39707SOL     OW20952   2.609   1.686   0.649
39707SOL    HW120953   2.591   1.646   0.734
39707SOL    HW220954   2.704   1.696   0.647
39708SOL     OW20955  11.897   6.293   6.169
39708SOL    HW120956  11.985   6.262   6.190
39708SOL    HW220957  11.895   6.382   6.205
39709SOL     OW20958   6.614   8.057  13.955
39709SOL    HW120959   6.591   8.145  13.925
39709SOL    HW220960   6.651   8.071  14.042
39710SOL     OW20961  12.837   9.780   0.319
39710SOL    HW120962  12.763   9.836   0.344
39710SOL    HW220963  12.799   9.692   0.315
39711SOL     OW20964   2.952   9.449   4.850
39711SOL    HW120965   2.953   9.494   4.766
39711SOL    HW220966   3.033   9.398   4.851
39712SOL     OW20967   6.553   3.092   9.946
39712SOL    HW120968   6.481   3.144   9.982
39712SOL    HW220969   6.572   3.028  10.015
39713SOL     OW20970   0.850  10.686   4.625
39713SOL    HW120971   0.797  10.627   4.572
39713SOL    HW220972   0.892  10.629   4.689
39714SOL     OW20973  12.005   6.983   2.735
39714SOL    HW120974  12.094   6.950   2.727
39714SOL    HW220975  11.972   6.986   2.645
39715SOL     OW20976   1.864   5.493   5.343
39715SOL    HW120977   1.901   5.438   5.274
39715SOL    HW220978   1.822   5.431   5.403
39716SOL     OW20979  13.611  14.441   4.511
39716SOL    HW120980  13.553  14.391   4.454
39716SOL    HW220981  13.553  14.501   4.557
39717SOL     OW20982   2.672   4.758   7.953
39717SOL    HW120983   2.593   4.797   7.915
39717SOL    HW220984   2.640   4.704   8.025
39718SOL     OW20985   9.896   9.348   6.414
39718SOL    HW120986   9.841   9.281   6.456
39718SOL    HW220987   9.950   9.299   6.352
39719SOL     OW20988   1.450   1.103   5.447
39719SOL    HW120989   1.380   1.065   5.500
39719SOL    HW220990   1.454   1.048   5.369
39720SOL     OW20991   2.703  14.370  10.699
39720SOL    HW120992   2.714  14.459  10.734
39720SOL    HW220993   2.752  14.371  10.617
39721SOL     OW20994   2.992   4.120  10.918
39721SOL    HW120995   2.989   4.079  11.005
39721SOL    HW220996   2.975   4.213  10.935
39722SOL     OW20997  12.221  12.668  14.881
39722SOL    HW120998  12.215  12.763  14.870
39722SOL    HW220999  12.243  12.656   0.091
39723SOL     OW21000   8.779   4.865   3.738
39723SOL    HW121001   8.725   4.834   3.666
39723SOL    HW221002   8.720   4.915   3.794
39724SOL     OW21003  10.612   5.744  10.936
39724SOL    HW121004  10.649   5.676  10.993
39724SOL    HW221005  10.646   5.826  10.972
39725SOL     OW21006   9.276   1.918  14.152
39725SOL    HW121007   9.186   1.925  14.183
39725SOL    HW221008   9.269   1.921  14.057
39726SOL     OW21009   7.972   4.329  12.826
39726SOL    HW121010   8.025   4.252  12.810
39726SOL    HW221011   7.916   4.336  12.749
39727SOL     OW21012  13.997   1.706   9.261
39727SOL    HW121013  14.028   1.624   9.223
39727SOL    HW221014  13.918   1.727   9.211
39728SOL     OW21015  13.140   5.811  10.301
39728SOL    HW121016  13.102   5.891  10.265
39728SOL    HW221017  13.132   5.747  10.231
39729SOL     OW21018   1.314   4.045   9.525
39729SOL    HW121019   1.405   4.017   9.518
39729SOL    HW221020   1.319   4.140   9.539
39730SOL     OW21021  11.054   0.223  14.795
39730SOL    HW121022  10.988   0.292  14.786
39730SOL    HW221023  11.092   0.237  14.882
39731SOL     OW21024   6.126  10.433  10.648
39731SOL    HW121025   6.069  10.498  10.689
39731SOL    HW221026   6.077  10.404  10.571
39732SOL     OW21027   9.251  11.802   4.711
39732SOL    HW121028   9.264  11.707   4.708
39732SOL    HW221029   9.161  11.813   4.740
39733SOL     OW21030   4.655   7.861   9.156
39733SOL    HW121031   4.681   7.900   9.073
39733SOL    HW221032   4.559   7.861   9.154
39734SOL     OW21033   7.379   0.478  10.485
39734SOL    HW121034   7.356   0.504  10.396
39734SOL    HW221035   7.396   0.384  10.479
39735SOL     OW21036   6.188  13.207   9.303
39735SOL    HW121037   6.161  13.297   9.322
39735SOL    HW221038   6.228  13.211   9.217
39736SOL     OW21039  13.105   8.606   8.401
39736SOL    HW121040  13.069   8.608   8.313
39736SOL    HW221041  13.199   8.620   8.389
39737SOL     OW21042   1.805   4.740   1.126
39737SOL    HW121043   1.869   4.682   1.085
39737SOL    HW221044   1.815   4.823   1.081
39738SOL     OW21045   9.747  10.256   9.214
39738SOL    HW121046   9.736  10.239   9.120
39738SOL    HW221047   9.830  10.212   9.237
39739SOL     OW21048   2.277   3.866   8.614
39739SOL    HW121049   2.274   3.835   8.524
39739SOL    HW221050   2.359   3.914   8.621
39740SOL     OW21051  13.645  10.173   4.767
39740SOL    HW121052  13.580  10.153   4.835
39740SOL    HW221053  13.615  10.126   4.690
39741SOL     OW21054  11.590   6.182   1.795
39741SOL    HW121055  11.671   6.223   1.825
39741SOL    HW221056  11.550   6.148   1.875
39742SOL     OW21057  13.564   4.480   8.656
39742SOL    HW121058  13.478   4.487   8.615
39742SOL    HW221059  13.623   4.525   8.596
39743SOL     OW21060  12.093   1.179   0.446
39743SOL    HW121061  12.163   1.230   0.406
39743SOL    HW221062  12.110   1.184   0.540
39744SOL     OW21063   1.473  13.932   0.352
39744SOL    HW121064   1.432  14.016   0.372
39744SOL    HW221065   1.534  13.917   0.424
39745SOL     OW21066   4.627   3.644  13.428
39745SOL    HW121067   4.722   3.647  13.427
39745SOL    HW221068   4.602   3.641  13.336
39746SOL     OW21069  10.551  10.407   7.583
39746SOL    HW121070  10.456  10.412   7.594
39746SOL    HW221071  10.564  10.394   7.489
39747SOL     OW21072   9.424   6.000   3.592
39747SOL    HW121073   9.502   6.041   3.555
39747SOL    HW221074   9.353   6.062   3.572
39748SOL     OW21075  13.287   8.186   8.557
39748SOL    HW121076  13.234   8.107   8.545
39748SOL    HW221077  13.238   8.238   8.620
39749SOL     OW21078  13.809  10.983   1.367
39749SOL    HW121079  13.745  11.052   1.359
39749SOL    HW221080  13.816  10.947   1.278
39750SOL     OW21081   6.922   5.288  14.246
39750SOL    HW121082   6.898   5.377  14.218
39750SOL    HW221083   6.931   5.294  14.341
39751SOL     OW21084   7.582  11.550   7.558
39751SOL    HW121085   7.674  11.536   7.535
39751SOL    HW221086   7.534  11.488   7.504
39752SOL     OW21087   1.281   1.408   1.037
39752SOL    HW121088   1.283   1.345   0.965
39752SOL    HW221089   1.273   1.354   1.116
39753SOL     OW21090  10.913  11.097   7.679
39753SOL    HW121091  10.875  11.019   7.720
39753SOL    HW221092  11.007  11.087   7.693
39754SOL     OW21093  12.789  11.194   2.424
39754SOL    HW121094  12.704  11.195   2.467
39754SOL    HW221095  12.847  11.148   2.485
39755SOL     OW21096  13.158   5.028   0.102
39755SOL    HW121097  13.209   4.950   0.079
39755SOL    HW221098  13.144   5.073   0.019
39756SOL     OW21099  10.252   5.872   1.618
39756SOL    HW121100  10.283   5.864   1.708
39756SOL    HW221101  10.177   5.813   1.613
39757SOL     OW21102   6.333   0.232   8.269
39757SOL    HW121103   6.245   0.193   8.269
39757SOL    HW221104   6.348   0.259   8.179
39758SOL     OW21105   7.827  10.708   5.324
39758SOL    HW121106   7.770  10.646   5.278
39758SOL    HW221107   7.913  10.698   5.282
39759SOL     OW21108   3.979   7.108   0.460
39759SOL    HW121109   3.981   7.177   0.393
39759SOL    HW221110   4.056   7.124   0.514
39760SOL     OW21111   1.188   0.479   1.718
39760SOL    HW121112   1.203   0.562   1.763
39760SOL    HW221113   1.132   0.501   1.644
39761SOL     OW21114   4.267   5.649  10.685
39761SOL    HW121115   4.310   5.567  10.712
39761SOL    HW221116   4.333   5.717  10.701
39762SOL     OW21117  13.198   3.835  13.005
39762SOL    HW121118  13.239   3.760  12.961
39762SOL    HW221119  13.224   3.911  12.953
39763SOL     OW21120   5.201  14.496  14.084
39763SOL    HW121121   5.256  14.574  14.072
39763SOL    HW221122   5.122  14.529  14.127
39764SOL     OW21123   4.128   6.005   9.337
39764SOL    HW121124   4.218   6.028   9.316
39764SOL    HW221125   4.108   5.931   9.280
39765SOL     OW21126  13.511  14.073   8.037
39765SOL    HW121127  13.487  14.101   8.126
39765SOL    HW221128  13.434  14.025   8.006
39766SOL     OW21129   6.438   1.088  10.342
39766SOL    HW121130   6.348   1.111  10.317
39766SOL    HW221131   6.493   1.144  10.288
39767SOL     OW21132   8.734   7.229   2.576
39767SOL    HW121133   8.722   7.241   2.671
39767SOL    HW221134   8.739   7.134   2.564
39768SOL     OW21135  14.116  13.125   6.945
39768SOL    HW121136  14.125  13.137   6.850
39768SOL    HW221137  14.204  13.101   6.974
39769SOL     OW21138  12.963   5.629   6.606
39769SOL    HW121139  12.926   5.715   6.584
39769SOL    HW221140  13.052   5.649   6.635
39770SOL     OW21141  10.864   6.242   9.528
39770SOL    HW121142  10.948   6.244   9.481
39770SOL    HW221143  10.875   6.305   9.599
39771SOL     OW21144   4.745   1.008   6.465
39771SOL    HW121145   4.724   1.100   6.446
39771SOL    HW221146   4.829   1.012   6.511
39772SOL     OW21147  13.248  14.550  14.830
39772SOL    HW121148  13.298  14.624  14.864
39772SOL    HW221149  13.272  14.545  14.737
39773SOL     OW21150   6.102   4.116   8.170
39773SOL    HW121151   6.182   4.167   8.160
39773SOL    HW221152   6.040   4.156   8.109
39774SOL     OW21153  10.578  14.618   8.178
39774SOL    HW121154  10.536  14.639   8.094
39774SOL    HW221155  10.650  14.560   8.155
39775SOL     OW21156   5.127   8.284   6.882
39775SOL    HW121157   5.142   8.376   6.859
39775SOL    HW221158   5.190   8.267   6.952
39776SOL     OW21159   4.133   8.480   7.442
39776SOL    HW121160   4.073   8.547   7.408
39776SOL    HW221161   4.191   8.528   7.501
39777SOL     OW21162   8.349  13.526  10.130
39777SOL    HW121163   8.385  13.439  10.116
39777SOL    HW221164   8.373  13.575  10.051
39778SOL     OW21165  13.638   7.434   0.333
39778SOL    HW121166  13.609   7.491   0.405
39778SOL    HW221167  13.623   7.485   0.254
39779SOL     OW21168   2.593  11.429   9.381
39779SOL    HW121169   2.503  11.458   9.395
39779SOL    HW221170   2.630  11.492   9.320
39780SOL     OW21171   1.629   2.168   8.224
39780SOL    HW121172   1.699   2.232   8.216
39780SOL    HW221173   1.632   2.117   8.144
39781SOL     OW21174   0.383  13.787  11.231
39781SOL    HW121175   0.320  13.747  11.170
39781SOL    HW221176   0.376  13.734  11.310
39782SOL     OW21177   5.486   8.818  11.616
39782SOL    HW121178   5.561   8.826  11.674
39782SOL    HW221179   5.518   8.769  11.541
39783SOL     OW21180   1.791  14.120   0.471
39783SOL    HW121181   1.776  14.066   0.394
39783SOL    HW221182   1.812  14.207   0.436
39784SOL     OW21183   8.629  10.187  11.628
39784SOL    HW121184   8.656  10.096  11.615
39784SOL    HW221185   8.534  10.183  11.641
39785SOL     OW21186   8.555   3.109  14.604
39785SOL    HW121187   8.542   3.023  14.645
39785SOL    HW221188   8.637   3.100  14.556
39786SOL     OW21189   6.307  11.710   3.652
39786SOL    HW121190   6.309  11.741   3.742
39786SOL    HW221191   6.364  11.771   3.604
39787SOL     OW21192  14.813   2.843   1.959
39787SOL    HW121193  14.772   2.808   2.038
39787SOL    HW221194   0.013   2.881   1.989
39788SOL     OW21195  12.876   2.134   0.861
39788SOL    HW121196  12.970   2.120   0.849
39788SOL    HW221197  12.841   2.047   0.883
39789SOL     OW21198   0.249  10.390   4.695
39789SOL    HW121199   0.221  10.436   4.616
39789SOL    HW221200   0.168  10.356   4.733
39790SOL     OW21201   2.125  10.516   5.956
39790SOL    HW121202   2.187  10.589   5.962
39790SOL    HW221203   2.160  10.449   6.015
39791SOL     OW21204   5.908  10.160  14.786
39791SOL    HW121205   5.978  10.149  14.850
39791SOL    HW221206   5.932  10.102  14.714
39792SOL     OW21207   1.130   6.516   9.702
39792SOL    HW121208   1.091   6.446   9.755
39792SOL    HW221209   1.169   6.470   9.628
39793SOL     OW21210   7.205  11.558   3.381
39793SOL    HW121211   7.260  11.622   3.336
39793SOL    HW221212   7.168  11.505   3.310
39794SOL     OW21213   2.970   7.272   9.909
39794SOL    HW121214   3.001   7.233   9.991
39794SOL    HW221215   2.937   7.358   9.935
39795SOL     OW21216  11.627   0.797   1.065
39795SOL    HW121217  11.688   0.831   1.130
39795SOL    HW221218  11.624   0.865   0.997
39796SOL     OW21219   0.501  14.840   5.879
39796SOL    HW121220   0.587  14.798   5.870
39796SOL    HW221221   0.454  14.785   5.942
39797SOL     OW21222   0.307  10.773   6.774
39797SOL    HW121223   0.279  10.850   6.823
39797SOL    HW221224   0.228  10.722   6.762
39798SOL     OW21225   4.329   5.508  11.878
39798SOL    HW121226   4.364   5.544  11.959
39798SOL    HW221227   4.244   5.552  11.866
39799SOL     OW21228   1.644   9.071  14.851
39799SOL    HW121229   1.605   9.110   0.047
39799SOL    HW221230   1.610   9.122  14.779
39800SOL     OW21231  12.723   4.931   0.720
39800SOL    HW121232  12.781   4.921   0.644
39800SOL    HW221233  12.690   5.020   0.713
39801SOL     OW21234   4.874   0.931   9.368
39801SOL    HW121235   4.848   1.020   9.390
39801SOL    HW221236   4.962   0.940   9.333
39802SOL     OW21237  12.167   1.715   1.052
39802SOL    HW121238  12.098   1.679   0.996
39802SOL    HW221239  12.157   1.669   1.135
39803SOL     OW21240   1.879  14.108  11.177
39803SOL    HW121241   1.849  14.199  11.176
39803SOL    HW221242   1.801  14.056  11.160
39804SOL     OW21243   7.957   7.808   4.612
39804SOL    HW121244   7.940   7.903   4.611
39804SOL    HW221245   7.993   7.791   4.699
39805SOL     OW21246  13.553   8.472  10.292
39805SOL    HW121247  13.645   8.476  10.319
39805SOL    HW221248  13.506   8.519  10.361
39806SOL     OW21249  13.499  12.370   0.730
39806SOL    HW121250  13.478  12.277   0.742
39806SOL    HW221251  13.470  12.412   0.811
39807SOL     OW21252   4.453   4.946   0.900
39807SOL    HW121253   4.501   5.027   0.913
39807SOL    HW221254   4.409   4.957   0.815
39808SOL     OW21255   9.612   1.670  14.654
39808SOL    HW121256   9.607   1.761  14.623
39808SOL    HW221257   9.705   1.659  14.677
39809SOL     OW21258  14.419  13.183   2.500
39809SOL    HW121259  14.437  13.159   2.410
39809SOL    HW221260  14.465  13.265   2.513
39810SOL     OW21261   6.637  14.617  10.220
39810SOL    HW121262   6.697  14.573  10.281
39810SOL    HW221263   6.568  14.652  10.275
39811SOL     OW21264  13.183   3.798   0.909
39811SOL    HW121265  13.209   3.890   0.916
39811SOL    HW221266  13.129   3.794   0.831
39812SOL     OW21267   3.755  12.882   7.179
39812SOL    HW121268   3.689  12.829   7.134
39812SOL    HW221269   3.708  12.962   7.205
39813SOL     OW21270   8.919   0.730   0.878
39813SOL    HW121271   8.857   0.792   0.918
39813SOL    HW221272   8.984   0.714   0.945
39814SOL     OW21273   8.370   9.732   5.396
39814SOL    HW121274   8.287   9.779   5.405
39814SOL    HW221275   8.359   9.679   5.317
39815SOL     OW21276  10.357   4.584  12.789
39815SOL    HW121277  10.404   4.509  12.824
39815SOL    HW221278  10.413   4.618  12.719
39816SOL     OW21279   1.900   0.188   7.473
39816SOL    HW121280   1.949   0.129   7.531
39816SOL    HW221281   1.957   0.200   7.398
39817SOL     OW21282   1.871   9.538  11.174
39817SOL    HW121283   1.779   9.541  11.197
39817SOL    HW221284   1.902   9.454  11.208
39818SOL     OW21285   7.786   8.505   2.271
39818SOL    HW121286   7.746   8.590   2.290
39818SOL    HW221287   7.851   8.524   2.203
39819SOL     OW21288   3.697   8.442   8.049
39819SOL    HW121289   3.644   8.404   7.978
39819SOL    HW221290   3.787   8.429   8.021
39820SOL     OW21291   3.959   4.628  10.756
39820SOL    HW121292   3.864   4.625  10.765
39820SOL    HW221293   3.975   4.690  10.685
39821SOL     OW21294   8.325   4.344   6.045
39821SOL    HW121295   8.332   4.365   6.138
39821SOL    HW221296   8.244   4.294   6.037
39822SOL     OW21297  11.716   9.453   4.597
39822SOL    HW121298  11.740   9.364   4.572
39822SOL    HW221299  11.766   9.470   4.678
39823SOL     OW21300   6.079   2.297   0.159
39823SOL    HW121301   6.042   2.211   0.176
39823SOL    HW221302   6.004   2.352   0.136
39824SOL     OW21303   4.640  11.860   2.232
39824SOL    HW121304   4.678  11.828   2.150
39824SOL    HW221305   4.714  11.897   2.279
39825SOL     OW21306  14.116   2.413   6.915
39825SOL    HW121307  14.182   2.412   6.984
39825SOL    HW221308  14.146   2.480   6.854
39826SOL     OW21309  10.369  14.496   9.054
39826SOL    HW121310  10.447  14.440   9.047
39826SOL    HW221311  10.319  14.458   9.126
39827SOL     OW21312   5.886  14.833  10.264
39827SOL    HW121313   5.883   0.042  10.235
39827SOL    HW221314   5.913  14.838  10.356
39828SOL     OW21315   1.596   8.282   6.388
39828SOL    HW121316   1.583   8.349   6.455
39828SOL    HW221317   1.587   8.199   6.435
39829SOL     OW21318   3.586  14.834  11.734
39829SOL    HW121319   3.662  14.857  11.680
39829SOL    HW221320   3.543  14.764  11.686
39830SOL     OW21321   5.389   3.327   0.806
39830SOL    HW121322   5.317   3.275   0.839
39830SOL    HW221323   5.368   3.342   0.714
39831SOL     OW21324   4.201   9.752   5.640
39831SOL    HW121325   4.249   9.675   5.670
39831SOL    HW221326   4.256   9.826   5.664
39832SOL     OW21327   5.681  12.642   6.482
39832SOL    HW121328   5.711  12.569   6.429
39832SOL    HW221329   5.686  12.610   6.572
39833SOL     OW21330  10.334  12.699   7.793
39833SOL    HW121331  10.403  12.762   7.770
39833SOL    HW221332  10.322  12.712   7.887
39834SOL     OW21333   2.718  11.497  12.150
39834SOL    HW121334   2.631  11.537  12.147
39834SOL    HW221335   2.778  11.571  12.151
39835SOL     OW21336   9.262  13.457   8.985
39835SOL    HW121337   9.291  13.545   9.008
39835SOL    HW221338   9.336  13.419   8.938
39836SOL     OW21339  12.643   4.765   9.980
39836SOL    HW121340  12.694   4.684   9.982
39836SOL    HW221341  12.616   4.775   9.889
39837SOL     OW21342  14.027  10.786   2.275
39837SOL    HW121343  13.949  10.832   2.244
39837SOL    HW221344  14.100  10.841   2.247
39838SOL     OW21345   0.796   8.742   1.846
39838SOL    HW121346   0.701   8.743   1.846
39838SOL    HW221347   0.819   8.672   1.907
39839SOL     OW21348  12.811   8.609   8.821
39839SOL    HW121349  12.790   8.600   8.728
39839SOL    HW221350  12.829   8.702   8.832
39840SOL     OW21351   9.677   6.968   9.307
39840SOL    HW121352   9.593   7.013   9.318
39840SOL    HW221353   9.724   7.022   9.244
39841SOL     OW21354   7.022  10.452  13.646
39841SOL    HW121355   7.059  10.434  13.559
39841SOL    HW221356   7.047  10.543  13.664
39842SOL     OW21357  10.307   8.956   1.755
39842SOL    HW121358  10.402   8.956   1.769
39842SOL    HW221359  10.289   8.869   1.719
39843SOL     OW21360  14.816  12.583   3.015
39843SOL    HW121361   0.015  12.546   3.051
39843SOL    HW221362  14.844  12.664   2.971
39844SOL     OW21363   5.481   7.101   1.067
39844SOL    HW121364   5.465   7.038   0.996
39844SOL    HW221365   5.572   7.129   1.053
39845SOL     OW21366   3.399   5.754   3.107
39845SOL    HW121367   3.306   5.733   3.111
39845SOL    HW221368   3.444   5.672   3.129
39846SOL     OW21369  12.204  13.897  11.377
39846SOL    HW121370  12.236  13.939  11.458
39846SOL    HW221371  12.137  13.835  11.408
39847SOL     OW21372  12.001  11.125   6.770
39847SOL    HW121373  12.001  11.136   6.675
39847SOL    HW221374  11.941  11.053   6.786
39848SOL     OW21375   7.841   7.465   4.679
39848SOL    HW121376   7.902   7.395   4.657
39848SOL    HW221377   7.798   7.434   4.759
39849SOL     OW21378  13.518  10.272  11.901
39849SOL    HW121379  13.574  10.325  11.845
39849SOL    HW221380  13.434  10.317  11.900
39850SOL     OW21381  14.759  10.393   8.572
39850SOL    HW121382  14.669  10.370   8.548
39850SOL    HW221383  14.799  10.422   8.490
39851SOL     OW21384   6.039  13.433   4.210
39851SOL    HW121385   6.006  13.348   4.241
39851SOL    HW221386   5.971  13.465   4.151
39852SOL     OW21387  13.576   8.525   3.126
39852SOL    HW121388  13.613   8.450   3.173
39852SOL    HW221389  13.603   8.601   3.177
39853SOL     OW21390   7.359   3.699  10.482
39853SOL    HW121391   7.435   3.721  10.429
39853SOL    HW221392   7.284   3.725  10.428
39854SOL     OW21393  12.654   8.475   9.878
39854SOL    HW121394  12.692   8.552   9.920
39854SOL    HW221395  12.704   8.464   9.797
39855SOL     OW21396   2.743   5.322   8.540
39855SOL    HW121397   2.816   5.381   8.561
39855SOL    HW221398   2.665   5.370   8.566
39856SOL     OW21399   9.815   1.796   2.947
39856SOL    HW121400   9.820   1.888   2.972
39856SOL    HW221401   9.764   1.795   2.866
39857SOL     OW21402   4.695   6.324   1.160
39857SOL    HW121403   4.683   6.237   1.122
39857SOL    HW221404   4.789   6.336   1.164
39858SOL     OW21405   8.779  14.207  11.330
39858SOL    HW121406   8.683  14.207  11.327
39858SOL    HW221407   8.805  14.266  11.259
39859SOL     OW21408  13.262   6.921   1.277
39859SOL    HW121409  13.295   6.992   1.221
39859SOL    HW221410  13.182   6.891   1.235
39860SOL     OW21411  13.163   9.566   0.249
39860SOL    HW121412  13.077   9.547   0.211
39860SOL    HW221413  13.218   9.493   0.220
39861SOL     OW21414  14.778   9.813   7.776
39861SOL    HW121415  14.720   9.770   7.712
39861SOL    HW221416  14.827   9.877   7.724
39862SOL     OW21417   1.998   1.421   5.093
39862SOL    HW121418   2.034   1.369   5.022
39862SOL    HW221419   2.055   1.497   5.099
39863SOL     OW21420   6.527   9.630   5.389
39863SOL    HW121421   6.475   9.551   5.375
39863SOL    HW221422   6.563   9.619   5.477
39864SOL     OW21423   4.122  11.966   3.660
39864SOL    HW121424   4.108  11.931   3.748
39864SOL    HW221425   4.135  12.060   3.674
39865SOL     OW21426   5.482   0.427   2.861
39865SOL    HW121427   5.467   0.466   2.775
39865SOL    HW221428   5.545   0.356   2.845
39866SOL     OW21429  13.470  11.698   3.876
39866SOL    HW121430  13.436  11.782   3.845
39866SOL    HW221431  13.485  11.648   3.796
39867SOL     OW21432   7.196  14.337   2.013
39867SOL    HW121433   7.223  14.291   2.092
39867SOL    HW221434   7.257  14.308   1.945
39868SOL     OW21435   8.011   4.614   2.458
39868SOL    HW121436   7.990   4.564   2.537
39868SOL    HW221437   7.928   4.657   2.434
39869SOL     OW21438   5.643   5.743   8.979
39869SOL    HW121439   5.643   5.838   8.992
39869SOL    HW221440   5.721   5.726   8.927
39870SOL     OW21441   1.189   4.992   2.092
39870SOL    HW121442   1.118   4.950   2.042
39870SOL    HW221443   1.260   5.003   2.028
39871SOL     OW21444   1.205   3.800   9.468
39871SOL    HW121445   1.109   3.797   9.460
39871SOL    HW221446   1.224   3.890   9.494
39872SOL     OW21447   3.382  12.070   3.995
39872SOL    HW121448   3.405  11.982   4.025
39872SOL    HW221449   3.360  12.118   4.075
39873SOL     OW21450  14.239   7.577   1.094
39873SOL    HW121451  14.146   7.588   1.078
39873SOL    HW221452  14.281   7.611   1.015
39874SOL     OW21453   9.616   8.708  13.872
39874SOL    HW121454   9.528   8.722  13.836
39874SOL    HW221455   9.655   8.795  13.875
39875SOL     OW21456   9.166   2.843   4.185
39875SOL    HW121457   9.193   2.917   4.240
39875SOL    HW221458   9.235   2.837   4.119
39876SOL     OW21459   6.014   4.595   7.560
39876SOL    HW121460   5.959   4.588   7.482
39876SOL    HW221461   6.082   4.657   7.536
39877SOL     OW21462   3.714   2.423  12.012
39877SOL    HW121463   3.742   2.495  12.070
39877SOL    HW221464   3.764   2.347  12.042
39878SOL     OW21465  12.998   9.540   5.645
39878SOL    HW121466  13.081   9.578   5.674
39878SOL    HW221467  13.021   9.492   5.565
39879SOL     OW21468  12.528   5.109  11.713
39879SOL    HW121469  12.486   5.156  11.640
39879SOL    HW221470  12.492   5.021  11.707
39880SOL     OW21471  12.199   3.145   2.459
39880SOL    HW121472  12.119   3.195   2.477
39880SOL    HW221473  12.225   3.173   2.371
39881SOL     OW21474   8.444   1.629   1.309
39881SOL    HW121475   8.512   1.578   1.352
39881SOL    HW221476   8.479   1.648   1.222
39882SOL     OW21477   4.413   3.021   8.128
39882SOL    HW121478   4.412   3.089   8.195
39882SOL    HW221479   4.421   2.939   8.177
39883SOL     OW21480   2.970   0.210   3.544
39883SOL    HW121481   2.882   0.238   3.520
39883SOL    HW221482   2.970   0.115   3.530
39884SOL     OW21483  12.588   4.850   4.147
39884SOL    HW121484  12.531   4.923   4.170
39884SOL    HW221485  12.571   4.835   4.054
39885SOL     OW21486   6.772   1.235   3.014
39885SOL    HW121487   6.852   1.201   2.973
39885SOL    HW221488   6.802   1.273   3.097
39886SOL     OW21489   3.059   8.463   6.708
39886SOL    HW121490   3.150   8.468   6.735
39886SOL    HW221491   3.024   8.551   6.726
39887SOL     OW21492  12.533  14.256   2.172
39887SOL    HW121493  12.538  14.233   2.264
39887SOL    HW221494  12.442  14.240   2.147
39888SOL     OW21495   2.929  12.836   5.658
39888SOL    HW121496   2.890  12.792   5.582
39888SOL    HW221497   2.863  12.899   5.686
39889SOL     OW21498  13.655   2.704   6.887
39889SOL    HW121499  13.620   2.778   6.838
39889SOL    HW221500  13.684   2.642   6.820
39890SOL     OW21501   0.532   1.714   7.391
39890SOL    HW121502   0.611   1.698   7.339
39890SOL    HW221503   0.509   1.627   7.425
39891SOL     OW21504   0.596  10.126  14.375
39891SOL    HW121505   0.540  10.192  14.417
39891SOL    HW221506   0.594  10.052  14.435
39892SOL     OW21507   4.058   6.641   2.766
39892SOL    HW121508   4.014   6.572   2.717
39892SOL    HW221509   3.988   6.700   2.794
39893SOL     OW21510   0.964   5.802   9.149
39893SOL    HW121511   1.048   5.840   9.124
39893SOL    HW221512   0.914   5.799   9.068
39894SOL     OW21513   1.891   5.617  10.481
39894SOL    HW121514   1.916   5.569  10.560
39894SOL    HW221515   1.878   5.549  10.415
39895SOL     OW21516   9.908   2.871   7.902
39895SOL    HW121517   9.966   2.808   7.945
39895SOL    HW221518   9.925   2.954   7.947
39896SOL     OW21519   8.942   6.139   8.711
39896SOL    HW121520   8.940   6.084   8.790
39896SOL    HW221521   8.884   6.212   8.731
39897SOL     OW21522   6.870   6.866   5.440
39897SOL    HW121523   6.880   6.836   5.350
39897SOL    HW221524   6.875   6.961   5.435
39898SOL     OW21525   4.009   6.724   1.945
39898SOL    HW121526   4.004   6.742   2.039
39898SOL    HW221527   3.984   6.807   1.904
39899SOL     OW21528   0.245   5.430   5.422
39899SOL    HW121529   0.202   5.392   5.497
39899SOL    HW221530   0.285   5.511   5.455
39900SOL     OW21531   9.965  11.158   8.944
39900SOL    HW121532   9.879  11.196   8.962
39900SOL    HW221533   9.980  11.176   8.851
39901SOL     OW21534   4.642   5.374  13.342
39901SOL    HW121535   4.597   5.300  13.301
39901SOL    HW221536   4.720   5.336  13.382
39902SOL     OW21537   7.538   7.222   9.380
39902SOL    HW121538   7.629   7.206   9.404
39902SOL    HW221539   7.524   7.315   9.402
39903SOL     OW21540   5.022  11.662   1.960
39903SOL    HW121541   5.091  11.727   1.973
39903SOL    HW221542   4.996  11.635   2.048
39904SOL     OW21543   9.880   1.774   7.902
39904SOL    HW121544   9.836   1.690   7.888
39904SOL    HW221545   9.811   1.832   7.934
39905SOL     OW21546   4.067   5.990   3.849
39905SOL    HW121547   4.092   6.041   3.925
39905SOL    HW221548   4.150   5.965   3.808
39906SOL     OW21549  11.747  10.807   2.845
39906SOL    HW121550  11.742  10.712   2.843
39906SOL    HW221551  11.683  10.834   2.910
39907SOL     OW21552   2.512  10.349   0.528
39907SOL    HW121553   2.469  10.355   0.614
39907SOL    HW221554   2.484  10.264   0.493
39908SOL     OW21555  14.053   0.271   6.938
39908SOL    HW121556  13.993   0.200   6.918
39908SOL    HW221557  13.996   0.346   6.955
39909SOL     OW21558  14.387   5.626   6.186
39909SOL    HW121559  14.326   5.620   6.260
39909SOL    HW221560  14.337   5.593   6.111
39910SOL     OW21561   9.671  12.620   0.721
39910SOL    HW121562   9.597  12.574   0.760
39910SOL    HW221563   9.633  12.694   0.676
39911SOL     OW21564   7.863  10.778   2.261
39911SOL    HW121565   7.929  10.730   2.311
39911SOL    HW221566   7.781  10.763   2.308
39912SOL     OW21567   8.778   7.310   1.321
39912SOL    HW121568   8.783   7.238   1.258
39912SOL    HW221569   8.862   7.354   1.312
39913SOL     OW21570   9.126   0.880  13.108
39913SOL    HW121571   9.066   0.887  13.182
39913SOL    HW221572   9.169   0.966  13.104
39914SOL     OW21573  12.924   4.562  11.269
39914SOL    HW121574  12.983   4.634  11.245
39914SOL    HW221575  12.970   4.515  11.338
39915SOL     OW21576   4.260   0.262   1.396
39915SOL    HW121577   4.353   0.284   1.404
39915SOL    HW221578   4.255   0.205   1.319
39916SOL     OW21579  10.108  12.005   9.730
39916SOL    HW121580  10.188  12.051   9.757
39916SOL    HW221581  10.069  11.975   9.812
39917SOL     OW21582  11.974   9.077  12.487
39917SOL    HW121583  11.912   9.149  12.477
39917SOL    HW221584  12.054   9.118  12.518
39918SOL     OW21585   7.924  11.136   7.212
39918SOL    HW121586   7.976  11.095   7.143
39918SOL    HW221587   7.903  11.064   7.272
39919SOL     OW21588   9.651   9.613  14.156
39919SOL    HW121589   9.568   9.578  14.122
39919SOL    HW221590   9.707   9.536  14.165
39920SOL     OW21591   3.178   1.601   5.181
39920SOL    HW121592   3.127   1.670   5.224
39920SOL    HW221593   3.268   1.633   5.184
39921SOL     OW21594   1.382   4.819   5.872
39921SOL    HW121595   1.448   4.756   5.900
39921SOL    HW221596   1.360   4.793   5.783
39922SOL     OW21597  10.671  10.326   8.199
39922SOL    HW121598  10.582  10.350   8.177
39922SOL    HW221599  10.715  10.409   8.217
39923SOL     OW21600  12.129   0.944  14.486
39923SOL    HW121601  12.187   0.871  14.464
39923SOL    HW221602  12.041   0.912  14.467
39924SOL     OW21603  14.516  10.927  13.164
39924SOL    HW121604  14.470  10.893  13.087
39924SOL    HW221605  14.476  11.013  13.179
39925SOL     OW21606   0.149   8.047   1.831
39925SOL    HW121607   0.238   8.022   1.859
39925SOL    HW221608   0.091   7.996   1.887
39926SOL     OW21609   9.092  13.738  14.462
39926SOL    HW121610   9.074  13.667  14.400
39926SOL    HW221611   9.153  13.795  14.416
39927SOL     OW21612   0.779  12.030   7.624
39927SOL    HW121613   0.742  12.118   7.630
39927SOL    HW221614   0.804  12.021   7.532
39928SOL     OW21615   6.323  14.858  11.370
39928SOL    HW121616   6.263   0.044  11.399
39928SOL    HW221617   6.391   0.023  11.321
39929SOL     OW21618   9.214   3.385   1.347
39929SOL    HW121619   9.162   3.309   1.370
39929SOL    HW221620   9.300   3.369   1.385
39930SOL     OW21621   2.347  12.899   4.672
39930SOL    HW121622   2.294  12.847   4.612
39930SOL    HW221623   2.383  12.969   4.617
39931SOL     OW21624   1.829   6.797   7.279
39931SOL    HW121625   1.921   6.819   7.292
39931SOL    HW221626   1.785   6.831   7.357
39932SOL     OW21627   8.263   6.056   3.991
39932SOL    HW121628   8.216   6.041   3.909
39932SOL    HW221629   8.353   6.031   3.973
39933SOL     OW21630   1.038  14.701   8.748
39933SOL    HW121631   0.981  14.738   8.814
39933SOL    HW221632   1.057  14.773   8.688
39934SOL     OW21633   1.573  13.831   1.877
39934SOL    HW121634   1.612  13.837   1.964
39934SOL    HW221635   1.554  13.738   1.866
39935SOL     OW21636   2.669  12.100   1.408
39935SOL    HW121637   2.759  12.118   1.382
39935SOL    HW221638   2.668  12.117   1.503
39936SOL     OW21639   6.399  13.865   2.222
39936SOL    HW121640   6.478  13.821   2.192
39936SOL    HW221641   6.336  13.794   2.236
39937SOL     OW21642   7.499   8.439  13.455
39937SOL    HW121643   7.414   8.405  13.426
39937SOL    HW221644   7.484   8.533  13.465
39938SOL     OW21645   1.756   3.706  14.437
39938SOL    HW121646   1.663   3.708  14.416
39938SOL    HW221647   1.792   3.638  14.380
39939SOL     OW21648   5.536   8.569   0.008
39939SOL    HW121649   5.489   8.653   0.007
39939SOL    HW221650   5.620   8.589  14.848
39940SOL     OW21651   3.567   4.174   0.807
39940SOL    HW121652   3.594   4.262   0.782
39940SOL    HW221653   3.483   4.186   0.851
39941SOL     OW21654  10.641   8.866   9.819
39941SOL    HW121655  10.610   8.956   9.808
39941SOL    HW221656  10.562   8.816   9.840
39942SOL     OW21657   9.388  14.513  12.650
39942SOL    HW121658   9.307  14.518  12.701
39942SOL    HW221659   9.456  14.495  12.714
39943SOL     OW21660   3.475   0.125  13.874
39943SOL    HW121661   3.496   0.140  13.782
39943SOL    HW221662   3.478   0.030  13.885
39944SOL     OW21663   8.894   5.755   9.114
39944SOL    HW121664   8.859   5.786   9.198
39944SOL    HW221665   8.957   5.687   9.139
39945SOL     OW21666   0.584  12.253  10.120
39945SOL    HW121667   0.573  12.276  10.213
39945SOL    HW221668   0.660  12.194  10.120
39946SOL     OW21669   3.167   7.538   1.722
39946SOL    HW121670   3.164   7.591   1.642
39946SOL    HW221671   3.223   7.587   1.781
39947SOL     OW21672   9.671   1.375   5.250
39947SOL    HW121673   9.728   1.379   5.173
39947SOL    HW221674   9.715   1.429   5.316
39948SOL     OW21675  11.672   9.538   5.196
39948SOL    HW121676  11.762   9.562   5.172
39948SOL    HW221677  11.682   9.466   5.259
39949SOL     OW21678  13.755   1.217  14.573
39949SOL    HW121679  13.666   1.249  14.585
39949SOL    HW221680  13.770   1.220  14.478
39950SOL     OW21681  12.687  14.249   5.179
39950SOL    HW121682  12.664  14.328   5.129
39950SOL    HW221683  12.658  14.177   5.123
39951SOL     OW21684  10.423  14.274  12.940
39951SOL    HW121685  10.415  14.314  13.027
39951SOL    HW221686  10.334  14.253  12.914
39952SOL     OW21687   2.909   5.951   8.269
39952SOL    HW121688   2.818   5.960   8.298
39952SOL    HW221689   2.912   5.992   8.183
39953SOL     OW21690  10.091  12.547   8.068
39953SOL    HW121691  10.093  12.642   8.057
39953SOL    HW221692   9.999  12.527   8.088
39954SOL     OW21693  12.289   8.491  13.690
39954SOL    HW121694  12.301   8.515  13.598
39954SOL    HW221695  12.299   8.396  13.692
39955SOL     OW21696   0.185  12.038   8.101
39955SOL    HW121697   0.207  12.087   8.022
39955SOL    HW221698   0.090  12.029   8.098
39956SOL     OW21699   2.876   0.897   8.428
39956SOL    HW121700   2.932   0.946   8.488
39956SOL    HW221701   2.866   0.811   8.468
39957SOL     OW21702   2.079   5.232   1.709
39957SOL    HW121703   2.091   5.316   1.751
39957SOL    HW221704   2.109   5.245   1.619
39958SOL     OW21705   9.450   4.774  13.116
39958SOL    HW121706   9.446   4.869  13.102
39958SOL    HW221707   9.361   4.751  13.143
39959SOL     OW21708   8.992  13.740   7.107
39959SOL    HW121709   8.990  13.654   7.065
39959SOL    HW221710   8.950  13.799   7.045
39960SOL     OW21711  12.795   9.074   4.459
39960SOL    HW121712  12.816   9.013   4.530
39960SOL    HW221713  12.869   9.135   4.459
39961SOL     OW21714  10.946   8.799  10.633
39961SOL    HW121715  10.988   8.775  10.716
39961SOL    HW221716  10.871   8.852  10.659
39962SOL     OW21717  13.416   0.431   8.812
39962SOL    HW121718  13.485   0.425   8.879
39962SOL    HW221719  13.337   0.401   8.857
39963SOL     OW21720   8.826   7.306  13.391
39963SOL    HW121721   8.884   7.276  13.460
39963SOL    HW221722   8.752   7.245  13.393
39964SOL     OW21723  11.519   4.688  12.576
39964SOL    HW121724  11.442   4.737  12.605
39964SOL    HW221725  11.529   4.712  12.484
39965SOL     OW21726   8.481   4.427  14.101
39965SOL    HW121727   8.407   4.366  14.107
39965SOL    HW221728   8.531   4.413  14.182
39966SOL     OW21729  11.997   7.731   2.306
39966SOL    HW121730  11.916   7.777   2.330
39966SOL    HW221731  12.067   7.781   2.347
39967SOL     OW21732   9.334  14.002   5.070
39967SOL    HW121733   9.321  14.094   5.094
39967SOL    HW221734   9.392  14.006   4.994
39968SOL     OW21735  11.472   1.282  10.717
39968SOL    HW121736  11.535   1.352  10.734
39968SOL    HW221737  11.491   1.254  10.628
39969SOL     OW21738   9.582   1.536   3.973
39969SOL    HW121739   9.522   1.515   4.045
39969SOL    HW221740   9.660   1.571   4.017
39970SOL     OW21741   4.045   2.596   3.643
39970SOL    HW121742   4.131   2.576   3.680
39970SOL    HW221743   4.051   2.689   3.619
39971SOL     OW21744  14.715   6.745   3.813
39971SOL    HW121745  14.791   6.692   3.838
39971SOL    HW221746  14.744   6.796   3.738
39972SOL     OW21747   8.752  14.645   1.579
39972SOL    HW121748   8.766  14.552   1.598
39972SOL    HW221749   8.832  14.688   1.608
39973SOL     OW21750   4.446  11.715   0.071
39973SOL    HW121751   4.538  11.739   0.067
39973SOL    HW221752   4.432  11.658  14.877
39974SOL     OW21753   9.775   2.390   4.226
39974SOL    HW121754   9.844   2.404   4.291
39974SOL    HW221755   9.784   2.464   4.166
39975SOL     OW21756   1.427   0.975   2.620
39975SOL    HW121757   1.455   0.901   2.674
39975SOL    HW221758   1.498   1.038   2.627
39976SOL     OW21759   5.164   2.067   3.275
39976SOL    HW121760   5.247   2.091   3.316
39976SOL    HW221761   5.097   2.096   3.337
39977SOL     OW21762   5.089   5.871  11.650
39977SOL    HW121763   5.165   5.930  11.657
39977SOL    HW221764   5.122   5.796  11.601
39978SOL     OW21765   6.195  14.058  14.599
39978SOL    HW121766   6.171  13.997  14.529
39978SOL    HW221767   6.200  14.143  14.556
39979SOL     OW21768  14.638  13.402  14.860
39979SOL    HW121769  14.674  13.315  14.873
39979SOL    HW221770  14.635  13.440   0.066
39980SOL     OW21771  11.173  13.230   2.545
39980SOL    HW121772  11.224  13.311   2.548
39980SOL    HW221773  11.121  13.238   2.466
39981SOL     OW21774   4.733  10.708  10.991
39981SOL    HW121775   4.656  10.741  11.037
39981SOL    HW221776   4.789  10.671  11.059
39982SOL     OW21777   9.950   7.115  10.059
39982SOL    HW121778   9.998   7.132   9.978
39982SOL    HW221779  10.016   7.082  10.120
39983SOL     OW21780  11.365  14.326  11.299
39983SOL    HW121781  11.303  14.279  11.245
39983SOL    HW221782  11.444  14.332  11.245
39984SOL     OW21783   1.487   3.480  14.830
39984SOL    HW121784   1.556   3.546  14.824
39984SOL    HW221785   1.419   3.521   0.002
39985SOL     OW21786   0.220  11.960   7.173
39985SOL    HW121787   0.176  11.969   7.258
39985SOL    HW221788   0.240  12.050   7.148
39986SOL     OW21789  10.544   9.916   0.837
39986SOL    HW121790  10.616   9.852   0.831
39986SOL    HW221791  10.501   9.910   0.751
39987SOL     OW21792  11.557   8.512   4.536
39987SOL    HW121793  11.462   8.520   4.536
39987SOL    HW221794  11.583   8.532   4.626
39988SOL     OW21795   0.740   8.493   4.621
39988SOL    HW121796   0.738   8.573   4.675
39988SOL    HW221797   0.659   8.497   4.570
39989SOL     OW21798   0.862   5.443   5.749
39989SOL    HW121799   0.831   5.381   5.815
39989SOL    HW221800   0.847   5.398   5.666
39990SOL     OW21801  11.697  12.334  14.311
39990SOL    HW121802  11.620  12.353  14.364
39990SOL    HW221803  11.770  12.364  14.365
39991SOL     OW21804   2.556  12.588  13.710
39991SOL    HW121805   2.626  12.652  13.701
39991SOL    HW221806   2.507  12.617  13.787
39992SOL     OW21807   8.439   3.697   6.371
39992SOL    HW121808   8.466   3.773   6.422
39992SOL    HW221809   8.426   3.628   6.435
39993SOL     OW21810   4.733   2.852  14.068
39993SOL    HW121811   4.751   2.925  14.009
39993SOL    HW221812   4.818   2.833  14.109
39994SOL     OW21813   0.991   5.279   0.445
39994SOL    HW121814   0.998   5.249   0.536
39994SOL    HW221815   0.959   5.203   0.397
39995SOL     OW21816   3.351   4.779   3.149
39995SOL    HW121817   3.316   4.696   3.118
39995SOL    HW221818   3.333   4.841   3.078
39996SOL     OW21819   4.539  14.015   5.519
39996SOL    HW121820   4.582  13.936   5.551
39996SOL    HW221821   4.570  14.025   5.429
39997SOL     OW21822   8.956  13.484   7.012
39997SOL    HW121823   8.964  13.400   7.058
39997SOL    HW221824   8.998  13.469   6.927
39998SOL     OW21825  10.945   5.999   6.048
39998SOL    HW121826  10.976   5.998   6.138
39998SOL    HW221827  10.850   5.994   6.055
39999SOL     OW21828  12.026   1.471   8.050
39999SOL    HW121829  11.963   1.542   8.045
39999SOL    HW221830  12.111   1.513   8.038
40000SOL     OW21831   0.333   1.565   0.026
40000SOL    HW121832   0.419   1.524   0.022
40000SOL    HW221833   0.337   1.621   0.104
40001SOL     OW21834  11.122   8.585   6.588
40001SOL    HW121835  11.169   8.662   6.558
40001SOL    HW221836  11.043   8.582   6.535
40002SOL     OW21837   9.825   0.779   5.741
40002SOL    HW121838   9.735   0.772   5.708
40002SOL    HW221839   9.833   0.709   5.805
40003SOL     OW21840   8.585   8.603   4.684
40003SOL    HW121841   8.502   8.641   4.656
40003SOL    HW221842   8.559   8.530   4.741
40004SOL     OW21843   8.716   8.960   9.218
40004SOL    HW121844   8.694   8.963   9.125
40004SOL    HW221845   8.632   8.946   9.262
40005SOL     OW21846  13.410   5.752   8.886
40005SOL    HW121847  13.495   5.715   8.906
40005SOL    HW221848  13.347   5.692   8.927
40006SOL     OW21849   6.891   6.396  13.614
40006SOL    HW121850   6.898   6.426  13.704
40006SOL    HW221851   6.803   6.360  13.606
40007SOL     OW21852   5.254  10.574   4.179
40007SOL    HW121853   5.309  10.569   4.257
40007SOL    HW221854   5.173  10.613   4.209
40008SOL     OW21855   5.306   8.006   3.620
40008SOL    HW121856   5.372   7.946   3.586
40008SOL    HW221857   5.343   8.039   3.702
40009SOL     OW21858   2.777  13.845  12.128
40009SOL    HW121859   2.756  13.884  12.213
40009SOL    HW221860   2.851  13.896  12.096
40010SOL     OW21861   8.731   6.194   0.633
40010SOL    HW121862   8.638   6.179   0.650
40010SOL    HW221863   8.733   6.241   0.549
40011SOL     OW21864   3.108   2.585  11.133
40011SOL    HW121865   3.016   2.612  11.129
40011SOL    HW221866   3.124   2.568  11.226
40012SOL     OW21867  14.585  13.927   1.695
40012SOL    HW121868  14.506  13.979   1.714
40012SOL    HW221869  14.578  13.907   1.602
40013SOL     OW21870   5.991   9.854   2.735
40013SOL    HW121871   5.992   9.775   2.790
40013SOL    HW221872   5.910   9.847   2.685
40014SOL     OW21873   5.998   9.377   1.975
40014SOL    HW121874   6.024   9.355   2.064
40014SOL    HW221875   5.989   9.292   1.931
40015SOL     OW21876   6.390  11.766   3.917
40015SOL    HW121877   6.311  11.725   3.953
40015SOL    HW221878   6.462  11.729   3.968
40016SOL     OW21879   3.158  14.298   7.816
40016SOL    HW121880   3.084  14.238   7.816
40016SOL    HW221881   3.206  14.278   7.736
40017SOL     OW21882   6.956   9.475   3.232
40017SOL    HW121883   7.045   9.483   3.199
40017SOL    HW221884   6.965   9.475   3.327
40018SOL     OW21885   5.569   9.038   9.431
40018SOL    HW121886   5.615   9.034   9.347
40018SOL    HW221887   5.487   8.992   9.416
40019SOL     OW21888   7.246   6.310  14.238
40019SOL    HW121889   7.305   6.369  14.191
40019SOL    HW221890   7.197   6.265  14.170
40020SOL     OW21891   2.261   6.555   9.532
40020SOL    HW121892   2.198   6.606   9.582
40020SOL    HW221893   2.346   6.590   9.559
40021SOL     OW21894  13.278   1.702  14.130
40021SOL    HW121895  13.351   1.688  14.190
40021SOL    HW221896  13.210   1.744  14.183
40022SOL     OW21897  13.922   6.891  11.948
40022SOL    HW121898  13.861   6.953  11.989
40022SOL    HW221899  13.908   6.809  11.994
40023SOL     OW21900   9.853   8.061   1.070
40023SOL    HW121901   9.890   7.985   1.025
40023SOL    HW221902   9.918   8.130   1.059
40024SOL     OW21903   8.095   3.561   5.371
40024SOL    HW121904   8.091   3.482   5.318
40024SOL    HW221905   8.174   3.606   5.341
40025SOL     OW21906   8.942   3.281   3.508
40025SOL    HW121907   8.999   3.357   3.497
40025SOL    HW221908   8.957   3.251   3.597
40026SOL     OW21909   9.795  11.108   1.324
40026SOL    HW121910   9.832  11.050   1.391
40026SOL    HW221911   9.723  11.057   1.287
40027SOL     OW21912   2.094   9.216  14.765
40027SOL    HW121913   2.055   9.298  14.734
40027SOL    HW221914   2.039   9.189  14.838
40028SOL     OW21915  12.275   0.647   8.990
40028SOL    HW121916  12.322   0.728   8.969
40028SOL    HW221917  12.291   0.634   9.083
40029SOL     OW21918   6.237   0.518   2.344
40029SOL    HW121919   6.201   0.606   2.334
40029SOL    HW221920   6.162   0.464   2.370
40030SOL     OW21921   9.090   5.031   5.635
40030SOL    HW121922   9.149   5.013   5.707
40030SOL    HW221923   9.061   5.121   5.649
40031SOL     OW21924   3.130  14.305   4.518
40031SOL    HW121925   3.073  14.261   4.455
40031SOL    HW221926   3.176  14.372   4.467
40032SOL     OW21927  10.955   1.903   4.683
40032SOL    HW121928  10.994   1.970   4.739
40032SOL    HW221929  11.009   1.825   4.697
40033SOL     OW21930   1.692  13.196   5.417
40033SOL    HW121931   1.740  13.279   5.410
40033SOL    HW221932   1.747  13.133   5.369
40034SOL     OW21933   5.965  10.358  11.317
40034SOL    HW121934   5.909  10.433  11.299
40034SOL    HW221935   6.054  10.390  11.300
40035SOL     OW21936  13.727  14.718   0.728
40035SOL    HW121937  13.818  14.686   0.730
40035SOL    HW221938  13.735  14.813   0.728
40036SOL     OW21939   2.806   8.709  10.391
40036SOL    HW121940   2.792   8.751  10.307
40036SOL    HW221941   2.846   8.625  10.370
40037SOL     OW21942   8.366   2.620   6.996
40037SOL    HW121943   8.350   2.621   6.902
40037SOL    HW221944   8.424   2.545   7.010
40038SOL     OW21945   5.506   3.425   6.259
40038SOL    HW121946   5.499   3.470   6.175
40038SOL    HW221947   5.450   3.348   6.250
40039SOL     OW21948   3.632   8.557   5.131
40039SOL    HW121949   3.680   8.475   5.144
40039SOL    HW221950   3.544   8.530   5.103
40040SOL     OW21951  10.363   4.913   9.344
40040SOL    HW121952  10.447   4.888   9.383
40040SOL    HW221953  10.382   4.925   9.251
40041SOL     OW21954   1.150   9.130   3.110
40041SOL    HW121955   1.083   9.189   3.146
40041SOL    HW221956   1.233   9.168   3.138
40042SOL     OW21957  10.339   4.065  10.757
40042SOL    HW121958  10.254   4.099  10.785
40042SOL    HW221959  10.334   3.971  10.774
40043SOL     OW21960  11.322  14.719   4.321
40043SOL    HW121961  11.349  14.784   4.386
40043SOL    HW221962  11.301  14.641   4.372
40044SOL     OW21963  11.079  11.770   4.811
40044SOL    HW121964  11.099  11.771   4.905
40044SOL    HW221965  10.984  11.778   4.807
40045SOL     OW21966   1.122   3.149  13.194
40045SOL    HW121967   1.045   3.164  13.138
40045SOL    HW221968   1.160   3.236  13.206
40046SOL     OW21969  11.755   9.445   3.535
40046SOL    HW121970  11.713   9.487   3.610
40046SOL    HW221971  11.817   9.510   3.502
40047SOL     OW21972   4.412  11.570   6.705
40047SOL    HW121973   4.454  11.652   6.679
40047SOL    HW221974   4.319  11.584   6.689
40048SOL     OW21975   6.529   2.942   9.680
40048SOL    HW121976   6.532   2.980   9.593
40048SOL    HW221977   6.509   3.015   9.738
40049SOL     OW21978   5.914   3.664   1.189
40049SOL    HW121979   5.994   3.613   1.177
40049SOL    HW221980   5.897   3.660   1.283
40050SOL     OW21981   2.786  11.275  10.699
40050SOL    HW121982   2.866  11.255  10.748
40050SOL    HW221983   2.816  11.299  10.612
40051SOL     OW21984   1.559  10.528   9.881
40051SOL    HW121985   1.625  10.571   9.826
40051SOL    HW221986   1.479  10.579   9.866
40052SOL     OW21987   1.133  10.489   7.824
40052SOL    HW121988   1.095  10.427   7.886
40052SOL    HW221989   1.225  10.494   7.849
40053SOL     OW21990   3.746   7.161   3.665
40053SOL    HW121991   3.721   7.069   3.652
40053SOL    HW221992   3.728   7.177   3.757
40054SOL     OW21993   9.132   1.197   6.701
40054SOL    HW121994   9.152   1.268   6.762
40054SOL    HW221995   9.038   1.207   6.683
40055SOL     OW21996  14.777  12.059  13.362
40055SOL    HW121997  14.754  12.140  13.316
40055SOL    HW221998  14.714  11.995  13.330
40056SOL     OW21999   5.263  12.231  13.920
40056SOL    HW122000   5.273  12.218  13.826
40056SOL    HW222001   5.267  12.326  13.932
40057SOL     OW22002  13.865   7.057   0.997
40057SOL    HW122003  13.917   7.130   1.031
40057SOL    HW222004  13.863   6.993   1.069
40058SOL     OW22005  13.667   4.907   5.640
40058SOL    HW122006  13.716   4.910   5.557
40058SOL    HW222007  13.645   4.815   5.651
40059SOL     OW22008   2.460  12.603   0.823
40059SOL    HW122009   2.454  12.627   0.730
40059SOL    HW222010   2.434  12.681   0.870
40060SOL     OW22011   1.383  10.029  12.894
40060SOL    HW122012   1.377  10.039  12.799
40060SOL    HW222013   1.395   9.935  12.907
40061SOL     OW22014   1.678  14.070   4.576
40061SOL    HW122015   1.652  14.074   4.484
40061SOL    HW222016   1.773  14.073   4.574
40062SOL     OW22017   0.175  10.793   0.620
40062SOL    HW122018   0.195  10.720   0.677
40062SOL    HW222019   0.224  10.775   0.539
40063SOL     OW22020   6.691   2.179  12.937
40063SOL    HW122021   6.662   2.194  13.027
40063SOL    HW222022   6.772   2.229  12.929
40064SOL     OW22023  11.838  13.302  14.373
40064SOL    HW122024  11.888  13.372  14.330
40064SOL    HW222025  11.845  13.228  14.313
40065SOL     OW22026   6.553   7.691   3.055
40065SOL    HW122027   6.565   7.626   2.986
40065SOL    HW222028   6.466   7.673   3.090
40066SOL     OW22029   5.362   3.490   4.858
40066SOL    HW122030   5.431   3.474   4.793
40066SOL    HW222031   5.353   3.586   4.860
40067SOL     OW22032   8.390   8.026  14.625
40067SOL    HW122033   8.396   8.028  14.530
40067SOL    HW222034   8.296   8.015  14.643
40068SOL     OW22035  12.934   6.056   1.844
40068SOL    HW122036  12.940   6.050   1.749
40068SOL    HW222037  13.025   6.067   1.873
40069SOL     OW22038   5.065  12.263   0.361
40069SOL    HW122039   5.037  12.210   0.436
40069SOL    HW222040   5.006  12.338   0.361
40070SOL     OW22041   1.012   8.899   2.222
40070SOL    HW122042   1.049   8.811   2.218
40070SOL    HW222043   0.917   8.886   2.222
40071SOL     OW22044   4.893  11.908  11.650
40071SOL    HW122045   4.851  11.970  11.590
40071SOL    HW222046   4.962  11.960  11.693
40072SOL     OW22047   9.382   4.419   9.990
40072SOL    HW122048   9.411   4.508  10.007
40072SOL    HW222049   9.312   4.403  10.053
40073SOL     OW22050   1.398   0.837  11.975
40073SOL    HW122051   1.468   0.901  11.964
40073SOL    HW222052   1.421   0.766  11.916
40074SOL     OW22053   3.238   7.094   6.911
40074SOL    HW122054   3.298   7.030   6.871
40074SOL    HW222055   3.285   7.125   6.988
40075SOL     OW22056   0.655   5.181   4.717
40075SOL    HW122057   0.594   5.232   4.771
40075SOL    HW222058   0.658   5.227   4.634
40076SOL     OW22059   0.829   5.537   1.400
40076SOL    HW122060   0.752   5.526   1.455
40076SOL    HW222061   0.878   5.608   1.441
40077SOL     OW22062  10.157   4.253  10.802
40077SOL    HW122063  10.074   4.244  10.756
40077SOL    HW222064  10.133   4.280  10.890
40078SOL     OW22065   0.492   3.409   6.581
40078SOL    HW122066   0.433   3.463   6.634
40078SOL    HW222067   0.566   3.467   6.561
40079SOL     OW22068   5.286  10.033   8.438
40079SOL    HW122069   5.284  10.073   8.351
40079SOL    HW222070   5.227  10.088   8.491
40080SOL     OW22071   4.592  11.079   8.833
40080SOL    HW122072   4.611  11.116   8.746
40080SOL    HW222073   4.519  11.019   8.818
40081SOL     OW22074  12.244  12.970   7.716
40081SOL    HW122075  12.180  12.997   7.650
40081SOL    HW222076  12.273  13.052   7.756
40082SOL     OW22077   5.132   5.498   8.090
40082SOL    HW122078   5.158   5.409   8.115
40082SOL    HW222079   5.116   5.544   8.172
40083SOL     OW22080   4.483  12.685   0.987
40083SOL    HW122081   4.413  12.619   0.991
40083SOL    HW222082   4.438  12.768   0.999
40084SOL     OW22083   6.244  10.516  13.294
40084SOL    HW122084   6.153  10.545  13.284
40084SOL    HW222085   6.240  10.422  13.280
40085SOL     OW22086   9.962   6.421   0.150
40085SOL    HW122087   9.976   6.370   0.230
40085SOL    HW222088   9.867   6.436   0.148
40086SOL     OW22089  10.481   1.219  11.205
40086SOL    HW122090  10.399   1.267  11.195
40086SOL    HW222091  10.526   1.232  11.122
40087SOL     OW22092  10.613   7.915   2.894
40087SOL    HW122093  10.562   7.970   2.953
40087SOL    HW222094  10.704   7.930   2.919
40088SOL     OW22095  11.736  14.084  10.580
40088SOL    HW122096  11.764  13.994  10.597
40088SOL    HW222097  11.765  14.133  10.657
40089SOL     OW22098   1.193   8.827   4.489
40089SOL    HW122099   1.224   8.795   4.574
40089SOL    HW222100   1.249   8.782   4.425
40090SOL     OW22101  11.207   0.053   1.665
40090SOL    HW122102  11.162   0.001   1.598
40090SOL    HW222103  11.235  14.871   1.730
40091SOL     OW22104   1.639   2.033   6.723
40091SOL    HW122105   1.659   2.013   6.815
40091SOL    HW222106   1.594   2.117   6.725
40092SOL     OW22107   9.656  12.814   5.942
40092SOL    HW122108   9.656  12.863   6.024
40092SOL    HW222109   9.735  12.843   5.897
40093SOL     OW22110  11.758   6.352   9.548
40093SOL    HW122111  11.832   6.297   9.570
40093SOL    HW222112  11.682   6.293   9.550
40094SOL     OW22113   9.853   5.018   0.019
40094SOL    HW122114   9.920   4.959  14.869
40094SOL    HW222115   9.879   5.104  14.869
40095SOL     OW22116   3.386  11.724   6.221
40095SOL    HW122117   3.393  11.629   6.233
40095SOL    HW222118   3.396  11.760   6.309
40096SOL     OW22119   3.933  14.253   4.221
40096SOL    HW122120   4.002  14.237   4.285
40096SOL    HW222121   3.879  14.174   4.224
40097SOL     OW22122  14.260   4.791  13.825
40097SOL    HW122123  14.227   4.709  13.791
40097SOL    HW222124  14.329   4.765  13.887
40098SOL     OW22125  13.166   8.351  14.199
40098SOL    HW122126  13.233   8.289  14.172
40098SOL    HW222127  13.194   8.381  14.285
40099SOL     OW22128   9.021  14.092   4.502
40099SOL    HW122129   9.075  14.161   4.540
40099SOL    HW222130   8.960  14.068   4.572
40100SOL     OW22131   8.874  13.941   6.548
40100SOL    HW122132   8.796  13.921   6.496
40100SOL    HW222133   8.846  14.011   6.607
40101SOL     OW22134  11.372   1.947   9.553
40101SOL    HW122135  11.418   1.965   9.471
40101SOL    HW222136  11.293   2.001   9.548
40102SOL     OW22137  10.142   2.100   3.721
40102SOL    HW122138  10.124   2.098   3.815
40102SOL    HW222139  10.106   2.017   3.689
40103SOL     OW22140   8.537  10.001   8.097
40103SOL    HW122141   8.523   9.922   8.148
40103SOL    HW222142   8.572  10.064   8.160
40104SOL     OW22143   5.535   0.975  12.708
40104SOL    HW122144   5.584   1.043  12.662
40104SOL    HW222145   5.595   0.900  12.711
40105SOL     OW22146  13.674  13.417   9.955
40105SOL    HW122147  13.753  13.383   9.996
40105SOL    HW222148  13.604  13.398  10.017
40106SOL     OW22149   6.428   6.578   7.028
40106SOL    HW122150   6.448   6.671   7.017
40106SOL    HW222151   6.397   6.570   7.119
40107SOL     OW22152   2.866   5.512  13.602
40107SOL    HW122153   2.942   5.476  13.647
40107SOL    HW222154   2.834   5.441  13.548
40108SOL     OW22155  14.816   4.908   0.114
40108SOL    HW122156  14.826   5.002   0.098
40108SOL    HW222157   0.002   4.887   0.178
40109SOL     OW22158   8.913   6.400   3.371
40109SOL    HW122159   8.923   6.433   3.460
40109SOL    HW222160   8.826   6.359   3.370
40110SOL     OW22161  10.663  11.453   7.806
40110SOL    HW122162  10.598  11.458   7.735
40110SOL    HW222163  10.732  11.513   7.778
40111SOL     OW22164   5.156   1.805   3.200
40111SOL    HW122165   5.149   1.899   3.217
40111SOL    HW222166   5.101   1.764   3.267
40112SOL     OW22167   6.548   4.239   2.080
40112SOL    HW122168   6.549   4.313   2.019
40112SOL    HW222169   6.633   4.242   2.122
40113SOL     OW22170   7.929   7.001   4.036
40113SOL    HW122171   7.949   7.023   4.127
40113SOL    HW222172   7.986   7.058   3.984
40114SOL     OW22173   9.634  14.484   4.787
40114SOL    HW122174   9.651  14.430   4.710
40114SOL    HW222175   9.707  14.546   4.789
40115SOL     OW22176   0.158  13.937  13.892
40115SOL    HW122177   0.199  13.904  13.971
40115SOL    HW222178   0.172  13.869  13.826
40116SOL     OW22179   3.785  10.370   4.511
40116SOL    HW122180   3.862  10.370   4.454
40116SOL    HW222181   3.719  10.421   4.462
40117SOL     OW22182   8.259   0.661   5.305
40117SOL    HW122183   8.311   0.650   5.385
40117SOL    HW222184   8.196   0.589   5.309
40118SOL     OW22185  10.754  13.425  10.415
40118SOL    HW122186  10.721  13.500  10.365
40118SOL    HW222187  10.713  13.434  10.501
40119SOL     OW22188   3.728   9.106   8.319
40119SOL    HW122189   3.788   9.038   8.350
40119SOL    HW222190   3.757   9.125   8.230
40120SOL     OW22191   2.107   0.358  12.883
40120SOL    HW122192   2.013   0.376  12.885
40120SOL    HW222193   2.130   0.359  12.790
40121SOL     OW22194  11.713   7.168   6.971
40121SOL    HW122195  11.646   7.099   6.965
40121SOL    HW222196  11.677   7.241   6.921
40122SOL     OW22197  12.408  14.818   8.966
40122SOL    HW122198  12.324  14.808   9.011
40122SOL    HW222199  12.405   0.025   8.929
40123SOL     OW22200   5.463   9.508   1.816
40123SOL    HW122201   5.544   9.463   1.841
40123SOL    HW222202   5.439   9.468   1.732
40124SOL     OW22203   1.896  14.179   9.599
40124SOL    HW122204   1.834  14.206   9.666
40124SOL    HW222205   1.963  14.129   9.647
40125SOL     OW22206   1.609   9.646   5.375
40125SOL    HW122207   1.654   9.561   5.382
40125SOL    HW222208   1.652   9.689   5.301
40126SOL     OW22209  11.919   1.089  12.030
40126SOL    HW122210  11.991   1.074  11.967
40126SOL    HW222211  11.845   1.042  11.992
40127SOL     OW22212   8.851   0.579   0.645
40127SOL    HW122213   8.780   0.520   0.666
40127SOL    HW222214   8.845   0.649   0.710
40128SOL     OW22215   7.415  14.538  13.875
40128SOL    HW122216   7.422  14.544  13.780
40128SOL    HW222217   7.323  14.559  13.894
40129SOL     OW22218  12.699  10.963  13.048
40129SOL    HW122219  12.604  10.963  13.044
40129SOL    HW222220  12.722  11.053  13.072
40130SOL     OW22221   6.733  12.488   3.098
40130SOL    HW122222   6.817  12.446   3.076
40130SOL    HW222223   6.758  12.578   3.121
40131SOL     OW22224   0.776   4.589   8.334
40131SOL    HW122225   0.855   4.553   8.293
40131SOL    HW222226   0.802   4.606   8.424
40132SOL     OW22227  10.608   7.705   9.535
40132SOL    HW122228  10.592   7.668   9.622
40132SOL    HW222229  10.666   7.780   9.551
40133SOL     OW22230  13.283  14.310  13.428
40133SOL    HW122231  13.365  14.318  13.379
40133SOL    HW222232  13.228  14.255  13.373
40134SOL     OW22233  14.873   6.617   9.664
40134SOL    HW122234   0.043   6.581   9.593
40134SOL    HW222235   0.036   6.698   9.689
40135SOL     OW22236   2.414  12.261  11.288
40135SOL    HW122237   2.334  12.306  11.312
40135SOL    HW222238   2.425  12.193  11.354
40136SOL     OW22239   1.665   9.053   1.566
40136SOL    HW122240   1.750   9.018   1.540
40136SOL    HW222241   1.609   8.977   1.577
40137SOL     OW22242   6.436   6.457   9.682
40137SOL    HW122243   6.360   6.499   9.642
40137SOL    HW222244   6.490   6.430   9.608
40138SOL     OW22245   9.064  10.391  13.625
40138SOL    HW122246   9.117  10.332  13.572
40138SOL    HW222247   9.128  10.446  13.671
40139SOL     OW22248  13.742   4.855   6.078
40139SOL    HW122249  13.780   4.809   6.153
40139SOL    HW222250  13.698   4.786   6.027
40140SOL     OW22251   2.544   5.514   7.261
40140SOL    HW122252   2.595   5.504   7.181
40140SOL    HW222253   2.508   5.603   7.256
40141SOL     OW22254   7.643  12.266   3.907
40141SOL    HW122255   7.592  12.241   3.830
40141SOL    HW222256   7.726  12.219   3.898
40142SOL     OW22257  14.285  13.371  12.107
40142SOL    HW122258  14.224  13.381  12.181
40142SOL    HW222259  14.298  13.276  12.101
40143SOL     OW22260   3.832  10.595   9.409
40143SOL    HW122261   3.867  10.571   9.323
40143SOL    HW222262   3.878  10.675   9.433
40144SOL     OW22263  14.862  14.565   1.708
40144SOL    HW122264  14.850  14.521   1.624
40144SOL    HW222265  14.813  14.646   1.700
40145SOL     OW22266   5.546   6.384   5.500
40145SOL    HW122267   5.546   6.441   5.577
40145SOL    HW222268   5.456   6.385   5.469
40146SOL     OW22269  14.045   3.881   6.570
40146SOL    HW122270  14.090   3.824   6.507
40146SOL    HW222271  14.093   3.964   6.565
40147SOL     OW22272   8.240   0.691   4.770
40147SOL    HW122273   8.247   0.772   4.821
40147SOL    HW222274   8.156   0.697   4.726
40148SOL     OW22275   5.661   6.260   8.064
40148SOL    HW122276   5.642   6.338   8.013
40148SOL    HW222277   5.603   6.192   8.027
40149SOL     OW22278   2.724  13.666   3.246
40149SOL    HW122279   2.640  13.705   3.268
40149SOL    HW222280   2.702  13.577   3.217
40150SOL     OW22281   9.083   5.331  12.690
40150SOL    HW122282   9.093   5.263  12.623
40150SOL    HW222283   9.036   5.401  12.646
40151SOL     OW22284   5.542   9.570   4.676
40151SOL    HW122285   5.555   9.558   4.770
40151SOL    HW222286   5.631   9.571   4.640
40152SOL     OW22287   1.571   5.035   7.148
40152SOL    HW122288   1.544   5.116   7.191
40152SOL    HW222289   1.601   5.061   7.062
40153SOL     OW22290   6.940   3.560   2.048
40153SOL    HW122291   7.023   3.528   2.084
40153SOL    HW222292   6.958   3.651   2.025
40154SOL     OW22293  13.386  12.268   3.834
40154SOL    HW122294  13.416  12.318   3.758
40154SOL    HW222295  13.453  12.284   3.901
40155SOL     OW22296  13.854   6.963  13.360
40155SOL    HW122297  13.789   6.925  13.419
40155SOL    HW222298  13.843   7.057  13.369
40156SOL     OW22299   9.757   9.302   5.611
40156SOL    HW122300   9.681   9.342   5.653
40156SOL    HW222301   9.728   9.214   5.588
40157SOL     OW22302   7.546   0.870   6.324
40157SOL    HW122303   7.571   0.906   6.239
40157SOL    HW222304   7.582   0.932   6.388
40158SOL     OW22305   1.310  13.298   4.065
40158SOL    HW122306   1.224  13.259   4.046
40158SOL    HW222307   1.371  13.246   4.012
40159SOL     OW22308   1.652   0.317  11.350
40159SOL    HW122309   1.645   0.410  11.372
40159SOL    HW222310   1.563   0.283  11.364
40160SOL     OW22311  11.824   3.201  10.928
40160SOL    HW122312  11.886   3.254  10.878
40160SOL    HW222313  11.811   3.123  10.873
40161SOL     OW22314   0.835   4.441   9.601
40161SOL    HW122315   0.837   4.496   9.679
40161SOL    HW222316   0.924   4.405   9.596
40162SOL     OW22317   0.144   2.253  10.025
40162SOL    HW122318   0.200   2.325   9.995
40162SOL    HW222319   0.205   2.182  10.045
40163SOL     OW22320   1.375   5.477  10.850
40163SOL    HW122321   1.383   5.483  10.755
40163SOL    HW222322   1.348   5.565  10.877
40164SOL     OW22323   1.316   8.802  13.587
40164SOL    HW122324   1.228   8.805  13.626
40164SOL    HW222325   1.327   8.888  13.548
40165SOL     OW22326  14.241   6.557   8.249
40165SOL    HW122327  14.207   6.576   8.337
40165SOL    HW222328  14.163   6.529   8.200
40166SOL     OW22329   6.678   7.627   6.089
40166SOL    HW122330   6.760   7.577   6.078
40166SOL    HW222331   6.706   7.718   6.098
40167SOL     OW22332  10.215  12.176   1.980
40167SOL    HW122333  10.257  12.251   1.938
40167SOL    HW222334  10.252  12.173   2.068
40168SOL     OW22335   8.114  10.333   0.037
40168SOL    HW122336   8.147  10.322  14.829
40168SOL    HW222337   8.020  10.315   0.030
40169SOL     OW22338   1.660   6.026  10.895
40169SOL    HW122339   1.690   6.080  10.821
40169SOL    HW222340   1.664   5.936  10.862
40170SOL     OW22341  14.789   3.259   1.996
40170SOL    HW122342  14.759   3.236   2.084
40170SOL    HW222343  14.709   3.284   1.950
40171SOL     OW22344   9.699  11.710  13.304
40171SOL    HW122345   9.616  11.708  13.257
40171SOL    HW222346   9.685  11.655  13.381
40172SOL     OW22347   5.556   7.487  14.119
40172SOL    HW122348   5.533   7.579  14.103
40172SOL    HW222349   5.595   7.457  14.037
40173SOL     OW22350   0.694   0.732  14.355
40173SOL    HW122351   0.684   0.649  14.309
40173SOL    HW222352   0.728   0.708  14.442
40174SOL     OW22353   7.451   4.252  11.208
40174SOL    HW122354   7.369   4.296  11.230
40174SOL    HW222355   7.429   4.159  11.206
40175SOL     OW22356   0.963   1.140  14.326
40175SOL    HW122357   0.903   1.079  14.285
40175SOL    HW222358   0.909   1.216  14.347
40176SOL     OW22359   5.823  14.832  11.532
40176SOL    HW122360   5.740  14.851  11.490
40176SOL    HW222361   5.831   0.015  11.602
40177SOL     OW22362  10.525  11.481   9.322
40177SOL    HW122363  10.487  11.557   9.277
40177SOL    HW222364  10.543  11.419   9.251
40178SOL     OW22365   8.906   0.012  14.167
40178SOL    HW122366   8.885   0.088  14.112
40178SOL    HW222367   8.879  14.818  14.115
40179SOL     OW22368   3.053   5.528   5.577
40179SOL    HW122369   3.065   5.604   5.520
40179SOL    HW222370   3.100   5.457   5.534
40180SOL     OW22371   1.874  13.108   4.179
40180SOL    HW122372   1.908  13.158   4.253
40180SOL    HW222373   1.826  13.173   4.127
40181SOL     OW22374   0.327   9.828  14.009
40181SOL    HW122375   0.372   9.831  13.924
40181SOL    HW222376   0.301   9.918  14.026
40182SOL     OW22377   2.130  10.487  11.098
40182SOL    HW122378   2.125  10.536  11.016
40182SOL    HW222379   2.218  10.503  11.131
40183SOL     OW22380   7.101   3.175   9.843
40183SOL    HW122381   7.011   3.205   9.857
40183SOL    HW222382   7.118   3.191   9.750
40184SOL     OW22383   8.155   6.167  12.461
40184SOL    HW122384   8.066   6.170  12.425
40184SOL    HW222385   8.198   6.242  12.421
40185SOL     OW22386   2.550   9.212  13.747
40185SOL    HW122387   2.623   9.191  13.688
40185SOL    HW222388   2.559   9.306  13.764
40186SOL     OW22389   8.975   1.102   9.453
40186SOL    HW122390   8.910   1.035   9.473
40186SOL    HW222391   9.059   1.056   9.455
40187SOL     OW22392   5.375   2.258   9.412
40187SOL    HW122393   5.456   2.208   9.426
40187SOL    HW222394   5.370   2.315   9.489
40188SOL     OW22395  13.603   3.598   7.045
40188SOL    HW122396  13.530   3.656   7.067
40188SOL    HW222397  13.680   3.655   7.046
40189SOL     OW22398   9.154   2.872   8.752
40189SOL    HW122399   9.062   2.845   8.745
40189SOL    HW222400   9.199   2.821   8.685
40190SOL     OW22401   4.730   8.444   0.795
40190SOL    HW122402   4.811   8.493   0.787
40190SOL    HW222403   4.757   8.353   0.804
40191SOL     OW22404  13.714  11.395   0.616
40191SOL    HW122405  13.744  11.312   0.653
40191SOL    HW222406  13.625  11.377   0.586
40192SOL     OW22407   0.077  14.060  10.643
40192SOL    HW122408   0.139  14.058  10.571
40192SOL    HW222409   0.056  13.968  10.660
40193SOL     OW22410   9.380   7.588   9.109
40193SOL    HW122411   9.456   7.555   9.061
40193SOL    HW222412   9.414   7.659   9.163
40194SOL     OW22413   3.739  14.221   3.352
40194SOL    HW122414   3.710  14.204   3.262
40194SOL    HW222415   3.736  14.135   3.395
40195SOL     OW22416  10.053   1.476  14.734
40195SOL    HW122417  10.022   1.398  14.687
40195SOL    HW222418  10.023   1.549  14.680
40196SOL     OW22419   0.353   4.912  12.439
40196SOL    HW122420   0.413   4.849  12.480
40196SOL    HW222421   0.408   4.962  12.379
40197SOL     OW22422   1.357   2.346  14.239
40197SOL    HW122423   1.429   2.405  14.260
40197SOL    HW222424   1.343   2.296  14.320
40198SOL     OW22425  10.614  14.258   1.209
40198SOL    HW122426  10.658  14.193   1.156
40198SOL    HW222427  10.657  14.341   1.187
40199SOL     OW22428   2.545   4.725   3.528
40199SOL    HW122429   2.515   4.637   3.505
40199SOL    HW222430   2.569   4.765   3.444
40200SOL     OW22431   6.518   2.022   2.068
40200SOL    HW122432   6.486   1.994   1.982
40200SOL    HW222433   6.515   2.117   2.065
40201SOL     OW22434   7.138   1.288   2.179
40201SOL    HW122435   7.183   1.340   2.245
40201SOL    HW222436   7.197   1.289   2.103
40202SOL     OW22437   1.677   0.571   9.764
40202SOL    HW122438   1.651   0.479   9.760
40202SOL    HW222439   1.604   0.618   9.724
40203SOL     OW22440  14.197  14.853   1.317
40203SOL    HW122441  14.223  14.865   1.408
40203SOL    HW222442  14.189  14.758   1.306
40204SOL     OW22443   4.966   4.688   6.543
40204SOL    HW122444   4.890   4.642   6.578
40204SOL    HW222445   4.952   4.780   6.568
40205SOL     OW22446  14.160  13.897   5.193
40205SOL    HW122447  14.225  13.883   5.124
40205SOL    HW222448  14.089  13.837   5.171
40206SOL     OW22449   8.656   7.339   2.346
40206SOL    HW122450   8.575   7.384   2.371
40206SOL    HW222451   8.695   7.311   2.429
40207SOL     OW22452   9.116  14.134   3.648
40207SOL    HW122453   9.106  14.225   3.674
40207SOL    HW222454   9.178  14.137   3.575
40208SOL     OW22455   1.050  11.179   2.788
40208SOL    HW122456   1.077  11.236   2.715
40208SOL    HW222457   0.970  11.137   2.757
40209SOL     OW22458  11.938  12.441   4.959
40209SOL    HW122459  11.880  12.380   4.912
40209SOL    HW222460  11.988  12.484   4.890
40210SOL     OW22461   8.892   4.562  14.618
40210SOL    HW122462   8.884   4.513  14.536
40210SOL    HW222463   8.984   4.589  14.620
40211SOL     OW22464   2.448  10.866  11.551
40211SOL    HW122465   2.375  10.820  11.510
40211SOL    HW222466   2.515  10.871  11.483
40212SOL     OW22467   9.562  14.689   3.764
40212SOL    HW122468   9.584  14.616   3.707
40212SOL    HW222469   9.640  14.745   3.762
40213SOL     OW22470   9.001   3.629   1.635
40213SOL    HW122471   8.939   3.571   1.680
40213SOL    HW222472   8.987   3.610   1.542
40214SOL     OW22473  13.063  11.769   1.131
40214SOL    HW122474  13.127  11.757   1.061
40214SOL    HW222475  12.983  11.798   1.086
40215SOL     OW22476   7.803   5.318   3.480
40215SOL    HW122477   7.842   5.240   3.441
40215SOL    HW222478   7.736   5.345   3.417
40216SOL     OW22479   6.673  11.333   5.569
40216SOL    HW122480   6.673  11.238   5.583
40216SOL    HW222481   6.602  11.366   5.624
40217SOL     OW22482   4.938   8.261  13.833
40217SOL    HW122483   5.029   8.238  13.815
40217SOL    HW222484   4.942   8.347  13.876
40218SOL     OW22485   0.293   4.877  10.820
40218SOL    HW122486   0.212   4.926  10.800
40218SOL    HW222487   0.343   4.881  10.739
40219SOL     OW22488  10.041   5.149   7.962
40219SOL    HW122489  10.053   5.192   8.047
40219SOL    HW222490   9.985   5.074   7.981
40220SOL     OW22491   4.454   2.430   8.708
40220SOL    HW122492   4.546   2.452   8.691
40220SOL    HW222493   4.407   2.512   8.693
40221SOL     OW22494  12.859  12.904  11.780
40221SOL    HW122495  12.886  12.850  11.854
40221SOL    HW222496  12.799  12.848  11.730
40222SOL     OW22497   0.202   5.747  13.632
40222SOL    HW122498   0.259   5.744  13.555
40222SOL    HW222499   0.126   5.798  13.603
40223SOL     OW22500  13.427  10.748   5.677
40223SOL    HW122501  13.398  10.664   5.641
40223SOL    HW222502  13.361  10.811   5.650
40224SOL     OW22503   9.582   8.426   9.188
40224SOL    HW122504   9.550   8.423   9.278
40224SOL    HW222505   9.508   8.393   9.136
40225SOL     OW22506   4.427   6.191  11.655
40225SOL    HW122507   4.460   6.272  11.615
40225SOL    HW222508   4.359   6.221  11.715
40226SOL     OW22509   8.323   9.136  14.690
40226SOL    HW122510   8.284   9.089  14.617
40226SOL    HW222511   8.418   9.126  14.678
40227SOL     OW22512   2.443   3.938   2.903
40227SOL    HW122513   2.398   4.012   2.862
40227SOL    HW222514   2.459   3.877   2.831
40228SOL     OW22515  13.005  11.165   4.647
40228SOL    HW122516  13.019  11.202   4.735
40228SOL    HW222517  13.089  11.125   4.624
40229SOL     OW22518  11.037   4.593   4.350
40229SOL    HW122519  11.018   4.620   4.260
40229SOL    HW222520  10.992   4.658   4.405
40230SOL     OW22521   9.154   2.257  13.892
40230SOL    HW122522   9.089   2.326  13.885
40230SOL    HW222523   9.235   2.298  13.860
40231SOL     OW22524  13.446   2.558  14.831
40231SOL    HW122525  13.412   2.474  14.859
40231SOL    HW222526  13.437   2.557  14.735
40232SOL     OW22527   8.301  11.437   0.257
40232SOL    HW122528   8.249  11.360   0.232
40232SOL    HW222529   8.317  11.483   0.175
40233SOL     OW22530  14.550  11.012   4.389
40233SOL    HW122531  14.493  10.993   4.314
40233SOL    HW222532  14.555  10.929   4.437
40234SOL     OW22533   3.660  14.301   6.832
40234SOL    HW122534   3.655  14.260   6.918
40234SOL    HW222535   3.626  14.389   6.845
40235SOL     OW22536   3.391   5.392   7.981
40235SOL    HW122537   3.412   5.301   8.002
40235SOL    HW222538   3.363   5.429   8.065
40236SOL     OW22539   9.773  10.492  14.811
40236SOL    HW122540   9.678  10.496  14.803
40236SOL    HW222541   9.795  10.560  14.874
40237SOL     OW22542  10.165   5.137   7.287
40237SOL    HW122543  10.244   5.083   7.278
40237SOL    HW222544  10.107   5.084   7.342
40238SOL     OW22545   8.445   1.830   7.834
40238SOL    HW122546   8.433   1.821   7.928
40238SOL    HW222547   8.525   1.782   7.815
40239SOL     OW22548   9.042  13.458  10.789
40239SOL    HW122549   8.979  13.521  10.754
40239SOL    HW222550   9.014  13.374  10.753
40240SOL     OW22551  12.428   8.035   5.224
40240SOL    HW122552  12.363   7.987   5.172
40240SOL    HW222553  12.423   8.125   5.192
40241SOL     OW22554   7.573   0.797  12.312
40241SOL    HW122555   7.658   0.812  12.269
40241SOL    HW222556   7.546   0.711  12.281
40242SOL     OW22557   5.335   4.679   9.953
40242SOL    HW122558   5.335   4.724   9.868
40242SOL    HW222559   5.283   4.600   9.938
40243SOL     OW22560   5.046  14.674   0.635
40243SOL    HW122561   5.073  14.583   0.625
40243SOL    HW222562   5.001  14.696   0.553
40244SOL     OW22563   8.158   2.379  14.311
40244SOL    HW122564   8.100   2.330  14.252
40244SOL    HW222565   8.148   2.336  14.396
40245SOL     OW22566   0.507  12.101  13.405
40245SOL    HW122567   0.569  12.143  13.465
40245SOL    HW222568   0.491  12.014  13.443
40246SOL     OW22569  13.730  13.543   3.009
40246SOL    HW122570  13.734  13.454   2.973
40246SOL    HW222571  13.754  13.531   3.102
40247SOL     OW22572   2.502   5.915   6.414
40247SOL    HW122573   2.432   5.937   6.476
40247SOL    HW222574   2.486   5.973   6.339
40248SOL     OW22575  10.295   8.114   7.835
40248SOL    HW122576  10.331   8.202   7.824
40248SOL    HW222577  10.264   8.112   7.925
40249SOL     OW22578  13.046   9.879  14.608
40249SOL    HW122579  12.987   9.877  14.533
40249SOL    HW222580  13.094   9.796  14.604
40250SOL     OW22581  10.785   7.845   7.740
40250SOL    HW122582  10.720   7.801   7.685
40250SOL    HW222583  10.794   7.787   7.816
40251SOL     OW22584  10.100  11.901   6.760
40251SOL    HW122585  10.031  11.964   6.781
40251SOL    HW222586  10.057  11.833   6.708
40252SOL     OW22587   3.681   5.446  13.549
40252SOL    HW122588   3.702   5.539  13.542
40252SOL    HW222589   3.725   5.405  13.475
40253SOL     OW22590  11.539  13.835   4.827
40253SOL    HW122591  11.520  13.885   4.906
40253SOL    HW222592  11.514  13.745   4.850
40254SOL     OW22593   9.935  11.864  14.020
40254SOL    HW122594   9.996  11.910  14.076
40254SOL    HW222595   9.982  11.851  13.938
40255SOL     OW22596  13.110   3.729  14.250
40255SOL    HW122597  13.157   3.646  14.258
40255SOL    HW222598  13.027   3.705  14.207
40256SOL     OW22599  13.501   5.272   1.243
40256SOL    HW122600  13.452   5.344   1.203
40256SOL    HW222601  13.443   5.239   1.312
40257SOL     OW22602   5.602   3.782   3.690
40257SOL    HW122603   5.514   3.788   3.728
40257SOL    HW222604   5.640   3.869   3.703
40258SOL     OW22605   7.436   6.692   5.702
40258SOL    HW122606   7.507   6.628   5.710
40258SOL    HW222607   7.375   6.669   5.772
40259SOL     OW22608   8.148   1.847   5.914
40259SOL    HW122609   8.201   1.922   5.891
40259SOL    HW222610   8.070   1.854   5.859
40260SOL     OW22611   4.502   7.072   1.149
40260SOL    HW122612   4.419   7.025   1.142
40260SOL    HW222613   4.534   7.051   1.237
40261SOL     OW22614   5.603   9.191   1.955
40261SOL    HW122615   5.624   9.124   2.020
40261SOL    HW222616   5.588   9.141   1.874
40262SOL     OW22617   9.272   6.290   5.511
40262SOL    HW122618   9.294   6.359   5.449
40262SOL    HW222619   9.356   6.250   5.533
40263SOL     OW22620   3.698   7.872   6.445
40263SOL    HW122621   3.692   7.779   6.466
40263SOL    HW222622   3.727   7.914   6.527
40264SOL     OW22623   1.549  14.880   4.505
40264SOL    HW122624   1.604   0.076   4.497
40264SOL    HW222625   1.463   0.032   4.529
40265SOL     OW22626   2.836   0.091   7.674
40265SOL    HW122627   2.764   0.117   7.616
40265SOL    HW222628   2.798   0.090   7.762
40266SOL     OW22629   4.473  12.622   7.906
40266SOL    HW122630   4.446  12.713   7.919
40266SOL    HW222631   4.449  12.578   7.987
40267SOL     OW22632   6.643   8.738  10.216
40267SOL    HW122633   6.664   8.690  10.296
40267SOL    HW222634   6.552   8.766  10.229
40268SOL     OW22635   6.455   4.283   5.833
40268SOL    HW122636   6.536   4.302   5.785
40268SOL    HW222637   6.480   4.288   5.925
40269SOL     OW22638  13.481   9.784   9.442
40269SOL    HW122639  13.464   9.698   9.482
40269SOL    HW222640  13.572   9.803   9.465
40270SOL     OW22641   7.426   2.598   3.450
40270SOL    HW122642   7.463   2.526   3.399
40270SOL    HW222643   7.444   2.676   3.399
40271SOL     OW22644  11.146   2.253  14.302
40271SOL    HW122645  11.167   2.339  14.340
40271SOL    HW222646  11.231   2.215  14.281
40272SOL     OW22647   6.712   9.777   0.033
40272SOL    HW122648   6.725   9.871   0.045
40272SOL    HW222649   6.674   9.747   0.116
40273SOL     OW22650  12.890   7.732   4.287
40273SOL    HW122651  12.795   7.734   4.277
40273SOL    HW222652  12.909   7.645   4.321
40274SOL     OW22653  14.391  14.639   5.525
40274SOL    HW122654  14.351  14.573   5.469
40274SOL    HW222655  14.485  14.632   5.508
40275SOL     OW22656   8.409   0.421  10.556
40275SOL    HW122657   8.452   0.373  10.485
40275SOL    HW222658   8.363   0.353  10.606
40276SOL     OW22659   8.635   7.153   3.173
40276SOL    HW122660   8.581   7.113   3.104
40276SOL    HW222661   8.572   7.188   3.236
40277SOL     OW22662   8.832   7.586  11.642
40277SOL    HW122663   8.798   7.675  11.630
40277SOL    HW222664   8.796   7.536  11.569
40278SOL     OW22665   0.388  11.080   0.148
40278SOL    HW122666   0.354  11.168   0.162
40278SOL    HW222667   0.318  11.022   0.178
40279SOL     OW22668  14.707   2.751   8.663
40279SOL    HW122669  14.749   2.835   8.644
40279SOL    HW222670  14.679   2.758   8.754
40280SOL     OW22671  10.396  11.579  12.093
40280SOL    HW122672  10.325  11.537  12.141
40280SOL    HW222673  10.363  11.666  12.071
40281SOL     OW22674   9.848   8.759  10.656
40281SOL    HW122675   9.836   8.794  10.568
40281SOL    HW222676   9.854   8.837  10.712
40282SOL     OW22677   6.894   7.435   1.915
40282SOL    HW122678   6.817   7.492   1.902
40282SOL    HW222679   6.934   7.430   1.829
40283SOL     OW22680   9.567   5.198   6.685
40283SOL    HW122681   9.532   5.246   6.610
40283SOL    HW222682   9.634   5.141   6.648
40284SOL     OW22683   7.325   3.635   9.525
40284SOL    HW122684   7.301   3.568   9.589
40284SOL    HW222685   7.276   3.713   9.551
40285SOL     OW22686   1.479   4.109  12.372
40285SOL    HW122687   1.546   4.116  12.440
40285SOL    HW222688   1.513   4.163  12.300
40286SOL     OW22689   5.737   5.657   8.291
40286SOL    HW122690   5.661   5.702   8.254
40286SOL    HW222691   5.780   5.723   8.346
40287SOL     OW22692  13.340  12.932   2.599
40287SOL    HW122693  13.260  12.952   2.551
40287SOL    HW222694  13.404  12.909   2.531
40288SOL     OW22695   6.212   1.937   5.153
40288SOL    HW122696   6.142   1.901   5.099
40288SOL    HW222697   6.291   1.928   5.099
40289SOL     OW22698  13.512   7.552  14.802
40289SOL    HW122699  13.581   7.571  14.866
40289SOL    HW222700  13.437   7.526  14.856
40290SOL     OW22701   7.659  12.930   8.671
40290SOL    HW122702   7.577  12.881   8.681
40290SOL    HW222703   7.665  12.948   8.577
40291SOL     OW22704   9.972   1.780  10.617
40291SOL    HW122705  10.062   1.760  10.591
40291SOL    HW222706   9.918   1.727  10.559
40292SOL     OW22707   5.128   9.176   6.483
40292SOL    HW122708   5.042   9.151   6.450
40292SOL    HW222709   5.183   9.099   6.465
40293SOL     OW22710   4.777   0.477  12.435
40293SOL    HW122711   4.819   0.511  12.514
40293SOL    HW222712   4.769   0.553  12.378
40294SOL     OW22713  12.687  12.291   6.448
40294SOL    HW122714  12.647  12.258   6.368
40294SOL    HW222715  12.724  12.376   6.423
40295SOL     OW22716   9.121   1.299  10.090
40295SOL    HW122717   9.145   1.387  10.119
40295SOL    HW222718   9.089   1.255  10.169
40296SOL     OW22719   1.424   2.261  10.612
40296SOL    HW122720   1.374   2.257  10.530
40296SOL    HW222721   1.383   2.332  10.661
40297SOL     OW22722   9.738  11.658  11.309
40297SOL    HW122723   9.825  11.699  11.313
40297SOL    HW222724   9.751  11.578  11.258
40298SOL     OW22725  11.412   3.098  11.293
40298SOL    HW122726  11.351   3.145  11.237
40298SOL    HW222727  11.498   3.132  11.268
40299SOL     OW22728   9.005   9.690   8.819
40299SOL    HW122729   8.992   9.603   8.855
40299SOL    HW222730   9.078   9.726   8.870
40300SOL     OW22731   9.726   6.582  11.696
40300SOL    HW122732   9.691   6.667  11.725
40300SOL    HW222733   9.656   6.520  11.716
40301SOL     OW22734   3.770   9.396   1.493
40301SOL    HW122735   3.689   9.409   1.542
40301SOL    HW222736   3.839   9.427   1.552
40302SOL     OW22737   5.487   0.343  13.056
40302SOL    HW122738   5.471   0.349  12.962
40302SOL    HW222739   5.445   0.422  13.092
40303SOL     OW22740  13.799   7.894  12.190
40303SOL    HW122741  13.799   7.844  12.108
40303SOL    HW222742  13.761   7.834  12.254
40304SOL     OW22743   4.957   0.022   9.038
40304SOL    HW122744   4.942  14.818   8.999
40304SOL    HW222745   4.872   0.066   9.032
40305SOL     OW22746   4.106   2.706   0.336
40305SOL    HW122747   4.017   2.734   0.354
40305SOL    HW222748   4.097   2.616   0.304
40306SOL     OW22749  12.072  13.266   8.378
40306SOL    HW122750  12.154  13.306   8.348
40306SOL    HW222751  12.029  13.334   8.429
40307SOL     OW22752  12.603  12.313  13.854
40307SOL    HW122753  12.634  12.337  13.767
40307SOL    HW222754  12.638  12.225  13.869
40308SOL     OW22755   1.544   6.214   6.727
40308SOL    HW122756   1.530   6.187   6.636
40308SOL    HW222757   1.483   6.286   6.741
40309SOL     OW22758   0.701  13.294   3.756
40309SOL    HW122759   0.619  13.246   3.764
40309SOL    HW222760   0.760  13.234   3.712
40310SOL     OW22761  14.566   0.890  12.311
40310SOL    HW122762  14.621   0.863  12.384
40310SOL    HW222763  14.530   0.975  12.337
40311SOL     OW22764  10.151   8.588  10.194
40311SOL    HW122765  10.064   8.549  10.207
40311SOL    HW222766  10.140   8.679  10.220
40312SOL     OW22767   3.235  14.300  12.177
40312SOL    HW122768   3.140  14.292  12.178
40312SOL    HW222769   3.266  14.216  12.212
40313SOL     OW22770  13.880   1.358   9.395
40313SOL    HW122771  13.830   1.287   9.355
40313SOL    HW222772  13.947   1.313   9.447
40314SOL     OW22773  10.567  12.209   6.669
40314SOL    HW122774  10.568  12.210   6.765
40314SOL    HW222775  10.475  12.224   6.647
40315SOL     OW22776   1.404   7.489   2.255
40315SOL    HW122777   1.484   7.533   2.226
40315SOL    HW222778   1.406   7.496   2.350
40316SOL     OW22779   6.246   0.462  11.487
40316SOL    HW122780   6.312   0.395  11.508
40316SOL    HW222781   6.296   0.532  11.446
40317SOL     OW22782   6.623   5.880   6.207
40317SOL    HW122783   6.610   5.829   6.127
40317SOL    HW222784   6.717   5.871   6.226
40318SOL     OW22785  10.399   9.449   0.080
40318SOL    HW122786  10.484   9.420   0.048
40318SOL    HW222787  10.348   9.466   0.001
40319SOL     OW22788   6.884   4.606   3.180
40319SOL    HW122789   6.806   4.550   3.173
40319SOL    HW222790   6.875   4.667   3.106
40320SOL     OW22791   1.149   3.667   2.286
40320SOL    HW122792   1.198   3.666   2.369
40320SOL    HW222793   1.140   3.759   2.264
40321SOL     OW22794   7.220   0.646   5.920
40321SOL    HW122795   7.129   0.674   5.928
40321SOL    HW222796   7.255   0.652   6.008
40322SOL     OW22797   4.024   6.945   5.497
40322SOL    HW122798   4.025   6.948   5.593
40322SOL    HW222799   4.093   7.006   5.470
40323SOL     OW22800   9.982  14.290   1.909
40323SOL    HW122801   9.911  14.225   1.906
40323SOL    HW222802   9.994  14.308   2.002
40324SOL     OW22803   0.794   2.793   0.912
40324SOL    HW122804   0.742   2.863   0.952
40324SOL    HW222805   0.884   2.825   0.917
40325SOL     OW22806   0.889   9.211   4.649
40325SOL    HW122807   0.932   9.126   4.656
40325SOL    HW222808   0.961   9.275   4.657
40326SOL     OW22809  14.067   2.012  12.192
40326SOL    HW122810  14.028   2.003  12.105
40326SOL    HW222811  13.995   1.996  12.252
40327SOL     OW22812   5.302  11.409   3.978
40327SOL    HW122813   5.240  11.481   3.966
40327SOL    HW222814   5.345  11.400   3.893
40328SOL     OW22815   2.576   0.928  12.634
40328SOL    HW122816   2.577   0.928  12.730
40328SOL    HW222817   2.573   1.021  12.611
40329SOL     OW22818  11.591  11.963   2.779
40329SOL    HW122819  11.581  11.904   2.853
40329SOL    HW222820  11.648  11.917   2.718
40330SOL     OW22821  11.065  14.493   9.714
40330SOL    HW122822  11.028  14.527   9.796
40330SOL    HW222823  11.092  14.571   9.666
40331SOL     OW22824   2.318  14.750  10.761
40331SOL    HW122825   2.302  14.843  10.744
40331SOL    HW222826   2.364  14.719  10.683
40332SOL     OW22827  14.379  11.735  11.376
40332SOL    HW122828  14.373  11.648  11.336
40332SOL    HW222829  14.337  11.794  11.312
40333SOL     OW22830   4.254  11.338   6.721
40333SOL    HW122831   4.334  11.386   6.700
40333SOL    HW222832   4.245  11.274   6.651
40334SOL     OW22833   5.488  11.973   5.124
40334SOL    HW122834   5.467  11.933   5.208
40334SOL    HW222835   5.458  11.909   5.059
40335SOL     OW22836  12.117  12.706   1.285
40335SOL    HW122837  12.205  12.743   1.279
40335SOL    HW222838  12.131  12.612   1.300
40336SOL     OW22839   2.073   8.299   3.452
40336SOL    HW122840   2.111   8.263   3.371
40336SOL    HW222841   2.125   8.377   3.470
40337SOL     OW22842   6.228   3.505   5.377
40337SOL    HW122843   6.319   3.486   5.354
40337SOL    HW222844   6.222   3.600   5.379
40338SOL     OW22845  13.092  12.944   3.842
40338SOL    HW122846  13.092  12.921   3.935
40338SOL    HW222847  13.054  13.031   3.838
40339SOL     OW22848   1.486   8.085   4.310
40339SOL    HW122849   1.525   8.153   4.256
40339SOL    HW222850   1.554   8.019   4.320
40340SOL     OW22851   4.200  12.673   4.932
40340SOL    HW122852   4.148  12.624   4.868
40340SOL    HW222853   4.177  12.635   5.016
40341SOL     OW22854  12.108  10.826   1.925
40341SOL    HW122855  12.196  10.863   1.917
40341SOL    HW222856  12.057  10.869   1.856
40342SOL     OW22857   9.323   8.737  13.675
40342SOL    HW122858   9.308   8.797  13.602
40342SOL    HW222859   9.260   8.764  13.741
40343SOL     OW22860   1.883  12.276  11.331
40343SOL    HW122861   1.820  12.227  11.383
40343SOL    HW222862   1.875  12.367  11.361
40344SOL     OW22863  10.529   9.163   1.043
40344SOL    HW122864  10.572   9.203   0.967
40344SOL    HW222865  10.580   9.194   1.118
40345SOL     OW22866  11.872   0.369  14.712
40345SOL    HW122867  11.907   0.429  14.647
40345SOL    HW222868  11.948   0.325  14.749
40346SOL     OW22869   2.936   2.316  12.236
40346SOL    HW122870   2.861   2.263  12.209
40346SOL    HW222871   2.957   2.285  12.324
40347SOL     OW22872   9.999   7.680  13.630
40347SOL    HW122873  10.046   7.675  13.547
40347SOL    HW222874  10.016   7.596  13.673
40348SOL     OW22875   8.715   6.596   5.750
40348SOL    HW122876   8.703   6.514   5.702
40348SOL    HW222877   8.630   6.639   5.745
40349SOL     OW22878   0.936   5.422   6.985
40349SOL    HW122879   0.942   5.326   6.980
40349SOL    HW222880   0.853   5.442   6.942
40350SOL     OW22881   0.073   9.630   7.331
40350SOL    HW122882   0.102   9.540   7.346
40350SOL    HW222883   0.085   9.673   7.416
40351SOL     OW22884   3.288  10.361  12.544
40351SOL    HW122885   3.381  10.385  12.549
40351SOL    HW222886   3.258  10.400  12.461
40352SOL     OW22887  14.694  11.524  11.059
40352SOL    HW122888  14.704  11.488  10.972
40352SOL    HW222889  14.688  11.619  11.045
40353SOL     OW22890   1.329  12.416   2.604
40353SOL    HW122891   1.299  12.330   2.573
40353SOL    HW222892   1.285  12.428   2.688
40354SOL     OW22893   8.701  10.267  10.831
40354SOL    HW122894   8.627  10.216  10.798
40354SOL    HW222895   8.661  10.333  10.888
40355SOL     OW22896   4.246   7.875   6.905
40355SOL    HW122897   4.281   7.898   6.819
40355SOL    HW222898   4.239   7.780   6.903
40356SOL     OW22899   1.412   4.115  12.736
40356SOL    HW122900   1.415   4.207  12.710
40356SOL    HW222901   1.376   4.069  12.660
40357SOL     OW22902   8.609   3.297  12.561
40357SOL    HW122903   8.548   3.225  12.543
40357SOL    HW222904   8.556   3.376  12.551
40358SOL     OW22905   2.887  11.135   5.511
40358SOL    HW122906   2.947  11.115   5.439
40358SOL    HW222907   2.945  11.153   5.585
40359SOL     OW22908   0.278  14.374   3.675
40359SOL    HW122909   0.306  14.301   3.731
40359SOL    HW222910   0.359  14.408   3.637
40360SOL     OW22911  10.582   6.445   7.606
40360SOL    HW122912  10.511   6.501   7.577
40360SOL    HW222913  10.640   6.503   7.655
40361SOL     OW22914   8.094   6.875   7.753
40361SOL    HW122915   8.027   6.935   7.788
40361SOL    HW222916   8.087   6.797   7.807
40362SOL     OW22917   2.533  11.228  11.513
40362SOL    HW122918   2.457  11.170  11.505
40362SOL    HW222919   2.563  11.241  11.423
40363SOL     OW22920   1.302   7.920   8.441
40363SOL    HW122921   1.242   7.940   8.513
40363SOL    HW222922   1.254   7.856   8.388
40364SOL     OW22923   1.412  14.188   1.806
40364SOL    HW122924   1.467  14.171   1.729
40364SOL    HW222925   1.323  14.171   1.775
40365SOL     OW22926   3.481   3.334  13.654
40365SOL    HW122927   3.572   3.334  13.682
40365SOL    HW222928   3.484   3.352  13.560
40366SOL     OW22929   9.981   3.358   1.019
40366SOL    HW122930  10.022   3.365   0.933
40366SOL    HW222931  10.035   3.295   1.067
40367SOL     OW22932  13.540   0.383   8.114
40367SOL    HW122933  13.619   0.362   8.164
40367SOL    HW222934  13.527   0.309   8.055
40368SOL     OW22935   0.908   6.409   4.150
40368SOL    HW122936   0.953   6.397   4.066
40368SOL    HW222937   0.961   6.361   4.213
40369SOL     OW22938   8.035   6.529  12.494
40369SOL    HW122939   8.033   6.618  12.459
40369SOL    HW222940   8.114   6.490  12.456
40370SOL     OW22941   2.697   2.294   3.990
40370SOL    HW122942   2.790   2.271   3.987
40370SOL    HW222943   2.697   2.390   3.986
40371SOL     OW22944   5.958  14.588  11.576
40371SOL    HW122945   5.917  14.526  11.635
40371SOL    HW222946   5.891  14.655  11.561
40372SOL     OW22947   8.815   5.035  11.297
40372SOL    HW122948   8.883   4.981  11.258
40372SOL    HW222949   8.739   4.977  11.302
40373SOL     OW22950   1.957   0.410   6.640
40373SOL    HW122951   2.035   0.429   6.693
40373SOL    HW222952   1.991   0.364   6.563
40374SOL     OW22953  13.360  11.536   4.909
40374SOL    HW122954  13.445  11.526   4.952
40374SOL    HW222955  13.308  11.462   4.942
40375SOL     OW22956   9.442  12.712   5.050
40375SOL    HW122957   9.505  12.694   4.980
40375SOL    HW222958   9.494  12.708   5.130
40376SOL     OW22959  10.049  10.141   4.157
40376SOL    HW122960  10.122  10.081   4.171
40376SOL    HW222961  10.090  10.222   4.127
40377SOL     OW22962   9.907  14.526  12.462
40377SOL    HW122963   9.914  14.620  12.473
40377SOL    HW222964   9.995  14.497  12.437
40378SOL     OW22965   6.695   4.056   5.847
40378SOL    HW122966   6.637   4.073   5.922
40378SOL    HW222967   6.772   4.015   5.886
40379SOL     OW22968  11.288   9.474  12.198
40379SOL    HW122969  11.300   9.512  12.112
40379SOL    HW222970  11.346   9.398  12.199
40380SOL     OW22971   3.406  10.220   2.190
40380SOL    HW122972   3.349  10.154   2.150
40380SOL    HW222973   3.457  10.171   2.254
40381SOL     OW22974  12.122  13.697  13.886
40381SOL    HW122975  12.087  13.675  13.972
40381SOL    HW222976  12.197  13.754  13.904
40382SOL     OW22977   2.745  10.029   6.787
40382SOL    HW122978   2.792   9.983   6.857
40382SOL    HW222979   2.744  10.120   6.816
40383SOL     OW22980   6.750  11.034   9.551
40383SOL    HW122981   6.764  10.944   9.521
40383SOL    HW222982   6.819  11.085   9.508
40384SOL     OW22983  14.839   7.899   9.009
40384SOL    HW122984  14.852   7.812   8.973
40384SOL    HW222985  14.812   7.953   8.935
40385SOL     OW22986  11.379  13.779   0.126
40385SOL    HW122987  11.444  13.841   0.160
40385SOL    HW222988  11.297  13.805   0.168
40386SOL     OW22989   8.369   4.225  12.492
40386SOL    HW122990   8.404   4.196  12.576
40386SOL    HW222991   8.274   4.228  12.505
40387SOL     OW22992   1.058   7.365  13.212
40387SOL    HW122993   1.108   7.446  13.200
40387SOL    HW222994   1.093   7.325  13.291
40388SOL     OW22995   9.261   4.777   6.021
40388SOL    HW122996   9.241   4.850   5.963
40388SOL    HW222997   9.343   4.802   6.064
40389SOL     OW22998   6.999  12.595   9.331
40389SOL    HW122999   6.993  12.523   9.394
40389SOL    HW223000   6.909  12.609   9.302
40390SOL     OW23001   0.004  14.168   2.459
40390SOL    HW123002   0.000  14.251   2.506
40390SOL    HW223003   0.076  14.120   2.500
40391SOL     OW23004   5.137   3.924   3.921
40391SOL    HW123005   5.213   3.979   3.939
40391SOL    HW223006   5.063   3.986   3.918
40392SOL     OW23007   9.980   0.701   0.626
40392SOL    HW123008  10.004   0.673   0.538
40392SOL    HW223009  10.063   0.726   0.668
40393SOL     OW23010  13.652  13.985   4.711
40393SOL    HW123011  13.627  13.914   4.651
40393SOL    HW223012  13.573  14.038   4.720
40394SOL     OW23013   1.447  13.369   9.596
40394SOL    HW123014   1.501  13.420   9.656
40394SOL    HW223015   1.419  13.432   9.530
40395SOL     OW23016  11.956  10.088   1.117
40395SOL    HW123017  11.990  10.029   1.049
40395SOL    HW223018  12.005  10.064   1.196
40396SOL     OW23019   6.344   0.114   0.458
40396SOL    HW123020   6.370   0.196   0.500
40396SOL    HW223021   6.336   0.052   0.531
40397SOL     OW23022   3.766   7.748  13.663
40397SOL    HW123023   3.850   7.720  13.628
40397SOL    HW223024   3.788   7.805  13.737
40398SOL     OW23025  11.217   5.180  10.923
40398SOL    HW123026  11.210   5.247  10.856
40398SOL    HW223027  11.167   5.106  10.889
40399SOL     OW23028   3.122   9.288   6.014
40399SOL    HW123029   3.186   9.284   5.944
40399SOL    HW223030   3.041   9.317   5.972
40400SOL     OW23031   7.774   3.642   3.130
40400SOL    HW123032   7.851   3.677   3.175
40400SOL    HW223033   7.701   3.689   3.169
40401SOL     OW23034   9.011   6.681  11.044
40401SOL    HW123035   9.075   6.643  11.104
40401SOL    HW223036   9.024   6.775  11.052
40402SOL     OW23037  11.278  10.817   5.048
40402SOL    HW123038  11.274  10.833   4.954
40402SOL    HW223039  11.196  10.853   5.082
40403SOL     OW23040   7.516  12.954  11.364
40403SOL    HW123041   7.436  13.002  11.339
40403SOL    HW223042   7.534  12.898  11.290
40404SOL     OW23043   7.094  11.932   4.143
40404SOL    HW123044   7.028  11.872   4.106
40404SOL    HW223045   7.152  11.952   4.069
40405SOL     OW23046   3.542  14.325  14.609
40405SOL    HW123047   3.472  14.271  14.646
40405SOL    HW223048   3.543  14.404  14.663
40406SOL     OW23049  12.711  11.546   4.093
40406SOL    HW123050  12.761  11.534   4.174
40406SOL    HW223051  12.734  11.471   4.039
40407SOL     OW23052   0.563   8.020   5.231
40407SOL    HW123053   0.622   7.947   5.215
40407SOL    HW223054   0.610   8.097   5.197
40408SOL     OW23055   7.029   8.208   5.104
40408SOL    HW123056   7.109   8.156   5.115
40408SOL    HW223057   6.975   8.185   5.179
40409SOL     OW23058  11.703   5.095  14.667
40409SOL    HW123059  11.702   5.151  14.590
40409SOL    HW223060  11.790   5.107  14.705
40410SOL     OW23061  14.298   3.551   0.338
40410SOL    HW123062  14.392   3.555   0.317
40410SOL    HW223063  14.278   3.639   0.371
40411SOL     OW23064   0.324   0.694  13.077
40411SOL    HW123065   0.244   0.645  13.098
40411SOL    HW223066   0.310   0.781  13.114
40412SOL     OW23067  14.028   2.507   8.090
40412SOL    HW123068  13.965   2.539   8.025
40412SOL    HW223069  14.003   2.549   8.172
40413SOL     OW23070  13.758   0.624  13.567
40413SOL    HW123071  13.776   0.642  13.659
40413SOL    HW223072  13.698   0.694  13.540
40414SOL     OW23073   7.879   2.915   9.167
40414SOL    HW123074   7.875   2.934   9.261
40414SOL    HW223075   7.793   2.942   9.134
40415SOL     OW23076  12.918   1.950   7.782
40415SOL    HW123077  12.944   1.931   7.872
40415SOL    HW223078  12.986   1.909   7.729
40416SOL     OW23079   6.149   6.387   7.639
40416SOL    HW123080   6.186   6.475   7.645
40416SOL    HW223081   6.062   6.396   7.678
40417SOL     OW23082   7.328   2.011   9.565
40417SOL    HW123083   7.238   2.029   9.536
40417SOL    HW223084   7.367   1.961   9.493
40418SOL     OW23085   5.989   4.508   3.459
40418SOL    HW123086   5.895   4.526   3.462
40418SOL    HW223087   6.029   4.595   3.461
40419SOL     OW23088  13.595  12.810  12.616
40419SOL    HW123089  13.581  12.744  12.684
40419SOL    HW223090  13.568  12.767  12.535
40420SOL     OW23091  10.625   5.729   7.863
40420SOL    HW123092  10.565   5.798   7.889
40420SOL    HW223093  10.620   5.726   7.768
40421SOL     OW23094  13.026   6.653   1.546
40421SOL    HW123095  12.997   6.709   1.618
40421SOL    HW223096  12.966   6.673   1.475
40422SOL     OW23097   2.251  14.258   5.851
40422SOL    HW123098   2.233  14.165   5.865
40422SOL    HW223099   2.189  14.304   5.907
40423SOL     OW23100   2.929  13.565   7.514
40423SOL    HW123101   2.944  13.602   7.602
40423SOL    HW223102   2.880  13.484   7.531
40424SOL     OW23103   1.290   6.766  10.466
40424SOL    HW123104   1.364   6.810  10.508
40424SOL    HW223105   1.218   6.827  10.473
40425SOL     OW23106  10.780   7.802   6.641
40425SOL    HW123107  10.787   7.893   6.670
40425SOL    HW223108  10.800   7.751   6.719
40426SOL     OW23109   4.590  11.132   5.291
40426SOL    HW123110   4.630  11.047   5.270
40426SOL    HW223111   4.499  11.122   5.263
40427SOL     OW23112   6.883   2.192   4.479
40427SOL    HW123113   6.798   2.154   4.503
40427SOL    HW223114   6.861   2.264   4.421
40428SOL     OW23115  11.574   3.529  12.809
40428SOL    HW123116  11.627   3.586  12.753
40428SOL    HW223117  11.509   3.491  12.750
40429SOL     OW23118  14.600  13.386   2.452
40429SOL    HW123119  14.583  13.368   2.360
40429SOL    HW223120  14.645  13.470   2.453
40430SOL     OW23121   6.667   3.663   5.691
40430SOL    HW123122   6.684   3.601   5.620
40430SOL    HW223123   6.585   3.706   5.665
40431SOL     OW23124   4.587   3.223   5.223
40431SOL    HW123125   4.575   3.303   5.172
40431SOL    HW223126   4.511   3.220   5.281
40432SOL     OW23127   6.097   4.770  11.803
40432SOL    HW123128   6.130   4.771  11.713
40432SOL    HW223129   6.133   4.849  11.844
40433SOL     OW23130   5.067   1.467   3.568
40433SOL    HW123131   5.021   1.401   3.516
40433SOL    HW223132   5.122   1.513   3.504
40434SOL     OW23133   9.369   9.039  10.862
40434SOL    HW123134   9.347   8.961  10.912
40434SOL    HW223135   9.463   9.032  10.847
40435SOL     OW23136   9.686   0.263  11.506
40435SOL    HW123137   9.778   0.237  11.518
40435SOL    HW223138   9.652   0.201  11.441
40436SOL     OW23139   8.259  12.989  10.027
40436SOL    HW123140   8.352  13.009  10.016
40436SOL    HW223141   8.246  12.907   9.979
40437SOL     OW23142   0.128   6.064   2.243
40437SOL    HW123143   0.098   5.989   2.191
40437SOL    HW223144   0.223   6.067   2.226
40438SOL     OW23145  14.621   4.578   5.476
40438SOL    HW123146  14.599   4.509   5.413
40438SOL    HW223147  14.626   4.533   5.560
40439SOL     OW23148   9.364  10.218   9.841
40439SOL    HW123149   9.322  10.132   9.834
40439SOL    HW223150   9.363  10.237   9.935
40440SOL     OW23151  10.957  11.869   9.296
40440SOL    HW123152  10.881  11.855   9.352
40440SOL    HW223153  10.984  11.960   9.314
40441SOL     OW23154   6.950   5.308  13.036
40441SOL    HW123155   6.871   5.349  13.070
40441SOL    HW223156   6.931   5.291  12.944
40442SOL     OW23157  10.966   9.500   1.227
40442SOL    HW123158  10.909   9.571   1.257
40442SOL    HW223159  10.992   9.454   1.307
40443SOL     OW23160  11.092   9.309   8.348
40443SOL    HW123161  11.170   9.254   8.360
40443SOL    HW223162  11.039   9.293   8.426
40444SOL     OW23163  13.147  11.584  10.324
40444SOL    HW123164  13.152  11.517  10.392
40444SOL    HW223165  13.235  11.623  10.323
40445SOL     OW23166  11.145   5.171   8.779
40445SOL    HW123167  11.150   5.077   8.792
40445SOL    HW223168  11.123   5.181   8.686
40446SOL     OW23169  10.576   5.002   3.905
40446SOL    HW123170  10.530   5.063   3.963
40446SOL    HW223171  10.598   4.928   3.962
40447SOL     OW23172  14.591   1.811  11.734
40447SOL    HW123173  14.602   1.772  11.821
40447SOL    HW223174  14.665   1.871  11.725
40448SOL     OW23175   6.307  10.561   2.112
40448SOL    HW123176   6.316  10.656   2.113
40448SOL    HW223177   6.360  10.532   2.038
40449SOL     OW23178  12.194   0.846   8.596
40449SOL    HW123179  12.256   0.775   8.578
40449SOL    HW223180  12.141   0.813   8.669
40450SOL     OW23181   2.826  11.808   6.616
40450SOL    HW123182   2.848  11.740   6.679
40450SOL    HW223183   2.820  11.888   6.669
40451SOL     OW23184   3.146   1.473   2.269
40451SOL    HW123185   3.174   1.478   2.361
40451SOL    HW223186   3.099   1.390   2.263
40452SOL     OW23187   5.869   7.568   2.712
40452SOL    HW123188   5.842   7.648   2.666
40452SOL    HW223189   5.909   7.599   2.793
40453SOL     OW23190   0.080  10.451   0.522
40453SOL    HW123191   0.043  10.366   0.547
40453SOL    HW223192   0.105  10.440   0.431
40454SOL     OW23193   2.903   4.871   8.090
40454SOL    HW123194   2.830   4.833   8.041
40454SOL    HW223195   2.874   4.960   8.110
40455SOL     OW23196   7.827   5.689  13.383
40455SOL    HW123197   7.893   5.621  13.369
40455SOL    HW223198   7.784   5.665  13.465
40456SOL     OW23199   4.012   2.297  13.460
40456SOL    HW123200   4.101   2.284  13.491
40456SOL    HW223201   4.015   2.279  13.366
40457SOL     OW23202   1.237   7.937  11.756
40457SOL    HW123203   1.319   7.913  11.800
40457SOL    HW223204   1.207   7.856  11.716
40458SOL     OW23205   9.446   4.981   3.563
40458SOL    HW123206   9.535   5.000   3.593
40458SOL    HW223207   9.395   4.973   3.644
40459SOL     OW23208   5.036  13.019  12.426
40459SOL    HW123209   5.005  13.109  12.416
40459SOL    HW223210   5.036  13.004  12.521
40460SOL     OW23211   4.622   3.619  13.167
40460SOL    HW123212   4.666   3.534  13.166
40460SOL    HW223213   4.575   3.623  13.084
40461SOL     OW23214   5.600  14.201   4.756
40461SOL    HW123215   5.572  14.147   4.830
40461SOL    HW223216   5.519  14.233   4.717
40462SOL     OW23217  14.721   6.541   4.903
40462SOL    HW123218  14.634   6.581   4.910
40462SOL    HW223219  14.722   6.502   4.815
40463SOL     OW23220   5.844  14.402   0.629
40463SOL    HW123221   5.865  14.376   0.539
40463SOL    HW223222   5.834  14.497   0.625
40464SOL     OW23223   8.308  11.237  13.038
40464SOL    HW123224   8.278  11.214  13.126
40464SOL    HW223225   8.311  11.154  12.991
40465SOL     OW23226  10.707   8.582  13.636
40465SOL    HW123227  10.636   8.638  13.668
40465SOL    HW223228  10.664   8.497  13.622
40466SOL     OW23229  12.015   8.202   5.337
40466SOL    HW123230  12.019   8.224   5.244
40466SOL    HW223231  11.992   8.284   5.380
40467SOL     OW23232   9.836   7.361   1.651
40467SOL    HW123233   9.792   7.433   1.607
40467SOL    HW223234   9.831   7.383   1.744
40468SOL     OW23235   4.469  14.651  10.487
40468SOL    HW123236   4.558  14.641  10.454
40468SOL    HW223237   4.479  14.657  10.582
40469SOL     OW23238   4.050   4.192   6.058
40469SOL    HW123239   4.062   4.159   5.969
40469SOL    HW223240   4.051   4.113   6.113
40470SOL     OW23241   7.822  12.582  14.387
40470SOL    HW123242   7.914  12.598  14.367
40470SOL    HW223243   7.773  12.633  14.323
40471SOL     OW23244  10.388   6.796   8.821
40471SOL    HW123245  10.430   6.882   8.824
40471SOL    HW223246  10.318   6.806   8.757
40472SOL     OW23247  13.253   4.520   9.869
40472SOL    HW123248  13.210   4.463   9.805
40472SOL    HW223249  13.193   4.523   9.943
40473SOL     OW23250   7.828   9.345  14.406
40473SOL    HW123251   7.770   9.275  14.378
40473SOL    HW223252   7.888   9.357  14.333
40474SOL     OW23253   5.327  12.317   8.599
40474SOL    HW123254   5.274  12.307   8.520
40474SOL    HW223255   5.375  12.234   8.607
40475SOL     OW23256   7.996  12.781   0.361
40475SOL    HW123257   8.078  12.805   0.404
40475SOL    HW223258   7.928  12.822   0.415
40476SOL     OW23259  10.075  14.244   1.538
40476SOL    HW123260  10.100  14.152   1.530
40476SOL    HW223261  10.155  14.289   1.565
40477SOL     OW23262   0.417   6.466   7.729
40477SOL    HW123263   0.396   6.373   7.742
40477SOL    HW223264   0.426   6.501   7.818
40478SOL     OW23265   7.896   1.198  12.892
40478SOL    HW123266   7.931   1.128  12.947
40478SOL    HW223267   7.804   1.176  12.879
40479SOL     OW23268   2.094   5.829  13.538
40479SOL    HW123269   2.146   5.756  13.506
40479SOL    HW223270   2.150   5.906  13.525
40480SOL     OW23271   0.843   4.729   2.473
40480SOL    HW123272   0.749   4.740   2.486
40480SOL    HW223273   0.863   4.646   2.516
40481SOL     OW23274  10.315   3.438   8.444
40481SOL    HW123275  10.289   3.400   8.528
40481SOL    HW223276  10.411   3.431   8.443
40482SOL     OW23277   6.882   8.753  14.225
40482SOL    HW123278   6.854   8.753  14.317
40482SOL    HW223279   6.801   8.747  14.175
40483SOL     OW23280   0.168  12.432   2.882
40483SOL    HW123281   0.197  12.358   2.935
40483SOL    HW223282   0.236  12.440   2.814
40484SOL     OW23283  13.845   1.476   6.863
40484SOL    HW123284  13.759   1.497   6.827
40484SOL    HW223285  13.842   1.382   6.878
40485SOL     OW23286  13.329   2.272  12.536
40485SOL    HW123287  13.247   2.272  12.585
40485SOL    HW223288  13.303   2.265  12.444
40486SOL     OW23289   8.035   8.869   6.981
40486SOL    HW123290   8.012   8.791   7.031
40486SOL    HW223291   7.952   8.897   6.942
40487SOL     OW23292   2.939   0.242  11.951
40487SOL    HW123293   2.944   0.147  11.960
40487SOL    HW223294   2.907   0.272  12.036
40488SOL     OW23295  11.154  10.997   7.725
40488SOL    HW123296  11.240  10.996   7.683
40488SOL    HW223297  11.170  10.965   7.814
40489SOL     OW23298  14.456   6.791   7.132
40489SOL    HW123299  14.442   6.883   7.111
40489SOL    HW223300  14.399   6.775   7.207
40490SOL     OW23301   7.755   4.783   8.717
40490SOL    HW123302   7.848   4.797   8.734
40490SOL    HW223303   7.727   4.862   8.673
40491SOL     OW23304   2.648   8.114   7.245
40491SOL    HW123305   2.676   8.076   7.161
40491SOL    HW223306   2.715   8.086   7.307
40492SOL     OW23307   9.815  11.500  14.402
40492SOL    HW123308   9.729  11.477  14.368
40492SOL    HW223309   9.827  11.592  14.379
40493SOL     OW23310  13.326  10.753   2.930
40493SOL    HW123311  13.388  10.776   2.861
40493SOL    HW223312  13.339  10.659   2.943
40494SOL     OW23313  13.615  10.250   7.658
40494SOL    HW123314  13.615  10.344   7.644
40494SOL    HW223315  13.630  10.212   7.571
40495SOL     OW23316   4.348   0.325  11.602
40495SOL    HW123317   4.356   0.407  11.552
40495SOL    HW223318   4.402   0.263  11.554
40496SOL     OW23319   5.764   5.879   1.182
40496SOL    HW123320   5.772   5.785   1.199
40496SOL    HW223321   5.744   5.917   1.268
40497SOL     OW23322   1.714   2.996   9.869
40497SOL    HW123323   1.795   2.945   9.880
40497SOL    HW223324   1.648   2.931   9.846
40498SOL     OW23325  10.740   8.242   1.576
40498SOL    HW123326  10.727   8.297   1.654
40498SOL    HW223327  10.758   8.304   1.506
40499SOL     OW23328   8.248  12.321   6.198
40499SOL    HW123329   8.225  12.346   6.288
40499SOL    HW223330   8.343  12.331   6.194
40500SOL     OW23331   0.524   6.601  11.502
40500SOL    HW123332   0.558   6.595  11.413
40500SOL    HW223333   0.537   6.513  11.539
40501SOL     OW23334   6.393   8.048   8.683
40501SOL    HW123335   6.428   7.977   8.737
40501SOL    HW223336   6.425   8.030   8.595
40502SOL     OW23337   7.732   0.516   2.401
40502SOL    HW123338   7.692   0.536   2.316
40502SOL    HW223339   7.720   0.421   2.411
40503SOL     OW23340   4.860   5.014  14.823
40503SOL    HW123341   4.934   5.034  14.880
40503SOL    HW223342   4.798   5.085  14.839
40504SOL     OW23343  10.423   9.663   4.262
40504SOL    HW123344  10.370   9.723   4.314
40504SOL    HW223345  10.362   9.624   4.200
40505SOL     OW23346   1.420  13.014  13.605
40505SOL    HW123347   1.485  12.964  13.556
40505SOL    HW223348   1.408  12.965  13.687
40506SOL     OW23349  10.530   8.494   3.939
40506SOL    HW123350  10.500   8.486   3.849
40506SOL    HW223351  10.603   8.432   3.945
40507SOL     OW23352   0.078   8.712   9.242
40507SOL    HW123353   0.031   8.777   9.189
40507SOL    HW223354   0.042   8.724   9.330
40508SOL     OW23355  12.916   2.404   9.126
40508SOL    HW123356  12.840   2.431   9.074
40508SOL    HW223357  12.959   2.337   9.073
40509SOL     OW23358   2.323   9.129  11.288
40509SOL    HW123359   2.356   9.084  11.210
40509SOL    HW223360   2.228   9.130  11.278
40510SOL     OW23361   9.405  10.385   7.517
40510SOL    HW123362   9.485  10.361   7.565
40510SOL    HW223363   9.432  10.387   7.425
40511SOL     OW23364  10.293   8.877   4.105
40511SOL    HW123365  10.275   8.960   4.061
40511SOL    HW223366  10.215   8.860   4.157
40512SOL     OW23367   2.790  11.597   0.172
40512SOL    HW123368   2.794  11.647   0.253
40512SOL    HW223369   2.710  11.628   0.129
40513SOL     OW23370  12.123   5.831   2.211
40513SOL    HW123371  12.191   5.768   2.185
40513SOL    HW223372  12.153   5.914   2.175
40514SOL     OW23373   8.709   0.079   6.300
40514SOL    HW123374   8.657   0.027   6.239
40514SOL    HW223375   8.792   0.095   6.255
40515SOL     OW23376   1.458   0.990   4.734
40515SOL    HW123377   1.535   0.936   4.720
40515SOL    HW223378   1.477   1.071   4.687
40516SOL     OW23379   0.764  13.993   0.931
40516SOL    HW123380   0.730  13.946   1.008
40516SOL    HW223381   0.836  14.046   0.966
40517SOL     OW23382   8.617   4.104  11.680
40517SOL    HW123383   8.623   4.076  11.772
40517SOL    HW223384   8.661   4.189  11.678
40518SOL     OW23385   5.807  11.472  10.967
40518SOL    HW123386   5.880  11.522  10.928
40518SOL    HW223387   5.850  11.399  11.011
40519SOL     OW23388   3.422   5.825   7.630
40519SOL    HW123389   3.376   5.770   7.693
40519SOL    HW223390   3.398   5.789   7.544
40520SOL     OW23391   9.066   4.931   2.190
40520SOL    HW123392   9.124   4.999   2.224
40520SOL    HW223393   9.124   4.860   2.165
40521SOL     OW23394   0.900  12.413   8.229
40521SOL    HW123395   0.827  12.376   8.279
40521SOL    HW223396   0.914  12.350   8.159
40522SOL     OW23397   3.540   5.522  10.111
40522SOL    HW123398   3.608   5.526  10.177
40522SOL    HW223399   3.465   5.567  10.151
40523SOL     OW23400  13.583   9.228   6.674
40523SOL    HW123401  13.655   9.262   6.728
40523SOL    HW223402  13.554   9.303   6.623
40524SOL     OW23403   0.186  12.401   6.521
40524SOL    HW123404   0.116  12.450   6.477
40524SOL    HW223405   0.267  12.439   6.487
40525SOL     OW23406   8.745   5.247  12.473
40525SOL    HW123407   8.681   5.187  12.433
40525SOL    HW223408   8.710   5.263  12.561
40526SOL     OW23409   6.245   9.877   1.560
40526SOL    HW123410   6.259   9.898   1.652
40526SOL    HW223411   6.328   9.837   1.532
40527SOL     OW23412  12.442   1.199   8.422
40527SOL    HW123413  12.441   1.104   8.418
40527SOL    HW223414  12.485   1.220   8.504
40528SOL     OW23415   6.114  14.615  12.912
40528SOL    HW123416   6.163  14.690  12.945
40528SOL    HW223417   6.031  14.617  12.960
40529SOL     OW23418   9.941   9.805  11.753
40529SOL    HW123419   9.896   9.728  11.719
40529SOL    HW223420   9.993   9.771  11.826
40530SOL     OW23421   8.420   9.700   6.328
40530SOL    HW123422   8.377   9.633   6.275
40530SOL    HW223423   8.487   9.738   6.271
40531SOL     OW23424   0.348   9.701  11.851
40531SOL    HW123425   0.292   9.762  11.900
40531SOL    HW223426   0.392   9.756  11.786
40532SOL     OW23427   1.430  11.675   4.222
40532SOL    HW123428   1.471  11.650   4.305
40532SOL    HW223429   1.503  11.682   4.160
40533SOL     OW23430   7.906  12.533  12.207
40533SOL    HW123431   7.876  12.442  12.203
40533SOL    HW223432   7.825  12.584  12.214
40534SOL     OW23433   7.054   2.029   3.218
40534SOL    HW123434   7.070   2.039   3.124
40534SOL    HW223435   7.123   2.080   3.260
40535SOL     OW23436   1.051   2.354   7.851
40535SOL    HW123437   1.050   2.361   7.946
40535SOL    HW223438   1.001   2.274   7.832
40536SOL     OW23439   5.608   2.560   6.545
40536SOL    HW123440   5.512   2.555   6.544
40536SOL    HW223441   5.628   2.647   6.509
40537SOL     OW23442   2.162   6.647   6.805
40537SOL    HW123443   2.227   6.677   6.741
40537SOL    HW223444   2.142   6.725   6.857
40538SOL     OW23445   0.137   1.116  10.930
40538SOL    HW123446   0.086   1.196  10.937
40538SOL    HW223447   0.170   1.115  10.840
40539SOL     OW23448   1.509   4.294  11.911
40539SOL    HW123449   1.513   4.205  11.878
40539SOL    HW223450   1.556   4.291  11.994
40540SOL     OW23451   6.040   1.025   5.899
40540SOL    HW123452   5.987   1.034   5.819
40540SOL    HW223453   6.128   1.055   5.873
40541SOL     OW23454  12.731   8.199   0.533
40541SOL    HW123455  12.785   8.211   0.611
40541SOL    HW223456  12.713   8.105   0.530
40542SOL     OW23457   5.262   7.818   7.297
40542SOL    HW123458   5.256   7.883   7.227
40542SOL    HW223459   5.223   7.862   7.374
40543SOL     OW23460   6.992  11.376  11.134
40543SOL    HW123461   6.926  11.365  11.066
40543SOL    HW223462   6.948  11.351  11.215
40544SOL     OW23463   1.600  14.567   4.248
40544SOL    HW123464   1.541  14.620   4.302
40544SOL    HW223465   1.655  14.631   4.203
40545SOL     OW23466   7.057   8.020  10.180
40545SOL    HW123467   7.016   7.949  10.130
40545SOL    HW223468   7.079   8.086  10.114
40546SOL     OW23469  11.349   9.239  10.683
40546SOL    HW123470  11.276   9.300  10.698
40546SOL    HW223471  11.308   9.152  10.689
40547SOL     OW23472   7.951  13.460   5.212
40547SOL    HW123473   8.027  13.477   5.158
40547SOL    HW223474   7.982  13.399   5.279
40548SOL     OW23475   6.345  13.968   8.474
40548SOL    HW123476   6.301  13.895   8.517
40548SOL    HW223477   6.348  13.943   8.381
40549SOL     OW23478  10.578   8.949   7.434
40549SOL    HW123479  10.664   8.969   7.471
40549SOL    HW223480  10.539   9.035   7.419
40550SOL     OW23481  14.062   6.544  11.502
40550SOL    HW123482  14.100   6.459  11.524
40550SOL    HW223483  13.994   6.524  11.438
40551SOL     OW23484   1.678  11.021  11.396
40551SOL    HW123485   1.766  10.993  11.373
40551SOL    HW223486   1.628  11.012  11.314
40552SOL     OW23487  10.377   3.522  11.156
40552SOL    HW123488  10.301   3.550  11.105
40552SOL    HW223489  10.340   3.466  11.225
40553SOL     OW23490   5.883   9.125   9.811
40553SOL    HW123491   5.939   9.118   9.734
40553SOL    HW223492   5.940   9.159   9.880
40554SOL     OW23493  10.263   8.470   0.129
40554SOL    HW123494  10.324   8.510   0.066
40554SOL    HW223495  10.302   8.386   0.150
40555SOL     OW23496   6.487   2.602   7.636
40555SOL    HW123497   6.561   2.583   7.693
40555SOL    HW223498   6.526   2.620   7.550
40556SOL     OW23499   5.907  12.769  11.589
40556SOL    HW123500   5.905  12.675  11.608
40556SOL    HW223501   5.879  12.810  11.671
40557SOL     OW23502  13.274   1.404  14.200
40557SOL    HW123503  13.257   1.440  14.113
40557SOL    HW223504  13.348   1.345  14.188
40558SOL     OW23505   7.736   2.303   0.903
40558SOL    HW123506   7.748   2.211   0.879
40558SOL    HW223507   7.729   2.303   0.999
40559SOL     OW23508   4.387   1.690   8.935
40559SOL    HW123509   4.389   1.638   9.015
40559SOL    HW223510   4.293   1.705   8.919
40560SOL     OW23511   2.445   4.956   7.310
40560SOL    HW123512   2.401   5.015   7.370
40560SOL    HW223513   2.388   4.954   7.233
40561SOL     OW23514   1.188   5.912   9.037
40561SOL    HW123515   1.233   5.949   8.961
40561SOL    HW223516   1.254   5.860   9.082
40562SOL     OW23517   2.181  10.787  10.534
40562SOL    HW123518   2.167  10.693  10.533
40562SOL    HW223519   2.114  10.822  10.592
40563SOL     OW23520   9.502   3.026   4.166
40563SOL    HW123521   9.408   3.016   4.151
40563SOL    HW223522   9.512   3.015   4.261
40564SOL     OW23523   0.504   1.697  13.033
40564SOL    HW123524   0.482   1.689  13.126
40564SOL    HW223525   0.584   1.646  13.023
40565SOL     OW23526  13.326   3.703   9.885
40565SOL    HW123527  13.303   3.678   9.795
40565SOL    HW223528  13.389   3.775   9.874
40566SOL     OW23529  12.504   8.741  13.536
40566SOL    HW123530  12.562   8.815  13.515
40566SOL    HW223531  12.475   8.759  13.625
40567SOL     OW23532   0.805   7.425  12.540
40567SOL    HW123533   0.828   7.377  12.620
40567SOL    HW223534   0.754   7.362  12.489
40568SOL     OW23535  12.769   3.644   4.126
40568SOL    HW123536  12.689   3.695   4.111
40568SOL    HW223537  12.756   3.605   4.213
40569SOL     OW23538  14.340  11.416  12.444
40569SOL    HW123539  14.288  11.420  12.364
40569SOL    HW223540  14.430  11.433  12.415
40570SOL     OW23541   3.219   4.049   9.311
40570SOL    HW123542   3.245   3.958   9.323
40570SOL    HW223543   3.266   4.097   9.380
40571SOL     OW23544  14.299   6.962   5.025
40571SOL    HW123545  14.286   7.049   4.987
40571SOL    HW223546  14.256   6.903   4.963
40572SOL     OW23547  13.151   0.480  10.636
40572SOL    HW123548  13.189   0.517  10.716
40572SOL    HW223549  13.185   0.391  10.632
40573SOL     OW23550   4.559  13.134   0.229
40573SOL    HW123551   4.645  13.162   0.262
40573SOL    HW223552   4.578  13.062   0.169
40574SOL     OW23553   9.279   9.140   9.113
40574SOL    HW123554   9.241   9.140   9.026
40574SOL    HW223555   9.210   9.173   9.170
40575SOL     OW23556   7.107   5.556  10.307
40575SOL    HW123557   7.179   5.542  10.246
40575SOL    HW223558   7.028   5.542  10.255
40576SOL     OW23559   8.232   6.993  11.093
40576SOL    HW123560   8.308   7.039  11.131
40576SOL    HW223561   8.265   6.960  11.009
40577SOL     OW23562   2.660   7.755  13.637
40577SOL    HW123563   2.609   7.810  13.578
40577SOL    HW223564   2.727   7.814  13.672
40578SOL     OW23565  14.812   8.790   7.320
40578SOL    HW123566  14.806   8.701   7.284
40578SOL    HW223567  14.874   8.835   7.263
40579SOL     OW23568   6.404   8.175   4.800
40579SOL    HW123569   6.417   8.080   4.799
40579SOL    HW223570   6.465   8.209   4.735
40580SOL     OW23571   6.524   8.211  13.081
40580SOL    HW123572   6.457   8.265  13.039
40580SOL    HW223573   6.606   8.246  13.048
40581SOL     OW23574   1.387   2.449   4.397
40581SOL    HW123575   1.411   2.542   4.400
40581SOL    HW223576   1.316   2.440   4.461
40582SOL     OW23577   1.311   1.050  13.722
40582SOL    HW123578   1.280   1.036  13.632
40582SOL    HW223579   1.403   1.024  13.720
40583SOL     OW23580   0.636   7.718  14.447
40583SOL    HW123581   0.579   7.792  14.470
40583SOL    HW223582   0.647   7.671  14.530
40584SOL     OW23583   4.916  12.873   2.421
40584SOL    HW123584   4.874  12.905   2.341
40584SOL    HW223585   4.875  12.923   2.491
40585SOL     OW23586   1.904  10.934  11.272
40585SOL    HW123587   1.978  10.880  11.244
40585SOL    HW223588   1.848  10.940  11.194
40586SOL     OW23589   4.992   0.050  14.554
40586SOL    HW123590   4.959   0.135  14.523
40586SOL    HW223591   5.087   0.056  14.542
40587SOL     OW23592   3.893   3.158   0.035
40587SOL    HW123593   3.968   3.100   0.052
40587SOL    HW223594   3.905   3.185  14.825
40588SOL     OW23595   8.763   5.955  10.147
40588SOL    HW123596   8.730   6.020  10.084
40588SOL    HW223597   8.694   5.949  10.213
40589SOL     OW23598   3.083   9.324   7.523
40589SOL    HW123599   3.121   9.269   7.455
40589SOL    HW223600   3.033   9.264   7.579
40590SOL     OW23601   4.807  11.381  12.112
40590SOL    HW123602   4.752  11.459  12.116
40590SOL    HW223603   4.818  11.364  12.018
40591SOL     OW23604   5.147   0.976  10.710
40591SOL    HW123605   5.187   0.978  10.797
40591SOL    HW223606   5.218   0.996  10.650
40592SOL     OW23607  10.010   2.039   7.373
40592SOL    HW123608  10.090   2.018   7.421
40592SOL    HW223609   9.941   1.988   7.416
40593SOL     OW23610   1.491   0.396  10.670
40593SOL    HW123611   1.433   0.355  10.734
40593SOL    HW223612   1.452   0.373  10.585
40594SOL     OW23613   8.756  13.210   8.940
40594SOL    HW123614   8.827  13.206   8.876
40594SOL    HW223615   8.796  13.250   9.017
40595SOL     OW23616  11.004  10.966   8.659
40595SOL    HW123617  11.001  10.870   8.660
40595SOL    HW223618  11.095  10.988   8.677
40596SOL     OW23619   5.467   1.158   7.485
40596SOL    HW123620   5.466   1.165   7.580
40596SOL    HW223621   5.506   1.073   7.467
40597SOL     OW23622   2.035   8.439  11.353
40597SOL    HW123623   2.093   8.366  11.375
40597SOL    HW223624   2.005   8.420  11.264
40598SOL     OW23625   1.838   9.027  14.660
40598SOL    HW123626   1.771   9.058  14.721
40598SOL    HW223627   1.920   9.065  14.692
40599SOL     OW23628   4.236   5.351   0.689
40599SOL    HW123629   4.143   5.375   0.684
40599SOL    HW223630   4.281   5.422   0.643
40600SOL     OW23631   3.838   4.307  13.826
40600SOL    HW123632   3.802   4.240  13.768
40600SOL    HW223633   3.768   4.371  13.836
40601SOL     OW23634  11.284   5.802   2.081
40601SOL    HW123635  11.341   5.845   2.145
40601SOL    HW223636  11.300   5.709   2.093
40602SOL     OW23637   3.331   2.320  13.725
40602SOL    HW123638   3.391   2.334  13.653
40602SOL    HW223639   3.376   2.354  13.802
40603SOL     OW23640   3.065  13.445  12.646
40603SOL    HW123641   3.059  13.489  12.730
40603SOL    HW223642   3.122  13.501  12.593
40604SOL     OW23643   4.164  11.811   9.932
40604SOL    HW123644   4.111  11.784  10.007
40604SOL    HW223645   4.252  11.822   9.966
40605SOL     OW23646  12.558  14.671   8.173
40605SOL    HW123647  12.514  14.737   8.228
40605SOL    HW223648  12.651  14.684   8.189
40606SOL     OW23649   5.349   7.649   5.344
40606SOL    HW123650   5.334   7.738   5.375
40606SOL    HW223651   5.361   7.657   5.250
40607SOL     OW23652   2.512   5.918   4.526
40607SOL    HW123653   2.489   6.005   4.495
40607SOL    HW223654   2.428   5.872   4.533
40608SOL     OW23655   2.286   9.425  14.435
40608SOL    HW123656   2.375   9.439  14.403
40608SOL    HW223657   2.258   9.343  14.394
40609SOL     OW23658   0.645   9.186   2.116
40609SOL    HW123659   0.560   9.145   2.133
40609SOL    HW223660   0.657   9.177   2.021
40610SOL     OW23661   9.876   7.811   0.356
40610SOL    HW123662   9.950   7.753   0.375
40610SOL    HW223663   9.818   7.759   0.301
40611SOL     OW23664   3.902   8.478  12.751
40611SOL    HW123665   3.886   8.567  12.719
40611SOL    HW223666   3.822   8.453  12.795
40612SOL     OW23667   4.931   7.070  13.000
40612SOL    HW123668   4.969   6.998  13.051
40612SOL    HW223669   5.006   7.115  12.962
40613SOL     OW23670   8.508   2.206  13.875
40613SOL    HW123671   8.448   2.237  13.942
40613SOL    HW223672   8.555   2.133  13.916
40614SOL     OW23673   7.066   8.352   0.949
40614SOL    HW123674   7.161   8.364   0.944
40614SOL    HW223675   7.049   8.340   1.043
40615SOL     OW23676   6.354   6.649   2.299
40615SOL    HW123677   6.336   6.721   2.360
40615SOL    HW223678   6.283   6.654   2.234
40616SOL     OW23679   7.523  14.202   1.998
40616SOL    HW123680   7.613  14.201   1.965
40616SOL    HW223681   7.502  14.109   2.011
40617SOL     OW23682   9.435   5.841  14.613
40617SOL    HW123683   9.451   5.872  14.702
40617SOL    HW223684   9.423   5.920  14.561
40618SOL     OW23685  12.875  12.152   7.189
40618SOL    HW123686  12.836  12.209   7.255
40618SOL    HW223687  12.863  12.063   7.224
40619SOL     OW23688   4.237  12.260   9.081
40619SOL    HW123689   4.158  12.313   9.076
40619SOL    HW223690   4.206  12.172   9.099
40620SOL     OW23691  10.342   2.220   5.910
40620SOL    HW123692  10.359   2.129   5.889
40620SOL    HW223693  10.293   2.254   5.834
40621SOL     OW23694   5.045  10.730   6.432
40621SOL    HW123695   4.986  10.765   6.365
40621SOL    HW223696   5.128  10.717   6.387
40622SOL     OW23697   0.108   1.653  13.864
40622SOL    HW123698   0.178   1.593  13.891
40622SOL    HW223699   0.088   1.703  13.943
40623SOL     OW23700   9.321   1.690  14.792
40623SOL    HW123701   9.385   1.633  14.835
40623SOL    HW223702   9.238   1.642  14.798
40624SOL     OW23703  10.714   6.539  11.150
40624SOL    HW123704  10.648   6.473  11.173
40624SOL    HW223705  10.709   6.604  11.220
40625SOL     OW23706  10.335   5.723   3.780
40625SOL    HW123707  10.401   5.654   3.769
40625SOL    HW223708  10.345   5.778   3.703
40626SOL     OW23709   2.990   3.821   5.120
40626SOL    HW123710   3.040   3.849   5.044
40626SOL    HW223711   3.025   3.872   5.193
40627SOL     OW23712   1.343  14.681  13.076
40627SOL    HW123713   1.348  14.666  13.170
40627SOL    HW223714   1.369  14.773  13.065
40628SOL     OW23715   2.966   5.804  12.220
40628SOL    HW123716   2.931   5.724  12.181
40628SOL    HW223717   3.014   5.774  12.297
40629SOL     OW23718  11.600  11.772   9.301
40629SOL    HW123719  11.603  11.730   9.387
40629SOL    HW223720  11.511  11.755   9.269
40630SOL     OW23721   2.801  10.756   7.959
40630SOL    HW123722   2.823  10.667   7.987
40630SOL    HW223723   2.713  10.748   7.922
40631SOL     OW23724   9.763   5.454   5.298
40631SOL    HW123725   9.795   5.528   5.349
40631SOL    HW223726   9.668   5.458   5.308
40632SOL     OW23727  13.886   2.719  10.466
40632SOL    HW123728  13.793   2.741  10.466
40632SOL    HW223729  13.903   2.687  10.555
40633SOL     OW23730   7.092   1.249   1.746
40633SOL    HW123731   7.033   1.253   1.671
40633SOL    HW223732   7.170   1.297   1.717
40634SOL     OW23733  13.122  13.950  13.567
40634SOL    HW123734  13.186  14.017  13.594
40634SOL    HW223735  13.131  13.946  13.472
40635SOL     OW23736   2.676   3.643  14.543
40635SOL    HW123737   2.588   3.652  14.507
40635SOL    HW223738   2.677   3.701  14.619
40636SOL     OW23739   5.695   5.338  10.876
40636SOL    HW123740   5.784   5.342  10.911
40636SOL    HW223741   5.699   5.272  10.807
40637SOL     OW23742   6.950  14.764   5.420
40637SOL    HW123743   6.874  14.752   5.476
40637SOL    HW223744   7.024  14.763   5.481
40638SOL     OW23745   2.242  10.745   4.538
40638SOL    HW123746   2.283  10.799   4.471
40638SOL    HW223747   2.205  10.809   4.600
40639SOL     OW23748  12.013   7.963  10.742
40639SOL    HW123749  11.934   7.936  10.696
40639SOL    HW223750  11.994   7.947  10.834
40640SOL     OW23751   5.646   6.893   7.146
40640SOL    HW123752   5.619   6.852   7.064
40640SOL    HW223753   5.741   6.879   7.149
40641SOL     OW23754   3.192   7.087   1.660
40641SOL    HW123755   3.231   7.150   1.600
40641SOL    HW223756   3.178   7.008   1.607
40642SOL     OW23757   2.670  12.477   3.132
40642SOL    HW123758   2.635  12.564   3.150
40642SOL    HW223759   2.765  12.486   3.147
40643SOL     OW23760   1.763   9.958   8.885
40643SOL    HW123761   1.720   9.907   8.816
40643SOL    HW223762   1.731   9.920   8.966
40644SOL     OW23763  13.610   5.976  14.568
40644SOL    HW123764  13.653   5.924  14.500
40644SOL    HW223765  13.682   6.018  14.614
40645SOL     OW23766  11.635   1.096   1.456
40645SOL    HW123767  11.594   1.134   1.378
40645SOL    HW223768  11.595   1.010   1.464
40646SOL     OW23769   7.850   5.521   0.054
40646SOL    HW123770   7.892   5.435   0.055
40646SOL    HW223771   7.922   5.583   0.052
40647SOL     OW23772  13.371  12.176   7.901
40647SOL    HW123773  13.290  12.228   7.905
40647SOL    HW223774  13.439  12.235   7.932
40648SOL     OW23775  10.546  13.699   7.283
40648SOL    HW123776  10.508  13.622   7.241
40648SOL    HW223777  10.604  13.664   7.350
40649SOL     OW23778   7.192  14.037   8.483
40649SOL    HW123779   7.259  14.057   8.418
40649SOL    HW223780   7.135  13.974   8.440
40650SOL     OW23781   5.904  11.801   1.572
40650SOL    HW123782   5.938  11.812   1.661
40650SOL    HW223783   5.821  11.755   1.583
40651SOL     OW23784   3.486   5.879   0.318
40651SOL    HW123785   3.503   5.910   0.407
40651SOL    HW223786   3.497   5.956   0.263
40652SOL     OW23787   4.584   7.822   1.396
40652SOL    HW123788   4.565   7.791   1.308
40652SOL    HW223789   4.500   7.818   1.442
40653SOL     OW23790   0.624   5.748  11.127
40653SOL    HW123791   0.614   5.813  11.197
40653SOL    HW223792   0.687   5.685  11.162
40654SOL     OW23793   5.355   0.747  14.694
40654SOL    HW123794   5.446   0.721  14.685
40654SOL    HW223795   5.319   0.687  14.760
40655SOL     OW23796   7.337   2.848   3.902
40655SOL    HW123797   7.330   2.943   3.901
40655SOL    HW223798   7.249   2.817   3.878
40656SOL     OW23799  11.189   4.545   5.649
40656SOL    HW123800  11.181   4.560   5.555
40656SOL    HW223801  11.178   4.450   5.660
40657SOL     OW23802   2.847   7.026   1.540
40657SOL    HW123803   2.901   6.948   1.526
40657SOL    HW223804   2.860   7.079   1.462
40658SOL     OW23805   3.523   6.111   1.683
40658SOL    HW123806   3.493   6.038   1.629
40658SOL    HW223807   3.515   6.079   1.773
40659SOL     OW23808   7.609  10.778   9.899
40659SOL    HW123809   7.614  10.868   9.931
40659SOL    HW223810   7.694  10.740   9.920
40660SOL     OW23811   7.364  13.233  13.304
40660SOL    HW123812   7.431  13.194  13.248
40660SOL    HW223813   7.300  13.269  13.243
40661SOL     OW23814  10.577   6.261  12.282
40661SOL    HW123815  10.605   6.178  12.320
40661SOL    HW223816  10.651   6.291  12.230
40662SOL     OW23817   3.484   6.759   0.702
40662SOL    HW123818   3.459   6.815   0.776
40662SOL    HW223819   3.423   6.783   0.633
40663SOL     OW23820  14.535   0.150  12.449
40663SOL    HW123821  14.452   0.172  12.491
40663SOL    HW223822  14.528   0.187  12.361
40664SOL     OW23823  14.034   6.014   6.688
40664SOL    HW123824  14.046   6.107   6.667
40664SOL    HW223825  14.121   5.976   6.680
40665SOL     OW23826   5.484   6.426  14.032
40665SOL    HW123827   5.566   6.415  14.079
40665SOL    HW223828   5.496   6.379  13.950
40666SOL     OW23829  14.762   9.699   7.144
40666SOL    HW123830  14.830   9.749   7.098
40666SOL    HW223831  14.807   9.658   7.218
40667SOL     OW23832  14.693   0.669  14.176
40667SOL    HW123833  14.634   0.634  14.243
40667SOL    HW223834  14.767   0.703  14.226
40668SOL     OW23835  12.858  11.434   6.242
40668SOL    HW123836  12.799  11.474   6.306
40668SOL    HW223837  12.940  11.481   6.252
40669SOL     OW23838   4.369  10.403  10.802
40669SOL    HW123839   4.435  10.427  10.738
40669SOL    HW223840   4.395  10.317  10.833
40670SOL     OW23841   4.894   9.414   0.446
40670SOL    HW123842   4.986   9.437   0.459
40670SOL    HW223843   4.853   9.429   0.531
40671SOL     OW23844   2.938  10.874  10.904
40671SOL    HW123845   2.926  10.967  10.922
40671SOL    HW223846   2.997  10.844  10.974
40672SOL     OW23847   8.724   6.792   9.158
40672SOL    HW123848   8.660   6.773   9.226
40672SOL    HW223849   8.673   6.826   9.085
40673SOL     OW23850   4.370  13.382  11.677
40673SOL    HW123851   4.417  13.369  11.595
40673SOL    HW223852   4.322  13.464  11.665
40674SOL     OW23853   9.477   4.659   9.275
40674SOL    HW123854   9.389   4.694   9.286
40674SOL    HW223855   9.464   4.572   9.237
40675SOL     OW23856   9.614  14.763  12.247
40675SOL    HW123857   9.656  14.718  12.321
40675SOL    HW223858   9.633  14.855  12.261
40676SOL     OW23859  14.229   6.379   8.636
40676SOL    HW123860  14.143   6.414   8.615
40676SOL    HW223861  14.222   6.349   8.726
40677SOL     OW23862  13.164  11.543   0.091
40677SOL    HW123863  13.137  11.465   0.042
40677SOL    HW223864  13.215  11.509   0.164
40678SOL     OW23865   8.016   5.296  10.757
40678SOL    HW123866   7.929   5.260  10.774
40678SOL    HW223867   8.052   5.239  10.688
40679SOL     OW23868   1.177   3.685  14.107
40679SOL    HW123869   1.119   3.753  14.073
40679SOL    HW223870   1.119   3.625  14.155
40680SOL     OW23871   8.127  14.512   4.338
40680SOL    HW123872   8.179  14.432   4.327
40680SOL    HW223873   8.162  14.572   4.272
40681SOL     OW23874   8.561  14.662   0.812
40681SOL    HW123875   8.623  14.714   0.863
40681SOL    HW223876   8.493  14.639   0.875
40682SOL     OW23877   4.250   7.094   8.628
40682SOL    HW123878   4.236   7.166   8.691
40682SOL    HW223879   4.167   7.046   8.628
40683SOL     OW23880   2.173   3.224   8.226
40683SOL    HW123881   2.117   3.300   8.243
40683SOL    HW223882   2.149   3.196   8.138
40684SOL     OW23883   3.847   6.330  12.738
40684SOL    HW123884   3.781   6.397  12.719
40684SOL    HW223885   3.855   6.331  12.833
40685SOL     OW23886  13.332   4.046   9.237
40685SOL    HW123887  13.265   4.000   9.187
40685SOL    HW223888  13.354   4.122   9.183
40686SOL     OW23889  10.065  12.291  14.307
40686SOL    HW123890  10.009  12.264  14.234
40686SOL    HW223891  10.142  12.329  14.264
40687SOL     OW23892  10.156   8.842   6.250
40687SOL    HW123893  10.199   8.900   6.187
40687SOL    HW223894  10.205   8.760   6.244
40688SOL     OW23895   9.460   1.794  12.111
40688SOL    HW123896   9.496   1.820  12.196
40688SOL    HW223897   9.385   1.852  12.099
40689SOL     OW23898   5.441   6.761   0.635
40689SOL    HW123899   5.536   6.770   0.623
40689SOL    HW223900   5.426   6.666   0.636
40690SOL     OW23901  11.754   9.596   3.226
40690SOL    HW123902  11.797   9.627   3.306
40690SOL    HW223903  11.664   9.576   3.253
40691SOL     OW23904  14.340  12.874  12.069
40691SOL    HW123905  14.397  12.950  12.085
40691SOL    HW223906  14.378  12.804  12.121
40692SOL     OW23907   9.225  10.062   2.426
40692SOL    HW123908   9.162  10.110   2.372
40692SOL    HW223909   9.276  10.011   2.363
40693SOL     OW23910  11.175  14.347  12.289
40693SOL    HW123911  11.181  14.438  12.262
40693SOL    HW223912  11.260  14.328  12.329
40694SOL     OW23913   2.977  13.995  11.983
40694SOL    HW123914   3.036  13.942  11.930
40694SOL    HW223915   2.977  14.081  11.941
40695SOL     OW23916  14.212   5.453   8.981
40695SOL    HW123917  14.164   5.393   8.924
40695SOL    HW223918  14.146   5.517   9.009
40696SOL     OW23919  11.775   8.900   0.574
40696SOL    HW123920  11.718   8.975   0.595
40696SOL    HW223921  11.739   8.864   0.493
40697SOL     OW23922  12.174   6.883   3.513
40697SOL    HW123923  12.106   6.832   3.558
40697SOL    HW223924  12.137   6.970   3.503
40698SOL     OW23925   5.712  11.781   5.516
40698SOL    HW123926   5.796  11.735   5.517
40698SOL    HW223927   5.655  11.727   5.462
40699SOL     OW23928  13.586   2.060   6.706
40699SOL    HW123929  13.517   2.079   6.771
40699SOL    HW223930  13.616   1.972   6.728
40700SOL     OW23931   6.230   3.404   3.925
40700SOL    HW123932   6.273   3.424   4.008
40700SOL    HW223933   6.261   3.471   3.865
40701SOL     OW23934   2.900   3.899   8.100
40701SOL    HW123935   2.992   3.908   8.074
40701SOL    HW223936   2.892   3.954   8.178
40702SOL     OW23937   8.799   0.096  10.302
40702SOL    HW123938   8.888   0.064  10.316
40702SOL    HW223939   8.811   0.179  10.256
40703SOL     OW23940   3.360  10.773   2.596
40703SOL    HW123941   3.411  10.725   2.531
40703SOL    HW223942   3.344  10.859   2.556
40704SOL     OW23943   8.081   3.675   6.737
40704SOL    HW123944   8.041   3.651   6.821
40704SOL    HW223945   8.021   3.741   6.700
40705SOL     OW23946   5.499   8.100  14.464
40705SOL    HW123947   5.411   8.130  14.487
40705SOL    HW223948   5.555   8.131  14.535
40706SOL     OW23949  13.716   2.027  10.017
40706SOL    HW123950  13.633   2.061   9.985
40706SOL    HW223951  13.699   2.000  10.107
40707SOL     OW23952  14.034  11.299   7.614
40707SOL    HW123953  14.109  11.263   7.568
40707SOL    HW223954  14.058  11.390   7.632
40708SOL     OW23955   0.086   4.142  10.895
40708SOL    HW123956   0.172   4.103  10.907
40708SOL    HW223957   0.105   4.231  10.865
40709SOL     OW23958   9.349   1.303  14.124
40709SOL    HW123959   9.415   1.267  14.183
40709SOL    HW223960   9.357   1.398  14.134
40710SOL     OW23961   7.761   1.423  13.918
40710SOL    HW123962   7.815   1.421  13.840
40710SOL    HW223963   7.811   1.374  13.984
40711SOL     OW23964   3.316   0.877   8.024
40711SOL    HW123965   3.367   0.942   8.072
40711SOL    HW223966   3.248   0.850   8.085
40712SOL     OW23967   6.937   4.808  12.255
40712SOL    HW123968   6.994   4.739  12.288
40712SOL    HW223969   6.955   4.812  12.162
40713SOL     OW23970  12.254   0.648  13.147
40713SOL    HW123971  12.243   0.704  13.070
40713SOL    HW223972  12.190   0.682  13.210
40714SOL     OW23973   7.659  14.192   6.028
40714SOL    HW123974   7.623  14.269   6.072
40714SOL    HW223975   7.675  14.221   5.938
40715SOL     OW23976   1.177   0.220   1.471
40715SOL    HW123977   1.192   0.179   1.556
40715SOL    HW223978   1.255   0.274   1.457
40716SOL     OW23979   3.400   3.656  11.618
40716SOL    HW123980   3.333   3.723  11.619
40716SOL    HW223981   3.483   3.704  11.613
40717SOL     OW23982   6.091   0.486   6.098
40717SOL    HW123983   6.068   0.479   6.190
40717SOL    HW223984   6.134   0.404   6.077
40718SOL     OW23985   6.318   6.621   3.239
40718SOL    HW123986   6.368   6.582   3.167
40718SOL    HW223987   6.279   6.546   3.284
40719SOL     OW23988  10.390   4.298   8.456
40719SOL    HW123989  10.342   4.321   8.536
40719SOL    HW223990  10.322   4.293   8.389
40720SOL     OW23991   9.920   3.600   1.510
40720SOL    HW123992   9.850   3.540   1.482
40720SOL    HW223993   9.986   3.591   1.441
40721SOL     OW23994  11.088   9.179   0.646
40721SOL    HW123995  11.129   9.263   0.666
40721SOL    HW223996  11.118   9.158   0.558
40722SOL     OW23997  10.841  10.129  13.958
40722SOL    HW123998  10.832  10.221  13.933
40722SOL    HW223999  10.882  10.132  14.044
40723SOL     OW24000   5.186   1.177   5.825
40723SOL    HW124001   5.155   1.089   5.845
40723SOL    HW224002   5.263   1.164   5.771
40724SOL     OW24003   8.940   7.390   5.476
40724SOL    HW124004   9.028   7.387   5.514
40724SOL    HW224005   8.892   7.320   5.521
40725SOL     OW24006  10.725  13.581   9.318
40725SOL    HW124007  10.685  13.511   9.369
40725SOL    HW224008  10.810  13.546   9.291
40726SOL     OW24009  10.832  11.857   0.080
40726SOL    HW124010  10.853  11.843   0.172
40726SOL    HW224011  10.901  11.811   0.032
40727SOL     OW24012  11.681   2.839   3.374
40727SOL    HW124013  11.749   2.774   3.392
40727SOL    HW224014  11.602   2.803   3.413
40728SOL     OW24015   4.848   6.248  10.915
40728SOL    HW124016   4.920   6.311  10.910
40728SOL    HW224017   4.788   6.285  10.979
40729SOL     OW24018  10.270   8.780   2.187
40729SOL    HW124019  10.205   8.830   2.236
40729SOL    HW224020  10.223   8.752   2.108
40730SOL     OW24021  10.728   0.307  11.713
40730SOL    HW124022  10.649   0.319  11.767
40730SOL    HW224023  10.797   0.284  11.776
40731SOL     OW24024  13.460   4.185  13.940
40731SOL    HW124025  13.481   4.268  13.898
40731SOL    HW224026  13.538   4.131  13.927
40732SOL     OW24027   2.947   7.858   3.737
40732SOL    HW124028   2.933   7.880   3.829
40732SOL    HW224029   2.902   7.927   3.689
40733SOL     OW24030   5.395   0.432   6.735
40733SOL    HW124031   5.396   0.485   6.814
40733SOL    HW224032   5.302   0.423   6.713
40734SOL     OW24033   3.168   6.893  12.828
40734SOL    HW124034   3.241   6.955  12.829
40734SOL    HW224035   3.201   6.816  12.874
40735SOL     OW24036   2.669   6.277   7.220
40735SOL    HW124037   2.694   6.276   7.127
40735SOL    HW224038   2.610   6.352   7.227
40736SOL     OW24039   1.730   0.740  10.540
40736SOL    HW124040   1.802   0.706  10.593
40736SOL    HW224041   1.660   0.759  10.603
40737SOL     OW24042   4.432  12.260   7.274
40737SOL    HW124043   4.495  12.200   7.315
40737SOL    HW224044   4.469  12.277   7.187
40738SOL     OW24045  11.107   6.896  12.348
40738SOL    HW124046  11.142   6.973  12.393
40738SOL    HW224047  11.149   6.898  12.262
40739SOL     OW24048  11.797   8.618   0.705
40739SOL    HW124049  11.801   8.713   0.716
40739SOL    HW224050  11.796   8.604   0.611
40740SOL     OW24051   0.263   5.148   6.432
40740SOL    HW124052   0.258   5.061   6.472
40740SOL    HW224053   0.172   5.171   6.413
40741SOL     OW24054   1.983  12.030   8.921
40741SOL    HW124055   2.011  12.007   8.832
40741SOL    HW224056   2.063  12.061   8.964
40742SOL     OW24057  10.687  10.236   7.323
40742SOL    HW124058  10.736  10.158   7.349
40742SOL    HW224059  10.605  10.201   7.287
40743SOL     OW24060   6.985   3.532   8.814
40743SOL    HW124061   6.931   3.560   8.740
40743SOL    HW224062   6.990   3.609   8.871
40744SOL     OW24063   8.995   2.388   5.454
40744SOL    HW124064   8.920   2.335   5.426
40744SOL    HW224065   9.011   2.447   5.381
40745SOL     OW24066   9.460   0.634   4.294
40745SOL    HW124067   9.432   0.645   4.385
40745SOL    HW224068   9.444   0.542   4.274
40746SOL     OW24069  13.791  12.831   7.572
40746SOL    HW124070  13.698  12.851   7.570
40746SOL    HW224071  13.823  12.853   7.485
40747SOL     OW24072   1.795   1.223  13.818
40747SOL    HW124073   1.811   1.297  13.877
40747SOL    HW224074   1.723   1.175  13.859
40748SOL     OW24075   6.670   8.912   0.261
40748SOL    HW124076   6.587   8.875   0.231
40748SOL    HW224077   6.646   8.982   0.320
40749SOL     OW24078   3.699   5.088   3.153
40749SOL    HW124079   3.659   5.135   3.079
40749SOL    HW224080   3.718   5.156   3.217
40750SOL     OW24081  14.753  13.888   5.194
40750SOL    HW124082  14.767  13.895   5.099
40750SOL    HW224083  14.806  13.958   5.231
40751SOL     OW24084  11.715   3.314   5.730
40751SOL    HW124085  11.793   3.365   5.710
40751SOL    HW224086  11.747   3.225   5.744
40752SOL     OW24087   8.451  13.215  12.226
40752SOL    HW124088   8.401  13.134  12.215
40752SOL    HW224089   8.523  13.208  12.164
40753SOL     OW24090  11.686   3.306  12.927
40753SOL    HW124091  11.665   3.380  12.870
40753SOL    HW224092  11.781   3.306  12.933
40754SOL     OW24093   7.609   5.141   2.503
40754SOL    HW124094   7.639   5.228   2.476
40754SOL    HW224095   7.598   5.093   2.421
40755SOL     OW24096  10.458   1.206   6.470
40755SOL    HW124097  10.424   1.191   6.381
40755SOL    HW224098  10.432   1.128   6.519
40756SOL     OW24099   8.703  10.515   2.025
40756SOL    HW124100   8.710  10.610   2.016
40756SOL    HW224101   8.768  10.481   1.964
40757SOL     OW24102  11.509   8.074   0.440
40757SOL    HW124103  11.512   7.988   0.481
40757SOL    HW224104  11.572   8.127   0.489
40758SOL     OW24105  11.805   8.708   0.063
40758SOL    HW124106  11.796   8.704  14.849
40758SOL    HW224107  11.717   8.728   0.094
40759SOL     OW24108   8.624   9.135  12.433
40759SOL    HW124109   8.706   9.138  12.386
40759SOL    HW224110   8.617   9.045  12.464
40760SOL     OW24111   2.770   0.887   8.766
40760SOL    HW124112   2.785   0.848   8.852
40760SOL    HW224113   2.832   0.843   8.708
40761SOL     OW24114  10.815  11.258   9.108
40761SOL    HW124115  10.805  11.188   9.043
40761SOL    HW224116  10.784  11.336   9.063
40762SOL     OW24117   0.935   0.827   0.157
40762SOL    HW124118   0.882   0.751   0.132
40762SOL    HW224119   0.972   0.803   0.242
40763SOL     OW24120   5.141   2.195   8.215
40763SOL    HW124121   5.215   2.181   8.274
40763SOL    HW224122   5.119   2.288   8.226
40764SOL     OW24123   9.079   1.061  13.492
40764SOL    HW124124   9.016   1.021  13.432
40764SOL    HW224125   9.117   1.133  13.442
40765SOL     OW24126  14.095   6.474  11.067
40765SOL    HW124127  14.035   6.465  10.993
40765SOL    HW224128  14.104   6.569  11.079
40766SOL     OW24129   5.795   0.088   4.562
40766SOL    HW124130   5.814   0.164   4.618
40766SOL    HW224131   5.870   0.029   4.577
40767SOL     OW24132  12.109   9.484   3.966
40767SOL    HW124133  12.020   9.452   3.953
40767SOL    HW224134  12.116   9.500   4.060
40768SOL     OW24135   9.339  10.856  11.833
40768SOL    HW124136   9.269  10.890  11.778
40768SOL    HW224137   9.295  10.797  11.894
40769SOL     OW24138   5.597   2.306   0.243
40769SOL    HW124139   5.512   2.286   0.205
40769SOL    HW224140   5.581   2.380   0.302
40770SOL     OW24141   3.824   7.836  13.938
40770SOL    HW124142   3.867   7.859  14.020
40770SOL    HW224143   3.770   7.761  13.960
40771SOL     OW24144   1.012   7.104  14.338
40771SOL    HW124145   0.929   7.151  14.325
40771SOL    HW224146   1.069   7.139  14.269
40772SOL     OW24147   1.659   0.599   2.298
40772SOL    HW124148   1.617   0.525   2.255
40772SOL    HW224149   1.628   0.596   2.388
40773SOL     OW24150   9.832   5.671  11.866
40773SOL    HW124151   9.815   5.765  11.866
40773SOL    HW224152   9.896   5.659  11.795
40774SOL     OW24153   7.694   2.621   9.430
40774SOL    HW124154   7.604   2.654   9.426
40774SOL    HW224155   7.746   2.697   9.454
40775SOL     OW24156   4.080  14.436   2.591
40775SOL    HW124157   4.113  14.456   2.503
40775SOL    HW224158   4.009  14.373   2.576
40776SOL     OW24159  10.826   5.092   3.811
40776SOL    HW124160  10.868   5.007   3.811
40776SOL    HW224161  10.742   5.078   3.854
40777SOL     OW24162   6.266   4.903   9.901
40777SOL    HW124163   6.357   4.900   9.932
40777SOL    HW224164   6.263   4.839   9.831
40778SOL     OW24165  12.089   7.163  10.876
40778SOL    HW124166  12.130   7.077  10.890
40778SOL    HW224167  12.128   7.220  10.941
40779SOL     OW24168  14.797   2.306   8.524
40779SOL    HW124169  14.744   2.319   8.446
40779SOL    HW224170  14.824   2.214   8.520
40780SOL     OW24171  14.239   7.177   1.164
40780SOL    HW124172  14.145   7.189   1.177
40780SOL    HW224173  14.251   7.083   1.157
40781SOL     OW24174  10.090  11.313   3.784
40781SOL    HW124175  10.033  11.243   3.752
40781SOL    HW224176  10.177  11.290   3.752
40782SOL     OW24177   8.527   5.135   0.241
40782SOL    HW124178   8.569   5.160   0.323
40782SOL    HW224179   8.433   5.145   0.258
40783SOL     OW24180  10.802   1.553   3.203
40783SOL    HW124181  10.760   1.636   3.184
40783SOL    HW224182  10.786   1.538   3.296
40784SOL     OW24183   8.424   5.437  13.624
40784SOL    HW124184   8.470   5.358  13.596
40784SOL    HW224185   8.385   5.413  13.708
40785SOL     OW24186   0.156  10.229   4.384
40785SOL    HW124187   0.213  10.282   4.329
40785SOL    HW224188   0.216  10.180   4.440
40786SOL     OW24189  12.347  10.230  12.995
40786SOL    HW124190  12.344  10.282  13.075
40786SOL    HW224191  12.375  10.143  13.022
40787SOL     OW24192   3.062  10.558   4.365
40787SOL    HW124193   2.975  10.553   4.406
40787SOL    HW224194   3.105  10.477   4.393
40788SOL     OW24195   6.699   2.719   8.374
40788SOL    HW124196   6.704   2.624   8.365
40788SOL    HW224197   6.633   2.734   8.442
40789SOL     OW24198  11.249   7.149   7.486
40789SOL    HW124199  11.341   7.158   7.462
40789SOL    HW224200  11.231   7.223   7.544
40790SOL     OW24201   4.599   2.703   1.824
40790SOL    HW124202   4.625   2.681   1.914
40790SOL    HW224203   4.569   2.794   1.830
40791SOL     OW24204  13.932  10.072   6.017
40791SOL    HW124205  14.004  10.009   6.015
40791SOL    HW224206  13.853  10.018   6.025
40792SOL     OW24207   7.974   6.843   6.094
40792SOL    HW124208   7.973   6.927   6.140
40792SOL    HW224209   7.978   6.865   6.001
40793SOL     OW24210  12.049  13.309   6.016
40793SOL    HW124211  11.992  13.374   5.976
40793SOL    HW224212  12.126  13.357   6.043
40794SOL     OW24213  13.118   2.218   5.336
40794SOL    HW124214  13.024   2.202   5.329
40794SOL    HW224215  13.142   2.181   5.421
40795SOL     OW24216   6.592  11.858  10.295
40795SOL    HW124217   6.627  11.937  10.253
40795SOL    HW224218   6.538  11.892  10.367
40796SOL     OW24219   4.532   3.054   5.911
40796SOL    HW124220   4.588   2.982   5.882
40796SOL    HW224221   4.494   3.023   5.992
40797SOL     OW24222   1.868   3.133   3.870
40797SOL    HW124223   1.825   3.055   3.904
40797SOL    HW224224   1.943   3.099   3.821
40798SOL     OW24225   3.507   5.891  11.478
40798SOL    HW124226   3.500   5.943  11.398
40798SOL    HW224227   3.596   5.907  11.509
40799SOL     OW24228   5.738   0.964   2.844
40799SOL    HW124229   5.801   0.912   2.794
40799SOL    HW224230   5.756   1.054   2.819
40800SOL     OW24231   0.228   3.148   3.184
40800SOL    HW124232   0.276   3.149   3.102
40800SOL    HW224233   0.141   3.115   3.161
40801SOL     OW24234   7.280   4.692  14.675
40801SOL    HW124235   7.288   4.738  14.592
40801SOL    HW224236   7.369   4.666  14.697
40802SOL     OW24237  11.246   8.494   7.787
40802SOL    HW124238  11.335   8.487   7.820
40802SOL    HW224239  11.208   8.408   7.801
40803SOL     OW24240   1.417  13.882   6.679
40803SOL    HW124241   1.465  13.873   6.597
40803SOL    HW224242   1.484  13.893   6.746
40804SOL     OW24243   8.594  13.144  14.496
40804SOL    HW124244   8.617  13.201  14.423
40804SOL    HW224245   8.608  13.198  14.574
40805SOL     OW24246   2.533  10.983   0.556
40805SOL    HW124247   2.583  11.015   0.481
40805SOL    HW224248   2.564  11.037   0.629
40806SOL     OW24249   9.995   6.592  11.019
40806SOL    HW124250  10.022   6.514  10.971
40806SOL    HW224251   9.906   6.574  11.048
40807SOL     OW24252   5.737  10.257   6.737
40807SOL    HW124253   5.713  10.242   6.828
40807SOL    HW224254   5.664  10.306   6.700
40808SOL     OW24255   8.529   4.065   5.360
40808SOL    HW124256   8.589   4.088   5.289
40808SOL    HW224257   8.558   3.978   5.388
40809SOL     OW24258   9.854   1.852   0.997
40809SOL    HW124259   9.893   1.881   0.914
40809SOL    HW224260   9.786   1.790   0.971
40810SOL     OW24261   5.552   4.277   0.710
40810SOL    HW124262   5.567   4.251   0.801
40810SOL    HW224263   5.591   4.364   0.704
40811SOL     OW24264   0.544   7.071   5.784
40811SOL    HW124265   0.603   6.999   5.760
40811SOL    HW224266   0.498   7.092   5.703
40812SOL     OW24267   8.315   5.149   6.914
40812SOL    HW124268   8.343   5.211   6.981
40812SOL    HW224269   8.393   5.095   6.898
40813SOL     OW24270  11.521   3.367   0.658
40813SOL    HW124271  11.585   3.303   0.627
40813SOL    HW224272  11.481   3.328   0.735
40814SOL     OW24273  13.424   9.506  14.815
40814SOL    HW124274  13.431   9.596  14.783
40814SOL    HW224275  13.370   9.462  14.750
40815SOL     OW24276  13.800  11.851   6.145
40815SOL    HW124277  13.886  11.844   6.105
40815SOL    HW224278  13.766  11.935   6.115
40816SOL     OW24279  13.540  12.525   5.800
40816SOL    HW124280  13.546  12.478   5.717
40816SOL    HW224281  13.452  12.562   5.800
40817SOL     OW24282  12.702   9.734   8.984
40817SOL    HW124283  12.693   9.801   9.052
40817SOL    HW224284  12.741   9.659   9.028
40818SOL     OW24285   1.802   0.217  13.011
40818SOL    HW124286   1.794   0.162  12.933
40818SOL    HW224287   1.830   0.157  13.080
40819SOL     OW24288   4.552   9.749  12.188
40819SOL    HW124289   4.542   9.831  12.141
40819SOL    HW224290   4.559   9.683  12.120
40820SOL     OW24291   5.464   1.138   7.784
40820SOL    HW124292   5.388   1.099   7.827
40820SOL    HW224293   5.454   1.232   7.800
40821SOL     OW24294   6.849  11.908  11.242
40821SOL    HW124295   6.813  11.940  11.159
40821SOL    HW224296   6.810  11.821  11.252
40822SOL     OW24297   9.256   3.625   4.460
40822SOL    HW124298   9.326   3.691   4.463
40822SOL    HW224299   9.264   3.586   4.373
40823SOL     OW24300  12.866   5.744   1.234
40823SOL    HW124301  12.778   5.738   1.197
40823SOL    HW224302  12.852   5.744   1.329
40824SOL     OW24303  11.250   0.374   7.779
40824SOL    HW124304  11.253   0.299   7.839
40824SOL    HW224305  11.277   0.448   7.833
40825SOL     OW24306  10.377   2.494   6.525
40825SOL    HW124307  10.371   2.474   6.432
40825SOL    HW224308  10.454   2.550   6.533
40826SOL     OW24309   6.346   1.525  11.772
40826SOL    HW124310   6.333   1.619  11.761
40826SOL    HW224311   6.440   1.514  11.784
40827SOL     OW24312   5.607   1.504  10.016
40827SOL    HW124313   5.596   1.584  10.068
40827SOL    HW224314   5.631   1.438  10.080
40828SOL     OW24315  11.806   7.645   8.979
40828SOL    HW124316  11.821   7.716   9.041
40828SOL    HW224317  11.712   7.628   8.984
40829SOL     OW24318  12.637   8.165   5.711
40829SOL    HW124319  12.627   8.112   5.791
40829SOL    HW224320  12.613   8.105   5.640
40830SOL     OW24321  11.541   4.510   2.163
40830SOL    HW124322  11.595   4.523   2.085
40830SOL    HW224323  11.451   4.525   2.132
40831SOL     OW24324   4.071   3.200   3.689
40831SOL    HW124325   4.156   3.220   3.650
40831SOL    HW224326   4.035   3.130   3.634
40832SOL     OW24327  13.865   2.753   2.222
40832SOL    HW124328  13.830   2.767   2.310
40832SOL    HW224329  13.829   2.668   2.195
40833SOL     OW24330  11.043  10.322  11.381
40833SOL    HW124331  11.049  10.379  11.304
40833SOL    HW224332  10.967  10.354  11.429
40834SOL     OW24333   6.155   5.251   9.458
40834SOL    HW124334   6.149   5.232   9.365
40834SOL    HW224335   6.163   5.165   9.500
40835SOL     OW24336  14.868   3.860  11.614
40835SOL    HW124337   0.002   3.954  11.620
40835SOL    HW224338   0.042   3.831  11.542
40836SOL     OW24339   2.770   3.572   1.286
40836SOL    HW124340   2.777   3.540   1.376
40836SOL    HW224341   2.843   3.531   1.240
40837SOL     OW24342   4.188  14.837   0.766
40837SOL    HW124343   4.150  14.765   0.715
40837SOL    HW224344   4.277  14.807   0.785
40838SOL     OW24345  13.348  11.604   2.422
40838SOL    HW124346  13.356  11.595   2.517
40838SOL    HW224347  13.367  11.697   2.406
40839SOL     OW24348  11.626   4.494  14.170
40839SOL    HW124349  11.689   4.444  14.222
40839SOL    HW224350  11.662   4.493  14.081
40840SOL     OW24351  14.285   5.550  12.527
40840SOL    HW124352  14.297   5.548  12.622
40840SOL    HW224353  14.196   5.583  12.515
40841SOL     OW24354   9.249  14.050   8.011
40841SOL    HW124355   9.257  13.955   8.025
40841SOL    HW224356   9.215  14.058   7.922
40842SOL     OW24357   4.667   6.534  13.943
40842SOL    HW124358   4.641   6.609  13.888
40842SOL    HW224359   4.741   6.496  13.897
40843SOL     OW24360  13.008   1.678  13.968
40843SOL    HW124361  12.985   1.590  13.998
40843SOL    HW224362  13.089   1.665  13.918
40844SOL     OW24363   1.359  11.154   3.185
40844SOL    HW124364   1.377  11.247   3.173
40844SOL    HW224365   1.309  11.129   3.106
40845SOL     OW24366  11.124   8.578   1.123
40845SOL    HW124367  11.209   8.563   1.081
40845SOL    HW224368  11.096   8.663   1.090
40846SOL     OW24369   9.468   6.535   1.121
40846SOL    HW124370   9.504   6.619   1.095
40846SOL    HW224371   9.408   6.511   1.050
40847SOL     OW24372  10.333  12.882   4.774
40847SOL    HW124373  10.268  12.884   4.704
40847SOL    HW224374  10.394  12.813   4.748
40848SOL     OW24375   8.112   2.986   4.178
40848SOL    HW124376   8.155   2.933   4.112
40848SOL    HW224377   8.056   3.046   4.129
40849SOL     OW24378   9.147   7.887   4.818
40849SOL    HW124379   9.055   7.861   4.822
40849SOL    HW224380   9.183   7.863   4.903
40850SOL     OW24381   4.486  12.644  13.157
40850SOL    HW124382   4.485  12.612  13.067
40850SOL    HW224383   4.546  12.719  13.155
40851SOL     OW24384   8.680  12.963  14.026
40851SOL    HW124385   8.763  12.916  14.032
40851SOL    HW224386   8.620  12.912  14.080
40852SOL     OW24387   5.297  11.729   2.488
40852SOL    HW124388   5.369  11.721   2.426
40852SOL    HW224389   5.322  11.671   2.561
40853SOL     OW24390  12.639   9.582   7.389
40853SOL    HW124391  12.703   9.604   7.457
40853SOL    HW224392  12.630   9.486   7.395
40854SOL     OW24393   7.766   5.320   1.854
40854SOL    HW124394   7.731   5.350   1.771
40854SOL    HW224395   7.690   5.317   1.913
40855SOL     OW24396   6.998   6.517  11.183
40855SOL    HW124397   6.910   6.495  11.214
40855SOL    HW224398   7.001   6.612  11.186
40856SOL     OW24399   3.540   0.686   8.249
40856SOL    HW124400   3.452   0.648   8.246
40856SOL    HW224401   3.576   0.669   8.162
40857SOL     OW24402   6.910   0.898   5.327
40857SOL    HW124403   6.872   0.968   5.275
40857SOL    HW224404   6.910   0.932   5.417
40858SOL     OW24405   1.253  14.753   2.932
40858SOL    HW124406   1.315  14.682   2.916
40858SOL    HW224407   1.241  14.754   3.027
40859SOL     OW24408   4.379  10.867  12.436
40859SOL    HW124409   4.451  10.819  12.395
40859SOL    HW224410   4.345  10.806  12.502
40860SOL     OW24411   2.369  10.841  14.537
40860SOL    HW124412   2.419  10.922  14.549
40860SOL    HW224413   2.434  10.771  14.541
40861SOL     OW24414  14.008   1.491   3.211
40861SOL    HW124415  13.963   1.551   3.270
40861SOL    HW224416  13.943   1.472   3.143
40862SOL     OW24417  10.668   2.974   3.199
40862SOL    HW124418  10.626   2.969   3.113
40862SOL    HW224419  10.737   2.908   3.196
40863SOL     OW24420  10.327   6.162   5.412
40863SOL    HW124421  10.351   6.252   5.392
40863SOL    HW224422  10.377   6.142   5.492
40864SOL     OW24423   3.380   5.370  13.410
40864SOL    HW124424   3.411   5.347  13.323
40864SOL    HW224425   3.309   5.309  13.428
40865SOL     OW24426   4.276   6.392   8.520
40865SOL    HW124427   4.358   6.373   8.474
40865SOL    HW224428   4.241   6.469   8.476
40866SOL     OW24429   8.633   2.063  10.357
40866SOL    HW124430   8.689   2.042  10.432
40866SOL    HW224431   8.631   2.159  10.355
40867SOL     OW24432   4.337   4.589   1.778
40867SOL    HW124433   4.397   4.662   1.763
40867SOL    HW224434   4.304   4.603   1.867
40868SOL     OW24435   5.134   2.031  12.267
40868SOL    HW124436   5.134   2.103  12.331
40868SOL    HW224437   5.085   1.961  12.310
40869SOL     OW24438   8.899  14.811   1.405
40869SOL    HW124439   8.969  14.776   1.350
40869SOL    HW224440   8.823  14.756   1.386
40870SOL     OW24441  13.015   9.270  13.186
40870SOL    HW124442  13.102   9.279  13.224
40870SOL    HW224443  12.957   9.317  13.246
40871SOL     OW24444   9.380  10.546   9.872
40871SOL    HW124445   9.404  10.631   9.834
40871SOL    HW224446   9.401  10.483   9.804
40872SOL     OW24447   0.022   0.533   2.199
40872SOL    HW124448   0.060   0.450   2.229
40872SOL    HW224449  14.829   0.508   2.146
40873SOL     OW24450   9.557  13.411   7.778
40873SOL    HW124451   9.574  13.328   7.821
40873SOL    HW224452   9.476  13.443   7.817
40874SOL     OW24453  13.498  13.777  11.569
40874SOL    HW124454  13.477  13.751  11.658
40874SOL    HW224455  13.429  13.839  11.545
40875SOL     OW24456   8.579  11.395  12.868
40875SOL    HW124457   8.663  11.401  12.914
40875SOL    HW224458   8.593  11.442  12.786
40876SOL     OW24459   8.961   5.119   6.781
40876SOL    HW124460   8.902   5.131   6.855
40876SOL    HW224461   9.048   5.108   6.821
40877SOL     OW24462  11.518  10.873  14.108
40877SOL    HW124463  11.426  10.895  14.093
40877SOL    HW224464  11.517  10.809  14.179
40878SOL     OW24465  13.077   6.311   3.693
40878SOL    HW124466  13.034   6.367   3.628
40878SOL    HW224467  13.073   6.361   3.774
40879SOL     OW24468  13.805  11.375  12.697
40879SOL    HW124469  13.825  11.282  12.686
40879SOL    HW224470  13.870  11.420  12.642
40880SOL     OW24471  10.723   0.756   8.667
40880SOL    HW124472  10.762   0.844   8.669
40880SOL    HW224473  10.728   0.729   8.576
40881SOL     OW24474   6.059   7.992  14.635
40881SOL    HW124475   6.107   7.983  14.718
40881SOL    HW224476   6.035   7.902  14.612
40882SOL     OW24477   3.000   7.382   5.248
40882SOL    HW124478   2.914   7.400   5.285
40882SOL    HW224479   3.008   7.443   5.175
40883SOL     OW24480   6.387   6.440  14.867
40883SOL    HW124481   6.391   6.430   0.080
40883SOL    HW224482   6.355   6.355  14.835
40884SOL     OW24483   6.946   9.834   4.430
40884SOL    HW124484   6.909   9.771   4.492
40884SOL    HW224485   6.877   9.899   4.418
40885SOL     OW24486   4.818   6.745   8.102
40885SOL    HW124487   4.877   6.756   8.027
40885SOL    HW224488   4.740   6.704   8.064
40886SOL     OW24489  10.626  14.636  10.343
40886SOL    HW124490  10.614  14.689  10.264
40886SOL    HW224491  10.693  14.572  10.319
40887SOL     OW24492  12.162  13.416  12.288
40887SOL    HW124493  12.210  13.433  12.369
40887SOL    HW224494  12.071  13.435  12.308
40888SOL     OW24495   7.146   3.208   9.052
40888SOL    HW124496   7.098   3.178   9.129
40888SOL    HW224497   7.218   3.146   9.043
40889SOL     OW24498   9.137   5.184  11.520
40889SOL    HW124499   9.174   5.266  11.554
40889SOL    HW224500   9.174   5.116  11.576
40890SOL     OW24501   9.173   6.551   8.667
40890SOL    HW124502   9.263   6.519   8.674
40890SOL    HW224503   9.140   6.510   8.587
40891SOL     OW24504  10.384   8.954  14.515
40891SOL    HW124505  10.475   8.974  14.539
40891SOL    HW224506  10.341   9.039  14.509
40892SOL     OW24507   7.400   5.908  12.422
40892SOL    HW124508   7.323   5.945  12.465
40892SOL    HW224509   7.426   5.835  12.478
40893SOL     OW24510  14.020   8.599  14.307
40893SOL    HW124511  13.979   8.611  14.222
40893SOL    HW224512  14.060   8.512  14.302
40894SOL     OW24513   1.324   2.880   1.982
40894SOL    HW124514   1.268   2.910   1.910
40894SOL    HW224515   1.411   2.872   1.942
40895SOL     OW24516   2.358   0.546   5.111
40895SOL    HW124517   2.330   0.581   5.196
40895SOL    HW224518   2.392   0.459   5.131
40896SOL     OW24519   4.129   1.402   1.868
40896SOL    HW124520   4.125   1.352   1.787
40896SOL    HW224521   4.194   1.356   1.921
40897SOL     OW24522  13.292   8.946   7.528
40897SOL    HW124523  13.241   9.020   7.497
40897SOL    HW224524  13.265   8.873   7.472
40898SOL     OW24525  14.410  14.550  12.111
40898SOL    HW124526  14.422  14.630  12.059
40898SOL    HW224527  14.494  14.536  12.153
40899SOL     OW24528  12.706   3.918   1.492
40899SOL    HW124529  12.616   3.918   1.459
40899SOL    HW224530  12.754   3.862   1.431
40900SOL     OW24531   3.018   4.718   7.802
40900SOL    HW124532   3.091   4.715   7.863
40900SOL    HW224533   2.943   4.687   7.852
40901SOL     OW24534   8.581  13.927  13.150
40901SOL    HW124535   8.503  13.926  13.206
40901SOL    HW224536   8.653  13.909  13.209
40902SOL     OW24537  12.754   7.173   7.996
40902SOL    HW124538  12.755   7.158   8.090
40902SOL    HW224539  12.670   7.215   7.979
40903SOL     OW24540   9.538  10.116   4.654
40903SOL    HW124541   9.593  10.113   4.732
40903SOL    HW224542   9.502  10.028   4.646
40904SOL     OW24543   5.917   5.570  13.135
40904SOL    HW124544   5.957   5.502  13.189
40904SOL    HW224545   5.830   5.535  13.112
40905SOL     OW24546  12.412   7.416   9.768
40905SOL    HW124547  12.463   7.395   9.690
40905SOL    HW224548  12.434   7.346   9.830
40906SOL     OW24549   1.168  12.005   2.927
40906SOL    HW124550   1.188  12.074   2.864
40906SOL    HW224551   1.165  11.925   2.875
40907SOL     OW24552  10.124   0.008   9.920
40907SOL    HW124553  10.165  14.817   9.875
40907SOL    HW224554  10.164   0.008  10.007
40908SOL     OW24555  12.125  14.088   2.520
40908SOL    HW124556  12.078  14.137   2.589
40908SOL    HW224557  12.116  13.996   2.546
40909SOL     OW24558  13.176  12.748  11.718
40909SOL    HW124559  13.209  12.825  11.670
40909SOL    HW224560  13.174  12.776  11.809
40910SOL     OW24561  10.437  14.029   1.113
40910SOL    HW124562  10.461  14.098   1.051
40910SOL    HW224563  10.346  14.048   1.137
40911SOL     OW24564   3.136  12.954   4.623
40911SOL    HW124565   3.229  12.931   4.627
40911SOL    HW224566   3.101  12.931   4.709
40912SOL     OW24567  13.291  13.198   8.444
40912SOL    HW124568  13.253  13.236   8.366
40912SOL    HW224569  13.380  13.233   8.448
40913SOL     OW24570   5.361   0.494   1.646
40913SOL    HW124571   5.364   0.485   1.550
40913SOL    HW224572   5.298   0.564   1.661
40914SOL     OW24573   5.681   7.674  12.387
40914SOL    HW124574   5.636   7.641  12.464
40914SOL    HW224575   5.721   7.597  12.348
40915SOL     OW24576   6.766  12.888  14.103
40915SOL    HW124577   6.819  12.809  14.089
40915SOL    HW224578   6.737  12.882  14.194
40916SOL     OW24579   7.264   7.434   9.563
40916SOL    HW124580   7.209   7.359   9.587
40916SOL    HW224581   7.221   7.472   9.487
40917SOL     OW24582   1.845  11.520  14.794
40917SOL    HW124583   1.827  11.440  14.844
40917SOL    HW224584   1.913  11.494  14.731
40918SOL     OW24585   4.050   9.596  10.926
40918SOL    HW124586   4.018   9.516  10.885
40918SOL    HW224587   4.117   9.629  10.866
40919SOL     OW24588   3.082   1.924  13.582
40919SOL    HW124589   3.157   1.915  13.524
40919SOL    HW224590   3.105   1.996  13.641
40920SOL     OW24591   6.878  13.607   4.108
40920SOL    HW124592   6.833  13.523   4.099
40920SOL    HW224593   6.970  13.584   4.122
40921SOL     OW24594   6.411   3.649   7.994
40921SOL    HW124595   6.432   3.619   8.083
40921SOL    HW224596   6.382   3.739   8.007
40922SOL     OW24597   8.804   3.855   2.703
40922SOL    HW124598   8.893   3.891   2.693
40922SOL    HW224599   8.782   3.822   2.616
40923SOL     OW24600  12.876  13.048   0.132
40923SOL    HW124601  12.823  13.071   0.208
40923SOL    HW224602  12.818  12.994   0.078
40924SOL     OW24603  14.811  11.415   0.384
40924SOL    HW124604  14.739  11.405   0.322
40924SOL    HW224605  14.848  11.501   0.365
40925SOL     OW24606   9.445   0.712  13.716
40925SOL    HW124607   9.410   0.777  13.776
40925SOL    HW224608   9.379   0.643  13.715
40926SOL     OW24609  13.850   8.384   4.988
40926SOL    HW124610  13.824   8.336   5.067
40926SOL    HW224611  13.768   8.423   4.956
40927SOL     OW24612  11.691  10.137   4.575
40927SOL    HW124613  11.715  10.081   4.502
40927SOL    HW224614  11.652  10.214   4.533
40928SOL     OW24615   8.787  12.082  12.444
40928SOL    HW124616   8.825  12.169  12.435
40928SOL    HW224617   8.863  12.024  12.455
40929SOL     OW24618   6.612   9.828   7.285
40929SOL    HW124619   6.648   9.897   7.341
40929SOL    HW224620   6.630   9.858   7.195
40930SOL     OW24621   2.844   4.135   7.689
40930SOL    HW124622   2.851   4.119   7.784
40930SOL    HW224623   2.927   4.103   7.654
40931SOL     OW24624   3.156  11.757   0.981
40931SOL    HW124625   3.239  11.805   0.991
40931SOL    HW224626   3.154  11.698   1.057
40932SOL     OW24627   1.735  11.404   0.722
40932SOL    HW124628   1.829  11.391   0.736
40932SOL    HW224629   1.705  11.321   0.685
40933SOL     OW24630   9.655   5.066  10.311
40933SOL    HW124631   9.627   5.091  10.399
40933SOL    HW224632   9.674   5.148  10.267
40934SOL     OW24633  14.595   8.948   9.720
40934SOL    HW124634  14.577   9.039   9.745
40934SOL    HW224635  14.521   8.924   9.663
40935SOL     OW24636  12.794  12.239   9.540
40935SOL    HW124637  12.770  12.332   9.541
40935SOL    HW224638  12.827  12.225   9.451
40936SOL     OW24639  14.713   2.264   9.336
40936SOL    HW124640  14.717   2.345   9.387
40936SOL    HW224641  14.721   2.292   9.245
40937SOL     OW24642   1.295   2.140   9.914
40937SOL    HW124643   1.312   2.192   9.835
40937SOL    HW224644   1.373   2.084   9.923
40938SOL     OW24645   5.284  10.776  11.901
40938SOL    HW124646   5.358  10.771  11.962
40938SOL    HW224647   5.221  10.713  11.935
40939SOL     OW24648  11.023   2.408   2.939
40939SOL    HW124649  10.952   2.442   2.993
40939SOL    HW224650  11.081   2.363   3.001
40940SOL     OW24651   9.831  13.887   4.459
40940SOL    HW124652   9.800  13.805   4.499
40940SOL    HW224653   9.842  13.865   4.366
40941SOL     OW24654  10.852   0.120   6.212
40941SOL    HW124655  10.864   0.039   6.262
40941SOL    HW224656  10.935   0.132   6.166
40942SOL     OW24657   6.122  11.661   5.749
40942SOL    HW124658   6.149  11.600   5.818
40942SOL    HW224659   6.204  11.685   5.705
40943SOL     OW24660   8.002   6.466   7.506
40943SOL    HW124661   7.986   6.505   7.420
40943SOL    HW224662   7.993   6.371   7.491
40944SOL     OW24663   2.788  14.654   2.188
40944SOL    HW124664   2.858  14.627   2.129
40944SOL    HW224665   2.724  14.697   2.132
40945SOL     OW24666  10.821  11.550   1.858
40945SOL    HW124667  10.835  11.502   1.940
40945SOL    HW224668  10.850  11.639   1.878
40946SOL     OW24669   7.214  10.205   7.493
40946SOL    HW124670   7.212  10.155   7.575
40946SOL    HW224671   7.302  10.190   7.458
40947SOL     OW24672  14.036   2.247   8.547
40947SOL    HW124673  13.946   2.261   8.518
40947SOL    HW224674  14.032   2.256   8.642
40948SOL     OW24675   4.159  14.744  11.837
40948SOL    HW124676   4.076  14.771  11.876
40948SOL    HW224677   4.159  14.648  11.844
40949SOL     OW24678  12.739   1.750   9.147
40949SOL    HW124679  12.828   1.722   9.165
40949SOL    HW224680  12.705   1.686   9.085
40950SOL     OW24681   4.030   1.521   1.224
40950SOL    HW124682   4.061   1.431   1.235
40950SOL    HW224683   4.038   1.560   1.311
40951SOL     OW24684  12.966   4.085   0.467
40951SOL    HW124685  13.029   4.042   0.409
40951SOL    HW224686  12.890   4.027   0.467
40952SOL     OW24687   0.528   8.689  10.152
40952SOL    HW124688   0.569   8.678  10.238
40952SOL    HW224689   0.508   8.600  10.123
40953SOL     OW24690   0.416   8.459   9.135
40953SOL    HW124691   0.465   8.382   9.164
40953SOL    HW224692   0.479   8.531   9.141
40954SOL     OW24693   6.620   5.620  14.452
40954SOL    HW124694   6.703   5.654  14.487
40954SOL    HW224695   6.558   5.692  14.464
40955SOL     OW24696  10.919   9.045   6.624
40955SOL    HW124697  10.923   9.001   6.709
40955SOL    HW224698  10.852   9.113   6.635
40956SOL     OW24699  12.886   0.485  14.070
40956SOL    HW124700  12.884   0.395  14.039
40956SOL    HW224701  12.978   0.512  14.059
40957SOL     OW24702  12.262   9.470   6.702
40957SOL    HW124703  12.258   9.500   6.793
40957SOL    HW224704  12.171   9.465   6.674
40958SOL     OW24705   3.234   2.906  11.913
40958SOL    HW124706   3.185   2.826  11.895
40958SOL    HW224707   3.186   2.948  11.985
40959SOL     OW24708   0.731   0.896  11.432
40959SOL    HW124709   0.757   0.808  11.458
40959SOL    HW224710   0.813   0.939  11.409
40960SOL     OW24711   8.077  12.849   8.187
40960SOL    HW124712   8.023  12.771   8.194
40960SOL    HW224713   8.114  12.845   8.099
40961SOL     OW24714   0.555   6.623   9.105
40961SOL    HW124715   0.555   6.670   9.022
40961SOL    HW224716   0.625   6.558   9.096
40962SOL     OW24717   0.265   8.949  14.867
40962SOL    HW124718   0.329   8.883  14.838
40962SOL    HW224719   0.190   8.937  14.809
40963SOL     OW24720  12.773   5.530   4.455
40963SOL    HW124721  12.695   5.585   4.466
40963SOL    HW224722  12.743   5.442   4.476
40964SOL     OW24723   4.336   6.799  10.878
40964SOL    HW124724   4.341   6.727  10.815
40964SOL    HW224725   4.258   6.848  10.851
40965SOL     OW24726  14.742   3.426   7.086
40965SOL    HW124727  14.703   3.416   6.999
40965SOL    HW224728  14.754   3.520   7.097
40966SOL     OW24729  13.313   3.879   6.870
40966SOL    HW124730  13.265   3.809   6.825
40966SOL    HW224731  13.404   3.865   6.845
40967SOL     OW24732  11.324  12.822   8.127
40967SOL    HW124733  11.252  12.806   8.187
40967SOL    HW224734  11.318  12.751   8.063
40968SOL     OW24735  14.830   4.792   6.867
40968SOL    HW124736  14.848   4.859   6.801
40968SOL    HW224737  14.761   4.738   6.828
40969SOL     OW24738   4.205   8.267  11.295
40969SOL    HW124739   4.240   8.351  11.266
40969SOL    HW224740   4.211   8.210  11.218
40970SOL     OW24741   0.051  12.275   7.488
40970SOL    HW124742  14.863  12.280   7.423
40970SOL    HW224743   0.105  12.353   7.472
40971SOL     OW24744   3.233   5.899   3.602
40971SOL    HW124745   3.324   5.872   3.587
40971SOL    HW224746   3.181   5.840   3.548
40972SOL     OW24747   8.499  10.016   3.055
40972SOL    HW124748   8.450  10.044   2.978
40972SOL    HW224749   8.432   9.993   3.119
40973SOL     OW24750   1.590   3.010   2.808
40973SOL    HW124751   1.522   3.070   2.777
40973SOL    HW224752   1.598   3.029   2.902
40974SOL     OW24753   6.372   5.327  11.164
40974SOL    HW124754   6.360   5.331  11.259
40974SOL    HW224755   6.448   5.270  11.152
40975SOL     OW24756   3.705   0.739  11.164
40975SOL    HW124757   3.700   0.775  11.253
40975SOL    HW224758   3.799   0.725  11.150
40976SOL     OW24759   9.881   3.486   7.433
40976SOL    HW124760   9.898   3.447   7.347
40976SOL    HW224761   9.804   3.440   7.465
40977SOL     OW24762   2.446  13.655  11.558
40977SOL    HW124763   2.541  13.657  11.553
40977SOL    HW224764   2.424  13.563  11.572
40978SOL     OW24765   1.284   1.869  13.167
40978SOL    HW124766   1.353   1.914  13.216
40978SOL    HW224767   1.314   1.871  13.076
40979SOL     OW24768   7.718  12.829  12.932
40979SOL    HW124769   7.793  12.848  12.876
40979SOL    HW224770   7.754  12.825  13.020
40980SOL     OW24771   3.651  13.012   1.752
40980SOL    HW124772   3.727  12.961   1.723
40980SOL    HW224773   3.645  13.085   1.691
40981SOL     OW24774   9.044  13.963   5.030
40981SOL    HW124775   9.045  13.872   5.001
40981SOL    HW224776   9.135  13.982   5.054
40982SOL     OW24777  12.064   8.180  12.071
40982SOL    HW124778  12.051   8.088  12.051
40982SOL    HW224779  12.071   8.183  12.167
40983SOL     OW24780  10.269   7.326   9.029
40983SOL    HW124781  10.199   7.268   9.058
40983SOL    HW224782  10.269   7.318   8.934
40984SOL     OW24783   8.880   1.051   2.717
40984SOL    HW124784   8.855   1.101   2.639
40984SOL    HW224785   8.840   1.098   2.790
40985SOL     OW24786   8.040  13.030  14.079
40985SOL    HW124787   7.979  13.005  14.009
40985SOL    HW224788   7.987  13.081  14.140
40986SOL     OW24789   6.548   7.494   7.042
40986SOL    HW124790   6.526   7.587   7.036
40986SOL    HW224791   6.465   7.449   7.027
40987SOL     OW24792  11.495   2.395   2.399
40987SOL    HW124793  11.512   2.300   2.400
40987SOL    HW224794  11.488   2.416   2.306
40988SOL     OW24795   7.826   2.591   5.392
40988SOL    HW124796   7.797   2.591   5.483
40988SOL    HW224797   7.914   2.629   5.395
40989SOL     OW24798  14.220   2.607   8.479
40989SOL    HW124799  14.139   2.632   8.523
40989SOL    HW224800  14.236   2.518   8.508
40990SOL     OW24801  12.034   4.308  12.789
40990SOL    HW124802  11.994   4.350  12.713
40990SOL    HW224803  12.093   4.243  12.752
40991SOL     OW24804  12.553  13.209   4.970
40991SOL    HW124805  12.464  13.242   4.981
40991SOL    HW224806  12.598  13.233   5.051
40992SOL     OW24807  12.420   0.223   4.708
40992SOL    HW124808  12.513   0.212   4.729
40992SOL    HW224809  12.405   0.163   4.635
40993SOL     OW24810  13.501  13.750  12.061
40993SOL    HW124811  13.413  13.771  12.091
40993SOL    HW224812  13.558  13.778  12.133
40994SOL     OW24813   8.467   1.606   6.785
40994SOL    HW124814   8.494   1.537   6.845
40994SOL    HW224815   8.407   1.562   6.724
40995SOL     OW24816   9.142   1.396  12.232
40995SOL    HW124817   9.061   1.363  12.194
40995SOL    HW224818   9.126   1.490  12.246
40996SOL     OW24819   7.819  14.496  10.971
40996SOL    HW124820   7.828  14.479  10.877
40996SOL    HW224821   7.906  14.525  10.999
40997SOL     OW24822  14.880   2.994   8.629
40997SOL    HW124823   0.082   2.955   8.654
40997SOL    HW224824   0.014   3.032   8.542
40998SOL     OW24825   3.138  11.665  12.292
40998SOL    HW124826   3.181  11.580  12.303
40998SOL    HW224827   3.104  11.663  12.202
40999SOL     OW24828   9.011  14.475  11.446
40999SOL    HW124829   8.954  14.547  11.471
40999SOL    HW224830   8.972  14.439  11.367
41000SOL     OW24831   3.861   4.922   6.002
41000SOL    HW124832   3.814   5.005   6.008
41000SOL    HW224833   3.953   4.945   6.017
41001SOL     OW24834   3.137   8.189   4.694
41001SOL    HW124835   3.197   8.191   4.769
41001SOL    HW224836   3.167   8.114   4.642
41002SOL     OW24837   0.334  13.337   8.802
41002SOL    HW124838   0.319  13.376   8.887
41002SOL    HW224839   0.292  13.396   8.740
41003SOL     OW24840  10.521   3.312   6.522
41003SOL    HW124841  10.535   3.239   6.461
41003SOL    HW224842  10.468   3.374   6.472
41004SOL     OW24843  13.268   4.389   7.157
41004SOL    HW124844  13.352   4.349   7.180
41004SOL    HW224845  13.289   4.481   7.144
41005SOL     OW24846   2.538  11.152   3.607
41005SOL    HW124847   2.509  11.061   3.603
41005SOL    HW224848   2.621  11.154   3.560
41006SOL     OW24849   1.965   1.380  11.372
41006SOL    HW124850   1.917   1.311  11.327
41006SOL    HW224851   2.057   1.352  11.369
41007SOL     OW24852   2.203   0.449   6.752
41007SOL    HW124853   2.271   0.389   6.783
41007SOL    HW224854   2.180   0.501   6.829
41008SOL     OW24855  13.058   1.151   4.516
41008SOL    HW124856  13.064   1.218   4.448
41008SOL    HW224857  13.052   1.200   4.598
41009SOL     OW24858   8.586  12.685  11.809
41009SOL    HW124859   8.578  12.774  11.843
41009SOL    HW224860   8.669  12.685  11.762
41010SOL     OW24861   5.111  10.561  11.558
41010SOL    HW124862   5.166  10.633  11.591
41010SOL    HW224863   5.057  10.601  11.490
41011SOL     OW24864   3.849  14.449   3.617
41011SOL    HW124865   3.944  14.434   3.611
41011SOL    HW224866   3.816  14.374   3.666
41012SOL     OW24867   6.809   2.353  10.211
41012SOL    HW124868   6.776   2.385  10.295
41012SOL    HW224869   6.860   2.426  10.176
41013SOL     OW24870   3.652  12.222   3.262
41013SOL    HW124871   3.629  12.306   3.302
41013SOL    HW224872   3.698  12.246   3.181
41014SOL     OW24873   0.919   0.005   8.243
41014SOL    HW124874   0.929  14.850   8.156
41014SOL    HW224875   0.980   0.080   8.245
41015SOL     OW24876   1.782   0.247   8.647
41015SOL    HW124877   1.867   0.264   8.689
41015SOL    HW224878   1.756   0.332   8.610
41016SOL     OW24879  12.710   6.639   4.495
41016SOL    HW124880  12.653   6.668   4.423
41016SOL    HW224881  12.751   6.559   4.461
41017SOL     OW24882  11.774   3.399   9.618
41017SOL    HW124883  11.794   3.418   9.527
41017SOL    HW224884  11.747   3.307   9.618
41018SOL     OW24885   7.370  12.161   2.639
41018SOL    HW124886   7.384  12.135   2.730
41018SOL    HW224887   7.447  12.127   2.593
41019SOL     OW24888   9.066   4.593   6.026
41019SOL    HW124889   9.114   4.521   6.068
41019SOL    HW224890   9.130   4.664   6.021
41020SOL     OW24891  12.649   5.954   3.930
41020SOL    HW124892  12.687   6.035   3.897
41020SOL    HW224893  12.666   5.889   3.861
41021SOL     OW24894  11.050  12.857   6.308
41021SOL    HW124895  11.108  12.931   6.295
41021SOL    HW224896  11.071  12.824   6.395
41022SOL     OW24897   7.815   8.260  12.102
41022SOL    HW124898   7.783   8.280  12.015
41022SOL    HW224899   7.833   8.345  12.142
41023SOL     OW24900   0.551  10.582  10.315
41023SOL    HW124901   0.499  10.662  10.302
41023SOL    HW224902   0.527  10.552  10.402
41024SOL     OW24903   8.440   0.661   3.863
41024SOL    HW124904   8.386   0.584   3.845
41024SOL    HW224905   8.409   0.727   3.802
41025SOL     OW24906   6.211  11.950  12.268
41025SOL    HW124907   6.149  11.878  12.282
41025SOL    HW224908   6.278  11.937  12.334
41026SOL     OW24909   1.261   4.585   3.972
41026SOL    HW124910   1.280   4.676   3.993
41026SOL    HW224911   1.217   4.588   3.887
41027SOL     OW24912   2.573   3.760   8.031
41027SOL    HW124913   2.576   3.812   7.951
41027SOL    HW224914   2.656   3.713   8.032
41028SOL     OW24915  14.316   3.481  11.070
41028SOL    HW124916  14.224   3.463  11.087
41028SOL    HW224917  14.354   3.498  11.156
41029SOL     OW24918   9.768   5.606  10.189
41029SOL    HW124919   9.674   5.618  10.170
41029SOL    HW224920   9.812   5.630  10.108
41030SOL     OW24921  14.519   9.487   1.671
41030SOL    HW124922  14.478   9.406   1.700
41030SOL    HW224923  14.540   9.534   1.752
41031SOL     OW24924   4.596   2.925   8.804
41031SOL    HW124925   4.627   2.953   8.718
41031SOL    HW224926   4.639   2.841   8.819
41032SOL     OW24927  12.591   3.229  10.375
41032SOL    HW124928  12.593   3.288  10.300
41032SOL    HW224929  12.595   3.141  10.337
41033SOL     OW24930   0.823   2.046   6.421
41033SOL    HW124931   0.827   1.967   6.368
41033SOL    HW224932   0.730   2.068   6.425
41034SOL     OW24933   1.182   4.893   1.129
41034SOL    HW124934   1.234   4.942   1.065
41034SOL    HW224935   1.246   4.845   1.181
41035SOL     OW24936   0.615   9.032   5.630
41035SOL    HW124937   0.607   9.100   5.697
41035SOL    HW224938   0.661   8.961   5.674
41036SOL     OW24939  14.395   0.082   3.095
41036SOL    HW124940  14.307   0.120   3.101
41036SOL    HW224941  14.405   0.032   3.176
41037SOL     OW24942   3.900  13.484   9.165
41037SOL    HW124943   3.918  13.556   9.225
41037SOL    HW224944   3.822  13.442   9.201
41038SOL     OW24945   4.992   0.939   3.282
41038SOL    HW124946   4.904   0.904   3.272
41038SOL    HW224947   5.027   0.895   3.359
41039SOL     OW24948  13.157  12.853   7.214
41039SOL    HW124949  13.091  12.846   7.283
41039SOL    HW224950  13.128  12.790   7.148
41040SOL     OW24951  12.679   6.401   5.433
41040SOL    HW124952  12.683   6.490   5.397
41040SOL    HW224953  12.596   6.366   5.402
41041SOL     OW24954  10.682   8.719   0.768
41041SOL    HW124955  10.610   8.689   0.712
41041SOL    HW224956  10.688   8.813   0.753
41042SOL     OW24957   6.114   4.612   6.845
41042SOL    HW124958   6.071   4.592   6.762
41042SOL    HW224959   6.206   4.628   6.822
41043SOL     OW24960   6.150   9.502  11.282
41043SOL    HW124961   6.139   9.461  11.197
41043SOL    HW224962   6.069   9.483  11.329
41044SOL     OW24963   2.585   3.793  14.761
41044SOL    HW124964   2.643   3.851  14.712
41044SOL    HW224965   2.571   3.839  14.844
41045SOL     OW24966   2.685   9.841   2.944
41045SOL    HW124967   2.764   9.868   2.896
41045SOL    HW224968   2.617   9.901   2.914
41046SOL     OW24969   5.363  10.926   0.229
41046SOL    HW124970   5.309  10.874   0.171
41046SOL    HW224971   5.310  10.938   0.307
41047SOL     OW24972  13.121   3.266  11.906
41047SOL    HW124973  13.163   3.272  11.820
41047SOL    HW224974  13.112   3.172  11.922
41048SOL     OW24975  13.063   1.567   0.402
41048SOL    HW124976  13.046   1.504   0.333
41048SOL    HW224977  13.026   1.528   0.481
41049SOL     OW24978   4.944   7.375   5.124
41049SOL    HW124979   4.862   7.328   5.112
41049SOL    HW224980   4.968   7.404   5.036
41050SOL     OW24981  14.770   7.659   7.569
41050SOL    HW124982  14.687   7.680   7.527
41050SOL    HW224983  14.748   7.652   7.662
41051SOL     OW24984   0.971  10.771  12.659
41051SOL    HW124985   0.909  10.701  12.636
41051SOL    HW224986   0.932  10.850  12.621
41052SOL     OW24987   8.499  11.166  12.764
41052SOL    HW124988   8.522  11.228  12.833
41052SOL    HW224989   8.520  11.080  12.801
41053SOL     OW24990   5.403   5.595  12.536
41053SOL    HW124991   5.408   5.500  12.532
41053SOL    HW224992   5.332   5.618  12.475
41054SOL     OW24993  13.149   2.458   4.658
41054SOL    HW124994  13.065   2.417   4.636
41054SOL    HW224995  13.213   2.388   4.648
41055SOL     OW24996   5.643   7.085   8.351
41055SOL    HW124997   5.557   7.088   8.394
41055SOL    HW224998   5.627   7.040   8.268
41056SOL     OW24999   9.601   5.585   3.845
41056SOL    HW125000   9.670   5.543   3.793
41056SOL    HW225001   9.543   5.514   3.869
41057SOL     OW25002   9.833   3.497   3.634
41057SOL    HW125003   9.856   3.416   3.589
41057SOL    HW225004   9.828   3.563   3.565
41058SOL     OW25005  10.712   7.398   1.138
41058SOL    HW125006  10.808   7.402   1.136
41058SOL    HW225007  10.685   7.490   1.145
41059SOL     OW25008   6.880   6.711   7.950
41059SOL    HW125009   6.970   6.687   7.928
41059SOL    HW225010   6.885   6.743   8.041
41060SOL     OW25011   8.207   5.136  14.500
41060SOL    HW125012   8.180   5.189  14.425
41060SOL    HW225013   8.128   5.127  14.553
41061SOL     OW25014   1.630   7.976   0.187
41061SOL    HW125015   1.575   8.014   0.119
41061SOL    HW225016   1.716   8.017   0.173
41062SOL     OW25017  11.552  11.343   1.606
41062SOL    HW125018  11.631  11.289   1.603
41062SOL    HW225019  11.583  11.432   1.621
41063SOL     OW25020  11.273  12.995   4.084
41063SOL    HW125021  11.289  12.953   4.168
41063SOL    HW225022  11.286  12.925   4.019
41064SOL     OW25023   7.392  12.444  13.189
41064SOL    HW125024   7.393  12.482  13.277
41064SOL    HW225025   7.454  12.371  13.195
41065SOL     OW25026   8.540   3.511  13.595
41065SOL    HW125027   8.454   3.521  13.553
41065SOL    HW225028   8.598   3.565  13.542
41066SOL     OW25029  14.246   2.232   1.196
41066SOL    HW125030  14.296   2.176   1.255
41066SOL    HW225031  14.245   2.318   1.240
41067SOL     OW25032   1.026   9.899   1.707
41067SOL    HW125033   1.064   9.953   1.777
41067SOL    HW225034   0.974   9.960   1.655
41068SOL     OW25035   6.243   2.045   3.134
41068SOL    HW125036   6.153   2.072   3.114
41068SOL    HW225037   6.244   1.951   3.115
41069SOL     OW25038  10.874  11.448   5.787
41069SOL    HW125039  10.783  11.418   5.783
41069SOL    HW225040  10.901  11.456   5.696
41070SOL     OW25041  13.799   5.034   9.258
41070SOL    HW125042  13.861   5.042   9.186
41070SOL    HW225043  13.714   5.023   9.216
41071SOL     OW25044   6.655   7.026   8.704
41071SOL    HW125045   6.588   7.001   8.767
41071SOL    HW225046   6.606   7.058   8.628
41072SOL     OW25047  13.693   7.504  10.980
41072SOL    HW125048  13.614   7.538  11.022
41072SOL    HW225049  13.762   7.519  11.044
41073SOL     OW25050   8.025   5.659   1.059
41073SOL    HW125051   7.939   5.641   1.021
41073SOL    HW225052   8.085   5.659   0.983
41074SOL     OW25053  10.530   6.189   3.835
41074SOL    HW125054  10.533   6.220   3.926
41074SOL    HW225055  10.539   6.269   3.782
41075SOL     OW25056  11.506   7.298  12.565
41075SOL    HW125057  11.592   7.309  12.606
41075SOL    HW225058  11.489   7.381  12.522
41076SOL     OW25059   7.905   9.622  10.600
41076SOL    HW125060   7.915   9.529  10.579
41076SOL    HW225061   7.812   9.632  10.619
41077SOL     OW25062  13.987  12.449  11.858
41077SOL    HW125063  13.922  12.463  11.927
41077SOL    HW225064  14.016  12.359  11.870
41078SOL     OW25065   3.611   0.475   2.454
41078SOL    HW125066   3.639   0.388   2.483
41078SOL    HW225067   3.691   0.517   2.425
41079SOL     OW25068   3.790   9.584   2.186
41079SOL    HW125069   3.711   9.549   2.226
41079SOL    HW225070   3.810   9.523   2.114
41080SOL     OW25071   6.516   4.901   8.109
41080SOL    HW125072   6.536   4.840   8.038
41080SOL    HW225073   6.457   4.853   8.166
41081SOL     OW25074   7.822   5.318  11.682
41081SOL    HW125075   7.895   5.339  11.623
41081SOL    HW225076   7.840   5.229  11.712
41082SOL     OW25077   0.453  10.766  10.613
41082SOL    HW125078   0.427  10.759  10.522
41082SOL    HW225079   0.534  10.715  10.619
41083SOL     OW25080   2.391   1.173   6.920
41083SOL    HW125081   2.311   1.218   6.893
41083SOL    HW225082   2.453   1.244   6.938
41084SOL     OW25083  14.186   7.059   7.288
41084SOL    HW125084  14.109   7.067   7.232
41084SOL    HW225085  14.252   7.115   7.246
41085SOL     OW25086   6.671   9.352  10.315
41085SOL    HW125087   6.694   9.271  10.269
41085SOL    HW225088   6.614   9.398  10.254
41086SOL     OW25089   1.347   3.313   7.126
41086SOL    HW125090   1.325   3.268   7.045
41086SOL    HW225091   1.346   3.245   7.193
41087SOL     OW25092  13.486   6.345   5.987
41087SOL    HW125093  13.482   6.350   5.891
41087SOL    HW225094  13.556   6.406   6.011
41088SOL     OW25095   9.987   8.581   4.606
41088SOL    HW125096  10.058   8.578   4.542
41088SOL    HW225097   9.976   8.491   4.634
41089SOL     OW25098   2.054   6.894   2.392
41089SOL    HW125099   2.144   6.907   2.420
41089SOL    HW225100   2.046   6.799   2.381
41090SOL     OW25101   7.931   4.970  12.910
41090SOL    HW125102   7.910   5.054  12.870
41090SOL    HW225103   7.869   4.961  12.983
41091SOL     OW25104  14.336   0.708   6.196
41091SOL    HW125105  14.322   0.796   6.161
41091SOL    HW225106  14.429   0.691   6.184
41092SOL     OW25107   4.923  10.747   1.691
41092SOL    HW125108   4.948  10.765   1.782
41092SOL    HW225109   4.841  10.698   1.699
41093SOL     OW25110   0.782   4.792   3.343
41093SOL    HW125111   0.720   4.866   3.341
41093SOL    HW225112   0.742   4.729   3.403
41094SOL     OW25113   6.560   5.551   7.622
41094SOL    HW125114   6.503   5.594   7.558
41094SOL    HW225115   6.588   5.621   7.680
41095SOL     OW25116  13.236   2.391  13.651
41095SOL    HW125117  13.294   2.463  13.675
41095SOL    HW225118  13.184   2.375  13.730
41096SOL     OW25119   8.753  13.371   2.758
41096SOL    HW125120   8.839  13.414   2.761
41096SOL    HW225121   8.773  13.280   2.737
41097SOL     OW25122   1.426   5.227   9.841
41097SOL    HW125123   1.387   5.151   9.882
41097SOL    HW225124   1.440   5.201   9.750
41098SOL     OW25125  11.574   1.310  12.398
41098SOL    HW125126  11.626   1.312  12.318
41098SOL    HW225127  11.484   1.300  12.367
41099SOL     OW25128   3.259   5.080   8.049
41099SOL    HW125129   3.324   5.065   8.118
41099SOL    HW225130   3.185   5.120   8.094
41100SOL     OW25131   4.866   7.050   4.452
41100SOL    HW125132   4.848   6.969   4.499
41100SOL    HW225133   4.892   7.113   4.519
41101SOL     OW25134   3.823   4.148   3.794
41101SOL    HW125135   3.738   4.187   3.774
41101SOL    HW225136   3.828   4.150   3.890
41102SOL     OW25137  12.848  10.110   3.224
41102SOL    HW125138  12.841  10.048   3.298
41102SOL    HW225139  12.929  10.157   3.241
41103SOL     OW25140  14.349   4.864   8.896
41103SOL    HW125141  14.318   4.798   8.959
41103SOL    HW225142  14.441   4.842   8.883
41104SOL     OW25143  10.157  13.169   0.136
41104SOL    HW125144  10.226  13.121   0.091
41104SOL    HW225145  10.126  13.232   0.071
41105SOL     OW25146   0.624   0.522   8.491
41105SOL    HW125147   0.613   0.606   8.537
41105SOL    HW225148   0.536   0.485   8.486
41106SOL     OW25149  14.179   3.879  10.067
41106SOL    HW125150  14.138   3.954  10.111
41106SOL    HW225151  14.151   3.886   9.976
41107SOL     OW25152   0.865   0.015   4.893
41107SOL    HW125153   0.917  14.823   4.924
41107SOL    HW225154   0.917   0.092   4.916
41108SOL     OW25155   1.244   6.959   5.572
41108SOL    HW125156   1.151   6.952   5.551
41108SOL    HW225157   1.278   6.870   5.563
41109SOL     OW25158   2.381   5.023   1.951
41109SOL    HW125159   2.303   5.010   1.897
41109SOL    HW225160   2.401   4.937   1.986
41110SOL     OW25161   7.759  11.433   8.844
41110SOL    HW125162   7.785  11.392   8.761
41110SOL    HW225163   7.838  11.432   8.897
41111SOL     OW25164   4.139   3.741  13.313
41111SOL    HW125165   4.177   3.723  13.399
41111SOL    HW225166   4.139   3.656  13.268
41112SOL     OW25167   2.149  14.076   1.054
41112SOL    HW125168   2.245  14.071   1.060
41112SOL    HW225169   2.118  14.031   1.132
41113SOL     OW25170   9.614  10.020   1.009
41113SOL    HW125171   9.547   9.997   1.073
41113SOL    HW225172   9.663   9.938   0.996
41114SOL     OW25173  14.358   8.888   9.613
41114SOL    HW125174  14.279   8.940   9.599
41114SOL    HW225175  14.330   8.815   9.668
41115SOL     OW25176   4.912   7.055   7.500
41115SOL    HW125177   4.923   7.134   7.553
41115SOL    HW225178   4.951   6.985   7.553
41116SOL     OW25179   6.857   0.477  12.777
41116SOL    HW125180   6.893   0.523  12.701
41116SOL    HW225181   6.923   0.487  12.845
41117SOL     OW25182   9.347   2.431   9.618
41117SOL    HW125183   9.332   2.521   9.645
41117SOL    HW225184   9.300   2.378   9.682
41118SOL     OW25185   1.744   9.153  13.515
41118SOL    HW125186   1.822   9.103  13.489
41118SOL    HW225187   1.775   9.243  13.523
41119SOL     OW25188  12.512  13.827   6.193
41119SOL    HW125189  12.548  13.912   6.220
41119SOL    HW225190  12.417  13.842   6.191
41120SOL     OW25191   9.188   8.676  14.697
41120SOL    HW125192   9.275   8.652  14.729
41120SOL    HW225193   9.169   8.760  14.738
41121SOL     OW25194  13.047   8.066  11.219
41121SOL    HW125195  13.077   8.116  11.143
41121SOL    HW225196  13.103   7.988  11.220
41122SOL     OW25197   8.123   8.105   8.597
41122SOL    HW125198   8.192   8.145   8.545
41122SOL    HW225199   8.154   8.017   8.615
41123SOL     OW25200   3.516   2.324   2.758
41123SOL    HW125201   3.557   2.392   2.705
41123SOL    HW225202   3.427   2.354   2.773
41124SOL     OW25203   6.177  13.357  10.191
41124SOL    HW125204   6.152  13.354  10.099
41124SOL    HW225205   6.122  13.291  10.233
41125SOL     OW25206   1.525   2.048   6.219
41125SOL    HW125207   1.532   1.953   6.215
41125SOL    HW225208   1.552   2.078   6.132
41126SOL     OW25209   5.239  12.451   4.027
41126SOL    HW125210   5.312  12.414   4.077
41126SOL    HW225211   5.182  12.377   4.009
41127SOL     OW25212   5.875  11.157   6.599
41127SOL    HW125213   5.845  11.147   6.690
41127SOL    HW225214   5.835  11.240   6.570
41128SOL     OW25215  10.905  11.023  13.336
41128SOL    HW125216  10.922  11.105  13.381
41128SOL    HW225217  10.991  10.994  13.305
41129SOL     OW25218  10.882  13.441   8.791
41129SOL    HW125219  10.965  13.483   8.811
41129SOL    HW225220  10.816  13.502   8.825
41130SOL     OW25221   0.080   1.044  13.095
41130SOL    HW125222   0.048   1.008  13.013
41130SOL    HW225223   0.001   1.055  13.149
41131SOL     OW25224   4.326   9.280  10.199
41131SOL    HW125225   4.320   9.332  10.280
41131SOL    HW225226   4.406   9.229  10.209
41132SOL     OW25227   2.358   3.974   7.739
41132SOL    HW125228   2.318   3.977   7.826
41132SOL    HW225229   2.289   4.001   7.679
41133SOL     OW25230  14.056   5.609   3.632
41133SOL    HW125231  14.104   5.684   3.596
41133SOL    HW225232  14.113   5.534   3.614
41134SOL     OW25233   4.379  11.671  10.721
41134SOL    HW125234   4.346  11.752  10.761
41134SOL    HW225235   4.301  11.629  10.685
41135SOL     OW25236  10.701   6.729  12.481
41135SOL    HW125237  10.793   6.702  12.490
41135SOL    HW225238  10.664   6.665  12.420
41136SOL     OW25239  14.302   0.587   0.828
41136SOL    HW125240  14.335   0.523   0.764
41136SOL    HW225241  14.381   0.629   0.862
41137SOL     OW25242   0.039   9.795  13.418
41137SOL    HW125243   0.035   9.759  13.507
41137SOL    HW225244   0.070   9.885  13.430
41138SOL     OW25245  14.825   4.940   2.947
41138SOL    HW125246  14.760   4.985   3.000
41138SOL    HW225247  14.876   4.888   3.009
41139SOL     OW25248  13.559  12.231  14.304
41139SOL    HW125249  13.561  12.326  14.320
41139SOL    HW225250  13.585  12.193  14.388
41140SOL     OW25251   1.383   9.261   6.093
41140SOL    HW125252   1.318   9.197   6.122
41140SOL    HW225253   1.409   9.307   6.172
41141SOL     OW25254  10.622   4.459   6.762
41141SOL    HW125255  10.656   4.439   6.849
41141SOL    HW225256  10.555   4.527   6.777
41142SOL     OW25257   8.994  12.400  13.031
41142SOL    HW125258   9.037  12.370  13.111
41142SOL    HW225259   8.977  12.320  12.982
41143SOL     OW25260   4.440   4.956   3.175
41143SOL    HW125261   4.442   5.008   3.255
41143SOL    HW225262   4.413   5.018   3.106
41144SOL     OW25263   1.371   0.478  11.868
41144SOL    HW125264   1.313   0.502  11.941
41144SOL    HW225265   1.314   0.428  11.809
41145SOL     OW25266   5.651   3.134  10.035
41145SOL    HW125267   5.673   3.197  10.103
41145SOL    HW225268   5.677   3.049  10.071
41146SOL     OW25269   6.250   8.911   2.346
41146SOL    HW125270   6.157   8.895   2.362
41146SOL    HW225271   6.260   8.903   2.251
41147SOL     OW25272   7.917  12.435   4.097
41147SOL    HW125273   8.012  12.436   4.094
41147SOL    HW225274   7.894  12.343   4.111
41148SOL     OW25275   7.025   1.122  13.912
41148SOL    HW125276   6.942   1.092  13.876
41148SOL    HW225277   7.032   1.213  13.881
41149SOL     OW25278   8.486  12.667   6.258
41149SOL    HW125279   8.459  12.591   6.310
41149SOL    HW225280   8.572  12.690   6.292
41150SOL     OW25281   2.865  14.498   2.612
41150SOL    HW125282   2.931  14.450   2.662
41150SOL    HW225283   2.893  14.589   2.616
41151SOL     OW25284   8.506   7.334   1.260
41151SOL    HW125285   8.600   7.336   1.279
41151SOL    HW225286   8.472   7.260   1.310
41152SOL     OW25287   1.513   7.320   4.487
41152SOL    HW125288   1.494   7.277   4.570
41152SOL    HW225289   1.600   7.358   4.499
41153SOL     OW25290   8.367   9.567  14.414
41153SOL    HW125291   8.404   9.507  14.479
41153SOL    HW225292   8.380   9.654  14.452
41154SOL     OW25293   0.351   7.706   6.422
41154SOL    HW125294   0.370   7.625   6.469
41154SOL    HW225295   0.426   7.718   6.363
41155SOL     OW25296  13.248  13.631   5.808
41155SOL    HW125297  13.264  13.662   5.897
41155SOL    HW225298  13.210  13.706   5.763
41156SOL     OW25299   0.002   6.617   0.541
41156SOL    HW125300  14.882   6.643   0.449
41156SOL    HW225301   0.029   6.525   0.538
41157SOL     OW25302  12.293   8.169  14.701
41157SOL    HW125303  12.308   8.114  14.624
41157SOL    HW225304  12.216   8.222  14.678
41158SOL     OW25305   4.134   1.686  12.816
41158SOL    HW125306   4.122   1.644  12.731
41158SOL    HW225307   4.219   1.729  12.809
41159SOL     OW25308   2.121   4.245   3.884
41159SOL    HW125309   2.029   4.243   3.913
41159SOL    HW225310   2.124   4.315   3.819
41160SOL     OW25311  12.685  10.524   4.839
41160SOL    HW125312  12.594  10.534   4.812
41160SOL    HW225313  12.712  10.612   4.867
41161SOL     OW25314   3.912   3.220   9.501
41161SOL    HW125315   3.898   3.138   9.454
41161SOL    HW225316   4.007   3.232   9.502
41162SOL     OW25317   0.018  14.050   1.208
41162SOL    HW125318  14.864  14.059   1.296
41162SOL    HW225319   0.050  14.138   1.187
41163SOL     OW25320  11.878   6.830  11.013
41163SOL    HW125321  11.973   6.830  11.011
41163SOL    HW225322  11.856   6.870  11.098
41164SOL     OW25323  11.453   3.395  12.604
41164SOL    HW125324  11.429   3.303  12.597
41164SOL    HW225325  11.443   3.430  12.516
41165SOL     OW25326   5.775  11.144  13.808
41165SOL    HW125327   5.788  11.203  13.883
41165SOL    HW225328   5.855  11.092  13.805
41166SOL     OW25329  13.518   2.718   9.256
41166SOL    HW125330  13.521   2.765   9.339
41166SOL    HW225331  13.506   2.626   9.281
41167SOL     OW25332  14.151   8.113   7.204
41167SOL    HW125333  14.211   8.132   7.132
41167SOL    HW225334  14.068   8.092   7.160
41168SOL     OW25335  10.895   0.213  11.896
41168SOL    HW125336  10.837   0.147  11.935
41168SOL    HW225337  10.972   0.213  11.952
41169SOL     OW25338   2.501  13.430   7.119
41169SOL    HW125339   2.466  13.461   7.202
41169SOL    HW225340   2.491  13.335   7.123
41170SOL     OW25341   9.721   8.938   0.096
41170SOL    HW125342   9.740   9.031   0.081
41170SOL    HW225343   9.630   8.927   0.067
41171SOL     OW25344  14.275  10.442   3.712
41171SOL    HW125345  14.311  10.519   3.754
41171SOL    HW225346  14.200  10.475   3.662
41172SOL     OW25347  12.486  10.227   3.833
41172SOL    HW125348  12.469  10.155   3.772
41172SOL    HW225349  12.482  10.306   3.779
41173SOL     OW25350  11.971  11.642   8.160
41173SOL    HW125351  11.969  11.648   8.255
41173SOL    HW225352  11.978  11.548   8.141
41174SOL     OW25353   8.378   7.237   2.564
41174SOL    HW125354   8.434   7.311   2.585
41174SOL    HW225355   8.329   7.264   2.487
41175SOL     OW25356  11.878   0.832   9.812
41175SOL    HW125357  11.868   0.846   9.718
41175SOL    HW225358  11.875   0.920   9.850
41176SOL     OW25359  10.611  12.175   0.671
41176SOL    HW125360  10.536  12.217   0.628
41176SOL    HW225361  10.599  12.082   0.654
41177SOL     OW25362   9.354   2.364   4.212
41177SOL    HW125363   9.265   2.336   4.234
41177SOL    HW225364   9.364   2.448   4.256
41178SOL     OW25365   9.273  11.813  12.211
41178SOL    HW125366   9.245  11.743  12.269
41178SOL    HW225367   9.272  11.892  12.266
41179SOL     OW25368   6.574   4.971  11.360
41179SOL    HW125369   6.630   5.041  11.327
41179SOL    HW225370   6.500   5.016  11.402
41180SOL     OW25371   7.228   1.957  10.667
41180SOL    HW125372   7.245   2.020  10.597
41180SOL    HW225373   7.292   1.887  10.652
41181SOL     OW25374   7.274   2.615   7.776
41181SOL    HW125375   7.212   2.585   7.709
41181SOL    HW225376   7.300   2.534   7.821
41182SOL     OW25377   8.626   8.985  10.258
41182SOL    HW125378   8.598   9.044  10.327
41182SOL    HW225379   8.572   8.907  10.268
41183SOL     OW25380   0.773   2.270  12.349
41183SOL    HW125381   0.783   2.184  12.309
41183SOL    HW225382   0.801   2.259  12.440
41184SOL     OW25383  10.120   0.457   4.028
41184SOL    HW125384  10.030   0.436   4.054
41184SOL    HW225385  10.174   0.422   4.098
41185SOL     OW25386  14.392   0.191   3.393
41185SOL    HW125387  14.304   0.187   3.356
41185SOL    HW225388  14.433   0.266   3.351
41186SOL     OW25389   5.076  14.841   3.983
41186SOL    HW125390   5.021  14.843   4.062
41186SOL    HW225391   5.126   0.041   3.987
41187SOL     OW25392   5.120  10.741   7.487
41187SOL    HW125393   5.205  10.734   7.443
41187SOL    HW225394   5.138  10.791   7.567
41188SOL     OW25395   0.811   5.123   0.674
41188SOL    HW125396   0.787   5.216   0.667
41188SOL    HW225397   0.728   5.078   0.686
41189SOL     OW25398   1.000  12.151  11.263
41189SOL    HW125399   0.916  12.124  11.300
41189SOL    HW225400   0.991  12.246  11.251
41190SOL     OW25401   9.916   4.897  13.806
41190SOL    HW125402   9.841   4.906  13.747
41190SOL    HW225403   9.932   4.986  13.838
41191SOL     OW25404   9.908   2.796   6.265
41191SOL    HW125405   9.997   2.824   6.287
41191SOL    HW225406   9.912   2.775   6.171
41192SOL     OW25407  14.203   5.291  11.575
41192SOL    HW125408  14.202   5.379  11.614
41192SOL    HW225409  14.193   5.306  11.481
41193SOL     OW25410   8.477  14.067   0.038
41193SOL    HW125411   8.566  14.101   0.029
41193SOL    HW225412   8.422  14.133  14.877
41194SOL     OW25413   0.678   7.480  12.192
41194SOL    HW125414   0.638   7.547  12.136
41194SOL    HW225415   0.772   7.493  12.180
41195SOL     OW25416   7.453   2.175   8.531
41195SOL    HW125417   7.396   2.108   8.570
41195SOL    HW225418   7.437   2.253   8.584
41196SOL     OW25419   3.451   4.266  10.291
41196SOL    HW125420   3.403   4.349  10.287
41196SOL    HW225421   3.383   4.199  10.293
41197SOL     OW25422   8.399   5.672  12.513
41197SOL    HW125423   8.364   5.615  12.444
41197SOL    HW225424   8.339   5.660  12.586
41198SOL     OW25425   7.392   3.074   5.807
41198SOL    HW125426   7.299   3.094   5.813
41198SOL    HW225427   7.411   3.022   5.885
41199SOL     OW25428  14.642   7.218   7.325
41199SOL    HW125429  14.580   7.219   7.253
41199SOL    HW225430  14.726   7.242   7.285
41200SOL     OW25431   4.447   3.381   4.479
41200SOL    HW125432   4.432   3.473   4.497
41200SOL    HW225433   4.487   3.346   4.559
41201SOL     OW25434  10.028   3.124   5.556
41201SOL    HW125435  10.023   3.030   5.571
41201SOL    HW225436  10.105   3.136   5.499
41202SOL     OW25437  11.590  11.892   8.310
41202SOL    HW125438  11.587  11.843   8.228
41202SOL    HW225439  11.652  11.963   8.292
41203SOL     OW25440   3.067   1.214   9.843
41203SOL    HW125441   3.070   1.172   9.758
41203SOL    HW225442   2.976   1.242   9.854
41204SOL     OW25443   3.693  13.020   9.497
41204SOL    HW125444   3.725  13.109   9.478
41204SOL    HW225445   3.618  13.034   9.555
41205SOL     OW25446   2.400  10.804  11.847
41205SOL    HW125447   2.386  10.816  11.753
41205SOL    HW225448   2.486  10.844  11.864
41206SOL     OW25449  11.594   8.426  14.666
41206SOL    HW125450  11.508   8.452  14.633
41206SOL    HW225451  11.643   8.508  14.672
41207SOL     OW25452  13.591   9.076   3.011
41207SOL    HW125453  13.614   9.126   2.933
41207SOL    HW225454  13.551   8.996   2.978
41208SOL     OW25455   6.110   3.910   2.298
41208SOL    HW125456   6.159   3.986   2.267
41208SOL    HW225457   6.073   3.938   2.382
41209SOL     OW25458  14.679   9.725  13.595
41209SOL    HW125459  14.772   9.728  13.617
41209SOL    HW225460  14.653   9.635  13.612
41210SOL     OW25461  13.732   5.823   8.000
41210SOL    HW125462  13.827   5.820   8.004
41210SOL    HW225463  13.708   5.907   8.039
41211SOL     OW25464  10.250   7.906   1.380
41211SOL    HW125465  10.204   7.983   1.346
41211SOL    HW225466  10.181   7.841   1.395
41212SOL     OW25467   7.064  13.174   8.027
41212SOL    HW125468   7.114  13.108   7.979
41212SOL    HW225469   7.124  13.204   8.096
41213SOL     OW25470  13.972  10.352   7.992
41213SOL    HW125471  13.954  10.355   8.086
41213SOL    HW225472  13.899  10.399   7.952
41214SOL     OW25473   1.055  12.527  11.845
41214SOL    HW125474   0.991  12.458  11.830
41214SOL    HW225475   1.113  12.493  11.913
41215SOL     OW25476  10.290  10.092   2.219
41215SOL    HW125477  10.264  10.024   2.158
41215SOL    HW225478  10.385  10.099   2.209
41216SOL     OW25479   6.754   3.949   9.369
41216SOL    HW125480   6.833   3.973   9.417
41216SOL    HW225481   6.691   3.925   9.437
41217SOL     OW25482   2.970  10.889   0.630
41217SOL    HW125483   2.973  10.873   0.535
41217SOL    HW225484   3.059  10.915   0.653
41218SOL     OW25485   9.806   1.212   6.151
41218SOL    HW125486   9.739   1.162   6.197
41218SOL    HW225487   9.831   1.280   6.213
41219SOL     OW25488   1.905   4.343   1.915
41219SOL    HW125489   1.915   4.430   1.953
41219SOL    HW225490   1.995   4.308   1.911
41220SOL     OW25491   9.855   8.449   2.818
41220SOL    HW125492   9.787   8.398   2.862
41220SOL    HW225493   9.815   8.535   2.803
41221SOL     OW25494  12.421   6.577   1.725
41221SOL    HW125495  12.326   6.586   1.733
41221SOL    HW225496  12.453   6.573   1.815
41222SOL     OW25497   1.393   8.472   2.214
41222SOL    HW125498   1.452   8.539   2.249
41222SOL    HW225499   1.368   8.505   2.128
41223SOL     OW25500   9.571   2.101  13.045
41223SOL    HW125501   9.499   2.140  12.995
41223SOL    HW225502   9.589   2.018  12.999
41224SOL     OW25503   4.604   9.189   0.716
41224SOL    HW125504   4.574   9.146   0.796
41224SOL    HW225505   4.580   9.281   0.728
41225SOL     OW25506   3.916   8.587  13.316
41225SOL    HW125507   4.008   8.613  13.320
41225SOL    HW225508   3.903   8.532  13.394
41226SOL     OW25509   2.217   3.389   5.190
41226SOL    HW125510   2.163   3.450   5.240
41226SOL    HW225511   2.219   3.425   5.101
41227SOL     OW25512   4.950   4.291   3.060
41227SOL    HW125513   4.994   4.375   3.075
41227SOL    HW225514   4.929   4.290   2.967
41228SOL     OW25515   5.784   6.905   2.396
41228SOL    HW125516   5.734   6.832   2.432
41228SOL    HW225517   5.718   6.967   2.364
41229SOL     OW25518   8.485  13.867   8.323
41229SOL    HW125519   8.404  13.915   8.335
41229SOL    HW225520   8.482  13.797   8.388
41230SOL     OW25521   6.188   0.853  11.332
41230SOL    HW125522   6.105   0.833  11.377
41230SOL    HW225523   6.212   0.940  11.365
41231SOL     OW25524   7.143   5.218   0.908
41231SOL    HW125525   7.124   5.158   0.980
41231SOL    HW225526   7.063   5.271   0.901
41232SOL     OW25527  12.338   0.691  14.474
41232SOL    HW125528  12.306   0.657  14.391
41232SOL    HW225529  12.264   0.683  14.534
41233SOL     OW25530  13.613  10.306   6.639
41233SOL    HW125531  13.553  10.379   6.655
41233SOL    HW225532  13.628  10.308   6.544
41234SOL     OW25533   4.284   0.783  14.585
41234SOL    HW125534   4.226   0.711  14.559
41234SOL    HW225535   4.273   0.849  14.516
41235SOL     OW25536   1.330  14.682   0.639
41235SOL    HW125537   1.369  14.658   0.723
41235SOL    HW225538   1.265  14.614   0.622
41236SOL     OW25539   8.623   8.457   1.159
41236SOL    HW125540   8.659   8.381   1.112
41236SOL    HW225541   8.667   8.456   1.244
41237SOL     OW25542  14.129   3.645   1.236
41237SOL    HW125543  14.151   3.723   1.288
41237SOL    HW225544  14.077   3.591   1.295
41238SOL     OW25545   6.969   2.619   0.963
41238SOL    HW125546   7.063   2.620   0.946
41238SOL    HW225547   6.932   2.570   0.890
41239SOL     OW25548  14.213   5.251   6.051
41239SOL    HW125549  14.149   5.188   6.017
41239SOL    HW225550  14.161   5.318   6.095
41240SOL     OW25551   5.548   0.830  12.113
41240SOL    HW125552   5.470   0.793  12.153
41240SOL    HW225553   5.523   0.920  12.093
41241SOL     OW25554   3.387  10.040   4.190
41241SOL    HW125555   3.310  10.061   4.243
41241SOL    HW225556   3.453  10.014   4.254
41242SOL     OW25557  13.918   6.902   9.367
41242SOL    HW125558  13.925   6.880   9.274
41242SOL    HW225559  13.953   6.825   9.413
41243SOL     OW25560   5.184   5.142   3.471
41243SOL    HW125561   5.117   5.204   3.498
41243SOL    HW225562   5.206   5.167   3.382
41244SOL     OW25563  10.887   1.152   3.397
41244SOL    HW125564  10.982   1.157   3.387
41244SOL    HW225565  10.854   1.138   3.309
41245SOL     OW25566  13.172  11.860   8.368
41245SOL    HW125567  13.259  11.838   8.401
41245SOL    HW225568  13.174  11.954   8.354
41246SOL     OW25569   5.951   1.662  12.143
41246SOL    HW125570   5.915   1.573  12.143
41246SOL    HW225571   5.874   1.719  12.136
41247SOL     OW25572   2.203   6.363  11.303
41247SOL    HW125573   2.119   6.409  11.294
41247SOL    HW225574   2.269   6.431  11.289
41248SOL     OW25575   7.237  13.531   7.430
41248SOL    HW125576   7.174  13.467   7.464
41248SOL    HW225577   7.231  13.522   7.335
41249SOL     OW25578   4.782  12.823  12.565
41249SOL    HW125579   4.706  12.827  12.623
41249SOL    HW225580   4.777  12.902  12.512
41250SOL     OW25581  11.149   8.959   5.899
41250SOL    HW125582  11.085   8.962   5.970
41250SOL    HW225583  11.098   8.935   5.821
41251SOL     OW25584   0.151  13.261   4.824
41251SOL    HW125585   0.107  13.248   4.740
41251SOL    HW225586   0.111  13.341   4.860
41252SOL     OW25587   8.134   2.696   2.091
41252SOL    HW125588   8.163   2.628   2.152
41252SOL    HW225589   8.186   2.773   2.114
41253SOL     OW25590   5.434   8.932  14.316
41253SOL    HW125591   5.449   8.988  14.240
41253SOL    HW225592   5.373   8.865  14.285
41254SOL     OW25593   4.166   2.488  12.752
41254SOL    HW125594   4.234   2.427  12.780
41254SOL    HW225595   4.204   2.575  12.768
41255SOL     OW25596   1.406  12.299   4.650
41255SOL    HW125597   1.357  12.352   4.713
41255SOL    HW225598   1.410  12.354   4.571
41256SOL     OW25599  12.317   8.697  10.696
41256SOL    HW125600  12.236   8.688  10.746
41256SOL    HW225601  12.300   8.652  10.614
41257SOL     OW25602   8.438  10.244   0.096
41257SOL    HW125603   8.411  10.233   0.005
41257SOL    HW225604   8.388  10.320   0.127
41258SOL     OW25605   1.742  12.534  13.342
41258SOL    HW125606   1.690  12.612  13.363
41258SOL    HW225607   1.831  12.558  13.367
41259SOL     OW25608   7.030  10.512  12.185
41259SOL    HW125609   7.080  10.592  12.205
41259SOL    HW225610   7.093  10.455  12.143
41260SOL     OW25611   1.403  12.102   2.753
41260SOL    HW125612   1.344  12.112   2.679
41260SOL    HW225613   1.485  12.142   2.724
41261SOL     OW25614   2.041   2.573   5.685
41261SOL    HW125615   2.126   2.533   5.671
41261SOL    HW225616   1.978   2.504   5.665
41262SOL     OW25617   2.590  14.099  14.709
41262SOL    HW125618   2.683  14.078  14.701
41262SOL    HW225619   2.586  14.161  14.782
41263SOL     OW25620  11.258  12.574   7.676
41263SOL    HW125621  11.327  12.512   7.651
41263SOL    HW225622  11.212  12.593   7.594
41264SOL     OW25623   7.111  11.556  14.329
41264SOL    HW125624   7.058  11.567  14.408
41264SOL    HW225625   7.195  11.525  14.360
41265SOL     OW25626   7.725   7.753   6.823
41265SOL    HW125627   7.733   7.765   6.729
41265SOL    HW225628   7.698   7.838   6.857
41266SOL     OW25629   7.800   1.034   5.356
41266SOL    HW125630   7.789   0.963   5.293
41266SOL    HW225631   7.895   1.038   5.371
41267SOL     OW25632   8.951   0.740   3.535
41267SOL    HW125633   8.882   0.804   3.521
41267SOL    HW225634   8.943   0.715   3.627
41268SOL     OW25635  10.192   8.778  12.351
41268SOL    HW125636  10.190   8.719  12.275
41268SOL    HW225637  10.211   8.720  12.425
41269SOL     OW25638   2.328   9.450   0.649
41269SOL    HW125639   2.292   9.506   0.581
41269SOL    HW225640   2.308   9.361   0.620
41270SOL     OW25641   6.720  12.310  11.536
41270SOL    HW125642   6.784  12.256  11.489
41270SOL    HW225643   6.761  12.396  11.544
41271SOL     OW25644   7.026   3.871   8.541
41271SOL    HW125645   7.024   3.961   8.575
41271SOL    HW225646   6.995   3.880   8.451
41272SOL     OW25647   0.251   6.817   5.634
41272SOL    HW125648   0.338   6.787   5.610
41272SOL    HW225649   0.237   6.895   5.581
41273SOL     OW25650   9.645  11.907   3.827
41273SOL    HW125651   9.658  11.818   3.794
41273SOL    HW225652   9.640  11.962   3.749
41274SOL     OW25653   6.464   3.395   2.800
41274SOL    HW125654   6.514   3.316   2.781
41274SOL    HW225655   6.521   3.467   2.772
41275SOL     OW25656   7.518  13.968   6.137
41275SOL    HW125657   7.566  14.037   6.091
41275SOL    HW225658   7.491  13.908   6.067
41276SOL     OW25659   5.573  12.495  12.962
41276SOL    HW125660   5.495  12.490  13.018
41276SOL    HW225661   5.612  12.580  12.982
41277SOL     OW25662  10.988   5.804   5.869
41277SOL    HW125663  11.073   5.799   5.825
41277SOL    HW225664  10.991   5.885   5.919
41278SOL     OW25665   1.551   2.243   7.276
41278SOL    HW125666   1.522   2.263   7.365
41278SOL    HW225667   1.533   2.323   7.227
41279SOL     OW25668   3.585   8.550   3.029
41279SOL    HW125669   3.540   8.583   2.951
41279SOL    HW225670   3.671   8.592   3.026
41280SOL     OW25671   8.177   7.119   6.606
41280SOL    HW125672   8.193   7.195   6.663
41280SOL    HW225673   8.090   7.087   6.632
41281SOL     OW25674  12.555  14.563   7.462
41281SOL    HW125675  12.609  14.572   7.384
41281SOL    HW225676  12.543  14.652   7.495
41282SOL     OW25677  13.822   7.633   1.296
41282SOL    HW125678  13.884   7.563   1.274
41282SOL    HW225679  13.824   7.639   1.391
41283SOL     OW25680  11.686   0.336   0.217
41283SOL    HW125681  11.654   0.301   0.134
41283SOL    HW225682  11.686   0.431   0.205
41284SOL     OW25683  12.015  10.280   8.815
41284SOL    HW125684  12.088  10.328   8.854
41284SOL    HW225685  12.022  10.297   8.721
41285SOL     OW25686   6.781   0.569   7.952
41285SOL    HW125687   6.742   0.603   7.872
41285SOL    HW225688   6.708   0.558   8.012
41286SOL     OW25689   7.133   3.090  11.298
41286SOL    HW125690   7.179   3.015  11.261
41286SOL    HW225691   7.180   3.110  11.379
41287SOL     OW25692  11.114   9.856  14.592
41287SOL    HW125693  11.202   9.884  14.569
41287SOL    HW225694  11.094   9.784  14.532
41288SOL     OW25695  13.773   3.263   5.830
41288SOL    HW125696  13.791   3.243   5.921
41288SOL    HW225697  13.677   3.268   5.825
41289SOL     OW25698   2.328   1.233   3.989
41289SOL    HW125699   2.244   1.240   4.035
41289SOL    HW225700   2.331   1.311   3.934
41290SOL     OW25701   6.262   7.315   8.516
41290SOL    HW125702   6.271   7.400   8.473
41290SOL    HW225703   6.217   7.335   8.599
41291SOL     OW25704  10.048   9.259   1.082
41291SOL    HW125705  10.120   9.198   1.062
41291SOL    HW225706  10.053   9.325   1.013
41292SOL     OW25707  10.807  10.136  14.876
41292SOL    HW125708  10.887  10.188   0.006
41292SOL    HW225709  10.736  10.198   0.007
41293SOL     OW25710  14.023  12.312   2.524
41293SOL    HW125711  13.985  12.233   2.562
41293SOL    HW225712  14.043  12.368   2.598
41294SOL     OW25713   4.186  11.509   3.117
41294SOL    HW125714   4.140  11.592   3.128
41294SOL    HW225715   4.259  11.513   3.178
41295SOL     OW25716   4.529  13.691   5.217
41295SOL    HW125717   4.520  13.637   5.138
41295SOL    HW225718   4.543  13.628   5.288
41296SOL     OW25719   2.796   2.561   5.577
41296SOL    HW125720   2.777   2.556   5.483
41296SOL    HW225721   2.712   2.585   5.617
41297SOL     OW25722   9.767   9.782  10.740
41297SOL    HW125723   9.768   9.823  10.653
41297SOL    HW225724   9.690   9.818  10.783
41298SOL     OW25725   9.032  11.826   4.228
41298SOL    HW125726   9.052  11.826   4.322
41298SOL    HW225727   9.101  11.881   4.189
41299SOL     OW25728  13.231   9.447   0.548
41299SOL    HW125729  13.313   9.486   0.519
41299SOL    HW225730  13.256   9.361   0.583
41300SOL     OW25731   5.949   8.703  12.373
41300SOL    HW125732   5.958   8.659  12.458
41300SOL    HW225733   5.916   8.635  12.314
41301SOL     OW25734   8.304   2.624  12.850
41301SOL    HW125735   8.367   2.621  12.779
41301SOL    HW225736   8.281   2.717  12.858
41302SOL     OW25737  10.587   1.854  14.793
41302SOL    HW125738  10.606   1.762  14.773
41302SOL    HW225739  10.537   1.851  14.875
41303SOL     OW25740   3.056   6.635  12.148
41303SOL    HW125741   3.059   6.725  12.115
41303SOL    HW225742   3.101   6.639  12.232
41304SOL     OW25743   5.621   3.180  13.642
41304SOL    HW125744   5.679   3.189  13.717
41304SOL    HW225745   5.598   3.269  13.618
41305SOL     OW25746   5.639   5.432   1.947
41305SOL    HW125747   5.563   5.462   1.998
41305SOL    HW225748   5.600   5.383   1.874
41306SOL     OW25749  13.329   6.881   9.000
41306SOL    HW125750  13.359   6.875   8.909
41306SOL    HW225751  13.256   6.944   8.997
41307SOL     OW25752  12.434  11.849   4.508
41307SOL    HW125753  12.404  11.939   4.501
41307SOL    HW225754  12.475  11.830   4.424
41308SOL     OW25755   0.946   4.642  10.474
41308SOL    HW125756   1.025   4.589  10.489
41308SOL    HW225757   0.921   4.622  10.384
41309SOL     OW25758   3.283   7.401   7.130
41309SOL    HW125759   3.263   7.417   7.223
41309SOL    HW225760   3.333   7.319   7.130
41310SOL     OW25761  13.461   3.300  11.666
41310SOL    HW125762  13.479   3.394  11.657
41310SOL    HW225763  13.536   3.267  11.717
41311SOL     OW25764   4.990   0.016   3.105
41311SOL    HW125765   5.040   0.066   3.169
41311SOL    HW225766   4.927   0.078   3.069
41312SOL     OW25767  13.518  14.863   1.588
41312SOL    HW125768  13.519  14.858   1.684
41312SOL    HW225769  13.452  14.799   1.561
41313SOL     OW25770   8.791   1.692  14.539
41313SOL    HW125771   8.786   1.743  14.620
41313SOL    HW225772   8.804   1.602  14.568
41314SOL     OW25773   4.624   8.282   1.986
41314SOL    HW125774   4.640   8.190   1.967
41314SOL    HW225775   4.638   8.290   2.080
41315SOL     OW25776   1.340   6.643   0.967
41315SOL    HW125777   1.248   6.656   0.945
41315SOL    HW225778   1.341   6.570   1.028
41316SOL     OW25779   9.442   7.018  11.499
41316SOL    HW125780   9.358   7.063  11.496
41316SOL    HW225781   9.486   7.054  11.576
41317SOL     OW25782   2.543   7.692   8.255
41317SOL    HW125783   2.625   7.677   8.208
41317SOL    HW225784   2.502   7.606   8.260
41318SOL     OW25785   2.526   5.043   4.288
41318SOL    HW125786   2.536   4.978   4.358
41318SOL    HW225787   2.499   5.123   4.333
41319SOL     OW25788   4.060   7.627   3.796
41319SOL    HW125789   4.014   7.649   3.877
41319SOL    HW225790   4.133   7.689   3.792
41320SOL     OW25791  12.654   3.682   6.328
41320SOL    HW125792  12.720   3.727   6.275
41320SOL    HW225793  12.680   3.697   6.418
41321SOL     OW25794   5.070  10.427   9.643
41321SOL    HW125795   5.077  10.400   9.551
41321SOL    HW225796   5.089  10.348   9.693
41322SOL     OW25797  14.462  13.800   8.878
41322SOL    HW125798  14.554  13.773   8.881
41322SOL    HW225799  14.424  13.764   8.959
41323SOL     OW25800   7.480   9.733   3.435
41323SOL    HW125801   7.542   9.724   3.363
41323SOL    HW225802   7.463   9.827   3.440
41324SOL     OW25803   3.509   3.488   5.247
41324SOL    HW125804   3.600   3.497   5.276
41324SOL    HW225805   3.475   3.577   5.245
41325SOL     OW25806  12.938  13.086  11.205
41325SOL    HW125807  13.006  13.063  11.142
41325SOL    HW225808  12.857  13.052  11.166
41326SOL     OW25809  13.753   9.624  10.896
41326SOL    HW125810  13.726   9.534  10.875
41326SOL    HW225811  13.848   9.621  10.895
41327SOL     OW25812   7.993  11.163   4.141
41327SOL    HW125813   8.065  11.130   4.195
41327SOL    HW225814   7.942  11.085   4.119
41328SOL     OW25815  13.820   7.636   9.614
41328SOL    HW125816  13.730   7.607   9.606
41328SOL    HW225817  13.817   7.729   9.594
41329SOL     OW25818   4.792  13.399   6.388
41329SOL    HW125819   4.721  13.344   6.419
41329SOL    HW225820   4.775  13.485   6.427
41330SOL     OW25821   5.861   7.763  13.465
41330SOL    HW125822   5.946   7.742  13.504
41330SOL    HW225823   5.877   7.845  13.418
41331SOL     OW25824  14.217   7.334   6.576
41331SOL    HW125825  14.234   7.326   6.482
41331SOL    HW225826  14.190   7.247   6.604
41332SOL     OW25827   7.504   3.988   3.783
41332SOL    HW125828   7.526   3.906   3.827
41332SOL    HW225829   7.411   4.000   3.801
41333SOL     OW25830  10.124   9.697   2.536
41333SOL    HW125831  10.086   9.745   2.463
41333SOL    HW225832  10.217   9.720   2.534
41334SOL     OW25833   2.440  10.870  11.010
41334SOL    HW125834   2.351  10.870  10.976
41334SOL    HW225835   2.487  10.807  10.955
41335SOL     OW25836   1.598   4.021   6.826
41335SOL    HW125837   1.614   4.012   6.920
41335SOL    HW225838   1.684   4.044   6.790
41336SOL     OW25839   9.501  10.284  11.110
41336SOL    HW125840   9.472  10.294  11.201
41336SOL    HW225841   9.460  10.357  11.063
41337SOL     OW25842   1.567   7.838   7.945
41337SOL    HW125843   1.477   7.822   7.914
41337SOL    HW225844   1.589   7.925   7.912
41338SOL     OW25845  11.826   4.621   1.682
41338SOL    HW125846  11.765   4.655   1.616
41338SOL    HW225847  11.831   4.527   1.665
41339SOL     OW25848  12.403   0.438  12.463
41339SOL    HW125849  12.375   0.401  12.547
41339SOL    HW225850  12.431   0.363  12.411
41340SOL     OW25851   7.705  11.547   3.938
41340SOL    HW125852   7.721  11.480   4.004
41340SOL    HW225853   7.626  11.517   3.892
41341SOL     OW25854   5.388  13.888   9.270
41341SOL    HW125855   5.456  13.954   9.277
41341SOL    HW225856   5.335  13.900   9.349
41342SOL     OW25857   6.600  14.821   4.030
41342SOL    HW125858   6.570   0.007   3.970
41342SOL    HW225859   6.659  14.867   4.089
41343SOL     OW25860  12.359  13.058   2.393
41343SOL    HW125861  12.271  13.059   2.355
41343SOL    HW225862  12.365  12.975   2.440
41344SOL     OW25863  10.636  13.882   7.822
41344SOL    HW125864  10.631  13.877   7.726
41344SOL    HW225865  10.725  13.855   7.843
41345SOL     OW25866   7.856  12.589   6.472
41345SOL    HW125867   7.821  12.613   6.557
41345SOL    HW225868   7.832  12.497   6.461
41346SOL     OW25869  11.874  11.657   3.421
41346SOL    HW125870  11.898  11.723   3.356
41346SOL    HW225871  11.809  11.700   3.476
41347SOL     OW25872   6.998  13.779   5.805
41347SOL    HW125873   7.028  13.715   5.870
41347SOL    HW225874   6.903  13.766   5.801
41348SOL     OW25875   8.946   1.691   5.226
41348SOL    HW125876   8.982   1.778   5.242
41348SOL    HW225877   9.018   1.643   5.184
41349SOL     OW25878   9.021   6.360  10.988
41349SOL    HW125879   8.940   6.411  10.989
41349SOL    HW225880   8.999   6.282  10.937
41350SOL     OW25881   6.638  10.370  12.700
41350SOL    HW125882   6.554  10.337  12.734
41350SOL    HW225883   6.703  10.338  12.762
41351SOL     OW25884   8.742   4.327   8.003
41351SOL    HW125885   8.666   4.274   8.026
41351SOL    HW225886   8.764   4.301   7.914
41352SOL     OW25887   5.372  11.501   0.777
41352SOL    HW125888   5.308  11.452   0.828
41352SOL    HW225889   5.326  11.581   0.752
41353SOL     OW25890   4.789   9.078  10.785
41353SOL    HW125891   4.878   9.112  10.782
41353SOL    HW225892   4.778   9.033  10.701
41354SOL     OW25893  11.149   1.132   0.692
41354SOL    HW125894  11.189   1.118   0.777
41354SOL    HW225895  11.215   1.101   0.629
41355SOL     OW25896  14.714   4.731   9.859
41355SOL    HW125897  14.791   4.764   9.813
41355SOL    HW225898  14.742   4.647   9.896
41356SOL     OW25899   0.144   7.868  11.561
41356SOL    HW125900   0.162   7.775  11.546
41356SOL    HW225901   0.105   7.899  11.479
41357SOL     OW25902   3.517   4.803   8.511
41357SOL    HW125903   3.531   4.723   8.562
41357SOL    HW225904   3.592   4.807   8.452
41358SOL     OW25905   6.835  11.113   2.965
41358SOL    HW125906   6.799  11.034   3.005
41358SOL    HW225907   6.835  11.094   2.871
41359SOL     OW25908  13.246  11.973   5.080
41359SOL    HW125909  13.287  11.899   5.036
41359SOL    HW225910  13.231  12.037   5.011
41360SOL     OW25911  12.764   9.301  11.982
41360SOL    HW125912  12.674   9.318  12.010
41360SOL    HW225913  12.772   9.347  11.899
41361SOL     OW25914   1.891   5.123   7.905
41361SOL    HW125915   1.984   5.110   7.927
41361SOL    HW225916   1.847   5.129   7.989
41362SOL     OW25917   6.082   2.428  14.348
41362SOL    HW125918   6.017   2.360  14.367
41362SOL    HW225919   6.162   2.379  14.327
41363SOL     OW25920  10.954   6.916  11.890
41363SOL    HW125921  10.904   6.901  11.970
41363SOL    HW225922  10.987   6.830  11.865
41364SOL     OW25923   1.737   7.977   4.907
41364SOL    HW125924   1.681   7.927   4.966
41364SOL    HW225925   1.756   8.058   4.954
41365SOL     OW25926   0.143   6.191   0.406
41365SOL    HW125927   0.088   6.136   0.462
41365SOL    HW225928   0.180   6.256   0.466
41366SOL     OW25929   3.012   8.392   4.570
41366SOL    HW125930   3.095   8.424   4.534
41366SOL    HW225931   3.035   8.310   4.614
41367SOL     OW25932  14.492  11.040   5.611
41367SOL    HW125933  14.512  11.134   5.606
41367SOL    HW225934  14.553  10.998   5.552
41368SOL     OW25935   7.680  10.231   8.651
41368SOL    HW125936   7.700  10.306   8.708
41368SOL    HW225937   7.748  10.167   8.671
41369SOL     OW25938   5.479   6.205   7.092
41369SOL    HW125939   5.517   6.196   7.005
41369SOL    HW225940   5.385   6.216   7.076
41370SOL     OW25941   5.075   4.941  12.491
41370SOL    HW125942   5.129   4.925  12.413
41370SOL    HW225943   5.138   4.953  12.561
41371SOL     OW25944  13.580   5.948   0.993
41371SOL    HW125945  13.517   5.899   0.941
41371SOL    HW225946  13.663   5.901   0.980
41372SOL     OW25947   5.188   0.345  12.068
41372SOL    HW125948   5.178   0.250  12.063
41372SOL    HW225949   5.105   0.376  12.105
41373SOL     OW25950  11.103  10.006   8.989
41373SOL    HW125951  11.052  10.020   8.909
41373SOL    HW225952  11.180  10.061   8.977
41374SOL     OW25953  10.990   1.083   5.733
41374SOL    HW125954  11.069   1.100   5.682
41374SOL    HW225955  10.919   1.088   5.670
41375SOL     OW25956  14.862   9.047   6.678
41375SOL    HW125957  14.842   8.966   6.725
41375SOL    HW225958  14.865   9.021   6.586
41376SOL     OW25959   1.605   2.613  10.253
41376SOL    HW125960   1.642   2.666  10.183
41376SOL    HW225961   1.511   2.609  10.232
41377SOL     OW25962  10.258  14.345  13.964
41377SOL    HW125963  10.298  14.416  13.913
41377SOL    HW225964  10.332  14.297  14.000
41378SOL     OW25965   4.121  10.690  13.457
41378SOL    HW125966   4.193  10.742  13.491
41378SOL    HW225967   4.128  10.606  13.504
41379SOL     OW25968  14.523   0.154   9.508
41379SOL    HW125969  14.600   0.097   9.506
41379SOL    HW225970  14.528   0.202   9.425
41380SOL     OW25971   3.412   0.096   7.525
41380SOL    HW125972   3.393   0.172   7.470
41380SOL    HW225973   3.338   0.091   7.585
41381SOL     OW25974   6.043  12.817   3.238
41381SOL    HW125975   5.989  12.750   3.196
41381SOL    HW225976   6.047  12.792   3.330
41382SOL     OW25977   4.553   8.053   4.495
41382SOL    HW125978   4.588   8.041   4.583
41382SOL    HW225979   4.566   8.147   4.477
41383SOL     OW25980  11.684   8.090   9.731
41383SOL    HW125981  11.655   8.008   9.690
41383SOL    HW225982  11.769   8.069   9.768
41384SOL     OW25983   5.209   9.235   5.257
41384SOL    HW125984   5.288   9.184   5.277
41384SOL    HW225985   5.139   9.192   5.307
41385SOL     OW25986   7.188  10.716   3.535
41385SOL    HW125987   7.190  10.719   3.439
41385SOL    HW225988   7.125  10.646   3.554
41386SOL     OW25989  14.340  13.922   6.495
41386SOL    HW125990  14.244  13.924   6.490
41386SOL    HW225991  14.359  13.910   6.588
41387SOL     OW25992   9.585   8.899  13.613
41387SOL    HW125993   9.503   8.899  13.563
41387SOL    HW225994   9.570   8.964  13.682
41388SOL     OW25995   1.816   2.709   5.789
41388SOL    HW125996   1.758   2.685   5.717
41388SOL    HW225997   1.902   2.719   5.750
41389SOL     OW25998  10.443   5.954   7.523
41389SOL    HW125999  10.360   5.985   7.559
41389SOL    HW226000  10.506   6.024   7.542
41390SOL     OW26001   8.831   3.205  14.559
41390SOL    HW126002   8.808   3.191  14.467
41390SOL    HW226003   8.926   3.204  14.562
41391SOL     OW26004   8.798   0.682  14.825
41391SOL    HW126005   8.781   0.746  14.756
41391SOL    HW226006   8.830   0.735   0.017
41392SOL     OW26007  14.679  12.336   3.064
41392SOL    HW126008  14.725  12.414   3.032
41392SOL    HW226009  14.693  12.270   2.997
41393SOL     OW26010   4.526  14.646   4.685
41393SOL    HW126011   4.488  14.578   4.742
41393SOL    HW226012   4.463  14.718   4.688
41394SOL     OW26013   1.141  10.425   1.302
41394SOL    HW126014   1.169  10.351   1.357
41394SOL    HW226015   1.205  10.493   1.321
41395SOL     OW26016   5.050  12.490   1.941
41395SOL    HW126017   5.008  12.573   1.921
41395SOL    HW226018   4.979  12.426   1.941
41396SOL     OW26019   9.045   7.660   7.605
41396SOL    HW126020   9.044   7.684   7.513
41396SOL    HW226021   9.011   7.570   7.607
41397SOL     OW26022   1.757   1.914   7.524
41397SOL    HW126023   1.665   1.890   7.522
41397SOL    HW226024   1.801   1.840   7.566
41398SOL     OW26025  14.327  10.597  14.089
41398SOL    HW126026  14.249  10.651  14.081
41398SOL    HW226027  14.400  10.657  14.075
41399SOL     OW26028   9.489   2.131  12.313
41399SOL    HW126029   9.500   2.038  12.335
41399SOL    HW226030   9.524   2.178  12.388
41400SOL     OW26031  12.739   5.607  13.150
41400SOL    HW126032  12.757   5.583  13.241
41400SOL    HW226033  12.731   5.522  13.105
41401SOL     OW26034   0.677   3.902   1.178
41401SOL    HW126035   0.625   3.924   1.255
41401SOL    HW226036   0.765   3.932   1.200
41402SOL     OW26037   4.169  14.397   3.615
41402SOL    HW126038   4.171  14.466   3.682
41402SOL    HW226039   4.255  14.401   3.574
41403SOL     OW26040   9.742   2.055   2.452
41403SOL    HW126041   9.667   2.064   2.393
41403SOL    HW226042   9.783   2.142   2.452
41404SOL     OW26043   1.589   6.820   6.637
41404SOL    HW126044   1.632   6.869   6.566
41404SOL    HW226045   1.575   6.885   6.705
41405SOL     OW26046   9.782   0.406  12.407
41405SOL    HW126047   9.691   0.437  12.408
41405SOL    HW226048   9.806   0.402  12.500
41406SOL     OW26049   3.004  12.629   7.544
41406SOL    HW126050   2.915  12.622   7.578
41406SOL    HW226051   2.994  12.634   7.449
41407SOL     OW26052   7.365   9.701   9.705
41407SOL    HW126053   7.333   9.764   9.641
41407SOL    HW226054   7.286   9.662   9.742
41408SOL     OW26055   2.613  10.557  10.995
41408SOL    HW126056   2.690  10.542  11.051
41408SOL    HW226057   2.632  10.640  10.950
41409SOL     OW26058   6.011   9.590   9.729
41409SOL    HW126059   5.928   9.563   9.690
41409SOL    HW226060   5.986   9.643   9.805
41410SOL     OW26061  11.790  11.140   0.913
41410SOL    HW126062  11.881  11.112   0.923
41410SOL    HW226063  11.740  11.058   0.911
41411SOL     OW26064   5.118  11.734   0.382
41411SOL    HW126065   5.042  11.717   0.436
41411SOL    HW226066   5.148  11.821   0.407
41412SOL     OW26067   2.821  10.499   8.003
41412SOL    HW126068   2.797  10.417   7.961
41412SOL    HW226069   2.741  10.529   8.046
41413SOL     OW26070   0.749  12.795   8.457
41413SOL    HW126071   0.724  12.731   8.390
41413SOL    HW226072   0.674  12.854   8.463
41414SOL     OW26073   3.925   2.394   3.531
41414SOL    HW126074   3.889   2.434   3.452
41414SOL    HW226075   3.983   2.461   3.567
41415SOL     OW26076  13.676   5.727   6.850
41415SOL    HW126077  13.620   5.697   6.922
41415SOL    HW226078  13.750   5.666   6.851
41416SOL     OW26079   4.950  13.247   3.188
41416SOL    HW126080   4.955  13.167   3.136
41416SOL    HW226081   4.873  13.293   3.154
41417SOL     OW26082   7.946   5.052   8.175
41417SOL    HW126083   7.952   5.022   8.266
41417SOL    HW226084   8.035   5.047   8.142
41418SOL     OW26085   4.510  13.796   8.479
41418SOL    HW126086   4.597  13.824   8.453
41418SOL    HW226087   4.525  13.732   8.549
41419SOL     OW26088  11.552  12.278   4.230
41419SOL    HW126089  11.518  12.354   4.276
41419SOL    HW226090  11.635  12.258   4.273
41420SOL     OW26091   5.925   6.196   8.597
41420SOL    HW126092   5.909   6.138   8.523
41420SOL    HW226093   5.846   6.189   8.651
41421SOL     OW26094   4.865   2.630   8.358
41421SOL    HW126095   4.852   2.654   8.266
41421SOL    HW226096   4.941   2.682   8.385
41422SOL     OW26097   3.435  13.261  10.723
41422SOL    HW126098   3.494  13.293  10.656
41422SOL    HW226099   3.388  13.189  10.681
41423SOL     OW26100   0.841  12.886   1.681
41423SOL    HW126101   0.806  12.874   1.593
41423SOL    HW226102   0.904  12.958   1.673
41424SOL     OW26103  10.713  12.804   7.420
41424SOL    HW126104  10.808  12.796   7.407
41424SOL    HW226105  10.690  12.728   7.473
41425SOL     OW26106   5.889  13.994   7.007
41425SOL    HW126107   5.966  13.940   7.027
41425SOL    HW226108   5.923  14.084   7.009
41426SOL     OW26109  13.564  12.705   0.974
41426SOL    HW126110  13.526  12.786   1.010
41426SOL    HW226111  13.581  12.726   0.882
41427SOL     OW26112  13.455   6.115  10.792
41427SOL    HW126113  13.478   6.208  10.796
41427SOL    HW226114  13.537   6.070  10.806
41428SOL     OW26115  12.927  14.816   1.844
41428SOL    HW126116  12.979  14.736   1.845
41428SOL    HW226117  12.837  14.787   1.862
41429SOL     OW26118  10.183   3.170  11.411
41429SOL    HW126119  10.185   3.246  11.353
41429SOL    HW226120  10.130   3.199  11.485
41430SOL     OW26121   2.664   3.604   0.144
41430SOL    HW126122   2.739   3.624   0.089
41430SOL    HW226123   2.618   3.687   0.154
41431SOL     OW26124  14.273   3.846  13.943
41431SOL    HW126125  14.300   3.756  13.928
41431SOL    HW226126  14.344   3.884  13.995
41432SOL     OW26127  11.348  11.344   7.462
41432SOL    HW126128  11.324  11.252   7.474
41432SOL    HW226129  11.430  11.341   7.413
41433SOL     OW26130   0.104   3.818  13.453
41433SOL    HW126131   0.046   3.748  13.482
41433SOL    HW226132   0.084   3.829  13.361
41434SOL     OW26133   0.626   8.067   3.574
41434SOL    HW126134   0.679   8.116   3.512
41434SOL    HW226135   0.684   8.000   3.609
41435SOL     OW26136  14.265   8.159  12.191
41435SOL    HW126137  14.335   8.161  12.256
41435SOL    HW226138  14.285   8.082  12.137
41436SOL     OW26139   9.252  12.298   0.454
41436SOL    HW126140   9.335  12.300   0.501
41436SOL    HW226141   9.265  12.236   0.383
41437SOL     OW26142   9.871   9.156  12.896
41437SOL    HW126143   9.948   9.112  12.860
41437SOL    HW226144   9.797   9.106  12.864
41438SOL     OW26145   2.220  11.005   7.885
41438SOL    HW126146   2.283  10.941   7.917
41438SOL    HW226147   2.135  10.966   7.905
41439SOL     OW26148  13.912   9.742  14.477
41439SOL    HW126149  13.925   9.800  14.552
41439SOL    HW226150  13.818   9.743  14.463
41440SOL     OW26151   2.795   9.194   4.030
41440SOL    HW126152   2.828   9.153   4.109
41440SOL    HW226153   2.708   9.228   4.054
41441SOL     OW26154   7.136   9.806   5.645
41441SOL    HW126155   7.171   9.883   5.690
41441SOL    HW226156   7.057   9.784   5.695
41442SOL     OW26157   0.078   6.593   3.846
41442SOL    HW126158   0.116   6.513   3.883
41442SOL    HW226159   0.120   6.602   3.760
41443SOL     OW26160  11.110  10.919   7.431
41443SOL    HW126161  11.087  10.878   7.514
41443SOL    HW226162  11.124  10.846   7.371
41444SOL     OW26163   6.905   9.015  10.939
41444SOL    HW126164   6.955   8.938  10.968
41444SOL    HW226165   6.961   9.057  10.874
41445SOL     OW26166   4.393   8.862   2.163
41445SOL    HW126167   4.308   8.849   2.206
41445SOL    HW226168   4.428   8.774   2.151
41446SOL     OW26169  10.844  14.365   6.784
41446SOL    HW126170  10.801  14.405   6.708
41446SOL    HW226171  10.935  14.352   6.756
41447SOL     OW26172   3.466   8.565   2.771
41447SOL    HW126173   3.449   8.479   2.734
41447SOL    HW226174   3.560   8.580   2.755
41448SOL     OW26175   4.960   8.900  13.055
41448SOL    HW126176   5.036   8.935  13.008
41448SOL    HW226177   4.980   8.807  13.066
41449SOL     OW26178  10.466   0.567   0.823
41449SOL    HW126179  10.449   0.618   0.902
41449SOL    HW226180  10.549   0.523   0.840
41450SOL     OW26181   0.402   3.120  12.126
41450SOL    HW126182   0.404   3.044  12.184
41450SOL    HW226183   0.469   3.102  12.060
41451SOL     OW26184   1.796  10.777  13.979
41451SOL    HW126185   1.711  10.777  14.022
41451SOL    HW226186   1.852  10.830  14.035
41452SOL     OW26187   1.139  10.579   4.113
41452SOL    HW126188   1.060  10.593   4.164
41452SOL    HW226189   1.112  10.523   4.040
41453SOL     OW26190  12.241   5.191   0.530
41453SOL    HW126191  12.232   5.235   0.615
41453SOL    HW226192  12.271   5.103   0.552
41454SOL     OW26193  14.229  13.948   9.493
41454SOL    HW126194  14.169  13.904   9.433
41454SOL    HW226195  14.257  14.027   9.447
41455SOL     OW26196  11.342  13.694   8.933
41455SOL    HW126197  11.309  13.779   8.903
41455SOL    HW226198  11.416  13.715   8.989
41456SOL     OW26199   7.763   7.617   0.658
41456SOL    HW126200   7.702   7.655   0.595
41456SOL    HW226201   7.807   7.547   0.610
41457SOL     OW26202   6.477   0.831  11.098
41457SOL    HW126203   6.460   0.884  11.020
41457SOL    HW226204   6.404   0.769  11.101
41458SOL     OW26205  12.161   8.828   0.015
41458SOL    HW126206  12.131   8.811  14.808
41458SOL    HW226207  12.116   8.764   0.069
41459SOL     OW26208   7.220  10.200  11.138
41459SOL    HW126209   7.133  10.238  11.123
41459SOL    HW226210   7.250  10.175  11.050
41460SOL     OW26211   1.387   7.356   5.518
41460SOL    HW126212   1.453   7.286   5.513
41460SOL    HW226213   1.361   7.357   5.610
41461SOL     OW26214   7.608   6.386   9.437
41461SOL    HW126215   7.522   6.394   9.479
41461SOL    HW226216   7.590   6.346   9.353
41462SOL     OW26217   3.254   7.599   9.308
41462SOL    HW126218   3.306   7.665   9.264
41462SOL    HW226219   3.264   7.520   9.255
41463SOL     OW26220   1.698   9.024   9.507
41463SOL    HW126221   1.649   8.949   9.472
41463SOL    HW226222   1.644   9.100   9.484
41464SOL     OW26223   6.024   0.618  11.897
41464SOL    HW126224   6.116   0.605  11.872
41464SOL    HW226225   6.028   0.647  11.988
41465SOL     OW26226  13.579  14.249   3.916
41465SOL    HW126227  13.516  14.271   3.847
41465SOL    HW226228  13.626  14.173   3.882
41466SOL     OW26229   0.941   7.875   2.922
41466SOL    HW126230   0.996   7.817   2.870
41466SOL    HW226231   0.921   7.824   3.001
41467SOL     OW26232  10.193  10.092   6.634
41467SOL    HW126233  10.161  10.011   6.595
41467SOL    HW226234  10.265  10.119   6.576
41468SOL     OW26235   3.097   3.542  13.757
41468SOL    HW126236   3.004   3.563  13.772
41468SOL    HW226237   3.140   3.627  13.754
41469SOL     OW26238   6.145  10.512   1.584
41469SOL    HW126239   6.119  10.477   1.670
41469SOL    HW226240   6.239  10.496   1.579
41470SOL     OW26241   8.036   0.444   4.595
41470SOL    HW126242   8.111   0.396   4.562
41470SOL    HW226243   7.966   0.379   4.602
41471SOL     OW26244  12.042   4.205  14.127
41471SOL    HW126245  11.971   4.264  14.151
41471SOL    HW226246  12.009   4.157  14.051
41472SOL     OW26247   4.347   6.977  12.030
41472SOL    HW126248   4.377   6.916  11.962
41472SOL    HW226249   4.351   7.063  11.989
41473SOL     OW26250   9.461   8.039  10.269
41473SOL    HW126251   9.368   8.036  10.246
41473SOL    HW226252   9.462   8.020  10.363
41474SOL     OW26253  13.969   8.557   6.449
41474SOL    HW126254  13.888   8.578   6.496
41474SOL    HW226255  13.984   8.464   6.468
41475SOL     OW26256  11.770  11.319  11.415
41475SOL    HW126257  11.695  11.272  11.379
41475SOL    HW226258  11.755  11.317  11.510
41476SOL     OW26259  14.606   0.933   1.208
41476SOL    HW126260  14.678   0.871   1.199
41476SOL    HW226261  14.547   0.912   1.136
41477SOL     OW26262  11.746   9.419   7.129
41477SOL    HW126263  11.777   9.339   7.172
41477SOL    HW226264  11.672   9.391   7.075
41478SOL     OW26265   0.022  13.474   2.756
41478SOL    HW126266   0.078  13.550   2.772
41478SOL    HW226267  14.815  13.510   2.754
41479SOL     OW26268   4.022   2.665   9.052
41479SOL    HW126269   4.030   2.698   8.962
41479SOL    HW226270   4.081   2.590   9.055
41480SOL     OW26271  13.356   8.750  10.850
41480SOL    HW126272  13.303   8.743  10.930
41480SOL    HW226273  13.333   8.671  10.800
41481SOL     OW26274   6.178  11.744   8.061
41481SOL    HW126275   6.246  11.807   8.084
41481SOL    HW226276   6.117  11.792   8.006
41482SOL     OW26277  13.794  13.969   0.217
41482SOL    HW126278  13.889  13.971   0.215
41482SOL    HW226279  13.771  13.884   0.180
41483SOL     OW26280   4.177   6.089   4.973
41483SOL    HW126281   4.263   6.061   4.942
41483SOL    HW226282   4.195   6.164   5.029
41484SOL     OW26283  14.100  14.517   6.076
41484SOL    HW126284  14.036  14.482   6.139
41484SOL    HW226285  14.159  14.444   6.058
41485SOL     OW26286  11.529   7.717   3.727
41485SOL    HW126287  11.452   7.711   3.784
41485SOL    HW226288  11.597   7.755   3.783
41486SOL     OW26289  13.252   0.623   5.943
41486SOL    HW126290  13.341   0.652   5.964
41486SOL    HW226291  13.207   0.622   6.027
41487SOL     OW26292   6.559   1.119   3.975
41487SOL    HW126293   6.525   1.204   4.004
41487SOL    HW226294   6.633   1.142   3.917
41488SOL     OW26295  14.424   3.930   7.243
41488SOL    HW126296  14.485   3.969   7.305
41488SOL    HW226297  14.354   3.893   7.298
41489SOL     OW26298  14.646  14.450   3.175
41489SOL    HW126299  14.674  14.426   3.263
41489SOL    HW226300  14.567  14.397   3.160
41490SOL     OW26301   9.606  10.025  11.101
41490SOL    HW126302   9.582  10.104  11.053
41490SOL    HW226303   9.692  10.044  11.138
41491SOL     OW26304   0.524  11.060  11.796
41491SOL    HW126305   0.467  11.037  11.870
41491SOL    HW226306   0.577  11.133  11.827
41492SOL     OW26307   0.882   2.649  14.806
41492SOL    HW126308   0.911   2.569  14.850
41492SOL    HW226309   0.794   2.628  14.773
41493SOL     OW26310   0.105  14.483  13.096
41493SOL    HW126311   0.079  14.405  13.146
41493SOL    HW226312   0.157  14.535  13.158
41494SOL     OW26313  11.847   5.318   5.509
41494SOL    HW126314  11.764   5.307   5.556
41494SOL    HW226315  11.848   5.246   5.446
41495SOL     OW26316   4.755   1.479   5.851
41495SOL    HW126317   4.781   1.388   5.836
41495SOL    HW226318   4.833   1.520   5.887
41496SOL     OW26319   7.886   4.437   2.920
41496SOL    HW126320   7.951   4.489   2.968
41496SOL    HW226321   7.803   4.455   2.965
41497SOL     OW26322   3.614  14.631  14.378
41497SOL    HW126323   3.589  14.539  14.374
41497SOL    HW226324   3.664  14.639  14.459
41498SOL     OW26325  11.713   0.505   6.071
41498SOL    HW126326  11.746   0.493   5.982
41498SOL    HW226327  11.644   0.571   6.062
41499SOL     OW26328   0.882  10.005   6.103
41499SOL    HW126329   0.915  10.095   6.097
41499SOL    HW226330   0.917   9.962   6.025
41500SOL     OW26331  10.404   3.036   9.548
41500SOL    HW126332  10.454   3.052   9.467
41500SOL    HW226333  10.471   3.030   9.616
41501SOL     OW26334  10.127  12.345  12.366
41501SOL    HW126335  10.068  12.411  12.330
41501SOL    HW226336  10.206  12.352  12.314
41502SOL     OW26337  13.868   0.767  13.110
41502SOL    HW126338  13.890   0.795  13.021
41502SOL    HW226339  13.902   0.678  13.116
41503SOL     OW26340   9.361  12.178   3.698
41503SOL    HW126341   9.337  12.118   3.768
41503SOL    HW226342   9.421  12.129   3.642
41504SOL     OW26343  13.717   7.306  10.390
41504SOL    HW126344  13.712   7.386  10.338
41504SOL    HW226345  13.634   7.261  10.373
41505SOL     OW26346   7.544   8.664   4.549
41505SOL    HW126347   7.467   8.662   4.605
41505SOL    HW226348   7.604   8.725   4.593
41506SOL     OW26349  11.260   7.602   1.725
41506SOL    HW126350  11.176   7.645   1.709
41506SOL    HW226351  11.304   7.657   1.790
41507SOL     OW26352   3.731  10.959   6.291
41507SOL    HW126353   3.777  10.877   6.310
41507SOL    HW226354   3.718  11.000   6.376
41508SOL     OW26355   8.613   4.957   3.990
41508SOL    HW126356   8.560   4.878   3.993
41508SOL    HW226357   8.563   5.018   3.935
41509SOL     OW26358  13.845   6.883   9.995
41509SOL    HW126359  13.798   6.808  10.030
41509SOL    HW226360  13.781   6.930   9.942
41510SOL     OW26361  10.001  13.935  11.795
41510SOL    HW126362   9.943  13.947  11.719
41510SOL    HW226363  10.072  13.880  11.763
41511SOL     OW26364   3.302  12.175   0.025
41511SOL    HW126365   3.310  12.160   0.119
41511SOL    HW226366   3.264  12.095  14.872
41512SOL     OW26367   3.266   1.454   7.931
41512SOL    HW126368   3.342   1.419   7.885
41512SOL    HW226369   3.197   1.390   7.916
41513SOL     OW26370  11.828  12.276   9.041
41513SOL    HW126371  11.733  12.269   9.055
41513SOL    HW226372  11.837  12.283   8.945
41514SOL     OW26373  14.345   4.255  12.395
41514SOL    HW126374  14.426   4.293  12.360
41514SOL    HW226375  14.327   4.307  12.474
41515SOL     OW26376   4.732   7.450   0.210
41515SOL    HW126377   4.814   7.416   0.174
41515SOL    HW226378   4.753   7.540   0.236
41516SOL     OW26379   2.508  11.208  14.224
41516SOL    HW126380   2.486  11.300  14.231
41516SOL    HW226381   2.603  11.207  14.209
41517SOL     OW26382  12.988   4.455   7.863
41517SOL    HW126383  12.977   4.502   7.780
41517SOL    HW226384  12.926   4.382   7.857
41518SOL     OW26385   7.309  14.688   3.162
41518SOL    HW126386   7.273  14.650   3.243
41518SOL    HW226387   7.241  14.750   3.134
41519SOL     OW26388   0.748   9.340  14.019
41519SOL    HW126389   0.704   9.405  14.075
41519SOL    HW226390   0.812   9.298  14.076
41520SOL     OW26391  11.536   1.864   1.506
41520SOL    HW126392  11.594   1.827   1.439
41520SOL    HW226393  11.530   1.956   1.484
41521SOL     OW26394  11.731   1.399  13.690
41521SOL    HW126395  11.662   1.376  13.752
41521SOL    HW226396  11.685   1.434  13.614
41522SOL     OW26397   6.192  14.630  14.608
41522SOL    HW126398   6.277  14.671  14.593
41522SOL    HW226399   6.203  14.581  14.689
41523SOL     OW26400   1.087  13.280   8.594
41523SOL    HW126401   1.153  13.223   8.633
41523SOL    HW226402   1.012  13.222   8.578
41524SOL     OW26403   1.031   4.157   3.896
41524SOL    HW126404   1.045   4.162   3.801
41524SOL    HW226405   1.023   4.063   3.914
41525SOL     OW26406   4.789  11.532   1.225
41525SOL    HW126407   4.806  11.577   1.142
41525SOL    HW226408   4.730  11.461   1.202
41526SOL     OW26409  12.165   9.148  14.039
41526SOL    HW126410  12.233   9.133  13.973
41526SOL    HW226411  12.138   9.060  14.066
41527SOL     OW26412   0.033  12.255   2.384
41527SOL    HW126413   0.084  12.261   2.303
41527SOL    HW226414  14.828  12.288   2.361
41528SOL     OW26415   1.679  13.794   9.775
41528SOL    HW126416   1.642  13.877   9.744
41528SOL    HW226417   1.690  13.805   9.869
41529SOL     OW26418   9.333  11.513  11.347
41529SOL    HW126419   9.289  11.595  11.326
41529SOL    HW226420   9.388  11.495  11.271
41530SOL     OW26421   0.463  12.380  14.373
41530SOL    HW126422   0.419  12.419  14.449
41530SOL    HW226423   0.492  12.455  14.321
41531SOL     OW26424  14.788   3.884  10.646
41531SOL    HW126425  14.781   3.874  10.552
41531SOL    HW226426  14.722   3.825  10.682
41532SOL     OW26427   3.684  14.090   1.805
41532SOL    HW126428   3.765  14.041   1.792
41532SOL    HW226429   3.654  14.111   1.717
41533SOL     OW26430   7.307   8.036   5.111
41533SOL    HW126431   7.390   7.998   5.081
41533SOL    HW226432   7.323   8.130   5.115
41534SOL     OW26433  10.823   1.240  12.759
41534SOL    HW126434  10.829   1.201  12.673
41534SOL    HW226435  10.731   1.262  12.770
41535SOL     OW26436  10.876  11.569   8.067
41535SOL    HW126437  10.969  11.590   8.065
41535SOL    HW226438  10.867  11.493   8.009
41536SOL     OW26439   0.396   7.574   8.567
41536SOL    HW126440   0.431   7.507   8.508
41536SOL    HW226441   0.310   7.595   8.531
41537SOL     OW26442   6.759   8.380   7.354
41537SOL    HW126443   6.779   8.380   7.261
41537SOL    HW226444   6.824   8.439   7.393
41538SOL     OW26445   9.147   5.008   1.664
41538SOL    HW126446   9.103   4.927   1.692
41538SOL    HW226447   9.191   4.984   1.583
41539SOL     OW26448   3.525   8.397   6.008
41539SOL    HW126449   3.471   8.425   5.935
41539SOL    HW226450   3.567   8.316   5.979
41540SOL     OW26451  11.108   8.622   2.275
41540SOL    HW126452  11.051   8.545   2.276
41540SOL    HW226453  11.194   8.588   2.248
41541SOL     OW26454   1.613   0.775  13.898
41541SOL    HW126455   1.661   0.762  13.980
41541SOL    HW226456   1.668   0.735  13.831
41542SOL     OW26457   1.548   1.554   4.808
41542SOL    HW126458   1.595   1.477   4.777
41542SOL    HW226459   1.471   1.519   4.853
41543SOL     OW26460   0.013   7.630   6.792
41543SOL    HW126461  14.871   7.723   6.796
41543SOL    HW226462   0.103   7.630   6.761
41544SOL     OW26463  13.989   6.790   6.608
41544SOL    HW126464  14.079   6.797   6.638
41544SOL    HW226465  13.986   6.845   6.529
41545SOL     OW26466  12.379   0.121   7.005
41545SOL    HW126467  12.451   0.153   6.952
41545SOL    HW226468  12.307   0.110   6.943
41546SOL     OW26469   4.671   0.916   0.268
41546SOL    HW126470   4.693   0.955   0.184
41546SOL    HW226471   4.643   0.827   0.247
41547SOL     OW26472   4.535   0.255  10.561
41547SOL    HW126473   4.538   0.248  10.465
41547SOL    HW226474   4.462   0.315  10.578
41548SOL     OW26475   9.791   4.542   9.175
41548SOL    HW126476   9.875   4.521   9.136
41548SOL    HW226477   9.727   4.513   9.110
41549SOL     OW26478   4.060   2.421   1.052
41549SOL    HW126479   4.105   2.447   0.971
41549SOL    HW226480   4.078   2.328   1.060
41550SOL     OW26481  14.426   6.682  10.177
41550SOL    HW126482  14.376   6.759  10.204
41550SOL    HW226483  14.494   6.672  10.243
41551SOL     OW26484  13.430  11.123   9.586
41551SOL    HW126485  13.416  11.106   9.679
41551SOL    HW226486  13.522  11.148   9.579
41552SOL     OW26487  14.434   3.445   1.542
41552SOL    HW126488  14.439   3.535   1.510
41552SOL    HW226489  14.516   3.432   1.591
41553SOL     OW26490   9.592   6.936  12.952
41553SOL    HW126491   9.649   6.891  13.015
41553SOL    HW226492   9.527   6.870  12.928
41554SOL     OW26493   5.939   5.635  11.367
41554SOL    HW126494   5.955   5.545  11.394
41554SOL    HW226495   6.003   5.651  11.297
41555SOL     OW26496   3.743   7.131   3.934
41555SOL    HW126497   3.739   7.226   3.928
41555SOL    HW226498   3.791   7.114   4.015
41556SOL     OW26499  14.850   4.880   8.342
41556SOL    HW126500  14.790   4.830   8.286
41556SOL    HW226501   0.010   4.814   8.398
41557SOL     OW26502   9.333   0.593   8.846
41557SOL    HW126503   9.338   0.656   8.917
41557SOL    HW226504   9.417   0.600   8.801
41558SOL     OW26505   8.257   2.588  14.664
41558SOL    HW126506   8.183   2.612  14.609
41558SOL    HW226507   8.333   2.596  14.608
41559SOL     OW26508  14.009  12.490  13.387
41559SOL    HW126509  14.007  12.567  13.331
41559SOL    HW226510  14.089  12.444  13.362
41560SOL     OW26511  10.667  13.698   3.313
41560SOL    HW126512  10.711  13.780   3.289
41560SOL    HW226513  10.739  13.635   3.323
41561SOL     OW26514   0.058  10.649   1.599
41561SOL    HW126515   0.124  10.638   1.531
41561SOL    HW226516  14.878  10.578   1.584
41562SOL     OW26517  12.096   4.928   5.880
41562SOL    HW126518  12.026   4.880   5.924
41562SOL    HW226519  12.055   4.963   5.801
41563SOL     OW26520   3.783   7.202   9.980
41563SOL    HW126521   3.816   7.187  10.068
41563SOL    HW226522   3.760   7.114   9.948
41564SOL     OW26523   3.985  12.037   1.429
41564SOL    HW126524   3.991  12.009   1.338
41564SOL    HW226525   3.998  11.957   1.480
41565SOL     OW26526   9.314   8.836   2.762
41565SOL    HW126527   9.221   8.829   2.784
41565SOL    HW226528   9.342   8.746   2.745
41566SOL     OW26529   7.432   3.023   0.887
41566SOL    HW126530   7.400   3.034   0.977
41566SOL    HW226531   7.353   3.026   0.833
41567SOL     OW26532  11.731   0.796   4.932
41567SOL    HW126533  11.778   0.872   4.965
41567SOL    HW226534  11.724   0.737   5.008
41568SOL     OW26535   4.237   3.632   9.742
41568SOL    HW126536   4.295   3.642   9.818
41568SOL    HW226537   4.290   3.584   9.678
41569SOL     OW26538   9.088  11.595   6.615
41569SOL    HW126539   9.034  11.654   6.666
41569SOL    HW226540   9.061  11.609   6.524
41570SOL     OW26541   9.530   9.913   9.078
41570SOL    HW126542   9.524  10.001   9.041
41570SOL    HW226543   9.496   9.923   9.167
41571SOL     OW26544   2.671   0.672  12.597
41571SOL    HW126545   2.742   0.653  12.658
41571SOL    HW226546   2.674   0.767  12.585
41572SOL     OW26547  13.308  11.779   4.796
41572SOL    HW126548  13.393  11.814   4.767
41572SOL    HW226549  13.329  11.691   4.828
41573SOL     OW26550   3.835   1.744  13.197
41573SOL    HW126551   3.818   1.832  13.163
41573SOL    HW226552   3.824   1.687  13.121
41574SOL     OW26553   9.774   1.289   6.544
41574SOL    HW126554   9.734   1.226   6.484
41574SOL    HW226555   9.701   1.322   6.597
41575SOL     OW26556   5.784   9.205   5.388
41575SOL    HW126557   5.745   9.293   5.390
41575SOL    HW226558   5.733   9.158   5.322
41576SOL     OW26559  11.223   7.886  13.303
41576SOL    HW126560  11.167   7.825  13.256
41576SOL    HW226561  11.296   7.833  13.335
41577SOL     OW26562   8.586  10.709  12.316
41577SOL    HW126563   8.490  10.701  12.310
41577SOL    HW226564   8.617  10.685  12.229
41578SOL     OW26565  12.996   1.841   2.623
41578SOL    HW126566  13.037   1.763   2.585
41578SOL    HW226567  13.048   1.914   2.588
41579SOL     OW26568   9.980   0.062  10.467
41579SOL    HW126569   9.938  14.874  10.516
41579SOL    HW226570  10.051   0.092  10.524
41580SOL     OW26571  12.379  11.484   4.809
41580SOL    HW126572  12.383  11.444   4.896
41580SOL    HW226573  12.286  11.496   4.792
41581SOL     OW26574  13.764   9.153   4.046
41581SOL    HW126575  13.782   9.232   4.099
41581SOL    HW226576  13.687   9.176   3.994
41582SOL     OW26577   9.540   2.317   8.789
41582SOL    HW126578   9.555   2.361   8.872
41582SOL    HW226579   9.450   2.283   8.795
41583SOL     OW26580   7.253  14.474   2.532
41583SOL    HW126581   7.278  14.541   2.596
41583SOL    HW226582   7.330  14.417   2.526
41584SOL     OW26583   0.039  14.052   9.301
41584SOL    HW126584   0.128  14.042   9.268
41584SOL    HW226585  14.869  13.992   9.247
41585SOL     OW26586   3.291   1.599   4.845
41585SOL    HW126587   3.273   1.693   4.836
41585SOL    HW226588   3.380   1.589   4.812
41586SOL     OW26589   9.377   1.761  12.494
41586SOL    HW126590   9.470   1.781  12.490
41586SOL    HW226591   9.337   1.839  12.531
41587SOL     OW26592   7.413  11.052   6.401
41587SOL    HW126593   7.498  11.083   6.370
41587SOL    HW226594   7.422  10.957   6.404
41588SOL     OW26595  12.991   0.758  14.410
41588SOL    HW126596  12.973   0.836  14.462
41588SOL    HW226597  13.034   0.791  14.331
41589SOL     OW26598   3.573  10.911  11.531
41589SOL    HW126599   3.662  10.947  11.525
41589SOL    HW226600   3.579  10.843  11.598
41590SOL     OW26601  11.546   5.551  14.002
41590SOL    HW126602  11.546   5.549  13.907
41590SOL    HW226603  11.634   5.522  14.027
41591SOL     OW26604   2.251   0.493  10.697
41591SOL    HW126605   2.332   0.495  10.748
41591SOL    HW226606   2.274   0.533  10.614
41592SOL     OW26607   7.380  14.044   3.141
41592SOL    HW126608   7.353  14.000   3.061
41592SOL    HW226609   7.462  14.000   3.166
41593SOL     OW26610  12.454   6.582   1.989
41593SOL    HW126611  12.502   6.662   1.973
41593SOL    HW226612  12.521   6.515   2.003
41594SOL     OW26613   0.382  12.859   3.686
41594SOL    HW126614   0.413  12.769   3.700
41594SOL    HW226615   0.289  12.856   3.706
41595SOL     OW26616  13.798   4.345   4.993
41595SOL    HW126617  13.728   4.375   5.051
41595SOL    HW226618  13.848   4.282   5.046
41596SOL     OW26619   1.601  11.516  13.220
41596SOL    HW126620   1.547  11.438  13.214
41596SOL    HW226621   1.605  11.535  13.314
41597SOL     OW26622   6.774  10.889  13.801
41597SOL    HW126623   6.827  10.831  13.856
41597SOL    HW226624   6.697  10.837  13.779
41598SOL     OW26625  11.930   2.707  12.359
41598SOL    HW126626  11.966   2.643  12.420
41598SOL    HW226627  11.847   2.669  12.330
41599SOL     OW26628   0.938   6.271   1.162
41599SOL    HW126629   0.991   6.310   1.092
41599SOL    HW226630   0.910   6.345   1.215
41600SOL     OW26631   7.937   2.986   5.635
41600SOL    HW126632   7.890   3.017   5.712
41600SOL    HW226633   7.925   2.891   5.637
41601SOL     OW26634  13.379  11.334  10.789
41601SOL    HW126635  13.379  11.429  10.783
41601SOL    HW226636  13.301  11.306  10.741
41602SOL     OW26637   6.226   3.784  13.708
41602SOL    HW126638   6.264   3.837  13.778
41602SOL    HW226639   6.182   3.712  13.753
41603SOL     OW26640  10.270   2.915   7.777
41603SOL    HW126641  10.185   2.902   7.819
41603SOL    HW226642  10.332   2.868   7.833
41604SOL     OW26643  10.340   7.409   0.390
41604SOL    HW126644  10.357   7.440   0.479
41604SOL    HW226645  10.376   7.478   0.334
41605SOL     OW26646   8.290   7.675  14.024
41605SOL    HW126647   8.210   7.718  13.993
41605SOL    HW226648   8.359   7.708  13.967
41606SOL     OW26649   7.373   2.000  14.383
41606SOL    HW126650   7.455   1.951  14.389
41606SOL    HW226651   7.397   2.080  14.337
41607SOL     OW26652   5.069   2.287   3.759
41607SOL    HW126653   4.978   2.264   3.739
41607SOL    HW226654   5.115   2.203   3.763
41608SOL     OW26655   1.293   3.659   0.087
41608SOL    HW126656   1.338   3.624   0.164
41608SOL    HW226657   1.302   3.754   0.095
41609SOL     OW26658   4.486  12.221  12.758
41609SOL    HW126659   4.399  12.184  12.745
41609SOL    HW226660   4.487  12.299  12.702
41610SOL     OW26661  14.600  11.051  11.100
41610SOL    HW126662  14.681  11.059  11.151
41610SOL    HW226663  14.628  11.062  11.009
41611SOL     OW26664   0.639  12.638   6.182
41611SOL    HW126665   0.584  12.603   6.252
41611SOL    HW226666   0.671  12.721   6.216
41612SOL     OW26667   3.039   4.448  10.068
41612SOL    HW126668   2.962   4.503  10.054
41612SOL    HW226669   3.067   4.423   9.980
41613SOL     OW26670   2.077  13.601   8.725
41613SOL    HW126671   2.132  13.553   8.787
41613SOL    HW226672   2.016  13.536   8.691
41614SOL     OW26673   8.983  13.326   5.689
41614SOL    HW126674   9.025  13.261   5.633
41614SOL    HW226675   9.003  13.410   5.647
41615SOL     OW26676   9.586   3.348  12.324
41615SOL    HW126677   9.570   3.260  12.358
41615SOL    HW226678   9.546   3.406  12.389
41616SOL     OW26679   1.953  14.056   0.020
41616SOL    HW126680   1.964  14.052  14.807
41616SOL    HW226681   1.996  14.138   0.046
41617SOL     OW26682   3.168   4.960  12.585
41617SOL    HW126683   3.242   4.900  12.582
41617SOL    HW226684   3.171   4.997  12.674
41618SOL     OW26685   1.415  14.524  14.147
41618SOL    HW126686   1.412  14.533  14.051
41618SOL    HW226687   1.474  14.593  14.176
41619SOL     OW26688  12.656  13.162   1.781
41619SOL    HW126689  12.634  13.232   1.720
41619SOL    HW226690  12.689  13.091   1.725
41620SOL     OW26691   8.416   9.560   9.724
41620SOL    HW126692   8.474   9.632   9.748
41620SOL    HW226693   8.352   9.557   9.795
41621SOL     OW26694   2.580  13.427  12.599
41621SOL    HW126695   2.612  13.484  12.530
41621SOL    HW226696   2.547  13.350  12.553
41622SOL     OW26697   8.181   4.812   8.273
41622SOL    HW126698   8.207   4.888   8.221
41622SOL    HW226699   8.175   4.845   8.362
41623SOL     OW26700   8.663  11.645  12.667
41623SOL    HW126701   8.632  11.688  12.588
41623SOL    HW226702   8.632  11.701  12.739
41624SOL     OW26703   8.365   2.881  10.270
41624SOL    HW126704   8.450   2.837  10.276
41624SOL    HW226705   8.301   2.812  10.286
41625SOL     OW26706   3.147   8.688   6.227
41625SOL    HW126707   3.069   8.672   6.175
41625SOL    HW226708   3.214   8.632   6.188
41626SOL     OW26709   5.857   6.948  11.882
41626SOL    HW126710   5.846   7.003  11.804
41626SOL    HW226711   5.838   6.859  11.851
41627SOL     OW26712  11.304  13.491   8.456
41627SOL    HW126713  11.335  13.488   8.546
41627SOL    HW226714  11.210  13.474   8.462
41628SOL     OW26715  10.623   4.053  14.833
41628SOL    HW126716  10.684   4.127  14.833
41628SOL    HW226717  10.651   3.999   0.026
41629SOL     OW26718   3.841   2.037   5.236
41629SOL    HW126719   3.869   1.953   5.199
41629SOL    HW226720   3.745   2.034   5.231
41630SOL     OW26721  11.248  10.213   3.231
41630SOL    HW126722  11.269  10.271   3.304
41630SOL    HW226723  11.155  10.192   3.241
41631SOL     OW26724   4.031  10.299   5.960
41631SOL    HW126725   3.948  10.252   5.956
41631SOL    HW226726   4.057  10.294   6.052
41632SOL     OW26727  11.557   1.696   7.530
41632SOL    HW126728  11.546   1.703   7.625
41632SOL    HW226729  11.616   1.622   7.518
41633SOL     OW26730   4.724   0.805  11.956
41633SOL    HW126731   4.705   0.868  12.025
41633SOL    HW226732   4.777   0.737  11.998
41634SOL     OW26733   7.717  12.250   9.300
41634SOL    HW126734   7.811  12.263   9.290
41634SOL    HW226735   7.705  12.156   9.296
41635SOL     OW26736   9.750   3.497  12.684
41635SOL    HW126737   9.715   3.522  12.769
41635SOL    HW226738   9.814   3.565  12.663
41636SOL     OW26739   5.165   6.139  14.328
41636SOL    HW126740   5.126   6.062  14.286
41636SOL    HW226741   5.106   6.159  14.401
41637SOL     OW26742   0.725   7.171   1.766
41637SOL    HW126743   0.756   7.259   1.743
41637SOL    HW226744   0.632   7.172   1.742
41638SOL     OW26745  12.838   4.473   9.665
41638SOL    HW126746  12.759   4.525   9.655
41638SOL    HW226747  12.821   4.417   9.740
41639SOL     OW26748  14.568   2.097  11.436
41639SOL    HW126749  14.660   2.120  11.436
41639SOL    HW226750  14.537   2.122  11.523
41640SOL     OW26751  13.406  13.385   0.235
41640SOL    HW126752  13.350  13.393   0.312
41640SOL    HW226753  13.355  13.425   0.164
41641SOL     OW26754   2.174  10.032   1.616
41641SOL    HW126755   2.093  10.005   1.571
41641SOL    HW226756   2.158  10.123   1.642
41642SOL     OW26757  11.897   6.808   6.167
41642SOL    HW126758  11.890   6.798   6.262
41642SOL    HW226759  11.822   6.862   6.143
41643SOL     OW26760  10.226  13.703   3.371
41643SOL    HW126761  10.223  13.608   3.383
41643SOL    HW226762  10.320  13.724   3.371
41644SOL     OW26763   8.664  13.962   2.924
41644SOL    HW126764   8.707  13.935   2.842
41644SOL    HW226765   8.599  13.893   2.940
41645SOL     OW26766  12.852  10.757   3.336
41645SOL    HW126767  12.823  10.844   3.364
41645SOL    HW226768  12.772  10.705   3.333
41646SOL     OW26769   0.735   8.700  11.050
41646SOL    HW126770   0.719   8.792  11.070
41646SOL    HW226771   0.830   8.691  11.053
41647SOL     OW26772  12.947  12.561   1.959
41647SOL    HW126773  12.875  12.600   1.911
41647SOL    HW226774  13.023  12.614   1.936
41648SOL     OW26775  13.509   8.794   9.372
41648SOL    HW126776  13.560   8.727   9.327
41648SOL    HW226777  13.476   8.850   9.303
41649SOL     OW26778  14.687   2.333  12.828
41649SOL    HW126779  14.641   2.358  12.748
41649SOL    HW226780  14.774   2.307  12.799
41650SOL     OW26781   7.071  13.272  12.140
41650SOL    HW126782   7.031  13.252  12.225
41650SOL    HW226783   7.164  13.254  12.153
41651SOL     OW26784   1.409   4.484   6.048
41651SOL    HW126785   1.493   4.513   6.012
41651SOL    HW226786   1.353   4.471   5.972
41652SOL     OW26787   1.517   1.793  10.931
41652SOL    HW126788   1.463   1.829  10.860
41652SOL    HW226789   1.604   1.830  10.915
41653SOL     OW26790  10.905   3.320  12.023
41653SOL    HW126791  10.972   3.353  12.083
41653SOL    HW226792  10.900   3.226  12.042
41654SOL     OW26793   3.967   0.757  12.818
41654SOL    HW126794   3.900   0.701  12.777
41654SOL    HW226795   3.936   0.846  12.804
41655SOL     OW26796  11.792   4.114  10.112
41655SOL    HW126797  11.710   4.065  10.115
41655SOL    HW226798  11.849   4.063  10.054
41656SOL     OW26799   5.915  14.801   1.898
41656SOL    HW126800   5.898   0.012   1.913
41656SOL    HW226801   5.951  14.797   1.810
41657SOL     OW26802  14.739   4.912  11.665
41657SOL    HW126803  14.718   4.863  11.744
41657SOL    HW226804  14.735   5.004  11.692
41658SOL     OW26805   1.014  12.734  14.050
41658SOL    HW126806   1.050  12.822  14.056
41658SOL    HW226807   0.921  12.744  14.072
41659SOL     OW26808   4.097   0.107   5.573
41659SOL    HW126809   4.160   0.079   5.638
41659SOL    HW226810   4.013   0.071   5.603
41660SOL     OW26811   7.021  10.841  11.425
41660SOL    HW126812   7.109  10.869  11.399
41660SOL    HW226813   7.027  10.827  11.520
41661SOL     OW26814   7.711   1.502   7.225
41661SOL    HW126815   7.734   1.410   7.236
41661SOL    HW226816   7.753   1.546   7.299
41662SOL     OW26817   9.071   5.954   1.780
41662SOL    HW126818   9.101   5.921   1.865
41662SOL    HW226819   8.977   5.934   1.778
41663SOL     OW26820   5.507   3.504   4.191
41663SOL    HW126821   5.469   3.453   4.120
41663SOL    HW226822   5.471   3.465   4.271
41664SOL     OW26823   4.145   5.611   0.783
41664SOL    HW126824   4.077   5.612   0.716
41664SOL    HW226825   4.227   5.614   0.734
41665SOL     OW26826   1.740   4.219  10.477
41665SOL    HW126827   1.779   4.133  10.465
41665SOL    HW226828   1.659   4.217  10.426
41666SOL     OW26829  11.022  12.731  11.936
41666SOL    HW126830  10.950  12.674  11.909
41666SOL    HW226831  11.072  12.746  11.855
41667SOL     OW26832  13.620   8.191  14.251
41667SOL    HW126833  13.702   8.173  14.205
41667SOL    HW226834  13.638   8.268  14.304
41668SOL     OW26835   2.667   7.722   4.967
41668SOL    HW126836   2.578   7.739   4.998
41668SOL    HW226837   2.717   7.799   4.995
41669SOL     OW26838  11.866   8.775   0.945
41669SOL    HW126839  11.960   8.768   0.927
41669SOL    HW226840  11.834   8.685   0.941
41670SOL     OW26841  11.782   6.542   1.226
41670SOL    HW126842  11.827   6.596   1.160
41670SOL    HW226843  11.748   6.467   1.177
41671SOL     OW26844   5.038  12.102  12.535
41671SOL    HW126845   5.074  12.185  12.503
41671SOL    HW226846   5.050  12.106  12.630
41672SOL     OW26847   8.178   3.141  10.759
41672SOL    HW126848   8.107   3.203  10.743
41672SOL    HW226849   8.139   3.055  10.743
41673SOL     OW26850  13.229   6.177   2.219
41673SOL    HW126851  13.247   6.230   2.296
41673SOL    HW226852  13.135   6.159   2.224
41674SOL     OW26853   0.141  11.845  11.938
41674SOL    HW126854   0.130  11.880  11.850
41674SOL    HW226855   0.147  11.750  11.926
41675SOL     OW26856   9.090   2.949   1.026
41675SOL    HW126857   9.051   3.019   0.973
41675SOL    HW226858   9.127   2.888   0.963
41676SOL     OW26859   4.403  11.324   6.300
41676SOL    HW126860   4.350  11.262   6.349
41676SOL    HW226861   4.489  11.321   6.343
41677SOL     OW26862   8.745  12.644   0.815
41677SOL    HW126863   8.776  12.706   0.881
41677SOL    HW226864   8.699  12.699   0.750
41678SOL     OW26865  13.258   2.592   4.108
41678SOL    HW126866  13.167   2.562   4.113
41678SOL    HW226867  13.301   2.530   4.049
41679SOL     OW26868   7.740  14.077   9.763
41679SOL    HW126869   7.718  14.150   9.705
41679SOL    HW226870   7.835  14.068   9.756
41680SOL     OW26871   0.268   2.784   3.877
41680SOL    HW126872   0.356   2.787   3.839
41680SOL    HW226873   0.273   2.840   3.955
41681SOL     OW26874  13.003  13.956  10.574
41681SOL    HW126875  12.967  13.969  10.662
41681SOL    HW226876  13.066  14.027  10.563
41682SOL     OW26877  13.277  12.187   5.257
41682SOL    HW126878  13.277  12.120   5.188
41682SOL    HW226879  13.185  12.196   5.281
41683SOL     OW26880  13.165  10.186  14.485
41683SOL    HW126881  13.211  10.129  14.547
41683SOL    HW226882  13.203  10.272  14.499
41684SOL     OW26883  14.470  11.805   5.779
41684SOL    HW126884  14.530  11.771   5.713
41684SOL    HW226885  14.485  11.900   5.778
41685SOL     OW26886   9.270  14.291   2.224
41685SOL    HW126887   9.332  14.362   2.205
41685SOL    HW226888   9.322  14.211   2.212
41686SOL     OW26889  11.374   6.600   1.126
41686SOL    HW126890  11.376   6.689   1.161
41686SOL    HW226891  11.336   6.547   1.197
41687SOL     OW26892   8.518   8.977  12.197
41687SOL    HW126893   8.423   8.976  12.204
41687SOL    HW226894   8.539   9.065  12.165
41688SOL     OW26895   8.845  13.696   1.542
41688SOL    HW126896   8.858  13.790   1.552
41688SOL    HW226897   8.791  13.671   1.617
41689SOL     OW26898  12.286  13.140   6.837
41689SOL    HW126899  12.257  13.147   6.747
41689SOL    HW226900  12.266  13.226   6.875
41690SOL     OW26901   6.670   6.827   1.001
41690SOL    HW126902   6.732   6.861   1.065
41690SOL    HW226903   6.629   6.752   1.044
41691SOL     OW26904  12.999   5.904  14.779
41691SOL    HW126905  12.952   5.967  14.725
41691SOL    HW226906  12.999   5.823  14.727
41692SOL     OW26907   3.040   7.807   6.791
41692SOL    HW126908   3.058   7.784   6.882
41692SOL    HW226909   3.126   7.801   6.748
41693SOL     OW26910   5.675  11.665   1.550
41693SOL    HW126911   5.597  11.697   1.597
41693SOL    HW226912   5.644  11.588   1.503
41694SOL     OW26913  14.680   7.869   3.655
41694SOL    HW126914  14.664   7.950   3.705
41694SOL    HW226915  14.725   7.812   3.717
41695SOL     OW26916   9.909  11.687   0.743
41695SOL    HW126917   9.820  11.715   0.762
41695SOL    HW226918   9.945  11.662   0.829
41696SOL     OW26919   8.556   2.742  13.113
41696SOL    HW126920   8.476   2.754  13.062
41696SOL    HW226921   8.549   2.654  13.149
41697SOL     OW26922   8.242   9.961   6.240
41697SOL    HW126923   8.296   9.977   6.318
41697SOL    HW226924   8.189   9.885   6.263
41698SOL     OW26925   5.695  12.583   2.274
41698SOL    HW126926   5.639  12.598   2.197
41698SOL    HW226927   5.784  12.590   2.241
41699SOL     OW26928  12.953   9.973   8.117
41699SOL    HW126929  12.964   9.905   8.184
41699SOL    HW226930  12.933  10.052   8.167
41700SOL     OW26931  12.000  12.046   2.883
41700SOL    HW126932  12.016  12.106   2.810
41700SOL    HW226933  11.905  12.049   2.895
41701SOL     OW26934   1.191   0.166  11.056
41701SOL    HW126935   1.214   0.083  11.097
41701SOL    HW226936   1.098   0.157  11.035
41702SOL     OW26937  12.525   1.771   9.607
41702SOL    HW126938  12.469   1.770   9.684
41702SOL    HW226939  12.609   1.736   9.637
41703SOL     OW26940  13.587   5.982   4.430
41703SOL    HW126941  13.666   6.035   4.437
41703SOL    HW226942  13.517   6.046   4.415
41704SOL     OW26943  14.519   9.144   4.103
41704SOL    HW126944  14.450   9.091   4.064
41704SOL    HW226945  14.596   9.125   4.051
41705SOL     OW26946   0.451  14.478  14.716
41705SOL    HW126947   0.504  14.398  14.715
41705SOL    HW226948   0.507  14.544  14.675
41706SOL     OW26949  10.665   4.442  10.938
41706SOL    HW126950  10.705   4.506  10.996
41706SOL    HW226951  10.669   4.360  10.986
41707SOL     OW26952   0.149   4.686   3.743
41707SOL    HW126953   0.119   4.772   3.713
41707SOL    HW226954   0.203   4.706   3.820
41708SOL     OW26955   7.266  11.943   9.042
41708SOL    HW126956   7.322  12.021   9.049
41708SOL    HW226957   7.222  11.938   9.127
41709SOL     OW26958  13.613   5.983   5.920
41709SOL    HW126959  13.653   6.030   5.994
41709SOL    HW226960  13.520   6.006   5.925
41710SOL     OW26961  12.460  11.763   5.021
41710SOL    HW126962  12.424  11.827   5.082
41710SOL    HW226963  12.394  11.755   4.952
41711SOL     OW26964  12.576   3.744   8.680
41711SOL    HW126965  12.492   3.743   8.726
41711SOL    HW226966  12.555   3.774   8.592
41712SOL     OW26967   2.312   4.037  11.067
41712SOL    HW126968   2.362   3.961  11.097
41712SOL    HW226969   2.354   4.112  11.110
41713SOL     OW26970  12.453   7.857   2.053
41713SOL    HW126971  12.459   7.928   2.117
41713SOL    HW226972  12.395   7.891   1.984
41714SOL     OW26973   9.958   4.990   2.905
41714SOL    HW126974  10.053   4.992   2.918
41714SOL    HW226975   9.936   4.897   2.904
41715SOL     OW26976   3.934  11.758   1.524
41715SOL    HW126977   3.924  11.736   1.431
41715SOL    HW226978   3.845  11.752   1.560
41716SOL     OW26979  14.877   3.553  14.786
41716SOL    HW126980  14.794   3.529  14.745
41716SOL    HW226981  14.859   3.549  14.880
41717SOL     OW26982  14.451   8.643  11.069
41717SOL    HW126983  14.367   8.686  11.056
41717SOL    HW226984  14.507   8.709  11.110
41718SOL     OW26985   1.163   0.913   5.109
41718SOL    HW126986   1.121   0.873   5.033
41718SOL    HW226987   1.242   0.953   5.074
41719SOL     OW26988   8.664   0.689  13.944
41719SOL    HW126989   8.600   0.728  13.884
41719SOL    HW226990   8.634   0.598  13.955
41720SOL     OW26991   1.488   9.741   7.127
41720SOL    HW126992   1.492   9.696   7.211
41720SOL    HW226993   1.396   9.762   7.114
41721SOL     OW26994  12.575   7.402   5.639
41721SOL    HW126995  12.560   7.458   5.562
41721SOL    HW226996  12.645   7.343   5.611
41722SOL     OW26997  13.862  13.311   4.387
41722SOL    HW126998  13.811  13.288   4.464
41722SOL    HW226999  13.806  13.290   4.312
41723SOL     OW27000   5.538   6.186   1.635
41723SOL    HW127001   5.540   6.237   1.554
41723SOL    HW227002   5.517   6.250   1.703
41724SOL     OW27003   1.085   9.767  12.885
41724SOL    HW127004   1.150   9.735  12.948
41724SOL    HW227005   1.078   9.861  12.903
41725SOL     OW27006  10.731   5.924   0.934
41725SOL    HW127007  10.802   5.988   0.942
41725SOL    HW227008  10.704   5.929   0.842
41726SOL     OW27009  11.483   7.444   4.069
41726SOL    HW127010  11.399   7.463   4.026
41726SOL    HW227011  11.510   7.360   4.032
41727SOL     OW27012   8.491   8.099   7.608
41727SOL    HW127013   8.513   8.085   7.516
41727SOL    HW227014   8.566   8.065   7.656
41728SOL     OW27015  11.380   1.010   6.386
41728SOL    HW127016  11.328   0.975   6.458
41728SOL    HW227017  11.430   1.081   6.425
41729SOL     OW27018  14.586   7.724   0.927
41729SOL    HW127019  14.606   7.678   0.845
41729SOL    HW227020  14.490   7.726   0.930
41730SOL     OW27021   1.650   1.772  12.234
41730SOL    HW127022   1.612   1.697  12.190
41730SOL    HW227023   1.597   1.847  12.206
41731SOL     OW27024   8.618   2.049   1.789
41731SOL    HW127025   8.703   2.006   1.787
41731SOL    HW227026   8.636   2.138   1.759
41732SOL     OW27027  10.594  13.514   6.388
41732SOL    HW127028  10.650  13.491   6.463
41732SOL    HW227029  10.531  13.443   6.382
41733SOL     OW27030   7.598   3.947   2.883
41733SOL    HW127031   7.599   3.852   2.881
41733SOL    HW227032   7.647   3.971   2.961
41734SOL     OW27033  13.871   9.059   9.197
41734SOL    HW127034  13.909   8.978   9.232
41734SOL    HW227035  13.792   9.072   9.250
41735SOL     OW27036  14.732   6.989  10.655
41735SOL    HW127037  14.819   7.012  10.619
41735SOL    HW227038  14.746   6.907  10.701
41736SOL     OW27039   5.886  12.714  14.806
41736SOL    HW127040   5.802  12.757  14.825
41736SOL    HW227041   5.917  12.757  14.726
41737SOL     OW27042   2.436   3.867  10.000
41737SOL    HW127043   2.469   3.778  10.005
41737SOL    HW227044   2.424   3.883   9.907
41738SOL     OW27045  13.018   8.790   1.729
41738SOL    HW127046  13.071   8.825   1.657
41738SOL    HW227047  12.971   8.867   1.762
41739SOL     OW27048   1.749  13.909  13.117
41739SOL    HW127049   1.774  13.938  13.029
41739SOL    HW227050   1.797  13.967  13.176
41740SOL     OW27051  11.666  14.229   9.118
41740SOL    HW127052  11.743  14.286   9.115
41740SOL    HW227053  11.670  14.178   9.037
41741SOL     OW27054   0.363  11.253   5.264
41741SOL    HW127055   0.334  11.163   5.246
41741SOL    HW227056   0.379  11.290   5.178
41742SOL     OW27057   5.037   4.764   2.069
41742SOL    HW127058   5.024   4.779   1.976
41742SOL    HW227059   5.130   4.781   2.083
41743SOL     OW27060   3.817  10.544   5.094
41743SOL    HW127061   3.834  10.479   5.027
41743SOL    HW227062   3.726  10.571   5.078
41744SOL     OW27063   8.643   9.386   2.621
41744SOL    HW127064   8.698   9.446   2.570
41744SOL    HW227065   8.684   9.300   2.609
41745SOL     OW27066   5.653   5.318  11.934
41745SOL    HW127067   5.676   5.335  11.842
41745SOL    HW227068   5.585   5.381  11.954
41746SOL     OW27069   6.190   4.410   3.281
41746SOL    HW127070   6.144   4.402   3.364
41746SOL    HW227071   6.186   4.322   3.243
41747SOL     OW27072   4.239   0.659   3.582
41747SOL    HW127073   4.207   0.598   3.515
41747SOL    HW227074   4.228   0.611   3.665
41748SOL     OW27075   9.643   8.675   2.831
41748SOL    HW127076   9.637   8.665   2.926
41748SOL    HW227077   9.571   8.621   2.797
41749SOL     OW27078   8.199   5.061  12.084
41749SOL    HW127079   8.143   5.136  12.106
41749SOL    HW227080   8.287   5.090  12.109
41750SOL     OW27081  10.814  10.868   7.801
41750SOL    HW127082  10.881  10.810   7.837
41750SOL    HW227083  10.768  10.903   7.877
41751SOL     OW27084   6.525  11.857   0.433
41751SOL    HW127085   6.442  11.882   0.393
41751SOL    HW227086   6.588  11.854   0.360
41752SOL     OW27087   5.976  11.809  12.366
41752SOL    HW127088   5.889  11.783  12.336
41752SOL    HW227089   6.015  11.729  12.400
41753SOL     OW27090   5.920   7.259   9.044
41753SOL    HW127091   5.972   7.213   8.978
41753SOL    HW227092   5.846   7.295   8.995
41754SOL     OW27093   7.783  12.175  12.070
41754SOL    HW127094   7.717  12.212  12.012
41754SOL    HW227095   7.747  12.185  12.158
41755SOL     OW27096  14.371   7.919   2.753
41755SOL    HW127097  14.368   7.824   2.746
41755SOL    HW227098  14.279   7.946   2.750
41756SOL     OW27099   6.850   8.781   1.720
41756SOL    HW127100   6.787   8.781   1.648
41756SOL    HW227101   6.934   8.762   1.679
41757SOL     OW27102  13.973   8.394   8.889
41757SOL    HW127103  14.010   8.315   8.930
41757SOL    HW227104  14.040   8.421   8.826
41758SOL     OW27105   9.679  10.120  11.944
41758SOL    HW127106   9.724  10.156  12.020
41758SOL    HW227107   9.743  10.124  11.874
41759SOL     OW27108   1.815   8.189  13.689
41759SOL    HW127109   1.849   8.099  13.691
41759SOL    HW227110   1.736   8.183  13.634
41760SOL     OW27111   1.412   7.300  11.445
41760SOL    HW127112   1.490   7.245  11.454
41760SOL    HW227113   1.351   7.266  11.510
41761SOL     OW27114   8.557  12.419   7.030
41761SOL    HW127115   8.521  12.337   6.996
41761SOL    HW227116   8.536  12.485   6.964
41762SOL     OW27117   5.652   5.419   5.408
41762SOL    HW127118   5.574   5.417   5.352
41762SOL    HW227119   5.723   5.387   5.353
41763SOL     OW27120  10.599   8.137  11.273
41763SOL    HW127121  10.522   8.188  11.249
41763SOL    HW227122  10.590   8.124  11.367
41764SOL     OW27123  13.221   5.600   6.933
41764SOL    HW127124  13.315   5.615   6.934
41764SOL    HW227125  13.184   5.670   6.986
41765SOL     OW27126   8.208   8.289   3.003
41765SOL    HW127127   8.152   8.266   3.077
41765SOL    HW227128   8.241   8.205   2.972
41766SOL     OW27129   3.183   6.623  11.900
41766SOL    HW127130   3.156   6.573  11.977
41766SOL    HW227131   3.249   6.569  11.858
41767SOL     OW27132  13.514  13.960  13.916
41767SOL    HW127133  13.597  14.007  13.919
41767SOL    HW227134  13.460  14.003  13.982
41768SOL     OW27135   2.498   7.568   0.977
41768SOL    HW127136   2.447   7.613   1.044
41768SOL    HW227137   2.516   7.635   0.911
41769SOL     OW27138  12.403  10.189  11.170
41769SOL    HW127139  12.337  10.121  11.157
41769SOL    HW227140  12.357  10.259  11.216
41770SOL     OW27141   1.125   8.503   4.382
41770SOL    HW127142   1.198   8.565   4.380
41770SOL    HW227143   1.160   8.423   4.343
41771SOL     OW27144  13.295   0.038   4.339
41771SOL    HW127145  13.263   0.089   4.265
41771SOL    HW227146  13.346  14.850   4.299
41772SOL     OW27147   7.377   6.404   2.492
41772SOL    HW127148   7.282   6.406   2.507
41772SOL    HW227149   7.387   6.357   2.410
41773SOL     OW27150   4.954  14.406  10.991
41773SOL    HW127151   4.919  14.327  10.950
41773SOL    HW227152   4.997  14.453  10.919
41774SOL     OW27153   0.817  10.542  10.358
41774SOL    HW127154   0.869  10.522  10.280
41774SOL    HW227155   0.727  10.546  10.326
41775SOL     OW27156   3.659  13.666   3.612
41775SOL    HW127157   3.739  13.631   3.573
41775SOL    HW227158   3.672  13.655   3.707
41776SOL     OW27159  11.742   0.576   6.797
41776SOL    HW127160  11.737   0.509   6.730
41776SOL    HW227161  11.695   0.651   6.761
41777SOL     OW27162   5.101  12.496  14.692
41777SOL    HW127163   5.037  12.427  14.673
41777SOL    HW227164   5.134  12.475  14.779
41778SOL     OW27165   7.296   5.190   2.634
41778SOL    HW127166   7.365   5.157   2.577
41778SOL    HW227167   7.321   5.281   2.651
41779SOL     OW27168   7.424  13.050   1.358
41779SOL    HW127169   7.406  13.012   1.272
41779SOL    HW227170   7.376  12.994   1.419
41780SOL     OW27171   1.075   9.372   6.425
41780SOL    HW127172   1.067   9.396   6.333
41780SOL    HW227173   1.103   9.453   6.469
41781SOL     OW27174   2.707   4.790  12.612
41781SOL    HW127175   2.645   4.765  12.544
41781SOL    HW227176   2.776   4.723  12.608
41782SOL     OW27177  12.367  13.621   1.233
41782SOL    HW127178  12.317  13.626   1.314
41782SOL    HW227179  12.450  13.662   1.253
41783SOL     OW27180   4.726   5.354   1.074
41783SOL    HW127181   4.774   5.292   1.019
41783SOL    HW227182   4.734   5.438   1.029
41784SOL     OW27183   9.883  12.804  14.136
41784SOL    HW127184   9.924  12.886  14.163
41784SOL    HW227185   9.943  12.736  14.165
41785SOL     OW27186   9.569  11.748   3.458
41785SOL    HW127187   9.510  11.822   3.469
41785SOL    HW227188   9.516  11.682   3.414
41786SOL     OW27189   8.163  14.758  12.052
41786SOL    HW127190   8.088  14.701  12.068
41786SOL    HW227191   8.237  14.698  12.042
41787SOL     OW27192   2.294  13.100  12.555
41787SOL    HW127193   2.260  13.018  12.521
41787SOL    HW227194   2.370  13.119  12.500
41788SOL     OW27195   2.496   7.090   8.130
41788SOL    HW127196   2.544   7.162   8.087
41788SOL    HW227197   2.556   7.060   8.198
41789SOL     OW27198   9.091  11.009   5.506
41789SOL    HW127199   9.130  11.074   5.448
41789SOL    HW227200   9.158  10.991   5.571
41790SOL     OW27201  13.495   2.316  12.013
41790SOL    HW127202  13.553   2.246  12.044
41790SOL    HW227203  13.428   2.271  11.962
41791SOL     OW27204   1.058   2.167   0.312
41791SOL    HW127205   0.996   2.110   0.357
41791SOL    HW227206   1.018   2.183   0.226
41792SOL     OW27207   0.067  12.273   8.275
41792SOL    HW127208   0.118  12.222   8.337
41792SOL    HW227209  14.866  12.225   8.267
41793SOL     OW27210   6.229  14.570   6.071
41793SOL    HW127211   6.218  14.624   5.994
41793SOL    HW227212   6.324  14.562   6.082
41794SOL     OW27213   7.396  13.077   8.554
41794SOL    HW127214   7.387  13.152   8.612
41794SOL    HW227215   7.362  13.003   8.605
41795SOL     OW27216   6.212  12.793  12.984
41795SOL    HW127217   6.280  12.826  12.926
41795SOL    HW227218   6.139  12.853  12.972
41796SOL     OW27219  14.310   9.483   8.709
41796SOL    HW127220  14.310   9.411   8.646
41796SOL    HW227221  14.246   9.545   8.674
41797SOL     OW27222  14.067   4.967   6.957
41797SOL    HW127223  14.004   5.038   6.970
41797SOL    HW227224  14.027   4.912   6.891
41798SOL     OW27225  11.695   0.013  12.282
41798SOL    HW127226  11.684   0.100  12.319
41798SOL    HW227227  11.770  14.857  12.329
41799SOL     OW27228   8.427   8.271  10.373
41799SOL    HW127229   8.355   8.210  10.355
41799SOL    HW227230   8.419   8.339  10.306
41800SOL     OW27231   1.465   6.372   0.777
41800SOL    HW127232   1.516   6.453   0.778
41800SOL    HW227233   1.489   6.327   0.858
41801SOL     OW27234  12.213  11.456   8.323
41801SOL    HW127235  12.253  11.480   8.239
41801SOL    HW227236  12.261  11.508   8.388
41802SOL     OW27237  12.913  13.222   0.565
41802SOL    HW127238  13.005  13.225   0.590
41802SOL    HW227239  12.866  13.246   0.645
41803SOL     OW27240  12.178   1.124   8.666
41803SOL    HW127241  12.172   1.066   8.742
41803SOL    HW227242  12.210   1.068   8.595
41804SOL     OW27243   3.613   3.213   9.605
41804SOL    HW127244   3.556   3.192   9.532
41804SOL    HW227245   3.700   3.222   9.566
41805SOL     OW27246  12.269   8.231   7.971
41805SOL    HW127247  12.293   8.304   8.028
41805SOL    HW227248  12.225   8.272   7.896
41806SOL     OW27249   9.422  11.492   0.111
41806SOL    HW127250   9.378  11.444   0.041
41806SOL    HW227251   9.477  11.426   0.155
41807SOL     OW27252   4.564   6.988  12.186
41807SOL    HW127253   4.546   7.036  12.267
41807SOL    HW227254   4.484   6.997  12.134
41808SOL     OW27255   4.059   7.874   0.938
41808SOL    HW127256   4.071   7.968   0.951
41808SOL    HW227257   4.136   7.834   0.978
41809SOL     OW27258  14.342  14.255  14.187
41809SOL    HW127259  14.275  14.253  14.118
41809SOL    HW227260  14.385  14.340  14.175
41810SOL     OW27261   7.056  12.143   8.614
41810SOL    HW127262   7.082  12.053   8.636
41810SOL    HW227263   6.962  12.145   8.629
41811SOL     OW27264  12.919   5.363  10.885
41811SOL    HW127265  12.964   5.351  10.968
41811SOL    HW227266  12.989   5.380  10.822
41812SOL     OW27267  13.363   6.382   4.384
41812SOL    HW127268  13.286   6.415   4.338
41812SOL    HW227269  13.423   6.457   4.387
41813SOL     OW27270   4.031   8.417   1.196
41813SOL    HW127271   4.044   8.460   1.111
41813SOL    HW227272   3.941   8.385   1.193
41814SOL     OW27273   5.874   8.590   8.274
41814SOL    HW127274   5.869   8.586   8.370
41814SOL    HW227275   5.884   8.499   8.246
41815SOL     OW27276  10.796  13.891   9.922
41815SOL    HW127277  10.881  13.898   9.878
41815SOL    HW227278  10.747  13.968   9.893
41816SOL     OW27279   4.899   6.089  13.914
41816SOL    HW127280   4.978   6.051  13.876
41816SOL    HW227281   4.905   6.068  14.007
41817SOL     OW27282   5.793   0.041  12.194
41817SOL    HW127283   5.759   0.074  12.278
41817SOL    HW227284   5.779   0.113  12.133
41818SOL     OW27285   2.304   5.766  10.735
41818SOL    HW127286   2.395   5.792  10.745
41818SOL    HW227287   2.288   5.704  10.806
41819SOL     OW27288   9.674   6.583   9.740
41819SOL    HW127289   9.759   6.586   9.696
41819SOL    HW227290   9.668   6.667   9.786
41820SOL     OW27291   9.612   9.661   0.671
41820SOL    HW127292   9.697   9.705   0.660
41820SOL    HW227293   9.624   9.575   0.632
41821SOL     OW27294   6.306   0.254   3.138
41821SOL    HW127295   6.301   0.184   3.072
41821SOL    HW227296   6.399   0.274   3.145
41822SOL     OW27297   8.467   5.397  12.953
41822SOL    HW127298   8.458   5.357  13.039
41822SOL    HW227299   8.520   5.476  12.968
41823SOL     OW27300   3.962   0.808   3.541
41823SOL    HW127301   3.961   0.800   3.637
41823SOL    HW227302   3.999   0.726   3.510
41824SOL     OW27303   0.912  13.493   8.082
41824SOL    HW127304   0.907  13.420   8.144
41824SOL    HW227305   0.918  13.452   7.996
41825SOL     OW27306  14.110   9.617   0.989
41825SOL    HW127307  14.061   9.692   1.023
41825SOL    HW227308  14.046   9.546   0.983
41826SOL     OW27309   1.276  13.211   1.012
41826SOL    HW127310   1.302  13.120   1.025
41826SOL    HW227311   1.230  13.211   0.928
41827SOL     OW27312   2.147   7.742  11.373
41827SOL    HW127313   2.199   7.693  11.309
41827SOL    HW227314   2.064   7.759  11.328
41828SOL     OW27315   4.311   5.592   4.644
41828SOL    HW127316   4.396   5.572   4.604
41828SOL    HW227317   4.332   5.622   4.732
41829SOL     OW27318  13.305   4.888   0.557
41829SOL    HW127319  13.292   4.795   0.541
41829SOL    HW227320  13.227   4.916   0.606
41830SOL     OW27321   6.147  13.044  12.149
41830SOL    HW127322   6.086  12.998  12.090
41830SOL    HW227323   6.148  12.990  12.228
41831SOL     OW27324  13.232   7.465  13.004
41831SOL    HW127325  13.176   7.543  13.004
41831SOL    HW227326  13.171   7.392  12.994
41832SOL     OW27327  14.614  12.251   2.090
41832SOL    HW127328  14.544  12.313   2.071
41832SOL    HW227329  14.677  12.263   2.019
41833SOL     OW27330   5.112   6.114   8.838
41833SOL    HW127331   5.091   6.137   8.747
41833SOL    HW227332   5.037   6.146   8.889
41834SOL     OW27333  12.507   6.239  12.479
41834SOL    HW127334  12.557   6.209  12.402
41834SOL    HW227335  12.502   6.334  12.468
41835SOL     OW27336  13.320  10.554   4.076
41835SOL    HW127337  13.366  10.546   4.160
41835SOL    HW227338  13.389  10.566   4.012
41836SOL     OW27339   3.701   6.466  14.570
41836SOL    HW127340   3.650   6.407  14.514
41836SOL    HW227341   3.652   6.548  14.568
41837SOL     OW27342   6.580   7.127   1.164
41837SOL    HW127343   6.613   7.196   1.221
41837SOL    HW227344   6.643   7.124   1.091
41838SOL     OW27345   6.107   4.203   3.139
41838SOL    HW127346   6.061   4.249   3.068
41838SOL    HW227347   6.141   4.124   3.098
41839SOL     OW27348   5.773  11.825   8.088
41839SOL    HW127349   5.731  11.908   8.111
41839SOL    HW227350   5.700  11.763   8.080
41840SOL     OW27351   5.941   5.567  11.966
41840SOL    HW127352   5.938   5.557  11.870
41840SOL    HW227353   5.881   5.639  11.984
41841SOL     OW27354  12.829  12.280   2.540
41841SOL    HW127355  12.793  12.191   2.540
41841SOL    HW227356  12.862  12.292   2.629
41842SOL     OW27357  14.808  10.783  14.576
41842SOL    HW127358  14.776  10.800  14.664
41842SOL    HW227359  14.729  10.768  14.524
41843SOL     OW27360   4.344  13.206  11.911
41843SOL    HW127361   4.253  13.189  11.933
41843SOL    HW227362   4.341  13.259  11.831
41844SOL     OW27363  13.407   4.407   5.802
41844SOL    HW127364  13.395   4.488   5.752
41844SOL    HW227365  13.384   4.432   5.892
41845SOL     OW27366   4.560   2.235  10.882
41845SOL    HW127367   4.472   2.270  10.868
41845SOL    HW227368   4.596   2.288  10.953
41846SOL     OW27369  11.433   4.271  13.584
41846SOL    HW127370  11.436   4.331  13.658
41846SOL    HW227371  11.469   4.189  13.618
41847SOL     OW27372   7.981  13.887  10.153
41847SOL    HW127373   8.023  13.877  10.239
41847SOL    HW227374   8.044  13.938  10.102
41848SOL     OW27375  13.727   7.126   2.166
41848SOL    HW127376  13.811   7.094   2.133
41848SOL    HW227377  13.661   7.080   2.115
41849SOL     OW27378  14.296   7.329  13.656
41849SOL    HW127379  14.309   7.423  13.646
41849SOL    HW227380  14.214   7.310  13.609
41850SOL     OW27381   7.751  12.739   4.609
41850SOL    HW127382   7.735  12.773   4.521
41850SOL    HW227383   7.846  12.736   4.617
41851SOL     OW27384   7.914   0.983   3.489
41851SOL    HW127385   7.957   0.913   3.439
41851SOL    HW227386   7.920   0.954   3.580
41852SOL     OW27387   2.724   4.368   9.220
41852SOL    HW127388   2.647   4.423   9.204
41852SOL    HW227389   2.747   4.332   9.135
41853SOL     OW27390  11.745   6.961   3.683
41853SOL    HW127391  11.660   6.918   3.692
41853SOL    HW227392  11.807   6.902   3.727
41854SOL     OW27393   6.318   3.479   7.029
41854SOL    HW127394   6.377   3.436   6.967
41854SOL    HW227395   6.342   3.443   7.114
41855SOL     OW27396  11.494   6.935  12.650
41855SOL    HW127397  11.590   6.932  12.660
41855SOL    HW227398  11.467   7.009  12.704
41856SOL     OW27399   7.722  11.710  14.175
41856SOL    HW127400   7.737  11.676  14.087
41856SOL    HW227401   7.637  11.753  14.170
41857SOL     OW27402   9.882   3.545   6.399
41857SOL    HW127403   9.961   3.554   6.346
41857SOL    HW227404   9.817   3.600   6.354
41858SOL     OW27405  10.781  11.743  13.508
41858SOL    HW127406  10.744  11.667  13.464
41858SOL    HW227407  10.843  11.780  13.445
41859SOL     OW27408  12.944   5.527  11.699
41859SOL    HW127409  12.946   5.621  11.718
41859SOL    HW227410  12.852   5.509  11.678
41860SOL     OW27411   5.528   6.912   0.008
41860SOL    HW127412   5.623   6.899   0.009
41860SOL    HW227413   5.496   6.841  14.834
41861SOL     OW27414  10.785   7.852   4.185
41861SOL    HW127415  10.814   7.856   4.276
41861SOL    HW227416  10.859   7.815   4.138
41862SOL     OW27417   3.115   1.196   7.786
41862SOL    HW127418   3.031   1.242   7.795
41862SOL    HW227419   3.093   1.104   7.799
41863SOL     OW27420   4.106  10.262  14.246
41863SOL    HW127421   4.166  10.205  14.293
41863SOL    HW227422   4.022  10.252  14.290
41864SOL     OW27423   4.683  10.938  13.553
41864SOL    HW127424   4.711  10.972  13.468
41864SOL    HW227425   4.761  10.941  13.608
41865SOL     OW27426   0.165   6.036   2.657
41865SOL    HW127427   0.098   5.969   2.666
41865SOL    HW227428   0.124   6.105   2.604
41866SOL     OW27429   6.631   1.746   6.907
41866SOL    HW127430   6.544   1.776   6.880
41866SOL    HW227431   6.674   1.720   6.826
41867SOL     OW27432  10.557  10.898   5.430
41867SOL    HW127433  10.524  10.946   5.506
41867SOL    HW227434  10.584  10.966   5.369
41868SOL     OW27435  14.812  14.288   4.909
41868SOL    HW127436  14.744  14.310   4.845
41868SOL    HW227437  14.802  14.354   4.978
41869SOL     OW27438   4.940  14.090   4.154
41869SOL    HW127439   4.956  14.001   4.188
41869SOL    HW227440   5.024  14.134   4.161
41870SOL     OW27441   0.782   3.267   2.108
41870SOL    HW127442   0.717   3.335   2.091
41870SOL    HW227443   0.733   3.197   2.152
41871SOL     OW27444  14.468   9.018   3.819
41871SOL    HW127445  14.424   8.964   3.885
41871SOL    HW227446  14.404   9.030   3.750
41872SOL     OW27447  13.180   5.564   0.875
41872SOL    HW127448  13.240   5.495   0.903
41872SOL    HW227449  13.207   5.641   0.924
41873SOL     OW27450   3.589   1.696   9.734
41873SOL    HW127451   3.661   1.719   9.676
41873SOL    HW227452   3.510   1.720   9.685
41874SOL     OW27453   6.552  13.260  10.889
41874SOL    HW127454   6.552  13.256  10.984
41874SOL    HW227455   6.622  13.321  10.867
41875SOL     OW27456   1.160   2.317  10.155
41875SOL    HW127457   1.236   2.281  10.109
41875SOL    HW227458   1.113   2.368  10.088
41876SOL     OW27459   8.926   8.392   7.826
41876SOL    HW127460   8.918   8.429   7.738
41876SOL    HW227461   8.962   8.462   7.879
41877SOL     OW27462   7.820   5.129  13.814
41877SOL    HW127463   7.756   5.070  13.775
41877SOL    HW227464   7.822   5.204  13.755
41878SOL     OW27465   6.927  13.138  14.738
41878SOL    HW127466   7.016  13.107  14.756
41878SOL    HW227467   6.870  13.076  14.785
41879SOL     OW27468   0.007   0.585   5.402
41879SOL    HW127469   0.030   0.587   5.495
41879SOL    HW227470  14.842   0.667   5.387
41880SOL     OW27471   0.637   1.909  14.339
41880SOL    HW127472   0.592   1.978  14.388
41880SOL    HW227473   0.700   1.956  14.284
41881SOL     OW27474   2.255   9.658  13.190
41881SOL    HW127475   2.225   9.721  13.124
41881SOL    HW227476   2.339   9.692  13.220
41882SOL     OW27477  13.608   1.302  13.796
41882SOL    HW127478  13.588   1.381  13.747
41882SOL    HW227479  13.701   1.311  13.819
41883SOL     OW27480  13.980   8.218   6.519
41883SOL    HW127481  13.939   8.132   6.535
41883SOL    HW227482  14.064   8.197   6.479
41884SOL     OW27483   5.700   7.066  10.623
41884SOL    HW127484   5.696   7.013  10.702
41884SOL    HW227485   5.684   7.004  10.551
41885SOL     OW27486  11.176  11.694  10.008
41885SOL    HW127487  11.200  11.745  10.086
41885SOL    HW227488  11.215  11.608  10.023
41886SOL     OW27489  10.895  12.999   0.313
41886SOL    HW127490  10.844  12.918   0.308
41886SOL    HW227491  10.861  13.045   0.390
41887SOL     OW27492   2.200   8.501   6.177
41887SOL    HW127493   2.132   8.479   6.114
41887SOL    HW227494   2.268   8.545   6.126
41888SOL     OW27495   4.157   3.407   4.236
41888SOL    HW127496   4.220   3.336   4.226
41888SOL    HW227497   4.167   3.436   4.326
41889SOL     OW27498   3.123   3.176   4.167
41889SOL    HW127499   3.212   3.144   4.183
41889SOL    HW227500   3.088   3.191   4.255
41890SOL     OW27501   6.845   2.874   9.032
41890SOL    HW127502   6.807   2.790   9.007
41890SOL    HW227503   6.778   2.917   9.085
41891SOL     OW27504   3.156   4.036  10.708
41891SOL    HW127505   3.106   4.048  10.789
41891SOL    HW227506   3.138   4.114  10.656
41892SOL     OW27507   3.776  12.354   0.410
41892SOL    HW127508   3.863  12.332   0.377
41892SOL    HW227509   3.722  12.361   0.331
41893SOL     OW27510   0.100   5.735   6.384
41893SOL    HW127511   0.164   5.805   6.372
41893SOL    HW227512   0.146   5.670   6.437
41894SOL     OW27513  14.281   5.898  14.136
41894SOL    HW127514  14.274   5.820  14.192
41894SOL    HW227515  14.273   5.971  14.197
41895SOL     OW27516   2.340  13.081  11.292
41895SOL    HW127517   2.412  13.138  11.320
41895SOL    HW227518   2.261  13.132  11.310
41896SOL     OW27519   3.217   7.029  12.554
41896SOL    HW127520   3.249   6.941  12.535
41896SOL    HW227521   3.229   7.040  12.648
41897SOL     OW27522   0.226   6.344   2.468
41897SOL    HW127523   0.233   6.306   2.380
41897SOL    HW227524   0.151   6.403   2.462
41898SOL     OW27525  11.586   4.364   0.251
41898SOL    HW127526  11.635   4.282   0.264
41898SOL    HW227527  11.498   4.335   0.228
41899SOL     OW27528   7.178   6.464   7.607
41899SOL    HW127529   7.085   6.442   7.610
41899SOL    HW227530   7.180   6.560   7.614
41900SOL     OW27531  13.086   5.106   0.615
41900SOL    HW127532  13.078   5.166   0.541
41900SOL    HW227533  13.158   5.144   0.667
41901SOL     OW27534   4.562  13.829   3.803
41901SOL    HW127535   4.565  13.788   3.889
41901SOL    HW227536   4.544  13.757   3.743
41902SOL     OW27537  12.169  12.394  14.772
41902SOL    HW127538  12.117  12.425  14.846
41902SOL    HW227539  12.228  12.466  14.752
41903SOL     OW27540   1.903  12.998   8.231
41903SOL    HW127541   1.870  12.921   8.276
41903SOL    HW227542   1.883  12.983   8.139
41904SOL     OW27543  10.190  13.422   0.962
41904SOL    HW127544  10.283  13.446   0.958
41904SOL    HW227545  10.184  13.361   1.035
41905SOL     OW27546  13.331   0.114   4.606
41905SOL    HW127547  13.316   0.100   4.512
41905SOL    HW227548  13.319   0.208   4.618
41906SOL     OW27549   0.121   3.348   1.370
41906SOL    HW127550   0.075   3.375   1.449
41906SOL    HW227551   0.057   3.295   1.322
41907SOL     OW27552   8.087   0.832  12.018
41907SOL    HW127553   8.034   0.752  12.017
41907SOL    HW227554   8.070   0.873  11.933
41908SOL     OW27555   3.840  10.115   8.931
41908SOL    HW127556   3.796  10.035   8.903
41908SOL    HW227557   3.893  10.088   9.006
41909SOL     OW27558   4.796  10.655   0.657
41909SOL    HW127559   4.707  10.667   0.623
41909SOL    HW227560   4.833  10.585   0.603
41910SOL     OW27561  10.815   6.466   2.320
41910SOL    HW127562  10.893   6.477   2.375
41910SOL    HW227563  10.830   6.383   2.274
41911SOL     OW27564  14.835   7.981   9.585
41911SOL    HW127565  14.755   7.949   9.627
41911SOL    HW227566  14.858   7.913   9.522
41912SOL     OW27567   8.031  10.786   3.626
41912SOL    HW127568   8.031  10.845   3.551
41912SOL    HW227569   8.111  10.808   3.675
41913SOL     OW27570   3.273   6.607   8.410
41913SOL    HW127571   3.339   6.669   8.379
41913SOL    HW227572   3.321   6.526   8.426
41914SOL     OW27573   2.516   5.965   1.625
41914SOL    HW127574   2.523   5.915   1.544
41914SOL    HW227575   2.424   5.954   1.652
41915SOL     OW27576   6.465   8.967  12.092
41915SOL    HW127577   6.429   9.035  12.036
41915SOL    HW227578   6.545   9.005  12.127
41916SOL     OW27579   1.453   6.595   0.518
41916SOL    HW127580   1.545   6.605   0.492
41916SOL    HW227581   1.453   6.514   0.570
41917SOL     OW27582   1.476   0.232   9.459
41917SOL    HW127583   1.452   0.312   9.507
41917SOL    HW227584   1.453   0.161   9.519
41918SOL     OW27585   8.788   2.309   6.218
41918SOL    HW127586   8.735   2.230   6.207
41918SOL    HW227587   8.837   2.316   6.136
41919SOL     OW27588  13.268   2.271  14.181
41919SOL    HW127589  13.329   2.215  14.133
41919SOL    HW227590  13.193   2.279  14.123
41920SOL     OW27591  14.002   8.173   5.479
41920SOL    HW127592  14.072   8.202   5.537
41920SOL    HW227593  13.930   8.234   5.496
41921SOL     OW27594   2.655   9.705   2.286
41921SOL    HW127595   2.600   9.724   2.210
41921SOL    HW227596   2.622   9.764   2.354
41922SOL     OW27597  12.839   4.132   0.899
41922SOL    HW127598  12.879   4.073   0.963
41922SOL    HW227599  12.914   4.177   0.859
41923SOL     OW27600   8.960  14.766   8.840
41923SOL    HW127601   8.955  14.850   8.795
41923SOL    HW227602   8.977  14.789   8.931
41924SOL     OW27603   8.688  14.395   4.264
41924SOL    HW127604   8.596  14.371   4.274
41924SOL    HW227605   8.698  14.415   4.171
41925SOL     OW27606   9.574   8.508  10.100
41925SOL    HW127607   9.571   8.593  10.143
41925SOL    HW227608   9.588   8.445  10.171
41926SOL     OW27609  12.294   7.762  14.157
41926SOL    HW127610  12.225   7.809  14.203
41926SOL    HW227611  12.256   7.677  14.136
41927SOL     OW27612   3.779   0.500   5.000
41927SOL    HW127613   3.753   0.499   4.908
41927SOL    HW227614   3.860   0.450   5.003
41928SOL     OW27615   9.476  13.454   7.226
41928SOL    HW127616   9.529  13.378   7.202
41928SOL    HW227617   9.387  13.419   7.236
41929SOL     OW27618   5.474  14.125   0.569
41929SOL    HW127619   5.403  14.069   0.601
41929SOL    HW227620   5.549  14.066   0.560
41930SOL     OW27621   6.115  12.076   6.099
41930SOL    HW127622   6.138  12.168   6.113
41930SOL    HW227623   6.031  12.080   6.053
41931SOL     OW27624   9.509  13.826  11.724
41931SOL    HW127625   9.526  13.862  11.637
41931SOL    HW227626   9.414  13.821  11.730
41932SOL     OW27627   1.939  10.571  12.587
41932SOL    HW127628   1.920  10.660  12.618
41932SOL    HW227629   2.009  10.583  12.522
41933SOL     OW27630   3.127  13.259   5.359
41933SOL    HW127631   3.031  13.264   5.355
41933SOL    HW227632   3.148  13.283   5.449
41934SOL     OW27633  12.745   0.217  13.357
41934SOL    HW127634  12.744   0.285  13.424
41934SOL    HW227635  12.657   0.218  13.320
41935SOL     OW27636  11.566   5.634   0.738
41935SOL    HW127637  11.606   5.681   0.665
41935SOL    HW227638  11.538   5.550   0.700
41936SOL     OW27639  11.555   0.822   5.939
41936SOL    HW127640  11.546   0.836   6.033
41936SOL    HW227641  11.616   0.891   5.910
41937SOL     OW27642   5.723  14.265   2.006
41937SOL    HW127643   5.756  14.270   2.096
41937SOL    HW227644   5.763  14.185   1.971
41938SOL     OW27645   6.066   1.520  13.375
41938SOL    HW127646   5.984   1.547  13.334
41938SOL    HW227647   6.078   1.429  13.346
41939SOL     OW27648   5.723  14.649  12.739
41939SOL    HW127649   5.761  14.619  12.822
41939SOL    HW227650   5.750  14.740  12.733
41940SOL     OW27651   1.302   6.526  11.041
41940SOL    HW127652   1.322   6.464  11.111
41940SOL    HW227653   1.250   6.595  11.084
41941SOL     OW27654  14.516  10.304   6.097
41941SOL    HW127655  14.567  10.324   6.175
41941SOL    HW227656  14.579  10.310   6.025
41942SOL     OW27657   1.389  14.115   3.174
41942SOL    HW127658   1.358  14.196   3.215
41942SOL    HW227659   1.390  14.134   3.081
41943SOL     OW27660   5.867  10.775   8.988
41943SOL    HW127661   5.943  10.807   8.940
41943SOL    HW227662   5.862  10.682   8.966
41944SOL     OW27663   7.619  13.419  11.099
41944SOL    HW127664   7.585  13.393  11.185
41944SOL    HW227665   7.686  13.485  11.118
41945SOL     OW27666   4.256   3.446  11.898
41945SOL    HW127667   4.165   3.424  11.879
41945SOL    HW227668   4.257   3.463  11.992
41946SOL     OW27669   2.019   7.707   9.766
41946SOL    HW127670   2.096   7.698   9.710
41946SOL    HW227671   2.030   7.639   9.832
41947SOL     OW27672   6.197   4.743  14.264
41947SOL    HW127673   6.253   4.791  14.326
41947SOL    HW227674   6.230   4.653  14.268
41948SOL     OW27675   1.994   3.450   8.337
41948SOL    HW127676   1.969   3.489   8.254
41948SOL    HW227677   2.016   3.524   8.393
41949SOL     OW27678   0.522  10.585  13.724
41949SOL    HW127679   0.583  10.575  13.797
41949SOL    HW227680   0.459  10.514  13.735
41950SOL     OW27681   7.074  14.315   0.948
41950SOL    HW127682   7.142  14.379   0.931
41950SOL    HW227683   7.121  14.234   0.969
41951SOL     OW27684  10.684   3.924   3.822
41951SOL    HW127685  10.769   3.968   3.815
41951SOL    HW227686  10.705   3.831   3.812
41952SOL     OW27687   3.126   8.029   3.107
41952SOL    HW127688   3.204   8.084   3.108
41952SOL    HW227689   3.121   7.995   3.018
41953SOL     OW27690   2.275   9.661  14.582
41953SOL    HW127691   2.341   9.703  14.528
41953SOL    HW227692   2.275   9.569  14.553
41954SOL     OW27693   7.070  13.987   2.294
41954SOL    HW127694   7.088  13.989   2.200
41954SOL    HW227695   6.985  14.030   2.303
41955SOL     OW27696   9.650   2.623   5.995
41955SOL    HW127697   9.732   2.574   5.996
41955SOL    HW227698   9.583   2.556   5.983
41956SOL     OW27699   7.272   9.161   2.058
41956SOL    HW127700   7.245   9.166   1.966
41956SOL    HW227701   7.226   9.085   2.093
41957SOL     OW27702   7.568   9.112  10.442
41957SOL    HW127703   7.523   9.118  10.357
41957SOL    HW227704   7.614   9.028  10.438
41958SOL     OW27705   2.820   0.880  11.824
41958SOL    HW127706   2.844   0.791  11.850
41958SOL    HW227707   2.855   0.890  11.736
41959SOL     OW27708   9.944   4.190  13.279
41959SOL    HW127709   9.981   4.126  13.219
41959SOL    HW227710   9.919   4.140  13.357
41960SOL     OW27711   7.036   7.799  14.751
41960SOL    HW127712   7.111   7.739  14.756
41960SOL    HW227713   6.969   7.760  14.807
41961SOL     OW27714   0.144   1.730  10.176
41961SOL    HW127715   0.151   1.638  10.149
41961SOL    HW227716   0.087   1.728  10.253
41962SOL     OW27717  11.557  10.214   5.280
41962SOL    HW127718  11.469  10.197   5.247
41962SOL    HW227719  11.600  10.263   5.210
41963SOL     OW27720  12.321   6.484  13.188
41963SOL    HW127721  12.362   6.543  13.251
41963SOL    HW227722  12.229   6.481  13.215
41964SOL     OW27723   0.316  13.231  10.904
41964SOL    HW127724   0.253  13.183  10.958
41964SOL    HW227725   0.270  13.310  10.877
41965SOL     OW27726  11.592  13.409   2.677
41965SOL    HW127727  11.604  13.417   2.771
41965SOL    HW227728  11.675  13.371   2.646
41966SOL     OW27729   1.915  12.866   4.987
41966SOL    HW127730   1.953  12.953   4.992
41966SOL    HW227731   1.853  12.871   4.914
41967SOL     OW27732   6.767  11.104   8.540
41967SOL    HW127733   6.845  11.159   8.545
41967SOL    HW227734   6.695  11.166   8.523
41968SOL     OW27735   6.820  13.950  13.873
41968SOL    HW127736   6.811  13.942  13.968
41968SOL    HW227737   6.849  13.863  13.845
41969SOL     OW27738   8.235  13.629  11.571
41969SOL    HW127739   8.164  13.624  11.635
41969SOL    HW227740   8.247  13.539  11.540
41970SOL     OW27741   7.611   8.166   9.957
41970SOL    HW127742   7.529   8.215   9.960
41970SOL    HW227743   7.612   8.116  10.039
41971SOL     OW27744   7.175   1.550   8.618
41971SOL    HW127745   7.258   1.576   8.656
41971SOL    HW227746   7.168   1.456   8.637
41972SOL     OW27747   4.029  11.291   6.351
41972SOL    HW127748   4.093  11.223   6.373
41972SOL    HW227749   4.033  11.299   6.256
41973SOL     OW27750  14.090   3.925  12.954
41973SOL    HW127751  13.994   3.921  12.953
41973SOL    HW227752  14.112   3.986  12.883
41974SOL     OW27753  13.889  13.921   1.318
41974SOL    HW127754  13.937  13.868   1.254
41974SOL    HW227755  13.846  13.856   1.375
41975SOL     OW27756   3.809  12.315   3.846
41975SOL    HW127757   3.798  12.266   3.927
41975SOL    HW227758   3.721  12.319   3.808
41976SOL     OW27759   0.332   7.003  12.669
41976SOL    HW127760   0.409   7.058  12.653
41976SOL    HW227761   0.266   7.038  12.609
41977SOL     OW27762   7.298   5.871   2.836
41977SOL    HW127763   7.340   5.942   2.883
41977SOL    HW227764   7.258   5.817   2.905
41978SOL     OW27765  11.186   8.619   9.025
41978SOL    HW127766  11.236   8.653   9.099
41978SOL    HW227767  11.156   8.697   8.978
41979SOL     OW27768   5.496   1.663  14.223
41979SOL    HW127769   5.473   1.587  14.169
41979SOL    HW227770   5.578   1.695  14.186
41980SOL     OW27771   4.585   2.155   7.654
41980SOL    HW127772   4.628   2.078   7.691
41980SOL    HW227773   4.656   2.212   7.628
41981SOL     OW27774   3.103   1.225  11.280
41981SOL    HW127775   3.021   1.201  11.322
41981SOL    HW227776   3.096   1.319  11.265
41982SOL     OW27777  11.899   9.942  10.329
41982SOL    HW127778  11.950  10.004  10.277
41982SOL    HW227779  11.821   9.924  10.276
41983SOL     OW27780   4.835   5.596   3.385
41983SOL    HW127781   4.890   5.518   3.382
41983SOL    HW227782   4.822   5.621   3.293
41984SOL     OW27783  10.759  12.269  12.599
41984SOL    HW127784  10.667  12.278  12.574
41984SOL    HW227785  10.796  12.356  12.582
41985SOL     OW27786   6.839  12.293  12.447
41985SOL    HW127787   6.900  12.339  12.390
41985SOL    HW227788   6.875  12.205  12.455
41986SOL     OW27789   3.804  12.210   3.562
41986SOL    HW127790   3.725  12.245   3.521
41986SOL    HW227791   3.803  12.245   3.651
41987SOL     OW27792  10.493   8.063  10.457
41987SOL    HW127793  10.471   8.058  10.364
41987SOL    HW227794  10.424   8.117  10.495
41988SOL     OW27795  13.977   1.053   1.083
41988SOL    HW127796  13.966   1.119   1.152
41988SOL    HW227797  13.891   1.011   1.077
41989SOL     OW27798   5.707   4.823  12.821
41989SOL    HW127799   5.740   4.886  12.886
41989SOL    HW227800   5.668   4.878  12.753
41990SOL     OW27801   0.902   0.850   9.968
41990SOL    HW127802   0.940   0.777  10.017
41990SOL    HW227803   0.816   0.864  10.008
41991SOL     OW27804  10.305   6.685   2.709
41991SOL    HW127805  10.290   6.643   2.793
41991SOL    HW227806  10.326   6.776   2.730
41992SOL     OW27807   8.169   4.947   2.339
41992SOL    HW127808   8.200   5.028   2.379
41992SOL    HW227809   8.194   4.879   2.401
41993SOL     OW27810  11.179  12.809   7.771
41993SOL    HW127811  11.145  12.775   7.854
41993SOL    HW227812  11.220  12.734   7.729
41994SOL     OW27813   2.856  11.200  12.697
41994SOL    HW127814   2.773  11.168  12.662
41994SOL    HW227815   2.910  11.216  12.619
41995SOL     OW27816   3.956   3.796   6.414
41995SOL    HW127817   3.869   3.783   6.453
41995SOL    HW227818   4.009   3.830   6.486
41996SOL     OW27819   8.148   3.680  10.798
41996SOL    HW127820   8.072   3.687  10.740
41996SOL    HW227821   8.127   3.738  10.871
41997SOL     OW27822   1.369  12.296   8.964
41997SOL    HW127823   1.413  12.258   8.887
41997SOL    HW227824   1.390  12.236   9.035
41998SOL     OW27825  12.574   4.979   9.418
41998SOL    HW127826  12.618   5.046   9.470
41998SOL    HW227827  12.643   4.917   9.394
41999SOL     OW27828   4.828  14.664  12.715
41999SOL    HW127829   4.895  14.597  12.711
41999SOL    HW227830   4.750  14.623  12.677
42000SOL     OW27831  13.663   2.279   0.767
42000SOL    HW127832  13.745   2.292   0.814
42000SOL    HW227833  13.609   2.227   0.825
42001SOL     OW27834   6.733  10.905   3.170
42001SOL    HW127835   6.654  10.953   3.194
42001SOL    HW227836   6.767  10.871   3.253
42002SOL     OW27837  12.180   6.770   2.853
42002SOL    HW127838  12.180   6.711   2.929
42002SOL    HW227839  12.272   6.798   2.845
42003SOL     OW27840  10.017  10.762   5.501
42003SOL    HW127841  10.020  10.837   5.441
42003SOL    HW227842   9.997  10.687   5.445
42004SOL     OW27843   9.845   6.506   7.531
42004SOL    HW127844   9.928   6.531   7.573
42004SOL    HW227845   9.795   6.464   7.601
42005SOL     OW27846  14.545   9.519  13.921
42005SOL    HW127847  14.630   9.477  13.903
42005SOL    HW227848  14.567   9.594  13.975
42006SOL     OW27849   8.059   4.405  13.754
42006SOL    HW127850   8.081   4.446  13.838
42006SOL    HW227851   8.043   4.479  13.695
42007SOL     OW27852   5.700   1.687   1.007
42007SOL    HW127853   5.751   1.611   1.037
42007SOL    HW227854   5.610   1.655   1.004
42008SOL     OW27855   9.954   4.403   3.064
42008SOL    HW127856  10.023   4.464   3.039
42008SOL    HW227857   9.876   4.433   3.018
42009SOL     OW27858  14.506   2.360   5.773
42009SOL    HW127859  14.579   2.298   5.782
42009SOL    HW227860  14.428   2.306   5.788
42010SOL     OW27861  12.747   3.986  10.758
42010SOL    HW127862  12.680   3.999  10.825
42010SOL    HW227863  12.722   3.903  10.716
42011SOL     OW27864   3.565   1.500   6.137
42011SOL    HW127865   3.643   1.493   6.192
42011SOL    HW227866   3.493   1.517   6.199
42012SOL     OW27867   1.179   6.100  10.108
42012SOL    HW127868   1.229   6.091  10.189
42012SOL    HW227869   1.127   6.020  10.102
42013SOL     OW27870   4.563   1.776   8.756
42013SOL    HW127871   4.518   1.758   8.839
42013SOL    HW227872   4.562   1.871   8.748
42014SOL     OW27873   8.853   8.373   1.834
42014SOL    HW127874   8.839   8.431   1.909
42014SOL    HW227875   8.882   8.430   1.764
42015SOL     OW27876   5.414   1.734   1.751
42015SOL    HW127877   5.338   1.783   1.785
42015SOL    HW227878   5.438   1.675   1.822
42016SOL     OW27879   6.736   3.496   6.140
42016SOL    HW127880   6.716   3.406   6.165
42016SOL    HW227881   6.652   3.534   6.116
42017SOL     OW27882   7.420   2.560  13.079
42017SOL    HW127883   7.394   2.469  13.085
42017SOL    HW227884   7.340   2.607  13.057
42018SOL     OW27885   6.177   5.720  10.589
42018SOL    HW127886   6.260   5.719  10.636
42018SOL    HW227887   6.140   5.806  10.607
42019SOL     OW27888  14.803   3.681   7.511
42019SOL    HW127889  14.744   3.628   7.459
42019SOL    HW227890  14.748   3.716   7.582
42020SOL     OW27891  10.634  10.904  14.407
42020SOL    HW127892  10.560  10.908  14.346
42020SOL    HW227893  10.691  10.977  14.380
42021SOL     OW27894   4.175   2.021  11.426
42021SOL    HW127895   4.084   2.052  11.419
42021SOL    HW227896   4.168   1.926  11.421
42022SOL     OW27897  11.601   6.496   8.278
42022SOL    HW127898  11.553   6.509   8.361
42022SOL    HW227899  11.544   6.534   8.212
42023SOL     OW27900   2.224   8.791   0.362
42023SOL    HW127901   2.314   8.799   0.393
42023SOL    HW227902   2.222   8.709   0.313
42024SOL     OW27903   1.993   9.867   0.638
42024SOL    HW127904   1.931   9.882   0.567
42024SOL    HW227905   1.939   9.856   0.716
42025SOL     OW27906   9.180   7.527  12.721
42025SOL    HW127907   9.175   7.488  12.809
42025SOL    HW227908   9.121   7.603  12.725
42026SOL     OW27909   8.706   7.345   0.562
42026SOL    HW127910   8.697   7.358   0.656
42026SOL    HW227911   8.618   7.317   0.534
42027SOL     OW27912   8.391  13.521   4.821
42027SOL    HW127913   8.327  13.555   4.758
42027SOL    HW227914   8.424  13.600   4.866
42028SOL     OW27915   9.339   0.057  14.693
42028SOL    HW127916   9.409  14.882  14.725
42028SOL    HW227917   9.318   0.022  14.606
42029SOL     OW27918   5.779  10.665   5.597
42029SOL    HW127919   5.836  10.667   5.520
42029SOL    HW227920   5.811  10.736   5.653
42030SOL     OW27921   2.097  14.866   5.780
42030SOL    HW127922   2.179   0.009   5.824
42030SOL    HW227923   2.032   0.045   5.815
42031SOL     OW27924  11.912  12.691   4.458
42031SOL    HW127925  11.854  12.632   4.506
42031SOL    HW227926  11.873  12.778   4.471
42032SOL     OW27927  10.563   4.696   0.510
42032SOL    HW127928  10.635   4.740   0.465
42032SOL    HW227929  10.602   4.615   0.544
42033SOL     OW27930  10.142   0.238   6.342
42033SOL    HW127931  10.191   0.294   6.282
42033SOL    HW227932  10.173   0.149   6.324
42034SOL     OW27933   3.513   5.537   4.018
42034SOL    HW127934   3.524   5.476   4.091
42034SOL    HW227935   3.444   5.498   3.965
42035SOL     OW27936  10.469  10.420  10.788
42035SOL    HW127937  10.383  10.378  10.782
42035SOL    HW227938  10.497  10.407  10.878
42036SOL     OW27939   5.612  13.351  11.585
42036SOL    HW127940   5.535  13.310  11.624
42036SOL    HW227941   5.684  13.292  11.606
42037SOL     OW27942   1.533   7.711   5.719
42037SOL    HW127943   1.608   7.770   5.707
42037SOL    HW227944   1.571   7.630   5.753
42038SOL     OW27945  10.269  12.234   2.906
42038SOL    HW127946  10.276  12.214   2.813
42038SOL    HW227947  10.359  12.248   2.936
42039SOL     OW27948  11.736  14.503  14.098
42039SOL    HW127949  11.717  14.568  14.165
42039SOL    HW227950  11.748  14.421  14.147
42040SOL     OW27951   9.080  10.738   0.697
42040SOL    HW127952   9.138  10.814   0.702
42040SOL    HW227953   8.994  10.772   0.723
42041SOL     OW27954  13.336   0.423  10.155
42041SOL    HW127955  13.308   0.451  10.068
42041SOL    HW227956  13.352   0.505  10.202
42042SOL     OW27957   1.221   3.918   4.826
42042SOL    HW127958   1.261   3.846   4.777
42042SOL    HW227959   1.130   3.920   4.795
42043SOL     OW27960   3.046   6.915  14.125
42043SOL    HW127961   3.136   6.947  14.118
42043SOL    HW227962   3.000   6.983  14.174
42044SOL     OW27963   5.820  13.400   9.272
42044SOL    HW127964   5.785  13.397   9.183
42044SOL    HW227965   5.911  13.426   9.261
42045SOL     OW27966   8.330   7.532  10.904
42045SOL    HW127967   8.356   7.492  10.821
42045SOL    HW227968   8.393   7.498  10.968
42046SOL     OW27969  13.353   2.914   4.486
42046SOL    HW127970  13.272   2.918   4.436
42046SOL    HW227971  13.328   2.942   4.574
42047SOL     OW27972   6.726   3.981   6.856
42047SOL    HW127973   6.778   3.995   6.777
42047SOL    HW227974   6.635   3.980   6.826
42048SOL     OW27975  12.757   6.022  11.735
42048SOL    HW127976  12.814   6.032  11.812
42048SOL    HW227977  12.800   6.072  11.666
42049SOL     OW27978   9.267   7.721   1.426
42049SOL    HW127979   9.196   7.732   1.362
42049SOL    HW227980   9.307   7.637   1.403
42050SOL     OW27981   8.170  12.151  11.797
42050SOL    HW127982   8.092  12.199  11.826
42050SOL    HW227983   8.186  12.184  11.709
42051SOL     OW27984   8.566  14.827   6.130
42051SOL    HW127985   8.504   0.010   6.097
42051SOL    HW227986   8.522  14.743   6.116
42052SOL     OW27987  10.470   1.257   2.390
42052SOL    HW127988  10.418   1.332   2.361
42052SOL    HW227989  10.557   1.292   2.407
42053SOL     OW27990   8.326   7.900   2.726
42053SOL    HW127991   8.370   7.948   2.656
42053SOL    HW227992   8.233   7.915   2.710
42054SOL     OW27993   8.044  11.072  10.468
42054SOL    HW127994   8.097  11.020  10.529
42054SOL    HW227995   8.073  11.162  10.483
42055SOL     OW27996   7.455  11.447   2.568
42055SOL    HW127997   7.422  11.505   2.499
42055SOL    HW227998   7.473  11.506   2.642
42056SOL     OW27999   5.657   5.993   2.517
42056SOL    HW128000   5.750   5.996   2.497
42056SOL    HW228001   5.642   5.904   2.550
42057SOL     OW28002   1.936   1.946   1.314
42057SOL    HW128003   1.968   1.948   1.224
42057SOL    HW228004   1.866   2.011   1.317
42058SOL     OW28005   9.128  11.906   1.587
42058SOL    HW128006   9.134  11.991   1.543
42058SOL    HW228007   9.215  11.892   1.624
42059SOL     OW28008   1.496   8.084  11.108
42059SOL    HW128009   1.470   8.176  11.108
42059SOL    HW228010   1.544   8.072  11.190
42060SOL     OW28011   0.446   0.019   4.826
42060SOL    HW128012   0.522  14.844   4.832
42060SOL    HW228013   0.385  14.867   4.891
42061SOL     OW28014  12.332   6.015   4.618
42061SOL    HW128015  12.368   6.095   4.579
42061SOL    HW228016  12.299   6.043   4.704
42062SOL     OW28017   1.353   4.389   4.159
42062SOL    HW128018   1.343   4.429   4.245
42062SOL    HW228019   1.330   4.458   4.097
42063SOL     OW28020  12.991  10.440  14.566
42063SOL    HW128021  12.898  10.449  14.587
42063SOL    HW228022  13.022  10.368  14.622
42064SOL     OW28023   4.401   4.068  12.707
42064SOL    HW128024   4.311   4.067  12.740
42064SOL    HW228025   4.440   4.147  12.743
42065SOL     OW28026   1.830  13.636  11.419
42065SOL    HW128027   1.873  13.715  11.387
42065SOL    HW228028   1.809  13.587  11.340
42066SOL     OW28029   8.383   7.206   2.218
42066SOL    HW128030   8.388   7.129   2.275
42066SOL    HW228031   8.353   7.172   2.134
42067SOL     OW28032   6.350   9.679   7.337
42067SOL    HW128033   6.424   9.730   7.304
42067SOL    HW228034   6.289   9.675   7.264
42068SOL     OW28035   5.103   2.671  10.934
42068SOL    HW128036   5.055   2.666  11.017
42068SOL    HW228037   5.151   2.589  10.929
42069SOL     OW28038   8.368   9.476   6.946
42069SOL    HW128039   8.444   9.456   7.000
42069SOL    HW228040   8.299   9.498   7.008
42070SOL     OW28041  13.999  14.514   3.264
42070SOL    HW128042  13.944  14.480   3.193
42070SOL    HW228043  14.057  14.577   3.222
42071SOL     OW28044  11.036  10.202   5.075
42071SOL    HW128045  11.015  10.184   4.984
42071SOL    HW228046  11.064  10.293   5.076
42072SOL     OW28047   7.854  11.010   9.778
42072SOL    HW128048   7.840  11.027   9.684
42072SOL    HW228049   7.948  10.990   9.784
42073SOL     OW28050  11.714   1.526   2.077
42073SOL    HW128051  11.688   1.449   2.027
42073SOL    HW228052  11.808   1.535   2.061
42074SOL     OW28053  10.493   8.779   3.469
42074SOL    HW128054  10.518   8.687   3.459
42074SOL    HW228055  10.568   8.828   3.437
42075SOL     OW28056   4.758   7.728   2.259
42075SOL    HW128057   4.673   7.751   2.297
42075SOL    HW228058   4.736   7.682   2.178
42076SOL     OW28059  12.127   3.652   9.471
42076SOL    HW128060  12.145   3.562   9.500
42076SOL    HW228061  12.212   3.686   9.444
42077SOL     OW28062   6.951   9.330   2.851
42077SOL    HW128063   6.898   9.380   2.913
42077SOL    HW228064   7.018   9.391   2.821
42078SOL     OW28065   0.440  14.716   3.077
42078SOL    HW128066   0.439  14.733   2.982
42078SOL    HW228067   0.526  14.676   3.093
42079SOL     OW28068   5.727   9.123   3.425
42079SOL    HW128069   5.743   9.074   3.506
42079SOL    HW228070   5.751   9.061   3.355
42080SOL     OW28071   2.266   1.753   7.074
42080SOL    HW128072   2.200   1.754   7.143
42080SOL    HW228073   2.283   1.845   7.056
42081SOL     OW28074  11.867   6.306   3.047
42081SOL    HW128075  11.817   6.276   2.971
42081SOL    HW228076  11.954   6.327   3.011
42082SOL     OW28077   2.577  12.641   3.833
42082SOL    HW128078   2.651  12.632   3.893
42082SOL    HW228079   2.606  12.598   3.753
42083SOL     OW28080   1.187   7.669  12.133
42083SOL    HW128081   1.196   7.762  12.115
42083SOL    HW228082   1.276   7.638  12.149
42084SOL     OW28083   4.998   1.567   5.746
42084SOL    HW128084   5.043   1.590   5.665
42084SOL    HW228085   4.960   1.481   5.730
42085SOL     OW28086   6.028   7.145   8.397
42085SOL    HW128087   6.101   7.177   8.450
42085SOL    HW228088   5.951   7.154   8.453
42086SOL     OW28089  14.085   9.009  14.508
42086SOL    HW128090  14.117   9.030  14.420
42086SOL    HW228091  14.076   8.914  14.509
42087SOL     OW28092  12.975   1.514   7.934
42087SOL    HW128093  12.950   1.572   8.006
42087SOL    HW228094  13.002   1.432   7.977
42088SOL     OW28095   1.112   5.274   4.697
42088SOL    HW128096   1.033   5.278   4.751
42088SOL    HW228097   1.156   5.358   4.712
42089SOL     OW28098   9.823   8.390  12.640
42089SOL    HW128099   9.882   8.398  12.565
42089SOL    HW228100   9.859   8.449  12.705
42090SOL     OW28101   4.735  12.468  13.538
42090SOL    HW128102   4.801  12.505  13.481
42090SOL    HW228103   4.768  12.484  13.627
42091SOL     OW28104  10.956   9.768   3.017
42091SOL    HW128105  11.046   9.738   3.029
42091SOL    HW228106  10.905   9.688   3.006
42092SOL     OW28107   2.108   2.053   2.988
42092SOL    HW128108   2.017   2.083   2.983
42092SOL    HW228109   2.140   2.089   3.071
42093SOL     OW28110   3.354   9.158   8.998
42093SOL    HW128111   3.377   9.065   8.999
42093SOL    HW228112   3.326   9.174   8.908
42094SOL     OW28113   4.488   7.744   5.014
42094SOL    HW128114   4.562   7.689   5.040
42094SOL    HW228115   4.524   7.832   5.012
42095SOL     OW28116   9.881   6.130  14.047
42095SOL    HW128117   9.846   6.142  13.959
42095SOL    HW228118   9.939   6.205  14.060
42096SOL     OW28119  14.345   1.239   9.734
42096SOL    HW128120  14.396   1.168   9.773
42096SOL    HW228121  14.394   1.265   9.657
42097SOL     OW28122   7.261   6.845   3.687
42097SOL    HW128123   7.199   6.830   3.759
42097SOL    HW228124   7.264   6.940   3.678
42098SOL     OW28125   3.351   4.812   1.352
42098SOL    HW128126   3.363   4.845   1.263
42098SOL    HW228127   3.278   4.751   1.346
42099SOL     OW28128  10.082   2.443  11.195
42099SOL    HW128129   9.988   2.437  11.211
42099SOL    HW228130  10.091   2.516  11.134
42100SOL     OW28131  13.061   4.055  10.556
42100SOL    HW128132  13.037   4.062  10.648
42100SOL    HW228133  13.106   3.971  10.550
42101SOL     OW28134  10.798   6.280   6.817
42101SOL    HW128135  10.737   6.351   6.837
42101SOL    HW228136  10.743   6.204   6.802
42102SOL     OW28137  12.373  12.420   9.165
42102SOL    HW128138  12.465  12.428   9.142
42102SOL    HW228139  12.365  12.331   9.201
42103SOL     OW28140   5.451   0.711  10.475
42103SOL    HW128141   5.498   0.741  10.397
42103SOL    HW228142   5.513   0.652  10.519
42104SOL     OW28143   6.954   7.712   3.896
42104SOL    HW128144   6.960   7.704   3.801
42104SOL    HW228145   6.915   7.630   3.925
42105SOL     OW28146   6.762  13.654  12.949
42105SOL    HW128147   6.744  13.743  12.981
42105SOL    HW228148   6.745  13.659  12.855
42106SOL     OW28149   3.121   7.080   3.206
42106SOL    HW128150   3.143   7.096   3.298
42106SOL    HW228151   3.204   7.085   3.160
42107SOL     OW28152   6.688   0.501   2.929
42107SOL    HW128153   6.638   0.568   2.881
42107SOL    HW228154   6.775   0.539   2.939
42108SOL     OW28155   6.527   2.374  13.352
42108SOL    HW128156   6.505   2.370  13.445
42108SOL    HW228157   6.599   2.311  13.342
42109SOL     OW28158   1.602   4.445  11.549
42109SOL    HW128159   1.517   4.416  11.516
42109SOL    HW228160   1.585   4.474  11.638
42110SOL     OW28161  13.189  14.538   1.903
42110SOL    HW128162  13.261  14.599   1.888
42110SOL    HW228163  13.177  14.494   1.819
42111SOL     OW28164  10.990   5.525  11.904
42111SOL    HW128165  11.084   5.526  11.919
42111SOL    HW228166  10.957   5.456  11.963
42112SOL     OW28167  13.121   8.223  12.079
42112SOL    HW128168  13.039   8.238  12.125
42112SOL    HW228169  13.127   8.128  12.070
42113SOL     OW28170   6.920  12.482  10.225
42113SOL    HW128171   7.008  12.490  10.186
42113SOL    HW228172   6.910  12.562  10.276
42114SOL     OW28173  11.956  14.222   8.673
42114SOL    HW128174  11.992  14.253   8.590
42114SOL    HW228175  11.877  14.275   8.686
42115SOL     OW28176   3.813  10.804   2.151
42115SOL    HW128177   3.721  10.815   2.176
42115SOL    HW228178   3.811  10.788   2.057
42116SOL     OW28179   8.552   9.823   8.325
42116SOL    HW128180   8.635   9.781   8.348
42116SOL    HW228181   8.486   9.764   8.360
42117SOL     OW28182  12.940  12.172  14.849
42117SOL    HW128183  12.863  12.180   0.023
42117SOL    HW228184  12.905  12.163  14.761
42118SOL     OW28185   6.298   1.183   5.542
42118SOL    HW128186   6.238   1.242   5.497
42118SOL    HW228187   6.320   1.116   5.477
42119SOL     OW28188   8.958   6.059   5.819
42119SOL    HW128189   9.017   5.984   5.813
42119SOL    HW228190   8.996   6.124   5.761
42120SOL     OW28191   8.666   0.276   2.593
42120SOL    HW128192   8.609   0.353   2.590
42120SOL    HW228193   8.709   0.282   2.678
42121SOL     OW28194   6.203   2.636  10.936
42121SOL    HW128195   6.210   2.561  10.877
42121SOL    HW228196   6.109   2.651  10.944
42122SOL     OW28197  10.400   4.631   6.181
42122SOL    HW128198  10.425   4.696   6.246
42122SOL    HW228199  10.328   4.671   6.133
42123SOL     OW28200  14.829  10.590  11.382
42123SOL    HW128201  14.829  10.528  11.455
42123SOL    HW228202  14.746  10.574  11.338
42124SOL     OW28203   4.362  12.828  10.202
42124SOL    HW128204   4.307  12.817  10.125
42124SOL    HW228205   4.374  12.739  10.236
42125SOL     OW28206   7.364   1.972   6.578
42125SOL    HW128207   7.398   1.997   6.493
42125SOL    HW228208   7.363   1.876   6.577
42126SOL     OW28209   9.396   5.839  12.290
42126SOL    HW128210   9.372   5.928  12.267
42126SOL    HW228211   9.487   5.830  12.261
42127SOL     OW28212   2.784   9.880   7.030
42127SOL    HW128213   2.791   9.848   7.120
42127SOL    HW228214   2.762   9.802   6.978
42128SOL     OW28215  11.640  13.446   8.523
42128SOL    HW128216  11.652  13.414   8.612
42128SOL    HW228217  11.553  13.485   8.522
42129SOL     OW28218   7.185   3.029  12.746
42129SOL    HW128219   7.240   2.983  12.683
42129SOL    HW228220   7.127   3.084  12.693
42130SOL     OW28221   7.890   8.918   5.199
42130SOL    HW128222   7.854   8.887   5.282
42130SOL    HW228223   7.818   8.966   5.158
42131SOL     OW28224   0.451   9.402  10.750
42131SOL    HW128225   0.540   9.436  10.746
42131SOL    HW228226   0.460   9.309  10.733
42132SOL     OW28227   4.434   3.654   7.840
42132SOL    HW128228   4.515   3.626   7.799
42132SOL    HW228229   4.444   3.749   7.853
42133SOL     OW28230   6.240   1.189   2.076
42133SOL    HW128231   6.231   1.226   1.988
42133SOL    HW228232   6.280   1.260   2.127
42134SOL     OW28233   9.225   2.708  11.747
42134SOL    HW128234   9.266   2.791  11.771
42134SOL    HW228235   9.252   2.647  11.816
42135SOL     OW28236  12.503  11.463  14.157
42135SOL    HW128237  12.493  11.372  14.186
42135SOL    HW228238  12.419  11.485  14.118
42136SOL     OW28239   1.956   0.910   2.297
42136SOL    HW128240   1.919   0.857   2.367
42136SOL    HW228241   1.954   0.853   2.220
42137SOL     OW28242   9.291   7.381   2.776
42137SOL    HW128243   9.260   7.290   2.776
42137SOL    HW228244   9.387   7.374   2.776
42138SOL     OW28245   5.406  13.489   2.156
42138SOL    HW128246   5.436  13.478   2.066
42138SOL    HW228247   5.464  13.557   2.192
42139SOL     OW28248   1.587   4.474   7.376
42139SOL    HW128249   1.599   4.553   7.429
42139SOL    HW228250   1.529   4.502   7.304
42140SOL     OW28251   3.675  10.367   3.280
42140SOL    HW128252   3.747  10.368   3.217
42140SOL    HW228253   3.717  10.388   3.364
42141SOL     OW28254   9.849   0.989  12.215
42141SOL    HW128255   9.792   0.934  12.161
42141SOL    HW228256   9.914   1.023  12.155
42142SOL     OW28257  11.793   1.052  13.060
42142SOL    HW128258  11.828   1.010  12.982
42142SOL    HW228259  11.857   1.120  13.082
42143SOL     OW28260   5.866  14.474   6.764
42143SOL    HW128261   5.774  14.449   6.766
42143SOL    HW228262   5.865  14.569   6.768
42144SOL     OW28263   3.359   9.035  11.327
42144SOL    HW128264   3.276   9.040  11.279
42144SOL    HW228265   3.366   9.119  11.372
42145SOL     OW28266  12.402   1.432   4.944
42145SOL    HW128267  12.340   1.435   5.017
42145SOL    HW228268  12.376   1.355   4.894
42146SOL     OW28269  11.643   9.857   8.057
42146SOL    HW128270  11.574   9.828   7.997
42146SOL    HW228271  11.707   9.785   8.055
42147SOL     OW28272  11.209  14.452   3.223
42147SOL    HW128273  11.217  14.510   3.147
42147SOL    HW228274  11.257  14.373   3.198
42148SOL     OW28275   1.372   5.397   2.606
42148SOL    HW128276   1.386   5.467   2.670
42148SOL    HW228277   1.378   5.440   2.521
42149SOL     OW28278  10.792   2.059   9.899
42149SOL    HW128279  10.820   2.143   9.935
42149SOL    HW228280  10.743   2.017   9.969
42150SOL     OW28281  11.585  13.722   5.768
42150SOL    HW128282  11.597  13.774   5.847
42150SOL    HW228283  11.490  13.714   5.758
42151SOL     OW28284   7.571   2.015   6.793
42151SOL    HW128285   7.480   1.993   6.772
42151SOL    HW228286   7.572   2.111   6.794
42152SOL     OW28287   4.787   6.053  13.019
42152SOL    HW128288   4.726   5.999  13.069
42152SOL    HW228289   4.787   6.015  12.931
42153SOL     OW28290   3.413   6.277   2.009
42153SOL    HW128291   3.403   6.182   1.997
42153SOL    HW228292   3.460   6.306   1.930
42154SOL     OW28293  12.501  13.249  10.757
42154SOL    HW128294  12.451  13.274  10.835
42154SOL    HW228295  12.450  13.179  10.716
42155SOL     OW28296   4.942  11.498   0.357
42155SOL    HW128297   4.893  11.424   0.393
42155SOL    HW228298   4.961  11.472   0.267
42156SOL     OW28299  10.586  14.248  11.364
42156SOL    HW128300  10.494  14.276  11.362
42156SOL    HW228301  10.608  14.246  11.457
42157SOL     OW28302  12.286   7.598  11.559
42157SOL    HW128303  12.334   7.518  11.577
42157SOL    HW228304  12.346   7.669  11.582
42158SOL     OW28305  12.681  11.223  14.184
42158SOL    HW128306  12.624  11.146  14.190
42158SOL    HW228307  12.661  11.274  14.262
42159SOL     OW28308  12.665  10.397   7.395
42159SOL    HW128309  12.586  10.446   7.372
42159SOL    HW228310  12.638  10.343   7.470
42160SOL     OW28311  11.515   4.439   9.117
42160SOL    HW128312  11.571   4.517   9.117
42160SOL    HW228313  11.548   4.385   9.188
42161SOL     OW28314   4.199   9.228  14.004
42161SOL    HW128315   4.235   9.146  13.970
42161SOL    HW228316   4.120   9.201  14.051
42162SOL     OW28317   3.906  13.095  12.823
42162SOL    HW128318   3.867  13.008  12.826
42162SOL    HW228319   3.891  13.125  12.733
42163SOL     OW28320   4.655   5.738   4.635
42163SOL    HW128321   4.658   5.827   4.670
42163SOL    HW228322   4.686   5.747   4.544
42164SOL     OW28323   5.095   3.391   5.993
42164SOL    HW128324   5.134   3.450   6.056
42164SOL    HW228325   5.018   3.355   6.037
42165SOL     OW28326   5.716   1.685  14.060
42165SOL    HW128327   5.784   1.741  14.021
42165SOL    HW228328   5.741   1.596  14.034
42166SOL     OW28329  11.458   2.765   2.439
42166SOL    HW128330  11.545   2.798   2.419
42166SOL    HW228331  11.426   2.823   2.509
42167SOL     OW28332   4.354   5.711   6.584
42167SOL    HW128333   4.320   5.623   6.596
42167SOL    HW228334   4.446   5.705   6.607
42168SOL     OW28335  13.139   8.978   8.940
42168SOL    HW128336  13.131   9.056   8.995
42168SOL    HW228337  13.126   9.011   8.851
42169SOL     OW28338   1.072   0.642   3.653
42169SOL    HW128339   1.082   0.634   3.748
42169SOL    HW228340   0.979   0.662   3.640
42170SOL     OW28341   4.053   4.309   1.419
42170SOL    HW128342   4.073   4.300   1.512
42170SOL    HW228343   3.960   4.287   1.413
42171SOL     OW28344   2.881   3.437   9.737
42171SOL    HW128345   2.862   3.514   9.683
42171SOL    HW228346   2.876   3.469   9.827
42172SOL     OW28347  13.714   7.729  13.430
42172SOL    HW128348  13.690   7.785  13.504
42172SOL    HW228349  13.716   7.789  13.355
42173SOL     OW28350  12.293   2.996   7.520
42173SOL    HW128351  12.298   2.947   7.438
42173SOL    HW228352  12.325   3.083   7.497
42174SOL     OW28353  11.568   0.454  13.975
42174SOL    HW128354  11.645   0.407  14.007
42174SOL    HW228355  11.507   0.454  14.049
42175SOL     OW28356  13.885   3.141   8.288
42175SOL    HW128357  13.970   3.139   8.332
42175SOL    HW228358  13.821   3.133   8.358
42176SOL     OW28359   4.578   9.186   5.070
42176SOL    HW128360   4.670   9.178   5.095
42176SOL    HW228361   4.530   9.139   5.137
42177SOL     OW28362   9.591   0.597   8.039
42177SOL    HW128363   9.531   0.572   8.109
42177SOL    HW228364   9.534   0.626   7.968
42178SOL     OW28365   5.852   2.423  12.158
42178SOL    HW128366   5.836   2.350  12.217
42178SOL    HW228367   5.766   2.463  12.145
42179SOL     OW28368   7.819   8.645   8.724
42179SOL    HW128369   7.763   8.722   8.736
42179SOL    HW228370   7.842   8.617   8.813
42180SOL     OW28371   0.488   4.342   1.592
42180SOL    HW128372   0.413   4.282   1.586
42180SOL    HW228373   0.473   4.406   1.523
42181SOL     OW28374  11.485  13.006   5.938
42181SOL    HW128375  11.562  12.956   5.963
42181SOL    HW228376  11.412  12.944   5.943
42182SOL     OW28377   7.402   3.737   3.473
42182SOL    HW128378   7.463   3.701   3.537
42182SOL    HW228379   7.370   3.661   3.425
42183SOL     OW28380   6.160   1.284  12.045
42183SOL    HW128381   6.191   1.255  11.959
42183SOL    HW228382   6.214   1.360  12.066
42184SOL     OW28383   6.994  13.697   1.230
42184SOL    HW128384   6.943  13.776   1.251
42184SOL    HW228385   6.929  13.627   1.227
42185SOL     OW28386  12.335  12.699   9.489
42185SOL    HW128387  12.421  12.727   9.519
42185SOL    HW228388  12.328  12.608   9.518
42186SOL     OW28389  14.843   6.547  12.658
42186SOL    HW128390  14.768   6.589  12.616
42186SOL    HW228391  14.827   6.557  12.752
42187SOL     OW28392   2.343   2.677  11.610
42187SOL    HW128393   2.357   2.594  11.564
42187SOL    HW228394   2.422   2.689  11.662
42188SOL     OW28395   8.972   8.286  12.773
42188SOL    HW128396   8.995   8.194  12.756
42188SOL    HW228397   9.025   8.336  12.711
42189SOL     OW28398  12.613  13.549   4.965
42189SOL    HW128399  12.641  13.567   5.055
42189SOL    HW228400  12.674  13.598   4.911
42190SOL     OW28401   0.333   6.783  11.582
42190SOL    HW128402   0.265   6.733  11.626
42190SOL    HW228403   0.405   6.721  11.571
42191SOL     OW28404  12.179  12.115  12.313
42191SOL    HW128405  12.112  12.095  12.379
42191SOL    HW228406  12.178  12.039  12.255
42192SOL     OW28407   4.447   5.235   4.568
42192SOL    HW128408   4.352   5.247   4.568
42192SOL    HW228409   4.478   5.291   4.640
42193SOL     OW28410   1.707   7.432  11.093
42193SOL    HW128411   1.729   7.509  11.041
42193SOL    HW228412   1.702   7.464  11.183
42194SOL     OW28413   6.819  10.082  12.628
42194SOL    HW128414   6.747  10.118  12.576
42194SOL    HW228415   6.897  10.101  12.577
42195SOL     OW28416   0.656  11.402   8.098
42195SOL    HW128417   0.745  11.366   8.093
42195SOL    HW228418   0.612  11.366   8.021
42196SOL     OW28419   4.164  13.404   2.278
42196SOL    HW128420   4.189  13.327   2.329
42196SOL    HW228421   4.224  13.473   2.306
42197SOL     OW28422   3.627  11.665   4.328
42197SOL    HW128423   3.657  11.646   4.239
42197SOL    HW228424   3.600  11.580   4.363
42198SOL     OW28425   7.969  11.562   6.107
42198SOL    HW128426   7.877  11.573   6.131
42198SOL    HW228427   7.969  11.485   6.050
42199SOL     OW28428  12.026  13.114   1.969
42199SOL    HW128429  11.933  13.133   1.978
42199SOL    HW228430  12.031  13.052   1.896
42200SOL     OW28431   2.298  13.483   1.141
42200SOL    HW128432   2.388  13.512   1.153
42200SOL    HW228433   2.278  13.504   1.050
42201SOL     OW28434   6.718  11.903   1.641
42201SOL    HW128435   6.801  11.940   1.672
42201SOL    HW228436   6.734  11.809   1.636
42202SOL     OW28437   0.791   7.997   1.492
42202SOL    HW128438   0.733   7.922   1.478
42202SOL    HW228439   0.877   7.959   1.508
42203SOL     OW28440  12.234   5.735   8.234
42203SOL    HW128441  12.278   5.698   8.311
42203SOL    HW228442  12.286   5.705   8.160
42204SOL     OW28443   4.016  12.679   8.229
42204SOL    HW128444   4.064  12.756   8.198
42204SOL    HW228445   4.029  12.614   8.159
42205SOL     OW28446   1.106   8.543   8.046
42205SOL    HW128447   1.025   8.590   8.065
42205SOL    HW228448   1.097   8.460   8.092
42206SOL     OW28449   8.370  13.902  12.209
42206SOL    HW128450   8.429  13.827  12.200
42206SOL    HW228451   8.307  13.875  12.276
42207SOL     OW28452   9.966  12.849  13.259
42207SOL    HW128453   9.894  12.812  13.312
42207SOL    HW228454   9.940  12.939  13.243
42208SOL     OW28455   1.556   5.403   2.198
42208SOL    HW128456   1.615   5.442   2.262
42208SOL    HW228457   1.470   5.440   2.219
42209SOL     OW28458   6.773   9.423   3.830
42209SOL    HW128459   6.853   9.431   3.881
42209SOL    HW228460   6.734   9.511   3.833
42210SOL     OW28461  13.411  12.612   0.491
42210SOL    HW128462  13.480  12.545   0.488
42210SOL    HW228463  13.408  12.647   0.402
42211SOL     OW28464  10.085   6.270   4.603
42211SOL    HW128465  10.169   6.311   4.586
42211SOL    HW228466  10.051   6.247   4.517
42212SOL     OW28467  14.838   6.618   2.081
42212SOL    HW128468  14.799   6.551   2.025
42212SOL    HW228469  14.787   6.697   2.064
42213SOL     OW28470  10.443  10.372  14.462
42213SOL    HW128471  10.387  10.403  14.391
42213SOL    HW228472  10.460  10.280  14.440
42214SOL     OW28473   6.934   5.679   7.566
42214SOL    HW128474   6.892   5.690   7.481
42214SOL    HW228475   6.867   5.703   7.629
42215SOL     OW28476   4.269   3.030  13.533
42215SOL    HW128477   4.176   3.005  13.531
42215SOL    HW228478   4.294   3.021  13.625
42216SOL     OW28479   8.570  14.373   8.762
42216SOL    HW128480   8.502  14.424   8.717
42216SOL    HW228481   8.638  14.437   8.784
42217SOL     OW28482   2.586  12.644   1.353
42217SOL    HW128483   2.577  12.596   1.270
42217SOL    HW228484   2.602  12.576   1.418
42218SOL     OW28485  11.999   8.296  10.049
42218SOL    HW128486  11.970   8.385  10.068
42218SOL    HW228487  12.086   8.306  10.010
42219SOL     OW28488   2.830  11.315  13.857
42219SOL    HW128489   2.796  11.403  13.870
42219SOL    HW228490   2.922  11.327  13.834
42220SOL     OW28491   7.186  13.180   0.751
42220SOL    HW128492   7.129  13.105   0.734
42220SOL    HW228493   7.127  13.255   0.757
42221SOL     OW28494   0.379  14.139   7.589
42221SOL    HW128495   0.333  14.184   7.660
42221SOL    HW228496   0.471  14.160   7.603
42222SOL     OW28497   4.801   6.307   5.055
42222SOL    HW128498   4.890   6.280   5.033
42222SOL    HW228499   4.791   6.284   5.148
42223SOL     OW28500  12.301  12.818  13.905
42223SOL    HW128501  12.347  12.888  13.858
42223SOL    HW228502  12.364  12.746  13.907
42224SOL     OW28503   0.902  13.915  14.164
42224SOL    HW128504   0.853  13.851  14.216
42224SOL    HW228505   0.907  13.992  14.221
42225SOL     OW28506  14.524   1.307   5.225
42225SOL    HW128507  14.519   1.224   5.178
42225SOL    HW228508  14.590   1.358   5.178
42226SOL     OW28509   6.937   7.917  13.112
42226SOL    HW128510   6.860   7.949  13.064
42226SOL    HW228511   6.942   7.972  13.189
42227SOL     OW28512  14.057   2.580   1.057
42227SOL    HW128513  14.046   2.674   1.044
42227SOL    HW228514  13.988   2.539   1.005
42228SOL     OW28515  12.705  12.464  14.574
42228SOL    HW128516  12.626  12.513  14.553
42228SOL    HW228517  12.674  12.377  14.600
42229SOL     OW28518   7.529   6.911   8.833
42229SOL    HW128519   7.464   6.857   8.880
42229SOL    HW228520   7.591   6.847   8.798
42230SOL     OW28521   4.590   0.339  11.779
42230SOL    HW128522   4.612   0.371  11.866
42230SOL    HW228523   4.553   0.414  11.734
42231SOL     OW28524   9.122   5.530  14.508
42231SOL    HW128525   9.054   5.478  14.467
42231SOL    HW228526   9.078   5.608  14.541
42232SOL     OW28527   0.905   5.669   5.276
42232SOL    HW128528   0.969   5.736   5.300
42232SOL    HW228529   0.957   5.594   5.249
42233SOL     OW28530   9.800   4.962   0.880
42233SOL    HW128531   9.745   5.039   0.864
42233SOL    HW228532   9.888   4.998   0.892
42234SOL     OW28533   2.472   8.913   2.161
42234SOL    HW128534   2.437   8.966   2.089
42234SOL    HW228535   2.505   8.977   2.224
42235SOL     OW28536   1.484  11.554   2.923
42235SOL    HW128537   1.562  11.605   2.900
42235SOL    HW228538   1.418  11.619   2.945
42236SOL     OW28539   0.924  14.083  11.542
42236SOL    HW128540   0.959  14.164  11.578
42236SOL    HW228541   0.963  14.077  11.455
42237SOL     OW28542   4.059   7.743   9.345
42237SOL    HW128543   4.073   7.656   9.382
42237SOL    HW228544   3.996   7.785   9.405
42238SOL     OW28545   6.487  13.060   9.681
42238SOL    HW128546   6.538  13.139   9.700
42238SOL    HW228547   6.464  13.068   9.589
42239SOL     OW28548  12.145  10.145  13.519
42239SOL    HW128549  12.175  10.112  13.435
42239SOL    HW228550  12.066  10.094  13.538
42240SOL     OW28551   4.613  13.649  10.787
42240SOL    HW128552   4.701  13.610  10.781
42240SOL    HW228553   4.555  13.582  10.751
42241SOL     OW28554   0.252   6.941  12.951
42241SOL    HW128555   0.293   6.994  13.018
42241SOL    HW228556   0.293   6.969  12.869
42242SOL     OW28557   7.359  12.248  13.536
42242SOL    HW128558   7.431  12.282  13.588
42242SOL    HW228559   7.302  12.205  13.600
42243SOL     OW28560   5.324   5.587   5.590
42243SOL    HW128561   5.261   5.657   5.569
42243SOL    HW228562   5.324   5.531   5.513
42244SOL     OW28563   6.273  11.038  11.600
42244SOL    HW128564   6.271  11.132  11.618
42244SOL    HW228565   6.365  11.019  11.579
42245SOL     OW28566  13.319   3.012   0.892
42245SOL    HW128567  13.274   2.946   0.945
42245SOL    HW228568  13.300   2.987   0.801
42246SOL     OW28569   4.930  11.418   0.883
42246SOL    HW128570   4.843  11.427   0.842
42246SOL    HW228571   4.935  11.326   0.908
42247SOL     OW28572   1.095   7.691   5.212
42247SOL    HW128573   1.165   7.671   5.151
42247SOL    HW228574   1.074   7.783   5.196
42248SOL     OW28575   2.035   0.709  13.958
42248SOL    HW128576   1.965   0.644  13.957
42248SOL    HW228577   2.110   0.665  13.918
42249SOL     OW28578   2.922   3.913   3.438
42249SOL    HW128579   2.965   3.963   3.508
42249SOL    HW228580   2.873   3.844   3.484
42250SOL     OW28581   8.975  13.998   8.130
42250SOL    HW128582   9.025  13.924   8.165
42250SOL    HW228583   9.000  14.072   8.186
42251SOL     OW28584   8.789   6.772  13.733
42251SOL    HW128585   8.700   6.738  13.721
42251SOL    HW228586   8.783   6.863  13.705
42252SOL     OW28587   3.592  14.744  11.970
42252SOL    HW128588   3.591  14.760  11.876
42252SOL    HW228589   3.504  14.766  11.999
42253SOL     OW28590   8.444   0.660   6.045
42253SOL    HW128591   8.521   0.694   6.091
42253SOL    HW228592   8.479   0.620   5.965
42254SOL     OW28593   1.466  14.570  11.261
42254SOL    HW128594   1.455  14.530  11.347
42254SOL    HW228595   1.415  14.515  11.202
42255SOL     OW28596   3.727   5.957   8.135
42255SOL    HW128597   3.693   5.872   8.163
42255SOL    HW228598   3.775   5.938   8.054
42256SOL     OW28599  10.751   8.174   5.998
42256SOL    HW128600  10.689   8.101   5.991
42256SOL    HW228601  10.836   8.132   6.012
42257SOL     OW28602   0.755   6.296   6.760
42257SOL    HW128603   0.804   6.218   6.732
42257SOL    HW228604   0.730   6.277   6.851
42258SOL     OW28605   6.146   6.974   7.748
42258SOL    HW128606   6.202   6.973   7.825
42258SOL    HW228607   6.101   7.058   7.751
42259SOL     OW28608   0.912   6.469   8.495
42259SOL    HW128609   0.897   6.453   8.588
42259SOL    HW228610   0.933   6.383   8.459
42260SOL     OW28611   0.143  13.046  14.177
42260SOL    HW128612   0.058  13.050  14.222
42260SOL    HW228613   0.204  13.087  14.238
42261SOL     OW28614   0.879  10.803   9.628
42261SOL    HW128615   0.926  10.750   9.693
42261SOL    HW228616   0.805  10.841   9.676
42262SOL     OW28617   6.192   6.734   6.727
42262SOL    HW128618   6.135   6.712   6.653
42262SOL    HW228619   6.253   6.660   6.733
42263SOL     OW28620   7.816   1.348   1.607
42263SOL    HW128621   7.770   1.412   1.554
42263SOL    HW228622   7.788   1.263   1.572
42264SOL     OW28623   0.712   5.427   6.361
42264SOL    HW128624   0.664   5.363   6.308
42264SOL    HW228625   0.771   5.374   6.415
42265SOL     OW28626   2.088  14.476   8.687
42265SOL    HW128627   2.053  14.386   8.692
42265SOL    HW228628   2.136  14.487   8.769
42266SOL     OW28629   3.424  12.969   1.550
42266SOL    HW128630   3.474  12.966   1.468
42266SOL    HW228631   3.488  12.945   1.618
42267SOL     OW28632   9.459   4.976   9.895
42267SOL    HW128633   9.434   5.068   9.890
42267SOL    HW228634   9.400   4.938   9.960
42268SOL     OW28635  13.531   1.631   4.662
42268SOL    HW128636  13.530   1.725   4.677
42268SOL    HW228637  13.617   1.603   4.694
42269SOL     OW28638   1.958   0.883   7.454
42269SOL    HW128639   1.978   0.881   7.361
42269SOL    HW228640   2.043   0.883   7.497
42270SOL     OW28641   4.653   7.638  12.267
42270SOL    HW128642   4.565   7.669  12.246
42270SOL    HW228643   4.680   7.689  12.343
42271SOL     OW28644   8.821  13.378   4.464
42271SOL    HW128645   8.764  13.450   4.437
42271SOL    HW228646   8.902  13.421   4.493
42272SOL     OW28647   5.484   4.132   8.273
42272SOL    HW128648   5.466   4.063   8.210
42272SOL    HW228649   5.577   4.122   8.294
42273SOL     OW28650  10.408  14.701   7.009
42273SOL    HW128651  10.377  14.775   6.957
42273SOL    HW228652  10.503  14.710   7.009
42274SOL     OW28653   2.088   3.243  13.711
42274SOL    HW128654   2.067   3.191  13.788
42274SOL    HW228655   2.027   3.211  13.644
42275SOL     OW28656  12.415   1.750   2.619
42275SOL    HW128657  12.449   1.809   2.552
42275SOL    HW228658  12.347   1.699   2.575
42276SOL     OW28659   3.060   7.675  11.742
42276SOL    HW128660   3.150   7.680  11.773
42276SOL    HW228661   3.061   7.604  11.677
42277SOL     OW28662   6.065   9.991  11.365
42277SOL    HW128663   6.047   9.981  11.458
42277SOL    HW228664   5.985   9.961  11.322
42278SOL     OW28665  10.075   4.960   0.622
42278SOL    HW128666  10.087   4.967   0.717
42278SOL    HW228667  10.003   5.021   0.603
42279SOL     OW28668   0.651  13.925   5.506
42279SOL    HW128669   0.684  13.903   5.419
42279SOL    HW228670   0.562  13.889   5.508
42280SOL     OW28671   1.320   7.166   8.146
42280SOL    HW128672   1.228   7.174   8.171
42280SOL    HW228673   1.319   7.115   8.065
42281SOL     OW28674  12.089   6.901   9.853
42281SOL    HW128675  12.027   6.935   9.917
42281SOL    HW228676  12.034   6.853   9.790
42282SOL     OW28677  14.380   4.987  13.651
42282SOL    HW128678  14.339   4.979  13.564
42282SOL    HW228679  14.340   4.917  13.702
42283SOL     OW28680   8.783   0.681   8.866
42283SOL    HW128681   8.731   0.713   8.793
42283SOL    HW228682   8.816   0.761   8.908
42284SOL     OW28683  14.505  14.366   7.425
42284SOL    HW128684  14.565  14.346   7.353
42284SOL    HW228685  14.472  14.281   7.454
42285SOL     OW28686   1.435   3.387   0.925
42285SOL    HW128687   1.530   3.391   0.936
42285SOL    HW228688   1.407   3.321   0.988
42286SOL     OW28689   0.526  13.555   5.065
42286SOL    HW128690   0.493  13.483   5.012
42286SOL    HW228691   0.448  13.598   5.100
42287SOL     OW28692   6.579   4.371   5.369
42287SOL    HW128693   6.533   4.288   5.379
42287SOL    HW228694   6.626   4.383   5.452
42288SOL     OW28695  13.571   3.850   6.767
42288SOL    HW128696  13.650   3.872   6.817
42288SOL    HW228697  13.560   3.923   6.706
42289SOL     OW28698  10.849  10.445   1.274
42289SOL    HW128699  10.844  10.357   1.311
42289SOL    HW228700  10.856  10.431   1.179
42290SOL     OW28701   0.276   7.244  10.478
42290SOL    HW128702   0.250   7.168  10.427
42290SOL    HW228703   0.349   7.282  10.430
42291SOL     OW28704   7.546  13.416   8.691
42291SOL    HW128705   7.587  13.501   8.710
42291SOL    HW228706   7.620  13.357   8.676
42292SOL     OW28707   0.216   9.282   4.136
42292SOL    HW128708   0.138   9.226   4.146
42292SOL    HW228709   0.190   9.349   4.073
42293SOL     OW28710   0.325   8.362  12.562
42293SOL    HW128711   0.328   8.453  12.533
42293SOL    HW228712   0.410   8.348  12.603
42294SOL     OW28713  13.555   4.214   5.496
42294SOL    HW128714  13.463   4.231   5.514
42294SOL    HW228715  13.603   4.276   5.551
42295SOL     OW28716   0.660  14.248  14.316
42295SOL    HW128717   0.706  14.172  14.350
42295SOL    HW228718   0.698  14.263  14.230
42296SOL     OW28719  10.359  10.485   9.582
42296SOL    HW128720  10.390  10.540   9.510
42296SOL    HW228721  10.298  10.540   9.630
42297SOL     OW28722  13.066  13.270  10.786
42297SOL    HW128723  13.028  13.275  10.699
42297SOL    HW228724  13.155  13.237  10.772
42298SOL     OW28725   1.323  10.946   7.919
42298SOL    HW128726   1.269  10.881   7.874
42298SOL    HW228727   1.303  10.934   8.012
42299SOL     OW28728   5.781   4.093   3.499
42299SOL    HW128729   5.793   4.059   3.410
42299SOL    HW228730   5.813   4.183   3.495
42300SOL     OW28731   5.271  14.376   3.314
42300SOL    HW128732   5.260  14.345   3.404
42300SOL    HW228733   5.297  14.468   3.323
42301SOL     OW28734   6.042   7.752   3.318
42301SOL    HW128735   5.968   7.803   3.285
42301SOL    HW228736   6.018   7.730   3.408
42302SOL     OW28737   5.619  12.974   7.574
42302SOL    HW128738   5.662  12.888   7.572
42302SOL    HW228739   5.644  13.011   7.659
42303SOL     OW28740   8.179  11.581  11.479
42303SOL    HW128741   8.149  11.540  11.561
42303SOL    HW228742   8.163  11.674  11.492
42304SOL     OW28743   2.064  12.619   8.918
42304SOL    HW128744   2.069  12.559   8.992
42304SOL    HW228745   2.134  12.682   8.934
42305SOL     OW28746   5.666   4.061   0.483
42305SOL    HW128747   5.751   4.085   0.520
42305SOL    HW228748   5.658   4.113   0.403
42306SOL     OW28749  12.997   7.435   3.080
42306SOL    HW128750  13.014   7.517   3.033
42306SOL    HW228751  12.976   7.372   3.011
42307SOL     OW28752   0.163  14.133  14.716
42307SOL    HW128753   0.218  14.078  14.660
42307SOL    HW228754   0.076  14.127  14.678
42308SOL     OW28755  11.798  11.771  12.070
42308SOL    HW128756  11.720  11.745  12.020
42308SOL    HW228757  11.861  11.797  12.003
42309SOL     OW28758   7.716  10.688   0.954
42309SOL    HW128759   7.628  10.684   0.993
42309SOL    HW228760   7.750  10.773   0.982
42310SOL     OW28761   3.801   8.212   8.674
42310SOL    HW128762   3.839   8.268   8.605
42310SOL    HW228763   3.749   8.148   8.626
42311SOL     OW28764   0.594  12.922   7.704
42311SOL    HW128765   0.500  12.929   7.688
42311SOL    HW228766   0.601  12.905   7.798
42312SOL     OW28767   7.327   1.348   1.692
42312SOL    HW128768   7.381   1.424   1.667
42312SOL    HW228769   7.386   1.273   1.681
42313SOL     OW28770   3.881   4.999  10.119
42313SOL    HW128771   3.857   4.947  10.043
42313SOL    HW228772   3.958   5.049  10.091
42314SOL     OW28773  14.418  11.742   8.230
42314SOL    HW128774  14.410  11.826   8.275
42314SOL    HW228775  14.454  11.683   8.297
42315SOL     OW28776   7.251  14.738   6.609
42315SOL    HW128777   7.180  14.750   6.673
42315SOL    HW228778   7.283  14.827   6.592
42316SOL     OW28779   3.991   1.194   7.286
42316SOL    HW128780   3.931   1.170   7.215
42316SOL    HW228781   4.072   1.147   7.265
42317SOL     OW28782  11.897  12.527   1.161
42317SOL    HW128783  11.904  12.561   1.072
42317SOL    HW228784  11.867  12.602   1.213
42318SOL     OW28785   0.804   6.994   4.008
42318SOL    HW128786   0.733   6.942   4.045
42318SOL    HW228787   0.851   6.934   3.951
42319SOL     OW28788   4.381   3.018  13.792
42319SOL    HW128789   4.442   3.060  13.854
42319SOL    HW228790   4.380   2.926  13.818
42320SOL     OW28791   3.258  11.900   9.195
42320SOL    HW128792   3.234  11.809   9.215
42320SOL    HW228793   3.322  11.923   9.261
42321SOL     OW28794   8.525  10.127   8.841
42321SOL    HW128795   8.609  10.129   8.886
42321SOL    HW228796   8.461  10.150   8.908
42322SOL     OW28797   4.815   6.381   6.480
42322SOL    HW128798   4.720   6.376   6.485
42322SOL    HW228799   4.846   6.307   6.532
42323SOL     OW28800   1.024   9.266   1.234
42323SOL    HW128801   1.010   9.299   1.323
42323SOL    HW228802   0.938   9.232   1.208
42324SOL     OW28803   3.249   5.148  11.662
42324SOL    HW128804   3.185   5.117  11.726
42324SOL    HW228805   3.315   5.078  11.660
42325SOL     OW28806  10.342   5.656  10.168
42325SOL    HW128807  10.292   5.636  10.090
42325SOL    HW228808  10.303   5.602  10.237
42326SOL     OW28809   8.844   3.128   3.010
42326SOL    HW128810   8.935   3.120   2.984
42326SOL    HW228811   8.798   3.158   2.931
42327SOL     OW28812   7.757   2.265   6.197
42327SOL    HW128813   7.807   2.340   6.166
42327SOL    HW228814   7.713   2.296   6.276
42328SOL     OW28815   3.265  12.513   9.129
42328SOL    HW128816   3.248  12.508   9.223
42328SOL    HW228817   3.178  12.500   9.089
42329SOL     OW28818   1.595  14.233   8.173
42329SOL    HW128819   1.637  14.228   8.259
42329SOL    HW228820   1.554  14.320   8.172
42330SOL     OW28821  11.162   1.308   1.216
42330SOL    HW128822  11.078   1.325   1.175
42330SOL    HW228823  11.144   1.237   1.278
42331SOL     OW28824  12.140   3.872  10.620
42331SOL    HW128825  12.195   3.921  10.559
42331SOL    HW228826  12.150   3.918  10.703
42332SOL     OW28827  12.994   1.211  11.027
42332SOL    HW128828  12.988   1.129  11.075
42332SOL    HW228829  12.926   1.267  11.065
42333SOL     OW28830  10.914   9.699   1.495
42333SOL    HW128831  10.901   9.612   1.533
42333SOL    HW228832  11.009   9.711   1.495
42334SOL     OW28833   0.846  14.479   9.138
42334SOL    HW128834   0.806  14.514   9.058
42334SOL    HW228835   0.891  14.553   9.177
42335SOL     OW28836   8.286  11.387   0.538
42335SOL    HW128837   8.338  11.370   0.459
42335SOL    HW228838   8.202  11.419   0.504
42336SOL     OW28839   7.212   6.796   0.179
42336SOL    HW128840   7.173   6.721   0.224
42336SOL    HW228841   7.194   6.780   0.086
42337SOL     OW28842   4.555   6.157   2.506
42337SOL    HW128843   4.576   6.218   2.435
42337SOL    HW228844   4.580   6.071   2.471
42338SOL     OW28845   2.334   3.202  12.890
42338SOL    HW128846   2.379   3.270  12.841
42338SOL    HW228847   2.241   3.216  12.873
42339SOL     OW28848   5.421   1.950  14.860
42339SOL    HW128849   5.472   1.965  14.781
42339SOL    HW228850   5.412   1.855  14.865
42340SOL     OW28851   3.751   0.221  14.093
42340SOL    HW128852   3.687   0.292  14.106
42340SOL    HW228853   3.718   0.149  14.147
42341SOL     OW28854  14.076   8.670   9.594
42341SOL    HW128855  14.083   8.760   9.563
42341SOL    HW228856  14.150   8.660   9.654
42342SOL     OW28857   9.414  10.338  12.927
42342SOL    HW128858   9.471  10.380  12.863
42342SOL    HW228859   9.449  10.365  13.012
42343SOL     OW28860   7.117  12.630   8.591
42343SOL    HW128861   7.097  12.634   8.497
42343SOL    HW228862   7.098  12.717   8.624
42344SOL     OW28863  10.418   8.891   8.409
42344SOL    HW128864  10.465   8.938   8.340
42344SOL    HW228865  10.481   8.827   8.442
42345SOL     OW28866   0.921  12.539  10.933
42345SOL    HW128867   0.931  12.460  10.879
42345SOL    HW228868   0.869  12.598  10.879
42346SOL     OW28869   1.347  12.696   8.551
42346SOL    HW128870   1.369  12.605   8.572
42346SOL    HW228871   1.344  12.740   8.636
42347SOL     OW28872   1.333   5.668   4.414
42347SOL    HW128873   1.301   5.624   4.335
42347SOL    HW228874   1.258   5.668   4.473
42348SOL     OW28875  12.536  12.574   5.898
42348SOL    HW128876  12.567  12.553   5.810
42348SOL    HW228877  12.556  12.496   5.950
42349SOL     OW28878  13.891  11.298  14.338
42349SOL    HW128879  13.836  11.361  14.292
42349SOL    HW228880  13.975  11.343  14.348
42350SOL     OW28881  11.800   1.651  11.709
42350SOL    HW128882  11.802   1.746  11.692
42350SOL    HW228883  11.707   1.628  11.702
42351SOL     OW28884   6.317  14.221  13.619
42351SOL    HW128885   6.344  14.152  13.680
42351SOL    HW228886   6.247  14.267  13.665
42352SOL     OW28887  12.095  14.866  13.152
42352SOL    HW128888  12.143  14.842  13.232
42352SOL    HW228889  12.016  14.813  13.154
42353SOL     OW28890   8.569  10.353   0.345
42353SOL    HW128891   8.490  10.301   0.334
42353SOL    HW228892   8.633  10.311   0.287
42354SOL     OW28893  14.039   8.098   0.274
42354SOL    HW128894  14.033   8.194   0.278
42354SOL    HW228895  14.074   8.073   0.359
42355SOL     OW28896   8.024   9.943  10.285
42355SOL    HW128897   7.974   9.870  10.250
42355SOL    HW228898   7.976   9.968  10.365
42356SOL     OW28899   2.988   5.904   4.191
42356SOL    HW128900   3.037   5.844   4.248
42356SOL    HW228901   2.912   5.930   4.243
42357SOL     OW28902   0.105  14.793   1.523
42357SOL    HW128903   0.067  14.878   1.546
42357SOL    HW228904   0.189  14.792   1.568
42358SOL     OW28905   5.217   2.808   9.461
42358SOL    HW128906   5.123   2.793   9.469
42358SOL    HW228907   5.244   2.756   9.385
42359SOL     OW28908  13.916   3.467   2.877
42359SOL    HW128909  14.000   3.420   2.879
42359SOL    HW228910  13.911   3.512   2.961
42360SOL     OW28911   7.286   2.452   7.996
42360SOL    HW128912   7.269   2.546   7.996
42360SOL    HW228913   7.228   2.417   8.064
42361SOL     OW28914   5.993   5.780   5.804
42361SOL    HW128915   6.086   5.791   5.781
42361SOL    HW228916   5.950   5.758   5.722
42362SOL     OW28917   5.273   5.321   8.814
42362SOL    HW128918   5.360   5.330   8.776
42362SOL    HW228919   5.280   5.246   8.874
42363SOL     OW28920   8.367   8.735  11.549
42363SOL    HW128921   8.456   8.744  11.583
42363SOL    HW228922   8.356   8.809  11.489
42364SOL     OW28923   8.610  12.992   2.757
42364SOL    HW128924   8.516  12.980   2.744
42364SOL    HW228925   8.647  12.905   2.744
42365SOL     OW28926  13.422  10.002  10.034
42365SOL    HW128927  13.464  10.082  10.005
42365SOL    HW228928  13.414   9.948   9.955
42366SOL     OW28929   9.541   2.343   7.160
42366SOL    HW128930   9.476   2.287   7.117
42366SOL    HW228931   9.492   2.388   7.229
42367SOL     OW28932   9.391   5.799  13.898
42367SOL    HW128933   9.421   5.738  13.965
42367SOL    HW228934   9.397   5.749  13.816
42368SOL     OW28935   9.674   3.913  13.822
42368SOL    HW128936   9.669   3.904  13.918
42368SOL    HW228937   9.690   4.007  13.809
42369SOL     OW28938   0.504  14.289  13.493
42369SOL    HW128939   0.500  14.201  13.529
42369SOL    HW228940   0.569  14.284  13.423
42370SOL     OW28941  11.901  10.441  11.732
42370SOL    HW128942  11.838  10.384  11.777
42370SOL    HW228943  11.950  10.483  11.802
42371SOL     OW28944   0.217   2.389  14.431
42371SOL    HW128945   0.129   2.357  14.451
42371SOL    HW228946   0.218   2.396  14.335
42372SOL     OW28947   9.964   8.794   4.792
42372SOL    HW128948   9.966   8.723   4.729
42372SOL    HW228949   9.925   8.868   4.745
42373SOL     OW28950  14.757   7.098   6.828
42373SOL    HW128951  14.802   7.097   6.744
42373SOL    HW228952  14.714   7.183   6.832
42374SOL     OW28953  12.933   4.239  14.793
42374SOL    HW128954  12.908   4.272  14.707
42374SOL    HW228955  12.861   4.264  14.850
42375SOL     OW28956   6.498   2.294  14.536
42375SOL    HW128957   6.568   2.229  14.534
42375SOL    HW228958   6.467   2.294  14.626
42376SOL     OW28959   1.245  14.140  12.731
42376SOL    HW128960   1.203  14.109  12.650
42376SOL    HW228961   1.213  14.230  12.740
42377SOL     OW28962  12.384   8.205  13.200
42377SOL    HW128963  12.384   8.118  13.241
42377SOL    HW228964  12.310   8.204  13.140
42378SOL     OW28965  14.257   3.718  11.397
42378SOL    HW128966  14.315   3.780  11.444
42378SOL    HW228967  14.317   3.658  11.353
42379SOL     OW28968   8.841   1.375  14.600
42379SOL    HW128969   8.801   1.371  14.686
42379SOL    HW228970   8.861   1.284  14.578
42380SOL     OW28971   3.849   8.055  13.767
42380SOL    HW128972   3.871   7.989  13.832
42380SOL    HW228973   3.925   8.057  13.708
42381SOL     OW28974   1.508   3.240   9.922
42381SOL    HW128975   1.588   3.205   9.882
42381SOL    HW228976   1.497   3.327   9.883
42382SOL     OW28977  11.210  10.583   8.737
42382SOL    HW128978  11.267  10.622   8.671
42382SOL    HW228979  11.129  10.633   8.733
42383SOL     OW28980  11.928  12.233   2.694
42383SOL    HW128981  11.911  12.303   2.757
42383SOL    HW228982  11.914  12.274   2.608
42384SOL     OW28983   9.685   4.283   8.992
42384SOL    HW128984   9.679   4.218   8.922
42384SOL    HW228985   9.709   4.232   9.069
42385SOL     OW28986  13.903   4.283   2.583
42385SOL    HW128987  13.859   4.335   2.650
42385SOL    HW228988  13.854   4.299   2.503
42386SOL     OW28989   1.056  13.589  12.033
42386SOL    HW128990   1.020  13.675  12.052
42386SOL    HW228991   1.024  13.534  12.104
42387SOL     OW28992   0.657  10.985  13.234
42387SOL    HW128993   0.612  11.027  13.307
42387SOL    HW228994   0.731  11.042  13.216
42388SOL     OW28995   3.794  12.995   8.749
42388SOL    HW128996   3.754  13.032   8.828
42388SOL    HW228997   3.729  12.933   8.716
42389SOL     OW28998   3.596   5.950  12.058
42389SOL    HW128999   3.601   5.865  12.014
42389SOL    HW229000   3.506   5.978  12.046
42390SOL     OW29001  10.772  12.371  14.653
42390SOL    HW129002  10.850  12.372  14.597
42390SOL    HW229003  10.782  12.447  14.710
42391SOL     OW29004  12.080   6.587  12.879
42391SOL    HW129005  12.099   6.578  12.786
42391SOL    HW229006  12.165   6.608  12.919
42392SOL     OW29007   0.734   6.877   5.693
42392SOL    HW129008   0.766   6.871   5.603
42392SOL    HW229009   0.811   6.904   5.744
42393SOL     OW29010  12.209   9.740  10.888
42393SOL    HW129011  12.115   9.734  10.876
42393SOL    HW229012  12.231   9.668  10.948
42394SOL     OW29013  12.415  12.990   1.417
42394SOL    HW129014  12.383  12.929   1.351
42394SOL    HW229015  12.419  12.938   1.498
42395SOL     OW29016   6.922  11.559  14.557
42395SOL    HW129017   6.880  11.645  14.558
42395SOL    HW229018   7.002  11.570  14.607
42396SOL     OW29019  13.913   5.366   1.476
42396SOL    HW129020  13.932   5.397   1.565
42396SOL    HW229021  13.818   5.363   1.471
42397SOL     OW29022  13.578   7.354   7.296
42397SOL    HW129023  13.562   7.342   7.390
42397SOL    HW229024  13.579   7.265   7.261
42398SOL     OW29025  12.197   8.971  12.701
42398SOL    HW129026  12.274   8.925  12.669
42398SOL    HW229027  12.123   8.917  12.672
42399SOL     OW29028  12.090   8.533  13.147
42399SOL    HW129029  12.018   8.558  13.089
42399SOL    HW229030  12.053   8.535  13.235
42400SOL     OW29031   3.700   6.706   9.978
42400SOL    HW129032   3.788   6.672   9.968
42400SOL    HW229033   3.666   6.663  10.056
42401SOL     OW29034   6.544  13.913   0.583
42401SOL    HW129035   6.563  14.006   0.575
42401SOL    HW229036   6.547  13.880   0.493
42402SOL     OW29037  10.238  10.628  14.793
42402SOL    HW129038  10.186  10.558  14.754
42402SOL    HW229039  10.184  10.706  14.783
42403SOL     OW29040   8.088   1.512   3.623
42403SOL    HW129041   8.064   1.468   3.705
42403SOL    HW229042   8.008   1.555   3.594
42404SOL     OW29043   8.810  11.405  12.180
42404SOL    HW129044   8.743  11.468  12.209
42404SOL    HW229045   8.796  11.328  12.235
42405SOL     OW29046   8.150  10.305   3.705
42405SOL    HW129047   8.205  10.328   3.630
42405SOL    HW229048   8.072  10.267   3.666
42406SOL     OW29049   4.519  13.138   0.857
42406SOL    HW129050   4.511  13.232   0.842
42406SOL    HW229051   4.568  13.130   0.939
42407SOL     OW29052   6.151   2.643   0.323
42407SOL    HW129053   6.167   2.704   0.395
42407SOL    HW229054   6.165   2.694   0.244
42408SOL     OW29055   7.559  10.822   1.281
42408SOL    HW129056   7.547  10.774   1.199
42408SOL    HW229057   7.574  10.913   1.254
42409SOL     OW29058   9.357   4.646   6.740
42409SOL    HW129059   9.439   4.688   6.763
42409SOL    HW229060   9.381   4.556   6.719
42410SOL     OW29061   8.272   1.914   9.610
42410SOL    HW129062   8.266   1.925   9.705
42410SOL    HW229063   8.234   1.828   9.593
42411SOL     OW29064  14.116   3.834   4.771
42411SOL    HW129065  14.052   3.804   4.836
42411SOL    HW229066  14.194   3.782   4.789
42412SOL     OW29067   3.394   9.116   4.754
42412SOL    HW129068   3.376   9.036   4.803
42412SOL    HW229069   3.403   9.088   4.663
42413SOL     OW29070   5.338  12.098  11.108
42413SOL    HW129071   5.377  12.011  11.112
42413SOL    HW229072   5.251  12.087  11.148
42414SOL     OW29073   1.865  14.077   5.144
42414SOL    HW129074   1.836  14.099   5.232
42414SOL    HW229075   1.959  14.093   5.145
42415SOL     OW29076  11.642  14.184  13.173
42415SOL    HW129077  11.639  14.096  13.136
42415SOL    HW229078  11.564  14.227  13.136
42416SOL     OW29079  13.322   3.880   7.680
42416SOL    HW129080  13.413   3.876   7.710
42416SOL    HW229081  13.326   3.928   7.597
42417SOL     OW29082  12.403  14.055   8.157
42417SOL    HW129083  12.364  14.106   8.228
42417SOL    HW229084  12.378  14.103   8.077
42418SOL     OW29085   8.894  14.036   3.839
42418SOL    HW129086   8.892  13.941   3.840
42418SOL    HW229087   8.935  14.058   3.755
42419SOL     OW29088  14.070  12.571   8.404
42419SOL    HW129089  14.045  12.591   8.314
42419SOL    HW229090  14.140  12.634   8.424
42420SOL     OW29091   1.536  14.189  11.506
42420SOL    HW129092   1.502  14.158  11.590
42420SOL    HW229093   1.611  14.132  11.487
42421SOL     OW29094   8.811   1.757   9.960
42421SOL    HW129095   8.839   1.843   9.992
42421SOL    HW229096   8.724   1.773   9.922
42422SOL     OW29097   1.869   7.806   4.094
42422SOL    HW129098   1.896   7.897   4.098
42422SOL    HW229099   1.821   7.798   4.011
42423SOL     OW29100   6.529   4.891   6.785
42423SOL    HW129101   6.592   4.943   6.836
42423SOL    HW229102   6.573   4.874   6.702
42424SOL     OW29103  12.641  13.292   8.814
42424SOL    HW129104  12.573  13.229   8.835
42424SOL    HW229105  12.722  13.250   8.841
42425SOL     OW29106  10.596   7.785   4.397
42425SOL    HW129107  10.647   7.824   4.326
42425SOL    HW229108  10.557   7.707   4.358
42426SOL     OW29109  12.007  14.069   4.809
42426SOL    HW129110  12.023  13.976   4.826
42426SOL    HW229111  12.060  14.088   4.731
42427SOL     OW29112   8.654  10.587   6.125
42427SOL    HW129113   8.742  10.622   6.108
42427SOL    HW229114   8.632  10.619   6.213
42428SOL     OW29115   8.431   4.134  11.248
42428SOL    HW129116   8.506   4.182  11.213
42428SOL    HW229117   8.418   4.061  11.187
42429SOL     OW29118  14.375  13.513   0.203
42429SOL    HW129119  14.324  13.438   0.172
42429SOL    HW229120  14.310  13.571   0.242
42430SOL     OW29121   7.347  14.695  10.282
42430SOL    HW129122   7.354  14.614  10.231
42430SOL    HW229123   7.429  14.698  10.333
42431SOL     OW29124  13.063   9.476   5.215
42431SOL    HW129125  13.153   9.475   5.248
42431SOL    HW229126  13.069   9.441   5.127
42432SOL     OW29127  10.277   7.374   2.660
42432SOL    HW129128  10.354   7.380   2.604
42432SOL    HW229129  10.310   7.340   2.743
42433SOL     OW29130  10.120  10.673   0.223
42433SOL    HW129131  10.216  10.666   0.215
42433SOL    HW229132  10.106  10.695   0.315
42434SOL     OW29133  13.745   8.358   4.139
42434SOL    HW129134  13.812   8.301   4.101
42434SOL    HW229135  13.790   8.441   4.156
42435SOL     OW29136   6.768   5.447   1.830
42435SOL    HW129137   6.841   5.395   1.795
42435SOL    HW229138   6.703   5.449   1.760
42436SOL     OW29139  13.123  11.697   2.794
42436SOL    HW129140  13.217  11.680   2.797
42436SOL    HW229141  13.092  11.675   2.882
42437SOL     OW29142  11.584  14.059  14.289
42437SOL    HW129143  11.637  13.985  14.320
42437SOL    HW229144  11.647  14.119  14.249
42438SOL     OW29145   9.403  11.635   6.296
42438SOL    HW129146   9.404  11.633   6.392
42438SOL    HW229147   9.313  11.657   6.273
42439SOL     OW29148   0.699   9.578   5.052
42439SOL    HW129149   0.704   9.483   5.061
42439SOL    HW229150   0.700   9.611   5.141
42440SOL     OW29151  12.046  11.980   3.440
42440SOL    HW129152  11.997  11.974   3.358
42440SOL    HW229153  12.029  11.897   3.484
42441SOL     OW29154  10.174  14.679   3.191
42441SOL    HW129155  10.146  14.702   3.102
42441SOL    HW229156  10.121  14.602   3.214
42442SOL     OW29157   2.101   8.735   9.756
42442SOL    HW129158   2.059   8.806   9.708
42442SOL    HW229159   2.153   8.778   9.823
42443SOL     OW29160   5.541   5.617   6.061
42443SOL    HW129161   5.627   5.579   6.080
42443SOL    HW229162   5.479   5.548   6.087
42444SOL     OW29163   1.548   8.047   0.950
42444SOL    HW129164   1.605   7.971   0.962
42444SOL    HW229165   1.463   8.018   0.984
42445SOL     OW29166   5.404   5.768   3.247
42445SOL    HW129167   5.455   5.705   3.298
42445SOL    HW229168   5.469   5.827   3.210
42446SOL     OW29169  11.179  10.940   7.990
42446SOL    HW129170  11.273  10.923   7.986
42446SOL    HW229171  11.144  10.869   8.044
42447SOL     OW29172   3.316   3.976   9.727
42447SOL    HW129173   3.298   4.033   9.653
42447SOL    HW229174   3.257   3.902   9.716
42448SOL     OW29175   4.820  12.696  11.894
42448SOL    HW129176   4.866  12.776  11.870
42448SOL    HW229177   4.734  12.725  11.925
42449SOL     OW29178   5.686  13.467   5.623
42449SOL    HW129179   5.662  13.559   5.619
42449SOL    HW229180   5.678  13.443   5.715
42450SOL     OW29181   4.593   5.444  13.064
42450SOL    HW129182   4.640   5.364  13.038
42450SOL    HW229183   4.619   5.458  13.155
42451SOL     OW29184   6.513   3.851   7.630
42451SOL    HW129185   6.602   3.882   7.616
42451SOL    HW229186   6.523   3.777   7.690
42452SOL     OW29187   8.896   6.465   0.236
42452SOL    HW129188   8.906   6.534   0.171
42452SOL    HW229189   8.850   6.395   0.190
42453SOL     OW29190   8.204   4.649   7.107
42453SOL    HW129191   8.197   4.740   7.080
42453SOL    HW229192   8.118   4.611   7.086
42454SOL     OW29193   5.841   6.641   6.677
42454SOL    HW129194   5.755   6.644   6.635
42454SOL    HW229195   5.903   6.631   6.604
42455SOL     OW29196   2.326  14.580   0.423
42455SOL    HW129197   2.387  14.650   0.446
42455SOL    HW229198   2.362  14.502   0.465
42456SOL     OW29199  10.208  11.425   2.481
42456SOL    HW129200  10.180  11.493   2.420
42456SOL    HW229201  10.126  11.382   2.508
42457SOL     OW29202   0.390   6.430   4.631
42457SOL    HW129203   0.399   6.463   4.720
42457SOL    HW229204   0.459   6.475   4.581
42458SOL     OW29205   2.896  14.601  10.285
42458SOL    HW129206   2.957  14.544  10.236
42458SOL    HW229207   2.923  14.592  10.376
42459SOL     OW29208   4.300   3.174   4.277
42459SOL    HW129209   4.327   3.184   4.368
42459SOL    HW229210   4.382   3.158   4.229
42460SOL     OW29211   7.152   4.666   9.619
42460SOL    HW129212   7.214   4.595   9.604
42460SOL    HW229213   7.089   4.658   9.547
42461SOL     OW29214   5.682   9.572  11.455
42461SOL    HW129215   5.611   9.554  11.393
42461SOL    HW229216   5.739   9.634  11.408
42462SOL     OW29217   8.923  13.998  10.538
42462SOL    HW129218   8.950  13.950  10.459
42462SOL    HW229219   8.916  13.931  10.606
42463SOL     OW29220  11.291   2.943  10.870
42463SOL    HW129221  11.263   2.907  10.954
42463SOL    HW229222  11.387   2.943  10.875
42464SOL     OW29223  12.936   2.710   9.711
42464SOL    HW129224  13.011   2.751   9.669
42464SOL    HW229225  12.861   2.734   9.655
42465SOL     OW29226  12.374   8.156   1.523
42465SOL    HW129227  12.343   8.075   1.563
42465SOL    HW229228  12.403   8.211   1.596
42466SOL     OW29229  10.791  11.224  14.003
42466SOL    HW129230  10.850  11.294  14.030
42466SOL    HW229231  10.765  11.248  13.914
42467SOL     OW29232   0.752   5.880   1.033
42467SOL    HW129233   0.825   5.933   1.065
42467SOL    HW229234   0.746   5.808   1.095
42468SOL     OW29235  11.429   5.024  10.801
42468SOL    HW129236  11.359   5.081  10.834
42468SOL    HW229237  11.383   4.954  10.755
42469SOL     OW29238   6.893  13.510   5.867
42469SOL    HW129239   6.848  13.520   5.783
42469SOL    HW229240   6.874  13.420   5.894
42470SOL     OW29241  11.212  10.768   5.884
42470SOL    HW129242  11.221  10.721   5.967
42470SOL    HW229243  11.217  10.860   5.908
42471SOL     OW29244  10.178   4.980  10.963
42471SOL    HW129245  10.096   5.025  10.984
42471SOL    HW229246  10.188   4.915  11.033
42472SOL     OW29247  11.260   4.127  14.732
42472SOL    HW129248  11.178   4.171  14.757
42472SOL    HW229249  11.237   4.033  14.732
42473SOL     OW29250   6.960   3.784   0.481
42473SOL    HW129251   6.909   3.783   0.400
42473SOL    HW229252   7.027   3.717   0.468
42474SOL     OW29253   3.819   9.935  10.433
42474SOL    HW129254   3.767   9.944  10.353
42474SOL    HW229255   3.766   9.978  10.500
42475SOL     OW29256   0.669  10.970   1.694
42475SOL    HW129257   0.720  10.936   1.767
42475SOL    HW229258   0.587  10.920   1.695
42476SOL     OW29259  12.366   1.464  10.156
42476SOL    HW129260  12.354   1.446  10.249
42476SOL    HW229261  12.333   1.386  10.111
42477SOL     OW29262   9.248  13.844  11.658
42477SOL    HW129263   9.201  13.924  11.684
42477SOL    HW229264   9.248  13.846  11.563
42478SOL     OW29265   5.811  10.072  14.179
42478SOL    HW129266   5.879  10.129  14.143
42478SOL    HW229267   5.840   9.983  14.157
42479SOL     OW29268   4.558   2.142  14.161
42479SOL    HW129269   4.553   2.236  14.174
42479SOL    HW229270   4.474   2.118  14.123
42480SOL     OW29271   6.068   1.876   1.663
42480SOL    HW129272   5.979   1.876   1.700
42480SOL    HW229273   6.065   1.941   1.593
42481SOL     OW29274   5.134   2.516  13.191
42481SOL    HW129275   5.192   2.514  13.267
42481SOL    HW229276   5.104   2.606  13.186
42482SOL     OW29277   6.966   1.446  12.533
42482SOL    HW129278   7.015   1.364  12.533
42482SOL    HW229279   6.965   1.474  12.441
42483SOL     OW29280   4.791  12.279   5.095
42483SOL    HW129281   4.778  12.225   5.173
42483SOL    HW229282   4.712  12.263   5.042
42484SOL     OW29283  10.411   6.866   0.530
42484SOL    HW129284  10.426   6.801   0.461
42484SOL    HW229285  10.487   6.924   0.525
42485SOL     OW29286   3.774  13.627   3.864
42485SOL    HW129287   3.774  13.718   3.893
42485SOL    HW229288   3.792  13.576   3.944
42486SOL     OW29289  11.478  12.399  14.490
42486SOL    HW129290  11.480  12.467  14.557
42486SOL    HW229291  11.441  12.323  14.535
42487SOL     OW29292  13.174  13.777  12.547
42487SOL    HW129293  13.136  13.719  12.614
42487SOL    HW229294  13.266  13.753  12.544
42488SOL     OW29295   5.263   1.962   8.840
42488SOL    HW129296   5.212   1.938   8.762
42488SOL    HW229297   5.318   1.887   8.857
42489SOL     OW29298   8.132   0.637   9.012
42489SOL    HW129299   8.204   0.575   9.025
42489SOL    HW229300   8.167   0.721   9.043
42490SOL     OW29301   4.386   2.460  10.453
42490SOL    HW129302   4.477   2.483  10.472
42490SOL    HW229303   4.355   2.528  10.393
42491SOL     OW29304  11.615   3.525   4.672
42491SOL    HW129305  11.531   3.481   4.667
42491SOL    HW229306  11.606   3.587   4.745
42492SOL     OW29307   5.773  10.136  11.388
42492SOL    HW129308   5.822  10.218  11.377
42492SOL    HW229309   5.700  10.143  11.326
42493SOL     OW29310  11.901   4.372   0.574
42493SOL    HW129311  11.936   4.296   0.528
42493SOL    HW229312  11.921   4.356   0.666
42494SOL     OW29313   5.723   9.424   1.909
42494SOL    HW129314   5.810   9.405   1.944
42494SOL    HW229315   5.679   9.339   1.905
42495SOL     OW29316   6.021   1.445  14.189
42495SOL    HW129317   6.002   1.518  14.248
42495SOL    HW229318   6.115   1.429  14.199
42496SOL     OW29319   6.680   8.677  10.484
42496SOL    HW129320   6.638   8.635  10.559
42496SOL    HW229321   6.752   8.728  10.521
42497SOL     OW29322  13.611  11.272   8.281
42497SOL    HW129323  13.585  11.344   8.338
42497SOL    HW229324  13.657  11.315   8.208
42498SOL     OW29325   0.270  12.612  10.243
42498SOL    HW129326   0.365  12.615  10.250
42498SOL    HW229327   0.246  12.527  10.280
42499SOL     OW29328   2.076  14.619  14.274
42499SOL    HW129329   2.166  14.620  14.242
42499SOL    HW229330   2.030  14.680  14.216
42500SOL     OW29331  13.002   5.608   3.115
42500SOL    HW129332  13.055   5.675   3.159
42500SOL    HW229333  12.925   5.598   3.170
42501SOL     OW29334   9.166   9.447  13.362
42501SOL    HW129335   9.188   9.371  13.416
42501SOL    HW229336   9.248   9.496  13.356
42502SOL     OW29337   9.028  12.789  13.595
42502SOL    HW129338   8.965  12.757  13.530
42502SOL    HW229339   9.066  12.710  13.633
42503SOL     OW29340   7.018   2.141  12.048
42503SOL    HW129341   7.016   2.132  12.143
42503SOL    HW229342   6.953   2.208  12.028
42504SOL     OW29343  14.524   1.834   3.439
42504SOL    HW129344  14.615   1.812   3.421
42504SOL    HW229345  14.517   1.832   3.535
42505SOL     OW29346   2.016   1.100   3.754
42505SOL    HW129347   1.973   1.072   3.834
42505SOL    HW229348   2.109   1.085   3.770
42506SOL     OW29349  10.678  11.226   0.818
42506SOL    HW129350  10.630  11.154   0.858
42506SOL    HW229351  10.709  11.191   0.734
42507SOL     OW29352  14.223  10.459   7.879
42507SOL    HW129353  14.229  10.551   7.904
42507SOL    HW229354  14.140  10.430   7.915
42508SOL     OW29355   1.920   1.125   1.106
42508SOL    HW129356   1.911   1.056   1.173
42508SOL    HW229357   1.830   1.148   1.083
42509SOL     OW29358  14.370  13.347   2.903
42509SOL    HW129359  14.351  13.378   2.991
42509SOL    HW229360  14.463  13.366   2.890
42510SOL     OW29361   9.383   9.017   2.333
42510SOL    HW129362   9.444   9.078   2.376
42510SOL    HW229363   9.339   8.973   2.406
42511SOL     OW29364   3.961   3.202   4.640
42511SOL    HW129365   3.911   3.141   4.694
42511SOL    HW229366   4.045   3.158   4.627
42512SOL     OW29367  13.548  12.214  10.887
42512SOL    HW129368  13.630  12.166  10.869
42512SOL    HW229369  13.481  12.146  10.887
42513SOL     OW29370  12.160   3.319   8.715
42513SOL    HW129371  12.085   3.285   8.763
42513SOL    HW229372  12.123   3.386   8.657
42514SOL     OW29373   3.593   6.421  12.984
42514SOL    HW129374   3.569   6.468  12.905
42514SOL    HW229375   3.657   6.478  13.028
42515SOL     OW29376  11.941   2.057   1.128
42515SOL    HW129377  11.958   2.150   1.140
42515SOL    HW229378  11.932   2.023   1.217
42516SOL     OW29379   4.601   1.767  12.282
42516SOL    HW129380   4.616   1.837  12.345
42516SOL    HW229381   4.643   1.690  12.320
42517SOL     OW29382  10.418  12.309   6.166
42517SOL    HW129383  10.507  12.333   6.140
42517SOL    HW229384  10.367  12.317   6.085
42518SOL     OW29385   5.362  10.025   3.168
42518SOL    HW129386   5.297  10.004   3.101
42518SOL    HW229387   5.331  10.107   3.206
42519SOL     OW29388   3.576   6.035   0.846
42519SOL    HW129389   3.606   6.123   0.824
42519SOL    HW229390   3.613   6.018   0.933
42520SOL     OW29391   3.460   4.816  13.046
42520SOL    HW129392   3.473   4.735  13.095
42520SOL    HW229393   3.530   4.874  13.077
42521SOL     OW29394   0.517   6.338  11.536
42521SOL    HW129395   0.493   6.272  11.470
42521SOL    HW229396   0.589   6.297  11.585
42522SOL     OW29397   3.167  12.592   4.064
42522SOL    HW129398   3.150  12.534   4.139
42522SOL    HW229399   3.179  12.678   4.104
42523SOL     OW29400  13.829   2.225   1.691
42523SOL    HW129401  13.869   2.139   1.705
42523SOL    HW229402  13.872   2.258   1.612
42524SOL     OW29403  11.036   0.296   0.632
42524SOL    HW129404  11.054   0.203   0.645
42524SOL    HW229405  10.944   0.298   0.604
42525SOL     OW29406   5.435  11.929  14.848
42525SOL    HW129407   5.408  11.991  14.780
42525SOL    HW229408   5.419  11.976   0.048
42526SOL     OW29409  12.927   9.034   6.201
42526SOL    HW129410  12.840   9.038   6.241
42526SOL    HW229411  12.912   9.053   6.109
42527SOL     OW29412   5.164   9.057   6.148
42527SOL    HW129413   5.244   9.079   6.100
42527SOL    HW229414   5.195   9.007   6.223
42528SOL     OW29415  11.001   9.258   3.930
42528SOL    HW129416  10.942   9.254   3.854
42528SOL    HW229417  10.989   9.174   3.974
42529SOL     OW29418   6.002   4.556   6.598
42529SOL    HW129419   6.048   4.490   6.547
42529SOL    HW229420   5.921   4.571   6.550
42530SOL     OW29421  11.868  10.581  14.473
42530SOL    HW129422  11.776  10.576  14.500
42530SOL    HW229423  11.892  10.673  14.488
42531SOL     OW29424  13.140   5.259  13.019
42531SOL    HW129425  13.143   5.194  12.948
42531SOL    HW229426  13.126   5.342  12.975
42532SOL     OW29427   6.232   1.094  13.927
42532SOL    HW129428   6.205   1.003  13.937
42532SOL    HW229429   6.156   1.137  13.888
42533SOL     OW29430   5.098   9.703   0.735
42533SOL    HW129431   5.079   9.724   0.826
42533SOL    HW229432   5.144   9.780   0.701
42534SOL     OW29433  10.382  13.605  13.428
42534SOL    HW129434  10.459  13.563  13.389
42534SOL    HW229435  10.308  13.552  13.396
42535SOL     OW29436   6.699   5.906  13.819
42535SOL    HW129437   6.626   5.873  13.767
42535SOL    HW229438   6.777   5.865  13.781
42536SOL     OW29439   4.265  11.694   0.260
42536SOL    HW129440   4.318  11.698   0.181
42536SOL    HW229441   4.181  11.658   0.231
42537SOL     OW29442  13.565  11.187   6.367
42537SOL    HW129443  13.596  11.252   6.430
42537SOL    HW229444  13.470  11.198   6.366
42538SOL     OW29445   7.049  11.649  11.049
42538SOL    HW129446   7.072  11.680  11.137
42538SOL    HW229447   7.019  11.559  11.063
42539SOL     OW29448   4.286  10.895  12.950
42539SOL    HW129449   4.237  10.945  12.885
42539SOL    HW229450   4.221  10.839  12.992
42540SOL     OW29451  11.956   6.927   0.187
42540SOL    HW129452  11.889   6.862   0.208
42540SOL    HW229453  12.017   6.881   0.129
42541SOL     OW29454   5.941   6.762   3.217
42541SOL    HW129455   6.017   6.819   3.203
42541SOL    HW229456   5.965   6.679   3.176
42542SOL     OW29457   5.953   2.323   3.838
42542SOL    HW129458   5.981   2.414   3.846
42542SOL    HW229459   5.971   2.299   3.747
42543SOL     OW29460   0.249  14.570   7.639
42543SOL    HW129461   0.334  14.537   7.611
42543SOL    HW229462   0.186  14.503   7.613
42544SOL     OW29463   1.202   1.098  11.181
42544SOL    HW129464   1.138   1.136  11.240
42544SOL    HW229465   1.282   1.088  11.234
42545SOL     OW29466  11.655   3.546  14.112
42545SOL    HW129467  11.680   3.636  14.133
42545SOL    HW229468  11.571   3.554  14.068
42546SOL     OW29469   9.362   7.202   4.938
42546SOL    HW129470   9.268   7.199   4.926
42546SOL    HW229471   9.393   7.263   4.870
42547SOL     OW29472   7.405   5.625   8.235
42547SOL    HW129473   7.395   5.668   8.150
42547SOL    HW229474   7.495   5.644   8.262
42548SOL     OW29475  13.387  11.400   4.033
42548SOL    HW129476  13.360  11.469   3.972
42548SOL    HW229477  13.473  11.372   4.002
42549SOL     OW29478  10.911  13.571   3.384
42549SOL    HW129479  11.002  13.597   3.396
42549SOL    HW229480  10.884  13.540   3.470
42550SOL     OW29481   5.489   5.942   1.761
42550SOL    HW129482   5.444   5.950   1.845
42550SOL    HW229483   5.482   6.029   1.722
42551SOL     OW29484  14.596   7.960   2.280
42551SOL    HW129485  14.650   8.007   2.216
42551SOL    HW229486  14.558   8.029   2.334
42552SOL     OW29487   7.463  11.848  12.915
42552SOL    HW129488   7.434  11.867  13.004
42552SOL    HW229489   7.417  11.912  12.861
42553SOL     OW29490   0.227   7.582   9.685
42553SOL    HW129491   0.179   7.541   9.613
42553SOL    HW229492   0.162   7.635   9.730
42554SOL     OW29493   8.608   5.621   7.908
42554SOL    HW129494   8.649   5.648   7.826
42554SOL    HW229495   8.595   5.703   7.956
42555SOL     OW29496   5.822  13.345   8.974
42555SOL    HW129497   5.848  13.293   8.898
42555SOL    HW229498   5.737  13.308   9.000
42556SOL     OW29499   8.467   0.186   9.542
42556SOL    HW129500   8.427   0.183   9.456
42556SOL    HW229501   8.437   0.268   9.581
42557SOL     OW29502  12.755  13.465   2.453
42557SOL    HW129503  12.791  13.553   2.443
42557SOL    HW229504  12.673  13.467   2.405
42558SOL     OW29505   8.727  13.045   8.199
42558SOL    HW129506   8.641  13.055   8.159
42558SOL    HW229507   8.733  12.952   8.221
42559SOL     OW29508   2.032   6.045   4.464
42559SOL    HW129509   1.978   6.024   4.388
42559SOL    HW229510   2.089   5.970   4.476
42560SOL     OW29511  10.026   5.268   1.563
42560SOL    HW129512  10.120   5.280   1.580
42560SOL    HW229513   9.990   5.243   1.648
42561SOL     OW29514   4.912   3.518   6.930
42561SOL    HW129515   4.877   3.547   6.846
42561SOL    HW229516   4.908   3.422   6.926
42562SOL     OW29517   0.978   6.807   9.479
42562SOL    HW129518   0.946   6.718   9.464
42562SOL    HW229519   0.903   6.863   9.456
42563SOL     OW29520   4.554   4.403   4.384
42563SOL    HW129521   4.521   4.482   4.426
42563SOL    HW229522   4.650   4.411   4.389
42564SOL     OW29523   1.004   9.757  13.237
42564SOL    HW129524   1.095   9.768  13.211
42564SOL    HW229525   0.997   9.804  13.320
42565SOL     OW29526  13.943   5.713   4.979
42565SOL    HW129527  13.922   5.722   5.072
42565SOL    HW229528  14.000   5.637   4.974
42566SOL     OW29529   7.860   1.198   7.199
42566SOL    HW129530   7.911   1.168   7.274
42566SOL    HW229531   7.886   1.140   7.127
42567SOL     OW29532  12.172   4.246   1.742
42567SOL    HW129533  12.210   4.175   1.690
42567SOL    HW229534  12.247   4.302   1.763
42568SOL     OW29535   8.058   2.835   7.838
42568SOL    HW129536   7.995   2.770   7.869
42568SOL    HW229537   8.121   2.785   7.787
42569SOL     OW29538   1.898  13.518   7.349
42569SOL    HW129539   1.810  13.499   7.382
42569SOL    HW229540   1.883  13.574   7.273
42570SOL     OW29541  13.580   5.572   8.588
42570SOL    HW129542  13.670   5.556   8.617
42570SOL    HW229543  13.582   5.556   8.494
42571SOL     OW29544   5.876   2.136   5.762
42571SOL    HW129545   5.894   2.050   5.799
42571SOL    HW229546   5.851   2.119   5.671
42572SOL     OW29547   4.831   7.495   3.807
42572SOL    HW129548   4.872   7.409   3.818
42572SOL    HW229549   4.802   7.496   3.716
42573SOL     OW29550   5.207  12.195   5.145
42573SOL    HW129551   5.227  12.287   5.130
42573SOL    HW229552   5.250  12.175   5.228
42574SOL     OW29553  14.040   9.637   3.356
42574SOL    HW129554  14.049   9.677   3.269
42574SOL    HW229555  14.021   9.545   3.338
42575SOL     OW29556   6.626  10.032  10.477
42575SOL    HW129557   6.586  10.118  10.487
42575SOL    HW229558   6.624   9.994  10.565
42576SOL     OW29559   6.642   6.024   5.273
42576SOL    HW129560   6.583   5.994   5.204
42576SOL    HW229561   6.597   6.099   5.313
42577SOL     OW29562  10.515  11.901   5.636
42577SOL    HW129563  10.419  11.898   5.638
42577SOL    HW229564  10.541  11.927   5.724
42578SOL     OW29565   8.113  13.219  10.585
42578SOL    HW129566   8.060  13.229  10.505
42578SOL    HW229567   8.200  13.249  10.561
42579SOL     OW29568   6.498   7.086   0.551
42579SOL    HW129569   6.500   7.144   0.627
42579SOL    HW229570   6.589   7.069   0.531
42580SOL     OW29571  13.284   4.600   2.397
42580SOL    HW129572  13.261   4.688   2.424
42580SOL    HW229573  13.227   4.543   2.449
42581SOL     OW29574   1.028   3.767   9.969
42581SOL    HW129575   0.945   3.784   9.924
42581SOL    HW229576   1.044   3.674   9.956
42582SOL     OW29577  10.080  13.830   4.585
42582SOL    HW129578  10.079  13.777   4.505
42582SOL    HW229579  10.012  13.896   4.571
42583SOL     OW29580  13.955  14.221   1.461
42583SOL    HW129581  13.880  14.275   1.435
42583SOL    HW229582  13.977  14.172   1.381
42584SOL     OW29583   7.019   6.441  10.449
42584SOL    HW129584   7.039   6.446  10.356
42584SOL    HW229585   7.101   6.462  10.493
42585SOL     OW29586  12.516   5.128  12.772
42585SOL    HW129587  12.423   5.148  12.763
42585SOL    HW229588  12.519   5.034  12.788
42586SOL     OW29589  12.685   3.661  11.952
42586SOL    HW129590  12.641   3.717  11.888
42586SOL    HW229591  12.677   3.708  12.035
42587SOL     OW29592  11.949  14.360   6.056
42587SOL    HW129593  11.948  14.265   6.048
42587SOL    HW229594  12.041  14.384   6.054
42588SOL     OW29595   9.466  11.473   9.690
42588SOL    HW129596   9.532  11.485   9.622
42588SOL    HW229597   9.504  11.408   9.749
42589SOL     OW29598  10.612   3.711   1.996
42589SOL    HW129599  10.544   3.650   2.025
42589SOL    HW229600  10.681   3.655   1.962
42590SOL     OW29601   9.829   7.461  10.749
42590SOL    HW129602   9.853   7.532  10.689
42590SOL    HW229603   9.790   7.395  10.692
42591SOL     OW29604   3.013  13.580   8.729
42591SOL    HW129605   2.957  13.564   8.653
42591SOL    HW229606   3.072  13.651   8.701
42592SOL     OW29607   7.285   7.947  14.621
42592SOL    HW129608   7.343   7.878  14.589
42592SOL    HW229609   7.273   8.005  14.546
42593SOL     OW29610   6.466  13.853  14.601
42593SOL    HW129611   6.535  13.898  14.554
42593SOL    HW229612   6.419  13.923  14.647
42594SOL     OW29613   8.999   5.549  13.073
42594SOL    HW129614   8.935   5.491  13.031
42594SOL    HW229615   8.965   5.637  13.059
42595SOL     OW29616  14.325   3.374   6.116
42595SOL    HW129617  14.407   3.421   6.126
42595SOL    HW229618  14.269   3.433   6.066
42596SOL     OW29619   2.266   9.406  11.214
42596SOL    HW129620   2.323   9.352  11.269
42596SOL    HW229621   2.291   9.384  11.125
42597SOL     OW29622  11.928   8.892   2.198
42597SOL    HW129623  11.954   8.955   2.131
42597SOL    HW229624  11.982   8.815   2.181
42598SOL     OW29625  11.447   7.927  11.704
42598SOL    HW129626  11.461   7.837  11.674
42598SOL    HW229627  11.383   7.963  11.643
42599SOL     OW29628  14.127   8.015  10.226
42599SOL    HW129629  14.195   8.028  10.292
42599SOL    HW229630  14.121   8.099  10.181
42600SOL     OW29631   5.530  11.180   0.142
42600SOL    HW129632   5.526  11.087   0.118
42600SOL    HW229633   5.485  11.185   0.226
42601SOL     OW29634   7.584   3.642   4.348
42601SOL    HW129635   7.594   3.736   4.358
42601SOL    HW229636   7.521   3.632   4.276
42602SOL     OW29637  13.918   8.969   5.885
42602SOL    HW129638  13.916   8.878   5.855
42602SOL    HW229639  14.001   9.003   5.852
42603SOL     OW29640  11.177   2.154   9.524
42603SOL    HW129641  11.101   2.176   9.578
42603SOL    HW229642  11.233   2.231   9.530
42604SOL     OW29643   0.072  12.244   5.427
42604SOL    HW129644   0.090  12.333   5.397
42604SOL    HW229645   0.085  12.190   5.349
42605SOL     OW29646   0.059  13.232   8.963
42605SOL    HW129647   0.053  13.277   8.879
42605SOL    HW229648   0.128  13.279   9.010
42606SOL     OW29649   4.416   3.878   1.940
42606SOL    HW129650   4.451   3.796   1.975
42606SOL    HW229651   4.484   3.908   1.880
42607SOL     OW29652  11.258   5.567   4.752
42607SOL    HW129653  11.349   5.597   4.744
42607SOL    HW229654  11.211   5.613   4.682
42608SOL     OW29655   9.283   5.545   0.740
42608SOL    HW129656   9.276   5.640   0.729
42608SOL    HW229657   9.200   5.519   0.780
42609SOL     OW29658  11.433   7.395   7.909
42609SOL    HW129659  11.512   7.422   7.863
42609SOL    HW229660  11.445   7.301   7.923
42610SOL     OW29661  11.534   4.808   5.364
42610SOL    HW129662  11.506   4.886   5.411
42610SOL    HW229663  11.619   4.786   5.403
42611SOL     OW29664   3.146   8.737   2.362
42611SOL    HW129665   3.110   8.651   2.340
42611SOL    HW229666   3.237   8.733   2.331
42612SOL     OW29667   0.456   4.740  14.826
42612SOL    HW129668   0.477   4.832  14.845
42612SOL    HW229669   0.529   4.710  14.773
42613SOL     OW29670   8.857   2.056   4.379
42613SOL    HW129671   8.782   2.116   4.388
42613SOL    HW229672   8.933   2.108   4.405
42614SOL     OW29673  10.421   8.592   9.864
42614SOL    HW129674  10.476   8.584   9.942
42614SOL    HW229675  10.423   8.505   9.824
42615SOL     OW29676   3.992   0.054   8.773
42615SOL    HW129677   3.965   0.078   8.684
42615SOL    HW229678   3.938   0.107   8.831
42616SOL     OW29679   5.697  10.915  12.623
42616SOL    HW129680   5.675  10.971  12.549
42616SOL    HW229681   5.616  10.868  12.643
42617SOL     OW29682   2.742   6.998   5.177
42617SOL    HW129683   2.658   7.040   5.193
42617SOL    HW229684   2.786   7.055   5.113
42618SOL     OW29685   0.799   5.667   3.076
42618SOL    HW129686   0.732   5.661   3.008
42618SOL    HW229687   0.786   5.589   3.130
42619SOL     OW29688  10.348   3.766   6.639
42619SOL    HW129689  10.342   3.848   6.688
42619SOL    HW229690  10.278   3.771   6.574
42620SOL     OW29691   8.773   3.473   1.738
42620SOL    HW129692   8.734   3.556   1.710
42620SOL    HW229693   8.749   3.411   1.669
42621SOL     OW29694   9.455   5.845   9.410
42621SOL    HW129695   9.466   5.883   9.323
42621SOL    HW229696   9.537   5.865   9.455
42622SOL     OW29697  11.064   0.160   3.845
42622SOL    HW129698  10.974   0.126   3.849
42622SOL    HW229699  11.107   0.124   3.922
42623SOL     OW29700   8.604   2.451  12.135
42623SOL    HW129701   8.534   2.458  12.070
42623SOL    HW229702   8.663   2.385  12.100
42624SOL     OW29703   9.371   1.401  13.614
42624SOL    HW129704   9.378   1.407  13.519
42624SOL    HW229705   9.455   1.435  13.646
42625SOL     OW29706   0.192   8.905  12.313
42625SOL    HW129707   0.115   8.904  12.370
42625SOL    HW229708   0.239   8.825  12.335
42626SOL     OW29709   1.917  13.363   2.205
42626SOL    HW129710   1.868  13.413   2.271
42626SOL    HW229711   1.967  13.428   2.156
42627SOL     OW29712  10.759   4.532   1.970
42627SOL    HW129713  10.687   4.471   1.951
42627SOL    HW229714  10.733   4.576   2.050
42628SOL     OW29715   6.872   1.879   0.678
42628SOL    HW129716   6.858   1.973   0.671
42628SOL    HW229717   6.786   1.844   0.704
42629SOL     OW29718   8.606   8.786   5.398
42629SOL    HW129719   8.651   8.870   5.387
42629SOL    HW229720   8.572   8.788   5.487
42630SOL     OW29721   8.142   3.191   0.774
42630SOL    HW129722   8.072   3.150   0.825
42630SOL    HW229723   8.106   3.199   0.686
42631SOL     OW29724   7.221   8.405  13.436
42631SOL    HW129725   7.192   8.486  13.478
42631SOL    HW229726   7.182   8.407  13.349
42632SOL     OW29727  14.623  10.414  13.836
42632SOL    HW129728  14.685  10.345  13.813
42632SOL    HW229729  14.673  10.476  13.890
42633SOL     OW29730   3.936   7.670   2.961
42633SOL    HW129731   3.846   7.651   2.989
42633SOL    HW229732   3.939   7.766   2.958
42634SOL     OW29733   3.494   6.790   7.869
42634SOL    HW129734   3.459   6.863   7.817
42634SOL    HW229735   3.568   6.758   7.818
42635SOL     OW29736  11.035   2.436   2.429
42635SOL    HW129737  11.127   2.459   2.439
42635SOL    HW229738  11.008   2.406   2.516
42636SOL     OW29739  10.025   4.189  12.815
42636SOL    HW129740  10.044   4.165  12.725
42636SOL    HW229741   9.994   4.279  12.810
42637SOL     OW29742  10.127   3.468   5.897
42637SOL    HW129743  10.114   3.378   5.866
42637SOL    HW229744  10.043   3.511   5.881
42638SOL     OW29745  14.826   7.486   3.087
42638SOL    HW129746  14.833   7.495   2.992
42638SOL    HW229747  14.822   7.576   3.119
42639SOL     OW29748  13.690   8.913  10.101
42639SOL    HW129749  13.712   8.997  10.142
42639SOL    HW229750  13.642   8.865  10.168
42640SOL     OW29751   8.567   7.949   1.772
42640SOL    HW129752   8.500   7.887   1.800
42640SOL    HW229753   8.648   7.915   1.808
42641SOL     OW29754   7.941   1.221  13.209
42641SOL    HW129755   7.848   1.197  13.211
42641SOL    HW229756   7.984   1.149  13.163
42642SOL     OW29757   4.785  14.411  14.263
42642SOL    HW129758   4.800  14.317  14.251
42642SOL    HW229759   4.869  14.451  14.242
42643SOL     OW29760  12.888  13.048   5.202
42643SOL    HW129761  12.955  12.981   5.191
42643SOL    HW229762  12.915  13.119   5.145
42644SOL     OW29763  13.133  10.347   5.805
42644SOL    HW129764  13.117  10.413   5.738
42644SOL    HW229765  13.084  10.379   5.882
42645SOL     OW29766   4.823   4.499   4.392
42645SOL    HW129767   4.882   4.575   4.391
42645SOL    HW229768   4.871   4.432   4.441
42646SOL     OW29769  12.509   9.882  12.666
42646SOL    HW129770  12.496   9.801  12.716
42646SOL    HW229771  12.438   9.940  12.694
42647SOL     OW29772  10.042   6.463   6.237
42647SOL    HW129773  10.012   6.378   6.268
42647SOL    HW229774   9.992   6.526   6.289
42648SOL     OW29775  12.097  10.633   3.192
42648SOL    HW129776  12.077  10.619   3.099
42648SOL    HW229777  12.148  10.556   3.217
42649SOL     OW29778   1.792  12.265  13.415
42649SOL    HW129779   1.720  12.322  13.388
42649SOL    HW229780   1.750  12.183  13.442
42650SOL     OW29781   8.141  12.284   0.702
42650SOL    HW129782   8.159  12.196   0.669
42650SOL    HW229783   8.156  12.342   0.627
42651SOL     OW29784   5.776   5.399   6.263
42651SOL    HW129785   5.787   5.305   6.252
42651SOL    HW229786   5.781   5.413   6.358
42652SOL     OW29787  11.710  10.201   8.869
42652SOL    HW129788  11.802  10.221   8.854
42652SOL    HW229789  11.698  10.215   8.963
42653SOL     OW29790   4.543   1.659  10.634
42653SOL    HW129791   4.630   1.689  10.661
42653SOL    HW229792   4.558   1.611  10.553
42654SOL     OW29793   0.470   8.614   3.860
42654SOL    HW129794   0.487   8.692   3.913
42654SOL    HW229795   0.389   8.635   3.813
42655SOL     OW29796   9.102  14.804  10.068
42655SOL    HW129797   9.173  14.853  10.025
42655SOL    HW229798   9.089  14.849  10.151
42656SOL     OW29799  11.504   6.086  13.242
42656SOL    HW129800  11.420   6.096  13.197
42656SOL    HW229801  11.533   5.998  13.219
42657SOL     OW29802  13.354   8.506   3.878
42657SOL    HW129803  13.259   8.514   3.881
42657SOL    HW229804  13.377   8.526   3.787
42658SOL     OW29805   5.141   6.626  11.645
42658SOL    HW129806   5.133   6.615  11.550
42658SOL    HW229807   5.052   6.647  11.673
42659SOL     OW29808   2.534   4.273   1.063
42659SOL    HW129809   2.603   4.214   1.094
42659SOL    HW229810   2.582   4.351   1.034
42660SOL     OW29811  10.819   0.703   5.680
42660SOL    HW129812  10.764   0.678   5.606
42660SOL    HW229813  10.908   0.683   5.652
42661SOL     OW29814   1.580   2.838   3.616
42661SOL    HW129815   1.644   2.874   3.554
42661SOL    HW229816   1.513   2.798   3.560
42662SOL     OW29817   8.250  11.276  12.635
42662SOL    HW129818   8.256  11.210  12.566
42662SOL    HW229819   8.328  11.261  12.689
42663SOL     OW29820   8.562   4.331   2.300
42663SOL    HW129821   8.619   4.254   2.303
42663SOL    HW229822   8.515   4.324   2.217
42664SOL     OW29823   8.382   4.372   8.165
42664SOL    HW129824   8.420   4.285   8.176
42664SOL    HW229825   8.300   4.370   8.214
42665SOL     OW29826   7.416   7.728   6.692
42665SOL    HW129827   7.452   7.800   6.744
42665SOL    HW229828   7.472   7.653   6.711
42666SOL     OW29829  11.276  10.655   6.341
42666SOL    HW129830  11.288  10.727   6.403
42666SOL    HW229831  11.199  10.608   6.372
42667SOL     OW29832  13.177  10.477   8.835
42667SOL    HW129833  13.177  10.394   8.884
42667SOL    HW229834  13.123  10.536   8.888
42668SOL     OW29835   7.370  11.300   9.345
42668SOL    HW129836   7.357  11.385   9.386
42668SOL    HW229837   7.357  11.316   9.251
42669SOL     OW29838   1.046  10.356  12.672
42669SOL    HW129839   1.005  10.389  12.752
42669SOL    HW229840   1.081  10.434  12.629
42670SOL     OW29841  14.811  13.780   3.190
42670SOL    HW129842  14.812  13.784   3.286
42670SOL    HW229843   0.019  13.801   3.164
42671SOL     OW29844   4.192   0.285   4.136
42671SOL    HW129845   4.133   0.323   4.071
42671SOL    HW229846   4.141   0.217   4.179
42672SOL     OW29847   3.814  14.126   8.751
42672SOL    HW129848   3.886  14.154   8.808
42672SOL    HW229849   3.742  14.186   8.772
42673SOL     OW29850  10.738   8.781  10.166
42673SOL    HW129851  10.806   8.845  10.147
42673SOL    HW229852  10.767   8.738  10.247
42674SOL     OW29853  11.718   2.020   6.055
42674SOL    HW129854  11.792   2.026   6.115
42674SOL    HW229855  11.727   1.934   6.014
42675SOL     OW29856   9.272  10.033   4.871
42675SOL    HW129857   9.333  10.092   4.916
42675SOL    HW229858   9.279   9.951   4.919
42676SOL     OW29859   4.035   5.758   6.293
42676SOL    HW129860   4.019   5.852   6.285
42676SOL    HW229861   3.987   5.732   6.371
42677SOL     OW29862   0.225  14.137   2.888
42677SOL    HW129863   0.194  14.082   2.816
42677SOL    HW229864   0.321  14.132   2.883
42678SOL     OW29865  12.216   5.504   6.609
42678SOL    HW129866  12.279   5.434   6.594
42678SOL    HW229867  12.166   5.475   6.685
42679SOL     OW29868   9.289   7.484  14.872
42679SOL    HW129869   9.232   7.407  14.878
42679SOL    HW229870   9.268   7.522  14.787
42680SOL     OW29871  11.346   3.795  11.297
42680SOL    HW129872  11.311   3.836  11.218
42680SOL    HW229873  11.355   3.702  11.273
42681SOL     OW29874  12.082   0.366   9.221
42681SOL    HW129875  12.177   0.360   9.227
42681SOL    HW229876  12.055   0.283   9.181
42682SOL     OW29877   0.662  12.753  13.250
42682SOL    HW129878   0.691  12.823  13.308
42682SOL    HW229879   0.634  12.683  13.309
42683SOL     OW29880   6.971  12.360  10.836
42683SOL    HW129881   6.972  12.408  10.753
42683SOL    HW229882   6.981  12.427  10.903
42684SOL     OW29883   6.450  11.722   7.625
42684SOL    HW129884   6.491  11.693   7.707
42684SOL    HW229885   6.415  11.809   7.645
42685SOL     OW29886   4.452  11.900  11.166
42685SOL    HW129887   4.432  11.868  11.254
42685SOL    HW229888   4.509  11.976  11.181
42686SOL     OW29889  14.391  11.531   9.564
42686SOL    HW129890  14.433  11.566   9.643
42686SOL    HW229891  14.462  11.485   9.518
42687SOL     OW29892   8.364   5.952   8.721
42687SOL    HW129893   8.311   5.946   8.800
42687SOL    HW229894   8.455   5.954   8.753
42688SOL     OW29895   7.694   7.339  12.696
42688SOL    HW129896   7.698   7.255  12.651
42688SOL    HW229897   7.694   7.317  12.789
42689SOL     OW29898   9.986   8.210   7.265
42689SOL    HW129899   9.942   8.180   7.185
42689SOL    HW229900   9.942   8.162   7.335
42690SOL     OW29901   0.387   0.656   3.479
42690SOL    HW129902   0.318   0.721   3.465
42690SOL    HW229903   0.344   0.587   3.530
42691SOL     OW29904   1.290   4.745   5.605
42691SOL    HW129905   1.268   4.800   5.530
42691SOL    HW229906   1.315   4.661   5.567
42692SOL     OW29907  12.308  12.933   7.283
42692SOL    HW129908  12.347  12.851   7.254
42692SOL    HW229909  12.266  12.970   7.205
42693SOL     OW29910  10.168   2.198   6.111
42693SOL    HW129911  10.235   2.230   6.051
42693SOL    HW229912  10.140   2.114   6.073
42694SOL     OW29913   4.845   9.819  10.621
42694SOL    HW129914   4.870   9.888  10.559
42694SOL    HW229915   4.913   9.821  10.688
42695SOL     OW29916   5.298  10.322   9.041
42695SOL    HW129917   5.343  10.305   9.124
42695SOL    HW229918   5.366  10.357   8.984
42696SOL     OW29919  12.902  10.459  14.275
42696SOL    HW129920  12.873  10.505  14.354
42696SOL    HW229921  12.994  10.438  14.291
42697SOL     OW29922   6.608   9.989   3.927
42697SOL    HW129923   6.538  10.054   3.931
42697SOL    HW229924   6.605   9.945   4.011
42698SOL     OW29925   3.892   2.622  14.324
42698SOL    HW129926   3.917   2.696  14.268
42698SOL    HW229927   3.820   2.655  14.377
42699SOL     OW29928  10.836   3.832   5.439
42699SOL    HW129929  10.762   3.774   5.424
42699SOL    HW229930  10.830   3.858   5.531
42700SOL     OW29931   7.006   9.414   0.066
42700SOL    HW129932   6.961   9.401   0.150
42700SOL    HW229933   7.070   9.343   0.062
42701SOL     OW29934   2.596  14.568   9.646
42701SOL    HW129935   2.510  14.558   9.605
42701SOL    HW229936   2.652  14.601   9.576
42702SOL     OW29937  14.010   6.856   7.372
42702SOL    HW129938  13.918   6.876   7.389
42702SOL    HW229939  14.055   6.940   7.382
42703SOL     OW29940   8.066  13.795   6.417
42703SOL    HW129941   7.990  13.761   6.464
42703SOL    HW229942   8.029  13.852   6.350
42704SOL     OW29943   3.359   3.343   7.340
42704SOL    HW129944   3.338   3.365   7.431
42704SOL    HW229945   3.373   3.427   7.297
42705SOL     OW29946   7.389   9.082   8.513
42705SOL    HW129947   7.479   9.110   8.497
42705SOL    HW229948   7.391   9.040   8.599
42706SOL     OW29949   6.701   9.537  10.750
42706SOL    HW129950   6.638   9.517  10.680
42706SOL    HW229951   6.712   9.454  10.796
42707SOL     OW29952   4.144   6.528   1.774
42707SOL    HW129953   4.149   6.440   1.810
42707SOL    HW229954   4.108   6.581   1.845
42708SOL     OW29955  14.322   3.642   4.409
42708SOL    HW129956  14.334   3.548   4.393
42708SOL    HW229957  14.229   3.650   4.431
42709SOL     OW29958  13.552  13.295   8.688
42709SOL    HW129959  13.534  13.377   8.642
42709SOL    HW229960  13.476  13.281   8.744
42710SOL     OW29961   7.737  10.762  11.757
42710SOL    HW129962   7.783  10.749  11.840
42710SOL    HW229963   7.805  10.788  11.695
42711SOL     OW29964  12.376   8.771  13.212
42711SOL    HW129965  12.410   8.739  13.128
42711SOL    HW229966  12.318   8.843  13.189
42712SOL     OW29967   1.529   1.575  12.470
42712SOL    HW129968   1.479   1.577  12.389
42712SOL    HW229969   1.619   1.556  12.442
42713SOL     OW29970   1.626   2.593   4.559
42713SOL    HW129971   1.697   2.563   4.502
42713SOL    HW229972   1.618   2.524   4.625
42714SOL     OW29973   8.708   5.544   4.409
42714SOL    HW129974   8.622   5.545   4.451
42714SOL    HW229975   8.690   5.569   4.318
42715SOL     OW29976   2.867  13.456   3.421
42715SOL    HW129977   2.861  13.551   3.430
42715SOL    HW229978   2.907  13.426   3.503
42716SOL     OW29979  13.323   3.423   1.189
42716SOL    HW129980  13.288   3.458   1.107
42716SOL    HW229981  13.418   3.434   1.180
42717SOL     OW29982   1.672  11.092   7.041
42717SOL    HW129983   1.582  11.097   7.073
42717SOL    HW229984   1.697  11.183   7.027
42718SOL     OW29985   7.830   6.502  11.732
42718SOL    HW129986   7.901   6.519  11.669
42718SOL    HW229987   7.874   6.461  11.806
42719SOL     OW29988   7.653   3.566   4.710
42719SOL    HW129989   7.586   3.544   4.646
42719SOL    HW229990   7.623   3.525   4.791
42720SOL     OW29991   0.834  11.431  14.152
42720SOL    HW129992   0.856  11.417  14.245
42720SOL    HW229993   0.918  11.448  14.110
42721SOL     OW29994   6.377   2.499   9.278
42721SOL    HW129995   6.362   2.540   9.193
42721SOL    HW229996   6.290   2.472   9.307
42722SOL     OW29997  11.810   4.516   0.953
42722SOL    HW129998  11.853   4.589   0.908
42722SOL    HW229999  11.849   4.437   0.914
42723SOL     OW30000  11.926  11.351  11.860
42723SOL    HW130001  11.938  11.444  11.880
42723SOL    HW230002  11.878  11.351  11.777
42724SOL     OW30003   2.874   3.235  12.106
42724SOL    HW130004   2.784   3.259  12.084
42724SOL    HW230005   2.926   3.267  12.032
42725SOL     OW30006   4.063   7.259  10.803
42725SOL    HW130007   4.135   7.323  10.807
42725SOL    HW230008   4.009   7.279  10.880
42726SOL     OW30009  14.665   7.580   9.543
42726SOL    HW130010  14.729   7.514   9.570
42726SOL    HW230011  14.632   7.616   9.625
42727SOL     OW30012   7.369  12.522  11.929
42727SOL    HW130013   7.458  12.547  11.954
42727SOL    HW230014   7.312  12.579  11.981
42728SOL     OW30015   9.593   7.014   1.732
42728SOL    HW130016   9.597   6.919   1.723
42728SOL    HW230017   9.500   7.034   1.740
42729SOL     OW30018  13.288  12.451  11.959
42729SOL    HW130019  13.324  12.478  11.874
42729SOL    HW230020  13.292  12.355  11.957
42730SOL     OW30021  10.346   2.447  12.261
42730SOL    HW130022  10.359   2.408  12.174
42730SOL    HW230023  10.412   2.516  12.266
42731SOL     OW30024   8.356   5.415  11.964
42731SOL    HW130025   8.401   5.337  11.931
42731SOL    HW230026   8.279   5.424  11.907
42732SOL     OW30027   4.989   7.527   2.542
42732SOL    HW130028   5.036   7.481   2.473
42732SOL    HW230029   4.898   7.500   2.531
42733SOL     OW30030   9.687   0.320  14.380
42733SOL    HW130031   9.594   0.306  14.395
42733SOL    HW230032   9.725   0.232  14.376
42734SOL     OW30033  10.369   7.330   6.828
42734SOL    HW130034  10.412   7.386   6.893
42734SOL    HW230035  10.327   7.262   6.880
42735SOL     OW30036  14.808  11.146   0.399
42735SOL    HW130037  14.815  11.240   0.415
42735SOL    HW230038  14.830  11.105   0.483
42736SOL     OW30039   3.494   6.785   2.260
42736SOL    HW130040   3.507   6.849   2.330
42736SOL    HW230041   3.400   6.789   2.242
42737SOL     OW30042  14.413  13.219  10.621
42737SOL    HW130043  14.423  13.313  10.629
42737SOL    HW230044  14.319  13.206  10.607
42738SOL     OW30045  13.344  13.692   6.053
42738SOL    HW130046  13.323  13.629   6.122
42738SOL    HW230047  13.408  13.751   6.092
42739SOL     OW30048   6.985   2.823   5.932
42739SOL    HW130049   7.061   2.860   5.976
42739SOL    HW230050   6.951   2.758   5.993
42740SOL     OW30051   2.832  13.110   4.799
42740SOL    HW130052   2.902  13.045   4.800
42740SOL    HW230053   2.783  13.092   4.719
42741SOL     OW30054  11.545  12.861   7.019
42741SOL    HW130055  11.633  12.873   6.984
42741SOL    HW230056  11.489  12.858   6.941
42742SOL     OW30057   9.474  10.357   9.633
42742SOL    HW130058   9.445  10.297   9.701
42742SOL    HW230059   9.497  10.300   9.559
42743SOL     OW30060   9.116   7.941   7.390
42743SOL    HW130061   9.193   7.931   7.445
42743SOL    HW230062   9.092   7.852   7.366
42744SOL     OW30063  13.678  13.720   2.595
42744SOL    HW130064  13.739  13.660   2.553
42744SOL    HW230065  13.597  13.712   2.544
42745SOL     OW30066  10.113   3.297   6.237
42745SOL    HW130067  10.046   3.242   6.194
42745SOL    HW230068  10.124   3.372   6.178
42746SOL     OW30069  11.902   7.012   5.605
42746SOL    HW130070  11.828   7.020   5.545
42746SOL    HW230071  11.956   6.942   5.569
42747SOL     OW30072   9.255  14.063   7.741
42747SOL    HW130073   9.176  14.019   7.709
42747SOL    HW230074   9.304  14.085   7.661
42748SOL     OW30075  12.446  12.952  13.698
42748SOL    HW130076  12.491  13.031  13.728
42748SOL    HW230077  12.372  12.984  13.647
42749SOL     OW30078  10.349   7.253   9.983
42749SOL    HW130079  10.345   7.239  10.078
42749SOL    HW230080  10.372   7.168   9.947
42750SOL     OW30081   5.291   8.210  13.084
42750SOL    HW130082   5.210   8.258  13.101
42750SOL    HW230083   5.334   8.260  13.014
42751SOL     OW30084   0.956   6.257  13.950
42751SOL    HW130085   0.999   6.174  13.971
42751SOL    HW230086   0.954   6.259  13.855
42752SOL     OW30087   7.631  11.625   0.099
42752SOL    HW130088   7.638  11.721   0.103
42752SOL    HW230089   7.643  11.596   0.189
42753SOL     OW30090  11.762  14.073   8.870
42753SOL    HW130091  11.736  14.160   8.840
42753SOL    HW230092  11.699  14.014   8.829
42754SOL     OW30093   5.366   2.739  11.423
42754SOL    HW130094   5.418   2.687  11.362
42754SOL    HW230095   5.431   2.787  11.474
42755SOL     OW30096   9.759   2.777  11.524
42755SOL    HW130097   9.665   2.772  11.540
42755SOL    HW230098   9.787   2.854  11.574
42756SOL     OW30099  10.700  11.388   1.665
42756SOL    HW130100  10.717  11.426   1.751
42756SOL    HW230101  10.721  11.459   1.604
42757SOL     OW30102   9.831   9.364   8.040
42757SOL    HW130103   9.818   9.291   8.100
42757SOL    HW230104   9.860   9.322   7.958
42758SOL     OW30105  12.901  14.240  14.587
42758SOL    HW130106  12.970  14.184  14.623
42758SOL    HW230107  12.899  14.315  14.646
42759SOL     OW30108  13.169   8.531  10.760
42759SOL    HW130109  13.095   8.546  10.700
42759SOL    HW230110  13.134   8.472  10.827
42760SOL     OW30111  12.110   1.017  12.258
42760SOL    HW130112  12.183   0.989  12.203
42760SOL    HW230113  12.042   1.042  12.196
42761SOL     OW30114   9.326   8.075  12.149
42761SOL    HW130115   9.313   8.066  12.243
42761SOL    HW230116   9.414   8.039  12.133
42762SOL     OW30117  10.139  13.926   3.250
42762SOL    HW130118  10.054  13.897   3.217
42762SOL    HW230119  10.176  13.848   3.293
42763SOL     OW30120   2.308  10.240   7.390
42763SOL    HW130121   2.278  10.253   7.480
42763SOL    HW230122   2.282  10.319   7.344
42764SOL     OW30123   5.336   1.891   1.017
42764SOL    HW130124   5.398   1.960   0.992
42764SOL    HW230125   5.281   1.880   0.940
42765SOL     OW30126   3.372   9.189   6.167
42765SOL    HW130127   3.288   9.228   6.141
42765SOL    HW230128   3.349   9.101   6.196
42766SOL     OW30129   3.934  12.609   6.810
42766SOL    HW130130   3.862  12.569   6.858
42766SOL    HW230131   3.957  12.686   6.861
42767SOL     OW30132  10.491   8.482   7.041
42767SOL    HW130133  10.458   8.441   7.122
42767SOL    HW230134  10.547   8.553   7.071
42768SOL     OW30135   6.736   1.959  10.794
42768SOL    HW130136   6.721   2.050  10.769
42768SOL    HW230137   6.775   1.919  10.717
42769SOL     OW30138  11.294   9.527   5.333
42769SOL    HW130139  11.273   9.604   5.385
42769SOL    HW230140  11.225   9.524   5.266
42770SOL     OW30141   3.032   9.779   0.646
42770SOL    HW130142   2.996   9.777   0.735
42770SOL    HW230143   2.982   9.713   0.598
42771SOL     OW30144   1.302   6.764  10.851
42771SOL    HW130145   1.283   6.699  10.783
42771SOL    HW230146   1.337   6.713  10.924
42772SOL     OW30147   1.246   5.056  12.049
42772SOL    HW130148   1.254   5.016  12.135
42772SOL    HW230149   1.335   5.084  12.027
42773SOL     OW30150   9.508   3.161   6.071
42773SOL    HW130151   9.546   3.100   6.008
42773SOL    HW230152   9.583   3.200   6.115
42774SOL     OW30153  11.861  14.531  11.402
42774SOL    HW130154  11.767  14.520  11.392
42774SOL    HW230155  11.898  14.502  11.318
42775SOL     OW30156  11.951  13.426  14.124
42775SOL    HW130157  11.995  13.511  14.125
42775SOL    HW230158  11.958  13.396  14.033
42776SOL     OW30159   7.417   6.715  10.469
42776SOL    HW130160   7.352   6.723  10.399
42776SOL    HW230161   7.497   6.753  10.432
42777SOL     OW30162   8.224   6.625   3.506
42777SOL    HW130163   8.219   6.706   3.455
42777SOL    HW230164   8.261   6.561   3.445
42778SOL     OW30165   5.054   7.557   1.288
42778SOL    HW130166   5.027   7.497   1.358
42778SOL    HW230167   5.000   7.533   1.213
42779SOL     OW30168  14.865  13.237   2.240
42779SOL    HW130169   0.069  13.272   2.260
42779SOL    HW230170  14.844  13.270   2.153
42780SOL     OW30171   2.273   8.302  10.771
42780SOL    HW130172   2.314   8.381  10.807
42780SOL    HW230173   2.320   8.286  10.689
42781SOL     OW30174   9.625   4.905   1.164
42781SOL    HW130175   9.616   4.812   1.183
42781SOL    HW230176   9.618   4.911   1.069
42782SOL     OW30177   1.429   6.768  13.695
42782SOL    HW130178   1.454   6.772  13.602
42782SOL    HW230179   1.478   6.839  13.736
42783SOL     OW30180  12.593   4.691   5.108
42783SOL    HW130181  12.548   4.648   5.035
42783SOL    HW230182  12.627   4.620   5.161
42784SOL     OW30183   8.907   0.308   6.710
42784SOL    HW130184   8.943   0.386   6.668
42784SOL    HW230185   8.962   0.236   6.679
42785SOL     OW30186  14.368  14.650   2.306
42785SOL    HW130187  14.314  14.620   2.379
42785SOL    HW230188  14.344  14.593   2.233
42786SOL     OW30189   2.836  10.390   9.359
42786SOL    HW130190   2.755  10.339   9.348
42786SOL    HW230191   2.905  10.325   9.365
42787SOL     OW30192   2.886  14.638  14.422
42787SOL    HW130193   2.882  14.571  14.354
42787SOL    HW230194   2.886  14.721  14.374
42788SOL     OW30195   3.257  11.929   9.640
42788SOL    HW130196   3.278  11.948   9.548
42788SOL    HW230197   3.334  11.882   9.673
42789SOL     OW30198   7.052  12.969   6.545
42789SOL    HW130199   7.088  12.986   6.458
42789SOL    HW230200   6.984  12.903   6.531
42790SOL     OW30201   5.133   3.722  12.168
42790SOL    HW130202   5.069   3.687  12.230
42790SOL    HW230203   5.193   3.649  12.152
42791SOL     OW30204   4.491   6.387   7.264
42791SOL    HW130205   4.509   6.309   7.316
42791SOL    HW230206   4.518   6.460   7.319
42792SOL     OW30207   8.700   5.727   9.471
42792SOL    HW130208   8.620   5.751   9.516
42792SOL    HW230209   8.671   5.681   9.392
42793SOL     OW30210   6.327  10.566   4.640
42793SOL    HW130211   6.305  10.655   4.613
42793SOL    HW230212   6.287  10.509   4.574
42794SOL     OW30213   1.948  13.590   2.866
42794SOL    HW130214   1.957  13.515   2.807
42794SOL    HW230215   1.881  13.563   2.929
42795SOL     OW30216   2.238   1.084  13.317
42795SOL    HW130217   2.151   1.117  13.337
42795SOL    HW230218   2.298   1.152  13.348
42796SOL     OW30219   8.239  10.466   4.890
42796SOL    HW130220   8.281  10.397   4.838
42796SOL    HW230221   8.244  10.434   4.980
42797SOL     OW30222   2.374   7.256  12.844
42797SOL    HW130223   2.304   7.322  12.848
42797SOL    HW230224   2.384   7.227  12.934
42798SOL     OW30225   5.215   5.934   3.300
42798SOL    HW130226   5.162   5.887   3.364
42798SOL    HW230227   5.267   5.866   3.256
42799SOL     OW30228  11.369  11.085  13.338
42799SOL    HW130229  11.343  11.111  13.426
42799SOL    HW230230  11.420  11.005  13.351
42800SOL     OW30231  13.105   3.000   6.578
42800SOL    HW130232  13.185   3.046   6.605
42800SOL    HW230233  13.080   3.042   6.496
42801SOL     OW30234  13.644  12.332   4.432
42801SOL    HW130235  13.727  12.362   4.468
42801SOL    HW230236  13.632  12.244   4.468
42802SOL     OW30237   1.989   9.074  13.888
42802SOL    HW130238   1.977   8.990  13.934
42802SOL    HW230239   2.028   9.050  13.804
42803SOL     OW30240   7.749   6.684   8.787
42803SOL    HW130241   7.808   6.736   8.732
42803SOL    HW230242   7.688   6.644   8.724
42804SOL     OW30243   9.765   3.829   4.412
42804SOL    HW130244   9.780   3.807   4.320
42804SOL    HW230245   9.727   3.917   4.409
42805SOL     OW30246  10.317   6.902  12.721
42805SOL    HW130247  10.290   6.975  12.665
42805SOL    HW230248  10.287   6.927  12.809
42806SOL     OW30249  12.383  12.773   1.627
42806SOL    HW130250  12.423  12.782   1.713
42806SOL    HW230251  12.415  12.688   1.594
42807SOL     OW30252   2.011   7.409   9.156
42807SOL    HW130253   1.958   7.331   9.176
42807SOL    HW230254   2.044   7.438   9.241
42808SOL     OW30255   4.888  10.509   6.529
42808SOL    HW130256   4.948  10.581   6.510
42808SOL    HW230257   4.850  10.488   6.443
42809SOL     OW30258   8.059   6.709   7.057
42809SOL    HW130259   8.103   6.785   7.018
42809SOL    HW230260   8.059   6.727   7.151
42810SOL     OW30261   9.966   2.168   8.751
42810SOL    HW130262   9.887   2.113   8.746
42810SOL    HW230263   9.979   2.200   8.662
42811SOL     OW30264  11.835  12.072   5.872
42811SOL    HW130265  11.859  12.148   5.818
42811SOL    HW230266  11.747  12.091   5.903
42812SOL     OW30267   0.732   3.528  12.543
42812SOL    HW130268   0.813   3.550  12.590
42812SOL    HW230269   0.762   3.484  12.464
42813SOL     OW30270   7.471   7.581   8.673
42813SOL    HW130271   7.511   7.508   8.719
42813SOL    HW230272   7.476   7.654   8.734
42814SOL     OW30273   7.653   2.920  14.572
42814SOL    HW130274   7.613   2.843  14.612
42814SOL    HW230275   7.688   2.889  14.489
42815SOL     OW30276   9.057   3.151   5.762
42815SOL    HW130277   9.000   3.202   5.819
42815SOL    HW230278   9.146   3.175   5.790
42816SOL     OW30279   7.341  10.976   4.382
42816SOL    HW130280   7.377  11.065   4.390
42816SOL    HW230281   7.336  10.961   4.288
42817SOL     OW30282   5.859  11.129   2.074
42817SOL    HW130283   5.917  11.196   2.039
42817SOL    HW230284   5.795  11.177   2.127
42818SOL     OW30285   5.883   8.187  10.458
42818SOL    HW130286   5.965   8.210  10.414
42818SOL    HW230287   5.888   8.092  10.469
42819SOL     OW30288  12.273   8.835   2.862
42819SOL    HW130289  12.196   8.891   2.871
42819SOL    HW230290  12.347   8.894   2.878
42820SOL     OW30291   9.072  13.956   4.239
42820SOL    HW130292   9.055  13.973   4.332
42820SOL    HW230293   9.167  13.967   4.230
42821SOL     OW30294  13.926   2.314  14.769
42821SOL    HW130295  13.977   2.391  14.795
42821SOL    HW230296  13.841   2.349  14.742
42822SOL     OW30297   2.338   6.882   1.228
42822SOL    HW130298   2.249   6.898   1.260
42822SOL    HW230299   2.343   6.931   1.146
42823SOL     OW30300  12.530   8.587  10.499
42823SOL    HW130301  12.540   8.493  10.485
42823SOL    HW230302  12.445   8.608  10.459
42824SOL     OW30303  11.725   7.363  13.108
42824SOL    HW130304  11.750   7.452  13.082
42824SOL    HW230305  11.807   7.324  13.140
42825SOL     OW30306   3.899   4.826  10.584
42825SOL    HW130307   3.819   4.876  10.568
42825SOL    HW230308   3.962   4.862  10.522
42826SOL     OW30309  12.154  11.979  12.602
42826SOL    HW130310  12.103  11.954  12.525
42826SOL    HW230311  12.090  12.018  12.662
42827SOL     OW30312   2.285   3.045   7.142
42827SOL    HW130313   2.365   3.030   7.192
42827SOL    HW230314   2.296   2.994   7.062
42828SOL     OW30315   5.596   0.215   7.964
42828SOL    HW130316   5.669   0.227   8.025
42828SOL    HW230317   5.539   0.151   8.007
42829SOL     OW30318   2.168   6.780   8.276
42829SOL    HW130319   2.189   6.867   8.242
42829SOL    HW230320   2.073   6.774   8.269
42830SOL     OW30321   0.561   2.034  11.410
42830SOL    HW130322   0.544   1.992  11.495
42830SOL    HW230323   0.567   2.128  11.431
42831SOL     OW30324   2.943   6.327   6.777
42831SOL    HW130325   2.906   6.243   6.750
42831SOL    HW230326   2.912   6.389   6.711
42832SOL     OW30327  12.004  12.693   7.638
42832SOL    HW130328  12.088  12.694   7.593
42832SOL    HW230329  11.987  12.785   7.658
42833SOL     OW30330  12.753   9.398  12.817
42833SOL    HW130331  12.701   9.383  12.896
42833SOL    HW230332  12.833   9.441  12.848
42834SOL     OW30333  14.180  11.315  14.010
42834SOL    HW130334  14.120  11.241  14.007
42834SOL    HW230335  14.266  11.276  13.996
42835SOL     OW30336  14.669   0.521   1.286
42835SOL    HW130337  14.726   0.490   1.356
42835SOL    HW230338  14.580   0.499   1.315
42836SOL     OW30339  13.931   8.187  14.618
42836SOL    HW130340  13.973   8.245  14.681
42836SOL    HW230341  13.955   8.223  14.533
42837SOL     OW30342   8.999   1.502  13.934
42837SOL    HW130343   8.993   1.590  13.899
42837SOL    HW230344   9.057   1.456  13.873
42838SOL     OW30345   0.948   0.480   7.703
42838SOL    HW130346   0.854   0.493   7.710
42838SOL    HW230347   0.957   0.388   7.677
42839SOL     OW30348  11.801   0.594  13.467
42839SOL    HW130349  11.784   0.664  13.530
42839SOL    HW230350  11.858   0.533  13.513
42840SOL     OW30351  13.978   4.504  12.660
42840SOL    HW130352  13.957   4.569  12.727
42840SOL    HW230353  13.961   4.420  12.702
42841SOL     OW30354  14.716   3.260  10.159
42841SOL    HW130355  14.654   3.252  10.087
42841SOL    HW230356  14.704   3.350  10.191
42842SOL     OW30357   0.372   0.354   6.906
42842SOL    HW130358   0.399   0.269   6.943
42842SOL    HW230359   0.338   0.403   6.981
42843SOL     OW30360   7.405   8.179  12.985
42843SOL    HW130361   7.459   8.152  12.911
42843SOL    HW230362   7.321   8.202  12.946
42844SOL     OW30363   1.518   5.194  11.145
42844SOL    HW130364   1.592   5.142  11.114
42844SOL    HW230365   1.553   5.245  11.217
42845SOL     OW30366   3.408  10.938   2.948
42845SOL    HW130367   3.383  10.986   2.869
42845SOL    HW230368   3.425  11.006   3.013
42846SOL     OW30369  14.485   3.889   9.132
42846SOL    HW130370  14.424   3.816   9.141
42846SOL    HW230371  14.447   3.958   9.188
42847SOL     OW30372   5.555   8.023  11.666
42847SOL    HW130373   5.551   8.050  11.574
42847SOL    HW230374   5.547   7.927  11.663
42848SOL     OW30375   6.428   5.851  13.517
42848SOL    HW130376   6.520   5.828  13.528
42848SOL    HW230377   6.398   5.796  13.444
42849SOL     OW30378   9.020  12.155   5.812
42849SOL    HW130379   9.087  12.191   5.870
42849SOL    HW230380   9.049  12.065   5.794
42850SOL     OW30381   9.508   7.479   6.561
42850SOL    HW130382   9.438   7.544   6.557
42850SOL    HW230383   9.531   7.474   6.654
42851SOL     OW30384   4.175  10.232   7.363
42851SOL    HW130385   4.189  10.301   7.427
42851SOL    HW230386   4.117  10.271   7.298
42852SOL     OW30387   1.156  10.699   5.573
42852SOL    HW130388   1.159  10.765   5.642
42852SOL    HW230389   1.184  10.618   5.616
42853SOL     OW30390   8.177  10.763  11.415
42853SOL    HW130391   8.223  10.689  11.376
42853SOL    HW230392   8.167  10.740  11.507
42854SOL     OW30393   3.480   7.568   7.990
42854SOL    HW130394   3.547   7.502   7.969
42854SOL    HW230395   3.419   7.522   8.048
42855SOL     OW30396   5.157   5.794   1.501
42855SOL    HW130397   5.134   5.745   1.422
42855SOL    HW230398   5.161   5.885   1.473
42856SOL     OW30399   6.197   9.333   0.188
42856SOL    HW130400   6.137   9.356   0.259
42856SOL    HW230401   6.260   9.405   0.185
42857SOL     OW30402  10.799   9.263  14.777
42857SOL    HW130403  10.823   9.203  14.848
42857SOL    HW230404  10.870   9.253  14.713
42858SOL     OW30405   3.614   7.368   8.804
42858SOL    HW130406   3.648   7.280   8.819
42858SOL    HW230407   3.631   7.385   8.711
42859SOL     OW30408   7.666   9.756   9.402
42859SOL    HW130409   7.725   9.780   9.331
42859SOL    HW230410   7.579   9.773   9.367
42860SOL     OW30411   1.064   6.843  13.169
42860SOL    HW130412   1.125   6.837  13.096
42860SOL    HW230413   1.113   6.889  13.237
42861SOL     OW30414   2.759  13.445   2.992
42861SOL    HW130415   2.726  13.356   2.979
42861SOL    HW230416   2.696  13.501   2.946
42862SOL     OW30417   2.887   1.151  10.675
42862SOL    HW130418   2.923   1.236  10.651
42862SOL    HW230419   2.806   1.145  10.624
42863SOL     OW30420   3.667  10.114   7.310
42863SOL    HW130421   3.628  10.161   7.237
42863SOL    HW230422   3.760  10.107   7.287
42864SOL     OW30423   2.728  11.849   2.700
42864SOL    HW130424   2.714  11.798   2.780
42864SOL    HW230425   2.641  11.876   2.672
42865SOL     OW30426   1.575   1.839  10.593
42865SOL    HW130427   1.595   1.747  10.612
42865SOL    HW230428   1.615   1.888  10.665
42866SOL     OW30429   0.736   4.801  14.101
42866SOL    HW130430   0.728   4.896  14.098
42866SOL    HW230431   0.696   4.771  14.020
42867SOL     OW30432  10.524   5.107   6.887
42867SOL    HW130433  10.547   5.058   6.965
42867SOL    HW230434  10.458   5.170   6.916
42868SOL     OW30435   1.944   5.845  10.705
42868SOL    HW130436   1.970   5.925  10.661
42868SOL    HW230437   1.952   5.777  10.638
42869SOL     OW30438  14.848   5.064   3.344
42869SOL    HW130439   0.016   5.109   3.276
42869SOL    HW230440  14.799   5.133   3.389
42870SOL     OW30441  14.630   0.657   9.943
42870SOL    HW130442  14.691   0.697   9.881
42870SOL    HW230443  14.594   0.730   9.993
42871SOL     OW30444  11.285   5.205  14.774
42871SOL    HW130445  11.344   5.138  14.809
42871SOL    HW230446  11.267   5.263  14.848
42872SOL     OW30447   4.091   4.534  11.332
42872SOL    HW130448   4.119   4.498  11.417
42872SOL    HW230449   4.109   4.464  11.270
42873SOL     OW30450   1.128   7.401   8.963
42873SOL    HW130451   1.151   7.423   9.053
42873SOL    HW230452   1.125   7.486   8.918
42874SOL     OW30453   8.513   3.900  13.450
42874SOL    HW130454   8.545   3.966  13.512
42874SOL    HW230455   8.571   3.825  13.464
42875SOL     OW30456   1.376  13.921   1.000
42875SOL    HW130457   1.451  13.900   0.945
42875SOL    HW230458   1.336  13.997   0.958
42876SOL     OW30459   4.942   7.614   8.240
42876SOL    HW130460   4.868   7.669   8.214
42876SOL    HW230461   4.904   7.527   8.248
42877SOL     OW30462  13.199   9.934   2.075
42877SOL    HW130463  13.230  10.020   2.102
42877SOL    HW230464  13.105   9.934   2.095
42878SOL     OW30465  12.268   7.089   9.925
42878SOL    HW130466  12.288   7.137   9.845
42878SOL    HW230467  12.203   7.024   9.898
42879SOL     OW30468  10.106   9.537   7.785
42879SOL    HW130469  10.176   9.475   7.763
42879SOL    HW230470  10.031   9.482   7.808
42880SOL     OW30471  11.639   1.011   0.223
42880SOL    HW130472  11.609   1.042   0.138
42880SOL    HW230473  11.684   1.086   0.262
42881SOL     OW30474   8.781   8.715   9.501
42881SOL    HW130475   8.850   8.701   9.436
42881SOL    HW230476   8.725   8.782   9.462
42882SOL     OW30477   9.229   4.607  11.392
42882SOL    HW130478   9.312   4.582  11.352
42882SOL    HW230479   9.213   4.541  11.459
42883SOL     OW30480   6.427   3.462   9.064
42883SOL    HW130481   6.387   3.532   9.013
42883SOL    HW230482   6.443   3.501   9.150
42884SOL     OW30483   8.528   1.597   5.790
42884SOL    HW130484   8.561   1.678   5.828
42884SOL    HW230485   8.605   1.557   5.749
42885SOL     OW30486   8.499   4.381   3.317
42885SOL    HW130487   8.415   4.425   3.325
42885SOL    HW230488   8.547   4.407   3.396
42886SOL     OW30489   4.786  14.356  13.266
42886SOL    HW130490   4.856  14.402  13.219
42886SOL    HW230491   4.754  14.420  13.329
42887SOL     OW30492  13.066   8.823  12.816
42887SOL    HW130493  13.055   8.728  12.824
42887SOL    HW230494  13.142   8.834  12.760
42888SOL     OW30495   6.213   5.530   6.333
42888SOL    HW130496   6.184   5.510   6.244
42888SOL    HW230497   6.261   5.612   6.325
42889SOL     OW30498   7.209  12.519   6.043
42889SOL    HW130499   7.218  12.496   5.950
42889SOL    HW230500   7.298  12.520   6.076
42890SOL     OW30501  13.635   9.442   3.056
42890SOL    HW130502  13.683   9.421   3.136
42890SOL    HW230503  13.592   9.360   3.031
42891SOL     OW30504   3.997   0.568   3.394
42891SOL    HW130505   3.925   0.504   3.395
42891SOL    HW230506   4.051   0.542   3.319
42892SOL     OW30507   5.878   1.052   6.186
42892SOL    HW130508   5.959   1.060   6.136
42892SOL    HW230509   5.886   1.119   6.255
42893SOL     OW30510   8.253  11.011   9.657
42893SOL    HW130511   8.244  10.940   9.721
42893SOL    HW230512   8.304  10.973   9.585
42894SOL     OW30513   9.700  14.693   1.522
42894SOL    HW130514   9.775  14.746   1.552
42894SOL    HW230515   9.739  14.610   1.496
42895SOL     OW30516   4.165   5.025   2.869
42895SOL    HW130517   4.197   4.946   2.913
42895SOL    HW230518   4.137   5.083   2.940
42896SOL     OW30519   3.402   0.905   7.561
42896SOL    HW130520   3.444   0.887   7.646
42896SOL    HW230521   3.427   0.831   7.506
42897SOL     OW30522  11.537   1.816   0.403
42897SOL    HW130523  11.545   1.793   0.311
42897SOL    HW230524  11.533   1.912   0.403
42898SOL     OW30525   7.518   3.483   8.989
42898SOL    HW130526   7.450   3.498   9.055
42898SOL    HW230527   7.583   3.429   9.033
42899SOL     OW30528   2.879   9.565   0.540
42899SOL    HW130529   2.927   9.538   0.462
42899SOL    HW230530   2.789   9.537   0.524
42900SOL     OW30531   3.495  14.063  13.942
42900SOL    HW130532   3.448  14.031  13.865
42900SOL    HW230533   3.520  14.152  13.919
42901SOL     OW30534  13.928   1.264   0.116
42901SOL    HW130535  13.996   1.198   0.101
42901SOL    HW230536  13.957   1.309   0.196
42902SOL     OW30537   0.832   6.944   8.947
42902SOL    HW130538   0.874   6.927   9.031
42902SOL    HW230539   0.865   6.876   8.889
42903SOL     OW30540   2.184  12.777   4.495
42903SOL    HW130541   2.180  12.682   4.510
42903SOL    HW230542   2.214  12.785   4.404
42904SOL     OW30543   6.947   0.842   1.348
42904SOL    HW130544   7.001   0.799   1.414
42904SOL    HW230545   6.858   0.841   1.385
42905SOL     OW30546   6.732   5.268  11.795
42905SOL    HW130547   6.713   5.360  11.814
42905SOL    HW230548   6.719   5.223  11.879
42906SOL     OW30549   4.749  10.459   0.318
42906SOL    HW130550   4.739  10.382   0.374
42906SOL    HW230551   4.735  10.426   0.229
42907SOL     OW30552   5.143   9.587   2.009
42907SOL    HW130553   5.177   9.519   1.951
42907SOL    HW230554   5.130   9.542   2.093
42908SOL     OW30555  11.843   0.571   0.870
42908SOL    HW130556  11.925   0.523   0.861
42908SOL    HW230557  11.801   0.564   0.784
42909SOL     OW30558  11.429  14.701  13.164
42909SOL    HW130559  11.334  14.709  13.156
42909SOL    HW230560  11.464  14.770  13.107
42910SOL     OW30561  14.291   0.927  13.653
42910SOL    HW130562  14.272   0.869  13.727
42910SOL    HW230563  14.380   0.957  13.669
42911SOL     OW30564  14.776  10.817   4.729
42911SOL    HW130565  14.700  10.857   4.772
42911SOL    HW230566  14.842  10.886   4.726
42912SOL     OW30567   5.748   0.721   3.572
42912SOL    HW130568   5.745   0.649   3.508
42912SOL    HW230569   5.835   0.758   3.562
42913SOL     OW30570  12.913   8.888   2.942
42913SOL    HW130571  12.958   8.968   2.916
42913SOL    HW230572  12.885   8.848   2.860
42914SOL     OW30573  10.957  14.701   5.052
42914SOL    HW130574  10.863  14.685   5.045
42914SOL    HW230575  10.995  14.660   4.975
42915SOL     OW30576  13.491   0.532   3.111
42915SOL    HW130577  13.571   0.480   3.101
42915SOL    HW230578  13.426   0.469   3.144
42916SOL     OW30579   1.530  11.810   9.560
42916SOL    HW130580   1.587  11.748   9.514
42916SOL    HW230581   1.549  11.894   9.519
42917SOL     OW30582  11.522  14.706   7.233
42917SOL    HW130583  11.501  14.623   7.275
42917SOL    HW230584  11.518  14.771   7.303
42918SOL     OW30585   4.635   8.584   8.500
42918SOL    HW130586   4.565   8.557   8.559
42918SOL    HW230587   4.699   8.627   8.556
42919SOL     OW30588   0.100   1.831   9.507
42919SOL    HW130589   0.166   1.843   9.439
42919SOL    HW230590   0.150   1.832   9.589
42920SOL     OW30591   0.057   7.442   6.223
42920SOL    HW130592   0.099   7.524   6.196
42920SOL    HW230593   0.030   7.401   6.141
42921SOL     OW30594  11.071   5.288   6.691
42921SOL    HW130595  11.055   5.194   6.680
42921SOL    HW230596  11.054   5.325   6.604
42922SOL     OW30597   4.302   7.858  11.275
42922SOL    HW130598   4.210   7.853  11.251
42922SOL    HW230599   4.349   7.846  11.192
42923SOL     OW30600   9.379  12.571   1.671
42923SOL    HW130601   9.446  12.503   1.665
42923SOL    HW230602   9.297  12.522   1.680
42924SOL     OW30603  14.418   4.062   6.233
42924SOL    HW130604  14.485   4.129   6.245
42924SOL    HW230605  14.391   4.039   6.322
42925SOL     OW30606   6.551   7.632   4.775
42925SOL    HW130607   6.612   7.677   4.717
42925SOL    HW230608   6.473   7.619   4.722
42926SOL     OW30609   7.600  10.412   0.658
42926SOL    HW130610   7.556  10.375   0.581
42926SOL    HW230611   7.532  10.410   0.726
42927SOL     OW30612   8.549   4.149  14.338
42927SOL    HW130613   8.631   4.182  14.301
42927SOL    HW230614   8.552   4.055  14.324
42928SOL     OW30615  13.567  11.434   6.174
42928SOL    HW130616  13.544  11.370   6.241
42928SOL    HW230617  13.648  11.402   6.136
42929SOL     OW30618   3.780  10.073   6.634
42929SOL    HW130619   3.770  10.168   6.624
42929SOL    HW230620   3.832  10.047   6.558
42930SOL     OW30621  11.918   6.940   1.365
42930SOL    HW130622  12.007   6.908   1.378
42930SOL    HW230623  11.862   6.865   1.382
42931SOL     OW30624   1.566  13.481   8.470
42931SOL    HW130625   1.487  13.536   8.465
42931SOL    HW230626   1.628  13.533   8.522
42932SOL     OW30627   9.965  14.152   7.000
42932SOL    HW130628   9.990  14.062   7.024
42932SOL    HW230629   9.898  14.141   6.933
42933SOL     OW30630   6.988   4.653   5.493
42933SOL    HW130631   7.078   4.665   5.524
42933SOL    HW230632   6.960   4.741   5.467
42934SOL     OW30633   4.570  13.717  14.683
42934SOL    HW130634   4.605  13.629  14.700
42934SOL    HW230635   4.514  13.705  14.606
42935SOL     OW30636   8.854  12.216  12.908
42935SOL    HW130637   8.779  12.230  12.850
42935SOL    HW230638   8.826  12.144  12.965
42936SOL     OW30639   1.754   2.492  13.383
42936SOL    HW130640   1.761   2.524  13.293
42936SOL    HW230641   1.761   2.396  13.375
42937SOL     OW30642  11.098   4.602  13.225
42937SOL    HW130643  11.012   4.559  13.229
42937SOL    HW230644  11.128   4.601  13.316
42938SOL     OW30645   1.888  10.888   3.160
42938SOL    HW130646   1.901  10.938   3.240
42938SOL    HW230647   1.793  10.881   3.151
42939SOL     OW30648   1.101  10.882   2.737
42939SOL    HW130649   1.012  10.848   2.738
42939SOL    HW230650   1.091  10.976   2.729
42940SOL     OW30651   6.465  13.274   3.552
42940SOL    HW130652   6.535  13.338   3.565
42940SOL    HW230653   6.445  13.280   3.458
42941SOL     OW30654  12.840  14.217   6.790
42941SOL    HW130655  12.859  14.146   6.851
42941SOL    HW230656  12.748  14.238   6.807
42942SOL     OW30657   4.315  13.957   6.944
42942SOL    HW130658   4.375  13.883   6.934
42942SOL    HW230659   4.236  13.931   6.896
42943SOL     OW30660  14.419   4.050   0.738
42943SOL    HW130661  14.510   4.079   0.745
42943SOL    HW230662  14.370   4.130   0.717
42944SOL     OW30663   7.397   7.831  13.548
42944SOL    HW130664   7.392   7.927  13.552
42944SOL    HW230665   7.354   7.809  13.465
42945SOL     OW30666   3.807   0.810   8.660
42945SOL    HW130667   3.875   0.818   8.727
42945SOL    HW230668   3.824   0.726   8.617
42946SOL     OW30669   0.043   1.234   7.846
42946SOL    HW130670   0.117   1.261   7.901
42946SOL    HW230671   0.032   1.141   7.865
42947SOL     OW30672   5.667  13.911   2.465
42947SOL    HW130673   5.750  13.892   2.507
42947SOL    HW230674   5.604  13.918   2.537
42948SOL     OW30675   5.319   5.461   7.865
42948SOL    HW130676   5.285   5.489   7.950
42948SOL    HW230677   5.369   5.382   7.884
42949SOL     OW30678  12.380   9.601   7.579
42949SOL    HW130679  12.439   9.562   7.515
42949SOL    HW230680  12.305   9.543   7.582
42950SOL     OW30681   8.763   8.984   2.738
42950SOL    HW130682   8.786   9.050   2.804
42950SOL    HW230683   8.738   9.035   2.661
42951SOL     OW30684  10.863   3.325   3.643
42951SOL    HW130685  10.932   3.265   3.615
42951SOL    HW230686  10.784   3.271   3.644
42952SOL     OW30687   0.898   0.833  13.683
42952SOL    HW130688   0.919   0.757  13.738
42952SOL    HW230689   0.975   0.846  13.629
42953SOL     OW30690   0.746   3.168   4.242
42953SOL    HW130691   0.673   3.202   4.293
42953SOL    HW230692   0.715   3.084   4.208
42954SOL     OW30693  13.526   8.241   5.091
42954SOL    HW130694  13.436   8.271   5.105
42954SOL    HW230695  13.561   8.229   5.179
42955SOL     OW30696   3.302   9.597   4.588
42955SOL    HW130697   3.321   9.536   4.517
42955SOL    HW230698   3.338   9.680   4.559
42956SOL     OW30699   4.715   0.374   3.686
42956SOL    HW130700   4.684   0.315   3.755
42956SOL    HW230701   4.740   0.316   3.615
42957SOL     OW30702  13.344   1.085  10.783
42957SOL    HW130703  13.372   1.020  10.719
42957SOL    HW230704  13.265   1.123  10.746
42958SOL     OW30705   5.572   0.066  14.173
42958SOL    HW130706   5.595   0.158  14.166
42958SOL    HW230707   5.518   0.060  14.253
42959SOL     OW30708  10.208   7.164  12.648
42959SOL    HW130709  10.278   7.222  12.616
42959SOL    HW230710  10.138   7.174  12.583
42960SOL     OW30711   4.777   5.709  10.262
42960SOL    HW130712   4.750   5.790  10.304
42960SOL    HW230713   4.697   5.658  10.254
42961SOL     OW30714   9.995   0.674  14.709
42961SOL    HW130715  10.083   0.660  14.746
42961SOL    HW230716   9.961   0.585  14.696
42962SOL     OW30717  13.350   0.636   2.148
42962SOL    HW130718  13.276   0.625   2.089
42962SOL    HW230719  13.346   0.560   2.206
42963SOL     OW30720   8.876   3.683  13.299
42963SOL    HW130721   8.857   3.598  13.340
42963SOL    HW230722   8.801   3.699  13.242
42964SOL     OW30723   5.079   1.640   4.763
42964SOL    HW130724   5.006   1.699   4.782
42964SOL    HW230725   5.074   1.626   4.668
42965SOL     OW30726  11.104   3.298  13.141
42965SOL    HW130727  11.035   3.355  13.106
42965SOL    HW230728  11.185   3.346  13.124
42966SOL     OW30729   1.703   4.953   5.321
42966SOL    HW130730   1.705   4.949   5.417
42966SOL    HW230731   1.662   4.870   5.295
42967SOL     OW30732   6.274   9.019   0.608
42967SOL    HW130733   6.321   9.102   0.604
42967SOL    HW230734   6.342   8.952   0.598
42968SOL     OW30735  11.600   4.659   2.873
42968SOL    HW130736  11.594   4.673   2.779
42968SOL    HW230737  11.674   4.599   2.884
42969SOL     OW30738   7.731  13.442   0.791
42969SOL    HW130739   7.764  13.530   0.806
42969SOL    HW230740   7.774  13.388   0.857
42970SOL     OW30741   0.416   1.844  13.861
42970SOL    HW130742   0.384   1.885  13.941
42970SOL    HW230743   0.499   1.802  13.886
42971SOL     OW30744   1.528   3.668   3.531
42971SOL    HW130745   1.593   3.622   3.585
42971SOL    HW230746   1.529   3.622   3.447
42972SOL     OW30747   7.132  13.323   9.812
42972SOL    HW130748   7.204  13.370   9.855
42972SOL    HW230749   7.116  13.373   9.732
42973SOL     OW30750  12.464   6.375   3.016
42973SOL    HW130751  12.526   6.407   2.951
42973SOL    HW230752  12.490   6.285   3.033
42974SOL     OW30753   6.511  12.859  14.298
42974SOL    HW130754   6.446  12.828  14.235
42974SOL    HW230755   6.567  12.783  14.314
42975SOL     OW30756  11.478   2.462  11.540
42975SOL    HW130757  11.463   2.408  11.463
42975SOL    HW230758  11.395   2.509  11.553
42976SOL     OW30759   9.903   3.668   7.699
42976SOL    HW130760   9.953   3.736   7.655
42976SOL    HW230761   9.846   3.632   7.631
42977SOL     OW30762   1.469  11.491  11.770
42977SOL    HW130763   1.461  11.497  11.675
42977SOL    HW230764   1.389  11.446  11.799
42978SOL     OW30765   3.860   2.437   7.604
42978SOL    HW130766   3.912   2.507   7.564
42978SOL    HW230767   3.837   2.380   7.530
42979SOL     OW30768  13.427  11.510   5.252
42979SOL    HW130769  13.470  11.516   5.167
42979SOL    HW230770  13.482  11.451   5.303
42980SOL     OW30771   8.141   8.132   7.734
42980SOL    HW130772   8.214   8.193   7.735
42980SOL    HW230773   8.175   8.052   7.774
42981SOL     OW30774   1.056   5.513   0.662
42981SOL    HW130775   0.988   5.575   0.688
42981SOL    HW230776   1.109   5.501   0.740
42982SOL     OW30777   6.246  14.098  11.228
42982SOL    HW130778   6.277  14.148  11.303
42982SOL    HW230779   6.219  14.165  11.164
42983SOL     OW30780   7.175   2.827   2.588
42983SOL    HW130781   7.135   2.805   2.503
42983SOL    HW230782   7.260   2.782   2.586
42984SOL     OW30783   8.083  13.531   2.490
42984SOL    HW130784   8.016  13.463   2.496
42984SOL    HW230785   8.165  13.482   2.481
42985SOL     OW30786   0.602   1.038   2.473
42985SOL    HW130787   0.546   1.107   2.440
42985SOL    HW230788   0.550   0.958   2.464
42986SOL     OW30789  11.226   6.962  13.758
42986SOL    HW130790  11.272   7.008  13.687
42986SOL    HW230791  11.223   6.871  13.728
42987SOL     OW30792   8.709   7.786   2.088
42987SOL    HW130793   8.713   7.710   2.031
42987SOL    HW230794   8.797   7.825   2.084
42988SOL     OW30795   6.381  11.602  14.454
42988SOL    HW130796   6.422  11.516  14.453
42988SOL    HW230797   6.345  11.610  14.543
42989SOL     OW30798   4.415   0.058  13.949
42989SOL    HW130799   4.443  14.856  13.984
42989SOL    HW230800   4.458   0.064  13.864
42990SOL     OW30801  12.813   9.335   0.848
42990SOL    HW130802  12.870   9.412   0.848
42990SOL    HW230803  12.802   9.314   0.755
42991SOL     OW30804   4.530   8.643  13.740
42991SOL    HW130805   4.457   8.684  13.693
42991SOL    HW230806   4.574   8.588  13.674
42992SOL     OW30807   8.745   3.816   3.401
42992SOL    HW130808   8.807   3.824   3.473
42992SOL    HW230809   8.774   3.880   3.336
42993SOL     OW30810   0.001  14.298   4.130
42993SOL    HW130811  14.838  14.339   4.056
42993SOL    HW230812  14.850  14.346   4.206
42994SOL     OW30813   1.511   4.353   7.857
42994SOL    HW130814   1.480   4.414   7.789
42994SOL    HW230815   1.432   4.306   7.884
42995SOL     OW30816   5.504  11.024   2.203
42995SOL    HW130817   5.523  11.061   2.117
42995SOL    HW230818   5.415  11.053   2.223
42996SOL     OW30819   1.499   7.362   6.068
42996SOL    HW130820   1.404   7.345   6.064
42996SOL    HW230821   1.535   7.286   6.113
42997SOL     OW30822   6.356  11.062   2.263
42997SOL    HW130823   6.420  11.110   2.210
42997SOL    HW230824   6.409  11.019   2.331
42998SOL     OW30825   6.351   0.177   2.641
42998SOL    HW130826   6.271   0.210   2.681
42998SOL    HW230827   6.403   0.255   2.623
42999SOL     OW30828   7.864  11.513   5.600
42999SOL    HW130829   7.805  11.448   5.560
42999SOL    HW230830   7.834  11.521   5.690
43000SOL     OW30831   6.610   0.489  10.717
43000SOL    HW130832   6.594   0.536  10.636
43000SOL    HW230833   6.532   0.506  10.771
43001SOL     OW30834  10.337   1.135  12.678
43001SOL    HW130835  10.367   1.083  12.604
43001SOL    HW230836  10.242   1.138  12.669
43002SOL     OW30837  12.769  11.210  12.673
43002SOL    HW130838  12.799  11.283  12.727
43002SOL    HW230839  12.816  11.134  12.707
43003SOL     OW30840  10.878  13.197  10.711
43003SOL    HW130841  10.854  13.169  10.799
43003SOL    HW230842  10.830  13.138  10.653
43004SOL     OW30843   8.159   8.975   6.687
43004SOL    HW130844   8.188   9.039   6.621
43004SOL    HW230845   8.230   8.911   6.691
43005SOL     OW30846  12.124   2.120   8.093
43005SOL    HW130847  12.075   2.174   8.032
43005SOL    HW230848  12.160   2.181   8.157
43006SOL     OW30849  11.495   0.969  12.108
43006SOL    HW130850  11.440   1.004  12.038
43006SOL    HW230851  11.495   0.875  12.093
43007SOL     OW30852   9.206   8.043   4.292
43007SOL    HW130853   9.149   8.052   4.368
43007SOL    HW230854   9.147   8.051   4.216
43008SOL     OW30855   3.130   9.672   6.376
43008SOL    HW130856   3.083   9.750   6.347
43008SOL    HW230857   3.066   9.601   6.367
43009SOL     OW30858   6.056   0.908   0.272
43009SOL    HW130859   6.006   0.827   0.268
43009SOL    HW230860   6.139   0.887   0.230
43010SOL     OW30861   9.857   1.534   7.234
43010SOL    HW130862   9.789   1.504   7.173
43010SOL    HW230863   9.872   1.625   7.210
43011SOL     OW30864   8.696  14.164   9.069
43011SOL    HW130865   8.660  14.146   8.982
43011SOL    HW230866   8.625  14.208   9.116
43012SOL     OW30867   5.036   4.455   3.698
43012SOL    HW130868   5.060   4.448   3.790
43012SOL    HW230869   5.118   4.480   3.654
43013SOL     OW30870  12.183   7.166   9.375
43013SOL    HW130871  12.275   7.180   9.351
43013SOL    HW230872  12.134   7.190   9.297
43014SOL     OW30873   3.854  11.868  11.306
43014SOL    HW130874   3.801  11.915  11.242
43014SOL    HW230875   3.805  11.875  11.388
43015SOL     OW30876  14.126   5.261   2.763
43015SOL    HW130877  14.151   5.353   2.771
43015SOL    HW230878  14.034   5.258   2.785
43016SOL     OW30879   3.496  10.111  11.323
43016SOL    HW130880   3.430  10.059  11.277
43016SOL    HW230881   3.578  10.090  11.277
43017SOL     OW30882  14.621   9.114   2.065
43017SOL    HW130883  14.592   9.181   2.127
43017SOL    HW230884  14.567   9.037   2.086
43018SOL     OW30885   9.022  11.339  14.506
43018SOL    HW130886   9.033  11.317  14.599
43018SOL    HW230887   9.111  11.358  14.475
43019SOL     OW30888  11.830   9.981   0.474
43019SOL    HW130889  11.919   9.980   0.439
43019SOL    HW230890  11.776  10.011   0.401
43020SOL     OW30891   4.301  14.829   4.745
43020SOL    HW130892   4.255  14.855   4.665
43020SOL    HW230893   4.233  14.828   4.812
43021SOL     OW30894   7.865   8.191   8.502
43021SOL    HW130895   7.843   8.283   8.511
43021SOL    HW230896   7.953   8.183   8.541
43022SOL     OW30897  14.685  10.169   9.494
43022SOL    HW130898  14.761  10.111   9.490
43022SOL    HW230899  14.612  10.112   9.515
43023SOL     OW30900  10.321   3.491   6.426
43023SOL    HW130901  10.349   3.535   6.346
43023SOL    HW230902  10.232   3.460   6.406
43024SOL     OW30903   3.627   2.357  14.645
43024SOL    HW130904   3.674   2.374  14.564
43024SOL    HW230905   3.535   2.352  14.619
43025SOL     OW30906   1.162   5.659  13.218
43025SOL    HW130907   1.074   5.659  13.257
43025SOL    HW230908   1.147   5.643  13.125
43026SOL     OW30909   2.576   5.077   9.883
43026SOL    HW130910   2.645   5.052   9.821
43026SOL    HW230911   2.536   4.994   9.908
43027SOL     OW30912  12.466   5.177  14.249
43027SOL    HW130913  12.463   5.265  14.209
43027SOL    HW230914  12.558   5.152  14.244
43028SOL     OW30915   8.706   5.190   3.534
43028SOL    HW130916   8.670   5.275   3.557
43028SOL    HW230917   8.792   5.188   3.576
43029SOL     OW30918  12.359   4.095  14.817
43029SOL    HW130919  12.290   4.128  14.759
43029SOL    HW230920  12.410   4.172  14.840
43030SOL     OW30921   9.354  14.392   9.859
43030SOL    HW130922   9.279  14.427   9.908
43030SOL    HW230923   9.387  14.467   9.810
43031SOL     OW30924  10.166   2.120  13.418
43031SOL    HW130925  10.222   2.092  13.346
43031SOL    HW230926  10.077   2.110  13.384
43032SOL     OW30927   4.361  10.392   4.231
43032SOL    HW130928   4.332  10.481   4.213
43032SOL    HW230929   4.437  10.402   4.289
43033SOL     OW30930   3.844   7.572   1.986
43033SOL    HW130931   3.828   7.567   2.081
43033SOL    HW230932   3.937   7.555   1.976
43034SOL     OW30933   7.798  11.504   3.659
43034SOL    HW130934   7.801  11.498   3.755
43034SOL    HW230935   7.727  11.446   3.634
43035SOL     OW30936  13.977  12.662   0.147
43035SOL    HW130937  13.962  12.755   0.131
43035SOL    HW230938  13.910  12.638   0.210
43036SOL     OW30939  12.786  10.274   7.141
43036SOL    HW130940  12.817  10.184   7.151
43036SOL    HW230941  12.758  10.300   7.229
43037SOL     OW30942  13.190   8.430  14.454
43037SOL    HW130943  13.279   8.423  14.488
43037SOL    HW230944  13.135   8.393  14.523
43038SOL     OW30945   0.963  10.144   8.465
43038SOL    HW130946   1.042  10.098   8.438
43038SOL    HW230947   0.911  10.152   8.385
43039SOL     OW30948  12.740   5.759  11.380
43039SOL    HW130949  12.665   5.772  11.438
43039SOL    HW230950  12.815   5.750  11.439
43040SOL     OW30951   6.588   1.739   1.116
43040SOL    HW130952   6.679   1.711   1.127
43040SOL    HW230953   6.592   1.834   1.108
43041SOL     OW30954   0.519   4.440   7.486
43041SOL    HW130955   0.492   4.521   7.443
43041SOL    HW230956   0.440   4.385   7.485
43042SOL     OW30957  11.477  10.288   1.088
43042SOL    HW130958  11.423  10.289   1.009
43042SOL    HW230959  11.537  10.214   1.074
43043SOL     OW30960  10.759   8.359  11.502
43043SOL    HW130961  10.781   8.426  11.437
43043SOL    HW230962  10.703   8.297  11.455
43044SOL     OW30963  13.002   5.080   6.099
43044SOL    HW130964  12.951   5.085   6.180
43044SOL    HW230965  13.092   5.095   6.126
43045SOL     OW30966  13.412  11.918   2.361
43045SOL    HW130967  13.329  11.938   2.318
43045SOL    HW230968  13.467  11.882   2.291
43046SOL     OW30969   9.841   7.311   0.540
43046SOL    HW130970   9.788   7.298   0.461
43046SOL    HW230971   9.778   7.309   0.612
43047SOL     OW30972  14.145  10.310  13.143
43047SOL    HW130973  14.142  10.238  13.080
43047SOL    HW230974  14.239  10.324  13.158
43048SOL     OW30975   7.231   7.886  13.063
43048SOL    HW130976   7.142   7.900  13.030
43048SOL    HW230977   7.250   7.794  13.045
43049SOL     OW30978   5.830  14.319  10.122
43049SOL    HW130979   5.890  14.265  10.072
43049SOL    HW230980   5.874  14.333  10.205
43050SOL     OW30981  10.378   1.450   1.166
43050SOL    HW130982  10.420   1.536   1.162
43050SOL    HW230983  10.444   1.393   1.204
43051SOL     OW30984   7.730   7.862   4.427
43051SOL    HW130985   7.795   7.908   4.374
43051SOL    HW230986   7.664   7.928   4.448
43052SOL     OW30987   4.189   7.668   5.953
43052SOL    HW130988   4.244   7.741   5.923
43052SOL    HW230989   4.118   7.711   6.002
43053SOL     OW30990   1.375  14.873   0.958
43053SOL    HW130991   1.305   0.054   0.974
43053SOL    HW230992   1.330  14.798   0.919
43054SOL     OW30993  13.559  14.563   3.881
43054SOL    HW130994  13.608  14.554   3.963
43054SOL    HW230995  13.532  14.654   3.878
43055SOL     OW30996   0.996   3.531   4.083
43055SOL    HW130997   1.073   3.532   4.026
43055SOL    HW230998   0.942   3.460   4.049
43056SOL     OW30999   2.215   8.919   7.114
43056SOL    HW131000   2.147   8.981   7.140
43056SOL    HW231001   2.290   8.939   7.170
43057SOL     OW31002   1.357   3.990  10.216
43057SOL    HW131003   1.321   4.007  10.129
43057SOL    HW231004   1.439   4.040  10.220
43058SOL     OW31005   4.545   5.570   9.151
43058SOL    HW131006   4.505   5.654   9.131
43058SOL    HW231007   4.478   5.505   9.130
43059SOL     OW31008   4.339  10.527   0.358
43059SOL    HW131009   4.339  10.514   0.453
43059SOL    HW231010   4.429  10.509   0.331
43060SOL     OW31011   9.037   1.665   9.822
43060SOL    HW131012   9.086   1.747   9.817
43060SOL    HW231013   8.964   1.684   9.882
43061SOL     OW31014   4.049   7.042   9.675
43061SOL    HW131015   4.139   7.074   9.670
43061SOL    HW231016   4.002   7.111   9.722
43062SOL     OW31017  11.115  10.490   1.745
43062SOL    HW131018  11.066  10.528   1.818
43062SOL    HW231019  11.166  10.419   1.785
43063SOL     OW31020  13.744   0.299   6.543
43063SOL    HW131021  13.723   0.372   6.485
43063SOL    HW231022  13.832   0.317   6.574
43064SOL     OW31023   7.817   1.035   2.310
43064SOL    HW131024   7.861   1.001   2.232
43064SOL    HW231025   7.858   0.990   2.383
43065SOL     OW31026   2.026   3.113   4.807
43065SOL    HW131027   2.111   3.137   4.843
43065SOL    HW231028   1.964   3.169   4.853
43066SOL     OW31029   8.096  10.119  13.175
43066SOL    HW131030   8.117  10.093  13.085
43066SOL    HW231031   8.037  10.051  13.206
43067SOL     OW31032   1.952   0.071   2.453
43067SOL    HW131033   2.027   0.058   2.396
43067SOL    HW231034   1.907  14.868   2.453
43068SOL     OW31035   5.452  12.202  13.046
43068SOL    HW131036   5.438  12.167  13.134
43068SOL    HW231037   5.441  12.297  13.056
43069SOL     OW31038   0.367  10.936   4.888
43069SOL    HW131039   0.424  10.894   4.823
43069SOL    HW231040   0.420  10.937   4.968
43070SOL     OW31041   3.450  14.718   8.756
43070SOL    HW131042   3.509  14.734   8.830
43070SOL    HW231043   3.432  14.624   8.760
43071SOL     OW31044   9.387   1.474   5.302
43071SOL    HW131045   9.365   1.421   5.378
43071SOL    HW231046   9.453   1.423   5.255
43072SOL     OW31047   6.242   8.042   9.092
43072SOL    HW131048   6.159   8.068   9.133
43072SOL    HW231049   6.267   8.119   9.040
43073SOL     OW31050  10.801  10.409  13.394
43073SOL    HW131051  10.893  10.407  13.368
43073SOL    HW231052  10.754  10.429  13.313
43074SOL     OW31053  12.172   6.996   7.548
43074SOL    HW131054  12.235   7.063   7.521
43074SOL    HW231055  12.195   6.976   7.639
43075SOL     OW31056  13.260   1.104   5.782
43075SOL    HW131057  13.225   1.172   5.840
43075SOL    HW231058  13.226   1.022   5.817
43076SOL     OW31059   8.750  14.818   0.560
43076SOL    HW131060   8.723  14.728   0.541
43076SOL    HW231061   8.670  14.862   0.586
43077SOL     OW31062   8.247   5.909  14.521
43077SOL    HW131063   8.313   5.974  14.498
43077SOL    HW231064   8.165   5.957  14.525
43078SOL     OW31065  13.231   4.034   7.118
43078SOL    HW131066  13.258   4.125   7.109
43078SOL    HW231067  13.241   3.997   7.030
43079SOL     OW31068  11.210   6.451   5.672
43079SOL    HW131069  11.216   6.358   5.649
43079SOL    HW231070  11.277   6.463   5.739
43080SOL     OW31071   5.434   1.015  10.016
43080SOL    HW131072   5.387   0.939  10.050
43080SOL    HW231073   5.419   1.013   9.922
43081SOL     OW31074   0.488   6.788   6.100
43081SOL    HW131075   0.513   6.790   6.192
43081SOL    HW231076   0.475   6.880   6.076
43082SOL     OW31077   7.730  14.542   4.536
43082SOL    HW131078   7.767  14.629   4.550
43082SOL    HW231079   7.704  14.541   4.444
43083SOL     OW31080   2.583   9.823  10.610
43083SOL    HW131081   2.547   9.887  10.549
43083SOL    HW231082   2.516   9.755  10.616
43084SOL     OW31083  11.188  14.280   8.181
43084SOL    HW131084  11.140  14.355   8.215
43084SOL    HW231085  11.138  14.204   8.209
43085SOL     OW31086  14.649  11.315  13.278
43085SOL    HW131087  14.660  11.329  13.184
43085SOL    HW231088  14.579  11.250  13.285
43086SOL     OW31089   3.383   2.566  10.821
43086SOL    HW131090   3.401   2.501  10.753
43086SOL    HW231091   3.469   2.594  10.851
43087SOL     OW31092   5.523   3.274   5.206
43087SOL    HW131093   5.498   3.261   5.114
43087SOL    HW231094   5.587   3.345   5.203
43088SOL     OW31095   2.961   1.992  12.563
43088SOL    HW131096   3.054   1.993  12.538
43088SOL    HW231097   2.952   2.065  12.624
43089SOL     OW31098  11.179   8.325   5.356
43089SOL    HW131099  11.243   8.323   5.427
43089SOL    HW231100  11.199   8.405   5.308
43090SOL     OW31101   1.114  12.357  10.229
43090SOL    HW131102   1.165  12.290  10.185
43090SOL    HW231103   1.055  12.391  10.162
43091SOL     OW31104   7.131  12.711  10.839
43091SOL    HW131105   7.192  12.733  10.909
43091SOL    HW231106   7.048  12.695  10.884
43092SOL     OW31107   3.440   5.882   7.179
43092SOL    HW131108   3.483   5.829   7.245
43092SOL    HW231109   3.475   5.970   7.190
43093SOL     OW31110   8.026   2.531   7.952
43093SOL    HW131111   7.995   2.544   8.042
43093SOL    HW231112   8.040   2.437   7.944
43094SOL     OW31113   4.903  14.875   0.099
43094SOL    HW131114   4.808   0.009   0.104
43094SOL    HW231115   4.910  14.785   0.069
43095SOL     OW31116  13.750  14.127  13.915
43095SOL    HW131117  13.754  14.159  13.825
43095SOL    HW231118  13.814  14.056  13.919
43096SOL     OW31119  14.353   6.119   9.850
43096SOL    HW131120  14.426   6.145   9.906
43096SOL    HW231121  14.288   6.083   9.912
43097SOL     OW31122   1.737   5.686  13.900
43097SOL    HW131123   1.698   5.599  13.906
43097SOL    HW231124   1.705   5.732  13.977
43098SOL     OW31125  13.552  12.243   6.415
43098SOL    HW131126  13.462  12.222   6.389
43098SOL    HW231127  13.564  12.195   6.497
43099SOL     OW31128   9.847  10.438   7.975
43099SOL    HW131129   9.847  10.391   7.892
43099SOL    HW231130   9.939  10.441   8.001
43100SOL     OW31131  13.668   0.873   2.747
43100SOL    HW131132  13.733   0.813   2.785
43100SOL    HW231133  13.600   0.880   2.813
43101SOL     OW31134  14.684   6.666   5.947
43101SOL    HW131135  14.631   6.735   5.987
43101SOL    HW231136  14.665   6.673   5.854
43102SOL     OW31137   7.110  11.815   7.029
43102SOL    HW131138   7.103  11.809   7.124
43102SOL    HW231139   7.057  11.743   6.996
43103SOL     OW31140   7.863  13.791   7.347
43103SOL    HW131141   7.823  13.777   7.432
43103SOL    HW231142   7.904  13.708   7.325
43104SOL     OW31143   9.804  11.504   6.135
43104SOL    HW131144   9.848  11.523   6.218
43104SOL    HW231145   9.875  11.496   6.072
43105SOL     OW31146   5.415   8.906   0.226
43105SOL    HW131147   5.355   8.979   0.210
43105SOL    HW231148   5.474   8.939   0.294
43106SOL     OW31149   6.275  11.544   6.964
43106SOL    HW131150   6.304  11.578   6.880
43106SOL    HW231151   6.339  11.476   6.987
43107SOL     OW31152   6.808   4.333   2.762
43107SOL    HW131153   6.854   4.279   2.697
43107SOL    HW231154   6.718   4.337   2.731
43108SOL     OW31155  12.748   0.961  10.297
43108SOL    HW131156  12.789   1.034  10.345
43108SOL    HW231157  12.753   0.887  10.358
43109SOL     OW31158  14.096   8.354   7.053
43109SOL    HW131159  14.017   8.303   7.034
43109SOL    HW231160  14.164   8.315   6.998
43110SOL     OW31161   6.647   1.096   8.084
43110SOL    HW131162   6.619   1.064   8.170
43110SOL    HW231163   6.623   1.026   8.023
43111SOL     OW31164  13.933   1.374   0.727
43111SOL    HW131165  14.017   1.419   0.722
43111SOL    HW231166  13.921   1.335   0.640
43112SOL     OW31167  11.758   6.080   8.861
43112SOL    HW131168  11.693   6.114   8.798
43112SOL    HW231169  11.794   6.002   8.818
43113SOL     OW31170   5.840   6.297  12.557
43113SOL    HW131171   5.872   6.222  12.507
43113SOL    HW231172   5.846   6.370  12.495
43114SOL     OW31173  10.904   7.385  12.925
43114SOL    HW131174  10.919   7.294  12.899
43114SOL    HW231175  10.913   7.434  12.843
43115SOL     OW31176  14.203   3.329  12.202
43115SOL    HW131177  14.134   3.390  12.229
43115SOL    HW231178  14.243   3.301  12.285
43116SOL     OW31179  14.414  12.353   5.904
43116SOL    HW131180  14.464  12.359   5.986
43116SOL    HW231181  14.330  12.317   5.930
43117SOL     OW31182   2.244  10.138   8.797
43117SOL    HW131183   2.188  10.157   8.721
43117SOL    HW231184   2.212  10.054   8.830
43118SOL     OW31185   7.143   1.703   8.136
43118SOL    HW131186   7.141   1.722   8.042
43118SOL    HW231187   7.191   1.620   8.142
43119SOL     OW31188   9.320  10.730   9.232
43119SOL    HW131189   9.227  10.710   9.229
43119SOL    HW231190   9.362  10.647   9.256
43120SOL     OW31191   0.810   6.424  13.525
43120SOL    HW131192   0.801   6.517  13.543
43120SOL    HW231193   0.721   6.394  13.509
43121SOL     OW31194  12.285   6.818   2.098
43121SOL    HW131195  12.293   6.856   2.010
43121SOL    HW231196  12.337   6.877   2.154
43122SOL     OW31197   1.150  10.038  12.622
43122SOL    HW131198   1.246  10.039  12.628
43122SOL    HW231199   1.127  10.124  12.587
43123SOL     OW31200   9.979   5.402   9.295
43123SOL    HW131201  10.031   5.326   9.322
43123SOL    HW231202  10.035   5.448   9.233
43124SOL     OW31203   1.148  13.858   7.451
43124SOL    HW131204   1.071  13.820   7.409
43124SOL    HW231205   1.122  13.949   7.470
43125SOL     OW31206   7.268   7.010   6.578
43125SOL    HW131207   7.201   7.048   6.521
43125SOL    HW231208   7.279   6.920   6.547
43126SOL     OW31209  12.202  12.014  14.102
43126SOL    HW131210  12.192  11.985  14.193
43126SOL    HW231211  12.115  12.005  14.064
43127SOL     OW31212   0.738   8.851   2.205
43127SOL    HW131213   0.667   8.899   2.163
43127SOL    HW231214   0.718   8.759   2.188
43128SOL     OW31215   5.246   3.909   2.828
43128SOL    HW131216   5.196   3.984   2.795
43128SOL    HW231217   5.210   3.891   2.914
43129SOL     OW31218  13.491   9.921   8.563
43129SOL    HW131219  13.517  10.004   8.523
43129SOL    HW231220  13.543   9.855   8.518
43130SOL     OW31221   3.776   1.690  12.645
43130SOL    HW131222   3.713   1.670  12.575
43130SOL    HW231223   3.858   1.651  12.615
43131SOL     OW31224   2.873   9.445   5.131
43131SOL    HW131225   2.854   9.442   5.037
43131SOL    HW231226   2.947   9.505   5.139
43132SOL     OW31227  12.886  11.007   1.360
43132SOL    HW131228  12.969  10.962   1.347
43132SOL    HW231229  12.877  11.065   1.284
43133SOL     OW31230  12.593  10.014   9.707
43133SOL    HW131231  12.659   9.964   9.657
43133SOL    HW231232  12.639  10.093   9.734
43134SOL     OW31233   8.615  12.389  11.501
43134SOL    HW131234   8.577  12.332  11.567
43134SOL    HW231235   8.540  12.421  11.451
43135SOL     OW31236  11.295  13.741   9.543
43135SOL    HW131237  11.323  13.812   9.602
43135SOL    HW231238  11.375  13.711   9.501
43136SOL     OW31239   6.601   3.517  10.524
43136SOL    HW131240   6.686   3.483  10.494
43136SOL    HW231241   6.617   3.543  10.615
43137SOL     OW31242   3.373   9.483   0.933
43137SOL    HW131243   3.411   9.565   0.902
43137SOL    HW231244   3.448   9.427   0.953
43138SOL     OW31245  11.405   5.766   9.296
43138SOL    HW131246  11.460   5.844   9.299
43138SOL    HW231247  11.366   5.760   9.383
43139SOL     OW31248  12.272   2.732   5.122
43139SOL    HW131249  12.271   2.770   5.034
43139SOL    HW231250  12.365   2.734   5.148
43140SOL     OW31251   3.953  10.522   5.357
43140SOL    HW131252   4.013  10.449   5.341
43140SOL    HW231253   3.903  10.530   5.275
43141SOL     OW31254   9.539   1.285   5.802
43141SOL    HW131255   9.535   1.275   5.707
43141SOL    HW231256   9.480   1.218   5.836
43142SOL     OW31257   7.203  13.879   0.373
43142SOL    HW131258   7.275  13.930   0.410
43142SOL    HW231259   7.132  13.889   0.437
43143SOL     OW31260   1.372   1.669  12.695
43143SOL    HW131261   1.424   1.647  12.617
43143SOL    HW231262   1.300   1.605  12.694
43144SOL     OW31263  10.363   0.446   0.319
43144SOL    HW131264  10.311   0.426   0.397
43144SOL    HW231265  10.334   0.533   0.293
43145SOL     OW31266  14.145   8.828   2.643
43145SOL    HW131267  14.176   8.760   2.584
43145SOL    HW231268  14.142   8.907   2.588
43146SOL     OW31269   0.420   6.941   4.318
43146SOL    HW131270   0.340   6.988   4.294
43146SOL    HW231271   0.458   6.915   4.234
43147SOL     OW31272   5.155   4.003  11.602
43147SOL    HW131273   5.215   4.033  11.670
43147SOL    HW231274   5.212   3.974  11.530
43148SOL     OW31275  12.886   6.713  13.031
43148SOL    HW131276  12.878   6.778  13.101
43148SOL    HW231277  12.958   6.656  13.059
43149SOL     OW31278   0.954   4.775   5.260
43149SOL    HW131279   0.937   4.869   5.251
43149SOL    HW231280   0.984   4.748   5.173
43150SOL     OW31281   3.744  12.963  12.003
43150SOL    HW131282   3.777  12.924  11.922
43150SOL    HW231283   3.788  13.047  12.010
43151SOL     OW31284   7.217   5.539   4.945
43151SOL    HW131285   7.131   5.538   4.986
43151SOL    HW231286   7.266   5.606   4.993
43152SOL     OW31287   8.045   4.222  11.126
43152SOL    HW131288   8.037   4.315  11.105
43152SOL    HW231289   8.043   4.219  11.222
43153SOL     OW31290  14.139  14.635   3.016
43153SOL    HW131291  14.135  14.575   2.942
43153SOL    HW231292  14.112  14.720   2.981
43154SOL     OW31293  14.840   5.606   8.305
43154SOL    HW131294  14.755   5.585   8.344
43154SOL    HW231295  14.827   5.691   8.263
43155SOL     OW31296   3.058   5.659  13.927
43155SOL    HW131297   3.019   5.587  13.975
43155SOL    HW231298   3.094   5.620  13.847
43156SOL     OW31299   9.090  10.801  12.039
43156SOL    HW131300   9.069  10.849  12.119
43156SOL    HW231301   9.041  10.719  12.047
43157SOL     OW31302  14.493   3.315  13.809
43157SOL    HW131303  14.516   3.303  13.901
43157SOL    HW231304  14.446   3.235  13.786
43158SOL     OW31305  11.721   6.520   3.216
43158SOL    HW131306  11.785   6.475   3.161
43158SOL    HW231307  11.661   6.450   3.243
43159SOL     OW31308  13.554  11.599   9.980
43159SOL    HW131309  13.617  11.541  10.024
43159SOL    HW231310  13.473  11.587  10.029
43160SOL     OW31311   6.998   9.521   3.517
43160SOL    HW131312   7.032   9.484   3.598
43160SOL    HW231313   7.047   9.603   3.505
43161SOL     OW31314   3.081   3.050   9.690
43161SOL    HW131315   3.095   3.144   9.697
43161SOL    HW231316   3.137   3.011   9.756
43162SOL     OW31317   2.187   6.740   7.990
43162SOL    HW131318   2.179   6.739   8.086
43162SOL    HW231319   2.152   6.655   7.962
43163SOL     OW31320   1.603  10.368  12.778
43163SOL    HW131321   1.551  10.390  12.700
43163SOL    HW231322   1.636  10.280  12.761
43164SOL     OW31323   5.651  14.334   4.313
43164SOL    HW131324   5.615  14.312   4.227
43164SOL    HW231325   5.743  14.353   4.296
43165SOL     OW31326  11.046  13.083  10.368
43165SOL    HW131327  11.140  13.071  10.378
43165SOL    HW231328  11.022  13.031  10.291
43166SOL     OW31329   5.512  14.699   2.281
43166SOL    HW131330   5.547  14.737   2.200
43166SOL    HW231331   5.573  14.629   2.303
43167SOL     OW31332   1.268   0.983   8.182
43167SOL    HW131333   1.237   0.931   8.107
43167SOL    HW231334   1.358   1.005   8.160
43168SOL     OW31335   0.492   3.811  11.713
43168SOL    HW131336   0.452   3.868  11.778
43168SOL    HW231337   0.449   3.726  11.725
43169SOL     OW31338   0.880  10.001   7.537
43169SOL    HW131339   0.822  10.039   7.471
43169SOL    HW231340   0.947  10.067   7.552
43170SOL     OW31341   7.857   7.670   7.705
43170SOL    HW131342   7.765   7.668   7.679
43170SOL    HW231343   7.880   7.578   7.718
43171SOL     OW31344   7.157   0.094  11.886
43171SOL    HW131345   7.200   0.179  11.873
43171SOL    HW231346   7.229   0.033  11.901
43172SOL     OW31347   7.088   2.086   4.850
43172SOL    HW131348   7.152   2.073   4.780
43172SOL    HW231349   7.055   1.998   4.870
43173SOL     OW31350   6.597  12.749   7.821
43173SOL    HW131351   6.581  12.708   7.906
43173SOL    HW231352   6.655  12.823   7.841
43174SOL     OW31353  11.383   2.026   3.498
43174SOL    HW131354  11.460   1.974   3.521
43174SOL    HW231355  11.398   2.111   3.542
43175SOL     OW31356   8.337   3.036   4.291
43175SOL    HW131357   8.245   3.034   4.263
43175SOL    HW231358   8.349   2.956   4.342
43176SOL     OW31359   3.063   6.228   5.359
43176SOL    HW131360   3.076   6.263   5.271
43176SOL    HW231361   3.039   6.137   5.346
43177SOL     OW31362  13.938  10.235   5.489
43177SOL    HW131363  13.987  10.170   5.539
43177SOL    HW231364  13.914  10.191   5.408
43178SOL     OW31365   1.010  11.692   7.137
43178SOL    HW131366   1.101  11.661   7.147
43178SOL    HW231367   0.957  11.625   7.181
43179SOL     OW31368   6.506   2.669   3.723
43179SOL    HW131369   6.474   2.621   3.800
43179SOL    HW231370   6.435   2.730   3.702
43180SOL     OW31371   7.562   7.956   6.883
43180SOL    HW131372   7.503   7.909   6.942
43180SOL    HW231373   7.551   8.048   6.906
43181SOL     OW31374  14.588   0.549  12.371
43181SOL    HW131375  14.518   0.533  12.435
43181SOL    HW231376  14.622   0.635  12.395
43182SOL     OW31377  14.421   7.672   0.482
43182SOL    HW131378  14.510   7.655   0.453
43182SOL    HW231379  14.387   7.587   0.508
43183SOL     OW31380  12.534   4.683   0.515
43183SOL    HW131381  12.508   4.773   0.535
43183SOL    HW231382  12.479   4.658   0.441
43184SOL     OW31383  11.240   4.955   1.530
43184SOL    HW131384  11.222   5.048   1.516
43184SOL    HW231385  11.201   4.936   1.616
43185SOL     OW31386   5.507  10.547   0.294
43185SOL    HW131387   5.505  10.454   0.271
43185SOL    HW231388   5.443  10.555   0.365
43186SOL     OW31389   9.022  14.188   7.402
43186SOL    HW131390   9.021  14.100   7.362
43186SOL    HW231391   9.115  14.209   7.411
43187SOL     OW31392   6.537   6.071   2.270
43187SOL    HW131393   6.459   6.016   2.277
43187SOL    HW231394   6.556   6.098   2.360
43188SOL     OW31395  11.789   4.571   7.364
43188SOL    HW131396  11.711   4.557   7.416
43188SOL    HW231397  11.815   4.484   7.335
43189SOL     OW31398   7.413  11.398   3.562
43189SOL    HW131399   7.486  11.391   3.501
43189SOL    HW231400   7.336  11.409   3.506
43190SOL     OW31401   3.285   8.195  13.206
43190SOL    HW131402   3.269   8.186  13.112
43190SOL    HW231403   3.253   8.114  13.245
43191SOL     OW31404  14.803   8.196   6.865
43191SOL    HW131405  14.869   8.167   6.928
43191SOL    HW231406  14.732   8.231   6.919
43192SOL     OW31407   8.053   3.736  12.760
43192SOL    HW131408   8.089   3.651  12.736
43192SOL    HW231409   8.016   3.770  12.679
43193SOL     OW31410  10.206   1.759   8.042
43193SOL    HW131411  10.241   1.674   8.018
43193SOL    HW231412  10.149   1.783   7.969
43194SOL     OW31413   6.619   0.862   1.193
43194SOL    HW131414   6.631   0.877   1.100
43194SOL    HW231415   6.644   0.945   1.234
43195SOL     OW31416   9.423  13.528  12.173
43195SOL    HW131417   9.348  13.471  12.157
43195SOL    HW231418   9.479  13.516  12.096
43196SOL     OW31419  12.557   7.815   7.420
43196SOL    HW131420  12.618   7.839   7.490
43196SOL    HW231421  12.472   7.810   7.464
43197SOL     OW31422   2.455   6.424   0.460
43197SOL    HW131423   2.372   6.464   0.434
43197SOL    HW231424   2.522   6.477   0.416
43198SOL     OW31425   8.920   1.561   7.339
43198SOL    HW131426   8.890   1.597   7.423
43198SOL    HW231427   8.939   1.469   7.359
43199SOL     OW31428   1.553   9.599  12.722
43199SOL    HW131429   1.590   9.544  12.653
43199SOL    HW231430   1.462   9.612  12.696
43200SOL     OW31431   0.255   8.929   2.937
43200SOL    HW131432   0.221   8.844   2.911
43200SOL    HW231433   0.178   8.982   2.959
43201SOL     OW31434  12.125   7.901  10.508
43201SOL    HW131435  12.135   7.991  10.477
43201SOL    HW231436  12.074   7.909  10.589
43202SOL     OW31437   2.216  13.571   5.164
43202SOL    HW131438   2.222  13.588   5.257
43202SOL    HW231439   2.178  13.650   5.126
43203SOL     OW31440  10.837   5.863   7.567
43203SOL    HW131441  10.760   5.805   7.569
43203SOL    HW231442  10.829   5.910   7.484
43204SOL     OW31443   7.939   9.838   9.828
43204SOL    HW131444   7.944   9.932   9.812
43204SOL    HW231445   7.936   9.799   9.741
43205SOL     OW31446   7.890   2.121   9.704
43205SOL    HW131447   7.798   2.146   9.699
43205SOL    HW231448   7.889   2.025   9.713
43206SOL     OW31449   6.708   9.268  13.228
43206SOL    HW131450   6.651   9.192  13.246
43206SOL    HW231451   6.761   9.277  13.307
43207SOL     OW31452   9.074   5.562   4.270
43207SOL    HW131453   9.135   5.632   4.249
43207SOL    HW231454   9.019   5.554   4.192
43208SOL     OW31455   7.010   7.040   3.584
43208SOL    HW131456   7.023   7.025   3.491
43208SOL    HW231457   7.094   7.073   3.615
43209SOL     OW31458   6.162  10.933   3.875
43209SOL    HW131459   6.215  10.924   3.796
43209SOL    HW231460   6.200  10.871   3.937
43210SOL     OW31461   2.968  12.653   7.235
43210SOL    HW131462   3.031  12.683   7.169
43210SOL    HW231463   2.958  12.559   7.217
43211SOL     OW31464  10.420   9.676  11.400
43211SOL    HW131465  10.473   9.603  11.431
43211SOL    HW231466  10.431   9.744  11.465
43212SOL     OW31467  13.759   1.882  12.774
43212SOL    HW131468  13.824   1.935  12.820
43212SOL    HW231469  13.751   1.803  12.827
43213SOL     OW31470   2.217   8.506   3.871
43213SOL    HW131471   2.231   8.580   3.931
43213SOL    HW231472   2.157   8.540   3.805
43214SOL     OW31473  11.155   6.969   9.010
43214SOL    HW131474  11.174   7.000   9.098
43214SOL    HW231475  11.120   7.045   8.964
43215SOL     OW31476   0.516  10.660   0.871
43215SOL    HW131477   0.552  10.747   0.853
43215SOL    HW231478   0.460  10.641   0.796
43216SOL     OW31479  12.263  10.428   5.633
43216SOL    HW131480  12.273  10.432   5.537
43216SOL    HW231481  12.341  10.384   5.663
43217SOL     OW31482   5.923   2.036   3.872
43217SOL    HW131483   5.989   2.018   3.806
43217SOL    HW231484   5.915   2.132   3.872
43218SOL     OW31485  12.317  11.384  13.319
43218SOL    HW131486  12.335  11.422  13.233
43218SOL    HW231487  12.241  11.433  13.351
43219SOL     OW31488  11.214  10.512   3.689
43219SOL    HW131489  11.214  10.591   3.744
43219SOL    HW231490  11.306  10.487   3.683
43220SOL     OW31491   8.855   8.534  10.887
43220SOL    HW131492   8.945   8.538  10.918
43220SOL    HW231493   8.847   8.448  10.846
43221SOL     OW31494   4.489   0.588   3.810
43221SOL    HW131495   4.422   0.563   3.747
43221SOL    HW231496   4.490   0.516   3.873
43222SOL     OW31497  14.577  11.169   5.130
43222SOL    HW131498  14.593  11.254   5.087
43222SOL    HW231499  14.554  11.192   5.220
43223SOL     OW31500   6.477   6.858   7.002
43223SOL    HW131501   6.402   6.902   6.961
43223SOL    HW231502   6.553   6.893   6.957
43224SOL     OW31503  12.626   6.841  13.563
43224SOL    HW131504  12.695   6.793  13.516
43224SOL    HW231505  12.600   6.782  13.633
43225SOL     OW31506   1.750  11.189   5.896
43225SOL    HW131507   1.665  11.189   5.941
43225SOL    HW231508   1.748  11.109   5.843
43226SOL     OW31509   1.114  14.539  12.289
43226SOL    HW131510   1.139  14.563  12.199
43226SOL    HW231511   1.060  14.611  12.319
43227SOL     OW31512   7.381  14.122  10.454
43227SOL    HW131513   7.366  14.156  10.542
43227SOL    HW231514   7.336  14.037  10.453
43228SOL     OW31515   4.712  10.214   1.145
43228SOL    HW131516   4.752  10.218   1.232
43228SOL    HW231517   4.780  10.248   1.086
43229SOL     OW31518   3.759  14.440  13.478
43229SOL    HW131519   3.780  14.482  13.394
43229SOL    HW231520   3.720  14.356  13.454
43230SOL     OW31521   0.265   2.486  13.316
43230SOL    HW131522   0.210   2.429  13.370
43230SOL    HW231523   0.290   2.433  13.241
43231SOL     OW31524   4.884   8.704  11.885
43231SOL    HW131525   4.843   8.786  11.909
43231SOL    HW231526   4.829   8.669  11.814
43232SOL     OW31527  14.291   9.665   0.680
43232SOL    HW131528  14.215   9.678   0.623
43232SOL    HW231529  14.286   9.572   0.705
43233SOL     OW31530  11.387   9.747  12.093
43233SOL    HW131531  11.436   9.680  12.139
43233SOL    HW231532  11.330   9.699  12.033
43234SOL     OW31533   5.174  10.691   9.372
43234SOL    HW131534   5.262  10.670   9.402
43234SOL    HW231535   5.165  10.645   9.288
43235SOL     OW31536   7.877   6.336  11.475
43235SOL    HW131537   7.958   6.356  11.428
43235SOL    HW231538   7.811   6.325  11.406
43236SOL     OW31539   7.919  11.525  12.318
43236SOL    HW131540   7.955  11.488  12.398
43236SOL    HW231541   7.889  11.612  12.343
43237SOL     OW31542   1.108   2.716   9.425
43237SOL    HW131543   1.061   2.795   9.450
43237SOL    HW231544   1.105   2.715   9.330
43238SOL     OW31545   8.095   0.927   2.053
43238SOL    HW131546   8.091   0.831   2.053
43238SOL    HW231547   8.003   0.955   2.056
43239SOL     OW31548   6.967   4.519  11.452
43239SOL    HW131549   7.000   4.554  11.369
43239SOL    HW231550   6.885   4.566  11.467
43240SOL     OW31551  10.452  12.885   9.125
43240SOL    HW131552  10.359  12.872   9.106
43240SOL    HW231553  10.479  12.803   9.165
43241SOL     OW31554   4.979   9.072   9.010
43241SOL    HW131555   4.973   9.127   9.088
43241SOL    HW231556   5.002   9.133   8.940
43242SOL     OW31557   2.360   7.700  13.735
43242SOL    HW131558   2.425   7.723  13.669
43242SOL    HW231559   2.382   7.611  13.760
43243SOL     OW31560   0.299  10.809  12.898
43243SOL    HW131561   0.325  10.738  12.840
43243SOL    HW231562   0.374  10.820  12.957
43244SOL     OW31563   7.467  13.624   5.272
43244SOL    HW131564   7.518  13.543   5.264
43244SOL    HW231565   7.499  13.664   5.353
43245SOL     OW31566   7.193  14.395   4.464
43245SOL    HW131567   7.120  14.424   4.518
43245SOL    HW231568   7.157  14.391   4.375
43246SOL     OW31569   2.745   1.999  12.849
43246SOL    HW131570   2.697   1.956  12.920
43246SOL    HW231571   2.707   2.086  12.843
43247SOL     OW31572  11.106   3.000  13.116
43247SOL    HW131573  11.108   3.094  13.136
43247SOL    HW231574  11.165   2.991  13.041
43248SOL     OW31575   8.177   8.932   2.574
43248SOL    HW131576   8.186   9.010   2.521
43248SOL    HW231577   8.257   8.882   2.558
43249SOL     OW31578   0.932   2.863   5.914
43249SOL    HW131579   1.001   2.861   5.848
43249SOL    HW231580   0.975   2.837   5.995
43250SOL     OW31581   3.256   3.122  11.344
43250SOL    HW131582   3.336   3.108  11.294
43250SOL    HW231583   3.280   3.100  11.434
43251SOL     OW31584   1.444   5.666   3.525
43251SOL    HW131585   1.449   5.680   3.431
43251SOL    HW231586   1.406   5.579   3.535
43252SOL     OW31587  12.357   1.176  11.411
43252SOL    HW131588  12.352   1.166  11.506
43252SOL    HW231589  12.298   1.248  11.391
43253SOL     OW31590  12.150   4.150   6.395
43253SOL    HW131591  12.175   4.058   6.387
43253SOL    HW231592  12.057   4.151   6.374
43254SOL     OW31593   1.093   5.471   7.217
43254SOL    HW131594   1.038   5.471   7.139
43254SOL    HW231595   1.170   5.419   7.193
43255SOL     OW31596  12.067  12.450  13.263
43255SOL    HW131597  12.072  12.356  13.246
43255SOL    HW231598  12.156  12.482  13.248
43256SOL     OW31599  13.280  13.935   4.814
43256SOL    HW131600  13.318  13.989   4.884
43256SOL    HW231601  13.280  13.846   4.850
43257SOL     OW31602  11.521  12.660   2.796
43257SOL    HW131603  11.462  12.586   2.808
43257SOL    HW231604  11.510  12.684   2.704
43258SOL     OW31605  10.656   9.486  10.039
43258SOL    HW131606  10.693   9.413  10.089
43258SOL    HW231607  10.563   9.465  10.032
43259SOL     OW31608  13.588   9.697  12.266
43259SOL    HW131609  13.626   9.707  12.353
43259SOL    HW231610  13.664   9.688  12.208
43260SOL     OW31611   1.843   4.679  14.588
43260SOL    HW131612   1.860   4.600  14.535
43260SOL    HW231613   1.754   4.668  14.620
43261SOL     OW31614   6.260   0.670   7.052
43261SOL    HW131615   6.305   0.629   7.126
43261SOL    HW231616   6.278   0.612   6.978
43262SOL     OW31617   2.111  11.000  13.248
43262SOL    HW131618   2.164  11.079  13.254
43262SOL    HW231619   2.021  11.032  13.248
43263SOL     OW31620   4.913  13.251  13.530
43263SOL    HW131621   4.943  13.166  13.562
43263SOL    HW231622   4.844  13.276  13.592
43264SOL     OW31623   4.551  11.437   0.313
43264SOL    HW131624   4.585  11.523   0.287
43264SOL    HW231625   4.478  11.457   0.372
43265SOL     OW31626   3.807  13.800  14.236
43265SOL    HW131627   3.755  13.880  14.244
43265SOL    HW231628   3.878  13.811  14.300
43266SOL     OW31629  13.621   1.534  14.055
43266SOL    HW131630  13.672   1.453  14.061
43266SOL    HW231631  13.681   1.602  14.085
43267SOL     OW31632   5.320  14.430   1.487
43267SOL    HW131633   5.252  14.375   1.525
43267SOL    HW231634   5.385  14.368   1.454
43268SOL     OW31635   0.851   8.142   2.282
43268SOL    HW131636   0.894   8.192   2.213
43268SOL    HW231637   0.887   8.054   2.275
43269SOL     OW31638   0.984  12.158  10.394
43269SOL    HW131639   1.005  12.249  10.373
43269SOL    HW231640   1.005  12.149  10.487
43270SOL     OW31641   8.546   2.615   0.200
43270SOL    HW131642   8.475   2.643   0.142
43270SOL    HW231643   8.626   2.645   0.156
43271SOL     OW31644  12.435   8.204   6.017
43271SOL    HW131645  12.441   8.111   5.996
43271SOL    HW231646  12.431   8.207   6.113
43272SOL     OW31647  12.181   1.950   9.395
43272SOL    HW131648  12.148   1.964   9.484
43272SOL    HW231649  12.102   1.940   9.342
43273SOL     OW31650   0.649  10.233   3.664
43273SOL    HW131651   0.743  10.239   3.648
43273SOL    HW231652   0.630  10.139   3.669
43274SOL     OW31653   1.295  14.784   1.609
43274SOL    HW131654   1.384  14.819   1.611
43274SOL    HW231655   1.262  14.807   1.523
43275SOL     OW31656  13.635   2.415  12.618
43275SOL    HW131657  13.637   2.323  12.645
43275SOL    HW231658  13.671   2.463  12.693
43276SOL     OW31659   9.034   8.518  13.720
43276SOL    HW131660   9.027   8.561  13.635
43276SOL    HW231661   9.086   8.579  13.773
43277SOL     OW31662   2.176   0.568   6.992
43277SOL    HW131663   2.192   0.587   7.085
43277SOL    HW231664   2.188   0.652   6.948
43278SOL     OW31665   4.269   5.056   3.668
43278SOL    HW131666   4.355   5.099   3.666
43278SOL    HW231667   4.285   4.976   3.719
43279SOL     OW31668   5.832  14.399  13.783
43279SOL    HW131669   5.767  14.376  13.849
43279SOL    HW231670   5.781  14.417  13.704
43280SOL     OW31671   4.515  14.496   6.591
43280SOL    HW131672   4.462  14.567   6.554
43280SOL    HW231673   4.591  14.541   6.629
43281SOL     OW31674   8.595   1.870  12.517
43281SOL    HW131675   8.563   1.780  12.519
43281SOL    HW231676   8.517   1.923  12.535
43282SOL     OW31677   6.365  13.726   5.522
43282SOL    HW131678   6.399  13.650   5.474
43282SOL    HW231679   6.312  13.774   5.458
43283SOL     OW31680   1.923   7.547  10.840
43283SOL    HW131681   1.948   7.500  10.760
43283SOL    HW231682   1.832   7.572  10.824
43284SOL     OW31683   1.470  12.370   2.902
43284SOL    HW131684   1.529  12.433   2.944
43284SOL    HW231685   1.447  12.309   2.973
43285SOL     OW31686  14.220  13.191   1.475
43285SOL    HW131687  14.129  13.217   1.461
43285SOL    HW231688  14.240  13.134   1.401
43286SOL     OW31689   5.977   4.860   3.307
43286SOL    HW131690   5.999   4.941   3.262
43286SOL    HW231691   5.940   4.804   3.239
43287SOL     OW31692   0.736   2.961  13.274
43287SOL    HW131693   0.676   2.966  13.348
43287SOL    HW231694   0.699   3.020  13.208
43288SOL     OW31695  14.044   2.009   4.589
43288SOL    HW131696  14.127   2.056   4.591
43288SOL    HW231697  14.014   2.017   4.498
43289SOL     OW31698   9.462   2.015   5.112
43289SOL    HW131699   9.475   1.935   5.163
43289SOL    HW231700   9.413   1.987   5.035
43290SOL     OW31701   5.399  10.427   1.922
43290SOL    HW131702   5.445  10.422   1.838
43290SOL    HW231703   5.456  10.380   1.983
43291SOL     OW31704   0.553   5.800   8.405
43291SOL    HW131705   0.512   5.714   8.410
43291SOL    HW231706   0.486   5.860   8.438
43292SOL     OW31707   1.868   9.774  12.535
43292SOL    HW131708   1.954   9.785  12.494
43292SOL    HW231709   1.808   9.759  12.462
43293SOL     OW31710   9.199   5.331   7.876
43293SOL    HW131711   9.293   5.346   7.882
43293SOL    HW231712   9.175   5.291   7.959
43294SOL     OW31713   0.390   9.303   8.595
43294SOL    HW131714   0.417   9.338   8.510
43294SOL    HW231715   0.344   9.222   8.574
43295SOL     OW31716   2.402   7.573   8.829
43295SOL    HW131717   2.332   7.513   8.804
43295SOL    HW231718   2.471   7.556   8.764
43296SOL     OW31719  10.422  10.760   1.513
43296SOL    HW131720  10.484  10.798   1.450
43296SOL    HW231721  10.374  10.836   1.548
43297SOL     OW31722   4.688  12.500   8.386
43297SOL    HW131723   4.652  12.499   8.298
43297SOL    HW231724   4.772  12.454   8.379
43298SOL     OW31725   5.042   2.512   1.213
43298SOL    HW131726   5.058   2.528   1.120
43298SOL    HW231727   5.113   2.559   1.257
43299SOL     OW31728   3.572   6.730   6.262
43299SOL    HW131729   3.484   6.763   6.245
43299SOL    HW231730   3.598   6.687   6.181
43300SOL     OW31731  13.193  10.701  14.208
43300SOL    HW131732  13.181  10.796  14.207
43300SOL    HW231733  13.154  10.673  14.291
43301SOL     OW31734   4.774   6.545   9.239
43301SOL    HW131735   4.841   6.599   9.280
43301SOL    HW231736   4.749   6.483   9.308
43302SOL     OW31737  12.388  11.493  10.148
43302SOL    HW131738  12.363  11.500  10.056
43302SOL    HW231739  12.481  11.516  10.148
43303SOL     OW31740   1.379  14.719  10.833
43303SOL    HW131741   1.371  14.723  10.929
43303SOL    HW231742   1.367  14.809  10.804
43304SOL     OW31743   2.270   8.998   4.342
43304SOL    HW131744   2.205   9.054   4.385
43304SOL    HW231745   2.346   9.000   4.401
43305SOL     OW31746  14.233  13.982   6.086
43305SOL    HW131747  14.235  13.947   5.997
43305SOL    HW231748  14.325  13.992   6.110
43306SOL     OW31749   1.285   9.655  11.913
43306SOL    HW131750   1.197   9.672  11.948
43306SOL    HW231751   1.313   9.574  11.955
43307SOL     OW31752   9.648   9.761  14.776
43307SOL    HW131753   9.578   9.817  14.743
43307SOL    HW231754   9.644   9.771  14.871
43308SOL     OW31755   5.200  14.359   7.149
43308SOL    HW131756   5.241  14.362   7.063
43308SOL    HW231757   5.186  14.450   7.173
43309SOL     OW31758  13.717   7.166  11.840
43309SOL    HW131759  13.738   7.126  11.924
43309SOL    HW231760  13.622   7.177  11.840
43310SOL     OW31761   1.150   9.642  10.951
43310SOL    HW131762   1.095   9.715  10.981
43310SOL    HW231763   1.110   9.615  10.868
43311SOL     OW31764  14.334  10.076   6.815
43311SOL    HW131765  14.263  10.057   6.876
43311SOL    HW231766  14.335  10.172   6.809
43312SOL     OW31767  10.105   0.720   9.609
43312SOL    HW131768  10.087   0.642   9.556
43312SOL    HW231769  10.093   0.690   9.699
43313SOL     OW31770   9.416   6.898  14.797
43313SOL    HW131771   9.491   6.851  14.761
43313SOL    HW231772   9.388   6.846  14.872
43314SOL     OW31773  12.518  13.058  10.345
43314SOL    HW131774  12.463  12.980  10.352
43314SOL    HW231775  12.466  13.119  10.293
43315SOL     OW31776   3.956   8.181   2.319
43315SOL    HW131777   3.919   8.145   2.238
43315SOL    HW231778   3.894   8.153   2.387
43316SOL     OW31779  10.374   0.593   7.337
43316SOL    HW131780  10.381   0.650   7.260
43316SOL    HW231781  10.291   0.546   7.324
43317SOL     OW31782  14.518   1.052   5.075
43317SOL    HW131783  14.562   0.973   5.045
43317SOL    HW231784  14.427   1.026   5.087
43318SOL     OW31785   8.423   8.081   0.948
43318SOL    HW131786   8.372   8.145   0.997
43318SOL    HW231787   8.458   8.022   1.014
43319SOL     OW31788   2.954   7.237   1.368
43319SOL    HW131789   2.863   7.263   1.383
43319SOL    HW231790   3.003   7.319   1.374
43320SOL     OW31791   2.219   8.122   4.444
43320SOL    HW131792   2.206   8.217   4.454
43320SOL    HW231793   2.309   8.107   4.475
43321SOL     OW31794  10.930  11.496  11.203
43321SOL    HW131795  10.854  11.461  11.249
43321SOL    HW231796  10.940  11.439  11.127
43322SOL     OW31797  10.119   7.023  10.270
43322SOL    HW131798  10.163   7.103  10.242
43322SOL    HW231799  10.172   6.991  10.343
43323SOL     OW31800   6.680   1.924  11.593
43323SOL    HW131801   6.726   1.957  11.670
43323SOL    HW231802   6.701   1.987  11.524
43324SOL     OW31803   2.285  10.725   6.199
43324SOL    HW131804   2.205  10.725   6.251
43324SOL    HW231805   2.305  10.817   6.185
43325SOL     OW31806   8.667   9.156   5.638
43325SOL    HW131807   8.597   9.222   5.637
43325SOL    HW231808   8.681   9.134   5.546
43326SOL     OW31809   1.164  13.329   4.412
43326SOL    HW131810   1.136  13.240   4.390
43326SOL    HW231811   1.240  13.346   4.356
43327SOL     OW31812   7.638  10.516  14.494
43327SOL    HW131813   7.585  10.567  14.432
43327SOL    HW231814   7.641  10.570  14.573
43328SOL     OW31815  11.969   0.664   5.721
43328SOL    HW131816  11.968   0.718   5.800
43328SOL    HW231817  11.913   0.711   5.659
43329SOL     OW31818   6.671   5.539   4.057
43329SOL    HW131819   6.702   5.503   3.974
43329SOL    HW231820   6.638   5.626   4.035
43330SOL     OW31821   0.332   1.466  13.683
43330SOL    HW131822   0.403   1.438  13.626
43330SOL    HW231823   0.323   1.560  13.666
43331SOL     OW31824   9.184  10.060   9.608
43331SOL    HW131825   9.214   9.972   9.585
43331SOL    HW231826   9.184  10.108   9.525
43332SOL     OW31827   5.432   4.870   9.765
43332SOL    HW131828   5.516   4.879   9.810
43332SOL    HW231829   5.374   4.932   9.810
43333SOL     OW31830  12.239  13.572   6.259
43333SOL    HW131831  12.296  13.558   6.335
43333SOL    HW231832  12.247  13.666   6.240
43334SOL     OW31833   4.254  11.176  14.271
43334SOL    HW131834   4.235  11.176  14.365
43334SOL    HW231835   4.225  11.090  14.241
43335SOL     OW31836  11.926  11.091  11.876
43335SOL    HW131837  11.995  11.061  11.816
43335SOL    HW231838  11.929  11.186  11.870
43336SOL     OW31839  11.626  12.705   4.117
43336SOL    HW131840  11.634  12.769   4.047
43336SOL    HW231841  11.715  12.676   4.135
43337SOL     OW31842  12.565   9.065   4.662
43337SOL    HW131843  12.604   9.061   4.575
43337SOL    HW231844  12.635   9.097   4.719
43338SOL     OW31845   9.249   4.735   0.645
43338SOL    HW131846   9.184   4.702   0.582
43338SOL    HW231847   9.287   4.655   0.683
43339SOL     OW31848   4.773   6.724   7.645
43339SOL    HW131849   4.839   6.789   7.622
43339SOL    HW231850   4.822   6.653   7.687
43340SOL     OW31851   5.979  10.368   1.085
43340SOL    HW131852   5.958  10.289   1.135
43340SOL    HW231853   5.925  10.436   1.125
43341SOL     OW31854   7.102  10.169   8.419
43341SOL    HW131855   7.182  10.203   8.378
43341SOL    HW231856   7.033  10.187   8.356
43342SOL     OW31857   9.896   9.366  11.035
43342SOL    HW131858   9.831   9.404  10.976
43342SOL    HW231859   9.949   9.440  11.063
43343SOL     OW31860  11.800  13.257  11.143
43343SOL    HW131861  11.796  13.223  11.232
43343SOL    HW231862  11.890  13.242  11.116
43344SOL     OW31863  12.955   5.222   8.309
43344SOL    HW131864  12.966   5.133   8.343
43344SOL    HW231865  12.940   5.211   8.215
43345SOL     OW31866   3.915  10.111   1.495
43345SOL    HW131867   3.827  10.094   1.460
43345SOL    HW231868   3.924  10.048   1.566
43346SOL     OW31869   9.675   5.132   8.207
43346SOL    HW131870   9.585   5.156   8.229
43346SOL    HW231871   9.713   5.212   8.171
43347SOL     OW31872   6.665   9.387   3.284
43347SOL    HW131873   6.645   9.413   3.374
43347SOL    HW231874   6.757   9.411   3.272
43348SOL     OW31875   8.516  12.957  12.130
43348SOL    HW131876   8.555  12.954  12.042
43348SOL    HW231877   8.575  13.013  12.180
43349SOL     OW31878  13.167   2.991   2.714
43349SOL    HW131879  13.114   3.064   2.681
43349SOL    HW231880  13.206   3.025   2.795
43350SOL     OW31881   9.755   8.613   9.116
43350SOL    HW131882   9.705   8.532   9.114
43350SOL    HW231883   9.690   8.682   9.129
43351SOL     OW31884   0.369   9.579   8.023
43351SOL    HW131885   0.377   9.632   8.103
43351SOL    HW231886   0.396   9.491   8.050
43352SOL     OW31887   4.994  14.862   7.333
43352SOL    HW131888   4.901  14.862   7.311
43352SOL    HW231889   4.997   0.009   7.424
43353SOL     OW31890   1.188   3.414   4.695
43353SOL    HW131891   1.128   3.414   4.621
43353SOL    HW231892   1.201   3.507   4.715
43354SOL     OW31893   5.570   5.434  10.540
43354SOL    HW131894   5.504   5.416  10.606
43354SOL    HW231895   5.628   5.358  10.543
43355SOL     OW31896  14.247  14.787   6.297
43355SOL    HW131897  14.329  14.838   6.298
43355SOL    HW231898  14.180  14.849   6.328
43356SOL     OW31899   7.501  11.897   2.222
43356SOL    HW131900   7.440  11.864   2.156
43356SOL    HW231901   7.502  11.992   2.209
43357SOL     OW31902   2.290   0.659   0.789
43357SOL    HW131903   2.317   0.739   0.744
43357SOL    HW231904   2.219   0.625   0.736
43358SOL     OW31905   5.353  11.827   3.942
43358SOL    HW131906   5.325  11.821   4.033
43358SOL    HW231907   5.376  11.920   3.930
43359SOL     OW31908   2.645  11.601  10.920
43359SOL    HW131909   2.626  11.689  10.885
43359SOL    HW231910   2.644  11.545  10.843
43360SOL     OW31911   4.851  11.270   4.436
43360SOL    HW131912   4.801  11.339   4.479
43360SOL    HW231913   4.837  11.286   4.342
43361SOL     OW31914   3.363   4.492   0.348
43361SOL    HW131915   3.270   4.497   0.370
43361SOL    HW231916   3.367   4.519   0.256
43362SOL     OW31917   9.034  11.741   9.602
43362SOL    HW131918   8.944  11.747   9.568
43362SOL    HW231919   9.039  11.653   9.640
43363SOL     OW31920   3.293   6.201   0.733
43363SOL    HW131921   3.379   6.238   0.755
43363SOL    HW231922   3.292   6.200   0.637
43364SOL     OW31923   7.951  14.721  12.402
43364SOL    HW131924   7.871  14.674  12.428
43364SOL    HW231925   8.001  14.656  12.352
43365SOL     OW31926   8.678   9.803   3.348
43365SOL    HW131927   8.697   9.731   3.409
43365SOL    HW231928   8.695   9.767   3.262
43366SOL     OW31929  13.401  14.413  11.344
43366SOL    HW131930  13.423  14.354  11.272
43366SOL    HW231931  13.441  14.497  11.319
43367SOL     OW31932  13.717   9.751  11.132
43367SOL    HW131933  13.632   9.719  11.161
43367SOL    HW231934  13.731   9.711  11.047
43368SOL     OW31935  13.576   4.750  12.192
43368SOL    HW131936  13.516   4.743  12.118
43368SOL    HW231937  13.652   4.698  12.166
43369SOL     OW31938  11.714   5.819   7.856
43369SOL    HW131939  11.653   5.746   7.843
43369SOL    HW231940  11.706   5.840   7.949
43370SOL     OW31941   9.453  11.968   2.357
43370SOL    HW131942   9.446  11.938   2.266
43370SOL    HW231943   9.363  11.970   2.388
43371SOL     OW31944   8.530   7.064  14.377
43371SOL    HW131945   8.517   7.125  14.304
43371SOL    HW231946   8.584   7.113  14.439
43372SOL     OW31947   5.868  14.830   7.790
43372SOL    HW131948   5.891  14.805   7.880
43372SOL    HW231949   5.845  14.748   7.747
43373SOL     OW31950   0.477   6.383   1.272
43373SOL    HW131951   0.499   6.469   1.307
43373SOL    HW231952   0.528   6.377   1.191
43374SOL     OW31953   9.964   4.947   3.234
43374SOL    HW131954  10.048   4.992   3.229
43374SOL    HW231955   9.905   5.000   3.181
43375SOL     OW31956   4.421  10.181  10.242
43375SOL    HW131957   4.418  10.135  10.326
43375SOL    HW231958   4.353  10.138  10.189
43376SOL     OW31959   1.051   0.034  10.607
43376SOL    HW131960   0.984   0.011  10.671
43376SOL    HW231961   1.010   0.020  10.522
43377SOL     OW31962   4.553   4.493  12.559
43377SOL    HW131963   4.637   4.480  12.516
43377SOL    HW231964   4.526   4.581  12.532
43378SOL     OW31965   6.051   8.894   8.456
43378SOL    HW131966   6.071   8.948   8.532
43378SOL    HW231967   6.129   8.841   8.443
43379SOL     OW31968   7.114   1.460   7.048
43379SOL    HW131969   7.128   1.424   7.136
43379SOL    HW231970   7.020   1.450   7.033
43380SOL     OW31971   9.658   0.858   1.937
43380SOL    HW131972   9.698   0.798   2.000
43380SOL    HW231973   9.592   0.906   1.987
43381SOL     OW31974   2.622   2.308  11.864
43381SOL    HW131975   2.708   2.296  11.904
43381SOL    HW231976   2.584   2.383  11.911
43382SOL     OW31977   6.602  11.238   2.632
43382SOL    HW131978   6.605  11.297   2.707
43382SOL    HW231979   6.630  11.153   2.667
43383SOL     OW31980  10.127   8.344  11.383
43383SOL    HW131981  10.102   8.262  11.424
43383SOL    HW231982  10.051   8.401  11.394
43384SOL     OW31983   7.547   1.526   2.286
43384SOL    HW131984   7.466   1.576   2.279
43384SOL    HW231985   7.558   1.485   2.200
43385SOL     OW31986  14.254  12.622   5.808
43385SOL    HW131987  14.216  12.672   5.880
43385SOL    HW231988  14.323  12.570   5.848
43386SOL     OW31989   8.203   7.151   5.703
43386SOL    HW131990   8.153   7.232   5.691
43386SOL    HW231991   8.161   7.108   5.777
43387SOL     OW31992  10.793   1.059   9.869
43387SOL    HW131993  10.771   1.147   9.840
43387SOL    HW231994  10.711   1.024   9.904
43388SOL     OW31995   3.341  10.974  12.189
43388SOL    HW131996   3.252  11.007  12.195
43388SOL    HW231997   3.342  10.896  12.245
43389SOL     OW31998   6.572   0.818  10.705
43389SOL    HW131999   6.490   0.858  10.674
43389SOL    HW232000   6.602   0.766  10.631
43390SOL     OW32001  11.030   0.648  11.407
43390SOL    HW132002  11.013   0.739  11.431
43390SOL    HW232003  10.990   0.597  11.477
43391SOL     OW32004   4.989  11.018   1.336
43391SOL    HW132005   4.907  10.976   1.363
43391SOL    HW232006   5.041  10.947   1.298
43392SOL     OW32007   8.082   4.441   1.812
43392SOL    HW132008   7.996   4.474   1.786
43392SOL    HW232009   8.106   4.494   1.888
43393SOL     OW32010   3.188  12.333   0.986
43393SOL    HW132011   3.108  12.285   0.963
43393SOL    HW232012   3.168  12.373   1.071
43394SOL     OW32013  12.152   1.606  13.492
43394SOL    HW132014  12.173   1.569  13.407
43394SOL    HW232015  12.142   1.700  13.476
43395SOL     OW32016   4.256   7.331   2.288
43395SOL    HW132017   4.239   7.295   2.375
43395SOL    HW232018   4.302   7.413   2.303
43396SOL     OW32019   4.569  14.652   1.718
43396SOL    HW132020   4.532  14.645   1.806
43396SOL    HW232021   4.546  14.740   1.689
43397SOL     OW32022  11.749   6.402  10.464
43397SOL    HW132023  11.824   6.353  10.498
43397SOL    HW232024  11.773   6.494  10.473
43398SOL     OW32025   4.260   7.124   6.930
43398SOL    HW132026   4.281   7.032   6.944
43398SOL    HW232027   4.294   7.169   7.007
43399SOL     OW32028  12.605   4.674  12.246
43399SOL    HW132029  12.664   4.736  12.289
43399SOL    HW232030  12.587   4.608  12.313
43400SOL     OW32031  11.193   1.429   0.965
43400SOL    HW132032  11.198   1.432   1.061
43400SOL    HW232033  11.238   1.347   0.942
43401SOL     OW32034   5.087  10.174   1.409
43401SOL    HW132035   5.124  10.246   1.461
43401SOL    HW232036   5.013  10.142   1.460
43402SOL     OW32037  12.078   1.307  11.363
43402SOL    HW132038  12.014   1.377  11.380
43402SOL    HW232039  12.037   1.229  11.400
43403SOL     OW32040  11.787   9.591   8.033
43403SOL    HW132041  11.865   9.646   8.029
43403SOL    HW232042  11.814   9.508   7.994
43404SOL     OW32043  13.348   4.996  10.419
43404SOL    HW132044  13.319   5.086  10.406
43404SOL    HW232045  13.267   4.946  10.426
43405SOL     OW32046   0.873  13.613  13.382
43405SOL    HW132047   0.910  13.603  13.469
43405SOL    HW232048   0.844  13.525  13.357
43406SOL     OW32049  13.084  11.250   3.076
43406SOL    HW132050  13.140  11.199   3.134
43406SOL    HW232051  13.034  11.307   3.135
43407SOL     OW32052   4.738   6.965   0.559
43407SOL    HW132053   4.691   7.015   0.626
43407SOL    HW232054   4.802   7.027   0.523
43408SOL     OW32055  10.121  10.026   6.194
43408SOL    HW132056  10.043  10.067   6.232
43408SOL    HW232057  10.194  10.075   6.231
43409SOL     OW32058  14.483   9.403   6.352
43409SOL    HW132059  14.574   9.375   6.339
43409SOL    HW232060  14.466   9.463   6.279
43410SOL     OW32061   2.381   9.041   9.856
43410SOL    HW132062   2.469   9.072   9.834
43410SOL    HW232063   2.323   9.115   9.836
43411SOL     OW32064   7.731  14.225  12.624
43411SOL    HW132065   7.804  14.255  12.570
43411SOL    HW232066   7.679  14.304  12.640
43412SOL     OW32067   8.127   7.554   2.837
43412SOL    HW132068   8.104   7.473   2.884
43412SOL    HW232069   8.062   7.618   2.866
43413SOL     OW32070   6.611   4.418   1.365
43413SOL    HW132071   6.623   4.341   1.421
43413SOL    HW232072   6.571   4.483   1.422
43414SOL     OW32073  14.702   1.889  10.902
43414SOL    HW132074  14.779   1.850  10.943
43414SOL    HW232075  14.679   1.828  10.832
43415SOL     OW32076  13.068   7.199   1.860
43415SOL    HW132077  13.033   7.216   1.948
43415SOL    HW232078  13.115   7.116   1.870
43416SOL     OW32079   3.736   1.569   2.065
43416SOL    HW132080   3.661   1.590   2.120
43416SOL    HW232081   3.710   1.491   2.016
43417SOL     OW32082   9.822   5.745  14.495
43417SOL    HW132083   9.900   5.706  14.535
43417SOL    HW232084   9.838   5.739  14.401
43418SOL     OW32085  10.843   0.706  11.754
43418SOL    HW132086  10.762   0.738  11.716
43418SOL    HW232087  10.900   0.783  11.758
43419SOL     OW32088   1.939   3.899   8.960
43419SOL    HW132089   1.875   3.848   8.911
43419SOL    HW232090   2.023   3.861   8.936
43420SOL     OW32091  11.399   4.505   6.803
43420SOL    HW132092  11.457   4.484   6.729
43420SOL    HW232093  11.335   4.566   6.766
43421SOL     OW32094   7.477   0.490  13.960
43421SOL    HW132095   7.548   0.463  14.019
43421SOL    HW232096   7.424   0.550  14.012
43422SOL     OW32097   1.427   7.520  12.281
43422SOL    HW132098   1.488   7.568  12.224
43422SOL    HW232099   1.401   7.444  12.228
43423SOL     OW32100   3.194   2.276  14.722
43423SOL    HW132101   3.200   2.320  14.806
43423SOL    HW232102   3.142   2.335  14.667
43424SOL     OW32103   2.989  10.117  12.726
43424SOL    HW132104   3.073  10.112  12.680
43424SOL    HW232105   2.938  10.044  12.691
43425SOL     OW32106   1.116  10.244  10.686
43425SOL    HW132107   1.088  10.311  10.748
43425SOL    HW232108   1.108  10.286  10.600
43426SOL     OW32109  13.472   8.685  12.931
43426SOL    HW132110  13.500   8.639  13.010
43426SOL    HW232111  13.432   8.765  12.963
43427SOL     OW32112   9.129   2.170   2.153
43427SOL    HW132113   9.108   2.257   2.118
43427SOL    HW232114   9.169   2.124   2.080
43428SOL     OW32115   6.645  13.336  14.258
43428SOL    HW132116   6.610  13.409  14.309
43428SOL    HW232117   6.740  13.341  14.270
43429SOL     OW32118   0.565  11.636   0.738
43429SOL    HW132119   0.597  11.551   0.766
43429SOL    HW232120   0.609  11.699   0.795
43430SOL     OW32121   8.061  11.914  11.509
43430SOL    HW132122   8.065  11.893  11.416
43430SOL    HW232123   8.136  11.972  11.524
43431SOL     OW32124   7.556   1.253   4.923
43431SOL    HW132125   7.552   1.250   5.018
43431SOL    HW232126   7.547   1.162   4.895
43432SOL     OW32127  13.324   6.381   6.189
43432SOL    HW132128  13.354   6.385   6.099
43432SOL    HW232129  13.390   6.329   6.235
43433SOL     OW32130   7.951   1.887   5.740
43433SOL    HW132131   7.905   1.957   5.786
43433SOL    HW232132   7.988   1.928   5.663
43434SOL     OW32133  12.443  11.551   9.857
43434SOL    HW132134  12.464  11.632   9.810
43434SOL    HW232135  12.483  11.482   9.804
43435SOL     OW32136   2.951   2.711   2.287
43435SOL    HW132137   2.968   2.674   2.200
43435SOL    HW232138   2.867   2.674   2.313
43436SOL     OW32139   5.016  11.759   2.814
43436SOL    HW132140   5.034  11.776   2.721
43436SOL    HW232141   5.019  11.663   2.821
43437SOL     OW32142  14.492  13.323   3.415
43437SOL    HW132143  14.573  13.298   3.370
43437SOL    HW232144  14.437  13.245   3.411
43438SOL     OW32145  13.763   8.292   5.808
43438SOL    HW132146  13.840   8.241   5.831
43438SOL    HW232147  13.761   8.363   5.871
43439SOL     OW32148  11.226   5.352  11.624
43439SOL    HW132149  11.159   5.372  11.558
43439SOL    HW232150  11.177   5.308  11.693
43440SOL     OW32151   4.666  13.894  10.245
43440SOL    HW132152   4.648  13.938  10.328
43440SOL    HW232153   4.719  13.957  10.195
43441SOL     OW32154  11.548   5.319  12.870
43441SOL    HW132155  11.606   5.393  12.885
43441SOL    HW232156  11.530   5.321  12.776
43442SOL     OW32157   9.984   2.675  11.054
43442SOL    HW132158  10.003   2.747  10.993
43442SOL    HW232159   9.939   2.717  11.127
43443SOL     OW32160  13.363   6.309   9.005
43443SOL    HW132161  13.439   6.366   9.013
43443SOL    HW232162  13.400   6.225   8.975
43444SOL     OW32163   7.267   1.478   3.989
43444SOL    HW132164   7.283   1.529   3.909
43444SOL    HW232165   7.207   1.532   4.040
43445SOL     OW32166   1.645   1.271   4.799
43445SOL    HW132167   1.612   1.254   4.711
43445SOL    HW232168   1.739   1.251   4.794
43446SOL     OW32169   9.022  12.888   3.147
43446SOL    HW132170   8.996  12.958   3.087
43446SOL    HW232171   9.112  12.868   3.124
43447SOL     OW32172   9.687  11.357  12.164
43447SOL    HW132173   9.657  11.361  12.073
43447SOL    HW232174   9.640  11.283  12.201
43448SOL     OW32175   7.155   6.296   8.524
43448SOL    HW132176   7.138   6.273   8.433
43448SOL    HW232177   7.248   6.315   8.528
43449SOL     OW32178   2.902   8.540  12.085
43449SOL    HW132179   2.903   8.633  12.107
43449SOL    HW232180   2.888   8.538  11.990
43450SOL     OW32181   2.475  10.945   2.734
43450SOL    HW132182   2.567  10.941   2.762
43450SOL    HW232183   2.438  10.860   2.758
43451SOL     OW32184   3.677   1.345   6.962
43451SOL    HW132185   3.719   1.421   6.922
43451SOL    HW232186   3.631   1.303   6.890
43452SOL     OW32187  12.909  10.942   0.597
43452SOL    HW132188  12.910  10.861   0.546
43452SOL    HW232189  12.995  10.982   0.581
43453SOL     OW32190   9.815   2.815   0.068
43453SOL    HW132191   9.858   2.762   0.136
43453SOL    HW232192   9.748   2.864   0.116
43454SOL     OW32193  11.752   3.955   9.248
43454SOL    HW132194  11.771   3.979   9.157
43454SOL    HW232195  11.835   3.922   9.282
43455SOL     OW32196   7.983  14.351   5.523
43455SOL    HW132197   8.061  14.403   5.505
43455SOL    HW232198   7.923  14.412   5.566
43456SOL     OW32199  12.697  11.935  13.265
43456SOL    HW132200  12.662  12.023  13.278
43456SOL    HW232201  12.717  11.931  13.171
43457SOL     OW32202   9.762   4.462   2.573
43457SOL    HW132203   9.708   4.533   2.541
43457SOL    HW232204   9.730   4.384   2.528
43458SOL     OW32205   5.861   6.078   2.904
43458SOL    HW132206   5.827   6.005   2.955
43458SOL    HW232207   5.889   6.142   2.969
43459SOL     OW32208  14.757  14.403   0.478
43459SOL    HW132209  14.822  14.453   0.528
43459SOL    HW232210  14.705  14.357   0.544
43460SOL     OW32211   7.969  10.777   6.396
43460SOL    HW132212   7.991  10.870   6.403
43460SOL    HW232213   7.989  10.754   6.306
43461SOL     OW32214   4.568  10.377  11.370
43461SOL    HW132215   4.576  10.310  11.437
43461SOL    HW232216   4.593  10.333  11.289
43462SOL     OW32217   3.237  12.757   5.943
43462SOL    HW132218   3.216  12.814   6.017
43462SOL    HW232219   3.154  12.712   5.924
43463SOL     OW32220  10.412  13.357   4.899
43463SOL    HW132221  10.437  13.319   4.814
43463SOL    HW232222  10.330  13.314   4.921
43464SOL     OW32223   5.444   8.159  10.075
43464SOL    HW132224   5.417   8.244  10.109
43464SOL    HW232225   5.504   8.125  10.141
43465SOL     OW32226  10.304   9.296  10.524
43465SOL    HW132227  10.329   9.283  10.615
43465SOL    HW232228  10.302   9.391  10.513
43466SOL     OW32229   0.116   8.469  14.398
43466SOL    HW132230   0.108   8.471  14.302
43466SOL    HW232231   0.072   8.389  14.424
43467SOL     OW32232  13.976   3.333   9.264
43467SOL    HW132233  14.069   3.314   9.255
43467SOL    HW232234  13.935   3.290   9.188
43468SOL     OW32235   1.466   1.915   8.985
43468SOL    HW132236   1.554   1.951   8.988
43468SOL    HW232237   1.408   1.992   8.986
43469SOL     OW32238   3.743   8.322  10.080
43469SOL    HW132239   3.687   8.245  10.095
43469SOL    HW232240   3.832   8.286  10.077
43470SOL     OW32241   3.925   0.526   0.220
43470SOL    HW132242   3.930   0.495   0.311
43470SOL    HW232243   4.016   0.536   0.193
43471SOL     OW32244  11.937   1.445  12.930
43471SOL    HW132245  11.923   1.382  13.001
43471SOL    HW232246  12.010   1.409  12.879
43472SOL     OW32247   6.036  13.755   1.400
43472SOL    HW132248   6.043  13.723   1.310
43472SOL    HW232249   5.976  13.829   1.394
43473SOL     OW32250  12.124   6.129   7.075
43473SOL    HW132251  12.192   6.190   7.102
43473SOL    HW232252  12.068   6.179   7.016
43474SOL     OW32253   0.645   9.630   0.637
43474SOL    HW132254   0.660   9.715   0.679
43474SOL    HW232255   0.638   9.568   0.710
43475SOL     OW32256  14.407  10.461  10.210
43475SOL    HW132257  14.495  10.490  10.186
43475SOL    HW232258  14.350  10.496  10.142
43476SOL     OW32259   7.354   7.872   9.919
43476SOL    HW132260   7.365   7.815   9.995
43476SOL    HW232261   7.264   7.856   9.890
43477SOL     OW32262  11.073   9.808  11.370
43477SOL    HW132263  11.062   9.896  11.407
43477SOL    HW232264  11.129   9.821  11.293
43478SOL     OW32265  11.783  13.205   1.985
43478SOL    HW132266  11.702  13.179   1.941
43478SOL    HW232267  11.784  13.300   1.980
43479SOL     OW32268  14.413   8.229  14.517
43479SOL    HW132269  14.357   8.298  14.553
43479SOL    HW232270  14.358   8.184  14.453
43480SOL     OW32271   6.677   4.749   1.511
43480SOL    HW132272   6.739   4.821   1.503
43480SOL    HW232273   6.611   4.765   1.444
43481SOL     OW32274   3.084  14.847  10.404
43481SOL    HW132275   3.077  14.752  10.398
43481SOL    HW232276   3.038  14.869  10.485
43482SOL     OW32277  14.711   6.948  14.515
43482SOL    HW132278  14.759   6.933  14.433
43482SOL    HW232279  14.756   7.021  14.557
43483SOL     OW32280   6.436  14.746   8.629
43483SOL    HW132281   6.381  14.737   8.551
43483SOL    HW232282   6.375  14.736   8.702
43484SOL     OW32283   2.983   5.173   9.470
43484SOL    HW132284   2.965   5.240   9.403
43484SOL    HW232285   2.909   5.180   9.530
43485SOL     OW32286  11.766   0.279   5.451
43485SOL    HW132287  11.686   0.313   5.492
43485SOL    HW232288  11.832   0.284   5.519
43486SOL     OW32289   7.909  12.008   8.531
43486SOL    HW132290   8.004  12.021   8.538
43486SOL    HW232291   7.873  12.095   8.517
43487SOL     OW32292  10.217   1.375   4.320
43487SOL    HW132293  10.146   1.438   4.331
43487SOL    HW232294  10.174   1.295   4.288
43488SOL     OW32295   0.435  12.413   5.272
43488SOL    HW132296   0.474  12.334   5.234
43488SOL    HW232297   0.477  12.485   5.226
43489SOL     OW32298   6.813   3.993  11.369
43489SOL    HW132299   6.771   3.959  11.290
43489SOL    HW232300   6.745   3.990  11.436
43490SOL     OW32301   0.871  13.362  12.026
43490SOL    HW132302   0.819  13.409  11.961
43490SOL    HW232303   0.918  13.296  11.975
43491SOL     OW32304   4.953   2.890  11.642
43491SOL    HW132305   5.032   2.849  11.608
43491SOL    HW232306   4.911   2.821  11.694
43492SOL     OW32307   9.755  12.390   6.693
43492SOL    HW132308   9.727  12.310   6.736
43492SOL    HW232309   9.678  12.447   6.695
43493SOL     OW32310   7.109  13.641   0.262
43493SOL    HW132311   7.125  13.731   0.291
43493SOL    HW232312   7.047  13.650   0.189
43494SOL     OW32313   4.737   4.363   0.098
43494SOL    HW132314   4.676   4.433   0.119
43494SOL    HW232315   4.689   4.306   0.037
43495SOL     OW32316  13.710   7.883  13.161
43495SOL    HW132317  13.777   7.910  13.098
43495SOL    HW232318  13.679   7.798  13.128
43496SOL     OW32319   5.597   1.761   5.705
43496SOL    HW132320   5.576   1.844   5.661
43496SOL    HW232321   5.526   1.748   5.767
43497SOL     OW32322  13.149   7.737   0.385
43497SOL    HW132323  13.118   7.682   0.456
43497SOL    HW232324  13.082   7.805   0.376
43498SOL     OW32325   6.331  14.491  12.637
43498SOL    HW132326   6.353  14.428  12.569
43498SOL    HW232327   6.292  14.438  12.707
43499SOL     OW32328   7.885   0.692   8.311
43499SOL    HW132329   7.798   0.674   8.275
43499SOL    HW232330   7.933   0.731   8.238
43500SOL     OW32331  10.228   0.750   1.447
43500SOL    HW132332  10.208   0.752   1.541
43500SOL    HW232333  10.181   0.674   1.414
43501SOL     OW32334   9.224   5.563  11.870
43501SOL    HW132335   9.236   5.587  11.962
43501SOL    HW232336   9.313   5.563  11.833
43502SOL     OW32337   3.283   1.259  13.352
43502SOL    HW132338   3.353   1.196  13.368
43502SOL    HW232339   3.235   1.263  13.434
43503SOL     OW32340   6.845   7.640   0.063
43503SOL    HW132341   6.871   7.669   0.151
43503SOL    HW232342   6.850   7.544   0.068
43504SOL     OW32343  12.564   3.380  14.053
43504SOL    HW132344  12.574   3.428  13.971
43504SOL    HW232345  12.480   3.410  14.088
43505SOL     OW32346   2.282  12.422   0.274
43505SOL    HW132347   2.301  12.422   0.368
43505SOL    HW232348   2.312  12.336   0.244
43506SOL     OW32349  14.529   9.047  13.430
43506SOL    HW132350  14.578   9.112  13.481
43506SOL    HW232351  14.591   9.018  13.363
43507SOL     OW32352  12.804  14.050   7.246
43507SOL    HW132353  12.761  14.110   7.307
43507SOL    HW232354  12.734  14.025   7.185
43508SOL     OW32355   5.524  10.576   8.042
43508SOL    HW132356   5.613  10.543   8.041
43508SOL    HW232357   5.469  10.499   8.056
43509SOL     OW32358   0.209   6.788   1.676
43509SOL    HW132359   0.256   6.768   1.757
43509SOL    HW232360   0.124   6.746   1.686
43510SOL     OW32361   7.696   9.106   8.798
43510SOL    HW132362   7.735   9.188   8.829
43510SOL    HW232363   7.690   9.051   8.876
43511SOL     OW32364   2.219   0.052   0.616
43511SOL    HW132365   2.134   0.062   0.659
43511SOL    HW232366   2.201   0.069   0.523
43512SOL     OW32367  12.041   6.212   8.292
43512SOL    HW132368  12.102   6.284   8.280
43512SOL    HW232369  11.957   6.254   8.310
43513SOL     OW32370   5.322   0.189   0.143
43513SOL    HW132371   5.259   0.228   0.083
43513SOL    HW232372   5.347   0.260   0.202
43514SOL     OW32373   1.404  13.577  11.654
43514SOL    HW132374   1.500  13.585  11.653
43514SOL    HW232375   1.376  13.617  11.572
43515SOL     OW32376   5.839  14.662  13.977
43515SOL    HW132377   5.871  14.745  13.944
43515SOL    HW232378   5.903  14.598  13.948
43516SOL     OW32379  14.538  11.541   0.480
43516SOL    HW132380  14.553  11.508   0.392
43516SOL    HW232381  14.569  11.632   0.478
43517SOL     OW32382   3.510  14.830  10.152
43517SOL    HW132383   3.595  14.858  10.187
43517SOL    HW232384   3.511  14.860  10.061
43518SOL     OW32385   3.767   7.009   7.730
43518SOL    HW132386   3.773   7.025   7.635
43518SOL    HW232387   3.743   6.916   7.737
43519SOL     OW32388   6.748   5.997  12.697
43519SOL    HW132389   6.834   6.020  12.662
43519SOL    HW232390   6.686   6.023  12.628
43520SOL     OW32391   8.505   8.290   9.790
43520SOL    HW132392   8.439   8.344   9.833
43520SOL    HW232393   8.588   8.333   9.810
43521SOL     OW32394   7.408   7.287   6.053
43521SOL    HW132395   7.358   7.232   5.993
43521SOL    HW232396   7.498   7.254   6.046
43522SOL     OW32397  12.665   3.138   1.354
43522SOL    HW132398  12.760   3.138   1.353
43522SOL    HW232399  12.640   3.114   1.265
43523SOL     OW32400  12.955   5.391   0.909
43523SOL    HW132401  13.033   5.443   0.889
43523SOL    HW232402  12.884   5.432   0.859
43524SOL     OW32403  11.031   4.739   4.108
43524SOL    HW132404  10.948   4.700   4.079
43524SOL    HW232405  11.075   4.763   4.026
43525SOL     OW32406   7.588   1.463  12.027
43525SOL    HW132407   7.528   1.439  12.097
43525SOL    HW232408   7.675   1.441  12.061
43526SOL     OW32409  13.816   3.952   5.003
43526SOL    HW132410  13.880   3.882   5.018
43526SOL    HW232411  13.850   4.026   5.053
43527SOL     OW32412   2.683  13.592  13.194
43527SOL    HW132413   2.727  13.561  13.273
43527SOL    HW232414   2.711  13.532  13.125
43528SOL     OW32415  14.150   4.023   5.298
43528SOL    HW132416  14.184   4.096   5.350
43528SOL    HW232417  14.213   3.952   5.311
43529SOL     OW32418  12.547   1.436  11.578
43529SOL    HW132419  12.618   1.379  11.549
43529SOL    HW232420  12.491   1.378  11.630
43530SOL     OW32421  14.239  12.500   0.706
43530SOL    HW132422  14.247  12.574   0.647
43530SOL    HW232423  14.233  12.424   0.648
43531SOL     OW32424   9.724  13.472  13.732
43531SOL    HW132425   9.809  13.511  13.754
43531SOL    HW232426   9.746  13.388  13.692
43532SOL     OW32427  10.407   4.597   3.291
43532SOL    HW132428  10.358   4.674   3.262
43532SOL    HW232429  10.387   4.589   3.384
43533SOL     OW32430   0.355  13.912   4.897
43533SOL    HW132431   0.307  13.966   4.834
43533SOL    HW232432   0.436  13.960   4.912
43534SOL     OW32433   8.954   2.578   8.256
43534SOL    HW132434   8.879   2.520   8.267
43534SOL    HW232435   8.959   2.625   8.340
43535SOL     OW32436   4.961  10.120   2.837
43535SOL    HW132437   4.916  10.054   2.784
43535SOL    HW232438   4.932  10.204   2.801
43536SOL     OW32439   8.839  11.423   2.281
43536SOL    HW132440   8.783  11.449   2.354
43536SOL    HW232441   8.847  11.328   2.290
43537SOL     OW32442   5.543  13.204  11.255
43537SOL    HW132443   5.513  13.134  11.313
43537SOL    HW232444   5.533  13.168  11.167
43538SOL     OW32445   8.247   7.143   4.305
43538SOL    HW132446   8.241   7.111   4.215
43538SOL    HW232447   8.337   7.124   4.332
43539SOL     OW32448   4.443   8.956  11.294
43539SOL    HW132449   4.383   9.006  11.239
43539SOL    HW232450   4.491   9.023  11.344
43540SOL     OW32451  10.496  12.079   3.702
43540SOL    HW132452  10.547  12.126   3.768
43540SOL    HW232453  10.541  11.995   3.694
43541SOL     OW32454   2.740  14.231   4.508
43541SOL    HW132455   2.777  14.240   4.420
43541SOL    HW232456   2.704  14.317   4.528
43542SOL     OW32457  14.691  14.418   5.670
43542SOL    HW132458  14.668  14.483   5.604
43542SOL    HW232459  14.635  14.439   5.745
43543SOL     OW32460   7.500   1.871  12.133
43543SOL    HW132461   7.556   1.844  12.206
43543SOL    HW232462   7.506   1.798  12.071
43544SOL     OW32463   5.149   1.527  14.774
43544SOL    HW132464   5.099   1.602  14.805
43544SOL    HW232465   5.097   1.492  14.702
43545SOL     OW32466   1.061   4.930  11.015
43545SOL    HW132467   1.014   5.007  10.981
43545SOL    HW232468   1.043   4.861  10.951
43546SOL     OW32469   9.007  12.993   9.872
43546SOL    HW132470   9.081  13.046   9.843
43546SOL    HW232471   9.037  12.903   9.863
43547SOL     OW32472   8.470  12.054  10.405
43547SOL    HW132473   8.424  12.135  10.425
43547SOL    HW232474   8.427  11.988  10.458
43548SOL     OW32475   4.595   4.269   9.383
43548SOL    HW132476   4.583   4.183   9.423
43548SOL    HW232477   4.508   4.310   9.386
43549SOL     OW32478   3.190   2.534  11.384
43549SOL    HW132479   3.225   2.606  11.436
43549SOL    HW232480   3.159   2.471  11.449
43550SOL     OW32481   3.560  10.663  10.235
43550SOL    HW132482   3.519  10.581  10.206
43550SOL    HW232483   3.621  10.637  10.303
43551SOL     OW32484   1.523   8.844  14.217
43551SOL    HW132485   1.557   8.828  14.129
43551SOL    HW232486   1.430   8.825  14.211
43552SOL     OW32487   6.762  11.019   2.666
43552SOL    HW132488   6.696  10.950   2.659
43552SOL    HW232489   6.844  10.973   2.683
43553SOL     OW32490  11.815   7.735   3.515
43553SOL    HW132491  11.749   7.695   3.459
43553SOL    HW232492  11.810   7.687   3.598
43554SOL     OW32493   3.104   8.718  13.870
43554SOL    HW132494   3.105   8.721  13.965
43554SOL    HW232495   3.141   8.632  13.848
43555SOL     OW32496   8.594  13.900   6.933
43555SOL    HW132497   8.646  13.980   6.928
43555SOL    HW232498   8.571  13.892   7.026
43556SOL     OW32499  11.494   8.106   5.604
43556SOL    HW132500  11.499   8.168   5.532
43556SOL    HW232501  11.556   8.138   5.669
43557SOL     OW32502   6.189   0.612   4.144
43557SOL    HW132503   6.161   0.526   4.111
43557SOL    HW232504   6.248   0.645   4.076
43558SOL     OW32505   2.767  11.587  12.683
43558SOL    HW132506   2.695  11.564  12.743
43558SOL    HW232507   2.800  11.671  12.717
43559SOL     OW32508   4.663  14.816   2.913
43559SOL    HW132509   4.622  14.856   2.836
43559SOL    HW232510   4.731  14.759   2.877
43560SOL     OW32511   6.503   2.592   6.290
43560SOL    HW132512   6.552   2.562   6.366
43560SOL    HW232513   6.426   2.536   6.288
43561SOL     OW32514  11.298   3.784   6.698
43561SOL    HW132515  11.315   3.692   6.718
43561SOL    HW232516  11.217   3.804   6.745
43562SOL     OW32517   3.060  13.885  12.310
43562SOL    HW132518   3.015  13.802  12.327
43562SOL    HW232519   3.102  13.907  12.393
43563SOL     OW32520  14.145   7.416   3.104
43563SOL    HW132521  14.132   7.339   3.160
43563SOL    HW232522  14.221   7.394   3.050
43564SOL     OW32523  10.425  14.053  12.136
43564SOL    HW132524  10.455  13.963  12.125
43564SOL    HW232525  10.427  14.090  12.047
43565SOL     OW32526   5.305   9.389  13.202
43565SOL    HW132527   5.234   9.340  13.161
43565SOL    HW232528   5.362   9.322  13.240
43566SOL     OW32529   2.354  12.407   4.250
43566SOL    HW132530   2.275  12.429   4.201
43566SOL    HW232531   2.425  12.448   4.200
43567SOL     OW32532  13.136  10.877   0.182
43567SOL    HW132533  13.163  10.926   0.104
43567SOL    HW232534  13.041  10.870   0.175
43568SOL     OW32535   2.914   1.488  10.759
43568SOL    HW132536   2.843   1.542  10.722
43568SOL    HW232537   2.953   1.446  10.682
43569SOL     OW32538   2.408   6.958   7.221
43569SOL    HW132539   2.399   6.865   7.199
43569SOL    HW232540   2.356   6.969   7.300
43570SOL     OW32541   3.931   0.806   1.627
43570SOL    HW132542   3.900   0.784   1.715
43570SOL    HW232543   3.865   0.867   1.593
43571SOL     OW32544   7.392  13.634  13.929
43571SOL    HW132545   7.368  13.709  13.875
43571SOL    HW232546   7.325  13.569  13.911
43572SOL     OW32547   1.961   8.284   2.967
43572SOL    HW132548   1.899   8.211   2.971
43572SOL    HW232549   2.009   8.271   2.885
43573SOL     OW32550  10.162   6.302   3.237
43573SOL    HW132551  10.150   6.383   3.285
43573SOL    HW232552  10.255   6.279   3.249
43574SOL     OW32553   2.003   9.253  11.845
43574SOL    HW132554   2.015   9.228  11.937
43574SOL    HW232555   2.082   9.301  11.823
43575SOL     OW32556  10.060   6.844   3.092
43575SOL    HW132557   9.985   6.898   3.068
43575SOL    HW232558  10.031   6.754   3.076
43576SOL     OW32559   7.075  13.420   1.077
43576SOL    HW132560   7.070  13.326   1.092
43576SOL    HW232561   6.985  13.446   1.058
43577SOL     OW32562   7.655   7.688   4.745
43577SOL    HW132563   7.655   7.610   4.800
43577SOL    HW232564   7.685   7.759   4.802
43578SOL     OW32565   2.991   1.705   3.510
43578SOL    HW132566   3.059   1.643   3.536
43578SOL    HW232567   3.018   1.736   3.423
43579SOL     OW32568  10.283   8.255  13.425
43579SOL    HW132569  10.201   8.212  13.402
43579SOL    HW232570  10.256   8.336  13.469
43580SOL     OW32571   9.971  11.734   6.579
43580SOL    HW132572   9.898  11.731   6.642
43580SOL    HW232573   9.955  11.659   6.521
43581SOL     OW32574   1.189   6.864   3.205
43581SOL    HW132575   1.207   6.924   3.133
43581SOL    HW232576   1.204   6.917   3.284
43582SOL     OW32577   0.450   4.491   1.395
43582SOL    HW132578   0.466   4.515   1.304
43582SOL    HW232579   0.355   4.481   1.401
43583SOL     OW32580   0.041   8.683  12.646
43583SOL    HW132581   0.054   8.656  12.555
43583SOL    HW232582   0.081   8.613  12.698
43584SOL     OW32583   2.894   7.714   7.456
43584SOL    HW132584   2.967   7.748   7.404
43584SOL    HW232585   2.819   7.766   7.430
43585SOL     OW32586  12.969  13.694   8.474
43585SOL    HW132587  12.999  13.690   8.383
43585SOL    HW232588  13.009  13.774   8.509
43586SOL     OW32589  14.791   0.675  10.193
43586SOL    HW132590  14.807   0.706  10.282
43586SOL    HW232591  14.697   0.659  10.190
43587SOL     OW32592  12.872   7.678   1.852
43587SOL    HW132593  12.881   7.656   1.759
43587SOL    HW232594  12.785   7.646   1.875
43588SOL     OW32595   3.340   2.438   5.614
43588SOL    HW132596   3.270   2.381   5.582
43588SOL    HW232597   3.315   2.526   5.585
43589SOL     OW32598  13.490  12.529  10.325
43589SOL    HW132599  13.500  12.439  10.355
43589SOL    HW232600  13.424  12.567  10.384
43590SOL     OW32601   5.003   7.111   1.954
43590SOL    HW132602   5.090   7.070   1.958
43590SOL    HW232603   4.946   7.042   1.920
43591SOL     OW32604   8.001  11.808   5.958
43591SOL    HW132605   7.989  11.719   5.989
43591SOL    HW232606   8.072  11.802   5.894
43592SOL     OW32607   2.878   6.277   7.419
43592SOL    HW132608   2.887   6.183   7.408
43592SOL    HW232609   2.795   6.299   7.377
43593SOL     OW32610   7.344   9.357   4.044
43593SOL    HW132611   7.418   9.370   3.984
43593SOL    HW232612   7.315   9.446   4.065
43594SOL     OW32613  12.786  11.981  14.243
43594SOL    HW132614  12.850  11.947  14.305
43594SOL    HW232615  12.701  11.958  14.280
43595SOL     OW32616   5.457   7.941   8.607
43595SOL    HW132617   5.392   7.871   8.604
43595SOL    HW232618   5.408   8.018   8.636
43596SOL     OW32619   3.914   7.305   9.746
43596SOL    HW132620   3.976   7.377   9.754
43596SOL    HW232621   3.882   7.290   9.835
43597SOL     OW32622  11.268  12.129  11.732
43597SOL    HW132623  11.206  12.102  11.664
43597SOL    HW232624  11.264  12.059  11.798
43598SOL     OW32625  12.115   8.459   9.795
43598SOL    HW132626  12.141   8.368   9.787
43598SOL    HW232627  12.147   8.500   9.715
43599SOL     OW32628   7.874   9.839   9.256
43599SOL    HW132629   7.930   9.861   9.331
43599SOL    HW232630   7.885   9.912   9.196
43600SOL     OW32631   9.625   9.394  14.384
43600SOL    HW132632   9.647   9.482  14.353
43600SOL    HW232633   9.708   9.356  14.411
43601SOL     OW32634  13.828   0.001   6.331
43601SOL    HW132635  13.849  14.810   6.273
43601SOL    HW232636  13.913   0.043   6.348
43602SOL     OW32637  10.657   6.837   9.375
43602SOL    HW132638  10.740   6.863   9.335
43602SOL    HW232639  10.637   6.908   9.436
43603SOL     OW32640   2.627   6.433  12.498
43603SOL    HW132641   2.638   6.343  12.470
43603SOL    HW232642   2.533   6.450  12.490
43604SOL     OW32643   5.123  11.399   2.835
43604SOL    HW132644   5.041  11.414   2.883
43604SOL    HW232645   5.095  11.384   2.745
43605SOL     OW32646   6.032   5.659   7.757
43605SOL    HW132647   6.068   5.575   7.726
43605SOL    HW232648   6.103   5.699   7.807
43606SOL     OW32649   3.972   7.626   5.501
43606SOL    HW132650   4.062   7.607   5.527
43606SOL    HW232651   3.971   7.616   5.406
43607SOL     OW32652   0.250   4.038   5.313
43607SOL    HW132653   0.303   3.966   5.346
43607SOL    HW232654   0.166   4.028   5.357
43608SOL     OW32655   2.541  12.492   1.129
43608SOL    HW132656   2.625  12.484   1.082
43608SOL    HW232657   2.506  12.404   1.130
43609SOL     OW32658   4.941  11.470  14.144
43609SOL    HW132659   5.018  11.419  14.167
43609SOL    HW232660   4.956  11.499  14.054
43610SOL     OW32661  11.872   9.470   4.358
43610SOL    HW132662  11.833   9.489   4.444
43610SOL    HW232663  11.951   9.419   4.379
43611SOL     OW32664  11.231   7.743  14.161
43611SOL    HW132665  11.304   7.777  14.109
43611SOL    HW232666  11.272   7.703  14.237
43612SOL     OW32667   0.718   8.775   3.375
43612SOL    HW132668   0.650   8.837   3.350
43612SOL    HW232669   0.800   8.820   3.355
43613SOL     OW32670   9.899  10.260   0.481
43613SOL    HW132671   9.846  10.191   0.443
43613SOL    HW232672   9.839  10.309   0.537
43614SOL     OW32673  10.117  12.021   1.772
43614SOL    HW132674  10.117  12.086   1.701
43614SOL    HW232675  10.138  12.072   1.851
43615SOL     OW32676  14.191   5.205   3.091
43615SOL    HW132677  14.238   5.165   3.018
43615SOL    HW232678  14.180   5.297   3.065
43616SOL     OW32679   3.076   0.310   3.057
43616SOL    HW132680   2.993   0.307   3.010
43616SOL    HW232681   3.095   0.404   3.066
43617SOL     OW32682   9.135   0.186   0.070
43617SOL    HW132683   9.078   0.262   0.079
43617SOL    HW232684   9.217   0.222   0.034
43618SOL     OW32685   8.552  14.547   2.268
43618SOL    HW132686   8.513  14.462   2.285
43618SOL    HW232687   8.624  14.529   2.208
43619SOL     OW32688  12.351  10.425   2.416
43619SOL    HW132689  12.391  10.338   2.409
43619SOL    HW232690  12.343  10.455   2.325
43620SOL     OW32691  11.577  11.487   0.125
43620SOL    HW132692  11.579  11.569   0.075
43620SOL    HW232693  11.596  11.514   0.215
43621SOL     OW32694  10.973   6.440   4.085
43621SOL    HW132695  11.058   6.430   4.042
43621SOL    HW232696  10.993   6.446   4.178
43622SOL     OW32697  13.430  13.941   2.956
43622SOL    HW132698  13.372  13.881   3.003
43622SOL    HW232699  13.489  13.883   2.907
43623SOL     OW32700   6.699   8.040  10.407
43623SOL    HW132701   6.635   7.992  10.460
43623SOL    HW232702   6.693   8.002  10.320
43624SOL     OW32703   7.298  13.421  11.521
43624SOL    HW132704   7.276  13.345  11.575
43624SOL    HW232705   7.347  13.479  11.580
43625SOL     OW32706   9.036   1.966   4.638
43625SOL    HW132707   8.950   1.932   4.612
43625SOL    HW232708   9.098   1.908   4.595
43626SOL     OW32709   2.011  12.252   3.278
43626SOL    HW132710   2.017  12.172   3.226
43626SOL    HW232711   1.993  12.222   3.366
43627SOL     OW32712   5.741   3.883  13.478
43627SOL    HW132713   5.731   3.950  13.546
43627SOL    HW232714   5.770   3.932  13.401
43628SOL     OW32715   2.694   0.129  14.860
43628SOL    HW132716   2.630   0.200  14.864
43628SOL    HW232717   2.755   0.156  14.791
43629SOL     OW32718  14.626  12.063   9.224
43629SOL    HW132719  14.656  12.015   9.147
43629SOL    HW232720  14.626  11.999   9.294
43630SOL     OW32721  12.787   6.224   7.602
43630SOL    HW132722  12.695   6.208   7.627
43630SOL    HW232723  12.782   6.255   7.512
43631SOL     OW32724  11.891  12.994  13.956
43631SOL    HW132725  11.945  12.916  13.945
43631SOL    HW232726  11.870  13.021  13.867
43632SOL     OW32727  11.044  12.753  10.134
43632SOL    HW132728  10.981  12.824  10.124
43632SOL    HW232729  11.105  12.783  10.201
43633SOL     OW32730  13.092   1.208   6.390
43633SOL    HW132731  13.026   1.196   6.322
43633SOL    HW232732  13.053   1.170   6.469
43634SOL     OW32733   7.594   6.400  13.669
43634SOL    HW132734   7.605   6.326  13.729
43634SOL    HW232735   7.604   6.477  13.725
43635SOL     OW32736   3.853   7.074   1.468
43635SOL    HW132737   3.933   7.023   1.481
43635SOL    HW232738   3.796   7.047   1.540
43636SOL     OW32739   2.946   7.251  11.863
43636SOL    HW132740   2.910   7.163  11.873
43636SOL    HW232741   3.013   7.243  11.796
43637SOL     OW32742   9.278   0.890  13.832
43637SOL    HW132743   9.190   0.851  13.826
43637SOL    HW232744   9.261   0.983  13.848
43638SOL     OW32745  12.087  10.937   2.419
43638SOL    HW132746  12.043  10.851   2.424
43638SOL    HW232747  12.177  10.920   2.447
43639SOL     OW32748   4.250   7.524  10.593
43639SOL    HW132749   4.228   7.464  10.664
43639SOL    HW232750   4.314   7.584  10.631
43640SOL     OW32751   7.927  14.199  10.336
43640SOL    HW132752   7.974  14.120  10.364
43640SOL    HW232753   7.848  14.200  10.391
43641SOL     OW32754  10.078   9.223   3.021
43641SOL    HW132755  10.083   9.315   2.995
43641SOL    HW232756  10.136   9.178   2.960
43642SOL     OW32757  14.350   9.671   4.974
43642SOL    HW132758  14.443   9.659   4.953
43642SOL    HW232759  14.320   9.584   5.000
43643SOL     OW32760  13.545   4.794   1.076
43643SOL    HW132761  13.550   4.752   0.990
43643SOL    HW232762  13.466   4.758   1.116
43644SOL     OW32763   7.986  11.524   9.939
43644SOL    HW132764   7.996  11.438   9.980
43644SOL    HW232765   8.032  11.516   9.855
43645SOL     OW32766  10.797   0.142   5.804
43645SOL    HW132767  10.706   0.118   5.822
43645SOL    HW232768  10.823   0.193   5.881
43646SOL     OW32769   4.299   5.537   1.788
43646SOL    HW132770   4.333   5.455   1.754
43646SOL    HW232771   4.351   5.554   1.867
43647SOL     OW32772  13.431  13.500   3.260
43647SOL    HW132773  13.347  13.474   3.223
43647SOL    HW232774  13.464  13.421   3.303
43648SOL     OW32775   2.895   1.318  13.139
43648SOL    HW132776   2.861   1.264  13.068
43648SOL    HW232777   2.930   1.256  13.203
43649SOL     OW32778   6.088  11.857   9.736
43649SOL    HW132779   6.037  11.778   9.756
43649SOL    HW232780   6.025  11.929   9.745
43650SOL     OW32781   1.490   0.697   0.453
43650SOL    HW132782   1.502   0.716   0.361
43650SOL    HW232783   1.539   0.765   0.499
43651SOL     OW32784   6.263  12.264  13.163
43651SOL    HW132785   6.254  12.169  13.174
43651SOL    HW232786   6.247  12.278  13.069
43652SOL     OW32787  10.863   1.148   7.649
43652SOL    HW132788  10.830   1.206   7.719
43652SOL    HW232789  10.900   1.208   7.584
43653SOL     OW32790   1.197   7.217   3.358
43653SOL    HW132791   1.258   7.269   3.307
43653SOL    HW232792   1.246   7.139   3.383
43654SOL     OW32793  12.379  13.663  11.059
43654SOL    HW132794  12.289  13.653  11.090
43654SOL    HW232795  12.410  13.743  11.102
43655SOL     OW32796  11.027  12.366   4.161
43655SOL    HW132797  11.035  12.271   4.173
43655SOL    HW232798  10.932  12.381   4.154
43656SOL     OW32799   1.790   1.188   3.124
43656SOL    HW132800   1.792   1.169   3.031
43656SOL    HW232801   1.741   1.270   3.131
43657SOL     OW32802   2.698   8.258  12.771
43657SOL    HW132803   2.733   8.338  12.731
43657SOL    HW232804   2.775   8.205  12.791
43658SOL     OW32805   8.001  11.275  10.905
43658SOL    HW132806   7.911  11.287  10.873
43658SOL    HW232807   8.053  11.333  10.850
43659SOL     OW32808   3.744   4.700   7.388
43659SOL    HW132809   3.740   4.765   7.458
43659SOL    HW232810   3.682   4.731   7.322
43660SOL     OW32811  13.057   7.085   7.800
43660SOL    HW132812  13.003   7.142   7.745
43660SOL    HW232813  13.080   7.012   7.742
43661SOL     OW32814  11.282   5.960   0.597
43661SOL    HW132815  11.238   5.997   0.521
43661SOL    HW232816  11.325   6.035   0.639
43662SOL     OW32817  11.764   6.693  10.164
43662SOL    HW132818  11.732   6.748  10.093
43662SOL    HW232819  11.858   6.708  10.167
43663SOL     OW32820   3.098   5.724   5.227
43663SOL    HW132821   3.045   5.647   5.207
43663SOL    HW232822   3.125   5.758   5.142
43664SOL     OW32823   5.677   4.570   4.228
43664SOL    HW132824   5.761   4.616   4.220
43664SOL    HW232825   5.640   4.572   4.139
43665SOL     OW32826  12.839   6.734   1.365
43665SOL    HW132827  12.806   6.819   1.395
43665SOL    HW232828  12.887   6.754   1.285
43666SOL     OW32829   2.989  12.731   2.419
43666SOL    HW132830   3.000  12.696   2.331
43666SOL    HW232831   3.076  12.722   2.459
43667SOL     OW32832   5.080  10.459   6.212
43667SOL    HW132833   5.009  10.414   6.258
43667SOL    HW232834   5.036  10.532   6.167
43668SOL     OW32835  14.591   9.133  14.129
43668SOL    HW132836  14.568   9.199  14.194
43668SOL    HW232837  14.683   9.113  14.147
43669SOL     OW32838   6.404   7.060   8.552
43669SOL    HW132839   6.364   7.025   8.473
43669SOL    HW232840   6.389   7.155   8.547
43670SOL     OW32841   9.663  13.600   0.589
43670SOL    HW132842   9.755  13.580   0.570
43670SOL    HW232843   9.626  13.517   0.619
43671SOL     OW32844   5.043  11.171  10.034
43671SOL    HW132845   5.050  11.181  10.129
43671SOL    HW232846   5.014  11.080  10.022
43672SOL     OW32847  11.562   7.659  13.597
43672SOL    HW132848  11.566   7.606  13.677
43672SOL    HW232849  11.617   7.612  13.535
43673SOL     OW32850   5.451   1.448   7.850
43673SOL    HW132851   5.453   1.544   7.854
43673SOL    HW232852   5.539   1.421   7.877
43674SOL     OW32853   9.808   5.112  12.735
43674SOL    HW132854   9.786   5.204  12.743
43674SOL    HW232855   9.854   5.105  12.651
43675SOL     OW32856   8.184   7.722   2.231
43675SOL    HW132857   8.274   7.754   2.225
43675SOL    HW232858   8.172   7.699   2.323
43676SOL     OW32859   9.295  12.111   3.229
43676SOL    HW132860   9.321  12.200   3.204
43676SOL    HW232861   9.200  12.113   3.230
43677SOL     OW32862   8.056   1.356   2.571
43677SOL    HW132863   7.986   1.418   2.593
43677SOL    HW232864   8.011   1.274   2.553
43678SOL     OW32865   4.753  12.273  10.496
43678SOL    HW132866   4.718  12.288  10.584
43678SOL    HW232867   4.809  12.196  10.506
43679SOL     OW32868   6.904   3.171   4.446
43679SOL    HW132869   6.947   3.256   4.446
43679SOL    HW232870   6.810   3.192   4.443
43680SOL     OW32871   6.113   3.036   2.680
43680SOL    HW132872   6.030   3.004   2.715
43680SOL    HW232873   6.177   3.020   2.750
43681SOL     OW32874  12.010   3.691   7.020
43681SOL    HW132875  11.974   3.731   7.098
43681SOL    HW232876  11.938   3.639   6.984
43682SOL     OW32877   1.684  11.907  12.189
43682SOL    HW132878   1.762  11.924  12.137
43682SOL    HW232879   1.713  11.849  12.259
43683SOL     OW32880   4.087  14.523   8.250
43683SOL    HW132881   4.002  14.491   8.281
43683SOL    HW232882   4.152  14.466   8.291
43684SOL     OW32883  12.782  11.137  12.399
43684SOL    HW132884  12.806  11.045  12.409
43684SOL    HW232885  12.770  11.169  12.488
43685SOL     OW32886   9.376  14.386   2.813
43685SOL    HW132887   9.393  14.464   2.865
43685SOL    HW232888   9.284  14.365   2.831
43686SOL     OW32889  11.119   3.395   6.538
43686SOL    HW132890  11.190   3.376   6.600
43686SOL    HW232891  11.052   3.330   6.558
43687SOL     OW32892  14.769   3.813  10.384
43687SOL    HW132893  14.744   3.879  10.320
43687SOL    HW232894  14.700   3.747  10.379
43688SOL     OW32895   4.080   7.214   8.186
43688SOL    HW132896   4.105   7.251   8.270
43688SOL    HW232897   4.135   7.260   8.122
43689SOL     OW32898  12.552  12.225  12.057
43689SOL    HW132899  12.612  12.234  11.983
43689SOL    HW232900  12.515  12.312  12.069
43690SOL     OW32901   7.772   9.265  11.718
43690SOL    HW132902   7.854   9.231  11.754
43690SOL    HW232903   7.712   9.191  11.720
43691SOL     OW32904   0.836   9.095  10.154
43691SOL    HW132905   0.868   9.080  10.065
43691SOL    HW232906   0.792   9.180  10.150
43692SOL     OW32907   0.901   4.135  10.341
43692SOL    HW132908   0.879   4.216  10.388
43692SOL    HW232909   0.948   4.082  10.405
43693SOL     OW32910  13.250  14.426   1.026
43693SOL    HW132911  13.224  14.518   1.027
43693SOL    HW232912  13.270  14.407   0.935
43694SOL     OW32913  11.565   1.100  13.652
43694SOL    HW132914  11.556   1.174  13.712
43694SOL    HW232915  11.543   1.023  13.705
43695SOL     OW32916   8.895   3.508   5.022
43695SOL    HW132917   8.977   3.557   5.035
43695SOL    HW232918   8.905   3.468   4.935
43696SOL     OW32919   5.606   4.030   7.434
43696SOL    HW132920   5.586   4.114   7.393
43696SOL    HW232921   5.695   4.011   7.405
43697SOL     OW32922   4.098  13.394   2.004
43697SOL    HW132923   4.029  13.342   1.963
43697SOL    HW232924   4.073  13.399   2.096
43698SOL     OW32925  12.386   5.241   7.848
43698SOL    HW132926  12.305   5.209   7.807
43698SOL    HW232927  12.409   5.320   7.798
43699SOL     OW32928   1.923   8.398   6.133
43699SOL    HW132929   1.939   8.350   6.215
43699SOL    HW232930   1.845   8.356   6.096
43700SOL     OW32931  13.117   2.247   6.128
43700SOL    HW132932  13.170   2.314   6.171
43700SOL    HW232933  13.035   2.291   6.107
43701SOL     OW32934   5.137   5.728  13.407
43701SOL    HW132935   5.065   5.789  13.426
43701SOL    HW232936   5.174   5.761  13.325
43702SOL     OW32937  10.994   8.415   4.368
43702SOL    HW132938  10.937   8.492   4.374
43702SOL    HW232939  10.949   8.348   4.419
43703SOL     OW32940  14.222  10.603  10.032
43703SOL    HW132941  14.257  10.687  10.003
43703SOL    HW232942  14.229  10.546   9.956
43704SOL     OW32943  11.684   2.690  13.793
43704SOL    HW132944  11.745   2.670  13.723
43704SOL    HW232945  11.734   2.676  13.874
43705SOL     OW32946   8.391   6.942  13.725
43705SOL    HW132947   8.445   7.009  13.683
43705SOL    HW232948   8.423   6.860  13.689
43706SOL     OW32949   7.890   7.264   9.842
43706SOL    HW132950   7.976   7.236   9.811
43706SOL    HW232951   7.854   7.187   9.886
43707SOL     OW32952   4.061   8.198   0.547
43707SOL    HW132953   3.981   8.146   0.539
43707SOL    HW232954   4.042   8.261   0.616
43708SOL     OW32955   9.489   0.092  10.674
43708SOL    HW132956   9.409   0.121  10.631
43708SOL    HW232957   9.556   0.152  10.643
43709SOL     OW32958   3.830   3.916  11.058
43709SOL    HW132959   3.790   3.844  11.010
43709SOL    HW232960   3.906   3.941  11.005
43710SOL     OW32961   0.862   6.246  10.520
43710SOL    HW132962   0.797   6.293  10.467
43710SOL    HW232963   0.871   6.299  10.599
43711SOL     OW32964   6.361   3.789   4.991
43711SOL    HW132965   6.329   3.836   4.914
43711SOL    HW232966   6.395   3.857   5.048
43712SOL     OW32967   8.706   4.155   0.340
43712SOL    HW132968   8.646   4.085   0.366
43712SOL    HW232969   8.790   4.111   0.328
43713SOL     OW32970   7.498   7.394   9.690
43713SOL    HW132971   7.508   7.439   9.774
43713SOL    HW232972   7.408   7.412   9.664
43714SOL     OW32973   0.852   7.082   6.458
43714SOL    HW132974   0.871   7.069   6.551
43714SOL    HW232975   0.895   7.009   6.414
43715SOL     OW32976  14.246   3.128   7.981
43715SOL    HW132977  14.247   3.107   7.887
43715SOL    HW232978  14.323   3.085   8.016
43716SOL     OW32979   4.941  12.268  14.815
43716SOL    HW132980   4.901  12.212  14.748
43716SOL    HW232981   4.999  12.209  14.863
43717SOL     OW32982   7.119  13.138   1.113
43717SOL    HW132983   7.067  13.098   1.043
43717SOL    HW232984   7.058  13.143   1.187
43718SOL     OW32985   5.581   8.105   3.645
43718SOL    HW132986   5.647   8.055   3.693
43718SOL    HW232987   5.536   8.157   3.712
43719SOL     OW32988   1.907  11.357   2.664
43719SOL    HW132989   1.909  11.374   2.570
43719SOL    HW232990   1.996  11.377   2.694
43720SOL     OW32991   2.097  12.686  12.722
43720SOL    HW132992   2.055  12.611  12.765
43720SOL    HW232993   2.077  12.674  12.629
43721SOL     OW32994   7.757   8.194   5.745
43721SOL    HW132995   7.789   8.167   5.659
43721SOL    HW232996   7.665   8.169   5.745
43722SOL     OW32997   9.458  10.267  10.143
43722SOL    HW132998   9.394  10.263  10.214
43722SOL    HW232999   9.496  10.354  10.150
43723SOL     OW33000   4.725   7.330   0.626
43723SOL    HW133001   4.790   7.373   0.571
43723SOL    HW233002   4.774   7.262   0.673
43724SOL     OW33003  12.899   1.875  11.520
43724SOL    HW133004  12.953   1.850  11.445
43724SOL    HW233005  12.918   1.808  11.586
43725SOL     OW33006  11.502   6.606  11.273
43725SOL    HW133007  11.558   6.571  11.343
43725SOL    HW233008  11.515   6.700  11.277
43726SOL     OW33009   5.171   5.191  10.591
43726SOL    HW133010   5.250   5.187  10.645
43726SOL    HW233011   5.194   5.249  10.519
43727SOL     OW33012   0.786  11.701   6.117
43727SOL    HW133013   0.791  11.605   6.117
43727SOL    HW233014   0.700  11.719   6.157
43728SOL     OW33015   1.350   0.646   2.729
43728SOL    HW133016   1.335   0.565   2.778
43728SOL    HW233017   1.340   0.716   2.794
43729SOL     OW33018   3.311   9.986   8.264
43729SOL    HW133019   3.306  10.079   8.242
43729SOL    HW233020   3.362   9.948   8.192
43730SOL     OW33021  13.409  14.198  14.393
43730SOL    HW133022  13.466  14.255  14.445
43730SOL    HW233023  13.325  14.243  14.391
43731SOL     OW33024   6.596   3.682   2.857
43731SOL    HW133025   6.672   3.686   2.800
43731SOL    HW233026   6.597   3.764   2.906
43732SOL     OW33027  10.004  13.016   6.102
43732SOL    HW133028  10.010  13.108   6.075
43732SOL    HW233029  10.011  13.018   6.197
43733SOL     OW33030   2.400   3.581  14.849
43733SOL    HW133031   2.494   3.598  14.861
43733SOL    HW233032   2.368   3.561   0.056
43734SOL     OW33033   9.143  11.102   3.577
43734SOL    HW133034   9.110  11.072   3.662
43734SOL    HW233035   9.196  11.180   3.598
43735SOL     OW33036   7.654  14.807   0.418
43735SOL    HW133037   7.633  14.715   0.407
43735SOL    HW233038   7.748  14.808   0.438
43736SOL     OW33039   5.269   1.733   2.952
43736SOL    HW133040   5.235   1.760   3.038
43736SOL    HW233041   5.334   1.667   2.971
43737SOL     OW33042   0.636  13.842  10.866
43737SOL    HW133043   0.604  13.781  10.932
43737SOL    HW233044   0.558  13.871  10.820
43738SOL     OW33045  12.922   7.704  14.637
43738SOL    HW133046  12.988   7.731  14.701
43738SOL    HW233047  12.842   7.748  14.665
43739SOL     OW33048  12.025   1.657   9.346
43739SOL    HW133049  11.944   1.606   9.344
43739SOL    HW233050  12.006   1.731   9.403
43740SOL     OW33051   5.736  12.887  11.179
43740SOL    HW133052   5.766  12.971  11.214
43740SOL    HW233053   5.705  12.907  11.091
43741SOL     OW33054   5.335   1.113  12.439
43741SOL    HW133055   5.284   1.186  12.476
43741SOL    HW233056   5.418   1.153  12.414
43742SOL     OW33057   7.770   4.575   6.307
43742SOL    HW133058   7.800   4.666   6.295
43742SOL    HW233059   7.784   4.558   6.400
43743SOL     OW33060   0.229   2.219   3.389
43743SOL    HW133061   0.243   2.153   3.457
43743SOL    HW233062   0.145   2.197   3.350
43744SOL     OW33063   1.315   0.119   3.928
43744SOL    HW133064   1.264   0.087   3.853
43744SOL    HW233065   1.369   0.189   3.892
43745SOL     OW33066   7.734   0.328   3.086
43745SOL    HW133067   7.704   0.388   3.017
43745SOL    HW233068   7.732   0.381   3.166
43746SOL     OW33069  11.857   6.239   0.041
43746SOL    HW133070  11.871   6.150   0.075
43746SOL    HW233071  11.765   6.258   0.063
43747SOL     OW33072   3.623  10.429   3.871
43747SOL    HW133073   3.572  10.382   3.937
43747SOL    HW233074   3.687  10.479   3.921
43748SOL     OW33075   4.771   4.379  10.000
43748SOL    HW133076   4.841   4.314   9.995
43748SOL    HW233077   4.796   4.446   9.937
43749SOL     OW33078   4.557   1.288   9.235
43749SOL    HW133079   4.576   1.289   9.141
43749SOL    HW233080   4.531   1.378   9.255
43750SOL     OW33081   3.318   1.591   8.621
43750SOL    HW133082   3.367   1.669   8.644
43750SOL    HW233083   3.226   1.617   8.627
43751SOL     OW33084   3.701   7.732   4.009
43751SOL    HW133085   3.608   7.716   3.989
43751SOL    HW233086   3.734   7.781   3.933
43752SOL     OW33087   6.854   3.375   1.146
43752SOL    HW133088   6.822   3.394   1.058
43752SOL    HW233089   6.777   3.384   1.202
43753SOL     OW33090  12.841   1.956  14.247
43753SOL    HW133091  12.865   1.898  14.319
43753SOL    HW233092  12.920   1.960  14.192
43754SOL     OW33093   3.519   0.440   0.847
43754SOL    HW133094   3.578   0.412   0.918
43754SOL    HW233095   3.527   0.535   0.847
43755SOL     OW33096   3.101   3.302   3.311
43755SOL    HW133097   3.105   3.237   3.241
43755SOL    HW233098   3.014   3.290   3.350
43756SOL     OW33099   8.098   4.391   5.606
43756SOL    HW133100   8.108   4.298   5.629
43756SOL    HW233101   8.038   4.390   5.531
43757SOL     OW33102  11.028   8.989  12.901
43757SOL    HW133103  11.068   8.928  12.963
43757SOL    HW233104  11.045   9.076  12.938
43758SOL     OW33105   5.142   0.948   8.862
43758SOL    HW133106   5.134   0.935   8.957
43758SOL    HW233107   5.084   1.022   8.843
43759SOL     OW33108   3.649  14.450   1.544
43759SOL    HW133109   3.631  14.543   1.559
43759SOL    HW233110   3.688  14.419   1.626
43760SOL     OW33111   2.182   3.952   9.649
43760SOL    HW133112   2.102   3.957   9.596
43760SOL    HW233113   2.151   3.934   9.738
43761SOL     OW33114   5.534   2.912   6.034
43761SOL    HW133115   5.468   2.981   6.027
43761SOL    HW233116   5.537   2.873   5.947
43762SOL     OW33117   5.880  11.011   8.136
43762SOL    HW133118   5.866  10.927   8.179
43762SOL    HW233119   5.795  11.055   8.143
43763SOL     OW33120  13.520   5.649   8.305
43763SOL    HW133121  13.539   5.743   8.310
43763SOL    HW233122  13.594   5.613   8.256
43764SOL     OW33123  12.196  12.856  14.280
43764SOL    HW133124  12.284  12.886  14.255
43764SOL    HW233125  12.156  12.829  14.198
43765SOL     OW33126  13.550  14.861   4.156
43765SOL    HW133127  13.630   0.024   4.183
43765SOL    HW233128  13.554  14.859   4.060
43766SOL     OW33129   4.242   1.107   8.316
43766SOL    HW133130   4.253   1.125   8.223
43766SOL    HW233131   4.330   1.083   8.346
43767SOL     OW33132   0.258   9.433   4.973
43767SOL    HW133133   0.290   9.490   5.044
43767SOL    HW233134   0.241   9.493   4.900
43768SOL     OW33135   0.367  13.063   9.560
43768SOL    HW133136   0.429  13.127   9.526
43768SOL    HW233137   0.417  13.010   9.621
43769SOL     OW33138   3.121   2.534  12.316
43769SOL    HW133139   3.067   2.455  12.324
43769SOL    HW233140   3.173   2.535  12.397
43770SOL     OW33141   2.313  14.583  14.150
43770SOL    HW133142   2.298  14.502  14.101
43770SOL    HW233143   2.404  14.575  14.180
43771SOL     OW33144  10.458  13.483  14.400
43771SOL    HW133145  10.472  13.575  14.377
43771SOL    HW233146  10.506  13.434  14.334
43772SOL     OW33147   2.267  14.418   1.427
43772SOL    HW133148   2.299  14.329   1.440
43772SOL    HW233149   2.277  14.434   1.334
43773SOL     OW33150   3.381   5.466  12.332
43773SOL    HW133151   3.383   5.527  12.406
43773SOL    HW233152   3.393   5.522  12.255
43774SOL     OW33153   5.459   8.792   3.862
43774SOL    HW133154   5.460   8.853   3.788
43774SOL    HW233155   5.530   8.822   3.919
43775SOL     OW33156   9.203   6.155  10.694
43775SOL    HW133157   9.230   6.242  10.665
43775SOL    HW233158   9.125   6.135  10.643
43776SOL     OW33159  10.246   5.695   5.284
43776SOL    HW133160  10.250   5.783   5.245
43776SOL    HW233161  10.326   5.652   5.254
43777SOL     OW33162   6.470   0.973  14.381
43777SOL    HW133163   6.503   1.039  14.442
43777SOL    HW233164   6.535   0.902  14.385
43778SOL     OW33165   3.531   3.612  10.796
43778SOL    HW133166   3.558   3.697  10.760
43778SOL    HW233167   3.519   3.556  10.719
43779SOL     OW33168   4.374   3.771   7.204
43779SOL    HW133169   4.351   3.766   7.112
43779SOL    HW233170   4.470   3.766   7.205
43780SOL     OW33171   3.846   0.202   6.543
43780SOL    HW133172   3.753   0.211   6.520
43780SOL    HW233173   3.868   0.111   6.523
43781SOL     OW33174   5.543   4.831   7.898
43781SOL    HW133175   5.461   4.846   7.945
43781SOL    HW233176   5.524   4.757   7.840
43782SOL     OW33177  12.111   6.261   6.583
43782SOL    HW133178  12.104   6.181   6.635
43782SOL    HW233179  12.199   6.294   6.602
43783SOL     OW33180   3.732  11.018  14.542
43783SOL    HW133181   3.810  11.020  14.486
43783SOL    HW233182   3.761  11.055  14.625
43784SOL     OW33183   8.869   0.138   9.792
43784SOL    HW133184   8.837   0.226   9.811
43784SOL    HW233185   8.835   0.119   9.704
43785SOL     OW33186   9.287   3.919   9.475
43785SOL    HW133187   9.258   3.862   9.404
43785SOL    HW233188   9.206   3.944   9.520
43786SOL     OW33189   1.799  12.329   2.211
43786SOL    HW133190   1.809  12.288   2.297
43786SOL    HW233191   1.841  12.268   2.150
43787SOL     OW33192   3.736  14.643  14.623
43787SOL    HW133193   3.768  14.622  14.711
43787SOL    HW233194   3.769  14.732  14.607
43788SOL     OW33195  13.797  12.646   8.782
43788SOL    HW133196  13.710  12.607   8.790
43788SOL    HW233197  13.781  12.740   8.789
43789SOL     OW33198   6.870   7.620   3.024
43789SOL    HW133199   6.791   7.669   3.003
43789SOL    HW233200   6.842   7.553   3.086
43790SOL     OW33201   8.756   3.170  14.263
43790SOL    HW133202   8.752   3.121  14.181
43790SOL    HW233203   8.845   3.206  14.264
43791SOL     OW33204   6.608   8.249  13.683
43791SOL    HW133205   6.576   8.315  13.623
43791SOL    HW233206   6.631   8.298  13.762
43792SOL     OW33207  14.796   4.381   7.067
43792SOL    HW133208  14.754   4.340   6.991
43792SOL    HW233209  14.878   4.334   7.077
43793SOL     OW33210  13.898  14.527   5.884
43793SOL    HW133211  13.976  14.557   5.931
43793SOL    HW233212  13.868  14.604   5.836
43794SOL     OW33213   4.741   9.189   0.431
43794SOL    HW133214   4.806   9.259   0.422
43794SOL    HW233215   4.721   9.186   0.525
43795SOL     OW33216   4.670   9.268   6.141
43795SOL    HW133217   4.735   9.221   6.088
43795SOL    HW233218   4.594   9.275   6.084
43796SOL     OW33219   3.872  10.168   5.504
43796SOL    HW133220   3.932  10.138   5.435
43796SOL    HW233221   3.923  10.232   5.554
43797SOL     OW33222  12.455   5.228   5.274
43797SOL    HW133223  12.450   5.293   5.204
43797SOL    HW233224  12.534   5.252   5.323
43798SOL     OW33225   5.838  13.544   2.551
43798SOL    HW133226   5.781  13.585   2.616
43798SOL    HW233227   5.900  13.493   2.603
43799SOL     OW33228   6.604  13.658  14.202
43799SOL    HW133229   6.601  13.740  14.153
43799SOL    HW233230   6.570  13.592  14.142
43800SOL     OW33231   3.104   3.675   7.561
43800SOL    HW133232   3.026   3.721   7.530
43800SOL    HW233233   3.070   3.595   7.601
43801SOL     OW33234   4.096   2.726   0.741
43801SOL    HW133235   4.161   2.715   0.671
43801SOL    HW233236   4.116   2.658   0.804
43802SOL     OW33237   3.851  10.007   9.617
43802SOL    HW133238   3.784  10.032   9.680
43802SOL    HW233239   3.887  10.090   9.586
43803SOL     OW33240   5.332   3.156  11.925
43803SOL    HW133241   5.249   3.137  11.883
43803SOL    HW233242   5.365   3.234  11.881
43804SOL     OW33243   1.290   5.715   4.932
43804SOL    HW133244   1.363   5.687   4.987
43804SOL    HW233245   1.279   5.644   4.869
43805SOL     OW33246   2.872  10.981  13.460
43805SOL    HW133247   2.822  11.058  13.432
43805SOL    HW233248   2.934  11.015  13.525
43806SOL     OW33249  11.135   2.137   4.720
43806SOL    HW133250  11.111   2.206   4.658
43806SOL    HW233251  11.175   2.069   4.666
43807SOL     OW33252  13.467  11.257   7.560
43807SOL    HW133253  13.481  11.228   7.650
43807SOL    HW233254  13.433  11.346   7.568
43808SOL     OW33255   0.730   1.302   1.532
43808SOL    HW133256   0.676   1.326   1.607
43808SOL    HW233257   0.673   1.246   1.479
43809SOL     OW33258   8.699  12.795   7.802
43809SOL    HW133259   8.747  12.870   7.837
43809SOL    HW233260   8.762  12.748   7.748
43810SOL     OW33261   6.948   6.921   4.215
43810SOL    HW133262   6.928   6.841   4.167
43810SOL    HW233263   6.867   6.972   4.213
43811SOL     OW33264   6.479   9.092   1.664
43811SOL    HW133265   6.404   9.033   1.663
43811SOL    HW233266   6.444   9.176   1.694
43812SOL     OW33267  13.754   6.000   1.451
43812SOL    HW133268  13.836   5.957   1.427
43812SOL    HW233269  13.695   5.928   1.474
43813SOL     OW33270  14.073  11.286   4.306
43813SOL    HW133271  14.101  11.289   4.214
43813SOL    HW233272  14.014  11.361   4.316
43814SOL     OW33273  10.168   9.984   1.139
43814SOL    HW133274  10.220  10.063   1.154
43814SOL    HW233275  10.077  10.015   1.135
43815SOL     OW33276  11.068  13.898  10.366
43815SOL    HW133277  11.095  13.808  10.347
43815SOL    HW233278  11.067  13.904  10.461
43816SOL     OW33279   0.168   3.263   1.922
43816SOL    HW133280   0.191   3.182   1.877
43816SOL    HW233281   0.076   3.253   1.945
43817SOL     OW33282   2.266   5.089   5.846
43817SOL    HW133283   2.192   5.109   5.904
43817SOL    HW233284   2.287   5.173   5.805
43818SOL     OW33285   1.777   1.635   4.238
43818SOL    HW133286   1.847   1.655   4.300
43818SOL    HW233287   1.746   1.720   4.208
43819SOL     OW33288   3.033  13.990   8.802
43819SOL    HW133289   2.986  13.936   8.865
43819SOL    HW233290   2.977  13.990   8.724
43820SOL     OW33291   9.465   0.481   7.384
43820SOL    HW133292   9.446   0.445   7.298
43820SOL    HW233293   9.555   0.511   7.379
43821SOL     OW33294  10.520   6.329   0.447
43821SOL    HW133295  10.446   6.383   0.478
43821SOL    HW233296  10.527   6.350   0.354
43822SOL     OW33297   9.409   5.370   5.345
43822SOL    HW133298   9.354   5.415   5.282
43822SOL    HW233299   9.491   5.353   5.297
43823SOL     OW33300  10.228   9.818   4.408
43823SOL    HW133301  10.136   9.803   4.384
43823SOL    HW233302  10.227   9.828   4.503
43824SOL     OW33303   7.396   4.345   4.442
43824SOL    HW133304   7.427   4.332   4.353
43824SOL    HW233305   7.452   4.290   4.496
43825SOL     OW33306   7.041   7.965  10.709
43825SOL    HW133307   7.125   7.997  10.677
43825SOL    HW233308   7.004   8.038  10.759
43826SOL     OW33309   6.118  13.739  13.277
43826SOL    HW133310   6.091  13.824  13.242
43826SOL    HW233311   6.148  13.759  13.366
43827SOL     OW33312  10.213   3.105   3.422
43827SOL    HW133313  10.125   3.120   3.387
43827SOL    HW233314  10.203   3.030   3.481
43828SOL     OW33315  14.590   9.971   0.761
43828SOL    HW133316  14.579   9.881   0.730
43828SOL    HW233317  14.623  10.018   0.684
43829SOL     OW33318   4.638   9.701   6.559
43829SOL    HW133319   4.707   9.711   6.625
43829SOL    HW233320   4.616   9.608   6.559
43830SOL     OW33321   6.694  10.343   9.965
43830SOL    HW133322   6.777  10.305   9.995
43830SOL    HW233323   6.629  10.275   9.983
43831SOL     OW33324   6.797  12.697  13.035
43831SOL    HW133325   6.773  12.788  13.018
43831SOL    HW233326   6.788  12.653  12.950
43832SOL     OW33327   2.949   8.586   4.235
43832SOL    HW133328   2.882   8.521   4.255
43832SOL    HW233329   3.002   8.545   4.166
43833SOL     OW33330  12.623   2.608   3.947
43833SOL    HW133331  12.624   2.592   4.041
43833SOL    HW233332  12.712   2.587   3.918
43834SOL     OW33333   4.535  10.387   8.134
43834SOL    HW133334   4.447  10.411   8.163
43834SOL    HW233335   4.593  10.440   8.189
43835SOL     OW33336   7.111  12.108  11.927
43835SOL    HW133337   7.024  12.138  11.899
43835SOL    HW233338   7.153  12.186  11.963
43836SOL     OW33339   5.553   2.176   3.645
43836SOL    HW133340   5.560   2.099   3.589
43836SOL    HW233341   5.577   2.144   3.732
43837SOL     OW33342   8.363   9.279   6.784
43837SOL    HW133343   8.375   9.206   6.845
43837SOL    HW233344   8.375   9.358   6.837
43838SOL     OW33345   4.669   5.380   2.277
43838SOL    HW133346   4.683   5.289   2.303
43838SOL    HW233347   4.726   5.392   2.201
43839SOL     OW33348   9.200   4.427   6.207
43839SOL    HW133349   9.286   4.463   6.189
43839SOL    HW233350   9.184   4.446   6.299
43840SOL     OW33351  13.838   2.965   2.892
43840SOL    HW133352  13.899   3.015   2.836
43840SOL    HW233353  13.837   3.013   2.975
43841SOL     OW33354  13.977   5.443   1.741
43841SOL    HW133355  13.966   5.352   1.768
43841SOL    HW233356  13.924   5.493   1.804
43842SOL     OW33357  10.794   8.470  14.041
43842SOL    HW133358  10.761   8.546  14.089
43842SOL    HW233359  10.814   8.504  13.954
43843SOL     OW33360  13.929   8.990  11.231
43843SOL    HW133361  13.865   8.960  11.295
43843SOL    HW233362  13.943   8.915  11.173
43844SOL     OW33363   2.566   1.362   8.338
43844SOL    HW133364   2.516   1.302   8.394
43844SOL    HW233365   2.652   1.322   8.330
43845SOL     OW33366  14.731   1.262   1.513
43845SOL    HW133367  14.744   1.181   1.465
43845SOL    HW233368  14.692   1.235   1.596
43846SOL     OW33369   3.889   5.757   6.850
43846SOL    HW133370   3.885   5.827   6.785
43846SOL    HW233371   3.859   5.679   6.802
43847SOL     OW33372  12.007   6.429   0.776
43847SOL    HW133373  11.931   6.375   0.798
43847SOL    HW233374  11.982   6.518   0.802
43848SOL     OW33375   6.227   1.064   9.630
43848SOL    HW133376   6.293   1.033   9.569
43848SOL    HW233377   6.209   1.154   9.603
43849SOL     OW33378   3.248   1.089   6.680
43849SOL    HW133379   3.172   1.084   6.622
43849SOL    HW233380   3.322   1.065   6.624
43850SOL     OW33381  12.946   0.049   2.220
43850SOL    HW133382  12.960  14.836   2.230
43850SOL    HW233383  12.853   0.061   2.234
43851SOL     OW33384  10.708   2.993   8.257
43851SOL    HW133385  10.625   2.972   8.299
43851SOL    HW233386  10.684   3.050   8.183
43852SOL     OW33387   3.468   7.306   9.850
43852SOL    HW133388   3.558   7.276   9.861
43852SOL    HW233389   3.416   7.246   9.903
43853SOL     OW33390   6.808   1.397   5.889
43853SOL    HW133391   6.884   1.393   5.831
43853SOL    HW233392   6.734   1.373   5.834
43854SOL     OW33393  10.089  12.209   6.401
43854SOL    HW133394  10.132  12.283   6.358
43854SOL    HW233395  10.001  12.242   6.423
43855SOL     OW33396  11.405   8.983  10.383
43855SOL    HW133397  11.409   9.044  10.310
43855SOL    HW233398  11.413   9.038  10.461
43856SOL     OW33399   5.032  12.570  11.785
43856SOL    HW133400   4.970  12.622  11.835
43856SOL    HW233401   5.118  12.597  11.818
43857SOL     OW33402   2.917   8.912   4.016
43857SOL    HW133403   2.884   8.823   4.027
43857SOL    HW233404   2.900   8.934   3.925
43858SOL     OW33405  14.081   5.911  12.256
43858SOL    HW133406  13.987   5.931  12.259
43858SOL    HW233407  14.118   5.959  12.330
43859SOL     OW33408  13.186  11.939   1.351
43859SOL    HW133409  13.190  11.870   1.284
43859SOL    HW233410  13.277  11.966   1.362
43860SOL     OW33411  14.848  10.098  13.619
43860SOL    HW133412  14.766  10.051  13.635
43860SOL    HW233413  14.846  10.118  13.525
43861SOL     OW33414  11.438   9.023  12.619
43861SOL    HW133415  11.373   9.079  12.661
43861SOL    HW233416  11.411   9.020  12.527
43862SOL     OW33417   9.874   6.866  10.958
43862SOL    HW133418   9.919   6.932  11.012
43862SOL    HW233419   9.928   6.787  10.966
43863SOL     OW33420   3.793   9.431  10.407
43863SOL    HW133421   3.883   9.424  10.438
43863SOL    HW233422   3.771   9.524  10.419
43864SOL     OW33423  13.019   5.756  10.571
43864SOL    HW133424  12.985   5.844  10.588
43864SOL    HW233425  13.081   5.768  10.499
43865SOL     OW33426  12.236   5.103  13.041
43865SOL    HW133427  12.185   5.138  12.968
43865SOL    HW233428  12.296   5.173  13.065
43866SOL     OW33429   6.926  11.768   0.695
43866SOL    HW133430   6.942  11.859   0.673
43866SOL    HW233431   6.840  11.748   0.658
43867SOL     OW33432   5.379   3.436   2.274
43867SOL    HW133433   5.317   3.376   2.315
43867SOL    HW233434   5.358   3.432   2.181
43868SOL     OW33435  14.140   6.047   4.442
43868SOL    HW133436  14.156   6.096   4.523
43868SOL    HW233437  14.148   6.113   4.373
43869SOL     OW33438   5.937   0.931  14.205
43869SOL    HW133439   5.918   0.838  14.189
43869SOL    HW233440   5.917   0.974  14.122
43870SOL     OW33441   8.496   2.536  10.901
43870SOL    HW133442   8.437   2.476  10.854
43870SOL    HW233443   8.451   2.620  10.898
43871SOL     OW33444   7.878  12.225   2.469
43871SOL    HW133445   7.918  12.309   2.445
43871SOL    HW233446   7.793  12.249   2.507
43872SOL     OW33447   1.384   6.309   7.149
43872SOL    HW133448   1.437   6.335   7.074
43872SOL    HW233449   1.443   6.321   7.224
43873SOL     OW33450   2.095  12.625  13.814
43873SOL    HW133451   2.045  12.634  13.895
43873SOL    HW233452   2.052  12.684  13.752
43874SOL     OW33453   1.253  10.819   9.359
43874SOL    HW133454   1.268  10.846   9.449
43874SOL    HW233455   1.197  10.887   9.323
43875SOL     OW33456   0.450   1.449   3.599
43875SOL    HW133457   0.545   1.455   3.592
43875SOL    HW233458   0.428   1.368   3.553
43876SOL     OW33459   3.403  14.326   1.614
43876SOL    HW133460   3.488  14.354   1.579
43876SOL    HW233461   3.338  14.374   1.563
43877SOL     OW33462  14.603   0.685   1.847
43877SOL    HW133463  14.540   0.686   1.775
43877SOL    HW233464  14.688   0.673   1.805
43878SOL     OW33465  11.076   1.001   2.071
43878SOL    HW133466  11.037   1.087   2.058
43878SOL    HW233467  11.040   0.948   2.000
43879SOL     OW33468  13.327  10.475   1.223
43879SOL    HW133469  13.416  10.442   1.223
43879SOL    HW233470  13.316  10.517   1.308
43880SOL     OW33471   0.283  13.490  13.085
43880SOL    HW133472   0.198  13.466  13.121
43880SOL    HW233473   0.346  13.464  13.152
43881SOL     OW33474  11.072   6.875  14.859
43881SOL    HW133475  11.063   6.955  14.808
43881SOL    HW233476  10.982   6.852   0.002
43882SOL     OW33477  11.564  10.230  14.203
43882SOL    HW133478  11.574  10.226  14.108
43882SOL    HW233479  11.645  10.272  14.234
43883SOL     OW33480   7.736   7.905  12.682
43883SOL    HW133481   7.769   7.956  12.608
43883SOL    HW233482   7.660   7.858  12.647
43884SOL     OW33483   4.488   7.519   9.698
43884SOL    HW133484   4.478   7.536   9.605
43884SOL    HW233485   4.522   7.601   9.734
43885SOL     OW33486  11.776   0.745   3.375
43885SOL    HW133487  11.754   0.652   3.376
43885SOL    HW233488  11.699   0.787   3.336
43886SOL     OW33489   8.824   4.635   5.434
43886SOL    HW133490   8.782   4.575   5.373
43886SOL    HW233491   8.770   4.632   5.513
43887SOL     OW33492   3.687   5.504   8.809
43887SOL    HW133493   3.760   5.558   8.839
43887SOL    HW233494   3.700   5.419   8.851
43888SOL     OW33495   1.908   8.872   5.665
43888SOL    HW133496   1.877   8.907   5.749
43888SOL    HW233497   1.827   8.850   5.618
43889SOL     OW33498  10.391   0.698   1.784
43889SOL    HW133499  10.433   0.711   1.869
43889SOL    HW233500  10.397   0.783   1.741
43890SOL     OW33501   7.296  14.491   9.738
43890SOL    HW133502   7.247  14.531   9.666
43890SOL    HW233503   7.229  14.468   9.803
43891SOL     OW33504  11.322   9.929   1.904
43891SOL    HW133505  11.264   9.883   1.965
43891SOL    HW233506  11.389   9.865   1.883
43892SOL     OW33507  10.549  12.483   2.667
43892SOL    HW133508  10.618  12.420   2.645
43892SOL    HW233509  10.591  12.547   2.724
43893SOL     OW33510   6.850   1.752  10.196
43893SOL    HW133511   6.821   1.759  10.105
43893SOL    HW233512   6.945   1.746  10.191
43894SOL     OW33513  14.566   1.332  12.288
43894SOL    HW133514  14.550   1.424  12.310
43894SOL    HW233515  14.614   1.336  12.205
43895SOL     OW33516   0.704  13.968   9.406
43895SOL    HW133517   0.681  13.993   9.495
43895SOL    HW233518   0.669  14.038   9.351
43896SOL     OW33519   5.801   1.987   7.735
43896SOL    HW133520   5.822   1.894   7.746
43896SOL    HW233521   5.705   1.990   7.731
43897SOL     OW33522   5.484  14.690   4.601
43897SOL    HW133523   5.566  14.730   4.632
43897SOL    HW233524   5.462  14.627   4.669
43898SOL     OW33525   9.520  14.447  14.808
43898SOL    HW133526   9.526  14.493   0.009
43898SOL    HW233527   9.605  14.403  14.799
43899SOL     OW33528  14.723   7.328   8.162
43899SOL    HW133529  14.754   7.329   8.071
43899SOL    HW233530  14.788   7.275   8.208
43900SOL     OW33531   1.017   8.096   1.966
43900SOL    HW133532   1.065   8.137   2.038
43900SOL    HW233533   1.061   8.126   1.887
43901SOL     OW33534   1.548   9.230  12.985
43901SOL    HW133535   1.573   9.169  12.915
43901SOL    HW233536   1.580   9.188  13.066
43902SOL     OW33537  12.977   3.510   4.020
43902SOL    HW133538  12.993   3.561   3.940
43902SOL    HW233539  12.894   3.544   4.054
43903SOL     OW33540   0.132  14.788   6.098
43903SOL    HW133541   0.168  14.864   6.052
43903SOL    HW233542   0.056  14.823   6.145
43904SOL     OW33543   5.279   7.213  12.278
43904SOL    HW133544   5.360   7.163  12.290
43904SOL    HW233545   5.228   7.196  12.357
43905SOL     OW33546  10.054   6.780   5.477
43905SOL    HW133547  10.055   6.765   5.383
43905SOL    HW233548  10.053   6.693   5.516
43906SOL     OW33549  12.473   6.899  10.672
43906SOL    HW133550  12.487   6.993  10.684
43906SOL    HW233551  12.551   6.869  10.625
43907SOL     OW33552  12.992   4.923   1.188
43907SOL    HW133553  13.032   4.842   1.220
43907SOL    HW233554  13.029   4.934   1.100
43908SOL     OW33555   0.717   2.332   6.494
43908SOL    HW133556   0.751   2.342   6.405
43908SOL    HW233557   0.654   2.261   6.488
43909SOL     OW33558  12.029   9.064   0.065
43909SOL    HW133559  11.985   9.060  14.862
43909SOL    HW233560  12.089   8.989   0.065
43910SOL     OW33561   0.742   4.204   2.665
43910SOL    HW133562   0.831   4.188   2.698
43910SOL    HW233563   0.710   4.278   2.716
43911SOL     OW33564   4.027   8.975   7.183
43911SOL    HW133565   4.066   9.005   7.265
43911SOL    HW233566   3.933   8.985   7.197
43912SOL     OW33567   9.827   6.640   3.122
43912SOL    HW133568   9.862   6.580   3.189
43912SOL    HW233569   9.830   6.590   3.041
43913SOL     OW33570  14.550   8.302   8.316
43913SOL    HW133571  14.576   8.226   8.368
43913SOL    HW233572  14.626   8.318   8.259
43914SOL     OW33573   8.565   4.828  13.017
43914SOL    HW133574   8.540   4.776  12.940
43914SOL    HW233575   8.505   4.801  13.085
43915SOL     OW33576   5.228   4.898   6.176
43915SOL    HW133577   5.287   4.842   6.127
43915SOL    HW233578   5.234   4.983   6.133
43916SOL     OW33579  11.431  10.263   7.599
43916SOL    HW133580  11.402  10.183   7.643
43916SOL    HW233581  11.374  10.331   7.634
43917SOL     OW33582   7.817   7.279   8.363
43917SOL    HW133583   7.736   7.239   8.394
43917SOL    HW233584   7.813   7.272   8.268
43918SOL     OW33585   8.975   5.313   2.263
43918SOL    HW133586   8.985   5.270   2.178
43918SOL    HW233587   9.018   5.256   2.325
43919SOL     OW33588   6.678   5.644  13.193
43919SOL    HW133589   6.768   5.636  13.161
43919SOL    HW233590   6.678   5.596  13.276
43920SOL     OW33591  14.832   0.285   3.119
43920SOL    HW133592  14.802   0.265   3.208
43920SOL    HW233593  14.878   0.205   3.092
43921SOL     OW33594  12.905  13.428   5.895
43921SOL    HW133595  12.929  13.447   5.804
43921SOL    HW233596  12.844  13.498   5.919
43922SOL     OW33597  10.499   7.744   3.959
43922SOL    HW133598  10.421   7.721   3.908
43922SOL    HW233599  10.501   7.680   4.030
43923SOL     OW33600   8.958   3.246  13.169
43923SOL    HW133601   9.036   3.254  13.114
43923SOL    HW233602   8.951   3.153  13.187
43924SOL     OW33603  11.014  10.590  12.760
43924SOL    HW133604  11.091  10.620  12.711
43924SOL    HW233605  11.008  10.650  12.834
43925SOL     OW33606   3.506   0.247   6.466
43925SOL    HW133607   3.442   0.317   6.455
43925SOL    HW233608   3.565   0.257   6.391
43926SOL     OW33609   4.438   5.261  12.412
43926SOL    HW133610   4.520   5.219  12.386
43926SOL    HW233611   4.464   5.348  12.443
43927SOL     OW33612  10.267   5.977  11.730
43927SOL    HW133613  10.293   6.063  11.762
43927SOL    HW233614  10.209   5.943  11.799
43928SOL     OW33615   1.690  10.018  11.881
43928SOL    HW133616   1.612   9.967  11.859
43928SOL    HW233617   1.711   9.990  11.971
43929SOL     OW33618   4.433   9.881  11.969
43929SOL    HW133619   4.400   9.892  11.880
43929SOL    HW233620   4.387   9.804  12.002
43930SOL     OW33621   2.462   2.458   9.952
43930SOL    HW133622   2.415   2.379   9.928
43930SOL    HW233623   2.484   2.499   9.868
43931SOL     OW33624  13.072   1.932   5.146
43931SOL    HW133625  13.075   1.988   5.068
43931SOL    HW233626  12.979   1.912   5.158
43932SOL     OW33627  13.654   7.663   6.995
43932SOL    HW133628  13.601   7.654   7.074
43932SOL    HW233629  13.591   7.652   6.923
43933SOL     OW33630   6.906   9.734  13.416
43933SOL    HW133631   6.957   9.657  13.391
43933SOL    HW233632   6.929   9.801  13.351
43934SOL     OW33633  12.323   1.894  11.575
43934SOL    HW133634  12.341   1.806  11.609
43934SOL    HW233635  12.408   1.926  11.546
43935SOL     OW33636   0.863   6.068  10.268
43935SOL    HW133637   0.848   5.975  10.289
43935SOL    HW233638   0.860   6.112  10.353
43936SOL     OW33639   4.267   7.962   3.811
43936SOL    HW133640   4.319   7.922   3.742
43936SOL    HW233641   4.330   7.986   3.879
43937SOL     OW33642   2.101   9.866   5.993
43937SOL    HW133643   2.094   9.810   6.070
43937SOL    HW233644   2.189   9.851   5.960
43938SOL     OW33645  11.301   6.110   6.369
43938SOL    HW133646  11.367   6.082   6.306
43938SOL    HW233647  11.309   6.206   6.371
43939SOL     OW33648  11.252   0.555  14.667
43939SOL    HW133649  11.238   0.481  14.726
43939SOL    HW233650  11.231   0.632  14.719
43940SOL     OW33651  14.430   1.254  12.811
43940SOL    HW133652  14.453   1.175  12.762
43940SOL    HW233653  14.512   1.304  12.815
43941SOL     OW33654   2.041   2.047  14.382
43941SOL    HW133655   2.094   2.070  14.458
43941SOL    HW233656   2.000   1.964  14.405
43942SOL     OW33657   1.749  10.185   7.517
43942SOL    HW133658   1.747  10.171   7.422
43942SOL    HW233659   1.831  10.146   7.546
43943SOL     OW33660   7.392   5.506   9.030
43943SOL    HW133661   7.389   5.410   9.037
43943SOL    HW233662   7.396   5.523   8.936
43944SOL     OW33663  11.324   2.349   3.411
43944SOL    HW133664  11.404   2.391   3.442
43944SOL    HW233665  11.350   2.302   3.332
43945SOL     OW33666   8.512   1.060   7.228
43945SOL    HW133667   8.590   1.068   7.284
43945SOL    HW233668   8.468   0.981   7.259
43946SOL     OW33669   6.837   7.411   9.632
43946SOL    HW133670   6.792   7.434   9.713
43946SOL    HW233671   6.767   7.382   9.573
43947SOL     OW33672   8.855  12.338  10.343
43947SOL    HW133673   8.909  12.298  10.411
43947SOL    HW233674   8.796  12.268  10.315
43948SOL     OW33675   9.523  13.611  13.547
43948SOL    HW133676   9.584  13.545  13.579
43948SOL    HW233677   9.574  13.691  13.542
43949SOL     OW33678   2.391  11.642   6.058
43949SOL    HW133679   2.462  11.682   6.108
43949SOL    HW233680   2.316  11.643   6.117
43950SOL     OW33681  10.846  11.657  12.908
43950SOL    HW133682  10.803  11.688  12.988
43950SOL    HW233683  10.939  11.654  12.931
43951SOL     OW33684   9.500   6.178   7.563
43951SOL    HW133685   9.570   6.215   7.510
43951SOL    HW233686   9.516   6.212   7.651
43952SOL     OW33687   8.635   9.958   1.957
43952SOL    HW133688   8.608  10.050   1.953
43952SOL    HW233689   8.584   9.915   1.889
43953SOL     OW33690  12.767   7.602  13.523
43953SOL    HW133691  12.848   7.586  13.571
43953SOL    HW233692  12.781   7.558  13.439
43954SOL     OW33693   7.936   0.302  14.154
43954SOL    HW133694   7.958   0.310  14.247
43954SOL    HW233695   7.982   0.224  14.125
43955SOL     OW33696  13.639  14.304  14.083
43955SOL    HW133697  13.650  14.250  14.005
43955SOL    HW233698  13.574  14.258  14.135
43956SOL     OW33699  11.658  11.668   8.896
43956SOL    HW133700  11.613  11.584   8.887
43956SOL    HW233701  11.589  11.734   8.891
43957SOL     OW33702   2.689  10.917   4.696
43957SOL    HW133703   2.629  10.924   4.621
43957SOL    HW233704   2.644  10.856   4.756
43958SOL     OW33705   9.033   3.750   5.454
43958SOL    HW133706   9.068   3.823   5.404
43958SOL    HW233707   8.991   3.790   5.530
43959SOL     OW33708   1.048   5.772   5.045
43959SOL    HW133709   1.137   5.747   5.022
43959SOL    HW233710   0.993   5.710   4.998
43960SOL     OW33711   8.668  13.218   7.223
43960SOL    HW133712   8.637  13.240   7.311
43960SOL    HW233713   8.670  13.302   7.177
43961SOL     OW33714   7.309   1.805  13.215
43961SOL    HW133715   7.316   1.900  13.225
43961SOL    HW233716   7.224   1.792  13.172
43962SOL     OW33717   8.457   6.800   5.142
43962SOL    HW133718   8.497   6.713   5.154
43962SOL    HW233719   8.435   6.803   5.049
43963SOL     OW33720   0.584  11.794   9.290
43963SOL    HW133721   0.648  11.753   9.232
43963SOL    HW233722   0.538  11.857   9.235
43964SOL     OW33723   0.494  13.551   6.636
43964SOL    HW133724   0.519  13.636   6.672
43964SOL    HW233725   0.479  13.568   6.543
43965SOL     OW33726   4.768   0.555   3.927
43965SOL    HW133727   4.710   0.510   3.866
43965SOL    HW233728   4.851   0.563   3.880
43966SOL     OW33729  13.234   7.177  10.125
43966SOL    HW133730  13.148   7.191  10.164
43966SOL    HW233731  13.281   7.124  10.189
43967SOL     OW33732   9.753   7.277   8.510
43967SOL    HW133733   9.798   7.357   8.537
43967SOL    HW233734   9.719   7.296   8.423
43968SOL     OW33735  11.999   8.311  13.991
43968SOL    HW133736  11.904   8.301  13.989
43968SOL    HW233737  12.033   8.230  13.953
43969SOL     OW33738  10.812   9.360   7.489
43969SOL    HW133739  10.820   9.264   7.494
43969SOL    HW233740  10.746   9.375   7.422
43970SOL     OW33741  10.155  12.976  13.877
43970SOL    HW133742  10.198  12.968  13.962
43970SOL    HW233743  10.090  13.045  13.889
43971SOL     OW33744  12.474  12.419  13.043
43971SOL    HW133745  12.545  12.480  13.062
43971SOL    HW233746  12.434  12.452  12.963
43972SOL     OW33747   8.166  10.210  10.289
43972SOL    HW133748   8.074  10.233  10.302
43972SOL    HW233749   8.167  10.115  10.280
43973SOL     OW33750   0.704   6.635   8.621
43973SOL    HW133751   0.770   6.605   8.559
43973SOL    HW233752   0.642   6.562   8.625
43974SOL     OW33753   6.985   7.997   1.060
43974SOL    HW133754   6.955   8.079   1.101
43974SOL    HW233755   7.033   7.953   1.130
43975SOL     OW33756   8.186   4.434   4.048
43975SOL    HW133757   8.116   4.490   4.081
43975SOL    HW233758   8.265   4.465   4.091
43976SOL     OW33759  14.011  11.974   0.114
43976SOL    HW133760  13.938  11.914   0.097
43976SOL    HW233761  14.012  11.984   0.209
43977SOL     OW33762  13.559  10.236   3.941
43977SOL    HW133763  13.538  10.328   3.923
43977SOL    HW233764  13.651  10.237   3.967
43978SOL     OW33765   4.511  10.673  14.119
43978SOL    HW133766   4.438  10.616  14.144
43978SOL    HW233767   4.589  10.627  14.150
43979SOL     OW33768  13.406   6.739   6.238
43979SOL    HW133769  13.417   6.663   6.296
43979SOL    HW233770  13.330   6.717   6.183
43980SOL     OW33771   3.084  12.953   2.174
43980SOL    HW133772   3.169  12.980   2.208
43980SOL    HW233773   3.096  12.861   2.150
43981SOL     OW33774  10.873   0.268   0.198
43981SOL    HW133775  10.811   0.209   0.241
43981SOL    HW233776  10.818   0.330   0.151
43982SOL     OW33777  11.029  10.364   9.185
43982SOL    HW133778  10.995  10.329   9.102
43982SOL    HW233779  10.957  10.350   9.247
43983SOL     OW33780   1.716  11.316   0.172
43983SOL    HW133781   1.637  11.265   0.189
43983SOL    HW233782   1.761  11.319   0.257
43984SOL     OW33783  14.300   8.190   6.916
43984SOL    HW133784  14.359   8.122   6.950
43984SOL    HW233785  14.350   8.230   6.845
43985SOL     OW33786  12.863   3.107   5.646
43985SOL    HW133787  12.953   3.138   5.656
43985SOL    HW233788  12.845   3.116   5.553
43986SOL     OW33789   7.960  14.233  13.421
43986SOL    HW133790   8.016  14.155  13.427
43986SOL    HW233791   8.020  14.307  13.430
43987SOL     OW33792  11.886   2.055  13.907
43987SOL    HW133793  11.813   1.994  13.896
43987SOL    HW233794  11.960   2.011  13.865
43988SOL     OW33795   0.927   2.202  13.460
43988SOL    HW133796   0.834   2.224  13.465
43988SOL    HW233797   0.971   2.287  13.462
43989SOL     OW33798   1.957   5.352   3.406
43989SOL    HW133799   1.870   5.388   3.393
43989SOL    HW233800   1.941   5.266   3.446
43990SOL     OW33801   9.174   4.371  10.157
43990SOL    HW133802   9.210   4.398  10.241
43990SOL    HW233803   9.134   4.286  10.173
43991SOL     OW33804  14.354   2.793   4.643
43991SOL    HW133805  14.312   2.739   4.711
43991SOL    HW233806  14.292   2.791   4.570
43992SOL     OW33807   3.889  10.527  10.294
43992SOL    HW133808   3.803  10.486  10.285
43992SOL    HW233809   3.948  10.470  10.246
43993SOL     OW33810   4.739  10.868  13.078
43993SOL    HW133811   4.701  10.843  12.994
43993SOL    HW233812   4.697  10.810  13.141
43994SOL     OW33813  11.808   8.217  10.403
43994SOL    HW133814  11.778   8.127  10.417
43994SOL    HW233815  11.797   8.232  10.309
43995SOL     OW33816  14.236   8.268   4.738
43995SOL    HW133817  14.290   8.282   4.660
43995SOL    HW233818  14.296   8.230   4.802
43996SOL     OW33819   6.214  13.505   8.916
43996SOL    HW133820   6.202  13.580   8.974
43996SOL    HW233821   6.309  13.497   8.907
43997SOL     OW33822  10.394   1.855  12.001
43997SOL    HW133823  10.367   1.845  11.910
43997SOL    HW233824  10.322   1.902  12.043
43998SOL     OW33825   3.156  14.509   5.802
43998SOL    HW133826   3.086  14.546   5.748
43998SOL    HW233827   3.117  14.432   5.843
43999SOL     OW33828   2.462  12.974  12.004
43999SOL    HW133829   2.553  12.955  11.982
43999SOL    HW233830   2.450  12.938  12.092
44000SOL     OW33831   6.728   1.399   1.899
44000SOL    HW133832   6.700   1.425   1.811
44000SOL    HW233833   6.721   1.304   1.899
44001SOL     OW33834   4.414   8.504  13.377
44001SOL    HW133835   4.500   8.519  13.415
44001SOL    HW233836   4.416   8.552  13.293
44002SOL     OW33837   1.194  10.380   5.642
44002SOL    HW133838   1.181  10.331   5.561
44002SOL    HW233839   1.135  10.337   5.705
44003SOL     OW33840   9.542   6.893  12.197
44003SOL    HW133841   9.583   6.810  12.224
44003SOL    HW233842   9.452   6.869  12.176
44004SOL     OW33843   9.218  10.005  12.349
44004SOL    HW133844   9.132  10.037  12.323
44004SOL    HW233845   9.239   9.938  12.284
44005SOL     OW33846   1.083  12.000   9.626
44005SOL    HW133847   1.172  11.965   9.632
44005SOL    HW233848   1.045  11.954   9.551
44006SOL     OW33849   6.892  11.682  13.380
44006SOL    HW133850   6.931  11.671  13.294
44006SOL    HW233851   6.879  11.593  13.412
44007SOL     OW33852   1.427   4.478  12.789
44007SOL    HW133853   1.348   4.428  12.768
44007SOL    HW233854   1.482   4.470  12.711
44008SOL     OW33855   2.146   1.692   9.605
44008SOL    HW133856   2.143   1.737   9.520
44008SOL    HW233857   2.061   1.648   9.611
44009SOL     OW33858  14.122   6.943  11.323
44009SOL    HW133859  14.052   6.909  11.267
44009SOL    HW233860  14.185   6.872  11.329
44010SOL     OW33861  13.129   0.288  13.809
44010SOL    HW133862  13.178   0.214  13.844
44010SOL    HW233863  13.159   0.297  13.719
44011SOL     OW33864   3.276   7.774  12.099
44011SOL    HW133865   3.252   7.684  12.122
44011SOL    HW233866   3.197   7.825  12.116
44012SOL     OW33867   6.848  11.133   5.168
44012SOL    HW133868   6.875  11.042   5.185
44012SOL    HW233869   6.796  11.156   5.245
44013SOL     OW33870   1.053   1.078   0.857
44013SOL    HW133871   1.067   0.998   0.807
44013SOL    HW233872   1.041   1.049   0.947
44014SOL     OW33873   2.241   6.044  10.358
44014SOL    HW133874   2.239   5.963  10.410
44014SOL    HW233875   2.160   6.089  10.380
44015SOL     OW33876  10.104  11.210   7.527
44015SOL    HW133877  10.045  11.283   7.511
44015SOL    HW233878  10.056  11.133   7.496
44016SOL     OW33879   4.429   1.477  12.438
44016SOL    HW133880   4.489   1.412  12.402
44016SOL    HW233881   4.351   1.471  12.382
44017SOL     OW33882   7.237   6.143   0.051
44017SOL    HW133883   7.235   6.069  14.873
44017SOL    HW233884   7.188   6.212   0.006
44018SOL     OW33885   7.222   0.602  13.625
44018SOL    HW133886   7.220   0.589  13.720
44018SOL    HW233887   7.213   0.697  13.614
44019SOL     OW33888   5.861   5.405   9.107
44019SOL    HW133889   5.768   5.403   9.131
44019SOL    HW233890   5.904   5.446   9.182
44020SOL     OW33891   9.181   6.042   2.793
44020SOL    HW133892   9.204   5.956   2.757
44020SOL    HW233893   9.197   6.033   2.887
44021SOL     OW33894   0.509  10.579   5.812
44021SOL    HW133895   0.419  10.552   5.797
44021SOL    HW233896   0.511  10.671   5.785
44022SOL     OW33897   8.611   0.120   6.557
44022SOL    HW133898   8.680   0.101   6.493
44022SOL    HW233899   8.529   0.101   6.511
44023SOL     OW33900   9.618   5.422   1.135
44023SOL    HW133901   9.551   5.447   1.198
44023SOL    HW233902   9.638   5.331   1.154
44024SOL     OW33903  13.046   1.863   1.190
44024SOL    HW133904  13.038   1.879   1.284
44024SOL    HW233905  13.016   1.944   1.149
44025SOL     OW33906  10.188   2.554   5.627
44025SOL    HW133907  10.236   2.635   5.643
44025SOL    HW233908  10.212   2.529   5.538
44026SOL     OW33909   7.265   6.267   9.994
44026SOL    HW133910   7.232   6.188   9.952
44026SOL    HW233911   7.198   6.290  10.058
44027SOL     OW33912  10.230   9.043   5.731
44027SOL    HW133913  10.178   9.074   5.656
44027SOL    HW233914  10.233   9.118   5.790
44028SOL     OW33915  11.863   0.881  13.764
44028SOL    HW133916  11.850   0.908  13.855
44028SOL    HW233917  11.957   0.895  13.748
44029SOL     OW33918   7.388  13.496   7.833
44029SOL    HW133919   7.297  13.468   7.823
44029SOL    HW233920   7.438  13.438   7.776
44030SOL     OW33921   8.560   1.684   1.086
44030SOL    HW133922   8.656   1.693   1.088
44030SOL    HW233923   8.540   1.663   0.995
44031SOL     OW33924  11.015   4.280   0.185
44031SOL    HW133925  11.010   4.304   0.092
44031SOL    HW233926  10.927   4.247   0.206
44032SOL     OW33927  12.649   7.718  11.032
44032SOL    HW133928  12.589   7.777  11.079
44032SOL    HW233929  12.604   7.697  10.951
44033SOL     OW33930  13.884  10.367  12.056
44033SOL    HW133931  13.969  10.329  12.075
44033SOL    HW233932  13.825  10.327  12.119
44034SOL     OW33933   8.029  14.554  11.150
44034SOL    HW133934   8.125  14.546  11.149
44034SOL    HW233935   8.000  14.478  11.199
44035SOL     OW33936   2.255   2.723  13.027
44035SOL    HW133937   2.258   2.628  13.038
44035SOL    HW233938   2.184   2.739  12.965
44036SOL     OW33939  11.190  13.712   1.624
44036SOL    HW133940  11.229  13.766   1.693
44036SOL    HW233941  11.208  13.622   1.652
44037SOL     OW33942   1.173   2.662   2.363
44037SOL    HW133943   1.096   2.606   2.358
44037SOL    HW233944   1.195   2.680   2.271
44038SOL     OW33945   8.270  12.334  10.359
44038SOL    HW133946   8.278  12.328  10.263
44038SOL    HW233947   8.325  12.409  10.383
44039SOL     OW33948   4.960   9.672   9.925
44039SOL    HW133949   4.890   9.668   9.859
44039SOL    HW233950   5.025   9.609   9.894
44040SOL     OW33951   5.151  12.850  13.330
44040SOL    HW133952   5.077  12.840  13.389
44040SOL    HW233953   5.144  12.939  13.296
44041SOL     OW33954  10.769   2.653  12.660
44041SOL    HW133955  10.794   2.598  12.734
44041SOL    HW233956  10.674   2.644  12.653
44042SOL     OW33957   6.619   0.577  13.691
44042SOL    HW133958   6.679   0.607  13.759
44042SOL    HW233959   6.668   0.509  13.644
44043SOL     OW33960  14.751   1.679   2.023
44043SOL    HW133961  14.735   1.609   1.961
44043SOL    HW233962  14.713   1.648   2.105
44044SOL     OW33963   7.947   1.350   3.818
44044SOL    HW133964   7.945   1.353   3.913
44044SOL    HW233965   7.977   1.262   3.797
44045SOL     OW33966   9.418   7.334   4.710
44045SOL    HW133967   9.403   7.244   4.679
44045SOL    HW233968   9.370   7.389   4.649
44046SOL     OW33969   7.593   1.443   9.042
44046SOL    HW133970   7.510   1.490   9.033
44046SOL    HW233971   7.571   1.367   9.096
44047SOL     OW33972   7.409   0.652  12.762
44047SOL    HW133973   7.404   0.746  12.780
44047SOL    HW233974   7.500   0.629  12.779
44048SOL     OW33975   8.557  12.718   9.658
44048SOL    HW133976   8.522  12.745   9.743
44048SOL    HW233977   8.591  12.798   9.619
44049SOL     OW33978   1.817   5.207   1.792
44049SOL    HW133979   1.909   5.219   1.771
44049SOL    HW233980   1.810   5.114   1.817
44050SOL     OW33981   8.188   9.483  12.468
44050SOL    HW133982   8.226   9.451  12.386
44050SOL    HW233983   8.104   9.438  12.475
44051SOL     OW33984   0.906   8.724   4.260
44051SOL    HW133985   0.954   8.642   4.276
44051SOL    HW233986   0.816   8.703   4.284
44052SOL     OW33987  10.799  11.718   4.963
44052SOL    HW133988  10.887  11.723   5.001
44052SOL    HW233989  10.744  11.768   5.022
44053SOL     OW33990  13.834   5.474   8.535
44053SOL    HW133991  13.804   5.383   8.531
44053SOL    HW233992  13.840   5.501   8.443
44054SOL     OW33993  14.046   5.452   2.413
44054SOL    HW133994  14.046   5.431   2.320
44054SOL    HW233995  13.973   5.402   2.449
44055SOL     OW33996   7.978   8.543  14.434
44055SOL    HW133997   8.009   8.468  14.383
44055SOL    HW233998   8.044   8.554  14.503
44056SOL     OW33999   3.897  12.242  11.164
44056SOL    HW134000   3.839  12.189  11.111
44056SOL    HW234001   3.973  12.258  11.108
44057SOL     OW34002  10.727   9.005   0.345
44057SOL    HW134003  10.637   9.037   0.345
44057SOL    HW234004  10.719   8.910   0.351
44058SOL     OW34005  11.700   3.416  13.802
44058SOL    HW134006  11.758   3.491  13.811
44058SOL    HW234007  11.637   3.442  13.734
44059SOL     OW34008   0.897   0.207   6.966
44059SOL    HW134009   0.877   0.300   6.949
44059SOL    HW234010   0.841   0.159   6.905
44060SOL     OW34011   6.904  12.687   0.747
44060SOL    HW134012   6.844  12.682   0.821
44060SOL    HW234013   6.854  12.653   0.673
44061SOL     OW34014   8.524   8.941   7.692
44061SOL    HW134015   8.545   9.016   7.747
44061SOL    HW234016   8.500   8.872   7.754
44062SOL     OW34017  13.213   8.361   5.455
44062SOL    HW134018  13.275   8.292   5.479
44062SOL    HW234019  13.133   8.313   5.432
44063SOL     OW34020  13.267  10.026  14.685
44063SOL    HW134021  13.307   9.995  14.766
44063SOL    HW234022  13.212   9.953  14.655
44064SOL     OW34023   1.796   7.828   9.285
44064SOL    HW134024   1.828   7.811   9.196
44064SOL    HW234025   1.806   7.744   9.330
44065SOL     OW34026  13.473   3.163  11.065
44065SOL    HW134027  13.394   3.192  11.110
44065SOL    HW234028  13.524   3.243  11.051
44066SOL     OW34029  12.323   6.000   3.293
44066SOL    HW134030  12.277   6.049   3.362
44066SOL    HW234031  12.253   5.974   3.233
44067SOL     OW34032   0.439   9.059  10.325
44067SOL    HW134033   0.420   9.142  10.282
44067SOL    HW234034   0.390   8.994  10.273
44068SOL     OW34035   3.034   1.650  13.421
44068SOL    HW134036   2.997   1.725  13.375
44068SOL    HW234037   3.119   1.681  13.452
44069SOL     OW34038   4.674   2.977   8.302
44069SOL    HW134039   4.710   2.988   8.214
44069SOL    HW234040   4.607   2.910   8.293
44070SOL     OW34041   5.536  10.763   6.982
44070SOL    HW134042   5.565  10.781   7.071
44070SOL    HW234043   5.455  10.813   6.972
44071SOL     OW34044  13.759  11.688  13.529
44071SOL    HW134045  13.850  11.698  13.557
44071SOL    HW234046  13.742  11.766  13.476
44072SOL     OW34047   2.596   8.763  10.546
44072SOL    HW134048   2.592   8.700  10.618
44072SOL    HW234049   2.673   8.737  10.496
44073SOL     OW34050   6.972   1.930   3.787
44073SOL    HW134051   6.999   1.869   3.856
44073SOL    HW234052   7.038   2.000   3.790
44074SOL     OW34053  12.122   7.747  12.641
44074SOL    HW134054  12.168   7.663  12.642
44074SOL    HW234055  12.167   7.800  12.707
44075SOL     OW34056  10.374  13.757   0.757
44075SOL    HW134057  10.422  13.698   0.699
44075SOL    HW234058  10.430  13.834   0.764
44076SOL     OW34059   3.744   6.076  11.258
44076SOL    HW134060   3.768   6.147  11.318
44076SOL    HW234061   3.814   6.075  11.193
44077SOL     OW34062   9.058  10.974  13.957
44077SOL    HW134063   8.967  10.995  13.935
44077SOL    HW234064   9.075  11.022  14.038
44078SOL     OW34065   4.943   3.001   3.025
44078SOL    HW134066   5.008   3.017   3.093
44078SOL    HW234067   4.874   2.952   3.068
44079SOL     OW34068   8.606  11.565  13.715
44079SOL    HW134069   8.635  11.598  13.800
44079SOL    HW234070   8.510  11.568  13.719
44080SOL     OW34071   2.969   1.794   9.174
44080SOL    HW134072   2.913   1.862   9.138
44080SOL    HW234073   2.925   1.766   9.254
44081SOL     OW34074   8.805  11.860  14.363
44081SOL    HW134075   8.766  11.947  14.369
44081SOL    HW234076   8.732  11.800  14.383
44082SOL     OW34077   2.975   2.646   2.021
44082SOL    HW134078   3.057   2.599   2.008
44082SOL    HW234079   2.983   2.724   1.967
44083SOL     OW34080  12.533   2.496   4.538
44083SOL    HW134081  12.462   2.433   4.549
44083SOL    HW234082  12.524   2.557   4.612
44084SOL     OW34083  10.630  14.593   5.953
44084SOL    HW134084  10.559  14.577   6.016
44084SOL    HW234085  10.590  14.649   5.886
44085SOL     OW34086  14.025   8.992   5.434
44085SOL    HW134087  14.116   8.981   5.463
44085SOL    HW234088  14.007   8.915   5.381
44086SOL     OW34089  11.084   9.365  12.373
44086SOL    HW134090  11.019   9.435  12.378
44086SOL    HW234091  11.161   9.407  12.333
44087SOL     OW34092   1.502   8.993   4.588
44087SOL    HW134093   1.447   9.051   4.641
44087SOL    HW234094   1.513   8.915   4.643
44088SOL     OW34095   5.869   2.860   6.790
44088SOL    HW134096   5.779   2.863   6.824
44088SOL    HW234097   5.905   2.946   6.810
44089SOL     OW34098  14.079  14.805  12.535
44089SOL    HW134099  14.120  14.876  12.583
44089SOL    HW234100  14.147  14.738  12.528
44090SOL     OW34101   8.553   2.173  12.629
44090SOL    HW134102   8.582   2.178  12.538
44090SOL    HW234103   8.625   2.128  12.674
44091SOL     OW34104  11.429   9.987  14.210
44091SOL    HW134105  11.466  10.075  14.215
44091SOL    HW234106  11.399   9.978  14.120
44092SOL     OW34107   5.674   1.801  11.397
44092SOL    HW134108   5.647   1.773  11.484
44092SOL    HW234109   5.593   1.825  11.353
44093SOL     OW34110  12.232   0.398   7.080
44093SOL    HW134111  12.264   0.479   7.041
44093SOL    HW234112  12.303   0.335   7.068
44094SOL     OW34113   1.808   1.412  14.415
44094SOL    HW134114   1.888   1.427  14.465
44094SOL    HW234115   1.805   1.484  14.353
44095SOL     OW34116  13.339   9.652  12.401
44095SOL    HW134117  13.376   9.587  12.461
44095SOL    HW234118  13.411   9.674  12.342
44096SOL     OW34119   1.271  11.161  12.751
44096SOL    HW134120   1.307  11.176  12.839
44096SOL    HW234121   1.205  11.093  12.764
44097SOL     OW34122  14.451  13.343  13.617
44097SOL    HW134123  14.505  13.269  13.645
44097SOL    HW234124  14.363  13.305  13.608
44098SOL     OW34125   2.605   8.057  13.142
44098SOL    HW134126   2.611   8.152  13.128
44098SOL    HW234127   2.512   8.037  13.132
44099SOL     OW34128   0.546  10.895   3.208
44099SOL    HW134129   0.575  10.916   3.297
44099SOL    HW234130   0.627  10.877   3.160
44100SOL     OW34131  12.671   6.735   9.212
44100SOL    HW134132  12.686   6.691   9.295
44100SOL    HW234133  12.723   6.686   9.149
44101SOL     OW34134  10.677   5.760   5.476
44101SOL    HW134135  10.767   5.736   5.500
44101SOL    HW234136  10.680   5.770   5.381
44102SOL     OW34137   8.347  11.750  12.845
44102SOL    HW134138   8.413  11.696  12.888
44102SOL    HW234139   8.302  11.691  12.785
44103SOL     OW34140   8.099   2.684  13.124
44103SOL    HW134141   8.065   2.623  13.058
44103SOL    HW234142   8.022   2.734  13.151
44104SOL     OW34143   8.385  10.224   2.842
44104SOL    HW134144   8.389  10.298   2.902
44104SOL    HW234145   8.293  10.198   2.840
44105SOL     OW34146   7.417   9.882   3.712
44105SOL    HW134147   7.494   9.906   3.660
44105SOL    HW234148   7.348   9.941   3.680
44106SOL     OW34149   5.726   5.488   3.864
44106SOL    HW134150   5.713   5.396   3.886
44106SOL    HW234151   5.815   5.492   3.829
44107SOL     OW34152   3.726   6.564   2.938
44107SOL    HW134153   3.765   6.555   2.850
44107SOL    HW234154   3.665   6.490   2.945
44108SOL     OW34155   1.212   9.752   7.088
44108SOL    HW134156   1.167   9.685   7.036
44108SOL    HW234157   1.188   9.732   7.178
44109SOL     OW34158   9.008   6.976  12.318
44109SOL    HW134159   8.975   6.996  12.406
44109SOL    HW234160   9.064   6.900  12.330
44110SOL     OW34161   5.784   6.062  14.062
44110SOL    HW134162   5.829   6.130  14.011
44110SOL    HW234163   5.772   5.990  14.001
44111SOL     OW34164  10.964   1.358   9.998
44111SOL    HW134165  10.988   1.314  10.079
44111SOL    HW234166  10.871   1.377  10.008
44112SOL     OW34167   8.286  11.382   8.079
44112SOL    HW134168   8.203  11.430   8.086
44112SOL    HW234169   8.337  11.412   8.155
44113SOL     OW34170   4.510  12.567   5.268
44113SOL    HW134171   4.512  12.520   5.352
44113SOL    HW234172   4.423  12.548   5.232
44114SOL     OW34173   5.116  12.307  11.840
44114SOL    HW134174   5.101  12.398  11.815
44114SOL    HW234175   5.124  12.309  11.935
44115SOL     OW34176   6.062   9.155  13.743
44115SOL    HW134177   6.101   9.091  13.803
44115SOL    HW234178   6.009   9.103  13.683
44116SOL     OW34179  11.511   4.770   3.949
44116SOL    HW134180  11.545   4.814   4.027
44116SOL    HW234181  11.445   4.709   3.983
44117SOL     OW34182   8.835   2.736  10.127
44117SOL    HW134183   8.910   2.760  10.073
44117SOL    HW234184   8.869   2.671  10.189
44118SOL     OW34185   4.856  13.397   7.886
44118SOL    HW134186   4.920  13.462   7.916
44118SOL    HW234187   4.909  13.328   7.845
44119SOL     OW34188   6.755  12.986   9.847
44119SOL    HW134189   6.777  13.078   9.833
44119SOL    HW234190   6.717  12.958   9.763
44120SOL     OW34191  13.456   9.798   5.634
44120SOL    HW134192  13.491   9.827   5.718
44120SOL    HW234193  13.533   9.769   5.585
44121SOL     OW34194   3.015  13.920   2.425
44121SOL    HW134195   2.990  14.004   2.464
44121SOL    HW234196   3.096  13.939   2.378
44122SOL     OW34197   3.139   5.721   3.388
44122SOL    HW134198   3.228   5.691   3.406
44122SOL    HW234199   3.090   5.703   3.468
44123SOL     OW34200   6.817  11.387   3.539
44123SOL    HW134201   6.807  11.482   3.533
44123SOL    HW234202   6.874  11.364   3.466
44124SOL     OW34203   4.426  11.950  13.745
44124SOL    HW134204   4.399  12.024  13.798
44124SOL    HW234205   4.412  11.873  13.800
44125SOL     OW34206   4.413   0.915   7.391
44125SOL    HW134207   4.452   0.884   7.309
44125SOL    HW234208   4.391   0.835   7.439
44126SOL     OW34209  11.183   5.691  13.270
44126SOL    HW134210  11.253   5.645  13.317
44126SOL    HW234211  11.103   5.652  13.303
44127SOL     OW34212  12.728   9.751   7.826
44127SOL    HW134213  12.738   9.793   7.740
44127SOL    HW234214  12.664   9.682   7.812
44128SOL     OW34215   2.939   0.408   8.279
44128SOL    HW134216   2.934   0.355   8.200
44128SOL    HW234217   2.958   0.345   8.349
44129SOL     OW34218  12.387  12.463  11.108
44129SOL    HW134219  12.429  12.542  11.075
44129SOL    HW234220  12.317  12.495  11.165
44130SOL     OW34221   9.397   4.543   0.739
44130SOL    HW134222   9.368   4.472   0.796
44130SOL    HW234223   9.479   4.511   0.701
44131SOL     OW34224   2.415   1.522   7.147
44131SOL    HW134225   2.474   1.591   7.176
44131SOL    HW234226   2.333   1.567   7.126
44132SOL     OW34227   1.542   1.699  11.192
44132SOL    HW134228   1.526   1.732  11.103
44132SOL    HW234229   1.637   1.706  11.204
44133SOL     OW34230   0.384   1.527   6.857
44133SOL    HW134231   0.303   1.481   6.839
44133SOL    HW234232   0.453   1.462   6.844
44134SOL     OW34233   9.355   2.348   4.497
44134SOL    HW134234   9.420   2.279   4.487
44134SOL    HW234235   9.389   2.421   4.444
44135SOL     OW34236  11.915  12.288   2.419
44135SOL    HW134237  11.962  12.277   2.336
44135SOL    HW234238  11.904  12.382   2.428
44136SOL     OW34239   9.875   5.128  10.670
44136SOL    HW134240   9.950   5.076  10.644
44136SOL    HW234241   9.912   5.206  10.710
44137SOL     OW34242   3.524  10.542   5.769
44137SOL    HW134243   3.516  10.637   5.764
44137SOL    HW234244   3.528  10.513   5.678
44138SOL     OW34245  10.789  11.711   4.699
44138SOL    HW134246  10.776  11.681   4.788
44138SOL    HW234247  10.765  11.804   4.701
44139SOL     OW34248   2.738  10.094   0.456
44139SOL    HW134249   2.766  10.048   0.535
44139SOL    HW234250   2.676  10.034   0.414
44140SOL     OW34251   3.842   8.241  12.070
44140SOL    HW134252   3.799   8.290  12.000
44140SOL    HW234253   3.809   8.281  12.151
44141SOL     OW34254  12.621   6.126   3.355
44141SOL    HW134255  12.582   6.060   3.412
44141SOL    HW234256  12.548   6.180   3.325
44142SOL     OW34257   4.251  10.406  12.598
44142SOL    HW134258   4.338  10.417  12.560
44142SOL    HW234259   4.267  10.400  12.692
44143SOL     OW34260   0.472   0.056   5.631
44143SOL    HW134261   0.543   0.034   5.571
44143SOL    HW234262   0.505   0.033   5.718
44144SOL     OW34263   0.321  11.226   7.607
44144SOL    HW134264   0.305  11.144   7.653
44144SOL    HW234265   0.288  11.294   7.665
44145SOL     OW34266   7.678  13.406   5.107
44145SOL    HW134267   7.633  13.346   5.166
44145SOL    HW234268   7.765  13.416   5.144
44146SOL     OW34269   0.062  10.030   8.003
44146SOL    HW134270   0.045  10.090   7.931
44146SOL    HW234271  14.863  10.030   8.054
44147SOL     OW34272   7.749   1.915  13.704
44147SOL    HW134273   7.710   1.828  13.714
44147SOL    HW234274   7.827   1.901  13.651
44148SOL     OW34275   1.101   9.030  11.408
44148SOL    HW134276   1.150   8.953  11.381
44148SOL    HW234277   1.157   9.104  11.385
44149SOL     OW34278   5.162   0.192   6.312
44149SOL    HW134279   5.224   0.198   6.240
44149SOL    HW234280   5.081   0.161   6.272
44150SOL     OW34281   5.742   8.792  11.700
44150SOL    HW134282   5.728   8.864  11.762
44150SOL    HW234283   5.806   8.735  11.742
44151SOL     OW34284  13.080   6.671   6.793
44151SOL    HW134285  13.110   6.641   6.707
44151SOL    HW234286  13.135   6.623   6.855
44152SOL     OW34287   9.624   0.254   6.218
44152SOL    HW134288   9.536   0.226   6.245
44152SOL    HW234289   9.683   0.194   6.264
44153SOL     OW34290   6.936   1.995  13.981
44153SOL    HW134291   6.991   1.945  13.920
44153SOL    HW234292   6.960   1.962  14.067
44154SOL     OW34293   4.927   8.927   6.208
44154SOL    HW134294   5.003   8.972   6.171
44154SOL    HW234295   4.858   8.936   6.142
44155SOL     OW34296   7.278  13.019   4.058
44155SOL    HW134297   7.290  13.104   4.100
44155SOL    HW234298   7.359  12.971   4.076
44156SOL     OW34299   6.621   1.099  10.740
44156SOL    HW134300   6.650   1.107  10.649
44156SOL    HW234301   6.644   1.009  10.764
44157SOL     OW34302   8.266   1.724   2.842
44157SOL    HW134303   8.258   1.791   2.910
44157SOL    HW234304   8.263   1.773   2.760
44158SOL     OW34305   0.185  14.305   7.340
44158SOL    HW134306   0.168  14.379   7.282
44158SOL    HW234307   0.130  14.321   7.417
44159SOL     OW34308  11.718   8.368   9.740
44159SOL    HW134309  11.728   8.273   9.745
44159SOL    HW234310  11.639   8.381   9.687
44160SOL     OW34311   7.787   6.794  11.013
44160SOL    HW134312   7.727   6.785  11.088
44160SOL    HW234313   7.735   6.839  10.947
44161SOL     OW34314   3.022   5.376   0.044
44161SOL    HW134315   3.024   5.469   0.065
44161SOL    HW234316   3.087   5.366  14.857
44162SOL     OW34317  13.402  13.690  12.820
44162SOL    HW134318  13.368  13.702  12.909
44162SOL    HW234319  13.442  13.603  12.821
44163SOL     OW34320   1.548   6.450   6.980
44163SOL    HW134321   1.569   6.521   7.042
44163SOL    HW234322   1.633   6.424   6.945
44164SOL     OW34323  13.512  13.032  11.869
44164SOL    HW134324  13.557  13.109  11.903
44164SOL    HW234325  13.576  12.961  11.876
44165SOL     OW34326   0.621   0.208  14.786
44165SOL    HW134327   0.534   0.224  14.749
44165SOL    HW234328   0.679   0.203  14.709
44166SOL     OW34329  11.950  13.590   6.208
44166SOL    HW134330  11.942  13.529   6.134
44166SOL    HW234331  12.043  13.585   6.232
44167SOL     OW34332  14.766   3.639  13.236
44167SOL    HW134333  14.802   3.727  13.228
44167SOL    HW234334  14.725   3.637  13.323
44168SOL     OW34335   1.782   8.784  14.549
44168SOL    HW134336   1.876   8.766  14.541
44168SOL    HW234337   1.778   8.869  14.595
44169SOL     OW34338   8.565  14.222  10.277
44169SOL    HW134339   8.497  14.181  10.223
44169SOL    HW234340   8.647  14.197  10.235
44170SOL     OW34341   8.183   0.721  11.271
44170SOL    HW134342   8.189   0.625  11.271
44170SOL    HW234343   8.144   0.742  11.187
44171SOL     OW34344  14.365  10.083  10.294
44171SOL    HW134345  14.368  10.079  10.198
44171SOL    HW234346  14.457  10.081  10.321
44172SOL     OW34347  10.533  10.606   5.349
44172SOL    HW134348  10.478  10.566   5.416
44172SOL    HW234349  10.572  10.682   5.392
44173SOL     OW34350   1.889   7.797   8.008
44173SOL    HW134351   1.799   7.807   8.038
44173SOL    HW234352   1.942   7.842   8.074
44174SOL     OW34353   3.582  10.866   7.753
44174SOL    HW134354   3.594  10.775   7.778
44174SOL    HW234355   3.669  10.897   7.729
44175SOL     OW34356   9.841  12.785   4.786
44175SOL    HW134357   9.862  12.870   4.825
44175SOL    HW234358   9.890  12.783   4.704
44176SOL     OW34359   7.400   5.567   3.971
44176SOL    HW134360   7.417   5.634   4.036
44176SOL    HW234361   7.486   5.537   3.943
44177SOL     OW34362  12.093   4.982  11.443
44177SOL    HW134363  12.146   4.949  11.516
44177SOL    HW234364  12.077   4.906  11.388
44178SOL     OW34365   6.291  12.525   3.994
44178SOL    HW134366   6.314  12.552   4.083
44178SOL    HW234367   6.369  12.482   3.962
44179SOL     OW34368  12.982   3.503  10.006
44179SOL    HW134369  12.974   3.442  10.080
44179SOL    HW234370  12.973   3.589  10.045
44180SOL     OW34371  12.163   2.784   7.889
44180SOL    HW134372  12.101   2.712   7.895
44180SOL    HW234373  12.203   2.789   7.976
44181SOL     OW34374   5.401  11.126   0.909
44181SOL    HW134375   5.356  11.207   0.932
44181SOL    HW234376   5.405  11.076   0.991
44182SOL     OW34377  12.033  10.199  12.707
44182SOL    HW134378  12.000  10.142  12.637
44182SOL    HW234379  12.101  10.252  12.664
44183SOL     OW34380  11.321  13.651   6.365
44183SOL    HW134381  11.244  13.617   6.410
44183SOL    HW234382  11.294  13.658   6.273
44184SOL     OW34383   6.487  12.008   9.080
44184SOL    HW134384   6.434  12.082   9.110
44184SOL    HW234385   6.536  11.981   9.158
44185SOL     OW34386   6.825   6.009   7.229
44185SOL    HW134387   6.839   6.076   7.162
44185SOL    HW234388   6.862   6.047   7.309
44186SOL     OW34389  10.607   7.868   0.035
44186SOL    HW134390  10.578   7.849  14.827
44186SOL    HW234391  10.690   7.914   0.024
44187SOL     OW34392   6.321  11.911   3.283
44187SOL    HW134393   6.397  11.879   3.332
44187SOL    HW234394   6.266  11.834   3.271
44188SOL     OW34395   9.976  11.113   4.498
44188SOL    HW134396   9.969  11.197   4.452
44188SOL    HW234397   9.929  11.126   4.580
44189SOL     OW34398   7.309  11.588   9.965
44189SOL    HW134399   7.404  11.584   9.976
44189SOL    HW234400   7.275  11.600  10.054
44190SOL     OW34401   9.667   6.660   8.670
44190SOL    HW134402   9.629   6.699   8.749
44190SOL    HW234403   9.592   6.632   8.618
44191SOL     OW34404  10.518   9.362  13.172
44191SOL    HW134405  10.516   9.321  13.085
44191SOL    HW234406  10.427   9.387  13.189
44192SOL     OW34407   9.762   7.862  10.711
44192SOL    HW134408   9.798   7.946  10.738
44192SOL    HW234409   9.776   7.805  10.786
44193SOL     OW34410   6.263  12.385   4.929
44193SOL    HW134411   6.352  12.360   4.953
44193SOL    HW234412   6.225  12.418   5.010
44194SOL     OW34413   2.840   0.405   7.350
44194SOL    HW134414   2.903   0.431   7.418
44194SOL    HW234415   2.881   0.328   7.309
44195SOL     OW34416   4.065   6.285   9.146
44195SOL    HW134417   4.134   6.266   9.082
44195SOL    HW234418   4.108   6.341   9.211
44196SOL     OW34419   1.915   1.097  14.754
44196SOL    HW134420   1.824   1.099  14.726
44196SOL    HW234421   1.916   1.138  14.840
44197SOL     OW34422   6.710  11.916   2.641
44197SOL    HW134423   6.642  11.945   2.701
44197SOL    HW234424   6.786  11.969   2.663
44198SOL     OW34425   9.140  12.308  14.476
44198SOL    HW134426   9.143  12.322  14.571
44198SOL    HW234427   9.153  12.396  14.439
44199SOL     OW34428   3.691   5.818  10.022
44199SOL    HW134429   3.635   5.751   9.984
44199SOL    HW234430   3.644   5.900  10.006
44200SOL     OW34431   5.353   9.675   8.022
44200SOL    HW134432   5.351   9.583   8.051
44200SOL    HW234433   5.378   9.724   8.100
44201SOL     OW34434   4.730   0.200   5.351
44201SOL    HW134435   4.783   0.239   5.281
44201SOL    HW234436   4.642   0.232   5.333
44202SOL     OW34437  12.260   7.173   9.656
44202SOL    HW134438  12.215   7.145   9.576
44202SOL    HW234439  12.345   7.204   9.625
44203SOL     OW34440   5.838   1.622  13.247
44203SOL    HW134441   5.867   1.708  13.218
44203SOL    HW234442   5.771   1.597  13.183
44204SOL     OW34443  14.692   5.638   5.105
44204SOL    HW134444  14.774   5.589   5.106
44204SOL    HW234445  14.719   5.730   5.102
44205SOL     OW34446   4.262   9.895   5.387
44205SOL    HW134447   4.239   9.821   5.444
44205SOL    HW234448   4.346   9.925   5.420
44206SOL     OW34449   7.979   4.468   1.140
44206SOL    HW134450   7.989   4.389   1.193
44206SOL    HW234451   8.068   4.495   1.118
44207SOL     OW34452  14.521  14.663   9.447
44207SOL    HW134453  14.602  14.708   9.424
44207SOL    HW234454  14.470  14.663   9.366
44208SOL     OW34455  12.944   7.090   6.535
44208SOL    HW134456  12.936   7.029   6.462
44208SOL    HW234457  12.855   7.120   6.552
44209SOL     OW34458   3.951   9.696  14.478
44209SOL    HW134459   3.965   9.686  14.384
44209SOL    HW234460   3.876   9.640  14.497
44210SOL     OW34461   9.509   3.100   2.968
44210SOL    HW134462   9.484   3.023   2.917
44210SOL    HW234463   9.573   3.146   2.913
44211SOL     OW34464   1.135  13.402   2.122
44211SOL    HW134465   1.140  13.498   2.115
44211SOL    HW234466   1.220  13.371   2.089
44212SOL     OW34467   9.092  10.358   3.670
44212SOL    HW134468   9.157  10.341   3.738
44212SOL    HW234469   9.118  10.301   3.598
44213SOL     OW34470  14.843   1.931  13.684
44213SOL    HW134471  14.829   2.018  13.647
44213SOL    HW234472  14.833   1.943  13.779
44214SOL     OW34473   0.291  11.972   5.779
44214SOL    HW134474   0.343  12.013   5.710
44214SOL    HW234475   0.298  12.032   5.853
44215SOL     OW34476  13.278   9.153  14.026
44215SOL    HW134477  13.356   9.108  13.996
44215SOL    HW234478  13.219   9.083  14.055
44216SOL     OW34479   4.878   0.876   2.256
44216SOL    HW134480   4.815   0.939   2.290
44216SOL    HW234481   4.959   0.895   2.302
44217SOL     OW34482   9.655  14.099  12.982
44217SOL    HW134483   9.602  14.130  12.909
44217SOL    HW234484   9.613  14.017  13.008
44218SOL     OW34485   2.464   8.683   4.377
44218SOL    HW134486   2.461   8.756   4.439
44218SOL    HW234487   2.461   8.724   4.291
44219SOL     OW34488   0.353  12.859  12.880
44219SOL    HW134489   0.350  12.791  12.812
44219SOL    HW234490   0.353  12.811  12.963
44220SOL     OW34491   4.220   0.719   3.213
44220SOL    HW134492   4.179   0.744   3.131
44220SOL    HW234493   4.199   0.791   3.273
44221SOL     OW34494  10.202  14.539   5.343
44221SOL    HW134495  10.152  14.608   5.299
44221SOL    HW234496  10.184  14.460   5.291
44222SOL     OW34497   4.785   9.378   9.981
44222SOL    HW134498   4.817   9.378   9.891
44222SOL    HW234499   4.807   9.291  10.014
44223SOL     OW34500  12.044  11.982   6.597
44223SOL    HW134501  11.969  12.038   6.618
44223SOL    HW234502  12.062  11.935   6.678
44224SOL     OW34503  13.203  14.106   5.390
44224SOL    HW134504  13.188  14.061   5.307
44224SOL    HW234505  13.124  14.091   5.441
44225SOL     OW34506  12.037   1.495   2.950
44225SOL    HW134507  11.943   1.487   2.932
44225SOL    HW234508  12.069   1.554   2.881
44226SOL     OW34509  11.837   2.123   1.571
44226SOL    HW134510  11.762   2.179   1.591
44226SOL    HW234511  11.833   2.053   1.637
44227SOL     OW34512  12.512   5.094   3.863
44227SOL    HW134513  12.592   5.125   3.821
44227SOL    HW234514  12.521   5.122   3.954
44228SOL     OW34515   3.618   6.652   8.552
44228SOL    HW134516   3.672   6.704   8.612
44228SOL    HW234517   3.678   6.586   8.517
44229SOL     OW34518   3.307   4.118  13.399
44229SOL    HW134519   3.258   4.039  13.376
44229SOL    HW234520   3.240   4.186  13.406
44230SOL     OW34521   9.687   9.416   5.096
44230SOL    HW134522   9.696   9.321   5.089
44230SOL    HW234523   9.696   9.434   5.190
44231SOL     OW34524  13.244   1.807   5.661
44231SOL    HW134525  13.219   1.785   5.750
44231SOL    HW234526  13.337   1.787   5.656
44232SOL     OW34527  10.486  10.745   7.884
44232SOL    HW134528  10.515  10.799   7.811
44232SOL    HW234529  10.449  10.807   7.947
44233SOL     OW34530  14.786   6.566   8.920
44233SOL    HW134531  14.765   6.608   8.837
44233SOL    HW234532  14.803   6.638   8.980
44234SOL     OW34533  14.204  10.165   7.984
44234SOL    HW134534  14.142  10.215   7.931
44234SOL    HW234535  14.211  10.081   7.940
44235SOL     OW34536  12.131  11.359  14.172
44235SOL    HW134537  12.173  11.342  14.256
44235SOL    HW234538  12.203  11.385  14.114
44236SOL     OW34539   3.723   8.593   2.719
44236SOL    HW134540   3.794   8.561   2.775
44236SOL    HW234541   3.756   8.582   2.630
44237SOL     OW34542  13.497   0.821   5.121
44237SOL    HW134543  13.439   0.861   5.056
44237SOL    HW234544  13.573   0.792   5.070
44238SOL     OW34545   9.172   3.066   4.392
44238SOL    HW134546   9.225   3.037   4.466
44238SOL    HW234547   9.126   3.143   4.423
44239SOL     OW34548   4.469   8.976   2.450
44239SOL    HW134549   4.488   8.882   2.457
44239SOL    HW234550   4.550   9.014   2.416
44240SOL     OW34551   9.174  10.823   1.564
44240SOL    HW134552   9.134  10.743   1.530
44240SOL    HW234553   9.183  10.879   1.487
44241SOL     OW34554   8.595   5.297  14.851
44241SOL    HW134555   8.540   5.271  14.777
44241SOL    HW234556   8.628   5.214   0.004
44242SOL     OW34557  13.157   4.702   1.544
44242SOL    HW134558  13.107   4.629   1.581
44242SOL    HW234559  13.229   4.716   1.605
44243SOL     OW34560   5.885  11.588   9.024
44243SOL    HW134561   5.791  11.607   9.031
44243SOL    HW234562   5.926  11.673   9.011
44244SOL     OW34563  14.820  10.195   0.243
44244SOL    HW134564  14.823  10.103   0.218
44244SOL    HW234565  14.732  10.224   0.220
44245SOL     OW34566   3.961   5.771   4.185
44245SOL    HW134567   3.917   5.788   4.102
44245SOL    HW234568   4.029   5.839   4.191
44246SOL     OW34569   0.156   2.028   5.459
44246SOL    HW134570   0.160   2.009   5.365
44246SOL    HW234571   0.231   1.983   5.496
44247SOL     OW34572   1.339  10.331   8.555
44247SOL    HW134573   1.430  10.325   8.583
44247SOL    HW234574   1.327  10.422   8.529
44248SOL     OW34575   9.324   4.462   3.317
44248SOL    HW134576   9.374   4.507   3.385
44248SOL    HW234577   9.377   4.472   3.238
44249SOL     OW34578   1.571   0.559  14.555
44249SOL    HW134579   1.500   0.622  14.567
44249SOL    HW234580   1.648   0.613  14.538
44250SOL     OW34581  12.251  12.402   5.459
44250SOL    HW134582  12.313  12.463   5.420
44250SOL    HW234583  12.276  12.398   5.551
44251SOL     OW34584  14.779  12.564   6.702
44251SOL    HW134585  14.822  12.542   6.620
44251SOL    HW234586  14.708  12.500   6.710
44252SOL     OW34587   1.760   9.125  10.287
44252SOL    HW134588   1.808   9.206  10.307
44252SOL    HW234589   1.818   9.055  10.314
44253SOL     OW34590  11.953   1.052  11.296
44253SOL    HW134591  11.881   1.049  11.232
44253SOL    HW234592  12.032   1.057  11.242
44254SOL     OW34593  12.717   2.240   6.536
44254SOL    HW134594  12.802   2.275   6.565
44254SOL    HW234595  12.736   2.201   6.450
44255SOL     OW34596   0.579   4.005   4.604
44255SOL    HW134597   0.518   4.044   4.541
44255SOL    HW234598   0.530   4.002   4.686
44256SOL     OW34599  12.885  13.631   9.385
44256SOL    HW134600  12.792  13.635   9.364
44256SOL    HW234601  12.919  13.717   9.359
44257SOL     OW34602   7.148  13.404   3.506
44257SOL    HW134603   7.139  13.309   3.499
44257SOL    HW234604   7.069  13.438   3.464
44258SOL     OW34605   9.730   8.012  10.117
44258SOL    HW134606   9.730   8.017  10.213
44258SOL    HW234607   9.660   7.950  10.096
44259SOL     OW34608  11.154  12.243  13.967
44259SOL    HW134609  11.150  12.339  13.966
44259SOL    HW234610  11.247  12.223  13.976
44260SOL     OW34611  11.404   0.804   6.991
44260SOL    HW134612  11.489   0.761   6.991
44260SOL    HW234613  11.395   0.839   7.080
44261SOL     OW34614   5.506  14.460   5.092
44261SOL    HW134615   5.555  14.378   5.100
44261SOL    HW234616   5.436  14.452   5.157
44262SOL     OW34617   4.487   4.136   8.276
44262SOL    HW134618   4.395   4.119   8.299
44262SOL    HW234619   4.522   4.051   8.251
44263SOL     OW34620   4.618   7.587   1.735
44263SOL    HW134621   4.560   7.552   1.667
44263SOL    HW234622   4.657   7.509   1.775
44264SOL     OW34623  11.131   2.441   6.280
44264SOL    HW134624  11.152   2.384   6.354
44264SOL    HW234625  11.205   2.500   6.273
44265SOL     OW34626  14.677   4.063  11.378
44265SOL    HW134627  14.717   3.986  11.337
44265SOL    HW234628  14.751   4.121  11.396
44266SOL     OW34629   6.580   3.738   0.340
44266SOL    HW134630   6.577   3.722   0.434
44266SOL    HW234631   6.642   3.811   0.330
44267SOL     OW34632   9.890   8.996   5.302
44267SOL    HW134633   9.905   8.937   5.228
44267SOL    HW234634   9.933   9.078   5.277
44268SOL     OW34635   3.231   3.260  13.357
44268SOL    HW134636   3.209   3.302  13.440
44268SOL    HW234637   3.318   3.293  13.335
44269SOL     OW34638   6.818   8.388  12.677
44269SOL    HW134639   6.848   8.419  12.763
44269SOL    HW234640   6.897   8.352  12.636
44270SOL     OW34641   5.897  10.961   7.871
44270SOL    HW134642   5.898  10.978   7.965
44270SOL    HW234643   5.863  11.041   7.832
44271SOL     OW34644  11.036   0.745   8.639
44271SOL    HW134645  10.984   0.811   8.594
44271SOL    HW234646  10.974   0.700   8.696
44272SOL     OW34647  10.961  10.695   8.707
44272SOL    HW134648  10.894  10.710   8.773
44272SOL    HW234649  10.931  10.618   8.659
44273SOL     OW34650   8.340  12.462  12.808
44273SOL    HW134651   8.362  12.518  12.734
44273SOL    HW234652   8.273  12.511  12.856
44274SOL     OW34653  11.862   6.874   5.103
44274SOL    HW134654  11.912   6.950   5.132
44274SOL    HW234655  11.914   6.836   5.033
44275SOL     OW34656   0.931  13.083   0.720
44275SOL    HW134657   0.857  13.083   0.659
44275SOL    HW234658   0.921  13.165   0.768
44276SOL     OW34659   9.785  13.838   3.790
44276SOL    HW134660   9.750  13.861   3.876
44276SOL    HW234661   9.714  13.857   3.729
44277SOL     OW34662   1.359   9.176   8.847
44277SOL    HW134663   1.266   9.185   8.826
44277SOL    HW234664   1.363   9.102   8.908
44278SOL     OW34665   7.675  12.718  12.218
44278SOL    HW134666   7.705  12.806  12.198
44278SOL    HW234667   7.611  12.729  12.288
44279SOL     OW34668   0.417  12.513   2.135
44279SOL    HW134669   0.496  12.482   2.091
44279SOL    HW234670   0.411  12.606   2.112
44280SOL     OW34671   0.439   1.258   7.682
44280SOL    HW134672   0.496   1.182   7.673
44280SOL    HW234673   0.441   1.299   7.595
44281SOL     OW34674   8.517   5.182   1.150
44281SOL    HW134675   8.482   5.119   1.088
44281SOL    HW234676   8.447   5.246   1.162
44282SOL     OW34677  10.259   6.103  13.063
44282SOL    HW134678  10.277   6.024  13.114
44282SOL    HW234679  10.274   6.175  13.124
44283SOL     OW34680  10.741   8.599  11.702
44283SOL    HW134681  10.783   8.640  11.627
44283SOL    HW234682  10.787   8.516  11.714
44284SOL     OW34683   2.988   1.319   8.572
44284SOL    HW134684   3.059   1.255   8.569
44284SOL    HW234685   2.943   1.301   8.654
44285SOL     OW34686   0.345   8.899  11.434
44285SOL    HW134687   0.414   8.865  11.377
44285SOL    HW234688   0.387   8.969  11.483
44286SOL     OW34689  10.000   8.101   8.991
44286SOL    HW134690   9.939   8.158   9.038
44286SOL    HW234691   9.949   8.022   8.974
44287SOL     OW34692   9.675   3.333   4.824
44287SOL    HW134693   9.721   3.254   4.850
44287SOL    HW234694   9.742   3.401   4.823
44288SOL     OW34695   7.631  14.013   7.401
44288SOL    HW134696   7.607  13.942   7.342
44288SOL    HW234697   7.674  13.970   7.474
44289SOL     OW34698   1.806   0.739  14.731
44289SOL    HW134699   1.868   0.757  14.661
44289SOL    HW234700   1.722   0.774  14.699
44290SOL     OW34701  14.286   3.266   1.387
44290SOL    HW134702  14.229   3.252   1.463
44290SOL    HW234703  14.365   3.305   1.423
44291SOL     OW34704   4.146   5.964   4.186
44291SOL    HW134705   4.178   6.016   4.260
44291SOL    HW234706   4.225   5.932   4.143
44292SOL     OW34707  11.520  11.549  10.327
44292SOL    HW134708  11.570  11.476  10.291
44292SOL    HW234709  11.429  11.525  10.310
44293SOL     OW34710   2.527   7.452  13.158
44293SOL    HW134711   2.579   7.405  13.093
44293SOL    HW234712   2.470   7.509  13.107
44294SOL     OW34713   1.047   3.779   6.846
44294SOL    HW134714   1.140   3.786   6.868
44294SOL    HW234715   1.045   3.734   6.762
44295SOL     OW34716   0.873   3.955   5.538
44295SOL    HW134717   0.910   4.043   5.547
44295SOL    HW234718   0.924   3.915   5.468
44296SOL     OW34719   0.230   9.582   4.744
44296SOL    HW134720   0.318   9.607   4.771
44296SOL    HW234721   0.220   9.623   4.658
44297SOL     OW34722  13.366   1.014   5.001
44297SOL    HW134723  13.351   1.057   4.917
44297SOL    HW234724  13.436   1.065   5.042
44298SOL     OW34725   1.118  12.418   1.104
44298SOL    HW134726   1.159  12.492   1.148
44298SOL    HW234727   1.052  12.457   1.047
44299SOL     OW34728   3.395   4.171   6.278
44299SOL    HW134729   3.411   4.226   6.356
44299SOL    HW234730   3.311   4.200   6.245
44300SOL     OW34731   7.667   9.314  10.107
44300SOL    HW134732   7.690   9.335  10.016
44300SOL    HW234733   7.638   9.398  10.143
44301SOL     OW34734   3.747   6.596  13.110
44301SOL    HW134735   3.792   6.553  13.182
44301SOL    HW234736   3.817   6.630  13.054
44302SOL     OW34737  14.691   9.411  10.970
44302SOL    HW134738  14.726   9.330  10.933
44302SOL    HW234739  14.749   9.480  10.936
44303SOL     OW34740   4.261  13.778   5.291
44303SOL    HW134741   4.214  13.695   5.285
44303SOL    HW234742   4.349  13.757   5.260
44304SOL     OW34743  11.614   7.975   5.944
44304SOL    HW134744  11.636   7.988   6.036
44304SOL    HW234745  11.627   8.061   5.903
44305SOL     OW34746   3.288   4.934  13.573
44305SOL    HW134747   3.251   5.017  13.602
44305SOL    HW234748   3.300   4.946  13.478
44306SOL     OW34749  13.330   5.832  10.538
44306SOL    HW134750  13.317   5.869  10.451
44306SOL    HW234751  13.297   5.898  10.598
44307SOL     OW34752   8.709   9.318   6.125
44307SOL    HW134753   8.779   9.272   6.077
44307SOL    HW234754   8.657   9.248   6.164
44308SOL     OW34755   4.941   3.495   6.584
44308SOL    HW134756   4.997   3.430   6.626
44308SOL    HW234757   4.987   3.518   6.504
44309SOL     OW34758   3.193  13.299   7.345
44309SOL    HW134759   3.158  13.342   7.267
44309SOL    HW234760   3.118  13.295   7.405
44310SOL     OW34761   8.185  12.048   6.431
44310SOL    HW134762   8.117  12.115   6.430
44310SOL    HW234763   8.140  11.968   6.404
44311SOL     OW34764   2.508   6.532   2.938
44311SOL    HW134765   2.417   6.562   2.932
44311SOL    HW234766   2.502   6.449   2.985
44312SOL     OW34767   7.071  10.548   4.873
44312SOL    HW134768   7.127  10.523   4.947
44312SOL    HW234769   6.982  10.543   4.907
44313SOL     OW34770   2.494   8.443   9.523
44313SOL    HW134771   2.558   8.420   9.590
44313SOL    HW234772   2.412   8.404   9.554
44314SOL     OW34773   5.861   3.188  11.882
44314SOL    HW134774   5.824   3.192  11.970
44314SOL    HW234775   5.840   3.100  11.850
44315SOL     OW34776  12.223   6.525   9.027
44315SOL    HW134777  12.283   6.478   9.086
44315SOL    HW234778  12.146   6.543   9.081
44316SOL     OW34779   8.275   1.860  11.644
44316SOL    HW134780   8.367   1.846  11.664
44316SOL    HW234781   8.250   1.784  11.592
44317SOL     OW34782   4.401   5.249   5.607
44317SOL    HW134783   4.485   5.223   5.569
44317SOL    HW234784   4.366   5.314   5.545
44318SOL     OW34785   4.637  10.724  10.570
44318SOL    HW134786   4.558  10.696  10.524
44318SOL    HW234787   4.678  10.643  10.600
44319SOL     OW34788  12.151  10.885  11.492
44319SOL    HW134789  12.216  10.840  11.439
44319SOL    HW234790  12.088  10.818  11.516
44320SOL     OW34791   5.304   7.625  12.688
44320SOL    HW134792   5.244   7.586  12.624
44320SOL    HW234793   5.330   7.709  12.650
44321SOL     OW34794  13.496   9.770  10.180
44321SOL    HW134795  13.487   9.706  10.109
44321SOL    HW234796  13.469   9.853  10.141
44322SOL     OW34797   4.739   5.512   8.678
44322SOL    HW134798   4.684   5.436   8.656
44322SOL    HW234799   4.680   5.571   8.726
44323SOL     OW34800   8.811   1.861   3.735
44323SOL    HW134801   8.774   1.944   3.767
44323SOL    HW234802   8.800   1.801   3.808
44324SOL     OW34803   3.323  10.648   1.507
44324SOL    HW134804   3.350  10.664   1.598
44324SOL    HW234805   3.248  10.705   1.494
44325SOL     OW34806   1.583   1.678   4.018
44325SOL    HW134807   1.613   1.651   3.931
44325SOL    HW234808   1.489   1.694   4.007
44326SOL     OW34809   7.557  14.559   2.258
44326SOL    HW134810   7.522  14.471   2.274
44326SOL    HW234811   7.569  14.596   2.345
44327SOL     OW34812   1.331  10.485   3.875
44327SOL    HW134813   1.280  10.551   3.922
44327SOL    HW234814   1.422  10.501   3.901
44328SOL     OW34815  14.086   2.950   0.504
44328SOL    HW134816  14.025   2.961   0.430
44328SOL    HW234817  14.162   3.003   0.480
44329SOL     OW34818   8.110   8.891   2.228
44329SOL    HW134819   8.094   8.824   2.294
44329SOL    HW234820   8.114   8.843   2.145
44330SOL     OW34821   9.705   2.084   5.392
44330SOL    HW134822   9.612   2.072   5.372
44330SOL    HW234823   9.710   2.169   5.435
44331SOL     OW34824   4.673   9.395  10.436
44331SOL    HW134825   4.673   9.412  10.530
44331SOL    HW234826   4.682   9.481  10.396
44332SOL     OW34827  11.385   4.215   7.455
44332SOL    HW134828  11.316   4.195   7.518
44332SOL    HW234829  11.463   4.232   7.508
44333SOL     OW34830   8.422  10.715  11.106
44333SOL    HW134831   8.481  10.759  11.168
44333SOL    HW234832   8.355  10.781  11.088
44334SOL     OW34833  14.186  11.645   8.267
44334SOL    HW134834  14.269  11.693   8.265
44334SOL    HW234835  14.124  11.707   8.306
44335SOL     OW34836   0.801  13.429  13.700
44335SOL    HW134837   0.797  13.453  13.792
44335SOL    HW234838   0.844  13.504  13.658
44336SOL     OW34839   2.750   6.015   1.736
44336SOL    HW134840   2.684   6.018   1.667
44336SOL    HW234841   2.701   6.001   1.817
44337SOL     OW34842   6.834   1.342   0.332
44337SOL    HW134843   6.888   1.270   0.298
44337SOL    HW234844   6.895   1.395   0.383
44338SOL     OW34845   7.193   4.529   3.757
44338SOL    HW134846   7.244   4.449   3.762
44338SOL    HW234847   7.147   4.524   3.673
44339SOL     OW34848   1.223   8.867  14.749
44339SOL    HW134849   1.171   8.862  14.669
44339SOL    HW234850   1.304   8.821  14.728
44340SOL     OW34851   0.016   3.408   1.095
44340SOL    HW134852  14.807   3.405   1.124
44340SOL    HW234853   0.044   3.498   1.115
44341SOL     OW34854  14.397   6.171  13.848
44341SOL    HW134855  14.418   6.254  13.891
44341SOL    HW234856  14.482   6.137  13.821
44342SOL     OW34857   4.992  12.923   8.276
44342SOL    HW134858   4.982  12.906   8.182
44342SOL    HW234859   4.909  12.896   8.314
44343SOL     OW34860  12.257   3.102   2.167
44343SOL    HW134861  12.245   3.153   2.086
44343SOL    HW234862  12.351   3.086   2.172
44344SOL     OW34863  14.666   0.609   2.794
44344SOL    HW134864  14.620   0.693   2.788
44344SOL    HW234865  14.729   0.612   2.722
44345SOL     OW34866   5.620   5.498   7.002
44345SOL    HW134867   5.677   5.433   6.961
44345SOL    HW234868   5.575   5.450   7.071
44346SOL     OW34869   9.200   9.197   4.533
44346SOL    HW134870   9.168   9.108   4.540
44346SOL    HW234871   9.183   9.236   4.619
44347SOL     OW34872   2.965   4.469   6.490
44347SOL    HW134873   2.901   4.513   6.435
44347SOL    HW234874   2.931   4.480   6.579
44348SOL     OW34875   2.522   6.123  11.238
44348SOL    HW134876   2.581   6.078  11.300
44348SOL    HW234877   2.537   6.216  11.254
44349SOL     OW34878  11.731  10.101   8.153
44349SOL    HW134879  11.656  10.160   8.147
44349SOL    HW234880  11.708  10.028   8.096
44350SOL     OW34881   6.066   7.467   2.273
44350SOL    HW134882   6.118   7.390   2.296
44350SOL    HW234883   6.014   7.439   2.197
44351SOL     OW34884  14.511   3.250   0.861
44351SOL    HW134885  14.455   3.327   0.847
44351SOL    HW234886  14.535   3.221   0.773
44352SOL     OW34887   6.266   9.839  12.805
44352SOL    HW134888   6.259   9.753  12.845
44352SOL    HW234889   6.260   9.901  12.878
44353SOL     OW34890   9.751  14.309   2.124
44353SOL    HW134891   9.682  14.321   2.190
44353SOL    HW234892   9.831  14.334   2.170
44354SOL     OW34893   9.386   6.283  12.764
44354SOL    HW134894   9.384   6.248  12.853
44354SOL    HW234895   9.479   6.297  12.746
44355SOL     OW34896  10.311  12.350  11.573
44355SOL    HW134897  10.310  12.408  11.497
44355SOL    HW234898  10.268  12.400  11.643
44356SOL     OW34899  13.187  12.420   8.870
44356SOL    HW134900  13.261  12.480   8.883
44356SOL    HW234901  13.175  12.378   8.955
44357SOL     OW34902   0.266   4.648  10.962
44357SOL    HW134903   0.311   4.700  11.029
44357SOL    HW234904   0.278   4.698  10.881
44358SOL     OW34905   3.091  10.930   6.328
44358SOL    HW134906   3.060  11.020   6.324
44358SOL    HW234907   3.030  10.881   6.273
44359SOL     OW34908   2.441   5.232   4.444
44359SOL    HW134909   2.452   5.247   4.537
44359SOL    HW234910   2.366   5.286   4.419
44360SOL     OW34911   1.231  11.896   7.874
44360SOL    HW134912   1.141  11.882   7.846
44360SOL    HW234913   1.284  11.866   7.801
44361SOL     OW34914   9.463   6.720  10.668
44361SOL    HW134915   9.439   6.699  10.577
44361SOL    HW234916   9.506   6.641  10.700
44362SOL     OW34917   9.505   5.892   0.046
44362SOL    HW134918   9.551   5.974   0.063
44362SOL    HW234919   9.530   5.834   0.118
44363SOL     OW34920   2.843  11.203   4.460
44363SOL    HW134921   2.936  11.189   4.474
44363SOL    HW234922   2.832  11.201   4.365
44364SOL     OW34923   5.606   7.977   7.693
44364SOL    HW134924   5.520   8.018   7.702
44364SOL    HW234925   5.656   8.037   7.637
44365SOL     OW34926   1.602   3.944   3.471
44365SOL    HW134927   1.517   3.986   3.486
44365SOL    HW234928   1.586   3.851   3.487
44366SOL     OW34929  12.493   6.823   6.891
44366SOL    HW134930  12.412   6.776   6.870
44366SOL    HW234931  12.503   6.886   6.819
44367SOL     OW34932   0.356   0.429   8.805
44367SOL    HW134933   0.297   0.356   8.786
44367SOL    HW234934   0.309   0.506   8.773
44368SOL     OW34935   8.440   5.435  10.509
44368SOL    HW134936   8.512   5.447  10.571
44368SOL    HW234937   8.434   5.519  10.463
44369SOL     OW34938   6.240   3.935  11.661
44369SOL    HW134939   6.226   3.896  11.575
44369SOL    HW234940   6.151   3.943  11.698
44370SOL     OW34941  10.669  12.403   8.942
44370SOL    HW134942  10.760  12.398   8.910
44370SOL    HW234943  10.637  12.487   8.908
44371SOL     OW34944   3.919   2.770  13.024
44371SOL    HW134945   3.959   2.792  13.108
44371SOL    HW234946   3.846   2.712  13.045
44372SOL     OW34947   0.564   2.735  10.844
44372SOL    HW134948   0.515   2.653  10.833
44372SOL    HW234949   0.652   2.715  10.813
44373SOL     OW34950   5.985  14.235   3.570
44373SOL    HW134951   5.923  14.251   3.499
44373SOL    HW234952   6.068  14.271   3.538
44374SOL     OW34953  10.542  12.796  10.672
44374SOL    HW134954  10.551  12.729  10.605
44374SOL    HW234955  10.580  12.756  10.751
44375SOL     OW34956   3.363   0.543   9.550
44375SOL    HW134957   3.447   0.512   9.516
44375SOL    HW234958   3.369   0.528   9.645
44376SOL     OW34959   7.917   5.318   9.856
44376SOL    HW134960   7.827   5.317   9.823
44376SOL    HW234961   7.935   5.411   9.873
44377SOL     OW34962   4.863  11.259   2.337
44377SOL    HW134963   4.866  11.165   2.354
44377SOL    HW234964   4.797  11.269   2.269
44378SOL     OW34965  14.266   6.323  14.221
44378SOL    HW134966  14.293   6.375  14.296
44378SOL    HW234967  14.238   6.387  14.156
44379SOL     OW34968   6.321  10.160   9.737
44379SOL    HW134969   6.390  10.224   9.755
44379SOL    HW234970   6.241  10.213   9.733
44380SOL     OW34971   2.231  13.569  11.783
44380SOL    HW134972   2.160  13.590  11.722
44380SOL    HW234973   2.197  13.591  11.869
44381SOL     OW34974   7.318   5.297  12.443
44381SOL    HW134975   7.348   5.211  12.474
44381SOL    HW234976   7.394   5.334  12.399
44382SOL     OW34977   7.080   3.565   4.220
44382SOL    HW134978   6.999   3.611   4.243
44382SOL    HW234979   7.104   3.517   4.299
44383SOL     OW34980   0.324   3.600   2.733
44383SOL    HW134981   0.303   3.524   2.788
44383SOL    HW234982   0.278   3.673   2.775
44384SOL     OW34983   1.262   0.537   5.081
44384SOL    HW134984   1.297   0.621   5.112
44384SOL    HW234985   1.304   0.523   4.996
44385SOL     OW34986  10.535   1.758   0.399
44385SOL    HW134987  10.619   1.741   0.357
44385SOL    HW234988  10.520   1.681   0.454
44386SOL     OW34989  13.691   0.525   3.889
44386SOL    HW134990  13.777   0.546   3.852
44386SOL    HW234991  13.629   0.551   3.820
44387SOL     OW34992   2.007  12.061  11.017
44387SOL    HW134993   1.944  11.998  10.984
44387SOL    HW234994   2.092  12.031  10.984
44388SOL     OW34995  14.421   5.353   6.364
44388SOL    HW134996  14.427   5.392   6.277
44388SOL    HW234997  14.416   5.428   6.424
44389SOL     OW34998   7.908   1.933  11.160
44389SOL    HW134999   7.955   1.851  11.141
44389SOL    HW235000   7.951   1.967  11.239
44390SOL     OW35001  14.286   6.736   7.337
44390SOL    HW135002  14.196   6.770   7.336
44390SOL    HW235003  14.277   6.647   7.370
44391SOL     OW35004   9.739   9.537  10.900
44391SOL    HW135005   9.716   9.629  10.884
44391SOL    HW235006   9.658   9.489  10.882
44392SOL     OW35007   1.912   1.710  13.669
44392SOL    HW135008   1.911   1.664  13.585
44392SOL    HW235009   1.954   1.649  13.730
44393SOL     OW35010   5.859   5.807  12.746
44393SOL    HW135011   5.947   5.788  12.777
44393SOL    HW235012   5.832   5.728  12.699
44394SOL     OW35013   2.097   0.384   3.389
44394SOL    HW135014   2.152   0.456   3.421
44394SOL    HW235015   2.026   0.378   3.453
44395SOL     OW35016   3.873  12.746   9.089
44395SOL    HW135017   3.920  12.787   9.017
44395SOL    HW235018   3.866  12.814   9.155
44396SOL     OW35019   4.056   3.719  10.810
44396SOL    HW135020   4.131   3.663  10.793
44396SOL    HW235021   4.087   3.808  10.791
44397SOL     OW35022   6.301   5.095   1.337
44397SOL    HW135023   6.292   5.016   1.392
44397SOL    HW235024   6.318   5.165   1.399
44398SOL     OW35025   6.833   3.300   0.148
44398SOL    HW135026   6.742   3.301   0.179
44398SOL    HW235027   6.884   3.329   0.223
44399SOL     OW35028   3.148  11.744  10.707
44399SOL    HW135029   3.106  11.766  10.623
44399SOL    HW235030   3.075  11.719  10.764
44400SOL     OW35031   7.287  12.915   6.864
44400SOL    HW135032   7.270  12.828   6.827
44400SOL    HW235033   7.256  12.909   6.955
44401SOL     OW35034   2.824   4.215   5.123
44401SOL    HW135035   2.747   4.174   5.163
44401SOL    HW235036   2.855   4.277   5.189
44402SOL     OW35037   4.904  14.570   8.343
44402SOL    HW135038   4.835  14.578   8.408
44402SOL    HW235039   4.985  14.588   8.392
44403SOL     OW35040   7.722   8.734   7.823
44403SOL    HW135041   7.651   8.751   7.885
44403SOL    HW235042   7.778   8.671   7.868
44404SOL     OW35043  10.794   9.889  12.720
44404SOL    HW135044  10.830   9.978  12.718
44404SOL    HW235045  10.746   9.881  12.637
44405SOL     OW35046  12.703   4.857   7.693
44405SOL    HW135047  12.611   4.886   7.694
44405SOL    HW235048  12.706   4.791   7.624
44406SOL     OW35049   8.382  11.436  11.806
44406SOL    HW135050   8.403  11.515  11.856
44406SOL    HW235051   8.447  11.434  11.737
44407SOL     OW35052   0.676   3.591   1.812
44407SOL    HW135053   0.753   3.643   1.835
44407SOL    HW235054   0.623   3.650   1.759
44408SOL     OW35055   4.352  13.756   6.390
44408SOL    HW135056   4.293  13.691   6.428
44408SOL    HW235057   4.306  13.791   6.315
44409SOL     OW35058  13.726   2.444  10.507
44409SOL    HW135059  13.775   2.363  10.497
44409SOL    HW235060  13.786   2.503  10.553
44410SOL     OW35061   3.570  10.682  13.014
44410SOL    HW135062   3.619  10.723  13.085
44410SOL    HW235063   3.561  10.591  13.041
44411SOL     OW35064  14.873   0.861  13.882
44411SOL    HW135065  14.784   0.842  13.913
44411SOL    HW235066   0.046   0.850  13.960
44412SOL     OW35067  13.340  12.068  14.602
44412SOL    HW135068  13.377  11.981  14.589
44412SOL    HW235069  13.410  12.128  14.576
44413SOL     OW35070   9.146  13.811   8.578
44413SOL    HW135071   9.100  13.837   8.658
44413SOL    HW235072   9.232  13.783   8.608
44414SOL     OW35073  14.204   6.333   0.597
44414SOL    HW135074  14.167   6.383   0.670
44414SOL    HW235075  14.299   6.338   0.611
44415SOL     OW35076  13.926  14.538  13.083
44415SOL    HW135077  13.843  14.577  13.109
44415SOL    HW235078  13.958  14.596  13.014
44416SOL     OW35079  11.219   1.298   7.679
44416SOL    HW135080  11.210   1.301   7.584
44416SOL    HW235081  11.218   1.204   7.700
44417SOL     OW35082  11.653   3.905   7.290
44417SOL    HW135083  11.574   3.960   7.285
44417SOL    HW235084  11.693   3.913   7.204
44418SOL     OW35085  12.259   4.716   3.352
44418SOL    HW135086  12.254   4.621   3.361
44418SOL    HW235087  12.196   4.737   3.284
44419SOL     OW35088  12.086   5.447   7.117
44419SOL    HW135089  12.131   5.455   7.033
44419SOL    HW235090  12.104   5.530   7.162
44420SOL     OW35091  11.548   0.821   5.415
44420SOL    HW135092  11.496   0.743   5.395
44420SOL    HW235093  11.566   0.860   5.330
44421SOL     OW35094  12.060   6.518   9.771
44421SOL    HW135095  12.042   6.480   9.685
44421SOL    HW235096  12.154   6.538   9.769
44422SOL     OW35097  13.715   0.447   8.712
44422SOL    HW135098  13.802   0.431   8.748
44422SOL    HW235099  13.679   0.516   8.768
44423SOL     OW35100  14.713   9.096   5.927
44423SOL    HW135101  14.618   9.095   5.940
44423SOL    HW235102  14.735   9.008   5.899
44424SOL     OW35103  11.997   6.496   9.493
44424SOL    HW135104  11.918   6.442   9.490
44424SOL    HW235105  12.064   6.443   9.451
44425SOL     OW35106  12.830   9.857  11.811
44425SOL    HW135107  12.878   9.796  11.756
44425SOL    HW235108  12.738   9.841  11.791
44426SOL     OW35109   2.082  13.790   9.420
44426SOL    HW135110   2.013  13.803   9.484
44426SOL    HW235111   2.064  13.855   9.351
44427SOL     OW35112  14.033   8.290  14.393
44427SOL    HW135113  14.114   8.240  14.405
44427SOL    HW235114  14.013   8.281  14.300
44428SOL     OW35115  11.403   4.495   0.669
44428SOL    HW135116  11.459   4.560   0.711
44428SOL    HW235117  11.314   4.525   0.687
44429SOL     OW35118   8.233   6.036   6.171
44429SOL    HW135119   8.176   5.979   6.223
44429SOL    HW235120   8.178   6.065   6.098
44430SOL     OW35121   3.683   7.613  11.492
44430SOL    HW135122   3.689   7.708  11.503
44430SOL    HW235123   3.589   7.595  11.501
44431SOL     OW35124   3.312  11.402  10.080
44431SOL    HW135125   3.241  11.404  10.145
44431SOL    HW235126   3.374  11.337  10.113
44432SOL     OW35127   1.099  11.858   0.977
44432SOL    HW135128   1.038  11.787   0.957
44432SOL    HW235129   1.080  11.925   0.911
44433SOL     OW35130   0.149  10.039   2.104
44433SOL    HW135131   0.244  10.025   2.104
44433SOL    HW235132   0.127  10.057   2.012
44434SOL     OW35133   1.459  14.148  11.051
44434SOL    HW135134   1.407  14.118  11.126
44434SOL    HW235135   1.546  14.109  11.065
44435SOL     OW35136   4.280   5.100   2.630
44435SOL    HW135137   4.230   5.046   2.570
44435SOL    HW235138   4.256   5.069   2.717
44436SOL     OW35139   7.402   9.000  14.288
44436SOL    HW135140   7.369   8.911  14.300
44436SOL    HW235141   7.325   9.056  14.294
44437SOL     OW35142  13.469   9.091   8.018
44437SOL    HW135143  13.416   9.083   7.940
44437SOL    HW235144  13.541   9.029   8.005
44438SOL     OW35145  14.097   7.352  13.450
44438SOL    HW135146  14.075   7.413  13.380
44438SOL    HW235147  14.017   7.301  13.464
44439SOL     OW35148  14.640  10.265   1.730
44439SOL    HW135149  14.564  10.285   1.675
44439SOL    HW235150  14.642  10.169   1.733
44440SOL     OW35151   8.808  12.203  14.007
44440SOL    HW135152   8.741  12.271  14.002
44440SOL    HW235153   8.882  12.240  13.958
44441SOL     OW35154   8.576  12.530   4.813
44441SOL    HW135155   8.512  12.526   4.883
44441SOL    HW235156   8.568  12.446   4.767
44442SOL     OW35157   1.830   2.164   3.003
44442SOL    HW135158   1.823   2.256   2.976
44442SOL    HW235159   1.838   2.167   3.098
44443SOL     OW35160  11.955  12.001  14.014
44443SOL    HW135161  11.894  12.071  14.035
44443SOL    HW235162  11.901  11.933  13.974
44444SOL     OW35163   5.451  14.347   9.012
44444SOL    HW135164   5.419  14.327   9.100
44444SOL    HW235165   5.462  14.262   8.970
44445SOL     OW35166   4.757   6.239  11.465
44445SOL    HW135167   4.795   6.327  11.454
44445SOL    HW235168   4.676   6.242  11.413
44446SOL     OW35169   0.257   4.867  12.140
44446SOL    HW135170   0.240   4.823  12.057
44446SOL    HW235171   0.342   4.833  12.169
44447SOL     OW35172  10.626   5.661  14.694
44447SOL    HW135173  10.637   5.672  14.788
44447SOL    HW235174  10.693   5.597  14.669
44448SOL     OW35175   4.021   7.382   5.045
44448SOL    HW135176   4.064   7.297   5.042
44448SOL    HW235177   4.085   7.443   5.009
44449SOL     OW35178   0.141  12.529   2.260
44449SOL    HW135179   0.057  12.562   2.293
44449SOL    HW235180   0.197  12.606   2.255
44450SOL     OW35181  11.757  11.108   3.371
44450SOL    HW135182  11.853  11.112   3.366
44450SOL    HW235183  11.729  11.199   3.372
44451SOL     OW35184   2.166   7.933  10.605
44451SOL    HW135185   2.100   7.962  10.541
44451SOL    HW235186   2.120   7.934  10.689
44452SOL     OW35187  12.556   0.180   4.258
44452SOL    HW135188  12.651   0.171   4.259
44452SOL    HW235189  12.536   0.228   4.338
44453SOL     OW35190   2.135   5.281   7.725
44453SOL    HW135191   2.139   5.225   7.803
44453SOL    HW235192   2.200   5.244   7.665
44454SOL     OW35193  14.804  13.836   7.435
44454SOL    HW135194  14.737  13.842   7.503
44454SOL    HW235195  14.876  13.890   7.468
44455SOL     OW35196  11.430   4.870  13.847
44455SOL    HW135197  11.419   4.873  13.942
44455SOL    HW235198  11.369   4.935  13.813
44456SOL     OW35199  13.798   2.930   9.351
44456SOL    HW135200  13.776   2.862   9.415
44456SOL    HW235201  13.724   2.991   9.355
44457SOL     OW35202   4.541   8.869  10.396
44457SOL    HW135203   4.592   8.836  10.323
44457SOL    HW235204   4.514   8.957  10.369
44458SOL     OW35205  13.892   0.251   7.762
44458SOL    HW135206  13.900   0.156   7.751
44458SOL    HW235207  13.812   0.274   7.714
44459SOL     OW35208   6.323   3.110   6.480
44459SOL    HW135209   6.305   3.174   6.411
44459SOL    HW235210   6.402   3.142   6.524
44460SOL     OW35211   2.182   4.724   7.536
44460SOL    HW135212   2.176   4.803   7.482
44460SOL    HW235213   2.269   4.689   7.517
44461SOL     OW35214   4.190  12.264   4.802
44461SOL    HW135215   4.228  12.310   4.876
44461SOL    HW235216   4.263  12.218   4.761
44462SOL     OW35217   7.226  11.925  11.104
44462SOL    HW135218   7.235  11.847  11.049
44462SOL    HW235219   7.159  11.901  11.168
44463SOL     OW35220   5.118  10.485   2.074
44463SOL    HW135221   5.145  10.407   2.123
44463SOL    HW235222   5.184  10.551   2.097
44464SOL     OW35223  10.159   8.841  14.644
44464SOL    HW135224  10.137   8.755  14.608
44464SOL    HW235225  10.243   8.864  14.604
44465SOL     OW35226  14.575   0.748  10.890
44465SOL    HW135227  14.571   0.655  10.870
44465SOL    HW235228  14.568   0.792  10.805
44466SOL     OW35229  12.917   3.182  10.056
44466SOL    HW135230  13.003   3.173  10.097
44466SOL    HW235231  12.909   3.104  10.001
44467SOL     OW35232   8.863   3.287   5.872
44467SOL    HW135233   8.803   3.235   5.819
44467SOL    HW235234   8.807   3.336   5.932
44468SOL     OW35235  10.837   1.417  13.125
44468SOL    HW135236  10.872   1.500  13.093
44468SOL    HW235237  10.745   1.417  13.098
44469SOL     OW35238   2.030  13.574  14.659
44469SOL    HW135239   2.052  13.483  14.678
44469SOL    HW235240   2.108  13.623  14.686
44470SOL     OW35241   4.635  10.043   3.165
44470SOL    HW135242   4.587  10.123   3.186
44470SOL    HW235243   4.577   9.972   3.192
44471SOL     OW35244  11.354  11.891   1.298
44471SOL    HW135245  11.393  11.805   1.315
44471SOL    HW235246  11.312  11.915   1.381
44472SOL     OW35247  11.040   7.059  14.157
44472SOL    HW135248  10.964   7.098  14.199
44472SOL    HW235249  11.006   6.982  14.112
44473SOL     OW35250  12.608   3.445   3.653
44473SOL    HW135251  12.522   3.469   3.620
44473SOL    HW235252  12.592   3.410   3.741
44474SOL     OW35253   1.265  14.252   8.102
44474SOL    HW135254   1.297  14.163   8.088
44474SOL    HW235255   1.341  14.302   8.128
44475SOL     OW35256   3.890   2.900   0.745
44475SOL    HW135257   3.965   2.854   0.706
44475SOL    HW235258   3.873   2.972   0.683
44476SOL     OW35259  13.915   6.443   4.699
44476SOL    HW135260  13.965   6.463   4.620
44476SOL    HW235261  13.917   6.524   4.750
44477SOL     OW35262   3.934   4.615  14.746
44477SOL    HW135263   4.004   4.671  14.781
44477SOL    HW235264   3.883   4.673  14.690
44478SOL     OW35265  10.906   1.068  12.084
44478SOL    HW135266  10.933   1.110  12.002
44478SOL    HW235267  10.849   1.133  12.126
44479SOL     OW35268   2.410  14.434  10.057
44479SOL    HW135269   2.482  14.419  10.119
44479SOL    HW235270   2.339  14.469  10.110
44480SOL     OW35271   6.844   6.724   2.821
44480SOL    HW135272   6.852   6.791   2.889
44480SOL    HW235273   6.934   6.696   2.805
44481SOL     OW35274   9.379   9.965   6.720
44481SOL    HW135275   9.335   9.939   6.639
44481SOL    HW235276   9.310  10.001   6.775
44482SOL     OW35277   2.872   4.859  11.003
44482SOL    HW135278   2.896   4.951  11.003
44482SOL    HW235279   2.777   4.858  11.012
44483SOL     OW35280   2.368   4.520  10.612
44483SOL    HW135281   2.304   4.559  10.552
44483SOL    HW235282   2.452   4.553  10.581
44484SOL     OW35283  11.571   6.170  12.897
44484SOL    HW135284  11.663   6.193  12.887
44484SOL    HW235285  11.523   6.247  12.868
44485SOL     OW35286   8.189  14.777   7.373
44485SOL    HW135287   8.183  14.700   7.316
44485SOL    HW235288   8.158  14.850   7.320
44486SOL     OW35289   7.356   3.719   9.862
44486SOL    HW135290   7.436   3.671   9.846
44486SOL    HW235291   7.369   3.761   9.948
44487SOL     OW35292   3.147   1.600  10.956
44487SOL    HW135293   3.076   1.605  10.892
44487SOL    HW235294   3.200   1.526  10.927
44488SOL     OW35295   2.049   7.073  13.400
44488SOL    HW135296   2.014   7.140  13.341
44488SOL    HW235297   2.030   6.990  13.354
44489SOL     OW35298   9.410   2.713   8.784
44489SOL    HW135299   9.407   2.727   8.689
44489SOL    HW235300   9.337   2.654   8.802
44490SOL     OW35301  14.533   2.688   9.723
44490SOL    HW135302  14.459   2.702   9.665
44490SOL    HW235303  14.510   2.610   9.774
44491SOL     OW35304   3.010  11.128  10.212
44491SOL    HW135305   3.002  11.206  10.157
44491SOL    HW235306   3.095  11.136  10.255
44492SOL     OW35307   2.768  10.854   5.218
44492SOL    HW135308   2.701  10.861   5.286
44492SOL    HW235309   2.762  10.937   5.171
44493SOL     OW35310   4.732  14.787   8.773
44493SOL    HW135311   4.659  14.822   8.824
44493SOL    HW235312   4.770  14.719   8.828
44494SOL     OW35313  11.315   2.600   6.650
44494SOL    HW135314  11.356   2.516   6.627
44494SOL    HW235315  11.221   2.581   6.653
44495SOL     OW35316   5.932  11.648   5.561
44495SOL    HW135317   5.977  11.664   5.644
44495SOL    HW235318   6.000  11.612   5.504
44496SOL     OW35319   6.336  10.944   3.674
44496SOL    HW135320   6.355  11.010   3.607
44496SOL    HW235321   6.406  10.879   3.664
44497SOL     OW35322   8.059   8.553   1.097
44497SOL    HW135323   8.092   8.608   1.026
44497SOL    HW235324   8.136   8.503   1.125
44498SOL     OW35325   5.949  14.706  13.257
44498SOL    HW135326   5.871  14.704  13.201
44498SOL    HW235327   6.009  14.764  13.210
44499SOL     OW35328  10.680  14.694   7.020
44499SOL    HW135329  10.763  14.713   7.064
44499SOL    HW235330  10.702  14.694   6.927
44500SOL     OW35331   4.496   3.937   3.264
44500SOL    HW135332   4.446   3.855   3.265
44500SOL    HW235333   4.480   3.976   3.351
44501SOL     OW35334   0.702   4.667   0.930
44501SOL    HW135335   0.738   4.618   1.004
44501SOL    HW235336   0.691   4.601   0.861
44502SOL     OW35337  12.965   4.223  13.197
44502SOL    HW135338  12.955   4.203  13.103
44502SOL    HW235339  13.003   4.144  13.234
44503SOL     OW35340   2.635  11.684   3.797
44503SOL    HW135341   2.615  11.686   3.703
44503SOL    HW235342   2.608  11.770   3.829
44504SOL     OW35343   4.961   2.538  14.703
44504SOL    HW135344   4.983   2.445  14.712
44504SOL    HW235345   4.889   2.551  14.765
44505SOL     OW35346  11.916   0.104  11.140
44505SOL    HW135347  11.982   0.173  11.144
44505SOL    HW235348  11.958   0.034  11.089
44506SOL     OW35349  14.575  10.998  13.838
44506SOL    HW135350  14.639  10.962  13.900
44506SOL    HW235351  14.607  10.973  13.752
44507SOL     OW35352   6.933   4.713   9.180
44507SOL    HW135353   6.879   4.733   9.103
44507SOL    HW235354   6.938   4.796   9.228
44508SOL     OW35355  12.783   5.368   7.371
44508SOL    HW135356  12.744   5.409   7.294
44508SOL    HW235357  12.745   5.280   7.373
44509SOL     OW35358   5.530   6.780  11.827
44509SOL    HW135359   5.443   6.810  11.801
44509SOL    HW235360   5.514   6.717  11.897
44510SOL     OW35361   9.089   4.649   0.441
44510SOL    HW135362   8.999   4.673   0.421
44510SOL    HW235363   9.125   4.617   0.357
44511SOL     OW35364  11.009  13.063   6.893
44511SOL    HW135365  11.040  13.090   6.806
44511SOL    HW235366  11.046  12.975   6.905
44512SOL     OW35367   0.189  10.506   3.507
44512SOL    HW135368   0.219  10.427   3.463
44512SOL    HW235369   0.094  10.504   3.498
44513SOL     OW35370   0.861   8.881  12.831
44513SOL    HW135371   0.884   8.974  12.838
44513SOL    HW235372   0.772   8.876  12.866
44514SOL     OW35373   5.967   5.936   7.179
44514SOL    HW135374   5.977   5.920   7.273
44514SOL    HW235375   5.874   5.919   7.161
44515SOL     OW35376   0.476   3.307   8.297
44515SOL    HW135377   0.506   3.217   8.314
44515SOL    HW235378   0.384   3.297   8.272
44516SOL     OW35379  11.416   4.907  14.111
44516SOL    HW135380  11.411   4.854  14.190
44516SOL    HW235381  11.447   4.993  14.142
44517SOL     OW35382  11.618   7.957   2.194
44517SOL    HW135383  11.635   7.974   2.102
44517SOL    HW235384  11.523   7.963   2.204
44518SOL     OW35385   7.200   4.682  12.034
44518SOL    HW135386   7.295   4.681  12.043
44518SOL    HW235387   7.181   4.762  11.985
44519SOL     OW35388   0.242  10.943  13.528
44519SOL    HW135389   0.307  11.013  13.518
44519SOL    HW235390   0.159  10.989  13.534
44520SOL     OW35391  13.534   7.669   3.351
44520SOL    HW135392  13.454   7.696   3.396
44520SOL    HW235393  13.594   7.743   3.362
44521SOL     OW35394   0.954   6.714   5.949
44521SOL    HW135395   0.888   6.746   6.010
44521SOL    HW235396   0.983   6.791   5.901
44522SOL     OW35397   4.946   8.530   5.865
44522SOL    HW135398   4.929   8.441   5.835
44522SOL    HW235399   5.031   8.525   5.909
44523SOL     OW35400   6.704   2.556   1.810
44523SOL    HW135401   6.611   2.563   1.830
44523SOL    HW235402   6.724   2.463   1.819
44524SOL     OW35403   6.705   9.444  12.267
44524SOL    HW135404   6.731   9.477  12.180
44524SOL    HW235405   6.640   9.507  12.298
44525SOL     OW35406   6.377   7.617  14.684
44525SOL    HW135407   6.419   7.657  14.608
44525SOL    HW235408   6.383   7.684  14.752
44526SOL     OW35409   7.785  10.782  10.458
44526SOL    HW135410   7.774  10.874  10.432
44526SOL    HW235411   7.806  10.736  10.377
44527SOL     OW35412   4.653  12.287   4.627
44527SOL    HW135413   4.602  12.352   4.675
44527SOL    HW235414   4.664  12.325   4.540
44528SOL     OW35415  12.510   2.511  12.463
44528SOL    HW135416  12.593   2.492  12.506
44528SOL    HW235417  12.535   2.565  12.387
44529SOL     OW35418   5.367   7.167  14.833
44529SOL    HW135419   5.405   7.080  14.826
44529SOL    HW235420   5.441   7.224  14.854
44530SOL     OW35421   9.476   8.016   9.813
44530SOL    HW135422   9.457   8.040   9.904
44530SOL    HW235423   9.434   7.931   9.802
44531SOL     OW35424  11.622   6.227   2.263
44531SOL    HW135425  11.691   6.213   2.327
44531SOL    HW235426  11.633   6.318   2.235
44532SOL     OW35427  12.748   5.605   8.266
44532SOL    HW135428  12.832   5.561   8.255
44532SOL    HW235429  12.699   5.584   8.186
44533SOL     OW35430   6.914   6.422   6.679
44533SOL    HW135431   6.930   6.423   6.773
44533SOL    HW235432   6.896   6.513   6.656
44534SOL     OW35433  11.173  14.654   5.852
44534SOL    HW135434  11.082  14.630   5.841
44534SOL    HW235435  11.196  14.698   5.770
44535SOL     OW35436  14.464   2.055   6.433
44535SOL    HW135437  14.405   2.014   6.370
44535SOL    HW235438  14.513   1.982   6.471
44536SOL     OW35439   4.450  12.320   5.478
44536SOL    HW135440   4.384  12.377   5.437
44536SOL    HW235441   4.424  12.231   5.451
44537SOL     OW35442   5.995   7.319  12.025
44537SOL    HW135443   5.984   7.411  12.000
44537SOL    HW235444   5.906   7.284  12.022
44538SOL     OW35445   1.623   8.804  13.974
44538SOL    HW135446   1.615   8.859  13.896
44538SOL    HW235447   1.717   8.795  13.988
44539SOL     OW35448   2.046   9.957   1.877
44539SOL    HW135449   2.026   9.866   1.902
44539SOL    HW235450   2.142   9.962   1.880
44540SOL     OW35451   1.539   0.893   0.781
44540SOL    HW135452   1.630   0.915   0.762
44540SOL    HW235453   1.541   0.802   0.810
44541SOL     OW35454   3.872   9.650   3.757
44541SOL    HW135455   3.824   9.687   3.683
44541SOL    HW235456   3.857   9.556   3.751
44542SOL     OW35457   4.206   5.872   8.564
44542SOL    HW135458   4.133   5.865   8.503
44542SOL    HW235459   4.254   5.790   8.554
44543SOL     OW35460   3.718  14.438  12.680
44543SOL    HW135461   3.687  14.352  12.707
44543SOL    HW235462   3.757  14.475  12.760
44544SOL     OW35463  10.182  12.441   3.958
44544SOL    HW135464  10.272  12.466   3.975
44544SOL    HW235465  10.184  12.400   3.871
44545SOL     OW35466   7.586   5.637   9.486
44545SOL    HW135467   7.601   5.561   9.430
44545SOL    HW235468   7.504   5.675   9.454
44546SOL     OW35469  10.155   1.035   2.034
44546SOL    HW135470  10.216   1.002   2.100
44546SOL    HW235471  10.141   0.961   1.976
44547SOL     OW35472  14.335   7.873  14.851
44547SOL    HW135473  14.320   7.941   0.035
44547SOL    HW235474  14.248   7.855  14.815
44548SOL     OW35475   9.323  12.774  14.829
44548SOL    HW135476   9.320  12.688  14.787
44548SOL    HW235477   9.343  12.756   0.038
44549SOL     OW35478   5.000   3.688  10.803
44549SOL    HW135479   4.964   3.773  10.829
44549SOL    HW235480   5.069   3.671  10.866
44550SOL     OW35481   9.814  14.175  12.108
44550SOL    HW135482   9.910  14.167  12.106
44550SOL    HW235483   9.796  14.220  12.191
44551SOL     OW35484  10.838  10.747   3.661
44551SOL    HW135485  10.897  10.820   3.647
44551SOL    HW235486  10.834  10.737   3.756
44552SOL     OW35487   2.468   6.965  11.973
44552SOL    HW135488   2.450   6.872  11.979
44552SOL    HW235489   2.463   6.984  11.879
44553SOL     OW35490   0.913   1.121  13.127
44553SOL    HW135491   0.994   1.171  13.118
44553SOL    HW235492   0.941   1.030  13.124
44554SOL     OW35493  12.231  10.320   5.927
44554SOL    HW135494  12.267  10.354   5.846
44554SOL    HW235495  12.273  10.234   5.938
44555SOL     OW35496   2.408  13.108  14.519
44555SOL    HW135497   2.452  13.052  14.582
44555SOL    HW235498   2.316  13.107  14.545
44556SOL     OW35499   2.894   0.136   8.742
44556SOL    HW135500   2.943   0.062   8.777
44556SOL    HW235501   2.811   0.098   8.714
44557SOL     OW35502   5.114   1.133   9.587
44557SOL    HW135503   5.053   1.196   9.548
44557SOL    HW235504   5.155   1.091   9.511
44558SOL     OW35505  14.225   1.050   0.359
44558SOL    HW135506  14.200   1.118   0.422
44558SOL    HW235507  14.262   0.980   0.413
44559SOL     OW35508  11.525  11.610   7.704
44559SOL    HW135509  11.505  11.521   7.733
44559SOL    HW235510  11.620  11.615   7.705
44560SOL     OW35511   2.764  10.069  13.990
44560SOL    HW135512   2.731  10.118  13.914
44560SOL    HW235513   2.718  10.107  14.065
44561SOL     OW35514  10.234   5.787   6.863
44561SOL    HW135515  10.326   5.772   6.842
44561SOL    HW235516  10.186   5.733   6.800
44562SOL     OW35517   6.421  13.728  11.951
44562SOL    HW135518   6.439  13.750  11.859
44562SOL    HW235519   6.336  13.684  11.949
44563SOL     OW35520  13.614  10.692  13.334
44563SOL    HW135521  13.593  10.646  13.415
44563SOL    HW235522  13.569  10.777  13.342
44564SOL     OW35523   8.635   9.800   0.493
44564SOL    HW135524   8.701   9.749   0.539
44564SOL    HW235525   8.554   9.749   0.502
44565SOL     OW35526   8.778   6.263  10.135
44565SOL    HW135527   8.772   6.352  10.101
44565SOL    HW235528   8.869   6.238  10.121
44566SOL     OW35529   3.731  11.855  14.571
44566SOL    HW135530   3.741  11.910  14.494
44566SOL    HW235531   3.638  11.834  14.574
44567SOL     OW35532   0.659  14.155  11.581
44567SOL    HW135533   0.740  14.105  11.573
44567SOL    HW235534   0.647  14.195  11.495
44568SOL     OW35535  12.434   4.236   7.264
44568SOL    HW135536  12.387   4.218   7.183
44568SOL    HW235537  12.526   4.237   7.239
44569SOL     OW35538   7.636  13.857   2.294
44569SOL    HW135539   7.707  13.806   2.256
44569SOL    HW235540   7.558  13.831   2.245
44570SOL     OW35541   1.740   5.014  14.777
44570SOL    HW135542   1.704   5.065  14.705
44570SOL    HW235543   1.682   4.938  14.784
44571SOL     OW35544   2.126   8.933   6.442
44571SOL    HW135545   2.087   8.889   6.517
44571SOL    HW235546   2.129   8.865   6.374
44572SOL     OW35547   1.458  12.444   0.017
44572SOL    HW135548   1.490  12.474   0.102
44572SOL    HW235549   1.448  12.524  14.848
44573SOL     OW35550   4.239   0.940  13.784
44573SOL    HW135551   4.217   0.900  13.700
44573SOL    HW235552   4.262   0.866  13.841
44574SOL     OW35553  10.859   3.028   1.024
44574SOL    HW135554  10.869   3.116   1.060
44574SOL    HW235555  10.878   2.970   1.098
44575SOL     OW35556   4.516  14.593   5.611
44575SOL    HW135557   4.438  14.614   5.661
44575SOL    HW235558   4.545  14.676   5.574
44576SOL     OW35559   8.050   3.460   3.902
44576SOL    HW135560   7.965   3.426   3.874
44576SOL    HW235561   8.114   3.399   3.866
44577SOL     OW35562  11.073  12.993   7.603
44577SOL    HW135563  11.095  12.939   7.679
44577SOL    HW235564  10.994  13.040   7.629
44578SOL     OW35565   4.698   4.456   2.346
44578SOL    HW135566   4.603   4.459   2.350
44578SOL    HW235567   4.724   4.545   2.321
44579SOL     OW35568  13.786  12.735   6.163
44579SOL    HW135569  13.729  12.748   6.238
44579SOL    HW235570  13.787  12.819   6.118
44580SOL     OW35571   1.066   8.236   2.589
44580SOL    HW135572   1.114   8.304   2.540
44580SOL    HW235573   0.989   8.281   2.623
44581SOL     OW35574   1.152   9.956   3.417
44581SOL    HW135575   1.123   9.929   3.504
44581SOL    HW235576   1.108  10.040   3.402
44582SOL     OW35577   4.241   1.356   7.573
44582SOL    HW135578   4.305   1.391   7.511
44582SOL    HW235579   4.204   1.279   7.529
44583SOL     OW35580   0.364   6.476   4.913
44583SOL    HW135581   0.350   6.545   4.979
44583SOL    HW235582   0.451   6.442   4.933
44584SOL     OW35583   0.336  14.164  13.920
44584SOL    HW135584   0.257  14.110  13.923
44584SOL    HW235585   0.408  14.102  13.935
44585SOL     OW35586   4.104   3.887   4.408
44585SOL    HW135587   4.139   3.866   4.322
44585SOL    HW235588   4.127   3.979   4.422
44586SOL     OW35589   9.176   3.258   5.384
44586SOL    HW135590   9.142   3.241   5.296
44586SOL    HW235591   9.111   3.219   5.443
44587SOL     OW35592  14.125   2.272  14.395
44587SOL    HW135593  14.139   2.237  14.484
44587SOL    HW235594  14.181   2.217  14.340
44588SOL     OW35595  14.373  14.429  12.868
44588SOL    HW135596  14.307  14.453  12.934
44588SOL    HW235597  14.447  14.396  12.920
44589SOL     OW35598   0.873  12.227   6.025
44589SOL    HW135599   0.943  12.215   5.961
44589SOL    HW235600   0.792  12.217   5.976
44590SOL     OW35601   4.003   0.392   4.793
44590SOL    HW135602   3.977   0.336   4.866
44590SOL    HW235603   3.927   0.393   4.735
44591SOL     OW35604  11.088   3.780   2.037
44591SOL    HW135605  11.058   3.752   2.124
44591SOL    HW235606  11.045   3.864   2.023
44592SOL     OW35607   5.740  12.725  11.846
44592SOL    HW135608   5.773  12.801  11.893
44592SOL    HW235609   5.699  12.670  11.913
44593SOL     OW35610   2.887  14.472   8.964
44593SOL    HW135611   2.939  14.395   8.942
44593SOL    HW235612   2.838  14.491   8.884
44594SOL     OW35613   0.982   9.384   6.140
44594SOL    HW135614   0.935   9.311   6.100
44594SOL    HW235615   1.044   9.412   6.072
44595SOL     OW35616   8.978   9.228   5.432
44595SOL    HW135617   8.995   9.290   5.502
44595SOL    HW235618   9.037   9.255   5.361
44596SOL     OW35619  12.873  14.571   8.949
44596SOL    HW135620  12.943  14.506   8.961
44596SOL    HW235621  12.908  14.651   8.989
44597SOL     OW35622  10.836   7.531  12.244
44597SOL    HW135623  10.786   7.537  12.325
44597SOL    HW235624  10.786   7.472  12.189
44598SOL     OW35625  11.253   3.525  12.777
44598SOL    HW135626  11.211   3.441  12.796
44598SOL    HW235627  11.304   3.510  12.698
44599SOL     OW35628   3.947   7.712   7.316
44599SOL    HW135629   3.954   7.771   7.390
44599SOL    HW235630   3.976   7.763   7.240
44600SOL     OW35631   9.381  12.011  12.395
44600SOL    HW135632   9.331  12.091  12.382
44600SOL    HW235633   9.468  12.030  12.360
44601SOL     OW35634   6.227   3.358  11.565
44601SOL    HW135635   6.185   3.444  11.569
44601SOL    HW235636   6.230   3.328  11.655
44602SOL     OW35637   3.927   7.931   3.588
44602SOL    HW135638   3.885   7.978   3.516
44602SOL    HW235639   3.982   7.866   3.545
44603SOL     OW35640  10.765   2.095  14.100
44603SOL    HW135641  10.828   2.055  14.160
44603SOL    HW235642  10.790   2.188  14.098
44604SOL     OW35643   4.789   9.805   2.049
44604SOL    HW135644   4.859   9.799   1.984
44604SOL    HW235645   4.782   9.716   2.085
44605SOL     OW35646  11.650   0.220   0.804
44605SOL    HW135647  11.739   0.207   0.769
44605SOL    HW235648  11.592   0.185   0.736
44606SOL     OW35649  14.157   8.934   0.319
44606SOL    HW135650  14.189   8.972   0.238
44606SOL    HW235651  14.200   8.849   0.326
44607SOL     OW35652  11.447  13.685   8.309
44607SOL    HW135653  11.404  13.604   8.338
44607SOL    HW235654  11.374  13.745   8.290
44608SOL     OW35655   6.869  12.741   3.099
44608SOL    HW135656   6.900  12.776   3.183
44608SOL    HW235657   6.897  12.805   3.034
44609SOL     OW35658   9.219  13.522   4.044
44609SOL    HW135659   9.217  13.439   3.997
44609SOL    HW235660   9.310  13.532   4.072
44610SOL     OW35661   1.278  13.982   4.396
44610SOL    HW135662   1.297  13.923   4.469
44610SOL    HW235663   1.293  13.928   4.318
44611SOL     OW35664   8.944   4.709  10.611
44611SOL    HW135665   9.031   4.737  10.583
44611SOL    HW235666   8.883   4.761  10.559
44612SOL     OW35667   5.093  12.587   4.940
44612SOL    HW135668   5.007  12.592   4.981
44612SOL    HW235669   5.105  12.673   4.900
44613SOL     OW35670   4.613  12.012   3.767
44613SOL    HW135671   4.680  12.001   3.700
44613SOL    HW235672   4.532  12.024   3.718
44614SOL     OW35673  12.407   3.663   9.930
44614SOL    HW135674  12.420   3.604   9.856
44614SOL    HW235675  12.456   3.623  10.002
44615SOL     OW35676   7.200   7.607  13.043
44615SOL    HW135677   7.223   7.516  13.058
44615SOL    HW235678   7.105   7.609  13.041
44616SOL     OW35679   5.191  13.136   0.903
44616SOL    HW135680   5.182  13.216   0.954
44616SOL    HW235681   5.285  13.128   0.888
44617SOL     OW35682   9.272  14.595   2.994
44617SOL    HW135683   9.182  14.601   2.961
44617SOL    HW235684   9.294  14.684   3.019
44618SOL     OW35685   5.718  11.757   0.994
44618SOL    HW135686   5.773  11.758   1.072
44618SOL    HW235687   5.723  11.667   0.962
44619SOL     OW35688  14.739   5.466  10.377
44619SOL    HW135689  14.757   5.515  10.296
44619SOL    HW235690  14.709   5.380  10.347
44620SOL     OW35691   4.019  10.600   9.707
44620SOL    HW135692   4.020  10.532   9.774
44620SOL    HW235693   3.941  10.581   9.655
44621SOL     OW35694   3.093   9.121   3.752
44621SOL    HW135695   3.033   9.182   3.794
44621SOL    HW235696   3.142   9.175   3.689
44622SOL     OW35697   4.383   7.395   2.978
44622SOL    HW135698   4.290   7.393   2.956
44622SOL    HW235699   4.387   7.443   3.060
44623SOL     OW35700   3.958  10.781   2.421
44623SOL    HW135701   3.931  10.798   2.511
44623SOL    HW235702   3.878  10.790   2.369
44624SOL     OW35703  10.003   7.661  11.403
44624SOL    HW135704   9.941   7.733  11.418
44624SOL    HW235705  10.058   7.692  11.332
44625SOL     OW35706   2.053  14.260   2.706
44625SOL    HW135707   2.127  14.319   2.720
44625SOL    HW235708   2.075  14.213   2.625
44626SOL     OW35709   3.341   8.874  12.268
44626SOL    HW135710   3.353   8.969  12.259
44626SOL    HW235711   3.279   8.865  12.341
44627SOL     OW35712  14.302   5.559   4.838
44627SOL    HW135713  14.394   5.536   4.831
44627SOL    HW235714  14.290   5.634   4.780
44628SOL     OW35715   7.035   8.128   8.216
44628SOL    HW135716   7.038   8.073   8.138
44628SOL    HW235717   7.046   8.067   8.289
44629SOL     OW35718   6.281   3.756   7.051
44629SOL    HW135719   6.315   3.667   7.041
44629SOL    HW235720   6.354   3.806   7.088
44630SOL     OW35721  14.457   7.785   3.964
44630SOL    HW135722  14.403   7.710   3.991
44630SOL    HW235723  14.432   7.855   4.023
44631SOL     OW35724   4.004   3.096  10.889
44631SOL    HW135725   3.976   3.006  10.909
44631SOL    HW235726   4.099   3.093  10.892
44632SOL     OW35727   0.498   3.792  14.743
44632SOL    HW135728   0.486   3.808  14.837
44632SOL    HW235729   0.539   3.872  14.710
44633SOL     OW35730  12.943   2.132   3.414
44633SOL    HW135731  12.873   2.093   3.361
44633SOL    HW235732  12.959   2.217   3.372
44634SOL     OW35733   7.229  14.704  13.370
44634SOL    HW135734   7.271  14.650  13.438
44634SOL    HW235735   7.180  14.641  13.318
44635SOL     OW35736  14.248   8.629   7.450
44635SOL    HW135737  14.220   8.543   7.420
44635SOL    HW235738  14.224   8.631   7.543
44636SOL     OW35739   6.156  12.067  14.829
44636SOL    HW135740   6.076  12.036  14.787
44636SOL    HW235741   6.206  12.107  14.758
44637SOL     OW35742  13.265   8.721   8.047
44637SOL    HW135743  13.330   8.655   8.070
44637SOL    HW235744  13.264   8.721   7.951
44638SOL     OW35745  10.849   9.439   1.546
44638SOL    HW135746  10.761   9.414   1.519
44638SOL    HW235747  10.840   9.464   1.637
44639SOL     OW35748   2.128  14.777  11.183
44639SOL    HW135749   2.141  14.721  11.106
44639SOL    HW235750   2.185  14.852  11.168
44640SOL     OW35751   1.134   7.905   1.258
44640SOL    HW135752   1.064   7.898   1.193
44640SOL    HW235753   1.156   7.998   1.259
44641SOL     OW35754  12.965  12.439   0.017
44641SOL    HW135755  13.042  12.453  14.844
44641SOL    HW235756  12.957  12.344   0.024
44642SOL     OW35757   7.608  13.850   4.622
44642SOL    HW135758   7.559  13.932   4.630
44642SOL    HW235759   7.640  13.849   4.531
44643SOL     OW35760   0.608   0.208   8.993
44643SOL    HW135761   0.562   0.248   8.919
44643SOL    HW235762   0.542   0.156   9.038
44644SOL     OW35763   5.976   7.246   2.061
44644SOL    HW135764   6.037   7.173   2.071
44644SOL    HW235765   5.890   7.209   2.077
44645SOL     OW35766  11.534   9.581  13.384
44645SOL    HW135767  11.570   9.662  13.419
44645SOL    HW235768  11.606   9.541  13.335
44646SOL     OW35769   2.493  12.429   5.085
44646SOL    HW135770   2.430  12.404   5.152
44646SOL    HW235771   2.562  12.363   5.091
44647SOL     OW35772  14.640  13.062   1.954
44647SOL    HW135773  14.724  13.061   1.908
44647SOL    HW235774  14.626  13.154   1.978
44648SOL     OW35775   2.772  10.213   1.779
44648SOL    HW135776   2.822  10.261   1.713
44648SOL    HW235777   2.680  10.232   1.758
44649SOL     OW35778  11.430  13.894   9.797
44649SOL    HW135779  11.444  13.848   9.880
44649SOL    HW235780  11.408  13.983   9.822
44650SOL     OW35781   4.983   0.744  11.673
44650SOL    HW135782   4.956   0.714  11.760
44650SOL    HW235783   4.900   0.760  11.627
44651SOL     OW35784   8.213  10.325   8.437
44651SOL    HW135785   8.249  10.265   8.502
44651SOL    HW235786   8.289  10.357   8.388
44652SOL     OW35787   8.282   5.341   3.513
44652SOL    HW135788   8.213   5.290   3.471
44652SOL    HW235789   8.252   5.432   3.504
44653SOL     OW35790   2.545  10.849   9.021
44653SOL    HW135791   2.483  10.839   9.093
44653SOL    HW235792   2.616  10.902   9.058
44654SOL     OW35793   9.048   0.735   6.196
44654SOL    HW135794   8.993   0.789   6.139
44654SOL    HW235795   9.004   0.738   6.281
44655SOL     OW35796  14.330   9.272  14.499
44655SOL    HW135797  14.285   9.219  14.565
44655SOL    HW235798  14.277   9.263  14.420
44656SOL     OW35799   3.093   8.038   6.032
44656SOL    HW135800   3.128   8.094   5.963
44656SOL    HW235801   3.163   8.032   6.097
44657SOL     OW35802  14.540   7.761   1.978
44657SOL    HW135803  14.461   7.714   2.004
44657SOL    HW235804  14.601   7.748   2.050
44658SOL     OW35805   9.584  13.372   0.940
44658SOL    HW135806   9.547  13.322   0.867
44658SOL    HW235807   9.677  13.378   0.920
44659SOL     OW35808  14.685   5.129   9.923
44659SOL    HW135809  14.702   5.058   9.984
44659SOL    HW235810  14.711   5.093   9.837
44660SOL     OW35811  11.115  13.166   1.092
44660SOL    HW135812  11.056  13.217   1.036
44660SOL    HW235813  11.197  13.215   1.093
44661SOL     OW35814   1.009  14.598   9.722
44661SOL    HW135815   1.006  14.597   9.818
44661SOL    HW235816   1.035  14.509   9.698
44662SOL     OW35817   3.424   2.458   8.033
44662SOL    HW135818   3.444   2.525   7.968
44662SOL    HW235819   3.392   2.384   7.982
44663SOL     OW35820   2.433   0.375   0.684
44663SOL    HW135821   2.405   0.425   0.608
44663SOL    HW235822   2.361   0.383   0.747
44664SOL     OW35823   4.072  13.772   8.247
44664SOL    HW135824   4.162  13.744   8.265
44664SOL    HW235825   4.033  13.699   8.198
44665SOL     OW35826   4.590   6.536   0.368
44665SOL    HW135827   4.681   6.510   0.380
44665SOL    HW235828   4.557   6.475   0.301
44666SOL     OW35829  12.717   7.216   6.509
44666SOL    HW135830  12.731   7.264   6.427
44666SOL    HW235831  12.678   7.281   6.568
44667SOL     OW35832   1.582   8.322  10.315
44667SOL    HW135833   1.510   8.358  10.367
44667SOL    HW235834   1.625   8.399  10.278
44668SOL     OW35835   6.830   4.982   2.119
44668SOL    HW135836   6.806   4.976   2.026
44668SOL    HW235837   6.901   5.045   2.121
44669SOL     OW35838  12.657  11.909   1.637
44669SOL    HW135839  12.690  11.972   1.701
44669SOL    HW235840  12.718  11.916   1.563
44670SOL     OW35841   4.656  12.777   1.892
44670SOL    HW135842   4.651  12.870   1.913
44670SOL    HW235843   4.651  12.773   1.796
44671SOL     OW35844   4.585   9.750   7.376
44671SOL    HW135845   4.527   9.682   7.410
44671SOL    HW235846   4.575   9.823   7.437
44672SOL     OW35847  10.951   2.954   9.994
44672SOL    HW135848  10.956   2.862  10.022
44672SOL    HW235849  10.919   3.001  10.071
44673SOL     OW35850  14.601   8.862   4.583
44673SOL    HW135851  14.563   8.925   4.522
44673SOL    HW235852  14.676   8.826   4.536
44674SOL     OW35853   5.763   9.933   4.880
44674SOL    HW135854   5.789   9.850   4.919
44674SOL    HW235855   5.788   9.999   4.945
44675SOL     OW35856  11.682  11.773   1.996
44675SOL    HW135857  11.599  11.762   2.042
44675SOL    HW235858  11.657  11.809   1.910
44676SOL     OW35859   6.907  12.528   8.972
44676SOL    HW135860   6.997  12.508   9.000
44676SOL    HW235861   6.862  12.443   8.976
44677SOL     OW35862   7.540   5.102  13.407
44677SOL    HW135863   7.462   5.060  13.444
44677SOL    HW235864   7.603   5.104  13.478
44678SOL     OW35865  11.840   0.830   1.264
44678SOL    HW135866  11.924   0.871   1.282
44678SOL    HW235867  11.822   0.777   1.342
44679SOL     OW35868   5.993   2.853   8.037
44679SOL    HW135869   6.063   2.906   8.000
44679SOL    HW235870   5.957   2.906   8.108
44680SOL     OW35871   7.769   6.037  13.629
44680SOL    HW135872   7.701   5.980  13.594
44680SOL    HW235873   7.825   5.979  13.680
44681SOL     OW35874  14.870  14.325   3.605
44681SOL    HW135875  14.803  14.340   3.672
44681SOL    HW235876   0.071  14.324   3.655
44682SOL     OW35877   9.150  12.449   6.910
44682SOL    HW135878   9.059  12.474   6.924
44682SOL    HW235879   9.149  12.353   6.916
44683SOL     OW35880   2.525  14.097   1.796
44683SOL    HW135881   2.445  14.056   1.830
44683SOL    HW235882   2.517  14.189   1.823
44684SOL     OW35883   8.091   8.333  10.557
44684SOL    HW135884   8.128   8.316  10.643
44684SOL    HW235885   8.143   8.279  10.497
44685SOL     OW35886   5.332   4.180   0.582
44685SOL    HW135887   5.394   4.223   0.641
44685SOL    HW235888   5.376   4.101   0.553
44686SOL     OW35889  11.885  14.145  10.172
44686SOL    HW135890  11.821  14.091  10.126
44686SOL    HW235891  11.958  14.086  10.189
44687SOL     OW35892  14.263   0.903  12.566
44687SOL    HW135893  14.180   0.940  12.597
44687SOL    HW235894  14.253   0.896  12.471
44688SOL     OW35895   7.488   9.024   6.914
44688SOL    HW135896   7.548   9.090   6.879
44688SOL    HW235897   7.512   8.943   6.868
44689SOL     OW35898  11.635   3.193   1.902
44689SOL    HW135899  11.647   3.270   1.956
44689SOL    HW235900  11.723   3.162   1.883
44690SOL     OW35901   1.220   7.048   8.646
44690SOL    HW135902   1.153   7.013   8.587
44690SOL    HW235903   1.171   7.090   8.716
44691SOL     OW35904   1.092  14.311   8.817
44691SOL    HW135905   1.075  14.217   8.805
44691SOL    HW235906   1.060  14.352   8.736
44692SOL     OW35907  14.000   8.227  12.064
44692SOL    HW135908  14.078   8.180  12.094
44692SOL    HW235909  14.021   8.319  12.076
44693SOL     OW35910  11.255   6.348   9.858
44693SOL    HW135911  11.263   6.405   9.934
44693SOL    HW235912  11.333   6.367   9.806
44694SOL     OW35913  10.428   5.219   1.869
44694SOL    HW135914  10.464   5.153   1.927
44694SOL    HW235915  10.500   5.241   1.809
44695SOL     OW35916   7.148   1.943  14.211
44695SOL    HW135917   7.179   1.857  14.184
44695SOL    HW235918   7.192   1.959  14.295
44696SOL     OW35919  11.245   3.914  10.534
44696SOL    HW135920  11.328   3.959  10.521
44696SOL    HW235921  11.230   3.868  10.451
44697SOL     OW35922   4.286  14.304   8.307
44697SOL    HW135923   4.327  14.381   8.268
44697SOL    HW235924   4.291  14.237   8.238
44698SOL     OW35925   6.977   1.793   2.048
44698SOL    HW135926   6.935   1.714   2.081
44698SOL    HW235927   7.070   1.772   2.045
44699SOL     OW35928  12.396   8.574   7.095
44699SOL    HW135929  12.349   8.641   7.144
44699SOL    HW235930  12.413   8.613   7.009
44700SOL     OW35931  10.868   1.943  13.439
44700SOL    HW135932  10.811   2.002  13.488
44700SOL    HW235933  10.817   1.862  13.431
44701SOL     OW35934  10.866  10.828  12.302
44701SOL    HW135935  10.790  10.791  12.348
44701SOL    HW235936  10.933  10.760  12.309
44702SOL     OW35937   4.170   3.756  11.347
44702SOL    HW135938   4.169   3.668  11.384
44702SOL    HW235939   4.218   3.747  11.265
44703SOL     OW35940   6.922  10.936   2.009
44703SOL    HW135941   6.991  10.978   2.060
44703SOL    HW235942   6.964  10.913   1.926
44704SOL     OW35943   1.036   2.543   1.658
44704SOL    HW135944   1.088   2.465   1.641
44704SOL    HW235945   1.046   2.560   1.751
44705SOL     OW35946  12.072   3.454   2.652
44705SOL    HW135947  12.004   3.516   2.680
44705SOL    HW235948  12.036   3.368   2.670
44706SOL     OW35949  11.518   5.164   2.618
44706SOL    HW135950  11.450   5.121   2.567
44706SOL    HW235951  11.470   5.213   2.685
44707SOL     OW35952   3.207  13.338   4.762
44707SOL    HW135953   3.155  13.293   4.696
44707SOL    HW235954   3.290  13.358   4.718
44708SOL     OW35955   1.199  11.193  13.762
44708SOL    HW135956   1.276  11.138  13.776
44708SOL    HW235957   1.127  11.131  13.750
44709SOL     OW35958   3.340   5.235   4.050
44709SOL    HW135959   3.289   5.159   4.075
44709SOL    HW235960   3.412   5.200   3.998
44710SOL     OW35961  12.894  10.640  13.470
44710SOL    HW135962  12.884  10.664  13.562
44710SOL    HW235963  12.874  10.720  13.421
44711SOL     OW35964   3.042  12.065  12.530
44711SOL    HW135965   3.116  12.106  12.484
44711SOL    HW235966   3.068  11.974  12.540
44712SOL     OW35967  11.915   2.126   8.738
44712SOL    HW135968  11.825   2.152   8.758
44712SOL    HW235969  11.953   2.103   8.823
44713SOL     OW35970   1.260   5.649   8.842
44713SOL    HW135971   1.176   5.652   8.887
44713SOL    HW235972   1.263   5.561   8.803
44714SOL     OW35973  10.274   0.208  10.134
44714SOL    HW135974  10.345   0.180  10.193
44714SOL    HW235975  10.198   0.157  10.161
44715SOL     OW35976   7.796   3.563  10.267
44715SOL    HW135977   7.866   3.559  10.202
44715SOL    HW235978   7.726   3.509  10.231
44716SOL     OW35979   1.147   0.337  11.744
44716SOL    HW135980   1.078   0.275  11.722
44716SOL    HW235981   1.103   0.421  11.750
44717SOL     OW35982   9.922   5.650   8.398
44717SOL    HW135983   9.942   5.742   8.416
44717SOL    HW235984   9.831   5.639   8.426
44718SOL     OW35985   0.446   2.957  10.735
44718SOL    HW135986   0.498   2.991  10.662
44718SOL    HW235987   0.488   2.874  10.758
44719SOL     OW35988   8.320  11.147  12.413
44719SOL    HW135989   8.262  11.126  12.340
44719SOL    HW235990   8.377  11.070  12.420
44720SOL     OW35991   6.287  12.890   7.578
44720SOL    HW135992   6.260  12.870   7.488
44720SOL    HW235993   6.346  12.965   7.569
44721SOL     OW35994   1.788   6.434  10.081
44721SOL    HW135995   1.739   6.466  10.157
44721SOL    HW235996   1.820   6.513  10.037
44722SOL     OW35997   2.526  10.486   9.277
44722SOL    HW135998   2.567  10.561   9.320
44722SOL    HW235999   2.432  10.498   9.291
44723SOL     OW36000   2.303   0.950  12.530
44723SOL    HW136001   2.338   1.031  12.494
44723SOL    HW236002   2.379   0.894  12.541
44724SOL     OW36003  12.642   3.638   9.301
44724SOL    HW136004  12.613   3.720   9.261
44724SOL    HW236005  12.660   3.580   9.227
44725SOL     OW36006   9.017   2.028   4.076
44725SOL    HW136007   9.055   1.991   4.156
44725SOL    HW236008   9.091   2.036   4.016
44726SOL     OW36009   3.720  12.581   5.891
44726SOL    HW136010   3.728  12.637   5.813
44726SOL    HW236011   3.627  12.585   5.914
44727SOL     OW36012  13.932  10.039   9.647
44727SOL    HW136013  13.959  10.052   9.738
44727SOL    HW236014  13.929  10.127   9.609
44728SOL     OW36015   3.658   2.057   9.125
44728SOL    HW136016   3.615   2.093   9.047
44728SOL    HW236017   3.751   2.074   9.111
44729SOL     OW36018   8.062   7.787   1.987
44729SOL    HW136019   7.971   7.812   1.998
44729SOL    HW236020   8.092   7.763   2.074
44730SOL     OW36021  13.511   0.444   7.283
44730SOL    HW136022  13.597   0.404   7.270
44730SOL    HW236023  13.482   0.467   7.194
44731SOL     OW36024  11.653  10.300   3.086
44731SOL    HW136025  11.588  10.284   3.155
44731SOL    HW236026  11.682  10.212   3.061
44732SOL     OW36027   6.743  10.490  10.976
44732SOL    HW136028   6.743  10.455  11.065
44732SOL    HW236029   6.678  10.560  10.978
44733SOL     OW36030  10.507  12.217   5.823
44733SOL    HW136031  10.591  12.183   5.855
44733SOL    HW236032  10.462  12.248   5.901
44734SOL     OW36033   9.847   7.175   7.126
44734SOL    HW136034   9.753   7.190   7.138
44734SOL    HW236035   9.877   7.253   7.080
44735SOL     OW36036   2.915   9.094  11.584
44735SOL    HW136037   2.928   9.148  11.661
44735SOL    HW236038   2.977   9.021  11.593
44736SOL     OW36039   4.018   4.939   7.055
44736SOL    HW136040   4.112   4.924   7.041
44736SOL    HW236041   3.989   4.863   7.105
44737SOL     OW36042  10.252   7.864  12.382
44737SOL    HW136043  10.162   7.857  12.412
44737SOL    HW236044  10.301   7.803  12.438
44738SOL     OW36045   7.791   4.048  12.114
44738SOL    HW136046   7.836   3.964  12.122
44738SOL    HW236047   7.712   4.037  12.168
44739SOL     OW36048  13.810   0.024  10.228
44739SOL    HW136049  13.747   0.041  10.158
44739SOL    HW236050  13.874   0.096  10.221
44740SOL     OW36051   4.601   1.115  10.556
44740SOL    HW136052   4.578   1.106  10.648
44740SOL    HW236053   4.628   1.027  10.528
44741SOL     OW36054   0.313  10.236   6.250
44741SOL    HW136055   0.390  10.188   6.281
44741SOL    HW236056   0.349  10.299   6.188
44742SOL     OW36057  10.180   7.302   0.037
44742SOL    HW136058  10.148   7.264   0.118
44742SOL    HW236059  10.116   7.277  14.853
44743SOL     OW36060   3.005   4.825   3.351
44743SOL    HW136061   3.072   4.877   3.306
44743SOL    HW236062   3.040   4.736   3.353
44744SOL     OW36063   8.483   6.050   4.266
44744SOL    HW136064   8.515   6.125   4.216
44744SOL    HW236065   8.400   6.079   4.304
44745SOL     OW36066   8.620   4.936   9.376
44745SOL    HW136067   8.633   4.988   9.455
44745SOL    HW236068   8.667   4.854   9.392
44746SOL     OW36069  11.976   8.173   0.131
44746SOL    HW136070  11.950   8.081   0.124
44746SOL    HW236071  11.927   8.217   0.062
44747SOL     OW36072   8.316   5.739   0.327
44747SOL    HW136073   8.287   5.663   0.277
44747SOL    HW236074   8.411   5.728   0.335
44748SOL     OW36075  10.357   0.351  14.832
44748SOL    HW136076  10.432   0.369  14.775
44748SOL    HW236077  10.327   0.437  14.860
44749SOL     OW36078   8.977  13.410  11.466
44749SOL    HW136079   9.033  13.340  11.432
44749SOL    HW236080   8.915  13.365  11.523
44750SOL     OW36081  10.069  11.384  11.943
44750SOL    HW136082  10.020  11.424  11.871
44750SOL    HW236083  10.034  11.426  12.022
44751SOL     OW36084  11.784  12.536   6.788
44751SOL    HW136085  11.724  12.473   6.747
44751SOL    HW236086  11.736  12.619   6.786
44752SOL     OW36087   1.185  10.887   5.783
44752SOL    HW136088   1.189  10.909   5.876
44752SOL    HW236089   1.147  10.965   5.742
44753SOL     OW36090   8.919   2.464  10.225
44753SOL    HW136091   8.828   2.437  10.207
44753SOL    HW236092   8.966   2.442  10.144
44754SOL     OW36093   6.036   5.394   2.037
44754SOL    HW136094   6.067   5.362   1.952
44754SOL    HW236095   5.998   5.318   2.080
44755SOL     OW36096  13.276   6.398  10.897
44755SOL    HW136097  13.370   6.383  10.885
44755SOL    HW236098  13.242   6.405  10.808
44756SOL     OW36099  13.909   5.247   4.160
44756SOL    HW136100  13.848   5.243   4.234
44756SOL    HW236101  13.862   5.208   4.087
44757SOL     OW36102   9.535  11.250   9.806
44757SOL    HW136103   9.477  11.230   9.879
44757SOL    HW236104   9.495  11.207   9.731
44758SOL     OW36105  10.820   6.186   2.276
44758SOL    HW136106  10.836   6.099   2.312
44758SOL    HW236107  10.880   6.193   2.202
44759SOL     OW36108  10.882   7.338   5.816
44759SOL    HW136109  10.931   7.410   5.774
44759SOL    HW236110  10.931   7.320   5.897
44760SOL     OW36111  13.274  11.050  11.930
44760SOL    HW136112  13.195  11.021  11.976
44760SOL    HW236113  13.248  11.054  11.838
44761SOL     OW36114  14.444   6.147   4.360
44761SOL    HW136115  14.441   6.053   4.380
44761SOL    HW236116  14.393   6.155   4.279
44762SOL     OW36117  14.769  13.810  14.029
44762SOL    HW136118  14.779  13.897  14.067
44762SOL    HW236119  14.693  13.817  13.971
44763SOL     OW36120   8.857  10.802  12.860
44763SOL    HW136121   8.867  10.707  12.854
44763SOL    HW236122   8.885  10.823  12.949
44764SOL     OW36123   7.641   5.111   5.272
44764SOL    HW136124   7.592   5.124   5.354
44764SOL    HW236125   7.627   5.192   5.223
44765SOL     OW36126   0.005   2.052   1.351
44765SOL    HW136127   0.051   1.993   1.411
44765SOL    HW236128   0.048   2.136   1.363
44766SOL     OW36129  14.171   8.917  10.600
44766SOL    HW136130  14.107   8.973  10.557
44766SOL    HW236131  14.165   8.833  10.553
44767SOL     OW36132  13.982   8.709  10.245
44767SOL    HW136133  14.026   8.767  10.183
44767SOL    HW236134  13.921   8.766  10.292
44768SOL     OW36135  13.094  11.238  14.615
44768SOL    HW136136  13.076  11.147  14.593
44768SOL    HW236137  13.011  11.283  14.598
44769SOL     OW36138   7.419  12.354   1.453
44769SOL    HW136139   7.440  12.420   1.519
44769SOL    HW236140   7.455  12.388   1.372
44770SOL     OW36141   0.887   8.214   0.227
44770SOL    HW136142   0.925   8.190   0.312
44770SOL    HW236143   0.822   8.281   0.248
44771SOL     OW36144   4.196   4.176  10.809
44771SOL    HW136145   4.182   4.269  10.792
44771SOL    HW236146   4.250   4.174  10.888
44772SOL     OW36147  10.583   9.721   2.714
44772SOL    HW136148  10.595   9.647   2.773
44772SOL    HW236149  10.660   9.721   2.658
44773SOL     OW36150  11.427   9.455   1.790
44773SOL    HW136151  11.340   9.416   1.783
44773SOL    HW236152  11.428   9.495   1.877
44774SOL     OW36153  11.521  10.792  10.258
44774SOL    HW136154  11.426  10.792  10.247
44774SOL    HW236155  11.550  10.873  10.215
44775SOL     OW36156   7.770   0.501   3.317
44775SOL    HW136157   7.719   0.503   3.398
44775SOL    HW236158   7.861   0.497   3.346
44776SOL     OW36159  14.849   0.952   7.942
44776SOL    HW136160   0.032   0.884   7.928
44776SOL    HW236161  14.811   0.967   7.855
44777SOL     OW36162   9.894   8.126   8.294
44777SOL    HW136163   9.822   8.136   8.356
44777SOL    HW236164   9.950   8.202   8.310
44778SOL     OW36165  14.837   8.288   1.031
44778SOL    HW136166  14.804   8.309   0.943
44778SOL    HW236167   0.018   8.217   1.016
44779SOL     OW36168   6.149   5.395  13.624
44779SOL    HW136169   6.112   5.479  13.650
44779SOL    HW236170   6.089   5.360  13.558
44780SOL     OW36171   4.242   4.713  13.820
44780SOL    HW136172   4.270   4.639  13.873
44780SOL    HW236173   4.305   4.782  13.840
44781SOL     OW36174  10.065   5.730   6.294
44781SOL    HW136175  10.081   5.823   6.304
44781SOL    HW236176  10.145   5.696   6.253
44782SOL     OW36177  13.428   5.595  10.577
44782SOL    HW136178  13.377   5.665  10.535
44782SOL    HW236179  13.496   5.642  10.626
44783SOL     OW36180  12.905  10.039  14.824
44783SOL    HW136181  12.954   9.965  14.786
44783SOL    HW236182  12.882  10.094  14.749
44784SOL     OW36183   2.438   2.296   1.024
44784SOL    HW136184   2.440   2.201   1.014
44784SOL    HW236185   2.347   2.320   1.004
44785SOL     OW36186   0.105  11.979   2.020
44785SOL    HW136187   0.143  11.937   1.943
44785SOL    HW236188   0.093  12.071   1.994
44786SOL     OW36189   7.966   9.655   0.101
44786SOL    HW136190   7.985   9.748   0.113
44786SOL    HW236191   8.047   9.619   0.065
44787SOL     OW36192   5.118   2.696   2.429
44787SOL    HW136193   5.046   2.748   2.392
44787SOL    HW236194   5.113   2.714   2.523
44788SOL     OW36195  14.293  12.385   2.794
44788SOL    HW136196  14.210  12.432   2.798
44788SOL    HW236197  14.356  12.449   2.761
44789SOL     OW36198   6.985   5.261   6.927
44789SOL    HW136199   6.936   5.266   6.845
44789SOL    HW236200   7.059   5.204   6.907
44790SOL     OW36201   6.114   4.882  13.145
44790SOL    HW136202   6.189   4.823  13.158
44790SOL    HW236203   6.152   4.970  13.148
44791SOL     OW36204   3.046   1.269   2.704
44791SOL    HW136205   2.983   1.198   2.717
44791SOL    HW236206   3.004   1.327   2.641
44792SOL     OW36207   0.111   1.725   2.883
44792SOL    HW136208   0.017   1.721   2.865
44792SOL    HW236209   0.138   1.634   2.889
44793SOL     OW36210   2.939   8.681  10.942
44793SOL    HW136211   2.971   8.665  10.853
44793SOL    HW236212   3.004   8.740  10.980
44794SOL     OW36213   6.625   3.723   0.627
44794SOL    HW136214   6.683   3.790   0.663
44794SOL    HW236215   6.664   3.640   0.656
44795SOL     OW36216   9.131  13.153   0.116
44795SOL    HW136217   9.049  13.112   0.089
44795SOL    HW236218   9.192  13.134   0.045
44796SOL     OW36219   3.697  12.988   3.812
44796SOL    HW136220   3.731  12.903   3.841
44796SOL    HW236221   3.610  12.993   3.851
44797SOL     OW36222   7.862   6.188   1.160
44797SOL    HW136223   7.932   6.232   1.208
44797SOL    HW236224   7.855   6.102   1.201
44798SOL     OW36225   1.772  10.707   2.262
44798SOL    HW136226   1.790  10.745   2.176
44798SOL    HW236227   1.833  10.751   2.321
44799SOL     OW36228   3.578  13.253   4.101
44799SOL    HW136229   3.515  13.309   4.055
44799SOL    HW236230   3.660  13.303   4.101
44800SOL     OW36231  14.049   4.990  13.929
44800SOL    HW136232  14.130   4.947  13.903
44800SOL    HW236233  14.008   4.931  13.992
44801SOL     OW36234   9.548   5.036  12.346
44801SOL    HW136235   9.505   5.099  12.288
44801SOL    HW236236   9.511   4.951  12.321
44802SOL     OW36237   7.751   9.883   3.954
44802SOL    HW136238   7.765   9.798   3.913
44802SOL    HW236239   7.746   9.864   4.048
44803SOL     OW36240   4.103   4.170   5.181
44803SOL    HW136241   4.105   4.246   5.239
44803SOL    HW236242   4.149   4.200   5.102
44804SOL     OW36243  12.124  13.967   1.446
44804SOL    HW136244  12.055  14.032   1.437
44804SOL    HW236245  12.200  14.016   1.478
44805SOL     OW36246   2.256  13.410   3.395
44805SOL    HW136247   2.253  13.418   3.490
44805SOL    HW236248   2.166  13.428   3.366
44806SOL     OW36249   4.542  14.554   3.998
44806SOL    HW136250   4.501  14.482   3.951
44806SOL    HW236251   4.480  14.577   4.067
44807SOL     OW36252   9.098  12.085   7.164
44807SOL    HW136253   9.174  12.029   7.152
44807SOL    HW236254   9.101  12.112   7.256
44808SOL     OW36255   0.720  10.895   2.468
44808SOL    HW136256   0.711  10.875   2.375
44808SOL    HW236257   0.641  10.861   2.508
44809SOL     OW36258  12.014   8.215  13.495
44809SOL    HW136259  12.097   8.239  13.454
44809SOL    HW236260  12.003   8.122  13.474
44810SOL     OW36261   1.532   6.823  12.184
44810SOL    HW136262   1.601   6.792  12.126
44810SOL    HW236263   1.534   6.919  12.175
44811SOL     OW36264   5.689   7.619  13.637
44811SOL    HW136265   5.738   7.677  13.579
44811SOL    HW236266   5.737   7.536  13.635
44812SOL     OW36267   6.900   5.161  10.441
44812SOL    HW136268   6.816   5.157  10.487
44812SOL    HW236269   6.881   5.204  10.358
44813SOL     OW36270   7.530  13.658   0.533
44813SOL    HW136271   7.619  13.682   0.557
44813SOL    HW236272   7.487  13.742   0.515
44814SOL     OW36273   5.409   7.072   8.870
44814SOL    HW136274   5.411   7.123   8.789
44814SOL    HW236275   5.381   6.985   8.844
44815SOL     OW36276  12.222   4.917   3.527
44815SOL    HW136277  12.226   4.844   3.464
44815SOL    HW236278  12.289   4.978   3.497
44816SOL     OW36279  12.461   4.515   5.378
44816SOL    HW136280  12.552   4.532   5.353
44816SOL    HW236281  12.410   4.570   5.319
44817SOL     OW36282   7.104   6.778  10.344
44817SOL    HW136283   7.025   6.779  10.289
44817SOL    HW236284   7.177   6.774  10.282
44818SOL     OW36285   1.199   3.258   6.706
44818SOL    HW136286   1.259   3.197   6.748
44818SOL    HW236287   1.117   3.210   6.696
44819SOL     OW36288  14.136   7.310  12.559
44819SOL    HW136289  14.105   7.252  12.628
44819SOL    HW236290  14.063   7.315  12.497
44820SOL     OW36291  14.817   5.708   7.701
44820SOL    HW136292  14.726   5.727   7.722
44820SOL    HW236293  14.816   5.621   7.662
44821SOL     OW36294   8.273   3.656  11.699
44821SOL    HW136295   8.362   3.686  11.717
44821SOL    HW236296   8.252   3.599  11.772
44822SOL     OW36297   1.420   0.514   8.030
44822SOL    HW136298   1.443   0.592   8.080
44822SOL    HW236299   1.474   0.520   7.951
44823SOL     OW36300  11.725  13.323  14.789
44823SOL    HW136301  11.787  13.359  14.852
44823SOL    HW236302  11.780  13.289  14.718
44824SOL     OW36303   3.473   9.758  11.369
44824SOL    HW136304   3.531   9.755  11.294
44824SOL    HW236305   3.388   9.782  11.333
44825SOL     OW36306   9.035   6.974   6.258
44825SOL    HW136307   9.110   6.974   6.198
44825SOL    HW236308   8.977   6.906   6.224
44826SOL     OW36309   0.010   4.674  14.551
44826SOL    HW136310   0.095   4.632  14.556
44826SOL    HW236311   0.016   4.732  14.474
44827SOL     OW36312   9.803  13.101   3.778
44827SOL    HW136313   9.822  13.028   3.837
44827SOL    HW236314   9.870  13.166   3.799
44828SOL     OW36315   1.078  11.483   5.387
44828SOL    HW136316   1.101  11.390   5.398
44828SOL    HW236317   1.156  11.530   5.415
44829SOL     OW36318   3.372  10.062   0.825
44829SOL    HW136319   3.288  10.085   0.864
44829SOL    HW236320   3.364  10.086   0.733
44830SOL     OW36321  12.596  10.683   2.934
44830SOL    HW136322  12.597  10.729   2.850
44830SOL    HW236323  12.565  10.595   2.914
44831SOL     OW36324  14.403   7.739   4.274
44831SOL    HW136325  14.486   7.720   4.231
44831SOL    HW236326  14.342   7.675   4.237
44832SOL     OW36327   9.778  13.513   3.676
44832SOL    HW136328   9.790  13.432   3.726
44832SOL    HW236329   9.859  13.562   3.691
44833SOL     OW36330  10.822   4.586   4.016
44833SOL    HW136331  10.784   4.511   3.971
44833SOL    HW236332  10.782   4.584   4.103
44834SOL     OW36333   4.631   4.626   6.609
44834SOL    HW136334   4.579   4.699   6.576
44834SOL    HW236335   4.608   4.621   6.702
44835SOL     OW36336  11.183  11.213  10.426
44835SOL    HW136337  11.147  11.193  10.340
44835SOL    HW236338  11.185  11.309  10.429
44836SOL     OW36339   7.464   6.215   4.234
44836SOL    HW136340   7.384   6.192   4.282
44836SOL    HW236341   7.519   6.259   4.299
44837SOL     OW36342   2.548  13.704  10.331
44837SOL    HW136343   2.546  13.658  10.415
44837SOL    HW236344   2.547  13.797  10.355
44838SOL     OW36345   4.056   7.255  13.046
44838SOL    HW136346   4.077   7.169  13.084
44838SOL    HW236347   4.138   7.304  13.051
44839SOL     OW36348  12.061  10.148  11.109
44839SOL    HW136349  12.082  10.194  11.027
44839SOL    HW236350  12.048  10.218  11.173
44840SOL     OW36351   5.594   4.929  11.205
44840SOL    HW136352   5.682   4.959  11.185
44840SOL    HW236353   5.549   4.925  11.121
44841SOL     OW36354  11.105   5.583   3.131
44841SOL    HW136355  11.026   5.542   3.097
44841SOL    HW236356  11.096   5.675   3.107
44842SOL     OW36357   0.927   5.578   1.112
44842SOL    HW136358   0.898   5.568   1.203
44842SOL    HW236359   1.023   5.579   1.118
44843SOL     OW36360   0.448   1.190  10.227
44843SOL    HW136361   0.394   1.112  10.213
44843SOL    HW236362   0.482   1.211  10.140
44844SOL     OW36363   5.893  13.695  11.860
44844SOL    HW136364   5.829  13.627  11.879
44844SOL    HW236365   5.841  13.767  11.822
44845SOL     OW36366  10.727  11.295   0.321
44845SOL    HW136367  10.797  11.294   0.386
44845SOL    HW236368  10.660  11.236   0.357
44846SOL     OW36369   2.255   5.242  10.585
44846SOL    HW136370   2.199   5.319  10.589
44846SOL    HW236371   2.343   5.276  10.602
44847SOL     OW36372  13.241  10.315   3.131
44847SOL    HW136373  13.146  10.307   3.129
44847SOL    HW236374  13.263  10.315   3.224
44848SOL     OW36375   9.170   3.882   3.318
44848SOL    HW136376   9.159   3.968   3.359
44848SOL    HW236377   9.087   3.837   3.333
44849SOL     OW36378   9.977   1.777   9.734
44849SOL    HW136379  10.053   1.739   9.689
44849SOL    HW236380   9.912   1.790   9.665
44850SOL     OW36381   9.648  14.029  10.146
44850SOL    HW136382   9.570  14.065  10.103
44850SOL    HW236383   9.710  14.013  10.075
44851SOL     OW36384   2.292   2.503   8.448
44851SOL    HW136385   2.357   2.517   8.517
44851SOL    HW236386   2.251   2.589   8.436
44852SOL     OW36387   7.850   0.452  13.660
44852SOL    HW136388   7.864   0.366  13.699
44852SOL    HW236389   7.931   0.500  13.677
44853SOL     OW36390   1.442  13.451  12.145
44853SOL    HW136391   1.405  13.364  12.159
44853SOL    HW236392   1.384  13.492  12.081
44854SOL     OW36393  14.291   9.864   3.978
44854SOL    HW136394  14.339   9.792   4.018
44854SOL    HW236395  14.335   9.943   4.008
44855SOL     OW36396  14.521   2.563   5.603
44855SOL    HW136397  14.575   2.544   5.526
44855SOL    HW236398  14.520   2.481   5.652
44856SOL     OW36399  14.844   0.870  11.232
44856SOL    HW136400   0.010   0.855  11.151
44856SOL    HW236401  14.880   0.806  11.293
44857SOL     OW36402  12.115   9.822  11.592
44857SOL    HW136403  12.142   9.911  11.568
44857SOL    HW236404  12.178   9.765  11.546
44858SOL     OW36405   9.456  11.383   5.911
44858SOL    HW136406   9.469  11.393   6.005
44858SOL    HW236407   9.387  11.446   5.889
44859SOL     OW36408   1.786  12.048   2.853
44859SOL    HW136409   1.798  11.965   2.899
44859SOL    HW236410   1.718  12.093   2.904
44860SOL     OW36411   4.180   1.176  14.716
44860SOL    HW136412   4.187   1.083  14.694
44860SOL    HW236413   4.134   1.215  14.642
44861SOL     OW36414  12.111   0.453  13.382
44861SOL    HW136415  12.127   0.547  13.390
44861SOL    HW236416  12.174   0.412  13.441
44862SOL     OW36417   5.016   5.527   0.038
44862SOL    HW136418   5.052   5.545  14.833
44862SOL    HW236419   5.081   5.565   0.098
44863SOL     OW36420   8.318   2.808   6.802
44863SOL    HW136421   8.340   2.775   6.714
44863SOL    HW236422   8.381   2.878   6.817
44864SOL     OW36423   8.105   7.978   9.737
44864SOL    HW136424   8.045   8.050   9.715
44864SOL    HW236425   8.179   8.021   9.780
44865SOL     OW36426   3.362   6.267   3.011
44865SOL    HW136427   3.427   6.315   2.959
44865SOL    HW236428   3.406   6.185   3.034
44866SOL     OW36429  10.881   7.958   6.313
44866SOL    HW136430  10.970   7.991   6.326
44866SOL    HW236431  10.874   7.948   6.218
44867SOL     OW36432   0.392   0.367   8.483
44867SOL    HW136433   0.307   0.410   8.468
44867SOL    HW236434   0.377   0.276   8.458
44868SOL     OW36435   5.910   4.102   0.600
44868SOL    HW136436   5.927   4.184   0.646
44868SOL    HW236437   5.995   4.076   0.564
44869SOL     OW36438   3.736   2.340  13.464
44869SOL    HW136439   3.829   2.322  13.479
44869SOL    HW236440   3.731   2.367  13.372
44870SOL     OW36441   8.283   3.441  13.780
44870SOL    HW136442   8.350   3.473  13.839
44870SOL    HW236443   8.300   3.485  13.697
44871SOL     OW36444   3.471   5.195   9.760
44871SOL    HW136445   3.437   5.209   9.848
44871SOL    HW236446   3.405   5.139   9.718
44872SOL     OW36447  10.546  11.624   6.216
44872SOL    HW136448  10.593  11.696   6.175
44872SOL    HW236449  10.523  11.656   6.303
44873SOL     OW36450   0.917  12.873   7.206
44873SOL    HW136451   0.943  12.781   7.213
44873SOL    HW236452   0.825  12.874   7.232
44874SOL     OW36453  13.912  10.727  12.252
44874SOL    HW136454  13.937  10.731  12.344
44874SOL    HW236455  13.828  10.680  12.252
44875SOL     OW36456   8.588  12.746   6.597
44875SOL    HW136457   8.643  12.759   6.519
44875SOL    HW236458   8.579  12.833   6.635
44876SOL     OW36459   2.841   3.229  13.407
44876SOL    HW136460   2.751   3.237  13.438
44876SOL    HW236461   2.846   3.141  13.369
44877SOL     OW36462  12.263   8.790   6.681
44877SOL    HW136463  12.337   8.767   6.737
44877SOL    HW236464  12.303   8.839   6.609
44878SOL     OW36465  11.187  12.121   1.208
44878SOL    HW136466  11.225  12.036   1.230
44878SOL    HW236467  11.257  12.184   1.227
44879SOL     OW36468  13.876   7.953   6.589
44879SOL    HW136469  13.787   7.916   6.590
44879SOL    HW236470  13.911   7.931   6.675
44880SOL     OW36471   0.937   8.616  11.624
44880SOL    HW136472   0.978   8.652  11.703
44880SOL    HW236473   0.864   8.564  11.657
44881SOL     OW36474   1.762   9.441   4.074
44881SOL    HW136475   1.698   9.388   4.121
44881SOL    HW236476   1.721   9.457   3.989
44882SOL     OW36477   4.526   7.188   1.884
44882SOL    HW136478   4.452   7.129   1.871
44882SOL    HW236479   4.578   7.147   1.953
44883SOL     OW36480   5.396   0.282   0.953
44883SOL    HW136481   5.392   0.324   1.039
44883SOL    HW236482   5.489   0.285   0.929
44884SOL     OW36483   9.296   1.680   3.733
44884SOL    HW136484   9.366   1.741   3.710
44884SOL    HW236485   9.216   1.729   3.716
44885SOL     OW36486   5.308   9.009  13.220
44885SOL    HW136487   5.358   8.960  13.285
44885SOL    HW236488   5.359   9.001  13.139
44886SOL     OW36489   3.402   8.264   6.518
44886SOL    HW136490   3.343   8.298   6.451
44886SOL    HW236491   3.353   8.274   6.600
44887SOL     OW36492   8.646   1.276   5.588
44887SOL    HW136493   8.621   1.291   5.496
44887SOL    HW236494   8.641   1.182   5.599
44888SOL     OW36495  13.163  13.489  12.587
44888SOL    HW136496  13.077  13.522  12.563
44888SOL    HW236497  13.171  13.407  12.539
44889SOL     OW36498   7.697   0.305  11.048
44889SOL    HW136499   7.669   0.224  11.006
44889SOL    HW236500   7.636   0.371  11.015
44890SOL     OW36501   2.767   1.663   2.369
44890SOL    HW136502   2.723   1.733   2.321
44890SOL    HW236503   2.702   1.593   2.376
44891SOL     OW36504   9.977   2.395  12.745
44891SOL    HW136505   9.990   2.452  12.820
44891SOL    HW236506  10.051   2.335  12.747
44892SOL     OW36507   9.409   4.058   6.082
44892SOL    HW136508   9.490   4.010   6.100
44892SOL    HW236509   9.344   4.016   6.137
44893SOL     OW36510   3.728  10.500   8.095
44893SOL    HW136511   3.817  10.495   8.059
44893SOL    HW236512   3.740  10.507   8.189
44894SOL     OW36513   5.690   7.235  12.316
44894SOL    HW136514   5.770   7.274  12.354
44894SOL    HW236515   5.675   7.285  12.236
44895SOL     OW36516   3.574  10.922   5.895
44895SOL    HW136517   3.555  10.972   5.815
44895SOL    HW236518   3.628  10.849   5.865
44896SOL     OW36519   1.633  11.469  12.944
44896SOL    HW136520   1.570  11.538  12.928
44896SOL    HW236521   1.688  11.501  13.015
44897SOL     OW36522  12.328  13.315   7.372
44897SOL    HW136523  12.295  13.255   7.438
44897SOL    HW236524  12.301  13.402   7.403
44898SOL     OW36525  13.943   8.924   6.950
44898SOL    HW136526  14.010   8.943   6.884
44898SOL    HW236527  13.948   8.998   7.011
44899SOL     OW36528   5.746  10.437   8.027
44899SOL    HW136529   5.748  10.374   7.955
44899SOL    HW236530   5.825  10.416   8.078
44900SOL     OW36531  13.791   7.055   2.547
44900SOL    HW136532  13.835   6.974   2.520
44900SOL    HW236533  13.739   7.029   2.623
44901SOL     OW36534   3.439   8.383  11.792
44901SOL    HW136535   3.533   8.372  11.809
44901SOL    HW236536   3.419   8.315  11.727
44902SOL     OW36537  10.477   6.553  14.788
44902SOL    HW136538  10.386   6.531  14.807
44902SOL    HW236539  10.476   6.579  14.696
44903SOL     OW36540  12.052  11.271   1.570
44903SOL    HW136541  12.110  11.285   1.494
44903SOL    HW236542  12.087  11.329   1.637
44904SOL     OW36543  14.584  13.032   8.110
44904SOL    HW136544  14.499  13.044   8.066
44904SOL    HW236545  14.562  12.989   8.192
44905SOL     OW36546  13.106  12.498  14.671
44905SOL    HW136547  13.022  12.500  14.624
44905SOL    HW236548  13.169  12.468  14.605
44906SOL     OW36549   0.423  12.081   3.732
44906SOL    HW136550   0.369  12.025   3.787
44906SOL    HW236551   0.453  12.150   3.791
44907SOL     OW36552  10.374   3.145   8.540
44907SOL    HW136553  10.279   3.155   8.537
44907SOL    HW236554  10.404   3.216   8.596
44908SOL     OW36555   1.429  14.292   5.067
44908SOL    HW136556   1.494  14.230   5.033
44908SOL    HW236557   1.446  14.373   5.019
44909SOL     OW36558   6.134  13.554   2.140
44909SOL    HW136559   6.226  13.567   2.162
44909SOL    HW236560   6.135  13.528   2.048
44910SOL     OW36561   7.243   1.771  11.709
44910SOL    HW136562   7.243   1.821  11.791
44910SOL    HW236563   7.285   1.828  11.645
44911SOL     OW36564   1.144  12.754  13.766
44911SOL    HW136565   1.113  12.698  13.838
44911SOL    HW236566   1.220  12.799  13.802
44912SOL     OW36567   1.260   1.221   3.501
44912SOL    HW136568   1.294   1.291   3.444
44912SOL    HW236569   1.215   1.161   3.440
44913SOL     OW36570   4.927   8.837   6.896
44913SOL    HW136571   4.841   8.822   6.856
44913SOL    HW236572   4.920   8.923   6.937
44914SOL     OW36573   3.353   7.010   3.006
44914SOL    HW136574   3.436   6.984   3.047
44914SOL    HW236575   3.364   6.987   2.914
44915SOL     OW36576   0.768   8.439   6.178
44915SOL    HW136577   0.683   8.433   6.135
44915SOL    HW236578   0.829   8.457   6.107
44916SOL     OW36579   4.305  11.040  13.498
44916SOL    HW136580   4.315  10.949  13.524
44916SOL    HW236581   4.370  11.054  13.430
44917SOL     OW36582   3.268   8.178  12.948
44917SOL    HW136583   3.218   8.179  12.866
44917SOL    HW236584   3.343   8.121  12.931
44918SOL     OW36585   7.473  11.010  10.483
44918SOL    HW136586   7.420  10.980  10.409
44918SOL    HW236587   7.561  11.023  10.446
44919SOL     OW36588  10.253  10.027   5.806
44919SOL    HW136589  10.217   9.954   5.756
44919SOL    HW236590  10.298   9.985   5.879
44920SOL     OW36591   3.800  10.361   1.877
44920SOL    HW136592   3.804  10.452   1.907
44920SOL    HW236593   3.708  10.345   1.860
44921SOL     OW36594   3.006   3.758  10.580
44921SOL    HW136595   2.975   3.670  10.560
44921SOL    HW236596   2.927   3.808  10.599
44922SOL     OW36597   2.876  11.414  13.377
44922SOL    HW136598   2.859  11.326  13.343
44922SOL    HW236599   2.792  11.442  13.413
44923SOL     OW36600   4.540   2.090   4.949
44923SOL    HW136601   4.553   2.139   5.031
44923SOL    HW236602   4.608   2.023   4.951
44924SOL     OW36603  11.290   5.549   6.883
44924SOL    HW136604  11.216   5.493   6.904
44924SOL    HW236605  11.365   5.506   6.924
44925SOL     OW36606   4.456   3.240   2.334
44925SOL    HW136607   4.448   3.327   2.372
44925SOL    HW236608   4.421   3.181   2.401
44926SOL     OW36609   3.752   1.314   5.228
44926SOL    HW136610   3.794   1.337   5.146
44926SOL    HW236611   3.734   1.220   5.220
44927SOL     OW36612  10.298  12.120   5.505
44927SOL    HW136613  10.293  12.025   5.519
44927SOL    HW236614  10.274  12.158   5.590
44928SOL     OW36615   1.986  11.505   3.761
44928SOL    HW136616   2.027  11.472   3.681
44928SOL    HW236617   1.892  11.506   3.740
44929SOL     OW36618   4.979   4.336  12.187
44929SOL    HW136619   4.902   4.378  12.150
44929SOL    HW236620   5.052   4.370  12.136
44930SOL     OW36621   2.136  14.567   2.908
44930SOL    HW136622   2.165  14.488   2.954
44930SOL    HW236623   2.213  14.624   2.909
44931SOL     OW36624  13.978   0.601   9.803
44931SOL    HW136625  13.967   0.539   9.875
44931SOL    HW236626  13.976   0.547   9.724
44932SOL     OW36627   7.210  12.871  13.823
44932SOL    HW136628   7.264  12.818  13.882
44932SOL    HW236629   7.125  12.876  13.866
44933SOL     OW36630   6.594   9.747   0.709
44933SOL    HW136631   6.655   9.686   0.667
44933SOL    HW236632   6.612   9.738   0.803
44934SOL     OW36633   9.778   9.078   7.650
44934SOL    HW136634   9.806   8.988   7.631
44934SOL    HW236635   9.755   9.114   7.564
44935SOL     OW36636   7.505   0.827   2.966
44935SOL    HW136637   7.570   0.765   3.000
44935SOL    HW236638   7.553   0.908   2.954
44936SOL     OW36639   0.612   4.256   1.095
44936SOL    HW136640   0.632   4.249   1.188
44936SOL    HW236641   0.691   4.223   1.051
44937SOL     OW36642  10.454  14.680   7.674
44937SOL    HW136643  10.404  14.599   7.679
44937SOL    HW236644  10.416  14.728   7.600
44938SOL     OW36645  11.152  10.665   6.807
44938SOL    HW136646  11.114  10.642   6.892
44938SOL    HW236647  11.220  10.599   6.792
44939SOL     OW36648   8.251  13.641  12.546
44939SOL    HW136649   8.186  13.611  12.483
44939SOL    HW236650   8.200  13.661  12.625
44940SOL     OW36651   5.911  12.270   4.230
44940SOL    HW136652   5.928  12.336   4.297
44940SOL    HW236653   5.875  12.195   4.278
44941SOL     OW36654   0.942  12.088  13.754
44941SOL    HW136655   0.942  12.105  13.660
44941SOL    HW236656   1.017  12.136  13.788
44942SOL     OW36657  11.230   8.758   4.044
44942SOL    HW136658  11.325   8.760   4.058
44942SOL    HW236659  11.198   8.839   4.085
44943SOL     OW36660   4.859   9.610   1.160
44943SOL    HW136661   4.819   9.568   1.236
44943SOL    HW236662   4.873   9.539   1.098
44944SOL     OW36663  12.034   7.569  10.758
44944SOL    HW136664  12.105   7.632  10.748
44944SOL    HW236665  12.077   7.484  10.763
44945SOL     OW36666   7.301  11.636   3.988
44945SOL    HW136667   7.348  11.708   4.030
44945SOL    HW236668   7.208  11.661   3.993
44946SOL     OW36669   9.014   5.671   0.878
44946SOL    HW136670   8.981   5.605   0.817
44946SOL    HW236671   8.945   5.681   0.943
44947SOL     OW36672  12.752   5.237  11.810
44947SOL    HW136673  12.668   5.228  11.763
44947SOL    HW236674  12.789   5.149  11.810
44948SOL     OW36675   1.427  11.501   4.678
44948SOL    HW136676   1.384  11.529   4.759
44948SOL    HW236677   1.400  11.410   4.667
44949SOL     OW36678   0.927   9.158   0.336
44949SOL    HW136679   0.949   9.217   0.408
44949SOL    HW236680   1.001   9.165   0.276
44950SOL     OW36681  12.160  12.383   4.710
44950SOL    HW136682  12.111  12.463   4.725
44950SOL    HW236683  12.242  12.395   4.758
44951SOL     OW36684   7.459   2.170  10.799
44951SOL    HW136685   7.516   2.185  10.724
44951SOL    HW236686   7.448   2.075  10.802
44952SOL     OW36687   5.658  11.511   2.630
44952SOL    HW136688   5.564  11.529   2.630
44952SOL    HW236689   5.691  11.557   2.708
44953SOL     OW36690   8.899   0.645   6.929
44953SOL    HW136691   8.875   0.732   6.898
44953SOL    HW236692   8.846   0.633   7.008
44954SOL     OW36693  11.931   3.890   4.894
44954SOL    HW136694  11.910   3.804   4.930
44954SOL    HW236695  12.012   3.877   4.845
44955SOL     OW36696   4.643   7.287   5.642
44955SOL    HW136697   4.715   7.227   5.656
44955SOL    HW236698   4.635   7.293   5.547
44956SOL     OW36699   4.915   6.687   8.510
44956SOL    HW136700   4.983   6.722   8.567
44956SOL    HW236701   4.859   6.762   8.490
44957SOL     OW36702   4.297   0.609   9.439
44957SOL    HW136703   4.379   0.578   9.478
44957SOL    HW236704   4.243   0.635   9.514
44958SOL     OW36705   6.550  11.037   9.811
44958SOL    HW136706   6.599  11.087   9.876
44958SOL    HW236707   6.612  11.025   9.739
44959SOL     OW36708  12.053   4.875  14.751
44959SOL    HW136709  12.077   4.833  14.668
44959SOL    HW236710  12.137   4.894  14.793
44960SOL     OW36711   1.412  14.460   9.057
44960SOL    HW136712   1.330  14.494   9.022
44960SOL    HW236713   1.472  14.460   8.983
44961SOL     OW36714   2.148   2.100   3.642
44961SOL    HW136715   2.079   2.162   3.666
44961SOL    HW236716   2.229   2.140   3.674
44962SOL     OW36717   6.345  13.182  11.142
44962SOL    HW136718   6.332  13.155  11.233
44962SOL    HW236719   6.405  13.257  11.148
44963SOL     OW36720   2.581   4.797   3.809
44963SOL    HW136721   2.629   4.879   3.815
44963SOL    HW236722   2.574   4.781   3.715
44964SOL     OW36723  13.314   1.794  12.570
44964SOL    HW136724  13.304   1.717  12.626
44964SOL    HW236725  13.247   1.855  12.600
44965SOL     OW36726  11.142   1.178  12.497
44965SOL    HW136727  11.183   1.128  12.568
44965SOL    HW236728  11.111   1.258  12.539
44966SOL     OW36729   9.480  12.588   9.982
44966SOL    HW136730   9.405  12.555   9.931
44966SOL    HW236731   9.465  12.554  10.070
44967SOL     OW36732   7.228  11.376  10.578
44967SOL    HW136733   7.311  11.335  10.600
44967SOL    HW236734   7.248  11.433  10.504
44968SOL     OW36735   8.626   4.607   2.156
44968SOL    HW136736   8.578   4.625   2.075
44968SOL    HW236737   8.591   4.524   2.187
44969SOL     OW36738   7.054  11.825   7.309
44969SOL    HW136739   7.042  11.908   7.357
44969SOL    HW236740   6.964  11.798   7.287
44970SOL     OW36741   6.662   9.703   0.975
44970SOL    HW136742   6.619   9.701   1.061
44970SOL    HW236743   6.735   9.764   0.986
44971SOL     OW36744  13.648  14.014   3.781
44971SOL    HW136745  13.673  13.994   3.691
44971SOL    HW236746  13.594  13.939   3.808
44972SOL     OW36747   6.669   3.991   7.175
44972SOL    HW136748   6.586   4.040   7.178
44972SOL    HW236749   6.644   3.904   7.144
44973SOL     OW36750   4.482   0.416   6.376
44973SOL    HW136751   4.484   0.375   6.290
44973SOL    HW236752   4.393   0.452   6.384
44974SOL     OW36753  14.247   3.733   1.642
44974SOL    HW136754  14.310   3.701   1.577
44974SOL    HW236755  14.300   3.780   1.706
44975SOL     OW36756   3.814   0.514   7.082
44975SOL    HW136757   3.796   0.603   7.113
44975SOL    HW236758   3.909   0.512   7.071
44976SOL     OW36759   5.253   6.942   9.243
44976SOL    HW136760   5.226   6.890   9.167
44976SOL    HW236761   5.252   6.880   9.316
44977SOL     OW36762   3.515  14.383   2.005
44977SOL    HW136763   3.494  14.290   2.002
44977SOL    HW236764   3.436  14.424   2.042
44978SOL     OW36765   9.557   8.859   5.956
44978SOL    HW136766   9.465   8.877   5.936
44978SOL    HW236767   9.600   8.945   5.950
44979SOL     OW36768  14.835   6.421  10.818
44979SOL    HW136769  14.789   6.357  10.872
44979SOL    HW236770   0.025   6.452  10.873
44980SOL     OW36771   0.319  14.072   3.573
44980SOL    HW136772   0.350  14.114   3.654
44980SOL    HW236773   0.256  14.006   3.602
44981SOL     OW36774   9.218   7.522  10.371
44981SOL    HW136775   9.273   7.598  10.352
44981SOL    HW236776   9.131   7.558  10.389
44982SOL     OW36777   1.105   2.260  12.072
44982SOL    HW136778   1.165   2.186  12.062
44982SOL    HW236779   1.127   2.296  12.158
44983SOL     OW36780  10.494  13.366   9.458
44983SOL    HW136781  10.492  13.332   9.369
44983SOL    HW236782  10.417  13.327   9.501
44984SOL     OW36783   5.798   7.375   7.790
44984SOL    HW136784   5.784   7.393   7.697
44984SOL    HW236785   5.771   7.455   7.835
44985SOL     OW36786   7.907  12.512   8.792
44985SOL    HW136787   7.997  12.491   8.817
44985SOL    HW236788   7.895  12.471   8.707
44986SOL     OW36789   9.457   1.100  12.191
44986SOL    HW136790   9.531   1.157  12.211
44986SOL    HW236791   9.473   1.021  12.243
44987SOL     OW36792   0.971   2.914   1.583
44987SOL    HW136793   0.934   3.001   1.595
44987SOL    HW236794   0.945   2.866   1.661
44988SOL     OW36795   4.132   8.738  12.942
44988SOL    HW136796   4.198   8.786  12.892
44988SOL    HW236797   4.124   8.654  12.897
44989SOL     OW36798  12.931   1.918   4.504
44989SOL    HW136799  12.975   1.995   4.467
44989SOL    HW236800  12.837   1.937   4.496
44990SOL     OW36801  12.320   4.930   7.784
44990SOL    HW136802  12.224   4.927   7.785
44990SOL    HW236803  12.343   4.935   7.691
44991SOL     OW36804   0.367   3.700   1.840
44991SOL    HW136805   0.302   3.675   1.775
44991SOL    HW236806   0.425   3.760   1.792
44992SOL     OW36807   7.716   2.648  14.656
44992SOL    HW136808   7.774   2.672  14.728
44992SOL    HW236809   7.630   2.638  14.696
44993SOL     OW36810   6.097  10.350   6.456
44993SOL    HW136811   6.149  10.280   6.494
44993SOL    HW236812   6.158  10.399   6.402
44994SOL     OW36813   6.217  12.600   3.646
44994SOL    HW136814   6.231  12.528   3.585
44994SOL    HW236815   6.305  12.622   3.679
44995SOL     OW36816  13.582   5.411   4.727
44995SOL    HW136817  13.589   5.395   4.821
44995SOL    HW236818  13.633   5.489   4.712
44996SOL     OW36819  13.604   1.217   6.355
44996SOL    HW136820  13.594   1.292   6.414
44996SOL    HW236821  13.514   1.189   6.337
44997SOL     OW36822   3.089   2.842   7.407
44997SOL    HW136823   3.061   2.766   7.458
44997SOL    HW236824   3.012   2.868   7.358
44998SOL     OW36825  13.668   5.531  12.681
44998SOL    HW136826  13.704   5.601  12.626
44998SOL    HW236827  13.573   5.543  12.676
44999SOL     OW36828  11.225   5.659   9.129
44999SOL    HW136829  11.295   5.669   9.193
44999SOL    HW236830  11.260   5.597   9.064
45000SOL     OW36831   2.858   6.282   1.700
45000SOL    HW136832   2.849   6.190   1.727
45000SOL    HW236833   2.949   6.304   1.719
45001SOL     OW36834   6.081  13.109  10.613
45001SOL    HW136835   6.148  13.126  10.547
45001SOL    HW236836   6.080  13.014  10.623
45002SOL     OW36837   7.727   4.237  12.488
45002SOL    HW136838   7.791   4.268  12.424
45002SOL    HW236839   7.681   4.166  12.443
45003SOL     OW36840  14.377   3.243  10.212
45003SOL    HW136841  14.423   3.271  10.290
45003SOL    HW236842  14.438   3.184  10.167
45004SOL     OW36843   0.796   4.069  14.420
45004SOL    HW136844   0.842   4.149  14.396
45004SOL    HW236845   0.754   4.040  14.339
45005SOL     OW36846  13.275   2.683   7.484
45005SOL    HW136847  13.358   2.711   7.445
45005SOL    HW236848  13.208   2.716   7.423
45006SOL     OW36849  13.371   8.047  13.785
45006SOL    HW136850  13.441   8.045  13.851
45006SOL    HW236851  13.322   7.966  13.800
45007SOL     OW36852  13.794  12.924   0.770
45007SOL    HW136853  13.874  12.874   0.787
45007SOL    HW236854  13.788  12.929   0.674
45008SOL     OW36855   4.219   0.466   0.597
45008SOL    HW136856   4.142   0.505   0.637
45008SOL    HW236857   4.228   0.380   0.639
45009SOL     OW36858   6.351  14.605   7.322
45009SOL    HW136859   6.259  14.622   7.346
45009SOL    HW236860   6.359  14.510   7.328
45010SOL     OW36861   9.962   8.063  12.387
45010SOL    HW136862   9.925   8.071  12.475
45010SOL    HW236863   9.934   8.142  12.341
45011SOL     OW36864   0.538  11.953   9.980
45011SOL    HW136865   0.520  12.044   9.954
45011SOL    HW236866   0.486  11.941  10.059
45012SOL     OW36867   7.932   2.215  10.388
45012SOL    HW136868   7.878   2.292  10.406
45012SOL    HW236869   8.008   2.249  10.341
45013SOL     OW36870   6.978   3.349   5.587
45013SOL    HW136871   6.910   3.303   5.537
45013SOL    HW236872   6.930   3.391   5.659
45014SOL     OW36873   0.135   3.510   2.123
45014SOL    HW136874   0.165   3.431   2.080
45014SOL    HW236875   0.070   3.548   2.064
45015SOL     OW36876   6.781   2.014   3.595
45015SOL    HW136877   6.844   1.979   3.659
45015SOL    HW236878   6.703   1.960   3.606
45016SOL     OW36879   6.571   8.270   4.144
45016SOL    HW136880   6.617   8.257   4.227
45016SOL    HW236881   6.501   8.205   4.144
45017SOL     OW36882   9.190   5.458  11.607
45017SOL    HW136883   9.201   5.468  11.701
45017SOL    HW236884   9.255   5.517  11.568
45018SOL     OW36885   2.839   8.605   8.833
45018SOL    HW136886   2.770   8.642   8.887
45018SOL    HW236887   2.800   8.597   8.746
45019SOL     OW36888  12.292   2.950  11.007
45019SOL    HW136889  12.290   2.866  11.052
45019SOL    HW236890  12.382   2.957  10.974
45020SOL     OW36891   5.752   2.334   0.959
45020SOL    HW136892   5.835   2.374   0.933
45020SOL    HW236893   5.771   2.291   1.042
45021SOL     OW36894   4.637  10.330   8.458
45021SOL    HW136895   4.700  10.259   8.469
45021SOL    HW236896   4.690  10.409   8.447
45022SOL     OW36897   6.600   3.934   3.043
45022SOL    HW136898   6.518   3.984   3.042
45022SOL    HW236899   6.624   3.928   3.135
45023SOL     OW36900   6.814   2.811   7.967
45023SOL    HW136901   6.881   2.747   7.942
45023SOL    HW236902   6.852   2.855   8.044
45024SOL     OW36903  11.444   7.359  12.176
45024SOL    HW136904  11.520   7.302  12.189
45024SOL    HW236905  11.459   7.432  12.236
45025SOL     OW36906  13.824  10.080   2.160
45025SOL    HW136907  13.883  10.019   2.204
45025SOL    HW236908  13.816  10.047   2.071
45026SOL     OW36909   4.012   4.161   8.239
45026SOL    HW136910   4.002   4.160   8.144
45026SOL    HW236911   3.929   4.195   8.272
45027SOL     OW36912  13.002   9.395   3.760
45027SOL    HW136913  12.911   9.424   3.772
45027SOL    HW236914  13.053   9.452   3.817
45028SOL     OW36915  10.061   0.543  14.012
45028SOL    HW136916  10.131   0.540  13.948
45028SOL    HW236917  10.008   0.618  13.986
45029SOL     OW36918   4.910   8.060   9.478
45029SOL    HW136919   4.912   7.983   9.422
45029SOL    HW236920   5.001   8.071   9.507
45030SOL     OW36921   4.700  12.073   7.900
45030SOL    HW136922   4.741  12.050   7.983
45030SOL    HW236923   4.743  12.017   7.835
45031SOL     OW36924   2.310   9.266   3.954
45031SOL    HW136925   2.256   9.212   4.011
45031SOL    HW236926   2.250   9.298   3.887
45032SOL     OW36927   9.675   0.081  14.134
45032SOL    HW136928   9.740   0.074  14.204
45032SOL    HW236929   9.657  14.872  14.110
45033SOL     OW36930   6.838   2.644  13.138
45033SOL    HW136931   6.820   2.630  13.045
45033SOL    HW236932   6.924   2.604  13.152
45034SOL     OW36933   4.150  14.569   9.761
45034SOL    HW136934   4.209  14.495   9.771
45034SOL    HW236935   4.095  14.567   9.840
45035SOL     OW36936   0.934   6.834  11.513
45035SOL    HW136937   0.955   6.875  11.429
45035SOL    HW236938   0.853   6.878  11.541
45036SOL     OW36939   7.461   2.635   4.366
45036SOL    HW136940   7.378   2.594   4.390
45036SOL    HW236941   7.478   2.698   4.436
45037SOL     OW36942   5.178   8.312   1.613
45037SOL    HW136943   5.229   8.278   1.687
45037SOL    HW236944   5.242   8.322   1.543
45038SOL     OW36945   5.232   7.176   8.292
45038SOL    HW136946   5.190   7.229   8.359
45038SOL    HW236947   5.261   7.239   8.226
45039SOL     OW36948  13.505   7.783  14.471
45039SOL    HW136949  13.489   7.877  14.478
45039SOL    HW236950  13.432   7.742  14.517
45040SOL     OW36951   0.127   9.359   8.992
45040SOL    HW136952   0.129   9.421   9.065
45040SOL    HW236953   0.189   9.394   8.928
45041SOL     OW36954   1.306   5.187   4.520
45041SOL    HW136955   1.250   5.148   4.453
45041SOL    HW236956   1.246   5.214   4.590
45042SOL     OW36957   3.269   9.498   0.577
45042SOL    HW136958   3.323   9.568   0.615
45042SOL    HW236959   3.198   9.487   0.639
45043SOL     OW36960   1.668   9.398   4.854
45043SOL    HW136961   1.659   9.446   4.936
45043SOL    HW236962   1.696   9.463   4.790
45044SOL     OW36963  11.991   3.078   7.278
45044SOL    HW136964  12.064   3.117   7.327
45044SOL    HW236965  11.969   2.999   7.328
45045SOL     OW36966   4.104  14.294   0.672
45045SOL    HW136967   4.142  14.220   0.719
45045SOL    HW236968   4.179  14.339   0.634
45046SOL     OW36969   5.942   1.861   8.152
45046SOL    HW136970   5.859   1.848   8.198
45046SOL    HW236971   5.969   1.773   8.125
45047SOL     OW36972   1.354   1.155  14.717
45047SOL    HW136973   1.282   1.105  14.680
45047SOL    HW236974   1.328   1.170  14.808
45048SOL     OW36975   7.098  10.470  14.251
45048SOL    HW136976   7.097  10.564  14.235
45048SOL    HW236977   7.190  10.447  14.258
45049SOL     OW36978  10.413   3.359   7.660
45049SOL    HW136979  10.370   3.304   7.594
45049SOL    HW236980  10.368   3.338   7.742
45050SOL     OW36981   6.947   9.144   7.293
45050SOL    HW136982   6.977   9.090   7.366
45050SOL    HW236983   6.855   9.161   7.311
45051SOL     OW36984   7.773   3.737   7.975
45051SOL    HW136985   7.796   3.649   7.946
45051SOL    HW236986   7.846   3.792   7.946
45052SOL     OW36987   9.830   7.677   5.110
45052SOL    HW136988   9.781   7.687   5.028
45052SOL    HW236989   9.771   7.628   5.167
45053SOL     OW36990   8.365   4.294   5.254
45053SOL    HW136991   8.410   4.248   5.182
45053SOL    HW236992   8.273   4.297   5.226
45054SOL     OW36993   6.039  13.064   3.801
45054SOL    HW136994   6.039  12.972   3.772
45054SOL    HW236995   6.132  13.087   3.807
45055SOL     OW36996   9.470   9.712   4.666
45055SOL    HW136997   9.457   9.625   4.627
45055SOL    HW236998   9.392   9.761   4.641
45056SOL     OW36999   4.842   3.150   9.285
45056SOL    HW137000   4.820   3.220   9.346
45056SOL    HW237001   4.876   3.195   9.207
45057SOL     OW37002  11.160   3.647   9.739
45057SOL    HW137003  11.154   3.623   9.831
45057SOL    HW237004  11.250   3.678   9.729
45058SOL     OW37005   7.535   7.553   8.176
45058SOL    HW137006   7.499   7.631   8.219
45058SOL    HW237007   7.630   7.563   8.185
45059SOL     OW37008   2.948   4.756   8.347
45059SOL    HW137009   2.929   4.818   8.418
45059SOL    HW237010   2.935   4.807   8.267
45060SOL     OW37011  14.653  13.216  12.555
45060SOL    HW137012  14.608  13.257  12.482
45060SOL    HW237013  14.593  13.148  12.585
45061SOL     OW37014   2.835   2.741   3.390
45061SOL    HW137015   2.748   2.779   3.382
45061SOL    HW237016   2.835   2.666   3.330
45062SOL     OW37017   4.383   0.269   7.738
45062SOL    HW137018   4.415   0.185   7.770
45062SOL    HW237019   4.450   0.298   7.675
45063SOL     OW37020   6.281   2.206   3.685
45063SOL    HW137021   6.222   2.205   3.610
45063SOL    HW237022   6.251   2.278   3.740
45064SOL     OW37023   3.995   1.010   5.880
45064SOL    HW137024   4.025   0.979   5.965
45064SOL    HW237025   4.053   1.083   5.859
45065SOL     OW37026  12.843   5.162  10.458
45065SOL    HW137027  12.844   5.134  10.550
45065SOL    HW237028  12.931   5.199  10.444
45066SOL     OW37029   0.797  10.393   6.290
45066SOL    HW137030   0.800  10.310   6.339
45066SOL    HW237031   0.732  10.446   6.335
45067SOL     OW37032   7.659  12.512  11.604
45067SOL    HW137033   7.734  12.457  11.627
45067SOL    HW237034   7.666  12.588  11.662
45068SOL     OW37035  13.140  12.357  14.051
45068SOL    HW137036  13.088  12.413  14.109
45068SOL    HW237037  13.231  12.378  14.071
45069SOL     OW37038   3.875   4.454   2.568
45069SOL    HW137039   3.786   4.486   2.554
45069SOL    HW237040   3.866   4.388   2.637
45070SOL     OW37041   5.164   8.610  14.432
45070SOL    HW137042   5.204   8.661  14.360
45070SOL    HW237043   5.072   8.635  14.430
45071SOL     OW37044   4.033   3.174   5.428
45071SOL    HW137045   4.051   3.087   5.394
45071SOL    HW237046   3.949   3.198   5.390
45072SOL     OW37047   3.527   1.463  14.512
45072SOL    HW137048   3.469   1.426  14.446
45072SOL    HW237049   3.506   1.415  14.592
45073SOL     OW37050   1.425   5.334  13.509
45073SOL    HW137051   1.424   5.387  13.589
45073SOL    HW237052   1.341   5.288  13.510
45074SOL     OW37053   7.304  10.429  12.082
45074SOL    HW137054   7.241  10.381  12.028
45074SOL    HW237055   7.363  10.471  12.019
45075SOL     OW37056   8.794   8.413   4.953
45075SOL    HW137057   8.736   8.478   4.992
45075SOL    HW237058   8.736   8.341   4.929
45076SOL     OW37059   5.104   9.047   0.974
45076SOL    HW137060   5.011   9.067   0.979
45076SOL    HW237061   5.135   9.092   0.896
45077SOL     OW37062  10.717   0.871   1.204
45077SOL    HW137063  10.779   0.938   1.234
45077SOL    HW237064  10.634   0.918   1.193
45078SOL     OW37065   9.439  14.579   9.679
45078SOL    HW137066   9.418  14.670   9.698
45078SOL    HW237067   9.533  14.573   9.693
45079SOL     OW37068   8.952  10.094   4.254
45079SOL    HW137069   8.914  10.010   4.229
45079SOL    HW237070   8.878  10.155   4.251
45080SOL     OW37071   1.393   8.552   8.029
45080SOL    HW137072   1.406   8.495   7.953
45080SOL    HW237073   1.298   8.564   8.033
45081SOL     OW37074  14.123  13.119  10.598
45081SOL    HW137075  14.163  13.033  10.583
45081SOL    HW237076  14.030  13.106  10.580
45082SOL     OW37077   1.483  13.110  11.606
45082SOL    HW137078   1.510  13.048  11.674
45082SOL    HW237079   1.446  13.184  11.655
45083SOL     OW37080  11.401   8.181   9.497
45083SOL    HW137081  11.357   8.136   9.425
45083SOL    HW237082  11.493   8.181   9.472
45084SOL     OW37083  13.801   6.975   2.891
45084SOL    HW137084  13.742   6.938   2.825
45084SOL    HW237085  13.869   7.020   2.840
45085SOL     OW37086   6.934   5.663  13.167
45085SOL    HW137087   7.007   5.657  13.105
45085SOL    HW237088   6.950   5.744  13.216
45086SOL     OW37089  14.665  10.556  14.417
45086SOL    HW137090  14.680  10.462  14.410
45086SOL    HW237091  14.571  10.567  14.402
45087SOL     OW37092   9.327   9.719  11.956
45087SOL    HW137093   9.350   9.631  11.926
45087SOL    HW237094   9.411   9.765  11.960
45088SOL     OW37095  14.736  12.842   6.685
45088SOL    HW137096  14.649  12.878   6.666
45088SOL    HW237097  14.729  12.749   6.665
45089SOL     OW37098   4.621   3.463   8.309
45089SOL    HW137099   4.591   3.411   8.235
45089SOL    HW237100   4.678   3.404   8.359
45090SOL     OW37101  12.890   9.955   9.122
45090SOL    HW137102  12.862   9.991   9.206
45090SOL    HW237103  12.832   9.994   9.057
45091SOL     OW37104   7.128   4.091   6.768
45091SOL    HW137105   7.082   4.174   6.759
45091SOL    HW237106   7.204   4.099   6.710
45092SOL     OW37107  12.598  12.476   5.661
45092SOL    HW137108  12.683  12.512   5.635
45092SOL    HW237109  12.603  12.384   5.636
45093SOL     OW37110   3.485   4.973  12.361
45093SOL    HW137111   3.567   4.924  12.360
45093SOL    HW237112   3.510   5.064  12.345
45094SOL     OW37113   5.159   0.634   1.489
45094SOL    HW137114   5.205   0.717   1.478
45094SOL    HW237115   5.202   0.574   1.428
45095SOL     OW37116   5.391  12.479  12.503
45095SOL    HW137117   5.456  12.503  12.437
45095SOL    HW237118   5.441  12.470  12.584
45096SOL     OW37119  13.110   1.067   3.055
45096SOL    HW137120  13.083   0.975   3.052
45096SOL    HW237121  13.074   1.100   3.137
45097SOL     OW37122   2.191   5.355   0.438
45097SOL    HW137123   2.244   5.314   0.369
45097SOL    HW237124   2.114   5.388   0.392
45098SOL     OW37125   3.140  11.576   2.069
45098SOL    HW137126   3.192  11.495   2.069
45098SOL    HW237127   3.068  11.558   2.129
45099SOL     OW37128  12.188   4.357   6.628
45099SOL    HW137129  12.170   4.314   6.544
45099SOL    HW237130  12.283   4.365   6.632
45100SOL     OW37131   9.302   1.890   7.245
45100SOL    HW137132   9.367   1.858   7.183
45100SOL    HW237133   9.322   1.983   7.256
45101SOL     OW37134  14.319   5.918   0.810
45101SOL    HW137135  14.372   5.977   0.757
45101SOL    HW237136  14.264   5.976   0.862
45102SOL     OW37137   1.718   8.396   2.279
45102SOL    HW137138   1.779   8.328   2.308
45102SOL    HW237139   1.699   8.447   2.357
45103SOL     OW37140   1.181   2.651   0.194
45103SOL    HW137141   1.257   2.692   0.153
45103SOL    HW237142   1.214   2.613   0.275
45104SOL     OW37143   4.541   8.921   4.270
45104SOL    HW137144   4.546   9.010   4.306
45104SOL    HW237145   4.609   8.919   4.202
45105SOL     OW37146  14.877  10.832  12.372
45105SOL    HW137147  14.810  10.884  12.417
45105SOL    HW237148  14.835  10.801  12.293
45106SOL     OW37149  11.836   3.405   4.844
45106SOL    HW137150  11.808   3.314   4.860
45106SOL    HW237151  11.783   3.433   4.770
45107SOL     OW37152   7.038   4.186   3.448
45107SOL    HW137153   6.978   4.260   3.456
45107SOL    HW237154   7.014   4.144   3.365
45108SOL     OW37155   4.475   5.648   3.497
45108SOL    HW137156   4.406   5.583   3.484
45108SOL    HW237157   4.477   5.662   3.592
45109SOL     OW37158   5.681   7.295   8.923
45109SOL    HW137159   5.674   7.293   8.827
45109SOL    HW237160   5.603   7.344   8.950
45110SOL     OW37161   4.555   9.946   2.458
45110SOL    HW137162   4.563  10.037   2.489
45110SOL    HW237163   4.616   9.941   2.384
45111SOL     OW37164   4.118  13.311   0.354
45111SOL    HW137165   4.207  13.313   0.319
45111SOL    HW237166   4.100  13.218   0.368
45112SOL     OW37167   8.157   1.180  13.406
45112SOL    HW137168   8.121   1.268  13.412
45112SOL    HW237169   8.082   1.125  13.386
45113SOL     OW37170   8.982   4.199   4.130
45113SOL    HW137171   8.956   4.172   4.218
45113SOL    HW237172   9.024   4.122   4.092
45114SOL     OW37173  10.156   7.045   8.013
45114SOL    HW137174  10.238   7.087   7.986
45114SOL    HW237175  10.111   7.112   8.064
45115SOL     OW37176  11.638  12.220   7.445
45115SOL    HW137177  11.646  12.170   7.364
45115SOL    HW237178  11.700  12.178   7.505
45116SOL     OW37179  13.344   7.967  12.933
45116SOL    HW137180  13.386   8.052  12.931
45116SOL    HW237181  13.372   7.927  13.015
45117SOL     OW37182   0.929   5.924  10.695
45117SOL    HW137183   0.873   5.882  10.760
45117SOL    HW237184   0.871   5.940  10.621
45118SOL     OW37185   5.627   5.199  10.071
45118SOL    HW137186   5.702   5.234  10.120
45118SOL    HW237187   5.629   5.246   9.988
45119SOL     OW37188   1.216   4.412   3.563
45119SOL    HW137189   1.147   4.449   3.508
45119SOL    HW237190   1.295   4.460   3.538
45120SOL     OW37191   1.631   6.925  13.800
45120SOL    HW137192   1.608   7.010  13.763
45120SOL    HW237193   1.682   6.882  13.732
45121SOL     OW37194  13.245   1.954   0.254
45121SOL    HW137195  13.232   1.864   0.225
45121SOL    HW237196  13.175   1.969   0.317
45122SOL     OW37197  12.814   6.236  10.567
45122SOL    HW137198  12.903   6.206  10.550
45122SOL    HW237199  12.776   6.249  10.480
45123SOL     OW37200   6.684   0.540  12.504
45123SOL    HW137201   6.728   0.458  12.525
45123SOL    HW237202   6.707   0.599  12.576
45124SOL     OW37203   9.761   8.506   6.167
45124SOL    HW137204   9.848   8.468   6.155
45124SOL    HW237205   9.770   8.596   6.135
45125SOL     OW37206  11.761   9.821   6.294
45125SOL    HW137207  11.747   9.856   6.205
45125SOL    HW237208  11.810   9.889   6.339
45126SOL     OW37209   3.118   7.982   5.033
45126SOL    HW137210   3.211   8.001   5.041
45126SOL    HW237211   3.098   7.926   5.108
45127SOL     OW37212   0.849   6.970   9.862
45127SOL    HW137213   0.790   6.962   9.937
45127SOL    HW237214   0.852   6.882   9.825
45128SOL     OW37215  11.771   8.913   4.617
45128SOL    HW137216  11.790   8.864   4.537
45128SOL    HW237217  11.794   9.004   4.596
45129SOL     OW37218  11.692   3.429   6.325
45129SOL    HW137219  11.681   3.498   6.259
45129SOL    HW237220  11.783   3.437   6.353
45130SOL     OW37221   9.418   6.279  11.018
45130SOL    HW137222   9.330   6.245  10.998
45130SOL    HW237223   9.428   6.354  10.959
45131SOL     OW37224  14.102  10.857   4.889
45131SOL    HW137225  14.117  10.859   4.983
45131SOL    HW237226  14.171  10.912   4.852
45132SOL     OW37227   5.999   5.208   2.927
45132SOL    HW137228   5.987   5.302   2.920
45132SOL    HW237229   6.060   5.186   2.856
45133SOL     OW37230  13.850   8.779   7.503
45133SOL    HW137231  13.770   8.735   7.531
45133SOL    HW237232  13.848   8.864   7.548
45134SOL     OW37233   6.533   1.219   6.770
45134SOL    HW137234   6.485   1.206   6.688
45134SOL    HW237235   6.575   1.304   6.761
45135SOL     OW37236   1.035   4.876  13.915
45135SOL    HW137237   1.087   4.868  13.835
45135SOL    HW237238   0.988   4.793  13.922
45136SOL     OW37239   3.770  13.222  11.676
45136SOL    HW137240   3.840  13.284  11.656
45136SOL    HW237241   3.779  13.154  11.609
45137SOL     OW37242   4.878  14.022   3.608
45137SOL    HW137243   4.815  14.076   3.656
45137SOL    HW237244   4.846  13.933   3.617
45138SOL     OW37245   4.679   5.367  12.548
45138SOL    HW137246   4.749   5.313  12.511
45138SOL    HW237247   4.708   5.387  12.637
45139SOL     OW37248  12.600  12.138   5.028
45139SOL    HW137249  12.641  12.052   5.015
45139SOL    HW237250  12.588  12.172   4.939
45140SOL     OW37251   7.658   8.550   7.052
45140SOL    HW137252   7.597   8.571   7.123
45140SOL    HW237253   7.603   8.547   6.973
45141SOL     OW37254  14.207  12.752  11.318
45141SOL    HW137255  14.182  12.764  11.409
45141SOL    HW237256  14.257  12.670  11.318
45142SOL     OW37257   0.595   4.363   8.412
45142SOL    HW137258   0.644   4.344   8.332
45142SOL    HW237259   0.650   4.328   8.482
45143SOL     OW37260  13.002  11.090   2.854
45143SOL    HW137261  13.026  11.159   2.915
45143SOL    HW237262  12.907  11.089   2.854
45144SOL     OW37263   4.507   6.194   2.967
45144SOL    HW137264   4.499   6.256   3.040
45144SOL    HW237265   4.567   6.127   2.999
45145SOL     OW37266   1.063   3.145   2.882
45145SOL    HW137267   1.149   3.166   2.920
45145SOL    HW237268   1.050   3.053   2.902
45146SOL     OW37269   9.443   9.117   6.603
45146SOL    HW137270   9.437   9.206   6.637
45146SOL    HW237271   9.407   9.062   6.672
45147SOL     OW37272   7.431   6.297   2.258
45147SOL    HW137273   7.515   6.263   2.227
45147SOL    HW237274   7.400   6.353   2.186
45148SOL     OW37275  11.182   2.869   1.181
45148SOL    HW137276  11.276   2.852   1.192
45148SOL    HW237277  11.170   2.959   1.213
45149SOL     OW37278  11.614   1.066   2.397
45149SOL    HW137279  11.609   0.970   2.394
45149SOL    HW237280  11.524   1.094   2.381
45150SOL     OW37281   3.094  12.535   6.786
45150SOL    HW137282   3.178  12.550   6.742
45150SOL    HW237283   3.115  12.529   6.879
45151SOL     OW37284  11.658  13.281   6.551
45151SOL    HW137285  11.694  13.227   6.480
45151SOL    HW237286  11.681  13.371   6.527
45152SOL     OW37287   5.506   1.986   1.986
45152SOL    HW137288   5.465   1.951   2.065
45152SOL    HW237289   5.542   1.909   1.942
45153SOL     OW37290  13.278  12.069   7.298
45153SOL    HW137291  13.327  12.097   7.221
45153SOL    HW237292  13.230  12.147   7.325
45154SOL     OW37293   9.497   2.676  13.550
45154SOL    HW137294   9.505   2.695  13.644
45154SOL    HW237295   9.424   2.730  13.521
45155SOL     OW37296   5.096  10.378   6.641
45155SOL    HW137297   5.007  10.365   6.609
45155SOL    HW237298   5.152  10.357   6.566
45156SOL     OW37299  14.549   9.291  13.159
45156SOL    HW137300  14.557   9.198  13.182
45156SOL    HW237301  14.547   9.337  13.243
45157SOL     OW37302   0.892   5.237   4.455
45157SOL    HW137303   0.942   5.190   4.521
45157SOL    HW237304   0.957   5.271   4.394
45158SOL     OW37305   0.774   3.747   4.638
45158SOL    HW137306   0.737   3.832   4.617
45158SOL    HW237307   0.761   3.738   4.733
45159SOL     OW37308   4.481  13.446   5.033
45159SOL    HW137309   4.510  13.420   4.946
45159SOL    HW237310   4.529  13.389   5.093
45160SOL     OW37311  11.560   1.011   6.169
45160SOL    HW137312  11.574   1.105   6.163
45160SOL    HW237313  11.481   1.002   6.223
45161SOL     OW37314  13.723   7.195   5.790
45161SOL    HW137315  13.641   7.229   5.826
45161SOL    HW237316  13.764   7.271   5.748
45162SOL     OW37317   3.204   8.813  10.084
45162SOL    HW137318   3.220   8.780   9.995
45162SOL    HW237319   3.291   8.836  10.117
45163SOL     OW37320  14.169   6.988  12.596
45163SOL    HW137321  14.089   7.030  12.626
45163SOL    HW237322  14.232   7.002  12.667
45164SOL     OW37323  10.340   8.617   3.270
45164SOL    HW137324  10.293   8.596   3.351
45164SOL    HW237325  10.292   8.691   3.233
45165SOL     OW37326   0.352  10.990   0.574
45165SOL    HW137327   0.302  10.920   0.532
45165SOL    HW237328   0.337  10.977   0.668
45166SOL     OW37329   5.197  12.701   4.318
45166SOL    HW137330   5.122  12.668   4.367
45166SOL    HW237331   5.248  12.750   4.383
45167SOL     OW37332   6.720  14.437  12.648
45167SOL    HW137333   6.648  14.412  12.705
45167SOL    HW237334   6.791  14.459  12.708
45168SOL     OW37335   2.474  10.694   8.564
45168SOL    HW137336   2.478  10.703   8.659
45168SOL    HW237337   2.535  10.623   8.545
45169SOL     OW37338   0.210   9.426  13.080
45169SOL    HW137339   0.235   9.509  13.038
45169SOL    HW237340   0.285   9.405  13.136
45170SOL     OW37341   3.461   9.777   9.571
45170SOL    HW137342   3.534   9.749   9.515
45170SOL    HW237343   3.499   9.782   9.659
45171SOL     OW37344   8.832  12.597  12.932
45171SOL    HW137345   8.745  12.556  12.936
45171SOL    HW237346   8.893  12.526  12.951
45172SOL     OW37347   4.767  11.089  10.037
45172SOL    HW137348   4.700  11.157  10.037
45172SOL    HW237349   4.792  11.079  10.129
45173SOL     OW37350   4.852  11.602   7.908
45173SOL    HW137351   4.898  11.681   7.937
45173SOL    HW237352   4.760  11.618   7.931
45174SOL     OW37353   8.304  12.990   9.359
45174SOL    HW137354   8.248  13.039   9.299
45174SOL    HW237355   8.389  12.987   9.315
45175SOL     OW37356   4.247   5.101   4.048
45175SOL    HW137357   4.247   5.194   4.071
45175SOL    HW237358   4.154   5.076   4.046
45176SOL     OW37359   8.403  11.892  13.987
45176SOL    HW137360   8.354  11.819  14.024
45176SOL    HW237361   8.467  11.915  14.054
45177SOL     OW37362   5.954   2.020   3.152
45177SOL    HW137363   5.971   2.012   3.246
45177SOL    HW237364   5.860   2.010   3.144
45178SOL     OW37365   5.875  13.762   4.114
45178SOL    HW137366   5.892  13.853   4.088
45178SOL    HW237367   5.860  13.717   4.031
45179SOL     OW37368   2.933  13.229  11.058
45179SOL    HW137369   2.912  13.279  11.137
45179SOL    HW237370   3.008  13.175  11.083
45180SOL     OW37371   6.492   9.318   3.609
45180SOL    HW137372   6.486   9.281   3.697
45180SOL    HW237373   6.558   9.264   3.565
45181SOL     OW37374  13.732  13.425  13.175
45181SOL    HW137375  13.761  13.508  13.137
45181SOL    HW237376  13.804  13.364  13.160
45182SOL     OW37377  10.585   4.340   0.480
45182SOL    HW137378  10.551   4.385   0.557
45182SOL    HW237379  10.602   4.251   0.510
45183SOL     OW37380   4.643   0.018   4.840
45183SOL    HW137381   4.612   0.107   4.856
45183SOL    HW237382   4.563  14.847   4.833
45184SOL     OW37383   3.496  11.094   7.162
45184SOL    HW137384   3.569  11.065   7.217
45184SOL    HW237385   3.502  11.190   7.163
45185SOL     OW37386   1.832  14.192   3.365
45185SOL    HW137387   1.777  14.119   3.337
45185SOL    HW237388   1.804  14.266   3.312
45186SOL     OW37389  13.438   7.947  12.133
45186SOL    HW137390  13.472   8.037  12.134
45186SOL    HW237391  13.490   7.902  12.066
45187SOL     OW37392   5.783  13.108  10.461
45187SOL    HW137393   5.796  13.028  10.511
45187SOL    HW237394   5.768  13.176  10.528
45188SOL     OW37395  12.820   9.653  14.767
45188SOL    HW137396  12.875   9.649  14.690
45188SOL    HW237397  12.741   9.699  14.739
45189SOL     OW37398   4.021  14.563   9.186
45189SOL    HW137399   4.001  14.644   9.233
45189SOL    HW237400   3.947  14.505   9.206
45190SOL     OW37401  12.809   8.240  12.477
45190SOL    HW137402  12.809   8.336  12.480
45190SOL    HW237403  12.877   8.214  12.539
45191SOL     OW37404   1.592   2.520  12.386
45191SOL    HW137405   1.626   2.560  12.465
45191SOL    HW237406   1.615   2.581  12.316
45192SOL     OW37407   1.208  13.732   0.466
45192SOL    HW137408   1.255  13.744   0.384
45192SOL    HW237409   1.116  13.733   0.441
45193SOL     OW37410  11.051  14.614  11.693
45193SOL    HW137411  11.023  14.691  11.643
45193SOL    HW237412  11.106  14.565  11.632
45194SOL     OW37413  13.161   4.413   9.133
45194SOL    HW137414  13.151   4.463   9.053
45194SOL    HW237415  13.255   4.393   9.137
45195SOL     OW37416   4.371   8.171   7.569
45195SOL    HW137417   4.439   8.205   7.510
45195SOL    HW237418   4.367   8.234   7.640
45196SOL     OW37419   6.877  10.074  14.300
45196SOL    HW137420   6.900  10.141  14.236
45196SOL    HW237421   6.960  10.052  14.343
45197SOL     OW37422  14.148   2.889   5.342
45197SOL    HW137423  14.117   2.798   5.347
45197SOL    HW237424  14.112   2.930   5.421
45198SOL     OW37425   8.331   0.078   4.408
45198SOL    HW137426   8.277   0.028   4.469
45198SOL    HW237427   8.278   0.155   4.387
45199SOL     OW37428   0.239   0.411   2.571
45199SOL    HW137429   0.201   0.333   2.612
45199SOL    HW237430   0.248   0.387   2.478
45200SOL     OW37431  13.430  14.606  12.606
45200SOL    HW137432  13.413  14.562  12.689
45200SOL    HW237433  13.509  14.564  12.572
45201SOL     OW37434   2.625   3.278   0.384
45201SOL    HW137435   2.531   3.259   0.395
45201SOL    HW237436   2.631   3.373   0.394
45202SOL     OW37437   9.023   7.822  11.240
45202SOL    HW137438   9.079   7.886  11.196
45202SOL    HW237439   8.972   7.781  11.170
45203SOL     OW37440   3.068  13.713  11.865
45203SOL    HW137441   3.054  13.753  11.779
45203SOL    HW237442   2.980  13.707  11.903
45204SOL     OW37443   7.067   5.616   6.211
45204SOL    HW137444   7.059   5.524   6.237
45204SOL    HW237445   7.087   5.612   6.117
45205SOL     OW37446   8.596   4.030  12.982
45205SOL    HW137447   8.520   4.072  13.022
45205SOL    HW237448   8.559   3.967  12.921
45206SOL     OW37449  14.797   5.608  13.373
45206SOL    HW137450  14.772   5.560  13.452
45206SOL    HW237451  14.764   5.697  13.387
45207SOL     OW37452  13.137   8.772  11.260
45207SOL    HW137453  13.187   8.737  11.334
45207SOL    HW237454  13.181   8.736  11.183
45208SOL     OW37455  12.743  11.565   7.829
45208SOL    HW137456  12.824  11.612   7.847
45208SOL    HW237457  12.769  11.497   7.765
45209SOL     OW37458  12.073   4.509   7.479
45209SOL    HW137459  11.994   4.504   7.532
45209SOL    HW237460  12.047   4.556   7.400
45210SOL     OW37461   7.766   8.661   4.021
45210SOL    HW137462   7.683   8.707   4.022
45210SOL    HW237463   7.747   8.577   3.979
45211SOL     OW37464   4.260  10.714   1.235
45211SOL    HW137465   4.248  10.654   1.161
45211SOL    HW237466   4.319  10.667   1.294
45212SOL     OW37467   0.979  10.729   3.047
45212SOL    HW137468   0.967  10.648   2.996
45212SOL    HW237469   1.073  10.735   3.061
45213SOL     OW37470   3.004  12.207   6.823
45213SOL    HW137471   3.052  12.244   6.896
45213SOL    HW237472   3.056  12.132   6.794
45214SOL     OW37473  14.331   8.923   6.456
45214SOL    HW137474  14.368   8.852   6.507
45214SOL    HW237475  14.310   8.884   6.371
45215SOL     OW37476   1.840  12.765   8.355
45215SOL    HW137477   1.796  12.793   8.436
45215SOL    HW237478   1.789  12.690   8.325
45216SOL     OW37479  11.262   2.988   1.978
45216SOL    HW137480  11.279   3.033   2.062
45216SOL    HW237481  11.342   2.939   1.961
45217SOL     OW37482  14.861  11.924  13.085
45217SOL    HW137483   0.010  11.980  13.014
45217SOL    HW237484  14.836  11.842  13.042
45218SOL     OW37485  11.604   9.957   8.903
45218SOL    HW137486  11.611   9.938   8.997
45218SOL    HW237487  11.617  10.051   8.897
45219SOL     OW37488  14.064   3.851   3.077
45219SOL    HW137489  14.086   3.787   3.145
45219SOL    HW237490  14.143   3.905   3.069
45220SOL     OW37491   1.148   9.401   5.214
45220SOL    HW137492   1.172   9.330   5.273
45220SOL    HW237493   1.115   9.358   5.136
45221SOL     OW37494   0.111  10.689  13.881
45221SOL    HW137495   0.183  10.739  13.917
45221SOL    HW237496   0.088  10.734  13.800
45222SOL     OW37497  11.598  10.968  13.759
45222SOL    HW137498  11.688  10.936  13.769
45222SOL    HW237499  11.543  10.893  13.781
45223SOL     OW37500  12.865  13.719  13.862
45223SOL    HW137501  12.801  13.700  13.793
45223SOL    HW237502  12.867  13.815  13.866
45224SOL     OW37503   9.856   0.675  12.723
45224SOL    HW137504   9.874   0.727  12.801
45224SOL    HW237505   9.761   0.680  12.713
45225SOL     OW37506   8.222  11.311   6.260
45225SOL    HW137507   8.183  11.229   6.228
45225SOL    HW237508   8.289  11.332   6.195
45226SOL     OW37509   8.725   9.364  12.578
45226SOL    HW137510   8.782   9.433  12.544
45226SOL    HW237511   8.685   9.324  12.500
45227SOL     OW37512   8.562  13.631  12.442
45227SOL    HW137513   8.657  13.632  12.454
45227SOL    HW237514   8.527  13.652  12.528
45228SOL     OW37515  11.283   6.425   0.935
45228SOL    HW137516  11.269   6.361   1.004
45228SOL    HW237517  11.327   6.498   0.978
45229SOL     OW37518   8.785   3.072   2.116
45229SOL    HW137519   8.861   3.023   2.083
45229SOL    HW237520   8.713   3.045   2.059
45230SOL     OW37521  10.746   2.603  14.332
45230SOL    HW137522  10.738   2.642  14.419
45230SOL    HW237523  10.766   2.677  14.275
45231SOL     OW37524  10.912  14.751   5.797
45231SOL    HW137525  10.967  14.787   5.727
45231SOL    HW237526  10.844  14.817   5.810
45232SOL     OW37527   4.443   9.017   3.212
45232SOL    HW137528   4.512   8.958   3.182
45232SOL    HW237529   4.410   8.977   3.293
45233SOL     OW37530   5.302  12.423   4.866
45233SOL    HW137531   5.332  12.345   4.912
45233SOL    HW237532   5.221  12.448   4.912
45234SOL     OW37533   6.707   7.038   7.286
45234SOL    HW137534   6.709   7.081   7.200
45234SOL    HW237535   6.619   7.001   7.291
45235SOL     OW37536  10.350   5.045   0.269
45235SOL    HW137537  10.283   5.092   0.220
45235SOL    HW237538  10.352   5.088   0.355
45236SOL     OW37539  14.227   3.864   7.428
45236SOL    HW137540  14.144   3.870   7.381
45236SOL    HW237541  14.203   3.827   7.513
45237SOL     OW37542   9.980  10.954  12.815
45237SOL    HW137543   9.889  10.935  12.792
45237SOL    HW237544  10.023  10.969  12.731
45238SOL     OW37545  12.190  13.293   2.697
45238SOL    HW137546  12.163  13.337   2.777
45238SOL    HW237547  12.159  13.203   2.708
45239SOL     OW37548   7.729   1.118  14.201
45239SOL    HW137549   7.822   1.122  14.177
45239SOL    HW237550   7.710   1.024  14.205
45240SOL     OW37551   7.595   5.996   5.751
45240SOL    HW137552   7.596   5.910   5.792
45240SOL    HW237553   7.503   6.024   5.756
45241SOL     OW37554   1.851   1.996   1.688
45241SOL    HW137555   1.923   1.952   1.643
45241SOL    HW237556   1.849   2.084   1.650
45242SOL     OW37557   5.717   5.920   6.065
45242SOL    HW137558   5.678   5.921   6.152
45242SOL    HW237559   5.739   5.827   6.050
45243SOL     OW37560  11.827   1.203  11.682
45243SOL    HW137561  11.855   1.127  11.632
45243SOL    HW237562  11.901   1.222  11.740
45244SOL     OW37563   0.634   9.515   0.900
45244SOL    HW137564   0.602   9.449   0.962
45244SOL    HW237565   0.631   9.597   0.948
45245SOL     OW37566  12.758   6.307  10.295
45245SOL    HW137567  12.722   6.396  10.297
45245SOL    HW237568  12.711   6.264  10.225
45246SOL     OW37569   4.000  10.692   0.545
45246SOL    HW137570   3.978  10.676   0.454
45246SOL    HW237571   3.963  10.778   0.565
45247SOL     OW37572   8.520  14.391   7.679
45247SOL    HW137573   8.535  14.484   7.695
45247SOL    HW237574   8.494  14.386   7.587
45248SOL     OW37575  11.908  14.188   1.760
45248SOL    HW137576  11.838  14.233   1.807
45248SOL    HW237577  11.984  14.245   1.770
45249SOL     OW37578   5.965   3.728   5.664
45249SOL    HW137579   5.963   3.691   5.575
45249SOL    HW237580   6.046   3.694   5.702
45250SOL     OW37581  14.090   7.596  10.223
45250SOL    HW137582  14.040   7.623  10.146
45250SOL    HW237583  14.102   7.502  10.212
45251SOL     OW37584  11.764   4.233  14.861
45251SOL    HW137585  11.753   4.208   0.071
45251SOL    HW237586  11.681   4.208  14.820
45252SOL     OW37587  13.057  12.113   5.463
45252SOL    HW137588  13.124  12.149   5.521
45252SOL    HW237589  13.039  12.025   5.497
45253SOL     OW37590   1.821   4.351   3.675
45253SOL    HW137591   1.727   4.357   3.659
45253SOL    HW237592   1.830   4.368   3.769
45254SOL     OW37593  10.745  11.601  10.538
45254SOL    HW137594  10.835  11.574  10.521
45254SOL    HW237595  10.754  11.691  10.571
45255SOL     OW37596  11.055   0.147   6.060
45255SOL    HW137597  11.094   0.095   5.990
45255SOL    HW237598  11.118   0.218   6.074
45256SOL     OW37599   3.375   7.354   5.700
45256SOL    HW137600   3.307   7.338   5.766
45256SOL    HW237601   3.382   7.272   5.652
45257SOL     OW37602   9.646   2.247   6.402
45257SOL    HW137603   9.568   2.268   6.452
45257SOL    HW237604   9.686   2.174   6.450
45258SOL     OW37605   4.862   3.567   8.019
45258SOL    HW137606   4.868   3.605   8.107
45258SOL    HW237607   4.796   3.620   7.975
45259SOL     OW37608  13.595  11.461  11.970
45259SOL    HW137609  13.542  11.500  11.901
45259SOL    HW237610  13.531  11.434  12.036
45260SOL     OW37611   7.653   4.832   8.445
45260SOL    HW137612   7.602   4.894   8.498
45260SOL    HW237613   7.586   4.779   8.400
45261SOL     OW37614   8.388   7.421  12.723
45261SOL    HW137615   8.294   7.401  12.723
45261SOL    HW237616   8.430   7.338  12.700
45262SOL     OW37617  11.584   5.351   6.322
45262SOL    HW137618  11.512   5.356   6.260
45262SOL    HW237619  11.587   5.438   6.363
45263SOL     OW37620   3.416  12.434  12.457
45263SOL    HW137621   3.388  12.518  12.493
45263SOL    HW237622   3.491  12.456  12.401
45264SOL     OW37623   5.218   9.242   9.956
45264SOL    HW137624   5.269   9.217  10.033
45264SOL    HW237625   5.139   9.188   9.961
45265SOL     OW37626   9.392   7.142   7.798
45265SOL    HW137627   9.460   7.135   7.865
45265SOL    HW237628   9.310   7.128   7.846
45266SOL     OW37629  14.487   5.402   5.318
45266SOL    HW137630  14.575   5.386   5.352
45266SOL    HW237631  14.457   5.480   5.364
45267SOL     OW37632   9.815  12.888  12.963
45267SOL    HW137633   9.903  12.858  12.943
45267SOL    HW237634   9.823  12.933  13.047
45268SOL     OW37635   5.267   2.669   0.010
45268SOL    HW137636   5.344   2.656   0.065
45268SOL    HW237637   5.208   2.597   0.034
45269SOL     OW37638  10.628   9.796  12.973
45269SOL    HW137639  10.545   9.752  12.987
45269SOL    HW237640  10.649   9.780  12.881
45270SOL     OW37641  14.381  11.162  12.638
45270SOL    HW137642  14.302  11.137  12.591
45270SOL    HW237643  14.402  11.249  12.604
45271SOL     OW37644  12.376   5.507   2.079
45271SOL    HW137645  12.282   5.521   2.093
45271SOL    HW237646  12.381   5.456   1.998
45272SOL     OW37647  13.982  12.523   7.908
45272SOL    HW137648  13.899  12.547   7.868
45272SOL    HW237649  14.010  12.602   7.954
45273SOL     OW37650   3.917   2.086   9.018
45273SOL    HW137651   3.983   2.029   9.057
45273SOL    HW237652   3.962   2.170   9.006
45274SOL     OW37653  10.961  12.409  14.441
45274SOL    HW137654  11.054  12.428  14.433
45274SOL    HW237655  10.920  12.458  14.370
45275SOL     OW37656  11.050  13.877   5.368
45275SOL    HW137657  11.081  13.958   5.329
45275SOL    HW237658  10.962  13.897   5.399
45276SOL     OW37659   1.764   3.239  11.873
45276SOL    HW137660   1.677   3.278  11.865
45276SOL    HW237661   1.810   3.294  11.936
45277SOL     OW37662   0.320   7.306   6.248
45277SOL    HW137663   0.236   7.299   6.203
45277SOL    HW237664   0.382   7.328   6.179
45278SOL     OW37665   0.034   1.188  11.866
45278SOL    HW137666   0.045   1.237  11.785
45278SOL    HW237667  14.827   1.155  11.862
45279SOL     OW37668   1.187  12.886  14.526
45279SOL    HW137669   1.167  12.968  14.572
45279SOL    HW237670   1.133  12.820  14.570
45280SOL     OW37671  10.708  12.889  12.185
45280SOL    HW137672  10.719  12.799  12.154
45280SOL    HW237673  10.755  12.942  12.121
45281SOL     OW37674   1.533   3.350  12.146
45281SOL    HW137675   1.508   3.320  12.059
45281SOL    HW237676   1.597   3.286  12.176
45282SOL     OW37677   8.126  13.794   5.431
45282SOL    HW137678   8.118  13.889   5.438
45282SOL    HW237679   8.057  13.768   5.370
45283SOL     OW37680  12.685   9.065   6.334
45283SOL    HW137681  12.627   8.994   6.363
45283SOL    HW237682  12.629   9.143   6.334
45284SOL     OW37683   5.492  10.843   8.670
45284SOL    HW137684   5.578  10.882   8.683
45284SOL    HW237685   5.444  10.864   8.750
45285SOL     OW37686   0.069  12.360  11.699
45285SOL    HW137687   0.090  12.401  11.615
45285SOL    HW237688   0.145  12.376  11.754
45286SOL     OW37689   8.479  13.870  13.728
45286SOL    HW137690   8.558  13.905  13.769
45286SOL    HW237691   8.412  13.937  13.744
45287SOL     OW37692   5.258   7.532  13.827
45287SOL    HW137693   5.219   7.600  13.882
45287SOL    HW237694   5.185   7.475  13.803
45288SOL     OW37695   2.069   6.107  12.967
45288SOL    HW137696   2.122   6.140  12.893
45288SOL    HW237697   2.131   6.056  13.019
45289SOL     OW37698  10.970  11.258  12.181
45289SOL    HW137699  10.921  11.182  12.148
45289SOL    HW237700  11.051  11.257  12.131
45290SOL     OW37701   2.293   5.390  13.773
45290SOL    HW137702   2.280   5.437  13.690
45290SOL    HW237703   2.386   5.367  13.773
45291SOL     OW37704  14.769   2.506  13.121
45291SOL    HW137705  14.860   2.523  13.097
45291SOL    HW237706  14.723   2.587  13.097
45292SOL     OW37707   7.682   5.703   6.331
45292SOL    HW137708   7.749   5.635   6.332
45292SOL    HW237709   7.610   5.665   6.282
45293SOL     OW37710   7.552  14.483  11.145
45293SOL    HW137711   7.578  14.540  11.073
45293SOL    HW237712   7.463  14.511  11.166
45294SOL     OW37713   7.046   4.973   9.251
45294SOL    HW137714   7.053   5.050   9.308
45294SOL    HW237715   7.123   4.921   9.272
45295SOL     OW37716   7.897  13.668   3.759
45295SOL    HW137717   7.941  13.664   3.844
45295SOL    HW237718   7.805  13.654   3.778
45296SOL     OW37719   0.203   2.960  10.111
45296SOL    HW137720   0.172   2.892  10.171
45296SOL    HW237721   0.292   2.932  10.087
45297SOL     OW37722   0.243   2.708   4.569
45297SOL    HW137723   0.149   2.692   4.562
45297SOL    HW237724   0.274   2.706   4.478
45298SOL     OW37725   6.494   2.255   6.928
45298SOL    HW137726   6.511   2.209   6.846
45298SOL    HW237727   6.574   2.244   6.979
45299SOL     OW37728   6.819  14.466   3.612
45299SOL    HW137729   6.739  14.447   3.661
45299SOL    HW237730   6.829  14.561   3.621
45300SOL     OW37731  11.903   0.145   3.692
45300SOL    HW137732  11.832   0.085   3.670
45300SOL    HW237733  11.948   0.160   3.609
45301SOL     OW37734   3.014   8.450  11.541
45301SOL    HW137735   3.107   8.452  11.516
45301SOL    HW237736   3.014   8.456  11.636
45302SOL     OW37737   5.567   2.526   3.466
45302SOL    HW137738   5.584   2.616   3.440
45302SOL    HW237739   5.491   2.499   3.414
45303SOL     OW37740   7.109  13.106   2.414
45303SOL    HW137741   7.107  13.144   2.502
45303SOL    HW237742   7.074  13.018   2.425
45304SOL     OW37743   8.146   4.362   8.290
45304SOL    HW137744   8.109   4.274   8.294
45304SOL    HW237745   8.069   4.420   8.284
45305SOL     OW37746   1.942   6.657   2.036
45305SOL    HW137747   1.962   6.637   1.945
45305SOL    HW237748   1.942   6.572   2.080
45306SOL     OW37749  10.496  13.124  13.634
45306SOL    HW137750  10.407  13.160  13.639
45306SOL    HW237751  10.535  13.168  13.559
45307SOL     OW37752  11.298  10.336   9.686
45307SOL    HW137753  11.260  10.248   9.677
45307SOL    HW237754  11.385  10.321   9.722
45308SOL     OW37755   1.551   3.629   4.799
45308SOL    HW137756   1.580   3.592   4.716
45308SOL    HW237757   1.505   3.557   4.842
45309SOL     OW37758   5.707   6.250   1.906
45309SOL    HW137759   5.654   6.257   1.986
45309SOL    HW237760   5.733   6.158   1.902
45310SOL     OW37761   1.244   2.988   9.534
45310SOL    HW137762   1.162   3.036   9.540
45310SOL    HW237763   1.258   2.974   9.440
45311SOL     OW37764  12.891   1.552  11.643
45311SOL    HW137765  12.822   1.511  11.696
45311SOL    HW237766  12.931   1.616  11.702
45312SOL     OW37767   4.511  12.578   0.019
45312SOL    HW137768   4.443  12.515   0.044
45312SOL    HW237769   4.468  12.663   0.028
45313SOL     OW37770   3.409   6.008   8.199
45313SOL    HW137771   3.439   5.926   8.158
45313SOL    HW237772   3.368   6.056   8.127
45314SOL     OW37773   5.740   2.203   6.066
45314SOL    HW137774   5.754   2.290   6.028
45314SOL    HW237775   5.691   2.155   5.998
45315SOL     OW37776  13.042   8.230   2.974
45315SOL    HW137777  13.092   8.169   3.028
45315SOL    HW237778  13.095   8.239   2.894
45316SOL     OW37779  10.001   7.559   0.664
45316SOL    HW137780  10.034   7.471   0.685
45316SOL    HW237781  10.064   7.619   0.703
45317SOL     OW37782   8.945   6.661  12.281
45317SOL    HW137783   8.931   6.571  12.310
45317SOL    HW237784   9.024   6.689  12.327
45318SOL     OW37785  10.491  10.531   2.325
45318SOL    HW137786  10.573  10.562   2.285
45318SOL    HW237787  10.424  10.591   2.292
45319SOL     OW37788   6.760   5.111   8.804
45319SOL    HW137789   6.751   5.188   8.860
45319SOL    HW237790   6.853   5.090   8.807
45320SOL     OW37791  11.347   4.376   1.330
45320SOL    HW137792  11.422   4.327   1.294
45320SOL    HW237793  11.385   4.459   1.359
45321SOL     OW37794  13.476   8.577   1.986
45321SOL    HW137795  13.477   8.664   1.945
45321SOL    HW237796  13.440   8.593   2.073
45322SOL     OW37797   8.366   3.181  12.586
45322SOL    HW137798   8.283   3.170  12.539
45322SOL    HW237799   8.343   3.238  12.660
45323SOL     OW37800   5.801  11.077   4.693
45323SOL    HW137801   5.706  11.069   4.679
45323SOL    HW237802   5.810  11.143   4.761
45324SOL     OW37803  13.625   8.856   0.981
45324SOL    HW137804  13.702   8.883   1.031
45324SOL    HW237805  13.604   8.932   0.927
45325SOL     OW37806  11.691  13.809   8.665
45325SOL    HW137807  11.783  13.832   8.653
45325SOL    HW237808  11.692  13.730   8.719
45326SOL     OW37809  13.919   9.299  10.219
45326SOL    HW137810  13.946   9.282  10.129
45326SOL    HW237811  13.909   9.394  10.224
45327SOL     OW37812   8.669   8.585  14.205
45327SOL    HW137813   8.696   8.494  14.192
45327SOL    HW237814   8.574   8.579  14.220
45328SOL     OW37815   5.904   0.978   3.778
45328SOL    HW137816   5.820   0.939   3.801
45328SOL    HW237817   5.900   0.989   3.683
45329SOL     OW37818   3.934  11.288  13.006
45329SOL    HW137819   3.907  11.337  12.928
45329SOL    HW237820   3.994  11.222  12.972
45330SOL     OW37821   1.871   1.418   4.099
45330SOL    HW137822   1.965   1.439   4.103
45330SOL    HW237823   1.828   1.493   4.139
45331SOL     OW37824   7.277  13.020   6.072
45331SOL    HW137825   7.238  12.943   6.031
45331SOL    HW237826   7.359  13.034   6.024
45332SOL     OW37827   7.476  13.935   0.457
45332SOL    HW137828   7.566  13.951   0.427
45332SOL    HW237829   7.459  14.006   0.518
45333SOL     OW37830  14.508   0.955   0.698
45333SOL    HW137831  14.439   0.896   0.669
45333SOL    HW237832  14.578   0.945   0.632
45334SOL     OW37833  11.302   0.712   3.978
45334SOL    HW137834  11.329   0.648   3.911
45334SOL    HW237835  11.339   0.678   4.060
45335SOL     OW37836   1.542  11.335   9.367
45335SOL    HW137837   1.447  11.332   9.381
45335SOL    HW237838   1.560  11.261   9.310
45336SOL     OW37839   2.801   4.130  10.196
45336SOL    HW137840   2.732   4.064  10.189
45336SOL    HW237841   2.876   4.091  10.149
45337SOL     OW37842   0.077   5.880   8.419
45337SOL    HW137843   0.054   5.834   8.338
45337SOL    HW237844  14.874   5.910   8.453
45338SOL     OW37845  10.288   2.562  12.856
45338SOL    HW137846  10.354   2.533  12.919
45338SOL    HW237847  10.206   2.525  12.890
45339SOL     OW37848   1.819   6.696   5.517
45339SOL    HW137849   1.828   6.631   5.587
45339SOL    HW237850   1.726   6.692   5.492
45340SOL     OW37851   5.338   1.635  10.248
45340SOL    HW137852   5.252   1.655  10.210
45340SOL    HW237853   5.336   1.541  10.264
45341SOL     OW37854   7.579   4.316   3.844
45341SOL    HW137855   7.625   4.303   3.761
45341SOL    HW237856   7.622   4.256   3.905
45342SOL     OW37857  11.306  13.988   2.738
45342SOL    HW137858  11.306  14.084   2.742
45342SOL    HW237859  11.379  13.967   2.679
45343SOL     OW37860   4.315   2.711  14.584
45343SOL    HW137861   4.313   2.749  14.672
45343SOL    HW237862   4.235   2.659  14.578
45344SOL     OW37863  11.108  13.025   8.008
45344SOL    HW137864  11.050  12.951   7.990
45344SOL    HW237865  11.105  13.036   8.103
45345SOL     OW37866   4.884  12.561   5.114
45345SOL    HW137867   4.923  12.631   5.167
45345SOL    HW237868   4.897  12.482   5.167
45346SOL     OW37869   0.693   8.298   2.807
45346SOL    HW137870   0.730   8.211   2.824
45346SOL    HW237871   0.737   8.328   2.727
45347SOL     OW37872  11.707  12.770  14.130
45347SOL    HW137873  11.716  12.856  14.087
45347SOL    HW237874  11.676  12.791  14.218
45348SOL     OW37875   6.912   9.473  10.566
45348SOL    HW137876   6.833   9.467  10.620
45348SOL    HW237877   6.890   9.536  10.498
45349SOL     OW37878  10.745  12.795   8.236
45349SOL    HW137879  10.804  12.752   8.174
45349SOL    HW237880  10.783  12.882   8.249
45350SOL     OW37881   0.850   0.426   6.179
45350SOL    HW137882   0.890   0.372   6.246
45350SOL    HW237883   0.786   0.369   6.136
45351SOL     OW37884   7.177   2.693   8.209
45351SOL    HW137885   7.090   2.659   8.191
45351SOL    HW237886   7.175   2.783   8.178
45352SOL     OW37887   8.730   2.770  13.406
45352SOL    HW137888   8.663   2.713  13.368
45352SOL    HW237889   8.772   2.716  13.473
45353SOL     OW37890  11.961   4.433  12.238
45353SOL    HW137891  12.048   4.407  12.270
45353SOL    HW237892  11.910   4.449  12.317
45354SOL     OW37893   1.417  12.860   3.987
45354SOL    HW137894   1.496  12.828   3.944
45354SOL    HW237895   1.428  12.838   4.079
45355SOL     OW37896  11.914   9.308   2.978
45355SOL    HW137897  11.994   9.359   2.994
45355SOL    HW237898  11.932   9.222   3.017
45356SOL     OW37899  11.836  11.498   3.877
45356SOL    HW137900  11.899  11.438   3.917
45356SOL    HW237901  11.773  11.517   3.948
45357SOL     OW37902  11.264   1.673   5.355
45357SOL    HW137903  11.188   1.705   5.306
45357SOL    HW237904  11.228   1.613   5.420
45358SOL     OW37905  11.937   1.350  13.401
45358SOL    HW137906  11.977   1.367  13.486
45358SOL    HW237907  11.865   1.289  13.420
45359SOL     OW37908  13.508   7.633   8.562
45359SOL    HW137909  13.554   7.549   8.560
45359SOL    HW237910  13.477   7.641   8.652
45360SOL     OW37911  10.017   1.767  12.824
45360SOL    HW137912   9.998   1.784  12.916
45360SOL    HW237913   9.937   1.789  12.778
45361SOL     OW37914   3.941  14.062  11.400
45361SOL    HW137915   3.999  14.054  11.324
45361SOL    HW237916   3.970  14.142  11.444
45362SOL     OW37917   4.303   6.734   3.180
45362SOL    HW137918   4.382   6.722   3.233
45362SOL    HW237919   4.251   6.655   3.195
45363SOL     OW37920   2.617   8.651  12.848
45363SOL    HW137921   2.532   8.688  12.873
45363SOL    HW237922   2.594   8.571  12.800
45364SOL     OW37923   7.832  13.710   8.436
45364SOL    HW137924   7.829  13.763   8.356
45364SOL    HW237925   7.834  13.620   8.404
45365SOL     OW37926  11.657   8.304   4.407
45365SOL    HW137927  11.570   8.278   4.376
45365SOL    HW237928  11.644   8.390   4.447
45366SOL     OW37929   5.439   7.239   3.009
45366SOL    HW137930   5.496   7.218   3.084
45366SOL    HW237931   5.355   7.199   3.032
45367SOL     OW37932  10.880  14.343  10.790
45367SOL    HW137933  10.874  14.424  10.740
45367SOL    HW237934  10.826  14.358  10.868
45368SOL     OW37935   6.066   3.894   1.084
45368SOL    HW137936   6.022   3.815   1.116
45368SOL    HW237937   6.045   3.898   0.991
45369SOL     OW37938   3.990  10.330  12.658
45369SOL    HW137939   3.943  10.392  12.603
45369SOL    HW237940   4.083  10.352  12.647
45370SOL     OW37941   3.481  11.039   2.455
45370SOL    HW137942   3.533  11.009   2.530
45370SOL    HW237943   3.536  11.105   2.413
45371SOL     OW37944  11.762  14.363  13.665
45371SOL    HW137945  11.833  14.303  13.642
45371SOL    HW237946  11.682  14.312  13.654
45372SOL     OW37947   6.217   3.865   5.439
45372SOL    HW137948   6.185   3.882   5.351
45372SOL    HW237949   6.165   3.924   5.495
45373SOL     OW37950   3.759  11.578  11.159
45373SOL    HW137951   3.799  11.647  11.107
45373SOL    HW237952   3.696  11.624  11.215
45374SOL     OW37953   3.225   7.870   2.869
45374SOL    HW137954   3.290   7.913   2.814
45374SOL    HW237955   3.276   7.822   2.934
45375SOL     OW37956  12.061  10.123   4.479
45375SOL    HW137957  12.114  10.202   4.491
45375SOL    HW237958  12.021  10.108   4.565
45376SOL     OW37959   5.789   5.790  10.150
45376SOL    HW137960   5.823   5.844  10.221
45376SOL    HW237961   5.768   5.706  10.191
45377SOL     OW37962   1.631   7.462   5.848
45377SOL    HW137963   1.608   7.442   5.939
45377SOL    HW237964   1.593   7.390   5.798
45378SOL     OW37965  10.709   1.338  12.172
45378SOL    HW137966  10.680   1.285  12.247
45378SOL    HW237967  10.632   1.392  12.150
45379SOL     OW37968  10.190   7.443   9.279
45379SOL    HW137969  10.224   7.385   9.211
45379SOL    HW237970  10.260   7.505   9.295
45380SOL     OW37971   5.198   8.399   8.282
45380SOL    HW137972   5.121   8.402   8.225
45380SOL    HW237973   5.240   8.484   8.270
45381SOL     OW37974   0.291   8.326  12.171
45381SOL    HW137975   0.295   8.275  12.252
45381SOL    HW237976   0.368   8.383  12.174
45382SOL     OW37977  11.902   2.358   4.269
45382SOL    HW137978  11.870   2.353   4.359
45382SOL    HW237979  11.996   2.339   4.276
45383SOL     OW37980  14.770  13.946  10.956
45383SOL    HW137981  14.744  13.909  11.040
45383SOL    HW237982  14.854  13.904  10.936
45384SOL     OW37983  12.958   9.464  10.592
45384SOL    HW137984  13.032   9.516  10.563
45384SOL    HW237985  12.982   9.433  10.680
45385SOL     OW37986  11.230   2.026   9.278
45385SOL    HW137987  11.312   2.066   9.250
45385SOL    HW237988  11.212   2.065   9.364
45386SOL     OW37989   1.840  14.387   0.353
45386SOL    HW137990   1.928  14.397   0.388
45386SOL    HW237991   1.840  14.436   0.271
45387SOL     OW37992  13.917   5.133  12.871
45387SOL    HW137993  14.012   5.138  12.880
45387SOL    HW237994  13.903   5.062  12.808
45388SOL     OW37995   5.409   9.698  12.058
45388SOL    HW137996   5.383   9.760  12.127
45388SOL    HW237997   5.328   9.659  12.028
45389SOL     OW37998  10.369   4.182  13.683
45389SOL    HW137999  10.454   4.155  13.648
45389SOL    HW238000  10.341   4.253  13.625
45390SOL     OW38001  13.167   5.375   2.414
45390SOL    HW138002  13.223   5.410   2.484
45390SOL    HW238003  13.079   5.379   2.449
45391SOL     OW38004   4.580   5.075  11.937
45391SOL    HW138005   4.552   5.089  12.027
45391SOL    HW238006   4.587   4.980  11.928
45392SOL     OW38007   1.599   0.520   7.389
45392SOL    HW138008   1.573   0.443   7.339
45392SOL    HW238009   1.662   0.487   7.453
45393SOL     OW38010  13.964   1.311   4.624
45393SOL    HW138011  13.876   1.307   4.661
45393SOL    HW238012  14.014   1.248   4.676
45394SOL     OW38013  13.016   2.396   2.124
45394SOL    HW138014  13.065   2.327   2.079
45394SOL    HW238015  12.967   2.440   2.055
45395SOL     OW38016   0.176   8.106   7.481
45395SOL    HW138017   0.173   8.019   7.521
45395SOL    HW238018   0.259   8.107   7.433
45396SOL     OW38019  11.789   8.242  11.599
45396SOL    HW138020  11.797   8.152  11.628
45396SOL    HW238021  11.847   8.291  11.657
45397SOL     OW38022   1.208   3.941  10.433
45397SOL    HW138023   1.214   4.026  10.478
45397SOL    HW238024   1.260   3.953  10.354
45398SOL     OW38025   0.505   7.982  14.474
45398SOL    HW138026   0.467   8.069  14.459
45398SOL    HW238027   0.437   7.934  14.522
45399SOL     OW38028   5.492  12.165   0.446
45399SOL    HW138029   5.449  12.178   0.531
45399SOL    HW238030   5.575  12.124   0.467
45400SOL     OW38031   2.171   9.585  10.103
45400SOL    HW138032   2.202   9.531  10.175
45400SOL    HW238033   2.090   9.624  10.136
45401SOL     OW38034   2.605  13.303   9.763
45401SOL    HW138035   2.690  13.332   9.796
45401SOL    HW238036   2.572  13.378   9.713
45402SOL     OW38037   4.135   3.092   4.065
45402SOL    HW138038   4.170   3.158   4.005
45402SOL    HW238039   4.184   3.105   4.146
45403SOL     OW38040  14.291   7.979   8.735
45403SOL    HW138041  14.367   7.987   8.677
45403SOL    HW238042  14.262   7.888   8.723
45404SOL     OW38043   0.248   4.257  12.127
45404SOL    HW138044   0.189   4.317  12.081
45404SOL    HW238045   0.197   4.222  12.199
45405SOL     OW38046   7.088   6.423   4.010
45405SOL    HW138047   7.079   6.422   3.915
45405SOL    HW238048   7.050   6.507   4.037
45406SOL     OW38049  10.621  10.454   6.310
45406SOL    HW138050  10.689  10.442   6.376
45406SOL    HW238051  10.669  10.465   6.228
45407SOL     OW38052  13.677  10.708  13.068
45407SOL    HW138053  13.646  10.713  13.158
45407SOL    HW238054  13.655  10.619  13.039
45408SOL     OW38055  13.281   8.148   7.725
45408SOL    HW138056  13.335   8.105   7.659
45408SOL    HW238057  13.265   8.081   7.791
45409SOL     OW38058   2.911   2.665  11.625
45409SOL    HW138059   2.875   2.747  11.590
45409SOL    HW238060   2.955   2.690  11.706
45410SOL     OW38061   9.910   2.668  12.308
45410SOL    HW138062   9.978   2.609  12.341
45410SOL    HW238063   9.941   2.695  12.221
45411SOL     OW38064   6.523   2.725   4.324
45411SOL    HW138065   6.477   2.737   4.241
45411SOL    HW238066   6.496   2.800   4.377
45412SOL     OW38067   5.452   7.932  13.867
45412SOL    HW138068   5.500   7.997  13.918
45412SOL    HW238069   5.513   7.906  13.797
45413SOL     OW38070   5.165  12.302  12.102
45413SOL    HW138071   5.140  12.337  12.187
45413SOL    HW238072   5.249  12.259  12.117
45414SOL     OW38073  13.818   0.649  11.641
45414SOL    HW138074  13.855   0.732  11.670
45414SOL    HW238075  13.737   0.674  11.595
45415SOL     OW38076  11.356   2.310   8.097
45415SOL    HW138077  11.394   2.318   8.009
45415SOL    HW238078  11.399   2.379   8.147
45416SOL     OW38079  14.567   3.484   3.573
45416SOL    HW138080  14.558   3.407   3.630
45416SOL    HW238081  14.600   3.553   3.630
45417SOL     OW38082  10.515   7.650   6.114
45417SOL    HW138083  10.448   7.666   6.047
45417SOL    HW238084  10.597   7.646   6.064
45418SOL     OW38085  14.305   6.580  12.329
45418SOL    HW138086  14.319   6.663  12.375
45418SOL    HW238087  14.211   6.577  12.312
45419SOL     OW38088  13.697  13.602   9.336
45419SOL    HW138089  13.717  13.610   9.429
45419SOL    HW238090  13.607  13.634   9.329
45420SOL     OW38091  13.548   3.871   6.385
45420SOL    HW138092  13.641   3.881   6.364
45420SOL    HW238093  13.524   3.951   6.431
45421SOL     OW38094  13.084  14.003   8.350
45421SOL    HW138095  13.062  14.091   8.320
45421SOL    HW238096  13.075  13.947   8.273
45422SOL     OW38097   2.052   4.639   1.753
45422SOL    HW138098   2.069   4.545   1.746
45422SOL    HW238099   1.986   4.657   1.686
45423SOL     OW38100   6.543   3.387   1.006
45423SOL    HW138101   6.545   3.370   1.100
45423SOL    HW238102   6.546   3.300   0.966
45424SOL     OW38103   3.832   7.391  13.771
45424SOL    HW138104   3.909   7.345  13.737
45424SOL    HW238105   3.788   7.426  13.694
45425SOL     OW38106   5.586   9.009  10.137
45425SOL    HW138107   5.560   8.978  10.050
45425SOL    HW238108   5.681   9.023  10.129
45426SOL     OW38109  10.037   5.957   2.281
45426SOL    HW138110  10.099   6.027   2.305
45426SOL    HW238111  10.051   5.943   2.188
45427SOL     OW38112  11.995   1.021   2.394
45427SOL    HW138113  12.070   1.017   2.335
45427SOL    HW238114  11.933   0.958   2.359
45428SOL     OW38115   5.603  13.370   6.062
45428SOL    HW138116   5.564  13.456   6.048
45428SOL    HW238117   5.658  13.381   6.140
45429SOL     OW38118  10.038   1.088   6.096
45429SOL    HW138119   9.946   1.104   6.116
45429SOL    HW238120  10.068   1.169   6.055
45430SOL     OW38121  12.642   6.593  13.317
45430SOL    HW138122  12.659   6.507  13.355
45430SOL    HW238123  12.658   6.582  13.223
45431SOL     OW38124  13.415   5.131   0.201
45431SOL    HW138125  13.415   5.036   0.212
45431SOL    HW238126  13.328   5.159   0.229
45432SOL     OW38127   6.564   9.456  13.051
45432SOL    HW138128   6.620   9.461  12.973
45432SOL    HW238129   6.588   9.372  13.091
45433SOL     OW38130   7.860   6.404   5.987
45433SOL    HW138131   7.947   6.416   6.024
45433SOL    HW238132   7.825   6.327   6.032
45434SOL     OW38133   9.402  12.272   9.720
45434SOL    HW138134   9.387  12.194   9.773
45434SOL    HW238135   9.368  12.250   9.634
45435SOL     OW38136   6.457   7.311   2.207
45435SOL    HW138137   6.407   7.254   2.266
45435SOL    HW238138   6.480   7.387   2.261
45436SOL     OW38139   2.955   1.548   1.831
45436SOL    HW138140   2.934   1.460   1.801
45436SOL    HW238141   2.951   1.542   1.927
45437SOL     OW38142   8.193   2.650   3.226
45437SOL    HW138143   8.127   2.691   3.170
45437SOL    HW238144   8.276   2.685   3.193
45438SOL     OW38145   7.498   7.647   4.127
45438SOL    HW138146   7.481   7.736   4.157
45438SOL    HW238147   7.422   7.596   4.155
45439SOL     OW38148   2.036  10.439   9.549
45439SOL    HW138149   1.965  10.391   9.507
45439SOL    HW238150   2.014  10.531   9.537
45440SOL     OW38151   7.356  14.783  11.911
45440SOL    HW138152   7.293  14.715  11.935
45440SOL    HW238153   7.412  14.792  11.988
45441SOL     OW38154  11.318   5.854   3.234
45441SOL    HW138155  11.387   5.791   3.256
45441SOL    HW238156  11.357   5.939   3.253
45442SOL     OW38157   5.944  12.185   4.666
45442SOL    HW138158   5.892  12.256   4.705
45442SOL    HW238159   6.033  12.201   4.697
45443SOL     OW38160   1.424  13.223   2.584
45443SOL    HW138161   1.404  13.135   2.551
45443SOL    HW238162   1.376  13.282   2.525
45444SOL     OW38163   6.385   1.324   6.280
45444SOL    HW138164   6.408   1.407   6.321
45444SOL    HW238165   6.403   1.337   6.187
45445SOL     OW38166   8.469  10.210  13.452
45445SOL    HW138167   8.377  10.210  13.425
45445SOL    HW238168   8.518  10.220  13.370
45446SOL     OW38169   0.888  14.180  13.091
45446SOL    HW138170   0.921  14.090  13.082
45446SOL    HW238171   0.967  14.233  13.100
45447SOL     OW38172   5.299  10.780  14.589
45447SOL    HW138173   5.247  10.798  14.511
45447SOL    HW238174   5.311  10.685  14.590
45448SOL     OW38175   3.972   8.730   7.335
45448SOL    HW138176   4.001   8.780   7.259
45448SOL    HW238177   3.889   8.770   7.361
45449SOL     OW38178  10.261   4.341  10.565
45449SOL    HW138179  10.197   4.411  10.552
45449SOL    HW238180  10.244   4.309  10.654
45450SOL     OW38181  13.163  13.039   4.934
45450SOL    HW138182  13.088  13.085   4.971
45450SOL    HW238183  13.141  12.946   4.943
45451SOL     OW38184  10.230  11.248  14.754
45451SOL    HW138185  10.173  11.226  14.681
45451SOL    HW238186  10.317  11.220  14.726
45452SOL     OW38187   0.444  12.233   4.730
45452SOL    HW138188   0.358  12.275   4.722
45452SOL    HW238189   0.480  12.236   4.641
45453SOL     OW38190  12.895   4.345   5.016
45453SOL    HW138191  12.878   4.439   5.014
45453SOL    HW238192  12.813   4.307   5.046
45454SOL     OW38193   5.288  14.216   0.862
45454SOL    HW138194   5.374  14.256   0.874
45454SOL    HW238195   5.306  14.135   0.814
45455SOL     OW38196   9.125   9.937   9.239
45455SOL    HW138197   9.109   9.846   9.264
45455SOL    HW238198   9.044   9.964   9.196
45456SOL     OW38199   3.953   3.649  11.046
45456SOL    HW138200   3.994   3.680  10.965
45456SOL    HW238201   3.994   3.564  11.064
45457SOL     OW38202   8.776   8.397  10.365
45457SOL    HW138203   8.720   8.471  10.344
45457SOL    HW238204   8.843   8.432  10.423
45458SOL     OW38205   9.770   6.541  13.361
45458SOL    HW138206   9.846   6.500  13.320
45458SOL    HW238207   9.696   6.488  13.332
45459SOL     OW38208   4.981   5.676   0.651
45459SOL    HW138209   4.945   5.737   0.715
45459SOL    HW238210   4.963   5.589   0.689
45460SOL     OW38211  11.984   5.211   7.949
45460SOL    HW138212  11.893   5.234   7.968
45460SOL    HW238213  12.032   5.232   8.029
45461SOL     OW38214   7.060   9.679   0.040
45461SOL    HW138215   7.036   9.590   0.065
45461SOL    HW238216   6.979   9.728   0.046
45462SOL     OW38217   6.397  11.870  11.059
45462SOL    HW138218   6.420  11.863  10.967
45462SOL    HW238219   6.465  11.926  11.097
45463SOL     OW38220  12.102   4.371   4.807
45463SOL    HW138221  12.050   4.293   4.788
45463SOL    HW238222  12.192   4.341   4.806
45464SOL     OW38223   1.653  14.478   2.018
45464SOL    HW138224   1.673  14.571   2.023
45464SOL    HW238225   1.739  14.435   2.019
45465SOL     OW38226   8.235   2.471  10.716
45465SOL    HW138227   8.142   2.464  10.695
45465SOL    HW238228   8.243   2.430  10.802
45466SOL     OW38229   5.324  14.610   0.760
45466SOL    HW138230   5.382  14.676   0.723
45466SOL    HW238231   5.238  14.631   0.726
45467SOL     OW38232   7.133  10.164   0.894
45467SOL    HW138233   7.059  10.104   0.899
45467SOL    HW238234   7.161  10.159   0.802
45468SOL     OW38235  14.331   8.648  14.104
45468SOL    HW138236  14.308   8.728  14.150
45468SOL    HW238237  14.406   8.671  14.050
45469SOL     OW38238   5.041   4.347  13.520
45469SOL    HW138239   4.998   4.382  13.599
45469SOL    HW238240   4.973   4.295  13.477
45470SOL     OW38241   4.667   1.388   0.612
45470SOL    HW138242   4.746   1.422   0.569
45470SOL    HW238243   4.674   1.293   0.602
45471SOL     OW38244  10.099   2.051   3.296
45471SOL    HW138245  10.076   1.958   3.287
45471SOL    HW238246  10.040   2.096   3.235
45472SOL     OW38247  13.793  11.599  14.300
45472SOL    HW138248  13.850  11.617  14.225
45472SOL    HW238249  13.852  11.589  14.374
45473SOL     OW38250   6.226   0.871   7.439
45473SOL    HW138251   6.161   0.804   7.419
45473SOL    HW238252   6.195   0.948   7.392
45474SOL     OW38253  12.126  13.700  12.093
45474SOL    HW138254  12.190  13.635  12.066
45474SOL    HW238255  12.160  13.783  12.060
45475SOL     OW38256  11.734   2.494   7.203
45475SOL    HW138257  11.823   2.469   7.225
45475SOL    HW238258  11.679   2.426   7.243
45476SOL     OW38259   7.019  14.320   0.018
45476SOL    HW138260   7.024  14.285   0.107
45476SOL    HW238261   7.103  14.299  14.861
45477SOL     OW38262   7.313  10.222   0.160
45477SOL    HW138263   7.239  10.171   0.192
45477SOL    HW238264   7.353  10.168   0.092
45478SOL     OW38265  11.908  10.198   4.733
45478SOL    HW138266  11.846  10.182   4.661
45478SOL    HW238267  11.940  10.287   4.716
45479SOL     OW38268  12.277   3.972   1.672
45479SOL    HW138269  12.215   3.901   1.688
45479SOL    HW238270  12.262   3.996   1.581
45480SOL     OW38271   3.113   6.660   1.559
45480SOL    HW138272   3.040   6.675   1.619
45480SOL    HW238273   3.123   6.743   1.511
45481SOL     OW38274  14.093  12.198  11.860
45481SOL    HW138275  14.042  12.117  11.865
45481SOL    HW238276  14.178  12.171  11.825
45482SOL     OW38277  12.764   0.531   7.979
45482SOL    HW138278  12.843   0.561   8.024
45482SOL    HW238279  12.692   0.561   8.035
45483SOL     OW38280  10.993  11.410   2.978
45483SOL    HW138281  10.946  11.461   3.044
45483SOL    HW238282  11.063  11.468   2.949
45484SOL     OW38283  14.065   9.297   0.969
45484SOL    HW138284  14.083   9.296   0.875
45484SOL    HW238285  14.111   9.220   1.002
45485SOL     OW38286  14.646   9.730  14.056
45485SOL    HW138287  14.692   9.810  14.031
45485SOL    HW238288  14.633   9.738  14.150
45486SOL     OW38289   7.031   1.798   2.654
45486SOL    HW138290   6.951   1.845   2.679
45486SOL    HW238291   7.042   1.818   2.561
45487SOL     OW38292   1.793   5.365   2.038
45487SOL    HW138293   1.748   5.307   1.977
45487SOL    HW238294   1.723   5.407   2.087
45488SOL     OW38295   1.039  12.651   5.952
45488SOL    HW138296   0.957  12.631   5.998
45488SOL    HW238297   1.104  12.595   5.993
45489SOL     OW38298  13.175   5.319   1.713
45489SOL    HW138299  13.206   5.409   1.721
45489SOL    HW238300  13.082   5.328   1.695
45490SOL     OW38301   5.353   8.292   2.817
45490SOL    HW138302   5.415   8.273   2.747
45490SOL    HW238303   5.269   8.262   2.783
45491SOL     OW38304   7.837  12.928   1.550
45491SOL    HW138305   7.927  12.930   1.583
45491SOL    HW238306   7.798  13.010   1.582
45492SOL     OW38307   3.306  12.362  14.516
45492SOL    HW138308   3.282  12.445  14.557
45492SOL    HW238309   3.313  12.383  14.422
45493SOL     OW38310   8.962  12.451   2.280
45493SOL    HW138311   8.952  12.462   2.186
45493SOL    HW238312   8.999  12.533   2.311
45494SOL     OW38313   2.058   5.428   2.004
45494SOL    HW138314   1.976   5.453   1.961
45494SOL    HW238315   2.039   5.434   2.097
45495SOL     OW38316   0.800   1.556   9.760
45495SOL    HW138317   0.712   1.526   9.738
45495SOL    HW238318   0.786   1.638   9.807
45496SOL     OW38319   6.481   0.619   4.951
45496SOL    HW138320   6.474   0.547   4.888
45496SOL    HW238321   6.467   0.698   4.899
45497SOL     OW38322  13.701   7.679  10.658
45497SOL    HW138323  13.731   7.764  10.627
45497SOL    HW238324  13.611   7.673  10.627
45498SOL     OW38325   6.090   8.220  13.530
45498SOL    HW138326   6.044   8.136  13.531
45498SOL    HW238327   6.152   8.213  13.457
45499SOL     OW38328   3.114  11.456   4.653
45499SOL    HW138329   3.175  11.508   4.706
45499SOL    HW238330   3.034  11.452   4.704
45500SOL     OW38331  11.394   8.998   9.461
45500SOL    HW138332  11.305   9.023   9.487
45500SOL    HW238333  11.440   8.986   9.544
45501SOL     OW38334  14.034  12.292   1.084
45501SOL    HW138335  14.093  12.218   1.099
45501SOL    HW238336  14.090  12.360   1.046
45502SOL     OW38337   6.314   9.842   2.468
45502SOL    HW138338   6.254   9.767   2.460
45502SOL    HW238339   6.264   9.907   2.518
45503SOL     OW38340  12.307   7.200  12.628
45503SOL    HW138341  12.300   7.115  12.671
45503SOL    HW238342  12.386   7.193  12.573
45504SOL     OW38343   9.964   5.071   5.437
45504SOL    HW138344   9.999   5.128   5.506
45504SOL    HW238345  10.040   5.033   5.395
45505SOL     OW38346   2.446   2.182  11.513
45505SOL    HW138347   2.450   2.134  11.596
45505SOL    HW238348   2.379   2.137  11.462
45506SOL     OW38349   9.530   4.417   5.058
45506SOL    HW138350   9.593   4.466   5.005
45506SOL    HW238351   9.448   4.465   5.050
45507SOL     OW38352   1.578   8.133   2.792
45507SOL    HW138353   1.582   8.140   2.887
45507SOL    HW238354   1.493   8.169   2.769
45508SOL     OW38355   8.242  13.957   3.107
45508SOL    HW138356   8.147  13.945   3.107
45508SOL    HW238357   8.254  14.049   3.131
45509SOL     OW38358   5.028   8.371  13.189
45509SOL    HW138359   4.949   8.375  13.241
45509SOL    HW238360   5.099   8.392  13.250
45510SOL     OW38361  12.282   6.256  10.858
45510SOL    HW138362  12.200   6.235  10.902
45510SOL    HW238363  12.304   6.345  10.887
45511SOL     OW38364   5.048   9.266   2.925
45511SOL    HW138365   5.055   9.189   2.981
45511SOL    HW238366   4.974   9.315   2.962
45512SOL     OW38367   7.908   2.074   8.085
45512SOL    HW138368   7.976   2.022   8.127
45512SOL    HW238369   7.833   2.067   8.144
45513SOL     OW38370   1.959   7.240  12.771
45513SOL    HW138371   1.879   7.291  12.754
45513SOL    HW238372   1.928   7.160  12.813
45514SOL     OW38373   7.340   7.243   4.831
45514SOL    HW138374   7.317   7.323   4.880
45514SOL    HW238375   7.344   7.272   4.740
45515SOL     OW38376   7.696   1.662  13.627
45515SOL    HW138377   7.779   1.629  13.592
45515SOL    HW238378   7.629   1.612  13.580
45516SOL     OW38379  13.064  13.687   5.142
45516SOL    HW138380  13.079  13.619   5.077
45516SOL    HW238381  13.122  13.665   5.215
45517SOL     OW38382   1.045   7.856   1.523
45517SOL    HW138383   1.121   7.883   1.573
45517SOL    HW238384   1.065   7.880   1.433
45518SOL     OW38385   5.215   4.522   0.018
45518SOL    HW138386   5.241   4.588  14.836
45518SOL    HW238387   5.130   4.491  14.869
45519SOL     OW38388  14.480   4.851   9.769
45519SOL    HW138389  14.429   4.772   9.786
45519SOL    HW238390  14.567   4.831   9.803
45520SOL     OW38391  11.622   3.961   7.757
45520SOL    HW138392  11.660   3.971   7.670
45520SOL    HW238393  11.578   3.876   7.755
45521SOL     OW38394  10.256  14.452   2.556
45521SOL    HW138395  10.239  14.365   2.522
45521SOL    HW238396  10.199  14.510   2.506
45522SOL     OW38397   2.484   5.551   9.006
45522SOL    HW138398   2.547   5.607   9.050
45522SOL    HW238399   2.506   5.557   8.913
45523SOL     OW38400   8.749   9.706   1.045
45523SOL    HW138401   8.700   9.640   1.093
45523SOL    HW238402   8.833   9.664   1.024
45524SOL     OW38403   0.803   3.868   1.508
45524SOL    HW138404   0.730   3.811   1.483
45524SOL    HW238405   0.820   3.847   1.600
45525SOL     OW38406   0.582   1.397   9.682
45525SOL    HW138407   0.639   1.346   9.625
45525SOL    HW238408   0.493   1.367   9.660
45526SOL     OW38409   1.625  10.204  13.230
45526SOL    HW138410   1.699  10.264  13.225
45526SOL    HW238411   1.571  10.226  13.154
45527SOL     OW38412   8.683   9.071   8.961
45527SOL    HW138413   8.607   9.121   8.990
45527SOL    HW238414   8.657   9.036   8.875
45528SOL     OW38415  13.809   8.792  11.704
45528SOL    HW138416  13.728   8.777  11.655
45528SOL    HW238417  13.866   8.838  11.643
45529SOL     OW38418  14.623   5.551   8.518
45529SOL    HW138419  14.614   5.579   8.609
45529SOL    HW238420  14.636   5.456   8.522
45530SOL     OW38421   9.652   0.667   4.095
45530SOL    HW138422   9.612   0.672   4.008
45530SOL    HW238423   9.580   0.639   4.152
45531SOL     OW38424  11.246   1.260   6.288
45531SOL    HW138425  11.212   1.179   6.326
45531SOL    HW238426  11.170   1.302   6.248
45532SOL     OW38427   1.640  14.747   7.215
45532SOL    HW138428   1.642  14.807   7.290
45532SOL    HW238429   1.585  14.791   7.150
45533SOL     OW38430   1.848   6.505  11.878
45533SOL    HW138431   1.828   6.509  11.971
45533SOL    HW238432   1.905   6.428  11.869
45534SOL     OW38433   1.615   4.175  10.964
45534SOL    HW138434   1.526   4.159  10.994
45534SOL    HW238435   1.658   4.217  11.039
45535SOL     OW38436   0.098   3.650  12.766
45535SOL    HW138437   0.051   3.572  12.739
45535SOL    HW238438   0.029   3.714  12.786
45536SOL     OW38439   3.180  14.185  13.988
45536SOL    HW138440   3.218  14.272  14.005
45536SOL    HW238441   3.104  14.181  14.047
45537SOL     OW38442  13.583   4.688   2.715
45537SOL    HW138443  13.627   4.619   2.664
45537SOL    HW238444  13.490   4.664   2.711
45538SOL     OW38445   7.210  14.094   8.045
45538SOL    HW138446   7.276  14.137   8.098
45538SOL    HW238447   7.212  14.002   8.072
45539SOL     OW38448  11.938   7.464  13.759
45539SOL    HW138449  11.853   7.473  13.801
45539SOL    HW238450  11.939   7.374  13.726
45540SOL     OW38451   4.090  11.063   7.405
45540SOL    HW138452   4.136  11.011   7.339
45540SOL    HW238453   4.043  11.130   7.355
45541SOL     OW38454  11.146  10.574  10.417
45541SOL    HW138455  11.233  10.588  10.453
45541SOL    HW238456  11.161  10.543  10.328
45542SOL     OW38457   6.315  12.418   3.455
45542SOL    HW138458   6.315  12.469   3.374
45542SOL    HW238459   6.306  12.327   3.426
45543SOL     OW38460   4.202  13.142   5.293
45543SOL    HW138461   4.279  13.095   5.325
45543SOL    HW238462   4.147  13.152   5.371
45544SOL     OW38463   4.042  14.158  13.531
45544SOL    HW138464   4.111  14.105  13.570
45544SOL    HW238465   4.002  14.101  13.465
45545SOL     OW38466   8.195   6.625   8.731
45545SOL    HW138467   8.129   6.560   8.756
45545SOL    HW238468   8.277   6.588   8.762
45546SOL     OW38469   7.589  10.536   5.032
45546SOL    HW138470   7.577  10.611   4.974
45546SOL    HW238471   7.510  10.483   5.019
45547SOL     OW38472   0.891   8.079  13.174
45547SOL    HW138473   0.853   8.163  13.148
45547SOL    HW238474   0.831   8.014  13.138
45548SOL     OW38475   1.788   1.832  14.566
45548SOL    HW138476   1.789   1.826  14.661
45548SOL    HW238477   1.860   1.776  14.537
45549SOL     OW38478  13.767  12.261   9.439
45549SOL    HW138479  13.735  12.182   9.395
45549SOL    HW238480  13.795  12.317   9.367
45550SOL     OW38481   3.750   0.711   6.307
45550SOL    HW138482   3.804   0.667   6.374
45550SOL    HW238483   3.746   0.802   6.337
45551SOL     OW38484   1.252   7.982   9.434
45551SOL    HW138485   1.304   8.049   9.478
45551SOL    HW238486   1.235   7.916   9.501
45552SOL     OW38487  10.028   1.890   5.143
45552SOL    HW138488   9.936   1.910   5.159
45552SOL    HW238489  10.026   1.812   5.086
45553SOL     OW38490   5.467   4.102   2.816
45553SOL    HW138491   5.436   4.098   2.906
45553SOL    HW238492   5.408   4.044   2.767
45554SOL     OW38493  10.242  12.297  13.495
45554SOL    HW138494  10.328  12.267  13.523
45554SOL    HW238495  10.222  12.371  13.552
45555SOL     OW38496  13.608  13.183   7.652
45555SOL    HW138497  13.532  13.234   7.624
45555SOL    HW238498  13.650  13.237   7.719
45556SOL     OW38499   3.571   1.624  12.455
45556SOL    HW138500   3.521   1.684  12.399
45556SOL    HW238501   3.512   1.549  12.468
45557SOL     OW38502  10.912  12.013  10.819
45557SOL    HW138503  10.972  11.949  10.857
45557SOL    HW238504  10.964  12.092  10.808
45558SOL     OW38505  11.919   0.273   0.649
45558SOL    HW138506  11.979   0.212   0.606
45558SOL    HW238507  11.835   0.259   0.604
45559SOL     OW38508   4.213   4.922   5.440
45559SOL    HW138509   4.169   4.911   5.524
45559SOL    HW238510   4.180   4.849   5.386
45560SOL     OW38511   5.681   8.568   4.382
45560SOL    HW138512   5.701   8.587   4.290
45560SOL    HW238513   5.654   8.476   4.382
45561SOL     OW38514   5.423  14.880  10.296
45561SOL    HW138515   5.457   0.013  10.384
45561SOL    HW238516   5.328  14.875  10.308
45562SOL     OW38517  10.436   8.595   6.799
45562SOL    HW138518  10.353   8.557   6.771
45562SOL    HW238519  10.446   8.567   6.890
45563SOL     OW38520   1.952   9.974   5.649
45563SOL    HW138521   1.912   9.936   5.727
45563SOL    HW238522   1.928  10.067   5.652
45564SOL     OW38523   3.049   6.289  10.777
45564SOL    HW138524   3.024   6.340  10.854
45564SOL    HW238525   3.038   6.349  10.703
45565SOL     OW38526   5.040  13.353  10.484
45565SOL    HW138527   5.087  13.360  10.401
45565SOL    HW238528   5.033  13.443  10.515
45566SOL     OW38529   6.185  14.553   1.070
45566SOL    HW138530   6.201  14.513   0.984
45566SOL    HW238531   6.253  14.516   1.126
45567SOL     OW38532  10.334  12.851  10.856
45567SOL    HW138533  10.375  12.849  10.942
45567SOL    HW238534  10.403  12.880  10.797
45568SOL     OW38535  11.492   0.297  13.114
45568SOL    HW138536  11.438   0.231  13.072
45568SOL    HW238537  11.432   0.344  13.172
45569SOL     OW38538   2.392   2.651   3.913
45569SOL    HW138539   2.345   2.669   3.994
45569SOL    HW238540   2.421   2.737   3.883
45570SOL     OW38541   4.270   4.328   4.978
45570SOL    HW138542   4.241   4.419   4.971
45570SOL    HW238543   4.366   4.334   4.981
45571SOL     OW38544   0.300  11.230  10.912
45571SOL    HW138545   0.370  11.177  10.872
45571SOL    HW238546   0.259  11.171  10.976
45572SOL     OW38547   9.972   6.626  11.853
45572SOL    HW138548   9.887   6.653  11.817
45572SOL    HW238549   9.953   6.544  11.899
45573SOL     OW38550   7.401   1.474   6.489
45573SOL    HW138551   7.375   1.395   6.537
45573SOL    HW238552   7.404   1.543   6.555
45574SOL     OW38553  12.083   5.811   1.826
45574SOL    HW138554  12.139   5.873   1.872
45574SOL    HW238555  11.997   5.822   1.866
45575SOL     OW38556   7.938  10.979   8.861
45575SOL    HW138557   7.870  10.988   8.795
45575SOL    HW238558   7.893  10.943   8.938
45576SOL     OW38559   5.457  10.590   1.107
45576SOL    HW138560   5.460  10.504   1.149
45576SOL    HW238561   5.506  10.647   1.166
45577SOL     OW38562  14.312   6.198   0.906
45577SOL    HW138563  14.257   6.269   0.874
45577SOL    HW238564  14.401   6.220   0.878
45578SOL     OW38565   9.348  10.544  11.690
45578SOL    HW138566   9.360  10.561  11.597
45578SOL    HW238567   9.365  10.451  11.700
45579SOL     OW38568  12.467  13.807   8.970
45579SOL    HW138569  12.459  13.840   8.881
45579SOL    HW238570  12.473  13.712   8.960
45580SOL     OW38571   1.726  12.040   5.849
45580SOL    HW138572   1.809  12.073   5.884
45580SOL    HW238573   1.722  12.075   5.759
45581SOL     OW38574   0.196   5.716   5.278
45581SOL    HW138575   0.156   5.630   5.263
45581SOL    HW238576   0.272   5.697   5.334
45582SOL     OW38577   3.102   2.737  10.044
45582SOL    HW138578   3.030   2.691  10.086
45582SOL    HW238579   3.063   2.774   9.964
45583SOL     OW38580   6.290  10.914   1.436
45583SOL    HW138581   6.348  10.970   1.385
45583SOL    HW238582   6.313  10.825   1.409
45584SOL     OW38583   3.560   7.069   9.212
45584SOL    HW138584   3.507   7.030   9.144
45584SOL    HW238585   3.591   6.995   9.265
45585SOL     OW38586   4.174  11.991   6.392
45585SOL    HW138587   4.144  11.905   6.363
45585SOL    HW238588   4.181  12.043   6.312
45586SOL     OW38589   5.762  11.210   9.286
45586SOL    HW138590   5.731  11.153   9.357
45586SOL    HW238591   5.752  11.157   9.207
45587SOL     OW38592  13.525   5.310   5.447
45587SOL    HW138593  13.449   5.280   5.497
45587SOL    HW238594  13.560   5.230   5.407
45588SOL     OW38595   2.330   8.427   7.839
45588SOL    HW138596   2.389   8.415   7.913
45588SOL    HW238597   2.379   8.394   7.763
45589SOL     OW38598   8.090   1.209  12.667
45589SOL    HW138599   8.169   1.250  12.701
45589SOL    HW238600   8.027   1.214  12.739
45590SOL     OW38601  14.149  10.918  12.704
45590SOL    HW138602  14.139  10.974  12.780
45590SOL    HW238603  14.112  10.833  12.731
45591SOL     OW38604  12.183   1.556   1.511
45591SOL    HW138605  12.143   1.612   1.445
45591SOL    HW238606  12.156   1.594   1.594
45592SOL     OW38607   0.149   2.765   7.967
45592SOL    HW138608   0.137   2.671   7.958
45592SOL    HW238609   0.216   2.787   7.902
45593SOL     OW38610   9.857   4.200  14.100
45593SOL    HW138611   9.848   4.106  14.086
45593SOL    HW238612   9.951   4.218  14.086
45594SOL     OW38613  10.965   4.373  13.020
45594SOL    HW138614  10.926   4.363  12.933
45594SOL    HW238615  11.059   4.381  13.004
45595SOL     OW38616   1.186  14.146  12.072
45595SOL    HW138617   1.216  14.226  12.029
45595SOL    HW238618   1.100  14.169  12.107
45596SOL     OW38619   4.139   3.875   5.509
45596SOL    HW138620   4.106   3.822   5.436
45596SOL    HW238621   4.231   3.848   5.518
45597SOL     OW38622   5.455  14.036  12.590
45597SOL    HW138623   5.421  14.120  12.558
45597SOL    HW238624   5.396  13.971  12.552
45598SOL     OW38625   2.278   4.600   8.242
45598SOL    HW138626   2.279   4.687   8.282
45598SOL    HW238627   2.306   4.541   8.312
45599SOL     OW38628  11.356   7.605   5.704
45599SOL    HW138629  11.369   7.699   5.716
45599SOL    HW238630  11.412   7.583   5.630
45600SOL     OW38631  13.359  12.066   9.395
45600SOL    HW138632  13.329  12.036   9.480
45600SOL    HW238633  13.453  12.047   9.394
45601SOL     OW38634   6.700   7.517  10.840
45601SOL    HW138635   6.614   7.557  10.853
45601SOL    HW238636   6.762   7.584  10.867
45602SOL     OW38637   8.764  13.109   2.183
45602SOL    HW138638   8.712  13.175   2.138
45602SOL    HW238639   8.795  13.153   2.263
45603SOL     OW38640   0.064   5.081  12.567
45603SOL    HW138641   0.105   5.102  12.651
45603SOL    HW238642   0.042   5.166  12.529
45604SOL     OW38643   1.613   5.780  10.802
45604SOL    HW138644   1.527   5.822  10.797
45604SOL    HW238645   1.634   5.758  10.711
45605SOL     OW38646  11.072   2.724   9.561
45605SOL    HW138647  11.104   2.793   9.619
45605SOL    HW238648  10.977   2.728   9.568
45606SOL     OW38649   3.950  10.043  13.267
45606SOL    HW138650   3.867  10.017  13.227
45606SOL    HW238651   4.013  10.041  13.195
45607SOL     OW38652   5.441  14.695  14.266
45607SOL    HW138653   5.442  14.599  14.260
45607SOL    HW238654   5.388  14.722  14.191
45608SOL     OW38655  12.241  11.900   7.325
45608SOL    HW138656  12.211  11.988   7.302
45608SOL    HW238657  12.337  11.905   7.321
45609SOL     OW38658  10.004  10.488   6.858
45609SOL    HW138659   9.960  10.482   6.773
45609SOL    HW238660  10.096  10.472   6.838
45610SOL     OW38661   5.454  12.047   0.771
45610SOL    HW138662   5.548  12.058   0.787
45610SOL    HW238663   5.415  12.130   0.798
45611SOL     OW38664   8.164   5.713   4.062
45611SOL    HW138665   8.198   5.632   4.025
45611SOL    HW238666   8.241   5.760   4.093
45612SOL     OW38667   5.913   4.821   8.961
45612SOL    HW138668   5.920   4.742   9.015
45612SOL    HW238669   5.961   4.799   8.881
45613SOL     OW38670  11.961   7.228  10.671
45613SOL    HW138671  12.019   7.188  10.605
45613SOL    HW238672  12.011   7.223  10.752
45614SOL     OW38673  12.511   0.531   1.320
45614SOL    HW138674  12.606   0.541   1.319
45614SOL    HW238675  12.496   0.440   1.346
45615SOL     OW38676  13.439   2.643  14.199
45615SOL    HW138677  13.451   2.733  14.168
45615SOL    HW238678  13.346   2.626  14.186
45616SOL     OW38679  13.456   4.381   9.270
45616SOL    HW138680  13.514   4.457   9.273
45616SOL    HW238681  13.478   4.336   9.189
45617SOL     OW38682   8.581   1.544  10.895
45617SOL    HW138683   8.533   1.530  10.977
45617SOL    HW238684   8.525   1.505  10.828
45618SOL     OW38685   9.070   0.991   0.159
45618SOL    HW138686   9.158   0.955   0.146
45618SOL    HW238687   9.064   1.063   0.097
45619SOL     OW38688  10.652   4.766   9.375
45619SOL    HW138689  10.640   4.710   9.451
45619SOL    HW238690  10.733   4.814   9.393
45620SOL     OW38691  11.426   5.313   4.956
45620SOL    HW138692  11.412   5.370   5.031
45620SOL    HW238693  11.430   5.372   4.881
45621SOL     OW38694  13.894   4.276   9.206
45621SOL    HW138695  13.983   4.248   9.184
45621SOL    HW238696  13.851   4.288   9.122
45622SOL     OW38697   8.853   1.750   6.452
45622SOL    HW138698   8.925   1.795   6.495
45622SOL    HW238699   8.882   1.659   6.446
45623SOL     OW38700   4.416  11.866   8.800
45623SOL    HW138701   4.332  11.911   8.805
45623SOL    HW238702   4.455  11.877   8.887
45624SOL     OW38703   4.078   7.399   8.369
45624SOL    HW138704   4.029   7.473   8.335
45624SOL    HW238705   4.131   7.436   8.441
45625SOL     OW38706   3.638   4.851  12.097
45625SOL    HW138707   3.556   4.887  12.131
45625SOL    HW238708   3.706   4.910  12.132
45626SOL     OW38709   2.487   7.728  14.692
45626SOL    HW138710   2.537   7.661  14.645
45626SOL    HW238711   2.553   7.785  14.731
45627SOL     OW38712   4.980   7.130   7.238
45627SOL    HW138713   4.942   7.101   7.321
45627SOL    HW238714   4.908   7.119   7.175
45628SOL     OW38715   0.827   1.739  14.416
45628SOL    HW138716   0.871   1.794  14.481
45628SOL    HW238717   0.757   1.794  14.381
45629SOL     OW38718   6.958   1.954  13.602
45629SOL    HW138719   6.958   1.884  13.667
45629SOL    HW238720   7.051   1.973  13.586
45630SOL     OW38721   5.216   7.841  13.575
45630SOL    HW138722   5.293   7.801  13.615
45630SOL    HW238723   5.153   7.770  13.566
45631SOL     OW38724  10.031  13.893  13.503
45631SOL    HW138725   9.967  13.958  13.532
45631SOL    HW238726   9.980  13.829  13.453
45632SOL     OW38727   7.739   8.946   3.738
45632SOL    HW138728   7.812   8.896   3.774
45632SOL    HW238729   7.693   8.979   3.815
45633SOL     OW38730   0.165  12.490   3.209
45633SOL    HW138731   0.147  12.486   3.303
45633SOL    HW238732   0.152  12.400   3.179
45634SOL     OW38733   3.963  10.588  10.925
45634SOL    HW138734   3.944  10.599  11.019
45634SOL    HW238735   4.052  10.622  10.914
45635SOL     OW38736   6.203   9.988  13.030
45635SOL    HW138737   6.162  10.061  13.078
45635SOL    HW238738   6.181   9.910  13.081
45636SOL     OW38739  12.001   3.463  12.799
45636SOL    HW138740  11.994   3.420  12.714
45636SOL    HW238741  12.072   3.526  12.789
45637SOL     OW38742   0.947   0.086   0.356
45637SOL    HW138743   0.931   0.127   0.441
45637SOL    HW238744   0.988   0.156   0.304
45638SOL     OW38745   8.285   5.887   9.468
45638SOL    HW138746   8.216   5.952   9.468
45638SOL    HW238747   8.240   5.804   9.454
45639SOL     OW38748  10.465   3.759  14.875
45639SOL    HW138749  10.485   3.850   0.013
45639SOL    HW238750  10.516   3.739  14.797
45640SOL     OW38751   2.403  10.545  13.768
45640SOL    HW138752   2.414  10.640  13.774
45640SOL    HW238753   2.315  10.528  13.802
45641SOL     OW38754  10.393   6.998   9.454
45641SOL    HW138755  10.338   6.939   9.403
45641SOL    HW238756  10.415   6.949   9.533
45642SOL     OW38757  10.673   5.954   2.436
45642SOL    HW138758  10.632   5.875   2.403
45642SOL    HW238759  10.617   6.025   2.406
45643SOL     OW38760   6.960   5.763   3.894
45643SOL    HW138761   6.917   5.849   3.898
45643SOL    HW238762   6.961   5.733   3.985
45644SOL     OW38763   0.196   6.047   7.304
45644SOL    HW138764   0.110   6.088   7.291
45644SOL    HW238765   0.176   5.954   7.315
45645SOL     OW38766  13.934   9.568   6.837
45645SOL    HW138767  13.927   9.558   6.742
45645SOL    HW238768  14.001   9.635   6.849
45646SOL     OW38769   7.426  12.972   9.675
45646SOL    HW138770   7.445  12.973   9.581
45646SOL    HW238771   7.491  12.913   9.712
45647SOL     OW38772  13.339   0.664  10.288
45647SOL    HW138773  13.409   0.675  10.352
45647SOL    HW238774  13.259   0.656  10.341
45648SOL     OW38775   6.461   1.263  10.065
45648SOL    HW138776   6.523   1.335  10.062
45648SOL    HW238777   6.505   1.191  10.020
45649SOL     OW38778   2.281   8.314   5.570
45649SOL    HW138779   2.363   8.332   5.524
45649SOL    HW238780   2.253   8.400   5.603
45650SOL     OW38781   6.503   9.801  11.551
45650SOL    HW138782   6.526   9.834  11.637
45650SOL    HW238783   6.425   9.746  11.566
45651SOL     OW38784  13.926  12.733   3.308
45651SOL    HW138785  13.989  12.684   3.256
45651SOL    HW238786  13.931  12.693   3.395
45652SOL     OW38787   9.748   5.325  10.233
45652SOL    HW138788   9.775   5.288  10.149
45652SOL    HW238789   9.758   5.420  10.222
45653SOL     OW38790   7.557  14.557   3.501
45653SOL    HW138791   7.481  14.577   3.555
45653SOL    HW238792   7.617  14.511   3.559
45654SOL     OW38793  11.642   9.976   3.280
45654SOL    HW138794  11.660   9.956   3.372
45654SOL    HW238795  11.716  10.030   3.253
45655SOL     OW38796   8.406  11.629   6.807
45655SOL    HW138797   8.480  11.673   6.766
45655SOL    HW238798   8.381  11.687   6.880
45656SOL     OW38799   1.137   4.985  13.118
45656SOL    HW138800   1.075   4.919  13.086
45656SOL    HW238801   1.203   4.993  13.049
45657SOL     OW38802   5.999  10.665  13.288
45657SOL    HW138803   6.002  10.693  13.196
45657SOL    HW238804   5.979  10.745  13.336
45658SOL     OW38805  13.392   5.332   7.719
45658SOL    HW138806  13.434   5.248   7.738
45658SOL    HW238807  13.300   5.319   7.742
45659SOL     OW38808  13.777   0.544   2.388
45659SOL    HW138809  13.788   0.597   2.466
45659SOL    HW238810  13.708   0.481   2.411
45660SOL     OW38811   3.728   0.543   4.462
45660SOL    HW138812   3.664   0.539   4.390
45660SOL    HW238813   3.811   0.566   4.419
45661SOL     OW38814   6.586  12.355  12.570
45661SOL    HW138815   6.528  12.285  12.541
45661SOL    HW238816   6.669  12.337  12.525
45662SOL     OW38817   3.576   5.388  12.796
45662SOL    HW138818   3.551   5.321  12.733
45662SOL    HW238819   3.669   5.373  12.812
45663SOL     OW38820   4.737   2.707  13.368
45663SOL    HW138821   4.663   2.679  13.423
45663SOL    HW238822   4.776   2.625  13.337
45664SOL     OW38823   0.386   1.781   6.664
45664SOL    HW138824   0.398   1.694   6.701
45664SOL    HW238825   0.441   1.783   6.586
45665SOL     OW38826   1.411  12.513  13.515
45665SOL    HW138827   1.489  12.566  13.502
45665SOL    HW238828   1.443  12.423  13.511
45666SOL     OW38829   0.974  10.182   7.852
45666SOL    HW138830   0.959  10.243   7.780
45666SOL    HW238831   0.902  10.120   7.847
45667SOL     OW38832  13.274   5.573   2.212
45667SOL    HW138833  13.182   5.558   2.191
45667SOL    HW238834  13.290   5.518   2.289
45668SOL     OW38835  12.855  10.174  14.543
45668SOL    HW138836  12.946  10.163  14.518
45668SOL    HW238837  12.806  10.115  14.484
45669SOL     OW38838  10.542   8.712   4.096
45669SOL    HW138839  10.454   8.748   4.088
45669SOL    HW238840  10.537   8.626   4.052
45670SOL     OW38841   9.100  13.019   6.209
45670SOL    HW138842   9.078  12.935   6.248
45670SOL    HW238843   9.067  13.084   6.271
45671SOL     OW38844  10.561   8.695  10.820
45671SOL    HW138845  10.534   8.684  10.911
45671SOL    HW238846  10.632   8.632  10.807
45672SOL     OW38847   5.076   3.204   8.927
45672SOL    HW138848   5.062   3.111   8.910
45672SOL    HW238849   5.160   3.224   8.886
45673SOL     OW38850  11.436   5.284  12.413
45673SOL    HW138851  11.518   5.295  12.461
45673SOL    HW238852  11.429   5.189  12.400
45674SOL     OW38853  13.449   8.659  11.317
45674SOL    HW138854  13.532   8.638  11.273
45674SOL    HW238855  13.449   8.754  11.324
45675SOL     OW38856  12.338   8.540   9.553
45675SOL    HW138857  12.353   8.467   9.614
45675SOL    HW238858  12.304   8.498   9.474
45676SOL     OW38859   9.076   2.953   8.430
45676SOL    HW138860   9.108   2.950   8.340
45676SOL    HW238861   9.002   2.892   8.431
45677SOL     OW38862  10.678   6.274   5.134
45677SOL    HW138863  10.753   6.216   5.117
45677SOL    HW238864  10.704   6.325   5.210
45678SOL     OW38865  14.658  14.498  11.480
45678SOL    HW138866  14.743  14.497  11.523
45678SOL    HW238867  14.633  14.405  11.475
45679SOL     OW38868   0.176   8.816  10.982
45679SOL    HW138869   0.089   8.783  10.958
45679SOL    HW238870   0.203   8.868  10.906
45680SOL     OW38871   3.223   4.152  12.215
45680SOL    HW138872   3.299   4.102  12.184
45680SOL    HW238873   3.174   4.091  12.269
45681SOL     OW38874   7.845  13.353   2.527
45681SOL    HW138875   7.762  13.394   2.500
45681SOL    HW238876   7.821  13.298   2.602
45682SOL     OW38877  12.749   6.224   3.856
45682SOL    HW138878  12.731   6.310   3.893
45682SOL    HW238879  12.820   6.189   3.909
45683SOL     OW38880   1.684   9.611   1.455
45683SOL    HW138881   1.609   9.623   1.396
45683SOL    HW238882   1.651   9.636   1.541
45684SOL     OW38883  10.533   0.199  10.627
45684SOL    HW138884  10.532   0.230  10.717
45684SOL    HW238885  10.562   0.107  10.634
45685SOL     OW38886   1.702   7.326   9.906
45685SOL    HW138887   1.720   7.311   9.814
45685SOL    HW238888   1.617   7.284   9.922
45686SOL     OW38889   8.045   8.534  10.405
45686SOL    HW138890   8.057   8.448  10.445
45686SOL    HW238891   8.002   8.586  10.474
45687SOL     OW38892  10.465  10.949   1.819
45687SOL    HW138893  10.522  10.949   1.743
45687SOL    HW238894  10.379  10.974   1.785
45688SOL     OW38895   0.384   8.166   3.936
45688SOL    HW138896   0.384   8.106   3.861
45688SOL    HW238897   0.303   8.216   3.927
45689SOL     OW38898  13.962   4.521   0.326
45689SOL    HW138899  13.987   4.481   0.409
45689SOL    HW238900  13.869   4.501   0.317
45690SOL     OW38901   5.799   6.372  14.474
45690SOL    HW138902   5.769   6.460  14.494
45690SOL    HW238903   5.845   6.343  14.552
45691SOL     OW38904  14.112  10.700  11.912
45691SOL    HW138905  14.024  10.697  11.875
45691SOL    HW238906  14.128  10.792  11.929
45692SOL     OW38907   2.186   5.957   8.996
45692SOL    HW138908   2.240   5.879   8.980
45692SOL    HW238909   2.184   6.003   8.912
45693SOL     OW38910  10.391   5.978   6.149
45693SOL    HW138911  10.345   6.055   6.119
45693SOL    HW238912  10.347   5.905   6.106
45694SOL     OW38913   6.697   0.598   7.515
45694SOL    HW138914   6.787   0.607   7.482
45694SOL    HW238915   6.684   0.503   7.520
45695SOL     OW38916  10.949  11.078  14.545
45695SOL    HW138917  11.002  11.010  14.587
45695SOL    HW238918  10.980  11.081  14.455
45696SOL     OW38919  14.078  12.795   3.592
45696SOL    HW138920  14.144  12.740   3.551
45696SOL    HW238921  14.095  12.789   3.686
45697SOL     OW38922   4.797  10.499  10.629
45697SOL    HW138923   4.747  10.464  10.702
45697SOL    HW238924   4.877  10.448  10.628
45698SOL     OW38925   7.470   1.034  10.076
45698SOL    HW138926   7.462   0.968  10.007
45698SOL    HW238927   7.556   1.073  10.062
45699SOL     OW38928   0.488  14.464   2.779
45699SOL    HW138929   0.512  14.493   2.691
45699SOL    HW238930   0.410  14.515   2.800
45700SOL     OW38931  13.126   3.381  10.854
45700SOL    HW138932  13.076   3.355  10.776
45700SOL    HW238933  13.187   3.308  10.868
45701SOL     OW38934   1.992  12.543  11.737
45701SOL    HW138935   2.075  12.502  11.761
45701SOL    HW238936   1.937  12.533  11.814
45702SOL     OW38937   9.063   8.032   1.725
45702SOL    HW138938   9.064   8.121   1.690
45702SOL    HW238939   9.093   7.977   1.653
45703SOL     OW38940   0.762   6.414   4.604
45703SOL    HW138941   0.805   6.471   4.668
45703SOL    HW238942   0.720   6.474   4.543
45704SOL     OW38943   1.129   3.771   6.284
45704SOL    HW138944   1.195   3.799   6.348
45704SOL    HW238945   1.158   3.684   6.257
45705SOL     OW38946   8.336   1.467  12.161
45705SOL    HW138947   8.394   1.414  12.215
45705SOL    HW238948   8.275   1.403  12.123
45706SOL     OW38949  12.700   3.551  14.683
45706SOL    HW138950  12.697   3.629  14.627
45706SOL    HW238951  12.623   3.559  14.739
45707SOL     OW38952  10.189  12.453   0.067
45707SOL    HW138953  10.261  12.440   0.006
45707SOL    HW238954  10.185  12.548   0.079
45708SOL     OW38955  13.843  12.069   6.840
45708SOL    HW138956  13.894  12.150   6.834
45708SOL    HW238957  13.783  12.084   6.913
45709SOL     OW38958   7.346  13.482  13.054
45709SOL    HW138959   7.272  13.430  13.083
45709SOL    HW238960   7.323  13.509  12.965
45710SOL     OW38961   8.088   5.072   5.519
45710SOL    HW138962   8.049   5.005   5.463
45710SOL    HW238963   8.137   5.128   5.459
45711SOL     OW38964   6.284  11.210  10.958
45711SOL    HW138965   6.316  11.120  10.965
45711SOL    HW238966   6.347  11.261  11.009
45712SOL     OW38967  12.130   7.975   2.034
45712SOL    HW138968  12.174   7.994   2.117
45712SOL    HW238969  12.195   7.998   1.967
45713SOL     OW38970   7.276   7.761  13.320
45713SOL    HW138971   7.253   7.670  13.341
45713SOL    HW238972   7.232   7.777  13.237
45714SOL     OW38973  13.228   0.490  11.250
45714SOL    HW138974  13.249   0.427  11.181
45714SOL    HW238975  13.138   0.469  11.275
45715SOL     OW38976   2.291   8.118   8.904
45715SOL    HW138977   2.303   8.025   8.884
45715SOL    HW238978   2.370   8.143   8.952
45716SOL     OW38979  12.411   4.365   3.732
45716SOL    HW138980  12.482   4.308   3.763
45716SOL    HW238981  12.336   4.341   3.786
45717SOL     OW38982  13.741   6.478   2.559
45717SOL    HW138983  13.828   6.438   2.551
45717SOL    HW238984  13.719   6.469   2.652
45718SOL     OW38985   2.364   3.275   9.460
45718SOL    HW138986   2.340   3.237   9.375
45718SOL    HW238987   2.385   3.199   9.515
45719SOL     OW38988  13.522   6.507  12.376
45719SOL    HW138989  13.437   6.540  12.407
45719SOL    HW238990  13.536   6.427  12.427
45720SOL     OW38991  10.966   3.833   0.901
45720SOL    HW138992  11.031   3.891   0.862
45720SOL    HW238993  10.980   3.748   0.859
45721SOL     OW38994   1.277  10.685  11.760
45721SOL    HW138995   1.191  10.650  11.736
45721SOL    HW238996   1.262  10.727  11.845
45722SOL     OW38997   4.148   1.152   4.308
45722SOL    HW138998   4.053   1.141   4.304
45722SOL    HW238999   4.183   1.064   4.291
45723SOL     OW39000  14.653  13.654   9.664
45723SOL    HW139001  14.650  13.726   9.601
45723SOL    HW239002  14.746  13.649   9.690
45724SOL     OW39003   0.772   7.251  14.325
45724SOL    HW139004   0.761   7.345  14.314
45724SOL    HW239005   0.735   7.232  14.411
45725SOL     OW39006   6.096   3.599  11.540
45725SOL    HW139007   6.031   3.637  11.599
45725SOL    HW239008   6.150   3.674  11.513
45726SOL     OW39009  11.416  11.981  13.683
45726SOL    HW139010  11.391  11.966  13.592
45726SOL    HW239011  11.439  12.074  13.686
45727SOL     OW39012  11.514   5.616   3.232
45727SOL    HW139013  11.486   5.556   3.300
45727SOL    HW239014  11.587   5.571   3.189
45728SOL     OW39015  13.022   2.606  13.783
45728SOL    HW139016  12.955   2.576  13.845
45728SOL    HW239017  12.996   2.568  13.699
45729SOL     OW39018   4.280  14.468   7.751
45729SOL    HW139019   4.221  14.398   7.720
45729SOL    HW239020   4.267  14.539   7.688
45730SOL     OW39021   5.930   0.789   2.421
45730SOL    HW139022   5.863   0.828   2.364
45730SOL    HW239023   6.009   0.788   2.367
45731SOL     OW39024   4.810   7.890   2.802
45731SOL    HW139025   4.878   7.919   2.741
45731SOL    HW239026   4.789   7.801   2.774
45732SOL     OW39027   9.173   0.519  11.507
45732SOL    HW139028   9.142   0.432  11.534
45732SOL    HW239029   9.267   0.508  11.493
45733SOL     OW39030   6.028  12.138   5.371
45733SOL    HW139031   6.076  12.091   5.303
45733SOL    HW239032   5.972  12.199   5.323
45734SOL     OW39033  13.790   8.350   5.548
45734SOL    HW139034  13.816   8.442   5.542
45734SOL    HW239035  13.774   8.335   5.641
45735SOL     OW39036   8.926   3.909   1.673
45735SOL    HW139037   8.939   3.926   1.766
45735SOL    HW239038   8.949   3.817   1.661
45736SOL     OW39039  13.907   6.200   6.959
45736SOL    HW139040  13.876   6.131   6.900
45736SOL    HW239041  13.869   6.281   6.925
45737SOL     OW39042   2.400  13.077   6.229
45737SOL    HW139043   2.370  13.060   6.139
45737SOL    HW239044   2.490  13.046   6.230
45738SOL     OW39045  14.635   6.828   8.032
45738SOL    HW139046  14.597   6.742   8.047
45738SOL    HW239047  14.562   6.889   8.038
45739SOL     OW39048   8.295   5.812   3.205
45739SOL    HW139049   8.204   5.804   3.177
45739SOL    HW239050   8.345   5.756   3.145
45740SOL     OW39051   7.899   4.843   4.189
45740SOL    HW139052   7.881   4.901   4.115
45740SOL    HW239053   7.920   4.759   4.149
45741SOL     OW39054  12.539   9.690   0.755
45741SOL    HW139055  12.487   9.652   0.685
45741SOL    HW239056  12.476   9.738   0.808
45742SOL     OW39057  10.846   0.863  13.232
45742SOL    HW139058  10.916   0.801  13.211
45742SOL    HW239059  10.828   0.848  13.325
45743SOL     OW39060  12.834  12.975   6.314
45743SOL    HW139061  12.856  12.884   6.336
45743SOL    HW239062  12.742  12.984   6.336
45744SOL     OW39063   5.208   0.738   0.689
45744SOL    HW139064   5.191   0.649   0.721
45744SOL    HW239065   5.150   0.793   0.742
45745SOL     OW39066   3.556   4.311   4.842
45745SOL    HW139067   3.623   4.287   4.778
45745SOL    HW239068   3.565   4.405   4.854
45746SOL     OW39069   3.960  13.663   9.985
45746SOL    HW139070   4.029  13.729   9.978
45746SOL    HW239071   3.964  13.633  10.076
45747SOL     OW39072   4.745   5.653  12.109
45747SOL    HW139073   4.735   5.748  12.100
45747SOL    HW239074   4.747   5.638  12.204
45748SOL     OW39075   9.881  11.641   3.136
45748SOL    HW139076   9.933  11.586   3.077
45748SOL    HW239077   9.791  11.616   3.120
45749SOL     OW39078   3.410  10.156   9.330
45749SOL    HW139079   3.479  10.112   9.281
45749SOL    HW239080   3.397  10.100   9.407
45750SOL     OW39081   8.505  13.532  14.702
45750SOL    HW139082   8.575  13.540  14.637
45750SOL    HW239083   8.519  13.607  14.761
45751SOL     OW39084   1.415  10.518   9.409
45751SOL    HW139085   1.342  10.456   9.407
45751SOL    HW239086   1.438  10.531   9.317
45752SOL     OW39087   8.491   8.485  13.153
45752SOL    HW139088   8.519   8.426  13.223
45752SOL    HW239089   8.541   8.457  13.076
45753SOL     OW39090   7.370   8.945   8.755
45753SOL    HW139091   7.303   8.877   8.749
45753SOL    HW239092   7.379   8.961   8.849
45754SOL     OW39093  11.881  11.357   1.077
45754SOL    HW139094  11.833  11.297   1.021
45754SOL    HW239095  11.925  11.301   1.140
45755SOL     OW39096   8.371  11.027   8.725
45755SOL    HW139097   8.291  10.982   8.752
45755SOL    HW239098   8.381  11.097   8.790
45756SOL     OW39099  11.639   3.206  13.202
45756SOL    HW139100  11.725   3.195  13.243
45756SOL    HW239101  11.657   3.254  13.122
45757SOL     OW39102  11.682  10.480   5.227
45757SOL    HW139103  11.648  10.468   5.316
45757SOL    HW239104  11.751  10.546   5.237
45758SOL     OW39105  12.048   8.477  12.330
45758SOL    HW139106  11.980   8.473  12.263
45758SOL    HW239107  12.083   8.388  12.333
45759SOL     OW39108  14.860  13.535   8.059
45759SOL    HW139109   0.065  13.568   8.083
45759SOL    HW239110  14.803  13.563   8.130
45760SOL     OW39111   6.539   2.193  10.751
45760SOL    HW139112   6.473   2.178  10.684
45760SOL    HW239113   6.617   2.218  10.702
45761SOL     OW39114   8.699   0.503  12.044
45761SOL    HW139115   8.700   0.575  12.108
45761SOL    HW239116   8.791   0.489  12.023
45762SOL     OW39117  13.587   0.231  14.796
45762SOL    HW139118  13.632   0.309  14.765
45762SOL    HW239119  13.614   0.162  14.736
45763SOL     OW39120   2.498   7.960  10.802
45763SOL    HW139121   2.415   7.987  10.842
45763SOL    HW239122   2.472   7.912  10.723
45764SOL     OW39123   3.854   6.162   0.019
45764SOL    HW139124   3.895   6.238  14.859
45764SOL    HW239125   3.840   6.100  14.830
45765SOL     OW39126   5.454   9.602  12.890
45765SOL    HW139127   5.511   9.611  12.814
45765SOL    HW239128   5.369   9.578  12.853
45766SOL     OW39129  11.022   2.340   7.511
45766SOL    HW139130  11.028   2.371   7.602
45766SOL    HW239131  11.060   2.410   7.459
45767SOL     OW39132   1.474  11.733   3.310
45767SOL    HW139133   1.563  11.726   3.345
45767SOL    HW239134   1.424  11.666   3.358
45768SOL     OW39135   6.281   2.130   2.335
45768SOL    HW139136   6.206   2.084   2.374
45768SOL    HW239137   6.280   2.104   2.243
45769SOL     OW39138  14.423   7.824   3.338
45769SOL    HW139139  14.490   7.882   3.302
45769SOL    HW239140  14.353   7.883   3.368
45770SOL     OW39141   2.353   5.301   1.931
45770SOL    HW139142   2.385   5.211   1.928
45770SOL    HW239143   2.344   5.326   1.839
45771SOL     OW39144  10.249   7.958   5.988
45771SOL    HW139145  10.201   8.013   5.926
45771SOL    HW239146  10.247   8.007   6.070
45772SOL     OW39147   4.115   3.453   6.496
45772SOL    HW139148   4.166   3.383   6.536
45772SOL    HW239149   4.162   3.533   6.520
45773SOL     OW39150   7.371   0.170   9.714
45773SOL    HW139151   7.282   0.199   9.730
45773SOL    HW239152   7.413   0.169   9.800
45774SOL     OW39153   5.226  13.202   9.587
45774SOL    HW139154   5.292  13.261   9.625
45774SOL    HW239155   5.143  13.246   9.604
45775SOL     OW39156   4.963   9.942  11.762
45775SOL    HW139157   4.935   9.893  11.838
45775SOL    HW239158   4.986   9.876  11.697
45776SOL     OW39159   6.280   6.838  12.175
45776SOL    HW139160   6.364   6.857  12.133
45776SOL    HW239161   6.244   6.924  12.197
45777SOL     OW39162   8.490   6.185   7.573
45777SOL    HW139163   8.465   6.269   7.535
45777SOL    HW239164   8.536   6.208   7.654
45778SOL     OW39165   8.036   0.945  11.758
45778SOL    HW139166   7.949   0.979  11.741
45778SOL    HW239167   8.060   0.898  11.678
45779SOL     OW39168   0.483  11.179   2.526
45779SOL    HW139169   0.544  11.221   2.587
45779SOL    HW239170   0.459  11.097   2.569
45780SOL     OW39171  13.144  13.180  10.306
45780SOL    HW139172  13.085  13.139  10.242
45780SOL    HW239173  13.232  13.156  10.277
45781SOL     OW39174  11.446   5.036   5.679
45781SOL    HW139175  11.458   5.015   5.772
45781SOL    HW239176  11.351   5.043   5.669
45782SOL     OW39177   3.428   7.753   4.540
45782SOL    HW139178   3.379   7.745   4.622
45782SOL    HW239179   3.473   7.669   4.530
45783SOL     OW39180  11.608  12.567  10.207
45783SOL    HW139181  11.699  12.539  10.212
45783SOL    HW239182  11.578  12.569  10.298
45784SOL     OW39183   3.367   5.322  13.012
45784SOL    HW139184   3.439   5.316  13.075
45784SOL    HW239185   3.408   5.348  12.930
45785SOL     OW39186   5.794   1.663   3.231
45785SOL    HW139187   5.870   1.679   3.286
45785SOL    HW239188   5.760   1.750   3.212
45786SOL     OW39189   5.278   6.008   9.360
45786SOL    HW139190   5.191   6.018   9.398
45786SOL    HW239191   5.337   6.001   9.435
45787SOL     OW39192   2.918   4.351   2.744
45787SOL    HW139193   2.848   4.329   2.682
45787SOL    HW239194   2.970   4.271   2.751
45788SOL     OW39195   5.972   6.459  10.329
45788SOL    HW139196   5.956   6.427  10.240
45788SOL    HW239197   5.885   6.481  10.362
45789SOL     OW39198  10.154   3.287   8.292
45789SOL    HW139199  10.232   3.342   8.295
45789SOL    HW239200  10.139   3.260   8.383
45790SOL     OW39201  10.897   9.510  10.348
45790SOL    HW139202  10.831   9.557  10.398
45790SOL    HW239203  10.849   9.470  10.276
45791SOL     OW39204   6.655  10.685   9.673
45791SOL    HW139205   6.738  10.655   9.710
45791SOL    HW239206   6.675  10.702   9.581
45792SOL     OW39207   8.386   7.681  13.572
45792SOL    HW139208   8.452   7.661  13.505
45792SOL    HW239209   8.329   7.605  13.573
45793SOL     OW39210  10.512   9.547  14.570
45793SOL    HW139211  10.606   9.549  14.551
45793SOL    HW239212  10.474   9.499  14.496
45794SOL     OW39213   7.561   5.876   7.263
45794SOL    HW139214   7.582   5.967   7.284
45794SOL    HW239215   7.465   5.873   7.257
45795SOL     OW39216   4.419  12.360   9.271
45795SOL    HW139217   4.417  12.454   9.253
45795SOL    HW239218   4.356  12.323   9.209
45796SOL     OW39219   2.436   2.158  10.795
45796SOL    HW139220   2.412   2.143  10.704
45796SOL    HW239221   2.374   2.223  10.827
45797SOL     OW39222  10.773   5.281   7.399
45797SOL    HW139223  10.713   5.334   7.452
45797SOL    HW239224  10.752   5.304   7.308
45798SOL     OW39225   3.930   2.948  14.226
45798SOL    HW139226   4.006   2.903  14.189
45798SOL    HW239227   3.856   2.917  14.172
45799SOL     OW39228   0.559  10.367   9.699
45799SOL    HW139229   0.565  10.453   9.657
45799SOL    HW239230   0.595  10.306   9.635
45800SOL     OW39231   7.502   3.318   2.873
45800SOL    HW139232   7.443   3.243   2.884
45800SOL    HW239233   7.525   3.343   2.963
45801SOL     OW39234  14.332   9.433   0.028
45801SOL    HW139235  14.272   9.505   0.007
45801SOL    HW239236  14.398   9.435  14.839
45802SOL     OW39237   4.896   5.853   5.857
45802SOL    HW139238   4.930   5.766   5.838
45802SOL    HW239239   4.960   5.913   5.818
45803SOL     OW39240   6.330  10.478  13.847
45803SOL    HW139241   6.332  10.502  13.755
45803SOL    HW239242   6.238  10.460  13.866
45804SOL     OW39243  14.702  11.681  14.051
45804SOL    HW139244  14.609  11.672  14.031
45804SOL    HW239245  14.706  11.739  14.127
45805SOL     OW39246  10.160   6.268  13.391
45805SOL    HW139247  10.086   6.328  13.402
45805SOL    HW239248  10.122   6.181  13.404
45806SOL     OW39249   7.718   9.356   9.234
45806SOL    HW139250   7.756   9.277   9.196
45806SOL    HW239251   7.630   9.329   9.262
45807SOL     OW39252   3.807   9.805  10.128
45807SOL    HW139253   3.857   9.725  10.116
45807SOL    HW239254   3.716   9.780  10.112
45808SOL     OW39255   8.821  10.202   1.175
45808SOL    HW139256   8.751  10.141   1.197
45808SOL    HW239257   8.798  10.235   1.088
45809SOL     OW39258   5.576   1.191   5.672
45809SOL    HW139259   5.644   1.134   5.709
45809SOL    HW239260   5.563   1.259   5.738
45810SOL     OW39261   2.330   8.079  13.139
45810SOL    HW139262   2.281   8.155  13.170
45810SOL    HW239263   2.263   8.011  13.125
45811SOL     OW39264   4.577   5.282   8.620
45811SOL    HW139265   4.541   5.233   8.546
45811SOL    HW239266   4.522   5.257   8.695
45812SOL     OW39267   1.333   4.579   7.231
45812SOL    HW139268   1.291   4.586   7.146
45812SOL    HW239269   1.402   4.646   7.229
45813SOL     OW39270  11.641   2.715   6.657
45813SOL    HW139271  11.660   2.635   6.706
45813SOL    HW239272  11.698   2.710   6.580
45814SOL     OW39273   7.072  12.844  14.238
45814SOL    HW139274   6.994  12.859  14.292
45814SOL    HW239275   7.045  12.778  14.174
45815SOL     OW39276   6.850   3.045   6.113
45815SOL    HW139277   6.870   3.057   6.020
45815SOL    HW239278   6.793   2.968   6.116
45816SOL     OW39279   6.613   9.311   7.788
45816SOL    HW139280   6.614   9.379   7.721
45816SOL    HW239281   6.700   9.272   7.785
45817SOL     OW39282   2.584   7.500   8.612
45817SOL    HW139283   2.670   7.498   8.653
45817SOL    HW239284   2.583   7.583   8.563
45818SOL     OW39285   8.874   2.276  12.571
45818SOL    HW139286   8.790   2.256  12.529
45818SOL    HW239287   8.855   2.348  12.631
45819SOL     OW39288  11.934  12.136  10.621
45819SOL    HW139289  11.897  12.168  10.539
45819SOL    HW239290  11.939  12.041  10.610
45820SOL     OW39291  11.295  10.448   1.432
45820SOL    HW139292  11.383  10.416   1.411
45820SOL    HW239293  11.310  10.526   1.487
45821SOL     OW39294  14.074   5.583   5.754
45821SOL    HW139295  13.989   5.541   5.744
45821SOL    HW239296  14.054   5.676   5.764
45822SOL     OW39297  11.832   8.224   8.736
45822SOL    HW139298  11.829   8.150   8.676
45822SOL    HW239299  11.849   8.185   8.822
45823SOL     OW39300   0.386  12.209  10.879
45823SOL    HW139301   0.339  12.285  10.913
45823SOL    HW239302   0.318  12.151  10.846
45824SOL     OW39303  12.321  11.335   2.547
45824SOL    HW139304  12.398  11.286   2.576
45824SOL    HW239305  12.287  11.284   2.473
45825SOL     OW39306   2.336  12.964   5.125
45825SOL    HW139307   2.300  12.932   5.042
45825SOL    HW239308   2.398  13.033   5.099
45826SOL     OW39309  10.460   1.812   1.523
45826SOL    HW139310  10.532   1.855   1.570
45826SOL    HW239311  10.426   1.748   1.586
45827SOL     OW39312  13.923   8.902   9.945
45827SOL    HW139313  13.853   8.894  10.009
45827SOL    HW239314  13.880   8.887   9.860
45828SOL     OW39315   4.432  12.895   1.454
45828SOL    HW139316   4.485  12.927   1.527
45828SOL    HW239317   4.376  12.828   1.494
45829SOL     OW39318   0.786  14.527   6.771
45829SOL    HW139319   0.700  14.503   6.738
45829SOL    HW239320   0.847  14.473   6.721
45830SOL     OW39321  14.679   4.342   9.808
45830SOL    HW139322  14.662   4.269   9.867
45830SOL    HW239323  14.630   4.319   9.728
45831SOL     OW39324  12.050   1.614   8.452
45831SOL    HW139325  12.088   1.548   8.510
45831SOL    HW239326  11.987   1.661   8.507
45832SOL     OW39327   8.399   1.457   6.017
45832SOL    HW139328   8.316   1.500   5.997
45832SOL    HW239329   8.419   1.406   5.938
45833SOL     OW39330   0.181   2.319  13.518
45833SOL    HW139331   0.222   2.353  13.598
45833SOL    HW239332   0.221   2.233  13.505
45834SOL     OW39333   5.426   8.960  13.670
45834SOL    HW139334   5.367   8.986  13.741
45834SOL    HW239335   5.444   8.867  13.685
45835SOL     OW39336  10.519  12.635   6.103
45835SOL    HW139337  10.493  12.609   6.015
45835SOL    HW239338  10.552  12.724   6.093
45836SOL     OW39339   1.900  12.751   1.770
45836SOL    HW139340   1.962  12.678   1.779
45836SOL    HW239341   1.875  12.771   1.860
45837SOL     OW39342   3.623   7.378   1.803
45837SOL    HW139343   3.529   7.360   1.811
45837SOL    HW239344   3.631   7.472   1.816
45838SOL     OW39345   3.240   5.368  11.447
45838SOL    HW139346   3.263   5.304  11.514
45838SOL    HW239347   3.211   5.315  11.372
45839SOL     OW39348   4.211   4.795  14.235
45839SOL    HW139349   4.167   4.762  14.156
45839SOL    HW239350   4.178   4.884  14.245
45840SOL     OW39351  12.235  13.116  13.943
45840SOL    HW139352  12.225  13.113  14.038
45840SOL    HW239353  12.239  13.024  13.916
45841SOL     OW39354  12.042  10.659   2.472
45841SOL    HW139355  12.086  10.603   2.535
45841SOL    HW239356  11.948  10.645   2.488
45842SOL     OW39357   6.512  10.242  14.505
45842SOL    HW139358   6.504  10.323  14.456
45842SOL    HW239359   6.431  10.194  14.487
45843SOL     OW39360  12.905   2.408   6.054
45843SOL    HW139361  12.817   2.383   6.028
45843SOL    HW239362  12.949   2.430   5.972
45844SOL     OW39363   3.323   1.647  13.527
45844SOL    HW139364   3.365   1.599  13.457
45844SOL    HW239365   3.301   1.581  13.593
45845SOL     OW39366  11.248   0.769   3.101
45845SOL    HW139367  11.218   0.680   3.119
45845SOL    HW239368  11.289   0.798   3.182
45846SOL     OW39369   6.509   7.256   0.782
45846SOL    HW139370   6.583   7.288   0.834
45846SOL    HW239371   6.433   7.271   0.838
45847SOL     OW39372   9.558   0.300   1.248
45847SOL    HW139373   9.561   0.216   1.293
45847SOL    HW239374   9.636   0.347   1.280
45848SOL     OW39375  12.468  12.289  14.143
45848SOL    HW139376  12.521  12.292  14.063
45848SOL    HW239377  12.387  12.334  14.120
45849SOL     OW39378  12.630   1.784   7.919
45849SOL    HW139379  12.647   1.818   7.831
45849SOL    HW239380  12.617   1.862   7.973
45850SOL     OW39381   8.509   2.282  13.447
45850SOL    HW139382   8.462   2.242  13.521
45850SOL    HW239383   8.483   2.230  13.371
45851SOL     OW39384   9.954   9.384  12.810
45851SOL    HW139385   9.911   9.399  12.725
45851SOL    HW239386   9.918   9.300  12.841
45852SOL     OW39387   4.457  13.889   7.621
45852SOL    HW139388   4.534  13.878   7.677
45852SOL    HW239389   4.383  13.883   7.681
45853SOL     OW39390   2.698   0.336  11.794
45853SOL    HW139391   2.724   0.316  11.704
45853SOL    HW239392   2.748   0.274  11.847
45854SOL     OW39393  10.587   5.211  11.143
45854SOL    HW139394  10.551   5.212  11.232
45854SOL    HW239395  10.528   5.153  11.095
45855SOL     OW39396   6.233  12.728  13.392
45855SOL    HW139397   6.141  12.709  13.375
45855SOL    HW239398   6.254  12.676  13.470
45856SOL     OW39399   4.983   2.959   3.698
45856SOL    HW139400   4.998   2.869   3.726
45856SOL    HW239401   4.927   2.997   3.766
45857SOL     OW39402   4.327  11.531   4.195
45857SOL    HW139403   4.407  11.479   4.206
45857SOL    HW239404   4.358  11.621   4.187
45858SOL     OW39405   0.202   1.277   5.809
45858SOL    HW139406   0.296   1.291   5.819
45858SOL    HW239407   0.195   1.213   5.738
45859SOL     OW39408   1.139   8.670   2.243
45859SOL    HW139409   1.181   8.637   2.322
45859SOL    HW239410   1.211   8.688   2.183
45860SOL     OW39411   8.969   6.109   7.363
45860SOL    HW139412   8.967   6.201   7.339
45860SOL    HW239413   9.055   6.096   7.403
45861SOL     OW39414   6.788  11.497   8.069
45861SOL    HW139415   6.736  11.461   7.997
45861SOL    HW239416   6.780  11.433   8.139
45862SOL     OW39417   5.306   8.857  10.438
45862SOL    HW139418   5.249   8.886  10.366
45862SOL    HW239419   5.246   8.822  10.504
45863SOL     OW39420   8.174   4.657  11.481
45863SOL    HW139421   8.179   4.569  11.517
45863SOL    HW239422   8.233   4.709  11.535
45864SOL     OW39423   9.049  11.408  13.497
45864SOL    HW139424   9.001  11.490  13.504
45864SOL    HW239425   8.985  11.341  13.520
45865SOL     OW39426  10.402  13.286   2.327
45865SOL    HW139427  10.406  13.205   2.378
45865SOL    HW239428  10.314  13.321   2.344
45866SOL     OW39429  12.697  12.795   3.263
45866SOL    HW139430  12.735  12.849   3.194
45866SOL    HW239431  12.605  12.819   3.265
45867SOL     OW39432   8.486   7.601   9.529
45867SOL    HW139433   8.499   7.600   9.624
45867SOL    HW239434   8.402   7.557   9.516
45868SOL     OW39435   0.342   0.075  12.140
45868SOL    HW139436   0.307   0.107  12.057
45868SOL    HW239437   0.343  14.862  12.131
45869SOL     OW39438   6.854  14.062   9.838
45869SOL    HW139439   6.817  13.977   9.863
45869SOL    HW239440   6.910  14.042   9.762
45870SOL     OW39441  10.646   8.821   7.966
45870SOL    HW139442  10.737   8.792   7.958
45870SOL    HW239443  10.650   8.896   8.025
45871SOL     OW39444  11.283   0.324   5.143
45871SOL    HW139445  11.306   0.413   5.119
45871SOL    HW239446  11.212   0.301   5.083
45872SOL     OW39447   4.959  13.430  14.384
45872SOL    HW139448   4.891  13.380  14.428
45872SOL    HW239449   4.959  13.515  14.428
45873SOL     OW39450   9.614  13.429   4.421
45873SOL    HW139451   9.582  13.389   4.502
45873SOL    HW239452   9.631  13.354   4.363
45874SOL     OW39453   8.977   5.722  11.136
45874SOL    HW139454   9.032   5.727  11.057
45874SOL    HW239455   8.941   5.634  11.135
45875SOL     OW39456   7.263   2.331  12.168
45875SOL    HW139457   7.181   2.330  12.219
45875SOL    HW239458   7.242   2.282  12.089
45876SOL     OW39459   3.623   2.430   4.740
45876SOL    HW139460   3.558   2.494   4.712
45876SOL    HW239461   3.702   2.452   4.692
45877SOL     OW39462   1.491   4.715   2.112
45877SOL    HW139463   1.405   4.694   2.073
45877SOL    HW239464   1.476   4.711   2.206
45878SOL     OW39465   8.269   3.629  14.550
45878SOL    HW139466   8.323   3.564  14.505
45878SOL    HW239467   8.273   3.602  14.642
45879SOL     OW39468   1.538   6.193   1.438
45879SOL    HW139469   1.574   6.220   1.523
45879SOL    HW239470   1.614   6.188   1.380
45880SOL     OW39471   3.790   2.019  12.933
45880SOL    HW139472   3.784   2.112  12.958
45880SOL    HW239473   3.883   2.007  12.912
45881SOL     OW39474  11.652  11.367   7.126
45881SOL    HW139475  11.566  11.325   7.125
45881SOL    HW239476  11.689  11.348   7.040
45882SOL     OW39477  13.029   5.623  11.052
45882SOL    HW139478  12.940   5.622  11.015
45882SOL    HW239479  13.064   5.709  11.026
45883SOL     OW39480   3.257  14.533   9.020
45883SOL    HW139481   3.293  14.507   8.935
45883SOL    HW239482   3.202  14.609   9.002
45884SOL     OW39483   6.011   8.186   9.891
45884SOL    HW139484   6.008   8.122   9.961
45884SOL    HW239485   5.922   8.220   9.886
45885SOL     OW39486  14.741  13.136   3.857
45885SOL    HW139487  14.657  13.181   3.867
45885SOL    HW239488  14.797  13.176   3.923
45886SOL     OW39489   2.660   8.282   1.973
45886SOL    HW139490   2.730   8.340   1.945
45886SOL    HW239491   2.629   8.242   1.892
45887SOL     OW39492   8.420  13.046  12.897
45887SOL    HW139493   8.482  12.979  12.867
45887SOL    HW239494   8.430  13.117  12.833
45888SOL     OW39495   1.512   1.798  14.027
45888SOL    HW139496   1.604   1.816  14.047
45888SOL    HW239497   1.491   1.859  13.956
45889SOL     OW39498   4.445   5.812   9.097
45889SOL    HW139499   4.437   5.861   9.015
45889SOL    HW239500   4.422   5.875   9.165
45890SOL     OW39501   7.162   5.179   1.544
45890SOL    HW139502   7.239   5.230   1.572
45890SOL    HW239503   7.087   5.233   1.569
45891SOL     OW39504   4.748   6.221   5.332
45891SOL    HW139505   4.748   6.233   5.427
45891SOL    HW239506   4.839   6.236   5.306
45892SOL     OW39507   3.448   1.535   5.801
45892SOL    HW139508   3.521   1.593   5.822
45892SOL    HW239509   3.489   1.456   5.766
45893SOL     OW39510   1.877   2.475   6.297
45893SOL    HW139511   1.920   2.477   6.382
45893SOL    HW239512   1.888   2.563   6.262
45894SOL     OW39513  10.805  11.294   8.222
45894SOL    HW139514  10.726  11.320   8.175
45894SOL    HW239515  10.874  11.348   8.183
45895SOL     OW39516   5.139  11.347   7.504
45895SOL    HW139517   5.097  11.268   7.472
45895SOL    HW239518   5.066  11.405   7.529
45896SOL     OW39519  14.184   4.844   2.700
45896SOL    HW139520  14.108   4.811   2.747
45896SOL    HW239521  14.171   4.814   2.610
45897SOL     OW39522   1.744   4.650   3.828
45897SOL    HW139523   1.728   4.715   3.760
45897SOL    HW239524   1.800   4.695   3.891
45898SOL     OW39525   8.850   4.385  12.670
45898SOL    HW139526   8.883   4.360  12.584
45898SOL    HW239527   8.877   4.313  12.728
45899SOL     OW39528   1.538   6.114  12.099
45899SOL    HW139529   1.532   6.100  12.194
45899SOL    HW239530   1.491   6.039  12.061
45900SOL     OW39531  13.925   7.002   3.126
45900SOL    HW139532  13.893   6.989   3.037
45900SOL    HW239533  13.936   6.913   3.161
45901SOL     OW39534   8.254   7.428  14.379
45901SOL    HW139535   8.348   7.437  14.366
45901SOL    HW239536   8.229   7.351  14.327
45902SOL     OW39537  12.144  10.108  10.148
45902SOL    HW139538  12.197  10.090  10.226
45902SOL    HW239539  12.078  10.170  10.178
45903SOL     OW39540   7.719   6.018  14.072
45903SOL    HW139541   7.798   6.071  14.087
45903SOL    HW239542   7.682   6.053  13.991
45904SOL     OW39543  11.083   0.927  11.439
45904SOL    HW139544  11.055   0.969  11.358
45904SOL    HW239545  11.178   0.938  11.441
45905SOL     OW39546  10.890  13.567   8.078
45905SOL    HW139547  10.867  13.493   8.021
45905SOL    HW239548  10.978  13.592   8.050
45906SOL     OW39549   4.561  12.758   2.911
45906SOL    HW139550   4.545  12.742   2.818
45906SOL    HW239551   4.601  12.676   2.942
45907SOL     OW39552  13.446   8.108   3.388
45907SOL    HW139553  13.459   8.042   3.456
45907SOL    HW239554  13.485   8.187   3.424
45908SOL     OW39555   8.280   8.379   5.114
45908SOL    HW139556   8.360   8.360   5.162
45908SOL    HW239557   8.309   8.396   5.024
45909SOL     OW39558   2.207  10.280   0.314
45909SOL    HW139559   2.156  10.204   0.341
45909SOL    HW239560   2.298  10.253   0.327
45910SOL     OW39561   7.604   8.979  14.502
45910SOL    HW139562   7.589   9.014  14.414
45910SOL    HW239563   7.696   8.998  14.519
45911SOL     OW39564  14.705   1.096  11.007
45911SOL    HW139565  14.795   1.064  11.017
45911SOL    HW239566  14.652   1.036  11.060
45912SOL     OW39567   7.462   5.016  14.571
45912SOL    HW139568   7.472   4.943  14.510
45912SOL    HW239569   7.375   5.052  14.552
45913SOL     OW39570  13.660   5.938   8.840
45913SOL    HW139571  13.627   5.895   8.761
45913SOL    HW239572  13.751   5.909   8.846
45914SOL     OW39573   0.795   3.953   0.395
45914SOL    HW139574   0.718   3.986   0.349
45914SOL    HW239575   0.782   3.981   0.486
45915SOL     OW39576   2.818  14.722   6.769
45915SOL    HW139577   2.862  14.731   6.854
45915SOL    HW239578   2.883  14.680   6.713
45916SOL     OW39579   7.055  12.909   8.748
45916SOL    HW139580   7.012  12.994   8.747
45916SOL    HW239581   7.007  12.858   8.814
45917SOL     OW39582   6.484  12.478   9.966
45917SOL    HW139583   6.444  12.438  10.043
45917SOL    HW239584   6.566  12.515   9.998
45918SOL     OW39585  14.549   5.751  14.415
45918SOL    HW139586  14.455   5.767  14.416
45918SOL    HW239587  14.576   5.774  14.326
45919SOL     OW39588  11.722   4.221   6.126
45919SOL    HW139589  11.637   4.211   6.083
45919SOL    HW239590  11.712   4.176   6.209
45920SOL     OW39591   0.405  14.166  12.487
45920SOL    HW139592   0.483  14.183  12.540
45920SOL    HW239593   0.342  14.234  12.514
45921SOL     OW39594   6.584   8.569   9.908
45921SOL    HW139595   6.655   8.549   9.969
45921SOL    HW239596   6.517   8.610   9.962
45922SOL     OW39597   0.316   4.859  13.838
45922SOL    HW139598   0.299   4.945  13.876
45922SOL    HW239599   0.302   4.871  13.744
45923SOL     OW39600   5.309   9.634   5.103
45923SOL    HW139601   5.230   9.592   5.069
45923SOL    HW239602   5.313   9.718   5.057
45924SOL     OW39603   4.443   6.513   4.678
45924SOL    HW139604   4.437   6.600   4.718
45924SOL    HW239605   4.443   6.529   4.584
45925SOL     OW39606   9.889   0.299   5.333
45925SOL    HW139607   9.926   0.275   5.248
45925SOL    HW239608   9.954   0.358   5.371
45926SOL     OW39609   7.440  11.122   7.387
45926SOL    HW139610   7.361  11.077   7.418
45926SOL    HW239611   7.462  11.078   7.306
45927SOL     OW39612   4.639   8.319   7.492
45927SOL    HW139613   4.613   8.249   7.552
45927SOL    HW239614   4.695   8.276   7.427
45928SOL     OW39615   6.586  10.498   4.624
45928SOL    HW139616   6.612  10.589   4.607
45928SOL    HW239617   6.491  10.502   4.637
45929SOL     OW39618   7.633   8.357   4.882
45929SOL    HW139619   7.648   8.428   4.944
45929SOL    HW239620   7.696   8.290   4.909
45930SOL     OW39621  12.455  14.033   1.171
45930SOL    HW139622  12.500  14.110   1.138
45930SOL    HW239623  12.523  13.966   1.176
45931SOL     OW39624   9.977   6.928  11.585
45931SOL    HW139625   9.968   7.003  11.643
45931SOL    HW239626   9.914   6.944  11.515
45932SOL     OW39627   7.040   9.494   1.488
45932SOL    HW139628   6.999   9.553   1.425
45932SOL    HW239629   6.970   9.435   1.515
45933SOL     OW39630  10.473  14.192   7.084
45933SOL    HW139631  10.530  14.254   7.038
45933SOL    HW239632  10.385  14.222   7.064
45934SOL     OW39633   4.579   8.830  12.620
45934SOL    HW139634   4.489   8.799  12.634
45934SOL    HW239635   4.603   8.794  12.535
45935SOL     OW39636  13.545   0.788   3.115
45935SOL    HW139637  13.512   0.861   3.166
45935SOL    HW239638  13.495   0.713   3.145
45936SOL     OW39639  11.623   8.643   1.206
45936SOL    HW139640  11.632   8.549   1.190
45936SOL    HW239641  11.712   8.675   1.214
45937SOL     OW39642   1.036   0.704   9.431
45937SOL    HW139643   1.038   0.723   9.337
45937SOL    HW239644   0.949   0.734   9.458
45938SOL     OW39645   5.375   1.891   7.075
45938SOL    HW139646   5.357   1.897   6.981
45938SOL    HW239647   5.401   1.980   7.100
45939SOL     OW39648  13.992   6.703   1.422
45939SOL    HW139649  14.063   6.640   1.407
45939SOL    HW239650  13.943   6.667   1.495
45940SOL     OW39651   5.797   3.600   6.887
45940SOL    HW139652   5.865   3.668   6.890
45940SOL    HW239653   5.732   3.633   6.825
45941SOL     OW39654   6.761  10.926   6.978
45941SOL    HW139655   6.850  10.893   6.966
45941SOL    HW239656   6.761  11.011   6.935
45942SOL     OW39657   8.801   0.133  12.134
45942SOL    HW139658   8.838   0.184  12.206
45942SOL    HW239659   8.854   0.157  12.057
45943SOL     OW39660   4.738  11.610   5.050
45943SOL    HW139661   4.747  11.530   4.999
45943SOL    HW239662   4.677  11.664   5.000
45944SOL     OW39663   6.974   9.664   0.995
45944SOL    HW139664   7.029   9.655   0.917
45944SOL    HW239665   7.030   9.708   1.059
45945SOL     OW39666   3.903  14.073   0.629
45945SOL    HW139667   3.930  14.157   0.666
45945SOL    HW239668   3.818  14.056   0.670
45946SOL     OW39669  13.370  10.718   8.889
45946SOL    HW139670  13.310  10.645   8.876
45946SOL    HW239671  13.354  10.775   8.814
45947SOL     OW39672   4.784  10.687   0.183
45947SOL    HW139673   4.700  10.712   0.145
45947SOL    HW239674   4.763  10.617   0.244
45948SOL     OW39675   2.857   2.173   9.857
45948SOL    HW139676   2.860   2.091   9.808
45948SOL    HW239677   2.832   2.239   9.793
45949SOL     OW39678   8.440  14.722  11.038
45949SOL    HW139679   8.532  14.737  11.017
45949SOL    HW239680   8.392  14.758  10.963
45950SOL     OW39681   3.432   0.764   2.310
45950SOL    HW139682   3.435   0.842   2.255
45950SOL    HW239683   3.370   0.786   2.380
45951SOL     OW39684   0.201   3.299   5.281
45951SOL    HW139685   0.196   3.354   5.360
45951SOL    HW239686   0.237   3.217   5.313
45952SOL     OW39687   4.935  13.041   4.146
45952SOL    HW139688   4.866  12.974   4.146
45952SOL    HW239689   4.890  13.121   4.120
45953SOL     OW39690   5.867  10.205   4.363
45953SOL    HW139691   5.795  10.250   4.406
45953SOL    HW239692   5.830  10.122   4.333
45954SOL     OW39693   5.726   8.711   9.554
45954SOL    HW139694   5.731   8.727   9.648
45954SOL    HW239695   5.763   8.790   9.515
45955SOL     OW39696   4.166   5.353  12.299
45955SOL    HW139697   4.249   5.307  12.310
45955SOL    HW239698   4.121   5.306  12.229
45956SOL     OW39699   4.178   5.744  11.143
45956SOL    HW139700   4.206   5.790  11.064
45956SOL    HW239701   4.248   5.762  11.206
45957SOL     OW39702   0.527   5.738   9.011
45957SOL    HW139703   0.565   5.704   9.092
45957SOL    HW239704   0.529   5.664   8.950
45958SOL     OW39705   5.544   3.762  13.897
45958SOL    HW139706   5.545   3.666  13.897
45958SOL    HW239707   5.480   3.784  13.829
45959SOL     OW39708  10.232  10.795   8.385
45959SOL    HW139709  10.205  10.880   8.351
45959SOL    HW239710  10.159  10.766   8.439
45960SOL     OW39711   0.854  14.160   7.860
45960SOL    HW139712   0.922  14.226   7.861
45960SOL    HW239713   0.898  14.080   7.832
45961SOL     OW39714  10.397   6.572   2.170
45961SOL    HW139715  10.315   6.524   2.159
45961SOL    HW239716  10.378   6.660   2.137
45962SOL     OW39717   7.399   6.370   1.400
45962SOL    HW139718   7.314   6.328   1.391
45962SOL    HW239719   7.391   6.451   1.350
45963SOL     OW39720  10.419   3.929   0.418
45963SOL    HW139721  10.448   3.971   0.338
45963SOL    HW239722  10.375   3.999   0.467
45964SOL     OW39723   8.647   0.971   8.007
45964SOL    HW139724   8.556   0.995   7.989
45964SOL    HW239725   8.695   1.053   7.999
45965SOL     OW39726   8.349  12.187  14.159
45965SOL    HW139727   8.440  12.162  14.145
45965SOL    HW239728   8.314  12.120  14.217
45966SOL     OW39729   7.072   0.186   3.232
45966SOL    HW139730   7.085   0.234   3.150
45966SOL    HW239731   7.001   0.233   3.276
45967SOL     OW39732   7.271  11.400   9.115
45967SOL    HW139733   7.252  11.317   9.073
45967SOL    HW239734   7.203  11.459   9.083
45968SOL     OW39735   3.608  10.289   0.152
45968SOL    HW139736   3.694  10.248   0.152
45968SOL    HW239737   3.562  10.250   0.078
45969SOL     OW39738  11.775   3.958  12.814
45969SOL    HW139739  11.848   4.000  12.859
45969SOL    HW239740  11.792   3.864  12.824
45970SOL     OW39741  14.607   8.500   6.463
45970SOL    HW139742  14.519   8.523   6.433
45970SOL    HW239743  14.611   8.405   6.457
45971SOL     OW39744  10.115   8.235   1.993
45971SOL    HW139745  10.197   8.229   2.043
45971SOL    HW239746  10.128   8.308   1.933
45972SOL     OW39747  14.401  10.726   7.758
45972SOL    HW139748  14.311  10.756   7.740
45972SOL    HW239749  14.456  10.789   7.712
45973SOL     OW39750  12.234  12.621  12.424
45973SOL    HW139751  12.238  12.529  12.400
45973SOL    HW239752  12.324  12.645  12.445
45974SOL     OW39753  12.892   0.122   1.662
45974SOL    HW139754  12.906   0.053   1.727
45974SOL    HW239755  12.969   0.117   1.605
45975SOL     OW39756   8.712   1.441   3.397
45975SOL    HW139757   8.687   1.383   3.469
45975SOL    HW239758   8.652   1.515   3.404
45976SOL     OW39759   5.140  13.889  10.927
45976SOL    HW139760   5.153  13.818  10.990
45976SOL    HW239761   5.047  13.887  10.908
45977SOL     OW39762   3.789   4.082   5.482
45977SOL    HW139763   3.782   3.990   5.454
45977SOL    HW239764   3.704   4.101   5.523
45978SOL     OW39765  12.177  14.648   6.204
45978SOL    HW139766  12.126  14.593   6.263
45978SOL    HW239767  12.185  14.596   6.124
45979SOL     OW39768  10.085  10.177  12.601
45979SOL    HW139769  10.035  10.255  12.624
45979SOL    HW239770  10.020  10.108  12.593
45980SOL     OW39771  13.018   6.602   8.347
45980SOL    HW139772  13.028   6.517   8.305
45980SOL    HW239773  12.937   6.637   8.312
45981SOL     OW39774   6.443  12.168  11.986
45981SOL    HW139775   6.462  12.141  12.075
45981SOL    HW239776   6.413  12.089  11.942
45982SOL     OW39777   5.368   1.390   9.467
45982SOL    HW139778   5.344   1.343   9.547
45982SOL    HW239779   5.284   1.421   9.432
45983SOL     OW39780   7.958   5.290  12.432
45983SOL    HW139781   7.868   5.261  12.446
45983SOL    HW239782   7.966   5.371  12.483
45984SOL     OW39783   6.102  10.769   5.778
45984SOL    HW139784   6.014  10.804   5.786
45984SOL    HW239785   6.109  10.704   5.848
45985SOL     OW39786   0.872   3.898  14.644
45985SOL    HW139787   0.837   3.813  14.616
45985SOL    HW239788   0.843   3.959  14.576
45986SOL     OW39789   9.542   7.824  10.043
45986SOL    HW139790   9.587   7.788   9.967
45986SOL    HW239791   9.449   7.803  10.029
45987SOL     OW39792  10.342   6.874   0.194
45987SOL    HW139793  10.309   6.962   0.213
45987SOL    HW239794  10.294   6.847   0.116
45988SOL     OW39795  14.504   3.291  12.134
45988SOL    HW139796  14.518   3.208  12.179
45988SOL    HW239797  14.409   3.301  12.131
45989SOL     OW39798   7.816  10.985   7.919
45989SOL    HW139799   7.895  11.000   7.971
45989SOL    HW239800   7.756  10.940   7.979
45990SOL     OW39801   5.529   7.331   8.273
45990SOL    HW139802   5.603   7.272   8.284
45990SOL    HW239803   5.505   7.355   8.363
45991SOL     OW39804   7.126   5.000  10.369
45991SOL    HW139805   7.160   4.963  10.450
45991SOL    HW239806   7.057   5.061  10.398
45992SOL     OW39807   1.144   9.767  12.624
45992SOL    HW139808   1.119   9.769  12.716
45992SOL    HW239809   1.144   9.859  12.597
45993SOL     OW39810   9.969   5.551  10.607
45993SOL    HW139811   9.877   5.524  10.600
45993SOL    HW239812  10.018   5.469  10.608
45994SOL     OW39813   3.681   3.143   1.662
45994SOL    HW139814   3.670   3.170   1.753
45994SOL    HW239815   3.599   3.167   1.620
45995SOL     OW39816  12.598   7.453  11.742
45995SOL    HW139817  12.601   7.533  11.689
45995SOL    HW239818  12.586   7.484  11.831
45996SOL     OW39819   9.447   8.333  13.426
45996SOL    HW139820   9.483   8.283  13.353
45996SOL    HW239821   9.460   8.277  13.503
45997SOL     OW39822  11.341  11.767  11.631
45997SOL    HW139823  11.275  11.730  11.572
45997SOL    HW239824  11.333  11.861  11.619
45998SOL     OW39825   3.164  11.424   5.706
45998SOL    HW139826   3.238  11.366   5.721
45998SOL    HW239827   3.090  11.366   5.693
45999SOL     OW39828   3.004  14.317   2.136
45999SOL    HW139829   2.995  14.299   2.230
45999SOL    HW239830   2.924  14.282   2.097
46000SOL     OW39831   7.297  14.830  14.260
46000SOL    HW139832   7.356  14.777  14.205
46000SOL    HW239833   7.214  14.782  14.259
46001SOL     OW39834   9.235   5.958   0.003
46001SOL    HW139835   9.190   5.910   0.073
46001SOL    HW239836   9.328   5.940   0.017
46002SOL     OW39837  13.605  11.056   9.064
46002SOL    HW139838  13.519  11.015   9.048
46002SOL    HW239839  13.584  11.142   9.099
46003SOL     OW39840  10.360   6.803   1.542
46003SOL    HW139841  10.297   6.744   1.501
46003SOL    HW239842  10.307   6.872   1.580
46004SOL     OW39843  11.926  14.245   2.308
46004SOL    HW139844  12.001  14.212   2.358
46004SOL    HW239845  11.853  14.191   2.337
46005SOL     OW39846  10.494   8.233   0.468
46005SOL    HW139847  10.506   8.209   0.560
46005SOL    HW239848  10.520   8.155   0.419
46006SOL     OW39849   6.888  12.118  11.024
46006SOL    HW139850   6.892  12.190  10.962
46006SOL    HW239851   6.934  12.151  11.101
46007SOL     OW39852   0.260  11.173   3.446
46007SOL    HW139853   0.299  11.180   3.359
46007SOL    HW239854   0.298  11.246   3.495
46008SOL     OW39855   8.096   4.916   9.728
46008SOL    HW139856   8.066   4.844   9.672
46008SOL    HW239857   8.131   4.873   9.806
46009SOL     OW39858   8.090   1.998  11.437
46009SOL    HW139859   8.164   2.011  11.496
46009SOL    HW239860   8.074   1.904  11.437
46010SOL     OW39861   7.696  14.826   4.536
46010SOL    HW139862   7.631  14.877   4.583
46010SOL    HW239863   7.645  14.776   4.472
46011SOL     OW39864  14.652  11.075   8.327
46011SOL    HW139865  14.687  11.089   8.239
46011SOL    HW239866  14.582  11.139   8.335
46012SOL     OW39867   0.281   7.091   9.266
46012SOL    HW139868   0.239   7.008   9.244
46012SOL    HW239869   0.284   7.091   9.362
46013SOL     OW39870  10.089   6.372   5.248
46013SOL    HW139871  10.164   6.432   5.249
46013SOL    HW239872  10.042   6.392   5.168
46014SOL     OW39873   8.353   1.156   5.277
46014SOL    HW139874   8.345   1.148   5.372
46014SOL    HW239875   8.333   1.068   5.244
46015SOL     OW39876   6.020   1.733   2.246
46015SOL    HW139877   5.936   1.774   2.225
46015SOL    HW239878   6.016   1.647   2.204
46016SOL     OW39879  13.138   3.376   4.979
46016SOL    HW139880  13.160   3.363   5.071
46016SOL    HW239881  13.090   3.458   4.976
46017SOL     OW39882  12.982   3.650   8.614
46017SOL    HW139883  12.945   3.571   8.575
46017SOL    HW239884  12.932   3.722   8.575
46018SOL     OW39885   2.706  13.891  11.202
46018SOL    HW139886   2.724  13.942  11.123
46018SOL    HW239887   2.618  13.919  11.228
46019SOL     OW39888   0.924   2.174  11.635
46019SOL    HW139889   0.850   2.235  11.633
46019SOL    HW239890   0.956   2.178  11.725
46020SOL     OW39891  12.810   6.908   7.142
46020SOL    HW139892  12.793   6.829   7.091
46020SOL    HW239893  12.754   6.975   7.102
46021SOL     OW39894   1.059   5.265   1.234
46021SOL    HW139895   0.995   5.194   1.229
46021SOL    HW239896   1.083   5.283   1.143
46022SOL     OW39897   0.341   8.738   7.616
46022SOL    HW139898   0.320   8.672   7.550
46022SOL    HW239899   0.436   8.749   7.608
46023SOL     OW39900  12.837  13.292   3.602
46023SOL    HW139901  12.839  13.228   3.531
46023SOL    HW239902  12.890  13.253   3.672
46024SOL     OW39903  13.282   2.282   5.756
46024SOL    HW139904  13.354   2.293   5.818
46024SOL    HW239905  13.284   2.362   5.703
46025SOL     OW39906   6.568   0.783   1.698
46025SOL    HW139907   6.606   0.783   1.786
46025SOL    HW239908   6.504   0.854   1.700
46026SOL     OW39909   2.078  10.777   5.171
46026SOL    HW139910   2.100  10.746   5.083
46026SOL    HW239911   2.163  10.785   5.215
46027SOL     OW39912   6.447   7.459  12.709
46027SOL    HW139913   6.514   7.446  12.642
46027SOL    HW239914   6.491   7.509  12.778
46028SOL     OW39915  12.743   5.467  13.404
46028SOL    HW139916  12.794   5.395  13.367
46028SOL    HW239917  12.710   5.434  13.487
46029SOL     OW39918   8.707   7.761   7.498
46029SOL    HW139919   8.708   7.783   7.405
46029SOL    HW239920   8.718   7.666   7.500
46030SOL     OW39921  11.359   6.054   1.677
46030SOL    HW139922  11.273   6.070   1.638
46030SOL    HW239923  11.392   6.141   1.699
46031SOL     OW39924  12.845  14.501   6.983
46031SOL    HW139925  12.782  14.520   7.052
46031SOL    HW239926  12.866  14.408   6.993
46032SOL     OW39927   0.399   0.274  13.048
46032SOL    HW139928   0.325   0.319  13.006
46032SOL    HW239929   0.468   0.274  12.982
46033SOL     OW39930   1.669  13.604  12.396
46033SOL    HW139931   1.623  13.598  12.479
46033SOL    HW239932   1.723  13.525  12.392
46034SOL     OW39933  13.451   1.714   7.752
46034SOL    HW139934  13.408   1.669   7.824
46034SOL    HW239935  13.466   1.803   7.785
46035SOL     OW39936   3.004  14.852   6.950
46035SOL    HW139937   2.939   0.014   7.004
46035SOL    HW239938   3.086   0.016   6.969
46036SOL     OW39939  10.571  11.020  14.041
46036SOL    HW139940  10.656  11.063  14.049
46036SOL    HW239941  10.586  10.931  14.072
46037SOL     OW39942   0.753   6.718  13.539
46037SOL    HW139943   0.780   6.690  13.451
46037SOL    HW239944   0.825   6.774  13.569
46038SOL     OW39945   3.148  11.431   8.458
46038SOL    HW139946   3.101  11.452   8.538
46038SOL    HW239947   3.210  11.362   8.484
46039SOL     OW39948  14.444   2.357   1.634
46039SOL    HW139949  14.387   2.397   1.569
46039SOL    HW239950  14.514   2.421   1.647
46040SOL     OW39951   2.782   2.438   9.749
46040SOL    HW139952   2.794   2.474   9.836
46040SOL    HW239953   2.850   2.479   9.696
46041SOL     OW39954  14.633   2.572   1.656
46041SOL    HW139955  14.689   2.554   1.580
46041SOL    HW239956  14.692   2.565   1.731
46042SOL     OW39957  12.180  13.688   1.436
46042SOL    HW139958  12.142  13.775   1.437
46042SOL    HW239959  12.232  13.684   1.517
46043SOL     OW39960  13.255   4.180   5.805
46043SOL    HW139961  13.319   4.250   5.798
46043SOL    HW239962  13.182   4.207   5.749
46044SOL     OW39963  13.279   3.022   9.503
46044SOL    HW139964  13.363   2.978   9.491
46044SOL    HW239965  13.282   3.097   9.443
46045SOL     OW39966   3.220   3.817   7.761
46045SOL    HW139967   3.170   3.789   7.685
46045SOL    HW239968   3.175   3.897   7.791
46046SOL     OW39969  14.821   8.367   3.428
46046SOL    HW139970  14.830   8.340   3.336
46046SOL    HW239971  14.804   8.286   3.475
46047SOL     OW39972   8.262   0.138  12.027
46047SOL    HW139973   8.357   0.132  12.035
46047SOL    HW239974   8.230   0.051  12.051
46048SOL     OW39975  14.502  13.239   4.303
46048SOL    HW139976  14.548  13.262   4.384
46048SOL    HW239977  14.450  13.317   4.282
46049SOL     OW39978   6.657  14.041   0.242
46049SOL    HW139979   6.699  14.010   0.162
46049SOL    HW239980   6.565  14.051   0.218
46050SOL     OW39981   0.665   3.784   4.236
46050SOL    HW139982   0.691   3.843   4.308
46050SOL    HW239983   0.570   3.779   4.244
46051SOL     OW39984   9.760  12.682   6.566
46051SOL    HW139985   9.818  12.756   6.548
46051SOL    HW239986   9.809  12.628   6.629
46052SOL     OW39987  10.327   4.009  14.136
46052SOL    HW139988  10.304   4.099  14.158
46052SOL    HW239989  10.265   3.956  14.186
46053SOL     OW39990  12.709  10.696   9.414
46053SOL    HW139991  12.632  10.744   9.384
46053SOL    HW239992  12.716  10.622   9.353
46054SOL     OW39993   5.965   9.143   1.823
46054SOL    HW139994   5.891   9.097   1.783
46054SOL    HW239995   6.018   9.172   1.748
46055SOL     OW39996   8.022   9.057   5.578
46055SOL    HW139997   7.953   8.992   5.589
46055SOL    HW239998   7.982   9.126   5.526
46056SOL     OW39999   8.071  12.342   7.485
46056SOL    HW140000   8.110  12.356   7.571
46056SOL    HW240001   8.142  12.357   7.423
46057SOL     OW40002   8.888  11.301   5.576
46057SOL    HW140003   8.818  11.236   5.579
46057SOL    HW240004   8.943  11.280   5.652
46058SOL     OW40005   8.789   6.537  10.963
46058SOL    HW140006   8.792   6.528  10.868
46058SOL    HW240007   8.861   6.596  10.984
46059SOL     OW40008   7.676   9.600   5.020
46059SOL    HW140009   7.609   9.616   5.087
46059SOL    HW240010   7.759   9.612   5.066
46060SOL     OW40011   5.841   3.270   0.537
46060SOL    HW140012   5.856   3.322   0.616
46060SOL    HW240013   5.854   3.330   0.465
46061SOL     OW40014   4.292   2.237   6.121
46061SOL    HW140015   4.197   2.236   6.121
46061SOL    HW240016   4.316   2.269   6.034
46062SOL     OW40017  10.745   7.145  11.552
46062SOL    HW140018  10.745   7.050  11.547
46062SOL    HW240019  10.834   7.168  11.577
46063SOL     OW40020   6.171  10.013   4.719
46063SOL    HW140021   6.173  10.084   4.655
46063SOL    HW240022   6.259   9.975   4.716
46064SOL     OW40023  12.625   8.486   3.936
46064SOL    HW140024  12.545   8.518   3.978
46064SOL    HW240025  12.595   8.415   3.880
46065SOL     OW40026  14.378   7.963  11.175
46065SOL    HW140027  14.443   7.996  11.236
46065SOL    HW240028  14.333   7.893  11.223
46066SOL     OW40029   1.257   1.381  13.324
46066SOL    HW140030   1.221   1.462  13.285
46066SOL    HW240031   1.320   1.412  13.388
46067SOL     OW40032   5.108   4.506   3.280
46067SOL    HW140033   5.016   4.478   3.281
46067SOL    HW240034   5.116   4.562   3.357
46068SOL     OW40035  10.404   2.529   0.772
46068SOL    HW140036  10.462   2.463   0.733
46068SOL    HW240037  10.349   2.558   0.699
46069SOL     OW40038   4.460   9.575   9.486
46069SOL    HW140039   4.526   9.608   9.425
46069SOL    HW240040   4.504   9.504   9.534
46070SOL     OW40041   2.887   3.861   7.391
46070SOL    HW140042   2.894   3.918   7.315
46070SOL    HW240043   2.934   3.907   7.461
46071SOL     OW40044   7.178  13.718  13.142
46071SOL    HW140045   7.249  13.759  13.094
46071SOL    HW240046   7.206  13.627  13.154
46072SOL     OW40047   7.281   4.892   6.228
46072SOL    HW140048   7.236   4.807   6.230
46072SOL    HW240049   7.215   4.954   6.197
46073SOL     OW40050  11.764   9.347  10.810
46073SOL    HW140051  11.801   9.434  10.823
46073SOL    HW240052  11.764   9.335  10.715
46074SOL     OW40053  13.136   1.090   7.727
46074SOL    HW140054  13.079   1.076   7.651
46074SOL    HW240055  13.161   1.182   7.722
46075SOL     OW40056   6.432  13.627  14.871
46075SOL    HW140057   6.356  13.610  14.815
46075SOL    HW240058   6.506  13.586  14.825
46076SOL     OW40059   7.491   6.829   1.760
46076SOL    HW140060   7.575   6.784   1.757
46076SOL    HW240061   7.449   6.797   1.841
46077SOL     OW40062   0.397  11.788   7.296
46077SOL    HW140063   0.379  11.852   7.227
46077SOL    HW240064   0.440  11.715   7.252
46078SOL     OW40065   3.777  12.220   4.098
46078SOL    HW140066   3.717  12.234   4.171
46078SOL    HW240067   3.816  12.134   4.115
46079SOL     OW40068   6.474   4.047  11.974
46079SOL    HW140069   6.528   4.085  12.043
46079SOL    HW240070   6.512   3.960  11.959
46080SOL     OW40071   4.449   0.686   5.464
46080SOL    HW140072   4.365   0.732   5.454
46080SOL    HW240073   4.453   0.662   5.556
46081SOL     OW40074   9.128   0.072  10.702
46081SOL    HW140075   9.112  14.861  10.721
46081SOL    HW240076   9.164   0.106  10.784
46082SOL     OW40077   6.409  12.280   7.322
46082SOL    HW140078   6.416  12.239   7.236
46082SOL    HW240079   6.317  12.303   7.331
46083SOL     OW40080   3.920   7.624   6.950
46083SOL    HW140081   3.862   7.561   6.992
46083SOL    HW240082   4.007   7.587   6.959
46084SOL     OW40083   9.230   2.462   6.132
46084SOL    HW140084   9.310   2.448   6.082
46084SOL    HW240085   9.249   2.540   6.185
46085SOL     OW40086   2.153   0.509   6.342
46085SOL    HW140087   2.203   0.576   6.389
46085SOL    HW240088   2.061   0.528   6.363
46086SOL     OW40089   0.784   1.544   8.310
46086SOL    HW140090   0.824   1.553   8.223
46086SOL    HW240091   0.858   1.549   8.370
46087SOL     OW40092   6.080  14.007  10.370
46087SOL    HW140093   6.138  13.987  10.296
46087SOL    HW240094   6.019  13.933  10.372
46088SOL     OW40095   8.941   7.572   2.013
46088SOL    HW140096   8.972   7.638   1.951
46088SOL    HW240097   8.976   7.600   2.098
46089SOL     OW40098  11.250  10.428  13.041
46089SOL    HW140099  11.221  10.519  13.047
46089SOL    HW240100  11.330  10.432  12.989
46090SOL     OW40101   3.194   9.171  13.121
46090SOL    HW140102   3.133   9.228  13.074
46090SOL    HW240103   3.139   9.125  13.185
46091SOL     OW40104  12.020  12.597  10.936
46091SOL    HW140105  12.075  12.523  10.910
46091SOL    HW240106  12.075  12.674  10.921
46092SOL     OW40107   6.186   6.772   1.622
46092SOL    HW140108   6.104   6.742   1.662
46092SOL    HW240109   6.250   6.766   1.693
46093SOL     OW40110   9.307  13.290   1.703
46093SOL    HW140111   9.285  13.325   1.617
46093SOL    HW240112   9.299  13.195   1.694
46094SOL     OW40113  10.137   2.367   0.183
46094SOL    HW140114  10.227   2.349   0.212
46094SOL    HW240115  10.108   2.438   0.240
46095SOL     OW40116   7.190   4.520  12.688
46095SOL    HW140117   7.182   4.426  12.667
46095SOL    HW240118   7.196   4.523  12.783
46096SOL     OW40119   7.236   4.019   7.802
46096SOL    HW140120   7.236   4.018   7.897
46096SOL    HW240121   7.323   4.053   7.778
46097SOL     OW40122   3.836  12.602  12.438
46097SOL    HW140123   3.814  12.512  12.461
46097SOL    HW240124   3.798  12.655  12.508
46098SOL     OW40125  14.194   7.936   2.082
46098SOL    HW140126  14.234   7.955   1.997
46098SOL    HW240127  14.180   8.022   2.122
46099SOL     OW40128   8.303   6.327   9.069
46099SOL    HW140129   8.275   6.365   9.153
46099SOL    HW240130   8.248   6.371   9.004
46100SOL     OW40131   0.615   7.429   0.113
46100SOL    HW140132   0.704   7.458   0.130
46100SOL    HW240133   0.625   7.341   0.077
46101SOL     OW40134  14.229   6.627   5.452
46101SOL    HW140135  14.148   6.595   5.412
46101SOL    HW240136  14.248   6.708   5.404
46102SOL     OW40137   2.317  12.647   7.836
46102SOL    HW140138   2.253  12.662   7.767
46102SOL    HW240139   2.267  12.651   7.917
46103SOL     OW40140  13.634  12.950   7.282
46103SOL    HW140141  13.568  12.886   7.256
46103SOL    HW240142  13.588  13.008   7.343
46104SOL     OW40143  14.621   7.464  10.972
46104SOL    HW140144  14.578   7.409  10.907
46104SOL    HW240145  14.714   7.444  10.964
46105SOL     OW40146  12.751   4.386  11.621
46105SOL    HW140147  12.664   4.420  11.599
46105SOL    HW240148  12.739   4.344  11.706
46106SOL     OW40149   3.790   9.475   3.317
46106SOL    HW140150   3.773   9.556   3.269
46106SOL    HW240151   3.704   9.437   3.332
46107SOL     OW40152   5.515   8.447   1.659
46107SOL    HW140153   5.486   8.361   1.630
46107SOL    HW240154   5.597   8.462   1.613
46108SOL     OW40155   0.437  12.930   1.852
46108SOL    HW140156   0.439  12.882   1.935
46108SOL    HW240157   0.394  13.013   1.873
46109SOL     OW40158   3.458  14.849   5.339
46109SOL    HW140159   3.450  14.840   5.244
46109SOL    HW240160   3.445  14.761   5.372
46110SOL     OW40161  13.855  14.655  12.606
46110SOL    HW140162  13.898  14.581  12.651
46110SOL    HW240163  13.927  14.706  12.570
46111SOL     OW40164  11.948   9.803   9.677
46111SOL    HW140165  11.981   9.779   9.763
46111SOL    HW240166  11.861   9.763   9.672
46112SOL     OW40167   8.384   2.864   6.008
46112SOL    HW140168   8.290   2.868   5.993
46112SOL    HW240169   8.401   2.931   6.074
46113SOL     OW40170   3.292   4.210   7.521
46113SOL    HW140171   3.301   4.212   7.425
46113SOL    HW240172   3.370   4.256   7.553
46114SOL     OW40173   4.182   0.427   9.909
46114SOL    HW140174   4.251   0.452   9.970
46114SOL    HW240175   4.228   0.389   9.835
46115SOL     OW40176   5.504   9.075   0.757
46115SOL    HW140177   5.523   9.167   0.772
46115SOL    HW240178   5.587   9.030   0.777
46116SOL     OW40179  14.083   1.982   7.832
46116SOL    HW140180  14.097   2.038   7.908
46116SOL    HW240181  13.988   1.978   7.821
46117SOL     OW40182   7.321  11.761   3.249
46117SOL    HW140183   7.398  11.815   3.263
46117SOL    HW240184   7.296  11.777   3.157
46118SOL     OW40185  12.921   0.629   5.256
46118SOL    HW140186  12.895   0.561   5.319
46118SOL    HW240187  12.916   0.711   5.305
46119SOL     OW40188   6.299   8.248   8.907
46119SOL    HW140189   6.341   8.330   8.932
46119SOL    HW240190   6.338   8.227   8.821
46120SOL     OW40191   1.301  12.213  14.795
46120SOL    HW140192   1.334  12.291  14.840
46120SOL    HW240193   1.235  12.177  14.855
46121SOL     OW40194   4.685   1.050   8.581
46121SOL    HW140195   4.702   1.058   8.675
46121SOL    HW240196   4.735   0.973   8.554
46122SOL     OW40197  10.953   8.609  12.077
46122SOL    HW140198  10.901   8.685  12.052
46122SOL    HW240199  10.927   8.540  12.016
46123SOL     OW40200   2.825   3.908  10.004
46123SOL    HW140201   2.818   3.840  10.071
46123SOL    HW240202   2.886   3.872   9.939
46124SOL     OW40203  12.053   7.715   7.873
46124SOL    HW140204  12.088   7.627   7.862
46124SOL    HW240205  12.016   7.737   7.787
46125SOL     OW40206  11.807  14.853   4.994
46125SOL    HW140207  11.740  14.850   5.061
46125SOL    HW240208  11.888  14.829   5.039
46126SOL     OW40209  11.767   7.463  14.015
46126SOL    HW140210  11.795   7.522  14.085
46126SOL    HW240211  11.736   7.384  14.060
46127SOL     OW40212   7.464   3.040   4.304
46127SOL    HW140213   7.394   3.005   4.250
46127SOL    HW240214   7.454   2.996   4.388
46128SOL     OW40215  10.483   9.088   9.835
46128SOL    HW140216  10.453   9.146   9.905
46128SOL    HW240217  10.430   9.009   9.845
46129SOL     OW40218   0.989  14.556   1.172
46129SOL    HW140219   1.001  14.650   1.159
46129SOL    HW240220   1.042  14.535   1.248
46130SOL     OW40221   2.938  11.657   7.389
46130SOL    HW140222   2.966  11.638   7.478
46130SOL    HW240223   2.887  11.580   7.363
46131SOL     OW40224   2.758   5.345   5.341
46131SOL    HW140225   2.684   5.293   5.311
46131SOL    HW240226   2.827   5.281   5.360
46132SOL     OW40227  14.334  10.940   1.507
46132SOL    HW140228  14.363  10.880   1.576
46132SOL    HW240229  14.411  10.992   1.486
46133SOL     OW40230  11.987   4.572  14.090
46133SOL    HW140231  12.028   4.638  14.146
46133SOL    HW240232  11.957   4.621  14.013
46134SOL     OW40233   0.218  10.212   3.983
46134SOL    HW140234   0.220  10.178   4.073
46134SOL    HW240235   0.286  10.279   3.981
46135SOL     OW40236   6.032  11.666   3.556
46135SOL    HW140237   6.124  11.676   3.579
46135SOL    HW240238   6.029  11.584   3.507
46136SOL     OW40239  12.678  12.566   7.065
46136SOL    HW140240  12.610  12.587   7.129
46136SOL    HW240241  12.760  12.575   7.114
46137SOL     OW40242   9.641   2.811   9.210
46137SOL    HW140243   9.586   2.733   9.208
46137SOL    HW240244   9.704   2.794   9.281
46138SOL     OW40245  12.754   8.697  14.246
46138SOL    HW140246  12.669   8.654  14.252
46138SOL    HW240247  12.812   8.642  14.298
46139SOL     OW40248   2.447  13.468   6.843
46139SOL    HW140249   2.531  13.486   6.799
46139SOL    HW240250   2.460  13.500   6.933
46140SOL     OW40251   2.911   8.740  11.318
46140SOL    HW140252   3.006   8.748  11.310
46140SOL    HW240253   2.891   8.658  11.272
46141SOL     OW40254   7.635   9.188   6.713
46141SOL    HW140255   7.686   9.198   6.633
46141SOL    HW240256   7.595   9.274   6.727
46142SOL     OW40257  10.016   6.879   5.798
46142SOL    HW140258   9.967   6.951   5.758
46142SOL    HW240259   9.957   6.804   5.791
46143SOL     OW40260  10.761   1.266   7.969
46143SOL    HW140261  10.709   1.188   7.986
46143SOL    HW240262  10.852   1.236   7.973
46144SOL     OW40263   6.440  10.103   2.766
46144SOL    HW140264   6.359  10.099   2.716
46144SOL    HW240265   6.506  10.133   2.703
46145SOL     OW40266   4.281  14.639  12.952
46145SOL    HW140267   4.361  14.652  13.004
46145SOL    HW240268   4.313  14.623  12.863
46146SOL     OW40269  13.578   6.094   9.338
46146SOL    HW140270  13.486   6.104   9.315
46146SOL    HW240271  13.583   6.007   9.378
46147SOL     OW40272   0.809   8.461   3.895
46147SOL    HW140273   0.844   8.421   3.975
46147SOL    HW240274   0.745   8.397   3.862
46148SOL     OW40275   5.437   3.179   4.890
46148SOL    HW140276   5.356   3.130   4.878
46148SOL    HW240277   5.426   3.258   4.837
46149SOL     OW40278  14.826   0.168  11.743
46149SOL    HW140279  14.780   0.236  11.791
46149SOL    HW240280   0.023   0.210  11.710
46150SOL     OW40281   2.963   3.564   3.972
46150SOL    HW140282   2.919   3.520   4.045
46150SOL    HW240283   2.897   3.569   3.903
46151SOL     OW40284   3.076   7.391   9.473
46151SOL    HW140285   3.112   7.320   9.526
46151SOL    HW240286   3.091   7.470   9.525
46152SOL     OW40287  11.287   8.585  13.268
46152SOL    HW140288  11.195   8.607  13.284
46152SOL    HW240289  11.285   8.528  13.191
46153SOL     OW40290   6.899  14.827   0.648
46153SOL    HW140291   6.916   0.020   0.590
46153SOL    HW240292   6.803  14.824   0.653
46154SOL     OW40293  14.791   9.060  12.140
46154SOL    HW140294  14.789   8.984  12.082
46154SOL    HW240295  14.877   9.057  12.182
46155SOL     OW40296   3.671   8.804   3.605
46155SOL    HW140297   3.757   8.791   3.645
46155SOL    HW240298   3.690   8.834   3.516
46156SOL     OW40299   9.555  13.561   6.572
46156SOL    HW140300   9.603  13.612   6.506
46156SOL    HW240301   9.598  13.582   6.655
46157SOL     OW40302   4.629   6.375   2.324
46157SOL    HW140303   4.699   6.363   2.259
46157SOL    HW240304   4.578   6.448   2.290
46158SOL     OW40305   6.958   6.701   4.747
46158SOL    HW140306   7.017   6.642   4.701
46158SOL    HW240307   7.011   6.740   4.816
46159SOL     OW40308   3.508   1.472   7.148
46159SOL    HW140309   3.573   1.432   7.089
46159SOL    HW240310   3.496   1.561   7.114
46160SOL     OW40311   9.692   0.886   4.941
46160SOL    HW140312   9.633   0.957   4.968
46160SOL    HW240313   9.767   0.894   4.999
46161SOL     OW40314   9.331   1.879   3.285
46161SOL    HW140315   9.383   1.851   3.210
46161SOL    HW240316   9.303   1.797   3.327
46162SOL     OW40317  10.292   1.814   2.928
46162SOL    HW140318  10.338   1.738   2.964
46162SOL    HW240319  10.330   1.889   2.973
46163SOL     OW40320   6.843   1.674   7.507
46163SOL    HW140321   6.888   1.752   7.539
46163SOL    HW240322   6.894   1.601   7.543
46164SOL     OW40323   3.464   2.405   2.160
46164SOL    HW140324   3.559   2.398   2.166
46164SOL    HW240325   3.446   2.410   2.066
46165SOL     OW40326  11.619  14.434   5.834
46165SOL    HW140327  11.579  14.520   5.842
46165SOL    HW240328  11.699  14.449   5.784
46166SOL     OW40329   1.087  10.716  14.351
46166SOL    HW140330   1.018  10.782  14.345
46166SOL    HW240331   1.109  10.712  14.444
46167SOL     OW40332   1.376  14.165   7.358
46167SOL    HW140333   1.329  14.186   7.439
46167SOL    HW240334   1.385  14.070   7.360
46168SOL     OW40335   2.005   3.101  13.988
46168SOL    HW140336   1.912   3.079  13.978
46168SOL    HW240337   2.051   3.040  13.931
46169SOL     OW40338  10.645   6.099   6.488
46169SOL    HW140339  10.700   6.174   6.465
46169SOL    HW240340  10.707   6.031   6.514
46170SOL     OW40341   0.072   4.252   1.144
46170SOL    HW140342   0.041   4.161   1.149
46170SOL    HW240343   0.161   4.244   1.110
46171SOL     OW40344  13.226  12.705  12.050
46171SOL    HW140345  13.252  12.621  12.013
46171SOL    HW240346  13.132  12.696  12.064
46172SOL     OW40347  10.939  12.394   3.842
46172SOL    HW140348  11.026  12.367   3.874
46172SOL    HW240349  10.923  12.337   3.767
46173SOL     OW40350  12.639   7.883  11.397
46173SOL    HW140351  12.711   7.911  11.340
46173SOL    HW240352  12.624   7.957  11.456
46174SOL     OW40353  11.913   2.706  13.599
46174SOL    HW140354  11.979   2.775  13.604
46174SOL    HW240355  11.952   2.632  13.645
46175SOL     OW40356   4.406   2.633   9.587
46175SOL    HW140357   4.334   2.578   9.555
46175SOL    HW240358   4.467   2.572   9.627
46176SOL     OW40359  11.673   2.482   6.753
46176SOL    HW140360  11.598   2.480   6.812
46176SOL    HW240361  11.745   2.445   6.805
46177SOL     OW40362   9.413   2.555   5.221
46177SOL    HW140363   9.507   2.553   5.239
46177SOL    HW240364   9.406   2.531   5.129
46178SOL     OW40365   8.757   6.500  13.427
46178SOL    HW140366   8.737   6.451  13.348
46178SOL    HW240367   8.676   6.500  13.477
46179SOL     OW40368   5.827   5.546  12.612
46179SOL    HW140369   5.810   5.551  12.517
46179SOL    HW240370   5.743   5.518  12.649
46180SOL     OW40371  13.237   2.424   1.509
46180SOL    HW140372  13.187   2.412   1.428
46180SOL    HW240373  13.214   2.348   1.563
46181SOL     OW40374   9.623  10.474  14.017
46181SOL    HW140375   9.710  10.510  13.995
46181SOL    HW240376   9.603  10.415  13.944
46182SOL     OW40377   1.152   8.705  11.967
46182SOL    HW140378   1.120   8.618  11.944
46182SOL    HW240379   1.205   8.732  11.892
46183SOL     OW40380  10.905  13.269   6.708
46183SOL    HW140381  10.880  13.226   6.789
46183SOL    HW240382  10.984  13.319   6.730
46184SOL     OW40383  14.287   6.517  14.410
46184SOL    HW140384  14.276   6.507  14.505
46184SOL    HW240385  14.366   6.571  14.401
46185SOL     OW40386   6.985  14.149   2.671
46185SOL    HW140387   7.050  14.120   2.606
46185SOL    HW240388   7.038  14.177   2.746
46186SOL     OW40389   9.663   6.577   7.325
46186SOL    HW140390   9.586   6.523   7.344
46186SOL    HW240391   9.719   6.568   7.402
46187SOL     OW40392   9.513  14.042   2.318
46187SOL    HW140393   9.455  13.982   2.366
46187SOL    HW240394   9.575  13.984   2.273
46188SOL     OW40395   5.406   3.661   8.309
46188SOL    HW140396   5.432   3.740   8.261
46188SOL    HW240397   5.316   3.679   8.337
46189SOL     OW40398   2.362  13.764   3.230
46189SOL    HW140399   2.403  13.678   3.221
46189SOL    HW240400   2.280  13.757   3.181
46190SOL     OW40401  14.690  11.027   4.043
46190SOL    HW140402  14.762  11.046   3.983
46190SOL    HW240403  14.630  11.101   4.034
46191SOL     OW40404   7.600   6.084   9.269
46191SOL    HW140405   7.540   6.049   9.334
46191SOL    HW240406   7.678   6.028   9.277
46192SOL     OW40407  10.619  11.273  13.170
46192SOL    HW140408  10.654  11.253  13.082
46192SOL    HW240409  10.612  11.368  13.172
46193SOL     OW40410   9.577   8.769  10.182
46193SOL    HW140411   9.513   8.765  10.112
46193SOL    HW240412   9.661   8.784  10.138
46194SOL     OW40413   2.423   4.082   5.570
46194SOL    HW140414   2.429   4.005   5.625
46194SOL    HW240415   2.330   4.087   5.545
46195SOL     OW40416   9.495   4.516   4.406
46195SOL    HW140417   9.507   4.502   4.500
46195SOL    HW240418   9.401   4.530   4.396
46196SOL     OW40419   9.585  12.700  11.360
46196SOL    HW140420   9.586  12.738  11.272
46196SOL    HW240421   9.630  12.765  11.414
46197SOL     OW40422   6.184  13.252   9.044
46197SOL    HW140423   6.096  13.239   9.009
46197SOL    HW240424   6.234  13.288   8.971
46198SOL     OW40425   3.195   2.084  12.185
46198SOL    HW140426   3.227   2.085  12.275
46198SOL    HW240427   3.107   2.045  12.191
46199SOL     OW40428   1.102   8.688   3.527
46199SOL    HW140429   1.110   8.595   3.506
46199SOL    HW240430   1.056   8.689   3.611
46200SOL     OW40431   9.682   9.230   0.034
46200SOL    HW140432   9.601   9.242  14.867
46200SOL    HW240433   9.750   9.225  14.849
46201SOL     OW40434   4.486   8.840  14.750
46201SOL    HW140435   4.540   8.885  14.814
46201SOL    HW240436   4.535   8.846  14.668
46202SOL     OW40437   9.422   9.911  14.696
46202SOL    HW140438   9.384   9.986  14.741
46202SOL    HW240439   9.368   9.901  14.617
46203SOL     OW40440  14.549   8.865   8.694
46203SOL    HW140441  14.529   8.837   8.604
46203SOL    HW240442  14.541   8.785   8.746
46204SOL     OW40443   1.042   3.839   7.753
46204SOL    HW140444   0.973   3.845   7.687
46204SOL    HW240445   1.105   3.776   7.717
46205SOL     OW40446   5.251   9.109   1.187
46205SOL    HW140447   5.272   9.015   1.186
46205SOL    HW240448   5.197   9.123   1.110
46206SOL     OW40449   2.469   2.093  13.217
46206SOL    HW140450   2.474   2.188  13.233
46206SOL    HW240451   2.375   2.075  13.210
46207SOL     OW40452   9.923   2.419  14.804
46207SOL    HW140453   9.877   2.369  14.737
46207SOL    HW240454   9.911   2.511  14.778
46208SOL     OW40455   3.423   1.422   7.394
46208SOL    HW140456   3.430   1.329   7.416
46208SOL    HW240457   3.458   1.429   7.305
46209SOL     OW40458   5.414  10.722   4.689
46209SOL    HW140459   5.414  10.631   4.720
46209SOL    HW240460   5.363  10.770   4.754
46210SOL     OW40461   3.198  10.871  11.408
46210SOL    HW140462   3.116  10.920  11.411
46210SOL    HW240463   3.250  10.907  11.481
46211SOL     OW40464   5.900   8.556   0.208
46211SOL    HW140465   5.810   8.551   0.240
46211SOL    HW240466   5.937   8.470   0.226
46212SOL     OW40467   6.290   0.978   6.724
46212SOL    HW140468   6.306   1.052   6.666
46212SOL    HW240469   6.346   0.993   6.800
46213SOL     OW40470   9.152   0.169  11.497
46213SOL    HW140471   9.061   0.166  11.526
46213SOL    HW240472   9.191   0.089  11.531
46214SOL     OW40473   0.292  14.420   5.320
46214SOL    HW140474   0.295  14.328   5.294
46214SOL    HW240475   0.361  14.428   5.387
46215SOL     OW40476   6.894  11.077  11.736
46215SOL    HW140477   6.975  11.084  11.786
46215SOL    HW240478   6.913  11.120  11.652
46216SOL     OW40479  14.410  14.585   0.308
46216SOL    HW140480  14.499  14.619   0.302
46216SOL    HW240481  14.413  14.519   0.377
46217SOL     OW40482   3.901   0.060   9.769
46217SOL    HW140483   3.890   0.126   9.701
46217SOL    HW240484   3.993   0.067   9.794
46218SOL     OW40485   6.531   3.217   7.316
46218SOL    HW140486   6.586   3.201   7.393
46218SOL    HW240487   6.488   3.133   7.301
46219SOL     OW40488   2.957   1.083  13.885
46219SOL    HW140489   2.944   1.083  13.980
46219SOL    HW240490   2.934   0.994  13.858
46220SOL     OW40491   2.211   5.316   3.196
46220SOL    HW140492   2.232   5.323   3.103
46220SOL    HW240493   2.202   5.407   3.225
46221SOL     OW40494   1.368   2.149  10.332
46221SOL    HW140495   1.454   2.121  10.300
46221SOL    HW240496   1.306   2.095  10.283
46222SOL     OW40497  14.816  13.566  10.793
46222SOL    HW140498  14.773  13.531  10.872
46222SOL    HW240499  14.764  13.530  10.720
46223SOL     OW40500   9.163   9.039   7.629
46223SOL    HW140501   9.235   9.103   7.629
46223SOL    HW240502   9.152   9.015   7.537
46224SOL     OW40503   4.076  13.876   0.710
46224SOL    HW140504   4.037  13.789   0.721
46224SOL    HW240505   4.003  13.934   0.692
46225SOL     OW40506   2.065   9.796  12.345
46225SOL    HW140507   2.104   9.877  12.311
46225SOL    HW240508   2.022   9.756  12.269
46226SOL     OW40509  14.603   5.861  11.984
46226SOL    HW140510  14.558   5.852  11.900
46226SOL    HW240511  14.613   5.772  12.016
46227SOL     OW40512   8.984  10.189   4.546
46227SOL    HW140513   8.966  10.170   4.454
46227SOL    HW240514   9.011  10.105   4.584
46228SOL     OW40515   2.650   7.599  11.403
46228SOL    HW140516   2.624   7.686  11.374
46228SOL    HW240517   2.746   7.602  11.404
46229SOL     OW40518   7.197   8.426  13.944
46229SOL    HW140519   7.125   8.490  13.943
46229SOL    HW240520   7.160   8.349  13.900
46230SOL     OW40521   0.046  13.460   7.561
46230SOL    HW140522   0.101  13.512   7.503
46230SOL    HW240523   0.107  13.420   7.623
46231SOL     OW40524  11.651  13.233   8.348
46231SOL    HW140525  11.562  13.198   8.355
46231SOL    HW240526  11.646  13.319   8.392
46232SOL     OW40527  14.373  13.361   0.913
46232SOL    HW140528  14.299  13.383   0.968
46232SOL    HW240529  14.365  13.418   0.837
46233SOL     OW40530   2.626   7.361   9.380
46233SOL    HW140531   2.643   7.322   9.465
46233SOL    HW240532   2.694   7.326   9.323
46234SOL     OW40533  10.455   6.157  11.185
46234SOL    HW140534  10.490   6.138  11.098
46234SOL    HW240535  10.432   6.071  11.220
46235SOL     OW40536   1.558   2.838   0.424
46235SOL    HW140537   1.487   2.859   0.484
46235SOL    HW240538   1.564   2.743   0.426
46236SOL     OW40539   8.691   9.327   6.776
46236SOL    HW140540   8.698   9.233   6.794
46236SOL    HW240541   8.614   9.354   6.827
46237SOL     OW40542   5.733   1.172   3.308
46237SOL    HW140543   5.695   1.120   3.237
46237SOL    HW240544   5.787   1.237   3.263
46238SOL     OW40545   2.646   9.552   2.916
46238SOL    HW140546   2.689   9.583   2.837
46238SOL    HW240547   2.618   9.632   2.961
46239SOL     OW40548   9.686   6.581   1.615
46239SOL    HW140549   9.686   6.504   1.673
46239SOL    HW240550   9.670   6.545   1.528
46240SOL     OW40551  10.632   7.079   6.931
46240SOL    HW140552  10.555   7.039   6.971
46240SOL    HW240553  10.706   7.029   6.965
46241SOL     OW40554   8.452  11.702   9.335
46241SOL    HW140555   8.444  11.627   9.394
46241SOL    HW240556   8.374  11.696   9.279
46242SOL     OW40557   1.973   1.024   9.202
46242SOL    HW140558   2.003   0.961   9.136
46242SOL    HW240559   2.053   1.057   9.242
46243SOL     OW40560  10.453   8.710   1.116
46243SOL    HW140561  10.488   8.773   1.052
46243SOL    HW240562  10.451   8.627   1.069
46244SOL     OW40563   4.757   9.044  12.348
46244SOL    HW140564   4.799   8.974  12.299
46244SOL    HW240565   4.702   9.089  12.285
46245SOL     OW40566   7.136   3.484   1.174
46245SOL    HW140567   7.160   3.479   1.082
46245SOL    HW240568   7.048   3.448   1.178
46246SOL     OW40569   3.307   2.963   0.867
46246SOL    HW140570   3.398   2.933   0.863
46246SOL    HW240571   3.292   3.005   0.783
46247SOL     OW40572   2.629  14.742   3.162
46247SOL    HW140573   2.686  14.667   3.143
46247SOL    HW240574   2.607  14.733   3.255
46248SOL     OW40575   9.090  11.100  10.550
46248SOL    HW140576   9.175  11.136  10.576
46248SOL    HW240577   9.037  11.177  10.531
46249SOL     OW40578   0.439   4.267   3.814
46249SOL    HW140579   0.487   4.227   3.887
46249SOL    HW240580   0.357   4.296   3.853
46250SOL     OW40581   7.251  11.035   5.038
46250SOL    HW140582   7.264  11.088   5.116
46250SOL    HW240583   7.181  10.974   5.061
46251SOL     OW40584  10.897   7.556  11.899
46251SOL    HW140585  10.956   7.542  11.825
46251SOL    HW240586  10.864   7.469  11.920
46252SOL     OW40587  13.314   6.478   2.430
46252SOL    HW140588  13.296   6.386   2.445
46252SOL    HW240589  13.324   6.516   2.517
46253SOL     OW40590   5.235   3.462  11.067
46253SOL    HW140591   5.204   3.411  10.993
46253SOL    HW240592   5.227   3.403  11.142
46254SOL     OW40593  14.264   0.732  10.604
46254SOL    HW140594  14.286   0.640  10.587
46254SOL    HW240595  14.330   0.782  10.556
46255SOL     OW40596   3.958  13.452   0.166
46255SOL    HW140597   3.972  13.415   0.253
46255SOL    HW240598   4.046  13.457   0.128
46256SOL     OW40599   6.973   7.066  10.287
46256SOL    HW140600   6.941   7.097  10.372
46256SOL    HW240601   6.925   6.984  10.272
46257SOL     OW40602   6.373  12.784   0.625
46257SOL    HW140603   6.392  12.691   0.614
46257SOL    HW240604   6.425  12.810   0.701
46258SOL     OW40605  12.983  10.226   8.965
46258SOL    HW140606  12.997  10.260   8.877
46258SOL    HW240607  13.040  10.150   8.971
46259SOL     OW40608   9.317   0.896   4.499
46259SOL    HW140609   9.387   0.853   4.547
46259SOL    HW240610   9.280   0.958   4.561
46260SOL     OW40611   0.485   1.743   5.001
46260SOL    HW140612   0.567   1.774   5.041
46260SOL    HW240613   0.445   1.688   5.068
46261SOL     OW40614  11.916  11.458   6.471
46261SOL    HW140615  11.939  11.369   6.498
46261SOL    HW240616  11.843  11.482   6.527
46262SOL     OW40617   0.773   4.784   2.880
46262SOL    HW140618   0.867   4.797   2.872
46262SOL    HW240619   0.762   4.689   2.891
46263SOL     OW40620  13.136   8.389   2.519
46263SOL    HW140621  13.050   8.346   2.524
46263SOL    HW240622  13.165   8.371   2.429
46264SOL     OW40623   4.733   8.518   7.930
46264SOL    HW140624   4.762   8.473   7.851
46264SOL    HW240625   4.742   8.611   7.910
46265SOL     OW40626  13.182  13.867   2.547
46265SOL    HW140627  13.106  13.840   2.496
46265SOL    HW240628  13.145  13.894   2.631
46266SOL     OW40629  10.815  12.910   9.636
46266SOL    HW140630  10.739  12.872   9.592
46266SOL    HW240631  10.778  12.974   9.697
46267SOL     OW40632  14.671   3.883   1.597
46267SOL    HW140633  14.665   3.888   1.502
46267SOL    HW240634  14.583   3.908   1.627
46268SOL     OW40635   6.196   4.752   4.206
46268SOL    HW140636   6.273   4.707   4.240
46268SOL    HW240637   6.232   4.825   4.154
46269SOL     OW40638   2.237   3.458   3.208
46269SOL    HW140639   2.237   3.435   3.301
46269SOL    HW240640   2.322   3.500   3.194
46270SOL     OW40641   3.546   1.216  11.278
46270SOL    HW140642   3.594   1.177  11.351
46270SOL    HW240643   3.556   1.310  11.291
46271SOL     OW40644  13.630   3.085  11.375
46271SOL    HW140645  13.619   3.048  11.287
46271SOL    HW240646  13.592   3.173  11.369
46272SOL     OW40647   8.242   5.126   4.861
46272SOL    HW140648   8.191   5.207   4.860
46272SOL    HW240649   8.285   5.123   4.776
46273SOL     OW40650   8.468  10.300  12.376
46273SOL    HW140651   8.384  10.257  12.362
46273SOL    HW240652   8.460  10.384  12.330
46274SOL     OW40653   3.598  11.801   9.956
46274SOL    HW140654   3.623  11.881  10.002
46274SOL    HW240655   3.679  11.769   9.916
46275SOL     OW40656   2.066   4.685  14.755
46275SOL    HW140657   1.990   4.695  14.698
46275SOL    HW240658   2.119   4.618  14.713
46276SOL     OW40659   9.142   4.457   1.518
46276SOL    HW140660   9.145   4.490   1.608
46276SOL    HW240661   9.231   4.427   1.501
46277SOL     OW40662   9.423   1.932   1.926
46277SOL    HW140663   9.377   1.948   1.844
46277SOL    HW240664   9.459   1.844   1.917
46278SOL     OW40665   1.371  12.969   4.529
46278SOL    HW140666   1.296  13.018   4.495
46278SOL    HW240667   1.332  12.896   4.577
46279SOL     OW40668   2.604   4.936  11.292
46279SOL    HW140669   2.621   5.013  11.345
46279SOL    HW240670   2.612   4.863  11.353
46280SOL     OW40671   1.560   6.751  12.715
46280SOL    HW140672   1.550   6.825  12.775
46280SOL    HW240673   1.598   6.789  12.636
46281SOL     OW40674   2.753   7.739  11.149
46281SOL    HW140675   2.844   7.712  11.164
46281SOL    HW240676   2.751   7.832  11.173
46282SOL     OW40677   2.667   0.380  14.553
46282SOL    HW140678   2.665   0.410  14.643
46282SOL    HW240679   2.671   0.460  14.501
46283SOL     OW40680  13.161   8.245   3.342
46283SOL    HW140681  13.239   8.199   3.372
46283SOL    HW240682  13.193   8.311   3.281
46284SOL     OW40683   3.429  13.610   2.260
46284SOL    HW140684   3.351  13.659   2.287
46284SOL    HW240685   3.492  13.624   2.331
46285SOL     OW40686   3.867   9.869   2.253
46285SOL    HW140687   3.810   9.793   2.242
46285SOL    HW240688   3.931   9.860   2.181
46286SOL     OW40689   7.056   6.219   2.204
46286SOL    HW140690   6.975   6.180   2.238
46286SOL    HW240691   7.126   6.179   2.256
46287SOL     OW40692   1.353   6.858   0.109
46287SOL    HW140693   1.258   6.868   0.102
46287SOL    HW240694   1.385   6.948   0.123
46288SOL     OW40695   6.486   3.263  12.232
46288SOL    HW140696   6.514   3.314  12.156
46288SOL    HW240697   6.568   3.228  12.269
46289SOL     OW40698   8.510   8.624  10.549
46289SOL    HW140699   8.536   8.573  10.626
46289SOL    HW240700   8.416   8.640  10.562
46290SOL     OW40701   9.053   2.003   8.728
46290SOL    HW140702   8.967   1.974   8.758
46290SOL    HW240703   9.061   1.968   8.639
46291SOL     OW40704   3.070   4.964   8.801
46291SOL    HW140705   3.045   5.034   8.862
46291SOL    HW240706   2.997   4.902   8.804
46292SOL     OW40707   2.980   1.491   3.819
46292SOL    HW140708   2.987   1.399   3.844
46292SOL    HW240709   3.031   1.498   3.739
46293SOL     OW40710   2.623   8.716  13.461
46293SOL    HW140711   2.712   8.687  13.480
46293SOL    HW240712   2.634   8.805  13.428
46294SOL     OW40713   0.238   0.675   1.966
46294SOL    HW140714   0.147   0.656   1.988
46294SOL    HW240715   0.244   0.770   1.968
46295SOL     OW40716   4.748   4.540  14.391
46295SOL    HW140717   4.746   4.494  14.306
46295SOL    HW240718   4.746   4.470  14.456
46296SOL     OW40719  12.094  14.355  10.743
46296SOL    HW140720  12.020  14.370  10.802
46296SOL    HW240721  12.148  14.290  10.789
46297SOL     OW40722   6.098  13.107   2.963
46297SOL    HW140723   6.060  13.081   2.879
46297SOL    HW240724   6.023  13.114   3.022
46298SOL     OW40725   7.962  13.473   2.111
46298SOL    HW140726   7.967  13.418   2.033
46298SOL    HW240727   7.999  13.420   2.181
46299SOL     OW40728   0.923   9.895   4.100
46299SOL    HW140729   0.940   9.801   4.094
46299SOL    HW240730   0.995   9.930   4.151
46300SOL     OW40731   6.610  11.706   8.145
46300SOL    HW140732   6.581  11.674   8.231
46300SOL    HW240733   6.694  11.662   8.130
46301SOL     OW40734  14.644   2.960  14.589
46301SOL    HW140735  14.684   2.910  14.660
46301SOL    HW240736  14.559   2.917  14.574
46302SOL     OW40737  14.258  12.434   6.215
46302SOL    HW140738  14.186  12.470   6.164
46302SOL    HW240739  14.245  12.339   6.210
46303SOL     OW40740   8.105   4.653  13.639
46303SOL    HW140741   8.180   4.661  13.581
46303SOL    HW240742   8.131   4.698  13.719
46304SOL     OW40743  14.783  12.141   2.901
46304SOL    HW140744  14.857  12.084   2.923
46304SOL    HW240745  14.706  12.087   2.920
46305SOL     OW40746   4.071  11.525  11.581
46305SOL    HW140747   4.077  11.569  11.496
46305SOL    HW240748   4.114  11.585  11.642
46306SOL     OW40749  13.053  11.187   3.895
46306SOL    HW140750  12.996  11.140   3.835
46306SOL    HW240751  13.029  11.279   3.884
46307SOL     OW40752  11.787  10.592   2.514
46307SOL    HW140753  11.726  10.559   2.448
46307SOL    HW240754  11.737  10.658   2.562
46308SOL     OW40755  10.124   2.221   4.720
46308SOL    HW140756  10.164   2.139   4.690
46308SOL    HW240757  10.043   2.194   4.762
46309SOL     OW40758   0.777  14.391   2.389
46309SOL    HW140759   0.808  14.461   2.446
46309SOL    HW240760   0.707  14.348   2.438
46310SOL     OW40761   0.665  11.315   2.671
46310SOL    HW140762   0.697  11.353   2.753
46310SOL    HW240763   0.627  11.390   2.623
46311SOL     OW40764   1.614   8.568   3.563
46311SOL    HW140765   1.541   8.551   3.503
46311SOL    HW240766   1.617   8.490   3.619
46312SOL     OW40767   6.978   8.159  11.697
46312SOL    HW140768   6.970   8.254  11.688
46312SOL    HW240769   6.947   8.141  11.786
46313SOL     OW40770   7.942   3.429   1.698
46313SOL    HW140771   7.868   3.490   1.699
46313SOL    HW240772   7.992   3.453   1.620
46314SOL     OW40773  14.318  12.932  10.531
46314SOL    HW140774  14.397  12.985  10.545
46314SOL    HW240775  14.351  12.842  10.523
46315SOL     OW40776  11.871   8.646   9.022
46315SOL    HW140777  11.851   8.738   9.005
46315SOL    HW240778  11.929   8.620   8.950
46316SOL     OW40779  11.537   5.333  11.573
46316SOL    HW140780  11.447   5.340  11.605
46316SOL    HW240781  11.587   5.306  11.650
46317SOL     OW40782   9.643   8.355  14.742
46317SOL    HW140783   9.621   8.355  14.835
46317SOL    HW240784   9.726   8.308  14.737
46318SOL     OW40785   0.386   8.276  14.165
46318SOL    HW140786   0.312   8.325  14.129
46318SOL    HW240787   0.360   8.254  14.255
46319SOL     OW40788  14.455   1.724  14.554
46319SOL    HW140789  14.433   1.814  14.530
46319SOL    HW240790  14.370   1.680  14.563
46320SOL     OW40791  11.333   5.364   5.608
46320SOL    HW140792  11.414   5.362   5.658
46320SOL    HW240793  11.314   5.272   5.589
46321SOL     OW40794   6.774  11.281   0.632
46321SOL    HW140795   6.764  11.204   0.689
46321SOL    HW240796   6.706  11.270   0.565
46322SOL     OW40797   2.486  11.005   9.461
46322SOL    HW140798   2.432  10.946   9.514
46322SOL    HW240799   2.426  11.075   9.435
46323SOL     OW40800  10.905  12.194   0.586
46323SOL    HW140801  10.891  12.245   0.506
46323SOL    HW240802  10.821  12.153   0.604
46324SOL     OW40803   0.567   2.271  11.711
46324SOL    HW140804   0.490   2.278  11.655
46324SOL    HW240805   0.640   2.265  11.650
46325SOL     OW40806   7.141   6.574   9.186
46325SOL    HW140807   7.056   6.617   9.174
46325SOL    HW240808   7.149   6.514   9.112
46326SOL     OW40809   0.455   0.243   7.391
46326SOL    HW140810   0.448   0.207   7.479
46326SOL    HW240811   0.529   0.197   7.352
46327SOL     OW40812   1.288  10.054  14.091
46327SOL    HW140813   1.370  10.101  14.076
46327SOL    HW240814   1.290   9.981  14.030
46328SOL     OW40815   7.460   0.180   9.976
46328SOL    HW140816   7.411   0.134  10.044
46328SOL    HW240817   7.511   0.246  10.023
46329SOL     OW40818   1.067  13.214   0.278
46329SOL    HW140819   1.105  13.175   0.357
46329SOL    HW240820   0.994  13.266   0.309
46330SOL     OW40821  13.731   4.775   1.851
46330SOL    HW140822  13.804   4.750   1.908
46330SOL    HW240823  13.658   4.721   1.881
46331SOL     OW40824   7.944   2.892   6.419
46331SOL    HW140825   7.877   2.859   6.359
46331SOL    HW240826   7.909   2.976   6.450
46332SOL     OW40827   4.165   7.148  10.157
46332SOL    HW140828   4.228   7.171  10.226
46332SOL    HW240829   4.220   7.130  10.080
46333SOL     OW40830   6.041   9.425   5.440
46333SOL    HW140831   5.957   9.459   5.471
46333SOL    HW240832   6.097   9.501   5.434
46334SOL     OW40833   8.181  11.150   0.723
46334SOL    HW140834   8.254  11.200   0.687
46334SOL    HW240835   8.114  11.215   0.744
46335SOL     OW40836   3.112   1.345   9.284
46335SOL    HW140837   3.199   1.313   9.258
46335SOL    HW240838   3.126   1.384   9.370
46336SOL     OW40839   0.817   9.996   4.380
46336SOL    HW140840   0.847   9.983   4.290
46336SOL    HW240841   0.816   9.909   4.419
46337SOL     OW40842  10.365   8.387  10.856
46337SOL    HW140843  10.383   8.456  10.920
46337SOL    HW240844  10.271   8.395  10.838
46338SOL     OW40845   7.942   9.064  14.279
46338SOL    HW140846   7.865   9.053  14.224
46338SOL    HW240847   7.971   8.974  14.299
46339SOL     OW40848   9.668   1.150   0.882
46339SOL    HW140849   9.733   1.205   0.926
46339SOL    HW240850   9.584   1.185   0.911
46340SOL     OW40851   0.242  14.172   5.586
46340SOL    HW140852   0.214  14.083   5.567
46340SOL    HW240853   0.166  14.213   5.627
46341SOL     OW40854   7.713   8.426   3.895
46341SOL    HW140855   7.746   8.353   3.844
46341SOL    HW240856   7.677   8.487   3.831
46342SOL     OW40857   9.062  12.008  13.575
46342SOL    HW140858   9.140  11.979  13.622
46342SOL    HW240859   8.997  11.939  13.590
46343SOL     OW40860  13.770  11.923   5.357
46343SOL    HW140861  13.830  11.860   5.318
46343SOL    HW240862  13.824  11.999   5.378
46344SOL     OW40863  10.105   8.282  11.734
46344SOL    HW140864  10.099   8.202  11.682
46344SOL    HW240865  10.181   8.268  11.791
46345SOL     OW40866   7.129   5.546  12.180
46345SOL    HW140867   7.160   5.459  12.206
46345SOL    HW240868   7.035   5.535  12.166
46346SOL     OW40869  12.610   9.053   9.786
46346SOL    HW140870  12.586   8.965   9.815
46346SOL    HW240871  12.684   9.076   9.841
46347SOL     OW40872   4.034   9.817   2.017
46347SOL    HW140873   4.077   9.900   1.997
46347SOL    HW240874   4.105   9.759   2.045
46348SOL     OW40875   3.650   5.419   8.304
46348SOL    HW140876   3.681   5.495   8.353
46348SOL    HW240877   3.723   5.397   8.245
46349SOL     OW40878  10.875  10.456   0.473
46349SOL    HW140879  10.964  10.461   0.508
46349SOL    HW240880  10.818  10.470   0.549
46350SOL     OW40881   9.719   7.588   2.169
46350SOL    HW140882   9.637   7.627   2.138
46350SOL    HW240883   9.775   7.662   2.189
46351SOL     OW40884   8.800   8.163  14.755
46351SOL    HW140885   8.811   8.154  14.850
46351SOL    HW240886   8.713   8.200  14.744
46352SOL     OW40887   2.851   3.657   5.346
46352SOL    HW140888   2.873   3.670   5.254
46352SOL    HW240889   2.901   3.580   5.372
46353SOL     OW40890   4.192  11.001  11.856
46353SOL    HW140891   4.098  10.982  11.857
46353SOL    HW240892   4.198  11.095  11.873
46354SOL     OW40893   3.799  10.109  14.585
46354SOL    HW140894   3.798  10.189  14.637
46354SOL    HW240895   3.713  10.070  14.598
46355SOL     OW40896  13.098   2.950  11.476
46355SOL    HW140897  13.188   2.923  11.461
46355SOL    HW240898  13.093   3.039  11.442
46356SOL     OW40899   3.541   5.499   1.433
46356SOL    HW140900   3.614   5.552   1.465
46356SOL    HW240901   3.466   5.528   1.485
46357SOL     OW40902   1.312   5.727  13.669
46357SOL    HW140903   1.319   5.698  13.578
46357SOL    HW240904   1.395   5.772  13.686
46358SOL     OW40905   2.768   8.002   3.607
46358SOL    HW140906   2.717   7.930   3.570
46358SOL    HW240907   2.805   8.046   3.531
46359SOL     OW40908   3.139   3.850  11.332
46359SOL    HW140909   3.079   3.777  11.319
46359SOL    HW240910   3.222   3.819  11.296
46360SOL     OW40911   4.205  13.636  13.162
46360SOL    HW140912   4.283  13.603  13.118
46360SOL    HW240913   4.151  13.559  13.178
46361SOL     OW40914   9.106  10.867   8.946
46361SOL    HW140915   9.097  10.960   8.928
46361SOL    HW240916   9.104  10.825   8.860
46362SOL     OW40917   3.497   1.499   9.915
46362SOL    HW140918   3.525   1.585   9.883
46362SOL    HW240919   3.443   1.464   9.845
46363SOL     OW40920  10.760   3.210  13.734
46363SOL    HW140921  10.850   3.182  13.753
46363SOL    HW240922  10.705   3.154  13.789
46364SOL     OW40923  11.946   8.360  11.132
46364SOL    HW140924  11.855   8.383  11.117
46364SOL    HW240925  11.964   8.290  11.070
46365SOL     OW40926  11.051   6.718   5.746
46365SOL    HW140927  10.971   6.666   5.738
46365SOL    HW240928  11.021   6.803   5.778
46366SOL     OW40929   1.848   0.872   3.564
46366SOL    HW140930   1.931   0.842   3.601
46366SOL    HW240931   1.867   0.959   3.528
46367SOL     OW40932   7.770  12.607   9.151
46367SOL    HW140933   7.774  12.512   9.152
46367SOL    HW240934   7.860  12.635   9.133
46368SOL     OW40935  12.481   5.922   8.394
46368SOL    HW140936  12.478   5.948   8.486
46368SOL    HW240937  12.397   5.952   8.358
46369SOL     OW40938   2.878   7.831  10.134
46369SOL    HW140939   2.858   7.910  10.084
46369SOL    HW240940   2.845   7.849  10.222
46370SOL     OW40941  10.816   4.733   3.475
46370SOL    HW140942  10.909   4.714   3.481
46370SOL    HW240943  10.774   4.648   3.460
46371SOL     OW40944  13.022  11.318   9.496
46371SOL    HW140945  13.111  11.310   9.528
46371SOL    HW240946  12.991  11.228   9.485
46372SOL     OW40947   5.112   2.684   7.139
46372SOL    HW140948   5.133   2.683   7.232
46372SOL    HW240949   5.056   2.607   7.125
46373SOL     OW40950   6.008   4.206   4.410
46373SOL    HW140951   6.083   4.231   4.464
46373SOL    HW240952   5.992   4.283   4.355
46374SOL     OW40953   5.234   6.819   7.040
46374SOL    HW140954   5.236   6.907   7.003
46374SOL    HW240955   5.285   6.766   6.978
46375SOL     OW40956   3.699   0.131   5.387
46375SOL    HW140957   3.747   0.048   5.377
46375SOL    HW240958   3.607   0.106   5.377
46376SOL     OW40959   5.229   5.420   9.147
46376SOL    HW140960   5.253   5.411   9.239
46376SOL    HW240961   5.298   5.476   9.110
46377SOL     OW40962  14.519   0.806  11.456
46377SOL    HW140963  14.516   0.743  11.384
46377SOL    HW240964  14.531   0.753  11.534
46378SOL     OW40965  11.725  11.874   3.528
46378SOL    HW140966  11.783  11.893   3.601
46378SOL    HW240967  11.720  11.956   3.478
46379SOL     OW40968  10.361  11.525   9.601
46379SOL    HW140969  10.320  11.587   9.661
46379SOL    HW240970  10.340  11.557   9.514
46380SOL     OW40971   3.392   7.597  12.941
46380SOL    HW140972   3.356   7.523  12.892
46380SOL    HW240973   3.402   7.666  12.876
46381SOL     OW40974   1.700  11.999  13.768
46381SOL    HW140975   1.705  11.926  13.829
46381SOL    HW240976   1.792  12.020  13.748
46382SOL     OW40977   4.492  13.313  11.440
46382SOL    HW140978   4.588  13.317  11.437
46382SOL    HW240979   4.468  13.255  11.368
46383SOL     OW40980   6.864   9.345   7.577
46383SOL    HW140981   6.950   9.382   7.558
46383SOL    HW240982   6.883   9.257   7.610
46384SOL     OW40983   8.899   3.714  10.563
46384SOL    HW140984   8.828   3.664  10.523
46384SOL    HW240985   8.860   3.798  10.586
46385SOL     OW40986   6.510   2.111   3.789
46385SOL    HW140987   6.488   2.145   3.876
46385SOL    HW240988   6.429   2.120   3.739
46386SOL     OW40989  13.479  13.890   7.092
46386SOL    HW140990  13.418  13.848   7.031
46386SOL    HW240991  13.462  13.983   7.084
46387SOL     OW40992   3.003  11.981  14.589
46387SOL    HW140993   2.915  11.956  14.563
46387SOL    HW240994   3.018  12.065  14.546
46388SOL     OW40995  12.723   3.354  10.889
46388SOL    HW140996  12.764   3.317  10.811
46388SOL    HW240997  12.755   3.445  10.891
46389SOL     OW40998  10.243  12.885   6.172
46389SOL    HW140999  10.172  12.919   6.119
46389SOL    HW241000  10.322  12.898   6.119
46390SOL     OW41001   4.179  12.705  12.625
46390SOL    HW141002   4.152  12.719  12.716
46390SOL    HW241003   4.121  12.637  12.593
46391SOL     OW41004  13.882   9.464   9.018
46391SOL    HW141005  13.816   9.401   9.047
46391SOL    HW241006  13.965   9.429   9.050
46392SOL     OW41007   9.401   4.708  10.877
46392SOL    HW141008   9.352   4.661  10.944
46392SOL    HW241009   9.348   4.697  10.797
46393SOL     OW41010  12.767   0.225   0.491
46393SOL    HW141011  12.825   0.197   0.420
46393SOL    HW241012  12.825   0.233   0.567
46394SOL     OW41013   2.815   8.012   7.438
46394SOL    HW141014   2.909   8.004   7.420
46394SOL    HW241015   2.809   8.077   7.507
46395SOL     OW41016   5.169   2.377  14.411
46395SOL    HW141017   5.195   2.293  14.373
46395SOL    HW241018   5.132   2.354  14.496
46396SOL     OW41019   9.776   0.048  14.413
46396SOL    HW141020   9.859   0.008  14.440
46396SOL    HW241021   9.709  14.874  14.453
46397SOL     OW41022   0.817  14.872  12.776
46397SOL    HW141023   0.845   0.043  12.701
46397SOL    HW241024   0.725   0.015  12.789
46398SOL     OW41025  12.381   8.765   4.378
46398SOL    HW141026  12.359   8.711   4.301
46398SOL    HW241027  12.438   8.833   4.343
46399SOL     OW41028   9.571  12.923   2.962
46399SOL    HW141029   9.611  12.838   2.948
46399SOL    HW241030   9.643  12.985   2.953
46400SOL     OW41031  14.511  14.858   8.967
46400SOL    HW141032  14.449  14.826   8.901
46400SOL    HW241033  14.457  14.881   9.042
46401SOL     OW41034   3.878   9.202   9.679
46401SOL    HW141035   3.882   9.154   9.596
46401SOL    HW241036   3.966   9.197   9.714
46402SOL     OW41037  12.349   3.500   4.044
46402SOL    HW141038  12.398   3.515   4.125
46402SOL    HW241039  12.299   3.420   4.061
46403SOL     OW41040  11.386   2.148  14.170
46403SOL    HW141041  11.407   2.055  14.159
46403SOL    HW241042  11.450   2.193  14.115
46404SOL     OW41043   3.433   8.829  13.165
46404SOL    HW141044   3.338   8.838  13.158
46404SOL    HW241045   3.447   8.737  13.188
46405SOL     OW41046   5.719   6.402  10.454
46405SOL    HW141047   5.712   6.372  10.545
46405SOL    HW241048   5.631   6.431  10.432
46406SOL     OW41049  14.697  14.401   9.421
46406SOL    HW141050  14.697  14.463   9.494
46406SOL    HW241051  14.780  14.416   9.376
46407SOL     OW41052   3.841  10.186  10.610
46407SOL    HW141053   3.764  10.198  10.554
46407SOL    HW241054   3.840  10.260  10.669
46408SOL     OW41055  11.204  14.807   5.579
46408SOL    HW141056  11.143  14.870   5.617
46408SOL    HW241057  11.290  14.845   5.591
46409SOL     OW41058   9.529  12.293   1.647
46409SOL    HW141059   9.530  12.294   1.743
46409SOL    HW241060   9.622  12.291   1.623
46410SOL     OW41061   3.321   2.663   5.317
46410SOL    HW141062   3.246   2.605   5.311
46410SOL    HW241063   3.388   2.621   5.264
46411SOL     OW41064   1.020  12.909   6.658
46411SOL    HW141065   1.112  12.885   6.647
46411SOL    HW241066   1.018  12.955   6.742
46412SOL     OW41067  14.130   9.282   8.578
46412SOL    HW141068  14.043   9.307   8.609
46412SOL    HW241069  14.117   9.196   8.539
46413SOL     OW41070   9.050  13.607   5.987
46413SOL    HW141071   9.017  13.657   5.912
46413SOL    HW241072   8.971  13.576   6.031
46414SOL     OW41073   5.003  12.373  10.610
46414SOL    HW141074   5.039  12.460  10.594
46414SOL    HW241075   4.933  12.387  10.673
46415SOL     OW41076  12.278   8.588   6.218
46415SOL    HW141077  12.279   8.682   6.203
46415SOL    HW241078  12.327   8.551   6.145
46416SOL     OW41079  11.893   8.976   8.481
46416SOL    HW141080  11.853   8.890   8.495
46416SOL    HW241081  11.819   9.036   8.478
46417SOL     OW41082  11.232   1.943  13.635
46417SOL    HW141083  11.294   1.969  13.703
46417SOL    HW241084  11.185   2.023  13.614
46418SOL     OW41085  10.411   1.860   8.176
46418SOL    HW141086  10.479   1.822   8.120
46418SOL    HW241087  10.328   1.831   8.138
46419SOL     OW41088  10.120   7.169  13.671
46419SOL    HW141089  10.095   7.141  13.583
46419SOL    HW241090  10.165   7.094  13.708
46420SOL     OW41091   2.863   8.635   3.935
46420SOL    HW141092   2.792   8.573   3.954
46420SOL    HW241093   2.943   8.589   3.960
46421SOL     OW41094  10.499  14.760   2.964
46421SOL    HW141095  10.460  14.679   2.933
46421SOL    HW241096  10.454  14.778   3.047
46422SOL     OW41097   4.918  14.736   0.864
46422SOL    HW141098   4.933  14.668   0.929
46422SOL    HW241099   4.980  14.716   0.794
46423SOL     OW41100   5.200   5.380  13.649
46423SOL    HW141101   5.110   5.409  13.632
46423SOL    HW241102   5.212   5.395  13.743
46424SOL     OW41103   1.462   8.914   5.267
46424SOL    HW141104   1.370   8.925   5.291
46424SOL    HW241105   1.511   8.944   5.345
46425SOL     OW41106   2.378   1.653  13.390
46425SOL    HW141107   2.317   1.584  13.416
46425SOL    HW241108   2.427   1.673  13.470
46426SOL     OW41109  10.199  13.700  14.209
46426SOL    HW141110  10.283  13.694  14.254
46426SOL    HW241111  10.217  13.672  14.119
46427SOL     OW41112   5.518   1.112  13.556
46427SOL    HW141113   5.434   1.067  13.545
46427SOL    HW241114   5.578   1.067  13.497
46428SOL     OW41115   4.164   1.521   5.245
46428SOL    HW141116   4.144   1.611   5.269
46428SOL    HW241117   4.165   1.473   5.328
46429SOL     OW41118   8.170   7.612   1.522
46429SOL    HW141119   8.078   7.625   1.497
46429SOL    HW241120   8.218   7.620   1.439
46430SOL     OW41121   3.997   7.500  10.065
46430SOL    HW141122   4.074   7.444  10.069
46430SOL    HW241123   3.950   7.484  10.147
46431SOL     OW41124   9.143   5.908   3.938
46431SOL    HW141125   9.143   5.814   3.919
46431SOL    HW241126   9.094   5.948   3.866
46432SOL     OW41127  13.856   9.448   8.173
46432SOL    HW141128  13.788   9.496   8.127
46432SOL    HW241129  13.884   9.380   8.110
46433SOL     OW41130   6.472   9.883  10.290
46433SOL    HW141131   6.521   9.930  10.358
46433SOL    HW241132   6.422   9.817  10.338
46434SOL     OW41133  13.111   1.550  13.191
46434SOL    HW141134  13.151   1.618  13.138
46434SOL    HW241135  13.161   1.471  13.171
46435SOL     OW41136   3.950  13.821   7.642
46435SOL    HW141137   3.970  13.877   7.716
46435SOL    HW241138   4.024  13.833   7.582
46436SOL     OW41139   9.571   3.610   8.159
46436SOL    HW141140   9.643   3.668   8.184
46436SOL    HW241141   9.492   3.654   8.191
46437SOL     OW41142  10.679  12.414   5.424
46437SOL    HW141143  10.727  12.461   5.357
46437SOL    HW241144  10.596  12.390   5.382
46438SOL     OW41145   8.921  14.524   2.334
46438SOL    HW141146   8.855  14.586   2.366
46438SOL    HW241147   8.993  14.531   2.395
46439SOL     OW41148   3.775   3.790   3.823
46439SOL    HW141149   3.722   3.869   3.835
46439SOL    HW241150   3.833   3.812   3.750
46440SOL     OW41151   1.125  12.490   0.558
46440SOL    HW141152   1.162  12.570   0.596
46440SOL    HW241153   1.071  12.522   0.485
46441SOL     OW41154  12.765   2.381  14.165
46441SOL    HW141155  12.672   2.357  14.161
46441SOL    HW241156  12.792   2.357  14.254
46442SOL     OW41157   3.331  13.845   0.030
46442SOL    HW141158   3.316  13.760   0.072
46442SOL    HW241159   3.382  13.824  14.833
46443SOL     OW41160   3.230   8.325   0.444
46443SOL    HW141161   3.267   8.397   0.394
46443SOL    HW241162   3.171   8.280   0.383
46444SOL     OW41163   9.131   4.817   5.144
46444SOL    HW141164   9.096   4.844   5.059
46444SOL    HW241165   9.054   4.814   5.202
46445SOL     OW41166  13.536   0.674   9.099
46445SOL    HW141167  13.479   0.695   9.174
46445SOL    HW241168  13.478   0.678   9.023
46446SOL     OW41169  12.548   3.966   6.577
46446SOL    HW141170  12.627   3.974   6.630
46446SOL    HW241171  12.552   4.040   6.516
46447SOL     OW41172   6.296  10.847  12.449
46447SOL    HW141173   6.203  10.868  12.459
46447SOL    HW241174   6.342  10.922  12.486
46448SOL     OW41175   8.971   3.225  10.877
46448SOL    HW141176   9.053   3.242  10.830
46448SOL    HW241177   8.905   3.273  10.828
46449SOL     OW41178   8.572   7.623  10.624
46449SOL    HW141179   8.524   7.704  10.643
46449SOL    HW241180   8.641   7.649  10.564
46450SOL     OW41181   8.405   2.666   9.388
46450SOL    HW141182   8.495   2.634   9.382
46450SOL    HW241183   8.359   2.597   9.435
46451SOL     OW41184  12.058   5.663   3.875
46451SOL    HW141185  12.070   5.696   3.786
46451SOL    HW241186  12.118   5.715   3.929
46452SOL     OW41187   1.283   3.572  11.003
46452SOL    HW141188   1.309   3.518  11.077
46452SOL    HW241189   1.327   3.533  10.927
46453SOL     OW41190  14.685  13.937  12.045
46453SOL    HW141191  14.642  13.878  12.106
46453SOL    HW241192  14.755  13.978  12.095
46454SOL     OW41193  11.385  10.009   9.159
46454SOL    HW141194  11.438  10.010   9.239
46454SOL    HW241195  11.348   9.921   9.157
46455SOL     OW41196   3.809   9.369   4.132
46455SOL    HW141197   3.841   9.458   4.114
46455SOL    HW241198   3.736   9.357   4.072
46456SOL     OW41199   3.295   6.301   1.426
46456SOL    HW141200   3.296   6.347   1.509
46456SOL    HW241201   3.366   6.341   1.376
46457SOL     OW41202   4.192  12.987   8.325
46457SOL    HW141203   4.256  12.951   8.386
46457SOL    HW241204   4.155  13.062   8.370
46458SOL     OW41205   3.340   6.526   1.597
46458SOL    HW141206   3.397   6.562   1.529
46458SOL    HW241207   3.253   6.561   1.578
46459SOL     OW41208   4.848   6.399   0.333
46459SOL    HW141209   4.915   6.344   0.373
46459SOL    HW241210   4.845   6.370   0.242
46460SOL     OW41211   5.295   1.860   0.521
46460SOL    HW141212   5.298   1.795   0.591
46460SOL    HW241213   5.368   1.918   0.539
46461SOL     OW41214   2.246  11.717   5.322
46461SOL    HW141215   2.319  11.728   5.383
46461SOL    HW241216   2.168  11.736   5.374
46462SOL     OW41217   7.195   6.836   6.988
46462SOL    HW141218   7.169   6.928   6.979
46462SOL    HW241219   7.283   6.832   6.950
46463SOL     OW41220   1.417   7.411   1.380
46463SOL    HW141221   1.436   7.326   1.419
46463SOL    HW241222   1.349   7.448   1.435
46464SOL     OW41223  11.845   2.825  12.056
46464SOL    HW141224  11.810   2.787  11.975
46464SOL    HW241225  11.879   2.910  12.029
46465SOL     OW41226   5.089  10.979   5.529
46465SOL    HW141227   5.045  11.029   5.598
46465SOL    HW241228   5.130  10.906   5.575
46466SOL     OW41229   7.269   2.713   1.818
46466SOL    HW141230   7.306   2.643   1.763
46466SOL    HW241231   7.190   2.740   1.772
46467SOL     OW41232   9.082   3.524   0.826
46467SOL    HW141233   9.040   3.571   0.754
46467SOL    HW241234   9.032   3.443   0.834
46468SOL     OW41235   9.332  12.963   6.568
46468SOL    HW141236   9.407  12.919   6.611
46468SOL    HW241237   9.366  13.049   6.543
46469SOL     OW41238   1.259   7.972  12.756
46469SOL    HW141239   1.197   7.935  12.819
46469SOL    HW241240   1.261   7.909  12.685
46470SOL     OW41241   5.407   1.762   1.469
46470SOL    HW141242   5.407   1.729   1.559
46470SOL    HW241243   5.499   1.763   1.443
46471SOL     OW41244   4.616  10.366   7.883
46471SOL    HW141245   4.633  10.460   7.889
46471SOL    HW241246   4.582  10.343   7.970
46472SOL     OW41247   6.351  12.040   5.066
46472SOL    HW141248   6.399  12.122   5.063
46472SOL    HW241249   6.272  12.056   5.015
46473SOL     OW41250   2.613   3.257   0.957
46473SOL    HW141251   2.559   3.198   1.010
46473SOL    HW241252   2.561   3.272   0.878
46474SOL     OW41253   4.131  14.208   5.472
46474SOL    HW141254   4.063  14.206   5.540
46474SOL    HW241255   4.170  14.121   5.475
46475SOL     OW41256   2.340   0.186   7.042
46475SOL    HW141257   2.410   0.121   7.048
46475SOL    HW241258   2.341   0.213   6.950
46476SOL     OW41259  12.951  14.769  11.959
46476SOL    HW141260  12.957  14.677  11.935
46476SOL    HW241261  12.971  14.816  11.878
46477SOL     OW41262   6.651   1.145  14.467
46477SOL    HW141263   6.624   1.233  14.491
46477SOL    HW241264   6.715   1.158  14.397
46478SOL     OW41265   7.629  12.680   7.815
46478SOL    HW141266   7.725  12.673   7.809
46478SOL    HW241267   7.600  12.590   7.832
46479SOL     OW41268   4.680   7.594   9.095
46479SOL    HW141269   4.752   7.592   9.032
46479SOL    HW241270   4.668   7.687   9.114
46480SOL     OW41271  11.882  12.467  14.471
46480SOL    HW141272  11.854  12.536  14.531
46480SOL    HW241273  11.907  12.513  14.391
46481SOL     OW41274  12.597   8.425   5.318
46481SOL    HW141275  12.556   8.384   5.394
46481SOL    HW241276  12.580   8.365   5.246
46482SOL     OW41277   8.780  11.657  14.730
46482SOL    HW141278   8.852  11.659  14.667
46482SOL    HW241279   8.813  11.602  14.801
46483SOL     OW41280   5.274  11.826   7.125
46483SOL    HW141281   5.245  11.881   7.053
46483SOL    HW241282   5.230  11.742   7.111
46484SOL     OW41283   6.523   4.187  13.955
46484SOL    HW141284   6.448   4.210  14.009
46484SOL    HW241285   6.588   4.153  14.016
46485SOL     OW41286  10.071  13.784   0.304
46485SOL    HW141287  10.166  13.773   0.305
46485SOL    HW241288  10.041  13.746   0.387
46486SOL     OW41289   0.280   9.229   5.164
46486SOL    HW141290   0.296   9.280   5.085
46486SOL    HW241291   0.205   9.173   5.143
46487SOL     OW41292  11.002   4.173  13.215
46487SOL    HW141293  10.931   4.172  13.279
46487SOL    HW241294  10.999   4.261  13.178
46488SOL     OW41295   7.790   3.928  10.046
46488SOL    HW141296   7.718   3.893   9.994
46488SOL    HW241297   7.849   3.967   9.982
46489SOL     OW41298  10.625   2.216   9.575
46489SOL    HW141299  10.642   2.140   9.630
46489SOL    HW241300  10.687   2.209   9.503
46490SOL     OW41301  14.050   2.319   6.145
46490SOL    HW141302  14.102   2.349   6.219
46490SOL    HW241303  14.062   2.224   6.145
46491SOL     OW41304   9.427   9.022  14.159
46491SOL    HW141305   9.369   8.946  14.158
46491SOL    HW241306   9.448   9.036  14.251
46492SOL     OW41307   1.106   1.985   4.382
46492SOL    HW141308   1.025   1.935   4.369
46492SOL    HW241309   1.112   1.998   4.476
46493SOL     OW41310   2.452   2.962   8.722
46493SOL    HW141311   2.540   3.000   8.712
46493SOL    HW241312   2.432   2.973   8.814
46494SOL     OW41313   4.078  10.182   4.677
46494SOL    HW141314   4.072  10.170   4.771
46494SOL    HW241315   4.023  10.113   4.640
46495SOL     OW41316   9.039   1.889  12.885
46495SOL    HW141317   9.086   1.944  12.949
46495SOL    HW241318   9.041   1.940  12.804
46496SOL     OW41319  12.530   3.773  10.748
46496SOL    HW141320  12.533   3.769  10.843
46496SOL    HW241321  12.474   3.849  10.729
46497SOL     OW41322  12.613  14.276   8.676
46497SOL    HW141323  12.523  14.245   8.664
46497SOL    HW241324  12.606  14.346   8.740
46498SOL     OW41325   8.901   6.992   7.791
46498SOL    HW141326   8.834   6.955   7.733
46498SOL    HW241327   8.874   6.965   7.879
46499SOL     OW41328   5.538   5.408   8.736
46499SOL    HW141329   5.601   5.416   8.807
46499SOL    HW241330   5.578   5.345   8.676
46500SOL     OW41331  12.448  11.091   8.313
46500SOL    HW141332  12.365  11.103   8.267
46500SOL    HW241333  12.433  11.017   8.371
46501SOL     OW41334  12.044   9.973   2.058
46501SOL    HW141335  12.040  10.000   1.966
46501SOL    HW241336  12.084  10.048   2.103
46502SOL     OW41337   1.248   8.084  13.093
46502SOL    HW141338   1.328   8.091  13.041
46502SOL    HW241339   1.244   7.993  13.121
46503SOL     OW41340   8.875   2.841   1.126
46503SOL    HW141341   8.958   2.856   1.081
46503SOL    HW241342   8.855   2.749   1.108
46504SOL     OW41343  10.998   9.523   7.615
46504SOL    HW141344  10.944   9.477   7.552
46504SOL    HW241345  11.060   9.574   7.562
46505SOL     OW41346   5.826  12.822   0.321
46505SOL    HW141347   5.741  12.856   0.349
46505SOL    HW241348   5.822  12.728   0.341
46506SOL     OW41349  14.354  14.259   8.632
46506SOL    HW141350  14.304  14.182   8.605
46506SOL    HW241351  14.319  14.331   8.580
46507SOL     OW41352   9.322   1.134   0.883
46507SOL    HW141353   9.290   1.044   0.882
46507SOL    HW241354   9.273   1.178   0.813
46508SOL     OW41355  12.128   9.853   1.310
46508SOL    HW141356  12.188   9.783   1.284
46508SOL    HW241357  12.169   9.891   1.388
46509SOL     OW41358   5.219   9.481   0.174
46509SOL    HW141359   5.169   9.462   0.254
46509SOL    HW241360   5.305   9.510   0.206
46510SOL     OW41361   3.347   7.752   0.143
46510SOL    HW141362   3.363   7.774   0.235
46510SOL    HW241363   3.426   7.707   0.115
46511SOL     OW41364   8.302   4.772   3.545
46511SOL    HW141365   8.230   4.754   3.607
46511SOL    HW241366   8.258   4.794   3.463
46512SOL     OW41367   3.095  11.401   7.705
46512SOL    HW141368   3.103  11.306   7.697
46512SOL    HW241369   3.047  11.414   7.786
46513SOL     OW41370   1.337   5.931   7.772
46513SOL    HW141371   1.273   5.994   7.806
46513SOL    HW241372   1.312   5.848   7.812
46514SOL     OW41373  14.819   5.870   8.177
46514SOL    HW141374  14.782   5.939   8.232
46514SOL    HW241375  14.859   5.916   8.103
46515SOL     OW41376  12.047   2.371   8.999
46515SOL    HW141377  11.988   2.326   9.060
46515SOL    HW241378  11.991   2.397   8.926
46516SOL     OW41379   6.466   0.256  12.155
46516SOL    HW141380   6.520   0.325  12.193
46516SOL    HW241381   6.519   0.222  12.082
46517SOL     OW41382   2.412  10.711   2.808
46517SOL    HW141383   2.444  10.660   2.733
46517SOL    HW241384   2.333  10.664   2.836
46518SOL     OW41385  12.741   6.177  12.981
46518SOL    HW141386  12.688   6.103  12.952
46518SOL    HW241387  12.680   6.249  12.989
46519SOL     OW41388   8.805  10.190   3.977
46519SOL    HW141389   8.766  10.254   4.036
46519SOL    HW241390   8.836  10.242   3.902
46520SOL     OW41391   8.057  14.219   5.019
46520SOL    HW141392   8.008  14.138   5.031
46520SOL    HW241393   7.992  14.288   5.038
46521SOL     OW41394  11.757  10.679   0.155
46521SOL    HW141395  11.691  10.732   0.201
46521SOL    HW241396  11.836  10.732   0.156
46522SOL     OW41397  10.945   1.091   3.752
46522SOL    HW141398  10.854   1.064   3.764
46522SOL    HW241399  10.996   1.021   3.793
46523SOL     OW41400  12.109  12.783   1.681
46523SOL    HW141401  12.076  12.706   1.634
46523SOL    HW241402  12.204  12.774   1.677
46524SOL     OW41403   9.157  12.239   5.548
46524SOL    HW141404   9.085  12.178   5.569
46524SOL    HW241405   9.229  12.211   5.603
46525SOL     OW41406   6.964  13.219   0.167
46525SOL    HW141407   7.012  13.222   0.249
46525SOL    HW241408   7.021  13.261   0.103
46526SOL     OW41409   9.217   1.291  11.507
46526SOL    HW141410   9.127   1.271  11.529
46526SOL    HW241411   9.262   1.299  11.591
46527SOL     OW41412   0.837   7.746   6.695
46527SOL    HW141413   0.845   7.797   6.775
46527SOL    HW241414   0.927   7.732   6.665
46528SOL     OW41415   5.629  11.130  14.108
46528SOL    HW141416   5.714  11.174  14.108
46528SOL    HW241417   5.648  11.040  14.084
46529SOL     OW41418  10.273   3.191  10.461
46529SOL    HW141419  10.350   3.210  10.515
46529SOL    HW241420  10.249   3.101  10.483
46530SOL     OW41421   0.493   1.655   9.387
46530SOL    HW141422   0.467   1.627   9.299
46530SOL    HW241423   0.588   1.643   9.388
46531SOL     OW41424   8.952  10.236  14.089
46531SOL    HW141425   8.924  10.181  14.016
46531SOL    HW241426   8.928  10.186  14.167
46532SOL     OW41427  11.572  12.828   9.714
46532SOL    HW141428  11.517  12.842   9.637
46532SOL    HW241429  11.510  12.818   9.786
46533SOL     OW41430   6.552   0.254   9.256
46533SOL    HW141431   6.477   0.204   9.286
46533SOL    HW241432   6.574   0.312   9.329
46534SOL     OW41433   0.177   7.314  11.546
46534SOL    HW141434   0.223   7.285  11.467
46534SOL    HW241435   0.084   7.304  11.525
46535SOL     OW41436  14.614   3.039  13.281
46535SOL    HW141437  14.595   2.986  13.359
46535SOL    HW241438  14.646   3.122  13.316
46536SOL     OW41439   5.579  13.041  14.200
46536SOL    HW141440   5.664  13.082  14.185
46536SOL    HW241441   5.555  13.005  14.115
46537SOL     OW41442   9.115   4.761  14.829
46537SOL    HW141443   9.102   4.829  14.763
46537SOL    HW241444   9.203   4.779  14.864
46538SOL     OW41445  12.085  14.695  13.633
46538SOL    HW141446  12.039  14.618  13.600
46538SOL    HW241447  12.039  14.719  13.713
46539SOL     OW41448  11.154  11.271   3.506
46539SOL    HW141449  11.163  11.339   3.440
46539SOL    HW241450  11.213  11.298   3.577
46540SOL     OW41451   5.490   2.641   1.889
46540SOL    HW141452   5.514   2.587   1.814
46540SOL    HW241453   5.515   2.730   1.863
46541SOL     OW41454   9.231   0.048   8.139
46541SOL    HW141455   9.214   0.005   8.223
46541SOL    HW241456   9.225   0.141   8.159
46542SOL     OW41457   0.905   2.488   8.394
46542SOL    HW141458   0.920   2.573   8.435
46542SOL    HW241459   0.877   2.509   8.305
46543SOL     OW41460   3.782   7.590   9.078
46543SOL    HW141461   3.776   7.559   8.987
46543SOL    HW241462   3.696   7.570   9.116
46544SOL     OW41463   5.134  13.518   3.572
46544SOL    HW141464   5.054  13.538   3.523
46544SOL    HW241465   5.205  13.537   3.511
46545SOL     OW41466   4.573  11.589   5.587
46545SOL    HW141467   4.510  11.657   5.564
46545SOL    HW241468   4.641  11.595   5.520
46546SOL     OW41469   6.696   0.845   8.384
46546SOL    HW141470   6.783   0.872   8.354
46546SOL    HW241471   6.650   0.927   8.401
46547SOL     OW41472   9.421  10.659  12.573
46547SOL    HW141473   9.334  10.684  12.603
46547SOL    HW241474   9.459  10.740  12.539
46548SOL     OW41475   3.770   2.306   5.762
46548SOL    HW141476   3.847   2.301   5.705
46548SOL    HW241477   3.751   2.400   5.768
46549SOL     OW41478  13.120   4.755  10.891
46549SOL    HW141479  13.170   4.682  10.854
46549SOL    HW241480  13.070   4.790  10.818
46550SOL     OW41481   1.362   5.214   1.828
46550SOL    HW141482   1.427   5.176   1.887
46550SOL    HW241483   1.413   5.256   1.759
46551SOL     OW41484  11.030   8.175   5.766
46551SOL    HW141485  10.944   8.187   5.726
46551SOL    HW241486  11.077   8.118   5.704
46552SOL     OW41487   2.615   3.265  12.084
46552SOL    HW141488   2.603   3.348  12.129
46552SOL    HW241489   2.613   3.288  11.991
46553SOL     OW41490   7.760  14.150   3.440
46553SOL    HW141491   7.835  14.091   3.435
46553SOL    HW241492   7.686  14.093   3.458
46554SOL     OW41493   9.511  10.214   0.069
46554SOL    HW141494   9.441  10.174   0.019
46554SOL    HW241495   9.506  10.173   0.155
46555SOL     OW41496   8.443   4.265   7.277
46555SOL    HW141497   8.493   4.333   7.323
46555SOL    HW241498   8.388   4.314   7.215
46556SOL     OW41499  14.707   9.439   7.481
46556SOL    HW141500  14.678   9.391   7.404
46556SOL    HW241501  14.761   9.376   7.530
46557SOL     OW41502   2.181  14.820   3.348
46557SOL    HW141503   2.242  14.858   3.285
46557SOL    HW241504   2.235  14.796   3.423
46558SOL     OW41505   1.627   2.197   5.936
46558SOL    HW141506   1.642   2.205   5.842
46558SOL    HW241507   1.687   2.128   5.965
46559SOL     OW41508   4.314   8.140   4.890
46559SOL    HW141509   4.293   8.059   4.843
46559SOL    HW241510   4.324   8.206   4.820
46560SOL     OW41511   5.614   6.590   3.410
46560SOL    HW141512   5.522   6.618   3.408
46560SOL    HW241513   5.663   6.669   3.432
46561SOL     OW41514  11.677   2.691  12.241
46561SOL    HW141515  11.706   2.600  12.234
46561SOL    HW241516  11.741   2.740  12.190
46562SOL     OW41517  14.805   4.383   4.556
46562SOL    HW141518  14.836   4.403   4.644
46562SOL    HW241519  14.761   4.462   4.527
46563SOL     OW41520  10.179   1.238   0.593
46563SOL    HW141521  10.138   1.325   0.589
46563SOL    HW241522  10.111   1.182   0.630
46564SOL     OW41523   9.872  12.870  10.543
46564SOL    HW141524   9.877  12.934  10.613
46564SOL    HW241525   9.854  12.787  10.587
46565SOL     OW41526   9.502   9.002   2.883
46565SOL    HW141527   9.435   8.943   2.851
46565SOL    HW241528   9.484   9.011   2.977
46566SOL     OW41529   6.167   4.025   0.736
46566SOL    HW141530   6.218   3.947   0.714
46566SOL    HW241531   6.227   4.077   0.790
46567SOL     OW41532  12.886   2.311  10.088
46567SOL    HW141533  12.832   2.243  10.126
46567SOL    HW241534  12.975   2.292  10.119
46568SOL     OW41535   4.479   4.720   5.301
46568SOL    HW141536   4.395   4.742   5.340
46568SOL    HW241537   4.462   4.717   5.207
46569SOL     OW41538   5.561   5.984   3.157
46569SOL    HW141539   5.650   5.950   3.149
46569SOL    HW241540   5.570   6.062   3.212
46570SOL     OW41541   7.024  12.076   1.789
46570SOL    HW141542   6.987  12.125   1.715
46570SOL    HW241543   7.119  12.082   1.776
46571SOL     OW41544  11.377  11.416   4.635
46571SOL    HW141545  11.465  11.391   4.663
46571SOL    HW241546  11.360  11.362   4.558
46572SOL     OW41547   5.985   8.402   1.895
46572SOL    HW141548   5.892   8.406   1.871
46572SOL    HW241549   6.011   8.494   1.905
46573SOL     OW41550  14.275   3.440   6.408
46573SOL    HW141551  14.278   3.370   6.473
46573SOL    HW241552  14.249   3.397   6.326
46574SOL     OW41553   1.845  10.296   7.001
46574SOL    HW141554   1.794  10.325   6.925
46574SOL    HW241555   1.900  10.371   7.023
46575SOL     OW41556   6.789   6.682  14.558
46575SOL    HW141557   6.739   6.694  14.639
46575SOL    HW241558   6.724   6.652  14.494
46576SOL     OW41559   5.364  11.773   6.708
46576SOL    HW141560   5.271  11.759   6.695
46576SOL    HW241561   5.385  11.728   6.790
46577SOL     OW41562  10.472   2.150   0.353
46577SOL    HW141563  10.404   2.214   0.376
46577SOL    HW241564  10.478   2.155   0.258
46578SOL     OW41565   8.693   5.408   9.619
46578SOL    HW141566   8.667   5.386   9.530
46578SOL    HW241567   8.778   5.451   9.610
46579SOL     OW41568   4.081   4.356   5.362
46579SOL    HW141569   3.990   4.382   5.373
46579SOL    HW241570   4.099   4.298   5.437
46580SOL     OW41571   6.983   9.265  11.589
46580SOL    HW141572   6.990   9.173  11.563
46580SOL    HW241573   7.040   9.273  11.665
46581SOL     OW41574   3.076  13.310   9.146
46581SOL    HW141575   3.104  13.220   9.158
46581SOL    HW241576   3.072  13.346   9.235
46582SOL     OW41577   4.517   7.896  14.845
46582SOL    HW141578   4.527   7.812  14.799
46582SOL    HW241579   4.600   7.941  14.830
46583SOL     OW41580  11.622   2.494   3.653
46583SOL    HW141581  11.668   2.575   3.677
46583SOL    HW241582  11.532   2.509   3.682
46584SOL     OW41583  13.431   2.218   7.737
46584SOL    HW141584  13.409   2.271   7.660
46584SOL    HW241585  13.511   2.258   7.771
46585SOL     OW41586   7.474  13.641  11.258
46585SOL    HW141587   7.555  13.593  11.270
46585SOL    HW241588   7.501  13.733  11.249
46586SOL     OW41589   0.899   9.907  12.457
46586SOL    HW141590   0.943   9.976  12.506
46586SOL    HW241591   0.864   9.849  12.525
46587SOL     OW41592   3.376   7.926   8.176
46587SOL    HW141593   3.384   7.985   8.101
46587SOL    HW241594   3.331   7.977   8.243
46588SOL     OW41595  11.717   9.761  14.146
46588SOL    HW141596  11.811   9.779  14.138
46588SOL    HW241597  11.697   9.778  14.238
46589SOL     OW41598   6.571   3.359   3.743
46589SOL    HW141599   6.539   3.355   3.653
46589SOL    HW241600   6.521   3.430   3.783
46590SOL     OW41601  14.541  13.775   6.727
46590SOL    HW141602  14.615  13.837   6.721
46590SOL    HW241603  14.517  13.776   6.820
46591SOL     OW41604  12.367   7.121   1.374
46591SOL    HW141605  12.311   7.048   1.348
46591SOL    HW241606  12.453   7.101   1.337
46592SOL     OW41607   2.244  13.873   6.308
46592SOL    HW141608   2.266  13.908   6.394
46592SOL    HW241609   2.151  13.851   6.314
46593SOL     OW41610   9.760  13.273  11.079
46593SOL    HW141611   9.666  13.271  11.056
46593SOL    HW241612   9.803  13.300  10.998
46594SOL     OW41613   8.190  13.106   3.521
46594SOL    HW141614   8.211  13.030   3.576
46594SOL    HW241615   8.094  13.105   3.515
46595SOL     OW41616   4.471   5.902   2.777
46595SOL    HW141617   4.451   5.838   2.708
46595SOL    HW241618   4.428   5.982   2.749
46596SOL     OW41619   5.088   3.450   1.845
46596SOL    HW141620   5.029   3.506   1.896
46596SOL    HW241621   5.038   3.370   1.830
46597SOL     OW41622   3.782   8.369   2.104
46597SOL    HW141623   3.811   8.302   2.043
46597SOL    HW241624   3.773   8.448   2.051
46598SOL     OW41625   5.879   1.260   4.996
46598SOL    HW141626   5.845   1.216   5.074
46598SOL    HW241627   5.974   1.246   4.999
46599SOL     OW41628   2.533   0.954   9.239
46599SOL    HW141629   2.572   0.940   9.325
46599SOL    HW241630   2.473   0.881   9.226
46600SOL     OW41631  14.761  11.145  14.134
46600SOL    HW141632  14.742  11.057  14.102
46600SOL    HW241633  14.850  11.163  14.106
46601SOL     OW41634   5.765   6.527   0.427
46601SOL    HW141635   5.723   6.481   0.354
46601SOL    HW241636   5.808   6.458   0.477
46602SOL     OW41637  13.902   9.514   0.200
46602SOL    HW141638  13.838   9.505   0.129
46602SOL    HW241639  13.850   9.536   0.277
46603SOL     OW41640   9.724   7.149  14.584
46603SOL    HW141641   9.746   7.229  14.538
46603SOL    HW241642   9.645   7.171  14.635
46604SOL     OW41643   6.048   3.140  14.666
46604SOL    HW141644   5.963   3.097  14.665
46604SOL    HW241645   6.055   3.176  14.754
46605SOL     OW41646  11.389   0.421   6.936
46605SOL    HW141647  11.346   0.338   6.957
46605SOL    HW241648  11.408   0.460   7.021
46606SOL     OW41649  10.236   2.753  13.079
46606SOL    HW141650  10.177   2.749  13.004
46606SOL    HW241651  10.275   2.666  13.084
46607SOL     OW41652   8.386   8.767   4.337
46607SOL    HW141653   8.460   8.753   4.278
46607SOL    HW241654   8.344   8.681   4.344
46608SOL     OW41655   9.540  10.961  11.084
46608SOL    HW141656   9.544  11.014  11.163
46608SOL    HW241657   9.610  10.994  11.028
46609SOL     OW41658   4.825   9.395   6.317
46609SOL    HW141659   4.884   9.418   6.245
46609SOL    HW241660   4.767   9.328   6.279
46610SOL     OW41661   0.799   5.791  10.903
46610SOL    HW141662   0.725   5.742  10.867
46610SOL    HW241663   0.769   5.823  10.988
46611SOL     OW41664   2.733   0.565   8.228
46611SOL    HW141665   2.799   0.504   8.262
46611SOL    HW241666   2.746   0.645   8.278
46612SOL     OW41667  10.462   5.765  12.144
46612SOL    HW141668  10.370   5.741  12.140
46612SOL    HW241669  10.472   5.805  12.230
46613SOL     OW41670   6.377   6.070   3.289
46613SOL    HW141671   6.445   6.096   3.227
46613SOL    HW241672   6.418   6.081   3.376
46614SOL     OW41673   4.977   9.053  12.692
46614SOL    HW141674   4.959   8.967  12.655
46614SOL    HW241675   5.036   9.095  12.630
46615SOL     OW41676  13.298   9.143   0.646
46615SOL    HW141677  13.254   9.079   0.591
46615SOL    HW241678  13.391   9.122   0.639
46616SOL     OW41679   7.417   1.835   3.725
46616SOL    HW141680   7.416   1.843   3.629
46616SOL    HW241681   7.351   1.769   3.744
46617SOL     OW41682  11.026   7.037  13.419
46617SOL    HW141683  11.011   7.044  13.325
46617SOL    HW241684  11.082   6.960  13.429
46618SOL     OW41685  10.117   1.261  11.497
46618SOL    HW141686  10.160   1.183  11.463
46618SOL    HW241687  10.026   1.234  11.511
46619SOL     OW41688   3.906  10.754   7.086
46619SOL    HW141689   3.815  10.779   7.075
46619SOL    HW241690   3.920  10.685   7.021
46620SOL     OW41691  14.410   3.359   9.554
46620SOL    HW141692  14.369   3.438   9.589
46620SOL    HW241693  14.503   3.367   9.579
46621SOL     OW41694  10.359  10.832  10.857
46621SOL    HW141695  10.340  10.917  10.818
46621SOL    HW241696  10.356  10.770  10.784
46622SOL     OW41697  11.778   2.691  11.299
46622SOL    HW141698  11.769   2.645  11.215
46622SOL    HW241699  11.758   2.782  11.280
46623SOL     OW41700  11.658   9.392  13.042
46623SOL    HW141701  11.571   9.412  13.007
46623SOL    HW241702  11.717   9.450  12.993
46624SOL     OW41703   0.561   3.925  12.979
46624SOL    HW141704   0.566   3.830  12.983
46624SOL    HW241705   0.551   3.953  13.070
46625SOL     OW41706   8.689  11.354  11.250
46625SOL    HW141707   8.679  11.423  11.316
46625SOL    HW241708   8.781  11.328  11.256
46626SOL     OW41709   9.050   0.021  10.347
46626SOL    HW141710   9.130   0.059  10.385
46626SOL    HW241711   9.010  14.855  10.419
46627SOL     OW41712  14.560   9.691   3.146
46627SOL    HW141713  14.491   9.749   3.114
46627SOL    HW241714  14.611   9.746   3.206
46628SOL     OW41715   3.299  13.383   4.382
46628SOL    HW141716   3.256  13.311   4.335
46628SOL    HW241717   3.387  13.386   4.346
46629SOL     OW41718  11.195   8.438   6.826
46629SOL    HW141719  11.162   8.470   6.742
46629SOL    HW241720  11.271   8.493   6.844
46630SOL     OW41721  12.379   8.214   0.520
46630SOL    HW141722  12.421   8.295   0.495
46630SOL    HW241723  12.324   8.191   0.445
46631SOL     OW41724  11.859   3.143   6.858
46631SOL    HW141725  11.934   3.083   6.866
46631SOL    HW241726  11.846   3.176   6.947
46632SOL     OW41727   7.456   8.057  13.883
46632SOL    HW141728   7.518   8.082  13.952
46632SOL    HW241729   7.511   8.021  13.813
46633SOL     OW41730   6.220   4.134   5.318
46633SOL    HW141731   6.254   4.101   5.401
46633SOL    HW241732   6.243   4.227   5.318
46634SOL     OW41733   4.142   6.974  13.959
46634SOL    HW141734   4.181   7.057  13.986
46634SOL    HW241735   4.204   6.907  13.989
46635SOL     OW41736  10.703   4.072   2.115
46635SOL    HW141737  10.634   4.077   2.049
46635SOL    HW241738  10.705   4.159   2.155
46636SOL     OW41739   7.716   1.015   6.519
46636SOL    HW141740   7.731   1.093   6.465
46636SOL    HW241741   7.790   0.958   6.497
46637SOL     OW41742   2.576   7.719  12.239
46637SOL    HW141743   2.531   7.641  12.271
46637SOL    HW241744   2.539   7.735  12.153
46638SOL     OW41745  14.265   9.330   9.751
46638SOL    HW141746  14.258   9.362   9.841
46638SOL    HW241747  14.231   9.241   9.755
46639SOL     OW41748  10.652   4.470   3.539
46639SOL    HW141749  10.616   4.414   3.470
46639SOL    HW241750  10.576   4.499   3.589
46640SOL     OW41751   5.702   8.383   6.694
46640SOL    HW141752   5.779   8.436   6.714
46640SOL    HW241753   5.734   8.313   6.637
46641SOL     OW41754   3.559   3.100   8.471
46641SOL    HW141755   3.587   3.154   8.545
46641SOL    HW241756   3.619   3.123   8.401
46642SOL     OW41757  13.133  13.841  14.705
46642SOL    HW141758  13.134  13.932  14.677
46642SOL    HW241759  13.095  13.793  14.632
46643SOL     OW41760   4.284   1.178   4.042
46643SOL    HW141761   4.345   1.109   4.016
46643SOL    HW241762   4.264   1.160   4.134
46644SOL     OW41763   3.071  11.004  12.715
46644SOL    HW141764   3.151  11.056  12.724
46644SOL    HW241765   3.001  11.068  12.723
46645SOL     OW41766  11.512   9.081  13.926
46645SOL    HW141767  11.536   9.173  13.926
46645SOL    HW241768  11.536   9.050  13.838
46646SOL     OW41769  13.311   8.806   9.613
46646SOL    HW141770  13.316   8.734   9.676
46646SOL    HW241771  13.363   8.776   9.539
46647SOL     OW41772  14.132   8.563   3.543
46647SOL    HW141773  14.053   8.590   3.496
46647SOL    HW241774  14.202   8.618   3.509
46648SOL     OW41775   0.950   7.855   5.841
46648SOL    HW141776   0.954   7.863   5.937
46648SOL    HW241777   0.900   7.774   5.827
46649SOL     OW41778   2.921  13.070  13.473
46649SOL    HW141779   2.922  12.982  13.437
46649SOL    HW241780   2.925  13.058  13.568
46650SOL     OW41781  12.154  12.594  11.217
46650SOL    HW141782  12.080  12.602  11.157
46650SOL    HW241783  12.123  12.533  11.285
46651SOL     OW41784   2.657   1.112   8.013
46651SOL    HW141785   2.622   1.200   8.007
46651SOL    HW241786   2.710   1.112   8.092
46652SOL     OW41787   4.787   7.638  10.843
46652SOL    HW141788   4.851   7.603  10.905
46652SOL    HW241789   4.716   7.574  10.842
46653SOL     OW41790   1.781  10.149   9.716
46653SOL    HW141791   1.716  10.084   9.744
46653SOL    HW241792   1.850  10.097   9.674
46654SOL     OW41793   0.549   0.020  12.371
46654SOL    HW141794   0.474   0.070  12.403
46654SOL    HW241795   0.622   0.082  12.374
46655SOL     OW41796   4.401  13.892  14.231
46655SOL    HW141797   4.314  13.933  14.230
46655SOL    HW241798   4.427  13.891  14.139
46656SOL     OW41799  11.625   7.900   2.839
46656SOL    HW141800  11.704   7.907   2.785
46656SOL    HW241801  11.651   7.843   2.911
46657SOL     OW41802   8.033   2.432   6.534
46657SOL    HW141803   7.945   2.448   6.568
46657SOL    HW241804   8.027   2.347   6.490
46658SOL     OW41805   7.145   2.502   6.080
46658SOL    HW141806   7.081   2.433   6.095
46658SOL    HW241807   7.127   2.533   5.991
46659SOL     OW41808  13.466  11.790  12.508
46659SOL    HW141809  13.515  11.713  12.537
46659SOL    HW241810  13.495  11.804  12.417
46660SOL     OW41811   9.205   0.051  12.581
46660SOL    HW141812   9.185  14.871  12.651
46660SOL    HW241813   9.132   0.042  12.520
46661SOL     OW41814  12.956  13.184   3.017
46661SOL    HW141815  12.956  13.094   3.050
46661SOL    HW241816  12.965  13.175   2.923
46662SOL     OW41817  13.730  14.597   4.144
46662SOL    HW141818  13.760  14.675   4.191
46662SOL    HW241819  13.791  14.529   4.171
46663SOL     OW41820  11.022   2.399   8.112
46663SOL    HW141821  11.096   2.438   8.066
46663SOL    HW241822  10.965   2.472   8.132
46664SOL     OW41823  10.738  10.941   8.493
46664SOL    HW141824  10.643  10.933   8.500
46664SOL    HW241825  10.768  10.939   8.584
46665SOL     OW41826   0.510  11.871   0.150
46665SOL    HW141827   0.506  11.941   0.215
46665SOL    HW241828   0.427  11.824   0.162
46666SOL     OW41829   7.084  11.649   3.599
46666SOL    HW141830   7.085  11.603   3.682
46666SOL    HW241831   7.134  11.594   3.539
46667SOL     OW41832   1.689   8.726   2.842
46667SOL    HW141833   1.773   8.698   2.878
46667SOL    HW241834   1.624   8.692   2.904
46668SOL     OW41835   0.741   2.107  13.051
46668SOL    HW141836   0.650   2.080  13.042
46668SOL    HW241837   0.785   2.067  12.976
46669SOL     OW41838   2.902   0.846   7.626
46669SOL    HW141839   2.844   0.918   7.603
46669SOL    HW241840   2.909   0.850   7.721
46670SOL     OW41841   1.491   6.891  10.197
46670SOL    HW141842   1.514   6.810  10.152
46670SOL    HW241843   1.554   6.897  10.269
46671SOL     OW41844  13.443   4.429   0.846
46671SOL    HW141845  13.357   4.468   0.864
46671SOL    HW241846  13.427   4.368   0.774
46672SOL     OW41847   9.136   6.188   1.992
46672SOL    HW141848   9.189   6.252   2.038
46672SOL    HW241849   9.178   6.104   2.011
46673SOL     OW41850  11.210   8.028  11.589
46673SOL    HW141851  11.158   8.102  11.555
46673SOL    HW241852  11.144   7.968  11.625
46674SOL     OW41853  14.325  13.388   5.706
46674SOL    HW141854  14.277  13.467   5.731
46674SOL    HW241855  14.394  13.380   5.773
46675SOL     OW41856   5.373  13.714  11.516
46675SOL    HW141857   5.288  13.675  11.537
46675SOL    HW241858   5.421  13.644  11.471
46676SOL     OW41859  10.135   0.355   3.301
46676SOL    HW141860  10.199   0.382   3.367
46676SOL    HW241861  10.121   0.434   3.248
46677SOL     OW41862   8.391  14.011  14.056
46677SOL    HW141863   8.369  13.924  14.089
46677SOL    HW241864   8.481  14.026  14.085
46678SOL     OW41865   8.132   6.564  13.646
46678SOL    HW141866   8.189   6.489  13.632
46678SOL    HW241867   8.048   6.527  13.674
46679SOL     OW41868  12.805   5.669   0.376
46679SOL    HW141869  12.856   5.633   0.304
46679SOL    HW241870  12.715   5.646   0.356
46680SOL     OW41871  14.868   3.262   9.852
46680SOL    HW141872   0.037   3.182   9.842
46680SOL    HW241873   0.034   3.313   9.917
46681SOL     OW41874   5.470   9.579  10.519
46681SOL    HW141875   5.474   9.488  10.546
46681SOL    HW241876   5.518   9.627  10.586
46682SOL     OW41877   3.631  11.163   0.857
46682SOL    HW141878   3.590  11.240   0.817
46682SOL    HW241879   3.573  11.090   0.835
46683SOL     OW41880   0.386   9.944   7.186
46683SOL    HW141881   0.301   9.973   7.152
46683SOL    HW241882   0.380   9.848   7.186
46684SOL     OW41883   4.104  10.612   8.285
46684SOL    HW141884   4.135  10.699   8.264
46684SOL    HW241885   4.071  10.577   8.202
46685SOL     OW41886   8.592   6.452   2.451
46685SOL    HW141887   8.520   6.389   2.448
46685SOL    HW241888   8.662   6.406   2.497
46686SOL     OW41889  10.080   7.951   8.370
46686SOL    HW141890  10.006   8.006   8.343
46686SOL    HW241891  10.048   7.905   8.448
46687SOL     OW41892   5.379   0.477   7.578
46687SOL    HW141893   5.393   0.448   7.668
46687SOL    HW241894   5.342   0.565   7.586
46688SOL     OW41895  12.666  14.654  14.624
46688SOL    HW141896  12.687  14.700  14.542
46688SOL    HW241897  12.674  14.562  14.602
46689SOL     OW41898  13.916   9.824  13.745
46689SOL    HW141899  13.942   9.831  13.653
46689SOL    HW241900  13.832   9.778  13.742
46690SOL     OW41901  10.279   8.328   3.720
46690SOL    HW141902  10.336   8.272   3.772
46690SOL    HW241903  10.338   8.372   3.659
46691SOL     OW41904  10.325   9.992   9.056
46691SOL    HW141905  10.301   9.954   8.972
46691SOL    HW241906  10.275  10.074   9.060
46692SOL     OW41907  14.873   3.868   9.624
46692SOL    HW141908   0.052   3.937   9.599
46692SOL    HW241909   0.046   3.804   9.670
46693SOL     OW41910   8.783   1.983   8.793
46693SOL    HW141911   8.690   2.007   8.792
46693SOL    HW241912   8.807   1.987   8.886
46694SOL     OW41913   8.384   3.386   1.488
46694SOL    HW141914   8.384   3.469   1.441
46694SOL    HW241915   8.387   3.410   1.580
46695SOL     OW41916   5.817  11.273  13.425
46695SOL    HW141917   5.855  11.186  13.438
46695SOL    HW241918   5.735  11.271  13.474
46696SOL     OW41919  10.388   2.607   4.617
46696SOL    HW141920  10.443   2.650   4.551
46696SOL    HW241921  10.346   2.680   4.664
46697SOL     OW41922   3.418  14.453   2.637
46697SOL    HW141923   3.483  14.391   2.669
46697SOL    HW241924   3.427  14.529   2.694
46698SOL     OW41925   8.942   1.262  11.539
46698SOL    HW141926   8.919   1.352  11.563
46698SOL    HW241927   8.899   1.208  11.606
46699SOL     OW41928   0.651   9.484   2.270
46699SOL    HW141929   0.585   9.517   2.331
46699SOL    HW241930   0.620   9.398   2.245
46700SOL     OW41931   8.943   1.255  12.495
46700SOL    HW141932   8.850   1.264  12.516
46700SOL    HW241933   8.954   1.306  12.415
46701SOL     OW41934   7.918  12.853  10.548
46701SOL    HW141935   7.985  12.899  10.497
46701SOL    HW241936   7.906  12.907  10.626
46702SOL     OW41937   1.536   2.511  13.551
46702SOL    HW141938   1.615   2.504  13.498
46702SOL    HW241939   1.470   2.546  13.491
46703SOL     OW41940   7.117   8.651   4.630
46703SOL    HW141941   7.091   8.684   4.544
46703SOL    HW241942   7.054   8.690   4.691
46704SOL     OW41943  11.949  13.267   5.606
46704SOL    HW141944  12.015  13.214   5.650
46704SOL    HW241945  11.880  13.279   5.671
46705SOL     OW41946  14.823   5.339  11.694
46705SOL    HW141947  14.744   5.291  11.721
46705SOL    HW241948  14.841   5.398  11.768
46706SOL     OW41949   1.241   9.964   0.432
46706SOL    HW141950   1.294   9.887   0.413
46706SOL    HW241951   1.163   9.953   0.377
46707SOL     OW41952   0.214   0.706  14.391
46707SOL    HW141953   0.268   0.775  14.429
46707SOL    HW241954   0.256   0.685  14.308
46708SOL     OW41955  10.856   8.101   1.106
46708SOL    HW141956  10.910   8.054   1.170
46708SOL    HW241957  10.863   8.193   1.131
46709SOL     OW41958   8.007  11.360   1.722
46709SOL    HW141959   8.048  11.340   1.807
46709SOL    HW241960   7.914  11.342   1.736
46710SOL     OW41961   0.643   0.885   8.270
46710SOL    HW141962   0.595   0.930   8.340
46710SOL    HW241963   0.681   0.809   8.313
46711SOL     OW41964   1.502  10.857   4.644
46711SOL    HW141965   1.492  10.952   4.649
46711SOL    HW241966   1.550  10.834   4.723
46712SOL     OW41967   5.959   3.432   4.301
46712SOL    HW141968   5.967   3.414   4.208
46712SOL    HW241969   5.873   3.474   4.310
46713SOL     OW41970  12.091  13.188   3.466
46713SOL    HW141971  12.011  13.136   3.453
46713SOL    HW241972  12.082  13.224   3.554
46714SOL     OW41973  11.946   5.371   9.298
46714SOL    HW141974  11.890   5.420   9.359
46714SOL    HW241975  12.032   5.413   9.307
46715SOL     OW41976   9.583  11.770  11.726
46715SOL    HW141977   9.549  11.804  11.809
46715SOL    HW241978   9.615  11.848  11.680
46716SOL     OW41979   7.528   0.572   4.338
46716SOL    HW141980   7.468   0.633   4.382
46716SOL    HW241981   7.604   0.625   4.315
46717SOL     OW41982   2.860   7.234  12.634
46717SOL    HW141983   2.825   7.277  12.556
46717SOL    HW241984   2.796   7.251  12.703
46718SOL     OW41985   4.515  13.572  12.017
46718SOL    HW141986   4.434  13.561  12.068
46718SOL    HW241987   4.538  13.483  11.990
46719SOL     OW41988   5.379   4.663  14.460
46719SOL    HW141989   5.448   4.598  14.455
46719SOL    HW241990   5.406   4.731  14.399
46720SOL     OW41991   3.323  10.011   9.535
46720SOL    HW141992   3.349   9.925   9.568
46720SOL    HW241993   3.236   9.996   9.496
46721SOL     OW41994   2.700   0.200   6.983
46721SOL    HW141995   2.747   0.162   7.058
46721SOL    HW241996   2.698   0.294   7.001
46722SOL     OW41997   9.108  10.908   7.373
46722SOL    HW141998   9.092  10.978   7.437
46722SOL    HW241999   9.110  10.953   7.289
46723SOL     OW42000   6.127   8.621   2.804
46723SOL    HW142001   6.203   8.614   2.746
46723SOL    HW242002   6.127   8.539   2.853
46724SOL     OW42003   6.905   0.086   5.210
46724SOL    HW142004   6.903   0.164   5.267
46724SOL    HW242005   6.950   0.020   5.263
46725SOL     OW42006   4.664   0.283   7.628
46725SOL    HW142007   4.740   0.327   7.591
46725SOL    HW242008   4.697   0.240   7.707
46726SOL     OW42009   4.107  13.012   3.519
46726SOL    HW142010   4.094  12.917   3.511
46726SOL    HW242011   4.056  13.037   3.596
46727SOL     OW42012  10.542  12.595  13.907
46727SOL    HW142013  10.564  12.514  13.954
46727SOL    HW242014  10.451  12.583  13.880
46728SOL     OW42015  11.586   8.501  12.947
46728SOL    HW142016  11.595   8.533  13.037
46728SOL    HW242017  11.600   8.407  12.953
46729SOL     OW42018   6.181  13.149   1.405
46729SOL    HW142019   6.164  13.138   1.499
46729SOL    HW242020   6.248  13.084   1.385
46730SOL     OW42021  14.473   8.588   3.671
46730SOL    HW142022  14.423   8.657   3.627
46730SOL    HW242023  14.412   8.551   3.734
46731SOL     OW42024   3.292   8.975   7.035
46731SOL    HW142025   3.263   8.954   7.123
46731SOL    HW242026   3.225   9.033   7.000
46732SOL     OW42027   4.993  11.978   3.880
46732SOL    HW142028   4.979  11.904   3.821
46732SOL    HW242029   5.006  11.937   3.966
46733SOL     OW42030   0.628  14.861  14.485
46733SOL    HW142031   0.537  14.880  14.505
46733SOL    HW242032   0.631  14.766  14.477
46734SOL     OW42033   8.249   7.052   8.023
46734SOL    HW142034   8.290   6.971   7.992
46734SOL    HW242035   8.269   7.117   7.955
46735SOL     OW42036  14.748   1.984  12.833
46735SOL    HW142037  14.759   2.047  12.905
46735SOL    HW242038  14.655   1.988  12.812
46736SOL     OW42039   9.927   1.797   1.724
46736SOL    HW142040   9.846   1.748   1.731
46736SOL    HW242041   9.916   1.850   1.645
46737SOL     OW42042  10.234   8.406   8.992
46737SOL    HW142043  10.159   8.433   9.045
46737SOL    HW242044  10.196   8.376   8.909
46738SOL     OW42045   9.106  13.680   2.290
46738SOL    HW142046   9.012  13.669   2.279
46738SOL    HW242047   9.132  13.740   2.220
46739SOL     OW42048  11.470   3.229   7.535
46739SOL    HW142049  11.495   3.269   7.452
46739SOL    HW242050  11.436   3.301   7.588
46740SOL     OW42051  11.691   2.266  13.432
46740SOL    HW142052  11.771   2.263  13.380
46740SOL    HW242053  11.641   2.339  13.396
46741SOL     OW42054  12.998   5.604   0.203
46741SOL    HW142055  12.991   5.576   0.112
46741SOL    HW242056  13.065   5.546   0.241
46742SOL     OW42057   4.975  12.758   0.916
46742SOL    HW142058   4.890  12.752   0.871
46742SOL    HW242059   5.028  12.813   0.859
46743SOL     OW42060  13.249   9.691  13.524
46743SOL    HW142061  13.233   9.736  13.441
46743SOL    HW242062  13.320   9.740  13.564
46744SOL     OW42063   8.354   6.689   9.604
46744SOL    HW142064   8.386   6.669   9.517
46744SOL    HW242065   8.426   6.667   9.663
46745SOL     OW42066   6.809   9.611   4.870
46745SOL    HW142067   6.866   9.551   4.919
46745SOL    HW242068   6.835   9.698   4.900
46746SOL     OW42069   8.436   3.385  14.113
46746SOL    HW142070   8.460   3.397  14.022
46746SOL    HW242071   8.409   3.293  14.120
46747SOL     OW42072   6.475  11.906   2.259
46747SOL    HW142073   6.462  11.833   2.319
46747SOL    HW242074   6.531  11.967   2.306
46748SOL     OW42075   5.833  12.068   4.406
46748SOL    HW142076   5.886  12.103   4.478
46748SOL    HW242077   5.835  11.973   4.419
46749SOL     OW42078  11.037   9.385   2.570
46749SOL    HW142079  11.088   9.309   2.543
46749SOL    HW242080  11.085   9.421   2.644
46750SOL     OW42081  13.487  11.307   6.611
46750SOL    HW142082  13.518  11.227   6.653
46750SOL    HW242083  13.566  11.346   6.573
46751SOL     OW42084   6.434   0.476   9.882
46751SOL    HW142085   6.525   0.491   9.907
46751SOL    HW242086   6.395   0.435   9.959
46752SOL     OW42087   7.395   4.973   8.905
46752SOL    HW142088   7.460   4.995   8.972
46752SOL    HW242089   7.341   5.051   8.898
46753SOL     OW42090   8.006  11.545  13.784
46753SOL    HW142091   8.059  11.473  13.751
46753SOL    HW242092   8.021  11.616  13.721
46754SOL     OW42093  12.937   1.403  12.675
46754SOL    HW142094  12.849   1.369  12.692
46754SOL    HW242095  12.994   1.354  12.733
46755SOL     OW42096   5.915   0.434   3.695
46755SOL    HW142097   5.894   0.354   3.646
46755SOL    HW242098   5.834   0.454   3.743
46756SOL     OW42099   4.255   0.934   0.698
46756SOL    HW142100   4.317   0.991   0.652
46756SOL    HW242101   4.191   0.993   0.737
46757SOL     OW42102  13.688   9.616   1.837
46757SOL    HW142103  13.597   9.605   1.866
46757SOL    HW242104  13.725   9.679   1.899
46758SOL     OW42105  14.577   2.730   7.325
46758SOL    HW142106  14.617   2.794   7.266
46758SOL    HW242107  14.527   2.782   7.387
46759SOL     OW42108   6.276  13.862   3.078
46759SOL    HW142109   6.341  13.920   3.118
46759SOL    HW242110   6.265  13.791   3.140
46760SOL     OW42111   0.657  12.711   9.491
46760SOL    HW142112   0.639  12.639   9.551
46760SOL    HW242113   0.587  12.774   9.506
46761SOL     OW42114   1.625  13.642   0.757
46761SOL    HW142115   1.540  13.671   0.791
46761SOL    HW242116   1.674  13.618   0.835
46762SOL     OW42117  14.092   9.404  10.449
46762SOL    HW142118  14.098   9.472  10.517
46762SOL    HW242119  13.998   9.394  10.433
46763SOL     OW42120   2.405  10.771   4.068
46763SOL    HW142121   2.452  10.812   3.996
46763SOL    HW242122   2.403  10.678   4.046
46764SOL     OW42123  12.772   9.881   4.171
46764SOL    HW142124  12.839   9.945   4.149
46764SOL    HW242125  12.708   9.930   4.224
46765SOL     OW42126  11.013   5.931   2.702
46765SOL    HW142127  11.078   5.989   2.663
46765SOL    HW242128  10.951   5.990   2.745
46766SOL     OW42129   0.275   9.856   6.370
46766SOL    HW142130   0.248   9.827   6.457
46766SOL    HW242131   0.302   9.947   6.382
46767SOL     OW42132   1.016   7.653  11.386
46767SOL    HW142133   0.953   7.619  11.449
46767SOL    HW242134   1.019   7.586  11.317
46768SOL     OW42135  14.340  13.947   1.526
46768SOL    HW142136  14.291  13.871   1.496
46768SOL    HW242137  14.404  13.964   1.456
46769SOL     OW42138   0.231  14.510   9.821
46769SOL    HW142139   0.154  14.544   9.866
46769SOL    HW242140   0.274  14.455   9.887
46770SOL     OW42141   7.331  12.601  11.440
46770SOL    HW142142   7.335  12.640  11.527
46770SOL    HW242143   7.420  12.605  11.407
46771SOL     OW42144   3.159  13.100   5.973
46771SOL    HW142145   3.230  13.067   6.029
46771SOL    HW242146   3.080  13.055   6.005
46772SOL     OW42147   6.414   3.092   3.779
46772SOL    HW142148   6.336   3.146   3.763
46772SOL    HW242149   6.486   3.143   3.745
46773SOL     OW42150   7.353  12.548   5.668
46773SOL    HW142151   7.269  12.503   5.664
46773SOL    HW242152   7.400  12.504   5.739
46774SOL     OW42153  11.480   7.926  12.876
46774SOL    HW142154  11.444   7.958  12.959
46774SOL    HW242155  11.408   7.935  12.814
46775SOL     OW42156   1.520   4.366  11.223
46775SOL    HW142157   1.458   4.311  11.175
46775SOL    HW242158   1.506   4.344  11.315
46776SOL     OW42159  12.471   6.444   3.618
46776SOL    HW142160  12.498   6.496   3.693
46776SOL    HW242161  12.502   6.355   3.638
46777SOL     OW42162   1.579   0.127   2.369
46777SOL    HW142163   1.613   0.052   2.419
46777SOL    HW242164   1.507   0.160   2.422
46778SOL     OW42165   3.472   2.705   5.575
46778SOL    HW142166   3.517   2.787   5.553
46778SOL    HW242167   3.427   2.681   5.494
46779SOL     OW42168   2.231   8.547   1.010
46779SOL    HW142169   2.241   8.624   1.066
46779SOL    HW242170   2.139   8.522   1.019
46780SOL     OW42171  11.611  13.373  10.060
46780SOL    HW142172  11.630  13.445  10.120
46780SOL    HW242173  11.532  13.401  10.014
46781SOL     OW42174   4.519   6.708   3.315
46781SOL    HW142175   4.526   6.774   3.384
46781SOL    HW242176   4.606   6.669   3.310
46782SOL     OW42177  11.948   4.900  12.592
46782SOL    HW142178  11.855   4.903  12.568
46782SOL    HW242179  11.993   4.876  12.511
46783SOL     OW42180   1.568  13.796   8.273
46783SOL    HW142181   1.478  13.767   8.264
46783SOL    HW242182   1.569  13.849   8.353
46784SOL     OW42183  10.061  14.356   4.211
46784SOL    HW142184  10.147  14.389   4.183
46784SOL    HW242185  10.029  14.306   4.137
46785SOL     OW42186   0.672   7.724   4.066
46785SOL    HW142187   0.712   7.639   4.045
46785SOL    HW242188   0.733   7.789   4.030
46786SOL     OW42189   8.221   0.731   9.555
46786SOL    HW142190   8.272   0.762   9.630
46786SOL    HW242191   8.284   0.727   9.483
46787SOL     OW42192   2.282  11.058   9.068
46787SOL    HW142193   2.356  11.041   9.009
46787SOL    HW242194   2.204  11.044   9.013
46788SOL     OW42195   7.071  12.893   2.557
46788SOL    HW142196   7.011  12.915   2.629
46788SOL    HW242197   7.093  12.801   2.572
46789SOL     OW42198  10.160  11.530  12.532
46789SOL    HW142199  10.158  11.610  12.585
46789SOL    HW242200  10.204  11.465  12.588
46790SOL     OW42201   5.011  10.595  14.272
46790SOL    HW142202   4.996  10.599  14.177
46790SOL    HW242203   4.985  10.506  14.296
46791SOL     OW42204   1.801   1.498   2.406
46791SOL    HW142205   1.831   1.407   2.405
46791SOL    HW242206   1.723   1.497   2.460
46792SOL     OW42207   9.699  14.571  10.105
46792SOL    HW142208   9.751  14.646  10.077
46792SOL    HW242209   9.751  14.531  10.175
46793SOL     OW42210  11.969   4.112  11.033
46793SOL    HW142211  11.972   4.137  11.125
46793SOL    HW242212  11.916   4.180  10.991
46794SOL     OW42213   4.618   1.124   7.372
46794SOL    HW142214   4.552   1.059   7.397
46794SOL    HW242215   4.579   1.170   7.298
46795SOL     OW42216  13.241  14.268   6.455
46795SOL    HW142217  13.170  14.317   6.496
46795SOL    HW242218  13.316  14.326   6.459
46796SOL     OW42219  13.391   3.885  14.828
46796SOL    HW142220  13.438   3.945   0.004
46796SOL    HW242221  13.299   3.909  14.839
46797SOL     OW42222  10.052  11.683   2.720
46797SOL    HW142223  10.136  11.640   2.735
46797SOL    HW242224  10.002  11.621   2.668
46798SOL     OW42225  12.059   7.856   4.523
46798SOL    HW142226  12.037   7.949   4.535
46798SOL    HW242227  12.134   7.857   4.464
46799SOL     OW42228   0.840  10.745   5.345
46799SOL    HW142229   0.871  10.786   5.426
46799SOL    HW242230   0.782  10.675   5.375
46800SOL     OW42231   5.252   0.873   2.223
46800SOL    HW142232   5.308   0.796   2.229
46800SOL    HW242233   5.189   0.862   2.295
46801SOL     OW42234   4.710  11.650   2.862
46801SOL    HW142235   4.619  11.680   2.859
46801SOL    HW242236   4.736  11.645   2.770
46802SOL     OW42237  13.477   5.990   2.361
46802SOL    HW142238  13.477   5.975   2.455
46802SOL    HW242239  13.411   6.058   2.347
46803SOL     OW42240  12.050   3.928   7.229
46803SOL    HW142241  12.075   3.952   7.140
46803SOL    HW242242  11.981   3.990   7.253
46804SOL     OW42243   6.629   4.498  11.818
46804SOL    HW142244   6.577   4.509  11.739
46804SOL    HW242245   6.684   4.422  11.800
46805SOL     OW42246   2.137  10.395   0.722
46805SOL    HW142247   2.215  10.410   0.775
46805SOL    HW242248   2.105  10.309   0.748
46806SOL     OW42249   2.837   7.547   6.753
46806SOL    HW142250   2.874   7.534   6.665
46806SOL    HW242251   2.909   7.527   6.812
46807SOL     OW42252   9.651   7.846   6.317
46807SOL    HW142253   9.557   7.837   6.300
46807SOL    HW242254   9.661   7.936   6.348
46808SOL     OW42255   2.071   8.228   5.172
46808SOL    HW142256   2.032   8.141   5.162
46808SOL    HW242257   2.058   8.250   5.264
46809SOL     OW42258  12.323  10.294   3.540
46809SOL    HW142259  12.359  10.237   3.471
46809SOL    HW242260  12.229  10.291   3.527
46810SOL     OW42261  14.366   4.951   1.251
46810SOL    HW142262  14.290   5.010   1.242
46810SOL    HW242263  14.338   4.886   1.315
46811SOL     OW42264  11.959   5.213   1.068
46811SOL    HW142265  11.896   5.159   1.115
46811SOL    HW242266  11.909   5.252   0.996
46812SOL     OW42267   2.679   2.063   0.072
46812SOL    HW142268   2.614   2.034   0.009
46812SOL    HW242269   2.632   2.067   0.155
46813SOL     OW42270  13.901   7.598   7.984
46813SOL    HW142271  13.911   7.539   7.909
46813SOL    HW242272  13.902   7.686   7.946
46814SOL     OW42273   8.232   1.577   0.149
46814SOL    HW142274   8.184   1.494   0.153
46814SOL    HW242275   8.314   1.559   0.195
46815SOL     OW42276   2.015  12.338   5.470
46815SOL    HW142277   2.072  12.261   5.474
46815SOL    HW242278   2.004  12.365   5.561
46816SOL     OW42279   6.895  11.992   2.914
46816SOL    HW142280   6.911  11.993   2.820
46816SOL    HW242281   6.973  12.032   2.953
46817SOL     OW42282   6.999   9.159  12.234
46817SOL    HW142283   7.087   9.193  12.250
46817SOL    HW242284   7.003   9.123  12.146
46818SOL     OW42285   8.435   0.860   6.878
46818SOL    HW142286   8.493   0.785   6.865
46818SOL    HW242287   8.491   0.928   6.915
46819SOL     OW42288   2.934   8.197  10.335
46819SOL    HW142289   2.975   8.139  10.271
46819SOL    HW242290   2.868   8.142  10.379
46820SOL     OW42291  14.443   7.146   9.109
46820SOL    HW142292  14.450   7.211   9.038
46820SOL    HW242293  14.484   7.189   9.184
46821SOL     OW42294  10.156   2.736   7.956
46821SOL    HW142295  10.176   2.721   8.048
46821SOL    HW242296  10.211   2.673   7.909
46822SOL     OW42297   8.016  10.108  11.069
46822SOL    HW142298   7.961  10.162  11.012
46822SOL    HW242299   8.078  10.067  11.009
46823SOL     OW42300   9.601   7.774   1.051
46823SOL    HW142301   9.612   7.824   0.971
46823SOL    HW242302   9.531   7.819   1.098
46824SOL     OW42303   6.569   1.485   6.963
46824SOL    HW142304   6.544   1.447   7.047
46824SOL    HW242305   6.573   1.580   6.980
46825SOL     OW42306  10.051   9.446  10.389
46825SOL    HW142307  10.105   9.375  10.355
46825SOL    HW242308  10.114   9.508  10.426
46826SOL     OW42309   8.317  11.686  12.160
46826SOL    HW142310   8.283  11.599  12.176
46826SOL    HW242311   8.370  11.677  12.080
46827SOL     OW42312   5.735   1.185   9.956
46827SOL    HW142313   5.754   1.268   9.913
46827SOL    HW242314   5.679   1.138   9.895
46828SOL     OW42315   3.671   2.584  14.041
46828SOL    HW142316   3.761   2.553  14.054
46828SOL    HW242317   3.668   2.669  14.085
46829SOL     OW42318  13.160  13.035   4.649
46829SOL    HW142319  13.246  13.012   4.614
46829SOL    HW242320  13.178  13.067   4.737
46830SOL     OW42321   1.633   0.776   7.221
46830SOL    HW142322   1.644   0.776   7.126
46830SOL    HW242323   1.673   0.695   7.250
46831SOL     OW42324   6.664   6.938   9.442
46831SOL    HW142325   6.759   6.931   9.449
46831SOL    HW242326   6.636   6.968   9.529
46832SOL     OW42327   5.085  14.455   6.833
46832SOL    HW142328   5.078  14.491   6.745
46832SOL    HW242329   5.164  14.401   6.831
46833SOL     OW42330   4.098   3.088   7.055
46833SOL    HW142331   4.132   3.042   7.132
46833SOL    HW242332   4.003   3.078   7.062
46834SOL     OW42333   0.428   2.232  10.842
46834SOL    HW142334   0.394   2.148  10.874
46834SOL    HW242335   0.503   2.207  10.788
46835SOL     OW42336   1.168  11.719   0.182
46835SOL    HW142337   1.214  11.759   0.108
46835SOL    HW242338   1.236  11.708   0.249
46836SOL     OW42339   8.546   5.373   2.591
46836SOL    HW142340   8.578   5.459   2.561
46836SOL    HW242341   8.461   5.363   2.549
46837SOL     OW42342  13.971   0.580  14.261
46837SOL    HW142343  13.994   0.650  14.322
46837SOL    HW242344  14.053   0.532  14.248
46838SOL     OW42345  14.425  11.529   4.905
46838SOL    HW142346  14.465  11.493   4.825
46838SOL    HW242347  14.335  11.550   4.879
46839SOL     OW42348  12.503   1.177  14.620
46839SOL    HW142349  12.553   1.108  14.663
46839SOL    HW242350  12.520   1.255  14.672
46840SOL     OW42351  11.837   1.804  12.321
46840SOL    HW142352  11.817   1.743  12.250
46840SOL    HW242353  11.755   1.811  12.370
46841SOL     OW42354  11.854   5.869  14.431
46841SOL    HW142355  11.813   5.909  14.354
46841SOL    HW242356  11.925   5.816  14.394
46842SOL     OW42357  12.582   6.648  14.578
46842SOL    HW142358  12.650   6.588  14.549
46842SOL    HW242359  12.627   6.710  14.635
46843SOL     OW42360   7.323   8.343   2.829
46843SOL    HW142361   7.397   8.383   2.782
46843SOL    HW242362   7.319   8.392   2.911
46844SOL     OW42363   4.357   9.693   9.107
46844SOL    HW142364   4.366   9.779   9.149
46844SOL    HW242365   4.445   9.655   9.111
46845SOL     OW42366   5.649   1.074   1.087
46845SOL    HW142367   5.742   1.087   1.109
46845SOL    HW242368   5.648   1.072   0.991
46846SOL     OW42369  10.086   3.861   5.834
46846SOL    HW142370  10.087   3.802   5.759
46846SOL    HW242371  10.171   3.849   5.876
46847SOL     OW42372  12.402   9.602   4.357
46847SOL    HW142373  12.370   9.692   4.367
46847SOL    HW242374  12.323   9.549   4.351
46848SOL     OW42375  10.396   6.687   7.557
46848SOL    HW142376  10.386   6.671   7.651
46848SOL    HW242377  10.449   6.766   7.551
46849SOL     OW42378   9.524   5.390   3.573
46849SOL    HW142379   9.539   5.476   3.613
46849SOL    HW242380   9.609   5.365   3.538
46850SOL     OW42381  12.364   7.192   0.192
46850SOL    HW142382  12.385   7.285   0.201
46850SOL    HW242383  12.271   7.187   0.212
46851SOL     OW42384  13.684   6.639  10.656
46851SOL    HW142385  13.636   6.698  10.714
46851SOL    HW242386  13.767   6.684  10.640
46852SOL     OW42387  12.698   2.439   8.889
46852SOL    HW142388  12.769   2.410   8.832
46852SOL    HW242389  12.637   2.365   8.891
46853SOL     OW42390  13.364   4.850   6.251
46853SOL    HW142391  13.368   4.945   6.262
46853SOL    HW242392  13.411   4.815   6.327
46854SOL     OW42393   6.043  12.102  12.982
46854SOL    HW142394   5.952  12.131  12.973
46854SOL    HW242395   6.041  12.038  13.053
46855SOL     OW42396  13.339  10.959   5.381
46855SOL    HW142397  13.381  11.024   5.437
46855SOL    HW242398  13.283  11.010   5.322
46856SOL     OW42399   3.438  11.785  10.678
46856SOL    HW142400   3.348  11.816  10.686
46856SOL    HW242401   3.447  11.720  10.748
46857SOL     OW42402   1.442   0.822  10.026
46857SOL    HW142403   1.505   0.893  10.011
46857SOL    HW242404   1.496   0.743  10.027
46858SOL     OW42405   2.208  13.452   2.912
46858SOL    HW142406   2.129  13.500   2.886
46858SOL    HW242407   2.264  13.453   2.834
46859SOL     OW42408   5.229   1.632  13.169
46859SOL    HW142409   5.140   1.605  13.148
46859SOL    HW242410   5.285   1.586  13.106
46860SOL     OW42411  14.585   8.590   1.928
46860SOL    HW142412  14.596   8.495   1.933
46860SOL    HW242413  14.558   8.616   2.016
46861SOL     OW42414  10.121  13.946  14.302
46861SOL    HW142415  10.030  13.959  14.274
46861SOL    HW242416  10.152  13.872  14.251
46862SOL     OW42417  10.269   7.608   4.588
46862SOL    HW142418  10.307   7.690   4.620
46862SOL    HW242419  10.260   7.553   4.666
46863SOL     OW42420  14.378   1.276   1.603
46863SOL    HW142421  14.336   1.216   1.542
46863SOL    HW242422  14.449   1.224   1.642
46864SOL     OW42423   6.903   0.896  13.115
46864SOL    HW142424   6.859   0.975  13.083
46864SOL    HW242425   6.990   0.926  13.141
46865SOL     OW42426   0.944   2.555   5.252
46865SOL    HW142427   0.902   2.518   5.174
46865SOL    HW242428   0.897   2.515   5.326
46866SOL     OW42429   4.679   6.698   1.259
46866SOL    HW142430   4.601   6.740   1.294
46866SOL    HW242431   4.650   6.652   1.181
46867SOL     OW42432   9.661   3.730  12.994
46867SOL    HW142433   9.604   3.656  13.013
46867SOL    HW242434   9.748   3.692  12.984
46868SOL     OW42435  12.440   3.495   4.287
46868SOL    HW142436  12.370   3.507   4.351
46868SOL    HW242437  12.520   3.519   4.333
46869SOL     OW42438  10.646   9.469  14.827
46869SOL    HW142439  10.725   9.417  14.811
46869SOL    HW242440  10.628   9.510  14.743
46870SOL     OW42441   3.198  14.074   5.803
46870SOL    HW142442   3.164  14.026   5.878
46870SOL    HW242443   3.123  14.081   5.744
46871SOL     OW42444   0.777   8.182  12.075
46871SOL    HW142445   0.721   8.136  12.138
46871SOL    HW242446   0.865   8.179  12.115
46872SOL     OW42447   9.970  14.107   7.388
46872SOL    HW142448  10.044  14.165   7.368
46872SOL    HW242449   9.895  14.166   7.393
46873SOL     OW42450  13.297   9.577   4.500
46873SOL    HW142451  13.213   9.564   4.543
46873SOL    HW242452  13.352   9.618   4.567
46874SOL     OW42453   5.774  10.685   0.383
46874SOL    HW142454   5.685  10.672   0.350
46874SOL    HW242455   5.788  10.779   0.380
46875SOL     OW42456   3.835   1.245  10.736
46875SOL    HW142457   3.788   1.162  10.735
46875SOL    HW242458   3.922   1.224  10.701
46876SOL     OW42459   0.560  12.732   8.772
46876SOL    HW142460   0.582  12.648   8.731
46876SOL    HW242461   0.518  12.783   8.702
46877SOL     OW42462   2.088   5.967  11.540
46877SOL    HW142463   2.166   5.987  11.488
46877SOL    HW242464   2.019   6.022  11.502
46878SOL     OW42465   8.411  10.940  10.365
46878SOL    HW142466   8.504  10.958  10.380
46878SOL    HW242467   8.378  11.019  10.323
46879SOL     OW42468  14.397  14.230   1.134
46879SOL    HW142469  14.453  14.159   1.166
46879SOL    HW242470  14.444  14.310   1.157
46880SOL     OW42471   2.483   6.713   6.255
46880SOL    HW142472   2.463   6.802   6.225
46880SOL    HW242473   2.398   6.673   6.270
46881SOL     OW42474  13.604  10.996   9.340
46881SOL    HW142475  13.564  10.993   9.426
46881SOL    HW242476  13.592  11.086   9.311
46882SOL     OW42477  10.101  10.395   0.313
46882SOL    HW142478  10.081  10.473   0.262
46882SOL    HW242479  10.022  10.381   0.366
46883SOL     OW42480   2.309   2.796   4.138
46883SOL    HW142481   2.234   2.847   4.108
46883SOL    HW242482   2.368   2.860   4.178
46884SOL     OW42483   0.661   0.888   2.938
46884SOL    HW142484   0.721   0.839   2.882
46884SOL    HW242485   0.605   0.822   2.978
46885SOL     OW42486  10.477   2.348   5.614
46885SOL    HW142487  10.478   2.252   5.614
46885SOL    HW242488  10.414   2.371   5.546
46886SOL     OW42489   2.861   3.328   0.755
46886SOL    HW142490   2.800   3.384   0.706
46886SOL    HW242491   2.945   3.373   0.747
46887SOL     OW42492   7.067   7.079  12.433
46887SOL    HW142493   7.072   7.125  12.349
46887SOL    HW242494   7.033   7.145  12.494
46888SOL     OW42495   0.476  11.964  10.602
46888SOL    HW142496   0.387  11.989  10.627
46888SOL    HW242497   0.487  11.999  10.514
46889SOL     OW42498  10.683   1.437   8.140
46889SOL    HW142499  10.669   1.376   8.212
46889SOL    HW242500  10.697   1.382   8.063
46890SOL     OW42501   0.082   0.413  10.607
46890SOL    HW142502   0.130   0.334  10.631
46890SOL    HW242503   0.003   0.381  10.564
46891SOL     OW42504   0.097   0.450  11.269
46891SOL    HW142505   0.052   0.519  11.317
46891SOL    HW242506   0.046   0.371  11.287
46892SOL     OW42507   4.256  12.505   5.398
46892SOL    HW142508   4.169  12.468   5.384
46892SOL    HW242509   4.246  12.598   5.380
46893SOL     OW42510   0.144   5.793   7.342
46893SOL    HW142511   0.053   5.765   7.336
46893SOL    HW242512   0.195   5.711   7.343
46894SOL     OW42513  13.602  11.008   8.740
46894SOL    HW142514  13.634  11.017   8.650
46894SOL    HW242515  13.656  10.940   8.779
46895SOL     OW42516   0.059   5.616   1.315
46895SOL    HW142517  14.852   5.602   1.281
46895SOL    HW242518   0.048   5.617   1.410
46896SOL     OW42519   1.636   5.026  14.108
46896SOL    HW142520   1.680   5.074  14.178
46896SOL    HW242521   1.607   5.094  14.047
46897SOL     OW42522   6.507   5.925   9.370
46897SOL    HW142523   6.564   5.936   9.446
46897SOL    HW242524   6.467   6.011   9.357
46898SOL     OW42525  13.224  13.332   1.766
46898SOL    HW142526  13.128  13.330   1.768
46898SOL    HW242527  13.249  13.269   1.698
46899SOL     OW42528  13.640   0.838  13.406
46899SOL    HW142529  13.670   0.754  13.370
46899SOL    HW242530  13.558   0.856  13.360
46900SOL     OW42531  12.418   0.552  10.881
46900SOL    HW142532  12.408   0.515  10.793
46900SOL    HW242533  12.328   0.559  10.914
46901SOL     OW42534   6.068   6.248  10.687
46901SOL    HW142535   6.156   6.274  10.659
46901SOL    HW242536   6.011   6.274  10.615
46902SOL     OW42537   0.137  10.551   3.017
46902SOL    HW142538   0.158  10.609   3.091
46902SOL    HW242539   0.070  10.492   3.052
46903SOL     OW42540  12.435  14.859   8.297
46903SOL    HW142541  12.484   0.046   8.342
46903SOL    HW242542  12.349  14.860   8.338
46904SOL     OW42543   5.726   0.209  13.807
46904SOL    HW142544   5.681   0.185  13.726
46904SOL    HW242545   5.690   0.294  13.831
46905SOL     OW42546  14.437   7.002   2.293
46905SOL    HW142547  14.422   7.030   2.383
46905SOL    HW242548  14.474   7.079   2.250
46906SOL     OW42549  10.730   4.185  13.298
46906SOL    HW142550  10.692   4.219  13.217
46906SOL    HW242551  10.735   4.261  13.356
46907SOL     OW42552   6.054   0.657   0.495
46907SOL    HW142553   6.126   0.665   0.432
46907SOL    HW242554   6.076   0.579   0.546
46908SOL     OW42555   9.915   7.238  11.497
46908SOL    HW142556   9.823   7.240  11.472
46908SOL    HW242557   9.914   7.215  11.590
46909SOL     OW42558   8.245   7.877   3.139
46909SOL    HW142559   8.180   7.948   3.145
46909SOL    HW242560   8.299   7.888   3.217
46910SOL     OW42561   0.576   5.196  11.704
46910SOL    HW142562   0.639   5.136  11.662
46910SOL    HW242563   0.523   5.228  11.631
46911SOL     OW42564   4.899   4.526   5.518
46911SOL    HW142565   4.869   4.584   5.588
46911SOL    HW242566   4.974   4.570   5.479
46912SOL     OW42567   6.462   5.221  14.477
46912SOL    HW142568   6.513   5.274  14.417
46912SOL    HW242569   6.525   5.161  14.516
46913SOL     OW42570  10.743  11.620  13.854
46913SOL    HW142571  10.746  11.706  13.895
46913SOL    HW242572  10.835  11.591  13.854
46914SOL     OW42573  13.981   7.327   4.963
46914SOL    HW142574  14.059   7.272   4.960
46914SOL    HW242575  14.014   7.414   4.987
46915SOL     OW42576   0.727  10.364  13.949
46915SOL    HW142577   0.771  10.305  14.010
46915SOL    HW242578   0.657  10.404  14.001
46916SOL     OW42579   7.437   6.974  11.369
46916SOL    HW142580   7.479   6.934  11.293
46916SOL    HW242581   7.358   7.016  11.334
46917SOL     OW42582  12.361   8.077   9.514
46917SOL    HW142583  12.407   8.076   9.429
46917SOL    HW242584  12.429   8.099   9.577
46918SOL     OW42585   0.008  12.040  10.919
46918SOL    HW142586  14.831  12.065  10.847
46918SOL    HW242587  14.853  12.083  10.996
46919SOL     OW42588   4.219  11.599   9.727
46919SOL    HW142589   4.212  11.503   9.727
46919SOL    HW242590   4.201  11.624   9.818
46920SOL     OW42591   0.055  10.235   7.077
46920SOL    HW142592   0.085  10.200   6.993
46920SOL    HW242593  14.856  10.281   7.055
46921SOL     OW42594   4.521  10.970   9.559
46921SOL    HW142595   4.600  10.953   9.612
46921SOL    HW242596   4.481  11.047   9.600
46922SOL     OW42597  13.932  13.407   9.627
46922SOL    HW142598  13.990  13.470   9.585
46922SOL    HW242599  13.976  13.384   9.709
46923SOL     OW42600   2.390   2.912  14.371
46923SOL    HW142601   2.335   2.913  14.293
46923SOL    HW242602   2.470   2.867  14.344
46924SOL     OW42603   1.673  11.767   6.844
46924SOL    HW142604   1.630  11.688   6.810
46924SOL    HW242605   1.604  11.833   6.846
46925SOL     OW42606  11.729   4.367   3.129
46925SOL    HW142607  11.658   4.361   3.065
46925SOL    HW242608  11.684   4.380   3.213
46926SOL     OW42609   2.160  11.119   6.407
46926SOL    HW142610   2.242  11.099   6.451
46926SOL    HW242611   2.178  11.104   6.314
46927SOL     OW42612  11.479  13.880   9.124
46927SOL    HW142613  11.451  13.948   9.184
46927SOL    HW242614  11.571  13.865   9.146
46928SOL     OW42615  11.974  12.266  14.617
46928SOL    HW142616  11.950  12.346  14.569
46928SOL    HW242617  12.034  12.297  14.685
46929SOL     OW42618   9.648   8.656   3.546
46929SOL    HW142619   9.695   8.698   3.618
46929SOL    HW242620   9.611   8.576   3.584
46930SOL     OW42621   9.033   3.857   8.994
46930SOL    HW142622   8.973   3.859   8.920
46930SOL    HW242623   8.975   3.851   9.071
46931SOL     OW42624  11.814   6.519  13.233
46931SOL    HW142625  11.754   6.460  13.187
46931SOL    HW242626  11.841   6.582  13.166
46932SOL     OW42627   6.244   6.154   6.472
46932SOL    HW142628   6.328   6.199   6.472
46932SOL    HW242629   6.188   6.209   6.527
46933SOL     OW42630  13.131  13.971   5.161
46933SOL    HW142631  13.162  13.883   5.179
46933SOL    HW242632  13.049  13.959   5.113
46934SOL     OW42633   5.834  11.763  10.090
46934SOL    HW142634   5.929  11.768  10.100
46934SOL    HW242635   5.805  11.854  10.098
46935SOL     OW42636   7.834   5.901  12.699
46935SOL    HW142637   7.758   5.953  12.673
46935SOL    HW242638   7.861   5.938  12.783
46936SOL     OW42639   8.174   9.587   2.694
46936SOL    HW142640   8.263   9.620   2.694
46936SOL    HW242641   8.177   9.509   2.638
46937SOL     OW42642   0.624   8.210  11.823
46937SOL    HW142643   0.545   8.165  11.853
46937SOL    HW242644   0.672   8.229  11.904
46938SOL     OW42645   8.605   5.845  10.385
46938SOL    HW142646   8.538   5.777  10.377
46938SOL    HW242647   8.685   5.797  10.406
46939SOL     OW42648   7.154   3.758   5.956
46939SOL    HW142649   7.220   3.725   5.894
46939SOL    HW242650   7.101   3.681   5.978
46940SOL     OW42651  13.386   8.974   3.323
46940SOL    HW142652  13.295   8.981   3.354
46940SOL    HW242653  13.421   9.063   3.331
46941SOL     OW42654  13.467   9.132   0.011
46941SOL    HW142655  13.504   9.171  14.813
46941SOL    HW242656  13.518   9.171   0.082
46942SOL     OW42657  14.274   6.861   5.324
46942SOL    HW142658  14.301   6.939   5.373
46942SOL    HW242659  14.273   6.890   5.233
46943SOL     OW42660   6.927   2.880  11.590
46943SOL    HW142661   6.857   2.924  11.542
46943SOL    HW242662   6.968   2.822  11.526
46944SOL     OW42663  11.544   1.419  11.837
46944SOL    HW142664  11.536   1.483  11.766
46944SOL    HW242665  11.493   1.457  11.909
46945SOL     OW42666   6.500  14.638  12.906
46945SOL    HW142667   6.454  14.618  12.824
46945SOL    HW242668   6.460  14.719  12.937
46946SOL     OW42669   3.370   8.394   3.308
46946SOL    HW142670   3.348   8.387   3.400
46946SOL    HW242671   3.383   8.487   3.293
46947SOL     OW42672  12.615   9.722   8.573
46947SOL    HW142673  12.616   9.716   8.478
46947SOL    HW242674  12.533   9.680   8.599
46948SOL     OW42675   8.357   2.242   3.044
46948SOL    HW142676   8.450   2.262   3.040
46948SOL    HW242677   8.332   2.260   3.135
46949SOL     OW42678   8.978   0.635   3.094
46949SOL    HW142679   8.931   0.676   3.020
46949SOL    HW242680   9.034   0.705   3.127
46950SOL     OW42681   5.978   5.861   8.145
46950SOL    HW142682   5.910   5.832   8.085
46950SOL    HW242683   5.933   5.878   8.228
46951SOL     OW42684  14.481   6.586   6.329
46951SOL    HW142685  14.523   6.500   6.323
46951SOL    HW242686  14.390   6.566   6.350
46952SOL     OW42687   3.814   0.894  10.840
46952SOL    HW142688   3.721   0.893  10.818
46952SOL    HW242689   3.820   0.845  10.922
46953SOL     OW42690   8.395  14.631  13.733
46953SOL    HW142691   8.464  14.667  13.676
46953SOL    HW242692   8.430  14.642  13.822
46954SOL     OW42693   7.326  10.937  14.432
46954SOL    HW142694   7.236  10.967  14.443
46954SOL    HW242695   7.379  11.012  14.458
46955SOL     OW42696   2.002  14.540  12.489
46955SOL    HW142697   2.081  14.588  12.515
46955SOL    HW242698   1.982  14.484  12.565
46956SOL     OW42699  13.083  12.079   2.566
46956SOL    HW142700  13.105  12.138   2.494
46956SOL    HW242701  13.117  12.123   2.644
46957SOL     OW42702  14.351   9.906   2.111
46957SOL    HW142703  14.280   9.971   2.104
46957SOL    HW242704  14.421   9.952   2.156
46958SOL     OW42705   4.317   5.367   2.695
46958SOL    HW142706   4.326   5.278   2.661
46958SOL    HW242707   4.226   5.390   2.679
46959SOL     OW42708   0.042   3.575  12.333
46959SOL    HW142709   0.038   3.623  12.415
46959SOL    HW242710  14.880   3.631  12.269
46960SOL     OW42711  14.114   3.901   2.403
46960SOL    HW142712  14.075   3.819   2.434
46960SOL    HW242713  14.204   3.877   2.381
46961SOL     OW42714   2.013   2.951   1.637
46961SOL    HW142715   2.065   2.985   1.564
46961SOL    HW242716   2.056   2.869   1.661
46962SOL     OW42717   5.643   6.985   4.446
46962SOL    HW142718   5.611   6.965   4.358
46962SOL    HW242719   5.735   7.007   4.434
46963SOL     OW42720  13.955  13.396   6.423
46963SOL    HW142721  14.021  13.465   6.424
46963SOL    HW242722  13.875  13.439   6.393
46964SOL     OW42723   6.884  12.724  10.368
46964SOL    HW142724   6.814  12.763  10.420
46964SOL    HW242725   6.906  12.792  10.303
46965SOL     OW42726   1.475  14.529   7.382
46965SOL    HW142727   1.429  14.500   7.303
46965SOL    HW242728   1.565  14.545   7.353
46966SOL     OW42729   5.530   5.892   6.785
46966SOL    HW142730   5.479   5.897   6.704
46966SOL    HW242731   5.606   5.948   6.769
46967SOL     OW42732  11.823  14.560   1.548
46967SOL    HW142733  11.896  14.585   1.605
46967SOL    HW242734  11.858  14.565   1.459
46968SOL     OW42735  12.585   9.729   5.969
46968SOL    HW142736  12.601   9.635   5.976
46968SOL    HW242737  12.495   9.736   5.938
46969SOL     OW42738   6.105   9.946   8.276
46969SOL    HW142739   6.050   9.996   8.215
46969SOL    HW242740   6.186   9.996   8.282
46970SOL     OW42741   9.765  11.417   1.938
46970SOL    HW142742   9.809  11.475   1.876
46970SOL    HW242743   9.729  11.346   1.884
46971SOL     OW42744  10.509   2.760   7.782
46971SOL    HW142745  10.597   2.753   7.819
46971SOL    HW242746  10.520   2.737   7.690
46972SOL     OW42747   9.495   1.753  14.251
46972SOL    HW142748   9.439   1.823  14.218
46972SOL    HW242749   9.578   1.765  14.205
46973SOL     OW42750  10.970  10.957   0.095
46973SOL    HW142751  10.931  11.044   0.105
46973SOL    HW242752  11.005  10.956   0.006
46974SOL     OW42753  14.093  13.616  12.083
46974SOL    HW142754  14.112  13.697  12.130
46974SOL    HW242755  14.095  13.548  12.150
46975SOL     OW42756  13.951   0.360   6.122
46975SOL    HW142757  13.975   0.451   6.138
46975SOL    HW242758  14.034   0.314   6.114
46976SOL     OW42759   2.408   1.766   9.537
46976SOL    HW142760   2.465   1.756   9.613
46976SOL    HW242761   2.322   1.736   9.567
46977SOL     OW42762   2.608  12.020   1.899
46977SOL    HW142763   2.520  12.042   1.931
46977SOL    HW242764   2.615  11.925   1.911
46978SOL     OW42765   0.832   3.194   6.419
46978SOL    HW142766   0.834   3.122   6.357
46978SOL    HW242767   0.843   3.272   6.366
46979SOL     OW42768   3.509   6.796  14.255
46979SOL    HW142769   3.595   6.833  14.275
46979SOL    HW242770   3.475   6.768  14.340
46980SOL     OW42771  14.175  10.854   6.819
46980SOL    HW142772  14.158  10.767   6.783
46980SOL    HW242773  14.141  10.914   6.753
46981SOL     OW42774   7.012   1.095   1.248
46981SOL    HW142775   7.107   1.091   1.237
46981SOL    HW242776   6.988   1.009   1.282
46982SOL     OW42777  13.616  14.745   0.338
46982SOL    HW142778  13.692  14.773   0.388
46982SOL    HW242779  13.645  14.745   0.247
46983SOL     OW42780   3.910   7.344   5.557
46983SOL    HW142781   3.930   7.432   5.525
46983SOL    HW242782   3.830   7.355   5.609
46984SOL     OW42783   3.255   8.210  12.685
46984SOL    HW142784   3.260   8.120  12.651
46984SOL    HW242785   3.172   8.243  12.653
46985SOL     OW42786  14.152   0.606  13.332
46985SOL    HW142787  14.170   0.566  13.417
46985SOL    HW242788  14.144   0.700  13.351
46986SOL     OW42789   4.077   5.547  10.545
46986SOL    HW142790   3.998   5.601  10.551
46986SOL    HW242791   4.148   5.608  10.566
46987SOL     OW42792   8.529   2.195   2.009
46987SOL    HW142793   8.587   2.166   2.079
46987SOL    HW242794   8.562   2.150   1.931
46988SOL     OW42795   0.602   1.136   6.929
46988SOL    HW142796   0.685   1.162   6.968
46988SOL    HW242797   0.540   1.203   6.957
46989SOL     OW42798   9.535   6.903   3.644
46989SOL    HW142799   9.602   6.837   3.667
46989SOL    HW242800   9.497   6.871   3.563
46990SOL     OW42801  11.680   2.001   3.016
46990SOL    HW142802  11.754   2.036   2.968
46990SOL    HW242803  11.607   2.003   2.954
46991SOL     OW42804   0.974   2.472   0.156
46991SOL    HW142805   1.037   2.542   0.145
46991SOL    HW242806   0.904   2.511   0.209
46992SOL     OW42807   8.787  10.444  13.665
46992SOL    HW142808   8.882  10.437  13.652
46992SOL    HW242809   8.750  10.434  13.577
46993SOL     OW42810   6.987   0.023   3.952
46993SOL    HW142811   7.013   0.036   4.043
46993SOL    HW242812   6.900   0.063   3.945
46994SOL     OW42813  10.299   9.353   6.477
46994SOL    HW142814  10.363   9.300   6.525
46994SOL    HW242815  10.230   9.370   6.541
46995SOL     OW42816   6.883  12.430   2.471
46995SOL    HW142817   6.858  12.521   2.456
46995SOL    HW242818   6.816  12.395   2.529
46996SOL     OW42819  14.110  13.368   4.694
46996SOL    HW142820  14.087  13.279   4.723
46996SOL    HW242821  14.187  13.390   4.747
46997SOL     OW42822   7.709  12.971  12.210
46997SOL    HW142823   7.783  13.017  12.249
46997SOL    HW242824   7.633  13.024  12.232
46998SOL     OW42825   5.388   7.023   5.749
46998SOL    HW142826   5.375   7.051   5.659
46998SOL    HW242827   5.387   6.927   5.745
46999SOL     OW42828  12.233  14.068  13.029
46999SOL    HW142829  12.266  14.058  12.940
46999SOL    HW242830  12.291  14.132  13.070
47000SOL     OW42831   0.715   2.785   8.615
47000SOL    HW142832   0.689   2.725   8.685
47000SOL    HW242833   0.684   2.742   8.535
47001SOL     OW42834   6.218   1.332   9.949
47001SOL    HW142835   6.194   1.403  10.008
47001SOL    HW242836   6.312   1.341   9.936
47002SOL     OW42837  12.942   5.202   1.931
47002SOL    HW142838  13.009   5.143   1.895
47002SOL    HW242839  12.990   5.283   1.950
47003SOL     OW42840   9.370  10.633  10.425
47003SOL    HW142841   9.409  10.607  10.508
47003SOL    HW242842   9.291  10.681  10.449
47004SOL     OW42843  12.233  12.822   4.726
47004SOL    HW142844  12.253  12.744   4.778
47004SOL    HW242845  12.295  12.888   4.758
47005SOL     OW42846  10.910   5.578   9.955
47005SOL    HW142847  10.985   5.550   9.903
47005SOL    HW242848  10.904   5.672   9.941
47006SOL     OW42849   2.320  10.807  14.839
47006SOL    HW142850   2.391  10.870  14.830
47006SOL    HW242851   2.305  10.800   0.051
47007SOL     OW42852   4.691   9.367   4.099
47007SOL    HW142853   4.634   9.309   4.149
47007SOL    HW242854   4.683   9.452   4.142
47008SOL     OW42855   9.533   6.309   9.981
47008SOL    HW142856   9.546   6.394  10.023
47008SOL    HW242857   9.506   6.330   9.892
47009SOL     OW42858  10.324   6.464   3.912
47009SOL    HW142859  10.278   6.531   3.961
47009SOL    HW242860  10.389   6.430   3.973
47010SOL     OW42861   1.239   8.772  12.709
47010SOL    HW142862   1.269   8.782  12.619
47010SOL    HW242863   1.305   8.716  12.750
47011SOL     OW42864  12.223   5.246   0.046
47011SOL    HW142865  12.278   5.228  14.852
47011SOL    HW242866  12.143   5.283   0.009
47012SOL     OW42867   0.314   7.832  11.832
47012SOL    HW142868   0.283   7.804  11.746
47012SOL    HW242869   0.400   7.870  11.816
47013SOL     OW42870   1.172   6.671   7.864
47013SOL    HW142871   1.087   6.711   7.844
47013SOL    HW242872   1.207   6.726   7.935
47014SOL     OW42873  14.636   9.222   6.702
47014SOL    HW142874  14.605   9.163   6.771
47014SOL    HW242875  14.712   9.177   6.664
47015SOL     OW42876   3.502  11.254   1.832
47015SOL    HW142877   3.593  11.284   1.823
47015SOL    HW242878   3.495  11.179   1.773
47016SOL     OW42879   5.780   2.246   7.776
47016SOL    HW142880   5.818   2.160   7.763
47016SOL    HW242881   5.850   2.297   7.817
47017SOL     OW42882   1.891   8.874   1.985
47017SOL    HW142883   1.937   8.906   1.907
47017SOL    HW242884   1.833   8.945   2.010
47018SOL     OW42885   3.181   1.052  14.346
47018SOL    HW142886   3.210   0.962  14.332
47018SOL    HW242887   3.136   1.050  14.430
47019SOL     OW42888  13.975  11.707  14.129
47019SOL    HW142889  14.022  11.781  14.168
47019SOL    HW242890  14.042  11.655  14.086
47020SOL     OW42891   6.538   5.185  10.784
47020SOL    HW142892   6.508   5.272  10.756
47020SOL    HW242893   6.483   5.123  10.736
47021SOL     OW42894  10.808   7.927   9.939
47021SOL    HW142895  10.727   7.881   9.921
47021SOL    HW242896  10.819   7.988   9.866
47022SOL     OW42897   0.421   3.010  13.888
47022SOL    HW142898   0.425   3.044  13.799
47022SOL    HW242899   0.449   3.084  13.943
47023SOL     OW42900   6.393   9.436  12.754
47023SOL    HW142901   6.364   9.417  12.843
47023SOL    HW242902   6.489   9.440  12.760
47024SOL     OW42903   6.292   5.560  14.534
47024SOL    HW142904   6.261   5.470  14.532
47024SOL    HW242905   6.288   5.590  14.443
47025SOL     OW42906   1.336   5.771  10.840
47025SOL    HW142907   1.347   5.769  10.935
47025SOL    HW242908   1.265   5.835  10.826
47026SOL     OW42909   9.112   7.592   7.059
47026SOL    HW142910   9.167   7.557   6.989
47026SOL    HW242911   9.082   7.676   7.027
47027SOL     OW42912   4.774  12.273   3.402
47027SOL    HW142913   4.707  12.240   3.341
47027SOL    HW242914   4.833  12.325   3.347
47028SOL     OW42915  11.081  12.757   3.156
47028SOL    HW142916  10.987  12.775   3.154
47028SOL    HW242917  11.120  12.831   3.111
47029SOL     OW42918  12.565   4.714   2.366
47029SOL    HW142919  12.658   4.717   2.386
47029SOL    HW242920  12.528   4.654   2.430
47030SOL     OW42921  14.246  12.216   5.672
47030SOL    HW142922  14.272  12.232   5.763
47030SOL    HW242923  14.154  12.193   5.677
47031SOL     OW42924   0.556  12.143  12.170
47031SOL    HW142925   0.476  12.090  12.175
47031SOL    HW242926   0.603  12.123  12.250
47032SOL     OW42927  13.291  11.782  11.104
47032SOL    HW142928  13.268  11.803  11.013
47032SOL    HW242929  13.373  11.829  11.119
47033SOL     OW42930   1.484  11.055  12.583
47033SOL    HW142931   1.535  10.990  12.632
47033SOL    HW242932   1.436  11.103  12.650
47034SOL     OW42933   1.233  11.356   1.186
47034SOL    HW142934   1.243  11.450   1.200
47034SOL    HW242935   1.152  11.334   1.232
47035SOL     OW42936   3.109   2.435  12.056
47035SOL    HW142937   3.047   2.370  12.086
47035SOL    HW242938   3.118   2.496  12.129
47036SOL     OW42939  14.442   1.832   3.939
47036SOL    HW142940  14.465   1.873   3.855
47036SOL    HW242941  14.362   1.877   3.967
47037SOL     OW42942   2.281   3.911  11.373
47037SOL    HW142943   2.298   3.998  11.337
47037SOL    HW242944   2.335   3.852  11.321
47038SOL     OW42945   8.665   3.459   3.833
47038SOL    HW142946   8.695   3.461   3.924
47038SOL    HW242947   8.709   3.383   3.795
47039SOL     OW42948   9.392  11.162  13.623
47039SOL    HW142949   9.307  11.119  13.619
47039SOL    HW242950   9.437  11.120  13.696
47040SOL     OW42951   0.809  12.889   0.356
47040SOL    HW142952   0.785  12.805   0.316
47040SOL    HW242953   0.863  12.932   0.290
47041SOL     OW42954  11.297   2.193  11.715
47041SOL    HW142955  11.336   2.211  11.801
47041SOL    HW242956  11.286   2.098  11.714
47042SOL     OW42957  14.110  10.230  12.137
47042SOL    HW142958  14.202  10.205  12.125
47042SOL    HW242959  14.060  10.154  12.109
47043SOL     OW42960  12.834   1.171  10.537
47043SOL    HW142961  12.908   1.221  10.501
47043SOL    HW242962  12.862   1.148  10.625
47044SOL     OW42963  13.050   4.299   0.798
47044SOL    HW142964  12.992   4.375   0.805
47044SOL    HW242965  13.092   4.293   0.884
47045SOL     OW42966   6.543  12.424   3.857
47045SOL    HW142967   6.596  12.395   3.783
47045SOL    HW242968   6.605  12.470   3.914
47046SOL     OW42969   7.387  11.854   6.650
47046SOL    HW142970   7.473  11.829   6.684
47046SOL    HW242971   7.331  11.861   6.727
47047SOL     OW42972   5.585   0.632   4.928
47047SOL    HW142973   5.594   0.696   4.999
47047SOL    HW242974   5.673   0.623   4.892
47048SOL     OW42975  12.712   5.735  10.363
47048SOL    HW142976  12.641   5.731  10.298
47048SOL    HW242977  12.717   5.828  10.387
47049SOL     OW42978  12.451  11.967   3.391
47049SOL    HW142979  12.472  12.057   3.415
47049SOL    HW242980  12.527  11.916   3.418
47050SOL     OW42981  10.570   3.386   0.002
47050SOL    HW142982  10.615   3.469  14.866
47050SOL    HW242983  10.563   3.344  14.798
47051SOL     OW42984  12.618   5.959  12.872
47051SOL    HW142985  12.543   5.990  12.823
47051SOL    HW242986  12.686   5.943  12.806
47052SOL     OW42987   5.515  13.193   6.299
47052SOL    HW142988   5.449  13.239   6.248
47052SOL    HW242989   5.512  13.103   6.266
47053SOL     OW42990   7.783   4.505   7.207
47053SOL    HW142991   7.768   4.598   7.225
47053SOL    HW242992   7.696   4.465   7.212
47054SOL     OW42993   7.600  13.076   3.087
47054SOL    HW142994   7.532  13.071   3.021
47054SOL    HW242995   7.657  13.147   3.058
47055SOL     OW42996  10.637   3.889  10.319
47055SOL    HW142997  10.567   3.882  10.384
47055SOL    HW242998  10.601   3.847  10.240
47056SOL     OW42999   2.228   0.167  14.015
47056SOL    HW143000   2.201   0.200  14.101
47056SOL    HW243001   2.251   0.076  14.031
47057SOL     OW43002   5.660   7.279  11.338
47057SOL    HW143003   5.672   7.365  11.379
47057SOL    HW243004   5.702   7.288  11.252
47058SOL     OW43005  12.455   7.654  14.737
47058SOL    HW143006  12.549   7.672  14.734
47058SOL    HW243007  12.441   7.614  14.823
47059SOL     OW43008  14.801  14.500   6.326
47059SOL    HW143009  14.798  14.405   6.317
47059SOL    HW243010  14.777  14.517   6.417
47060SOL     OW43011   7.758   0.735   5.413
47060SOL    HW143012   7.782   0.820   5.449
47060SOL    HW243013   7.664   0.729   5.425
47061SOL     OW43014  12.578   9.841   9.275
47061SOL    HW143015  12.486   9.814   9.284
47061SOL    HW243016  12.627   9.759   9.285
47062SOL     OW43017   0.707  14.191   0.170
47062SOL    HW143018   0.625  14.147   0.147
47062SOL    HW243019   0.712  14.265   0.109
47063SOL     OW43020   3.852   3.724   9.882
47063SOL    HW143021   3.904   3.663   9.935
47063SOL    HW243022   3.762   3.701   9.902
47064SOL     OW43023  13.476   1.589   1.124
47064SOL    HW143024  13.471   1.512   1.180
47064SOL    HW243025  13.527   1.653   1.174
47065SOL     OW43026  11.366   5.406   1.787
47065SOL    HW143027  11.406   5.370   1.708
47065SOL    HW243028  11.361   5.331   1.847
47066SOL     OW43029  14.332   9.290  10.340
47066SOL    HW143030  14.345   9.220  10.403
47066SOL    HW243031  14.255   9.338  10.372
47067SOL     OW43032  13.436   1.380  14.683
47067SOL    HW143033  13.448   1.304  14.740
47067SOL    HW243034  13.419   1.453  14.744
47068SOL     OW43035  14.144   3.399  12.858
47068SOL    HW143036  14.053   3.405  12.888
47068SOL    HW243037  14.177   3.319  12.900
47069SOL     OW43038   6.308   8.412   4.259
47069SOL    HW143039   6.313   8.323   4.225
47069SOL    HW243040   6.361   8.410   4.338
47070SOL     OW43041   1.612   5.851   4.611
47070SOL    HW143042   1.611   5.814   4.523
47070SOL    HW243043   1.520   5.867   4.632
47071SOL     OW43044   7.291  13.268   2.046
47071SOL    HW143045   7.385  13.283   2.039
47071SOL    HW243046   7.252  13.328   1.982
47072SOL     OW43047   8.430  13.500   9.834
47072SOL    HW143048   8.399  13.482   9.745
47072SOL    HW243049   8.450  13.414   9.871
47073SOL     OW43050  14.491   3.786   2.853
47073SOL    HW143051  14.546   3.855   2.817
47073SOL    HW243052  14.487   3.720   2.784
47074SOL     OW43053   3.568  10.410   2.125
47074SOL    HW143054   3.611  10.374   2.047
47074SOL    HW243055   3.503  10.344   2.149
47075SOL     OW43056   2.243  12.175   0.699
47075SOL    HW143057   2.323  12.212   0.662
47075SOL    HW243058   2.173  12.206   0.641
47076SOL     OW43059   0.581  12.824   6.615
47076SOL    HW143060   0.647  12.797   6.552
47076SOL    HW243061   0.599  12.916   6.631
47077SOL     OW43062  11.970  14.447   7.386
47077SOL    HW143063  11.882  14.476   7.360
47077SOL    HW243064  12.028  14.516   7.353
47078SOL     OW43065   3.156   2.491  13.175
47078SOL    HW143066   3.248   2.466  13.182
47078SOL    HW243067   3.150   2.536  13.090
47079SOL     OW43068  14.362   1.622  11.334
47079SOL    HW143069  14.436   1.682  11.332
47079SOL    HW243070  14.290   1.672  11.296
47080SOL     OW43071   5.552   5.562   4.968
47080SOL    HW143072   5.503   5.593   5.044
47080SOL    HW243073   5.573   5.641   4.919
47081SOL     OW43074   3.747   5.678   7.131
47081SOL    HW143075   3.790   5.722   7.058
47081SOL    HW243076   3.778   5.587   7.125
47082SOL     OW43077   9.821  14.871  10.250
47082SOL    HW143078   9.869  14.833  10.176
47082SOL    HW243079   9.886   0.043  10.295
47083SOL     OW43080   4.542  13.623   8.723
47083SOL    HW143081   4.516  13.544   8.772
47083SOL    HW243082   4.461  13.674   8.715
47084SOL     OW43083   5.170  14.205   0.024
47084SOL    HW143084   5.216  14.274   0.072
47084SOL    HW243085   5.127  14.250  14.833
47085SOL     OW43086   2.867  13.034  13.760
47085SOL    HW143087   2.781  13.000  13.734
47085SOL    HW243088   2.875  13.010  13.853
47086SOL     OW43089   2.057   3.770   5.271
47086SOL    HW143090   2.024   3.681   5.286
47086SOL    HW243091   2.129   3.759   5.210
47087SOL     OW43092   3.493   7.500  12.630
47087SOL    HW143093   3.467   7.411  12.607
47087SOL    HW243094   3.575   7.489  12.678
47088SOL     OW43095   5.833  14.163   4.611
47088SOL    HW143096   5.748  14.193   4.643
47088SOL    HW243097   5.891  14.238   4.621
47089SOL     OW43098   6.884   9.679  11.109
47089SOL    HW143099   6.950   9.642  11.050
47089SOL    HW243100   6.801   9.647  11.076
47090SOL     OW43101   0.606   4.893   0.303
47090SOL    HW143102   0.667   4.953   0.261
47090SOL    HW243103   0.572   4.942   0.378
47091SOL     OW43104  13.531   9.881  12.528
47091SOL    HW143105  13.611   9.833  12.505
47091SOL    HW243106  13.489   9.827  12.595
47092SOL     OW43107  11.292   2.959   6.214
47092SOL    HW143108  11.323   2.949   6.304
47092SOL    HW243109  11.206   3.000   6.223
47093SOL     OW43110  13.347   5.633   3.271
47093SOL    HW143111  13.332   5.604   3.361
47093SOL    HW243112  13.344   5.553   3.219
47094SOL     OW43113   5.917   4.594   0.654
47094SOL    HW143114   5.859   4.666   0.629
47094SOL    HW243115   5.999   4.612   0.608
47095SOL     OW43116   5.651   5.834   6.463
47095SOL    HW143117   5.696   5.913   6.496
47095SOL    HW243118   5.700   5.761   6.503
47096SOL     OW43119   0.146  13.446   4.198
47096SOL    HW143120   0.095  13.520   4.166
47096SOL    HW243121   0.235  13.463   4.166
47097SOL     OW43122   2.078   0.076   0.364
47097SOL    HW143123   2.047   0.011   0.301
47097SOL    HW243124   2.036   0.157   0.337
47098SOL     OW43125   2.308   2.009   7.108
47098SOL    HW143126   2.357   1.997   7.189
47098SOL    HW243127   2.267   2.095   7.117
47099SOL     OW43128   4.772   6.314   3.746
47099SOL    HW143129   4.769   6.388   3.686
47099SOL    HW243130   4.855   6.325   3.792
47100SOL     OW43131  10.569   1.070   7.325
47100SOL    HW143132  10.562   0.983   7.284
47100SOL    HW243133  10.661   1.077   7.348
47101SOL     OW43134   5.209   1.679   9.041
47101SOL    HW143135   5.144   1.663   8.973
47101SOL    HW243136   5.235   1.591   9.070
47102SOL     OW43137  11.056  11.991   9.719
47102SOL    HW143138  11.022  11.902   9.732
47102SOL    HW243139  11.054  12.031   9.805
47103SOL     OW43140  10.565   9.167  11.267
47103SOL    HW143141  10.500   9.130  11.327
47103SOL    HW243142  10.621   9.092  11.245
47104SOL     OW43143  12.406   9.563   2.978
47104SOL    HW143144  12.321   9.576   2.936
47104SOL    HW243145  12.462   9.528   2.909
47105SOL     OW43146  11.639   5.965   3.029
47105SOL    HW143147  11.686   5.886   3.003
47105SOL    HW243148  11.667   6.032   2.966
47106SOL     OW43149   5.280   0.872   4.970
47106SOL    HW143150   5.222   0.797   4.984
47106SOL    HW243151   5.366   0.842   5.000
47107SOL     OW43152   6.528   4.266   6.096
47107SOL    HW143153   6.553   4.359   6.098
47107SOL    HW243154   6.606   4.220   6.126
47108SOL     OW43155   0.902  13.955   0.412
47108SOL    HW143156   0.922  14.021   0.347
47108SOL    HW243157   0.892  13.874   0.362
47109SOL     OW43158   2.054   5.792   5.229
47109SOL    HW143159   1.969   5.793   5.273
47109SOL    HW243160   2.050   5.864   5.167
47110SOL     OW43161   0.378   0.666  10.632
47110SOL    HW143162   0.416   0.748  10.663
47110SOL    HW243163   0.291   0.664  10.671
47111SOL     OW43164   3.652   9.228   7.886
47111SOL    HW143165   3.569   9.220   7.838
47111SOL    HW243166   3.670   9.139   7.916
47112SOL     OW43167   1.526   7.147   1.419
47112SOL    HW143168   1.564   7.066   1.384
47112SOL    HW243169   1.446   7.119   1.463
47113SOL     OW43170   0.753   7.953   9.707
47113SOL    HW143171   0.779   7.993   9.790
47113SOL    HW243172   0.821   7.980   9.645
47114SOL     OW43173   3.344  11.659   6.700
47114SOL    HW143174   3.382  11.571   6.693
47114SOL    HW243175   3.364  11.685   6.790
47115SOL     OW43176   4.970   3.428   0.862
47115SOL    HW143177   5.025   3.356   0.832
47115SOL    HW243178   4.925   3.393   0.939
47116SOL     OW43179   7.323   6.574  11.040
47116SOL    HW143180   7.271   6.495  11.030
47116SOL    HW243181   7.351   6.573  11.131
47117SOL     OW43182   5.954  10.385  10.190
47117SOL    HW143183   5.935  10.455  10.127
47117SOL    HW243184   6.000  10.319  10.138
47118SOL     OW43185  10.911   1.077   7.026
47118SOL    HW143186  10.922   1.121   7.111
47118SOL    HW243187  10.818   1.088   7.006
47119SOL     OW43188   4.366   5.248  13.449
47119SOL    HW143189   4.277   5.221  13.470
47119SOL    HW243190   4.359   5.342  13.432
47120SOL     OW43191  12.589  11.298  13.112
47120SOL    HW143192  12.520  11.271  13.051
47120SOL    HW243193  12.543  11.311  13.195
47121SOL     OW43194   0.848  13.589   7.068
47121SOL    HW143195   0.869  13.615   6.979
47121SOL    HW243196   0.779  13.649   7.095
47122SOL     OW43197   4.092   8.382  12.035
47122SOL    HW143198   4.062   8.473  12.038
47122SOL    HW243199   4.011   8.331  12.039
47123SOL     OW43200  13.155   5.641  14.667
47123SOL    HW143201  13.230   5.590  14.698
47123SOL    HW243202  13.194   5.718  14.625
47124SOL     OW43203   9.290   0.964   1.837
47124SOL    HW143204   9.305   0.942   1.929
47124SOL    HW243205   9.364   1.020   1.813
47125SOL     OW43206   9.502   6.752  14.077
47125SOL    HW143207   9.461   6.740  14.163
47125SOL    HW243208   9.500   6.665  14.037
47126SOL     OW43209  12.667   9.020   9.032
47126SOL    HW143210  12.687   9.103   8.988
47126SOL    HW243211  12.632   9.045   9.117
47127SOL     OW43212   7.335  13.610   3.945
47127SOL    HW143213   7.293  13.526   3.966
47127SOL    HW243214   7.310  13.627   3.855
47128SOL     OW43215   5.615  10.836   6.073
47128SOL    HW143216   5.588  10.928   6.077
47128SOL    HW243217   5.696  10.833   6.124
47129SOL     OW43218   1.049  10.060   5.186
47129SOL    HW143219   1.037  10.119   5.111
47129SOL    HW243220   1.008   9.978   5.158
47130SOL     OW43221   3.978   4.826  12.913
47130SOL    HW143222   3.960   4.735  12.889
47130SOL    HW243223   3.900   4.874  12.885
47131SOL     OW43224  14.653   8.613   1.509
47131SOL    HW143225  14.721   8.624   1.443
47131SOL    HW243226  14.701   8.602   1.591
47132SOL     OW43227   1.771   1.478   6.017
47132SOL    HW143228   1.778   1.450   5.926
47132SOL    HW243229   1.679   1.465   6.039
47133SOL     OW43230   2.218   4.950   2.433
47133SOL    HW143231   2.139   4.911   2.396
47133SOL    HW243232   2.242   5.020   2.372
47134SOL     OW43233  12.370  12.584   7.036
47134SOL    HW143234  12.398  12.500   7.000
47134SOL    HW243235  12.319  12.561   7.114
47135SOL     OW43236   1.245   5.377   8.730
47135SOL    HW143237   1.325   5.358   8.682
47135SOL    HW243238   1.196   5.294   8.730
47136SOL     OW43239   5.880   1.623  10.662
47136SOL    HW143240   5.946   1.588  10.722
47136SOL    HW243241   5.796   1.603  10.704
47137SOL     OW43242   9.547   3.668  14.591
47137SOL    HW143243   9.462   3.640  14.624
47137SOL    HW243244   9.541   3.763  14.587
47138SOL     OW43245   4.040  14.528   6.199
47138SOL    HW143246   3.968  14.494   6.252
47138SOL    HW243247   4.087  14.450   6.170
47139SOL     OW43248   1.388   7.573   5.291
47139SOL    HW143249   1.433   7.655   5.313
47139SOL    HW243250   1.417   7.511   5.357
47140SOL     OW43251  11.122  11.399   1.474
47140SOL    HW143252  11.105  11.408   1.568
47140SOL    HW243253  11.218  11.394   1.468
47141SOL     OW43254   5.497   3.834   6.475
47141SOL    HW143255   5.454   3.903   6.526
47141SOL    HW243256   5.505   3.871   6.387
47142SOL     OW43257   4.418   9.827  14.360
47142SOL    HW143258   4.485   9.787  14.305
47142SOL    HW243259   4.385   9.756  14.415
47143SOL     OW43260   0.453   0.740   0.631
47143SOL    HW143261   0.437   0.680   0.558
47143SOL    HW243262   0.529   0.791   0.605
47144SOL     OW43263  14.021   2.560  13.708
47144SOL    HW143264  14.017   2.465  13.713
47144SOL    HW243265  14.046   2.588  13.796
47145SOL     OW43266   1.440   0.440   3.287
47145SOL    HW143267   1.390   0.362   3.263
47145SOL    HW243268   1.409   0.462   3.375
47146SOL     OW43269  10.570  11.525  13.656
47146SOL    HW143270  10.627  11.495  13.585
47146SOL    HW243271  10.630  11.543  13.729
47147SOL     OW43272   6.397   5.288  10.296
47147SOL    HW143273   6.379   5.218  10.232
47147SOL    HW243274   6.375   5.368  10.249
47148SOL     OW43275   5.661  13.067   4.180
47148SOL    HW143276   5.581  13.106   4.214
47148SOL    HW243277   5.662  12.978   4.215
47149SOL     OW43278  11.177   0.612  12.909
47149SOL    HW143279  11.160   0.550  12.837
47149SOL    HW243280  11.258   0.656  12.884
47150SOL     OW43281   9.498   3.849   0.960
47150SOL    HW143282   9.458   3.776   0.913
47150SOL    HW243283   9.542   3.900   0.893
47151SOL     OW43284   3.514   7.061  10.159
47151SOL    HW143285   3.553   7.031  10.077
47151SOL    HW243286   3.466   7.141  10.136
47152SOL     OW43287   9.045   5.096  10.510
47152SOL    HW143288   8.957   5.100  10.473
47152SOL    HW243289   9.101   5.140  10.446
47153SOL     OW43290  11.847  10.474   8.573
47153SOL    HW143291  11.903  10.398   8.553
47153SOL    HW243292  11.770  10.436   8.614
47154SOL     OW43293  14.435   3.948  11.453
47154SOL    HW143294  14.492   3.901  11.514
47154SOL    HW243295  14.495   4.005  11.404
47155SOL     OW43296   7.887   2.830   5.230
47155SOL    HW143297   7.875   2.844   5.136
47155SOL    HW243298   7.980   2.810   5.239
47156SOL     OW43299  11.859   9.572  14.434
47156SOL    HW143300  11.869   9.553  14.527
47156SOL    HW243301  11.876   9.489  14.390
47157SOL     OW43302  10.309   1.423   9.345
47157SOL    HW143303  10.372   1.363   9.384
47157SOL    HW243304  10.226   1.375   9.348
47158SOL     OW43305   6.483   1.277   7.949
47158SOL    HW143306   6.547   1.219   7.991
47158SOL    HW243307   6.537   1.344   7.905
47159SOL     OW43308  13.774   6.740  14.592
47159SOL    HW143309  13.827   6.664  14.568
47159SOL    HW243310  13.733   6.768  14.510
47160SOL     OW43311   7.163  12.068  10.292
47160SOL    HW143312   7.189  12.146  10.342
47160SOL    HW243313   7.116  12.013  10.355
47161SOL     OW43314   6.179   6.984   6.424
47161SOL    HW143315   6.101   6.988   6.369
47161SOL    HW243316   6.188   6.892   6.447
47162SOL     OW43317  13.401   5.835  14.650
47162SOL    HW143318  13.392   5.768  14.582
47162SOL    HW243319  13.490   5.867  14.639
47163SOL     OW43320   7.544  12.805   0.299
47163SOL    HW143321   7.612  12.850   0.250
47163SOL    HW243322   7.576  12.804   0.390
47164SOL     OW43323   2.680   3.012  10.309
47164SOL    HW143324   2.769   2.998  10.339
47164SOL    HW243325   2.636   3.055  10.382
47165SOL     OW43326   5.349  13.564  14.248
47165SOL    HW143327   5.304  13.508  14.185
47165SOL    HW243328   5.354  13.511  14.327
47166SOL     OW43329   0.943  11.060   0.657
47166SOL    HW143330   1.013  11.082   0.595
47166SOL    HW243331   0.874  11.123   0.639
47167SOL     OW43332   8.530  12.337   4.203
47167SOL    HW143333   8.523  12.364   4.111
47167SOL    HW243334   8.610  12.284   4.206
47168SOL     OW43335  14.322   4.831   1.614
47168SOL    HW143336  14.391   4.882   1.657
47168SOL    HW243337  14.368   4.757   1.574
47169SOL     OW43338   3.361  11.243   5.747
47169SOL    HW143339   3.416  11.185   5.694
47169SOL    HW243340   3.395  11.233   5.836
47170SOL     OW43341  11.911   9.377   6.826
47170SOL    HW143342  11.841   9.350   6.885
47170SOL    HW243343  11.907   9.315   6.753
47171SOL     OW43344   8.080   0.487  14.006
47171SOL    HW143345   8.011   0.461  14.067
47171SOL    HW243346   8.034   0.513  13.927
47172SOL     OW43347   1.913   7.945  13.715
47172SOL    HW143348   1.936   7.944  13.808
47172SOL    HW243349   1.893   7.854  13.694
47173SOL     OW43350   0.128   6.179   9.480
47173SOL    HW143351   0.176   6.099   9.504
47173SOL    HW243352   0.055   6.182   9.541
47174SOL     OW43353   8.220   6.882   6.189
47174SOL    HW143354   8.129   6.856   6.175
47174SOL    HW243355   8.246   6.838   6.270
47175SOL     OW43356   9.557   4.094   9.258
47175SOL    HW143357   9.522   4.183   9.254
47175SOL    HW243358   9.575   4.080   9.351
47176SOL     OW43359  12.849   8.129   9.292
47176SOL    HW143360  12.848   8.214   9.335
47176SOL    HW243361  12.759   8.119   9.258
47177SOL     OW43362  12.477   4.032   1.870
47177SOL    HW143363  12.407   4.025   1.805
47177SOL    HW243364  12.489   3.942   1.901
47178SOL     OW43365   1.053   0.236   8.355
47178SOL    HW143366   0.967   0.279   8.361
47178SOL    HW243367   1.100   0.287   8.289
47179SOL     OW43368   6.033   6.658  11.279
47179SOL    HW143369   6.085   6.580  11.297
47179SOL    HW243370   5.946   6.636  11.313
47180SOL     OW43371   4.121   0.719  13.633
47180SOL    HW143372   4.034   0.715  13.673
47180SOL    HW243373   4.163   0.637  13.659
47181SOL     OW43374  13.180   9.367  11.445
47181SOL    HW143375  13.210   9.362  11.535
47181SOL    HW243376  13.133   9.285  11.430
47182SOL     OW43377  10.386   3.668   7.515
47182SOL    HW143378  10.309   3.612   7.519
47182SOL    HW243379  10.418   3.671   7.606
47183SOL     OW43380   9.908   8.697  14.089
47183SOL    HW143381   9.903   8.732  14.178
47183SOL    HW243382   9.920   8.774  14.033
47184SOL     OW43383   1.147   9.099   0.633
47184SOL    HW143384   1.068   9.139   0.670
47184SOL    HW243385   1.119   9.064   0.549
47185SOL     OW43386   6.853   6.110  14.290
47185SOL    HW143387   6.817   6.088  14.204
47185SOL    HW243388   6.943   6.077  14.288
47186SOL     OW43389   3.621   4.251  14.816
47186SOL    HW143390   3.631   4.299   0.016
47186SOL    HW243391   3.698   4.195  14.812
47187SOL     OW43392  11.241   9.422   0.499
47187SOL    HW143393  11.255   9.511   0.530
47187SOL    HW243394  11.184   9.432   0.422
47188SOL     OW43395  11.856  12.511   0.347
47188SOL    HW143396  11.814  12.433   0.384
47188SOL    HW243397  11.835  12.581   0.409
47189SOL     OW43398  11.130  11.863   7.549
47189SOL    HW143399  11.176  11.816   7.619
47189SOL    HW243400  11.173  11.949   7.546
47190SOL     OW43401  13.454  11.015   2.544
47190SOL    HW143402  13.401  11.022   2.464
47190SOL    HW243403  13.392  11.027   2.615
47191SOL     OW43404  13.457  13.181   0.052
47191SOL    HW143405  13.376  13.153   0.009
47191SOL    HW243406  13.429  13.210   0.139
47192SOL     OW43407   9.458  12.502   6.632
47192SOL    HW143408   9.409  12.420   6.631
47192SOL    HW243409   9.397  12.565   6.670
47193SOL     OW43410   9.129   6.188  14.467
47193SOL    HW143411   9.129   6.168  14.561
47193SOL    HW243412   9.205   6.140  14.433
47194SOL     OW43413   4.956  12.698  14.842
47194SOL    HW143414   5.036  12.660  14.805
47194SOL    HW243415   4.918  12.628   0.012
47195SOL     OW43416   0.034   7.820  11.000
47195SOL    HW143417  14.838   7.786  10.957
47195SOL    HW243418   0.106   7.772  10.959
47196SOL     OW43419  13.558   5.780  13.980
47196SOL    HW143420  13.535   5.827  13.900
47196SOL    HW243421  13.541   5.688  13.959
47197SOL     OW43422   5.973   1.158   4.560
47197SOL    HW143423   5.893   1.107   4.572
47197SOL    HW243424   5.961   1.235   4.616
47198SOL     OW43425   3.472   1.071  12.582
47198SOL    HW143426   3.480   1.030  12.668
47198SOL    HW243427   3.381   1.099  12.577
47199SOL     OW43428  12.683   3.790  13.623
47199SOL    HW143429  12.745   3.826  13.559
47199SOL    HW243430  12.597   3.799  13.582
47200SOL     OW43431   1.117   5.520   4.517
47200SOL    HW143432   1.084   5.482   4.436
47200SOL    HW243433   1.039   5.556   4.560
47201SOL     OW43434  12.767  12.581   5.260
47201SOL    HW143435  12.717  12.508   5.222
47201SOL    HW243436  12.707  12.656   5.254
47202SOL     OW43437  11.560   0.909  13.021
47202SOL    HW143438  11.603   0.826  13.043
47202SOL    HW243439  11.626   0.976  13.038
47203SOL     OW43440   7.976  12.897   4.848
47203SOL    HW143441   8.058  12.911   4.896
47203SOL    HW243442   7.994  12.822   4.791
47204SOL     OW43443   9.642   1.517   4.429
47204SOL    HW143444   9.699   1.522   4.352
47204SOL    HW243445   9.622   1.424   4.439
47205SOL     OW43446   9.819   4.649   7.461
47205SOL    HW143447   9.802   4.711   7.391
47205SOL    HW243448   9.789   4.564   7.427
47206SOL     OW43449   7.768   8.999  11.405
47206SOL    HW143450   7.844   8.957  11.446
47206SOL    HW243451   7.768   8.968  11.315
47207SOL     OW43452   2.462  13.022   7.433
47207SOL    HW143453   2.544  13.047   7.477
47207SOL    HW243454   2.471  12.928   7.418
47208SOL     OW43455  11.483   5.809  13.456
47208SOL    HW143456  11.395   5.845  13.454
47208SOL    HW243457  11.514   5.826  13.545
47209SOL     OW43458  10.679  13.857   2.587
47209SOL    HW143459  10.588  13.853   2.559
47209SOL    HW243460  10.718  13.775   2.556
47210SOL     OW43461   7.173  13.280   9.022
47210SOL    HW143462   7.089  13.324   9.039
47210SOL    HW243463   7.233  13.319   9.086
47211SOL     OW43464   0.002   5.854  14.276
47211SOL    HW143465  14.791   5.856  14.256
47211SOL    HW243466   0.018   5.765  14.309
47212SOL     OW43467   3.296  10.881   4.118
47212SOL    HW143468   3.234  10.835   4.061
47212SOL    HW243469   3.335  10.813   4.171
47213SOL     OW43470  10.393   6.022  13.838
47213SOL    HW143471  10.423   6.072  13.762
47213SOL    HW243472  10.297   6.029  13.835
47214SOL     OW43473  12.739   2.960   4.950
47214SOL    HW143474  12.807   2.897   4.977
47214SOL    HW243475  12.670   2.950   5.015
47215SOL     OW43476   4.499   9.911   8.449
47215SOL    HW143477   4.411   9.874   8.441
47215SOL    HW243478   4.485  10.005   8.461
47216SOL     OW43479   2.784  10.804   3.021
47216SOL    HW143480   2.832  10.721   3.015
47216SOL    HW243481   2.713  10.787   3.083
47217SOL     OW43482  14.263   2.816  13.944
47217SOL    HW143483  14.349   2.794  13.980
47217SOL    HW243484  14.257   2.911  13.953
47218SOL     OW43485  14.058  13.159   0.987
47218SOL    HW143486  14.102  13.107   0.920
47218SOL    HW243487  14.040  13.097   1.057
47219SOL     OW43488   4.851   2.869   7.851
47219SOL    HW143489   4.820   2.946   7.898
47219SOL    HW243490   4.811   2.875   7.765
47220SOL     OW43491  11.012  11.580  13.950
47220SOL    HW143492  11.021  11.506  14.011
47220SOL    HW243493  11.081  11.641  13.975
47221SOL     OW43494  10.645   6.215   1.815
47221SOL    HW143495  10.585   6.237   1.744
47221SOL    HW243496  10.618   6.271   1.888
47222SOL     OW43497   1.521  14.856   1.244
47222SOL    HW143498   1.555  14.826   1.329
47222SOL    HW243499   1.488  14.776   1.202
47223SOL     OW43500   8.251   1.085   2.370
47223SOL    HW143501   8.204   1.132   2.301
47223SOL    HW243502   8.292   1.012   2.324
47224SOL     OW43503   5.465  13.100  14.744
47224SOL    HW143504   5.420  13.066  14.667
47224SOL    HW243505   5.421  13.059  14.818
47225SOL     OW43506   9.176   2.591  13.436
47225SOL    HW143507   9.227   2.672  13.436
47225SOL    HW243508   9.144   2.583  13.526
47226SOL     OW43509   3.388   1.255   3.211
47226SOL    HW143510   3.446   1.213   3.274
47226SOL    HW243511   3.446   1.280   3.138
47227SOL     OW43512   0.347   1.485   4.502
47227SOL    HW143513   0.256   1.511   4.515
47227SOL    HW243514   0.363   1.419   4.569
47228SOL     OW43515   3.239  14.026  10.512
47228SOL    HW143516   3.193  14.079  10.577
47228SOL    HW243517   3.171  13.972  10.472
47229SOL     OW43518   1.894  13.980   1.237
47229SOL    HW143519   1.941  13.933   1.306
47229SOL    HW243520   1.918  14.071   1.250
47230SOL     OW43521  10.661   6.882   1.921
47230SOL    HW143522  10.705   6.826   1.985
47230SOL    HW243523  10.575   6.843   1.909
47231SOL     OW43524  14.258  14.146   7.405
47231SOL    HW143525  14.226  14.230   7.372
47231SOL    HW243526  14.188  14.115   7.463
47232SOL     OW43527   6.971   1.140   5.931
47232SOL    HW143528   6.892   1.192   5.949
47232SOL    HW243529   7.034   1.169   5.998
47233SOL     OW43530  14.190   0.417   9.730
47233SOL    HW143531  14.221   0.506   9.716
47233SOL    HW243532  14.265   0.371   9.767
47234SOL     OW43533  10.343   9.967   6.048
47234SOL    HW143534  10.405  10.039   6.062
47234SOL    HW243535  10.264   9.995   6.096
47235SOL     OW43536  10.579  12.073  12.265
47235SOL    HW143537  10.659  12.123  12.273
47235SOL    HW243538  10.555  12.050  12.355
47236SOL     OW43539  13.695   3.892   2.557
47236SOL    HW143540  13.781   3.924   2.586
47236SOL    HW243541  13.676   3.942   2.478
47237SOL     OW43542   2.934   2.129   0.292
47237SOL    HW143543   2.890   2.212   0.274
47237SOL    HW243544   3.015   2.154   0.337
47238SOL     OW43545  11.264   4.691   9.654
47238SOL    HW143546  11.248   4.767   9.599
47238SOL    HW243547  11.180   4.672   9.696
47239SOL     OW43548   4.171  11.218   0.634
47239SOL    HW143549   4.081  11.228   0.665
47239SOL    HW243550   4.225  11.233   0.711
47240SOL     OW43551   8.829  13.309   0.632
47240SOL    HW143552   8.854  13.228   0.587
47240SOL    HW243553   8.894  13.318   0.702
47241SOL     OW43554   8.792   8.479   3.819
47241SOL    HW143555   8.807   8.438   3.734
47241SOL    HW243556   8.732   8.420   3.864
47242SOL     OW43557   3.236   2.148   0.359
47242SOL    HW143558   3.264   2.202   0.285
47242SOL    HW243559   3.277   2.189   0.435
47243SOL     OW43560  11.591   9.755  12.983
47243SOL    HW143561  11.558   9.734  12.895
47243SOL    HW243562  11.548   9.691  13.040
47244SOL     OW43563   2.570  12.792   8.344
47244SOL    HW143564   2.570  12.819   8.435
47244SOL    HW243565   2.553  12.698   8.346
47245SOL     OW43566   0.729   3.672   0.667
47245SOL    HW143567   0.673   3.701   0.738
47245SOL    HW243568   0.741   3.578   0.683
47246SOL     OW43569   5.069  10.860   6.975
47246SOL    HW143570   5.160  10.887   6.985
47246SOL    HW243571   5.049  10.874   6.883
47247SOL     OW43572   0.526   1.752   9.662
47247SOL    HW143573   0.524   1.683   9.595
47247SOL    HW243574   0.434   1.778   9.672
47248SOL     OW43575  11.969   7.717   2.014
47248SOL    HW143576  11.986   7.704   2.108
47248SOL    HW243577  12.006   7.803   1.995
47249SOL     OW43578  12.471   3.165   3.595
47249SOL    HW143579  12.410   3.099   3.628
47249SOL    HW243580  12.475   3.230   3.665
47250SOL     OW43581   7.654   6.380   9.879
47250SOL    HW143582   7.568   6.421   9.890
47250SOL    HW243583   7.695   6.430   9.808
47251SOL     OW43584   4.256  13.850   7.833
47251SOL    HW143585   4.292  13.868   7.920
47251SOL    HW243586   4.196  13.777   7.847
47252SOL     OW43587   9.696   9.061   2.398
47252SOL    HW143588   9.745   9.076   2.479
47252SOL    HW243589   9.710   8.968   2.379
47253SOL     OW43590   7.416  11.676   7.280
47253SOL    HW143591   7.398  11.586   7.307
47253SOL    HW243592   7.359  11.729   7.336
47254SOL     OW43593   3.854  11.435   2.581
47254SOL    HW143594   3.878  11.353   2.624
47254SOL    HW243595   3.759  11.429   2.569
47255SOL     OW43596  12.724  13.933   1.114
47255SOL    HW143597  12.703  13.855   1.165
47255SOL    HW243598  12.809  13.915   1.074
47256SOL     OW43599   8.596   7.907   5.924
47256SOL    HW143600   8.636   7.854   5.993
47256SOL    HW243601   8.514   7.938   5.962
47257SOL     OW43602   0.844  13.312   0.396
47257SOL    HW143603   0.801  13.263   0.466
47257SOL    HW243604   0.839  13.403   0.423
47258SOL     OW43605   9.214   3.215   1.088
47258SOL    HW143606   9.171   3.292   1.125
47258SOL    HW243607   9.173   3.203   1.002
47259SOL     OW43608   8.537   1.285   5.841
47259SOL    HW143609   8.622   1.312   5.876
47259SOL    HW243610   8.551   1.276   5.747
47260SOL     OW43611   2.920  12.566   4.444
47260SOL    HW143612   3.004  12.538   4.407
47260SOL    HW243613   2.919  12.528   4.532
47261SOL     OW43614  11.994   2.358  13.944
47261SOL    HW143615  11.982   2.414  13.867
47261SOL    HW243616  11.956   2.274  13.919
47262SOL     OW43617  11.695   7.581   4.165
47262SOL    HW143618  11.621   7.531   4.129
47262SOL    HW243619  11.655   7.660   4.201
47263SOL     OW43620   1.353   9.793   5.817
47263SOL    HW143621   1.412   9.769   5.745
47263SOL    HW243622   1.411   9.831   5.883
47264SOL     OW43623   3.435   2.136   7.242
47264SOL    HW143624   3.435   2.190   7.321
47264SOL    HW243625   3.515   2.163   7.195
47265SOL     OW43626   7.152   7.532  10.580
47265SOL    HW143627   7.097   7.496  10.511
47265SOL    HW243628   7.234   7.482  10.574
47266SOL     OW43629  11.567   6.862  13.571
47266SOL    HW143630  11.601   6.826  13.489
47266SOL    HW243631  11.525   6.944  13.546
47267SOL     OW43632   9.725  10.970   2.698
47267SOL    HW143633   9.714  11.041   2.635
47267SOL    HW243634   9.646  10.973   2.752
47268SOL     OW43635   2.251  10.067   8.104
47268SOL    HW143636   2.320  10.002   8.120
47268SOL    HW243637   2.172  10.016   8.090
47269SOL     OW43638  12.974  11.766   5.983
47269SOL    HW143639  12.987  11.722   6.067
47269SOL    HW243640  12.943  11.854   6.006
47270SOL     OW43641   3.595   2.769   8.398
47270SOL    HW143642   3.535   2.761   8.324
47270SOL    HW243643   3.650   2.845   8.376
47271SOL     OW43644  10.967  14.373   6.127
47271SOL    HW143645  10.929  14.348   6.211
47271SOL    HW243646  10.900  14.351   6.062
47272SOL     OW43647  11.427  12.665   4.778
47272SOL    HW143648  11.414  12.573   4.801
47272SOL    HW243649  11.479  12.700   4.850
47273SOL     OW43650  11.555   6.085  14.021
47273SOL    HW143651  11.492   6.060  13.953
47273SOL    HW243652  11.564   6.180  14.012
47274SOL     OW43653  11.474   7.665   8.369
47274SOL    HW143654  11.489   7.755   8.339
47274SOL    HW243655  11.488   7.611   8.292
47275SOL     OW43656   2.317   9.776  12.108
47275SOL    HW143657   2.268   9.850  12.145
47275SOL    HW243658   2.354   9.810  12.027
47276SOL     OW43659  11.413   8.473   6.162
47276SOL    HW143660  11.387   8.475   6.254
47276SOL    HW243661  11.506   8.449   6.163
47277SOL     OW43662  10.245   1.888   5.646
47277SOL    HW143663  10.262   1.871   5.738
47277SOL    HW243664  10.171   1.948   5.646
47278SOL     OW43665   9.013  14.599   4.777
47278SOL    HW143666   9.075  14.666   4.748
47278SOL    HW243667   9.049  14.567   4.860
47279SOL     OW43668   1.633   8.648   0.547
47279SOL    HW143669   1.659   8.722   0.602
47279SOL    HW243670   1.716   8.613   0.514
47280SOL     OW43671   8.837   6.929   2.988
47280SOL    HW143672   8.814   6.989   2.917
47280SOL    HW243673   8.910   6.971   3.033
47281SOL     OW43674  10.119   3.121   9.613
47281SOL    HW143675  10.205   3.086   9.637
47281SOL    HW243676  10.078   3.143   9.697
47282SOL     OW43677   7.377  13.610  12.424
47282SOL    HW143678   7.302  13.632  12.369
47282SOL    HW243679   7.415  13.695  12.448
47283SOL     OW43680  12.994   9.170   3.530
47283SOL    HW143681  13.060   9.125   3.583
47283SOL    HW243682  12.978   9.252   3.578
47284SOL     OW43683   1.450   5.484   9.107
47284SOL    HW143684   1.510   5.533   9.050
47284SOL    HW243685   1.384   5.450   9.047
47285SOL     OW43686   8.995   8.036   2.556
47285SOL    HW143687   9.031   8.074   2.476
47285SOL    HW243688   9.046   8.074   2.626
47286SOL     OW43689   5.080   5.164  10.328
47286SOL    HW143690   5.123   5.112  10.396
47286SOL    HW243691   5.008   5.109  10.298
47287SOL     OW43692   1.539  10.513   9.167
47287SOL    HW143693   1.584  10.590   9.132
47287SOL    HW243694   1.581  10.439   9.124
47288SOL     OW43695   2.284   0.247   5.644
47288SOL    HW143696   2.300   0.323   5.700
47288SOL    HW243697   2.310   0.172   5.697
47289SOL     OW43698  11.737   8.188   1.552
47289SOL    HW143699  11.685   8.134   1.492
47289SOL    HW243700  11.792   8.242   1.494
47290SOL     OW43701   6.343   7.251  11.083
47290SOL    HW143702   6.333   7.254  10.988
47290SOL    HW243703   6.435   7.228  11.096
47291SOL     OW43704   6.709   1.195   1.388
47291SOL    HW143705   6.620   1.202   1.353
47291SOL    HW243706   6.711   1.109   1.430
47292SOL     OW43707   5.395  13.533   4.131
47292SOL    HW143708   5.389  13.473   4.205
47292SOL    HW243709   5.306  13.538   4.096
47293SOL     OW43710   1.693   8.310  11.678
47293SOL    HW143711   1.724   8.223  11.653
47293SOL    HW243712   1.742   8.370  11.621
47294SOL     OW43713  11.084   0.859   3.794
47294SOL    HW143714  11.163   0.809   3.772
47294SOL    HW243715  11.047   0.884   3.710
47295SOL     OW43716   1.295   6.054   0.297
47295SOL    HW143717   1.352   6.042   0.373
47295SOL    HW243718   1.215   6.005   0.319
47296SOL     OW43719   3.773  12.609  10.524
47296SOL    HW143720   3.864  12.637  10.514
47296SOL    HW243721   3.736  12.671  10.587
47297SOL     OW43722   6.867   1.337   8.690
47297SOL    HW143723   6.823   1.359   8.608
47297SOL    HW243724   6.813   1.378   8.758
47298SOL     OW43725  11.576   3.536   9.843
47298SOL    HW143726  11.662   3.500   9.865
47298SOL    HW243727  11.574   3.536   9.748
47299SOL     OW43728  11.441   6.604  10.984
47299SOL    HW143729  11.536   6.590  10.983
47299SOL    HW243730  11.421   6.622  11.076
47300SOL     OW43731   3.607   8.250   4.934
47300SOL    HW143732   3.626   8.157   4.918
47300SOL    HW243733   3.660   8.273   5.011
47301SOL     OW43734   3.418  10.941  11.908
47301SOL    HW143735   3.420  10.982  11.994
47301SOL    HW243736   3.387  10.852  11.924
47302SOL     OW43737   8.080   9.913  12.653
47302SOL    HW143738   8.012   9.904  12.587
47302SOL    HW243739   8.148   9.851  12.626
47303SOL     OW43740  11.328   5.019   0.904
47303SOL    HW143741  11.351   4.926   0.903
47303SOL    HW243742  11.257   5.025   0.968
47304SOL     OW43743   4.759  12.014   3.489
47304SOL    HW143744   4.762  12.098   3.443
47304SOL    HW243745   4.746  11.950   3.420
47305SOL     OW43746  11.189   8.010   1.959
47305SOL    HW143747  11.095   8.019   1.944
47305SOL    HW243748  11.230   8.041   1.878
47306SOL     OW43749  13.809   0.309  12.951
47306SOL    HW143750  13.775   0.382  12.900
47306SOL    HW243751  13.773   0.231  12.909
47307SOL     OW43752   5.736   3.518   3.674
47307SOL    HW143753   5.723   3.613   3.668
47307SOL    HW243754   5.755   3.491   3.584
47308SOL     OW43755   8.990   4.243   2.966
47308SOL    HW143756   8.975   4.173   3.029
47308SOL    HW243757   8.938   4.316   2.999
47309SOL     OW43758   8.958   7.453  10.597
47309SOL    HW143759   8.941   7.546  10.581
47309SOL    HW243760   9.023   7.452  10.668
47310SOL     OW43761   7.332  14.356   7.700
47310SOL    HW143762   7.296  14.340   7.613
47310SOL    HW243763   7.262  14.328   7.760
47311SOL     OW43764   2.580  14.692   7.372
47311SOL    HW143765   2.518  14.759   7.402
47311SOL    HW243766   2.664  14.719   7.410
47312SOL     OW43767   2.784  11.346   9.560
47312SOL    HW143768   2.764  11.252   9.568
47312SOL    HW243769   2.728  11.376   9.489
47313SOL     OW43770  11.173  13.710   7.274
47313SOL    HW143771  11.209  13.685   7.189
47313SOL    HW243772  11.169  13.628   7.323
47314SOL     OW43773   5.990   2.747   4.380
47314SOL    HW143774   5.971   2.708   4.465
47314SOL    HW243775   5.921   2.713   4.322
47315SOL     OW43776   0.304   5.844  10.526
47315SOL    HW143777   0.297   5.808  10.615
47315SOL    HW243778   0.257   5.927  10.531
47316SOL     OW43779  10.234  10.186   4.479
47316SOL    HW143780  10.171  10.256   4.497
47316SOL    HW243781  10.232  10.130   4.556
47317SOL     OW43782  13.388  10.158   4.919
47317SOL    HW143783  13.394  10.110   5.001
47317SOL    HW243784  13.299  10.144   4.888
47318SOL     OW43785   7.244   1.225  11.151
47318SOL    HW143786   7.334   1.257  11.159
47318SOL    HW243787   7.191   1.291  11.194
47319SOL     OW43788   3.114   0.951   5.831
47319SOL    HW143789   3.201   0.987   5.852
47319SOL    HW243790   3.057   0.986   5.899
47320SOL     OW43791   9.593   8.217   5.512
47320SOL    HW143792   9.513   8.251   5.472
47320SOL    HW243793   9.563   8.144   5.566
47321SOL     OW43794   0.785   6.305  11.993
47321SOL    HW143795   0.815   6.227  11.945
47321SOL    HW243796   0.699   6.280  12.027
47322SOL     OW43797   0.213  10.178   3.711
47322SOL    HW143798   0.158  10.256   3.714
47322SOL    HW243799   0.240  10.164   3.801
47323SOL     OW43800   4.459  14.532  13.651
47323SOL    HW143801   4.452  14.493  13.738
47323SOL    HW243802   4.417  14.469  13.592
47324SOL     OW43803   9.955   1.583  13.358
47324SOL    HW143804  10.040   1.590  13.403
47324SOL    HW243805   9.924   1.673  13.353
47325SOL     OW43806   6.388   9.354   5.304
47325SOL    HW143807   6.300   9.317   5.295
47325SOL    HW243808   6.423   9.351   5.215
47326SOL     OW43809   2.965   1.452  12.154
47326SOL    HW143810   2.968   1.404  12.072
47326SOL    HW243811   3.028   1.408  12.210
47327SOL     OW43812   2.170   2.960   3.135
47327SOL    HW143813   2.182   2.969   3.040
47327SOL    HW243814   2.157   3.050   3.166
47328SOL     OW43815   5.744  13.879   8.815
47328SOL    HW143816   5.771  13.795   8.777
47328SOL    HW243817   5.760  13.943   8.747
47329SOL     OW43818   9.098  10.906   6.323
47329SOL    HW143819   9.124  10.875   6.410
47329SOL    HW243820   9.165  10.871   6.264
47330SOL     OW43821   6.934   1.657   8.306
47330SOL    HW143822   6.925   1.563   8.319
47330SOL    HW243823   7.022   1.669   8.271
47331SOL     OW43824   5.186   7.184  13.050
47331SOL    HW143825   5.261   7.129  13.072
47331SOL    HW243826   5.205   7.268  13.092
47332SOL     OW43827   6.542   2.710   7.995
47332SOL    HW143828   6.516   2.746   7.910
47332SOL    HW243829   6.638   2.706   7.990
47333SOL     OW43830   8.694   3.037   3.227
47333SOL    HW143831   8.626   3.105   3.235
47333SOL    HW243832   8.746   3.064   3.151
47334SOL     OW43833  10.829   9.701  12.121
47334SOL    HW143834  10.780   9.763  12.067
47334SOL    HW243835  10.919   9.733  12.117
47335SOL     OW43836   8.568   2.234   2.819
47335SOL    HW143837   8.648   2.206   2.864
47335SOL    HW243838   8.501   2.171   2.846
47336SOL     OW43839   3.420  12.454  13.027
47336SOL    HW143840   3.497  12.418  12.983
47336SOL    HW243841   3.384  12.380  13.077
47337SOL     OW43842   5.371   9.949   2.530
47337SOL    HW143843   5.359   9.953   2.625
47337SOL    HW243844   5.299  10.002   2.495
47338SOL     OW43845   5.603   3.026   1.185
47338SOL    HW143846   5.678   3.011   1.128
47338SOL    HW243847   5.576   3.116   1.166
47339SOL     OW43848  12.778   2.187   7.181
47339SOL    HW143849  12.755   2.114   7.123
47339SOL    HW243850  12.717   2.257   7.157
47340SOL     OW43851   5.063  13.025   5.661
47340SOL    HW143852   5.151  13.059   5.643
47340SOL    HW243853   5.035  13.071   5.740
47341SOL     OW43854   4.108   0.554   2.186
47341SOL    HW143855   4.110   0.641   2.146
47341SOL    HW243856   4.193   0.516   2.165
47342SOL     OW43857   5.512  14.615   0.454
47342SOL    HW143858   5.459  14.685   0.494
47342SOL    HW243859   5.601  14.634   0.481
47343SOL     OW43860   4.491  12.039  14.302
47343SOL    HW143861   4.484  12.018  14.395
47343SOL    HW243862   4.442  12.121  14.293
47344SOL     OW43863  11.603  10.197   3.654
47344SOL    HW143864  11.565  10.268   3.705
47344SOL    HW243865  11.664  10.154   3.714
47345SOL     OW43866   3.906   2.110  11.484
47345SOL    HW143867   3.901   2.059  11.565
47345SOL    HW243868   3.831   2.080  11.432
47346SOL     OW43869   0.324   5.553  14.374
47346SOL    HW143870   0.362   5.633  14.337
47346SOL    HW243871   0.361   5.482  14.321
47347SOL     OW43872   3.731   1.597   6.377
47347SOL    HW143873   3.706   1.671   6.322
47347SOL    HW243874   3.757   1.636   6.460
47348SOL     OW43875   0.002   6.021  10.867
47348SOL    HW143876  14.879   5.968  10.946
47348SOL    HW243877   0.076   6.080  10.882
47349SOL     OW43878   9.127  14.446  12.758
47349SOL    HW143879   9.043  14.406  12.737
47349SOL    HW243880   9.153  14.407  12.841
47350SOL     OW43881   4.767   8.092   3.351
47350SOL    HW143882   4.833   8.023   3.344
47350SOL    HW243883   4.807   8.159   3.406
47351SOL     OW43884   6.936   0.814  11.878
47351SOL    HW143885   6.854   0.857  11.856
47351SOL    HW243886   6.918   0.720  11.867
47352SOL     OW43887   3.040  11.925   9.022
47352SOL    HW143888   3.051  12.004   8.968
47352SOL    HW243889   3.103  11.936   9.093
47353SOL     OW43890   0.362  13.911   1.966
47353SOL    HW143891   0.398  13.994   1.935
47353SOL    HW243892   0.374  13.915   2.061
47354SOL     OW43893   5.980  13.100   0.524
47354SOL    HW143894   5.985  13.072   0.433
47354SOL    HW243895   5.891  13.079   0.551
47355SOL     OW43896  13.341   6.584  10.631
47355SOL    HW143897  13.311   6.668  10.666
47355SOL    HW243898  13.412   6.606  10.571
47356SOL     OW43899   5.071   3.098  11.837
47356SOL    HW143900   5.043   3.039  11.767
47356SOL    HW243901   5.008   3.085  11.907
47357SOL     OW43902  10.841   6.925   3.463
47357SOL    HW143903  10.936   6.927   3.466
47357SOL    HW243904  10.815   7.017   3.450
47358SOL     OW43905   9.876  13.018   9.377
47358SOL    HW143906   9.882  12.926   9.402
47358SOL    HW243907   9.960  13.037   9.335
47359SOL     OW43908   2.780  12.160  13.286
47359SOL    HW143909   2.760  12.171  13.379
47359SOL    HW243910   2.727  12.227  13.243
47360SOL     OW43911   5.925   5.889  10.656
47360SOL    HW143912   5.928   5.804  10.701
47360SOL    HW243913   5.929   5.954  10.726
47361SOL     OW43914   9.449   2.128  11.442
47361SOL    HW143915   9.542   2.146  11.450
47361SOL    HW243916   9.434   2.053  11.499
47362SOL     OW43917   9.989   9.973   6.848
47362SOL    HW143918   9.921  10.036   6.825
47362SOL    HW243919  10.054   9.981   6.779
47363SOL     OW43920   5.860  10.541   8.863
47363SOL    HW143921   5.848  10.449   8.882
47363SOL    HW243922   5.891  10.544   8.772
47364SOL     OW43923  11.835   9.163  11.006
47364SOL    HW143924  11.818   9.211  10.925
47364SOL    HW243925  11.905   9.102  10.983
47365SOL     OW43926   0.349  10.791  14.434
47365SOL    HW143927   0.387  10.719  14.384
47365SOL    HW243928   0.417  10.815  14.497
47366SOL     OW43929   7.948  13.960   3.447
47366SOL    HW143930   8.035  13.999   3.439
47366SOL    HW243931   7.961  13.868   3.423
47367SOL     OW43932   3.315  11.321   6.820
47367SOL    HW143933   3.257  11.254   6.782
47367SOL    HW243934   3.380  11.337   6.752
47368SOL     OW43935   2.462   0.019  12.468
47368SOL    HW143936   2.493   0.093  12.521
47368SOL    HW243937   2.520  14.829  12.490
47369SOL     OW43938   8.201  10.067   9.393
47369SOL    HW143939   8.268  10.031   9.451
47369SOL    HW243940   8.246  10.136   9.344
47370SOL     OW43941   2.537   5.436   0.179
47370SOL    HW143942   2.622   5.400   0.206
47370SOL    HW243943   2.521   5.508   0.241
47371SOL     OW43944   4.745  13.394   1.493
47371SOL    HW143945   4.820  13.413   1.436
47371SOL    HW243946   4.783  13.391   1.581
47372SOL     OW43947   1.643   7.386   7.699
47372SOL    HW143948   1.591   7.442   7.641
47372SOL    HW243949   1.707   7.445   7.738
47373SOL     OW43950   1.486   3.337   3.597
47373SOL    HW143951   1.446   3.313   3.513
47373SOL    HW243952   1.459   3.428   3.610
47374SOL     OW43953  12.998  12.575   1.014
47374SOL    HW143954  13.060  12.521   0.965
47374SOL    HW243955  12.978  12.648   0.955
47375SOL     OW43956  10.522   1.643   7.949
47375SOL    HW143957  10.436   1.654   7.909
47375SOL    HW243958  10.560   1.567   7.905
47376SOL     OW43959   4.720  10.227   4.822
47376SOL    HW143960   4.733  10.153   4.762
47376SOL    HW243961   4.626  10.227   4.840
47377SOL     OW43962   0.747  14.768   5.851
47377SOL    HW143963   0.805  14.843   5.862
47377SOL    HW243964   0.787  14.699   5.905
47378SOL     OW43965   1.550   7.709  12.864
47378SOL    HW143966   1.571   7.624  12.904
47378SOL    HW243967   1.584   7.774  12.926
47379SOL     OW43968   8.103   1.320   0.116
47379SOL    HW143969   8.026   1.264   0.103
47379SOL    HW243970   8.154   1.308   0.036
47380SOL     OW43971  11.998  10.815   7.762
47380SOL    HW143972  12.025  10.737   7.809
47380SOL    HW243973  12.034  10.804   7.674
47381SOL     OW43974   0.348   8.360   5.596
47381SOL    HW143975   0.388   8.441   5.630
47381SOL    HW243976   0.340   8.376   5.502
47382SOL     OW43977  11.362  10.154   9.967
47382SOL    HW143978  11.307  10.094   9.917
47382SOL    HW243979  11.428  10.184   9.904
47383SOL     OW43980   2.344   3.343   8.734
47383SOL    HW143981   2.308   3.308   8.815
47383SOL    HW243982   2.439   3.345   8.750
47384SOL     OW43983  12.810   4.722   8.916
47384SOL    HW143984  12.813   4.710   9.011
47384SOL    HW243985  12.734   4.778   8.901
47385SOL     OW43986  10.482   3.054   7.599
47385SOL    HW143987  10.393   3.066   7.567
47385SOL    HW243988  10.474   2.988   7.668
47386SOL     OW43989  11.944   2.472  12.504
47386SOL    HW143990  11.926   2.380  12.482
47386SOL    HW243991  12.029   2.470  12.548
47387SOL     OW43992   6.401   4.561   8.580
47387SOL    HW143993   6.469   4.624   8.556
47387SOL    HW243994   6.321   4.596   8.542
47388SOL     OW43995  11.270   6.835   2.449
47388SOL    HW143996  11.284   6.872   2.361
47388SOL    HW243997  11.292   6.907   2.508
47389SOL     OW43998   2.307   1.555   0.052
47389SOL    HW143999   2.372   1.485   0.055
47389SOL    HW244000   2.224   1.511   0.071
47390SOL     OW44001   1.860   8.279   0.521
47390SOL    HW144002   1.928   8.219   0.492
47390SOL    HW244003   1.834   8.247   0.608
47391SOL     OW44004   9.170  12.649  10.902
47391SOL    HW144005   9.076  12.664  10.905
47391SOL    HW244006   9.201  12.705  10.830
47392SOL     OW44007  12.352  11.704   1.230
47392SOL    HW144008  12.280  11.643   1.213
47392SOL    HW244009  12.373  11.740   1.143
47393SOL     OW44010   2.189  14.692   4.644
47393SOL    HW144011   2.211  14.616   4.698
47393SOL    HW244012   2.274  14.730   4.622
47394SOL     OW44013   5.878   4.201   7.026
47394SOL    HW144014   5.943   4.191   6.957
47394SOL    HW244015   5.854   4.294   7.023
47395SOL     OW44016   9.506  10.326  12.042
47395SOL    HW144017   9.443  10.288  12.103
47395SOL    HW244018   9.575  10.261  12.036
47396SOL     OW44019   5.251   3.432  13.562
47396SOL    HW144020   5.343   3.420  13.586
47396SOL    HW244021   5.234   3.362  13.499
47397SOL     OW44022  11.934   9.428  13.729
47397SOL    HW144023  11.960   9.362  13.664
47397SOL    HW244024  11.893   9.497  13.677
47398SOL     OW44025   9.368  14.828   8.784
47398SOL    HW144026   9.322  14.750   8.814
47398SOL    HW244027   9.423  14.798   8.712
47399SOL     OW44028   5.512   9.033   6.355
47399SOL    HW144029   5.576   8.969   6.386
47399SOL    HW244030   5.554   9.075   6.281
47400SOL     OW44031   2.055  12.278   5.063
47400SOL    HW144032   1.960  12.271   5.072
47400SOL    HW244033   2.082  12.195   5.024
47401SOL     OW44034   5.155  13.293   1.684
47401SOL    HW144035   5.186  13.232   1.750
47401SOL    HW244036   5.233  13.315   1.633
47402SOL     OW44037   5.405   1.223   0.176
47402SOL    HW144038   5.425   1.152   0.237
47402SOL    HW244039   5.337   1.186   0.118
47403SOL     OW44040  11.084   2.569  13.637
47403SOL    HW144041  10.991   2.545  13.641
47403SOL    HW244042  11.092   2.643  13.697
47404SOL     OW44043  14.561   7.224  14.474
47404SOL    HW144044  14.568   7.291  14.542
47404SOL    HW244045  14.650   7.189  14.466
47405SOL     OW44046   7.091   4.031  13.165
47405SOL    HW144047   7.154   3.959  13.157
47405SOL    HW244048   7.089   4.051  13.258
47406SOL     OW44049  11.585  10.452  11.079
47406SOL    HW144050  11.561  10.372  11.127
47406SOL    HW244051  11.503  10.478  11.036
47407SOL     OW44052  10.533   5.925  14.615
47407SOL    HW144053  10.572   5.839  14.604
47407SOL    HW244054  10.592   5.971  14.675
47408SOL     OW44055   0.552  13.450   2.676
47408SOL    HW144056   0.508  13.382   2.727
47408SOL    HW244057   0.631  13.471   2.726
47409SOL     OW44058   8.605   9.961   0.933
47409SOL    HW144059   8.530   9.997   0.886
47409SOL    HW244060   8.578   9.873   0.958
47410SOL     OW44061   1.814   2.173   3.269
47410SOL    HW144062   1.802   2.230   3.344
47410SOL    HW244063   1.797   2.085   3.303
47411SOL     OW44064   4.487  10.891   9.143
47411SOL    HW144065   4.425  10.902   9.070
47411SOL    HW244066   4.522  10.979   9.157
47412SOL     OW44067   7.085   0.822   6.294
47412SOL    HW144068   7.102   0.854   6.382
47412SOL    HW244069   7.116   0.731   6.295
47413SOL     OW44070   5.440   9.533   0.745
47413SOL    HW144071   5.438   9.626   0.766
47413SOL    HW244072   5.356   9.500   0.778
47414SOL     OW44073  10.840   2.317   1.040
47414SOL    HW144074  10.856   2.379   1.111
47414SOL    HW244075  10.862   2.366   0.960
47415SOL     OW44076   8.721  14.326  14.074
47415SOL    HW144077   8.694  14.295  14.161
47415SOL    HW244078   8.777  14.401  14.092
47416SOL     OW44079   3.467  10.338  11.155
47416SOL    HW144080   3.547  10.337  11.102
47416SOL    HW244081   3.489  10.285  11.231
47417SOL     OW44082  12.312   4.094   4.651
47417SOL    HW144083  12.319   4.171   4.708
47417SOL    HW244084  12.275   4.128   4.570
47418SOL     OW44085   3.235   5.515   4.167
47418SOL    HW144086   3.270   5.586   4.222
47418SOL    HW244087   3.255   5.435   4.216
47419SOL     OW44088  12.180   4.642   8.237
47419SOL    HW144089  12.097   4.667   8.199
47419SOL    HW244090  12.240   4.633   8.163
47420SOL     OW44091  12.172   5.860   9.883
47420SOL    HW144092  12.084   5.894   9.868
47420SOL    HW244093  12.172   5.774   9.841
47421SOL     OW44094   7.751   4.060  13.044
47421SOL    HW144095   7.842   4.067  13.072
47421SOL    HW244096   7.755   4.016  12.959
47422SOL     OW44097  11.798   5.334   2.791
47422SOL    HW144098  11.857   5.369   2.724
47422SOL    HW244099  11.723   5.394   2.791
47423SOL     OW44100   9.668   1.949   6.351
47423SOL    HW144101   9.720   1.978   6.426
47423SOL    HW244102   9.577   1.960   6.378
47424SOL     OW44103   3.605  11.525   2.179
47424SOL    HW144104   3.652  11.609   2.183
47424SOL    HW244105   3.671  11.463   2.147
47425SOL     OW44106   3.669  13.136   7.889
47425SOL    HW144107   3.624  13.192   7.826
47425SOL    HW244108   3.729  13.194   7.935
47426SOL     OW44109   0.544   1.583   9.940
47426SOL    HW144110   0.560   1.535   9.859
47426SOL    HW244111   0.601   1.660   9.934
47427SOL     OW44112   5.509  11.824   1.335
47427SOL    HW144113   5.578  11.760   1.356
47427SOL    HW244114   5.462  11.836   1.417
47428SOL     OW44115   2.148   4.972   4.363
47428SOL    HW144116   2.208   4.927   4.422
47428SOL    HW244117   2.190   4.967   4.277
47429SOL     OW44118   5.122   1.689  10.071
47429SOL    HW144119   5.159   1.703   9.984
47429SOL    HW244120   5.049   1.629  10.057
47430SOL     OW44121   8.486   8.306   4.390
47430SOL    HW144122   8.457   8.222   4.357
47430SOL    HW244123   8.516   8.288   4.479
47431SOL     OW44124   2.889  12.213   6.069
47431SOL    HW144125   2.850  12.137   6.113
47431SOL    HW244126   2.867  12.287   6.126
47432SOL     OW44127   7.009   9.629   2.555
47432SOL    HW144128   6.931   9.685   2.562
47432SOL    HW244129   6.983   9.560   2.494
47433SOL     OW44130   8.988   7.784   5.872
47433SOL    HW144131   8.989   7.807   5.965
47433SOL    HW244132   8.989   7.868   5.826
47434SOL     OW44133  13.898  12.884   4.153
47434SOL    HW144134  13.863  12.910   4.068
47434SOL    HW244135  13.988  12.917   4.153
47435SOL     OW44136   8.738   6.001   6.353
47435SOL    HW144137   8.700   6.062   6.417
47435SOL    HW244138   8.662   5.966   6.306
47436SOL     OW44139   2.268   6.028  12.180
47436SOL    HW144140   2.222   6.068  12.106
47436SOL    HW244141   2.359   6.025  12.153
47437SOL     OW44142  12.234  10.296  12.562
47437SOL    HW144143  12.280  10.337  12.635
47437SOL    HW244144  12.274  10.209  12.555
47438SOL     OW44145   0.815  11.459   4.229
47438SOL    HW144146   0.799  11.537   4.176
47438SOL    HW244147   0.878  11.487   4.295
47439SOL     OW44148   4.378   2.225   3.335
47439SOL    HW144149   4.290   2.193   3.351
47439SOL    HW244150   4.431   2.146   3.326
47440SOL     OW44151  12.263   8.291   8.549
47440SOL    HW144152  12.281   8.322   8.460
47440SOL    HW244153  12.194   8.350   8.581
47441SOL     OW44154   0.563  13.313  13.946
47441SOL    HW144155   0.578  13.240  13.885
47441SOL    HW244156   0.650  13.350  13.961
47442SOL     OW44157   2.553  13.490   1.172
47442SOL    HW144158   2.595  13.467   1.255
47442SOL    HW244159   2.607  13.449   1.105
47443SOL     OW44160  13.962  12.265   5.783
47443SOL    HW144161  13.914  12.342   5.813
47443SOL    HW244162  13.921  12.242   5.700
47444SOL     OW44163   5.490   1.563   1.943
47444SOL    HW144164   5.458   1.473   1.942
47444SOL    HW244165   5.566   1.561   2.001
47445SOL     OW44166  12.717   3.949   6.858
47445SOL    HW144167  12.697   3.936   6.951
47445SOL    HW244168  12.754   3.865   6.830
47446SOL     OW44169   9.717  12.840   8.537
47446SOL    HW144170   9.805  12.857   8.502
47446SOL    HW244171   9.677  12.779   8.475
47447SOL     OW44172   6.513  13.642   1.432
47447SOL    HW144173   6.475  13.577   1.373
47447SOL    HW244174   6.455  13.642   1.508
47448SOL     OW44175   0.256  10.377   2.801
47448SOL    HW144176   0.209  10.414   2.876
47448SOL    HW244177   0.189  10.368   2.733
47449SOL     OW44178   9.370  12.799   7.128
47449SOL    HW144179   9.375  12.710   7.094
47449SOL    HW244180   9.350  12.789   7.221
47450SOL     OW44181   0.389  14.531   1.798
47450SOL    HW144182   0.471  14.493   1.766
47450SOL    HW244183   0.323  14.464   1.781
47451SOL     OW44184   5.522  11.753   9.779
47451SOL    HW144185   5.533  11.848   9.786
47451SOL    HW244186   5.510  11.737   9.686
47452SOL     OW44187   1.992   2.933   5.619
47452SOL    HW144188   2.034   2.917   5.535
47452SOL    HW244189   2.065   2.940   5.681
47453SOL     OW44190   3.718  14.310   2.502
47453SOL    HW144191   3.724  14.228   2.453
47453SOL    HW244192   3.729  14.378   2.435
47454SOL     OW44193   3.420   5.561   8.887
47454SOL    HW144194   3.449   5.572   8.978
47454SOL    HW244195   3.500   5.541   8.839
47455SOL     OW44196   4.935  12.797  13.586
47455SOL    HW144197   4.961  12.883  13.619
47455SOL    HW244198   4.986  12.735  13.637
47456SOL     OW44199   8.798   1.174   2.930
47456SOL    HW144200   8.723   1.219   2.970
47456SOL    HW244201   8.802   1.090   2.975
47457SOL     OW44202   7.906   6.476   8.634
47457SOL    HW144203   7.850   6.531   8.688
47457SOL    HW244204   7.892   6.506   8.545
47458SOL     OW44205  14.569  10.880   9.492
47458SOL    HW144206  14.610  10.807   9.538
47458SOL    HW244207  14.557  10.947   9.559
47459SOL     OW44208  14.257  10.588   6.139
47459SOL    HW144209  14.228  10.637   6.216
47459SOL    HW244210  14.232  10.497   6.158
47460SOL     OW44211   6.634   4.835  10.479
47460SOL    HW144212   6.636   4.748  10.438
47460SOL    HW244213   6.720   4.872  10.460
47461SOL     OW44214   0.155   9.366   7.997
47461SOL    HW144215   0.143   9.368   8.092
47461SOL    HW244216   0.233   9.420   7.981
47462SOL     OW44217  14.712  14.701   4.925
47462SOL    HW144218  14.629  14.667   4.893
47462SOL    HW244219  14.692  14.735   5.013
47463SOL     OW44220   5.721   3.495   5.613
47463SOL    HW144221   5.768   3.419   5.648
47463SOL    HW244222   5.779   3.528   5.544
47464SOL     OW44223   2.856  14.661   4.223
47464SOL    HW144224   2.800  14.736   4.241
47464SOL    HW244225   2.902  14.684   4.143
47465SOL     OW44226   7.424  13.002  13.408
47465SOL    HW144227   7.406  12.930  13.348
47465SOL    HW244228   7.387  13.079  13.364
47466SOL     OW44229   4.977   8.498   1.577
47466SOL    HW144230   4.925   8.440   1.521
47466SOL    HW244231   5.061   8.452   1.588
47467SOL     OW44232   9.923   6.336  10.538
47467SOL    HW144233   9.907   6.243  10.553
47467SOL    HW244234   9.927   6.344  10.442
47468SOL     OW44235  12.531   2.955   3.048
47468SOL    HW144236  12.463   3.011   3.086
47468SOL    HW244237  12.610   2.978   3.097
47469SOL     OW44238   5.904  10.576  14.735
47469SOL    HW144239   5.840  10.541  14.798
47469SOL    HW244240   5.978  10.602  14.790
47470SOL     OW44241   3.938   5.143   0.823
47470SOL    HW144242   3.983   5.217   0.781
47470SOL    HW244243   3.849   5.174   0.837
47471SOL     OW44244  14.263   9.110  13.072
47471SOL    HW144245  14.313   9.176  13.024
47471SOL    HW244246  14.172   9.129  13.050
47472SOL     OW44247   7.995   2.680   3.895
47472SOL    HW144248   8.066   2.745   3.892
47472SOL    HW244249   7.991   2.654   3.987
47473SOL     OW44250   1.836  10.867   6.963
47473SOL    HW144251   1.801  10.950   6.997
47473SOL    HW244252   1.922  10.859   7.004
47474SOL     OW44253   2.503   8.559   7.535
47474SOL    HW144254   2.525   8.482   7.483
47474SOL    HW244255   2.507   8.632   7.474
47475SOL     OW44256   0.137   7.239   8.584
47475SOL    HW144257   0.230   7.254   8.563
47475SOL    HW244258   0.107   7.178   8.517
47476SOL     OW44259  10.883   4.593   1.211
47476SOL    HW144260  10.865   4.662   1.147
47476SOL    HW244261  10.948   4.631   1.270
47477SOL     OW44262   3.580   0.057  10.778
47477SOL    HW144263   3.653   0.102  10.737
47477SOL    HW244264   3.502   0.092  10.736
47478SOL     OW44265   4.098   4.566   8.183
47478SOL    HW144266   4.189   4.592   8.173
47478SOL    HW244267   4.089   4.545   8.276
47479SOL     OW44268   2.866   5.125   2.086
47479SOL    HW144269   2.913   5.180   2.022
47479SOL    HW244270   2.805   5.074   2.033
47480SOL     OW44271  12.358   3.971   5.504
47480SOL    HW144272  12.296   3.913   5.548
47480SOL    HW244273  12.315   4.057   5.503
47481SOL     OW44274  14.869   5.818  11.813
47481SOL    HW144275  14.846   5.869  11.890
47481SOL    HW244276   0.064   5.768  11.839
47482SOL     OW44277  11.037  10.343  12.832
47482SOL    HW144278  11.126  10.342  12.866
47482SOL    HW244279  11.021  10.433  12.805
47483SOL     OW44280   0.607  10.542   9.495
47483SOL    HW144281   0.557  10.608   9.449
47483SOL    HW244282   0.695  10.547   9.457
47484SOL     OW44283  14.530   1.850   7.934
47484SOL    HW144284  14.513   1.941   7.909
47484SOL    HW244285  14.454   1.801   7.900
47485SOL     OW44286   3.779  12.589   0.530
47485SOL    HW144287   3.773  12.498   0.499
47485SOL    HW244288   3.824  12.582   0.615
47486SOL     OW44289   2.064   6.129   1.119
47486SOL    HW144290   2.115   6.159   1.193
47486SOL    HW244291   2.041   6.208   1.071
47487SOL     OW44292  12.652   8.575   2.697
47487SOL    HW144293  12.679   8.506   2.757
47487SOL    HW244294  12.568   8.606   2.731
47488SOL     OW44295   5.634  11.773   8.779
47488SOL    HW144296   5.614  11.820   8.860
47488SOL    HW244297   5.550  11.761   8.736
47489SOL     OW44298   0.085  11.945  12.836
47489SOL    HW144299   0.030  11.879  12.794
47489SOL    HW244300   0.174  11.909  12.830
47490SOL     OW44301   1.056   5.228  13.231
47490SOL    HW144302   1.087   5.151  13.185
47490SOL    HW244303   1.082   5.214  13.322
47491SOL     OW44304   7.510   9.578  13.695
47491SOL    HW144305   7.554   9.663  13.692
47491SOL    HW244306   7.563   9.522  13.639
47492SOL     OW44307   8.607   3.418   3.132
47492SOL    HW144308   8.587   3.342   3.078
47492SOL    HW244309   8.686   3.394   3.180
47493SOL     OW44310  12.407   7.337   2.884
47493SOL    HW144311  12.323   7.296   2.906
47493SOL    HW244312  12.395   7.429   2.906
47494SOL     OW44313   5.901  10.538   1.355
47494SOL    HW144314   5.856  10.471   1.407
47494SOL    HW244315   5.971  10.570   1.412
47495SOL     OW44316   9.186  10.466  13.068
47495SOL    HW144317   9.205  10.429  12.981
47495SOL    HW244318   9.227  10.404  13.129
47496SOL     OW44319  12.190   2.672   8.372
47496SOL    HW144320  12.133   2.689   8.297
47496SOL    HW244321  12.137   2.692   8.449
47497SOL     OW44322   6.925   5.098   8.326
47497SOL    HW144323   6.893   5.169   8.269
47497SOL    HW244324   7.017   5.119   8.340
47498SOL     OW44325   0.586   9.223   6.041
47498SOL    HW144326   0.570   9.296   6.102
47498SOL    HW244327   0.559   9.257   5.956
47499SOL     OW44328   9.658   3.624  13.443
47499SOL    HW144329   9.749   3.655  13.453
47499SOL    HW244330   9.605   3.696  13.476
47500SOL     OW44331   5.624   2.686   7.591
47500SOL    HW144332   5.592   2.621   7.653
47500SOL    HW244333   5.593   2.656   7.506
47501SOL     OW44334   8.326   2.006   8.319
47501SOL    HW144335   8.354   2.026   8.408
47501SOL    HW244336   8.397   1.953   8.282
47502SOL     OW44337  10.468   6.909   7.068
47502SOL    HW144338  10.408   6.941   7.135
47502SOL    HW244339  10.441   6.818   7.053
47503SOL     OW44340   0.862   1.576  12.492
47503SOL    HW144341   0.855   1.554  12.585
47503SOL    HW244342   0.775   1.560  12.457
47504SOL     OW44343   5.734   2.093  12.076
47504SOL    HW144344   5.822   2.099  12.112
47504SOL    HW244345   5.677   2.123  12.147
47505SOL     OW44346   5.287  13.436   5.702
47505SOL    HW144347   5.310  13.489   5.778
47505SOL    HW244348   5.271  13.349   5.739
47506SOL     OW44349   5.529   6.482   0.688
47506SOL    HW144350   5.479   6.429   0.750
47506SOL    HW244351   5.511   6.443   0.603
47507SOL     OW44352   5.970   6.556  13.892
47507SOL    HW144353   5.945   6.526  13.805
47507SOL    HW244354   5.948   6.649  13.894
47508SOL     OW44355  14.151   9.655   7.503
47508SOL    HW144356  14.146   9.651   7.598
47508SOL    HW244357  14.221   9.594   7.480
47509SOL     OW44358   0.458   9.277  11.508
47509SOL    HW144359   0.499   9.354  11.469
47509SOL    HW244360   0.390   9.312  11.565
47510SOL     OW44361   5.768   9.925  10.361
47510SOL    HW144362   5.735  10.012  10.385
47510SOL    HW244363   5.693   9.867  10.373
47511SOL     OW44364   4.000  14.263   5.895
47511SOL    HW144365   3.974  14.205   5.824
47511SOL    HW244366   4.008  14.349   5.855
47512SOL     OW44367   4.792  12.402   6.036
47512SOL    HW144368   4.772  12.312   6.061
47512SOL    HW244369   4.812  12.447   6.118
47513SOL     OW44370  12.709  11.962   1.111
47513SOL    HW144371  12.657  12.021   1.164
47513SOL    HW244372  12.799  11.979   1.138
47514SOL     OW44373   2.510   7.941   1.005
47514SOL    HW144374   2.524   7.877   0.935
47514SOL    HW244375   2.416   7.959   1.002
47515SOL     OW44376  10.295   2.478   4.007
47515SOL    HW144377  10.243   2.398   4.011
47515SOL    HW244378  10.338   2.483   4.092
47516SOL     OW44379  12.935   6.575  12.500
47516SOL    HW144380  12.853   6.586  12.452
47516SOL    HW244381  12.908   6.560  12.591
47517SOL     OW44382  10.377   3.065   5.679
47517SOL    HW144383  10.426   3.117   5.615
47517SOL    HW244384  10.385   2.975   5.648
47518SOL     OW44385  14.121   8.603  11.022
47518SOL    HW144386  14.103   8.546  11.096
47518SOL    HW244387  14.187   8.557  10.971
47519SOL     OW44388  12.837  13.020   8.732
47519SOL    HW144389  12.926  12.986   8.734
47519SOL    HW244390  12.813  13.030   8.825
47520SOL     OW44391   4.366  12.076   4.664
47520SOL    HW144392   4.337  12.021   4.736
47520SOL    HW244393   4.427  12.021   4.615
47521SOL     OW44394   4.732  14.602   8.108
47521SOL    HW144395   4.668  14.550   8.157
47521SOL    HW244396   4.807  14.610   8.168
47522SOL     OW44397  13.953   0.200   7.381
47522SOL    HW144398  13.995   0.168   7.461
47522SOL    HW244399  14.027   0.215   7.321
47523SOL     OW44400   3.338   2.877   3.272
47523SOL    HW144401   3.288   2.882   3.190
47523SOL    HW244402   3.273   2.848   3.337
47524SOL     OW44403   7.958   6.120   7.886
47524SOL    HW144404   8.021   6.132   7.815
47524SOL    HW244405   7.967   6.199   7.939
47525SOL     OW44406   2.329   7.370   6.498
47525SOL    HW144407   2.334   7.293   6.441
47525SOL    HW244408   2.264   7.427   6.457
47526SOL     OW44409  13.428  11.228   0.611
47526SOL    HW144410  13.416  11.145   0.565
47526SOL    HW244411  13.357  11.284   0.579
47527SOL     OW44412   8.744   8.062   8.795
47527SOL    HW144413   8.795   8.141   8.816
47527SOL    HW244414   8.689   8.089   8.721
47528SOL     OW44415   8.849   9.187   9.608
47528SOL    HW144416   8.840   9.205   9.515
47528SOL    HW244417   8.914   9.117   9.613
47529SOL     OW44418   4.926   7.841  10.628
47529SOL    HW144419   4.880   7.873  10.551
47529SOL    HW244420   4.864   7.780  10.669
47530SOL     OW44421   7.658   0.513   9.589
47530SOL    HW144422   7.646   0.596   9.542
47530SOL    HW244423   7.668   0.539   9.681
47531SOL     OW44424   1.309   5.132   4.847
47531SOL    HW144425   1.237   5.164   4.793
47531SOL    HW244426   1.280   5.045   4.877
47532SOL     OW44427   9.642  14.409  12.785
47532SOL    HW144428   9.708  14.478  12.775
47532SOL    HW244429   9.683  14.331  12.749
47533SOL     OW44430  12.187   1.462   2.172
47533SOL    HW144431  12.240   1.529   2.130
47533SOL    HW244432  12.208   1.381   2.126
47534SOL     OW44433  14.385   9.804  10.179
47534SOL    HW144434  14.336   9.803  10.261
47534SOL    HW244435  14.383   9.895  10.150
47535SOL     OW44436   8.833   6.269  13.158
47535SOL    HW144437   8.748   6.254  13.199
47535SOL    HW244438   8.815   6.332  13.088
47536SOL     OW44439   1.487   1.696   6.773
47536SOL    HW144440   1.498   1.713   6.680
47536SOL    HW244441   1.576   1.696   6.808
47537SOL     OW44442   2.622   2.063   3.456
47537SOL    HW144443   2.659   2.075   3.544
47537SOL    HW244444   2.684   2.106   3.398
47538SOL     OW44445   9.333   7.786  12.368
47538SOL    HW144446   9.347   7.740  12.450
47538SOL    HW244447   9.331   7.879  12.392
47539SOL     OW44448   1.754  12.220  12.573
47539SOL    HW144449   1.823  12.178  12.625
47539SOL    HW244450   1.675  12.210  12.627
47540SOL     OW44451  12.944  14.797  13.638
47540SOL    HW144452  13.028  14.754  13.622
47540SOL    HW244453  12.903  14.801  13.552
47541SOL     OW44454  12.968  12.198   5.867
47541SOL    HW144455  13.024  12.129   5.902
47541SOL    HW244456  12.993  12.204   5.775
47542SOL     OW44457  13.603   6.257  13.050
47542SOL    HW144458  13.546   6.180  13.041
47542SOL    HW244459  13.556   6.315  13.109
47543SOL     OW44460  11.554   8.212   5.372
47543SOL    HW144461  11.583   8.291   5.417
47543SOL    HW244462  11.538   8.240   5.282
47544SOL     OW44463  12.991   2.668  12.987
47544SOL    HW144464  12.985   2.576  12.960
47544SOL    HW244465  12.941   2.716  12.921
47545SOL     OW44466  11.378  10.381  13.313
47545SOL    HW144467  11.379  10.476  13.309
47545SOL    HW244468  11.336  10.354  13.231
47546SOL     OW44469   5.247   7.705   4.746
47546SOL    HW144470   5.246   7.630   4.806
47546SOL    HW244471   5.202   7.775   4.794
47547SOL     OW44472  12.901   3.891   4.021
47547SOL    HW144473  12.870   3.803   4.042
47547SOL    HW244474  12.989   3.878   3.987
47548SOL     OW44475   4.873   6.268  10.075
47548SOL    HW144476   4.959   6.276  10.116
47548SOL    HW244477   4.887   6.296   9.984
47549SOL     OW44478   0.754   2.618   7.606
47549SOL    HW144479   0.706   2.535   7.600
47549SOL    HW244480   0.730   2.664   7.525
47550SOL     OW44481   4.457   5.693  13.046
47550SOL    HW144482   4.391   5.675  13.112
47550SOL    HW244483   4.488   5.606  13.017
47551SOL     OW44484   3.065   9.090   9.504
47551SOL    HW144485   3.026   9.103   9.418
47551SOL    HW244486   3.137   9.029   9.490
47552SOL     OW44487  11.329  12.159  12.067
47552SOL    HW144488  11.309  12.243  12.108
47552SOL    HW244489  11.245  12.128  12.034
47553SOL     OW44490   8.314   6.255  13.364
47553SOL    HW144491   8.316   6.172  13.410
47553SOL    HW244492   8.233   6.251  13.312
47554SOL     OW44493   3.193  12.691   7.018
47554SOL    HW144494   3.227  12.735   7.095
47554SOL    HW244495   3.170  12.762   6.958
47555SOL     OW44496  10.754   9.730   0.879
47555SOL    HW144497  10.724   9.665   0.942
47555SOL    HW244498  10.786   9.803   0.932
47556SOL     OW44499  13.098   2.384  11.513
47556SOL    HW144500  13.172   2.324  11.518
47556SOL    HW244501  13.023   2.332  11.541
47557SOL     OW44502  14.852   6.302   2.201
47557SOL    HW144503  14.815   6.244   2.135
47557SOL    HW244504   0.056   6.264   2.222
47558SOL     OW44505  11.803   2.716   7.629
47558SOL    HW144506  11.883   2.757   7.597
47558SOL    HW244507  11.732   2.772   7.596
47559SOL     OW44508   5.385  14.842  11.743
47559SOL    HW144509   5.417   0.042  11.781
47559SOL    HW244510   5.417  14.843  11.653
47560SOL     OW44511  11.754   3.194   0.637
47560SOL    HW144512  11.741   3.099   0.628
47560SOL    HW244513  11.820   3.216   0.571
47561SOL     OW44514  10.768   1.071   5.520
47561SOL    HW144515  10.808   0.988   5.490
47561SOL    HW244516  10.674   1.058   5.506
47562SOL     OW44517   2.777   9.382   7.901
47562SOL    HW144518   2.730   9.420   7.826
47562SOL    HW244519   2.735   9.297   7.914
47563SOL     OW44520  14.351   6.545   9.856
47563SOL    HW144521  14.422   6.485   9.879
47563SOL    HW244522  14.389   6.632   9.867
47564SOL     OW44523   3.911   5.636   2.739
47564SOL    HW144524   3.995   5.652   2.696
47564SOL    HW244525   3.922   5.670   2.827
47565SOL     OW44526   7.365   4.769  11.012
47565SOL    HW144527   7.425   4.831  11.053
47565SOL    HW244528   7.333   4.715  11.084
47566SOL     OW44529  11.567   0.499  12.541
47566SOL    HW144530  11.581   0.593  12.536
47566SOL    HW244531  11.472   0.488  12.534
47567SOL     OW44532   9.367  14.597   6.278
47567SOL    HW144533   9.422  14.675   6.284
47567SOL    HW244534   9.429  14.524   6.287
47568SOL     OW44535   2.471  12.276  13.368
47568SOL    HW144536   2.562  12.281  13.396
47568SOL    HW244537   2.441  12.367  13.368
47569SOL     OW44538   0.898  12.899  12.658
47569SOL    HW144539   0.938  12.952  12.726
47569SOL    HW244540   0.805  12.899  12.680
47570SOL     OW44541   4.370   7.770   2.578
47570SOL    HW144542   4.363   7.840   2.643
47570SOL    HW244543   4.332   7.693   2.621
47571SOL     OW44544   4.708   8.299   8.576
47571SOL    HW144545   4.732   8.313   8.668
47571SOL    HW244546   4.686   8.386   8.543
47572SOL     OW44547   6.550  11.571   4.031
47572SOL    HW144548   6.625  11.561   3.972
47572SOL    HW244549   6.585  11.554   4.118
47573SOL     OW44550   7.562  10.290   0.367
47573SOL    HW144551   7.509  10.368   0.384
47573SOL    HW244552   7.536  10.261   0.280
47574SOL     OW44553   8.697   2.441  11.807
47574SOL    HW144554   8.667   2.513  11.752
47574SOL    HW244555   8.700   2.366  11.748
47575SOL     OW44556   8.823   3.557   2.754
47575SOL    HW144557   8.829   3.645   2.792
47575SOL    HW244558   8.882   3.561   2.678
47576SOL     OW44559   3.893   2.804   6.998
47576SOL    HW144560   3.890   2.864   7.073
47576SOL    HW244561   3.801   2.791   6.974
47577SOL     OW44562  11.401   5.895   7.124
47577SOL    HW144563  11.431   5.840   7.051
47577SOL    HW244564  11.480   5.938   7.156
47578SOL     OW44565   3.473   1.028  13.121
47578SOL    HW144566   3.384   1.035  13.086
47578SOL    HW244567   3.460   1.014  13.215
47579SOL     OW44568   4.446   6.365   5.074
47579SOL    HW144569   4.507   6.329   5.139
47579SOL    HW244570   4.366   6.313   5.086
47580SOL     OW44571   0.317   5.417  12.703
47580SOL    HW144572   0.339   5.418  12.610
47580SOL    HW244573   0.327   5.508  12.731
47581SOL     OW44574   8.250  12.787   3.495
47581SOL    HW144575   8.311  12.797   3.568
47581SOL    HW244576   8.302  12.809   3.418
47582SOL     OW44577   1.961   1.848   8.256
47582SOL    HW144578   1.884   1.886   8.298
47582SOL    HW244579   1.936   1.758   8.237
47583SOL     OW44580   0.474   3.121   7.555
47583SOL    HW144581   0.389   3.077   7.551
47583SOL    HW244582   0.453   3.209   7.587
47584SOL     OW44583   5.373   6.626   2.166
47584SOL    HW144584   5.468   6.630   2.162
47584SOL    HW244585   5.353   6.536   2.192
47585SOL     OW44586   7.833  11.506  13.234
47585SOL    HW144587   7.786  11.588  13.252
47585SOL    HW244588   7.788  11.441  13.287
47586SOL     OW44589   4.214  12.154   4.405
47586SOL    HW144590   4.269  12.225   4.370
47586SOL    HW244591   4.206  12.174   4.498
47587SOL     OW44592   9.309  11.889   2.971
47587SOL    HW144593   9.298  11.869   2.878
47587SOL    HW244594   9.224  11.868   3.010
47588SOL     OW44595  12.626   2.842   9.756
47588SOL    HW144596  12.695   2.848   9.690
47588SOL    HW244597  12.600   2.750   9.755
47589SOL     OW44598  12.034  11.907  13.124
47589SOL    HW144599  12.083  11.862  13.056
47589SOL    HW244600  12.010  11.838  13.186
47590SOL     OW44601   1.092  13.054   2.656
47590SOL    HW144602   1.113  12.976   2.708
47590SOL    HW244603   1.081  13.124   2.720
47591SOL     OW44604   4.298   8.946   6.043
47591SOL    HW144605   4.352   8.883   5.994
47591SOL    HW244606   4.218   8.954   5.991
47592SOL     OW44607  13.274  10.268   8.963
47592SOL    HW144608  13.309  10.204   8.901
47592SOL    HW244609  13.285  10.227   9.048
47593SOL     OW44610  14.403  12.027  14.709
47593SOL    HW144611  14.330  11.976  14.744
47593SOL    HW244612  14.422  12.092  14.777
47594SOL     OW44613   0.319  11.714   5.728
47594SOL    HW144614   0.304  11.807   5.748
47594SOL    HW244615   0.414  11.704   5.728
47595SOL     OW44616   1.914   0.367   7.248
47595SOL    HW144617   1.916   0.463   7.248
47595SOL    HW244618   1.964   0.341   7.171
47596SOL     OW44619  14.513  13.691   4.822
47596SOL    HW144620  14.504  13.749   4.746
47596SOL    HW244621  14.494  13.748   4.897
47597SOL     OW44622  14.832   1.662   9.363
47597SOL    HW144623  14.846   1.692   9.273
47597SOL    HW244624  14.856   1.737   9.417
47598SOL     OW44625   2.404   4.758   2.036
47598SOL    HW144626   2.376   4.667   2.048
47598SOL    HW244627   2.462   4.775   2.110
47599SOL     OW44628  11.914  11.606  13.475
47599SOL    HW144629  11.971  11.559  13.414
47599SOL    HW244630  11.828  11.604  13.434
47600SOL     OW44631   0.502   2.103  10.287
47600SOL    HW144632   0.551   2.032  10.328
47600SOL    HW244633   0.461   2.150  10.360
47601SOL     OW44634  12.903   0.315  14.739
47601SOL    HW144635  12.949   0.371  14.676
47601SOL    HW244636  12.973   0.270  14.786
47602SOL     OW44637  11.796   8.038   8.544
47602SOL    HW144638  11.764   7.963   8.594
47602SOL    HW244639  11.722   8.063   8.488
47603SOL     OW44640   0.636   1.056   0.713
47603SOL    HW144641   0.593   1.025   0.793
47603SOL    HW244642   0.687   1.131   0.742
47604SOL     OW44643   6.058  11.356   1.984
47604SOL    HW144644   6.096  11.323   2.065
47604SOL    HW244645   6.112  11.320   1.915
47605SOL     OW44646  10.971  11.500   3.628
47605SOL    HW144647  10.922  11.562   3.682
47605SOL    HW244648  11.062  11.512   3.655
47606SOL     OW44649  10.853   2.911   1.788
47606SOL    HW144650  10.884   2.983   1.734
47606SOL    HW244651  10.932   2.864   1.814
47607SOL     OW44652   0.854   7.054  12.629
47607SOL    HW144653   0.769   7.013  12.617
47607SOL    HW244654   0.897   7.048  12.544
47608SOL     OW44655   2.459   3.575  10.023
47608SOL    HW144656   2.468   3.529  10.106
47608SOL    HW244657   2.383   3.534   9.981
47609SOL     OW44658   2.346   9.566   5.049
47609SOL    HW144659   2.418   9.624   5.026
47609SOL    HW244660   2.278   9.625   5.083
47610SOL     OW44661  12.920   6.793   4.575
47610SOL    HW144662  12.897   6.826   4.661
47610SOL    HW244663  12.838   6.762   4.537
47611SOL     OW44664   9.243   7.378  13.188
47611SOL    HW144665   9.206   7.298  13.226
47611SOL    HW244666   9.302   7.348  13.119
47612SOL     OW44667   0.816  14.291  11.871
47612SOL    HW144668   0.726  14.322  11.875
47612SOL    HW244669   0.817  14.212  11.925
47613SOL     OW44670  12.354   3.929  11.374
47613SOL    HW144671  12.273   3.979  11.368
47613SOL    HW244672  12.389   3.929  11.285
47614SOL     OW44673  14.544   5.056  12.693
47614SOL    HW144674  14.523   4.963  12.691
47614SOL    HW244675  14.602   5.065  12.769
47615SOL     OW44676  11.119   8.443  14.023
47615SOL    HW144677  11.171   8.524  14.026
47615SOL    HW244678  11.034   8.468  14.058
47616SOL     OW44679   5.628   4.970   4.474
47616SOL    HW144680   5.650   5.042   4.533
47616SOL    HW244681   5.620   4.894   4.532
47617SOL     OW44682  12.569   7.969   5.884
47617SOL    HW144683  12.549   7.899   5.947
47617SOL    HW244684  12.645   7.936   5.835
47618SOL     OW44685  12.620  11.050   3.294
47618SOL    HW144686  12.526  11.034   3.290
47618SOL    HW244687  12.654  11.016   3.211
47619SOL     OW44688  14.373   9.933  14.386
47619SOL    HW144689  14.363   9.933  14.291
47619SOL    HW244690  14.382   9.840  14.409
47620SOL     OW44691   8.366   5.511   7.689
47620SOL    HW144692   8.419   5.505   7.768
47620SOL    HW244693   8.368   5.604   7.665
47621SOL     OW44694  13.705   2.258  10.884
47621SOL    HW144695  13.734   2.233  10.971
47621SOL    HW244696  13.728   2.351  10.876
47622SOL     OW44697  12.373  14.298  13.943
47622SOL    HW144698  12.310  14.228  13.924
47622SOL    HW244699  12.325  14.379  13.924
47623SOL     OW44700  13.561  11.874  10.185
47623SOL    HW144701  13.622  11.930  10.136
47623SOL    HW244702  13.617  11.812  10.231
47624SOL     OW44703   0.273  11.368  12.511
47624SOL    HW144704   0.335  11.434  12.479
47624SOL    HW244705   0.302  11.350  12.601
47625SOL     OW44706  11.825   1.522  12.044
47625SOL    HW144707  11.806   1.529  11.951
47625SOL    HW244708  11.870   1.603  12.066
47626SOL     OW44709  14.744  13.593   6.590
47626SOL    HW144710  14.676  13.657   6.608
47626SOL    HW244711  14.701  13.508   6.599
47627SOL     OW44712  11.724   8.538  14.023
47627SOL    HW144713  11.747   8.447  14.042
47627SOL    HW244714  11.726   8.582  14.107
47628SOL     OW44715   6.024   2.986  12.445
47628SOL    HW144716   5.989   2.954  12.362
47628SOL    HW244717   6.064   3.070  12.423
47629SOL     OW44718  12.555  10.284   4.107
47629SOL    HW144719  12.640  10.240   4.105
47629SOL    HW244720  12.526  10.283   4.016
47630SOL     OW44721  14.777   1.118   2.915
47630SOL    HW144722  14.710   1.075   2.862
47630SOL    HW244723  14.859   1.082   2.883
47631SOL     OW44724   1.994   9.970   6.738
47631SOL    HW144725   2.018  10.014   6.820
47631SOL    HW244726   2.024   9.880   6.750
47632SOL     OW44727   4.534  14.024   0.553
47632SOL    HW144728   4.535  13.961   0.480
47632SOL    HW244729   4.615  14.006   0.602
47633SOL     OW44730   6.166   6.127   2.452
47633SOL    HW144731   6.149   6.114   2.545
47633SOL    HW244732   6.203   6.215   2.447
47634SOL     OW44733   6.446   2.650   0.418
47634SOL    HW144734   6.430   2.693   0.334
47634SOL    HW244735   6.369   2.670   0.471
47635SOL     OW44736   9.043   1.409   4.484
47635SOL    HW144737   9.050   1.349   4.410
47635SOL    HW244738   9.121   1.464   4.478
47636SOL     OW44739   7.915   6.765   8.597
47636SOL    HW144740   7.991   6.815   8.627
47636SOL    HW244741   7.873   6.822   8.531
47637SOL     OW44742   4.273  11.865  10.525
47637SOL    HW144743   4.234  11.784  10.492
47637SOL    HW244744   4.201  11.909  10.571
47638SOL     OW44745   1.298   8.113  11.374
47638SOL    HW144746   1.277   8.125  11.281
47638SOL    HW244747   1.333   8.024  11.380
47639SOL     OW44748   4.671   1.205   9.646
47639SOL    HW144749   4.597   1.145   9.640
47639SOL    HW244750   4.718   1.194   9.563
47640SOL     OW44751  14.039   1.029  12.589
47640SOL    HW144752  13.971   0.982  12.637
47640SOL    HW244753  14.000   1.047  12.504
47641SOL     OW44754   9.093   0.513   7.574
47641SOL    HW144755   9.114   0.426   7.540
47641SOL    HW244756   9.059   0.497   7.662
47642SOL     OW44757   2.254   1.062   7.743
47642SOL    HW144758   2.343   1.056   7.707
47642SOL    HW244759   2.266   1.103   7.829
47643SOL     OW44760  13.442   3.376   7.877
47643SOL    HW144761  13.417   3.291   7.911
47643SOL    HW244762  13.492   3.357   7.798
47644SOL     OW44763  14.218   0.105   8.911
47644SOL    HW144764  14.206   0.125   8.818
47644SOL    HW244765  14.186   0.015   8.921
47645SOL     OW44766   2.801  12.074   3.231
47645SOL    HW144767   2.825  12.045   3.319
47645SOL    HW244768   2.779  11.994   3.184
47646SOL     OW44769   7.223   5.048   5.344
47646SOL    HW144770   7.205   5.121   5.404
47646SOL    HW244771   7.146   5.044   5.288
47647SOL     OW44772   7.537   1.496   1.100
47647SOL    HW144773   7.599   1.430   1.132
47647SOL    HW244774   7.481   1.515   1.176
47648SOL     OW44775   6.063  10.830   7.701
47648SOL    HW144776   6.027  10.887   7.769
47648SOL    HW244777   6.121  10.887   7.650
47649SOL     OW44778  13.877   1.888   8.329
47649SOL    HW144779  13.795   1.926   8.362
47649SOL    HW244780  13.946   1.932   8.378
47650SOL     OW44781  13.830   8.643   9.724
47650SOL    HW144782  13.858   8.568   9.778
47650SOL    HW244783  13.902   8.656   9.662
47651SOL     OW44784   9.707   6.686  12.240
47651SOL    HW144785   9.797   6.694  12.208
47651SOL    HW244786   9.711   6.710  12.332
47652SOL     OW44787   6.950  13.522  12.296
47652SOL    HW144788   7.038  13.544  12.267
47652SOL    HW244789   6.954  13.430  12.322
47653SOL     OW44790   6.885   7.589   4.263
47653SOL    HW144791   6.866   7.497   4.246
47653SOL    HW244792   6.973   7.603   4.230
47654SOL     OW44793   7.278   0.435  12.842
47654SOL    HW144794   7.319   0.520  12.825
47654SOL    HW244795   7.336   0.372  12.800
47655SOL     OW44796   8.279   7.716  11.585
47655SOL    HW144797   8.303   7.627  11.610
47655SOL    HW244798   8.185   7.722  11.605
47656SOL     OW44799  10.454  10.472   8.107
47656SOL    HW144800  10.419  10.561   8.099
47656SOL    HW244801  10.471  10.445   8.017
47657SOL     OW44802   3.660   7.298   7.225
47657SOL    HW144803   3.746   7.340   7.220
47657SOL    HW244804   3.676   7.216   7.272
47658SOL     OW44805   3.251  10.345   6.796
47658SOL    HW144806   3.284  10.360   6.884
47658SOL    HW244807   3.318  10.383   6.739
47659SOL     OW44808   0.916  13.540   2.572
47659SOL    HW144809   0.953  13.503   2.492
47659SOL    HW244810   0.868  13.617   2.544
47660SOL     OW44811  11.251   1.651  11.293
47660SOL    HW144812  11.236   1.741  11.321
47660SOL    HW244813  11.340   1.631  11.323
47661SOL     OW44814  10.735   3.465   6.550
47661SOL    HW144815  10.704   3.543   6.596
47661SOL    HW244816  10.656   3.414   6.531
47662SOL     OW44817   7.591   8.684  13.203
47662SOL    HW144818   7.556   8.693  13.292
47662SOL    HW244819   7.543   8.610  13.166
47663SOL     OW44820   5.408   7.343  11.905
47663SOL    HW144821   5.442   7.329  11.994
47663SOL    HW244822   5.474   7.304  11.848
47664SOL     OW44823  13.237  13.497   2.192
47664SOL    HW144824  13.293  13.574   2.179
47664SOL    HW244825  13.285  13.425   2.152
47665SOL     OW44826   5.015  14.192  13.759
47665SOL    HW144827   5.097  14.143  13.770
47665SOL    HW244828   4.989  14.174  13.669
47666SOL     OW44829   6.133   0.667  14.114
47666SOL    HW144830   6.194   0.731  14.151
47666SOL    HW244831   6.144   0.677  14.019
47667SOL     OW44832   4.336  12.727   6.984
47667SOL    HW144833   4.355  12.638   7.014
47667SOL    HW244834   4.328  12.779   7.064
47668SOL     OW44835  13.915   3.711   9.961
47668SOL    HW144836  13.964   3.639   9.920
47668SOL    HW244837  13.931   3.701  10.054
47669SOL     OW44838   1.377   6.679   2.655
47669SOL    HW144839   1.331   6.665   2.738
47669SOL    HW244840   1.310   6.669   2.588
47670SOL     OW44841   7.529   4.285  14.120
47670SOL    HW144842   7.551   4.192  14.131
47670SOL    HW244843   7.546   4.324  14.205
47671SOL     OW44844   1.286   2.334   9.373
47671SOL    HW144845   1.367   2.358   9.328
47671SOL    HW244846   1.258   2.254   9.330
47672SOL     OW44847   6.169  11.211  14.486
47672SOL    HW144848   6.149  11.174  14.572
47672SOL    HW244849   6.171  11.136  14.427
47673SOL     OW44850   7.070   3.765   7.135
47673SOL    HW144851   6.986   3.755   7.181
47673SOL    HW244852   7.053   3.833   7.070
47674SOL     OW44853   8.912   2.208  12.850
47674SOL    HW144854   8.865   2.163  12.780
47674SOL    HW244855   8.852   2.207  12.924
47675SOL     OW44856   8.772   6.350   8.749
47675SOL    HW144857   8.801   6.440   8.738
47675SOL    HW244858   8.784   6.331   8.842
47676SOL     OW44859   0.417   2.708   7.158
47676SOL    HW144860   0.367   2.789   7.171
47676SOL    HW244861   0.482   2.732   7.092
47677SOL     OW44862   2.124  14.812   4.875
47677SOL    HW144863   2.172  14.783   4.797
47677SOL    HW244864   2.043  14.761   4.874
47678SOL     OW44865  14.600  14.768  14.440
47678SOL    HW144866  14.595  14.816  14.357
47678SOL    HW244867  14.543  14.818  14.499
47679SOL     OW44868   5.812   8.044   1.955
47679SOL    HW144869   5.808   8.009   1.865
47679SOL    HW244870   5.889   8.002   1.993
47680SOL     OW44871  14.252  10.711   8.052
47680SOL    HW144872  14.347  10.700   8.043
47680SOL    HW244873  14.241  10.802   8.081
47681SOL     OW44874   1.994   5.313  14.596
47681SOL    HW144875   2.018   5.332  14.505
47681SOL    HW244876   1.912   5.361  14.610
47682SOL     OW44877   4.491   8.965   6.275
47682SOL    HW144878   4.487   8.872   6.293
47682SOL    HW244879   4.412   8.983   6.224
47683SOL     OW44880  12.768   3.895   9.754
47683SOL    HW144881  12.724   3.859   9.678
47683SOL    HW244882  12.847   3.841   9.764
47684SOL     OW44883  13.050   0.852   0.729
47684SOL    HW144884  13.027   0.920   0.666
47684SOL    HW244885  12.969   0.832   0.774
47685SOL     OW44886   8.220   4.772   4.905
47685SOL    HW144887   8.247   4.834   4.973
47685SOL    HW244888   8.248   4.813   4.823
47686SOL     OW44889  12.355   2.003   8.054
47686SOL    HW144890  12.269   2.035   8.083
47686SOL    HW244891  12.338   1.961   7.970
47687SOL     OW44892  10.960   1.460   2.279
47687SOL    HW144893  10.877   1.509   2.277
47687SOL    HW244894  11.026   1.525   2.254
47688SOL     OW44895   0.020   6.869   1.372
47688SOL    HW144896   0.110   6.837   1.383
47688SOL    HW244897  14.847   6.801   1.411
47689SOL     OW44898   8.821  14.503  10.827
47689SOL    HW144899   8.745  14.450  10.804
47689SOL    HW244900   8.894  14.463  10.780
47690SOL     OW44901   5.692   1.551   4.828
47690SOL    HW144902   5.787   1.557   4.814
47690SOL    HW244903   5.676   1.458   4.845
47691SOL     OW44904   7.782  13.965   5.683
47691SOL    HW144905   7.875  13.983   5.696
47691SOL    HW244906   7.737  14.037   5.727
47692SOL     OW44907   2.595   3.779  11.551
47692SOL    HW144908   2.531   3.711  11.572
47692SOL    HW244909   2.626   3.809  11.637
47693SOL     OW44910  13.417   6.871   8.736
47693SOL    HW144911  13.511   6.875   8.717
47693SOL    HW244912  13.377   6.922   8.666
47694SOL     OW44913   4.086   1.704   0.016
47694SOL    HW144914   4.144   1.677  14.827
47694SOL    HW244915   4.143   1.753   0.076
47695SOL     OW44916   5.852   2.231   4.880
47695SOL    HW144917   5.862   2.181   4.799
47695SOL    HW244918   5.925   2.202   4.935
47696SOL     OW44919   1.699   7.723   5.363
47696SOL    HW144920   1.671   7.751   5.276
47696SOL    HW244921   1.637   7.765   5.423
47697SOL     OW44922  12.058   9.665   9.915
47697SOL    HW144923  12.129   9.600   9.910
47697SOL    HW244924  12.102   9.747   9.938
47698SOL     OW44925   4.216   6.225   6.695
47698SOL    HW144926   4.174   6.191   6.775
47698SOL    HW244927   4.294   6.269   6.726
47699SOL     OW44928   3.534   3.134   7.350
47699SOL    HW144929   3.615   3.180   7.330
47699SOL    HW244930   3.465   3.198   7.334
47700SOL     OW44931  10.504   4.604   5.801
47700SOL    HW144932  10.432   4.649   5.845
47700SOL    HW244933  10.510   4.645   5.715
47701SOL     OW44934   5.363   0.978   5.641
47701SOL    HW144935   5.427   1.047   5.625
47701SOL    HW244936   5.282   1.011   5.602
47702SOL     OW44937  13.703   7.445  13.410
47702SOL    HW144938  13.713   7.433  13.316
47702SOL    HW244939  13.681   7.538  13.421
47703SOL     OW44940   5.919   6.057   7.776
47703SOL    HW144941   5.901   6.106   7.696
47703SOL    HW244942   5.836   6.012   7.795
47704SOL     OW44943   7.767   1.797   7.217
47704SOL    HW144944   7.765   1.883   7.175
47704SOL    HW244945   7.786   1.736   7.146
47705SOL     OW44946   0.596   2.462  12.235
47705SOL    HW144947   0.600   2.394  12.302
47705SOL    HW244948   0.542   2.425  12.166
47706SOL     OW44949  10.264  14.211   5.349
47706SOL    HW144950  10.321  14.226   5.274
47706SOL    HW244951  10.176  14.208   5.311
47707SOL     OW44952   1.749  10.651   9.701
47707SOL    HW144953   1.692  10.672   9.627
47707SOL    HW244954   1.759  10.556   9.697
47708SOL     OW44955   9.182  12.005  11.702
47708SOL    HW144956   9.200  11.980  11.793
47708SOL    HW244957   9.226  12.089  11.691
47709SOL     OW44958   3.295   4.253  10.856
47709SOL    HW144959   3.233   4.185  10.831
47709SOL    HW244960   3.241   4.322  10.895
47710SOL     OW44961  12.196   7.384   1.703
47710SOL    HW144962  12.144   7.463   1.716
47710SOL    HW244963  12.195   7.369   1.609
47711SOL     OW44964  13.903  11.978  11.926
47711SOL    HW144965  13.958  11.928  11.867
47711SOL    HW244966  13.831  11.919  11.947
47712SOL     OW44967   8.288  12.655   3.940
47712SOL    HW144968   8.372  12.671   3.983
47712SOL    HW244969   8.242  12.595   3.999
47713SOL     OW44970  13.150   1.514   8.206
47713SOL    HW144971  13.058   1.491   8.220
47713SOL    HW244972  13.171   1.573   8.278
47714SOL     OW44973  10.728   8.109   9.745
47714SOL    HW144974  10.755   8.189   9.702
47714SOL    HW244975  10.634   8.101   9.725
47715SOL     OW44976   3.127   4.668   2.054
47715SOL    HW144977   3.081   4.625   2.126
47715SOL    HW244978   3.219   4.646   2.068
47716SOL     OW44979   9.589   0.449   3.820
47716SOL    HW144980   9.652   0.496   3.874
47716SOL    HW244981   9.507   0.498   3.829
47717SOL     OW44982   6.383  10.864   8.406
47717SOL    HW144983   6.405  10.844   8.315
47717SOL    HW244984   6.468  10.884   8.446
47718SOL     OW44985   4.605   6.273   0.837
47718SOL    HW144986   4.559   6.319   0.908
47718SOL    HW244987   4.643   6.196   0.880
47719SOL     OW44988   2.181   6.546  11.055
47719SOL    HW144989   2.151   6.621  11.107
47719SOL    HW244990   2.119   6.476  11.076
47720SOL     OW44991  13.937  13.007   6.687
47720SOL    HW144992  13.920  13.101   6.693
47720SOL    HW244993  14.032  13.001   6.673
47721SOL     OW44994   4.922  13.173   8.360
47721SOL    HW144995   4.974  13.113   8.308
47721SOL    HW244996   4.927  13.256   8.314
47722SOL     OW44997   2.744  12.641  14.251
47722SOL    HW144998   2.761  12.729  14.286
47722SOL    HW244999   2.818  12.623  14.193
47723SOL     OW45000  11.155  13.482   6.544
47723SOL    HW145001  11.101  13.403   6.540
47723SOL    HW245002  11.239  13.452   6.578
47724SOL     OW45003   1.821   4.267   0.665
47724SOL    HW145004   1.910   4.262   0.699
47724SOL    HW245005   1.797   4.359   0.672
47725SOL     OW45006   4.676   9.300   6.841
47725SOL    HW145007   4.679   9.389   6.877
47725SOL    HW245008   4.681   9.313   6.746
47726SOL     OW45009   5.623   8.033  11.381
47726SOL    HW145010   5.535   7.999  11.368
47726SOL    HW245011   5.630   8.105  11.317
47727SOL     OW45012  14.177   9.918   4.667
47727SOL    HW145013  14.113   9.911   4.597
47727SOL    HW245014  14.143   9.986   4.725
47728SOL     OW45015  14.625   4.231  12.883
47728SOL    HW145016  14.645   4.319  12.851
47728SOL    HW245017  14.560   4.197  12.822
47729SOL     OW45018   2.050  10.011  11.256
47729SOL    HW145019   2.054  10.058  11.340
47729SOL    HW245020   1.976  10.051  11.210
47730SOL     OW45021  11.086   3.600  13.135
47730SOL    HW145022  11.070   3.648  13.054
47730SOL    HW245023  11.180   3.583  13.135
47731SOL     OW45024  10.281   3.865  12.803
47731SOL    HW145025  10.351   3.815  12.846
47731SOL    HW245026  10.206   3.856  12.862
47732SOL     OW45027   4.414  11.581  11.558
47732SOL    HW145028   4.373  11.496  11.573
47732SOL    HW245029   4.457  11.602  11.641
47733SOL     OW45030  12.215   7.520   4.404
47733SOL    HW145031  12.170   7.550   4.325
47733SOL    HW245032  12.262   7.597   4.436
47734SOL     OW45033   1.081   1.949   7.419
47734SOL    HW145034   1.125   2.012   7.361
47734SOL    HW245035   0.988   1.964   7.404
47735SOL     OW45036   2.806  13.888   3.775
47735SOL    HW145037   2.754  13.836   3.836
47735SOL    HW245038   2.833  13.826   3.708
47736SOL     OW45039   4.430   3.020   3.345
47736SOL    HW145040   4.338   3.043   3.333
47736SOL    HW245041   4.455   2.974   3.265
47737SOL     OW45042   3.613   5.626   5.048
47737SOL    HW145043   3.610   5.721   5.041
47737SOL    HW245044   3.694   5.608   5.094
47738SOL     OW45045  11.345   2.373   5.403
47738SOL    HW145046  11.262   2.407   5.435
47738SOL    HW245047  11.353   2.409   5.315
47739SOL     OW45048  13.440   9.667   3.073
47739SOL    HW145049  13.502   9.737   3.091
47739SOL    HW245050  13.495   9.589   3.060
47740SOL     OW45051  10.880   3.623   4.313
47740SOL    HW145052  10.836   3.544   4.344
47740SOL    HW245053  10.820   3.694   4.335
47741SOL     OW45054   1.678  11.756   0.024
47741SOL    HW145055   1.734  11.822   0.066
47741SOL    HW245056   1.732  11.677   0.022
47742SOL     OW45057   6.808  13.961  14.320
47742SOL    HW145058   6.837  13.908  14.394
47742SOL    HW245059   6.724  13.998  14.349
47743SOL     OW45060   3.337  14.784   8.477
47743SOL    HW145061   3.247  14.809   8.496
47743SOL    HW245062   3.385  14.799   8.559
47744SOL     OW45063  14.481   2.246   4.407
47744SOL    HW145064  14.510   2.188   4.336
47744SOL    HW245065  14.544   2.231   4.477
47745SOL     OW45066   6.566   9.092   8.624
47745SOL    HW145067   6.553   9.035   8.699
47745SOL    HW245068   6.645   9.058   8.581
47746SOL     OW45069  13.480  12.017   9.657
47746SOL    HW145070  13.489  11.954   9.728
47746SOL    HW245071  13.560  12.069   9.660
47747SOL     OW45072   7.154   0.664   2.770
47747SOL    HW145073   7.129   0.690   2.681
47747SOL    HW245074   7.185   0.744   2.810
47748SOL     OW45075  10.079  14.176  11.911
47748SOL    HW145076  10.028  14.231  11.853
47748SOL    HW245077  10.045  14.088  11.898
47749SOL     OW45078   7.821   7.475   4.329
47749SOL    HW145079   7.739   7.456   4.281
47749SOL    HW245080   7.853   7.389   4.355
47750SOL     OW45081   5.213   1.055   7.569
47750SOL    HW145082   5.234   1.139   7.610
47750SOL    HW245083   5.229   1.069   7.476
47751SOL     OW45084  14.053   6.316  12.223
47751SOL    HW145085  14.109   6.250  12.181
47751SOL    HW245086  14.047   6.289  12.314
47752SOL     OW45087   1.756   5.433   9.872
47752SOL    HW145088   1.679   5.437   9.929
47752SOL    HW245089   1.828   5.465   9.928
47753SOL     OW45090  10.746  14.697  11.770
47753SOL    HW145091  10.774  14.614  11.809
47753SOL    HW245092  10.766  14.688  11.677
47754SOL     OW45093   4.366   2.319   1.528
47754SOL    HW145094   4.406   2.281   1.450
47754SOL    HW245095   4.413   2.401   1.542
47755SOL     OW45096   7.203   3.898  12.114
47755SOL    HW145097   7.244   3.814  12.131
47755SOL    HW245098   7.253   3.961  12.167
47756SOL     OW45099   4.221   7.469  10.881
47756SOL    HW145100   4.302   7.452  10.928
47756SOL    HW245101   4.181   7.543  10.928
47757SOL     OW45102   9.379   2.934   5.751
47757SOL    HW145103   9.469   2.964   5.737
47757SOL    HW245104   9.334   3.010   5.787
47758SOL     OW45105   7.716  13.957   4.317
47758SOL    HW145106   7.656  13.918   4.253
47758SOL    HW245107   7.803  13.946   4.280
47759SOL     OW45108   5.228  14.774  14.699
47759SOL    HW145109   5.217  14.739  14.611
47759SOL    HW245110   5.204  14.701  14.757
47760SOL     OW45111   3.118  11.927   5.558
47760SOL    HW145112   3.184  11.864   5.587
47760SOL    HW245113   3.139  12.008   5.603
47761SOL     OW45114   7.924   7.507  10.392
47761SOL    HW145115   7.897   7.442  10.457
47761SOL    HW245116   7.938   7.456  10.312
47762SOL     OW45117   4.024   8.272   3.502
47762SOL    HW145118   3.945   8.219   3.492
47762SOL    HW245119   4.060   8.245   3.586
47763SOL     OW45120   9.776  14.542   3.652
47763SOL    HW145121   9.851  14.523   3.710
47763SOL    HW245122   9.779  14.473   3.586
47764SOL     OW45123   9.347  14.076   1.603
47764SOL    HW145124   9.358  14.122   1.686
47764SOL    HW245125   9.353  13.983   1.626
47765SOL     OW45126   8.572   4.045  11.939
47765SOL    HW145127   8.512   4.119  11.955
47765SOL    HW245128   8.581   4.002  12.024
47766SOL     OW45129   7.220   4.560   5.954
47766SOL    HW145130   7.238   4.596   5.867
47766SOL    HW245131   7.205   4.466   5.938
47767SOL     OW45132   1.452   6.014   6.133
47767SOL    HW145133   1.419   5.951   6.198
47767SOL    HW245134   1.466   5.961   6.055
47768SOL     OW45135   4.188  13.425   5.108
47768SOL    HW145136   4.203  13.363   5.179
47768SOL    HW245137   4.272  13.428   5.061
47769SOL     OW45138   8.097  14.124   5.413
47769SOL    HW145139   8.048  14.200   5.444
47769SOL    HW245140   8.076  14.118   5.320
47770SOL     OW45141   1.034  11.342   9.848
47770SOL    HW145142   0.962  11.404   9.838
47770SOL    HW245143   0.998  11.273   9.904
47771SOL     OW45144  14.522   7.927   8.627
47771SOL    HW145145  14.543   7.963   8.541
47771SOL    HW245146  14.553   7.837   8.624
47772SOL     OW45147  14.184   9.529  13.871
47772SOL    HW145148  14.165   9.618  13.843
47772SOL    HW245149  14.126   9.474  13.818
47773SOL     OW45150  10.752   9.196   9.732
47773SOL    HW145151  10.660   9.169   9.727
47773SOL    HW245152  10.788   9.147   9.805
47774SOL     OW45153   4.585   4.721   5.632
47774SOL    HW145154   4.554   4.656   5.569
47774SOL    HW245155   4.574   4.805   5.587
47775SOL     OW45156   1.118   9.183  14.456
47775SOL    HW145157   1.142   9.259  14.404
47775SOL    HW245158   1.170   9.192  14.537
47776SOL     OW45159   4.053  10.234   1.759
47776SOL    HW145160   4.036  10.218   1.666
47776SOL    HW245161   3.971  10.269   1.793
47777SOL     OW45162   4.295   9.419   4.835
47777SOL    HW145163   4.353   9.347   4.811
47777SOL    HW245164   4.346   9.498   4.816
47778SOL     OW45165   0.160   3.301   8.639
47778SOL    HW145166   0.072   3.268   8.654
47778SOL    HW245167   0.215   3.222   8.639
47779SOL     OW45168   0.256  13.644  11.974
47779SOL    HW145169   0.298  13.659  12.059
47779SOL    HW245170   0.218  13.728  11.950
47780SOL     OW45171  11.228  11.155   9.290
47780SOL    HW145172  11.219  11.230   9.231
47780SOL    HW245173  11.319  11.127   9.280
47781SOL     OW45174   5.716   5.257   8.549
47781SOL    HW145175   5.789   5.199   8.528
47781SOL    HW245176   5.688   5.292   8.464
47782SOL     OW45177   6.126  12.423   6.546
47782SOL    HW145178   6.202  12.449   6.597
47782SOL    HW245179   6.081  12.358   6.601
47783SOL     OW45180  14.066   0.516  10.582
47783SOL    HW145181  13.991   0.576  10.574
47783SOL    HW245182  14.039   0.453  10.649
47784SOL     OW45183   2.426  11.029  10.210
47784SOL    HW145184   2.416  11.049  10.303
47784SOL    HW245185   2.352  10.971  10.190
47785SOL     OW45186   4.221  13.683  11.980
47785SOL    HW145187   4.216  13.610  12.041
47785SOL    HW245188   4.173  13.754  12.023
47786SOL     OW45189   5.862   2.621  14.435
47786SOL    HW145190   5.775   2.581  14.430
47786SOL    HW245191   5.922   2.554  14.403
47787SOL     OW45192  10.711   6.624  12.766
47787SOL    HW145193  10.640   6.565  12.789
47787SOL    HW245194  10.691   6.651  12.676
47788SOL     OW45195  11.736   4.875  10.433
47788SOL    HW145196  11.686   4.910  10.507
47788SOL    HW245197  11.703   4.785  10.423
47789SOL     OW45198  14.125  12.031  12.211
47789SOL    HW145199  14.137  11.948  12.165
47789SOL    HW245200  14.169  12.018  12.295
47790SOL     OW45201   0.404   1.265  10.514
47790SOL    HW145202   0.490   1.256  10.554
47790SOL    HW245203   0.418   1.246  10.421
47791SOL     OW45204   2.144  11.669   1.233
47791SOL    HW145205   2.136  11.707   1.320
47791SOL    HW245206   2.054  11.649   1.207
47792SOL     OW45207  12.558   3.902   0.806
47792SOL    HW145208  12.633   3.885   0.749
47792SOL    HW245209  12.490   3.842   0.775
47793SOL     OW45210   3.600   1.301   3.617
47793SOL    HW145211   3.651   1.381   3.625
47793SOL    HW245212   3.562   1.288   3.704
47794SOL     OW45213   9.532  10.447  13.185
47794SOL    HW145214   9.600  10.392  13.226
47794SOL    HW245215   9.450  10.416  13.222
47795SOL     OW45216   6.068   3.614   8.139
47795SOL    HW145217   6.052   3.706   8.121
47795SOL    HW245218   6.038   3.568   8.062
47796SOL     OW45219  14.235   3.224   0.989
47796SOL    HW145220  14.294   3.282   0.941
47796SOL    HW245221  14.197   3.167   0.922
47797SOL     OW45222  14.127  12.701   6.608
47797SOL    HW145223  14.081  12.785   6.603
47797SOL    HW245224  14.198  12.716   6.670
47798SOL     OW45225  13.430  12.995   8.145
47798SOL    HW145226  13.381  12.976   8.225
47798SOL    HW245227  13.504  13.049   8.173
47799SOL     OW45228   5.237  11.496   9.744
47799SOL    HW145229   5.324  11.458   9.738
47799SOL    HW245230   5.199  11.486   9.657
47800SOL     OW45231   3.685   7.848   9.845
47800SOL    HW145232   3.748   7.777   9.856
47800SOL    HW245233   3.629   7.843   9.922
47801SOL     OW45234   8.577  13.466   9.185
47801SOL    HW145235   8.650  13.518   9.218
47801SOL    HW245236   8.597  13.452   9.093
47802SOL     OW45237  13.040   9.675  13.707
47802SOL    HW145238  13.028   9.769  13.723
47802SOL    HW245239  13.106   9.670  13.638
47803SOL     OW45240  12.335   4.168   2.905
47803SOL    HW145241  12.274   4.096   2.889
47803SOL    HW245242  12.285   4.230   2.959
47804SOL     OW45243   5.743   6.730  13.670
47804SOL    HW145244   5.770   6.639  13.655
47804SOL    HW245245   5.785   6.754  13.753
47805SOL     OW45246  10.686  12.240   1.633
47805SOL    HW145247  10.772  12.237   1.591
47805SOL    HW245248  10.697  12.188   1.713
47806SOL     OW45249   8.012  11.131  12.332
47806SOL    HW145250   8.054  11.207  12.372
47806SOL    HW245251   7.994  11.157  12.242
47807SOL     OW45252  13.702  14.149   0.383
47807SOL    HW145253  13.740  14.105   0.307
47807SOL    HW245254  13.625  14.196   0.348
47808SOL     OW45255   9.902  10.054  14.306
47808SOL    HW145256   9.833   9.989  14.312
47808SOL    HW245257   9.865  10.132  14.349
47809SOL     OW45258  11.062  10.521   6.415
47809SOL    HW145259  10.989  10.579   6.439
47809SOL    HW245260  11.020  10.446   6.373
47810SOL     OW45261   0.786  10.774   7.362
47810SOL    HW145262   0.735  10.750   7.285
47810SOL    HW245263   0.869  10.728   7.352
47811SOL     OW45264   4.862  12.340  11.774
47811SOL    HW145265   4.857  12.414  11.835
47811SOL    HW245266   4.955  12.323  11.763
47812SOL     OW45267   3.028   6.474  10.567
47812SOL    HW145268   3.081   6.473  10.487
47812SOL    HW245269   2.947   6.519  10.542
47813SOL     OW45270   9.612   1.474  13.051
47813SOL    HW145271   9.594   1.497  13.143
47813SOL    HW245272   9.567   1.391  13.038
47814SOL     OW45273   0.752  12.231  14.377
47814SOL    HW145274   0.691  12.176  14.426
47814SOL    HW245275   0.744  12.317  14.417
47815SOL     OW45276  10.769   8.963  12.991
47815SOL    HW145277  10.721   8.963  12.908
47815SOL    HW245278  10.858   8.988  12.968
47816SOL     OW45279   8.187  12.937   1.342
47816SOL    HW145280   8.231  12.859   1.309
47816SOL    HW245281   8.193  13.000   1.270
47817SOL     OW45282   4.786  14.307   8.546
47817SOL    HW145283   4.713  14.366   8.526
47817SOL    HW245284   4.858  14.366   8.567
47818SOL     OW45285   8.694   3.832   8.401
47818SOL    HW145286   8.773   3.785   8.426
47818SOL    HW245287   8.638   3.766   8.360
47819SOL     OW45288  13.187  12.037   2.225
47819SOL    HW145289  13.232  12.119   2.209
47819SOL    HW245290  13.094  12.059   2.222
47820SOL     OW45291   8.131   9.642   1.863
47820SOL    HW145292   8.124   9.556   1.823
47820SOL    HW245293   8.115   9.704   1.791
47821SOL     OW45294   5.637  11.757   6.453
47821SOL    HW145295   5.647  11.760   6.548
47821SOL    HW245296   5.545  11.732   6.439
47822SOL     OW45297  11.309   7.916   7.718
47822SOL    HW145298  11.388   7.956   7.681
47822SOL    HW245299  11.241   7.983   7.707
47823SOL     OW45300  10.143   1.157   5.554
47823SOL    HW145301  10.089   1.119   5.623
47823SOL    HW245302  10.131   1.099   5.479
47824SOL     OW45303  11.855   0.645   1.503
47824SOL    HW145304  11.936   0.641   1.451
47824SOL    HW245305  11.872   0.589   1.579
47825SOL     OW45306   3.245   2.027  13.017
47825SOL    HW145307   3.216   1.990  12.934
47825SOL    HW245308   3.169   2.075  13.049
47826SOL     OW45309   5.452   7.430   6.126
47826SOL    HW145310   5.375   7.440   6.071
47826SOL    HW245311   5.462   7.515   6.170
47827SOL     OW45312   9.468   0.688   9.159
47827SOL    HW145313   9.557   0.659   9.139
47827SOL    HW245314   9.419   0.606   9.173
47828SOL     OW45315   4.588   4.909   0.013
47828SOL    HW145316   4.579   5.002   0.032
47828SOL    HW245317   4.683   4.896   0.003
47829SOL     OW45318  10.926   2.250   9.627
47829SOL    HW145319  10.892   2.217   9.543
47829SOL    HW245320  10.853   2.238   9.688
47830SOL     OW45321   1.760   8.860   2.453
47830SOL    HW145322   1.786   8.797   2.521
47830SOL    HW245323   1.795   8.823   2.372
47831SOL     OW45324  10.440   2.969   0.106
47831SOL    HW145325  10.531   2.941   0.117
47831SOL    HW245326  10.398   2.898   0.058
47832SOL     OW45327  10.699   7.631   0.141
47832SOL    HW145328  10.736   7.588   0.064
47832SOL    HW245329  10.616   7.667   0.111
47833SOL     OW45330  13.037  14.171  12.720
47833SOL    HW145331  13.041  14.226  12.642
47833SOL    HW245332  12.965  14.206  12.772
47834SOL     OW45333   4.540   4.048   0.689
47834SOL    HW145334   4.633   4.038   0.669
47834SOL    HW245335   4.497   3.983   0.633
47835SOL     OW45336  14.433   7.487  13.866
47835SOL    HW145337  14.478   7.524  13.941
47835SOL    HW245338  14.392   7.562  13.822
47836SOL     OW45339  12.144   7.436  13.098
47836SOL    HW145340  12.117   7.390  13.178
47836SOL    HW245341  12.121   7.376  13.028
47837SOL     OW45342  10.100   0.924   1.264
47837SOL    HW145343  10.179   0.977   1.279
47837SOL    HW245344  10.111   0.847   1.320
47838SOL     OW45345   3.421   8.330  14.555
47838SOL    HW145346   3.401   8.238  14.573
47838SOL    HW245347   3.497   8.349  14.610
47839SOL     OW45348   2.266  10.574  13.261
47839SOL    HW145349   2.357  10.558  13.237
47839SOL    HW245350   2.227  10.487  13.269
47840SOL     OW45351   4.961  12.487   6.304
47840SOL    HW145352   4.951  12.532   6.388
47840SOL    HW245353   5.052  12.455   6.305
47841SOL     OW45354   7.551  11.617  12.491
47841SOL    HW145355   7.516  11.549  12.549
47841SOL    HW245356   7.571  11.571  12.410
47842SOL     OW45357   6.074   0.791   3.301
47842SOL    HW145358   6.015   0.747   3.240
47842SOL    HW245359   6.061   0.745   3.384
47843SOL     OW45360   7.946   6.160  14.020
47843SOL    HW145361   8.025   6.211  14.004
47843SOL    HW245362   7.941   6.100  13.945
47844SOL     OW45363  10.621  10.579  11.243
47844SOL    HW145364  10.538  10.602  11.286
47844SOL    HW245365  10.649  10.499  11.286
47845SOL     OW45366   0.595   7.654   7.528
47845SOL    HW145367   0.581   7.583   7.591
47845SOL    HW245368   0.510   7.696   7.520
47846SOL     OW45369   0.533   8.595   0.264
47846SOL    HW145370   0.574   8.509   0.266
47846SOL    HW245371   0.557   8.635   0.348
47847SOL     OW45372   4.750   6.866   5.233
47847SOL    HW145373   4.802   6.791   5.205
47847SOL    HW245374   4.710   6.838   5.316
47848SOL     OW45375   2.912   6.426  12.694
47848SOL    HW145376   2.844   6.368  12.729
47848SOL    HW245377   2.965   6.450  12.770
47849SOL     OW45378   0.824  13.988  10.979
47849SOL    HW145379   0.761  13.930  10.936
47849SOL    HW245380   0.771  14.043  11.036
47850SOL     OW45381   4.640   5.582  13.543
47850SOL    HW145382   4.592   5.529  13.608
47850SOL    HW245383   4.644   5.527  13.465
47851SOL     OW45384   3.298   3.401  13.142
47851SOL    HW145385   3.259   3.411  13.056
47851SOL    HW245386   3.230   3.358  13.195
47852SOL     OW45387   1.540   8.406   2.546
47852SOL    HW145388   1.466   8.417   2.605
47852SOL    HW245389   1.553   8.311   2.541
47853SOL     OW45390   7.255   4.492   8.485
47853SOL    HW145391   7.247   4.547   8.407
47853SOL    HW245392   7.292   4.410   8.452
47854SOL     OW45393   2.463   0.740   3.558
47854SOL    HW145394   2.393   0.772   3.502
47854SOL    HW245395   2.419   0.684   3.622
47855SOL     OW45396  13.423   8.855   4.298
47855SOL    HW145397  13.487   8.920   4.328
47855SOL    HW245398  13.356   8.855   4.366
47856SOL     OW45399   8.127  10.433  14.256
47856SOL    HW145400   8.096  10.514  14.295
47856SOL    HW245401   8.082  10.428  14.172
47857SOL     OW45402  13.007   5.504   8.259
47857SOL    HW145403  13.018   5.417   8.297
47857SOL    HW245404  13.095   5.534   8.240
47858SOL     OW45405   8.531   0.231  14.869
47858SOL    HW145406   8.571   0.289   0.052
47858SOL    HW245407   8.452   0.198   0.030
47859SOL     OW45408  14.373   7.302  14.745
47859SOL    HW145409  14.422   7.315  14.826
47859SOL    HW245410  14.365   7.207  14.737
47860SOL     OW45411   9.220   7.910  10.593
47860SOL    HW145412   9.215   8.003  10.618
47860SOL    HW245413   9.310   7.899  10.561
47861SOL     OW45414   6.331   1.415   9.311
47861SOL    HW145415   6.379   1.343   9.352
47861SOL    HW245416   6.329   1.393   9.218
47862SOL     OW45417   7.130   3.708   2.718
47862SOL    HW145418   7.062   3.745   2.775
47862SOL    HW245419   7.083   3.679   2.641
47863SOL     OW45420   1.523   2.627   7.304
47863SOL    HW145421   1.519   2.568   7.228
47863SOL    HW245422   1.443   2.609   7.352
47864SOL     OW45423   9.875  12.510  11.965
47864SOL    HW145424   9.866  12.418  11.939
47864SOL    HW245425   9.814  12.557  11.908
47865SOL     OW45426   3.552   0.624   3.957
47865SOL    HW145427   3.647   0.626   3.951
47865SOL    HW245428   3.523   0.590   3.873
47866SOL     OW45429  12.842  13.195  12.627
47866SOL    HW145430  12.925  13.191  12.674
47866SOL    HW245431  12.801  13.110  12.643
47867SOL     OW45432   9.099   2.409   1.358
47867SOL    HW145433   9.131   2.420   1.268
47867SOL    HW245434   9.012   2.447   1.358
47868SOL     OW45435   7.673  12.156   7.398
47868SOL    HW145436   7.621  12.200   7.330
47868SOL    HW245437   7.762  12.155   7.364
47869SOL     OW45438  14.269   2.843  13.426
47869SOL    HW145439  14.221   2.851  13.508
47869SOL    HW245440  14.337   2.910  13.431
47870SOL     OW45441   9.952   4.462   7.703
47870SOL    HW145442   9.969   4.512   7.783
47870SOL    HW245443   9.936   4.529   7.636
47871SOL     OW45444   4.189   0.636   9.683
47871SOL    HW145445   4.180   0.553   9.731
47871SOL    HW245446   4.119   0.692   9.718
47872SOL     OW45447  11.070   2.497   1.959
47872SOL    HW145448  10.989   2.476   1.913
47872SOL    HW245449  11.059   2.458   2.045
47873SOL     OW45450   0.170   4.440  13.942
47873SOL    HW145451   0.110   4.378  13.901
47873SOL    HW245452   0.160   4.521  13.892
47874SOL     OW45453   3.096   1.705   1.538
47874SOL    HW145454   3.186   1.738   1.544
47874SOL    HW245455   3.068   1.728   1.450
47875SOL     OW45456   1.903  10.717  10.846
47875SOL    HW145457   1.960  10.641  10.855
47875SOL    HW245458   1.841  10.694  10.777
47876SOL     OW45459   5.580   6.870   2.060
47876SOL    HW145460   5.627   6.807   2.113
47876SOL    HW245461   5.552   6.820   1.983
47877SOL     OW45462  14.665   8.185  10.842
47877SOL    HW145463  14.720   8.252  10.882
47877SOL    HW245464  14.723   8.110  10.829
47878SOL     OW45465   9.031   6.983   9.122
47878SOL    HW145466   9.045   6.965   9.030
47878SOL    HW245467   9.040   6.899   9.166
47879SOL     OW45468  10.403  11.750   6.410
47879SOL    HW145469  10.323  11.801   6.423
47879SOL    HW245470  10.474  11.813   6.423
47880SOL     OW45471  14.713   9.563  12.893
47880SOL    HW145472  14.799   9.580  12.933
47880SOL    HW245473  14.650   9.583  12.963
47881SOL     OW45474   0.484  11.995   0.594
47881SOL    HW145475   0.416  11.995   0.661
47881SOL    HW245476   0.552  12.053   0.629
47882SOL     OW45477  12.407   1.647   4.037
47882SOL    HW145478  12.402   1.603   3.952
47882SOL    HW245479  12.398   1.577   4.101
47883SOL     OW45480   3.613   8.058  12.604
47883SOL    HW145481   3.688   8.061  12.663
47883SOL    HW245482   3.620   8.138  12.553
47884SOL     OW45483   3.994   6.087   8.438
47884SOL    HW145484   3.976   5.996   8.463
47884SOL    HW245485   4.024   6.128   8.519
47885SOL     OW45486   3.372   1.416  11.543
47885SOL    HW145487   3.378   1.414  11.638
47885SOL    HW245488   3.293   1.466  11.524
47886SOL     OW45489   9.362  11.677  13.577
47886SOL    HW145490   9.383  11.610  13.642
47886SOL    HW245491   9.314  11.744  13.625
47887SOL     OW45492   2.900  14.062   1.331
47887SOL    HW145493   2.824  14.028   1.377
47887SOL    HW245494   2.865  14.095   1.248
47888SOL     OW45495   3.379  11.395   3.924
47888SOL    HW145496   3.318  11.366   3.856
47888SOL    HW245497   3.462  11.409   3.878
47889SOL     OW45498   1.903   9.642  10.170
47889SOL    HW145499   1.866   9.731  10.170
47889SOL    HW245500   1.846   9.592  10.228
47890SOL     OW45501   9.647   4.848  12.886
47890SOL    HW145502   9.564   4.874  12.927
47890SOL    HW245503   9.682   4.930  12.850
47891SOL     OW45504   8.109   6.538   8.399
47891SOL    HW145505   8.116   6.597   8.474
47891SOL    HW245506   8.083   6.595   8.326
47892SOL     OW45507   0.404  12.081   8.586
47892SOL    HW145508   0.451  12.141   8.644
47892SOL    HW245509   0.440  11.995   8.606
47893SOL     OW45510   5.196   3.865   5.475
47893SOL    HW145511   5.218   3.775   5.496
47893SOL    HW245512   5.100   3.865   5.466
47894SOL     OW45513  10.487  11.014   0.953
47894SOL    HW145514  10.451  10.975   1.033
47894SOL    HW245515  10.415  11.066   0.918
47895SOL     OW45516   7.621  12.221  11.849
47895SOL    HW145517   7.547  12.251  11.795
47895SOL    HW245518   7.593  12.135  11.882
47896SOL     OW45519   4.340  12.066   5.414
47896SOL    HW145520   4.311  12.033   5.499
47896SOL    HW245521   4.305  12.003   5.351
47897SOL     OW45522   1.071   5.990  12.539
47897SOL    HW145523   0.983   5.952  12.541
47897SOL    HW245524   1.063   6.069  12.487
47898SOL     OW45525   3.097  10.582   6.018
47898SOL    HW145526   3.029  10.525   5.982
47898SOL    HW245527   3.109  10.550   6.108
47899SOL     OW45528   0.941   4.057  11.291
47899SOL    HW145529   0.848   4.073  11.277
47899SOL    HW245530   0.985   4.129  11.247
47900SOL     OW45531   9.025  13.617   7.900
47900SOL    HW145532   8.994  13.573   7.979
47900SOL    HW245533   8.995  13.708   7.909
47901SOL     OW45534  14.830  11.475   5.241
47901SOL    HW145535  14.823  11.529   5.320
47901SOL    HW245536  14.773  11.518   5.178
47902SOL     OW45537  10.534   1.822   9.926
47902SOL    HW145538  10.611   1.844   9.978
47902SOL    HW245539  10.472   1.785   9.989
47903SOL     OW45540  12.096   2.806   0.180
47903SOL    HW145541  12.023   2.747   0.159
47903SOL    HW245542  12.174   2.751   0.172
47904SOL     OW45543   2.972  11.890   6.108
47904SOL    HW145544   3.031  11.950   6.061
47904SOL    HW245545   2.951  11.937   6.189
47905SOL     OW45546   3.981   3.698   6.143
47905SOL    HW145547   3.971   3.732   6.232
47905SOL    HW245548   4.063   3.649   6.146
47906SOL     OW45549   1.324   5.655  13.412
47906SOL    HW145550   1.296   5.565  13.432
47906SOL    HW245551   1.276   5.678  13.333
47907SOL     OW45552   1.299   5.394   0.027
47907SOL    HW145553   1.213   5.437   0.031
47907SOL    HW245554   1.291   5.318   0.085
47908SOL     OW45555   4.232   5.826   1.144
47908SOL    HW145556   4.288   5.833   1.067
47908SOL    HW245557   4.147   5.859   1.115
47909SOL     OW45558   4.186  10.854  14.324
47909SOL    HW145559   4.182  10.870  14.229
47909SOL    HW245560   4.098  10.877  14.355
47910SOL     OW45561   6.676   2.081  14.577
47910SOL    HW145562   6.727   2.002  14.557
47910SOL    HW245563   6.599   2.050  14.625
47911SOL     OW45564   5.250   6.391  14.212
47911SOL    HW145565   5.323   6.380  14.152
47911SOL    HW245566   5.235   6.304  14.248
47912SOL     OW45567   4.880   8.361   1.360
47912SOL    HW145568   4.950   8.413   1.321
47912SOL    HW245569   4.921   8.277   1.381
47913SOL     OW45570  13.336   7.416  14.083
47913SOL    HW145571  13.254   7.460  14.059
47913SOL    HW245572  13.372   7.386  14.000
47914SOL     OW45573   3.286   8.571   4.914
47914SOL    HW145574   3.281   8.483   4.951
47914SOL    HW245575   3.216   8.574   4.849
47915SOL     OW45576  12.577  13.963  13.979
47915SOL    HW145577  12.580  14.054  13.952
47915SOL    HW245578  12.644  13.920  13.925
47916SOL     OW45579  14.712   3.157   9.121
47916SOL    HW145580  14.662   3.095   9.173
47916SOL    HW245581  14.798   3.161   9.163
47917SOL     OW45582   6.129   8.892   5.707
47917SOL    HW145583   6.206   8.927   5.751
47917SOL    HW245584   6.162   8.825   5.648
47918SOL     OW45585  11.299  10.187   5.220
47918SOL    HW145586  11.256  10.244   5.157
47918SOL    HW245587  11.230  10.166   5.284
47919SOL     OW45588   7.016   8.706   3.630
47919SOL    HW145589   7.017   8.759   3.710
47919SOL    HW245590   7.107   8.678   3.620
47920SOL     OW45591  11.397   6.549   1.656
47920SOL    HW145592  11.354   6.505   1.729
47920SOL    HW245593  11.386   6.490   1.582
47921SOL     OW45594  10.498   6.516   1.519
47921SOL    HW145595  10.572   6.540   1.462
47921SOL    HW245596  10.478   6.596   1.567
47922SOL     OW45597   3.908   7.047  12.608
47922SOL    HW145598   3.975   7.105  12.571
47922SOL    HW245599   3.831   7.103  12.617
47923SOL     OW45600  14.039  11.133   5.935
47923SOL    HW145601  14.062  11.108   5.845
47923SOL    HW245602  13.952  11.095   5.949
47924SOL     OW45603   2.391   3.386  10.459
47924SOL    HW145604   2.325   3.423  10.401
47924SOL    HW245605   2.346   3.375  10.543
47925SOL     OW45606   5.240   5.461  14.291
47925SOL    HW145607   5.297   5.386  14.309
47925SOL    HW245608   5.183   5.431  14.220
47926SOL     OW45609   8.404  12.928   2.355
47926SOL    HW145610   8.339  12.998   2.364
47926SOL    HW245611   8.380  12.883   2.274
47927SOL     OW45612   1.010  14.564  14.265
47927SOL    HW145613   0.917  14.582  14.282
47927SOL    HW245614   1.009  14.506  14.189
47928SOL     OW45615   1.877   7.105   4.948
47928SOL    HW145616   1.835   7.055   5.018
47928SOL    HW245617   1.930   7.041   4.900
47929SOL     OW45618   8.579   0.338   1.939
47929SOL    HW145619   8.511   0.308   1.878
47929SOL    HW245620   8.548   0.424   1.968
47930SOL     OW45621  13.751  11.913   4.248
47930SOL    HW145622  13.716  11.860   4.176
47930SOL    HW245623  13.707  11.997   4.239
47931SOL     OW45624  11.413  12.905   9.492
47931SOL    HW145625  11.382  12.821   9.459
47931SOL    HW245626  11.342  12.966   9.473
47932SOL     OW45627   0.385  11.087  10.385
47932SOL    HW145628   0.325  11.157  10.409
47932SOL    HW245629   0.463  11.103  10.437
47933SOL     OW45630   3.887   7.405  12.197
47933SOL    HW145631   3.863   7.467  12.128
47933SOL    HW245632   3.976   7.429  12.221
47934SOL     OW45633   4.601   8.113   1.122
47934SOL    HW145634   4.643   8.084   1.203
47934SOL    HW245635   4.585   8.207   1.135
47935SOL     OW45636   7.942  11.729   8.589
47935SOL    HW145637   7.998  11.784   8.643
47935SOL    HW245638   8.002  11.682   8.531
47936SOL     OW45639   3.273   3.060  10.894
47936SOL    HW145640   3.219   3.000  10.946
47936SOL    HW245641   3.210   3.120  10.853
47937SOL     OW45642   7.912  12.155   4.490
47937SOL    HW145643   7.925  12.248   4.508
47937SOL    HW245644   7.882  12.118   4.573
47938SOL     OW45645   1.952   5.921   3.871
47938SOL    HW145646   1.997   5.839   3.890
47938SOL    HW245647   1.932   5.916   3.777
47939SOL     OW45648   8.181   0.019   5.326
47939SOL    HW145649   8.155   0.083   5.392
47939SOL    HW245650   8.103   0.007   5.271
47940SOL     OW45651   7.855   9.933   4.998
47940SOL    HW145652   7.830   9.978   5.079
47940SOL    HW245653   7.805   9.851   5.001
47941SOL     OW45654  12.718  10.462  12.276
47941SOL    HW145655  12.731  10.426  12.364
47941SOL    HW245656  12.628  10.441  12.254
47942SOL     OW45657   9.534   6.561  10.961
47942SOL    HW145658   9.522   6.650  10.994
47942SOL    HW245659   9.615   6.531  11.002
47943SOL     OW45660   2.950   1.151   7.279
47943SOL    HW145661   2.920   1.060   7.285
47943SOL    HW245662   3.032   1.153   7.328
47944SOL     OW45663  11.061   5.590  14.530
47944SOL    HW145664  11.149   5.553  14.536
47944SOL    HW245665  11.062   5.640  14.448
47945SOL     OW45666   3.305   8.260  13.883
47945SOL    HW145667   3.225   8.267  13.831
47945SOL    HW245668   3.316   8.166  13.896
47946SOL     OW45669   1.926  11.126  10.543
47946SOL    HW145670   1.880  11.187  10.600
47946SOL    HW245671   1.980  11.182  10.486
47947SOL     OW45672   0.036  10.260   1.480
47947SOL    HW145673   0.057  10.349   1.450
47947SOL    HW245674  14.824  10.263   1.498
47948SOL     OW45675  13.027   0.304   2.350
47948SOL    HW145676  13.038   0.223   2.301
47948SOL    HW245677  12.933   0.321   2.348
47949SOL     OW45678   9.370   1.016   4.056
47949SOL    HW145679   9.419   0.996   4.135
47949SOL    HW245680   9.435   1.050   3.994
47950SOL     OW45681   3.912   6.528  11.629
47950SOL    HW145682   3.886   6.569  11.711
47950SOL    HW245683   3.831   6.499  11.588
47951SOL     OW45684   1.053  10.967   8.555
47951SOL    HW145685   1.065  10.876   8.530
47951SOL    HW245686   0.959  10.983   8.547
47952SOL     OW45687   9.562   4.079   2.863
47952SOL    HW145688   9.639   4.028   2.887
47952SOL    HW245689   9.529   4.113   2.946
47953SOL     OW45690  11.874   9.956  11.110
47953SOL    HW145691  11.930  10.033  11.101
47953SOL    HW245692  11.926   9.894  11.162
47954SOL     OW45693   1.576   5.005   6.041
47954SOL    HW145694   1.595   4.920   6.001
47954SOL    HW245695   1.660   5.033   6.077
47955SOL     OW45696   9.147   7.266  14.856
47955SOL    HW145697   9.054   7.285  14.853
47955SOL    HW245698   9.151   7.173  14.882
47956SOL     OW45699   2.260   8.956   7.647
47956SOL    HW145700   2.254   8.860   7.652
47956SOL    HW245701   2.331   8.979   7.707
47957SOL     OW45702   9.547   9.138   4.282
47957SOL    HW145703   9.501   9.160   4.363
47957SOL    HW245704   9.478   9.121   4.218
47958SOL     OW45705   3.562   7.016   4.999
47958SOL    HW145706   3.589   6.944   5.056
47958SOL    HW245707   3.642   7.067   4.985
47959SOL     OW45708   4.684  11.574  13.736
47959SOL    HW145709   4.629  11.500  13.763
47959SOL    HW245710   4.630  11.623  13.675
47960SOL     OW45711   0.770   9.091   2.796
47960SOL    HW145712   0.850   9.061   2.753
47960SOL    HW245713   0.708   9.103   2.725
47961SOL     OW45714   3.901   8.751   3.779
47961SOL    HW145715   3.881   8.771   3.870
47961SOL    HW245716   3.921   8.657   3.779
47962SOL     OW45717   1.695  13.465  10.214
47962SOL    HW145718   1.720  13.413  10.138
47962SOL    HW245719   1.638  13.533  10.179
47963SOL     OW45720  10.895   4.797   3.832
47963SOL    HW145721  10.861   4.722   3.882
47963SOL    HW245722  10.882   4.772   3.740
47964SOL     OW45723   2.053   7.154   7.267
47964SOL    HW145724   2.091   7.204   7.194
47964SOL    HW245725   2.090   7.195   7.346
47965SOL     OW45726   0.699  14.284   8.071
47965SOL    HW145727   0.741  14.205   8.037
47965SOL    HW245728   0.745  14.356   8.029
47966SOL     OW45729  13.651  12.767  11.929
47966SOL    HW145730  13.622  12.718  11.851
47966SOL    HW245731  13.741  12.793  11.909
47967SOL     OW45732   7.560   9.134  11.553
47967SOL    HW145733   7.506   9.055  11.557
47967SOL    HW245734   7.634   9.110  11.498
47968SOL     OW45735   1.788   7.715  14.242
47968SOL    HW145736   1.791   7.679  14.330
47968SOL    HW245737   1.867   7.682  14.200
47969SOL     OW45738   3.458   2.377   1.859
47969SOL    HW145739   3.458   2.418   1.772
47969SOL    HW245740   3.494   2.290   1.845
47970SOL     OW45741   5.897  12.038   9.742
47970SOL    HW145742   5.855  12.012   9.824
47970SOL    HW245743   5.907  12.133   9.749
47971SOL     OW45744   3.007  13.148  10.004
47971SOL    HW145745   3.044  13.111  10.084
47971SOL    HW245746   3.072  13.211   9.974
47972SOL     OW45747   4.322   7.376  13.042
47972SOL    HW145748   4.400   7.431  13.034
47972SOL    HW245749   4.343   7.297  12.991
47973SOL     OW45750  12.773  11.725   2.822
47973SOL    HW145751  12.724  11.755   2.898
47973SOL    HW245752  12.841  11.791   2.808
47974SOL     OW45753  11.178   5.506  10.009
47974SOL    HW145754  11.234   5.465   9.943
47974SOL    HW245755  11.146   5.433  10.062
47975SOL     OW45756   2.587   3.507  11.318
47975SOL    HW145757   2.645   3.495  11.393
47975SOL    HW245758   2.596   3.600  11.296
47976SOL     OW45759   6.310   2.163  10.598
47976SOL    HW145760   6.251   2.091  10.576
47976SOL    HW245761   6.353   2.185  10.515
47977SOL     OW45762   8.019  12.079  12.154
47977SOL    HW145763   8.004  12.012  12.220
47977SOL    HW245764   7.932  12.104  12.125
47978SOL     OW45765  12.128  11.066   7.036
47978SOL    HW145766  12.086  11.105   7.113
47978SOL    HW245767  12.068  11.087   6.964
47979SOL     OW45768  14.744   2.291   7.279
47979SOL    HW145769  14.822   2.264   7.328
47979SOL    HW245770  14.705   2.360   7.333
47980SOL     OW45771   5.193  10.141  10.017
47980SOL    HW145772   5.285  10.129  10.042
47980SOL    HW245773   5.157  10.197  10.085
47981SOL     OW45774   8.990   8.852   1.997
47981SOL    HW145775   9.051   8.815   1.934
47981SOL    HW245776   9.043   8.915   2.047
47982SOL     OW45777   1.438   6.941  10.594
47982SOL    HW145778   1.457   6.951  10.687
47982SOL    HW245779   1.450   7.028  10.557
47983SOL     OW45780   4.005   5.780   0.932
47983SOL    HW145781   3.922   5.732   0.924
47983SOL    HW245782   4.068   5.726   0.884
47984SOL     OW45783   2.504   2.595  10.408
47984SOL    HW145784   2.450   2.602  10.330
47984SOL    HW245785   2.526   2.502  10.415
47985SOL     OW45786   6.009   2.439  13.535
47985SOL    HW145787   5.985   2.347  13.542
47985SOL    HW245788   6.038   2.463  13.623
47986SOL     OW45789   3.180   0.647   7.224
47986SOL    HW145790   3.168   0.742   7.226
47986SOL    HW245791   3.251   0.630   7.285
47987SOL     OW45792  11.694  10.104   1.051
47987SOL    HW145793  11.702  10.097   0.956
47987SOL    HW245794  11.785  10.106   1.082
47988SOL     OW45795   4.197   2.962  11.418
47988SOL    HW145796   4.274   2.907  11.405
47988SOL    HW245797   4.190   3.012  11.337
47989SOL     OW45798  13.369  11.369   1.821
47989SOL    HW145799  13.406  11.455   1.842
47989SOL    HW245800  13.296  11.388   1.762
47990SOL     OW45801   4.744  13.268  11.314
47990SOL    HW145802   4.675  13.218  11.271
47990SOL    HW245803   4.735  13.356  11.278
47991SOL     OW45804  11.031   9.107   5.082
47991SOL    HW145805  10.960   9.108   5.146
47991SOL    HW245806  11.031   9.018   5.048
47992SOL     OW45807   8.335   3.995   0.400
47992SOL    HW145808   8.316   4.089   0.398
47992SOL    HW245809   8.411   3.987   0.457
47993SOL     OW45810  12.553   5.482   6.862
47993SOL    HW145811  12.597   5.565   6.882
47993SOL    HW245812  12.601   5.447   6.787
47994SOL     OW45813   0.533   4.969   7.637
47994SOL    HW145814   0.520   5.056   7.676
47994SOL    HW245815   0.516   4.908   7.709
47995SOL     OW45816  11.127  11.609  12.906
47995SOL    HW145817  11.216  11.626  12.938
47995SOL    HW245818  11.111  11.678  12.842
47996SOL     OW45819   1.192  14.073  14.710
47996SOL    HW145820   1.207  14.167  14.699
47996SOL    HW245821   1.223  14.053  14.798
47997SOL     OW45822   5.263   7.142   5.500
47997SOL    HW145823   5.198   7.162   5.434
47997SOL    HW245824   5.336   7.201   5.481
47998SOL     OW45825   3.391  13.147  10.431
47998SOL    HW145826   3.390  13.090  10.355
47998SOL    HW245827   3.357  13.093  10.503
47999SOL     OW45828   9.180  12.128   6.283
47999SOL    HW145829   9.199  12.042   6.318
47999SOL    HW245830   9.130  12.172   6.352
48000SOL     OW45831   2.063   7.666   5.840
48000SOL    HW145832   2.131   7.703   5.784
48000SOL    HW245833   2.108   7.646   5.922
48001SOL     OW45834   0.067  12.691   1.322
48001SOL    HW145835  14.873  12.634   1.330
48001SOL    HW245836   0.040  12.760   1.261
48002SOL     OW45837  10.397   5.902   8.672
48002SOL    HW145838  10.329   5.954   8.630
48002SOL    HW245839  10.453   5.873   8.599
48003SOL     OW45840   0.743  12.907   5.448
48003SOL    HW145841   0.830  12.946   5.462
48003SOL    HW245842   0.698  12.917   5.532
48004SOL     OW45843  14.344   2.170  11.279
48004SOL    HW145844  14.425   2.139  11.320
48004SOL    HW245845  14.367   2.184  11.187
48005SOL     OW45846  10.949   4.385  12.260
48005SOL    HW145847  10.871   4.439  12.267
48005SOL    HW245848  10.945   4.328  12.337
48006SOL     OW45849   0.147   5.552  13.227
48006SOL    HW145850   0.196   5.634  13.230
48006SOL    HW245851   0.064   5.573  13.269
48007SOL     OW45852   6.046  13.476  13.273
48007SOL    HW145853   6.070  13.569  13.267
48007SOL    HW245854   6.104  13.440  13.339
48008SOL     OW45855  11.835   8.913   8.976
48008SOL    HW145856  11.925   8.945   8.968
48008SOL    HW245857  11.785   8.989   9.006
48009SOL     OW45858  10.322   6.004   2.073
48009SOL    HW145859  10.337   6.056   2.152
48009SOL    HW245860  10.231   6.021   2.049
48010SOL     OW45861   1.200  11.530   4.198
48010SOL    HW145862   1.175  11.617   4.167
48010SOL    HW245863   1.294  11.537   4.215
48011SOL     OW45864   1.416  13.191   8.800
48011SOL    HW145865   1.434  13.155   8.713
48011SOL    HW245866   1.330  13.157   8.823
48012SOL     OW45867   2.269   1.585  11.940
48012SOL    HW145868   2.256   1.675  11.911
48012SOL    HW245869   2.229   1.581  12.027
48013SOL     OW45870  13.977  11.528   1.935
48013SOL    HW145871  13.976  11.619   1.964
48013SOL    HW245872  14.058  11.492   1.972
48014SOL     OW45873   2.627  14.108  10.681
48014SOL    HW145874   2.665  14.196  10.687
48014SOL    HW245875   2.581  14.107  10.598
48015SOL     OW45876  13.840   1.243   9.772
48015SOL    HW145877  13.776   1.290   9.718
48015SOL    HW245878  13.922   1.250   9.723
48016SOL     OW45879   6.520   3.145  11.583
48016SOL    HW145880   6.489   3.207  11.648
48016SOL    HW245881   6.442   3.125  11.530
48017SOL     OW45882  12.182   1.052   4.554
48017SOL    HW145883  12.264   1.102   4.551
48017SOL    HW245884  12.179   1.016   4.643
48018SOL     OW45885  11.364  13.233  12.953
48018SOL    HW145886  11.411  13.316  12.958
48018SOL    HW245887  11.297  13.240  13.021
48019SOL     OW45888  10.865   3.612   0.288
48019SOL    HW145889  10.781   3.645   0.318
48019SOL    HW245890  10.929   3.659   0.342
48020SOL     OW45891   4.885  11.579   9.467
48020SOL    HW145892   4.792  11.555   9.468
48020SOL    HW245893   4.931  11.496   9.474
48021SOL     OW45894   8.907  13.378  11.042
48021SOL    HW145895   8.971  13.414  10.981
48021SOL    HW245896   8.906  13.284  11.025
48022SOL     OW45897  13.911   8.390  13.180
48022SOL    HW145898  13.870   8.443  13.248
48022SOL    HW245899  13.845   8.382  13.112
48023SOL     OW45900   6.159   9.867  13.442
48023SOL    HW145901   6.143   9.961  13.451
48023SOL    HW245902   6.166   9.835  13.532
48024SOL     OW45903   0.263  13.727   2.638
48024SOL    HW145904   0.210  13.805   2.650
48024SOL    HW245905   0.353  13.755   2.658
48025SOL     OW45906  12.023  12.481   2.051
48025SOL    HW145907  12.045  12.414   2.116
48025SOL    HW245908  11.932  12.503   2.069
48026SOL     OW45909  13.800   9.686  12.094
48026SOL    HW145910  13.811   9.732  12.011
48026SOL    HW245911  13.890   9.677  12.127
48027SOL     OW45912   8.144  12.620   0.044
48027SOL    HW145913   8.141  12.713   0.065
48027SOL    HW245914   8.062  12.603  14.880
48028SOL     OW45915   0.047  12.891  13.423
48028SOL    HW145916   0.138  12.860  13.420
48028SOL    HW245917   0.005  12.847  13.349
48029SOL     OW45918   0.439   3.001   9.699
48029SOL    HW145919   0.511   2.990   9.760
48029SOL    HW245920   0.371   3.046   9.749
48030SOL     OW45921   8.281  10.632   2.740
48030SOL    HW145922   8.279  10.601   2.830
48030SOL    HW245923   8.240  10.562   2.689
48031SOL     OW45924   5.015   6.717   2.955
48031SOL    HW145925   5.088   6.658   2.974
48031SOL    HW245926   4.947   6.661   2.917
48032SOL     OW45927   8.788  14.217   2.036
48032SOL    HW145928   8.879  14.230   2.063
48032SOL    HW245929   8.748  14.303   2.044
48033SOL     OW45930   3.639  11.276  14.207
48033SOL    HW145931   3.588  11.241  14.280
48033SOL    HW245932   3.727  11.288  14.243
48034SOL     OW45933   5.189  13.931   4.008
48034SOL    HW145934   5.281  13.914   4.026
48034SOL    HW245935   5.143  13.904   4.087
48035SOL     OW45936  13.389   1.468   8.402
48035SOL    HW145937  13.465   1.455   8.345
48035SOL    HW245938  13.389   1.391   8.459
48036SOL     OW45939  12.273   2.605  13.935
48036SOL    HW145940  12.352   2.648  13.967
48036SOL    HW245941  12.218   2.596  14.012
48037SOL     OW45942   2.953  12.823   3.182
48037SOL    HW145943   2.896  12.756   3.145
48037SOL    HW245944   3.034  12.778   3.202
48038SOL     OW45945   5.073  10.984   3.652
48038SOL    HW145946   5.082  10.921   3.723
48038SOL    HW245947   5.059  10.931   3.574
48039SOL     OW45948   1.577  11.444  14.165
48039SOL    HW145949   1.613  11.517  14.214
48039SOL    HW245950   1.511  11.405  14.224
48040SOL     OW45951   9.848   4.891  13.370
48040SOL    HW145952   9.844   4.835  13.292
48040SOL    HW245953   9.911   4.959  13.348
48041SOL     OW45954   9.429  12.787   5.795
48041SOL    HW145955   9.511  12.793   5.844
48041SOL    HW245956   9.439  12.707   5.743
48042SOL     OW45957  11.188   6.830  13.446
48042SOL    HW145958  11.211   6.806  13.356
48042SOL    HW245959  11.253   6.785  13.500
48043SOL     OW45960  11.111   0.518   0.088
48043SOL    HW145961  11.154   0.595   0.052
48043SOL    HW245962  11.172   0.483   0.152
48044SOL     OW45963   5.352  12.188  11.795
48044SOL    HW145964   5.264  12.222  11.810
48044SOL    HW245965   5.410  12.262  11.811
48045SOL     OW45966   6.156   3.758   8.666
48045SOL    HW145967   6.169   3.794   8.579
48045SOL    HW245968   6.061   3.757   8.678
48046SOL     OW45969  13.579   9.818  12.990
48046SOL    HW145970  13.502   9.773  13.023
48046SOL    HW245971  13.577   9.905  13.031
48047SOL     OW45972   4.448   3.956  11.215
48047SOL    HW145973   4.378   3.903  11.177
48047SOL    HW245974   4.483   3.902  11.286
48048SOL     OW45975   0.752   5.828   9.931
48048SOL    HW145976   0.725   5.892   9.997
48048SOL    HW245977   0.746   5.876   9.848
48049SOL     OW45978   1.655  10.993   1.644
48049SOL    HW145979   1.644  11.040   1.562
48049SOL    HW245980   1.710  11.050   1.697
48050SOL     OW45981   2.217  12.323   1.000
48050SOL    HW145982   2.261  12.358   0.922
48050SOL    HW245983   2.124  12.322   0.976
48051SOL     OW45984   1.999   7.979  10.404
48051SOL    HW145985   2.017   7.896  10.361
48051SOL    HW245986   1.931   8.020  10.350
48052SOL     OW45987  11.170   2.349   3.999
48052SOL    HW145988  11.135   2.398   4.073
48052SOL    HW245989  11.094   2.303   3.963
48053SOL     OW45990   2.180  11.215  14.153
48053SOL    HW145991   2.186  11.213  14.058
48053SOL    HW245992   2.244  11.151  14.183
48054SOL     OW45993  12.039  14.519   7.879
48054SOL    HW145994  12.003  14.607   7.891
48054SOL    HW245995  11.968  14.461   7.906
48055SOL     OW45996   5.090  11.438   1.206
48055SOL    HW145997   5.011  11.387   1.193
48055SOL    HW245998   5.132  11.399   1.282
48056SOL     OW45999   8.850   7.645   1.168
48056SOL    HW146000   8.912   7.718   1.178
48056SOL    HW246001   8.788   7.656   1.239
48057SOL     OW46002   9.529  11.221   6.836
48057SOL    HW146003   9.513  11.313   6.854
48057SOL    HW246004   9.617  11.205   6.870
48058SOL     OW46005  14.706  10.576  12.513
48058SOL    HW146006  14.737  10.639  12.448
48058SOL    HW246007  14.777  10.513  12.521
48059SOL     OW46008   8.827   2.876   7.597
48059SOL    HW146009   8.904   2.839   7.556
48059SOL    HW246010   8.776   2.913   7.525
48060SOL     OW46011   3.759   1.639  12.104
48060SOL    HW146012   3.804   1.567  12.059
48060SOL    HW246013   3.705   1.679  12.036
48061SOL     OW46014   0.507   1.818   2.443
48061SOL    HW146015   0.433   1.878   2.431
48061SOL    HW246016   0.579   1.875   2.469
48062SOL     OW46017   2.235   7.658   0.288
48062SOL    HW146018   2.327   7.683   0.288
48062SOL    HW246019   2.222   7.613   0.204
48063SOL     OW46020   6.648   5.739   2.299
48063SOL    HW146021   6.625   5.693   2.218
48063SOL    HW246022   6.637   5.832   2.278
48064SOL     OW46023   2.106   9.584   7.120
48064SOL    HW146024   2.171   9.534   7.170
48064SOL    HW246025   2.127   9.676   7.140
48065SOL     OW46026  14.727   7.969  10.542
48065SOL    HW146027  14.663   7.937  10.605
48065SOL    HW246028  14.726   7.905  10.471
48066SOL     OW46029   8.891  14.509  14.160
48066SOL    HW146030   8.857  14.580  14.106
48066SOL    HW246031   8.986  14.525  14.164
48067SOL     OW46032  11.094   5.183   6.239
48067SOL    HW146033  11.035   5.146   6.174
48067SOL    HW246034  11.119   5.268   6.203
48068SOL     OW46035  13.961   5.049   8.619
48068SOL    HW146036  13.992   4.999   8.544
48068SOL    HW246037  13.886   5.099   8.585
48069SOL     OW46038   7.981  10.625   1.571
48069SOL    HW146039   7.940  10.558   1.627
48069SOL    HW246040   7.912  10.650   1.509
48070SOL     OW46041  10.036   0.064   2.494
48070SOL    HW146042   9.979  14.876   2.462
48070SOL    HW246043   9.982   0.113   2.556
48071SOL     OW46044  12.667  10.500  11.453
48071SOL    HW146045  12.691  10.592  11.471
48071SOL    HW246046  12.751  10.457  11.437
48072SOL     OW46047  10.864   6.848   8.511
48072SOL    HW146048  10.914   6.907   8.567
48072SOL    HW246049  10.911   6.850   8.427
48073SOL     OW46050  14.694  14.550  11.135
48073SOL    HW146051  14.712  14.459  11.160
48073SOL    HW246052  14.765  14.600  11.174
48074SOL     OW46053   0.182   8.443  14.832
48074SOL    HW146054   0.210   8.505   0.018
48074SOL    HW246055   0.253   8.379  14.828
48075SOL     OW46056   3.064  11.677   6.489
48075SOL    HW146057   3.133  11.688   6.555
48075SOL    HW246058   3.005  11.752   6.504
48076SOL     OW46059  14.471   5.534  11.321
48076SOL    HW146060  14.488   5.612  11.267
48076SOL    HW246061  14.492   5.461  11.263
48077SOL     OW46062   5.510   8.551  10.180
48077SOL    HW146063   5.548   8.621  10.234
48077SOL    HW246064   5.464   8.495  10.243
48078SOL     OW46065   9.046  14.706   0.329
48078SOL    HW146066   9.084  14.756   0.257
48078SOL    HW246067   9.097  14.625   0.332
48079SOL     OW46068   4.183   4.788   2.515
48079SOL    HW146069   4.154   4.704   2.550
48079SOL    HW246070   4.104   4.842   2.514
48080SOL     OW46071   5.296  13.288   3.592
48080SOL    HW146072   5.211  13.331   3.591
48080SOL    HW246073   5.321  13.287   3.684
48081SOL     OW46074   3.041  10.430  12.730
48081SOL    HW146075   3.127  10.457  12.762
48081SOL    HW246076   3.039  10.335  12.742
48082SOL     OW46077  13.110  10.596   5.680
48082SOL    HW146078  13.139  10.626   5.593
48082SOL    HW246079  13.075  10.674   5.722
48083SOL     OW46080   2.609   5.641  11.626
48083SOL    HW146081   2.644   5.670  11.542
48083SOL    HW246082   2.674   5.668  11.691
48084SOL     OW46083   0.151   3.775   2.865
48084SOL    HW146084   0.094   3.825   2.806
48084SOL    HW246085   0.222   3.836   2.887
48085SOL     OW46086  10.252  10.697   5.982
48085SOL    HW146087  10.331  10.691   5.929
48085SOL    HW246088  10.182  10.716   5.919
48086SOL     OW46089   2.669   1.512   8.621
48086SOL    HW146090   2.593   1.569   8.629
48086SOL    HW246091   2.743   1.567   8.647
48087SOL     OW46092   6.909  10.621   9.721
48087SOL    HW146093   6.947  10.707   9.742
48087SOL    HW246094   6.969  10.558   9.760
48088SOL     OW46095   0.217   6.940   3.877
48088SOL    HW146096   0.194   6.914   3.788
48088SOL    HW246097   0.308   6.969   3.871
48089SOL     OW46098   8.318   3.802   5.771
48089SOL    HW146099   8.352   3.881   5.813
48089SOL    HW246100   8.356   3.803   5.684
48090SOL     OW46101   3.014   7.769  13.564
48090SOL    HW146102   3.100   7.753  13.526
48090SOL    HW246103   2.985   7.684  13.595
48091SOL     OW46104  11.625   6.690  10.384
48091SOL    HW146105  11.660   6.664  10.299
48091SOL    HW246106  11.690   6.750  10.420
48092SOL     OW46107  11.171  11.998   0.346
48092SOL    HW146108  11.209  12.078   0.308
48092SOL    HW246109  11.174  12.012   0.440
48093SOL     OW46110   0.874   2.620   7.259
48093SOL    HW146111   0.872   2.647   7.167
48093SOL    HW246112   0.859   2.701   7.308
48094SOL     OW46113   0.417  11.557  10.918
48094SOL    HW146114   0.366  11.477  10.927
48094SOL    HW246115   0.505  11.533  10.948
48095SOL     OW46116   1.326   0.441   9.706
48095SOL    HW146117   1.252   0.499   9.689
48095SOL    HW246118   1.392   0.467   9.641
48096SOL     OW46119   6.634   4.469   3.628
48096SOL    HW146120   6.566   4.495   3.565
48096SOL    HW246121   6.650   4.548   3.680
48097SOL     OW46122  13.481   5.513   3.695
48097SOL    HW146123  13.559   5.545   3.651
48097SOL    HW246124  13.513   5.458   3.766
48098SOL     OW46125   9.417   7.739   4.905
48098SOL    HW146126   9.439   7.776   4.990
48098SOL    HW246127   9.326   7.710   4.914
48099SOL     OW46128   9.036   0.029  13.383
48099SOL    HW146129   8.993  14.872  13.460
48099SOL    HW246130   8.992  14.870  13.308
48100SOL     OW46131   0.720   9.604   9.286
48100SOL    HW146132   0.629   9.601   9.258
48100SOL    HW246133   0.770   9.580   9.207
48101SOL     OW46134   4.885   3.566  10.390
48101SOL    HW146135   4.961   3.544  10.336
48101SOL    HW246136   4.810   3.547  10.334
48102SOL     OW46137  11.391  11.709   8.460
48102SOL    HW146138  11.368  11.801   8.448
48102SOL    HW246139  11.478  11.711   8.501
48103SOL     OW46140   1.252   8.059   2.702
48103SOL    HW146141   1.314   8.021   2.640
48103SOL    HW246142   1.207   8.127   2.653
48104SOL     OW46143   6.078   1.065   3.316
48104SOL    HW146144   6.094   0.972   3.298
48104SOL    HW246145   6.137   1.111   3.256
48105SOL     OW46146   7.224  13.442  13.849
48105SOL    HW146147   7.296  13.390  13.813
48105SOL    HW246148   7.148  13.384  13.846
48106SOL     OW46149   8.077  12.562   5.164
48106SOL    HW146150   8.147  12.502   5.190
48106SOL    HW246151   8.015  12.506   5.116
48107SOL     OW46152   7.559  11.095   1.198
48107SOL    HW146153   7.491  11.146   1.154
48107SOL    HW246154   7.570  11.138   1.283
48108SOL     OW46155  11.340  10.732   8.984
48108SOL    HW146156  11.274  10.671   9.015
48108SOL    HW246157  11.291  10.811   8.960
48109SOL     OW46158   4.910   5.465   0.825
48109SOL    HW146159   4.847   5.506   0.884
48109SOL    HW246160   4.966   5.413   0.882
48110SOL     OW46161  14.187   2.065   8.082
48110SOL    HW146162  14.280   2.054   8.099
48110SOL    HW246163  14.148   1.980   8.104
48111SOL     OW46164   7.597   5.329   4.176
48111SOL    HW146165   7.578   5.422   4.163
48111SOL    HW246166   7.684   5.316   4.138
48112SOL     OW46167  12.945   8.591  13.169
48112SOL    HW146168  12.863   8.605  13.121
48112SOL    HW246169  12.919   8.545  13.248
48113SOL     OW46170  11.175  12.555  13.740
48113SOL    HW146171  11.170  12.462  13.719
48113SOL    HW246172  11.261  12.566  13.780
48114SOL     OW46173   1.609   6.510   2.581
48114SOL    HW146174   1.677   6.578   2.577
48114SOL    HW246175   1.532   6.556   2.615
48115SOL     OW46176   6.511  11.770   4.407
48115SOL    HW146177   6.420  11.785   4.431
48115SOL    HW246178   6.546  11.715   4.478
48116SOL     OW46179  13.724   2.490  14.838
48116SOL    HW146180  13.696   2.427   0.023
48116SOL    HW246181  13.645   2.543  14.821
48117SOL     OW46182  13.636   7.153  10.615
48117SOL    HW146183  13.670   7.213  10.550
48117SOL    HW246184  13.706   7.145  10.680
48118SOL     OW46185   2.306   6.039   3.063
48118SOL    HW146186   2.372   6.076   3.004
48118SOL    HW246187   2.316   5.944   3.052
48119SOL     OW46188  13.773   3.230   2.627
48119SOL    HW146189  13.702   3.216   2.689
48119SOL    HW246190  13.851   3.197   2.672
48120SOL     OW46191   8.248   5.740   2.457
48120SOL    HW146192   8.300   5.812   2.420
48120SOL    HW246193   8.160   5.754   2.423
48121SOL     OW46194   6.103  11.355   4.999
48121SOL    HW146195   6.093  11.402   4.916
48121SOL    HW246196   6.125  11.423   5.062
48122SOL     OW46197   3.683  14.660  11.510
48122SOL    HW146198   3.721  14.748  11.513
48122SOL    HW246199   3.723  14.614  11.584
48123SOL     OW46200   3.978  14.811  10.972
48123SOL    HW146201   3.924   0.008  10.975
48123SOL    HW246202   4.043  14.824  11.041
48124SOL     OW46203   5.672   3.440  13.253
48124SOL    HW146204   5.638   3.425  13.165
48124SOL    HW246205   5.744   3.502  13.241
48125SOL     OW46206   2.913   1.426   3.132
48125SOL    HW146207   2.948   1.348   3.177
48125SOL    HW246208   2.820   1.427   3.155
48126SOL     OW46209   6.144   1.981   1.246
48126SOL    HW146210   6.113   2.070   1.262
48126SOL    HW246211   6.106   1.929   1.317
48127SOL     OW46212   3.671  13.065  10.715
48127SOL    HW146213   3.602  13.017  10.761
48127SOL    HW246214   3.657  13.156  10.739
48128SOL     OW46215  14.583   2.514   6.019
48128SOL    HW146216  14.564   2.570   5.943
48128SOL    HW246217  14.501   2.467   6.035
48129SOL     OW46218   8.822   8.531  13.892
48129SOL    HW146219   8.896   8.523  13.832
48129SOL    HW246220   8.771   8.451  13.878
48130SOL     OW46221   1.679   4.112   8.550
48130SOL    HW146222   1.722   4.136   8.632
48130SOL    HW246223   1.743   4.057   8.505
48131SOL     OW46224  11.440   6.441   3.729
48131SOL    HW146225  11.424   6.370   3.667
48131SOL    HW246226  11.518   6.412   3.777
48132SOL     OW46227   0.513   6.117  11.864
48132SOL    HW146228   0.490   6.027  11.840
48132SOL    HW246229   0.535   6.112  11.957
48133SOL     OW46230   4.334   8.097   3.082
48133SOL    HW146231   4.382   8.142   3.151
48133SOL    HW246232   4.252   8.069   3.124
48134SOL     OW46233   1.100   3.597  14.763
48134SOL    HW146234   1.018   3.581  14.811
48134SOL    HW246235   1.163   3.622  14.831
48135SOL     OW46236   8.834   0.218  12.797
48135SOL    HW146237   8.807   0.213  12.889
48135SOL    HW246238   8.762   0.175  12.749
48136SOL     OW46239   6.508  10.724   4.273
48136SOL    HW146240   6.431  10.746   4.324
48136SOL    HW246241   6.478  10.722   4.182
48137SOL     OW46242  12.029   9.887  13.704
48137SOL    HW146243  11.994   9.970  13.738
48137SOL    HW246244  11.969   9.863  13.633
48138SOL     OW46245  10.829  14.648  12.530
48138SOL    HW146246  10.805  14.589  12.459
48138SOL    HW246247  10.746  14.682  12.563
48139SOL     OW46248   3.430  12.593  10.203
48139SOL    HW146249   3.524  12.594  10.221
48139SOL    HW246250   3.397  12.516  10.249
48140SOL     OW46251   6.167   9.840   9.148
48140SOL    HW146252   6.106   9.906   9.117
48140SOL    HW246253   6.216   9.883   9.219
48141SOL     OW46254   5.247   5.338  11.596
48141SOL    HW146255   5.305   5.291  11.537
48141SOL    HW246256   5.166   5.287  11.596
48142SOL     OW46257  12.129   0.563   2.634
48142SOL    HW146258  12.152   0.618   2.709
48142SOL    HW246259  12.170   0.478   2.654
48143SOL     OW46260   6.885  12.160   9.690
48143SOL    HW146261   6.913  12.081   9.643
48143SOL    HW246262   6.790  12.157   9.688
48144SOL     OW46263   7.727   1.849   2.869
48144SOL    HW146264   7.639   1.831   2.834
48144SOL    HW246265   7.727   1.808   2.956
48145SOL     OW46266   8.268  12.434   5.479
48145SOL    HW146267   8.251  12.527   5.489
48145SOL    HW246268   8.242  12.415   5.389
48146SOL     OW46269  12.681  11.754  12.643
48146SOL    HW146270  12.590  11.783  12.648
48146SOL    HW246271  12.730  11.831  12.615
48147SOL     OW46272   6.921  11.386   4.493
48147SOL    HW146273   6.927  11.473   4.534
48147SOL    HW246274   6.995  11.338   4.529
48148SOL     OW46275   8.251   9.348   6.329
48148SOL    HW146276   8.319   9.377   6.390
48148SOL    HW246277   8.265   9.401   6.250
48149SOL     OW46278   6.448  13.587   9.427
48149SOL    HW146279   6.524  13.614   9.478
48149SOL    HW246280   6.380  13.572   9.492
48150SOL     OW46281   0.510   5.966   5.379
48150SOL    HW146282   0.419   5.988   5.357
48150SOL    HW246283   0.530   5.890   5.324
48151SOL     OW46284  12.361   6.290  13.469
48151SOL    HW146285  12.362   6.194  13.477
48151SOL    HW246286  12.332   6.306  13.379
48152SOL     OW46287  11.129  12.262   2.770
48152SOL    HW146288  11.128  12.182   2.822
48152SOL    HW246289  11.152  12.232   2.682
48153SOL     OW46290  10.925   4.472  13.941
48153SOL    HW146291  10.888   4.560  13.949
48153SOL    HW246292  10.971   4.473  13.857
48154SOL     OW46293   7.170   6.526   0.728
48154SOL    HW146294   7.163   6.440   0.687
48154SOL    HW246295   7.239   6.516   0.794
48155SOL     OW46296   5.927   6.859   7.203
48155SOL    HW146297   5.948   6.909   7.282
48155SOL    HW246298   6.002   6.873   7.145
48156SOL     OW46299   0.547   8.321   7.234
48156SOL    HW146300   0.484   8.256   7.204
48156SOL    HW246301   0.620   8.314   7.172
48157SOL     OW46302   1.898  10.592  13.787
48157SOL    HW146303   1.845  10.633  13.855
48157SOL    HW246304   1.858  10.505  13.774
48158SOL     OW46305   4.287   4.083   9.062
48158SOL    HW146306   4.239   4.008   9.097
48158SOL    HW246307   4.302   4.140   9.138
48159SOL     OW46308   6.255   9.033   6.678
48159SOL    HW146309   6.233   9.097   6.611
48159SOL    HW246310   6.295   8.961   6.630
48160SOL     OW46311  11.736   1.490   0.991
48160SOL    HW146312  11.807   1.498   1.054
48160SOL    HW246313  11.775   1.516   0.907
48161SOL     OW46314  11.059   8.296   4.105
48161SOL    HW146315  11.154   8.293   4.104
48161SOL    HW246316  11.036   8.313   4.197
48162SOL     OW46317   1.076  13.776   5.889
48162SOL    HW146318   1.033  13.849   5.845
48162SOL    HW246319   1.015  13.703   5.880
48163SOL     OW46320   0.318  13.682  10.279
48163SOL    HW146321   0.325  13.602  10.226
48163SOL    HW246322   0.241  13.727  10.244
48164SOL     OW46323   5.586   7.953   8.221
48164SOL    HW146324   5.627   7.868   8.206
48164SOL    HW246325   5.503   7.933   8.264
48165SOL     OW46326   7.045   1.534  10.391
48165SOL    HW146327   6.982   1.489  10.334
48165SOL    HW246328   7.101   1.464  10.424
48166SOL     OW46329   1.767   6.218  12.789
48166SOL    HW146330   1.725   6.286  12.841
48166SOL    HW246331   1.763   6.140  12.844
48167SOL     OW46332   5.945   3.674   5.383
48167SOL    HW146333   5.983   3.716   5.306
48167SOL    HW246334   5.854   3.704   5.384
48168SOL     OW46335  12.511   2.279  14.282
48168SOL    HW146336  12.553   2.212  14.337
48168SOL    HW246337  12.507   2.240  14.195
48169SOL     OW46338  10.495  11.898   4.891
48169SOL    HW146339  10.586  11.874   4.910
48169SOL    HW246340  10.478  11.972   4.950
48170SOL     OW46341   6.298   3.289   5.572
48170SOL    HW146342   6.357   3.322   5.641
48170SOL    HW246343   6.281   3.366   5.517
48171SOL     OW46344  11.564  10.641   4.614
48171SOL    HW146345  11.532  10.731   4.614
48171SOL    HW246346  11.537  10.605   4.530
48172SOL     OW46347  11.721   2.819   8.453
48172SOL    HW146348  11.661   2.781   8.518
48172SOL    HW246349  11.795   2.759   8.452
48173SOL     OW46350  12.087   5.272   2.112
48173SOL    HW146351  12.017   5.207   2.123
48173SOL    HW246352  12.158   5.223   2.072
48174SOL     OW46353  13.255   7.963   8.753
48174SOL    HW146354  13.240   8.024   8.825
48174SOL    HW246355  13.170   7.959   8.708
48175SOL     OW46356   8.638  12.229  12.713
48175SOL    HW146357   8.589  12.177  12.649
48175SOL    HW246358   8.607  12.319  12.698
48176SOL     OW46359   3.282  11.809   2.903
48176SOL    HW146360   3.320  11.723   2.919
48176SOL    HW246361   3.264  11.810   2.810
48177SOL     OW46362   5.566  12.934   6.161
48177SOL    HW146363   5.657  12.940   6.131
48177SOL    HW246364   5.533  12.855   6.119
48178SOL     OW46365   9.584  12.722  13.109
48178SOL    HW146366   9.502  12.766  13.087
48178SOL    HW246367   9.612  12.679  13.028
48179SOL     OW46368   5.640   4.560  14.487
48179SOL    HW146369   5.725   4.534  14.452
48179SOL    HW246370   5.638   4.655  14.477
48180SOL     OW46371   3.301   5.987  11.650
48180SOL    HW146372   3.349   5.946  11.578
48180SOL    HW246373   3.252   5.915  11.690
48181SOL     OW46374   9.453   2.312   0.907
48181SOL    HW146375   9.497   2.227   0.912
48181SOL    HW246376   9.444   2.328   0.813
48182SOL     OW46377  13.381  10.009   5.182
48182SOL    HW146378  13.355  10.054   5.262
48182SOL    HW246379  13.314   9.942   5.168
48183SOL     OW46380  11.987  10.646  11.585
48183SOL    HW146381  11.959  10.570  11.637
48183SOL    HW246382  12.024  10.707  11.649
48184SOL     OW46383   7.441  12.764  12.818
48184SOL    HW146384   7.421  12.672  12.835
48184SOL    HW246385   7.536  12.767  12.812
48185SOL     OW46386   2.689  14.791   3.484
48185SOL    HW146387   2.704  14.716   3.541
48185SOL    HW246388   2.776  14.823   3.462
48186SOL     OW46389   3.470   9.762   0.883
48186SOL    HW146390   3.465   9.853   0.911
48186SOL    HW246391   3.563   9.747   0.865
48187SOL     OW46392  11.154  12.615   3.642
48187SOL    HW146393  11.246  12.641   3.639
48187SOL    HW246394  11.126  12.637   3.731
48188SOL     OW46395   6.052   9.879   6.528
48188SOL    HW146396   6.014   9.793   6.544
48188SOL    HW246397   6.018   9.904   6.442
48189SOL     OW46398  11.537   0.750   7.968
48189SOL    HW146399  11.627   0.781   7.981
48189SOL    HW246400  11.490   0.825   7.932
48190SOL     OW46401   9.181   3.646  10.228
48190SOL    HW146402   9.195   3.553  10.243
48190SOL    HW246403   9.225   3.664  10.145
48191SOL     OW46404  12.153   1.842  11.257
48191SOL    HW146405  12.213   1.818  11.186
48191SOL    HW246406  12.143   1.761  11.307
48192SOL     OW46407   7.802   1.042   1.522
48192SOL    HW146408   7.748   0.969   1.490
48192SOL    HW246409   7.832   1.086   1.442
48193SOL     OW46410   7.894   6.900   5.567
48193SOL    HW146411   7.826   6.966   5.575
48193SOL    HW246412   7.847   6.820   5.545
48194SOL     OW46413   9.350   8.375   1.722
48194SOL    HW146414   9.412   8.395   1.653
48194SOL    HW246415   9.271   8.347   1.676
48195SOL     OW46416   7.280   9.339   0.742
48195SOL    HW146417   7.362   9.386   0.748
48195SOL    HW246418   7.214   9.406   0.723
48196SOL     OW46419  11.039   1.106  12.856
48196SOL    HW146420  11.112   1.152  12.814
48196SOL    HW246421  10.962   1.158  12.833
48197SOL     OW46422   1.554   3.720   0.923
48197SOL    HW146423   1.594   3.709   1.009
48197SOL    HW246424   1.543   3.631   0.890
48198SOL     OW46425  12.775  12.611  13.229
48198SOL    HW146426  12.852  12.613  13.286
48198SOL    HW246427  12.784  12.529  13.180
48199SOL     OW46428   1.524   5.063   0.650
48199SOL    HW146429   1.539   5.150   0.686
48199SOL    HW246430   1.515   5.077   0.556
48200SOL     OW46431   4.605  10.688  13.460
48200SOL    HW146432   4.620  10.776  13.495
48200SOL    HW246433   4.597  10.633  13.537
48201SOL     OW46434   1.042   8.522   7.085
48201SOL    HW146435   1.111   8.587   7.076
48201SOL    HW246436   1.046   8.471   7.004
48202SOL     OW46437   7.714   3.264   5.734
48202SOL    HW146438   7.740   3.357   5.736
48202SOL    HW246439   7.625   3.264   5.700
48203SOL     OW46440   6.701   8.523  12.209
48203SOL    HW146441   6.673   8.438  12.243
48203SOL    HW246442   6.626   8.555  12.158
48204SOL     OW46443   6.953   8.089   8.677
48204SOL    HW146444   6.906   8.013   8.643
48204SOL    HW246445   7.043   8.058   8.691
48205SOL     OW46446   9.803  13.555   9.124
48205SOL    HW146447   9.847  13.629   9.082
48205SOL    HW246448   9.784  13.586   9.213
48206SOL     OW46449   7.599   7.423   0.748
48206SOL    HW146450   7.635   7.511   0.734
48206SOL    HW246451   7.642   7.369   0.681
48207SOL     OW46452   7.512   8.700  11.966
48207SOL    HW146453   7.445   8.635  11.986
48207SOL    HW246454   7.563   8.708  12.047
48208SOL     OW46455  14.235  12.912   6.376
48208SOL    HW146456  14.177  12.843   6.344
48208SOL    HW246457  14.232  12.978   6.307
48209SOL     OW46458   0.231  12.074  13.099
48209SOL    HW146459   0.158  12.018  13.125
48209SOL    HW246460   0.231  12.070  13.003
48210SOL     OW46461  14.180   2.792  11.587
48210SOL    HW146462  14.272   2.805  11.609
48210SOL    HW246463  14.133   2.809  11.668
48211SOL     OW46464   0.415   4.851   2.219
48211SOL    HW146465   0.496   4.901   2.216
48211SOL    HW246466   0.408   4.813   2.131
48212SOL     OW46467   9.888   0.879  12.908
48212SOL    HW146468   9.963   0.916  12.954
48212SOL    HW246469   9.851   0.953  12.860
48213SOL     OW46470  11.164   1.587  13.758
48213SOL    HW146471  11.143   1.494  13.751
48213SOL    HW246472  11.131   1.625  13.677
48214SOL     OW46473   4.712   0.856   1.457
48214SOL    HW146474   4.792   0.826   1.501
48214SOL    HW246475   4.647   0.862   1.527
48215SOL     OW46476   4.177   7.438  13.985
48215SOL    HW146477   4.215   7.438  13.897
48215SOL    HW246478   4.093   7.484  13.975
48216SOL     OW46479  12.992   6.599   7.622
48216SOL    HW146480  12.926   6.583   7.555
48216SOL    HW246481  13.071   6.622   7.573
48217SOL     OW46482   1.226   1.132   6.456
48217SOL    HW146483   1.205   1.167   6.542
48217SOL    HW246484   1.266   1.205   6.409
48218SOL     OW46485  11.681   5.802   0.543
48218SOL    HW146486  11.763   5.844   0.518
48218SOL    HW246487  11.642   5.773   0.460
48219SOL     OW46488   9.938   5.933   8.467
48219SOL    HW146489   9.854   5.975   8.484
48219SOL    HW246490  10.003   5.990   8.509
48220SOL     OW46491   9.752   8.684   4.555
48220SOL    HW146492   9.834   8.637   4.571
48220SOL    HW246493   9.720   8.706   4.642
48221SOL     OW46494  14.757   5.693   0.969
48221SOL    HW146495  14.727   5.701   0.878
48221SOL    HW246496  14.724   5.772   1.012
48222SOL     OW46497  10.151   3.084   1.286
48222SOL    HW146498  10.229   3.070   1.231
48222SOL    HW246499  10.131   2.997   1.321
48223SOL     OW46500   9.162   9.372   4.327
48223SOL    HW146501   9.200   9.320   4.398
48223SOL    HW246502   9.137   9.308   4.261
48224SOL     OW46503   4.842   2.694  11.806
48224SOL    HW146504   4.867   2.601  11.804
48224SOL    HW246505   4.871   2.725  11.892
48225SOL     OW46506  10.970   0.702   4.847
48225SOL    HW146507  10.949   0.650   4.924
48225SOL    HW246508  11.065   0.697   4.840
48226SOL     OW46509   6.658  12.678   6.809
48226SOL    HW146510   6.738  12.705   6.854
48226SOL    HW246511   6.587  12.705   6.866
48227SOL     OW46512   2.322   1.688  10.850
48227SOL    HW146513   2.387   1.675  10.781
48227SOL    HW246514   2.281   1.602  10.861
48228SOL     OW46515   9.180  13.175  10.681
48228SOL    HW146516   9.176  13.157  10.775
48228SOL    HW246517   9.266  13.141  10.654
48229SOL     OW46518  14.229   3.265   2.844
48229SOL    HW146519  14.301   3.290   2.903
48229SOL    HW246520  14.225   3.336   2.780
48230SOL     OW46521   7.614  11.063   5.592
48230SOL    HW146522   7.685  11.004   5.569
48230SOL    HW246523   7.579  11.028   5.674
48231SOL     OW46524   7.717   9.608   3.610
48231SOL    HW146525   7.675   9.690   3.585
48231SOL    HW246526   7.646   9.544   3.611
48232SOL     OW46527  12.084   0.621   1.349
48232SOL    HW146528  12.171   0.604   1.386
48232SOL    HW246529  12.079   0.716   1.342
48233SOL     OW46530  14.377   0.512   3.981
48233SOL    HW146531  14.363   0.482   3.892
48233SOL    HW246532  14.308   0.578   3.995
48234SOL     OW46533  11.925   6.934  14.337
48234SOL    HW146534  11.988   6.954  14.407
48234SOL    HW246535  11.913   6.839  14.343
48235SOL     OW46536   4.795   8.777  11.527
48235SOL    HW146537   4.745   8.735  11.597
48235SOL    HW246538   4.737   8.777  11.451
48236SOL     OW46539   7.125   5.726  10.793
48236SOL    HW146540   7.096   5.798  10.736
48236SOL    HW246541   7.065   5.655  10.774
48237SOL     OW46542  13.859   8.422   7.953
48237SOL    HW146543  13.805   8.468   7.888
48237SOL    HW246544  13.922   8.371   7.901
48238SOL     OW46545   5.750   6.380  14.116
48238SOL    HW146546   5.791   6.382  14.029
48238SOL    HW246547   5.773   6.295  14.152
48239SOL     OW46548   3.701  10.733  14.526
48239SOL    HW146549   3.789  10.729  14.563
48239SOL    HW246550   3.680  10.826  14.524
48240SOL     OW46551  14.850  12.516   1.082
48240SOL    HW146552  14.870  12.473   1.166
48240SOL    HW246553  14.807  12.448   1.030
48241SOL     OW46554   2.922   1.228   3.555
48241SOL    HW146555   2.989   1.194   3.614
48241SOL    HW246556   2.846   1.243   3.611
48242SOL     OW46557   0.056   7.303   5.986
48242SOL    HW146558   0.102   7.220   5.997
48242SOL    HW246559   0.082   7.334   5.899
48243SOL     OW46560  10.847  11.406   6.331
48243SOL    HW146561  10.871  11.337   6.393
48243SOL    HW246562  10.914  11.401   6.263
48244SOL     OW46563   5.987  12.387   3.581
48244SOL    HW146564   6.062  12.405   3.639
48244SOL    HW246565   5.911  12.392   3.639
48245SOL     OW46566  14.409   3.343   7.757
48245SOL    HW146567  14.399   3.348   7.852
48245SOL    HW246568  14.434   3.252   7.740
48246SOL     OW46569  10.079   3.145   8.520
48246SOL    HW146570   9.986   3.145   8.498
48246SOL    HW246571  10.085   3.096   8.602
48247SOL     OW46572   2.643  14.211   8.827
48247SOL    HW146573   2.681  14.212   8.739
48247SOL    HW246574   2.668  14.126   8.863
48248SOL     OW46575  10.176   5.996   7.526
48248SOL    HW146576  10.151   6.081   7.561
48248SOL    HW246577  10.096   5.960   7.489
48249SOL     OW46578   1.561   1.758   8.085
48249SOL    HW146579   1.481   1.808   8.098
48249SOL    HW246580   1.532   1.667   8.082
48250SOL     OW46581   5.332   2.102   6.865
48250SOL    HW146582   5.366   2.135   6.948
48250SOL    HW246583   5.244   2.139   6.859
48251SOL     OW46584   9.484   4.014  10.287
48251SOL    HW146585   9.517   4.071  10.356
48251SOL    HW246586   9.487   3.926  10.326
48252SOL     OW46587   1.778  11.217   6.520
48252SOL    HW146588   1.850  11.267   6.482
48252SOL    HW246589   1.777  11.243   6.612
48253SOL     OW46590   2.201   1.153   7.249
48253SOL    HW146591   2.155   1.218   7.302
48253SOL    HW246592   2.291   1.186   7.244
48254SOL     OW46593  13.936   4.009   4.287
48254SOL    HW146594  13.987   3.930   4.269
48254SOL    HW246595  13.982   4.052   4.359
48255SOL     OW46596  12.554   9.032   2.383
48255SOL    HW146597  12.624   9.041   2.319
48255SOL    HW246598  12.598   9.009   2.464
48256SOL     OW46599  12.598  14.506   1.599
48256SOL    HW146600  12.684  14.547   1.604
48256SOL    HW246601  12.549  14.560   1.536
48257SOL     OW46602   1.258   9.972  14.591
48257SOL    HW146603   1.192   9.990  14.658
48257SOL    HW246604   1.295   9.887  14.616
48258SOL     OW46605  12.538   5.562   1.475
48258SOL    HW146606  12.494   5.590   1.556
48258SOL    HW246607  12.485   5.488   1.444
48259SOL     OW46608   3.515   2.658   7.873
48259SOL    HW146609   3.607   2.663   7.847
48259SOL    HW246610   3.480   2.745   7.854
48260SOL     OW46611   4.072   0.331   0.392
48260SOL    HW146612   4.017   0.351   0.468
48260SOL    HW246613   4.142   0.277   0.426
48261SOL     OW46614   1.638  11.701   3.773
48261SOL    HW146615   1.658  11.617   3.733
48261SOL    HW246616   1.695  11.763   3.728
48262SOL     OW46617  10.071   3.891   9.395
48262SOL    HW146618  10.087   3.934   9.311
48262SOL    HW246619  10.029   3.958   9.449
48263SOL     OW46620  10.096   2.077   8.039
48263SOL    HW146621  10.151   2.155   8.039
48263SOL    HW246622  10.051   2.079   8.123
48264SOL     OW46623  10.158  13.931   7.285
48264SOL    HW146624  10.096  13.972   7.346
48264SOL    HW246625  10.121  13.947   7.198
48265SOL     OW46626   3.169  10.400   1.650
48265SOL    HW146627   3.195  10.410   1.742
48265SOL    HW246628   3.119  10.480   1.630
48266SOL     OW46629   1.470   8.255   0.350
48266SOL    HW146630   1.414   8.311   0.296
48266SOL    HW246631   1.556   8.298   0.346
48267SOL     OW46632   3.187  14.706   4.897
48267SOL    HW146633   3.131  14.783   4.890
48267SOL    HW246634   3.170  14.657   4.816
48268SOL     OW46635  10.635   4.850   2.575
48268SOL    HW146636  10.635   4.870   2.668
48268SOL    HW246637  10.683   4.767   2.569
48269SOL     OW46638  13.315   9.002  10.105
48269SOL    HW146639  13.310   9.095  10.129
48269SOL    HW246640  13.378   8.999  10.033
48270SOL     OW46641  12.830  13.566   6.925
48270SOL    HW146642  12.771  13.534   6.994
48270SOL    HW246643  12.811  13.659   6.920
48271SOL     OW46644   1.770  11.962   7.704
48271SOL    HW146645   1.710  11.906   7.754
48271SOL    HW246646   1.825  11.901   7.655
48272SOL     OW46647   1.337   6.074  13.878
48272SOL    HW146648   1.370   6.008  13.817
48272SOL    HW246649   1.342   6.156  13.829
48273SOL     OW46650   8.193  11.761  11.717
48273SOL    HW146651   8.119  11.707  11.741
48273SOL    HW246652   8.175  11.846  11.757
48274SOL     OW46653   0.148  10.345   9.172
48274SOL    HW146654   0.229  10.340   9.223
48274SOL    HW246655   0.169  10.403   9.098
48275SOL     OW46656   6.261  11.058   8.960
48275SOL    HW146657   6.335  11.001   8.937
48275SOL    HW246658   6.186  10.999   8.965
48276SOL     OW46659  14.357   4.788  10.355
48276SOL    HW146660  14.345   4.880  10.332
48276SOL    HW246661  14.450   4.771  10.340
48277SOL     OW46662  11.347   2.726   0.974
48277SOL    HW146663  11.319   2.757   0.888
48277SOL    HW246664  11.302   2.643   0.986
48278SOL     OW46665  14.393   6.644   5.922
48278SOL    HW146666  14.430   6.731   5.908
48278SOL    HW246667  14.298   6.657   5.918
48279SOL     OW46668   1.107   3.325   1.705
48279SOL    HW146669   1.044   3.270   1.657
48279SOL    HW246670   1.151   3.264   1.764
48280SOL     OW46671   6.170   8.641  11.846
48280SOL    HW146672   6.252   8.687  11.864
48280SOL    HW246673   6.194   8.548  11.849
48281SOL     OW46674   1.566   2.261   8.761
48281SOL    HW146675   1.495   2.322   8.782
48281SOL    HW246676   1.574   2.266   8.665
48282SOL     OW46677  11.535   7.351   3.244
48282SOL    HW146678  11.533   7.314   3.155
48282SOL    HW246679  11.590   7.290   3.294
48283SOL     OW46680   5.275   6.333   8.952
48283SOL    HW146681   5.242   6.256   8.905
48283SOL    HW246682   5.237   6.326   9.039
48284SOL     OW46683   6.747   8.373   8.515
48284SOL    HW146684   6.756   8.466   8.536
48284SOL    HW246685   6.835   8.346   8.489
48285SOL     OW46686   6.989  14.863   0.218
48285SOL    HW146687   7.061  14.831   0.271
48285SOL    HW246688   6.949  14.784   0.182
48286SOL     OW46689   1.844   6.255   7.418
48286SOL    HW146690   1.844   6.347   7.444
48286SOL    HW246691   1.894   6.253   7.336
48287SOL     OW46692   0.162   7.071   6.013
48287SOL    HW146693   0.146   7.005   5.946
48287SOL    HW246694   0.253   7.056   6.041
48288SOL     OW46695  10.602  14.614   3.981
48288SOL    HW146696  10.674  14.637   3.922
48288SOL    HW246697  10.541  14.565   3.926
48289SOL     OW46698  12.793  10.159   2.280
48289SOL    HW146699  12.759  10.248   2.268
48289SOL    HW246700  12.721  10.102   2.251
48290SOL     OW46701  13.289   8.328   1.329
48290SOL    HW146702  13.377   8.365   1.326
48290SOL    HW246703  13.294   8.248   1.276
48291SOL     OW46704   0.045   5.573  14.326
48291SOL    HW146705   0.137   5.569  14.352
48291SOL    HW246706   0.006   5.493  14.362
48292SOL     OW46707   3.299   0.530   9.814
48292SOL    HW146708   3.340   0.497   9.894
48292SOL    HW246709   3.259   0.452   9.775
48293SOL     OW46710   5.381   0.959   0.495
48293SOL    HW146711   5.328   0.880   0.481
48293SOL    HW246712   5.446   0.932   0.559
48294SOL     OW46713   4.147  12.391   1.917
48294SOL    HW146714   4.112  12.307   1.888
48294SOL    HW246715   4.242  12.383   1.908
48295SOL     OW46716  13.001  14.438   5.388
48295SOL    HW146717  13.090  14.421   5.417
48295SOL    HW246718  13.008  14.516   5.333
48296SOL     OW46719   2.532  11.624  13.952
48296SOL    HW146720   2.487  11.671  13.881
48296SOL    HW246721   2.611  11.589  13.910
48297SOL     OW46722  10.816   9.088   7.549
48297SOL    HW146723  10.738   9.060   7.597
48297SOL    HW246724  10.887   9.035   7.585
48298SOL     OW46725  12.020   3.800   9.719
48298SOL    HW146726  12.063   3.722   9.754
48298SOL    HW246727  12.017   3.785   9.625
48299SOL     OW46728  11.234   1.244  14.015
48299SOL    HW146729  11.234   1.328  14.062
48299SOL    HW246730  11.189   1.263  13.933
48300SOL     OW46731   3.939   2.500   2.057
48300SOL    HW146732   4.019   2.504   2.110
48300SOL    HW246733   3.967   2.529   1.970
48301SOL     OW46734  10.796  10.154   8.043
48301SOL    HW146735  10.878  10.201   8.028
48301SOL    HW246736  10.742  10.215   8.094
48302SOL     OW46737   7.409   2.367   0.634
48302SOL    HW146738   7.478   2.323   0.584
48302SOL    HW246739   7.455   2.428   0.691
48303SOL     OW46740   8.633   4.550   1.599
48303SOL    HW146741   8.586   4.549   1.682
48303SOL    HW246742   8.680   4.633   1.599
48304SOL     OW46743  10.372   2.006  13.653
48304SOL    HW146744  10.315   2.058  13.710
48304SOL    HW246745  10.379   1.921  13.696
48305SOL     OW46746   5.776  11.750   4.161
48305SOL    HW146747   5.816  11.677   4.114
48305SOL    HW246748   5.849  11.795   4.203
48306SOL     OW46749   8.983   8.365  13.135
48306SOL    HW146750   8.937   8.291  13.095
48306SOL    HW246751   9.075   8.336  13.138
48307SOL     OW46752   0.781   4.435   5.417
48307SOL    HW146753   0.842   4.398   5.481
48307SOL    HW246754   0.828   4.430   5.334
48308SOL     OW46755  11.555   8.777   4.849
48308SOL    HW146756  11.634   8.827   4.827
48308SOL    HW246757  11.507   8.772   4.767
48309SOL     OW46758  13.864   7.235   9.058
48309SOL    HW146759  13.873   7.330   9.068
48309SOL    HW246760  13.883   7.200   9.145
48310SOL     OW46761   5.633  12.381  10.196
48310SOL    HW146762   5.620  12.300  10.244
48310SOL    HW246763   5.556  12.434  10.216
48311SOL     OW46764  14.719   7.008   4.698
48311SOL    HW146765  14.739   7.090   4.743
48311SOL    HW246766  14.720   7.031   4.605
48312SOL     OW46767  10.928   1.371  11.859
48312SOL    HW146768  10.887   1.451  11.826
48312SOL    HW246769  11.020   1.380  11.836
48313SOL     OW46770   2.827   7.943   6.696
48313SOL    HW146771   2.896   7.886   6.729
48313SOL    HW246772   2.820   8.013   6.761
48314SOL     OW46773   3.714   6.340   4.388
48314SOL    HW146774   3.669   6.309   4.467
48314SOL    HW246775   3.758   6.421   4.415
48315SOL     OW46776   3.365   0.218   5.468
48315SOL    HW146777   3.419   0.249   5.541
48315SOL    HW246778   3.412   0.142   5.434
48316SOL     OW46779   7.774  13.182  11.735
48316SOL    HW146780   7.758  13.130  11.656
48316SOL    HW246781   7.751  13.124  11.807
48317SOL     OW46782   6.138   3.159  10.985
48317SOL    HW146783   6.135   3.193  11.075
48317SOL    HW246784   6.188   3.224  10.936
48318SOL     OW46785   4.295  11.770  14.409
48318SOL    HW146786   4.349  11.812  14.475
48318SOL    HW246787   4.349  11.699  14.375
48319SOL     OW46788   3.683   6.589   4.911
48319SOL    HW146789   3.723   6.619   4.993
48319SOL    HW246790   3.712   6.652   4.846
48320SOL     OW46791   9.935   4.954   1.799
48320SOL    HW146792   9.966   4.920   1.883
48320SOL    HW246793   9.943   5.049   1.806
48321SOL     OW46794   7.135  14.340   8.430
48321SOL    HW146795   7.102  14.255   8.402
48321SOL    HW246796   7.222  14.321   8.467
48322SOL     OW46797   3.113   9.344  14.547
48322SOL    HW146798   3.128   9.295  14.628
48322SOL    HW246799   3.200   9.352  14.507
48323SOL     OW46800   8.156   6.629   0.176
48323SOL    HW146801   8.107   6.549   0.197
48323SOL    HW246802   8.207   6.606   0.098
48324SOL     OW46803   3.239  10.666   7.499
48324SOL    HW146804   3.151  10.700   7.482
48324SOL    HW246805   3.225  10.582   7.543
48325SOL     OW46806   8.750   6.603   2.288
48325SOL    HW146807   8.718   6.529   2.340
48325SOL    HW246808   8.719   6.584   2.199
48326SOL     OW46809   9.678   7.538   1.510
48326SOL    HW146810   9.661   7.617   1.560
48326SOL    HW246811   9.600   7.527   1.455
48327SOL     OW46812  14.636  12.256   8.939
48327SOL    HW146813  14.660  12.347   8.920
48327SOL    HW246814  14.691  12.204   8.880
48328SOL     OW46815   5.609  13.614   3.964
48328SOL    HW146816   5.603  13.518   3.959
48328SOL    HW246817   5.551  13.637   4.037
48329SOL     OW46818  13.925   3.492  11.518
48329SOL    HW146819  13.936   3.481  11.424
48329SOL    HW246820  14.013   3.479  11.555
48330SOL     OW46821   9.343   0.875   5.074
48330SOL    HW146822   9.302   0.872   4.988
48330SOL    HW246823   9.334   0.966   5.102
48331SOL     OW46824   1.856   1.693   0.209
48331SOL    HW146825   1.882   1.625   0.271
48331SOL    HW246826   1.856   1.774   0.261
48332SOL     OW46827  10.789  13.966   2.963
48332SOL    HW146828  10.765  13.996   2.875
48332SOL    HW246829  10.771  14.041   3.020
48333SOL     OW46830  11.653  11.733  11.170
48333SOL    HW146831  11.641  11.804  11.233
48333SOL    HW246832  11.594  11.663  11.200
48334SOL     OW46833   1.304  14.098  11.272
48334SOL    HW146834   1.209  14.086  11.279
48334SOL    HW246835   1.333  14.115  11.362
48335SOL     OW46836   8.928  12.150  14.748
48335SOL    HW146837   8.851  12.184  14.702
48335SOL    HW246838   8.994  12.218  14.738
48336SOL     OW46839  13.562   7.589   2.274
48336SOL    HW146840  13.643   7.555   2.311
48336SOL    HW246841  13.499   7.517   2.283
48337SOL     OW46842  12.902  12.727  10.942
48337SOL    HW146843  12.945  12.696  10.862
48337SOL    HW246844  12.972  12.766  10.994
48338SOL     OW46845   2.424   3.255   1.955
48338SOL    HW146846   2.506   3.279   1.910
48338SOL    HW246847   2.357   3.259   1.887
48339SOL     OW46848  13.377   1.242   4.824
48339SOL    HW146849  13.355   1.241   4.917
48339SOL    HW246850  13.346   1.327   4.792
48340SOL     OW46851   3.964   7.580   3.536
48340SOL    HW146852   3.928   7.491   3.533
48340SOL    HW246853   3.990   7.592   3.627
48341SOL     OW46854   6.170  10.639   1.263
48341SOL    HW146855   6.075  10.653   1.260
48341SOL    HW246856   6.185  10.565   1.204
48342SOL     OW46857  14.108   8.259  11.497
48342SOL    HW146858  14.175   8.328  11.506
48342SOL    HW246859  14.090   8.256  11.403
48343SOL     OW46860  12.418   4.758   2.701
48343SOL    HW146861  12.493   4.817   2.696
48343SOL    HW246862  12.445   4.681   2.650
48344SOL     OW46863   3.392  13.652   5.352
48344SOL    HW146864   3.428  13.573   5.311
48344SOL    HW246865   3.412  13.722   5.289
48345SOL     OW46866  12.817   5.352   3.910
48345SOL    HW146867  12.853   5.438   3.934
48345SOL    HW246868  12.731   5.350   3.952
48346SOL     OW46869   1.968   2.783   7.591
48346SOL    HW146870   1.951   2.730   7.669
48346SOL    HW246871   1.911   2.745   7.524
48347SOL     OW46872   2.534   5.303  13.790
48347SOL    HW146873   2.584   5.237  13.838
48347SOL    HW246874   2.599   5.350  13.738
48348SOL     OW46875   2.638  11.310   8.389
48348SOL    HW146876   2.683  11.300   8.305
48348SOL    HW246877   2.704  11.348   8.447
48349SOL     OW46878   9.692  13.791   4.898
48349SOL    HW146879   9.706  13.845   4.976
48349SOL    HW246880   9.655  13.851   4.834
48350SOL     OW46881   3.609   0.930   1.238
48350SOL    HW146882   3.680   0.868   1.254
48350SOL    HW246883   3.639   1.011   1.278
48351SOL     OW46884   5.379  10.309   2.581
48351SOL    HW146885   5.414  10.317   2.493
48351SOL    HW246886   5.313  10.240   2.574
48352SOL     OW46887   9.186   2.806   5.593
48352SOL    HW146888   9.244   2.856   5.650
48352SOL    HW246889   9.175   2.862   5.516
48353SOL     OW46890  12.051   7.118  11.254
48353SOL    HW146891  12.128   7.174  11.268
48353SOL    HW246892  12.076   7.060  11.182
48354SOL     OW46893   0.865   3.813   1.781
48354SOL    HW146894   0.850   3.840   1.871
48354SOL    HW246895   0.959   3.818   1.770
48355SOL     OW46896   1.086  10.166   7.564
48355SOL    HW146897   1.119  10.122   7.485
48355SOL    HW246898   1.108  10.258   7.551
48356SOL     OW46899   3.946   1.142  10.051
48356SOL    HW146900   3.908   1.059  10.021
48356SOL    HW246901   3.961   1.192   9.971
48357SOL     OW46902  11.548  11.617  13.533
48357SOL    HW146903  11.525  11.699  13.488
48357SOL    HW246904  11.486  11.613  13.606
48358SOL     OW46905   3.374   1.812  10.281
48358SOL    HW146906   3.345   1.739  10.226
48358SOL    HW246907   3.358   1.890  10.227
48359SOL     OW46908  11.365   6.874   1.196
48359SOL    HW146909  11.301   6.942   1.177
48359SOL    HW246910  11.445   6.904   1.152
48360SOL     OW46911   9.291  10.977   2.647
48360SOL    HW146912   9.196  10.972   2.654
48360SOL    HW246913   9.322  10.892   2.678
48361SOL     OW46914   8.212  10.022   3.174
48361SOL    HW146915   8.189   9.958   3.108
48361SOL    HW246916   8.237   9.970   3.251
48362SOL     OW46917   4.896   5.909  12.296
48362SOL    HW146918   4.822   5.922  12.236
48362SOL    HW246919   4.943   5.834  12.259
48363SOL     OW46920   2.050  11.800   3.387
48363SOL    HW146921   2.097  11.722   3.358
48363SOL    HW246922   2.118  11.857   3.422
48364SOL     OW46923  10.462   5.114   5.352
48364SOL    HW146924  10.529   5.177   5.377
48364SOL    HW246925  10.456   5.054   5.426
48365SOL     OW46926   9.875   0.802   5.464
48365SOL    HW146927   9.917   0.779   5.547
48365SOL    HW246928   9.785   0.826   5.489
48366SOL     OW46929   2.125  12.471   9.148
48366SOL    HW146930   2.119  12.518   9.231
48366SOL    HW246931   2.219  12.459   9.135
48367SOL     OW46932   2.932  11.682  14.783
48367SOL    HW146933   2.906  11.684  14.875
48367SOL    HW246934   3.027  11.695  14.784
48368SOL     OW46935  12.853  14.839   3.278
48368SOL    HW146936  12.901  14.881   3.207
48368SOL    HW246937  12.914  14.775   3.314
48369SOL     OW46938  11.080   2.097  10.828
48369SOL    HW146939  10.989   2.123  10.811
48369SOL    HW246940  11.086   2.090  10.923
48370SOL     OW46941  13.983   5.990   1.172
48370SOL    HW146942  14.034   5.926   1.122
48370SOL    HW246943  13.981   5.954   1.260
48371SOL     OW46944   1.746   2.415   2.717
48371SOL    HW146945   1.708   2.327   2.717
48371SOL    HW246946   1.673   2.473   2.696
48372SOL     OW46947   1.784   1.847   6.346
48372SOL    HW146948   1.693   1.817   6.345
48372SOL    HW246949   1.826   1.800   6.274
48373SOL     OW46950   8.738  10.337  11.162
48373SOL    HW146951   8.801  10.407  11.146
48373SOL    HW246952   8.660  10.362  11.112
48374SOL     OW46953   0.601   9.604   3.897
48374SOL    HW146954   0.573   9.592   3.806
48374SOL    HW246955   0.614   9.699   3.906
48375SOL     OW46956   1.095   8.406   3.773
48375SOL    HW146957   1.015   8.457   3.768
48375SOL    HW246958   1.081   8.347   3.847
48376SOL     OW46959  13.234   9.110  14.762
48376SOL    HW146960  13.304   9.122  14.826
48376SOL    HW246961  13.205   9.020  14.777
48377SOL     OW46962   7.150  14.175   6.246
48377SOL    HW146963   7.176  14.152   6.157
48377SOL    HW246964   7.226  14.151   6.300
48378SOL     OW46965   9.198   6.418  13.386
48378SOL    HW146966   9.169   6.337  13.344
48378SOL    HW246967   9.122   6.447  13.436
48379SOL     OW46968   7.179   5.619  11.710
48379SOL    HW146969   7.216   5.597  11.796
48379SOL    HW246970   7.240   5.580  11.647
48380SOL     OW46971  10.560   1.048  11.815
48380SOL    HW146972  10.487   1.108  11.796
48380SOL    HW246973  10.637   1.092  11.780
48381SOL     OW46974   5.880   4.239   1.058
48381SOL    HW146975   5.795   4.283   1.067
48381SOL    HW246976   5.906   4.255   0.967
48382SOL     OW46977  12.593  11.776   4.274
48382SOL    HW146978  12.675  11.819   4.300
48382SOL    HW246979  12.622  11.700   4.224
48383SOL     OW46980   7.940   5.456  12.080
48383SOL    HW146981   7.895   5.469  12.163
48383SOL    HW246982   8.005   5.527  12.077
48384SOL     OW46983  14.119   0.009   4.304
48384SOL    HW146984  14.163  14.830   4.364
48384SOL    HW246985  14.138  14.856   4.217
48385SOL     OW46986  12.906  10.771   5.390
48385SOL    HW146987  12.846  10.718   5.443
48385SOL    HW246988  12.856  10.849   5.368
48386SOL     OW46989   8.761  11.723  13.147
48386SOL    HW146990   8.758  11.779  13.225
48386SOL    HW246991   8.811  11.646  13.174
48387SOL     OW46992   5.616   3.119   6.370
48387SOL    HW146993   5.646   3.084   6.454
48387SOL    HW246994   5.595   3.211   6.388
48388SOL     OW46995  13.668   9.474   5.499
48388SOL    HW146996  13.720   9.482   5.579
48388SOL    HW246997  13.653   9.564   5.471
48389SOL     OW46998  14.727   1.829   0.719
48389SOL    HW146999  14.678   1.822   0.801
48389SOL    HW247000  14.681   1.897   0.670
48390SOL     OW47001   7.859   9.714   9.010
48390SOL    HW147002   7.831   9.778   9.075
48390SOL    HW247003   7.880   9.766   8.932
48391SOL     OW47004   2.381   5.246   8.214
48391SOL    HW147005   2.355   5.200   8.294
48391SOL    HW247006   2.447   5.309   8.242
48392SOL     OW47007  11.620   8.664  12.309
48392SOL    HW147008  11.691   8.635  12.367
48392SOL    HW247009  11.642   8.755  12.289
48393SOL     OW47010   7.237  10.781  13.251
48393SOL    HW147011   7.172  10.772  13.181
48393SOL    HW247012   7.321  10.768  13.207
48394SOL     OW47013   9.367  11.509   6.553
48394SOL    HW147014   9.379  11.416   6.567
48394SOL    HW247015   9.280  11.528   6.589
48395SOL     OW47016  12.875   1.820  12.430
48395SOL    HW147017  12.792   1.792  12.468
48395SOL    HW247018  12.888   1.909  12.463
48396SOL     OW47019   7.648   2.514   9.164
48396SOL    HW147020   7.702   2.504   9.242
48396SOL    HW247021   7.710   2.538   9.095
48397SOL     OW47022   1.169   3.243   8.950
48397SOL    HW147023   1.210   3.288   8.876
48397SOL    HW247024   1.145   3.313   9.010
48398SOL     OW47025   2.449  11.724  11.725
48398SOL    HW147026   2.410  11.801  11.766
48398SOL    HW247027   2.544  11.735  11.737
48399SOL     OW47028   7.074   1.812   2.930
48399SOL    HW147029   6.989   1.771   2.949
48399SOL    HW247030   7.070   1.833   2.837
48400SOL     OW47031   8.824  13.871   5.415
48400SOL    HW147032   8.807  13.928   5.490
48400SOL    HW247033   8.898  13.817   5.442
48401SOL     OW47034   7.020   8.662   7.004
48401SOL    HW147035   7.056   8.750   7.019
48401SOL    HW247036   7.037   8.614   7.085
48402SOL     OW47037   9.893   1.512   3.978
48402SOL    HW147038   9.880   1.578   4.047
48402SOL    HW247039   9.899   1.563   3.897
48403SOL     OW47040   0.992   7.844  13.609
48403SOL    HW147041   1.012   7.937  13.618
48403SOL    HW247042   0.981   7.813  13.698
48404SOL     OW47043   3.654   9.183  13.170
48404SOL    HW147044   3.625   9.137  13.248
48404SOL    HW247045   3.637   9.122  13.098
48405SOL     OW47046  11.170  14.843   5.203
48405SOL    HW147047  11.112  14.790   5.149
48405SOL    HW247048  11.235  14.877   5.142
48406SOL     OW47049  12.472   7.994   6.241
48406SOL    HW147050  12.535   8.026   6.306
48406SOL    HW247051  12.513   7.915   6.206
48407SOL     OW47052   2.433  10.022   8.494
48407SOL    HW147053   2.444  10.099   8.549
48407SOL    HW247054   2.522   9.985   8.487
48408SOL     OW47055   3.809   5.615  11.325
48408SOL    HW147056   3.811   5.701  11.282
48408SOL    HW247057   3.890   5.572  11.297
48409SOL     OW47058   0.069   7.514   1.308
48409SOL    HW147059   0.158   7.503   1.274
48409SOL    HW247060   0.025   7.431   1.290
48410SOL     OW47061   5.855  14.739   4.711
48410SOL    HW147062   5.877  14.668   4.771
48410SOL    HW247063   5.833  14.813   4.768
48411SOL     OW47064  10.919  12.864   5.955
48411SOL    HW147065  10.879  12.942   5.915
48411SOL    HW247066  10.883  12.861   6.044
48412SOL     OW47067   6.557   3.740  13.957
48412SOL    HW147068   6.540   3.669  14.019
48412SOL    HW247069   6.558   3.697  13.872
48413SOL     OW47070   0.618   0.450   1.386
48413SOL    HW147071   0.616   0.370   1.334
48413SOL    HW247072   0.596   0.422   1.475
48414SOL     OW47073  10.981  11.863   5.142
48414SOL    HW147074  10.903  11.916   5.129
48414SOL    HW247075  11.051  11.910   5.097
48415SOL     OW47076   5.480  12.984  13.931
48415SOL    HW147077   5.503  12.943  13.847
48415SOL    HW247078   5.391  12.954  13.949
48416SOL     OW47079   8.060  11.403   4.512
48416SOL    HW147080   8.152  11.397   4.485
48416SOL    HW247081   8.027  11.313   4.504
48417SOL     OW47082   8.217   1.230   2.009
48417SOL    HW147083   8.189   1.279   2.086
48417SOL    HW247084   8.135   1.204   1.966
48418SOL     OW47085   2.852  10.755   3.820
48418SOL    HW147086   2.780  10.807   3.781
48418SOL    HW247087   2.837  10.667   3.787
48419SOL     OW47088   1.064  11.315  12.575
48419SOL    HW147089   1.148  11.341  12.615
48419SOL    HW247090   1.034  11.394  12.529
48420SOL     OW47091   5.350  12.493  13.556
48420SOL    HW147092   5.412  12.470  13.487
48420SOL    HW247093   5.360  12.588  13.566
48421SOL     OW47094  10.235   9.806   8.320
48421SOL    HW147095  10.325   9.839   8.314
48421SOL    HW247096  10.245   9.718   8.357
48422SOL     OW47097   3.540  11.362   0.662
48422SOL    HW147098   3.462  11.309   0.677
48422SOL    HW247099   3.513  11.451   0.687
48423SOL     OW47100   4.324   4.602   1.189
48423SOL    HW147101   4.386   4.588   1.261
48423SOL    HW247102   4.275   4.520   1.183
48424SOL     OW47103  13.036  11.933   7.686
48424SOL    HW147104  13.091  11.983   7.626
48424SOL    HW247105  13.009  11.997   7.752
48425SOL     OW47106   6.557   6.771   8.355
48425SOL    HW147107   6.644   6.797   8.385
48425SOL    HW247108   6.561   6.783   8.260
48426SOL     OW47109   2.049  12.233   9.418
48426SOL    HW147110   1.968  12.187   9.399
48426SOL    HW247111   2.024  12.324   9.429
48427SOL     OW47112   5.199  11.035   9.367
48427SOL    HW147113   5.172  11.106   9.308
48427SOL    HW247114   5.159  10.957   9.329
48428SOL     OW47115   9.458   9.294   8.369
48428SOL    HW147116   9.426   9.229   8.431
48428SOL    HW247117   9.417   9.377   8.397
48429SOL     OW47118   7.021   9.246   8.924
48429SOL    HW147119   6.982   9.194   8.994
48429SOL    HW247120   7.109   9.267   8.955
48430SOL     OW47121  11.823   9.605   7.516
48430SOL    HW147122  11.808   9.661   7.592
48430SOL    HW247123  11.741   9.609   7.467
48431SOL     OW47124   6.694  10.911   5.586
48431SOL    HW147125   6.707  10.833   5.641
48431SOL    HW247126   6.758  10.974   5.619
48432SOL     OW47127   4.958   1.143   8.048
48432SOL    HW147128   4.973   1.179   7.961
48432SOL    HW247129   4.876   1.094   8.039
48433SOL     OW47130   9.150  13.240   0.467
48433SOL    HW147131   9.154  13.314   0.406
48433SOL    HW247132   9.173  13.164   0.413
48434SOL     OW47133   2.493   3.605   2.084
48434SOL    HW147134   2.417   3.585   2.029
48434SOL    HW247135   2.556   3.644   2.023
48435SOL     OW47136   7.981   8.309   5.374
48435SOL    HW147137   7.941   8.225   5.397
48435SOL    HW247138   7.974   8.361   5.455
48436SOL     OW47139   3.438   7.856   7.378
48436SOL    HW147140   3.462   7.911   7.453
48436SOL    HW247141   3.514   7.860   7.320
48437SOL     OW47142  12.501   3.048   0.878
48437SOL    HW147143  12.507   3.143   0.874
48437SOL    HW247144  12.424   3.031   0.931
48438SOL     OW47145   7.897  14.162   1.582
48438SOL    HW147146   7.904  14.254   1.610
48438SOL    HW247147   7.983  14.142   1.545
48439SOL     OW47148   4.812   4.847   2.755
48439SOL    HW147149   4.787   4.838   2.847
48439SOL    HW247150   4.866   4.771   2.736
48440SOL     OW47151  11.454   9.632   7.153
48440SOL    HW147152  11.474   9.704   7.093
48440SOL    HW247153  11.361   9.643   7.173
48441SOL     OW47154   1.351   4.457  10.028
48441SOL    HW147155   1.419   4.409   9.981
48441SOL    HW247156   1.284   4.474   9.962
48442SOL     OW47157   1.932  12.963  13.075
48442SOL    HW147158   2.008  12.994  13.026
48442SOL    HW247159   1.857  13.005  13.032
48443SOL     OW47160   0.639   2.210   0.827
48443SOL    HW147161   0.725   2.201   0.785
48443SOL    HW247162   0.589   2.266   0.768
48444SOL     OW47163   3.412  11.897   2.283
48444SOL    HW147164   3.337  11.924   2.336
48444SOL    HW247165   3.426  11.805   2.306
48445SOL     OW47166  14.072   0.741   0.297
48445SOL    HW147167  14.137   0.701   0.355
48445SOL    HW247168  14.097   0.712   0.210
48446SOL     OW47169   3.829   4.569   3.447
48446SOL    HW147170   3.776   4.641   3.479
48446SOL    HW247171   3.872   4.534   3.525
48447SOL     OW47172   6.098   1.124  11.041
48447SOL    HW147173   6.116   1.218  11.043
48447SOL    HW247174   6.003   1.118  11.032
48448SOL     OW47175  13.495   1.841   2.385
48448SOL    HW147176  13.582   1.862   2.418
48448SOL    HW247177  13.444   1.817   2.462
48449SOL     OW47178  12.347   4.779  12.189
48449SOL    HW147179  12.352   4.779  12.093
48449SOL    HW247180  12.413   4.716  12.217
48450SOL     OW47181   2.242   4.634   7.094
48450SOL    HW147182   2.216   4.613   7.004
48450SOL    HW247183   2.337   4.636   7.092
48451SOL     OW47184   2.669   5.848   8.526
48451SOL    HW147185   2.623   5.795   8.590
48451SOL    HW247186   2.672   5.792   8.448
48452SOL     OW47187   3.128   0.060   6.614
48452SOL    HW147188   3.090   0.121   6.677
48452SOL    HW247189   3.201   0.019   6.661
48453SOL     OW47190   0.024   8.693  14.099
48453SOL    HW147191   0.116   8.678  14.119
48453SOL    HW247192  14.861   8.615  14.132
48454SOL     OW47193  14.790   6.218   8.436
48454SOL    HW147194  14.874   6.194   8.397
48454SOL    HW247195  14.782   6.161   8.513
48455SOL     OW47196   7.834   4.589  13.572
48455SOL    HW147197   7.834   4.501  13.534
48455SOL    HW247198   7.926   4.613  13.579
48456SOL     OW47199  13.201   9.748   5.706
48456SOL    HW147200  13.150   9.828   5.719
48456SOL    HW247201  13.289   9.779   5.682
48457SOL     OW47202  11.725  12.092  14.476
48457SOL    HW147203  11.723  12.128  14.387
48457SOL    HW247204  11.797  12.140  14.519
48458SOL     OW47205   5.143   5.161   2.849
48458SOL    HW147206   5.061   5.129   2.884
48458SOL    HW247207   5.118   5.234   2.792
48459SOL     OW47208   8.857   3.350   0.899
48459SOL    HW147209   8.823   3.408   0.967
48459SOL    HW247210   8.781   3.327   0.846
48460SOL     OW47211   5.826   3.602   8.791
48460SOL    HW147212   5.736   3.590   8.761
48460SOL    HW247213   5.832   3.547   8.869
48461SOL     OW47214   5.963  11.313  14.165
48461SOL    HW147215   6.041  11.353  14.203
48461SOL    HW247216   5.967  11.222  14.194
48462SOL     OW47217  14.154   8.026  13.917
48462SOL    HW147218  14.097   8.014  13.841
48462SOL    HW247219  14.224   8.082  13.885
48463SOL     OW47220   0.113   6.977   5.236
48463SOL    HW147221   0.137   6.910   5.172
48463SOL    HW247222   0.045   6.936   5.289
48464SOL     OW47223  10.790  14.020   4.108
48464SOL    HW147224  10.876  14.017   4.066
48464SOL    HW247225  10.731  13.976   4.046
48465SOL     OW47226   1.767  10.359  13.708
48465SOL    HW147227   1.673  10.341  13.706
48465SOL    HW247228   1.806  10.287  13.658
48466SOL     OW47229   3.650   2.041  11.422
48466SOL    HW147230   3.609   2.045  11.509
48466SOL    HW247231   3.578   2.057  11.361
48467SOL     OW47232  14.409   0.182   5.904
48467SOL    HW147233  14.462   0.120   5.853
48467SOL    HW247234  14.323   0.179   5.863
48468SOL     OW47235   0.960   5.702  14.451
48468SOL    HW147236   0.942   5.653  14.531
48468SOL    HW247237   0.933   5.792  14.471
48469SOL     OW47238  14.504   1.434   0.252
48469SOL    HW147239  14.466   1.444   0.339
48469SOL    HW247240  14.564   1.360   0.260
48470SOL     OW47241   2.421   6.004   5.426
48470SOL    HW147242   2.447   5.919   5.463
48470SOL    HW247243   2.400   5.985   5.335
48471SOL     OW47244   9.275   3.569   2.338
48471SOL    HW147245   9.329   3.644   2.362
48471SOL    HW247246   9.327   3.523   2.271
48472SOL     OW47247  11.554   1.306   3.035
48472SOL    HW147248  11.580   1.225   2.991
48472SOL    HW247249  11.528   1.365   2.964
48473SOL     OW47250   5.748   0.752   8.050
48473SOL    HW147251   5.722   0.842   8.072
48473SOL    HW247252   5.819   0.763   7.987
48474SOL     OW47253   3.670   0.138   9.099
48474SOL    HW147254   3.762   0.129   9.071
48474SOL    HW247255   3.675   0.165   9.191
48475SOL     OW47256   6.338   2.721   7.215
48475SOL    HW147257   6.379   2.652   7.162
48475SOL    HW247258   6.263   2.678   7.256
48476SOL     OW47259   0.639   8.171   8.382
48476SOL    HW147260   0.631   8.262   8.409
48476SOL    HW247261   0.731   8.150   8.395
48477SOL     OW47262   1.275   9.201   0.328
48477SOL    HW147263   1.303   9.112   0.347
48477SOL    HW247264   1.336   9.257   0.375
48478SOL     OW47265  11.004   8.757  10.907
48478SOL    HW147266  11.015   8.765  11.002
48478SOL    HW247267  11.006   8.663  10.891
48479SOL     OW47268   3.267   4.496   3.543
48479SOL    HW147269   3.268   4.591   3.537
48479SOL    HW247270   3.353   4.469   3.509
48480SOL     OW47271   2.227  12.043   4.199
48480SOL    HW147272   2.207  11.949   4.195
48480SOL    HW247273   2.308  12.048   4.249
48481SOL     OW47274   5.822  13.787  11.052
48481SOL    HW147275   5.814  13.739  11.134
48481SOL    HW247276   5.900  13.841  11.064
48482SOL     OW47277   9.345   4.692   2.598
48482SOL    HW147278   9.256   4.724   2.583
48482SOL    HW247279   9.399   4.738   2.534
48483SOL     OW47280  14.127   9.473  12.610
48483SOL    HW147281  14.197   9.442  12.554
48483SOL    HW247282  14.103   9.558  12.575
48484SOL     OW47283  14.815  11.640  10.618
48484SOL    HW147284  14.850  11.648  10.707
48484SOL    HW247285  14.812  11.730  10.586
48485SOL     OW47286   9.510   3.418   4.261
48485SOL    HW147287   9.521   3.510   4.235
48485SOL    HW247288   9.521   3.369   4.179
48486SOL     OW47289  13.506   8.513   4.085
48486SOL    HW147290  13.573   8.447   4.064
48486SOL    HW247291  13.452   8.518   4.006
48487SOL     OW47292   0.580   3.195   8.934
48487SOL    HW147293   0.527   3.145   8.996
48487SOL    HW247294   0.547   3.170   8.848
48488SOL     OW47295   6.418   4.786   8.325
48488SOL    HW147296   6.474   4.753   8.395
48488SOL    HW247297   6.338   4.733   8.332
48489SOL     OW47298   5.348   2.042   9.106
48489SOL    HW147299   5.356   2.137   9.100
48489SOL    HW247300   5.299   2.017   9.028
48490SOL     OW47301  12.303   3.668   6.289
48490SOL    HW147302  12.245   3.592   6.283
48490SOL    HW247303  12.331   3.684   6.199
48491SOL     OW47304   7.053  10.776  11.706
48491SOL    HW147305   7.044  10.770  11.801
48491SOL    HW247306   7.057  10.685  11.676
48492SOL     OW47307   5.344  14.574  11.904
48492SOL    HW147308   5.261  14.540  11.937
48492SOL    HW247309   5.360  14.654  11.955
48493SOL     OW47310  14.670   5.946   1.108
48493SOL    HW147311  14.673   6.021   1.049
48493SOL    HW247312  14.741   5.962   1.171
48494SOL     OW47313  10.378   7.130   6.408
48494SOL    HW147314  10.352   7.195   6.473
48494SOL    HW247315  10.436   7.070   6.456
48495SOL     OW47316   8.684   3.213   1.163
48495SOL    HW147317   8.765   3.264   1.171
48495SOL    HW247318   8.657   3.198   1.254
48496SOL     OW47319   9.434   4.322  14.136
48496SOL    HW147320   9.441   4.234  14.172
48496SOL    HW247321   9.500   4.373  14.183
48497SOL     OW47322   2.288  13.714   4.925
48497SOL    HW147323   2.356  13.774   4.955
48497SOL    HW247324   2.275  13.654   4.998
48498SOL     OW47325  13.693   3.738  13.386
48498SOL    HW147326  13.660   3.795  13.456
48498SOL    HW247327  13.708   3.654  13.429
48499SOL     OW47328   7.127   8.620  13.579
48499SOL    HW147329   7.168   8.680  13.640
48499SOL    HW247330   7.054   8.582  13.629
48500SOL     OW47331   8.408  11.565   5.311
48500SOL    HW147332   8.321  11.557   5.350
48500SOL    HW247333   8.458  11.494   5.350
48501SOL     OW47334   2.679   6.122   4.112
48501SOL    HW147335   2.652   6.161   4.030
48501SOL    HW247336   2.758   6.170   4.137
48502SOL     OW47337   7.467  14.768   8.211
48502SOL    HW147338   7.455  14.746   8.303
48502SOL    HW247339   7.458  14.863   8.207
48503SOL     OW47340   7.878  13.774   1.073
48503SOL    HW147341   7.896  13.702   1.133
48503SOL    HW247342   7.926  13.848   1.109
48504SOL     OW47343  12.011  11.479  10.012
48504SOL    HW147344  12.022  11.413  10.081
48504SOL    HW247345  12.028  11.562  10.056
48505SOL     OW47346   5.744   2.962  13.877
48505SOL    HW147347   5.743   3.057  13.888
48505SOL    HW247348   5.703   2.929  13.957
48506SOL     OW47349   1.503  13.993   9.013
48506SOL    HW147350   1.417  14.035   9.011
48506SOL    HW247351   1.556  14.049   9.069
48507SOL     OW47352   9.150   2.183   1.585
48507SOL    HW147353   9.188   2.245   1.647
48507SOL    HW247354   9.164   2.224   1.499
48508SOL     OW47355   0.251   5.757   9.465
48508SOL    HW147356   0.167   5.725   9.431
48508SOL    HW247357   0.287   5.810   9.394
48509SOL     OW47358   9.311   2.148   7.268
48509SOL    HW147359   9.266   2.196   7.199
48509SOL    HW247360   9.246   2.141   7.338
48510SOL     OW47361  12.464  12.562   8.604
48510SOL    HW147362  12.554  12.566   8.571
48510SOL    HW247363  12.471  12.582   8.697
48511SOL     OW47364  12.725  13.706   0.449
48511SOL    HW147365  12.697  13.785   0.494
48511SOL    HW247366  12.675  13.706   0.367
48512SOL     OW47367   9.115  14.309  11.664
48512SOL    HW147368   9.138  14.377  11.728
48512SOL    HW247369   9.083  14.358  11.588
48513SOL     OW47370   3.323   4.012   9.069
48513SOL    HW147371   3.262   3.940   9.053
48513SOL    HW247372   3.305   4.039   9.159
48514SOL     OW47373   3.408  11.756   5.045
48514SOL    HW147374   3.389  11.848   5.025
48514SOL    HW247375   3.336  11.729   5.102
48515SOL     OW47376   1.358  12.525  11.845
48515SOL    HW147377   1.372  12.520  11.940
48515SOL    HW247378   1.348  12.619  11.828
48516SOL     OW47379  11.794  13.833   3.729
48516SOL    HW147380  11.727  13.869   3.672
48516SOL    HW247381  11.784  13.880   3.812
48517SOL     OW47382  13.397   3.280   1.420
48517SOL    HW147383  13.364   3.310   1.336
48517SOL    HW247384  13.431   3.359   1.462
48518SOL     OW47385   2.164  13.335  11.300
48518SOL    HW147386   2.166  13.312  11.393
48518SOL    HW247387   2.091  13.284  11.265
48519SOL     OW47388   7.324   8.630  11.023
48519SOL    HW147389   7.346   8.537  11.020
48519SOL    HW247390   7.400   8.671  11.064
48520SOL     OW47391   4.826  12.153  14.143
48520SOL    HW147392   4.826  12.108  14.227
48520SOL    HW247393   4.760  12.107  14.091
48521SOL     OW47394   8.916   2.085   1.436
48521SOL    HW147395   8.947   2.115   1.521
48521SOL    HW247396   8.961   2.002   1.421
48522SOL     OW47397   1.385   1.533   6.578
48522SOL    HW147398   1.413   1.441   6.577
48522SOL    HW247399   1.404   1.562   6.667
48523SOL     OW47400  11.824  11.999   3.867
48523SOL    HW147401  11.805  11.928   3.807
48523SOL    HW247402  11.920  12.000   3.875
48524SOL     OW47403   3.354  12.612   1.395
48524SOL    HW147404   3.434  12.590   1.445
48524SOL    HW247405   3.341  12.536   1.338
48525SOL     OW47406  11.709   6.734   0.660
48525SOL    HW147407  11.755   6.714   0.579
48525SOL    HW247408  11.679   6.649   0.693
48526SOL     OW47409   2.541   1.750  10.659
48526SOL    HW147410   2.531   1.805  10.737
48526SOL    HW247411   2.627   1.772  10.624
48527SOL     OW47412  12.799  10.898  14.635
48527SOL    HW147413  12.804  10.892  14.539
48527SOL    HW247414  12.770  10.811  14.662
48528SOL     OW47415   5.064  13.135   7.139
48528SOL    HW147416   5.094  13.218   7.176
48528SOL    HW247417   5.096  13.068   7.200
48529SOL     OW47418  12.923   6.447   4.693
48529SOL    HW147419  12.984   6.519   4.674
48529SOL    HW247420  12.868   6.441   4.615
48530SOL     OW47421   2.477   1.557   3.486
48530SOL    HW147422   2.572   1.550   3.473
48530SOL    HW247423   2.468   1.629   3.549
48531SOL     OW47424   1.810  11.430  12.733
48531SOL    HW147425   1.740  11.447  12.796
48531SOL    HW247426   1.778  11.357  12.680
48532SOL     OW47427  11.757  13.583   4.170
48532SOL    HW147428  11.813  13.565   4.094
48532SOL    HW247429  11.680  13.625   4.133
48533SOL     OW47430   5.210   1.512   1.199
48533SOL    HW147431   5.209   1.433   1.252
48533SOL    HW247432   5.131   1.507   1.145
48534SOL     OW47433   5.119  12.116   7.410
48534SOL    HW147434   5.136  12.165   7.329
48534SOL    HW247435   5.202  12.118   7.457
48535SOL     OW47436  14.485  14.473   7.757
48535SOL    HW147437  14.411  14.472   7.695
48535SOL    HW247438  14.445  14.450   7.841
48536SOL     OW47439   3.631   8.458   3.692
48536SOL    HW147440   3.542   8.493   3.694
48536SOL    HW247441   3.659   8.470   3.601
48537SOL     OW47442   7.483  10.490   3.319
48537SOL    HW147443   7.527  10.407   3.301
48537SOL    HW247444   7.547  10.540   3.369
48538SOL     OW47445   5.108   0.050  12.387
48538SOL    HW147446   5.112   0.038  12.293
48538SOL    HW247447   5.166   0.124  12.406
48539SOL     OW47448   9.783   5.677  12.321
48539SOL    HW147449   9.740   5.613  12.377
48539SOL    HW247450   9.837   5.624  12.261
48540SOL     OW47451  10.166   3.520   9.135
48540SOL    HW147452  10.096   3.578   9.166
48540SOL    HW247453  10.135   3.432   9.155
48541SOL     OW47454   9.555   0.790  12.801
48541SOL    HW147455   9.489   0.853  12.770
48541SOL    HW247456   9.549   0.717  12.740
48542SOL     OW47457   0.038   3.420  13.308
48542SOL    HW147458   0.069   3.391  13.222
48542SOL    HW247459  14.875   3.502  13.291
48543SOL     OW47460   2.708   0.511   1.067
48543SOL    HW147461   2.770   0.490   0.996
48543SOL    HW247462   2.654   0.581   1.031
48544SOL     OW47463   8.596  11.565  12.191
48544SOL    HW147464   8.551  11.481  12.182
48544SOL    HW247465   8.594  11.602  12.103
48545SOL     OW47466  11.760   6.592   4.658
48545SOL    HW147467  11.772   6.497   4.667
48545SOL    HW247468  11.761   6.607   4.564
48546SOL     OW47469   9.591   4.191   0.959
48546SOL    HW147470   9.528   4.169   1.027
48546SOL    HW247471   9.616   4.282   0.976
48547SOL     OW47472   1.997   5.478   2.266
48547SOL    HW147473   2.034   5.455   2.351
48547SOL    HW247474   1.904   5.496   2.285
48548SOL     OW47475   0.558  11.745   2.805
48548SOL    HW147476   0.490  11.687   2.771
48548SOL    HW247477   0.522  11.833   2.796
48549SOL     OW47478   3.544   2.432   0.628
48549SOL    HW147479   3.533   2.455   0.536
48549SOL    HW247480   3.524   2.513   0.675
48550SOL     OW47481   3.039   4.946   8.517
48550SOL    HW147482   3.044   4.954   8.613
48550SOL    HW247483   3.130   4.946   8.488
48551SOL     OW47484   2.935  13.236  14.416
48551SOL    HW147485   2.853  13.271  14.381
48551SOL    HW247486   3.003  13.274  14.361
48552SOL     OW47487   4.454   1.997  14.447
48552SOL    HW147488   4.401   2.032  14.375
48552SOL    HW247489   4.544   2.002  14.416
48553SOL     OW47490   4.476  14.518   2.752
48553SOL    HW147491   4.546  14.461   2.721
48553SOL    HW247492   4.451  14.569   2.676
48554SOL     OW47493   7.403   3.996   1.466
48554SOL    HW147494   7.333   4.026   1.409
48554SOL    HW247495   7.456   3.938   1.411
48555SOL     OW47496   0.123   3.961  10.423
48555SOL    HW147497   0.096   4.046  10.388
48555SOL    HW247498   0.041   3.912  10.430
48556SOL     OW47499   1.872  10.560   9.287
48556SOL    HW147500   1.830  10.475   9.301
48556SOL    HW247501   1.882  10.566   9.192
48557SOL     OW47502   4.757   2.794   6.475
48557SOL    HW147503   4.763   2.771   6.382
48557SOL    HW247504   4.805   2.725   6.521
48558SOL     OW47505  12.460  14.864  13.550
48558SOL    HW147506  12.538  14.876  13.603
48558SOL    HW247507  12.468  14.776  13.514
48559SOL     OW47508   7.073  11.767  11.287
48559SOL    HW147509   7.001  11.819  11.322
48559SOL    HW247510   7.134  11.758  11.360
48560SOL     OW47511  12.550   5.504   5.820
48560SOL    HW147512  12.565   5.457   5.902
48560SOL    HW247513  12.459   5.487   5.799
48561SOL     OW47514  12.755   1.138   0.822
48561SOL    HW147515  12.778   1.057   0.867
48561SOL    HW247516  12.786   1.126   0.732
48562SOL     OW47517   2.702  14.509   4.532
48562SOL    HW147518   2.618  14.523   4.576
48562SOL    HW247519   2.735  14.597   4.515
48563SOL     OW47520   1.798   3.615   5.637
48563SOL    HW147521   1.862   3.678   5.604
48563SOL    HW247522   1.719   3.631   5.584
48564SOL     OW47523   7.580  13.108   2.194
48564SOL    HW147524   7.529  13.041   2.148
48564SOL    HW247525   7.563  13.091   2.287
48565SOL     OW47526   0.268   4.894   0.702
48565SOL    HW147527   0.302   4.827   0.642
48565SOL    HW247528   0.252   4.847   0.784
48566SOL     OW47529   1.638  13.075  10.982
48566SOL    HW147530   1.577  13.010  10.948
48566SOL    HW247531   1.725  13.040  10.960
48567SOL     OW47532   3.449  12.246   5.459
48567SOL    HW147533   3.468  12.303   5.384
48567SOL    HW247534   3.467  12.158   5.428
48568SOL     OW47535  10.750  13.580   2.908
48568SOL    HW147536  10.677  13.571   2.847
48568SOL    HW247537  10.733  13.661   2.954
48569SOL     OW47538  10.234   0.242   9.177
48569SOL    HW147539  10.152   0.256   9.224
48569SOL    HW247540  10.237   0.312   9.111
48570SOL     OW47541   8.289   9.689  11.052
48570SOL    HW147542   8.247   9.609  11.021
48570SOL    HW247543   8.379   9.662  11.070
48571SOL     OW47544   1.971  14.107   3.062
48571SOL    HW147545   2.064  14.127   3.048
48571SOL    HW247546   1.960  14.018   3.028
48572SOL     OW47547   4.752   0.587   5.513
48572SOL    HW147548   4.689   0.602   5.443
48572SOL    HW247549   4.733   0.655   5.578
48573SOL     OW47550   2.346   4.097   3.664
48573SOL    HW147551   2.276   4.032   3.651
48573SOL    HW247552   2.299   4.177   3.688
48574SOL     OW47553  12.274  13.033   4.379
48574SOL    HW147554  12.251  12.940   4.387
48574SOL    HW247555  12.269  13.051   4.286
48575SOL     OW47556   6.042   2.889  14.284
48575SOL    HW147557   5.951   2.859  14.290
48575SOL    HW247558   6.036   2.982  14.267
48576SOL     OW47559   2.235   1.377  10.415
48576SOL    HW147560   2.167   1.380  10.347
48576SOL    HW247561   2.212   1.301  10.468
48577SOL     OW47562   4.768  11.575  10.698
48577SOL    HW147563   4.725  11.550  10.780
48577SOL    HW247564   4.861  11.578  10.720
48578SOL     OW47565  10.708   1.565   2.247
48578SOL    HW147566  10.649   1.583   2.174
48578SOL    HW247567  10.734   1.651   2.279
48579SOL     OW47568   5.961  10.405   6.836
48579SOL    HW147569   5.886  10.432   6.888
48579SOL    HW247570   5.925  10.343   6.772
48580SOL     OW47571   9.949   9.231  11.911
48580SOL    HW147572  10.019   9.273  11.861
48580SOL    HW247573   9.870   9.279  11.887
48581SOL     OW47574  13.261   3.585   7.990
48581SOL    HW147575  13.248   3.536   8.071
48581SOL    HW247576  13.349   3.562   7.961
48582SOL     OW47577   4.701   4.151   4.838
48582SOL    HW147578   4.664   4.153   4.750
48582SOL    HW247579   4.772   4.087   4.833
48583SOL     OW47580  11.709  14.261   9.494
48583SOL    HW147581  11.660  14.341   9.475
48583SOL    HW247582  11.643  14.200   9.526
48584SOL     OW47583  11.801  10.340   3.334
48584SOL    HW147584  11.710  10.316   3.352
48584SOL    HW247585  11.796  10.392   3.254
48585SOL     OW47586  10.465  12.886  10.244
48585SOL    HW147587  10.496  12.974  10.220
48585SOL    HW247588  10.370  12.892  10.237
48586SOL     OW47589   6.822  14.793   7.469
48586SOL    HW147590   6.844  14.738   7.544
48586SOL    HW247591   6.876  14.759   7.397
48587SOL     OW47592   0.802  12.353  10.497
48587SOL    HW147593   0.790  12.301  10.576
48587SOL    HW247594   0.864  12.421  10.523
48588SOL     OW47595   0.321  10.024  13.740
48588SOL    HW147596   0.287   9.990  13.657
48588SOL    HW247597   0.406   9.981  13.750
48589SOL     OW47598   7.327  14.103  11.681
48589SOL    HW147599   7.248  14.149  11.709
48589SOL    HW247600   7.295  14.035  11.622
48590SOL     OW47601  14.151   1.030  11.589
48590SOL    HW147602  14.241   1.057  11.571
48590SOL    HW247603  14.100   1.066  11.517
48591SOL     OW47604   2.163   3.691   7.457
48591SOL    HW147605   2.199   3.628   7.520
48591SOL    HW247606   2.074   3.660   7.441
48592SOL     OW47607  11.183   4.122   5.129
48592SOL    HW147608  11.109   4.161   5.174
48592SOL    HW247609  11.203   4.042   5.178
48593SOL     OW47610   2.632   3.992   9.554
48593SOL    HW147611   2.597   4.004   9.643
48593SOL    HW247612   2.598   3.907   9.527
48594SOL     OW47613   7.128   3.141   7.541
48594SOL    HW147614   7.080   3.114   7.462
48594SOL    HW247615   7.154   3.058   7.582
48595SOL     OW47616   2.797   1.300  11.263
48595SOL    HW147617   2.829   1.246  11.191
48595SOL    HW247618   2.825   1.389  11.240
48596SOL     OW47619   5.271   3.419   6.704
48596SOL    HW147620   5.357   3.388   6.675
48596SOL    HW247621   5.221   3.430   6.623
48597SOL     OW47622   6.688  13.307   7.651
48597SOL    HW147623   6.712  13.386   7.700
48597SOL    HW247624   6.771  13.276   7.615
48598SOL     OW47625   5.415   1.467  11.260
48598SOL    HW147626   5.324   1.466  11.232
48598SOL    HW247627   5.425   1.549  11.307
48599SOL     OW47628   8.784   4.880  13.955
48599SOL    HW147629   8.801   4.793  13.991
48599SOL    HW247630   8.863   4.930  13.975
48600SOL     OW47631  13.635   5.779   1.508
48600SOL    HW147632  13.627   5.743   1.596
48600SOL    HW247633  13.660   5.704   1.453
48601SOL     OW47634   1.135   1.702   3.669
48601SOL    HW147635   1.206   1.760   3.642
48601SOL    HW247636   1.178   1.631   3.716
48602SOL     OW47637  12.343   9.782  13.918
48602SOL    HW147638  12.359   9.720  13.847
48602SOL    HW247639  12.248   9.784  13.928
48603SOL     OW47640  10.044  14.063   8.629
48603SOL    HW147641   9.971  14.042   8.687
48603SOL    HW247642  10.115  14.089   8.689
48604SOL     OW47643  10.643   5.397  11.996
48604SOL    HW147644  10.604   5.393  11.909
48604SOL    HW247645  10.654   5.491  12.013
48605SOL     OW47646  10.206   8.124   8.086
48605SOL    HW147647  10.170   8.176   8.158
48605SOL    HW247648  10.277   8.074   8.126
48606SOL     OW47649   1.080   9.236  13.428
48606SOL    HW147650   1.045   9.256  13.342
48606SOL    HW247651   1.149   9.301  13.442
48607SOL     OW47652   5.330   1.170  11.051
48607SOL    HW147653   5.265   1.124  10.998
48607SOL    HW247654   5.375   1.101  11.099
48608SOL     OW47655   4.543  14.867  12.175
48608SOL    HW147656   4.584   0.072  12.172
48608SOL    HW247657   4.500  14.857  12.090
48609SOL     OW47658   6.255   8.659   9.936
48609SOL    HW147659   6.204   8.725   9.888
48609SOL    HW247660   6.238   8.577   9.889
48610SOL     OW47661   7.274   5.975   9.212
48610SOL    HW147662   7.292   5.881   9.216
48610SOL    HW247663   7.195   5.982   9.159
48611SOL     OW47664   1.031   1.988   3.259
48611SOL    HW147665   0.938   1.983   3.238
48611SOL    HW247666   1.065   1.901   3.236
48612SOL     OW47667   3.418   7.935   1.451
48612SOL    HW147668   3.496   7.910   1.401
48612SOL    HW247669   3.364   7.984   1.389
48613SOL     OW47670   9.402   7.135  12.720
48613SOL    HW147671   9.418   7.200  12.651
48613SOL    HW247672   9.374   7.057  12.673
48614SOL     OW47673   3.751   2.197  10.518
48614SOL    HW147674   3.716   2.158  10.598
48614SOL    HW247675   3.681   2.187  10.453
48615SOL     OW47676   5.977   6.305  14.643
48615SOL    HW147677   6.024   6.231  14.682
48615SOL    HW247678   5.998   6.379  14.699
48616SOL     OW47679  11.625   7.769   4.537
48616SOL    HW147680  11.663   7.784   4.450
48616SOL    HW247681  11.610   7.857   4.572
48617SOL     OW47682   7.413   0.501   8.452
48617SOL    HW147683   7.436   0.430   8.511
48617SOL    HW247684   7.480   0.568   8.467
48618SOL     OW47685   5.619  12.559  14.546
48618SOL    HW147686   5.586  12.485  14.596
48618SOL    HW247687   5.584  12.636  14.591
48619SOL     OW47688   9.477  14.435  10.212
48619SOL    HW147689   9.551  14.479  10.171
48619SOL    HW247690   9.400  14.484  10.182
48620SOL     OW47691  12.436   1.030   0.714
48620SOL    HW147692  12.520   1.024   0.759
48620SOL    HW247693  12.446   1.102   0.653
48621SOL     OW47694  12.278   0.665   0.240
48621SOL    HW147695  12.327   0.662   0.322
48621SOL    HW247696  12.234   0.750   0.243
48622SOL     OW47697  12.268   6.341   2.524
48622SOL    HW147698  12.280   6.369   2.434
48622SOL    HW247699  12.356   6.338   2.561
48623SOL     OW47700   0.047   9.774   5.673
48623SOL    HW147701   0.013   9.692   5.638
48623SOL    HW247702   0.137   9.755   5.697
48624SOL     OW47703  13.084   2.107  11.060
48624SOL    HW147704  13.107   2.200  11.048
48624SOL    HW247705  13.167   2.061  11.046
48625SOL     OW47706   4.561   6.867   5.030
48625SOL    HW147707   4.627   6.865   5.099
48625SOL    HW247708   4.497   6.931   5.061
48626SOL     OW47709   0.380   7.537   1.518
48626SOL    HW147710   0.439   7.557   1.591
48626SOL    HW247711   0.311   7.483   1.558
48627SOL     OW47712   7.943   6.730   2.993
48627SOL    HW147713   7.983   6.712   3.078
48627SOL    HW247714   7.849   6.738   3.012
48628SOL     OW47715  13.619   4.989   2.032
48628SOL    HW147716  13.661   5.071   2.056
48628SOL    HW247717  13.682   4.921   2.057
48629SOL     OW47718   4.203  14.732   7.631
48629SOL    HW147719   4.141  14.792   7.592
48629SOL    HW247720   4.277  14.730   7.570
48630SOL     OW47721   3.870   5.363  10.346
48630SOL    HW147722   3.916   5.303  10.405
48630SOL    HW247723   3.936   5.426  10.318
48631SOL     OW47724   1.418   9.434  12.033
48631SOL    HW147725   1.399   9.355  11.983
48631SOL    HW247726   1.388   9.415  12.121
48632SOL     OW47727   0.745  11.318   7.741
48632SOL    HW147728   0.732  11.227   7.767
48632SOL    HW247729   0.795  11.357   7.813
48633SOL     OW47730   1.417   7.104  12.523
48633SOL    HW147731   1.478   7.178  12.526
48633SOL    HW247732   1.474   7.027  12.524
48634SOL     OW47733  13.465   8.394   2.910
48634SOL    HW147734  13.496   8.463   2.969
48634SOL    HW247735  13.489   8.312   2.954
48635SOL     OW47736   2.820   8.871   9.021
48635SOL    HW147737   2.823   8.936   9.092
48635SOL    HW247738   2.799   8.789   9.065
48636SOL     OW47739  13.558   7.081   9.197
48636SOL    HW147740  13.547   7.131   9.116
48636SOL    HW247741  13.533   7.141   9.267
48637SOL     OW47742  11.451   5.647  11.214
48637SOL    HW147743  11.497   5.595  11.280
48637SOL    HW247744  11.468   5.738  11.239
48638SOL     OW47745   5.498  13.371   7.587
48638SOL    HW147746   5.477  13.333   7.673
48638SOL    HW247747   5.509  13.464   7.605
48639SOL     OW47748   2.596  11.018  10.004
48639SOL    HW147749   2.544  11.025  10.084
48639SOL    HW247750   2.563  11.087   9.948
48640SOL     OW47751  12.083   0.527   0.460
48640SOL    HW147752  12.105   0.436   0.479
48640SOL    HW247753  12.168   0.573   0.464
48641SOL     OW47754  12.317  14.699  11.041
48641SOL    HW147755  12.403  14.658  11.051
48641SOL    HW247756  12.324  14.747  10.958
48642SOL     OW47757   3.083   9.585   7.337
48642SOL    HW147758   3.028   9.520   7.381
48642SOL    HW247759   3.142   9.534   7.282
48643SOL     OW47760  13.355  13.144   5.435
48643SOL    HW147761  13.281  13.095   5.400
48643SOL    HW247762  13.366  13.112   5.524
48644SOL     OW47763   6.729   6.238   1.203
48644SOL    HW147764   6.642   6.278   1.205
48644SOL    HW247765   6.784   6.296   1.257
48645SOL     OW47766   6.621  13.301   1.732
48645SOL    HW147767   6.642  13.223   1.783
48645SOL    HW247768   6.575  13.268   1.655
48646SOL     OW47769  12.824   7.127   2.298
48646SOL    HW147770  12.745   7.074   2.305
48646SOL    HW247771  12.864   7.123   2.385
48647SOL     OW47772  12.168   7.250  12.881
48647SOL    HW147773  12.189   7.248  12.788
48647SOL    HW247774  12.253   7.249  12.925
48648SOL     OW47775   3.446   1.535   1.539
48648SOL    HW147776   3.527   1.486   1.521
48648SOL    HW247777   3.422   1.510   1.628
48649SOL     OW47778   4.127   5.454  11.548
48649SOL    HW147779   4.086   5.525  11.597
48649SOL    HW247780   4.161   5.396  11.616
48650SOL     OW47781  12.604  10.891   1.951
48650SOL    HW147782  12.572  10.895   2.041
48650SOL    HW247783  12.648  10.975   1.938
48651SOL     OW47784  10.143  10.983   4.071
48651SOL    HW147785  10.056  10.956   4.043
48651SOL    HW247786  10.152  10.948   4.159
48652SOL     OW47787  12.381   3.286   7.657
48652SOL    HW147788  12.433   3.206   7.655
48652SOL    HW247789  12.363   3.299   7.750
48653SOL     OW47790  10.626  11.922   5.166
48653SOL    HW147791  10.544  11.968   5.181
48653SOL    HW247792  10.668  11.920   5.252
48654SOL     OW47793   0.849   2.097  14.456
48654SOL    HW147794   0.757   2.122  14.457
48654SOL    HW247795   0.854   2.023  14.517
48655SOL     OW47796  14.614   8.552   6.738
48655SOL    HW147797  14.702   8.553   6.775
48655SOL    HW247798  14.628   8.546   6.643
48656SOL     OW47799   3.509   6.350   4.966
48656SOL    HW147800   3.564   6.426   4.950
48656SOL    HW247801   3.558   6.276   4.929
48657SOL     OW47802   2.557   5.909  14.248
48657SOL    HW147803   2.533   5.843  14.183
48657SOL    HW247804   2.504   5.886  14.325
48658SOL     OW47805   3.317  12.778  11.354
48658SOL    HW147806   3.276  12.693  11.365
48658SOL    HW247807   3.409  12.759  11.335
48659SOL     OW47808  11.866   7.028  11.789
48659SOL    HW147809  11.944   7.042  11.843
48659SOL    HW247810  11.900   7.004  11.703
48660SOL     OW47811  11.990  10.780   9.962
48660SOL    HW147812  12.011  10.837  10.036
48660SOL    HW247813  11.903  10.746   9.982
48661SOL     OW47814   8.366   2.169  13.645
48661SOL    HW147815   8.361   2.077  13.617
48661SOL    HW247816   8.412   2.166  13.729
48662SOL     OW47817  12.516   3.593  13.508
48662SOL    HW147818  12.449   3.544  13.556
48662SOL    HW247819  12.467   3.651  13.450
48663SOL     OW47820   8.727   6.020  12.954
48663SOL    HW147821   8.783   6.042  12.880
48663SOL    HW247822   8.765   6.065  13.029
48664SOL     OW47823   0.688   3.056   5.597
48664SOL    HW147824   0.655   3.088   5.681
48664SOL    HW247825   0.612   3.013   5.556
48665SOL     OW47826   9.794  10.008   0.372
48665SOL    HW147827   9.703  10.037   0.377
48665SOL    HW247828   9.790   9.927   0.322
48666SOL     OW47829   2.021   7.884   5.625
48666SOL    HW147830   2.082   7.956   5.638
48666SOL    HW247831   2.063   7.826   5.561
48667SOL     OW47832   2.060   7.853   7.743
48667SOL    HW147833   2.088   7.856   7.835
48667SOL    HW247834   1.978   7.902   7.741
48668SOL     OW47835   4.999   7.111   6.637
48668SOL    HW147836   5.035   7.083   6.553
48668SOL    HW247837   4.915   7.066   6.644
48669SOL     OW47838   1.711  12.822  14.221
48669SOL    HW147839   1.699  12.729  14.240
48669SOL    HW247840   1.687  12.867  14.302
48670SOL     OW47841  13.081   2.810   7.863
48670SOL    HW147842  13.018   2.740   7.845
48670SOL    HW247843  13.027   2.889   7.873
48671SOL     OW47844  13.659   6.922   1.573
48671SOL    HW147845  13.604   6.994   1.542
48671SOL    HW247846  13.614   6.889   1.651
48672SOL     OW47847   6.552  12.535   1.551
48672SOL    HW147848   6.596  12.554   1.635
48672SOL    HW247849   6.505  12.615   1.530
48673SOL     OW47850   7.206   7.117  14.057
48673SOL    HW147851   7.215   7.173  14.133
48673SOL    HW247852   7.111   7.102  14.050
48674SOL     OW47853  14.239   7.268   4.633
48674SOL    HW147854  14.270   7.335   4.572
48674SOL    HW247855  14.306   7.199   4.629
48675SOL     OW47856   8.954  11.216   8.967
48675SOL    HW147857   8.995  11.249   9.047
48675SOL    HW247858   8.904  11.139   8.996
48676SOL     OW47859   0.086   8.128   6.203
48676SOL    HW147860   0.066   8.048   6.154
48676SOL    HW247861   0.031   8.195   6.164
48677SOL     OW47862   5.294   2.145   6.108
48677SOL    HW147863   5.379   2.180   6.135
48677SOL    HW247864   5.287   2.060   6.152
48678SOL     OW47865  13.150   7.684  14.804
48678SOL    HW147866  13.209   7.660  14.732
48678SOL    HW247867  13.187   7.765  14.839
48679SOL     OW47868   2.659   3.477   8.322
48679SOL    HW147869   2.656   3.461   8.227
48679SOL    HW247870   2.618   3.563   8.333
48680SOL     OW47871   4.547   8.443   5.671
48680SOL    HW147872   4.612   8.413   5.607
48680SOL    HW247873   4.586   8.522   5.709
48681SOL     OW47874   4.792   8.199  13.340
48681SOL    HW147875   4.814   8.244  13.421
48681SOL    HW247876   4.742   8.262  13.289
48682SOL     OW47877   4.255  13.042   8.781
48682SOL    HW147878   4.335  13.011   8.824
48682SOL    HW247879   4.263  13.011   8.691
48683SOL     OW47880   4.447   1.022   2.935
48683SOL    HW147881   4.511   1.083   2.971
48683SOL    HW247882   4.376   1.078   2.902
48684SOL     OW47883   9.969   3.235   7.942
48684SOL    HW147884   9.954   3.322   7.980
48684SOL    HW247885   9.991   3.180   8.017
48685SOL     OW47886  14.595  13.083   2.285
48685SOL    HW147887  14.668  13.139   2.260
48685SOL    HW247888  14.635  13.001   2.312
48686SOL     OW47889  10.452   0.445  10.052
48686SOL    HW147890  10.441   0.448   9.957
48686SOL    HW247891  10.383   0.387  10.083
48687SOL     OW47892   9.339  10.505  13.957
48687SOL    HW147893   9.276  10.434  13.947
48687SOL    HW247894   9.399  10.474  14.024
48688SOL     OW47895   4.561   7.474   9.980
48688SOL    HW147896   4.644   7.432  10.001
48688SOL    HW247897   4.578   7.524   9.900
48689SOL     OW47898   9.279   3.174  13.484
48689SOL    HW147899   9.278   3.132  13.397
48689SOL    HW247900   9.203   3.137  13.529
48690SOL     OW47901  13.718   4.544  14.015
48690SOL    HW147902  13.790   4.557  14.077
48690SOL    HW247903  13.651   4.499  14.066
48691SOL     OW47904   8.062   1.894   8.513
48691SOL    HW147905   8.109   1.893   8.430
48691SOL    HW247906   8.105   1.962   8.564
48692SOL     OW47907   3.292  12.137   0.581
48692SOL    HW147908   3.330  12.050   0.574
48692SOL    HW247909   3.358  12.189   0.628
48693SOL     OW47910   0.695   0.192   7.255
48693SOL    HW147911   0.756   0.224   7.188
48693SOL    HW247912   0.752   0.155   7.323
48694SOL     OW47913  13.367   0.780   7.829
48694SOL    HW147914  13.429   0.717   7.865
48694SOL    HW247915  13.350   0.750   7.740
48695SOL     OW47916   1.458   7.312   4.215
48695SOL    HW147917   1.366   7.306   4.193
48695SOL    HW247918   1.459   7.329   4.309
48696SOL     OW47919   8.896   4.519  10.306
48696SOL    HW147920   8.948   4.469  10.368
48696SOL    HW247921   8.874   4.600  10.353
48697SOL     OW47922   8.056   8.209   8.953
48697SOL    HW147923   8.121   8.264   8.910
48697SOL    HW247924   8.078   8.120   8.926
48698SOL     OW47925  12.683   6.073   7.176
48698SOL    HW147926  12.683   6.155   7.127
48698SOL    HW247927  12.708   6.007   7.111
48699SOL     OW47928   6.723  13.751  12.440
48699SOL    HW147929   6.776  13.830  12.454
48699SOL    HW247930   6.660  13.752  12.512
48700SOL     OW47931   4.286  10.698  12.600
48700SOL    HW147932   4.212  10.756  12.622
48700SOL    HW247933   4.246  10.613  12.582
48701SOL     OW47934  14.044   6.250   7.842
48701SOL    HW147935  13.995   6.317   7.795
48701SOL    HW247936  14.109   6.298   7.893
48702SOL     OW47937  10.295  10.386   7.676
48702SOL    HW147938  10.214  10.364   7.630
48702SOL    HW247939  10.267  10.437   7.752
48703SOL     OW47940   6.778  13.762   2.594
48703SOL    HW147941   6.838  13.748   2.667
48703SOL    HW247942   6.773  13.857   2.585
48704SOL     OW47943   9.861   3.547   9.536
48704SOL    HW147944   9.936   3.555   9.595
48704SOL    HW247945   9.900   3.538   9.449
48705SOL     OW47946   9.072   4.955   6.283
48705SOL    HW147947   9.048   5.013   6.355
48705SOL    HW247948   9.029   4.872   6.303
48706SOL     OW47949   9.848   1.296  11.649
48706SOL    HW147950   9.924   1.323  11.700
48706SOL    HW247951   9.862   1.203  11.631
48707SOL     OW47952   7.813   5.217  10.217
48707SOL    HW147953   7.784   5.152  10.281
48707SOL    HW247954   7.904   5.195  10.199
48708SOL     OW47955  14.481   6.296   8.632
48708SOL    HW147956  14.404   6.353   8.621
48708SOL    HW247957  14.487   6.248   8.550
48709SOL     OW47958   5.842   4.805  12.224
48709SOL    HW147959   5.916   4.815  12.164
48709SOL    HW247960   5.766   4.794  12.167
48710SOL     OW47961   9.919   2.424   3.160
48710SOL    HW147962   9.885   2.343   3.199
48710SOL    HW247963   9.963   2.469   3.232
48711SOL     OW47964   7.595   9.951   0.962
48711SOL    HW147965   7.627   9.961   1.052
48711SOL    HW247966   7.657   9.890   0.921
48712SOL     OW47967   8.572   1.238  11.703
48712SOL    HW147968   8.543   1.296  11.773
48712SOL    HW247969   8.503   1.246  11.636
48713SOL     OW47970   4.960   1.750  12.105
48713SOL    HW147971   4.940   1.763  12.198
48713SOL    HW247972   4.928   1.828  12.062
48714SOL     OW47973  14.560   3.750  12.379
48714SOL    HW147974  14.578   3.679  12.318
48714SOL    HW247975  14.468   3.737  12.404
48715SOL     OW47976   0.094   7.621  14.317
48715SOL    HW147977   0.072   7.529  14.298
48715SOL    HW247978   0.051   7.638  14.401
48716SOL     OW47979  11.255   0.144   3.640
48716SOL    HW147980  11.340   0.138   3.685
48716SOL    HW247981  11.192   0.162   3.709
48717SOL     OW47982   5.149  14.154   9.433
48717SOL    HW147983   5.130  14.211   9.507
48717SOL    HW247984   5.198  14.081   9.471
48718SOL     OW47985   0.590  14.211   1.241
48718SOL    HW147986   0.539  14.264   1.303
48718SOL    HW247987   0.674  14.257   1.234
48719SOL     OW47988   3.051   2.556   4.816
48719SOL    HW147989   3.033   2.558   4.722
48719SOL    HW247990   3.001   2.629   4.852
48720SOL     OW47991  13.253  11.299   7.024
48720SOL    HW147992  13.265  11.218   6.975
48720SOL    HW247993  13.184  11.280   7.087
48721SOL     OW47994  12.222   5.545   7.761
48721SOL    HW147995  12.298   5.504   7.720
48721SOL    HW247996  12.152   5.479   7.754
48722SOL     OW47997  14.470   3.031   5.891
48722SOL    HW147998  14.527   3.108   5.887
48722SOL    HW247999  14.485   2.995   5.979
48723SOL     OW48000   2.818   9.923  14.430
48723SOL    HW148001   2.779   9.990  14.487
48723SOL    HW248002   2.774   9.935  14.346
48724SOL     OW48003  12.482  13.625   0.130
48724SOL    HW148004  12.521  13.711   0.115
48724SOL    HW248005  12.396  13.644   0.167
48725SOL     OW48006   9.894  14.461   1.481
48725SOL    HW148007   9.975  14.496   1.517
48725SOL    HW248008   9.909  14.367   1.474
48726SOL     OW48009   0.981   3.389  11.842
48726SOL    HW148010   0.933   3.350  11.769
48726SOL    HW248011   1.050   3.441  11.800
48727SOL     OW48012  10.823   3.573  12.251
48727SOL    HW148013  10.861   3.658  12.274
48727SOL    HW248014  10.897   3.514  12.246
48728SOL     OW48015  14.273   3.150  10.696
48728SOL    HW148016  14.234   3.122  10.778
48728SOL    HW248017  14.359   3.106  10.695
48729SOL     OW48018   4.437   6.607   2.563
48729SOL    HW148019   4.427   6.537   2.627
48729SOL    HW248020   4.479   6.679   2.611
48730SOL     OW48021   1.369   6.433   4.482
48730SOL    HW148022   1.348   6.468   4.396
48730SOL    HW248023   1.319   6.351   4.487
48731SOL     OW48024   8.511   8.917   2.818
48731SOL    HW148025   8.494   8.826   2.792
48731SOL    HW248026   8.590   8.942   2.769
48732SOL     OW48027   2.438  14.012   5.346
48732SOL    HW148028   2.493  14.029   5.270
48732SOL    HW248029   2.364  13.963   5.312
48733SOL     OW48030   4.330   4.448   3.083
48733SOL    HW148031   4.326   4.352   3.083
48733SOL    HW248032   4.275   4.474   3.008
48734SOL     OW48033   0.218   5.780  10.788
48734SOL    HW148034   0.268   5.811  10.863
48734SOL    HW248035   0.152   5.847  10.773
48735SOL     OW48036   0.375  14.279   3.370
48735SOL    HW148037   0.339  14.243   3.451
48735SOL    HW248038   0.339  14.223   3.301
48736SOL     OW48039   0.911  11.588   1.918
48736SOL    HW148040   0.882  11.571   2.008
48736SOL    HW248041   0.848  11.651   1.883
48737SOL     OW48042   2.306  12.646   8.659
48737SOL    HW148043   2.284  12.685   8.743
48737SOL    HW248044   2.235  12.673   8.601
48738SOL     OW48045   5.332   3.919  11.414
48738SOL    HW148046   5.322   3.826  11.436
48738SOL    HW248047   5.368   3.918  11.325
48739SOL     OW48048   4.250   8.422  11.799
48739SOL    HW148049   4.179   8.406  11.737
48739SOL    HW248050   4.209   8.414  11.885
48740SOL     OW48051  14.274   7.444   2.867
48740SOL    HW148052  14.198   7.487   2.828
48740SOL    HW248053  14.335   7.432   2.794
48741SOL     OW48054  12.364   0.255   6.600
48741SOL    HW148055  12.317   0.332   6.632
48741SOL    HW248056  12.452   0.264   6.636
48742SOL     OW48057   9.337   3.785   5.897
48742SOL    HW148058   9.330   3.857   5.834
48742SOL    HW248059   9.431   3.764   5.898
48743SOL     OW48060   1.967  10.791   3.463
48743SOL    HW148061   1.891  10.849   3.464
48743SOL    HW248062   1.938  10.715   3.412
48744SOL     OW48063  10.887   0.690   2.208
48744SOL    HW148064  10.944   0.631   2.257
48744SOL    HW248065  10.918   0.685   2.118
48745SOL     OW48066   9.293  10.894   5.661
48745SOL    HW148067   9.289  10.808   5.702
48745SOL    HW248068   9.289  10.956   5.734
48746SOL     OW48069   3.348   3.806   9.342
48746SOL    HW148070   3.363   3.765   9.258
48746SOL    HW248071   3.366   3.737   9.406
48747SOL     OW48072   0.274   5.931   6.302
48747SOL    HW148073   0.366   5.916   6.282
48747SOL    HW248074   0.228   5.909   6.222
48748SOL     OW48075  13.080   3.415   0.723
48748SOL    HW148076  13.005   3.363   0.694
48748SOL    HW248077  13.068   3.499   0.680
48749SOL     OW48078  10.445  13.627   6.707
48749SOL    HW148079  10.418  13.551   6.656
48749SOL    HW248080  10.363  13.672   6.729
48750SOL     OW48081   6.135   6.473   3.774
48750SOL    HW148082   6.089   6.556   3.762
48750SOL    HW248083   6.081   6.425   3.837
48751SOL     OW48084  13.224   7.048   0.980
48751SOL    HW148085  13.295   7.111   0.994
48751SOL    HW248086  13.244   7.008   0.895
48752SOL     OW48087   5.048   7.687   2.750
48752SOL    HW148088   5.022   7.639   2.671
48752SOL    HW248089   5.143   7.676   2.754
48753SOL     OW48090   6.160   7.793   1.974
48753SOL    HW148091   6.108   7.835   2.043
48753SOL    HW248092   6.175   7.704   2.007
48754SOL     OW48093   4.772   1.509   4.038
48754SOL    HW148094   4.743   1.573   4.103
48754SOL    HW248095   4.868   1.519   4.035
48755SOL     OW48096   5.463   8.958  11.176
48755SOL    HW148097   5.556   8.957  11.198
48755SOL    HW248098   5.461   8.989  11.085
48756SOL     OW48099  12.991   5.827  11.550
48756SOL    HW148100  13.046   5.801  11.476
48756SOL    HW248101  12.982   5.921  11.542
48757SOL     OW48102  13.119  10.758   9.363
48757SOL    HW148103  13.176  10.824   9.403
48757SOL    HW248104  13.043  10.809   9.332
48758SOL     OW48105  14.234  12.562   5.250
48758SOL    HW148106  14.270  12.591   5.166
48758SOL    HW248107  14.310  12.540   5.303
48759SOL     OW48108   7.064   4.765   2.792
48759SOL    HW148109   7.155   4.793   2.801
48759SOL    HW248110   7.050   4.756   2.698
48760SOL     OW48111   6.625   5.765  12.399
48760SOL    HW148112   6.565   5.782  12.472
48760SOL    HW248113   6.662   5.851  12.379
48761SOL     OW48114  12.434   8.702  14.150
48761SOL    HW148115  12.476   8.617  14.139
48761SOL    HW248116  12.376   8.710  14.073
48762SOL     OW48117   1.314  12.484  13.777
48762SOL    HW148118   1.395  12.479  13.828
48762SOL    HW248119   1.341  12.513  13.691
48763SOL     OW48120   7.288  10.890   0.940
48763SOL    HW148121   7.215  10.922   0.994
48763SOL    HW248122   7.250  10.819   0.888
48764SOL     OW48123   2.454   3.167   8.177
48764SOL    HW148124   2.482   3.076   8.165
48764SOL    HW248125   2.358   3.164   8.169
48765SOL     OW48126   4.774   6.764   6.305
48765SOL    HW148127   4.680   6.745   6.312
48765SOL    HW248128   4.815   6.679   6.295
48766SOL     OW48129  10.352   2.842   4.753
48766SOL    HW148130  10.409   2.906   4.710
48766SOL    HW248131  10.383   2.841   4.844
48767SOL     OW48132   0.878   4.187  13.742
48767SOL    HW148133   0.878   4.267  13.690
48767SOL    HW248134   0.970   4.160  13.745
48768SOL     OW48135   8.359  14.050   2.658
48768SOL    HW148136   8.292  13.987   2.685
48768SOL    HW248137   8.316  14.135   2.664
48769SOL     OW48138   7.702   9.665   1.711
48769SOL    HW148139   7.616   9.636   1.742
48769SOL    HW248140   7.726   9.736   1.771
48770SOL     OW48141  13.322   1.378   8.760
48770SOL    HW148142  13.360   1.319   8.695
48770SOL    HW248143  13.274   1.320   8.820
48771SOL     OW48144   6.099  10.067   4.299
48771SOL    HW148145   6.016  10.109   4.322
48771SOL    HW248146   6.165  10.119   4.345
48772SOL     OW48147   4.155   6.312   7.194
48772SOL    HW148148   4.090   6.351   7.136
48772SOL    HW248149   4.208   6.386   7.224
48773SOL     OW48150   3.636   9.920   5.775
48773SOL    HW148151   3.632   9.997   5.719
48773SOL    HW248152   3.584   9.942   5.852
48774SOL     OW48153  13.991   2.796  11.043
48774SOL    HW148154  14.083   2.773  11.057
48774SOL    HW248155  13.993   2.890  11.024
48775SOL     OW48156   0.964  13.736   1.751
48775SOL    HW148157   1.054  13.711   1.732
48775SOL    HW248158   0.911  13.690   1.686
48776SOL     OW48159   3.653  10.076   1.414
48776SOL    HW148160   3.621   9.990   1.389
48776SOL    HW248161   3.578  10.118   1.456
48777SOL     OW48162   6.739   5.264   1.230
48777SOL    HW148163   6.827   5.289   1.258
48777SOL    HW248164   6.719   5.186   1.281
48778SOL     OW48165  14.398   9.714  13.760
48778SOL    HW148166  14.372   9.782  13.822
48778SOL    HW248167  14.443   9.648  13.814
48779SOL     OW48168   8.231   1.177  13.973
48779SOL    HW148169   8.319   1.193  14.006
48779SOL    HW248170   8.215   1.247  13.911
48780SOL     OW48171  11.693   8.202   8.049
48780SOL    HW148172  11.785   8.187   8.070
48780SOL    HW248173  11.694   8.236   7.959
48781SOL     OW48174  14.867  12.062   1.360
48781SOL    HW148175   0.011  12.016   1.440
48781SOL    HW248176   0.036  12.142   1.361
48782SOL     OW48177  10.731   5.350   5.629
48782SOL    HW148178  10.763   5.363   5.718
48782SOL    HW248179  10.651   5.402   5.624
48783SOL     OW48180   7.902   0.440   5.809
48783SOL    HW148181   7.865   0.425   5.721
48783SOL    HW248182   7.944   0.526   5.803
48784SOL     OW48183   6.497   6.689   9.347
48784SOL    HW148184   6.551   6.688   9.426
48784SOL    HW248185   6.422   6.633   9.368
48785SOL     OW48186   9.177  13.774   1.270
48785SOL    HW148187   9.158  13.698   1.215
48785SOL    HW248188   9.092  13.810   1.292
48786SOL     OW48189  11.372   8.578  12.372
48786SOL    HW148190  11.434   8.618  12.310
48786SOL    HW248191  11.392   8.621  12.455
48787SOL     OW48192   4.666   8.861   0.374
48787SOL    HW148193   4.757   8.837   0.356
48787SOL    HW248194   4.671   8.953   0.401
48788SOL     OW48195  11.267  10.516  12.151
48788SOL    HW148196  11.343  10.459  12.135
48788SOL    HW248197  11.259  10.568  12.072
48789SOL     OW48198  12.873   5.851   8.306
48789SOL    HW148199  12.816   5.915   8.263
48789SOL    HW248200  12.822   5.771   8.307
48790SOL     OW48201   2.406   3.774   0.993
48790SOL    HW148202   2.409   3.724   1.075
48790SOL    HW248203   2.354   3.851   1.015
48791SOL     OW48204   8.420   5.401  14.070
48791SOL    HW148205   8.515   5.408  14.064
48791SOL    HW248206   8.395   5.349  13.994
48792SOL     OW48207   6.477   4.072  12.808
48792SOL    HW148208   6.479   4.084  12.713
48792SOL    HW248209   6.532   4.142  12.842
48793SOL     OW48210  11.123  14.118   6.077
48793SOL    HW148211  11.040  14.079   6.106
48793SOL    HW248212  11.099  14.207   6.051
48794SOL     OW48213   0.812   9.061  13.358
48794SOL    HW148214   0.887   9.037  13.303
48794SOL    HW248215   0.828   9.152  13.382
48795SOL     OW48216  14.185   2.818   2.344
48795SOL    HW148217  14.278   2.815   2.369
48795SOL    HW248218  14.173   2.739   2.290
48796SOL     OW48219   2.011   9.464  14.641
48796SOL    HW148220   1.955   9.440  14.568
48796SOL    HW248221   2.098   9.477  14.602
48797SOL     OW48222  13.793   6.193  13.259
48797SOL    HW148223  13.734   6.216  13.188
48797SOL    HW248224  13.739   6.146  13.322
48798SOL     OW48225   3.580   7.673  10.715
48798SOL    HW148226   3.497   7.637  10.685
48798SOL    HW248227   3.577   7.765  10.689
48799SOL     OW48228   0.473   7.343   8.052
48799SOL    HW148229   0.514   7.360   7.967
48799SOL    HW248230   0.544   7.309   8.107
48800SOL     OW48231  10.909  13.459   6.362
48800SOL    HW148232  10.952  13.543   6.347
48800SOL    HW248233  10.861  13.470   6.444
48801SOL     OW48234   1.853   4.210  10.090
48801SOL    HW148235   1.921   4.179  10.149
48801SOL    HW248236   1.857   4.150  10.015
48802SOL     OW48237   3.335   9.749   7.778
48802SOL    HW148238   3.384   9.760   7.696
48802SOL    HW248239   3.263   9.689   7.756
48803SOL     OW48240  11.171  14.754   2.271
48803SOL    HW148241  11.142  14.701   2.197
48803SOL    HW248242  11.210  14.692   2.332
48804SOL     OW48243  11.465   6.913  14.863
48804SOL    HW148244  11.455   6.851  14.791
48804SOL    HW248245  11.397   6.979  14.847
48805SOL     OW48246   2.644  10.657  11.762
48805SOL    HW148247   2.666  10.567  11.784
48805SOL    HW248248   2.660  10.706  11.842
48806SOL     OW48249   7.793   0.363   8.108
48806SOL    HW148250   7.761   0.331   8.193
48806SOL    HW248251   7.729   0.429   8.082
48807SOL     OW48252   5.915  12.846   4.386
48807SOL    HW148253   5.896  12.917   4.448
48807SOL    HW248254   6.010  12.836   4.389
48808SOL     OW48255   7.212  11.927   9.989
48808SOL    HW148256   7.168  11.947  10.071
48808SOL    HW248257   7.301  11.962  10.000
48809SOL     OW48258   9.726  10.228   8.750
48809SOL    HW148259   9.744  10.282   8.673
48809SOL    HW248260   9.780  10.150   8.738
48810SOL     OW48261   8.329   4.721   8.818
48810SOL    HW148262   8.329   4.767   8.734
48810SOL    HW248263   8.328   4.628   8.795
48811SOL     OW48264   8.028   8.985   0.785
48811SOL    HW148265   7.961   8.944   0.731
48811SOL    HW248266   8.090   9.023   0.723
48812SOL     OW48267   1.282   2.530  10.489
48812SOL    HW148268   1.269   2.621  10.461
48812SOL    HW248269   1.369   2.530  10.529
48813SOL     OW48270   2.703  13.386   8.503
48813SOL    HW148271   2.645  13.437   8.559
48813SOL    HW248272   2.645  13.330   8.452
48814SOL     OW48273   5.991  11.002  11.501
48814SOL    HW148274   5.945  11.062  11.559
48814SOL    HW248275   6.084  11.025  11.511
48815SOL     OW48276   2.292   8.832  14.805
48815SOL    HW148277   2.201   8.802  14.797
48815SOL    HW248278   2.285   8.924  14.830
48816SOL     OW48279   5.361  10.465  13.337
48816SOL    HW148280   5.313  10.390  13.371
48816SOL    HW248281   5.326  10.478  13.249
48817SOL     OW48282  12.626   1.840   6.774
48817SOL    HW148283  12.598   1.910   6.716
48817SOL    HW248284  12.547   1.816   6.822
48818SOL     OW48285   8.980  14.290   6.829
48818SOL    HW148286   9.040  14.312   6.757
48818SOL    HW248287   9.019  14.331   6.906
48819SOL     OW48288   2.161  10.177   6.824
48819SOL    HW148289   2.121  10.157   6.739
48819SOL    HW248290   2.250  10.205   6.802
48820SOL     OW48291   0.512   7.735  13.117
48820SOL    HW148292   0.572   7.722  13.191
48820SOL    HW248293   0.427   7.752  13.157
48821SOL     OW48294   5.045   5.002  13.564
48821SOL    HW148295   4.985   5.020  13.636
48821SOL    HW248296   5.030   5.073  13.502
48822SOL     OW48297   5.408   7.602   3.404
48822SOL    HW148298   5.327   7.608   3.455
48822SOL    HW248299   5.439   7.693   3.399
48823SOL     OW48300   6.494   3.294  11.924
48823SOL    HW148301   6.490   3.321  11.832
48823SOL    HW248302   6.444   3.213  11.927
48824SOL     OW48303   4.358  11.425   5.982
48824SOL    HW148304   4.415  11.359   5.943
48824SOL    HW248305   4.269  11.390   5.968
48825SOL     OW48306   4.391   4.819   4.350
48825SOL    HW148307   4.428   4.874   4.420
48825SOL    HW248308   4.418   4.862   4.269
48826SOL     OW48309   4.981   7.025  14.034
48826SOL    HW148310   5.018   7.076  14.106
48826SOL    HW248311   5.042   6.953  14.021
48827SOL     OW48312   5.647  13.718  11.668
48827SOL    HW148313   5.634  13.784  11.736
48827SOL    HW248314   5.580  13.738  11.602
48828SOL     OW48315  11.557   8.644   6.625
48828SOL    HW148316  11.629   8.585   6.602
48828SOL    HW248317  11.510   8.659   6.543
48829SOL     OW48318   3.142   5.076   6.658
48829SOL    HW148319   3.068   5.034   6.703
48829SOL    HW248320   3.129   5.054   6.566
48830SOL     OW48321  10.044   4.570   3.803
48830SOL    HW148322  10.073   4.556   3.894
48830SOL    HW248323  10.067   4.660   3.784
48831SOL     OW48324   3.838   0.238  12.771
48831SOL    HW148325   3.930   0.214  12.766
48831SOL    HW248326   3.793   0.176  12.713
48832SOL     OW48327  12.087   0.185   4.399
48832SOL    HW148328  12.156   0.126   4.366
48832SOL    HW248329  12.131   0.269   4.411
48833SOL     OW48330  12.092  14.405  13.738
48833SOL    HW148331  12.138  14.445  13.812
48833SOL    HW248332  12.067  14.318  13.771
48834SOL     OW48333   5.249   6.064   0.401
48834SOL    HW148334   5.168   6.064   0.349
48834SOL    HW248335   5.319   6.052   0.337
48835SOL     OW48336   2.477  12.679  10.755
48835SOL    HW148337   2.484  12.760  10.806
48835SOL    HW248338   2.465  12.610  10.820
48836SOL     OW48339   3.127   9.727   5.617
48836SOL    HW148340   3.057   9.663   5.607
48836SOL    HW248341   3.114   9.788   5.545
48837SOL     OW48342  13.137   2.651   3.654
48837SOL    HW148343  13.158   2.665   3.562
48837SOL    HW248344  13.130   2.556   3.663
48838SOL     OW48345  11.899   7.445   8.443
48838SOL    HW148346  11.852   7.499   8.507
48838SOL    HW248347  11.992   7.457   8.465
48839SOL     OW48348   4.658  11.306  14.675
48839SOL    HW148349   4.582  11.350  14.635
48839SOL    HW248350   4.640  11.309  14.769
48840SOL     OW48351   3.301   5.382   9.423
48840SOL    HW148352   3.395   5.365   9.432
48840SOL    HW248353   3.272   5.401   9.513
48841SOL     OW48354  11.084  11.918   3.356
48841SOL    HW148355  11.139  11.842   3.337
48841SOL    HW248356  11.133  11.992   3.321
48842SOL     OW48357   7.018   1.476  12.275
48842SOL    HW148358   6.979   1.487  12.188
48842SOL    HW248359   7.110   1.459  12.257
48843SOL     OW48360   4.162   5.508   9.030
48843SOL    HW148361   4.224   5.491   9.101
48843SOL    HW248362   4.198   5.462   8.954
48844SOL     OW48363  11.272   1.425   2.538
48844SOL    HW148364  11.330   1.418   2.614
48844SOL    HW248365  11.330   1.450   2.466
48845SOL     OW48366  10.717   6.235   7.456
48845SOL    HW148367  10.738   6.327   7.471
48845SOL    HW248368  10.670   6.207   7.534
48846SOL     OW48369   1.183   9.664   0.215
48846SOL    HW148370   1.239   9.626   0.147
48846SOL    HW248371   1.217   9.628   0.297
48847SOL     OW48372   9.553   5.969   5.743
48847SOL    HW148373   9.483   5.915   5.779
48847SOL    HW248374   9.612   5.984   5.818
48848SOL     OW48375   9.762   7.859   8.127
48848SOL    HW148376   9.683   7.913   8.136
48848SOL    HW248377   9.823   7.914   8.079
48849SOL     OW48378   4.675   5.077   0.411
48849SOL    HW148379   4.690   4.986   0.438
48849SOL    HW248380   4.600   5.105   0.464
48850SOL     OW48381   2.474  14.828  14.064
48850SOL    HW148382   2.520   0.007  14.122
48850SOL    HW248383   2.438  14.761  14.122
48851SOL     OW48384   0.361   4.142  10.036
48851SOL    HW148385   0.400   4.057  10.058
48851SOL    HW248386   0.267   4.129  10.048
48852SOL     OW48387  12.093  11.730   3.643
48852SOL    HW148388  12.164  11.777   3.598
48852SOL    HW248389  12.138  11.676   3.708
48853SOL     OW48390   1.038   9.953   8.702
48853SOL    HW148391   1.123   9.963   8.743
48853SOL    HW248392   1.056   9.956   8.608
48854SOL     OW48393  14.796   7.734   4.702
48854SOL    HW148394  14.875   7.701   4.745
48854SOL    HW248395  14.804   7.705   4.611
48855SOL     OW48396   7.173  14.133   7.250
48855SOL    HW148397   7.236  14.081   7.301
48855SOL    HW248398   7.155  14.080   7.173
48856SOL     OW48399   5.065   2.555   0.498
48856SOL    HW148400   4.974   2.582   0.506
48856SOL    HW248401   5.086   2.568   0.406
48857SOL     OW48402  14.684  11.891   8.361
48857SOL    HW148403  14.655  11.891   8.452
48857SOL    HW248404  14.714  11.801   8.345
48858SOL     OW48405   8.198   8.400  11.999
48858SOL    HW148406   8.287   8.428  12.018
48858SOL    HW248407   8.170   8.353  12.078
48859SOL     OW48408  12.302   0.463   5.329
48859SOL    HW148409  12.244   0.539   5.326
48859SOL    HW248410  12.321   0.451   5.422
48860SOL     OW48411   5.626   9.304  11.388
48860SOL    HW148412   5.540   9.268  11.410
48860SOL    HW248413   5.679   9.286  11.466
48861SOL     OW48414  13.616  11.676   2.984
48861SOL    HW148415  13.665  11.639   3.058
48861SOL    HW248416  13.581  11.600   2.938
48862SOL     OW48417   9.102  10.184   1.098
48862SOL    HW148418   9.027  10.217   1.148
48862SOL    HW248419   9.120  10.098   1.135
48863SOL     OW48420   0.584   2.770   6.950
48863SOL    HW148421   0.595   2.817   6.867
48863SOL    HW248422   0.619   2.683   6.934
48864SOL     OW48423   4.306   8.866  11.504
48864SOL    HW148424   4.368   8.893  11.436
48864SOL    HW248425   4.288   8.946  11.553
48865SOL     OW48426   0.082   1.136  14.014
48865SOL    HW148427  14.876   1.166  14.035
48865SOL    HW248428   0.137   1.170  14.085
48866SOL     OW48429   5.778   1.056  10.511
48866SOL    HW148430   5.822   1.117  10.569
48866SOL    HW248431   5.752   0.983  10.567
48867SOL     OW48432  13.413   6.508  10.163
48867SOL    HW148433  13.470   6.497  10.087
48867SOL    HW248434  13.349   6.436  10.155
48868SOL     OW48435   1.377   7.863   6.551
48868SOL    HW148436   1.450   7.811   6.519
48868SOL    HW248437   1.362   7.929   6.482
48869SOL     OW48438  11.236   5.719   9.555
48869SOL    HW148439  11.244   5.728   9.650
48869SOL    HW248440  11.168   5.652   9.543
48870SOL     OW48441   7.309  11.630  11.415
48870SOL    HW148442   7.317  11.597  11.325
48870SOL    HW248443   7.395  11.668  11.434
48871SOL     OW48444   7.343  11.204   2.848
48871SOL    HW148445   7.297  11.287   2.856
48871SOL    HW248446   7.344  11.186   2.754
48872SOL     OW48447   3.690   1.393  10.561
48872SOL    HW148448   3.735   1.321  10.604
48872SOL    HW248449   3.666   1.452  10.632
48873SOL     OW48450   0.054   9.871   6.935
48873SOL    HW148451   0.109   9.809   6.886
48873SOL    HW248452  14.879   9.908   6.868
48874SOL     OW48453  14.112   9.184   7.675
48874SOL    HW148454  14.046   9.250   7.656
48874SOL    HW248455  14.103   9.120   7.604
48875SOL     OW48456   7.381   9.002   0.184
48875SOL    HW148457   7.306   8.985   0.127
48875SOL    HW248458   7.445   9.043   0.127
48876SOL     OW48459   0.232   4.470   7.828
48876SOL    HW148460   0.216   4.564   7.833
48876SOL    HW248461   0.150   4.430   7.856
48877SOL     OW48462  13.172   7.952   0.020
48877SOL    HW148463  13.187   8.003  14.823
48877SOL    HW248464  13.076   7.950   0.029
48878SOL     OW48465   2.741   9.207   8.716
48878SOL    HW148466   2.832   9.186   8.738
48878SOL    HW248467   2.737   9.201   8.621
48879SOL     OW48468   7.147  13.942   2.562
48879SOL    HW148469   7.123  13.953   2.470
48879SOL    HW248470   7.232  13.898   2.559
48880SOL     OW48471  13.210   2.811   1.378
48880SOL    HW148472  13.126   2.768   1.394
48880SOL    HW248473  13.269   2.776   1.445
48881SOL     OW48474   6.083  12.879   2.789
48881SOL    HW148475   6.175  12.905   2.784
48881SOL    HW248476   6.084  12.794   2.833
48882SOL     OW48477   6.936  13.664   6.116
48882SOL    HW148478   6.886  13.641   6.038
48882SOL    HW248479   7.013  13.606   6.113
48883SOL     OW48480   5.750  13.811   0.502
48883SOL    HW148481   5.657  13.803   0.524
48883SOL    HW248482   5.794  13.822   0.586
48884SOL     OW48483   8.956   1.197   1.486
48884SOL    HW148484   9.050   1.187   1.499
48884SOL    HW248485   8.918   1.193   1.573
48885SOL     OW48486   9.254  14.546   0.471
48885SOL    HW148487   9.274  14.527   0.379
48885SOL    HW248488   9.254  14.461   0.514
48886SOL     OW48489   7.152   2.390   9.905
48886SOL    HW148490   7.210   2.376   9.979
48886SOL    HW248491   7.090   2.317   9.908
48887SOL     OW48492   1.062   1.634  13.943
48887SOL    HW148493   1.071   1.695  13.871
48887SOL    HW248494   1.120   1.669  14.011
48888SOL     OW48495  11.957   7.927   5.136
48888SOL    HW148496  11.901   7.916   5.059
48888SOL    HW248497  12.041   7.955   5.102
48889SOL     OW48498  11.677   6.767   5.701
48889SOL    HW148499  11.618   6.700   5.667
48889SOL    HW248500  11.765   6.730   5.692
48890SOL     OW48501   8.044  11.244  12.822
48890SOL    HW148502   8.129  11.249  12.779
48890SOL    HW248503   8.056  11.290  12.905
48891SOL     OW48504   9.468   4.491   6.214
48891SOL    HW148505   9.535   4.434   6.174
48891SOL    HW248506   9.475   4.473   6.308
48892SOL     OW48507  12.639   4.640   0.759
48892SOL    HW148508  12.671   4.721   0.797
48892SOL    HW248509  12.615   4.663   0.670
48893SOL     OW48510   5.276   6.366   5.461
48893SOL    HW148511   5.231   6.388   5.379
48893SOL    HW248512   5.288   6.271   5.457
48894SOL     OW48513   0.977   0.297   0.930
48894SOL    HW148514   0.984   0.299   1.025
48894SOL    HW248515   0.888   0.327   0.912
48895SOL     OW48516   1.541  10.588   4.614
48895SOL    HW148517   1.595  10.549   4.545
48895SOL    HW248518   1.548  10.682   4.600
48896SOL     OW48519   3.461   4.826   9.492
48896SOL    HW148520   3.508   4.750   9.527
48896SOL    HW248521   3.507   4.849   9.412
48897SOL     OW48522   6.284  12.864   3.744
48897SOL    HW148523   6.361  12.809   3.726
48897SOL    HW248524   6.279  12.868   3.839
48898SOL     OW48525   7.082   8.665  14.060
48898SOL    HW148526   7.006   8.663  14.119
48898SOL    HW248527   7.075   8.750  14.016
48899SOL     OW48528   8.175   2.120   1.632
48899SOL    HW148529   8.262   2.093   1.600
48899SOL    HW248530   8.186   2.126   1.727
48900SOL     OW48531   0.470   8.627  12.594
48900SOL    HW148532   0.559   8.591  12.598
48900SOL    HW248533   0.449   8.648  12.685
48901SOL     OW48534   7.886   0.060   3.250
48901SOL    HW148535   7.932   0.081   3.169
48901SOL    HW248536   7.912  14.852   3.270
48902SOL     OW48537   8.792   2.122  10.832
48902SOL    HW148538   8.730   2.192  10.852
48902SOL    HW248539   8.872   2.147  10.879
48903SOL     OW48540   6.134   4.719   2.298
48903SOL    HW148541   6.105   4.720   2.389
48903SOL    HW248542   6.168   4.630   2.285
48904SOL     OW48543  13.613   9.653   4.418
48904SOL    HW148544  13.528   9.615   4.439
48904SOL    HW248545  13.675   9.603   4.471
48905SOL     OW48546   1.350   8.520  13.722
48905SOL    HW148547   1.407   8.557  13.791
48905SOL    HW248548   1.334   8.594  13.663
48906SOL     OW48549   8.452   6.449   3.397
48906SOL    HW148550   8.432   6.460   3.304
48906SOL    HW248551   8.521   6.383   3.399
48907SOL     OW48552   4.800   1.690  12.883
48907SOL    HW148553   4.776   1.746  12.957
48907SOL    HW248554   4.737   1.711  12.815
48908SOL     OW48555   4.557  13.810   7.367
48908SOL    HW148556   4.514  13.849   7.291
48908SOL    HW248557   4.504  13.839   7.442
48909SOL     OW48558   6.275   4.578   8.819
48909SOL    HW148559   6.352   4.585   8.763
48909SOL    HW248560   6.222   4.654   8.797
48910SOL     OW48561  14.291   9.287   8.949
48910SOL    HW148562  14.202   9.260   8.973
48910SOL    HW248563  14.279   9.358   8.887
48911SOL     OW48564  13.015   7.837   9.844
48911SOL    HW148565  12.975   7.751   9.857
48911SOL    HW248566  13.061   7.855   9.926
48912SOL     OW48567  14.515  13.501  13.419
48912SOL    HW148568  14.503  13.425  13.476
48912SOL    HW248569  14.473  13.573  13.466
48913SOL     OW48570   9.331  10.789   6.210
48913SOL    HW148571   9.363  10.726   6.146
48913SOL    HW248572   9.379  10.770   6.290
48914SOL     OW48573   5.652   2.357  13.073
48914SOL    HW148574   5.578   2.395  13.027
48914SOL    HW248575   5.704   2.314  13.004
48915SOL     OW48576   0.144   2.144   0.276
48915SOL    HW148577   0.114   2.059   0.309
48915SOL    HW248578   0.161   2.129   0.183
48916SOL     OW48579   9.104   9.301   8.335
48916SOL    HW148580   9.162   9.319   8.408
48916SOL    HW248581   9.130   9.363   8.267
48917SOL     OW48582   0.690  14.451  12.435
48917SOL    HW148583   0.656  14.445  12.346
48917SOL    HW248584   0.672  14.541  12.462
48918SOL     OW48585  11.129   0.712   1.743
48918SOL    HW148586  11.111   0.633   1.693
48918SOL    HW248587  11.201   0.754   1.696
48919SOL     OW48588   0.136   7.699   5.774
48919SOL    HW148589   0.061   7.710   5.832
48919SOL    HW248590   0.204   7.755   5.812
48920SOL     OW48591   2.656   4.213   8.349
48920SOL    HW148592   2.636   4.287   8.292
48920SOL    HW248593   2.570   4.181   8.377
48921SOL     OW48594   2.687  12.693  13.359
48921SOL    HW148595   2.604  12.712  13.403
48921SOL    HW248596   2.715  12.777  13.323
48922SOL     OW48597   8.291  11.780   5.154
48922SOL    HW148598   8.294  11.751   5.063
48922SOL    HW248599   8.339  11.713   5.202
48923SOL     OW48600   0.376   3.358   4.787
48923SOL    HW148601   0.371   3.364   4.882
48923SOL    HW248602   0.365   3.448   4.757
48924SOL     OW48603   9.593   0.984   9.699
48924SOL    HW148604   9.651   0.933   9.643
48924SOL    HW248605   9.518   1.005   9.644
48925SOL     OW48606   4.603   4.328   3.822
48925SOL    HW148607   4.639   4.240   3.814
48925SOL    HW248608   4.557   4.328   3.906
48926SOL     OW48609   8.848  11.233   0.193
48926SOL    HW148610   8.909  11.171   0.155
48926SOL    HW248611   8.819  11.191   0.274
48927SOL     OW48612   3.291   9.825   1.486
48927SOL    HW148613   3.250   9.751   1.530
48927SOL    HW248614   3.327   9.878   1.557
48928SOL     OW48615   5.626  10.275  10.763
48928SOL    HW148616   5.650  10.186  10.739
48928SOL    HW248617   5.671  10.330  10.699
48929SOL     OW48618  12.492   1.834  10.552
48929SOL    HW148619  12.469   1.741  10.557
48929SOL    HW248620  12.432   1.870  10.487
48930SOL     OW48621  11.367   7.361   8.894
48930SOL    HW148622  11.451   7.317   8.876
48930SOL    HW248623  11.344   7.332   8.982
48931SOL     OW48624  10.906  10.507   3.986
48931SOL    HW148625  10.837  10.570   3.968
48931SOL    HW248626  10.910  10.453   3.907
48932SOL     OW48627   4.054   4.759   0.075
48932SOL    HW148628   4.006   4.822   0.129
48932SOL    HW248629   4.145   4.789   0.079
48933SOL     OW48630   4.010   5.667   6.006
48933SOL    HW148631   4.014   5.762   6.020
48933SOL    HW248632   4.072   5.632   6.070
48934SOL     OW48633   7.071   8.932  12.401
48934SOL    HW148634   7.004   8.904  12.463
48934SOL    HW248635   7.024   8.991  12.341
48935SOL     OW48636   8.040  13.280   9.394
48935SOL    HW148637   8.084  13.228   9.460
48935SOL    HW248638   8.092  13.268   9.315
48936SOL     OW48639   7.503   5.619   1.336
48936SOL    HW148640   7.454   5.615   1.254
48936SOL    HW248641   7.560   5.696   1.327
48937SOL     OW48642   4.726   8.739   5.454
48937SOL    HW148643   4.655   8.786   5.411
48937SOL    HW248644   4.801   8.799   5.451
48938SOL     OW48645   7.163   0.003  10.376
48938SOL    HW148646   7.081  14.846  10.346
48938SOL    HW248647   7.230  14.821  10.351
48939SOL     OW48648   3.772   9.808   3.501
48939SOL    HW148649   3.721   9.822   3.422
48939SOL    HW248650   3.848   9.758   3.472
48940SOL     OW48651   9.287  13.292   0.990
48940SOL    HW148652   9.294  13.246   0.906
48940SOL    HW248653   9.377  13.313   1.014
48941SOL     OW48654  10.035   0.782   4.698
48941SOL    HW148655  10.047   0.700   4.651
48941SOL    HW248656   9.979   0.759   4.773
48942SOL     OW48657   5.800   6.938   9.642
48942SOL    HW148658   5.732   6.927   9.709
48942SOL    HW248659   5.818   7.032   9.642
48943SOL     OW48660   9.131   2.819  13.910
48943SOL    HW148661   9.223   2.843  13.911
48943SOL    HW248662   9.127   2.738  13.961
48944SOL     OW48663   5.958  10.248   7.601
48944SOL    HW148664   6.006  10.285   7.527
48944SOL    HW248665   6.005  10.167   7.622
48945SOL     OW48666   2.509   1.616  13.672
48945SOL    HW148667   2.596   1.579  13.661
48945SOL    HW248668   2.518   1.680  13.742
48946SOL     OW48669   3.638   1.183   4.310
48946SOL    HW148670   3.641   1.163   4.404
48946SOL    HW248671   3.574   1.255   4.304
48947SOL     OW48672   8.582  10.411  14.491
48947SOL    HW148673   8.527  10.447  14.422
48947SOL    HW248674   8.642  10.482  14.513
48948SOL     OW48675   1.020  11.128   1.664
48948SOL    HW148676   1.000  11.221   1.667
48948SOL    HW248677   0.951  11.091   1.609
48949SOL     OW48678  11.731   0.224   9.308
48949SOL    HW148679  11.678   0.294   9.346
48949SOL    HW248680  11.758   0.171   9.383
48950SOL     OW48681   4.798   4.920   6.103
48950SOL    HW148682   4.746   4.968   6.167
48950SOL    HW248683   4.733   4.877   6.047
48951SOL     OW48684   0.744   8.168  14.606
48951SOL    HW148685   0.723   8.077  14.629
48951SOL    HW248686   0.658   8.210  14.598
48952SOL     OW48687   8.879   9.310   1.119
48952SOL    HW148688   8.895   9.335   1.028
48952SOL    HW248689   8.964   9.320   1.161
48953SOL     OW48690   7.372   9.484   9.382
48953SOL    HW148691   7.283   9.453   9.393
48953SOL    HW248692   7.426   9.405   9.386
48954SOL     OW48693   4.252  12.237   7.715
48954SOL    HW148694   4.335  12.241   7.762
48954SOL    HW248695   4.185  12.251   7.782
48955SOL     OW48696  12.502  12.762   2.144
48955SOL    HW148697  12.508  12.702   2.218
48955SOL    HW248698  12.412  12.792   2.144
48956SOL     OW48699   9.605   6.745   7.952
48956SOL    HW148700   9.691   6.739   7.994
48956SOL    HW248701   9.568   6.657   7.961
48957SOL     OW48702   9.560   1.660   6.060
48957SOL    HW148703   9.507   1.740   6.062
48957SOL    HW248704   9.497   1.590   6.045
48958SOL     OW48705  10.144   2.801  13.956
48958SOL    HW148706  10.206   2.799  13.883
48958SOL    HW248707  10.161   2.884  14.000
48959SOL     OW48708   4.580   3.133   0.135
48959SOL    HW148709   4.658   3.137   0.190
48959SOL    HW248710   4.569   3.222   0.102
48960SOL     OW48711  13.366   4.902   0.811
48960SOL    HW148712  13.388   4.812   0.787
48960SOL    HW248713  13.394   4.954   0.736
48961SOL     OW48714   5.274   8.646   5.860
48961SOL    HW148715   5.276   8.610   5.949
48961SOL    HW248716   5.365   8.668   5.841
48962SOL     OW48717  10.605   7.316   2.931
48962SOL    HW148718  10.541   7.301   3.001
48962SOL    HW248719  10.589   7.407   2.903
48963SOL     OW48720  12.438   4.872   6.810
48963SOL    HW148721  12.355   4.825   6.819
48963SOL    HW248722  12.490   4.817   6.751
48964SOL     OW48723  12.224  13.036  11.974
48964SOL    HW148724  12.290  13.049  12.043
48964SOL    HW248725  12.158  13.103  11.992
48965SOL     OW48726   5.635   5.600   9.888
48965SOL    HW148727   5.651   5.511   9.859
48965SOL    HW248728   5.576   5.591   9.963
48966SOL     OW48729   2.104  14.441  11.448
48966SOL    HW148730   2.065  14.434  11.361
48966SOL    HW248731   2.075  14.526  11.481
48967SOL     OW48732  13.884  12.547  14.809
48967SOL    HW148733  13.925  12.574   0.009
48967SOL    HW248734  13.807  12.497  14.836
48968SOL     OW48735  11.819   1.598  10.825
48968SOL    HW148736  11.749   1.663  10.826
48968SOL    HW248737  11.796   1.539  10.753
48969SOL     OW48738  11.265  13.272  12.371
48969SOL    HW148739  11.171  13.284  12.357
48969SOL    HW248740  11.303  13.358  12.352
48970SOL     OW48741   3.136   5.938   2.097
48970SOL    HW148742   3.097   6.025   2.087
48970SOL    HW248743   3.112   5.910   2.185
48971SOL     OW48744   7.359   0.146   6.512
48971SOL    HW148745   7.345   0.154   6.417
48971SOL    HW248746   7.454   0.142   6.522
48972SOL     OW48747   4.317   7.332  14.376
48972SOL    HW148748   4.302   7.347  14.469
48972SOL    HW248749   4.381   7.261  14.373
48973SOL     OW48750   9.554  11.811   8.175
48973SOL    HW148751   9.555  11.789   8.081
48973SOL    HW248752   9.474  11.861   8.188
48974SOL     OW48753   3.681  14.737   0.508
48974SOL    HW148754   3.637  14.806   0.457
48974SOL    HW248755   3.644  14.747   0.596
48975SOL     OW48756   4.758   5.237  11.407
48975SOL    HW148757   4.739   5.328  11.431
48975SOL    HW248758   4.690   5.214  11.345
48976SOL     OW48759  12.072   5.704  14.366
48976SOL    HW148760  12.083   5.622  14.414
48976SOL    HW248761  12.111   5.687  14.280
48977SOL     OW48762   5.011   5.165   6.996
48977SOL    HW148763   4.921   5.196   6.987
48977SOL    HW248764   5.059   5.205   6.923
48978SOL     OW48765  11.326   2.932  10.183
48978SOL    HW148766  11.304   2.953  10.274
48978SOL    HW248767  11.420   2.945  10.177
48979SOL     OW48768  12.974   6.405  10.169
48979SOL    HW148769  12.934   6.484  10.133
48979SOL    HW248770  12.902   6.358  10.210
48980SOL     OW48771   8.276   9.709  12.597
48980SOL    HW148772   8.355   9.683  12.644
48980SOL    HW248773   8.237   9.627  12.568
48981SOL     OW48774   9.513   4.248   9.802
48981SOL    HW148775   9.609   4.244   9.794
48981SOL    HW248776   9.497   4.321   9.860
48982SOL     OW48777  12.435   5.250  11.489
48982SOL    HW148778  12.463   5.216  11.403
48982SOL    HW248779  12.474   5.337  11.494
48983SOL     OW48780   3.659   7.428  10.513
48983SOL    HW148781   3.733   7.372  10.537
48983SOL    HW248782   3.684   7.515  10.544
48984SOL     OW48783   3.404   1.637   3.780
48984SOL    HW148784   3.433   1.617   3.869
48984SOL    HW248785   3.394   1.732   3.778
48985SOL     OW48786   0.714  10.523   2.234
48985SOL    HW148787   0.654  10.596   2.221
48985SOL    HW248788   0.801  10.561   2.227
48986SOL     OW48789  11.566   8.146   7.235
48986SOL    HW148790  11.476   8.172   7.255
48986SOL    HW248791  11.618   8.180   7.308
48987SOL     OW48792  13.894  11.207   3.640
48987SOL    HW148793  13.850  11.153   3.705
48987SOL    HW248794  13.947  11.269   3.691
48988SOL     OW48795  12.227  10.276   8.158
48988SOL    HW148796  12.272  10.218   8.219
48988SOL    HW248797  12.224  10.360   8.203
48989SOL     OW48798   0.352   3.513  10.727
48989SOL    HW148799   0.434   3.511  10.678
48989SOL    HW248800   0.343   3.424  10.761
48990SOL     OW48801   2.513   9.500   7.401
48990SOL    HW148802   2.489   9.579   7.450
48990SOL    HW248803   2.546   9.533   7.317
48991SOL     OW48804   1.849  13.598   4.882
48991SOL    HW148805   1.862  13.513   4.841
48991SOL    HW248806   1.919  13.653   4.847
48992SOL     OW48807   7.475  14.282   2.987
48992SOL    HW148808   7.460  14.232   3.067
48992SOL    HW248809   7.454  14.373   3.011
48993SOL     OW48810   2.257   1.111   3.170
48993SOL    HW148811   2.272   1.108   3.075
48993SOL    HW248812   2.262   1.204   3.191
48994SOL     OW48813   3.565   0.903  10.741
48994SOL    HW148814   3.597   0.922  10.653
48994SOL    HW248815   3.473   0.879  10.728
48995SOL     OW48816   8.566   8.866   8.133
48995SOL    HW148817   8.554   8.828   8.220
48995SOL    HW248818   8.525   8.953   8.139
48996SOL     OW48819   6.347   9.607   5.973
48996SOL    HW148820   6.380   9.676   6.030
48996SOL    HW248821   6.356   9.642   5.884
48997SOL     OW48822  10.168  12.397   0.342
48997SOL    HW148823  10.191  12.415   0.250
48997SOL    HW248824  10.085  12.441   0.355
48998SOL     OW48825   8.559   6.400   1.032
48998SOL    HW148826   8.587   6.324   1.083
48998SOL    HW248827   8.487   6.367   0.978
48999SOL     OW48828   8.275   9.611   1.164
48999SOL    HW148829   8.257   9.517   1.170
48999SOL    HW248830   8.193   9.653   1.191
49000SOL     OW48831  13.153   1.681  10.712
49000SOL    HW148832  13.110   1.723  10.787
49000SOL    HW248833  13.220   1.626  10.752
49001SOL     OW48834   3.927   3.209   5.844
49001SOL    HW148835   3.947   3.303   5.844
49001SOL    HW248836   3.835   3.204   5.868
49002SOL     OW48837  12.365   0.801   2.164
49002SOL    HW148838  12.316   0.791   2.245
49002SOL    HW248839  12.327   0.736   2.105
49003SOL     OW48840   2.854   7.134  11.230
49003SOL    HW148841   2.910   7.079  11.284
49003SOL    HW248842   2.790   7.170  11.291
49004SOL     OW48843   1.253  11.419  10.676
49004SOL    HW148844   1.265  11.325  10.689
49004SOL    HW248845   1.176  11.425  10.620
49005SOL     OW48846  13.785   0.766   3.342
49005SOL    HW148847  13.704   0.815   3.352
49005SOL    HW248848  13.847   0.810   3.400
49006SOL     OW48849  13.393  12.743   2.800
49006SOL    HW148850  13.483  12.763   2.774
49006SOL    HW248851  13.345  12.824   2.786
49007SOL     OW48852   0.811  10.303  13.467
49007SOL    HW148853   0.755  10.291  13.544
49007SOL    HW248854   0.752  10.338  13.400
49008SOL     OW48855   1.564  14.185   7.878
49008SOL    HW148856   1.599  14.272   7.895
49008SOL    HW248857   1.519  14.160   7.959
49009SOL     OW48858  14.288   2.472  14.074
49009SOL    HW148859  14.199   2.506  14.064
49009SOL    HW248860  14.284   2.383  14.039
49010SOL     OW48861   2.057   4.399   8.907
49010SOL    HW148862   2.069   4.458   8.981
49010SOL    HW248863   2.142   4.356   8.895
49011SOL     OW48864   9.972   7.920   0.697
49011SOL    HW148865  10.012   8.006   0.703
49011SOL    HW248866   9.902   7.930   0.632
49012SOL     OW48867   6.452   7.847   1.940
49012SOL    HW148868   6.492   7.793   2.009
49012SOL    HW248869   6.368   7.875   1.977
49013SOL     OW48870   6.018   1.704  10.432
49013SOL    HW148871   6.049   1.790  10.458
49013SOL    HW248872   5.995   1.660  10.514
49014SOL     OW48873   8.429   9.684  14.812
49014SOL    HW148874   8.340   9.650  14.802
49014SOL    HW248875   8.417   9.778  14.825
49015SOL     OW48876   1.320   4.819   3.713
49015SOL    HW148877   1.235   4.777   3.697
49015SOL    HW248878   1.315   4.846   3.805
49016SOL     OW48879   4.820   6.707   3.814
49016SOL    HW148880   4.791   6.665   3.895
49016SOL    HW248881   4.754   6.683   3.749
49017SOL     OW48882   2.461  13.644   3.608
49017SOL    HW148883   2.442  13.611   3.520
49017SOL    HW248884   2.545  13.606   3.631
49018SOL     OW48885   7.094  13.542  14.161
49018SOL    HW148886   7.171  13.487  14.173
49018SOL    HW248887   7.029  13.484  14.122
49019SOL     OW48888   0.452   3.521   1.556
49019SOL    HW148889   0.425   3.478   1.637
49019SOL    HW248890   0.390   3.490   1.490
49020SOL     OW48891   6.512   3.351   2.190
49020SOL    HW148892   6.603   3.370   2.211
49020SOL    HW248893   6.470   3.337   2.275
49021SOL     OW48894   9.339   9.889  11.645
49021SOL    HW148895   9.261   9.836  11.665
49021SOL    HW248896   9.350   9.946  11.722
49022SOL     OW48897   2.228   7.468   4.050
49022SOL    HW148898   2.221   7.528   3.975
49022SOL    HW248899   2.322   7.452   4.059
49023SOL     OW48900   3.725   2.555  12.373
49023SOL    HW148901   3.792   2.595  12.318
49023SOL    HW248902   3.768   2.481  12.414
49024SOL     OW48903   5.931   6.739   3.490
49024SOL    HW148904   5.944   6.827   3.525
49024SOL    HW248905   5.956   6.746   3.398
49025SOL     OW48906   7.523   7.372   7.035
49025SOL    HW148907   7.526   7.424   7.115
49025SOL    HW248908   7.603   7.395   6.988
49026SOL     OW48909   0.428  11.684   7.791
49026SOL    HW148910   0.480  11.617   7.748
49026SOL    HW248911   0.493  11.748   7.822
49027SOL     OW48912   6.698  12.071  14.117
49027SOL    HW148913   6.675  12.163  14.104
49027SOL    HW248914   6.793  12.069  14.116
49028SOL     OW48915  13.368   9.420  14.413
49028SOL    HW148916  13.385   9.513  14.396
49028SOL    HW248917  13.423   9.400  14.489
49029SOL     OW48918   1.954   6.378   3.486
49029SOL    HW148919   1.932   6.404   3.396
49029SOL    HW248920   1.967   6.461   3.532
49030SOL     OW48921   2.237   1.515   8.879
49030SOL    HW148922   2.269   1.601   8.852
49030SOL    HW248923   2.294   1.452   8.834
49031SOL     OW48924   4.919   0.690  13.480
49031SOL    HW148925   4.961   0.666  13.563
49031SOL    HW248926   4.830   0.656  13.487
49032SOL     OW48927   0.059   3.185  12.091
49032SOL    HW148928   0.119   3.259  12.090
49032SOL    HW248929  14.854   3.224  12.088
49033SOL     OW48930   2.291   5.567   3.837
49033SOL    HW148931   2.349   5.590   3.765
49033SOL    HW248932   2.330   5.488   3.874
49034SOL     OW48933  12.943  13.945   0.546
49034SOL    HW148934  12.996  13.981   0.617
49034SOL    HW248935  13.006  13.913   0.482
49035SOL     OW48936   8.535   6.093  14.851
49035SOL    HW148937   8.503   6.183  14.857
49035SOL    HW248938   8.487   6.046   0.038
49036SOL     OW48939   5.185   8.292   7.740
49036SOL    HW148940   5.101   8.253   7.717
49036SOL    HW248941   5.163   8.379   7.775
49037SOL     OW48942  11.299  10.676  12.371
49037SOL    HW148943  11.206  10.696  12.367
49037SOL    HW248944  11.311  10.602  12.312
49038SOL     OW48945  11.200  10.744   3.827
49038SOL    HW148946  11.135  10.808   3.798
49038SOL    HW248947  11.200  10.751   3.923
49039SOL     OW48948   6.303  11.712   6.724
49039SOL    HW148949   6.309  11.718   6.629
49039SOL    HW248950   6.215  11.744   6.744
49040SOL     OW48951   5.559   7.274   1.774
49040SOL    HW148952   5.516   7.222   1.841
49040SOL    HW248953   5.575   7.213   1.702
49041SOL     OW48954   7.826   1.735   3.133
49041SOL    HW148955   7.805   1.666   3.197
49041SOL    HW248956   7.920   1.728   3.120
49042SOL     OW48957   3.733   8.954   5.611
49042SOL    HW148958   3.770   8.876   5.570
49042SOL    HW248959   3.695   9.004   5.539
49043SOL     OW48960  13.324   2.010   7.884
49043SOL    HW148961  13.351   2.012   7.976
49043SOL    HW248962  13.335   2.101   7.854
49044SOL     OW48963   3.331   4.850   1.793
49044SOL    HW148964   3.322   4.889   1.707
49044SOL    HW248965   3.419   4.811   1.793
49045SOL     OW48966  11.239  12.503  14.784
49045SOL    HW148967  11.330  12.504  14.753
49045SOL    HW248968  11.203  12.421  14.749
49046SOL     OW48969   3.682   1.451   8.683
49046SOL    HW148970   3.765   1.482   8.721
49046SOL    HW248971   3.665   1.510   8.610
49047SOL     OW48972   5.092   5.605  10.247
49047SOL    HW148973   5.128   5.626  10.334
49047SOL    HW248974   5.060   5.689  10.214
49048SOL     OW48975   0.640   1.048  12.148
49048SOL    HW148976   0.717   1.008  12.107
49048SOL    HW248977   0.610   0.983  12.211
49049SOL     OW48978   8.372   0.687   2.228
49049SOL    HW148979   8.366   0.629   2.304
49049SOL    HW248980   8.455   0.733   2.239
49050SOL     OW48981   9.174   1.281   3.994
49050SOL    HW148982   9.079   1.290   3.983
49050SOL    HW248983   9.192   1.188   3.979
49051SOL     OW48984   8.922  10.606   4.681
49051SOL    HW148985   8.983  10.533   4.664
49051SOL    HW248986   8.890  10.589   4.770
49052SOL     OW48987   9.083   3.929  12.733
49052SOL    HW148988   9.100   3.835  12.740
49052SOL    HW248989   9.092   3.948  12.639
49053SOL     OW48990   9.845   9.774   6.955
49053SOL    HW148991   9.791   9.849   6.979
49053SOL    HW248992   9.906   9.809   6.890
49054SOL     OW48993  11.205   0.333   6.177
49054SOL    HW148994  11.285   0.318   6.227
49054SOL    HW248995  11.165   0.410   6.217
49055SOL     OW48996   2.337   5.478   7.852
49055SOL    HW148997   2.372   5.552   7.803
49055SOL    HW248998   2.315   5.413   7.784
49056SOL     OW48999  14.780   6.761  10.825
49056SOL    HW149000  14.798   6.670  10.850
49056SOL    HW249001  14.721   6.793  10.893
49057SOL     OW49002  13.533  11.026  13.153
49057SOL    HW149003  13.622  11.020  13.118
49057SOL    HW249004  13.535  10.976  13.234
49058SOL     OW49005  11.668  12.470  14.820
49058SOL    HW149006  11.662  12.549  14.767
49058SOL    HW249007  11.635  12.496   0.025
49059SOL     OW49008   8.711  12.867   2.444
49059SOL    HW149009   8.775  12.881   2.374
49059SOL    HW249010   8.626  12.878   2.400
49060SOL     OW49011  10.519   6.799   4.333
49060SOL    HW149012  10.602   6.842   4.355
49060SOL    HW249013  10.472   6.795   4.417
49061SOL     OW49014  12.584  10.013   6.030
49061SOL    HW149015  12.676  10.032   6.045
49061SOL    HW249016  12.538  10.058   6.101
49062SOL     OW49017   7.100   8.960   7.469
49062SOL    HW149018   7.127   8.896   7.535
49062SOL    HW249019   7.181   8.983   7.423
49063SOL     OW49020  10.979  14.353  12.094
49063SOL    HW149021  11.047  14.357  12.161
49063SOL    HW249022  10.952  14.262  12.093
49064SOL     OW49023   7.940   1.386   5.346
49064SOL    HW149024   7.912   1.295   5.342
49064SOL    HW249025   7.883   1.426   5.411
49065SOL     OW49026  11.109   6.260   7.481
49065SOL    HW149027  11.069   6.254   7.394
49065SOL    HW249028  11.188   6.206   7.475
49066SOL     OW49029   3.402   6.155   5.877
49066SOL    HW149030   3.355   6.139   5.960
49066SOL    HW249031   3.443   6.071   5.857
49067SOL     OW49032   8.765  11.467   6.416
49067SOL    HW149033   8.733  11.410   6.347
49067SOL    HW249034   8.843  11.423   6.449
49068SOL     OW49035   5.814  12.171   7.638
49068SOL    HW149036   5.799  12.114   7.562
49068SOL    HW249037   5.908  12.187   7.638
49069SOL     OW49038  12.727   2.855   3.729
49069SOL    HW149039  12.658   2.915   3.702
49069SOL    HW249040  12.695   2.768   3.703
49070SOL     OW49041  13.002   2.374   9.487
49070SOL    HW149042  12.929   2.422   9.526
49070SOL    HW249043  13.041   2.435   9.425
49071SOL     OW49044   9.661   8.437  10.971
49071SOL    HW149045   9.673   8.379  10.896
49071SOL    HW249046   9.649   8.524  10.933
49072SOL     OW49047   2.754   8.710  12.334
49072SOL    HW149048   2.746   8.724  12.428
49072SOL    HW249049   2.769   8.616  12.325
49073SOL     OW49050   2.471   7.258   8.725
49073SOL    HW149051   2.493   7.240   8.816
49073SOL    HW249052   2.512   7.342   8.706
49074SOL     OW49053   7.838   2.618  12.016
49074SOL    HW149054   7.895   2.602  11.940
49074SOL    HW249055   7.817   2.531  12.049
49075SOL     OW49056   9.909  12.158   4.220
49075SOL    HW149057   9.976  12.184   4.157
49075SOL    HW249058   9.833  12.213   4.200
49076SOL     OW49059   9.619   6.958   6.131
49076SOL    HW149060   9.713   6.977   6.127
49076SOL    HW249061   9.599   6.955   6.224
49077SOL     OW49062   2.058   2.316   3.420
49077SOL    HW149063   2.107   2.393   3.449
49077SOL    HW249064   1.969   2.331   3.453
49078SOL     OW49065  13.875   3.865   2.044
49078SOL    HW149066  13.958   3.819   2.034
49078SOL    HW249067  13.896   3.956   2.023
49079SOL     OW49068  10.993  12.041  14.741
49079SOL    HW149069  10.951  11.996  14.668
49079SOL    HW249070  11.017  11.971  14.802
49080SOL     OW49071   8.857   2.776  10.891
49080SOL    HW149072   8.872   2.682  10.888
49080SOL    HW249073   8.896   2.809  10.810
49081SOL     OW49074   6.705   1.142  11.265
49081SOL    HW149075   6.636   1.141  11.199
49081SOL    HW249076   6.659   1.161  11.347
49082SOL     OW49077   7.781   8.552   4.734
49082SOL    HW149078   7.694   8.520   4.758
49082SOL    HW249079   7.824   8.568   4.818
49083SOL     OW49080  13.606   5.706  13.312
49083SOL    HW149081  13.655   5.668  13.385
49083SOL    HW249082  13.673   5.737  13.251
49084SOL     OW49083  13.564  12.433  12.014
49084SOL    HW149084  13.471  12.421  11.996
49084SOL    HW249085  13.569  12.517  12.060
49085SOL     OW49086  11.808   1.287   3.762
49085SOL    HW149087  11.871   1.243   3.819
49085SOL    HW249088  11.746   1.328   3.823
49086SOL     OW49089   9.637   9.424   0.252
49086SOL    HW149090   9.664   9.358   0.188
49086SOL    HW249091   9.566   9.382   0.301
49087SOL     OW49092  14.105   9.583   1.654
49087SOL    HW149093  14.173   9.619   1.711
49087SOL    HW249094  14.152   9.523   1.596
49088SOL     OW49095   7.003   4.307  14.059
49088SOL    HW149096   7.067   4.288  14.127
49088SOL    HW249097   7.048   4.286  13.977
49089SOL     OW49098  12.742  10.683   9.674
49089SOL    HW149099  12.743  10.703   9.580
49089SOL    HW249100  12.800  10.748   9.712
49090SOL     OW49101   0.897  10.244   3.566
49090SOL    HW149102   0.867  10.247   3.475
49090SOL    HW249103   0.985  10.282   3.563
49091SOL     OW49104  10.389  12.476   2.239
49091SOL    HW149105  10.385  12.506   2.330
49091SOL    HW249106  10.353  12.549   2.189
49092SOL     OW49107   1.126   4.491  13.892
49092SOL    HW149108   1.206   4.497  13.840
49092SOL    HW249109   1.065   4.553  13.850
49093SOL     OW49110   4.420   4.651   4.017
49093SOL    HW149111   4.348   4.598   4.051
49093SOL    HW249112   4.412   4.735   4.063
49094SOL     OW49113   3.466  12.719   8.505
49094SOL    HW149114   3.527  12.721   8.579
49094SOL    HW249115   3.511  12.767   8.435
49095SOL     OW49116   7.495  13.326   3.258
49095SOL    HW149117   7.534  13.239   3.253
49095SOL    HW249118   7.429  13.326   3.188
49096SOL     OW49119   5.940   8.443  13.394
49096SOL    HW149120   5.856   8.476  13.426
49096SOL    HW249121   5.960   8.369  13.452
49097SOL     OW49122  12.581   7.038   1.293
49097SOL    HW149123  12.608   7.009   1.206
49097SOL    HW249124  12.662   7.039   1.345
49098SOL     OW49125   7.269   2.723   5.322
49098SOL    HW149126   7.219   2.647   5.351
49098SOL    HW249127   7.277   2.778   5.400
49099SOL     OW49128   1.459  10.887   0.203
49099SOL    HW149129   1.465  10.917   0.112
49099SOL    HW249130   1.489  10.796   0.200
49100SOL     OW49131  13.534   6.875   1.038
49100SOL    HW149132  13.484   6.842   0.964
49100SOL    HW249133  13.483   6.949   1.071
49101SOL     OW49134  11.393  10.486   6.754
49101SOL    HW149135  11.471  10.434   6.776
49101SOL    HW249136  11.333  10.423   6.715
49102SOL     OW49137  14.298  12.676  14.878
49102SOL    HW149138  14.252  12.642  14.801
49102SOL    HW249139  14.380  12.711  14.844
49103SOL     OW49140  11.879   8.597   9.322
49103SOL    HW149141  11.810   8.655   9.355
49103SOL    HW249142  11.879   8.611   9.227
49104SOL     OW49143   5.566  14.015  10.937
49104SOL    HW149144   5.540  14.081  11.001
49104SOL    HW249145   5.651  14.045  10.905
49105SOL     OW49146  10.437   2.598  11.240
49105SOL    HW149147  10.395   2.579  11.156
49105SOL    HW249148  10.523   2.634  11.215
49106SOL     OW49149   4.776  12.498   4.867
49106SOL    HW149150   4.795  12.536   4.953
49106SOL    HW249151   4.855  12.448   4.844
49107SOL     OW49152  10.904   6.343  11.856
49107SOL    HW149153  10.958   6.264  11.855
49107SOL    HW249154  10.950   6.405  11.799
49108SOL     OW49155  12.623   5.927  13.600
49108SOL    HW149156  12.679   5.859  13.563
49108SOL    HW249157  12.544   5.880  13.629
49109SOL     OW49158  10.233   6.754   3.330
49109SOL    HW149159  10.295   6.798   3.388
49109SOL    HW249160  10.177   6.825   3.297
49110SOL     OW49161   3.683   4.087  13.699
49110SOL    HW149162   3.742   4.040  13.758
49110SOL    HW249163   3.677   4.033  13.621
49111SOL     OW49164   4.185  10.972  14.731
49111SOL    HW149165   4.228  11.031  14.792
49111SOL    HW249166   4.256  10.934  14.680
49112SOL     OW49167   6.956  14.102   1.302
49112SOL    HW149168   6.931  14.193   1.288
49112SOL    HW249169   6.885  14.051   1.263
49113SOL     OW49170   3.507   7.129   8.061
49113SOL    HW149171   3.495   7.100   8.152
49113SOL    HW249172   3.567   7.065   8.024
49114SOL     OW49173   5.259   8.674  12.939
49114SOL    HW149174   5.354   8.686  12.946
49114SOL    HW249175   5.245   8.642  12.850
49115SOL     OW49176   5.694   2.568   6.034
49115SOL    HW149177   5.689   2.512   5.956
49115SOL    HW249178   5.729   2.651   6.003
49116SOL     OW49179  12.252   9.352   0.925
49116SOL    HW149180  12.324   9.345   0.862
49116SOL    HW249181  12.173   9.337   0.875
49117SOL     OW49182   0.946   4.088  11.668
49117SOL    HW149183   0.915   4.173  11.699
49117SOL    HW249184   0.886   4.024  11.706
49118SOL     OW49185  11.022   0.465   9.207
49118SOL    HW149186  11.084   0.394   9.217
49118SOL    HW249187  11.057   0.536   9.260
49119SOL     OW49188  11.289   2.341   0.413
49119SOL    HW149189  11.219   2.291   0.372
49119SOL    HW249190  11.276   2.329   0.507
49120SOL     OW49191   5.973   8.020  10.146
49120SOL    HW149192   5.990   8.086  10.214
49120SOL    HW249193   6.056   7.972  10.138
49121SOL     OW49194  13.749   1.913   1.134
49121SOL    HW149195  13.788   1.888   1.050
49121SOL    HW249196  13.811   1.884   1.200
49122SOL     OW49197  13.346   3.661  12.148
49122SOL    HW149198  13.335   3.739  12.094
49122SOL    HW249199  13.346   3.588  12.086
49123SOL     OW49200  13.453  13.667  11.057
49123SOL    HW149201  13.459  13.586  11.108
49123SOL    HW249202  13.473  13.736  11.120
49124SOL     OW49203   4.801   6.090   5.958
49124SOL    HW149204   4.848   6.028   5.903
49124SOL    HW249205   4.862   6.164   5.969
49125SOL     OW49206   6.711   8.971  13.368
49125SOL    HW149207   6.731   9.033  13.438
49125SOL    HW249208   6.639   9.012  13.320
49126SOL     OW49209   0.545   2.127   6.432
49126SOL    HW149210   0.458   2.113   6.469
49126SOL    HW249211   0.532   2.120   6.337
49127SOL     OW49212   5.856   7.145   6.257
49127SOL    HW149213   5.883   7.054   6.241
49127SOL    HW249214   5.916   7.176   6.325
49128SOL     OW49215   2.487   7.018  14.599
49128SOL    HW149216   2.545   7.056  14.665
49128SOL    HW249217   2.497   6.924  14.610
49129SOL     OW49218   5.510  12.568   9.764
49129SOL    HW149219   5.420  12.598   9.753
49129SOL    HW249220   5.536  12.600   9.851
49130SOL     OW49221  10.641   2.116   1.776
49130SOL    HW149222  10.556   2.159   1.770
49130SOL    HW249223  10.656   2.081   1.688
49131SOL     OW49224  11.747  11.372   9.947
49131SOL    HW149225  11.833  11.409   9.927
49131SOL    HW249226  11.704  11.439  10.000
49132SOL     OW49227   2.586  10.944   7.443
49132SOL    HW149228   2.499  10.956   7.407
49132SOL    HW249229   2.595  10.849   7.454
49133SOL     OW49230   9.549   5.238   1.462
49133SOL    HW149231   9.611   5.216   1.393
49133SOL    HW249232   9.582   5.320   1.499
49134SOL     OW49233   8.348  10.931   4.689
49134SOL    HW149234   8.334  10.841   4.662
49134SOL    HW249235   8.439  10.950   4.665
49135SOL     OW49236   5.074   4.177  11.406
49135SOL    HW149237   5.130   4.157  11.331
49135SOL    HW249238   5.086   4.104  11.466
49136SOL     OW49239   7.162  10.937   9.685
49136SOL    HW149240   7.162  11.012   9.625
49136SOL    HW249241   7.217  10.966   9.758
49137SOL     OW49242   6.674   0.666  11.954
49137SOL    HW149243   6.671   0.742  12.012
49137SOL    HW249244   6.609   0.684  11.887
49138SOL     OW49245  10.779   3.191   3.331
49138SOL    HW149246  10.748   3.110   3.292
49138SOL    HW249247  10.834   3.163   3.404
49139SOL     OW49248   5.818   0.104  10.882
49139SOL    HW149249   5.770   0.104  10.800
49139SOL    HW249250   5.769   0.044  10.939
49140SOL     OW49251   5.846  10.851   5.846
49140SOL    HW149252   5.809  10.787   5.906
49140SOL    HW249253   5.826  10.936   5.885
49141SOL     OW49254   7.214   1.872   6.019
49141SOL    HW149255   7.165   1.877   6.101
49141SOL    HW249256   7.248   1.960   6.005
49142SOL     OW49257   5.333   7.038   3.943
49142SOL    HW149258   5.270   7.052   4.014
49142SOL    HW249259   5.280   7.045   3.863
49143SOL     OW49260   4.052   4.299   8.960
49143SOL    HW149261   4.018   4.334   8.877
49143SOL    HW249262   4.142   4.332   8.965
49144SOL     OW49263  13.158  13.069  13.499
49144SOL    HW149264  13.084  13.016  13.528
49144SOL    HW249265  13.126  13.116  13.422
49145SOL     OW49266  11.907   4.140   1.861
49145SOL    HW149267  11.998   4.152   1.832
49145SOL    HW249268  11.914   4.106   1.950
49146SOL     OW49269   1.957   5.085   8.607
49146SOL    HW149270   2.026   5.064   8.544
49146SOL    HW249271   1.881   5.036   8.576
49147SOL     OW49272   9.952  13.311   2.624
49147SOL    HW149273   9.928  13.219   2.630
49147SOL    HW249274   9.872  13.355   2.596
49148SOL     OW49275  12.391   7.150   3.687
49148SOL    HW149276  12.296   7.163   3.690
49148SOL    HW249277  12.426   7.217   3.745
49149SOL     OW49278   5.052   2.164   6.903
49149SOL    HW149279   5.001   2.223   6.846
49149SOL    HW249280   5.013   2.078   6.890
49150SOL     OW49281   0.026   3.468  10.431
49150SOL    HW149282  14.866   3.525  10.367
49150SOL    HW249283   0.030   3.520  10.512
49151SOL     OW49284   0.982  14.381   6.136
49151SOL    HW149285   0.952  14.471   6.151
49151SOL    HW249286   1.056  14.370   6.197
49152SOL     OW49287  14.746   7.868  12.498
49152SOL    HW149288  14.755   7.780  12.533
49152SOL    HW249289  14.757   7.858  12.404
49153SOL     OW49290   4.604   4.981   8.151
49153SOL    HW149291   4.598   5.073   8.128
49153SOL    HW249292   4.693   4.955   8.125
49154SOL     OW49293   7.905  14.245  10.050
49154SOL    HW149294   7.880  14.250  10.142
49154SOL    HW249295   7.826  14.213  10.005
49155SOL     OW49296   1.764   6.938   8.249
49155SOL    HW149297   1.672   6.949   8.274
49155SOL    HW249298   1.763   6.941   8.153
49156SOL     OW49299   8.423  10.889   6.274
49156SOL    HW149300   8.472  10.821   6.321
49156SOL    HW249301   8.482  10.964   6.272
49157SOL     OW49302   2.453   6.652   2.067
49157SOL    HW149303   2.511   6.728   2.063
49157SOL    HW249304   2.421   6.641   1.977
49158SOL     OW49305  11.105   5.132   5.929
49158SOL    HW149306  11.018   5.116   5.965
49158SOL    HW249307  11.153   5.051   5.944
49159SOL     OW49308   6.396  13.792   1.855
49159SOL    HW149309   6.441  13.708   1.844
49159SOL    HW249310   6.462  13.848   1.897
49160SOL     OW49311   4.201  14.826   4.176
49160SOL    HW149312   4.139  14.848   4.106
49160SOL    HW249313   4.152  14.842   4.257
49161SOL     OW49314  11.078  10.515  11.142
49161SOL    HW149315  11.157  10.568  11.130
49161SOL    HW249316  11.065  10.472  11.057
49162SOL     OW49317   3.240   3.353  14.880
49162SOL    HW149318   3.258   3.261   0.015
49162SOL    HW249319   3.145   3.361   0.006
49163SOL     OW49320   2.798  10.896  12.772
49163SOL    HW149321   2.775  10.807  12.746
49163SOL    HW249322   2.884  10.888  12.813
49164SOL     OW49323  10.040  13.627   2.972
49164SOL    HW149324  10.133  13.647   2.964
49164SOL    HW249325  10.023  13.562   2.905
49165SOL     OW49326   2.955   8.181   4.902
49165SOL    HW149327   2.984   8.095   4.932
49165SOL    HW249328   3.012   8.200   4.827
49166SOL     OW49329   5.359   8.515  12.449
49166SOL    HW149330   5.345   8.487  12.359
49166SOL    HW249331   5.429   8.458  12.481
49167SOL     OW49332  14.812  10.743   1.151
49167SOL    HW149333   0.017  10.704   1.145
49167SOL    HW249334  14.754  10.669   1.165
49168SOL     OW49335  14.556   3.487   4.611
49168SOL    HW149336  14.590   3.447   4.531
49168SOL    HW249337  14.482   3.432   4.636
49169SOL     OW49338   7.403   3.482   1.949
49169SOL    HW149339   7.331   3.428   1.916
49169SOL    HW249340   7.473   3.420   1.968
49170SOL     OW49341   0.048  13.383   8.427
49170SOL    HW149342  14.870  13.456   8.413
49170SOL    HW249343   0.024  13.319   8.360
49171SOL     OW49344  13.245   0.601   7.496
49171SOL    HW149345  13.305   0.640   7.433
49171SOL    HW249346  13.226   0.672   7.558
49172SOL     OW49347   4.680  13.810   5.645
49172SOL    HW149348   4.697  13.831   5.737
49172SOL    HW249349   4.765  13.782   5.611
49173SOL     OW49350   5.312  12.688  13.194
49173SOL    HW149351   5.341  12.778  13.178
49173SOL    HW249352   5.230  12.698  13.243
49174SOL     OW49353  10.557   3.706   9.204
49174SOL    HW149354  10.597   3.741   9.284
49174SOL    HW249355  10.497   3.639   9.236
49175SOL     OW49356   3.162  12.406   5.246
49175SOL    HW149357   3.115  12.323   5.248
49175SOL    HW249358   3.249  12.385   5.280
49176SOL     OW49359   8.955   6.292   1.144
49176SOL    HW149360   8.913   6.378   1.146
49176SOL    HW249361   8.885   6.233   1.117
49177SOL     OW49362   2.758   8.665   5.337
49177SOL    HW149363   2.699   8.595   5.365
49177SOL    HW249364   2.789   8.704   5.419
49178SOL     OW49365   8.408   4.103   0.049
49178SOL    HW149366   8.481   4.043   0.065
49178SOL    HW249367   8.445   4.190   0.061
49179SOL     OW49368  13.748   6.221   7.581
49179SOL    HW149369  13.658   6.201   7.555
49179SOL    HW249370  13.740   6.258   7.668
49180SOL     OW49371   9.925  14.765   5.971
49180SOL    HW149372   9.947  14.729   5.885
49180SOL    HW249373   9.830  14.754   5.977
49181SOL     OW49374   2.340  11.741  12.354
49181SOL    HW149375   2.278  11.673  12.328
49181SOL    HW249376   2.422  11.695  12.373
49182SOL     OW49377  14.218   4.171   1.406
49182SOL    HW149378  14.145   4.191   1.348
49182SOL    HW249379  14.180   4.172   1.494
49183SOL     OW49380   3.238   8.944  12.518
49183SOL    HW149381   3.181   8.885  12.568
49183SOL    HW249382   3.255   9.017  12.578
49184SOL     OW49383   7.931   7.529   9.451
49184SOL    HW149384   7.892   7.512   9.536
49184SOL    HW249385   7.900   7.458   9.395
49185SOL     OW49386   0.176  10.160   5.044
49185SOL    HW149387   0.105  10.106   5.008
49185SOL    HW249388   0.149  10.250   5.025
49186SOL     OW49389   4.637  11.988   9.928
49186SOL    HW149390   4.678  12.072   9.949
49186SOL    HW249391   4.639  11.983   9.833
49187SOL     OW49392  12.109   2.463   8.684
49187SOL    HW149393  12.033   2.425   8.640
49187SOL    HW249394  12.084   2.554   8.701
49188SOL     OW49395   3.224  10.049   2.047
49188SOL    HW149396   3.153  10.112   2.059
49188SOL    HW249397   3.188   9.983   1.988
49189SOL     OW49398  12.689   0.464  12.699
49189SOL    HW149399  12.704   0.434  12.610
49189SOL    HW249400  12.744   0.543  12.708
49190SOL     OW49401   6.816   2.412   7.544
49190SOL    HW149402   6.752   2.459   7.490
49190SOL    HW249403   6.817   2.323   7.510
49191SOL     OW49404  11.656   0.760  13.651
49191SOL    HW149405  11.738   0.791  13.689
49191SOL    HW249406  11.588   0.813  13.693
49192SOL     OW49407  10.849   8.298  14.375
49192SOL    HW149408  10.859   8.255  14.290
49192SOL    HW249409  10.764   8.341  14.370
49193SOL     OW49410   6.371   6.285   1.976
49193SOL    HW149411   6.424   6.361   1.999
49193SOL    HW249412   6.435   6.214   1.964
49194SOL     OW49413  12.380  11.282  10.311
49194SOL    HW149414  12.392  11.360  10.257
49194SOL    HW249415  12.448  11.289  10.378
49195SOL     OW49416   5.809   0.474   9.464
49195SOL    HW149417   5.836   0.463   9.555
49195SOL    HW249418   5.780   0.388   9.436
49196SOL     OW49419  14.535   3.036   8.412
49196SOL    HW149420  14.452   3.064   8.451
49196SOL    HW249421  14.540   2.942   8.430
49197SOL     OW49422  11.379   7.742  10.594
49197SOL    HW149423  11.293   7.769  10.626
49197SOL    HW249424  11.362   7.705  10.508
49198SOL     OW49425   8.257   3.070  11.751
49198SOL    HW149426   8.294   3.074  11.839
49198SOL    HW249427   8.178   3.123  11.755
49199SOL     OW49428  13.742  13.249   4.001
49199SOL    HW149429  13.807  13.179   3.991
49199SOL    HW249430  13.712  13.241   4.092
49200SOL     OW49431   2.774   2.108   9.572
49200SOL    HW149432   2.772   2.161   9.492
49200SOL    HW249433   2.682   2.099   9.597
49201SOL     OW49434   0.009  14.443  11.587
49201SOL    HW149435   0.054  14.480  11.511
49201SOL    HW249436   0.021  14.509  11.656
49202SOL     OW49437   1.374  14.693   3.642
49202SOL    HW149438   1.343  14.610   3.607
49202SOL    HW249439   1.466  14.697   3.616
49203SOL     OW49440  14.678   7.381   7.855
49203SOL    HW149441  14.597   7.341   7.888
49203SOL    HW249442  14.697   7.334   7.774
49204SOL     OW49443   4.031  13.424   1.104
49204SOL    HW149444   4.037  13.441   1.198
49204SOL    HW249445   3.970  13.351   1.097
49205SOL     OW49446   1.260  11.821   9.514
49205SOL    HW149447   1.220  11.736   9.501
49205SOL    HW249448   1.354  11.804   9.510
49206SOL     OW49449  13.650  10.081  10.755
49206SOL    HW149450  13.656  10.100  10.662
49206SOL    HW249451  13.576  10.021  10.763
49207SOL     OW49452  14.308  14.490  14.440
49207SOL    HW149453  14.343  14.491  14.351
49207SOL    HW249454  14.385  14.489  14.496
49208SOL     OW49455   9.845   5.466  14.242
49208SOL    HW149456   9.759   5.434  14.269
49208SOL    HW249457   9.907   5.412  14.289
49209SOL     OW49458   6.305   3.415  13.346
49209SOL    HW149459   6.214   3.399  13.322
49209SOL    HW249460   6.324   3.502  13.310
49210SOL     OW49461   7.224   3.600  14.123
49210SOL    HW149462   7.270   3.683  14.134
49210SOL    HW249463   7.256   3.566  14.039
49211SOL     OW49464  14.582  11.712   2.516
49211SOL    HW149465  14.587  11.764   2.436
49211SOL    HW249466  14.506  11.656   2.503
49212SOL     OW49467   1.428  14.221  10.193
49212SOL    HW149468   1.514  14.256  10.214
49212SOL    HW249469   1.441  14.173  10.111
49213SOL     OW49470  14.107  14.675  10.964
49213SOL    HW149471  14.087  14.588  10.998
49213SOL    HW249472  14.192  14.664  10.920
49214SOL     OW49473  13.517  14.452   8.939
49214SOL    HW149474  13.533  14.541   8.909
49214SOL    HW249475  13.462  14.462   9.016
49215SOL     OW49476   5.335   7.424   5.026
49215SOL    HW149477   5.339   7.408   5.120
49215SOL    HW249478   5.421   7.399   4.994
49216SOL     OW49479  11.709   3.132   9.702
49216SOL    HW149480  11.785   3.149   9.756
49216SOL    HW249481  11.691   3.039   9.713
49217SOL     OW49482   4.225   0.356   3.000
49217SOL    HW149483   4.245   0.310   2.918
49217SOL    HW249484   4.248   0.293   3.069
49218SOL     OW49485   5.396   5.757   6.393
49218SOL    HW149486   5.382   5.670   6.429
49218SOL    HW249487   5.487   5.778   6.414
49219SOL     OW49488   9.465  11.052  12.767
49219SOL    HW149489   9.412  11.009  12.700
49219SOL    HW249490   9.518  10.981  12.804
49220SOL     OW49491  10.974   3.516   5.594
49220SOL    HW149492  11.061   3.549   5.615
49220SOL    HW249493  10.927   3.514   5.677
49221SOL     OW49494  10.940  10.426   4.730
49221SOL    HW149495  10.953  10.335   4.758
49221SOL    HW249496  10.970  10.428   4.639
49222SOL     OW49497   2.581   7.520   9.930
49222SOL    HW149498   2.607   7.443   9.980
49222SOL    HW249499   2.495   7.544   9.966
49223SOL     OW49500  12.578   8.281   5.053
49223SOL    HW149501  12.498   8.290   5.000
49223SOL    HW249502  12.645   8.329   5.005
49224SOL     OW49503   8.170   3.340   2.645
49224SOL    HW149504   8.176   3.321   2.552
49224SOL    HW249505   8.112   3.416   2.651
49225SOL     OW49506   9.241   7.136   2.681
49225SOL    HW149507   9.167   7.094   2.637
49225SOL    HW249508   9.300   7.064   2.702
49226SOL     OW49509   9.182  11.586   2.630
49226SOL    HW149510   9.095  11.549   2.615
49226SOL    HW249511   9.229  11.571   2.548
49227SOL     OW49512  11.901  12.393  11.751
49227SOL    HW149513  11.906  12.483  11.720
49227SOL    HW249514  11.836  12.352  11.694
49228SOL     OW49515   3.536   6.703  14.587
49228SOL    HW149516   3.452   6.748  14.592
49228SOL    HW249517   3.571   6.707  14.675
49229SOL     OW49518   1.691  14.329   8.446
49229SOL    HW149519   1.761  14.373   8.396
49229SOL    HW249520   1.620  14.393   8.448
49230SOL     OW49521   1.066  10.494   1.583
49230SOL    HW149522   1.124  10.419   1.572
49230SOL    HW249523   1.065  10.537   1.498
49231SOL     OW49524   4.862  12.711   9.777
49231SOL    HW149525   4.789  12.757   9.819
49231SOL    HW249526   4.925  12.781   9.757
49232SOL     OW49527   1.735   1.869  11.931
49232SOL    HW149528   1.675   1.904  11.998
49232SOL    HW249529   1.713   1.919  11.852
49233SOL     OW49530  14.255  12.782   7.088
49233SOL    HW149531  14.234  12.761   7.179
49233SOL    HW249532  14.273  12.876   7.089
49234SOL     OW49533   9.344  12.385   3.125
49234SOL    HW149534   9.256  12.424   3.127
49234SOL    HW249535   9.402  12.456   3.151
49235SOL     OW49536   4.491  12.480  13.417
49235SOL    HW149537   4.580  12.481  13.450
49235SOL    HW249538   4.491  12.541  13.344
49236SOL     OW49539   2.441   2.869  12.322
49236SOL    HW149540   2.385   2.928  12.269
49236SOL    HW249541   2.379   2.811  12.366
49237SOL     OW49542   6.446   2.499  11.619
49237SOL    HW149543   6.445   2.594  11.604
49237SOL    HW249544   6.396   2.486  11.699
49238SOL     OW49545  12.652  10.050   6.822
49238SOL    HW149546  12.708   9.977   6.847
49238SOL    HW249547  12.661  10.055   6.727
49239SOL     OW49548  12.228   5.391   5.381
49239SOL    HW149549  12.231   5.478   5.341
49239SOL    HW249550  12.299   5.343   5.339
49240SOL     OW49551   8.615   1.278   6.627
49240SOL    HW149552   8.605   1.186   6.606
49240SOL    HW249553   8.579   1.324   6.552
49241SOL     OW49554   1.741   6.836   8.683
49241SOL    HW149555   1.758   6.796   8.598
49241SOL    HW249556   1.708   6.765   8.738
49242SOL     OW49557   1.427  12.446   7.054
49242SOL    HW149558   1.429  12.357   7.090
49242SOL    HW249559   1.493  12.493   7.106
49243SOL     OW49560   4.570   5.073   9.626
49243SOL    HW149561   4.515   5.148   9.645
49243SOL    HW249562   4.512   5.012   9.580
49244SOL     OW49563   0.412  14.571  13.965
49244SOL    HW149564   0.490  14.607  14.008
49244SOL    HW249565   0.444  14.536  13.882
49245SOL     OW49566   8.606   4.864   7.665
49245SOL    HW149567   8.597   4.953   7.701
49245SOL    HW249568   8.662   4.875   7.589
49246SOL     OW49569  10.012  13.592  11.674
49246SOL    HW149570   9.949  13.558  11.738
49246SOL    HW249571   9.958  13.630  11.605
49247SOL     OW49572  11.972   4.633   5.876
49247SOL    HW149573  11.883   4.606   5.852
49247SOL    HW249574  11.961   4.686   5.955
49248SOL     OW49575   7.701   8.606   0.265
49248SOL    HW149576   7.702   8.696   0.231
49248SOL    HW249577   7.793   8.588   0.287
49249SOL     OW49578  10.530   1.576   8.804
49249SOL    HW149579  10.486   1.575   8.719
49249SOL    HW249580  10.484   1.509   8.855
49250SOL     OW49581  12.982   8.272  13.038
49250SOL    HW149582  13.058   8.326  13.015
49250SOL    HW249583  12.909   8.334  13.042
49251SOL     OW49584   7.316   1.653   2.247
49251SOL    HW149585   7.268   1.688   2.172
49251SOL    HW249586   7.250   1.646   2.316
49252SOL     OW49587   6.408   3.705   4.433
49252SOL    HW149588   6.368   3.768   4.372
49252SOL    HW249589   6.470   3.757   4.484
49253SOL     OW49590   4.871   6.555   7.845
49253SOL    HW149591   4.944   6.601   7.886
49253SOL    HW249592   4.904   6.466   7.830
49254SOL     OW49593   5.572   2.121  11.177
49254SOL    HW149594   5.634   2.149  11.111
49254SOL    HW249595   5.581   2.185  11.247
49255SOL     OW49596  10.879  10.501   2.335
49255SOL    HW149597  10.838  10.502   2.421
49255SOL    HW249598  10.817  10.547   2.278
49256SOL     OW49599  11.270   5.124   3.822
49256SOL    HW149600  11.270   5.092   3.912
49256SOL    HW249601  11.226   5.209   3.826
49257SOL     OW49602   2.659   3.202   4.140
49257SOL    HW149603   2.591   3.219   4.075
49257SOL    HW249604   2.666   3.106   4.142
49258SOL     OW49605   1.571   6.428  12.910
49258SOL    HW149606   1.624   6.507  12.898
49258SOL    HW249607   1.481   6.458  12.900
49259SOL     OW49608  11.614  11.653   4.619
49259SOL    HW149609  11.642  11.700   4.541
49259SOL    HW249610  11.605  11.562   4.591
49260SOL     OW49611   1.606  12.149   1.683
49260SOL    HW149612   1.566  12.184   1.762
49260SOL    HW249613   1.669  12.216   1.656
49261SOL     OW49614  12.927   6.522   6.524
49261SOL    HW149615  13.008   6.496   6.481
49261SOL    HW249616  12.928   6.475   6.607
49262SOL     OW49617   4.135   3.484  13.210
49262SOL    HW149618   4.172   3.453  13.127
49262SOL    HW249619   4.113   3.405  13.258
49263SOL     OW49620   4.311   8.379   3.335
49263SOL    HW149621   4.383   8.324   3.303
49263SOL    HW249622   4.334   8.395   3.427
49264SOL     OW49623   9.155   0.541   4.441
49264SOL    HW149624   9.073   0.491   4.442
49264SOL    HW249625   9.223   0.474   4.453
49265SOL     OW49626  13.739   6.629   0.811
49265SOL    HW149627  13.644   6.617   0.821
49265SOL    HW249628  13.775   6.540   0.814
49266SOL     OW49629  10.039  10.369  12.117
49266SOL    HW149630  10.045  10.432  12.046
49266SOL    HW249631  10.030  10.422  12.196
49267SOL     OW49632   7.241   2.904  14.215
49267SOL    HW149633   7.210   2.834  14.272
49267SOL    HW249634   7.260   2.977  14.274
49268SOL     OW49635   4.554  13.265   1.123
49268SOL    HW149636   4.584  13.327   1.189
49268SOL    HW249637   4.485  13.215   1.166
49269SOL     OW49638  13.728  13.793   3.974
49269SOL    HW149639  13.641  13.767   3.943
49269SOL    HW249640  13.787  13.766   3.903
49270SOL     OW49641   9.311   5.708   1.680
49270SOL    HW149642   9.229   5.746   1.648
49270SOL    HW249643   9.285   5.624   1.719
49271SOL     OW49644   2.557  10.527  13.354
49271SOL    HW149645   2.585  10.467  13.285
49271SOL    HW249646   2.580  10.483  13.435
49272SOL     OW49647   2.068   4.655  13.950
49272SOL    HW149648   2.154   4.696  13.941
49272SOL    HW249649   2.034   4.688  14.034
49273SOL     OW49650  13.545   5.961   7.431
49273SOL    HW149651  13.560   6.004   7.347
49273SOL    HW249652  13.596   5.880   7.425
49274SOL     OW49653   5.594   5.737   8.564
49274SOL    HW149654   5.595   5.756   8.658
49274SOL    HW249655   5.507   5.701   8.548
49275SOL     OW49656   9.457   5.063  12.894
49275SOL    HW149657   9.367   5.041  12.920
49275SOL    HW249658   9.448   5.146  12.847
49276SOL     OW49659  13.283   6.895  14.088
49276SOL    HW149660  13.293   6.982  14.126
49276SOL    HW249661  13.263   6.838  14.162
49277SOL     OW49662  12.291  12.201  13.783
49277SOL    HW149663  12.335  12.252  13.715
49277SOL    HW249664  12.349  12.126  13.797
49278SOL     OW49665   2.697   9.340  13.369
49278SOL    HW149666   2.650   9.258  13.383
49278SOL    HW249667   2.769   9.316  13.309
49279SOL     OW49668  13.759   0.166  14.324
49279SOL    HW149669  13.814   0.125  14.391
49279SOL    HW249670  13.816   0.230  14.282
49280SOL     OW49671  14.078  11.852   8.399
49280SOL    HW149672  13.983  11.844   8.395
49280SOL    HW249673  14.095  11.917   8.466
49281SOL     OW49674   2.494  11.262   1.286
49281SOL    HW149675   2.449  11.306   1.215
49281SOL    HW249676   2.428  11.256   1.356
49282SOL     OW49677   9.123   5.810   8.323
49282SOL    HW149678   9.192   5.858   8.277
49282SOL    HW249679   9.064   5.780   8.255
49283SOL     OW49680   0.525   4.727  13.932
49283SOL    HW149681   0.503   4.634  13.931
49283SOL    HW249682   0.441   4.771  13.916
49284SOL     OW49683   6.544  14.017   5.332
49284SOL    HW149684   6.468  14.005   5.388
49284SOL    HW249685   6.565  14.110   5.340
49285SOL     OW49686  12.807   2.243   1.123
49285SOL    HW149687  12.757   2.170   1.161
49285SOL    HW249688  12.822   2.217   1.032
49286SOL     OW49689   2.900   0.736   6.049
49286SOL    HW149690   2.849   0.811   6.081
49286SOL    HW249691   2.863   0.717   5.962
49287SOL     OW49692  14.666   6.242   1.389
49287SOL    HW149693  14.682   6.159   1.435
49287SOL    HW249694  14.733   6.301   1.424
49288SOL     OW49695  14.228   3.072   0.723
49288SOL    HW149696  14.176   3.058   0.644
49288SOL    HW249697  14.318   3.055   0.696
49289SOL     OW49698  14.421  13.095   8.840
49289SOL    HW149699  14.331  13.099   8.810
49289SOL    HW249700  14.415  13.085   8.935
49290SOL     OW49701  10.437   0.056   8.860
49290SOL    HW149702  10.385  14.865   8.894
49290SOL    HW249703  10.491   0.016   8.792
49291SOL     OW49704   6.283   0.469   2.931
49291SOL    HW149705   6.216   0.447   2.866
49291SOL    HW249706   6.253   0.428   3.012
49292SOL     OW49707  14.817  10.194  12.623
49292SOL    HW149708  14.878  10.267  12.611
49292SOL    HW249709  14.815  10.179  12.718
49293SOL     OW49710  14.775   5.317  12.445
49293SOL    HW149711  14.707   5.260  12.410
49293SOL    HW249712  14.730   5.369  12.512
49294SOL     OW49713  11.499  13.911   3.677
49294SOL    HW149714  11.524  13.918   3.585
49294SOL    HW249715  11.407  13.885   3.675
49295SOL     OW49716  10.040   1.426  10.828
49295SOL    HW149717  10.070   1.352  10.775
49295SOL    HW249718   9.946   1.433  10.807
49296SOL     OW49719   4.265   9.578  11.203
49296SOL    HW149720   4.266   9.673  11.209
49296SOL    HW249721   4.173   9.556  11.184
49297SOL     OW49722   2.697  10.474  10.597
49297SOL    HW149723   2.671  10.566  10.602
49297SOL    HW249724   2.627  10.433  10.546
49298SOL     OW49725   3.927   7.893  14.162
49298SOL    HW149726   4.010   7.936  14.184
49298SOL    HW249727   3.894   7.860  14.246
49299SOL     OW49728   5.901   7.071  11.232
49299SOL    HW149729   5.839   7.006  11.202
49299SOL    HW249730   5.885   7.148  11.177
49300SOL     OW49731   9.185   4.338   6.905
49300SOL    HW149732   9.112   4.399   6.913
49300SOL    HW249733   9.255   4.377   6.958
49301SOL     OW49734  11.182   7.560  10.826
49301SOL    HW149735  11.262   7.559  10.879
49301SOL    HW249736  11.134   7.637  10.857
49302SOL     OW49737   8.933  13.949  13.308
49302SOL    HW149738   8.995  13.916  13.372
49302SOL    HW249739   8.849  13.909  13.332
49303SOL     OW49740  11.669   9.135   2.170
49303SOL    HW149741  11.683   9.055   2.222
49303SOL    HW249742  11.751   9.147   2.122
49304SOL     OW49743  12.637   9.692   6.786
49304SOL    HW149744  12.724   9.682   6.746
49304SOL    HW249745  12.655   9.723   6.875
49305SOL     OW49746   1.178   2.940   7.485
49305SOL    HW149747   1.095   2.953   7.438
49305SOL    HW249748   1.164   2.982   7.570
49306SOL     OW49749  13.556   8.617   2.732
49306SOL    HW149750  13.556   8.522   2.737
49306SOL    HW249751  13.552   8.636   2.638
49307SOL     OW49752  10.920   7.169   6.730
49307SOL    HW149753  10.964   7.232   6.674
49307SOL    HW249754  10.922   7.087   6.680
49308SOL     OW49755   6.605   3.654  10.290
49308SOL    HW149756   6.561   3.579  10.331
49308SOL    HW249757   6.695   3.625  10.276
49309SOL     OW49758   9.217   9.490   5.026
49309SOL    HW149759   9.296   9.541   5.045
49309SOL    HW249760   9.205   9.435   5.104
49310SOL     OW49761  11.428  14.669   1.528
49310SOL    HW149762  11.456  14.678   1.437
49310SOL    HW249763  11.388  14.582   1.533
49311SOL     OW49764   8.201   4.116  11.411
49311SOL    HW149765   8.206   4.032  11.456
49311SOL    HW249766   8.288   4.129  11.373
49312SOL     OW49767   6.234   1.597   7.155
49312SOL    HW149768   6.314   1.555   7.187
49312SOL    HW249769   6.185   1.525   7.114
49313SOL     OW49770   6.288   1.753   3.099
49313SOL    HW149771   6.299   1.749   3.194
49313SOL    HW249772   6.351   1.690   3.064
49314SOL     OW49773  13.107   8.094   8.006
49314SOL    HW149774  13.079   8.174   8.051
49314SOL    HW249775  13.112   8.029   8.076
49315SOL     OW49776   7.963   5.058  14.597
49315SOL    HW149777   7.947   4.976  14.644
49315SOL    HW249778   7.891   5.064  14.535
49316SOL     OW49779  10.601  11.470  10.116
49316SOL    HW149780  10.589  11.375  10.118
49316SOL    HW249781  10.609  11.490  10.023
49317SOL     OW49782   9.344   3.054   5.302
49317SOL    HW149783   9.355   3.110   5.225
49317SOL    HW249784   9.274   3.096   5.352
49318SOL     OW49785   1.234   9.521   8.581
49318SOL    HW149786   1.144   9.554   8.592
49318SOL    HW249787   1.226   9.451   8.517
49319SOL     OW49788   9.882   0.198   0.796
49319SOL    HW149789   9.886   0.259   0.870
49319SOL    HW249790   9.973   0.180   0.774
49320SOL     OW49791  14.705   8.823  11.494
49320SOL    HW149792  14.747   8.792  11.413
49320SOL    HW249793  14.764   8.891  11.527
49321SOL     OW49794  10.039   3.635   3.810
49321SOL    HW149795  10.055   3.647   3.904
49321SOL    HW249796   9.966   3.574   3.806
49322SOL     OW49797   5.458   8.313   9.743
49322SOL    HW149798   5.445   8.221   9.720
49322SOL    HW249799   5.506   8.350   9.669
49323SOL     OW49800  11.374   7.281  11.608
49323SOL    HW149801  11.361   7.271  11.703
49323SOL    HW249802  11.340   7.200  11.571
49324SOL     OW49803   1.378   4.540   1.387
49324SOL    HW149804   1.430   4.552   1.308
49324SOL    HW249805   1.315   4.612   1.386
49325SOL     OW49806   9.421   5.690   8.895
49325SOL    HW149807   9.477   5.757   8.934
49325SOL    HW249808   9.482   5.625   8.861
49326SOL     OW49809   3.250   2.965  14.535
49326SOL    HW149810   3.273   2.948  14.444
49326SOL    HW249811   3.154   2.969  14.535
49327SOL     OW49812   1.695  10.565   0.913
49327SOL    HW149813   1.649  10.546   0.831
49327SOL    HW249814   1.738  10.484   0.936
49328SOL     OW49815   9.658   7.318   1.929
49328SOL    HW149816   9.596   7.290   1.862
49328SOL    HW249817   9.609   7.311   2.011
49329SOL     OW49818   2.433   3.748  13.379
49329SOL    HW149819   2.376   3.806  13.429
49329SOL    HW249820   2.384   3.666  13.372
49330SOL     OW49821  14.265   4.526  10.662
49330SOL    HW149822  14.238   4.618  10.656
49330SOL    HW249823  14.199   4.479  10.610
49331SOL     OW49824  12.725   1.564  10.671
49331SOL    HW149825  12.743   1.585  10.579
49331SOL    HW249826  12.780   1.488  10.689
49332SOL     OW49827   9.924   4.146   7.635
49332SOL    HW149828   9.898   4.072   7.581
49332SOL    HW249829   9.842   4.193   7.654
49333SOL     OW49830  12.652   5.626   0.000
49333SOL    HW149831  12.567   5.581   0.006
49333SOL    HW249832  12.638   5.710   0.044
49334SOL     OW49833   7.441   4.406  12.132
49334SOL    HW149834   7.468   4.459  12.057
49334SOL    HW249835   7.401   4.328  12.093
49335SOL     OW49836   9.234   2.694  13.018
49335SOL    HW149837   9.155   2.664  13.063
49335SOL    HW249838   9.220   2.787  13.005
49336SOL     OW49839   1.707   4.312   9.775
49336SOL    HW149840   1.655   4.268   9.843
49336SOL    HW249841   1.648   4.380   9.741
49337SOL     OW49842  13.467   9.567  10.001
49337SOL    HW149843  13.390   9.511  10.007
49337SOL    HW249844  13.522   9.525   9.935
49338SOL     OW49845   1.690   8.778  10.291
49338SOL    HW149846   1.776   8.815  10.270
49338SOL    HW249847   1.631   8.821  10.230
49339SOL     OW49848  11.641   7.542  14.655
49339SOL    HW149849  11.560   7.567  14.612
49339SOL    HW249850  11.613   7.501  14.736
49340SOL     OW49851   9.515   7.883   5.903
49340SOL    HW149852   9.439   7.902   5.958
49340SOL    HW249853   9.481   7.883   5.813
49341SOL     OW49854   1.117   4.603   2.618
49341SOL    HW149855   1.131   4.692   2.584
49341SOL    HW249856   1.166   4.601   2.700
49342SOL     OW49857   7.140   2.974   6.146
49342SOL    HW149858   7.054   3.015   6.158
49342SOL    HW249859   7.125   2.883   6.173
49343SOL     OW49860   0.207  14.380  11.327
49343SOL    HW149861   0.147  14.350  11.258
49343SOL    HW249862   0.168  14.462  11.358
49344SOL     OW49863   8.272  14.364   0.882
49344SOL    HW149864   8.355  14.324   0.854
49344SOL    HW249865   8.204  14.306   0.848
49345SOL     OW49866   0.018  10.139   4.779
49345SOL    HW149867  14.812  10.176   4.787
49345SOL    HW249868   0.003  10.048   4.754
49346SOL     OW49869   5.973  13.575   3.900
49346SOL    HW149870   6.068  13.575   3.894
49346SOL    HW249871   5.946  13.490   3.865
49347SOL     OW49872   8.479  12.907  14.564
49347SOL    HW149873   8.533  12.973  14.520
49347SOL    HW249874   8.447  12.950  14.643
49348SOL     OW49875   9.534  12.311  11.452
49348SOL    HW149876   9.462  12.280  11.507
49348SOL    HW249877   9.597  12.238  11.452
49349SOL     OW49878   2.433  10.468   7.055
49349SOL    HW149879   2.353  10.449   7.105
49349SOL    HW249880   2.464  10.552   7.090
49350SOL     OW49881   7.623   6.364  14.023
49350SOL    HW149882   7.530   6.381  14.005
49350SOL    HW249883   7.644   6.289  13.968
49351SOL     OW49884  10.250   2.005  10.143
49351SOL    HW149885  10.181   2.065  10.171
49351SOL    HW249886  10.306   2.057  10.086
49352SOL     OW49887   2.014   1.524   5.791
49352SOL    HW149888   2.082   1.520   5.859
49352SOL    HW249889   2.042   1.461   5.725
49353SOL     OW49890  10.548   0.457   4.198
49353SOL    HW149891  10.577   0.399   4.268
49353SOL    HW249892  10.618   0.521   4.188
49354SOL     OW49893   9.732  11.467   8.352
49354SOL    HW149894   9.731  11.405   8.279
49354SOL    HW249895   9.804  11.436   8.408
49355SOL     OW49896  12.467   1.195   7.775
49355SOL    HW149897  12.472   1.100   7.776
49355SOL    HW249898  12.558   1.225   7.767
49356SOL     OW49899  11.657   7.621   3.294
49356SOL    HW149900  11.577   7.665   3.323
49356SOL    HW249901  11.627   7.536   3.261
49357SOL     OW49902   1.538  13.955   3.775
49357SOL    HW149903   1.541  14.042   3.814
49357SOL    HW249904   1.505  13.969   3.686
49358SOL     OW49905   4.130   5.121  10.116
49358SOL    HW149906   4.148   5.137  10.024
49358SOL    HW249907   4.135   5.207  10.157
49359SOL     OW49908   0.230   1.117  10.689
49359SOL    HW149909   0.295   1.169  10.642
49359SOL    HW249910   0.187   1.065  10.622
49360SOL     OW49911   3.794   6.700   5.149
49360SOL    HW149912   3.887   6.717   5.133
49360SOL    HW249913   3.763   6.777   5.195
49361SOL     OW49914   8.823   4.110  12.831
49361SOL    HW149915   8.763   4.079  12.899
49361SOL    HW249916   8.910   4.096  12.868
49362SOL     OW49917   2.322   9.966   7.317
49362SOL    HW149918   2.393   9.971   7.253
49362SOL    HW249919   2.321  10.052   7.358
49363SOL     OW49920  14.075   8.566   8.330
49363SOL    HW149921  14.056   8.599   8.418
49363SOL    HW249922  14.166   8.589   8.314
49364SOL     OW49923   1.715   4.474   9.528
49364SOL    HW149924   1.623   4.486   9.553
49364SOL    HW249925   1.720   4.503   9.437
49365SOL     OW49926   6.022  14.246   2.053
49365SOL    HW149927   5.975  14.191   1.991
49365SOL    HW249928   6.030  14.193   2.132
49366SOL     OW49929   4.285   6.247  12.292
49366SOL    HW149930   4.314   6.242  12.201
49366SOL    HW249931   4.207   6.303  12.289
49367SOL     OW49932  10.048   9.124  10.982
49367SOL    HW149933  10.009   9.189  11.041
49367SOL    HW249934  10.111   9.077  11.036
49368SOL     OW49935   2.639   7.237   1.433
49368SOL    HW149936   2.592   7.178   1.493
49368SOL    HW249937   2.623   7.325   1.469
49369SOL     OW49938   9.084   3.830   1.278
49369SOL    HW149939   9.166   3.857   1.236
49369SOL    HW249940   9.069   3.895   1.347
49370SOL     OW49941  10.271  11.834   4.762
49370SOL    HW149942  10.350  11.841   4.816
49370SOL    HW249943  10.291  11.886   4.684
49371SOL     OW49944   7.689  13.627  14.659
49371SOL    HW149945   7.690  13.592  14.570
49371SOL    HW249946   7.606  13.595  14.696
49372SOL     OW49947   0.526   6.860  13.969
49372SOL    HW149948   0.590   6.855  13.898
49372SOL    HW249949   0.568   6.916  14.035
49373SOL     OW49950   7.720   1.063   8.366
49373SOL    HW149951   7.726   1.105   8.280
49373SOL    HW249952   7.786   1.108   8.419
49374SOL     OW49953   8.263  10.955   3.556
49374SOL    HW149954   8.277  10.863   3.533
49374SOL    HW249955   8.238  10.997   3.474
49375SOL     OW49956  13.945   6.292   1.872
49375SOL    HW149957  13.903   6.219   1.916
49375SOL    HW249958  13.915   6.287   1.781
49376SOL     OW49959   0.670   1.713  13.919
49376SOL    HW149960   0.684   1.622  13.892
49376SOL    HW249961   0.645   1.706  14.011
49377SOL     OW49962   2.840   4.236   4.414
49377SOL    HW149963   2.909   4.267   4.473
49377SOL    HW249964   2.795   4.316   4.386
49378SOL     OW49965  10.097   5.642   6.649
49378SOL    HW149966  10.043   5.716   6.623
49378SOL    HW249967  10.178   5.652   6.599
49379SOL     OW49968  11.573   6.922  10.870
49379SOL    HW149969  11.595   6.833  10.841
49379SOL    HW249970  11.589   6.976  10.793
49380SOL     OW49971   4.684   9.740  13.597
49380SOL    HW149972   4.709   9.655  13.561
49380SOL    HW249973   4.738   9.803  13.550
49381SOL     OW49974   5.211   5.077   2.422
49381SOL    HW149975   5.221   4.984   2.442
49381SOL    HW249976   5.210   5.081   2.327
49382SOL     OW49977   3.625   3.856  10.231
49382SOL    HW149978   3.651   3.785  10.289
49382SOL    HW249979   3.531   3.845  10.221
49383SOL     OW49980   7.769   6.932   1.282
49383SOL    HW149981   7.794   6.843   1.306
49383SOL    HW249982   7.676   6.938   1.305
49384SOL     OW49983  12.169   4.858  10.164
49384SOL    HW149984  12.158   4.792  10.096
49384SOL    HW249985  12.105   4.926  10.143
49385SOL     OW49986   9.391   8.237   9.669
49385SOL    HW149987   9.441   8.314   9.699
49385SOL    HW249988   9.428   8.164   9.720
49386SOL     OW49989  11.719   9.933   8.611
49386SOL    HW149990  11.691   9.952   8.701
49386SOL    HW249991  11.655   9.869   8.579
49387SOL     OW49992   4.498   4.652   2.764
49387SOL    HW149993   4.510   4.703   2.684
49387SOL    HW249994   4.490   4.717   2.833
49388SOL     OW49995   6.937  14.551   0.153
49388SOL    HW149996   6.913  14.622   0.093
49388SOL    HW249997   6.973  14.484   0.096
49389SOL     OW49998   3.913   0.849   5.456
49389SOL    HW149999   3.833   0.868   5.506
49389SOL    HW250000   3.887   0.861   5.364
49390SOL     OW50001  13.818   0.432   7.965
49390SOL    HW150002  13.874   0.372   7.915
49390SOL    HW250003  13.749   0.457   7.904
49391SOL     OW50004  13.424   4.512   2.172
49391SOL    HW150005  13.390   4.429   2.205
49391SOL    HW250006  13.376   4.579   2.220
49392SOL     OW50007   1.955   7.664   8.783
49392SOL    HW150008   1.875   7.626   8.749
49392SOL    HW250009   1.959   7.751   8.744
49393SOL     OW50010   1.963   7.360   8.162
49393SOL    HW150011   1.949   7.282   8.216
49393SOL    HW250012   1.893   7.420   8.188
49394SOL     OW50013   7.745   8.130  13.015
49394SOL    HW150014   7.732   8.069  13.087
49394SOL    HW250015   7.738   8.216  13.055
49395SOL     OW50016   3.164   0.221   1.153
49395SOL    HW150017   3.094   0.228   1.088
49395SOL    HW250018   3.242   0.251   1.109
49396SOL     OW50019  12.551  10.752   0.730
49396SOL    HW150020  12.566  10.797   0.814
49396SOL    HW250021  12.559  10.822   0.665
49397SOL     OW50022   7.693   0.721   2.579
49397SOL    HW150023   7.705   0.664   2.503
49397SOL    HW250024   7.607   0.697   2.614
49398SOL     OW50025  11.748   5.153   1.607
49398SOL    HW150026  11.798   5.071   1.605
49398SOL    HW250027  11.815   5.221   1.596
49399SOL     OW50028  14.009  11.089  14.203
49399SOL    HW150029  13.939  11.045  14.153
49399SOL    HW250030  13.964  11.160  14.248
49400SOL     OW50031   7.970  14.231  12.173
49400SOL    HW150032   7.985  14.142  12.205
49400SOL    HW250033   8.041  14.246  12.111
49401SOL     OW50034   8.086  12.047  13.211
49401SOL    HW150035   8.172  12.061  13.171
49401SOL    HW250036   8.024  12.067  13.142
49402SOL     OW50037   4.432  11.465   4.446
49402SOL    HW150038   4.376  11.390   4.465
49402SOL    HW250039   4.384  11.541   4.478
49403SOL     OW50040  11.644   5.128  10.150
49403SOL    HW150041  11.610   5.043  10.124
49403SOL    HW250042  11.726   5.108  10.196
49404SOL     OW50043   9.017   4.022   7.627
49404SOL    HW150044   8.949   3.970   7.583
49404SOL    HW250045   9.026   4.100   7.572
49405SOL     OW50046   7.349   1.867   0.137
49405SOL    HW150047   7.388   1.931   0.197
49405SOL    HW250048   7.279   1.916   0.093
49406SOL     OW50049  13.375   6.643   9.159
49406SOL    HW150050  13.395   6.627   9.066
49406SOL    HW250051  13.415   6.727   9.179
49407SOL     OW50052   8.121   3.284   3.584
49407SOL    HW150053   8.206   3.327   3.574
49407SOL    HW250054   8.075   3.303   3.502
49408SOL     OW50055  14.081  13.114  14.391
49408SOL    HW150056  14.094  13.044  14.327
49408SOL    HW250057  14.022  13.176  14.347
49409SOL     OW50058   0.526   0.961   5.770
49409SOL    HW150059   0.569   1.036   5.730
49409SOL    HW250060   0.597   0.913   5.813
49410SOL     OW50061   3.273   8.847   5.553
49410SOL    HW150062   3.290   8.845   5.459
49410SOL    HW250063   3.289   8.938   5.579
49411SOL     OW50064  14.639   5.027  10.373
49411SOL    HW150065  14.608   5.106  10.329
49411SOL    HW250066  14.687   4.979  10.305
49412SOL     OW50067   2.577   8.665   9.401
49412SOL    HW150068   2.562   8.587   9.454
49412SOL    HW250069   2.491   8.685   9.363
49413SOL     OW50070  12.423   1.442   1.216
49413SOL    HW150071  12.424   1.535   1.237
49413SOL    HW250072  12.361   1.433   1.144
49414SOL     OW50073   0.745   3.577  13.390
49414SOL    HW150074   0.833   3.575  13.352
49414SOL    HW250075   0.687   3.552  13.318
49415SOL     OW50076   1.370   2.779   3.793
49415SOL    HW150077   1.444   2.827   3.754
49415SOL    HW250078   1.405   2.742   3.874
49416SOL     OW50079  11.444   4.321  10.317
49416SOL    HW150080  11.524   4.303  10.367
49416SOL    HW250081  11.408   4.401  10.356
49417SOL     OW50082  11.160  12.338  11.417
49417SOL    HW150083  11.205  12.397  11.478
49417SOL    HW250084  11.223  12.325  11.345
49418SOL     OW50085   1.101   4.449   6.367
49418SOL    HW150086   1.053   4.436   6.285
49418SOL    HW250087   1.169   4.513   6.344
49419SOL     OW50088   7.752   0.291  12.234
49419SOL    HW150089   7.792   0.207  12.258
49419SOL    HW250090   7.694   0.312  12.307
49420SOL     OW50091  11.444  13.814   0.953
49420SOL    HW150092  11.529  13.817   0.997
49420SOL    HW250093  11.459  13.761   0.875
49421SOL     OW50094  14.438  12.559   4.309
49421SOL    HW150095  14.480  12.522   4.231
49421SOL    HW250096  14.489  12.637   4.329
49422SOL     OW50097   8.027   0.499   4.978
49422SOL    HW150098   7.949   0.534   4.935
49422SOL    HW250099   8.084   0.472   4.906
49423SOL     OW50100   1.371   4.303   9.500
49423SOL    HW150101   1.399   4.394   9.507
49423SOL    HW250102   1.446   4.257   9.463
49424SOL     OW50103  11.648   4.832   0.689
49424SOL    HW150104  11.560   4.794   0.682
49424SOL    HW250105  11.657   4.855   0.781
49425SOL     OW50106  13.831  14.822   2.878
49425SOL    HW150107  13.849  14.756   2.811
49425SOL    HW250108  13.772   0.002   2.835
49426SOL     OW50109   0.334   8.754   6.498
49426SOL    HW150110   0.374   8.840   6.484
49426SOL    HW250111   0.350   8.706   6.417
49427SOL     OW50112   8.279  10.557   9.549
49427SOL    HW150113   8.371  10.577   9.533
49427SOL    HW250114   8.264  10.580   9.641
49428SOL     OW50115   9.596   3.806   3.673
49428SOL    HW150116   9.617   3.876   3.612
49428SOL    HW250117   9.674   3.751   3.675
49429SOL     OW50118   9.705  12.149   6.781
49429SOL    HW150119   9.645  12.115   6.847
49429SOL    HW250120   9.792  12.132   6.818
49430SOL     OW50121   5.710   5.267   0.358
49430SOL    HW150122   5.767   5.247   0.433
49430SOL    HW250123   5.633   5.213   0.372
49431SOL     OW50124  12.898  11.790  13.933
49431SOL    HW150125  12.992  11.808  13.922
49431SOL    HW250126  12.895  11.703  13.973
49432SOL     OW50127   2.297   5.504   6.057
49432SOL    HW150128   2.283   5.599   6.062
49432SOL    HW250129   2.231   5.467   6.115
49433SOL     OW50130   3.501   2.988   8.895
49433SOL    HW150131   3.415   3.029   8.906
49433SOL    HW250132   3.500   2.954   8.806
49434SOL     OW50133  12.353   5.333   9.554
49434SOL    HW150134  12.441   5.370   9.551
49434SOL    HW250135  12.333   5.312   9.463
49435SOL     OW50136   2.572  14.605  11.451
49435SOL    HW150137   2.483  14.629  11.424
49435SOL    HW250138   2.584  14.648  11.535
49436SOL     OW50139  10.513   2.555   2.185
49436SOL    HW150140  10.476   2.501   2.115
49436SOL    HW250141  10.600   2.579   2.153
49437SOL     OW50142   8.217   6.575  13.297
49437SOL    HW150143   8.184   6.524  13.372
49437SOL    HW250144   8.141   6.626  13.268
49438SOL     OW50145  11.844   3.133   4.951
49438SOL    HW150146  11.809   3.137   5.040
49438SOL    HW250147  11.924   3.082   4.958
49439SOL     OW50148   2.124   7.992  11.468
49439SOL    HW150149   2.132   7.910  11.419
49439SOL    HW250150   2.190   7.984  11.538
49440SOL     OW50151  10.611   8.541  10.063
49440SOL    HW150152  10.652   8.623  10.089
49440SOL    HW250153  10.665   8.473  10.104
49441SOL     OW50154   7.974   9.392  11.971
49441SOL    HW150155   8.002   9.322  11.912
49441SOL    HW250156   7.937   9.346  12.047
49442SOL     OW50157  14.707  12.381   4.672
49442SOL    HW150158  14.795  12.396   4.705
49442SOL    HW250159  14.717  12.374   4.577
49443SOL     OW50160   1.859  11.864   4.093
49443SOL    HW150161   1.922  11.793   4.084
49443SOL    HW250162   1.905  11.942   4.061
49444SOL     OW50163   7.017  10.064  12.448
49444SOL    HW150164   7.101  10.103  12.474
49444SOL    HW250165   6.983  10.122  12.381
49445SOL     OW50166   6.355  11.753   9.730
49445SOL    HW150167   6.366  11.659   9.715
49445SOL    HW250168   6.261  11.766   9.732
49446SOL     OW50169   3.822  14.307   5.419
49446SOL    HW150170   3.744  14.274   5.374
49446SOL    HW250171   3.820  14.265   5.505
49447SOL     OW50172   6.512   3.632   2.086
49447SOL    HW150173   6.507   3.568   2.157
49447SOL    HW250174   6.547   3.582   2.012
49448SOL     OW50175  11.224   4.930  11.169
49448SOL    HW150176  11.262   4.870  11.105
49448SOL    HW250177  11.276   5.010  11.160
49449SOL     OW50178  13.617   9.230   2.532
49449SOL    HW150179  13.701   9.272   2.515
49449SOL    HW250180  13.629   9.139   2.504
49450SOL     OW50181   4.301   7.768   4.568
49450SOL    HW150182   4.348   7.770   4.485
49450SOL    HW250183   4.213   7.799   4.546
49451SOL     OW50184  14.043  14.515   6.586
49451SOL    HW150185  14.049  14.420   6.585
49451SOL    HW250186  13.955  14.533   6.619
49452SOL     OW50187   3.394  12.331   0.793
49452SOL    HW150188   3.313  12.304   0.837
49452SOL    HW250189   3.364  12.391   0.724
49453SOL     OW50190   9.510   3.366   9.960
49453SOL    HW150191   9.597   3.327   9.953
49453SOL    HW250192   9.523   3.458   9.937
49454SOL     OW50193   8.445   9.336   2.780
49454SOL    HW150194   8.528   9.323   2.735
49454SOL    HW250195   8.380   9.297   2.722
49455SOL     OW50196   8.111  13.214  11.323
49455SOL    HW150197   8.161  13.145  11.367
49455SOL    HW250198   8.070  13.170  11.249
49456SOL     OW50199   2.612   9.589   9.772
49456SOL    HW150200   2.617   9.681   9.796
49456SOL    HW250201   2.702   9.557   9.779
49457SOL     OW50202  10.481   2.878   1.391
49457SOL    HW150203  10.436   2.945   1.441
49457SOL    HW250204  10.412   2.839   1.336
49458SOL     OW50205   5.213   3.996   5.842
49458SOL    HW150206   5.235   4.083   5.808
49458SOL    HW250207   5.127   3.977   5.805
49459SOL     OW50208   6.055   0.364   7.052
49459SOL    HW150209   6.062   0.271   7.076
49459SOL    HW250210   6.065   0.411   7.135
49460SOL     OW50211   7.224  11.924   6.348
49460SOL    HW150212   7.307  11.883   6.323
49460SOL    HW250213   7.240  11.958   6.436
49461SOL     OW50214   3.149   7.988  13.285
49461SOL    HW150215   3.181   7.928  13.352
49461SOL    HW250216   3.091   8.048  13.333
49462SOL     OW50217   1.608  10.835  14.160
49462SOL    HW150218   1.529  10.828  14.106
49462SOL    HW250219   1.584  10.792  14.242
49463SOL     OW50220   6.058  12.771   3.532
49463SOL    HW150221   5.994  12.709   3.498
49463SOL    HW250222   6.126  12.716   3.572
49464SOL     OW50223   4.865   7.089  11.724
49464SOL    HW150224   4.916   7.126  11.653
49464SOL    HW250225   4.798   7.155  11.743
49465SOL     OW50226  14.804   2.007   5.932
49465SOL    HW150227  14.865   2.067   5.973
49465SOL    HW250228  14.859   1.933   5.904
49466SOL     OW50229  10.131   5.110  12.623
49466SOL    HW150230  10.205   5.167  12.643
49466SOL    HW250231  10.157   5.065  12.542
49467SOL     OW50232   1.163  13.608  13.889
49467SOL    HW150233   1.122  13.679  13.840
49467SOL    HW250234   1.244  13.590  13.841
49468SOL     OW50235   7.359   0.563  12.508
49468SOL    HW150236   7.391   0.613  12.582
49468SOL    HW250237   7.275   0.528  12.537
49469SOL     OW50238   3.924   9.305  11.357
49469SOL    HW150239   3.853   9.326  11.417
49469SOL    HW250240   3.905   9.216  11.327
49470SOL     OW50241  12.109   5.586   9.248
49470SOL    HW150242  12.155   5.636   9.316
49470SOL    HW250243  12.048   5.649   9.210
49471SOL     OW50244   5.753   2.861   8.947
49471SOL    HW150245   5.707   2.814   8.878
49471SOL    HW250246   5.841   2.823   8.947
49472SOL     OW50247  12.620   3.074  14.686
49472SOL    HW150248  12.536   3.044  14.651
49472SOL    HW250249  12.636   3.157  14.642
49473SOL     OW50250  14.491   7.137   6.512
49473SOL    HW150251  14.523   7.110   6.427
49473SOL    HW250252  14.446   7.060   6.547
49474SOL     OW50253  13.360   3.279   0.726
49474SOL    HW150254  13.444   3.263   0.770
49474SOL    HW250255  13.376   3.355   0.670
49475SOL     OW50256  14.010   9.779  12.839
49475SOL    HW150257  13.954   9.703  12.856
49475SOL    HW250258  14.055   9.795  12.922
49476SOL     OW50259   6.444  14.452   8.999
49476SOL    HW150260   6.458  14.419   8.910
49476SOL    HW250261   6.509  14.522   9.009
49477SOL     OW50262   4.993  11.058   1.702
49477SOL    HW150263   5.023  11.099   1.783
49477SOL    HW250264   5.074  11.042   1.652
49478SOL     OW50265  13.420   4.019  12.498
49478SOL    HW150266  13.478   4.089  12.528
49478SOL    HW250267  13.451   3.998  12.410
49479SOL     OW50268   3.353   3.172  11.623
49479SOL    HW150269   3.379   3.264  11.615
49479SOL    HW250270   3.419   3.134  11.681
49480SOL     OW50271   3.907  14.631  11.305
49480SOL    HW150272   3.874  14.629  11.395
49480SOL    HW250273   3.886  14.544  11.270
49481SOL     OW50274   1.156   6.037   5.152
49481SOL    HW150275   1.095   5.964   5.163
49481SOL    HW250276   1.164   6.075   5.240
49482SOL     OW50277   9.563  12.510   5.450
49482SOL    HW150278   9.635  12.476   5.503
49482SOL    HW250279   9.486  12.500   5.506
49483SOL     OW50280   7.379   2.996   9.686
49483SOL    HW150281   7.345   3.061   9.624
49483SOL    HW250282   7.335   3.017   9.768
49484SOL     OW50283  13.082   5.670   7.810
49484SOL    HW150284  13.148   5.648   7.876
49484SOL    HW250285  13.002   5.627   7.841
49485SOL     OW50286   5.039   1.000  13.833
49485SOL    HW150287   5.027   1.003  13.928
49485SOL    HW250288   5.133   1.015  13.820
49486SOL     OW50289   8.470  11.873   4.324
49486SOL    HW150290   8.564  11.867   4.308
49486SOL    HW250291   8.436  11.925   4.251
49487SOL     OW50292   6.628   1.466   3.930
49487SOL    HW150293   6.661   1.556   3.939
49487SOL    HW250294   6.596   1.462   3.840
49488SOL     OW50295  12.088   5.698   0.935
49488SOL    HW150296  12.114   5.788   0.953
49488SOL    HW250297  11.998   5.704   0.905
49489SOL     OW50298  11.989  10.231   1.568
49489SOL    HW150299  11.993  10.320   1.601
49489SOL    HW250300  11.904  10.199   1.597
49490SOL     OW50301  10.770   6.319   7.854
49490SOL    HW150302  10.709   6.245   7.851
49490SOL    HW250303  10.851   6.284   7.819
49491SOL     OW50304   6.593   5.822   5.764
49491SOL    HW150305   6.528   5.841   5.697
49491SOL    HW250306   6.557   5.860   5.844
49492SOL     OW50307   6.148   9.775  11.837
49492SOL    HW150308   6.075   9.713  11.837
49492SOL    HW250309   6.191   9.761  11.752
49493SOL     OW50310  14.747   7.759   2.199
49493SOL    HW150311  14.690   7.824   2.241
49493SOL    HW250312  14.770   7.699   2.270
49494SOL     OW50313   2.994  12.830  11.032
49494SOL    HW150314   2.953  12.774  10.967
49494SOL    HW250315   3.066  12.778  11.067
49495SOL     OW50316  12.789   2.718  10.306
49495SOL    HW150317  12.728   2.644  10.306
49495SOL    HW250318  12.761   2.772  10.232
49496SOL     OW50319   8.504   7.588   1.203
49496SOL    HW150320   8.502   7.492   1.204
49496SOL    HW250321   8.412   7.614   1.199
49497SOL     OW50322   6.573  12.616   5.475
49497SOL    HW150323   6.511  12.628   5.546
49497SOL    HW250324   6.593  12.705   5.445
49498SOL     OW50325   5.638   9.075   9.092
49498SOL    HW150326   5.631   9.138   9.021
49498SOL    HW250327   5.556   9.085   9.141
49499SOL     OW50328  13.556  12.989   4.417
49499SOL    HW150329  13.606  12.911   4.391
49499SOL    HW250330  13.562  12.991   4.512
49500SOL     OW50331   2.569  12.114   6.158
49500SOL    HW150332   2.581  12.020   6.151
49500SOL    HW250333   2.537  12.141   6.071
49501SOL     OW50334   5.942   9.416   7.160
49501SOL    HW150335   5.866   9.465   7.130
49501SOL    HW250336   5.967   9.361   7.086
49502SOL     OW50337   9.188  13.113   9.689
49502SOL    HW150338   9.133  13.176   9.641
49502SOL    HW250339   9.189  13.035   9.633
49503SOL     OW50340   0.483  12.080   5.624
49503SOL    HW150341   0.480  12.049   5.533
49503SOL    HW250342   0.541  12.156   5.621
49504SOL     OW50343   9.031   2.316   5.717
49504SOL    HW150344   9.123   2.332   5.735
49504SOL    HW250345   9.026   2.298   5.623
49505SOL     OW50346   0.634   7.187  14.860
49505SOL    HW150347   0.555   7.133  14.871
49505SOL    HW250348   0.694   7.155   0.046
49506SOL     OW50349  10.816   8.428   3.973
49506SOL    HW150350  10.831   8.353   4.031
49506SOL    HW250351  10.892   8.485   3.987
49507SOL     OW50352   5.808   6.491   0.146
49507SOL    HW150353   5.847   6.512   0.062
49507SOL    HW250354   5.870   6.430   0.187
49508SOL     OW50355  12.108   9.455   6.117
49508SOL    HW150356  12.052   9.430   6.043
49508SOL    HW250357  12.046   9.479   6.186
49509SOL     OW50358   7.252   3.437  13.123
49509SOL    HW150359   7.293   3.354  13.098
49509SOL    HW250360   7.313   3.504  13.094
49510SOL     OW50361   0.874  13.300   5.411
49510SOL    HW150362   0.962  13.279   5.381
49510SOL    HW250363   0.866  13.395   5.397
49511SOL     OW50364   2.940  14.492  12.748
49511SOL    HW150365   2.987  14.505  12.666
49511SOL    HW250366   2.855  14.456  12.722
49512SOL     OW50367   9.323  10.604   0.003
49512SOL    HW150368   9.301  10.592   0.096
49512SOL    HW250369   9.292  10.693  14.865
49513SOL     OW50370   9.724   4.602   8.145
49513SOL    HW150371   9.643   4.552   8.149
49513SOL    HW250372   9.703   4.686   8.187
49514SOL     OW50373  14.181   1.186   2.697
49514SOL    HW150374  14.199   1.199   2.604
49514SOL    HW250375  14.093   1.222   2.710
49515SOL     OW50376   2.361  13.175   7.969
49515SOL    HW150377   2.338  13.225   7.891
49515SOL    HW250378   2.296  13.200   8.034
49516SOL     OW50379   2.054   2.810   6.187
49516SOL    HW150380   1.991   2.811   6.260
49516SOL    HW250381   2.086   2.720   6.185
49517SOL     OW50382   1.544   9.782  12.970
49517SOL    HW150383   1.619   9.810  13.022
49517SOL    HW250384   1.573   9.702  12.926
49518SOL     OW50385  11.747  10.827   3.401
49518SOL    HW150386  11.746  10.913   3.358
49518SOL    HW250387  11.775  10.767   3.332
49519SOL     OW50388  13.454   6.564  13.413
49519SOL    HW150389  13.490   6.653  13.408
49519SOL    HW250390  13.484   6.532  13.498
49520SOL     OW50391  11.126   8.326   3.035
49520SOL    HW150392  11.171   8.279   3.105
49520SOL    HW250393  11.034   8.326   3.062
49521SOL     OW50394  12.212   7.293   2.410
49521SOL    HW150395  12.183   7.325   2.325
49521SOL    HW250396  12.293   7.342   2.428
49522SOL     OW50397  12.796   9.365   5.760
49522SOL    HW150398  12.885   9.398   5.774
49522SOL    HW250399  12.790   9.351   5.665
49523SOL     OW50400   6.107  14.340  13.753
49523SOL    HW150401   6.038  14.295  13.803
49523SOL    HW250402   6.092  14.433  13.770
49524SOL     OW50403   8.536   3.167   3.019
49524SOL    HW150404   8.565   3.143   2.931
49524SOL    HW250405   8.464   3.106   3.038
49525SOL     OW50406   4.080   0.786   4.516
49525SOL    HW150407   4.167   0.797   4.477
49525SOL    HW250408   4.059   0.694   4.501
49526SOL     OW50409   7.603  14.125   9.054
49526SOL    HW150410   7.622  14.117   9.148
49526SOL    HW250411   7.629  14.214   9.031
49527SOL     OW50412   3.587  11.427  11.553
49527SOL    HW150413   3.535  11.364  11.603
49527SOL    HW250414   3.566  11.408  11.462
49528SOL     OW50415   5.758   5.896   5.203
49528SOL    HW150416   5.808   5.833   5.152
49528SOL    HW250417   5.823   5.939   5.258
49529SOL     OW50418   0.389  11.383   6.261
49529SOL    HW150419   0.370  11.425   6.177
49529SOL    HW250420   0.432  11.301   6.238
49530SOL     OW50421  14.079   3.613   5.246
49530SOL    HW150422  14.052   3.522   5.236
49530SOL    HW250423  14.168   3.608   5.281
49531SOL     OW50424   6.880   6.435  10.899
49531SOL    HW150425   6.848   6.470  10.982
49531SOL    HW250426   6.973   6.459  10.897
49532SOL     OW50427   1.691   5.829  12.158
49532SOL    HW150428   1.603   5.863  12.147
49532SOL    HW250429   1.733   5.843  12.073
49533SOL     OW50430   7.928   7.895   7.867
49533SOL    HW150431   7.833   7.899   7.877
49533SOL    HW250432   7.942   7.818   7.812
49534SOL     OW50433   7.424   0.653   5.022
49534SOL    HW150434   7.388   0.739   5.040
49534SOL    HW250435   7.426   0.646   4.927
49535SOL     OW50436   0.802  10.820   7.967
49535SOL    HW150437   0.761  10.766   7.900
49535SOL    HW250438   0.887  10.843   7.931
49536SOL     OW50439   9.086   6.336  12.963
49536SOL    HW150440   9.111   6.289  13.043
49536SOL    HW250441   9.054   6.267  12.904
49537SOL     OW50442   7.679  11.787  10.434
49537SOL    HW150443   7.584  11.771  10.428
49537SOL    HW250444   7.686  11.876  10.469
49538SOL     OW50445  12.504   0.492  10.637
49538SOL    HW150446  12.586   0.525  10.600
49538SOL    HW250447  12.506   0.398  10.620
49539SOL     OW50448   1.242   5.572  11.815
49539SOL    HW150449   1.313   5.548  11.874
49539SOL    HW250450   1.187   5.493  11.811
49540SOL     OW50451  11.638   5.511   2.195
49540SOL    HW150452  11.545   5.515   2.174
49540SOL    HW250453  11.641   5.503   2.290
49541SOL     OW50454  13.887  13.501   9.172
49541SOL    HW150455  13.953  13.538   9.231
49541SOL    HW250456  13.806  13.506   9.222
49542SOL     OW50457   9.097  14.871   0.524
49542SOL    HW150458   9.007   0.003   0.553
49542SOL    HW250459   9.088  14.831   0.438
49543SOL     OW50460   4.821  11.143  12.239
49543SOL    HW150461   4.916  11.142  12.231
49543SOL    HW250462   4.795  11.230  12.211
49544SOL     OW50463   0.045   2.467   5.409
49544SOL    HW150464  14.860   2.519   5.363
49544SOL    HW250465   0.128   2.507   5.385
49545SOL     OW50466  14.655   4.739   0.472
49545SOL    HW150467  14.663   4.645   0.490
49545SOL    HW250468  14.699   4.781   0.546
49546SOL     OW50469   3.544   4.492   8.150
49546SOL    HW150470   3.462   4.499   8.100
49546SOL    HW250471   3.609   4.536   8.096
49547SOL     OW50472   7.921  13.570  12.601
49547SOL    HW150473   7.972  13.520  12.665
49547SOL    HW250474   7.911  13.657  12.640
49548SOL     OW50475  10.915   6.280   3.123
49548SOL    HW150476  10.951   6.368   3.116
49548SOL    HW250477  10.872   6.277   3.208
49549SOL     OW50478   4.469   2.301  13.353
49549SOL    HW150479   4.403   2.232  13.343
49549SOL    HW250480   4.432   2.377  13.309
49550SOL     OW50481   1.780  14.201   5.973
49550SOL    HW150482   1.749  14.115   6.000
49550SOL    HW250483   1.841  14.183   5.901
49551SOL     OW50484  12.944   6.547   0.200
49551SOL    HW150485  12.997   6.469   0.185
49551SOL    HW250486  12.880   6.520   0.266
49552SOL     OW50487   4.207  10.856   5.019
49552SOL    HW150488   4.211  10.840   5.113
49552SOL    HW250489   4.174  10.946   5.011
49553SOL     OW50490   2.360  13.961  14.651
49553SOL    HW150491   2.455  13.975  14.661
49553SOL    HW250492   2.327  14.045  14.620
49554SOL     OW50493   3.110   7.102   5.627
49554SOL    HW150494   3.165   7.076   5.552
49554SOL    HW250495   3.154   7.062   5.702
49555SOL     OW50496  13.447   9.398  13.630
49555SOL    HW150497  13.356   9.429  13.630
49555SOL    HW250498  13.488   9.444  13.703
49556SOL     OW50499  11.773   4.144   2.601
49556SOL    HW150500  11.773   4.235   2.572
49556SOL    HW250501  11.863   4.126   2.626
49557SOL     OW50502   3.474   5.395  10.536
49557SOL    HW150503   3.467   5.489  10.549
49557SOL    HW250504   3.384   5.362  10.541
49558SOL     OW50505   0.719   6.399   9.087
49558SOL    HW150506   0.699   6.329   9.149
49558SOL    HW250507   0.734   6.354   9.003
49559SOL     OW50508  11.961  11.876  13.448
49559SOL    HW150509  12.036  11.899  13.502
49559SOL    HW250510  11.969  11.781  13.435
49560SOL     OW50511   4.008   2.895  12.785
49560SOL    HW150512   3.979   2.862  12.870
49560SOL    HW250513   4.077   2.959  12.807
49561SOL     OW50514  12.633   0.378  13.030
49561SOL    HW150515  12.606   0.410  13.116
49561SOL    HW250516  12.568   0.414  12.970
49562SOL     OW50517   4.485   8.437   0.724
49562SOL    HW150518   4.577   8.447   0.751
49562SOL    HW250519   4.464   8.346   0.743
49563SOL     OW50520   0.524   1.960   3.478
49563SOL    HW150521   0.432   1.934   3.473
49563SOL    HW250522   0.523   2.043   3.524
49564SOL     OW50523  12.531   2.753   7.113
49564SOL    HW150524  12.573   2.758   7.199
49564SOL    HW250525  12.510   2.660   7.102
49565SOL     OW50526   7.125  11.324   2.050
49565SOL    HW150527   7.032  11.337   2.071
49565SOL    HW250528   7.128  11.331   1.955
49566SOL     OW50529   7.856  12.017   2.631
49566SOL    HW150530   7.867  12.101   2.586
49566SOL    HW250531   7.941  11.999   2.670
49567SOL     OW50532   4.700  11.663   2.034
49567SOL    HW150533   4.605  11.659   2.021
49567SOL    HW250534   4.734  11.701   1.953
49568SOL     OW50535   0.931   2.214   2.740
49568SOL    HW150536   0.950   2.238   2.830
49568SOL    HW250537   0.984   2.274   2.687
49569SOL     OW50538  14.379  10.225   1.983
49569SOL    HW150539  14.290  10.217   2.016
49569SOL    HW250540  14.429  10.157   2.030
49570SOL     OW50541   1.755  10.411   0.409
49570SOL    HW150542   1.774  10.384   0.319
49570SOL    HW250543   1.663  10.387   0.422
49571SOL     OW50544   4.084  12.344   6.344
49571SOL    HW150545   4.086  12.422   6.289
49571SOL    HW250546   4.086  12.378   6.434
49572SOL     OW50547   3.038  14.020   1.794
49572SOL    HW150548   3.050  13.995   1.702
49572SOL    HW250549   3.127  14.034   1.827
49573SOL     OW50550   0.985  12.079   9.334
49573SOL    HW150551   0.945  12.056   9.251
49573SOL    HW250552   0.917  12.062   9.399
49574SOL     OW50553  14.260   1.277  13.323
49574SOL    HW150554  14.261   1.279  13.227
49574SOL    HW250555  14.352   1.276  13.348
49575SOL     OW50556  11.054  11.411   4.417
49575SOL    HW150557  10.986  11.363   4.370
49575SOL    HW250558  11.026  11.408   4.509
49576SOL     OW50559   0.045   8.338   2.901
49576SOL    HW150560   0.138   8.331   2.879
49576SOL    HW250561   0.000   8.312   2.820
49577SOL     OW50562  13.313   5.440   2.671
49577SOL    HW150563  13.283   5.469   2.757
49577SOL    HW250564  13.394   5.393   2.689
49578SOL     OW50565   1.329   3.156   7.339
49578SOL    HW150566   1.373   3.206   7.407
49578SOL    HW250567   1.288   3.083   7.386
49579SOL     OW50568   3.589   9.657  10.555
49579SOL    HW150569   3.562   9.689  10.469
49579SOL    HW250570   3.560   9.724  10.616
49580SOL     OW50571   0.438   3.820   2.533
49580SOL    HW150572   0.350   3.832   2.498
49580SOL    HW250573   0.434   3.737   2.580
49581SOL     OW50574   5.654   4.814  11.774
49581SOL    HW150575   5.715   4.755  11.730
49581SOL    HW250576   5.643   4.887  11.713
49582SOL     OW50577   1.841   9.054   4.375
49582SOL    HW150578   1.882   8.967   4.376
49582SOL    HW250579   1.806   9.063   4.286
49583SOL     OW50580   5.084   6.249  13.138
49583SOL    HW150581   5.160   6.202  13.173
49583SOL    HW250582   5.009   6.196  13.162
49584SOL     OW50583   8.591   3.730   8.062
49584SOL    HW150584   8.630   3.677   8.131
49584SOL    HW250585   8.499   3.702   8.060
49585SOL     OW50586   3.769  14.496  10.278
49585SOL    HW150587   3.769  14.521  10.185
49585SOL    HW250588   3.838  14.551  10.316
49586SOL     OW50589  12.860   8.942   4.201
49586SOL    HW150590  12.834   8.960   4.291
49586SOL    HW250591  12.910   9.019   4.174
49587SOL     OW50592  10.770  13.935   0.931
49587SOL    HW150593  10.750  14.028   0.920
49587SOL    HW250594  10.859  13.926   0.895
49588SOL     OW50595  12.113   6.304   4.000
49588SOL    HW150596  12.060   6.347   4.068
49588SOL    HW250597  12.161   6.236   4.047
49589SOL     OW50598  10.269   6.209  14.185
49589SOL    HW150599  10.220   6.179  14.261
49589SOL    HW250600  10.343   6.257  14.222
49590SOL     OW50601  11.138   9.296   6.641
49590SOL    HW150602  11.176   9.354   6.574
49590SOL    HW250603  11.050   9.329   6.655
49591SOL     OW50604   7.088  14.013   6.585
49591SOL    HW150605   7.121  13.947   6.524
49591SOL    HW250606   7.100  13.975   6.672
49592SOL     OW50607  12.435   8.081   3.562
49592SOL    HW150608  12.467   8.018   3.627
49592SOL    HW250609  12.346   8.051   3.542
49593SOL     OW50610   3.923  14.371   0.221
49593SOL    HW150611   4.013  14.364   0.250
49593SOL    HW250612   3.880  14.426   0.287
49594SOL     OW50613  13.392   0.182   9.818
49594SOL    HW150614  13.356   0.194   9.730
49594SOL    HW250615  13.461   0.249   9.825
49595SOL     OW50616   5.201   2.323   6.625
49595SOL    HW150617   5.127   2.265   6.605
49595SOL    HW250618   5.192   2.341   6.718
49596SOL     OW50619   8.018   6.329   6.691
49596SOL    HW150620   8.001   6.244   6.731
49596SOL    HW250621   8.012   6.392   6.762
49597SOL     OW50622   6.323  11.290   9.121
49597SOL    HW150623   6.250  11.342   9.086
49597SOL    HW250624   6.334  11.218   9.059
49598SOL     OW50625  11.631   9.876   2.538
49598SOL    HW150626  11.670   9.817   2.603
49598SOL    HW250627  11.544   9.840   2.522
49599SOL     OW50628  14.523   6.057   8.800
49599SOL    HW150629  14.466   6.133   8.783
49599SOL    HW250630  14.543   6.064   8.893
49600SOL     OW50631   1.441  11.660   2.201
49600SOL    HW150632   1.416  11.723   2.269
49600SOL    HW250633   1.386  11.683   2.126
49601SOL     OW50634   2.122   3.531   9.580
49601SOL    HW150635   2.073   3.586   9.640
49601SOL    HW250636   2.061   3.461   9.556
49602SOL     OW50637  10.185   4.721   0.596
49602SOL    HW150638  10.219   4.726   0.507
49602SOL    HW250639  10.146   4.807   0.612
49603SOL     OW50640  14.707   7.060  13.354
49603SOL    HW150641  14.617   7.091  13.357
49603SOL    HW250642  14.759   7.132  13.391
49604SOL     OW50643   0.498   3.705  14.452
49604SOL    HW150644   0.439   3.630  14.446
49604SOL    HW250645   0.494   3.731  14.544
49605SOL     OW50646   1.649   5.800   1.854
49605SOL    HW150647   1.577   5.855   1.823
49605SOL    HW250648   1.719   5.814   1.790
49606SOL     OW50649   4.152   5.850  10.127
49606SOL    HW150650   4.081   5.829  10.065
49606SOL    HW250651   4.215   5.900  10.075
49607SOL     OW50652   0.744   0.799   7.690
49607SOL    HW150653   0.697   0.715   7.687
49607SOL    HW250654   0.796   0.794   7.770
49608SOL     OW50655   5.818  10.570  10.007
49608SOL    HW150656   5.761  10.499  10.038
49608SOL    HW250657   5.771  10.607   9.932
49609SOL     OW50658   8.609   9.019   6.175
49609SOL    HW150659   8.538   9.019   6.111
49609SOL    HW250660   8.657   8.937   6.158
49610SOL     OW50661   2.298   0.614   3.064
49610SOL    HW150662   2.364   0.546   3.051
49610SOL    HW250663   2.215   0.567   3.064
49611SOL     OW50664  10.777   9.510  13.956
49611SOL    HW150665  10.771   9.579  14.022
49611SOL    HW250666  10.769   9.556  13.872
49612SOL     OW50667  11.372   1.871   7.721
49612SOL    HW150668  11.347   1.961   7.701
49612SOL    HW250669  11.290   1.821   7.714
49613SOL     OW50670  12.925   6.085   0.307
49613SOL    HW150671  12.944   6.008   0.254
49613SOL    HW250672  12.974   6.156   0.266
49614SOL     OW50673   4.119   2.471  12.110
49614SOL    HW150674   4.156   2.430  12.189
49614SOL    HW250675   4.138   2.409  12.040
49615SOL     OW50676   9.393   2.825   1.697
49615SOL    HW150677   9.441   2.847   1.777
49615SOL    HW250678   9.353   2.908   1.669
49616SOL     OW50679  12.646   3.501   0.191
49616SOL    HW150680  12.727   3.482   0.143
49616SOL    HW250681  12.579   3.448   0.147
49617SOL     OW50682   3.425   1.581   4.043
49617SOL    HW150683   3.408   1.487   4.047
49617SOL    HW250684   3.352   1.621   4.091
49618SOL     OW50685   1.697  10.919   5.839
49618SOL    HW150686   1.703  10.958   5.926
49618SOL    HW250687   1.607  10.890   5.831
49619SOL     OW50688  11.799  13.957  13.497
49619SOL    HW150689  11.822  14.049  13.483
49619SOL    HW250690  11.783  13.923  13.409
49620SOL     OW50691   5.681  13.877   3.475
49620SOL    HW150692   5.647  13.796   3.436
49620SOL    HW250693   5.758  13.848   3.525
49621SOL     OW50694   6.604  14.621  12.457
49621SOL    HW150695   6.598  14.556  12.387
49621SOL    HW250696   6.659  14.580  12.523
49622SOL     OW50697   5.906   7.266  11.487
49622SOL    HW150698   5.925   7.212  11.410
49622SOL    HW250699   5.884   7.203  11.556
49623SOL     OW50700   0.662   7.894   4.960
49623SOL    HW150701   0.688   7.983   4.938
49623SOL    HW250702   0.567   7.893   4.948
49624SOL     OW50703   0.805  13.551  10.362
49624SOL    HW150704   0.794  13.477  10.422
49624SOL    HW250705   0.717  13.588  10.352
49625SOL     OW50706   9.075   9.140   1.733
49625SOL    HW150707   8.992   9.144   1.685
49625SOL    HW250708   9.054   9.176   1.819
49626SOL     OW50709   2.646  10.095   4.322
49626SOL    HW150710   2.677  10.139   4.243
49626SOL    HW250711   2.570  10.147   4.349
49627SOL     OW50712   1.574   9.506   2.446
49627SOL    HW150713   1.549   9.436   2.387
49627SOL    HW250714   1.508   9.574   2.432
49628SOL     OW50715   1.387  11.527   8.858
49628SOL    HW150716   1.318  11.525   8.925
49628SOL    HW250717   1.388  11.438   8.823
49629SOL     OW50718  10.271  10.564   3.276
49629SOL    HW150719  10.290  10.508   3.201
49629SOL    HW250720  10.224  10.507   3.337
49630SOL     OW50721  11.380   7.509   5.061
49630SOL    HW150722  11.403   7.477   5.148
49630SOL    HW250723  11.306   7.454   5.035
49631SOL     OW50724  14.820  10.331  11.958
49631SOL    HW150725  14.787  10.241  11.949
49631SOL    HW250726  14.793  10.357  12.046
49632SOL     OW50727   1.743  12.487   6.531
49632SOL    HW150728   1.747  12.580   6.508
49632SOL    HW250729   1.790  12.481   6.614
49633SOL     OW50730  11.107  13.005   3.788
49633SOL    HW150731  11.135  12.927   3.835
49633SOL    HW250732  11.080  13.066   3.857
49634SOL     OW50733   9.225   4.962   8.775
49634SOL    HW150734   9.148   5.019   8.771
49634SOL    HW250735   9.200   4.890   8.832
49635SOL     OW50736   4.304  14.468   5.116
49635SOL    HW150737   4.375  14.504   5.169
49635SOL    HW250738   4.322  14.375   5.110
49636SOL     OW50739  14.381   8.755  13.126
49636SOL    HW150740  14.377   8.757  13.031
49636SOL    HW250741  14.468   8.720  13.146
49637SOL     OW50742   5.269   3.110   8.683
49637SOL    HW150743   5.326   3.109   8.759
49637SOL    HW250744   5.286   3.194   8.640
49638SOL     OW50745  11.586   6.477  11.495
49638SOL    HW150746  11.560   6.548  11.554
49638SOL    HW250747  11.678   6.462  11.514
49639SOL     OW50748  14.643  11.581   5.068
49639SOL    HW150749  14.552  11.570   5.041
49639SOL    HW250750  14.672  11.661   5.024
49640SOL     OW50751   2.102  11.154   7.559
49640SOL    HW150752   2.040  11.181   7.491
49640SOL    HW250753   2.174  11.113   7.512
49641SOL     OW50754   1.374   0.337  10.419
49641SOL    HW150755   1.457   0.294  10.399
49641SOL    HW250756   1.369   0.410  10.357
49642SOL     OW50757   9.697  13.170   1.604
49642SOL    HW150758   9.762  13.100   1.618
49642SOL    HW250759   9.740  13.231   1.544
49643SOL     OW50760   1.620  13.439   4.683
49643SOL    HW150761   1.553  13.508   4.679
49643SOL    HW250762   1.580  13.364   4.640
49644SOL     OW50763   0.927   8.463  13.540
49644SOL    HW150764   1.018   8.440  13.558
49644SOL    HW250765   0.890   8.384  13.498
49645SOL     OW50766  13.923   3.403  10.095
49645SOL    HW150767  13.910   3.310  10.077
49645SOL    HW250768  13.847   3.446  10.055
49646SOL     OW50769  14.539   7.094  11.185
49646SOL    HW150770  14.565   7.003  11.201
49646SOL    HW250771  14.541   7.135  11.271
49647SOL     OW50772  12.897  14.766  11.531
49647SOL    HW150773  12.808  14.758  11.497
49647SOL    HW250774  12.953  14.730  11.461
49648SOL     OW50775   9.874   6.438  13.124
49648SOL    HW150776   9.941   6.507  13.130
49648SOL    HW250777   9.801   6.479  13.078
49649SOL     OW50778  12.651  11.583  11.810
49649SOL    HW150779  12.738  11.589  11.769
49649SOL    HW250780  12.661  11.516  11.877
49650SOL     OW50781  12.552  13.240   7.842
49650SOL    HW150782  12.458  13.225   7.851
49650SOL    HW250783  12.579  13.180   7.773
49651SOL     OW50784   9.749  11.403   3.838
49651SOL    HW150785   9.735  11.402   3.743
49651SOL    HW250786   9.676  11.353   3.874
49652SOL     OW50787  13.175   6.485  13.382
49652SOL    HW150788  13.269   6.499  13.377
49652SOL    HW250789  13.156   6.484  13.476
49653SOL     OW50790   7.044   0.697   7.944
49653SOL    HW150791   7.094   0.629   7.899
49653SOL    HW250792   6.954   0.662   7.947
49654SOL     OW50793   8.362   8.765  11.994
49654SOL    HW150794   8.399   8.814  11.922
49654SOL    HW250795   8.268   8.761  11.975
49655SOL     OW50796   6.296   5.909   4.013
49655SOL    HW150797   6.379   5.862   4.003
49655SOL    HW250798   6.280   5.911   4.107
49656SOL     OW50799   0.721   3.153   4.904
49656SOL    HW150800   0.790   3.193   4.851
49656SOL    HW250801   0.737   3.186   4.993
49657SOL     OW50802   0.809   2.264   1.347
49657SOL    HW150803   0.788   2.231   1.259
49657SOL    HW250804   0.794   2.358   1.341
49658SOL     OW50805  14.024   5.921   1.677
49658SOL    HW150806  13.961   5.894   1.743
49658SOL    HW250807  14.109   5.908   1.718
49659SOL     OW50808   0.587   2.616  12.971
49659SOL    HW150809   0.518   2.620  13.036
49659SOL    HW250810   0.619   2.525  12.974
49660SOL     OW50811   9.880   4.319  12.037
49660SOL    HW150812   9.936   4.249  12.070
49660SOL    HW250813   9.813   4.329  12.104
49661SOL     OW50814   2.081   9.642   0.927
49661SOL    HW150815   2.113   9.552   0.933
49661SOL    HW250816   2.155   9.691   0.890
49662SOL     OW50817   8.532   0.627   5.794
49662SOL    HW150818   8.472   0.556   5.772
49662SOL    HW250819   8.544   0.674   5.711
49663SOL     OW50820  10.770  10.695   3.380
49663SOL    HW150821  10.676  10.680   3.365
49663SOL    HW250822  10.779  10.694   3.475
49664SOL     OW50823   8.700  13.574   1.723
49664SOL    HW150824   8.731  13.620   1.800
49664SOL    HW250825   8.727  13.483   1.737
49665SOL     OW50826   5.147  14.783  13.727
49665SOL    HW150827   5.207  14.805  13.656
49665SOL    HW250828   5.152  14.688  13.734
49666SOL     OW50829   4.749   1.972   3.074
49666SOL    HW150830   4.715   2.035   3.010
49666SOL    HW250831   4.836   1.950   3.042
49667SOL     OW50832   0.569   0.279   1.643
49667SOL    HW150833   0.659   0.261   1.615
49667SOL    HW250834   0.563   0.236   1.729
49668SOL     OW50835  12.839   1.819   8.372
49668SOL    HW150836  12.757   1.810   8.324
49668SOL    HW250837  12.813   1.810   8.464
49669SOL     OW50838   4.232  10.753  11.982
49669SOL    HW150839   4.233  10.843  11.948
49669SOL    HW250840   4.156  10.712  11.941
49670SOL     OW50841   8.789   1.699   1.510
49670SOL    HW150842   8.811   1.735   1.595
49670SOL    HW250843   8.818   1.765   1.447
49671SOL     OW50844  14.588   5.263   1.712
49671SOL    HW150845  14.563   5.349   1.748
49671SOL    HW250846  14.538   5.257   1.630
49672SOL     OW50847  11.098   4.385   2.378
49672SOL    HW150848  11.098   4.347   2.290
49672SOL    HW250849  11.147   4.467   2.367
49673SOL     OW50850  10.579  14.870   2.436
49673SOL    HW150851  10.596  14.781   2.406
49673SOL    HW250852  10.496  14.864   2.483
49674SOL     OW50853  13.198   5.339   7.974
49674SOL    HW150854  13.194   5.425   8.017
49674SOL    HW250855  13.126   5.289   8.011
49675SOL     OW50856   9.336   5.118  13.333
49675SOL    HW150857   9.255   5.080  13.300
49675SOL    HW250858   9.322   5.213  13.330
49676SOL     OW50859   7.718  12.425   3.185
49676SOL    HW150860   7.803  12.411   3.227
49676SOL    HW250861   7.662  12.356   3.219
49677SOL     OW50862  13.293   1.597   3.222
49677SOL    HW150863  13.205   1.595   3.184
49677SOL    HW250864  13.347   1.641   3.156
49678SOL     OW50865  13.753   6.478   7.143
49678SOL    HW150866  13.846   6.499   7.138
49678SOL    HW250867  13.720   6.532   7.214
49679SOL     OW50868   2.723   8.172  14.080
49679SOL    HW150869   2.735   8.202  14.170
49679SOL    HW250870   2.802   8.201  14.035
49680SOL     OW50871  13.976  11.589   4.271
49680SOL    HW150872  13.980  11.649   4.197
49680SOL    HW250873  14.024  11.633   4.341
49681SOL     OW50874   8.500   4.551   2.738
49681SOL    HW150875   8.506   4.525   2.646
49681SOL    HW250876   8.568   4.501   2.782
49682SOL     OW50877   2.024   2.685   0.749
49682SOL    HW150878   2.035   2.679   0.844
49682SOL    HW250879   1.938   2.647   0.732
49683SOL     OW50880   5.196   4.714   6.846
49683SOL    HW150881   5.138   4.643   6.819
49683SOL    HW250882   5.143   4.793   6.835
49684SOL     OW50883   9.704  10.420   3.655
49684SOL    HW150884   9.768  10.475   3.609
49684SOL    HW250885   9.745  10.334   3.659
49685SOL     OW50886   1.639   2.398   1.731
49685SOL    HW150887   1.684   2.325   1.773
49685SOL    HW250888   1.670   2.476   1.777
49686SOL     OW50889   0.340  13.549   3.609
49686SOL    HW150890   0.393  13.479   3.571
49686SOL    HW250891   0.381  13.630   3.579
49687SOL     OW50892   5.128   1.458   5.228
49687SOL    HW150893   5.063   1.472   5.298
49687SOL    HW250894   5.123   1.538   5.175
49688SOL     OW50895   8.552   7.244   6.087
49688SOL    HW150896   8.458   7.229   6.089
49688SOL    HW250897   8.562   7.339   6.093
49689SOL     OW50898   8.317  10.312   2.366
49689SOL    HW150899   8.278  10.226   2.354
49689SOL    HW250900   8.306  10.355   2.281
49690SOL     OW50901   9.096   1.519   5.705
49690SOL    HW150902   9.044   1.473   5.770
49690SOL    HW250903   9.112   1.455   5.636
49691SOL     OW50904  11.223   9.606  11.925
49691SOL    HW150905  11.264   9.525  11.896
49691SOL    HW250906  11.167   9.632  11.852
49692SOL     OW50907   7.719   2.377  12.174
49692SOL    HW150908   7.682   2.382  12.262
49692SOL    HW250909   7.643   2.384  12.116
49693SOL     OW50910   5.528  12.004   7.958
49693SOL    HW150911   5.544  11.932   7.897
49693SOL    HW250912   5.486  11.963   8.033
49694SOL     OW50913   9.826   7.929   8.913
49694SOL    HW150914   9.787   7.985   8.846
49694SOL    HW250915   9.858   7.853   8.865
49695SOL     OW50916  13.279   4.181   6.487
49695SOL    HW150917  13.282   4.178   6.391
49695SOL    HW250918  13.221   4.254   6.507
49696SOL     OW50919  13.468   4.812  10.751
49696SOL    HW150920  13.559   4.797  10.724
49696SOL    HW250921  13.432   4.724  10.762
49697SOL     OW50922   3.979   6.830   8.055
49697SOL    HW150923   3.942   6.782   8.129
49697SOL    HW250924   3.931   6.913   8.053
49698SOL     OW50925   7.951   4.102   9.873
49698SOL    HW150926   7.936   4.061   9.788
49698SOL    HW250927   7.983   4.190   9.852
49699SOL     OW50928  12.556   8.886   1.633
49699SOL    HW150929  12.523   8.816   1.689
49699SOL    HW250930  12.490   8.894   1.564
49700SOL     OW50931   4.509  12.220  14.553
49700SOL    HW150932   4.569  12.276  14.602
49700SOL    HW250933   4.475  12.276  14.484
49701SOL     OW50934   2.563  13.032   0.351
49701SOL    HW150935   2.482  13.076   0.325
49701SOL    HW250936   2.573  13.052   0.444
49702SOL     OW50937  12.526  13.607  10.602
49702SOL    HW150938  12.460  13.666  10.566
49702SOL    HW250939  12.591  13.597  10.532
49703SOL     OW50940   7.661   3.612  11.361
49703SOL    HW150941   7.699   3.684  11.410
49703SOL    HW250942   7.672   3.536  11.419
49704SOL     OW50943   2.410   8.361  13.843
49704SOL    HW150944   2.390   8.371  13.750
49704SOL    HW250945   2.499   8.326  13.845
49705SOL     OW50946  13.979   7.400  11.798
49705SOL    HW150947  14.008   7.377  11.886
49705SOL    HW250948  13.933   7.322  11.768
49706SOL     OW50949  13.486   8.809   2.916
49706SOL    HW150950  13.416   8.783   2.977
49706SOL    HW250951  13.501   8.731   2.863
49707SOL     OW50952   5.068   2.105  10.908
49707SOL    HW150953   5.009   2.156  10.963
49707SOL    HW250954   5.154   2.118  10.947
49708SOL     OW50955  12.144   7.321   3.284
49708SOL    HW150956  12.232   7.358   3.279
49708SOL    HW250957  12.095   7.382   3.339
49709SOL     OW50958   6.334   6.434   2.712
49709SOL    HW150959   6.351   6.529   2.713
49709SOL    HW250960   6.280   6.419   2.789
49710SOL     OW50961   1.721  10.252   6.750
49710SOL    HW150962   1.786  10.288   6.690
49710SOL    HW250963   1.637  10.285   6.718
49711SOL     OW50964  11.705  13.783   9.267
49711SOL    HW150965  11.674  13.743   9.348
49711SOL    HW250966  11.754  13.860   9.296
49712SOL     OW50967   4.453  12.357   3.006
49712SOL    HW150968   4.386  12.421   3.031
49712SOL    HW250969   4.404  12.288   2.961
49713SOL     OW50970   8.691   0.603  10.849
49713SOL    HW150971   8.750   0.677  10.865
49713SOL    HW250972   8.728   0.531  10.899
49714SOL     OW50973   6.675   2.836   0.807
49714SOL    HW150974   6.704   2.755   0.766
49714SOL    HW250975   6.712   2.905   0.751
49715SOL     OW50976  14.580  11.961  11.307
49715SOL    HW150977  14.604  12.002  11.391
49715SOL    HW250978  14.526  11.886  11.332
49716SOL     OW50979   0.818   9.118   1.121
49716SOL    HW150980   0.900   9.111   1.071
49716SOL    HW250981   0.810   9.033   1.166
49717SOL     OW50982  14.357   5.379  10.187
49717SOL    HW150983  14.315   5.388  10.273
49717SOL    HW250984  14.286   5.357  10.127
49718SOL     OW50985   3.617  10.505   0.803
49718SOL    HW150986   3.646  10.433   0.859
49718SOL    HW250987   3.525  10.517   0.826
49719SOL     OW50988  13.261  14.062  12.847
49719SOL    HW150989  13.177  14.089  12.809
49719SOL    HW250990  13.241  13.979  12.891
49720SOL     OW50991   2.355   7.989  13.731
49720SOL    HW150992   2.335   7.895  13.726
49720SOL    HW250993   2.366   8.016  13.640
49721SOL     OW50994   6.811   0.619   5.346
49721SOL    HW150995   6.877   0.685   5.369
49721SOL    HW250996   6.779   0.646   5.260
49722SOL     OW50997  12.710  10.971  11.667
49722SOL    HW150998  12.615  10.981  11.678
49722SOL    HW250999  12.727  10.997  11.577
49723SOL     OW51000  12.724   7.391  11.349
49723SOL    HW151001  12.757   7.472  11.311
49723SOL    HW251002  12.697   7.339  11.273
49724SOL     OW51003   5.931   1.327  13.606
49724SOL    HW151004   5.883   1.403  13.639
49724SOL    HW251005   5.889   1.305  13.524
49725SOL     OW51006   9.596   1.490   2.687
49725SOL    HW151007   9.570   1.472   2.777
49725SOL    HW251008   9.688   1.466   2.683
49726SOL     OW51009  12.723  10.874   3.672
49726SOL    HW151010  12.762  10.791   3.700
49726SOL    HW251011  12.651  10.848   3.615
49727SOL     OW51012   9.080   5.553   2.054
49727SOL    HW151013   9.052   5.519   2.139
49727SOL    HW251014   9.000   5.556   2.002
49728SOL     OW51015   8.319   2.886   1.875
49728SOL    HW151016   8.231   2.849   1.877
49728SOL    HW251017   8.314   2.963   1.931
49729SOL     OW51018   9.236   1.686   5.196
49729SOL    HW151019   9.234   1.752   5.266
49729SOL    HW251020   9.265   1.606   5.239
49730SOL     OW51021   8.502  11.475   9.122
49730SOL    HW151022   8.417  11.471   9.078
49730SOL    HW251023   8.521  11.569   9.127
49731SOL     OW51024  14.239   9.942  14.802
49731SOL    HW151025  14.262   9.858  14.763
49731SOL    HW251026  14.242  10.004  14.729
49732SOL     OW51027   8.275   0.281   9.917
49732SOL    HW151028   8.260   0.258  10.009
49732SOL    HW251029   8.370   0.295   9.912
49733SOL     OW51030  11.598   6.055   9.385
49733SOL    HW151031  11.518   6.040   9.435
49733SOL    HW251032  11.570   6.110   9.312
49734SOL     OW51033   0.418   0.817  14.752
49734SOL    HW151034   0.459   0.737  14.785
49734SOL    HW251035   0.414   0.804  14.657
49735SOL     OW51036   1.274  13.279  14.287
49735SOL    HW151037   1.261  13.303  14.195
49735SOL    HW251038   1.284  13.184  14.286
49736SOL     OW51039   9.718   4.781   2.548
49736SOL    HW151040   9.640   4.788   2.493
49736SOL    HW251041   9.745   4.872   2.563
49737SOL     OW51042   6.604  10.921   8.691
49737SOL    HW151043   6.699  10.917   8.707
49737SOL    HW251044   6.595  10.983   8.618
49738SOL     OW51045  14.416   8.906   2.667
49738SOL    HW151046  14.403   8.995   2.699
49738SOL    HW251047  14.332   8.862   2.683
49739SOL     OW51048   1.788  13.355   0.851
49739SOL    HW151049   1.746  13.269   0.857
49739SOL    HW251050   1.746  13.408   0.919
49740SOL     OW51051   0.722  13.449  11.472
49740SOL    HW151052   0.746  13.378  11.413
49740SOL    HW251053   0.805  13.478  11.510
49741SOL     OW51054  10.077   5.907  11.325
49741SOL    HW151055  10.119   5.886  11.241
49741SOL    HW251056  10.011   5.839  11.336
49742SOL     OW51057   7.457  10.682  14.360
49742SOL    HW151058   7.470  10.764  14.313
49742SOL    HW251059   7.373  10.693  14.405
49743SOL     OW51060   7.957  14.705   4.734
49743SOL    HW151061   7.956  14.701   4.639
49743SOL    HW251062   8.027  14.644   4.760
49744SOL     OW51063  14.784   0.131   7.888
49744SOL    HW151064  14.741   0.211   7.859
49744SOL    HW251065  14.875   0.141   7.861
49745SOL     OW51066   4.618  13.293  14.421
49745SOL    HW151067   4.593  13.227  14.485
49745SOL    HW251068   4.535  13.328  14.388
49746SOL     OW51069   0.714   5.104   2.599
49746SOL    HW151070   0.652   5.159   2.552
49746SOL    HW251071   0.700   5.127   2.691
49747SOL     OW51072   9.291   2.323   5.771
49747SOL    HW151073   9.337   2.333   5.688
49747SOL    HW251074   9.344   2.373   5.834
49748SOL     OW51075   7.053  13.127  13.567
49748SOL    HW151076   7.079  13.041  13.534
49748SOL    HW251077   7.135  13.175  13.577
49749SOL     OW51078   2.039   6.008   9.692
49749SOL    HW151079   2.023   5.915   9.705
49749SOL    HW251080   2.128   6.023   9.725
49750SOL     OW51081   1.783   4.159  14.754
49750SOL    HW151082   1.812   4.075  14.789
49750SOL    HW251083   1.813   4.223  14.817
49751SOL     OW51084   9.517   8.282   0.093
49751SOL    HW151085   9.559   8.338   0.159
49751SOL    HW251086   9.555   8.195   0.108
49752SOL     OW51087   7.268  12.149   1.486
49752SOL    HW151088   7.213  12.126   1.411
49752SOL    HW251089   7.329  12.215   1.451
49753SOL     OW51090   3.092  11.709   8.397
49753SOL    HW151091   3.092  11.619   8.366
49753SOL    HW251092   3.051  11.705   8.484
49754SOL     OW51093  11.136  13.573  10.194
49754SOL    HW151094  11.082  13.558  10.117
49754SOL    HW251095  11.116  13.500  10.252
49755SOL     OW51096   7.028   5.169   2.165
49755SOL    HW151097   6.968   5.240   2.185
49755SOL    HW251098   7.109   5.213   2.137
49756SOL     OW51099   1.791  10.473  11.420
49756SOL    HW151100   1.772  10.394  11.370
49756SOL    HW251101   1.728  10.538  11.388
49757SOL     OW51102  14.437   7.344   8.174
49757SOL    HW151103  14.417   7.275   8.237
49757SOL    HW251104  14.529   7.330   8.152
49758SOL     OW51105   8.967   3.656   3.301
49758SOL    HW151106   8.879   3.693   3.298
49758SOL    HW251107   8.993   3.648   3.209
49759SOL     OW51108   5.657  10.677   1.616
49759SOL    HW151109   5.714  10.617   1.666
49759SOL    HW251110   5.620  10.735   1.683
49760SOL     OW51111   9.595   7.493  10.374
49760SOL    HW151112   9.675   7.534  10.339
49760SOL    HW251113   9.548   7.566  10.416
49761SOL     OW51114   2.008   2.525   2.281
49761SOL    HW151115   1.987   2.468   2.206
49761SOL    HW251116   2.098   2.553   2.265
49762SOL     OW51117  12.271   7.519  12.685
49762SOL    HW151118  12.279   7.424  12.678
49762SOL    HW251119  12.307   7.541  12.770
49763SOL     OW51120  12.573   6.049   8.633
49763SOL    HW151121  12.650   5.995   8.612
49763SOL    HW251122  12.579   6.066   8.727
49764SOL     OW51123   5.164   0.244   1.168
49764SOL    HW151124   5.141   0.221   1.078
49764SOL    HW251125   5.105   0.191   1.222
49765SOL     OW51126  10.463  14.310   4.500
49765SOL    HW151127  10.513  14.260   4.435
49765SOL    HW251128  10.492  14.401   4.488
49766SOL     OW51129   6.854   8.629   3.109
49766SOL    HW151130   6.857   8.538   3.081
49766SOL    HW251131   6.855   8.625   3.205
49767SOL     OW51132   3.375   2.928   1.329
49767SOL    HW151133   3.451   2.960   1.279
49767SOL    HW251134   3.331   2.868   1.268
49768SOL     OW51135   9.216   1.709   7.406
49768SOL    HW151136   9.132   1.675   7.375
49768SOL    HW251137   9.232   1.786   7.352
49769SOL     OW51138   5.878  10.451   5.780
49769SOL    HW151139   5.868  10.490   5.692
49769SOL    HW251140   5.817  10.378   5.781
49770SOL     OW51141   4.858   7.027  14.815
49770SOL    HW151142   4.887   6.987   0.015
49770SOL    HW251143   4.939   7.055  14.773
49771SOL     OW51144  12.014   4.948   4.863
49771SOL    HW151145  12.099   4.909   4.882
49771SOL    HW251146  11.998   5.008   4.936
49772SOL     OW51147   4.633  13.932  11.772
49772SOL    HW151148   4.701  13.880  11.814
49772SOL    HW251149   4.659  14.023  11.789
49773SOL     OW51150   7.463   4.160  14.579
49773SOL    HW151151   7.547   4.161  14.532
49773SOL    HW251152   7.469   4.234  14.640
49774SOL     OW51153  11.222  14.610  10.274
49774SOL    HW151154  11.167  14.680  10.309
49774SOL    HW251155  11.254  14.563  10.351
49775SOL     OW51156   1.176   8.070  12.397
49775SOL    HW151157   1.126   8.094  12.475
49775SOL    HW251158   1.116   8.014  12.347
49776SOL     OW51159  12.032   8.623   0.152
49776SOL    HW151160  11.945   8.653   0.126
49776SOL    HW251161  12.034   8.634   0.247
49777SOL     OW51162  13.477   8.263   8.083
49777SOL    HW151163  13.555   8.212   8.104
49777SOL    HW251164  13.417   8.246   8.155
49778SOL     OW51165   0.608   6.756   2.301
49778SOL    HW151166   0.553   6.724   2.374
49778SOL    HW251167   0.685   6.793   2.344
49779SOL     OW51168   5.263   8.399   4.528
49779SOL    HW151169   5.225   8.311   4.536
49779SOL    HW251170   5.358   8.383   4.526
49780SOL     OW51171   5.286   2.370   7.152
49780SOL    HW151172   5.218   2.310   7.184
49780SOL    HW251173   5.301   2.430   7.225
49781SOL     OW51174   5.417  12.274   3.389
49781SOL    HW151175   5.328  12.300   3.414
49781SOL    HW251176   5.429  12.189   3.431
49782SOL     OW51177  14.538   8.142  12.322
49782SOL    HW151178  14.569   8.207  12.259
49782SOL    HW251179  14.510   8.068  12.268
49783SOL     OW51180  14.622   8.927   8.118
49783SOL    HW151181  14.545   8.906   8.066
49783SOL    HW251182  14.664   8.999   8.072
49784SOL     OW51183   0.877  10.917   6.364
49784SOL    HW151184   0.937  10.896   6.293
49784SOL    HW251185   0.932  10.922   6.442
49785SOL     OW51186   6.667  14.546   7.937
49785SOL    HW151187   6.586  14.496   7.949
49785SOL    HW251188   6.659  14.586   7.851
49786SOL     OW51189   4.287  12.200   3.797
49786SOL    HW151190   4.216  12.229   3.740
49786SOL    HW251191   4.365  12.245   3.763
49787SOL     OW51192   7.901   5.043   1.256
49787SOL    HW151193   7.909   5.088   1.340
49787SOL    HW251194   7.982   5.064   1.210
49788SOL     OW51195   6.309   8.415  14.727
49788SOL    HW151196   6.259   8.489  14.693
49788SOL    HW251197   6.270   8.338  14.684
49789SOL     OW51198   3.015  14.637   1.169
49789SOL    HW151199   3.000  14.544   1.153
49789SOL    HW251200   2.980  14.680   1.090
49790SOL     OW51201  13.210   8.749   9.982
49790SOL    HW151202  13.256   8.667   9.997
49790SOL    HW251203  13.275   8.817  10.000
49791SOL     OW51204   0.669   8.087   4.443
49791SOL    HW151205   0.689   8.004   4.399
49791SOL    HW251206   0.679   8.153   4.375
49792SOL     OW51207   6.200  10.953  12.720
49792SOL    HW151208   6.259  11.003  12.776
49792SOL    HW251209   6.151  11.019  12.671
49793SOL     OW51210   9.091  11.069   3.855
49793SOL    HW151211   9.016  11.010   3.862
49793SOL    HW251212   9.090  11.119   3.937
49794SOL     OW51213   0.090   4.570  10.772
49794SOL    HW151214   0.000   4.541  10.787
49794SOL    HW251215   0.113   4.620  10.851
49795SOL     OW51216  10.618   4.974   1.510
49795SOL    HW151217  10.687   5.038   1.494
49795SOL    HW251218  10.559   5.017   1.571
49796SOL     OW51219   1.208   8.896  12.228
49796SOL    HW151220   1.176   8.811  12.198
49796SOL    HW251221   1.129   8.943  12.253
49797SOL     OW51222   3.194   0.071  13.390
49797SOL    HW151223   3.184   0.166  13.381
49797SOL    HW251224   3.252   0.047  13.317
49798SOL     OW51225   3.544  10.679   0.080
49798SOL    HW151226   3.507  10.763   0.055
49798SOL    HW251227   3.470  10.629   0.115
49799SOL     OW51228   1.518  10.606   8.676
49799SOL    HW151229   1.554  10.684   8.717
49799SOL    HW251230   1.588  10.574   8.619
49800SOL     OW51231  14.079  11.327   0.606
49800SOL    HW151232  14.019  11.313   0.679
49800SOL    HW251233  14.054  11.261   0.541
49801SOL     OW51234   5.219   6.788   9.046
49801SOL    HW151235   5.170   6.721   8.998
49801SOL    HW251236   5.311   6.770   9.026
49802SOL     OW51237   5.823   1.290   3.652
49802SOL    HW151238   5.818   1.343   3.573
49802SOL    HW251239   5.874   1.213   3.626
49803SOL     OW51240   2.332   6.688   5.213
49803SOL    HW151241   2.369   6.611   5.255
49803SOL    HW251242   2.303   6.743   5.286
49804SOL     OW51243  13.500   9.324  10.320
49804SOL    HW151244  13.456   9.364  10.395
49804SOL    HW251245  13.430   9.314  10.255
49805SOL     OW51246   4.283   2.453   4.493
49805SOL    HW151247   4.325   2.422   4.413
49805SOL    HW251248   4.356   2.463   4.555
49806SOL     OW51249   6.325   8.235  10.959
49806SOL    HW151250   6.314   8.189  11.042
49806SOL    HW251251   6.249   8.209  10.907
49807SOL     OW51252   2.213   6.291   3.407
49807SOL    HW151253   2.121   6.271   3.419
49807SOL    HW251254   2.257   6.243   3.478
49808SOL     OW51255   4.515   0.178  10.918
49808SOL    HW151256   4.529   0.270  10.892
49808SOL    HW251257   4.543   0.128  10.841
49809SOL     OW51258   0.938  14.029   5.928
49809SOL    HW151259   0.921  14.077   6.009
49809SOL    HW251260   0.853  14.023   5.885
49810SOL     OW51261  11.993  13.717   2.381
49810SOL    HW151262  12.007  13.624   2.365
49810SOL    HW251263  11.980  13.755   2.295
49811SOL     OW51264   3.874  12.921   2.635
49811SOL    HW151265   3.934  12.978   2.588
49811SOL    HW251266   3.847  12.973   2.712
49812SOL     OW51267   2.127   3.255   6.836
49812SOL    HW151268   2.123   3.171   6.789
49812SOL    HW251269   2.038   3.268   6.870
49813SOL     OW51270  10.375  13.312   9.137
49813SOL    HW151271  10.443  13.326   9.071
49813SOL    HW251272  10.295  13.300   9.087
49814SOL     OW51273   4.881  14.859   7.819
49814SOL    HW151274   4.860   0.064   7.854
49814SOL    HW251275   4.974  14.866   7.795
49815SOL     OW51276  11.544   6.407   2.633
49815SOL    HW151277  11.524   6.486   2.583
49815SOL    HW251278  11.576   6.439   2.717
49816SOL     OW51279   1.092  14.519   5.764
49816SOL    HW151280   1.134  14.602   5.740
49816SOL    HW251281   1.158  14.452   5.746
49817SOL     OW51282  13.239  14.648   5.726
49817SOL    HW151283  13.237  14.619   5.817
49817SOL    HW251284  13.225  14.743   5.730
49818SOL     OW51285   3.223   4.632  13.587
49818SOL    HW151286   3.247   4.721  13.562
49818SOL    HW251287   3.136   4.640  13.624
49819SOL     OW51288   4.837   4.307   6.342
49819SOL    HW151289   4.880   4.373   6.288
49819SOL    HW251290   4.907   4.248   6.368
49820SOL     OW51291   0.494   9.609   8.737
49820SOL    HW151292   0.567   9.671   8.735
49820SOL    HW251293   0.533   9.524   8.716
49821SOL     OW51294  13.908   9.504   6.562
49821SOL    HW151295  13.855   9.475   6.488
49821SOL    HW251296  13.977   9.438   6.570
49822SOL     OW51297   8.955  11.750   5.532
49822SOL    HW151298   8.874  11.799   5.543
49822SOL    HW251299   8.980  11.766   5.441
49823SOL     OW51300   9.692   7.384  11.214
49823SOL    HW151301   9.695   7.320  11.143
49823SOL    HW251302   9.783   7.393  11.242
49824SOL     OW51303   9.089   0.365   9.971
49824SOL    HW151304   9.146   0.310  10.024
49824SOL    HW251305   9.140   0.383   9.892
49825SOL     OW51306   5.993  11.244   2.499
49825SOL    HW151307   5.950  11.159   2.500
49825SOL    HW251308   6.077  11.230   2.543
49826SOL     OW51309   4.715   2.972   7.594
49826SOL    HW151310   4.722   3.065   7.615
49826SOL    HW251311   4.629   2.946   7.626
49827SOL     OW51312   0.386   8.218   2.977
49827SOL    HW151313   0.366   8.245   2.887
49827SOL    HW251314   0.479   8.198   2.975
49828SOL     OW51315   0.325   2.625   7.389
49828SOL    HW151316   0.234   2.598   7.395
49828SOL    HW251317   0.343   2.630   7.295
49829SOL     OW51318  11.371  10.202   6.101
49829SOL    HW151319  11.356  10.151   6.022
49829SOL    HW251320  11.435  10.268   6.076
49830SOL     OW51321  10.802   7.212  13.849
49830SOL    HW151322  10.714   7.173  13.846
49830SOL    HW251323  10.786   7.307  13.848
49831SOL     OW51324   9.229  12.226   6.039
49831SOL    HW151325   9.183  12.177   6.106
49831SOL    HW251326   9.280  12.291   6.088
49832SOL     OW51327  11.772   1.636   7.995
49832SOL    HW151328  11.775   1.653   8.089
49832SOL    HW251329  11.685   1.667   7.968
49833SOL     OW51330  12.090   5.363   2.366
49833SOL    HW151331  12.005   5.407   2.373
49833SOL    HW251332  12.099   5.343   2.273
49834SOL     OW51333   0.601   8.504   8.906
49834SOL    HW151334   0.546   8.466   8.975
49834SOL    HW251335   0.576   8.457   8.826
49835SOL     OW51336   1.114   3.176   2.003
49835SOL    HW151337   1.125   3.119   2.079
49835SOL    HW251338   1.045   3.134   1.952
49836SOL     OW51339   6.672  11.867   3.967
49836SOL    HW151340   6.667  11.846   4.060
49836SOL    HW251341   6.588  11.910   3.948
49837SOL     OW51342   8.986   9.085  13.975
49837SOL    HW151343   9.021   9.090  14.064
49837SOL    HW251344   8.896   9.055  13.986
49838SOL     OW51345   4.370  10.657   3.805
49838SOL    HW151346   4.461  10.672   3.781
49838SOL    HW251347   4.356  10.563   3.789
49839SOL     OW51348   4.361  10.017  12.823
49839SOL    HW151349   4.297  10.010  12.753
49839SOL    HW251350   4.421  10.085  12.794
49840SOL     OW51351   1.697  13.559   5.095
49840SOL    HW151352   1.752  13.522   5.164
49840SOL    HW251353   1.754  13.566   5.019
49841SOL     OW51354   8.660  13.724   3.266
49841SOL    HW151355   8.687  13.815   3.279
49841SOL    HW251356   8.570  13.729   3.234
49842SOL     OW51357  12.278   4.795  10.572
49842SOL    HW151358  12.310   4.881  10.600
49842SOL    HW251359  12.196   4.814  10.526
49843SOL     OW51360  11.946   5.141   3.452
49843SOL    HW151361  12.031   5.163   3.412
49843SOL    HW251362  11.966   5.131   3.545
49844SOL     OW51363  11.548   5.113   1.087
49844SOL    HW151364  11.465   5.112   1.134
49844SOL    HW251365  11.530   5.164   1.008
49845SOL     OW51366   2.986   8.525   2.323
49845SOL    HW151367   2.900   8.496   2.291
49845SOL    HW251368   3.002   8.471   2.400
49846SOL     OW51369   7.497   2.451   7.297
49846SOL    HW151370   7.438   2.484   7.229
49846SOL    HW251371   7.568   2.515   7.300
49847SOL     OW51372   7.443   3.423  12.075
49847SOL    HW151373   7.506   3.375  12.022
49847SOL    HW251374   7.362   3.373  12.067
49848SOL     OW51375   4.982  11.017   4.439
49848SOL    HW151376   4.949  11.103   4.463
49848SOL    HW251377   5.055  11.034   4.380
49849SOL     OW51378   8.850  14.204  13.300
49849SOL    HW151379   8.830  14.200  13.394
49849SOL    HW251380   8.875  14.114  13.277
49850SOL     OW51381   1.058  10.073  11.608
49850SOL    HW151382   1.051  10.055  11.701
49850SOL    HW251383   1.150  10.092  11.593
49851SOL     OW51384   1.411   1.692   4.426
49851SOL    HW151385   1.401   1.763   4.489
49851SOL    HW251386   1.470   1.630   4.469
49852SOL     OW51387   4.587   3.301   1.477
49852SOL    HW151388   4.648   3.335   1.541
49852SOL    HW251389   4.517   3.260   1.529
49853SOL     OW51390  14.465  11.224  13.989
49853SOL    HW151391  14.523  11.149  13.974
49853SOL    HW251392  14.512  11.279  14.051
49854SOL     OW51393   2.568   2.525   6.132
49854SOL    HW151394   2.534   2.443   6.096
49854SOL    HW251395   2.631   2.556   6.067
49855SOL     OW51396   8.925   2.748   6.912
49855SOL    HW151397   8.874   2.673   6.880
49855SOL    HW251398   8.996   2.708   6.963
49856SOL     OW51399   7.630  14.720   5.175
49856SOL    HW151400   7.661  14.690   5.089
49856SOL    HW251401   7.643  14.645   5.233
49857SOL     OW51402   0.287  11.988   2.275
49857SOL    HW151403   0.256  12.076   2.254
49857SOL    HW251404   0.350  12.001   2.346
49858SOL     OW51405   3.253  10.966   3.598
49858SOL    HW151406   3.177  10.958   3.540
49858SOL    HW251407   3.217  10.955   3.686
49859SOL     OW51408  10.300   8.599   8.685
49859SOL    HW151409  10.301   8.694   8.691
49859SOL    HW251410  10.217   8.573   8.726
49860SOL     OW51411  10.954   2.086   1.117
49860SOL    HW151412  10.924   2.175   1.097
49860SOL    HW251413  11.033   2.075   1.064
49861SOL     OW51414  12.113   0.992   8.882
49861SOL    HW151415  12.035   1.036   8.917
49861SOL    HW251416  12.084   0.903   8.863
49862SOL     OW51417  12.394  11.218   6.335
49862SOL    HW151418  12.473  11.249   6.379
49862SOL    HW251419  12.369  11.289   6.277
49863SOL     OW51420   5.611   0.843   0.613
49863SOL    HW151421   5.692   0.891   0.597
49863SOL    HW251422   5.639   0.754   0.633
49864SOL     OW51423   9.854   0.253  10.154
49864SOL    HW151424   9.823   0.164  10.173
49864SOL    HW251425   9.789   0.288  10.093
49865SOL     OW51426  10.536   6.490   8.255
49865SOL    HW151427  10.527   6.526   8.343
49865SOL    HW251428  10.614   6.532   8.220
49866SOL     OW51429  12.516  14.615  13.415
49866SOL    HW151430  12.538  14.639  13.325
49866SOL    HW251431  12.598  14.582  13.452
49867SOL     OW51432  10.168  11.291  13.525
49867SOL    HW151433  10.230  11.327  13.462
49867SOL    HW251434  10.163  11.198  13.503
49868SOL     OW51435  13.661   0.538   2.710
49868SOL    HW151436  13.623   0.596   2.776
49868SOL    HW251437  13.754   0.533   2.734
49869SOL     OW51438  11.281  10.941   0.138
49869SOL    HW151439  11.191  10.959   0.162
49869SOL    HW251440  11.333  10.967   0.214
49870SOL     OW51441  11.713  14.128   2.469
49870SOL    HW151442  11.619  14.110   2.468
49870SOL    HW251443  11.753  14.041   2.476
49871SOL     OW51444   9.124  12.621   0.462
49871SOL    HW151445   9.190  12.572   0.510
49871SOL    HW251446   9.041  12.595   0.503
49872SOL     OW51447   2.876   3.300   7.902
49872SOL    HW151448   2.841   3.222   7.858
49872SOL    HW251449   2.816   3.315   7.975
49873SOL     OW51450  14.080   5.823   0.120
49873SOL    HW151451  14.156   5.872   0.150
49873SOL    HW251452  14.115   5.756   0.062
49874SOL     OW51453   6.326  12.704  11.252
49874SOL    HW151454   6.255  12.706  11.316
49874SOL    HW251455   6.388  12.639  11.287
49875SOL     OW51456   9.535   3.902  12.808
49875SOL    HW151457   9.505   3.841  12.741
49875SOL    HW251458   9.589   3.848  12.866
49876SOL     OW51459   7.067   0.032  13.483
49876SOL    HW151460   7.145  14.865  13.458
49876SOL    HW251461   7.091   0.076  13.564
49877SOL     OW51462   1.181  10.890  12.809
49877SOL    HW151463   1.108  10.840  12.773
49877SOL    HW251464   1.249  10.825  12.824
49878SOL     OW51465   5.830  10.112   5.075
49878SOL    HW151466   5.921  10.111   5.106
49878SOL    HW251467   5.784  10.052   5.134
49879SOL     OW51468  11.599  10.226  14.703
49879SOL    HW151469  11.665  10.289  14.673
49879SOL    HW251470  11.526  10.280  14.734
49880SOL     OW51471  10.473   0.799   5.112
49880SOL    HW151472  10.434   0.713   5.107
49880SOL    HW251473  10.500   0.819   5.022
49881SOL     OW51474  10.349   4.573   2.787
49881SOL    HW151475  10.365   4.486   2.823
49881SOL    HW251476  10.353   4.560   2.692
49882SOL     OW51477  12.966   8.485  10.032
49882SOL    HW151478  13.060   8.470  10.025
49882SOL    HW251479  12.955   8.579  10.020
49883SOL     OW51480   4.801   1.705   7.612
49883SOL    HW151481   4.714   1.675   7.586
49883SOL    HW251482   4.839   1.631   7.658
49884SOL     OW51483   0.449   1.282  13.847
49884SOL    HW151484   0.391   1.342  13.800
49884SOL    HW251485   0.459   1.208  13.787
49885SOL     OW51486   4.966   4.143  12.403
49885SOL    HW151487   4.959   4.189  12.319
49885SOL    HW251488   4.925   4.058  12.388
49886SOL     OW51489   9.480  11.179   1.491
49886SOL    HW151490   9.405  11.220   1.535
49886SOL    HW251491   9.484  11.221   1.406
49887SOL     OW51492  11.268  11.765   0.929
49887SOL    HW151493  11.286  11.859   0.932
49887SOL    HW251494  11.184  11.756   0.975
49888SOL     OW51495   6.999  10.733  13.125
49888SOL    HW151496   6.937  10.805  13.139
49888SOL    HW251497   6.953  10.655  13.155
49889SOL     OW51498   3.749   4.745   8.402
49889SOL    HW151499   3.776   4.726   8.312
49889SOL    HW251500   3.780   4.670   8.453
49890SOL     OW51501   7.690   3.252   3.523
49890SOL    HW151502   7.621   3.271   3.460
49890SOL    HW251503   7.646   3.207   3.595
49891SOL     OW51504   9.826   9.434   4.375
49891SOL    HW151505   9.779   9.397   4.300
49891SOL    HW251506   9.786   9.520   4.389
49892SOL     OW51507  12.362   5.402  12.280
49892SOL    HW151508  12.339   5.313  12.308
49892SOL    HW251509  12.457   5.407  12.292
49893SOL     OW51510  12.987   0.581   2.606
49893SOL    HW151511  12.914   0.534   2.566
49893SOL    HW251512  13.036   0.618   2.533
49894SOL     OW51513   8.328   5.949   1.798
49894SOL    HW151514   8.271   5.918   1.868
49894SOL    HW251515   8.414   5.913   1.820
49895SOL     OW51516   6.649   2.612   7.410
49895SOL    HW151517   6.687   2.698   7.430
49895SOL    HW251518   6.678   2.593   7.321
49896SOL     OW51519   7.565   0.805  11.628
49896SOL    HW151520   7.559   0.799  11.533
49896SOL    HW251521   7.592   0.717  11.655
49897SOL     OW51522   6.817   3.324   9.012
49897SOL    HW151523   6.761   3.271   9.068
49897SOL    HW251524   6.758   3.360   8.946
49898SOL     OW51525  10.759   1.024   9.075
49898SOL    HW151526  10.774   0.951   9.015
49898SOL    HW251527  10.715   0.985   9.150
49899SOL     OW51528  10.281   6.576  12.384
49899SOL    HW151529  10.349   6.610  12.326
49899SOL    HW251530  10.329   6.526  12.449
49900SOL     OW51531   4.687   9.213   9.259
49900SOL    HW151532   4.610   9.227   9.313
49900SOL    HW251533   4.759   9.201   9.321
49901SOL     OW51534   7.904  12.177  13.787
49901SOL    HW151535   7.962  12.253  13.789
49901SOL    HW251536   7.839  12.195  13.855
49902SOL     OW51537   3.790  14.860   4.213
49902SOL    HW151538   3.717   0.003   4.157
49902SOL    HW251539   3.798  14.766   4.203
49903SOL     OW51540   2.901   2.682  12.200
49903SOL    HW151541   2.824   2.673  12.256
49903SOL    HW251542   2.975   2.680  12.261
49904SOL     OW51543  13.100   2.685  13.246
49904SOL    HW151544  13.160   2.612  13.260
49904SOL    HW251545  13.047   2.657  13.170
49905SOL     OW51546   9.891   6.488   8.675
49905SOL    HW151547   9.961   6.533   8.722
49905SOL    HW251548   9.813   6.541   8.689
49906SOL     OW51549  10.912   5.972   7.853
49906SOL    HW151550  10.876   5.962   7.765
49906SOL    HW251551  10.995   5.925   7.850
49907SOL     OW51552   4.597   5.663   0.087
49907SOL    HW151553   4.651   5.722   0.035
49907SOL    HW251554   4.625   5.575   0.060
49908SOL     OW51555   3.031  12.349   8.472
49908SOL    HW151556   3.088  12.347   8.549
49908SOL    HW251557   2.959  12.407   8.497
49909SOL     OW51558   0.030   3.520   0.728
49909SOL    HW151559  14.874   3.594   0.775
49909SOL    HW251560   0.039   3.452   0.794
49910SOL     OW51561   5.389   1.392   5.237
49910SOL    HW151562   5.391   1.319   5.300
49910SOL    HW251563   5.297   1.405   5.219
49911SOL     OW51564  14.840   6.693   0.229
49911SOL    HW151565   0.003   6.723   0.150
49911SOL    HW251566  14.859   6.599   0.233
49912SOL     OW51567  10.953   6.450   6.992
49912SOL    HW151568  10.881   6.500   6.953
49912SOL    HW251569  10.923   6.359   6.989
49913SOL     OW51570  10.307   3.859  13.865
49913SOL    HW151571  10.289   3.838  13.957
49913SOL    HW251572  10.402   3.867  13.860
49914SOL     OW51573   5.560  10.593   8.361
49914SOL    HW151574   5.571  10.500   8.339
49914SOL    HW251575   5.534  10.634   8.279
49915SOL     OW51576   0.337  11.725   3.376
49915SOL    HW151577   0.373  11.800   3.424
49915SOL    HW251578   0.413  11.685   3.334
49916SOL     OW51579   6.223  11.555  10.577
49916SOL    HW151580   6.317  11.561  10.595
49916SOL    HW251581   6.214  11.474  10.527
49917SOL     OW51582   6.298   3.654   2.304
49917SOL    HW151583   6.266   3.574   2.262
49917SOL    HW251584   6.232   3.720   2.285
49918SOL     OW51585  13.210  13.945   1.660
49918SOL    HW151586  13.173  14.033   1.668
49918SOL    HW251587  13.273  13.940   1.732
49919SOL     OW51588   4.880   8.261   3.600
49919SOL    HW151589   4.944   8.191   3.605
49919SOL    HW251590   4.809   8.233   3.659
49920SOL     OW51591  12.325   0.899   7.305
49920SOL    HW151592  12.285   0.981   7.277
49920SOL    HW251593  12.266   0.865   7.372
49921SOL     OW51594  11.046   4.186   6.340
49921SOL    HW151595  11.009   4.160   6.424
49921SOL    HW251596  10.982   4.156   6.275
49922SOL     OW51597  12.804  10.402  12.527
49922SOL    HW151598  12.866  10.430  12.594
49922SOL    HW251599  12.729  10.368  12.576
49923SOL     OW51600   2.630   8.070   4.754
49923SOL    HW151601   2.710   8.041   4.710
49923SOL    HW251602   2.654   8.152   4.797
49924SOL     OW51603  10.281   9.073  10.382
49924SOL    HW151604  10.306   9.155  10.425
49924SOL    HW251605  10.356   9.052  10.325
49925SOL     OW51606   0.739   3.749   9.785
49925SOL    HW151607   0.651   3.782   9.763
49925SOL    HW251608   0.735   3.731   9.879
49926SOL     OW51609   0.621   1.544   7.136
49926SOL    HW151610   0.712   1.530   7.109
49926SOL    HW251611   0.594   1.622   7.087
49927SOL     OW51612   7.992   5.547   0.711
49927SOL    HW151613   8.073   5.547   0.761
49927SOL    HW251614   7.924   5.571   0.775
49928SOL     OW51615  10.586  10.338   8.520
49928SOL    HW151616  10.563  10.396   8.592
49928SOL    HW251617  10.541  10.374   8.444
49929SOL     OW51618   4.063   1.677   5.757
49929SOL    HW151619   4.121   1.666   5.832
49929SOL    HW251620   4.121   1.668   5.681
49930SOL     OW51621   0.907   5.946  14.593
49930SOL    HW151622   0.956   5.956  14.675
49930SOL    HW251623   0.820   5.980  14.614
49931SOL     OW51624   1.979  11.630   5.432
49931SOL    HW151625   1.931  11.696   5.382
49931SOL    HW251626   1.948  11.546   5.398
49932SOL     OW51627   7.487  14.333  11.857
49932SOL    HW151628   7.510  14.255  11.807
49932SOL    HW251629   7.535  14.404  11.814
49933SOL     OW51630   0.902   5.641   4.625
49933SOL    HW151631   0.870   5.630   4.715
49933SOL    HW251632   0.823   5.643   4.572
49934SOL     OW51633   3.138   2.192   9.862
49934SOL    HW151634   3.168   2.123   9.802
49934SOL    HW251635   3.051   2.163   9.890
49935SOL     OW51636   7.391  13.776   2.189
49935SOL    HW151637   7.307  13.738   2.163
49935SOL    HW251638   7.404  13.849   2.129
49936SOL     OW51639   4.084   2.066   6.371
49936SOL    HW151640   4.091   2.127   6.297
49936SOL    HW251641   4.012   2.101   6.423
49937SOL     OW51642   0.494   6.565  13.502
49937SOL    HW151643   0.559   6.600  13.563
49937SOL    HW251644   0.450   6.643  13.468
49938SOL     OW51645  10.375   1.402   4.048
49938SOL    HW151646  10.305   1.355   4.094
49938SOL    HW251647  10.330   1.451   3.980
49939SOL     OW51648   8.567   5.525  12.260
49939SOL    HW151649   8.554   5.588  12.188
49939SOL    HW251650   8.479   5.502  12.288
49940SOL     OW51651   9.003  12.770   6.323
49940SOL    HW151652   9.010  12.683   6.282
49940SOL    HW251653   9.074  12.771   6.388
49941SOL     OW51654   7.212   9.185   3.260
49941SOL    HW151655   7.183   9.190   3.351
49941SOL    HW251656   7.200   9.273   3.226
49942SOL     OW51657   9.297   3.025  11.337
49942SOL    HW151658   9.232   2.977  11.389
49942SOL    HW251659   9.343   3.079  11.401
49943SOL     OW51660   7.819   0.747   9.469
49943SOL    HW151661   7.802   0.698   9.388
49943SOL    HW251662   7.868   0.686   9.524
49944SOL     OW51663   8.737   4.926   7.402
49944SOL    HW151664   8.743   4.835   7.372
49944SOL    HW251665   8.812   4.969   7.362
49945SOL     OW51666   0.274   3.332   9.087
49945SOL    HW151667   0.325   3.259   9.052
49945SOL    HW251668   0.334   3.406   9.087
49946SOL     OW51669   9.552   9.115   4.774
49946SOL    HW151670   9.473   9.087   4.821
49946SOL    HW251671   9.624   9.085   4.829
49947SOL     OW51672   2.812  11.743   4.252
49947SOL    HW151673   2.750  11.673   4.229
49947SOL    HW251674   2.888  11.697   4.286
49948SOL     OW51675  14.523   7.228   2.939
49948SOL    HW151676  14.432   7.205   2.961
49948SOL    HW251677  14.517   7.264   2.850
49949SOL     OW51678   3.987   9.789  14.042
49949SOL    HW151679   4.049   9.789  13.969
49949SOL    HW251680   4.022   9.725  14.103
49950SOL     OW51681   1.928  12.036   8.051
49950SOL    HW151682   1.924  12.109   8.113
49950SOL    HW251683   1.970  12.075   7.973
49951SOL     OW51684   1.843   6.161   2.194
49951SOL    HW151685   1.891   6.146   2.275
49951SOL    HW251686   1.762   6.203   2.222
49952SOL     OW51687  12.254   8.564   8.141
49952SOL    HW151688  12.206   8.617   8.204
49952SOL    HW251689  12.332   8.615   8.120
49953SOL     OW51690  14.422  11.250   3.175
49953SOL    HW151691  14.348  11.310   3.179
49953SOL    HW251692  14.398  11.178   3.232
49954SOL     OW51693   8.497   0.112   2.852
49954SOL    HW151694   8.449   0.059   2.788
49954SOL    HW251695   8.578   0.063   2.867
49955SOL     OW51696  11.016  12.056   6.877
49955SOL    HW151697  11.028  12.089   6.966
49955SOL    HW251698  11.063  12.119   6.821
49956SOL     OW51699   2.312   9.274  13.589
49956SOL    HW151700   2.251   9.347  13.580
49956SOL    HW251701   2.363   9.296  13.668
49957SOL     OW51702   2.992  12.590   1.431
49957SOL    HW151703   3.033  12.504   1.433
49957SOL    HW251704   2.932  12.590   1.506
49958SOL     OW51705   1.514  12.644  14.534
49958SOL    HW151706   1.496  12.563  14.583
49958SOL    HW251707   1.570  12.616  14.462
49959SOL     OW51708   4.077  14.612   7.989
49959SOL    HW151709   3.999  14.642   7.944
49959SOL    HW251710   4.045  14.562   8.064
49960SOL     OW51711   6.675  14.331  12.399
49960SOL    HW151712   6.656  14.238  12.416
49960SOL    HW251713   6.709  14.364  12.482
49961SOL     OW51714  14.522   1.564   1.113
49961SOL    HW151715  14.485   1.487   1.070
49961SOL    HW251716  14.579   1.528   1.181
49962SOL     OW51717   7.645  11.469   6.877
49962SOL    HW151718   7.686  11.382   6.870
49962SOL    HW251719   7.706  11.528   6.833
49963SOL     OW51720   0.018  11.411   5.561
49963SOL    HW151721  14.823  11.452   5.600
49963SOL    HW251722   0.075  11.484   5.537
49964SOL     OW51723   1.066  11.272   3.241
49964SOL    HW151724   1.049  11.179   3.255
49964SOL    HW251725   1.161  11.280   3.242
49965SOL     OW51726   5.037   3.758  14.045
49965SOL    HW151727   5.106   3.711  13.997
49965SOL    HW251728   5.080   3.789  14.124
49966SOL     OW51729   3.883   7.781   1.459
49966SOL    HW151730   3.806   7.746   1.504
49966SOL    HW251731   3.936   7.704   1.440
49967SOL     OW51732   2.329   0.534   3.699
49967SOL    HW151733   2.353   0.446   3.671
49967SOL    HW251734   2.243   0.549   3.661
49968SOL     OW51735   4.669  13.377  10.150
49968SOL    HW151736   4.626  13.392  10.234
49968SOL    HW251737   4.601  13.392  10.084
49969SOL     OW51738   6.418  10.780   0.606
49969SOL    HW151739   6.448  10.813   0.691
49969SOL    HW251740   6.494  10.733   0.571
49970SOL     OW51741   5.511   2.785  11.110
49970SOL    HW151742   5.564   2.712  11.142
49970SOL    HW251743   5.574   2.855  11.093
49971SOL     OW51744  14.722   6.683  12.030
49971SOL    HW151745  14.647   6.713  11.978
49971SOL    HW251746  14.790   6.748  12.014
49972SOL     OW51747   7.192   4.396   6.848
49972SOL    HW151748   7.285   4.379   6.839
49972SOL    HW251749   7.167   4.355   6.931
49973SOL     OW51750   8.795  11.421  10.699
49973SOL    HW151751   8.795  11.476  10.777
49973SOL    HW251752   8.702  11.409  10.678
49974SOL     OW51753   0.165   9.633   9.808
49974SOL    HW151754   0.095   9.568   9.811
49974SOL    HW251755   0.207   9.627   9.894
49975SOL     OW51756  13.719  13.380   7.860
49975SOL    HW151757  13.707  13.475   7.859
49975SOL    HW251758  13.811  13.368   7.886
49976SOL     OW51759   8.593  11.277  12.494
49976SOL    HW151760   8.597  11.230  12.577
49976SOL    HW251761   8.516  11.241  12.450
49977SOL     OW51762  10.226   5.081   5.847
49977SOL    HW151763  10.318   5.104   5.833
49977SOL    HW251764  10.188   5.083   5.759
49978SOL     OW51765   3.758   2.375   0.780
49978SOL    HW151766   3.785   2.467   0.776
49978SOL    HW251767   3.675   2.372   0.732
49979SOL     OW51768  12.932   2.821   8.925
49979SOL    HW151769  12.970   2.734   8.910
49979SOL    HW251770  12.845   2.815   8.885
49980SOL     OW51771  13.921   3.485  11.053
49980SOL    HW151772  13.904   3.513  11.143
49980SOL    HW251773  13.865   3.409  11.040
49981SOL     OW51774  11.718   3.383   2.534
49981SOL    HW151775  11.734   3.453   2.471
49981SOL    HW251776  11.656   3.420   2.596
49982SOL     OW51777  12.400   7.051  13.410
49982SOL    HW151778  12.406   7.131  13.357
49982SOL    HW251779  12.471   7.059  13.474
49983SOL     OW51780  14.583   6.334  13.109
49983SOL    HW151781  14.564   6.421  13.073
49983SOL    HW251782  14.608   6.350  13.200
49984SOL     OW51783   4.799   1.076   1.944
49984SOL    HW151784   4.736   1.018   1.986
49984SOL    HW251785   4.870   1.018   1.916
49985SOL     OW51786  12.430   8.557  12.186
49985SOL    HW151787  12.381   8.526  12.110
49985SOL    HW251788  12.453   8.647  12.165
49986SOL     OW51789  13.871   4.744  13.872
49986SOL    HW151790  13.945   4.696  13.834
49986SOL    HW251791  13.820   4.676  13.917
49987SOL     OW51792  11.872   7.256  14.269
49987SOL    HW151793  11.877   7.160  14.266
49987SOL    HW251794  11.792   7.277  14.221
49988SOL     OW51795   0.967  10.924   4.522
49988SOL    HW151796   1.062  10.910   4.515
49988SOL    HW251797   0.933  10.841   4.556
49989SOL     OW51798   1.000   8.869   3.067
49989SOL    HW151799   1.046   8.947   3.037
49989SOL    HW251800   0.934   8.902   3.128
49990SOL     OW51801   0.897   3.526  13.911
49990SOL    HW151802   0.926   3.555  13.997
49990SOL    HW251803   0.871   3.434  13.924
49991SOL     OW51804  10.773  11.038   6.370
49991SOL    HW151805  10.762  10.945   6.388
49991SOL    HW251806  10.796  11.043   6.277
49992SOL     OW51807  14.624   6.347   5.639
49992SOL    HW151808  14.655   6.419   5.584
49992SOL    HW251809  14.684   6.275   5.621
49993SOL     OW51810   6.623   5.299  14.273
49993SOL    HW151811   6.633   5.299  14.178
49993SOL    HW251812   6.655   5.385  14.301
49994SOL     OW51813  13.151  14.155  14.647
49994SOL    HW151814  13.172  14.095  14.575
49994SOL    HW251815  13.156  14.242  14.608
49995SOL     OW51816   0.904  12.146   1.924
49995SOL    HW151817   0.911  12.208   1.997
49995SOL    HW251818   0.914  12.060   1.965
49996SOL     OW51819   4.883   8.788   3.162
49996SOL    HW151820   4.858   8.738   3.084
49996SOL    HW251821   4.905   8.721   3.227
49997SOL     OW51822   0.637   9.311   7.631
49997SOL    HW151823   0.633   9.270   7.545
49997SOL    HW251824   0.550   9.298   7.668
49998SOL     OW51825   8.796   7.470   7.154
49998SOL    HW151826   8.707   7.498   7.136
49998SOL    HW251827   8.847   7.551   7.161
49999SOL     OW51828   7.985   3.104   2.936
49999SOL    HW151829   8.026   3.066   2.859
49999SOL    HW251830   8.025   3.190   2.944
50000SOL     OW51831   2.600   8.716   7.744
50000SOL    HW151832   2.669   8.677   7.797
50000SOL    HW251833   2.576   8.647   7.681
50001SOL     OW51834   1.968  10.822   6.716
50001SOL    HW151835   1.918  10.751   6.676
50001SOL    HW251836   1.904  10.870   6.768
50002SOL     OW51837   9.393   1.890   2.952
50002SOL    HW151838   9.442   1.867   2.874
50002SOL    HW251839   9.312   1.840   2.945
50003SOL     OW51840   4.953  12.639  12.139
50003SOL    HW151841   4.887  12.626  12.207
50003SOL    HW251842   4.903  12.636  12.057
50004SOL     OW51843  11.435  11.230   8.252
50004SOL    HW151844  11.509  11.282   8.282
50004SOL    HW251845  11.401  11.279   8.176
50005SOL     OW51846   9.995  12.000  12.700
50005SOL    HW151847  10.038  12.085  12.707
50005SOL    HW251848   9.942  12.006  12.621
50006SOL     OW51849   8.421   8.221   0.174
50006SOL    HW151850   8.463   8.234   0.089
50006SOL    HW251851   8.467   8.147   0.213
50007SOL     OW51852   7.435   9.763   0.814
50007SOL    HW151853   7.503   9.744   0.750
50007SOL    HW251854   7.461   9.846   0.853
50008SOL     OW51855  11.306   9.644  12.429
50008SOL    HW151856  11.382   9.605  12.474
50008SOL    HW251857  11.300   9.598  12.346
50009SOL     OW51858   0.090   9.173  11.072
50009SOL    HW151859   0.118   9.243  11.132
50009SOL    HW251860   0.154   9.176  11.001
50010SOL     OW51861   5.510   4.360   6.023
50010SOL    HW151862   5.552   4.439   6.056
50010SOL    HW251863   5.497   4.377   5.929
50011SOL     OW51864   7.300   0.071   8.440
50011SOL    HW151865   7.206   0.077   8.422
50011SOL    HW251866   7.341   0.067   8.354
50012SOL     OW51867  12.942  11.874   9.871
50012SOL    HW151868  12.894  11.942   9.824
50012SOL    HW251869  12.914  11.884   9.962
50013SOL     OW51870   3.765   6.320   6.360
50013SOL    HW151871   3.709   6.293   6.433
50013SOL    HW251872   3.851   6.284   6.382
50014SOL     OW51873  11.497  10.977   4.827
50014SOL    HW151874  11.568  10.917   4.804
50014SOL    HW251875  11.489  10.968   4.922
50015SOL     OW51876  13.506   4.220   7.085
50015SOL    HW151877  13.587   4.256   7.122
50015SOL    HW251878  13.531   4.132   7.056
50016SOL     OW51879  10.154   1.002  14.561
50016SOL    HW151880  10.236   1.042  14.532
50016SOL    HW251881  10.141   0.928  14.501
50017SOL     OW51882   6.814   3.071   9.334
50017SOL    HW151883   6.732   3.114   9.361
50017SOL    HW251884   6.876   3.143   9.324
50018SOL     OW51885   5.688   5.188  12.199
50018SOL    HW151886   5.663   5.207  12.109
50018SOL    HW251887   5.666   5.096  12.211
50019SOL     OW51888  13.074   7.938   1.304
50019SOL    HW151889  13.020   7.861   1.284
50019SOL    HW251890  13.125   7.911   1.380
50020SOL     OW51891   7.805   0.679   0.823
50020SOL    HW151892   7.818   0.612   0.890
50020SOL    HW251893   7.883   0.672   0.767
50021SOL     OW51894   3.478  12.660   0.708
50021SOL    HW151895   3.461  12.613   0.790
50021SOL    HW251896   3.431  12.610   0.642
50022SOL     OW51897  10.929  12.345  13.303
50022SOL    HW151898  11.000  12.289  13.271
50022SOL    HW251899  10.925  12.417  13.240
50023SOL     OW51900  13.541  12.266  13.533
50023SOL    HW151901  13.636  12.282  13.537
50023SOL    HW251902  13.502  12.353  13.529
50024SOL     OW51903   9.822   3.542   1.187
50024SOL    HW151904   9.846   3.465   1.136
50024SOL    HW251905   9.833   3.616   1.128
50025SOL     OW51906   1.993  12.683   9.827
50025SOL    HW151907   1.902  12.653   9.816
50025SOL    HW251908   1.987  12.751   9.894
50026SOL     OW51909   0.212  10.944   8.312
50026SOL    HW151910   0.301  10.978   8.307
50026SOL    HW251911   0.211  10.891   8.392
50027SOL     OW51912   9.372   8.699   1.563
50027SOL    HW151913   9.462   8.680   1.590
50027SOL    HW251914   9.336   8.751   1.634
50028SOL     OW51915   8.141   9.785   8.948
50028SOL    HW151916   8.124   9.854   8.883
50028SOL    HW251917   8.172   9.832   9.025
50029SOL     OW51918  10.384   0.682  11.982
50029SOL    HW151919  10.447   0.616  12.011
50029SOL    HW251920  10.426   0.766  12.003
50030SOL     OW51921   2.777   4.059   3.026
50030SOL    HW151922   2.702   4.014   3.063
50030SOL    HW251923   2.801   4.125   3.091
50031SOL     OW51924   9.545   7.753   5.392
50031SOL    HW151925   9.617   7.736   5.453
50031SOL    HW251926   9.490   7.675   5.397
50032SOL     OW51927   9.043   9.859   3.431
50032SOL    HW151928   9.000   9.855   3.346
50032SOL    HW251929   8.991   9.923   3.481
50033SOL     OW51930   8.049  12.317   4.978
50033SOL    HW151931   8.073  12.251   4.912
50033SOL    HW251932   8.034  12.267   5.058
50034SOL     OW51933   9.758  11.770   1.170
50034SOL    HW151934   9.708  11.699   1.209
50034SOL    HW251935   9.848  11.738   1.168
50035SOL     OW51936   0.802  12.936   3.180
50035SOL    HW151937   0.879  12.922   3.234
50035SOL    HW251938   0.836  12.961   3.095
50036SOL     OW51939  10.664   0.782   9.641
50036SOL    HW151940  10.699   0.852   9.696
50036SOL    HW251941  10.569   0.795   9.642
50037SOL     OW51942   9.938   4.536   1.029
50037SOL    HW151943   9.970   4.624   1.012
50037SOL    HW251944  10.017   4.481   1.027
50038SOL     OW51945   7.972   8.607  13.842
50038SOL    HW151946   8.019   8.552  13.779
50038SOL    HW251947   8.032   8.614  13.916
50039SOL     OW51948   0.963   0.954   5.925
50039SOL    HW151949   0.973   0.973   6.018
50039SOL    HW251950   0.954   1.039   5.883
50040SOL     OW51951   5.934   4.543  14.560
50040SOL    HW151952   6.022   4.508  14.550
50040SOL    HW251953   5.902   4.505  14.642
50041SOL     OW51954   1.763   8.883  13.280
50041SOL    HW151955   1.831   8.816  13.276
50041SOL    HW251956   1.697   8.847  13.339
50042SOL     OW51957   1.378  11.432   3.178
50042SOL    HW151958   1.399  11.505   3.121
50042SOL    HW251959   1.319  11.469   3.244
50043SOL     OW51960  14.763   2.048  14.406
50043SOL    HW151961  14.758   2.135  14.445
50043SOL    HW251962  14.780   2.064  14.313
50044SOL     OW51963   4.060   1.762   6.769
50044SOL    HW151964   4.139   1.806   6.739
50044SOL    HW251965   4.031   1.813   6.844
50045SOL     OW51966   4.675  11.369   6.783
50045SOL    HW151967   4.676  11.273   6.788
50045SOL    HW251968   4.588  11.394   6.814
50046SOL     OW51969  12.907   8.271   0.782
50046SOL    HW151970  12.925   8.357   0.745
50046SOL    HW251971  12.825   8.282   0.830
50047SOL     OW51972   5.225   7.231   1.682
50047SOL    HW151973   5.253   7.305   1.736
50047SOL    HW251974   5.137   7.254   1.652
50048SOL     OW51975  11.417   6.194  10.480
50048SOL    HW151976  11.448   6.282  10.502
50048SOL    HW251977  11.361   6.207  10.403
50049SOL     OW51978  14.205   2.668   1.628
50049SOL    HW151979  14.256   2.748   1.619
50049SOL    HW251980  14.120   2.690   1.591
50050SOL     OW51981   2.072   0.601   7.586
50050SOL    HW151982   2.107   0.690   7.591
50050SOL    HW251983   2.141   0.546   7.621
50051SOL     OW51984   1.444  11.403   9.733
50051SOL    HW151985   1.531  11.442   9.733
50051SOL    HW251986   1.392  11.460   9.790
50052SOL     OW51987   9.604   3.157   8.066
50052SOL    HW151988   9.582   3.114   8.149
50052SOL    HW251989   9.642   3.088   8.012
50053SOL     OW51990   5.118   2.244   9.955
50053SOL    HW151991   5.110   2.306   9.884
50053SOL    HW251992   5.194   2.190   9.932
50054SOL     OW51993  13.881   1.293  13.846
50054SOL    HW151994  13.909   1.378  13.880
50054SOL    HW251995  13.954   1.264  13.791
50055SOL     OW51996   6.393   8.882  10.238
50055SOL    HW151997   6.421   8.971  10.220
50055SOL    HW251998   6.326   8.864  10.172
50056SOL     OW51999   0.992   6.218  11.723
50056SOL    HW152000   1.041   6.263  11.792
50056SOL    HW252001   1.030   6.130  11.719
50057SOL     OW52002   8.574   6.819   5.586
50057SOL    HW152003   8.552   6.868   5.665
50057SOL    HW252004   8.669   6.810   5.588
50058SOL     OW52005   0.441  12.701  12.407
50058SOL    HW152006   0.400  12.761  12.345
50058SOL    HW252007   0.392  12.620  12.398
50059SOL     OW52008  14.697   2.716   9.030
50059SOL    HW152009  14.791   2.732   9.020
50059SOL    HW252010  14.655   2.788   8.982
50060SOL     OW52011   6.995  10.148  13.936
50060SOL    HW152012   6.966  10.203  14.008
50060SOL    HW252013   7.057  10.202  13.887
50061SOL     OW52014   7.804  11.600   4.321
50061SOL    HW152015   7.867  11.644   4.264
50061SOL    HW252016   7.729  11.582   4.264
50062SOL     OW52017   3.767  11.495  11.975
50062SOL    HW152018   3.844  11.475  11.923
50062SOL    HW252019   3.695  11.495  11.912
50063SOL     OW52020  14.167   9.492   2.847
50063SOL    HW152021  14.256   9.524   2.835
50063SOL    HW252022  14.176   9.415   2.904
50064SOL     OW52023   2.286  14.408   5.100
50064SOL    HW152024   2.331  14.376   5.178
50064SOL    HW252025   2.247  14.491   5.128
50065SOL     OW52026  14.804  11.640  12.216
50065SOL    HW152027   0.001  11.624  12.269
50065SOL    HW252028  14.827  11.718  12.164
50066SOL     OW52029  10.323  10.079  11.553
50066SOL    HW152030  10.228  10.073  11.540
50066SOL    HW252031  10.347  10.163  11.515
50067SOL     OW52032   1.002   8.534   9.597
50067SOL    HW152033   0.913   8.557   9.573
50067SOL    HW252034   1.009   8.561   9.689
50068SOL     OW52035   4.123   0.921  11.622
50068SOL    HW152036   4.125   0.972  11.541
50068SOL    HW252037   4.043   0.947  11.666
50069SOL     OW52038   0.674  12.614   3.046
50069SOL    HW152039   0.620  12.675   3.095
50069SOL    HW252040   0.726  12.570   3.113
50070SOL     OW52041   2.211  14.398   9.166
50070SOL    HW152042   2.141  14.456   9.196
50070SOL    HW252043   2.201  14.397   9.071
50071SOL     OW52044   8.080   9.144  13.249
50071SOL    HW152045   8.108   9.096  13.171
50071SOL    HW252046   8.159   9.190  13.278
50072SOL     OW52047   2.398  10.673   7.436
50072SOL    HW152048   2.473  10.621   7.466
50072SOL    HW252049   2.380  10.733   7.508
50073SOL     OW52050  11.748   7.848  12.194
50073SOL    HW152051  11.819   7.827  12.255
50073SOL    HW252052  11.770   7.935  12.161
50074SOL     OW52053   8.368  14.570   8.619
50074SOL    HW152054   8.291  14.514   8.608
50074SOL    HW252055   8.347  14.624   8.695
50075SOL     OW52056  14.349  12.462   7.131
50075SOL    HW152057  14.313  12.532   7.186
50075SOL    HW252058  14.303  12.383   7.160
50076SOL     OW52059   9.419   7.283  11.254
50076SOL    HW152060   9.370   7.285  11.337
50076SOL    HW252061   9.503   7.323  11.275
50077SOL     OW52062  12.539   1.046  14.210
50077SOL    HW152063  12.563   0.967  14.259
50077SOL    HW252064  12.480   1.094  14.268
50078SOL     OW52065  14.842   6.653   3.412
50078SOL    HW152066  14.828   6.578   3.470
50078SOL    HW252067   0.022   6.622   3.347
50079SOL     OW52068  12.233  11.844  14.752
50079SOL    HW152069  12.220  11.920  14.808
50079SOL    HW252070  12.265  11.775  14.811
50080SOL     OW52071  12.592   6.546   6.438
50080SOL    HW152072  12.642   6.557   6.357
50080SOL    HW252073  12.637   6.476   6.485
50081SOL     OW52074  11.941   3.938   1.028
50081SOL    HW152075  11.975   4.027   1.038
50081SOL    HW252076  11.984   3.904   0.950
50082SOL     OW52077   2.275  11.658  14.335
50082SOL    HW152078   2.219  11.612  14.272
50082SOL    HW252079   2.228  11.650  14.418
50083SOL     OW52080  13.569  12.306   9.111
50083SOL    HW152081  13.631  12.378   9.119
50083SOL    HW252082  13.520  12.306   9.193
50084SOL     OW52083  10.514  10.068  12.714
50084SOL    HW152084  10.503  10.053  12.620
50084SOL    HW252085  10.609  10.069  12.727
50085SOL     OW52086  13.318  12.150   0.802
50085SOL    HW152087  13.308  12.198   0.884
50085SOL    HW252088  13.285  12.062   0.822
50086SOL     OW52089   1.845   7.032   4.014
50086SOL    HW152090   1.758   7.064   4.037
50086SOL    HW252091   1.880   7.097   3.953
50087SOL     OW52092  11.622  10.791   2.577
50087SOL    HW152093  11.631  10.874   2.531
50087SOL    HW252094  11.614  10.815   2.670
50088SOL     OW52095   3.312   1.896   3.212
50088SOL    HW152096   3.392   1.940   3.182
50088SOL    HW252097   3.316   1.808   3.173
50089SOL     OW52098   5.027  12.057  12.029
50089SOL    HW152099   5.054  12.144  12.057
50089SOL    HW252100   4.967  12.027  12.098
50090SOL     OW52101  12.512   3.271   4.730
50090SOL    HW152102  12.523   3.361   4.700
50090SOL    HW252103  12.601   3.239   4.746
50091SOL     OW52104   6.372   8.777   1.377
50091SOL    HW152105   6.413   8.694   1.400
50091SOL    HW252106   6.315   8.757   1.303
50092SOL     OW52107   9.843   3.530   9.916
50092SOL    HW152108   9.814   3.605   9.967
50092SOL    HW252109   9.840   3.559   9.825
50093SOL     OW52110   7.854  10.497   9.793
50093SOL    HW152111   7.904  10.421   9.764
50093SOL    HW252112   7.867  10.563   9.724
50094SOL     OW52113   7.728   2.307   3.944
50094SOL    HW152114   7.790   2.266   3.884
50094SOL    HW252115   7.733   2.400   3.924
50095SOL     OW52116  12.492  10.787  11.227
50095SOL    HW152117  12.548  10.709  11.218
50095SOL    HW252118  12.404  10.751  11.241
50096SOL     OW52119   2.216   9.337  12.734
50096SOL    HW152120   2.293   9.285  12.755
50096SOL    HW252121   2.243   9.428  12.747
50097SOL     OW52122   6.536   9.089   4.891
50097SOL    HW152123   6.558   8.999   4.868
50097SOL    HW252124   6.515   9.130   4.807
50098SOL     OW52125  10.117   1.928   8.553
50098SOL    HW152126  10.161   1.861   8.502
50098SOL    HW252127  10.184   1.962   8.613
50099SOL     OW52128   0.406  12.988  11.632
50099SOL    HW152129   0.389  13.013  11.723
50099SOL    HW252130   0.436  13.069  11.590
50100SOL     OW52131   7.503   0.924   0.365
50100SOL    HW152132   7.479   0.932   0.457
50100SOL    HW252133   7.550   1.004   0.344
50101SOL     OW52134   5.493   6.273   0.928
50101SOL    HW152135   5.484   6.191   0.977
50101SOL    HW252136   5.486   6.341   0.995
50102SOL     OW52137  14.725   1.327   0.514
50102SOL    HW152138  14.769   1.275   0.581
50102SOL    HW252139  14.763   1.415   0.523
50103SOL     OW52140   6.585  12.542  12.779
50103SOL    HW152141   6.588  12.480  12.706
50103SOL    HW252142   6.646  12.611  12.754
50104SOL     OW52143   9.157  11.304  13.827
50104SOL    HW152144   9.201  11.256  13.757
50104SOL    HW252145   9.226  11.325  13.889
50105SOL     OW52146   7.508   9.371  11.299
50105SOL    HW152147   7.441   9.438  11.316
50105SOL    HW252148   7.558   9.366  11.380
50106SOL     OW52149  13.391  10.570   5.126
50106SOL    HW152150  13.336  10.540   5.198
50106SOL    HW252151  13.461  10.620   5.168
50107SOL     OW52152   3.847   9.258   9.941
50107SOL    HW152153   3.939   9.273   9.959
50107SOL    HW252154   3.841   9.258   9.845
50108SOL     OW52155  13.092  10.391  11.247
50108SOL    HW152156  13.146  10.458  11.287
50108SOL    HW252157  13.125  10.309  11.284
50109SOL     OW52158  14.226   0.913  12.301
50109SOL    HW152159  14.321   0.926  12.291
50109SOL    HW252160  14.187   0.970  12.235
50110SOL     OW52161   0.316  10.627   5.321
50110SOL    HW152162   0.334  10.643   5.414
50110SOL    HW252163   0.319  10.532   5.312
50111SOL     OW52164  13.335   7.626   2.698
50111SOL    HW152165  13.349   7.707   2.648
50111SOL    HW252166  13.361   7.649   2.787
50112SOL     OW52167   3.757   0.125  13.702
50112SOL    HW152168   3.851   0.121  13.687
50112SOL    HW252169   3.743   0.212  13.741
50113SOL     OW52170   1.141  13.287   5.320
50113SOL    HW152171   1.207  13.222   5.294
50113SOL    HW252172   1.180  13.371   5.297
50114SOL     OW52173  14.866   3.537   9.171
50114SOL    HW152174  14.797   3.603   9.180
50114SOL    HW252175  14.876   3.524   9.077
50115SOL     OW52176   2.381  14.027   8.806
50115SOL    HW152177   2.321  13.988   8.870
50115SOL    HW252178   2.457  14.055   8.858
50116SOL     OW52179   3.517   6.411   7.749
50116SOL    HW152180   3.550   6.336   7.798
50116SOL    HW252181   3.445   6.375   7.697
50117SOL     OW52182  13.556  12.857   3.355
50117SOL    HW152183  13.548  12.923   3.424
50117SOL    HW252184  13.508  12.893   3.281
50118SOL     OW52185   7.693   6.508   4.450
50118SOL    HW152186   7.621   6.550   4.497
50118SOL    HW252187   7.670   6.415   4.447
50119SOL     OW52188   5.261   4.873  13.674
50119SOL    HW152189   5.199   4.813  13.632
50119SOL    HW252190   5.260   4.951  13.618
50120SOL     OW52191   9.566   9.787   6.378
50120SOL    HW152192   9.482   9.783   6.331
50120SOL    HW252193   9.611   9.707   6.352
50121SOL     OW52194   8.860   0.872   6.767
50121SOL    HW152195   8.767   0.868   6.790
50121SOL    HW252196   8.865   0.937   6.698
50122SOL     OW52197  11.237   4.989   2.741
50122SOL    HW152198  11.275   5.020   2.658
50122SOL    HW252199  11.225   5.069   2.792
50123SOL     OW52200   3.915   6.825   6.714
50123SOL    HW152201   3.975   6.892   6.682
50123SOL    HW252202   3.853   6.813   6.642
50124SOL     OW52203   9.667  13.855  13.571
50124SOL    HW152204   9.582  13.881  13.605
50124SOL    HW252205   9.727  13.867  13.644
50125SOL     OW52206  13.968   6.349   2.939
50125SOL    HW152207  14.051   6.311   2.911
50125SOL    HW252208  13.993   6.417   3.002
50126SOL     OW52209   1.665   7.469   3.133
50126SOL    HW152210   1.613   7.522   3.193
50126SOL    HW252211   1.756   7.493   3.152
50127SOL     OW52212  10.917  12.817   7.955
50127SOL    HW152213  10.919  12.722   7.942
50127SOL    HW252214  10.876  12.851   7.875
50128SOL     OW52215  12.143   3.609  10.599
50128SOL    HW152216  12.151   3.704  10.594
50128SOL    HW252217  12.231   3.577  10.580
50129SOL     OW52218  12.769  12.714   4.095
50129SOL    HW152219  12.688  12.742   4.052
50129SOL    HW252220  12.746  12.630   4.136
50130SOL     OW52221   5.027   9.459   8.134
50130SOL    HW152222   5.077   9.379   8.118
50130SOL    HW252223   4.981   9.475   8.052
50131SOL     OW52224   6.375  13.618   8.392
50131SOL    HW152225   6.323  13.684   8.439
50131SOL    HW252226   6.462  13.658   8.383
50132SOL     OW52227  12.730   9.743  11.446
50132SOL    HW152228  12.687   9.751  11.531
50132SOL    HW252229  12.674   9.793  11.386
50133SOL     OW52230   8.261   9.212   2.619
50133SOL    HW152231   8.165   9.218   2.613
50133SOL    HW252232   8.289   9.182   2.533
50134SOL     OW52233  11.940  14.697   2.452
50134SOL    HW152234  11.954  14.749   2.373
50134SOL    HW252235  11.871  14.635   2.429
50135SOL     OW52236  10.383  11.455  10.762
50135SOL    HW152237  10.448  11.433  10.829
50135SOL    HW252238  10.420  11.529  10.715
50136SOL     OW52239   3.283   6.307   5.558
50136SOL    HW152240   3.200   6.294   5.512
50136SOL    HW252241   3.267   6.380   5.617
50137SOL     OW52242  13.645   8.117   1.058
50137SOL    HW152243  13.631   8.023   1.047
50137SOL    HW252244  13.593   8.140   1.135
50138SOL     OW52245  11.936   7.411   2.197
50138SOL    HW152246  11.944   7.478   2.266
50138SOL    HW252247  12.027   7.394   2.170
50139SOL     OW52248   0.666   6.805   2.668
50139SOL    HW152249   0.695   6.756   2.745
50139SOL    HW252250   0.585   6.762   2.641
50140SOL     OW52251  10.546  12.269   1.400
50140SOL    HW152252  10.542  12.176   1.376
50140SOL    HW252253  10.585  12.269   1.488
50141SOL     OW52254  12.705   1.985   0.630
50141SOL    HW152255  12.648   1.985   0.707
50141SOL    HW252256  12.646   2.001   0.557
50142SOL     OW52257   7.530  13.136  13.138
50142SOL    HW152258   7.540  13.041  13.145
50142SOL    HW252259   7.525  13.152  13.043
50143SOL     OW52260   6.426  13.104  10.701
50143SOL    HW152261   6.370  13.048  10.755
50143SOL    HW252262   6.474  13.158  10.764
50144SOL     OW52263   8.624  12.458  13.786
50144SOL    HW152264   8.598  12.546  13.759
50144SOL    HW252265   8.635  12.464  13.880
50145SOL     OW52266   8.325   7.536   3.358
50145SOL    HW152267   8.329   7.572   3.270
50145SOL    HW252268   8.235   7.551   3.387
50146SOL     OW52269  11.195  12.561   5.632
50146SOL    HW152270  11.128  12.585   5.697
50146SOL    HW252271  11.274  12.545   5.684
50147SOL     OW52272   7.037   5.039  11.840
50147SOL    HW152273   6.975   4.969  11.821
50147SOL    HW252274   7.090   5.006  11.913
50148SOL     OW52275  12.056   4.397   8.022
50148SOL    HW152276  12.130   4.424   7.968
50148SOL    HW252277  12.075   4.434   8.108
50149SOL     OW52278  12.769   4.060   3.608
50149SOL    HW152279  12.679   4.054   3.574
50149SOL    HW252280  12.789   4.153   3.607
50150SOL     OW52281  12.926  11.538   4.954
50150SOL    HW152282  12.882  11.622   4.948
50150SOL    HW252283  12.863  11.481   4.997
50151SOL     OW52284   9.871   9.329  14.448
50151SOL    HW152285   9.908   9.418  14.450
50151SOL    HW252286   9.946   9.272  14.464
50152SOL     OW52287   5.228  14.870   2.529
50152SOL    HW152288   5.216   0.020   2.619
50152SOL    HW252289   5.194   0.059   2.475
50153SOL     OW52290   1.688   1.455   3.169
50153SOL    HW152291   1.771   1.450   3.123
50153SOL    HW252292   1.679   1.547   3.194
50154SOL     OW52293   9.360   0.315   2.696
50154SOL    HW152294   9.436   0.349   2.648
50154SOL    HW252295   9.349   0.376   2.769
50155SOL     OW52296   6.911   0.241  13.389
50155SOL    HW152297   6.915   0.242  13.293
50155SOL    HW252298   6.970   0.170  13.415
50156SOL     OW52299   4.021  12.689  14.639
50156SOL    HW152300   4.076  12.657  14.710
50156SOL    HW252301   3.995  12.610  14.591
50157SOL     OW52302   6.881  13.729   6.824
50157SOL    HW152303   6.844  13.675   6.754
50157SOL    HW252304   6.811  13.791   6.846
50158SOL     OW52305  12.715   1.522  14.758
50158SOL    HW152306  12.805   1.547  14.780
50158SOL    HW252307  12.678   1.599  14.715
50159SOL     OW52308   4.220  12.990   4.568
50159SOL    HW152309   4.191  13.080   4.577
50159SOL    HW252310   4.309  12.990   4.603
50160SOL     OW52311   4.140   6.408  13.017
50160SOL    HW152312   4.153   6.495  13.054
50160SOL    HW252313   4.130   6.424  12.923
50161SOL     OW52314  12.155   8.273   7.151
50161SOL    HW152315  12.165   8.320   7.069
50161SOL    HW252316  12.232   8.216   7.156
50162SOL     OW52317  14.274   4.418   8.895
50162SOL    HW152318  14.331   4.473   8.840
50162SOL    HW252319  14.334   4.356   8.937
50163SOL     OW52320   6.176  10.937  10.461
50163SOL    HW152321   6.204  10.866  10.405
50163SOL    HW252322   6.256  10.986  10.481
50164SOL     OW52323  14.272   8.690   9.798
50164SOL    HW152324  14.226   8.709   9.880
50164SOL    HW252325  14.364   8.680   9.823
50165SOL     OW52326   4.375  12.191  13.864
50165SOL    HW152327   4.362  12.207  13.958
50165SOL    HW252328   4.470  12.195  13.852
50166SOL     OW52329   0.517   9.928  13.195
50166SOL    HW152330   0.493   9.987  13.124
50166SOL    HW252331   0.608   9.906  13.179
50167SOL     OW52332  13.637   8.518   7.003
50167SOL    HW152333  13.572   8.527   7.073
50167SOL    HW252334  13.705   8.581   7.027
50168SOL     OW52335  10.483   8.271   6.027
50168SOL    HW152336  10.475   8.176   6.019
50168SOL    HW252337  10.575   8.290   6.009
50169SOL     OW52338   7.359  14.219  13.941
50169SOL    HW152339   7.352  14.275  13.863
50169SOL    HW252340   7.408  14.143  13.910
50170SOL     OW52341   6.034   4.680   2.564
50170SOL    HW152342   6.016   4.721   2.648
50170SOL    HW252343   5.948   4.655   2.530
50171SOL     OW52344   5.398   1.774   3.337
50171SOL    HW152345   5.313   1.771   3.293
50171SOL    HW252346   5.381   1.738   3.424
50172SOL     OW52347  12.667   3.242   7.983
50172SOL    HW152348  12.698   3.172   7.926
50172SOL    HW252349  12.613   3.196   8.048
50173SOL     OW52350   1.408  12.272  10.655
50173SOL    HW152351   1.396  12.284  10.749
50173SOL    HW252352   1.366  12.349  10.615
50174SOL     OW52353  11.768   7.084   9.870
50174SOL    HW152354  11.852   7.126   9.851
50174SOL    HW252355  11.741   7.047   9.786
50175SOL     OW52356   2.000  14.049   5.577
50175SOL    HW152357   2.001  14.024   5.485
50175SOL    HW252358   2.011  14.145   5.575
50176SOL     OW52359   4.772   0.580   4.204
50176SOL    HW152360   4.788   0.546   4.116
50176SOL    HW252361   4.789   0.674   4.198
50177SOL     OW52362  12.684   2.450  11.098
50177SOL    HW152363  12.749   2.502  11.145
50177SOL    HW252364  12.610   2.509  11.087
50178SOL     OW52365  10.985   3.393   5.351
50178SOL    HW152366  11.076   3.410   5.326
50178SOL    HW252367  10.977   3.431   5.439
50179SOL     OW52368  13.001   6.804   3.835
50179SOL    HW152369  13.013   6.893   3.801
50179SOL    HW252370  12.947   6.814   3.913
50180SOL     OW52371   5.980  14.296  11.747
50180SOL    HW152372   5.954  14.225  11.806
50180SOL    HW252373   6.020  14.361  11.804
50181SOL     OW52374  12.125  12.699   6.062
50181SOL    HW152375  12.057  12.735   6.006
50181SOL    HW252376  12.115  12.604   6.053
50182SOL     OW52377  12.364   2.498   5.687
50182SOL    HW152378  12.283   2.448   5.676
50182SOL    HW252379  12.347   2.581   5.642
50183SOL     OW52380   8.464  13.299   2.865
50183SOL    HW152381   8.553  13.327   2.846
50183SOL    HW252382   8.429  13.367   2.922
50184SOL     OW52383   3.519  13.285   4.960
50184SOL    HW152384   3.430  13.257   4.980
50184SOL    HW252385   3.517  13.308   4.867
50185SOL     OW52386  14.740   7.927  11.399
50185SOL    HW152387  14.656   7.966  11.377
50185SOL    HW252388  14.719   7.857  11.461
50186SOL     OW52389  13.198   3.230   9.722
50186SOL    HW152390  13.222   3.187   9.640
50186SOL    HW252391  13.141   3.168   9.766
50187SOL     OW52392   9.392   8.073   7.268
50187SOL    HW152393   9.347   8.123   7.199
50187SOL    HW252394   9.428   8.140   7.326
50188SOL     OW52395  14.234  13.422   7.222
50188SOL    HW152396  14.164  13.379   7.272
50188SOL    HW252397  14.313  13.408   7.274
50189SOL     OW52398   8.313   9.681  12.957
50189SOL    HW152399   8.298   9.680  12.863
50189SOL    HW252400   8.234   9.720  12.994
50190SOL     OW52401   5.466   1.127   4.482
50190SOL    HW152402   5.461   1.032   4.494
50190SOL    HW252403   5.439   1.141   4.391
50191SOL     OW52404  14.828  10.740  14.276
50191SOL    HW152405  14.755  10.803  14.277
50191SOL    HW252406  14.794  10.663  14.322
50192SOL     OW52407   6.717  13.445   7.083
50192SOL    HW152408   6.784  13.407   7.026
50192SOL    HW252409   6.766  13.504   7.141
50193SOL     OW52410  13.993   0.676   3.711
50193SOL    HW152411  13.929   0.743   3.735
50193SOL    HW252412  14.061   0.723   3.664
50194SOL     OW52413   9.670  13.554   9.613
50194SOL    HW152414   9.644  13.471   9.652
50194SOL    HW252415   9.626  13.621   9.665
50195SOL     OW52416   3.981  10.053   3.772
50195SOL    HW152417   3.948  10.133   3.813
50195SOL    HW252418   4.027  10.082   3.694
50196SOL     OW52419   6.454  11.103   3.969
50196SOL    HW152420   6.448  11.196   3.948
50196SOL    HW252421   6.434  11.058   3.886
50197SOL     OW52422   5.833   9.591  13.052
50197SOL    HW152423   5.738   9.587  13.061
50197SOL    HW252424   5.864   9.605  13.141
50198SOL     OW52425   4.818   2.030   0.157
50198SOL    HW152426   4.804   1.995   0.069
50198SOL    HW252427   4.739   2.082   0.175
50199SOL     OW52428  12.469   4.434  11.495
50199SOL    HW152429  12.392   4.386  11.523
50199SOL    HW252430  12.504   4.384  11.421
50200SOL     OW52431  12.341   5.434   7.357
50200SOL    HW152432  12.392   5.503   7.314
50200SOL    HW252433  12.253   5.443   7.320
50201SOL     OW52434   4.401   5.418   2.382
50201SOL    HW152435   4.387   5.326   2.361
50201SOL    HW252436   4.494   5.434   2.361
50202SOL     OW52437   6.300   4.003   1.140
50202SOL    HW152438   6.263   4.087   1.166
50202SOL    HW252439   6.224   3.946   1.128
50203SOL     OW52440   5.040   1.654   8.831
50203SOL    HW152441   5.030   1.723   8.766
50203SOL    HW252442   4.953   1.614   8.837
50204SOL     OW52443   2.524   4.183   8.677
50204SOL    HW152444   2.457   4.251   8.676
50204SOL    HW252445   2.604   4.229   8.702
50205SOL     OW52446   9.827   1.927  11.344
50205SOL    HW152447   9.917   1.937  11.311
50205SOL    HW252448   9.835   1.866  11.417
50206SOL     OW52449  13.830   3.864   0.999
50206SOL    HW152450  13.861   3.907   1.078
50206SOL    HW252451  13.822   3.934   0.935
50207SOL     OW52452  11.968   7.774   6.311
50207SOL    HW152453  11.973   7.738   6.222
50207SOL    HW252454  12.046   7.739   6.354
50208SOL     OW52455   8.910   2.282   8.957
50208SOL    HW152456   8.965   2.357   8.983
50208SOL    HW252457   8.850   2.318   8.892
50209SOL     OW52458   1.656  12.894  12.542
50209SOL    HW152459   1.711  12.840  12.485
50209SOL    HW252460   1.599  12.830  12.586
50210SOL     OW52461  14.001  10.834   5.897
50210SOL    HW152462  14.093  10.813   5.914
50210SOL    HW252463  13.952  10.766   5.945
50211SOL     OW52464  12.262   6.118  14.436
50211SOL    HW152465  12.219   6.167  14.506
50211SOL    HW252466  12.262   6.027  14.467
50212SOL     OW52467  12.369   0.317   9.118
50212SOL    HW152468  12.395   0.409   9.109
50212SOL    HW252469  12.379   0.280   9.030
50213SOL     OW52470   4.049  11.519  12.616
50213SOL    HW152471   4.114  11.577  12.658
50213SOL    HW252472   4.101  11.463  12.559
50214SOL     OW52473   6.938   6.236   5.762
50214SOL    HW152474   6.896   6.189   5.689
50214SOL    HW252475   6.894   6.203   5.840
50215SOL     OW52476  13.947   3.178  12.572
50215SOL    HW152477  13.922   3.095  12.614
50215SOL    HW252478  14.040   3.188  12.595
50216SOL     OW52479   3.032   7.883  12.161
50216SOL    HW152480   2.980   7.834  12.097
50216SOL    HW252481   3.018   7.975  12.139
50217SOL     OW52482   9.198   4.751   3.179
50217SOL    HW152483   9.176   4.659   3.191
50217SOL    HW252484   9.233   4.756   3.090
50218SOL     OW52485  14.258   1.624   8.335
50218SOL    HW152486  14.345   1.584   8.334
50218SOL    HW252487  14.200   1.555   8.303
50219SOL     OW52488   6.423  12.414   6.089
50219SOL    HW152489   6.473  12.424   6.007
50219SOL    HW252490   6.458  12.335   6.129
50220SOL     OW52491   7.207   3.923   9.338
50220SOL    HW152492   7.138   3.904   9.400
50220SOL    HW252493   7.248   4.003   9.370
50221SOL     OW52494   0.198   7.329   6.477
50221SOL    HW152495   0.258   7.366   6.541
50221SOL    HW252496   0.246   7.334   6.394
50222SOL     OW52497   2.603   7.905   9.118
50222SOL    HW152498   2.591   7.904   9.213
50222SOL    HW252499   2.585   7.816   9.090
50223SOL     OW52500   8.867  13.019   6.680
50223SOL    HW152501   8.908  12.992   6.763
50223SOL    HW252502   8.940  13.049   6.626
50224SOL     OW52503   1.266  11.285   0.141
50224SOL    HW152504   1.171  11.281   0.140
50224SOL    HW252505   1.287  11.372   0.108
50225SOL     OW52506   0.329   7.733  14.456
50225SOL    HW152507   0.299   7.821  14.432
50225SOL    HW252508   0.269   7.674  14.411
50226SOL     OW52509  12.721   5.594  14.198
50226SOL    HW152510  12.779   5.518  14.211
50226SOL    HW252511  12.752   5.658  14.261
50227SOL     OW52512   4.411   4.669   5.039
50227SOL    HW152513   4.324   4.631   5.027
50227SOL    HW252514   4.466   4.594   5.065
50228SOL     OW52515   5.000  13.212   8.923
50228SOL    HW152516   5.061  13.154   8.968
50228SOL    HW252517   5.052  13.254   8.855
50229SOL     OW52518   2.708  11.372   2.181
50229SOL    HW152519   2.637  11.387   2.119
50229SOL    HW252520   2.758  11.299   2.142
50230SOL     OW52521   4.645   2.201  13.885
50230SOL    HW152522   4.697   2.256  13.944
50230SOL    HW252523   4.566   2.180  13.936
50231SOL     OW52524   0.775   3.785  12.400
50231SOL    HW152525   0.760   3.723  12.471
50231SOL    HW252526   0.714   3.759  12.331
50232SOL     OW52527   3.988   6.533   6.739
50232SOL    HW152528   3.976   6.626   6.757
50232SOL    HW252529   4.019   6.530   6.648
50233SOL     OW52530   7.939   1.592  13.454
50233SOL    HW152531   7.903   1.670  13.412
50233SOL    HW252532   7.998   1.555  13.390
50234SOL     OW52533   7.921  10.961  14.788
50234SOL    HW152534   8.002  10.970  14.839
50234SOL    HW252535   7.946  10.985  14.699
50235SOL     OW52536  14.673  10.318  12.205
50235SOL    HW152537  14.674  10.261  12.281
50235SOL    HW252538  14.624  10.395  12.233
50236SOL     OW52539   3.034   9.836   3.871
50236SOL    HW152540   2.970   9.770   3.898
50236SOL    HW252541   3.083   9.794   3.800
50237SOL     OW52542   2.336   3.751  12.614
50237SOL    HW152543   2.349   3.820  12.549
50237SOL    HW252544   2.341   3.796  12.698
50238SOL     OW52545  11.283   1.869   1.250
50238SOL    HW152546  11.256   1.954   1.215
50238SOL    HW252547  11.291   1.883   1.344
50239SOL     OW52548   5.668   8.866   6.536
50239SOL    HW152549   5.691   8.784   6.492
50239SOL    HW252550   5.742   8.884   6.594
50240SOL     OW52551   0.961   6.163   3.443
50240SOL    HW152552   0.871   6.143   3.416
50240SOL    HW252553   0.950   6.226   3.515
50241SOL     OW52554   4.010  14.163   9.210
50241SOL    HW152555   3.974  14.185   9.124
50241SOL    HW252556   3.972  14.078   9.231
50242SOL     OW52557   3.633  12.728   2.628
50242SOL    HW152558   3.706  12.715   2.567
50242SOL    HW252559   3.581  12.798   2.588
50243SOL     OW52560  13.521   1.168   3.903
50243SOL    HW152561  13.455   1.212   3.851
50243SOL    HW252562  13.601   1.172   3.851
50244SOL     OW52563  12.536  13.616   9.643
50244SOL    HW152564  12.583  13.642   9.564
50244SOL    HW252565  12.532  13.520   9.637
50245SOL     OW52566   4.088  12.992  13.104
50245SOL    HW152567   4.058  12.923  13.163
50245SOL    HW252568   4.024  13.062  13.113
50246SOL     OW52569   0.708   0.843   9.760
50246SOL    HW152570   0.685   0.864   9.851
50246SOL    HW252571   0.800   0.815   9.765
50247SOL     OW52572   3.587   1.517   0.107
50247SOL    HW152573   3.616   1.581   0.041
50247SOL    HW252574   3.660   1.514   0.170
50248SOL     OW52575   8.503   6.427  12.453
50248SOL    HW152576   8.490   6.349  12.399
50248SOL    HW252577   8.580   6.407  12.506
50249SOL     OW52578  11.067   5.156   4.601
50249SOL    HW152579  11.088   5.153   4.507
50249SOL    HW252580  11.024   5.241   4.613
50250SOL     OW52581  10.649  13.878   1.172
50250SOL    HW152582  10.567  13.924   1.160
50250SOL    HW252583  10.690  13.876   1.085
50251SOL     OW52584   1.857   6.509  10.658
50251SOL    HW152585   1.884   6.452  10.586
50251SOL    HW252586   1.937   6.554  10.686
50252SOL     OW52587  14.182  13.149  10.318
50252SOL    HW152588  14.250  13.106  10.265
50252SOL    HW252589  14.189  13.107  10.404
50253SOL     OW52590  10.561  14.381   5.798
50253SOL    HW152591  10.473  14.418   5.795
50253SOL    HW252592  10.611  14.442   5.852
50254SOL     OW52593  13.070   0.414   6.137
50254SOL    HW152594  13.164   0.422   6.154
50254SOL    HW252595  13.033   0.497   6.165
50255SOL     OW52596  14.782   5.162   9.359
50255SOL    HW152597  14.744   5.106   9.291
50255SOL    HW252598  14.710   5.221   9.383
50256SOL     OW52599   4.169   9.162   2.547
50256SOL    HW152600   4.156   9.070   2.573
50256SOL    HW252601   4.253   9.186   2.587
50257SOL     OW52602  11.540  13.659  11.040
50257SOL    HW152603  11.550  13.665  10.945
50257SOL    HW252604  11.463  13.602  11.053
50258SOL     OW52605  11.930   0.731  13.054
50258SOL    HW152606  11.885   0.773  13.127
50258SOL    HW252607  11.864   0.729  12.984
50259SOL     OW52608   9.208   5.352   0.351
50259SOL    HW152609   9.260   5.422   0.311
50259SOL    HW252610   9.272   5.297   0.396
50260SOL     OW52611   3.857   1.794   1.913
50260SOL    HW152612   3.939   1.752   1.887
50260SOL    HW252613   3.817   1.733   1.975
50261SOL     OW52614   2.542  11.358  11.746
50261SOL    HW152615   2.530  11.323  11.658
50261SOL    HW252616   2.623  11.408  11.741
50262SOL     OW52617  13.366   2.731   3.401
50262SOL    HW152618  13.351   2.749   3.309
50262SOL    HW252619  13.461   2.723   3.409
50263SOL     OW52620  14.824  12.662   8.415
50263SOL    HW152621  14.773  12.594   8.372
50263SOL    HW252622   0.032  12.649   8.384
50264SOL     OW52623   2.636   4.976   2.854
50264SOL    HW152624   2.642   4.882   2.869
50264SOL    HW252625   2.631   5.015   2.941
50265SOL     OW52626   7.694   3.212   8.361
50265SOL    HW152627   7.668   3.137   8.414
50265SOL    HW252628   7.704   3.283   8.425
50266SOL     OW52629   6.987   6.781   8.846
50266SOL    HW152630   6.975   6.850   8.912
50266SOL    HW252631   6.917   6.718   8.864
50267SOL     OW52632  13.791  10.482   1.937
50267SOL    HW152633  13.822  10.529   2.014
50267SOL    HW252634  13.821  10.391   1.950
50268SOL     OW52635  13.333   0.869  10.988
50268SOL    HW152636  13.310   0.941  10.929
50268SOL    HW252637  13.361   0.912  11.068
50269SOL     OW52638   8.765   6.038  10.929
50269SOL    HW152639   8.741   6.029  11.021
50269SOL    HW252640   8.859   6.017  10.927
50270SOL     OW52641   0.551  14.396  11.895
50270SOL    HW152642   0.529  14.483  11.862
50270SOL    HW252643   0.491  14.337  11.849
50271SOL     OW52644   5.375  10.174  10.958
50271SOL    HW152645   5.418  10.215  10.883
50271SOL    HW252646   5.301  10.232  10.978
50272SOL     OW52647   3.663   9.388   1.217
50272SOL    HW152648   3.716   9.375   1.296
50272SOL    HW252649   3.668   9.304   1.172
50273SOL     OW52650  13.978  12.670   1.261
50273SOL    HW152651  13.981  12.576   1.278
50273SOL    HW252652  13.948  12.677   1.170
50274SOL     OW52653   1.119  13.101  13.025
50274SOL    HW152654   1.110  13.188  13.064
50274SOL    HW252655   1.076  13.109  12.940
50275SOL     OW52656   8.129  13.474  11.942
50275SOL    HW152657   8.109  13.523  11.862
50275SOL    HW252658   8.160  13.389  11.911
50276SOL     OW52659  12.481   6.062   3.088
50276SOL    HW152660  12.420   6.074   3.161
50276SOL    HW252661  12.542   5.995   3.118
50277SOL     OW52662   2.564   1.189  12.580
50277SOL    HW152663   2.585   1.238  12.501
50277SOL    HW252664   2.537   1.255  12.643
50278SOL     OW52665   9.758   1.018   4.485
50278SOL    HW152666   9.689   0.954   4.502
50278SOL    HW252667   9.810   0.979   4.415
50279SOL     OW52668   7.513   7.812   1.098
50279SOL    HW152669   7.445   7.819   1.030
50279SOL    HW252670   7.530   7.903   1.124
50280SOL     OW52671   4.258  13.676   4.850
50280SOL    HW152672   4.283  13.600   4.903
50280SOL    HW252673   4.301  13.750   4.894
50281SOL     OW52674   5.284   9.593   3.986
50281SOL    HW152675   5.250   9.613   4.073
50281SOL    HW252676   5.374   9.625   3.987
50282SOL     OW52677   2.746   8.110   9.395
50282SOL    HW152678   2.704   8.024   9.393
50282SOL    HW252679   2.788   8.118   9.309
50283SOL     OW52680   0.371  12.853   0.680
50283SOL    HW152681   0.298  12.893   0.635
50283SOL    HW252682   0.448  12.874   0.627
50284SOL     OW52683   5.897  12.127  10.423
50284SOL    HW152684   5.818  12.150  10.375
50284SOL    HW252685   5.917  12.038  10.394
50285SOL     OW52686  10.704   8.616   2.570
50285SOL    HW152687  10.770   8.684   2.576
50285SOL    HW252688  10.668   8.625   2.482
50286SOL     OW52689   1.273  12.987  12.408
50286SOL    HW152690   1.296  12.903  12.367
50286SOL    HW252691   1.177  12.988  12.407
50287SOL     OW52692   8.034  10.693   2.508
50287SOL    HW152693   7.996  10.772   2.546
50287SOL    HW252694   7.968  10.625   2.524
50288SOL     OW52695   1.552   5.838   2.998
50288SOL    HW152696   1.605   5.861   2.921
50288SOL    HW252697   1.465   5.872   2.979
50289SOL     OW52698  14.277   1.492  14.350
50289SOL    HW152699  14.191   1.474  14.312
50289SOL    HW252700  14.257   1.516  14.441
50290SOL     OW52701  11.679  11.101  14.007
50290SOL    HW152702  11.676  11.070  13.917
50290SOL    HW252703  11.621  11.042  14.055
50291SOL     OW52704   7.628   0.613  11.837
50291SOL    HW152705   7.550   0.626  11.891
50291SOL    HW252706   7.675   0.542  11.879
50292SOL     OW52707   5.306  11.047   7.905
50292SOL    HW152708   5.380  11.089   7.860
50292SOL    HW252709   5.273  11.115   7.964
50293SOL     OW52710  13.355  12.685   3.127
50293SOL    HW152711  13.407  12.608   3.102
50293SOL    HW252712  13.331  12.669   3.218
50294SOL     OW52713  11.665  12.999  11.190
50294SOL    HW152714  11.740  12.975  11.245
50294SOL    HW252715  11.702  13.009  11.102
50295SOL     OW52716   6.628  13.166   3.767
50295SOL    HW152717   6.557  13.203   3.714
50295SOL    HW252718   6.708  13.186   3.718
50296SOL     OW52719   7.201  12.115  14.316
50296SOL    HW152720   7.188  12.155  14.230
50296SOL    HW252721   7.209  12.189  14.376
50297SOL     OW52722   0.115   0.474   0.002
50297SOL    HW152723   0.197   0.436  14.853
50297SOL    HW252724   0.130   0.569  14.879
50298SOL     OW52725   1.959   6.729   5.938
50298SOL    HW152726   1.962   6.648   5.989
50298SOL    HW252727   1.894   6.783   5.981
50299SOL     OW52728   2.423  13.780   9.924
50299SOL    HW152729   2.458  13.828   9.848
50299SOL    HW252730   2.498  13.732   9.959
50300SOL     OW52731   5.444  14.144  10.566
50300SOL    HW152732   5.495  14.064  10.551
50300SOL    HW252733   5.377  14.118  10.629
50301SOL     OW52734   2.158  14.595   8.351
50301SOL    HW152735   2.196  14.654   8.286
50301SOL    HW252736   2.119  14.653   8.417
50302SOL     OW52737   1.323   8.926   0.391
50302SOL    HW152738   1.237   8.895   0.418
50302SOL    HW252739   1.332   8.898   0.300
50303SOL     OW52740   7.211  14.681   9.509
50303SOL    HW152741   7.233  14.721   9.424
50303SOL    HW252742   7.124  14.715   9.529
50304SOL     OW52743   7.270   4.421   9.556
50304SOL    HW152744   7.275   4.328   9.536
50304SOL    HW252745   7.309   4.430   9.643
50305SOL     OW52746   5.188   7.242  12.025
50305SOL    HW152747   5.270   7.268  11.982
50305SOL    HW252748   5.210   7.239  12.118
50306SOL     OW52749   9.406   1.444   1.799
50306SOL    HW152750   9.402   1.349   1.813
50306SOL    HW252751   9.416   1.454   1.705
50307SOL     OW52752  12.508  13.535  11.746
50307SOL    HW152753  12.570  13.572  11.810
50307SOL    HW252754  12.539  13.445  11.734
50308SOL     OW52755  10.895   3.994   6.003
50308SOL    HW152756  10.801   3.993   6.021
50308SOL    HW252757  10.924   4.081   6.032
50309SOL     OW52758   7.122   1.982   2.202
50309SOL    HW152759   7.111   2.070   2.166
50309SOL    HW252760   7.084   1.924   2.137
50310SOL     OW52761   2.103   4.523  10.772
50310SOL    HW152762   2.134   4.603  10.814
50310SOL    HW252763   2.182   4.476  10.747
50311SOL     OW52764  11.202   8.025   6.908
50311SOL    HW152765  11.246   7.942   6.929
50311SOL    HW252766  11.161   8.052   6.990
50312SOL     OW52767  12.939   0.979  11.162
50312SOL    HW152768  12.996   0.902  11.166
50312SOL    HW252769  12.855   0.945  11.133
50313SOL     OW52770  13.832  12.473   4.747
50313SOL    HW152771  13.748  12.516   4.738
50313SOL    HW252772  13.896  12.544   4.744
50314SOL     OW52773  12.294  13.395   6.085
50314SOL    HW152774  12.332  13.326   6.140
50314SOL    HW252775  12.271  13.465   6.146
50315SOL     OW52776   1.414  12.073   7.147
50315SOL    HW152777   1.320  12.055   7.143
50315SOL    HW252778   1.433  12.084   7.241
50316SOL     OW52779  11.279   9.287   3.931
50316SOL    HW152780  11.186   9.263   3.933
50316SOL    HW252781  11.288   9.342   3.854
50317SOL     OW52782   3.029   7.719   6.302
50317SOL    HW152783   3.093   7.789   6.288
50317SOL    HW252784   2.968   7.754   6.366
50318SOL     OW52785   4.193  14.350   1.032
50318SOL    HW152786   4.099  14.370   1.035
50318SOL    HW252787   4.229  14.417   0.973
50319SOL     OW52788   0.950   4.053   8.035
50319SOL    HW152789   0.960   4.069   7.941
50319SOL    HW252790   0.943   4.140   8.074
50320SOL     OW52791   1.425   4.697   9.258
50320SOL    HW152792   1.393   4.634   9.193
50320SOL    HW252793   1.513   4.720   9.226
50321SOL     OW52794   3.622  11.722   8.405
50321SOL    HW152795   3.549  11.745   8.463
50321SOL    HW252796   3.656  11.806   8.374
50322SOL     OW52797   7.788   1.416   2.919
50322SOL    HW152798   7.761   1.427   3.010
50322SOL    HW252799   7.723   1.356   2.882
50323SOL     OW52800   0.918   6.312  14.832
50323SOL    HW152801   1.002   6.303  14.787
50323SOL    HW252802   0.853   6.287  14.767
50324SOL     OW52803   8.504   2.859  13.781
50324SOL    HW152804   8.483   2.853  13.688
50324SOL    HW252805   8.503   2.953  13.800
50325SOL     OW52806  14.755  13.827   8.244
50325SOL    HW152807  14.812  13.861   8.174
50325SOL    HW252808  14.772  13.884   8.318
50326SOL     OW52809   4.887  12.433  11.317
50326SOL    HW152810   4.894  12.517  11.362
50326SOL    HW252811   4.976  12.399  11.316
50327SOL     OW52812  11.573  13.002  10.332
50327SOL    HW152813  11.628  12.953  10.272
50327SOL    HW252814  11.625  13.013  10.411
50328SOL     OW52815   1.222   2.784   1.283
50328SOL    HW152816   1.209   2.716   1.349
50328SOL    HW252817   1.138   2.830   1.279
50329SOL     OW52818   3.557  10.425  12.647
50329SOL    HW152819   3.621  10.471  12.701
50329SOL    HW252820   3.605  10.401  12.568
50330SOL     OW52821  10.300  12.213   2.228
50330SOL    HW152822  10.354  12.292   2.238
50330SOL    HW252823  10.252  12.206   2.311
50331SOL     OW52824   6.230   1.322   1.842
50331SOL    HW152825   6.269   1.407   1.859
50331SOL    HW252826   6.181   1.333   1.761
50332SOL     OW52827  11.441  11.207  13.101
50332SOL    HW152828  11.529  11.170  13.088
50332SOL    HW252829  11.424  11.195  13.195
50333SOL     OW52830   8.249   7.682   5.025
50333SOL    HW152831   8.320   7.618   5.019
50333SOL    HW252832   8.289   7.757   5.070
50334SOL     OW52833   2.025   5.449   4.629
50334SOL    HW152834   1.971   5.380   4.668
50334SOL    HW252835   2.103   5.452   4.684
50335SOL     OW52836   3.279   1.565   1.779
50335SOL    HW152837   3.216   1.628   1.746
50335SOL    HW252838   3.280   1.579   1.874
50336SOL     OW52839   7.481   1.069  13.996
50336SOL    HW152840   7.569   1.051  14.030
50336SOL    HW252841   7.435   1.109  14.070
50337SOL     OW52842   6.906  10.789   4.415
50337SOL    HW152843   6.992  10.780   4.456
50337SOL    HW252844   6.925  10.829   4.330
50338SOL     OW52845   7.110  11.328   2.396
50338SOL    HW152846   7.042  11.272   2.360
50338SOL    HW252847   7.093  11.415   2.360
50339SOL     OW52848   8.329   7.877   9.999
50339SOL    HW152849   8.283   7.822   9.936
50339SOL    HW252850   8.405   7.910   9.952
50340SOL     OW52851  11.297   5.407   9.349
50340SOL    HW152852  11.260   5.384   9.264
50340SOL    HW252853  11.224   5.449   9.396
50341SOL     OW52854   4.702  13.811   9.336
50341SOL    HW152855   4.655  13.892   9.354
50341SOL    HW252856   4.769  13.836   9.272
50342SOL     OW52857   0.222   0.570  13.930
50342SOL    HW152858   0.182   0.596  13.847
50342SOL    HW252859   0.196   0.479  13.942
50343SOL     OW52860  14.775   6.453   9.860
50343SOL    HW152861  14.713   6.437   9.789
50343SOL    HW252862  14.839   6.513   9.824
50344SOL     OW52863  13.944  10.428  11.151
50344SOL    HW152864  13.884  10.498  11.176
50344SOL    HW252865  13.981  10.397  11.234
50345SOL     OW52866   1.208   9.550   0.458
50345SOL    HW152867   1.239   9.495   0.530
50345SOL    HW252868   1.116   9.565   0.478
50346SOL     OW52869   5.415   5.784   9.668
50346SOL    HW152870   5.437   5.793   9.761
50346SOL    HW252871   5.358   5.708   9.664
50347SOL     OW52872   4.372  12.794  11.090
50347SOL    HW152873   4.371  12.885  11.060
50347SOL    HW252874   4.284  12.762  11.074
50348SOL     OW52875   0.482   4.254   8.058
50348SOL    HW152876   0.437   4.188   8.110
50348SOL    HW252877   0.571   4.255   8.092
50349SOL     OW52878   2.388   8.508   4.576
50349SOL    HW152879   2.475   8.476   4.598
50349SOL    HW252880   2.402   8.571   4.505
50350SOL     OW52881   5.500   7.319   9.974
50350SOL    HW152882   5.575   7.377   9.964
50350SOL    HW252883   5.451   7.329   9.892
50351SOL     OW52884   5.333   9.452   7.487
50351SOL    HW152885   5.250   9.419   7.521
50351SOL    HW252886   5.310   9.494   7.404
50352SOL     OW52887   7.346   2.677  13.920
50352SOL    HW152888   7.340   2.769  13.944
50352SOL    HW252889   7.408   2.674  13.847
50353SOL     OW52890   2.355   6.895   1.918
50353SOL    HW152891   2.341   6.817   1.866
50353SOL    HW252892   2.400   6.956   1.860
50354SOL     OW52893  10.199  13.178   7.223
50354SOL    HW152894  10.267  13.158   7.158
50354SOL    HW252895  10.219  13.267   7.252
50355SOL     OW52896   8.104  11.902  11.216
50355SOL    HW152897   8.009  11.900  11.213
50355SOL    HW252898   8.131  11.912  11.124
50356SOL     OW52899   0.257   6.913  11.325
50356SOL    HW152900   0.299   6.887  11.407
50356SOL    HW252901   0.171   6.872  11.327
50357SOL     OW52902   6.852   0.043   6.093
50357SOL    HW152903   6.921   0.010   6.036
50357SOL    HW252904   6.770   0.016   6.051
50358SOL     OW52905   4.617  12.333   0.205
50358SOL    HW152906   4.570  12.331   0.122
50358SOL    HW252907   4.604  12.245   0.242
50359SOL     OW52908   0.264  10.053   5.495
50359SOL    HW152909   0.178  10.015   5.476
50359SOL    HW252910   0.269  10.054   5.590
50360SOL     OW52911   3.017   0.632   7.969
50360SOL    HW152912   2.962   0.554   7.956
50360SOL    HW252913   3.014   0.648   8.063
50361SOL     OW52914   8.384   2.254  14.617
50361SOL    HW152915   8.393   2.318  14.547
50361SOL    HW252916   8.421   2.173  14.581
50362SOL     OW52917   8.823   5.102  13.352
50362SOL    HW152918   8.836   5.109  13.258
50362SOL    HW252919   8.895   5.152  13.391
50363SOL     OW52920  12.446   9.691   7.219
50363SOL    HW152921  12.515   9.663   7.279
50363SOL    HW252922  12.426   9.613   7.167
50364SOL     OW52923  10.432  12.553   6.358
50364SOL    HW152924  10.467  12.571   6.271
50364SOL    HW252925  10.506  12.564   6.417
50365SOL     OW52926  13.429   0.940  13.248
50365SOL    HW152927  13.336   0.957  13.232
50365SOL    HW252928  13.471   0.951  13.163
50366SOL     OW52929   2.496  12.152  13.874
50366SOL    HW152930   2.564  12.186  13.815
50366SOL    HW252931   2.500  12.209  13.950
50367SOL     OW52932   0.838   9.769  12.710
50367SOL    HW152933   0.911   9.748  12.769
50367SOL    HW252934   0.761   9.732  12.753
50368SOL     OW52935  10.255   8.678   9.472
50368SOL    HW152936  10.272   8.772   9.484
50368SOL    HW252937  10.162   8.668   9.489
50369SOL     OW52938   1.521   4.767   4.136
50369SOL    HW152939   1.451   4.778   4.072
50369SOL    HW252940   1.521   4.849   4.185
50370SOL     OW52941   0.231   7.069   7.624
50370SOL    HW152942   0.273   7.155   7.614
50370SOL    HW252943   0.196   7.049   7.538
50371SOL     OW52944  14.333   4.131   7.614
50371SOL    HW152945  14.305   4.079   7.689
50371SOL    HW252946  14.375   4.068   7.556
50372SOL     OW52947   1.180  13.064   0.588
50372SOL    HW152948   1.219  13.150   0.575
50372SOL    HW252949   1.105  13.080   0.646
50373SOL     OW52950  11.341   4.573  11.970
50373SOL    HW152951  11.273   4.613  11.916
50373SOL    HW252952  11.295   4.541  12.048
50374SOL     OW52953  13.624   8.473   9.919
50374SOL    HW152954  13.718   8.471   9.900
50374SOL    HW252955  13.595   8.383   9.901
50375SOL     OW52956   3.647   9.944   3.297
50375SOL    HW152957   3.732   9.986   3.285
50375SOL    HW252958   3.585  10.016   3.304
50376SOL     OW52959   9.639   2.568   1.903
50376SOL    HW152960   9.699   2.514   1.955
50376SOL    HW252961   9.553   2.553   1.944
50377SOL     OW52962   6.678  12.493   8.272
50377SOL    HW152963   6.588  12.469   8.292
50377SOL    HW252964   6.725  12.409   8.265
50378SOL     OW52965   7.317  12.905  11.045
50378SOL    HW152966   7.403  12.865  11.042
50378SOL    HW252967   7.328  12.983  11.098
50379SOL     OW52968  10.947  12.989  10.065
50379SOL    HW152969  11.012  13.019  10.002
50379SOL    HW252970  10.875  13.052  10.056
50380SOL     OW52971   1.881   5.496   3.156
50380SOL    HW152972   1.908   5.450   3.235
50380SOL    HW252973   1.884   5.589   3.179
50381SOL     OW52974   8.398   8.791   0.119
50381SOL    HW152975   8.421   8.857   0.184
50381SOL    HW252976   8.325   8.830   0.070
50382SOL     OW52977   3.383  12.757  12.305
50382SOL    HW152978   3.438  12.822  12.262
50382SOL    HW252979   3.442  12.684  12.324
50383SOL     OW52980   9.371   2.919   0.433
50383SOL    HW152981   9.439   2.853   0.420
50383SOL    HW252982   9.289   2.870   0.434
50384SOL     OW52983   3.296   8.046  11.018
50384SOL    HW152984   3.331   8.092  10.942
50384SOL    HW252985   3.201   8.043  11.002
50385SOL     OW52986  11.416  13.436   7.315
50385SOL    HW152987  11.427  13.389   7.233
50385SOL    HW252988  11.324  13.422   7.339
50386SOL     OW52989  11.672  14.875   7.905
50386SOL    HW152990  11.763   0.020   7.912
50386SOL    HW252991  11.674  14.798   7.849
50387SOL     OW52992  13.226   7.181  12.434
50387SOL    HW152993  13.285   7.238  12.384
50387SOL    HW252994  13.139   7.219  12.420
50388SOL     OW52995   8.444   9.994   9.530
50388SOL    HW152996   8.381  10.002   9.603
50388SOL    HW252997   8.529   9.994   9.573
50389SOL     OW52998   1.171  13.069  13.466
50389SOL    HW152999   1.213  12.985  13.446
50389SOL    HW253000   1.239  13.120  13.510
50390SOL     OW53001   2.836  13.075  10.263
50390SOL    HW153002   2.890  13.064  10.341
50390SOL    HW253003   2.832  13.169  10.250
50391SOL     OW53004   5.789  11.088   8.633
50391SOL    HW153005   5.836  11.122   8.709
50391SOL    HW253006   5.709  11.140   8.628
50392SOL     OW53007   0.547   7.248   4.700
50392SOL    HW153008   0.637   7.229   4.728
50392SOL    HW253009   0.556   7.321   4.638
50393SOL     OW53010   3.443   3.462  10.069
50393SOL    HW153011   3.501   3.440   9.996
50393SOL    HW253012   3.415   3.552  10.052
50394SOL     OW53013   3.549  10.092   7.560
50394SOL    HW153014   3.547  10.125   7.470
50394SOL    HW253015   3.641  10.074   7.578
50395SOL     OW53016   5.367   3.382   8.923
50395SOL    HW153017   5.452   3.413   8.892
50395SOL    HW253018   5.378   3.372   9.018
50396SOL     OW53019   8.893   0.944  13.344
50396SOL    HW153020   8.840   1.006  13.292
50396SOL    HW253021   8.832   0.874  13.367
50397SOL     OW53022   9.107  12.000   9.691
50397SOL    HW153023   9.114  11.942   9.615
50397SOL    HW253024   9.027  11.973   9.735
50398SOL     OW53025  13.601   3.311   1.821
50398SOL    HW153026  13.579   3.245   1.887
50398SOL    HW253027  13.516   3.343   1.790
50399SOL     OW53028   2.190   4.719   3.350
50399SOL    HW153029   2.275   4.722   3.305
50399SOL    HW253030   2.165   4.627   3.349
50400SOL     OW53031   7.597  13.459  12.454
50400SOL    HW153032   7.681  13.505  12.459
50400SOL    HW253033   7.532  13.528  12.442
50401SOL     OW53034   3.505   7.365   0.574
50401SOL    HW153035   3.482   7.325   0.658
50401SOL    HW253036   3.565   7.303   0.533
50402SOL     OW53037   7.986   8.032   5.875
50402SOL    HW153038   7.954   8.109   5.828
50402SOL    HW253039   7.908   7.992   5.913
50403SOL     OW53040  10.631   4.023   3.476
50403SOL    HW153041  10.661   3.955   3.416
50403SOL    HW253042  10.703   4.034   3.537
50404SOL     OW53043   8.924   6.342   2.968
50404SOL    HW153044   8.893   6.349   2.878
50404SOL    HW253045   8.957   6.429   2.989
50405SOL     OW53046  12.596  10.391   5.458
50405SOL    HW153047  12.540  10.325   5.418
50405SOL    HW253048  12.573  10.389   5.551
50406SOL     OW53049  12.574   7.110   8.490
50406SOL    HW153050  12.569   7.030   8.544
50406SOL    HW253051  12.650   7.156   8.523
50407SOL     OW53052  14.138   5.695   2.340
50407SOL    HW153053  14.098   5.612   2.365
50407SOL    HW253054  14.067   5.759   2.349
50408SOL     OW53055  13.885   9.789   8.668
50408SOL    HW153056  13.887   9.783   8.573
50408SOL    HW253057  13.829   9.717   8.696
50409SOL     OW53058   3.118   5.140  11.288
50409SOL    HW153059   3.025   5.162  11.294
50409SOL    HW253060   3.119   5.046  11.270
50410SOL     OW53061  13.467  12.984   9.097
50410SOL    HW153062  13.395  12.936   9.138
50410SOL    HW253063  13.452  13.076   9.121
50411SOL     OW53064   7.226   5.099  12.230
50411SOL    HW153065   7.296   5.106  12.294
50411SOL    HW253066   7.231   5.180  12.179
50412SOL     OW53067   6.779   0.204   3.781
50412SOL    HW153068   6.842   0.158   3.725
50412SOL    HW253069   6.700   0.149   3.776
50413SOL     OW53070  12.391   9.611  12.375
50413SOL    HW153071  12.450   9.607  12.450
50413SOL    HW253072  12.448   9.610  12.298
50414SOL     OW53073  11.381  10.972   6.984
50414SOL    HW153074  11.290  10.986   6.958
50414SOL    HW253075  11.399  10.882   6.959
50415SOL     OW53076   5.022   8.862   3.556
50415SOL    HW153077   5.059   8.950   3.548
50415SOL    HW253078   5.062   8.813   3.485
50416SOL     OW53079   5.893   6.524   2.189
50416SOL    HW153080   5.966   6.474   2.225
50416SOL    HW253081   5.894   6.504   2.095
50417SOL     OW53082  12.946   8.449  10.316
50417SOL    HW153083  12.870   8.451  10.258
50417SOL    HW253084  13.020   8.467  10.258
50418SOL     OW53085   6.792   5.083  14.564
50418SOL    HW153086   6.878   5.042  14.576
50418SOL    HW253087   6.761   5.051  14.479
50419SOL     OW53088   2.749   2.260   1.672
50419SOL    HW153089   2.729   2.167   1.676
50419SOL    HW253090   2.790   2.279   1.757
50420SOL     OW53091   4.422   5.802  11.292
50420SOL    HW153092   4.395   5.720  11.334
50420SOL    HW253093   4.503   5.827  11.336
50421SOL     OW53094   6.297  14.325   2.292
50421SOL    HW153095   6.332  14.319   2.203
50421SOL    HW253096   6.351  14.265   2.343
50422SOL     OW53097  12.813   5.929   0.500
50422SOL    HW153098  12.818   5.841   0.463
50422SOL    HW253099  12.829   5.987   0.425
50423SOL     OW53100   8.768   2.815   5.711
50423SOL    HW153101   8.827   2.874   5.759
50423SOL    HW253102   8.826   2.748   5.675
50424SOL     OW53103  11.482   6.380   5.389
50424SOL    HW153104  11.499   6.392   5.482
50424SOL    HW253105  11.414   6.313   5.385
50425SOL     OW53106  14.188   2.371  11.356
50425SOL    HW153107  14.203   2.277  11.347
50425SOL    HW253108  14.189   2.386  11.451
50426SOL     OW53109   5.182   6.378   6.451
50426SOL    HW153110   5.163   6.409   6.539
50426SOL    HW253111   5.193   6.458   6.399
50427SOL     OW53112   1.523   3.421  14.250
50427SOL    HW153113   1.540   3.394  14.160
50427SOL    HW253114   1.547   3.345  14.302
50428SOL     OW53115   4.572  14.175  13.425
50428SOL    HW153116   4.524  14.224  13.358
50428SOL    HW253117   4.582  14.236  13.498
50429SOL     OW53118  12.218   7.952  12.819
50429SOL    HW153119  12.284   7.920  12.881
50429SOL    HW253120  12.171   8.020  12.867
50430SOL     OW53121   7.271   8.675  10.746
50430SOL    HW153122   7.296   8.664  10.838
50430SOL    HW253123   7.269   8.770  10.733
50431SOL     OW53124   3.063   9.087   6.347
50431SOL    HW153125   2.992   9.046   6.397
50431SOL    HW253126   3.123   9.015   6.328
50432SOL     OW53127   8.550   3.042   4.854
50432SOL    HW153128   8.501   3.027   4.773
50432SOL    HW253129   8.599   2.961   4.868
50433SOL     OW53130   9.410   5.447   5.627
50433SOL    HW153131   9.419   5.409   5.540
50433SOL    HW253132   9.483   5.411   5.677
50434SOL     OW53133  13.454   9.749  12.747
50434SOL    HW153134  13.360   9.765  12.752
50434SOL    HW253135  13.487   9.767  12.835
50435SOL     OW53136  14.564   0.338   6.812
50435SOL    HW153137  14.494   0.274   6.825
50435SOL    HW253138  14.640   0.300   6.855
50436SOL     OW53139  14.325  12.935   5.725
50436SOL    HW153140  14.409  12.925   5.680
50436SOL    HW253141  14.347  12.978   5.808
50437SOL     OW53142   6.424  10.335   5.864
50437SOL    HW153143   6.504  10.361   5.909
50437SOL    HW253144   6.356  10.338   5.931
50438SOL     OW53145   7.811   5.600   1.270
50438SOL    HW153146   7.905   5.611   1.259
50438SOL    HW253147   7.802   5.511   1.305
50439SOL     OW53148   8.568  11.304   2.199
50439SOL    HW153149   8.566  11.398   2.216
50439SOL    HW253150   8.490  11.270   2.242
50440SOL     OW53151   5.858   1.694   0.243
50440SOL    HW153152   5.838   1.652   0.159
50440SOL    HW253153   5.779   1.742   0.266
50441SOL     OW53154   5.156   9.398   5.037
50441SOL    HW153155   5.177   9.325   5.096
50441SOL    HW253156   5.155   9.360   4.950
50442SOL     OW53157   5.859  13.487   2.963
50442SOL    HW153158   5.867  13.580   2.985
50442SOL    HW253159   5.907  13.442   3.032
50443SOL     OW53160   2.579  13.440   1.470
50443SOL    HW153161   2.563  13.451   1.563
50443SOL    HW253162   2.644  13.369   1.465
50444SOL     OW53163  13.830  12.584   8.527
50444SOL    HW153164  13.847  12.628   8.611
50444SOL    HW253165  13.918  12.571   8.490
50445SOL     OW53166   9.908   4.600   0.555
50445SOL    HW153167   9.970   4.644   0.496
50445SOL    HW253168   9.947   4.611   0.642
50446SOL     OW53169   1.269  13.052   5.716
50446SOL    HW153170   1.197  13.103   5.679
50446SOL    HW253171   1.343  13.070   5.658
50447SOL     OW53172   6.696  14.052   0.948
50447SOL    HW153173   6.750  14.130   0.934
50447SOL    HW253174   6.720  13.993   0.877
50448SOL     OW53175   0.582  14.072   4.052
50448SOL    HW153176   0.526  13.995   4.045
50448SOL    HW253177   0.631  14.075   3.970
50449SOL     OW53178   8.900   1.743  12.395
50449SOL    HW153179   8.846   1.675  12.355
50449SOL    HW253180   8.912   1.714  12.486
50450SOL     OW53181  14.568   6.051   9.076
50450SOL    HW153182  14.504   6.097   9.131
50450SOL    HW253183  14.646   6.106   9.080
50451SOL     OW53184   0.508   5.461   5.679
50451SOL    HW153185   0.541   5.550   5.693
50451SOL    HW253186   0.471   5.436   5.763
50452SOL     OW53187   6.656  11.183   1.362
50452SOL    HW153188   6.626  11.258   1.311
50452SOL    HW253189   6.727  11.217   1.416
50453SOL     OW53190   7.339  10.686   9.858
50453SOL    HW153191   7.273  10.715   9.921
50453SOL    HW253192   7.422  10.697   9.903
50454SOL     OW53193   3.775   3.054   0.242
50454SOL    HW153194   3.813   3.117   0.181
50454SOL    HW253195   3.684   3.082   0.252
50455SOL     OW53196   0.275   0.906   0.796
50455SOL    HW153197   0.311   0.824   0.761
50455SOL    HW253198   0.349   0.949   0.837
50456SOL     OW53199  10.439   0.696  12.788
50456SOL    HW153200  10.364   0.636  12.789
50456SOL    HW253201  10.510   0.646  12.830
50457SOL     OW53202   4.071  13.471  12.901
50457SOL    HW153203   4.044  13.422  12.979
50457SOL    HW253204   3.992  13.478  12.848
50458SOL     OW53205  13.426   9.860   6.888
50458SOL    HW153206  13.410   9.919   6.962
50458SOL    HW253207  13.435   9.773   6.927
50459SOL     OW53208   2.049   7.232  12.442
50459SOL    HW153209   2.047   7.229  12.346
50459SOL    HW253210   1.963   7.266  12.466
50460SOL     OW53211  11.492   9.323  12.075
50460SOL    HW153212  11.483   9.242  12.025
50460SOL    HW253213  11.532   9.384  12.014
50461SOL     OW53214  11.605   8.850  14.019
50461SOL    HW153215  11.692   8.888  14.018
50461SOL    HW253216  11.546   8.925  14.009
50462SOL     OW53217   5.345  10.399   9.352
50462SOL    HW153218   5.379  10.443   9.430
50462SOL    HW253219   5.421  10.354   9.316
50463SOL     OW53220   9.421   0.749   5.299
50463SOL    HW153221   9.410   0.656   5.278
50463SOL    HW253222   9.407   0.794   5.216
50464SOL     OW53223  14.141   9.505   9.575
50464SOL    HW153224  14.223   9.516   9.528
50464SOL    HW253225  14.161   9.443   9.645
50465SOL     OW53226   6.182  13.257   4.573
50465SOL    HW153227   6.160  13.187   4.634
50465SOL    HW253228   6.217  13.212   4.496
50466SOL     OW53229  10.550  13.510   2.273
50466SOL    HW153230  10.637  13.480   2.247
50466SOL    HW253231  10.501  13.430   2.291
50467SOL     OW53232   2.893  12.771  13.056
50467SOL    HW153233   2.916  12.701  13.119
50467SOL    HW253234   2.831  12.826  13.104
50468SOL     OW53235  13.876   3.986   8.944
50468SOL    HW153236  13.796   3.997   8.994
50468SOL    HW253237  13.859   3.909   8.889
50469SOL     OW53238  14.322   2.305   6.678
50469SOL    HW153239  14.344   2.241   6.745
50469SOL    HW253240  14.401   2.312   6.624
50470SOL     OW53241   2.191  13.234   4.939
50470SOL    HW153242   2.256  13.260   5.004
50470SOL    HW253243   2.227  13.154   4.901
50471SOL     OW53244   3.970  12.081   7.142
50471SOL    HW153245   3.876  12.096   7.127
50471SOL    HW253246   3.977  11.987   7.160
50472SOL     OW53247   9.653   8.065   1.629
50472SOL    HW153248   9.699   8.047   1.547
50472SOL    HW253249   9.723   8.073   1.694
50473SOL     OW53250  10.027   6.483  12.303
50473SOL    HW153251  10.108   6.458  12.348
50473SOL    HW253252   9.966   6.504  12.374
50474SOL     OW53253   9.826   0.065   7.924
50474SOL    HW153254   9.886   0.140   7.922
50474SOL    HW253255   9.752   0.095   7.976
50475SOL     OW53256  10.590   8.214   7.318
50475SOL    HW153257  10.549   8.239   7.400
50475SOL    HW253258  10.524   8.161   7.273
50476SOL     OW53259   9.254   4.014  10.117
50476SOL    HW153260   9.309   4.024  10.040
50476SOL    HW253261   9.316   4.004  10.190
50477SOL     OW53262  13.287   6.459  11.998
50477SOL    HW153263  13.246   6.414  11.925
50477SOL    HW253264  13.264   6.406  12.075
50478SOL     OW53265  11.205   1.805  12.491
50478SOL    HW153266  11.141   1.800  12.562
50478SOL    HW253267  11.154   1.791  12.412
50479SOL     OW53268  10.645  14.568   4.472
50479SOL    HW153269  10.705  14.508   4.515
50479SOL    HW253270  10.674  14.655   4.500
50480SOL     OW53271  12.407  14.735   2.543
50480SOL    HW153272  12.346  14.675   2.501
50480SOL    HW253273  12.488  14.684   2.554
50481SOL     OW53274  12.670   7.022   6.755
50481SOL    HW153275  12.745   6.962   6.751
50481SOL    HW253276  12.665   7.059   6.667
50482SOL     OW53277  13.490  13.708   5.175
50482SOL    HW153278  13.489  13.803   5.170
50482SOL    HW253279  13.501  13.689   5.268
50483SOL     OW53280   4.069   5.430   8.051
50483SOL    HW153281   4.031   5.343   8.039
50483SOL    HW253282   4.037   5.480   7.976
50484SOL     OW53283   3.419   3.377   7.010
50484SOL    HW153284   3.487   3.407   6.950
50484SOL    HW253285   3.374   3.456   7.038
50485SOL     OW53286  13.404   5.261   1.983
50485SOL    HW153287  13.375   5.331   1.924
50485SOL    HW253288  13.328   5.243   2.038
50486SOL     OW53289   8.309   7.814   3.591
50486SOL    HW153290   8.370   7.769   3.649
50486SOL    HW253291   8.239   7.750   3.575
50487SOL     OW53292   3.008  12.973   6.338
50487SOL    HW153293   2.970  12.974   6.426
50487SOL    HW253294   2.989  13.060   6.303
50488SOL     OW53295  10.489  10.408   5.929
50488SOL    HW153296  10.493  10.487   5.876
50488SOL    HW253297  10.429  10.350   5.881
50489SOL     OW53298   5.185   8.418   3.011
50489SOL    HW153299   5.149   8.342   3.057
50489SOL    HW253300   5.250   8.381   2.950
50490SOL     OW53301   2.294  14.378   8.381
50490SOL    HW153302   2.309  14.333   8.298
50490SOL    HW253303   2.254  14.462   8.356
50491SOL     OW53304   8.303   3.131  14.415
50491SOL    HW153305   8.324   3.098  14.502
50491SOL    HW253306   8.298   3.053  14.359
50492SOL     OW53307   9.453   6.550   0.689
50492SOL    HW153308   9.454   6.637   0.728
50492SOL    HW253309   9.424   6.492   0.759
50493SOL     OW53310  12.374   4.043  14.054
50493SOL    HW153311  12.446   4.086  14.102
50493SOL    HW253312  12.296   4.092  14.080
50494SOL     OW53313  13.203  14.354   8.378
50494SOL    HW153314  13.160  14.321   8.457
50494SOL    HW253315  13.132  14.371   8.317
50495SOL     OW53316  11.295   5.449   5.192
50495SOL    HW153317  11.290   5.365   5.237
50495SOL    HW253318  11.345   5.506   5.250
50496SOL     OW53319   9.876  13.562   0.941
50496SOL    HW153320   9.943  13.573   1.008
50496SOL    HW253321   9.908  13.491   0.886
50497SOL     OW53322  12.951   6.459   3.492
50497SOL    HW153323  12.880   6.399   3.511
50497SOL    HW253324  12.933   6.491   3.403
50498SOL     OW53325  13.004   3.361   4.263
50498SOL    HW153326  13.052   3.421   4.320
50498SOL    HW253327  13.017   3.396   4.175
50499SOL     OW53328  14.682   2.836  12.229
50499SOL    HW153329  14.645   2.922  12.211
50499SOL    HW253330  14.773   2.854  12.254
50500SOL     OW53331  11.604   2.924  13.228
50500SOL    HW153332  11.645   3.003  13.194
50500SOL    HW253333  11.638   2.915  13.317
50501SOL     OW53334   0.942   0.072  11.019
50501SOL    HW153335   0.869   0.130  10.995
50501SOL    HW253336   0.923  14.872  10.973
50502SOL     OW53337   9.672  10.513  13.491
50502SOL    HW153338   9.596  10.459  13.511
50502SOL    HW253339   9.638  10.602  13.484
50503SOL     OW53340   7.692   1.751   9.144
50503SOL    HW153341   7.600   1.770   9.164
50503SOL    HW253342   7.694   1.657   9.125
50504SOL     OW53343  14.178  14.094   2.348
50504SOL    HW153344  14.101  14.110   2.403
50504SOL    HW253345  14.168  14.003   2.319
50505SOL     OW53346  11.744   0.209  13.148
50505SOL    HW153347  11.805   0.282  13.149
50505SOL    HW253348  11.658   0.249  13.145
50506SOL     OW53349   6.176  12.365  11.269
50506SOL    HW153350   6.202  12.273  11.278
50506SOL    HW253351   6.259  12.413  11.265
50507SOL     OW53352   7.626   3.463   4.964
50507SOL    HW153353   7.710   3.504   4.988
50507SOL    HW253354   7.604   3.408   5.040
50508SOL     OW53355  11.714   0.484   4.795
50508SOL    HW153356  11.810   0.480   4.791
50508SOL    HW253357  11.687   0.394   4.813
50509SOL     OW53358   8.157  10.256  10.698
50509SOL    HW153359   8.204  10.214  10.770
50509SOL    HW253360   8.217  10.252  10.624
50510SOL     OW53361   3.390   4.281  11.913
50510SOL    HW153362   3.356   4.261  11.826
50510SOL    HW253363   3.312   4.292  11.968
50511SOL     OW53364   1.859   3.462  12.610
50511SOL    HW153365   1.950   3.438  12.630
50511SOL    HW253366   1.861   3.488  12.518
50512SOL     OW53367   1.497  10.656   2.309
50512SOL    HW153368   1.436  10.729   2.314
50512SOL    HW253369   1.584  10.697   2.305
50513SOL     OW53370   2.337   8.903   6.181
50513SOL    HW153371   2.279   8.829   6.196
50513SOL    HW253372   2.280   8.980   6.186
50514SOL     OW53373   2.045  12.920   1.459
50514SOL    HW153374   2.088  12.873   1.530
50514SOL    HW253375   2.115  12.973   1.421
50515SOL     OW53376   3.871   4.981  11.147
50515SOL    HW153377   3.944   5.039  11.169
50515SOL    HW253378   3.883   4.963  11.053
50516SOL     OW53379   3.610   5.963   5.571
50516SOL    HW153380   3.546   6.033   5.566
50516SOL    HW253381   3.587   5.904   5.499
50517SOL     OW53382  12.745  12.393   3.742
50517SOL    HW153383  12.650  12.389   3.747
50517SOL    HW253384  12.764  12.448   3.666
50518SOL     OW53385   6.328   6.505   5.914
50518SOL    HW153386   6.239   6.489   5.944
50518SOL    HW253387   6.323   6.497   5.819
50519SOL     OW53388   2.788  12.757  11.858
50519SOL    HW153389   2.750  12.751  11.946
50519SOL    HW253390   2.845  12.680  11.851
50520SOL     OW53391   4.079  14.081   2.126
50520SOL    HW153392   3.985  14.090   2.113
50520SOL    HW253393   4.105  14.161   2.172
50521SOL     OW53394   0.068  10.296  10.633
50521SOL    HW153395   0.071  10.392  10.638
50521SOL    HW253396   0.082  10.277  10.540
50522SOL     OW53397   8.369   3.237   4.722
50522SOL    HW153398   8.370   3.223   4.817
50522SOL    HW253399   8.281   3.211   4.695
50523SOL     OW53400  12.043   6.690   2.137
50523SOL    HW153401  12.032   6.680   2.232
50523SOL    HW253402  12.122   6.743   2.128
50524SOL     OW53403  13.233   5.081   8.462
50524SOL    HW153404  13.216   5.008   8.403
50524SOL    HW253405  13.257   5.154   8.405
50525SOL     OW53406  12.960   7.828  11.444
50525SOL    HW153407  12.933   7.890  11.512
50525SOL    HW253408  13.026   7.773  11.487
50526SOL     OW53409  11.884  13.319   8.959
50526SOL    HW153410  11.847  13.258   9.023
50526SOL    HW253411  11.898  13.400   9.008
50527SOL     OW53412   0.612   7.962   7.090
50527SOL    HW153413   0.657   7.923   7.165
50527SOL    HW253414   0.519   7.953   7.110
50528SOL     OW53415  12.881  13.325  12.093
50528SOL    HW153416  12.915  13.241  12.125
50528SOL    HW253417  12.818  13.301  12.025
50529SOL     OW53418  12.986   4.673  14.732
50529SOL    HW153419  12.923   4.685  14.803
50529SOL    HW253420  13.002   4.761  14.699
50530SOL     OW53421  12.200   0.775  11.480
50530SOL    HW153422  12.133   0.706  11.476
50530SOL    HW253423  12.272   0.741  11.427
50531SOL     OW53424   6.832   1.550   7.263
50531SOL    HW153425   6.852   1.616   7.330
50531SOL    HW253426   6.751   1.509   7.294
50532SOL     OW53427   5.358   5.369   5.743
50532SOL    HW153428   5.301   5.321   5.683
50532SOL    HW253429   5.359   5.459   5.709
50533SOL     OW53430   4.736   8.666  13.153
50533SOL    HW153431   4.774   8.683  13.239
50533SOL    HW253432   4.796   8.707  13.091
50534SOL     OW53433   2.816   3.905   2.788
50534SOL    HW153434   2.756   3.958   2.735
50534SOL    HW253435   2.801   3.935   2.878
50535SOL     OW53436   8.870  12.066  10.263
50535SOL    HW153437   8.931  11.997  10.290
50535SOL    HW253438   8.888  12.078  10.170
50536SOL     OW53439   3.632  10.038   7.997
50536SOL    HW153440   3.677   9.954   8.008
50536SOL    HW253441   3.660  10.090   8.072
50537SOL     OW53442   1.343  10.611   6.141
50537SOL    HW153443   1.379  10.522   6.146
50537SOL    HW253444   1.303  10.616   6.054
50538SOL     OW53445   8.245   6.594   1.754
50538SOL    HW153446   8.285   6.568   1.671
50538SOL    HW253447   8.269   6.686   1.765
50539SOL     OW53448   2.556   9.039  10.736
50539SOL    HW153449   2.582   9.082  10.655
50539SOL    HW253450   2.472   8.999  10.717
50540SOL     OW53451  11.628   4.089  11.789
50540SOL    HW153452  11.556   4.026  11.794
50540SOL    HW253453  11.613   4.135  11.706
50541SOL     OW53454   5.357  11.993  10.481
50541SOL    HW153455   5.321  11.944  10.407
50541SOL    HW253456   5.283  12.010  10.538
50542SOL     OW53457  13.455   1.767  14.416
50542SOL    HW153458  13.512   1.692  14.431
50542SOL    HW253459  13.505   1.823  14.356
50543SOL     OW53460  13.765   1.216   5.816
50543SOL    HW153461  13.711   1.207   5.895
50543SOL    HW253462  13.846   1.169   5.838
50544SOL     OW53463  10.815   6.119   8.939
50544SOL    HW153464  10.747   6.106   9.005
50544SOL    HW253465  10.775   6.177   8.874
50545SOL     OW53466   3.531   0.713   4.282
50545SOL    HW153467   3.585   0.784   4.318
50545SOL    HW253468   3.441   0.738   4.305
50546SOL     OW53469  13.085   2.695   4.529
50546SOL    HW153470  13.144   2.622   4.510
50546SOL    HW253471  13.004   2.654   4.558
50547SOL     OW53472   6.427   3.347  12.768
50547SOL    HW153473   6.357   3.303  12.721
50547SOL    HW253474   6.384   3.420  12.813
50548SOL     OW53475   2.681  10.305   5.667
50548SOL    HW153476   2.586  10.312   5.659
50548SOL    HW253477   2.696  10.271   5.755
50549SOL     OW53478   1.666   6.993  13.507
50549SOL    HW153479   1.754   6.978  13.472
50549SOL    HW253480   1.620   6.910  13.492
50550SOL     OW53481   0.983  11.362  12.016
50550SOL    HW153482   1.039  11.439  12.010
50550SOL    HW253483   1.019  11.311  12.088
50551SOL     OW53484   1.363   8.372   3.895
50551SOL    HW153485   1.357   8.448   3.953
50551SOL    HW253486   1.287   8.380   3.838
50552SOL     OW53487   7.132  13.403   7.830
50552SOL    HW153488   7.096  13.341   7.894
50552SOL    HW253489   7.080  13.388   7.751
50553SOL     OW53490   4.809   4.551  13.604
50553SOL    HW153491   4.752   4.594  13.669
50553SOL    HW253492   4.767   4.467  13.587
50554SOL     OW53493   9.761   1.757  12.726
50554SOL    HW153494   9.710   1.800  12.795
50554SOL    HW253495   9.761   1.664  12.751
50555SOL     OW53496   4.427   4.828  12.462
50555SOL    HW153497   4.450   4.908  12.511
50555SOL    HW253498   4.367   4.781  12.520
50556SOL     OW53499   9.634   3.461  10.962
50556SOL    HW153500   9.573   3.400  11.003
50556SOL    HW253501   9.586   3.495  10.886
50557SOL     OW53502   6.630   3.906  11.171
50557SOL    HW153503   6.549   3.956  11.181
50557SOL    HW253504   6.639   3.895  11.076
50558SOL     OW53505   2.936   6.699  10.309
50558SOL    HW153506   2.932   6.710  10.214
50558SOL    HW253507   3.010   6.753  10.336
50559SOL     OW53508  12.772   2.858  14.756
50559SOL    HW153509  12.722   2.940  14.753
50559SOL    HW253510  12.717   2.799  14.808
50560SOL     OW53511   7.157   2.840   2.877
50560SOL    HW153512   7.153   2.826   2.783
50560SOL    HW253513   7.206   2.765   2.911
50561SOL     OW53514  12.851  14.385   4.621
50561SOL    HW153515  12.863  14.418   4.710
50561SOL    HW253516  12.861  14.290   4.628
50562SOL     OW53517   8.291  14.223  13.056
50562SOL    HW153518   8.281  14.134  13.022
50562SOL    HW253519   8.324  14.273  12.981
50563SOL     OW53520   5.176   0.391  11.653
50563SOL    HW153521   5.113   0.356  11.717
50563SOL    HW253522   5.127   0.457  11.605
50564SOL     OW53523  10.065   8.261   6.340
50564SOL    HW153524  10.038   8.300   6.256
50564SOL    HW253525   9.983   8.230   6.379
50565SOL     OW53526  11.666   8.403   6.227
50565SOL    HW153527  11.725   8.339   6.266
50565SOL    HW253528  11.690   8.486   6.269
50566SOL     OW53529   1.903   7.464  12.307
50566SOL    HW153530   1.844   7.528  12.345
50566SOL    HW253531   1.974   7.516  12.269
50567SOL     OW53532   5.475   8.558   3.613
50567SOL    HW153533   5.538   8.606   3.558
50567SOL    HW253534   5.417   8.515   3.550
50568SOL     OW53535   0.721   1.914   6.796
50568SOL    HW153536   0.749   1.865   6.719
50568SOL    HW253537   0.784   1.985   6.805
50569SOL     OW53538   1.583  14.559  14.799
50569SOL    HW153539   1.553  14.600  14.719
50569SOL    HW253540   1.503  14.531  14.843
50570SOL     OW53541   3.870  11.384  11.751
50570SOL    HW153542   3.788  11.394  11.701
50570SOL    HW253543   3.932  11.440  11.705
50571SOL     OW53544  10.170   0.645  13.065
50571SOL    HW153545  10.229   0.661  13.138
50571SOL    HW253546  10.123   0.565  13.089
50572SOL     OW53547   3.432   1.388   2.551
50572SOL    HW153548   3.410   1.438   2.629
50572SOL    HW253549   3.506   1.436   2.512
50573SOL     OW53550   1.614  14.849   5.535
50573SOL    HW153551   1.532   0.018   5.536
50573SOL    HW253552   1.592  14.770   5.487
50574SOL     OW53553  12.347  14.151   1.419
50574SOL    HW153554  12.437  14.175   1.441
50574SOL    HW253555  12.352  14.119   1.329
50575SOL     OW53556   0.002   8.250   6.622
50575SOL    HW153557   0.037   8.339   6.626
50575SOL    HW253558  14.859   8.230   6.712
50576SOL     OW53559  11.881   7.266   3.136
50576SOL    HW153560  11.958   7.255   3.190
50576SOL    HW253561  11.893   7.351   3.094
50577SOL     OW53562   7.125   3.839  11.642
50577SOL    HW153563   7.095   3.839  11.733
50577SOL    HW253564   7.114   3.929  11.613
50578SOL     OW53565  14.477   0.404   5.254
50578SOL    HW153566  14.409   0.359   5.203
50578SOL    HW253567  14.481   0.491   5.216
50579SOL     OW53568  14.586   0.584  13.103
50579SOL    HW153569  14.501   0.549  13.130
50579SOL    HW253570  14.646   0.509  13.107
50580SOL     OW53571   3.600   6.391   9.941
50580SOL    HW153572   3.511   6.407   9.911
50580SOL    HW253573   3.655   6.413   9.866
50581SOL     OW53574   8.628  10.972  13.697
50581SOL    HW153575   8.578  10.890  13.702
50581SOL    HW253576   8.576  11.034  13.747
50582SOL     OW53577  11.792  14.667   0.423
50582SOL    HW153578  11.810  14.636   0.334
50582SOL    HW253579  11.869  14.642   0.473
50583SOL     OW53580   4.911  10.428   8.843
50583SOL    HW153581   4.819  10.405   8.831
50583SOL    HW253582   4.933  10.480   8.766
50584SOL     OW53583   4.158  13.626  14.157
50584SOL    HW153584   4.142  13.644  14.250
50584SOL    HW253585   4.081  13.576  14.130
50585SOL     OW53586   3.388  13.429  12.876
50585SOL    HW153587   3.441  13.419  12.797
50585SOL    HW253588   3.401  13.347  12.924
50586SOL     OW53589   6.309  10.202   3.661
50586SOL    HW153590   6.255  10.235   3.733
50586SOL    HW253591   6.353  10.125   3.697
50587SOL     OW53592   6.661  12.397   2.678
50587SOL    HW153593   6.706  12.351   2.748
50587SOL    HW253594   6.580  12.347   2.664
50588SOL     OW53595   6.422   0.280  13.038
50588SOL    HW153596   6.464   0.336  12.972
50588SOL    HW253597   6.468   0.300  13.119
50589SOL     OW53598   6.018  13.227  12.450
50589SOL    HW153599   6.001  13.312  12.489
50589SOL    HW253600   5.961  13.224  12.373
50590SOL     OW53601   6.659  10.034  13.228
50590SOL    HW153602   6.599   9.979  13.279
50590SOL    HW253603   6.611  10.051  13.147
50591SOL     OW53604   3.383   9.938  11.562
50591SOL    HW153605   3.448   9.892  11.509
50591SOL    HW253606   3.411  10.029  11.561
50592SOL     OW53607   6.527  10.378  13.412
50592SOL    HW153608   6.483  10.331  13.341
50592SOL    HW253609   6.620  10.359  13.399
50593SOL     OW53610   8.128   8.028   3.571
50593SOL    HW153611   8.183   8.106   3.579
50593SOL    HW253612   8.190   7.955   3.566
50594SOL     OW53613   4.989   2.450   7.326
50594SOL    HW153614   4.921   2.403   7.375
50594SOL    HW253615   4.989   2.538   7.363
50595SOL     OW53616   0.849  13.592   6.752
50595SOL    HW153617   0.818  13.503   6.736
50595SOL    HW253618   0.881  13.621   6.666
50596SOL     OW53619  14.535  14.081   4.207
50596SOL    HW153620  14.627  14.085   4.181
50596SOL    HW253621  14.515  13.987   4.212
50597SOL     OW53622   6.280   4.861  10.298
50597SOL    HW153623   6.352   4.818  10.252
50597SOL    HW253624   6.307   4.861  10.390
50598SOL     OW53625  11.414   3.815  12.620
50598SOL    HW153626  11.330   3.795  12.578
50598SOL    HW253627  11.477   3.759  12.576
50599SOL     OW53628  11.056   3.734   6.864
50599SOL    HW153629  10.995   3.690   6.806
50599SOL    HW253630  11.074   3.670   6.933
50600SOL     OW53631   7.042  11.625   2.857
50600SOL    HW153632   7.012  11.583   2.777
50600SOL    HW253633   6.974  11.689   2.878
50601SOL     OW53634   8.225  14.426  13.691
50601SOL    HW153635   8.145  14.441  13.741
50601SOL    HW253636   8.294  14.468  13.743
50602SOL     OW53637  10.062  14.819   9.148
50602SOL    HW153638  10.047  14.882   9.077
50602SOL    HW253639  10.023  14.860   9.225
50603SOL     OW53640  14.799   3.863  13.722
50603SOL    HW153641  14.746   3.940  13.741
50603SOL    HW253642  14.865   3.862  13.791
50604SOL     OW53643   6.566   0.150   5.502
50604SOL    HW153644   6.654   0.165   5.537
50604SOL    HW253645   6.508   0.162   5.578
50605SOL     OW53646  14.222   9.582   3.753
50605SOL    HW153647  14.150   9.644   3.746
50605SOL    HW253648  14.249   9.586   3.844
50606SOL     OW53649  11.344  12.328   1.545
50606SOL    HW153650  11.276  12.266   1.573
50606SOL    HW253651  11.375  12.368   1.626
50607SOL     OW53652  11.029  14.229   6.645
50607SOL    HW153653  11.021  14.145   6.601
50607SOL    HW253654  11.085  14.281   6.587
50608SOL     OW53655  14.746   7.096   2.172
50608SOL    HW153656  14.778   7.162   2.111
50608SOL    HW253657  14.804   7.022   2.160
50609SOL     OW53658   1.738  12.990  13.271
50609SOL    HW153659   1.677  13.004  13.198
50609SOL    HW253660   1.823  12.981  13.229
50610SOL     OW53661   2.697   0.865   3.947
50610SOL    HW153662   2.668   0.941   3.998
50610SOL    HW253663   2.732   0.902   3.866
50611SOL     OW53664   0.782  10.192   2.505
50611SOL    HW153665   0.788  10.180   2.410
50611SOL    HW253666   0.758  10.283   2.516
50612SOL     OW53667   3.199   2.645   2.474
50612SOL    HW153668   3.230   2.669   2.387
50612SOL    HW253669   3.181   2.551   2.468
50613SOL     OW53670   2.869  12.081  10.205
50613SOL    HW153671   2.820  12.130  10.272
50613SOL    HW253672   2.822  11.998  10.197
50614SOL     OW53673   9.796  12.979   5.190
50614SOL    HW153674   9.740  12.924   5.245
50614SOL    HW253675   9.815  13.056   5.244
50615SOL     OW53676   9.783   9.797   9.008
50615SOL    HW153677   9.800   9.865   8.943
50615SOL    HW253678   9.703   9.827   9.053
50616SOL     OW53679   2.663   5.364   0.793
50616SOL    HW153680   2.728   5.342   0.860
50616SOL    HW253681   2.648   5.283   0.745
50617SOL     OW53682   4.950  11.443   8.906
50617SOL    HW153683   4.860  11.427   8.935
50617SOL    HW253684   4.951  11.420   8.813
50618SOL     OW53685   2.159  14.629  12.728
50618SOL    HW153686   2.161  14.713  12.775
50618SOL    HW253687   2.147  14.564  12.796
50619SOL     OW53688   8.654   3.325   3.476
50619SOL    HW153689   8.749   3.314   3.476
50619SOL    HW253690   8.640   3.416   3.502
50620SOL     OW53691  11.668   5.650  13.292
50620SOL    HW153692  11.689   5.727  13.238
50620SOL    HW253693  11.588   5.675  13.339
50621SOL     OW53694   3.755   7.014   5.525
50621SOL    HW153695   3.848   7.019   5.505
50621SOL    HW253696   3.751   6.983   5.615
50622SOL     OW53697   8.328  12.822  10.333
50622SOL    HW153698   8.347  12.742  10.381
50622SOL    HW253699   8.292  12.792  10.249
50623SOL     OW53700  10.867   2.320   9.930
50623SOL    HW153701  10.880   2.350  10.020
50623SOL    HW253702  10.870   2.400   9.877
50624SOL     OW53703   3.272   6.682  14.686
50624SOL    HW153704   3.181   6.702  14.666
50624SOL    HW253705   3.279   6.587  14.678
50625SOL     OW53706   6.398   4.979   3.836
50625SOL    HW153707   6.362   4.970   3.924
50625SOL    HW253708   6.455   5.055   3.841
50626SOL     OW53709   8.114  10.433  13.153
50626SOL    HW153710   8.033  10.424  13.203
50626SOL    HW253711   8.155  10.347  13.158
50627SOL     OW53712   0.087   6.997  13.941
50627SOL    HW153713   0.053   6.946  13.867
50627SOL    HW253714   0.180   7.009  13.921
50628SOL     OW53715  10.856   0.213   7.859
50628SOL    HW153716  10.825   0.303   7.872
50628SOL    HW253717  10.777   0.160   7.857
50629SOL     OW53718  12.104   4.437   9.254
50629SOL    HW153719  12.053   4.483   9.320
50629SOL    HW253720  12.159   4.377   9.303
50630SOL     OW53721   0.226   2.734   1.662
50630SOL    HW153722   0.298   2.796   1.649
50630SOL    HW253723   0.249   2.687   1.743
50631SOL     OW53724   1.224   0.419  12.385
50631SOL    HW153725   1.313   0.420  12.420
50631SOL    HW253726   1.167   0.410  12.462
50632SOL     OW53727   1.929   1.576  13.427
50632SOL    HW153728   1.896   1.491  13.457
50632SOL    HW253729   1.971   1.557  13.343
50633SOL     OW53730   2.762  11.490   4.453
50633SOL    HW153731   2.687  11.463   4.400
50633SOL    HW253732   2.800  11.408   4.484
50634SOL     OW53733   2.576   4.865   2.266
50634SOL    HW153734   2.570   4.882   2.360
50634SOL    HW253735   2.669   4.871   2.246
50635SOL     OW53736  13.114   2.942   3.184
50635SOL    HW153737  13.145   3.013   3.127
50635SOL    HW253738  13.157   2.863   3.150
50636SOL     OW53739   4.163   2.049  14.517
50636SOL    HW153740   4.258   2.047  14.528
50636SOL    HW253741   4.142   1.964  14.478
50637SOL     OW53742   8.991   9.943   7.679
50637SOL    HW153743   8.944  10.018   7.642
50637SOL    HW253744   9.073   9.980   7.712
50638SOL     OW53745   2.236  12.047   2.648
50638SOL    HW153746   2.148  12.082   2.660
50638SOL    HW253747   2.284  12.118   2.605
50639SOL     OW53748   4.489  13.032   9.168
50639SOL    HW153749   4.404  13.031   9.212
50639SOL    HW253750   4.548  12.986   9.228
50640SOL     OW53751  10.842  13.229   8.641
50640SOL    HW153752  10.862  13.305   8.696
50640SOL    HW253753  10.879  13.155   8.688
50641SOL     OW53754   0.800  11.595   9.627
50641SOL    HW153755   0.854  11.620   9.553
50641SOL    HW253756   0.710  11.616   9.601
50642SOL     OW53757   2.198  11.152   3.752
50642SOL    HW153758   2.179  11.146   3.846
50642SOL    HW253759   2.178  11.065   3.718
50643SOL     OW53760   4.869  11.520  12.691
50643SOL    HW153761   4.918  11.602  12.683
50643SOL    HW253762   4.796  11.542  12.749
50644SOL     OW53763   5.814   7.060   8.543
50644SOL    HW153764   5.778   6.991   8.599
50644SOL    HW253765   5.755   7.062   8.467
50645SOL     OW53766   5.816   3.666   3.120
50645SOL    HW153767   5.868   3.744   3.100
50645SOL    HW253768   5.874   3.593   3.102
50646SOL     OW53769   1.791   5.687   2.286
50646SOL    HW153770   1.870   5.728   2.321
50646SOL    HW253771   1.758   5.749   2.222
50647SOL     OW53772   6.295   1.723  13.062
50647SOL    HW153773   6.370   1.671  13.092
50647SOL    HW253774   6.329   1.812  13.057
50648SOL     OW53775   3.705  11.523   7.408
50648SOL    HW153776   3.781  11.523   7.350
50648SOL    HW253777   3.711  11.440   7.456
50649SOL     OW53778   7.823   6.394  12.404
50649SOL    HW153779   7.814   6.430  12.316
50649SOL    HW253780   7.897   6.442  12.442
50650SOL     OW53781  10.223   7.467  14.342
50650SOL    HW153782  10.174   7.530  14.290
50650SOL    HW253783  10.250   7.400  14.279
50651SOL     OW53784   4.391   4.810   3.490
50651SOL    HW153785   4.379   4.843   3.579
50651SOL    HW253786   4.475   4.846   3.461
50652SOL     OW53787   3.108  12.884   6.850
50652SOL    HW153788   3.155  12.849   6.774
50652SOL    HW253789   3.123  12.978   6.847
50653SOL     OW53790   5.480   6.482  11.353
50653SOL    HW153791   5.414   6.423  11.318
50653SOL    HW253792   5.523   6.518  11.275
50654SOL     OW53793   8.783   0.767   2.963
50654SOL    HW153794   8.698   0.792   2.926
50654SOL    HW253795   8.800   0.832   3.031
50655SOL     OW53796  14.478   9.164   1.098
50655SOL    HW153797  14.470   9.089   1.158
50655SOL    HW253798  14.569   9.161   1.068
50656SOL     OW53799  11.403  11.055   1.257
50656SOL    HW153800  11.391  10.972   1.304
50656SOL    HW253801  11.317  11.075   1.220
50657SOL     OW53802  13.633  14.190   2.520
50657SOL    HW153803  13.664  14.112   2.566
50657SOL    HW253804  13.551  14.162   2.479
50658SOL     OW53805   5.481  12.998   3.583
50658SOL    HW153806   5.499  13.091   3.599
50658SOL    HW253807   5.446  12.966   3.665
50659SOL     OW53808   1.255  14.701   2.085
50659SOL    HW153809   1.171  14.702   2.040
50659SOL    HW253810   1.236  14.734   2.173
50660SOL     OW53811   8.716   5.645   4.702
50660SOL    HW153812   8.789   5.642   4.764
50660SOL    HW253813   8.757   5.653   4.616
50661SOL     OW53814   6.469   4.395   0.404
50661SOL    HW153815   6.407   4.403   0.476
50661SOL    HW253816   6.554   4.381   0.446
50662SOL     OW53817  13.212   6.633   8.529
50662SOL    HW153818  13.161   6.580   8.590
50662SOL    HW253819  13.153   6.650   8.455
50663SOL     OW53820   3.417   2.396  13.128
50663SOL    HW153821   3.432   2.311  13.086
50663SOL    HW253822   3.476   2.397  13.203
50664SOL     OW53823  13.874   1.077  10.375
50664SOL    HW153824  13.830   1.114  10.298
50664SOL    HW253825  13.846   1.133  10.448
50665SOL     OW53826   1.147  10.675   6.641
50665SOL    HW153827   1.109  10.752   6.599
50665SOL    HW253828   1.111  10.601   6.593
50666SOL     OW53829   6.911   9.105   4.036
50666SOL    HW153830   6.933   9.080   4.126
50666SOL    HW253831   6.993   9.097   3.988
50667SOL     OW53832  10.090   3.602   2.169
50667SOL    HW153833  10.002   3.567   2.154
50667SOL    HW253834  10.102   3.666   2.099
50668SOL     OW53835   4.315   9.587  11.644
50668SOL    HW153836   4.241   9.602  11.584
50668SOL    HW253837   4.320   9.492  11.652
50669SOL     OW53838   9.170  13.844   9.634
50669SOL    HW153839   9.146  13.771   9.690
50669SOL    HW253840   9.145  13.816   9.546
50670SOL     OW53841   6.727   7.922   0.160
50670SOL    HW153842   6.782   7.864   0.213
50670SOL    HW253843   6.642   7.920   0.204
50671SOL     OW53844  10.209   9.530   1.527
50671SOL    HW153845  10.129   9.518   1.476
50671SOL    HW253846  10.197   9.615   1.570
50672SOL     OW53847   7.440   5.191   7.866
50672SOL    HW153848   7.408   5.267   7.817
50672SOL    HW253849   7.360   5.147   7.897
50673SOL     OW53850   1.904   7.788  12.213
50673SOL    HW153851   1.958   7.765  12.138
50673SOL    HW253852   1.892   7.883  12.206
50674SOL     OW53853  11.384  10.944   3.856
50674SOL    HW153854  11.316  10.876   3.857
50674SOL    HW253855  11.336  11.026   3.868
50675SOL     OW53856   3.701  12.049  10.019
50675SOL    HW153857   3.648  12.095   9.953
50675SOL    HW253858   3.787  12.040   9.978
50676SOL     OW53859   8.910   7.372   8.489
50676SOL    HW153860   8.898   7.463   8.460
50676SOL    HW253861   9.004   7.355   8.475
50677SOL     OW53862  13.066  13.488   3.558
50677SOL    HW153863  13.136  13.424   3.558
50677SOL    HW253864  12.991  13.442   3.521
50678SOL     OW53865  12.083   2.963  13.314
50678SOL    HW153866  12.151   2.918  13.365
50678SOL    HW253867  12.081   2.917  13.230
50679SOL     OW53868   2.410   7.895   3.236
50679SOL    HW153869   2.499   7.863   3.252
50679SOL    HW253870   2.354   7.819   3.252
50680SOL     OW53871   0.507   8.128   4.673
50680SOL    HW153872   0.506   8.220   4.697
50680SOL    HW253873   0.582   8.119   4.614
50681SOL     OW53874   5.550  11.581   2.993
50681SOL    HW153875   5.483  11.513   2.995
50681SOL    HW253876   5.558  11.610   3.084
50682SOL     OW53877   1.385   9.171   5.811
50682SOL    HW153878   1.362   9.191   5.902
50682SOL    HW253879   1.409   9.255   5.773
50683SOL     OW53880   1.931   7.130   8.325
50683SOL    HW153881   1.872   7.057   8.305
50683SOL    HW253882   1.884   7.181   8.390
50684SOL     OW53883  13.667  12.050  10.560
50684SOL    HW153884  13.740  11.999  10.523
50684SOL    HW253885  13.695  12.071  10.649
50685SOL     OW53886   8.089   5.499   3.148
50685SOL    HW153887   8.062   5.521   3.237
50685SOL    HW253888   8.182   5.478   3.155
50686SOL     OW53889   1.037   9.677   3.643
50686SOL    HW153890   1.101   9.748   3.651
50686SOL    HW253891   1.025   9.646   3.733
50687SOL     OW53892   4.462   7.096   3.095
50687SOL    HW153893   4.527   7.154   3.134
50687SOL    HW253894   4.503   7.010   3.097
50688SOL     OW53895   0.584   2.740  11.688
50688SOL    HW153896   0.561   2.662  11.739
50688SOL    HW253897   0.597   2.706  11.599
50689SOL     OW53898   7.404   5.324   7.330
50689SOL    HW153899   7.400   5.412   7.292
50689SOL    HW253900   7.373   5.266   7.260
50690SOL     OW53901   1.342   0.669   3.792
50690SOL    HW153902   1.389   0.598   3.837
50690SOL    HW253903   1.250   0.649   3.806
50691SOL     OW53904  12.887   1.778  11.789
50691SOL    HW153905  12.823   1.848  11.802
50691SOL    HW253906  12.954   1.794  11.855
50692SOL     OW53907  11.592   3.628   7.633
50692SOL    HW153908  11.651   3.566   7.676
50692SOL    HW253909  11.551   3.576   7.563
50693SOL     OW53910   2.231  11.257   1.134
50693SOL    HW153911   2.245  11.350   1.115
50693SOL    HW253912   2.191  11.222   1.054
50694SOL     OW53913  13.256   6.291   0.838
50694SOL    HW153914  13.271   6.380   0.871
50694SOL    HW253915  13.327   6.239   0.877
50695SOL     OW53916   6.038   5.206   0.236
50695SOL    HW153917   6.041   5.111   0.229
50695SOL    HW253918   5.953   5.231   0.202
50696SOL     OW53919   4.855   0.321   5.141
50696SOL    HW153920   4.938   0.303   5.097
50696SOL    HW253921   4.849   0.417   5.143
50697SOL     OW53922  13.938   0.659   2.598
50697SOL    HW153923  13.966   0.589   2.657
50697SOL    HW253924  13.999   0.731   2.614
50698SOL     OW53925   7.715   1.315  12.352
50698SOL    HW153926   7.803   1.285  12.377
50698SOL    HW253927   7.666   1.235  12.335
50699SOL     OW53928   6.654   4.517  12.771
50699SOL    HW153929   6.689   4.598  12.732
50699SOL    HW253930   6.581   4.546  12.825
50700SOL     OW53931  10.339   9.595   1.220
50700SOL    HW153932  10.370   9.678   1.185
50700SOL    HW253933  10.315   9.543   1.143
50701SOL     OW53934   0.726  12.605  12.163
50701SOL    HW153935   0.816  12.618  12.131
50701SOL    HW253936   0.687  12.692  12.159
50702SOL     OW53937  13.493   5.538   0.497
50702SOL    HW153938  13.401   5.553   0.522
50702SOL    HW253939  13.488   5.473   0.427
50703SOL     OW53940   7.910  13.603  12.934
50703SOL    HW153941   7.840  13.668  12.924
50703SOL    HW253942   7.880  13.527  12.886
50704SOL     OW53943   3.351   3.605   5.895
50704SOL    HW153944   3.307   3.658   5.962
50704SOL    HW253945   3.313   3.635   5.813
50705SOL     OW53946   7.102  10.417   5.935
50705SOL    HW153947   7.164  10.357   5.976
50705SOL    HW253948   7.042  10.440   6.005
50706SOL     OW53949   3.202   8.954   0.360
50706SOL    HW153950   3.154   8.896   0.300
50706SOL    HW253951   3.268   8.898   0.400
50707SOL     OW53952   4.520  13.252   2.026
50707SOL    HW153953   4.447  13.206   2.067
50707SOL    HW253954   4.518  13.340   2.064
50708SOL     OW53955   4.043  11.975  10.245
50708SOL    HW153956   3.975  11.982  10.312
50708SOL    HW253957   4.040  11.883  10.218
50709SOL     OW53958   1.867  13.046   6.075
50709SOL    HW153959   1.931  13.077   6.140
50709SOL    HW253960   1.849  12.956   6.102
50710SOL     OW53961  10.895   4.770   4.510
50710SOL    HW153962  10.923   4.771   4.601
50710SOL    HW253963  10.800   4.779   4.514
50711SOL     OW53964  12.019   3.273  12.603
50711SOL    HW153965  11.956   3.207  12.634
50711SOL    HW253966  12.101   3.224  12.593
50712SOL     OW53967   0.739   0.322  13.290
50712SOL    HW153968   0.768   0.294  13.203
50712SOL    HW253969   0.664   0.380  13.273
50713SOL     OW53970   3.974   9.906   1.670
50713SOL    HW153971   3.940   9.846   1.736
50713SOL    HW253972   4.069   9.899   1.680
50714SOL     OW53973   1.353   4.106   2.742
50714SOL    HW153974   1.423   4.045   2.766
50714SOL    HW253975   1.275   4.052   2.736
50715SOL     OW53976  14.212   4.317   0.240
50715SOL    HW153977  14.254   4.389   0.287
50715SOL    HW253978  14.245   4.324   0.150
50716SOL     OW53979  12.830   9.357   7.774
50716SOL    HW153980  12.923   9.367   7.797
50716SOL    HW253981  12.784   9.359   7.858
50717SOL     OW53982  11.543   3.083   4.659
50717SOL    HW153983  11.535   3.047   4.748
50717SOL    HW253984  11.633   3.113   4.653
50718SOL     OW53985   9.200   0.687  11.882
50718SOL    HW153986   9.158   0.750  11.824
50718SOL    HW253987   9.134   0.666  11.948
50719SOL     OW53988   6.611  14.761   3.371
50719SOL    HW153989   6.554  14.703   3.321
50719SOL    HW253990   6.673  14.703   3.415
50720SOL     OW53991  13.097   1.546  10.480
50720SOL    HW153992  13.105   1.612  10.411
50720SOL    HW253993  13.130   1.589  10.558
50721SOL     OW53994   9.251   0.962   6.271
50721SOL    HW153995   9.218   0.873   6.259
50721SOL    HW253996   9.237   0.980   6.364
50722SOL     OW53997   1.630   6.889   1.338
50722SOL    HW153998   1.573   6.880   1.262
50722SOL    HW253999   1.629   6.803   1.379
50723SOL     OW54000  10.925   9.343  14.149
50723SOL    HW154001  10.950   9.255  14.123
50723SOL    HW254002  10.880   9.379  14.073
50724SOL     OW54003   1.846   7.303   6.755
50724SOL    HW154004   1.808   7.383   6.790
50724SOL    HW254005   1.935   7.301   6.792
50725SOL     OW54006  10.605   8.520   5.420
50725SOL    HW154007  10.694   8.509   5.453
50725SOL    HW254008  10.551   8.468   5.479
50726SOL     OW54009   9.545   7.964   5.218
50726SOL    HW154010   9.545   7.896   5.285
50726SOL    HW254011   9.621   7.945   5.164
50727SOL     OW54012   3.701   9.221  11.820
50727SOL    HW154013   3.607   9.221  11.803
50727SOL    HW254014   3.723   9.128  11.834
50728SOL     OW54015  14.239  11.460   6.498
50728SOL    HW154016  14.245  11.512   6.418
50728SOL    HW254017  14.170  11.397   6.481
50729SOL     OW54018   5.070   3.309   2.635
50729SOL    HW154019   5.126   3.316   2.712
50729SOL    HW254020   4.981   3.306   2.670
50730SOL     OW54021  11.045   7.452  13.254
50730SOL    HW154022  10.990   7.414  13.185
50730SOL    HW254023  11.080   7.532  13.215
50731SOL     OW54024   7.467   6.317  11.105
50731SOL    HW154025   7.380   6.339  11.071
50731SOL    HW254026   7.502   6.255  11.042
50732SOL     OW54027   7.661  12.986   0.738
50732SOL    HW154028   7.596  13.048   0.704
50732SOL    HW254029   7.640  12.979   0.831
50733SOL     OW54030   7.525  10.106   0.567
50733SOL    HW154031   7.536  10.162   0.490
50733SOL    HW254032   7.611  10.065   0.579
50734SOL     OW54033   2.101   8.686  11.423
50734SOL    HW154034   2.191   8.700  11.392
50734SOL    HW254035   2.072   8.606  11.380
50735SOL     OW54036   4.955  11.972   1.801
50735SOL    HW154037   4.914  11.891   1.773
50735SOL    HW254038   4.976  12.018   1.720
50736SOL     OW54039  11.619   0.260   1.743
50736SOL    HW154040  11.557   0.314   1.695
50736SOL    HW254041  11.701   0.268   1.693
50737SOL     OW54042   6.337   0.212  11.648
50737SOL    HW154043   6.263   0.204  11.707
50737SOL    HW254044   6.405   0.256  11.700
50738SOL     OW54045  11.733   5.674   3.703
50738SOL    HW154046  11.681   5.611   3.752
50738SOL    HW254047  11.800   5.704   3.765
50739SOL     OW54048   6.535   7.268  10.410
50739SOL    HW154049   6.613   7.306  10.450
50739SOL    HW254050   6.462   7.303  10.461
50740SOL     OW54051  11.039   2.504  12.026
50740SOL    HW154052  11.070   2.539  12.110
50740SOL    HW254053  11.092   2.550  11.960
50741SOL     OW54054   5.562  12.449  11.599
50741SOL    HW154055   5.608  12.517  11.647
50741SOL    HW254056   5.569  12.371  11.655
50742SOL     OW54057   1.065   3.510   9.883
50742SOL    HW154058   1.112   3.433   9.917
50742SOL    HW254059   1.028   3.480   9.800
50743SOL     OW54060   9.330   8.892   7.277
50743SOL    HW154061   9.356   8.963   7.336
50743SOL    HW254062   9.410   8.841   7.264
50744SOL     OW54063  10.459   3.749   9.713
50744SOL    HW154064  10.540   3.795   9.690
50744SOL    HW254065  10.408   3.748   9.633
50745SOL     OW54066   7.193   7.160  11.878
50745SOL    HW154067   7.188   7.078  11.828
50745SOL    HW254068   7.217   7.132  11.966
50746SOL     OW54069   9.383  12.923  12.498
50746SOL    HW154070   9.409  13.005  12.540
50746SOL    HW254071   9.400  12.856  12.563
50747SOL     OW54072   8.412   6.486   8.809
50747SOL    HW154073   8.473   6.504   8.738
50747SOL    HW254074   8.447   6.535   8.884
50748SOL     OW54075  13.747  14.113  14.865
50748SOL    HW154076  13.829  14.146  14.829
50748SOL    HW254077  13.763  14.106   0.078
50749SOL     OW54078   2.901  14.173  14.483
50749SOL    HW154079   2.851  14.245  14.522
50749SOL    HW254080   2.854  14.153  14.402
50750SOL     OW54081   5.704   2.662   4.693
50750SOL    HW154082   5.696   2.630   4.603
50750SOL    HW254083   5.624   2.712   4.708
50751SOL     OW54084   4.550   7.118   0.368
50751SOL    HW154085   4.524   7.028   0.351
50751SOL    HW254086   4.563   7.121   0.463
50752SOL     OW54087  10.156   5.940   8.291
50752SOL    HW154088  10.066   5.949   8.323
50752SOL    HW254089  10.175   5.847   8.296
50753SOL     OW54090   5.805   0.323  13.398
50753SOL    HW154091   5.882   0.317  13.341
50753SOL    HW254092   5.799   0.417  13.419
50754SOL     OW54093   6.159   7.532  12.720
50754SOL    HW154094   6.246   7.492  12.725
50754SOL    HW254095   6.102   7.468  12.762
50755SOL     OW54096   8.703   6.930   4.962
50755SOL    HW154097   8.627   6.898   4.913
50755SOL    HW254098   8.667   6.961   5.045
50756SOL     OW54099   0.223   1.676   2.448
50756SOL    HW154100   0.136   1.707   2.424
50756SOL    HW254101   0.267   1.753   2.484
50757SOL     OW54102   0.529   4.201  13.954
50757SOL    HW154103   0.581   4.159  13.885
50757SOL    HW254104   0.457   4.141  13.970
50758SOL     OW54105  11.281  13.704   7.021
50758SOL    HW154106  11.336  13.728   6.946
50758SOL    HW254107  11.192  13.724   6.993
50759SOL     OW54108   8.751  11.931   3.339
50759SOL    HW154109   8.692  11.980   3.281
50759SOL    HW254110   8.786  11.861   3.284
50760SOL     OW54111   0.415   7.210   8.467
50760SOL    HW154112   0.496   7.242   8.428
50760SOL    HW254113   0.349   7.223   8.399
50761SOL     OW54114   3.487   9.381   1.937
50761SOL    HW154115   3.412   9.432   1.970
50761SOL    HW254116   3.466   9.291   1.958
50762SOL     OW54117   6.360   6.434   0.258
50762SOL    HW154118   6.447   6.405   0.285
50762SOL    HW254119   6.302   6.403   0.327
50763SOL     OW54120   8.115  11.196   8.876
50763SOL    HW154121   8.068  11.113   8.869
50763SOL    HW254122   8.125  11.226   8.785
50764SOL     OW54123  13.000  14.677  12.225
50764SOL    HW154124  13.003  14.745  12.158
50764SOL    HW254125  12.966  14.600  12.179
50765SOL     OW54126   9.986   7.276  13.104
50765SOL    HW154127  10.072   7.288  13.145
50765SOL    HW254128   9.938   7.221  13.166
50766SOL     OW54129   5.744  11.318   2.239
50766SOL    HW154130   5.803  11.389   2.263
50766SOL    HW254131   5.680  11.314   2.310
50767SOL     OW54132   7.257   9.442   0.454
50767SOL    HW154133   7.176   9.399   0.426
50767SOL    HW254134   7.323   9.373   0.449
50768SOL     OW54135   0.827   1.809   0.667
50768SOL    HW154136   0.758   1.770   0.613
50768SOL    HW254137   0.783   1.834   0.748
50769SOL     OW54138  14.634   4.230   4.408
50769SOL    HW154139  14.553   4.281   4.410
50769SOL    HW254140  14.691   4.271   4.474
50770SOL     OW54141  10.115  12.298   6.926
50770SOL    HW154142  10.059  12.375   6.915
50770SOL    HW254143  10.098  12.245   6.848
50771SOL     OW54144   2.435   0.174   0.512
50771SOL    HW154145   2.470   0.247   0.563
50771SOL    HW254146   2.356   0.148   0.558
50772SOL     OW54147  11.731   8.625  11.171
50772SOL    HW154148  11.736   8.629  11.075
50772SOL    HW254149  11.699   8.537  11.190
50773SOL     OW54150  12.331  11.975   9.967
50773SOL    HW154151  12.314  11.950  10.058
50773SOL    HW254152  12.425  11.961   9.956
50774SOL     OW54153  13.588  14.079   9.909
50774SOL    HW154154  13.535  14.142   9.958
50774SOL    HW254155  13.624  14.129   9.836
50775SOL     OW54156   7.473   7.181   3.529
50775SOL    HW154157   7.499   7.090   3.515
50775SOL    HW254158   7.553   7.226   3.555
50776SOL     OW54159  11.373  13.686  13.190
50776SOL    HW154160  11.367  13.668  13.284
50776SOL    HW254161  11.426  13.766  13.184
50777SOL     OW54162  12.998   5.899   1.023
50777SOL    HW154163  12.972   5.916   0.932
50777SOL    HW254164  12.937   5.832   1.053
50778SOL     OW54165   1.334   5.364   5.383
50778SOL    HW154166   1.411   5.420   5.368
50778SOL    HW254167   1.339   5.342   5.476
50779SOL     OW54168  10.108   1.385   9.047
50779SOL    HW154169  10.087   1.459   8.990
50779SOL    HW254170  10.178   1.338   9.003
50780SOL     OW54171   6.845  11.171   2.421
50780SOL    HW154172   6.777  11.190   2.485
50780SOL    HW254173   6.870  11.080   2.439
50781SOL     OW54174   1.453   3.386  11.584
50781SOL    HW154175   1.392   3.346  11.522
50781SOL    HW254176   1.539   3.354  11.558
50782SOL     OW54177   7.870   2.709   5.645
50782SOL    HW154178   7.798   2.679   5.701
50782SOL    HW254179   7.949   2.676   5.689
50783SOL     OW54180  14.292   5.836  11.906
50783SOL    HW154181  14.249   5.762  11.862
50783SOL    HW254182  14.245   5.913  11.876
50784SOL     OW54183  14.393   4.670   2.100
50784SOL    HW154184  14.474   4.664   2.151
50784SOL    HW254185  14.356   4.755   2.124
50785SOL     OW54186  13.699  14.019  12.399
50785SOL    HW154187  13.742  13.979  12.324
50785SOL    HW254188  13.630  13.957  12.424
50786SOL     OW54189  10.742   6.565  14.789
50786SOL    HW154190  10.757   6.471  14.786
50786SOL    HW254191  10.647   6.574  14.798
50787SOL     OW54192  10.091  13.872  12.390
50787SOL    HW154193  10.151  13.928  12.440
50787SOL    HW254194  10.013  13.926  12.377
50788SOL     OW54195  11.593  12.631   2.005
50788SOL    HW154196  11.532  12.683   2.057
50788SOL    HW254197  11.538  12.588   1.939
50789SOL     OW54198   6.077  12.635   5.666
50789SOL    HW154199   6.009  12.672   5.724
50789SOL    HW254200   6.029  12.576   5.608
50790SOL     OW54201   6.156   3.329   9.234
50790SOL    HW154202   6.107   3.332   9.151
50790SOL    HW254203   6.096   3.288   9.296
50791SOL     OW54204   9.378  11.744   9.764
50791SOL    HW154205   9.394  11.660   9.721
50791SOL    HW254206   9.370  11.807   9.692
50792SOL     OW54207  10.602  14.573  14.041
50792SOL    HW154208  10.669  14.622  13.993
50792SOL    HW254209  10.641  14.556  14.126
50793SOL     OW54210  11.261  12.608   2.487
50793SOL    HW154211  11.229  12.669   2.554
50793SOL    HW254212  11.332  12.656   2.444
50794SOL     OW54213   6.659   4.913   2.328
50794SOL    HW154214   6.680   4.979   2.394
50794SOL    HW254215   6.732   4.915   2.267
50795SOL     OW54216  10.713   6.187  11.305
50795SOL    HW154217  10.625   6.172  11.270
50795SOL    HW254218  10.699   6.201  11.398
50796SOL     OW54219   5.688  14.454   4.662
50796SOL    HW154220   5.641  14.518   4.716
50796SOL    HW254221   5.666  14.369   4.702
50797SOL     OW54222   8.196   6.273  11.930
50797SOL    HW154223   8.255   6.345  11.954
50797SOL    HW254224   8.142   6.308  11.859
50798SOL     OW54225   3.830   9.697   9.832
50798SOL    HW154226   3.917   9.691   9.792
50798SOL    HW254227   3.827   9.784   9.871
50799SOL     OW54228   3.468  11.558  14.278
50799SOL    HW154229   3.411  11.557  14.201
50799SOL    HW254230   3.469  11.467  14.308
50800SOL     OW54231  11.149   4.849  12.041
50800SOL    HW154232  11.109   4.765  12.015
50800SOL    HW254233  11.163   4.895  11.959
50801SOL     OW54234   7.831   7.959   1.041
50801SOL    HW154235   7.797   8.048   1.052
50801SOL    HW254236   7.805   7.933   0.953
50802SOL     OW54237   9.505   0.103   9.281
50802SOL    HW154238   9.555   0.036   9.327
50802SOL    HW254239   9.534   0.096   9.190
50803SOL     OW54240  11.877   3.629   5.279
50803SOL    HW154241  11.884   3.534   5.288
50803SOL    HW254242  11.946   3.663   5.336
50804SOL     OW54243  10.784  13.905   5.424
50804SOL    HW154244  10.763  13.811   5.424
50804SOL    HW254245  10.756  13.935   5.337
50805SOL     OW54246  12.388   6.452  11.938
50805SOL    HW154247  12.449   6.380  11.951
50805SOL    HW254248  12.401   6.509  12.013
50806SOL     OW54249   7.953   4.852   2.187
50806SOL    HW154250   7.925   4.817   2.272
50806SOL    HW254251   8.039   4.890   2.203
50807SOL     OW54252   4.059   8.411   9.930
50807SOL    HW154253   3.969   8.437   9.911
50807SOL    HW254254   4.099   8.490   9.967
50808SOL     OW54255   0.745  12.221  14.788
50808SOL    HW154256   0.765  12.136  14.828
50808SOL    HW254257   0.686  12.200  14.716
50809SOL     OW54258   1.849   2.967  11.281
50809SOL    HW154259   1.894   3.023  11.217
50809SOL    HW254260   1.910   2.960  11.354
50810SOL     OW54261   0.595  14.745   6.948
50810SOL    HW154262   0.513  14.709   6.981
50810SOL    HW254263   0.663  14.689   6.985
50811SOL     OW54264   9.690   6.136  13.333
50811SOL    HW154265   9.721   6.158  13.245
50811SOL    HW254266   9.601   6.172  13.337
50812SOL     OW54267   1.171  11.943  13.846
50812SOL    HW154268   1.255  11.931  13.801
50812SOL    HW254269   1.106  11.948  13.776
50813SOL     OW54270   4.910   3.578   7.585
50813SOL    HW154271   4.913   3.596   7.491
50813SOL    HW254272   5.001   3.586   7.613
50814SOL     OW54273   4.775   5.703   7.795
50814SOL    HW154274   4.870   5.694   7.781
50814SOL    HW254275   4.765   5.703   7.890
50815SOL     OW54276  12.762  12.756   8.976
50815SOL    HW154277  12.720  12.840   8.961
50815SOL    HW254278  12.850  12.777   9.007
50816SOL     OW54279  11.876   2.323  10.793
50816SOL    HW154280  11.900   2.249  10.738
50816SOL    HW254281  11.848   2.391  10.732
50817SOL     OW54282   8.154  13.426   4.383
50817SOL    HW154283   8.188  13.506   4.344
50817SOL    HW254284   8.078  13.404   4.329
50818SOL     OW54285   3.680   2.387  10.765
50818SOL    HW154286   3.709   2.476  10.745
50818SOL    HW254287   3.604   2.374  10.708
50819SOL     OW54288   2.590   1.001  12.870
50819SOL    HW154289   2.623   1.081  12.912
50819SOL    HW254290   2.497   1.020  12.852
50820SOL     OW54291   4.596   0.591  12.698
50820SOL    HW154292   4.573   0.670  12.746
50820SOL    HW254293   4.687   0.604  12.670
50821SOL     OW54294   1.753   9.801  11.444
50821SOL    HW154295   1.735   9.719  11.490
50821SOL    HW254296   1.847   9.812  11.451
50822SOL     OW54297  10.244   6.217  14.734
50822SOL    HW154298  10.316   6.191  14.677
50822SOL    HW254299  10.193   6.279  14.683
50823SOL     OW54300  11.473   4.922   7.239
50823SOL    HW154301  11.478   4.835   7.200
50823SOL    HW254302  11.380   4.946   7.234
50824SOL     OW54303   2.564   2.456   1.863
50824SOL    HW154304   2.648   2.490   1.835
50824SOL    HW254305   2.584   2.399   1.938
50825SOL     OW54306   5.003  11.158  14.415
50825SOL    HW154307   5.053  11.146  14.495
50825SOL    HW254308   5.043  11.233  14.372
50826SOL     OW54309   8.116   2.294  12.029
50826SOL    HW154310   8.058   2.219  12.045
50826SOL    HW254311   8.130   2.294  11.934
50827SOL     OW54312   8.510  10.127  12.077
50827SOL    HW154313   8.562  10.158  12.003
50827SOL    HW254314   8.560  10.154  12.154
50828SOL     OW54315  14.304   3.107   2.279
50828SOL    HW154316  14.241   3.040   2.303
50828SOL    HW254317  14.332   3.084   2.190
50829SOL     OW54318   0.433   8.355   8.119
50829SOL    HW154319   0.364   8.294   8.095
50829SOL    HW254320   0.396   8.441   8.103
50830SOL     OW54321  11.522   3.986  10.154
50830SOL    HW154322  11.493   4.037  10.230
50830SOL    HW254323  11.488   3.898  10.170
50831SOL     OW54324   6.908   1.059   9.964
50831SOL    HW154325   6.969   0.992   9.995
50831SOL    HW254326   6.951   1.097   9.888
50832SOL     OW54327   4.234   5.916  11.835
50832SOL    HW154328   4.306   5.934  11.775
50832SOL    HW254329   4.160   5.964  11.800
50833SOL     OW54330   7.111   9.754  11.741
50833SOL    HW154331   7.116   9.684  11.806
50833SOL    HW254332   7.021   9.752  11.710
50834SOL     OW54333   6.143  14.675   4.581
50834SOL    HW154334   6.063  14.649   4.627
50834SOL    HW254335   6.140  14.627   4.498
50835SOL     OW54336   1.833   0.620  10.295
50835SOL    HW154337   1.821   0.661  10.380
50835SOL    HW254338   1.821   0.526  10.311
50836SOL     OW54339   6.840   3.192   9.894
50836SOL    HW154340   6.781   3.221   9.963
50836SOL    HW254341   6.801   3.109   9.863
50837SOL     OW54342   4.810   8.990   7.805
50837SOL    HW154343   4.888   8.986   7.750
50837SOL    HW254344   4.815   8.911   7.860
50838SOL     OW54345  12.768   6.788   2.873
50838SOL    HW154346  12.777   6.854   2.941
50838SOL    HW254347  12.716   6.718   2.914
50839SOL     OW54348   1.679  11.192   2.412
50839SOL    HW154349   1.766  11.161   2.384
50839SOL    HW254350   1.671  11.278   2.373
50840SOL     OW54351   9.335   6.729   4.655
50840SOL    HW154352   9.288   6.812   4.657
50840SOL    HW254353   9.275   6.670   4.609
50841SOL     OW54354  13.823   5.896   9.980
50841SOL    HW154355  13.910   5.937   9.976
50841SOL    HW254356  13.832   5.817   9.927
50842SOL     OW54357  13.014  10.423   6.024
50842SOL    HW154358  12.993  10.421   6.118
50842SOL    HW254359  12.942  10.474   5.986
50843SOL     OW54360   0.629  12.877  10.275
50843SOL    HW154361   0.563  12.944  10.291
50843SOL    HW254362   0.590  12.796  10.306
50844SOL     OW54363  12.990   9.948  13.741
50844SOL    HW154364  13.026  10.021  13.691
50844SOL    HW254365  12.922   9.988  13.796
50845SOL     OW54366   6.486   7.701   1.383
50845SOL    HW154367   6.517   7.696   1.473
50845SOL    HW254368   6.391   7.693   1.389
50846SOL     OW54369   3.350   5.268   0.551
50846SOL    HW154370   3.318   5.340   0.497
50846SOL    HW254371   3.312   5.189   0.512
50847SOL     OW54372   1.281   9.344   0.633
50847SOL    HW154373   1.306   9.342   0.725
50847SOL    HW254374   1.267   9.252   0.610
50848SOL     OW54375  10.376   0.694   6.157
50848SOL    HW154376  10.399   0.622   6.217
50848SOL    HW254377  10.310   0.744   6.205
50849SOL     OW54378   2.912  12.388  11.685
50849SOL    HW154379   2.888  12.448  11.614
50849SOL    HW254380   2.978  12.330  11.646
50850SOL     OW54381  11.020  13.817   2.905
50850SOL    HW154382  11.087  13.871   2.947
50850SOL    HW254383  10.938  13.852   2.938
50851SOL     OW54384  13.062   4.699   5.590
50851SOL    HW154385  13.051   4.792   5.567
50851SOL    HW254386  12.973   4.664   5.587
50852SOL     OW54387   6.166   2.335   6.065
50852SOL    HW154388   6.122   2.414   6.035
50852SOL    HW254389   6.164   2.340   6.160
50853SOL     OW54390   9.331  12.549  14.698
50853SOL    HW154391   9.305  12.566  14.607
50853SOL    HW254392   9.396  12.479  14.692
50854SOL     OW54393  11.205   7.200   6.791
50854SOL    HW154394  11.201   7.122   6.846
50854SOL    HW254395  11.190   7.167   6.702
50855SOL     OW54396   8.168   3.511   1.203
50855SOL    HW154397   8.260   3.539   1.203
50855SOL    HW254398   8.121   3.586   1.167
50856SOL     OW54399   6.793  11.490   1.280
50856SOL    HW154400   6.840  11.416   1.242
50856SOL    HW254401   6.783  11.553   1.208
50857SOL     OW54402  12.892  11.799   8.258
50857SOL    HW154403  12.966  11.766   8.208
50857SOL    HW254404  12.924  11.880   8.297
50858SOL     OW54405   5.144   3.126  13.043
50858SOL    HW154406   5.214   3.066  13.016
50858SOL    HW254407   5.190   3.194  13.093
50859SOL     OW54408   7.480   3.376  12.524
50859SOL    HW154409   7.409   3.431  12.559
50859SOL    HW254410   7.437   3.321  12.458
50860SOL     OW54411   6.082   1.992   4.086
50860SOL    HW154412   6.026   1.954   4.154
50860SOL    HW254413   6.027   1.993   4.008
50861SOL     OW54414   6.008   9.970  14.634
50861SOL    HW154415   6.090   9.925  14.654
50861SOL    HW254416   6.011   9.985  14.540
50862SOL     OW54417  10.605  14.213   4.238
50862SOL    HW154418  10.660  14.152   4.189
50862SOL    HW254419  10.624  14.299   4.199
50863SOL     OW54420   9.378  14.830  10.386
50863SOL    HW154421   9.406   0.015  10.323
50863SOL    HW254422   9.459  14.788  10.415
50864SOL     OW54423   1.489  13.038   6.701
50864SOL    HW154424   1.493  13.038   6.605
50864SOL    HW254425   1.484  13.130   6.725
50865SOL     OW54426   2.088  14.739  13.850
50865SOL    HW154427   2.122  14.792  13.779
50865SOL    HW254428   2.155  14.671  13.863
50866SOL     OW54429   3.464   5.509  14.464
50866SOL    HW154430   3.482   5.543  14.552
50866SOL    HW254431   3.376   5.540  14.443
50867SOL     OW54432   6.758   7.026   3.654
50867SOL    HW154433   6.851   7.021   3.632
50867SOL    HW254434   6.713   7.014   3.570
50868SOL     OW54435  12.281   2.371   4.600
50868SOL    HW154436  12.275   2.444   4.538
50868SOL    HW254437  12.190   2.355   4.626
50869SOL     OW54438   4.598  13.308   8.495
50869SOL    HW154439   4.598  13.214   8.475
50869SOL    HW254440   4.583  13.312   8.589
50870SOL     OW54441   0.877   9.358   0.503
50870SOL    HW154442   0.895   9.448   0.530
50870SOL    HW254443   0.787   9.360   0.471
50871SOL     OW54444   4.700   6.764   6.988
50871SOL    HW154445   4.757   6.763   7.065
50871SOL    HW254446   4.753   6.803   6.919
50872SOL     OW54447  10.899  12.480  12.342
50872SOL    HW154448  10.971  12.539  12.322
50872SOL    HW254449  10.886  12.488  12.436
50873SOL     OW54450  12.351   8.395   8.311
50873SOL    HW154451  12.298   8.458   8.261
50873SOL    HW254452  12.322   8.309   8.279
50874SOL     OW54453   9.129  10.631   3.630
50874SOL    HW154454   9.117  10.538   3.647
50874SOL    HW254455   9.043  10.662   3.601
50875SOL     OW54456  11.853   3.127  10.097
50875SOL    HW154457  11.790   3.196  10.116
50875SOL    HW254458  11.914   3.129  10.171
50876SOL     OW54459   9.770   1.839   4.666
50876SOL    HW154460   9.863   1.847   4.686
50876SOL    HW254461   9.753   1.745   4.666
50877SOL     OW54462  10.911  14.592  10.590
50877SOL    HW154463  10.998  14.591  10.630
50877SOL    HW254464  10.878  14.680  10.606
50878SOL     OW54465   7.134   0.028   3.733
50878SOL    HW154466   7.185   0.099   3.771
50878SOL    HW254467   7.059   0.018   3.793
50879SOL     OW54468  10.755   4.447  14.465
50879SOL    HW154469  10.801   4.374  14.508
50879SOL    HW254470  10.779   4.439  14.373
50880SOL     OW54471   5.611   2.308  13.334
50880SOL    HW154472   5.620   2.310  13.239
50880SOL    HW254473   5.648   2.392  13.363
50881SOL     OW54474  13.948  10.352  10.646
50881SOL    HW154475  14.006  10.407  10.593
50881SOL    HW254476  14.004  10.281  10.677
50882SOL     OW54477   6.555   3.337   8.019
50882SOL    HW154478   6.479   3.375   7.975
50882SOL    HW254479   6.551   3.372   8.108
50883SOL     OW54480   8.149  12.724   3.078
50883SOL    HW154481   8.185  12.649   3.030
50883SOL    HW254482   8.054  12.712   3.074
50884SOL     OW54483   6.883   0.970   0.092
50884SOL    HW154484   6.865   1.023   0.014
50884SOL    HW254485   6.952   1.017   0.138
50885SOL     OW54486   7.954  14.683   3.581
50885SOL    HW154487   7.880  14.657   3.636
50885SOL    HW254488   8.013  14.607   3.583
50886SOL     OW54489   5.619  13.319   4.794
50886SOL    HW154490   5.596  13.394   4.740
50886SOL    HW254491   5.709  13.298   4.769
50887SOL     OW54492   2.528   2.904  13.389
50887SOL    HW154493   2.497   2.818  13.360
50887SOL    HW254494   2.487   2.966  13.329
50888SOL     OW54495   5.998   0.222   2.211
50888SOL    HW154496   6.024   0.288   2.147
50888SOL    HW254497   6.047   0.143   2.185
50889SOL     OW54498  10.107   4.659   5.056
50889SOL    HW154499  10.135   4.740   5.014
50889SOL    HW254500  10.184   4.631   5.107
50890SOL     OW54501  12.538  13.141   2.044
50890SOL    HW154502  12.594  13.133   1.967
50890SOL    HW254503  12.594  13.115   2.117
50891SOL     OW54504  13.534   7.508   4.859
50891SOL    HW154505  13.600   7.566   4.822
50891SOL    HW254506  13.506   7.552   4.939
50892SOL     OW54507  14.629   4.643   1.635
50892SOL    HW154508  14.609   4.552   1.660
50892SOL    HW254509  14.670   4.681   1.713
50893SOL     OW54510   6.077  11.077   0.453
50893SOL    HW154511   5.988  11.113   0.455
50893SOL    HW254512   6.070  10.992   0.497
50894SOL     OW54513   2.485   4.107  12.315
50894SOL    HW154514   2.524   4.186  12.278
50894SOL    HW254515   2.531   4.035  12.273
50895SOL     OW54516   2.124   9.194  10.448
50895SOL    HW154517   2.064   9.222  10.379
50895SOL    HW254518   2.121   9.265  10.512
50896SOL     OW54519  11.016   1.076   6.166
50896SOL    HW154520  11.004   1.095   6.259
50896SOL    HW254521  10.946   1.014   6.145
50897SOL     OW54522   7.200   1.625  11.961
50897SOL    HW154523   7.199   1.678  12.041
50897SOL    HW254524   7.284   1.645  11.920
50898SOL     OW54525  10.899  14.188  13.959
50898SOL    HW154526  10.828  14.184  13.895
50898SOL    HW254527  10.855  14.211  14.041
50899SOL     OW54528   5.508   4.064  12.319
50899SOL    HW154529   5.432   4.050  12.375
50899SOL    HW254530   5.505   4.158  12.298
50900SOL     OW54531  14.560   4.955   7.198
50900SOL    HW154532  14.488   4.939   7.137
50900SOL    HW254533  14.517   4.959   7.284
50901SOL     OW54534  14.754   7.312  10.617
50901SOL    HW154535  14.778   7.230  10.574
50901SOL    HW254536  14.832   7.368  10.607
50902SOL     OW54537   8.553   0.789   0.498
50902SOL    HW154538   8.608   0.729   0.447
50902SOL    HW254539   8.613   0.830   0.560
50903SOL     OW54540   3.486   0.169  11.834
50903SOL    HW154541   3.469   0.202  11.746
50903SOL    HW254542   3.533   0.087  11.821
50904SOL     OW54543   6.292   5.833   1.091
50904SOL    HW154544   6.255   5.786   1.016
50904SOL    HW254545   6.376   5.790   1.107
50905SOL     OW54546   5.357  11.435   6.275
50905SOL    HW154547   5.265  11.459   6.265
50905SOL    HW254548   5.371  11.433   6.370
50906SOL     OW54549   9.785   2.494   7.935
50906SOL    HW154550   9.874   2.461   7.921
50906SOL    HW254551   9.760   2.532   7.851
50907SOL     OW54552  13.784  13.137   3.699
50907SOL    HW154553  13.720  13.186   3.648
50907SOL    HW254554  13.851  13.112   3.636
50908SOL     OW54555   2.558   8.409   3.379
50908SOL    HW154556   2.535   8.476   3.315
50908SOL    HW254557   2.581   8.457   3.458
50909SOL     OW54558  13.700  11.601   1.967
50909SOL    HW154559  13.787  11.567   1.947
50909SOL    HW254560  13.679  11.563   2.052
50910SOL     OW54561   9.035   2.296   0.690
50910SOL    HW154562   9.079   2.255   0.616
50910SOL    HW254563   8.944   2.305   0.663
50911SOL     OW54564   5.641   5.864   2.231
50911SOL    HW154565   5.576   5.814   2.281
50911SOL    HW254566   5.656   5.943   2.283
50912SOL     OW54567  13.218   9.640   1.767
50912SOL    HW154568  13.139   9.615   1.718
50912SOL    HW254569  13.275   9.564   1.761
50913SOL     OW54570   4.151   3.405  11.095
50913SOL    HW154571   4.220   3.463  11.127
50913SOL    HW254572   4.152   3.331  11.156
50914SOL     OW54573   8.506   2.457   5.950
50914SOL    HW154574   8.551   2.538   5.925
50914SOL    HW254575   8.572   2.389   5.942
50915SOL     OW54576   1.088   8.192   0.477
50915SOL    HW154577   1.136   8.206   0.396
50915SOL    HW254578   1.155   8.171   0.542
50916SOL     OW54579  10.159  14.718   0.800
50916SOL    HW154580  10.151  14.812   0.785
50916SOL    HW254581  10.103  14.679   0.732
50917SOL     OW54582   0.225  12.052   9.265
50917SOL    HW154583   0.286  12.114   9.304
50917SOL    HW254584   0.162  12.033   9.335
50918SOL     OW54585   8.892  13.052   0.018
50918SOL    HW154586   8.823  13.070   0.083
50918SOL    HW254587   8.884  13.123  14.836
50919SOL     OW54588  13.085   6.908   2.960
50919SOL    HW154589  13.031   6.983   2.985
50919SOL    HW254590  13.118   6.929   2.873
50920SOL     OW54591   3.439   4.910   4.526
50920SOL    HW154592   3.468   4.932   4.615
50920SOL    HW254593   3.344   4.900   4.533
50921SOL     OW54594  10.537   7.867  13.639
50921SOL    HW154595  10.486   7.947  13.628
50921SOL    HW254596  10.480   7.809  13.688
50922SOL     OW54597   4.938   0.869  12.255
50922SOL    HW154598   5.019   0.916  12.236
50922SOL    HW254599   4.869   0.933  12.237
50923SOL     OW54600   5.264   2.021  14.555
50923SOL    HW154601   5.252   1.931  14.525
50923SOL    HW254602   5.182   2.065  14.532
50924SOL     OW54603   3.592  14.250   5.302
50924SOL    HW154604   3.513  14.296   5.329
50924SOL    HW254605   3.609  14.281   5.213
50925SOL     OW54606   7.331   8.879   3.638
50925SOL    HW154607   7.423   8.889   3.614
50925SOL    HW254608   7.291   8.837   3.562
50926SOL     OW54609  12.886   3.826  14.851
50926SOL    HW154610  12.920   3.752   0.019
50926SOL    HW254611  12.795   3.835  14.880
50927SOL     OW54612   5.691   7.168   7.972
50927SOL    HW154613   5.734   7.226   7.910
50927SOL    HW254614   5.742   7.176   8.052
50928SOL     OW54615  12.314   4.558  12.905
50928SOL    HW154616  12.380   4.593  12.965
50928SOL    HW254617  12.324   4.609  12.825
50929SOL     OW54618   8.051   8.313   3.341
50929SOL    HW154619   8.043   8.342   3.432
50929SOL    HW254620   8.020   8.387   3.288
50930SOL     OW54621   8.008   1.295  10.156
50930SOL    HW154622   7.954   1.371  10.177
50930SOL    HW254623   7.950   1.220  10.166
50931SOL     OW54624   5.327   8.263   5.438
50931SOL    HW154625   5.329   8.315   5.358
50931SOL    HW254626   5.419   8.242   5.456
50932SOL     OW54627   6.510   2.902   5.133
50932SOL    HW154628   6.557   2.985   5.137
50932SOL    HW254629   6.438   2.917   5.072
50933SOL     OW54630   9.476   7.588  11.401
50933SOL    HW154631   9.551   7.595  11.342
50933SOL    HW254632   9.509   7.537  11.475
50934SOL     OW54633   7.723  10.164   4.913
50934SOL    HW154634   7.640  10.133   4.950
50934SOL    HW254635   7.787  10.099   4.940
50935SOL     OW54636   5.569  10.333  11.307
50935SOL    HW154637   5.593  10.425  11.300
50935SOL    HW254638   5.550  10.306  11.217
50936SOL     OW54639   8.079   3.856   6.378
50936SOL    HW154640   8.146   3.833   6.314
50936SOL    HW254641   8.127   3.901   6.448
50937SOL     OW54642  11.283   1.201  12.769
50937SOL    HW154643  11.339   1.124  12.784
50937SOL    HW254644  11.341   1.276  12.777
50938SOL     OW54645   3.607  12.716   7.030
50938SOL    HW154646   3.627  12.650   6.964
50938SOL    HW254647   3.539  12.676   7.084
50939SOL     OW54648   8.243  11.020   6.118
50939SOL    HW154649   8.302  10.956   6.159
50939SOL    HW254650   8.155  10.993   6.145
50940SOL     OW54651  13.501   2.493   8.999
50940SOL    HW154652  13.479   2.468   9.089
50940SOL    HW254653  13.593   2.519   9.003
50941SOL     OW54654   1.954   1.107   3.469
50941SOL    HW154655   2.037   1.095   3.423
50941SOL    HW254656   1.977   1.098   3.562
50942SOL     OW54657   6.885   4.785   2.997
50942SOL    HW154658   6.821   4.816   2.933
50942SOL    HW254659   6.958   4.752   2.944
50943SOL     OW54660   1.500  12.288   7.640
50943SOL    HW154661   1.582  12.307   7.594
50943SOL    HW254662   1.524  12.283   7.732
50944SOL     OW54663  14.100  13.822  12.290
50944SOL    HW154664  14.017  13.858  12.258
50944SOL    HW254665  14.110  13.860  12.377
50945SOL     OW54666   7.745  13.825  13.683
50945SOL    HW154667   7.658  13.801  13.717
50945SOL    HW254668   7.748  13.786  13.596
50946SOL     OW54669   6.342   3.015   1.554
50946SOL    HW154670   6.379   3.092   1.598
50946SOL    HW254671   6.339   2.948   1.622
50947SOL     OW54672   5.246   6.234   2.772
50947SOL    HW154673   5.236   6.240   2.867
50947SOL    HW254674   5.290   6.150   2.757
50948SOL     OW54675   2.727   1.451   5.503
50948SOL    HW154676   2.722   1.541   5.472
50948SOL    HW254677   2.808   1.448   5.555
50949SOL     OW54678  13.335   1.167   1.930
50949SOL    HW154679  13.287   1.158   1.848
50949SOL    HW254680  13.319   1.084   1.976
50950SOL     OW54681  10.856  10.923   4.841
50950SOL    HW154682  10.787  10.959   4.896
50950SOL    HW254683  10.850  10.974   4.759
50951SOL     OW54684  11.352  14.432  11.916
50951SOL    HW154685  11.270  14.390  11.891
50951SOL    HW254686  11.402  14.363  11.960
50952SOL     OW54687   4.015  11.955  10.614
50952SOL    HW154688   3.923  11.931  10.625
50952SOL    HW254689   4.055  11.937  10.699
50953SOL     OW54690  11.324  13.900   7.443
50953SOL    HW154691  11.289  13.823   7.398
50953SOL    HW254692  11.251  13.932   7.496
50954SOL     OW54693   9.462   7.858   2.791
50954SOL    HW154694   9.425   7.770   2.783
50954SOL    HW254695   9.546   7.844   2.835
50955SOL     OW54696  13.213  13.773  10.549
50955SOL    HW154697  13.172  13.689  10.533
50955SOL    HW254698  13.141  13.836  10.551
50956SOL     OW54699   8.173   9.747   5.010
50956SOL    HW154700   8.165   9.778   4.920
50956SOL    HW254701   8.201   9.656   5.002
50957SOL     OW54702  13.466  14.463   3.132
50957SOL    HW154703  13.459  14.369   3.118
50957SOL    HW254704  13.477  14.473   3.226
50958SOL     OW54705   2.310   1.431   1.541
50958SOL    HW154706   2.236   1.396   1.591
50958SOL    HW254707   2.270   1.487   1.474
50959SOL     OW54708   3.774   8.938   6.533
50959SOL    HW154709   3.758   9.032   6.527
50959SOL    HW254710   3.775   8.919   6.627
50960SOL     OW54711  13.510   4.846  11.377
50960SOL    HW154712  13.565   4.896  11.317
50960SOL    HW254713  13.450   4.910  11.414
50961SOL     OW54714   3.711   1.614  14.388
50961SOL    HW154715   3.662   1.639  14.310
50961SOL    HW254716   3.652   1.557  14.437
50962SOL     OW54717   4.647   3.600   7.645
50962SOL    HW154718   4.737   3.578   7.622
50962SOL    HW254719   4.617   3.655   7.573
50963SOL     OW54720  11.535   6.287   1.218
50963SOL    HW154721  11.558   6.232   1.293
50963SOL    HW254722  11.565   6.238   1.142
50964SOL     OW54723  14.124   8.566   3.110
50964SOL    HW154724  14.072   8.627   3.057
50964SOL    HW254725  14.067   8.491   3.123
50965SOL     OW54726   0.039  12.195   6.593
50965SOL    HW154727   0.081  12.168   6.675
50965SOL    HW254728   0.072  12.283   6.578
50966SOL     OW54729   5.694   9.147   0.130
50966SOL    HW154730   5.663   9.237   0.133
50966SOL    HW254731   5.666   9.109   0.214
50967SOL     OW54732   6.035   3.963  13.514
50967SOL    HW154733   6.098   3.907  13.560
50967SOL    HW254734   5.950   3.926  13.535
50968SOL     OW54735   9.658   3.365   6.210
50968SOL    HW154736   9.696   3.343   6.296
50968SOL    HW254737   9.592   3.431   6.229
50969SOL     OW54738   5.570  13.884   5.809
50969SOL    HW154739   5.491  13.898   5.860
50969SOL    HW254740   5.602  13.971   5.788
50970SOL     OW54741   8.379  12.226   4.404
50970SOL    HW154742   8.311  12.171   4.366
50970SOL    HW254743   8.421  12.267   4.328
50971SOL     OW54744   9.154   0.564   7.030
50971SOL    HW154745   9.075   0.609   7.003
50971SOL    HW254746   9.132   0.471   7.023
50972SOL     OW54747   9.881   5.221   1.841
50972SOL    HW154748   9.803   5.262   1.879
50972SOL    HW254749   9.955   5.265   1.884
50973SOL     OW54750  14.785   3.114   5.735
50973SOL    HW154751  14.797   3.052   5.807
50973SOL    HW254752  14.758   3.059   5.661
50974SOL     OW54753  10.647  11.981   8.145
50974SOL    HW154754  10.685  11.904   8.103
50974SOL    HW254755  10.689  11.983   8.232
50975SOL     OW54756  10.536  11.167  11.570
50975SOL    HW154757  10.532  11.151  11.476
50975SOL    HW254758  10.573  11.254  11.579
50976SOL     OW54759   4.833  13.801   7.036
50976SOL    HW154760   4.854  13.886   7.074
50976SOL    HW254761   4.912  13.749   7.048
50977SOL     OW54762   7.305   8.479   6.874
50977SOL    HW154763   7.222   8.430   6.878
50977SOL    HW254764   7.331   8.474   6.782
50978SOL     OW54765  10.908   6.804  13.138
50978SOL    HW154766  10.952   6.889  13.132
50978SOL    HW254767  10.893   6.778  13.047
50979SOL     OW54768   9.691   0.762  13.568
50979SOL    HW154769   9.613   0.724  13.608
50979SOL    HW254770   9.702   0.714  13.486
50980SOL     OW54771   9.551   7.521   6.847
50980SOL    HW154772   9.577   7.613   6.842
50980SOL    HW254773   9.629   7.477   6.882
50981SOL     OW54774  10.409   9.373  13.551
50981SOL    HW154775  10.461   9.317  13.609
50981SOL    HW254776  10.450   9.460  13.559
50982SOL     OW54777   4.945   4.011  14.014
50982SOL    HW154778   4.988   3.926  14.004
50982SOL    HW254779   4.960   4.034  14.106
50983SOL     OW54780  11.143   4.739  13.868
50983SOL    HW154781  11.084   4.813  13.879
50983SOL    HW254782  11.118   4.701  13.784
50984SOL     OW54783  12.947   2.386  10.456
50984SOL    HW154784  12.937   2.292  10.450
50984SOL    HW254785  12.958   2.403  10.550
50985SOL     OW54786   1.716   4.425   5.471
50985SOL    HW154787   1.736   4.435   5.378
50985SOL    HW254788   1.792   4.378   5.506
50986SOL     OW54789   7.895  13.511   1.181
50986SOL    HW154790   7.893  13.510   1.277
50986SOL    HW254791   7.874  13.421   1.156
50987SOL     OW54792  13.505  13.657  11.812
50987SOL    HW154793  13.466  13.570  11.822
50987SOL    HW254794  13.499  13.696  11.899
50988SOL     OW54795   2.244  13.371   7.777
50988SOL    HW154796   2.255  13.466   7.766
50988SOL    HW254797   2.162  13.362   7.824
50989SOL     OW54798   6.582  10.756  14.775
50989SOL    HW154799   6.608  10.829  14.719
50989SOL    HW254800   6.617  10.679  14.731
50990SOL     OW54801   0.290  10.532   8.756
50990SOL    HW154802   0.379  10.563   8.737
50990SOL    HW254803   0.235  10.570   8.688
50991SOL     OW54804   8.609  13.517   0.644
50991SOL    HW154805   8.650  13.604   0.640
50991SOL    HW254806   8.681  13.456   0.631
50992SOL     OW54807   1.344  10.098   5.494
50992SOL    HW154808   1.433  10.132   5.491
50992SOL    HW254809   1.293  10.158   5.440
50993SOL     OW54810   2.046   0.669   1.293
50993SOL    HW154811   2.104   0.658   1.218
50993SOL    HW254812   2.098   0.640   1.368
50994SOL     OW54813  13.630   2.632   3.417
50994SOL    HW154814  13.651   2.715   3.460
50994SOL    HW254815  13.658   2.644   3.327
50995SOL     OW54816  10.324  13.600  10.200
50995SOL    HW154817  10.235  13.621  10.228
50995SOL    HW254818  10.314  13.547  10.122
50996SOL     OW54819   6.879   3.167   2.384
50996SOL    HW154820   6.932   3.125   2.317
50996SOL    HW254821   6.912   3.257   2.388
50997SOL     OW54822   3.772  13.036  11.027
50997SOL    HW154823   3.686  12.994  11.028
50997SOL    HW254824   3.829  12.972  10.983
50998SOL     OW54825   7.380   4.935   6.463
50998SOL    HW154826   7.354   4.911   6.374
50998SOL    HW254827   7.357   4.859   6.516
50999SOL     OW54828   8.968  13.222  14.666
50999SOL    HW154829   9.043  13.176  14.628
50999SOL    HW254830   8.926  13.265  14.592
51000SOL     OW54831   1.450  11.274   6.868
51000SOL    HW154832   1.485  11.261   6.956
51000SOL    HW254833   1.455  11.368   6.854
51001SOL     OW54834   7.156   8.940   8.258
51001SOL    HW154835   7.136   9.034   8.252
51001SOL    HW254836   7.251   8.936   8.243
51002SOL     OW54837   5.069   9.555   9.433
51002SOL    HW154838   5.116   9.496   9.491
51002SOL    HW254839   5.052   9.633   9.486
51003SOL     OW54840  10.180  13.662   9.552
51003SOL    HW154841  10.128  13.582   9.556
51003SOL    HW254842  10.262  13.639   9.597
51004SOL     OW54843   5.745   8.461   1.486
51004SOL    HW154844   5.781   8.383   1.528
51004SOL    HW254845   5.821   8.513   1.463
51005SOL     OW54846  12.845   6.686   0.471
51005SOL    HW154847  12.773   6.747   0.452
51005SOL    HW254848  12.919   6.719   0.421
51006SOL     OW54849   1.108   0.891  12.201
51006SOL    HW154850   1.177   0.824  12.203
51006SOL    HW254851   1.155   0.974  12.201
51007SOL     OW54852   8.417   8.021  12.947
51007SOL    HW154853   8.385   7.932  12.937
51007SOL    HW254854   8.344   8.069  12.987
51008SOL     OW54855  12.392  11.115   6.989
51008SOL    HW154856  12.411  11.105   6.896
51008SOL    HW254857  12.307  11.074   7.001
51009SOL     OW54858   4.006   0.041   7.610
51009SOL    HW154859   3.976  14.867   7.539
51009SOL    HW254860   3.944   0.114   7.612
51010SOL     OW54861   4.937   5.993   6.304
51010SOL    HW154862   4.952   6.085   6.282
51010SOL    HW254863   5.002   5.973   6.371
51011SOL     OW54864  13.673   9.367  12.734
51011SOL    HW154865  13.733   9.400  12.668
51011SOL    HW254866  13.663   9.274  12.712
51012SOL     OW54867  14.585   7.383   4.098
51012SOL    HW154868  14.568   7.411   4.008
51012SOL    HW254869  14.642   7.451   4.134
51013SOL     OW54870  11.570   3.007  13.593
51013SOL    HW154871  11.601   3.065  13.663
51013SOL    HW254872  11.477   3.028  13.583
51014SOL     OW54873  11.728   7.828   5.647
51014SOL    HW154874  11.642   7.852   5.612
51014SOL    HW254875  11.781   7.907   5.636
51015SOL     OW54876   9.229  12.944   2.479
51015SOL    HW154877   9.279  12.946   2.561
51015SOL    HW254878   9.137  12.937   2.507
51016SOL     OW54879   9.255   3.696  14.070
51016SOL    HW154880   9.206   3.778  14.065
51016SOL    HW254881   9.327   3.708  14.009
51017SOL     OW54882  14.654  10.933   8.019
51017SOL    HW154883  14.590  11.003   8.011
51017SOL    HW254884  14.727  10.972   8.067
51018SOL     OW54885   7.029   5.732   2.840
51018SOL    HW154886   7.069   5.647   2.854
51018SOL    HW254887   7.019   5.738   2.745
51019SOL     OW54888   5.408   1.872   2.219
51019SOL    HW154889   5.321   1.901   2.248
51019SOL    HW254890   5.467   1.901   2.288
51020SOL     OW54891   3.990   6.196  11.960
51020SOL    HW154892   4.015   6.114  12.003
51020SOL    HW254893   3.946   6.247  12.028
51021SOL     OW54894  11.252   9.576  10.779
51021SOL    HW154895  11.256   9.565  10.874
51021SOL    HW254896  11.159   9.573  10.758
51022SOL     OW54897   9.877   5.899   5.631
51022SOL    HW154898   9.835   5.984   5.619
51022SOL    HW254899   9.964   5.909   5.592
51023SOL     OW54900  13.652   4.322   6.637
51023SOL    HW154901  13.598   4.365   6.703
51023SOL    HW254902  13.690   4.247   6.681
51024SOL     OW54903   9.139   5.612  10.520
51024SOL    HW154904   9.231   5.635  10.507
51024SOL    HW254905   9.091   5.672  10.464
51025SOL     OW54906  13.427   3.609   5.891
51025SOL    HW154907  13.422   3.644   5.980
51025SOL    HW254908  13.518   3.580   5.881
51026SOL     OW54909   1.424   1.138  12.755
51026SOL    HW154910   1.368   1.061  12.759
51026SOL    HW254911   1.509   1.105  12.725
51027SOL     OW54912   7.896   7.209   7.601
51027SOL    HW154913   7.843   7.219   7.522
51027SOL    HW254914   7.928   7.119   7.598
51028SOL     OW54915   9.487   5.602   6.363
51028SOL    HW154916   9.570   5.623   6.406
51028SOL    HW254917   9.499   5.633   6.273
51029SOL     OW54918   9.199   5.794   4.208
51029SOL    HW154919   9.140   5.868   4.218
51029SOL    HW254920   9.242   5.785   4.294
51030SOL     OW54921   0.377   2.216  10.505
51030SOL    HW154922   0.323   2.157  10.558
51030SOL    HW254923   0.324   2.296  10.498
51031SOL     OW54924   8.676   9.783   9.572
51031SOL    HW154925   8.728   9.704   9.590
51031SOL    HW254926   8.717   9.851   9.626
51032SOL     OW54927   7.921   0.857  10.041
51032SOL    HW154928   8.012   0.834  10.060
51032SOL    HW254929   7.871   0.818  10.114
51033SOL     OW54930  11.101   6.327   4.324
51033SOL    HW154931  11.128   6.240   4.352
51033SOL    HW254932  11.006   6.327   4.334
51034SOL     OW54933   7.290  10.667  13.474
51034SOL    HW154934   7.266  10.729  13.405
51034SOL    HW254935   7.246  10.700  13.553
51035SOL     OW54936  10.412  14.175   2.703
51035SOL    HW154937  10.471  14.186   2.628
51035SOL    HW254938  10.330  14.214   2.674
51036SOL     OW54939  12.653   2.541   2.104
51036SOL    HW154940  12.569   2.531   2.060
51036SOL    HW254941  12.631   2.583   2.187
51037SOL     OW54942   9.938  11.052   5.503
51037SOL    HW154943  10.005  11.045   5.571
51037SOL    HW254944   9.986  11.080   5.425
51038SOL     OW54945   6.594  14.058  14.401
51038SOL    HW154946   6.554  14.120  14.463
51038SOL    HW254947   6.553  14.079  14.317
51039SOL     OW54948   2.759   3.424  11.525
51039SOL    HW154949   2.790   3.500  11.573
51039SOL    HW254950   2.802   3.349  11.568
51040SOL     OW54951   5.466   5.240   6.350
51040SOL    HW154952   5.426   5.173   6.405
51040SOL    HW254953   5.556   5.246   6.381
51041SOL     OW54954   8.546   4.082   1.173
51041SOL    HW154955   8.583   4.033   1.246
51041SOL    HW254956   8.455   4.055   1.170
51042SOL     OW54957  11.589   5.802   8.550
51042SOL    HW154958  11.509   5.829   8.506
51042SOL    HW254959  11.576   5.710   8.571
51043SOL     OW54960   2.720   8.432   4.638
51043SOL    HW154961   2.809   8.397   4.641
51043SOL    HW254962   2.681   8.408   4.722
51044SOL     OW54963  10.574   9.121   9.040
51044SOL    HW154964  10.593   9.172   8.961
51044SOL    HW254965  10.509   9.173   9.087
51045SOL     OW54966  14.672  13.134  11.722
51045SOL    HW154967  14.633  13.115  11.636
51045SOL    HW254968  14.669  13.049  11.767
51046SOL     OW54969   0.198   4.128   6.293
51046SOL    HW154970   0.293   4.138   6.283
51046SOL    HW254971   0.170   4.092   6.209
51047SOL     OW54972  12.174  13.471   0.914
51047SOL    HW154973  12.258  13.447   0.875
51047SOL    HW254974  12.153  13.555   0.874
51048SOL     OW54975   8.326  12.842  11.780
51048SOL    HW154976   8.339  12.836  11.685
51048SOL    HW254977   8.382  12.774  11.816
51049SOL     OW54978   5.063   6.554   4.132
51049SOL    HW154979   5.064   6.649   4.114
51049SOL    HW254980   5.152   6.534   4.159
51050SOL     OW54981   4.611   4.285   2.017
51050SOL    HW154982   4.605   4.341   2.095
51050SOL    HW254983   4.545   4.320   1.957
51051SOL     OW54984   4.298  10.858   9.426
51051SOL    HW154985   4.361  10.919   9.466
51051SOL    HW254986   4.342  10.827   9.347
51052SOL     OW54987  12.081   3.498   2.265
51052SOL    HW154988  12.145   3.495   2.194
51052SOL    HW254989  12.034   3.580   2.252
51053SOL     OW54990   6.946   2.563  10.122
51053SOL    HW154991   6.992   2.639  10.159
51053SOL    HW254992   6.958   2.572  10.028
51054SOL     OW54993   1.601   9.584   2.139
51054SOL    HW154994   1.520   9.613   2.180
51054SOL    HW254995   1.598   9.489   2.143
51055SOL     OW54996   4.924  12.299   9.456
51055SOL    HW154997   4.894  12.382   9.493
51055SOL    HW254998   4.926  12.239   9.531
51056SOL     OW54999   6.062   2.505  12.345
51056SOL    HW155000   5.988   2.504  12.285
51056SOL    HW255001   6.138   2.490  12.289
51057SOL     OW55002   1.278  12.068   9.934
51057SOL    HW155003   1.340  11.997   9.921
51057SOL    HW255004   1.330  12.148   9.926
51058SOL     OW55005   0.452   8.089   4.196
51058SOL    HW155006   0.413   8.087   4.109
51058SOL    HW255007   0.525   8.151   4.188
51059SOL     OW55008   0.308   4.472   0.804
51059SOL    HW155009   0.339   4.436   0.888
51059SOL    HW255010   0.247   4.541   0.829
51060SOL     OW55011  13.633  10.112  13.769
51060SOL    HW155012  13.676  10.187  13.728
51060SOL    HW255013  13.677  10.103  13.854
51061SOL     OW55014   7.223   4.593   1.662
51061SOL    HW155015   7.196   4.592   1.754
51061SOL    HW255016   7.232   4.686   1.641
51062SOL     OW55017   6.296   1.520  12.074
51062SOL    HW155018   6.288   1.610  12.106
51062SOL    HW255019   6.307   1.530  11.979
51063SOL     OW55020   8.357   2.405  11.980
51063SOL    HW155021   8.310   2.327  12.008
51063SOL    HW255022   8.380   2.388  11.889
51064SOL     OW55023   8.170   5.967  13.145
51064SOL    HW155024   8.145   5.970  13.237
51064SOL    HW255025   8.223   6.046  13.131
51065SOL     OW55026   0.256   5.673   4.776
51065SOL    HW155027   0.260   5.622   4.857
51065SOL    HW255028   0.175   5.725   4.785
51066SOL     OW55029  12.086  13.610  13.194
51066SOL    HW155030  12.167  13.564  13.217
51066SOL    HW255031  12.111  13.666  13.120
51067SOL     OW55032   8.928   9.629   8.106
51067SOL    HW155033   8.992   9.587   8.163
51067SOL    HW255034   8.868   9.558   8.081
51068SOL     OW55035   7.339   8.561   9.639
51068SOL    HW155036   7.376   8.589   9.722
51068SOL    HW255037   7.304   8.641   9.600
51069SOL     OW55038   6.889  14.684  11.181
51069SOL    HW155039   6.839  14.604  11.197
51069SOL    HW255040   6.841  14.752  11.227
51070SOL     OW55041   1.232   2.362  11.677
51070SOL    HW155042   1.179   2.427  11.630
51070SOL    HW255043   1.250   2.295  11.611
51071SOL     OW55044  11.677   5.741   6.970
51071SOL    HW155045  11.699   5.648   6.970
51071SOL    HW255046  11.593   5.746   6.924
51072SOL     OW55047   5.721   3.638   2.566
51072SOL    HW155048   5.797   3.629   2.509
51072SOL    HW255049   5.647   3.652   2.507
51073SOL     OW55050  10.148  11.678  11.803
51073SOL    HW155051  10.165  11.716  11.890
51073SOL    HW255052  10.212  11.719  11.746
51074SOL     OW55053  14.426  11.493  13.162
51074SOL    HW155054  14.370  11.417  13.176
51074SOL    HW255055  14.488  11.465  13.096
51075SOL     OW55056  14.654   9.642  12.646
51075SOL    HW155057  14.654   9.586  12.724
51075SOL    HW255058  14.740   9.684  12.647
51076SOL     OW55059   8.924   4.499   0.785
51076SOL    HW155060   8.854   4.434   0.799
51076SOL    HW255061   8.927   4.510   0.690
51077SOL     OW55062   0.157   9.537   9.206
51077SOL    HW155063   0.139   9.618   9.253
51077SOL    HW255064   0.237   9.502   9.248
51078SOL     OW55065   3.430   6.867   8.790
51078SOL    HW155066   3.444   6.776   8.765
51078SOL    HW255067   3.452   6.917   8.711
51079SOL     OW55068   1.329   3.975   3.798
51079SOL    HW155069   1.267   3.956   3.727
51079SOL    HW255070   1.340   4.070   3.795
51080SOL     OW55071   4.896  10.901  10.856
51080SOL    HW155072   4.847  10.830  10.897
51080SOL    HW255073   4.968  10.858  10.810
51081SOL     OW55074   6.356   2.313   0.920
51081SOL    HW155075   6.379   2.267   0.839
51081SOL    HW255076   6.397   2.399   0.911
51082SOL     OW55077   5.937   4.220   2.431
51082SOL    HW155078   5.948   4.269   2.513
51082SOL    HW255079   5.961   4.130   2.453
51083SOL     OW55080   1.940   3.683  10.300
51083SOL    HW155081   1.995   3.701  10.224
51083SOL    HW255082   1.981   3.731  10.371
51084SOL     OW55083   1.984   6.730  11.427
51084SOL    HW155084   2.026   6.649  11.454
51084SOL    HW255085   1.911   6.741  11.488
51085SOL     OW55086  11.250  14.059  12.619
51085SOL    HW155087  11.189  14.003  12.666
51085SOL    HW255088  11.214  14.147  12.628
51086SOL     OW55089   9.761  11.007  11.494
51086SOL    HW155090   9.820  11.047  11.558
51086SOL    HW255091   9.747  10.918  11.525
51087SOL     OW55092  12.559   3.292   4.151
51087SOL    HW155093  12.548   3.363   4.215
51087SOL    HW255094  12.638   3.247   4.179
51088SOL     OW55095   8.077   3.044   5.040
51088SOL    HW155096   8.096   2.999   5.122
51088SOL    HW255097   7.981   3.045   5.035
51089SOL     OW55098   0.567  13.115   5.068
51089SOL    HW155099   0.644  13.133   5.122
51089SOL    HW255100   0.501  13.178   5.096
51090SOL     OW55101  14.670   4.108   7.392
51090SOL    HW155102  14.618   4.067   7.462
51090SOL    HW255103  14.695   4.193   7.427
51091SOL     OW55104   8.306   6.713   5.919
51091SOL    HW155105   8.296   6.620   5.895
51091SOL    HW255106   8.312   6.713   6.014
51092SOL     OW55107  14.424   1.312   1.060
51092SOL    HW155108  14.394   1.238   1.006
51092SOL    HW255109  14.518   1.298   1.071
51093SOL     OW55110  12.107   2.222   0.070
51093SOL    HW155111  12.150   2.304   0.045
51093SOL    HW255112  12.142   2.158   0.008
51094SOL     OW55113  14.846   9.700  13.133
51094SOL    HW155114   0.050   9.724  13.169
51094SOL    HW255115  14.800   9.660  13.207
51095SOL     OW55116  10.553   5.989  11.660
51095SOL    HW155117  10.469   5.993  11.704
51095SOL    HW255118  10.532   5.989  11.567
51096SOL     OW55119   2.229   1.350   1.116
51096SOL    HW155120   2.176   1.283   1.073
51096SOL    HW255121   2.173   1.428   1.116
51097SOL     OW55122   6.651   3.954  10.373
51097SOL    HW155123   6.648   3.879  10.314
51097SOL    HW255124   6.627   3.919  10.459
51098SOL     OW55125   0.290  13.622   0.355
51098SOL    HW155126   0.310  13.543   0.304
51098SOL    HW255127   0.195  13.626   0.358
51099SOL     OW55128   1.761  11.681   0.809
51099SOL    HW155129   1.748  11.586   0.804
51099SOL    HW255130   1.740  11.713   0.721
51100SOL     OW55131   6.653   2.879   3.185
51100SOL    HW155132   6.564   2.885   3.148
51100SOL    HW255133   6.706   2.842   3.114
51101SOL     OW55134  14.096  14.751   8.925
51101SOL    HW155135  14.046  14.751   8.843
51101SOL    HW255136  14.150  14.672   8.919
51102SOL     OW55137   5.857   3.019   2.749
51102SOL    HW155138   5.817   3.069   2.678
51102SOL    HW255139   5.784   2.999   2.808
51103SOL     OW55140  12.360   4.927  11.011
51103SOL    HW155141  12.282   4.924  11.066
51103SOL    HW255142  12.378   5.021  11.000
51104SOL     OW55143  11.227   2.372   1.374
51104SOL    HW155144  11.267   2.356   1.289
51104SOL    HW255145  11.213   2.467   1.376
51105SOL     OW55146   9.603   7.502   5.229
51105SOL    HW155147   9.557   7.500   5.313
51105SOL    HW255148   9.560   7.570   5.178
51106SOL     OW55149   1.875   5.625   5.921
51106SOL    HW155150   1.834   5.674   5.993
51106SOL    HW255151   1.897   5.692   5.856
51107SOL     OW55152   9.922  12.110  13.231
51107SOL    HW155153   9.941  12.076  13.144
51107SOL    HW255154   9.905  12.033  13.284
51108SOL     OW55155  11.304   4.794  10.679
51108SOL    HW155156  11.263   4.801  10.593
51108SOL    HW255157  11.230   4.793  10.740
51109SOL     OW55158   7.799  10.113  12.053
51109SOL    HW155159   7.719  10.115  12.001
51109SOL    HW255160   7.869  10.131  11.990
51110SOL     OW55161  10.623  12.205   4.877
51110SOL    HW155162  10.534  12.214   4.842
51110SOL    HW255163  10.615  12.228   4.969
51111SOL     OW55164   4.207   1.970   7.906
51111SOL    HW155165   4.213   2.066   7.909
51111SOL    HW255166   4.185   1.945   7.995
51112SOL     OW55167   3.774   5.374   5.920
51112SOL    HW155168   3.687   5.398   5.952
51112SOL    HW255169   3.756   5.325   5.840
51113SOL     OW55170   1.703   2.918   3.947
51113SOL    HW155171   1.735   2.852   4.008
51113SOL    HW255172   1.722   2.881   3.860
51114SOL     OW55173   9.158  11.097  10.916
51114SOL    HW155174   9.221  11.039  10.874
51114SOL    HW255175   9.179  11.184  10.882
51115SOL     OW55176   5.845   9.810  14.819
51115SOL    HW155177   5.907   9.868  14.775
51115SOL    HW255178   5.875   9.722  14.798
51116SOL     OW55179   7.926   1.656   1.601
51116SOL    HW155180   7.900   1.706   1.678
51116SOL    HW255181   7.972   1.580   1.637
51117SOL     OW55182  14.007  14.397   2.387
51117SOL    HW155183  13.966  14.317   2.354
51117SOL    HW255184  13.947  14.467   2.360
51118SOL     OW55185   5.541   9.409   0.521
51118SOL    HW155186   5.524   9.460   0.600
51118SOL    HW255187   5.616   9.354   0.543
51119SOL     OW55188   1.931   8.913   3.067
51119SOL    HW155189   1.854   8.895   3.120
51119SOL    HW255190   1.990   8.839   3.085
51120SOL     OW55191  12.411  13.159   8.896
51120SOL    HW155192  12.378  13.249   8.892
51120SOL    HW255193  12.372  13.122   8.975
51121SOL     OW55194   2.456  13.503  12.199
51121SOL    HW155195   2.453  13.577  12.138
51121SOL    HW255196   2.496  13.539  12.278
51122SOL     OW55197   0.574  12.820   7.986
51122SOL    HW155198   0.621  12.896   8.019
51122SOL    HW255199   0.517  12.794   8.058
51123SOL     OW55200  11.153  10.578  10.144
51123SOL    HW155201  11.101  10.508  10.106
51123SOL    HW255202  11.218  10.599  10.077
51124SOL     OW55203   7.602   1.382   0.136
51124SOL    HW155204   7.639   1.458   0.180
51124SOL    HW255205   7.623   1.396   0.043
51125SOL     OW55206   1.273   7.483  12.970
51125SOL    HW155207   1.191   7.433  12.971
51125SOL    HW255208   1.283   7.513  13.061
51126SOL     OW55209   4.139  10.195   7.703
51126SOL    HW155210   4.043  10.195   7.702
51126SOL    HW255211   4.163  10.104   7.685
51127SOL     OW55212  11.514  13.661   4.005
51127SOL    HW155213  11.426  13.623   4.006
51127SOL    HW255214  11.500  13.755   4.002
51128SOL     OW55215  11.676  10.306  10.239
51128SOL    HW155216  11.678  10.236  10.173
51128SOL    HW255217  11.670  10.387  10.187
51129SOL     OW55218  13.113   7.072  12.172
51129SOL    HW155219  13.159   7.123  12.106
51129SOL    HW255220  13.174   7.002  12.195
51130SOL     OW55221   4.944   6.097   0.472
51130SOL    HW155222   4.983   6.143   0.398
51130SOL    HW255223   4.884   6.034   0.432
51131SOL     OW55224   5.634   4.021   9.288
51131SOL    HW155225   5.554   3.969   9.280
51131SOL    HW255226   5.604   4.112   9.282
51132SOL     OW55227  12.021   4.897   6.276
51132SOL    HW155228  12.041   4.986   6.304
51132SOL    HW255229  12.105   4.862   6.248
51133SOL     OW55230   6.985  11.046  10.262
51133SOL    HW155231   6.977  10.964  10.213
51133SOL    HW255232   6.929  11.034  10.338
51134SOL     OW55233   5.386   9.114   5.965
51134SOL    HW155234   5.443   9.189   5.947
51134SOL    HW255235   5.332   9.105   5.887
51135SOL     OW55236  13.890   4.171   2.048
51135SOL    HW155237  13.866   4.229   1.976
51135SOL    HW255238  13.925   4.229   2.115
51136SOL     OW55239   7.606   4.645   2.500
51136SOL    HW155240   7.587   4.552   2.492
51136SOL    HW255241   7.519   4.687   2.498
51137SOL     OW55242   3.903   0.477   9.448
51137SOL    HW155243   3.895   0.474   9.353
51137SOL    HW255244   3.928   0.568   9.468
51138SOL     OW55245   3.324   9.897  14.175
51138SOL    HW155246   3.319   9.869  14.267
51138SOL    HW255247   3.398   9.848  14.139
51139SOL     OW55248  13.062   1.125   9.788
51139SOL    HW155249  13.024   1.101   9.703
51139SOL    HW255250  13.141   1.073   9.794
51140SOL     OW55251   9.341   0.889   3.709
51140SOL    HW155252   9.412   0.918   3.766
51140SOL    HW255253   9.327   0.964   3.650
51141SOL     OW55254   0.212   1.052   8.586
51141SOL    HW155255   0.203   0.960   8.563
51141SOL    HW255256   0.121   1.083   8.593
51142SOL     OW55257   6.540   9.489  10.516
51142SOL    HW155258   6.604   9.451  10.456
51142SOL    HW255259   6.495   9.555  10.464
51143SOL     OW55260   7.435   1.954   1.159
51143SOL    HW155261   7.364   1.890   1.150
51143SOL    HW255262   7.511   1.902   1.185
51144SOL     OW55263   2.790  13.197   4.493
51144SOL    HW155264   2.788  13.107   4.525
51144SOL    HW255265   2.710  13.237   4.528
51145SOL     OW55266   6.875  10.047   8.049
51145SOL    HW155267   6.789  10.004   8.049
51145SOL    HW255268   6.883  10.084   7.961
51146SOL     OW55269  11.527  11.541   2.871
51146SOL    HW155270  11.613  11.575   2.845
51146SOL    HW255271  11.468  11.571   2.802
51147SOL     OW55272  10.485  13.014   5.887
51147SOL    HW155273  10.523  12.992   5.972
51147SOL    HW255274  10.548  13.077   5.850
51148SOL     OW55275   9.955  11.804  12.194
51148SOL    HW155276   9.884  11.832  12.136
51148SOL    HW255277   9.912  11.784  12.277
51149SOL     OW55278   8.672  14.811  14.846
51149SOL    HW155279   8.614  14.808   0.040
51149SOL    HW255280   8.756  14.838  14.880
51150SOL     OW55281   1.276   7.556   5.047
51150SOL    HW155282   1.308   7.560   5.137
51150SOL    HW255283   1.297   7.467   5.018
51151SOL     OW55284   5.216   1.717   9.809
51151SOL    HW155285   5.259   1.798   9.783
51151SOL    HW255286   5.284   1.650   9.803
51152SOL     OW55287   2.981   5.090  10.650
51152SOL    HW155288   2.893   5.067  10.619
51152SOL    HW255289   3.037   5.077  10.573
51153SOL     OW55290  13.527   6.792   6.623
51153SOL    HW155291  13.615   6.783   6.660
51153SOL    HW255292  13.499   6.701   6.608
51154SOL     OW55293  12.077   8.846   2.434
51154SOL    HW155294  12.055   8.889   2.352
51154SOL    HW255295  12.122   8.913   2.485
51155SOL     OW55296  13.761   0.700   7.206
51155SOL    HW155297  13.739   0.758   7.279
51155SOL    HW255298  13.757   0.612   7.243
51156SOL     OW55299   0.724  10.603   7.152
51156SOL    HW155300   0.713  10.536   7.085
51156SOL    HW255301   0.778  10.562   7.220
51157SOL     OW55302   8.353   6.406  14.499
51157SOL    HW155303   8.339   6.448  14.414
51157SOL    HW255304   8.439   6.438  14.527
51158SOL     OW55305   0.232   1.615   3.714
51158SOL    HW155306   0.267   1.538   3.669
51158SOL    HW255307   0.152   1.584   3.757
51159SOL     OW55308  11.251  10.218   3.516
51159SOL    HW155309  11.174  10.275   3.525
51159SOL    HW255310  11.280  10.204   3.606
51160SOL     OW55311   5.302   9.520   3.190
51160SOL    HW155312   5.216   9.550   3.219
51160SOL    HW255313   5.351   9.600   3.172
51161SOL     OW55314   9.551   2.038   0.969
51161SOL    HW155315   9.463   2.002   0.955
51161SOL    HW255316   9.608   1.985   0.913
51162SOL     OW55317  12.974   3.809   0.739
51162SOL    HW155318  12.946   3.783   0.827
51162SOL    HW255319  12.892   3.829   0.694
51163SOL     OW55320   1.712   7.261   9.613
51163SOL    HW155321   1.671   7.319   9.549
51163SOL    HW255322   1.661   7.180   9.608
51164SOL     OW55323   3.864  14.706   2.819
51164SOL    HW155324   3.926  14.777   2.802
51164SOL    HW255325   3.918  14.627   2.823
51165SOL     OW55326  13.525   3.279  10.162
51165SOL    HW155327  13.439   3.320  10.162
51165SOL    HW255328  13.564   3.304  10.079
51166SOL     OW55329   4.860   5.882  11.274
51166SOL    HW155330   4.949   5.916  11.284
51166SOL    HW255331   4.836   5.904  11.184
51167SOL     OW55332  14.231  10.313   5.571
51167SOL    HW155333  14.243  10.268   5.487
51167SOL    HW255334  14.214  10.404   5.547
51168SOL     OW55335  10.212   0.957  12.907
51168SOL    HW155336  10.264   1.010  12.847
51168SOL    HW255337  10.228   0.867  12.879
51169SOL     OW55338   7.294   0.559   2.463
51169SOL    HW155339   7.308   0.634   2.521
51169SOL    HW255340   7.312   0.482   2.517
51170SOL     OW55341  13.065   7.834  12.683
51170SOL    HW155342  13.073   7.742  12.708
51170SOL    HW255343  13.087   7.836  12.590
51171SOL     OW55344   5.196   2.784   8.957
51171SOL    HW155345   5.243   2.864   8.982
51171SOL    HW255346   5.205   2.726   9.032
51172SOL     OW55347   1.100   5.943   2.722
51172SOL    HW155348   1.070   5.923   2.810
51172SOL    HW255349   1.164   6.013   2.733
51173SOL     OW55350  12.496   3.065  13.042
51173SOL    HW155351  12.538   3.147  13.016
51173SOL    HW255352  12.408   3.090  13.070
51174SOL     OW55353   5.578   4.374   9.535
51174SOL    HW155354   5.526   4.307   9.580
51174SOL    HW255355   5.529   4.455   9.548
51175SOL     OW55356   2.051   2.600   3.732
51175SOL    HW155357   2.021   2.640   3.650
51175SOL    HW255358   2.145   2.589   3.720
51176SOL     OW55359   5.659  11.066  12.984
51176SOL    HW155360   5.622  11.080  13.071
51176SOL    HW255361   5.708  10.984  12.992
51177SOL     OW55362   5.198   3.166   9.842
51177SOL    HW155363   5.288   3.135   9.832
51177SOL    HW255364   5.207   3.256   9.873
51178SOL     OW55365   3.218   8.206   0.684
51178SOL    HW155366   3.226   8.225   0.591
51178SOL    HW255367   3.249   8.285   0.728
51179SOL     OW55368   8.210   6.448   9.312
51179SOL    HW155369   8.118   6.448   9.339
51179SOL    HW255370   8.251   6.379   9.365
51180SOL     OW55371   9.923  10.392  12.651
51180SOL    HW155372   9.865  10.364  12.721
51180SOL    HW255373   9.888  10.476  12.623
51181SOL     OW55374   4.230   8.612  14.089
51181SOL    HW155375   4.183   8.530  14.105
51181SOL    HW255376   4.320   8.585  14.072
51182SOL     OW55377  13.987   2.465   4.346
51182SOL    HW155378  13.993   2.557   4.323
51182SOL    HW255379  14.020   2.461   4.436
51183SOL     OW55380  14.718  10.449   6.538
51183SOL    HW155381  14.643  10.488   6.493
51183SOL    HW255382  14.691  10.359   6.556
51184SOL     OW55383  10.908   2.580  12.448
51184SOL    HW155384  10.824   2.576  12.403
51184SOL    HW255385  10.887   2.608  12.537
51185SOL     OW55386   4.526  14.320   4.689
51185SOL    HW155387   4.491  14.231   4.685
51185SOL    HW255388   4.567  14.327   4.775
51186SOL     OW55389   2.130  14.170   2.180
51186SOL    HW155390   2.072  14.115   2.232
51186SOL    HW255391   2.155  14.241   2.239
51187SOL     OW55392  11.194   5.034  10.458
51187SOL    HW155393  11.137   4.993  10.524
51187SOL    HW255394  11.223   4.961  10.403
51188SOL     OW55395   2.937   8.947   5.847
51188SOL    HW155396   2.894   9.009   5.789
51188SOL    HW255397   2.945   8.867   5.795
51189SOL     OW55398   9.601   9.810   0.154
51189SOL    HW155399   9.594   9.753   0.231
51189SOL    HW255400   9.543   9.884   0.174
51190SOL     OW55401   6.742  11.818  13.952
51190SOL    HW155402   6.770  11.879  13.884
51190SOL    HW255403   6.686  11.869  14.010
51191SOL     OW55404   5.404   4.172  13.953
51191SOL    HW155405   5.444   4.163  13.866
51191SOL    HW255406   5.310   4.160  13.938
51192SOL     OW55407   6.823  10.018   7.451
51192SOL    HW155408   6.742  10.053   7.488
51192SOL    HW255409   6.871   9.983   7.526
51193SOL     OW55410  13.934   9.381   2.739
51193SOL    HW155411  14.000   9.422   2.795
51193SOL    HW255412  13.881   9.454   2.707
51194SOL     OW55413   9.381   5.225   9.908
51194SOL    HW155414   9.467   5.235   9.948
51194SOL    HW255415   9.320   5.267   9.968
51195SOL     OW55416   7.495   4.139   7.709
51195SOL    HW155417   7.510   4.183   7.626
51195SOL    HW255418   7.516   4.047   7.692
51196SOL     OW55419  14.173   0.876   6.896
51196SOL    HW155420  14.101   0.830   6.939
51196SOL    HW255421  14.187   0.828   6.814
51197SOL     OW55422  13.186  13.257  12.452
51197SOL    HW155423  13.130  13.189  12.413
51197SOL    HW255424  13.267  13.211  12.473
51198SOL     OW55425   0.892  10.071  13.308
51198SOL    HW155426   0.972  10.120  13.325
51198SOL    HW255427   0.825  10.139  13.297
51199SOL     OW55428  11.142  11.639   8.097
51199SOL    HW155429  11.161  11.670   8.008
51199SOL    HW255430  11.226  11.607   8.129
51200SOL     OW55431   7.508   8.498  10.153
51200SOL    HW155432   7.479   8.450  10.230
51200SOL    HW255433   7.431   8.503  10.097
51201SOL     OW55434   0.726  11.366   0.562
51201SOL    HW155435   0.818  11.375   0.538
51201SOL    HW255436   0.719  11.402   0.650
51202SOL     OW55437   7.636   7.600  10.200
51202SOL    HW155438   7.648   7.644  10.116
51202SOL    HW255439   7.711   7.542  10.208
51203SOL     OW55440   5.332   9.822   1.778
51203SOL    HW155441   5.420   9.860   1.783
51203SOL    HW255442   5.346   9.736   1.739
51204SOL     OW55443  11.056   2.673   2.813
51204SOL    HW155444  11.020   2.680   2.724
51204SOL    HW255445  11.108   2.594   2.812
51205SOL     OW55446   2.813   2.235   3.067
51205SOL    HW155447   2.738   2.241   3.008
51205SOL    HW255448   2.842   2.144   3.060
51206SOL     OW55449   0.069   8.360   8.519
51206SOL    HW155450  14.871   8.377   8.568
51206SOL    HW255451   0.084   8.439   8.468
51207SOL     OW55452  10.701   2.626  10.003
51207SOL    HW155453  10.619   2.588  10.038
51207SOL    HW255454  10.739   2.556   9.950
51208SOL     OW55455  10.305   4.624   2.351
51208SOL    HW155456  10.273   4.628   2.261
51208SOL    HW255457  10.342   4.536   2.360
51209SOL     OW55458   9.505  11.989   4.331
51209SOL    HW155459   9.472  11.946   4.410
51209SOL    HW255460   9.580  12.041   4.361
51210SOL     OW55461   5.907   2.451  10.449
51210SOL    HW155462   5.849   2.475  10.377
51210SOL    HW255463   5.851   2.455  10.527
51211SOL     OW55464  14.462  13.960   3.654
51211SOL    HW155465  14.463  14.056   3.657
51211SOL    HW255466  14.479  13.933   3.744
51212SOL     OW55467  13.696   8.986  13.573
51212SOL    HW155468  13.735   9.072  13.557
51212SOL    HW255469  13.607   8.994  13.539
51213SOL     OW55470   9.681   8.183   2.552
51213SOL    HW155471   9.743   8.110   2.549
51213SOL    HW255472   9.721   8.251   2.498
51214SOL     OW55473   6.833   6.307  11.821
51214SOL    HW155474   6.835   6.307  11.725
51214SOL    HW255475   6.922   6.286  11.847
51215SOL     OW55476   0.557  11.463   3.084
51215SOL    HW155477   0.470  11.498   3.063
51215SOL    HW255478   0.618  11.526   3.047
51216SOL     OW55479   9.670   4.598  13.221
51216SOL    HW155480   9.598   4.646  13.179
51216SOL    HW255481   9.746   4.655  13.210
51217SOL     OW55482   0.530  13.339  12.673
51217SOL    HW155483   0.527  13.413  12.612
51217SOL    HW255484   0.438  13.319  12.690
51218SOL     OW55485   2.378   6.969   6.942
51218SOL    HW155486   2.460   6.960   6.892
51218SOL    HW255487   2.406   6.965   7.034
51219SOL     OW55488   9.762   5.863   7.561
51219SOL    HW155489   9.812   5.805   7.503
51219SOL    HW255490   9.822   5.882   7.633
51220SOL     OW55491   1.619  10.860   8.775
51220SOL    HW155492   1.565  10.907   8.711
51220SOL    HW255493   1.708  10.893   8.759
51221SOL     OW55494   2.331   9.402   2.445
51221SOL    HW155495   2.415   9.399   2.491
51221SOL    HW255496   2.268   9.365   2.508
51222SOL     OW55497  14.697  13.022   4.210
51222SOL    HW155498  14.663  13.110   4.222
51222SOL    HW255499  14.747  13.027   4.128
51223SOL     OW55500   8.152  11.231   8.374
51223SOL    HW155501   8.085  11.166   8.352
51223SOL    HW255502   8.231  11.200   8.329
51224SOL     OW55503   1.131   4.718   0.791
51224SOL    HW155504   1.085   4.773   0.854
51224SOL    HW255505   1.196   4.776   0.751
51225SOL     OW55506   7.191   1.557   3.441
51225SOL    HW155507   7.141   1.621   3.390
51225SOL    HW255508   7.126   1.495   3.472
51226SOL     OW55509  14.819  13.052   0.393
51226SOL    HW155510  14.727  13.027   0.379
51226SOL    HW255511  14.861  12.971   0.423
51227SOL     OW55512   8.373   5.079  13.181
51227SOL    HW155513   8.326   5.062  13.100
51227SOL    HW255514   8.324   5.030  13.248
51228SOL     OW55515  13.826   3.043   9.657
51228SOL    HW155516  13.894   3.064   9.593
51228SOL    HW255517  13.815   2.948   9.651
51229SOL     OW55518   0.887   4.228   1.662
51229SOL    HW155519   0.918   4.171   1.733
51229SOL    HW255520   0.962   4.236   1.604
51230SOL     OW55521   4.378   3.330  12.165
51230SOL    HW155522   4.466   3.360  12.140
51230SOL    HW255523   4.331   3.411  12.185
51231SOL     OW55524   3.566   8.651  13.551
51231SOL    HW155525   3.591   8.743  13.557
51231SOL    HW255526   3.544   8.638  13.458
51232SOL     OW55527   7.924   8.738  10.042
51232SOL    HW155528   7.867   8.666  10.071
51232SOL    HW255529   7.868   8.790   9.984
51233SOL     OW55530  11.911  11.076   4.554
51233SOL    HW155531  11.966  11.053   4.629
51233SOL    HW255532  11.832  11.023   4.565
51234SOL     OW55533   1.465   7.800   5.471
51234SOL    HW155534   1.414   7.878   5.491
51234SOL    HW255535   1.483   7.761   5.556
51235SOL     OW55536   5.194   7.650   3.608
51235SOL    HW155537   5.140   7.572   3.617
51235SOL    HW255538   5.138   7.722   3.636
51236SOL     OW55539   5.589  13.270  12.416
51236SOL    HW155540   5.517  13.333  12.409
51236SOL    HW255541   5.623  13.282  12.505
51237SOL     OW55542   1.993   9.016  10.019
51237SOL    HW155543   1.968   9.090   9.964
51237SOL    HW255544   2.075   8.984   9.982
51238SOL     OW55545   3.708  13.557   8.120
51238SOL    HW155546   3.727  13.642   8.081
51238SOL    HW255547   3.711  13.572   8.215
51239SOL     OW55548   1.850   1.103  10.201
51239SOL    HW155549   1.807   1.131  10.282
51239SOL    HW255550   1.856   1.183  10.149
51240SOL     OW55551  10.824   8.204  12.319
51240SOL    HW155552  10.870   8.288  12.319
51240SOL    HW255553  10.831   8.172  12.230
51241SOL     OW55554   6.504   0.159   8.647
51241SOL    HW155555   6.469   0.181   8.734
51241SOL    HW255556   6.493   0.064   8.640
51242SOL     OW55557  12.207   3.005   9.186
51242SOL    HW155558  12.288   3.054   9.198
51242SOL    HW255559  12.199   2.952   9.266
51243SOL     OW55560   9.649  10.082   5.233
51243SOL    HW155561   9.680  10.132   5.308
51243SOL    HW255562   9.555  10.096   5.232
51244SOL     OW55563  14.556   4.482  10.287
51244SOL    HW155564  14.592   4.430  10.358
51244SOL    HW255565  14.462   4.464  10.290
51245SOL     OW55566   2.980   7.203   8.622
51245SOL    HW155567   3.069   7.208   8.588
51245SOL    HW255568   2.938   7.135   8.568
51246SOL     OW55569   2.424   3.960   7.129
51246SOL    HW155570   2.397   4.052   7.135
51246SOL    HW255571   2.344   3.910   7.145
51247SOL     OW55572  12.125   5.345  11.189
51247SOL    HW155573  12.219   5.362  11.189
51247SOL    HW255574  12.089   5.406  11.124
51248SOL     OW55575   6.191  10.489   4.402
51248SOL    HW155576   6.264  10.501   4.341
51248SOL    HW255577   6.127  10.555   4.376
51249SOL     OW55578  14.822   2.773   6.452
51249SOL    HW155579  14.769   2.701   6.487
51249SOL    HW255580  14.790   2.784   6.363
51250SOL     OW55581   4.256   7.009  14.859
51250SOL    HW155582   4.280   7.099  14.881
51250SOL    HW255583   4.335   6.971  14.820
51251SOL     OW55584   1.732   3.558   2.179
51251SOL    HW155585   1.774   3.616   2.243
51251SOL    HW255586   1.765   3.588   2.094
51252SOL     OW55587   1.332   0.740  13.215
51252SOL    HW155588   1.305   0.820  13.169
51252SOL    HW255589   1.421   0.760  13.246
51253SOL     OW55590  11.865   9.322   8.645
51253SOL    HW155591  11.806   9.395   8.667
51253SOL    HW255592  11.951   9.363   8.640
51254SOL     OW55593   2.689   8.543  14.009
51254SOL    HW155594   2.754   8.606  13.979
51254SOL    HW255595   2.649   8.509  13.929
51255SOL     OW55596   5.182   5.830  10.512
51255SOL    HW155597   5.094   5.862  10.490
51255SOL    HW255598   5.200   5.868  10.598
51256SOL     OW55599   7.071   1.449   0.469
51256SOL    HW155600   7.127   1.372   0.470
51256SOL    HW255601   7.101   1.502   0.544
51257SOL     OW55602   2.212   3.669   4.287
51257SOL    HW155603   2.303   3.639   4.293
51257SOL    HW255604   2.213   3.756   4.327
51258SOL     OW55605  11.384   9.473   2.401
51258SOL    HW155606  11.427   9.500   2.482
51258SOL    HW255607  11.427   9.391   2.377
51259SOL     OW55608   4.976  13.525   2.502
51259SOL    HW155609   4.908  13.573   2.550
51259SOL    HW255610   4.971  13.561   2.413
51260SOL     OW55611  11.678   0.346   6.678
51260SOL    HW155612  11.688   0.264   6.629
51260SOL    HW255613  11.606   0.329   6.739
51261SOL     OW55614   4.821   6.477  14.670
51261SOL    HW155615   4.726   6.467  14.673
51261SOL    HW255616   4.850   6.453  14.758
51262SOL     OW55617   9.166   4.419  10.771
51262SOL    HW155618   9.152   4.477  10.846
51262SOL    HW255619   9.127   4.336  10.796
51263SOL     OW55620   5.040   8.848  13.963
51263SOL    HW155621   4.983   8.808  13.898
51263SOL    HW255622   4.984   8.908  14.012
51264SOL     OW55623   5.248   6.746   9.446
51264SOL    HW155624   5.233   6.719   9.537
51264SOL    HW255625   5.303   6.677   9.409
51265SOL     OW55626   3.357  11.651   3.556
51265SOL    HW155627   3.407  11.711   3.500
51265SOL    HW255628   3.380  11.677   3.646
51266SOL     OW55629   3.540   1.676   2.216
51266SOL    HW155630   3.483   1.753   2.220
51266SOL    HW255631   3.549   1.647   2.307
51267SOL     OW55632   2.948   0.561   7.586
51267SOL    HW155633   2.914   0.642   7.550
51267SOL    HW255634   2.903   0.551   7.670
51268SOL     OW55635  14.456   0.289   9.732
51268SOL    HW155636  14.493   0.252   9.652
51268SOL    HW255637  14.495   0.376   9.739
51269SOL     OW55638   5.990   2.860   1.322
51269SOL    HW155639   5.907   2.897   1.355
51269SOL    HW255640   5.964   2.778   1.280
51270SOL     OW55641  14.548   3.590   5.079
51270SOL    HW155642  14.522   3.674   5.040
51270SOL    HW255643  14.632   3.570   5.038
51271SOL     OW55644  13.880   8.520   0.643
51271SOL    HW155645  13.846   8.553   0.727
51271SOL    HW255646  13.962   8.477   0.666
51272SOL     OW55647  12.591   2.840   1.333
51272SOL    HW155648  12.587   2.918   1.278
51272SOL    HW255649  12.662   2.858   1.394
51273SOL     OW55650   9.985  11.485  11.712
51273SOL    HW155651   9.999  11.475  11.618
51273SOL    HW255652  10.052  11.547  11.741
51274SOL     OW55653   9.679   4.512   9.747
51274SOL    HW155654   9.676   4.416   9.749
51274SOL    HW255655   9.724   4.533   9.665
51275SOL     OW55656  13.880   8.987   9.691
51275SOL    HW155657  13.881   8.909   9.636
51275SOL    HW255658  13.801   9.034   9.664
51276SOL     OW55659   5.240  10.997  10.913
51276SOL    HW155660   5.284  11.060  10.856
51276SOL    HW255661   5.310  10.959  10.966
51277SOL     OW55662  11.136   0.647  10.648
51277SOL    HW155663  11.093   0.562  10.646
51277SOL    HW255664  11.185   0.651  10.567
51278SOL     OW55665   1.233   4.965   8.172
51278SOL    HW155666   1.310   4.914   8.197
51278SOL    HW255667   1.169   4.948   8.240
51279SOL     OW55668   6.111   8.440   5.823
51279SOL    HW155669   6.037   8.492   5.855
51279SOL    HW255670   6.090   8.350   5.850
51280SOL     OW55671   5.913   9.477   4.192
51280SOL    HW155672   5.852   9.548   4.172
51280SOL    HW255673   5.929   9.434   4.108
51281SOL     OW55674  14.667  14.268  14.792
51281SOL    HW155675  14.607  14.272  14.867
51281SOL    HW255676  14.752  14.296  14.828
51282SOL     OW55677  11.427  13.875  14.199
51282SOL    HW155678  11.493  13.859  14.132
51282SOL    HW255679  11.459  13.950  14.249
51283SOL     OW55680   2.252   4.157  13.122
51283SOL    HW155681   2.230   4.180  13.212
51283SOL    HW255682   2.341   4.122  13.126
51284SOL     OW55683   3.417  12.717   9.972
51284SOL    HW155684   3.324  12.735   9.986
51284SOL    HW255685   3.442  12.659  10.044
51285SOL     OW55686  11.033   6.307   6.226
51285SOL    HW155687  11.063   6.329   6.138
51285SOL    HW255688  10.938   6.295   6.217
51286SOL     OW55689   1.761   7.458   4.398
51286SOL    HW155690   1.814   7.380   4.382
51286SOL    HW255691   1.825   7.530   4.397
51287SOL     OW55692   0.241   5.296   3.597
51287SOL    HW155693   0.231   5.347   3.516
51287SOL    HW255694   0.289   5.354   3.656
51288SOL     OW55695   7.079   1.616   4.769
51288SOL    HW155696   7.111   1.538   4.814
51288SOL    HW255697   7.087   1.594   4.676
51289SOL     OW55698  14.248  13.323   9.359
51289SOL    HW155699  14.235  13.335   9.264
51289SOL    HW255700  14.191  13.388   9.399
51290SOL     OW55701   0.537   9.684   1.974
51290SOL    HW155702   0.560   9.753   2.036
51290SOL    HW255703   0.539   9.604   2.026
51291SOL     OW55704   4.585  10.703  12.359
51291SOL    HW155705   4.661  10.743  12.403
51291SOL    HW255706   4.610  10.700  12.267
51292SOL     OW55707  12.201  10.909  14.415
51292SOL    HW155708  12.203  10.968  14.490
51292SOL    HW255709  12.108  10.905  14.390
51293SOL     OW55710   2.004   8.943   4.938
51293SOL    HW155711   1.972   9.008   4.875
51293SOL    HW255712   2.075   8.986   4.984
51294SOL     OW55713   5.344   5.863   0.580
51294SOL    HW155714   5.282   5.901   0.519
51294SOL    HW255715   5.374   5.936   0.633
51295SOL     OW55716  12.883   7.069   9.403
51295SOL    HW155717  12.978   7.077   9.391
51295SOL    HW255718  12.874   7.003   9.472
51296SOL     OW55719   7.556   9.268  11.056
51296SOL    HW155720   7.554   9.316  11.139
51296SOL    HW255721   7.545   9.335  10.989
51297SOL     OW55722  13.128   0.858   7.914
51297SOL    HW155723  13.118   0.941   7.868
51297SOL    HW255724  13.217   0.830   7.894
51298SOL     OW55725  14.280   5.466   5.546
51298SOL    HW155726  14.223   5.482   5.621
51298SOL    HW255727  14.220   5.454   5.472
51299SOL     OW55728  11.702  13.602  13.348
51299SOL    HW155729  11.621  13.647  13.371
51299SOL    HW255730  11.749  13.664  13.291
51300SOL     OW55731  14.445  11.325   6.665
51300SOL    HW155732  14.369  11.279   6.631
51300SOL    HW255733  14.466  11.390   6.597
51301SOL     OW55734  11.896  13.409   6.835
51301SOL    HW155735  11.892  13.313   6.839
51301SOL    HW255736  11.975  13.426   6.783
51302SOL     OW55737   3.432  11.683   9.672
51302SOL    HW155738   3.348  11.639   9.656
51302SOL    HW255739   3.451  11.665   9.764
51303SOL     OW55740  12.451   9.299   0.714
51303SOL    HW155741  12.420   9.362   0.649
51303SOL    HW255742  12.528   9.341   0.752
51304SOL     OW55743   2.649  10.981   6.794
51304SOL    HW155744   2.685  11.008   6.710
51304SOL    HW255745   2.719  10.929   6.834
51305SOL     OW55746   9.222  14.857   6.375
51305SOL    HW155747   9.157  14.881   6.440
51305SOL    HW255748   9.247  14.768   6.398
51306SOL     OW55749   2.225   2.689  12.640
51306SOL    HW155750   2.130   2.699  12.639
51306SOL    HW255751   2.240   2.597  12.615
51307SOL     OW55752  11.617   1.406   6.483
51307SOL    HW155753  11.660   1.445   6.559
51307SOL    HW255754  11.596   1.317   6.510
51308SOL     OW55755  14.869   0.788  11.640
51308SOL    HW155756   0.072   0.824  11.668
51308SOL    HW255757  14.832   0.855  11.583
51309SOL     OW55758   3.964   6.655   5.450
51309SOL    HW155759   3.899   6.696   5.507
51309SOL    HW255760   3.996   6.727   5.394
51310SOL     OW55761   9.294  13.888   4.747
51310SOL    HW155762   9.348  13.857   4.675
51310SOL    HW255763   9.204  13.879   4.714
51311SOL     OW55764  14.314  12.717  13.775
51311SOL    HW155765  14.383  12.738  13.837
51311SOL    HW255766  14.233  12.719  13.826
51312SOL     OW55767  10.200   6.849   7.829
51312SOL    HW155768  10.115   6.804   7.828
51312SOL    HW255769  10.189   6.919   7.894
51313SOL     OW55770   2.039   6.641   3.509
51313SOL    HW155771   2.077   6.723   3.540
51313SOL    HW255772   2.057   6.640   3.415
51314SOL     OW55773   1.986  12.855   6.371
51314SOL    HW155774   2.062  12.797   6.381
51314SOL    HW255775   1.941  12.849   6.456
51315SOL     OW55776  11.646   5.120  10.651
51315SOL    HW155777  11.572   5.064  10.676
51315SOL    HW255778  11.656   5.180  10.725
51316SOL     OW55779  14.664   2.550   8.182
51316SOL    HW155780  14.644   2.462   8.213
51316SOL    HW255781  14.706   2.537   8.097
51317SOL     OW55782   4.739  12.789   7.846
51317SOL    HW155783   4.722  12.824   7.759
51317SOL    HW255784   4.727  12.695   7.838
51318SOL     OW55785  14.285   9.953   7.833
51318SOL    HW155786  14.380   9.940   7.834
51318SOL    HW255787  14.249   9.865   7.828
51319SOL     OW55788  10.552  10.119   8.761
51319SOL    HW155789  10.542  10.208   8.729
51319SOL    HW255790  10.644  10.112   8.787
51320SOL     OW55791   5.176   3.766   0.764
51320SOL    HW155792   5.091   3.769   0.809
51320SOL    HW255793   5.164   3.699   0.697
51321SOL     OW55794   1.024  12.963   6.972
51321SOL    HW155795   0.978  12.909   7.036
51321SOL    HW255796   1.116  12.936   6.980
51322SOL     OW55797  10.667   6.758  11.328
51322SOL    HW155798  10.622   6.837  11.358
51322SOL    HW255799  10.680   6.706  11.407
51323SOL     OW55800   8.536   8.345  12.598
51323SOL    HW155801   8.467   8.294  12.640
51323SOL    HW255802   8.575   8.396  12.669
51324SOL     OW55803   9.041   4.430   9.124
51324SOL    HW155804   8.979   4.400   9.058
51324SOL    HW255805   9.095   4.495   9.079
51325SOL     OW55806   4.267  12.346   8.292
51325SOL    HW155807   4.275  12.349   8.387
51325SOL    HW255808   4.291  12.256   8.269
51326SOL     OW55809   9.910  13.351  10.874
51326SOL    HW155810   9.901  13.446  10.862
51326SOL    HW255811   9.976  13.325  10.810
51327SOL     OW55812   7.932  11.885  12.333
51327SOL    HW155813   7.989  11.843  12.397
51327SOL    HW255814   7.852  11.904  12.382
51328SOL     OW55815  11.817   4.780   5.017
51328SOL    HW155816  11.900   4.789   4.969
51328SOL    HW255817  11.815   4.857   5.074
51329SOL     OW55818  11.049   6.548   7.570
51329SOL    HW155819  11.070   6.469   7.521
51329SOL    HW255820  11.063   6.620   7.508
51330SOL     OW55821   6.471   3.488   5.246
51330SOL    HW155822   6.481   3.400   5.209
51330SOL    HW255823   6.549   3.535   5.218
51331SOL     OW55824  10.397   0.950   1.666
51331SOL    HW155825  10.483   0.983   1.641
51331SOL    HW255826  10.347   1.028   1.689
51332SOL     OW55827   0.918   6.413   3.634
51332SOL    HW155828   0.883   6.385   3.719
51332SOL    HW255829   0.844   6.455   3.590
51333SOL     OW55830   8.118   8.521   1.728
51333SOL    HW155831   8.104   8.615   1.745
51333SOL    HW255832   8.040   8.479   1.763
51334SOL     OW55833   6.592  11.535  12.099
51334SOL    HW155834   6.546  11.454  12.121
51334SOL    HW255835   6.632  11.517  12.014
51335SOL     OW55836   1.489   8.407   8.926
51335SOL    HW155837   1.423   8.388   8.993
51335SOL    HW255838   1.572   8.410   8.974
51336SOL     OW55839   6.316   0.766   8.872
51336SOL    HW155840   6.225   0.777   8.844
51336SOL    HW255841   6.363   0.744   8.792
51337SOL     OW55842  10.232   6.007   9.449
51337SOL    HW155843  10.301   6.019   9.514
51337SOL    HW255844  10.264   6.053   9.371
51338SOL     OW55845   9.513   8.440   6.080
51338SOL    HW155846   9.607   8.443   6.095
51338SOL    HW255847   9.483   8.530   6.094
51339SOL     OW55848   7.612   1.314  13.352
51339SOL    HW155849   7.694   1.295  13.397
51339SOL    HW255850   7.553   1.243  13.379
51340SOL     OW55851  12.057  11.671  10.655
51340SOL    HW155852  12.120  11.605  10.684
51340SOL    HW255853  12.037  11.722  10.733
51341SOL     OW55854   9.769  11.242  13.216
51341SOL    HW155855   9.688  11.286  13.243
51341SOL    HW255856   9.747  11.149  13.217
51342SOL     OW55857   4.063   7.294   9.329
51342SOL    HW155858   3.973   7.267   9.349
51342SOL    HW255859   4.077   7.372   9.383
51343SOL     OW55860   9.258  13.868  14.261
51343SOL    HW155861   9.322  13.808  14.221
51343SOL    HW255862   9.293  13.955  14.243
51344SOL     OW55863   9.787   9.255   8.843
51344SOL    HW155864   9.702   9.224   8.873
51344SOL    HW255865   9.786   9.244   8.748
51345SOL     OW55866   5.562   7.209  13.175
51345SOL    HW155867   5.472   7.216  13.208
51345SOL    HW255868   5.576   7.290  13.127
51346SOL     OW55869   1.674  14.547   0.553
51346SOL    HW155870   1.584  14.553   0.523
51346SOL    HW255871   1.720  14.501   0.483
51347SOL     OW55872   2.511   8.447   0.370
51347SOL    HW155873   2.495   8.475   0.460
51347SOL    HW255874   2.426   8.456   0.326
51348SOL     OW55875  14.180   0.570  14.654
51348SOL    HW155876  14.265   0.614  14.662
51348SOL    HW255877  14.197   0.480  14.684
51349SOL     OW55878   3.582   3.456   4.936
51349SOL    HW155879   3.629   3.380   4.969
51349SOL    HW255880   3.501   3.459   4.986
51350SOL     OW55881  10.502   7.886   9.882
51350SOL    HW155882  10.412   7.857   9.899
51350SOL    HW255883  10.492   7.965   9.829
51351SOL     OW55884   2.009  11.867   5.130
51351SOL    HW155885   2.011  11.876   5.226
51351SOL    HW255886   1.916  11.869   5.108
51352SOL     OW55887  11.519   9.509  11.630
51352SOL    HW155888  11.484   9.585  11.676
51352SOL    HW255889  11.610   9.530  11.614
51353SOL     OW55890   2.232   1.803   8.208
51353SOL    HW155891   2.223   1.715   8.173
51353SOL    HW255892   2.147   1.823   8.246
51354SOL     OW55893   8.532   0.599   1.981
51354SOL    HW155894   8.448   0.601   1.936
51354SOL    HW255895   8.516   0.644   2.064
51355SOL     OW55896   0.417   1.374   7.445
51355SOL    HW155897   0.495   1.333   7.407
51355SOL    HW255898   0.349   1.359   7.380
51356SOL     OW55899  12.478   2.779   2.208
51356SOL    HW155900  12.515   2.829   2.136
51356SOL    HW255901  12.406   2.832   2.240
51357SOL     OW55902  11.033  13.017   8.297
51357SOL    HW155903  11.048  12.938   8.349
51357SOL    HW255904  11.053  13.089   8.357
51358SOL     OW55905  13.190   8.167  13.299
51358SOL    HW155906  13.181   8.073  13.285
51358SOL    HW255907  13.244   8.174  13.378
51359SOL     OW55908   8.813  13.567   3.002
51359SOL    HW155909   8.765  13.550   3.083
51359SOL    HW255910   8.747  13.603   2.942
51360SOL     OW55911   1.861   0.013  12.161
51360SOL    HW155912   1.780  14.843  12.161
51360SOL    HW255913   1.908  14.865  12.239
51361SOL     OW55914   4.436  12.563   7.218
51361SOL    HW155915   4.491  12.598   7.288
51361SOL    HW255916   4.446  12.468   7.225
51362SOL     OW55917   8.086   7.175   5.286
51362SOL    HW155918   8.161   7.117   5.274
51362SOL    HW255919   8.121   7.263   5.271
51363SOL     OW55920   4.906  13.637   0.959
51363SOL    HW155921   4.944  13.704   1.015
51363SOL    HW255922   4.971  13.566   0.959
51364SOL     OW55923   0.716   6.610   5.182
51364SOL    HW155924   0.630   6.600   5.224
51364SOL    HW255925   0.774   6.555   5.235
51365SOL     OW55926   9.751  12.024  12.546
51365SOL    HW155927   9.715  12.052  12.462
51365SOL    HW255928   9.694  11.952  12.573
51366SOL     OW55929   0.641   2.761   7.405
51366SOL    HW155930   0.559   2.712   7.406
51366SOL    HW255931   0.617   2.848   7.374
51367SOL     OW55932   3.595  10.765  12.117
51367SOL    HW155933   3.526  10.733  12.175
51367SOL    HW255934   3.644  10.828  12.170
51368SOL     OW55935   5.600   9.616  10.150
51368SOL    HW155936   5.642   9.579  10.228
51368SOL    HW255937   5.526   9.557  10.133
51369SOL     OW55938  12.902   9.317  13.430
51369SOL    HW155939  12.864   9.294  13.515
51369SOL    HW255940  12.965   9.386  13.450
51370SOL     OW55941   0.330   8.255  14.451
51370SOL    HW155942   0.351   8.345  14.474
51370SOL    HW255943   0.293   8.217  14.531
51371SOL     OW55944  14.608   4.761  14.811
51371SOL    HW155945  14.583   4.786   0.019
51371SOL    HW255946  14.676   4.824  14.787
51372SOL     OW55947  11.943  10.781   0.770
51372SOL    HW155948  11.997  10.728   0.830
51372SOL    HW255949  11.858  10.786   0.813
51373SOL     OW55950  12.166   5.258  14.244
51373SOL    HW155951  12.257   5.276  14.268
51373SOL    HW255952  12.127   5.222  14.324
51374SOL     OW55953  14.042   8.458  11.766
51374SOL    HW155954  14.108   8.511  11.808
51374SOL    HW255955  14.087   8.417  11.692
51375SOL     OW55956   6.696   2.094   5.955
51375SOL    HW155957   6.674   2.095   5.862
51375SOL    HW255958   6.627   2.145   5.997
51376SOL     OW55959   1.562   9.915   4.843
51376SOL    HW155960   1.622   9.869   4.902
51376SOL    HW255961   1.501   9.961   4.901
51377SOL     OW55962   3.917   5.205  14.185
51377SOL    HW155963   3.848   5.140  14.168
51377SOL    HW255964   3.870   5.287  14.195
51378SOL     OW55965   3.942   2.857   8.472
51378SOL    HW155966   3.929   2.926   8.408
51378SOL    HW255967   3.879   2.876   8.541
51379SOL     OW55968   6.856  12.571  11.545
51379SOL    HW155969   6.785  12.625  11.510
51379SOL    HW255970   6.904  12.628  11.605
51380SOL     OW55971   6.463   8.304   9.217
51380SOL    HW155972   6.377   8.328   9.250
51380SOL    HW255973   6.506   8.259   9.290
51381SOL     OW55974   7.137   0.200   7.327
51381SOL    HW155975   7.181   0.284   7.341
51381SOL    HW255976   7.046   0.216   7.351
51382SOL     OW55977   5.149   0.774   4.404
51382SOL    HW155978   5.085   0.806   4.468
51382SOL    HW255979   5.142   0.678   4.409
51383SOL     OW55980   5.795   2.875  14.466
51383SOL    HW155981   5.807   2.781  14.451
51383SOL    HW255982   5.876   2.903  14.510
51384SOL     OW55983   0.766  11.227   4.025
51384SOL    HW155984   0.763  11.322   4.011
51384SOL    HW255985   0.781  11.218   4.119
51385SOL     OW55986   4.855   4.110   1.217
51385SOL    HW155987   4.807   4.036   1.255
51385SOL    HW255988   4.789   4.160   1.169
51386SOL     OW55989   9.257   4.867   7.362
51386SOL    HW155990   9.277   4.915   7.443
51386SOL    HW255991   9.335   4.813   7.347
51387SOL     OW55992  11.344  11.048   9.978
51387SOL    HW155993  11.281  11.034   9.907
51387SOL    HW255994  11.384  11.132   9.958
51388SOL     OW55995   2.667   3.725  10.854
51388SOL    HW155996   2.726   3.657  10.884
51388SOL    HW255997   2.719   3.805  10.857
51389SOL     OW55998  13.091   4.261   5.279
51389SOL    HW155999  13.079   4.169   5.305
51389SOL    HW256000  13.048   4.267   5.194
51390SOL     OW56001  13.392   8.860   2.398
51390SOL    HW156002  13.330   8.890   2.464
51390SOL    HW256003  13.476   8.896   2.425
51391SOL     OW56004   9.263   3.611  11.511
51391SOL    HW156005   9.178   3.624  11.552
51391SOL    HW256006   9.251   3.535  11.453
51392SOL     OW56007  13.213   7.726   4.261
51392SOL    HW156008  13.133   7.777   4.277
51392SOL    HW256009  13.184   7.653   4.207
51393SOL     OW56010   8.623  13.598   2.766
51393SOL    HW156011   8.539  13.582   2.722
51393SOL    HW256012   8.673  13.517   2.750
51394SOL     OW56013  13.267   3.767  13.805
51394SOL    HW156014  13.213   3.718  13.867
51394SOL    HW256015  13.218   3.764  13.723
51395SOL     OW56016   1.924   0.520   5.037
51395SOL    HW156017   1.888   0.550   5.121
51395SOL    HW256018   1.915   0.425   5.040
51396SOL     OW56019   0.541   4.783   7.826
51396SOL    HW156020   0.584   4.705   7.791
51396SOL    HW256021   0.499   4.753   7.906
51397SOL     OW56022  10.967   7.170  11.749
51397SOL    HW156023  10.967   7.090  11.802
51397SOL    HW256024  11.056   7.204  11.758
51398SOL     OW56025   7.110   6.025   5.546
51398SOL    HW156026   7.117   6.102   5.490
51398SOL    HW256027   7.016   6.011   5.556
51399SOL     OW56028   4.440  12.081   5.823
51399SOL    HW156029   4.435  12.136   5.901
51399SOL    HW256030   4.451  12.143   5.751
51400SOL     OW56031   2.528   7.624   9.107
51400SOL    HW156032   2.611   7.576   9.113
51400SOL    HW256033   2.482   7.583   9.034
51401SOL     OW56034   5.010   2.386   7.778
51401SOL    HW156035   5.086   2.355   7.827
51401SOL    HW256036   5.003   2.479   7.800
51402SOL     OW56037  12.929   7.128   0.085
51402SOL    HW156038  12.964   7.049   0.045
51402SOL    HW256039  12.999   7.160   0.142
51403SOL     OW56040   8.462  13.425   0.186
51403SOL    HW156041   8.514  13.354   0.223
51403SOL    HW256042   8.511  13.504   0.207
51404SOL     OW56043   6.521   3.385   6.843
51404SOL    HW156044   6.607   3.349   6.862
51404SOL    HW256045   6.538   3.478   6.826
51405SOL     OW56046  11.531   2.363   5.602
51405SOL    HW156047  11.527   2.275   5.637
51405SOL    HW256048  11.468   2.363   5.529
51406SOL     OW56049   5.217   2.445   1.699
51406SOL    HW156050   5.258   2.410   1.777
51406SOL    HW256051   5.149   2.382   1.676
51407SOL     OW56052   6.640   6.298   0.686
51407SOL    HW156053   6.581   6.320   0.758
51407SOL    HW256054   6.725   6.331   0.715
51408SOL     OW56055   4.729   9.130  13.862
51408SOL    HW156056   4.704   9.102  13.774
51408SOL    HW256057   4.730   9.226  13.857
51409SOL     OW56058   0.476  12.676   4.921
51409SOL    HW156059   0.432  12.730   4.987
51409SOL    HW256060   0.535  12.736   4.876
51410SOL     OW56061   1.718   0.846   1.036
51410SOL    HW156062   1.740   0.775   0.976
51410SOL    HW256063   1.622   0.846   1.039
51411SOL     OW56064   2.070   5.618   7.791
51411SOL    HW156065   2.005   5.553   7.821
51411SOL    HW256066   2.151   5.568   7.782
51412SOL     OW56067   4.610   8.819   9.876
51412SOL    HW156068   4.613   8.756   9.804
51412SOL    HW256069   4.536   8.876   9.856
51413SOL     OW56070   3.560   3.860   9.737
51413SOL    HW156071   3.589   3.896   9.821
51413SOL    HW256072   3.476   3.903   9.720
51414SOL     OW56073  12.760   1.166  11.842
51414SOL    HW156074  12.800   1.247  11.874
51414SOL    HW256075  12.770   1.169  11.747
51415SOL     OW56076   2.314   2.662   0.972
51415SOL    HW156077   2.265   2.694   1.048
51415SOL    HW256078   2.267   2.583   0.946
51416SOL     OW56079  10.535   2.455   1.023
51416SOL    HW156080  10.505   2.476   0.935
51416SOL    HW256081  10.522   2.536   1.073
51417SOL     OW56082   8.039  11.180   9.557
51417SOL    HW156083   8.057  11.266   9.596
51417SOL    HW256084   8.109  11.124   9.591
51418SOL     OW56085   1.474  11.576   6.799
51418SOL    HW156086   1.378  11.569   6.801
51418SOL    HW256087   1.495  11.585   6.706
51419SOL     OW56088   6.472  14.173   3.374
51419SOL    HW156089   6.564  14.200   3.378
51419SOL    HW256090   6.475  14.080   3.351
51420SOL     OW56091   1.620   3.884   7.714
51420SOL    HW156092   1.542   3.918   7.671
51420SOL    HW256093   1.645   3.952   7.776
51421SOL     OW56094   3.309  11.312  11.066
51421SOL    HW156095   3.388  11.259  11.060
51421SOL    HW256096   3.287  11.312  11.159
51422SOL     OW56097  14.482  12.967   3.553
51422SOL    HW156098  14.559  13.010   3.516
51422SOL    HW256099  14.429  12.942   3.477
51423SOL     OW56100   8.444   3.105  10.931
51423SOL    HW156101   8.504   3.063  10.869
51423SOL    HW256102   8.361   3.111  10.884
51424SOL     OW56103   1.086   7.140  10.025
51424SOL    HW156104   1.136   7.060  10.009
51424SOL    HW256105   1.027   7.146   9.950
51425SOL     OW56106   3.588   6.055   7.622
51425SOL    HW156107   3.566   6.094   7.706
51425SOL    HW256108   3.523   5.986   7.609
51426SOL     OW56109   4.269   6.780   5.965
51426SOL    HW156110   4.319   6.861   5.978
51426SOL    HW256111   4.235   6.788   5.876
51427SOL     OW56112   2.311   2.355  14.005
51427SOL    HW156113   2.396   2.400  14.000
51427SOL    HW256114   2.267   2.397  14.079
51428SOL     OW56115   7.126   0.369   4.611
51428SOL    HW156116   7.052   0.390   4.668
51428SOL    HW256117   7.102   0.406   4.525
51429SOL     OW56118  13.468  11.817   8.591
51429SOL    HW156119  13.484  11.772   8.674
51429SOL    HW256120  13.543  11.876   8.581
51430SOL     OW56121  12.416   4.512   6.566
51430SOL    HW156122  12.419   4.546   6.476
51430SOL    HW256123  12.362   4.575   6.614
51431SOL     OW56124  12.327   2.897   6.318
51431SOL    HW156125  12.296   2.862   6.234
51431SOL    HW256126  12.401   2.841   6.342
51432SOL     OW56127  12.412   9.600  14.635
51432SOL    HW156128  12.323   9.573  14.658
51432SOL    HW256129  12.418   9.587  14.541
51433SOL     OW56130   6.297   5.499  13.106
51433SOL    HW156131   6.383   5.510  13.065
51433SOL    HW256132   6.309   5.532  13.195
51434SOL     OW56133   5.652  10.920   1.045
51434SOL    HW156134   5.718  10.899   1.111
51434SOL    HW256135   5.571  10.884   1.080
51435SOL     OW56136  13.147   8.951   8.207
51435SOL    HW156137  13.057   8.936   8.178
51435SOL    HW256138  13.197   8.879   8.170
51436SOL     OW56139  13.882   5.589   5.401
51436SOL    HW156140  13.897   5.677   5.367
51436SOL    HW256141  13.787   5.578   5.399
51437SOL     OW56142  12.801   1.363   4.064
51437SOL    HW156143  12.749   1.390   3.988
51437SOL    HW256144  12.824   1.445   4.108
51438SOL     OW56145   0.198   2.118   2.784
51438SOL    HW156146   0.280   2.166   2.770
51438SOL    HW256147   0.200   2.048   2.719
51439SOL     OW56148  13.705  10.239  13.197
51439SOL    HW156149  13.707  10.231  13.102
51439SOL    HW256150  13.643  10.172  13.225
51440SOL     OW56151   2.992   2.315   4.016
51440SOL    HW156152   3.038   2.390   4.054
51440SOL    HW256153   3.045   2.290   3.940
51441SOL     OW56154  13.608  12.201   8.392
51441SOL    HW156155  13.609  12.153   8.309
51441SOL    HW256156  13.522  12.244   8.393
51442SOL     OW56157   0.737  11.991   8.015
51442SOL    HW156158   0.734  12.077   7.974
51442SOL    HW256159   0.819  11.951   7.983
51443SOL     OW56160   4.426   3.242   1.711
51443SOL    HW156161   4.343   3.258   1.665
51443SOL    HW256162   4.412   3.278   1.798
51444SOL     OW56163   6.916   4.268   9.984
51444SOL    HW156164   6.855   4.196   9.970
51444SOL    HW256165   6.898   4.330   9.913
51445SOL     OW56166  10.569  10.568  12.345
51445SOL    HW156167  10.596  10.581  12.254
51445SOL    HW256168  10.550  10.656  12.377
51446SOL     OW56169   5.451  13.324   4.334
51446SOL    HW156170   5.433  13.377   4.412
51446SOL    HW256171   5.419  13.237   4.355
51447SOL     OW56172  10.419  10.413  10.420
51447SOL    HW156173  10.405  10.483  10.484
51447SOL    HW256174  10.498  10.439  10.372
51448SOL     OW56175  13.893  14.522  11.626
51448SOL    HW156176  13.983  14.556  11.626
51448SOL    HW256177  13.894  14.449  11.687
51449SOL     OW56178   3.148   1.403   5.773
51449SOL    HW156179   3.190   1.321   5.746
51449SOL    HW256180   3.207   1.471   5.743
51450SOL     OW56181   9.192  12.068  12.721
51450SOL    HW156182   9.279  12.067  12.681
51450SOL    HW256183   9.169  11.975  12.730
51451SOL     OW56184   4.515   9.619   3.849
51451SOL    HW156185   4.586   9.648   3.905
51451SOL    HW256186   4.474   9.700   3.817
51452SOL     OW56187   2.487  11.101  10.880
51452SOL    HW156188   2.464  11.060  10.797
51452SOL    HW256189   2.475  11.032  10.945
51453SOL     OW56190   9.487   9.311  11.153
51453SOL    HW156191   9.475   9.345  11.065
51453SOL    HW256192   9.532   9.380  11.201
51454SOL     OW56193   9.546  10.003  10.131
51454SOL    HW156194   9.459   9.963  10.137
51454SOL    HW256195   9.534  10.091  10.167
51455SOL     OW56196  13.962   2.527  10.647
51455SOL    HW156197  13.978   2.505  10.739
51455SOL    HW256198  14.035   2.486  10.600
51456SOL     OW56199   8.148  11.995   4.422
51456SOL    HW156200   8.054  11.998   4.438
51456SOL    HW256201   8.157  11.945   4.341
51457SOL     OW56202   5.737   5.900  13.019
51457SOL    HW156203   5.693   5.816  13.010
51457SOL    HW256204   5.806   5.898  12.953
51458SOL     OW56205  12.610   3.599   0.812
51458SOL    HW156206  12.584   3.510   0.835
51458SOL    HW256207  12.533   3.635   0.767
51459SOL     OW56208   6.723  14.557   4.291
51459SOL    HW156209   6.812  14.592   4.287
51459SOL    HW256210   6.727  14.488   4.357
51460SOL     OW56211  14.073   6.841   0.641
51460SOL    HW156212  14.046   6.818   0.730
51460SOL    HW256213  14.154   6.794   0.628
51461SOL     OW56214  13.683   9.536  10.249
51461SOL    HW156215  13.633   9.473  10.301
51461SOL    HW256216  13.620   9.570  10.186
51462SOL     OW56217  11.140  12.803   6.963
51462SOL    HW156218  11.208  12.851   6.916
51462SOL    HW256219  11.135  12.718   6.918
51463SOL     OW56220   4.431   8.663   3.722
51463SOL    HW156221   4.410   8.679   3.814
51463SOL    HW256222   4.430   8.750   3.682
51464SOL     OW56223  11.369   0.431   8.264
51464SOL    HW156224  11.310   0.357   8.272
51464SOL    HW256225  11.337   0.495   8.327
51465SOL     OW56226  10.605   0.775  13.135
51465SOL    HW156227  10.685   0.819  13.164
51465SOL    HW256228  10.610   0.776  13.040
51466SOL     OW56229   6.624  14.723   9.136
51466SOL    HW156230   6.697  14.729   9.075
51466SOL    HW256231   6.641  14.644   9.187
51467SOL     OW56232   2.460  10.674   1.025
51467SOL    HW156233   2.504  10.680   0.940
51467SOL    HW256234   2.510  10.608   1.073
51468SOL     OW56235   0.361   7.763   2.936
51468SOL    HW156236   0.341   7.833   2.998
51468SOL    HW256237   0.325   7.684   2.977
51469SOL     OW56238   4.244   0.534  14.165
51469SOL    HW156239   4.310   0.546  14.233
51469SOL    HW256240   4.219   0.442  14.172
51470SOL     OW56241  10.956   2.189   0.032
51470SOL    HW156242  10.980   2.152   0.118
51470SOL    HW256243  10.997   2.130  14.851
51471SOL     OW56244   7.795   4.786   4.941
51471SOL    HW156245   7.864   4.723   4.961
51471SOL    HW256246   7.840   4.854   4.891
51472SOL     OW56247   9.148   6.431  10.618
51472SOL    HW156248   9.162   6.470  10.704
51472SOL    HW256249   9.177   6.498  10.556
51473SOL     OW56250  13.016   3.046   8.197
51473SOL    HW156251  13.068   2.992   8.256
51473SOL    HW256252  13.003   3.128   8.244
51474SOL     OW56253  11.839  13.697   7.003
51474SOL    HW156254  11.854  13.776   6.950
51474SOL    HW256255  11.782  13.642   6.949
51475SOL     OW56256   2.599   7.170  14.770
51475SOL    HW156257   2.569   7.259  14.792
51475SOL    HW256258   2.632   7.135  14.852
51476SOL     OW56259  11.796  10.063   0.001
51476SOL    HW156260  11.754  10.115  14.815
51476SOL    HW256261  11.835   9.989  14.836
51477SOL     OW56262   2.736  11.259   7.049
51477SOL    HW156263   2.795  11.184   7.051
51477SOL    HW256264   2.697  11.261   7.136
51478SOL     OW56265   2.878   5.636   4.570
51478SOL    HW156266   2.926   5.563   4.533
51478SOL    HW256267   2.804   5.596   4.616
51479SOL     OW56268   8.311  11.354   1.392
51479SOL    HW156269   8.226  11.339   1.351
51479SOL    HW256270   8.361  11.275   1.373
51480SOL     OW56271   4.744   9.816  13.885
51480SOL    HW156272   4.794   9.747  13.928
51480SOL    HW256273   4.733   9.785  13.795
51481SOL     OW56274   7.658  11.386  12.360
51481SOL    HW156275   7.627  11.318  12.420
51481SOL    HW256276   7.753  11.385  12.370
51482SOL     OW56277  11.485   1.777   6.321
51482SOL    HW156278  11.558   1.760   6.380
51482SOL    HW256279  11.481   1.700   6.265
51483SOL     OW56280   1.079  13.502  11.749
51483SOL    HW156281   1.067  13.421  11.798
51483SOL    HW256282   1.071  13.572  11.814
51484SOL     OW56283   0.425   5.972   2.142
51484SOL    HW156284   0.510   5.969   2.186
51484SOL    HW256285   0.408   5.881   2.115
51485SOL     OW56286   7.000   4.285  11.582
51485SOL    HW156287   6.984   4.351  11.515
51485SOL    HW256288   7.013   4.203  11.533
51486SOL     OW56289  10.123   6.528   1.012
51486SOL    HW156290  10.053   6.550   1.073
51486SOL    HW256291  10.179   6.468   1.061
51487SOL     OW56292   2.148   0.320  12.577
51487SOL    HW156293   2.129   0.301  12.485
51487SOL    HW256294   2.170   0.236  12.615
51488SOL     OW56295   8.016   3.428  13.791
51488SOL    HW156296   8.012   3.355  13.852
51488SOL    HW256297   8.110   3.446  13.782
51489SOL     OW56298   0.128  12.342   0.024
51489SOL    HW156299   0.113  12.261   0.072
51489SOL    HW256300   0.187  12.393   0.080
51490SOL     OW56301   7.140  13.966   9.939
51490SOL    HW156302   7.196  13.918   9.999
51490SOL    HW256303   7.051  13.934   9.958
51491SOL     OW56304  14.026   2.110   3.034
51491SOL    HW156305  14.045   2.199   3.004
51491SOL    HW256306  14.053   2.109   3.126
51492SOL     OW56307   6.358   8.239   3.723
51492SOL    HW156308   6.419   8.297   3.768
51492SOL    HW256309   6.380   8.151   3.754
51493SOL     OW56310   9.013   8.249  14.616
51493SOL    HW156311   8.943   8.219  14.674
51493SOL    HW256312   9.007   8.191  14.539
51494SOL     OW56313   3.746   4.175   6.784
51494SOL    HW156314   3.784   4.108   6.840
51494SOL    HW256315   3.656   4.145   6.768
51495SOL     OW56316   9.190   6.130   5.973
51495SOL    HW156317   9.212   6.172   6.056
51495SOL    HW256318   9.096   6.146   5.962
51496SOL     OW56319   1.405   3.430  13.548
51496SOL    HW156320   1.442   3.357  13.597
51496SOL    HW256321   1.311   3.425  13.564
51497SOL     OW56322  11.718   4.173   1.462
51497SOL    HW156323  11.651   4.121   1.507
51497SOL    HW256324  11.669   4.227   1.400
51498SOL     OW56325   6.657   3.499   5.474
51498SOL    HW156326   6.567   3.477   5.451
51498SOL    HW256327   6.710   3.431   5.433
51499SOL     OW56328   2.590   0.498   3.049
51499SOL    HW156329   2.570   0.587   3.080
51499SOL    HW256330   2.670   0.508   2.997
51500SOL     OW56331   0.302   3.606  14.087
51500SOL    HW156332   0.279   3.536  14.149
51500SOL    HW256333   0.361   3.663  14.136
51501SOL     OW56334  14.043   9.233   9.041
51501SOL    HW156335  13.974   9.202   8.983
51501SOL    HW256336  14.010   9.215   9.129
51502SOL     OW56337  11.093  14.040  13.786
51502SOL    HW156338  11.069  14.083  13.704
51502SOL    HW256339  11.038  14.082  13.852
51503SOL     OW56340  14.561   7.742  14.581
51503SOL    HW156341  14.535   7.827  14.615
51503SOL    HW256342  14.623   7.762  14.511
51504SOL     OW56343  14.064   5.011   9.699
51504SOL    HW156344  14.053   5.005   9.794
51504SOL    HW256345  13.975   5.006   9.664
51505SOL     OW56346   9.573   8.066  12.784
51505SOL    HW156347   9.626   8.032  12.856
51505SOL    HW256348   9.549   7.988  12.733
51506SOL     OW56349   5.121  13.977   3.748
51506SOL    HW156350   5.109  13.940   3.836
51506SOL    HW256351   5.032  13.983   3.712
51507SOL     OW56352   9.762   8.914  14.686
51507SOL    HW156353   9.755   8.821  14.709
51507SOL    HW256354   9.683   8.954  14.724
51508SOL     OW56355   0.120   6.294   7.848
51508SOL    HW156356   0.109   6.389   7.849
51508SOL    HW256357   0.044   6.261   7.800
51509SOL     OW56358   7.589   5.335   5.608
51509SOL    HW156359   7.685   5.326   5.607
51509SOL    HW256360   7.566   5.337   5.701
51510SOL     OW56361  13.041  13.713   8.220
51510SOL    HW156362  13.125  13.693   8.178
51510SOL    HW256363  12.976  13.693   8.153
51511SOL     OW56364  12.828   5.790   2.883
51511SOL    HW156365  12.887   5.865   2.890
51511SOL    HW256366  12.741   5.829   2.870
51512SOL     OW56367  13.373   1.202   3.654
51512SOL    HW156368  13.334   1.287   3.633
51512SOL    HW256369  13.394   1.163   3.569
51513SOL     OW56370   1.277   9.383  13.938
51513SOL    HW156371   1.208   9.392  13.873
51513SOL    HW256372   1.328   9.307  13.909
51514SOL     OW56373   7.512  10.291  12.600
51514SOL    HW156374   7.536  10.329  12.684
51514SOL    HW256375   7.548  10.352  12.535
51515SOL     OW56376  12.608   2.077  13.861
51515SOL    HW156377  12.593   2.106  13.771
51515SOL    HW256378  12.652   1.993  13.852
51516SOL     OW56379   3.445  13.687   9.131
51516SOL    HW156380   3.408  13.598   9.133
51516SOL    HW256381   3.510  13.684   9.061
51517SOL     OW56382   4.091   8.852   1.608
51517SOL    HW156383   4.041   8.829   1.530
51517SOL    HW256384   4.093   8.771   1.659
51518SOL     OW56385   1.689   0.467  12.219
51518SOL    HW156386   1.754   0.408  12.258
51518SOL    HW256387   1.631   0.409  12.169
51519SOL     OW56388  14.459  14.767   8.046
51519SOL    HW156389  14.470  14.685   7.998
51519SOL    HW256390  14.548  14.799   8.059
51520SOL     OW56391  12.655   5.190   9.606
51520SOL    HW156392  12.741   5.168   9.640
51520SOL    HW256393  12.672   5.255   9.537
51521SOL     OW56394   2.469  12.528   6.305
51521SOL    HW156395   2.547  12.524   6.360
51521SOL    HW256396   2.398  12.496   6.362
51522SOL     OW56397   1.084   6.222  12.390
51522SOL    HW156398   1.010   6.278  12.366
51522SOL    HW256399   1.128   6.270  12.461
51523SOL     OW56400   7.262   2.872   3.531
51523SOL    HW156401   7.239   2.896   3.441
51523SOL    HW256402   7.357   2.869   3.532
51524SOL     OW56403   7.504   7.822  12.912
51524SOL    HW156404   7.525   7.795  12.823
51524SOL    HW256405   7.474   7.913  12.904
51525SOL     OW56406  10.986   3.528  11.548
51525SOL    HW156407  11.080   3.544  11.544
51525SOL    HW256408  10.976   3.460  11.614
51526SOL     OW56409   0.437   0.448   3.836
51526SOL    HW156410   0.383   0.518   3.798
51526SOL    HW256411   0.519   0.452   3.787
51527SOL     OW56412  14.557   9.571   3.839
51527SOL    HW156413  14.502   9.605   3.768
51527SOL    HW256414  14.618   9.643   3.858
51528SOL     OW56415   3.031   4.740   7.524
51528SOL    HW156416   3.016   4.829   7.495
51528SOL    HW256417   3.035   4.745   7.620
51529SOL     OW56418  14.628   6.332   0.124
51529SOL    HW156419  14.662   6.253   0.083
51529SOL    HW256420  14.657   6.403   0.067
51530SOL     OW56421   4.125  10.210   4.148
51530SOL    HW156422   4.196  10.253   4.196
51530SOL    HW256423   4.157  10.122   4.130
51531SOL     OW56424   1.123   5.692   6.043
51531SOL    HW156425   1.043   5.680   6.094
51531SOL    HW256426   1.099   5.754   5.974
51532SOL     OW56427  12.891   4.457  12.908
51532SOL    HW156428  12.888   4.362  12.918
51532SOL    HW256429  12.976   4.474  12.868
51533SOL     OW56430  11.647   7.530   1.169
51533SOL    HW156431  11.632   7.589   1.096
51533SOL    HW256432  11.587   7.457   1.154
51534SOL     OW56433  12.323   0.595   7.626
51534SOL    HW156434  12.344   0.688   7.621
51534SOL    HW256435  12.238   0.586   7.583
51535SOL     OW56436  10.518   1.495   0.192
51535SOL    HW156437  10.511   1.422   0.131
51535SOL    HW256438  10.604   1.532   0.175
51536SOL     OW56439   9.664   7.918  14.086
51536SOL    HW156440   9.628   7.871  14.011
51536SOL    HW256441   9.752   7.945  14.057
51537SOL     OW56442   3.491   9.841  10.354
51537SOL    HW156443   3.499   9.859  10.260
51537SOL    HW256444   3.397   9.829  10.368
51538SOL     OW56445   0.889   6.721   8.414
51538SOL    HW156446   0.931   6.640   8.444
51538SOL    HW256447   0.838   6.695   8.337
51539SOL     OW56448   0.524   0.974   5.033
51539SOL    HW156449   0.524   0.969   5.129
51539SOL    HW256450   0.485   0.891   5.005
51540SOL     OW56451  13.957   0.762   6.996
51540SOL    HW156452  13.888   0.723   7.050
51540SOL    HW256453  13.973   0.697   6.927
51541SOL     OW56454   9.329  12.570   4.600
51541SOL    HW156455   9.260  12.628   4.571
51541SOL    HW256456   9.403  12.628   4.619
51542SOL     OW56457   8.803   3.180   9.959
51542SOL    HW156458   8.764   3.185   9.871
51542SOL    HW256459   8.871   3.247   9.960
51543SOL     OW56460   5.623   0.196   2.963
51543SOL    HW156461   5.652   0.108   2.942
51543SOL    HW256462   5.530   0.187   2.985
51544SOL     OW56463   0.605  13.304   9.188
51544SOL    HW156464   0.621  13.343   9.102
51544SOL    HW256465   0.570  13.376   9.240
51545SOL     OW56466   8.645   8.345  12.915
51545SOL    HW156467   8.657   8.416  12.852
51545SOL    HW256468   8.728   8.296  12.911
51546SOL     OW56469  11.146   5.323  10.204
51546SOL    HW156470  11.156   5.233  10.173
51546SOL    HW256471  11.093   5.315  10.283
51547SOL     OW56472   0.483  10.326   0.716
51547SOL    HW156473   0.543  10.365   0.653
51547SOL    HW256474   0.424  10.397   0.740
51548SOL     OW56475   9.432  11.170  10.366
51548SOL    HW156476   9.390  11.256  10.372
51548SOL    HW256477   9.410  11.139  10.278
51549SOL     OW56478   4.332  12.843   7.921
51549SOL    HW156479   4.268  12.826   7.990
51549SOL    HW256480   4.285  12.826   7.840
51550SOL     OW56481  13.588  13.281   5.086
51550SOL    HW156482  13.494  13.285   5.071
51550SOL    HW256483  13.602  13.197   5.128
51551SOL     OW56484  12.355   7.624  11.015
51551SOL    HW156485  12.366   7.594  11.106
51551SOL    HW256486  12.413   7.567  10.964
51552SOL     OW56487   2.268  14.377  13.986
51552SOL    HW156488   2.172  14.370  13.994
51552SOL    HW256489   2.290  14.318  13.914
51553SOL     OW56490  11.773   4.852   0.440
51553SOL    HW156491  11.718   4.831   0.365
51553SOL    HW256492  11.714   4.843   0.516
51554SOL     OW56493  14.249  10.049  12.722
51554SOL    HW156494  14.208  10.005  12.647
51554SOL    HW256495  14.334  10.078  12.688
51555SOL     OW56496  10.490   8.443   5.660
51555SOL    HW156497  10.457   8.374   5.718
51555SOL    HW256498  10.503   8.518   5.718
51556SOL     OW56499   9.066  11.819  14.498
51556SOL    HW156500   9.089  11.876  14.571
51556SOL    HW256501   8.970  11.817  14.498
51557SOL     OW56502   1.476   1.149  10.835
51557SOL    HW156503   1.559   1.101  10.829
51557SOL    HW256504   1.410   1.080  10.843
51558SOL     OW56505   3.088   5.803   0.845
51558SOL    HW156506   3.011   5.856   0.867
51558SOL    HW256507   3.110   5.759   0.928
51559SOL     OW56508  13.232   6.652   3.630
51559SOL    HW156509  13.255   6.687   3.544
51559SOL    HW256510  13.137   6.658   3.634
51560SOL     OW56511  12.873   3.582   7.090
51560SOL    HW156512  12.903   3.579   7.181
51560SOL    HW256513  12.904   3.500   7.052
51561SOL     OW56514  13.225   9.408  11.002
51561SOL    HW156515  13.188   9.481  10.952
51561SOL    HW256516  13.278   9.449  11.070
51562SOL     OW56517   3.159  11.376   7.310
51562SOL    HW156518   3.072  11.337   7.324
51562SOL    HW256519   3.162  11.395   7.217
51563SOL     OW56520  10.634  11.012  12.904
51563SOL    HW156521  10.730  11.006  12.910
51563SOL    HW256522  10.604  11.006  12.995
51564SOL     OW56523  11.682  14.011  10.074
51564SOL    HW156524  11.593  14.044  10.081
51564SOL    HW256525  11.675  13.929  10.025
51565SOL     OW56526   0.074   8.286   7.673
51565SOL    HW156527   0.110   8.217   7.618
51565SOL    HW256528   0.015   8.241   7.733
51566SOL     OW56529   8.224   0.104   1.966
51566SOL    HW156530   8.255   0.016   1.986
51566SOL    HW256531   8.261   0.125   1.880
51567SOL     OW56532   0.627  11.079   7.385
51567SOL    HW156533   0.631  11.035   7.300
51567SOL    HW256534   0.539  11.117   7.388
51568SOL     OW56535   2.313   5.615  11.321
51568SOL    HW156536   2.252   5.576  11.384
51568SOL    HW256537   2.337   5.543  11.264
51569SOL     OW56538   2.838   6.236   3.842
51569SOL    HW156539   2.888   6.175   3.788
51569SOL    HW256540   2.899   6.263   3.911
51570SOL     OW56541  13.988   0.770  11.926
51570SOL    HW156542  14.075   0.758  11.888
51570SOL    HW256543  13.971   0.688  11.973
51571SOL     OW56544  12.457   6.261   1.812
51571SOL    HW156545  12.537   6.260   1.864
51571SOL    HW256546  12.388   6.283   1.875
51572SOL     OW56547   2.920  10.891   2.503
51572SOL    HW156548   2.854  10.959   2.516
51572SOL    HW256549   2.999  10.925   2.545
51573SOL     OW56550   9.487   1.198  13.348
51573SOL    HW156551   9.476   1.110  13.384
51573SOL    HW256552   9.582   1.212  13.348
51574SOL     OW56553  10.618   5.824   9.830
51574SOL    HW156554  10.523   5.811   9.836
51574SOL    HW256555  10.634   5.837   9.737
51575SOL     OW56556  11.820  12.328  13.860
51575SOL    HW156557  11.845  12.253  13.807
51575SOL    HW256558  11.817  12.295  13.950
51576SOL     OW56559   6.357   6.533   8.979
51576SOL    HW156560   6.355   6.440   8.955
51576SOL    HW256561   6.313   6.578   8.907
51577SOL     OW56562  11.364   0.265   9.812
51577SOL    HW156563  11.396   0.177   9.834
51577SOL    HW256564  11.425   0.324   9.857
51578SOL     OW56565  11.321   0.886  11.691
51578SOL    HW156566  11.312   0.965  11.745
51578SOL    HW256567  11.273   0.819  11.739
51579SOL     OW56568   6.459  11.609  11.832
51579SOL    HW156569   6.524  11.546  11.862
51579SOL    HW256570   6.462  11.604  11.736
51580SOL     OW56571  12.246   6.561   4.806
51580SOL    HW156572  12.276   6.603   4.726
51580SOL    HW256573  12.304   6.486   4.817
51581SOL     OW56574   7.075   3.238  12.587
51581SOL    HW156575   7.139   3.304  12.614
51581SOL    HW256576   6.992   3.285  12.583
51582SOL     OW56577   1.529   4.201   6.340
51582SOL    HW156578   1.441   4.220   6.373
51582SOL    HW256579   1.585   4.211   6.417
51583SOL     OW56580   6.686   6.144   0.002
51583SOL    HW156581   6.617   6.096  14.838
51583SOL    HW256582   6.698   6.224  14.833
51584SOL     OW56583   0.412  11.992  13.738
51584SOL    HW156584   0.435  11.946  13.657
51584SOL    HW256585   0.484  12.052  13.753
51585SOL     OW56586   2.660   8.319  10.754
51585SOL    HW156587   2.663   8.414  10.747
51585SOL    HW256588   2.635   8.289  10.666
51586SOL     OW56589   7.604   3.059   9.080
51586SOL    HW156590   7.600   3.113   9.158
51586SOL    HW256591   7.619   3.121   9.008
51587SOL     OW56592   3.917   4.670  12.430
51587SOL    HW156593   3.992   4.683  12.487
51587SOL    HW256594   3.856   4.739  12.454
51588SOL     OW56595  13.934   7.868   7.901
51588SOL    HW156596  13.967   7.955   7.925
51588SOL    HW256597  13.931   7.869   7.806
51589SOL     OW56598   1.509   1.038   9.800
51589SOL    HW156599   1.549   1.099   9.862
51589SOL    HW256600   1.536   1.072   9.714
51590SOL     OW56601   0.403   3.529   2.306
51590SOL    HW156602   0.333   3.476   2.269
51590SOL    HW256603   0.421   3.596   2.240
51591SOL     OW56604   0.630  10.439   9.148
51591SOL    HW156605   0.699  10.382   9.115
51591SOL    HW256606   0.589  10.389   9.218
51592SOL     OW56607   1.468  12.610  10.306
51592SOL    HW156608   1.499  12.655  10.385
51592SOL    HW256609   1.439  12.681  10.249
51593SOL     OW56610  10.401   3.694  14.221
51593SOL    HW156611  10.428   3.782  14.246
51593SOL    HW256612  10.308   3.690  14.242
51594SOL     OW56613   6.510  12.912   3.274
51594SOL    HW156614   6.479  12.923   3.364
51594SOL    HW256615   6.429  12.904   3.222
51595SOL     OW56616   7.592   2.886  10.914
51595SOL    HW156617   7.500   2.911  10.918
51595SOL    HW256618   7.639   2.967  10.899
51596SOL     OW56619   2.470   4.717   1.437
51596SOL    HW156620   2.488   4.626   1.461
51596SOL    HW256621   2.419   4.751   1.511
51597SOL     OW56622  11.940  12.888   0.063
51597SOL    HW156623  11.848  12.912   0.066
51597SOL    HW256624  11.984  12.961   0.020
51598SOL     OW56625   5.014  10.417  13.977
51598SOL    HW156626   5.066  10.491  13.948
51598SOL    HW256627   4.925  10.437  13.948
51599SOL     OW56628   3.285   9.432  13.995
51599SOL    HW156629   3.329   9.481  13.925
51599SOL    HW256630   3.231   9.498  14.039
51600SOL     OW56631   4.306  14.770   0.036
51600SOL    HW156632   4.389  14.778  14.872
51600SOL    HW256633   4.308  14.841   0.101
51601SOL     OW56634  10.601   5.884  13.202
51601SOL    HW156635  10.652   5.875  13.122
51601SOL    HW256636  10.666   5.908  13.269
51602SOL     OW56637   1.716   7.649   6.792
51602SOL    HW156638   1.810   7.666   6.788
51602SOL    HW256639   1.679   7.725   6.835
51603SOL     OW56640  14.661  14.534   8.148
51603SOL    HW156641  14.693  14.623   8.133
51603SOL    HW256642  14.703  14.482   8.079
51604SOL     OW56643  14.570   3.737   7.715
51604SOL    HW156644  14.500   3.746   7.780
51604SOL    HW256645  14.547   3.659   7.665
51605SOL     OW56646  10.879   3.399   1.407
51605SOL    HW156647  10.849   3.458   1.337
51605SOL    HW256648  10.958   3.358   1.371
51606SOL     OW56649  13.130  14.000   9.704
51606SOL    HW156650  13.151  14.052   9.626
51606SOL    HW256651  13.170  14.047   9.776
51607SOL     OW56652   3.257   6.319   6.449
51607SOL    HW156653   3.174   6.361   6.427
51607SOL    HW256654   3.319   6.352   6.383
51608SOL     OW56655   1.584   0.163  10.337
51608SOL    HW156656   1.557   0.104  10.407
51608SOL    HW256657   1.535   0.133  10.260
51609SOL     OW56658  10.185  14.580   0.234
51609SOL    HW156659  10.248  14.652   0.230
51609SOL    HW256660  10.102  14.620   0.209
51610SOL     OW56661   3.148   9.204  14.801
51610SOL    HW156662   3.178   9.268  14.865
51610SOL    HW256663   3.222   9.145  14.788
51611SOL     OW56664   8.540  11.717  11.960
51611SOL    HW156665   8.515  11.782  11.894
51611SOL    HW256666   8.621  11.751  11.998
51612SOL     OW56667   2.337   3.115  13.456
51612SOL    HW156668   2.248   3.086  13.439
51612SOL    HW256669   2.385   3.095  13.376
51613SOL     OW56670   8.174   7.643  10.082
51613SOL    HW156671   8.172   7.698  10.004
51613SOL    HW256672   8.112   7.684  10.142
51614SOL     OW56673  14.552   4.448   2.021
51614SOL    HW156674  14.476   4.505   2.024
51614SOL    HW256675  14.623   4.503   1.989
51615SOL     OW56676   2.504  10.524   7.802
51615SOL    HW156677   2.536  10.468   7.731
51615SOL    HW256678   2.430  10.476   7.839
51616SOL     OW56679   0.696   9.869   9.071
51616SOL    HW156680   0.623   9.873   9.133
51616SOL    HW256681   0.655   9.881   8.985
51617SOL     OW56682  12.893   0.037   9.024
51617SOL    HW156683  12.850   0.121   9.035
51617SOL    HW256684  12.849  14.879   8.949
51618SOL     OW56685   1.297   0.270  10.828
51618SOL    HW156686   1.283   0.204  10.897
51618SOL    HW256687   1.268   0.352  10.868
51619SOL     OW56688   0.396  11.630  12.027
51619SOL    HW156689   0.345  11.612  11.948
51619SOL    HW256690   0.439  11.547  12.047
51620SOL     OW56691   5.938   8.644   1.375
51620SOL    HW156692   5.918   8.721   1.427
51620SOL    HW256693   5.926   8.672   1.284
51621SOL     OW56694   8.226  14.837  14.637
51621SOL    HW156695   8.184   0.039  14.655
51621SOL    HW256696   8.320  14.857  14.633
51622SOL     OW56697   0.553   0.291  11.373
51622SOL    HW156698   0.506   0.363  11.331
51622SOL    HW256699   0.520   0.290  11.463
51623SOL     OW56700   4.466   7.320   6.007
51623SOL    HW156701   4.394   7.377   6.035
51623SOL    HW256702   4.437   7.283   5.923
51624SOL     OW56703   0.277   9.053  14.021
51624SOL    HW156704   0.361   9.092  13.997
51624SOL    HW256705   0.213   9.123  14.007
51625SOL     OW56706   8.056   2.368   2.141
51625SOL    HW156707   8.066   2.364   2.046
51625SOL    HW256708   8.140   2.338   2.175
51626SOL     OW56709   7.268   5.444   7.755
51626SOL    HW156710   7.291   5.482   7.670
51626SOL    HW256711   7.183   5.402   7.740
51627SOL     OW56712   7.083  12.647  14.854
51627SOL    HW156713   7.085  12.713   0.041
51627SOL    HW256714   7.040  12.690  14.781
51628SOL     OW56715  14.851   4.583  14.825
51628SOL    HW156716  14.788   4.641  14.868
51628SOL    HW256717  14.875   4.629  14.745
51629SOL     OW56718   4.107   6.892   5.154
51629SOL    HW156719   4.190   6.888   5.201
51629SOL    HW256720   4.110   6.818   5.094
51630SOL     OW56721   7.226   8.272   7.095
51630SOL    HW156722   7.174   8.312   7.025
51630SOL    HW256723   7.195   8.181   7.099
51631SOL     OW56724  14.469   6.733   4.882
51631SOL    HW156725  14.392   6.758   4.831
51631SOL    HW256726  14.434   6.711   4.969
51632SOL     OW56727  12.278  10.604   2.882
51632SOL    HW156728  12.292  10.510   2.891
51632SOL    HW256729  12.184  10.613   2.870
51633SOL     OW56730  14.346  12.937   7.354
51633SOL    HW156731  14.305  12.852   7.370
51633SOL    HW256732  14.427  12.916   7.308
51634SOL     OW56733  10.027   1.808   4.708
51634SOL    HW156734  10.060   1.730   4.665
51634SOL    HW256735  10.090   1.876   4.687
51635SOL     OW56736   0.429   8.701  10.874
51635SOL    HW156737   0.404   8.736  10.959
51635SOL    HW256738   0.522   8.723  10.866
51636SOL     OW56739   1.419   0.752   3.519
51636SOL    HW156740   1.361   0.690   3.477
51636SOL    HW256741   1.415   0.730   3.612
51637SOL     OW56742  10.130  11.033  13.480
51637SOL    HW156743  10.047  11.026  13.526
51637SOL    HW256744  10.159  10.942  13.470
51638SOL     OW56745  12.638  14.875  10.781
51638SOL    HW156746  12.704  14.835  10.724
51638SOL    HW256747  12.666  14.853  10.870
51639SOL     OW56748   0.920   9.279  11.357
51639SOL    HW156749   0.851   9.345  11.366
51639SOL    HW256750   0.889   9.205  11.411
51640SOL     OW56751   1.372   6.847  11.529
51640SOL    HW156752   1.413   6.808  11.452
51640SOL    HW256753   1.345   6.773  11.582
51641SOL     OW56754   7.178  14.097  14.860
51641SOL    HW156755   7.199  14.125   0.067
51641SOL    HW256756   7.215  14.165  14.804
51642SOL     OW56757   1.138  10.248  13.058
51642SOL    HW156758   1.168  10.206  13.139
51642SOL    HW256759   1.203  10.317  13.042
51643SOL     OW56760   7.471   4.305   4.834
51643SOL    HW156761   7.451   4.262   4.918
51643SOL    HW256762   7.489   4.396   4.858
51644SOL     OW56763   7.154   1.646   9.550
51644SOL    HW156764   7.122   1.732   9.523
51644SOL    HW256765   7.247   1.661   9.571
51645SOL     OW56766  10.845   0.936   6.779
51645SOL    HW156767  10.858   0.956   6.872
51645SOL    HW256768  10.754   0.905   6.773
51646SOL     OW56769  14.590   7.259   8.524
51646SOL    HW156770  14.665   7.241   8.467
51646SOL    HW256771  14.516   7.215   8.482
51647SOL     OW56772  14.843   8.739  11.244
51647SOL    HW156773   0.035   8.681  11.262
51647SOL    HW256774  14.878   8.827  11.255
51648SOL     OW56775   2.912   4.647  12.867
51648SOL    HW156776   2.848   4.693  12.921
51648SOL    HW256777   2.995   4.692  12.884
51649SOL     OW56778   8.998  13.484   1.409
51649SOL    HW156779   8.945  13.407   1.430
51649SOL    HW256780   8.938  13.558   1.419
51650SOL     OW56781   3.416   3.804   1.746
51650SOL    HW156782   3.403   3.880   1.689
51650SOL    HW256783   3.358   3.820   1.820
51651SOL     OW56784  10.523   9.180  14.776
51651SOL    HW156785  10.519   9.115  14.846
51651SOL    HW256786  10.597   9.236  14.799
51652SOL     OW56787  10.818   1.682   4.991
51652SOL    HW156788  10.768   1.610   4.952
51652SOL    HW256789  10.872   1.715   4.919
51653SOL     OW56790   3.751  13.426  12.988
51653SOL    HW156791   3.748  13.516  13.019
51653SOL    HW256792   3.762  13.433  12.894
51654SOL     OW56793   5.879   0.309   7.336
51654SOL    HW156794   5.873   0.384   7.278
51654SOL    HW256795   5.849   0.341   7.421
51655SOL     OW56796   9.991  11.677   5.553
51655SOL    HW156797  10.053  11.679   5.481
51655SOL    HW256798  10.043  11.653   5.629
51656SOL     OW56799   5.465   6.040  11.720
51656SOL    HW156800   5.544   6.006  11.763
51656SOL    HW256801   5.410   6.070  11.792
51657SOL     OW56802   1.189  12.235  13.683
51657SOL    HW156803   1.256  12.197  13.626
51657SOL    HW256804   1.238  12.290  13.745
51658SOL     OW56805   3.665   3.276   5.880
51658SOL    HW156806   3.638   3.327   5.957
51658SOL    HW256807   3.599   3.207   5.873
51659SOL     OW56808   2.187  10.106  14.781
51659SOL    HW156809   2.244  10.100  14.704
51659SOL    HW256810   2.114  10.163  14.752
51660SOL     OW56811  14.096  12.799  11.581
51660SOL    HW156812  14.130  12.768  11.665
51660SOL    HW256813  14.063  12.887  11.599
51661SOL     OW56814   2.169  11.251   0.659
51661SOL    HW156815   2.240  11.305   0.622
51661SOL    HW256816   2.151  11.186   0.591
51662SOL     OW56817   1.015  13.332  12.258
51662SOL    HW156818   0.973  13.397  12.314
51662SOL    HW256819   0.967  13.337  12.176
51663SOL     OW56820   1.277   8.699   9.037
51663SOL    HW156821   1.232   8.694   9.122
51663SOL    HW256822   1.231   8.637   8.981
51664SOL     OW56823   1.525   8.332  12.440
51664SOL    HW156824   1.501   8.244  12.410
51664SOL    HW256825   1.447   8.363  12.486
51665SOL     OW56826   1.155  12.330   8.466
51665SOL    HW156827   1.129  12.373   8.384
51665SOL    HW256828   1.121  12.388   8.535
51666SOL     OW56829   0.109   7.656   4.901
51666SOL    HW156830   0.150   7.712   4.967
51666SOL    HW256831   0.181   7.603   4.867
51667SOL     OW56832   6.882   4.508   1.322
51667SOL    HW156833   6.910   4.500   1.413
51667SOL    HW256834   6.788   4.523   1.327
51668SOL     OW56835  14.304   3.392   3.538
51668SOL    HW156836  14.240   3.411   3.607
51668SOL    HW256837  14.366   3.464   3.543
51669SOL     OW56838   8.441   8.878   9.211
51669SOL    HW156839   8.411   8.887   9.302
51669SOL    HW256840   8.399   8.798   9.180
51670SOL     OW56841  12.468   1.561  10.616
51670SOL    HW156842  12.560   1.576  10.640
51670SOL    HW256843  12.423   1.551  10.699
51671SOL     OW56844  12.560   4.330   9.778
51671SOL    HW156845  12.566   4.420   9.747
51671SOL    HW256846  12.651   4.298   9.779
51672SOL     OW56847   4.147   7.305   3.413
51672SOL    HW156848   4.182   7.224   3.374
51672SOL    HW256849   4.110   7.352   3.339
51673SOL     OW56850  14.489   3.414   8.647
51673SOL    HW156851  14.513   3.496   8.689
51673SOL    HW256852  14.427   3.373   8.708
51674SOL     OW56853  10.828  12.355   0.337
51674SOL    HW156854  10.733  12.354   0.321
51674SOL    HW256855  10.863  12.291   0.275
51675SOL     OW56856   3.911   2.587   6.214
51675SOL    HW156857   3.823   2.581   6.178
51675SOL    HW256858   3.936   2.679   6.201
51676SOL     OW56859   5.361  14.803   0.536
51676SOL    HW156860   5.275  14.845   0.538
51676SOL    HW256861   5.423  14.876   0.542
51677SOL     OW56862  13.799   9.000   3.157
51677SOL    HW156863  13.719   9.014   3.107
51677SOL    HW256864  13.870   9.015   3.095
51678SOL     OW56865   5.416  14.526  10.737
51678SOL    HW156866   5.464  14.456  10.693
51678SOL    HW256867   5.412  14.499  10.828
51679SOL     OW56868   4.741   9.226   4.400
51679SOL    HW156869   4.806   9.156   4.404
51679SOL    HW256870   4.785   9.302   4.438
51680SOL     OW56871   4.078   3.039   2.940
51680SOL    HW156872   4.122   2.986   3.006
51680SOL    HW256873   4.142   3.107   2.918
51681SOL     OW56874  13.728   2.805  10.896
51681SOL    HW156875  13.768   2.856  10.826
51681SOL    HW256876  13.800   2.753  10.932
51682SOL     OW56877  10.446   2.543   9.168
51682SOL    HW156878  10.521   2.486   9.150
51682SOL    HW256879  10.389   2.491   9.225
51683SOL     OW56880  12.646   0.744   1.606
51683SOL    HW156881  12.649   0.830   1.648
51683SOL    HW256882  12.732   0.735   1.564
51684SOL     OW56883   3.614   3.395  14.590
51684SOL    HW156884   3.613   3.449  14.511
51684SOL    HW256885   3.649   3.311  14.561
51685SOL     OW56886  12.086  13.761  12.385
51685SOL    HW156887  12.090  13.853  12.356
51685SOL    HW256888  12.129  13.712  12.314
51686SOL     OW56889   9.680   7.403   0.305
51686SOL    HW156890   9.643   7.469   0.363
51686SOL    HW256891   9.612   7.387   0.239
51687SOL     OW56892  12.766   0.572  11.678
51687SOL    HW156893  12.741   0.480  11.675
51687SOL    HW256894  12.709   0.611  11.744
51688SOL     OW56895  14.352   4.466   0.418
51688SOL    HW156896  14.374   4.515   0.498
51688SOL    HW256897  14.419   4.398   0.414
51689SOL     OW56898  11.044   9.515  12.904
51689SOL    HW156899  11.034   9.420  12.908
51689SOL    HW256900  10.992   9.542  12.828
51690SOL     OW56901   4.564   8.414  11.394
51690SOL    HW156902   4.533   8.360  11.322
51690SOL    HW256903   4.495   8.410  11.460
51691SOL     OW56904  13.776   9.784  10.285
51691SOL    HW156905  13.802   9.702  10.327
51691SOL    HW256906  13.697   9.762  10.236
51692SOL     OW56907   0.750   2.024   4.041
51692SOL    HW156908   0.750   1.990   3.952
51692SOL    HW256909   0.657   2.035   4.063
51693SOL     OW56910   1.137   8.448  11.891
51693SOL    HW156911   1.125   8.374  11.831
51693SOL    HW256912   1.158   8.408  11.975
51694SOL     OW56913   8.395  12.014  11.317
51694SOL    HW156914   8.407  11.929  11.360
51694SOL    HW256915   8.317  12.002  11.263
51695SOL     OW56916   3.611   2.950  12.800
51695SOL    HW156917   3.665   2.939  12.722
51695SOL    HW256918   3.535   3.000  12.771
51696SOL     OW56919  12.116   4.685   2.940
51696SOL    HW156920  12.198   4.662   2.984
51696SOL    HW256921  12.144   4.724   2.857
51697SOL     OW56922  11.282   9.570   1.196
51697SOL    HW156923  11.362   9.539   1.238
51697SOL    HW256924  11.229   9.605   1.267
51698SOL     OW56925   5.623   0.052   0.515
51698SOL    HW156926   5.623   0.098   0.599
51698SOL    HW256927   5.667   0.112   0.455
51699SOL     OW56928  12.495   2.705   6.443
51699SOL    HW156929  12.495   2.610   6.432
51699SOL    HW256930  12.587   2.728   6.454
51700SOL     OW56931   9.212   4.178  12.098
51700SOL    HW156932   9.132   4.156  12.148
51700SOL    HW256933   9.263   4.232  12.159
51701SOL     OW56934   5.826   3.300   3.210
51701SOL    HW156935   5.756   3.235   3.211
51701SOL    HW256936   5.838   3.321   3.118
51702SOL     OW56937   8.175   2.009  13.272
51702SOL    HW156938   8.252   2.066  13.271
51702SOL    HW256939   8.112   2.053  13.329
51703SOL     OW56940   4.993  12.848   6.927
51703SOL    HW156941   4.939  12.918   6.963
51703SOL    HW256942   5.060  12.833   6.994
51704SOL     OW56943  14.340   3.318   8.873
51704SOL    HW156944  14.291   3.252   8.922
51704SOL    HW256945  14.273   3.370   8.828
51705SOL     OW56946   2.797   6.800   9.728
51705SOL    HW156947   2.792   6.722   9.672
51705SOL    HW256948   2.706   6.816   9.754
51706SOL     OW56949  11.428  12.704   1.496
51706SOL    HW156950  11.431  12.684   1.403
51706SOL    HW256951  11.514  12.741   1.516
51707SOL     OW56952   8.792   5.853   1.445
51707SOL    HW156953   8.772   5.783   1.507
51707SOL    HW256954   8.793   5.810   1.360
51708SOL     OW56955   1.458   9.684   6.336
51708SOL    HW156956   1.496   9.740   6.403
51708SOL    HW256957   1.533   9.651   6.287
51709SOL     OW56958   8.610  12.171   5.742
51709SOL    HW156959   8.626  12.265   5.745
51709SOL    HW256960   8.633  12.140   5.829
51710SOL     OW56961  12.521  14.110   7.828
51710SOL    HW156962  12.575  14.046   7.875
51710SOL    HW256963  12.568  14.126   7.746
51711SOL     OW56964  13.804   5.587   8.258
51711SOL    HW156965  13.801   5.680   8.280
51711SOL    HW256966  13.846   5.584   8.172
51712SOL     OW56967   7.057   6.440   8.765
51712SOL    HW156968   7.044   6.371   8.699
51712SOL    HW256969   7.097   6.512   8.717
51713SOL     OW56970  12.935   1.850   3.467
51713SOL    HW156971  12.916   1.944   3.462
51713SOL    HW256972  12.872   1.817   3.530
51714SOL     OW56973   5.655   2.785   8.101
51714SOL    HW156974   5.718   2.777   8.030
51714SOL    HW256975   5.570   2.795   8.057
51715SOL     OW56976   4.209   2.870   8.480
51715SOL    HW156977   4.116   2.857   8.460
51715SOL    HW256978   4.213   2.956   8.521
51716SOL     OW56979  11.154  12.456   4.918
51716SOL    HW156980  11.148  12.547   4.949
51716SOL    HW256981  11.068  12.419   4.936
51717SOL     OW56982   7.076  10.935   7.845
51717SOL    HW156983   7.136  10.863   7.828
51717SOL    HW256984   6.990  10.893   7.848
51718SOL     OW56985  11.697  13.804   5.156
51718SOL    HW156986  11.648  13.857   5.093
51718SOL    HW256987  11.632  13.748   5.197
51719SOL     OW56988   1.503   0.893  13.543
51719SOL    HW156989   1.541   0.877  13.456
51719SOL    HW256990   1.482   0.805  13.576
51720SOL     OW56991   1.517   9.198   1.286
51720SOL    HW156992   1.578   9.165   1.352
51720SOL    HW256993   1.459   9.124   1.268
51721SOL     OW56994   7.675  12.763   1.985
51721SOL    HW156995   7.590  12.795   2.015
51721SOL    HW256996   7.732  12.774   2.061
51722SOL     OW56997  14.041   7.196   4.469
51722SOL    HW156998  14.023   7.275   4.419
51722SOL    HW256999  14.106   7.223   4.534
51723SOL     OW57000   3.164  11.197   3.356
51723SOL    HW157001   3.247  11.239   3.380
51723SOL    HW257002   3.116  11.265   3.309
51724SOL     OW57003   7.449   1.723   5.056
51724SOL    HW157004   7.528   1.713   5.003
51724SOL    HW257005   7.455   1.653   5.121
51725SOL     OW57006  12.116  12.009   5.880
51725SOL    HW157007  12.123  11.915   5.892
51725SOL    HW257008  12.023  12.025   5.866
51726SOL     OW57009  12.735   7.146   6.140
51726SOL    HW157010  12.794   7.219   6.157
51726SOL    HW257011  12.666   7.183   6.085
51727SOL     OW57012  10.150  14.441  12.433
51727SOL    HW157013  10.205  14.507  12.392
51727SOL    HW257014  10.197  14.416  12.512
51728SOL     OW57015   6.904  13.320   5.510
51728SOL    HW157016   6.868  13.281   5.590
51728SOL    HW257017   6.968  13.256   5.478
51729SOL     OW57018   1.344   4.960   1.552
51729SOL    HW157019   1.309   4.874   1.529
51729SOL    HW257020   1.438   4.946   1.560
51730SOL     OW57021  14.328   3.529   7.290
51730SOL    HW157022  14.234   3.538   7.275
51730SOL    HW257023  14.367   3.606   7.249
51731SOL     OW57024  12.705  12.004  12.558
51731SOL    HW157025  12.767  12.063  12.514
51731SOL    HW257026  12.647  12.061  12.608
51732SOL     OW57027   9.659   9.113   2.118
51732SOL    HW157028   9.570   9.094   2.091
51732SOL    HW257029   9.656   9.111   2.214
51733SOL     OW57030   3.610  14.790   9.006
51733SOL    HW157031   3.634  14.723   9.070
51733SOL    HW257032   3.626  14.873   9.051
51734SOL     OW57033   5.786  14.639  12.127
51734SOL    HW157034   5.800  14.729  12.154
51734SOL    HW257035   5.865  14.592  12.155
51735SOL     OW57036  14.133   7.486  13.895
51735SOL    HW157037  14.066   7.421  13.912
51735SOL    HW257038  14.215   7.437  13.894
51736SOL     OW57039   7.445   3.556  12.783
51736SOL    HW157040   7.411   3.597  12.863
51736SOL    HW257041   7.457   3.464  12.806
51737SOL     OW57042   4.115   9.584   2.570
51737SOL    HW157043   4.184   9.610   2.632
51737SOL    HW257044   4.080   9.503   2.607
51738SOL     OW57045   3.539  10.959   4.411
51738SOL    HW157046   3.598  10.936   4.340
51738SOL    HW257047   3.493  10.878   4.431
51739SOL     OW57048   8.542  11.669   0.106
51739SOL    HW157049   8.591  11.597   0.068
51739SOL    HW257050   8.473  11.688   0.042
51740SOL     OW57051  12.623   5.582   0.744
51740SOL    HW157052  12.661   5.529   0.675
51740SOL    HW257053  12.532   5.596   0.717
51741SOL     OW57054   2.304   8.429  12.947
51741SOL    HW157055   2.365   8.492  12.909
51741SOL    HW257056   2.329   8.345  12.909
51742SOL     OW57057   7.113   6.234  10.722
51742SOL    HW157058   7.178   6.215  10.655
51742SOL    HW257059   7.139   6.319  10.757
51743SOL     OW57060   6.434   0.977   7.635
51743SOL    HW157061   6.522   0.946   7.615
51743SOL    HW257062   6.376   0.912   7.596
51744SOL     OW57063   6.789  10.555  14.030
51744SOL    HW157064   6.850  10.629  14.038
51744SOL    HW257065   6.711  10.592  13.989
51745SOL     OW57066  12.496  12.796   7.118
51745SOL    HW157067  12.458  12.716   7.080
51745SOL    HW257068  12.491  12.860   7.047
51746SOL     OW57069   2.057  13.106   6.292
51746SOL    HW157070   2.128  13.161   6.325
51746SOL    HW257071   2.079  13.018   6.322
51747SOL     OW57072   8.305   8.996  14.374
51747SOL    HW157073   8.240   8.930  14.351
51747SOL    HW257074   8.389   8.958  14.349
51748SOL     OW57075  11.564   8.296   6.948
51748SOL    HW157076  11.586   8.223   6.890
51748SOL    HW257077  11.621   8.284   7.024
51749SOL     OW57078  13.940  10.094  13.299
51749SOL    HW157079  13.847  10.113  13.296
51749SOL    HW257080  13.980  10.175  13.331
51750SOL     OW57081   4.565   2.405  14.145
51750SOL    HW157082   4.618   2.471  14.190
51750SOL    HW257083   4.532   2.450  14.067
51751SOL     OW57084   8.864  10.637  14.260
51751SOL    HW157085   8.851  10.731  14.245
51751SOL    HW257086   8.899  10.631  14.348
51752SOL     OW57087  10.030  10.774  14.617
51752SOL    HW157088   9.943  10.813  14.618
51752SOL    HW257089  10.014  10.680  14.613
51753SOL     OW57090   1.123   0.515   0.860
51753SOL    HW157091   1.056   0.457   0.896
51753SOL    HW257092   1.206   0.473   0.884
51754SOL     OW57093   7.048  11.049  12.301
51754SOL    HW157094   7.138  11.082  12.308
51754SOL    HW257095   7.009  11.065  12.387
51755SOL     OW57096  13.314   3.268  12.286
51755SOL    HW157097  13.375   3.243  12.355
51755SOL    HW257098  13.358   3.244  12.204
51756SOL     OW57099  11.992   3.603   0.150
51756SOL    HW157100  12.007   3.670   0.084
51756SOL    HW257101  11.904   3.620   0.183
51757SOL     OW57102  14.514  13.855   4.582
51757SOL    HW157103  14.533  13.939   4.540
51757SOL    HW257104  14.598  13.809   4.585
51758SOL     OW57105   6.189   9.361  14.699
51758SOL    HW157106   6.157   9.426  14.637
51758SOL    HW257107   6.110   9.332  14.746
51759SOL     OW57108   3.589  14.716   1.576
51759SOL    HW157109   3.540  14.696   1.656
51759SOL    HW257110   3.531  14.774   1.526
51760SOL     OW57111   4.726   7.821   6.295
51760SOL    HW157112   4.703   7.812   6.203
51760SOL    HW257113   4.818   7.848   6.295
51761SOL     OW57114   3.045  14.747  13.178
51761SOL    HW157115   3.020  14.696  13.256
51761SOL    HW257116   2.981  14.722  13.111
51762SOL     OW57117   3.568   0.739  14.202
51762SOL    HW157118   3.545   0.684  14.127
51762SOL    HW257119   3.603   0.819  14.163
51763SOL     OW57120   3.940   3.317   0.305
51763SOL    HW157121   4.002   3.382   0.337
51763SOL    HW257122   3.925   3.259   0.380
51764SOL     OW57123  11.551  12.650   7.406
51764SOL    HW157124  11.621  12.614   7.461
51764SOL    HW257125  11.550  12.743   7.426
51765SOL     OW57126   5.634   9.888  13.467
51765SOL    HW157127   5.603   9.969  13.507
51765SOL    HW257128   5.711   9.864  13.518
51766SOL     OW57129  13.793   8.848  12.795
51766SOL    HW157130  13.732   8.780  12.823
51766SOL    HW257131  13.847   8.805  12.729
51767SOL     OW57132  13.584  11.757  12.981
51767SOL    HW157133  13.540  11.760  13.067
51767SOL    HW257134  13.676  11.770  13.001
51768SOL     OW57135  11.172  11.649  11.178
51768SOL    HW157136  11.163  11.704  11.256
51768SOL    HW257137  11.083  11.619  11.159
51769SOL     OW57138  14.405   0.501   2.831
51769SOL    HW157139  14.404   0.447   2.910
51769SOL    HW257140  14.498   0.519   2.816
51770SOL     OW57141   1.716  13.302  12.562
51770SOL    HW157142   1.635  13.258  12.536
51770SOL    HW257143   1.693  13.351  12.640
51771SOL     OW57144   9.384   6.442   4.449
51771SOL    HW157145   9.333   6.401   4.380
51771SOL    HW257146   9.449   6.376   4.474
51772SOL     OW57147   5.598   7.581   2.807
51772SOL    HW157148   5.638   7.647   2.751
51772SOL    HW257149   5.672   7.531   2.841
51773SOL     OW57150   0.506   3.123  11.587
51773SOL    HW157151   0.461   3.072  11.655
51773SOL    HW257152   0.518   3.209  11.626
51774SOL     OW57153   2.522   4.465   7.332
51774SOL    HW157154   2.457   4.534   7.342
51774SOL    HW257155   2.527   4.425   7.419
51775SOL     OW57156   7.385   3.092  12.336
51775SOL    HW157157   7.406   3.103  12.243
51775SOL    HW257158   7.296   3.127  12.344
51776SOL     OW57159   8.413  12.766  13.124
51776SOL    HW157160   8.334  12.719  13.098
51776SOL    HW257161   8.471  12.759  13.048
51777SOL     OW57162   4.139   2.443   2.242
51777SOL    HW157163   4.154   2.362   2.291
51777SOL    HW257164   4.196   2.507   2.283
51778SOL     OW57165   2.153   8.599   0.692
51778SOL    HW157166   2.220   8.579   0.757
51778SOL    HW257167   2.173   8.689   0.665
51779SOL     OW57168   4.867   3.612   8.547
51779SOL    HW157169   4.808   3.552   8.502
51779SOL    HW257170   4.809   3.679   8.583
51780SOL     OW57171   2.646   1.232   5.357
51780SOL    HW157172   2.675   1.314   5.397
51780SOL    HW257173   2.719   1.172   5.367
51781SOL     OW57174  12.447  11.169  11.112
51781SOL    HW157175  12.485  11.245  11.069
51781SOL    HW257176  12.363  11.155  11.067
51782SOL     OW57177   9.707  11.508  13.499
51782SOL    HW157178   9.674  11.442  13.437
51782SOL    HW257179   9.801  11.492  13.502
51783SOL     OW57180   2.584  10.322   6.176
51783SOL    HW157181   2.516  10.258   6.198
51783SOL    HW257182   2.538  10.404   6.164
51784SOL     OW57183   4.930  10.866   6.189
51784SOL    HW157184   4.867  10.909   6.131
51784SOL    HW257185   4.944  10.780   6.149
51785SOL     OW57186   6.169  12.786   5.114
51785SOL    HW157187   6.162  12.809   5.207
51785SOL    HW257188   6.126  12.859   5.068
51786SOL     OW57189  11.086  13.396   3.615
51786SOL    HW157190  11.148  13.451   3.566
51786SOL    HW257191  11.009  13.452   3.628
51787SOL     OW57192   0.043  11.528  12.805
51787SOL    HW157193   0.128  11.495  12.836
51787SOL    HW257194   0.012  11.460  12.744
51788SOL     OW57195   7.375   3.198  11.935
51788SOL    HW157196   7.283   3.213  11.914
51788SOL    HW257197   7.409   3.151  11.858
51789SOL     OW57198  12.916  12.526   8.797
51789SOL    HW157199  12.989  12.475   8.832
51789SOL    HW257200  12.887  12.580   8.871
51790SOL     OW57201   2.469   8.084   4.536
51790SOL    HW157202   2.528   8.069   4.462
51790SOL    HW257203   2.527   8.087   4.612
51791SOL     OW57204   9.911   6.636   6.406
51791SOL    HW157205   9.921   6.728   6.428
51791SOL    HW257206   9.880   6.594   6.486
51792SOL     OW57207   1.544  14.079  11.806
51792SOL    HW157208   1.454  14.078  11.774
51792SOL    HW257209   1.540  14.035  11.890
51793SOL     OW57210  12.465  10.055   6.277
51793SOL    HW157211  12.427  10.142   6.290
51793SOL    HW257212  12.464  10.016   6.364
51794SOL     OW57213  11.840   3.768  11.901
51794SOL    HW157214  11.865   3.812  11.983
51794SOL    HW257215  11.855   3.675  11.919
51795SOL     OW57216   6.237  13.874   4.451
51795SOL    HW157217   6.180  13.877   4.528
51795SOL    HW257218   6.188  13.823   4.387
51796SOL     OW57219   2.124   5.151  12.960
51796SOL    HW157220   2.207   5.151  13.008
51796SOL    HW257221   2.107   5.243  12.942
51797SOL     OW57222   2.441   7.111   4.163
51797SOL    HW157223   2.532   7.105   4.190
51797SOL    HW257224   2.407   7.022   4.172
51798SOL     OW57225  11.259   5.511   6.564
51798SOL    HW157226  11.342   5.462   6.569
51798SOL    HW257227  11.225   5.511   6.653
51799SOL     OW57228   4.416   9.981  13.205
51799SOL    HW157229   4.401   9.889  13.224
51799SOL    HW257230   4.335  10.010  13.161
51800SOL     OW57231   0.309   6.710   6.805
51800SOL    HW157232   0.339   6.661   6.882
51800SOL    HW257233   0.216   6.724   6.821
51801SOL     OW57234   5.234   1.354   7.660
51801SOL    HW157235   5.176   1.419   7.620
51801SOL    HW257236   5.290   1.405   7.719
51802SOL     OW57237  11.744  12.944  13.024
51802SOL    HW157238  11.786  12.984  13.100
51802SOL    HW257239  11.652  12.967  13.033
51803SOL     OW57240  12.001   4.921  13.612
51803SOL    HW157241  11.911   4.893  13.627
51803SOL    HW257242  12.029   4.958  13.696
51804SOL     OW57243   1.137   1.659   5.021
51804SOL    HW157244   1.140   1.602   5.098
51804SOL    HW257245   1.058   1.633   4.974
51805SOL     OW57246   3.465  10.094   1.939
51805SOL    HW157247   3.468  10.187   1.919
51805SOL    HW257248   3.387  10.083   1.994
51806SOL     OW57249   1.799   5.720   5.445
51806SOL    HW157250   1.736   5.695   5.512
51806SOL    HW257251   1.834   5.637   5.412
51807SOL     OW57252   7.631   8.438  11.842
51807SOL    HW157253   7.546   8.398  11.858
51807SOL    HW257254   7.643   8.433  11.748
51808SOL     OW57255   2.759   5.735   7.218
51808SOL    HW157256   2.664   5.751   7.220
51808SOL    HW257257   2.782   5.720   7.309
51809SOL     OW57258   7.576   6.177  14.881
51809SOL    HW157259   7.564   6.267  14.851
51809SOL    HW257260   7.510   6.127  14.834
51810SOL     OW57261   0.995   6.964   4.338
51810SOL    HW157262   1.032   6.906   4.404
51810SOL    HW257263   0.928   7.014   4.385
51811SOL     OW57264   4.838  11.722   0.641
51811SOL    HW157265   4.851  11.816   0.647
51811SOL    HW257266   4.883  11.686   0.717
51812SOL     OW57267   4.624   3.012  12.829
51812SOL    HW157268   4.551   3.050  12.780
51812SOL    HW257269   4.602   3.027  12.921
51813SOL     OW57270   3.325  14.100   1.768
51813SOL    HW157271   3.351  14.060   1.685
51813SOL    HW257272   3.338  14.194   1.755
51814SOL     OW57273   4.217   2.227   8.783
51814SOL    HW157274   4.300   2.272   8.766
51814SOL    HW257275   4.239   2.162   8.849
51815SOL     OW57276   4.823  10.538  11.203
51815SOL    HW157277   4.880  10.581  11.267
51815SOL    HW257278   4.786  10.463  11.250
51816SOL     OW57279  14.798   3.838  12.883
51816SOL    HW157280  14.708   3.863  12.904
51816SOL    HW257281  14.852   3.901  12.930
51817SOL     OW57282   2.178  10.064  14.212
51817SOL    HW157283   2.141  10.137  14.262
51817SOL    HW257284   2.232  10.105  14.145
51818SOL     OW57285   9.185   1.072  11.866
51818SOL    HW157286   9.240   1.130  11.919
51818SOL    HW257287   9.128   1.028  11.929
51819SOL     OW57288   3.854   8.902   7.762
51819SOL    HW157289   3.888   8.946   7.684
51819SOL    HW257290   3.814   8.822   7.729
51820SOL     OW57291   8.610   2.140   4.848
51820SOL    HW157292   8.634   2.216   4.901
51820SOL    HW257293   8.542   2.096   4.899
51821SOL     OW57294   1.802  13.493   3.073
51821SOL    HW157295   1.819  13.525   3.162
51821SOL    HW257296   1.855  13.414   3.066
51822SOL     OW57297  11.037  11.049   6.813
51822SOL    HW157298  11.015  11.121   6.753
51822SOL    HW257299  11.069  11.093   6.892
51823SOL     OW57300   9.807  11.241   9.723
51823SOL    HW157301   9.714  11.243   9.745
51823SOL    HW257302   9.847  11.306   9.780
51824SOL     OW57303   8.407   5.280   2.150
51824SOL    HW157304   8.354   5.237   2.217
51824SOL    HW257305   8.343   5.324   2.093
51825SOL     OW57306   2.063   3.579   8.828
51825SOL    HW157307   2.025   3.573   8.915
51825SOL    HW257308   2.147   3.624   8.841
51826SOL     OW57309   8.497  13.273   8.615
51826SOL    HW157310   8.572  13.216   8.602
51826SOL    HW257311   8.487  13.319   8.532
51827SOL     OW57312   0.469   4.511  11.995
51827SOL    HW157313   0.453   4.533  12.086
51827SOL    HW257314   0.505   4.423  11.997
51828SOL     OW57315  12.490  11.221  13.921
51828SOL    HW157316  12.404  11.180  13.918
51828SOL    HW257317  12.512  11.222  14.014
51829SOL     OW57318   2.502   3.003   7.311
51829SOL    HW157319   2.589   3.041   7.322
51829SOL    HW257320   2.497   2.935   7.378
51830SOL     OW57321   0.844   0.714   6.786
51830SOL    HW157322   0.760   0.758   6.802
51830SOL    HW257323   0.845   0.698   6.692
51831SOL     OW57324  12.910   5.855   7.672
51831SOL    HW157325  12.970   5.782   7.691
51831SOL    HW257326  12.888   5.890   7.758
51832SOL     OW57327   7.509   9.216   8.163
51832SOL    HW157328   7.515   9.279   8.235
51832SOL    HW257329   7.539   9.265   8.086
51833SOL     OW57330   0.466   5.593   3.122
51833SOL    HW157331   0.384   5.557   3.089
51833SOL    HW257332   0.517   5.612   3.044
51834SOL     OW57333  11.531  11.758   5.838
51834SOL    HW157334  11.547  11.714   5.921
51834SOL    HW257335  11.612  11.747   5.789
51835SOL     OW57336  10.119   0.565  11.024
51835SOL    HW157337  10.208   0.539  11.002
51835SOL    HW257338  10.119   0.660  11.015
51836SOL     OW57339   5.590  13.738  14.670
51836SOL    HW157340   5.495  13.750  14.677
51836SOL    HW257341   5.627  13.811  14.720
51837SOL     OW57342  10.195  13.868   5.793
51837SOL    HW157343  10.284  13.836   5.809
51837SOL    HW257344  10.207  13.944   5.736
51838SOL     OW57345   5.810   5.609   2.436
51838SOL    HW157346   5.833   5.579   2.348
51838SOL    HW257347   5.891   5.646   2.471
51839SOL     OW57348   3.915   3.512  13.630
51839SOL    HW157349   3.972   3.561  13.690
51839SOL    HW257350   3.960   3.428  13.618
51840SOL     OW57351   1.404   4.682  14.738
51840SOL    HW157352   1.339   4.731  14.688
51840SOL    HW257353   1.431   4.610  14.680
51841SOL     OW57354   0.155   0.094   3.154
51841SOL    HW157355   0.133   0.004   3.178
51841SOL    HW257356   0.174   0.090   3.061
51842SOL     OW57357   2.288   6.166   3.835
51842SOL    HW157358   2.275   6.079   3.873
51842SOL    HW257359   2.203   6.209   3.844
51843SOL     OW57360   8.205  10.125   6.051
51843SOL    HW157361   8.145  10.196   6.076
51843SOL    HW257362   8.212  10.071   6.130
51844SOL     OW57363  10.588   5.080  13.321
51844SOL    HW157364  10.598   5.076  13.416
51844SOL    HW257365  10.535   5.004  13.298
51845SOL     OW57366  11.308  13.469   2.649
51845SOL    HW157367  11.400  13.445   2.645
51845SOL    HW257368  11.274  13.423   2.726
51846SOL     OW57369   2.414   2.066  11.753
51846SOL    HW157370   2.393   2.156  11.780
51846SOL    HW257371   2.509   2.060  11.762
51847SOL     OW57372  12.207  10.732  11.257
51847SOL    HW157373  12.113  10.741  11.271
51847SOL    HW257374  12.215  10.660  11.194
51848SOL     OW57375   3.042   4.703   2.732
51848SOL    HW157376   3.120   4.747   2.700
51848SOL    HW257377   2.994   4.771   2.779
51849SOL     OW57378   6.357   0.225   3.445
51849SOL    HW157379   6.440   0.247   3.405
51849SOL    HW257380   6.330   0.143   3.403
51850SOL     OW57381  10.307   0.648   3.241
51850SOL    HW157382  10.323   0.588   3.168
51850SOL    HW257383  10.234   0.703   3.211
51851SOL     OW57384   8.401   0.268   6.890
51851SOL    HW157385   8.487   0.288   6.928
51851SOL    HW257386   8.347   0.343   6.913
51852SOL     OW57387  13.881   9.121   3.388
51852SOL    HW157388  13.845   9.056   3.327
51852SOL    HW257389  13.967   9.143   3.352
51853SOL     OW57390   2.408   0.750   6.761
51853SOL    HW157391   2.317   0.769   6.783
51853SOL    HW257392   2.448   0.836   6.748
51854SOL     OW57393   0.794   2.422   6.777
51854SOL    HW157394   0.706   2.386   6.784
51854SOL    HW257395   0.823   2.397   6.689
51855SOL     OW57396  10.119   2.839   1.042
51855SOL    HW157397  10.178   2.770   1.074
51855SOL    HW257398  10.041   2.832   1.096
51856SOL     OW57399   2.803  10.020   0.147
51856SOL    HW157400   2.787  10.110   0.175
51856SOL    HW257401   2.844  10.028   0.061
51857SOL     OW57402   4.026   5.001   2.123
51857SOL    HW157403   4.084   5.023   2.195
51857SOL    HW257404   3.941   4.986   2.164
51858SOL     OW57405  14.563   8.369   2.138
51858SOL    HW157406  14.650   8.349   2.103
51858SOL    HW257407  14.502   8.332   2.073
51859SOL     OW57408  13.352   9.355  12.167
51859SOL    HW157409  13.319   9.265  12.170
51859SOL    HW257410  13.429   9.353  12.224
51860SOL     OW57411  11.175   6.644  14.245
51860SOL    HW157412  11.187   6.562  14.293
51860SOL    HW257413  11.114   6.695  14.299
51861SOL     OW57414   8.476   9.902  10.927
51861SOL    HW157415   8.481   9.974  10.989
51861SOL    HW257416   8.411   9.843  10.964
51862SOL     OW57417   3.687   2.453  12.795
51862SOL    HW157418   3.613   2.510  12.818
51862SOL    HW257419   3.756   2.513  12.768
51863SOL     OW57420   5.326  13.913   5.622
51863SOL    HW157421   5.258  13.900   5.689
51863SOL    HW257422   5.349  14.006   5.629
51864SOL     OW57423  11.023  13.611   0.585
51864SOL    HW157424  11.028  13.632   0.679
51864SOL    HW257425  11.106  13.640   0.549
51865SOL     OW57426  11.422  14.193   3.728
51865SOL    HW157427  11.424  14.098   3.739
51865SOL    HW257428  11.332  14.213   3.704
51866SOL     OW57429  14.053  13.418  13.472
51866SOL    HW157430  14.124  13.358  13.496
51866SOL    HW257431  13.973  13.366  13.487
51867SOL     OW57432   4.661  14.117   3.781
51867SOL    HW157433   4.628  14.027   3.784
51867SOL    HW257434   4.682  14.137   3.872
51868SOL     OW57435  13.368   3.748   4.608
51868SOL    HW157436  13.275   3.734   4.622
51868SOL    HW257437  13.399   3.787   4.690
51869SOL     OW57438   4.244   8.356  10.499
51869SOL    HW157439   4.262   8.402  10.581
51869SOL    HW257440   4.162   8.394  10.468
51870SOL     OW57441   8.093   2.976   6.750
51870SOL    HW157442   8.157   2.905   6.752
51870SOL    HW257443   8.102   3.014   6.663
51871SOL     OW57444  10.301   0.347   9.646
51871SOL    HW157445  10.395   0.329   9.654
51871SOL    HW257446  10.272   0.357   9.736
51872SOL     OW57447   6.271   5.853   6.699
51872SOL    HW157448   6.279   5.761   6.674
51872SOL    HW257449   6.361   5.883   6.710
51873SOL     OW57450   2.440   5.354   1.208
51873SOL    HW157451   2.346   5.372   1.197
51873SOL    HW257452   2.477   5.439   1.232
51874SOL     OW57453   7.203   4.954   6.997
51874SOL    HW157454   7.259   4.880   6.976
51874SOL    HW257455   7.239   4.989   7.079
51875SOL     OW57456   7.286  13.047   7.895
51875SOL    HW157457   7.238  13.031   7.814
51875SOL    HW257458   7.336  12.966   7.909
51876SOL     OW57459  12.265   5.390   0.338
51876SOL    HW157460  12.265   5.326   0.410
51876SOL    HW257461  12.214   5.347   0.268
51877SOL     OW57462  13.666   5.685   5.911
51877SOL    HW157463  13.609   5.752   5.873
51877SOL    HW257464  13.684   5.716   6.000
51878SOL     OW57465   3.803   2.701   2.186
51878SOL    HW157466   3.835   2.757   2.115
51878SOL    HW257467   3.836   2.614   2.165
51879SOL     OW57468  10.359  10.308  13.766
51879SOL    HW157469  10.423  10.307  13.695
51879SOL    HW257470  10.291  10.248  13.737
51880SOL     OW57471   7.423   7.323  10.229
51880SOL    HW157472   7.361   7.260  10.267
51880SOL    HW257473   7.482   7.270  10.176
51881SOL     OW57474   4.084  11.752  11.213
51881SOL    HW157475   4.145  11.748  11.287
51881SOL    HW257476   4.004  11.789  11.249
51882SOL     OW57477   0.243   4.934   9.165
51882SOL    HW157478   0.319   4.880   9.143
51882SOL    HW257479   0.280   5.018   9.192
51883SOL     OW57480   6.226  12.245   0.623
51883SOL    HW157481   6.249  12.266   0.532
51883SOL    HW257482   6.310  12.250   0.670
51884SOL     OW57483   2.435   0.017  10.020
51884SOL    HW157484   2.348   0.052   9.999
51884SOL    HW257485   2.495   0.089  10.001
51885SOL     OW57486   5.216   2.765   2.872
51885SOL    HW157487   5.130   2.723   2.872
51885SOL    HW257488   5.238   2.774   2.965
51886SOL     OW57489   4.328   9.185   0.478
51886SOL    HW157490   4.314   9.247   0.549
51886SOL    HW257491   4.390   9.121   0.513
51887SOL     OW57492   6.829  10.470   6.361
51887SOL    HW157493   6.811  10.466   6.455
51887SOL    HW257494   6.887  10.396   6.345
51888SOL     OW57495  11.768  12.417   5.831
51888SOL    HW157496  11.677  12.388   5.842
51888SOL    HW257497  11.799  12.372   5.753
51889SOL     OW57498   9.262   8.163   3.463
51889SOL    HW157499   9.350   8.193   3.486
51889SOL    HW257500   9.204   8.212   3.522
51890SOL     OW57501  12.560  14.004  12.855
51890SOL    HW157502  12.602  13.982  12.772
51890SOL    HW257503  12.471  13.970  12.845
51891SOL     OW57504   7.599  14.494  11.687
51891SOL    HW157505   7.652  14.513  11.609
51891SOL    HW257506   7.509  14.499  11.656
51892SOL     OW57507   8.669   8.770  13.880
51892SOL    HW157508   8.582   8.734  13.899
51892SOL    HW257509   8.728   8.695  13.888
51893SOL     OW57510   8.439  13.533   2.166
51893SOL    HW157511   8.376  13.485   2.113
51893SOL    HW257512   8.512  13.473   2.177
51894SOL     OW57513   3.975   4.559   0.789
51894SOL    HW157514   3.963   4.550   0.883
51894SOL    HW257515   3.955   4.473   0.753
51895SOL     OW57516   5.562  11.613  10.227
51895SOL    HW157517   5.646  11.660  10.220
51895SOL    HW257518   5.563  11.576  10.315
51896SOL     OW57519   2.619   6.989   9.497
51896SOL    HW157520   2.575   7.023   9.419
51896SOL    HW257521   2.712   6.998   9.478
51897SOL     OW57522  12.993   3.814   4.401
51897SOL    HW157523  13.055   3.750   4.364
51897SOL    HW257524  12.997   3.888   4.340
51898SOL     OW57525   2.938   0.860   2.670
51898SOL    HW157526   2.873   0.833   2.735
51898SOL    HW257527   2.920   0.953   2.655
51899SOL     OW57528  10.087   1.306   3.725
51899SOL    HW157529  10.139   1.287   3.803
51899SOL    HW257530  10.146   1.286   3.652
51900SOL     OW57531  12.724  11.721   0.666
51900SOL    HW157532  12.791  11.669   0.710
51900SOL    HW257533  12.665  11.657   0.626
51901SOL     OW57534   1.013  10.464   4.428
51901SOL    HW157535   0.942  10.402   4.409
51901SOL    HW257536   0.990  10.542   4.377
51902SOL     OW57537  11.186  13.152   4.927
51902SOL    HW157538  11.253  13.141   4.860
51902SOL    HW257539  11.229  13.127   5.009
51903SOL     OW57540   8.061   6.103   5.978
51903SOL    HW157541   7.972   6.116   6.010
51903SOL    HW257542   8.058   6.017   5.935
51904SOL     OW57543   4.528  10.488   5.007
51904SOL    HW157544   4.574  10.512   5.087
51904SOL    HW257545   4.514  10.570   4.961
51905SOL     OW57546  14.072   0.866  10.468
51905SOL    HW157547  14.136   0.824  10.525
51905SOL    HW257548  14.049   0.947  10.513
51906SOL     OW57549   8.207   1.338   5.739
51906SOL    HW157550   8.117   1.317   5.714
51906SOL    HW257551   8.203   1.428   5.772
51907SOL     OW57552  13.090   8.633   3.624
51907SOL    HW157553  13.016   8.572   3.625
51907SOL    HW257554  13.156   8.591   3.679
51908SOL     OW57555  12.161   1.383   4.402
51908SOL    HW157556  12.189   1.292   4.413
51908SOL    HW257557  12.128   1.387   4.312
51909SOL     OW57558  13.004   6.784  14.343
51909SOL    HW157559  12.985   6.796  14.436
51909SOL    HW257560  12.919   6.795  14.300
51910SOL     OW57561   4.016   0.098  13.680
51910SOL    HW157562   4.074   0.104  13.604
51910SOL    HW257563   3.997   0.004  13.688
51911SOL     OW57564   2.820   3.185   8.886
51911SOL    HW157565   2.769   3.263   8.863
51911SOL    HW257566   2.777   3.113   8.841
51912SOL     OW57567  10.594   6.621  12.255
51912SOL    HW157568  10.553   6.676  12.188
51912SOL    HW257569  10.638   6.552  12.205
51913SOL     OW57570   9.892  13.929  10.587
51913SOL    HW157571   9.852  13.847  10.557
51913SOL    HW257572   9.842  13.997  10.542
51914SOL     OW57573   6.501  13.195   2.820
51914SOL    HW157574   6.540  13.168   2.904
51914SOL    HW257575   6.493  13.290   2.826
51915SOL     OW57576   9.725   3.643   6.881
51915SOL    HW157577   9.763   3.633   6.794
51915SOL    HW257578   9.673   3.563   6.894
51916SOL     OW57579   6.015   6.220   9.180
51916SOL    HW157580   5.976   6.140   9.147
51916SOL    HW257581   5.961   6.245   9.255
51917SOL     OW57582   7.850   0.975  10.733
51917SOL    HW157583   7.767   0.934  10.755
51917SOL    HW257584   7.826   1.057  10.690
51918SOL     OW57585   1.563   6.110  12.363
51918SOL    HW157586   1.490   6.070  12.409
51918SOL    HW257587   1.612   6.156  12.431
51919SOL     OW57588   7.217   2.851   7.603
51919SOL    HW157589   7.257   2.840   7.689
51919SOL    HW257590   7.154   2.778   7.597
51920SOL     OW57591  12.648  12.396  10.937
51920SOL    HW157592  12.563  12.438  10.950
51920SOL    HW257593  12.699  12.420  11.015
51921SOL     OW57594   4.725   1.588  10.017
51921SOL    HW157595   4.695   1.580   9.927
51921SOL    HW257596   4.645   1.590  10.069
51922SOL     OW57597   9.053  10.479   2.205
51922SOL    HW157598   9.117  10.423   2.161
51922SOL    HW257599   9.047  10.556   2.149
51923SOL     OW57600  12.988   8.474   3.141
51923SOL    HW157601  12.986   8.380   3.121
51923SOL    HW257602  13.078   8.491   3.169
51924SOL     OW57603   5.536  10.354   2.363
51924SOL    HW157604   5.616  10.311   2.332
51924SOL    HW257605   5.473  10.340   2.292
51925SOL     OW57606   3.364   8.453   0.266
51925SOL    HW157607   3.379   8.443   0.172
51925SOL    HW257608   3.433   8.512   0.295
51926SOL     OW57609   1.020   8.785  13.673
51926SOL    HW157610   0.941   8.743  13.640
51926SOL    HW257611   1.039   8.742  13.756
51927SOL     OW57612   3.196   7.254  13.206
51927SOL    HW157613   3.148   7.308  13.143
51927SOL    HW257614   3.283   7.294  13.210
51928SOL     OW57615  10.904   4.263   8.670
51928SOL    HW157616  10.814   4.291   8.658
51928SOL    HW257617  10.907   4.227   8.758
51929SOL     OW57618  10.359   5.198  13.178
51929SOL    HW157619  10.427   5.155  13.231
51929SOL    HW257620  10.302   5.240  13.242
51930SOL     OW57621   7.465  14.541   3.956
51930SOL    HW157622   7.493  14.629   3.931
51930SOL    HW257623   7.491  14.533   4.047
51931SOL     OW57624   7.087  12.042   5.587
51931SOL    HW157625   7.003  12.079   5.559
51931SOL    HW257626   7.125  12.110   5.643
51932SOL     OW57627   5.803   0.205   8.132
51932SOL    HW157628   5.808   0.132   8.194
51932SOL    HW257629   5.784   0.282   8.186
51933SOL     OW57630  13.884   9.225   7.278
51933SOL    HW157631  13.917   9.277   7.351
51933SOL    HW257632  13.792   9.251   7.270
51934SOL     OW57633  14.397   8.504   3.946
51934SOL    HW157634  14.483   8.494   3.987
51934SOL    HW257635  14.364   8.415   3.936
51935SOL     OW57636   2.077  13.606  11.178
51935SOL    HW157637   2.110  13.525  11.216
51935SOL    HW257638   2.120  13.675  11.228
51936SOL     OW57639  12.995  13.366   9.501
51936SOL    HW157640  12.948  13.336   9.578
51936SOL    HW257641  12.956  13.451   9.479
51937SOL     OW57642   9.283   0.630   1.438
51937SOL    HW157643   9.219   0.700   1.452
51937SOL    HW257644   9.247   0.555   1.485
51938SOL     OW57645  12.883  13.144   2.448
51938SOL    HW157646  12.861  13.231   2.480
51938SOL    HW257647  12.854  13.085   2.518
51939SOL     OW57648   9.778   0.098  14.789
51939SOL    HW157649   9.729   0.177  14.813
51939SOL    HW257650   9.713   0.042  14.747
51940SOL     OW57651   0.095   4.191   0.381
51940SOL    HW157652   0.188   4.198   0.403
51940SOL    HW257653   0.070   4.280   0.354
51941SOL     OW57654   4.939   0.439   1.547
51941SOL    HW157655   4.848   0.467   1.542
51941SOL    HW257656   4.989   0.516   1.519
51942SOL     OW57657   8.910   0.162   5.362
51942SOL    HW157658   8.905   0.258   5.368
51942SOL    HW257659   8.901   0.132   5.452
51943SOL     OW57660   5.914   7.577  10.196
51943SOL    HW157661   5.876   7.639  10.258
51943SOL    HW257662   5.858   7.500  10.201
51944SOL     OW57663   4.198  14.259   4.040
51944SOL    HW157664   4.119  14.312   4.029
51944SOL    HW257665   4.227  14.277   4.129
51945SOL     OW57666   5.916  11.385   6.375
51945SOL    HW157667   5.912  11.446   6.301
51945SOL    HW257668   5.832  11.394   6.419
51946SOL     OW57669   6.064  11.934   1.263
51946SOL    HW157670   6.089  11.921   1.172
51946SOL    HW257671   6.033  12.024   1.268
51947SOL     OW57672   8.614   0.070   3.446
51947SOL    HW157673   8.626   0.160   3.415
51947SOL    HW257674   8.697   0.027   3.425
51948SOL     OW57675   3.811   9.847   9.102
51948SOL    HW157676   3.884   9.817   9.157
51948SOL    HW257677   3.819   9.796   9.022
51949SOL     OW57678   1.195   9.753   3.231
51949SOL    HW157679   1.167   9.815   3.299
51949SOL    HW257680   1.289   9.742   3.246
51950SOL     OW57681   9.048  10.609   1.095
51950SOL    HW157682   9.046  10.568   1.181
51950SOL    HW257683   9.108  10.682   1.104
51951SOL     OW57684  12.765   9.256   8.914
51951SOL    HW157685  12.696   9.293   8.858
51951SOL    HW257686  12.843   9.254   8.859
51952SOL     OW57687   5.715  13.450  11.168
51952SOL    HW157688   5.644  13.400  11.128
51952SOL    HW257689   5.782  13.456  11.100
51953SOL     OW57690  12.208   2.982  11.436
51953SOL    HW157691  12.260   2.906  11.461
51953SOL    HW257692  12.257   3.057  11.469
51954SOL     OW57693   4.653   5.627   5.395
51954SOL    HW157694   4.676   5.544   5.355
51954SOL    HW257695   4.649   5.609   5.488
51955SOL     OW57696  13.390  12.297   1.304
51955SOL    HW157697  13.313  12.291   1.360
51955SOL    HW257698  13.460  12.327   1.362
51956SOL     OW57699  14.200   6.064   5.604
51956SOL    HW157700  14.159   6.125   5.666
51956SOL    HW257701  14.282   6.105   5.580
51957SOL     OW57702  13.875   2.630   0.182
51957SOL    HW157703  13.836   2.571   0.246
51957SOL    HW257704  13.888   2.577   0.104
51958SOL     OW57705   3.700   5.372   7.803
51958SOL    HW157706   3.607   5.374   7.781
51958SOL    HW257707   3.733   5.292   7.764
51959SOL     OW57708   4.706  10.276   4.012
51959SOL    HW157709   4.737  10.258   3.922
51959SOL    HW257710   4.615  10.302   4.001
51960SOL     OW57711   6.935   7.993   1.783
51960SOL    HW157712   7.016   7.977   1.733
51960SOL    HW257713   6.869   8.008   1.716
51961SOL     OW57714  12.640   4.042  11.235
51961SOL    HW157715  12.659   4.057  11.327
51961SOL    HW257716  12.580   4.112  11.211
51962SOL     OW57717   6.934   6.061  11.335
51962SOL    HW157718   6.991   6.050  11.259
51962SOL    HW257719   6.994   6.060  11.410
51963SOL     OW57720   2.690   8.643   6.747
51963SOL    HW157721   2.620   8.581   6.768
51963SOL    HW257722   2.645   8.721   6.714
51964SOL     OW57723   9.241   9.407   0.056
51964SOL    HW157724   9.246   9.496   0.020
51964SOL    HW257725   9.241   9.419   0.151
51965SOL     OW57726  11.287   0.229  11.793
51965SOL    HW157727  11.348   0.169  11.751
51965SOL    HW257728  11.322   0.316  11.774
51966SOL     OW57729   1.693  10.035   6.890
51966SOL    HW157730   1.614  10.001   6.848
51966SOL    HW257731   1.706  10.121   6.851
51967SOL     OW57732   1.726  14.323  14.621
51967SOL    HW157733   1.714  14.250  14.560
51967SOL    HW257734   1.686  14.398  14.576
51968SOL     OW57735  10.958   5.466   0.039
51968SOL    HW157736  10.893   5.468  14.850
51968SOL    HW257737  10.971   5.557   0.062
51969SOL     OW57738  12.838   1.495  13.239
51969SOL    HW157739  12.795   1.580  13.250
51969SOL    HW257740  12.929   1.517  13.217
51970SOL     OW57741   4.914   3.461  10.646
51970SOL    HW157742   4.896   3.500  10.561
51970SOL    HW257743   4.907   3.533  10.708
51971SOL     OW57744   6.389   9.702   1.963
51971SOL    HW157745   6.360   9.628   1.910
51971SOL    HW257746   6.477   9.677   1.991
51972SOL     OW57747  13.524  10.885   0.632
51972SOL    HW157748  13.606  10.883   0.583
51972SOL    HW257749  13.550  10.914   0.720
51973SOL     OW57750  13.339   6.416  13.880
51973SOL    HW157751  13.312   6.334  13.919
51973SOL    HW257752  13.426   6.433  13.916
51974SOL     OW57753   7.731  10.662  12.548
51974SOL    HW157754   7.635  10.666  12.549
51974SOL    HW257755   7.757  10.705  12.629
51975SOL     OW57756   3.955   0.717   0.671
51975SOL    HW157757   3.893   0.766   0.725
51975SOL    HW257758   3.992   0.652   0.731
51976SOL     OW57759  12.883  13.343   9.752
51976SOL    HW157760  12.847  13.420   9.796
51976SOL    HW257761  12.819  13.273   9.770
51977SOL     OW57762   0.362   1.564  11.396
51977SOL    HW157763   0.422   1.638  11.398
51977SOL    HW257764   0.346   1.549  11.303
51978SOL     OW57765  10.728   8.585   3.451
51978SOL    HW157766  10.750   8.620   3.365
51978SOL    HW257767  10.805   8.605   3.505
51979SOL     OW57768  12.231  11.771   8.160
51979SOL    HW157769  12.241  11.865   8.174
51979SOL    HW257770  12.136  11.756   8.165
51980SOL     OW57771   7.951  11.396   2.023
51980SOL    HW157772   7.857  11.383   2.008
51980SOL    HW257773   7.973  11.333   2.091
51981SOL     OW57774   6.780   0.008   7.071
51981SOL    HW157775   6.861   0.041   7.110
51981SOL    HW257776   6.806  14.808   7.029
51982SOL     OW57777  11.410  10.116   4.225
51982SOL    HW157778  11.328  10.149   4.262
51982SOL    HW257779  11.393  10.023   4.207
51983SOL     OW57780   9.756   6.199   4.712
51983SOL    HW157781   9.827   6.251   4.749
51983SOL    HW257782   9.785   6.108   4.721
51984SOL     OW57783   0.040   3.453   5.145
51984SOL    HW157784  14.841   3.415   5.181
51984SOL    HW257785   0.110   3.404   5.187
51985SOL     OW57786   8.000   1.481   9.210
51985SOL    HW157787   8.025   1.509   9.122
51985SOL    HW257788   7.973   1.562   9.254
51986SOL     OW57789   4.958   4.753   1.188
51986SOL    HW157790   5.017   4.690   1.145
51986SOL    HW257791   4.967   4.833   1.136
51987SOL     OW57792  10.522   5.288   7.888
51987SOL    HW157793  10.504   5.201   7.924
51987SOL    HW257794  10.456   5.344   7.928
51988SOL     OW57795   2.124   3.875   7.123
51988SOL    HW157796   2.059   3.805   7.116
51988SOL    HW257797   2.076   3.948   7.163
51989SOL     OW57798  12.185   0.943   5.225
51989SOL    HW157799  12.247   0.992   5.170
51989SOL    HW257800  12.237   0.911   5.298
51990SOL     OW57801   9.406   3.245   0.314
51990SOL    HW157802   9.398   3.212   0.225
51990SOL    HW257803   9.439   3.170   0.364
51991SOL     OW57804   2.555   4.784   9.937
51991SOL    HW157805   2.648   4.798   9.922
51991SOL    HW257806   2.546   4.786  10.033
51992SOL     OW57807   9.317  12.833   1.190
51992SOL    HW157808   9.317  12.771   1.264
51992SOL    HW257809   9.344  12.916   1.229
51993SOL     OW57810  11.091   0.178   8.422
51993SOL    HW157811  11.035   0.122   8.369
51993SOL    HW257812  11.163   0.121   8.449
51994SOL     OW57813  14.457   9.451   4.683
51994SOL    HW157814  14.459   9.530   4.628
51994SOL    HW257815  14.367   9.444   4.712
51995SOL     OW57816  11.957   9.629  14.738
51995SOL    HW157817  11.981   9.644  14.830
51995SOL    HW257818  11.887   9.563  14.742
51996SOL     OW57819  10.472   1.970   0.540
51996SOL    HW157820  10.516   1.887   0.520
51996SOL    HW257821  10.496   2.028   0.468
51997SOL     OW57822   3.698   9.880  14.316
51997SOL    HW157823   3.683   9.791  14.349
51997SOL    HW257824   3.794   9.888  14.311
51998SOL     OW57825   0.661  11.218   2.154
51998SOL    HW157826   0.598  11.196   2.085
51998SOL    HW257827   0.739  11.247   2.106
51999SOL     OW57828   3.422   5.905   2.429
51999SOL    HW157829   3.387   5.962   2.498
51999SOL    HW257830   3.477   5.842   2.477
52000SOL     OW57831   4.328   6.100   9.657
52000SOL    HW157832   4.264   6.090   9.728
52000SOL    HW257833   4.400   6.148   9.697
52001SOL     OW57834  10.221   6.141  11.464
52001SOL    HW157835  10.235   6.233  11.485
52001SOL    HW257836  10.308   6.108  11.440
52002SOL     OW57837   8.110  13.075   6.194
52002SOL    HW157838   8.057  12.996   6.198
52002SOL    HW257839   8.164  13.073   6.273
52003SOL     OW57840   6.353   0.212   0.109
52003SOL    HW157841   6.274   0.249   0.149
52003SOL    HW257842   6.401   0.287   0.075
52004SOL     OW57843   8.272   1.110   8.413
52004SOL    HW157844   8.358   1.105   8.371
52004SOL    HW257845   8.213   1.069   8.350
52005SOL     OW57846   3.719   7.395  13.460
52005SOL    HW157847   3.723   7.301  13.479
52005SOL    HW257848   3.762   7.403  13.375
52006SOL     OW57849   2.228  11.578   3.321
52006SOL    HW157850   2.224  11.482   3.316
52006SOL    HW257851   2.319  11.599   3.298
52007SOL     OW57852  14.066  11.698   6.843
52007SOL    HW157853  14.110  11.783   6.833
52007SOL    HW257854  13.997  11.715   6.908
52008SOL     OW57855   3.055   2.126  14.474
52008SOL    HW157856   2.976   2.168  14.441
52008SOL    HW257857   3.040   2.119  14.569
52009SOL     OW57858   0.938  11.534  12.843
52009SOL    HW157859   0.929  11.451  12.889
52009SOL    HW257860   1.028  11.533  12.811
52010SOL     OW57861  11.655   4.953   2.696
52010SOL    HW157862  11.734   4.978   2.743
52010SOL    HW257863  11.621   5.036   2.661
52011SOL     OW57864  11.333   0.794   2.235
52011SOL    HW157865  11.358   0.788   2.327
52011SOL    HW257866  11.407   0.836   2.192
52012SOL     OW57867  13.340   3.445   8.431
52012SOL    HW157868  13.375   3.457   8.519
52012SOL    HW257869  13.309   3.531   8.405
52013SOL     OW57870   7.853  12.034  10.948
52013SOL    HW157871   7.948  12.030  10.959
52013SOL    HW257872   7.838  12.014  10.856
52014SOL     OW57873   7.998   4.787   7.442
52014SOL    HW157874   7.979   4.778   7.535
52014SOL    HW257875   8.061   4.718   7.423
52015SOL     OW57876   8.504  14.028  12.614
52015SOL    HW157877   8.537  14.061  12.531
52015SOL    HW257878   8.557  13.951  12.633
52016SOL     OW57879   2.537   5.309   3.090
52016SOL    HW157880   2.453   5.271   3.064
52016SOL    HW257881   2.587   5.236   3.126
52017SOL     OW57882  12.536   1.475  13.829
52017SOL    HW157883  12.455   1.523  13.845
52017SOL    HW257884  12.541   1.412  13.901
52018SOL     OW57885   7.977   6.014   5.386
52018SOL    HW157886   7.976   6.020   5.482
52018SOL    HW257887   7.933   6.094   5.357
52019SOL     OW57888   7.870   1.529  10.198
52019SOL    HW157889   7.797   1.529  10.136
52019SOL    HW257890   7.890   1.621  10.213
52020SOL     OW57891   5.817   0.381  10.447
52020SOL    HW157892   5.749   0.447  10.463
52020SOL    HW257893   5.834   0.386  10.353
52021SOL     OW57894  13.203  14.091   6.660
52021SOL    HW157895  13.283  14.042   6.679
52021SOL    HW257896  13.231  14.158   6.597
52022SOL     OW57897   4.466  10.124  10.787
52022SOL    HW157898   4.403  10.061  10.752
52022SOL    HW257899   4.550  10.079  10.783
52023SOL     OW57900  12.959   0.573  14.631
52023SOL    HW157901  12.970   0.658  14.588
52023SOL    HW257902  12.958   0.509  14.560
52024SOL     OW57903   6.239  12.507   2.103
52024SOL    HW157904   6.170  12.449   2.135
52024SOL    HW257905   6.286  12.535   2.182
52025SOL     OW57906  14.168  14.363   4.907
52025SOL    HW157907  14.138  14.273   4.922
52025SOL    HW257908  14.258  14.364   4.939
52026SOL     OW57909   2.043  10.699   7.285
52026SOL    HW157910   2.034  10.784   7.241
52026SOL    HW257911   2.045  10.720   7.378
52027SOL     OW57912   0.352   4.825   4.339
52027SOL    HW157913   0.423   4.763   4.325
52027SOL    HW257914   0.274   4.771   4.350
52028SOL     OW57915   0.779   8.027   7.646
52028SOL    HW157916   0.724   7.956   7.678
52028SOL    HW257917   0.718   8.091   7.610
52029SOL     OW57918  11.089  10.482   5.031
52029SOL    HW157919  11.057  10.506   4.944
52029SOL    HW257920  11.151  10.551   5.054
52030SOL     OW57921   4.115  12.534   5.153
52030SOL    HW157922   4.080  12.621   5.172
52030SOL    HW257923   4.062  12.475   5.207
52031SOL     OW57924  10.418  12.443  13.151
52031SOL    HW157925  10.426  12.412  13.061
52031SOL    HW257926  10.333  12.410  13.180
52032SOL     OW57927   2.479   8.751   7.063
52032SOL    HW157928   2.407   8.730   7.003
52032SOL    HW257929   2.510   8.836   7.033
52033SOL     OW57930   6.310   6.173  14.781
52033SOL    HW157931   6.348   6.090  14.808
52033SOL    HW257932   6.292   6.162  14.687
52034SOL     OW57933   2.704   5.181  14.689
52034SOL    HW157934   2.784   5.235  14.687
52034SOL    HW257935   2.646   5.222  14.625
52035SOL     OW57936   0.727   6.661  10.200
52035SOL    HW157937   0.794   6.724  10.229
52035SOL    HW257938   0.773   6.603  10.140
52036SOL     OW57939   8.658  14.644  10.163
52036SOL    HW157940   8.726  14.641  10.230
52036SOL    HW257941   8.697  14.692  10.090
52037SOL     OW57942   7.110   4.127  10.408
52037SOL    HW157943   7.113   4.210  10.456
52037SOL    HW257944   7.189   4.080  10.436
52038SOL     OW57945  10.462   7.052   8.875
52038SOL    HW157946  10.545   7.084   8.842
52038SOL    HW257947  10.483   7.012   8.959
52039SOL     OW57948  11.753  12.927  11.615
52039SOL    HW157949  11.657  12.930  11.605
52039SOL    HW257950  11.778  13.018  11.630
52040SOL     OW57951   0.258   1.393  13.256
52040SOL    HW157952   0.284   1.309  13.294
52040SOL    HW257953   0.323   1.456  13.288
52041SOL     OW57954  13.153   6.787   4.448
52041SOL    HW157955  13.178   6.872   4.482
52041SOL    HW257956  13.063   6.774   4.479
52042SOL     OW57957   8.814   0.494   3.446
52042SOL    HW157958   8.742   0.480   3.506
52042SOL    HW257959   8.863   0.568   3.483
52043SOL     OW57960   7.661   0.861   5.110
52043SOL    HW157961   7.584   0.874   5.166
52043SOL    HW257962   7.685   0.769   5.124
52044SOL     OW57963   9.124  10.417   4.627
52044SOL    HW157964   9.076  10.339   4.600
52044SOL    HW257965   9.209  10.384   4.655
52045SOL     OW57966   9.284   3.073   1.742
52045SOL    HW157967   9.285   3.168   1.732
52045SOL    HW257968   9.193   3.052   1.762
52046SOL     OW57969  13.165   6.093  13.111
52046SOL    HW157970  13.097   6.049  13.059
52046SOL    HW257971  13.240   6.035  13.106
52047SOL     OW57972   6.949   0.777   9.249
52047SOL    HW157973   7.041   0.754   9.260
52047SOL    HW257974   6.932   0.764   9.155
52048SOL     OW57975   3.044   7.518   2.053
52048SOL    HW157976   2.995   7.583   2.104
52048SOL    HW257977   3.094   7.570   1.990
52049SOL     OW57978   2.921   6.047   6.268
52049SOL    HW157979   2.865   6.082   6.199
52049SOL    HW257980   2.862   6.031   6.342
52050SOL     OW57981   2.305   5.992  10.082
52050SOL    HW157982   2.280   5.981  10.174
52050SOL    HW257983   2.254   6.067  10.052
52051SOL     OW57984   8.605   5.369   9.380
52051SOL    HW157985   8.693   5.337   9.359
52051SOL    HW257986   8.576   5.412   9.300
52052SOL     OW57987   0.219  13.540   0.695
52052SOL    HW157988   0.269  13.617   0.722
52052SOL    HW257989   0.227  13.479   0.768
52053SOL     OW57990  12.543   8.332   3.438
52053SOL    HW157991  12.571   8.303   3.351
52053SOL    HW257992  12.515   8.251   3.482
52054SOL     OW57993   2.578   6.434   8.722
52054SOL    HW157994   2.666   6.435   8.683
52054SOL    HW257995   2.551   6.342   8.717
52055SOL     OW57996   4.464   0.977   4.047
52055SOL    HW157997   4.535   0.991   4.110
52055SOL    HW257998   4.501   0.915   3.984
52056SOL     OW57999   3.363  11.537   7.856
52056SOL    HW158000   3.452  11.521   7.827
52056SOL    HW258001   3.308  11.500   7.787
52057SOL     OW58002  13.436   7.177   9.466
52057SOL    HW158003  13.414   7.094   9.510
52057SOL    HW258004  13.378   7.241   9.506
52058SOL     OW58005   9.726   9.558   1.636
52058SOL    HW158006   9.783   9.490   1.600
52058SOL    HW258007   9.640   9.516   1.643
52059SOL     OW58008   2.142   5.496  12.682
52059SOL    HW158009   2.122   5.420  12.627
52059SOL    HW258010   2.062   5.511  12.732
52060SOL     OW58011  13.887   9.371  14.720
52060SOL    HW158012  13.961   9.414  14.676
52060SOL    HW258013  13.893   9.279  14.692
52061SOL     OW58014   0.723   0.137  10.816
52061SOL    HW158015   0.776   0.064  10.784
52061SOL    HW258016   0.643   0.096  10.848
52062SOL     OW58017   9.618   1.016  13.659
52062SOL    HW158018   9.643   0.927  13.637
52062SOL    HW258019   9.526   1.023  13.633
52063SOL     OW58020   3.338   4.242   0.158
52063SOL    HW158021   3.370   4.208   0.075
52063SOL    HW258022   3.261   4.189   0.178
52064SOL     OW58023   4.056  12.232  12.176
52064SOL    HW158024   3.993  12.252  12.107
52064SOL    HW258025   4.067  12.137  12.171
52065SOL     OW58026   2.687   7.606   6.237
52065SOL    HW158027   2.729   7.678   6.285
52065SOL    HW258028   2.600   7.598   6.276
52066SOL     OW58029  13.172  14.463   1.623
52066SOL    HW158030  13.230  14.502   1.557
52066SOL    HW258031  13.154  14.375   1.590
52067SOL     OW58032  10.098  10.456   5.634
52067SOL    HW158033  10.006  10.466   5.658
52067SOL    HW258034  10.142  10.532   5.673
52068SOL     OW58035   6.723  14.291   8.794
52068SOL    HW158036   6.810  14.272   8.757
52068SOL    HW258037   6.666  14.224   8.756
52069SOL     OW58038   4.770   9.818   6.786
52069SOL    HW158039   4.748   9.805   6.878
52069SOL    HW258040   4.805   9.907   6.783
52070SOL     OW58041   9.091  11.868   5.753
52070SOL    HW158042   9.040  11.828   5.682
52070SOL    HW258043   9.038  11.852   5.832
52071SOL     OW58044  11.759  12.371  12.275
52071SOL    HW158045  11.791  12.336  12.358
52071SOL    HW258046  11.669  12.399  12.294
52072SOL     OW58047  13.447   2.037  12.237
52072SOL    HW158048  13.429   2.092  12.161
52072SOL    HW258049  13.506   2.090  12.291
52073SOL     OW58050   8.823   5.361   2.682
52073SOL    HW158051   8.742   5.334   2.638
52073SOL    HW258052   8.797   5.372   2.774
52074SOL     OW58053   1.749   2.289   3.518
52074SOL    HW158054   1.659   2.300   3.549
52074SOL    HW258055   1.778   2.378   3.497
52075SOL     OW58056  10.530   3.100   0.813
52075SOL    HW158057  10.528   3.010   0.779
52075SOL    HW258058  10.478   3.151   0.751
52076SOL     OW58059   8.866   6.034  14.687
52076SOL    HW158060   8.784   6.030  14.638
52076SOL    HW258061   8.839   6.039  14.779
52077SOL     OW58062  10.905   1.246   7.231
52077SOL    HW158063  10.884   1.198   7.311
52077SOL    HW258064  10.857   1.328   7.239
52078SOL     OW58065  12.881  11.291  14.029
52078SOL    HW158066  12.935  11.242  14.092
52078SOL    HW258067  12.792  11.285  14.064
52079SOL     OW58068  10.091   2.491   8.823
52079SOL    HW158069  10.011   2.443   8.844
52079SOL    HW258070  10.153   2.424   8.795
52080SOL     OW58071  11.017   3.919   5.740
52080SOL    HW158072  10.953   3.975   5.696
52080SOL    HW258073  10.980   3.904   5.827
52081SOL     OW58074   6.764   7.905   8.547
52081SOL    HW158075   6.686   7.945   8.508
52081SOL    HW258076   6.783   7.829   8.492
52082SOL     OW58077   7.004   6.365   9.691
52082SOL    HW158078   7.006   6.309   9.613
52082SOL    HW258079   7.084   6.417   9.685
52083SOL     OW58080  11.063   1.282   1.799
52083SOL    HW158081  11.036   1.199   1.759
52083SOL    HW258082  11.159   1.281   1.794
52084SOL     OW58083   8.567  10.190  14.316
52084SOL    HW158084   8.528  10.190  14.403
52084SOL    HW258085   8.601  10.278  14.305
52085SOL     OW58086   6.519   0.612  10.491
52085SOL    HW158087   6.475   0.558  10.425
52085SOL    HW258088   6.524   0.699  10.452
52086SOL     OW58089  13.360   6.264   1.803
52086SOL    HW158090  13.419   6.335   1.830
52086SOL    HW258091  13.313   6.300   1.728
52087SOL     OW58092   1.999   5.079  14.442
52087SOL    HW158093   2.000   5.148  14.509
52087SOL    HW258094   2.079   5.094  14.391
52088SOL     OW58095  11.831   7.761   9.953
52088SOL    HW158096  11.868   7.845   9.925
52088SOL    HW258097  11.851   7.756  10.046
52089SOL     OW58098   5.163  10.729  14.005
52089SOL    HW158099   5.145  10.777  13.924
52089SOL    HW258100   5.112  10.775  14.071
52090SOL     OW58101  11.500   1.462  12.657
52090SOL    HW158102  11.581   1.410  12.660
52090SOL    HW258103  11.474   1.470  12.749
52091SOL     OW58104  11.838   3.487   9.870
52091SOL    HW158105  11.821   3.442   9.787
52091SOL    HW258106  11.925   3.525   9.859
52092SOL     OW58107  13.893  10.058   7.167
52092SOL    HW158108  13.961  10.045   7.101
52092SOL    HW258109  13.928  10.018   7.247
52093SOL     OW58110   1.395   3.285   1.591
52093SOL    HW158111   1.386   3.290   1.686
52093SOL    HW258112   1.389   3.375   1.560
52094SOL     OW58113  12.211   2.793   4.661
52094SOL    HW158114  12.136   2.739   4.636
52094SOL    HW258115  12.203   2.871   4.606
52095SOL     OW58116   0.818   0.336  11.429
52095SOL    HW158117   0.731   0.306  11.403
52095SOL    HW258118   0.853   0.378  11.351
52096SOL     OW58119  11.071   8.865   9.284
52096SOL    HW158120  11.065   8.937   9.222
52096SOL    HW258121  11.024   8.793   9.242
52097SOL     OW58122   9.325   0.449  13.093
52097SOL    HW158123   9.413   0.480  13.071
52097SOL    HW258124   9.339   0.365  13.136
52098SOL     OW58125   0.875   5.905  13.773
52098SOL    HW158126   0.941   5.931  13.837
52098SOL    HW258127   0.919   5.911  13.688
52099SOL     OW58128   4.707   6.789   8.775
52099SOL    HW158129   4.793   6.763   8.809
52099SOL    HW258130   4.686   6.869   8.822
52100SOL     OW58131   1.317   1.293   7.006
52100SOL    HW158132   1.235   1.252   6.978
52100SOL    HW258133   1.348   1.239   7.078
52101SOL     OW58134  11.905   7.387   6.677
52101SOL    HW158135  11.874   7.418   6.592
52101SOL    HW258136  11.896   7.291   6.671
52102SOL     OW58137   6.531   7.887  14.575
52102SOL    HW158138   6.556   7.979  14.569
52102SOL    HW258139   6.592   7.850  14.639
52103SOL     OW58140   2.319   4.849   5.312
52103SOL    HW158141   2.223   4.852   5.314
52103SOL    HW258142   2.345   4.850   5.404
52104SOL     OW58143   1.519   7.322   8.180
52104SOL    HW158144   1.544   7.376   8.106
52104SOL    HW258145   1.447   7.267   8.147
52105SOL     OW58146   8.512   4.339  13.345
52105SOL    HW158147   8.592   4.363  13.393
52105SOL    HW258148   8.530   4.366  13.255
52106SOL     OW58149   4.985   6.781  14.262
52106SOL    HW158150   4.969   6.765  14.169
52106SOL    HW258151   4.901   6.764  14.305
52107SOL     OW58152   5.557  14.614   4.879
52107SOL    HW158153   5.501  14.685   4.912
52107SOL    HW258154   5.558  14.550   4.951
52108SOL     OW58155   1.250  11.716   1.807
52108SOL    HW158156   1.282  11.803   1.784
52108SOL    HW258157   1.199  11.730   1.887
52109SOL     OW58158   4.837   7.797  14.769
52109SOL    HW158159   4.826   7.890  14.785
52109SOL    HW258160   4.826   7.787  14.674
52110SOL     OW58161  14.555   6.433  11.620
52110SOL    HW158162  14.638   6.479  11.637
52110SOL    HW258163  14.492   6.476  11.679
52111SOL     OW58164   1.833   6.095  13.578
52111SOL    HW158165   1.763   6.118  13.639
52111SOL    HW258166   1.823   6.001  13.564
52112SOL     OW58167   2.581   1.801   0.215
52112SOL    HW158168   2.606   1.886   0.251
52112SOL    HW258169   2.515   1.767   0.276
52113SOL     OW58170  14.238   2.521   5.959
52113SOL    HW158171  14.288   2.578   5.900
52113SOL    HW258172  14.270   2.433   5.940
52114SOL     OW58173   0.766  12.000   7.143
52114SOL    HW158174   0.830  12.032   7.080
52114SOL    HW258175   0.733  11.919   7.104
52115SOL     OW58176  13.137   7.550   8.117
52115SOL    HW158177  13.078   7.625   8.121
52115SOL    HW258178  13.225   7.588   8.122
52116SOL     OW58179   7.870  11.912   0.186
52116SOL    HW158180   7.889  11.975   0.256
52116SOL    HW258181   7.784  11.937   0.154
52117SOL     OW58182   0.065   6.038   0.027
52117SOL    HW158183   0.145   6.077  14.874
52117SOL    HW258184   0.078   5.944   0.016
52118SOL     OW58185  11.184   8.691   8.070
52118SOL    HW158186  11.133   8.656   8.143
52118SOL    HW258187  11.274   8.665   8.089
52119SOL     OW58188   6.661  14.742   4.771
52119SOL    HW158189   6.716  14.690   4.829
52119SOL    HW258190   6.629  14.680   4.706
52120SOL     OW58191  11.903   7.230   0.459
52120SOL    HW158192  11.953   7.167   0.512
52120SOL    HW258193  11.966   7.266   0.397
52121SOL     OW58194   1.577  11.542   4.435
52121SOL    HW158195   1.545  11.565   4.522
52121SOL    HW258196   1.611  11.453   4.445
52122SOL     OW58197  12.120   8.944   3.891
52122SOL    HW158198  12.188   8.964   3.955
52122SOL    HW258199  12.166   8.900   3.820
52123SOL     OW58200   2.000   9.052   2.455
52123SOL    HW158201   2.036   9.009   2.378
52123SOL    HW258202   1.906   9.031   2.453
52124SOL     OW58203   3.850  10.913   7.567
52124SOL    HW158204   3.913  10.946   7.503
52124SOL    HW258205   3.820  10.829   7.531
52125SOL     OW58206   0.623  10.330   2.955
52125SOL    HW158207   0.649  10.245   2.918
52125SOL    HW258208   0.584  10.308   3.040
52126SOL     OW58209  11.406   2.540  14.611
52126SOL    HW158210  11.486   2.590  14.594
52126SOL    HW258211  11.436   2.450  14.622
52127SOL     OW58212   2.857  10.915  10.047
52127SOL    HW158213   2.763  10.899  10.048
52127SOL    HW258214   2.870  10.989  10.106
52128SOL     OW58215  12.202   0.121   4.838
52128SOL    HW158216  12.243   0.047   4.881
52128SOL    HW258217  12.274   0.165   4.793
52129SOL     OW58218  11.415   5.559   5.404
52129SOL    HW158219  11.468   5.633   5.433
52129SOL    HW258220  11.373   5.526   5.484
52130SOL     OW58221   5.033  13.026   3.473
52130SOL    HW158222   5.098  13.073   3.421
52130SOL    HW258223   5.023  12.942   3.429
52131SOL     OW58224  11.220   3.142  13.928
52131SOL    HW158225  11.314   3.135  13.908
52131SOL    HW258226  11.184   3.194  13.857
52132SOL     OW58227   0.376   4.966   5.302
52132SOL    HW158228   0.402   4.874   5.297
52132SOL    HW258229   0.339   4.976   5.390
52133SOL     OW58230   4.679  14.749   4.438
52133SOL    HW158231   4.698  14.800   4.516
52133SOL    HW258232   4.622  14.806   4.386
52134SOL     OW58233  11.360   5.507   2.555
52134SOL    HW158234  11.337   5.595   2.584
52134SOL    HW258235  11.443   5.517   2.509
52135SOL     OW58236  10.580   8.635   3.089
52135SOL    HW158237  10.509   8.646   3.153
52135SOL    HW258238  10.657   8.670   3.132
52136SOL     OW58239   3.650  10.041   9.787
52136SOL    HW158240   3.610  10.128   9.780
52136SOL    HW258241   3.672  10.033   9.880
52137SOL     OW58242   9.302  14.558   7.189
52137SOL    HW158243   9.393  14.528   7.196
52137SOL    HW258244   9.289  14.615   7.264
52138SOL     OW58245  14.484   0.260   9.261
52138SOL    HW158246  14.570   0.294   9.236
52138SOL    HW258247  14.428   0.281   9.186
52139SOL     OW58248   0.675   8.855  10.778
52139SOL    HW158249   0.741   8.873  10.712
52139SOL    HW258250   0.719   8.800  10.842
52140SOL     OW58251   2.653  10.255   0.251
52140SOL    HW158252   2.722  10.319   0.267
52140SOL    HW258253   2.643  10.209   0.335
52141SOL     OW58254  14.532  13.736   2.023
52141SOL    HW158255  14.453  13.735   1.969
52141SOL    HW258256  14.504  13.699   2.107
52142SOL     OW58257  13.611   6.210   6.731
52142SOL    HW158258  13.651   6.124   6.742
52142SOL    HW258259  13.683   6.272   6.746
52143SOL     OW58260  10.123   7.666   3.144
52143SOL    HW158261  10.133   7.625   3.230
52143SOL    HW258262  10.181   7.743   3.148
52144SOL     OW58263   8.945  14.571   1.905
52144SOL    HW158264   8.935  14.635   1.835
52144SOL    HW258265   9.025  14.522   1.882
52145SOL     OW58266   9.783  13.229  13.595
52145SOL    HW158267   9.729  13.264  13.524
52145SOL    HW258268   9.797  13.138  13.572
52146SOL     OW58269  10.256  11.224   6.906
52146SOL    HW158270  10.202  11.279   6.963
52146SOL    HW258271  10.338  11.273   6.897
52147SOL     OW58272   8.638   5.941   6.717
52147SOL    HW158273   8.606   6.030   6.728
52147SOL    HW258274   8.612   5.896   6.797
52148SOL     OW58275   8.831  14.063   4.698
52148SOL    HW158276   8.755  14.065   4.756
52148SOL    HW258277   8.885  14.137   4.726
52149SOL     OW58278   1.088   5.583   2.805
52149SOL    HW158279   1.100   5.652   2.871
52149SOL    HW258280   1.055   5.630   2.728
52150SOL     OW58281   7.619   0.765   7.709
52150SOL    HW158282   7.560   0.797   7.640
52150SOL    HW258283   7.596   0.672   7.718
52151SOL     OW58284   7.053  10.848   5.114
52151SOL    HW158285   7.005  10.867   5.195
52151SOL    HW258286   7.073  10.755   5.119
52152SOL     OW58287   0.248  10.932   1.278
52152SOL    HW158288   0.194  10.953   1.355
52152SOL    HW258289   0.337  10.929   1.312
52153SOL     OW58290  11.192   4.743  10.442
52153SOL    HW158291  11.115   4.718  10.493
52153SOL    HW258292  11.203   4.671  10.379
52154SOL     OW58293  12.702   7.880   4.574
52154SOL    HW158294  12.697   7.827   4.495
52154SOL    HW258295  12.657   7.827   4.641
52155SOL     OW58296   6.182  11.022   5.665
52155SOL    HW158297   6.174  10.937   5.708
52155SOL    HW258298   6.137  11.011   5.581
52156SOL     OW58299  10.690   8.492  11.108
52156SOL    HW158300  10.681   8.490  11.012
52156SOL    HW258301  10.762   8.432  11.126
52157SOL     OW58302  12.962  14.375  10.169
52157SOL    HW158303  12.974  14.350  10.077
52157SOL    HW258304  13.022  14.449  10.182
52158SOL     OW58305   9.775  14.488   7.965
52158SOL    HW158306   9.722  14.522   7.893
52158SOL    HW258307   9.804  14.566   8.012
52159SOL     OW58308  11.733   2.285   1.237
52159SOL    HW158309  11.713   2.377   1.222
52159SOL    HW258310  11.824   2.275   1.211
52160SOL     OW58311   2.659   7.093  12.804
52160SOL    HW158312   2.599   7.147  12.753
52160SOL    HW258313   2.714   7.050  12.738
52161SOL     OW58314  12.390   5.793   3.653
52161SOL    HW158315  12.295   5.786   3.651
52161SOL    HW258316  12.417   5.736   3.725
52162SOL     OW58317  11.503   5.419   6.997
52162SOL    HW158318  11.553   5.492   7.034
52162SOL    HW258319  11.488   5.360   7.070
52163SOL     OW58320   6.956  12.994  13.831
52163SOL    HW158321   6.865  12.964  13.842
52163SOL    HW258322   6.949  13.069  13.773
52164SOL     OW58323  11.202   6.653   5.964
52164SOL    HW158324  11.168   6.670   5.876
52164SOL    HW258325  11.148   6.582   5.998
52165SOL     OW58326   0.272   3.429  13.113
52165SOL    HW158327   0.192   3.466  13.076
52165SOL    HW258328   0.314   3.503  13.158
52166SOL     OW58329   9.110   1.909   1.916
52166SOL    HW158330   9.193   1.897   1.869
52166SOL    HW258331   9.093   1.824   1.957
52167SOL     OW58332   6.493   3.533   0.156
52167SOL    HW158333   6.498   3.588   0.077
52167SOL    HW258334   6.511   3.593   0.228
52168SOL     OW58335  14.315   7.844   5.414
52168SOL    HW158336  14.301   7.789   5.492
52168SOL    HW258337  14.397   7.811   5.376
52169SOL     OW58338   5.211   4.305   2.498
52169SOL    HW158339   5.144   4.240   2.479
52169SOL    HW258340   5.258   4.316   2.415
52170SOL     OW58341  11.060   2.375   5.926
52170SOL    HW158342  11.016   2.332   5.853
52170SOL    HW258343  11.101   2.304   5.974
52171SOL     OW58344   5.161   7.736   6.007
52171SOL    HW158345   5.115   7.797   6.065
52171SOL    HW258346   5.164   7.654   6.055
52172SOL     OW58347   8.424   3.555   0.379
52172SOL    HW158348   8.374   3.484   0.340
52172SOL    HW258349   8.360   3.626   0.389
52173SOL     OW58350   1.995   0.599  14.477
52173SOL    HW158351   2.003   0.584  14.382
52173SOL    HW258352   2.033   0.686  14.490
52174SOL     OW58353   2.160  13.066   5.300
52174SOL    HW158354   2.208  12.990   5.266
52174SOL    HW258355   2.178  13.136   5.238
52175SOL     OW58356  11.746  12.876   3.905
52175SOL    HW158357  11.797  12.944   3.948
52175SOL    HW258358  11.669  12.922   3.871
52176SOL     OW58359   6.842   1.529   5.175
52176SOL    HW158360   6.925   1.531   5.224
52176SOL    HW258361   6.826   1.620   5.151
52177SOL     OW58362  12.797   2.257  13.081
52177SOL    HW158363  12.704   2.278  13.089
52177SOL    HW258364  12.805   2.170  13.120
52178SOL     OW58365   6.863   8.919   6.397
52178SOL    HW158366   6.797   8.939   6.463
52178SOL    HW258367   6.833   8.836   6.359
52179SOL     OW58368   6.723   5.507   3.050
52179SOL    HW158369   6.816   5.482   3.054
52179SOL    HW258370   6.698   5.519   3.142
52180SOL     OW58371   9.711  10.500   1.949
52180SOL    HW158372   9.676  10.449   2.022
52180SOL    HW258373   9.686  10.590   1.968
52181SOL     OW58374   4.936   7.474   0.512
52181SOL    HW158375   4.918   7.551   0.459
52181SOL    HW258376   4.995   7.505   0.581
52182SOL     OW58377  13.989   0.271   3.825
52182SOL    HW158378  13.898   0.284   3.852
52182SOL    HW258379  14.040   0.281   3.905
52183SOL     OW58380   9.763  12.372  10.169
52183SOL    HW158381   9.695  12.309  10.144
52183SOL    HW258382   9.786  12.416  10.087
52184SOL     OW58383   5.670   2.603  12.572
52184SOL    HW158384   5.720   2.638  12.498
52184SOL    HW258385   5.618   2.678  12.603
52185SOL     OW58386  10.869  12.032   7.647
52185SOL    HW158387  10.792  11.975   7.649
52185SOL    HW258388  10.884  12.049   7.554
52186SOL     OW58389  10.919   0.578   5.090
52186SOL    HW158390  10.947   0.554   5.178
52186SOL    HW258391  10.859   0.509   5.063
52187SOL     OW58392   4.436   5.653  14.227
52187SOL    HW158393   4.524   5.633  14.259
52187SOL    HW258394   4.434   5.748  14.221
52188SOL     OW58395   6.355   0.577  11.030
52188SOL    HW158396   6.266   0.550  11.006
52188SOL    HW258397   6.409   0.553  10.955
52189SOL     OW58398   9.779   5.771   9.845
52189SOL    HW158399   9.815   5.682   9.849
52189SOL    HW258400   9.798   5.809   9.931
52190SOL     OW58401  11.912   2.175   6.446
52190SOL    HW158402  11.984   2.226   6.408
52190SOL    HW258403  11.858   2.240   6.490
52191SOL     OW58404   7.410   2.673   2.526
52191SOL    HW158405   7.485   2.730   2.539
52191SOL    HW258406   7.422   2.637   2.438
52192SOL     OW58407   3.985   1.059   8.980
52192SOL    HW158408   3.930   1.048   9.058
52192SOL    HW258409   3.924   1.092   8.913
52193SOL     OW58410  13.613  11.862   7.086
52193SOL    HW158411  13.650  11.787   7.132
52193SOL    HW258412  13.599  11.831   6.997
52194SOL     OW58413   5.910   4.528   9.084
52194SOL    HW158414   5.815   4.532   9.085
52194SOL    HW258415   5.934   4.504   9.174
52195SOL     OW58416   2.608  12.047   5.308
52195SOL    HW158417   2.590  11.958   5.276
52195SOL    HW258418   2.639  12.094   5.231
52196SOL     OW58419   1.040   7.416   6.770
52196SOL    HW158420   1.073   7.329   6.750
52196SOL    HW258421   1.118   7.472   6.772
52197SOL     OW58422   9.408   1.900   6.088
52197SOL    HW158423   9.387   1.967   6.152
52197SOL    HW258424   9.363   1.927   6.008
52198SOL     OW58425  14.499   4.543  12.465
52198SOL    HW158426  14.564   4.478  12.493
52198SOL    HW258427  14.548   4.605  12.411
52199SOL     OW58428   6.574   7.042  12.634
52199SOL    HW158429   6.512   7.015  12.566
52199SOL    HW258430   6.563   7.137  12.640
52200SOL     OW58431   0.561   0.847   9.210
52200SOL    HW158432   0.533   0.917   9.269
52200SOL    HW258433   0.496   0.846   9.140
52201SOL     OW58434  11.938   6.938   8.682
52201SOL    HW158435  11.974   7.013   8.728
52201SOL    HW258436  12.009   6.874   8.679
52202SOL     OW58437   7.995  12.143  10.671
52202SOL    HW158438   7.990  12.186  10.586
52202SOL    HW258439   7.984  12.215  10.734
52203SOL     OW58440   0.034  12.700  10.386
52203SOL    HW158441   0.060  12.764  10.452
52203SOL    HW258442   0.116  12.665  10.352
52204SOL     OW58443   9.610  12.383   9.567
52204SOL    HW158444   9.559  12.326   9.624
52204SOL    HW258445   9.545  12.441   9.527
52205SOL     OW58446  14.736   4.042   7.141
52205SOL    HW158447  14.698   4.066   7.226
52205SOL    HW258448  14.828   4.068   7.148
52206SOL     OW58449   5.864   8.885   0.698
52206SOL    HW158450   5.813   8.912   0.774
52206SOL    HW258451   5.954   8.877   0.731
52207SOL     OW58452  11.619   1.179  11.842
52207SOL    HW158453  11.699   1.178  11.789
52207SOL    HW258454  11.581   1.265  11.826
52208SOL     OW58455   5.922   2.959   9.904
52208SOL    HW158456   5.835   2.923   9.891
52208SOL    HW258457   5.926   2.978   9.998
52209SOL     OW58458   8.650   6.256  14.430
52209SOL    HW158459   8.735   6.213  14.433
52209SOL    HW258460   8.643   6.300  14.515
52210SOL     OW58461   6.262   4.102  14.520
52210SOL    HW158462   6.254   4.034  14.453
52210SOL    HW258463   6.336   4.156  14.491
52211SOL     OW58464  11.901  13.093   0.451
52211SOL    HW158465  11.979  13.051   0.414
52211SOL    HW258466  11.828  13.059   0.397
52212SOL     OW58467   1.663   3.716  14.761
52212SOL    HW158468   1.697   3.785  14.705
52212SOL    HW258469   1.663   3.754  14.849
52213SOL     OW58470  14.545   6.389   7.194
52213SOL    HW158471  14.492   6.456   7.150
52213SOL    HW258472  14.496   6.370   7.275
52214SOL     OW58473   5.155  12.794   7.149
52214SOL    HW158474   5.156  12.702   7.177
52214SOL    HW258475   5.131  12.843   7.228
52215SOL     OW58476  10.863  11.867   1.576
52215SOL    HW158477  10.770  11.859   1.599
52215SOL    HW258478  10.872  11.811   1.498
52216SOL     OW58479  11.547   5.138   0.010
52216SOL    HW158480  11.583   5.116  14.806
52216SOL    HW258481  11.603   5.093   0.073
52217SOL     OW58482   1.936  12.665  13.041
52217SOL    HW158483   1.880  12.714  12.980
52217SOL    HW258484   1.976  12.732  13.096
52218SOL     OW58485   9.982   5.568   2.884
52218SOL    HW158486  10.001   5.563   2.978
52218SOL    HW258487   9.896   5.526   2.875
52219SOL     OW58488   8.010  13.777  13.997
52219SOL    HW158489   8.095  13.793  14.039
52219SOL    HW258490   7.985  13.690  14.027
52220SOL     OW58491   2.176   5.567   2.756
52220SOL    HW158492   2.161   5.659   2.777
52220SOL    HW258493   2.132   5.519   2.826
52221SOL     OW58494   0.578   3.691   6.932
52221SOL    HW158495   0.577   3.599   6.956
52221SOL    HW258496   0.497   3.726   6.970
52222SOL     OW58497  12.960   3.979  14.155
52222SOL    HW158498  12.993   3.934  14.234
52222SOL    HW258499  12.866   3.986  14.169
52223SOL     OW58500   0.981   9.637  14.593
52223SOL    HW158501   0.940   9.561  14.635
52223SOL    HW258502   0.981   9.615  14.500
52224SOL     OW58503   4.705  12.627   2.129
52224SOL    HW158504   4.676  12.694   2.067
52224SOL    HW258505   4.732  12.677   2.206
52225SOL     OW58506   1.785   9.357  10.928
52225SOL    HW158507   1.745   9.370  11.015
52225SOL    HW258508   1.788   9.445  10.890
52226SOL     OW58509  13.524   7.623   0.508
52226SOL    HW158510  13.525   7.689   0.578
52226SOL    HW258511  13.470   7.662   0.439
52227SOL     OW58512  14.596   5.047  10.991
52227SOL    HW158513  14.661   4.980  11.012
52227SOL    HW258514  14.517   4.998  10.970
52228SOL     OW58515  12.852  11.379  10.073
52228SOL    HW158516  12.834  11.323  10.149
52228SOL    HW258517  12.778  11.439  10.070
52229SOL     OW58518  13.899   6.970   1.391
52229SOL    HW158519  13.945   6.888   1.404
52229SOL    HW258520  13.815   6.958   1.436
52230SOL     OW58521   1.416  11.838   9.810
52230SOL    HW158522   1.455  11.836   9.722
52230SOL    HW258523   1.368  11.755   9.817
52231SOL     OW58524  13.717  11.414  13.457
52231SOL    HW158525  13.698  11.432  13.365
52231SOL    HW258526  13.695  11.495  13.502
52232SOL     OW58527  11.742  14.646   6.324
52232SOL    HW158528  11.803  14.639   6.397
52232SOL    HW258529  11.788  14.607   6.250
52233SOL     OW58530   6.899   5.100   3.116
52233SOL    HW158531   6.909   5.074   3.208
52233SOL    HW258532   6.866   5.022   3.073
52234SOL     OW58533  14.690   0.589  13.387
52234SOL    HW158534  14.601   0.614  13.362
52234SOL    HW258535  14.717   0.525  13.320
52235SOL     OW58536   5.469   8.208   0.257
52235SOL    HW158537   5.517   8.188   0.177
52235SOL    HW258538   5.495   8.297   0.279
52236SOL     OW58539   2.076  11.720  11.106
52236SOL    HW158540   2.115  11.636  11.079
52236SOL    HW258541   2.134  11.786  11.069
52237SOL     OW58542  10.355   4.981   6.131
52237SOL    HW158543  10.296   4.925   6.081
52237SOL    HW258544  10.379   4.928   6.207
52238SOL     OW58545  14.309   6.035   0.244
52238SOL    HW158546  14.381   6.013   0.303
52238SOL    HW258547  14.335   6.117   0.203
52239SOL     OW58548   4.441  11.396  11.969
52239SOL    HW158549   4.498  11.472  11.975
52239SOL    HW258550   4.500  11.321  11.981
52240SOL     OW58551  10.050  11.352   5.388
52240SOL    HW158552   9.986  11.376   5.455
52240SOL    HW258553  10.132  11.393   5.417
52241SOL     OW58554   3.791   5.438   2.580
52241SOL    HW158555   3.845   5.511   2.610
52241SOL    HW258556   3.705   5.454   2.621
52242SOL     OW58557   9.658   6.454   5.574
52242SOL    HW158558   9.567   6.466   5.549
52242SOL    HW258559   9.656   6.397   5.651
52243SOL     OW58560   6.822   5.518  10.043
52243SOL    HW158561   6.750   5.550  10.097
52243SOL    HW258562   6.834   5.586   9.976
52244SOL     OW58563  12.011  14.435  11.639
52244SOL    HW158564  12.047  14.521  11.664
52244SOL    HW258565  11.951  14.454  11.567
52245SOL     OW58566   1.394   5.253  11.773
52245SOL    HW158567   1.417   5.312  11.701
52245SOL    HW258568   1.421   5.166  11.742
52246SOL     OW58569   4.186   2.758  11.822
52246SOL    HW158570   4.111   2.771  11.764
52246SOL    HW258571   4.200   2.844  11.863
52247SOL     OW58572   1.984   4.725   6.571
52247SOL    HW158573   1.954   4.708   6.482
52247SOL    HW258574   2.078   4.707   6.568
52248SOL     OW58575   5.465   9.058   4.287
52248SOL    HW158576   5.502   8.978   4.250
52248SOL    HW258577   5.415   9.028   4.363
52249SOL     OW58578   6.032   0.361   2.468
52249SOL    HW158579   6.016   0.284   2.523
52249SOL    HW258580   6.011   0.332   2.379
52250SOL     OW58581  12.294   4.659   5.210
52250SOL    HW158582  12.337   4.743   5.196
52250SOL    HW258583  12.274   4.627   5.122
52251SOL     OW58584   7.594   3.405  10.173
52251SOL    HW158585   7.627   3.327  10.216
52251SOL    HW258586   7.532   3.443  10.235
52252SOL     OW58587   7.655   3.914   5.390
52252SOL    HW158588   7.619   4.002   5.399
52252SOL    HW258589   7.747   3.923   5.416
52253SOL     OW58590   3.999  11.807   4.285
52253SOL    HW158591   4.085  11.813   4.327
52253SOL    HW258592   3.963  11.724   4.317
52254SOL     OW58593   3.397   7.891   9.233
52254SOL    HW158594   3.331   7.892   9.164
52254SOL    HW258595   3.356   7.936   9.306
52255SOL     OW58596   6.160   0.356   1.003
52255SOL    HW158597   6.106   0.287   1.043
52255SOL    HW258598   6.163   0.332   0.910
52256SOL     OW58599  12.419   1.632   4.455
52256SOL    HW158600  12.514   1.639   4.459
52256SOL    HW258601  12.402   1.565   4.388
52257SOL     OW58602   7.571  14.760  12.097
52257SOL    HW158603   7.588  14.717  12.181
52257SOL    HW258604   7.619  14.709  12.033
52258SOL     OW58605   1.339  14.023  13.258
52258SOL    HW158606   1.335  13.928  13.246
52258SOL    HW258607   1.296  14.058  13.180
52259SOL     OW58608   3.226  13.346   2.780
52259SOL    HW158609   3.164  13.287   2.822
52259SOL    HW258610   3.268  13.392   2.852
52260SOL     OW58611   4.242   3.535   4.814
52260SOL    HW158612   4.164   3.589   4.804
52260SOL    HW258613   4.289   3.546   4.731
52261SOL     OW58614  12.052  11.986   6.953
52261SOL    HW158615  11.983  11.922   6.965
52261SOL    HW258616  12.128  11.934   6.924
52262SOL     OW58617   3.351  14.036  14.451
52262SOL    HW158618   3.362  14.104  14.385
52262SOL    HW258619   3.322  13.959  14.402
52263SOL     OW58620   0.078   4.648   9.405
52263SOL    HW158621   0.079   4.592   9.483
52263SOL    HW258622   0.036   4.729   9.434
52264SOL     OW58623  11.991   8.264   3.310
52264SOL    HW158624  11.972   8.261   3.216
52264SOL    HW258625  11.963   8.179   3.342
52265SOL     OW58626   5.681  14.480  14.721
52265SOL    HW158627   5.624  14.556  14.714
52265SOL    HW258628   5.764  14.509  14.681
52266SOL     OW58629   8.376   3.657   9.033
52266SOL    HW158630   8.434   3.646   8.957
52266SOL    HW258631   8.322   3.578   9.034
52267SOL     OW58632   9.818   3.339   6.563
52267SOL    HW158633   9.815   3.417   6.508
52267SOL    HW258634   9.889   3.355   6.625
52268SOL     OW58635   9.604   5.705   0.219
52268SOL    HW158636   9.650   5.640   0.272
52268SOL    HW258637   9.619   5.677   0.128
52269SOL     OW58638   4.920   9.974   9.885
52269SOL    HW158639   4.937   9.880   9.890
52269SOL    HW258640   4.931  10.006   9.975
52270SOL     OW58641   0.650  11.477   1.382
52270SOL    HW158642   0.687  11.404   1.332
52270SOL    HW258643   0.556  11.462   1.380
52271SOL     OW58644   3.021   5.045  13.280
52271SOL    HW158645   2.930   5.016  13.276
52271SOL    HW258646   3.031   5.102  13.204
52272SOL     OW58647   0.459  13.494  11.878
52272SOL    HW158648   0.413  13.414  11.852
52272SOL    HW258649   0.393  13.545  11.926
52273SOL     OW58650   9.515  10.603   3.343
52273SOL    HW158651   9.562  10.657   3.407
52273SOL    HW258652   9.425  10.637   3.346
52274SOL     OW58653   9.797  11.832  10.640
52274SOL    HW158654   9.719  11.848  10.588
52274SOL    HW258655   9.764  11.799  10.724
52275SOL     OW58656   6.759   7.591   1.529
52275SOL    HW158657   6.698   7.631   1.592
52275SOL    HW258658   6.762   7.498   1.554
52276SOL     OW58659  13.215   6.269   7.859
52276SOL    HW158660  13.178   6.271   7.770
52276SOL    HW258661  13.270   6.347   7.863
52277SOL     OW58662   9.262   1.258   9.267
52277SOL    HW158663   9.294   1.311   9.195
52277SOL    HW258664   9.332   1.259   9.332
52278SOL     OW58665  11.148  13.094  10.658
52278SOL    HW158666  11.202  13.156  10.609
52278SOL    HW258667  11.063  13.137  10.666
52279SOL     OW58668  14.159   5.855  10.392
52279SOL    HW158669  14.174   5.792  10.321
52279SOL    HW258670  14.065   5.852  10.408
52280SOL     OW58671   6.358  14.819  11.894
52280SOL    HW158672   6.427  14.805  11.830
52280SOL    HW258673   6.378  14.756  11.964
52281SOL     OW58674   3.368   1.652   3.179
52281SOL    HW158675   3.454   1.610   3.173
52281SOL    HW258676   3.313   1.586   3.221
52282SOL     OW58677  11.338   8.296   4.060
52282SOL    HW158678  11.424   8.334   4.039
52282SOL    HW258679  11.306   8.260   3.977
52283SOL     OW58680   6.836   6.059   6.454
52283SOL    HW158681   6.806   6.101   6.373
52283SOL    HW258682   6.814   6.121   6.523
52284SOL     OW58683   6.633  10.973  14.532
52284SOL    HW158684   6.609  11.018  14.451
52284SOL    HW258685   6.701  10.911  14.504
52285SOL     OW58686   5.146  10.138   2.597
52285SOL    HW158687   5.082  10.089   2.546
52285SOL    HW258688   5.109  10.142   2.686
52286SOL     OW58689   3.518  10.757  12.497
52286SOL    HW158690   3.532  10.832  12.440
52286SOL    HW258691   3.425  10.737  12.489
52287SOL     OW58692   2.083  12.240   8.615
52287SOL    HW158693   2.146  12.265   8.547
52287SOL    HW258694   2.008  12.297   8.601
52288SOL     OW58695   3.126   0.073   7.614
52288SOL    HW158696   3.140  14.862   7.634
52288SOL    HW258697   3.036   0.090   7.641
52289SOL     OW58698  12.061   1.658   3.477
52289SOL    HW158699  11.998   1.627   3.542
52289SOL    HW258700  12.052   1.596   3.404
52290SOL     OW58701  11.193   5.304  14.456
52290SOL    HW158702  11.130   5.257  14.510
52290SOL    HW258703  11.254   5.236  14.426
52291SOL     OW58704   2.758   3.854   1.260
52291SOL    HW158705   2.799   3.768   1.268
52291SOL    HW258706   2.734   3.861   1.168
52292SOL     OW58707  12.072  12.737  14.032
52292SOL    HW158708  12.152  12.761  13.985
52292SOL    HW258709  12.006  12.727  13.963
52293SOL     OW58710   0.715   9.482   8.354
52293SOL    HW158711   0.636   9.535   8.344
52293SOL    HW258712   0.720   9.462   8.447
52294SOL     OW58713   0.364  10.209   0.349
52294SOL    HW158714   0.300  10.272   0.314
52294SOL    HW258715   0.320  10.170   0.424
52295SOL     OW58716  10.787   2.989   4.551
52295SOL    HW158717  10.793   3.014   4.643
52295SOL    HW258718  10.795   3.071   4.503
52296SOL     OW58719   9.487  11.998   5.549
52296SOL    HW158720   9.443  12.018   5.466
52296SOL    HW258721   9.531  11.914   5.534
52297SOL     OW58722  12.794   5.081   2.842
52297SOL    HW158723  12.746   5.137   2.903
52297SOL    HW258724  12.763   5.108   2.755
52298SOL     OW58725   8.465   7.398   0.159
52298SOL    HW158726   8.437   7.408   0.250
52298SOL    HW258727   8.513   7.479   0.140
52299SOL     OW58728  12.567   1.620   6.623
52299SOL    HW158729  12.499   1.663   6.570
52299SOL    HW258730  12.597   1.688   6.682
52300SOL     OW58731  13.261   0.387   1.747
52300SOL    HW158732  13.240   0.370   1.839
52300SOL    HW258733  13.317   0.464   1.749
52301SOL     OW58734   9.112  11.190   0.503
52301SOL    HW158735   9.093  11.276   0.541
52301SOL    HW258736   9.030  11.165   0.460
52302SOL     OW58737   5.988   5.718   6.985
52302SOL    HW158738   5.985   5.800   7.033
52302SOL    HW258739   6.082   5.701   6.973
52303SOL     OW58740   4.078   4.854  13.968
52303SOL    HW158741   4.108   4.787  13.906
52303SOL    HW258742   4.129   4.932  13.945
52304SOL     OW58743  14.398   6.492  14.021
52304SOL    HW158744  14.432   6.569  13.975
52304SOL    HW258745  14.448   6.489  14.103
52305SOL     OW58746   4.804  12.277   2.187
52305SOL    HW158747   4.897  12.255   2.181
52305SOL    HW258748   4.759  12.199   2.156
52306SOL     OW58749   3.589   6.540   2.348
52306SOL    HW158750   3.645   6.575   2.417
52306SOL    HW258751   3.575   6.614   2.288
52307SOL     OW58752   7.111   3.084   2.604
52307SOL    HW158753   7.121   2.989   2.596
52307SOL    HW258754   7.032   3.104   2.554
52308SOL     OW58755   0.974   7.398  14.576
52308SOL    HW158756   1.035   7.327  14.561
52308SOL    HW258757   0.888   7.355  14.580
52309SOL     OW58758  13.252   8.755   9.223
52309SOL    HW158759  13.208   8.679   9.261
52309SOL    HW258760  13.258   8.735   9.129
52310SOL     OW58761   9.536  11.791   5.189
52310SOL    HW158762   9.593  11.867   5.201
52310SOL    HW258763   9.519  11.788   5.095
52311SOL     OW58764   6.487   3.565  14.749
52311SOL    HW158765   6.446   3.482  14.773
52311SOL    HW258766   6.564   3.540  14.699
52312SOL     OW58767   3.847   5.971   6.430
52312SOL    HW158768   3.904   6.024   6.374
52312SOL    HW258769   3.791   5.923   6.369
52313SOL     OW58770   2.455   9.800   3.392
52313SOL    HW158771   2.424   9.828   3.306
52313SOL    HW258772   2.375   9.777   3.440
52314SOL     OW58773   8.598   1.872   1.421
52314SOL    HW158774   8.636   1.916   1.345
52314SOL    HW258775   8.645   1.789   1.426
52315SOL     OW58776   2.374   5.571   3.526
52315SOL    HW158777   2.289   5.526   3.520
52315SOL    HW258778   2.438   5.504   3.501
52316SOL     OW58779   2.815   2.951   7.487
52316SOL    HW158780   2.798   2.939   7.393
52316SOL    HW258781   2.729   2.942   7.528
52317SOL     OW58782   8.350   9.341   8.758
52317SOL    HW158783   8.443   9.345   8.735
52317SOL    HW258784   8.324   9.432   8.768
52318SOL     OW58785   2.056  10.772  13.674
52318SOL    HW158786   2.079  10.745  13.585
52318SOL    HW258787   1.988  10.709  13.700
52319SOL     OW58788  13.901   5.775   0.362
52319SOL    HW158789  13.941   5.690   0.343
52319SOL    HW258790  13.904   5.822   0.279
52320SOL     OW58791  12.114  14.048   7.045
52320SOL    HW158792  12.019  14.051   7.046
52320SOL    HW258793  12.141  14.127   7.092
52321SOL     OW58794  10.684  14.497  13.730
52321SOL    HW158795  10.613  14.476  13.670
52321SOL    HW258796  10.688  14.423  13.791
52322SOL     OW58797   6.963  14.192  10.867
52322SOL    HW158798   6.990  14.108  10.903
52322SOL    HW258799   6.983  14.186  10.773
52323SOL     OW58800   5.764   7.099  11.690
52323SOL    HW158801   5.716   7.172  11.730
52323SOL    HW258802   5.711   7.075  11.614
52324SOL     OW58803   7.033   0.222   2.691
52324SOL    HW158804   6.949   0.221   2.736
52324SOL    HW258805   7.012   0.197   2.601
52325SOL     OW58806   3.537   4.612  12.628
52325SOL    HW158807   3.593   4.618  12.705
52325SOL    HW258808   3.492   4.528  12.638
52326SOL     OW58809   9.207  14.480  14.262
52326SOL    HW158810   9.144  14.522  14.321
52326SOL    HW258811   9.242  14.551  14.209
52327SOL     OW58812   2.614   0.673  10.408
52327SOL    HW158813   2.677   0.678  10.336
52327SOL    HW258814   2.604   0.763  10.438
52328SOL     OW58815  12.216   6.326   9.640
52328SOL    HW158816  12.251   6.346   9.554
52328SOL    HW258817  12.284   6.354   9.701
52329SOL     OW58818   1.657  11.510   8.925
52329SOL    HW158819   1.677  11.447   8.855
52329SOL    HW258820   1.564  11.527   8.915
52330SOL     OW58821   9.119   7.431   2.528
52330SOL    HW158822   9.148   7.516   2.494
52330SOL    HW258823   9.187   7.405   2.590
52331SOL     OW58824   3.607  12.942   5.828
52331SOL    HW158825   3.618  12.939   5.923
52331SOL    HW258826   3.612  13.035   5.806
52332SOL     OW58827   8.975   4.814   6.812
52332SOL    HW158828   8.944   4.882   6.753
52332SOL    HW258829   8.918   4.821   6.889
52333SOL     OW58830   0.502   2.613   0.454
52333SOL    HW158831   0.407   2.602   0.443
52333SOL    HW258832   0.537   2.604   0.365
52334SOL     OW58833   1.269   1.354   7.456
52334SOL    HW158834   1.335   1.408   7.414
52334SOL    HW258835   1.257   1.280   7.396
52335SOL     OW58836  12.587   7.132   4.809
52335SOL    HW158837  12.611   7.143   4.901
52335SOL    HW258838  12.527   7.058   4.809
52336SOL     OW58839  12.849  13.256   6.482
52336SOL    HW158840  12.896  13.283   6.561
52336SOL    HW258841  12.764  13.298   6.489
52337SOL     OW58842   0.458   5.969   4.324
52337SOL    HW158843   0.516   5.962   4.400
52337SOL    HW258844   0.514   6.007   4.256
52338SOL     OW58845   2.549   4.527   7.718
52338SOL    HW158846   2.474   4.550   7.773
52338SOL    HW258847   2.515   4.461   7.658
52339SOL     OW58848   0.286   2.631  12.649
52339SOL    HW158849   0.260   2.636  12.557
52339SOL    HW258850   0.381   2.616  12.646
52340SOL     OW58851  11.805   7.579  12.991
52340SOL    HW158852  11.858   7.587  12.912
52340SOL    HW258853  11.768   7.666  13.004
52341SOL     OW58854   9.267  11.107   5.874
52341SOL    HW158855   9.349  11.107   5.923
52341SOL    HW258856   9.205  11.153   5.931
52342SOL     OW58857   6.987  11.904   3.364
52342SOL    HW158858   6.983  11.995   3.394
52342SOL    HW258859   7.076  11.876   3.384
52343SOL     OW58860   8.599   3.872   2.250
52343SOL    HW158861   8.548   3.932   2.304
52343SOL    HW258862   8.534   3.808   2.219
52344SOL     OW58863  10.580  12.513   5.141
52344SOL    HW158864  10.534  12.596   5.150
52344SOL    HW258865  10.672  12.537   5.129
52345SOL     OW58866   3.052   0.368   8.579
52345SOL    HW158867   2.994   0.292   8.576
52345SOL    HW258868   3.138   0.333   8.557
52346SOL     OW58869   5.548   4.436   3.568
52346SOL    HW158870   5.602   4.495   3.516
52346SOL    HW258871   5.611   4.379   3.612
52347SOL     OW58872   8.637  12.831   3.833
52347SOL    HW158873   8.686  12.799   3.758
52347SOL    HW258874   8.664  12.923   3.842
52348SOL     OW58875   5.327  13.504  12.895
52348SOL    HW158876   5.287  13.491  12.981
52348SOL    HW258877   5.331  13.416  12.857
52349SOL     OW58878   5.673   9.535   9.057
52349SOL    HW158879   5.755   9.549   9.105
52349SOL    HW258880   5.671   9.606   8.993
52350SOL     OW58881   1.575   2.756   6.243
52350SOL    HW158882   1.607   2.690   6.183
52350SOL    HW258883   1.569   2.836   6.191
52351SOL     OW58884  14.011   4.072   9.415
52351SOL    HW158885  14.018   4.132   9.341
52351SOL    HW258886  14.032   4.126   9.492
52352SOL     OW58887   0.041  13.665   9.701
52352SOL    HW158888   0.083  13.589   9.740
52352SOL    HW258889   0.113  13.715   9.661
52353SOL     OW58890  11.972  10.212   8.539
52353SOL    HW158891  11.969  10.211   8.443
52353SOL    HW258892  12.011  10.127   8.562
52354SOL     OW58893   6.623   4.663   7.429
52354SOL    HW158894   6.673   4.643   7.350
52354SOL    HW258895   6.618   4.579   7.476
52355SOL     OW58896   9.175   0.216  10.968
52355SOL    HW158897   9.141   0.306  10.967
52355SOL    HW258898   9.131   0.174  11.042
52356SOL     OW58899   0.097   8.915   7.127
52356SOL    HW158900   0.134   8.931   7.040
52356SOL    HW258901   0.172   8.889   7.180
52357SOL     OW58902   8.254   7.484   4.442
52357SOL    HW158903   8.324   7.460   4.502
52357SOL    HW258904   8.202   7.404   4.432
52358SOL     OW58905  13.699   4.188  11.357
52358SOL    HW158906  13.739   4.258  11.409
52358SOL    HW258907  13.609   4.218  11.342
52359SOL     OW58908   4.563  13.121  11.165
52359SOL    HW158909   4.485  13.124  11.109
52359SOL    HW258910   4.634  13.100  11.105
52360SOL     OW58911   5.256   6.940   0.513
52360SOL    HW158912   5.299   6.976   0.435
52360SOL    HW258913   5.308   6.864   0.536
52361SOL     OW58914   1.573   4.409   0.899
52361SOL    HW158915   1.584   4.320   0.933
52361SOL    HW258916   1.523   4.398   0.819
52362SOL     OW58917   0.091   0.736   1.519
52362SOL    HW158918   0.094   0.800   1.590
52362SOL    HW258919   0.135   0.779   1.445
52363SOL     OW58920   6.394   0.255   8.874
52363SOL    HW158921   6.316   0.246   8.821
52363SOL    HW258922   6.378   0.331   8.930
52364SOL     OW58923  11.721  13.833   6.422
52364SOL    HW158924  11.810  13.838   6.456
52364SOL    HW258925  11.698  13.923   6.400
52365SOL     OW58926   9.824  10.691   8.112
52365SOL    HW158927   9.790  10.686   8.201
52365SOL    HW258928   9.795  10.610   8.071
52366SOL     OW58929   2.912  11.089   8.891
52366SOL    HW158930   2.955  11.143   8.824
52366SOL    HW258931   2.888  11.151   8.960
52367SOL     OW58932  11.626   5.393  11.328
52367SOL    HW158933  11.585   5.399  11.414
52367SOL    HW258934  11.657   5.302  11.321
52368SOL     OW58935   1.555  12.469  11.653
52368SOL    HW158936   1.513  12.472  11.567
52368SOL    HW258937   1.485  12.490  11.715
52369SOL     OW58938   9.882   6.989   6.053
52369SOL    HW158939   9.946   7.018   5.988
52369SOL    HW258940   9.912   6.902   6.079
52370SOL     OW58941   1.476   1.378   3.347
52370SOL    HW158942   1.427   1.459   3.354
52370SOL    HW258943   1.557   1.402   3.303
52371SOL     OW58944   0.714  11.360  13.191
52371SOL    HW158945   0.691  11.402  13.274
52371SOL    HW258946   0.805  11.386  13.175
52372SOL     OW58947   0.030   5.468   9.248
52372SOL    HW158948   0.083   5.449   9.170
52372SOL    HW258949  14.821   5.457   9.219
52373SOL     OW58950   5.726   8.450   5.249
52373SOL    HW158951   5.686   8.375   5.293
52373SOL    HW258952   5.692   8.446   5.160
52374SOL     OW58953   6.162   7.397   7.727
52374SOL    HW158954   6.112   7.472   7.758
52374SOL    HW258955   6.254   7.422   7.740
52375SOL     OW58956   9.428   6.772   0.831
52375SOL    HW158957   9.434   6.817   0.915
52375SOL    HW258958   9.358   6.819   0.784
52376SOL     OW58959  10.562  14.402   7.741
52376SOL    HW158960  10.549  14.312   7.772
52376SOL    HW258961  10.479  14.426   7.700
52377SOL     OW58962  12.736  13.011   6.755
52377SOL    HW158963  12.686  12.946   6.803
52377SOL    HW258964  12.689  13.093   6.769
52378SOL     OW58965   6.196   6.335   0.506
52378SOL    HW158966   6.218   6.398   0.574
52378SOL    HW258967   6.264   6.268   0.513
52379SOL     OW58968   6.170  11.616  10.048
52379SOL    HW158969   6.114  11.610   9.971
52379SOL    HW258970   6.247  11.564  10.025
52380SOL     OW58971   8.946   0.007   9.078
52380SOL    HW158972   9.037   0.026   9.102
52380SOL    HW258973   8.895   0.077   9.120
52381SOL     OW58974  13.289  11.061   6.887
52381SOL    HW158975  13.199  11.031   6.897
52381SOL    HW258976  13.331  10.995   6.832
52382SOL     OW58977   7.728   9.976  14.302
52382SOL    HW158978   7.711  10.042  14.234
52382SOL    HW258979   7.755   9.898  14.253
52383SOL     OW58980   2.338   6.929   6.170
52383SOL    HW158981   2.271   6.862   6.167
52383SOL    HW258982   2.325   6.980   6.091
52384SOL     OW58983   7.700   4.279   3.598
52384SOL    HW158984   7.770   4.319   3.545
52384SOL    HW258985   7.711   4.185   3.584
52385SOL     OW58986   6.629   5.552   8.267
52385SOL    HW158987   6.605   5.594   8.184
52385SOL    HW258988   6.547   5.517   8.301
52386SOL     OW58989  13.220  13.129  13.133
52386SOL    HW158990  13.304  13.119  13.176
52386SOL    HW258991  13.194  13.039  13.111
52387SOL     OW58992   4.028   7.891   3.936
52387SOL    HW158993   4.094   7.902   3.867
52387SOL    HW258994   4.070   7.926   4.015
52388SOL     OW58995   2.661   9.943   4.851
52388SOL    HW158996   2.712   9.966   4.929
52388SOL    HW258997   2.723   9.952   4.779
52389SOL     OW58998   0.052  12.145   9.595
52389SOL    HW158999  14.861  12.207   9.587
52389SOL    HW259000   0.114  12.189   9.653
52390SOL     OW59001   3.428   8.003   6.467
52390SOL    HW159002   3.513   7.973   6.435
52390SOL    HW259003   3.443   8.094   6.494
52391SOL     OW59004   2.128  12.880   9.073
52391SOL    HW159005   2.075  12.840   9.141
52391SOL    HW259006   2.217  12.851   9.092
52392SOL     OW59007   1.807   4.156   4.044
52392SOL    HW159008   1.847   4.243   4.040
52392SOL    HW259009   1.714   4.172   4.030
52393SOL     OW59010   5.739  10.728   7.780
52393SOL    HW159011   5.801  10.790   7.820
52393SOL    HW259012   5.795  10.661   7.741
52394SOL     OW59013  10.089  11.754   0.507
52394SOL    HW159014  10.016  11.751   0.446
52394SOL    HW259015  10.053  11.721   0.590
52395SOL     OW59016   1.978   9.615  10.472
52395SOL    HW159017   1.896   9.661  10.492
52395SOL    HW259018   2.038   9.685  10.446
52396SOL     OW59019   3.373   5.681   6.685
52396SOL    HW159020   3.411   5.597   6.713
52396SOL    HW259021   3.393   5.741   6.757
52397SOL     OW59022  11.510  10.551   0.796
52397SOL    HW159023  11.458  10.472   0.812
52397SOL    HW259024  11.532  10.584   0.883
52398SOL     OW59025   9.647   8.094  11.906
52398SOL    HW159026   9.719   8.128  11.852
52398SOL    HW259027   9.569   8.138  11.874
52399SOL     OW59028  12.081   3.781   9.032
52399SOL    HW159029  12.070   3.687   9.042
52399SOL    HW259030  12.114   3.792   8.942
52400SOL     OW59031  13.507  12.943   0.332
52400SOL    HW159032  13.546  12.971   0.249
52400SOL    HW259033  13.512  12.848   0.330
52401SOL     OW59034   3.332  11.990  13.570
52401SOL    HW159035   3.363  11.926  13.634
52401SOL    HW259036   3.239  11.999  13.587
52402SOL     OW59037   2.858  14.010   4.198
52402SOL    HW159038   2.902  13.939   4.153
52402SOL    HW259039   2.928  14.070   4.224
52403SOL     OW59040   5.683  11.015   4.015
52403SOL    HW159041   5.633  11.054   4.086
52403SOL    HW259042   5.682  11.081   3.946
52404SOL     OW59043   2.322   1.481   5.614
52404SOL    HW159044   2.404   1.431   5.619
52404SOL    HW259045   2.345   1.568   5.648
52405SOL     OW59046  14.539  11.468   8.085
52405SOL    HW159047  14.591  11.504   8.013
52405SOL    HW259048  14.463  11.525   8.090
52406SOL     OW59049   4.156   5.559  14.525
52406SOL    HW159050   4.186   5.527  14.440
52406SOL    HW259051   4.236   5.578  14.573
52407SOL     OW59052   6.318   6.909   8.346
52407SOL    HW159053   6.391   6.848   8.358
52407SOL    HW259054   6.263   6.867   8.280
52408SOL     OW59055   5.981  13.359  10.474
52408SOL    HW159056   6.062  13.406  10.497
52408SOL    HW259057   6.011  13.274  10.444
52409SOL     OW59058   8.408   9.706   0.932
52409SOL    HW159059   8.414   9.630   0.874
52409SOL    HW259060   8.355   9.675   1.005
52410SOL     OW59061  11.418   9.952  10.194
52410SOL    HW159062  11.391  10.021  10.134
52410SOL    HW259063  11.421   9.994  10.280
52411SOL     OW59064  10.145   9.261   7.526
52411SOL    HW159065  10.112   9.199   7.460
52411SOL    HW259066  10.170   9.338   7.476
52412SOL     OW59067  13.154   2.237   7.496
52412SOL    HW159068  13.233   2.225   7.442
52412SOL    HW259069  13.086   2.189   7.449
52413SOL     OW59070  13.164   4.720   5.336
52413SOL    HW159071  13.086   4.709   5.282
52413SOL    HW259072  13.131   4.721   5.426
52414SOL     OW59073  14.395   2.048   1.372
52414SOL    HW159074  14.413   1.986   1.301
52414SOL    HW259075  14.481   2.068   1.409
52415SOL     OW59076   4.357  14.314  10.626
52415SOL    HW159077   4.444  14.316  10.666
52415SOL    HW259078   4.297  14.339  10.697
52416SOL     OW59079  14.552   8.212   9.022
52416SOL    HW159080  14.505   8.183   9.100
52416SOL    HW259081  14.639   8.236   9.054
52417SOL     OW59082   6.256  12.721   9.270
52417SOL    HW159083   6.207  12.803   9.280
52417SOL    HW259084   6.257  12.683   9.358
52418SOL     OW59085   6.454   7.305   7.717
52418SOL    HW159086   6.446   7.400   7.723
52418SOL    HW259087   6.488   7.290   7.628
52419SOL     OW59088   9.004   1.690   4.090
52419SOL    HW159089   8.954   1.678   4.009
52419SOL    HW259090   8.939   1.686   4.160
52420SOL     OW59091   4.721   2.730  12.787
52420SOL    HW159092   4.690   2.671  12.855
52420SOL    HW259093   4.692   2.817  12.815
52421SOL     OW59094   9.816   3.280  11.911
52421SOL    HW159095   9.818   3.314  12.000
52421SOL    HW259096   9.877   3.336  11.863
52422SOL     OW59097   5.488   6.013   0.145
52422SOL    HW159098   5.578   6.046   0.149
52422SOL    HW259099   5.495   5.929   0.099
52423SOL     OW59100   9.212   6.190   7.000
52423SOL    HW159101   9.192   6.272   7.044
52423SOL    HW259102   9.245   6.133   7.069
52424SOL     OW59103  14.286  12.323  13.958
52424SOL    HW159104  14.375  12.339  13.925
52424SOL    HW259105  14.229  12.365  13.893
52425SOL     OW59106   9.824  11.868   7.117
52425SOL    HW159107   9.829  11.773   7.124
52425SOL    HW259108   9.845  11.900   7.205
52426SOL     OW59109   0.517   0.497  13.229
52426SOL    HW159110   0.491   0.584  13.199
52426SOL    HW259111   0.485   0.438  13.161
52427SOL     OW59112   8.494   9.112   8.594
52427SOL    HW159113   8.472   9.052   8.524
52427SOL    HW259114   8.454   9.074   8.672
52428SOL     OW59115   8.573   4.124   8.628
52428SOL    HW159116   8.502   4.127   8.691
52428SOL    HW259117   8.556   4.198   8.569
52429SOL     OW59118  12.590  14.136   9.316
52429SOL    HW159119  12.512  14.086   9.341
52429SOL    HW259120  12.660  14.100   9.369
52430SOL     OW59121  13.113   2.413   0.080
52430SOL    HW159122  13.084   2.396  14.873
52430SOL    HW259123  13.197   2.367   0.088
52431SOL     OW59124   7.614  13.673  12.673
52431SOL    HW159125   7.704  13.649  12.651
52431SOL    HW259126   7.622  13.726  12.752
52432SOL     OW59127   0.121  14.261   4.430
52432SOL    HW159128   0.106  14.355   4.418
52432SOL    HW259129   0.214  14.249   4.411
52433SOL     OW59130  11.822   4.630   3.190
52433SOL    HW159131  11.770   4.683   3.130
52433SOL    HW259132  11.797   4.540   3.171
52434SOL     OW59133   7.504   4.265   1.712
52434SOL    HW159134   7.414   4.246   1.738
52434SOL    HW259135   7.498   4.343   1.657
52435SOL     OW59136   6.866   4.776   5.099
52435SOL    HW159137   6.878   4.704   5.037
52435SOL    HW259138   6.807   4.740   5.165
52436SOL     OW59139   3.908   6.446  13.285
52436SOL    HW159140   3.971   6.376  13.271
52436SOL    HW259141   3.923   6.473  13.376
52437SOL     OW59142   5.393   9.765   3.114
52437SOL    HW159143   5.381   9.758   3.019
52437SOL    HW259144   5.397   9.859   3.131
52438SOL     OW59145   4.008   8.161   7.762
52438SOL    HW159146   3.987   8.222   7.833
52438SOL    HW259147   4.094   8.191   7.730
52439SOL     OW59148  14.170  12.585   9.099
52439SOL    HW159149  14.085  12.561   9.064
52439SOL    HW259150  14.202  12.653   9.040
52440SOL     OW59151   8.010   8.095   1.328
52440SOL    HW159152   7.938   8.155   1.347
52440SOL    HW259153   8.080   8.120   1.389
52441SOL     OW59154   7.410   4.662  12.558
52441SOL    HW159155   7.413   4.664  12.462
52441SOL    HW259156   7.423   4.570  12.581
52442SOL     OW59157  10.131  13.789   9.914
52442SOL    HW159158  10.089  13.727   9.854
52442SOL    HW259159  10.165  13.857   9.857
52443SOL     OW59160  12.493   5.626   8.398
52443SOL    HW159161  12.494   5.716   8.429
52443SOL    HW259162  12.571   5.618   8.344
52444SOL     OW59163  10.875   0.195   4.562
52444SOL    HW159164  10.869   0.247   4.643
52444SOL    HW259165  10.964   0.160   4.564
52445SOL     OW59166  14.069  10.145   8.532
52445SOL    HW159167  14.061  10.050   8.519
52445SOL    HW259168  14.028  10.183   8.454
52446SOL     OW59169   1.331  14.075  13.758
52446SOL    HW159170   1.259  14.111  13.706
52446SOL    HW259171   1.387  14.150  13.776
52447SOL     OW59172   3.331  14.224   7.633
52447SOL    HW159173   3.404  14.224   7.693
52447SOL    HW259174   3.319  14.132   7.608
52448SOL     OW59175   3.574   6.472  13.924
52448SOL    HW159176   3.563   6.382  13.955
52448SOL    HW259177   3.627   6.513  13.992
52449SOL     OW59178   3.440  14.189  13.262
52449SOL    HW159179   3.390  14.118  13.224
52449SOL    HW259180   3.381  14.265  13.259
52450SOL     OW59181  13.147  11.597  11.515
52450SOL    HW159182  13.208  11.621  11.585
52450SOL    HW259183  13.189  11.524  11.471
52451SOL     OW59184   8.767  14.399  13.631
52451SOL    HW159185   8.686  14.404  13.683
52451SOL    HW259186   8.743  14.438  13.547
52452SOL     OW59187   1.931   4.906   9.140
52452SOL    HW159188   1.979   4.970   9.087
52452SOL    HW259189   1.952   4.821   9.102
52453SOL     OW59190  11.627   3.480   8.431
52453SOL    HW159191  11.639   3.386   8.448
52453SOL    HW259192  11.656   3.492   8.341
52454SOL     OW59193   7.961  11.153  14.259
52454SOL    HW159194   8.000  11.078  14.213
52454SOL    HW259195   7.920  11.205  14.189
52455SOL     OW59196  11.681  14.341   3.192
52455SOL    HW159197  11.652  14.373   3.278
52455SOL    HW259198  11.770  14.311   3.207
52456SOL     OW59199  13.321   5.855   6.955
52456SOL    HW159200  13.348   5.945   6.971
52456SOL    HW259201  13.301   5.820   7.043
52457SOL     OW59202  12.552   2.248  10.133
52457SOL    HW159203  12.590   2.257  10.046
52457SOL    HW259204  12.461   2.224  10.117
52458SOL     OW59205   9.723   9.505   1.153
52458SOL    HW159206   9.667   9.456   1.213
52458SOL    HW259207   9.714   9.460   1.069
52459SOL     OW59208  11.864   3.814   6.351
52459SOL    HW159209  11.846   3.802   6.445
52459SOL    HW259210  11.959   3.824   6.346
52460SOL     OW59211   4.453   2.995   6.184
52460SOL    HW159212   4.452   2.952   6.269
52460SOL    HW259213   4.365   3.030   6.173
52461SOL     OW59214  14.141  14.300   6.370
52461SOL    HW159215  14.085  14.337   6.302
52461SOL    HW259216  14.082  14.285   6.444
52462SOL     OW59217  13.821   1.594  13.480
52462SOL    HW159218  13.740   1.547  13.498
52462SOL    HW259219  13.869   1.538  13.419
52463SOL     OW59220  13.556  14.876   3.891
52463SOL    HW159221  13.598   0.002   3.805
52463SOL    HW259222  13.463   0.001   3.873
52464SOL     OW59223   6.154   5.203   2.463
52464SOL    HW159224   6.146   5.159   2.547
52464SOL    HW259225   6.187   5.136   2.403
52465SOL     OW59226   5.360   8.497  11.391
52465SOL    HW159227   5.278   8.498  11.342
52465SOL    HW259228   5.405   8.418  11.360
52466SOL     OW59229   5.749   1.942  12.751
52466SOL    HW159230   5.661   1.944  12.789
52466SOL    HW259231   5.778   1.852  12.761
52467SOL     OW59232   3.522   1.859   8.915
52467SOL    HW159233   3.510   1.954   8.912
52467SOL    HW259234   3.434   1.823   8.908
52468SOL     OW59235   1.012   0.954  14.512
52468SOL    HW159236   1.082   0.894  14.487
52468SOL    HW259237   1.013   1.022  14.445
52469SOL     OW59238   3.331   8.424   4.576
52469SOL    HW159239   3.394   8.391   4.640
52469SOL    HW259240   3.378   8.494   4.530
52470SOL     OW59241  10.033  11.299   6.703
52470SOL    HW159242  10.089  11.372   6.674
52470SOL    HW259243  10.079  11.263   6.779
52471SOL     OW59244   9.707   9.357   7.128
52471SOL    HW159245   9.781   9.410   7.158
52471SOL    HW259246   9.710   9.364   7.032
52472SOL     OW59247   4.133   9.868   8.686
52472SOL    HW159248   4.113   9.956   8.719
52472SOL    HW259249   4.076   9.810   8.737
52473SOL     OW59250  10.955  10.812   5.260
52473SOL    HW159251  10.985  10.871   5.190
52473SOL    HW259252  10.923  10.735   5.214
52474SOL     OW59253   4.914   5.042   3.030
52474SOL    HW159254   4.898   5.013   3.120
52474SOL    HW259255   4.851   5.113   3.016
52475SOL     OW59256   9.199   9.003   4.305
52475SOL    HW159257   9.144   9.038   4.235
52475SOL    HW259258   9.140   8.997   4.380
52476SOL     OW59259   9.636  10.276  14.593
52476SOL    HW159260   9.661  10.224  14.669
52476SOL    HW259261   9.590  10.351  14.629
52477SOL     OW59262   7.865  10.063   7.532
52477SOL    HW159263   7.814  10.143   7.533
52477SOL    HW259264   7.831  10.014   7.457
52478SOL     OW59265  10.731   7.066   1.750
52478SOL    HW159266  10.728   7.012   1.671
52478SOL    HW259267  10.703   7.007   1.820
52479SOL     OW59268  13.008  10.465  13.008
52479SOL    HW159269  13.031  10.407  13.081
52479SOL    HW259270  12.966  10.540  13.050
52480SOL     OW59271   5.904   8.775  10.879
52480SOL    HW159272   5.926   8.689  10.844
52480SOL    HW259273   5.868   8.758  10.966
52481SOL     OW59274   2.595   7.805   7.468
52481SOL    HW159275   2.523   7.827   7.527
52481SOL    HW259276   2.636   7.889   7.448
52482SOL     OW59277   3.966   4.267   3.541
52482SOL    HW159278   3.916   4.224   3.611
52482SOL    HW259279   4.048   4.219   3.537
52483SOL     OW59280  13.403   8.564  11.724
52483SOL    HW159281  13.408   8.570  11.820
52483SOL    HW259282  13.311   8.549  11.706
52484SOL     OW59283   6.515  10.927  11.171
52484SOL    HW159284   6.561  10.985  11.110
52484SOL    HW259285   6.539  10.959  11.258
52485SOL     OW59286  10.008   4.751   9.051
52485SOL    HW159287   9.917   4.724   9.050
52485SOL    HW259288  10.058   4.670   9.038
52486SOL     OW59289  12.417   8.241  14.271
52486SOL    HW159290  12.498   8.222  14.225
52486SOL    HW259291  12.444   8.256  14.362
52487SOL     OW59292  13.249   2.420   6.271
52487SOL    HW159293  13.321   2.479   6.292
52487SOL    HW259294  13.228   2.377   6.354
52488SOL     OW59295   0.814   3.317   5.950
52488SOL    HW159296   0.808   3.363   6.034
52488SOL    HW259297   0.783   3.380   5.885
52489SOL     OW59298  14.044   4.864   6.291
52489SOL    HW159299  14.000   4.807   6.229
52489SOL    HW259300  14.112   4.908   6.240
52490SOL     OW59301   3.804   2.636   7.854
52490SOL    HW159302   3.816   2.691   7.777
52490SOL    HW259303   3.885   2.586   7.861
52491SOL     OW59304  13.041   3.088  13.400
52491SOL    HW159305  13.085   3.007  13.426
52491SOL    HW259306  12.956   3.059  13.367
52492SOL     OW59307  12.671  11.494   6.437
52492SOL    HW159308  12.611  11.443   6.491
52492SOL    HW259309  12.752  11.497   6.487
52493SOL     OW59310   0.866   0.408   8.036
52493SOL    HW159311   0.789   0.459   8.009
52493SOL    HW259312   0.941   0.462   8.011
52494SOL     OW59313   7.026  13.102   5.358
52494SOL    HW159314   7.105  13.053   5.381
52494SOL    HW259315   7.056  13.164   5.291
52495SOL     OW59316   1.023   6.560   0.075
52495SOL    HW159317   0.959   6.494   0.049
52495SOL    HW259318   1.064   6.524   0.154
52496SOL     OW59319  13.102  10.785   6.193
52496SOL    HW159320  13.119  10.836   6.114
52496SOL    HW259321  13.085  10.851   6.261
52497SOL     OW59322   8.737   7.893   2.693
52497SOL    HW159323   8.756   7.803   2.668
52497SOL    HW259324   8.661   7.917   2.639
52498SOL     OW59325   5.669  13.346  13.329
52498SOL    HW159326   5.713  13.269  13.363
52498SOL    HW259327   5.711  13.420  13.373
52499SOL     OW59328   4.291   1.563   1.014
52499SOL    HW159329   4.274   1.648   1.054
52499SOL    HW259330   4.218   1.548   0.955
52500SOL     OW59331   4.258   0.170   2.056
52500SOL    HW159332   4.326   0.142   2.118
52500SOL    HW259333   4.307   0.213   1.985
52501SOL     OW59334  14.019   8.969   3.821
52501SOL    HW159335  13.983   8.926   3.898
52501SOL    HW259336  13.969   8.934   3.748
52502SOL     OW59337   7.593   3.801   3.278
52502SOL    HW159338   7.551   3.887   3.271
52502SOL    HW259339   7.547   3.757   3.349
52503SOL     OW59340  11.160   6.398   9.034
52503SOL    HW159341  11.224   6.350   8.981
52503SOL    HW259342  11.148   6.343   9.112
52504SOL     OW59343   5.407   1.131  12.890
52504SOL    HW159344   5.343   1.073  12.930
52504SOL    HW259345   5.457   1.075  12.830
52505SOL     OW59346  11.379  13.352   4.055
52505SOL    HW159347  11.335  13.337   4.139
52505SOL    HW259348  11.309  13.350   3.990
52506SOL     OW59349   1.296   5.704   0.320
52506SOL    HW159350   1.223   5.666   0.369
52506SOL    HW259351   1.352   5.744   0.387
52507SOL     OW59352   5.460   0.223  10.804
52507SOL    HW159353   5.435   0.220  10.712
52507SOL    HW259354   5.505   0.140  10.819
52508SOL     OW59355  13.829   6.714  12.799
52508SOL    HW159356  13.825   6.629  12.843
52508SOL    HW259357  13.787   6.699  12.715
52509SOL     OW59358  13.024   5.597   9.617
52509SOL    HW159359  13.079   5.550   9.680
52509SOL    HW259360  12.936   5.593   9.655
52510SOL     OW59361   8.941   7.213  13.616
52510SOL    HW159362   9.017   7.163  13.643
52510SOL    HW259363   8.960   7.303  13.644
52511SOL     OW59364   1.566   6.176  11.484
52511SOL    HW159365   1.603   6.263  11.471
52511SOL    HW259366   1.628   6.117  11.440
52512SOL     OW59367  14.641   7.036   4.996
52512SOL    HW159368  14.627   6.978   4.921
52512SOL    HW259369  14.592   6.994   5.067
52513SOL     OW59370  13.116  13.560  13.573
52513SOL    HW159371  13.038  13.589  13.619
52513SOL    HW259372  13.107  13.464  13.567
52514SOL     OW59373   7.595   9.245   0.463
52514SOL    HW159374   7.632   9.289   0.386
52514SOL    HW259375   7.582   9.155   0.435
52515SOL     OW59376  14.695   0.893  13.505
52515SOL    HW159377  14.762   0.892  13.436
52515SOL    HW259378  14.619   0.852  13.464
52516SOL     OW59379   9.367  14.876   5.625
52516SOL    HW159380   9.283   0.001   5.579
52516SOL    HW259381   9.429   0.041   5.569
52517SOL     OW59382   9.598   3.988   0.299
52517SOL    HW159383   9.638   3.927   0.237
52517SOL    HW259384   9.531   3.937   0.343
52518SOL     OW59385   0.999   1.948  13.185
52518SOL    HW159386   1.071   1.899  13.226
52518SOL    HW259387   0.998   2.032  13.232
52519SOL     OW59388   4.308   6.460  10.584
52519SOL    HW159389   4.301   6.453  10.679
52519SOL    HW259390   4.354   6.542  10.569
52520SOL     OW59391  14.574  12.099   3.506
52520SOL    HW159392  14.489  12.061   3.527
52520SOL    HW259393  14.567  12.124   3.414
52521SOL     OW59394   9.794   9.934  10.256
52521SOL    HW159395   9.707   9.938  10.296
52521SOL    HW259396   9.814  10.025  10.233
52522SOL     OW59397  11.265   5.600  11.953
52522SOL    HW159398  11.342   5.545  11.937
52522SOL    HW259399  11.293   5.688  11.925
52523SOL     OW59400   2.044  14.697   0.483
52523SOL    HW159401   2.080  14.785   0.483
52523SOL    HW259402   2.028  14.678   0.576
52524SOL     OW59403  10.867   8.069   2.408
52524SOL    HW159404  10.798   8.128   2.377
52524SOL    HW259405  10.949   8.111   2.381
52525SOL     OW59406  12.517  11.649   7.658
52525SOL    HW159407  12.577  11.647   7.732
52525SOL    HW259408  12.478  11.736   7.661
52526SOL     OW59409   3.827  11.210   5.747
52526SOL    HW159410   3.880  11.273   5.697
52526SOL    HW259411   3.761  11.264   5.790
52527SOL     OW59412   2.314   0.463  14.185
52527SOL    HW159413   2.360   0.402  14.243
52527SOL    HW259414   2.356   0.452  14.100
52528SOL     OW59415   9.475   8.196  14.587
52528SOL    HW159416   9.403   8.194  14.649
52528SOL    HW259417   9.528   8.271  14.614
52529SOL     OW59418   0.315   8.861   6.089
52529SOL    HW159419   0.261   8.931   6.124
52529SOL    HW259420   0.368   8.903   6.021
52530SOL     OW59421   4.520   1.551   6.024
52530SOL    HW159422   4.448   1.606   5.993
52530SOL    HW259423   4.573   1.534   5.947
52531SOL     OW59424   6.137   8.057  11.890
52531SOL    HW159425   6.130   7.974  11.937
52531SOL    HW259426   6.071   8.113  11.930
52532SOL     OW59427   7.111  10.401   0.174
52532SOL    HW159428   7.105  10.434   0.084
52532SOL    HW259429   7.197  10.358   0.178
52533SOL     OW59430  14.781   1.288  13.396
52533SOL    HW159431  14.808   1.241  13.317
52533SOL    HW259432  14.858   1.287  13.452
52534SOL     OW59433   7.061   0.519   3.915
52534SOL    HW159434   7.021   0.486   3.996
52534SOL    HW259435   6.990   0.569   3.873
52535SOL     OW59436   2.102   7.600  12.570
52535SOL    HW159437   2.052   7.603  12.488
52535SOL    HW259438   2.140   7.688  12.577
52536SOL     OW59439   1.280   2.677  13.423
52536SOL    HW159440   1.232   2.594  13.422
52536SOL    HW259441   1.237   2.731  13.357
52537SOL     OW59442   4.023   7.278  11.858
52537SOL    HW159443   4.000   7.287  11.951
52537SOL    HW259444   3.941   7.294  11.812
52538SOL     OW59445   3.757  10.521  14.168
52538SOL    HW159446   3.765  10.427  14.185
52538SOL    HW259447   3.702  10.527  14.089
52539SOL     OW59448  14.739  10.490   2.612
52539SOL    HW159449  14.700  10.509   2.697
52539SOL    HW259450  14.742  10.575   2.568
52540SOL     OW59451  13.675   8.397   9.222
52540SOL    HW159452  13.664   8.354   9.307
52540SOL    HW259453  13.589   8.433   9.203
52541SOL     OW59454   2.588   3.476   3.611
52541SOL    HW159455   2.515   3.539   3.610
52541SOL    HW259456   2.607   3.460   3.519
52542SOL     OW59457   3.770   7.446  12.463
52542SOL    HW159458   3.832   7.429  12.393
52542SOL    HW259459   3.740   7.536  12.448
52543SOL     OW59460   1.094   4.418  12.153
52543SOL    HW159461   1.140   4.370  12.222
52543SOL    HW259462   1.110   4.367  12.074
52544SOL     OW59463   2.877   8.134   6.247
52544SOL    HW159464   2.944   8.073   6.218
52544SOL    HW259465   2.796   8.084   6.246
52545SOL     OW59466   3.531  10.367   2.938
52545SOL    HW159467   3.551  10.447   2.987
52545SOL    HW259468   3.589  10.370   2.863
52546SOL     OW59469   6.975  14.207  12.742
52546SOL    HW159470   6.957  14.129  12.794
52546SOL    HW259471   7.063  14.234  12.768
52547SOL     OW59472   6.802   7.723   7.165
52547SOL    HW159473   6.866   7.652   7.179
52547SOL    HW259474   6.788   7.723   7.070
52548SOL     OW59475   6.867  10.812   8.184
52548SOL    HW159476   6.954  10.840   8.158
52548SOL    HW259477   6.808  10.848   8.117
52549SOL     OW59478   4.712   9.055   9.044
52549SOL    HW159479   4.807   9.057   9.032
52549SOL    HW259480   4.697   9.108   9.122
52550SOL     OW59481   6.573   8.677   0.823
52550SOL    HW159482   6.541   8.626   0.749
52550SOL    HW259483   6.580   8.613   0.894
52551SOL     OW59484   6.082  14.662   7.405
52551SOL    HW159485   5.991  14.690   7.402
52551SOL    HW259486   6.083  14.590   7.468
52552SOL     OW59487  10.520   2.100   2.087
52552SOL    HW159488  10.518   2.158   2.011
52552SOL    HW259489  10.448   2.131   2.142
52553SOL     OW59490   7.241   5.057  13.474
52553SOL    HW159491   7.269   4.968  13.493
52553SOL    HW259492   7.224   5.057  13.379
52554SOL     OW59493  11.574   0.717  12.063
52554SOL    HW159494  11.664   0.708  12.033
52554SOL    HW259495  11.546   0.628  12.082
52555SOL     OW59496   5.055  13.683  14.154
52555SOL    HW159497   5.106  13.638  14.087
52555SOL    HW259498   5.050  13.620  14.226
52556SOL     OW59499  11.022   6.495   7.250
52556SOL    HW159500  11.020   6.413   7.301
52556SOL    HW259501  11.003   6.468   7.160
52557SOL     OW59502  12.223  12.773   4.056
52557SOL    HW159503  12.184  12.773   4.144
52557SOL    HW259504  12.196  12.689   4.019
52558SOL     OW59505   4.989   4.292   7.329
52558SOL    HW159506   5.043   4.349   7.275
52558SOL    HW259507   4.918   4.264   7.271
52559SOL     OW59508   8.515   8.521  10.815
52559SOL    HW159509   8.544   8.605  10.851
52559SOL    HW259510   8.511   8.463  10.891
52560SOL     OW59511  10.699   3.979   6.668
52560SOL    HW159512  10.604   3.995   6.663
52560SOL    HW259513  10.738   4.047   6.613
52561SOL     OW59514  10.575   3.975   5.183
52561SOL    HW159515  10.588   3.949   5.092
52561SOL    HW259516  10.654   4.024   5.205
52562SOL     OW59517   2.067  14.766  13.354
52562SOL    HW159518   1.995  14.715  13.391
52562SOL    HW259519   2.116  14.798  13.429
52563SOL     OW59520   5.910  11.343   8.509
52563SOL    HW159521   5.985  11.375   8.460
52563SOL    HW259522   5.857  11.422   8.525
52564SOL     OW59523  13.334  14.629   1.473
52564SOL    HW159524  13.352  14.679   1.393
52564SOL    HW259525  13.416  14.582   1.491
52565SOL     OW59526  10.259   2.836  14.810
52565SOL    HW159527  10.227   2.768  14.870
52565SOL    HW259528  10.202   2.911  14.825
52566SOL     OW59529   1.558  14.834   3.124
52566SOL    HW159530   1.560   0.048   3.117
52566SOL    HW259531   1.649  14.808   3.111
52567SOL     OW59532  12.588  12.661   2.613
52567SOL    HW159533  12.568  12.580   2.565
52567SOL    HW259534  12.639  12.632   2.689
52568SOL     OW59535  11.861   5.634   9.459
52568SOL    HW159536  11.946   5.634   9.504
52568SOL    HW259537  11.825   5.721   9.476
52569SOL     OW59538   8.937   5.928  13.998
52569SOL    HW159539   8.870   5.880  14.046
52569SOL    HW259540   8.896   5.950  13.915
52570SOL     OW59541   7.151   2.458  11.795
52570SOL    HW159542   7.247   2.455  11.798
52570SOL    HW259543   7.124   2.468  11.886
52571SOL     OW59544  13.724   1.861   7.991
52571SOL    HW159545  13.735   1.767   7.975
52571SOL    HW259546  13.677   1.865   8.075
52572SOL     OW59547   4.099   1.586   4.760
52572SOL    HW159548   4.145   1.523   4.815
52572SOL    HW259549   4.047   1.532   4.700
52573SOL     OW59550  12.521   9.284   6.299
52573SOL    HW159551  12.500   9.364   6.347
52573SOL    HW259552  12.442   9.263   6.250
52574SOL     OW59553   5.910   3.120   4.262
52574SOL    HW159554   5.855   3.121   4.184
52574SOL    HW259555   5.870   3.055   4.319
52575SOL     OW59556   4.737   3.085   9.998
52575SOL    HW159557   4.645   3.079  10.024
52575SOL    HW259558   4.741   3.046   9.911
52576SOL     OW59559   7.916   1.812   1.385
52576SOL    HW159560   7.992   1.791   1.332
52576SOL    HW259561   7.928   1.761   1.466
52577SOL     OW59562   5.525   1.905   6.167
52577SOL    HW159563   5.551   1.998   6.167
52577SOL    HW259564   5.511   1.885   6.260
52578SOL     OW59565   3.331   4.959  13.299
52578SOL    HW159566   3.426   4.969  13.303
52578SOL    HW259567   3.304   5.012  13.225
52579SOL     OW59568   3.683   8.947   1.033
52579SOL    HW159569   3.688   8.864   1.080
52579SOL    HW259570   3.740   9.006   1.082
52580SOL     OW59571  14.876   6.100  11.595
52580SOL    HW159572  14.877   6.190  11.627
52580SOL    HW259573   0.086   6.073  11.596
52581SOL     OW59574   5.306   7.493   4.237
52581SOL    HW159575   5.258   7.505   4.319
52581SOL    HW259576   5.243   7.451   4.178
52582SOL     OW59577   8.885  13.565   6.438
52582SOL    HW159578   8.866  13.501   6.506
52582SOL    HW259579   8.964  13.610   6.468
52583SOL     OW59580   8.206  12.500   3.410
52583SOL    HW159581   8.211  12.595   3.422
52583SOL    HW259582   8.269  12.464   3.472
52584SOL     OW59583  12.621  10.171   7.597
52584SOL    HW159584  12.548  10.145   7.654
52584SOL    HW259585  12.599  10.135   7.511
52585SOL     OW59586   8.461   5.720   0.730
52585SOL    HW159587   8.456   5.626   0.749
52585SOL    HW259588   8.450   5.762   0.815
52586SOL     OW59589  10.372  11.029   7.940
52586SOL    HW159590  10.451  11.075   7.911
52586SOL    HW259591  10.308  11.045   7.870
52587SOL     OW59592   8.757   7.145   1.546
52587SOL    HW159593   8.675   7.098   1.559
52587SOL    HW259594   8.749   7.184   1.459
52588SOL     OW59595  14.054   4.603  13.718
52588SOL    HW159596  13.970   4.570  13.686
52588SOL    HW259597  14.096   4.528  13.760
52589SOL     OW59598   8.323   3.643   5.241
52589SOL    HW159599   8.387   3.706   5.208
52589SOL    HW259600   8.300   3.589   5.165
52590SOL     OW59601   8.612   8.198   5.796
52590SOL    HW159602   8.541   8.197   5.860
52590SOL    HW259603   8.627   8.105   5.776
52591SOL     OW59604   1.029   5.810   8.166
52591SOL    HW159605   1.081   5.873   8.116
52591SOL    HW259606   1.080   5.795   8.245
52592SOL     OW59607   2.970   1.894   2.866
52592SOL    HW159608   3.059   1.868   2.890
52592SOL    HW259609   2.935   1.935   2.945
52593SOL     OW59610   5.010  11.743  12.771
52593SOL    HW159611   4.979  11.719  12.858
52593SOL    HW259612   4.976  11.831  12.756
52594SOL     OW59613  11.741   1.512   7.383
52594SOL    HW159614  11.717   1.441   7.323
52594SOL    HW259615  11.832   1.531   7.361
52595SOL     OW59616   9.054   3.703  14.822
52595SOL    HW159617   9.095   3.639  14.881
52595SOL    HW259618   9.045   3.657  14.739
52596SOL     OW59619   1.443  14.703  10.108
52596SOL    HW159620   1.447  14.796  10.131
52596SOL    HW259621   1.471  14.657  10.187
52597SOL     OW59622   8.910   6.924   4.768
52597SOL    HW159623   8.842   6.941   4.833
52597SOL    HW259624   8.884   6.974   4.691
52598SOL     OW59625  11.771  13.166   9.155
52598SOL    HW159626  11.687  13.198   9.190
52598SOL    HW259627  11.758  13.072   9.145
52599SOL     OW59628   3.264   7.458   4.290
52599SOL    HW159629   3.265   7.482   4.383
52599SOL    HW259630   3.200   7.387   4.284
52600SOL     OW59631  10.351   9.691   0.340
52600SOL    HW159632  10.387   9.777   0.317
52600SOL    HW259633  10.388   9.631   0.274
52601SOL     OW59634   0.080  10.700  13.033
52601SOL    HW159635   0.153  10.748  12.994
52601SOL    HW259636   0.050  10.756  13.104
52602SOL     OW59637   1.456  10.240   8.842
52602SOL    HW159638   1.409  10.322   8.857
52602SOL    HW259639   1.491  10.248   8.754
52603SOL     OW59640   3.562   9.312   4.475
52603SOL    HW159641   3.513   9.261   4.539
52603SOL    HW259642   3.619   9.368   4.527
52604SOL     OW59643   5.611  12.406   0.546
52604SOL    HW159644   5.637  12.357   0.468
52604SOL    HW259645   5.516  12.392   0.552
52605SOL     OW59646  14.150   6.700   8.504
52605SOL    HW159647  14.113   6.698   8.592
52605SOL    HW259648  14.239   6.668   8.515
52606SOL     OW59649  11.908   6.003   9.823
52606SOL    HW159650  11.898   6.051   9.741
52606SOL    HW259651  11.826   5.955   9.834
52607SOL     OW59652   3.406   3.317   6.467
52607SOL    HW159653   3.449   3.393   6.507
52607SOL    HW259654   3.329   3.302   6.522
52608SOL     OW59655  14.687   5.907   3.924
52608SOL    HW159656  14.694   5.957   4.006
52608SOL    HW259657  14.778   5.889   3.900
52609SOL     OW59658  11.232   8.364   4.812
52609SOL    HW159659  11.326   8.372   4.801
52609SOL    HW259660  11.215   8.399   4.900
52610SOL     OW59661   1.621  12.585   1.959
52610SOL    HW159662   1.532  12.579   1.993
52610SOL    HW259663   1.620  12.662   1.903
52611SOL     OW59664  11.203  13.694  14.525
52611SOL    HW159665  11.129  13.729  14.474
52611SOL    HW259666  11.276  13.692  14.463
52612SOL     OW59667   1.506   7.596  10.611
52612SOL    HW159668   1.428   7.615  10.663
52612SOL    HW259669   1.475   7.600  10.520
52613SOL     OW59670  14.641   0.068  10.330
52613SOL    HW159671  14.653   0.155  10.368
52613SOL    HW259672  14.554   0.041  10.358
52614SOL     OW59673   3.035  10.929   6.946
52614SOL    HW159674   2.975  10.983   6.998
52614SOL    HW259675   3.122  10.964   6.966
52615SOL     OW59676   2.116   4.874  11.747
52615SOL    HW159677   2.061   4.943  11.785
52615SOL    HW259678   2.161   4.836  11.823
52616SOL     OW59679  12.323   7.747   9.570
52616SOL    HW159680  12.280   7.665   9.594
52616SOL    HW259681  12.291   7.811   9.633
52617SOL     OW59682  13.421   0.050   8.297
52617SOL    HW159683  13.473   0.101   8.359
52617SOL    HW259684  13.340   0.099   8.286
52618SOL     OW59685  13.289  14.461   9.265
52618SOL    HW159686  13.364  14.474   9.324
52618SOL    HW259687  13.228  14.531   9.288
52619SOL     OW59688   8.041   4.427   7.599
52619SOL    HW159689   8.066   4.354   7.656
52619SOL    HW259690   8.077   4.403   7.514
52620SOL     OW59691   3.905  13.158   4.440
52620SOL    HW159692   3.973  13.096   4.465
52620SOL    HW259693   3.835  13.104   4.403
52621SOL     OW59694   0.293   2.894   3.255
52621SOL    HW159695   0.271   2.984   3.229
52621SOL    HW259696   0.208   2.854   3.275
52622SOL     OW59697   1.892   5.624  14.377
52622SOL    HW159698   1.971   5.572  14.394
52622SOL    HW259699   1.921   5.714  14.385
52623SOL     OW59700   2.279   0.040  11.519
52623SOL    HW159701   2.255   0.097  11.592
52623SOL    HW259702   2.198   0.028  11.470
52624SOL     OW59703   0.116  10.965  14.282
52624SOL    HW159704   0.196  10.936  14.327
52624SOL    HW259705   0.047  10.910  14.319
52625SOL     OW59706   3.294   0.616   4.880
52625SOL    HW159707   3.299   0.565   4.961
52625SOL    HW259708   3.375   0.666   4.878
52626SOL     OW59709   1.753  11.264   4.774
52626SOL    HW159710   1.843  11.270   4.806
52626SOL    HW259711   1.719  11.353   4.780
52627SOL     OW59712   5.118  11.671   6.042
52627SOL    HW159713   5.170  11.711   6.112
52627SOL    HW259714   5.037  11.723   6.039
52628SOL     OW59715  10.768   0.258   3.218
52628SOL    HW159716  10.688   0.228   3.175
52628SOL    HW259717  10.838   0.214   3.170
52629SOL     OW59718   0.725   4.221  13.411
52629SOL    HW159719   0.699   4.297  13.464
52629SOL    HW259720   0.816   4.239  13.387
52630SOL     OW59721   7.941   5.098  11.154
52630SOL    HW159722   7.851   5.101  11.188
52630SOL    HW259723   7.931   5.067  11.064
52631SOL     OW59724   3.108   6.309   2.261
52631SOL    HW159725   3.079   6.400   2.269
52631SOL    HW259726   3.200   6.311   2.290
52632SOL     OW59727   2.194   8.243  11.419
52632SOL    HW159728   2.177   8.150  11.404
52632SOL    HW259729   2.200   8.251  11.514
52633SOL     OW59730   2.401   3.601  11.694
52633SOL    HW159731   2.316   3.569  11.724
52633SOL    HW259732   2.427   3.540  11.625
52634SOL     OW59733   6.765   0.229   2.801
52634SOL    HW159734   6.779   0.194   2.889
52634SOL    HW259735   6.730   0.317   2.816
52635SOL     OW59736   8.286  14.536   8.160
52635SOL    HW159737   8.380  14.544   8.173
52635SOL    HW259738   8.262  14.614   8.109
52636SOL     OW59739  10.340   9.387  11.917
52636SOL    HW159740  10.252   9.383  11.880
52636SOL    HW259741  10.397   9.348  11.850
52637SOL     OW59742  11.808  13.665  14.518
52637SOL    HW159743  11.725  13.639  14.558
52637SOL    HW259744  11.867  13.593  14.536
52638SOL     OW59745   8.529   5.297   5.020
52638SOL    HW159746   8.538   5.265   5.109
52638SOL    HW259747   8.561   5.225   4.965
52639SOL     OW59748   0.550   6.814   1.164
52639SOL    HW159749   0.613   6.775   1.103
52639SOL    HW259750   0.466   6.812   1.117
52640SOL     OW59751  13.997   5.624   9.109
52640SOL    HW159752  14.008   5.591   9.198
52640SOL    HW259753  13.915   5.673   9.112
52641SOL     OW59754   8.716   1.824  11.266
52641SOL    HW159755   8.772   1.747  11.277
52641SOL    HW259756   8.747   1.886  11.331
52642SOL     OW59757  11.971   1.767   7.135
52642SOL    HW159758  11.989   1.737   7.225
52642SOL    HW259759  11.890   1.817   7.142
52643SOL     OW59760   5.023   3.751   6.009
52643SOL    HW159761   4.952   3.688   5.992
52643SOL    HW259762   5.023   3.808   5.932
52644SOL     OW59763  12.458   4.230   1.379
52644SOL    HW159764  12.366   4.209   1.394
52644SOL    HW259765  12.493   4.152   1.336
52645SOL     OW59766   2.938  13.841   5.024
52645SOL    HW159767   2.847  13.851   5.051
52645SOL    HW259768   2.982  13.805   5.101
52646SOL     OW59769  11.930   0.411  13.187
52646SOL    HW159770  11.953   0.478  13.123
52646SOL    HW259771  11.998   0.418  13.255
52647SOL     OW59772   5.219   5.019   7.795
52647SOL    HW159773   5.283   4.976   7.852
52647SOL    HW259774   5.151   5.050   7.854
52648SOL     OW59775   6.430   6.129   4.355
52648SOL    HW159776   6.452   6.198   4.417
52648SOL    HW259777   6.395   6.175   4.278
52649SOL     OW59778  13.857   7.209   8.660
52649SOL    HW159779  13.920   7.271   8.698
52649SOL    HW259780  13.906   7.127   8.651
52650SOL     OW59781  10.702   6.259  11.567
52650SOL    HW159782  10.736   6.190  11.624
52650SOL    HW259783  10.635   6.303  11.619
52651SOL     OW59784  11.958  14.394   0.747
52651SOL    HW159785  11.948  14.481   0.786
52651SOL    HW259786  11.950  14.409   0.652
52652SOL     OW59787  14.346  14.372   0.518
52652SOL    HW159788  14.296  14.335   0.592
52652SOL    HW259789  14.405  14.301   0.492
52653SOL     OW59790   9.044   3.281   4.536
52653SOL    HW159791   9.006   3.329   4.463
52653SOL    HW259792   9.139   3.286   4.522
52654SOL     OW59793  11.758   2.398   6.505
52654SOL    HW159794  11.679   2.388   6.451
52654SOL    HW259795  11.725   2.429   6.590
52655SOL     OW59796   5.591   0.206   6.823
52655SOL    HW159797   5.503   0.175   6.845
52655SOL    HW259798   5.578   0.292   6.785
52656SOL     OW59799   3.826  12.917  14.539
52656SOL    HW159800   3.788  12.832  14.559
52656SOL    HW259801   3.917  12.910  14.567
52657SOL     OW59802   1.149  10.588  12.567
52657SOL    HW159803   1.136  10.585  12.473
52657SOL    HW259804   1.086  10.653  12.598
52658SOL     OW59805  11.821  11.773  10.163
52658SOL    HW159806  11.903  11.821  10.178
52658SOL    HW259807  11.808  11.723  10.244
52659SOL     OW59808   6.133   7.149   3.329
52659SOL    HW159809   6.134   7.188   3.417
52659SOL    HW259810   6.194   7.075   3.336
52660SOL     OW59811  11.541   8.736   7.006
52660SOL    HW159812  11.619   8.753   6.954
52660SOL    HW259813  11.493   8.670   6.956
52661SOL     OW59814  14.737  14.797  10.118
52661SOL    HW159815  14.681  14.830  10.048
52661SOL    HW259816  14.684  14.807  10.197
52662SOL     OW59817   3.913   6.854   4.394
52662SOL    HW159818   3.995   6.853   4.344
52662SOL    HW259819   3.938   6.890   4.479
52663SOL     OW59820   6.398  11.095   0.125
52663SOL    HW159821   6.391  11.185   0.157
52663SOL    HW259822   6.389  11.041   0.204
52664SOL     OW59823   4.842   0.986  13.445
52664SOL    HW159824   4.762   0.987  13.393
52664SOL    HW259825   4.856   0.893  13.465
52665SOL     OW59826   9.059   3.284   2.171
52665SOL    HW159827   9.008   3.306   2.093
52665SOL    HW259828   9.113   3.209   2.144
52666SOL     OW59829  10.064   0.825   8.730
52666SOL    HW159830  10.054   0.731   8.741
52666SOL    HW259831  10.074   0.858   8.820
52667SOL     OW59832   5.203  12.941   6.341
52667SOL    HW159833   5.147  12.933   6.264
52667SOL    HW259834   5.238  12.853   6.354
52668SOL     OW59835   9.990   7.712   8.806
52668SOL    HW159836  10.066   7.743   8.855
52668SOL    HW259837   9.960   7.635   8.855
52669SOL     OW59838  12.118   3.959   8.798
52669SOL    HW159839  12.083   4.010   8.871
52669SOL    HW259840  12.124   4.022   8.726
52670SOL     OW59841   2.448  13.568   6.294
52670SOL    HW159842   2.454  13.582   6.389
52670SOL    HW259843   2.412  13.649   6.260
52671SOL     OW59844   3.721  13.958   1.324
52671SOL    HW159845   3.670  13.882   1.354
52671SOL    HW259846   3.810  13.939   1.352
52672SOL     OW59847  13.201   0.814  12.743
52672SOL    HW159848  13.240   0.732  12.773
52672SOL    HW259849  13.142   0.788  12.672
52673SOL     OW59850  13.966   6.392   4.024
52673SOL    HW159851  13.879   6.430   4.035
52673SOL    HW259852  13.964   6.354   3.936
52674SOL     OW59853  11.820   0.143  11.793
52674SOL    HW159854  11.847   0.111  11.879
52674SOL    HW259855  11.741   0.194  11.810
52675SOL     OW59856  10.037  11.258   3.262
52675SOL    HW159857  10.129  11.286   3.264
52675SOL    HW259858  10.038  11.177   3.211
52676SOL     OW59859   0.747  12.819  14.007
52676SOL    HW159860   0.745  12.857  14.095
52676SOL    HW259861   0.656  12.818  13.979
52677SOL     OW59862   9.452   6.352   6.942
52677SOL    HW159863   9.478   6.272   6.988
52677SOL    HW259864   9.424   6.412   7.011
52678SOL     OW59865   5.251   2.966   4.476
52678SOL    HW159866   5.162   3.001   4.472
52678SOL    HW259867   5.304   3.040   4.507
52679SOL     OW59868   6.218   1.659   5.304
52679SOL    HW159869   6.301   1.706   5.303
52679SOL    HW259870   6.170   1.693   5.229
52680SOL     OW59871   6.287  11.352  13.983
52680SOL    HW159872   6.254  11.410  14.051
52680SOL    HW259873   6.368  11.393  13.953
52681SOL     OW59874  10.460  12.617  12.070
52681SOL    HW159875  10.555  12.612  12.081
52681SOL    HW259876  10.444  12.587  11.981
52682SOL     OW59877   3.495   9.854   1.294
52682SOL    HW159878   3.451   9.892   1.218
52682SOL    HW259879   3.423   9.827   1.352
52683SOL     OW59880  12.782  12.465  13.653
52683SOL    HW159881  12.841  12.390  13.658
52683SOL    HW259882  12.813  12.524  13.722
52684SOL     OW59883   5.311  14.721  13.133
52684SOL    HW159884   5.298  14.719  13.038
52684SOL    HW259885   5.319  14.814  13.154
52685SOL     OW59886   8.215  10.441  12.515
52685SOL    HW159887   8.265  10.470  12.439
52685SOL    HW259888   8.149  10.382  12.479
52686SOL     OW59889  13.101  11.331   4.929
52686SOL    HW159890  13.101  11.278   5.009
52686SOL    HW259891  13.048  11.407   4.951
52687SOL     OW59892  11.493   9.056   5.845
52687SOL    HW159893  11.425   9.123   5.836
52687SOL    HW259894  11.477   9.016   5.930
52688SOL     OW59895   4.160   5.070  13.821
52688SOL    HW159896   4.084   5.054  13.765
52688SOL    HW259897   4.203   5.147  13.783
52689SOL     OW59898  10.227   2.461  14.756
52689SOL    HW159899  10.160   2.486  14.692
52689SOL    HW259900  10.177   2.432  14.832
52690SOL     OW59901   5.350   1.973   4.536
52690SOL    HW159902   5.383   2.051   4.491
52690SOL    HW259903   5.366   1.990   4.629
52691SOL     OW59904   6.771   1.208   2.630
52691SOL    HW159905   6.862   1.197   2.602
52691SOL    HW259906   6.719   1.185   2.553
52692SOL     OW59907   8.287   5.784  11.253
52692SOL    HW159908   8.211   5.813  11.204
52692SOL    HW259909   8.270   5.813  11.343
52693SOL     OW59910   4.057  13.377  10.376
52693SOL    HW159911   4.083  13.316  10.307
52693SOL    HW259912   4.095  13.340  10.456
52694SOL     OW59913   4.492  14.641   9.638
52694SOL    HW159914   4.536  14.717   9.678
52694SOL    HW259915   4.405  14.673   9.615
52695SOL     OW59916   1.778  10.369  14.574
52695SOL    HW159917   1.727  10.295  14.541
52695SOL    HW259918   1.756  10.442  14.516
52696SOL     OW59919   5.966   6.972   4.722
52696SOL    HW159920   6.039   6.910   4.718
52696SOL    HW259921   5.993   7.036   4.788
52697SOL     OW59922   4.578  11.871   7.194
52697SOL    HW159923   4.578  11.910   7.107
52697SOL    HW259924   4.624  11.935   7.249
52698SOL     OW59925   3.085   2.397   8.241
52698SOL    HW159926   3.053   2.396   8.151
52698SOL    HW259927   3.134   2.315   8.250
52699SOL     OW59928   0.775  10.774  10.532
52699SOL    HW159929   0.770  10.865  10.505
52699SOL    HW259930   0.749  10.724  10.455
52700SOL     OW59931  11.489   1.285   0.438
52700SOL    HW159932  11.538   1.362   0.410
52700SOL    HW259933  11.476   1.234   0.358
52701SOL     OW59934   9.265   9.706  13.649
52701SOL    HW159935   9.293   9.761  13.577
52701SOL    HW259936   9.342   9.698  13.705
52702SOL     OW59937   3.844  10.528   8.341
52702SOL    HW159938   3.815  10.579   8.417
52702SOL    HW259939   3.928  10.568   8.317
52703SOL     OW59940  13.793   6.866   3.358
52703SOL    HW159941  13.802   6.808   3.433
52703SOL    HW259942  13.874   6.917   3.356
52704SOL     OW59943   6.334   4.460  10.096
52704SOL    HW159944   6.406   4.402  10.074
52704SOL    HW259945   6.344   4.477  10.190
52705SOL     OW59946  14.145   9.387   6.953
52705SOL    HW159947  14.097   9.463   6.919
52705SOL    HW259948  14.213   9.424   7.009
52706SOL     OW59949   5.961   5.181   7.848
52706SOL    HW159950   6.051   5.181   7.882
52706SOL    HW259951   5.963   5.117   7.777
52707SOL     OW59952   6.917   4.801  11.779
52707SOL    HW159953   6.868   4.750  11.843
52707SOL    HW259954   6.986   4.742  11.749
52708SOL     OW59955   6.453   4.907   2.176
52708SOL    HW159956   6.479   4.923   2.085
52708SOL    HW259957   6.535   4.913   2.226
52709SOL     OW59958   5.625   1.786   6.725
52709SOL    HW159959   5.647   1.791   6.818
52709SOL    HW259960   5.694   1.836   6.681
52710SOL     OW59961   8.346  11.380   8.557
52710SOL    HW159962   8.435  11.355   8.583
52710SOL    HW259963   8.296  11.300   8.563
52711SOL     OW59964   2.995   0.837  12.151
52711SOL    HW159965   2.941   0.895  12.097
52711SOL    HW259966   3.020   0.766  12.091
52712SOL     OW59967  13.982  10.463  11.636
52712SOL    HW159968  13.995  10.422  11.722
52712SOL    HW259969  13.937  10.545  11.656
52713SOL     OW59970  11.615   6.403   9.044
52713SOL    HW159971  11.678   6.452   9.098
52713SOL    HW259972  11.598   6.460   8.969
52714SOL     OW59973  14.673   5.222  11.377
52714SOL    HW159974  14.614   5.247  11.448
52714SOL    HW259975  14.761   5.242  11.411
52715SOL     OW59976   1.639  10.052   8.510
52715SOL    HW159977   1.554  10.077   8.473
52715SOL    HW259978   1.618   9.982   8.572
52716SOL     OW59979   7.918  12.645   7.836
52716SOL    HW159980   7.936  12.710   7.768
52716SOL    HW259981   7.999  12.639   7.886
52717SOL     OW59982   0.587   7.747  12.298
52717SOL    HW159983   0.544   7.782  12.377
52717SOL    HW259984   0.663   7.700  12.332
52718SOL     OW59985  13.227   4.044   7.907
52718SOL    HW159986  13.231   3.975   7.841
52718SOL    HW259987  13.163   4.011   7.971
52719SOL     OW59988  13.732   7.052   8.901
52719SOL    HW159989  13.809   7.016   8.858
52719SOL    HW259990  13.757   7.141   8.925
52720SOL     OW59991   3.806  10.303   3.561
52720SOL    HW159992   3.753  10.381   3.577
52720SOL    HW259993   3.760  10.233   3.608
52721SOL     OW59994  11.438   9.511   2.937
52721SOL    HW159995  11.467   9.583   2.994
52721SOL    HW259996  11.497   9.439   2.958
52722SOL     OW59997   3.530   5.196   2.926
52722SOL    HW159998   3.457   5.145   2.962
52722SOL    HW259999   3.540   5.165   2.836
52723SOL     OW60000   7.855   5.939   9.306
52723SOL    HW160001   7.869   5.844   9.308
52723SOL    HW260002   7.880   5.965   9.217
52724SOL     OW60003   5.971   9.317   1.294
52724SOL    HW160004   5.889   9.361   1.272
52724SOL    HW260005   6.037   9.363   1.243
52725SOL     OW60006  11.065   6.763   4.295
52725SOL    HW160007  11.110   6.833   4.343
52725SOL    HW260008  11.134   6.721   4.243
52726SOL     OW60009   8.204   1.964   6.375
52726SOL    HW160010   8.173   1.875   6.394
52726SOL    HW260011   8.254   1.955   6.294
52727SOL     OW60012   4.866  13.738   1.969
52727SOL    HW160013   4.936  13.794   1.935
52727SOL    HW260014   4.835  13.690   1.892
52728SOL     OW60015   1.799   6.732   8.447
52728SOL    HW160016   1.822   6.791   8.374
52728SOL    HW260017   1.868   6.665   8.446
52729SOL     OW60018  10.331  12.658   8.384
52729SOL    HW160019  10.333  12.563   8.371
52729SOL    HW260020  10.244  12.676   8.418
52730SOL     OW60021  10.944   2.059   8.497
52730SOL    HW160022  10.941   2.053   8.592
52730SOL    HW260023  11.010   1.994   8.471
52731SOL     OW60024   9.923   5.228   0.606
52731SOL    HW160025   9.993   5.292   0.597
52731SOL    HW260026   9.876   5.254   0.685
52732SOL     OW60027  13.135  11.296   5.218
52732SOL    HW160028  13.166  11.374   5.265
52732SOL    HW260029  13.214  11.258   5.180
52733SOL     OW60030  11.590   3.996   5.558
52733SOL    HW160031  11.535   3.977   5.634
52733SOL    HW260032  11.679   3.980   5.588
52734SOL     OW60033   6.658   0.792   9.021
52734SOL    HW160034   6.749   0.775   8.995
52734SOL    HW260035   6.609   0.787   8.938
52735SOL     OW60036   4.386   2.514   2.097
52735SOL    HW160037   4.295   2.499   2.124
52735SOL    HW260038   4.395   2.469   2.014
52736SOL     OW60039   4.720  12.520   7.350
52736SOL    HW160040   4.809  12.512   7.384
52736SOL    HW260041   4.665  12.529   7.428
52737SOL     OW60042  13.710   3.183  14.150
52737SOL    HW160043  13.672   3.269  14.131
52737SOL    HW260044  13.662   3.152  14.227
52738SOL     OW60045  11.938  13.413  12.495
52738SOL    HW160046  11.963  13.321  12.483
52738SOL    HW260047  12.013  13.453  12.539
52739SOL     OW60048  13.279   7.787   5.332
52739SOL    HW160049  13.272   7.730   5.409
52739SOL    HW260050  13.367   7.824   5.337
52740SOL     OW60051   8.901   7.011  12.576
52740SOL    HW160052   8.885   6.926  12.617
52740SOL    HW260053   8.934   7.066  12.647
52741SOL     OW60054   6.250   9.610   2.687
52741SOL    HW160055   6.316   9.679   2.698
52741SOL    HW260056   6.227   9.585   2.777
52742SOL     OW60057   0.111  11.714  12.462
52742SOL    HW160058   0.181  11.774  12.436
52742SOL    HW260059   0.122  11.639  12.403
52743SOL     OW60060  13.529   0.715  10.826
52743SOL    HW160061  13.558   0.631  10.863
52743SOL    HW260062  13.483   0.758  10.898
52744SOL     OW60063  13.715  13.409  13.753
52744SOL    HW160064  13.682  13.382  13.668
52744SOL    HW260065  13.739  13.501  13.741
52745SOL     OW60066  13.399   9.263   3.370
52745SOL    HW160067  13.346   9.336   3.337
52745SOL    HW260068  13.403   9.277   3.464
52746SOL     OW60069  11.746   1.178   5.637
52746SOL    HW160070  11.803   1.242   5.679
52746SOL    HW260071  11.804   1.128   5.579
52747SOL     OW60072   1.424  11.613   7.957
52747SOL    HW160073   1.359  11.609   8.027
52747SOL    HW260074   1.376  11.587   7.879
52748SOL     OW60075   0.264   3.003   6.877
52748SOL    HW160076   0.233   3.093   6.886
52748SOL    HW260077   0.311   3.003   6.793
52749SOL     OW60078  12.766   5.896   7.970
52749SOL    HW160079  12.726   5.914   8.055
52749SOL    HW260080  12.722   5.816   7.940
52750SOL     OW60081  11.947   6.357   1.064
52750SOL    HW160082  11.968   6.288   1.127
52750SOL    HW260083  12.019   6.419   1.071
52751SOL     OW60084   6.311   2.446   2.178
52751SOL    HW160085   6.263   2.523   2.146
52751SOL    HW260086   6.269   2.425   2.262
52752SOL     OW60087  11.670   7.252   4.310
52752SOL    HW160088  11.739   7.257   4.376
52752SOL    HW260089  11.708   7.199   4.240
52753SOL     OW60090   2.283   5.640  13.875
52753SOL    HW160091   2.342   5.693  13.822
52753SOL    HW260092   2.289   5.553  13.837
52754SOL     OW60093   7.560   6.088   0.505
52754SOL    HW160094   7.527   6.093   0.415
52754SOL    HW260095   7.585   5.996   0.515
52755SOL     OW60096   8.447   8.304   2.573
52755SOL    HW160097   8.510   8.370   2.543
52755SOL    HW260098   8.413   8.340   2.655
52756SOL     OW60099   8.541   7.109  12.124
52756SOL    HW160100   8.595   7.036  12.153
52756SOL    HW260101   8.493   7.074  12.048
52757SOL     OW60102   9.453   4.146  12.702
52757SOL    HW160103   9.493   4.069  12.741
52757SOL    HW260104   9.487   4.219  12.752
52758SOL     OW60105   1.224  14.316  10.022
52758SOL    HW160106   1.205  14.409  10.031
52758SOL    HW260107   1.259  14.291  10.107
52759SOL     OW60108   5.370  14.778   8.885
52759SOL    HW160109   5.359  14.762   8.979
52759SOL    HW260110   5.438  14.716   8.858
52760SOL     OW60111   3.161  13.053   8.767
52760SOL    HW160112   3.114  13.047   8.850
52760SOL    HW260113   3.235  12.993   8.776
52761SOL     OW60114   2.510  11.203   3.185
52761SOL    HW160115   2.504  11.112   3.211
52761SOL    HW260116   2.586  11.237   3.233
52762SOL     OW60117  14.600   3.201   6.224
52762SOL    HW160118  14.564   3.119   6.191
52762SOL    HW260119  14.552   3.218   6.305
52763SOL     OW60120   8.791   0.763   5.424
52763SOL    HW160121   8.811   0.780   5.516
52763SOL    HW260122   8.812   0.845   5.379
52764SOL     OW60123  14.335  13.514  12.642
52764SOL    HW160124  14.378  13.587  12.686
52764SOL    HW260125  14.298  13.462  12.713
52765SOL     OW60126  14.191   1.815   1.474
52765SOL    HW160127  14.264   1.770   1.431
52765SOL    HW260128  14.213   1.813   1.567
52766SOL     OW60129   1.487  14.139   4.114
52766SOL    HW160130   1.392  14.134   4.108
52766SOL    HW260131   1.512  14.197   4.042
52767SOL     OW60132   4.959   3.900   9.448
52767SOL    HW160133   5.004   3.828   9.493
52767SOL    HW260134   4.967   3.879   9.355
52768SOL     OW60135   7.088   4.008  14.722
52768SOL    HW160136   7.053   4.002  14.811
52768SOL    HW260137   7.182   3.995  14.732
52769SOL     OW60138  11.277   8.189   8.058
52769SOL    HW160139  11.198   8.203   8.006
52769SOL    HW260140  11.303   8.099   8.039
52770SOL     OW60141   4.435   7.976  13.345
52770SOL    HW160142   4.389   7.914  13.288
52770SOL    HW260143   4.400   8.061  13.321
52771SOL     OW60144   1.035  12.459  12.172
52771SOL    HW160145   1.115  12.413  12.198
52771SOL    HW260146   0.987  12.395  12.120
52772SOL     OW60147   2.540  10.628   5.247
52772SOL    HW160148   2.474  10.563   5.271
52772SOL    HW260149   2.492  10.711   5.249
52773SOL     OW60150  10.519   4.564   8.550
52773SOL    HW160151  10.547   4.553   8.641
52773SOL    HW260152  10.512   4.475   8.515
52774SOL     OW60153  10.649   7.452   7.729
52774SOL    HW160154  10.655   7.376   7.787
52774SOL    HW260155  10.691   7.424   7.647
52775SOL     OW60156  14.057  13.998  10.147
52775SOL    HW160157  14.071  13.907  10.176
52775SOL    HW260158  13.972  14.021  10.184
52776SOL     OW60159   6.414   5.732   1.902
52776SOL    HW160160   6.353   5.698   1.835
52776SOL    HW260161   6.358   5.751   1.977
52777SOL     OW60162  11.363  14.782   3.360
52777SOL    HW160163  11.379  14.759   3.269
52777SOL    HW260164  11.348  14.698   3.404
52778SOL     OW60165  13.099  13.576   6.702
52778SOL    HW160166  13.030  13.627   6.659
52778SOL    HW260167  13.122  13.627   6.780
52779SOL     OW60168   2.859   3.909   6.959
52779SOL    HW160169   2.868   4.002   6.979
52779SOL    HW260170   2.807   3.874   7.031
52780SOL     OW60171  14.059  10.227  13.653
52780SOL    HW160172  13.982  10.206  13.705
52780SOL    HW260173  14.024  10.253  13.568
52781SOL     OW60174  13.719   1.702   5.420
52781SOL    HW160175  13.692   1.773   5.361
52781SOL    HW260176  13.741   1.746   5.502
52782SOL     OW60177  11.729   6.431   7.998
52782SOL    HW160178  11.693   6.474   8.076
52782SOL    HW260179  11.821   6.456   7.997
52783SOL     OW60180  10.797   5.231   0.478
52783SOL    HW160181  10.800   5.250   0.384
52783SOL    HW260182  10.884   5.255   0.510
52784SOL     OW60183   9.379   9.960   5.884
52784SOL    HW160184   9.311   9.927   5.943
52784SOL    HW260185   9.332   9.986   5.805
52785SOL     OW60186   7.941   7.670  13.619
52785SOL    HW160187   7.925   7.622  13.538
52785SOL    HW260188   7.889   7.624  13.685
52786SOL     OW60189   2.375  11.922   7.697
52786SOL    HW160190   2.399  11.985   7.764
52786SOL    HW260191   2.410  11.958   7.616
52787SOL     OW60192   2.330   1.926  14.284
52787SOL    HW160193   2.324   1.837  14.250
52787SOL    HW260194   2.282   1.979  14.220
52788SOL     OW60195  11.632   0.759  12.581
52788SOL    HW160196  11.601   0.828  12.523
52788SOL    HW260197  11.700   0.801  12.633
52789SOL     OW60198   2.036   9.927   0.993
52789SOL    HW160199   1.949   9.965   0.976
52789SOL    HW260200   2.029   9.837   0.962
52790SOL     OW60201  13.691   5.335   3.210
52790SOL    HW160202  13.650   5.306   3.292
52790SOL    HW260203  13.765   5.275   3.198
52791SOL     OW60204   3.523  12.836  10.406
52791SOL    HW160205   3.580  12.793  10.342
52791SOL    HW260206   3.467  12.894  10.354
52792SOL     OW60207   0.082   5.050   4.682
52792SOL    HW160208   0.147   4.981   4.696
52792SOL    HW260209   0.127   5.131   4.708
52793SOL     OW60210   4.183   6.654  13.125
52793SOL    HW160211   4.223   6.654  13.212
52793SOL    HW260212   4.110   6.715  13.132
52794SOL     OW60213  10.955  14.071   9.362
52794SOL    HW160214  10.974  14.029   9.446
52794SOL    HW260215  11.000  14.018   9.298
52795SOL     OW60216  13.704   4.048  13.940
52795SOL    HW160217  13.786   4.095  13.925
52795SOL    HW260218  13.707   4.024  14.032
52796SOL     OW60219   7.766  12.958   8.980
52796SOL    HW160220   7.862  12.963   8.976
52796SOL    HW260221   7.741  12.908   8.903
52797SOL     OW60222  10.766   9.527   0.613
52797SOL    HW160223  10.800   9.528   0.524
52797SOL    HW260224  10.844   9.533   0.669
52798SOL     OW60225   1.943  14.451  13.164
52798SOL    HW160226   2.016  14.442  13.225
52798SOL    HW260227   1.875  14.496  13.215
52799SOL     OW60228   5.946   8.349   8.155
52799SOL    HW160229   5.857   8.327   8.126
52799SOL    HW260230   5.993   8.369   8.074
52800SOL     OW60231  13.683   0.583  10.251
52800SOL    HW160232  13.706   0.674  10.231
52800SOL    HW260233  13.670   0.542  10.166
52801SOL     OW60234  13.260   3.464  14.255
52801SOL    HW160235  13.200   3.389  14.246
52801SOL    HW260236  13.342   3.425  14.285
52802SOL     OW60237  13.216   4.246   3.987
52802SOL    HW160238  13.226   4.153   4.008
52802SOL    HW260239  13.296   4.268   3.938
52803SOL     OW60240   5.436  14.254  12.112
52803SOL    HW160241   5.464  14.334  12.068
52803SOL    HW260242   5.513  14.196  12.107
52804SOL     OW60243   5.930   5.516   3.243
52804SOL    HW160244   5.941   5.611   3.254
52804SOL    HW260245   5.961   5.479   3.326
52805SOL     OW60246  10.401  13.563  13.705
52805SOL    HW160247  10.432  13.653  13.715
52805SOL    HW260248  10.379  13.555  13.612
52806SOL     OW60249   1.329   8.119   1.824
52806SOL    HW160250   1.313   8.086   1.912
52806SOL    HW260251   1.339   8.214   1.835
52807SOL     OW60252  10.997   8.557   7.666
52807SOL    HW160253  11.087   8.542   7.697
52807SOL    HW260254  10.951   8.475   7.683
52808SOL     OW60255   2.964   5.775   3.176
52808SOL    HW160256   3.033   5.770   3.242
52808SOL    HW260257   2.908   5.700   3.195
52809SOL     OW60258   5.137  14.432   0.559
52809SOL    HW160259   5.226  14.396   0.549
52809SOL    HW260260   5.081  14.371   0.511
52810SOL     OW60261   5.719   2.175   7.168
52810SOL    HW160262   5.743   2.092   7.127
52810SOL    HW260263   5.783   2.238   7.135
52811SOL     OW60264  13.734  13.604   9.613
52811SOL    HW160265  13.722  13.648   9.697
52811SOL    HW260266  13.809  13.546   9.627
52812SOL     OW60267   6.374  11.917  11.899
52812SOL    HW160268   6.436  11.893  11.830
52812SOL    HW260269   6.349  11.834  11.938
52813SOL     OW60270   4.634   0.172   0.395
52813SOL    HW160271   4.708   0.229   0.377
52813SOL    HW260272   4.628   0.116   0.317
52814SOL     OW60273   5.171   7.921  10.599
52814SOL    HW160274   5.081   7.892  10.603
52814SOL    HW260275   5.219   7.860  10.655
52815SOL     OW60276  10.385   8.456  11.454
52815SOL    HW160277  10.294   8.441  11.431
52815SOL    HW260278  10.392   8.427  11.545
52816SOL     OW60279   9.889   5.901   4.198
52816SOL    HW160280   9.958   5.951   4.152
52816SOL    HW260281   9.921   5.811   4.198
52817SOL     OW60282   7.655  11.854   2.619
52817SOL    HW160283   7.666  11.836   2.526
52817SOL    HW260284   7.719  11.922   2.638
52818SOL     OW60285   2.539   9.302   0.754
52818SOL    HW160286   2.520   9.300   0.660
52818SOL    HW260287   2.472   9.247   0.794
52819SOL     OW60288  14.763   5.543   4.668
52819SOL    HW160289  14.707   5.483   4.618
52819SOL    HW260290  14.820   5.583   4.602
52820SOL     OW60291   0.758   6.978  12.092
52820SOL    HW160292   0.729   6.926  12.018
52820SOL    HW260293   0.836   6.934  12.124
52821SOL     OW60294   8.367  10.810   9.805
52821SOL    HW160295   8.280  10.828   9.842
52821SOL    HW260296   8.409  10.754   9.870
52822SOL     OW60297  11.593   4.910   7.515
52822SOL    HW160298  11.580   4.933   7.423
52822SOL    HW260299  11.521   4.954   7.560
52823SOL     OW60300  13.531  10.214   7.150
52823SOL    HW160301  13.529  10.276   7.077
52823SOL    HW260302  13.439  10.198   7.169
52824SOL     OW60303   5.974   1.471   3.490
52824SOL    HW160304   5.996   1.549   3.438
52824SOL    HW260305   5.950   1.506   3.575
52825SOL     OW60306  11.771   3.819   4.116
52825SOL    HW160307  11.762   3.790   4.206
52825SOL    HW260308  11.801   3.741   4.069
52826SOL     OW60309  11.488   0.597   5.799
52826SOL    HW160310  11.525   0.677   5.837
52826SOL    HW260311  11.398   0.594   5.831
52827SOL     OW60312   0.621  13.028   8.415
52827SOL    HW160313   0.531  13.005   8.392
52827SOL    HW260314   0.616  13.062   8.504
52828SOL     OW60315   4.077   2.129   5.441
52828SOL    HW160316   4.037   2.043   5.429
52828SOL    HW260317   4.003   2.189   5.449
52829SOL     OW60318   7.131   2.575   7.560
52829SOL    HW160319   7.036   2.580   7.553
52829SOL    HW260320   7.151   2.481   7.551
52830SOL     OW60321   0.661   9.443  13.248
52830SOL    HW160322   0.702   9.389  13.315
52830SOL    HW260323   0.732   9.468  13.190
52831SOL     OW60324   6.625   7.760   5.127
52831SOL    HW160325   6.571   7.712   5.189
52831SOL    HW260326   6.678   7.819   5.181
52832SOL     OW60327   9.003  10.163  13.306
52832SOL    HW160328   9.098  10.163  13.299
52832SOL    HW260329   8.986  10.146  13.399
52833SOL     OW60330   8.174  14.302   2.877
52833SOL    HW160331   8.252  14.265   2.918
52833SOL    HW260332   8.199  14.391   2.852
52834SOL     OW60333   6.489   6.331   1.205
52834SOL    HW160334   6.439   6.250   1.197
52834SOL    HW260335   6.469   6.363   1.293
52835SOL     OW60336   8.691   4.127   7.122
52835SOL    HW160337   8.706   4.162   7.210
52835SOL    HW260338   8.653   4.200   7.074
52836SOL     OW60339  11.857  11.148   9.221
52836SOL    HW160340  11.905  11.188   9.294
52836SOL    HW260341  11.904  11.066   9.204
52837SOL     OW60342  14.740   6.000  10.637
52837SOL    HW160343  14.648   5.993  10.665
52837SOL    HW260344  14.785   6.039  10.711
52838SOL     OW60345  12.998   6.366  14.138
52838SOL    HW160346  13.089   6.343  14.120
52838SOL    HW260347  12.991   6.458  14.113
52839SOL     OW60348   0.379   0.028   2.507
52839SOL    HW160349   0.384   0.083   2.585
52839SOL    HW260350   0.299   0.056   2.462
52840SOL     OW60351   1.116   3.340   8.210
52840SOL    HW160352   1.099   3.285   8.287
52840SOL    HW260353   1.065   3.419   8.225
52841SOL     OW60354   4.945  10.609   4.913
52841SOL    HW160355   4.992  10.549   4.971
52841SOL    HW260356   4.862  10.625   4.957
52842SOL     OW60357   0.918   9.061  11.916
52842SOL    HW160358   0.911   8.978  11.869
52842SOL    HW260359   0.886   9.042  12.004
52843SOL     OW60360   7.023   8.644   2.698
52843SOL    HW160361   7.072   8.647   2.780
52843SOL    HW260362   7.081   8.597   2.637
52844SOL     OW60363   7.886  12.072   3.910
52844SOL    HW160364   7.864  11.981   3.931
52844SOL    HW260365   7.880  12.076   3.814
52845SOL     OW60366   0.933   6.747   1.343
52845SOL    HW160367   0.863   6.808   1.367
52845SOL    HW260368   0.976   6.727   1.426
52846SOL     OW60369  12.151   4.820  14.263
52846SOL    HW160370  12.094   4.876  14.211
52846SOL    HW260371  12.240   4.851  14.244
52847SOL     OW60372   8.194   4.849   0.217
52847SOL    HW160373   8.238   4.772   0.182
52847SOL    HW260374   8.239   4.868   0.299
52848SOL     OW60375   7.078   0.497   2.265
52848SOL    HW160376   7.156   0.502   2.321
52848SOL    HW260377   7.004   0.502   2.326
52849SOL     OW60378  14.180  11.482   8.040
52849SOL    HW160379  14.187  11.542   8.114
52849SOL    HW260380  14.136  11.405   8.076
52850SOL     OW60381   9.730  13.660   7.769
52850SOL    HW160382   9.682  13.603   7.710
52850SOL    HW260383   9.766  13.728   7.712
52851SOL     OW60384   0.373   8.040  12.644
52851SOL    HW160385   0.454   8.076  12.678
52851SOL    HW260386   0.313   8.041  12.719
52852SOL     OW60387   7.198   5.633   9.177
52852SOL    HW160388   7.272   5.615   9.119
52852SOL    HW260389   7.174   5.547   9.212
52853SOL     OW60390   4.257  13.180  14.839
52853SOL    HW160391   4.309  13.182   0.037
52853SOL    HW260392   4.167  13.196  14.868
52854SOL     OW60393  10.049  14.345   5.175
52854SOL    HW160394  10.069  14.363   5.084
52854SOL    HW260395  10.040  14.250   5.180
52855SOL     OW60396   1.898  13.360   4.708
52855SOL    HW160397   1.834  13.389   4.643
52855SOL    HW260398   1.896  13.264   4.702
52856SOL     OW60399   7.070   9.929   7.637
52856SOL    HW160400   7.039   9.839   7.643
52856SOL    HW260401   7.146   9.924   7.579
52857SOL     OW60402   5.136   2.922   8.319
52857SOL    HW160403   5.118   2.868   8.397
52857SOL    HW260404   5.153   2.858   8.250
52858SOL     OW60405   3.139   6.729  10.735
52858SOL    HW160406   3.199   6.654  10.743
52858SOL    HW260407   3.052   6.689  10.728
52859SOL     OW60408   8.671   9.911  11.536
52859SOL    HW160409   8.669   9.830  11.587
52859SOL    HW260410   8.760   9.945  11.549
52860SOL     OW60411   8.538   4.929   0.987
52860SOL    HW160412   8.593   4.852   0.980
52860SOL    HW260413   8.482   4.912   1.063
52861SOL     OW60414   9.496  13.006  13.188
52861SOL    HW160415   9.543  12.924  13.171
52861SOL    HW260416   9.404  12.981  13.194
52862SOL     OW60417   5.054   7.568  10.476
52862SOL    HW160418   5.114   7.496  10.457
52862SOL    HW260419   5.012   7.544  10.558
52863SOL     OW60420   0.625   1.503  12.399
52863SOL    HW160421   0.591   1.579  12.351
52863SOL    HW260422   0.635   1.435  12.332
52864SOL     OW60423   6.901  12.969   1.931
52864SOL    HW160424   6.832  13.034   1.915
52864SOL    HW260425   6.868  12.915   2.002
52865SOL     OW60426   3.629  13.952   1.059
52865SOL    HW160427   3.696  13.923   1.121
52865SOL    HW260428   3.584  13.872   1.033
52866SOL     OW60429   1.918   3.910   4.075
52866SOL    HW160430   1.864   3.987   4.055
52866SOL    HW260431   2.008   3.939   4.060
52867SOL     OW60432  13.858   5.723   2.858
52867SOL    HW160433  13.789   5.675   2.902
52867SOL    HW260434  13.847   5.703   2.766
52868SOL     OW60435   1.946   7.696   0.292
52868SOL    HW160436   2.040   7.688   0.308
52868SOL    HW260437   1.940   7.728   0.202
52869SOL     OW60438   7.908  12.218   9.958
52869SOL    HW160439   7.870  12.301   9.987
52869SOL    HW260440   7.920  12.229   9.863
52870SOL     OW60441   4.483  11.538  11.089
52870SOL    HW160442   4.397  11.573  11.068
52870SOL    HW260443   4.473  11.502  11.178
52871SOL     OW60444   4.660   8.927   3.418
52871SOL    HW160445   4.593   8.888   3.474
52871SOL    HW260446   4.739   8.877   3.437
52872SOL     OW60447  14.404  11.961   8.427
52872SOL    HW160448  14.447  12.024   8.485
52872SOL    HW260449  14.365  11.896   8.486
52873SOL     OW60450   2.572   2.855   7.562
52873SOL    HW160451   2.552   2.787   7.498
52873SOL    HW260452   2.623   2.810   7.630
52874SOL     OW60453   4.252  10.772   0.489
52874SOL    HW160454   4.258  10.737   0.400
52874SOL    HW260455   4.179  10.725   0.528
52875SOL     OW60456   1.164  11.675   5.158
52875SOL    HW160457   1.217  11.749   5.189
52875SOL    HW260458   1.110  11.652   5.234
52876SOL     OW60459   0.100   4.156   3.015
52876SOL    HW160460   0.057   4.115   3.091
52876SOL    HW260461   0.056   4.118   2.939
52877SOL     OW60462  10.926   1.653   6.244
52877SOL    HW160463  10.894   1.696   6.324
52877SOL    HW260464  10.859   1.673   6.178
52878SOL     OW60465  11.130   7.027   9.680
52878SOL    HW160466  11.156   7.073   9.760
52878SOL    HW260467  11.157   6.936   9.696
52879SOL     OW60468   5.864   5.191   0.546
52879SOL    HW160469   5.835   5.196   0.637
52879SOL    HW260470   5.946   5.240   0.544
52880SOL     OW60471  10.834   4.922   4.196
52880SOL    HW160472  10.891   4.871   4.138
52880SOL    HW260473  10.747   4.886   4.182
52881SOL     OW60474   0.154   7.676   2.356
52881SOL    HW160475   0.106   7.744   2.403
52881SOL    HW260476   0.098   7.655   2.281
52882SOL     OW60477   7.333  11.588   1.681
52882SOL    HW160478   7.297  11.602   1.769
52882SOL    HW260479   7.408  11.649   1.676
52883SOL     OW60480   0.875  11.352  11.761
52883SOL    HW160481   0.834  11.275  11.722
52883SOL    HW260482   0.909  11.321  11.845
52884SOL     OW60483   0.468   1.942   0.083
52884SOL    HW160484   0.541   1.998   0.057
52884SOL    HW260485   0.390   1.995   0.067
52885SOL     OW60486   3.057   6.178   1.327
52885SOL    HW160487   3.113   6.250   1.355
52885SOL    HW260488   3.019   6.208   1.245
52886SOL     OW60489   8.304  14.348  14.333
52886SOL    HW160490   8.262  14.327  14.250
52886SOL    HW260491   8.254  14.422  14.367
52887SOL     OW60492   1.152   2.266   6.558
52887SOL    HW160493   1.105   2.341   6.520
52887SOL    HW260494   1.225   2.252   6.498
52888SOL     OW60495  12.296  11.171   2.022
52888SOL    HW160496  12.292  11.262   2.052
52888SOL    HW260497  12.224  11.127   2.067
52889SOL     OW60498  14.260   0.344   1.047
52889SOL    HW160499  14.282   0.420   0.992
52889SOL    HW260500  14.176   0.367   1.087
52890SOL     OW60501  14.666  11.836   4.020
52890SOL    HW160502  14.711  11.917   3.994
52890SOL    HW260503  14.664  11.783   3.941
52891SOL     OW60504   9.778   3.892  13.180
52891SOL    HW160505   9.715   3.859  13.117
52891SOL    HW260506   9.857   3.840  13.164
52892SOL     OW60507   9.100   6.926   8.855
52892SOL    HW160508   9.160   6.864   8.896
52892SOL    HW260509   9.055   6.875   8.788
52893SOL     OW60510  12.428   9.659  11.925
52893SOL    HW160511  12.374   9.615  11.859
52893SOL    HW260512  12.476   9.589  11.969
52894SOL     OW60513   3.414  11.679   6.967
52894SOL    HW160514   3.360  11.605   6.995
52894SOL    HW260515   3.480  11.688   7.036
52895SOL     OW60516   6.939  14.333   8.200
52895SOL    HW160517   6.876  14.293   8.139
52895SOL    HW260518   7.012  14.360   8.145
52896SOL     OW60519  14.874   9.979   5.425
52896SOL    HW160520   0.029   9.897   5.391
52896SOL    HW260521  14.781   9.961   5.436
52897SOL     OW60522   5.224   2.715  12.557
52897SOL    HW160523   5.266   2.778  12.497
52897SOL    HW260524   5.144   2.758  12.585
52898SOL     OW60525  14.226  13.767   6.247
52898SOL    HW160526  14.257  13.846   6.291
52898SOL    HW260527  14.184  13.800   6.167
52899SOL     OW60528   5.380  13.887   7.144
52899SOL    HW160529   5.472  13.913   7.144
52899SOL    HW260530   5.334  13.960   7.104
52900SOL     OW60531   8.917   1.074   9.186
52900SOL    HW160532   8.914   0.982   9.161
52900SOL    HW260533   8.928   1.073   9.281
52901SOL     OW60534   0.136   7.000   8.444
52901SOL    HW160535   0.156   6.950   8.365
52901SOL    HW260536   0.143   6.936   8.515
52902SOL     OW60537   5.037   7.429   7.018
52902SOL    HW160538   5.109   7.369   7.037
52902SOL    HW260539   4.987   7.385   6.950
52903SOL     OW60540   9.118   2.941   6.769
52903SOL    HW160541   9.132   2.880   6.697
52903SOL    HW260542   9.062   2.893   6.830
52904SOL     OW60543   2.885   0.218  14.678
52904SOL    HW160544   2.830   0.256  14.609
52904SOL    HW260545   2.928   0.143  14.635
52905SOL     OW60546   0.177   4.056   7.762
52905SOL    HW160547   0.245   4.123   7.765
52905SOL    HW260548   0.222   3.979   7.727
52906SOL     OW60549   7.835  13.239   7.563
52906SOL    HW160550   7.768  13.171   7.563
52906SOL    HW260551   7.802  13.304   7.626
52907SOL     OW60552   4.332  12.382   0.383
52907SOL    HW160553   4.404  12.436   0.417
52907SOL    HW260554   4.334  12.396   0.288
52908SOL     OW60555   6.385   8.895  13.587
52908SOL    HW160556   6.291   8.892  13.601
52908SOL    HW260557   6.415   8.968  13.640
52909SOL     OW60558   3.312  10.670   4.305
52909SOL    HW160559   3.382  10.614   4.340
52909SOL    HW260560   3.232  10.635   4.344
52910SOL     OW60561  12.599   4.745   2.100
52910SOL    HW160562  12.588   4.718   2.191
52910SOL    HW260563  12.599   4.664   2.050
52911SOL     OW60564   5.297   6.643   6.020
52911SOL    HW160565   5.298   6.686   5.934
52911SOL    HW260566   5.366   6.687   6.070
52912SOL     OW60567   9.514   8.194   1.853
52912SOL    HW160568   9.565   8.136   1.797
52912SOL    HW260569   9.492   8.268   1.797
52913SOL     OW60570  11.185   4.427   6.342
52913SOL    HW160571  11.273   4.393   6.359
52913SOL    HW260572  11.128   4.350   6.346
52914SOL     OW60573  10.989  13.669   6.124
52914SOL    HW160574  10.964  13.607   6.055
52914SOL    HW260575  11.082  13.687   6.108
52915SOL     OW60576  11.332   4.471   8.677
52915SOL    HW160577  11.311   4.399   8.618
52915SOL    HW260578  11.393   4.433   8.740
52916SOL     OW60579   4.056  11.979  12.079
52916SOL    HW160580   4.146  11.965  12.052
52916SOL    HW260581   4.009  11.902  12.046
52917SOL     OW60582   0.604  12.526  13.742
52917SOL    HW160583   0.683  12.532  13.795
52917SOL    HW260584   0.617  12.449  13.687
52918SOL     OW60585   5.497  14.162  11.171
52918SOL    HW160586   5.509  14.237  11.228
52918SOL    HW260587   5.409  14.130  11.191
52919SOL     OW60588   1.876   8.701  11.081
52919SOL    HW160589   1.905   8.776  11.134
52919SOL    HW260590   1.956   8.670  11.039
52920SOL     OW60591   0.854   2.469   5.495
52920SOL    HW160592   0.911   2.486   5.571
52920SOL    HW260593   0.792   2.404   5.526
52921SOL     OW60594   4.036   6.502  13.571
52921SOL    HW160595   3.951   6.459  13.573
52921SOL    HW260596   4.023   6.585  13.617
52922SOL     OW60597  14.635  13.492   0.250
52922SOL    HW160598  14.672  13.448   0.327
52922SOL    HW260599  14.540  13.492   0.266
52923SOL     OW60600   0.539   0.311  10.453
52923SOL    HW160601   0.591   0.379  10.496
52923SOL    HW260602   0.459   0.306  10.505
52924SOL     OW60603  12.604  14.065   7.049
52924SOL    HW160604  12.585  14.005   6.977
52924SOL    HW260605  12.519  14.082   7.090
52925SOL     OW60606  10.097   1.477   0.909
52925SOL    HW160607  10.138   1.397   0.940
52925SOL    HW260608  10.081   1.529   0.988
52926SOL     OW60609   1.613   4.463   2.990
52926SOL    HW160610   1.538   4.406   2.973
52926SOL    HW260611   1.662   4.463   2.908
52927SOL     OW60612   9.426   1.658   8.864
52927SOL    HW160613   9.433   1.574   8.819
52927SOL    HW260614   9.333   1.671   8.879
52928SOL     OW60615  11.350  12.494  11.952
52928SOL    HW160616  11.297  12.488  12.031
52928SOL    HW260617  11.419  12.557  11.973
52929SOL     OW60618   2.288   6.213  12.770
52929SOL    HW160619   2.305   6.304  12.742
52929SOL    HW260620   2.361   6.193  12.829
52930SOL     OW60621   0.317  12.736   6.685
52930SOL    HW160622   0.407  12.768   6.684
52930SOL    HW260623   0.283  12.756   6.597
52931SOL     OW60624   7.933  12.142   6.649
52931SOL    HW160625   7.977  12.131   6.733
52931SOL    HW260626   7.917  12.052   6.619
52932SOL     OW60627   2.003   0.557  11.042
52932SOL    HW160628   2.067   0.597  10.983
52932SOL    HW260629   2.043   0.564  11.129
52933SOL     OW60630   4.188   7.580   6.972
52933SOL    HW160631   4.187   7.504   6.914
52933SOL    HW260632   4.206   7.544   7.059
52934SOL     OW60633  11.535   1.960  10.663
52934SOL    HW160634  11.582   1.897  10.610
52934SOL    HW260635  11.445   1.957  10.630
52935SOL     OW60636   3.286   3.988   1.567
52935SOL    HW160637   3.204   4.020   1.607
52935SOL    HW260638   3.349   4.059   1.583
52936SOL     OW60639   4.801  13.899   1.618
52936SOL    HW160640   4.795  13.965   1.687
52936SOL    HW260641   4.743  13.828   1.647
52937SOL     OW60642  10.205   1.889   1.164
52937SOL    HW160643  10.258   1.900   1.085
52937SOL    HW260644  10.190   1.977   1.196
52938SOL     OW60645   1.331  12.913   1.087
52938SOL    HW160646   1.397  12.945   1.148
52938SOL    HW260647   1.376  12.843   1.038
52939SOL     OW60648  11.732  14.362   1.395
52939SOL    HW160649  11.768  14.436   1.445
52939SOL    HW260650  11.667  14.402   1.337
52940SOL     OW60651   0.992  10.466   8.470
52940SOL    HW160652   0.924  10.482   8.535
52940SOL    HW260653   1.010  10.372   8.477
52941SOL     OW60654   2.549   6.791   4.733
52941SOL    HW160655   2.628   6.739   4.748
52941SOL    HW260656   2.500   6.783   4.815
52942SOL     OW60657   3.519   3.300  11.283
52942SOL    HW160658   3.527   3.360  11.208
52942SOL    HW260659   3.532   3.213  11.245
52943SOL     OW60660   3.795   8.190   2.540
52943SOL    HW160661   3.730   8.193   2.611
52943SOL    HW260662   3.768   8.260   2.480
52944SOL     OW60663  10.173   8.737   7.646
52944SOL    HW160664  10.252   8.790   7.630
52944SOL    HW260665  10.180   8.666   7.583
52945SOL     OW60666   0.285   5.144  13.668
52945SOL    HW160667   0.226   5.159  13.742
52945SOL    HW260668   0.296   5.230  13.628
52946SOL     OW60669   3.064  10.862   7.847
52946SOL    HW160670   3.029  10.905   7.925
52946SOL    HW260671   3.142  10.816   7.878
52947SOL     OW60672   8.256   8.563   2.905
52947SOL    HW160673   8.213   8.509   2.971
52947SOL    HW260674   8.217   8.649   2.914
52948SOL     OW60675   1.477   4.645   1.751
52948SOL    HW160676   1.518   4.731   1.741
52948SOL    HW260677   1.549   4.583   1.750
52949SOL     OW60678   4.985   0.738   6.043
52949SOL    HW160679   5.050   0.673   6.073
52949SOL    HW260680   4.905   0.687   6.031
52950SOL     OW60681  13.553   5.651   7.160
52950SOL    HW160682  13.458   5.667   7.160
52950SOL    HW260683  13.561   5.558   7.180
52951SOL     OW60684  11.935  13.342   3.124
52951SOL    HW160685  11.952  13.362   3.032
52951SOL    HW260686  11.881  13.414   3.155
52952SOL     OW60687   7.262   3.510  13.832
52952SOL    HW160688   7.191   3.516  13.769
52952SOL    HW260689   7.270   3.417  13.851
52953SOL     OW60690  12.037  12.948   8.798
52953SOL    HW160691  12.002  12.884   8.737
52953SOL    HW260692  12.084  13.010   8.743
52954SOL     OW60693   2.966  11.932   1.796
52954SOL    HW160694   3.049  11.897   1.762
52954SOL    HW260695   2.991  12.007   1.849
52955SOL     OW60696   0.740   7.461  11.863
52955SOL    HW160697   0.793   7.383  11.853
52955SOL    HW260698   0.665   7.433  11.916
52956SOL     OW60699   8.425   0.941  10.187
52956SOL    HW160700   8.447   1.014  10.129
52956SOL    HW260701   8.509   0.901  10.209
52957SOL     OW60702   6.245   4.791  11.581
52957SOL    HW160703   6.334   4.827  11.585
52957SOL    HW260704   6.257   4.700  11.552
52958SOL     OW60705  12.282   9.211   1.467
52958SOL    HW160706  12.252   9.263   1.392
52958SOL    HW260707  12.368   9.249   1.489
52959SOL     OW60708   8.621  14.120   8.822
52959SOL    HW160709   8.653  14.069   8.747
52959SOL    HW260710   8.588  14.201   8.783
52960SOL     OW60711  11.770   5.418   5.984
52960SOL    HW160712  11.828   5.406   6.060
52960SOL    HW260713  11.773   5.512   5.967
52961SOL     OW60714   4.980   4.309   1.757
52961SOL    HW160715   4.971   4.394   1.799
52961SOL    HW260716   4.896   4.295   1.713
52962SOL     OW60717   0.799   5.028  11.630
52962SOL    HW160718   0.770   4.998  11.716
52962SOL    HW260719   0.893   5.008  11.628
52963SOL     OW60720   6.683  13.861   9.619
52963SOL    HW160721   6.692  13.766   9.618
52963SOL    HW260722   6.589  13.877   9.626
52964SOL     OW60723  12.728   9.478   3.768
52964SOL    HW160724  12.703   9.548   3.829
52964SOL    HW260725  12.645   9.450   3.729
52965SOL     OW60726   4.079   4.498   5.773
52965SOL    HW160727   4.113   4.536   5.854
52965SOL    HW260728   4.132   4.539   5.704
52966SOL     OW60729   4.671   1.058   0.613
52966SOL    HW160730   4.686   1.083   0.705
52966SOL    HW260731   4.758   1.056   0.574
52967SOL     OW60732  14.337  13.210  10.084
52967SOL    HW160733  14.409  13.182  10.140
52967SOL    HW260734  14.355  13.302  10.065
52968SOL     OW60735   7.848   5.144   2.230
52968SOL    HW160736   7.877   5.232   2.254
52968SOL    HW260737   7.896   5.125   2.150
52969SOL     OW60738  12.625   9.930   0.419
52969SOL    HW160739  12.553   9.875   0.391
52969SOL    HW260740  12.604   9.953   0.509
52970SOL     OW60741  11.568  12.481   1.024
52970SOL    HW160742  11.648  12.447   0.984
52970SOL    HW260743  11.515  12.512   0.950
52971SOL     OW60744   3.688   2.366   8.846
52971SOL    HW160745   3.679   2.457   8.819
52971SOL    HW260746   3.782   2.353   8.857
52972SOL     OW60747   4.189   5.382  13.728
52972SOL    HW160748   4.118   5.362  13.668
52972SOL    HW260749   4.198   5.478  13.724
52973SOL     OW60750   2.309   5.781   8.822
52973SOL    HW160751   2.260   5.824   8.751
52973SOL    HW260752   2.295   5.687   8.807
52974SOL     OW60753   9.378   9.106   5.351
52974SOL    HW160754   9.451   9.146   5.302
52974SOL    HW260755   9.382   9.148   5.437
52975SOL     OW60756   9.153  10.390  11.863
52975SOL    HW160757   9.134  10.454  11.931
52975SOL    HW260758   9.214  10.434  11.804
52976SOL     OW60759   0.239   4.262  11.785
52976SOL    HW160760   0.172   4.268  11.717
52976SOL    HW260761   0.203   4.313  11.858
52977SOL     OW60762   0.027   0.163   3.947
52977SOL    HW160763   0.021   0.068   3.945
52977SOL    HW260764   0.057   0.183   4.036
52978SOL     OW60765   4.814   9.104   6.958
52978SOL    HW160766   4.884   9.155   6.999
52978SOL    HW260767   4.755   9.171   6.921
52979SOL     OW60768  13.795   3.745  11.836
52979SOL    HW160769  13.782   3.723  11.744
52979SOL    HW260770  13.743   3.680  11.884
52980SOL     OW60771   1.794  10.399   1.149
52980SOL    HW160772   1.710  10.405   1.193
52980SOL    HW260773   1.851  10.460   1.196
52981SOL     OW60774   2.118   4.376   4.830
52981SOL    HW160775   2.058   4.418   4.769
52981SOL    HW260776   2.105   4.282   4.817
52982SOL     OW60777   7.195  12.848   7.116
52982SOL    HW160778   7.132  12.905   7.161
52982SOL    HW260779   7.188  12.764   7.161
52983SOL     OW60780   2.879   9.436   6.147
52983SOL    HW160781   2.810   9.426   6.211
52983SOL    HW260782   2.939   9.364   6.164
52984SOL     OW60783   0.088   0.438   9.646
52984SOL    HW160784   0.159   0.499   9.664
52984SOL    HW260785   0.119   0.354   9.680
52985SOL     OW60786   2.215  13.175  13.211
52985SOL    HW160787   2.272  13.137  13.144
52985SOL    HW260788   2.179  13.253  13.171
52986SOL     OW60789   3.862   0.129   1.692
52986SOL    HW160790   3.882   0.222   1.704
52986SOL    HW260791   3.839   0.121   1.599
52987SOL     OW60792  12.592   5.167   4.913
52987SOL    HW160793  12.672   5.145   4.864
52987SOL    HW260794  12.599   5.116   4.994
52988SOL     OW60795  11.160   3.769  13.913
52988SOL    HW160796  11.130   3.679  13.918
52988SOL    HW260797  11.079   3.821  13.906
52989SOL     OW60798   2.148   7.416  12.768
52989SOL    HW160799   2.083   7.347  12.781
52989SOL    HW260800   2.110   7.473  12.702
52990SOL     OW60801   0.252   8.082   6.638
52990SOL    HW160802   0.240   8.049   6.549
52990SOL    HW260803   0.344   8.064   6.657
52991SOL     OW60804   4.885   0.284   7.847
52991SOL    HW160805   4.805   0.314   7.891
52991SOL    HW260806   4.955   0.336   7.885
52992SOL     OW60807   4.887  13.617   2.235
52992SOL    HW160808   4.954  13.550   2.242
52992SOL    HW260809   4.888  13.644   2.143
52993SOL     OW60810   1.571   7.490   1.798
52993SOL    HW160811   1.615   7.532   1.871
52993SOL    HW260812   1.580   7.396   1.814
52994SOL     OW60813  11.485  12.805   8.378
52994SOL    HW160814  11.580  12.819   8.381
52994SOL    HW260815  11.460  12.827   8.288
52995SOL     OW60816  13.880  11.288   5.365
52995SOL    HW160817  13.884  11.291   5.460
52995SOL    HW260818  13.900  11.197   5.343
52996SOL     OW60819   4.115   0.086   2.487
52996SOL    HW160820   4.023   0.056   2.490
52996SOL    HW260821   4.109   0.180   2.470
52997SOL     OW60822   7.725  10.821  12.181
52997SOL    HW160823   7.642  10.804  12.225
52997SOL    HW260824   7.717  10.910  12.147
52998SOL     OW60825  11.964   7.651  12.078
52998SOL    HW160826  11.928   7.582  12.023
52998SOL    HW260827  12.048   7.616  12.109
52999SOL     OW60828   3.958   2.742  14.759
52999SOL    HW160829   4.012   2.688  14.702
52999SOL    HW260830   4.021   2.794  14.809
53000SOL     OW60831  13.918  11.057  14.583
53000SOL    HW160832  14.007  11.094  14.585
53000SOL    HW260833  13.872  11.099  14.655
53001SOL     OW60834  12.770  14.086  12.286
53001SOL    HW160835  12.776  14.137  12.366
53001SOL    HW260836  12.691  14.034  12.297
53002SOL     OW60837   3.115  13.086   0.225
53002SOL    HW160838   3.122  13.031   0.147
53002SOL    HW260839   3.023  13.080   0.251
53003SOL     OW60840   2.476   1.219  13.495
53003SOL    HW160841   2.487   1.247  13.586
53003SOL    HW260842   2.477   1.299  13.444
53004SOL     OW60843  13.255   5.620   8.381
53004SOL    HW160844  13.337   5.659   8.352
53004SOL    HW260845  13.199   5.695   8.401
53005SOL     OW60846   2.681   9.958  11.458
53005SOL    HW160847   2.723   9.940  11.373
53005SOL    HW260848   2.588   9.956  11.439
53006SOL     OW60849   4.162   9.078   3.100
53006SOL    HW160850   4.241   9.058   3.149
53006SOL    HW260851   4.193   9.115   3.017
53007SOL     OW60852  11.819   5.720  10.330
53007SOL    HW160853  11.911   5.722  10.302
53007SOL    HW260854  11.783   5.643  10.287
53008SOL     OW60855   3.080  10.054   3.296
53008SOL    HW160856   3.115  10.123   3.353
53008SOL    HW260857   2.994  10.087   3.269
53009SOL     OW60858  13.702   6.486   6.061
53009SOL    HW160859  13.745   6.530   6.134
53009SOL    HW260860  13.757   6.505   5.985
53010SOL     OW60861   6.375   4.161  11.750
53010SOL    HW160862   6.410   4.130  11.833
53010SOL    HW260863   6.320   4.090  11.718
53011SOL     OW60864   5.193  11.761   4.838
53011SOL    HW160865   5.234  11.814   4.769
53011SOL    HW260866   5.120  11.814   4.870
53012SOL     OW60867   7.466   1.215   3.630
53012SOL    HW160868   7.446   1.297   3.586
53012SOL    HW260869   7.558   1.225   3.657
53013SOL     OW60870   7.994   7.870   8.783
53013SOL    HW160871   8.085   7.853   8.756
53013SOL    HW260872   7.989   7.834   8.871
53014SOL     OW60873   2.073   9.843  13.559
53014SOL    HW160874   2.042   9.848  13.649
53014SOL    HW260875   2.165   9.818  13.566
53015SOL     OW60876  13.684  14.010   7.578
53015SOL    HW160877  13.653  14.043   7.662
53015SOL    HW260878  13.770  13.973   7.597
53016SOL     OW60879   7.855  13.476   9.472
53016SOL    HW160880   7.915  13.419   9.424
53016SOL    HW260881   7.770  13.432   9.468
53017SOL     OW60882  12.208   2.853   2.095
53017SOL    HW160883  12.207   2.940   2.135
53017SOL    HW260884  12.115   2.832   2.084
53018SOL     OW60885   4.225   9.853   4.421
53018SOL    HW160886   4.239   9.810   4.336
53018SOL    HW260887   4.246   9.945   4.405
53019SOL     OW60888  13.270  10.912   7.716
53019SOL    HW160889  13.198  10.884   7.659
53019SOL    HW260890  13.245  10.999   7.746
53020SOL     OW60891   4.564   6.512  12.791
53020SOL    HW160892   4.518   6.442  12.745
53020SOL    HW260893   4.514   6.525  12.871
53021SOL     OW60894   7.513  13.335   4.253
53021SOL    HW160895   7.482  13.262   4.306
53021SOL    HW260896   7.455  13.407   4.274
53022SOL     OW60897   0.114   1.288  13.563
53022SOL    HW160898   0.148   1.367  13.605
53022SOL    HW260899   0.101   1.226  13.635
53023SOL     OW60900   0.521   7.845   9.573
53023SOL    HW160901   0.600   7.870   9.621
53023SOL    HW260902   0.532   7.752   9.555
53024SOL     OW60903   4.383   6.606   5.173
53024SOL    HW160904   4.360   6.587   5.264
53024SOL    HW260905   4.422   6.524   5.141
53025SOL     OW60906   1.875  12.750   1.100
53025SOL    HW160907   1.872  12.658   1.124
53025SOL    HW260908   1.948  12.757   1.039
53026SOL     OW60909   3.481   7.712   3.605
53026SOL    HW160910   3.463   7.632   3.556
53026SOL    HW260911   3.407   7.770   3.587
53027SOL     OW60912   1.286  12.683   3.787
53027SOL    HW160913   1.317  12.738   3.860
53027SOL    HW260914   1.262  12.600   3.828
53028SOL     OW60915   5.198   2.535   5.939
53028SOL    HW160916   5.169   2.607   5.883
53028SOL    HW260917   5.279   2.567   5.979
53029SOL     OW60918   2.717   1.546   3.793
53029SOL    HW160919   2.812   1.547   3.805
53029SOL    HW260920   2.695   1.637   3.776
53030SOL     OW60921   5.359   5.682   1.701
53030SOL    HW160922   5.404   5.763   1.726
53030SOL    HW260923   5.290   5.711   1.641
53031SOL     OW60924   8.948   4.087  13.522
53031SOL    HW160925   8.938   4.173  13.479
53031SOL    HW260926   8.981   4.030  13.453
53032SOL     OW60927   3.517  12.915   2.480
53032SOL    HW160928   3.550  12.867   2.405
53032SOL    HW260929   3.514  13.006   2.452
53033SOL     OW60930   1.912   0.089   6.900
53033SOL    HW160931   1.938   0.157   6.962
53033SOL    HW260932   1.982   0.089   6.835
53034SOL     OW60933  14.868   6.371   1.494
53034SOL    HW160934   0.064   6.329   1.457
53034SOL    HW260935  14.881   6.367   1.588
53035SOL     OW60936  10.023   4.538   7.139
53035SOL    HW160937   9.945   4.516   7.088
53035SOL    HW260938  10.060   4.614   7.094
53036SOL     OW60939   0.470   6.662   8.063
53036SOL    HW160940   0.545   6.647   8.005
53036SOL    HW260941   0.469   6.585   8.120
53037SOL     OW60942   6.969  10.697  13.419
53037SOL    HW160943   6.949  10.606  13.396
53037SOL    HW260944   7.027  10.727  13.349
53038SOL     OW60945  13.586   8.154   9.928
53038SOL    HW160946  13.623   8.073   9.963
53038SOL    HW260947  13.513   8.174   9.986
53039SOL     OW60948   7.258   4.482   9.199
53039SOL    HW160949   7.302   4.564   9.178
53039SOL    HW260950   7.304   4.416   9.147
53040SOL     OW60951   9.788   8.249   4.224
53040SOL    HW160952   9.745   8.215   4.303
53040SOL    HW260953   9.719   8.250   4.158
53041SOL     OW60954   4.120   5.092  11.228
53041SOL    HW160955   4.187   5.147  11.188
53041SOL    HW260956   4.169   5.021  11.270
53042SOL     OW60957   4.816   2.969   9.629
53042SOL    HW160958   4.733   3.014   9.645
53042SOL    HW260959   4.883   3.035   9.645
53043SOL     OW60960   8.312   6.560   6.825
53043SOL    HW160961   8.296   6.653   6.840
53043SOL    HW260962   8.374   6.557   6.753
53044SOL     OW60963   5.165   2.934  14.812
53044SOL    HW160964   5.211   2.852  14.827
53044SOL    HW260965   5.140   2.965   0.017
53045SOL     OW60966   8.821  10.337   9.668
53045SOL    HW160967   8.914  10.342   9.646
53045SOL    HW260968   8.814  10.377   9.755
53046SOL     OW60969  14.160   5.344  11.123
53046SOL    HW160970  14.152   5.389  11.207
53046SOL    HW260971  14.231   5.389  11.078
53047SOL     OW60972  12.664  12.257   8.200
53047SOL    HW160973  12.703  12.330   8.247
53047SOL    HW260974  12.614  12.298   8.129
53048SOL     OW60975   0.865   7.970   6.364
53048SOL    HW160976   0.820   8.054   6.361
53048SOL    HW260977   0.911   7.970   6.448
53049SOL     OW60978  11.876   2.398   2.461
53049SOL    HW160979  11.806   2.462   2.479
53049SOL    HW260980  11.953   2.452   2.444
53050SOL     OW60981  13.903  13.510   1.491
53050SOL    HW160982  13.845  13.586   1.490
53050SOL    HW260983  13.985  13.543   1.527
53051SOL     OW60984   3.316   8.672  10.629
53051SOL    HW160985   3.323   8.662  10.724
53051SOL    HW260986   3.320   8.583  10.595
53052SOL     OW60987   6.368  13.163   1.965
53052SOL    HW160988   6.343  13.246   1.924
53052SOL    HW260989   6.312  13.157   2.042
53053SOL     OW60990  12.042  14.135   8.919
53053SOL    HW160991  11.949  14.116   8.932
53053SOL    HW260992  12.043  14.196   8.844
53054SOL     OW60993   2.862   8.650  12.926
53054SOL    HW160994   2.862   8.735  12.969
53054SOL    HW260995   2.770   8.635  12.903
53055SOL     OW60996  14.565   6.458  10.068
53055SOL    HW160997  14.505   6.523  10.106
53055SOL    HW260998  14.650   6.501  10.069
53056SOL     OW60999   4.591   8.340   6.937
53056SOL    HW161000   4.525   8.281   6.901
53056SOL    HW261001   4.599   8.411   6.873
53057SOL     OW61002   5.167   3.590   5.541
53057SOL    HW161003   5.124   3.594   5.627
53057SOL    HW261004   5.239   3.529   5.554
53058SOL     OW61005  10.527   6.024   4.474
53058SOL    HW161006  10.557   5.941   4.436
53058SOL    HW261007  10.432   6.015   4.480
53059SOL     OW61008   1.842   3.254   2.101
53059SOL    HW161009   1.905   3.318   2.135
53059SOL    HW261010   1.896   3.190   2.053
53060SOL     OW61011  13.176  11.947  10.126
53060SOL    HW161012  13.198  11.905  10.043
53060SOL    HW261013  13.080  11.946  10.129
53061SOL     OW61014   3.856  12.717   2.459
53061SOL    HW161015   3.928  12.657   2.478
53061SOL    HW261016   3.878  12.797   2.507
53062SOL     OW61017  12.405   7.052  11.104
53062SOL    HW161018  12.453   6.982  11.060
53062SOL    HW261019  12.318   7.015  11.121
53063SOL     OW61020   9.354  12.005  10.303
53063SOL    HW161021   9.286  12.051  10.353
53063SOL    HW261022   9.413  12.074  10.274
53064SOL     OW61023  12.475  12.189  14.424
53064SOL    HW161024  12.385  12.200  14.454
53064SOL    HW261025  12.480  12.240  14.343
53065SOL     OW61026   6.717  12.087   3.361
53065SOL    HW161027   6.768  12.008   3.339
53065SOL    HW261028   6.670  12.063   3.441
53066SOL     OW61029  14.434   9.143  12.206
53066SOL    HW161030  14.406   9.103  12.124
53066SOL    HW261031  14.502   9.206  12.181
53067SOL     OW61032   2.122  13.896  11.834
53067SOL    HW161033   2.213  13.922  11.822
53067SOL    HW261034   2.126  13.808  11.871
53068SOL     OW61035   2.780   5.776  11.827
53068SOL    HW161036   2.837   5.850  11.849
53068SOL    HW261037   2.719   5.770  11.900
53069SOL     OW61038   2.223  12.177  10.306
53069SOL    HW161039   2.145  12.127  10.330
53069SOL    HW261040   2.290  12.111  10.289
53070SOL     OW61041  10.590  12.565   6.695
53070SOL    HW161042  10.569  12.529   6.781
53070SOL    HW261043  10.681  12.593   6.701
53071SOL     OW61044   0.892   6.257   6.019
53071SOL    HW161045   0.809   6.288   6.054
53071SOL    HW261046   0.873   6.168   5.987
53072SOL     OW61047   9.745   4.061   3.176
53072SOL    HW161048   9.800   4.060   3.097
53072SOL    HW261049   9.799   4.019   3.243
53073SOL     OW61050   6.258   2.504   6.341
53073SOL    HW161051   6.214   2.587   6.324
53073SOL    HW261052   6.211   2.467   6.416
53074SOL     OW61053   1.674   2.797  11.183
53074SOL    HW161054   1.742   2.847  11.229
53074SOL    HW261055   1.610   2.776  11.251
53075SOL     OW61056   4.475   4.740   7.254
53075SOL    HW161057   4.548   4.751   7.315
53075SOL    HW261058   4.447   4.650   7.265
53076SOL     OW61059   2.400  12.824   9.181
53076SOL    HW161060   2.444  12.893   9.132
53076SOL    HW261061   2.467  12.756   9.192
53077SOL     OW61062   6.353   5.087   8.423
53077SOL    HW161063   6.425   5.120   8.477
53077SOL    HW261064   6.388   5.008   8.382
53078SOL     OW61065   1.084   7.952  10.920
53078SOL    HW161066   1.171   7.917  10.939
53078SOL    HW261067   1.026   7.905  10.980
53079SOL     OW61068   2.730   8.451  11.876
53079SOL    HW161069   2.648   8.501  11.877
53079SOL    HW261070   2.714   8.379  11.937
53080SOL     OW61071   9.594   0.239   7.235
53080SOL    HW161072   9.627   0.317   7.191
53080SOL    HW261073   9.673   0.194   7.266
53081SOL     OW61074   0.228   4.965   4.139
53081SOL    HW161075   0.197   5.047   4.178
53081SOL    HW261076   0.287   4.928   4.205
53082SOL     OW61077  11.971   7.284   2.555
53082SOL    HW161078  12.046   7.294   2.496
53082SOL    HW261079  11.950   7.191   2.551
53083SOL     OW61080  10.537  14.012   2.320
53083SOL    HW161081  10.562  14.048   2.235
53083SOL    HW261082  10.474  13.943   2.299
53084SOL     OW61083   1.821   2.226   4.613
53084SOL    HW161084   1.755   2.157   4.622
53084SOL    HW261085   1.824   2.244   4.520
53085SOL     OW61086  13.715   2.843   4.184
53085SOL    HW161087  13.665   2.907   4.133
53085SOL    HW261088  13.693   2.861   4.275
53086SOL     OW61089   8.561   0.987   6.567
53086SOL    HW161090   8.575   0.899   6.602
53086SOL    HW261091   8.535   0.972   6.476
53087SOL     OW61092  14.321   4.110   5.965
53087SOL    HW161093  14.376   4.185   5.942
53087SOL    HW261094  14.361   4.074   6.044
53088SOL     OW61095  14.862   7.258  13.428
53088SOL    HW161096   0.037   7.285  13.356
53088SOL    HW261097  14.849   7.338  13.479
53089SOL     OW61098   9.025   8.303  11.458
53089SOL    HW161099   8.947   8.338  11.502
53089SOL    HW261100   9.008   8.208  11.451
53090SOL     OW61101   8.567   3.229   0.197
53090SOL    HW161102   8.610   3.264   0.119
53090SOL    HW261103   8.492   3.287   0.211
53091SOL     OW61104   9.713  11.374  14.073
53091SOL    HW161105   9.740  11.322  13.997
53091SOL    HW261106   9.742  11.463  14.054
53092SOL     OW61107   1.769   6.213   9.151
53092SOL    HW161108   1.847   6.181   9.105
53092SOL    HW261109   1.706   6.141   9.146
53093SOL     OW61110   0.222   6.800   0.738
53093SOL    HW161111   0.163   6.791   0.663
53093SOL    HW261112   0.310   6.797   0.701
53094SOL     OW61113  12.302   9.813  14.395
53094SOL    HW161114  12.292   9.886  14.335
53094SOL    HW261115  12.391   9.781  14.380
53095SOL     OW61116   2.194   3.321  14.411
53095SOL    HW161117   2.162   3.276  14.489
53095SOL    HW261118   2.288   3.304  14.410
53096SOL     OW61119  12.650   7.098  10.187
53096SOL    HW161120  12.684   7.039  10.255
53096SOL    HW261121  12.629   7.179  10.233
53097SOL     OW61122   3.528  10.637   8.340
53097SOL    HW161123   3.494  10.715   8.296
53097SOL    HW261124   3.568  10.586   8.269
53098SOL     OW61125   6.396  13.548  12.440
53098SOL    HW161126   6.363  13.522  12.355
53098SOL    HW261127   6.364  13.481  12.501
53099SOL     OW61128   4.290   8.269   5.320
53099SOL    HW161129   4.294   8.362   5.297
53099SOL    HW261130   4.357   8.259   5.387
53100SOL     OW61131   2.011   3.271   6.090
53100SOL    HW161132   2.074   3.247   6.022
53100SOL    HW261133   2.025   3.207   6.160
53101SOL     OW61134  14.728  14.712  11.696
53101SOL    HW161135  14.746  14.654  11.771
53101SOL    HW261136  14.679  14.657  11.635
53102SOL     OW61137   7.265   8.985  13.420
53102SOL    HW161138   7.298   8.998  13.332
53102SOL    HW261139   7.310   9.051  13.473
53103SOL     OW61140   0.982   0.521   4.714
53103SOL    HW161141   1.018   0.555   4.632
53103SOL    HW261142   0.939   0.596   4.754
53104SOL     OW61143   9.077   1.234   8.574
53104SOL    HW161144   9.063   1.156   8.519
53104SOL    HW261145   9.155   1.276   8.538
53105SOL     OW61146   8.737   2.455   7.406
53105SOL    HW161147   8.813   2.494   7.363
53105SOL    HW261148   8.773   2.411   7.483
53106SOL     OW61149   2.754   4.212  13.753
53106SOL    HW161150   2.844   4.200  13.721
53106SOL    HW261151   2.700   4.216  13.674
53107SOL     OW61152   2.565   0.799  14.648
53107SOL    HW161153   2.588   0.891  14.636
53107SOL    HW261154   2.630   0.751  14.597
53108SOL     OW61155  14.233   8.999   9.232
53108SOL    HW161156  14.316   9.003   9.280
53108SOL    HW261157  14.225   9.085   9.190
53109SOL     OW61158   6.062   5.134   1.242
53109SOL    HW161159   6.140   5.121   1.297
53109SOL    HW261160   6.013   5.053   1.249
53110SOL     OW61161   4.474  13.613  13.056
53110SOL    HW161162   4.506  13.564  13.132
53110SOL    HW261163   4.512  13.568  12.981
53111SOL     OW61164   0.204   3.056   2.682
53111SOL    HW161165   0.250   3.060   2.597
53111SOL    HW261166   0.114   3.080   2.661
53112SOL     OW61167   7.839  14.540   5.287
53112SOL    HW161168   7.883  14.592   5.220
53112SOL    HW261169   7.824  14.455   5.246
53113SOL     OW61170   6.432   6.428   1.453
53113SOL    HW161171   6.413   6.371   1.528
53113SOL    HW261172   6.478   6.503   1.492
53114SOL     OW61173   4.465  13.866  13.957
53114SOL    HW161174   4.514  13.793  13.995
53114SOL    HW261175   4.491  13.866  13.865
53115SOL     OW61176   6.451   3.239  13.187
53115SOL    HW161177   6.437   3.315  13.244
53115SOL    HW261178   6.370   3.231  13.136
53116SOL     OW61179  10.433   9.702   5.954
53116SOL    HW161180  10.386   9.765   6.007
53116SOL    HW261181  10.448   9.746   5.870
53117SOL     OW61182   8.965   3.506  12.795
53117SOL    HW161183   8.942   3.427  12.748
53117SOL    HW261184   8.891   3.565  12.781
53118SOL     OW61185   6.997   9.963   3.868
53118SOL    HW161186   6.988   9.983   3.774
53118SOL    HW261187   7.032   9.874   3.870
53119SOL     OW61188   9.663   3.037   5.896
53119SOL    HW161189   9.748   3.014   5.935
53119SOL    HW261190   9.685   3.102   5.829
53120SOL     OW61191   1.030   5.291  11.561
53120SOL    HW161192   1.067   5.328  11.642
53120SOL    HW261193   1.103   5.291  11.499
53121SOL     OW61194  10.363   8.173   6.761
53121SOL    HW161195  10.446   8.220   6.752
53121SOL    HW261196  10.330   8.198   6.847
53122SOL     OW61197   6.346   3.167   6.867
53122SOL    HW161198   6.272   3.169   6.806
53122SOL    HW261199   6.393   3.249   6.849
53123SOL     OW61200   9.926  12.489   0.419
53123SOL    HW161201   9.870  12.543   0.364
53123SOL    HW261202   9.866  12.439   0.474
53124SOL     OW61203  14.637  13.369   2.907
53124SOL    HW161204  14.711  13.309   2.915
53124SOL    HW261205  14.667  13.451   2.947
53125SOL     OW61206   0.300   8.808   2.212
53125SOL    HW161207   0.274   8.827   2.302
53125SOL    HW261208   0.220   8.824   2.161
53126SOL     OW61209  10.322  10.593  11.326
53126SOL    HW161210  10.310  10.653  11.253
53126SOL    HW261211  10.265  10.519  11.305
53127SOL     OW61212   1.142  12.156   3.439
53127SOL    HW161213   1.090  12.146   3.358
53127SOL    HW261214   1.170  12.067   3.460
53128SOL     OW61215   5.286  10.707   8.033
53128SOL    HW161216   5.377  10.679   8.034
53128SOL    HW261217   5.279  10.770   8.106
53129SOL     OW61218  14.355   7.702   3.012
53129SOL    HW161219  14.340   7.619   2.967
53129SOL    HW261220  14.299   7.765   2.966
53130SOL     OW61221   3.606  13.499   2.903
53130SOL    HW161222   3.553  13.432   2.946
53130SOL    HW261223   3.589  13.486   2.809
53131SOL     OW61224   1.043   6.462   9.277
53131SOL    HW161225   1.105   6.452   9.349
53131SOL    HW261226   1.054   6.382   9.225
53132SOL     OW61227  13.954   4.115  14.311
53132SOL    HW161228  13.941   4.041  14.369
53132SOL    HW261229  14.037   4.097  14.267
53133SOL     OW61230  14.822  12.182  11.995
53133SOL    HW161231  14.762  12.152  12.064
53133SOL    HW261232  14.780  12.261  11.960
53134SOL     OW61233   0.594  10.018   1.776
53134SOL    HW161234   0.648  10.014   1.855
53134SOL    HW261235   0.508   9.987   1.804
53135SOL     OW61236   3.446  12.779   9.468
53135SOL    HW161237   3.475  12.796   9.557
53135SOL    HW261238   3.401  12.695   9.472
53136SOL     OW61239  10.797   3.975   6.974
53136SOL    HW161240  10.769   3.884   6.986
53136SOL    HW261241  10.774   3.995   6.883
53137SOL     OW61242   3.425  12.718   1.771
53137SOL    HW161243   3.514  12.726   1.805
53137SOL    HW261244   3.432  12.652   1.702
53138SOL     OW61245   7.291   1.935  11.473
53138SOL    HW161246   7.372   1.909  11.428
53138SOL    HW261247   7.301   2.030  11.486
53139SOL     OW61248   0.095   2.667   2.762
53139SOL    HW161249   0.182   2.701   2.783
53139SOL    HW261250   0.061   2.727   2.696
53140SOL     OW61251   9.552   6.154  10.339
53140SOL    HW161252   9.537   6.093  10.266
53140SOL    HW261253   9.583   6.098  10.410
53141SOL     OW61254   6.501   2.849  10.517
53141SOL    HW161255   6.527   2.898  10.439
53141SOL    HW261256   6.545   2.764  10.509
53142SOL     OW61257   2.918  14.683  11.101
53142SOL    HW161258   2.825  14.676  11.124
53142SOL    HW261259   2.961  14.623  11.162
53143SOL     OW61260   4.377   5.279   1.741
53143SOL    HW161261   4.414   5.222   1.809
53143SOL    HW261262   4.353   5.219   1.670
53144SOL     OW61263   5.338   0.776   9.230
53144SOL    HW161264   5.377   0.698   9.270
53144SOL    HW261265   5.414   0.830   9.205
53145SOL     OW61266  10.211  12.754   9.396
53145SOL    HW161267  10.243  12.664   9.398
53145SOL    HW261268  10.118  12.748   9.419
53146SOL     OW61269   6.129  13.745   6.490
53146SOL    HW161270   6.111  13.804   6.564
53146SOL    HW261271   6.132  13.658   6.530
53147SOL     OW61272  12.211   2.718   1.860
53147SOL    HW161273  12.118   2.706   1.837
53147SOL    HW261274  12.208   2.751   1.950
53148SOL     OW61275   7.072   2.900  13.274
53148SOL    HW161276   7.115   2.986  13.269
53148SOL    HW261277   7.043   2.893  13.365
53149SOL     OW61278  13.699   3.624   4.259
53149SOL    HW161279  13.684   3.718   4.267
53149SOL    HW261280  13.612   3.586   4.244
53150SOL     OW61281   9.203   6.826   4.946
53150SOL    HW161282   9.138   6.782   4.892
53150SOL    HW261283   9.192   6.787   5.033
53151SOL     OW61284  13.161   4.590   0.926
53151SOL    HW161285  13.141   4.678   0.895
53151SOL    HW261286  13.077   4.544   0.924
53152SOL     OW61287   5.902   1.272   6.338
53152SOL    HW161288   5.935   1.333   6.272
53152SOL    HW261289   5.808   1.268   6.322
53153SOL     OW61290  11.568   9.513  12.551
53153SOL    HW161291  11.604   9.425  12.553
53153SOL    HW261292  11.640   9.568  12.520
53154SOL     OW61293  11.880   5.358   3.785
53154SOL    HW161294  11.814   5.300   3.746
53154SOL    HW261295  11.929   5.393   3.710
53155SOL     OW61296   4.000   1.978   4.283
53155SOL    HW161297   4.046   2.036   4.223
53155SOL    HW261298   3.977   1.902   4.229
53156SOL     OW61299   9.569   5.939   4.343
53156SOL    HW161300   9.550   5.990   4.264
53156SOL    HW261301   9.494   5.879   4.351
53157SOL     OW61302   0.650   2.395   7.071
53157SOL    HW161303   0.593   2.324   7.098
53157SOL    HW261304   0.604   2.437   6.998
53158SOL     OW61305   0.114   1.217  10.248
53158SOL    HW161306   0.101   1.189  10.339
53158SOL    HW261307   0.170   1.150  10.210
53159SOL     OW61308   2.316   6.442  11.685
53159SOL    HW161309   2.270   6.444  11.769
53159SOL    HW261310   2.336   6.350  11.670
53160SOL     OW61311   7.423   0.051  13.631
53160SOL    HW161312   7.431   0.101  13.713
53160SOL    HW261313   7.457   0.110  13.564
53161SOL     OW61314   2.573   1.651   9.019
53161SOL    HW161315   2.607   1.561   9.025
53161SOL    HW261316   2.572   1.682   9.110
53162SOL     OW61317  12.313   0.690   4.600
53162SOL    HW161318  12.302   0.623   4.667
53162SOL    HW261319  12.226   0.703   4.564
53163SOL     OW61320   3.428   9.781  12.304
53163SOL    HW161321   3.346   9.830  12.311
53163SOL    HW261322   3.493   9.836  12.347
53164SOL     OW61323  14.590   1.807   2.362
53164SOL    HW161324  14.517   1.746   2.349
53164SOL    HW261325  14.550   1.883   2.404
53165SOL     OW61326   4.901  14.012   7.177
53165SOL    HW161327   4.847  14.086   7.205
53165SOL    HW261328   4.971  14.007   7.242
53166SOL     OW61329   7.916   0.430   0.104
53166SOL    HW161330   7.846   0.380   0.062
53166SOL    HW261331   7.870   0.498   0.153
53167SOL     OW61332   1.985   9.973   2.724
53167SOL    HW161333   1.956   9.991   2.635
53167SOL    HW261334   2.071  10.014   2.730
53168SOL     OW61335   1.467   5.155   0.398
53168SOL    HW161336   1.421   5.234   0.428
53168SOL    HW261337   1.399   5.097   0.365
53169SOL     OW61338  13.377  14.696  10.145
53169SOL    HW161339  13.312  14.628  10.160
53169SOL    HW261340  13.374  14.751  10.223
53170SOL     OW61341  12.946   8.900   6.664
53170SOL    HW161342  13.034   8.902   6.701
53170SOL    HW261343  12.907   8.983   6.693
53171SOL     OW61344  10.848   8.733   9.138
53171SOL    HW161345  10.783   8.769   9.077
53171SOL    HW261346  10.797   8.700   9.211
53172SOL     OW61347   3.054  10.427   0.605
53172SOL    HW161348   3.083  10.518   0.615
53172SOL    HW261349   3.126  10.383   0.561
53173SOL     OW61350   8.234   3.105  10.474
53173SOL    HW161351   8.272   3.025  10.436
53173SOL    HW261352   8.243   3.093  10.569
53174SOL     OW61353   3.175   0.606  11.987
53174SOL    HW161354   3.239   0.597  11.917
53174SOL    HW261355   3.201   0.541  12.052
53175SOL     OW61356  13.158   7.148  13.848
53175SOL    HW161357  13.165   7.207  13.773
53175SOL    HW261358  13.066   7.124  13.851
53176SOL     OW61359   6.958  11.570   6.998
53176SOL    HW161360   6.900  11.557   7.073
53176SOL    HW261361   6.901  11.608   6.931
53177SOL     OW61362   9.513   5.440   0.535
53177SOL    HW161363   9.519   5.344   0.538
53177SOL    HW261364   9.420   5.459   0.545
53178SOL     OW61365  10.059   0.837  10.995
53178SOL    HW161366  10.144   0.881  10.986
53178SOL    HW261367  10.046   0.827  11.089
53179SOL     OW61368  14.009   1.147   1.641
53179SOL    HW161369  14.019   1.096   1.721
53179SOL    HW261370  14.009   1.238   1.671
53180SOL     OW61371  12.909  12.028   1.751
53180SOL    HW161372  12.908  12.113   1.706
53180SOL    HW261373  12.985  11.982   1.714
53181SOL     OW61374   1.711   3.107   2.459
53181SOL    HW161375   1.745   3.150   2.538
53181SOL    HW261376   1.764   3.027   2.452
53182SOL     OW61377   8.389   1.534   9.877
53182SOL    HW161378   8.349   1.488   9.952
53182SOL    HW261379   8.385   1.470   9.806
53183SOL     OW61380   1.806  11.103   5.121
53183SOL    HW161381   1.820  11.192   5.152
53183SOL    HW261382   1.727  11.108   5.068
53184SOL     OW61383   5.120   6.105  12.239
53184SOL    HW161384   5.030   6.120  12.270
53184SOL    HW261385   5.163   6.061  12.312
53185SOL     OW61386   6.712   8.743   1.445
53185SOL    HW161387   6.716   8.648   1.436
53185SOL    HW261388   6.663   8.773   1.369
53186SOL     OW61389   8.635  14.160   1.741
53186SOL    HW161390   8.549  14.198   1.756
53186SOL    HW261391   8.689  14.194   1.812
53187SOL     OW61392   4.092   3.997  14.577
53187SOL    HW161393   4.168   3.956  14.536
53187SOL    HW261394   4.103   4.090  14.559
53188SOL     OW61395   8.259   8.648   6.831
53188SOL    HW161396   8.167   8.674   6.832
53188SOL    HW261397   8.288   8.656   6.922
53189SOL     OW61398   2.177   1.660   1.139
53189SOL    HW161399   2.259   1.691   1.100
53189SOL    HW261400   2.112   1.726   1.115
53190SOL     OW61401  12.122   5.037   9.142
53190SOL    HW161402  12.037   5.080   9.130
53190SOL    HW261403  12.101   4.954   9.183
53191SOL     OW61404  11.831   5.586  13.725
53191SOL    HW161405  11.799   5.669  13.690
53191SOL    HW261406  11.861   5.537  13.648
53192SOL     OW61407   1.767   8.945   7.950
53192SOL    HW161408   1.686   8.956   7.899
53192SOL    HW261409   1.832   8.916   7.886
53193SOL     OW61410   7.779   9.234   6.499
53193SOL    HW161411   7.735   9.279   6.426
53193SOL    HW261412   7.870   9.262   6.492
53194SOL     OW61413  14.607   6.748   0.354
53194SOL    HW161414  14.591   6.668   0.404
53194SOL    HW261415  14.686   6.729   0.303
53195SOL     OW61416  10.339  14.129  11.833
53195SOL    HW161417  10.316  14.186  11.760
53195SOL    HW261418  10.261  14.130  11.889
53196SOL     OW61419  13.049  10.241   9.225
53196SOL    HW161420  13.142  10.217   9.218
53196SOL    HW261421  13.018  10.244   9.135
53197SOL     OW61422   4.139   3.809   1.192
53197SOL    HW161423   4.185   3.886   1.159
53197SOL    HW261424   4.098   3.771   1.114
53198SOL     OW61425   9.792   7.856   9.445
53198SOL    HW161426   9.711   7.899   9.470
53198SOL    HW261427   9.819   7.807   9.522
53199SOL     OW61428   9.565  13.432   4.938
53199SOL    HW161429   9.478  13.471   4.948
53199SOL    HW261430   9.570  13.365   5.006
53200SOL     OW61431   4.767  10.113  11.073
53200SOL    HW161432   4.678  10.077  11.081
53200SOL    HW261433   4.816  10.071  11.143
53201SOL     OW61434   1.175  12.911   3.206
53201SOL    HW161435   1.108  12.931   3.270
53201SOL    HW261436   1.257  12.909   3.256
53202SOL     OW61437  12.826   1.566   1.949
53202SOL    HW161438  12.849   1.513   2.025
53202SOL    HW261439  12.862   1.653   1.968
53203SOL     OW61440   9.914   3.310   3.274
53203SOL    HW161441   9.856   3.368   3.225
53203SOL    HW261442  10.000   3.352   3.268
53204SOL     OW61443   9.080   3.499   4.261
53204SOL    HW161444   9.014   3.431   4.248
53204SOL    HW261445   9.042   3.557   4.326
53205SOL     OW61446   1.726   9.897  13.191
53205SOL    HW161447   1.719   9.992  13.201
53205SOL    HW261448   1.792   9.871  13.255
53206SOL     OW61449   7.310   0.254  13.879
53206SOL    HW161450   7.344   0.340  13.903
53206SOL    HW261451   7.280   0.215  13.962
53207SOL     OW61452   9.076   4.142  10.946
53207SOL    HW161453   9.170   4.153  10.958
53207SOL    HW261454   9.063   4.048  10.936
53208SOL     OW61455   6.737  10.798   9.414
53208SOL    HW161456   6.685  10.759   9.343
53208SOL    HW261457   6.828  10.779   9.391
53209SOL     OW61458  11.474   1.864   5.352
53209SOL    HW161459  11.477   1.890   5.260
53209SOL    HW261460  11.506   1.940   5.400
53210SOL     OW61461   9.170   2.850   2.305
53210SOL    HW161462   9.129   2.769   2.276
53210SOL    HW261463   9.145   2.859   2.397
53211SOL     OW61464  10.893  14.126   8.470
53211SOL    HW161465  10.820  14.106   8.412
53211SOL    HW261466  10.865  14.204   8.518
53212SOL     OW61467  13.213   5.911   0.717
53212SOL    HW161468  13.171   5.891   0.634
53212SOL    HW261469  13.140   5.927   0.777
53213SOL     OW61470  13.822  14.242   7.263
53213SOL    HW161471  13.803  14.156   7.300
53213SOL    HW261472  13.858  14.224   7.176
53214SOL     OW61473   7.494   3.023   1.449
53214SOL    HW161474   7.584   2.991   1.446
53214SOL    HW261475   7.442   2.949   1.478
53215SOL     OW61476   3.737   4.170   6.452
53215SOL    HW161477   3.707   4.154   6.542
53215SOL    HW261478   3.825   4.206   6.463
53216SOL     OW61479   8.756  11.149   5.945
53216SOL    HW161480   8.692  11.099   5.894
53216SOL    HW261481   8.838  11.139   5.898
53217SOL     OW61482   0.888  10.280   0.700
53217SOL    HW161483   0.945  10.235   0.763
53217SOL    HW261484   0.867  10.363   0.741
53218SOL     OW61485  10.293   6.700   5.731
53218SOL    HW161486  10.294   6.664   5.642
53218SOL    HW261487  10.208   6.744   5.737
53219SOL     OW61488   5.952  13.382   2.722
53219SOL    HW161489   5.938  13.288   2.707
53219SOL    HW261490   5.910  13.400   2.806
53220SOL     OW61491  11.108   7.207   5.653
53220SOL    HW161492  11.146   7.223   5.739
53220SOL    HW261493  11.063   7.288   5.630
53221SOL     OW61494  14.171   5.841  13.731
53221SOL    HW161495  14.263   5.868  13.738
53221SOL    HW261496  14.123   5.922  13.717
53222SOL     OW61497  11.515   7.255   2.550
53222SOL    HW161498  11.455   7.313   2.503
53222SOL    HW261499  11.457   7.190   2.591
53223SOL     OW61500  10.811   2.824  10.543
53223SOL    HW161501  10.865   2.871  10.606
53223SOL    HW261502  10.843   2.854  10.457
53224SOL     OW61503  12.243   6.700   6.848
53224SOL    HW161504  12.247   6.739   6.760
53224SOL    HW261505  12.168   6.641   6.845
53225SOL     OW61506  14.682   4.094  10.272
53225SOL    HW161507  14.628   4.079  10.349
53225SOL    HW261508  14.755   4.147  10.303
53226SOL     OW61509   0.508   6.745   7.554
53226SOL    HW161510   0.458   6.683   7.501
53226SOL    HW261511   0.589   6.698   7.575
53227SOL     OW61512  10.973   6.587  13.301
53227SOL    HW161513  11.054   6.575  13.251
53227SOL    HW261514  10.921   6.649  13.250
53228SOL     OW61515   3.238   0.804  13.510
53228SOL    HW161516   3.240   0.795  13.415
53228SOL    HW261517   3.316   0.758  13.541
53229SOL     OW61518  12.463   0.778   4.955
53229SOL    HW161519  12.552   0.790   4.988
53229SOL    HW261520  12.448   0.683   4.961
53230SOL     OW61521  12.774   2.859   3.216
53230SOL    HW161522  12.755   2.789   3.154
53230SOL    HW261523  12.853   2.901   3.181
53231SOL     OW61524  13.492   0.830   3.752
53231SOL    HW161525  13.494   0.841   3.847
53231SOL    HW261526  13.401   0.843   3.727
53232SOL     OW61527   5.148  12.860  12.938
53232SOL    HW161528   5.155  12.767  12.916
53232SOL    HW261529   5.069  12.865  12.992
53233SOL     OW61530  11.810  12.087   8.210
53233SOL    HW161531  11.845  12.044   8.133
53233SOL    HW261532  11.763  12.163   8.176
53234SOL     OW61533   2.104  10.546   3.562
53234SOL    HW161534   2.040  10.488   3.603
53234SOL    HW261535   2.061  10.632   3.562
53235SOL     OW61536   3.831  13.249   1.899
53235SOL    HW161537   3.803  13.212   1.983
53235SOL    HW261538   3.785  13.333   1.893
53236SOL     OW61539   0.330  13.469   2.075
53236SOL    HW161540   0.391  13.403   2.106
53236SOL    HW261541   0.245  13.442   2.111
53237SOL     OW61542   0.915   5.572   6.205
53237SOL    HW161543   0.890   5.583   6.297
53237SOL    HW261544   0.831   5.562   6.159
53238SOL     OW61545   9.334   2.725   6.373
53238SOL    HW161546   9.378   2.785   6.313
53238SOL    HW261547   9.386   2.730   6.454
53239SOL     OW61548  10.887   2.258   1.907
53239SOL    HW161549  10.841   2.275   1.989
53239SOL    HW261550  10.823   2.213   1.852
53240SOL     OW61551  12.178   1.088  11.169
53240SOL    HW161552  12.203   1.165  11.117
53240SOL    HW261553  12.228   1.097  11.250
53241SOL     OW61554  13.249   7.725   7.543
53241SOL    HW161555  13.301   7.773   7.607
53241SOL    HW261556  13.162   7.718   7.582
53242SOL     OW61557  13.733   0.309   3.600
53242SOL    HW161558  13.737   0.377   3.533
53242SOL    HW261559  13.775   0.348   3.677
53243SOL     OW61560   5.577   4.040   5.270
53243SOL    HW161561   5.569   3.965   5.212
53243SOL    HW261562   5.599   4.113   5.213
53244SOL     OW61563   8.101  13.816   1.395
53244SOL    HW161564   8.158  13.887   1.423
53244SOL    HW261565   8.160  13.743   1.378
53245SOL     OW61566   7.488   5.907   3.242
53245SOL    HW161567   7.494   5.838   3.308
53245SOL    HW261568   7.576   5.912   3.205
53246SOL     OW61569   3.096  13.675   0.547
53246SOL    HW161570   3.161  13.745   0.542
53246SOL    HW261571   3.141  13.603   0.591
53247SOL     OW61572   6.083  12.048   4.040
53247SOL    HW161573   6.040  12.106   4.104
53247SOL    HW261574   6.152  12.102   4.001
53248SOL     OW61575   3.935   1.851   7.796
53248SOL    HW161576   3.870   1.913   7.830
53248SOL    HW261577   4.008   1.857   7.857
53249SOL     OW61578  12.063   1.261   7.574
53249SOL    HW161579  12.142   1.218   7.541
53249SOL    HW261580  12.067   1.249   7.669
53250SOL     OW61581  12.870  10.760  12.112
53250SOL    HW161582  12.868  10.790  12.021
53250SOL    HW261583  12.856  10.665  12.106
53251SOL     OW61584  13.045  14.404  11.180
53251SOL    HW161585  13.061  14.311  11.191
53251SOL    HW261586  13.127  14.439  11.144
53252SOL     OW61587   3.967   6.012   2.751
53252SOL    HW161588   3.998   5.944   2.810
53252SOL    HW261589   3.975   5.973   2.664
53253SOL     OW61590   6.091   8.211   5.582
53253SOL    HW161591   6.149   8.211   5.506
53253SOL    HW261592   6.138   8.263   5.648
53254SOL     OW61593  13.625   5.105  13.449
53254SOL    HW161594  13.621   5.166  13.376
53254SOL    HW261595  13.653   5.158  13.523
53255SOL     OW61596  11.101  14.006   7.559
53255SOL    HW161597  11.080  14.099   7.551
53255SOL    HW261598  11.016  13.962   7.554
53256SOL     OW61599   7.773   1.404   1.225
53256SOL    HW161600   7.822   1.330   1.262
53256SOL    HW261601   7.840   1.456   1.180
53257SOL     OW61602   8.882   6.020  12.165
53257SOL    HW161603   8.960   5.999  12.216
53257SOL    HW261604   8.877   5.951  12.100
53258SOL     OW61605   7.195   2.815  10.175
53258SOL    HW161606   7.155   2.865  10.104
53258SOL    HW261607   7.234   2.739  10.132
53259SOL     OW61608  14.761  11.657   5.958
53259SOL    HW161609  14.743  11.748   5.982
53259SOL    HW261610  14.856  11.650   5.963
53260SOL     OW61611  11.303   7.629   9.866
53260SOL    HW161612  11.308   7.549   9.919
53260SOL    HW261613  11.240   7.608   9.797
53261SOL     OW61614   2.438   9.464   9.624
53261SOL    HW161615   2.348   9.488   9.646
53261SOL    HW261616   2.489   9.488   9.701
53262SOL     OW61617  12.155   2.433   0.390
53262SOL    HW161618  12.249   2.443   0.404
53262SOL    HW261619  12.114   2.488   0.457
53263SOL     OW61620   0.623  12.180  13.833
53263SOL    HW161621   0.549  12.193  13.893
53263SOL    HW261622   0.700  12.184  13.889
53264SOL     OW61623   0.852   3.113  14.821
53264SOL    HW161624   0.848   3.055  14.745
53264SOL    HW261625   0.779   3.174  14.808
53265SOL     OW61626   4.732  13.860  13.200
53265SOL    HW161627   4.811  13.841  13.149
53265SOL    HW261628   4.704  13.947  13.170
53266SOL     OW61629   6.673   4.460   6.459
53266SOL    HW161630   6.628   4.508   6.389
53266SOL    HW261631   6.603   4.428   6.516
53267SOL     OW61632  10.669   8.748  11.994
53267SOL    HW161633  10.604   8.679  11.977
53267SOL    HW261634  10.688   8.786  11.909
53268SOL     OW61635   2.140   7.267  14.372
53268SOL    HW161636   2.154   7.250  14.465
53268SOL    HW261637   2.088   7.193  14.342
53269SOL     OW61638   9.714  11.706   2.452
53269SOL    HW161639   9.735  11.785   2.404
53269SOL    HW261640   9.639  11.730   2.507
53270SOL     OW61641   2.180   8.584   2.114
53270SOL    HW161642   2.222   8.609   2.032
53270SOL    HW261643   2.218   8.642   2.179
53271SOL     OW61644   4.191  14.435   8.798
53271SOL    HW161645   4.135  14.435   8.721
53271SOL    HW261646   4.255  14.366   8.782
53272SOL     OW61647   6.471   9.374  13.432
53272SOL    HW161648   6.433   9.461  13.417
53272SOL    HW261649   6.434   9.346  13.515
53273SOL     OW61650  13.547  11.281  10.217
53273SOL    HW161651  13.629  11.305  10.173
53273SOL    HW261652  13.480  11.333  10.174
53274SOL     OW61653   4.632   2.372  11.464
53274SOL    HW161654   4.603   2.391  11.553
53274SOL    HW261655   4.574   2.302  11.435
53275SOL     OW61656   4.692   9.091   2.372
53275SOL    HW161657   4.726   9.137   2.449
53275SOL    HW261658   4.761   9.029   2.348
53276SOL     OW61659   4.403   0.234   8.705
53276SOL    HW161660   4.426   0.152   8.661
53276SOL    HW261661   4.404   0.300   8.636
53277SOL     OW61662   9.440   3.211  14.172
53277SOL    HW161663   9.422   3.288  14.119
53277SOL    HW261664   9.523   3.177  14.138
53278SOL     OW61665   5.007   1.530  14.533
53278SOL    HW161666   4.912   1.542  14.540
53278SOL    HW261667   5.029   1.557  14.444
53279SOL     OW61668  13.693  13.165   4.854
53279SOL    HW161669  13.606  13.149   4.890
53279SOL    HW261670  13.732  13.229   4.914
53280SOL     OW61671   9.090   5.960  12.371
53280SOL    HW161672   9.181   5.955  12.341
53280SOL    HW261673   9.075   5.877  12.415
53281SOL     OW61674   0.812   0.693   3.581
53281SOL    HW161675   0.721   0.724   3.577
53281SOL    HW261676   0.817   0.624   3.515
53282SOL     OW61677  12.026   5.664  13.397
53282SOL    HW161678  11.972   5.722  13.343
53282SOL    HW261679  12.071   5.607  13.335
53283SOL     OW61680   5.394  11.800   0.692
53283SOL    HW161681   5.417  11.808   0.599
53283SOL    HW261682   5.412  11.887   0.729
53284SOL     OW61683  10.921  11.885  13.335
53284SOL    HW161684  10.967  11.893  13.252
53284SOL    HW261685  10.853  11.953  13.332
53285SOL     OW61686   0.751   5.131  10.267
53285SOL    HW161687   0.694   5.080  10.209
53285SOL    HW261688   0.733   5.222  10.243
53286SOL     OW61689   5.260   8.974   9.644
53286SOL    HW161690   5.278   8.955   9.552
53286SOL    HW261691   5.248   8.887   9.684
53287SOL     OW61692   0.033   1.609  10.693
53287SOL    HW161693   0.113   1.569  10.661
53287SOL    HW261694   0.060   1.658  10.770
53288SOL     OW61695  10.619   9.360   3.077
53288SOL    HW161696  10.580   9.274   3.086
53288SOL    HW261697  10.625   9.373   2.982
53289SOL     OW61698   7.459   6.532   6.059
53289SOL    HW161699   7.383   6.581   6.030
53289SOL    HW261700   7.513   6.522   5.980
53290SOL     OW61701   1.907   3.761   1.331
53290SOL    HW161702   1.930   3.670   1.312
53290SOL    HW261703   1.977   3.812   1.291
53291SOL     OW61704  10.212   4.255   9.633
53291SOL    HW161705  10.238   4.175   9.679
53291SOL    HW261706  10.182   4.314   9.702
53292SOL     OW61707   7.636   4.679   7.652
53292SOL    HW161708   7.618   4.765   7.613
53292SOL    HW261709   7.728   4.662   7.630
53293SOL     OW61710   8.881   4.907   2.686
53293SOL    HW161711   8.807   4.925   2.627
53293SOL    HW261712   8.908   4.993   2.717
53294SOL     OW61713   9.585   9.109  10.497
53294SOL    HW161714   9.510   9.050  10.484
53294SOL    HW261715   9.645   9.086  10.426
53295SOL     OW61716   8.898  14.297   9.179
53295SOL    HW161717   8.945  14.352   9.117
53295SOL    HW261718   8.830  14.255   9.127
53296SOL     OW61719   1.135  12.676   5.141
53296SOL    HW161720   1.203  12.623   5.184
53296SOL    HW261721   1.074  12.698   5.212
53297SOL     OW61722   1.093   7.068   8.894
53297SOL    HW161723   1.006   7.036   8.869
53297SOL    HW261724   1.076   7.130   8.965
53298SOL     OW61725  10.570  11.226  10.564
53298SOL    HW161726  10.604  11.174  10.492
53298SOL    HW261727  10.536  11.306  10.523
53299SOL     OW61728   2.794  12.024  12.905
53299SOL    HW161729   2.835  12.089  12.848
53299SOL    HW261730   2.738  12.075  12.963
53300SOL     OW61731   1.434  13.715   6.173
53300SOL    HW161732   1.395  13.782   6.117
53300SOL    HW261733   1.359  13.669   6.211
53301SOL     OW61734   4.168  14.233  11.440
53301SOL    HW161735   4.240  14.278  11.395
53301SOL    HW261736   4.212  14.173  11.501
53302SOL     OW61737   7.803  10.017  12.647
53302SOL    HW161738   7.708  10.020  12.645
53302SOL    HW261739   7.825   9.927  12.622
53303SOL     OW61740   5.163   9.322   8.425
53303SOL    HW161741   5.070   9.332   8.441
53303SOL    HW261742   5.205   9.390   8.477
53304SOL     OW61743  13.024   1.218   6.996
53304SOL    HW161744  13.018   1.209   7.091
53304SOL    HW261745  13.118   1.220   6.977
53305SOL     OW61746   2.744  10.478   7.313
53305SOL    HW161747   2.818  10.462   7.372
53305SOL    HW261748   2.739  10.399   7.259
53306SOL     OW61749   3.838  11.120   6.554
53306SOL    HW161750   3.931  11.133   6.536
53306SOL    HW261751   3.833  11.118   6.649
53307SOL     OW61752   8.045   3.892   5.852
53307SOL    HW161753   8.076   3.937   5.930
53307SOL    HW261754   8.121   3.890   5.793
53308SOL     OW61755  11.638   7.433  10.373
53308SOL    HW161756  11.672   7.460  10.458
53308SOL    HW261757  11.649   7.510  10.317
53309SOL     OW61758   1.417  11.549  12.101
53309SOL    HW161759   1.377  11.634  12.084
53309SOL    HW261760   1.459  11.558  12.186
53310SOL     OW61761   9.829  11.578   2.144
53310SOL    HW161762   9.855  11.504   2.088
53310SOL    HW261763   9.885  11.650   2.114
53311SOL     OW61764  12.618   9.259  10.673
53311SOL    HW161765  12.611   9.181  10.619
53311SOL    HW261766  12.538   9.308  10.654
53312SOL     OW61767  13.503  10.890  11.909
53312SOL    HW161768  13.414  10.917  11.929
53312SOL    HW261769  13.512  10.905  11.814
53313SOL     OW61770   5.732   2.535   2.794
53313SOL    HW161771   5.651   2.520   2.844
53313SOL    HW261772   5.771   2.449   2.786
53314SOL     OW61773  13.758   2.912   4.762
53314SOL    HW161774  13.776   2.955   4.678
53314SOL    HW261775  13.828   2.943   4.819
53315SOL     OW61776  11.354   8.201   6.000
53315SOL    HW161777  11.298   8.267   5.958
53315SOL    HW261778  11.404   8.250   6.065
53316SOL     OW61779   6.421   7.914   9.287
53316SOL    HW161780   6.339   7.873   9.312
53316SOL    HW261781   6.396   7.980   9.222
53317SOL     OW61782   8.252   7.540   8.656
53317SOL    HW161783   8.167   7.517   8.695
53317SOL    HW261784   8.231   7.610   8.594
53318SOL     OW61785   5.638   3.874  14.508
53318SOL    HW161786   5.589   3.844  14.585
53318SOL    HW261787   5.649   3.968  14.523
53319SOL     OW61788   6.754   9.820   2.147
53319SOL    HW161789   6.815   9.842   2.219
53319SOL    HW261790   6.776   9.883   2.078
53320SOL     OW61791  14.605   5.180   0.836
53320SOL    HW161792  14.582   5.165   0.744
53320SOL    HW261793  14.547   5.122   0.885
53321SOL     OW61794   2.469   6.028   6.914
53321SOL    HW161795   2.486   6.117   6.883
53321SOL    HW261796   2.470   5.975   6.834
53322SOL     OW61797   6.893   5.859   6.275
53322SOL    HW161798   6.981   5.824   6.263
53322SOL    HW261799   6.897   5.911   6.355
53323SOL     OW61800  12.771  11.125  10.978
53323SOL    HW161801  12.767  11.198  11.039
53323SOL    HW261802  12.790  11.049  11.033
53324SOL     OW61803   1.448   2.008   4.056
53324SOL    HW161804   1.412   1.992   3.969
53324SOL    HW261805   1.373   1.997   4.115
53325SOL     OW61806  13.588   8.294  10.836
53325SOL    HW161807  13.604   8.326  10.925
53325SOL    HW261808  13.612   8.202  10.839
53326SOL     OW61809   1.064   9.348   8.993
53326SOL    HW161810   1.008   9.306   8.928
53326SOL    HW261811   1.140   9.379   8.943
53327SOL     OW61812  13.201   7.247   1.394
53327SOL    HW161813  13.133   7.281   1.452
53327SOL    HW261814  13.205   7.153   1.414
53328SOL     OW61815   0.044  14.867  11.918
53328SOL    HW161816  14.863   0.007  11.987
53328SOL    HW261817  14.875  14.872  11.837
53329SOL     OW61818   2.578   5.526  14.347
53329SOL    HW161819   2.626   5.457  14.302
53329SOL    HW261820   2.534   5.574  14.277
53330SOL     OW61821   2.712  10.566   8.488
53330SOL    HW161822   2.792  10.520   8.513
53330SOL    HW261823   2.732  10.604   8.402
53331SOL     OW61824   3.928  14.345  12.013
53331SOL    HW161825   3.987  14.318  12.084
53331SOL    HW261826   3.841  14.338  12.050
53332SOL     OW61827   0.686   6.297   4.267
53332SOL    HW161828   0.621   6.276   4.199
53332SOL    HW261829   0.745   6.359   4.224
53333SOL     OW61830   2.937   8.814   9.933
53333SOL    HW161831   2.946   8.757   9.857
53333SOL    HW261832   3.022   8.857   9.941
53334SOL     OW61833  14.333   8.723   8.926
53334SOL    HW161834  14.306   8.812   8.904
53334SOL    HW261835  14.253   8.671   8.920
53335SOL     OW61836   2.430  14.229   4.163
53335SOL    HW161837   2.457  14.310   4.207
53335SOL    HW261838   2.468  14.236   4.076
53336SOL     OW61839  13.041  13.468   8.663
53336SOL    HW161840  13.078  13.509   8.741
53336SOL    HW261841  13.005  13.542   8.612
53337SOL     OW61842  10.149   0.751  14.372
53337SOL    HW161843  10.191   0.788  14.295
53337SOL    HW261844  10.197   0.669  14.388
53338SOL     OW61845   9.791   3.138   7.463
53338SOL    HW161846   9.886   3.155   7.467
53338SOL    HW261847   9.768   3.156   7.372
53339SOL     OW61848   3.327   4.208   9.873
53339SOL    HW161849   3.422   4.214   9.875
53339SOL    HW261850   3.309   4.123   9.834
53340SOL     OW61851   4.239   5.906   3.280
53340SOL    HW161852   4.254   5.874   3.191
53340SOL    HW261853   4.300   5.979   3.291
53341SOL     OW61854  13.886   5.411  13.180
53341SOL    HW161855  13.976   5.438  13.197
53341SOL    HW261856  13.876   5.416  13.085
53342SOL     OW61857  10.666   6.612   6.538
53342SOL    HW161858  10.593   6.638   6.595
53342SOL    HW261859  10.657   6.667   6.460
53343SOL     OW61860   0.748   9.947   8.475
53343SOL    HW161861   0.809  10.018   8.492
53343SOL    HW261862   0.673   9.989   8.433
53344SOL     OW61863  10.504   6.480  11.511
53344SOL    HW161864  10.477   6.464  11.420
53344SOL    HW261865  10.438   6.437  11.564
53345SOL     OW61866  12.011   2.511   4.025
53345SOL    HW161867  12.023   2.453   3.949
53345SOL    HW261868  11.952   2.463   4.083
53346SOL     OW61869  12.174   8.119   5.999
53346SOL    HW161870  12.111   8.180   6.037
53346SOL    HW261871  12.260   8.158   6.018
53347SOL     OW61872   7.938   8.269   7.907
53347SOL    HW161873   7.974   8.198   7.854
53347SOL    HW261874   7.929   8.342   7.846
53348SOL     OW61875   1.648   9.137  13.226
53348SOL    HW161876   1.677   9.046  13.232
53348SOL    HW261877   1.679   9.177  13.307
53349SOL     OW61878   7.276  10.690   2.472
53349SOL    HW161879   7.313  10.644   2.396
53349SOL    HW261880   7.255  10.777   2.438
53350SOL     OW61881   7.492   4.627   8.651
53350SOL    HW161882   7.566   4.684   8.672
53350SOL    HW261883   7.487   4.628   8.556
53351SOL     OW61884  12.082   2.382  13.051
53351SOL    HW161885  12.082   2.286  13.060
53351SOL    HW261886  12.160   2.410  13.098
53352SOL     OW61887  10.525   0.243   9.359
53352SOL    HW161888  10.441   0.244   9.403
53352SOL    HW261889  10.507   0.208   9.272
53353SOL     OW61890  12.356   1.088   8.046
53353SOL    HW161891  12.388   1.178   8.048
53353SOL    HW261892  12.327   1.071   8.135
53354SOL     OW61893   9.782   1.405   8.230
53354SOL    HW161894   9.817   1.466   8.165
53354SOL    HW261895   9.814   1.319   8.203
53355SOL     OW61896  10.121   6.919   8.916
53355SOL    HW161897  10.099   6.943   9.006
53355SOL    HW261898  10.191   6.854   8.925
53356SOL     OW61899   2.486   2.296   0.498
53356SOL    HW161900   2.494   2.385   0.532
53356SOL    HW261901   2.457   2.307   0.408
53357SOL     OW61902   2.905   8.301   3.124
53357SOL    HW161903   2.895   8.381   3.072
53357SOL    HW261904   2.924   8.333   3.212
53358SOL     OW61905  14.307   8.171   2.955
53358SOL    HW161906  14.390   8.123   2.950
53358SOL    HW261907  14.330   8.254   2.999
53359SOL     OW61908  10.388   9.728   6.600
53359SOL    HW161909  10.427   9.646   6.630
53359SOL    HW261910  10.369   9.777   6.680
53360SOL     OW61911   0.600   5.671   2.883
53360SOL    HW161912   0.610   5.762   2.853
53360SOL    HW261913   0.630   5.618   2.809
53361SOL     OW61914   8.498  13.110   9.760
53361SOL    HW161915   8.583  13.070   9.741
53361SOL    HW261916   8.503  13.197   9.720
53362SOL     OW61917  10.428   7.098   2.092
53362SOL    HW161918  10.386   7.152   2.160
53362SOL    HW261919  10.517   7.133   2.085
53363SOL     OW61920   5.548  12.867  13.701
53363SOL    HW161921   5.632  12.891  13.663
53363SOL    HW261922   5.512  12.801  13.642
53364SOL     OW61923   1.979   7.238  13.213
53364SOL    HW161924   1.894   7.228  13.170
53364SOL    HW261925   1.997   7.332  13.208
53365SOL     OW61926   6.833  12.947   2.742
53365SOL    HW161927   6.805  13.031   2.706
53365SOL    HW261928   6.751  12.900   2.758
53366SOL     OW61929  10.027   3.244   5.800
53366SOL    HW161930   9.933   3.258   5.810
53366SOL    HW261931  10.037   3.214   5.710
53367SOL     OW61932   7.207   4.193   4.230
53367SOL    HW161933   7.232   4.253   4.300
53367SOL    HW261934   7.193   4.250   4.154
53368SOL     OW61935  12.758  12.415   1.006
53368SOL    HW161936  12.764  12.349   0.937
53368SOL    HW261937  12.842  12.461   1.002
53369SOL     OW61938  13.952   8.093   0.657
53369SOL    HW161939  13.889   8.042   0.708
53369SOL    HW261940  13.897   8.152   0.605
53370SOL     OW61941   8.392   1.133   9.979
53370SOL    HW161942   8.312   1.178   9.954
53370SOL    HW261943   8.395   1.056   9.922
53371SOL     OW61944   1.432  10.498  12.582
53371SOL    HW161945   1.487  10.572  12.607
53371SOL    HW261946   1.343  10.533  12.581
53372SOL     OW61947   5.491  10.634   2.314
53372SOL    HW161948   5.464  10.544   2.333
53372SOL    HW261949   5.570  10.647   2.366
53373SOL     OW61950  10.863  13.116  13.982
53373SOL    HW161951  10.872  13.028  14.019
53373SOL    HW261952  10.772  13.123  13.956
53374SOL     OW61953   6.969   2.566   3.741
53374SOL    HW161954   6.933   2.648   3.707
53374SOL    HW261955   7.012   2.526   3.665
53375SOL     OW61956   3.481   5.586  12.095
53375SOL    HW161957   3.500   5.593  12.001
53375SOL    HW261958   3.411   5.650  12.109
53376SOL     OW61959   2.503   5.849   9.642
53376SOL    HW161960   2.512   5.897   9.559
53376SOL    HW261961   2.477   5.915   9.705
53377SOL     OW61962   3.634   7.031   6.061
53377SOL    HW161963   3.693   7.094   6.102
53377SOL    HW261964   3.547   7.072   6.066
53378SOL     OW61965  11.295  11.445   9.985
53378SOL    HW161966  11.362  11.385   9.952
53378SOL    HW261967  11.226  11.443   9.918
53379SOL     OW61968   5.432   5.305   2.466
53379SOL    HW161969   5.431   5.236   2.400
53379SOL    HW261970   5.525   5.313   2.490
53380SOL     OW61971   6.713   4.450   6.762
53380SOL    HW161972   6.714   4.498   6.679
53380SOL    HW261973   6.620   4.447   6.787
53381SOL     OW61974  10.672   9.813  13.510
53381SOL    HW161975  10.759   9.820  13.550
53381SOL    HW261976  10.685   9.842  13.419
53382SOL     OW61977  12.011   1.060   6.926
53382SOL    HW161978  12.102   1.060   6.895
53382SOL    HW261979  11.960   1.083   6.848
53383SOL     OW61980   2.960   1.301  10.964
53383SOL    HW161981   2.896   1.231  10.972
53383SOL    HW261982   2.920   1.365  10.905
53384SOL     OW61983   5.007   2.946  12.207
53384SOL    HW161984   4.947   2.988  12.146
53384SOL    HW261985   4.995   2.852  12.193
53385SOL     OW61986   2.139   1.669  12.184
53385SOL    HW161987   2.057   1.697  12.225
53385SOL    HW261988   2.163   1.589  12.232
53386SOL     OW61989   7.129   8.935   4.944
53386SOL    HW161990   7.143   8.955   5.037
53386SOL    HW261991   7.217   8.920   4.909
53387SOL     OW61992   7.934   0.979   8.066
53387SOL    HW161993   7.853   1.009   8.108
53387SOL    HW261994   7.979   1.060   8.041
53388SOL     OW61995   3.605   7.128   1.600
53388SOL    HW161996   3.577   7.128   1.508
53388SOL    HW261997   3.605   7.220   1.625
53389SOL     OW61998  13.609   5.438   2.127
53389SOL    HW161999  13.555   5.404   2.056
53389SOL    HW262000  13.635   5.361   2.177
53390SOL     OW62001  10.233  11.500   9.898
53390SOL    HW162002  10.227  11.587   9.858
53390SOL    HW262003  10.309  11.505   9.956
53391SOL     OW62004  11.354   0.289  13.549
53391SOL    HW162005  11.406   0.356  13.592
53391SOL    HW262006  11.277   0.278  13.606
53392SOL     OW62007  14.688  11.146   1.110
53392SOL    HW162008  14.753  11.213   1.092
53392SOL    HW262009  14.624  11.154   1.039
53393SOL     OW62010   8.193  13.219  12.579
53393SOL    HW162011   8.159  13.268  12.504
53393SOL    HW262012   8.159  13.266  12.655
53394SOL     OW62013  10.677   1.153   3.579
53394SOL    HW162014  10.660   1.065   3.610
53394SOL    HW262015  10.754   1.145   3.523
53395SOL     OW62016  14.354  12.075  11.771
53395SOL    HW162017  14.374  11.982  11.780
53395SOL    HW262018  14.438  12.117  11.757
53396SOL     OW62019   0.904  12.856  13.301
53396SOL    HW162020   0.884  12.812  13.384
53396SOL    HW262021   0.972  12.801  13.261
53397SOL     OW62022  13.014   4.735   8.301
53397SOL    HW162023  13.076   4.806   8.284
53397SOL    HW262024  12.972   4.720   8.216
53398SOL     OW62025  10.970  12.542   8.192
53398SOL    HW162026  10.906  12.509   8.255
53398SOL    HW262027  10.960  12.485   8.116
53399SOL     OW62028   7.571  12.106   6.820
53399SOL    HW162029   7.503  12.117   6.886
53399SOL    HW262030   7.601  12.016   6.830
53400SOL     OW62031   2.872   3.573   6.682
53400SOL    HW162032   2.944   3.516   6.710
53400SOL    HW262033   2.838   3.610   6.764
53401SOL     OW62034   4.854  12.964   7.502
53401SOL    HW162035   4.855  13.051   7.541
53401SOL    HW262036   4.783  12.919   7.545
53402SOL     OW62037   1.563   6.463  14.852
53402SOL    HW162038   1.554   6.451   0.064
53402SOL    HW262039   1.530   6.381  14.814
53403SOL     OW62040   1.894   7.397   3.469
53403SOL    HW162041   1.952   7.408   3.544
53403SOL    HW262042   1.806   7.400   3.506
53404SOL     OW62043   6.465   8.852   7.417
53404SOL    HW162044   6.514   8.872   7.337
53404SOL    HW262045   6.483   8.759   7.433
53405SOL     OW62046  11.566  12.374   2.417
53405SOL    HW162047  11.605  12.306   2.363
53405SOL    HW262048  11.614  12.370   2.500
53406SOL     OW62049   6.779  12.541   1.292
53406SOL    HW162050   6.753  12.484   1.364
53406SOL    HW262051   6.831  12.610   1.334
53407SOL     OW62052   3.176   4.798  12.896
53407SOL    HW162053   3.216   4.720  12.858
53407SOL    HW262054   3.245   4.835  12.952
53408SOL     OW62055   8.292   0.495   9.346
53408SOL    HW162056   8.316   0.587   9.337
53408SOL    HW262057   8.309   0.475   9.438
53409SOL     OW62058   5.367  14.570   4.220
53409SOL    HW162059   5.388  14.521   4.300
53409SOL    HW262060   5.282  14.611   4.238
53410SOL     OW62061   4.262   0.402   5.038
53410SOL    HW162062   4.251   0.476   5.098
53410SOL    HW262063   4.262   0.443   4.951
53411SOL     OW62064   8.902   1.366   9.900
53411SOL    HW162065   8.984   1.352   9.946
53411SOL    HW262066   8.868   1.278   9.884
53412SOL     OW62067  12.951  13.104   3.449
53412SOL    HW162068  12.890  13.030   3.445
53412SOL    HW262069  13.038  13.064   3.448
53413SOL     OW62070  11.872   9.985  12.211
53413SOL    HW162071  11.852   9.911  12.154
53413SOL    HW262072  11.794   9.996  12.265
53414SOL     OW62073   9.747  12.907   6.383
53414SOL    HW162074   9.725  12.946   6.299
53414SOL    HW262075   9.742  12.813   6.369
53415SOL     OW62076   6.425   8.722   7.999
53415SOL    HW162077   6.455   8.785   8.064
53415SOL    HW262078   6.368   8.662   8.049
53416SOL     OW62079   0.372  12.527  13.913
53416SOL    HW162080   0.318  12.595  13.871
53416SOL    HW262081   0.447  12.518  13.855
53417SOL     OW62082   3.947   1.115  12.937
53417SOL    HW162083   3.888   1.150  13.004
53417SOL    HW262084   3.889   1.081  12.869
53418SOL     OW62085  13.513   9.095  13.886
53418SOL    HW162086  13.496   9.076  13.793
53418SOL    HW262087  13.581   9.163  13.885
53419SOL     OW62088   7.153   7.990   4.356
53419SOL    HW162089   7.137   8.063   4.417
53419SOL    HW262090   7.065   7.958   4.335
53420SOL     OW62091   7.812   9.035   2.985
53420SOL    HW162092   7.866   8.958   2.968
53420SOL    HW262093   7.817   9.086   2.904
53421SOL     OW62094   7.354  12.675  14.282
53421SOL    HW162095   7.426  12.650  14.340
53421SOL    HW262096   7.317  12.753  14.323
53422SOL     OW62097   3.148  12.810   1.714
53422SOL    HW162098   3.167  12.898   1.747
53422SOL    HW262099   3.234  12.771   1.699
53423SOL     OW62100   7.108  14.700   4.601
53423SOL    HW162101   7.178  14.695   4.665
53423SOL    HW262102   7.124  14.782   4.555
53424SOL     OW62103   5.539  11.087   4.706
53424SOL    HW162104   5.483  11.143   4.653
53424SOL    HW262105   5.489  11.070   4.786
53425SOL     OW62106   2.607  13.248  10.936
53425SOL    HW162107   2.571  13.324  10.983
53425SOL    HW262108   2.681  13.283  10.887
53426SOL     OW62109   7.797  13.710   9.141
53426SOL    HW162110   7.847  13.679   9.217
53426SOL    HW262111   7.733  13.771   9.177
53427SOL     OW62112  10.167   2.509   3.656
53427SOL    HW162113  10.120   2.568   3.715
53427SOL    HW262114  10.152   2.546   3.569
53428SOL     OW62115   9.252   0.133   7.627
53428SOL    HW162116   9.311   0.150   7.553
53428SOL    HW262117   9.184   0.076   7.591
53429SOL     OW62118  14.072   5.263  11.888
53429SOL    HW162119  14.010   5.194  11.866
53429SOL    HW262120  14.128   5.271  11.811
53430SOL     OW62121   0.599  11.128  13.445
53430SOL    HW162122   0.593  11.201  13.384
53430SOL    HW262123   0.525  11.141  13.505
53431SOL     OW62124   1.845  10.597   1.883
53431SOL    HW162125   1.884  10.674   1.926
53431SOL    HW262126   1.754  10.598   1.912
53432SOL     OW62127  14.454   9.677  12.227
53432SOL    HW162128  14.455   9.618  12.303
53432SOL    HW262129  14.371   9.723  12.233
53433SOL     OW62130   4.893  13.237  12.191
53433SOL    HW162131   4.936  13.304  12.137
53433SOL    HW262132   4.858  13.286  12.266
53434SOL     OW62133   4.898   0.646   4.591
53434SOL    HW162134   4.812   0.606   4.597
53434SOL    HW262135   4.958   0.582   4.630
53435SOL     OW62136  14.357  12.440   4.565
53435SOL    HW162137  14.411  12.366   4.593
53435SOL    HW262138  14.398  12.472   4.485
53436SOL     OW62139  11.113  11.641   9.571
53436SOL    HW162140  11.104  11.630   9.476
53436SOL    HW262141  11.198  11.683   9.582
53437SOL     OW62142   3.448   9.516  12.390
53437SOL    HW162143   3.453   9.607  12.360
53437SOL    HW262144   3.520   9.508  12.452
53438SOL     OW62145  11.253   2.989  12.873
53438SOL    HW162146  11.209   2.922  12.820
53438SOL    HW262147  11.346   2.966  12.869
53439SOL     OW62148   5.917   9.459   2.313
53439SOL    HW162149   5.991   9.504   2.353
53439SOL    HW262150   5.957   9.388   2.262
53440SOL     OW62151   4.728  12.672  11.191
53440SOL    HW162152   4.785  12.598  11.171
53440SOL    HW262153   4.708  12.711  11.106
53441SOL     OW62154   7.545   6.815   2.777
53441SOL    HW162155   7.575   6.891   2.728
53441SOL    HW262156   7.609   6.805   2.848
53442SOL     OW62157   7.105   2.872   9.132
53442SOL    HW162158   7.027   2.859   9.080
53442SOL    HW262159   7.174   2.893   9.069
53443SOL     OW62160  13.597   2.355   3.769
53443SOL    HW162161  13.528   2.411   3.805
53443SOL    HW262162  13.665   2.416   3.741
53444SOL     OW62163  13.142   1.635   7.368
53444SOL    HW162164  13.217   1.682   7.403
53444SOL    HW262165  13.070   1.657   7.426
53445SOL     OW62166   5.502   7.622   0.646
53445SOL    HW162167   5.524   7.564   0.719
53445SOL    HW262168   5.574   7.685   0.643
53446SOL     OW62169   8.022  11.004   8.096
53446SOL    HW162170   8.010  10.968   8.184
53446SOL    HW262171   8.117  11.016   8.088
53447SOL     OW62172   9.814  14.543  11.818
53447SOL    HW162173   9.755  14.477  11.855
53447SOL    HW262174   9.784  14.626  11.856
53448SOL     OW62175   2.269   2.225   2.823
53448SOL    HW162176   2.219   2.153   2.861
53448SOL    HW262177   2.207   2.297   2.817
53449SOL     OW62178   7.516   3.585  11.705
53449SOL    HW162179   7.527   3.654  11.638
53449SOL    HW262180   7.521   3.632  11.788
53450SOL     OW62181   8.950   2.382   6.012
53450SOL    HW162182   8.955   2.351   5.921
53450SOL    HW262183   8.952   2.477   6.005
53451SOL     OW62184   5.257  13.699   6.524
53451SOL    HW162185   5.168  13.678   6.552
53451SOL    HW262186   5.292  13.617   6.492
53452SOL     OW62187  11.541   0.408   9.438
53452SOL    HW162188  11.576   0.482   9.389
53452SOL    HW262189  11.455   0.437   9.469
53453SOL     OW62190   2.277   6.798  13.632
53453SOL    HW162191   2.295   6.752  13.714
53453SOL    HW262192   2.360   6.838  13.607
53454SOL     OW62193   3.585   9.455  14.178
53454SOL    HW162194   3.677   9.430  14.186
53454SOL    HW262195   3.547   9.388  14.121
53455SOL     OW62196  12.806  12.823  12.449
53455SOL    HW162197  12.803  12.747  12.506
53455SOL    HW262198  12.714  12.836  12.422
53456SOL     OW62199   6.691  13.140  10.562
53456SOL    HW162200   6.608  13.148  10.608
53456SOL    HW262201   6.750  13.202  10.605
53457SOL     OW62202   6.872   9.145  11.884
53457SOL    HW162203   6.881   9.051  11.873
53457SOL    HW262204   6.958   9.181  11.865
53458SOL     OW62205   0.656  11.518   6.896
53458SOL    HW162206   0.660  11.512   6.801
53458SOL    HW262207   0.657  11.427   6.926
53459SOL     OW62208   7.466   0.753   5.839
53459SOL    HW162209   7.397   0.688   5.856
53459SOL    HW262210   7.546   0.702   5.831
53460SOL     OW62211   6.970   9.299   1.155
53460SOL    HW162212   6.895   9.344   1.116
53460SOL    HW262213   7.046   9.343   1.119
53461SOL     OW62214   4.184   7.469  12.645
53461SOL    HW162215   4.225   7.544  12.602
53461SOL    HW262216   4.150   7.504  12.727
53462SOL     OW62217   9.289   5.361   6.225
53462SOL    HW162218   9.267   5.423   6.155
53462SOL    HW262219   9.257   5.403   6.305
53463SOL     OW62220   0.492   5.319   2.075
53463SOL    HW162221   0.479   5.312   1.980
53463SOL    HW262222   0.587   5.321   2.087
53464SOL     OW62223  12.369   8.629  14.722
53464SOL    HW162224  12.448   8.681  14.714
53464SOL    HW262225  12.351   8.627  14.816
53465SOL     OW62226  12.046   9.635   1.874
53465SOL    HW162227  12.123   9.586   1.901
53465SOL    HW262228  12.056   9.645   1.779
53466SOL     OW62229  11.537   1.224  13.277
53466SOL    HW162230  11.531   1.128  13.276
53466SOL    HW262231  11.489   1.252  13.200
53467SOL     OW62232   3.701   7.541   2.492
53467SOL    HW162233   3.690   7.456   2.534
53467SOL    HW262234   3.713   7.602   2.564
53468SOL     OW62235   3.093   4.015  11.944
53468SOL    HW162236   3.173   4.042  11.899
53468SOL    HW262237   3.032   4.088  11.930
53469SOL     OW62238   0.649  11.655   3.424
53469SOL    HW162239   0.668  11.712   3.350
53469SOL    HW262240   0.632  11.715   3.497
53470SOL     OW62241  14.605  11.118  10.345
53470SOL    HW162242  14.696  11.114  10.317
53470SOL    HW262243  14.565  11.038  10.310
53471SOL     OW62244  12.017   5.955  10.141
53471SOL    HW162245  12.042   5.878  10.192
53471SOL    HW262246  12.083   5.961  10.072
53472SOL     OW62247   1.000   0.061   5.432
53472SOL    HW162248   0.960   0.035   5.349
53472SOL    HW262249   1.012  14.860   5.479
53473SOL     OW62250   3.302   9.644   9.144
53473SOL    HW162251   3.281   9.654   9.237
53473SOL    HW262252   3.355   9.722   9.123
53474SOL     OW62253   0.576   8.084   7.469
53474SOL    HW162254   0.559   8.051   7.381
53474SOL    HW262255   0.522   8.163   7.476
53475SOL     OW62256  10.340   0.919  10.458
53475SOL    HW162257  10.252   0.938  10.491
53475SOL    HW262258  10.398   0.972  10.512
53476SOL     OW62259  14.139  13.587   6.452
53476SOL    HW162260  14.175  13.626   6.531
53476SOL    HW262261  14.158  13.651   6.383
53477SOL     OW62262   5.121  13.183  10.194
53477SOL    HW162263   5.073  13.265  10.193
53477SOL    HW262264   5.207  13.207  10.229
53478SOL     OW62265   1.842  12.907  10.865
53478SOL    HW162266   1.937  12.895  10.860
53478SOL    HW262267   1.809  12.864  10.786
53479SOL     OW62268   6.173   4.527   0.164
53479SOL    HW162269   6.156   4.433   0.159
53479SOL    HW262270   6.192   4.553   0.074
53480SOL     OW62271  13.576  12.400   2.603
53480SOL    HW162272  13.567  12.361   2.516
53480SOL    HW262273  13.497  12.375   2.649
53481SOL     OW62274   0.828  13.066   3.609
53481SOL    HW162275   0.848  13.009   3.684
53481SOL    HW262276   0.855  13.014   3.533
53482SOL     OW62277   9.090   2.580   2.295
53482SOL    HW162278   9.019   2.521   2.321
53482SOL    HW262279   9.168   2.544   2.336
53483SOL     OW62280  14.090   3.719   7.935
53483SOL    HW162281  14.090   3.647   7.998
53483SOL    HW262282  14.007   3.765   7.950
53484SOL     OW62283  10.213  12.083  10.086
53484SOL    HW162284  10.130  12.036  10.086
53484SOL    HW262285  10.189  12.175  10.089
53485SOL     OW62286   8.317   7.928   7.796
53485SOL    HW162287   8.359   7.842   7.796
53485SOL    HW262288   8.386   7.987   7.765
53486SOL     OW62289  12.132   9.738   9.465
53486SOL    HW162290  12.193   9.798   9.508
53486SOL    HW262291  12.080   9.703   9.537
53487SOL     OW62292   9.167   9.171   2.052
53487SOL    HW162293   9.255   9.134   2.046
53487SOL    HW262294   9.127   9.124   2.125
53488SOL     OW62295   3.145  13.035  10.924
53488SOL    HW162296   3.079  12.971  10.951
53488SOL    HW262297   3.212  13.030  10.993
53489SOL     OW62298   7.377   2.650   9.339
53489SOL    HW162299   7.422   2.725   9.375
53489SOL    HW262300   7.420   2.633   9.255
53490SOL     OW62301   2.125  10.348  13.209
53490SOL    HW162302   2.138  10.417  13.145
53490SOL    HW262303   2.089  10.275  13.158
53491SOL     OW62304  10.463   7.392   8.591
53491SOL    HW162305  10.394   7.345   8.638
53491SOL    HW262306  10.477   7.472   8.641
53492SOL     OW62307   4.698   2.036  12.759
53492SOL    HW162308   4.629   2.073  12.814
53492SOL    HW262309   4.780   2.060  12.802
53493SOL     OW62310  13.452   7.902   7.993
53493SOL    HW162311  13.428   7.926   8.083
53493SOL    HW262312  13.539   7.940   7.980
53494SOL     OW62313   8.123  14.286   5.860
53494SOL    HW162314   8.193  14.247   5.806
53494SOL    HW262315   8.165  14.361   5.902
53495SOL     OW62316  14.148   4.559   1.639
53495SOL    HW162317  14.234   4.553   1.596
53495SOL    HW262318  14.165   4.611   1.718
53496SOL     OW62319  11.463   3.624   3.808
53496SOL    HW162320  11.478   3.718   3.802
53496SOL    HW262321  11.410   3.603   3.731
53497SOL     OW62322  14.640   8.736   8.459
53497SOL    HW162323  14.711   8.785   8.417
53497SOL    HW262324  14.684   8.681   8.524
53498SOL     OW62325   8.329  10.458   2.103
53498SOL    HW162326   8.393  10.525   2.126
53498SOL    HW262327   8.356  10.427   2.016
53499SOL     OW62328   2.989  13.613   3.715
53499SOL    HW162329   3.004  13.519   3.703
53499SOL    HW262330   3.062  13.655   3.669
53500SOL     OW62331   7.056   8.023   2.026
53500SOL    HW162332   7.001   7.978   2.090
53500SOL    HW262333   6.995   8.045   1.955
53501SOL     OW62334   9.191   4.923  14.059
53501SOL    HW162335   9.204   4.844  14.006
53501SOL    HW262336   9.239   4.992  14.012
53502SOL     OW62337  14.507   2.062   8.446
53502SOL    HW162338  14.602   2.053   8.451
53502SOL    HW262339  14.482   2.092   8.534
53503SOL     OW62340   0.715  11.159  13.780
53503SOL    HW162341   0.742  11.168  13.872
53503SOL    HW262342   0.760  11.081  13.749
53504SOL     OW62343   9.771   8.919   1.305
53504SOL    HW162344   9.758   9.013   1.291
53504SOL    HW262345   9.844   8.896   1.248
53505SOL     OW62346   9.796   2.326   7.159
53505SOL    HW162347   9.812   2.236   7.130
53505SOL    HW262348   9.703   2.328   7.180
53506SOL     OW62349   9.648   1.596  11.714
53506SOL    HW162350   9.595   1.516  11.714
53506SOL    HW262351   9.592   1.661  11.758
53507SOL     OW62352   2.841   2.025   8.035
53507SOL    HW162353   2.785   2.051   7.961
53507SOL    HW262354   2.780   1.994   8.102
53508SOL     OW62355   5.237   7.946  10.046
53508SOL    HW162356   5.145   7.971  10.054
53508SOL    HW262357   5.284   8.011  10.097
53509SOL     OW62358   4.592   5.013   2.691
53509SOL    HW162359   4.672   4.963   2.706
53509SOL    HW262360   4.579   5.062   2.772
53510SOL     OW62361  13.665   4.030  10.869
53510SOL    HW162362  13.625   3.945  10.850
53510SOL    HW262363  13.602   4.094  10.836
53511SOL     OW62364  10.547   4.854   3.568
53511SOL    HW162365  10.557   4.871   3.661
53511SOL    HW262366  10.626   4.807   3.543
53512SOL     OW62367   7.832   2.479   1.200
53512SOL    HW162368   7.882   2.425   1.139
53512SOL    HW262369   7.899   2.534   1.242
53513SOL     OW62370  10.807   1.362   4.403
53513SOL    HW162371  10.858   1.317   4.470
53513SOL    HW262372  10.724   1.384   4.447
53514SOL     OW62373   9.366   8.111  13.797
53514SOL    HW162374   9.310   8.184  13.773
53514SOL    HW262375   9.331   8.080  13.881
53515SOL     OW62376   1.566  13.634   4.349
53515SOL    HW162377   1.647  13.642   4.400
53515SOL    HW262378   1.502  13.687   4.396
53516SOL     OW62379   6.120   7.388  13.743
53516SOL    HW162380   6.206   7.349  13.763
53516SOL    HW262381   6.063   7.355  13.812
53517SOL     OW62382  14.609  13.871   9.504
53517SOL    HW162383  14.688  13.918   9.477
53517SOL    HW262384  14.572  13.925   9.574
53518SOL     OW62385   7.835   6.658  13.499
53518SOL    HW162386   7.864   6.604  13.426
53518SOL    HW262387   7.866   6.612  13.577
53519SOL     OW62388  14.861  12.757   7.995
53519SOL    HW162389   0.028  12.688   7.950
53519SOL    HW262390  14.777  12.716   8.016
53520SOL     OW62391  10.326  12.953   6.592
53520SOL    HW162392  10.335  12.915   6.679
53520SOL    HW262393  10.286  12.884   6.540
53521SOL     OW62394   5.048   1.987   4.597
53521SOL    HW162395   5.141   1.969   4.605
53521SOL    HW262396   5.042   2.059   4.534
53522SOL     OW62397   6.819   2.321   1.881
53522SOL    HW162398   6.814   2.289   1.971
53522SOL    HW262399   6.881   2.263   1.838
53523SOL     OW62400   2.721   0.012  10.716
53523SOL    HW162401   2.682   0.096  10.741
53523SOL    HW262402   2.812   0.033  10.696
53524SOL     OW62403   9.318   1.200   8.068
53524SOL    HW162404   9.362   1.261   8.127
53524SOL    HW262405   9.303   1.251   7.988
53525SOL     OW62406   4.141   0.537   1.399
53525SOL    HW162407   4.174   0.592   1.470
53525SOL    HW262408   4.124   0.453   1.440
53526SOL     OW62409   4.199   5.870   9.560
53526SOL    HW162410   4.167   5.909   9.479
53526SOL    HW262411   4.231   5.944   9.612
53527SOL     OW62412  11.390  12.705   2.192
53527SOL    HW162413  11.417  12.797   2.183
53527SOL    HW262414  11.309  12.700   2.142
53528SOL     OW62415   3.544   5.321   9.513
53528SOL    HW162416   3.522   5.286   9.599
53528SOL    HW262417   3.583   5.406   9.531
53529SOL     OW62418   3.496   8.746  10.168
53529SOL    HW162419   3.475   8.658  10.199
53529SOL    HW262420   3.515   8.796  10.247
53530SOL     OW62421   1.243  10.418   6.376
53530SOL    HW162422   1.200  10.333   6.384
53530SOL    HW262423   1.234  10.457   6.463
53531SOL     OW62424   3.367  13.383  14.720
53531SOL    HW162425   3.360  13.452  14.786
53531SOL    HW262426   3.371  13.302  14.771
53532SOL     OW62427   8.143  10.859   8.737
53532SOL    HW162428   8.071  10.907   8.778
53532SOL    HW262429   8.101  10.783   8.697
53533SOL     OW62430   0.972   6.285  11.327
53533SOL    HW162431   1.056   6.249  11.355
53533SOL    HW262432   0.936   6.325  11.406
53534SOL     OW62433   5.892   8.862   9.321
53534SOL    HW162434   5.915   8.952   9.300
53534SOL    HW262435   5.895   8.817   9.236
53535SOL     OW62436  14.072  12.201   6.212
53535SOL    HW162437  14.108  12.136   6.272
53535SOL    HW262438  13.983  12.216   6.243
53536SOL     OW62439   6.147  14.089   2.583
53536SOL    HW162440   6.171  14.060   2.671
53536SOL    HW262441   6.194  14.172   2.571
53537SOL     OW62442  10.892   3.084   0.758
53537SOL    HW162443  10.897   3.056   0.850
53537SOL    HW262444  10.938   3.015   0.710
53538SOL     OW62445   6.912   2.122  10.121
53538SOL    HW162446   6.951   2.085  10.200
53538SOL    HW262447   6.879   2.208  10.148
53539SOL     OW62448   5.698   2.128  10.560
53539SOL    HW162449   5.743   2.044  10.567
53539SOL    HW262450   5.635   2.115  10.488
53540SOL     OW62451   6.077   4.812   7.048
53540SOL    HW162452   6.004   4.820   6.987
53540SOL    HW262453   6.151   4.786   6.993
53541SOL     OW62454  10.580   2.854   1.775
53541SOL    HW162455  10.552   2.900   1.854
53541SOL    HW262456  10.675   2.865   1.774
53542SOL     OW62457  13.596   3.817  10.460
53542SOL    HW162458  13.690   3.811  10.477
53542SOL    HW262459  13.556   3.811  10.547
53543SOL     OW62460  13.721   6.882   6.287
53543SOL    HW162461  13.676   6.799   6.298
53543SOL    HW262462  13.653   6.948   6.298
53544SOL     OW62463   4.822   5.484  14.576
53544SOL    HW162464   4.890   5.447  14.520
53544SOL    HW262465   4.857   5.479  14.664
53545SOL     OW62466   2.521   5.027  13.524
53545SOL    HW162467   2.439   4.981  13.504
53545SOL    HW262468   2.569   4.966  13.580
53546SOL     OW62469   8.481  12.565   1.779
53546SOL    HW162470   8.440  12.556   1.865
53546SOL    HW262471   8.433  12.503   1.724
53547SOL     OW62472  12.845   0.846   7.733
53547SOL    HW162473  12.833   0.866   7.825
53547SOL    HW262474  12.776   0.782   7.712
53548SOL     OW62475   0.602   9.598  12.158
53548SOL    HW162476   0.676   9.619  12.215
53548SOL    HW262477   0.568   9.683  12.131
53549SOL     OW62478   8.256  13.297   6.805
53549SOL    HW162479   8.319  13.285   6.734
53549SOL    HW262480   8.301  13.266   6.884
53550SOL     OW62481  11.398   7.035  11.416
53550SOL    HW162482  11.335   6.971  11.450
53550SOL    HW262483  11.482   6.989  11.418
53551SOL     OW62484   8.457  10.028   6.428
53551SOL    HW162485   8.549  10.004   6.436
53551SOL    HW262486   8.422  10.020   6.516
53552SOL     OW62487   6.549   0.785   9.849
53552SOL    HW162488   6.523   0.694   9.864
53552SOL    HW262489   6.557   0.793   9.754
53553SOL     OW62490  14.440   0.374  14.406
53553SOL    HW162491  14.465   0.291  14.367
53553SOL    HW262492  14.459   0.364  14.499
53554SOL     OW62493   6.371  12.868   1.905
53554SOL    HW162494   6.292  12.874   1.852
53554SOL    HW262495   6.392  12.958   1.927
53555SOL     OW62496   5.546  13.617  14.020
53555SOL    HW162497   5.485  13.655  14.083
53555SOL    HW262498   5.597  13.554  14.071
53556SOL     OW62499  14.189   3.752  12.131
53556SOL    HW162500  14.149   3.822  12.182
53556SOL    HW262501  14.118   3.691  12.113
53557SOL     OW62502   8.170   7.431   8.225
53557SOL    HW162503   8.159   7.503   8.164
53557SOL    HW262504   8.133   7.463   8.308
53558SOL     OW62505   0.111   2.464   6.788
53558SOL    HW162506   0.100   2.438   6.697
53558SOL    HW262507   0.155   2.549   6.784
53559SOL     OW62508   9.865   9.230   4.936
53559SOL    HW162509   9.806   9.158   4.956
53559SOL    HW262510   9.815   9.288   4.878
53560SOL     OW62511   7.639  12.347   2.652
53560SOL    HW162512   7.566  12.334   2.591
53560SOL    HW262513   7.674  12.433   2.629
53561SOL     OW62514   3.462  13.713  12.809
53561SOL    HW162515   3.555  13.708  12.832
53561SOL    HW262516   3.426  13.628  12.835
53562SOL     OW62517  11.845   8.716   8.182
53562SOL    HW162518  11.800   8.800   8.168
53562SOL    HW262519  11.783   8.664   8.232
53563SOL     OW62520   2.519   7.734   0.168
53563SOL    HW162521   2.502   7.802   0.102
53563SOL    HW262522   2.590   7.682   0.131
53564SOL     OW62523  10.036   4.180   6.318
53564SOL    HW162524  10.019   4.264   6.274
53564SOL    HW262525  10.131   4.169   6.312
53565SOL     OW62526   2.842   7.877   0.551
53565SOL    HW162527   2.933   7.858   0.529
53565SOL    HW262528   2.848   7.930   0.631
53566SOL     OW62529   0.047  13.386   9.830
53566SOL    HW162530  14.866  13.361   9.763
53566SOL    HW262531   0.112  13.315   9.830
53567SOL     OW62532  14.304   5.200   2.531
53567SOL    HW162533  14.351   5.281   2.552
53567SOL    HW262534  14.226   5.203   2.587
53568SOL     OW62535   9.875   2.422   0.780
53568SOL    HW162536   9.849   2.355   0.843
53568SOL    HW262537   9.834   2.502   0.812
53569SOL     OW62538   7.536  13.186   5.749
53569SOL    HW162539   7.629  13.199   5.728
53569SOL    HW262540   7.505  13.126   5.682
53570SOL     OW62541  14.389   4.550  14.388
53570SOL    HW162542  14.414   4.600  14.310
53570SOL    HW262543  14.453   4.575  14.454
53571SOL     OW62544   3.670  11.569   0.053
53571SOL    HW162545   3.731  11.513   0.100
53571SOL    HW262546   3.625  11.510  14.874
53572SOL     OW62547   2.261  10.255  12.448
53572SOL    HW162548   2.239  10.175  12.497
53572SOL    HW262549   2.176  10.288  12.418
53573SOL     OW62550   8.981   9.653  10.922
53573SOL    HW162551   9.001   9.645  10.829
53573SOL    HW262552   9.013   9.572  10.960
53574SOL     OW62553   2.399   8.304  11.652
53574SOL    HW162554   2.418   8.397  11.647
53574SOL    HW262555   2.470   8.261  11.604
53575SOL     OW62556   1.306   7.790   6.067
53575SOL    HW162557   1.266   7.871   6.035
53575SOL    HW262558   1.281   7.725   6.002
53576SOL     OW62559   3.658  12.486   8.456
53576SOL    HW162560   3.718  12.560   8.458
53576SOL    HW262561   3.642  12.464   8.548
53577SOL     OW62562  13.098  12.325   7.999
53577SOL    HW162563  13.065  12.384   8.067
53577SOL    HW262564  13.123  12.245   8.045
53578SOL     OW62565  14.514  11.751   6.382
53578SOL    HW162566  14.525  11.658   6.361
53578SOL    HW262567  14.491  11.753   6.475
53579SOL     OW62568   6.083   0.125   7.278
53579SOL    HW162569   6.107   0.080   7.359
53579SOL    HW262570   6.019   0.191   7.305
53580SOL     OW62571  11.222  12.150   5.524
53580SOL    HW162572  11.261  12.093   5.590
53580SOL    HW262573  11.169  12.212   5.574
53581SOL     OW62574   3.520   1.851   1.957
53581SOL    HW162575   3.515   1.888   2.045
53581SOL    HW262576   3.431   1.821   1.938
53582SOL     OW62577   1.980   7.523  13.274
53582SOL    HW162578   2.069   7.551  13.295
53582SOL    HW262579   1.925   7.597  13.299
53583SOL     OW62580  11.101   9.004   3.120
53583SOL    HW162581  11.072   8.960   3.200
53583SOL    HW262582  11.100   8.936   3.053
53584SOL     OW62583   0.476   1.351   5.821
53584SOL    HW162584   0.485   1.445   5.840
53584SOL    HW262585   0.542   1.334   5.753
53585SOL     OW62586   1.532   1.083  12.277
53585SOL    HW162587   1.567   1.011  12.225
53585SOL    HW262588   1.531   1.050  12.367
53586SOL     OW62589   2.511   1.384  14.414
53586SOL    HW162590   2.588   1.435  14.438
53586SOL    HW262591   2.451   1.393  14.488
53587SOL     OW62592   5.341   5.725  11.276
53587SOL    HW162593   5.285   5.705  11.351
53587SOL    HW262594   5.425   5.684  11.298
53588SOL     OW62595  14.544   7.663   3.530
53588SOL    HW162596  14.487   7.706   3.466
53588SOL    HW262597  14.607   7.731   3.555
53589SOL     OW62598   8.238  14.568  11.551
53589SOL    HW162599   8.155  14.582  11.596
53589SOL    HW262600   8.224  14.491  11.496
53590SOL     OW62601  11.582  12.105   5.935
53590SOL    HW162602  11.504  12.052   5.953
53590SOL    HW262603  11.550  12.195   5.936
53591SOL     OW62604   1.683   2.302  14.577
53591SOL    HW162605   1.749   2.244  14.615
53591SOL    HW262606   1.686   2.381  14.631
53592SOL     OW62607  10.784   4.331  14.148
53592SOL    HW162608  10.791   4.265  14.080
53592SOL    HW262609  10.833   4.406  14.114
53593SOL     OW62610   2.523   3.261   3.776
53593SOL    HW162611   2.492   3.305   3.856
53593SOL    HW262612   2.531   3.331   3.712
53594SOL     OW62613   6.383   0.771   0.626
53594SOL    HW162614   6.458   0.816   0.586
53594SOL    HW262615   6.329   0.744   0.552
53595SOL     OW62616  12.499   3.051   5.451
53595SOL    HW162617  12.571   3.114   5.446
53595SOL    HW262618  12.537   2.968   5.422
53596SOL     OW62619  14.707   4.003   6.871
53596SOL    HW162620  14.707   4.011   6.967
53596SOL    HW262621  14.614   4.009   6.847
53597SOL     OW62622  10.094   0.077   7.308
53597SOL    HW162623  10.068   0.139   7.239
53597SOL    HW262624  10.165   0.027   7.269
53598SOL     OW62625   6.990  14.060  13.333
53598SOL    HW162626   7.086  14.066  13.336
53598SOL    HW262627   6.963  14.060  13.424
53599SOL     OW62628   4.215   9.328   6.130
53599SOL    HW162629   4.203   9.302   6.221
53599SOL    HW262630   4.129   9.360   6.102
53600SOL     OW62631   9.810   7.505   8.695
53600SOL    HW162632   9.770   7.588   8.721
53600SOL    HW262633   9.845   7.469   8.777
53601SOL     OW62634  11.269   3.227  12.144
53601SOL    HW162635  11.228   3.272  12.070
53601SOL    HW262636  11.203   3.164  12.172
53602SOL     OW62637   5.480   5.143   4.114
53602SOL    HW162638   5.463   5.141   4.209
53602SOL    HW262639   5.460   5.233   4.088
53603SOL     OW62640   6.021   0.694   1.903
53603SOL    HW162641   5.954   0.763   1.908
53603SOL    HW262642   6.089   0.732   1.849
53604SOL     OW62643  12.279  14.866   1.685
53604SOL    HW162644  12.203   0.026   1.724
53604SOL    HW262645  12.269  14.773   1.707
53605SOL     OW62646   3.270  14.495  11.244
53605SOL    HW162647   3.182  14.501  11.283
53605SOL    HW262648   3.325  14.462  11.315
53606SOL     OW62649   7.129   8.031   7.072
53606SOL    HW162650   7.080   8.019   6.990
53606SOL    HW262651   7.070   7.998   7.139
53607SOL     OW62652  13.755   5.390  11.945
53607SOL    HW162653  13.710   5.446  11.882
53607SOL    HW262654  13.842   5.376  11.908
53608SOL     OW62655   7.018   0.328  11.318
53608SOL    HW162656   7.003   0.257  11.256
53608SOL    HW262657   6.932   0.342  11.359
53609SOL     OW62658   0.434   0.292   9.600
53609SOL    HW162659   0.368   0.225   9.617
53609SOL    HW262660   0.487   0.256   9.529
53610SOL     OW62661  14.645   5.101   6.610
53610SOL    HW162662  14.718   5.050   6.644
53610SOL    HW262663  14.585   5.110   6.684
53611SOL     OW62664  12.817   7.273   5.557
53611SOL    HW162665  12.886   7.229   5.607
53611SOL    HW262666  12.861   7.350   5.520
53612SOL     OW62667   3.983   2.723  14.032
53612SOL    HW162668   3.967   2.636  13.998
53612SOL    HW262669   4.064   2.715  14.084
53613SOL     OW62670   8.867   8.923   8.732
53613SOL    HW162671   8.791   8.866   8.743
53613SOL    HW262672   8.830   9.009   8.711
53614SOL     OW62673   7.623   4.427   6.133
53614SOL    HW162674   7.550   4.484   6.108
53614SOL    HW262675   7.672   4.478   6.198
53615SOL     OW62676  13.466   9.768   1.060
53615SOL    HW162677  13.467   9.860   1.084
53615SOL    HW262678  13.493   9.722   1.140
53616SOL     OW62679   2.902   1.579  14.701
53616SOL    HW162680   2.975   1.551  14.646
53616SOL    HW262681   2.911   1.674  14.707
53617SOL     OW62682   2.822  14.629   6.232
53617SOL    HW162683   2.883  14.703   6.238
53617SOL    HW262684   2.817  14.595   6.321
53618SOL     OW62685   6.190   9.211   9.089
53618SOL    HW162686   6.249   9.269   9.042
53618SOL    HW262687   6.123   9.187   9.024
53619SOL     OW62688  12.507   9.720   0.051
53619SOL    HW162689  12.534   9.811   0.042
53619SOL    HW262690  12.546   9.676  14.857
53620SOL     OW62691   1.685   8.090  12.717
53620SOL    HW162692   1.631   8.024  12.674
53620SOL    HW262693   1.773   8.052  12.717
53621SOL     OW62694   8.662   9.410   8.368
53621SOL    HW162695   8.581   9.402   8.318
53621SOL    HW262696   8.706   9.326   8.357
53622SOL     OW62697   3.674   9.118   2.681
53622SOL    HW162698   3.599   9.087   2.732
53622SOL    HW262699   3.705   9.039   2.636
53623SOL     OW62700   1.848   9.906   8.283
53623SOL    HW162701   1.863   9.977   8.345
53623SOL    HW262702   1.754   9.909   8.265
53624SOL     OW62703  11.151   3.958   8.075
53624SOL    HW162704  11.152   3.874   8.120
53624SOL    HW262705  11.229   3.957   8.019
53625SOL     OW62706   8.747  14.114   6.838
53625SOL    HW162707   8.800  14.193   6.828
53625SOL    HW262708   8.687  14.115   6.764
53626SOL     OW62709   8.804  13.588   8.857
53626SOL    HW162710   8.847  13.520   8.806
53626SOL    HW262711   8.711  13.564   8.856
53627SOL     OW62712  14.852   8.589   2.511
53627SOL    HW162713  14.865   8.517   2.450
53627SOL    HW262714  14.758   8.592   2.525
53628SOL     OW62715   2.546   8.013  12.089
53628SOL    HW162716   2.612   7.955  12.050
53628SOL    HW262717   2.485   8.030  12.017
53629SOL     OW62718   7.298   4.679  11.277
53629SOL    HW162719   7.386   4.643  11.264
53629SOL    HW262720   7.308   4.744  11.347
53630SOL     OW62721  10.557   1.962   1.243
53630SOL    HW162722  10.491   2.001   1.300
53630SOL    HW262723  10.580   2.031   1.181
53631SOL     OW62724  12.004  13.275  10.590
53631SOL    HW162725  11.974  13.279  10.499
53631SOL    HW262726  12.058  13.353  10.601
53632SOL     OW62727   0.490  13.013   4.320
53632SOL    HW162728   0.566  13.042   4.370
53632SOL    HW262729   0.415  13.042   4.371
53633SOL     OW62730   9.503   7.230   0.557
53633SOL    HW162731   9.560   7.294   0.599
53633SOL    HW262732   9.419   7.240   0.601
53634SOL     OW62733   7.142   2.322   0.606
53634SOL    HW162734   7.163   2.275   0.526
53634SOL    HW262735   7.226   2.357   0.637
53635SOL     OW62736   4.328   3.370  10.865
53635SOL    HW162737   4.387   3.335  10.931
53635SOL    HW262738   4.246   3.386  10.912
53636SOL     OW62739  12.220   7.273   5.040
53636SOL    HW162740  12.240   7.253   4.949
53636SOL    HW262741  12.264   7.356   5.057
53637SOL     OW62742   6.921   5.361   0.880
53637SOL    HW162743   6.828   5.351   0.901
53637SOL    HW262744   6.922   5.394   0.791
53638SOL     OW62745   2.238  11.801   4.998
53638SOL    HW162746   2.244  11.896   4.988
53638SOL    HW262747   2.169  11.788   5.064
53639SOL     OW62748   7.842  10.249   0.212
53639SOL    HW162749   7.916  10.196   0.241
53639SOL    HW262750   7.771  10.226   0.272
53640SOL     OW62751  11.986   0.345   6.932
53640SOL    HW162752  11.904   0.333   6.979
53640SOL    HW262753  12.048   0.375   6.999
53641SOL     OW62754   3.408  14.676   3.356
53641SOL    HW162755   3.482  14.708   3.304
53641SOL    HW262756   3.340  14.658   3.292
53642SOL     OW62757   5.647   2.792  10.393
53642SOL    HW162758   5.657   2.700  10.370
53642SOL    HW262759   5.573   2.793  10.454
53643SOL     OW62760   6.606  12.838   9.060
53643SOL    HW162761   6.652  12.824   8.977
53643SOL    HW262762   6.514  12.840   9.036
53644SOL     OW62763  13.687   8.901  13.964
53644SOL    HW162764  13.745   8.909  13.888
53644SOL    HW262765  13.610   8.953  13.941
53645SOL     OW62766   6.552   0.510   4.302
53645SOL    HW162767   6.622   0.444   4.309
53645SOL    HW262768   6.572   0.558   4.223
53646SOL     OW62769  13.932  12.757  14.177
53646SOL    HW162770  13.943  12.743  14.271
53646SOL    HW262771  13.859  12.818  14.170
53647SOL     OW62772  10.218   3.391   7.054
53647SOL    HW162773  10.221   3.447   7.131
53647SOL    HW262774  10.220   3.452   6.980
53648SOL     OW62775   9.601   1.823   0.125
53648SOL    HW162776   9.694   1.807   0.137
53648SOL    HW262777   9.582   1.795   0.036
53649SOL     OW62778   6.465   4.268  10.565
53649SOL    HW162779   6.488   4.244  10.655
53649SOL    HW262780   6.374   4.241  10.555
53650SOL     OW62781  10.089  14.129   9.053
53650SOL    HW162782  10.073  14.068   8.981
53650SOL    HW262783  10.048  14.087   9.129
53651SOL     OW62784  13.803  13.163  12.042
53651SOL    HW162785  13.816  13.162  12.137
53651SOL    HW262786  13.723  13.214  12.029
53652SOL     OW62787  10.380  10.615   5.046
53652SOL    HW162788  10.473  10.601   5.035
53652SOL    HW262789  10.373  10.705   5.078
53653SOL     OW62790   3.216  11.320  11.613
53653SOL    HW162791   3.271  11.290  11.541
53653SOL    HW262792   3.205  11.244  11.669
53654SOL     OW62793   4.507   4.350   8.966
53654SOL    HW162794   4.578   4.333   9.028
53654SOL    HW262795   4.453   4.271   8.969
53655SOL     OW62796   1.449   7.056   4.390
53655SOL    HW162797   1.471   7.145   4.417
53655SOL    HW262798   1.521   7.002   4.423
53656SOL     OW62799  12.302   9.699   9.088
53656SOL    HW162800  12.300   9.695   9.183
53656SOL    HW262801  12.266   9.615   9.059
53657SOL     OW62802   2.002   5.458   9.999
53657SOL    HW162803   2.044   5.399   9.936
53657SOL    HW262804   2.074   5.510  10.035
53658SOL     OW62805  11.796  12.207   4.336
53658SOL    HW162806  11.885  12.241   4.330
53658SOL    HW262807  11.808  12.112   4.345
53659SOL     OW62808   4.376   4.414   8.136
53659SOL    HW162809   4.399   4.340   8.191
53659SOL    HW262810   4.384   4.491   8.192
53660SOL     OW62811   5.745   9.755   6.210
53660SOL    HW162812   5.676   9.800   6.258
53660SOL    HW262813   5.721   9.662   6.215
53661SOL     OW62814   3.957  12.064  13.393
53661SOL    HW162815   3.892  12.051  13.462
53661SOL    HW262816   4.041  12.058  13.439
53662SOL     OW62817   3.165   5.259   7.553
53662SOL    HW162818   3.123   5.292   7.473
53662SOL    HW262819   3.153   5.164   7.548
53663SOL     OW62820   2.111   3.156   7.986
53663SOL    HW162821   2.030   3.204   7.971
53663SOL    HW262822   2.150   3.147   7.899
53664SOL     OW62823   9.982   0.780   1.066
53664SOL    HW162824  10.022   0.810   1.148
53664SOL    HW262825   9.997   0.852   1.005
53665SOL     OW62826   4.713   9.244   7.440
53665SOL    HW162827   4.628   9.222   7.403
53665SOL    HW262828   4.771   9.174   7.409
53666SOL     OW62829   1.066   2.559   5.665
53666SOL    HW162830   1.109   2.639   5.635
53666SOL    HW262831   1.056   2.572   5.760
53667SOL     OW62832   5.037  14.431  13.049
53667SOL    HW162833   5.088  14.466  12.976
53667SOL    HW262834   5.016  14.341  13.022
53668SOL     OW62835   2.049   7.361  14.796
53668SOL    HW162836   1.998   7.360  14.715
53668SOL    HW262837   2.105   7.284  14.790
53669SOL     OW62838   9.904   5.624   7.462
53669SOL    HW162839   9.903   5.546   7.406
53669SOL    HW262840   9.899   5.589   7.551
53670SOL     OW62841  11.295   5.038   2.474
53670SOL    HW162842  11.262   5.018   2.386
53670SOL    HW262843  11.267   5.128   2.490
53671SOL     OW62844   3.136  11.250   6.583
53671SOL    HW162845   3.114  11.163   6.615
53671SOL    HW262846   3.205  11.235   6.518
53672SOL     OW62847  10.976   4.669   7.733
53672SOL    HW162848  10.970   4.594   7.674
53672SOL    HW262849  11.069   4.673   7.757
53673SOL     OW62850   1.829   3.427   0.731
53673SOL    HW162851   1.791   3.379   0.806
53673SOL    HW262852   1.912   3.460   0.764
53674SOL     OW62853  14.544   3.672  14.185
53674SOL    HW162854  14.542   3.698  14.093
53674SOL    HW262855  14.635   3.650  14.202
53675SOL     OW62856   0.261   3.006   1.862
53675SOL    HW162857   0.338   2.985   1.915
53675SOL    HW262858   0.290   2.994   1.772
53676SOL     OW62859   0.964   4.246   6.610
53676SOL    HW162860   0.975   4.180   6.542
53676SOL    HW262861   0.903   4.309   6.573
53677SOL     OW62862   4.430  13.867   8.079
53677SOL    HW162863   4.391  13.793   8.126
53677SOL    HW262864   4.518  13.838   8.057
53678SOL     OW62865   6.641  13.365   6.503
53678SOL    HW162866   6.718  13.389   6.555
53678SOL    HW262867   6.667  13.382   6.413
53679SOL     OW62868  14.573   4.211   1.123
53679SOL    HW162869  14.502   4.157   1.087
53679SOL    HW262870  14.604   4.262   1.048
53680SOL     OW62871   2.537   1.162   3.271
53680SOL    HW162872   2.474   1.232   3.255
53680SOL    HW262873   2.540   1.112   3.189
53681SOL     OW62874   7.070   5.271   9.643
53681SOL    HW162875   7.136   5.220   9.689
53681SOL    HW262876   7.021   5.207   9.592
53682SOL     OW62877   9.931  12.765   9.472
53682SOL    HW162878   9.888  12.708   9.408
53682SOL    HW262879   9.892  12.741   9.556
53683SOL     OW62880   6.609   2.118  11.864
53683SOL    HW162881   6.688   2.065  11.867
53683SOL    HW262882   6.640   2.207  11.849
53684SOL     OW62883   8.659   7.518  13.389
53684SOL    HW162884   8.723   7.447  13.391
53684SOL    HW262885   8.693   7.582  13.453
53685SOL     OW62886  13.947   1.538  11.292
53685SOL    HW162887  14.020   1.593  11.264
53685SOL    HW262888  13.893   1.596  11.346
53686SOL     OW62889   8.648   2.359  10.132
53686SOL    HW162890   8.688   2.363  10.045
53686SOL    HW262891   8.570   2.414  10.125
53687SOL     OW62892   7.084   3.048  13.796
53687SOL    HW162893   7.064   3.088  13.881
53687SOL    HW262894   7.059   2.956  13.807
53688SOL     OW62895   0.322   9.128  10.565
53688SOL    HW162896   0.411   9.154  10.590
53688SOL    HW262897   0.328   9.106  10.472
53689SOL     OW62898   5.668  13.624   0.743
53689SOL    HW162899   5.612  13.632   0.666
53689SOL    HW262900   5.634  13.690   0.804
53690SOL     OW62901   8.469   1.015   8.751
53690SOL    HW162902   8.516   0.940   8.714
53690SOL    HW262903   8.450   0.990   8.841
53691SOL     OW62904   6.861   5.856   1.352
53691SOL    HW162905   6.785   5.903   1.316
53691SOL    HW262906   6.871   5.780   1.295
53692SOL     OW62907   6.809  10.018   9.667
53692SOL    HW162908   6.746  10.035   9.596
53692SOL    HW262909   6.891   9.997   9.622
53693SOL     OW62910   8.249   1.832  14.395
53693SOL    HW162911   8.230   1.926  14.390
53693SOL    HW262912   8.228   1.808  14.485
53694SOL     OW62913   1.026   2.077  10.558
53694SOL    HW162914   1.074   2.104  10.637
53694SOL    HW262915   0.995   1.989  10.579
53695SOL     OW62916  12.159   6.381   9.252
53695SOL    HW162917  12.254   6.372   9.261
53695SOL    HW262918  12.135   6.312   9.190
53696SOL     OW62919  13.996   1.459   7.212
53696SOL    HW162920  13.989   1.504   7.296
53696SOL    HW262921  14.083   1.482   7.180
53697SOL     OW62922   5.316   7.550  11.776
53697SOL    HW162923   5.335   7.478  11.836
53697SOL    HW262924   5.402   7.588  11.756
53698SOL     OW62925   0.515   6.555  12.869
53698SOL    HW162926   0.528   6.517  12.956
53698SOL    HW262927   0.426   6.593  12.872
53699SOL     OW62928   6.036   7.314   5.794
53699SOL    HW162929   6.107   7.254   5.771
53699SOL    HW262930   6.042   7.385   5.729
53700SOL     OW62931   7.994   5.739   4.285
53700SOL    HW162932   8.009   5.788   4.204
53700SOL    HW262933   7.975   5.650   4.256
53701SOL     OW62934  12.009   2.910  10.449
53701SOL    HW162935  12.100   2.938  10.461
53701SOL    HW262936  11.984   2.873  10.533
53702SOL     OW62937   0.598   0.607   6.405
53702SOL    HW162938   0.575   0.533   6.349
53702SOL    HW262939   0.518   0.658   6.411
53703SOL     OW62940   7.386   0.332   2.090
53703SOL    HW162941   7.343   0.248   2.106
53703SOL    HW262942   7.479   0.312   2.089
53704SOL     OW62943  11.048   2.462  14.024
53704SOL    HW162944  11.035   2.371  14.051
53704SOL    HW262945  10.966   2.487  13.982
53705SOL     OW62946   8.919   9.317   0.371
53705SOL    HW162947   8.924   9.261   0.293
53705SOL    HW262948   8.849   9.379   0.351
53706SOL     OW62949   1.063   1.681   4.622
53706SOL    HW162950   1.118   1.654   4.549
53706SOL    HW262951   1.086   1.622   4.694
53707SOL     OW62952   6.603  13.128   3.080
53707SOL    HW162953   6.567  13.055   3.131
53707SOL    HW262954   6.574  13.206   3.127
53708SOL     OW62955  10.273   5.986   4.540
53708SOL    HW162956  10.319   5.939   4.610
53708SOL    HW262957  10.271   6.077   4.569
53709SOL     OW62958   7.930   1.644   3.908
53709SOL    HW162959   7.861   1.710   3.918
53709SOL    HW262960   7.883   1.561   3.899
53710SOL     OW62961   5.646  11.256   1.056
53710SOL    HW162962   5.681  11.238   1.143
53710SOL    HW262963   5.627  11.170   1.020
53711SOL     OW62964   4.560  10.394   6.116
53711SOL    HW162965   4.528  10.405   6.206
53711SOL    HW262966   4.487  10.353   6.069
53712SOL     OW62967  13.147  13.504  14.753
53712SOL    HW162968  13.112  13.526  14.839
53712SOL    HW262969  13.075  13.460  14.708
53713SOL     OW62970   7.299  12.925   5.453
53713SOL    HW162971   7.346  12.952   5.374
53713SOL    HW262972   7.326  12.834   5.466
53714SOL     OW62973  11.290  10.504  13.613
53714SOL    HW162974  11.272  10.440  13.544
53714SOL    HW262975  11.222  10.571  13.601
53715SOL     OW62976  14.261   5.179   7.337
53715SOL    HW162977  14.284   5.186   7.244
53715SOL    HW262978  14.325   5.117   7.372
53716SOL     OW62979  12.759   2.106  10.219
53716SOL    HW162980  12.760   2.103  10.314
53716SOL    HW262981  12.670   2.134  10.197
53717SOL     OW62982   2.853  12.674   5.451
53717SOL    HW162983   2.765  12.661   5.414
53717SOL    HW262984   2.912  12.651   5.380
53718SOL     OW62985   8.721   0.712   4.284
53718SOL    HW162986   8.650   0.777   4.277
53718SOL    HW262987   8.801   0.762   4.267
53719SOL     OW62988   8.792   9.759   9.109
53719SOL    HW162989   8.805   9.669   9.080
53719SOL    HW262990   8.791   9.754   9.205
53720SOL     OW62991  10.336  10.945   0.675
53720SOL    HW162992  10.425  10.909   0.665
53720SOL    HW262993  10.295  10.931   0.589
53721SOL     OW62994   6.126  14.847  13.101
53721SOL    HW162995   6.083   0.046  13.073
53721SOL    HW262996   6.219  14.870  13.106
53722SOL     OW62997   1.633   9.498   7.614
53722SOL    HW162998   1.638   9.419   7.669
53722SOL    HW262999   1.542   9.526   7.622
53723SOL     OW63000   4.442   8.606  14.418
53723SOL    HW163001   4.456   8.540  14.350
53723SOL    HW263002   4.379   8.566  14.478
53724SOL     OW63003  10.509   4.933   2.357
53724SOL    HW163004  10.586   4.883   2.385
53724SOL    HW263005  10.436   4.895   2.406
53725SOL     OW63006  11.111   1.990  11.125
53725SOL    HW163007  11.043   1.924  11.114
53725SOL    HW263008  11.154   1.967  11.207
53726SOL     OW63009  11.509  14.222   0.219
53726SOL    HW163010  11.447  14.235   0.147
53726SOL    HW263011  11.542  14.133   0.206
53727SOL     OW63012   0.108  12.001  14.551
53727SOL    HW163013   0.052  12.048  14.490
53727SOL    HW263014   0.189  12.052  14.554
53728SOL     OW63015  14.136   1.846   5.603
53728SOL    HW163016  14.184   1.836   5.521
53728SOL    HW263017  14.134   1.758   5.641
53729SOL     OW63018   4.046   6.674  11.020
53729SOL    HW163019   4.008   6.757  11.049
53729SOL    HW263020   4.032   6.673  10.926
53730SOL     OW63021   3.995   9.789   4.935
53730SOL    HW163022   4.014   9.703   4.973
53730SOL    HW263023   4.068   9.844   4.964
53731SOL     OW63024  12.255  13.476  11.956
53731SOL    HW163025  12.287  13.490  11.867
53731SOL    HW263026  12.324  13.426  11.999
53732SOL     OW63027   2.307   7.045  12.188
53732SOL    HW163028   2.325   7.026  12.096
53732SOL    HW263029   2.383   7.096  12.218
53733SOL     OW63030   5.000  14.479   6.098
53733SOL    HW163031   4.997  14.456   6.006
53733SOL    HW263032   5.034  14.401   6.142
53734SOL     OW63033   6.638   6.449  13.030
53734SOL    HW163034   6.628   6.408  13.116
53734SOL    HW263035   6.676   6.535  13.049
53735SOL     OW63036   4.840  11.747   4.072
53735SOL    HW163037   4.844  11.707   3.985
53735SOL    HW263038   4.837  11.673   4.132
53736SOL     OW63039  12.787   9.512   7.128
53736SOL    HW163040  12.818   9.426   7.157
53736SOL    HW263041  12.742   9.548   7.204
53737SOL     OW63042   8.341   1.121   4.111
53737SOL    HW163043   8.317   1.036   4.073
53737SOL    HW263044   8.265   1.177   4.095
53738SOL     OW63045  12.970  12.544   9.583
53738SOL    HW163046  13.030  12.470   9.589
53738SOL    HW263047  13.021  12.619   9.613
53739SOL     OW63048   5.001  10.715   5.698
53739SOL    HW163049   5.039  10.638   5.656
53739SOL    HW263050   5.067  10.742   5.762
53740SOL     OW63051  12.691   7.188  10.900
53740SOL    HW163052  12.727   7.115  10.950
53740SOL    HW263053  12.639   7.146  10.831
53741SOL     OW63054  12.077  10.174  12.984
53741SOL    HW163055  12.160  10.220  12.999
53741SOL    HW263056  12.065  10.177  12.889
53742SOL     OW63057   7.965   0.822   5.979
53742SOL    HW163058   7.912   0.840   6.056
53742SOL    HW263059   7.993   0.909   5.948
53743SOL     OW63060   8.151   8.198   4.049
53743SOL    HW163061   8.139   8.160   4.136
53743SOL    HW263062   8.110   8.136   3.990
53744SOL     OW63063   2.285   3.541   0.466
53744SOL    HW163064   2.316   3.593   0.540
53744SOL    HW263065   2.213   3.489   0.502
53745SOL     OW63066   2.093   8.799   5.863
53745SOL    HW163067   2.080   8.708   5.891
53745SOL    HW263068   2.092   8.796   5.768
53746SOL     OW63069   1.134   0.933   9.748
53746SOL    HW163070   1.064   0.884   9.790
53746SOL    HW263071   1.185   0.970   9.820
53747SOL     OW63072   8.432   4.731  10.082
53747SOL    HW163073   8.502   4.677  10.118
53747SOL    HW263074   8.476   4.805  10.042
53748SOL     OW63075  10.712   8.946   3.382
53748SOL    HW163076  10.712   8.961   3.477
53748SOL    HW263077  10.717   9.033   3.344
53749SOL     OW63078   4.489  10.609  12.965
53749SOL    HW163079   4.538  10.572  13.039
53749SOL    HW263080   4.556  10.632  12.901
53750SOL     OW63081   8.869  10.417   8.604
53750SOL    HW163082   8.796  10.356   8.591
53750SOL    HW263083   8.900  10.436   8.516
53751SOL     OW63084  10.622  10.327  11.372
53751SOL    HW163085  10.535  10.315  11.410
53751SOL    HW263086  10.680  10.336  11.448
53752SOL     OW63087   4.277   8.249   4.250
53752SOL    HW163088   4.345   8.316   4.243
53752SOL    HW263089   4.251   8.231   4.160
53753SOL     OW63090   6.408   9.384   2.531
53753SOL    HW163091   6.375   9.465   2.571
53753SOL    HW263092   6.503   9.390   2.540
53754SOL     OW63093   6.825   9.056   4.508
53754SOL    HW163094   6.745   9.004   4.503
53754SOL    HW263095   6.859   9.039   4.596
53755SOL     OW63096   4.092   1.344   8.901
53755SOL    HW163097   4.108   1.265   8.953
53755SOL    HW263098   4.170   1.353   8.846
53756SOL     OW63099   2.953   0.430  11.351
53756SOL    HW163100   2.878   0.379  11.319
53756SOL    HW263101   2.927   0.521  11.338
53757SOL     OW63102   3.492   6.291   9.049
53757SOL    HW163103   3.519   6.382   9.039
53757SOL    HW263104   3.505   6.253   8.962
53758SOL     OW63105   6.693   3.929   3.973
53758SOL    HW163106   6.703   4.002   3.911
53758SOL    HW263107   6.775   3.929   4.022
53759SOL     OW63108   3.577  11.396   2.543
53759SOL    HW163109   3.495  11.444   2.539
53759SOL    HW263110   3.571  11.332   2.473
53760SOL     OW63111   5.076  10.985  12.230
53760SOL    HW163112   5.166  10.965  12.257
53760SOL    HW263113   5.085  11.018  12.141
53761SOL     OW63114  13.443   9.808   7.216
53761SOL    HW163115  13.534   9.815   7.187
53761SOL    HW263116  13.419   9.717   7.199
53762SOL     OW63117  14.701   9.708   6.854
53762SOL    HW163118  14.652   9.788   6.873
53762SOL    HW263119  14.672   9.646   6.920
53763SOL     OW63120  13.117   2.035   4.889
53763SOL    HW163121  13.042   2.065   4.837
53763SOL    HW263122  13.193   2.074   4.846
53764SOL     OW63123   4.600   7.748  13.717
53764SOL    HW163124   4.596   7.723  13.624
53764SOL    HW263125   4.537   7.819  13.725
53765SOL     OW63126   2.576  14.630   0.777
53765SOL    HW163127   2.579  14.563   0.845
53765SOL    HW263128   2.572  14.712   0.825
53766SOL     OW63129   3.433   1.249   3.844
53766SOL    HW163130   3.386   1.168   3.822
53766SOL    HW263131   3.367   1.304   3.886
53767SOL     OW63132   8.703   6.438  12.641
53767SOL    HW163133   8.791   6.464  12.668
53767SOL    HW263134   8.650   6.446  12.721
53768SOL     OW63135   4.917   4.782  11.283
53768SOL    HW163136   4.998   4.738  11.254
53768SOL    HW263137   4.872   4.716  11.336
53769SOL     OW63138   9.638  11.505   1.672
53769SOL    HW163139   9.706  11.571   1.661
53769SOL    HW263140   9.667  11.432   1.617
53770SOL     OW63141   9.741  14.741  12.006
53770SOL    HW163142   9.690  14.796  12.065
53770SOL    HW263143   9.814  14.710  12.060
53771SOL     OW63144  13.536   8.480   1.730
53771SOL    HW163145  13.468   8.432   1.683
53771SOL    HW263146  13.493   8.508   1.811
53772SOL     OW63147   8.742  10.128   2.297
53772SOL    HW163148   8.795  10.198   2.258
53772SOL    HW263149   8.667  10.173   2.334
53773SOL     OW63150  10.377  10.100   3.370
53773SOL    HW163151  10.428  10.097   3.451
53773SOL    HW263152  10.433  10.148   3.309
53774SOL     OW63153   7.519  11.573   1.418
53774SOL    HW163154   7.553  11.602   1.503
53774SOL    HW263155   7.452  11.638   1.396
53775SOL     OW63156   3.988   6.491   8.546
53775SOL    HW163157   3.968   6.484   8.453
53775SOL    HW263158   4.072   6.446   8.555
53776SOL     OW63159  13.688  11.284  12.959
53776SOL    HW163160  13.733  11.343  12.899
53776SOL    HW263161  13.595  11.296  12.940
53777SOL     OW63162   7.076   6.140   6.164
53777SOL    HW163163   7.000   6.173   6.211
53777SOL    HW263164   7.040   6.085   6.094
53778SOL     OW63165   5.623   5.198  12.470
53778SOL    HW163166   5.642   5.188  12.376
53778SOL    HW263167   5.707   5.219  12.509
53779SOL     OW63168  12.794   8.671   6.678
53779SOL    HW163169  12.812   8.613   6.604
53779SOL    HW263170  12.861   8.739   6.671
53780SOL     OW63171  12.294   8.135   8.279
53780SOL    HW163172  12.214   8.139   8.333
53780SOL    HW263173  12.305   8.042   8.259
53781SOL     OW63174  10.279   3.124   6.788
53781SOL    HW163175  10.282   3.083   6.702
53781SOL    HW263176  10.327   3.206   6.777
53782SOL     OW63177   9.502   8.371   7.871
53782SOL    HW163178   9.468   8.423   7.943
53782SOL    HW263179   9.590   8.347   7.898
53783SOL     OW63180   0.442  14.416   5.971
53783SOL    HW163181   0.537  14.419   5.981
53783SOL    HW263182   0.428  14.381   5.883
53784SOL     OW63183   4.308  14.651   5.811
53784SOL    HW163184   4.253  14.696   5.875
53784SOL    HW263185   4.247  14.612   5.750
53785SOL     OW63186   1.926   5.140   5.434
53785SOL    HW163187   1.859   5.113   5.372
53785SOL    HW263188   1.884   5.207   5.488
53786SOL     OW63189   8.767   7.398   6.243
53786SOL    HW163190   8.819   7.330   6.285
53786SOL    HW263191   8.696   7.417   6.304
53787SOL     OW63192  14.026   0.773  14.487
53787SOL    HW163193  13.978   0.825  14.551
53787SOL    HW263194  14.011   0.682  14.512
53788SOL     OW63195   7.494   2.035   1.518
53788SOL    HW163196   7.465   1.963   1.573
53788SOL    HW263197   7.589   2.041   1.533
53789SOL     OW63198   7.906   2.873   0.684
53789SOL    HW163199   7.823   2.895   0.727
53789SOL    HW263200   7.891   2.789   0.642
53790SOL     OW63201  13.709   8.723   4.417
53790SOL    HW163202  13.803   8.729   4.433
53790SOL    HW263203  13.690   8.794   4.356
53791SOL     OW63204  10.873  14.066   6.457
53791SOL    HW163205  10.909  14.042   6.371
53791SOL    HW263206  10.886  13.989   6.511
53792SOL     OW63207   9.565   7.787  14.344
53792SOL    HW163208   9.593   7.838  14.268
53792SOL    HW263209   9.550   7.853  14.412
53793SOL     OW63210   9.660   6.828   1.932
53793SOL    HW163211   9.575   6.857   1.965
53793SOL    HW263212   9.721   6.844   2.004
53794SOL     OW63213   2.584   2.512   6.918
53794SOL    HW163214   2.648   2.440   6.915
53794SOL    HW263215   2.561   2.527   6.827
53795SOL     OW63216   7.164   8.890   3.204
53795SOL    HW163217   7.188   8.845   3.285
53795SOL    HW263218   7.149   8.981   3.230
53796SOL     OW63219   1.869   2.727   4.755
53796SOL    HW163220   1.861   2.643   4.709
53796SOL    HW263221   1.780   2.747   4.784
53797SOL     OW63222   7.580   8.770   9.924
53797SOL    HW163223   7.672   8.790   9.907
53797SOL    HW263224   7.532   8.836   9.874
53798SOL     OW63225   1.168   9.595   9.746
53798SOL    HW163226   1.078   9.629   9.754
53798SOL    HW263227   1.189   9.606   9.654
53799SOL     OW63228  11.394   7.244   8.412
53799SOL    HW163229  11.458   7.174   8.424
53799SOL    HW263230  11.310   7.204   8.434
53800SOL     OW63231  11.087   8.226   7.490
53800SOL    HW163232  11.091   8.151   7.550
53800SOL    HW263233  11.004   8.269   7.512
53801SOL     OW63234   6.025  11.323  12.871
53801SOL    HW163235   6.074  11.397  12.907
53801SOL    HW263236   5.958  11.304  12.937
53802SOL     OW63237   8.726   9.158   4.176
53802SOL    HW163238   8.687   9.222   4.235
53802SOL    HW263239   8.774   9.098   4.233
53803SOL     OW63240   3.989   3.446   0.972
53803SOL    HW163241   3.953   3.474   1.056
53803SOL    HW263242   4.081   3.426   0.991
53804SOL     OW63243  10.575   5.631   2.110
53804SOL    HW163244  10.655   5.684   2.108
53804SOL    HW263245  10.604   5.543   2.131
53805SOL     OW63246   2.008   8.120  12.806
53805SOL    HW163247   2.039   8.060  12.873
53805SOL    HW263248   2.049   8.089  12.725
53806SOL     OW63249   5.665   6.995   1.445
53806SOL    HW163250   5.580   7.034   1.465
53806SOL    HW263251   5.729   7.056   1.480
53807SOL     OW63252   4.095  13.493   9.675
53807SOL    HW163253   4.094  13.443   9.593
53807SOL    HW263254   4.188  13.508   9.692
53808SOL     OW63255  11.949   9.198   8.893
53808SOL    HW163256  11.932   9.237   8.808
53808SOL    HW263257  11.893   9.248   8.954
53809SOL     OW63258   6.406   2.273   1.994
53809SOL    HW163259   6.344   2.280   1.921
53809SOL    HW263260   6.376   2.339   2.057
53810SOL     OW63261  10.421   7.171   1.809
53810SOL    HW163262  10.358   7.121   1.757
53810SOL    HW263263  10.404   7.144   1.900
53811SOL     OW63264   3.882   0.872   3.270
53811SOL    HW163265   3.921   0.835   3.349
53811SOL    HW263266   3.798   0.827   3.260
53812SOL     OW63267  14.755   8.214   4.331
53812SOL    HW163268  14.683   8.235   4.391
53812SOL    HW263269  14.716   8.221   4.244
53813SOL     OW63270   0.456   4.093   7.560
53813SOL    HW163271   0.443   4.155   7.632
53813SOL    HW263272   0.368   4.074   7.528
53814SOL     OW63273  12.990   8.167  12.702
53814SOL    HW163274  12.995   8.130  12.790
53814SOL    HW263275  13.064   8.227  12.697
53815SOL     OW63276   6.231   5.994   0.620
53815SOL    HW163277   6.302   6.047   0.656
53815SOL    HW263278   6.244   5.999   0.525
53816SOL     OW63279  11.414  13.629   2.406
53816SOL    HW163280  11.506  13.626   2.432
53816SOL    HW263281  11.365  13.623   2.488
53817SOL     OW63282  13.561   3.392   8.936
53817SOL    HW163283  13.549   3.302   8.966
53817SOL    HW263284  13.630   3.427   8.993
53818SOL     OW63285   1.324  12.106  13.256
53818SOL    HW163286   1.338  12.138  13.166
53818SOL    HW263287   1.232  12.082  13.259
53819SOL     OW63288   9.507  14.141   7.081
53819SOL    HW163289   9.601  14.155   7.095
53819SOL    HW263290   9.498  14.047   7.071
53820SOL     OW63291  10.777   4.129   5.006
53820SOL    HW163292  10.822   4.066   5.062
53820SOL    HW263293  10.813   4.113   4.919
53821SOL     OW63294   9.579   9.138  10.125
53821SOL    HW163295   9.577   9.082  10.048
53821SOL    HW263296   9.672   9.146  10.147
53822SOL     OW63297   3.235   8.926   1.250
53822SOL    HW163298   3.250   8.983   1.325
53822SOL    HW263299   3.155   8.878   1.273
53823SOL     OW63300  13.445  11.248  12.124
53823SOL    HW163301  13.410  11.218  12.040
53823SOL    HW263302  13.518  11.189  12.142
53824SOL     OW63303   0.369   1.757   9.034
53824SOL    HW163304   0.330   1.746   8.947
53824SOL    HW263305   0.396   1.668   9.059
53825SOL     OW63306   5.292  10.460   5.520
53825SOL    HW163307   5.359  10.418   5.466
53825SOL    HW263308   5.210  10.419   5.493
53826SOL     OW63309  10.213  14.321  10.091
53826SOL    HW163310  10.285  14.366  10.135
53826SOL    HW263311  10.255  14.259  10.032
53827SOL     OW63312   7.355   5.307   6.326
53827SOL    HW163313   7.356   5.369   6.399
53827SOL    HW263314   7.322   5.226   6.363
53828SOL     OW63315  13.091   0.481   1.242
53828SOL    HW163316  13.174   0.513   1.276
53828SOL    HW263317  13.060   0.551   1.186
53829SOL     OW63318  13.506  12.293   7.364
53829SOL    HW163319  13.431  12.350   7.380
53829SOL    HW263320  13.467  12.208   7.345
53830SOL     OW63321   4.433  12.871   0.016
53830SOL    HW163322   4.420  12.915  14.814
53830SOL    HW263323   4.346  12.868   0.056
53831SOL     OW63324  12.305   3.495   8.904
53831SOL    HW163325  12.366   3.555   8.861
53831SOL    HW263326  12.283   3.430   8.837
53832SOL     OW63327   1.473   7.898   7.594
53832SOL    HW163328   1.403   7.922   7.533
53832SOL    HW263329   1.436   7.829   7.648
53833SOL     OW63330  11.168   2.145  10.159
53833SOL    HW163331  11.151   2.189  10.076
53833SOL    HW263332  11.263   2.134  10.162
53834SOL     OW63333   1.243   7.135  13.036
53834SOL    HW163334   1.286   7.194  12.974
53834SOL    HW263335   1.150   7.158  13.030
53835SOL     OW63336  10.426   5.745   0.097
53835SOL    HW163337  10.332   5.729   0.104
53835SOL    HW263338  10.435   5.803   0.022
53836SOL     OW63339   4.328   8.415  14.842
53836SOL    HW163340   4.292   8.429   0.047
53836SOL    HW263341   4.408   8.468  14.839
53837SOL     OW63342   9.191   4.260   4.875
53837SOL    HW163343   9.179   4.298   4.961
53837SOL    HW263344   9.175   4.332   4.814
53838SOL     OW63345  14.520   3.105   6.909
53838SOL    HW163346  14.439   3.154   6.891
53838SOL    HW263347  14.516   3.030   6.849
53839SOL     OW63348  10.887   9.091   2.811
53839SOL    HW163349  10.894   9.008   2.858
53839SOL    HW263350  10.906   9.158   2.877
53840SOL     OW63351   7.951   0.135   5.674
53840SOL    HW163352   7.979   0.150   5.765
53840SOL    HW263353   7.882   0.201   5.659
53841SOL     OW63354   6.068  14.451  12.472
53841SOL    HW163355   5.976  14.477  12.460
53841SOL    HW263356   6.106  14.522  12.524
53842SOL     OW63357   9.092   1.666   8.577
53842SOL    HW163358   9.004   1.642   8.604
53842SOL    HW263359   9.081   1.746   8.525
53843SOL     OW63360  14.153   7.797   9.306
53843SOL    HW163361  14.242   7.797   9.272
53843SOL    HW263362  14.124   7.706   9.298
53844SOL     OW63363   6.363   6.417   5.647
53844SOL    HW163364   6.320   6.346   5.598
53844SOL    HW263365   6.338   6.497   5.600
53845SOL     OW63366   4.454   0.522  12.481
53845SOL    HW163367   4.521   0.459  12.452
53845SOL    HW263368   4.483   0.547  12.569
53846SOL     OW63369   3.422   8.611   8.797
53846SOL    HW163370   3.484   8.606   8.723
53846SOL    HW263371   3.355   8.546   8.775
53847SOL     OW63372  12.683   7.242   9.327
53847SOL    HW163373  12.725   7.286   9.253
53847SOL    HW263374  12.745   7.173   9.352
53848SOL     OW63375   9.957   5.835  10.482
53848SOL    HW163376   9.974   5.751  10.524
53848SOL    HW263377   9.863   5.836  10.467
53849SOL     OW63378   1.270   4.650   8.377
53849SOL    HW163379   1.259   4.606   8.461
53849SOL    HW263380   1.335   4.718   8.394
53850SOL     OW63381  11.524   9.968   7.697
53850SOL    HW163382  11.508   9.977   7.791
53850SOL    HW263383  11.439   9.988   7.657
53851SOL     OW63384  12.916   6.887   7.651
53851SOL    HW163385  12.902   6.933   7.568
53851SOL    HW263386  12.924   6.795   7.626
53852SOL     OW63387  14.654  10.294   1.143
53852SOL    HW163388  14.637  10.249   1.060
53852SOL    HW263389  14.707  10.231   1.193
53853SOL     OW63390  13.129   3.504   9.452
53853SOL    HW163391  13.059   3.510   9.518
53853SOL    HW263392  13.093   3.550   9.376
53854SOL     OW63393   6.869   5.123  11.534
53854SOL    HW163394   6.930   5.196  11.547
53854SOL    HW263395   6.804   5.134  11.604
53855SOL     OW63396   5.481   4.199   4.736
53855SOL    HW163397   5.453   4.183   4.646
53855SOL    HW263398   5.435   4.279   4.761
53856SOL     OW63399   0.136   5.389   4.501
53856SOL    HW163400   0.200   5.356   4.439
53856SOL    HW263401   0.142   5.484   4.494
53857SOL     OW63402  12.128   8.183  14.303
53857SOL    HW163403  12.201   8.184  14.242
53857SOL    HW263404  12.134   8.099  14.348
53858SOL     OW63405   8.064   0.140   8.423
53858SOL    HW163406   8.015   0.214   8.459
53858SOL    HW263407   8.045   0.067   8.482
53859SOL     OW63408  14.376   1.189   4.880
53859SOL    HW163409  14.417   1.118   4.929
53859SOL    HW263410  14.361   1.258   4.946
53860SOL     OW63411  14.106  10.134  12.930
53860SOL    HW163412  14.170  10.101  12.867
53860SOL    HW263413  14.045  10.062  12.943
53861SOL     OW63414   1.221  10.540   5.852
53861SOL    HW163415   1.218  10.477   5.781
53861SOL    HW263416   1.135  10.582   5.851
53862SOL     OW63417   4.802   4.590   7.330
53862SOL    HW163418   4.783   4.535   7.254
53862SOL    HW263419   4.848   4.532   7.391
53863SOL     OW63420   1.151  14.384  12.728
53863SOL    HW163421   1.100  14.415  12.802
53863SOL    HW263422   1.114  14.430  12.652
53864SOL     OW63423   5.630   8.785   5.340
53864SOL    HW163424   5.545   8.741   5.343
53864SOL    HW263425   5.626   8.848   5.412
53865SOL     OW63426  13.544  10.007   5.467
53865SOL    HW163427  13.510   9.951   5.536
53865SOL    HW263428  13.468  10.059   5.439
53866SOL     OW63429  11.367  12.704   7.211
53866SOL    HW163430  11.447  12.685   7.259
53866SOL    HW263431  11.397  12.729   7.123
53867SOL     OW63432   5.628   4.461   1.315
53867SOL    HW163433   5.614   4.399   1.244
53867SOL    HW263434   5.654   4.407   1.390
53868SOL     OW63435  11.578  14.611   9.533
53868SOL    HW163436  11.512  14.550   9.566
53868SOL    HW263437  11.590  14.674   9.604
53869SOL     OW63438   2.702   7.566  14.590
53869SOL    HW163439   2.701   7.553  14.495
53869SOL    HW263440   2.795   7.564  14.613
53870SOL     OW63441   0.392  13.702  12.197
53870SOL    HW163442   0.365  13.697  12.289
53870SOL    HW263443   0.449  13.779  12.193
53871SOL     OW63444  14.648  11.378  12.976
53871SOL    HW163445  14.654  11.292  12.935
53871SOL    HW263446  14.700  11.436  12.920
53872SOL     OW63447  10.078   0.057   3.325
53872SOL    HW163448  10.157   0.075   3.375
53872SOL    HW263449  10.109   0.028   3.239
53873SOL     OW63450  14.862   6.332  10.532
53873SOL    HW163451   0.009   6.356  10.620
53873SOL    HW263452   0.021   6.397  10.475
53874SOL     OW63453   4.289   9.701   7.021
53874SOL    HW163454   4.203   9.680   6.985
53874SOL    HW263455   4.346   9.707   6.944
53875SOL     OW63456   9.670   4.322  14.281
53875SOL    HW163457   9.667   4.270  14.362
53875SOL    HW263458   9.725   4.271  14.222
53876SOL     OW63459   2.053   6.182  10.956
53876SOL    HW163460   2.026   6.169  10.866
53876SOL    HW263461   2.143   6.149  10.959
53877SOL     OW63462   9.649   0.393   7.014
53877SOL    HW163463   9.572   0.431   6.972
53877SOL    HW263464   9.689   0.340   6.945
53878SOL     OW63465   0.687   5.237   7.621
53878SOL    HW163466   0.656   5.271   7.537
53878SOL    HW263467   0.782   5.236   7.612
53879SOL     OW63468   0.478   5.122   8.364
53879SOL    HW163469   0.509   5.035   8.340
53879SOL    HW263470   0.423   5.149   8.290
53880SOL     OW63471   1.462   5.559   0.536
53880SOL    HW163472   1.462   5.646   0.496
53880SOL    HW263473   1.554   5.532   0.533
53881SOL     OW63474   5.569   1.815   0.818
53881SOL    HW163475   5.615   1.873   0.757
53881SOL    HW263476   5.639   1.770   0.865
53882SOL     OW63477  11.038   8.445  10.270
53882SOL    HW163478  10.987   8.401  10.202
53882SOL    HW263479  11.129   8.436  10.241
53883SOL     OW63480  13.862   5.744  14.741
53883SOL    HW163481  13.781   5.699  14.763
53883SOL    HW263482  13.926   5.673  14.732
53884SOL     OW63483   6.967   8.421   8.158
53884SOL    HW163484   6.872   8.410   8.159
53884SOL    HW263485   7.002   8.333   8.171
53885SOL     OW63486   2.809  13.831   6.716
53885SOL    HW163487   2.839  13.918   6.743
53885SOL    HW263488   2.762  13.847   6.634
53886SOL     OW63489   1.139   6.708   6.302
53886SOL    HW163490   1.222   6.717   6.349
53886SOL    HW263491   1.161   6.662   6.221
53887SOL     OW63492   1.352   1.265   8.706
53887SOL    HW163493   1.314   1.224   8.784
53887SOL    HW263494   1.394   1.193   8.659
53888SOL     OW63495   3.033  13.009  11.528
53888SOL    HW163496   3.114  13.035  11.485
53888SOL    HW263497   2.981  12.970  11.459
53889SOL     OW63498   4.009   6.000  14.183
53889SOL    HW163499   4.064   5.945  14.239
53889SOL    HW263500   3.989   6.076  14.238
53890SOL     OW63501   2.711   0.755   4.270
53890SOL    HW163502   2.707   0.850   4.268
53890SOL    HW263503   2.621   0.726   4.284
53891SOL     OW63504   3.307  12.932   8.232
53891SOL    HW163505   3.215  12.905   8.233
53891SOL    HW263506   3.355  12.853   8.205
53892SOL     OW63507   4.023   6.782  13.538
53892SOL    HW163508   4.017   6.839  13.614
53892SOL    HW263509   4.032   6.842  13.463
53893SOL     OW63510   9.843   0.194  12.015
53893SOL    HW163511   9.888   0.175  12.097
53893SOL    HW263512   9.912   0.222  11.955
53894SOL     OW63513  11.866  11.045  12.233
53894SOL    HW163514  11.831  11.134  12.222
53894SOL    HW263515  11.805  10.990  12.183
53895SOL     OW63516   8.380   8.337  10.652
53895SOL    HW163517   8.414   8.335  10.563
53895SOL    HW263518   8.432   8.405  10.696
53896SOL     OW63519  11.001   6.461  11.096
53896SOL    HW163520  10.925   6.508  11.129
53896SOL    HW263521  10.996   6.375  11.138
53897SOL     OW63522   0.547  14.153  12.156
53897SOL    HW163523   0.541  14.248  12.158
53897SOL    HW263524   0.465  14.124  12.197
53898SOL     OW63525  11.708  13.115   6.316
53898SOL    HW163526  11.775  13.097   6.250
53898SOL    HW263527  11.697  13.032   6.363
53899SOL     OW63528   6.840  12.800  11.703
53899SOL    HW163529   6.833  12.895  11.699
53899SOL    HW263530   6.750  12.769  11.699
53900SOL     OW63531   5.217   1.330   4.931
53900SOL    HW163532   5.131   1.317   4.972
53900SOL    HW263533   5.207   1.295   4.843
53901SOL     OW63534  10.168  10.358  14.744
53901SOL    HW163535  10.162  10.278  14.692
53901SOL    HW263536  10.148  10.330  14.833
53902SOL     OW63537   3.116   4.699   4.601
53902SOL    HW163538   3.171   4.623   4.585
53902SOL    HW263539   3.125   4.716   4.695
53903SOL     OW63540   3.806   3.414  10.207
53903SOL    HW163541   3.762   3.487  10.251
53903SOL    HW263542   3.798   3.435  10.114
53904SOL     OW63543   8.968   6.368  10.440
53904SOL    HW163544   9.001   6.394  10.354
53904SOL    HW263545   9.043   6.381  10.499
53905SOL     OW63546   4.573  14.085   2.931
53905SOL    HW163547   4.531  14.073   3.016
53905SOL    HW263548   4.500  14.094   2.870
53906SOL     OW63549  10.655   2.501   8.717
53906SOL    HW163550  10.563   2.493   8.692
53906SOL    HW263551  10.680   2.589   8.689
53907SOL     OW63552   0.530   7.117  12.353
53907SOL    HW163553   0.522   7.212  12.364
53907SOL    HW263554   0.457   7.094  12.297
53908SOL     OW63555   2.722   6.493  14.204
53908SOL    HW163556   2.798   6.524  14.253
53908SOL    HW263557   2.667   6.571  14.193
53909SOL     OW63558   6.331   1.477   2.989
53909SOL    HW163559   6.413   1.442   2.955
53909SOL    HW263560   6.299   1.534   2.919
53910SOL     OW63561   2.096   9.924   7.839
53910SOL    HW163562   2.034   9.935   7.768
53910SOL    HW263563   2.061   9.977   7.910
53911SOL     OW63564   6.592   8.960  12.550
53911SOL    HW163565   6.512   8.974  12.599
53911SOL    HW263566   6.617   9.047  12.520
53912SOL     OW63567   8.146  14.507   4.861
53912SOL    HW163568   8.235  14.543   4.855
53912SOL    HW263569   8.129  14.472   4.774
53913SOL     OW63570   9.644   1.144   3.273
53913SOL    HW163571   9.724   1.178   3.313
53913SOL    HW263572   9.578   1.150   3.343
53914SOL     OW63573   1.368   4.853   6.378
53914SOL    HW163574   1.323   4.921   6.329
53914SOL    HW263575   1.445   4.895   6.415
53915SOL     OW63576   7.963  10.060  10.766
53915SOL    HW163577   8.013  10.136  10.737
53915SOL    HW263578   8.016   9.984  10.742
53916SOL     OW63579  13.468   6.408   5.387
53916SOL    HW163580  13.423   6.488   5.362
53916SOL    HW263581  13.562   6.429   5.380
53917SOL     OW63582   2.121  11.159   9.928
53917SOL    HW163583   2.134  11.065   9.912
53917SOL    HW263584   2.154  11.202   9.849
53918SOL     OW63585   5.341  12.152  14.437
53918SOL    HW163586   5.400  12.193  14.375
53918SOL    HW263587   5.370  12.061  14.441
53919SOL     OW63588   9.343   1.021   6.007
53919SOL    HW163589   9.286   1.004   5.931
53919SOL    HW263590   9.297   0.980   6.080
53920SOL     OW63591  11.260   8.460   2.094
53920SOL    HW163592  11.309   8.391   2.139
53920SOL    HW263593  11.283   8.449   2.002
53921SOL     OW63594   6.725   2.876  14.849
53921SOL    HW163595   6.696   2.803  14.796
53921SOL    HW263596   6.743   2.946  14.786
53922SOL     OW63597   1.078  12.562  12.498
53922SOL    HW163598   1.014  12.494  12.519
53922SOL    HW263599   1.049  12.598  12.414
53923SOL     OW63600   8.988  13.246   3.862
53923SOL    HW163601   9.051  13.291   3.805
53923SOL    HW263602   9.005  13.281   3.949
53924SOL     OW63603   8.883   3.540  11.842
53924SOL    HW163604   8.805   3.499  11.879
53924SOL    HW263605   8.899   3.615  11.899
53925SOL     OW63606   3.938   3.229  14.659
53925SOL    HW163607   3.980   3.196  14.580
53925SOL    HW263608   3.908   3.317  14.636
53926SOL     OW63609  11.214   5.810   3.950
53926SOL    HW163610  11.252   5.817   4.037
53926SOL    HW263611  11.188   5.719   3.942
53927SOL     OW63612   2.160  13.607   2.666
53927SOL    HW163613   2.201  13.671   2.608
53927SOL    HW263614   2.073  13.645   2.685
53928SOL     OW63615   3.002  14.450   5.087
53928SOL    HW163616   2.994  14.530   5.138
53928SOL    HW263617   3.037  14.478   5.003
53929SOL     OW63618   3.984   0.192   7.288
53929SOL    HW163619   3.903   0.210   7.335
53929SOL    HW263620   4.053   0.220   7.348
53930SOL     OW63621  13.066  10.964  11.292
53930SOL    HW163622  13.066  10.957  11.197
53930SOL    HW263623  13.086  11.056  11.310
53931SOL     OW63624   5.640   5.404   8.344
53931SOL    HW163625   5.636   5.347   8.267
53931SOL    HW263626   5.673   5.487   8.310
53932SOL     OW63627  13.885   7.474  11.169
53932SOL    HW163628  13.886   7.399  11.228
53932SOL    HW263629  13.911   7.548  11.223
53933SOL     OW63630   3.012   0.791   3.614
53933SOL    HW163631   3.040   0.726   3.679
53933SOL    HW263632   2.929   0.825   3.648
53934SOL     OW63633  13.601   7.870   0.996
53934SOL    HW163634  13.579   7.823   1.076
53934SOL    HW263635  13.517   7.879   0.950
53935SOL     OW63636   0.319   7.484   7.311
53935SOL    HW163637   0.385   7.482   7.242
53935SOL    HW263638   0.236   7.465   7.266
53936SOL     OW63639   0.895   0.479   1.918
53936SOL    HW163640   0.917   0.425   1.993
53936SOL    HW263641   0.962   0.547   1.917
53937SOL     OW63642   5.282  11.449   3.351
53937SOL    HW163643   5.196  11.412   3.332
53937SOL    HW263644   5.264  11.523   3.409
53938SOL     OW63645  13.502   3.194   0.942
53938SOL    HW163646  13.480   3.232   1.027
53938SOL    HW263647  13.428   3.136   0.922
53939SOL     OW63648  12.446  14.845   6.451
53939SOL    HW163649  12.511  14.825   6.517
53939SOL    HW263650  12.418   0.053   6.471
53940SOL     OW63651   2.455   0.360   1.020
53940SOL    HW163652   2.513   0.422   0.977
53940SOL    HW263653   2.513   0.292   1.054
53941SOL     OW63654  10.483  14.680   9.691
53941SOL    HW163655  10.393  14.682   9.725
53941SOL    HW263656  10.515  14.769   9.704
53942SOL     OW63657  11.709   4.585  12.196
53942SOL    HW163658  11.771   4.514  12.182
53942SOL    HW263659  11.626   4.542  12.216
53943SOL     OW63660   6.981   9.481  14.266
53943SOL    HW163661   6.923   9.557  14.256
53943SOL    HW263662   6.941   9.430  14.337
53944SOL     OW63663   9.281   4.475   8.934
53944SOL    HW163664   9.360   4.502   8.982
53944SOL    HW263665   9.308   4.396   8.888
53945SOL     OW63666   8.571   3.808   9.914
53945SOL    HW163667   8.594   3.889   9.961
53945SOL    HW263668   8.647   3.750   9.927
53946SOL     OW63669   9.836   3.218  12.707
53946SOL    HW163670   9.801   3.167  12.634
53946SOL    HW263671   9.813   3.309  12.685
53947SOL     OW63672  12.190   6.761   7.751
53947SOL    HW163673  12.144   6.706   7.688
53947SOL    HW263674  12.281   6.759   7.722
53948SOL     OW63675   6.757   0.670  14.572
53948SOL    HW163676   6.843   0.703  14.596
53948SOL    HW263677   6.742   0.705  14.484
53949SOL     OW63678   7.440   2.294  11.317
53949SOL    HW163679   7.513   2.281  11.257
53949SOL    HW263680   7.476   2.276  11.404
53950SOL     OW63681  12.101   2.205   6.969
53950SOL    HW163682  12.147   2.251   7.039
53950SOL    HW263683  12.130   2.114   6.978
53951SOL     OW63684   1.533  12.308   6.524
53951SOL    HW163685   1.575  12.235   6.570
53951SOL    HW263686   1.598  12.379   6.528
53952SOL     OW63687  10.563   6.680   9.854
53952SOL    HW163688  10.595   6.590   9.850
53952SOL    HW263689  10.541   6.694   9.947
53953SOL     OW63690   8.646   4.581   8.105
53953SOL    HW163691   8.659   4.487   8.117
53953SOL    HW263692   8.611   4.589   8.016
53954SOL     OW63693   2.619   3.245   5.453
53954SOL    HW163694   2.636   3.249   5.359
53954SOL    HW263695   2.538   3.295   5.465
53955SOL     OW63696  14.587  13.781   6.373
53955SOL    HW163697  14.588  13.693   6.335
53955SOL    HW263698  14.508  13.782   6.428
53956SOL     OW63699   0.303   3.040   1.241
53956SOL    HW163700   0.366   3.106   1.213
53956SOL    HW263701   0.356   2.963   1.261
53957SOL     OW63702   9.862   7.480  12.984
53957SOL    HW163703   9.933   7.543  12.996
53957SOL    HW263704   9.894   7.399  13.024
53958SOL     OW63705  13.949   2.766   3.956
53958SOL    HW163706  13.874   2.778   3.898
53958SOL    HW263707  13.969   2.673   3.949
53959SOL     OW63708  13.355   0.419   6.786
53959SOL    HW163709  13.262   0.431   6.767
53959SOL    HW263710  13.359   0.335   6.833
53960SOL     OW63711  12.948   2.815   2.605
53960SOL    HW163712  13.036   2.839   2.634
53960SOL    HW263713  12.896   2.894   2.619
53961SOL     OW63714  13.834   5.995  12.264
53961SOL    HW163715  13.823   5.997  12.360
53961SOL    HW263716  13.784   6.071  12.233
53962SOL     OW63717   6.001  13.466   8.711
53962SOL    HW163718   5.967  13.383   8.744
53962SOL    HW263719   6.067  13.492   8.775
53963SOL     OW63720  11.804  11.375   8.746
53963SOL    HW163721  11.844  11.462   8.752
53963SOL    HW263722  11.716  11.387   8.783
53964SOL     OW63723   7.919  14.373  13.662
53964SOL    HW163724   7.890  14.282  13.657
53964SOL    HW263725   7.846  14.423  13.626
53965SOL     OW63726   3.665  12.282  12.997
53965SOL    HW163727   3.618  12.205  13.030
53965SOL    HW263728   3.740  12.291  13.055
53966SOL     OW63729   9.288   4.706  10.622
53966SOL    HW163730   9.379   4.725  10.597
53966SOL    HW263731   9.243   4.790  10.616
53967SOL     OW63732   7.226  13.821   5.616
53967SOL    HW163733   7.163  13.816   5.688
53967SOL    HW263734   7.182  13.875   5.550
53968SOL     OW63735   3.174  13.948   8.094
53968SOL    HW163736   3.175  13.860   8.132
53968SOL    HW263737   3.262  13.959   8.057
53969SOL     OW63738  14.117  11.359  12.861
53969SOL    HW163739  14.194  11.381  12.808
53969SOL    HW263740  14.095  11.440  12.907
53970SOL     OW63741  13.710   4.727  13.475
53970SOL    HW163742  13.751   4.752  13.392
53970SOL    HW263743  13.738   4.795  13.537
53971SOL     OW63744  12.432   8.586   7.885
53971SOL    HW163745  12.391   8.638   7.954
53971SOL    HW263746  12.387   8.614   7.805
53972SOL     OW63747  12.424   4.250  11.953
53972SOL    HW163748  12.470   4.332  11.934
53972SOL    HW263749  12.375   4.268  12.034
53973SOL     OW63750   3.331   2.244   0.592
53973SOL    HW163751   3.398   2.313   0.589
53973SOL    HW263752   3.294   2.251   0.679
53974SOL     OW63753   0.224  10.835   1.983
53974SOL    HW163754   0.215  10.888   1.904
53974SOL    HW263755   0.288  10.881   2.036
53975SOL     OW63756   6.789  11.710  12.131
53975SOL    HW163757   6.846  11.660  12.073
53975SOL    HW263758   6.710  11.657  12.139
53976SOL     OW63759   2.649   6.245  14.433
53976SOL    HW163760   2.651   6.170  14.492
53976SOL    HW263761   2.727   6.235  14.378
53977SOL     OW63762   0.199  10.906  11.526
53977SOL    HW163763   0.283  10.921  11.482
53977SOL    HW263764   0.146  10.860  11.462
53978SOL     OW63765  14.819  10.396   8.832
53978SOL    HW163766  14.785  10.388   8.743
53978SOL    HW263767  14.783  10.321   8.879
53979SOL     OW63768   6.432   3.888   3.835
53979SOL    HW163769   6.512   3.842   3.862
53979SOL    HW263770   6.442   3.976   3.872
53980SOL     OW63771  10.079   6.471   6.695
53980SOL    HW163772  10.067   6.558   6.734
53980SOL    HW263773  10.107   6.416   6.768
53981SOL     OW63774   4.886  12.604   9.151
53981SOL    HW163775   4.930  12.531   9.108
53981SOL    HW263776   4.937  12.619   9.231
53982SOL     OW63777   6.159  12.086   3.748
53982SOL    HW163778   6.150  12.070   3.654
53982SOL    HW263779   6.251  12.066   3.767
53983SOL     OW63780  12.862  12.703   6.014
53983SOL    HW163781  12.867  12.620   5.967
53983SOL    HW263782  12.821  12.764   5.952
53984SOL     OW63783   1.944   8.934  10.265
53984SOL    HW163784   2.037   8.919  10.282
53984SOL    HW263785   1.942   8.977  10.179
53985SOL     OW63786   4.991   1.425   7.068
53985SOL    HW163787   4.957   1.396   7.153
53985SOL    HW263788   4.935   1.499   7.045
53986SOL     OW63789  14.135  12.476  10.521
53986SOL    HW163790  14.196  12.549  10.522
53986SOL    HW263791  14.061  12.505  10.575
53987SOL     OW63792  10.916  14.102   8.028
53987SOL    HW163793  10.894  14.017   7.990
53987SOL    HW263794  10.912  14.163   7.954
53988SOL     OW63795   2.572   7.212   4.766
53988SOL    HW163796   2.546   7.166   4.846
53988SOL    HW263797   2.535   7.300   4.775
53989SOL     OW63798   5.184   0.055  12.115
53989SOL    HW163799   5.153   0.005  12.039
53989SOL    HW263800   5.279   0.049  12.110
53990SOL     OW63801   8.560   2.847   0.365
53990SOL    HW163802   8.535   2.775   0.307
53990SOL    HW263803   8.593   2.803   0.444
53991SOL     OW63804  14.133   4.149   2.456
53991SOL    HW163805  14.048   4.187   2.477
53991SOL    HW263806  14.116   4.055   2.448
53992SOL     OW63807   3.278  13.175   5.061
53992SOL    HW163808   3.187  13.201   5.044
53992SOL    HW263809   3.273  13.112   5.133
53993SOL     OW63810  14.094  11.434  10.647
53993SOL    HW163811  14.048  11.438  10.563
53993SOL    HW263812  14.024  11.426  10.712
53994SOL     OW63813  13.473   3.063  13.402
53994SOL    HW163814  13.428   3.135  13.357
53994SOL    HW263815  13.451   3.076  13.494
53995SOL     OW63816   9.314   0.300   4.942
53995SOL    HW163817   9.223   0.306   4.971
53995SOL    HW263818   9.345   0.390   4.941
53996SOL     OW63819   7.949   2.307   9.072
53996SOL    HW163820   7.953   2.354   9.155
53996SOL    HW263821   7.857   2.279   9.064
53997SOL     OW63822  10.471   5.796  13.696
53997SOL    HW163823  10.406   5.843  13.748
53997SOL    HW263824  10.555   5.829  13.729
53998SOL     OW63825   2.670  11.946   9.107
53998SOL    HW163826   2.605  12.003   9.067
53998SOL    HW263827   2.695  11.886   9.037
53999SOL     OW63828  12.918   4.114  11.134
53999SOL    HW163829  12.973   4.047  11.094
53999SOL    HW263830  12.830   4.075  11.138
54000SOL     OW63831  14.409   1.238   6.559
54000SOL    HW163832  14.377   1.155   6.595
54000SOL    HW263833  14.444   1.285   6.634
54001SOL     OW63834   4.535   1.925   2.535
54001SOL    HW163835   4.480   1.852   2.565
54001SOL    HW263836   4.478   1.975   2.476
54002SOL     OW63837   4.849   1.446   2.708
54002SOL    HW163838   4.939   1.427   2.681
54002SOL    HW263839   4.803   1.363   2.702
54003SOL     OW63840  11.826   1.883   3.844
54003SOL    HW163841  11.788   1.795   3.844
54003SOL    HW263842  11.881   1.886   3.766
54004SOL     OW63843   9.222  10.677   6.524
54004SOL    HW163844   9.263  10.759   6.552
54004SOL    HW263845   9.248  10.613   6.591
54005SOL     OW63846  12.653  11.000  11.221
54005SOL    HW163847  12.585  11.063  11.195
54005SOL    HW263848  12.609  10.915  11.216
54006SOL     OW63849   3.825   7.310  14.043
54006SOL    HW163850   3.876   7.391  14.044
54006SOL    HW263851   3.814   7.290  13.950
54007SOL     OW63852   8.141   0.514   7.636
54007SOL    HW163853   8.055   0.554   7.630
54007SOL    HW263854   8.123   0.422   7.655
54008SOL     OW63855  11.282   4.328  14.533
54008SOL    HW163856  11.234   4.294  14.457
54008SOL    HW263857  11.305   4.249  14.583
54009SOL     OW63858   8.055   9.725  13.045
54009SOL    HW163859   8.015   9.755  13.127
54009SOL    HW263860   7.985   9.735  12.980
54010SOL     OW63861   2.297  12.534   6.560
54010SOL    HW163862   2.240  12.532   6.483
54010SOL    HW263863   2.298  12.627   6.586
54011SOL     OW63864   4.210   2.258   8.479
54011SOL    HW163865   4.291   2.212   8.501
54011SOL    HW263866   4.161   2.261   8.561
54012SOL     OW63867   8.517   6.650  13.337
54012SOL    HW163868   8.458   6.652  13.261
54012SOL    HW263869   8.522   6.741  13.365
54013SOL     OW63870  14.606   9.229   9.242
54013SOL    HW163871  14.580   9.226   9.334
54013SOL    HW263872  14.685   9.282   9.241
54014SOL     OW63873  11.305   9.730   0.183
54014SOL    HW163874  11.305   9.781   0.265
54014SOL    HW263875  11.383   9.760   0.136
54015SOL     OW63876  11.715  11.456   0.635
54015SOL    HW163877  11.710  11.420   0.547
54015SOL    HW263878  11.809  11.456   0.656
54016SOL     OW63879  11.139   8.871  14.816
54016SOL    HW163880  11.110   8.790  14.776
54016SOL    HW263881  11.195   8.844   0.006
54017SOL     OW63882  14.027   8.423   1.748
54017SOL    HW163883  13.938   8.456   1.762
54017SOL    HW263884  14.078   8.501   1.726
54018SOL     OW63885   7.910   8.238  10.182
54018SOL    HW163886   7.977   8.186  10.227
54018SOL    HW263887   7.854   8.271  10.252
54019SOL     OW63888  13.394   9.704   8.017
54019SOL    HW163889  13.390   9.786   8.065
54019SOL    HW263890  13.340   9.718   7.940
54020SOL     OW63891  11.272  13.580   3.013
54020SOL    HW163892  11.223  13.522   2.954
54020SOL    HW263893  11.310  13.520   3.077
54021SOL     OW63894   8.753   3.980   2.922
54021SOL    HW163895   8.756   3.924   2.844
54021SOL    HW263896   8.841   3.971   2.960
54022SOL     OW63897   1.866   2.979   4.618
54022SOL    HW163898   1.925   3.024   4.679
54022SOL    HW263899   1.860   2.890   4.652
54023SOL     OW63900  12.309   5.920   7.418
54023SOL    HW163901  12.343   5.930   7.507
54023SOL    HW263902  12.380   5.948   7.361
54024SOL     OW63903   2.134   1.226  14.125
54024SOL    HW163904   2.133   1.245  14.218
54024SOL    HW263905   2.113   1.133  14.119
54025SOL     OW63906  12.315  12.126  14.730
54025SOL    HW163907  12.271  12.133  14.645
54025SOL    HW263908  12.309  12.214  14.767
54026SOL     OW63909  11.210  13.542   3.881
54026SOL    HW163910  11.129  13.493   3.868
54026SOL    HW263911  11.205  13.573   3.971
54027SOL     OW63912   9.169  13.414   8.573
54027SOL    HW163913   9.162  13.337   8.628
54027SOL    HW263914   9.205  13.382   8.490
54028SOL     OW63915   5.261  13.889   2.584
54028SOL    HW163916   5.332  13.951   2.602
54028SOL    HW263917   5.306  13.807   2.561
54029SOL     OW63918  12.989   4.589   0.303
54029SOL    HW163919  12.980   4.594   0.398
54029SOL    HW263920  12.986   4.496   0.283
54030SOL     OW63921  13.513  13.689   0.905
54030SOL    HW163922  13.470  13.774   0.900
54030SOL    HW263923  13.593  13.698   0.854
54031SOL     OW63924   3.966  12.446  13.425
54031SOL    HW163925   4.060  12.429  13.423
54031SOL    HW263926   3.932  12.383  13.489
54032SOL     OW63927  11.180  11.127   5.676
54032SOL    HW163928  11.090  11.157   5.680
54032SOL    HW263929  11.208  11.145   5.586
54033SOL     OW63930   0.685  13.900   1.191
54033SOL    HW163931   0.615  13.851   1.234
54033SOL    HW263932   0.678  13.989   1.227
54034SOL     OW63933  12.989  12.706  10.685
54034SOL    HW163934  12.971  12.663  10.602
54034SOL    HW263935  13.074  12.747  10.672
54035SOL     OW63936   9.897   3.552  13.235
54035SOL    HW163937   9.916   3.557  13.141
54035SOL    HW263938   9.813   3.507  13.240
54036SOL     OW63939   6.357  14.012   5.508
54036SOL    HW163940   6.383  13.966   5.588
54036SOL    HW263941   6.276  14.057   5.532
54037SOL     OW63942   6.753  10.830   3.989
54037SOL    HW163943   6.784  10.742   4.008
54037SOL    HW263944   6.672  10.817   3.939
54038SOL     OW63945  13.171   4.618   6.775
54038SOL    HW163946  13.196   4.677   6.704
54038SOL    HW263947  13.183   4.670   6.855
54039SOL     OW63948   5.271   7.614   2.971
54039SOL    HW163949   5.345   7.576   3.019
54039SOL    HW263950   5.305   7.627   2.882
54040SOL     OW63951  12.104  14.437  10.485
54040SOL    HW163952  12.108  14.394  10.570
54040SOL    HW263953  12.015  14.421  10.454
54041SOL     OW63954   0.142   1.345  13.016
54041SOL    HW163955   0.188   1.389  13.088
54041SOL    HW263956   0.138   1.253  13.042
54042SOL     OW63957  11.302   4.261   0.219
54042SOL    HW163958  11.207   4.264   0.230
54042SOL    HW263959  11.320   4.174   0.182
54043SOL     OW63960   0.080   8.252   3.877
54043SOL    HW163961   0.065   8.308   3.953
54043SOL    HW263962   0.042   8.167   3.901
54044SOL     OW63963  14.662   4.049   2.404
54044SOL    HW163964  14.620   4.134   2.386
54044SOL    HW263965  14.741   4.071   2.453
54045SOL     OW63966   9.283   8.846   3.906
54045SOL    HW163967   9.256   8.847   3.814
54045SOL    HW263968   9.238   8.770   3.944
54046SOL     OW63969  11.309   7.960  10.959
54046SOL    HW163970  11.255   7.885  10.982
54046SOL    HW263971  11.253   8.015  10.905
54047SOL     OW63972   9.005  11.201   2.750
54047SOL    HW163973   8.992  11.139   2.678
54047SOL    HW263974   8.924  11.196   2.801
54048SOL     OW63975   1.070  13.705   1.088
54048SOL    HW163976   1.096  13.613   1.081
54048SOL    HW263977   0.977  13.705   1.064
54049SOL     OW63978   8.034   5.455  12.646
54049SOL    HW163979   8.127   5.440  12.666
54049SOL    HW263980   8.011   5.533  12.696
54050SOL     OW63981  11.111  14.868  10.629
54050SOL    HW163982  11.066  14.814  10.694
54050SOL    HW263983  11.163   0.048  10.681
54051SOL     OW63984   7.806   2.978  13.879
54051SOL    HW163985   7.713   2.972  13.861
54051SOL    HW263986   7.848   2.947  13.799
54052SOL     OW63987   5.054  14.648  12.362
54052SOL    HW163988   4.961  14.633  12.344
54052SOL    HW263989   5.064  14.743  12.359
54053SOL     OW63990   0.529  12.046   4.934
54053SOL    HW163991   0.535  12.080   4.845
54053SOL    HW263992   0.456  11.984   4.931
54054SOL     OW63993   1.896   8.690   8.979
54054SOL    HW163994   1.821   8.643   9.017
54054SOL    HW263995   1.950   8.713   9.055
54055SOL     OW63996  12.045   3.343   5.657
54055SOL    HW163997  12.009   3.299   5.580
54055SOL    HW263998  12.109   3.282   5.692
54056SOL     OW63999  12.622   0.719   3.433
54056SOL    HW164000  12.537   0.681   3.455
54056SOL    HW264001  12.660   0.658   3.369
54057SOL     OW64002   3.279  11.066   6.969
54057SOL    HW164003   3.298  11.050   6.877
54057SOL    HW264004   3.365  11.079   7.009
54058SOL     OW64005   3.666  10.183   5.707
54058SOL    HW164006   3.741  10.189   5.648
54058SOL    HW264007   3.600  10.240   5.666
54059SOL     OW64008   3.402   2.370  12.313
54059SOL    HW164009   3.456   2.299  12.350
54059SOL    HW264010   3.364   2.414  12.389
54060SOL     OW64011   9.843   6.232   6.925
54060SOL    HW164012   9.764   6.274   6.891
54060SOL    HW264013   9.853   6.268   7.013
54061SOL     OW64014   0.828  13.775   0.698
54061SOL    HW164015   0.765  13.846   0.698
54061SOL    HW264016   0.901  13.806   0.752
54062SOL     OW64017   7.703   2.311  11.254
54062SOL    HW164018   7.743   2.253  11.319
54062SOL    HW264019   7.701   2.259  11.174
54063SOL     OW64020   7.766   3.212   9.936
54063SOL    HW164021   7.719   3.253   9.863
54063SOL    HW264022   7.802   3.286   9.986
54064SOL     OW64023  11.028  11.232   8.587
54064SOL    HW164024  11.012  11.137   8.586
54064SOL    HW264025  11.085  11.248   8.512
54065SOL     OW64026   5.351  11.472   5.158
54065SOL    HW164027   5.311  11.515   5.233
54065SOL    HW264028   5.278  11.435   5.110
54066SOL     OW64029   5.716  10.658   8.571
54066SOL    HW164030   5.666  10.619   8.643
54066SOL    HW264031   5.674  10.626   8.492
54067SOL     OW64032  14.500   0.686   7.874
54067SOL    HW164033  14.575   0.652   7.825
54067SOL    HW264034  14.539   0.720   7.956
54068SOL     OW64035   9.406   7.614  10.805
54068SOL    HW164036   9.451   7.555  10.744
54068SOL    HW264037   9.454   7.604  10.887
54069SOL     OW64038   0.337   0.970  12.193
54069SOL    HW164039   0.355   0.927  12.109
54069SOL    HW264040   0.309   1.058  12.170
54070SOL     OW64041   5.654  14.611   8.574
54070SOL    HW164042   5.615  14.584   8.657
54070SOL    HW264043   5.733  14.658   8.599
54071SOL     OW64044   2.463   9.517   4.239
54071SOL    HW164045   2.538   9.551   4.288
54071SOL    HW264046   2.420   9.595   4.204
54072SOL     OW64047   3.193  11.396   4.347
54072SOL    HW164048   3.175  11.345   4.426
54072SOL    HW264049   3.172  11.336   4.275
54073SOL     OW64050  11.795   4.328   8.449
54073SOL    HW164051  11.736   4.253   8.444
54073SOL    HW264052  11.753   4.395   8.395
54074SOL     OW64053   2.627  11.728   8.953
54074SOL    HW164054   2.571  11.725   8.875
54074SOL    HW264055   2.709  11.687   8.924
54075SOL     OW64056  14.328   8.428   4.263
54075SOL    HW164057  14.265   8.393   4.325
54075SOL    HW264058  14.297   8.399   4.177
54076SOL     OW64059  14.457   8.874  10.342
54076SOL    HW164060  14.522   8.871  10.272
54076SOL    HW264061  14.388   8.930  10.308
54077SOL     OW64062   4.077   3.183   7.631
54077SOL    HW164063   4.128   3.243   7.686
54077SOL    HW264064   4.135   3.109   7.617
54078SOL     OW64065  10.416  12.610   3.989
54078SOL    HW164066  10.466  12.680   3.946
54078SOL    HW264067  10.436  12.532   3.937
54079SOL     OW64068   3.324   9.334   8.355
54079SOL    HW164069   3.271   9.344   8.276
54079SOL    HW264070   3.290   9.400   8.415
54080SOL     OW64071  12.641   9.083   8.635
54080SOL    HW164072  12.692   9.152   8.592
54080SOL    HW264073  12.550   9.107   8.619
54081SOL     OW64074   9.207   1.979  13.066
54081SOL    HW164075   9.201   2.024  13.150
54081SOL    HW264076   9.244   2.044  13.007
54082SOL     OW64077   8.695   7.070  14.002
54082SOL    HW164078   8.717   7.084  13.910
54082SOL    HW264079   8.757   7.003  14.031
54083SOL     OW64080  10.980  13.476   7.096
54083SOL    HW164081  11.068  13.443   7.113
54083SOL    HW264082  10.925  13.432   7.161
54084SOL     OW64083   6.488  12.536   0.640
54084SOL    HW164084   6.582  12.551   0.639
54084SOL    HW264085   6.476  12.458   0.695
54085SOL     OW64086  11.284  13.782   5.818
54085SOL    HW164087  11.312  13.874   5.828
54085SOL    HW264088  11.200  13.778   5.862
54086SOL     OW64089   4.317   4.089   3.813
54086SOL    HW164090   4.237   4.036   3.806
54086SOL    HW264091   4.388   4.028   3.793
54087SOL     OW64092   5.774   1.265  13.380
54087SOL    HW164093   5.780   1.267  13.285
54087SOL    HW264094   5.769   1.171  13.402
54088SOL     OW64095   1.318   7.756   3.137
54088SOL    HW164096   1.270   7.833   3.167
54088SOL    HW264097   1.319   7.764   3.042
54089SOL     OW64098   3.519   3.327   9.829
54089SOL    HW164099   3.556   3.279   9.754
54089SOL    HW264100   3.441   3.278   9.853
54090SOL     OW64101  10.947   2.820   7.455
54090SOL    HW164102  10.880   2.775   7.404
54090SOL    HW264103  11.028   2.804   7.407
54091SOL     OW64104   2.375   5.658   4.336
54091SOL    HW164105   2.311   5.587   4.335
54091SOL    HW264106   2.435   5.635   4.407
54092SOL     OW64107  14.105   7.288   0.932
54092SOL    HW164108  14.045   7.360   0.953
54092SOL    HW264109  14.191   7.318   0.962
54093SOL     OW64110   5.915   8.089   0.034
54093SOL    HW164111   5.936   7.996   0.021
54093SOL    HW264112   5.865   8.091   0.115
54094SOL     OW64113   4.973   8.026  11.569
54094SOL    HW164114   4.880   8.039  11.553
54094SOL    HW264115   5.012   8.113  11.559
54095SOL     OW64116  13.053   7.428   5.171
54095SOL    HW164117  13.112   7.496   5.138
54095SOL    HW264118  12.970   7.444   5.126
54096SOL     OW64119  10.648  12.952   4.662
54096SOL    HW164120  10.742  12.965   4.654
54096SOL    HW264121  10.621  13.008   4.735
54097SOL     OW64122  12.114   7.777  11.175
54097SOL    HW164123  12.166   7.711  11.129
54097SOL    HW264124  12.089   7.735  11.257
54098SOL     OW64125  12.351  12.129   6.461
54098SOL    HW164126  12.418  12.088   6.515
54098SOL    HW264127  12.377  12.221   6.455
54099SOL     OW64128   7.057   6.148   9.504
54099SOL    HW164129   6.973   6.137   9.460
54099SOL    HW264130   7.121   6.153   9.433
54100SOL     OW64131  11.298  12.986  10.286
54100SOL    HW164132  11.275  12.906  10.334
54100SOL    HW264133  11.389  13.002  10.308
54101SOL     OW64134   4.158   9.203   7.747
54101SOL    HW164135   4.099   9.271   7.714
54101SOL    HW264136   4.244   9.246   7.749
54102SOL     OW64137  11.140  13.879   1.038
54102SOL    HW164138  11.202  13.878   1.111
54102SOL    HW264139  11.174  13.945   0.978
54103SOL     OW64140   3.660  13.929   7.891
54103SOL    HW164141   3.640  13.842   7.856
54103SOL    HW264142   3.725  13.914   7.960
54104SOL     OW64143   1.939   1.636   0.564
54104SOL    HW164144   1.910   1.709   0.619
54104SOL    HW264145   1.859   1.591   0.540
54105SOL     OW64146   4.149   6.870   0.646
54105SOL    HW164147   4.114   6.786   0.676
54105SOL    HW264148   4.154   6.861   0.551
54106SOL     OW64149  14.831  11.112   9.452
54106SOL    HW164150  14.833  11.027   9.409
54106SOL    HW264151   0.004  11.168   9.398
54107SOL     OW64152   4.593   5.895  14.129
54107SOL    HW164153   4.652   5.835  14.083
54107SOL    HW264154   4.652   5.951  14.181
54108SOL     OW64155  11.285   4.947   0.052
54108SOL    HW164156  11.247   4.890   0.118
54108SOL    HW264157  11.290   4.893  14.855
54109SOL     OW64158  13.129   1.741   5.320
54109SOL    HW164159  13.220   1.748   5.349
54109SOL    HW264160  13.111   1.825   5.278
54110SOL     OW64161  13.645   0.939   4.012
54110SOL    HW164162  13.579   0.892   4.062
54110SOL    HW264163  13.602   1.020   3.986
54111SOL     OW64164   5.937   5.786   3.287
54111SOL    HW164165   5.900   5.763   3.372
54111SOL    HW264166   6.012   5.843   3.307
54112SOL     OW64167  10.104   7.307   8.129
54112SOL    HW164168  10.174   7.369   8.109
54112SOL    HW264169  10.024   7.354   8.106
54113SOL     OW64170  10.931   2.369   2.680
54113SOL    HW164171  10.966   2.380   2.768
54113SOL    HW264172  10.899   2.279   2.678
54114SOL     OW64173   4.789  13.317   2.402
54114SOL    HW164174   4.723  13.350   2.463
54114SOL    HW264175   4.871  13.358   2.429
54115SOL     OW64176   4.556   8.416   1.066
54115SOL    HW164177   4.633   8.468   1.043
54115SOL    HW264178   4.556   8.413   1.161
54116SOL     OW64179   1.516  14.167  14.252
54116SOL    HW164180   1.568  14.174  14.172
54116SOL    HW264181   1.431  14.202  14.227
54117SOL     OW64182  14.101   7.612   1.920
54117SOL    HW164183  14.036   7.544   1.904
54117SOL    HW264184  14.051   7.692   1.928
54118SOL     OW64185   3.041   1.792   1.784
54118SOL    HW164186   3.072   1.777   1.695
54118SOL    HW264187   3.015   1.705   1.814
54119SOL     OW64188   0.942   1.238   6.802
54119SOL    HW164189   0.873   1.300   6.827
54119SOL    HW264190   0.900   1.179   6.740
54120SOL     OW64191   1.196   7.526   4.377
54120SOL    HW164192   1.210   7.449   4.433
54120SOL    HW264193   1.267   7.586   4.400
54121SOL     OW64194   5.517  12.995   2.447
54121SOL    HW164195   5.564  12.913   2.433
54121SOL    HW264196   5.526  13.013   2.540
54122SOL     OW64197   2.144   9.589  11.989
54122SOL    HW164198   2.205   9.544  11.930
54122SOL    HW264199   2.199   9.652  12.035
54123SOL     OW64200   5.697   2.807   6.422
54123SOL    HW164201   5.721   2.865   6.351
54123SOL    HW264202   5.778   2.791   6.470
54124SOL     OW64203   5.626   2.660   9.226
54124SOL    HW164204   5.605   2.628   9.138
54124SOL    HW264205   5.632   2.755   9.216
54125SOL     OW64206   5.476   9.237   4.792
54125SOL    HW164207   5.484   9.325   4.830
54125SOL    HW264208   5.550   9.188   4.829
54126SOL     OW64209  14.061   4.303   8.091
54126SOL    HW164210  14.036   4.218   8.055
54126SOL    HW264211  14.075   4.359   8.014
54127SOL     OW64212   5.461  11.087  10.234
54127SOL    HW164213   5.496  11.160  10.285
54127SOL    HW264214   5.471  11.115  10.143
54128SOL     OW64215  10.187   5.059  12.359
54128SOL    HW164216  10.188   5.154  12.356
54128SOL    HW264217  10.265   5.032  12.310
54129SOL     OW64218   4.732  11.102  14.485
54129SOL    HW164219   4.815  11.114  14.440
54129SOL    HW264220   4.726  11.177  14.545
54130SOL     OW64221   0.375  14.360  10.598
54130SOL    HW164222   0.395  14.278  10.552
54130SOL    HW264223   0.442  14.421  10.568
54131SOL     OW64224  13.959  11.015   4.610
54131SOL    HW164225  14.040  11.059   4.633
54131SOL    HW264226  13.981  10.962   4.534
54132SOL     OW64227  12.993  10.232   7.384
54132SOL    HW164228  12.946  10.295   7.330
54132SOL    HW264229  13.017  10.281   7.462
54133SOL     OW64230  11.836   7.789   4.882
54133SOL    HW164231  11.809   7.754   4.797
54133SOL    HW264232  11.810   7.721   4.945
54134SOL     OW64233   6.143   4.387  14.500
54134SOL    HW164234   6.185   4.445  14.436
54134SOL    HW264235   6.214   4.333  14.533
54135SOL     OW64236   6.625   4.466  12.495
54135SOL    HW164237   6.661   4.465  12.584
54135SOL    HW264238   6.586   4.553  12.486
54136SOL     OW64239   8.188   1.767   7.700
54136SOL    HW164240   8.148   1.853   7.686
54136SOL    HW264241   8.257   1.783   7.764
54137SOL     OW64242   3.131   4.857  14.161
54137SOL    HW164243   3.171   4.782  14.117
54137SOL    HW264244   3.044   4.827  14.185
54138SOL     OW64245   6.306   6.714   0.255
54138SOL    HW164246   6.218   6.677   0.264
54138SOL    HW264247   6.364   6.639   0.263
54139SOL     OW64248   2.675  13.697   7.723
54139SOL    HW164249   2.655  13.779   7.767
54139SOL    HW264250   2.769  13.684   7.737
54140SOL     OW64251  14.238   7.030  14.062
54140SOL    HW164252  14.256   7.107  14.009
54140SOL    HW264253  14.277   7.051  14.148
54141SOL     OW64254   6.428  12.275  11.014
54141SOL    HW164255   6.469  12.205  11.065
54141SOL    HW264256   6.339  12.280  11.048
54142SOL     OW64257   1.923  10.366   7.338
54142SOL    HW164258   1.869  10.291   7.312
54142SOL    HW264259   1.981  10.380   7.263
54143SOL     OW64260   9.780   3.437   7.772
54143SOL    HW164261   9.806   3.529   7.767
54143SOL    HW264262   9.771   3.419   7.866
54144SOL     OW64263   1.453   7.813  12.256
54144SOL    HW164264   1.440   7.875  12.328
54144SOL    HW264265   1.401   7.849  12.184
54145SOL     OW64266   0.301  14.613   2.056
54145SOL    HW164267   0.314  14.540   2.118
54145SOL    HW264268   0.341  14.582   1.975
54146SOL     OW64269   1.261   3.483   2.093
54146SOL    HW164270   1.317   3.530   2.032
54146SOL    HW264271   1.220   3.551   2.146
54147SOL     OW64272  10.825  10.408  13.922
54147SOL    HW164273  10.847  10.418  13.830
54147SOL    HW264274  10.866  10.483  13.965
54148SOL     OW64275   6.878   5.393  10.617
54148SOL    HW164276   6.964   5.434  10.607
54148SOL    HW264277   6.874   5.329  10.546
54149SOL     OW64278   2.413  12.888  12.259
54149SOL    HW164279   2.392  12.877  12.351
54149SOL    HW264280   2.357  12.825  12.214
54150SOL     OW64281   1.649   6.983   9.574
54150SOL    HW164282   1.603   6.901   9.554
54150SOL    HW264283   1.689   7.009   9.491
54151SOL     OW64284   2.484   2.865   9.924
54151SOL    HW164285   2.505   2.786   9.974
54151SOL    HW264286   2.561   2.921   9.933
54152SOL     OW64287   7.831   5.786  11.234
54152SOL    HW164288   7.812   5.845  11.308
54152SOL    HW264289   7.913   5.819  11.198
54153SOL     OW64290   0.430   4.504   9.680
54153SOL    HW164291   0.400   4.594   9.672
54153SOL    HW264292   0.480   4.488   9.599
54154SOL     OW64293   9.893   0.849   4.326
54154SOL    HW164294   9.854   0.770   4.364
54154SOL    HW264295   9.944   0.816   4.252
54155SOL     OW64296  13.438  10.601   7.917
54155SOL    HW164297  13.393  10.530   7.963
54155SOL    HW264298  13.488  10.646   7.985
54156SOL     OW64299   1.059  12.650   2.619
54156SOL    HW164300   1.133  12.696   2.658
54156SOL    HW264301   1.014  12.610   2.694
54157SOL     OW64302  12.808   5.328   8.512
54157SOL    HW164303  12.867   5.287   8.448
54157SOL    HW264304  12.721   5.294   8.490
54158SOL     OW64305   2.411   0.952  13.140
54158SOL    HW164306   2.346   0.981  13.203
54158SOL    HW264307   2.473   1.024  13.134
54159SOL     OW64308  13.816  10.795  13.722
54159SOL    HW164309  13.743  10.851  13.697
54159SOL    HW264310  13.847  10.758  13.639
54160SOL     OW64311   0.752   9.385   8.636
54160SOL    HW164312   0.690   9.382   8.709
54160SOL    HW264313   0.722   9.317   8.575
54161SOL     OW64314  12.638   2.992   0.369
54161SOL    HW164315  12.664   3.083   0.359
54161SOL    HW264316  12.707   2.942   0.324
54162SOL     OW64317   3.484  13.042   1.962
54162SOL    HW164318   3.462  13.132   1.939
54162SOL    HW264319   3.542  13.012   1.892
54163SOL     OW64320   3.878   6.728   3.889
54163SOL    HW164321   3.879   6.716   3.984
54163SOL    HW264322   3.876   6.639   3.853
54164SOL     OW64323   6.995   7.086   1.202
54164SOL    HW164324   6.993   7.022   1.130
54164SOL    HW264325   7.028   7.036   1.277
54165SOL     OW64326  11.268   0.393   1.889
54165SOL    HW164327  11.186   0.346   1.906
54165SOL    HW264328  11.257   0.476   1.937
54166SOL     OW64329   1.028   1.145  10.059
54166SOL    HW164330   1.024   1.051  10.077
54166SOL    HW264331   1.090   1.152   9.987
54167SOL     OW64332   6.042   9.158   5.638
54167SOL    HW164333   6.116   9.118   5.685
54167SOL    HW264334   5.975   9.170   5.705
54168SOL     OW64335  13.787   3.784   8.185
54168SOL    HW164336  13.715   3.775   8.248
54168SOL    HW264337  13.866   3.778   8.239
54169SOL     OW64338  11.780   8.692   3.628
54169SOL    HW164339  11.708   8.753   3.645
54169SOL    HW264340  11.857   8.747   3.618
54170SOL     OW64341  13.504   0.823   8.772
54170SOL    HW164342  13.558   0.804   8.696
54170SOL    HW264343  13.420   0.781   8.753
54171SOL     OW64344   4.005  14.699   1.188
54171SOL    HW164345   3.946  14.624   1.189
54171SOL    HW264346   4.073  14.674   1.125
54172SOL     OW64347   7.889   0.640   7.598
54172SOL    HW164348   7.795   0.629   7.605
54172SOL    HW264349   7.905   0.732   7.621
54173SOL     OW64350   1.464  13.138   9.704
54173SOL    HW164351   1.449  13.230   9.683
54173SOL    HW264352   1.382  13.094   9.681
54174SOL     OW64353   1.796   3.941   4.650
54174SOL    HW164354   1.793   3.923   4.556
54174SOL    HW264355   1.788   3.855   4.691
54175SOL     OW64356   0.841   2.864   3.748
54175SOL    HW164357   0.818   2.881   3.840
54175SOL    HW264358   0.906   2.932   3.728
54176SOL     OW64359   8.754   2.630   1.628
54176SOL    HW164360   8.755   2.563   1.695
54176SOL    HW264361   8.756   2.582   1.545
54177SOL     OW64362   7.102  11.552   6.454
54177SOL    HW164363   7.190  11.572   6.423
54177SOL    HW264364   7.063  11.637   6.474
54178SOL     OW64365   8.927  11.581   5.226
54178SOL    HW164366   8.983  11.654   5.200
54178SOL    HW264367   8.841  11.622   5.239
54179SOL     OW64368   9.465   8.504  13.683
54179SOL    HW164369   9.539   8.538  13.632
54179SOL    HW264370   9.403   8.577  13.686
54180SOL     OW64371   4.831   8.891   9.347
54180SOL    HW164372   4.787   8.806   9.345
54180SOL    HW264373   4.823   8.919   9.438
54181SOL     OW64374   8.147   3.931   0.950
54181SOL    HW164375   8.168   3.988   1.024
54181SOL    HW264376   8.229   3.886   0.931
54182SOL     OW64377   1.926   4.285   6.989
54182SOL    HW164378   1.853   4.333   6.950
54182SOL    HW264379   1.909   4.193   6.968
54183SOL     OW64380  14.317  11.816   7.979
54183SOL    HW164381  14.254  11.877   8.017
54183SOL    HW264382  14.359  11.775   8.054
54184SOL     OW64383   7.854   1.975   9.187
54184SOL    HW164384   7.804   2.044   9.231
54184SOL    HW264385   7.788   1.912   9.159
54185SOL     OW64386   0.179   8.086   2.174
54185SOL    HW164387   0.204   8.023   2.242
54185SOL    HW264388   0.243   8.157   2.182
54186SOL     OW64389   8.674   7.482  13.681
54186SOL    HW164390   8.770   7.480  13.682
54186SOL    HW264391   8.651   7.543  13.751
54187SOL     OW64392   1.149   2.688   8.872
54187SOL    HW164393   1.191   2.774   8.878
54187SOL    HW264394   1.081   2.690   8.940
54188SOL     OW64395  14.239   1.845  13.552
54188SOL    HW164396  14.324   1.810  13.527
54188SOL    HW264397  14.211   1.897  13.476
54189SOL     OW64398  11.863   6.190   0.846
54189SOL    HW164399  11.832   6.114   0.896
54189SOL    HW264400  11.910   6.243   0.910
54190SOL     OW64401   7.723   2.369   2.564
54190SOL    HW164402   7.644   2.362   2.511
54190SOL    HW264403   7.792   2.394   2.502
54191SOL     OW64404   0.786   4.958  13.062
54191SOL    HW164405   0.716   4.941  13.126
54191SOL    HW264406   0.838   4.878  13.062
54192SOL     OW64407  10.863  12.537  12.607
54192SOL    HW164408  10.893  12.628  12.601
54192SOL    HW264409  10.844  12.524  12.700
54193SOL     OW64410   0.496   1.896   2.747
54193SOL    HW164411   0.556   1.956   2.791
54193SOL    HW264412   0.517   1.810   2.783
54194SOL     OW64413  11.998   1.943   5.073
54194SOL    HW164414  12.033   2.032   5.081
54194SOL    HW264415  11.971   1.936   4.981
54195SOL     OW64416   5.613   6.107   5.876
54195SOL    HW164417   5.541   6.061   5.832
54195SOL    HW264418   5.663   6.037   5.919
54196SOL     OW64419  14.086   1.059   0.127
54196SOL    HW164420  14.129   1.037   0.210
54196SOL    HW264421  14.046   0.977   0.098
54197SOL     OW64422  10.975  14.627   5.324
54197SOL    HW164423  10.975  14.668   5.237
54197SOL    HW264424  10.945  14.697   5.383
54198SOL     OW64425   3.515   5.521   5.380
54198SOL    HW164426   3.594   5.468   5.394
54198SOL    HW264427   3.499   5.514   5.285
54199SOL     OW64428   9.377   0.231   1.587
54199SOL    HW164429   9.462   0.209   1.549
54199SOL    HW264430   9.395   0.305   1.644
54200SOL     OW64431   9.930   1.192   8.042
54200SOL    HW164432   9.928   1.145   7.958
54200SOL    HW264433   9.998   1.258   8.030
54201SOL     OW64434   3.860  14.407   2.303
54201SOL    HW164435   3.842  14.319   2.270
54201SOL    HW264436   3.887  14.457   2.225
54202SOL     OW64437   6.320   9.255   6.971
54202SOL    HW164438   6.228   9.276   6.981
54202SOL    HW264439   6.330   9.170   7.014
54203SOL     OW64440   0.354  10.158  10.199
54203SOL    HW164441   0.436  10.179  10.155
54203SOL    HW264442   0.287  10.166  10.131
54204SOL     OW64443  12.730  12.757   4.884
54204SOL    HW164444  12.665  12.816   4.846
54204SOL    HW264445  12.801  12.753   4.820
54205SOL     OW64446   9.053   4.252   8.870
54205SOL    HW164447   9.117   4.276   8.804
54205SOL    HW264448   8.975   4.228   8.820
54206SOL     OW64449  11.852   1.760  11.064
54206SOL    HW164450  11.879   1.724  10.980
54206SOL    HW264451  11.884   1.850  11.063
54207SOL     OW64452  11.068   2.405   8.836
54207SOL    HW164453  11.107   2.367   8.757
54207SOL    HW264454  11.133   2.391   8.905
54208SOL     OW64455   6.910   5.710   8.043
54208SOL    HW164456   6.916   5.694   8.137
54208SOL    HW264457   6.977   5.653   8.005
54209SOL     OW64458   3.975  13.165  14.810
54209SOL    HW164459   3.913  13.236  14.825
54209SOL    HW264460   3.973  13.150  14.715
54210SOL     OW64461   3.771   6.975  14.746
54210SOL    HW164462   3.826   7.045  14.711
54210SOL    HW264463   3.782   6.902  14.685
54211SOL     OW64464   6.473   3.404   5.755
54211SOL    HW164465   6.457   3.443   5.841
54211SOL    HW264466   6.550   3.451   5.722
54212SOL     OW64467   5.491   3.747   6.887
54212SOL    HW164468   5.471   3.728   6.979
54212SOL    HW264469   5.410   3.730   6.840
54213SOL     OW64470   6.721   3.133   0.390
54213SOL    HW164471   6.647   3.185   0.359
54213SOL    HW264472   6.798   3.182   0.362
54214SOL     OW64473   0.863   0.722  12.831
54214SOL    HW164474   0.950   0.702  12.798
54214SOL    HW264475   0.817   0.760  12.756
54215SOL     OW64476   8.905   2.935  13.838
54215SOL    HW164477   8.989   2.895  13.861
54215SOL    HW264478   8.849   2.861  13.814
54216SOL     OW64479   6.989   8.001   3.858
54216SOL    HW164480   6.961   7.930   3.916
54216SOL    HW264481   7.029   7.957   3.783
54217SOL     OW64482   3.576   2.202  12.784
54217SOL    HW164483   3.625   2.285  12.788
54217SOL    HW264484   3.566   2.176  12.876
54218SOL     OW64485   1.858   8.703  12.349
54218SOL    HW164486   1.798   8.776  12.337
54218SOL    HW264487   1.934   8.740  12.394
54219SOL     OW64488  10.707   6.443  12.061
54219SOL    HW164489  10.787   6.401  12.030
54219SOL    HW264490  10.718   6.535  12.040
54220SOL     OW64491   8.104  13.211   0.191
54220SOL    HW164492   8.156  13.261   0.254
54220SOL    HW264493   8.014  13.239   0.207
54221SOL     OW64494   0.137   7.650   3.659
54221SOL    HW164495   0.085   7.615   3.587
54221SOL    HW264496   0.075   7.705   3.708
54222SOL     OW64497   1.587   1.494   4.502
54222SOL    HW164498   1.555   1.404   4.494
54222SOL    HW264499   1.676   1.492   4.467
54223SOL     OW64500   3.888   9.547   8.544
54223SOL    HW164501   3.847   9.467   8.510
54223SOL    HW264502   3.980   9.538   8.520
54224SOL     OW64503  10.381  10.626  10.622
54224SOL    HW164504  10.452  10.577  10.664
54224SOL    HW264505  10.424  10.701  10.581
54225SOL     OW64506   3.154   2.741   3.441
54225SOL    HW164507   3.066   2.706   3.426
54225SOL    HW264508   3.142   2.810   3.506
54226SOL     OW64509   3.681   4.361   1.663
54226SOL    HW164510   3.691   4.394   1.573
54226SOL    HW264511   3.768   4.368   1.701
54227SOL     OW64512  11.575   7.206  10.254
54227SOL    HW164513  11.556   7.230  10.163
54227SOL    HW264514  11.603   7.288  10.295
54228SOL     OW64515   4.670   4.225  11.075
54228SOL    HW164516   4.764   4.216  11.088
54228SOL    HW264517   4.657   4.208  10.981
54229SOL     OW64518   4.160   1.892  13.516
54229SOL    HW164519   4.081   1.931  13.553
54229SOL    HW264520   4.128   1.817  13.466
54230SOL     OW64521   2.418   4.283  10.046
54230SOL    HW164522   2.354   4.222  10.010
54230SOL    HW264523   2.439   4.342   9.974
54231SOL     OW64524  11.009   6.819   1.273
54231SOL    HW164525  11.062   6.764   1.331
54231SOL    HW264526  10.995   6.766   1.195
54232SOL     OW64527   5.330  10.988   6.900
54232SOL    HW164528   5.270  11.063   6.898
54232SOL    HW264529   5.373  10.988   6.815
54233SOL     OW64530   7.132  12.807   4.237
54233SOL    HW164531   7.216  12.803   4.191
54233SOL    HW264532   7.068  12.785   4.170
54234SOL     OW64533   5.942   1.146   3.013
54234SOL    HW164534   6.021   1.150   3.067
54234SOL    HW264535   5.889   1.219   3.045
54235SOL     OW64536   3.266   9.503   8.566
54235SOL    HW164537   3.243   9.596   8.574
54235SOL    HW264538   3.345   9.493   8.618
54236SOL     OW64539   5.554   1.448  13.389
54236SOL    HW164540   5.570   1.513  13.321
54236SOL    HW264541   5.632   1.392  13.388
54237SOL     OW64542   7.613   8.196   9.002
54237SOL    HW164543   7.585   8.108   9.025
54237SOL    HW264544   7.664   8.184   8.922
54238SOL     OW64545   7.894   3.813   4.018
54238SOL    HW164546   7.943   3.742   4.060
54238SOL    HW264547   7.908   3.889   4.076
54239SOL     OW64548   4.785   5.388   2.023
54239SOL    HW164549   4.879   5.404   2.028
54239SOL    HW264550   4.769   5.372   1.930
54240SOL     OW64551  12.096   3.809  11.152
54240SOL    HW164552  12.035   3.788  11.223
54240SOL    HW264553  12.067   3.754  11.079
54241SOL     OW64554  13.776   4.529   4.755
54241SOL    HW164555  13.854   4.501   4.706
54241SOL    HW264556  13.778   4.477   4.835
54242SOL     OW64557   6.118   8.199   6.652
54242SOL    HW164558   6.204   8.159   6.667
54242SOL    HW264559   6.064   8.128   6.618
54243SOL     OW64560   7.156   5.531   3.860
54243SOL    HW164561   7.088   5.546   3.924
54243SOL    HW264562   7.238   5.550   3.906
54244SOL     OW64563  11.473  12.796  11.228
54244SOL    HW164564  11.530  12.873  11.235
54244SOL    HW264565  11.431  12.805  11.143
54245SOL     OW64566   5.579   6.080  11.455
54245SOL    HW164567   5.620   6.003  11.414
54245SOL    HW264568   5.530   6.044  11.529
54246SOL     OW64569   7.860  11.091  11.769
54246SOL    HW164570   7.765  11.095  11.764
54246SOL    HW264571   7.885  11.029  11.700
54247SOL     OW64572  12.745  11.796   9.497
54247SOL    HW164573  12.738  11.795   9.402
54247SOL    HW264574  12.772  11.707   9.520
54248SOL     OW64575  12.198   3.142  11.137
54248SOL    HW164576  12.236   3.073  11.083
54248SOL    HW264577  12.269   3.166  11.197
54249SOL     OW64578   7.893   7.403  14.146
54249SOL    HW164579   7.949   7.429  14.220
54249SOL    HW264580   7.804   7.417  14.177
54250SOL     OW64581   6.349   9.593   1.713
54250SOL    HW164582   6.302   9.665   1.673
54250SOL    HW264583   6.439   9.602   1.682
54251SOL     OW64584   3.653   3.923  12.254
54251SOL    HW164585   3.615   3.915  12.166
54251SOL    HW264586   3.746   3.940  12.237
54252SOL     OW64587   9.739   4.546   2.921
54252SOL    HW164588   9.691   4.618   2.960
54252SOL    HW264589   9.692   4.526   2.840
54253SOL     OW64590   9.771   1.571   2.103
54253SOL    HW164591   9.709   1.561   2.031
54253SOL    HW264592   9.857   1.556   2.063
54254SOL     OW64593  11.659   3.480  11.268
54254SOL    HW164594  11.703   3.565  11.271
54254SOL    HW264595  11.567   3.501  11.259
54255SOL     OW64596   7.566   3.154   1.733
54255SOL    HW164597   7.587   3.226   1.674
54255SOL    HW264598   7.623   3.083   1.707
54256SOL     OW64599  11.450  14.878   9.918
54256SOL    HW164600  11.435  14.789   9.888
54256SOL    HW264601  11.396   0.005   9.997
54257SOL     OW64602   7.876  12.561   2.595
54257SOL    HW164603   7.832  12.643   2.574
54257SOL    HW264604   7.923  12.538   2.514
54258SOL     OW64605   0.441   2.205   2.758
54258SOL    HW164606   0.525   2.250   2.765
54258SOL    HW264607   0.460   2.115   2.785
54259SOL     OW64608   8.866   7.348   8.847
54259SOL    HW164609   8.872   7.309   8.935
54259SOL    HW264610   8.859   7.272   8.788
54260SOL     OW64611  12.067   5.964   4.126
54260SOL    HW164612  12.025   6.007   4.052
54260SOL    HW264613  12.160   5.982   4.114
54261SOL     OW64614   6.038   6.891   1.883
54261SOL    HW164615   6.099   6.832   1.928
54261SOL    HW264616   5.979   6.833   1.835
54262SOL     OW64617   5.319   7.107   4.799
54262SOL    HW164618   5.299   7.052   4.874
54262SOL    HW264619   5.407   7.082   4.773
54263SOL     OW64620   6.229  13.714  11.128
54263SOL    HW164621   6.228  13.741  11.036
54263SOL    HW264622   6.178  13.633  11.128
54264SOL     OW64623   4.763  14.432   3.073
54264SOL    HW164624   4.771  14.485   2.993
54264SOL    HW264625   4.696  14.478   3.124
54265SOL     OW64626   2.336   4.644   4.935
54265SOL    HW164627   2.273   4.607   4.997
54265SOL    HW264628   2.356   4.573   4.875
54266SOL     OW64629   7.987  14.681   9.359
54266SOL    HW164630   7.955  14.690   9.448
54266SOL    HW264631   8.023  14.592   9.355
54267SOL     OW64632  12.815  11.747  10.357
54267SOL    HW164633  12.802  11.780  10.446
54267SOL    HW264634  12.837  11.655  10.368
54268SOL     OW64635   6.072   9.082   1.379
54268SOL    HW164636   6.036   9.166   1.350
54268SOL    HW264637   6.141   9.062   1.316
54269SOL     OW64638   3.606   7.313   4.718
54269SOL    HW164639   3.662   7.296   4.794
54269SOL    HW264640   3.587   7.226   4.682
54270SOL     OW64641   8.107   6.285   4.082
54270SOL    HW164642   8.142   6.201   4.055
54270SOL    HW264643   8.018   6.287   4.046
54271SOL     OW64644  11.851   1.916  11.641
54271SOL    HW164645  11.931   1.906  11.694
54271SOL    HW264646  11.882   1.945  11.556
54272SOL     OW64647  14.060   3.706  10.964
54272SOL    HW164648  14.048   3.748  11.049
54272SOL    HW264649  14.009   3.625  10.970
54273SOL     OW64650   7.555   2.086   2.704
54273SOL    HW164651   7.482   2.082   2.766
54273SOL    HW264652   7.632   2.104   2.759
54274SOL     OW64653   5.225   6.931   6.013
54274SOL    HW164654   5.157   6.928   6.079
54274SOL    HW264655   5.208   6.855   5.957
54275SOL     OW64656  13.289   5.324  11.351
54275SOL    HW164657  13.348   5.364  11.416
54275SOL    HW264658  13.212   5.382  11.351
54276SOL     OW64659  14.576   7.109  11.992
54276SOL    HW164660  14.529   7.124  11.910
54276SOL    HW264661  14.536   7.031  12.029
54277SOL     OW64662   4.343   3.408   5.407
54277SOL    HW164663   4.401   3.453   5.469
54277SOL    HW264664   4.338   3.318   5.441
54278SOL     OW64665   1.878  12.184   7.608
54278SOL    HW164666   1.820  12.112   7.632
54278SOL    HW264667   1.819  12.256   7.587
54279SOL     OW64668   8.199   4.413  13.071
54279SOL    HW164669   8.210   4.406  13.166
54279SOL    HW264670   8.107   4.389  13.056
54280SOL     OW64671  11.708   3.275  14.317
54280SOL    HW164672  11.732   3.280  14.224
54280SOL    HW264673  11.784   3.309  14.363
54281SOL     OW64674   1.446  12.773   9.253
54281SOL    HW164675   1.354  12.798   9.244
54281SOL    HW264676   1.466  12.789   9.346
54282SOL     OW64677   5.967   7.901  10.597
54282SOL    HW164678   5.873   7.920  10.595
54282SOL    HW264679   5.975   7.821  10.648
54283SOL     OW64680   9.212   5.963  14.360
54283SOL    HW164681   9.120   5.938  14.363
54283SOL    HW264682   9.242   5.937  14.273
54284SOL     OW64683  10.474   8.547  14.793
54284SOL    HW164684  10.505   8.482  14.731
54284SOL    HW264685  10.427   8.611  14.739
54285SOL     OW64686   1.056  12.624  11.186
54285SOL    HW164687   1.007  12.567  11.127
54285SOL    HW264688   1.110  12.565  11.238
54286SOL     OW64689  14.099   7.830   2.954
54286SOL    HW164690  14.050   7.862   2.878
54286SOL    HW264691  14.072   7.887   3.026
54287SOL     OW64692  12.232  11.246  10.555
54287SOL    HW164693  12.281  11.292  10.624
54287SOL    HW264694  12.270  11.279  10.473
54288SOL     OW64695   1.994   8.219  10.811
54288SOL    HW164696   2.001   8.123  10.816
54288SOL    HW264697   1.934   8.235  10.739
54289SOL     OW64698   7.857  11.927   3.375
54289SOL    HW164699   7.864  11.999   3.312
54289SOL    HW264700   7.819  11.855   3.324
54290SOL     OW64701   9.465   8.916   1.399
54290SOL    HW164702   9.420   8.863   1.466
54290SOL    HW264703   9.555   8.924   1.430
54291SOL     OW64704   9.812   7.887  11.454
54291SOL    HW164705   9.746   7.881  11.523
54291SOL    HW264706   9.775   7.947  11.390
54292SOL     OW64707  11.775   4.421  11.071
54292SOL    HW164708  11.851   4.446  11.123
54292SOL    HW264709  11.811   4.364  11.002
54293SOL     OW64710  12.289  11.658  14.342
54293SOL    HW164711  12.354  11.711  14.388
54293SOL    HW264712  12.254  11.717  14.274
54294SOL     OW64713   5.883   7.589   1.645
54294SOL    HW164714   5.803   7.556   1.686
54294SOL    HW264715   5.949   7.583   1.714
54295SOL     OW64716  14.188  12.464   8.819
54295SOL    HW164717  14.125  12.497   8.883
54295SOL    HW264718  14.219  12.542   8.773
54296SOL     OW64719   3.390   8.133   2.175
54296SOL    HW164720   3.436   8.197   2.120
54296SOL    HW264721   3.310   8.178   2.202
54297SOL     OW64722  10.770   2.039   0.281
54297SOL    HW164723  10.746   1.950   0.307
54297SOL    HW264724  10.709   2.060   0.210
54298SOL     OW64725   7.059   0.945   4.357
54298SOL    HW164726   7.072   1.039   4.365
54298SOL    HW264727   7.074   0.910   4.445
54299SOL     OW64728  12.251   5.623   4.303
54299SOL    HW164729  12.239   5.689   4.372
54299SOL    HW264730  12.173   5.633   4.247
54300SOL     OW64731   1.457  10.977   8.589
54300SOL    HW164732   1.389  11.031   8.550
54300SOL    HW264733   1.495  10.929   8.515
54301SOL     OW64734  12.638   9.983   0.045
54301SOL    HW164735  12.728   9.983   0.012
54301SOL    HW264736  12.586  10.017  14.855
54302SOL     OW64737   8.771   2.729   1.995
54302SOL    HW164738   8.763   2.706   2.088
54302SOL    HW264739   8.857   2.771   1.988
54303SOL     OW64740   7.221  14.215   2.261
54303SOL    HW164741   7.189  14.140   2.311
54303SOL    HW264742   7.311  14.228   2.292
54304SOL     OW64743   1.478   1.054   1.599
54304SOL    HW164744   1.554   1.010   1.637
54304SOL    HW264745   1.405   1.032   1.657
54305SOL     OW64746  11.091   5.154   5.246
54305SOL    HW164747  11.050   5.081   5.200
54305SOL    HW264748  11.040   5.230   5.220
54306SOL     OW64749  14.759   7.970   6.373
54306SOL    HW164750  14.850   7.998   6.384
54306SOL    HW264751  14.758   7.921   6.291
54307SOL     OW64752   7.402  14.180   2.739
54307SOL    HW164753   7.429  14.241   2.670
54307SOL    HW264754   7.420  14.226   2.821
54308SOL     OW64755  10.187   9.453   4.078
54308SOL    HW164756  10.124   9.404   4.025
54308SOL    HW264757  10.145   9.539   4.090
54309SOL     OW64758  13.927   6.058   4.742
54309SOL    HW164759  13.931   5.963   4.738
54309SOL    HW264760  13.878   6.077   4.822
54310SOL     OW64761   3.419  13.613   4.049
54310SOL    HW164762   3.365  13.634   4.125
54310SOL    HW264763   3.382  13.531   4.016
54311SOL     OW64764   5.095   4.956   5.880
54311SOL    HW164765   5.151   4.879   5.885
54311SOL    HW264766   5.078   4.968   5.787
54312SOL     OW64767   5.121  10.611   0.831
54312SOL    HW164768   5.192  10.637   0.772
54312SOL    HW264769   5.112  10.684   0.892
54313SOL     OW64770   9.069   3.652  14.554
54313SOL    HW164771   9.080   3.707  14.476
54313SOL    HW264772   8.985   3.608  14.541
54314SOL     OW64773   5.641  11.506   0.889
54314SOL    HW164774   5.564  11.494   0.834
54314SOL    HW264775   5.655  11.421   0.930
54315SOL     OW64776   6.425  10.255   1.890
54315SOL    HW164777   6.354  10.250   1.955
54315SOL    HW264778   6.478  10.177   1.906
54316SOL     OW64779   5.596   5.835   1.551
54316SOL    HW164780   5.556   5.860   1.635
54316SOL    HW264781   5.643   5.914   1.523
54317SOL     OW64782   6.783   2.221   5.552
54317SOL    HW164783   6.850   2.220   5.620
54317SOL    HW264784   6.815   2.159   5.486
54318SOL     OW64785   1.435  13.388   3.081
54318SOL    HW164786   1.518  13.432   3.101
54318SOL    HW264787   1.409  13.348   3.164
54319SOL     OW64788   1.700  10.053  10.417
54319SOL    HW164789   1.621  10.016  10.457
54319SOL    HW264790   1.670  10.089  10.334
54320SOL     OW64791   1.711   7.695  12.362
54320SOL    HW164792   1.636   7.747  12.334
54320SOL    HW264793   1.784   7.727  12.310
54321SOL     OW64794   2.180  12.085   6.558
54321SOL    HW164795   2.205  12.165   6.603
54321SOL    HW264796   2.205  12.100   6.467
54322SOL     OW64797   4.350   0.766   1.892
54322SOL    HW164798   4.332   0.776   1.799
54322SOL    HW264799   4.372   0.855   1.922
54323SOL     OW64800   2.155   8.238   7.072
54323SOL    HW164801   2.141   8.166   7.011
54323SOL    HW264802   2.246   8.229   7.099
54324SOL     OW64803   4.067   5.635  13.303
54324SOL    HW164804   4.066   5.662  13.395
54324SOL    HW264805   3.989   5.676  13.266
54325SOL     OW64806   8.307   7.275  12.377
54325SOL    HW164807   8.262   7.358  12.391
54325SOL    HW264808   8.400   7.298  12.373
54326SOL     OW64809  12.036   4.375   8.315
54326SOL    HW164810  12.021   4.460   8.356
54326SOL    HW264811  11.952   4.331   8.321
54327SOL     OW64812   4.833   5.204   0.198
54327SOL    HW164813   4.922   5.167   0.193
54327SOL    HW264814   4.792   5.159   0.272
54328SOL     OW64815  11.529  12.534  10.463
54328SOL    HW164816  11.449  12.495  10.497
54328SOL    HW264817  11.517  12.628  10.477
54329SOL     OW64818   6.351   7.648   3.225
54329SOL    HW164819   6.311   7.621   3.308
54329SOL    HW264820   6.280   7.691   3.177
54330SOL     OW64821  14.596   1.038  10.278
54330SOL    HW164822  14.671   1.097  10.288
54330SOL    HW264823  14.564   1.026  10.368
54331SOL     OW64824  13.406   4.096  14.196
54331SOL    HW164825  13.405   4.131  14.107
54331SOL    HW264826  13.495   4.061  14.207
54332SOL     OW64827   2.714   6.099   8.460
54332SOL    HW164828   2.694   6.011   8.492
54332SOL    HW264829   2.635   6.126   8.413
54333SOL     OW64830   2.399  11.029   6.930
54333SOL    HW164831   2.481  11.030   6.881
54333SOL    HW264832   2.342  10.970   6.881
54334SOL     OW64833   8.451   5.277   6.645
54334SOL    HW164834   8.362   5.309   6.659
54334SOL    HW264835   8.476   5.313   6.560
54335SOL     OW64836  12.391   1.349   2.344
54335SOL    HW164837  12.348   1.389   2.268
54335SOL    HW264838  12.321   1.340   2.409
54336SOL     OW64839   1.019   9.828  10.263
54336SOL    HW164840   0.952   9.862  10.203
54336SOL    HW264841   1.002   9.734  10.267
54337SOL     OW64842  10.580  14.275   8.069
54337SOL    HW164843  10.493  14.298   8.038
54337SOL    HW264844  10.582  14.179   8.066
54338SOL     OW64845  14.137   1.668   1.041
54338SOL    HW164846  14.124   1.646   0.948
54338SOL    HW264847  14.154   1.762   1.041
54339SOL     OW64848   2.890   0.446   4.578
54339SOL    HW164849   2.820   0.456   4.642
54339SOL    HW264850   2.962   0.498   4.612
54340SOL     OW64851  11.251   3.353   2.426
54340SOL    HW164852  11.291   3.283   2.478
54340SOL    HW264853  11.317   3.422   2.426
54341SOL     OW64854   2.780  14.796   6.500
54341SOL    HW164855   2.689  14.783   6.471
54341SOL    HW264856   2.773  14.823   6.591
54342SOL     OW64857  12.327   1.718  12.830
54342SOL    HW164858  12.362   1.730  12.742
54342SOL    HW264859  12.270   1.642  12.823
54343SOL     OW64860   9.857   2.783   9.376
54343SOL    HW164861   9.896   2.700   9.347
54343SOL    HW264862   9.933   2.839   9.395
54344SOL     OW64863   2.901   5.372  12.493
54344SOL    HW164864   2.967   5.387  12.425
54344SOL    HW264865   2.932   5.294  12.539
54345SOL     OW64866  13.186   5.410   0.197
54345SOL    HW164867  13.205   5.356   0.121
54345SOL    HW264868  13.261   5.470   0.204
54346SOL     OW64869   3.944  12.182  13.142
54346SOL    HW164870   3.973  12.272  13.125
54346SOL    HW264871   3.948  12.173  13.237
54347SOL     OW64872   4.293  10.973   1.267
54347SOL    HW164873   4.304  10.880   1.245
54347SOL    HW264874   4.247  11.010   1.192
54348SOL     OW64875   8.200   5.062  13.619
54348SOL    HW164876   8.200   4.990  13.683
54348SOL    HW264877   8.282   5.108  13.634
54349SOL     OW64878  13.340  14.219  11.101
54349SOL    HW164879  13.302  14.166  11.031
54349SOL    HW264880  13.397  14.159  11.148
54350SOL     OW64881  14.521   8.680  14.785
54350SOL    HW164882  14.571   8.733  14.847
54350SOL    HW264883  14.584   8.658  14.716
54351SOL     OW64884   2.631   0.875  13.266
54351SOL    HW164885   2.545   0.883  13.225
54351SOL    HW264886   2.653   0.964  13.294
54352SOL     OW64887   0.693   1.975   9.626
54352SOL    HW164888   0.634   1.907   9.594
54352SOL    HW264889   0.693   2.041   9.556
54353SOL     OW64890   0.288  13.718   2.343
54353SOL    HW164891   0.369  13.722   2.291
54353SOL    HW264892   0.309  13.763   2.424
54354SOL     OW64893  12.335   4.572  14.494
54354SOL    HW164894  12.366   4.496  14.543
54354SOL    HW264895  12.384   4.569  14.412
54355SOL     OW64896   2.841   0.593   1.626
54355SOL    HW164897   2.851   0.559   1.537
54355SOL    HW264898   2.903   0.543   1.678
54356SOL     OW64899   4.872   1.902   3.698
54356SOL    HW164900   4.813   1.867   3.630
54356SOL    HW264901   4.855   1.847   3.774
54357SOL     OW64902  11.579   1.512   9.502
54357SOL    HW164903  11.486   1.535   9.506
54357SOL    HW264904  11.584   1.444   9.435
54358SOL     OW64905   5.804  12.837   4.873
54358SOL    HW164906   5.888  12.871   4.843
54358SOL    HW264907   5.764  12.910   4.920
54359SOL     OW64908  12.288   7.806  13.866
54359SOL    HW164909  12.213   7.769  13.912
54359SOL    HW264910  12.363   7.784  13.921
54360SOL     OW64911   1.237   1.926  11.524
54360SOL    HW164912   1.290   1.855  11.489
54360SOL    HW264913   1.166   1.937  11.461
54361SOL     OW64914  11.504  14.810   4.094
54361SOL    HW164915  11.592  14.846   4.106
54361SOL    HW264916  11.469  14.803   4.183
54362SOL     OW64917  10.759  11.986  11.110
54362SOL    HW164918  10.671  11.949  11.098
54362SOL    HW264919  10.762  12.060  11.050
54363SOL     OW64920  10.916  12.181  11.269
54363SOL    HW164921  10.977  12.245  11.233
54363SOL    HW264922  10.936  12.100  11.222
54364SOL     OW64923   7.442   0.150   0.895
54364SOL    HW164924   7.367   0.128   0.839
54364SOL    HW264925   7.451   0.245   0.887
54365SOL     OW64926   1.587   9.906   1.821
54365SOL    HW164927   1.595   9.962   1.898
54365SOL    HW264928   1.660   9.931   1.765
54366SOL     OW64929   3.756   7.641   0.691
54366SOL    HW164930   3.841   7.597   0.690
54366SOL    HW264931   3.697   7.579   0.734
54367SOL     OW64932   5.452  14.832   5.009
54367SOL    HW164933   5.517   0.019   5.013
54367SOL    HW264934   5.376  14.872   4.967
54368SOL     OW64935   4.847  14.572   7.150
54368SOL    HW164936   4.846  14.535   7.238
54368SOL    HW264937   4.854  14.496   7.092
54369SOL     OW64938   3.375   7.055   7.406
54369SOL    HW164939   3.377   7.085   7.315
54369SOL    HW264940   3.319   6.977   7.404
54370SOL     OW64941   9.792   4.808  12.270
54370SOL    HW164942   9.803   4.888  12.217
54370SOL    HW264943   9.876   4.795  12.312
54371SOL     OW64944   3.329  10.977   6.027
54371SOL    HW164945   3.422  10.970   6.008
54371SOL    HW264946   3.322  11.055   6.083
54372SOL     OW64947   8.597  12.169   9.485
54372SOL    HW164948   8.648  12.224   9.425
54372SOL    HW264949   8.523  12.139   9.433
54373SOL     OW64950  11.832  10.829   8.987
54373SOL    HW164951  11.874  10.768   8.927
54373SOL    HW264952  11.845  10.915   8.947
54374SOL     OW64953   5.750   6.066   0.187
54374SOL    HW164954   5.827   6.103   0.143
54374SOL    HW264955   5.786   6.017   0.261
54375SOL     OW64956  13.365   2.197   0.413
54375SOL    HW164957  13.457   2.205   0.388
54375SOL    HW264958  13.328   2.138   0.346
54376SOL     OW64959   9.621   4.107   2.302
54376SOL    HW164960   9.594   4.143   2.218
54376SOL    HW264961   9.633   4.014   2.286
54377SOL     OW64962   9.669   8.624  13.533
54377SOL    HW164963   9.680   8.673  13.452
54377SOL    HW264964   9.660   8.691  13.601
54378SOL     OW64965   3.907  12.853  11.298
54378SOL    HW164966   3.845  12.789  11.333
54378SOL    HW264967   3.981  12.801  11.269
54379SOL     OW64968   1.716   6.936   4.437
54379SOL    HW164969   1.797   6.932   4.387
54379SOL    HW264970   1.742   6.918   4.527
54380SOL     OW64971   9.270   6.213  13.787
54380SOL    HW164972   9.277   6.225  13.881
54380SOL    HW264973   9.176   6.210  13.770
54381SOL     OW64974   8.555  11.743   9.012
54381SOL    HW164975   8.644  11.710   9.001
54381SOL    HW264976   8.566  11.827   9.057
54382SOL     OW64977  10.560   4.674  10.193
54382SOL    HW164978  10.643   4.666  10.239
54382SOL    HW264979  10.530   4.762  10.213
54383SOL     OW64980   8.517   9.771   1.735
54383SOL    HW164981   8.496   9.701   1.797
54383SOL    HW264982   8.444   9.832   1.741
54384SOL     OW64983   6.108  14.072   5.692
54384SOL    HW164984   6.111  14.111   5.780
54384SOL    HW264985   6.059  14.134   5.639
54385SOL     OW64986   1.434   3.614   7.663
54385SOL    HW164987   1.427   3.641   7.754
54385SOL    HW264988   1.518   3.568   7.658
54386SOL     OW64989   4.784  11.915   0.882
54386SOL    HW164990   4.701  11.868   0.889
54386SOL    HW264991   4.783  11.953   0.794
54387SOL     OW64992  10.970   1.068   9.499
54387SOL    HW164993  11.026   1.089   9.574
54387SOL    HW264994  10.887   1.042   9.537
54388SOL     OW64995  10.865   1.427   9.147
54388SOL    HW164996  10.905   1.340   9.143
54388SOL    HW264997  10.936   1.487   9.125
54389SOL     OW64998   0.680   7.715   5.264
54389SOL    HW164999   0.753   7.769   5.233
54389SOL    HW265000   0.662   7.747   5.352
54390SOL     OW65001  14.248   9.918   1.277
54390SOL    HW165002  14.250   9.828   1.308
54390SOL    HW265003  14.265   9.912   1.183
54391SOL     OW65004   9.828   3.249   8.861
54391SOL    HW165005   9.758   3.242   8.796
54391SOL    HW265006   9.785   3.283   8.940
54392SOL     OW65007   6.181   8.567  10.187
54392SOL    HW165008   6.220   8.480  10.187
54392SOL    HW265009   6.196   8.600  10.098
54393SOL     OW65010   3.709   5.140   1.453
54393SOL    HW165011   3.668   5.103   1.531
54393SOL    HW265012   3.737   5.227   1.480
54394SOL     OW65013   4.827   0.688  10.554
54394SOL    HW165014   4.918   0.693  10.527
54394SOL    HW265015   4.780   0.744  10.493
54395SOL     OW65016   7.080   8.169   4.055
54395SOL    HW165017   7.175   8.176   4.062
54395SOL    HW265018   7.065   8.123   3.973
54396SOL     OW65019   3.941   3.620  14.270
54396SOL    HW165020   4.022   3.637  14.220
54396SOL    HW265021   3.933   3.695  14.329
54397SOL     OW65022  11.047   3.618  14.815
54397SOL    HW165023  10.989   3.652  14.747
54397SOL    HW265024  11.092   3.544  14.773
54398SOL     OW65025   9.061   7.743   8.858
54398SOL    HW165026   9.121   7.817   8.868
54398SOL    HW265027   9.049   7.711   8.948
54399SOL     OW65028   4.684  10.575   3.238
54399SOL    HW165029   4.657  10.642   3.301
54399SOL    HW265030   4.656  10.608   3.153
54400SOL     OW65031   7.809   5.749  13.083
54400SOL    HW165032   7.831   5.714  13.169
54400SOL    HW265033   7.715   5.734  13.074
54401SOL     OW65034   0.774  10.669   6.608
54401SOL    HW165035   0.741  10.702   6.691
54401SOL    HW265036   0.724  10.714   6.541
54402SOL     OW65037  12.366   4.368   4.126
54402SOL    HW165038  12.432   4.409   4.181
54402SOL    HW265039  12.323   4.441   4.081
54403SOL     OW65040  10.547  10.624   3.172
54403SOL    HW165041  10.520  10.538   3.205
54403SOL    HW265042  10.478  10.650   3.111
54404SOL     OW65043   1.994   8.748  14.850
54404SOL    HW165044   1.943   8.770   0.046
54404SOL    HW265045   1.960   8.662  14.823
54405SOL     OW65046   8.464  13.323   5.498
54405SOL    HW165047   8.536  13.378   5.528
54405SOL    HW265048   8.385  13.366   5.531
54406SOL     OW65049   1.661   2.184  14.073
54406SOL    HW165050   1.569   2.202  14.054
54406SOL    HW265051   1.663   2.159  14.165
54407SOL     OW65052  14.859   5.458  11.938
54407SOL    HW165053  14.880   5.377  11.985
54407SOL    HW265054   0.052   5.516  11.955
54408SOL     OW65055  13.593  10.778   6.959
54408SOL    HW165056  13.522  10.726   6.921
54408SOL    HW265057  13.550  10.829   7.028
54409SOL     OW65058  13.440   2.697   4.666
54409SOL    HW165059  13.439   2.630   4.598
54409SOL    HW265060  13.463   2.778   4.620
54410SOL     OW65061   3.931   1.428   2.233
54410SOL    HW165062   3.937   1.516   2.196
54410SOL    HW265063   3.890   1.376   2.164
54411SOL     OW65064   9.334   2.992   2.628
54411SOL    HW165065   9.355   2.951   2.712
54411SOL    HW265066   9.419   3.000   2.584
54412SOL     OW65067   8.573   6.326  13.265
54412SOL    HW165068   8.509   6.306  13.333
54412SOL    HW265069   8.521   6.339  13.186
54413SOL     OW65070   4.436   8.228   6.527
54413SOL    HW165071   4.528   8.242   6.504
54413SOL    HW265072   4.403   8.172   6.457
54414SOL     OW65073  13.100  10.455   2.100
54414SOL    HW165074  13.140  10.541   2.090
54414SOL    HW265075  13.150  10.413   2.170
54415SOL     OW65076   2.103   2.770   5.871
54415SOL    HW165077   2.098   2.684   5.827
54415SOL    HW265078   2.044   2.761   5.946
54416SOL     OW65079   0.929   5.116   2.204
54416SOL    HW165080   1.010   5.100   2.252
54416SOL    HW265081   0.875   5.169   2.263
54417SOL     OW65082   5.029  14.862  13.139
54417SOL    HW165083   5.010  14.805  13.214
54417SOL    HW265084   5.072   0.056  13.178
54418SOL     OW65085   1.492   8.916  11.307
54418SOL    HW165086   1.535   8.966  11.237
54418SOL    HW265087   1.399   8.930  11.292
54419SOL     OW65088   7.384  14.290   7.148
54419SOL    HW165089   7.304  14.246   7.177
54419SOL    HW265090   7.413  14.340   7.224
54420SOL     OW65091   2.213   0.698   8.455
54420SOL    HW165092   2.215   0.603   8.443
54420SOL    HW265093   2.305   0.723   8.468
54421SOL     OW65094   7.801   6.866  10.406
54421SOL    HW165095   7.785   6.781  10.447
54421SOL    HW265096   7.861   6.847  10.334
54422SOL     OW65097   2.254  13.881   4.505
54422SOL    HW165098   2.259  13.917   4.417
54422SOL    HW265099   2.163  13.892   4.531
54423SOL     OW65100   1.000   0.231  14.399
54423SOL    HW165101   1.040   0.317  14.391
54423SOL    HW265102   1.020   0.203  14.489
54424SOL     OW65103   7.224  10.044   8.137
54424SOL    HW165104   7.242   9.969   8.079
54424SOL    HW265105   7.175  10.106   8.082
54425SOL     OW65106  12.620   2.456  13.436
54425SOL    HW165107  12.652   2.365  13.438
54425SOL    HW265108  12.653   2.492  13.354
54426SOL     OW65109   1.016   3.306   2.251
54426SOL    HW165110   1.086   3.328   2.189
54426SOL    HW265111   0.939   3.290   2.195
54427SOL     OW65112   9.286   3.764  13.285
54427SOL    HW165113   9.296   3.668  13.283
54427SOL    HW265114   9.315   3.792  13.198
54428SOL     OW65115   0.423   4.745  10.138
54428SOL    HW165116   0.396   4.656  10.163
54428SOL    HW265117   0.492   4.767  10.201
54429SOL     OW65118   7.685   7.386   4.891
54429SOL    HW165119   7.603   7.350   4.924
54429SOL    HW265120   7.750   7.359   4.956
54430SOL     OW65121   2.522   6.968  14.245
54430SOL    HW165122   2.557   7.015  14.321
54430SOL    HW265123   2.463   7.031  14.204
54431SOL     OW65124   6.806  14.141  11.406
54431SOL    HW165125   6.887  14.090  11.413
54431SOL    HW265126   6.744  14.095  11.461
54432SOL     OW65127   3.792   3.097   6.211
54432SOL    HW165128   3.841   3.174   6.183
54432SOL    HW265129   3.702   3.128   6.218
54433SOL     OW65130   8.130   1.318   8.811
54433SOL    HW165131   8.169   1.318   8.724
54433SOL    HW265132   8.182   1.380   8.861
54434SOL     OW65133   9.856   6.839   2.107
54434SOL    HW165134   9.896   6.809   2.188
54434SOL    HW265135   9.911   6.803   2.037
54435SOL     OW65136   9.710   1.897   3.486
54435SOL    HW165137   9.773   1.935   3.547
54435SOL    HW265138   9.693   1.967   3.423
54436SOL     OW65139   4.953   4.853   7.557
54436SOL    HW165140   4.893   4.799   7.608
54436SOL    HW265141   5.038   4.839   7.598
54437SOL     OW65142   5.802   0.857   0.856
54437SOL    HW165143   5.802   0.950   0.877
54437SOL    HW265144   5.855   0.850   0.777
54438SOL     OW65145   8.159  13.059   7.286
54438SOL    HW165146   8.100  12.998   7.241
54438SOL    HW265147   8.224  13.002   7.328
54439SOL     OW65148   1.674   0.892   4.561
54439SOL    HW165149   1.761   0.902   4.601
54439SOL    HW265150   1.691   0.851   4.477
54440SOL     OW65151   5.688   1.431   7.555
54440SOL    HW165152   5.653   1.352   7.513
54440SOL    HW265153   5.617   1.495   7.549
54441SOL     OW65154   3.913   0.761   3.829
54441SOL    HW165155   3.985   0.823   3.838
54441SOL    HW265156   3.954   0.675   3.835
54442SOL     OW65157   3.739  14.355   1.848
54442SOL    HW165158   3.673  14.381   1.912
54442SOL    HW265159   3.720  14.263   1.829
54443SOL     OW65160   2.381   7.084   7.810
54443SOL    HW165161   2.392   7.017   7.877
54443SOL    HW265162   2.316   7.143   7.846
54444SOL     OW65163   6.689  12.221   4.043
54444SOL    HW165164   6.672  12.313   4.020
54444SOL    HW265165   6.697  12.176   3.959
54445SOL     OW65166   4.339   1.673   9.942
54445SOL    HW165167   4.322   1.697  10.033
54445SOL    HW265168   4.301   1.744   9.890
54446SOL     OW65169  14.597   5.140   6.324
54446SOL    HW165170  14.543   5.217   6.340
54446SOL    HW265171  14.591   5.090   6.406
54447SOL     OW65172   5.775   4.588   2.488
54447SOL    HW165173   5.799   4.532   2.414
54447SOL    HW265174   5.687   4.619   2.467
54448SOL     OW65175   7.545   2.724   5.075
54448SOL    HW165176   7.450   2.729   5.064
54448SOL    HW265177   7.565   2.631   5.082
54449SOL     OW65178  12.447   8.001   4.391
54449SOL    HW165179  12.523   8.004   4.333
54449SOL    HW265180  12.390   8.071   4.359
54450SOL     OW65181   3.087   3.530   4.541
54450SOL    HW165182   3.104   3.570   4.456
54450SOL    HW265183   2.992   3.534   4.552
54451SOL     OW65184   8.139   8.858   4.277
54451SOL    HW165185   8.124   8.910   4.356
54451SOL    HW265186   8.225   8.820   4.289
54452SOL     OW65187   4.491  13.215  12.835
54452SOL    HW165188   4.424  13.274  12.800
54452SOL    HW265189   4.548  13.272  12.888
54453SOL     OW65190   3.183   9.102   5.312
54453SOL    HW165191   3.135   9.124   5.232
54453SOL    HW265192   3.128   9.135   5.383
54454SOL     OW65193   4.467   5.743  10.327
54454SOL    HW165194   4.385   5.698  10.308
54454SOL    HW265195   4.473   5.812  10.260
54455SOL     OW65196   9.128   5.045  13.190
54455SOL    HW165197   9.103   4.967  13.240
54455SOL    HW265198   9.045   5.078  13.155
54456SOL     OW65199   4.512   8.203  13.034
54456SOL    HW165200   4.452   8.141  12.992
54456SOL    HW265201   4.459   8.244  13.104
54457SOL     OW65202  11.078   7.769   4.994
54457SOL    HW165203  11.067   7.693   5.051
54457SOL    HW265204  11.168   7.763   4.963
54458SOL     OW65205   9.318   4.323   0.892
54458SOL    HW165206   9.364   4.286   0.967
54458SOL    HW265207   9.256   4.385   0.930
54459SOL     OW65208  10.070   6.740   0.881
54459SOL    HW165209   9.975   6.752   0.889
54459SOL    HW265210  10.088   6.661   0.932
54460SOL     OW65211  14.471   6.637   1.812
54460SOL    HW165212  14.382   6.668   1.825
54460SOL    HW265213  14.468   6.589   1.729
54461SOL     OW65214   5.953   2.568   0.012
54461SOL    HW165215   5.962   2.592  14.801
54461SOL    HW265216   5.896   2.491   0.012
54462SOL     OW65217  10.199   0.793   2.329
54462SOL    HW165218  10.213   0.732   2.402
54462SOL    HW265219  10.277   0.850   2.330
54463SOL     OW65220   4.710   2.447  10.981
54463SOL    HW165221   4.730   2.464  10.889
54463SOL    HW265222   4.756   2.516  11.029
54464SOL     OW65223   9.145  14.140   9.151
54464SOL    HW165224   9.203  14.206   9.188
54464SOL    HW265225   9.059  14.161   9.188
54465SOL     OW65226  13.344  14.830  12.069
54465SOL    HW165227  13.321  14.748  12.026
54465SOL    HW265228  13.348  14.808  12.162
54466SOL     OW65229   5.871   9.061   4.073
54466SOL    HW165230   5.800   9.124   4.080
54466SOL    HW265231   5.950   9.110   4.096
54467SOL     OW65232  13.561   6.740  10.395
54467SOL    HW165233  13.524   6.652  10.402
54467SOL    HW265234  13.623   6.746  10.468
54468SOL     OW65235  10.750   0.754   1.603
54468SOL    HW165236  10.742   0.687   1.671
54468SOL    HW265237  10.728   0.836   1.647
54469SOL     OW65238   4.798  10.890   0.366
54469SOL    HW165239   4.706  10.895   0.394
54469SOL    HW265240   4.804  10.808   0.318
54470SOL     OW65241   1.334   5.534   2.358
54470SOL    HW165242   1.271   5.594   2.399
54470SOL    HW265243   1.419   5.577   2.372
54471SOL     OW65244  13.885   3.982   1.240
54471SOL    HW165245  13.953   4.036   1.198
54471SOL    HW265246  13.905   3.987   1.333
54472SOL     OW65247   9.418   0.922   8.744
54472SOL    HW165248   9.414   0.858   8.673
54472SOL    HW265249   9.503   0.908   8.784
54473SOL     OW65250  10.341  11.091  10.346
54473SOL    HW165251  10.411  11.040  10.387
54473SOL    HW265252  10.297  11.133  10.420
54474SOL     OW65253   4.733   3.272   5.567
54474SOL    HW165254   4.785   3.211   5.618
54474SOL    HW265255   4.798   3.327   5.523
54475SOL     OW65256  13.640   9.095  13.313
54475SOL    HW165257  13.698   9.125  13.383
54475SOL    HW265258  13.690   9.027  13.268
54476SOL     OW65259   7.957   0.842   3.045
54476SOL    HW165260   7.984   0.862   2.956
54476SOL    HW265261   7.927   0.926   3.080
54477SOL     OW65262   3.033   8.075   1.363
54477SOL    HW165263   3.127   8.082   1.382
54477SOL    HW265264   3.025   7.992   1.315
54478SOL     OW65265   0.198   3.352   7.957
54478SOL    HW165266   0.163   3.440   7.966
54478SOL    HW265267   0.191   3.314   8.044
54479SOL     OW65268  10.057   6.818   8.228
54479SOL    HW165269  10.033   6.882   8.295
54479SOL    HW265270  10.128   6.860   8.179
54480SOL     OW65271   3.612  10.092  12.588
54480SOL    HW165272   3.668  10.034  12.641
54480SOL    HW265273   3.534  10.105  12.642
54481SOL     OW65274   4.010   2.968   9.440
54481SOL    HW165275   3.975   2.938   9.356
54481SOL    HW265276   4.102   2.986   9.422
54482SOL     OW65277   5.291   7.563  14.688
54482SOL    HW165278   5.334   7.622  14.626
54482SOL    HW265279   5.228   7.618  14.735
54483SOL     OW65280   6.776   5.497   8.641
54483SOL    HW165281   6.826   5.456   8.570
54483SOL    HW265282   6.743   5.578   8.603
54484SOL     OW65283   3.010   6.444   5.607
54484SOL    HW165284   3.004   6.538   5.622
54484SOL    HW265285   2.929   6.422   5.560
54485SOL     OW65286  12.096  10.601  10.253
54485SOL    HW165287  12.063  10.515  10.280
54485SOL    HW265288  12.017  10.652  10.236
54486SOL     OW65289  11.448   0.478  14.223
54486SOL    HW165290  11.464   0.405  14.282
54486SOL    HW265291  11.386   0.534  14.269
54487SOL     OW65292  12.013   2.633   2.728
54487SOL    HW165293  11.985   2.571   2.795
54487SOL    HW265294  12.090   2.675   2.765
54488SOL     OW65295   5.740  11.259  12.752
54488SOL    HW165296   5.682  11.206  12.807
54488SOL    HW265297   5.728  11.348  12.784
54489SOL     OW65298  11.869   7.172   5.251
54489SOL    HW165299  11.805   7.119   5.300
54489SOL    HW265300  11.914   7.223   5.318
54490SOL     OW65301  13.116   1.821   0.500
54490SOL    HW165302  13.040   1.878   0.506
54490SOL    HW265303  13.082   1.737   0.469
54491SOL     OW65304  12.756   1.970  14.772
54491SOL    HW165305  12.819   2.035  14.743
54491SOL    HW265306  12.771   1.961  14.866
54492SOL     OW65307   8.607  12.345   4.581
54492SOL    HW165308   8.689  12.372   4.540
54492SOL    HW265309   8.544  12.346   4.509
54493SOL     OW65310   4.829  12.487  10.914
54493SOL    HW165311   4.844  12.420  10.981
54493SOL    HW265312   4.756  12.453  10.862
54494SOL     OW65313  12.962   3.415   7.941
54494SOL    HW165314  12.931   3.333   7.980
54494SOL    HW265315  13.045   3.390   7.898
54495SOL     OW65316  11.340   6.898   9.435
54495SOL    HW165317  11.410   6.873   9.495
54495SOL    HW265318  11.338   6.827   9.370
54496SOL     OW65319  10.347  10.931   0.007
54496SOL    HW165320  10.309  10.844   0.022
54496SOL    HW265321  10.345  10.942  14.794
54497SOL     OW65322  12.898  12.516   2.423
54497SOL    HW165323  12.877  12.434   2.467
54497SOL    HW265324  12.874  12.501   2.331
54498SOL     OW65325   4.891   7.725   7.287
54498SOL    HW165326   4.812   7.694   7.332
54498SOL    HW265327   4.954   7.653   7.298
54499SOL     OW65328   4.177   2.888   2.175
54499SOL    HW165329   4.107   2.885   2.240
54499SOL    HW265330   4.176   2.977   2.142
54500SOL     OW65331   6.557  11.897   2.008
54500SOL    HW165332   6.536  11.899   2.102
54500SOL    HW265333   6.584  11.986   1.988
54501SOL     OW65334   1.872   7.314   5.871
54501SOL    HW165335   1.888   7.280   5.784
54501SOL    HW265336   1.857   7.408   5.858
54502SOL     OW65337   8.103  14.000  13.429
54502SOL    HW165338   8.171  14.055  13.468
54502SOL    HW265339   8.087  13.931  13.494
54503SOL     OW65340   6.892   9.045   3.638
54503SOL    HW165341   6.902   8.976   3.704
54503SOL    HW265342   6.978   9.088   3.635
54504SOL     OW65343   3.922   1.027   9.429
54504SOL    HW165344   3.910   1.059   9.518
54504SOL    HW265345   4.016   1.037   9.413
54505SOL     OW65346   8.786   5.495   2.305
54505SOL    HW165347   8.736   5.434   2.251
54505SOL    HW265348   8.865   5.447   2.329
54506SOL     OW65349  10.658  10.312   2.430
54506SOL    HW165350  10.606  10.388   2.404
54506SOL    HW265351  10.693  10.277   2.348
54507SOL     OW65352   3.504  11.010  14.376
54507SOL    HW165353   3.561  10.950  14.329
54507SOL    HW265354   3.560  11.048  14.443
54508SOL     OW65355   5.525  12.408   5.401
54508SOL    HW165356   5.535  12.407   5.496
54508SOL    HW265357   5.542  12.499   5.376
54509SOL     OW65358   1.198   8.732  10.072
54509SOL    HW165359   1.154   8.674  10.135
54509SOL    HW265360   1.156   8.712   9.988
54510SOL     OW65361  14.420   2.551   7.693
54510SOL    HW165362  14.418   2.487   7.763
54510SOL    HW265363  14.511   2.580   7.689
54511SOL     OW65364   4.531   5.547   4.487
54511SOL    HW165365   4.571   5.629   4.515
54511SOL    HW265366   4.601   5.482   4.498
54512SOL     OW65367   7.023  10.751  14.339
54512SOL    HW165368   6.929  10.770  14.336
54512SOL    HW265369   7.060  10.803  14.268
54513SOL     OW65370  11.987  10.027   5.230
54513SOL    HW165371  11.909  10.008   5.179
54513SOL    HW265372  12.006   9.946   5.278
54514SOL     OW65373   5.227  12.908  13.991
54514SOL    HW165374   5.192  12.995  14.012
54514SOL    HW265375   5.174  12.848  14.043
54515SOL     OW65376   8.621   8.182   5.065
54515SOL    HW165377   8.629   8.109   5.126
54515SOL    HW265378   8.604   8.258   5.121
54516SOL     OW65379  10.608   1.334   5.791
54516SOL    HW165380  10.642   1.348   5.703
54516SOL    HW265381  10.633   1.244   5.813
54517SOL     OW65382  14.120   4.420   6.146
54517SOL    HW165383  14.071   4.339   6.152
54517SOL    HW265384  14.138   4.432   6.053
54518SOL     OW65385   0.979   0.640   1.595
54518SOL    HW165386   0.955   0.732   1.581
54518SOL    HW265387   0.907   0.604   1.646
54519SOL     OW65388   0.707  12.313   3.456
54519SOL    HW165389   0.727  12.240   3.514
54519SOL    HW265390   0.612  12.320   3.458
54520SOL     OW65391   5.572  10.370   1.703
54520SOL    HW165392   5.660  10.401   1.725
54520SOL    HW265393   5.559  10.398   1.612
54521SOL     OW65394   2.747  14.160   8.320
54521SOL    HW165395   2.707  14.126   8.400
54521SOL    HW265396   2.747  14.255   8.333
54522SOL     OW65397  10.446   8.652  13.736
54522SOL    HW165398  10.387   8.718  13.700
54522SOL    HW265399  10.484   8.692  13.814
54523SOL     OW65400   1.839   6.685  10.956
54523SOL    HW165401   1.842   6.728  10.870
54523SOL    HW265402   1.847   6.592  10.936
54524SOL     OW65403  14.667   9.450   8.432
54524SOL    HW165404  14.719   9.373   8.457
54524SOL    HW265405  14.578   9.417   8.423
54525SOL     OW65406  14.038  13.763   1.172
54525SOL    HW165407  14.092  13.763   1.093
54525SOL    HW265408  13.963  13.708   1.150
54526SOL     OW65409   1.068  11.540   1.389
54526SOL    HW165410   1.114  11.590   1.322
54526SOL    HW265411   1.134  11.522   1.456
54527SOL     OW65412   8.772  10.135   4.728
54527SOL    HW165413   8.753  10.135   4.635
54527SOL    HW265414   8.867  10.142   4.734
54528SOL     OW65415  13.089   1.653   2.428
54528SOL    HW165416  13.096   1.576   2.483
54528SOL    HW265417  13.174   1.661   2.385
54529SOL     OW65418   5.623   4.081  10.568
54529SOL    HW165419   5.608   4.009  10.507
54529SOL    HW265420   5.536   4.099  10.604
54530SOL     OW65421   0.647  12.014   6.730
54530SOL    HW165422   0.727  11.978   6.767
54530SOL    HW265423   0.639  11.974   6.644
54531SOL     OW65424   8.477  12.348   0.479
54531SOL    HW165425   8.555  12.314   0.523
54531SOL    HW265426   8.446  12.275   0.426
54532SOL     OW65427   1.881  10.676   1.321
54532SOL    HW165428   1.790  10.675   1.293
54532SOL    HW265429   1.878  10.690   1.415
54533SOL     OW65430   8.703   8.260  13.843
54533SOL    HW165431   8.635   8.263  13.910
54533SOL    HW265432   8.714   8.166  13.824
54534SOL     OW65433   9.055  11.469   5.447
54534SOL    HW165434   8.999  11.541   5.416
54534SOL    HW265435   8.995  11.407   5.488
54535SOL     OW65436   7.889   9.509  13.431
54535SOL    HW165437   7.860   9.492  13.342
54535SOL    HW265438   7.909   9.423  13.467
54536SOL     OW65439  13.152   3.068   1.450
54536SOL    HW165440  13.236   3.109   1.471
54536SOL    HW265441  13.175   2.981   1.419
54537SOL     OW65442  11.905  11.477   0.166
54537SOL    HW165443  11.863  11.459   0.082
54537SOL    HW265444  11.883  11.569   0.185
54538SOL     OW65445   5.758  11.201   1.306
54538SOL    HW165446   5.789  11.113   1.327
54538SOL    HW265447   5.772  11.251   1.386
54539SOL     OW65448   9.973  11.295   9.330
54539SOL    HW165449  10.027  11.269   9.256
54539SOL    HW265450   9.916  11.365   9.296
54540SOL     OW65451   8.208  11.726   4.885
54540SOL    HW165452   8.208  11.763   4.797
54540SOL    HW265453   8.118  11.738   4.916
54541SOL     OW65454   8.587   7.620   0.165
54541SOL    HW165455   8.651   7.616   0.237
54541SOL    HW265456   8.540   7.702   0.181
54542SOL     OW65457   8.391   7.105   3.685
54542SOL    HW165458   8.309   7.116   3.734
54542SOL    HW265459   8.371   7.136   3.597
54543SOL     OW65460   0.872   5.571   7.400
54543SOL    HW165461   0.946   5.628   7.422
54543SOL    HW265462   0.903   5.483   7.418
54544SOL     OW65463   6.270   3.989   7.474
54544SOL    HW165464   6.302   4.078   7.463
54544SOL    HW265465   6.222   3.991   7.557
54545SOL     OW65466   5.159   2.828  12.950
54545SOL    HW165467   5.098   2.891  12.911
54545SOL    HW265468   5.135   2.825  13.042
54546SOL     OW65469   1.601   7.582  13.970
54546SOL    HW165470   1.613   7.526  13.892
54546SOL    HW265471   1.510   7.569  13.995
54547SOL     OW65472  11.355   4.304   0.951
54547SOL    HW165473  11.357   4.350   0.867
54547SOL    HW265474  11.282   4.346   0.999
54548SOL     OW65475   1.525  12.702  10.767
54548SOL    HW165476   1.508  12.746  10.851
54548SOL    HW265477   1.438  12.683  10.732
54549SOL     OW65478   5.086   5.361   1.019
54549SOL    HW165479   5.072   5.357   1.114
54549SOL    HW265480   5.172   5.321   1.006
54550SOL     OW65481  11.247   4.566   2.103
54550SOL    HW165482  11.237   4.631   2.034
54550SOL    HW265483  11.262   4.618   2.182
54551SOL     OW65484  11.444   8.522   8.729
54551SOL    HW165485  11.465   8.467   8.805
54551SOL    HW265486  11.462   8.611   8.758
54552SOL     OW65487   1.928   8.569   2.931
54552SOL    HW165488   1.956   8.478   2.941
54552SOL    HW265489   1.984   8.603   2.861
54553SOL     OW65490  13.496   6.496   6.718
54553SOL    HW165491  13.449   6.459   6.792
54553SOL    HW265492  13.579   6.447   6.715
54554SOL     OW65493   7.647   7.789  11.414
54554SOL    HW165494   7.586   7.763  11.346
54554SOL    HW265495   7.688   7.707  11.443
54555SOL     OW65496   2.007   6.394   1.035
54555SOL    HW165497   2.074   6.460   1.051
54555SOL    HW265498   1.982   6.407   0.943
54556SOL     OW65499   4.324  11.617   9.471
54556SOL    HW165500   4.297  11.617   9.563
54556SOL    HW265501   4.307  11.528   9.441
54557SOL     OW65502   1.498   7.160  10.044
54557SOL    HW165503   1.546   7.079  10.025
54557SOL    HW265504   1.431   7.165   9.976
54558SOL     OW65505  14.483   8.183   2.396
54558SOL    HW165506  14.395   8.149   2.406
54558SOL    HW265507  14.478   8.239   2.319
54559SOL     OW65508   3.216  14.532   9.612
54559SOL    HW165509   3.310  14.531   9.593
54559SOL    HW265510   3.184  14.612   9.570
54560SOL     OW65511  10.516  14.316   0.140
54560SOL    HW165512  10.554  14.403   0.128
54560SOL    HW265513  10.576  14.257   0.097
54561SOL     OW65514   8.079  11.135   2.689
54561SOL    HW165515   8.146  11.067   2.689
54561SOL    HW265516   8.103  11.193   2.616
54562SOL     OW65517  11.400  12.853   0.649
54562SOL    HW165518  11.323  12.851   0.593
54562SOL    HW265519  11.365  12.841   0.738
54563SOL     OW65520  11.703   7.719   7.499
54563SOL    HW165521  11.680   7.735   7.591
54563SOL    HW265522  11.627   7.747   7.449
54564SOL     OW65523  11.130   9.198   4.865
54564SOL    HW165524  11.093   9.143   4.796
54564SOL    HW265525  11.067   9.193   4.937
54565SOL     OW65526   2.900   8.556   9.572
54565SOL    HW165527   2.881   8.524   9.484
54565SOL    HW265528   2.936   8.644   9.559
54566SOL     OW65529   1.918   5.113   3.513
54566SOL    HW165530   1.827   5.109   3.483
54566SOL    HW265531   1.947   5.021   3.515
54567SOL     OW65532   2.624   0.693   1.731
54567SOL    HW165533   2.691   0.651   1.678
54567SOL    HW265534   2.610   0.633   1.804
54568SOL     OW65535   0.786  12.652   7.624
54568SOL    HW165536   0.698  12.687   7.606
54568SOL    HW265537   0.770  12.576   7.679
54569SOL     OW65538   1.485   0.843   3.998
54569SOL    HW165539   1.525   0.881   3.920
54569SOL    HW265540   1.426   0.776   3.965
54570SOL     OW65541   9.308   8.530  13.969
54570SOL    HW165542   9.304   8.505  14.062
54570SOL    HW265543   9.393   8.498  13.939
54571SOL     OW65544   3.647   6.153   4.823
54571SOL    HW165545   3.732   6.129   4.861
54571SOL    HW265546   3.659   6.142   4.729
54572SOL     OW65547   5.245   1.390  10.054
54572SOL    HW165548   5.340   1.396  10.060
54572SOL    HW265549   5.221   1.322  10.117
54573SOL     OW65550   4.252   2.612  10.190
54573SOL    HW165551   4.321   2.596  10.127
54573SOL    HW265552   4.205   2.688  10.155
54574SOL     OW65553   3.687  11.771  12.255
54574SOL    HW165554   3.728  11.836  12.198
54574SOL    HW265555   3.595  11.795  12.256
54575SOL     OW65556  11.782   1.998  10.021
54575SOL    HW165557  11.842   1.923  10.021
54575SOL    HW265558  11.734   1.990  10.103
54576SOL     OW65559  11.918   6.097   1.470
54576SOL    HW165560  11.822   6.104   1.478
54576SOL    HW265561  11.950   6.101   1.560
54577SOL     OW65562   4.277   3.284  13.757
54577SOL    HW165563   4.276   3.346  13.830
54577SOL    HW265564   4.313   3.204  13.794
54578SOL     OW65565   4.302  13.088   6.960
54578SOL    HW165566   4.275  13.178   6.979
54578SOL    HW265567   4.388  13.096   6.920
54579SOL     OW65568  13.806   1.274   3.008
54579SOL    HW165569  13.739   1.240   2.949
54579SOL    HW265570  13.854   1.197   3.037
54580SOL     OW65571   8.991   2.557   7.089
54580SOL    HW165572   8.978   2.591   7.177
54580SOL    HW265573   9.085   2.556   7.076
54581SOL     OW65574   4.098   7.441   1.997
54581SOL    HW165575   4.170   7.464   1.938
54581SOL    HW265576   4.140   7.398   2.071
54582SOL     OW65577   9.562  13.697   4.051
54582SOL    HW165578   9.503  13.649   4.109
54582SOL    HW265579   9.561  13.647   3.969
54583SOL     OW65580   6.155  11.528  12.994
54583SOL    HW165581   6.089  11.596  12.983
54583SOL    HW265582   6.225  11.553  12.934
54584SOL     OW65583   0.778   3.307   5.504
54584SOL    HW165584   0.759   3.215   5.522
54584SOL    HW265585   0.797   3.309   5.410
54585SOL     OW65586  13.292   0.211   2.054
54585SOL    HW165587  13.295   0.175   2.143
54585SOL    HW265588  13.201   0.236   2.041
54586SOL     OW65589   3.728   5.386  12.081
54586SOL    HW165590   3.692   5.304  12.115
54586SOL    HW265591   3.658   5.450  12.094
54587SOL     OW65592  12.143   6.980  14.536
54587SOL    HW165593  12.101   6.972  14.621
54587SOL    HW265594  12.134   7.072  14.512
54588SOL     OW65595  14.676   7.775   6.164
54588SOL    HW165596  14.589   7.806   6.140
54588SOL    HW265597  14.671   7.679   6.156
54589SOL     OW65598  10.243   8.396   5.981
54589SOL    HW165599  10.328   8.361   6.005
54589SOL    HW265600  10.233   8.375   5.889
54590SOL     OW65601   6.678  13.988  10.575
54590SOL    HW165602   6.700  14.054  10.641
54590SOL    HW265603   6.744  13.920  10.585
54591SOL     OW65604   4.009   8.302   4.500
54591SOL    HW165605   4.082   8.240   4.499
54591SOL    HW265606   3.973   8.294   4.589
54592SOL     OW65607   6.628  10.529  11.266
54592SOL    HW165608   6.712  10.513  11.309
54592SOL    HW265609   6.569  10.555  11.336
54593SOL     OW65610   0.891   0.786   7.458
54593SOL    HW165611   0.931   0.699   7.460
54593SOL    HW265612   0.808   0.775   7.504
54594SOL     OW65613   0.360  13.558  10.798
54594SOL    HW165614   0.419  13.568  10.873
54594SOL    HW265615   0.279  13.601  10.825
54595SOL     OW65616  10.885   4.983   9.044
54595SOL    HW165617  10.882   4.910   9.105
54595SOL    HW265618  10.949   4.957   8.978
54596SOL     OW65619   2.385   8.277   2.945
54596SOL    HW165620   2.474   8.265   2.912
54596SOL    HW265621   2.357   8.189   2.971
54597SOL     OW65622  13.619  11.096   0.793
54597SOL    HW165623  13.569  11.141   0.724
54597SOL    HW265624  13.711  11.107   0.767
54598SOL     OW65625   8.091  14.063   8.624
54598SOL    HW165626   8.139  14.142   8.601
54598SOL    HW265627   8.093  14.061   8.720
54599SOL     OW65628  11.044   7.221   0.881
54599SOL    HW165629  11.080   7.265   0.804
54599SOL    HW265630  10.980   7.159   0.846
54600SOL     OW65631   3.409   0.003   1.833
54600SOL    HW165632   3.410   0.079   1.776
54600SOL    HW265633   3.453   0.032   1.913
54601SOL     OW65634   5.415   0.488  11.964
54601SOL    HW165635   5.364   0.569  11.969
54601SOL    HW265636   5.353   0.419  11.987
54602SOL     OW65637   7.199   3.304   1.836
54602SOL    HW165638   7.114   3.273   1.805
54602SOL    HW265639   7.258   3.229   1.822
54603SOL     OW65640   3.511  14.198  10.018
54603SOL    HW165641   3.467  14.242  10.091
54603SOL    HW265642   3.536  14.113  10.053
54604SOL     OW65643   9.298  12.438   0.917
54604SOL    HW165644   9.393  12.445   0.924
54604SOL    HW265645   9.280  12.345   0.925
54605SOL     OW65646   3.383   7.640   1.130
54605SOL    HW165647   3.434   7.604   1.057
54605SOL    HW265648   3.384   7.734   1.116
54606SOL     OW65649   1.576  11.443   2.301
54606SOL    HW165650   1.555  11.535   2.283
54606SOL    HW265651   1.533  11.395   2.230
54607SOL     OW65652  11.517  10.677   9.350
54607SOL    HW165653  11.589  10.739   9.359
54607SOL    HW265654  11.445  10.730   9.313
54608SOL     OW65655  12.203  10.212   9.133
54608SOL    HW165656  12.137  10.195   9.200
54608SOL    HW265657  12.205  10.131   9.081
54609SOL     OW65658  13.136   6.487  13.665
54609SOL    HW165659  13.156   6.393  13.663
54609SOL    HW265660  13.221   6.529  13.679
54610SOL     OW65661   5.372   9.261  13.513
54610SOL    HW165662   5.429   9.190  13.543
54610SOL    HW265663   5.402   9.281  13.425
54611SOL     OW65664   5.082   5.212   6.599
54611SOL    HW165665   5.106   5.257   6.679
54611SOL    HW265666   5.081   5.280   6.532
54612SOL     OW65667   2.636   2.141   5.231
54612SOL    HW165668   2.643   2.073   5.298
54612SOL    HW265669   2.683   2.216   5.267
54613SOL     OW65670   7.232   6.708   6.087
54613SOL    HW165671   7.234   6.682   5.995
54613SOL    HW265672   7.275   6.794   6.088
54614SOL     OW65673   8.925   5.287   1.700
54614SOL    HW165674   8.962   5.350   1.637
54614SOL    HW265675   8.991   5.218   1.706
54615SOL     OW65676   9.543  10.711  14.543
54615SOL    HW165677   9.550  10.745  14.454
54615SOL    HW265678   9.555  10.788  14.598
54616SOL     OW65679   8.822   6.827  12.975
54616SOL    HW165680   8.781   6.911  12.997
54616SOL    HW265681   8.916   6.845  12.972
54617SOL     OW65682  14.464   6.952  14.666
54617SOL    HW165683  14.485   7.003  14.588
54617SOL    HW265684  14.543   6.955  14.720
54618SOL     OW65685  14.132   3.099   0.115
54618SOL    HW165686  14.156   3.056   0.197
54618SOL    HW265687  14.064   3.161   0.140
54619SOL     OW65688  11.680   6.102   5.821
54619SOL    HW165689  11.732   6.034   5.778
54619SOL    HW265690  11.733   6.129   5.896
54620SOL     OW65691   1.754  12.309   5.150
54620SOL    HW165692   1.728  12.371   5.082
54620SOL    HW265693   1.770  12.363   5.227
54621SOL     OW65694   1.379   0.262  11.364
54621SOL    HW165695   1.377   0.240  11.271
54621SOL    HW265696   1.304   0.215  11.401
54622SOL     OW65697   2.460   2.604   1.241
54622SOL    HW165698   2.412   2.557   1.173
54622SOL    HW265699   2.504   2.536   1.291
54623SOL     OW65700   8.088   1.830   9.082
54623SOL    HW165701   8.008   1.850   9.132
54623SOL    HW265702   8.104   1.737   9.099
54624SOL     OW65703   5.258   4.558   5.744
54624SOL    HW165704   5.193   4.617   5.709
54624SOL    HW265705   5.318   4.541   5.671
54625SOL     OW65706   0.762   7.722  13.532
54625SOL    HW165707   0.838   7.768  13.570
54625SOL    HW265708   0.694   7.729  13.599
54626SOL     OW65709  11.343   4.716   6.592
54626SOL    HW165710  11.425   4.761   6.613
54626SOL    HW265711  11.352   4.692   6.500
54627SOL     OW65712   3.700  10.239  11.489
54627SOL    HW165713   3.738  10.206  11.570
54627SOL    HW265714   3.622  10.184  11.475
54628SOL     OW65715  13.292   4.354   6.765
54628SOL    HW165716  13.222   4.420   6.764
54628SOL    HW265717  13.246   4.272   6.781
54629SOL     OW65718  10.989  13.733  14.017
54629SOL    HW165719  11.058  13.779  14.065
54629SOL    HW265720  11.014  13.739  13.925
54630SOL     OW65721  11.819   1.503   9.978
54630SOL    HW165722  11.808   1.525  10.070
54630SOL    HW265723  11.910   1.522   9.958
54631SOL     OW65724   9.357  14.355  10.603
54631SOL    HW165725   9.315  14.439  10.583
54631SOL    HW265726   9.291  14.289  10.580
54632SOL     OW65727   9.648   9.012   3.415
54632SOL    HW165728   9.713   8.961   3.366
54632SOL    HW265729   9.697   9.050   3.488
54633SOL     OW65730   1.317   8.347   4.233
54633SOL    HW165731   1.382   8.281   4.255
54633SOL    HW265732   1.366   8.417   4.190
54634SOL     OW65733   6.686  13.143   2.597
54634SOL    HW165734   6.666  13.224   2.552
54634SOL    HW265735   6.624  13.139   2.670
54635SOL     OW65736  13.992  14.458   4.188
54635SOL    HW165737  14.082  14.485   4.170
54635SOL    HW265738  13.956  14.436   4.103
54636SOL     OW65739   1.900  14.200   4.843
54636SOL    HW165740   1.993  14.193   4.860
54636SOL    HW265741   1.858  14.179   4.926
54637SOL     OW65742   1.052  14.701   4.979
54637SOL    HW165743   1.018  14.615   4.955
54637SOL    HW265744   1.147  14.690   4.978
54638SOL     OW65745   5.479   8.796   3.274
54638SOL    HW165746   5.478   8.811   3.180
54638SOL    HW265747   5.467   8.883   3.312
54639SOL     OW65748   2.214   7.526   8.587
54639SOL    HW165749   2.144   7.467   8.616
54639SOL    HW265750   2.181   7.614   8.608
54640SOL     OW65751   7.522   8.734   1.322
54640SOL    HW165752   7.607   8.756   1.361
54640SOL    HW265753   7.520   8.638   1.321
54641SOL     OW65754   3.261   9.776   2.711
54641SOL    HW165755   3.267   9.867   2.683
54641SOL    HW265756   3.343   9.760   2.758
54642SOL     OW65757   9.971   8.773   7.007
54642SOL    HW165758  10.000   8.798   6.919
54642SOL    HW265759  10.048   8.733   7.047
54643SOL     OW65760  10.970  14.210   0.095
54643SOL    HW165761  10.903  14.277   0.107
54643SOL    HW265762  10.947  14.168   0.012
54644SOL     OW65763   0.009   6.839   5.455
54644SOL    HW165764  14.799   6.863   5.443
54644SOL    HW265765   0.008   6.781   5.532
54645SOL     OW65766   4.776  12.389   4.396
54645SOL    HW165767   4.822  12.462   4.355
54645SOL    HW265768   4.839  12.317   4.397
54646SOL     OW65769   2.455   5.800  14.767
54646SOL    HW165770   2.496   5.786  14.853
54646SOL    HW265771   2.529   5.810  14.707
54647SOL     OW65772  10.036   0.115   4.629
54647SOL    HW165773  10.032   0.150   4.541
54647SOL    HW265774   9.952   0.139   4.669
54648SOL     OW65775  11.511   7.171   6.553
54648SOL    HW165776  11.577   7.161   6.484
54648SOL    HW265777  11.431   7.195   6.507
54649SOL     OW65778   7.512   8.807  13.733
54649SOL    HW165779   7.584   8.869  13.742
54649SOL    HW265780   7.554   8.721  13.743
54650SOL     OW65781   2.763   2.268   0.618
54650SOL    HW165782   2.701   2.292   0.687
54650SOL    HW265783   2.745   2.329   0.547
54651SOL     OW65784   6.421   6.255  14.493
54651SOL    HW165785   6.497   6.216  14.536
54651SOL    HW265786   6.406   6.200  14.416
54652SOL     OW65787   6.166   6.487  14.073
54652SOL    HW165788   6.119   6.479  14.156
54652SOL    HW265789   6.108   6.539  14.018
54653SOL     OW65790   0.319   4.871   6.464
54653SOL    HW165791   0.398   4.825   6.489
54653SOL    HW265792   0.279   4.816   6.396
54654SOL     OW65793   6.095  13.343   7.224
54654SOL    HW165794   6.004  13.369   7.242
54654SOL    HW265795   6.126  13.406   7.159
54655SOL     OW65796  14.583   5.933   1.823
54655SOL    HW165797  14.496   5.952   1.856
54655SOL    HW265798  14.581   5.961   1.732
54656SOL     OW65799   5.570  12.017   1.036
54656SOL    HW165800   5.623  11.941   1.059
54656SOL    HW265801   5.480  11.984   1.036
54657SOL     OW65802   9.262  14.387   6.049
54657SOL    HW165803   9.325  14.377   6.121
54657SOL    HW265804   9.241  14.480   6.048
54658SOL     OW65805  13.792   2.181  12.624
54658SOL    HW165806  13.876   2.225  12.614
54658SOL    HW265807  13.813   2.088  12.625
54659SOL     OW65808  13.074   7.016  11.196
54659SOL    HW165809  13.140   7.085  11.185
54659SOL    HW265810  13.126   6.939  11.220
54660SOL     OW65811   7.458   1.707  13.009
54660SOL    HW165812   7.551   1.724  13.026
54660SOL    HW265813   7.412   1.749  13.082
54661SOL     OW65814   9.016   2.271  10.614
54661SOL    HW165815   9.069   2.203  10.572
54661SOL    HW265816   8.925   2.247  10.593
54662SOL     OW65817   6.029  12.155   0.795
54662SOL    HW165818   6.101  12.174   0.733
54662SOL    HW265819   5.951  12.191   0.752
54663SOL     OW65820   2.120   7.685   4.558
54663SOL    HW165821   2.135   7.590   4.551
54663SOL    HW265822   2.208   7.722   4.563
54664SOL     OW65823  14.800  14.278   2.209
54664SOL    HW165824  14.830  14.251   2.296
54664SOL    HW265825  14.803  14.373   2.211
54665SOL     OW65826  14.142   3.978   4.070
54665SOL    HW165827  14.051   3.976   4.101
54665SOL    HW265828  14.193   3.954   4.147
54666SOL     OW65829   1.377  10.657   0.478
54666SOL    HW165830   1.422  10.672   0.394
54666SOL    HW265831   1.352  10.565   0.475
54667SOL     OW65832   0.657   8.097   3.165
54667SOL    HW165833   0.571   8.085   3.206
54667SOL    HW265834   0.661   8.029   3.097
54668SOL     OW65835   6.857   4.381   7.003
54668SOL    HW165836   6.804   4.311   7.040
54668SOL    HW265837   6.818   4.398   6.917
54669SOL     OW65838   4.932   4.059   6.461
54669SOL    HW165839   4.841   4.037   6.441
54669SOL    HW265840   4.978   4.050   6.377
54670SOL     OW65841   4.677   2.123  12.307
54670SOL    HW165842   4.696   2.205  12.263
54670SOL    HW265843   4.732   2.125  12.386
54671SOL     OW65844   7.295   8.476   8.589
54671SOL    HW165845   7.326   8.501   8.502
54671SOL    HW265846   7.275   8.382   8.580
54672SOL     OW65847   0.142   5.656   5.836
54672SOL    HW165848   0.151   5.699   5.750
54672SOL    HW265849   0.054   5.618   5.834
54673SOL     OW65850   9.864   1.309   1.010
54673SOL    HW165851   9.933   1.293   1.075
54673SOL    HW265852   9.909   1.356   0.940
54674SOL     OW65853   3.184   5.371   8.687
54674SOL    HW165854   3.186   5.334   8.599
54674SOL    HW265855   3.248   5.319   8.737
54675SOL     OW65856  14.521   9.870  10.971
54675SOL    HW165857  14.489   9.779  10.968
54675SOL    HW265858  14.479   9.912  10.896
54676SOL     OW65859   3.384  12.236   4.216
54676SOL    HW165860   3.458  12.276   4.263
54676SOL    HW265861   3.370  12.293   4.141
54677SOL     OW65862   3.049   1.678  13.721
54677SOL    HW165863   3.040   1.682  13.626
54677SOL    HW265864   3.038   1.769  13.750
54678SOL     OW65865  11.331  11.062  11.749
54678SOL    HW165866  11.256  11.102  11.706
54678SOL    HW265867  11.406  11.087  11.695
54679SOL     OW65868  10.290   1.722   6.388
54679SOL    HW165869  10.367   1.665   6.385
54679SOL    HW265870  10.282   1.747   6.481
54680SOL     OW65871  11.632  11.543   3.316
54680SOL    HW165872  11.570  11.526   3.387
54680SOL    HW265873  11.718  11.543   3.359
54681SOL     OW65874   0.662   2.946   9.856
54681SOL    HW165875   0.665   3.039   9.880
54681SOL    HW265876   0.746   2.929   9.813
54682SOL     OW65877   5.780   8.382  14.417
54682SOL    HW165878   5.742   8.403  14.503
54682SOL    HW265879   5.834   8.458  14.396
54683SOL     OW65880   1.958  12.120  11.742
54683SOL    HW165881   1.933  12.028  11.733
54683SOL    HW265882   1.879  12.163  11.775
54684SOL     OW65883  12.102  14.305   9.795
54684SOL    HW165884  12.184  14.323   9.750
54684SOL    HW265885  12.124  14.239   9.861
54685SOL     OW65886  12.603   2.278   6.026
54685SOL    HW165887  12.685   2.235   6.002
54685SOL    HW265888  12.537   2.240   5.969
54686SOL     OW65889  12.796  13.494   8.364
54686SOL    HW165890  12.721  13.542   8.328
54686SOL    HW265891  12.865  13.560   8.371
54687SOL     OW65892   5.454   6.782   1.261
54687SOL    HW165893   5.376   6.729   1.251
54687SOL    HW265894   5.473   6.815   1.173
54688SOL     OW65895   0.507   1.633   1.438
54688SOL    HW165896   0.463   1.700   1.490
54688SOL    HW265897   0.439   1.568   1.420
54689SOL     OW65898  14.294   7.296   3.434
54689SOL    HW165899  14.220   7.334   3.386
54689SOL    HW265900  14.370   7.312   3.378
54690SOL     OW65901  13.683   6.531   7.895
54690SOL    HW165902  13.664   6.615   7.853
54690SOL    HW265903  13.751   6.492   7.840
54691SOL     OW65904  13.204  12.929  11.387
54691SOL    HW165905  13.191  12.942  11.481
54691SOL    HW265906  13.261  13.002  11.361
54692SOL     OW65907  10.307   7.001   3.913
54692SOL    HW165908  10.367   6.963   3.977
54692SOL    HW265909  10.233   7.032   3.964
54693SOL     OW65910  10.820   8.986   8.941
54693SOL    HW165911  10.832   8.919   8.875
54693SOL    HW265912  10.725   8.995   8.950
54694SOL     OW65913   2.072   5.882   7.812
54694SOL    HW165914   2.104   5.903   7.724
54694SOL    HW265915   2.055   5.788   7.808
54695SOL     OW65916   1.394   3.260   8.102
54695SOL    HW165917   1.401   3.217   8.187
54695SOL    HW265918   1.311   3.308   8.106
54696SOL     OW65919   8.796  11.318   9.429
54696SOL    HW165920   8.832  11.406   9.420
54696SOL    HW265921   8.829  11.271   9.353
54697SOL     OW65922  12.038   5.338   6.779
54697SOL    HW165923  12.090   5.259   6.791
54697SOL    HW265924  11.948   5.308   6.783
54698SOL     OW65925   3.213   8.796   2.658
54698SOL    HW165926   3.188   8.780   2.567
54698SOL    HW265927   3.282   8.732   2.676
54699SOL     OW65928   5.322  12.231   9.043
54699SOL    HW165929   5.299  12.226   9.136
54699SOL    HW265930   5.238  12.234   8.998
54700SOL     OW65931   5.913  11.101   3.545
54700SOL    HW165932   5.882  11.031   3.603
54700SOL    HW265933   5.977  11.149   3.598
54701SOL     OW65934   6.806   2.729   2.915
54701SOL    HW165935   6.811   2.642   2.873
54701SOL    HW265936   6.896   2.747   2.943
54702SOL     OW65937  10.819   4.102   7.485
54702SOL    HW165938  10.873   4.023   7.488
54702SOL    HW265939  10.730   4.070   7.478
54703SOL     OW65940   5.629  14.366   0.084
54703SOL    HW165941   5.631  14.396  14.875
54703SOL    HW265942   5.614  14.272   0.078
54704SOL     OW65943   0.280  13.485  14.306
54704SOL    HW165944   0.216  13.536  14.355
54704SOL    HW265945   0.365  13.521  14.334
54705SOL     OW65946   2.636   2.947   4.058
54705SOL    HW165947   2.639   2.873   4.118
54705SOL    HW265948   2.575   2.920   3.989
54706SOL     OW65949   9.382   9.638   6.553
54706SOL    HW165950   9.353   9.577   6.486
54706SOL    HW265951   9.321   9.711   6.548
54707SOL     OW65952   1.039   1.841   7.722
54707SOL    HW165953   1.019   1.796   7.641
54707SOL    HW265954   0.958   1.835   7.773
54708SOL     OW65955  11.028  10.303   0.999
54708SOL    HW165956  11.070  10.389   1.002
54708SOL    HW265957  10.939  10.321   0.969
54709SOL     OW65958   6.669   6.970   1.913
54709SOL    HW165959   6.585   6.938   1.880
54709SOL    HW265960   6.646   7.039   1.974
54710SOL     OW65961   8.622   4.958   3.353
54710SOL    HW165962   8.660   4.882   3.398
54710SOL    HW265963   8.611   5.024   3.422
54711SOL     OW65964   6.698  11.528   4.270
54711SOL    HW165965   6.789  11.517   4.245
54711SOL    HW265966   6.700  11.582   4.349
54712SOL     OW65967   1.812   9.672   6.522
54712SOL    HW165968   1.786   9.758   6.556
54712SOL    HW265969   1.743   9.613   6.551
54713SOL     OW65970   7.322   6.925  12.506
54713SOL    HW165971   7.378   7.003  12.506
54713SOL    HW265972   7.235   6.958  12.487
54714SOL     OW65973   3.418   7.887   1.709
54714SOL    HW165974   3.469   7.960   1.745
54714SOL    HW265975   3.419   7.901   1.615
54715SOL     OW65976   1.066   3.249   1.152
54715SOL    HW165977   1.146   3.204   1.126
54715SOL    HW265978   1.092   3.302   1.227
54716SOL     OW65979   0.019   8.451  12.137
54716SOL    HW165980   0.101   8.463  12.090
54716SOL    HW265981   0.005   8.357  12.139
54717SOL     OW65982   0.272  10.363   5.298
54717SOL    HW165983   0.317  10.369   5.214
54717SOL    HW265984   0.192  10.314   5.279
54718SOL     OW65985   6.528   0.356  14.402
54718SOL    HW165986   6.470   0.432  14.393
54718SOL    HW265987   6.591   0.382  14.469
54719SOL     OW65988  11.940  10.890   1.722
54719SOL    HW165989  11.889  10.809   1.714
54719SOL    HW265990  11.999  10.888   1.648
54720SOL     OW65991  12.134  12.171   3.764
54720SOL    HW165992  12.182  12.224   3.700
54720SOL    HW265993  12.176  12.085   3.760
54721SOL     OW65994  11.981   5.067   3.721
54721SOL    HW165995  12.068   5.088   3.754
54721SOL    HW265996  11.921   5.106   3.786
54722SOL     OW65997   5.335  12.551   8.387
54722SOL    HW165998   5.406  12.548   8.451
54722SOL    HW265999   5.264  12.595   8.432
54723SOL     OW66000  11.413  13.492  13.017
54723SOL    HW166001  11.502  13.505  12.983
54723SOL    HW266002  11.403  13.560  13.084
54724SOL     OW66003  10.577   8.001   8.876
54724SOL    HW166004  10.642   8.064   8.847
54724SOL    HW266005  10.493   8.042   8.856
54725SOL     OW66006   1.984  12.514   3.342
54725SOL    HW166007   2.012  12.560   3.263
54725SOL    HW266008   1.984  12.422   3.317
54726SOL     OW66009   3.799  10.965   5.564
54726SOL    HW166010   3.712  10.950   5.527
54726SOL    HW266011   3.798  11.056   5.591
54727SOL     OW66012   1.097  10.222   5.840
54727SOL    HW166013   1.159  10.270   5.895
54727SOL    HW266014   1.122  10.130   5.849
54728SOL     OW66015   2.240   2.991   2.451
54728SOL    HW166016   2.299   3.043   2.506
54728SOL    HW266017   2.209   2.921   2.509
54729SOL     OW66018   3.926   5.888   4.948
54729SOL    HW166019   3.864   5.904   5.020
54729SOL    HW266020   4.006   5.858   4.992
54730SOL     OW66021   8.118   5.612  10.364
54730SOL    HW166022   8.056   5.540  10.356
54730SOL    HW266023   8.124   5.629  10.458
54731SOL     OW66024  11.883  11.108   1.873
54731SOL    HW166025  11.916  11.035   1.821
54731SOL    HW266026  11.824  11.067   1.937
54732SOL     OW66027   0.625  10.365  13.270
54732SOL    HW166028   0.590  10.340  13.184
54732SOL    HW266029   0.604  10.458  13.277
54733SOL     OW66030   8.406   0.664   3.155
54733SOL    HW166031   8.409   0.760   3.163
54733SOL    HW266032   8.326   0.646   3.106
54734SOL     OW66033   2.597   8.650   2.990
54734SOL    HW166034   2.504   8.664   3.005
54734SOL    HW266035   2.640   8.690   3.066
54735SOL     OW66036  13.972   2.812   8.317
54735SOL    HW166037  14.064   2.824   8.297
54735SOL    HW266038  13.971   2.774   8.405
54736SOL     OW66039   9.822   7.383   3.405
54736SOL    HW166040   9.807   7.321   3.334
54736SOL    HW266041   9.860   7.331   3.476
54737SOL     OW66042  10.750  14.654   2.267
54737SOL    HW166043  10.812  14.587   2.240
54737SOL    HW266044  10.707  14.617   2.344
54738SOL     OW66045   4.906   1.366   6.068
54738SOL    HW166046   4.898   1.444   6.123
54738SOL    HW266047   5.001   1.351   6.061
54739SOL     OW66048  14.565   9.524   3.445
54739SOL    HW166049  14.531   9.440   3.477
54739SOL    HW266050  14.508   9.589   3.486
54740SOL     OW66051   9.155  11.692   0.312
54740SOL    HW166052   9.244  11.719   0.290
54740SOL    HW266053   9.151  11.599   0.288
54741SOL     OW66054   8.222   6.287  13.600
54741SOL    HW166055   8.253   6.269  13.511
54741SOL    HW266056   8.129   6.265  13.597
54742SOL     OW66057  13.384  11.584  11.835
54742SOL    HW166058  13.377  11.493  11.804
54742SOL    HW266059  13.353  11.636  11.761
54743SOL     OW66060  13.392   8.553  10.524
54743SOL    HW166061  13.327   8.554  10.595
54743SOL    HW266062  13.466   8.504  10.560
54744SOL     OW66063   9.229  11.237   2.905
54744SOL    HW166064   9.288  11.311   2.898
54744SOL    HW266065   9.190  11.228   2.818
54745SOL     OW66066  12.230   0.872   0.909
54745SOL    HW166067  12.304   0.884   0.849
54745SOL    HW266068  12.262   0.904   0.993
54746SOL     OW66069  10.343  12.872   0.078
54746SOL    HW166070  10.423  12.826   0.052
54746SOL    HW266071  10.375  12.952   0.120
54747SOL     OW66072   0.903   0.347  11.894
54747SOL    HW166073   0.867   0.267  11.932
54747SOL    HW266074   0.989   0.357  11.935
54748SOL     OW66075   1.857  10.991   8.705
54748SOL    HW166076   1.905  11.066   8.671
54748SOL    HW266077   1.914  10.916   8.685
54749SOL     OW66078   5.090   8.446   1.218
54749SOL    HW166079   5.108   8.403   1.134
54749SOL    HW266080   5.174   8.483   1.245
54750SOL     OW66081   9.856  14.679   4.782
54750SOL    HW166082   9.951  14.692   4.771
54750SOL    HW266083   9.836  14.722   4.865
54751SOL     OW66084   0.467  14.005   1.654
54751SOL    HW166085   0.393  13.961   1.611
54751SOL    HW266086   0.428  14.082   1.696
54752SOL     OW66087   5.938   8.779   5.074
54752SOL    HW166088   5.842   8.773   5.069
54752SOL    HW266089   5.967   8.689   5.086
54753SOL     OW66090  12.514   2.351   2.385
54753SOL    HW166091  12.493   2.444   2.385
54753SOL    HW266092  12.430   2.307   2.391
54754SOL     OW66093   3.126   5.019   6.394
54754SOL    HW166094   3.086   5.095   6.353
54754SOL    HW266095   3.201   4.998   6.339
54755SOL     OW66096   7.077   5.628   8.467
54755SOL    HW166097   6.995   5.583   8.446
54755SOL    HW266098   7.079   5.703   8.407
54756SOL     OW66099   7.860   5.229   9.519
54756SOL    HW166100   7.928   5.291   9.547
54756SOL    HW266101   7.778   5.278   9.528
54757SOL     OW66102  13.911   0.463   5.331
54757SOL    HW166103  13.834   0.520   5.325
54757SOL    HW266104  13.884   0.393   5.390
54758SOL     OW66105  10.581   4.785   4.114
54758SOL    HW166106  10.486   4.784   4.126
54758SOL    HW266107  10.614   4.714   4.169
54759SOL     OW66108  12.090   9.815   5.380
54759SOL    HW166109  12.160   9.850   5.435
54759SOL    HW266110  12.073   9.727   5.415
54760SOL     OW66111   5.736   3.631  13.556
54760SOL    HW166112   5.730   3.668  13.644
54760SOL    HW266113   5.740   3.707  13.498
54761SOL     OW66114  12.557   3.793  11.736
54761SOL    HW166115  12.621   3.752  11.678
54761SOL    HW266116  12.529   3.872  11.690
54762SOL     OW66117   3.105   4.512   0.416
54762SOL    HW166118   3.048   4.587   0.397
54762SOL    HW266119   3.045   4.439   0.432
54763SOL     OW66120  13.053   8.529  12.831
54763SOL    HW166121  12.960   8.509  12.837
54763SOL    HW266122  13.085   8.474  12.759
54764SOL     OW66123   1.838  11.383  10.602
54764SOL    HW166124   1.827  11.405  10.694
54764SOL    HW266125   1.769  11.432  10.557
54765SOL     OW66126   5.538  13.992   8.254
54765SOL    HW166127   5.582  14.048   8.317
54765SOL    HW266128   5.559  13.903   8.281
54766SOL     OW66129   6.574  13.939   8.604
54766SOL    HW166130   6.530  13.942   8.690
54766SOL    HW266131   6.515  13.986   8.546
54767SOL     OW66132  10.392   4.356  12.507
54767SOL    HW166133  10.306   4.382  12.539
54767SOL    HW266134  10.375   4.289  12.441
54768SOL     OW66135   2.028   5.522   0.998
54768SOL    HW166136   2.081   5.562   0.930
54768SOL    HW266137   2.044   5.576   1.076
54769SOL     OW66138  13.221   1.690   8.436
54769SOL    HW166139  13.291   1.625   8.448
54769SOL    HW266140  13.141   1.644   8.464
54770SOL     OW66141  13.587   6.178   1.309
54770SOL    HW166142  13.662   6.136   1.350
54770SOL    HW266143  13.607   6.176   1.215
54771SOL     OW66144  11.398   3.186   7.063
54771SOL    HW166145  11.316   3.233   7.080
54771SOL    HW266146  11.442   3.238   6.996
54772SOL     OW66147   5.617   6.844  13.197
54772SOL    HW166148   5.576   6.805  13.274
54772SOL    HW266149   5.706   6.867  13.227
54773SOL     OW66150   3.357  14.856   5.055
54773SOL    HW166151   3.440  14.816   5.028
54773SOL    HW266152   3.293  14.821   4.993
54774SOL     OW66153  12.858   3.486   0.036
54774SOL    HW166154  12.815   3.520  14.840
54774SOL    HW266155  12.925   3.426   0.003
54775SOL     OW66156  12.566  14.252   3.282
54775SOL    HW166157  12.583  14.182   3.345
54775SOL    HW266158  12.625  14.322   3.308
54776SOL     OW66159   9.832  14.362   5.359
54776SOL    HW166160   9.872  14.350   5.272
54776SOL    HW266161   9.899  14.409   5.409
54777SOL     OW66162   5.685   6.683   4.106
54777SOL    HW166163   5.629   6.611   4.076
54777SOL    HW266164   5.765   6.674   4.054
54778SOL     OW66165  10.114   6.145  14.388
54778SOL    HW166166  10.018   6.150  14.391
54778SOL    HW266167  10.143   6.218  14.442
54779SOL     OW66168  12.025   2.776   0.781
54779SOL    HW166169  11.962   2.815   0.722
54779SOL    HW266170  12.108   2.818   0.759
54780SOL     OW66171  12.576   7.752  14.144
54780SOL    HW166172  12.490   7.791  14.160
54780SOL    HW266173  12.556   7.670  14.098
54781SOL     OW66174   6.736  11.507   2.789
54781SOL    HW166175   6.818  11.491   2.743
54781SOL    HW266176   6.744  11.457   2.870
54782SOL     OW66177  12.311  12.840   8.978
54782SOL    HW166178  12.335  12.801   9.062
54782SOL    HW266179  12.234  12.893   8.998
54783SOL     OW66180   9.619  13.003   6.159
54783SOL    HW166181   9.537  13.043   6.187
54783SOL    HW266182   9.648  13.057   6.086
54784SOL     OW66183   2.749  11.986   0.022
54784SOL    HW166184   2.664  12.030   0.021
54784SOL    HW266185   2.743  11.921  14.835
54785SOL     OW66186   9.068   7.775  12.514
54785SOL    HW166187   8.979   7.806  12.530
54785SOL    HW266188   9.057   7.691  12.469
54786SOL     OW66189   9.555  10.521   6.604
54786SOL    HW166190   9.463  10.502   6.618
54786SOL    HW266191   9.593  10.521   6.692
54787SOL     OW66192   1.905  11.589   8.578
54787SOL    HW166193   1.941  11.555   8.496
54787SOL    HW266194   1.816  11.554   8.582
54788SOL     OW66195   5.933   1.936  12.577
54788SOL    HW166196   5.855   1.958  12.628
54788SOL    HW266197   5.933   1.841  12.572
54789SOL     OW66198   2.677  12.317   8.357
54789SOL    HW166199   2.737  12.332   8.283
54789SOL    HW266200   2.653  12.225   8.349
54790SOL     OW66201   7.290   6.664   0.512
54790SOL    HW166202   7.232   6.649   0.437
54790SOL    HW266203   7.244   6.624   0.586
54791SOL     OW66204   9.535  14.540   0.178
54791SOL    HW166205   9.557  14.486   0.254
54791SOL    HW266206   9.567  14.627   0.200
54792SOL     OW66207  10.056   3.521  14.731
54792SOL    HW166208   9.974   3.567  14.716
54792SOL    HW266209  10.123   3.589  14.729
54793SOL     OW66210   6.137   9.387   7.565
54793SOL    HW166211   6.164   9.296   7.558
54793SOL    HW266212   6.218   9.435   7.583
54794SOL     OW66213   5.661   8.393   6.215
54794SOL    HW166214   5.701   8.456   6.155
54794SOL    HW266215   5.681   8.307   6.177
54795SOL     OW66216   2.866  11.187   1.513
54795SOL    HW166217   2.906  11.269   1.487
54795SOL    HW266218   2.855  11.139   1.431
54796SOL     OW66219  12.220  14.344   9.292
54796SOL    HW166220  12.269  14.263   9.306
54796SOL    HW266221  12.128  14.317   9.291
54797SOL     OW66222  12.354  13.287  11.493
54797SOL    HW166223  12.435  13.337  11.503
54797SOL    HW266224  12.336  13.254  11.581
54798SOL     OW66225   1.485   1.623   5.154
54798SOL    HW166226   1.508   1.712   5.128
54798SOL    HW266227   1.563   1.571   5.136
54799SOL     OW66228   6.797   2.397  13.864
54799SOL    HW166229   6.727   2.453  13.896
54799SOL    HW266230   6.788   2.316  13.915
54800SOL     OW66231  14.224   5.762   5.049
54800SOL    HW166232  14.249   5.686   4.997
54800SOL    HW266233  14.134   5.781   5.022
54801SOL     OW66234   9.242   2.277   3.782
54801SOL    HW166235   9.325   2.315   3.752
54801SOL    HW266236   9.179   2.349   3.778
54802SOL     OW66237  11.415   1.504   7.377
54802SOL    HW166238  11.480   1.453   7.329
54802SOL    HW266239  11.463   1.583   7.405
54803SOL     OW66240   9.046  11.441   0.253
54803SOL    HW166241   8.991  11.476   0.323
54803SOL    HW266242   8.988  11.384   0.203
54804SOL     OW66243   7.869   6.462   2.738
54804SOL    HW166244   7.787   6.454   2.786
54804SOL    HW266245   7.880   6.556   2.724
54805SOL     OW66246  10.134   5.734  12.452
54805SOL    HW166247  10.089   5.659  12.490
54805SOL    HW266248  10.070   5.805  12.454
54806SOL     OW66249   1.532   7.070   8.339
54806SOL    HW166250   1.529   7.141   8.405
54806SOL    HW266251   1.490   7.108   8.262
54807SOL     OW66252  10.262   8.144  11.915
54807SOL    HW166253  10.225   8.101  11.992
54807SOL    HW266254  10.321   8.210  11.951
54808SOL     OW66255   1.794   1.563   6.553
54808SOL    HW166256   1.879   1.542   6.591
54808SOL    HW266257   1.773   1.651   6.585
54809SOL     OW66258  13.165  12.136  13.885
54809SOL    HW166259  13.145  12.199  13.954
54809SOL    HW266260  13.243  12.171  13.842
54810SOL     OW66261  14.547   2.602  14.437
54810SOL    HW166262  14.479   2.540  14.411
54810SOL    HW266263  14.593   2.623  14.355
54811SOL     OW66264  10.770  10.491   3.110
54811SOL    HW166265  10.737  10.457   3.027
54811SOL    HW266266  10.704  10.553   3.139
54812SOL     OW66267   8.070   5.900  11.118
54812SOL    HW166268   8.144   5.900  11.057
54812SOL    HW266269   8.058   5.992  11.141
54813SOL     OW66270   9.681   2.568  10.542
54813SOL    HW166271   9.695   2.508  10.469
54813SOL    HW266272   9.586   2.577  10.549
54814SOL     OW66273   8.360  14.602   4.587
54814SOL    HW166274   8.397  14.686   4.562
54814SOL    HW266275   8.390  14.589   4.677
54815SOL     OW66276   7.385  11.899   8.366
54815SOL    HW166277   7.417  11.984   8.398
54815SOL    HW266278   7.456  11.865   8.313
54816SOL     OW66279  11.213   8.766   7.812
54816SOL    HW166280  11.223   8.678   7.777
54816SOL    HW266281  11.191   8.753   7.905
54817SOL     OW66282  13.495   3.033   4.763
54817SOL    HW166283  13.557   2.961   4.771
54817SOL    HW266284  13.544   3.110   4.792
54818SOL     OW66285   5.404   8.472   7.648
54818SOL    HW166286   5.454   8.494   7.727
54818SOL    HW266287   5.329   8.423   7.681
54819SOL     OW66288  14.080   7.913  10.656
54819SOL    HW166289  14.148   7.899  10.722
54819SOL    HW266290  14.116   7.873  10.576
54820SOL     OW66291  14.108  13.593   3.311
54820SOL    HW166292  14.082  13.603   3.220
54820SOL    HW266293  14.076  13.672   3.354
54821SOL     OW66294   6.456   2.510  11.083
54821SOL    HW166295   6.364   2.532  11.077
54821SOL    HW266296   6.458   2.415  11.095
54822SOL     OW66297  12.269   9.307  13.664
54822SOL    HW166298  12.243   9.235  13.607
54822SOL    HW266299  12.354   9.280  13.700
54823SOL     OW66300   3.467   1.375   4.317
54823SOL    HW166301   3.400   1.329   4.266
54823SOL    HW266302   3.418   1.440   4.368
54824SOL     OW66303  10.212  14.333   3.686
54824SOL    HW166304  10.294  14.288   3.705
54824SOL    HW266305  10.217  14.353   3.593
54825SOL     OW66306   2.799  12.056  11.052
54825SOL    HW166307   2.754  12.137  11.078
54825SOL    HW266308   2.752  12.026  10.974
54826SOL     OW66309  10.828  14.810   9.660
54826SOL    HW166310  10.757  14.784   9.601
54826SOL    HW266311  10.904  14.761   9.628
54827SOL     OW66312   4.959  11.169   3.834
54827SOL    HW166313   5.022  11.171   3.906
54827SOL    HW266314   5.005  11.126   3.763
54828SOL     OW66315  13.880   6.381   0.744
54828SOL    HW166316  13.848   6.418   0.661
54828SOL    HW266317  13.861   6.287   0.736
54829SOL     OW66318   0.607   9.834  14.105
54829SOL    HW166319   0.512   9.845  14.099
54829SOL    HW266320   0.622   9.806  14.195
54830SOL     OW66321   7.594  14.459  12.633
54830SOL    HW166322   7.619  14.528  12.694
54830SOL    HW266323   7.566  14.505  12.554
54831SOL     OW66324   2.257   9.278  10.130
54831SOL    HW166325   2.292   9.366  10.116
54831SOL    HW266326   2.321   9.235  10.185
54832SOL     OW66327  10.094   5.349   8.156
54832SOL    HW166328  10.134   5.342   8.242
54832SOL    HW266329  10.163   5.385   8.100
54833SOL     OW66330  11.727   5.134   9.820
54833SOL    HW166331  11.661   5.140   9.751
54833SOL    HW266332  11.676   5.118   9.900
54834SOL     OW66333  14.867   2.844   2.606
54834SOL    HW166334  14.807   2.917   2.621
54834SOL    HW266335  14.858   2.825   2.513
54835SOL     OW66336   1.567  11.256   9.096
54835SOL    HW166337   1.622  11.216   9.030
54835SOL    HW266338   1.614  11.335   9.122
54836SOL     OW66339  11.216  12.986  11.277
54836SOL    HW166340  11.238  12.893  11.283
54836SOL    HW266341  11.295  13.028  11.244
54837SOL     OW66342   0.852   4.995   8.691
54837SOL    HW166343   0.839   4.950   8.774
54837SOL    HW266344   0.772   4.977   8.641
54838SOL     OW66345   9.347   3.874   4.351
54838SOL    HW166346   9.426   3.905   4.395
54838SOL    HW266347   9.296   3.953   4.336
54839SOL     OW66348   1.952   0.865  10.882
54839SOL    HW166349   2.030   0.896  10.927
54839SOL    HW266350   1.980   0.788  10.834
54840SOL     OW66351  11.085   1.267   5.946
54840SOL    HW166352  11.039   1.238   6.024
54840SOL    HW266353  11.062   1.202   5.879
54841SOL     OW66354   6.992   4.455  12.029
54841SOL    HW166355   7.059   4.515  11.997
54841SOL    HW266356   7.038   4.371  12.037
54842SOL     OW66357   0.306   7.879   9.965
54842SOL    HW166358   0.271   7.794   9.937
54842SOL    HW266359   0.400   7.871   9.952
54843SOL     OW66360  10.173  13.048  10.547
54843SOL    HW166361  10.165  12.964  10.502
54843SOL    HW266362  10.258  13.044  10.590
54844SOL     OW66363   3.887   6.807   9.729
54844SOL    HW166364   3.805   6.831   9.686
54844SOL    HW266365   3.944   6.883   9.716
54845SOL     OW66366  12.562   7.731   8.963
54845SOL    HW166367  12.604   7.768   9.040
54845SOL    HW266368  12.635   7.699   8.909
54846SOL     OW66369   8.591  13.978   3.560
54846SOL    HW166370   8.588  13.931   3.476
54846SOL    HW266371   8.646  14.054   3.542
54847SOL     OW66372   8.652   4.419   0.350
54847SOL    HW166373   8.629   4.444   0.260
54847SOL    HW266374   8.673   4.326   0.344
54848SOL     OW66375  13.714  13.992   2.693
54848SOL    HW166376  13.726  13.902   2.664
54848SOL    HW266377  13.632  13.991   2.742
54849SOL     OW66378   3.631  11.245   1.121
54849SOL    HW166379   3.645  11.202   1.037
54849SOL    HW266380   3.608  11.173   1.181
54850SOL     OW66381  11.744   2.678  12.687
54850SOL    HW166382  11.805   2.626  12.740
54850SOL    HW266383  11.746   2.636  12.601
54851SOL     OW66384   0.795  12.104   2.654
54851SOL    HW166385   0.703  12.129   2.660
54851SOL    HW266386   0.813  12.057   2.735
54852SOL     OW66387  13.941   1.489   5.753
54852SOL    HW166388  14.029   1.519   5.729
54852SOL    HW266389  13.947   1.466   5.845
54853SOL     OW66390   6.052   5.996   5.511
54853SOL    HW166391   6.071   5.905   5.536
54853SOL    HW266392   6.051   5.995   5.416
54854SOL     OW66393   3.994   6.226   9.514
54854SOL    HW166394   4.019   6.157   9.452
54854SOL    HW266395   3.900   6.211   9.529
54855SOL     OW66396  13.306   1.858   1.071
54855SOL    HW166397  13.307   1.764   1.057
54855SOL    HW266398  13.220   1.876   1.109
54856SOL     OW66399  14.257   4.800   5.718
54856SOL    HW166400  14.263   4.888   5.754
54856SOL    HW266401  14.318   4.799   5.645
54857SOL     OW66402   0.807  10.157   6.481
54857SOL    HW166403   0.813  10.130   6.573
54857SOL    HW266404   0.843  10.083   6.432
54858SOL     OW66405  14.428   9.926  12.487
54858SOL    HW166406  14.408   9.833  12.481
54858SOL    HW266407  14.495   9.932  12.555
54859SOL     OW66408  10.948   2.731   7.737
54859SOL    HW166409  10.969   2.813   7.782
54859SOL    HW266410  10.939   2.756   7.645
54860SOL     OW66411   3.503   5.653   5.977
54860SOL    HW166412   3.459   5.590   6.034
54860SOL    HW266413   3.432   5.697   5.931
54861SOL     OW66414   2.775  11.748  12.253
54861SOL    HW166415   2.852  11.800  12.234
54861SOL    HW266416   2.703  11.795  12.212
54862SOL     OW66417   9.460   4.810   8.919
54862SOL    HW166418   9.531   4.808   8.984
54862SOL    HW266419   9.425   4.899   8.924
54863SOL     OW66420  11.606   2.970   3.683
54863SOL    HW166421  11.674   3.024   3.642
54863SOL    HW266422  11.563   3.029   3.745
54864SOL     OW66423   2.000  11.489   2.170
54864SOL    HW166424   1.922  11.541   2.147
54864SOL    HW266425   2.074  11.543   2.140
54865SOL     OW66426  12.260   7.669  11.882
54865SOL    HW166427  12.257   7.763  11.863
54865SOL    HW266428  12.286   7.629  11.799
54866SOL     OW66429   1.484   8.924  10.168
54866SOL    HW166430   1.391   8.945  10.158
54866SOL    HW266431   1.504   8.947  10.259
54867SOL     OW66432   5.820   7.350   6.051
54867SOL    HW166433   5.846   7.272   6.100
54867SOL    HW266434   5.899   7.377   6.005
54868SOL     OW66435   3.277   4.291   2.863
54868SOL    HW166436   3.234   4.371   2.893
54868SOL    HW266437   3.230   4.220   2.906
54869SOL     OW66438   8.981  13.956   1.596
54869SOL    HW166439   8.941  14.035   1.631
54869SOL    HW266440   9.008  13.906   1.673
54870SOL     OW66441   5.562   6.237   5.146
54870SOL    HW166442   5.514   6.236   5.229
54870SOL    HW266443   5.630   6.171   5.157
54871SOL     OW66444   8.531   1.933   3.045
54871SOL    HW166445   8.548   1.995   3.116
54871SOL    HW266446   8.539   1.987   2.965
54872SOL     OW66447   1.202   7.037  11.201
54872SOL    HW166448   1.253   7.097  11.147
54872SOL    HW266449   1.112   7.047  11.170
54873SOL     OW66450  10.453  11.274   4.889
54873SOL    HW166451  10.470  11.229   4.806
54873SOL    HW266452  10.368  11.316   4.876
54874SOL     OW66453   1.831   8.211  14.552
54874SOL    HW166454   1.891   8.195  14.479
54874SOL    HW266455   1.835   8.306  14.566
54875SOL     OW66456   1.889  10.510   9.014
54875SOL    HW166457   1.829  10.436   9.002
54875SOL    HW266458   1.976  10.473   8.996
54876SOL     OW66459   2.205   3.893   6.593
54876SOL    HW166460   2.188   3.890   6.687
54876SOL    HW266461   2.287   3.942   6.584
54877SOL     OW66462   2.301   5.460   0.036
54877SOL    HW166463   2.386   5.467   0.079
54877SOL    HW266464   2.308   5.381  14.864
54878SOL     OW66465  14.271  10.299   5.281
54878SOL    HW166466  14.319  10.330   5.205
54878SOL    HW266467  14.192  10.352   5.283
54879SOL     OW66468   9.364  12.068   5.315
54879SOL    HW166469   9.290  12.121   5.284
54879SOL    HW266470   9.380  12.006   5.244
54880SOL     OW66471   1.740   1.369  14.782
54880SOL    HW166472   1.723   1.456  14.745
54880SOL    HW266473   1.668   1.315  14.751
54881SOL     OW66474  14.656   3.274   0.072
54881SOL    HW166475  14.630   3.241   0.158
54881SOL    HW266476  14.752   3.267   0.072
54882SOL     OW66477   7.355  13.555  12.778
54882SOL    HW166478   7.438  13.602  12.783
54882SOL    HW266479   7.358  13.509  12.694
54883SOL     OW66480   9.030  12.406  11.524
54883SOL    HW166481   9.022  12.480  11.464
54883SOL    HW266482   8.941  12.391  11.555
54884SOL     OW66483  12.841   6.232   3.207
54884SOL    HW166484  12.909   6.193   3.261
54884SOL    HW266485  12.759   6.207   3.250
54885SOL     OW66486   9.915   7.555   9.197
54885SOL    HW166487   9.990   7.607   9.224
54885SOL    HW266488   9.876   7.523   9.279
54886SOL     OW66489   9.765  11.804   0.188
54886SOL    HW166490   9.728  11.763   0.110
54886SOL    HW266491   9.852  11.832   0.161
54887SOL     OW66492   7.527  10.909   9.639
54887SOL    HW166493   7.613  10.950   9.643
54887SOL    HW266494   7.532  10.837   9.702
54888SOL     OW66495   1.775   2.774  11.533
54888SOL    HW166496   1.695   2.765  11.482
54888SOL    HW266497   1.756   2.842  11.598
54889SOL     OW66498   9.031   7.275  12.891
54889SOL    HW166499   8.976   7.294  12.815
54889SOL    HW266500   8.980   7.306  12.965
54890SOL     OW66501   9.169   2.555  12.200
54890SOL    HW166502   9.256   2.576  12.233
54890SOL    HW266503   9.129   2.503  12.270
54891SOL     OW66504   7.875  12.710   0.872
54891SOL    HW166505   7.852  12.621   0.900
54891SOL    HW266506   7.791  12.752   0.853
54892SOL     OW66507   2.223  10.783  10.866
54892SOL    HW166508   2.273  10.720  10.814
54892SOL    HW266509   2.163  10.824  10.803
54893SOL     OW66510   2.915   0.895   1.862
54893SOL    HW166511   2.908   0.932   1.950
54893SOL    HW266512   2.910   0.800   1.876
54894SOL     OW66513  10.577  14.558  13.317
54894SOL    HW166514  10.664  14.520  13.310
54894SOL    HW266515  10.586  14.646  13.281
54895SOL     OW66516   6.944   9.829  14.490
54895SOL    HW166517   6.935   9.816  14.396
54895SOL    HW266518   6.905   9.751  14.529
54896SOL     OW66519   4.426  13.261   5.513
54896SOL    HW166520   4.443  13.167   5.515
54896SOL    HW266521   4.475  13.293   5.437
54897SOL     OW66522  13.949  14.530   4.445
54897SOL    HW166523  14.032  14.504   4.485
54897SOL    HW266524  13.950  14.491   4.358
54898SOL     OW66525   4.267  11.330  11.608
54898SOL    HW166526   4.257  11.313  11.514
54898SOL    HW266527   4.203  11.399  11.626
54899SOL     OW66528   6.977   7.449   7.227
54899SOL    HW166529   7.067   7.477   7.213
54899SOL    HW266530   6.947   7.421   7.141
54900SOL     OW66531  10.808  11.332   4.270
54900SOL    HW166532  10.827  11.263   4.207
54900SOL    HW266533  10.717  11.317   4.296
54901SOL     OW66534  11.025   7.745   1.690
54901SOL    HW166535  10.984   7.829   1.672
54901SOL    HW266536  10.978   7.683   1.634
54902SOL     OW66537   3.692   7.352   6.138
54902SOL    HW166538   3.755   7.282   6.152
54902SOL    HW266539   3.745   7.432   6.136
54903SOL     OW66540   6.670   7.292   2.968
54903SOL    HW166541   6.608   7.330   2.906
54903SOL    HW266542   6.624   7.294   3.052
54904SOL     OW66543   7.261   8.730  13.772
54904SOL    HW166544   7.356   8.746  13.773
54904SOL    HW266545   7.225   8.799  13.829
54905SOL     OW66546   4.373  12.143   3.400
54905SOL    HW166547   4.403  12.213   3.457
54905SOL    HW266548   4.412  12.064   3.437
54906SOL     OW66549   1.181   9.430   8.133
54906SOL    HW166550   1.124   9.393   8.066
54906SOL    HW266551   1.266   9.441   8.090
54907SOL     OW66552   3.767   9.965  12.768
54907SOL    HW166553   3.855   9.930  12.778
54907SOL    HW266554   3.715   9.917  12.833
54908SOL     OW66555  13.770   5.874  14.324
54908SOL    HW166556  13.838   5.941  14.319
54908SOL    HW266557  13.807   5.799  14.277
54909SOL     OW66558   8.331  12.557   7.376
54909SOL    HW166559   8.358  12.469   7.349
54909SOL    HW266560   8.320  12.550   7.471
54910SOL     OW66561   3.703  10.907  14.229
54910SOL    HW166562   3.691  10.930  14.137
54910SOL    HW266563   3.763  10.832  14.227
54911SOL     OW66564  10.109  11.414  10.210
54911SOL    HW166565  10.173  11.354  10.172
54911SOL    HW266566  10.027  11.363  10.212
54912SOL     OW66567   7.381   7.710   8.440
54912SOL    HW166568   7.306   7.757   8.476
54912SOL    HW266569   7.401   7.643   8.505
54913SOL     OW66570   5.201   8.014   6.211
54913SOL    HW166571   5.169   8.085   6.155
54913SOL    HW266572   5.295   8.012   6.195
54914SOL     OW66573   8.173   5.258   7.497
54914SOL    HW166574   8.235   5.331   7.500
54914SOL    HW266575   8.139   5.260   7.407
54915SOL     OW66576   5.101   5.911   8.327
54915SOL    HW166577   5.149   5.946   8.402
54915SOL    HW266578   5.044   5.983   8.299
54916SOL     OW66579   0.899   9.292   8.238
54916SOL    HW166580   0.854   9.371   8.268
54916SOL    HW266581   0.969   9.324   8.181
54917SOL     OW66582  11.968   6.194  10.273
54917SOL    HW166583  12.000   6.111  10.239
54917SOL    HW266584  11.885   6.172  10.315
54918SOL     OW66585   1.756   8.347  13.900
54918SOL    HW166586   1.793   8.272  13.945
54918SOL    HW266587   1.785   8.337  13.809
54919SOL     OW66588   7.122   0.796   9.906
54919SOL    HW166589   7.214   0.820   9.894
54919SOL    HW266590   7.093   0.768   9.820
54920SOL     OW66591  11.007   0.535   4.268
54920SOL    HW166592  10.919   0.507   4.294
54920SOL    HW266593  10.992   0.603   4.203
54921SOL     OW66594   8.513   3.393  12.040
54921SOL    HW166595   8.578   3.329  12.067
54921SOL    HW266596   8.546   3.428  11.957
54922SOL     OW66597  13.210  10.646   1.016
54922SOL    HW166598  13.200  10.571   1.074
54922SOL    HW266599  13.212  10.609   0.928
54923SOL     OW66600  13.477  14.004   2.418
54923SOL    HW166601  13.467  13.921   2.465
54923SOL    HW266602  13.486  13.978   2.326
54924SOL     OW66603  14.031   8.587  13.506
54924SOL    HW166604  13.983   8.670  13.506
54924SOL    HW266605  14.089   8.594  13.430
54925SOL     OW66606   7.992   8.095   6.659
54925SOL    HW166607   8.038   8.089   6.575
54925SOL    HW266608   7.900   8.104   6.635
54926SOL     OW66609  10.050   4.977  12.834
54926SOL    HW166610   9.968   5.013  12.801
54926SOL    HW266611  10.117   5.010  12.774
54927SOL     OW66612   0.257  11.985   3.911
54927SOL    HW166613   0.300  11.900   3.906
54927SOL    HW266614   0.250  12.002   4.004
54928SOL     OW66615   8.599   6.657   0.051
54928SOL    HW166616   8.624   6.735   0.099
54928SOL    HW266617   8.508   6.672   0.026
54929SOL     OW66618  13.198   0.573   9.643
54929SOL    HW166619  13.134   0.573   9.715
54929SOL    HW266620  13.148   0.544   9.567
54930SOL     OW66621   0.330   7.566  12.450
54930SOL    HW166622   0.373   7.649  12.470
54930SOL    HW266623   0.259   7.559  12.515
54931SOL     OW66624   2.230   8.753   1.167
54931SOL    HW166625   2.238   8.848   1.157
54931SOL    HW266626   2.136   8.739   1.181
54932SOL     OW66627   5.450   0.658   2.379
54932SOL    HW166628   5.474   0.750   2.390
54932SOL    HW266629   5.504   0.628   2.307
54933SOL     OW66630   5.568   0.799   0.936
54933SOL    HW166631   5.527   0.874   0.979
54933SOL    HW266632   5.659   0.827   0.921
54934SOL     OW66633  12.488  13.193   8.197
54934SOL    HW166634  12.460  13.125   8.137
54934SOL    HW266635  12.454  13.166   8.282
54935SOL     OW66636  12.256   1.323   8.265
54935SOL    HW166637  12.298   1.292   8.345
54935SOL    HW266638  12.329   1.339   8.205
54936SOL     OW66639   4.217  13.623  11.672
54936SOL    HW166640   4.198  13.677  11.748
54936SOL    HW266641   4.153  13.650  11.606
54937SOL     OW66642   8.563   6.142  11.881
54937SOL    HW166643   8.553   6.206  11.811
54937SOL    HW266644   8.481   6.092  11.879
54938SOL     OW66645   8.231   1.726   2.078
54938SOL    HW166646   8.191   1.806   2.045
54938SOL    HW266647   8.170   1.695   2.145
54939SOL     OW66648   3.430   7.405  13.157
54939SOL    HW166649   3.432   7.449  13.072
54939SOL    HW266650   3.445   7.475  13.220
54940SOL     OW66651   0.751   1.893  12.523
54940SOL    HW166652   0.816   1.837  12.480
54940SOL    HW266653   0.677   1.836  12.539
54941SOL     OW66654  14.011  10.453   7.371
54941SOL    HW166655  14.036  10.537   7.411
54941SOL    HW266656  13.938  10.423   7.424
54942SOL     OW66657   5.963  13.448   6.060
54942SOL    HW166658   5.934  13.509   5.992
54942SOL    HW266659   5.895  13.454   6.127
54943SOL     OW66660  13.685   2.707   3.175
54943SOL    HW166661  13.769   2.691   3.133
54943SOL    HW266662  13.623   2.719   3.103
54944SOL     OW66663  12.301   5.423  12.707
54944SOL    HW166664  12.300   5.519  12.698
54944SOL    HW266665  12.228   5.394  12.653
54945SOL     OW66666   8.869   0.818  10.854
54945SOL    HW166667   8.840   0.864  10.933
54945SOL    HW266668   8.854   0.881  10.783
54946SOL     OW66669   4.271   1.817   0.174
54946SOL    HW166670   4.239   1.878   0.241
54946SOL    HW266671   4.357   1.790   0.205
54947SOL     OW66672  12.934   8.733   4.059
54947SOL    HW166673  12.977   8.684   4.129
54947SOL    HW266674  12.901   8.812   4.102
54948SOL     OW66675  13.356  12.947   5.217
54948SOL    HW166676  13.444  12.983   5.202
54948SOL    HW266677  13.368  12.852   5.207
54949SOL     OW66678   6.688   5.671   0.745
54949SOL    HW166679   6.777   5.700   0.729
54949SOL    HW266680   6.641   5.751   0.771
54950SOL     OW66681   2.002   0.554  12.581
54950SOL    HW166682   1.926   0.497  12.583
54950SOL    HW266683   2.077   0.495  12.579
54951SOL     OW66684  13.104  14.417  11.550
54951SOL    HW166685  13.063  14.331  11.558
54951SOL    HW266686  13.174  14.404  11.486
54952SOL     OW66687   5.507  12.348   8.045
54952SOL    HW166688   5.518  12.423   8.103
54952SOL    HW266689   5.596  12.322   8.023
54953SOL     OW66690   5.659   0.575  11.122
54953SOL    HW166691   5.713   0.594  11.199
54953SOL    HW266692   5.660   0.480  11.114
54954SOL     OW66693   4.736   3.888  10.192
54954SOL    HW166694   4.742   3.799  10.159
54954SOL    HW266695   4.820   3.903  10.235
54955SOL     OW66696   4.051  12.312   0.333
54955SOL    HW166697   4.097  12.236   0.300
54955SOL    HW266698   4.087  12.326   0.421
54956SOL     OW66699   4.608   8.641   2.167
54956SOL    HW166700   4.584   8.550   2.184
54956SOL    HW266701   4.685   8.656   2.221
54957SOL     OW66702   7.090  11.855  14.696
54957SOL    HW166703   7.149  11.905  14.640
54957SOL    HW266704   7.135  11.771  14.707
54958SOL     OW66705  12.630   8.346   3.172
54958SOL    HW166706  12.655   8.405   3.101
54958SOL    HW266707  12.633   8.259   3.132
54959SOL     OW66708   1.462  10.048  10.865
54959SOL    HW166709   1.515  10.059  10.786
54959SOL    HW266710   1.429   9.958  10.860
54960SOL     OW66711   5.114   0.289   5.072
54960SOL    HW166712   5.185   0.225   5.081
54960SOL    HW266713   5.136   0.358   5.136
54961SOL     OW66714  13.116   4.759   7.516
54961SOL    HW166715  13.170   4.806   7.453
54961SOL    HW266716  13.167   4.682   7.540
54962SOL     OW66717   0.865   0.013   7.500
54962SOL    HW166718   0.795  14.839   7.467
54962SOL    HW266719   0.941  14.837   7.506
54963SOL     OW66720   5.382   2.563   4.653
54963SOL    HW166721   5.415   2.653   4.648
54963SOL    HW266722   5.429   2.524   4.726
54964SOL     OW66723   7.463   4.617   3.569
54964SOL    HW166724   7.442   4.582   3.482
54964SOL    HW266725   7.389   4.591   3.624
54965SOL     OW66726  10.798   6.272   8.684
54965SOL    HW166727  10.778   6.363   8.702
54965SOL    HW266728  10.733   6.245   8.618
54966SOL     OW66729  13.783   1.797   1.557
54966SOL    HW166730  13.833   1.855   1.615
54966SOL    HW266731  13.807   1.824   1.469
54967SOL     OW66732  13.935   0.553   6.846
54967SOL    HW166733  13.979   0.585   6.767
54967SOL    HW266734  13.857   0.509   6.812
54968SOL     OW66735   9.721  11.010   0.197
54968SOL    HW166736   9.697  10.967   0.279
54968SOL    HW266737   9.691  10.950   0.129
54969SOL     OW66738   0.062   1.890   8.759
54969SOL    HW166739  14.879   1.838   8.712
54969SOL    HW266740   0.017   1.918   8.839
54970SOL     OW66741   7.516   9.339   2.834
54970SOL    HW166742   7.468   9.320   2.753
54970SOL    HW266743   7.480   9.277   2.898
54971SOL     OW66744  14.881   0.182   3.413
54971SOL    HW166745  14.858   0.096   3.375
54971SOL    HW266746   0.048   0.161   3.492
54972SOL     OW66747   9.747   3.979   1.214
54972SOL    HW166748   9.734   3.976   1.119
54972SOL    HW266749   9.817   3.915   1.230
54973SOL     OW66750   5.423   2.887  11.881
54973SOL    HW166751   5.407   2.981  11.874
54973SOL    HW266752   5.481   2.867  11.807
54974SOL     OW66753  14.208  11.219   5.448
54974SOL    HW166754  14.143  11.201   5.380
54974SOL    HW266755  14.157  11.250   5.522
54975SOL     OW66756   2.130   3.321   3.902
54975SOL    HW166757   2.091   3.302   3.988
54975SOL    HW266758   2.155   3.413   3.908
54976SOL     OW66759   7.932  13.049  10.723
54976SOL    HW166760   8.001  13.093  10.675
54976SOL    HW266761   7.925  13.098  10.805
54977SOL     OW66762   6.554   5.481   1.644
54977SOL    HW166763   6.524   5.465   1.734
54977SOL    HW266764   6.547   5.576   1.634
54978SOL     OW66765   9.240   5.872   8.759
54978SOL    HW166766   9.286   5.808   8.814
54978SOL    HW266767   9.232   5.830   8.674
54979SOL     OW66768   5.616  10.591   0.854
54979SOL    HW166769   5.572  10.620   0.934
54979SOL    HW266770   5.664  10.668   0.824
54980SOL     OW66771   4.540   0.798  12.511
54980SOL    HW166772   4.599   0.771  12.441
54980SOL    HW266773   4.491   0.719  12.534
54981SOL     OW66774   8.135  11.915  10.672
54981SOL    HW166775   8.111  12.007  10.679
54981SOL    HW266776   8.116  11.892  10.581
54982SOL     OW66777   6.053   6.438  14.306
54982SOL    HW166778   5.977   6.394  14.343
54982SOL    HW266779   6.108   6.460  14.381
54983SOL     OW66780  12.681  13.930   8.461
54983SOL    HW166781  12.751  13.872   8.432
54983SOL    HW266782  12.610  13.916   8.398
54984SOL     OW66783   7.927   0.995   5.051
54984SOL    HW166784   7.957   0.999   4.961
54984SOL    HW266785   7.865   0.923   5.053
54985SOL     OW66786   0.824   9.884   0.715
54985SOL    HW166787   0.853   9.910   0.802
54985SOL    HW266788   0.897   9.834   0.679
54986SOL     OW66789  14.594  13.311   4.952
54986SOL    HW166790  14.688  13.306   4.966
54986SOL    HW266791  14.560  13.352   5.032
54987SOL     OW66792   1.228  10.981   2.483
54987SOL    HW166793   1.319  10.969   2.457
54987SOL    HW266794   1.226  10.954   2.575
54988SOL     OW66795   5.038  12.151   9.237
54988SOL    HW166796   5.015  12.233   9.281
54988SOL    HW266797   5.010  12.164   9.146
54989SOL     OW66798   6.745   0.422  11.230
54989SOL    HW166799   6.794   0.502  11.247
54989SOL    HW266800   6.653   0.451  11.228
54990SOL     OW66801   1.450   6.358  11.997
54990SOL    HW166802   1.482   6.272  12.025
54990SOL    HW266803   1.469   6.416  12.071
54991SOL     OW66804   6.997   0.193   1.015
54991SOL    HW166805   6.982   0.288   1.021
54991SOL    HW266806   6.968   0.159   1.100
54992SOL     OW66807   0.071   3.011   6.039
54992SOL    HW166808   0.159   2.975   6.026
54992SOL    HW266809   0.012   2.940   6.015
54993SOL     OW66810   9.707   9.140  11.089
54993SOL    HW166811   9.628   9.185  11.119
54993SOL    HW266812   9.764   9.209  11.056
54994SOL     OW66813   4.390  11.408  14.529
54994SOL    HW166814   4.335  11.330  14.537
54994SOL    HW266815   4.391  11.427  14.436
54995SOL     OW66816   8.451  12.807   7.676
54995SOL    HW166817   8.542  12.780   7.681
54995SOL    HW266818   8.403  12.724   7.665
54996SOL     OW66819   0.556  10.820  13.060
54996SOL    HW166820   0.581  10.880  13.131
54996SOL    HW266821   0.608  10.848  12.986
54997SOL     OW66822  13.610   0.788  12.013
54997SOL    HW166823  13.681   0.811  12.073
54997SOL    HW266824  13.532   0.783  12.068
54998SOL     OW66825   6.370   3.331  14.088
54998SOL    HW166826   6.279   3.353  14.106
54998SOL    HW266827   6.381   3.353  13.995
54999SOL     OW66828   3.583   9.268  14.380
54999SOL    HW166829   3.488   9.252  14.379
54999SOL    HW266830   3.594   9.353  14.337
55000SOL     OW66831  14.771   1.081   3.226
55000SOL    HW166832  14.771   1.073   3.131
55000SOL    HW266833  14.860   1.110   3.248
55001SOL     OW66834   4.591   4.800  11.457
55001SOL    HW166835   4.677   4.758  11.460
55001SOL    HW266836   4.529   4.727  11.456
55002SOL     OW66837  11.404   0.052  11.024
55002SOL    HW166838  11.492   0.020  11.004
55002SOL    HW266839  11.407   0.073  11.118
55003SOL     OW66840  12.892  11.568  14.738
55003SOL    HW166841  12.893  11.645  14.796
55003SOL    HW266842  12.983  11.556  14.712
55004SOL     OW66843   7.280  13.289   6.194
55004SOL    HW166844   7.367  13.292   6.234
55004SOL    HW266845   7.281  13.208   6.143
55005SOL     OW66846   5.883   9.333  10.196
55005SOL    HW166847   5.867   9.241  10.174
55005SOL    HW266848   5.976   9.346  10.179
55006SOL     OW66849   9.208   3.641  12.747
55006SOL    HW166850   9.116   3.615  12.750
55006SOL    HW266851   9.233   3.651  12.839
55007SOL     OW66852   7.038   4.605   6.744
55007SOL    HW166853   7.031   4.656   6.824
55007SOL    HW266854   7.066   4.519   6.773
55008SOL     OW66855   4.574   4.175   9.740
55008SOL    HW166856   4.595   4.265   9.715
55008SOL    HW266857   4.638   4.153   9.807
55009SOL     OW66858   9.205   6.639   2.885
55009SOL    HW166859   9.234   6.715   2.834
55009SOL    HW266860   9.109   6.645   2.884
55010SOL     OW66861   0.967   2.854  12.540
55010SOL    HW166862   1.026   2.853  12.615
55010SOL    HW266863   1.013   2.806  12.472
55011SOL     OW66864   8.282   1.320   7.467
55011SOL    HW166865   8.260   1.281   7.382
55011SOL    HW266866   8.354   1.380   7.448
55012SOL     OW66867   9.420   3.345  10.545
55012SOL    HW166868   9.410   3.429  10.499
55012SOL    HW266869   9.511   3.320  10.531
55013SOL     OW66870   7.864  13.413  11.652
55013SOL    HW166871   7.824  13.329  11.673
55013SOL    HW266872   7.856  13.420  11.557
55014SOL     OW66873   6.077  12.207   3.083
55014SOL    HW166874   6.060  12.208   3.178
55014SOL    HW266875   5.990  12.195   3.044
55015SOL     OW66876   4.059   0.512   4.501
55015SOL    HW166877   4.154   0.504   4.495
55015SOL    HW266878   4.027   0.423   4.486
55016SOL     OW66879   6.168   5.617   8.065
55016SOL    HW166880   6.229   5.673   8.018
55016SOL    HW266881   6.107   5.678   8.108
55017SOL     OW66882  11.481   8.816   0.949
55017SOL    HW166883  11.505   8.742   1.005
55017SOL    HW266884  11.557   8.874   0.952
55018SOL     OW66885   7.903   5.851   4.534
55018SOL    HW166886   7.865   5.798   4.605
55018SOL    HW266887   7.902   5.793   4.458
55019SOL     OW66888   4.633   0.123   3.111
55019SOL    HW166889   4.682   0.194   3.069
55019SOL    HW266890   4.644   0.048   3.053
55020SOL     OW66891   5.479   2.747  13.082
55020SOL    HW166892   5.394   2.743  13.038
55020SOL    HW266893   5.458   2.739  13.175
55021SOL     OW66894   9.055  10.918  11.793
55021SOL    HW166895   9.079  11.010  11.797
55021SOL    HW266896   9.063  10.887  11.883
55022SOL     OW66897   0.469  10.341  12.645
55022SOL    HW166898   0.409  10.270  12.670
55022SOL    HW266899   0.538  10.338  12.711
55023SOL     OW66900   2.166  13.839   4.092
55023SOL    HW166901   2.107  13.774   4.128
55023SOL    HW266902   2.214  13.793   4.023
55024SOL     OW66903  13.501  14.133   4.386
55024SOL    HW166904  13.492  14.126   4.291
55024SOL    HW266905  13.586  14.175   4.399
55025SOL     OW66906  11.410   2.329   1.824
55025SOL    HW166907  11.478   2.279   1.868
55025SOL    HW266908  11.385   2.275   1.749
55026SOL     OW66909   9.719   6.050   8.531
55026SOL    HW166910   9.732   6.145   8.535
55026SOL    HW266911   9.701   6.024   8.621
55027SOL     OW66912  10.091   5.994   6.301
55027SOL    HW166913  10.119   6.024   6.215
55027SOL    HW266914  10.021   6.054   6.325
55028SOL     OW66915   6.781  10.861   0.348
55028SOL    HW166916   6.874  10.848   0.362
55028SOL    HW266917   6.776  10.936   0.288
55029SOL     OW66918  13.067   9.701  11.718
55029SOL    HW166919  13.108   9.752  11.788
55029SOL    HW266920  13.065   9.611  11.751
55030SOL     OW66921   1.212   6.490  12.430
55030SOL    HW166922   1.186   6.581  12.421
55030SOL    HW266923   1.247   6.466  12.345
55031SOL     OW66924  10.527   2.366  11.746
55031SOL    HW166925  10.480   2.292  11.786
55031SOL    HW266926  10.463   2.436  11.744
55032SOL     OW66927   0.243  10.141   9.377
55032SOL    HW166928   0.266  10.120   9.468
55032SOL    HW266929   0.281  10.227   9.361
55033SOL     OW66930   5.347  11.584   8.460
55033SOL    HW166931   5.436  11.549   8.450
55033SOL    HW266932   5.310  11.535   8.533
55034SOL     OW66933  12.887  10.440   6.957
55034SOL    HW166934  12.947  10.383   6.909
55034SOL    HW266935  12.837  10.381   7.013
55035SOL     OW66936   6.497   8.246  11.942
55035SOL    HW166937   6.493   8.150  11.944
55035SOL    HW266938   6.543   8.266  11.861
55036SOL     OW66939   7.566   4.136  10.350
55036SOL    HW166940   7.488   4.187  10.330
55036SOL    HW266941   7.573   4.138  10.446
55037SOL     OW66942  14.645   8.304   9.995
55037SOL    HW166943  14.640   8.365  10.069
55037SOL    HW266944  14.554   8.279   9.978
55038SOL     OW66945   2.865   5.572   9.204
55038SOL    HW166946   2.849   5.613   9.289
55038SOL    HW266947   2.789   5.595   9.151
55039SOL     OW66948   0.748  13.719   4.280
55039SOL    HW166949   0.792  13.804   4.268
55039SOL    HW266950   0.718  13.720   4.370
55040SOL     OW66951   6.761   6.841  13.756
55040SOL    HW166952   6.834   6.852  13.695
55040SOL    HW266953   6.778   6.756  13.797
55041SOL     OW66954   3.297   7.753   4.237
55041SOL    HW166955   3.285   7.659   4.228
55041SOL    HW266956   3.213   7.785   4.269
55042SOL     OW66957   2.709  12.613   6.441
55042SOL    HW166958   2.642  12.588   6.504
55042SOL    HW266959   2.736  12.701   6.467
55043SOL     OW66960  11.863   7.384  11.710
55043SOL    HW166961  11.793   7.319  11.698
55043SOL    HW266962  11.826   7.449  11.770
55044SOL     OW66963  12.934  14.227   4.150
55044SOL    HW166964  13.006  14.273   4.193
55044SOL    HW266965  12.977  14.155   4.103
55045SOL     OW66966   7.841   3.779  12.123
55045SOL    HW166967   7.846   3.702  12.066
55045SOL    HW266968   7.843   3.743  12.211
55046SOL     OW66969   4.972  10.491   0.471
55046SOL    HW166970   5.064  10.507   0.450
55046SOL    HW266971   4.925  10.514   0.391
55047SOL     OW66972   5.711   3.775   3.430
55047SOL    HW166973   5.643   3.779   3.497
55047SOL    HW266974   5.769   3.704   3.458
55048SOL     OW66975   5.848   0.618   4.804
55048SOL    HW166976   5.922   0.560   4.786
55048SOL    HW266977   5.851   0.682   4.734
55049SOL     OW66978  14.588   9.912   6.012
55049SOL    HW166979  14.636   9.938   6.090
55049SOL    HW266980  14.644   9.937   5.939
55050SOL     OW66981  12.796  13.361   2.696
55050SOL    HW166982  12.719  13.361   2.754
55050SOL    HW266983  12.763  13.396   2.613
55051SOL     OW66984   1.466  13.816   5.455
55051SOL    HW166985   1.491  13.782   5.540
55051SOL    HW266986   1.416  13.746   5.414
55052SOL     OW66987   7.321   9.212   2.647
55052SOL    HW166988   7.283   9.126   2.665
55052SOL    HW266989   7.275   9.242   2.568
55053SOL     OW66990  12.683   7.480   8.959
55053SOL    HW166991  12.616   7.525   9.010
55053SOL    HW266992  12.746   7.548   8.936
55054SOL     OW66993   9.653  13.883  11.099
55054SOL    HW166994   9.675  13.964  11.053
55054SOL    HW266995   9.617  13.826  11.032
55055SOL     OW66996   6.862   6.186   9.798
55055SOL    HW166997   6.892   6.268   9.759
55055SOL    HW266998   6.937   6.154   9.848
55056SOL     OW66999   4.413  11.213   9.644
55056SOL    HW167000   4.428  11.286   9.704
55056SOL    HW267001   4.320  11.193   9.654
55057SOL     OW67002   7.312   9.887  14.391
55057SOL    HW167003   7.295   9.805  14.346
55057SOL    HW267004   7.402   9.878  14.425
55058SOL     OW67005  12.446  14.018  10.366
55058SOL    HW167006  12.520  14.031  10.426
55058SOL    HW267007  12.415  14.106  10.347
55059SOL     OW67008   6.865  11.363  13.412
55059SOL    HW167009   6.895  11.273  13.396
55059SOL    HW267010   6.770  11.359  13.405
55060SOL     OW67011  11.161  11.033  13.189
55060SOL    HW167012  11.183  10.963  13.127
55060SOL    HW267013  11.244  11.052  13.234
55061SOL     OW67014   7.712   3.283   6.051
55061SOL    HW167015   7.689   3.203   6.098
55061SOL    HW267016   7.635   3.301   5.997
55062SOL     OW67017  10.251   1.132   3.864
55062SOL    HW167018  10.179   1.088   3.909
55062SOL    HW267019  10.328   1.112   3.918
55063SOL     OW67020  10.111   9.390   4.900
55063SOL    HW167021  10.092   9.444   4.823
55063SOL    HW267022  10.025   9.365   4.933
55064SOL     OW67023  13.329   5.016  13.521
55064SOL    HW167024  13.321   5.096  13.573
55064SOL    HW267025  13.421   5.011  13.498
55065SOL     OW67026   1.043   5.962   0.218
55065SOL    HW167027   0.998   5.942   0.300
55065SOL    HW267028   1.072   5.877   0.185
55066SOL     OW67029   3.194   8.924   5.931
55066SOL    HW167030   3.210   8.940   6.024
55066SOL    HW267031   3.102   8.950   5.918
55067SOL     OW67032  13.056   9.815  10.244
55067SOL    HW167033  13.014   9.875  10.307
55067SOL    HW267034  13.119   9.870  10.198
55068SOL     OW67035   1.053   8.925   6.494
55068SOL    HW167036   1.066   8.875   6.575
55068SOL    HW267037   1.090   9.012   6.513
55069SOL     OW67038   9.797  10.644   8.901
55069SOL    HW167039   9.776  10.648   8.807
55069SOL    HW267040   9.762  10.727   8.935
55070SOL     OW67041   6.350   2.260  13.184
55070SOL    HW167042   6.335   2.305  13.101
55070SOL    HW267043   6.424   2.307  13.224
55071SOL     OW67044   3.658   5.250   7.263
55071SOL    HW167045   3.577   5.295   7.239
55071SOL    HW267046   3.667   5.266   7.357
55072SOL     OW67047  11.201   7.061   9.283
55072SOL    HW167048  11.135   7.115   9.327
55072SOL    HW267049  11.239   7.008   9.353
55073SOL     OW67050   6.030   5.113   2.124
55073SOL    HW167051   6.109   5.092   2.174
55073SOL    HW267052   5.966   5.046   2.150
55074SOL     OW67053   0.519   9.921   1.516
55074SOL    HW167054   0.600   9.877   1.490
55074SOL    HW267055   0.518   9.917   1.612
55075SOL     OW67056  10.786  11.253   3.619
55075SOL    HW167057  10.858  11.315   3.612
55075SOL    HW267058  10.781  11.233   3.712
55076SOL     OW67059   8.563  13.054   4.948
55076SOL    HW167060   8.494  13.115   4.922
55076SOL    HW267061   8.562  12.986   4.880
55077SOL     OW67062   4.548   0.209   3.352
55077SOL    HW167063   4.617   0.190   3.416
55077SOL    HW267064   4.580   0.171   3.270
55078SOL     OW67065   3.620   5.265  11.220
55078SOL    HW167066   3.579   5.191  11.176
55078SOL    HW267067   3.621   5.241  11.313
55079SOL     OW67068   1.765  13.870   9.333
55079SOL    HW167069   1.818  13.947   9.315
55079SOL    HW267070   1.725  13.887   9.418
55080SOL     OW67071   3.428  11.796  12.295
55080SOL    HW167072   3.354  11.807  12.235
55080SOL    HW267073   3.389  11.757  12.373
55081SOL     OW67074   5.131  12.640   7.947
55081SOL    HW167075   5.199  12.647   8.014
55081SOL    HW267076   5.073  12.715   7.963
55082SOL     OW67077   5.071   7.197   5.305
55082SOL    HW167078   5.037   7.123   5.254
55082SOL    HW267079   5.049   7.274   5.253
55083SOL     OW67080   6.155  11.911  12.848
55083SOL    HW167081   6.106  11.992  12.860
55083SOL    HW267082   6.091  11.841  12.861
55084SOL     OW67083   4.758   0.521   9.938
55084SOL    HW167084   4.824   0.460   9.972
55084SOL    HW267085   4.676   0.473   9.944
55085SOL     OW67086   3.798   8.748   8.274
55085SOL    HW167087   3.812   8.727   8.181
55085SOL    HW267088   3.705   8.727   8.289
55086SOL     OW67089   3.345   4.260   2.214
55086SOL    HW167090   3.249   4.255   2.210
55086SOL    HW267091   3.368   4.339   2.165
55087SOL     OW67092   7.701  12.272   8.252
55087SOL    HW167093   7.720  12.309   8.166
55087SOL    HW267094   7.695  12.177   8.236
55088SOL     OW67095  14.696   0.183  13.337
55088SOL    HW167096  14.721   0.183  13.429
55088SOL    HW267097  14.747   0.111  13.299
55089SOL     OW67098   2.262   1.117  14.438
55089SOL    HW167099   2.284   1.143  14.527
55089SOL    HW267100   2.216   1.192  14.401
55090SOL     OW67101   6.553  14.255  11.833
55090SOL    HW167102   6.517  14.269  11.921
55090SOL    HW267103   6.486  14.205  11.787
55091SOL     OW67104   3.310  10.693   9.585
55091SOL    HW167105   3.319  10.695   9.680
55091SOL    HW267106   3.383  10.637   9.556
55092SOL     OW67107  11.876   4.918   9.345
55092SOL    HW167108  11.955   4.868   9.323
55092SOL    HW267109  11.907   4.987   9.404
55093SOL     OW67110   7.198   1.287   3.649
55093SOL    HW167111   7.251   1.210   3.670
55093SOL    HW267112   7.182   1.281   3.555
55094SOL     OW67113   6.581   2.886  11.658
55094SOL    HW167114   6.526   2.827  11.607
55094SOL    HW267115   6.551   2.973  11.634
55095SOL     OW67116  14.392   7.067  10.014
55095SOL    HW167117  14.478   7.031  10.032
55095SOL    HW267118  14.344   7.057  10.096
55096SOL     OW67119   1.971   0.828   5.433
55096SOL    HW167120   1.891   0.879   5.422
55096SOL    HW267121   1.943   0.737   5.417
55097SOL     OW67122   7.471   2.745   2.001
55097SOL    HW167123   7.401   2.753   1.936
55097SOL    HW267124   7.529   2.820   1.983
55098SOL     OW67125  13.782  14.599   8.009
55098SOL    HW167126  13.740  14.663   8.066
55098SOL    HW267127  13.860  14.643   7.976
55099SOL     OW67128   6.888   3.523   0.608
55099SOL    HW167129   6.954   3.454   0.598
55099SOL    HW267130   6.938   3.604   0.605
55100SOL     OW67131   0.679   2.393  14.238
55100SOL    HW167132   0.765   2.378  14.200
55100SOL    HW267133   0.637   2.455  14.179
55101SOL     OW67134   6.830   6.365  11.558
55101SOL    HW167135   6.792   6.313  11.486
55101SOL    HW267136   6.919   6.382  11.529
55102SOL     OW67137   4.425   2.309   2.298
55102SOL    HW167138   4.378   2.236   2.257
55102SOL    HW267139   4.492   2.333   2.233
55103SOL     OW67140  11.357  12.604   7.937
55103SOL    HW167141  11.325  12.603   7.847
55103SOL    HW267142  11.357  12.512   7.964
55104SOL     OW67143  12.907   8.833  11.592
55104SOL    HW167144  12.819   8.822  11.628
55104SOL    HW267145  12.904   8.785  11.509
55105SOL     OW67146   1.372   2.445   3.862
55105SOL    HW167147   1.290   2.413   3.899
55105SOL    HW267148   1.393   2.523   3.914
55106SOL     OW67149  11.730  13.613   1.282
55106SOL    HW167150  11.816  13.639   1.317
55106SOL    HW267151  11.676  13.600   1.360
55107SOL     OW67152  12.835  14.261   9.568
55107SOL    HW167153  12.828  14.178   9.520
55107SOL    HW267154  12.929  14.274   9.580
55108SOL     OW67155  13.385   6.612   1.261
55108SOL    HW167156  13.319   6.582   1.198
55108SOL    HW267157  13.400   6.704   1.239
55109SOL     OW67158   3.874   7.568  14.508
55109SOL    HW167159   3.956   7.616  14.495
55109SOL    HW267160   3.830   7.615  14.578
55110SOL     OW67161   8.771   8.091   2.355
55110SOL    HW167162   8.764   8.005   2.398
55110SOL    HW267163   8.822   8.074   2.276
55111SOL     OW67164   9.042   8.811  12.743
55111SOL    HW167165   9.026   8.717  12.745
55111SOL    HW267166   9.083   8.827  12.658
55112SOL     OW67167  13.929   5.046   1.055
55112SOL    HW167168  13.906   5.085   1.140
55112SOL    HW267169  13.851   4.998   1.029
55113SOL     OW67170  10.960  12.725   9.091
55113SOL    HW167171  10.910  12.734   9.010
55113SOL    HW267172  10.900  12.683   9.152
55114SOL     OW67173   4.367  10.418  11.178
55114SOL    HW167174   4.425  10.430  11.253
55114SOL    HW267175   4.372  10.324  11.158
55115SOL     OW67176  10.887   5.122  14.278
55115SOL    HW167177  10.870   5.052  14.341
55115SOL    HW267178  10.976   5.106  14.246
55116SOL     OW67179   8.904   3.340   1.269
55116SOL    HW167180   8.916   3.306   1.358
55116SOL    HW267181   8.915   3.435   1.279
55117SOL     OW67182   6.934  14.458   9.722
55117SOL    HW167183   6.909  14.524   9.657
55117SOL    HW267184   6.962  14.383   9.670
55118SOL     OW67185   6.287   2.039   6.076
55118SOL    HW167186   6.201   2.041   6.033
55118SOL    HW267187   6.325   1.955   6.048
55119SOL     OW67188  11.400   8.551   2.956
55119SOL    HW167189  11.342   8.536   3.030
55119SOL    HW267190  11.341   8.554   2.880
55120SOL     OW67191   9.020   9.582   5.598
55120SOL    HW167192   8.926   9.584   5.616
55120SOL    HW267193   9.028   9.611   5.507
55121SOL     OW67194  12.974   6.177   5.739
55121SOL    HW167195  12.926   6.260   5.727
55121SOL    HW267196  12.944   6.122   5.667
55122SOL     OW67197   7.868  11.896  14.308
55122SOL    HW167198   7.826  11.837  14.245
55122SOL    HW267199   7.828  11.875  14.392
55123SOL     OW67200   0.445  10.255   5.478
55123SOL    HW167201   0.408  10.305   5.405
55123SOL    HW267202   0.386  10.181   5.490
55124SOL     OW67203  10.066   1.118  12.620
55124SOL    HW167204  10.017   1.165  12.553
55124SOL    HW267205  10.026   1.032  12.624
55125SOL     OW67206  12.513  10.411   2.951
55125SOL    HW167207  12.603  10.380   2.955
55125SOL    HW267208  12.472  10.358   2.882
55126SOL     OW67209   6.505   7.429  11.623
55126SOL    HW167210   6.433   7.490  11.627
55126SOL    HW267211   6.489   7.368  11.696
55127SOL     OW67212   1.245  12.709   1.731
55127SOL    HW167213   1.336  12.702   1.700
55127SOL    HW267214   1.231  12.630   1.782
55128SOL     OW67215   8.089  14.416   6.242
55128SOL    HW167216   8.049  14.412   6.329
55128SOL    HW267217   8.015  14.430   6.183
55129SOL     OW67218  12.840   9.821  13.382
55129SOL    HW167219  12.818   9.874  13.458
55129SOL    HW267220  12.844   9.731  13.414
55130SOL     OW67221   5.580  11.466   8.498
55130SOL    HW167222   5.652  11.502   8.549
55130SOL    HW267223   5.572  11.376   8.528
55131SOL     OW67224  14.637   8.840   5.341
55131SOL    HW167225  14.603   8.925   5.315
55131SOL    HW267226  14.607   8.780   5.273
55132SOL     OW67227   1.905   7.283   0.413
55132SOL    HW167228   1.845   7.309   0.344
55132SOL    HW267229   1.991   7.311   0.382
55133SOL     OW67230   9.148   2.000   6.323
55133SOL    HW167231   9.146   2.094   6.341
55133SOL    HW267232   9.096   1.990   6.243
55134SOL     OW67233  11.904   1.419   0.177
55134SOL    HW167234  11.855   1.360   0.235
55134SOL    HW267235  11.861   1.411   0.092
55135SOL     OW67236  11.778   4.488   1.994
55135SOL    HW167237  11.836   4.552   1.952
55135SOL    HW267238  11.831   4.408   2.000
55136SOL     OW67239  14.237   2.777   7.002
55136SOL    HW167240  14.185   2.715   7.054
55136SOL    HW267241  14.306   2.805   7.062
55137SOL     OW67242   3.292   7.692   4.775
55137SOL    HW167243   3.263   7.712   4.864
55137SOL    HW267244   3.335   7.607   4.782
55138SOL     OW67245   4.826   5.618   9.178
55138SOL    HW167246   4.737   5.583   9.165
55138SOL    HW267247   4.883   5.556   9.132
55139SOL     OW67248   2.169  13.852   2.313
55139SOL    HW167249   2.182  13.757   2.310
55139SOL    HW267250   2.211  13.879   2.395
55140SOL     OW67251   5.744  10.664   3.853
55140SOL    HW167252   5.692  10.669   3.934
55140SOL    HW267253   5.758  10.571   3.838
55141SOL     OW67254  12.717   3.992  13.075
55141SOL    HW167255  12.654   4.009  13.006
55141SOL    HW267256  12.792   3.951  13.031
55142SOL     OW67257   3.826   4.571   9.203
55142SOL    HW167258   3.835   4.639   9.136
55142SOL    HW267259   3.845   4.616   9.285
55143SOL     OW67260  13.236  12.810   4.359
55143SOL    HW167261  13.313  12.769   4.320
55143SOL    HW267262  13.204  12.869   4.291
55144SOL     OW67263   6.295  13.420  10.618
55144SOL    HW167264   6.360  13.485  10.645
55144SOL    HW267265   6.292  13.358  10.691
55145SOL     OW67266  14.512  14.133   5.548
55145SOL    HW167267  14.436  14.078   5.569
55145SOL    HW267268  14.500  14.156   5.456
55146SOL     OW67269   0.811   9.054   6.802
55146SOL    HW167270   0.769   9.101   6.730
55146SOL    HW267271   0.798   9.110   6.878
55147SOL     OW67272  12.695   9.351   6.663
55147SOL    HW167273  12.673   9.444   6.676
55147SOL    HW267274  12.712   9.343   6.569
55148SOL     OW67275  10.209  11.755  12.685
55148SOL    HW167276  10.281  11.784  12.741
55148SOL    HW267277  10.152  11.832  12.677
55149SOL     OW67278  13.356   0.809  14.872
55149SOL    HW167279  13.451   0.808  14.859
55149SOL    HW267280  13.321   0.767  14.793
55150SOL     OW67281  11.229   1.957   1.654
55150SOL    HW167282  11.284   2.009   1.596
55150SOL    HW267283  11.170   1.910   1.596
55151SOL     OW67284   3.415   1.862   9.570
55151SOL    HW167285   3.476   1.929   9.538
55151SOL    HW267286   3.394   1.811   9.492
55152SOL     OW67287   0.594   1.460   6.610
55152SOL    HW167288   0.511   1.470   6.563
55152SOL    HW267289   0.649   1.411   6.550
55153SOL     OW67290   0.000  13.586   7.308
55153SOL    HW167291  14.854  13.670   7.343
55153SOL    HW267292  14.810  13.558   7.250
55154SOL     OW67293   8.519   6.860   3.694
55154SOL    HW167294   8.605   6.879   3.732
55154SOL    HW267295   8.479   6.945   3.683
55155SOL     OW67296   1.613  13.047   1.822
55155SOL    HW167297   1.627  13.074   1.913
55155SOL    HW267298   1.630  13.126   1.771
55156SOL     OW67299   0.471  13.737  13.552
55156SOL    HW167300   0.382  13.770  13.564
55156SOL    HW267301   0.461  13.642  13.552
55157SOL     OW67302   2.908   1.240   0.627
55157SOL    HW167303   2.942   1.240   0.537
55157SOL    HW267304   2.946   1.318   0.667
55158SOL     OW67305  11.927   8.860   7.550
55158SOL    HW167306  11.851   8.871   7.607
55158SOL    HW267307  12.002   8.853   7.610
55159SOL     OW67308   9.923   2.576  11.525
55159SOL    HW167309   9.879   2.499  11.488
55159SOL    HW267310   9.858   2.646  11.519
55160SOL     OW67311  10.840   1.518   7.245
55160SOL    HW167312  10.782   1.512   7.169
55160SOL    HW267313  10.872   1.608   7.245
55161SOL     OW67314   2.319   9.192   7.099
55161SOL    HW167315   2.350   9.244   7.025
55161SOL    HW267316   2.323   9.252   7.173
55162SOL     OW67317   4.641   3.164  11.915
55162SOL    HW167318   4.546   3.170  11.929
55162SOL    HW267319   4.655   3.202  11.829
55163SOL     OW67320   9.658   4.557  11.718
55163SOL    HW167321   9.640   4.484  11.778
55163SOL    HW267322   9.671   4.515  11.633
55164SOL     OW67323   1.654   9.457   9.578
55164SOL    HW167324   1.670   9.552   9.579
55164SOL    HW267325   1.629   9.436   9.667
55165SOL     OW67326   1.718   4.267   5.944
55165SOL    HW167327   1.627   4.246   5.923
55165SOL    HW267328   1.763   4.265   5.860
55166SOL     OW67329   8.766  12.757   8.165
55166SOL    HW167330   8.844  12.710   8.193
55166SOL    HW267331   8.705  12.688   8.139
55167SOL     OW67332   9.095   5.150   2.421
55167SOL    HW167333   9.182   5.179   2.450
55167SOL    HW267334   9.058   5.105   2.497
55168SOL     OW67335  13.842   0.940   4.761
55168SOL    HW167336  13.895   1.013   4.792
55168SOL    HW267337  13.757   0.952   4.803
55169SOL     OW67338  10.888   2.964   3.795
55169SOL    HW167339  10.857   3.001   3.712
55169SOL    HW267340  10.807   2.938   3.840
55170SOL     OW67341  12.514   0.336  13.313
55170SOL    HW167342  12.507   0.431  13.306
55170SOL    HW267343  12.445   0.311  13.375
55171SOL     OW67344   8.837  14.662  11.599
55171SOL    HW167345   8.817  14.575  11.633
55171SOL    HW267346   8.817  14.722  11.671
55172SOL     OW67347   9.617   6.750  13.505
55172SOL    HW167348   9.682   6.682  13.488
55172SOL    HW267349   9.534   6.702  13.512
55173SOL     OW67350   8.460   5.480   9.169
55173SOL    HW167351   8.463   5.554   9.108
55173SOL    HW267352   8.441   5.405   9.113
55174SOL     OW67353   7.029   2.685   9.838
55174SOL    HW167354   7.110   2.639   9.817
55174SOL    HW267355   6.977   2.682   9.757
55175SOL     OW67356   9.398   6.753  12.866
55175SOL    HW167357   9.321   6.699  12.879
55175SOL    HW267358   9.423   6.740  12.774
55176SOL     OW67359   7.026   9.379  13.993
55176SOL    HW167360   7.108   9.330  13.987
55176SOL    HW267361   7.025   9.413  14.082
55177SOL     OW67362   7.113  14.593  12.400
55177SOL    HW167363   7.139  14.590  12.492
55177SOL    HW267364   7.097  14.501  12.378
55178SOL     OW67365  10.786  13.107  13.187
55178SOL    HW167366  10.708  13.148  13.151
55178SOL    HW267367  10.768  13.013  13.185
55179SOL     OW67368  13.370   6.028  10.268
55179SOL    HW167369  13.378   5.946  10.219
55179SOL    HW267370  13.459   6.062  10.275
55180SOL     OW67371   3.569   0.883   4.496
55180SOL    HW167372   3.641   0.913   4.551
55180SOL    HW267373   3.490   0.900   4.548
55181SOL     OW67374   0.751   7.422  13.346
55181SOL    HW167375   0.701   7.423  13.428
55181SOL    HW267376   0.765   7.329  13.328
55182SOL     OW67377  14.858   4.228   6.457
55182SOL    HW167378  14.819   4.273   6.382
55182SOL    HW267379   0.066   4.208   6.428
55183SOL     OW67380   5.115   8.528  11.191
55183SOL    HW167381   5.147   8.586  11.122
55183SOL    HW267382   5.031   8.495  11.158
55184SOL     OW67383  12.711   4.814  12.059
55184SOL    HW167384  12.672   4.755  12.124
55184SOL    HW267385  12.805   4.806  12.073
55185SOL     OW67386   3.245   2.692   4.419
55185SOL    HW167387   3.314   2.754   4.395
55185SOL    HW267388   3.292   2.613   4.447
55186SOL     OW67389  13.978   4.668   9.474
55186SOL    HW167390  13.942   4.754   9.497
55186SOL    HW267391  13.902   4.610   9.475
55187SOL     OW67392   5.826  10.609  11.274
55187SOL    HW167393   5.842  10.655  11.192
55187SOL    HW267394   5.732  10.618  11.289
55188SOL     OW67395   2.363  12.065  11.432
55188SOL    HW167396   2.390  11.976  11.408
55188SOL    HW267397   2.270  12.057  11.451
55189SOL     OW67398   3.974   4.702   7.208
55189SOL    HW167399   3.931   4.701   7.293
55189SOL    HW267400   3.905   4.677   7.146
55190SOL     OW67401   5.442   9.468   7.057
55190SOL    HW167402   5.379   9.478   7.129
55190SOL    HW267403   5.506   9.405   7.091
55191SOL     OW67404   5.610  14.104   4.457
55191SOL    HW167405   5.616  14.184   4.405
55191SOL    HW267406   5.697  14.093   4.496
55192SOL     OW67407   3.958  10.556   4.785
55192SOL    HW167408   3.880  10.586   4.832
55192SOL    HW267409   3.925  10.494   4.720
55193SOL     OW67410   9.463   7.278  10.882
55193SOL    HW167411   9.517   7.357  10.891
55193SOL    HW267412   9.486   7.243  10.796
55194SOL     OW67413   2.493   4.291   2.675
55194SOL    HW167414   2.531   4.320   2.758
55194SOL    HW267415   2.472   4.371   2.628
55195SOL     OW67416  10.138   5.890   7.931
55195SOL    HW167417  10.211   5.925   7.981
55195SOL    HW267418  10.078   5.964   7.921
55196SOL     OW67419   9.797   0.177   9.749
55196SOL    HW167420   9.885   0.210   9.732
55196SOL    HW267421   9.743   0.255   9.759
55197SOL     OW67422   4.798  11.611   3.487
55197SOL    HW167423   4.726  11.636   3.429
55197SOL    HW267424   4.874  11.601   3.429
55198SOL     OW67425   0.920   1.477   4.937
55198SOL    HW167426   0.888   1.390   4.959
55198SOL    HW267427   0.846   1.520   4.895
55199SOL     OW67428  10.327   4.408  13.517
55199SOL    HW167429  10.350   4.501  13.523
55199SOL    HW267430  10.320   4.391  13.423
55200SOL     OW67431   4.844   9.731   5.580
55200SOL    HW167432   4.879   9.746   5.492
55200SOL    HW267433   4.880   9.802   5.633
55201SOL     OW67434  12.365   9.695   9.355
55201SOL    HW167435  12.270   9.697   9.358
55201SOL    HW267436  12.391   9.646   9.433
55202SOL     OW67437   7.289   8.950  10.764
55202SOL    HW167438   7.345   9.026  10.745
55202SOL    HW267439   7.200   8.984  10.758
55203SOL     OW67440   2.593  10.721   6.759
55203SOL    HW167441   2.680  10.720   6.799
55203SOL    HW267442   2.586  10.807   6.718
55204SOL     OW67443  13.737   0.645   7.616
55204SOL    HW167444  13.701   0.558   7.599
55204SOL    HW267445  13.829   0.630   7.635
55205SOL     OW67446   7.972   6.234  12.984
55205SOL    HW167447   7.985   6.298  12.913
55205SOL    HW267448   7.933   6.159  12.940
55206SOL     OW67449  13.458   9.199  10.877
55206SOL    HW167450  13.385   9.169  10.822
55206SOL    HW267451  13.425   9.279  10.919
55207SOL     OW67452  10.803   1.502   0.140
55207SOL    HW167453  10.841   1.452   0.212
55207SOL    HW267454  10.777   1.435   0.076
55208SOL     OW67455   3.992   5.001   2.636
55208SOL    HW167456   3.924   4.935   2.626
55208SOL    HW267457   4.021   4.993   2.727
55209SOL     OW67458   0.908  11.127  13.171
55209SOL    HW167459   0.943  11.164  13.252
55209SOL    HW267460   0.982  11.083  13.130
55210SOL     OW67461   5.538   7.305   2.177
55210SOL    HW167462   5.444   7.316   2.168
55210SOL    HW267463   5.549   7.223   2.224
55211SOL     OW67464  12.527   1.083  13.590
55211SOL    HW167465  12.464   1.103  13.660
55211SOL    HW267466  12.572   1.166  13.574
55212SOL     OW67467   6.908  11.909   9.896
55212SOL    HW167468   6.923  11.816   9.911
55212SOL    HW267469   6.996  11.945   9.883
55213SOL     OW67470   2.621   1.058   2.315
55213SOL    HW167471   2.530   1.079   2.295
55213SOL    HW267472   2.617   0.984   2.375
55214SOL     OW67473  13.268   6.437   6.898
55214SOL    HW167474  13.328   6.472   6.964
55214SOL    HW267475  13.289   6.343   6.895
55215SOL     OW67476  13.953   1.367  10.270
55215SOL    HW167477  14.031   1.314  10.290
55215SOL    HW267478  13.895   1.352  10.345
55216SOL     OW67479  10.428   8.736   4.559
55216SOL    HW167480  10.451   8.768   4.646
55216SOL    HW267481  10.484   8.786   4.499
55217SOL     OW67482  13.533   8.124  11.828
55217SOL    HW167483  13.584   8.192  11.784
55217SOL    HW267484  13.482   8.172  11.894
55218SOL     OW67485   1.109   6.512  14.702
55218SOL    HW167486   1.088   6.550  14.787
55218SOL    HW267487   1.046   6.552  14.641
55219SOL     OW67488   5.820   2.160  12.905
55219SOL    HW167489   5.895   2.209  12.872
55219SOL    HW267490   5.815   2.083  12.848
55220SOL     OW67491   9.018   3.008   1.762
55220SOL    HW167492   8.956   2.983   1.693
55220SOL    HW267493   9.012   3.104   1.764
55221SOL     OW67494   6.413   0.686   1.320
55221SOL    HW167495   6.353   0.693   1.246
55221SOL    HW267496   6.487   0.741   1.296
55222SOL     OW67497   0.738  13.716   9.315
55222SOL    HW167498   0.821  13.675   9.339
55222SOL    HW267499   0.733  13.794   9.370
55223SOL     OW67500   2.893  10.221  12.331
55223SOL    HW167501   2.929  10.133  12.339
55223SOL    HW267502   2.815  10.220  12.386
55224SOL     OW67503  14.753  11.323   6.028
55224SOL    HW167504  14.787  11.235   6.044
55224SOL    HW267505  14.794  11.377   6.095
55225SOL     OW67506  14.337   9.634   9.942
55225SOL    HW167507  14.339   9.679  10.026
55225SOL    HW267508  14.380   9.694   9.881
55226SOL     OW67509   9.875   7.510   2.396
55226SOL    HW167510   9.829   7.584   2.436
55226SOL    HW267511   9.827   7.494   2.315
55227SOL     OW67512   0.232   1.032   6.138
55227SOL    HW167513   0.181   1.055   6.215
55227SOL    HW267514   0.303   1.096   6.135
55228SOL     OW67515  11.764   0.689  10.481
55228SOL    HW167516  11.855   0.679  10.451
55228SOL    HW267517  11.770   0.689  10.576
55229SOL     OW67518   4.611   9.759   0.185
55229SOL    HW167519   4.586   9.754   0.093
55229SOL    HW267520   4.669   9.835   0.190
55230SOL     OW67521   0.368   5.713   9.859
55230SOL    HW167522   0.320   5.661   9.794
55230SOL    HW267523   0.300   5.750   9.915
55231SOL     OW67524   2.589   3.380  12.458
55231SOL    HW167525   2.526   3.336  12.400
55231SOL    HW267526   2.670   3.331  12.448
55232SOL     OW67527   5.214  13.928   1.674
55232SOL    HW167528   5.242  14.008   1.630
55232SOL    HW267529   5.282  13.864   1.656
55233SOL     OW67530   8.500   3.246   7.859
55233SOL    HW167531   8.553   3.326   7.866
55233SOL    HW267532   8.561   3.179   7.828
55234SOL     OW67533  10.267  12.641   4.240
55234SOL    HW167534  10.292  12.622   4.150
55234SOL    HW267535  10.349  12.640   4.289
55235SOL     OW67536  12.604   7.646   3.111
55235SOL    HW167537  12.635   7.620   3.024
55235SOL    HW267538  12.681   7.641   3.167
55236SOL     OW67539   4.969  14.372   7.805
55236SOL    HW167540   4.937  14.324   7.728
55236SOL    HW267541   4.904  14.439   7.821
55237SOL     OW67542   1.915   9.443   7.781
55237SOL    HW167543   1.936   9.364   7.831
55237SOL    HW267544   1.893   9.409   7.694
55238SOL     OW67545   9.327   4.353   7.921
55238SOL    HW167546   9.273   4.290   7.970
55238SOL    HW267547   9.414   4.313   7.919
55239SOL     OW67548   0.647   1.252  10.637
55239SOL    HW167549   0.721   1.194  10.652
55239SOL    HW267550   0.676   1.311  10.568
55240SOL     OW67551  10.049  12.007  11.384
55240SOL    HW167552  10.000  11.925  11.373
55240SOL    HW267553   9.996  12.073  11.339
55241SOL     OW67554   8.221   8.246  13.481
55241SOL    HW167555   8.292   8.297  13.518
55241SOL    HW267556   8.264   8.171  13.439
55242SOL     OW67557  11.488  11.605   6.073
55242SOL    HW167558  11.449  11.525   6.109
55242SOL    HW267559  11.525  11.650   6.149
55243SOL     OW67560  13.524   7.221   4.425
55243SOL    HW167561  13.533   7.293   4.487
55243SOL    HW267562  13.446   7.242   4.374
55244SOL     OW67563   0.076  12.502   0.577
55244SOL    HW167564   0.004  12.516   0.515
55244SOL    HW267565   0.155  12.506   0.523
55245SOL     OW67566   1.813   8.103   4.655
55245SOL    HW167567   1.836   8.030   4.598
55245SOL    HW267568   1.790   8.062   4.739
55246SOL     OW67569   0.281  13.841   0.176
55246SOL    HW167570   0.309  13.772   0.237
55246SOL    HW267571   0.362  13.888   0.155
55247SOL     OW67572  13.488  12.190   5.681
55247SOL    HW167573  13.519  12.263   5.628
55247SOL    HW267574  13.565  12.160   5.728
55248SOL     OW67575   4.555  14.224  14.094
55248SOL    HW167576   4.600  14.290  14.042
55248SOL    HW267577   4.610  14.147  14.089
55249SOL     OW67578   8.259   2.478   6.696
55249SOL    HW167579   8.255   2.555   6.640
55249SOL    HW267580   8.172   2.438   6.687
55250SOL     OW67581  12.801   4.713   7.467
55250SOL    HW167582  12.794   4.618   7.460
55250SOL    HW267583  12.820   4.742   7.378
55251SOL     OW67584  10.500   1.301   7.196
55251SOL    HW167585  10.583   1.349   7.187
55251SOL    HW267586  10.522   1.226   7.252
55252SOL     OW67587   1.810   9.556   4.676
55252SOL    HW167588   1.817   9.491   4.607
55252SOL    HW267589   1.850   9.635   4.639
55253SOL     OW67590   3.283   2.251   1.631
55253SOL    HW167591   3.348   2.214   1.570
55253SOL    HW267592   3.301   2.345   1.631
55254SOL     OW67593   3.845   9.166   3.619
55254SOL    HW167594   3.875   9.075   3.614
55254SOL    HW267595   3.849   9.197   3.529
55255SOL     OW67596   7.127   9.372  10.444
55255SOL    HW167597   7.049   9.390  10.496
55255SOL    HW267598   7.119   9.430  10.368
55256SOL     OW67599   5.310   6.260   8.566
55256SOL    HW167600   5.337   6.339   8.612
55256SOL    HW267601   5.238   6.225   8.618
55257SOL     OW67602   7.849  11.732   9.308
55257SOL    HW167603   7.788  11.799   9.277
55257SOL    HW267604   7.927  11.781   9.333
55258SOL     OW67605   3.840   2.264   5.001
55258SOL    HW167606   3.807   2.182   5.037
55258SOL    HW267607   3.934   2.263   5.019
55259SOL     OW67608   9.948   3.783   5.028
55259SOL    HW167609   9.993   3.717   5.080
55259SOL    HW267610   9.893   3.830   5.091
55260SOL     OW67611   9.405   5.575  13.153
55260SOL    HW167612   9.343   5.524  13.102
55260SOL    HW267613   9.360   5.658  13.171
55261SOL     OW67614  11.367   2.326   6.596
55261SOL    HW167615  11.396   2.317   6.505
55261SOL    HW267616  11.275   2.302   6.594
55262SOL     OW67617  13.178   8.506   4.516
55262SOL    HW167618  13.238   8.535   4.584
55262SOL    HW267619  13.225   8.521   4.434
55263SOL     OW67620   3.496  12.117   4.717
55263SOL    HW167621   3.488  12.166   4.799
55263SOL    HW267622   3.559  12.048   4.737
55264SOL     OW67623  10.768   2.314   0.288
55264SOL    HW167624  10.727   2.228   0.289
55264SOL    HW267625  10.783   2.332   0.195
55265SOL     OW67626  11.852   9.324   7.638
55265SOL    HW167627  11.891   9.410   7.624
55265SOL    HW267628  11.910   9.282   7.701
55266SOL     OW67629  12.982   0.369  14.440
55266SOL    HW167630  12.959   0.314  14.366
55266SOL    HW267631  13.061   0.415  14.413
55267SOL     OW67632  10.559  10.897   3.858
55267SOL    HW167633  10.498  10.960   3.897
55267SOL    HW267634  10.503  10.824   3.831
55268SOL     OW67635   0.370   4.270  10.556
55268SOL    HW167636   0.304   4.262  10.625
55268SOL    HW267637   0.322   4.253  10.475
55269SOL     OW67638  14.580   3.617  12.737
55269SOL    HW167639  14.641   3.565  12.789
55269SOL    HW267640  14.547   3.556  12.671
55270SOL     OW67641   0.297   9.775   0.226
55270SOL    HW167642   0.323   9.759   0.317
55270SOL    HW267643   0.376   9.807   0.184
55271SOL     OW67644   4.326   2.426   5.067
55271SOL    HW167645   4.366   2.348   5.028
55271SOL    HW267646   4.366   2.432   5.154
55272SOL     OW67647   3.417   7.630   5.639
55272SOL    HW167648   3.417   7.539   5.670
55272SOL    HW267649   3.427   7.682   5.719
55273SOL     OW67650  10.978   2.451  11.656
55273SOL    HW167651  11.064   2.487  11.677
55273SOL    HW267652  10.935   2.440  11.741
55274SOL     OW67653   4.350   6.097   8.647
55274SOL    HW167654   4.286   6.046   8.597
55274SOL    HW267655   4.376   6.167   8.587
55275SOL     OW67656  10.550   5.798   8.458
55275SOL    HW167657  10.638   5.798   8.421
55275SOL    HW267658  10.512   5.714   8.432
55276SOL     OW67659   2.641   7.864  14.422
55276SOL    HW167660   2.734   7.850  14.440
55276SOL    HW267661   2.623   7.951  14.457
55277SOL     OW67662   8.347  10.635   3.577
55277SOL    HW167663   8.437  10.621   3.550
55277SOL    HW267664   8.303  10.552   3.559
55278SOL     OW67665   2.275  13.887   2.882
55278SOL    HW167666   2.360  13.861   2.845
55278SOL    HW267667   2.261  13.827   2.954
55279SOL     OW67668   4.293   1.530   3.102
55279SOL    HW167669   4.307   1.500   3.192
55279SOL    HW267670   4.208   1.493   3.078
55280SOL     OW67671  10.151  13.843   6.080
55280SOL    HW167672  10.138  13.868   5.988
55280SOL    HW267673  10.225  13.896   6.109
55281SOL     OW67674   8.499  10.738  11.959
55281SOL    HW167675   8.427  10.801  11.972
55281SOL    HW267676   8.578  10.787  11.982
55282SOL     OW67677   7.598   1.016   8.776
55282SOL    HW167678   7.506   1.027   8.799
55282SOL    HW267679   7.641   1.097   8.803
55283SOL     OW67680  14.532  13.754   5.862
55283SOL    HW167681  14.583  13.676   5.882
55283SOL    HW267682  14.566  13.821   5.921
55284SOL     OW67683   8.098   0.754   0.961
55284SOL    HW167684   8.070   0.703   0.886
55284SOL    HW267685   8.181   0.794   0.934
55285SOL     OW67686  11.227  13.503  12.790
55285SOL    HW167687  11.290  13.499  12.862
55285SOL    HW267688  11.142  13.508  12.833
55286SOL     OW67689   1.912  10.551  13.516
55286SOL    HW167690   1.878  10.552  13.606
55286SOL    HW267691   1.877  10.631  13.476
55287SOL     OW67692   0.376  12.321   9.020
55287SOL    HW167693   0.367  12.388   9.088
55287SOL    HW267694   0.456  12.345   8.974
55288SOL     OW67695   7.948   7.399   7.785
55288SOL    HW167696   7.945   7.335   7.714
55288SOL    HW267697   7.919   7.350   7.862
55289SOL     OW67698  13.947   2.067   3.775
55289SOL    HW167699  14.018   2.102   3.828
55289SOL    HW267700  13.921   1.986   3.820
55290SOL     OW67701   5.545   6.401   9.241
55290SOL    HW167702   5.478   6.469   9.240
55290SOL    HW267703   5.541   6.365   9.330
55291SOL     OW67704   8.946   5.304  14.374
55291SOL    HW167705   8.895   5.352  14.440
55291SOL    HW267706   8.888   5.299  14.298
55292SOL     OW67707  12.110   1.183   9.126
55292SOL    HW167708  12.148   1.172   9.039
55292SOL    HW267709  12.109   1.095   9.163
55293SOL     OW67710   0.975   8.395   4.741
55293SOL    HW167711   0.985   8.310   4.697
55293SOL    HW267712   0.940   8.453   4.674
55294SOL     OW67713   0.427   0.158   9.203
55294SOL    HW167714   0.491   0.198   9.262
55294SOL    HW267715   0.348   0.150   9.256
55295SOL     OW67716   2.866   2.180   8.721
55295SOL    HW167717   2.830   2.234   8.651
55295SOL    HW267718   2.836   2.091   8.700
55296SOL     OW67719   3.558   4.361  10.802
55296SOL    HW167720   3.468   4.341  10.825
55296SOL    HW267721   3.567   4.332  10.711
55297SOL     OW67722   2.175   4.264   2.484
55297SOL    HW167723   2.237   4.327   2.450
55297SOL    HW267724   2.092   4.312   2.490
55298SOL     OW67725   3.483   4.596   6.173
55298SOL    HW167726   3.533   4.659   6.120
55298SOL    HW267727   3.518   4.511   6.148
55299SOL     OW67728  10.591  11.300   9.516
55299SOL    HW167729  10.497  11.285   9.532
55299SOL    HW267730  10.594  11.382   9.467
55300SOL     OW67731  10.192  14.399   1.788
55300SOL    HW167732  10.108  14.372   1.826
55300SOL    HW267733  10.171  14.476   1.735
55301SOL     OW67734   0.596   9.875   6.369
55301SOL    HW167735   0.522   9.841   6.420
55301SOL    HW267736   0.667   9.812   6.387
55302SOL     OW67737   4.794  12.144   7.164
55302SOL    HW167738   4.730  12.155   7.094
55302SOL    HW267739   4.759  12.195   7.237
55303SOL     OW67740   9.538   4.063   5.101
55303SOL    HW167741   9.486   4.068   5.020
55303SOL    HW267742   9.483   4.104   5.167
55304SOL     OW67743  12.131   0.941  13.711
55304SOL    HW167744  12.148   1.025  13.754
55304SOL    HW267745  12.215   0.916  13.674
55305SOL     OW67746   3.034   5.323   0.311
55305SOL    HW167747   3.123   5.351   0.334
55305SOL    HW267748   3.027   5.338   0.217
55306SOL     OW67749   8.220   8.528  10.837
55306SOL    HW167750   8.200   8.517  10.930
55306SOL    HW267751   8.299   8.476  10.823
55307SOL     OW67752   9.084   5.263   5.290
55307SOL    HW167753   9.090   5.311   5.372
55307SOL    HW267754   9.145   5.190   5.300
55308SOL     OW67755  13.494   3.585  11.642
55308SOL    HW167756  13.484   3.672  11.679
55308SOL    HW267757  13.587   3.578  11.620
55309SOL     OW67758  13.176   8.269  10.460
55309SOL    HW167759  13.266   8.288  10.434
55309SOL    HW267760  13.122   8.327  10.406
55310SOL     OW67761   6.939   5.887  10.118
55310SOL    HW167762   7.032   5.895  10.136
55310SOL    HW267763   6.934   5.831  10.041
55311SOL     OW67764   7.195  12.804   9.289
55311SOL    HW167765   7.149  12.722   9.310
55311SOL    HW267766   7.217  12.795   9.197
55312SOL     OW67767   5.442  12.675   5.213
55312SOL    HW167768   5.501  12.735   5.258
55312SOL    HW267769   5.456  12.694   5.120
55313SOL     OW67770   1.959   7.252   5.397
55313SOL    HW167771   1.972   7.233   5.305
55313SOL    HW267772   1.933   7.344   5.399
55314SOL     OW67773   5.972  12.019  10.767
55314SOL    HW167774   6.010  12.071  10.838
55314SOL    HW267775   6.044  12.007  10.705
55315SOL     OW67776  10.460   3.142  12.007
55315SOL    HW167777  10.446   3.095  11.925
55315SOL    HW267778  10.371   3.155  12.042
55316SOL     OW67779   3.432   0.487   1.307
55316SOL    HW167780   3.374   0.519   1.238
55316SOL    HW267781   3.374   0.469   1.381
55317SOL     OW67782   6.724   9.823   3.237
55317SOL    HW167783   6.656   9.816   3.304
55317SOL    HW267784   6.771   9.903   3.260
55318SOL     OW67785   5.938   9.654   2.950
55318SOL    HW167786   5.869   9.612   2.898
55318SOL    HW267787   5.891   9.716   3.006
55319SOL     OW67788   3.081  10.883   0.090
55319SOL    HW167789   3.049  10.798   0.061
55319SOL    HW267790   3.026  10.946   0.042
55320SOL     OW67791   5.647   4.862   8.703
55320SOL    HW167792   5.571   4.804   8.715
55320SOL    HW267793   5.638   4.894   8.613
55321SOL     OW67794  10.455   8.119   3.873
55321SOL    HW167795  10.470   8.148   3.963
55321SOL    HW267796  10.488   8.030   3.870
55322SOL     OW67797   9.477   9.388  10.134
55322SOL    HW167798   9.498   9.296  10.118
55322SOL    HW267799   9.562   9.429  10.153
55323SOL     OW67800   8.036   2.914  10.701
55323SOL    HW167801   7.993   2.858  10.766
55323SOL    HW267802   8.102   2.858  10.661
55324SOL     OW67803   1.282   2.931   8.606
55324SOL    HW167804   1.245   2.881   8.533
55324SOL    HW267805   1.337   2.997   8.564
55325SOL     OW67806  10.506   7.781  11.496
55325SOL    HW167807  10.517   7.820  11.409
55325SOL    HW267808  10.461   7.698  11.480
55326SOL     OW67809  10.197   4.088   6.692
55326SOL    HW167810  10.183   4.111   6.784
55326SOL    HW267811  10.136   4.143   6.643
55327SOL     OW67812   4.730   0.956   4.554
55327SOL    HW167813   4.705   0.906   4.632
55327SOL    HW267814   4.649   0.965   4.504
55328SOL     OW67815  14.546   6.186  10.040
55328SOL    HW167816  14.638   6.161  10.040
55328SOL    HW267817  14.546   6.277  10.071
55329SOL     OW67818   6.974   8.801   8.722
55329SOL    HW167819   7.063   8.764   8.726
55329SOL    HW267820   6.954   8.805   8.629
55330SOL     OW67821   8.940   5.466   9.918
55330SOL    HW167822   8.923   5.551   9.877
55330SOL    HW267823   9.011   5.428   9.866
55331SOL     OW67824  13.027   7.968   4.629
55331SOL    HW167825  12.995   7.914   4.701
55331SOL    HW267826  12.988   8.054   4.646
55332SOL     OW67827   9.553  10.222   1.507
55332SOL    HW167828   9.511  10.301   1.542
55332SOL    HW267829   9.635  10.252   1.469
55333SOL     OW67830  13.179  11.714   4.142
55333SOL    HW167831  13.157  11.727   4.235
55333SOL    HW267832  13.240  11.785   4.122
55334SOL     OW67833   5.040  14.462   4.145
55334SOL    HW167834   5.053  14.552   4.174
55334SOL    HW267835   4.952  14.462   4.107
55335SOL     OW67836   3.356   1.063   3.501
55335SOL    HW167837   3.396   0.986   3.540
55335SOL    HW267838   3.428   1.109   3.458
55336SOL     OW67839  14.285   0.101  13.719
55336SOL    HW167840  14.363   0.140  13.759
55336SOL    HW267841  14.217   0.110  13.785
55337SOL     OW67842   8.684   8.316   1.417
55337SOL    HW167843   8.600   8.358   1.434
55337SOL    HW267844   8.714   8.285   1.502
55338SOL     OW67845   4.619  10.538   9.486
55338SOL    HW167846   4.548  10.564   9.428
55338SOL    HW267847   4.677  10.485   9.430
55339SOL     OW67848   5.564   6.645   2.835
55339SOL    HW167849   5.575   6.729   2.880
55339SOL    HW267850   5.651   6.623   2.804
55340SOL     OW67851   4.795   0.884   5.856
55340SOL    HW167852   4.766   0.969   5.889
55340SOL    HW267853   4.849   0.849   5.926
55341SOL     OW67854   5.862  12.715  12.926
55341SOL    HW167855   5.850  12.620  12.930
55341SOL    HW267856   5.909  12.730  12.844
55342SOL     OW67857   8.458   4.161   7.762
55342SOL    HW167858   8.441   4.236   7.820
55342SOL    HW267859   8.553   4.149   7.766
55343SOL     OW67860  13.310  13.371  13.758
55343SOL    HW167861  13.335  13.390  13.849
55343SOL    HW267862  13.342  13.446  13.709
55344SOL     OW67863  14.517   5.375   2.485
55344SOL    HW167864  14.600   5.399   2.525
55344SOL    HW267865  14.486   5.455   2.443
55345SOL     OW67866   9.287   8.432  14.222
55345SOL    HW167867   9.221   8.463  14.284
55345SOL    HW267868   9.313   8.347  14.256
55346SOL     OW67869   6.572  10.189   4.990
55346SOL    HW167870   6.625  10.182   5.069
55346SOL    HW267871   6.630  10.229   4.925
55347SOL     OW67872   3.743  13.336   0.005
55347SOL    HW167873   3.815  13.390   0.036
55347SOL    HW267874   3.707  13.384  14.812
55348SOL     OW67875  12.618   4.426  12.654
55348SOL    HW167876  12.593   4.410  12.745
55348SOL    HW267877  12.623   4.339  12.615
55349SOL     OW67878  12.962   0.081   2.721
55349SOL    HW167879  13.041   0.130   2.698
55349SOL    HW267880  12.959   0.082   2.816
55350SOL     OW67881  11.125  13.227   5.967
55350SOL    HW167882  11.167  13.143   5.949
55350SOL    HW267883  11.169  13.259   6.046
55351SOL     OW67884   6.089  10.171  12.394
55351SOL    HW167885   6.132  10.180  12.480
55351SOL    HW267886   6.118  10.086  12.361
55352SOL     OW67887   9.371   1.586   3.449
55352SOL    HW167888   9.458   1.606   3.413
55352SOL    HW267889   9.327   1.536   3.381
55353SOL     OW67890  12.556   7.159  10.674
55353SOL    HW167891  12.633   7.179  10.620
55353SOL    HW267892  12.487   7.213  10.636
55354SOL     OW67893  12.091  11.496   9.396
55354SOL    HW167894  12.068  11.576   9.347
55354SOL    HW267895  12.126  11.528   9.479
55355SOL     OW67896  13.479  11.895   6.522
55355SOL    HW167897  13.532  11.816   6.534
55355SOL    HW267898  13.525  11.963   6.569
55356SOL     OW67899   2.016   4.502   7.517
55356SOL    HW167900   2.081   4.570   7.532
55356SOL    HW267901   1.946   4.522   7.578
55357SOL     OW67902   7.628   3.800   6.501
55357SOL    HW167903   7.540   3.785   6.537
55357SOL    HW267904   7.666   3.868   6.558
55358SOL     OW67905   7.289   6.459  10.510
55358SOL    HW167906   7.349   6.388  10.533
55358SOL    HW267907   7.293   6.519  10.584
55359SOL     OW67908   9.408  12.926  11.466
55359SOL    HW167909   9.419  12.962  11.378
55359SOL    HW267910   9.338  12.862  11.458
55360SOL     OW67911   3.890   1.205   1.739
55360SOL    HW167912   3.971   1.198   1.790
55360SOL    HW267913   3.823   1.166   1.795
55361SOL     OW67914   1.395   3.027  10.043
55361SOL    HW167915   1.457   3.092  10.009
55361SOL    HW267916   1.337   3.008   9.970
55362SOL     OW67917   6.905   0.258  13.096
55362SOL    HW167918   6.937   0.200  13.026
55362SOL    HW267919   6.948   0.342  13.079
55363SOL     OW67920  12.815   2.732   6.013
55363SOL    HW167921  12.906   2.707   5.994
55363SOL    HW267922  12.766   2.650   6.008
55364SOL     OW67923  12.907   3.225  11.272
55364SOL    HW167924  12.889   3.200  11.362
55364SOL    HW267925  12.867   3.312  11.262
55365SOL     OW67926   0.871   9.186   7.606
55365SOL    HW167927   0.945   9.241   7.631
55365SOL    HW267928   0.797   9.221   7.654
55366SOL     OW67929  11.146   4.543   0.785
55366SOL    HW167930  11.088   4.590   0.726
55366SOL    HW267931  11.094   4.470   0.817
55367SOL     OW67932   5.115   9.213  14.131
55367SOL    HW167933   5.062   9.149  14.178
55367SOL    HW267934   5.083   9.298  14.161
55368SOL     OW67935  13.626   5.587   5.174
55368SOL    HW167936  13.658   5.523   5.111
55368SOL    HW267937  13.584   5.535   5.242
55369SOL     OW67938  14.837   6.928  12.882
55369SOL    HW167939  14.811   6.959  12.795
55369SOL    HW267940   0.046   6.956  12.892
55370SOL     OW67941   7.994   2.709   2.674
55370SOL    HW167942   7.964   2.648   2.742
55370SOL    HW267943   8.060   2.660   2.625
55371SOL     OW67944  11.897  13.966  11.706
55371SOL    HW167945  11.896  13.871  11.692
55371SOL    HW267946  11.828  14.000  11.650
55372SOL     OW67947   5.583  10.454  11.018
55372SOL    HW167948   5.537  10.537  11.029
55372SOL    HW267949   5.673  10.478  10.999
55373SOL     OW67950   0.317   6.015  10.158
55373SOL    HW167951   0.303   5.998  10.065
55373SOL    HW267952   0.235   5.988  10.200
55374SOL     OW67953  13.892   2.022   6.862
55374SOL    HW167954  13.932   1.941   6.828
55374SOL    HW267955  13.953   2.052   6.930
55375SOL     OW67956   7.611   9.898  14.772
55375SOL    HW167957   7.576   9.883  14.684
55375SOL    HW267958   7.666   9.822  14.790
55376SOL     OW67959   7.861  12.635   6.218
55376SOL    HW167960   7.838  12.649   6.310
55376SOL    HW267961   7.864  12.540   6.208
55377SOL     OW67962   6.967   2.317   4.718
55377SOL    HW167963   6.946   2.273   4.636
55377SOL    HW267964   7.001   2.248   4.775
55378SOL     OW67965  12.038  12.028   0.653
55378SOL    HW167966  12.113  12.009   0.597
55378SOL    HW267967  12.007  12.113   0.623
55379SOL     OW67968  11.170  14.090   6.904
55379SOL    HW167969  11.160  14.169   6.852
55379SOL    HW267970  11.213  14.119   6.984
55380SOL     OW67971   5.121  10.815   1.212
55380SOL    HW167972   5.098  10.723   1.220
55380SOL    HW267973   5.097  10.838   1.122
55381SOL     OW67974   0.266   1.922   0.569
55381SOL    HW167975   0.331   1.884   0.628
55381SOL    HW267976   0.315   1.987   0.518
55382SOL     OW67977  10.449   1.198   5.291
55382SOL    HW167978  10.531   1.192   5.241
55382SOL    HW267979  10.401   1.269   5.248
55383SOL     OW67980  11.364   6.672   9.266
55383SOL    HW167981  11.361   6.720   9.184
55383SOL    HW267982  11.380   6.581   9.241
55384SOL     OW67983  10.584  13.335   9.724
55384SOL    HW167984  10.537  13.380   9.653
55384SOL    HW267985  10.599  13.247   9.690
55385SOL     OW67986  10.962   0.010   0.793
55385SOL    HW167987  10.969   0.001   0.698
55385SOL    HW267988  10.982  14.804   0.827
55386SOL     OW67989   5.225  14.237   8.732
55386SOL    HW167990   5.263  14.156   8.697
55386SOL    HW267991   5.159  14.208   8.795
55387SOL     OW67992   5.618   8.661  10.906
55387SOL    HW167993   5.614   8.753  10.880
55387SOL    HW267994   5.638   8.663  11.000
55388SOL     OW67995   8.173   7.363   2.403
55388SOL    HW167996   8.228   7.354   2.325
55388SOL    HW267997   8.139   7.275   2.419
55389SOL     OW67998   8.386  10.075   4.398
55389SOL    HW167999   8.352  10.006   4.340
55389SOL    HW268000   8.308  10.110   4.441
55390SOL     OW68001  14.110   6.223   1.099
55390SOL    HW168002  14.091   6.131   1.115
55390SOL    HW268003  14.193   6.223   1.051
55391SOL     OW68004  12.278  12.078   9.495
55391SOL    HW168005  12.300  12.105   9.406
55391SOL    HW268006  12.320  11.992   9.504
55392SOL     OW68007   1.465   8.825  10.789
55392SOL    HW168008   1.516   8.839  10.868
55392SOL    HW268009   1.503   8.747  10.748
55393SOL     OW68010   4.076   7.858  13.490
55393SOL    HW168011   4.134   7.847  13.566
55393SOL    HW268012   4.034   7.942  13.504
55394SOL     OW68013  13.607   8.412  10.593
55394SOL    HW168014  13.685   8.468  10.599
55394SOL    HW268015  13.610   8.359  10.672
55395SOL     OW68016   1.393   9.999   1.239
55395SOL    HW168017   1.378   9.922   1.185
55395SOL    HW268018   1.446  10.057   1.184
55396SOL     OW68019  12.794   5.517   3.257
55396SOL    HW168020  12.830   5.442   3.304
55396SOL    HW268021  12.699   5.506   3.262
55397SOL     OW68022   1.878   5.194   4.569
55397SOL    HW168023   1.788   5.175   4.596
55397SOL    HW268024   1.869   5.252   4.494
55398SOL     OW68025   2.354   8.125   7.297
55398SOL    HW168026   2.316   8.048   7.254
55398SOL    HW268027   2.427   8.150   7.241
55399SOL     OW68028   0.687   5.869   0.520
55399SOL    HW168029   0.632   5.863   0.441
55399SOL    HW268030   0.776   5.874   0.486
55400SOL     OW68031   4.551   1.364  13.967
55400SOL    HW168032   4.581   1.439  14.017
55400SOL    HW268033   4.586   1.379  13.879
55401SOL     OW68034   5.840   3.040   8.157
55401SOL    HW168035   5.781   3.023   8.084
55401SOL    HW268036   5.878   3.126   8.137
55402SOL     OW68037   2.586  11.222  12.920
55402SOL    HW168038   2.494  11.223  12.895
55402SOL    HW268039   2.630  11.279  12.857
55403SOL     OW68040   3.626   5.990   2.837
55403SOL    HW168041   3.619   6.058   2.770
55403SOL    HW268042   3.716   5.958   2.829
55404SOL     OW68043   9.184   3.155  11.084
55404SOL    HW168044   9.210   3.136  11.174
55404SOL    HW268045   9.110   3.096  11.067
55405SOL     OW68046  10.404  13.157  10.728
55405SOL    HW168047  10.412  13.213  10.652
55405SOL    HW268048  10.416  13.216  10.803
55406SOL     OW68049   3.396  11.000   1.067
55406SOL    HW168050   3.415  10.919   1.019
55406SOL    HW268051   3.326  11.042   1.017
55407SOL     OW68052  14.819   5.433   4.247
55407SOL    HW168053   0.004   5.433   4.178
55407SOL    HW268054  14.792   5.525   4.254
55408SOL     OW68055  11.178  13.846   5.070
55408SOL    HW168056  11.264  13.885   5.054
55408SOL    HW268057  11.119  13.922   5.074
55409SOL     OW68058  13.989   9.672   9.361
55409SOL    HW168059  14.024   9.611   9.427
55409SOL    HW268060  14.038   9.753   9.374
55410SOL     OW68061   0.508   2.712   8.131
55410SOL    HW168062   0.469   2.639   8.082
55410SOL    HW268063   0.435   2.751   8.179
55411SOL     OW68064   3.492   3.960   5.493
55411SOL    HW168065   3.555   3.897   5.459
55411SOL    HW268066   3.495   4.033   5.432
55412SOL     OW68067   5.502   3.455   8.435
55412SOL    HW168068   5.424   3.419   8.476
55412SOL    HW268069   5.470   3.528   8.382
55413SOL     OW68070   6.658   1.789   7.219
55413SOL    HW168071   6.751   1.785   7.199
55413SOL    HW268072   6.614   1.769   7.137
55414SOL     OW68073   2.261   8.663   7.634
55414SOL    HW168074   2.354   8.641   7.632
55414SOL    HW268075   2.224   8.602   7.698
55415SOL     OW68076   5.710   2.820   9.803
55415SOL    HW168077   5.782   2.779   9.756
55415SOL    HW268078   5.642   2.833   9.737
55416SOL     OW68079  10.884  14.548   0.709
55416SOL    HW168080  10.965  14.598   0.711
55416SOL    HW268081  10.817  14.608   0.741
55417SOL     OW68082  13.088  11.006   6.499
55417SOL    HW168083  13.106  10.941   6.567
55417SOL    HW268084  13.007  11.048   6.526
55418SOL     OW68085   5.804   6.765   9.055
55418SOL    HW168086   5.812   6.671   9.075
55418SOL    HW268087   5.855   6.808   9.123
55419SOL     OW68088   5.102   3.955   9.048
55419SOL    HW168089   5.143   4.032   9.087
55419SOL    HW268090   5.012   3.981   9.030
55420SOL     OW68091  10.218   7.387  10.995
55420SOL    HW168092  10.140   7.333  10.984
55420SOL    HW268093  10.255   7.360  11.079
55421SOL     OW68094  10.371   2.758   6.132
55421SOL    HW168095  10.288   2.734   6.090
55421SOL    HW268096  10.345   2.797   6.216
55422SOL     OW68097   5.866  14.272   5.792
55422SOL    HW168098   5.911  14.293   5.711
55422SOL    HW268099   5.924  14.305   5.861
55423SOL     OW68100   3.067   9.852   9.481
55423SOL    HW168101   3.014   9.924   9.516
55423SOL    HW268102   3.004   9.788   9.450
55424SOL     OW68103   4.845  10.058  13.052
55424SOL    HW168104   4.749  10.050  13.055
55424SOL    HW268105   4.866  10.063  12.959
55425SOL     OW68106   9.731  12.900   5.465
55425SOL    HW168107   9.680  12.957   5.523
55425SOL    HW268108   9.801  12.866   5.520
55426SOL     OW68109   9.248   3.478   4.044
55426SOL    HW168110   9.337   3.510   4.063
55426SOL    HW268111   9.201   3.490   4.127
55427SOL     OW68112  13.930  14.731   1.122
55427SOL    HW168113  13.971  14.645   1.112
55427SOL    HW268114  13.963  14.782   1.048
55428SOL     OW68115   5.389  10.198   7.102
55428SOL    HW168116   5.424  10.287   7.107
55428SOL    HW268117   5.339  10.196   7.020
55429SOL     OW68118   2.313   3.089  10.325
55429SOL    HW168119   2.367   3.120  10.397
55429SOL    HW268120   2.321   2.994  10.328
55430SOL     OW68121  14.443   4.332  10.775
55430SOL    HW168122  14.396   4.249  10.771
55430SOL    HW268123  14.393   4.391  10.719
55431SOL     OW68124  12.780   9.631  10.252
55431SOL    HW168125  12.861   9.678  10.273
55431SOL    HW268126  12.793   9.544  10.291
55432SOL     OW68127   6.045   2.539   8.566
55432SOL    HW168128   6.056   2.444   8.569
55432SOL    HW268129   6.128   2.571   8.531
55433SOL     OW68130  13.180  10.081   9.713
55433SOL    HW168131  13.254  10.022   9.732
55433SOL    HW268132  13.118  10.026   9.665
55434SOL     OW68133   5.646   6.687   2.461
55434SOL    HW168134   5.677   6.638   2.537
55434SOL    HW268135   5.557   6.654   2.445
55435SOL     OW68136   8.992   2.894   4.898
55435SOL    HW168137   9.050   2.864   4.827
55435SOL    HW268138   9.031   2.857   4.977
55436SOL     OW68139  13.512   3.699   2.306
55436SOL    HW168140  13.608   3.698   2.296
55436SOL    HW268141  13.486   3.609   2.285
55437SOL     OW68142   9.116   4.122   3.490
55437SOL    HW168143   9.190   4.118   3.550
55437SOL    HW268144   9.126   4.205   3.444
55438SOL     OW68145   4.423   1.382   0.377
55438SOL    HW168146   4.395   1.401   0.287
55438SOL    HW268147   4.518   1.370   0.370
55439SOL     OW68148   6.353   5.869  12.104
55439SOL    HW168149   6.391   5.788  12.136
55439SOL    HW268150   6.367   5.868  12.010
55440SOL     OW68151   6.706   3.601   9.484
55440SOL    HW168152   6.694   3.686   9.526
55440SOL    HW268153   6.738   3.621   9.396
55441SOL     OW68154   9.229   0.346   4.001
55441SOL    HW168155   9.164   0.361   4.070
55441SOL    HW268156   9.178   0.314   3.926
55442SOL     OW68157  11.414   5.137   9.380
55442SOL    HW168158  11.437   5.230   9.392
55442SOL    HW268159  11.321   5.138   9.359
55443SOL     OW68160  12.458   2.843   6.718
55443SOL    HW168161  12.396   2.810   6.653
55443SOL    HW268162  12.403   2.879   6.787
55444SOL     OW68163   0.076  11.689   4.475
55444SOL    HW168164   0.104  11.688   4.567
55444SOL    HW268165  14.873  11.644   4.475
55445SOL     OW68166   2.918   9.924   2.060
55445SOL    HW168167   2.829   9.956   2.043
55445SOL    HW268168   2.969   9.957   1.986
55446SOL     OW68169   5.244   7.269  12.768
55446SOL    HW168170   5.337   7.285  12.787
55446SOL    HW268171   5.206   7.244  12.852
55447SOL     OW68172  12.797   7.855  13.956
55447SOL    HW168173  12.830   7.789  13.895
55447SOL    HW268174  12.749   7.806  14.022
55448SOL     OW68175   9.676   8.098   8.739
55448SOL    HW168176   9.692   8.055   8.656
55448SOL    HW268177   9.617   8.170   8.718
55449SOL     OW68178   5.919  12.556   3.360
55449SOL    HW168179   5.965  12.503   3.425
55449SOL    HW268180   5.906  12.497   3.286
55450SOL     OW68181   6.178  14.078   6.805
55450SOL    HW168182   6.251  14.090   6.865
55450SOL    HW268183   6.144  14.166   6.789
55451SOL     OW68184  13.938   1.595   9.537
55451SOL    HW168185  13.885   1.517   9.519
55451SOL    HW268186  13.945   1.639   9.453
55452SOL     OW68187   6.706   6.654   9.559
55452SOL    HW168188   6.787   6.674   9.513
55452SOL    HW268189   6.714   6.698   9.643
55453SOL     OW68190  12.600   3.671   8.362
55453SOL    HW168191  12.633   3.760   8.352
55453SOL    HW268192  12.618   3.629   8.278
55454SOL     OW68193  11.593  13.523  14.006
55454SOL    HW168194  11.591  13.476  14.089
55454SOL    HW268195  11.654  13.473  13.951
55455SOL     OW68196   8.427  12.712   5.026
55455SOL    HW168197   8.340  12.748   5.044
55455SOL    HW268198   8.477  12.785   4.991
55456SOL     OW68199   4.044   1.067   0.822
55456SOL    HW168200   4.090   1.084   0.904
55456SOL    HW268201   3.989   0.991   0.840
55457SOL     OW68202   2.500   0.797   5.386
55457SOL    HW168203   2.573   0.736   5.392
55457SOL    HW268204   2.422   0.741   5.383
55458SOL     OW68205  11.300   6.092   9.005
55458SOL    HW168206  11.323   6.008   8.966
55458SOL    HW268207  11.204   6.093   9.007
55459SOL     OW68208  11.369   9.274   0.727
55459SOL    HW168209  11.317   9.301   0.651
55459SOL    HW268210  11.435   9.343   0.735
55460SOL     OW68211   4.190   9.396   1.769
55460SOL    HW168212   4.253   9.406   1.840
55460SOL    HW268213   4.195   9.304   1.745
55461SOL     OW68214   0.816   9.407  12.182
55461SOL    HW168215   0.752   9.472  12.156
55461SOL    HW268216   0.766   9.341  12.230
55462SOL     OW68217   2.473   4.170   0.456
55462SOL    HW168218   2.478   4.081   0.492
55462SOL    HW268219   2.424   4.159   0.375
55463SOL     OW68220   1.757   0.812   4.319
55463SOL    HW168221   1.804   0.768   4.248
55463SOL    HW268222   1.712   0.885   4.276
55464SOL     OW68223   4.842   1.273  11.699
55464SOL    HW168224   4.829   1.323  11.618
55464SOL    HW268225   4.863   1.340  11.765
55465SOL     OW68226   8.341   0.857   0.972
55465SOL    HW168227   8.346   0.930   0.911
55465SOL    HW268228   8.370   0.893   1.056
55466SOL     OW68229   8.120   3.238   9.694
55466SOL    HW168230   8.061   3.168   9.723
55466SOL    HW268231   8.102   3.248   9.601
55467SOL     OW68232   2.185  13.199   8.196
55467SOL    HW168233   2.135  13.118   8.209
55467SOL    HW268234   2.233  13.210   8.279
55468SOL     OW68235   6.614   2.733  11.877
55468SOL    HW168236   6.609   2.645  11.840
55468SOL    HW268237   6.611   2.791  11.802
55469SOL     OW68238   2.732   2.610   6.468
55469SOL    HW168239   2.736   2.668   6.392
55469SOL    HW268240   2.714   2.524   6.431
55470SOL     OW68241  13.424   5.100   3.690
55470SOL    HW168242  13.444   5.022   3.638
55470SOL    HW268243  13.334   5.086   3.721
55471SOL     OW68244   3.897   9.678   8.776
55471SOL    HW168245   3.879   9.622   8.700
55471SOL    HW268246   3.858   9.631   8.850
55472SOL     OW68247   9.889   7.665  10.582
55472SOL    HW168248   9.865   7.668  10.489
55472SOL    HW268249   9.839   7.736  10.622
55473SOL     OW68250   3.500   2.264   9.255
55473SOL    HW168251   3.537   2.182   9.221
55473SOL    HW268252   3.411   2.240   9.281
55474SOL     OW68253  13.506  11.667  13.229
55474SOL    HW168254  13.419  11.632  13.251
55474SOL    HW268255  13.560  11.590  13.213
55475SOL     OW68256   9.983   2.376  10.433
55475SOL    HW168257   9.937   2.299  10.466
55475SOL    HW268258   9.951   2.448  10.488
55476SOL     OW68259   3.360   1.843  11.991
55476SOL    HW168260   3.305   1.808  12.060
55476SOL    HW268261   3.323   1.929  11.971
55477SOL     OW68262   6.996  11.703   0.055
55477SOL    HW168263   7.024  11.748   0.135
55477SOL    HW268264   6.987  11.774  14.873
55478SOL     OW68265   4.068   6.549  11.950
55478SOL    HW168266   4.086   6.633  11.992
55478SOL    HW268267   4.112   6.554  11.866
55479SOL     OW68268   9.809   7.716  10.928
55479SOL    HW168269   9.821   7.712  11.023
55479SOL    HW268270   9.874   7.655  10.893
55480SOL     OW68271   6.887   3.974  12.332
55480SOL    HW168272   6.897   3.982  12.237
55480SOL    HW268273   6.806   3.926  12.344
55481SOL     OW68274   9.312   1.400   4.578
55481SOL    HW168275   9.404   1.383   4.598
55481SOL    HW268276   9.272   1.313   4.573
55482SOL     OW68277  13.043  12.685   7.010
55482SOL    HW168278  13.129  12.696   6.972
55482SOL    HW268279  12.984  12.671   6.936
55483SOL     OW68280   5.014  11.247   9.780
55483SOL    HW168281   5.086  11.207   9.730
55483SOL    HW268282   5.027  11.215   9.869
55484SOL     OW68283  12.544   8.344   7.131
55484SOL    HW168284  12.551   8.324   7.225
55484SOL    HW268285  12.491   8.424   7.128
55485SOL     OW68286  12.869   0.021   5.172
55485SOL    HW168287  12.916   0.083   5.117
55485SOL    HW268288  12.932  14.835   5.192
55486SOL     OW68289   8.013  13.280   7.307
55486SOL    HW168290   7.981  13.258   7.394
55486SOL    HW268291   8.077  13.212   7.286
55487SOL     OW68292  12.089  12.245   2.179
55487SOL    HW168293  12.080  12.161   2.133
55487SOL    HW268294  12.176  12.242   2.217
55488SOL     OW68295  12.868   9.319  11.640
55488SOL    HW168296  12.920   9.252  11.596
55488SOL    HW268297  12.862   9.391  11.577
55489SOL     OW68298   4.050  14.417  13.444
55489SOL    HW168299   3.962  14.449  13.426
55489SOL    HW268300   4.036  14.328  13.477
55490SOL     OW68301   4.801   1.601   7.038
55490SOL    HW168302   4.763   1.621   7.123
55490SOL    HW268303   4.792   1.682   6.988
55491SOL     OW68304   0.528   8.614  11.227
55491SOL    HW168305   0.512   8.703  11.198
55491SOL    HW268306   0.586   8.623  11.303
55492SOL     OW68307   5.911   0.758   4.577
55492SOL    HW168308   6.005   0.772   4.568
55492SOL    HW268309   5.873   0.845   4.566
55493SOL     OW68310   8.146   9.487  11.700
55493SOL    HW168311   8.102   9.534  11.771
55493SOL    HW268312   8.223   9.540  11.680
55494SOL     OW68313   1.698   6.877   7.509
55494SOL    HW168314   1.638   6.950   7.496
55494SOL    HW268315   1.643   6.808   7.547
55495SOL     OW68316   3.906   2.308   0.401
55495SOL    HW168317   3.825   2.306   0.453
55495SOL    HW268318   3.902   2.230   0.347
55496SOL     OW68319   0.336  12.949   8.390
55496SOL    HW168320   0.288  13.013   8.443
55496SOL    HW268321   0.367  12.884   8.453
55497SOL     OW68322   4.437   9.218   2.606
55497SOL    HW168323   4.528   9.224   2.637
55497SOL    HW268324   4.439   9.150   2.539
55498SOL     OW68325   9.028  14.613   2.887
55498SOL    HW168326   8.985  14.574   2.811
55498SOL    HW268327   8.983  14.696   2.901
55499SOL     OW68328  11.092  14.371  10.251
55499SOL    HW168329  11.006  14.386  10.290
55499SOL    HW268330  11.141  14.451  10.269
55500SOL     OW68331   9.339   4.563  10.335
55500SOL    HW168332   9.363   4.613  10.413
55500SOL    HW268333   9.286   4.623  10.283
55501SOL     OW68334  13.956   9.651   9.718
55501SOL    HW168335  13.904   9.696   9.652
55501SOL    HW268336  14.000   9.581   9.670
55502SOL     OW68337  14.100   4.818   7.198
55502SOL    HW168338  14.134   4.871   7.126
55502SOL    HW268339  14.009   4.800   7.174
55503SOL     OW68340   2.802   5.772  13.144
55503SOL    HW168341   2.876   5.713  13.155
55503SOL    HW268342   2.837   5.860  13.161
55504SOL     OW68343   3.249  13.098   3.981
55504SOL    HW168344   3.197  13.083   4.059
55504SOL    HW268345   3.208  13.044   3.913
55505SOL     OW68346  13.047   1.138   2.307
55505SOL    HW168347  12.998   1.166   2.384
55505SOL    HW268348  13.126   1.192   2.308
55506SOL     OW68349  12.385   3.412   6.146
55506SOL    HW168350  12.447   3.350   6.108
55506SOL    HW268351  12.392   3.490   6.091
55507SOL     OW68352  10.876   7.393  14.543
55507SOL    HW168353  10.958   7.367  14.503
55507SOL    HW268354  10.839   7.458  14.483
55508SOL     OW68355   0.237   7.460   4.400
55508SOL    HW168356   0.302   7.510   4.352
55508SOL    HW268357   0.206   7.394   4.338
55509SOL     OW68358  13.336   2.771   2.630
55509SOL    HW168359  13.386   2.743   2.706
55509SOL    HW268360  13.288   2.848   2.659
55510SOL     OW68361   6.509   1.282   3.117
55510SOL    HW168362   6.543   1.193   3.118
55510SOL    HW268363   6.566   1.330   3.057
55511SOL     OW68364   0.495   3.333   7.935
55511SOL    HW168365   0.518   3.248   7.972
55511SOL    HW268366   0.399   3.333   7.933
55512SOL     OW68367  11.597  12.114   1.986
55512SOL    HW168368  11.526  12.165   1.946
55512SOL    HW268369  11.574  12.023   1.969
55513SOL     OW68370   6.043   5.201   3.858
55513SOL    HW168371   6.023   5.292   3.882
55513SOL    HW268372   6.033   5.200   3.763
55514SOL     OW68373   4.542   7.947   6.529
55514SOL    HW168374   4.480   7.961   6.458
55514SOL    HW268375   4.611   7.893   6.490
55515SOL     OW68376   1.416   7.243   2.138
55515SOL    HW168377   1.460   7.193   2.207
55515SOL    HW268378   1.400   7.329   2.177
55516SOL     OW68379  14.678   4.177  13.643
55516SOL    HW168380  14.702   4.164  13.551
55516SOL    HW268381  14.582   4.174  13.643
55517SOL     OW68382   7.591   3.808   8.981
55517SOL    HW168383   7.517   3.781   9.035
55517SOL    HW268384   7.557   3.809   8.891
55518SOL     OW68385   8.695   5.003   2.249
55518SOL    HW168386   8.664   5.060   2.320
55518SOL    HW268387   8.742   4.932   2.294
55519SOL     OW68388   1.524   2.884   1.395
55519SOL    HW168389   1.535   2.925   1.480
55519SOL    HW268390   1.430   2.869   1.387
55520SOL     OW68391  13.892   2.285   9.450
55520SOL    HW168392  13.859   2.367   9.486
55520SOL    HW268393  13.955   2.254   9.515
55521SOL     OW68394  14.314   2.546   8.126
55521SOL    HW168395  14.219   2.540   8.115
55521SOL    HW268396  14.331   2.503   8.210
55522SOL     OW68397  11.361  14.530   7.708
55522SOL    HW168398  11.270  14.503   7.697
55522SOL    HW268399  11.412  14.457   7.673
55523SOL     OW68400   4.455   6.788   6.606
55523SOL    HW168401   4.473   6.777   6.512
55523SOL    HW268402   4.361   6.770   6.614
55524SOL     OW68403   4.798   8.787   1.610
55524SOL    HW168404   4.875   8.795   1.553
55524SOL    HW268405   4.760   8.702   1.586
55525SOL     OW68406   3.499   2.526   4.420
55525SOL    HW168407   3.546   2.583   4.481
55525SOL    HW268408   3.567   2.475   4.376
55526SOL     OW68409   8.204  13.112   4.092
55526SOL    HW168410   8.163  13.067   4.018
55526SOL    HW268411   8.134  13.117   4.158
55527SOL     OW68412  10.130   5.820   3.270
55527SOL    HW168413  10.112   5.837   3.362
55527SOL    HW268414  10.171   5.900   3.238
55528SOL     OW68415   5.460  11.007   7.180
55528SOL    HW168416   5.519  11.073   7.143
55528SOL    HW268417   5.373  11.034   7.151
55529SOL     OW68418   9.763  12.564   9.975
55529SOL    HW168419   9.668  12.554   9.981
55529SOL    HW268420   9.778  12.658   9.984
55530SOL     OW68421  10.777   4.095   4.212
55530SOL    HW168422  10.705   4.079   4.151
55530SOL    HW268423  10.842   4.028   4.190
55531SOL     OW68424  12.684   1.972   1.202
55531SOL    HW168425  12.703   1.962   1.109
55531SOL    HW268426  12.712   1.889   1.242
55532SOL     OW68427   0.343   4.333   1.053
55532SOL    HW168428   0.381   4.394   1.116
55532SOL    HW268429   0.412   4.269   1.037
55533SOL     OW68430  13.897   8.364  12.341
55533SOL    HW168431  13.863   8.445  12.304
55533SOL    HW268432  13.851   8.294  12.294
55534SOL     OW68433   3.535   0.670  12.893
55534SOL    HW168434   3.472   0.622  12.946
55534SOL    HW268435   3.577   0.603  12.839
55535SOL     OW68436  10.666   8.001  13.254
55535SOL    HW168437  10.635   7.929  13.308
55535SOL    HW268438  10.590   8.026  13.202
55536SOL     OW68439   2.897   9.466  14.478
55536SOL    HW168440   2.972   9.414  14.508
55536SOL    HW268441   2.936   9.543  14.437
55537SOL     OW68442   2.629   9.197   9.037
55537SOL    HW168443   2.576   9.181   9.115
55537SOL    HW268444   2.719   9.199   9.069
55538SOL     OW68445  13.757  10.342  13.708
55538SOL    HW168446  13.808  10.402  13.654
55538SOL    HW268447  13.718  10.397  13.775
55539SOL     OW68448   5.103   3.873   3.071
55539SOL    HW168449   5.065   3.935   3.133
55539SOL    HW268450   5.037   3.865   3.002
55540SOL     OW68451   7.744  11.824  12.928
55540SOL    HW168452   7.773  11.755  12.988
55540SOL    HW268453   7.672  11.784  12.879
55541SOL     OW68454   3.792  10.069   8.231
55541SOL    HW168455   3.845  10.013   8.287
55541SOL    HW268456   3.768  10.144   8.285
55542SOL     OW68457  12.102  11.568  10.270
55542SOL    HW168458  12.195  11.556  10.255
55542SOL    HW268459  12.080  11.509  10.341
55543SOL     OW68460   8.227  13.552   5.432
55543SOL    HW168461   8.292  13.547   5.503
55543SOL    HW268462   8.184  13.637   5.445
55544SOL     OW68463   7.881   6.598   3.800
55544SOL    HW168464   7.851   6.686   3.822
55544SOL    HW268465   7.856   6.545   3.876
55545SOL     OW68466   7.573   7.165   8.372
55545SOL    HW168467   7.534   7.143   8.457
55545SOL    HW268468   7.501   7.205   8.323
55546SOL     OW68469   6.636   1.619   1.435
55546SOL    HW168470   6.571   1.600   1.368
55546SOL    HW268471   6.602   1.577   1.514
55547SOL     OW68472   7.282   1.431  10.763
55547SOL    HW168473   7.338   1.402  10.835
55547SOL    HW268474   7.212   1.480  10.806
55548SOL     OW68475  11.626  12.231   8.093
55548SOL    HW168476  11.627  12.258   8.001
55548SOL    HW268477  11.547  12.177   8.101
55549SOL     OW68478  14.553   0.566   9.689
55549SOL    HW168479  14.578   0.598   9.775
55549SOL    HW268480  14.467   0.606   9.673
55550SOL     OW68481   5.360   4.186   1.548
55550SOL    HW168482   5.304   4.253   1.507
55550SOL    HW268483   5.365   4.116   1.483
55551SOL     OW68484   8.822   9.197   9.330
55551SOL    HW168485   8.798   9.110   9.299
55551SOL    HW268486   8.753   9.255   9.297
55552SOL     OW68487   5.923  11.878   3.020
55552SOL    HW168488   5.930  11.858   3.113
55552SOL    HW268489   5.895  11.796   2.980
55553SOL     OW68490   7.554   6.115   8.184
55553SOL    HW168491   7.563   6.060   8.262
55553SOL    HW268492   7.462   6.142   8.185
55554SOL     OW68493   3.608   8.325  13.387
55554SOL    HW168494   3.555   8.397  13.420
55554SOL    HW268495   3.573   8.306  13.300
55555SOL     OW68496   7.525  12.139   3.668
55555SOL    HW168497   7.446  12.157   3.617
55555SOL    HW268498   7.589  12.203   3.636
55556SOL     OW68499   7.353   7.397   4.588
55556SOL    HW168500   7.352   7.356   4.502
55556SOL    HW268501   7.266   7.436   4.596
55557SOL     OW68502   9.279  14.337  13.948
55557SOL    HW168503   9.370  14.317  13.970
55557SOL    HW268504   9.284  14.400  13.877
55558SOL     OW68505  10.520   9.220   6.641
55558SOL    HW168506  10.600   9.198   6.688
55558SOL    HW268507  10.470   9.139   6.640
55559SOL     OW68508   8.368   4.890   5.907
55559SOL    HW168509   8.364   4.901   5.812
55559SOL    HW268510   8.374   4.796   5.920
55560SOL     OW68511   0.471   0.567   0.420
55560SOL    HW168512   0.388   0.557   0.374
55560SOL    HW268513   0.528   0.613   0.358
55561SOL     OW68514   2.672   9.396   2.297
55561SOL    HW168515   2.683   9.465   2.362
55561SOL    HW268516   2.736   9.416   2.229
55562SOL     OW68517   4.783  12.625   4.230
55562SOL    HW168518   4.695  12.663   4.231
55562SOL    HW268519   4.826  12.668   4.157
55563SOL     OW68520  12.707   8.070  13.574
55563SOL    HW168521  12.632   8.121  13.603
55563SOL    HW268522  12.781   8.130  13.578
55564SOL     OW68523   4.209   9.601   0.464
55564SOL    HW168524   4.158   9.610   0.384
55564SOL    HW268525   4.300   9.615   0.437
55565SOL     OW68526   9.181   8.857  10.149
55565SOL    HW168527   9.221   8.935  10.187
55565SOL    HW268528   9.098   8.848  10.195
55566SOL     OW68529   2.442   3.248  11.754
55566SOL    HW168530   2.354   3.233  11.720
55566SOL    HW268531   2.497   3.183  11.711
55567SOL     OW68532   4.201   6.391  10.334
55567SOL    HW168533   4.235   6.399  10.423
55567SOL    HW268534   4.253   6.452  10.283
55568SOL     OW68535  13.339   0.137  13.899
55568SOL    HW168536  13.290   0.060  13.873
55568SOL    HW268537  13.431   0.116  13.879
55569SOL     OW68538   5.159   2.568  13.927
55569SOL    HW168539   5.182   2.656  13.955
55569SOL    HW268540   5.225   2.512  13.967
55570SOL     OW68541  14.078  13.332   0.338
55570SOL    HW168542  14.089  13.381   0.257
55570SOL    HW268543  14.000  13.370   0.378
55571SOL     OW68544   3.289   5.706  12.913
55571SOL    HW168545   3.239   5.740  12.840
55571SOL    HW268546   3.371   5.677  12.875
55572SOL     OW68547   0.659   3.415  10.111
55572SOL    HW168548   0.658   3.509  10.089
55572SOL    HW268549   0.751   3.396  10.130
55573SOL     OW68550  14.834   4.312   0.031
55573SOL    HW168551   0.032   4.262   0.046
55573SOL    HW268552  14.864   4.395  14.875
55574SOL     OW68553   3.673   4.615   2.477
55574SOL    HW168554   3.701   4.617   2.385
55574SOL    HW268555   3.578   4.609   2.473
55575SOL     OW68556   3.734  10.763  10.841
55575SOL    HW168557   3.691  10.785  10.924
55575SOL    HW268558   3.804  10.702  10.866
55576SOL     OW68559   7.709  13.586   2.129
55576SOL    HW168560   7.656  13.508   2.114
55576SOL    HW268561   7.798  13.553   2.141
55577SOL     OW68562   8.266   3.240   3.921
55577SOL    HW168563   8.314   3.202   3.848
55577SOL    HW268564   8.320   3.314   3.950
55578SOL     OW68565   5.540   1.918   6.446
55578SOL    HW168566   5.582   1.878   6.522
55578SOL    HW268567   5.518   2.007   6.475
55579SOL     OW68568  14.208   8.026   0.873
55579SOL    HW168569  14.219   8.118   0.898
55579SOL    HW268570  14.114   8.009   0.885
55580SOL     OW68571   3.232   8.453  12.464
55580SOL    HW168572   3.178   8.406  12.400
55580SOL    HW268573   3.180   8.453  12.544
55581SOL     OW68574   2.400   9.935  13.315
55581SOL    HW168575   2.442   9.962  13.396
55581SOL    HW268576   2.443   9.988  13.247
55582SOL     OW68577   9.485   7.489   5.472
55582SOL    HW168578   9.391   7.472   5.461
55582SOL    HW268579   9.498   7.487   5.567
55583SOL     OW68580  10.084   3.721   6.842
55583SOL    HW168581  10.115   3.799   6.888
55583SOL    HW268582  10.163   3.670   6.825
55584SOL     OW68583   8.764   0.389   2.370
55584SOL    HW168584   8.737   0.335   2.445
55584SOL    HW268585   8.851   0.356   2.347
55585SOL     OW68586   3.714  13.104   2.112
55585SOL    HW168587   3.786  13.041   2.106
55585SOL    HW268588   3.638  13.057   2.079
55586SOL     OW68589   4.711   8.405  12.051
55586SOL    HW168590   4.744   8.368  12.133
55586SOL    HW268591   4.781   8.390  11.987
55587SOL     OW68592   2.402   5.359   1.658
55587SOL    HW168593   2.445   5.437   1.622
55587SOL    HW268594   2.314   5.389   1.683
55588SOL     OW68595   8.558   1.509   2.496
55588SOL    HW168596   8.524   1.446   2.432
55588SOL    HW268597   8.653   1.497   2.493
55589SOL     OW68598   7.189  11.628   4.312
55589SOL    HW168599   7.158  11.655   4.398
55589SOL    HW268600   7.253  11.695   4.287
55590SOL     OW68601  12.839  13.773   8.761
55590SOL    HW168602  12.773  13.715   8.722
55590SOL    HW268603  12.810  13.861   8.737
55591SOL     OW68604  11.997   1.660   7.377
55591SOL    HW168605  12.079   1.649   7.424
55591SOL    HW268606  11.949   1.727   7.427
55592SOL     OW68607   9.853   3.582  10.716
55592SOL    HW168608   9.928   3.641  10.710
55592SOL    HW268609   9.889   3.500  10.750
55593SOL     OW68610   4.874   2.527  10.645
55593SOL    HW168611   4.910   2.439  10.630
55593SOL    HW268612   4.949   2.579  10.673
55594SOL     OW68613   3.150  11.551   9.683
55594SOL    HW168614   3.087  11.562   9.611
55594SOL    HW268615   3.188  11.464   9.668
55595SOL     OW68616  10.240   5.419   8.480
55595SOL    HW168617  10.216   5.412   8.572
55595SOL    HW268618  10.335   5.403   8.479
55596SOL     OW68619  10.858   6.140   4.791
55596SOL    HW168620  10.909   6.065   4.757
55596SOL    HW268621  10.918   6.183   4.852
55597SOL     OW68622  12.386   1.418   5.628
55597SOL    HW168623  12.467   1.453   5.665
55597SOL    HW268624  12.330   1.400   5.703
55598SOL     OW68625   6.104   0.491   7.282
55598SOL    HW168626   6.180   0.544   7.257
55598SOL    HW268627   6.040   0.555   7.316
55599SOL     OW68628  12.891  13.978  11.655
55599SOL    HW168629  12.809  13.958  11.609
55599SOL    HW268630  12.958  13.930  11.606
55600SOL     OW68631  10.286   7.485   3.400
55600SOL    HW168632  10.191   7.496   3.391
55600SOL    HW268633  10.297   7.395   3.431
55601SOL     OW68634   1.773   7.144   0.047
55601SOL    HW168635   1.769   7.161  14.834
55601SOL    HW268636   1.801   7.053   0.054
55602SOL     OW68637   0.751   7.973  10.281
55602SOL    HW168638   0.742   7.905  10.214
55602SOL    HW268639   0.793   7.930  10.355
55603SOL     OW68640   1.302   8.225   3.189
55603SOL    HW168641   1.390   8.205   3.221
55603SOL    HW268642   1.300   8.320   3.181
55604SOL     OW68643  14.269  10.779   6.394
55604SOL    HW168644  14.268  10.729   6.475
55604SOL    HW268645  14.358  10.813   6.387
55605SOL     OW68646   0.389  13.222  13.076
55605SOL    HW168647   0.461  13.284  13.064
55605SOL    HW268648   0.430  13.137  13.084
55606SOL     OW68649   7.733  11.180   2.020
55606SOL    HW168650   7.787  11.103   2.041
55606SOL    HW268651   7.687  11.199   2.101
55607SOL     OW68652   0.657   8.237   3.876
55607SOL    HW168653   0.570   8.207   3.902
55607SOL    HW268654   0.645   8.269   3.786
55608SOL     OW68655  11.368   0.846   1.175
55608SOL    HW168656  11.451   0.816   1.137
55608SOL    HW268657  11.324   0.892   1.104
55609SOL     OW68658   3.233  14.483  14.737
55609SOL    HW168659   3.182  14.419  14.687
55609SOL    HW268660   3.232  14.451  14.827
55610SOL     OW68661   2.906  11.777   3.892
55610SOL    HW168662   2.963  11.700   3.886
55610SOL    HW268663   2.818  11.743   3.877
55611SOL     OW68664   0.543   2.546  14.042
55611SOL    HW168665   0.584   2.630  14.062
55611SOL    HW268666   0.458   2.569  14.003
55612SOL     OW68667  11.750   9.383  13.318
55612SOL    HW168668  11.750   9.373  13.222
55612SOL    HW268669  11.839   9.410  13.339
55613SOL     OW68670   1.116   8.633   5.096
55613SOL    HW168671   1.153   8.619   5.183
55613SOL    HW268672   1.059   8.558   5.082
55614SOL     OW68673  10.390  14.158   9.943
55614SOL    HW168674  10.475  14.172   9.902
55614SOL    HW268675  10.397  14.072   9.984
55615SOL     OW68676   8.519  11.281  10.390
55615SOL    HW168677   8.535  11.237  10.474
55615SOL    HW268678   8.560  11.224  10.325
55616SOL     OW68679   3.386   1.965  13.596
55616SOL    HW168680   3.394   1.879  13.638
55616SOL    HW268681   3.348   2.020  13.664
55617SOL     OW68682  12.782   1.953   2.989
55617SOL    HW168683  12.766   2.013   3.061
55617SOL    HW268684  12.697   1.947   2.944
55618SOL     OW68685   1.888   0.482  14.011
55618SOL    HW168686   1.817   0.481  13.947
55618SOL    HW268687   1.952   0.420  13.977
55619SOL     OW68688   9.791  14.643   2.199
55619SOL    HW168689   9.825  14.624   2.112
55619SOL    HW268690   9.729  14.714   2.187
55620SOL     OW68691   0.597  14.322  11.365
55620SOL    HW168692   0.544  14.392  11.403
55620SOL    HW268693   0.591  14.336  11.271
55621SOL     OW68694   6.026  11.500   0.782
55621SOL    HW168695   6.105  11.473   0.735
55621SOL    HW268696   6.032  11.595   0.787
55622SOL     OW68697  11.592  14.095   1.857
55622SOL    HW168698  11.579  14.059   1.945
55622SOL    HW268699  11.632  14.181   1.873
55623SOL     OW68700  13.335   7.889   0.871
55623SOL    HW168701  13.345   7.944   0.793
55623SOL    HW268702  13.245   7.904   0.899
55624SOL     OW68703   0.416  11.989  10.235
55624SOL    HW168704   0.386  11.902  10.261
55624SOL    HW268705   0.497  12.003  10.284
55625SOL     OW68706  14.781   5.005   4.478
55625SOL    HW168707  14.703   5.061   4.482
55625SOL    HW268708  14.838   5.040   4.547
55626SOL     OW68709   8.987   1.545   2.286
55626SOL    HW168710   9.074   1.524   2.318
55626SOL    HW268711   8.928   1.522   2.358
55627SOL     OW68712   6.342   5.850  12.693
55627SOL    HW168713   6.295   5.877  12.615
55627SOL    HW268714   6.366   5.932  12.736
55628SOL     OW68715  13.182   3.006  11.914
55628SOL    HW168716  13.275   2.981  11.911
55628SOL    HW268717  13.137   2.927  11.943
55629SOL     OW68718  11.177   7.897  10.204
55629SOL    HW168719  11.191   7.895  10.109
55629SOL    HW268720  11.082   7.901  10.214
55630SOL     OW68721  13.015   7.962  12.187
55630SOL    HW168722  13.008   7.913  12.269
55630SOL    HW268723  12.957   7.917  12.126
55631SOL     OW68724  11.384   6.411   3.334
55631SOL    HW168725  11.401   6.367   3.417
55631SOL    HW268726  11.313   6.360   3.294
55632SOL     OW68727   7.418  11.671  11.802
55632SOL    HW168728   7.353  11.727  11.844
55632SOL    HW268729   7.489  11.665  11.866
55633SOL     OW68730   5.926   8.559  11.455
55633SOL    HW168731   5.996   8.497  11.474
55633SOL    HW268732   5.966   8.645  11.466
55634SOL     OW68733  11.799  10.292   2.060
55634SOL    HW168734  11.751  10.214   2.089
55634SOL    HW268735  11.825  10.336   2.141
55635SOL     OW68736  11.970   2.178   2.285
55635SOL    HW168737  11.925   2.262   2.289
55635SOL    HW268738  11.937   2.137   2.205
55636SOL     OW68739  11.787  10.994   3.653
55636SOL    HW168740  11.786  10.938   3.576
55636SOL    HW268741  11.762  11.081   3.620
55637SOL     OW68742   6.743   8.827   4.045
55637SOL    HW168743   6.751   8.768   4.119
55637SOL    HW268744   6.713   8.772   3.973
55638SOL     OW68745   6.028   1.317   4.057
55638SOL    HW168746   5.974   1.362   3.992
55638SOL    HW268747   6.068   1.245   4.010
55639SOL     OW68748  11.285   0.619   4.244
55639SOL    HW168749  11.271   0.660   4.330
55639SOL    HW268750  11.197   0.613   4.206
55640SOL     OW68751   9.962   0.681   4.937
55640SOL    HW168752   9.900   0.665   5.008
55640SOL    HW268753  10.043   0.704   4.981
55641SOL     OW68754  14.325   2.323   2.708
55641SOL    HW168755  14.361   2.353   2.624
55641SOL    HW268756  14.313   2.404   2.758
55642SOL     OW68757   9.016   4.742  13.679
55642SOL    HW168758   8.974   4.828  13.676
55642SOL    HW268759   9.067   4.742  13.759
55643SOL     OW68760   7.150   8.916  13.937
55643SOL    HW168761   7.219   8.982  13.948
55643SOL    HW268762   7.085   8.938  14.004
55644SOL     OW68763  13.193  12.454   0.834
55644SOL    HW168764  13.260  12.492   0.891
55644SOL    HW268765  13.175  12.522   0.769
55645SOL     OW68766   4.402   9.562  13.134
55645SOL    HW168767   4.424   9.644  13.090
55645SOL    HW268768   4.352   9.589  13.212
55646SOL     OW68769  13.309   0.180   0.626
55646SOL    HW168770  13.337   0.099   0.582
55646SOL    HW268771  13.380   0.242   0.609
55647SOL     OW68772   6.788  10.395   1.169
55647SOL    HW168773   6.793  10.433   1.257
55647SOL    HW268774   6.764  10.468   1.113
55648SOL     OW68775   9.335  12.545   7.087
55648SOL    HW168776   9.282  12.503   7.019
55648SOL    HW268777   9.407  12.485   7.102
55649SOL     OW68778   0.253   0.356  10.047
55649SOL    HW168779   0.178   0.413  10.065
55649SOL    HW268780   0.226   0.270  10.077
55650SOL     OW68781   1.118   4.612  11.744
55650SOL    HW168782   1.134   4.672  11.817
55650SOL    HW268783   1.034   4.640  11.708
55651SOL     OW68784   8.869   8.150   4.721
55651SOL    HW168785   8.960   8.144   4.750
55651SOL    HW268786   8.817   8.135   4.800
55652SOL     OW68787  14.050  11.690  13.575
55652SOL    HW168788  14.094  11.744  13.641
55652SOL    HW268789  14.073  11.600  13.598
55653SOL     OW68790  12.669   6.779   8.083
55653SOL    HW168791  12.668   6.844   8.014
55653SOL    HW268792  12.666   6.695   8.037
55654SOL     OW68793   0.338   9.207   1.972
55654SOL    HW168794   0.313   9.252   1.891
55654SOL    HW268795   0.402   9.142   1.945
55655SOL     OW68796  13.615  12.928   0.072
55655SOL    HW168797  13.581  13.004   0.025
55655SOL    HW268798  13.586  12.852   0.021
55656SOL     OW68799   4.827   4.624  11.516
55656SOL    HW168800   4.909   4.576  11.505
55656SOL    HW268801   4.763   4.574  11.464
55657SOL     OW68802   4.753   9.398  14.385
55657SOL    HW168803   4.697   9.320  14.393
55657SOL    HW268804   4.716   9.460  14.448
55658SOL     OW68805   7.314  11.999   6.973
55658SOL    HW168806   7.277  12.080   6.940
55658SOL    HW268807   7.242  11.955   7.017
55659SOL     OW68808   5.639   9.453   4.395
55659SOL    HW168809   5.582   9.414   4.462
55659SOL    HW268810   5.711   9.492   4.445
55660SOL     OW68811   9.128   6.307   3.553
55660SOL    HW168812   9.057   6.332   3.612
55660SOL    HW268813   9.165   6.390   3.523
55661SOL     OW68814   8.245   1.197  11.204
55661SOL    HW168815   8.331   1.186  11.162
55661SOL    HW268816   8.252   1.146  11.284
55662SOL     OW68817   4.107   5.894   8.014
55662SOL    HW168818   4.030   5.915   8.067
55662SOL    HW268819   4.132   5.806   8.042
55663SOL     OW68820  10.508  13.272   6.184
55663SOL    HW168821  10.456  13.218   6.244
55663SOL    HW268822  10.454  13.349   6.169
55664SOL     OW68823  10.021  10.852  13.831
55664SOL    HW168824  10.021  10.940  13.867
55664SOL    HW268825   9.941  10.847  13.779
55665SOL     OW68826   8.812  14.080   4.128
55665SOL    HW168827   8.870  14.005   4.137
55665SOL    HW268828   8.839  14.122   4.046
55666SOL     OW68829   4.779   8.465  11.163
55666SOL    HW168830   4.797   8.543  11.216
55666SOL    HW268831   4.708   8.420  11.209
55667SOL     OW68832   8.383  11.019  11.132
55667SOL    HW168833   8.329  11.033  11.209
55667SOL    HW268834   8.334  11.062  11.061
55668SOL     OW68835   0.149   2.113  10.629
55668SOL    HW168836   0.127   2.108  10.536
55668SOL    HW268837   0.066   2.104  10.674
55669SOL     OW68838  12.226   5.184   6.864
55669SOL    HW168839  12.236   5.263   6.917
55669SOL    HW268840  12.240   5.112   6.926
55670SOL     OW68841   6.801   3.246   7.869
55670SOL    HW168842   6.736   3.308   7.903
55670SOL    HW268843   6.812   3.271   7.777
55671SOL     OW68844  10.117   6.294   8.054
55671SOL    HW168845  10.208   6.324   8.052
55671SOL    HW268846  10.123   6.199   8.044
55672SOL     OW68847   9.167   0.749   1.710
55672SOL    HW168848   9.211   0.827   1.744
55672SOL    HW268849   9.107   0.722   1.780
55673SOL     OW68850  13.501  13.607  11.347
55673SOL    HW168851  13.489  13.650  11.431
55673SOL    HW268852  13.570  13.542  11.363
55674SOL     OW68853  12.448  10.858  10.911
55674SOL    HW168854  12.482  10.852  11.000
55674SOL    HW268855  12.424  10.768  10.888
55675SOL     OW68856   9.539   2.352   2.112
55675SOL    HW168857   9.515   2.312   2.028
55675SOL    HW268858   9.500   2.440   2.108
55676SOL     OW68859  10.363  14.811  14.852
55676SOL    HW168860  10.348   0.006   0.025
55676SOL    HW268861  10.275  14.782  14.827
55677SOL     OW68862   9.573   7.293   2.180
55677SOL    HW168863   9.483   7.325   2.181
55677SOL    HW268864   9.625   7.365   2.217
55678SOL     OW68865  10.963  13.388   0.433
55678SOL    HW168866  10.994  13.468   0.476
55678SOL    HW268867  10.985  13.400   0.340
55679SOL     OW68868   7.542   6.761   9.783
55679SOL    HW168869   7.508   6.769   9.694
55679SOL    HW268870   7.557   6.667   9.795
55680SOL     OW68871  11.435  10.669   0.574
55680SOL    HW168872  11.462  10.631   0.657
55680SOL    HW268873  11.516  10.680   0.525
55681SOL     OW68874   2.807  13.380   7.983
55681SOL    HW168875   2.741  13.346   8.043
55681SOL    HW268876   2.818  13.472   8.007
55682SOL     OW68877   8.016   3.732   1.116
55682SOL    HW168878   8.075   3.761   1.186
55682SOL    HW268879   8.031   3.794   1.045
55683SOL     OW68880   5.504  11.896  11.776
55683SOL    HW168881   5.465  11.972  11.819
55683SOL    HW268882   5.595  11.895  11.805
55684SOL     OW68883   7.963  12.779   3.526
55684SOL    HW168884   7.930  12.832   3.598
55684SOL    HW268885   8.057  12.768   3.544
55685SOL     OW68886  14.784   7.047   7.870
55685SOL    HW168887  14.825   7.047   7.783
55685SOL    HW268888  14.855   7.025   7.930
55686SOL     OW68889  14.082   3.571   8.191
55686SOL    HW168890  13.992   3.538   8.188
55686SOL    HW268891  14.130   3.507   8.243
55687SOL     OW68892   5.376   2.705  10.907
55687SOL    HW168893   5.414   2.750  10.983
55687SOL    HW268894   5.282   2.719  10.916
55688SOL     OW68895  12.044   4.684  12.140
55688SOL    HW168896  12.033   4.692  12.045
55688SOL    HW268897  12.003   4.601  12.161
55689SOL     OW68898   3.753   8.741  13.913
55689SOL    HW168899   3.760   8.648  13.933
55689SOL    HW268900   3.839   8.777  13.934
55690SOL     OW68901  10.516   6.155   3.043
55690SOL    HW168902  10.579   6.085   3.025
55690SOL    HW268903  10.437   6.129   2.996
55691SOL     OW68904  13.112  10.172   3.377
55691SOL    HW168905  13.113  10.262   3.411
55691SOL    HW268906  13.084  10.119   3.451
55692SOL     OW68907  13.894   5.979   3.484
55692SOL    HW168908  13.959   5.925   3.529
55692SOL    HW268909  13.864   6.041   3.550
55693SOL     OW68910   8.068   4.339   9.765
55693SOL    HW168911   8.061   4.328   9.670
55693SOL    HW268912   8.140   4.401   9.778
55694SOL     OW68913  14.501  14.189  13.079
55694SOL    HW168914  14.483  14.154  13.166
55694SOL    HW268915  14.524  14.281  13.095
55695SOL     OW68916   3.178   1.129  13.100
55695SOL    HW168917   3.212   1.217  13.116
55695SOL    HW268918   3.151   1.098  13.186
55696SOL     OW68919   1.080   8.137   9.948
55696SOL    HW168920   1.120   8.141   9.861
55696SOL    HW268921   1.096   8.224   9.986
55697SOL     OW68922   3.354   0.301   7.306
55697SOL    HW168923   3.272   0.319   7.351
55697SOL    HW268924   3.398   0.385   7.301
55698SOL     OW68925   4.148   8.445   9.547
55698SOL    HW168926   4.087   8.493   9.491
55698SOL    HW268927   4.143   8.355   9.516
55699SOL     OW68928  10.829   8.464  14.770
55699SOL    HW168929  10.750   8.428  14.730
55699SOL    HW268930  10.803   8.483  14.860
55700SOL     OW68931  10.041   0.082  11.160
55700SOL    HW168932  10.017   0.009  11.217
55700SOL    HW268933   9.974   0.148  11.177
55701SOL     OW68934   8.705  10.417  14.181
55701SOL    HW168935   8.723  10.511  14.190
55701SOL    HW268936   8.790  10.375  14.189
55702SOL     OW68937   9.436   7.694   3.570
55702SOL    HW168938   9.424   7.781   3.531
55702SOL    HW268939   9.527   7.671   3.550
55703SOL     OW68940  13.756  14.412   3.698
55703SOL    HW168941  13.798  14.418   3.612
55703SOL    HW268942  13.662  14.413   3.680
55704SOL     OW68943   7.270   1.918  12.414
55704SOL    HW168944   7.339   1.984  12.400
55704SOL    HW268945   7.226   1.946  12.494
55705SOL     OW68946   2.256   6.794  11.751
55705SOL    HW168947   2.319   6.860  11.721
55705SOL    HW268948   2.307   6.736  11.808
55706SOL     OW68949   5.865   9.078  12.389
55706SOL    HW168950   5.942   9.079  12.333
55706SOL    HW268951   5.899   9.093  12.477
55707SOL     OW68952   7.300   0.113   0.260
55707SOL    HW168953   7.267   0.024   0.272
55707SOL    HW268954   7.338   0.136   0.344
55708SOL     OW68955   4.248  14.362   4.304
55708SOL    HW168956   4.200  14.356   4.387
55708SOL    HW268957   4.339  14.344   4.329
55709SOL     OW68958   0.605  13.588   0.232
55709SOL    HW168959   0.523  13.540   0.225
55709SOL    HW268960   0.592  13.647   0.307
55710SOL     OW68961   1.278  12.865   6.991
55710SOL    HW168962   1.370  12.883   7.006
55710SOL    HW268963   1.276  12.773   6.963
55711SOL     OW68964  14.341   3.526   5.313
55711SOL    HW168965  14.381   3.445   5.281
55711SOL    HW268966  14.385   3.543   5.396
55712SOL     OW68967   3.453   5.550  11.626
55712SOL    HW168968   3.545   5.551  11.599
55712SOL    HW268969   3.404   5.543  11.544
55713SOL     OW68970   1.359   3.939   6.745
55713SOL    HW168971   1.444   3.978   6.768
55713SOL    HW268972   1.355   3.858   6.796
55714SOL     OW68973  13.572   9.498  11.763
55714SOL    HW168974  13.663   9.525  11.755
55714SOL    HW268975  13.566   9.460  11.851
55715SOL     OW68976   9.861   5.218  13.772
55715SOL    HW168977   9.817   5.247  13.692
55715SOL    HW268978   9.809   5.254  13.843
55716SOL     OW68979  10.857   3.504   5.867
55716SOL    HW168980  10.835   3.422   5.911
55716SOL    HW268981  10.884   3.562   5.939
55717SOL     OW68982   6.369  11.511   1.448
55717SOL    HW168983   6.296  11.543   1.500
55717SOL    HW268984   6.430  11.474   1.512
55718SOL     OW68985  10.181   9.276  12.931
55718SOL    HW168986  10.143   9.190  12.913
55718SOL    HW268987  10.126   9.337  12.880
55719SOL     OW68988   2.779   8.302   8.206
55719SOL    HW168989   2.788   8.213   8.173
55719SOL    HW268990   2.832   8.355   8.148
55720SOL     OW68991   8.959   7.226   0.909
55720SOL    HW168992   8.923   7.189   0.990
55720SOL    HW268993   9.048   7.254   0.933
55721SOL     OW68994   7.583   6.570   8.587
55721SOL    HW168995   7.648   6.575   8.517
55721SOL    HW268996   7.503   6.541   8.543
55722SOL     OW68997  12.571   9.426   2.815
55722SOL    HW168998  12.643   9.390   2.867
55722SOL    HW268999  12.552   9.358   2.750
55723SOL     OW69000  14.549  12.226  12.658
55723SOL    HW169001  14.501  12.233  12.576
55723SOL    HW269002  14.604  12.149  12.647
55724SOL     OW69003   3.805   0.131   3.254
55724SOL    HW169004   3.816   0.089   3.340
55724SOL    HW269005   3.848   0.071   3.193
55725SOL     OW69006   6.600   0.590   0.797
55725SOL    HW169007   6.592   0.532   0.873
55725SOL    HW269008   6.524   0.571   0.743
55726SOL     OW69009  13.415  11.529  14.150
55726SOL    HW169010  13.440  11.544  14.058
55726SOL    HW269011  13.479  11.581  14.200
55727SOL     OW69012   3.965   9.453   6.070
55727SOL    HW169013   3.995   9.543   6.058
55727SOL    HW269014   3.958   9.418   5.981
55728SOL     OW69015   2.549   3.601   1.693
55728SOL    HW169016   2.588   3.522   1.730
55728SOL    HW269017   2.486   3.569   1.629
55729SOL     OW69018  10.705   1.831   4.002
55729SOL    HW169019  10.674   1.766   3.939
55729SOL    HW269020  10.663   1.806   4.084
55730SOL     OW69021   9.726  14.391  14.217
55730SOL    HW169022   9.701  14.344  14.297
55730SOL    HW269023   9.748  14.322  14.154
55731SOL     OW69024   0.622   9.785   3.248
55731SOL    HW169025   0.633   9.708   3.193
55731SOL    HW269026   0.549   9.764   3.305
55732SOL     OW69027   6.732   4.362  14.332
55732SOL    HW169028   6.714   4.301  14.260
55732SOL    HW269029   6.772   4.438  14.290
55733SOL     OW69030   6.230  14.833   4.894
55733SOL    HW169031   6.324  14.830   4.877
55733SOL    HW269032   6.193  14.878   4.818
55734SOL     OW69033  12.927  12.857   7.392
55734SOL    HW169034  12.970  12.808   7.462
55734SOL    HW269035  12.880  12.927   7.437
55735SOL     OW69036   3.117  13.288   1.222
55735SOL    HW169037   3.198  13.241   1.243
55735SOL    HW269038   3.048  13.225   1.242
55736SOL     OW69039  11.418   2.379   2.130
55736SOL    HW169040  11.401   2.460   2.081
55736SOL    HW269041  11.480   2.331   2.076
55737SOL     OW69042  11.232   0.369   0.817
55737SOL    HW169043  11.165   0.350   0.752
55737SOL    HW269044  11.261   0.283   0.848
55738SOL     OW69045   2.878  10.514  13.784
55738SOL    HW169046   2.850  10.495  13.695
55738SOL    HW269047   2.974  10.515  13.780
55739SOL     OW69048  13.279   9.260   1.925
55739SOL    HW169049  13.323   9.306   1.997
55739SOL    HW269050  13.203   9.315   1.904
55740SOL     OW69051   8.891   9.853   1.661
55740SOL    HW169052   8.828   9.795   1.617
55740SOL    HW269053   8.933   9.797   1.726
55741SOL     OW69054   4.576  14.131   8.348
55741SOL    HW169055   4.625  14.156   8.426
55741SOL    HW269056   4.551  14.040   8.363
55742SOL     OW69057  14.392   3.446  14.147
55742SOL    HW169058  14.329   3.418  14.213
55742SOL    HW269059  14.416   3.535  14.173
55743SOL     OW69060   3.956   3.325  10.747
55743SOL    HW169061   3.974   3.235  10.772
55743SOL    HW269062   4.041   3.361  10.723
55744SOL     OW69063   4.814   3.146   4.719
55744SOL    HW169064   4.771   3.105   4.644
55744SOL    HW269065   4.884   3.199   4.681
55745SOL     OW69066   1.812  12.380   2.823
55745SOL    HW169067   1.760  12.378   2.903
55745SOL    HW269068   1.749  12.404   2.755
55746SOL     OW69069   0.858   0.317   3.024
55746SOL    HW169070   0.793   0.263   2.980
55746SOL    HW269071   0.857   0.399   2.976
55747SOL     OW69072  11.564   0.543  14.788
55747SOL    HW169073  11.474   0.546  14.819
55747SOL    HW269074  11.594   0.454  14.808
55748SOL     OW69075   6.401  11.006  13.192
55748SOL    HW169076   6.463  10.999  13.264
55748SOL    HW269077   6.435  10.946  13.126
55749SOL     OW69078   8.358   2.528   7.936
55749SOL    HW169079   8.312   2.498   7.858
55749SOL    HW269080   8.446   2.491   7.928
55750SOL     OW69081   1.605  10.610   8.218
55750SOL    HW169082   1.655  10.639   8.142
55750SOL    HW269083   1.545  10.544   8.185
55751SOL     OW69084  14.540   2.552   1.188
55751SOL    HW169085  14.578   2.636   1.213
55751SOL    HW269086  14.611   2.489   1.200
55752SOL     OW69087   9.126   3.990   4.059
55752SOL    HW169088   9.207   3.978   4.108
55752SOL    HW269089   9.121   3.914   4.001
55753SOL     OW69090   7.100   8.427  10.530
55753SOL    HW169091   7.131   8.396  10.615
55753SOL    HW269092   7.005   8.420  10.535
55754SOL     OW69093  14.770  12.519  12.515
55754SOL    HW169094  14.835  12.588  12.507
55754SOL    HW269095  14.788  12.479  12.600
55755SOL     OW69096   8.262  12.767   9.849
55755SOL    HW169097   8.217  12.690   9.813
55755SOL    HW269098   8.281  12.821   9.772
55756SOL     OW69099   3.171   0.817   2.897
55756SOL    HW169100   3.259   0.802   2.930
55756SOL    HW269101   3.183   0.863   2.815
55757SOL     OW69102   2.358  12.943   0.130
55757SOL    HW169103   2.439  12.931   0.081
55757SOL    HW269104   2.300  12.875   0.097
55758SOL     OW69105   9.987   8.330   7.566
55758SOL    HW169106   9.940   8.396   7.516
55758SOL    HW269107   9.921   8.291   7.623
55759SOL     OW69108   4.942   4.357  12.916
55759SOL    HW169109   4.961   4.442  12.955
55759SOL    HW269110   5.025   4.328  12.880
55760SOL     OW69111   5.931   8.423   0.681
55760SOL    HW169112   6.009   8.435   0.627
55760SOL    HW269113   5.966   8.405   0.769
55761SOL     OW69114   0.473  11.535  12.469
55761SOL    HW169115   0.560  11.526  12.509
55761SOL    HW269116   0.489  11.577  12.385
55762SOL     OW69117   6.179   0.243   5.994
55762SOL    HW169118   6.152   0.170   6.050
55762SOL    HW269119   6.118   0.241   5.920
55763SOL     OW69120   4.064   2.227  10.349
55763SOL    HW169121   4.068   2.266  10.436
55763SOL    HW269122   3.972   2.208  10.335
55764SOL     OW69123   1.207   0.566  12.904
55764SOL    HW169124   1.267   0.610  12.844
55764SOL    HW269125   1.263   0.511  12.958
55765SOL     OW69126  10.842   8.063  14.551
55765SOL    HW169127  10.805   7.978  14.528
55765SOL    HW269128  10.821   8.119  14.476
55766SOL     OW69129  13.422  14.529   9.899
55766SOL    HW169130  13.494  14.503   9.956
55766SOL    HW269131  13.413  14.623   9.914
55767SOL     OW69132   0.842   2.590   4.550
55767SOL    HW169133   0.862   2.670   4.599
55767SOL    HW269134   0.750   2.574   4.567
55768SOL     OW69135   0.529   3.252   9.496
55768SOL    HW169136   0.455   3.307   9.521
55768SOL    HW269137   0.493   3.164   9.487
55769SOL     OW69138   2.094   5.561  13.261
55769SOL    HW169139   2.172   5.577  13.209
55769SOL    HW269140   2.056   5.648  13.275
55770SOL     OW69141   7.818   8.884   4.212
55770SOL    HW169142   7.874   8.864   4.287
55770SOL    HW269143   7.773   8.801   4.193
55771SOL     OW69144   7.053   0.974   8.870
55771SOL    HW169145   7.001   0.957   8.791
55771SOL    HW269146   6.987   0.987   8.938
55772SOL     OW69147  11.073   7.537   5.149
55772SOL    HW169148  11.021   7.495   5.080
55772SOL    HW269149  11.092   7.466   5.211
55773SOL     OW69150  12.167   5.680  11.596
55773SOL    HW169151  12.111   5.751  11.626
55773SOL    HW269152  12.230   5.668  11.667
55774SOL     OW69153   6.182  14.088   1.697
55774SOL    HW169154   6.090  14.067   1.680
55774SOL    HW269155   6.199  14.051   1.783
55775SOL     OW69156   8.684   3.486  12.772
55775SOL    HW169157   8.634   3.528  12.702
55775SOL    HW269158   8.711   3.558  12.829
55776SOL     OW69159   8.022   0.401  10.348
55776SOL    HW169160   8.089   0.469  10.347
55776SOL    HW269161   7.940   0.450  10.359
55777SOL     OW69162   8.086  11.111   3.785
55777SOL    HW169163   8.132  11.048   3.841
55777SOL    HW269164   7.994  11.103   3.811
55778SOL     OW69165   3.696   0.515   9.189
55778SOL    HW169166   3.648   0.482   9.113
55778SOL    HW269167   3.776   0.463   9.192
55779SOL     OW69168   2.990   5.087  14.238
55779SOL    HW169169   3.045   5.028  14.187
55779SOL    HW269170   3.026   5.083  14.326
55780SOL     OW69171   7.852   3.900  11.123
55780SOL    HW169172   7.844   3.982  11.075
55780SOL    HW269173   7.851   3.925  11.215
55781SOL     OW69174   4.987   5.833  10.158
55781SOL    HW169175   4.986   5.857  10.066
55781SOL    HW269176   4.899   5.797  10.174
55782SOL     OW69177   1.994  13.088   8.539
55782SOL    HW169178   1.965  13.006   8.578
55782SOL    HW269179   1.968  13.156   8.602
55783SOL     OW69180   3.097   6.258   8.308
55783SOL    HW169181   3.101   6.166   8.332
55783SOL    HW269182   3.076   6.258   8.214
55784SOL     OW69183  12.943   3.814  12.505
55784SOL    HW169184  12.861   3.842  12.546
55784SOL    HW269185  12.933   3.720  12.494
55785SOL     OW69186   4.074   6.496  11.228
55785SOL    HW169187   4.016   6.533  11.162
55785SOL    HW269188   4.114   6.420  11.185
55786SOL     OW69189  13.160   9.479  13.361
55786SOL    HW169190  13.225   9.521  13.417
55786SOL    HW269191  13.207   9.410  13.315
55787SOL     OW69192   5.853  13.536   2.149
55787SOL    HW169193   5.945  13.564   2.149
55787SOL    HW269194   5.851  13.459   2.205
55788SOL     OW69195   4.461   2.501  11.198
55788SOL    HW169196   4.460   2.496  11.102
55788SOL    HW269197   4.546   2.464  11.222
55789SOL     OW69198   9.562  12.453  11.226
55789SOL    HW169199   9.542  12.378  11.283
55789SOL    HW269200   9.556  12.529  11.284
55790SOL     OW69201   1.352   6.070  12.523
55790SOL    HW169202   1.370   6.125  12.600
55790SOL    HW269203   1.266   6.033  12.540
55791SOL     OW69204   3.708   5.796   0.141
55791SOL    HW169205   3.632   5.807   0.199
55791SOL    HW269206   3.782   5.828   0.192
55792SOL     OW69207   9.174   1.632   4.646
55792SOL    HW169208   9.232   1.565   4.610
55792SOL    HW269209   9.178   1.703   4.582
55793SOL     OW69210  13.354  12.435   6.126
55793SOL    HW169211  13.353  12.385   6.044
55793SOL    HW269212  13.321  12.521   6.102
55794SOL     OW69213   6.471   9.884  12.293
55794SOL    HW169214   6.389   9.858  12.252
55794SOL    HW269215   6.466   9.979  12.298
55795SOL     OW69216   0.025   1.849   3.194
55795SOL    HW169217   0.093   1.855   3.126
55795SOL    HW269218  14.857   1.930   3.184
55796SOL     OW69219   7.329  12.998   0.362
55796SOL    HW169220   7.384  12.922   0.342
55796SOL    HW269221   7.355  13.064   0.298
55797SOL     OW69222   5.094   4.221   0.163
55797SOL    HW169223   5.077   4.227   0.257
55797SOL    HW269224   5.042   4.292   0.125
55798SOL     OW69225   9.414   1.526  12.093
55798SOL    HW169226   9.432   1.615  12.063
55798SOL    HW269227   9.364   1.537  12.174
55799SOL     OW69228   7.331   1.528   5.505
55799SOL    HW169229   7.400   1.520   5.438
55799SOL    HW269230   7.371   1.493   5.584
55800SOL     OW69231  10.259   2.829   7.479
55800SOL    HW169232  10.352   2.806   7.491
55800SOL    HW269233  10.231   2.860   7.565
55801SOL     OW69234   1.352   9.954  12.233
55801SOL    HW169235   1.257   9.955  12.236
55801SOL    HW269236   1.375  10.029  12.178
55802SOL     OW69237  12.403   2.079   8.640
55802SOL    HW169238  12.431   2.042   8.556
55802SOL    HW269239  12.408   2.006   8.702
55803SOL     OW69240   3.086  14.458   4.051
55803SOL    HW169241   3.082  14.554   4.057
55803SOL    HW269242   3.155  14.442   3.987
55804SOL     OW69243   1.027   8.864   8.138
55804SOL    HW169244   0.985   8.783   8.165
55804SOL    HW269245   0.967   8.933   8.166
55805SOL     OW69246   1.598   5.841   6.403
55805SOL    HW169247   1.513   5.832   6.446
55805SOL    HW269248   1.577   5.847   6.309
55806SOL     OW69249   6.943  14.774   9.519
55806SOL    HW169250   6.897  14.801   9.598
55806SOL    HW269251   6.969  14.855   9.476
55807SOL     OW69252  14.383  10.262  12.563
55807SOL    HW169253  14.305  10.290  12.611
55807SOL    HW269254  14.350  10.209  12.491
55808SOL     OW69255  10.538   7.548   6.702
55808SOL    HW169256  10.559   7.455   6.698
55808SOL    HW269257  10.622   7.593   6.706
55809SOL     OW69258   3.377  11.646  12.584
55809SOL    HW169259   3.466  11.654  12.618
55809SOL    HW269260   3.373  11.558  12.547
55810SOL     OW69261  11.287   5.033   0.511
55810SOL    HW169262  11.232   4.963   0.546
55810SOL    HW269263  11.238   5.066   0.435
55811SOL     OW69264  13.628   3.551   5.541
55811SOL    HW169265  13.697   3.616   5.532
55811SOL    HW269266  13.631   3.525   5.633
55812SOL     OW69267  11.639  11.670   7.103
55812SOL    HW169268  11.624  11.700   7.192
55812SOL    HW269269  11.633  11.574   7.109
55813SOL     OW69270   6.161   9.233  13.437
55813SOL    HW169271   6.080   9.239  13.388
55813SOL    HW269272   6.194   9.323  13.440
55814SOL     OW69273  10.021   7.491  12.231
55814SOL    HW169274  10.006   7.579  12.265
55814SOL    HW269275   9.933   7.454  12.221
55815SOL     OW69276   2.408  11.687   4.623
55815SOL    HW169277   2.372  11.638   4.697
55815SOL    HW269278   2.490  11.724   4.656
55816SOL     OW69279   2.193   7.129   5.247
55816SOL    HW169280   2.210   7.103   5.156
55816SOL    HW269281   2.220   7.220   5.251
55817SOL     OW69282   6.575  11.898  13.421
55817SOL    HW169283   6.550  11.903  13.513
55817SOL    HW269284   6.625  11.978  13.405
55818SOL     OW69285  10.834   4.219   4.470
55818SOL    HW169286  10.836   4.150   4.403
55818SOL    HW269287  10.744   4.253   4.466
55819SOL     OW69288   7.678   8.833   4.869
55819SOL    HW169289   7.653   8.745   4.898
55819SOL    HW269290   7.680   8.885   4.949
55820SOL     OW69291   1.013   4.195  13.048
55820SOL    HW169292   1.104   4.205  13.018
55820SOL    HW269293   0.985   4.112  13.009
55821SOL     OW69294   8.403   3.556   3.308
55821SOL    HW169295   8.466   3.522   3.244
55821SOL    HW269296   8.426   3.648   3.318
55822SOL     OW69297   9.498  12.753  10.594
55822SOL    HW169298   9.515  12.677  10.651
55822SOL    HW269299   9.517  12.720  10.506
55823SOL     OW69300   1.816   3.938  14.553
55823SOL    HW169301   1.798   3.851  14.517
55823SOL    HW269302   1.785   3.999  14.486
55824SOL     OW69303   4.437  10.560   0.910
55824SOL    HW169304   4.372  10.594   0.972
55824SOL    HW269305   4.448  10.630   0.846
55825SOL     OW69306  10.818   3.103   9.321
55825SOL    HW169307  10.838   3.041   9.251
55825SOL    HW269308  10.747   3.156   9.287
55826SOL     OW69309  14.630  14.773   1.037
55826SOL    HW169310  14.644  14.859   0.997
55826SOL    HW269311  14.685  14.774   1.115
55827SOL     OW69312  10.679   1.735   0.668
55827SOL    HW169313  10.694   1.645   0.638
55827SOL    HW269314  10.737   1.788   0.614
55828SOL     OW69315   1.134   1.956   5.308
55828SOL    HW169316   1.102   2.010   5.380
55828SOL    HW269317   1.056   1.937   5.256
55829SOL     OW69318  13.766   6.648   3.778
55829SOL    HW169319  13.730   6.705   3.710
55829SOL    HW269320  13.772   6.705   3.855
55830SOL     OW69321   3.765   5.799   2.143
55830SOL    HW169322   3.780   5.840   2.058
55830SOL    HW269323   3.684   5.839   2.175
55831SOL     OW69324  14.663   1.650  11.978
55831SOL    HW169325  14.659   1.570  11.926
55831SOL    HW269326  14.690   1.621  12.065
55832SOL     OW69327  10.476   3.177   5.451
55832SOL    HW169328  10.491   3.267   5.421
55832SOL    HW269329  10.513   3.122   5.381
55833SOL     OW69330   9.216   8.344  12.158
55833SOL    HW169331   9.255   8.273  12.108
55833SOL    HW269332   9.129   8.311  12.183
55834SOL     OW69333   4.100   2.373  13.015
55834SOL    HW169334   4.043   2.431  13.066
55834SOL    HW269335   4.074   2.389  12.924
55835SOL     OW69336  11.048   0.695   5.539
55835SOL    HW169337  11.132   0.689   5.583
55835SOL    HW269338  11.049   0.781   5.496
55836SOL     OW69339   0.270   9.715  13.184
55836SOL    HW169340   0.243   9.673  13.265
55836SOL    HW269341   0.341   9.774  13.210
55837SOL     OW69342   0.401   9.109  12.411
55837SOL    HW169343   0.460   9.043  12.376
55837SOL    HW269344   0.314   9.081  12.384
55838SOL     OW69345   1.278   8.495  12.228
55838SOL    HW169346   1.290   8.459  12.316
55838SOL    HW269347   1.187   8.524  12.227
55839SOL     OW69348  13.864   9.232   0.105
55839SOL    HW169349  13.832   9.271   0.024
55839SOL    HW269350  13.959   9.249   0.104
55840SOL     OW69351  11.352   9.430   4.312
55840SOL    HW169352  11.392   9.398   4.392
55840SOL    HW269353  11.259   9.411   4.322
55841SOL     OW69354   5.655   4.506   9.115
55841SOL    HW169355   5.607   4.474   9.039
55841SOL    HW269356   5.596   4.568   9.156
55842SOL     OW69357   2.589  10.843   2.257
55842SOL    HW169358   2.527  10.862   2.327
55842SOL    HW269359   2.566  10.904   2.186
55843SOL     OW69360   1.436   5.738  11.514
55843SOL    HW169361   1.391   5.812  11.474
55843SOL    HW269362   1.514   5.725  11.460
55844SOL     OW69363   3.776   1.777   0.813
55844SOL    HW169364   3.734   1.863   0.809
55844SOL    HW269365   3.815   1.773   0.901
55845SOL     OW69366  12.160   1.661   4.842
55845SOL    HW169367  12.242   1.687   4.883
55845SOL    HW269368  12.186   1.621   4.759
55846SOL     OW69369   6.484  10.581   5.071
55846SOL    HW169370   6.446  10.642   5.008
55846SOL    HW269371   6.541  10.635   5.126
55847SOL     OW69372   0.017   9.037   5.567
55847SOL    HW169373   0.032   9.091   5.644
55847SOL    HW269374   0.014   9.100   5.494
55848SOL     OW69375  12.885   7.566   3.678
55848SOL    HW169376  12.932   7.641   3.639
55848SOL    HW269377  12.952   7.499   3.688
55849SOL     OW69378   9.381   6.453   2.748
55849SOL    HW169379   9.338   6.525   2.795
55849SOL    HW269380   9.475   6.470   2.759
55850SOL     OW69381  14.808  14.432   1.420
55850SOL    HW169382  14.724  14.386   1.431
55850SOL    HW269383  14.783  14.519   1.390
55851SOL     OW69384  13.283   5.484  11.080
55851SOL    HW169385  13.282   5.407  11.024
55851SOL    HW269386  13.191   5.507  11.091
55852SOL     OW69387  13.650   4.902   8.777
55852SOL    HW169388  13.661   4.990   8.742
55852SOL    HW269389  13.557   4.883   8.766
55853SOL     OW69390   6.042  10.119   2.130
55853SOL    HW169391   6.086  10.141   2.048
55853SOL    HW269392   6.001  10.034   2.114
55854SOL     OW69393  10.035  10.738   0.471
55854SOL    HW169394   9.942  10.729   0.491
55854SOL    HW269395  10.055  10.830   0.490
55855SOL     OW69396   4.416   8.951  14.210
55855SOL    HW169397   4.326   8.938  14.240
55855SOL    HW269398   4.431   8.881  14.147
55856SOL     OW69399   1.324  10.898  10.570
55856SOL    HW169400   1.292  10.877  10.482
55856SOL    HW269401   1.411  10.936  10.555
55857SOL     OW69402  12.184   6.711   6.130
55857SOL    HW169403  12.099   6.755   6.132
55857SOL    HW269404  12.245   6.776   6.094
55858SOL     OW69405  14.122   4.411   0.874
55858SOL    HW169406  14.037   4.418   0.918
55858SOL    HW269407  14.182   4.460   0.931
55859SOL     OW69408   3.802   5.632   1.479
55859SOL    HW169409   3.796   5.726   1.493
55859SOL    HW269410   3.890   5.618   1.446
55860SOL     OW69411  12.922   3.169   6.666
55860SOL    HW169412  12.847   3.110   6.676
55860SOL    HW269413  12.996   3.110   6.650
55861SOL     OW69414   4.182   5.368  14.018
55861SOL    HW169415   4.097   5.324  14.014
55861SOL    HW269416   4.208   5.379  13.927
55862SOL     OW69417  14.134   5.133   9.477
55862SOL    HW169418  14.217   5.101   9.441
55862SOL    HW269419  14.106   5.065   9.539
55863SOL     OW69420   2.676  12.221   3.790
55863SOL    HW169421   2.703  12.267   3.710
55863SOL    HW269422   2.756  12.215   3.842
55864SOL     OW69423   8.296   1.589   8.332
55864SOL    HW169424   8.375   1.543   8.359
55864SOL    HW269425   8.225   1.542   8.376
55865SOL     OW69426  14.574  13.214  11.166
55865SOL    HW169427  14.512  13.205  11.238
55865SOL    HW269428  14.546  13.294  11.121
55866SOL     OW69429  10.619  11.369   5.836
55866SOL    HW169430  10.622  11.273   5.835
55866SOL    HW269431  10.608  11.392   5.928
55867SOL     OW69432   1.117   3.090  12.860
55867SOL    HW169433   1.055   3.127  12.923
55867SOL    HW269434   1.084   3.003  12.841
55868SOL     OW69435  12.180   9.387  14.676
55868SOL    HW169436  12.103   9.409  14.728
55868SOL    HW269437  12.156   9.410  14.586
55869SOL     OW69438   3.804   2.752   1.259
55869SOL    HW169439   3.860   2.704   1.319
55869SOL    HW269440   3.726   2.774   1.310
55870SOL     OW69441  11.835   1.234   9.558
55870SOL    HW169442  11.867   1.290   9.488
55870SOL    HW269443  11.887   1.257   9.635
55871SOL     OW69444  11.741   8.222  10.133
55871SOL    HW169445  11.673   8.169  10.091
55871SOL    HW269446  11.822   8.195  10.091
55872SOL     OW69447   2.845   8.071   0.765
55872SOL    HW169448   2.831   8.122   0.845
55872SOL    HW269449   2.865   8.137   0.699
55873SOL     OW69450   6.916  11.433   7.288
55873SOL    HW169451   6.860  11.395   7.356
55873SOL    HW269452   6.924  11.525   7.313
55874SOL     OW69453   4.283   0.359   4.375
55874SOL    HW169454   4.350   0.292   4.368
55874SOL    HW269455   4.253   0.374   4.285
55875SOL     OW69456  13.417   3.965   5.904
55875SOL    HW169457  13.358   4.032   5.873
55875SOL    HW269458  13.360   3.893   5.932
55876SOL     OW69459  14.583  11.842  14.241
55876SOL    HW169460  14.591  11.926  14.287
55876SOL    HW269461  14.563  11.779  14.310
55877SOL     OW69462   1.096  14.344  10.609
55877SOL    HW169463   1.168  14.316  10.666
55877SOL    HW269464   1.061  14.263  10.573
55878SOL     OW69465  11.800   2.448  12.196
55878SOL    HW169466  11.892   2.427  12.214
55878SOL    HW269467  11.776   2.393  12.122
55879SOL     OW69468  11.992  11.807  10.874
55879SOL    HW169469  12.022  11.892  10.905
55879SOL    HW269470  11.962  11.761  10.953
55880SOL     OW69471   4.926   3.374   9.131
55880SOL    HW169472   4.859   3.422   9.083
55880SOL    HW269473   4.987   3.345   9.064
55881SOL     OW69474   2.364  13.078   0.559
55881SOL    HW169475   2.296  13.144   0.573
55881SOL    HW269476   2.322  13.012   0.503
55882SOL     OW69477  12.412  12.018   1.495
55882SOL    HW169478  12.380  12.097   1.539
55882SOL    HW269479  12.452  11.966   1.565
55883SOL     OW69480   2.223   1.461   4.465
55883SOL    HW169481   2.218   1.556   4.464
55883SOL    HW269482   2.317   1.442   4.457
55884SOL     OW69483   5.150   4.982  11.383
55884SOL    HW169484   5.078   4.919  11.393
55884SOL    HW269485   5.107   5.063  11.354
55885SOL     OW69486   7.844   0.738   6.418
55885SOL    HW169487   7.826   0.676   6.488
55885SOL    HW269488   7.765   0.735   6.363
55886SOL     OW69489   5.721   2.639   5.632
55886SOL    HW169490   5.743   2.548   5.650
55886SOL    HW269491   5.724   2.646   5.536
55887SOL     OW69492   5.143   0.550  13.383
55887SOL    HW169493   5.155   0.489  13.455
55887SOL    HW269494   5.088   0.620  13.419
55888SOL     OW69495   7.433   4.087  10.062
55888SOL    HW169496   7.340   4.081  10.082
55888SOL    HW269497   7.465   4.159  10.116
55889SOL     OW69498  14.640  13.595  11.061
55889SOL    HW169499  14.600  13.677  11.092
55889SOL    HW269500  14.571  13.530  11.072
55890SOL     OW69501  13.314   7.972   9.919
55890SOL    HW169502  13.246   8.034   9.893
55890SOL    HW269503  13.361   8.016   9.989
55891SOL     OW69504   5.798  13.399   1.903
55891SOL    HW169505   5.830  13.433   1.986
55891SOL    HW269506   5.703  13.411   1.906
55892SOL     OW69507  12.935   6.660   9.579
55892SOL    HW169508  12.906   6.750   9.596
55892SOL    HW269509  12.978   6.633   9.660
55893SOL     OW69510   6.479  14.730   9.796
55893SOL    HW169511   6.442  14.677   9.726
55893SOL    HW269512   6.506  14.666   9.862
55894SOL     OW69513  12.372   4.570   3.021
55894SOL    HW169514  12.399   4.519   3.097
55894SOL    HW269515  12.425   4.649   3.024
55895SOL     OW69516   3.018  10.206   2.009
55895SOL    HW169517   2.933  10.225   2.048
55895SOL    HW269518   2.999  10.195   1.916
55896SOL     OW69519   8.845  14.449   7.413
55896SOL    HW169520   8.909  14.402   7.360
55896SOL    HW269521   8.764  14.397   7.405
55897SOL     OW69522   5.055   5.174   1.937
55897SOL    HW169523   5.126   5.112   1.949
55897SOL    HW269524   5.039   5.173   1.842
55898SOL     OW69525   3.242   1.686   2.895
55898SOL    HW169526   3.299   1.668   2.970
55898SOL    HW269527   3.177   1.616   2.897
55899SOL     OW69528   9.602   5.390  14.404
55899SOL    HW169529   9.545   5.414  14.331
55899SOL    HW269530   9.576   5.449  14.475
55900SOL     OW69531  10.472   0.516   5.098
55900SOL    HW169532  10.385   0.506   5.138
55900SOL    HW269533  10.532   0.478   5.162
55901SOL     OW69534  13.504  13.939   0.048
55901SOL    HW169535  13.451  14.013   0.018
55901SOL    HW269536  13.594  13.968   0.037
55902SOL     OW69537  10.291  14.169   2.104
55902SOL    HW169538  10.387  14.175   2.109
55902SOL    HW269539  10.275  14.129   2.018
55903SOL     OW69540   9.077  11.342   9.173
55903SOL    HW169541   9.102  11.400   9.245
55903SOL    HW269542   9.082  11.397   9.095
55904SOL     OW69543   9.504   2.113   7.465
55904SOL    HW169544   9.437   2.124   7.398
55904SOL    HW269545   9.457   2.120   7.548
55905SOL     OW69546  12.961   7.926   0.332
55905SOL    HW169547  12.946   7.907   0.240
55905SOL    HW269548  13.005   8.011   0.333
55906SOL     OW69549  13.386   7.584   5.808
55906SOL    HW169550  13.382   7.679   5.798
55906SOL    HW269551  13.401   7.551   5.720
55907SOL     OW69552   7.264  13.997  14.566
55907SOL    HW169553   7.298  13.973  14.653
55907SOL    HW269554   7.170  14.005  14.578
55908SOL     OW69555  10.730   6.922   4.420
55908SOL    HW169556  10.687   6.985   4.478
55908SOL    HW269557  10.787   6.871   4.478
55909SOL     OW69558   8.772   8.895   2.210
55909SOL    HW169559   8.761   8.818   2.266
55909SOL    HW269560   8.832   8.867   2.141
55910SOL     OW69561   8.127  10.750   5.454
55910SOL    HW169562   8.050  10.804   5.434
55910SOL    HW269563   8.199  10.812   5.458
55911SOL     OW69564   9.410   5.457  10.253
55911SOL    HW169565   9.430   5.500  10.336
55911SOL    HW269566   9.449   5.514  10.186
55912SOL     OW69567  12.125   0.664   2.398
55912SOL    HW169568  12.198   0.726   2.404
55912SOL    HW269569  12.136   0.607   2.473
55913SOL     OW69570   3.141  11.185   0.247
55913SOL    HW169571   3.194  11.113   0.215
55913SOL    HW269572   3.053  11.149   0.255
55914SOL     OW69573  14.499  12.722  10.953
55914SOL    HW169574  14.481  12.693  10.864
55914SOL    HW269575  14.533  12.811  10.943
55915SOL     OW69576  10.405   1.224   9.482
55915SOL    HW169577  10.378   1.147   9.432
55915SOL    HW269578  10.495   1.204   9.510
55916SOL     OW69579   3.597  10.213  13.913
55916SOL    HW169580   3.676  10.216  13.858
55916SOL    HW269581   3.625  10.167  13.992
55917SOL     OW69582   6.336   6.750   6.459
55917SOL    HW169583   6.402   6.818   6.443
55917SOL    HW269584   6.371   6.672   6.417
55918SOL     OW69585   5.804   4.067   1.784
55918SOL    HW169586   5.812   4.137   1.720
55918SOL    HW269587   5.711   4.045   1.784
55919SOL     OW69588  14.486   4.407   4.851
55919SOL    HW169589  14.450   4.453   4.928
55919SOL    HW269590  14.522   4.326   4.887
55920SOL     OW69591  10.283   1.827  11.044
55920SOL    HW169592  10.234   1.759  10.997
55920SOL    HW269593  10.259   1.814  11.136
55921SOL     OW69594  14.124   0.203   8.202
55921SOL    HW169595  14.179   0.239   8.132
55921SOL    HW269596  14.125   0.270   8.270
55922SOL     OW69597   7.200  10.929   0.060
55922SOL    HW169598   7.225  10.868  14.873
55922SOL    HW269599   7.281  10.949   0.106
55923SOL     OW69600   4.855   5.290  13.521
55923SOL    HW169601   4.906   5.368  13.544
55923SOL    HW269602   4.911   5.240  13.463
55924SOL     OW69603  14.370   5.449   4.502
55924SOL    HW169604  14.276   5.464   4.507
55924SOL    HW269605  14.383   5.409   4.416
55925SOL     OW69606   4.020  10.678  11.858
55925SOL    HW169607   4.004  10.632  11.776
55925SOL    HW269608   3.936  10.675  11.904
55926SOL     OW69609  11.897   9.346   5.974
55926SOL    HW169610  11.843   9.375   6.047
55926SOL    HW269611  11.834   9.323   5.905
55927SOL     OW69612   5.879   0.054  13.976
55927SOL    HW169613   5.959   0.094  14.009
55927SOL    HW269614   5.836   0.122  13.925
55928SOL     OW69615   3.014  12.160   9.184
55928SOL    HW169616   3.102  12.191   9.165
55928SOL    HW269617   3.026  12.071   9.218
55929SOL     OW69618   7.152   7.872  11.473
55929SOL    HW169619   7.169   7.789  11.518
55929SOL    HW269620   7.149   7.848  11.380
55930SOL     OW69621   9.884   4.895  10.010
55930SOL    HW169622   9.969   4.903   9.966
55930SOL    HW269623   9.823   4.874   9.939
55931SOL     OW69624  12.642   5.958  11.014
55931SOL    HW169625  12.596   5.875  11.003
55931SOL    HW269626  12.632   5.978  11.108
55932SOL     OW69627  12.748   9.158   4.877
55932SOL    HW169628  12.765   9.201   4.961
55932SOL    HW269629  12.748   9.065   4.898
55933SOL     OW69630   3.399   2.772   3.718
55933SOL    HW169631   3.459   2.845   3.737
55933SOL    HW269632   3.321   2.791   3.769
55934SOL     OW69633  13.700  12.947   9.758
55934SOL    HW169634  13.640  13.022   9.756
55934SOL    HW269635  13.735  12.947   9.847
55935SOL     OW69636   1.990  14.648   5.330
55935SOL    HW169637   1.918  14.643   5.267
55935SOL    HW269638   2.069  14.647   5.276
55936SOL     OW69639   0.543   9.728  12.511
55936SOL    HW169640   0.602   9.653  12.506
55936SOL    HW269641   0.460   9.696  12.476
55937SOL     OW69642   0.643   5.848   1.882
55937SOL    HW169643   0.581   5.829   1.812
55937SOL    HW269644   0.648   5.766   1.931
55938SOL     OW69645   0.114   5.449   1.818
55938SOL    HW169646   0.149   5.493   1.895
55938SOL    HW269647   0.037   5.401   1.850
55939SOL     OW69648  11.561   0.845   1.526
55939SOL    HW169649  11.602   0.809   1.605
55939SOL    HW269650  11.568   0.774   1.461
55940SOL     OW69651   5.288   4.961  12.683
55940SOL    HW169652   5.373   4.927  12.656
55940SOL    HW269653   5.304   5.054  12.700
55941SOL     OW69654   7.839   1.812   1.807
55941SOL    HW169655   7.932   1.833   1.815
55941SOL    HW269656   7.794   1.886   1.846
55942SOL     OW69657   4.061  12.674   5.761
55942SOL    HW169658   4.086  12.720   5.842
55942SOL    HW269659   3.986  12.723   5.729
55943SOL     OW69660   2.578  13.640  12.396
55943SOL    HW169661   2.672  13.623  12.389
55943SOL    HW269662   2.573  13.729  12.433
55944SOL     OW69663  10.315  12.139   2.656
55944SOL    HW169664  10.274  12.148   2.570
55944SOL    HW269665  10.408  12.155   2.640
55945SOL     OW69666   4.507   8.142   9.415
55945SOL    HW169667   4.429   8.091   9.435
55945SOL    HW269668   4.528   8.121   9.324
55946SOL     OW69669  10.523   0.101   5.888
55946SOL    HW169670  10.511   0.007   5.876
55946SOL    HW269671  10.436   0.138   5.875
55947SOL     OW69672   6.385   6.474  10.783
55947SOL    HW169673   6.468   6.430  10.802
55947SOL    HW269674   6.411   6.557  10.742
55948SOL     OW69675  11.478   6.565   0.008
55948SOL    HW169676  11.474   6.623   0.084
55948SOL    HW269677  11.450   6.620  14.816
55949SOL     OW69678  11.841  12.474   5.193
55949SOL    HW169679  11.889  12.462   5.111
55949SOL    HW269680  11.908  12.502   5.256
55950SOL     OW69681   7.800  14.784   6.866
55950SOL    HW169682   7.736  14.718   6.841
55950SOL    HW269683   7.823  14.763   6.956
55951SOL     OW69684  14.720   0.359  12.205
55951SOL    HW169685  14.634   0.318  12.197
55951SOL    HW269686  14.702   0.446  12.241
55952SOL     OW69687   2.349   5.076   1.581
55952SOL    HW169688   2.310   5.148   1.631
55952SOL    HW269689   2.432   5.111   1.548
55953SOL     OW69690  14.690   9.514   1.436
55953SOL    HW169691  14.621   9.555   1.384
55953SOL    HW269692  14.649   9.493   1.519
55954SOL     OW69693   1.271   7.644   5.732
55954SOL    HW169694   1.359   7.682   5.740
55954SOL    HW269695   1.228   7.698   5.666
55955SOL     OW69696   7.463   8.318   0.524
55955SOL    HW169697   7.464   8.253   0.453
55955SOL    HW269698   7.555   8.342   0.536
55956SOL     OW69699   4.551   2.950  14.553
55956SOL    HW169700   4.486   2.941  14.622
55956SOL    HW269701   4.532   3.036  14.513
55957SOL     OW69702  14.695   2.742  14.777
55957SOL    HW169703  14.680   2.736  14.871
55957SOL    HW269704  14.626   2.688  14.738
55958SOL     OW69705   2.400  10.132   6.529
55958SOL    HW169706   2.493  10.149   6.541
55958SOL    HW269707   2.358  10.218   6.539
55959SOL     OW69708  10.342  13.486  12.229
55959SOL    HW169709  10.279  13.541  12.182
55959SOL    HW269710  10.392  13.443  12.160
55960SOL     OW69711   8.801   7.562   5.330
55960SOL    HW169712   8.858   7.496   5.370
55960SOL    HW269713   8.741   7.587   5.400
55961SOL     OW69714  12.155  12.226   4.047
55961SOL    HW169715  12.180  12.213   3.956
55961SOL    HW269716  12.129  12.139   4.078
55962SOL     OW69717  11.439   4.736  11.134
55962SOL    HW169718  11.399   4.728  11.221
55962SOL    HW269719  11.488   4.655  11.121
55963SOL     OW69720   5.316  13.561  11.182
55963SOL    HW169721   5.392  13.616  11.163
55963SOL    HW269722   5.241  13.617  11.164
55964SOL     OW69723   9.352   5.885   5.892
55964SOL    HW169724   9.351   5.793   5.916
55964SOL    HW269725   9.273   5.922   5.931
55965SOL     OW69726   4.053  11.716  13.326
55965SOL    HW169727   4.075  11.807  13.310
55965SOL    HW269728   4.106  11.667  13.264
55966SOL     OW69729  13.820   8.637   5.540
55966SOL    HW169730  13.751   8.653   5.605
55966SOL    HW269731  13.815   8.712   5.481
55967SOL     OW69732  10.373   9.001  11.371
55967SOL    HW169733  10.432   8.933  11.404
55967SOL    HW269734  10.293   8.954  11.347
55968SOL     OW69735   6.076   4.158   7.748
55968SOL    HW169736   5.991   4.131   7.715
55968SOL    HW269737   6.059   4.187   7.838
55969SOL     OW69738   6.972   5.896   3.044
55969SOL    HW169739   6.988   5.829   2.978
55969SOL    HW269740   7.059   5.915   3.080
55970SOL     OW69741   4.474   4.780   2.519
55970SOL    HW169742   4.495   4.856   2.573
55970SOL    HW269743   4.379   4.771   2.526
55971SOL     OW69744   3.535   1.885  12.356
55971SOL    HW169745   3.603   1.867  12.291
55971SOL    HW269746   3.558   1.970  12.393
55972SOL     OW69747   8.837   9.831   4.913
55972SOL    HW169748   8.798   9.743   4.916
55972SOL    HW269749   8.763   9.890   4.929
55973SOL     OW69750  14.381   5.668  10.956
55973SOL    HW169751  14.326   5.720  10.897
55973SOL    HW269752  14.323   5.644  11.028
55974SOL     OW69753  14.577   9.876  11.612
55974SOL    HW169754  14.623   9.886  11.696
55974SOL    HW269755  14.645   9.890  11.546
55975SOL     OW69756  11.547   1.509   6.025
55975SOL    HW169757  11.533   1.434   5.968
55975SOL    HW269758  11.460   1.531   6.057
55976SOL     OW69759   7.014   7.999  13.789
55976SOL    HW169760   7.074   7.965  13.856
55976SOL    HW269761   6.929   7.960  13.811
55977SOL     OW69762   0.288   2.950   4.705
55977SOL    HW169763   0.222   2.958   4.774
55977SOL    HW269764   0.262   2.870   4.658
55978SOL     OW69765  11.177   0.653  12.143
55978SOL    HW169766  11.143   0.625  12.228
55978SOL    HW269767  11.104   0.640  12.083
55979SOL     OW69768   7.619   3.438   7.913
55979SOL    HW169769   7.708   3.470   7.898
55979SOL    HW269770   7.567   3.518   7.923
55980SOL     OW69771   8.382   4.870   5.307
55980SOL    HW169772   8.365   4.777   5.291
55980SOL    HW269773   8.393   4.908   5.219
55981SOL     OW69774   5.285  13.745   9.920
55981SOL    HW169775   5.220  13.679   9.946
55981SOL    HW269776   5.245  13.789   9.845
55982SOL     OW69777   4.639  12.742   1.338
55982SOL    HW169778   4.707  12.796   1.297
55982SOL    HW269779   4.580  12.806   1.379
55983SOL     OW69780   3.388   4.572   9.409
55983SOL    HW169781   3.384   4.668   9.411
55983SOL    HW269782   3.473   4.552   9.370
55984SOL     OW69783   1.947   4.382   5.053
55984SOL    HW169784   1.959   4.294   5.017
55984SOL    HW269785   2.020   4.432   5.018
55985SOL     OW69786   3.646   0.787   5.882
55985SOL    HW169787   3.661   0.784   5.977
55985SOL    HW269788   3.725   0.748   5.844
55986SOL     OW69789   5.336   5.727  14.307
55986SOL    HW169790   5.300   5.796  14.362
55986SOL    HW269791   5.274   5.655  14.315
55987SOL     OW69792  10.579   8.952  12.501
55987SOL    HW169793  10.657   8.950  12.447
55987SOL    HW269794  10.591   8.881  12.564
55988SOL     OW69795   9.516   6.128   4.156
55988SOL    HW169796   9.469   6.128   4.073
55988SOL    HW269797   9.588   6.189   4.143
55989SOL     OW69798   6.885   4.830   3.963
55989SOL    HW169799   6.968   4.831   3.915
55989SOL    HW269800   6.903   4.880   4.043
55990SOL     OW69801   8.387  14.273   9.454
55990SOL    HW169802   8.383  14.177   9.448
55990SOL    HW269803   8.441  14.299   9.381
55991SOL     OW69804  11.877  13.361  10.317
55991SOL    HW169805  11.825  13.306  10.375
55991SOL    HW269806  11.870  13.449  10.354
55992SOL     OW69807   6.141  11.106  14.758
55992SOL    HW169808   6.110  11.137  14.843
55992SOL    HW269809   6.169  11.016  14.774
55993SOL     OW69810  12.418  14.351   0.911
55993SOL    HW169811  12.347  14.287   0.912
55993SOL    HW269812  12.415  14.390   0.824
55994SOL     OW69813   3.851  14.563  10.910
55994SOL    HW169814   3.764  14.601  10.901
55994SOL    HW269815   3.903  14.631  10.953
55995SOL     OW69816   3.203   3.587   1.781
55995SOL    HW169817   3.261   3.658   1.755
55995SOL    HW269818   3.227   3.567   1.871
55996SOL     OW69819   5.484  13.405   9.320
55996SOL    HW169820   5.471  13.498   9.303
55996SOL    HW269821   5.526  13.402   9.406
55997SOL     OW69822  11.472   5.475   6.085
55997SOL    HW169823  11.448   5.554   6.035
55997SOL    HW269824  11.562   5.458   6.059
55998SOL     OW69825   6.460  11.155   0.646
55998SOL    HW169826   6.500  11.100   0.713
55998SOL    HW269827   6.438  11.095   0.575
55999SOL     OW69828   0.802  11.416   6.085
55999SOL    HW169829   0.775  11.402   5.994
55999SOL    HW269830   0.778  11.335   6.130
56000SOL     OW69831  12.509  11.647   5.591
56000SOL    HW169832  12.599  11.655   5.560
56000SOL    HW269833  12.515  11.599   5.673
56001SOL     OW69834   4.099   7.364   0.351
56001SOL    HW169835   4.115   7.456   0.372
56001SOL    HW269836   4.163   7.316   0.404
56002SOL     OW69837   6.777   0.401   9.558
56002SOL    HW169838   6.783   0.476   9.618
56002SOL    HW269839   6.863   0.398   9.515
56003SOL     OW69840  13.781   4.489   7.371
56003SOL    HW169841  13.804   4.453   7.457
56003SOL    HW269842  13.752   4.414   7.320
56004SOL     OW69843   6.429  12.774   2.169
56004SOL    HW169844   6.420  12.772   2.074
56004SOL    HW269845   6.391  12.858   2.195
56005SOL     OW69846  14.259  13.802   4.482
56005SOL    HW169847  14.334  13.844   4.524
56005SOL    HW269848  14.284  13.710   4.474
56006SOL     OW69849   0.828   1.708   7.433
56006SOL    HW169850   0.869   1.707   7.346
56006SOL    HW269851   0.791   1.796   7.441
56007SOL     OW69852   3.364  13.919   5.221
56007SOL    HW169853   3.268  13.926   5.227
56007SOL    HW269854   3.384  13.948   5.132
56008SOL     OW69855   7.202   4.921  10.637
56008SOL    HW169856   7.289   4.890  10.660
56008SOL    HW269857   7.182   4.988  10.703
56009SOL     OW69858   0.660   5.717  12.727
56009SOL    HW169859   0.619   5.681  12.649
56009SOL    HW269860   0.711   5.645  12.763
56010SOL     OW69861  13.421   2.890  11.937
56010SOL    HW169862  13.401   2.806  11.979
56010SOL    HW269863  13.503   2.874  11.890
56011SOL     OW69864   5.396   2.012   2.613
56011SOL    HW169865   5.419   2.046   2.526
56011SOL    HW269866   5.346   2.082   2.654
56012SOL     OW69867  12.567   6.078   0.893
56012SOL    HW169868  12.589   5.985   0.890
56012SOL    HW269869  12.642   6.122   0.854
56013SOL     OW69870   1.419   2.162   2.314
56013SOL    HW169871   1.434   2.073   2.344
56013SOL    HW269872   1.480   2.173   2.241
56014SOL     OW69873   6.782  10.696   3.613
56014SOL    HW169874   6.754  10.604   3.611
56014SOL    HW269875   6.868  10.694   3.655
56015SOL     OW69876   1.557   2.829   3.207
56015SOL    HW169877   1.604   2.757   3.249
56015SOL    HW269878   1.516   2.790   3.130
56016SOL     OW69879   9.096   7.816   6.472
56016SOL    HW169880   9.010   7.834   6.512
56016SOL    HW269881   9.077   7.804   6.379
56017SOL     OW69882   7.259   0.107   2.247
56017SOL    HW169883   7.174   0.108   2.203
56017SOL    HW269884   7.239   0.125   2.339
56018SOL     OW69885   5.842   7.923   9.717
56018SOL    HW169886   5.847   7.983   9.643
56018SOL    HW269887   5.898   7.850   9.693
56019SOL     OW69888  13.648   7.434   1.136
56019SOL    HW169889  13.591   7.498   1.179
56019SOL    HW269890  13.624   7.440   1.043
56020SOL     OW69891   9.878   6.778   8.942
56020SOL    HW169892   9.956   6.773   8.887
56020SOL    HW269893   9.872   6.692   8.984
56021SOL     OW69894   2.641  10.587   9.996
56021SOL    HW169895   2.582  10.514   9.978
56021SOL    HW269896   2.658  10.626   9.911
56022SOL     OW69897   9.440   2.445  10.317
56022SOL    HW169898   9.350   2.414  10.310
56022SOL    HW269899   9.441   2.526  10.265
56023SOL     OW69900  14.314   2.273  13.851
56023SOL    HW169901  14.319   2.190  13.805
56023SOL    HW269902  14.319   2.339  13.781
56024SOL     OW69903   4.653   8.805   6.485
56024SOL    HW169904   4.613   8.892   6.484
56024SOL    HW269905   4.678   8.789   6.394
56025SOL     OW69906   0.561   5.562   0.124
56025SOL    HW169907   0.480   5.613   0.120
56025SOL    HW269908   0.537   5.480   0.167
56026SOL     OW69909   2.353   5.774   3.041
56026SOL    HW169910   2.361   5.702   3.103
56026SOL    HW269911   2.420   5.756   2.975
56027SOL     OW69912  13.074  12.319   2.015
56027SOL    HW169913  13.020  12.398   2.010
56027SOL    HW269914  13.019  12.256   2.062
56028SOL     OW69915   1.077   0.577   8.010
56028SOL    HW169916   1.064   0.671   8.025
56028SOL    HW269917   1.140   0.572   7.939
56029SOL     OW69918   9.182   9.254   1.468
56029SOL    HW169919   9.234   9.332   1.486
56029SOL    HW269920   9.169   9.213   1.554
56030SOL     OW69921   6.902   3.994  10.271
56030SOL    HW169922   6.963   4.039  10.330
56030SOL    HW269923   6.816   4.027  10.297
56031SOL     OW69924   8.362   3.058   0.478
56031SOL    HW169925   8.435   2.997   0.464
56031SOL    HW269926   8.293   3.004   0.517
56032SOL     OW69927   2.334   6.073   8.181
56032SOL    HW169928   2.241   6.068   8.160
56032SOL    HW269929   2.348   6.164   8.207
56033SOL     OW69930   4.569   2.263   0.566
56033SOL    HW169931   4.621   2.325   0.515
56033SOL    HW269932   4.595   2.177   0.532
56034SOL     OW69933  12.395   4.886  14.163
56034SOL    HW169934  12.426   4.974  14.184
56034SOL    HW269935  12.361   4.893  14.073
56035SOL     OW69936   3.239  13.364   0.273
56035SOL    HW169937   3.193  13.280   0.273
56035SOL    HW269938   3.328  13.342   0.302
56036SOL     OW69939  12.091   7.723  13.647
56036SOL    HW169940  12.144   7.739  13.725
56036SOL    HW269941  12.012   7.682  13.680
56037SOL     OW69942   8.460  10.951  14.300
56037SOL    HW169943   8.500  10.951  14.213
56037SOL    HW269944   8.526  10.989  14.357
56038SOL     OW69945  13.315   6.004  11.573
56038SOL    HW169946  13.345   5.913  11.572
56038SOL    HW269947  13.257   6.008  11.649
56039SOL     OW69948  12.567   1.058   4.343
56039SOL    HW169949  12.564   1.023   4.254
56039SOL    HW269950  12.599   1.148   4.333
56040SOL     OW69951  12.562   5.307   8.935
56040SOL    HW169952  12.627   5.368   8.969
56040SOL    HW269953  12.488   5.315   8.994
56041SOL     OW69954   5.573   3.962   0.165
56041SOL    HW169955   5.600   4.053   0.168
56041SOL    HW269956   5.655   3.913   0.155
56042SOL     OW69957   2.985   8.229  14.388
56042SOL    HW169958   2.945   8.273  14.313
56042SOL    HW269959   3.051   8.291  14.419
56043SOL     OW69960  12.332   3.566   7.872
56043SOL    HW169961  12.309   3.502   7.806
56043SOL    HW269962  12.422   3.591   7.851
56044SOL     OW69963   9.377   1.412   4.140
56044SOL    HW169964   9.335   1.491   4.105
56044SOL    HW269965   9.322   1.340   4.109
56045SOL     OW69966   1.617   7.857   1.899
56045SOL    HW169967   1.645   7.944   1.870
56045SOL    HW269968   1.622   7.802   1.820
56046SOL     OW69969  13.494   1.058  14.678
56046SOL    HW169970  13.570   1.048  14.735
56046SOL    HW269971  13.530   1.060  14.590
56047SOL     OW69972  13.761   4.223   7.244
56047SOL    HW169973  13.820   4.234   7.170
56047SOL    HW269974  13.799   4.150   7.294
56048SOL     OW69975   0.852  14.133   6.156
56048SOL    HW169976   0.763  14.143   6.190
56048SOL    HW269977   0.881  14.223   6.140
56049SOL     OW69978   1.252   2.572   3.220
56049SOL    HW169979   1.161   2.547   3.204
56049SOL    HW269980   1.304   2.501   3.183
56050SOL     OW69981   4.933   0.820  10.779
56050SOL    HW169982   4.896   0.781  10.700
56050SOL    HW269983   4.988   0.891  10.746
56051SOL     OW69984   8.232  10.785  14.002
56051SOL    HW169985   8.158  10.736  13.967
56051SOL    HW269986   8.307  10.725  13.996
56052SOL     OW69987   8.130  10.788   0.363
56052SOL    HW169988   8.129  10.699   0.328
56052SOL    HW269989   8.095  10.842   0.292
56053SOL     OW69990  10.570   1.470   1.618
56053SOL    HW169991  10.542   1.478   1.709
56053SOL    HW269992  10.488   1.461   1.569
56054SOL     OW69993   7.186   7.739  14.291
56054SOL    HW169994   7.135   7.664  14.259
56054SOL    HW269995   7.126   7.786  14.349
56055SOL     OW69996  14.008  14.398  12.008
56055SOL    HW169997  13.928  14.350  11.988
56055SOL    HW269998  13.978  14.487  12.027
56056SOL     OW69999   9.764   7.724   0.122
56056SOL    HW170000   9.721   7.714   0.037
56056SOL    HW270001   9.808   7.640   0.136
56057SOL     OW70002  12.369  11.532  14.772
56057SOL    HW170003  12.329  11.537  14.859
56057SOL    HW270004  12.424  11.453  14.775
56058SOL     OW70005   1.462  13.817   7.547
56058SOL    HW170006   1.438  13.849   7.634
56058SOL    HW270007   1.428  13.883   7.487
56059SOL     OW70008   8.437  11.293   5.641
56059SOL    HW170009   8.474  11.206   5.655
56059SOL    HW270010   8.345  11.285   5.667
56060SOL     OW70011   6.965   3.169  14.006
56060SOL    HW170012   6.908   3.104  14.048
56060SOL    HW270013   6.905   3.220  13.950
56061SOL     OW70014   7.401   2.655  11.892
56061SOL    HW170015   7.480   2.705  11.868
56061SOL    HW270016   7.335   2.683  11.829
56062SOL     OW70017  12.277   0.775   3.934
56062SOL    HW170018  12.228   0.702   3.970
56062SOL    HW270019  12.302   0.748   3.846
56063SOL     OW70020   8.767   2.433   0.694
56063SOL    HW170021   8.682   2.478   0.696
56063SOL    HW270022   8.822   2.489   0.640
56064SOL     OW70023  11.964   9.169   4.969
56064SOL    HW170024  11.972   9.218   5.050
56064SOL    HW270025  12.054   9.142   4.948
56065SOL     OW70026   2.853   3.130   0.577
56065SOL    HW170027   2.776   3.152   0.525
56065SOL    HW270028   2.853   3.194   0.649
56066SOL     OW70029   2.948   3.013  10.423
56066SOL    HW170030   2.949   2.984  10.515
56066SOL    HW270031   3.024   2.969  10.384
56067SOL     OW70032   9.775   8.071   4.737
56067SOL    HW170033   9.860   8.047   4.775
56067SOL    HW270034   9.785   8.053   4.643
56068SOL     OW70035  12.209   7.383   2.129
56068SOL    HW170036  12.216   7.318   2.060
56068SOL    HW270037  12.271   7.452   2.104
56069SOL     OW70038  10.101   5.535  11.161
56069SOL    HW170039  10.191   5.536  11.191
56069SOL    HW270040  10.060   5.463  11.210
56070SOL     OW70041   7.541  14.398  14.333
56070SOL    HW170042   7.452  14.373  14.359
56070SOL    HW270043   7.562  14.341  14.260
56071SOL     OW70044  11.497   3.340   9.339
56071SOL    HW170045  11.541   3.424   9.345
56071SOL    HW270046  11.481   3.327   9.246
56072SOL     OW70047  14.331  10.388   6.898
56072SOL    HW170048  14.243  10.417   6.923
56072SOL    HW270049  14.325  10.372   6.804
56073SOL     OW70050   3.975  10.201  12.367
56073SOL    HW170051   4.069  10.192  12.357
56073SOL    HW270052   3.944  10.112  12.385
56074SOL     OW70053   1.048   8.886   8.801
56074SOL    HW170054   1.080   8.869   8.712
56074SOL    HW270055   0.981   8.819   8.816
56075SOL     OW70056  12.501   4.762  10.431
56075SOL    HW170057  12.414   4.770  10.470
56075SOL    HW270058  12.505   4.672  10.400
56076SOL     OW70059   7.370   5.316   3.143
56076SOL    HW170060   7.335   5.405   3.147
56076SOL    HW270061   7.384   5.299   3.050
56077SOL     OW70062   8.513   4.099   0.896
56077SOL    HW170063   8.437   4.157   0.905
56077SOL    HW270064   8.562   4.110   0.978
56078SOL     OW70065   7.002  10.373   5.301
56078SOL    HW170066   7.010  10.378   5.205
56078SOL    HW270067   7.014  10.280   5.321
56079SOL     OW70068  13.539  10.430   2.755
56079SOL    HW170069  13.572  10.366   2.693
56079SOL    HW270070  13.612  10.446   2.814
56080SOL     OW70071   4.948  11.498   0.080
56080SOL    HW170072   4.969  11.547   0.000
56080SOL    HW270073   4.938  11.408   0.051
56081SOL     OW70074   9.251   9.939   7.517
56081SOL    HW170075   9.303   9.944   7.597
56081SOL    HW270076   9.291  10.003   7.458
56082SOL     OW70077   7.455  12.391  10.079
56082SOL    HW170078   7.471  12.485  10.072
56082SOL    HW270079   7.390  12.382  10.148
56083SOL     OW70080   8.228   9.750  10.308
56083SOL    HW170081   8.160   9.818  10.309
56083SOL    HW270082   8.264   9.754  10.219
56084SOL     OW70083   4.436   2.015   2.086
56084SOL    HW170084   4.353   2.047   2.050
56084SOL    HW270085   4.477   1.968   2.014
56085SOL     OW70086  12.094   0.712  14.248
56085SOL    HW170087  12.002   0.688  14.253
56085SOL    HW270088  12.127   0.666  14.171
56086SOL     OW70089   9.989   9.215   5.199
56086SOL    HW170090   9.952   9.226   5.111
56086SOL    HW270091   9.955   9.289   5.249
56087SOL     OW70092  11.553   3.355   1.699
56087SOL    HW170093  11.463   3.358   1.729
56087SOL    HW270094  11.597   3.294   1.759
56088SOL     OW70095   3.773   8.455   7.348
56088SOL    HW170096   3.825   8.445   7.268
56088SOL    HW270097   3.784   8.547   7.373
56089SOL     OW70098   6.316  10.201   7.109
56089SOL    HW170099   6.395  10.153   7.084
56089SOL    HW270100   6.305  10.267   7.041
56090SOL     OW70101   8.002   7.736   6.905
56090SOL    HW170102   8.001   7.777   6.991
56090SOL    HW270103   7.911   7.712   6.888
56091SOL     OW70104  12.590  13.853  12.355
56091SOL    HW170105  12.614  13.766  12.325
56091SOL    HW270106  12.607  13.853  12.449
56092SOL     OW70107  11.992   2.649   4.585
56092SOL    HW170108  11.917   2.698   4.619
56092SOL    HW270109  11.999   2.677   4.494
56093SOL     OW70110   7.054   9.511  13.283
56093SOL    HW170111   7.053   9.486  13.375
56093SOL    HW270112   7.104   9.443  13.239
56094SOL     OW70113  13.505   5.817   4.819
56094SOL    HW170114  13.597   5.796   4.803
56094SOL    HW270115  13.480   5.761   4.893
56095SOL     OW70116   6.251   1.836  14.313
56095SOL    HW170117   6.308   1.877  14.248
56095SOL    HW270118   6.238   1.905  14.379
56096SOL     OW70119   4.543   9.003   1.988
56096SOL    HW170120   4.489   8.953   2.049
56096SOL    HW270121   4.485   9.024   1.915
56097SOL     OW70122   1.315   2.938   2.238
56097SOL    HW170123   1.224   2.964   2.252
56097SOL    HW270124   1.322   2.922   2.144
56098SOL     OW70125   1.580   5.664  14.766
56098SOL    HW170126   1.525   5.661  14.845
56098SOL    HW270127   1.621   5.577  14.762
56099SOL     OW70128  11.698   1.435   8.554
56099SOL    HW170129  11.652   1.435   8.469
56099SOL    HW270130  11.744   1.351   8.557
56100SOL     OW70131   4.589  11.944  10.416
56100SOL    HW170132   4.535  11.921  10.340
56100SOL    HW270133   4.578  11.871  10.477
56101SOL     OW70134   3.902   9.208  14.789
56101SOL    HW170135   3.808   9.227  14.791
56101SOL    HW270136   3.919   9.165  14.873
56102SOL     OW70137  14.881  10.566   6.368
56102SOL    HW170138  14.807  10.571   6.428
56102SOL    HW270139   0.041  10.481   6.388
56103SOL     OW70140   2.088   9.769   2.126
56103SOL    HW170141   1.998   9.737   2.134
56103SOL    HW270142   2.141   9.704   2.173
56104SOL     OW70143   0.638   1.858   9.073
56104SOL    HW170144   0.588   1.929   9.032
56104SOL    HW270145   0.587   1.779   9.054
56105SOL     OW70146   3.536   7.803  10.074
56105SOL    HW170147   3.572   7.714  10.081
56105SOL    HW270148   3.443   7.793  10.093
56106SOL     OW70149   0.130  11.868   4.153
56106SOL    HW170150   0.057  11.860   4.214
56106SOL    HW270151   0.129  11.786   4.102
56107SOL     OW70152  14.415  13.191   6.366
56107SOL    HW170153  14.442  13.100   6.358
56107SOL    HW270154  14.375  13.212   6.282
56108SOL     OW70155   7.876   9.256   7.370
56108SOL    HW170156   7.836   9.303   7.443
56108SOL    HW270157   7.864   9.313   7.294
56109SOL     OW70158   4.408   2.714   3.435
56109SOL    HW170159   4.403   2.809   3.424
56109SOL    HW270160   4.378   2.698   3.524
56110SOL     OW70161   7.336   4.187   1.211
56110SOL    HW170162   7.257   4.142   1.181
56110SOL    HW270163   7.404   4.162   1.149
56111SOL     OW70164   5.405   9.817   0.783
56111SOL    HW170165   5.467   9.884   0.810
56111SOL    HW270166   5.395   9.830   0.688
56112SOL     OW70167   8.537  11.341  13.173
56112SOL    HW170168   8.470  11.311  13.111
56112SOL    HW270169   8.489  11.395  13.236
56113SOL     OW70170   7.088  11.141   0.984
56113SOL    HW170171   7.031  11.064   0.974
56113SOL    HW270172   7.059  11.201   0.915
56114SOL     OW70173   4.284   6.405   2.132
56114SOL    HW170174   4.197   6.446   2.136
56114SOL    HW270175   4.268   6.314   2.155
56115SOL     OW70176   2.313   3.637  12.219
56115SOL    HW170177   2.366   3.700  12.266
56115SOL    HW270178   2.367   3.611  12.144
56116SOL     OW70179   0.034   9.022   2.168
56116SOL    HW170180   0.081   9.024   2.251
56116SOL    HW270181  14.832   8.981   2.189
56117SOL     OW70182   7.850   5.301   4.071
56117SOL    HW170183   7.844   5.207   4.055
56117SOL    HW270184   7.901   5.309   4.152
56118SOL     OW70185   6.271  13.614   3.184
56118SOL    HW170186   6.253  13.543   3.123
56118SOL    HW270187   6.265  13.573   3.271
56119SOL     OW70188   8.878  10.568   3.273
56119SOL    HW170189   8.887  10.475   3.251
56119SOL    HW270190   8.886  10.571   3.368
56120SOL     OW70191   7.049   8.562   2.008
56120SOL    HW170192   6.971   8.536   1.959
56120SOL    HW270193   7.083   8.480   2.044
56121SOL     OW70194  11.150   7.343   0.664
56121SOL    HW170195  11.078   7.393   0.626
56121SOL    HW270196  11.214   7.409   0.690
56122SOL     OW70197   1.975   4.502   0.703
56122SOL    HW170198   2.050   4.470   0.654
56122SOL    HW270199   1.956   4.588   0.664
56123SOL     OW70200   5.402   6.946  10.602
56123SOL    HW170201   5.377   6.897  10.523
56123SOL    HW270202   5.458   6.885  10.650
56124SOL     OW70203   7.166   4.526  13.874
56124SOL    HW170204   7.092   4.561  13.924
56124SOL    HW270205   7.131   4.447  13.832
56125SOL     OW70206  13.395   2.465   8.004
56125SOL    HW170207  13.398   2.452   7.909
56125SOL    HW270208  13.378   2.558   8.015
56126SOL     OW70209   1.706  10.158   8.043
56126SOL    HW170210   1.774  10.222   8.063
56126SOL    HW270211   1.690  10.168   7.950
56127SOL     OW70212   3.392   1.899   0.708
56127SOL    HW170213   3.333   1.913   0.633
56127SOL    HW270214   3.463   1.846   0.672
56128SOL     OW70215   5.525   8.572  14.241
56128SOL    HW170216   5.518   8.489  14.288
56128SOL    HW270217   5.600   8.616  14.282
56129SOL     OW70218   5.771   0.850   4.102
56129SOL    HW170219   5.862   0.832   4.078
56129SOL    HW270220   5.724   0.848   4.019
56130SOL     OW70221   1.102  14.331   7.669
56130SOL    HW170222   1.185  14.378   7.660
56130SOL    HW270223   1.036  14.396   7.647
56131SOL     OW70224  10.778  13.366  13.506
56131SOL    HW170225  10.848  13.302  13.495
56131SOL    HW270226  10.794  13.404  13.593
56132SOL     OW70227   0.769   2.128   2.005
56132SOL    HW170228   0.863   2.125   2.024
56132SOL    HW270229   0.749   2.221   1.998
56133SOL     OW70230   4.732   7.570   0.960
56133SOL    HW170231   4.789   7.496   0.982
56133SOL    HW270232   4.784   7.622   0.898
56134SOL     OW70233   4.129  13.471   8.076
56134SOL    HW170234   4.116  13.386   8.034
56134SOL    HW270235   4.119  13.453   8.170
56135SOL     OW70236   0.506  13.965  14.033
56135SOL    HW170237   0.590  13.949  14.076
56135SOL    HW270238   0.483  13.881  13.993
56136SOL     OW70239  11.029  12.568   6.854
56136SOL    HW170240  10.991  12.510   6.920
56136SOL    HW270241  10.963  12.636   6.842
56137SOL     OW70242   0.644   1.653   8.864
56137SOL    HW170243   0.733   1.679   8.844
56137SOL    HW270244   0.653   1.574   8.918
56138SOL     OW70245   7.516   2.453   5.342
56138SOL    HW170246   7.424   2.428   5.334
56138SOL    HW270247   7.564   2.370   5.346
56139SOL     OW70248   6.680   8.097  11.589
56139SOL    HW170249   6.715   8.033  11.652
56139SOL    HW270250   6.756   8.149  11.564
56140SOL     OW70251   1.001  12.462  10.001
56140SOL    HW170252   0.999  12.542   9.949
56140SOL    HW270253   1.026  12.393   9.939
56141SOL     OW70254   9.111  14.303   2.848
56141SOL    HW170255   9.063  14.315   2.929
56141SOL    HW270256   9.044  14.305   2.780
56142SOL     OW70257  13.610  13.769   2.143
56142SOL    HW170258  13.524  13.742   2.174
56142SOL    HW270259  13.600  13.863   2.125
56143SOL     OW70260   3.249  11.065   4.763
56143SOL    HW170261   3.289  11.106   4.839
56143SOL    HW270262   3.300  10.984   4.750
56144SOL     OW70263   3.294   4.948  10.257
56144SOL    HW170264   3.389   4.944  10.271
56144SOL    HW270265   3.283   4.922  10.165
56145SOL     OW70266   2.967   0.332  10.240
56145SOL    HW170267   2.890   0.277  10.256
56145SOL    HW270268   2.950   0.413  10.288
56146SOL     OW70269   3.511   3.370  13.373
56146SOL    HW170270   3.598   3.367  13.334
56146SOL    HW270271   3.481   3.459  13.357
56147SOL     OW70272  13.685   2.100  14.612
56147SOL    HW170273  13.600   2.062  14.588
56147SOL    HW270274  13.737   2.095  14.532
56148SOL     OW70275  10.695   5.298   5.314
56148SOL    HW170276  10.770   5.295   5.253
56148SOL    HW270277  10.731   5.335   5.394
56149SOL     OW70278   7.402   3.794   0.357
56149SOL    HW170279   7.389   3.751   0.441
56149SOL    HW270280   7.474   3.855   0.372
56150SOL     OW70281  12.782  10.302   2.967
56150SOL    HW170282  12.854  10.264   2.917
56150SOL    HW270283  12.790  10.262   3.054
56151SOL     OW70284   8.718   1.845   2.460
56151SOL    HW170285   8.739   1.925   2.508
56151SOL    HW270286   8.672   1.790   2.522
56152SOL     OW70287   1.848   2.332   9.784
56152SOL    HW170288   1.811   2.420   9.789
56152SOL    HW270289   1.844   2.309   9.691
56153SOL     OW70290  11.367   2.060  11.005
56153SOL    HW170291  11.281   2.027  11.031
56153SOL    HW270292  11.349   2.118  10.931
56154SOL     OW70293   0.534  11.734   1.085
56154SOL    HW170294   0.610  11.747   1.029
56154SOL    HW270295   0.495  11.821   1.095
56155SOL     OW70296   9.216   9.828   4.525
56155SOL    HW170297   9.231   9.891   4.455
56155SOL    HW270298   9.168   9.877   4.592
56156SOL     OW70299   2.958   9.621   1.745
56156SOL    HW170300   2.926   9.531   1.738
56156SOL    HW270301   2.879   9.674   1.746
56157SOL     OW70302  12.301   3.759   3.791
56157SOL    HW170303  12.385   3.722   3.763
56157SOL    HW270304  12.288   3.834   3.732
56158SOL     OW70305   5.334   8.753   7.759
56158SOL    HW170306   5.367   8.795   7.680
56158SOL    HW270307   5.405   8.694   7.786
56159SOL     OW70308   7.584  12.871   3.262
56159SOL    HW170309   7.677  12.877   3.287
56159SOL    HW270310   7.571  12.943   3.201
56160SOL     OW70311   5.349  12.667   3.540
56160SOL    HW170312   5.353  12.578   3.577
56160SOL    HW270313   5.288  12.714   3.597
56161SOL     OW70314   1.381   0.170   6.417
56161SOL    HW170315   1.407   0.252   6.460
56161SOL    HW270316   1.421   0.101   6.469
56162SOL     OW70317  10.919   0.092   2.718
56162SOL    HW170318  10.845   0.152   2.720
56162SOL    HW270319  10.994   0.145   2.744
56163SOL     OW70320  11.133   9.733  13.077
56163SOL    HW170321  11.121   9.722  12.983
56163SOL    HW270322  11.198   9.668  13.102
56164SOL     OW70323  12.547  11.916   3.734
56164SOL    HW170324  12.546  11.854   3.807
56164SOL    HW270325  12.545  12.002   3.776
56165SOL     OW70326   9.677   1.776   2.262
56165SOL    HW170327   9.694   1.699   2.207
56165SOL    HW270328   9.685   1.850   2.202
56166SOL     OW70329  10.691   3.206   5.062
56166SOL    HW170330  10.662   3.295   5.043
56166SOL    HW270331  10.783   3.216   5.088
56167SOL     OW70332  13.274  12.187   4.340
56167SOL    HW170333  13.182  12.208   4.326
56167SOL    HW270334  13.274  12.122   4.410
56168SOL     OW70335   3.551   3.483   7.754
56168SOL    HW170336   3.488   3.457   7.686
56168SOL    HW270337   3.636   3.453   7.720
56169SOL     OW70338   8.918   8.795  12.212
56169SOL    HW170339   8.962   8.738  12.149
56169SOL    HW270340   8.969   8.876  12.212
56170SOL     OW70341   6.271   5.078   1.838
56170SOL    HW170342   6.207   5.019   1.879
56170SOL    HW270343   6.316   5.120   1.911
56171SOL     OW70344  10.538  11.263   9.842
56171SOL    HW170345  10.542  11.168   9.850
56171SOL    HW270346  10.446  11.285   9.858
56172SOL     OW70347   9.454   7.467   1.370
56172SOL    HW170348   9.476   7.503   1.284
56172SOL    HW270349   9.468   7.373   1.361
56173SOL     OW70350   3.653   0.613   1.460
56173SOL    HW170351   3.582   0.568   1.415
56173SOL    HW270352   3.611   0.686   1.504
56174SOL     OW70353  10.061  10.279   7.607
56174SOL    HW170354  10.015  10.314   7.683
56174SOL    HW270355  10.008  10.205   7.578
56175SOL     OW70356  14.667  14.140   6.874
56175SOL    HW170357  14.687  14.151   6.781
56175SOL    HW270358  14.744  14.175   6.919
56176SOL     OW70359  12.622  11.593  12.413
56176SOL    HW170360  12.551  11.545  12.454
56176SOL    HW270361  12.640  11.666  12.473
56177SOL     OW70362   1.187   0.229   1.804
56177SOL    HW170363   1.194   0.240   1.899
56177SOL    HW270364   1.182   0.318   1.770
56178SOL     OW70365   6.138  12.316   7.343
56178SOL    HW170366   6.065  12.306   7.283
56178SOL    HW270367   6.103  12.368   7.416
56179SOL     OW70368  12.159  14.229   0.845
56179SOL    HW170369  12.131  14.195   0.930
56179SOL    HW270370  12.092  14.293   0.822
56180SOL     OW70371   6.952   2.776   1.816
56180SOL    HW170372   6.894   2.750   1.887
56180SOL    HW270373   6.895   2.778   1.739
56181SOL     OW70374   8.181   4.630   9.063
56181SOL    HW170375   8.209   4.646   8.973
56181SOL    HW270376   8.155   4.538   9.064
56182SOL     OW70377  13.759   8.496   5.278
56182SOL    HW170378  13.733   8.414   5.321
56182SOL    HW270379  13.679   8.527   5.235
56183SOL     OW70380  12.742   4.103   8.672
56183SOL    HW170381  12.759   4.195   8.693
56183SOL    HW270382  12.713   4.104   8.581
56184SOL     OW70383   2.542   4.314   5.990
56184SOL    HW170384   2.614   4.271   6.037
56184SOL    HW270385   2.573   4.319   5.900
56185SOL     OW70386   4.778   3.354  12.322
56185SOL    HW170387   4.727   3.400  12.255
56185SOL    HW270388   4.855   3.322  12.276
56186SOL     OW70389   8.231   6.643   2.450
56186SOL    HW170390   8.185   6.562   2.475
56186SOL    HW270391   8.295   6.614   2.385
56187SOL     OW70392   6.775   3.745  13.458
56187SOL    HW170393   6.827   3.813  13.502
56187SOL    HW270394   6.718   3.794  13.399
56188SOL     OW70395  13.971  12.031   9.566
56188SOL    HW170396  14.059  12.062   9.586
56188SOL    HW270397  13.965  11.945   9.607
56189SOL     OW70398   4.444   3.232   9.466
56189SOL    HW170399   4.353   3.235   9.496
56189SOL    HW270400   4.447   3.289   9.390
56190SOL     OW70401  12.217  14.748   0.851
56190SOL    HW170402  12.217  14.725   0.758
56190SOL    HW270403  12.306  14.778   0.868
56191SOL     OW70404   8.847   5.713   9.755
56191SOL    HW170405   8.758   5.744   9.774
56191SOL    HW270406   8.847   5.699   9.660
56192SOL     OW70407   8.995  11.821  13.908
56192SOL    HW170408   8.931  11.868  13.854
56192SOL    HW270409   8.989  11.730  13.878
56193SOL     OW70410   6.740   8.897   7.595
56193SOL    HW170411   6.659   8.948   7.599
56193SOL    HW270412   6.713   8.813   7.556
56194SOL     OW70413  12.179  13.068  12.643
56194SOL    HW170414  12.097  13.032  12.675
56194SOL    HW270415  12.164  13.086  12.551
56195SOL     OW70416  13.418  10.559   1.692
56195SOL    HW170417  13.352  10.624   1.717
56195SOL    HW270418  13.366  10.481   1.671
56196SOL     OW70419   5.929  13.293   9.697
56196SOL    HW170420   5.895  13.380   9.718
56196SOL    HW270421   5.864  13.232   9.732
56197SOL     OW70422   8.493   3.826   3.317
56197SOL    HW170423   8.578   3.799   3.354
56197SOL    HW270424   8.512   3.910   3.275
56198SOL     OW70425   1.807   5.820  13.564
56198SOL    HW170426   1.900   5.817  13.543
56198SOL    HW270427   1.766   5.762  13.500
56199SOL     OW70428  11.457   8.331   1.356
56199SOL    HW170429  11.473   8.370   1.271
56199SOL    HW270430  11.501   8.246   1.353
56200SOL     OW70431   2.789   3.634   8.937
56200SOL    HW170432   2.847   3.566   8.903
56200SOL    HW270433   2.843   3.713   8.937
56201SOL     OW70434   6.793  10.195   9.133
56201SOL    HW170435   6.860  10.264   9.139
56201SOL    HW270436   6.774  10.189   9.039
56202SOL     OW70437   9.677   8.110   6.397
56202SOL    HW170438   9.720   8.194   6.410
56202SOL    HW270439   9.649   8.110   6.305
56203SOL     OW70440   1.848   0.722   5.939
56203SOL    HW170441   1.874   0.767   5.859
56203SOL    HW270442   1.907   0.758   6.006
56204SOL     OW70443   7.188  10.135   3.297
56204SOL    HW170444   7.093  10.145   3.304
56204SOL    HW270445   7.214  10.195   3.227
56205SOL     OW70446  14.430   8.140   4.922
56205SOL    HW170447  14.524   8.148   4.939
56205SOL    HW270448  14.424   8.075   4.852
56206SOL     OW70449   4.952   4.005   9.741
56206SOL    HW170450   4.922   4.036   9.655
56206SOL    HW270451   4.902   3.925   9.757
56207SOL     OW70452   0.596  10.912   3.495
56207SOL    HW170453   0.505  10.884   3.496
56207SOL    HW270454   0.612  10.947   3.582
56208SOL     OW70455  13.788   2.588   4.731
56208SOL    HW170456  13.767   2.678   4.759
56208SOL    HW270457  13.875   2.594   4.691
56209SOL     OW70458   1.527  13.298   7.277
56209SOL    HW170459   1.440  13.267   7.303
56209SOL    HW270460   1.544  13.372   7.336
56210SOL     OW70461   0.943   1.541  14.764
56210SOL    HW170462   1.011   1.537  14.697
56210SOL    HW270463   0.992   1.552  14.846
56211SOL     OW70464  13.801  13.576   1.133
56211SOL    HW170465  13.799  13.494   1.084
56211SOL    HW270466  13.804  13.549   1.225
56212SOL     OW70467   9.426   4.984   7.030
56212SOL    HW170468   9.341   4.954   6.995
56212SOL    HW270469   9.404   5.056   7.088
56213SOL     OW70470   3.720  13.444   5.516
56213SOL    HW170471   3.641  13.437   5.569
56213SOL    HW270472   3.716  13.532   5.478
56214SOL     OW70473   1.642  12.921  11.806
56214SOL    HW170474   1.730  12.890  11.826
56214SOL    HW270475   1.636  13.005  11.853
56215SOL     OW70476  14.719   4.358   3.901
56215SOL    HW170477  14.691   4.279   3.946
56215SOL    HW270478  14.723   4.333   3.808
56216SOL     OW70479   6.721  11.328   6.652
56216SOL    HW170480   6.793  11.309   6.592
56216SOL    HW270481   6.647  11.346   6.594
56217SOL     OW70482   3.401   7.947   2.682
56217SOL    HW170483   3.373   7.871   2.631
56217SOL    HW270484   3.442   8.005   2.618
56218SOL     OW70485   8.130   7.403   6.007
56218SOL    HW170486   8.096   7.485   6.043
56218SOL    HW270487   8.193   7.430   5.941
56219SOL     OW70488   3.018   6.545   2.327
56219SOL    HW170489   2.952   6.572   2.391
56219SOL    HW270490   2.990   6.586   2.246
56220SOL     OW70491   2.327   9.373   1.108
56220SOL    HW170492   2.415   9.335   1.116
56220SOL    HW270493   2.299   9.389   1.198
56221SOL     OW70494  11.034  12.810  11.517
56221SOL    HW170495  11.016  12.890  11.468
56221SOL    HW270496  11.033  12.740  11.452
56222SOL     OW70497   5.087   8.003   9.161
56222SOL    HW170498   5.012   7.948   9.186
56222SOL    HW270499   5.146   8.000   9.236
56223SOL     OW70500   9.419   1.269   9.874
56223SOL    HW170501   9.358   1.256   9.946
56223SOL    HW270502   9.373   1.235   9.797
56224SOL     OW70503  11.538  10.724   1.150
56224SOL    HW170504  11.536  10.770   1.234
56224SOL    HW270505  11.584  10.642   1.169
56225SOL     OW70506  10.822   3.500   8.023
56225SOL    HW170507  10.738   3.544   8.028
56225SOL    HW270508  10.884   3.568   7.998
56226SOL     OW70509   2.091   6.497  11.509
56226SOL    HW170510   2.163   6.499  11.572
56226SOL    HW270511   2.113   6.427  11.448
56227SOL     OW70512  13.859   0.190   4.598
56227SOL    HW170513  13.765   0.174   4.608
56227SOL    HW270514  13.900   0.108   4.624
56228SOL     OW70515   4.153  13.141  14.402
56228SOL    HW170516   4.218  13.141  14.473
56228SOL    HW270517   4.145  13.049  14.377
56229SOL     OW70518  12.383   6.956   5.747
56229SOL    HW170519  12.386   7.006   5.665
56229SOL    HW270520  12.472   6.924   5.760
56230SOL     OW70521   5.802   0.408   8.327
56230SOL    HW170522   5.867   0.449   8.384
56230SOL    HW270523   5.755   0.482   8.288
56231SOL     OW70524  14.048  10.271   1.056
56231SOL    HW170525  13.993  10.238   0.985
56231SOL    HW270526  14.003  10.244   1.136
56232SOL     OW70527   5.847   8.309   3.650
56232SOL    HW170528   5.850   8.405   3.646
56232SOL    HW270529   5.776   8.285   3.591
56233SOL     OW70530   4.373   6.817   8.575
56233SOL    HW170531   4.465   6.838   8.564
56233SOL    HW270532   4.331   6.901   8.595
56234SOL     OW70533   7.206   0.151   1.271
56234SOL    HW170534   7.160   0.235   1.277
56234SOL    HW270535   7.297   0.175   1.255
56235SOL     OW70536   0.328   4.340  13.222
56235SOL    HW170537   0.334   4.387  13.139
56235SOL    HW270538   0.384   4.391  13.282
56236SOL     OW70539   3.840  11.026  13.126
56236SOL    HW170540   3.784  11.101  13.104
56236SOL    HW270541   3.878  11.049  13.211
56237SOL     OW70542  11.336   1.071   3.243
56237SOL    HW170543  11.385   1.084   3.324
56237SOL    HW270544  11.337   1.157   3.201
56238SOL     OW70545   6.743  11.321   1.785
56238SOL    HW170546   6.750  11.225   1.784
56238SOL    HW270547   6.833  11.351   1.773
56239SOL     OW70548   7.748   0.686   4.199
56239SOL    HW170549   7.677   0.728   4.150
56239SOL    HW270550   7.784   0.756   4.254
56240SOL     OW70551   6.791   2.010   3.322
56240SOL    HW170552   6.880   2.020   3.287
56240SOL    HW270553   6.799   2.031   3.415
56241SOL     OW70554  14.203   2.597  10.034
56241SOL    HW170555  14.173   2.576   9.946
56241SOL    HW270556  14.124   2.590  10.088
56242SOL     OW70557   1.231   6.469  14.243
56242SOL    HW170558   1.231   6.390  14.189
56242SOL    HW270559   1.245   6.437  14.332
56243SOL     OW70560   6.750   6.528  10.093
56243SOL    HW170561   6.734   6.602  10.151
56243SOL    HW270562   6.694   6.544  10.017
56244SOL     OW70563   7.219   1.430   6.807
56244SOL    HW170564   7.286   1.497   6.797
56244SOL    HW270565   7.193   1.435   6.898
56245SOL     OW70566  13.564  13.559   8.563
56245SOL    HW170567  13.631  13.555   8.494
56245SOL    HW270568  13.495  13.614   8.525
56246SOL     OW70569   5.724   3.275   4.604
56246SOL    HW170570   5.722   3.188   4.563
56246SOL    HW270571   5.817   3.291   4.621
56247SOL     OW70572   4.116   2.856  10.328
56247SOL    HW170573   4.114   2.847  10.232
56247SOL    HW270574   4.099   2.949  10.343
56248SOL     OW70575   2.872  13.644  13.986
56248SOL    HW170576   2.880  13.554  14.017
56248SOL    HW270577   2.781  13.669  14.006
56249SOL     OW70578   8.492   6.756   4.212
56249SOL    HW170579   8.411   6.751   4.162
56249SOL    HW270580   8.562   6.749   4.147
56250SOL     OW70581   3.716   6.035   2.450
56250SOL    HW170582   3.769   5.962   2.482
56250SOL    HW270583   3.684   6.004   2.365
56251SOL     OW70584   6.292  10.133   8.285
56251SOL    HW170585   6.285  10.222   8.250
56251SOL    HW270586   6.386  10.120   8.297
56252SOL     OW70587   7.638   0.336  14.842
56252SOL    HW170588   7.558   0.348   0.011
56252SOL    HW270589   7.614   0.363  14.753
56253SOL     OW70590   4.515   2.895   0.793
56253SOL    HW170591   4.426   2.925   0.775
56253SOL    HW270592   4.530   2.823   0.733
56254SOL     OW70593   6.163   3.580   9.297
56254SOL    HW170594   6.110   3.628   9.234
56254SOL    HW270595   6.150   3.488   9.275
56255SOL     OW70596   5.532   1.239   1.642
56255SOL    HW170597   5.622   1.229   1.672
56255SOL    HW270598   5.484   1.168   1.684
56256SOL     OW70599   8.392  12.463   8.711
56256SOL    HW170600   8.383  12.378   8.668
56256SOL    HW270601   8.471  12.501   8.672
56257SOL     OW70602   4.203   0.926  11.330
56257SOL    HW170603   4.280   0.962  11.287
56257SOL    HW270604   4.137   0.919  11.261
56258SOL     OW70605   0.005   5.192   6.314
56258SOL    HW170606   0.030   5.135   6.241
56258SOL    HW270607  14.793   5.175   6.325
56259SOL     OW70608   6.362   8.848   3.981
56259SOL    HW170609   6.433   8.876   3.924
56259SOL    HW270610   6.284   8.889   3.944
56260SOL     OW70611   4.878   7.232   4.078
56260SOL    HW170612   4.841   7.293   4.142
56260SOL    HW270613   4.882   7.148   4.123
56261SOL     OW70614   8.344   8.751   4.625
56261SOL    HW170615   8.370   8.767   4.535
56261SOL    HW270616   8.292   8.828   4.649
56262SOL     OW70617  10.405   1.137  11.488
56262SOL    HW170618  10.432   1.170  11.403
56262SOL    HW270619  10.414   1.042  11.481
56263SOL     OW70620  12.460   1.255   0.521
56263SOL    HW170621  12.533   1.312   0.497
56263SOL    HW270622  12.383   1.301   0.489
56264SOL     OW70623   5.517   0.619  10.112
56264SOL    HW170624   5.425   0.642  10.124
56264SOL    HW270625   5.540   0.656  10.027
56265SOL     OW70626  13.363   5.887   7.783
56265SOL    HW170627  13.379   5.794   7.796
56265SOL    HW270628  13.341   5.895   7.690
56266SOL     OW70629   2.387  14.469  14.712
56266SOL    HW170630   2.337  14.544  14.680
56266SOL    HW270631   2.438  14.503  14.785
56267SOL     OW70632   1.243   9.245   5.464
56267SOL    HW170633   1.261   9.151   5.457
56267SOL    HW270634   1.329   9.286   5.452
56268SOL     OW70635  12.454  10.125   1.193
56268SOL    HW170636  12.494  10.198   1.242
56268SOL    HW270637  12.364  10.154   1.178
56269SOL     OW70638   4.339   2.017  13.692
56269SOL    HW170639   4.384   1.933  13.703
56269SOL    HW270640   4.266   1.997  13.633
56270SOL     OW70641   9.221   8.016   5.610
56270SOL    HW170642   9.177   7.996   5.527
56270SOL    HW270643   9.161   8.077   5.654
56271SOL     OW70644   9.004   0.697  12.256
56271SOL    HW170645   9.004   0.730  12.346
56271SOL    HW270646   9.096   0.693  12.232
56272SOL     OW70647  10.032   3.704   3.290
56272SOL    HW170648  10.123   3.683   3.311
56272SOL    HW270649  10.019   3.791   3.327
56273SOL     OW70650  12.520   1.018  10.931
56273SOL    HW170651  12.440   0.968  10.944
56273SOL    HW270652  12.498   1.084  10.866
56274SOL     OW70653   8.224   6.599   2.985
56274SOL    HW170654   8.303   6.605   3.039
56274SOL    HW270655   8.216   6.687   2.946
56275SOL     OW70656  10.405  10.706   4.129
56275SOL    HW170657  10.374  10.760   4.057
56275SOL    HW270658  10.421  10.620   4.090
56276SOL     OW70659   4.763   1.299   4.428
56276SOL    HW170660   4.803   1.368   4.480
56276SOL    HW270661   4.836   1.260   4.379
56277SOL     OW70662  11.016   1.702   5.215
56277SOL    HW170663  10.966   1.729   5.292
56277SOL    HW270664  10.991   1.610   5.202
56278SOL     OW70665   2.980   2.797   9.762
56278SOL    HW170666   3.019   2.878   9.729
56278SOL    HW270667   2.958   2.747   9.683
56279SOL     OW70668   2.250   7.597   3.733
56279SOL    HW170669   2.208   7.662   3.788
56279SOL    HW270670   2.212   7.610   3.646
56280SOL     OW70671  11.264   1.138  10.399
56280SOL    HW170672  11.232   1.090  10.476
56280SOL    HW270673  11.352   1.165  10.423
56281SOL     OW70674  11.761   9.506  11.877
56281SOL    HW170675  11.750   9.583  11.822
56281SOL    HW270676  11.777   9.434  11.815
56282SOL     OW70677   0.790  14.711   7.279
56282SOL    HW170678   0.846  14.773   7.232
56282SOL    HW270679   0.849  14.643   7.310
56283SOL     OW70680  10.897   2.745  11.596
56283SOL    HW170681  10.897   2.653  11.625
56283SOL    HW270682  10.926   2.794  11.673
56284SOL     OW70683   1.344   5.212   5.663
56284SOL    HW170684   1.430   5.249   5.683
56284SOL    HW270685   1.284   5.285   5.669
56285SOL     OW70686   3.789  11.489  13.162
56285SOL    HW170687   3.742  11.551  13.106
56285SOL    HW270688   3.821  11.421  13.102
56286SOL     OW70689  12.522   5.934   0.612
56286SOL    HW170690  12.614   5.933   0.587
56286SOL    HW270691  12.521   5.975   0.699
56287SOL     OW70692   0.831   6.283   0.843
56287SOL    HW170693   0.896   6.337   0.888
56287SOL    HW270694   0.747   6.313   0.879
56288SOL     OW70695  14.194   4.816   7.638
56288SOL    HW170696  14.147   4.734   7.649
56288SOL    HW270697  14.141   4.881   7.685
56289SOL     OW70698  14.508  11.580   8.433
56289SOL    HW170699  14.521  11.493   8.470
56289SOL    HW270700  14.532  11.640   8.503
56290SOL     OW70701   1.618   8.760   4.214
56290SOL    HW170702   1.652   8.787   4.129
56290SOL    HW270703   1.696   8.749   4.269
56291SOL     OW70704   9.866   9.565   0.227
56291SOL    HW170705   9.777   9.531   0.234
56291SOL    HW270706   9.859   9.639   0.167
56292SOL     OW70707  12.600   4.840   1.405
56292SOL    HW170708  12.687   4.810   1.434
56292SOL    HW270709  12.562   4.879   1.484
56293SOL     OW70710  10.859   4.789  12.799
56293SOL    HW170711  10.774   4.795  12.843
56293SOL    HW270712  10.918   4.753  12.866
56294SOL     OW70713   3.108   8.912   7.298
56294SOL    HW170714   3.117   8.819   7.281
56294SOL    HW270715   3.013   8.927   7.301
56295SOL     OW70716   2.437  12.259   0.526
56295SOL    HW170717   2.438  12.216   0.441
56295SOL    HW270718   2.526  12.292   0.538
56296SOL     OW70719   0.312  14.701  11.261
56296SOL    HW170720   0.325  14.796  11.256
56296SOL    HW270721   0.315  14.671  11.170
56297SOL     OW70722   8.836  14.237   3.567
56297SOL    HW170723   8.836  14.284   3.650
56297SOL    HW270724   8.929  14.217   3.551
56298SOL     OW70725   7.880   5.529   6.275
56298SOL    HW170726   7.857   5.442   6.241
56298SOL    HW270727   7.967   5.518   6.312
56299SOL     OW70728   8.806  11.892   7.508
56299SOL    HW170729   8.784  11.835   7.434
56299SOL    HW270730   8.790  11.837   7.585
56300SOL     OW70731   8.120  14.288   9.523
56300SOL    HW170732   8.211  14.287   9.493
56300SOL    HW270733   8.070  14.317   9.447
56301SOL     OW70734   2.178   0.136   2.305
56301SOL    HW170735   2.247   0.203   2.305
56301SOL    HW270736   2.152   0.128   2.213
56302SOL     OW70737   6.763   4.774  14.462
56302SOL    HW170738   6.806   4.786  14.547
56302SOL    HW270739   6.674   4.807  14.476
56303SOL     OW70740   5.408  13.975   6.015
56303SOL    HW170741   5.472  13.920   6.060
56303SOL    HW270742   5.422  14.063   6.051
56304SOL     OW70743  10.400   0.721   8.951
56304SOL    HW170744  10.455   0.799   8.948
56304SOL    HW270745  10.384   0.700   8.859
56305SOL     OW70746  10.790  14.206   5.986
56305SOL    HW170747  10.735  14.190   5.909
56305SOL    HW270748  10.744  14.160   6.057
56306SOL     OW70749   1.120  14.578  12.957
56306SOL    HW170750   1.112  14.519  13.032
56306SOL    HW270751   1.196  14.633  12.978
56307SOL     OW70752   8.820   0.153  11.280
56307SOL    HW170753   8.738   0.177  11.236
56307SOL    HW270754   8.801   0.067  11.319
56308SOL     OW70755   8.080   0.565  13.707
56308SOL    HW170756   8.143   0.530  13.644
56308SOL    HW270757   8.119   0.648  13.736
56309SOL     OW70758   4.730   4.937  13.000
56309SOL    HW170759   4.696   4.875  13.063
56309SOL    HW270760   4.716   4.895  12.915
56310SOL     OW70761  11.930   2.411   6.796
56310SOL    HW170762  11.972   2.463   6.728
56310SOL    HW270763  11.991   2.338   6.811
56311SOL     OW70764   5.896   7.275   8.150
56311SOL    HW170765   5.948   7.245   8.224
56311SOL    HW270766   5.947   7.346   8.111
56312SOL     OW70767  10.743   7.930   9.410
56312SOL    HW170768  10.668   7.928   9.351
56312SOL    HW270769  10.772   8.021   9.409
56313SOL     OW70770   3.275   0.363   4.301
56313SOL    HW170771   3.179   0.352   4.303
56313SOL    HW270772   3.290   0.423   4.228
56314SOL     OW70773   2.913  10.959   5.821
56314SOL    HW170774   2.989  10.907   5.847
56314SOL    HW270775   2.851  10.896   5.784
56315SOL     OW70776   7.447   8.651   2.370
56315SOL    HW170777   7.493   8.706   2.433
56315SOL    HW270778   7.512   8.631   2.303
56316SOL     OW70779  13.604  13.484   0.648
56316SOL    HW170780  13.555  13.411   0.609
56316SOL    HW270781  13.567  13.492   0.736
56317SOL     OW70782   1.857   8.312   3.787
56317SOL    HW170783   1.763   8.313   3.769
56317SOL    HW270784   1.891   8.239   3.735
56318SOL     OW70785   6.973   9.789  11.343
56318SOL    HW170786   7.050   9.825  11.298
56318SOL    HW270787   6.917   9.757  11.272
56319SOL     OW70788   9.653   8.400   0.304
56319SOL    HW170789   9.708   8.468   0.264
56319SOL    HW270790   9.615   8.442   0.380
56320SOL     OW70791  10.468  11.729  14.507
56320SOL    HW170792  10.424  11.654  14.546
56320SOL    HW270793  10.523  11.764  14.577
56321SOL     OW70794  12.424  11.875  13.031
56321SOL    HW170795  12.409  11.915  12.945
56321SOL    HW270796  12.510  11.833  13.024
56322SOL     OW70797  13.411   6.023   8.936
56322SOL    HW170798  13.378   5.934   8.925
56322SOL    HW270799  13.506   6.012   8.946
56323SOL     OW70800  13.820   3.183  14.749
56323SOL    HW170801  13.752   3.171  14.816
56323SOL    HW270802  13.892   3.126  14.777
56324SOL     OW70803   0.902   6.036  12.808
56324SOL    HW170804   0.822   6.038  12.861
56324SOL    HW270805   0.897   6.115  12.754
56325SOL     OW70806   9.346   4.839  11.131
56325SOL    HW170807   9.406   4.787  11.077
56325SOL    HW270808   9.278   4.776  11.158
56326SOL     OW70809   3.119   9.721  14.625
56326SOL    HW170810   3.029   9.693  14.642
56326SOL    HW270811   3.173   9.654  14.667
56327SOL     OW70812  13.708  14.085  12.752
56327SOL    HW170813  13.640  14.089  12.686
56327SOL    HW270814  13.663  14.099  12.835
56328SOL     OW70815   7.834   6.262   5.358
56328SOL    HW170816   7.858   6.324   5.427
56328SOL    HW270817   7.815   6.317   5.282
56329SOL     OW70818   1.715  13.894  10.057
56329SOL    HW170819   1.652  13.963  10.036
56329SOL    HW270820   1.770  13.932  10.126
56330SOL     OW70821   4.085   3.414   0.607
56330SOL    HW170822   4.123   3.455   0.684
56330SOL    HW270823   4.158   3.370   0.564
56331SOL     OW70824  13.203   1.655  11.319
56331SOL    HW170825  13.132   1.591  11.316
56331SOL    HW270826  13.215   1.673  11.412
56332SOL     OW70827   9.698   9.021   5.002
56332SOL    HW170828   9.612   9.054   5.029
56332SOL    HW270829   9.743   9.002   5.084
56333SOL     OW70830   1.128   7.218   7.566
56333SOL    HW170831   1.219   7.215   7.534
56333SOL    HW270832   1.110   7.129   7.594
56334SOL     OW70833   8.569   0.144   5.742
56334SOL    HW170834   8.544   0.234   5.721
56334SOL    HW270835   8.488   0.094   5.733
56335SOL     OW70836   5.006   3.292   2.084
56335SOL    HW170837   5.058   3.279   2.163
56335SOL    HW270838   4.918   3.309   2.116
56336SOL     OW70839   2.479  14.635   4.981
56336SOL    HW170840   2.399  14.584   4.975
56336SOL    HW270841   2.546  14.573   5.009
56337SOL     OW70842   7.468  14.745   7.432
56337SOL    HW170843   7.536  14.812   7.441
56337SOL    HW270844   7.388  14.795   7.413
56338SOL     OW70845   2.350  14.762   2.843
56338SOL    HW170846   2.312  14.813   2.771
56338SOL    HW270847   2.431  14.726   2.806
56339SOL     OW70848   1.960   1.625  11.513
56339SOL    HW170849   1.950   1.545  11.460
56339SOL    HW270850   2.011   1.597  11.589
56340SOL     OW70851   5.457   5.952   3.510
56340SOL    HW170852   5.384   5.953   3.448
56340SOL    HW270853   5.522   6.010   3.471
56341SOL     OW70854   5.336   5.307  10.306
56341SOL    HW170855   5.246   5.280  10.324
56341SOL    HW270856   5.367   5.245  10.241
56342SOL     OW70857   4.317  12.913   0.903
56342SOL    HW170858   4.240  12.963   0.930
56342SOL    HW270859   4.381  12.979   0.876
56343SOL     OW70860  14.058   5.555  14.827
56343SOL    HW170861  14.145   5.515  14.840
56343SOL    HW270862  14.002   5.508   0.007
56344SOL     OW70863   1.812  14.467   6.293
56344SOL    HW170864   1.837  14.439   6.205
56344SOL    HW270865   1.869  14.542   6.311
56345SOL     OW70866  12.014   3.581   7.447
56345SOL    HW170867  11.995   3.657   7.501
56345SOL    HW270868  12.092   3.542   7.486
56346SOL     OW70869   3.221   4.382   9.559
56346SOL    HW170870   3.140   4.425   9.531
56346SOL    HW270871   3.290   4.426   9.510
56347SOL     OW70872   2.395   3.081  12.072
56347SOL    HW170873   2.485   3.096  12.102
56347SOL    HW270874   2.403   3.018  12.001
56348SOL     OW70875  12.806   7.017  14.445
56348SOL    HW170876  12.777   6.930  14.473
56348SOL    HW270877  12.846   7.055  14.523
56349SOL     OW70878   7.058   8.322   2.386
56349SOL    HW170879   7.134   8.380   2.387
56349SOL    HW270880   7.030   8.317   2.477
56350SOL     OW70881  12.163  14.491   2.438
56350SOL    HW170882  12.150  14.480   2.532
56350SOL    HW270883  12.099  14.558   2.413
56351SOL     OW70884   6.540   6.626  14.756
56351SOL    HW170885   6.469   6.581  14.802
56351SOL    HW270886   6.562   6.700  14.812
56352SOL     OW70887   0.902   3.607  12.066
56352SOL    HW170888   0.911   3.586  12.159
56352SOL    HW270889   0.899   3.522  12.023
56353SOL     OW70890   1.574  10.654  11.748
56353SOL    HW170891   1.617  10.729  11.708
56353SOL    HW270892   1.483  10.661  11.720
56354SOL     OW70893   0.825  12.213   6.593
56354SOL    HW170894   0.907  12.262   6.590
56354SOL    HW270895   0.778  12.250   6.668
56355SOL     OW70896  14.418  12.150  13.313
56355SOL    HW170897  14.439  12.084  13.379
56355SOL    HW270898  14.428  12.104  13.229
56356SOL     OW70899   8.519  10.846   0.242
56356SOL    HW170900   8.468  10.827   0.321
56356SOL    HW270901   8.608  10.818   0.264
56357SOL     OW70902   3.794   3.208   9.178
56357SOL    HW170903   3.772   3.141   9.242
56357SOL    HW270904   3.784   3.291   9.225
56358SOL     OW70905   3.944   8.544  10.757
56358SOL    HW170906   3.926   8.472  10.697
56358SOL    HW270907   3.908   8.621  10.713
56359SOL     OW70908   4.190   4.674   5.323
56359SOL    HW170909   4.127   4.698   5.256
56359SOL    HW270910   4.182   4.578   5.330
56360SOL     OW70911   9.889  10.145  11.761
56360SOL    HW170912   9.959  10.083  11.780
56360SOL    HW270913   9.881  10.144  11.666
56361SOL     OW70914   5.454   8.059   1.281
56361SOL    HW170915   5.523   8.041   1.345
56361SOL    HW270916   5.406   7.976   1.274
56362SOL     OW70917   4.945   9.344   7.760
56362SOL    HW170918   4.979   9.433   7.761
56362SOL    HW270919   4.978   9.304   7.841
56363SOL     OW70920   8.672   4.619   7.156
56363SOL    HW170921   8.707   4.610   7.245
56363SOL    HW270922   8.704   4.542   7.110
56364SOL     OW70923   1.457   4.692  11.441
56364SOL    HW170924   1.379   4.638  11.425
56364SOL    HW270925   1.506   4.687  11.359
56365SOL     OW70926  12.273  14.187   7.941
56365SOL    HW170927  12.340  14.151   7.883
56365SOL    HW270928  12.298  14.278   7.953
56366SOL     OW70929   8.081   8.107  12.900
56366SOL    HW170930   8.107   8.024  12.862
56366SOL    HW270931   8.150   8.128  12.963
56367SOL     OW70932  12.835   3.778   1.281
56367SOL    HW170933  12.798   3.690   1.280
56367SOL    HW270934  12.930   3.764   1.281
56368SOL     OW70935   9.879  14.607   5.670
56368SOL    HW170936   9.837  14.690   5.647
56368SOL    HW270937   9.972  14.621   5.651
56369SOL     OW70938  10.123   7.728   0.435
56369SOL    HW170939  10.145   7.646   0.392
56369SOL    HW270940  10.121   7.706   0.528
56370SOL     OW70941  12.731  11.352   3.910
56370SOL    HW170942  12.763  11.403   3.835
56370SOL    HW270943  12.708  11.267   3.873
56371SOL     OW70944  12.284   1.283   0.284
56371SOL    HW170945  12.249   1.309   0.199
56371SOL    HW270946  12.345   1.212   0.264
56372SOL     OW70947   0.180  10.093   0.528
56372SOL    HW170948   0.102  10.147   0.538
56372SOL    HW270949   0.148  10.006   0.505
56373SOL     OW70950   6.640   8.503   6.977
56373SOL    HW170951   6.713   8.472   7.030
56373SOL    HW270952   6.643   8.598   6.984
56374SOL     OW70953  10.398  14.438  12.301
56374SOL    HW170954  10.384  14.367  12.363
56374SOL    HW270955  10.492  14.455  12.304
56375SOL     OW70956   3.185   8.763  14.134
56375SOL    HW170957   3.264   8.769  14.189
56375SOL    HW270958   3.118   8.729  14.192
56376SOL     OW70959  10.270   9.982   8.554
56376SOL    HW170960  10.279   9.897   8.511
56376SOL    HW270961  10.311  10.044   8.494
56377SOL     OW70962   5.285   6.933  14.556
56377SOL    HW170963   5.227   6.992  14.604
56377SOL    HW270964   5.280   6.850  14.603
56378SOL     OW70965   8.438  13.785   6.121
56378SOL    HW170966   8.403  13.726   6.188
56378SOL    HW270967   8.360  13.826   6.083
56379SOL     OW70968   2.056  14.155  11.845
56379SOL    HW170969   2.064  14.176  11.752
56379SOL    HW270970   2.060  14.059  11.849
56380SOL     OW70971   8.333  13.074  11.108
56380SOL    HW170972   8.253  13.075  11.056
56380SOL    HW270973   8.376  13.157  11.088
56381SOL     OW70974   2.658   4.502   1.782
56381SOL    HW170975   2.578   4.532   1.738
56381SOL    HW270976   2.683   4.422   1.735
56382SOL     OW70977   1.799  13.905   1.682
56382SOL    HW170978   1.719  13.930   1.728
56382SOL    HW270979   1.851  13.859   1.747
56383SOL     OW70980   9.079   8.286   0.363
56383SOL    HW170981   9.096   8.199   0.399
56383SOL    HW270982   9.094   8.346   0.436
56384SOL     OW70983  13.611   9.776   6.706
56384SOL    HW170984  13.558   9.851   6.734
56384SOL    HW270985  13.629   9.728   6.787
56385SOL     OW70986  10.251  12.057  12.113
56385SOL    HW170987  10.299  12.112  12.175
56385SOL    HW270988  10.164  12.048  12.151
56386SOL     OW70989  13.372   0.338   9.311
56386SOL    HW170990  13.425   0.279   9.258
56386SOL    HW270991  13.431   0.410   9.333
56387SOL     OW70992   0.399   7.215   2.773
56387SOL    HW170993   0.493   7.203   2.778
56387SOL    HW270994   0.363   7.126   2.777
56388SOL     OW70995   3.312   1.160   9.317
56388SOL    HW170996   3.397   1.140   9.278
56388SOL    HW270997   3.332   1.181   9.408
56389SOL     OW70998  12.735  14.795   4.088
56389SOL    HW170999  12.789  14.777   4.011
56389SOL    HW271000  12.742   0.008   4.101
56390SOL     OW71001   0.214   1.749  14.743
56390SOL    HW171002   0.255   1.742  14.657
56390SOL    HW271003   0.267   1.692  14.799
56391SOL     OW71004  10.414   4.922   0.636
56391SOL    HW171005  10.485   4.865   0.607
56391SOL    HW271006  10.349   4.861   0.671
56392SOL     OW71007   6.328   2.047  13.517
56392SOL    HW171008   6.261   2.013  13.459
56392SOL    HW271009   6.393   1.977  13.523
56393SOL     OW71010   1.070  14.214  11.096
56393SOL    HW171011   1.077  14.123  11.123
56393SOL    HW271012   1.003  14.251  11.154
56394SOL     OW71013  10.524  11.452   3.765
56394SOL    HW171014  10.435  11.469   3.793
56394SOL    HW271015  10.531  11.494   3.679
56395SOL     OW71016   8.030   7.656   0.933
56395SOL    HW171017   8.085   7.731   0.955
56395SOL    HW271018   7.942   7.683   0.959
56396SOL     OW71019   7.755  14.308   6.459
56396SOL    HW171020   7.692  14.237   6.441
56396SOL    HW271021   7.708  14.366   6.519
56397SOL     OW71022   8.266  14.759  14.368
56397SOL    HW171023   8.196  14.695  14.359
56397SOL    HW271024   8.249  14.804  14.451
56398SOL     OW71025   8.211  11.374   5.036
56398SOL    HW171026   8.272  11.434   4.993
56398SOL    HW271027   8.263  11.331   5.103
56399SOL     OW71028   6.124  10.774   4.738
56399SOL    HW171029   6.108  10.816   4.822
56399SOL    HW271030   6.063  10.700   4.736
56400SOL     OW71031   7.703   6.837  14.426
56400SOL    HW171032   7.629   6.864  14.372
56400SOL    HW271033   7.676   6.856  14.516
56401SOL     OW71034   7.179   0.471   8.322
56401SOL    HW171035   7.116   0.464   8.395
56401SOL    HW271036   7.263   0.483   8.365
56402SOL     OW71037  12.020   0.485   4.161
56402SOL    HW171038  11.995   0.455   4.073
56402SOL    HW271039  12.114   0.497   4.156
56403SOL     OW71040   6.601   5.015   4.870
56403SOL    HW171041   6.549   4.967   4.806
56403SOL    HW271042   6.537   5.045   4.935
56404SOL     OW71043  11.995   2.445   7.255
56404SOL    HW171044  12.051   2.383   7.209
56404SOL    HW271045  12.030   2.447   7.344
56405SOL     OW71046   5.873   9.200   8.271
56405SOL    HW171047   5.927   9.261   8.320
56405SOL    HW271048   5.793   9.249   8.250
56406SOL     OW71049  11.776   8.734   8.553
56406SOL    HW171050  11.786   8.640   8.569
56406SOL    HW271051  11.725   8.766   8.627
56407SOL     OW71052  11.745   8.579   2.076
56407SOL    HW171053  11.806   8.592   2.004
56407SOL    HW271054  11.659   8.601   2.039
56408SOL     OW71055   1.512  12.898   9.009
56408SOL    HW171056   1.473  12.860   9.087
56408SOL    HW271057   1.567  12.970   9.042
56409SOL     OW71058  14.257   1.995   5.809
56409SOL    HW171059  14.236   1.928   5.745
56409SOL    HW271060  14.342   1.968   5.845
56410SOL     OW71061   7.076   7.661   0.820
56410SOL    HW171062   7.014   7.639   0.750
56410SOL    HW271063   7.073   7.586   0.878
56411SOL     OW71064   1.517   3.031   4.788
56411SOL    HW171065   1.432   3.044   4.829
56411SOL    HW271066   1.519   3.092   4.714
56412SOL     OW71067  10.813  12.780   5.055
56412SOL    HW171068  10.723  12.813   5.054
56412SOL    HW271069  10.864  12.850   5.095
56413SOL     OW71070   4.359   2.013   7.532
56413SOL    HW171071   4.425   2.046   7.592
56413SOL    HW271072   4.342   2.086   7.473
56414SOL     OW71073  13.424   4.947  12.258
56414SOL    HW171074  13.417   4.979  12.348
56414SOL    HW271075  13.473   4.865  12.266
56415SOL     OW71076  11.917   3.163   8.746
56415SOL    HW171077  11.921   3.130   8.657
56415SOL    HW271078  11.897   3.087   8.800
56416SOL     OW71079   2.289   9.983  12.564
56416SOL    HW171080   2.305   9.889  12.563
56416SOL    HW271081   2.358  10.019  12.620
56417SOL     OW71082  13.288   1.675   6.643
56417SOL    HW171083  13.300   1.594   6.692
56417SOL    HW271084  13.316   1.744   6.704
56418SOL     OW71085   3.433   6.337  10.272
56418SOL    HW171086   3.440   6.242  10.285
56418SOL    HW271087   3.521   6.370  10.292
56419SOL     OW71088   5.212   3.602   6.136
56419SOL    HW171089   5.179   3.679   6.090
56419SOL    HW271090   5.246   3.636   6.219
56420SOL     OW71091   3.993  10.929   8.740
56420SOL    HW171092   4.011  10.855   8.682
56420SOL    HW271093   4.039  11.003   8.700
56421SOL     OW71094   8.795  11.542  10.952
56421SOL    HW171095   8.862  11.474  10.946
56421SOL    HW271096   8.794  11.567  11.044
56422SOL     OW71097   6.420   3.518  10.862
56422SOL    HW171098   6.479   3.527  10.936
56422SOL    HW271099   6.338   3.558  10.891
56423SOL     OW71100   8.391   5.357   7.077
56423SOL    HW171101   8.302   5.394   7.072
56423SOL    HW271102   8.416   5.369   7.169
56424SOL     OW71103  10.396   2.507   0.248
56424SOL    HW171104  10.330   2.544   0.190
56424SOL    HW271105  10.470   2.568   0.243
56425SOL     OW71106   6.597   0.263   6.775
56425SOL    HW171107   6.583   0.296   6.864
56425SOL    HW271108   6.598   0.341   6.720
56426SOL     OW71109   1.124   5.109   7.529
56426SOL    HW171110   1.213   5.128   7.557
56426SOL    HW271111   1.084   5.195   7.513
56427SOL     OW71112   8.077   5.502  11.255
56427SOL    HW171113   8.057   5.465  11.169
56427SOL    HW271114   8.158   5.551  11.241
56428SOL     OW71115   4.048   9.405   8.840
56428SOL    HW171116   4.141   9.399   8.818
56428SOL    HW271117   4.035   9.496   8.866
56429SOL     OW71118  10.440   4.471  14.476
56429SOL    HW171119  10.452   4.527  14.399
56429SOL    HW271120  10.528   4.438  14.496
56430SOL     OW71121   1.520  11.213   6.079
56430SOL    HW171122   1.442  11.258   6.046
56430SOL    HW271123   1.539  11.255   6.163
56431SOL     OW71124   7.935   8.800   1.171
56431SOL    HW171125   7.970   8.737   1.108
56431SOL    HW271126   7.866   8.846   1.124
56432SOL     OW71127  12.933  13.394  11.471
56432SOL    HW171128  12.984  13.413  11.392
56432SOL    HW271129  12.947  13.301  11.487
56433SOL     OW71130   2.897  10.671   9.236
56433SOL    HW171131   2.901  10.634   9.325
56433SOL    HW271132   2.807  10.701   9.227
56434SOL     OW71133  11.550  11.798  14.528
56434SOL    HW171134  11.531  11.838  14.443
56434SOL    HW271135  11.468  11.755  14.553
56435SOL     OW71136   4.428   2.802   1.089
56435SOL    HW171137   4.455   2.733   1.150
56435SOL    HW271138   4.476   2.783   1.008
56436SOL     OW71139   9.255   4.957  11.735
56436SOL    HW171140   9.277   4.933  11.645
56436SOL    HW271141   9.196   4.887  11.765
56437SOL     OW71142   0.566  12.059   8.834
56437SOL    HW171143   0.618  12.011   8.769
56437SOL    HW271144   0.629  12.091   8.898
56438SOL     OW71145   7.961   1.612   1.141
56438SOL    HW171146   8.035   1.583   1.088
56438SOL    HW271147   7.987   1.594   1.232
56439SOL     OW71148   3.659   7.646   6.738
56439SOL    HW171149   3.739   7.697   6.751
56439SOL    HW271150   3.656   7.588   6.814
56440SOL     OW71151   1.404   7.640   9.137
56440SOL    HW171152   1.418   7.731   9.111
56440SOL    HW271153   1.481   7.594   9.105
56441SOL     OW71154   6.665  14.227   2.070
56441SOL    HW171155   6.749  14.203   2.031
56441SOL    HW271156   6.656  14.321   2.053
56442SOL     OW71157  14.421   1.668   1.329
56442SOL    HW171158  14.455   1.610   1.261
56442SOL    HW271159  14.471   1.749   1.317
56443SOL     OW71160   8.424   7.748   1.898
56443SOL    HW171161   8.489   7.678   1.906
56443SOL    HW271162   8.343   7.703   1.872
56444SOL     OW71163  13.832  14.872   3.990
56444SOL    HW171164  13.927  14.871   4.005
56444SOL    HW271165  13.805  14.782   4.003
56445SOL     OW71166   6.695  10.657  12.836
56445SOL    HW171167   6.669  10.636  12.746
56445SOL    HW271168   6.722  10.573  12.873
56446SOL     OW71169   9.130   7.726  12.083
56446SOL    HW171170   9.214   7.680  12.083
56446SOL    HW271171   9.095   7.713  11.995
56447SOL     OW71172   1.356   3.997  11.413
56447SOL    HW171173   1.263   3.995  11.435
56447SOL    HW271174   1.375   3.911  11.376
56448SOL     OW71175   4.729   2.005  14.354
56448SOL    HW171176   4.773   1.920  14.365
56448SOL    HW271177   4.744   2.027  14.262
56449SOL     OW71178   8.612   6.713   2.944
56449SOL    HW171179   8.691   6.765   2.935
56449SOL    HW271180   8.633   6.629   2.903
56450SOL     OW71181   2.512   3.734   9.535
56450SOL    HW171182   2.578   3.681   9.579
56450SOL    HW271183   2.518   3.709   9.442
56451SOL     OW71184   1.584   5.813   5.229
56451SOL    HW171185   1.647   5.798   5.299
56451SOL    HW271186   1.561   5.906   5.237
56452SOL     OW71187  11.416  11.265  14.779
56452SOL    HW171188  11.347  11.253  14.844
56452SOL    HW271189  11.497  11.265  14.830
56453SOL     OW71190   4.936   7.809   2.461
56453SOL    HW171191   4.899   7.813   2.373
56453SOL    HW271192   4.958   7.717   2.475
56454SOL     OW71193  13.588   3.913   3.466
56454SOL    HW171194  13.495   3.926   3.484
56454SOL    HW271195  13.630   3.918   3.552
56455SOL     OW71196   4.766   9.201  11.853
56455SOL    HW171197   4.799   9.114  11.874
56455SOL    HW271198   4.765   9.203  11.757
56456SOL     OW71199   4.728   0.337   7.230
56456SOL    HW171200   4.710   0.286   7.309
56456SOL    HW271201   4.815   0.308   7.201
56457SOL     OW71202  13.801  10.948   6.869
56457SOL    HW171203  13.729  10.893   6.899
56457SOL    HW271204  13.866  10.886   6.837
56458SOL     OW71205  14.572   3.295   3.772
56458SOL    HW171206  14.654   3.280   3.819
56458SOL    HW271207  14.544   3.208   3.744
56459SOL     OW71208  12.391  10.343  10.316
56459SOL    HW171209  12.335  10.314  10.244
56459SOL    HW271210  12.428  10.263  10.352
56460SOL     OW71211   5.383  12.886   9.878
56460SOL    HW171212   5.334  12.966   9.899
56460SOL    HW271213   5.467  12.897   9.924
56461SOL     OW71214  10.285   7.435   2.972
56461SOL    HW171215  10.321   7.520   2.998
56461SOL    HW271216  10.291   7.381   3.050
56462SOL     OW71217  10.619   3.141   8.037
56462SOL    HW171218  10.553   3.185   8.090
56462SOL    HW271219  10.641   3.204   7.968
56463SOL     OW71220   5.641  12.918   8.532
56463SOL    HW171221   5.650  12.848   8.467
56463SOL    HW271222   5.568  12.890   8.587
56464SOL     OW71223   8.353   5.369   3.169
56464SOL    HW171224   8.389   5.380   3.081
56464SOL    HW271225   8.363   5.276   3.188
56465SOL     OW71226   2.928  12.453   0.773
56465SOL    HW171227   2.902  12.544   0.760
56465SOL    HW271228   3.002  12.440   0.714
56466SOL     OW71229   4.779   6.558   8.959
56466SOL    HW171230   4.830   6.639   8.958
56466SOL    HW271231   4.748   6.550   9.049
56467SOL     OW71232   7.342   5.329  12.999
56467SOL    HW171233   7.290   5.383  13.058
56467SOL    HW271234   7.388   5.392  12.944
56468SOL     OW71235   9.068   3.393  12.024
56468SOL    HW171236   9.046   3.432  11.940
56468SOL    HW271237   9.144   3.443  12.055
56469SOL     OW71238   8.626  11.675  14.451
56469SOL    HW171239   8.589  11.600  14.403
56469SOL    HW271240   8.708  11.642  14.487
56470SOL     OW71241   8.006  13.932  14.776
56470SOL    HW171242   7.921  13.964  14.747
56470SOL    HW271243   8.070  13.991  14.735
56471SOL     OW71244   4.786   6.187   6.691
56471SOL    HW171245   4.768   6.183   6.785
56471SOL    HW271246   4.721   6.129   6.652
56472SOL     OW71247  14.626   5.834  14.174
56472SOL    HW171248  14.602   5.772  14.106
56472SOL    HW271249  14.586   5.916  14.147
56473SOL     OW71250  10.999   2.737   2.542
56473SOL    HW171251  10.930   2.799   2.518
56473SOL    HW271252  11.048   2.723   2.461
56474SOL     OW71253  11.013   6.037   9.126
56474SOL    HW171254  11.001   5.944   9.147
56474SOL    HW271255  10.958   6.051   9.050
56475SOL     OW71256   3.477  11.450  13.050
56475SOL    HW171257   3.462  11.428  12.959
56475SOL    HW271258   3.545  11.518  13.047
56476SOL     OW71259   8.550  13.538   1.274
56476SOL    HW171260   8.554  13.603   1.205
56476SOL    HW271261   8.583  13.583   1.352
56477SOL     OW71262   8.007   5.744  14.669
56477SOL    HW171263   8.074   5.780  14.727
56477SOL    HW271264   8.029   5.651  14.661
56478SOL     OW71265   1.401   5.266  13.120
56478SOL    HW171266   1.339   5.336  13.099
56478SOL    HW271267   1.443   5.246  13.037
56479SOL     OW71268  12.723   0.793   9.655
56479SOL    HW171269  12.701   0.791   9.748
56479SOL    HW271270  12.639   0.787   9.610
56480SOL     OW71271   9.952   6.964  13.152
56480SOL    HW171272  10.004   6.921  13.221
56480SOL    HW271273   9.863   6.934  13.167
56481SOL     OW71274   5.236   8.457   3.387
56481SOL    HW171275   5.331   8.444   3.381
56481SOL    HW271276   5.200   8.369   3.393
56482SOL     OW71277  13.893   7.320   5.363
56482SOL    HW171278  13.871   7.232   5.332
56482SOL    HW271279  13.877   7.317   5.457
56483SOL     OW71280   4.834   4.149   4.252
56483SOL    HW171281   4.822   4.183   4.341
56483SOL    HW271282   4.923   4.115   4.252
56484SOL     OW71283   2.305  14.790   4.400
56484SOL    HW171284   2.294   0.003   4.405
56484SOL    HW271285   2.222  14.759   4.362
56485SOL     OW71286  13.561  12.771  13.485
56485SOL    HW171287  13.621  12.793  13.414
56485SOL    HW271288  13.609  12.709  13.540
56486SOL     OW71289   2.877  13.390   9.833
56486SOL    HW171290   2.929  13.310   9.820
56486SOL    HW271291   2.942  13.455   9.861
56487SOL     OW71292   6.229   1.644   9.414
56487SOL    HW171293   6.274   1.573   9.368
56487SOL    HW271294   6.164   1.676   9.351
56488SOL     OW71295   2.945   0.170  13.648
56488SOL    HW171296   3.040   0.163  13.641
56488SOL    HW271297   2.923   0.247  13.595
56489SOL     OW71298   1.250  14.111   7.764
56489SOL    HW171299   1.316  14.181   7.771
56489SOL    HW271300   1.169  14.157   7.741
56490SOL     OW71301   7.992   4.452   8.764
56490SOL    HW171302   7.950   4.441   8.679
56490SOL    HW271303   8.069   4.394   8.760
56491SOL     OW71304  10.526  13.997   0.788
56491SOL    HW171305  10.557  14.075   0.742
56491SOL    HW271306  10.601  13.969   0.840
56492SOL     OW71307  12.564  10.097   9.184
56492SOL    HW171308  12.598  10.075   9.097
56492SOL    HW271309  12.553  10.012   9.227
56493SOL     OW71310   2.814   6.467  11.486
56493SOL    HW171311   2.898   6.420  11.490
56493SOL    HW271312   2.826   6.531  11.416
56494SOL     OW71313   5.980   4.361   0.778
56494SOL    HW171314   5.943   4.444   0.747
56494SOL    HW271315   6.059   4.387   0.827
56495SOL     OW71316   2.641   8.608  10.757
56495SOL    HW171317   2.734   8.627  10.742
56495SOL    HW271318   2.630   8.612  10.852
56496SOL     OW71319   1.777  12.442   5.378
56496SOL    HW171320   1.866  12.408   5.388
56496SOL    HW271321   1.744  12.448   5.467
56497SOL     OW71322  12.007   0.203   5.094
56497SOL    HW171323  11.929   0.251   5.068
56497SOL    HW271324  12.054   0.186   5.012
56498SOL     OW71325   4.992   0.115   2.170
56498SOL    HW171326   5.020   0.025   2.155
56498SOL    HW271327   5.035   0.165   2.101
56499SOL     OW71328   6.345   6.068  11.325
56499SOL    HW171329   6.383   6.053  11.412
56499SOL    HW271330   6.325   5.980  11.292
56500SOL     OW71331  13.349   7.282   5.605
56500SOL    HW171332  13.328   7.247   5.519
56500SOL    HW271333  13.387   7.368   5.588
56501SOL     OW71334  14.233   0.790   5.619
56501SOL    HW171335  14.276   0.724   5.565
56501SOL    HW271336  14.305   0.846   5.650
56502SOL     OW71337  13.623  10.515   8.193
56502SOL    HW171338  13.684  10.588   8.202
56502SOL    HW271339  13.548  10.538   8.246
56503SOL     OW71340   7.476   5.302   3.649
56503SOL    HW171341   7.460   5.288   3.556
56503SOL    HW271342   7.393   5.281   3.691
56504SOL     OW71343   5.221   4.946  14.407
56504SOL    HW171344   5.160   5.001  14.357
56504SOL    HW271345   5.275   4.904  14.340
56505SOL     OW71346   7.221   1.130   8.484
56505SOL    HW171347   7.294   1.167   8.435
56505SOL    HW271348   7.190   1.201   8.539
56506SOL     OW71349   9.914   8.008  13.103
56506SOL    HW171350   9.896   7.975  13.191
56506SOL    HW271351   9.828   8.012  13.060
56507SOL     OW71352  10.054   3.085   0.006
56507SOL    HW171353  10.093   3.075   0.093
56507SOL    HW271354  10.072   3.176  14.864
56508SOL     OW71355   6.840   9.648   0.384
56508SOL    HW171356   6.828   9.568   0.333
56508SOL    HW271357   6.802   9.628   0.470
56509SOL     OW71358   3.498   1.690   7.443
56509SOL    HW171359   3.478   1.706   7.535
56509SOL    HW271360   3.461   1.604   7.425
56510SOL     OW71361   0.189   6.445   9.526
56510SOL    HW171362   0.236   6.428   9.608
56510SOL    HW271363   0.164   6.358   9.495
56511SOL     OW71364   4.911   2.325  11.457
56511SOL    HW171365   4.949   2.408  11.486
56511SOL    HW271366   4.816   2.341  11.458
56512SOL     OW71367  11.011   3.555   1.045
56512SOL    HW171368  11.100   3.544   1.078
56512SOL    HW271369  11.021   3.595   0.958
56513SOL     OW71370  13.981   1.148   8.739
56513SOL    HW171371  14.047   1.153   8.669
56513SOL    HW271372  13.901   1.182   8.699
56514SOL     OW71373   8.088   5.971   6.395
56514SOL    HW171374   8.056   6.055   6.427
56514SOL    HW271375   8.031   5.906   6.435
56515SOL     OW71376  11.557  10.309   0.103
56515SOL    HW171377  11.599  10.246   0.044
56515SOL    HW271378  11.548  10.388   0.050
56516SOL     OW71379  12.641   6.697  10.480
56516SOL    HW171380  12.674   6.629  10.539
56516SOL    HW271381  12.548   6.677  10.469
56517SOL     OW71382   1.536   1.442   8.290
56517SOL    HW171383   1.631   1.446   8.289
56517SOL    HW271384   1.510   1.447   8.198
56518SOL     OW71385   9.267   0.119  13.547
56518SOL    HW171386   9.252   0.099  13.640
56518SOL    HW271387   9.218   0.053  13.500
56519SOL     OW71388   2.419  11.853  14.208
56519SOL    HW171389   2.360  11.789  14.246
56519SOL    HW271390   2.492  11.801  14.174
56520SOL     OW71391   2.844   1.040   5.375
56520SOL    HW171392   2.849   0.975   5.304
56520SOL    HW271393   2.913   1.014   5.436
56521SOL     OW71394   7.499   7.842  14.477
56521SOL    HW171395   7.537   7.930  14.470
56521SOL    HW271396   7.517   7.801  14.392
56522SOL     OW71397   3.021   4.652  12.003
56522SOL    HW171398   3.102   4.698  12.026
56522SOL    HW271399   2.955   4.721  11.998
56523SOL     OW71400  11.774   8.660   6.368
56523SOL    HW171401  11.824   8.597   6.420
56523SOL    HW271402  11.757   8.732   6.429
56524SOL     OW71403   3.678   3.333  10.684
56524SOL    HW171404   3.627   3.311  10.762
56524SOL    HW271405   3.768   3.339  10.716
56525SOL     OW71406  10.295   8.374   4.327
56525SOL    HW171407  10.211   8.360   4.285
56525SOL    HW271408  10.288   8.461   4.367
56526SOL     OW71409   2.417   5.539   5.644
56526SOL    HW171410   2.495   5.584   5.613
56526SOL    HW271411   2.370   5.606   5.694
56527SOL     OW71412   9.184  13.637   6.475
56527SOL    HW171413   9.147  13.659   6.561
56527SOL    HW271414   9.240  13.562   6.492
56528SOL     OW71415  12.806   6.483   0.989
56528SOL    HW171416  12.714   6.474   1.012
56528SOL    HW271417  12.848   6.407   1.030
56529SOL     OW71418  14.849   9.469  14.064
56529SOL    HW171419  14.778   9.456  14.128
56529SOL    HW271420   0.011   9.548  14.093
56530SOL     OW71421   8.258   3.383   7.761
56530SOL    HW171422   8.336   3.331   7.780
56530SOL    HW271423   8.287   3.474   7.769
56531SOL     OW71424  10.755   2.931   0.127
56531SOL    HW171425  10.805   2.977   0.194
56531SOL    HW271426  10.796   2.958   0.044
56532SOL     OW71427  13.828   8.282   0.514
56532SOL    HW171428  13.858   8.307   0.427
56532SOL    HW271429  13.818   8.365   0.561
56533SOL     OW71430   3.387   0.555   6.894
56533SOL    HW171431   3.341   0.615   6.836
56533SOL    HW271432   3.463   0.526   6.843
56534SOL     OW71433   7.273   6.463   5.525
56534SOL    HW171434   7.261   6.402   5.453
56534SOL    HW271435   7.224   6.425   5.598
56535SOL     OW71436  10.421   6.271  10.467
56535SOL    HW171437  10.382   6.356  10.485
56535SOL    HW271438  10.372   6.238  10.392
56536SOL     OW71439   8.695  14.774   2.847
56536SOL    HW171440   8.734  14.776   2.759
56536SOL    HW271441   8.770  14.783   2.906
56537SOL     OW71442   1.449   7.540   8.543
56537SOL    HW171443   1.373   7.582   8.584
56537SOL    HW271444   1.428   7.538   8.450
56538SOL     OW71445  11.327   9.507  12.970
56538SOL    HW171446  11.238   9.510  12.934
56538SOL    HW271447  11.382   9.545  12.901
56539SOL     OW71448  13.552  13.069  11.286
56539SOL    HW171449  13.587  13.053  11.374
56539SOL    HW271450  13.561  12.985  11.241
56540SOL     OW71451   1.351   7.262   9.409
56540SOL    HW171452   1.430   7.284   9.458
56540SOL    HW271453   1.285   7.242   9.476
56541SOL     OW71454  11.440   7.820  12.469
56541SOL    HW171455  11.347   7.796  12.472
56541SOL    HW271456  11.447   7.881  12.396
56542SOL     OW71457   5.070   5.549  12.175
56542SOL    HW171458   4.997   5.488  12.169
56542SOL    HW271459   5.081   5.582  12.086
56543SOL     OW71460   2.412   3.120   1.091
56543SOL    HW171461   2.436   3.061   1.163
56543SOL    HW271462   2.347   3.071   1.040
56544SOL     OW71463   1.243  11.886   8.581
56544SOL    HW171464   1.267  11.905   8.490
56544SOL    HW271465   1.321  11.846   8.619
56545SOL     OW71466   9.499   1.118   1.782
56545SOL    HW171467   9.577   1.103   1.835
56545SOL    HW271468   9.533   1.147   1.697
56546SOL     OW71469   9.139  10.202   0.193
56546SOL    HW171470   9.165  10.194   0.101
56546SOL    HW271471   9.153  10.295   0.213
56547SOL     OW71472   5.837   7.432  14.567
56547SOL    HW171473   5.925   7.458  14.541
56547SOL    HW271474   5.848   7.343  14.601
56548SOL     OW71475  10.226   2.630   1.672
56548SOL    HW171476  10.246   2.701   1.733
56548SOL    HW271477  10.305   2.621   1.618
56549SOL     OW71478   4.878   9.016   6.495
56549SOL    HW171479   4.904   8.937   6.543
56549SOL    HW271480   4.859   8.984   6.407
56550SOL     OW71481   9.992   4.628  14.421
56550SOL    HW171482  10.080   4.663  14.436
56550SOL    HW271483   9.934   4.694  14.459
56551SOL     OW71484  13.590  14.614   0.944
56551SOL    HW171485  13.669  14.649   0.903
56551SOL    HW271486  13.580  14.526   0.908
56552SOL     OW71487   8.027  12.206  10.414
56552SOL    HW171488   8.117  12.238  10.419
56552SOL    HW271489   7.982  12.269  10.357
56553SOL     OW71490   4.823   4.429   4.118
56553SOL    HW171491   4.748   4.372   4.104
56553SOL    HW271492   4.797   4.486   4.191
56554SOL     OW71493  10.689  10.297   0.612
56554SOL    HW171494  10.634  10.263   0.542
56554SOL    HW271495  10.735  10.220   0.647
56555SOL     OW71496   9.208   3.050   2.143
56555SOL    HW171497   9.181   2.976   2.196
56555SOL    HW271498   9.290   3.079   2.182
56556SOL     OW71499   4.330   0.820   8.981
56556SOL    HW171500   4.295   0.731   8.987
56556SOL    HW271501   4.362   0.839   9.069
56557SOL     OW71502   1.791   1.488  12.451
56557SOL    HW171503   1.799   1.461  12.542
56557SOL    HW271504   1.790   1.406  12.401
56558SOL     OW71505  11.094   4.947   2.252
56558SOL    HW171506  11.037   4.894   2.195
56558SOL    HW271507  11.085   5.036   2.219
56559SOL     OW71508   0.033  13.755   9.388
56559SOL    HW171509   0.047  13.817   9.316
56559SOL    HW271510  14.838  13.704   9.361
56560SOL     OW71511  14.770   2.585  13.661
56560SOL    HW171512  14.762   2.517  13.595
56560SOL    HW271513  14.824   2.653  13.620
56561SOL     OW71514  11.730  12.890   2.307
56561SOL    HW171515  11.788  12.874   2.232
56561SOL    HW271516  11.772  12.962   2.354
56562SOL     OW71517   1.363  14.635   1.841
56562SOL    HW171518   1.296  14.685   1.795
56562SOL    HW271519   1.352  14.658   1.933
56563SOL     OW71520  10.252  10.287  12.425
56563SOL    HW171521  10.201  10.230  12.481
56563SOL    HW271522  10.190  10.354  12.395
56564SOL     OW71523  13.229   0.845   7.560
56564SOL    HW171524  13.135   0.865   7.562
56564SOL    HW271525  13.272   0.929   7.548
56565SOL     OW71526  11.112  11.229   4.092
56565SOL    HW171527  11.055  11.301   4.065
56565SOL    HW271528  11.058  11.175   4.149
56566SOL     OW71529  13.737  11.642   6.343
56566SOL    HW171530  13.739  11.686   6.258
56566SOL    HW271531  13.824  11.603   6.352
56567SOL     OW71532   5.554   9.935  11.551
56567SOL    HW171533   5.551   9.885  11.632
56567SOL    HW271534   5.624   9.894  11.499
56568SOL     OW71535   0.990   4.722   7.288
56568SOL    HW171536   1.035   4.747   7.207
56568SOL    HW271537   0.914   4.673   7.259
56569SOL     OW71538   3.452   6.345  12.513
56569SOL    HW171539   3.414   6.335  12.601
56569SOL    HW271540   3.524   6.282  12.511
56570SOL     OW71541   9.398   5.250  14.606
56570SOL    HW171542   9.384   5.278  14.515
56570SOL    HW271543   9.480   5.200  14.603
56571SOL     OW71544   2.530   4.892  14.054
56571SOL    HW171545   2.437   4.875  14.036
56571SOL    HW271546   2.574   4.810  14.034
56572SOL     OW71547   9.336   1.718   7.656
56572SOL    HW171548   9.311   1.708   7.564
56572SOL    HW271549   9.431   1.724   7.655
56573SOL     OW71550  10.981  14.045   2.114
56573SOL    HW171551  10.984  14.032   2.019
56573SOL    HW271552  10.951  13.961   2.149
56574SOL     OW71553   3.150   2.515   6.155
56574SOL    HW171554   3.174   2.543   6.066
56574SOL    HW271555   3.146   2.597   6.205
56575SOL     OW71556  10.674   1.853   6.802
56575SOL    HW171557  10.717   1.920   6.856
56575SOL    HW271558  10.606   1.901   6.754
56576SOL     OW71559   0.370   7.891   6.160
56576SOL    HW171560   0.432   7.818   6.163
56576SOL    HW271561   0.418   7.966   6.196
56577SOL     OW71562   0.029   8.702   0.840
56577SOL    HW171563   0.059   8.772   0.782
56577SOL    HW271564   0.020   8.625   0.783
56578SOL     OW71565   8.858   8.721  12.493
56578SOL    HW171566   8.818   8.733  12.407
56578SOL    HW271567   8.895   8.806  12.515
56579SOL     OW71568   2.632  12.685   2.694
56579SOL    HW171569   2.702  12.700   2.758
56579SOL    HW271570   2.669  12.622   2.632
56580SOL     OW71571  12.338   6.639   1.287
56580SOL    HW171572  12.431   6.629   1.270
56580SOL    HW271573  12.321   6.584   1.364
56581SOL     OW71574   2.545   1.150  13.910
56581SOL    HW171575   2.554   1.156  14.005
56581SOL    HW271576   2.596   1.223  13.876
56582SOL     OW71577  10.222   2.598  13.362
56582SOL    HW171578  10.246   2.658  13.432
56582SOL    HW271579  10.291   2.608  13.297
56583SOL     OW71580   3.501   6.412   1.761
56583SOL    HW171581   3.444   6.466   1.707
56583SOL    HW271582   3.510   6.330   1.712
56584SOL     OW71583   9.491   4.811   2.367
56584SOL    HW171584   9.408   4.828   2.324
56584SOL    HW271585   9.557   4.821   2.298
56585SOL     OW71586   2.753   6.640   8.528
56585SOL    HW171587   2.828   6.591   8.495
56585SOL    HW271588   2.707   6.671   8.450
56586SOL     OW71589   9.568   8.941   3.877
56586SOL    HW171590   9.504   8.876   3.845
56586SOL    HW271591   9.567   9.010   3.810
56587SOL     OW71592  13.421   7.493   6.565
56587SOL    HW171593  13.510   7.515   6.536
56587SOL    HW271594  13.391   7.428   6.501
56588SOL     OW71595   5.467  14.879   8.113
56588SOL    HW171596   5.448  14.823   8.037
56588SOL    HW271597   5.500  14.819   8.180
56589SOL     OW71598  11.356   1.122   2.354
56589SOL    HW171599  11.315   1.041   2.385
56589SOL    HW271600  11.282   1.179   2.332
56590SOL     OW71601  10.524  13.926   0.463
56590SOL    HW171602  10.494  14.015   0.482
56590SOL    HW271603  10.569  13.934   0.379
56591SOL     OW71604   7.590   3.986  11.800
56591SOL    HW171605   7.552   3.916  11.746
56591SOL    HW271606   7.675   4.004  11.760
56592SOL     OW71607   7.713   2.664   1.494
56592SOL    HW171608   7.803   2.640   1.471
56592SOL    HW271609   7.663   2.583   1.481
56593SOL     OW71610  10.754  12.860  14.292
56593SOL    HW171611  10.803  12.918  14.351
56593SOL    HW271612  10.797  12.871  14.207
56594SOL     OW71613   2.572  13.152  13.883
56594SOL    HW171614   2.512  13.078  13.880
56594SOL    HW271615   2.580  13.180  13.792
56595SOL     OW71616   0.018   4.049   2.592
56595SOL    HW171617   0.045   4.139   2.574
56595SOL    HW271618   0.081   3.994   2.545
56596SOL     OW71619   1.021   3.536   2.519
56596SOL    HW171620   1.005   3.501   2.431
56596SOL    HW271621   1.008   3.462   2.578
56597SOL     OW71622   4.059  11.658  12.278
56597SOL    HW171623   4.102  11.607  12.346
56597SOL    HW271624   4.084  11.617  12.196
56598SOL     OW71625   6.848   4.088  13.021
56598SOL    HW171626   6.851   4.067  12.928
56598SOL    HW271627   6.932   4.059  13.055
56599SOL     OW71628   4.696   6.120  11.853
56599SOL    HW171629   4.608   6.142  11.823
56599SOL    HW271630   4.747   6.109  11.772
56600SOL     OW71631  10.570   7.318   9.711
56600SOL    HW171632  10.574   7.389   9.776
56600SOL    HW271633  10.628   7.347   9.641
56601SOL     OW71634   9.263   4.707   2.173
56601SOL    HW171635   9.296   4.680   2.088
56601SOL    HW271636   9.266   4.627   2.226
56602SOL     OW71637  14.574   0.500   0.200
56602SOL    HW171638  14.483   0.515   0.171
56602SOL    HW271639  14.572   0.516   0.294
56603SOL     OW71640   8.522   9.789   8.755
56603SOL    HW171641   8.537   9.724   8.823
56603SOL    HW271642   8.538   9.873   8.798
56604SOL     OW71643   0.115   7.997  12.855
56604SOL    HW171644   0.100   8.080  12.808
56604SOL    HW271645   0.181   8.018  12.920
56605SOL     OW71646   8.078  12.479   2.130
56605SOL    HW171647   7.991  12.506   2.158
56605SOL    HW271648   8.069  12.386   2.110
56606SOL     OW71649   5.118  13.129  13.295
56606SOL    HW171650   5.030  13.165  13.284
56606SOL    HW271651   5.146  13.162  13.381
56607SOL     OW71652   4.641   9.019   1.604
56607SOL    HW171653   4.553   9.000   1.571
56607SOL    HW271654   4.681   8.933   1.617
56608SOL     OW71655  11.510   5.579  10.019
56608SOL    HW171656  11.476   5.527   9.947
56608SOL    HW271657  11.484   5.531  10.098
56609SOL     OW71658   7.835  10.947   4.019
56609SOL    HW171659   7.854  10.875   3.960
56609SOL    HW271660   7.791  10.906   4.093
56610SOL     OW71661   9.462  13.888   2.002
56610SOL    HW171662   9.390  13.876   2.064
56610SOL    HW271663   9.540  13.862   2.050
56611SOL     OW71664  11.842   9.372  10.491
56611SOL    HW171665  11.772   9.429  10.459
56611SOL    HW271666  11.814   9.284  10.465
56612SOL     OW71667   2.719   8.773   1.968
56612SOL    HW171668   2.775   8.711   2.015
56612SOL    HW271669   2.630   8.752   1.996
56613SOL     OW71670   0.965   7.930   7.482
56613SOL    HW171671   1.048   7.970   7.510
56613SOL    HW271672   0.899   7.972   7.537
56614SOL     OW71673   4.912   5.677  14.156
56614SOL    HW171674   4.864   5.706  14.079
56614SOL    HW271675   4.928   5.584  14.141
56615SOL     OW71676  13.673   6.595   2.826
56615SOL    HW171677  13.691   6.593   2.920
56615SOL    HW271678  13.735   6.660   2.792
56616SOL     OW71679   0.116   3.372   3.358
56616SOL    HW171680   0.047   3.413   3.306
56616SOL    HW271681   0.141   3.294   3.308
56617SOL     OW71682   0.842   4.046   4.566
56617SOL    HW171683   0.864   4.045   4.473
56617SOL    HW271684   0.747   4.061   4.568
56618SOL     OW71685  14.321   5.836   1.650
56618SOL    HW171686  14.310   5.742   1.661
56618SOL    HW271687  14.304   5.873   1.737
56619SOL     OW71688   7.706   8.335  10.689
56619SOL    HW171689   7.616   8.312  10.665
56619SOL    HW271690   7.735   8.394  10.619
56620SOL     OW71691   6.958   0.438  10.520
56620SOL    HW171692   7.031   0.439  10.582
56620SOL    HW271693   6.901   0.367  10.551
56621SOL     OW71694   4.820   7.133  13.664
56621SOL    HW171695   4.799   7.124  13.757
56621SOL    HW271696   4.899   7.187  13.662
56622SOL     OW71697   3.369   5.794   9.645
56622SOL    HW171698   3.380   5.877   9.600
56622SOL    HW271699   3.274   5.779   9.645
56623SOL     OW71700   2.479  10.847   1.226
56623SOL    HW171701   2.484  10.790   1.149
56623SOL    HW271702   2.402  10.902   1.210
56624SOL     OW71703   2.813   3.626  13.600
56624SOL    HW171704   2.830   3.659  13.688
56624SOL    HW271705   2.900   3.609  13.564
56625SOL     OW71706  14.382   8.129   4.325
56625SOL    HW171707  14.456   8.189   4.337
56625SOL    HW271708  14.313   8.166   4.380
56626SOL     OW71709   9.846   2.254  13.023
56626SOL    HW171710   9.764   2.207  13.040
56626SOL    HW271711   9.818   2.344  13.004
56627SOL     OW71712   3.525   4.881   2.840
56627SOL    HW171713   3.532   4.791   2.806
56627SOL    HW271714   3.614   4.905   2.863
56628SOL     OW71715   9.593  13.191   7.087
56628SOL    HW171716   9.591  13.160   6.997
56628SOL    HW271717   9.528  13.137   7.132
56629SOL     OW71718  10.190   2.931  10.500
56629SOL    HW171719  10.226   2.856  10.547
56629SOL    HW271720  10.190   2.904  10.408
56630SOL     OW71721  11.103  13.943  11.239
56630SOL    HW171722  11.041  13.964  11.309
56630SOL    HW271723  11.076  13.856  11.209
56631SOL     OW71724  13.695   4.928   3.854
56631SOL    HW171725  13.634   4.987   3.898
56631SOL    HW271726  13.688   4.952   3.761
56632SOL     OW71727   9.380   0.327   8.679
56632SOL    HW171728   9.311   0.268   8.649
56632SOL    HW271729   9.444   0.270   8.721
56633SOL     OW71730   5.990   4.250   9.923
56633SOL    HW171731   5.935   4.268   9.999
56633SOL    HW271732   6.027   4.335   9.899
56634SOL     OW71733  11.715   5.672   8.288
56634SOL    HW171734  11.788   5.611   8.277
56634SOL    HW271735  11.695   5.670   8.381
56635SOL     OW71736   5.533   4.002   1.825
56635SOL    HW171737   5.450   3.977   1.784
56635SOL    HW271738   5.531   3.958   1.910
56636SOL     OW71739   7.238  14.849  12.348
56636SOL    HW171740   7.203  14.763  12.371
56636SOL    HW271741   7.193  14.873  12.267
56637SOL     OW71742   2.969  14.555  11.904
56637SOL    HW171743   2.935  14.546  11.814
56637SOL    HW271744   3.064  14.551  11.894
56638SOL     OW71745   1.202   2.614  12.462
56638SOL    HW171746   1.275   2.643  12.518
56638SOL    HW271747   1.197   2.520  12.478
56639SOL     OW71748   2.127  14.165  11.049
56639SOL    HW171749   2.048  14.162  11.103
56639SOL    HW271750   2.129  14.254  11.015
56640SOL     OW71751  10.845   2.352  14.363
56640SOL    HW171752  10.828   2.445  14.348
56640SOL    HW271753  10.868   2.347  14.456
56641SOL     OW71754   5.538  10.467   0.614
56641SOL    HW171755   5.547  10.513   0.698
56641SOL    HW271756   5.621  10.484   0.569
56642SOL     OW71757  13.794   5.858   8.320
56642SOL    HW171758  13.712   5.906   8.325
56642SOL    HW271759  13.847   5.907   8.258
56643SOL     OW71760  14.600   5.263  10.846
56643SOL    HW171761  14.561   5.184  10.882
56643SOL    HW271762  14.651   5.233  10.771
56644SOL     OW71763   5.888  11.717   1.200
56644SOL    HW171764   5.890  11.636   1.251
56644SOL    HW271765   5.940  11.779   1.251
56645SOL     OW71766  10.273  11.156  13.905
56645SOL    HW171767  10.179  11.168  13.916
56645SOL    HW271768  10.298  11.217  13.836
56646SOL     OW71769   5.304  13.148   5.597
56646SOL    HW171770   5.321  13.058   5.572
56646SOL    HW271771   5.388  13.182   5.626
56647SOL     OW71772   1.635   9.059  14.364
56647SOL    HW171773   1.586   8.991  14.318
56647SOL    HW271774   1.589   9.071  14.446
56648SOL     OW71775   8.408   3.129   3.700
56648SOL    HW171776   8.333   3.096   3.650
56648SOL    HW271777   8.456   3.185   3.639
56649SOL     OW71778   8.897  12.426   8.612
56649SOL    HW171779   8.948  12.474   8.678
56649SOL    HW271780   8.936  12.339   8.611
56650SOL     OW71781  14.684  12.158   8.277
56650SOL    HW171782  14.707  12.067   8.256
56650SOL    HW271783  14.639  12.152   8.361
56651SOL     OW71784   7.375   4.863  11.701
56651SOL    HW171785   7.380   4.771  11.674
56651SOL    HW271786   7.466   4.894  11.699
56652SOL     OW71787   6.517  10.839  13.050
56652SOL    HW171788   6.500  10.748  13.074
56652SOL    HW271789   6.593  10.834  12.992
56653SOL     OW71790   8.706   9.682   6.865
56653SOL    HW171791   8.691   9.668   6.771
56653SOL    HW271792   8.628   9.730   6.894
56654SOL     OW71793  13.252   2.972   8.724
56654SOL    HW171794  13.194   3.005   8.792
56654SOL    HW271795  13.200   2.907   8.676
56655SOL     OW71796   9.524   1.082   3.820
56655SOL    HW171797   9.508   1.163   3.772
56655SOL    HW271798   9.619   1.069   3.813
56656SOL     OW71799  11.205   8.297  14.860
56656SOL    HW171800  11.192   8.390  14.878
56656SOL    HW271801  11.161   8.282  14.776
56657SOL     OW71802   8.227  14.684   9.111
56657SOL    HW171803   8.224  14.632   9.192
56657SOL    HW271804   8.308  14.735   9.119
56658SOL     OW71805   7.599  10.443  10.557
56658SOL    HW171806   7.613  10.484  10.472
56658SOL    HW271807   7.639  10.356  10.548
56659SOL     OW71808   9.376   5.681  13.670
56659SOL    HW171809   9.311   5.665  13.602
56659SOL    HW271810   9.458   5.650  13.633
56660SOL     OW71811   5.035   8.742   1.473
56660SOL    HW171812   5.007   8.655   1.499
56660SOL    HW271813   5.107   8.727   1.412
56661SOL     OW71814   1.191   8.850   6.269
56661SOL    HW171815   1.155   8.883   6.351
56661SOL    HW271816   1.120   8.859   6.206
56662SOL     OW71817   7.906  11.768   8.029
56662SOL    HW171818   7.979  11.807   7.980
56662SOL    HW271819   7.829  11.814   7.998
56663SOL     OW71820  12.187  10.040  14.840
56663SOL    HW171821  12.180   9.962   0.013
56663SOL    HW271822  12.120  10.099  14.875
56664SOL     OW71823   5.263   3.519  14.126
56664SOL    HW171824   5.352   3.485  14.137
56664SOL    HW271825   5.211   3.473  14.191
56665SOL     OW71826   2.351   7.414   9.359
56665SOL    HW171827   2.441   7.387   9.340
56665SOL    HW271828   2.347   7.505   9.331
56666SOL     OW71829  13.191   7.673  11.540
56666SOL    HW171830  13.205   7.610  11.468
56666SOL    HW271831  13.267   7.662  11.596
56667SOL     OW71832  14.124   6.053  12.483
56667SOL    HW171833  14.139   5.975  12.536
56667SOL    HW271834  14.074   6.112  12.540
56668SOL     OW71835   1.575   5.417  14.030
56668SOL    HW171836   1.532   5.409  14.116
56668SOL    HW271837   1.668   5.415  14.050
56669SOL     OW71838   2.925   3.554   5.052
56669SOL    HW171839   2.937   3.649   5.047
56669SOL    HW271840   2.868   3.533   4.979
56670SOL     OW71841   7.501   0.997  11.214
56670SOL    HW171842   7.455   1.062  11.162
56670SOL    HW271843   7.437   0.968  11.279
56671SOL     OW71844   6.527   9.283   8.068
56671SOL    HW171845   6.440   9.318   8.089
56671SOL    HW271846   6.527   9.276   7.972
56672SOL     OW71847  12.367   5.370   7.038
56672SOL    HW171848  12.442   5.393   6.983
56672SOL    HW271849  12.392   5.287   7.079
56673SOL     OW71850  13.765   3.417  11.735
56673SOL    HW171851  13.841   3.397  11.789
56673SOL    HW271852  13.802   3.430  11.647
56674SOL     OW71853   4.035   2.098   5.750
56674SOL    HW171854   4.128   2.085   5.731
56674SOL    HW271855   4.013   2.181   5.708
56675SOL     OW71856  10.265  10.693  12.403
56675SOL    HW171857  10.332  10.718  12.339
56675SOL    HW271858  10.314  10.654  12.475
56676SOL     OW71859   1.353   8.337  11.487
56676SOL    HW171860   1.340   8.248  11.452
56676SOL    HW271861   1.364   8.324  11.581
56677SOL     OW71862  12.793   8.562   7.653
56677SOL    HW171863  12.810   8.485   7.599
56677SOL    HW271864  12.879   8.604   7.661
56678SOL     OW71865   5.123   2.919  11.161
56678SOL    HW171866   5.075   2.983  11.109
56678SOL    HW271867   5.211   2.918  11.125
56679SOL     OW71868   8.082   2.378  13.182
56679SOL    HW171869   8.035   2.407  13.104
56679SOL    HW271870   8.169   2.354  13.150
56680SOL     OW71871  10.237  12.502   7.516
56680SOL    HW171872  10.297  12.429   7.529
56680SOL    HW271873  10.158  12.476   7.563
56681SOL     OW71874   6.465   9.751   9.799
56681SOL    HW171875   6.461   9.798   9.882
56681SOL    HW271876   6.392   9.689   9.804
56682SOL     OW71877   1.792   9.583   0.908
56682SOL    HW171878   1.815   9.490   0.901
56682SOL    HW271879   1.877   9.628   0.912
56683SOL     OW71880  11.876   9.788   2.991
56683SOL    HW171881  11.842   9.733   3.061
56683SOL    HW271882  11.957   9.825   3.027
56684SOL     OW71883   4.970  14.180   5.479
56684SOL    HW171884   4.983  14.086   5.470
56684SOL    HW271885   4.964  14.195   5.573
56685SOL     OW71886   3.369   5.425   8.294
56685SOL    HW171887   3.339   5.359   8.356
56685SOL    HW271888   3.464   5.415   8.292
56686SOL     OW71889   2.086   6.957  14.034
56686SOL    HW171890   2.142   6.996  13.967
56686SOL    HW271891   2.048   6.880  13.991
56687SOL     OW71892  10.952   3.341  12.799
56687SOL    HW171893  11.045   3.320  12.807
56687SOL    HW271894  10.909   3.256  12.794
56688SOL     OW71895  12.033  14.425   1.374
56688SOL    HW171896  11.990  14.502   1.337
56688SOL    HW271897  12.111  14.413   1.320
56689SOL     OW71898   8.867   4.852   2.383
56689SOL    HW171899   8.871   4.761   2.352
56689SOL    HW271900   8.938   4.896   2.336
56690SOL     OW71901   6.974   5.891   6.990
56690SOL    HW171902   6.886   5.884   7.026
56690SOL    HW271903   7.007   5.801   6.990
56691SOL     OW71904   5.122   2.905  10.506
56691SOL    HW171905   5.089   2.841  10.569
56691SOL    HW271906   5.084   2.879  10.422
56692SOL     OW71907  13.939   4.684   7.574
56692SOL    HW171908  13.860   4.633   7.588
56692SOL    HW271909  13.960   4.670   7.481
56693SOL     OW71910   7.977   4.640  10.537
56693SOL    HW171911   7.920   4.689  10.597
56693SOL    HW271912   8.064   4.676  10.552
56694SOL     OW71913   6.338   9.961   7.882
56694SOL    HW171914   6.337   9.918   7.796
56694SOL    HW271915   6.276   9.911   7.935
56695SOL     OW71916   6.935   5.451   4.367
56695SOL    HW171917   6.997   5.522   4.383
56695SOL    HW271918   6.910   5.421   4.455
56696SOL     OW71919   1.017  13.969  13.125
56696SOL    HW171920   1.100  13.980  13.079
56696SOL    HW271921   1.040  13.978  13.218
56697SOL     OW71922  10.260   9.131   7.738
56697SOL    HW171923  10.347   9.093   7.725
56697SOL    HW271924  10.232   9.159   7.651
56698SOL     OW71925  11.184  10.070   1.685
56698SOL    HW171926  11.097  10.030   1.690
56698SOL    HW271927  11.218  10.065   1.774
56699SOL     OW71928   1.803   7.796   3.802
56699SOL    HW171929   1.784   7.890   3.803
56699SOL    HW271930   1.762   7.764   3.722
56700SOL     OW71931   6.645   6.167   9.992
56700SOL    HW171932   6.730   6.164   9.947
56700SOL    HW271933   6.586   6.209   9.929
56701SOL     OW71934   6.507  10.450  14.059
56701SOL    HW171935   6.436  10.437  13.997
56701SOL    HW271936   6.554  10.526  14.026
56702SOL     OW71937  13.088  13.711  12.001
56702SOL    HW171938  13.063  13.722  12.093
56702SOL    HW271939  13.081  13.616  11.986
56703SOL     OW71940   8.742  14.439   6.074
56703SOL    HW171941   8.779  14.518   6.035
56703SOL    HW271942   8.817  14.392   6.110
56704SOL     OW71943  13.437  10.448   0.387
56704SOL    HW171944  13.357  10.500   0.378
56704SOL    HW271945  13.406  10.360   0.406
56705SOL     OW71946   3.044   6.710   8.499
56705SOL    HW171947   3.066   6.715   8.592
56705SOL    HW271948   3.125   6.678   8.458
56706SOL     OW71949   0.406   7.336   6.677
56706SOL    HW171950   0.467   7.265   6.658
56706SOL    HW271951   0.447   7.383   6.750
56707SOL     OW71952   0.181  10.187   3.155
56707SOL    HW171953   0.193  10.227   3.069
56707SOL    HW271954   0.220  10.101   3.147
56708SOL     OW71955   8.575  11.682   6.469
56708SOL    HW171956   8.580  11.711   6.560
56708SOL    HW271957   8.639  11.611   6.462
56709SOL     OW71958  10.671   4.194  12.469
56709SOL    HW171959  10.593   4.243  12.495
56709SOL    HW271960  10.666   4.189  12.374
56710SOL     OW71961   1.992   0.305   5.758
56710SOL    HW171962   2.084   0.327   5.772
56710SOL    HW271963   1.944   0.372   5.807
56711SOL     OW71964  11.532   1.606  11.662
56711SOL    HW171965  11.523   1.695  11.695
56711SOL    HW271966  11.520   1.615  11.567
56712SOL     OW71967  13.107  13.603   4.854
56712SOL    HW171968  13.066  13.643   4.777
56712SOL    HW271969  13.185  13.656   4.870
56713SOL     OW71970   7.993   2.517   3.689
56713SOL    HW171971   7.953   2.434   3.714
56713SOL    HW271972   8.001   2.566   3.771
56714SOL     OW71973   2.196   9.882   8.440
56714SOL    HW171974   2.270   9.943   8.450
56714SOL    HW271975   2.231   9.798   8.469
56715SOL     OW71976   6.079   6.934  10.177
56715SOL    HW171977   6.039   6.959  10.260
56715SOL    HW271978   6.114   6.846  10.193
56716SOL     OW71979   9.809   1.519   5.426
56716SOL    HW171980   9.829   1.606   5.462
56716SOL    HW271981   9.890   1.470   5.435
56717SOL     OW71982   7.054  13.740   3.073
56717SOL    HW171983   6.972  13.733   3.024
56717SOL    HW271984   7.030  13.787   3.153
56718SOL     OW71985   7.705  11.930   7.933
56718SOL    HW171986   7.649  11.875   7.878
56718SOL    HW271987   7.735  12.000   7.876
56719SOL     OW71988   6.163   2.872  12.771
56719SOL    HW171989   6.105   2.924  12.826
56719SOL    HW271990   6.232   2.842  12.830
56720SOL     OW71991   1.245  13.750   4.858
56720SOL    HW171992   1.320  13.753   4.917
56720SOL    HW271993   1.214  13.840   4.855
56721SOL     OW71994  10.503  10.523   6.648
56721SOL    HW171995  10.443  10.547   6.578
56721SOL    HW271996  10.494  10.592   6.713
56722SOL     OW71997   1.732   9.300  11.275
56722SOL    HW171998   1.816   9.288  11.319
56722SOL    HW271999   1.668   9.306  11.347
56723SOL     OW72000   0.180   9.531   6.374
56723SOL    HW172001   0.208   9.532   6.466
56723SOL    HW272002   0.101   9.586   6.372
56724SOL     OW72003   5.320   0.346   0.373
56724SOL    HW172004   5.378   0.401   0.426
56724SOL    HW272005   5.268   0.299   0.437
56725SOL     OW72006   2.350   6.062   4.811
56725SOL    HW172007   2.373   6.101   4.727
56725SOL    HW272008   2.342   6.137   4.871
56726SOL     OW72009  14.370   0.503   7.216
56726SOL    HW172010  14.399   0.534   7.130
56726SOL    HW272011  14.325   0.578   7.255
56727SOL     OW72012   1.594   6.223  10.068
56727SOL    HW172013   1.512   6.272  10.061
56727SOL    HW272014   1.662   6.290  10.063
56728SOL     OW72015   6.272  12.399   0.974
56728SOL    HW172016   6.338  12.431   1.035
56728SOL    HW272017   6.317  12.330   0.925
56729SOL     OW72018   3.048  14.415   8.311
56729SOL    HW172019   3.097  14.352   8.259
56729SOL    HW272020   3.083  14.500   8.285
56730SOL     OW72021   9.739   1.069   0.465
56730SOL    HW172022   9.749   1.075   0.370
56730SOL    HW272023   9.648   1.095   0.481
56731SOL     OW72024  14.205   5.503   3.068
56731SOL    HW172025  14.181   5.559   2.995
56731SOL    HW272026  14.131   5.508   3.128
56732SOL     OW72027   6.158  10.724   8.162
56732SOL    HW172028   6.157  10.819   8.166
56732SOL    HW272029   6.070  10.700   8.132
56733SOL     OW72030   7.303   6.112  13.492
56733SOL    HW172031   7.236   6.141  13.430
56733SOL    HW272032   7.376   6.172  13.478
56734SOL     OW72033   4.832   1.297  14.286
56734SOL    HW172034   4.921   1.261  14.287
56734SOL    HW272035   4.787   1.246  14.219
56735SOL     OW72036  13.769   3.417  13.235
56735SOL    HW172037  13.782   3.322  13.240
56735SOL    HW272038  13.809   3.451  13.316
56736SOL     OW72039   3.495   8.410  11.001
56736SOL    HW172040   3.566   8.366  10.953
56736SOL    HW272041   3.415   8.368  10.969
56737SOL     OW72042   8.615  12.289  14.763
56737SOL    HW172043   8.659  12.372  14.779
56737SOL    HW272044   8.536  12.312  14.714
56738SOL     OW72045  14.811  13.837  13.108
56738SOL    HW172046  14.741  13.781  13.077
56738SOL    HW272047   0.006  13.812  13.056
56739SOL     OW72048   9.733  10.686   5.253
56739SOL    HW172049   9.822  10.671   5.286
56739SOL    HW272050   9.722  10.780   5.258
56740SOL     OW72051   6.651   9.957   7.882
56740SOL    HW172052   6.621  10.021   7.817
56740SOL    HW272053   6.705   9.896   7.832
56741SOL     OW72054  14.825   6.488   2.393
56741SOL    HW172055  14.849   6.426   2.324
56741SOL    HW272056  14.834   6.574   2.351
56742SOL     OW72057   2.044   4.889   2.225
56742SOL    HW172058   2.063   4.960   2.164
56742SOL    HW272059   2.032   4.812   2.170
56743SOL     OW72060   1.151  13.284   9.519
56743SOL    HW172061   1.112  13.290   9.606
56743SOL    HW272062   1.204  13.364   9.511
56744SOL     OW72063   3.357  10.563   6.495
56744SOL    HW172064   3.301  10.487   6.483
56744SOL    HW272065   3.431  10.532   6.548
56745SOL     OW72066   0.952   2.225   0.080
56745SOL    HW172067   0.964   2.307   0.127
56745SOL    HW272068   0.946   2.250  14.870
56746SOL     OW72069   7.000   6.136   8.296
56746SOL    HW172070   6.907   6.147   8.313
56746SOL    HW272071   7.015   6.181   8.213
56747SOL     OW72072  12.752   7.219  12.610
56747SOL    HW172073  12.764   7.125  12.606
56747SOL    HW272074  12.714   7.235  12.696
56748SOL     OW72075  14.799   4.883   6.311
56748SOL    HW172076  14.739   4.936   6.258
56748SOL    HW272077  14.823   4.810   6.254
56749SOL     OW72078   3.298   8.494   1.331
56749SOL    HW172079   3.307   8.579   1.287
56749SOL    HW272080   3.206   8.489   1.355
56750SOL     OW72081   2.282   5.893   1.328
56750SOL    HW172082   2.273   5.862   1.418
56750SOL    HW272083   2.220   5.965   1.321
56751SOL     OW72084   3.365   2.201  14.505
56751SOL    HW172085   3.357   2.108  14.527
56751SOL    HW272086   3.298   2.244  14.560
56752SOL     OW72087  12.959  14.291   0.749
56752SOL    HW172088  13.005  14.207   0.748
56752SOL    HW272089  12.872  14.270   0.713
56753SOL     OW72090   6.677   2.867   1.272
56753SOL    HW172091   6.761   2.825   1.289
56753SOL    HW272092   6.699   2.959   1.253
56754SOL     OW72093   0.704   2.054   0.060
56754SOL    HW172094   0.797   2.072   0.067
56754SOL    HW272095   0.672   2.117  14.877
56755SOL     OW72096   4.808   0.875   3.708
56755SOL    HW172097   4.737   0.870   3.772
56755SOL    HW272098   4.764   0.899   3.626
56756SOL     OW72099   6.967  11.082   8.328
56756SOL    HW172100   7.029  11.044   8.266
56756SOL    HW272101   6.900  11.014   8.339
56757SOL     OW72102   4.778   4.759   0.913
56757SOL    HW172103   4.687   4.737   0.933
56757SOL    HW272104   4.803   4.822   0.980
56758SOL     OW72105  11.937  13.491   8.483
56758SOL    HW172106  11.945  13.439   8.563
56758SOL    HW272107  11.845  13.484   8.459
56759SOL     OW72108   6.903  11.999   1.413
56759SOL    HW172109   6.913  12.086   1.451
56759SOL    HW272110   6.920  12.013   1.319
56760SOL     OW72111   4.380  14.849   8.129
56760SOL    HW172112   4.451   0.011   8.082
56760SOL    HW272113   4.313  14.836   8.062
56761SOL     OW72114   8.640   6.615  10.284
56761SOL    HW172115   8.625   6.688  10.344
56761SOL    HW272116   8.564   6.558  10.295
56762SOL     OW72117  11.273  13.768   6.120
56762SOL    HW172118  11.359  13.753   6.080
56762SOL    HW272119  11.269  13.863   6.132
56763SOL     OW72120   7.092   0.415   7.133
56763SOL    HW172121   6.998   0.409   7.147
56763SOL    HW272122   7.118   0.328   7.102
56764SOL     OW72123   1.718  13.755  11.889
56764SOL    HW172124   1.716  13.718  11.801
56764SOL    HW272125   1.697  13.682  11.947
56765SOL     OW72126   2.652  14.880  11.431
56765SOL    HW172127   2.649  14.807  11.368
56765SOL    HW272128   2.578  14.865  11.489
56766SOL     OW72129   0.896   5.171  12.920
56766SOL    HW172130   0.881   5.105  12.988
56766SOL    HW272131   0.904   5.254  12.969
56767SOL     OW72132  11.112  12.008  11.989
56767SOL    HW172133  11.042  11.955  11.952
56767SOL    HW272134  11.132  11.967  12.073
56768SOL     OW72135   4.769  14.455   4.097
56768SOL    HW172136   4.739  14.448   4.188
56768SOL    HW272137   4.711  14.520   4.058
56769SOL     OW72138  12.842   7.664   1.501
56769SOL    HW172139  12.785   7.589   1.484
56769SOL    HW272140  12.874   7.690   1.414
56770SOL     OW72141   6.473  12.483   1.165
56770SOL    HW172142   6.527  12.411   1.196
56770SOL    HW272143   6.423  12.510   1.243
56771SOL     OW72144  13.520   8.526  11.990
56771SOL    HW172145  13.485   8.436  11.988
56771SOL    HW272146  13.611   8.516  11.963
56772SOL     OW72147  13.493   3.767   9.298
56772SOL    HW172148  13.482   3.849   9.345
56772SOL    HW272149  13.586   3.765   9.274
56773SOL     OW72150   9.224  14.548   7.542
56773SOL    HW172151   9.139  14.541   7.586
56773SOL    HW272152   9.240  14.459   7.509
56774SOL     OW72153   9.986  12.048   5.847
56774SOL    HW172154   9.895  12.077   5.839
56774SOL    HW272155  10.004  12.051   5.941
56775SOL     OW72156   2.209   6.358   1.567
56775SOL    HW172157   2.294   6.317   1.584
56775SOL    HW272158   2.228   6.452   1.567
56776SOL     OW72159   3.663   0.886   3.810
56776SOL    HW172160   3.666   0.969   3.857
56776SOL    HW272161   3.742   0.840   3.836
56777SOL     OW72162   9.078   0.665   4.721
56777SOL    HW172163   8.987   0.654   4.749
56777SOL    HW272164   9.077   0.639   4.628
56778SOL     OW72165   4.015   0.815   9.917
56778SOL    HW172166   3.957   0.771   9.855
56778SOL    HW272167   4.004   0.767   9.999
56779SOL     OW72168  11.764  14.869   6.106
56779SOL    HW172169  11.788  14.778   6.124
56779SOL    HW272170  11.820   0.038   6.164
56780SOL     OW72171   4.650   6.018   5.612
56780SOL    HW172172   4.637   5.980   5.699
56780SOL    HW272173   4.679   6.108   5.630
56781SOL     OW72174   5.847   2.072  13.183
56781SOL    HW172175   5.916   2.131  13.212
56781SOL    HW272176   5.845   2.083  13.088
56782SOL     OW72177   2.592   2.340  12.316
56782SOL    HW172178   2.639   2.264  12.282
56782SOL    HW272179   2.647   2.371  12.388
56783SOL     OW72180   0.727   4.435   1.762
56783SOL    HW172181   0.637   4.403   1.756
56783SOL    HW272182   0.779   4.369   1.716
56784SOL     OW72183  13.109   7.312   6.186
56784SOL    HW172184  13.106   7.216   6.190
56784SOL    HW272185  13.143   7.331   6.099
56785SOL     OW72186   0.057   3.333   6.482
56785SOL    HW172187  14.879   3.401   6.511
56785SOL    HW272188   0.014   3.295   6.405
56786SOL     OW72189   2.435  13.063   2.653
56786SOL    HW172190   2.356  13.074   2.706
56786SOL    HW272191   2.437  12.970   2.632
56787SOL     OW72192   5.630   2.701   1.439
56787SOL    HW172193   5.552   2.646   1.443
56787SOL    HW272194   5.654   2.703   1.347
56788SOL     OW72195   4.976   1.327  10.806
56788SOL    HW172196   5.044   1.394  10.808
56788SOL    HW272197   4.918   1.353  10.735
56789SOL     OW72198   8.704   0.359   7.384
56789SOL    HW172199   8.699   0.266   7.402
56789SOL    HW272200   8.795   0.374   7.357
56790SOL     OW72201   0.381   4.800  11.337
56790SOL    HW172202   0.346   4.712  11.324
56790SOL    HW272203   0.304   4.857  11.339
56791SOL     OW72204   1.099  13.958  13.395
56791SOL    HW172205   1.185  13.999  13.398
56791SOL    HW272206   1.115  13.872  13.355
56792SOL     OW72207   9.213   4.858   6.645
56792SOL    HW172208   9.121   4.856   6.669
56792SOL    HW272209   9.248   4.776   6.681
56793SOL     OW72210  10.334  14.675   2.254
56793SOL    HW172211  10.347  14.592   2.208
56793SOL    HW272212  10.246  14.703   2.229
56794SOL     OW72213   0.592   1.727   3.630
56794SOL    HW172214   0.570   1.774   3.550
56794SOL    HW272215   0.680   1.694   3.616
56795SOL     OW72216   2.916   8.099  12.809
56795SOL    HW172217   2.959   8.013  12.802
56795SOL    HW272218   2.954   8.151  12.738
56796SOL     OW72219   2.467  12.425   8.651
56796SOL    HW172220   2.423  12.377   8.721
56796SOL    HW272221   2.418  12.507   8.644
56797SOL     OW72222   8.666  11.088   2.057
56797SOL    HW172223   8.641  11.153   2.123
56797SOL    HW272224   8.729  11.134   2.002
56798SOL     OW72225   7.396   8.691  14.074
56798SOL    HW172226   7.307   8.669  14.045
56798SOL    HW272227   7.453   8.651  14.008
56799SOL     OW72228   4.967  11.287   9.452
56799SOL    HW172229   4.917  11.277   9.371
56799SOL    HW272230   4.933  11.218   9.510
56800SOL     OW72231   7.856   5.288   8.103
56800SOL    HW172232   7.865   5.198   8.134
56800SOL    HW272233   7.923   5.296   8.036
56801SOL     OW72234  11.047  11.912   6.531
56801SOL    HW172235  10.955  11.888   6.536
56801SOL    HW272236  11.047  12.004   6.505
56802SOL     OW72237  11.304   0.274  14.013
56802SOL    HW172238  11.318   0.325  14.093
56802SOL    HW272239  11.324   0.334  13.942
56803SOL     OW72240  12.027   2.615  10.678
56803SOL    HW172241  12.077   2.586  10.755
56803SOL    HW272242  12.024   2.710  10.686
56804SOL     OW72243   9.950   2.672  14.738
56804SOL    HW172244   9.968   2.704  14.650
56804SOL    HW272245   9.906   2.745  14.781
56805SOL     OW72246   1.281   8.312   5.740
56805SOL    HW172247   1.244   8.308   5.652
56805SOL    HW272248   1.374   8.329   5.726
56806SOL     OW72249  10.947   3.566   3.745
56806SOL    HW172250  10.894   3.487   3.731
56806SOL    HW272251  10.923   3.596   3.832
56807SOL     OW72252   1.136   8.278   2.893
56807SOL    HW172253   1.095   8.238   2.970
56807SOL    HW272254   1.157   8.204   2.837
56808SOL     OW72255  11.613   0.374   2.860
56808SOL    HW172256  11.695   0.383   2.812
56808SOL    HW272257  11.611   0.281   2.886
56809SOL     OW72258  11.695   6.330  13.979
56809SOL    HW172259  11.694   6.394  13.908
56809SOL    HW272260  11.787   6.320  14.002
56810SOL     OW72261   7.419   4.813   2.379
56810SOL    HW172262   7.469   4.876   2.328
56810SOL    HW272263   7.339   4.859   2.404
56811SOL     OW72264   0.912   2.756   1.836
56811SOL    HW172265   0.821   2.734   1.859
56811SOL    HW272266   0.960   2.746   1.918
56812SOL     OW72267  10.230   7.847   0.992
56812SOL    HW172268  10.276   7.778   1.040
56812SOL    HW272269  10.284   7.924   1.002
56813SOL     OW72270   8.172  12.912  11.386
56813SOL    HW172271   8.215  12.910  11.300
56813SOL    HW272272   8.242  12.932  11.447
56814SOL     OW72273  11.852  14.273   8.394
56814SOL    HW172274  11.832  14.183   8.419
56814SOL    HW272275  11.800  14.287   8.315
56815SOL     OW72276   4.282   6.572   1.324
56815SOL    HW172277   4.356   6.514   1.306
56815SOL    HW272278   4.205   6.517   1.315
56816SOL     OW72279  14.689   6.761  10.342
56816SOL    HW172280  14.744   6.761  10.420
56816SOL    HW272281  14.668   6.853  10.326
56817SOL     OW72282  13.321   0.043  14.517
56817SOL    HW172283  13.271  14.860  14.467
56817SOL    HW272284  13.385   0.078  14.455
56818SOL     OW72285   2.248   2.801   7.367
56818SOL    HW172286   2.158   2.816   7.337
56818SOL    HW272287   2.241   2.792   7.462
56819SOL     OW72288  13.126   1.121  13.452
56819SOL    HW172289  13.129   1.072  13.370
56819SOL    HW272290  13.218   1.137  13.473
56820SOL     OW72291   8.520   2.656   5.459
56820SOL    HW172292   8.480   2.693   5.380
56820SOL    HW272293   8.520   2.729   5.522
56821SOL     OW72294   3.951   6.780   2.218
56821SOL    HW172295   3.925   6.812   2.304
56821SOL    HW272296   3.887   6.712   2.196
56822SOL     OW72297  10.612  13.871  12.722
56822SOL    HW172298  10.682  13.914  12.673
56822SOL    HW272299  10.658  13.819  12.788
56823SOL     OW72300   6.105   1.408   8.795
56823SOL    HW172301   6.147   1.335   8.749
56823SOL    HW272302   6.037   1.367   8.848
56824SOL     OW72303  12.485   4.581   4.290
56824SOL    HW172304  12.574   4.555   4.316
56824SOL    HW272305  12.498   4.661   4.239
56825SOL     OW72306   9.595   0.831   7.466
56825SOL    HW172307   9.515   0.809   7.418
56825SOL    HW272308   9.563   0.872   7.547
56826SOL     OW72309  13.238   9.294   9.640
56826SOL    HW172310  13.200   9.275   9.554
56826SOL    HW272311  13.271   9.210   9.671
56827SOL     OW72312   9.794   5.550   3.612
56827SOL    HW172313   9.836   5.539   3.527
56827SOL    HW272314   9.862   5.586   3.669
56828SOL     OW72315   6.447   7.509   9.073
56828SOL    HW172316   6.423   7.595   9.038
56828SOL    HW272317   6.543   7.505   9.064
56829SOL     OW72318   8.785   2.081   5.797
56829SOL    HW172319   8.841   2.045   5.865
56829SOL    HW272320   8.827   2.057   5.715
56830SOL     OW72321  11.708   5.547   1.104
56830SOL    HW172322  11.781   5.566   1.163
56830SOL    HW272323  11.746   5.489   1.038
56831SOL     OW72324   6.454  14.032   5.891
56831SOL    HW172325   6.516  13.988   5.949
56831SOL    HW272326   6.406  13.961   5.848
56832SOL     OW72327   2.309   5.720   9.341
56832SOL    HW172328   2.236   5.686   9.290
56832SOL    HW272329   2.364   5.644   9.359
56833SOL     OW72330   4.871   7.243  10.334
56833SOL    HW172331   4.839   7.174  10.276
56833SOL    HW272332   4.884   7.318  10.276
56834SOL     OW72333  11.889  11.493   1.358
56834SOL    HW172334  11.823  11.494   1.428
56834SOL    HW272335  11.844  11.531   1.282
56835SOL     OW72336   5.996   6.238  12.800
56835SOL    HW172337   5.956   6.290  12.870
56835SOL    HW272338   5.940   6.253  12.724
56836SOL     OW72339   1.030   5.726   2.210
56836SOL    HW172340   1.026   5.790   2.139
56836SOL    HW272341   0.940   5.716   2.238
56837SOL     OW72342   9.837  11.607   0.349
56837SOL    HW172343   9.823  11.527   0.299
56837SOL    HW272344   9.809  11.678   0.291
56838SOL     OW72345  11.613   3.728   4.840
56838SOL    HW172346  11.539   3.785   4.817
56838SOL    HW272347  11.642   3.760   4.925
56839SOL     OW72348   7.796  12.796   5.367
56839SOL    HW172349   7.814  12.821   5.276
56839SOL    HW272350   7.861  12.844   5.418
56840SOL     OW72351  10.167   2.902  11.399
56840SOL    HW172352  10.262   2.899  11.404
56840SOL    HW272353  10.146   2.994  11.385
56841SOL     OW72354   9.565  10.021  12.892
56841SOL    HW172355   9.473  10.009  12.916
56841SOL    HW272356   9.600  10.079  12.959
56842SOL     OW72357  10.009   8.758   3.619
56842SOL    HW172358  10.049   8.703   3.687
56842SOL    HW272359   9.967   8.829   3.667
56843SOL     OW72360  13.026  10.506  11.800
56843SOL    HW172361  12.982  10.422  11.794
56843SOL    HW272362  12.958  10.567  11.828
56844SOL     OW72363   8.995  14.519  13.420
56844SOL    HW172364   8.928  14.505  13.486
56844SOL    HW272365   8.968  14.599  13.375
56845SOL     OW72366  10.321  13.772  11.453
56845SOL    HW172367  10.227  13.776  11.469
56845SOL    HW272368  10.342  13.859  11.417
56846SOL     OW72369   2.305   7.763   6.583
56846SOL    HW172370   2.383   7.721   6.619
56846SOL    HW272371   2.339   7.828   6.522
56847SOL     OW72372  12.913   4.334   8.196
56847SOL    HW172373  12.819   4.317   8.194
56847SOL    HW272374  12.930   4.366   8.284
56848SOL     OW72375  14.204   1.632   3.025
56848SOL    HW172376  14.221   1.566   3.092
56848SOL    HW272377  14.257   1.604   2.950
56849SOL     OW72378  14.243   7.246   0.501
56849SOL    HW172379  14.287   7.161   0.492
56849SOL    HW272380  14.151   7.224   0.512
56850SOL     OW72381  11.911  11.828   3.218
56850SOL    HW172382  11.832  11.842   3.165
56850SOL    HW272383  11.977  11.801   3.155
56851SOL     OW72384   7.815   2.289  14.341
56851SOL    HW172385   7.786   2.203  14.373
56851SOL    HW272386   7.867   2.269  14.263
56852SOL     OW72387  14.240  11.184  10.625
56852SOL    HW172388  14.168  11.247  10.628
56852SOL    HW272389  14.254  11.159  10.716
56853SOL     OW72390   1.193   7.856   8.040
56853SOL    HW172391   1.170   7.811   8.121
56853SOL    HW272392   1.166   7.947   8.053
56854SOL     OW72393   0.610   4.277   4.621
56854SOL    HW172394   0.520   4.248   4.635
56854SOL    HW272395   0.608   4.326   4.539
56855SOL     OW72396  12.168   4.565  11.083
56855SOL    HW172397  12.264   4.569  11.079
56855SOL    HW272398  12.140   4.578  10.993
56856SOL     OW72399   0.300  11.153   1.541
56856SOL    HW172400   0.209  11.179   1.555
56856SOL    HW272401   0.302  11.061   1.567
56857SOL     OW72402   0.364  12.598   9.356
56857SOL    HW172403   0.394  12.689   9.356
56857SOL    HW272404   0.334  12.582   9.446
56858SOL     OW72405   2.204  13.118   7.374
56858SOL    HW172406   2.264  13.061   7.421
56858SOL    HW272407   2.248  13.204   7.373
56859SOL     OW72408   8.209   4.252   4.692
56859SOL    HW172409   8.218   4.288   4.604
56859SOL    HW272410   8.279   4.186   4.698
56860SOL     OW72411   0.474   6.744   9.364
56860SOL    HW172412   0.514   6.805   9.302
56860SOL    HW272413   0.519   6.661   9.347
56861SOL     OW72414   8.620  12.811  13.305
56861SOL    HW172415   8.538  12.783  13.265
56861SOL    HW272416   8.613  12.906  13.311
56862SOL     OW72417   4.005  12.829   4.222
56862SOL    HW172418   4.052  12.911   4.209
56862SOL    HW272419   3.917  12.847   4.189
56863SOL     OW72420   5.737   3.052   9.492
56863SOL    HW172421   5.678   3.111   9.538
56863SOL    HW272422   5.693   3.034   9.408
56864SOL     OW72423  14.347  12.658  10.512
56864SOL    HW172424  14.362  12.636  10.420
56864SOL    HW272425  14.403  12.597  10.561
56865SOL     OW72426   6.893  11.413   3.857
56865SOL    HW172427   6.822  11.477   3.862
56865SOL    HW272428   6.910  11.405   3.763
56866SOL     OW72429  11.428   5.119  12.686
56866SOL    HW172430  11.459   5.029  12.682
56866SOL    HW272431  11.488   5.168  12.630
56867SOL     OW72432   3.183   3.509   7.850
56867SOL    HW172433   3.208   3.601   7.851
56867SOL    HW272434   3.177   3.485   7.943
56868SOL     OW72435  11.726   5.840   4.238
56868SOL    HW172436  11.750   5.757   4.278
56868SOL    HW272437  11.740   5.827   4.144
56869SOL     OW72438   2.646   2.437   0.874
56869SOL    HW172439   2.667   2.492   0.950
56869SOL    HW272440   2.563   2.395   0.897
56870SOL     OW72441   1.021   5.160   8.331
56870SOL    HW172442   1.070   5.146   8.413
56870SOL    HW272443   1.031   5.077   8.284
56871SOL     OW72444   7.508  14.730   6.147
56871SOL    HW172445   7.516  14.824   6.132
56871SOL    HW272446   7.500  14.722   6.242
56872SOL     OW72447  14.190  11.863  10.359
56872SOL    HW172448  14.283  11.881  10.343
56872SOL    HW272449  14.167  11.922  10.430
56873SOL     OW72450   9.111   7.774   0.316
56873SOL    HW172451   9.139   7.717   0.388
56873SOL    HW272452   9.179   7.765   0.250
56874SOL     OW72453   9.544  14.462  11.504
56874SOL    HW172454   9.524  14.377  11.543
56874SOL    HW272455   9.510  14.526  11.567
56875SOL     OW72456  12.216   6.769   9.210
56875SOL    HW172457  12.233   6.842   9.151
56875SOL    HW272458  12.272   6.698   9.178
56876SOL     OW72459   2.323   7.678   9.268
56876SOL    HW172460   2.272   7.726   9.202
56876SOL    HW272461   2.403   7.653   9.223
56877SOL     OW72462  13.757   1.706  11.447
56877SOL    HW172463  13.704   1.635  11.482
56877SOL    HW272464  13.701   1.749  11.382
56878SOL     OW72465   5.123   6.504   9.870
56878SOL    HW172466   5.120   6.416   9.908
56878SOL    HW272467   5.178   6.554   9.930
56879SOL     OW72468  10.365   3.159   6.195
56879SOL    HW172469  10.326   3.143   6.109
56879SOL    HW272470  10.291   3.183   6.251
56880SOL     OW72471   1.732  10.696   0.433
56880SOL    HW172472   1.756  10.772   0.486
56880SOL    HW272473   1.796  10.629   0.457
56881SOL     OW72474   0.600   5.357   9.977
56881SOL    HW172475   0.508   5.337   9.994
56881SOL    HW272476   0.597   5.422   9.906
56882SOL     OW72477   6.527   6.133  10.349
56882SOL    HW172478   6.433   6.135  10.329
56882SOL    HW272479   6.560   6.219  10.322
56883SOL     OW72480  14.820   8.965  14.219
56883SOL    HW172481  14.845   8.883  14.176
56883SOL    HW272482   0.013   8.987  14.274
56884SOL     OW72483  10.894  10.238   6.640
56884SOL    HW172484  10.970  10.233   6.583
56884SOL    HW272485  10.844  10.158   6.621
56885SOL     OW72486   6.359   0.968  12.129
56885SOL    HW172487   6.276   0.923  12.146
56885SOL    HW272488   6.381   0.943  12.039
56886SOL     OW72489  11.838   4.268   3.694
56886SOL    HW172490  11.757   4.317   3.675
56886SOL    HW272491  11.808   4.183   3.724
56887SOL     OW72492   1.417   3.241   4.629
56887SOL    HW172493   1.435   3.274   4.541
56887SOL    HW272494   1.349   3.299   4.663
56888SOL     OW72495  13.005  12.620   0.241
56888SOL    HW172496  13.053  12.554   0.291
56888SOL    HW272497  12.989  12.579   0.156
56889SOL     OW72498   1.985   2.512   1.556
56889SOL    HW172499   1.999   2.527   1.462
56889SOL    HW272500   1.919   2.576   1.581
56890SOL     OW72501  13.961  13.185   2.221
56890SOL    HW172502  13.907  13.132   2.280
56890SOL    HW272503  14.024  13.228   2.278
56891SOL     OW72504   4.221   1.941   1.399
56891SOL    HW172505   4.216   1.909   1.489
56891SOL    HW272506   4.154   2.009   1.395
56892SOL     OW72507   3.116  10.855   3.810
56892SOL    HW172508   3.040  10.801   3.786
56892SOL    HW272509   3.176  10.794   3.854
56893SOL     OW72510   8.539  13.781   5.863
56893SOL    HW172511   8.467  13.827   5.818
56893SOL    HW272512   8.513  13.781   5.955
56894SOL     OW72513  12.888  11.494   4.286
56894SOL    HW172514  12.965  11.499   4.230
56894SOL    HW272515  12.886  11.403   4.317
56895SOL     OW72516   5.360  13.894   7.502
56895SOL    HW172517   5.399  13.807   7.509
56895SOL    HW272518   5.329  13.899   7.411
56896SOL     OW72519   3.614   2.388  14.352
56896SOL    HW172520   3.633   2.374  14.259
56896SOL    HW272521   3.547   2.457  14.352
56897SOL     OW72522   9.114  13.848  10.827
56897SOL    HW172523   9.205  13.870  10.806
56897SOL    HW272524   9.076  13.822  10.744
56898SOL     OW72525  14.096   0.317  11.807
56898SOL    HW172526  14.026   0.260  11.840
56898SOL    HW272527  14.165   0.256  11.779
56899SOL     OW72528   3.595   6.187   7.900
56899SOL    HW172529   3.526   6.214   7.960
56899SOL    HW272530   3.631   6.107   7.938
56900SOL     OW72531   2.498   7.927  12.766
56900SOL    HW172532   2.556   7.965  12.700
56900SOL    HW272533   2.557   7.887  12.830
56901SOL     OW72534   3.010   8.159  12.132
56901SOL    HW172535   3.040   8.239  12.176
56901SOL    HW272536   2.997   8.185  12.041
56902SOL     OW72537  13.203   1.426   2.563
56902SOL    HW172538  13.151   1.346   2.579
56902SOL    HW272539  13.264   1.401   2.494
56903SOL     OW72540   3.589   9.077  11.554
56903SOL    HW172541   3.549   9.012  11.611
56903SOL    HW272542   3.680   9.048  11.545
56904SOL     OW72543   5.539   9.562  13.755
56904SOL    HW172544   5.574   9.551  13.843
56904SOL    HW272545   5.475   9.492  13.746
56905SOL     OW72546   8.182   2.820   6.296
56905SOL    HW172547   8.159   2.764   6.222
56905SOL    HW272548   8.100   2.831   6.344
56906SOL     OW72549   3.748   3.154  11.003
56906SOL    HW172550   3.765   3.156  11.097
56906SOL    HW272551   3.835   3.157  10.963
56907SOL     OW72552  11.296   9.884   3.426
56907SOL    HW172553  11.320   9.938   3.351
56907SOL    HW272554  11.369   9.892   3.487
56908SOL     OW72555  10.727  13.212   2.878
56908SOL    HW172556  10.645  13.253   2.850
56908SOL    HW272557  10.794  13.276   2.855
56909SOL     OW72558   1.206  11.059  14.144
56909SOL    HW172559   1.206  10.971  14.107
56909SOL    HW272560   1.284  11.101  14.106
56910SOL     OW72561   0.478   3.500   3.229
56910SOL    HW172562   0.387   3.513   3.202
56910SOL    HW272563   0.482   3.409   3.257
56911SOL     OW72564   6.796   9.598   9.473
56911SOL    HW172565   6.721   9.582   9.529
56911SOL    HW272566   6.761   9.645   9.398
56912SOL     OW72567   3.491   2.320   6.106
56912SOL    HW172568   3.437   2.350   6.033
56912SOL    HW272569   3.556   2.389   6.118
56913SOL     OW72570   0.529   5.094   1.211
56913SOL    HW172571   0.448   5.113   1.259
56913SOL    HW272572   0.598   5.135   1.262
56914SOL     OW72573   8.027  13.386   5.663
56914SOL    HW172574   8.015  13.480   5.653
56914SOL    HW272575   7.939  13.352   5.683
56915SOL     OW72576  13.143   3.821  11.683
56915SOL    HW172577  13.089   3.893  11.716
56915SOL    HW272578  13.135   3.827  11.588
56916SOL     OW72579   5.531  10.641  11.295
56916SOL    HW172580   5.544  10.715  11.354
56916SOL    HW272581   5.469  10.584  11.340
56917SOL     OW72582  11.621   7.126  13.888
56917SOL    HW172583  11.568   7.057  13.926
56917SOL    HW272584  11.698   7.081  13.853
56918SOL     OW72585  11.749   7.407   2.452
56918SOL    HW172586  11.828   7.379   2.496
56918SOL    HW272587  11.701   7.327   2.432
56919SOL     OW72588   4.862   1.826  14.072
56919SOL    HW172589   4.891   1.807  13.982
56919SOL    HW272590   4.778   1.783  14.080
56920SOL     OW72591   7.548   3.022  13.849
56920SOL    HW172592   7.469   3.008  13.901
56920SOL    HW272593   7.518   3.070  13.772
56921SOL     OW72594  10.632  13.283  12.674
56921SOL    HW172595  10.623  13.373  12.643
56921SOL    HW272596  10.572  13.232  12.619
56922SOL     OW72597   8.684   3.496  10.461
56922SOL    HW172598   8.695   3.477  10.368
56922SOL    HW272599   8.599   3.540  10.467
56923SOL     OW72600   7.529  12.601   9.353
56923SOL    HW172601   7.612  12.624   9.310
56923SOL    HW272602   7.545  12.515   9.391
56924SOL     OW72603   4.580   7.469   1.253
56924SOL    HW172604   4.594   7.552   1.208
56924SOL    HW272605   4.544   7.411   1.186
56925SOL     OW72606   7.468  13.390  10.866
56925SOL    HW172607   7.401  13.330  10.898
56925SOL    HW272608   7.523  13.407  10.942
56926SOL     OW72609  13.319   2.684   1.623
56926SOL    HW172610  13.301   2.590   1.627
56926SOL    HW272611  13.315   2.713   1.714
56927SOL     OW72612  12.829   7.921  13.362
56927SOL    HW172613  12.879   7.969  13.297
56927SOL    HW272614  12.790   7.989  13.418
56928SOL     OW72615   2.287   5.052  13.730
56928SOL    HW172616   2.315   5.017  13.646
56928SOL    HW272617   2.328   5.139  13.735
56929SOL     OW72618   8.057   0.474   8.071
56929SOL    HW172619   7.982   0.441   8.121
56929SOL    HW272620   8.041   0.568   8.063
56930SOL     OW72621   2.212   2.888   7.660
56930SOL    HW172622   2.126   2.856   7.635
56930SOL    HW272623   2.207   2.899   7.756
56931SOL     OW72624   8.233   0.038   6.372
56931SOL    HW172625   8.230   0.124   6.414
56931SOL    HW272626   8.236  14.857   6.444
56932SOL     OW72627   4.147   4.064  10.028
56932SOL    HW172628   4.097   4.003  10.084
56932SOL    HW272629   4.088   4.082   9.954
56933SOL     OW72630   5.243   5.696   2.103
56933SOL    HW172631   5.224   5.722   2.194
56933SOL    HW272632   5.295   5.768   2.068
56934SOL     OW72633   3.506   3.070  14.139
56934SOL    HW172634   3.454   3.085  14.060
56934SOL    HW272635   3.450   3.099  14.211
56935SOL     OW72636  11.154  10.453  13.862
56935SOL    HW172637  11.071  10.469  13.816
56935SOL    HW272638  11.219  10.449  13.792
56936SOL     OW72639   8.823  11.435  12.965
56936SOL    HW172640   8.855  11.454  13.053
56936SOL    HW272641   8.901  11.441  12.910
56937SOL     OW72642   8.400   2.621   1.901
56937SOL    HW172643   8.382   2.714   1.884
56937SOL    HW272644   8.428   2.618   1.992
56938SOL     OW72645   8.793   4.030   3.735
56938SOL    HW172646   8.784   3.941   3.769
56938SOL    HW272647   8.856   4.022   3.663
56939SOL     OW72648  10.060   4.667  11.852
56939SOL    HW172649  10.123   4.730  11.888
56939SOL    HW272650  10.007   4.719  11.791
56940SOL     OW72651   4.896   7.615  10.269
56940SOL    HW172652   4.958   7.598  10.339
56940SOL    HW272653   4.817   7.645  10.313
56941SOL     OW72654  10.543  14.229   2.470
56941SOL    HW172655  10.542  14.286   2.392
56941SOL    HW272656  10.538  14.140   2.435
56942SOL     OW72657  13.677   4.300   9.524
56942SOL    HW172658  13.607   4.277   9.463
56942SOL    HW272659  13.732   4.222   9.528
56943SOL     OW72660  12.545   1.217   6.757
56943SOL    HW172661  12.618   1.263   6.799
56943SOL    HW272662  12.499   1.175   6.830
56944SOL     OW72663   6.180   0.803   2.851
56944SOL    HW172664   6.099   0.818   2.899
56944SOL    HW272665   6.243   0.776   2.918
56945SOL     OW72666   4.271   6.779   0.162
56945SOL    HW172667   4.349   6.773   0.216
56945SOL    HW272668   4.263   6.872   0.141
56946SOL     OW72669   8.054   8.949  12.321
56946SOL    HW172670   8.148   8.960  12.310
56946SOL    HW272671   8.017   8.980  12.238
56947SOL     OW72672  10.073   7.825   4.073
56947SOL    HW172673  10.078   7.915   4.105
56947SOL    HW272674  10.164   7.795   4.070
56948SOL     OW72675   5.008  10.158   0.279
56948SOL    HW172676   5.036  10.246   0.255
56948SOL    HW272677   5.087  10.115   0.311
56949SOL     OW72678   4.878  10.435  11.712
56949SOL    HW172679   4.960  10.478  11.685
56949SOL    HW272680   4.900  10.391  11.794
56950SOL     OW72681   9.509  12.118   5.973
56950SOL    HW172682   9.418  12.111   5.945
56950SOL    HW272683   9.511  12.193   6.032
56951SOL     OW72684   5.214  12.259   3.054
56951SOL    HW172685   5.190  12.242   3.145
56951SOL    HW272686   5.196  12.177   3.009
56952SOL     OW72687   1.884  14.092  13.611
56952SOL    HW172688   1.973  14.125  13.627
56952SOL    HW272689   1.896  14.008  13.567
56953SOL     OW72690   5.602   4.428   8.065
56953SOL    HW172691   5.628   4.485   7.992
56953SOL    HW272692   5.684   4.407   8.109
56954SOL     OW72693   3.260  13.600   9.678
56954SOL    HW172694   3.167  13.602   9.656
56954SOL    HW272695   3.279  13.689   9.709
56955SOL     OW72696   2.846   1.604   5.823
56955SOL    HW172697   2.940   1.593   5.806
56955SOL    HW272698   2.813   1.514   5.831
56956SOL     OW72699   4.625   3.725   1.037
56956SOL    HW172700   4.681   3.698   1.110
56956SOL    HW272701   4.609   3.818   1.052
56957SOL     OW72702   3.501  12.106   7.700
56957SOL    HW172703   3.516  12.014   7.725
56957SOL    HW272704   3.542  12.115   7.614
56958SOL     OW72705   0.781  12.589   5.144
56958SOL    HW172706   0.852  12.632   5.191
56958SOL    HW272707   0.762  12.510   5.195
56959SOL     OW72708   0.165   3.146   4.893
56959SOL    HW172709   0.139   3.152   4.985
56959SOL    HW272710   0.260   3.133   4.896
56960SOL     OW72711  11.276  14.169   0.900
56960SOL    HW172712  11.360  14.137   0.932
56960SOL    HW272713  11.258  14.248   0.951
56961SOL     OW72714   0.467   9.212   0.899
56961SOL    HW172715   0.505   9.219   0.987
56961SOL    HW272716   0.398   9.278   0.898
56962SOL     OW72717   3.615   2.566  11.141
56962SOL    HW172718   3.582   2.519  11.218
56962SOL    HW272719   3.614   2.501  11.071
56963SOL     OW72720   8.336  12.470   1.432
56963SOL    HW172721   8.245  12.490   1.413
56963SOL    HW272722   8.333  12.391   1.486
56964SOL     OW72723   6.210  14.166   5.930
56964SOL    HW172724   6.301  14.137   5.926
56964SOL    HW272725   6.167  14.104   5.990
56965SOL     OW72726   0.912  13.091   9.449
56965SOL    HW172727   0.913  13.000   9.477
56965SOL    HW272728   0.962  13.138   9.515
56966SOL     OW72729   0.881  14.562  11.136
56966SOL    HW172730   0.971  14.563  11.102
56966SOL    HW272731   0.883  14.497  11.206
56967SOL     OW72732   4.224  13.226   3.665
56967SOL    HW172733   4.195  13.171   3.593
56967SOL    HW272734   4.307  13.188   3.693
56968SOL     OW72735   3.239   7.165   3.423
56968SOL    HW172736   3.297   7.208   3.485
56968SOL    HW272737   3.154   7.161   3.467
56969SOL     OW72738  14.155  12.011   2.614
56969SOL    HW172739  14.141  11.933   2.668
56969SOL    HW272740  14.069  12.028   2.575
56970SOL     OW72741  10.440   2.863   2.436
56970SOL    HW172742  10.527   2.870   2.397
56970SOL    HW272743  10.390   2.809   2.375
56971SOL     OW72744   6.785  11.916   8.020
56971SOL    HW172745   6.856  11.945   8.078
56971SOL    HW272746   6.708  11.913   8.076
56972SOL     OW72747   3.972   9.374   0.406
56972SOL    HW172748   3.922   9.440   0.357
56972SOL    HW272749   4.048   9.356   0.351
56973SOL     OW72750   2.386   2.866   1.322
56973SOL    HW172751   2.407   2.774   1.310
56973SOL    HW272752   2.471   2.910   1.325
56974SOL     OW72753  12.201   0.229   1.974
56974SOL    HW172754  12.296   0.227   1.975
56974SOL    HW272755  12.175   0.179   2.052
56975SOL     OW72756  10.471   9.314   9.217
56975SOL    HW172757  10.415   9.390   9.201
56975SOL    HW272758  10.515   9.334   9.300
56976SOL     OW72759  11.066   3.221  10.245
56976SOL    HW172760  10.997   3.156  10.259
56976SOL    HW272761  11.036   3.271  10.169
56977SOL     OW72762  13.958  12.775   2.322
56977SOL    HW172763  13.986  12.767   2.413
56977SOL    HW272764  14.037  12.804   2.276
56978SOL     OW72765   4.339   7.073   9.907
56978SOL    HW172766   4.384   7.021   9.840
56978SOL    HW272767   4.355   7.164   9.881
56979SOL     OW72768   8.576   3.521   7.603
56979SOL    HW172769   8.502   3.569   7.641
56979SOL    HW272770   8.619   3.482   7.679
56980SOL     OW72771   1.847  11.331   0.420
56980SOL    HW172772   1.761  11.326   0.463
56980SOL    HW272773   1.872  11.239   0.407
56981SOL     OW72774  10.747   1.341  14.816
56981SOL    HW172775  10.724   1.253  14.845
56981SOL    HW272776  10.786   1.329  14.730
56982SOL     OW72777   9.557  11.130   2.168
56982SOL    HW172778   9.537  11.172   2.252
56982SOL    HW272779   9.568  11.038   2.190
56983SOL     OW72780   0.651  11.928  10.990
56983SOL    HW172781   0.653  12.020  11.016
56983SOL    HW272782   0.558  11.904  10.992
56984SOL     OW72783   0.751   8.202   6.343
56984SOL    HW172784   0.766   8.281   6.291
56984SOL    HW272785   0.676   8.224   6.399
56985SOL     OW72786  13.323  11.100   1.542
56985SOL    HW172787  13.311  11.035   1.472
56985SOL    HW272788  13.404  11.073   1.586
56986SOL     OW72789   0.130   4.596   5.710
56986SOL    HW172790   0.109   4.534   5.640
56986SOL    HW272791   0.222   4.580   5.731
56987SOL     OW72792   5.081   7.815   1.381
56987SOL    HW172793   5.024   7.825   1.305
56987SOL    HW272794   5.110   7.724   1.376
56988SOL     OW72795   8.830   8.338  10.106
56988SOL    HW172796   8.823   8.370  10.195
56988SOL    HW272797   8.764   8.387  10.057
56989SOL     OW72798   1.999   6.527   2.960
56989SOL    HW172799   2.002   6.535   3.055
56989SOL    HW272800   2.091   6.528   2.933
56990SOL     OW72801  11.353   3.470   4.558
56990SOL    HW172802  11.368   3.400   4.495
56990SOL    HW272803  11.297   3.532   4.512
56991SOL     OW72804  10.329   8.230   0.990
56991SOL    HW172805  10.344   8.229   0.896
56991SOL    HW272806  10.350   8.141   1.019
56992SOL     OW72807   9.432   7.291  14.422
56992SOL    HW172808   9.415   7.205  14.459
56992SOL    HW272809   9.351   7.340  14.435
56993SOL     OW72810   9.984   8.293   3.696
56993SOL    HW172811   9.992   8.211   3.746
56993SOL    HW272812  10.071   8.306   3.659
56994SOL     OW72813  14.758  14.264   5.436
56994SOL    HW172814  14.779  14.352   5.404
56994SOL    HW272815  14.731  14.277   5.527
56995SOL     OW72816   6.683   2.033   1.159
56995SOL    HW172817   6.600   2.080   1.154
56995SOL    HW272818   6.747   2.093   1.121
56996SOL     OW72819   4.584  13.288   9.810
56996SOL    HW172820   4.621  13.369   9.775
56996SOL    HW272821   4.631  13.219   9.765
56997SOL     OW72822  13.744   6.073   2.342
56997SOL    HW172823  13.746   6.064   2.437
56997SOL    HW272824  13.662   6.031   2.315
56998SOL     OW72825   3.693   1.584   9.391
56998SOL    HW172826   3.639   1.606   9.315
56998SOL    HW272827   3.649   1.510   9.432
56999SOL     OW72828  12.977   0.181   7.388
56999SOL    HW172829  12.892   0.194   7.431
56999SOL    HW272830  13.040   0.192   7.459
57000SOL     OW72831   8.709  10.531  14.794
57000SOL    HW172832   8.637  10.576  14.837
57000SOL    HW272833   8.766  10.502  14.865
57001SOL     OW72834   6.663   1.295   0.925
57001SOL    HW172835   6.699   1.226   0.869
57001SOL    HW272836   6.735   1.317   0.985
57002SOL     OW72837  11.056   9.968   9.246
57002SOL    HW172838  11.064   9.985   9.152
57002SOL    HW272839  11.142   9.989   9.282
57003SOL     OW72840   7.700  14.390   9.049
57003SOL    HW172841   7.784  14.361   9.085
57003SOL    HW272842   7.688  14.478   9.083
57004SOL     OW72843   7.472   4.599  10.022
57004SOL    HW172844   7.550   4.647  10.050
57004SOL    HW272845   7.399   4.656  10.046
57005SOL     OW72846  10.243   2.691   8.713
57005SOL    HW172847  10.311   2.657   8.655
57005SOL    HW272848  10.200   2.613   8.748
57006SOL     OW72849   9.791   5.837  11.172
57006SOL    HW172850   9.743   5.862  11.251
57006SOL    HW272851   9.870   5.891  11.174
57007SOL     OW72852   8.923   5.441   4.513
57007SOL    HW172853   8.996   5.458   4.454
57007SOL    HW272854   8.846   5.475   4.467
57008SOL     OW72855   7.336   4.582  13.654
57008SOL    HW172856   7.346   4.492  13.622
57008SOL    HW272857   7.291   4.573  13.738
57009SOL     OW72858   7.039   2.157   7.898
57009SOL    HW172859   7.107   2.129   7.836
57009SOL    HW272860   6.959   2.160   7.845
57010SOL     OW72861   8.566   9.535   1.164
57010SOL    HW172862   8.578   9.458   1.108
57010SOL    HW272863   8.472   9.539   1.179
57011SOL     OW72864   2.199  12.768   2.210
57011SOL    HW172865   2.281  12.777   2.259
57011SOL    HW272866   2.207  12.683   2.166
57012SOL     OW72867   6.552   1.634   3.190
57012SOL    HW172868   6.586   1.702   3.248
57012SOL    HW272869   6.526   1.563   3.249
57013SOL     OW72870   6.343   5.834  11.209
57013SOL    HW172871   6.253   5.802  11.204
57013SOL    HW272872   6.347   5.905  11.144
57014SOL     OW72873  11.598  11.280  12.446
57014SOL    HW172874  11.576  11.188  12.430
57014SOL    HW272875  11.588  11.291  12.541
57015SOL     OW72876   9.822   3.654   2.459
57015SOL    HW172877   9.850   3.576   2.411
57015SOL    HW272878   9.883   3.660   2.533
57016SOL     OW72879   4.666   7.103   6.291
57016SOL    HW172880   4.685   7.012   6.314
57016SOL    HW272881   4.624   7.139   6.369
57017SOL     OW72882   5.166   8.621   8.825
57017SOL    HW172883   5.245   8.584   8.863
57017SOL    HW272884   5.173   8.715   8.841
57018SOL     OW72885   1.475  10.708  12.033
57018SOL    HW172886   1.496  10.801  12.045
57018SOL    HW272887   1.521  10.684  11.953
57019SOL     OW72888   2.043   2.452   5.186
57019SOL    HW172889   2.088   2.535   5.170
57019SOL    HW272890   2.097   2.387   5.141
57020SOL     OW72891   3.003  13.674   4.093
57020SOL    HW172892   3.005  13.657   4.187
57020SOL    HW272893   2.911  13.693   4.074
57021SOL     OW72894   0.879   5.842  13.430
57021SOL    HW172895   0.967   5.872  13.454
57021SOL    HW272896   0.853   5.900  13.359
57022SOL     OW72897   2.646  12.748  12.097
57022SOL    HW172898   2.628  12.674  12.154
57022SOL    HW272899   2.623  12.825  12.149
57023SOL     OW72900   7.299   5.576  10.033
57023SOL    HW172901   7.210   5.545  10.019
57023SOL    HW272902   7.330   5.604   9.947
57024SOL     OW72903   3.295   1.149  11.478
57024SOL    HW172904   3.329   1.237  11.494
57024SOL    HW272905   3.223   1.162  11.416
57025SOL     OW72906  12.585   4.600   8.085
57025SOL    HW172907  12.646   4.571   8.017
57025SOL    HW272908  12.529   4.663   8.041
57026SOL     OW72909   7.198   4.779   8.035
57026SOL    HW172910   7.290   4.754   8.041
57026SOL    HW272911   7.167   4.778   8.126
57027SOL     OW72912  13.964   6.809   5.738
57027SOL    HW172913  14.012   6.805   5.655
57027SOL    HW272914  14.019   6.761   5.800
57028SOL     OW72915   5.281   2.133  13.232
57028SOL    HW172916   5.345   2.062  13.244
57028SOL    HW272917   5.210   2.111  13.291
57029SOL     OW72918   1.026   1.780   8.432
57029SOL    HW172919   1.079   1.831   8.493
57029SOL    HW272920   1.033   1.690   8.465
57030SOL     OW72921  10.820   3.437  11.346
57030SOL    HW172922  10.874   3.481  11.412
57030SOL    HW272923  10.769   3.373  11.396
57031SOL     OW72924   1.330   2.016   0.778
57031SOL    HW172925   1.237   1.997   0.793
57031SOL    HW272926   1.348   1.982   0.691
57032SOL     OW72927   3.746   8.409   5.824
57032SOL    HW172928   3.700   8.493   5.833
57032SOL    HW272929   3.771   8.387   5.914
57033SOL     OW72930   8.380   5.484   2.900
57033SOL    HW172931   8.313   5.516   2.840
57033SOL    HW272932   8.459   5.532   2.875
57034SOL     OW72933  10.811   4.805  12.093
57034SOL    HW172934  10.857   4.814  12.176
57034SOL    HW272935  10.873   4.762  12.034
57035SOL     OW72936  12.858   0.022  10.434
57035SOL    HW172937  12.952   0.018  10.418
57035SOL    HW272938  12.835  14.816  10.464
57036SOL     OW72939   6.059   5.366  12.338
57036SOL    HW172940   6.093   5.456  12.340
57036SOL    HW272941   6.092   5.330  12.256
57037SOL     OW72942   9.537   4.663   6.430
57037SOL    HW172943   9.481   4.590   6.457
57037SOL    HW272944   9.477   4.733   6.407
57038SOL     OW72945  10.679  10.027  11.410
57038SOL    HW172946  10.656  10.036  11.317
57038SOL    HW272947  10.766   9.987  11.408
57039SOL     OW72948   4.617   3.560  11.410
57039SOL    HW172949   4.666   3.494  11.459
57039SOL    HW272950   4.674   3.584  11.337
57040SOL     OW72951  13.754   5.400   4.997
57040SOL    HW172952  13.759   5.335   5.066
57040SOL    HW272953  13.843   5.405   4.961
57041SOL     OW72954   8.392  11.456   9.455
57041SOL    HW172955   8.367  11.433   9.366
57041SOL    HW272956   8.446  11.383   9.485
57042SOL     OW72957   2.441   3.303   1.314
57042SOL    HW172958   2.431   3.256   1.231
57042SOL    HW272959   2.354   3.300   1.354
57043SOL     OW72960   4.453   5.465  12.801
57043SOL    HW172961   4.441   5.388  12.856
57043SOL    HW272962   4.474   5.430  12.715
57044SOL     OW72963   0.812   7.157   0.191
57044SOL    HW172964   0.784   7.153   0.282
57044SOL    HW272965   0.831   7.250   0.176
57045SOL     OW72966  13.577  14.669   6.433
57045SOL    HW172967  13.564  14.764   6.432
57045SOL    HW272968  13.489  14.632   6.431
57046SOL     OW72969   5.495   0.842   3.527
57046SOL    HW172970   5.512   0.936   3.520
57046SOL    HW272971   5.578   0.805   3.556
57047SOL     OW72972   4.622  14.259  11.412
57047SOL    HW172973   4.542  14.289  11.368
57047SOL    HW272974   4.676  14.223  11.342
57048SOL     OW72975   2.103   1.844   4.662
57048SOL    HW172976   2.195   1.847   4.688
57048SOL    HW272977   2.055   1.875   4.739
57049SOL     OW72978   2.641  10.445   3.075
57049SOL    HW172979   2.685  10.414   3.154
57049SOL    HW272980   2.704  10.432   3.005
57050SOL     OW72981  13.556   4.869   2.430
57050SOL    HW172982  13.508   4.796   2.389
57050SOL    HW272983  13.628   4.827   2.476
57051SOL     OW72984   1.472   2.197  14.734
57051SOL    HW172985   1.531   2.184  14.660
57051SOL    HW272986   1.386   2.206  14.694
57052SOL     OW72987  13.092   6.283   7.144
57052SOL    HW172988  13.120   6.219   7.079
57052SOL    HW272989  13.055   6.355   7.092
57053SOL     OW72990  14.391   3.893   3.769
57053SOL    HW172991  14.473   3.844   3.760
57053SOL    HW272992  14.413   3.968   3.824
57054SOL     OW72993   3.827  14.520   5.916
57054SOL    HW172994   3.827  14.470   5.998
57054SOL    HW272995   3.851  14.609   5.943
57055SOL     OW72996   7.227   4.938   3.457
57055SOL    HW172997   7.153   4.917   3.399
57055SOL    HW272998   7.189   4.943   3.544
57056SOL     OW72999   2.333   3.071   9.302
57056SOL    HW173000   2.415   3.109   9.272
57056SOL    HW273001   2.358   2.988   9.343
57057SOL     OW73002   7.366   1.615  14.543
57057SOL    HW173003   7.455   1.631  14.511
57057SOL    HW273004   7.319   1.581  14.468
57058SOL     OW73005  10.957   0.459   3.296
57058SOL    HW173006  10.921   0.544   3.271
57058SOL    HW273007  10.886   0.397   3.281
57059SOL     OW73008   6.043  10.240   7.247
57059SOL    HW173009   6.115  10.249   7.184
57059SOL    HW273010   5.980  10.183   7.204
57060SOL     OW73011   5.475   7.494   9.553
57060SOL    HW173012   5.519   7.433   9.494
57060SOL    HW273013   5.537   7.506   9.625
57061SOL     OW73014  10.515   1.195   9.171
57061SOL    HW173015  10.446   1.155   9.225
57061SOL    HW273016  10.579   1.227   9.234
57062SOL     OW73017  14.570  11.749   5.259
57062SOL    HW173018  14.662  11.769   5.276
57062SOL    HW273019  14.573  11.673   5.201
57063SOL     OW73020   3.144   9.021   4.455
57063SOL    HW173021   3.129   8.958   4.385
57063SOL    HW273022   3.236   9.009   4.479
57064SOL     OW73023  11.915   8.428  13.735
57064SOL    HW173024  11.934   8.350  13.683
57064SOL    HW273025  11.985   8.432  13.800
57065SOL     OW73026   4.997  14.565  10.772
57065SOL    HW173027   5.055  14.628  10.815
57065SOL    HW273028   4.920  14.616  10.747
57066SOL     OW73029  10.030   3.029   0.460
57066SOL    HW173030  10.105   3.022   0.402
57066SOL    HW273031  10.028   3.121   0.486
57067SOL     OW73032   3.555   4.019   7.130
57067SOL    HW173033   3.500   4.095   7.150
57067SOL    HW273034   3.634   4.033   7.182
57068SOL     OW73035   1.401   1.538   1.972
57068SOL    HW173036   1.402   1.487   2.053
57068SOL    HW273037   1.449   1.484   1.909
57069SOL     OW73038   0.053  11.020  10.815
57069SOL    HW173039   0.089  10.962  10.748
57069SOL    HW273040   0.057  10.968  10.896
57070SOL     OW73041  13.612  14.405  12.532
57070SOL    HW173042  13.590  14.386  12.441
57070SOL    HW273043  13.702  14.375  12.542
57071SOL     OW73044   2.583  11.692  10.031
57071SOL    HW173045   2.523  11.630  10.070
57071SOL    HW273046   2.565  11.688   9.937
57072SOL     OW73047   1.498   6.002  14.095
57072SOL    HW173048   1.419   6.006  14.149
57072SOL    HW273049   1.465   5.997  14.005
57073SOL     OW73050   6.470  14.673  13.230
57073SOL    HW173051   6.517  14.754  13.251
57073SOL    HW273052   6.535  14.604  13.241
57074SOL     OW73053   6.579  10.882   0.812
57074SOL    HW173054   6.602  10.832   0.890
57074SOL    HW273055   6.620  10.967   0.824
57075SOL     OW73056  11.725   4.829   3.034
57075SOL    HW173057  11.768   4.907   2.998
57075SOL    HW273058  11.670   4.797   2.962
57076SOL     OW73059  11.440  14.428   8.214
57076SOL    HW173060  11.403  14.449   8.299
57076SOL    HW273061  11.364  14.413   8.158
57077SOL     OW73062  13.413  11.066   2.170
57077SOL    HW173063  13.389  11.007   2.242
57077SOL    HW273064  13.334  11.115   2.151
57078SOL     OW73065   5.800   5.349   0.119
57078SOL    HW173066   5.754   5.329   0.200
57078SOL    HW273067   5.823   5.441   0.126
57079SOL     OW73068   6.841  14.576  10.797
57079SOL    HW173069   6.800  14.496  10.765
57079SOL    HW273070   6.768  14.634  10.818
57080SOL     OW73071   9.430   0.557   4.947
57080SOL    HW173072   9.347   0.596   4.920
57080SOL    HW273073   9.418   0.536   5.039
57081SOL     OW73074   0.965   2.999   5.555
57081SOL    HW173075   0.998   3.080   5.593
57081SOL    HW273076   0.877   2.989   5.592
57082SOL     OW73077  13.395   0.467   6.500
57082SOL    HW173078  13.401   0.379   6.462
57082SOL    HW273079  13.368   0.452   6.591
57083SOL     OW73080   9.133  11.677   3.687
57083SOL    HW173081   9.102  11.633   3.608
57083SOL    HW273082   9.173  11.608   3.739
57084SOL     OW73083  14.735   7.605  12.543
57084SOL    HW173084  14.659   7.576  12.594
57084SOL    HW273085  14.721   7.569  12.456
57085SOL     OW73086   9.306  14.841   1.300
57085SOL    HW173087   9.362  14.809   1.371
57085SOL    HW273088   9.348  14.808   1.220
57086SOL     OW73089   5.524  11.390   8.983
57086SOL    HW173090   5.461  11.365   9.050
57086SOL    HW273091   5.567  11.468   9.019
57087SOL     OW73092  14.197   8.944  13.749
57087SOL    HW173093  14.266   8.990  13.797
57087SOL    HW273094  14.241   8.867  13.712
57088SOL     OW73095   6.597   8.149   9.003
57088SOL    HW173096   6.644   8.216   8.953
57088SOL    HW273097   6.549   8.197   9.070
57089SOL     OW73098  13.777   0.224   5.077
57089SOL    HW173099  13.696   0.180   5.102
57089SOL    HW273100  13.845   0.158   5.092
57090SOL     OW73101   2.852  10.029   3.617
57090SOL    HW173102   2.947  10.041   3.608
57090SOL    HW273103   2.830   9.963   3.551
57091SOL     OW73104   6.117   6.494  14.783
57091SOL    HW173105   6.090   6.577  14.822
57091SOL    HW273106   6.206   6.480  14.816
57092SOL     OW73107  11.049   8.344   9.118
57092SOL    HW173108  11.143   8.348   9.098
57092SOL    HW273109  11.015   8.279   9.057
57093SOL     OW73110  13.158   3.683   5.785
57093SOL    HW173111  13.209   3.672   5.865
57093SOL    HW273112  13.224   3.683   5.715
57094SOL     OW73113   5.606  10.794   0.625
57094SOL    HW173114   5.567  10.881   0.619
57094SOL    HW273115   5.692  10.803   0.585
57095SOL     OW73116   1.929   0.357  14.577
57095SOL    HW173117   1.869   0.393  14.642
57095SOL    HW273118   1.983   0.432  14.550
57096SOL     OW73119   1.752  11.661  14.254
57096SOL    HW173120   1.816  11.627  14.317
57096SOL    HW273121   1.797  11.733  14.210
57097SOL     OW73122   2.584  11.504   6.600
57097SOL    HW173123   2.621  11.518   6.513
57097SOL    HW273124   2.582  11.409   6.610
57098SOL     OW73125   7.756   9.698  14.813
57098SOL    HW173126   7.810   9.665   0.002
57098SOL    HW273127   7.686   9.632  14.804
57099SOL     OW73128   6.297   1.709   8.574
57099SOL    HW173129   6.204   1.708   8.554
57099SOL    HW273130   6.320   1.617   8.588
57100SOL     OW73131   8.948   3.560   0.538
57100SOL    HW173132   8.974   3.501   0.468
57100SOL    HW273133   8.860   3.532   0.562
57101SOL     OW73134  10.257  12.635   6.957
57101SOL    HW173135  10.172  12.615   6.995
57101SOL    HW273136  10.308  12.669   7.031
57102SOL     OW73137   3.416  13.872   4.678
57102SOL    HW173138   3.501  13.887   4.720
57102SOL    HW273139   3.360  13.942   4.711
57103SOL     OW73140  10.040  12.261   7.230
57103SOL    HW173141  10.129  12.277   7.199
57103SOL    HW273142   9.985  12.276   7.153
57104SOL     OW73143  11.443   3.894   0.665
57104SOL    HW173144  11.523   3.848   0.692
57104SOL    HW273145  11.408   3.929   0.747
57105SOL     OW73146   3.353   6.394   9.658
57105SOL    HW173147   3.290   6.328   9.687
57105SOL    HW273148   3.314   6.431   9.579
57106SOL     OW73149  11.999   1.559  11.178
57106SOL    HW173150  11.949   1.488  11.137
57106SOL    HW273151  11.944   1.636  11.168
57107SOL     OW73152   0.247  10.431   9.682
57107SOL    HW173153   0.325  10.383   9.656
57107SOL    HW273154   0.203  10.451   9.599
57108SOL     OW73155   5.197  13.233   1.319
57108SOL    HW173156   5.284  13.273   1.317
57108SOL    HW273157   5.213  13.142   1.343
57109SOL     OW73158   1.445   5.704  14.310
57109SOL    HW173159   1.386   5.688  14.236
57109SOL    HW273160   1.399   5.769  14.363
57110SOL     OW73161   1.604   7.674   6.160
57110SOL    HW173162   1.571   7.585   6.166
57110SOL    HW273163   1.694   7.665   6.129
57111SOL     OW73164   0.978  12.483   9.117
57111SOL    HW173165   0.984  12.565   9.069
57111SOL    HW273166   0.884  12.466   9.125
57112SOL     OW73167   7.936   3.851  14.579
57112SOL    HW173168   8.006   3.867  14.642
57112SOL    HW273169   7.952   3.762  14.548
57113SOL     OW73170   5.122   6.467   2.669
57113SOL    HW173171   5.155   6.379   2.688
57113SOL    HW273172   5.188   6.526   2.706
57114SOL     OW73173   4.665   8.902   6.043
57114SOL    HW173174   4.662   8.807   6.028
57114SOL    HW273175   4.596   8.919   6.106
57115SOL     OW73176   1.394   3.351   6.138
57115SOL    HW173177   1.462   3.378   6.199
57115SOL    HW273178   1.442   3.324   6.059
57116SOL     OW73179   0.106   0.489   8.491
57116SOL    HW173180   0.108   0.572   8.443
57116SOL    HW273181   0.087   0.514   8.582
57117SOL     OW73182  12.479  13.843  13.488
57117SOL    HW173183  12.390  13.828  13.521
57117SOL    HW273184  12.476  13.815  13.397
57118SOL     OW73185   6.961   6.575  12.415
57118SOL    HW173186   6.866   6.573  12.426
57118SOL    HW273187   6.987   6.664  12.439
57119SOL     OW73188  13.561   7.659   4.578
57119SOL    HW173189  13.623   7.657   4.650
57119SOL    HW273190  13.614   7.681   4.501
57120SOL     OW73191  14.147  14.597   3.490
57120SOL    HW173192  14.078  14.591   3.424
57120SOL    HW273193  14.115  14.663   3.552
57121SOL     OW73194   0.576   1.374   2.815
57121SOL    HW173195   0.508   1.399   2.752
57121SOL    HW273196   0.585   1.279   2.803
57122SOL     OW73197   6.821  13.092   8.110
57122SOL    HW173198   6.866  13.173   8.083
57122SOL    HW273199   6.809  13.102   8.205
57123SOL     OW73200   5.889   4.628  12.759
57123SOL    HW173201   5.832   4.704  12.771
57123SOL    HW273202   5.945   4.628  12.838
57124SOL     OW73203   5.175   4.595  14.016
57124SOL    HW173204   5.206   4.677  13.978
57124SOL    HW273205   5.100   4.621  14.070
57125SOL     OW73206  13.680   5.607   0.168
57125SOL    HW173207  13.754   5.554   0.139
57125SOL    HW273208  13.713   5.657   0.242
57126SOL     OW73209  13.817   8.023  10.383
57126SOL    HW173210  13.904   8.051  10.355
57126SOL    HW273211  13.795   7.951  10.324
57127SOL     OW73212   1.009   5.136   6.075
57127SOL    HW173213   1.053   5.216   6.105
57127SOL    HW273214   1.072   5.095   6.016
57128SOL     OW73215   9.325   2.215   1.347
57128SOL    HW173216   9.283   2.299   1.329
57128SOL    HW273217   9.375   2.195   1.268
57129SOL     OW73218   1.187   3.442   3.847
57129SOL    HW173219   1.202   3.534   3.830
57129SOL    HW273220   1.200   3.399   3.763
57130SOL     OW73221   1.877   8.466   2.070
57130SOL    HW173222   1.836   8.438   2.152
57130SOL    HW273223   1.968   8.483   2.092
57131SOL     OW73224   8.914   3.702   5.893
57131SOL    HW173225   8.987   3.652   5.930
57131SOL    HW273226   8.862   3.727   5.969
57132SOL     OW73227  13.136   2.974  12.445
57132SOL    HW173228  13.080   2.919  12.391
57132SOL    HW273229  13.162   2.918  12.518
57133SOL     OW73230   6.441  12.430   0.308
57133SOL    HW173231   6.442  12.512   0.260
57133SOL    HW273232   6.448  12.455   0.400
57134SOL     OW73233  10.997   0.443  10.948
57134SOL    HW173234  10.967   0.354  10.926
57134SOL    HW273235  11.092   0.434  10.958
57135SOL     OW73236   8.711   4.232   1.853
57135SOL    HW173237   8.750   4.311   1.816
57135SOL    HW273238   8.785   4.173   1.867
57136SOL     OW73239  14.128   3.519  13.654
57136SOL    HW173240  14.209   3.563  13.629
57136SOL    HW273241  14.137   3.503  13.748
57137SOL     OW73242  10.829   2.797   2.903
57137SOL    HW173243  10.920   2.791   2.874
57137SOL    HW273244  10.832   2.772   2.996
57138SOL     OW73245   6.902  14.353   4.162
57138SOL    HW173246   6.852  14.428   4.193
57138SOL    HW273247   6.982  14.390   4.125
57139SOL     OW73248   2.987  14.724   7.271
57139SOL    HW173249   3.080  14.747   7.273
57139SOL    HW273250   2.985  14.634   7.237
57140SOL     OW73251  10.803   4.421   6.286
57140SOL    HW173252  10.876   4.476   6.259
57140SOL    HW273253  10.821   4.399   6.377
57141SOL     OW73254   4.056   6.842  14.722
57141SOL    HW173255   4.072   6.855  14.629
57141SOL    HW273256   4.133   6.880  14.765
57142SOL     OW73257   8.313   8.741  13.602
57142SOL    HW173258   8.349   8.675  13.543
57142SOL    HW273259   8.369   8.818  13.589
57143SOL     OW73260  11.766   9.310  14.369
57143SOL    HW173261  11.755   9.243  14.301
57143SOL    HW273262  11.694   9.371  14.355
57144SOL     OW73263   3.167   8.458  11.799
57144SOL    HW173264   3.260   8.445  11.813
57144SOL    HW273265   3.148   8.542  11.842
57145SOL     OW73266   3.738   1.387   4.620
57145SOL    HW173267   3.768   1.318   4.680
57145SOL    HW273268   3.809   1.395   4.556
57146SOL     OW73269   2.908   0.714   7.252
57146SOL    HW173270   2.827   0.673   7.221
57146SOL    HW273271   2.976   0.649   7.236
57147SOL     OW73272   1.993   1.779  11.823
57147SOL    HW173273   1.900   1.756  11.816
57147SOL    HW273274   1.995   1.851  11.887
57148SOL     OW73275   4.365   8.581   1.554
57148SOL    HW173276   4.310   8.560   1.478
57148SOL    HW273277   4.303   8.584   1.627
57149SOL     OW73278   1.813   0.935   5.174
57149SOL    HW173279   1.802   1.016   5.224
57149SOL    HW273280   1.771   0.868   5.228
57150SOL     OW73281   0.848   9.385  12.759
57150SOL    HW173282   0.760   9.360  12.731
57150SOL    HW273283   0.838   9.405  12.852
57151SOL     OW73284   7.213   7.087  10.707
57151SOL    HW173285   7.243   6.999  10.684
57151SOL    HW273286   7.182   7.079  10.797
57152SOL     OW73287   4.824   2.091   8.886
57152SOL    HW173288   4.880   2.028   8.930
57152SOL    HW273289   4.744   2.042   8.866
57153SOL     OW73290   6.362  12.950   7.834
57153SOL    HW173291   6.457  12.948   7.824
57153SOL    HW273292   6.329  12.938   7.745
57154SOL     OW73293   8.092   3.946   9.154
57154SOL    HW173294   8.146   3.963   9.232
57154SOL    HW273295   8.152   3.960   9.081
57155SOL     OW73296   1.024   4.662   4.298
57155SOL    HW173297   1.097   4.685   4.355
57155SOL    HW273298   0.970   4.604   4.351
57156SOL     OW73299   0.999   0.722  14.255
57156SOL    HW173300   0.910   0.750  14.276
57156SOL    HW273301   1.035   0.793  14.201
57157SOL     OW73302  12.433  14.150   5.886
57157SOL    HW173303  12.356  14.192   5.847
57157SOL    HW273304  12.506  14.209   5.866
57158SOL     OW73305   6.665   9.638  13.249
57158SOL    HW173306   6.656   9.561  13.193
57158SOL    HW273307   6.727   9.613  13.317
57159SOL     OW73308   6.011   3.943   5.935
57159SOL    HW173309   6.098   3.983   5.932
57159SOL    HW273310   6.023   3.857   5.895
57160SOL     OW73311  11.903  13.557   7.239
57160SOL    HW173312  11.863  13.611   7.308
57160SOL    HW273313  11.863  13.588   7.158
57161SOL     OW73314  10.100   3.277  12.690
57161SOL    HW173315  10.108   3.271  12.595
57161SOL    HW273316  10.011   3.247  12.708
57162SOL     OW73317   1.917   8.889   4.037
57162SOL    HW173318   1.829   8.853   4.037
57162SOL    HW273319   1.972   8.819   4.073
57163SOL     OW73320  13.669  12.382   0.001
57163SOL    HW173321  13.625  12.328   0.066
57163SOL    HW273322  13.598  12.419  14.830
57164SOL     OW73323   4.851   9.130  10.065
57164SOL    HW173324   4.875   9.130  10.157
57164SOL    HW273325   4.794   9.054  10.055
57165SOL     OW73326  12.713  11.110   4.739
57165SOL    HW173327  12.808  11.111   4.740
57165SOL    HW273328  12.688  11.203   4.738
57166SOL     OW73329   4.667   6.845  11.421
57166SOL    HW173330   4.668   6.755  11.452
57166SOL    HW273331   4.576   6.874  11.432
57167SOL     OW73332   1.832   0.473   4.737
57167SOL    HW173333   1.863   0.542   4.678
57167SOL    HW273334   1.863   0.500   4.824
57168SOL     OW73335  14.679   6.114   9.348
57168SOL    HW173336  14.717   6.046   9.402
57168SOL    HW273337  14.597   6.078   9.316
57169SOL     OW73338   8.315  13.881   4.016
57169SOL    HW173339   8.394  13.895   3.964
57169SOL    HW273340   8.246  13.927   3.968
57170SOL     OW73341  13.528   4.883  13.875
57170SOL    HW173342  13.436   4.900  13.856
57170SOL    HW273343  13.531   4.791  13.901
57171SOL     OW73344   7.235   4.670  10.478
57171SOL    HW173345   7.205   4.736  10.541
57171SOL    HW273346   7.302   4.714  10.427
57172SOL     OW73347  12.461  12.122   8.617
57172SOL    HW173348  12.470  12.150   8.526
57172SOL    HW273349  12.367  12.122   8.633
57173SOL     OW73350  14.094   7.403   1.576
57173SOL    HW173351  14.026   7.470   1.581
57173SOL    HW273352  14.138   7.419   1.493
57174SOL     OW73353  12.663   2.697  11.542
57174SOL    HW173354  12.753   2.727  11.558
57174SOL    HW273355  12.669   2.601  11.546
57175SOL     OW73356   9.202  12.010  11.994
57175SOL    HW173357   9.162  12.076  12.051
57175SOL    HW273358   9.236  11.944  12.054
57176SOL     OW73359   5.965   4.508  14.122
57176SOL    HW173360   6.027   4.444  14.159
57176SOL    HW273361   5.927   4.464  14.046
57177SOL     OW73362   2.462   4.324   6.495
57177SOL    HW173363   2.553   4.314   6.469
57177SOL    HW273364   2.461   4.404   6.549
57178SOL     OW73365  14.678   7.296   8.960
57178SOL    HW173366  14.712   7.222   8.909
57178SOL    HW273367  14.619   7.341   8.899
57179SOL     OW73368  12.275   8.899   6.065
57179SOL    HW173369  12.334   8.899   5.990
57179SOL    HW273370  12.187   8.895   6.027
57180SOL     OW73371   7.986   3.981   5.197
57180SOL    HW173372   7.932   4.037   5.142
57180SOL    HW273373   8.037   3.929   5.135
57181SOL     OW73374   2.754  13.320   3.872
57181SOL    HW173375   2.830  13.377   3.882
57181SOL    HW273376   2.745  13.276   3.957
57182SOL     OW73377  13.223  12.508   4.965
57182SOL    HW173378  13.266  12.592   4.946
57182SOL    HW273379  13.190  12.517   5.054
57183SOL     OW73380  14.695  13.321   1.939
57183SOL    HW173381  14.641  13.336   1.862
57183SOL    HW273382  14.765  13.385   1.932
57184SOL     OW73383   4.314   1.726   2.398
57184SOL    HW173384   4.312   1.808   2.350
57184SOL    HW273385   4.222   1.697   2.399
57185SOL     OW73386   1.676   5.897   2.749
57185SOL    HW173387   1.761   5.853   2.748
57185SOL    HW273388   1.648   5.898   2.658
57186SOL     OW73389   1.184   7.982   3.191
57186SOL    HW173390   1.240   8.060   3.192
57186SOL    HW273391   1.138   7.984   3.275
57187SOL     OW73392   7.191  11.912   2.702
57187SOL    HW173393   7.259  11.894   2.637
57187SOL    HW273394   7.231  11.974   2.763
57188SOL     OW73395  13.918  11.381   9.153
57188SOL    HW173396  13.993  11.400   9.096
57188SOL    HW273397  13.844  11.377   9.093
57189SOL     OW73398   6.557   0.449  10.271
57189SOL    HW173399   6.562   0.405  10.356
57189SOL    HW273400   6.642   0.493  10.262
57190SOL     OW73401   8.970   9.972   3.853
57190SOL    HW173402   8.976  10.009   3.765
57190SOL    HW273403   8.915  10.035   3.901
57191SOL     OW73404  11.693  14.588  14.366
57191SOL    HW173405  11.665  14.678  14.383
57191SOL    HW273406  11.753  14.568  14.439
57192SOL     OW73407  11.022   0.445  14.421
57192SOL    HW173408  10.963   0.518  14.400
57192SOL    HW273409  10.972   0.390  14.481
57193SOL     OW73410   7.870  14.871   7.539
57193SOL    HW173411   7.958   0.019   7.563
57193SOL    HW273412   7.875  14.776   7.540
57194SOL     OW73413   8.775   4.851   5.942
57194SOL    HW173414   8.736   4.928   5.901
57194SOL    HW273415   8.726   4.838   6.023
57195SOL     OW73416  13.172  10.759   5.462
57195SOL    HW173417  13.236  10.826   5.441
57195SOL    HW273418  13.088  10.797   5.436
57196SOL     OW73419  11.630   2.254   5.284
57196SOL    HW173420  11.669   2.211   5.208
57196SOL    HW273421  11.561   2.310   5.247
57197SOL     OW73422   0.164  10.335  13.211
57197SOL    HW173423   0.201  10.407  13.262
57197SOL    HW273424   0.241  10.290  13.175
57198SOL     OW73425  12.902   4.531  14.327
57198SOL    HW173426  12.827   4.583  14.358
57198SOL    HW273427  12.900   4.541  14.232
57199SOL     OW73428  13.232  13.517  11.409
57199SOL    HW173429  13.319  13.509  11.368
57199SOL    HW273430  13.173  13.538  11.336
57200SOL     OW73431   4.574   5.055   6.417
57200SOL    HW173432   4.622   5.134   6.443
57200SOL    HW273433   4.521   5.083   6.342
57201SOL     OW73434   2.557  11.824   9.652
57201SOL    HW173435   2.570  11.889   9.582
57201SOL    HW273436   2.497  11.867   9.713
57202SOL     OW73437   0.887   0.694  11.021
57202SOL    HW173438   0.916   0.760  11.085
57202SOL    HW273439   0.808   0.731  10.983
57203SOL     OW73440   9.983   1.609  10.149
57203SOL    HW173441   9.955   1.700  10.144
57203SOL    HW273442   9.921   1.561  10.094
57204SOL     OW73443   9.572   1.785   4.300
57204SOL    HW173444   9.541   1.859   4.353
57204SOL    HW273445   9.559   1.709   4.357
57205SOL     OW73446   0.488   4.112  13.331
57205SOL    HW173447   0.578   4.143  13.347
57205SOL    HW273448   0.444   4.187  13.292
57206SOL     OW73449   9.243   7.609   6.236
57206SOL    HW173450   9.238   7.556   6.156
57206SOL    HW273451   9.211   7.551   6.305
57207SOL     OW73452  11.930   4.053   1.358
57207SOL    HW173453  11.948   4.085   1.270
57207SOL    HW273454  11.845   4.090   1.381
57208SOL     OW73455   4.171   7.254   5.611
57208SOL    HW173456   4.202   7.246   5.521
57208SOL    HW273457   4.076   7.265   5.603
57209SOL     OW73458  11.764  14.719   3.399
57209SOL    HW173459  11.821  14.685   3.469
57209SOL    HW273460  11.697  14.652   3.389
57210SOL     OW73461   3.277   9.754  10.929
57210SOL    HW173462   3.251   9.667  10.902
57210SOL    HW273463   3.195   9.804  10.934
57211SOL     OW73464   2.361   9.727  13.561
57211SOL    HW173465   2.431   9.772  13.608
57211SOL    HW273466   2.405   9.680  13.491
57212SOL     OW73467   6.730   9.329   8.950
57212SOL    HW173468   6.723   9.373   9.035
57212SOL    HW273469   6.824   9.322   8.935
57213SOL     OW73470   1.844  13.490   9.564
57213SOL    HW173471   1.891  13.418   9.605
57213SOL    HW273472   1.805  13.452   9.485
57214SOL     OW73473   8.622  14.123   5.487
57214SOL    HW173474   8.639  14.109   5.580
57214SOL    HW273475   8.544  14.072   5.468
57215SOL     OW73476   4.736  13.935   9.720
57215SOL    HW173477   4.723  13.859   9.664
57215SOL    HW273478   4.669  13.997   9.691
57216SOL     OW73479   4.374  12.635   5.982
57216SOL    HW173480   4.329  12.719   5.976
57216SOL    HW273481   4.467  12.657   5.977
57217SOL     OW73482   7.526   8.818   7.987
57217SOL    HW173483   7.485   8.897   7.953
57217SOL    HW273484   7.512   8.823   8.082
57218SOL     OW73485   1.946   2.033  11.984
57218SOL    HW173486   1.922   2.079  11.903
57218SOL    HW273487   1.864   1.994  12.015
57219SOL     OW73488   3.924  10.277   3.973
57219SOL    HW173489   3.888  10.349   4.025
57219SOL    HW273490   3.997  10.244   4.025
57220SOL     OW73491   9.350   0.994  14.310
57220SOL    HW173492   9.373   1.082  14.339
57220SOL    HW273493   9.385   0.936  14.378
57221SOL     OW73494   1.347   2.327   9.701
57221SOL    HW173495   1.291   2.392   9.658
57221SOL    HW273496   1.393   2.376   9.769
57222SOL     OW73497  14.672  10.022  13.913
57222SOL    HW173498  14.595  10.024  13.857
57222SOL    HW273499  14.745  10.005  13.852
57223SOL     OW73500  10.723   1.411  14.219
57223SOL    HW173501  10.662   1.485  14.229
57223SOL    HW273502  10.753   1.418  14.128
57224SOL     OW73503   7.690  12.268   8.730
57224SOL    HW173504   7.709  12.183   8.771
57224SOL    HW273505   7.733  12.263   8.644
57225SOL     OW73506  11.949   6.469   6.493
57225SOL    HW173507  11.994   6.388   6.518
57225SOL    HW273508  11.874   6.473   6.552
57226SOL     OW73509   5.190   8.866  10.040
57226SOL    HW173510   5.254   8.829   9.979
57226SOL    HW273511   5.111   8.877   9.987
57227SOL     OW73512   5.537  12.611   2.065
57227SOL    HW173513   5.543  12.596   1.971
57227SOL    HW273514   5.448  12.584   2.087
57228SOL     OW73515   7.215   9.182   6.713
57228SOL    HW173516   7.179   9.207   6.798
57228SOL    HW273517   7.185   9.251   6.653
57229SOL     OW73518  11.054   9.896   3.549
57229SOL    HW173519  11.131   9.886   3.493
57229SOL    HW273520  11.086   9.941   3.627
57230SOL     OW73521   6.077   5.673   2.509
57230SOL    HW173522   6.127   5.708   2.436
57230SOL    HW273523   6.106   5.723   2.585
57231SOL     OW73524   2.052   5.896   0.524
57231SOL    HW173525   1.988   5.894   0.453
57231SOL    HW273526   2.127   5.846   0.491
57232SOL     OW73527   2.200  11.821   4.489
57232SOL    HW173528   2.267  11.767   4.529
57232SOL    HW273529   2.204  11.801   4.396
57233SOL     OW73530   0.372   5.409   1.649
57233SOL    HW173531   0.320   5.364   1.582
57233SOL    HW273532   0.331   5.383   1.732
57234SOL     OW73533  13.654   8.095   0.787
57234SOL    HW173534  13.649   8.187   0.761
57234SOL    HW273535  13.648   8.097   0.882
57235SOL     OW73536  12.791  10.826   7.632
57235SOL    HW173537  12.775  10.897   7.569
57235SOL    HW273538  12.886  10.810   7.625
57236SOL     OW73539   6.054   9.708   7.755
57236SOL    HW173540   6.120   9.665   7.701
57236SOL    HW273541   5.982   9.727   7.694
57237SOL     OW73542   4.637  14.323   2.172
57237SOL    HW173543   4.627  14.384   2.099
57237SOL    HW273544   4.708  14.264   2.143
57238SOL     OW73545   8.405   1.054   7.959
57238SOL    HW173546   8.323   1.103   7.958
57238SOL    HW273547   8.379   0.964   7.978
57239SOL     OW73548   2.478  11.127   8.171
57239SOL    HW173549   2.454  11.111   8.262
57239SOL    HW273550   2.399  11.165   8.131
57240SOL     OW73551   1.473   6.773  11.282
57240SOL    HW173552   1.528   6.714  11.230
57240SOL    HW273553   1.383   6.748  11.260
57241SOL     OW73554   5.961  14.349  11.204
57241SOL    HW173555   5.880  14.329  11.158
57241SOL    HW273556   5.958  14.294  11.282
57242SOL     OW73557   0.817   2.350   6.229
57242SOL    HW173558   0.777   2.392   6.153
57242SOL    HW273559   0.848   2.265   6.197
57243SOL     OW73560   2.011  10.026  12.660
57243SOL    HW173561   2.065   9.968  12.606
57243SOL    HW273562   2.054  10.111  12.655
57244SOL     OW73563  12.047  12.141   0.182
57244SOL    HW173564  12.042  12.082   0.257
57244SOL    HW273565  11.998  12.096   0.113
57245SOL     OW73566   5.878  11.090  10.155
57245SOL    HW173567   5.957  11.139  10.133
57245SOL    HW273568   5.820  11.101  10.079
57246SOL     OW73569   1.460   7.576  10.302
57246SOL    HW173570   1.426   7.662  10.279
57246SOL    HW273571   1.526   7.557  10.235
57247SOL     OW73572  10.182  13.089  13.160
57247SOL    HW173573  10.239  13.143  13.105
57247SOL    HW273574  10.097  13.133  13.157
57248SOL     OW73575  10.319   2.293   3.668
57248SOL    HW173576  10.264   2.370   3.685
57248SOL    HW273577  10.260   2.218   3.679
57249SOL     OW73578   0.767  14.525   1.443
57249SOL    HW173579   0.827  14.573   1.386
57249SOL    HW273580   0.794  14.434   1.434
57250SOL     OW73581   6.483   7.884   0.260
57250SOL    HW173582   6.490   7.852   0.349
57250SOL    HW273583   6.395   7.923   0.255
57251SOL     OW73584   5.425   5.253   6.783
57251SOL    HW173585   5.469   5.321   6.733
57251SOL    HW273586   5.447   5.171   6.737
57252SOL     OW73587   1.706  12.147   4.315
57252SOL    HW173588   1.669  12.089   4.381
57252SOL    HW273589   1.799  12.123   4.311
57253SOL     OW73590   1.792   5.026   1.106
57253SOL    HW173591   1.743   5.102   1.075
57253SOL    HW273592   1.881   5.040   1.074
57254SOL     OW73593   9.610  10.175   2.839
57254SOL    HW173594   9.566  10.112   2.896
57254SOL    HW273595   9.636  10.247   2.897
57255SOL     OW73596   4.787  14.592   7.831
57255SOL    HW173597   4.834  14.675   7.822
57255SOL    HW273598   4.759  14.591   7.923
57256SOL     OW73599   4.897  10.081   6.865
57256SOL    HW173600   4.966  10.051   6.924
57256SOL    HW273601   4.890  10.175   6.882
57257SOL     OW73602  13.486   2.581  13.687
57257SOL    HW173603  13.575   2.572  13.720
57257SOL    HW273604  13.448   2.651  13.740
57258SOL     OW73605  10.286  11.286   5.754
57258SOL    HW173606  10.196  11.273   5.723
57258SOL    HW273607  10.300  11.216   5.817
57259SOL     OW73608   2.189  11.757   5.794
57259SOL    HW173609   2.117  11.784   5.737
57259SOL    HW273610   2.176  11.663   5.806
57260SOL     OW73611   0.709  14.685  11.392
57260SOL    HW173612   0.655  14.683  11.313
57260SOL    HW273613   0.662  14.745  11.450
57261SOL     OW73614  10.250   6.325   8.467
57261SOL    HW173615  10.293   6.299   8.385
57261SOL    HW273616  10.198   6.402   8.443
57262SOL     OW73617   3.664   5.739   6.283
57262SOL    HW173618   3.570   5.727   6.297
57262SOL    HW273619   3.669   5.798   6.208
57263SOL     OW73620  12.329  11.438   6.157
57263SOL    HW173621  12.321  11.525   6.116
57263SOL    HW273622  12.307  11.452   6.248
57264SOL     OW73623   5.420  13.106   8.335
57264SOL    HW173624   5.496  13.049   8.329
57264SOL    HW273625   5.347  13.048   8.358
57265SOL     OW73626  13.662   5.376   8.350
57265SOL    HW173627  13.713   5.428   8.289
57265SOL    HW273628  13.580   5.358   8.304
57266SOL     OW73629   3.307   3.038   0.283
57266SOL    HW173630   3.375   3.093   0.247
57266SOL    HW273631   3.264   3.092   0.349
57267SOL     OW73632   1.537  12.878   7.618
57267SOL    HW173633   1.445  12.887   7.643
57267SOL    HW273634   1.537  12.815   7.546
57268SOL     OW73635   1.884   5.645   4.414
57268SOL    HW173636   1.789   5.652   4.405
57268SOL    HW273637   1.899   5.558   4.451
57269SOL     OW73638  13.496  10.796   0.956
57269SOL    HW173639  13.491  10.740   1.034
57269SOL    HW273640  13.434  10.757   0.895
57270SOL     OW73641   9.965   4.769  11.243
57270SOL    HW173642   9.886   4.772  11.188
57270SOL    HW273643   9.931   4.761  11.332
57271SOL     OW73644  10.661   2.869   3.922
57271SOL    HW173645  10.584   2.818   3.897
57271SOL    HW273646  10.706   2.816   3.987
57272SOL     OW73647   6.553  12.790   1.381
57272SOL    HW173648   6.583  12.715   1.329
57272SOL    HW273649   6.634  12.832   1.411
57273SOL     OW73650   1.258   1.254   0.816
57273SOL    HW173651   1.188   1.189   0.803
57273SOL    HW273652   1.331   1.222   0.763
57274SOL     OW73653   9.735   2.633   8.345
57274SOL    HW173654   9.744   2.577   8.423
57274SOL    HW273655   9.736   2.572   8.271
57275SOL     OW73656   1.054   1.515   6.074
57275SOL    HW173657   1.037   1.594   6.126
57275SOL    HW273658   1.084   1.450   6.137
57276SOL     OW73659   4.893   5.338   3.259
57276SOL    HW173660   4.858   5.250   3.270
57276SOL    HW273661   4.819   5.390   3.227
57277SOL     OW73662  11.373  12.042   6.940
57277SOL    HW173663  11.381  11.993   7.022
57277SOL    HW273664  11.360  11.975   6.873
57278SOL     OW73665  12.065   4.945   8.309
57278SOL    HW173666  12.153   4.906   8.311
57278SOL    HW273667  12.081   5.039   8.301
57279SOL     OW73668  11.715  13.309   6.099
57279SOL    HW173669  11.697  13.233   6.154
57279SOL    HW273670  11.651  13.375   6.127
57280SOL     OW73671  10.542   7.558   8.790
57280SOL    HW173672  10.466   7.561   8.849
57280SOL    HW273673  10.571   7.649   8.783
57281SOL     OW73674  12.472   6.907   9.162
57281SOL    HW173675  12.531   6.841   9.199
57281SOL    HW273676  12.458   6.969   9.233
57282SOL     OW73677  11.170   8.855  13.088
57282SOL    HW173678  11.261   8.839  13.062
57282SOL    HW273679  11.128   8.769  13.079
57283SOL     OW73680   0.111   6.486   4.657
57283SOL    HW173681   0.054   6.448   4.724
57283SOL    HW273682   0.184   6.424   4.650
57284SOL     OW73683  12.826  10.426  11.177
57284SOL    HW173684  12.776  10.359  11.223
57284SOL    HW273685  12.916  10.415  11.208
57285SOL     OW73686  13.933  11.451  13.857
57285SOL    HW173687  13.949  11.373  13.910
57285SOL    HW273688  14.018  11.470  13.817
57286SOL     OW73689  12.122   9.918   8.242
57286SOL    HW173690  12.031   9.916   8.271
57286SOL    HW273691  12.164   9.982   8.300
57287SOL     OW73692  13.549   5.782  11.020
57287SOL    HW173693  13.620   5.831  10.979
57287SOL    HW273694  13.469   5.822  10.986
57288SOL     OW73695   2.438   3.781  11.173
57288SOL    HW173696   2.453   3.709  11.111
57288SOL    HW273697   2.519   3.786  11.223
57289SOL     OW73698  12.468  11.510   2.416
57289SOL    HW173699  12.426  11.442   2.468
57289SOL    HW273700  12.448  11.591   2.462
57290SOL     OW73701   2.092   4.584   2.851
57290SOL    HW173702   2.049   4.633   2.921
57290SOL    HW273703   2.142   4.516   2.896
57291SOL     OW73704   6.784   4.586   3.867
57291SOL    HW173705   6.829   4.658   3.913
57291SOL    HW273706   6.695   4.619   3.853
57292SOL     OW73707   9.607   7.878  11.047
57292SOL    HW173708   9.690   7.862  11.002
57292SOL    HW273709   9.601   7.808  11.112
57293SOL     OW73710   5.463   7.673   9.356
57293SOL    HW173711   5.513   7.600   9.319
57293SOL    HW273712   5.477   7.666   9.450
57294SOL     OW73713  12.658  13.188  12.421
57294SOL    HW173714  12.737  13.175  12.474
57294SOL    HW273715  12.603  13.246  12.474
57295SOL     OW73716   6.958   6.400  14.013
57295SOL    HW173717   6.993   6.408  14.102
57295SOL    HW273718   6.994   6.317  13.981
57296SOL     OW73719   8.317   5.262   6.018
57296SOL    HW173720   8.389   5.275   5.956
57296SOL    HW273721   8.334   5.176   6.057
57297SOL     OW73722   3.621   8.052   0.555
57297SOL    HW173723   3.625   8.131   0.609
57297SOL    HW273724   3.528   8.033   0.545
57298SOL     OW73725  14.501  12.747   0.861
57298SOL    HW173726  14.430  12.728   0.921
57298SOL    HW273727  14.574  12.774   0.917
57299SOL     OW73728  12.050   2.052   9.616
57299SOL    HW173729  12.056   2.146   9.632
57299SOL    HW273730  11.957   2.031   9.628
57300SOL     OW73731   7.376  12.473   0.624
57300SOL    HW173732   7.423  12.401   0.667
57300SOL    HW273733   7.284  12.451   0.633
57301SOL     OW73734   3.435  10.043   4.806
57301SOL    HW173735   3.350  10.060   4.767
57301SOL    HW273736   3.416  10.013   4.895
57302SOL     OW73737   1.297   8.374   6.179
57302SOL    HW173738   1.320   8.454   6.132
57302SOL    HW273739   1.219   8.341   6.133
57303SOL     OW73740  11.974   2.927   8.193
57303SOL    HW173741  11.983   2.835   8.168
57303SOL    HW273742  12.059   2.950   8.230
57304SOL     OW73743   5.006   9.329  11.444
57304SOL    HW173744   5.031   9.411  11.402
57304SOL    HW273745   5.049   9.261  11.392
57305SOL     OW73746   7.688   5.402   0.525
57305SOL    HW173747   7.777   5.367   0.536
57305SOL    HW273748   7.640   5.333   0.481
57306SOL     OW73749   0.982  13.572  11.008
57306SOL    HW173750   1.009  13.564  10.917
57306SOL    HW273751   0.990  13.665  11.028
57307SOL     OW73752  14.727  14.659   4.262
57307SOL    HW173753  14.730  14.705   4.346
57307SOL    HW273754  14.753  14.725   4.198
57308SOL     OW73755  12.575  12.412   7.959
57308SOL    HW173756  12.503  12.349   7.956
57308SOL    HW273757  12.532  12.498   7.965
57309SOL     OW73758  13.439   4.405  12.301
57309SOL    HW173759  13.533   4.414  12.285
57309SOL    HW273760  13.417   4.319  12.266
57310SOL     OW73761   2.279  11.150   9.345
57310SOL    HW173762   2.292  11.245   9.350
57310SOL    HW273763   2.299  11.128   9.255
57311SOL     OW73764   8.532   5.627  13.135
57311SOL    HW173765   8.502   5.645  13.224
57311SOL    HW273766   8.576   5.542  13.140
57312SOL     OW73767   0.298   1.508   9.530
57312SOL    HW173768   0.226   1.572   9.536
57312SOL    HW273769   0.363   1.551   9.475
57313SOL     OW73770  14.516   3.447  13.570
57313SOL    HW173771  14.522   3.405  13.655
57313SOL    HW273772  14.457   3.521  13.583
57314SOL     OW73773   4.291  11.055  12.232
57314SOL    HW173774   4.238  10.978  12.211
57314SOL    HW273775   4.346  11.027  12.306
57315SOL     OW73776  12.110   4.140   3.785
57315SOL    HW173777  12.165   4.136   3.863
57315SOL    HW273778  12.022   4.157   3.818
57316SOL     OW73779   4.469   6.033   0.517
57316SOL    HW173780   4.434   6.120   0.536
57316SOL    HW273781   4.492   6.037   0.424
57317SOL     OW73782   1.514  13.369   0.329
57317SOL    HW173783   1.537  13.365   0.236
57317SOL    HW273784   1.511  13.463   0.349
57318SOL     OW73785   8.923  10.179   8.243
57318SOL    HW173786   8.884  10.128   8.172
57318SOL    HW273787   8.971  10.114   8.295
57319SOL     OW73788   6.720   7.340   5.189
57319SOL    HW173789   6.713   7.404   5.118
57319SOL    HW273790   6.630   7.309   5.203
57320SOL     OW73791   8.690   1.303  13.714
57320SOL    HW173792   8.779   1.270  13.729
57320SOL    HW273793   8.633   1.230  13.737
57321SOL     OW73794   9.904  14.676  13.391
57321SOL    HW173795   9.998  14.684  13.375
57321SOL    HW273796   9.898  14.616  13.465
57322SOL     OW73797   5.084   1.072   0.787
57322SOL    HW173798   5.129   1.136   0.842
57322SOL    HW273799   5.098   0.989   0.831
57323SOL     OW73800  13.767   2.322   6.964
57323SOL    HW173801  13.708   2.336   7.038
57323SOL    HW273802  13.767   2.227   6.951
57324SOL     OW73803   2.925   5.128  13.663
57324SOL    HW173804   2.910   5.034  13.674
57324SOL    HW273805   2.843   5.160  13.625
57325SOL     OW73806   4.594  13.576   9.092
57325SOL    HW173807   4.589  13.505   9.027
57325SOL    HW273808   4.667  13.551   9.148
57326SOL     OW73809   9.828   8.946   9.607
57326SOL    HW173810   9.773   8.974   9.681
57326SOL    HW273811   9.897   9.011   9.603
57327SOL     OW73812   1.674  11.363  11.514
57327SOL    HW173813   1.742  11.421  11.478
57327SOL    HW273814   1.592  11.405  11.490
57328SOL     OW73815   7.728   7.639   2.553
57328SOL    HW173816   7.712   7.666   2.462
57328SOL    HW273817   7.665   7.569   2.568
57329SOL     OW73818   3.463   0.641   5.753
57329SOL    HW173819   3.528   0.701   5.790
57329SOL    HW273820   3.379   0.676   5.784
57330SOL     OW73821  12.276  10.133   4.968
57330SOL    HW173822  12.264  10.045   4.934
57330SOL    HW273823  12.231  10.132   5.053
57331SOL     OW73824   6.867  11.890  12.752
57331SOL    HW173825   6.774  11.870  12.762
57331SOL    HW273826   6.898  11.902  12.842
57332SOL     OW73827   4.829  12.302   1.576
57332SOL    HW173828   4.903  12.340   1.622
57332SOL    HW273829   4.758  12.366   1.587
57333SOL     OW73830   2.542   4.929   0.122
57333SOL    HW173831   2.611   4.964   0.178
57333SOL    HW273832   2.511   5.003   0.071
57334SOL     OW73833  11.500   8.412   8.248
57334SOL    HW173834  11.490   8.369   8.333
57334SOL    HW273835  11.594   8.409   8.231
57335SOL     OW73836   9.762   2.749  14.494
57335SOL    HW173837   9.855   2.754  14.474
57335SOL    HW273838   9.723   2.822  14.445
57336SOL     OW73839  11.713  12.278   1.245
57336SOL    HW173840  11.762  12.223   1.183
57336SOL    HW273841  11.736  12.368   1.219
57337SOL     OW73842   7.738  12.004   8.857
57337SOL    HW173843   7.679  11.955   8.914
57337SOL    HW273844   7.826  11.976   8.882
57338SOL     OW73845  10.905   7.238   9.129
57338SOL    HW173846  10.833   7.203   9.182
57338SOL    HW273847  10.878   7.328   9.109
57339SOL     OW73848  12.978   0.230   3.138
57339SOL    HW173849  12.997   0.322   3.154
57339SOL    HW273850  12.903   0.231   3.079
57340SOL     OW73851   0.215   3.412   2.891
57340SOL    HW173852   0.121   3.395   2.898
57340SOL    HW273853   0.256   3.328   2.908
57341SOL     OW73854   9.736   8.757   0.412
57341SOL    HW173855   9.752   8.704   0.490
57341SOL    HW273856   9.759   8.846   0.439
57342SOL     OW73857   0.199  11.730   7.479
57342SOL    HW173858   0.172  11.820   7.460
57342SOL    HW273859   0.284  11.721   7.434
57343SOL     OW73860  14.587  13.031  12.966
57343SOL    HW173861  14.541  13.090  13.026
57343SOL    HW273862  14.667  13.079  12.943
57344SOL     OW73863  14.563  11.327   9.433
57344SOL    HW173864  14.652  11.327   9.469
57344SOL    HW273865  14.530  11.238   9.450
57345SOL     OW73866  10.742   7.269  10.534
57345SOL    HW173867  10.715   7.184  10.498
57345SOL    HW273868  10.837   7.262  10.542
57346SOL     OW73869  14.657  10.059   5.147
57346SOL    HW173870  14.610  10.085   5.226
57346SOL    HW273871  14.602  10.091   5.075
57347SOL     OW73872   1.179   6.165   5.723
57347SOL    HW173873   1.195   6.107   5.798
57347SOL    HW273874   1.094   6.138   5.689
57348SOL     OW73875   3.282   1.469   0.719
57348SOL    HW173876   3.318   1.499   0.636
57348SOL    HW273877   3.338   1.509   0.785
57349SOL     OW73878   2.523   2.311   5.485
57349SOL    HW173879   2.584   2.381   5.509
57349SOL    HW273880   2.523   2.311   5.389
57350SOL     OW73881   8.198  12.482   4.619
57350SOL    HW173882   8.224  12.497   4.710
57350SOL    HW273883   8.277  12.501   4.568
57351SOL     OW73884   3.626   4.755   6.006
57351SOL    HW173885   3.695   4.700   5.967
57351SOL    HW273886   3.658   4.845   5.994
57352SOL     OW73887  13.339   5.667  13.519
57352SOL    HW173888  13.384   5.586  13.495
57352SOL    HW273889  13.346   5.722  13.441
57353SOL     OW73890  11.813   5.849   1.345
57353SOL    HW173891  11.748   5.866   1.414
57353SOL    HW273892  11.833   5.935   1.309
57354SOL     OW73893   5.233   9.600  11.055
57354SOL    HW173894   5.167   9.666  11.036
57354SOL    HW273895   5.310   9.651  11.082
57355SOL     OW73896   5.657  14.418  14.013
57355SOL    HW173897   5.686  14.473  14.086
57355SOL    HW273898   5.660  14.328  14.048
57356SOL     OW73899   8.389   2.118   9.167
57356SOL    HW173900   8.394   2.043   9.108
57356SOL    HW273901   8.301   2.114   9.204
57357SOL     OW73902   6.650  14.763  10.729
57357SOL    HW173903   6.562  14.794  10.749
57357SOL    HW273904   6.679  14.817  10.655
57358SOL     OW73905   8.652  13.313   8.324
57358SOL    HW173906   8.733  13.298   8.275
57358SOL    HW273907   8.627  13.227   8.357
57359SOL     OW73908   9.689   6.228   8.981
57359SOL    HW173909   9.683   6.175   8.901
57359SOL    HW273910   9.739   6.174   9.042
57360SOL     OW73911  12.696  11.186   6.317
57360SOL    HW173912  12.705  11.242   6.394
57360SOL    HW273913  12.747  11.229   6.249
57361SOL     OW73914   6.524  14.384   5.591
57361SOL    HW173915   6.575  14.335   5.526
57361SOL    HW273916   6.456  14.427   5.540
57362SOL     OW73917   9.896   0.014   8.868
57362SOL    HW173918   9.856  14.825   8.918
57362SOL    HW273919   9.868  14.880   8.778
57363SOL     OW73920   4.504  14.612   7.217
57363SOL    HW173921   4.466  14.555   7.283
57363SOL    HW273922   4.488  14.567   7.134
57364SOL     OW73923   4.854  12.419  13.823
57364SOL    HW173924   4.856  12.456  13.911
57364SOL    HW273925   4.776  12.363  13.823
57365SOL     OW73926   0.064  13.681   0.932
57365SOL    HW173927   0.110  13.730   0.864
57365SOL    HW273928   0.088  13.725   1.014
57366SOL     OW73929   5.100   7.734  12.416
57366SOL    HW173930   5.158   7.787  12.470
57366SOL    HW273931   5.155   7.661  12.386
57367SOL     OW73932  12.470  12.698   7.376
57367SOL    HW173933  12.513  12.701   7.291
57367SOL    HW273934  12.501  12.777   7.421
57368SOL     OW73935   2.907   0.419  12.163
57368SOL    HW173936   2.832   0.375  12.204
57368SOL    HW273937   2.935   0.484  12.226
57369SOL     OW73938   7.806   4.688   1.310
57369SOL    HW173939   7.715   4.689   1.280
57369SOL    HW273940   7.821   4.777   1.342
57370SOL     OW73941   9.425   0.255  14.420
57370SOL    HW173942   9.415   0.160  14.419
57370SOL    HW273943   9.339   0.289  14.393
57371SOL     OW73944   9.979   0.302   2.050
57371SOL    HW173945  10.022   0.237   2.106
57371SOL    HW273946   9.901   0.327   2.099
57372SOL     OW73947   3.162   7.445  11.263
57372SOL    HW173948   3.242   7.442  11.210
57372SOL    HW273949   3.160   7.360  11.307
57373SOL     OW73950  12.911  13.855   3.848
57373SOL    HW173951  12.972  13.789   3.814
57373SOL    HW273952  12.889  13.910   3.773
57374SOL     OW73953   9.503  13.306  10.964
57374SOL    HW173954   9.510  13.356  10.882
57374SOL    HW273955   9.442  13.356  11.018
57375SOL     OW73956  14.087  10.051   3.156
57375SOL    HW173957  14.072  10.120   3.091
57375SOL    HW273958  14.175  10.069   3.189
57376SOL     OW73959   9.219  12.427   3.715
57376SOL    HW173960   9.255  12.339   3.724
57376SOL    HW273961   9.173  12.426   3.631
57377SOL     OW73962   5.539   9.959  12.173
57377SOL    HW173963   5.553  10.048  12.206
57377SOL    HW273964   5.476   9.970  12.101
57378SOL     OW73965   2.528   2.506   4.581
57378SOL    HW173966   2.537   2.501   4.486
57378SOL    HW273967   2.470   2.581   4.595
57379SOL     OW73968   9.321   9.082   4.912
57379SOL    HW173969   9.289   8.993   4.894
57379SOL    HW273970   9.254   9.139   4.874
57380SOL     OW73971   4.194  10.424   7.543
57380SOL    HW173972   4.157  10.346   7.586
57380SOL    HW273973   4.274  10.443   7.591
57381SOL     OW73974   1.960  14.601   4.021
57381SOL    HW173975   1.891  14.665   4.037
57381SOL    HW273976   1.987  14.573   4.109
57382SOL     OW73977   2.784   7.720  14.159
57382SOL    HW173978   2.806   7.795  14.105
57382SOL    HW273979   2.709   7.749  14.211
57383SOL     OW73980   7.843  12.982   6.287
57383SOL    HW173981   7.761  12.937   6.309
57383SOL    HW273982   7.904  12.955   6.355
57384SOL     OW73983   1.786   0.100  12.580
57384SOL    HW173984   1.873   0.083  12.543
57384SOL    HW273985   1.791   0.067  12.669
57385SOL     OW73986   8.917   9.528  13.149
57385SOL    HW173987   8.950   9.554  13.063
57385SOL    HW273988   8.824   9.547  13.145
57386SOL     OW73989  13.230  11.288   6.202
57386SOL    HW173990  13.255  11.203   6.238
57386SOL    HW273991  13.200  11.338   6.278
57387SOL     OW73992   6.778   3.268  11.959
57387SOL    HW173993   6.684   3.280  11.968
57387SOL    HW273994   6.808   3.248  12.048
57388SOL     OW73995   5.155   6.483   6.703
57388SOL    HW173996   5.210   6.515   6.774
57388SOL    HW273997   5.065   6.501   6.731
57389SOL     OW73998   4.800   5.356   3.968
57389SOL    HW173999   4.823   5.413   3.894
57389SOL    HW274000   4.747   5.412   4.025
57390SOL     OW74001  12.167   1.374   6.400
57390SOL    HW174002  12.216   1.365   6.481
57390SOL    HW274003  12.206   1.449   6.355
57391SOL     OW74004   9.440  13.119   4.234
57391SOL    HW174005   9.524  13.117   4.280
57391SOL    HW274006   9.459  13.163   4.151
57392SOL     OW74007   1.827   5.514   7.265
57392SOL    HW174008   1.825   5.602   7.302
57392SOL    HW274009   1.897   5.469   7.312
57393SOL     OW74010  14.852   7.242   5.145
57393SOL    HW174011  14.882   7.152   5.151
57393SOL    HW274012   0.048   7.292   5.121
57394SOL     OW74013  11.685   3.140   6.178
57394SOL    HW174014  11.706   3.050   6.153
57394SOL    HW274015  11.707   3.192   6.100
57395SOL     OW74016   7.832   3.930   9.697
57395SOL    HW174017   7.829   3.835   9.703
57395SOL    HW274018   7.746   3.959   9.728
57396SOL     OW74019   9.485   0.643   6.514
57396SOL    HW174020   9.503   0.557   6.552
57396SOL    HW274021   9.549   0.653   6.444
57397SOL     OW74022   9.930   9.713  10.259
57397SOL    HW174023   9.893   9.800  10.251
57397SOL    HW274024   9.935   9.698  10.354
57398SOL     OW74025   3.819  10.029   4.192
57398SOL    HW174026   3.872  10.100   4.228
57398SOL    HW274027   3.832   9.956   4.253
57399SOL     OW74028  10.061   8.169   9.911
57399SOL    HW174029  10.076   8.208   9.825
57399SOL    HW274030  10.145   8.176   9.956
57400SOL     OW74031   5.235   4.410   2.748
57400SOL    HW174032   5.245   4.339   2.811
57400SOL    HW274033   5.234   4.367   2.662
57401SOL     OW74034  10.092   0.944   4.499
57401SOL    HW174035  10.054   0.927   4.585
57401SOL    HW274036  10.019   0.931   4.438
57402SOL     OW74037  10.605   3.073   6.803
57402SOL    HW174038  10.556   3.013   6.860
57402SOL    HW274039  10.684   3.025   6.779
57403SOL     OW74040  10.617   2.169   7.919
57403SOL    HW174041  10.603   2.257   7.953
57403SOL    HW274042  10.657   2.121   7.992
57404SOL     OW74043   0.940   8.020   0.007
57404SOL    HW174044   0.948   8.045   0.099
57404SOL    HW274045   0.986   8.089  14.841
57405SOL     OW74046   6.884  14.860   4.950
57405SOL    HW174047   6.978  14.845   4.940
57405SOL    HW274048   6.874   0.006   5.041
57406SOL     OW74049   3.982  11.420   5.642
57406SOL    HW174050   4.059  11.474   5.659
57406SOL    HW274051   3.909  11.482   5.642
57407SOL     OW74052  10.136   4.232   2.704
57407SOL    HW174053  10.107   4.320   2.683
57407SOL    HW274054  10.191   4.243   2.782
57408SOL     OW74055   4.302   2.200  13.047
57408SOL    HW174056   4.323   2.186  13.139
57408SOL    HW274057   4.232   2.265  13.048
57409SOL     OW74058  12.482   0.914   8.681
57409SOL    HW174059  12.396   0.877   8.660
57409SOL    HW274060  12.522   0.930   8.596
57410SOL     OW74061  10.572   9.898  12.232
57410SOL    HW174062  10.634   9.914  12.161
57410SOL    HW274063  10.491   9.870  12.189
57411SOL     OW74064   9.494   6.401  11.282
57411SOL    HW174065   9.485   6.315  11.240
57411SOL    HW274066   9.572   6.392  11.337
57412SOL     OW74067   1.499   3.667   5.422
57412SOL    HW174068   1.586   3.706   5.410
57412SOL    HW274069   1.439   3.740   5.415
57413SOL     OW74070   7.634  10.060  12.279
57413SOL    HW174071   7.566  10.109  12.234
57413SOL    HW274072   7.704  10.051  12.214
57414SOL     OW74073   2.307   4.246   5.846
57414SOL    HW174074   2.298   4.179   5.914
57414SOL    HW274075   2.391   4.288   5.863
57415SOL     OW74076   6.331   9.715   4.471
57415SOL    HW174077   6.370   9.800   4.449
57415SOL    HW274078   6.352   9.659   4.396
57416SOL     OW74079  14.344  11.671   3.616
57416SOL    HW174080  14.391  11.686   3.534
57416SOL    HW274081  14.408  11.631   3.674
57417SOL     OW74082  11.808   5.408  14.062
57417SOL    HW174083  11.901   5.389  14.052
57417SOL    HW274084  11.804   5.501  14.083
57418SOL     OW74085   8.773  12.653  11.162
57418SOL    HW174086   8.689  12.692  11.137
57418SOL    HW274087   8.752  12.561  11.180
57419SOL     OW74088  13.844  12.803  14.716
57419SOL    HW174089  13.896  12.859  14.773
57419SOL    HW274090  13.872  12.714  14.739
57420SOL     OW74091   6.370   8.282  13.337
57420SOL    HW174092   6.296   8.321  13.290
57420SOL    HW274093   6.427   8.247  13.267
57421SOL     OW74094   3.474   3.988  11.010
57421SOL    HW174095   3.457   3.975  11.103
57421SOL    HW274096   3.532   4.064  11.006
57422SOL     OW74097   9.420   3.267  13.772
57422SOL    HW174098   9.344   3.291  13.824
57422SOL    HW274099   9.435   3.342  13.714
57423SOL     OW74100   2.369   0.647  14.706
57423SOL    HW174101   2.431   0.712  14.672
57423SOL    HW274102   2.334   0.604  14.628
57424SOL     OW74103   7.810   9.502  12.255
57424SOL    HW174104   7.753   9.568  12.293
57424SOL    HW274105   7.753   9.426  12.242
57425SOL     OW74106   7.169   0.444   0.324
57425SOL    HW174107   7.238   0.420   0.386
57425SOL    HW274108   7.091   0.457   0.379
57426SOL     OW74109   9.907   3.447  11.032
57426SOL    HW174110   9.815   3.440  11.006
57426SOL    HW274111   9.954   3.389  10.972
57427SOL     OW74112  13.958  13.676   0.332
57427SOL    HW174113  13.923  13.595   0.368
57427SOL    HW274114  13.899  13.697   0.259
57428SOL     OW74115   9.828   7.560   2.780
57428SOL    HW174116   9.902   7.575   2.838
57428SOL    HW274117   9.760   7.620   2.810
57429SOL     OW74118   5.448   1.869   9.907
57429SOL    HW174119   5.453   1.830   9.994
57429SOL    HW274120   5.503   1.814   9.852
57430SOL     OW74121   9.049  14.426  12.449
57430SOL    HW174122   9.057  14.378  12.366
57430SOL    HW274123   9.000  14.367  12.506
57431SOL     OW74124  14.153   2.590   0.304
57431SOL    HW174125  14.071   2.612   0.260
57431SOL    HW274126  14.160   2.495   0.297
57432SOL     OW74127   7.320  12.418   3.292
57432SOL    HW174128   7.411  12.426   3.264
57432SOL    HW274129   7.300  12.501   3.336
57433SOL     OW74130   4.306   5.375   6.353
57433SOL    HW174131   4.305   5.369   6.258
57433SOL    HW274132   4.393   5.409   6.374
57434SOL     OW74133   4.797   4.529   9.280
57434SOL    HW174134   4.730   4.478   9.325
57434SOL    HW274135   4.830   4.589   9.346
57435SOL     OW74136  12.021  12.403   0.152
57435SOL    HW174137  11.991  12.313   0.139
57435SOL    HW274138  11.977  12.431   0.232
57436SOL     OW74139   9.365  13.378  10.287
57436SOL    HW174140   9.308  13.320  10.237
57436SOL    HW274141   9.328  13.377  10.375
57437SOL     OW74142  12.446   8.323   5.770
57437SOL    HW174143  12.520   8.283   5.724
57437SOL    HW274144  12.444   8.278   5.854
57438SOL     OW74145   7.984   2.174   4.372
57438SOL    HW174146   7.922   2.205   4.305
57438SOL    HW274147   8.050   2.125   4.323
57439SOL     OW74148  10.870  11.041  13.025
57439SOL    HW174149  10.873  11.061  13.118
57439SOL    HW274150  10.872  11.126  12.982
57440SOL     OW74151   9.468  10.234  10.607
57440SOL    HW174152   9.461  10.148  10.649
57440SOL    HW274153   9.559  10.240  10.578
57441SOL     OW74154  11.188   6.266   3.212
57441SOL    HW174155  11.123   6.268   3.142
57441SOL    HW274156  11.139   6.284   3.292
57442SOL     OW74157  10.743   9.275  10.178
57442SOL    HW174158  10.799   9.220  10.124
57442SOL    HW274159  10.760   9.248  10.268
57443SOL     OW74160   0.845   5.447   5.075
57443SOL    HW174161   0.920   5.437   5.134
57443SOL    HW274162   0.779   5.492   5.127
57444SOL     OW74163   4.792   2.248  13.446
57444SOL    HW174164   4.863   2.275  13.503
57444SOL    HW274165   4.766   2.327  13.399
57445SOL     OW74166   8.398   8.620   0.763
57445SOL    HW174167   8.419   8.528   0.781
57445SOL    HW274168   8.443   8.669   0.831
57446SOL     OW74169  10.963   0.111  11.283
57446SOL    HW174170  10.900   0.096  11.353
57446SOL    HW274171  10.911   0.108  11.203
57447SOL     OW74172   1.978   8.130   7.239
57447SOL    HW174173   2.006   8.104   7.326
57447SOL    HW274174   2.059   8.139   7.189
57448SOL     OW74175  10.431  10.191   9.610
57448SOL    HW174176  10.397  10.279   9.590
57448SOL    HW274177  10.502  10.178   9.547
57449SOL     OW74178   5.516   7.992  10.878
57449SOL    HW174179   5.447   8.053  10.853
57449SOL    HW274180   5.526   7.935  10.801
57450SOL     OW74181   3.319  14.060  12.273
57450SOL    HW174182   3.244  14.002  12.259
57450SOL    HW274183   3.395  14.001  12.271
57451SOL     OW74184  12.555  14.367  14.854
57451SOL    HW174185  12.534  14.450   0.015
57451SOL    HW274186  12.585  14.310   0.043
57452SOL     OW74187   6.240   1.538   6.824
57452SOL    HW174188   6.207   1.523   6.735
57452SOL    HW274189   6.257   1.451   6.858
57453SOL     OW74190   0.602  14.273  12.644
57453SOL    HW174191   0.677  14.283  12.702
57453SOL    HW274192   0.617  14.335  12.573
57454SOL     OW74193   9.721  11.120  12.553
57454SOL    HW174194   9.641  11.172  12.547
57454SOL    HW274195   9.773  11.164  12.620
57455SOL     OW74196   7.053  13.797  13.603
57455SOL    HW174197   7.137  13.843  13.593
57455SOL    HW274198   7.044  13.785  13.698
57456SOL     OW74199   7.328   8.159   9.607
57456SOL    HW174200   7.249   8.204   9.576
57456SOL    HW274201   7.335   8.081   9.551
57457SOL     OW74202  13.685   1.673  12.634
57457SOL    HW174203  13.735   1.647  12.557
57457SOL    HW274204  13.713   1.762  12.653
57458SOL     OW74205   5.064  11.116  13.115
57458SOL    HW174206   4.995  11.174  13.084
57458SOL    HW274207   5.131  11.117  13.046
57459SOL     OW74208   1.625   9.333   0.805
57459SOL    HW174209   1.675   9.261   0.766
57459SOL    HW274210   1.658   9.340   0.894
57460SOL     OW74211   0.590  12.204   5.125
57460SOL    HW174212   0.568  12.133   5.065
57460SOL    HW274213   0.589  12.283   5.070
57461SOL     OW74214  13.193   0.484   0.619
57461SOL    HW174215  13.194   0.400   0.575
57461SOL    HW274216  13.105   0.491   0.656
57462SOL     OW74217  10.108   3.675   8.658
57462SOL    HW174218  10.202   3.693   8.662
57462SOL    HW274219  10.094   3.607   8.724
57463SOL     OW74220   8.535   3.438   2.351
57463SOL    HW174221   8.604   3.403   2.407
57463SOL    HW274222   8.504   3.517   2.396
57464SOL     OW74223   0.787   3.805   2.401
57464SOL    HW174224   0.861   3.756   2.365
57464SOL    HW274225   0.768   3.762   2.484
57465SOL     OW74226  14.611   6.107  14.106
57465SOL    HW174227  14.609   6.197  14.074
57465SOL    HW274228  14.691   6.070  14.069
57466SOL     OW74229   8.823  12.560   0.224
57466SOL    HW174230   8.918  12.568   0.220
57466SOL    HW274231   8.791  12.650   0.217
57467SOL     OW74232   4.641   9.724   5.079
57467SOL    HW174233   4.708   9.760   5.021
57467SOL    HW274234   4.654   9.629   5.075
57468SOL     OW74235   0.653  14.210  10.516
57468SOL    HW174236   0.722  14.249  10.569
57468SOL    HW274237   0.691  14.130  10.481
57469SOL     OW74238   0.300   4.913  13.565
57469SOL    HW174239   0.322   4.915  13.472
57469SOL    HW274240   0.310   5.004  13.594
57470SOL     OW74241  11.857   4.184  13.200
57470SOL    HW174242  11.912   4.186  13.279
57470SOL    HW274243  11.845   4.276  13.177
57471SOL     OW74244  11.394   3.285  10.228
57471SOL    HW174245  11.343   3.282  10.147
57471SOL    HW274246  11.331   3.261  10.296
57472SOL     OW74247   6.640  14.850   0.672
57472SOL    HW174248   6.577  14.789   0.709
57472SOL    HW274249   6.588   0.046   0.650
57473SOL     OW74250   2.297   8.079  10.962
57473SOL    HW174251   2.336   8.147  11.017
57473SOL    HW274252   2.233   8.126  10.909
57474SOL     OW74253   5.904  14.454   8.027
57474SOL    HW174254   5.960  14.385   8.062
57474SOL    HW274255   5.957  14.497   7.961
57475SOL     OW74256  10.746   9.677  14.174
57475SOL    HW174257  10.693   9.625  14.235
57475SOL    HW274258  10.781   9.748  14.227
57476SOL     OW74259   2.920  11.156   6.318
57476SOL    HW174260   2.882  11.241   6.342
57476SOL    HW274261   2.953  11.169   6.229
57477SOL     OW74262  13.543   5.256   3.460
57477SOL    HW174263  13.510   5.207   3.535
57477SOL    HW274264  13.473   5.318   3.439
57478SOL     OW74265   8.344   4.462   0.812
57478SOL    HW174266   8.386   4.429   0.733
57478SOL    HW274267   8.269   4.513   0.780
57479SOL     OW74268   5.204   5.169   9.043
57479SOL    HW174269   5.118   5.128   9.048
57479SOL    HW274270   5.191   5.257   9.077
57480SOL     OW74271  12.463  12.173   2.193
57480SOL    HW174272  12.529  12.120   2.238
57480SOL    HW274273  12.455  12.133   2.107
57481SOL     OW74274   5.382   4.076   3.980
57481SOL    HW174275   5.463   4.032   4.007
57481SOL    HW274276   5.411   4.157   3.938
57482SOL     OW74277   8.749  13.216   9.326
57482SOL    HW174278   8.824  13.187   9.378
57482SOL    HW274279   8.784  13.287   9.272
57483SOL     OW74280  11.401   2.961   9.551
57483SOL    HW174281  11.358   2.895   9.497
57483SOL    HW274282  11.354   3.042   9.531
57484SOL     OW74283  12.771  10.586  14.069
57484SOL    HW174284  12.849  10.622  14.027
57484SOL    HW274285  12.803  10.545  14.149
57485SOL     OW74286   7.135   7.080   4.917
57485SOL    HW174287   7.070   7.120   4.860
57485SOL    HW274288   7.218   7.119   4.890
57486SOL     OW74289  14.312   6.604   0.459
57486SOL    HW174290  14.332   6.514   0.484
57486SOL    HW274291  14.337   6.657   0.535
57487SOL     OW74292  13.744  10.759  12.477
57487SOL    HW174293  13.732  10.666  12.500
57487SOL    HW274294  13.656  10.789  12.454
57488SOL     OW74295   0.568  11.842  12.515
57488SOL    HW174296   0.605  11.792  12.442
57488SOL    HW274297   0.531  11.776  12.573
57489SOL     OW74298  12.477   3.397   2.554
57489SOL    HW174299  12.507   3.394   2.463
57489SOL    HW274300  12.397   3.448   2.551
57490SOL     OW74301  14.747   8.082   5.114
57490SOL    HW174302  14.760   7.987   5.115
57490SOL    HW274303  14.833   8.118   5.130
57491SOL     OW74304   8.378   7.772  14.255
57491SOL    HW174305   8.342   7.860  14.249
57491SOL    HW274306   8.341   7.726  14.179
57492SOL     OW74307   7.626   7.920  10.140
57492SOL    HW174308   7.657   7.953  10.225
57492SOL    HW274309   7.542   7.877  10.160
57493SOL     OW74310   4.168   7.707   0.747
57493SOL    HW174311   4.102   7.638   0.744
57493SOL    HW274312   4.127   7.778   0.797
57494SOL     OW74313   2.119   0.625   3.568
57494SOL    HW174314   2.073   0.654   3.647
57494SOL    HW274315   2.066   0.658   3.496
57495SOL     OW74316   1.103   6.872   2.712
57495SOL    HW174317   1.133   6.952   2.668
57495SOL    HW274318   1.121   6.802   2.649
57496SOL     OW74319   4.089   6.687  14.170
57496SOL    HW174320   4.095   6.652  14.081
57496SOL    HW274321   4.155   6.756  14.173
57497SOL     OW74322   7.051   2.541   6.636
57497SOL    HW174323   7.021   2.624   6.675
57497SOL    HW274324   7.021   2.545   6.545
57498SOL     OW74325   2.851  10.514   3.667
57498SOL    HW174326   2.756  10.514   3.656
57498SOL    HW274327   2.885  10.483   3.583
57499SOL     OW74328  10.901   5.930  10.182
57499SOL    HW174329  10.962   5.991  10.223
57499SOL    HW274330  10.877   5.869  10.252
57500SOL     OW74331  11.999   1.072   0.785
57500SOL    HW174332  11.968   1.069   0.875
57500SOL    HW274333  11.965   0.991   0.745
57501SOL     OW74334   1.517   4.554   6.889
57501SOL    HW174335   1.452   4.618   6.858
57501SOL    HW274336   1.576   4.606   6.944
57502SOL     OW74337   9.896  14.520   6.968
57502SOL    HW174338   9.932  14.541   7.054
57502SOL    HW274339   9.960  14.460   6.929
57503SOL     OW74340   3.451  11.643   2.357
57503SOL    HW174341   3.522  11.587   2.323
57503SOL    HW274342   3.391  11.582   2.400
57504SOL     OW74343  11.082   8.607   5.518
57504SOL    HW174344  11.041   8.579   5.600
57504SOL    HW274345  11.016   8.588   5.451
57505SOL     OW74346  14.627  14.176   7.675
57505SOL    HW174347  14.720  14.172   7.698
57505SOL    HW274348  14.617  14.259   7.629
57506SOL     OW74349  12.182  10.677  10.532
57506SOL    HW174350  12.153  10.657  10.443
57506SOL    HW274351  12.213  10.768  10.527
57507SOL     OW74352  14.161  14.826  10.300
57507SOL    HW174353  14.171  14.833  10.395
57507SOL    HW274354  14.074  14.786  10.288
57508SOL     OW74355   5.618  12.203   9.302
57508SOL    HW174356   5.630  12.169   9.213
57508SOL    HW274357   5.545  12.264   9.294
57509SOL     OW74358   2.154  14.027  13.535
57509SOL    HW174359   2.086  14.004  13.599
57509SOL    HW274360   2.219  13.958  13.543
57510SOL     OW74361  12.556   1.475   2.861
57510SOL    HW174362  12.512   1.558   2.842
57510SOL    HW274363  12.505   1.438   2.933
57511SOL     OW74364  12.919   0.201  10.989
57511SOL    HW174365  12.943   0.190  10.897
57511SOL    HW274366  12.956   0.285  11.013
57512SOL     OW74367  12.793  13.482  14.299
57512SOL    HW174368  12.818  13.570  14.272
57512SOL    HW274369  12.750  13.494  14.384
57513SOL     OW74370   6.633   4.572  13.955
57513SOL    HW174371   6.547   4.591  13.991
57513SOL    HW274372   6.616   4.525  13.874
57514SOL     OW74373  12.429   9.649   6.604
57514SOL    HW174374  12.492   9.655   6.676
57514SOL    HW274375  12.367   9.582   6.632
57515SOL     OW74376   5.161   8.526   6.774
57515SOL    HW174377   5.195   8.583   6.843
57515SOL    HW274378   5.239   8.492   6.730
57516SOL     OW74379  10.087   6.275   5.518
57516SOL    HW174380  10.136   6.194   5.535
57516SOL    HW274381  10.097   6.290   5.424
57517SOL     OW74382  12.898   5.844   9.021
57517SOL    HW174383  12.869   5.935   9.024
57517SOL    HW274384  12.990   5.847   9.047
57518SOL     OW74385   2.408   5.333  11.584
57518SOL    HW174386   2.381   5.359  11.496
57518SOL    HW274387   2.390   5.410  11.638
57519SOL     OW74388   3.700   0.513   2.049
57519SOL    HW174389   3.706   0.602   2.084
57519SOL    HW274390   3.607   0.501   2.029
57520SOL     OW74391  12.690   2.538   8.168
57520SOL    HW174392  12.681   2.608   8.233
57520SOL    HW274393  12.778   2.504   8.182
57521SOL     OW74394   2.573   3.411   6.642
57521SOL    HW174395   2.605   3.453   6.722
57521SOL    HW274396   2.480   3.433   6.640
57522SOL     OW74397   6.875   6.036  12.130
57522SOL    HW174398   6.893   5.967  12.194
57522SOL    HW274399   6.933   6.017  12.057
57523SOL     OW74400   9.452   1.519   1.016
57523SOL    HW174401   9.404   1.599   1.036
57523SOL    HW274402   9.544   1.546   1.013
57524SOL     OW74403  12.062   0.697   7.800
57524SOL    HW174404  12.058   0.655   7.715
57524SOL    HW274405  12.024   0.784   7.786
57525SOL     OW74406   1.494  12.832   5.439
57525SOL    HW174407   1.448  12.761   5.483
57525SOL    HW274408   1.563  12.857   5.500
57526SOL     OW74409  10.109  12.128   7.804
57526SOL    HW174410  10.101  12.131   7.899
57526SOL    HW274411  10.143  12.041   7.785
57527SOL     OW74412  12.875   3.842   6.241
57527SOL    HW174413  12.905   3.930   6.219
57527SOL    HW274414  12.894   3.790   6.163
57528SOL     OW74415   0.019   7.092   3.400
57528SOL    HW174416   0.111   7.084   3.373
57528SOL    HW274417   0.012   7.180   3.436
57529SOL     OW74418  14.469   2.965   7.425
57529SOL    HW174419  14.413   2.902   7.469
57529SOL    HW274420  14.431   2.974   7.337
57530SOL     OW74421   7.368   0.852   9.836
57530SOL    HW174422   7.463   0.850   9.840
57530SOL    HW274423   7.348   0.884   9.748
57531SOL     OW74424   9.402  13.059  10.217
57531SOL    HW174425   9.447  12.978  10.193
57531SOL    HW274426   9.441  13.125  10.160
57532SOL     OW74427   8.723   8.428   2.286
57532SOL    HW174428   8.721   8.348   2.233
57532SOL    HW274429   8.730   8.499   2.221
57533SOL     OW74430  11.987   8.603  13.464
57533SOL    HW174431  11.983   8.524  13.518
57533SOL    HW274432  12.080   8.617  13.449
57534SOL     OW74433  10.411  13.721  12.497
57534SOL    HW174434  10.324  13.746  12.464
57534SOL    HW274435  10.465  13.799  12.484
57535SOL     OW74436   0.668   6.490   7.005
57535SOL    HW174437   0.584   6.444   7.006
57535SOL    HW274438   0.649   6.572   6.960
57536SOL     OW74439   8.587   4.872  11.250
57536SOL    HW174440   8.555   4.897  11.336
57536SOL    HW274441   8.560   4.781  11.239
57537SOL     OW74442   6.027   6.368   5.774
57537SOL    HW174443   5.934   6.349   5.756
57537SOL    HW274444   6.025   6.420   5.854
57538SOL     OW74445   9.859   8.480  10.195
57538SOL    HW174446   9.856   8.390  10.162
57538SOL    HW274447   9.838   8.534  10.119
57539SOL     OW74448   3.126  14.417  13.666
57539SOL    HW174449   3.100  14.504  13.697
57539SOL    HW274450   3.221  14.414  13.679
57540SOL     OW74451  10.708  12.182  10.897
57540SOL    HW174452  10.742  12.271  10.906
57540SOL    HW274453  10.779  12.132  10.857
57541SOL     OW74454   1.206   9.503  13.424
57541SOL    HW174455   1.162   9.580  13.389
57541SOL    HW274456   1.277   9.537  13.478
57542SOL     OW74457   1.537   9.824  10.147
57542SOL    HW174458   1.465   9.819  10.210
57542SOL    HW274459   1.555   9.733  10.123
57543SOL     OW74460   4.868  11.024  12.869
57543SOL    HW174461   4.819  10.981  12.940
57543SOL    HW274462   4.890  11.110  12.903
57544SOL     OW74463   1.617   3.047  13.284
57544SOL    HW174464   1.523   3.063  13.296
57544SOL    HW274465   1.622   2.963  13.239
57545SOL     OW74466   8.979  10.455  10.116
57545SOL    HW174467   9.066  10.491  10.096
57545SOL    HW274468   8.975  10.454  10.211
57546SOL     OW74469  13.255   4.290  10.753
57546SOL    HW174470  13.196   4.231  10.799
57546SOL    HW274471  13.230   4.283  10.661
57547SOL     OW74472   3.429   5.125   8.912
57547SOL    HW174473   3.393   5.044   8.947
57547SOL    HW274474   3.447   5.106   8.820
57548SOL     OW74475   4.284  14.501   0.072
57548SOL    HW174476   4.233  14.446   0.012
57548SOL    HW274477   4.301  14.581   0.023
57549SOL     OW74478   9.795   0.872   3.153
57549SOL    HW174479   9.745   0.938   3.201
57549SOL    HW274480   9.847   0.923   3.091
57550SOL     OW74481  10.221   8.023   4.906
57550SOL    HW174482  10.245   8.109   4.871
57550SOL    HW274483  10.237   8.030   5.000
57551SOL     OW74484  13.456   7.135   6.645
57551SOL    HW174485  13.471   7.081   6.568
57551SOL    HW274486  13.375   7.181   6.627
57552SOL     OW74487   7.079  14.689  10.944
57552SOL    HW174488   7.026  14.709  11.021
57552SOL    HW274489   7.016  14.679  10.873
57553SOL     OW74490   4.178   6.613  13.893
57553SOL    HW174491   4.238   6.685  13.914
57553SOL    HW274492   4.226   6.561  13.828
57554SOL     OW74493  10.365  10.365   2.069
57554SOL    HW174494  10.311  10.338   2.144
57554SOL    HW274495  10.449  10.390   2.108
57555SOL     OW74496   3.527   7.459   2.183
57555SOL    HW174497   3.600   7.399   2.166
57555SOL    HW274498   3.454   7.424   2.132
57556SOL     OW74499   1.181   0.153   0.818
57556SOL    HW174500   1.164   0.225   0.878
57556SOL    HW274501   1.237   0.191   0.750
57557SOL     OW74502  10.686   4.739  10.460
57557SOL    HW174503  10.772   4.734  10.418
57557SOL    HW274504  10.681   4.661  10.514
57558SOL     OW74505   7.784  13.210   2.737
57558SOL    HW174506   7.732  13.200   2.817
57558SOL    HW274507   7.868  13.244   2.766
57559SOL     OW74508   3.713  12.369  13.274
57559SOL    HW174509   3.662  12.313  13.332
57559SOL    HW274510   3.786  12.401  13.328
57560SOL     OW74511   0.638   5.686   5.317
57560SOL    HW174512   0.732   5.704   5.306
57560SOL    HW274513   0.631   5.651   5.406
57561SOL     OW74514  14.016  14.095  14.748
57561SOL    HW174515  14.009  14.019  14.690
57561SOL    HW274516  14.079  14.152  14.706
57562SOL     OW74517   3.883   3.376   6.180
57562SOL    HW174518   3.838   3.440   6.234
57562SOL    HW274519   3.976   3.393   6.195
57563SOL     OW74520  12.171   2.449   0.710
57563SOL    HW174521  12.266   2.434   0.715
57563SOL    HW274522  12.156   2.524   0.767
57564SOL     OW74523   5.905   6.998   4.444
57564SOL    HW174524   5.968   7.068   4.431
57564SOL    HW274525   5.901   6.986   4.539
57565SOL     OW74526  12.540   6.033   3.613
57565SOL    HW174527  12.623   5.990   3.591
57565SOL    HW274528  12.476   5.962   3.618
57566SOL     OW74529   5.127   8.251   6.086
57566SOL    HW174530   5.121   8.340   6.120
57566SOL    HW274531   5.063   8.248   6.015
57567SOL     OW74532  10.860  13.134   4.254
57567SOL    HW174533  10.807  13.211   4.275
57567SOL    HW274534  10.840  13.115   4.162
57568SOL     OW74535  14.157   0.231  11.067
57568SOL    HW174536  14.092   0.297  11.092
57568SOL    HW274537  14.207   0.215  11.147
57569SOL     OW74538  11.599  12.019   5.081
57569SOL    HW174539  11.606  12.115   5.088
57569SOL    HW274540  11.543  12.005   5.005
57570SOL     OW74541   1.801   2.655   7.413
57570SOL    HW174542   1.714   2.662   7.372
57570SOL    HW274543   1.827   2.565   7.397
57571SOL     OW74544  13.476   4.684   0.745
57571SOL    HW174545  13.496   4.592   0.760
57571SOL    HW274546  13.559   4.730   0.756
57572SOL     OW74547   6.952   4.325   1.782
57572SOL    HW174548   6.876   4.296   1.732
57572SOL    HW274549   6.945   4.279   1.866
57573SOL     OW74550   6.264  14.543   9.619
57573SOL    HW174551   6.242  14.627   9.661
57573SOL    HW274552   6.232  14.477   9.680
57574SOL     OW74553   6.696   2.938   6.388
57574SOL    HW174554   6.680   2.951   6.481
57574SOL    HW274555   6.614   2.966   6.346
57575SOL     OW74556   9.282   6.457   1.938
57575SOL    HW174557   9.366   6.434   1.977
57575SOL    HW274558   9.287   6.423   1.848
57576SOL     OW74559  11.430   9.692   5.700
57576SOL    HW174560  11.448   9.601   5.676
57576SOL    HW274561  11.396   9.731   5.619
57577SOL     OW74562  11.582  12.003   8.980
57577SOL    HW174563  11.583  11.955   8.897
57577SOL    HW274564  11.667  11.985   9.020
57578SOL     OW74565   6.538   9.442   0.351
57578SOL    HW174566   6.489   9.489   0.418
57578SOL    HW274567   6.505   9.476   0.268
57579SOL     OW74568  12.683   3.344   1.038
57579SOL    HW174569  12.620   3.367   0.970
57579SOL    HW274570  12.741   3.279   0.996
57580SOL     OW74571   0.961   5.415  13.044
57580SOL    HW174572   0.992   5.393  13.132
57580SOL    HW274573   0.958   5.511  13.043
57581SOL     OW74574   3.780   0.455   1.719
57581SOL    HW174575   3.704   0.431   1.772
57581SOL    HW274576   3.745   0.516   1.654
57582SOL     OW74577  14.724  11.672   6.581
57582SOL    HW174578  14.725  11.761   6.616
57582SOL    HW274579  14.726  11.683   6.486
57583SOL     OW74580   0.409   9.264   7.708
57583SOL    HW174581   0.353   9.270   7.631
57583SOL    HW274582   0.362   9.204   7.767
57584SOL     OW74583   5.035   2.644   7.921
57584SOL    HW174584   5.066   2.735   7.913
57584SOL    HW274585   5.052   2.621   8.013
57585SOL     OW74586   3.631   5.195  10.569
57585SOL    HW174587   3.562   5.261  10.559
57585SOL    HW274588   3.712   5.246  10.575
57586SOL     OW74589  11.043   3.251   2.042
57586SOL    HW174590  11.099   3.174   2.043
57586SOL    HW274591  11.089   3.316   2.094
57587SOL     OW74592  12.398   5.876  14.086
57587SOL    HW174593  12.368   5.907  14.000
57587SOL    HW274594  12.479   5.829  14.068
57588SOL     OW74595   1.326   9.983   6.981
57588SOL    HW174596   1.318   9.981   6.886
57588SOL    HW274597   1.267   9.914   7.011
57589SOL     OW74598   6.647   2.412  11.374
57589SOL    HW174599   6.612   2.340  11.320
57589SOL    HW274600   6.590   2.415  11.450
57590SOL     OW74601   4.795  11.961  12.681
57590SOL    HW174602   4.766  12.000  12.598
57590SOL    HW274603   4.753  11.875  12.683
57591SOL     OW74604   8.311  12.485  11.760
57591SOL    HW174605   8.378  12.422  11.733
57591SOL    HW274606   8.239  12.471  11.698
57592SOL     OW74607   0.815   5.113   3.528
57592SOL    HW174608   0.839   5.198   3.565
57592SOL    HW274609   0.879   5.052   3.564
57593SOL     OW74610   7.418  11.750   5.631
57593SOL    HW174611   7.352  11.752   5.700
57593SOL    HW274612   7.373  11.783   5.553
57594SOL     OW74613   4.727   0.454  14.431
57594SOL    HW174614   4.668   0.413  14.367
57594SOL    HW274615   4.776   0.519  14.380
57595SOL     OW74616   9.990  10.800   2.796
57595SOL    HW174617   9.979  10.722   2.851
57595SOL    HW274618   9.901  10.835   2.787
57596SOL     OW74619  10.688  12.495   0.010
57596SOL    HW174620  10.737  12.568   0.050
57596SOL    HW274621  10.614  12.537  14.848
57597SOL     OW74622   0.040  12.307   5.865
57597SOL    HW174623   0.098  12.277   5.795
57597SOL    HW274624  14.854  12.358   5.819
57598SOL     OW74625  10.763   3.891   8.924
57598SOL    HW174626  10.699   3.912   8.855
57598SOL    HW274627  10.750   3.960   8.989
57599SOL     OW74628   0.891   4.027   8.296
57599SOL    HW174629   0.867   4.004   8.206
57599SOL    HW274630   0.986   4.014   8.298
57600SOL     OW74631  14.869  10.531  11.784
57600SOL    HW174632  14.785  10.534  11.738
57600SOL    HW274633  14.852  10.481  11.863
57601SOL     OW74634   4.541   6.063  10.869
57601SOL    HW174635   4.590   6.119  10.810
57601SOL    HW274636   4.598   5.987  10.882
57602SOL     OW74637  14.447  14.544   4.878
57602SOL    HW174638  14.465  14.473   4.817
57602SOL    HW274639  14.378  14.596   4.835
57603SOL     OW74640   0.812   7.138  12.340
57603SOL    HW174641   0.797   7.067  12.278
57603SOL    HW274642   0.725   7.161  12.373
57604SOL     OW74643   1.428  12.820   9.528
57604SOL    HW174644   1.417  12.725   9.528
57604SOL    HW274645   1.399  12.847   9.616
57605SOL     OW74646   0.965   2.814   5.189
57605SOL    HW174647   0.957   2.798   5.095
57605SOL    HW274648   0.948   2.729   5.230
57606SOL     OW74649  11.243   8.072  11.217
57606SOL    HW174650  11.150   8.087  11.199
57606SOL    HW274651  11.281   8.053  11.132
57607SOL     OW74652   5.713  13.961  10.486
57607SOL    HW174653   5.682  13.931  10.401
57607SOL    HW274654   5.650  13.925  10.548
57608SOL     OW74655   8.188   3.327   4.497
57608SOL    HW174656   8.175   3.240   4.534
57608SOL    HW274657   8.143   3.323   4.412
57609SOL     OW74658  13.061   6.827   2.277
57609SOL    HW174659  13.153   6.840   2.252
57609SOL    HW274660  13.011   6.859   2.202
57610SOL     OW74661   5.397   5.491   8.445
57610SOL    HW174662   5.480   5.451   8.469
57610SOL    HW274663   5.411   5.523   8.356
57611SOL     OW74664   8.248  14.593   6.810
57611SOL    HW174665   8.192  14.638   6.873
57611SOL    HW274666   8.203  14.510   6.792
57612SOL     OW74667   5.925   4.687   4.229
57612SOL    HW174668   6.014   4.691   4.194
57612SOL    HW274669   5.902   4.778   4.248
57613SOL     OW74670   9.822   3.527  11.680
57613SOL    HW174671   9.779   3.445  11.656
57613SOL    HW274672   9.760   3.595  11.654
57614SOL     OW74673  14.375   7.833   8.308
57614SOL    HW174674  14.379   7.829   8.404
57614SOL    HW274675  14.382   7.741   8.281
57615SOL     OW74676   3.595   2.139   5.866
57615SOL    HW174677   3.511   2.159   5.826
57615SOL    HW274678   3.650   2.214   5.845
57616SOL     OW74679  12.293   4.921  11.683
57616SOL    HW174680  12.313   4.876  11.766
57616SOL    HW274681  12.333   4.866  11.616
57617SOL     OW74682  10.446   1.510   5.487
57617SOL    HW174683  10.356   1.530   5.515
57617SOL    HW274684  10.437   1.431   5.434
57618SOL     OW74685   1.135   2.588   1.424
57618SOL    HW174686   1.117   2.497   1.399
57618SOL    HW274687   1.082   2.602   1.503
57619SOL     OW74688  13.899   1.497   8.839
57619SOL    HW174689  13.860   1.422   8.885
57619SOL    HW274690  13.833   1.522   8.774
57620SOL     OW74691  10.553   5.470   8.149
57620SOL    HW174692  10.635   5.426   8.129
57620SOL    HW274693  10.485   5.415   8.110
57621SOL     OW74694   4.018  12.233  10.704
57621SOL    HW174695   3.960  12.285  10.649
57621SOL    HW274696   4.044  12.159  10.649
57622SOL     OW74697  10.688   9.181  13.250
57622SOL    HW174698  10.640   9.101  13.233
57622SOL    HW274699  10.631   9.251  13.216
57623SOL     OW74700   1.474   4.579   8.825
57623SOL    HW174701   1.407   4.578   8.892
57623SOL    HW274702   1.555   4.556   8.871
57624SOL     OW74703   8.139   8.491   7.909
57624SOL    HW174704   8.220   8.485   7.859
57624SOL    HW274705   8.139   8.411   7.963
57625SOL     OW74706   6.153  11.243   2.220
57625SOL    HW174707   6.225  11.193   2.260
57625SOL    HW274708   6.079  11.229   2.279
57626SOL     OW74709   4.232   7.360   7.495
57626SOL    HW174710   4.219   7.302   7.570
57626SOL    HW274711   4.266   7.441   7.534
57627SOL     OW74712   0.233   5.076  14.506
57627SOL    HW174713   0.275   4.993  14.483
57627SOL    HW274714   0.306   5.133  14.533
57628SOL     OW74715  11.576  10.540  12.574
57628SOL    HW174716  11.555  10.632  12.590
57628SOL    HW274717  11.629  10.514  12.649
57629SOL     OW74718  12.739  12.530   9.412
57629SOL    HW174719  12.731  12.552   9.319
57629SOL    HW274720  12.826  12.561   9.437
57630SOL     OW74721   6.517   5.214   3.461
57630SOL    HW174722   6.438   5.198   3.408
57630SOL    HW274723   6.510   5.306   3.487
57631SOL     OW74724   7.148   5.139   2.873
57631SOL    HW174725   7.217   5.159   2.809
57631SOL    HW274726   7.183   5.064   2.922
57632SOL     OW74727   6.814   9.299  14.614
57632SOL    HW174728   6.845   9.389  14.604
57632SOL    HW274729   6.785   9.274  14.526
57633SOL     OW74730   5.980   8.256  14.597
57633SOL    HW174731   5.988   8.289  14.507
57633SOL    HW274732   6.034   8.177  14.598
57634SOL     OW74733   0.384  14.339   1.381
57634SOL    HW174734   0.317  14.395   1.342
57634SOL    HW274735   0.335  14.275   1.433
57635SOL     OW74736   3.103   4.779   7.086
57635SOL    HW174737   3.128   4.777   6.993
57635SOL    HW274738   3.009   4.759   7.086
57636SOL     OW74739   8.181   3.825   1.329
57636SOL    HW174740   8.134   3.857   1.406
57636SOL    HW274741   8.263   3.789   1.365
57637SOL     OW74742  12.187   3.395   0.467
57637SOL    HW174743  12.190   3.378   0.373
57637SOL    HW274744  12.273   3.429   0.489
57638SOL     OW74745  10.666   7.194  13.228
57638SOL    HW174746  10.684   7.218  13.319
57638SOL    HW274747  10.653   7.278  13.183
57639SOL     OW74748  12.950   1.596   1.228
57639SOL    HW174749  12.865   1.636   1.246
57639SOL    HW274750  13.003   1.668   1.193
57640SOL     OW74751   8.638  14.395   5.482
57640SOL    HW174752   8.694  14.391   5.560
57640SOL    HW274753   8.627  14.304   5.455
57641SOL     OW74754   1.548   5.446  10.038
57641SOL    HW174755   1.460   5.460  10.002
57641SOL    HW274756   1.542   5.479  10.128
57642SOL     OW74757   1.352   8.876   4.141
57642SOL    HW174758   1.434   8.839   4.173
57642SOL    HW274759   1.317   8.810   4.081
57643SOL     OW74760  11.791  13.564   8.128
57643SOL    HW174761  11.871  13.610   8.104
57643SOL    HW274762  11.820  13.477   8.157
57644SOL     OW74763   8.157   9.598   8.256
57644SOL    HW174764   8.100   9.653   8.310
57644SOL    HW274765   8.205   9.544   8.319
57645SOL     OW74766   8.722   3.025  14.032
57645SOL    HW174767   8.692   3.090  13.967
57645SOL    HW274768   8.793   2.979  13.988
57646SOL     OW74769  11.323   3.016   9.881
57646SOL    HW174770  11.307   3.000   9.974
57646SOL    HW274771  11.417   3.036   9.876
57647SOL     OW74772  10.296   8.799  12.865
57647SOL    HW174773  10.353   8.731  12.901
57647SOL    HW274774  10.209   8.759  12.865
57648SOL     OW74775   0.911   4.396   7.801
57648SOL    HW174776   0.906   4.302   7.788
57648SOL    HW274777   0.977   4.425   7.738
57649SOL     OW74778  13.427  13.174  14.629
57649SOL    HW174779  13.350  13.197  14.681
57649SOL    HW274780  13.451  13.086  14.659
57650SOL     OW74781   8.087  12.165   9.683
57650SOL    HW174782   8.070  12.082   9.638
57650SOL    HW274783   8.182  12.175   9.679
57651SOL     OW74784  10.419  10.500   7.357
57651SOL    HW174785  10.382  10.419   7.322
57651SOL    HW274786  10.344  10.560   7.365
57652SOL     OW74787   1.653   8.660   8.030
57652SOL    HW174788   1.563   8.650   8.062
57652SOL    HW274789   1.651   8.740   7.978
57653SOL     OW74790   4.760   1.430   2.246
57653SOL    HW174791   4.759   1.501   2.310
57653SOL    HW274792   4.678   1.382   2.262
57654SOL     OW74793   0.230   6.741   2.434
57654SOL    HW174794   0.214   6.690   2.355
57654SOL    HW274795   0.217   6.832   2.406
57655SOL     OW74796  11.257   3.901  11.055
57655SOL    HW174797  11.238   3.809  11.036
57655SOL    HW274798  11.336   3.921  11.004
57656SOL     OW74799  14.745   1.818   4.361
57656SOL    HW174800  14.756   1.822   4.266
57656SOL    HW274801  14.688   1.742   4.374
57657SOL     OW74802  12.021   7.391   7.530
57657SOL    HW174803  12.042   7.316   7.586
57657SOL    HW274804  11.929   7.377   7.505
57658SOL     OW74805   8.124  14.152   8.223
57658SOL    HW174806   8.128  14.200   8.140
57658SOL    HW274807   8.033  14.160   8.251
57659SOL     OW74808   9.380  12.199  14.373
57659SOL    HW174809   9.291  12.229  14.391
57659SOL    HW274810   9.371  12.141  14.297
57660SOL     OW74811   5.068   1.539   6.407
57660SOL    HW174812   5.089   1.558   6.315
57660SOL    HW274813   5.128   1.594   6.458
57661SOL     OW74814   9.780  13.565   4.821
57661SOL    HW174815   9.753  13.652   4.851
57661SOL    HW274816   9.726  13.505   4.873
57662SOL     OW74817   0.813   7.905   8.234
57662SOL    HW174818   0.810   7.933   8.142
57662SOL    HW274819   0.721   7.891   8.258
57663SOL     OW74820   5.378   9.755   5.470
57663SOL    HW174821   5.308   9.718   5.524
57663SOL    HW274822   5.396   9.688   5.404
57664SOL     OW74823   9.555   3.183  12.083
57664SOL    HW174824   9.546   3.250  12.150
57664SOL    HW274825   9.547   3.230  12.000
57665SOL     OW74826   3.452  12.492   8.281
57665SOL    HW174827   3.366  12.506   8.321
57665SOL    HW274828   3.513  12.488   8.355
57666SOL     OW74829   1.328   3.655  12.792
57666SOL    HW174830   1.402   3.626  12.845
57666SOL    HW274831   1.293   3.574  12.754
57667SOL     OW74832  14.853   6.888   7.490
57667SOL    HW174833  14.773   6.840   7.466
57667SOL    HW274834   0.013   6.907   7.406
57668SOL     OW74835   5.538   1.947   7.668
57668SOL    HW174836   5.459   1.977   7.713
57668SOL    HW274837   5.533   1.987   7.581
57669SOL     OW74838   5.218   8.071   7.089
57669SOL    HW174839   5.262   8.097   7.170
57669SOL    HW274840   5.289   8.049   7.029
57670SOL     OW74841   5.605  10.573  13.439
57670SOL    HW174842   5.533  10.510  13.429
57670SOL    HW274843   5.564  10.658  13.425
57671SOL     OW74844   1.865   4.251   9.459
57671SOL    HW174845   1.954   4.283   9.446
57671SOL    HW274846   1.825   4.315   9.518
57672SOL     OW74847   0.112   6.767  14.472
57672SOL    HW174848   0.191   6.783  14.419
57672SOL    HW274849   0.096   6.851  14.515
57673SOL     OW74850   1.256   9.421   2.074
57673SOL    HW174851   1.183   9.372   2.111
57673SOL    HW274852   1.310   9.354   2.031
57674SOL     OW74853   6.675   0.958   3.468
57674SOL    HW174854   6.663   0.878   3.520
57674SOL    HW274855   6.588   0.998   3.466
57675SOL     OW74856  12.583  11.706  11.059
57675SOL    HW174857  12.625  11.732  11.141
57675SOL    HW274858  12.505  11.760  11.052
57676SOL     OW74859   3.009  10.277   6.700
57676SOL    HW174860   2.991  10.284   6.607
57676SOL    HW274861   3.102  10.300   6.708
57677SOL     OW74862  13.082   6.346   1.987
57677SOL    HW174863  13.164   6.389   1.961
57677SOL    HW274864  13.027   6.350   1.909
57678SOL     OW74865   1.156  14.120   2.030
57678SOL    HW174866   1.161  14.211   2.061
57678SOL    HW274867   1.082  14.118   1.971
57679SOL     OW74868  12.525   9.203   2.652
57679SOL    HW174869  12.610   9.162   2.667
57679SOL    HW274870  12.469   9.172   2.723
57680SOL     OW74871   7.117   2.574   5.804
57680SOL    HW174872   7.189   2.586   5.742
57680SOL    HW274873   7.039   2.565   5.749
57681SOL     OW74874   1.559   8.732  13.406
57681SOL    HW174875   1.612   8.656  13.429
57681SOL    HW274876   1.487   8.731  13.470
57682SOL     OW74877   5.522   1.850  10.636
57682SOL    HW174878   5.484   1.913  10.575
57682SOL    HW274879   5.489   1.765  10.607
57683SOL     OW74880  12.190   8.840  12.007
57683SOL    HW174881  12.151   8.753  12.021
57683SOL    HW274882  12.155   8.869  11.923
57684SOL     OW74883   7.681  10.805   4.190
57684SOL    HW174884   7.612  10.809   4.123
57684SOL    HW274885   7.634  10.811   4.273
57685SOL     OW74886   7.086   4.286   8.130
57685SOL    HW174887   7.012   4.251   8.179
57685SOL    HW274888   7.062   4.377   8.112
57686SOL     OW74889  12.114   6.682  10.975
57686SOL    HW174890  12.044   6.627  11.008
57686SOL    HW274891  12.185   6.620  10.953
57687SOL     OW74892   8.895   9.625   9.619
57687SOL    HW174893   8.942   9.545   9.640
57687SOL    HW274894   8.925   9.688   9.684
57688SOL     OW74895  12.622   8.478   8.347
57688SOL    HW174896  12.657   8.400   8.303
57688SOL    HW274897  12.528   8.462   8.354
57689SOL     OW74898   6.014   8.362  12.359
57689SOL    HW174899   5.989   8.416  12.434
57689SOL    HW274900   6.086   8.410  12.318
57690SOL     OW74901   2.910   3.369  12.886
57690SOL    HW174902   2.939   3.353  12.796
57690SOL    HW274903   2.838   3.431  12.877
57691SOL     OW74904  13.964   6.692   2.662
57691SOL    HW174905  13.999   6.736   2.740
57691SOL    HW274906  13.934   6.764   2.606
57692SOL     OW74907   1.552  14.554   7.941
57692SOL    HW174908   1.624  14.550   7.879
57692SOL    HW274909   1.594  14.570   8.025
57693SOL     OW74910  10.406  10.095   4.871
57693SOL    HW174911  10.371  10.008   4.852
57693SOL    HW274912  10.329  10.148   4.892
57694SOL     OW74913   5.309   3.136   8.277
57694SOL    HW174914   5.398   3.103   8.283
57694SOL    HW274915   5.254   3.062   8.303
57695SOL     OW74916   6.829   4.739   3.428
57695SOL    HW174917   6.734   4.727   3.432
57695SOL    HW274918   6.857   4.685   3.354
57696SOL     OW74919  14.342  11.262   3.762
57696SOL    HW174920  14.362  11.179   3.718
57696SOL    HW274921  14.254  11.284   3.732
57697SOL     OW74922   2.435   6.633   1.782
57697SOL    HW174923   2.522   6.603   1.755
57697SOL    HW274924   2.399   6.676   1.704
57698SOL     OW74925   3.303   4.930   4.211
57698SOL    HW174926   3.284   5.012   4.256
57698SOL    HW274927   3.219   4.902   4.174
57699SOL     OW74928   0.171   7.100  12.422
57699SOL    HW174929   0.202   7.120  12.333
57699SOL    HW274930   0.076   7.108  12.417
57700SOL     OW74931   8.845   8.142   2.765
57700SOL    HW174932   8.822   8.071   2.706
57700SOL    HW274933   8.850   8.220   2.709
57701SOL     OW74934   7.333   3.534   4.125
57701SOL    HW174935   7.322   3.442   4.150
57701SOL    HW274936   7.261   3.580   4.169
57702SOL     OW74937  11.181   4.479   3.240
57702SOL    HW174938  11.232   4.509   3.315
57702SOL    HW274939  11.237   4.497   3.164
57703SOL     OW74940  10.421   7.222  11.407
57703SOL    HW174941  10.452   7.138  11.440
57703SOL    HW274942  10.499   7.264  11.372
57704SOL     OW74943   9.114   5.144   1.222
57704SOL    HW174944   9.194   5.095   1.203
57704SOL    HW274945   9.045   5.078   1.221
57705SOL     OW74946  11.092   7.484  14.402
57705SOL    HW174947  11.166   7.423  14.403
57705SOL    HW274948  11.073   7.496  14.309
57706SOL     OW74949   1.442   9.132  13.879
57706SOL    HW174950   1.519   9.153  13.933
57706SOL    HW274951   1.474   9.137  13.789
57707SOL     OW74952   5.672   6.665   2.195
57707SOL    HW174953   5.762   6.634   2.185
57707SOL    HW274954   5.667   6.697   2.285
57708SOL     OW74955   7.021   7.527  13.749
57708SOL    HW174956   6.942   7.544  13.801
57708SOL    HW274957   7.042   7.435  13.768
57709SOL     OW74958   2.297  11.102  11.443
57709SOL    HW174959   2.301  11.049  11.523
57709SOL    HW274960   2.209  11.139  11.444
57710SOL     OW74961   5.049   1.381   9.870
57710SOL    HW174962   5.105   1.361   9.945
57710SOL    HW274963   4.969   1.331   9.886
57711SOL     OW74964  13.316  10.257  11.592
57711SOL    HW174965  13.252  10.226  11.527
57711SOL    HW274966  13.275  10.237  11.676
57712SOL     OW74967   8.683   7.695   4.313
57712SOL    HW174968   8.778   7.705   4.319
57712SOL    HW274969   8.662   7.633   4.382
57713SOL     OW74970   9.346  13.748   5.191
57713SOL    HW174971   9.348  13.719   5.100
57713SOL    HW274972   9.339  13.844   5.185
57714SOL     OW74973   6.974  11.485   4.211
57714SOL    HW174974   7.055  11.535   4.225
57714SOL    HW274975   6.966  11.430   4.289
57715SOL     OW74976  13.591  11.532  12.621
57715SOL    HW174977  13.562  11.490  12.540
57715SOL    HW274978  13.672  11.486  12.644
57716SOL     OW74979  14.514  12.548   6.188
57716SOL    HW174980  14.426  12.516   6.169
57716SOL    HW274981  14.523  12.538   6.283
57717SOL     OW74982   0.156  10.722   2.809
57717SOL    HW174983   0.178  10.669   2.885
57717SOL    HW274984   0.102  10.665   2.754
57718SOL     OW74985   2.345  13.728   9.475
57718SOL    HW174986   2.254  13.743   9.450
57718SOL    HW274987   2.388  13.813   9.466
57719SOL     OW74988   8.627   8.631  14.862
57719SOL    HW174989   8.557   8.687   0.015
57719SOL    HW274990   8.681   8.610   0.057
57720SOL     OW74991   5.113  12.631   8.530
57720SOL    HW174992   5.112  12.560   8.594
57720SOL    HW274993   5.029  12.675   8.541
57721SOL     OW74994   5.252  10.981   4.350
57721SOL    HW174995   5.308  10.954   4.423
57721SOL    HW274996   5.264  10.913   4.284
57722SOL     OW74997   1.565   0.252   1.003
57722SOL    HW174998   1.554   0.162   0.971
57722SOL    HW274999   1.601   0.242   1.091
57723SOL     OW75000  12.012  11.133   3.357
57723SOL    HW175001  12.073  11.067   3.391
57723SOL    HW275002  12.007  11.199   3.427
57724SOL     OW75003  12.919   1.226  13.601
57724SOL    HW175004  12.978   1.245  13.674
57724SOL    HW275005  12.977   1.213  13.526
57725SOL     OW75006   6.752   4.937   3.730
57725SOL    HW175007   6.781   4.898   3.648
57725SOL    HW275008   6.790   4.881   3.798
57726SOL     OW75009   3.408   0.182   2.277
57726SOL    HW175010   3.362   0.261   2.306
57726SOL    HW275011   3.349   0.110   2.301
57727SOL     OW75012  12.312   3.513   8.154
57727SOL    HW175013  12.321   3.526   8.060
57727SOL    HW275014  12.388   3.556   8.192
57728SOL     OW75015   1.176   4.889   2.564
57728SOL    HW175016   1.224   4.866   2.485
57728SOL    HW275017   1.099   4.936   2.533
57729SOL     OW75018  11.077   8.598   4.728
57729SOL    HW175019  11.021   8.599   4.805
57729SOL    HW275020  11.126   8.516   4.736
57730SOL     OW75021   4.463   6.559  12.048
57730SOL    HW175022   4.388   6.512  12.011
57730SOL    HW275023   4.536   6.497  12.042
57731SOL     OW75024  11.772   5.828  12.318
57731SOL    HW175025  11.783   5.775  12.397
57731SOL    HW275026  11.770   5.918  12.350
57732SOL     OW75027  14.062   8.869  11.572
57732SOL    HW175028  14.110   8.838  11.649
57732SOL    HW275029  14.115   8.942  11.539
57733SOL     OW75030  14.635   1.123  11.823
57733SOL    HW175031  14.554   1.152  11.779
57733SOL    HW275032  14.606   1.095  11.910
57734SOL     OW75033   3.749   4.917   5.066
57734SOL    HW175034   3.841   4.915   5.095
57734SOL    HW275035   3.716   4.830   5.088
57735SOL     OW75036   9.868  11.099  10.518
57735SOL    HW175037   9.777  11.083  10.544
57735SOL    HW275038   9.883  11.191  10.536
57736SOL     OW75039  12.734  14.022  13.676
57736SOL    HW175040  12.704  14.076  13.749
57736SOL    HW275041  12.691  14.060  13.599
57737SOL     OW75042  12.182   7.320   1.435
57737SOL    HW175043  12.271   7.290   1.420
57737SOL    HW275044  12.158   7.366   1.354
57738SOL     OW75045  10.240   2.808   1.887
57738SOL    HW175046  10.166   2.868   1.874
57738SOL    HW275047  10.316   2.866   1.896
57739SOL     OW75048   3.424   7.491   8.958
57739SOL    HW175049   3.417   7.581   8.926
57739SOL    HW275050   3.471   7.444   8.889
57740SOL     OW75051  13.615   7.159   0.927
57740SOL    HW175052  13.604   7.105   0.848
57740SOL    HW275053  13.706   7.145   0.952
57741SOL     OW75054   0.248  11.562  10.099
57741SOL    HW175055   0.212  11.602  10.020
57741SOL    HW275056   0.294  11.633  10.142
57742SOL     OW75057   7.881   9.477   3.410
57742SOL    HW175058   7.972   9.506   3.422
57742SOL    HW275059   7.833   9.520   3.481
57743SOL     OW75060  12.750  13.788   0.018
57743SOL    HW175061  12.787  13.702   0.040
57743SOL    HW275062  12.813  13.850   0.052
57744SOL     OW75063   5.662   7.719  12.912
57744SOL    HW175064   5.579   7.755  12.881
57744SOL    HW275065   5.636   7.648  12.972
57745SOL     OW75066  10.852   4.330  13.669
57745SOL    HW175067  10.799   4.383  13.729
57745SOL    HW275068  10.807   4.337  13.585
57746SOL     OW75069   1.847   6.229   1.876
57746SOL    HW175070   1.898   6.277   1.941
57746SOL    HW275071   1.908   6.164   1.840
57747SOL     OW75072  14.736   8.413   0.140
57747SOL    HW175073  14.769   8.410   0.050
57747SOL    HW275074  14.707   8.323   0.157
57748SOL     OW75075   1.220  10.872   4.339
57748SOL    HW175076   1.275  10.886   4.416
57748SOL    HW275077   1.229  10.779   4.320
57749SOL     OW75078  14.784   7.860   5.647
57749SOL    HW175079  14.805   7.832   5.558
57749SOL    HW275080  14.724   7.793   5.680
57750SOL     OW75081  13.876   8.934  11.972
57750SOL    HW175082  13.860   9.025  11.947
57750SOL    HW275083  13.840   8.882  11.899
57751SOL     OW75084  13.620  12.581   3.421
57751SOL    HW175085  13.574  12.664   3.407
57751SOL    HW275086  13.705  12.607   3.458
57752SOL     OW75087  10.880   5.917  14.607
57752SOL    HW175088  10.937   5.990  14.583
57752SOL    HW275089  10.857   5.877  14.523
57753SOL     OW75090  11.984   4.771  11.866
57753SOL    HW175091  12.066   4.750  11.820
57753SOL    HW275092  12.006   4.846  11.921
57754SOL     OW75093   8.450   9.908   9.064
57754SOL    HW175094   8.494   9.840   9.012
57754SOL    HW275095   8.501   9.915   9.144
57755SOL     OW75096  11.233   9.736   2.999
57755SOL    HW175097  11.281   9.754   2.918
57755SOL    HW275098  11.249   9.814   3.053
57756SOL     OW75099   9.068  10.409   2.784
57756SOL    HW175100   9.107  10.495   2.772
57756SOL    HW275101   9.120  10.351   2.729
57757SOL     OW75102   3.268   9.002   3.490
57757SOL    HW175103   3.247   8.997   3.584
57757SOL    HW275104   3.364   8.996   3.487
57758SOL     OW75105   9.005   6.506   2.319
57758SOL    HW175106   8.929   6.556   2.288
57758SOL    HW275107   8.968   6.437   2.374
57759SOL     OW75108   2.626   0.724  12.928
57759SOL    HW175109   2.623   0.687  12.840
57759SOL    HW275110   2.628   0.819  12.915
57760SOL     OW75111   1.841   1.500   1.069
57760SOL    HW175112   1.833   1.409   1.098
57760SOL    HW275113   1.814   1.551   1.145
57761SOL     OW75114   3.681   2.171   4.489
57761SOL    HW175115   3.722   2.257   4.500
57761SOL    HW275116   3.730   2.114   4.549
57762SOL     OW75117   9.552  11.939   3.097
57762SOL    HW175118   9.534  11.912   3.187
57762SOL    HW275119   9.466  11.943   3.056
57763SOL     OW75120   3.700   5.458  11.047
57763SOL    HW175121   3.681   5.433  10.957
57763SOL    HW275122   3.669   5.383  11.099
57764SOL     OW75123   6.375   4.038   5.771
57764SOL    HW175124   6.400   4.122   5.809
57764SOL    HW275125   6.291   4.055   5.728
57765SOL     OW75126  10.975  12.939  13.710
57765SOL    HW175127  11.012  13.010  13.659
57765SOL    HW275128  10.887  12.969  13.735
57766SOL     OW75129  11.927   1.146   4.180
57766SOL    HW175130  11.924   1.141   4.085
57766SOL    HW275131  11.953   1.058   4.208
57767SOL     OW75132  10.154   9.940  10.316
57767SOL    HW175133  10.078   9.990  10.286
57767SOL    HW275134  10.120   9.883  10.384
57768SOL     OW75135   0.544   2.074  12.390
57768SOL    HW175136   0.604   2.053  12.462
57768SOL    HW275137   0.600   2.078  12.313
57769SOL     OW75138  12.300  14.792   9.439
57769SOL    HW175139  12.207  14.798   9.457
57769SOL    HW275140  12.305  14.760   9.349
57770SOL     OW75141  14.264   9.505  11.091
57770SOL    HW175142  14.278   9.533  11.181
57770SOL    HW275143  14.334   9.547  11.041
57771SOL     OW75144   1.835  12.709   3.488
57771SOL    HW175145   1.811  12.742   3.401
57771SOL    HW275146   1.862  12.619   3.474
57772SOL     OW75147   6.328  13.008   4.107
57772SOL    HW175148   6.416  12.985   4.077
57772SOL    HW275149   6.270  12.957   4.051
57773SOL     OW75150   4.170   7.150  11.659
57773SOL    HW175151   4.119   7.165  11.739
57773SOL    HW275152   4.199   7.059  11.667
57774SOL     OW75153   7.284   3.083   1.123
57774SOL    HW175154   7.340   3.140   1.176
57774SOL    HW275155   7.219   3.143   1.085
57775SOL     OW75156  14.057   0.690   1.376
57775SOL    HW175157  14.129   0.714   1.318
57775SOL    HW275158  14.054   0.594   1.372
57776SOL     OW75159   2.701   6.753   7.755
57776SOL    HW175160   2.775   6.752   7.816
57776SOL    HW275161   2.634   6.805   7.798
57777SOL     OW75162  12.516   4.649   3.704
57777SOL    HW175163  12.479   4.700   3.777
57777SOL    HW275164  12.476   4.563   3.712
57778SOL     OW75165   9.100   8.450  11.840
57778SOL    HW175166   9.189   8.473  11.868
57778SOL    HW275167   9.112   8.376  11.781
57779SOL     OW75168  13.441   1.943   4.051
57779SOL    HW175169  13.534   1.968   4.057
57779SOL    HW275170  13.438   1.853   4.082
57780SOL     OW75171   4.820   2.476  13.222
57780SOL    HW175172   4.785   2.422  13.151
57780SOL    HW275173   4.908   2.441  13.237
57781SOL     OW75174   5.510  10.263   0.221
57781SOL    HW175175   5.592  10.247   0.268
57781SOL    HW275176   5.498  10.185   0.167
57782SOL     OW75177   4.824  13.229   9.130
57782SOL    HW175178   4.746  13.223   9.075
57782SOL    HW275179   4.897  13.218   9.070
57783SOL     OW75180   3.393   2.035  10.093
57783SOL    HW175181   3.336   1.992  10.029
57783SOL    HW275182   3.385   2.128  10.073
57784SOL     OW75183  11.815   3.371   3.042
57784SOL    HW175184  11.821   3.415   3.127
57784SOL    HW275185  11.721   3.358   3.029
57785SOL     OW75186   1.450   5.002   1.998
57785SOL    HW175187   1.468   5.043   2.083
57785SOL    HW275188   1.467   4.909   2.013
57786SOL     OW75189   4.043  11.394   6.872
57786SOL    HW175190   4.118  11.368   6.819
57786SOL    HW275191   3.992  11.452   6.815
57787SOL     OW75192   8.983   2.794   0.269
57787SOL    HW175193   8.994   2.840   0.353
57787SOL    HW275194   9.028   2.710   0.282
57788SOL     OW75195  10.298  10.141  13.102
57788SOL    HW175196  10.319  10.209  13.166
57788SOL    HW275197  10.360  10.155  13.031
57789SOL     OW75198   2.068  12.163  12.174
57789SOL    HW175199   2.035  12.194  12.258
57789SOL    HW275200   2.135  12.098  12.196
57790SOL     OW75201  11.971  13.801   4.063
57790SOL    HW175202  11.944  13.722   4.017
57790SOL    HW275203  11.892  13.855   4.066
57791SOL     OW75204   7.958   7.609   5.801
57791SOL    HW175205   7.892   7.549   5.768
57791SOL    HW275206   8.002   7.643   5.723
57792SOL     OW75207   7.452   4.435   0.804
57792SOL    HW175208   7.404   4.459   0.883
57792SOL    HW275209   7.385   4.427   0.737
57793SOL     OW75210  14.252   3.091   8.531
57793SOL    HW175211  14.215   3.072   8.445
57793SOL    HW275212  14.186   3.146   8.574
57794SOL     OW75213   4.482   0.717  13.031
57794SOL    HW175214   4.487   0.769  12.951
57794SOL    HW275215   4.405   0.749  13.078
57795SOL     OW75216   9.190  12.205  10.037
57795SOL    HW175217   9.112  12.150  10.042
57795SOL    HW275218   9.246  12.163   9.972
57796SOL     OW75219   7.745   6.224  11.744
57796SOL    HW175220   7.791   6.223  11.828
57796SOL    HW275221   7.776   6.305  11.702
57797SOL     OW75222  14.881   4.026  12.495
57797SOL    HW175223   0.061   3.962  12.532
57797SOL    HW275224   0.009   4.103  12.550
57798SOL     OW75225   2.982   5.715   7.846
57798SOL    HW175226   3.045   5.756   7.905
57798SOL    HW275227   2.897   5.734   7.885
57799SOL     OW75228   1.974   2.878   9.796
57799SOL    HW175229   2.031   2.804   9.774
57799SOL    HW275230   2.010   2.951   9.745
57800SOL     OW75231   4.118   9.106   4.418
57800SOL    HW175232   4.109   9.194   4.381
57800SOL    HW275233   4.051   9.101   4.486
57801SOL     OW75234   4.868   4.199   3.812
57801SOL    HW175235   4.915   4.267   3.860
57801SOL    HW275236   4.809   4.160   3.877
57802SOL     OW75237   4.753   6.625   6.612
57802SOL    HW175238   4.781   6.567   6.542
57802SOL    HW275239   4.669   6.660   6.582
57803SOL     OW75240   0.740   2.162   1.098
57803SOL    HW175241   0.650   2.152   1.129
57803SOL    HW275242   0.730   2.192   1.008
57804SOL     OW75243   5.538  13.348   8.722
57804SOL    HW175244   5.470  13.282   8.736
57804SOL    HW275245   5.601  13.305   8.663
57805SOL     OW75246  12.170  11.327   3.684
57805SOL    HW175247  12.097  11.346   3.625
57805SOL    HW275248  12.136  11.346   3.772
57806SOL     OW75249  11.848   1.094   6.729
57806SOL    HW175250  11.891   1.069   6.647
57806SOL    HW275251  11.771   1.144   6.701
57807SOL     OW75252   5.196  14.625   5.153
57807SOL    HW175253   5.144  14.697   5.119
57807SOL    HW275254   5.133  14.568   5.197
57808SOL     OW75255  12.459  11.531   1.437
57808SOL    HW175256  12.454  11.596   1.507
57808SOL    HW275257  12.440  11.580   1.357
57809SOL     OW75258  11.825   8.154  13.741
57809SOL    HW175259  11.808   8.241  13.778
57809SOL    HW275260  11.905   8.125  13.785
57810SOL     OW75261  14.641   5.697   6.105
57810SOL    HW175262  14.695   5.619   6.094
57810SOL    HW275263  14.552   5.664   6.117
57811SOL     OW75264  10.142  12.630  13.228
57811SOL    HW175265  10.094  12.713  13.222
57811SOL    HW275266  10.116  12.593  13.312
57812SOL     OW75267  11.157   4.461   8.015
57812SOL    HW175268  11.211   4.529   7.976
57812SOL    HW275269  11.217   4.387   8.028
57813SOL     OW75270   1.593  13.587  12.672
57813SOL    HW175271   1.520  13.648  12.667
57813SOL    HW275272   1.555  13.505  12.702
57814SOL     OW75273  14.546  12.999  12.686
57814SOL    HW175274  14.546  13.035  12.774
57814SOL    HW275275  14.594  12.917  12.694
57815SOL     OW75276   2.204   8.945  10.345
57815SOL    HW175277   2.292   8.936  10.382
57815SOL    HW275278   2.172   9.028  10.380
57816SOL     OW75279   8.094  12.655  12.819
57816SOL    HW175280   8.130  12.640  12.906
57816SOL    HW275281   8.059  12.569  12.793
57817SOL     OW75282  13.681  14.868   7.554
57817SOL    HW175283  13.602  14.875   7.607
57817SOL    HW275284  13.748   0.033   7.605
57818SOL     OW75285   0.654  11.507   8.616
57818SOL    HW175286   0.734  11.480   8.569
57818SOL    HW275287   0.588  11.516   8.547
57819SOL     OW75288  11.853   5.595   4.345
57819SOL    HW175289  11.885   5.506   4.355
57819SOL    HW275290  11.907   5.632   4.275
57820SOL     OW75291   6.567  14.207   6.239
57820SOL    HW175292   6.582  14.197   6.333
57820SOL    HW275293   6.639  14.263   6.209
57821SOL     OW75294   7.521   5.486  10.620
57821SOL    HW175295   7.499   5.550  10.688
57821SOL    HW275296   7.446   5.427  10.617
57822SOL     OW75297   4.986   5.063  12.834
57822SOL    HW175298   4.901   5.058  12.792
57822SOL    HW275299   5.021   4.974  12.830
57823SOL     OW75300   8.960   4.032  12.203
57823SOL    HW175301   8.874   4.011  12.240
57823SOL    HW275302   8.943   4.047  12.110
57824SOL     OW75303   5.090   6.597  12.349
57824SOL    HW175304   5.030   6.625  12.280
57824SOL    HW275305   5.043   6.616  12.430
57825SOL     OW75306   4.051   6.819   1.238
57825SOL    HW175307   3.982   6.803   1.173
57825SOL    HW275308   4.007   6.811   1.322
57826SOL     OW75309   8.030  11.500   0.508
57826SOL    HW175310   7.954  11.526   0.559
57826SOL    HW275311   7.994  11.458   0.430
57827SOL     OW75312  10.275   4.789   3.135
57827SOL    HW175313  10.271   4.866   3.190
57827SOL    HW275314  10.332   4.813   3.063
57828SOL     OW75315   9.247  10.555   0.771
57828SOL    HW175316   9.198  10.607   0.708
57828SOL    HW275317   9.181  10.500   0.814
57829SOL     OW75318   2.084   5.954   4.793
57829SOL    HW175319   2.091   5.869   4.749
57829SOL    HW275320   2.174   5.976   4.816
57830SOL     OW75321  12.167   5.303  10.785
57830SOL    HW175322  12.241   5.257  10.825
57830SOL    HW275323  12.094   5.285  10.844
57831SOL     OW75324  13.146   5.185   4.142
57831SOL    HW175325  13.168   5.121   4.210
57831SOL    HW275326  13.231   5.216   4.111
57832SOL     OW75327  13.105   6.402  10.654
57832SOL    HW175328  13.187   6.444  10.626
57832SOL    HW275329  13.124   6.308  10.649
57833SOL     OW75330  10.194   0.666   9.289
57833SOL    HW175331  10.286   0.644   9.272
57833SOL    HW275332  10.180   0.748   9.242
57834SOL     OW75333  11.598   4.409   8.248
57834SOL    HW175334  11.605   4.384   8.155
57834SOL    HW275335  11.507   4.390   8.271
57835SOL     OW75336  11.483   5.262  13.890
57835SOL    HW175337  11.513   5.315  13.817
57835SOL    HW275338  11.448   5.183  13.849
57836SOL     OW75339  11.028   6.073   3.527
57836SOL    HW175340  11.046   6.099   3.617
57836SOL    HW275341  10.966   6.138   3.495
57837SOL     OW75342  12.534   9.278  13.791
57837SOL    HW175343  12.588   9.313  13.720
57837SOL    HW275344  12.569   9.319  13.871
57838SOL     OW75345   2.456  12.780   2.344
57838SOL    HW175346   2.551  12.791   2.351
57838SOL    HW275347   2.423  12.799   2.432
57839SOL     OW75348   7.155   0.541  11.468
57839SOL    HW175349   7.185   0.610  11.409
57839SOL    HW275350   7.113   0.476  11.410
57840SOL     OW75351   1.022   7.463   2.156
57840SOL    HW175352   0.965   7.540   2.157
57840SOL    HW275353   0.971   7.396   2.110
57841SOL     OW75354   4.397   8.653  11.899
57841SOL    HW175355   4.352   8.738  11.898
57841SOL    HW275356   4.348   8.600  11.837
57842SOL     OW75357   3.184   1.537   3.649
57842SOL    HW175358   3.223   1.466   3.597
57842SOL    HW275359   3.257   1.574   3.698
57843SOL     OW75360  12.694   1.815   9.918
57843SOL    HW175361  12.606   1.788   9.947
57843SOL    HW275362  12.744   1.823   9.999
57844SOL     OW75363   5.697   6.750   0.575
57844SOL    HW175364   5.739   6.736   0.660
57844SOL    HW275365   5.734   6.681   0.519
57845SOL     OW75366   5.063   1.738   0.055
57845SOL    HW175367   4.982   1.723   0.105
57845SOL    HW275368   5.128   1.761   0.121
57846SOL     OW75369  12.516   4.033   3.478
57846SOL    HW175370  12.453   4.043   3.406
57846SOL    HW275371  12.517   3.939   3.496
57847SOL     OW75372  14.075   3.454   4.636
57847SOL    HW175373  14.165   3.436   4.610
57847SOL    HW275374  14.024   3.384   4.596
57848SOL     OW75375   4.469   4.892  11.222
57848SOL    HW175376   4.501   4.845  11.299
57848SOL    HW275377   4.435   4.823  11.165
57849SOL     OW75378  12.232   6.936   4.004
57849SOL    HW175379  12.157   6.944   3.945
57849SOL    HW275380  12.297   6.888   3.954
57850SOL     OW75381  11.182   5.903  11.321
57850SOL    HW175382  11.200   5.852  11.242
57850SOL    HW275383  11.088   5.888  11.337
57851SOL     OW75384   6.277   5.908   2.319
57851SOL    HW175385   6.303   5.847   2.388
57851SOL    HW275386   6.233   5.980   2.365
57852SOL     OW75387   9.580   8.203   4.030
57852SOL    HW175388   9.506   8.263   4.042
57852SOL    HW275389   9.613   8.222   3.943
57853SOL     OW75390   1.126  10.657  14.646
57853SOL    HW175391   1.123  10.657  14.742
57853SOL    HW275392   1.089  10.573  14.620
57854SOL     OW75393   6.017   4.931  10.332
57854SOL    HW175394   6.112   4.924  10.342
57854SOL    HW275395   5.993   4.857  10.276
57855SOL     OW75396  13.154  10.144   6.262
57855SOL    HW175397  13.132  10.157   6.354
57855SOL    HW275398  13.186  10.054   6.258
57856SOL     OW75399  12.506   3.436   2.137
57856SOL    HW175400  12.432   3.464   2.084
57856SOL    HW275401  12.563   3.389   2.076
57857SOL     OW75402  12.276   0.385   7.372
57857SOL    HW175403  12.221   0.413   7.298
57857SOL    HW275404  12.365   0.385   7.336
57858SOL     OW75405   1.158   6.131   7.339
57858SOL    HW175406   1.231   6.100   7.285
57858SOL    HW275407   1.096   6.168   7.277
57859SOL     OW75408   9.042   0.609  10.021
57859SOL    HW175409   8.979   0.635   9.953
57859SOL    HW275410   9.046   0.513  10.014
57860SOL     OW75411   8.727  11.329   8.866
57860SOL    HW175412   8.737  11.423   8.882
57860SOL    HW275413   8.813  11.292   8.883
57861SOL     OW75414   2.830   8.931   8.208
57861SOL    HW175415   2.742   8.944   8.174
57861SOL    HW275416   2.825   8.957   8.300
57862SOL     OW75417  10.504   2.757  13.303
57862SOL    HW175418  10.445   2.832  13.317
57862SOL    HW275419  10.582   2.795  13.263
57863SOL     OW75420  12.257  11.142   0.803
57863SOL    HW175421  12.343  11.100   0.800
57863SOL    HW275422  12.242  11.172   0.713
57864SOL     OW75423   1.020   0.907   0.577
57864SOL    HW175424   0.934   0.920   0.617
57864SOL    HW275425   1.026   0.813   0.560
57865SOL     OW75426  13.363   5.653   0.206
57865SOL    HW175427  13.453   5.626   0.225
57865SOL    HW275428  13.370   5.708   0.129
57866SOL     OW75429   3.476  13.679   7.501
57866SOL    HW175430   3.400  13.622   7.488
57866SOL    HW275431   3.511  13.652   7.586
57867SOL     OW75432  11.454   2.817  11.992
57867SOL    HW175433  11.503   2.824  11.911
57867SOL    HW275434  11.447   2.723  12.009
57868SOL     OW75435  12.272  13.421   0.111
57868SOL    HW175436  12.294  13.348   0.169
57868SOL    HW275437  12.356  13.462   0.091
57869SOL     OW75438   0.321   5.080   1.555
57869SOL    HW175439   0.239   5.127   1.568
57869SOL    HW275440   0.293   4.991   1.532
57870SOL     OW75441   1.611   0.256   7.230
57870SOL    HW175442   1.694   0.279   7.188
57870SOL    HW275443   1.545   0.302   7.179
57871SOL     OW75444   2.710   1.426  13.658
57871SOL    HW175445   2.777   1.455  13.720
57871SOL    HW275446   2.741   1.340  13.629
57872SOL     OW75447   2.452   0.776  11.989
57872SOL    HW175448   2.491   0.817  12.066
57872SOL    HW275449   2.523   0.723  11.952
57873SOL     OW75450  13.313  12.704   7.657
57873SOL    HW175451  13.323  12.744   7.743
57873SOL    HW275452  13.395  12.723   7.612
57874SOL     OW75453  14.038  14.095  10.847
57874SOL    HW175454  13.997  14.009  10.858
57874SOL    HW275455  14.063  14.099  10.755
57875SOL     OW75456   0.734  13.415   1.125
57875SOL    HW175457   0.729  13.355   1.051
57875SOL    HW275458   0.681  13.373   1.193
57876SOL     OW75459   1.192  10.536  12.995
57876SOL    HW175460   1.114  10.585  12.972
57876SOL    HW275461   1.259  10.568  12.935
57877SOL     OW75462  12.260  12.677   2.407
57877SOL    HW175463  12.220  12.703   2.324
57877SOL    HW275464  12.227  12.588   2.423
57878SOL     OW75465   6.733  10.382  14.828
57878SOL    HW175466   6.700  10.446  14.765
57878SOL    HW275467   6.822  10.363  14.799
57879SOL     OW75468   1.957   0.612  10.668
57879SOL    HW175469   1.909   0.535  10.637
57879SOL    HW275470   2.044   0.579  10.688
57880SOL     OW75471   0.021   7.162  13.127
57880SOL    HW175472   0.063   7.174  13.042
57880SOL    HW275473   0.022   7.250  13.166
57881SOL     OW75474   0.365  12.475  13.282
57881SOL    HW175475   0.457  12.494  13.300
57881SOL    HW275476   0.320  12.490  13.365
57882SOL     OW75477  11.479   8.189   7.552
57882SOL    HW175478  11.483   8.273   7.598
57882SOL    HW275479  11.424   8.205   7.476
57883SOL     OW75480   0.698   4.807   6.922
57883SOL    HW175481   0.604   4.816   6.911
57883SOL    HW275482   0.736   4.838   6.840
57884SOL     OW75483   9.174   4.161   2.794
57884SOL    HW175484   9.104   4.197   2.850
57884SOL    HW275485   9.135   4.082   2.756
57885SOL     OW75486  13.950  14.651   4.958
57885SOL    HW175487  13.910  14.662   5.045
57885SOL    HW275488  13.980  14.560   4.958
57886SOL     OW75489  10.411  11.486   0.014
57886SOL    HW175490  10.350  11.419   0.045
57886SOL    HW275491  10.386  11.565   0.062
57887SOL     OW75492   0.976  10.286   9.509
57887SOL    HW175493   0.955  10.247   9.594
57887SOL    HW275494   0.923  10.366   9.505
57888SOL     OW75495   3.637   3.955   9.984
57888SOL    HW175496   3.616   4.047   9.998
57888SOL    HW275497   3.639   3.917  10.072
57889SOL     OW75498   0.169   0.370  11.684
57889SOL    HW175499   0.211   0.440  11.735
57889SOL    HW275500   0.198   0.386  11.594
57890SOL     OW75501   1.168   8.319   8.856
57890SOL    HW175502   1.168   8.414   8.864
57890SOL    HW275503   1.220   8.301   8.779
57891SOL     OW75504   8.869  14.423   0.908
57891SOL    HW175505   8.781  14.409   0.873
57891SOL    HW275506   8.902  14.335   0.924
57892SOL     OW75507   0.156  12.452   5.237
57892SOL    HW175508   0.250  12.434   5.231
57892SOL    HW275509   0.138  12.506   5.160
57893SOL     OW75510   6.660   8.976   9.954
57893SOL    HW175511   6.595   8.978   9.884
57893SOL    HW275512   6.663   8.885   9.982
57894SOL     OW75513  12.142   7.450   7.847
57894SOL    HW175514  12.093   7.379   7.806
57894SOL    HW275515  12.233   7.429   7.831
57895SOL     OW75516  12.483  10.041   3.632
57895SOL    HW175517  12.550   9.993   3.681
57895SOL    HW275518  12.403   9.990   3.644
57896SOL     OW75519   5.597   1.214  14.687
57896SOL    HW175520   5.594   1.309  14.675
57896SOL    HW275521   5.684   1.188  14.658
57897SOL     OW75522   6.325   4.612   6.261
57897SOL    HW175523   6.318   4.663   6.342
57897SOL    HW275524   6.266   4.538   6.274
57898SOL     OW75525   5.383   0.191   5.206
57898SOL    HW175526   5.461   0.196   5.151
57898SOL    HW275527   5.386   0.270   5.260
57899SOL     OW75528   4.315  11.270   1.680
57899SOL    HW175529   4.264  11.295   1.757
57899SOL    HW275530   4.253  11.221   1.626
57900SOL     OW75531  14.511  13.079   9.823
57900SOL    HW175532  14.434  13.045   9.868
57900SOL    HW275533  14.548  13.004   9.778
57901SOL     OW75534   2.131   0.928  14.063
57901SOL    HW175535   2.201   0.954  14.004
57901SOL    HW275536   2.097   0.847  14.026
57902SOL     OW75537  13.238   6.423   5.678
57902SOL    HW175538  13.208   6.375   5.601
57902SOL    HW275539  13.210   6.513   5.663
57903SOL     OW75540   8.742   7.535   7.856
57903SOL    HW175541   8.725   7.459   7.800
57903SOL    HW275542   8.789   7.500   7.931
57904SOL     OW75543   4.802   1.825   8.292
57904SOL    HW175544   4.876   1.766   8.306
57904SOL    HW275545   4.736   1.771   8.248
57905SOL     OW75546   1.887  14.269   1.577
57905SOL    HW175547   1.905  14.228   1.493
57905SOL    HW275548   1.878  14.362   1.557
57906SOL     OW75549   7.116  13.313  14.368
57906SOL    HW175550   7.157  13.239  14.413
57906SOL    HW275551   7.029  13.281  14.342
57907SOL     OW75552   3.054   2.804  11.396
57907SOL    HW175553   3.124   2.827  11.457
57907SOL    HW275554   3.029   2.715  11.420
57908SOL     OW75555   5.926   4.088   3.834
57908SOL    HW175556   5.920   4.158   3.769
57908SOL    HW275557   6.012   4.049   3.820
57909SOL     OW75558   2.344   7.607  10.039
57909SOL    HW175559   2.334   7.587  10.132
57909SOL    HW275560   2.258   7.591  10.002
57910SOL     OW75561   5.002   3.704  13.671
57910SOL    HW175562   5.078   3.763  13.669
57910SOL    HW275563   4.927   3.763  13.677
57911SOL     OW75564   6.251  10.740   2.362
57911SOL    HW175565   6.297  10.746   2.279
57911SOL    HW275566   6.189  10.814   2.361
57912SOL     OW75567  12.902  10.423   1.347
57912SOL    HW175568  12.977  10.376   1.310
57912SOL    HW275569  12.900  10.506   1.299
57913SOL     OW75570   8.240  14.383   9.737
57913SOL    HW175571   8.194  14.377   9.653
57913SOL    HW275572   8.272  14.295   9.753
57914SOL     OW75573   7.021  10.951   0.488
57914SOL    HW175574   7.101  10.910   0.522
57914SOL    HW275575   6.954  10.929   0.553
57915SOL     OW75576  11.883  13.665  10.357
57915SOL    HW175577  11.821  13.735  10.335
57915SOL    HW275578  11.857  13.637  10.445
57916SOL     OW75579   9.243  14.811   7.108
57916SOL    HW175580   9.215  14.777   7.023
57916SOL    HW275581   9.338  14.817   7.102
57917SOL     OW75582   1.987   1.850   8.599
57917SOL    HW175583   1.902   1.881   8.630
57917SOL    HW275584   1.983   1.755   8.609
57918SOL     OW75585   0.323   9.065  11.800
57918SOL    HW175586   0.419   9.063  11.810
57918SOL    HW275587   0.290   9.069  11.890
57919SOL     OW75588  14.159   2.349   7.881
57919SOL    HW175589  14.251   2.374   7.876
57919SOL    HW275590  14.124   2.398   7.955
57920SOL     OW75591   1.396   7.301  14.453
57920SOL    HW175592   1.470   7.343  14.496
57920SOL    HW275593   1.432   7.263  14.373
57921SOL     OW75594   9.183   3.766  12.319
57921SOL    HW175595   9.262   3.812  12.349
57921SOL    HW275596   9.206   3.673  12.327
57922SOL     OW75597   9.201  13.014  11.202
57922SOL    HW175598   9.177  13.008  11.109
57922SOL    HW275599   9.295  12.996  11.204
57923SOL     OW75600   0.179  11.732   9.899
57923SOL    HW175601   0.179  11.826   9.918
57923SOL    HW275602   0.213  11.725   9.810
57924SOL     OW75603   7.083   0.745  12.110
57924SOL    HW175604   7.051   0.802  12.040
57924SOL    HW275605   7.165   0.786  12.139
57925SOL     OW75606   5.608  10.882   3.417
57925SOL    HW175607   5.605  10.939   3.340
57925SOL    HW275608   5.700  10.856   3.424
57926SOL     OW75609   0.615   9.986   0.539
57926SOL    HW175610   0.691   9.973   0.595
57926SOL    HW275611   0.545  10.013   0.599
57927SOL     OW75612   9.720   0.445   1.413
57927SOL    HW175613   9.791   0.479   1.468
57927SOL    HW275614   9.650   0.510   1.421
57928SOL     OW75615  12.672   9.219  11.099
57928SOL    HW175616  12.709   9.288  11.154
57928SOL    HW275617  12.699   9.242  11.010
57929SOL     OW75618  13.897   4.735   8.621
57929SOL    HW175619  13.832   4.785   8.670
57929SOL    HW275620  13.979   4.748   8.668
57930SOL     OW75621   8.758  12.069   2.900
57930SOL    HW175622   8.673  12.028   2.888
57930SOL    HW275623   8.760  12.139   2.835
57931SOL     OW75624   7.608   8.122  11.041
57931SOL    HW175625   7.620   8.027  11.034
57931SOL    HW275626   7.527   8.140  10.992
57932SOL     OW75627   3.193  11.359   5.119
57932SOL    HW175628   3.098  11.361   5.133
57932SOL    HW275629   3.219  11.270   5.143
57933SOL     OW75630  14.878   9.913  11.778
57933SOL    HW175631   0.055   9.960  11.720
57933SOL    HW275632  14.806   9.974  11.795
57934SOL     OW75633   3.442  11.324  14.459
57934SOL    HW175634   3.517  11.330  14.518
57934SOL    HW275635   3.365  11.333  14.517
57935SOL     OW75636   4.476   9.432   6.609
57935SOL    HW175637   4.386   9.400   6.620
57935SOL    HW275638   4.510   9.384   6.534
57936SOL     OW75639   4.510   0.289   5.231
57936SOL    HW175640   4.438   0.350   5.244
57936SOL    HW275641   4.468   0.205   5.212
57937SOL     OW75642   7.710   6.064   6.847
57937SOL    HW175643   7.661   5.994   6.889
57937SOL    HW275644   7.654   6.141   6.855
57938SOL     OW75645   2.767  11.043  13.810
57938SOL    HW175646   2.800  11.132  13.804
57938SOL    HW275647   2.759  11.026  13.904
57939SOL     OW75648   9.728   1.578   1.027
57939SOL    HW175649   9.722   1.570   0.932
57939SOL    HW275650   9.763   1.493   1.056
57940SOL     OW75651  10.340  12.278   4.839
57940SOL    HW175652  10.332  12.282   4.934
57940SOL    HW275653  10.275  12.214   4.811
57941SOL     OW75654  12.043   0.348  10.393
57941SOL    HW175655  12.110   0.320  10.455
57941SOL    HW275656  11.960   0.332  10.438
57942SOL     OW75657  12.607   8.313   0.836
57942SOL    HW175658  12.542   8.346   0.899
57942SOL    HW275659  12.559   8.248   0.785
57943SOL     OW75660  13.053  11.014   5.140
57943SOL    HW175661  13.087  11.103   5.154
57943SOL    HW275662  12.959  11.021   5.155
57944SOL     OW75663   6.604   5.382  10.610
57944SOL    HW175664   6.596   5.298  10.565
57944SOL    HW275665   6.695   5.386  10.639
57945SOL     OW75666   3.744  14.328  11.466
57945SOL    HW175667   3.832  14.345  11.498
57945SOL    HW275668   3.690  14.321  11.545
57946SOL     OW75669   9.196   0.490  12.546
57946SOL    HW175670   9.268   0.514  12.603
57946SOL    HW275671   9.165   0.574  12.510
57947SOL     OW75672   5.338  13.942  12.018
57947SOL    HW175673   5.300  14.006  12.078
57947SOL    HW275674   5.331  13.982  11.932
57948SOL     OW75675   6.484   8.588   6.122
57948SOL    HW175676   6.409   8.579   6.062
57948SOL    HW275677   6.511   8.498   6.141
57949SOL     OW75678   6.571  13.647   9.988
57949SOL    HW175679   6.489  13.610  10.022
57949SOL    HW275680   6.609  13.576   9.937
57950SOL     OW75681   4.963  14.604   3.455
57950SOL    HW175682   4.916  14.527   3.489
57950SOL    HW275683   5.051  14.571   3.436
57951SOL     OW75684  12.544   7.330   7.090
57951SOL    HW175685  12.518   7.341   6.998
57951SOL    HW275686  12.584   7.243   7.093
57952SOL     OW75687  14.050   1.341   0.341
57952SOL    HW175688  14.132   1.346   0.390
57952SOL    HW275689  13.989   1.298   0.401
57953SOL     OW75690   4.231   4.661  14.628
57953SOL    HW175691   4.190   4.612  14.556
57953SOL    HW275692   4.218   4.605  14.705
57954SOL     OW75693  13.547   1.528  13.643
57954SOL    HW175694  13.549   1.604  13.701
57954SOL    HW275695  13.530   1.564  13.556
57955SOL     OW75696   1.938   5.602   9.573
57955SOL    HW175697   1.926   5.677   9.515
57955SOL    HW275698   1.849   5.576   9.598
57956SOL     OW75699   1.042  10.751   1.312
57956SOL    HW175700   1.105  10.713   1.372
57956SOL    HW275701   1.092  10.816   1.262
57957SOL     OW75702   3.452  11.892  10.297
57957SOL    HW175703   3.440  11.828  10.227
57957SOL    HW275704   3.386  11.869  10.363
57958SOL     OW75705   3.946   1.463  13.591
57958SOL    HW175706   3.902   1.393  13.640
57958SOL    HW275707   3.979   1.419  13.512
57959SOL     OW75708   8.559  11.788  12.451
57959SOL    HW175709   8.605  11.796  12.367
57959SOL    HW275710   8.478  11.837  12.438
57960SOL     OW75711   2.362  11.725   2.208
57960SOL    HW175712   2.417  11.662   2.255
57960SOL    HW275713   2.378  11.808   2.253
57961SOL     OW75714   9.190   6.693  10.522
57961SOL    HW175715   9.170   6.668  10.431
57961SOL    HW275716   9.211   6.787  10.516
57962SOL     OW75717  12.904   1.187  13.103
57962SOL    HW175718  12.920   1.141  13.186
57962SOL    HW275719  12.966   1.260  13.104
57963SOL     OW75720   0.476   6.985   5.029
57963SOL    HW175721   0.443   7.071   5.003
57963SOL    HW275722   0.399   6.937   5.059
57964SOL     OW75723   8.982   4.865  12.880
57964SOL    HW175724   8.897   4.903  12.900
57964SOL    HW275725   8.966   4.808  12.805
57965SOL     OW75726  14.188   4.144   7.850
57965SOL    HW175727  14.240   4.215   7.889
57965SOL    HW275728  14.126   4.120   7.919
57966SOL     OW75729   4.945   9.750   0.932
57966SOL    HW175730   4.917   9.699   1.008
57966SOL    HW275731   4.882   9.822   0.927
57967SOL     OW75732   6.373  10.315  12.813
57967SOL    HW175733   6.324  10.397  12.822
57967SOL    HW275734   6.373  10.278  12.901
57968SOL     OW75735   3.733  13.527   7.280
57968SOL    HW175736   3.807  13.587   7.287
57968SOL    HW275737   3.767  13.442   7.304
57969SOL     OW75738   8.597   2.740   9.768
57969SOL    HW175739   8.597   2.652   9.731
57969SOL    HW275740   8.511   2.748   9.810
57970SOL     OW75741   3.941   5.645  10.243
57970SOL    HW175742   3.850   5.644  10.272
57970SOL    HW275743   3.955   5.733  10.208
57971SOL     OW75744   2.858  14.792   8.957
57971SOL    HW175745   2.802  14.768   8.884
57971SOL    HW275746   2.804  14.776   9.035
57972SOL     OW75747  10.520   5.993   1.066
57972SOL    HW175748  10.599   5.956   1.026
57972SOL    HW275749  10.470   5.918   1.096
57973SOL     OW75750   8.293   8.405  14.593
57973SOL    HW175751   8.267   8.319  14.561
57973SOL    HW275752   8.310   8.456  14.514
57974SOL     OW75753  11.597   1.960  11.417
57974SOL    HW175754  11.537   2.027  11.447
57974SOL    HW275755  11.684   1.995  11.436
57975SOL     OW75756  11.418  11.310   7.741
57975SOL    HW175757  11.450  11.221   7.725
57975SOL    HW275758  11.396  11.343   7.654
57976SOL     OW75759  14.814   6.255   6.497
57976SOL    HW175760  14.816   6.311   6.419
57976SOL    HW275761   0.019   6.214   6.500
57977SOL     OW75762   4.919  13.080   4.740
57977SOL    HW175763   4.869  13.003   4.768
57977SOL    HW275764   4.972  13.050   4.667
57978SOL     OW75765   3.923  12.997  10.229
57978SOL    HW175766   3.935  13.091  10.231
57978SOL    HW275767   3.868  12.978  10.305
57979SOL     OW75768   8.292   1.961   9.918
57979SOL    HW175769   8.274   2.055   9.925
57979SOL    HW275770   8.346   1.942   9.995
57980SOL     OW75771  10.666   4.845   5.908
57980SOL    HW175772  10.672   4.750   5.907
57980SOL    HW275773  10.636   4.867   5.996
57981SOL     OW75774   7.898   3.207   1.563
57981SOL    HW175775   7.902   3.165   1.649
57981SOL    HW275776   7.918   3.299   1.581
57982SOL     OW75777  10.877  11.358  10.307
57982SOL    HW175778  10.919  11.292  10.252
57982SOL    HW275779  10.791  11.371  10.268
57983SOL     OW75780   6.953   3.237  14.354
57983SOL    HW175781   7.009   3.237  14.432
57983SOL    HW275782   6.977   3.158  14.307
57984SOL     OW75783   6.617   9.077   3.214
57984SOL    HW175784   6.683   9.146   3.219
57984SOL    HW275785   6.561   9.104   3.140
57985SOL     OW75786   4.055   9.650   6.887
57985SOL    HW175787   4.039   9.564   6.924
57985SOL    HW275788   3.969   9.682   6.860
57986SOL     OW75789   8.001   3.955  13.912
57986SOL    HW175790   7.911   3.949  13.945
57986SOL    HW275791   8.050   3.890  13.963
57987SOL     OW75792   2.693  12.025   9.901
57987SOL    HW175793   2.702  12.116   9.870
57987SOL    HW275794   2.607  11.997   9.868
57988SOL     OW75795   7.151   6.294   0.596
57988SOL    HW175796   7.188   6.206   0.598
57988SOL    HW275797   7.139   6.313   0.503
57989SOL     OW75798   0.852  14.067  12.614
57989SOL    HW175799   0.802  14.040  12.537
57989SOL    HW275800   0.933  14.104  12.578
57990SOL     OW75801   8.266   2.486   4.672
57990SOL    HW175802   8.248   2.505   4.764
57990SOL    HW275803   8.325   2.556   4.644
57991SOL     OW75804  12.976   6.109   9.309
57991SOL    HW175805  12.962   6.018   9.337
57991SOL    HW275806  13.017   6.152   9.384
57992SOL     OW75807  11.853  13.956   0.278
57992SOL    HW175808  11.931  13.908   0.305
57992SOL    HW275809  11.821  13.998   0.358
57993SOL     OW75810  10.774  11.135   0.574
57993SOL    HW175811  10.868  11.122   0.559
57993SOL    HW275812  10.733  11.061   0.530
57994SOL     OW75813  12.120  13.738   7.300
57994SOL    HW175814  12.084  13.800   7.363
57994SOL    HW275815  12.051  13.672   7.289
57995SOL     OW75816  14.741   4.370  14.313
57995SOL    HW175817  14.696   4.439  14.362
57995SOL    HW275818  14.787   4.417  14.244
57996SOL     OW75819   0.321  13.476   4.619
57996SOL    HW175820   0.359  13.563   4.628
57996SOL    HW275821   0.270  13.463   4.699
57997SOL     OW75822   4.875  13.831  10.924
57997SOL    HW175823   4.839  13.804  11.008
57997SOL    HW275824   4.892  13.749  10.877
57998SOL     OW75825   3.059   3.023   6.703
57998SOL    HW175826   2.999   3.053   6.635
57998SOL    HW275827   3.008   3.025   6.783
57999SOL     OW75828   1.112   4.851  14.404
57999SOL    HW175829   1.171   4.791  14.359
57999SOL    HW275830   1.130   4.838  14.497
58000SOL     OW75831   6.807   4.249   9.231
58000SOL    HW175832   6.846   4.162   9.225
58000SOL    HW275833   6.830   4.291   9.148
58001SOL     OW75834   4.619   1.972  12.089
58001SOL    HW175835   4.638   1.906  12.155
58001SOL    HW275836   4.610   2.054  12.138
58002SOL     OW75837   1.572   4.133   1.285
58002SOL    HW175838   1.527   4.180   1.214
58002SOL    HW275839   1.579   4.043   1.252
58003SOL     OW75840   4.609   7.583   8.001
58003SOL    HW175841   4.624   7.650   8.068
58003SOL    HW275842   4.691   7.535   7.996
58004SOL     OW75843   0.368  12.038   1.847
58004SOL    HW175844   0.452  12.018   1.807
58004SOL    HW275845   0.389  12.070   1.935
58005SOL     OW75846   6.742   1.088   6.648
58005SOL    HW175847   6.675   1.142   6.690
58005SOL    HW275848   6.722   0.999   6.675
58006SOL     OW75849  11.397   4.287   8.014
58006SOL    HW175850  11.487   4.319   8.006
58006SOL    HW275851  11.403   4.194   7.994
58007SOL     OW75852   9.509   7.327  10.180
58007SOL    HW175853   9.560   7.377  10.116
58007SOL    HW275854   9.552   7.347  10.264
58008SOL     OW75855   7.669   7.949   7.741
58008SOL    HW175856   7.652   7.887   7.812
58008SOL    HW275857   7.587   7.998   7.731
58009SOL     OW75858   6.449   9.734   1.238
58009SOL    HW175859   6.373   9.677   1.249
58009SOL    HW275860   6.477   9.754   1.328
58010SOL     OW75861   0.376   2.916  13.425
58010SOL    HW175862   0.417   2.835  13.394
58010SOL    HW275863   0.335   2.952  13.346
58011SOL     OW75864   5.992   1.305   0.337
58011SOL    HW175865   6.083   1.278   0.343
58011SOL    HW275866   5.986   1.352   0.254
58012SOL     OW75867   4.343   3.645   2.810
58012SOL    HW175868   4.280   3.621   2.742
58012SOL    HW275869   4.300   3.625   2.892
58013SOL     OW75870   2.229   4.724  11.963
58013SOL    HW175871   2.301   4.785  11.943
58013SOL    HW275872   2.258   4.641  11.924
58014SOL     OW75873   7.874   7.832   8.323
58014SOL    HW175874   7.842   7.915   8.285
58014SOL    HW275875   7.805   7.805   8.383
58015SOL     OW75876   5.922   4.864   9.508
58015SOL    HW175877   5.990   4.831   9.449
58015SOL    HW275878   5.847   4.808   9.491
58016SOL     OW75879   9.165   6.689   7.011
58016SOL    HW175880   9.185   6.752   6.942
58016SOL    HW275881   9.079   6.654   6.987
58017SOL     OW75882  13.479  10.001   1.697
58017SOL    HW175883  13.395   9.973   1.733
58017SOL    HW275884  13.479   9.965   1.608
58018SOL     OW75885   4.744   8.850   2.730
58018SOL    HW175886   4.707   8.875   2.814
58018SOL    HW275887   4.669   8.828   2.676
58019SOL     OW75888   4.269   3.850   6.334
58019SOL    HW175889   4.283   3.802   6.252
58019SOL    HW275890   4.244   3.782   6.397
58020SOL     OW75891  11.797   5.500   1.541
58020SOL    HW175892  11.714   5.491   1.494
58020SOL    HW275893  11.848   5.423   1.514
58021SOL     OW75894   5.486   4.700  11.963
58021SOL    HW175895   5.547   4.748  11.907
58021SOL    HW275896   5.417   4.762  11.984
58022SOL     OW75897   5.786  11.441   5.640
58022SOL    HW175898   5.799  11.432   5.735
58022SOL    HW275899   5.850  11.508   5.614
58023SOL     OW75900  12.551   5.037   8.289
58023SOL    HW175901  12.531   5.131   8.284
58023SOL    HW275902  12.521   5.001   8.206
58024SOL     OW75903   6.303   6.038   2.866
58024SOL    HW175904   6.364   5.968   2.845
58024SOL    HW275905   6.275   6.020   2.955
58025SOL     OW75906   1.890   3.249   6.997
58025SOL    HW175907   1.954   3.190   7.035
58025SOL    HW275908   1.825   3.262   7.066
58026SOL     OW75909   0.307   4.962  12.775
58026SOL    HW175910   0.374   5.018  12.736
58026SOL    HW275911   0.241   5.022  12.808
58027SOL     OW75912   5.250  12.891   8.346
58027SOL    HW175913   5.239  12.919   8.437
58027SOL    HW275914   5.161  12.887   8.311
58028SOL     OW75915  13.165  10.863   9.733
58028SOL    HW175916  13.174  10.771   9.709
58028SOL    HW275917  13.087  10.867   9.788
58029SOL     OW75918  11.084   2.619   1.668
58029SOL    HW175919  11.088   2.523   1.677
58029SOL    HW275920  11.112   2.652   1.753
58030SOL     OW75921  13.905   1.539  14.593
58030SOL    HW175922  13.840   1.605  14.616
58030SOL    HW275923  13.899   1.530  14.498
58031SOL     OW75924   1.694  12.908  13.977
58031SOL    HW175925   1.680  12.824  13.933
58031SOL    HW275926   1.683  12.889  14.070
58032SOL     OW75927  12.883   7.361   6.316
58032SOL    HW175928  12.963   7.347   6.266
58032SOL    HW275929  12.901   7.438   6.369
58033SOL     OW75930   6.296  13.816  12.477
58033SOL    HW175931   6.293  13.729  12.517
58033SOL    HW275932   6.273  13.800  12.385
58034SOL     OW75933   4.036  10.508   6.564
58034SOL    HW175934   4.108  10.446   6.567
58034SOL    HW275935   4.075  10.592   6.586
58035SOL     OW75936   8.561  11.016   2.429
58035SOL    HW175937   8.642  11.067   2.417
58035SOL    HW275938   8.491  11.081   2.426
58036SOL     OW75939   7.130   8.754  12.107
58036SOL    HW175940   7.170   8.841  12.108
58036SOL    HW275941   7.042   8.767  12.141
58037SOL     OW75942   8.782   3.517   6.442
58037SOL    HW175943   8.801   3.602   6.402
58037SOL    HW275944   8.863   3.467   6.430
58038SOL     OW75945   9.978  13.992   4.015
58038SOL    HW175946   9.987  14.087   4.025
58038SOL    HW275947  10.045  13.968   3.950
58039SOL     OW75948  10.303   1.587  14.840
58039SOL    HW175949  10.320   1.512   0.014
58039SOL    HW275950  10.236   1.557  14.779
58040SOL     OW75951   1.927   8.934   8.886
58040SOL    HW175952   1.988   8.926   8.813
58040SOL    HW275953   1.909   8.843   8.912
58041SOL     OW75954  14.475   8.284   6.717
58041SOL    HW175955  14.527   8.239   6.651
58041SOL    HW275956  14.499   8.376   6.709
58042SOL     OW75957   9.947   7.233   4.928
58042SOL    HW175958   9.935   7.154   4.981
58042SOL    HW275959   9.958   7.303   4.993
58043SOL     OW75960   3.673   0.941   5.598
58043SOL    HW175961   3.644   1.020   5.644
58043SOL    HW275962   3.667   0.871   5.663
58044SOL     OW75963  13.604   5.769  11.818
58044SOL    HW175964  13.567   5.824  11.887
58044SOL    HW275965  13.687   5.811  11.796
58045SOL     OW75966   1.310  11.162  14.794
58045SOL    HW175967   1.334  11.239  14.741
58045SOL    HW275968   1.290  11.197  14.880
58046SOL     OW75969  14.807   5.143   9.009
58046SOL    HW175970  14.830   5.217   8.953
58046SOL    HW275971  14.807   5.180   9.098
58047SOL     OW75972   3.174   1.085  13.534
58047SOL    HW175973   3.223   1.013  13.495
58047SOL    HW275974   3.229   1.116  13.606
58048SOL     OW75975   5.263  11.331   1.016
58048SOL    HW175976   5.333  11.390   1.044
58048SOL    HW275977   5.190  11.350   1.075
58049SOL     OW75978   8.707   1.414  10.338
58049SOL    HW175979   8.783   1.465  10.366
58049SOL    HW275980   8.702   1.430  10.244
58050SOL     OW75981   3.519   0.423   1.828
58050SOL    HW175982   3.471   0.396   1.906
58050SOL    HW275983   3.462   0.486   1.785
58051SOL     OW75984   3.684   9.730   4.225
58051SOL    HW175985   3.736   9.707   4.302
58051SOL    HW275986   3.739   9.705   4.150
58052SOL     OW75987  11.740   8.876  11.491
58052SOL    HW175988  11.753   8.867  11.397
58052SOL    HW275989  11.779   8.797  11.528
58053SOL     OW75990   8.847   0.494   8.572
58053SOL    HW175991   8.776   0.433   8.554
58053SOL    HW275992   8.846   0.554   8.498
58054SOL     OW75993   2.886   6.716   1.118
58054SOL    HW175994   2.876   6.680   1.030
58054SOL    HW275995   2.820   6.785   1.123
58055SOL     OW75996   6.515   9.947   4.419
58055SOL    HW175997   6.572  10.014   4.381
58055SOL    HW275998   6.564   9.914   4.494
58056SOL     OW75999   4.290  14.177  13.148
58056SOL    HW176000   4.219  14.240  13.133
58056SOL    HW276001   4.320  14.154  13.060
58057SOL     OW76002   2.949   3.170   2.572
58057SOL    HW176003   2.975   3.082   2.598
58057SOL    HW276004   3.031   3.213   2.548
58058SOL     OW76005   5.683  12.343  13.752
58058SOL    HW176006   5.660  12.322  13.662
58058SOL    HW276007   5.653  12.433  13.765
58059SOL     OW76008   7.152   5.600   0.747
58059SOL    HW176009   7.197   5.555   0.675
58059SOL    HW276010   7.221   5.647   0.793
58060SOL     OW76011   8.412   8.142   4.051
58060SOL    HW176012   8.318   8.160   4.047
58060SOL    HW276013   8.428   8.116   4.141
58061SOL     OW76014   7.416   9.089  10.189
58061SOL    HW176015   7.323   9.110  10.201
58061SOL    HW276016   7.419   8.994  10.193
58062SOL     OW76017  12.002   4.825  10.494
58062SOL    HW176018  11.916   4.831  10.451
58062SOL    HW276019  11.998   4.891  10.563
58063SOL     OW76020   0.034   7.756   2.910
58063SOL    HW176021  14.835   7.706   2.896
58063SOL    HW276022   0.093   7.725   2.841
58064SOL     OW76023  12.684  12.131   7.543
58064SOL    HW176024  12.627  12.170   7.477
58064SOL    HW276025  12.754  12.195   7.557
58065SOL     OW76026   7.007   3.065   2.179
58065SOL    HW176027   7.044   2.997   2.122
58065SOL    HW276028   7.027   3.147   2.134
58066SOL     OW76029   9.372   0.807   7.282
58066SOL    HW176030   9.391   0.825   7.190
58066SOL    HW276031   9.282   0.775   7.281
58067SOL     OW76032   6.714   6.259   8.933
58067SOL    HW176033   6.738   6.166   8.926
58067SOL    HW276034   6.658   6.275   8.857
58068SOL     OW76035  10.945  12.224   0.124
58068SOL    HW176036  10.892  12.282   0.070
58068SOL    HW276037  10.912  12.137   0.105
58069SOL     OW76038  10.264   9.199  14.272
58069SOL    HW176039  10.270   9.285  14.313
58069SOL    HW276040  10.342   9.192  14.217
58070SOL     OW76041  13.816   4.971   1.330
58070SOL    HW176042  13.806   4.945   1.422
58070SOL    HW276043  13.795   4.892   1.280
58071SOL     OW76044  10.998   9.531   2.092
58071SOL    HW176045  11.004   9.438   2.072
58071SOL    HW276046  11.028   9.538   2.182
58072SOL     OW76047   5.787   3.669   0.927
58072SOL    HW176048   5.833   3.691   1.008
58072SOL    HW276049   5.798   3.746   0.871
58073SOL     OW76050  11.336  11.168  11.007
58073SOL    HW176051  11.277  11.107  10.961
58073SOL    HW276052  11.404  11.111  11.044
58074SOL     OW76053   7.728   0.562  12.355
58074SOL    HW176054   7.647   0.552  12.305
58074SOL    HW276055   7.782   0.488  12.327
58075SOL     OW76056   3.986   9.261   0.640
58075SOL    HW176057   4.057   9.208   0.604
58075SOL    HW276058   3.964   9.322   0.569
58076SOL     OW76059   9.957   6.251   4.358
58076SOL    HW176060   9.993   6.240   4.270
58076SOL    HW276061   9.907   6.171   4.374
58077SOL     OW76062   3.362   5.837  12.417
58077SOL    HW176063   3.281   5.824  12.467
58077SOL    HW276064   3.334   5.833  12.325
58078SOL     OW76065   8.568   5.225   4.744
58078SOL    HW176066   8.657   5.242   4.712
58078SOL    HW276067   8.539   5.308   4.781
58079SOL     OW76068  11.186   1.793   5.643
58079SOL    HW176069  11.151   1.780   5.731
58079SOL    HW276070  11.281   1.781   5.652
58080SOL     OW76071   8.150  11.601   7.799
58080SOL    HW176072   8.126  11.689   7.827
58080SOL    HW276073   8.107  11.543   7.862
58081SOL     OW76074  12.753   7.397   2.452
58081SOL    HW176075  12.798   7.476   2.419
58081SOL    HW276076  12.749   7.339   2.377
58082SOL     OW76077   0.370   7.961  10.767
58082SOL    HW176078   0.455   8.002  10.748
58082SOL    HW276079   0.306   8.025  10.737
58083SOL     OW76080   4.278   1.213   9.280
58083SOL    HW176081   4.322   1.298   9.288
58083SOL    HW276082   4.254   1.190   9.370
58084SOL     OW76083  10.127  11.208   2.793
58084SOL    HW176084  10.202  11.150   2.802
58084SOL    HW276085  10.154  11.289   2.838
58085SOL     OW76086   3.313   1.904  10.527
58085SOL    HW176087   3.347   1.861  10.449
58085SOL    HW276088   3.345   1.851  10.600
58086SOL     OW76089  11.218   0.870  14.237
58086SOL    HW176090  11.187   0.832  14.320
58086SOL    HW276091  11.183   0.811  14.170
58087SOL     OW76092   5.458  12.359   6.224
58087SOL    HW176093   5.469  12.272   6.186
58087SOL    HW276094   5.514  12.359   6.301
58088SOL     OW76095  12.513   2.876   5.866
58088SOL    HW176096  12.550   2.860   5.953
58088SOL    HW276097  12.457   2.952   5.878
58089SOL     OW76098  13.840  13.099   8.176
58089SOL    HW176099  13.899  13.134   8.109
58089SOL    HW276100  13.889  13.109   8.258
58090SOL     OW76101  12.570   8.138   8.366
58090SOL    HW176102  12.554   8.131   8.460
58090SOL    HW276103  12.483   8.142   8.326
58091SOL     OW76104  10.105  10.664  10.646
58091SOL    HW176105  10.105  10.718  10.567
58091SOL    HW276106  10.193  10.628  10.651
58092SOL     OW76107  12.785   5.400   0.097
58092SOL    HW176108  12.878   5.390   0.075
58092SOL    HW276109  12.763   5.487   0.065
58093SOL     OW76110   7.176  12.413   2.431
58093SOL    HW176111   7.170  12.508   2.418
58093SOL    HW276112   7.089  12.388   2.462
58094SOL     OW76113  11.496   4.228   1.870
58094SOL    HW176114  11.461   4.314   1.847
58094SOL    HW276115  11.461   4.212   1.958
58095SOL     OW76116  14.766  12.338   9.559
58095SOL    HW176117  14.671  12.323   9.562
58095SOL    HW276118  14.785  12.384   9.640
58096SOL     OW76119   5.678  14.464   5.466
58096SOL    HW176120   5.627  14.427   5.393
58096SOL    HW276121   5.747  14.514   5.423
58097SOL     OW76122   9.567  13.983   7.971
58097SOL    HW176123   9.625  13.927   8.023
58097SOL    HW276124   9.479  13.946   7.985
58098SOL     OW76125  14.096   2.758   2.684
58098SOL    HW176126  14.032   2.801   2.628
58098SOL    HW276127  14.160   2.826   2.704
58099SOL     OW76128   5.805   9.752   4.128
58099SOL    HW176129   5.784   9.813   4.199
58099SOL    HW276130   5.901   9.751   4.125
58100SOL     OW76131   3.006  10.158  14.875
58100SOL    HW176132   2.954  10.237  14.859
58100SOL    HW276133   3.022  10.122  14.788
58101SOL     OW76134   0.542   7.751   5.784
58101SOL    HW176135   0.470   7.813   5.774
58101SOL    HW276136   0.609   7.800   5.832
58102SOL     OW76137   2.850   8.834  12.091
58102SOL    HW176138   2.810   8.802  12.172
58102SOL    HW276139   2.777   8.862  12.037
58103SOL     OW76140   4.518  10.959  12.812
58103SOL    HW176141   4.445  10.935  12.869
58103SOL    HW276142   4.539  11.049  12.835
58104SOL     OW76143   3.786   7.838   0.112
58104SOL    HW176144   3.743   7.885   0.184
58104SOL    HW276145   3.879   7.861   0.122
58105SOL     OW76146   9.394  13.024   3.414
58105SOL    HW176147   9.445  13.034   3.494
58105SOL    HW276148   9.458  13.032   3.343
58106SOL     OW76149   5.727   1.200  12.663
58106SOL    HW176150   5.726   1.282  12.713
58106SOL    HW276151   5.682   1.221  12.582
58107SOL     OW76152   3.601   9.703   1.557
58107SOL    HW176153   3.678   9.757   1.540
58107SOL    HW276154   3.569   9.732   1.642
58108SOL     OW76155   8.649   8.804   4.865
58108SOL    HW176156   8.582   8.872   4.869
58108SOL    HW276157   8.620   8.747   4.794
58109SOL     OW76158  14.362   7.816   9.521
58109SOL    HW176159  14.375   7.747   9.587
58109SOL    HW276160  14.272   7.803   9.490
58110SOL     OW76161   9.609  11.033   3.780
58110SOL    HW176162   9.527  10.984   3.773
58110SOL    HW276163   9.582  11.120   3.810
58111SOL     OW76164  10.449   0.867  12.555
58111SOL    HW176165  10.450   0.829  12.643
58111SOL    HW276166  10.542   0.877  12.532
58112SOL     OW76167   2.150  13.276   8.742
58112SOL    HW176168   2.102  13.278   8.825
58112SOL    HW276169   2.100  13.334   8.684
58113SOL     OW76170  14.488   0.862  10.097
58113SOL    HW176171  14.544   0.912  10.157
58113SOL    HW276172  14.414   0.835  10.151
58114SOL     OW76173   9.023   3.978   9.560
58114SOL    HW176174   8.973   4.056   9.535
58114SOL    HW276175   8.961   3.906   9.551
58115SOL     OW76176   0.729   2.262   9.969
58115SOL    HW176177   0.678   2.318  10.028
58115SOL    HW276178   0.760   2.191  10.024
58116SOL     OW76179   8.094   9.719   6.298
58116SOL    HW176180   8.113   9.658   6.369
58116SOL    HW276181   7.998   9.726   6.298
58117SOL     OW76182   2.566   2.758   3.343
58117SOL    HW176183   2.558   2.702   3.266
58117SOL    HW276184   2.505   2.831   3.327
58118SOL     OW76185  12.126  11.833   8.549
58118SOL    HW176186  12.096  11.909   8.500
58118SOL    HW276187  12.082  11.840   8.633
58119SOL     OW76188   0.387   1.208   3.484
58119SOL    HW176189   0.388   1.182   3.392
58119SOL    HW276190   0.298   1.190   3.513
58120SOL     OW76191   3.358   7.011   4.734
58120SOL    HW176192   3.403   7.008   4.819
58120SOL    HW276193   3.349   6.920   4.708
58121SOL     OW76194  11.700   3.011   3.022
58121SOL    HW176195  11.783   2.998   3.068
58121SOL    HW276196  11.709   2.959   2.942
58122SOL     OW76197  13.904   3.538   8.932
58122SOL    HW176198  13.883   3.452   8.969
58122SOL    HW276199  13.938   3.588   9.007
58123SOL     OW76200  14.807  10.442   4.469
58123SOL    HW176201   0.018  10.465   4.467
58123SOL    HW276202  14.765  10.503   4.408
58124SOL     OW76203  13.173  11.425   0.914
58124SOL    HW176204  13.123  11.426   0.996
58124SOL    HW276205  13.264  11.416   0.942
58125SOL     OW76206   7.688   8.305   9.226
58125SOL    HW176207   7.659   8.280   9.139
58125SOL    HW276208   7.717   8.224   9.267
58126SOL     OW76209  12.055   4.487  14.462
58126SOL    HW176210  11.976   4.467  14.512
58126SOL    HW276211  12.095   4.560  14.508
58127SOL     OW76212   0.296  12.226  14.592
58127SOL    HW176213   0.250  12.308  14.612
58127SOL    HW276214   0.347  12.207  14.670
58128SOL     OW76215  12.591   9.374  14.056
58128SOL    HW176216  12.644   9.339  14.128
58128SOL    HW276217  12.502   9.343  14.075
58129SOL     OW76218   0.263   1.117   9.885
58129SOL    HW176219   0.202   1.054   9.846
58129SOL    HW276220   0.271   1.186   9.820
58130SOL     OW76221   0.113  11.668   8.314
58130SOL    HW176222   0.022  11.658   8.286
58130SOL    HW276223   0.161  11.691   8.235
58131SOL     OW76224   9.747  11.772   6.759
58131SOL    HW176225   9.651  11.778   6.762
58131SOL    HW276226   9.776  11.862   6.750
58132SOL     OW76227  12.929   4.321   0.335
58132SOL    HW176228  12.846   4.295   0.295
58132SOL    HW276229  12.963   4.241   0.375
58133SOL     OW76230   6.086   5.096   6.937
58133SOL    HW176231   6.142   5.020   6.920
58133SOL    HW276232   6.144   5.160   6.979
58134SOL     OW76233   3.380  11.714  10.065
58134SOL    HW176234   3.424  11.655  10.127
58134SOL    HW276235   3.445  11.730   9.997
58135SOL     OW76236  12.096  12.168  12.973
58135SOL    HW176237  12.065  12.132  13.056
58135SOL    HW276238  12.052  12.252  12.965
58136SOL     OW76239   3.139  13.424  13.742
58136SOL    HW176240   3.047  13.400  13.733
58136SOL    HW276241   3.169  13.376  13.819
58137SOL     OW76242   1.596  13.768   3.242
58137SOL    HW176243   1.593  13.722   3.158
58137SOL    HW276244   1.584  13.700   3.308
58138SOL     OW76245   1.522  12.369   2.176
58138SOL    HW176246   1.615  12.348   2.178
58138SOL    HW276247   1.518  12.463   2.194
58139SOL     OW76248   2.479  13.174   7.165
58139SOL    HW176249   2.482  13.103   7.101
58139SOL    HW276250   2.468  13.130   7.249
58140SOL     OW76251  12.246  10.302   1.623
58140SOL    HW176252  12.246  10.244   1.699
58140SOL    HW276253  12.197  10.254   1.556
58141SOL     OW76254   0.485   5.441  13.728
58141SOL    HW176255   0.427   5.469  13.799
58141SOL    HW276256   0.426   5.417  13.657
58142SOL     OW76257   6.720   9.474  12.832
58142SOL    HW176258   6.780   9.448  12.902
58142SOL    HW276259   6.768   9.541  12.783
58143SOL     OW76260  14.160   4.169   9.152
58143SOL    HW176261  14.249   4.157   9.185
58143SOL    HW276262  14.172   4.188   9.059
58144SOL     OW76263   0.670  12.052  12.390
58144SOL    HW176264   0.637  11.989  12.455
58144SOL    HW276265   0.728  12.001  12.334
58145SOL     OW76266   0.920  11.739   8.326
58145SOL    HW176267   0.834  11.774   8.301
58145SOL    HW276268   0.937  11.670   8.263
58146SOL     OW76269  14.077   7.460   7.184
58146SOL    HW176270  14.162   7.476   7.144
58146SOL    HW276271  14.020   7.435   7.112
58147SOL     OW76272  10.962   3.928   7.798
58147SOL    HW176273  10.952   3.910   7.705
58147SOL    HW276274  10.961   4.023   7.805
58148SOL     OW76275  10.633  11.899   0.659
58148SOL    HW176276  10.661  11.849   0.582
58148SOL    HW276277  10.675  11.855   0.733
58149SOL     OW76278  10.792   6.544  11.497
58149SOL    HW176279  10.708   6.533  11.541
58149SOL    HW276280  10.834   6.458  11.505
58150SOL     OW76281   3.546   6.308   0.750
58150SOL    HW176282   3.609   6.329   0.681
58150SOL    HW276283   3.530   6.391   0.794
58151SOL     OW76284   0.320   2.190   5.796
58151SOL    HW176285   0.254   2.131   5.833
58151SOL    HW276286   0.401   2.139   5.799
58152SOL     OW76287   1.561   4.779  14.327
58152SOL    HW176288   1.636   4.815  14.374
58152SOL    HW276289   1.552   4.835  14.250
58153SOL     OW76290  12.335  11.286   7.304
58153SOL    HW176291  12.382  11.353   7.353
58153SOL    HW276292  12.254  11.329   7.277
58154SOL     OW76293  13.197   3.025   7.250
58154SOL    HW176294  13.265   3.057   7.309
58154SOL    HW276295  13.214   3.069   7.167
58155SOL     OW76296   9.251  13.353  13.843
58155SOL    HW176297   9.346  13.367  13.845
58155SOL    HW276298   9.222  13.398  13.763
58156SOL     OW76299  14.129   5.328   9.997
58156SOL    HW176300  14.048   5.307   9.951
58156SOL    HW276301  14.192   5.261   9.968
58157SOL     OW76302  14.213   3.153  12.967
58157SOL    HW176303  14.255   3.134  13.050
58157SOL    HW276304  14.166   3.073  12.944
58158SOL     OW76305  12.897  14.500   4.018
58158SOL    HW176306  12.979  14.460   4.049
58158SOL    HW276307  12.837  14.491   4.092
58159SOL     OW76308   3.298   4.831   1.076
58159SOL    HW176309   3.310   4.901   1.012
58159SOL    HW276310   3.245   4.766   1.031
58160SOL     OW76311  11.185  10.598  10.707
58160SOL    HW176312  11.177  10.692  10.690
58160SOL    HW276313  11.154  10.556  10.626
58161SOL     OW76314   3.909  11.797   5.446
58161SOL    HW176315   3.986  11.846   5.476
58161SOL    HW276316   3.886  11.741   5.521
58162SOL     OW76317  10.234  13.610   4.633
58162SOL    HW176318  10.186  13.558   4.697
58162SOL    HW276319  10.191  13.696   4.635
58163SOL     OW76320  13.989   3.663   2.386
58163SOL    HW176321  13.915   3.712   2.350
58163SOL    HW276322  13.949   3.601   2.447
58164SOL     OW76323   9.901   1.233   9.704
58164SOL    HW176324   9.895   1.312   9.650
58164SOL    HW276325   9.818   1.231   9.752
58165SOL     OW76326   8.234  12.591  11.999
58165SOL    HW176327   8.230  12.548  11.914
58165SOL    HW276328   8.255  12.521  12.060
58166SOL     OW76329   4.225  12.361   8.593
58166SOL    HW176330   4.263  12.405   8.669
58166SOL    HW276331   4.203  12.274   8.624
58167SOL     OW76332   9.309  13.882   7.507
58167SOL    HW176333   9.327  13.810   7.448
58167SOL    HW276334   9.362  13.955   7.474
58168SOL     OW76335   9.448   8.565   6.427
58168SOL    HW176336   9.532   8.606   6.408
58168SOL    HW276337   9.394   8.636   6.460
58169SOL     OW76338  11.259  12.305   3.043
58169SOL    HW176339  11.300  12.365   2.980
58169SOL    HW276340  11.217  12.363   3.107
58170SOL     OW76341   1.327   5.530   5.961
58170SOL    HW176342   1.396   5.556   6.023
58170SOL    HW276343   1.256   5.592   5.976
58171SOL     OW76344   9.081  14.473   3.488
58171SOL    HW176345   9.083  14.472   3.584
58171SOL    HW276346   9.071  14.565   3.466
58172SOL     OW76347  14.661   3.705   9.082
58172SOL    HW176348  14.624   3.791   9.101
58172SOL    HW276349  14.603   3.643   9.127
58173SOL     OW76350   6.974   4.682  10.944
58173SOL    HW176351   6.979   4.697  11.038
58173SOL    HW276352   6.927   4.600  10.935
58174SOL     OW76353   9.963  11.121  14.686
58174SOL    HW176354   9.917  11.202  14.663
58174SOL    HW276355  10.026  11.109  14.614
58175SOL     OW76356   2.569  11.499   0.945
58175SOL    HW176357   2.609  11.549   0.874
58175SOL    HW276358   2.568  11.560   1.019
58176SOL     OW76359  10.568   8.240  12.023
58176SOL    HW176360  10.586   8.285  12.106
58176SOL    HW276361  10.643   8.183  12.009
58177SOL     OW76362  11.576  11.463   5.549
58177SOL    HW176363  11.508  11.412   5.594
58177SOL    HW276364  11.638  11.486   5.619
58178SOL     OW76365  12.464   6.263   4.638
58178SOL    HW176366  12.408   6.288   4.711
58178SOL    HW276367  12.544   6.316   4.650
58179SOL     OW76368   2.833  13.614  11.225
58179SOL    HW176369   2.803  13.701  11.200
58179SOL    HW276370   2.801  13.556  11.155
58180SOL     OW76371   3.951   5.360   7.517
58180SOL    HW176372   3.983   5.403   7.596
58180SOL    HW276373   3.856   5.375   7.519
58181SOL     OW76374   3.954   6.956   9.374
58181SOL    HW176375   3.864   6.924   9.388
58181SOL    HW276376   3.962   7.030   9.433
58182SOL     OW76377   5.646   4.918  14.111
58182SOL    HW176378   5.717   4.973  14.146
58182SOL    HW276379   5.595   4.893  14.187
58183SOL     OW76380   8.507  11.555   0.600
58183SOL    HW176381   8.539  11.570   0.511
58183SOL    HW276382   8.436  11.491   0.589
58184SOL     OW76383   8.358  11.176   4.393
58184SOL    HW176384   8.402  11.128   4.322
58184SOL    HW276385   8.427  11.232   4.430
58185SOL     OW76386  10.449  14.589   6.533
58185SOL    HW176387  10.362  14.568   6.500
58185SOL    HW276388  10.446  14.566   6.626
58186SOL     OW76389   7.721   6.659   1.872
58186SOL    HW176390   7.787   6.713   1.915
58186SOL    HW276391   7.714   6.581   1.927
58187SOL     OW76392   7.870   4.550   9.387
58187SOL    HW176393   7.943   4.581   9.333
58187SOL    HW276394   7.856   4.460   9.359
58188SOL     OW76395   1.784   8.500  10.811
58188SOL    HW176396   1.757   8.485  10.902
58188SOL    HW276397   1.838   8.424  10.789
58189SOL     OW76398   7.822  12.459   0.988
58189SOL    HW176399   7.815  12.437   1.081
58189SOL    HW276400   7.866  12.385   0.948
58190SOL     OW76401   2.319   0.594   5.432
58190SOL    HW176402   2.387   0.548   5.481
58190SOL    HW276403   2.243   0.536   5.436
58191SOL     OW76404   4.554   8.853   9.019
58191SOL    HW176405   4.622   8.916   9.044
58191SOL    HW276406   4.574   8.834   8.927
58192SOL     OW76407   9.403   6.106  11.663
58192SOL    HW176408   9.315   6.132  11.636
58192SOL    HW276409   9.392   6.018  11.699
58193SOL     OW76410  14.201   8.864  11.028
58193SOL    HW176411  14.127   8.819  10.987
58193SOL    HW276412  14.199   8.835  11.119
58194SOL     OW76413  14.511  13.703   8.114
58194SOL    HW176414  14.589  13.736   8.159
58194SOL    HW276415  14.518  13.608   8.119
58195SOL     OW76416   8.664  10.036   3.471
58195SOL    HW176417   8.614  10.018   3.551
58195SOL    HW276418   8.705   9.952   3.450
58196SOL     OW76419   7.320   7.998  12.405
58196SOL    HW176420   7.313   7.971  12.497
58196SOL    HW276421   7.232   7.989  12.370
58197SOL     OW76422  14.557   5.768   1.343
58197SOL    HW176423  14.583   5.692   1.290
58197SOL    HW276424  14.513   5.826   1.281
58198SOL     OW76425  12.530  13.769  10.852
58198SOL    HW176426  12.523  13.705  10.781
58198SOL    HW276427  12.477  13.732  10.922
58199SOL     OW76428   1.368   3.378  11.207
58199SOL    HW176429   1.369   3.299  11.261
58199SOL    HW276430   1.318   3.441  11.259
58200SOL     OW76431  12.798  12.408  11.411
58200SOL    HW176432  12.823  12.438  11.323
58200SOL    HW276433  12.786  12.314  11.401
58201SOL     OW76434   8.718   6.528   6.743
58201SOL    HW176435   8.626   6.507   6.760
58201SOL    HW276436   8.739   6.478   6.664
58202SOL     OW76437   9.525   2.198   1.577
58202SOL    HW176438   9.469   2.210   1.501
58202SOL    HW276439   9.560   2.285   1.596
58203SOL     OW76440   9.789   0.203  11.219
58203SOL    HW176441   9.779   0.224  11.126
58203SOL    HW276442   9.710   0.152  11.240
58204SOL     OW76443   6.789  11.565  13.848
58204SOL    HW176444   6.778  11.599  13.759
58204SOL    HW276445   6.760  11.637  13.904
58205SOL     OW76446  10.882   7.681   9.840
58205SOL    HW176447  10.922   7.609   9.890
58205SOL    HW276448  10.918   7.760   9.880
58206SOL     OW76449  14.157   1.932   8.780
58206SOL    HW176450  14.160   1.893   8.693
58206SOL    HW276451  14.199   1.867   8.837
58207SOL     OW76452   0.949  13.397  12.812
58207SOL    HW176453   0.885  13.468  12.815
58207SOL    HW276454   1.033  13.441  12.826
58208SOL     OW76455  10.441   1.031  13.942
58208SOL    HW176456  10.364   1.079  13.971
58208SOL    HW276457  10.408   0.944  13.920
58209SOL     OW76458   8.151   3.388   8.761
58209SOL    HW176459   8.172   3.450   8.830
58209SOL    HW276460   8.136   3.305   8.807
58210SOL     OW76461   0.977   7.226   3.563
58210SOL    HW176462   0.903   7.237   3.503
58210SOL    HW276463   1.054   7.231   3.507
58211SOL     OW76464  10.786   2.431  13.631
58211SOL    HW176465  10.804   2.338  13.616
58211SOL    HW276466  10.737   2.458  13.554
58212SOL     OW76467   4.921  11.775  13.100
58212SOL    HW176468   4.913  11.802  13.192
58212SOL    HW276469   5.012  11.793  13.077
58213SOL     OW76470   8.021   2.084   5.218
58213SOL    HW176471   7.983   2.158   5.264
58213SOL    HW276472   8.098   2.060   5.271
58214SOL     OW76473   1.522   2.670  14.513
58214SOL    HW176474   1.459   2.732  14.552
58214SOL    HW276475   1.608   2.705  14.537
58215SOL     OW76476   0.243   1.358   7.228
58215SOL    HW176477   0.221   1.450   7.214
58215SOL    HW276478   0.319   1.343   7.172
58216SOL     OW76479   5.711  13.367   6.964
58216SOL    HW176480   5.668  13.387   6.881
58216SOL    HW276481   5.756  13.283   6.949
58217SOL     OW76482  13.439   7.910   2.019
58217SOL    HW176483  13.519   7.956   2.043
58217SOL    HW276484  13.370   7.952   2.070
58218SOL     OW76485   1.449   0.276  12.297
58218SOL    HW176486   1.372   0.223  12.275
58218SOL    HW276487   1.494   0.289  12.213
58219SOL     OW76488   5.697   6.700   4.404
58219SOL    HW176489   5.713   6.725   4.313
58219SOL    HW276490   5.603   6.687   4.409
58220SOL     OW76491  11.026   8.707   6.911
58220SOL    HW176492  11.013   8.614   6.891
58220SOL    HW276493  11.091   8.707   6.982
58221SOL     OW76494  12.243  13.792  12.756
58221SOL    HW176495  12.211  13.860  12.696
58221SOL    HW276496  12.327  13.764  12.719
58222SOL     OW76497  11.064   4.767   7.455
58222SOL    HW176498  11.075   4.806   7.543
58222SOL    HW276499  10.996   4.701   7.467
58223SOL     OW76500   8.727   5.248   4.318
58223SOL    HW176501   8.816   5.280   4.307
58223SOL    HW276502   8.676   5.296   4.253
58224SOL     OW76503  12.918   4.915   9.708
58224SOL    HW176504  12.991   4.877   9.659
58224SOL    HW276505  12.919   4.870   9.792
58225SOL     OW76506   2.374  14.038   8.523
58225SOL    HW176507   2.342  14.061   8.610
58225SOL    HW276508   2.297  14.042   8.466
58226SOL     OW76509  10.418  11.596   2.551
58226SOL    HW176510  10.448  11.623   2.638
58226SOL    HW276511  10.366  11.517   2.567
58227SOL     OW76512  13.420  14.440  14.620
58227SOL    HW176513  13.495  14.499  14.612
58227SOL    HW276514  13.456  14.360  14.659
58228SOL     OW76515   4.062   1.547   8.473
58228SOL    HW176516   4.117   1.552   8.395
58228SOL    HW276517   4.079   1.459   8.508
58229SOL     OW76518   3.298   5.444  12.639
58229SOL    HW176519   3.312   5.359  12.596
58229SOL    HW276520   3.208   5.441  12.669
58230SOL     OW76521   1.045  12.042   8.688
58230SOL    HW176522   1.074  12.126   8.652
58230SOL    HW276523   1.111  11.979   8.657
58231SOL     OW76524   9.893   6.280   2.161
58231SOL    HW176525   9.913   6.339   2.088
58231SOL    HW276526   9.907   6.333   2.240
58232SOL     OW76527  12.801  14.088   7.852
58232SOL    HW176528  12.766  14.097   7.940
58232SOL    HW276529  12.893  14.066   7.865
58233SOL     OW76530   2.021   5.051  14.746
58233SOL    HW176531   1.935   5.013  14.764
58233SOL    HW276532   2.006   5.146  14.747
58234SOL     OW76533   3.041   5.153   6.071
58234SOL    HW176534   3.124   5.111   6.049
58234SOL    HW276535   2.974   5.091   6.042
58235SOL     OW76536   6.495  13.059   5.768
58235SOL    HW176537   6.461  13.130   5.823
58235SOL    HW276538   6.445  12.982   5.794
58236SOL     OW76539  12.794   8.945  11.193
58236SOL    HW176540  12.745   9.026  11.205
58236SOL    HW276541  12.772   8.916  11.104
58237SOL     OW76542  12.241  13.102   0.161
58237SOL    HW176543  12.322  13.121   0.209
58237SOL    HW276544  12.269  13.078   0.073
58238SOL     OW76545  10.416  14.033  12.749
58238SOL    HW176546  10.356  13.987  12.808
58238SOL    HW276547  10.490  13.973  12.739
58239SOL     OW76548   9.168  13.154   1.206
58239SOL    HW176549   9.201  13.176   1.119
58239SOL    HW276550   9.230  13.090   1.241
58240SOL     OW76551  11.352  13.837  10.543
58240SOL    HW176552  11.394  13.918  10.513
58240SOL    HW276553  11.279  13.866  10.596
58241SOL     OW76554   0.089  12.078  12.518
58241SOL    HW176555   0.162  12.018  12.506
58241SOL    HW276556   0.028  12.057  12.448
58242SOL     OW76557  11.618   2.928  12.722
58242SOL    HW176558  11.565   2.899  12.648
58242SOL    HW276559  11.676   2.853  12.739
58243SOL     OW76560   9.469   3.499  10.748
58243SOL    HW176561   9.445   3.432  10.684
58243SOL    HW276562   9.387   3.522  10.791
58244SOL     OW76563   0.080  11.896   8.589
58244SOL    HW176564   0.030  11.815   8.578
58244SOL    HW276565   0.067  11.920   8.681
58245SOL     OW76566   6.356   5.525   2.866
58245SOL    HW176567   6.267   5.526   2.830
58245SOL    HW276568   6.383   5.433   2.859
58246SOL     OW76569   1.704   2.722  12.215
58246SOL    HW176570   1.690   2.813  12.242
58246SOL    HW276571   1.640   2.708  12.146
58247SOL     OW76572  12.634   7.183  13.181
58247SOL    HW176573  12.676   7.105  13.217
58247SOL    HW276574  12.706   7.235  13.145
58248SOL     OW76575   0.065   2.968   3.682
58248SOL    HW176576   0.128   2.937   3.747
58248SOL    HW276577   0.096   2.931   3.599
58249SOL     OW76578   9.963  12.001   7.317
58249SOL    HW176579  10.010  12.084   7.322
58249SOL    HW276580   9.890  12.012   7.378
58250SOL     OW76581   9.489   3.642  11.216
58250SOL    HW176582   9.427   3.653  11.144
58250SOL    HW276583   9.458   3.564  11.263
58251SOL     OW76584   7.050   5.343   6.215
58251SOL    HW176585   7.093   5.257   6.207
58251SOL    HW276586   6.998   5.352   6.136
58252SOL     OW76587  11.710   0.163   7.184
58252SOL    HW176588  11.665   0.232   7.233
58252SOL    HW276589  11.801   0.168   7.212
58253SOL     OW76590  12.161  10.797   9.148
58253SOL    HW176591  12.128  10.886   9.135
58253SOL    HW276592  12.187  10.768   9.060
58254SOL     OW76593   0.042  13.847   5.946
58254SOL    HW176594   0.048  13.768   6.000
58254SOL    HW276595  14.845  13.891   5.977
58255SOL     OW76596   5.831   9.592   5.542
58255SOL    HW176597   5.878   9.675   5.534
58255SOL    HW276598   5.796   9.592   5.631
58256SOL     OW76599   8.620  14.330   9.780
58256SOL    HW176600   8.556  14.264   9.807
58256SOL    HW276601   8.569  14.394   9.730
58257SOL     OW76602   2.110  12.186   2.181
58257SOL    HW176603   2.042  12.146   2.126
58257SOL    HW276604   2.115  12.128   2.257
58258SOL     OW76605  11.124  14.851   1.363
58258SOL    HW176606  11.049  14.871   1.419
58258SOL    HW276607  11.113   0.026   1.287
58259SOL     OW76608   6.609  12.874   4.532
58259SOL    HW176609   6.640  12.797   4.579
58259SOL    HW276610   6.688  12.925   4.515
58260SOL     OW76611   1.271   4.456  14.338
58260SOL    HW176612   1.207   4.423  14.399
58260SOL    HW276613   1.220   4.493  14.266
58261SOL     OW76614  11.992   4.470   3.843
58261SOL    HW176615  11.972   4.381   3.813
58261SOL    HW276616  11.907   4.513   3.851
58262SOL     OW76617   0.447  14.848   1.300
58262SOL    HW176618   0.492  14.780   1.251
58262SOL    HW276619   0.419  14.805   1.381
58263SOL     OW76620   2.257   4.966   0.523
58263SOL    HW176621   2.262   4.873   0.502
58263SOL    HW276622   2.321   5.008   0.465
58264SOL     OW76623  14.309  11.750  12.779
58264SOL    HW176624  14.310  11.693  12.857
58264SOL    HW276625  14.275  11.833  12.811
58265SOL     OW76626  11.771   0.955   9.057
58265SOL    HW176627  11.803   1.044   9.040
58265SOL    HW276628  11.748   0.921   8.970
58266SOL     OW76629   8.070   6.279   8.324
58266SOL    HW176630   8.107   6.208   8.376
58266SOL    HW276631   8.087   6.358   8.376
58267SOL     OW76632   7.761   9.754   0.855
58267SOL    HW176633   7.846   9.735   0.814
58267SOL    HW276634   7.699   9.700   0.806
58268SOL     OW76635  14.728   2.773   3.952
58268SOL    HW176636  14.774   2.736   3.876
58268SOL    HW276637  14.648   2.811   3.916
58269SOL     OW76638   4.167   4.971  10.835
58269SOL    HW176639   4.089   4.919  10.852
58269SOL    HW276640   4.145   5.059  10.864
58270SOL     OW76641   3.508   1.973   3.979
58270SOL    HW176642   3.462   2.057   3.975
58270SOL    HW276643   3.549   1.972   4.065
58271SOL     OW76644  12.993   1.080  14.864
58271SOL    HW176645  13.083   1.048  14.864
58271SOL    HW276646  12.942   1.010  14.824
58272SOL     OW76647   0.998   0.382   4.146
58272SOL    HW176648   0.964   0.322   4.080
58272SOL    HW276649   0.922   0.431   4.176
58273SOL     OW76650   3.693  13.592  13.820
58273SOL    HW176651   3.691  13.507  13.863
58273SOL    HW276652   3.773  13.634  13.853
58274SOL     OW76653  13.934   6.607  13.907
58274SOL    HW176654  13.850   6.620  13.951
58274SOL    HW276655  13.983   6.549  13.965
58275SOL     OW76656   7.705  13.179   6.669
58275SOL    HW176657   7.709  13.084   6.664
58275SOL    HW276658   7.716  13.198   6.763
58276SOL     OW76659  11.515   8.723   3.873
58276SOL    HW176660  11.480   8.803   3.914
58276SOL    HW276661  11.549   8.753   3.789
58277SOL     OW76662   8.989   9.982   0.281
58277SOL    HW176663   8.983   9.958   0.189
58277SOL    HW276664   9.006  10.076   0.281
58278SOL     OW76665   4.318   1.824   3.992
58278SOL    HW176666   4.265   1.774   4.054
58278SOL    HW276667   4.343   1.902   4.041
58279SOL     OW76668  12.060   8.388  11.386
58279SOL    HW176669  11.999   8.379  11.313
58279SOL    HW276670  12.101   8.473  11.373
58280SOL     OW76671  10.869   3.387  11.730
58280SOL    HW176672  10.831   3.400  11.817
58280SOL    HW276673  10.809   3.326  11.686
58281SOL     OW76674  12.810   9.129   6.772
58281SOL    HW176675  12.772   9.213   6.747
58281SOL    HW276676  12.736   9.077   6.801
58282SOL     OW76677  13.873  11.752  13.024
58282SOL    HW176678  13.946  11.718  12.972
58282SOL    HW276679  13.879  11.706  13.108
58283SOL     OW76680   1.652  12.363   6.186
58283SOL    HW176681   1.588  12.426   6.154
58283SOL    HW276682   1.678  12.396   6.272
58284SOL     OW76683   8.138   4.227   7.745
58284SOL    HW176684   8.229   4.251   7.761
58284SOL    HW276685   8.096   4.235   7.830
58285SOL     OW76686   5.292   8.919   9.154
58285SOL    HW176687   5.340   8.919   9.071
58285SOL    HW276688   5.201   8.937   9.130
58286SOL     OW76689   9.413   4.209   8.795
58286SOL    HW176690   9.353   4.174   8.861
58286SOL    HW276691   9.494   4.160   8.807
58287SOL     OW76692   9.313   6.336   8.875
58287SOL    HW176693   9.243   6.397   8.895
58287SOL    HW276694   9.390   6.392   8.862
58288SOL     OW76695   7.294   4.516   6.393
58288SOL    HW176696   7.370   4.526   6.336
58288SOL    HW276697   7.231   4.579   6.360
58289SOL     OW76698  10.070   3.418   6.675
58289SOL    HW176699  10.123   3.343   6.646
58289SOL    HW276700  10.130   3.471   6.726
58290SOL     OW76701   6.347   0.346   4.279
58290SOL    HW176702   6.386   0.258   4.283
58290SOL    HW276703   6.419   0.406   4.297
58291SOL     OW76704  10.502   7.084   0.979
58291SOL    HW176705  10.543   7.109   1.062
58291SOL    HW276706  10.508   6.988   0.977
58292SOL     OW76707   0.727  13.929  10.398
58292SOL    HW176708   0.821  13.948  10.400
58292SOL    HW276709   0.722  13.837  10.372
58293SOL     OW76710   7.149  12.941   5.664
58293SOL    HW176711   7.194  12.893   5.734
58293SOL    HW276712   7.216  12.952   5.596
58294SOL     OW76713   6.061   1.589   9.013
58294SOL    HW176714   6.070   1.513   8.955
58294SOL    HW276715   6.125   1.652   8.979
58295SOL     OW76716   1.325   1.436  12.268
58295SOL    HW176717   1.316   1.382  12.347
58295SOL    HW276718   1.292   1.381  12.197
58296SOL     OW76719   9.944  14.258   3.988
58296SOL    HW176720   9.983  14.328   3.935
58296SOL    HW276721   9.878  14.219   3.932
58297SOL     OW76722   7.804   3.970  10.338
58297SOL    HW176723   7.727   4.024  10.360
58297SOL    HW276724   7.787   3.938  10.250
58298SOL     OW76725  10.284  12.334   0.821
58298SOL    HW176726  10.265  12.408   0.879
58298SOL    HW276727  10.361  12.292   0.860
58299SOL     OW76728  13.054  14.317  12.489
58299SOL    HW176729  12.964  14.311  12.457
58299SOL    HW276730  13.107  14.272  12.423
58300SOL     OW76731   4.481  12.100   1.458
58300SOL    HW176732   4.503  12.168   1.394
58300SOL    HW276733   4.424  12.040   1.410
58301SOL     OW76734   6.687   9.147   0.916
58301SOL    HW176735   6.770   9.163   0.962
58301SOL    HW276736   6.698   9.061   0.876
58302SOL     OW76737   9.486  13.270   0.702
58302SOL    HW176738   9.419  13.205   0.724
58302SOL    HW276739   9.437  13.352   0.693
58303SOL     OW76740  14.782   7.261  12.502
58303SOL    HW176741  14.737   7.251  12.586
58303SOL    HW276742  14.773   7.176  12.459
58304SOL     OW76743  13.435   0.610   3.417
58304SOL    HW176744  13.371   0.543   3.442
58304SOL    HW276745  13.390   0.693   3.431
58305SOL     OW76746   5.800   6.853   0.022
58305SOL    HW176747   5.891   6.825   0.009
58305SOL    HW276748   5.797   6.885   0.112
58306SOL     OW76749   9.914   1.541   0.066
58306SOL    HW176750   9.976   1.514  14.880
58306SOL    HW276751   9.830   1.504   0.037
58307SOL     OW76752   7.729   5.880  11.848
58307SOL    HW176753   7.660   5.814  11.840
58307SOL    HW276754   7.714   5.939  11.774
58308SOL     OW76755   5.872   5.032  12.987
58308SOL    HW176756   5.880   5.091  12.912
58308SOL    HW276757   5.810   5.076  13.045
58309SOL     OW76758  10.872   2.478  12.897
58309SOL    HW176759  10.934   2.548  12.916
58309SOL    HW276760  10.913   2.400  12.934
58310SOL     OW76761  12.326   5.365   3.885
58310SOL    HW176762  12.321   5.357   3.789
58310SOL    HW276763  12.237   5.344   3.914
58311SOL     OW76764   2.447   2.679  13.764
58311SOL    HW176765   2.372   2.644  13.716
58311SOL    HW276766   2.453   2.770  13.736
58312SOL     OW76767  10.999   3.733   1.248
58312SOL    HW176768  10.979   3.668   1.181
58312SOL    HW276769  11.071   3.785   1.211
58313SOL     OW76770   5.143  11.704   8.326
58313SOL    HW176771   5.134  11.785   8.376
58313SOL    HW276772   5.211  11.654   8.372
58314SOL     OW76773   0.793  13.026   2.486
58314SOL    HW176774   0.813  13.111   2.527
58314SOL    HW276775   0.814  12.962   2.554
58315SOL     OW76776  14.087   2.061   6.187
58315SOL    HW176777  14.158   2.010   6.224
58315SOL    HW276778  14.018   1.997   6.168
58316SOL     OW76779  11.426  14.803   7.541
58316SOL    HW176780  11.397  14.844   7.460
58316SOL    HW276781  11.346  14.768   7.580
58317SOL     OW76782   7.163   0.472   3.679
58317SOL    HW176783   7.138   0.487   3.770
58317SOL    HW276784   7.224   0.399   3.683
58318SOL     OW76785   6.281   2.719  12.290
58318SOL    HW176786   6.284   2.627  12.314
58318SOL    HW276787   6.321   2.723  12.203
58319SOL     OW76788   0.613   5.431   1.839
58319SOL    HW176789   0.677   5.370   1.803
58319SOL    HW276790   0.550   5.445   1.768
58320SOL     OW76791  12.759   9.520   2.081
58320SOL    HW176792  12.708   9.466   2.140
58320SOL    HW276793  12.848   9.520   2.117
58321SOL     OW76794   8.781   9.970  10.565
58321SOL    HW176795   8.832   9.899  10.527
58321SOL    HW276796   8.748   9.935  10.648
58322SOL     OW76797   2.300  10.158   9.072
58322SOL    HW176798   2.378  10.104   9.081
58322SOL    HW276799   2.275  10.148   8.980
58323SOL     OW76800  10.017  11.407   8.495
58323SOL    HW176801   9.998  11.327   8.543
58323SOL    HW276802  10.029  11.474   8.562
58324SOL     OW76803   0.441   0.370   1.042
58324SOL    HW176804   0.491   0.289   1.045
58324SOL    HW276805   0.440   0.395   0.949
58325SOL     OW76806   0.973   5.838   0.481
58325SOL    HW176807   1.016   5.917   0.513
58325SOL    HW276808   0.970   5.779   0.556
58326SOL     OW76809  12.912   2.923   0.543
58326SOL    HW176810  12.943   2.842   0.502
58326SOL    HW276811  12.901   2.900   0.635
58327SOL     OW76812   3.976   0.646  10.140
58327SOL    HW176813   3.972   0.688  10.226
58327SOL    HW276814   3.889   0.607  10.129
58328SOL     OW76815   1.967   7.749   6.385
58328SOL    HW176816   1.894   7.767   6.444
58328SOL    HW276817   1.956   7.812   6.313
58329SOL     OW76818   0.004  11.796  14.298
58329SOL    HW176819   0.036  11.796  14.208
58329SOL    HW276820   0.024  11.883  14.331
58330SOL     OW76821   3.926   5.355   6.903
58330SOL    HW176822   3.930   5.260   6.888
58330SOL    HW276823   3.898   5.364   6.994
58331SOL     OW76824  14.536   5.752   8.231
58331SOL    HW176825  14.554   5.810   8.157
58331SOL    HW276826  14.527   5.665   8.192
58332SOL     OW76827  13.105   7.182  13.453
58332SOL    HW176828  13.199   7.197  13.466
58332SOL    HW276829  13.094   7.087  13.466
58333SOL     OW76830   5.754   4.815   5.966
58333SOL    HW176831   5.701   4.884   6.006
58333SOL    HW276832   5.772   4.847   5.877
58334SOL     OW76833  12.034   5.077  12.265
58334SOL    HW176834  12.126   5.100  12.253
58334SOL    HW276835  12.032   4.982  12.258
58335SOL     OW76836   7.949   4.472   5.886
58335SOL    HW176837   8.000   4.411   5.939
58335SOL    HW276838   7.964   4.444   5.796
58336SOL     OW76839   3.969  12.506   4.414
58336SOL    HW176840   3.945  12.451   4.489
58336SOL    HW276841   4.064  12.498   4.408
58337SOL     OW76842   3.526  12.030   7.306
58337SOL    HW176843   3.530  11.937   7.330
58337SOL    HW276844   3.561  12.076   7.382
58338SOL     OW76845  11.179  12.395   3.919
58338SOL    HW176846  11.266  12.433   3.925
58338SOL    HW276847  11.146  12.397   4.009
58339SOL     OW76848   2.483   7.934   4.225
58339SOL    HW176849   2.562   7.950   4.276
58339SOL    HW276850   2.455   8.021   4.195
58340SOL     OW76851   1.641   5.701  11.078
58340SOL    HW176852   1.568   5.647  11.107
58340SOL    HW276853   1.624   5.716  10.985
58341SOL     OW76854   1.980  13.959   6.859
58341SOL    HW176855   1.920  13.927   6.927
58341SOL    HW276856   2.059  13.906   6.870
58342SOL     OW76857  14.790  12.243  14.179
58342SOL    HW176858  14.710  12.194  14.162
58342SOL    HW276859  14.777  12.281  14.266
58343SOL     OW76860   1.322  14.494   7.612
58343SOL    HW176861   1.346  14.518   7.523
58343SOL    HW276862   1.403  14.505   7.663
58344SOL     OW76863  11.114  10.175   2.857
58344SOL    HW176864  11.040  10.114   2.864
58344SOL    HW276865  11.096  10.242   2.923
58345SOL     OW76866   9.901   3.959   5.541
58345SOL    HW176867   9.922   3.868   5.561
58345SOL    HW276868   9.954   3.978   5.463
58346SOL     OW76869   2.188  14.520   7.354
58346SOL    HW176870   2.205  14.614   7.353
58346SOL    HW276871   2.187  14.497   7.447
58347SOL     OW76872  10.564  13.326   7.378
58347SOL    HW176873  10.559  13.354   7.469
58347SOL    HW276874  10.554  13.231   7.381
58348SOL     OW76875   1.250   5.164   0.689
58348SOL    HW176876   1.233   5.084   0.639
58348SOL    HW276877   1.264   5.231   0.623
58349SOL     OW76878  11.950   3.159  12.948
58349SOL    HW176879  11.944   3.066  12.967
58349SOL    HW276880  11.938   3.165  12.853
58350SOL     OW76881   6.156  11.352   9.736
58350SOL    HW176882   6.069  11.311   9.742
58350SOL    HW276883   6.217  11.279   9.747
58351SOL     OW76884  12.320   8.858   5.541
58351SOL    HW176885  12.382   8.792   5.511
58351SOL    HW276886  12.234   8.818   5.527
58352SOL     OW76887   3.397  14.761   1.377
58352SOL    HW176888   3.440  14.718   1.303
58352SOL    HW276889   3.323  14.808   1.338
58353SOL     OW76890   9.278  11.788   0.951
58353SOL    HW176891   9.200  11.843   0.957
58353SOL    HW276892   9.295  11.780   0.857
58354SOL     OW76893   0.976  11.558  13.680
58354SOL    HW176894   0.922  11.627  13.719
58354SOL    HW276895   0.954  11.479  13.729
58355SOL     OW76896   8.698   3.298  13.909
58355SOL    HW176897   8.625   3.360  13.903
58355SOL    HW276898   8.745   3.324  13.988
58356SOL     OW76899   5.181   5.796   5.034
58356SOL    HW176900   5.131   5.856   5.089
58356SOL    HW276901   5.152   5.814   4.945
58357SOL     OW76902   1.202  14.567   5.348
58357SOL    HW176903   1.212  14.493   5.288
58357SOL    HW276904   1.268  14.630   5.319
58358SOL     OW76905  13.264  10.091  13.392
58358SOL    HW176906  13.226  10.015  13.348
58358SOL    HW276907  13.341  10.057  13.436
58359SOL     OW76908  12.945  10.892   9.048
58359SOL    HW176909  12.900  10.973   9.071
58359SOL    HW276910  12.963  10.901   8.954
58360SOL     OW76911   8.172   9.362   9.501
58360SOL    HW176912   8.196   9.332   9.413
58360SOL    HW276913   8.165   9.457   9.493
58361SOL     OW76914   4.616  12.165   4.882
58361SOL    HW176915   4.648  12.075   4.876
58361SOL    HW276916   4.620  12.197   4.792
58362SOL     OW76917   6.790   6.417   5.976
58362SOL    HW176918   6.733   6.374   5.912
58362SOL    HW276919   6.772   6.511   5.964
58363SOL     OW76920   9.038   6.151   7.742
58363SOL    HW176921   9.022   6.227   7.798
58363SOL    HW276922   9.093   6.093   7.796
58364SOL     OW76923   8.709  12.169   0.089
58364SOL    HW176924   8.756  12.090   0.059
58364SOL    HW276925   8.673  12.207   0.009
58365SOL     OW76926  14.357   8.432   8.476
58365SOL    HW176927  14.409   8.391   8.407
58365SOL    HW276928  14.284   8.371   8.490
58366SOL     OW76929  14.415   4.793   3.499
58366SOL    HW176930  14.409   4.705   3.463
58366SOL    HW276931  14.484   4.787   3.565
58367SOL     OW76932   0.070   3.734   7.775
58367SOL    HW176933   0.119   3.759   7.697
58367SOL    HW276934   0.131   3.748   7.847
58368SOL     OW76935   0.581   4.716   2.712
58368SOL    HW176936   0.600   4.712   2.618
58368SOL    HW276937   0.666   4.733   2.753
58369SOL     OW76938   5.847   4.409   3.176
58369SOL    HW176939   5.784   4.363   3.120
58369SOL    HW276940   5.900   4.339   3.214
58370SOL     OW76941   5.087  14.701   4.294
58370SOL    HW176942   5.050  14.681   4.380
58370SOL    HW276943   5.074  14.795   4.283
58371SOL     OW76944   1.144  10.469   9.831
58371SOL    HW176945   1.178  10.490   9.918
58371SOL    HW276946   1.211  10.504   9.771
58372SOL     OW76947   8.407  10.571  11.407
58372SOL    HW176948   8.461  10.515  11.462
58372SOL    HW276949   8.470  10.629  11.364
58373SOL     OW76950   2.195  12.082   8.295
58373SOL    HW176951   2.271  12.116   8.247
58373SOL    HW276952   2.137  12.158   8.305
58374SOL     OW76953  11.421   3.651  13.991
58374SOL    HW176954  11.338   3.645  14.038
58374SOL    HW276955  11.399   3.635  13.899
58375SOL     OW76956   4.520   9.896   0.481
58375SOL    HW176957   4.492   9.975   0.529
58375SOL    HW276958   4.537   9.926   0.392
58376SOL     OW76959  11.228  11.340   9.538
58376SOL    HW176960  11.192  11.362   9.453
58376SOL    HW276961  11.182  11.259   9.563
58377SOL     OW76962  13.354   7.749  11.299
58377SOL    HW176963  13.356   7.654  11.300
58377SOL    HW276964  13.261   7.771  11.291
58378SOL     OW76965  11.249   5.116   4.875
58378SOL    HW176966  11.328   5.160   4.905
58378SOL    HW276967  11.233   5.152   4.787
58379SOL     OW76968   7.470   0.553   1.454
58379SOL    HW176969   7.414   0.477   1.470
58379SOL    HW276970   7.547   0.517   1.410
58380SOL     OW76971   7.852   9.745  12.860
58380SOL    HW176972   7.844   9.683  12.787
58380SOL    HW276973   7.762   9.774  12.876
58381SOL     OW76974  14.794   7.022   4.424
58381SOL    HW176975  14.772   7.067   4.343
58381SOL    HW276976  14.852   6.951   4.396
58382SOL     OW76977   6.965   2.670  13.654
58382SOL    HW176978   6.904   2.598  13.644
58382SOL    HW276979   6.938   2.734  13.588
58383SOL     OW76980  13.958  14.363   0.016
58383SOL    HW176981  13.933  14.436  14.842
58383SOL    HW276982  14.031  14.322  14.852
58384SOL     OW76983  10.182   4.401   8.064
58384SOL    HW176984  10.087   4.396   8.066
58384SOL    HW276985  10.211   4.345   8.137
58385SOL     OW76986  12.486  10.183  14.736
58385SOL    HW176987  12.541  10.192  14.658
58385SOL    HW276988  12.408  10.138  14.705
58386SOL     OW76989   9.343  11.551  11.620
58386SOL    HW176990   9.366  11.547  11.527
58386SOL    HW276991   9.427  11.559  11.665
58387SOL     OW76992   1.432  12.192   4.299
58387SOL    HW176993   1.525  12.173   4.298
58387SOL    HW276994   1.390  12.108   4.319
58388SOL     OW76995   0.938  13.367   3.026
58388SOL    HW176996   0.999  13.315   2.974
58388SOL    HW276997   0.928  13.319   3.108
58389SOL     OW76998   0.325   2.592  11.468
58389SOL    HW176999   0.292   2.570  11.381
58389SOL    HW277000   0.339   2.687  11.465
58390SOL     OW77001   8.188   2.830   5.250
58390SOL    HW177002   8.265   2.792   5.208
58390SOL    HW277003   8.166   2.770   5.321
58391SOL     OW77004  12.863  10.826  11.074
58391SOL    HW177005  12.806  10.753  11.051
58391SOL    HW277006  12.840  10.847  11.164
58392SOL     OW77007  10.040  10.045  10.628
58392SOL    HW177008  10.016  10.133  10.599
58392SOL    HW277009   9.982  10.028  10.703
58393SOL     OW77010   3.885  12.368   6.013
58393SOL    HW177011   3.819  12.427   5.978
58393SOL    HW277012   3.960  12.377   5.954
58394SOL     OW77013   6.867   4.574  13.741
58394SOL    HW177014   6.911   4.612  13.664
58394SOL    HW277015   6.839   4.487  13.712
58395SOL     OW77016   7.076   3.863   4.507
58395SOL    HW177017   7.089   3.890   4.416
58395SOL    HW277018   6.991   3.820   4.508
58396SOL     OW77019   8.536   8.046   4.298
58396SOL    HW177020   8.588   8.086   4.368
58396SOL    HW277021   8.514   7.959   4.331
58397SOL     OW77022   6.542   9.350   8.736
58397SOL    HW177023   6.563   9.266   8.694
58397SOL    HW277024   6.582   9.344   8.823
58398SOL     OW77025  10.439  13.690   2.453
58398SOL    HW177026  10.476  13.619   2.399
58398SOL    HW277027  10.357  13.655   2.486
58399SOL     OW77028   9.038   4.289   7.196
58399SOL    HW177029   9.033   4.195   7.183
58399SOL    HW277030   9.132   4.309   7.192
58400SOL     OW77031  11.271  10.389   1.955
58400SOL    HW177032  11.317  10.308   1.978
58400SOL    HW277033  11.259  10.435   2.038
58401SOL     OW77034   1.923  12.867   6.641
58401SOL    HW177035   1.850  12.895   6.696
58401SOL    HW277036   1.978  12.945   6.632
58402SOL     OW77037   8.622   2.028  11.091
58402SOL    HW177038   8.651   2.110  11.131
58402SOL    HW277039   8.667   1.960  11.141
58403SOL     OW77040   4.147   6.999   6.705
58403SOL    HW177041   4.156   6.908   6.734
58403SOL    HW277042   4.188   7.050   6.774
58404SOL     OW77043   9.547   3.995  11.889
58404SOL    HW177044   9.596   4.059  11.838
58404SOL    HW277045   9.588   3.997  11.976
58405SOL     OW77046  13.657  10.192   7.913
58405SOL    HW177047  13.650  10.219   7.822
58405SOL    HW277048  13.612  10.261   7.962
58406SOL     OW77049   9.230   0.888   4.808
58406SOL    HW177050   9.151   0.933   4.838
58406SOL    HW277051   9.199   0.802   4.780
58407SOL     OW77052  14.579   5.296   7.607
58407SOL    HW177053  14.620   5.272   7.524
58407SOL    HW277054  14.577   5.215   7.657
58408SOL     OW77055   6.919  12.126  13.862
58408SOL    HW177056   6.914  12.075  13.781
58408SOL    HW277057   6.908  12.217  13.834
58409SOL     OW77058   3.582  13.660   0.045
58409SOL    HW177059   3.626  13.722  14.870
58409SOL    HW277060   3.641  13.649   0.119
58410SOL     OW77061  10.158   8.600   3.805
58410SOL    HW177062  10.241   8.648   3.814
58410SOL    HW277063  10.183   8.518   3.762
58411SOL     OW77064   8.801   9.020   5.396
58411SOL    HW177065   8.871   9.085   5.391
58411SOL    HW277066   8.757   9.026   5.311
58412SOL     OW77067  12.060   2.646  11.443
58412SOL    HW177068  11.971   2.611  11.435
58412SOL    HW277069  12.117   2.571  11.429
58413SOL     OW77070   8.419   1.146   1.418
58413SOL    HW177071   8.373   1.210   1.473
58413SOL    HW277072   8.404   1.062   1.461
58414SOL     OW77073   3.331  14.737  11.611
58414SOL    HW177074   3.253  14.732  11.666
58414SOL    HW277075   3.299  14.776  11.529
58415SOL     OW77076   2.968   2.073   7.383
58415SOL    HW177077   2.906   2.045   7.451
58415SOL    HW277078   3.052   2.080   7.429
58416SOL     OW77079   3.852  11.806  14.806
58416SOL    HW177080   3.783  11.751  14.843
58416SOL    HW277081   3.814  11.841  14.725
58417SOL     OW77082   3.125   4.966   4.571
58417SOL    HW177083   3.088   4.968   4.658
58417SOL    HW277084   3.154   4.875   4.560
58418SOL     OW77085  12.481   8.941   5.844
58418SOL    HW177086  12.418   8.911   5.778
58418SOL    HW277087  12.495   9.033   5.823
58419SOL     OW77088   0.199   3.088  14.306
58419SOL    HW177089   0.176   3.086  14.399
58419SOL    HW277090   0.249   3.169  14.294
58420SOL     OW77091  14.599   3.975  11.987
58420SOL    HW177092  14.520   3.988  12.039
58420SOL    HW277093  14.568   3.939  11.904
58421SOL     OW77094  12.604  14.551   4.596
58421SOL    HW177095  12.620  14.626   4.539
58421SOL    HW277096  12.677  14.492   4.580
58422SOL     OW77097   7.024  10.700  10.365
58422SOL    HW177098   6.955  10.723  10.302
58422SOL    HW277099   6.980  10.701  10.450
58423SOL     OW77100   4.329   5.816   0.592
58423SOL    HW177101   4.379   5.883   0.544
58423SOL    HW277102   4.321   5.850   0.681
58424SOL     OW77103  10.344  12.960   8.718
58424SOL    HW177104  10.399  13.020   8.768
58424SOL    HW277105  10.397  12.880   8.711
58425SOL     OW77106   1.382   7.237  13.812
58425SOL    HW177107   1.350   7.154  13.849
58425SOL    HW277108   1.321   7.303  13.845
58426SOL     OW77109   9.896  11.207   6.363
58426SOL    HW177110   9.978  11.227   6.318
58426SOL    HW277111   9.914  11.123   6.407
58427SOL     OW77112   2.752   8.957   3.360
58427SOL    HW177113   2.672   9.006   3.377
58427SOL    HW277114   2.799   8.958   3.443
58428SOL     OW77115   6.069   9.759  14.060
58428SOL    HW177116   6.038   9.832  14.007
58428SOL    HW277117   6.165   9.767  14.059
58429SOL     OW77118   9.465   5.407   4.748
58429SOL    HW177119   9.485   5.477   4.687
58429SOL    HW277120   9.438   5.451   4.829
58430SOL     OW77121  10.480  14.367  10.185
58430SOL    HW177122  10.527  14.359  10.102
58430SOL    HW277123  10.500  14.286  10.231
58431SOL     OW77124   2.535  13.087  13.331
58431SOL    HW177125   2.443  13.095  13.353
58431SOL    HW277126   2.572  13.173  13.351
58432SOL     OW77127  14.152   0.057  12.780
58432SOL    HW177128  14.105   0.134  12.749
58432SOL    HW277129  14.233   0.092  12.817
58433SOL     OW77130   4.612   8.753   4.488
58433SOL    HW177131   4.705   8.764   4.507
58433SOL    HW277132   4.597   8.805   4.409
58434SOL     OW77133   3.122   5.714   9.485
58434SOL    HW177134   3.166   5.681   9.407
58434SOL    HW277135   3.086   5.799   9.458
58435SOL     OW77136  14.618   4.124   4.769
58435SOL    HW177137  14.523   4.129   4.778
58435SOL    HW277138  14.631   4.087   4.681
58436SOL     OW77139  14.351   9.847   2.503
58436SOL    HW177140  14.414   9.795   2.452
58436SOL    HW277141  14.381   9.839   2.593
58437SOL     OW77142   5.363   5.474   5.334
58437SOL    HW177143   5.360   5.546   5.271
58437SOL    HW277144   5.290   5.417   5.308
58438SOL     OW77145   8.584   3.997   1.423
58438SOL    HW177146   8.571   3.966   1.513
58438SOL    HW277147   8.610   4.089   1.433
58439SOL     OW77148  14.548   4.363   6.505
58439SOL    HW177149  14.590   4.329   6.426
58439SOL    HW277150  14.612   4.346   6.575
58440SOL     OW77151   4.751  13.769   9.935
58440SOL    HW177152   4.766  13.822   9.857
58440SOL    HW277153   4.831  13.778   9.986
58441SOL     OW77154   2.793  13.111   1.760
58441SOL    HW177155   2.840  13.033   1.730
58441SOL    HW277156   2.762  13.152   1.679
58442SOL     OW77157  10.565   3.670  13.350
58442SOL    HW177158  10.558   3.696  13.442
58442SOL    HW277159  10.513   3.590  13.344
58443SOL     OW77160  14.849   3.975   6.606
58443SOL    HW177161  14.797   3.963   6.686
58443SOL    HW277162  14.804   4.045   6.559
58444SOL     OW77163   5.983  14.678  10.836
58444SOL    HW177164   6.025  14.758  10.869
58444SOL    HW277165   6.054  14.615  10.828
58445SOL     OW77166   0.754   8.010  12.561
58445SOL    HW177167   0.836   7.963  12.547
58445SOL    HW277168   0.722   7.977  12.645
58446SOL     OW77169   1.417  10.764  13.968
58446SOL    HW177170   1.331  10.729  13.989
58446SOL    HW277171   1.462  10.691  13.924
58447SOL     OW77172  14.139   9.963  11.062
58447SOL    HW177173  14.191  10.012  10.999
58447SOL    HW277174  14.052  10.002  11.056
58448SOL     OW77175  14.788  12.816   8.970
58448SOL    HW177176  14.844  12.818   9.047
58448SOL    HW277177  14.833  12.869   8.905
58449SOL     OW77178   2.705   1.729  11.516
58449SOL    HW177179   2.765   1.788  11.470
58449SOL    HW277180   2.733   1.734  11.608
58450SOL     OW77181   6.358   7.310  13.972
58450SOL    HW177182   6.363   7.405  13.966
58450SOL    HW277183   6.326   7.293  14.060
58451SOL     OW77184   4.134  13.955  10.269
58451SOL    HW177185   4.164  13.864  10.265
58451SOL    HW277186   4.198  13.998  10.326
58452SOL     OW77187  10.915   6.383   2.779
58452SOL    HW177188  10.871   6.421   2.855
58452SOL    HW277189  10.906   6.449   2.710
58453SOL     OW77190   8.613   7.533   3.326
58453SOL    HW177191   8.634   7.491   3.409
58453SOL    HW277192   8.519   7.549   3.330
58454SOL     OW77193   8.949   0.386   9.502
58454SOL    HW177194   8.983   0.335   9.428
58454SOL    HW277195   8.854   0.372   9.499
58455SOL     OW77196   5.871  13.202  12.877
58455SOL    HW177197   5.931  13.267  12.913
58455SOL    HW277198   5.787  13.223  12.917
58456SOL     OW77199   5.943  14.044  10.617
58456SOL    HW177200   6.004  14.046  10.543
58456SOL    HW277201   5.864  14.002  10.582
58457SOL     OW77202   0.108   5.267   8.454
58457SOL    HW177203   0.022   5.274   8.494
58457SOL    HW277204   0.092   5.281   8.360
58458SOL     OW77205   1.479   7.323   0.593
58458SOL    HW177206   1.546   7.302   0.657
58458SOL    HW277207   1.490   7.259   0.523
58459SOL     OW77208   2.187   1.590  14.301
58459SOL    HW177209   2.234   1.613  14.381
58459SOL    HW277210   2.245   1.619  14.230
58460SOL     OW77211   2.966   2.983  14.619
58460SOL    HW177212   2.882   2.978  14.573
58460SOL    HW277213   2.947   3.036  14.696
58461SOL     OW77214   0.232   0.330   8.076
58461SOL    HW177215   0.162   0.368   8.022
58461SOL    HW277216   0.241   0.241   8.044
58462SOL     OW77217  11.131  14.090   2.966
58462SOL    HW177218  11.053  14.141   2.944
58462SOL    HW277219  11.153  14.116   3.055
58463SOL     OW77220  13.126  10.908  12.156
58463SOL    HW177221  13.052  10.857  12.124
58463SOL    HW277222  13.089  10.994  12.178
58464SOL     OW77223  12.279   1.273   1.751
58464SOL    HW177224  12.192   1.246   1.721
58464SOL    HW277225  12.322   1.307   1.673
58465SOL     OW77226  10.407  14.881   3.922
58465SOL    HW177227  10.441   0.072   3.973
58465SOL    HW277228  10.469  14.872   3.849
58466SOL     OW77229   5.909  10.894  10.334
58466SOL    HW177230   5.896  10.968  10.275
58466SOL    HW277231   6.004  10.891  10.348
58467SOL     OW77232   2.594   6.853  10.003
58467SOL    HW177233   2.544   6.803   9.938
58467SOL    HW277234   2.654   6.906   9.951
58468SOL     OW77235   5.049  14.373   4.638
58468SOL    HW177236   4.969  14.407   4.679
58468SOL    HW277237   5.018  14.315   4.569
58469SOL     OW77238   7.363  13.451   0.548
58469SOL    HW177239   7.421  13.527   0.545
58469SOL    HW277240   7.407  13.385   0.494
58470SOL     OW77241   6.168   5.966   3.085
58470SOL    HW177242   6.193   5.874   3.095
58470SOL    HW277243   6.142   5.993   3.173
58471SOL     OW77244   1.646   9.733  12.317
58471SOL    HW177245   1.563   9.754  12.359
58471SOL    HW277246   1.630   9.649  12.274
58472SOL     OW77247   7.877   0.177  10.247
58472SOL    HW177248   7.928   0.101  10.275
58472SOL    HW277249   7.940   0.249  10.246
58473SOL     OW77250  10.427   5.513   8.972
58473SOL    HW177251  10.388   5.542   9.055
58473SOL    HW277252  10.461   5.593   8.933
58474SOL     OW77253  13.094   5.031   6.546
58474SOL    HW177254  13.137   5.066   6.624
58474SOL    HW277255  13.099   4.936   6.557
58475SOL     OW77256   3.225   5.592   9.256
58475SOL    HW177257   3.254   5.520   9.310
58475SOL    HW277258   3.305   5.640   9.234
58476SOL     OW77259   4.689   0.624   0.437
58476SOL    HW177260   4.700   0.719   0.443
58476SOL    HW277261   4.597   0.612   0.413
58477SOL     OW77262   9.080  11.732   6.926
58477SOL    HW177263   9.003  11.781   6.898
58477SOL    HW277264   9.069  11.722   7.021
58478SOL     OW77265   0.959   3.340  10.913
58478SOL    HW177266   0.972   3.429  10.880
58478SOL    HW277267   0.871   3.341  10.951
58479SOL     OW77268   0.788   6.591   8.141
58479SOL    HW177269   0.742   6.572   8.059
58479SOL    HW277270   0.868   6.538   8.136
58480SOL     OW77271   9.720   2.103  11.882
58480SOL    HW177272   9.750   2.033  11.941
58480SOL    HW277273   9.799   2.149  11.856
58481SOL     OW77274   4.008   9.528  11.202
58481SOL    HW177275   3.959   9.568  11.131
58481SOL    HW277276   3.962   9.446  11.221
58482SOL     OW77277  10.136  11.088   7.774
58482SOL    HW177278  10.101  11.137   7.849
58482SOL    HW277279  10.119  11.143   7.698
58483SOL     OW77280   4.336   2.865  12.815
58483SOL    HW177281   4.268   2.899  12.873
58483SOL    HW277282   4.411   2.849  12.871
58484SOL     OW77283   3.990   0.892  13.189
58484SOL    HW177284   4.038   0.813  13.163
58484SOL    HW277285   3.918   0.898  13.126
58485SOL     OW77286  12.801   3.441  10.431
58485SOL    HW177287  12.783   3.499  10.505
58485SOL    HW277288  12.728   3.379  10.430
58486SOL     OW77289  10.679   4.311   6.528
58486SOL    HW177290  10.596   4.303   6.480
58486SOL    HW277291  10.655   4.356   6.609
58487SOL     OW77292   9.443   4.644   9.659
58487SOL    HW177293   9.498   4.712   9.621
58487SOL    HW277294   9.499   4.601   9.723
58488SOL     OW77295  13.730   2.866  13.837
58488SOL    HW177296  13.733   2.930  13.766
58488SOL    HW277297  13.636   2.850  13.850
58489SOL     OW77298   3.210   1.887   9.770
58489SOL    HW177299   3.138   1.849   9.718
58489SOL    HW277300   3.287   1.880   9.714
58490SOL     OW77301  11.946   8.054   0.630
58490SOL    HW177302  11.960   8.071   0.537
58490SOL    HW277303  11.919   8.139   0.666
58491SOL     OW77304   5.428   2.785   2.721
58491SOL    HW177305   5.395   2.714   2.666
58491SOL    HW277306   5.367   2.789   2.794
58492SOL     OW77307   1.726   5.410   5.821
58492SOL    HW177308   1.756   5.474   5.885
58492SOL    HW277309   1.662   5.357   5.869
58493SOL     OW77310   8.070  12.001   8.217
58493SOL    HW177311   8.120  12.054   8.279
58493SOL    HW277312   8.030  11.932   8.270
58494SOL     OW77313   9.234  13.278   4.297
58494SOL    HW177314   9.275  13.365   4.305
58494SOL    HW277315   9.302  13.224   4.258
58495SOL     OW77316   7.594  14.858   1.318
58495SOL    HW177317   7.547  14.776   1.307
58495SOL    HW277318   7.682  14.840   1.283
58496SOL     OW77319   1.148   0.876  11.744
58496SOL    HW177320   1.234   0.836  11.732
58496SOL    HW277321   1.087   0.815  11.701
58497SOL     OW77322   5.791   5.870   3.085
58497SOL    HW177323   5.848   5.842   3.156
58497SOL    HW277324   5.774   5.789   3.036
58498SOL     OW77325  13.987   2.970  10.527
58498SOL    HW177326  14.080   2.950  10.538
58498SOL    HW277327  13.951   2.893  10.483
58499SOL     OW77328  12.631   6.986  11.370
58499SOL    HW177329  12.542   6.991  11.336
58499SOL    HW277330  12.680   6.940  11.301
58500SOL     OW77331   0.337  12.199   7.919
58500SOL    HW177332   0.346  12.153   7.835
58500SOL    HW277333   0.298  12.283   7.896
58501SOL     OW77334   6.603  12.939  10.949
58501SOL    HW177335   6.512  12.912  10.944
58501SOL    HW277336   6.600  13.030  10.979
58502SOL     OW77337  11.379   1.758   1.851
58502SOL    HW177338  11.328   1.833   1.821
58502SOL    HW277339  11.337   1.682   1.811
58503SOL     OW77340  14.220  10.478   1.599
58503SOL    HW177341  14.182  10.395   1.627
58503SOL    HW277342  14.310  10.456   1.575
58504SOL     OW77343   0.636   5.376   3.788
58504SOL    HW177344   0.634   5.318   3.865
58504SOL    HW277345   0.709   5.343   3.736
58505SOL     OW77346  11.895   2.054   7.726
58505SOL    HW177347  11.913   2.140   7.688
58505SOL    HW277348  11.801   2.043   7.716
58506SOL     OW77349   3.101   4.619   3.959
58506SOL    HW177350   3.038   4.652   4.023
58506SOL    HW277351   3.134   4.697   3.915
58507SOL     OW77352   1.178  10.367   8.303
58507SOL    HW177353   1.146  10.354   8.214
58507SOL    HW277354   1.110  10.419   8.346
58508SOL     OW77355  13.453   4.732  10.020
58508SOL    HW177356  13.383   4.707   9.958
58508SOL    HW277357  13.517   4.661  10.014
58509SOL     OW77358   6.769   3.651   9.204
58509SOL    HW177359   6.862   3.638   9.223
58509SOL    HW277360   6.768   3.722   9.140
58510SOL     OW77361   6.342   2.972   4.902
58510SOL    HW177362   6.262   3.016   4.930
58510SOL    HW277363   6.311   2.898   4.850
58511SOL     OW77364   7.881   6.515  14.720
58511SOL    HW177365   7.914   6.569  14.648
58511SOL    HW277366   7.934   6.435  14.716
58512SOL     OW77367  11.197   9.162   2.562
58512SOL    HW177368  11.256   9.144   2.489
58512SOL    HW277369  11.250   9.144   2.640
58513SOL     OW77370   6.120  11.501   2.709
58513SOL    HW177371   6.088  11.564   2.644
58513SOL    HW277372   6.144  11.424   2.658
58514SOL     OW77373  11.126   3.692   4.964
58514SOL    HW177374  11.135   3.618   4.904
58514SOL    HW277375  11.199   3.749   4.944
58515SOL     OW77376  12.062   5.205  13.776
58515SOL    HW177377  12.053   5.263  13.851
58515SOL    HW277378  12.119   5.135  13.807
58516SOL     OW77379   0.238   4.894  11.102
58516SOL    HW177380   0.215   4.986  11.115
58516SOL    HW277381   0.256   4.887  11.009
58517SOL     OW77382   6.924   6.182   0.153
58517SOL    HW177383   6.952   6.091   0.143
58517SOL    HW277384   6.837   6.185   0.113
58518SOL     OW77385   9.968  14.040  12.697
58518SOL    HW177386  10.049  14.066  12.651
58518SOL    HW277387   9.995  14.027  12.788
58519SOL     OW77388   4.939  13.623  11.332
58519SOL    HW177389   4.993  13.544  11.331
58519SOL    HW277390   4.937  13.649  11.424
58520SOL     OW77391  13.855   9.806   6.547
58520SOL    HW177392  13.771   9.802   6.593
58520SOL    HW277393  13.895   9.720   6.563
58521SOL     OW77394   7.119   0.196  13.682
58521SOL    HW177395   7.043   0.244  13.717
58521SOL    HW277396   7.194   0.235  13.726
58522SOL     OW77397   9.776  10.039   8.142
58522SOL    HW177398   9.800  10.132   8.138
58522SOL    HW277399   9.851   9.997   8.185
58523SOL     OW77400   4.685   5.806  10.857
58523SOL    HW177401   4.672   5.791  10.763
58523SOL    HW277402   4.717   5.723  10.891
58524SOL     OW77403   2.485  13.083  10.514
58524SOL    HW177404   2.518  13.067  10.425
58524SOL    HW277405   2.556  13.131  10.557
58525SOL     OW77406   8.597  11.942   0.576
58525SOL    HW177407   8.641  11.973   0.497
58525SOL    HW277408   8.551  12.018   0.610
58526SOL     OW77409   8.780   4.363  13.916
58526SOL    HW177410   8.693   4.328  13.898
58526SOL    HW277411   8.810   4.397  13.832
58527SOL     OW77412   5.876   3.283   2.058
58527SOL    HW177413   5.855   3.264   2.150
58527SOL    HW277414   5.971   3.284   2.055
58528SOL     OW77415   6.111   0.691   1.604
58528SOL    HW177416   6.096   0.699   1.510
58528SOL    HW277417   6.032   0.648   1.637
58529SOL     OW77418  14.574   9.258  13.637
58529SOL    HW177419  14.637   9.255  13.709
58529SOL    HW277420  14.489   9.261  13.681
58530SOL     OW77421   1.211   0.286   7.871
58530SOL    HW177422   1.303   0.285   7.847
58530SOL    HW277423   1.174   0.360   7.822
58531SOL     OW77424  10.759   9.756  11.205
58531SOL    HW177425  10.706   9.836  11.203
58531SOL    HW277426  10.713   9.698  11.266
58532SOL     OW77427  12.960  11.125   8.202
58532SOL    HW177428  12.882  11.071   8.190
58532SOL    HW277429  12.934  11.212   8.171
58533SOL     OW77430   7.252  14.043   9.571
58533SOL    HW177431   7.311  14.026   9.644
58533SOL    HW277432   7.261  14.137   9.553
58534SOL     OW77433   9.188   9.760   1.708
58534SOL    HW177434   9.217   9.797   1.791
58534SOL    HW277435   9.135   9.684   1.733
58535SOL     OW77436   2.672   6.011   1.103
58535SOL    HW177437   2.742   6.050   1.052
58535SOL    HW277438   2.639   5.939   1.048
58536SOL     OW77439   9.123  13.384  13.264
58536SOL    HW177440   9.042  13.336  13.251
58536SOL    HW277441   9.100  13.475  13.249
58537SOL     OW77442   2.518   7.264   2.248
58537SOL    HW177443   2.598   7.230   2.287
58537SOL    HW277444   2.465   7.291   2.324
58538SOL     OW77445  14.374  12.442  10.946
58538SOL    HW177446  14.404  12.494  11.020
58538SOL    HW277447  14.279  12.444  10.952
58539SOL     OW77448   3.343   9.555   4.058
58539SOL    HW177449   3.356   9.477   4.112
58539SOL    HW277450   3.269   9.533   4.001
58540SOL     OW77451   8.031   9.571   6.811
58540SOL    HW177452   8.078   9.549   6.892
58540SOL    HW277453   7.951   9.519   6.815
58541SOL     OW77454   8.026   3.230  11.809
58541SOL    HW177455   7.987   3.302  11.759
58541SOL    HW277456   7.956   3.166  11.819
58542SOL     OW77457   4.055   1.545  12.564
58542SOL    HW177458   4.089   1.589  12.486
58542SOL    HW277459   4.101   1.461  12.566
58543SOL     OW77460   3.034  11.615   2.585
58543SOL    HW177461   2.974  11.685   2.560
58543SOL    HW277462   3.039  11.559   2.508
58544SOL     OW77463   3.826   4.406   5.625
58544SOL    HW177464   3.758   4.339   5.635
58544SOL    HW277465   3.873   4.404   5.708
58545SOL     OW77466  10.206   4.343   7.605
58545SOL    HW177467  10.247   4.377   7.684
58545SOL    HW277468  10.115   4.374   7.610
58546SOL     OW77469  12.946   8.429  13.741
58546SOL    HW177470  12.853   8.415  13.724
58546SOL    HW277471  12.948   8.472  13.827
58547SOL     OW77472   6.228   1.202   3.066
58547SOL    HW177473   6.298   1.164   3.014
58547SOL    HW277474   6.224   1.294   3.038
58548SOL     OW77475   8.789   7.071   1.841
58548SOL    HW177476   8.738   7.107   1.914
58548SOL    HW277477   8.763   7.123   1.766
58549SOL     OW77478   3.397   7.133   2.243
58549SOL    HW177479   3.304   7.129   2.266
58549SOL    HW277480   3.434   7.198   2.303
58550SOL     OW77481   8.589  12.566   1.446
58550SOL    HW177482   8.638  12.521   1.377
58550SOL    HW277483   8.497  12.556   1.421
58551SOL     OW77484   4.074   9.397  10.476
58551SOL    HW177485   4.163   9.401  10.442
58551SOL    HW277486   4.037   9.317  10.438
58552SOL     OW77487   5.257   7.499  12.368
58552SOL    HW177488   5.317   7.441  12.321
58552SOL    HW277489   5.208   7.442  12.426
58553SOL     OW77490   4.482   2.776   9.360
58553SOL    HW177491   4.433   2.705   9.402
58553SOL    HW277492   4.574   2.748   9.364
58554SOL     OW77493  12.653   6.890   5.737
58554SOL    HW177494  12.747   6.873   5.727
58554SOL    HW277495  12.648   6.981   5.768
58555SOL     OW77496   1.814  11.569   1.238
58555SOL    HW177497   1.762  11.635   1.193
58555SOL    HW277498   1.777  11.485   1.211
58556SOL     OW77499   6.218   4.125   9.390
58556SOL    HW177500   6.126   4.114   9.368
58556SOL    HW277501   6.219   4.131   9.486
58557SOL     OW77502  13.423  14.754   6.137
58557SOL    HW177503  13.366  14.701   6.083
58557SOL    HW277504  13.497  14.697   6.158
58558SOL     OW77505   2.235   7.838  13.486
58558SOL    HW177506   2.168   7.776  13.514
58558SOL    HW277507   2.188   7.918  13.465
58559SOL     OW77508   6.235   8.683   7.589
58559SOL    HW177509   6.311   8.641   7.549
58559SOL    HW277510   6.239   8.658   7.681
58560SOL     OW77511  12.175  12.604   5.180
58560SOL    HW177512  12.106  12.591   5.245
58560SOL    HW277513  12.144  12.678   5.128
58561SOL     OW77514   6.859   0.172   2.438
58561SOL    HW177515   6.780   0.217   2.467
58561SOL    HW277516   6.886   0.220   2.359
58562SOL     OW77517   2.674   1.611  14.519
58562SOL    HW177518   2.732   1.589  14.591
58562SOL    HW277519   2.730   1.614  14.442
58563SOL     OW77520   3.232  14.087   4.683
58563SOL    HW177521   3.295  14.159   4.675
58563SOL    HW277522   3.148  14.127   4.660
58564SOL     OW77523  14.684   5.130   7.391
58564SOL    HW177524  14.770   5.094   7.414
58564SOL    HW277525  14.678   5.118   7.296
58565SOL     OW77526  14.578   0.588   6.114
58565SOL    HW177527  14.546   0.591   6.024
58565SOL    HW277528  14.673   0.580   6.107
58566SOL     OW77529  11.859   6.818   4.796
58566SOL    HW177530  11.902   6.753   4.852
58566SOL    HW277531  11.811   6.765   4.732
58567SOL     OW77532   7.432   8.383   9.358
58567SOL    HW177533   7.524   8.387   9.334
58567SOL    HW277534   7.401   8.473   9.351
58568SOL     OW77535   8.222   8.662   3.944
58568SOL    HW177536   8.298   8.666   3.886
58568SOL    HW277537   8.222   8.746   3.990
58569SOL     OW77538   2.721   5.905   4.275
58569SOL    HW177539   2.700   5.978   4.217
58569SOL    HW277540   2.661   5.916   4.349
58570SOL     OW77541  13.183  13.444   7.219
58570SOL    HW177542  13.198  13.358   7.180
58570SOL    HW277543  13.127  13.490   7.156
58571SOL     OW77544  11.033   5.035   4.360
58571SOL    HW177545  10.961   5.027   4.298
58571SOL    HW277546  11.008   4.978   4.433
58572SOL     OW77547   8.631  13.491  10.454
58572SOL    HW177548   8.659  13.560  10.393
58572SOL    HW277549   8.678  13.511  10.536
58573SOL     OW77550   2.546   2.903   2.675
58573SOL    HW177551   2.548   2.997   2.654
58573SOL    HW277552   2.630   2.887   2.718
58574SOL     OW77553   0.773  10.294   4.398
58574SOL    HW177554   0.712  10.309   4.326
58574SOL    HW277555   0.795  10.201   4.393
58575SOL     OW77556   3.494  12.708  12.996
58575SOL    HW177557   3.468  12.616  12.991
58575SOL    HW277558   3.574  12.708  13.048
58576SOL     OW77559  12.118   4.896  13.845
58576SOL    HW177560  12.048   4.898  13.911
58576SOL    HW277561  12.181   4.961  13.876
58577SOL     OW77562   2.928   7.104  13.834
58577SOL    HW177563   2.863   7.164  13.798
58577SOL    HW277564   3.012   7.136  13.801
58578SOL     OW77565   2.406  10.103  10.967
58578SOL    HW177566   2.437  10.173  10.910
58578SOL    HW277567   2.314  10.091  10.941
58579SOL     OW77568  11.869   5.880  13.862
58579SOL    HW177569  11.836   5.849  13.946
58579SOL    HW277570  11.953   5.921  13.882
58580SOL     OW77571  11.208   9.376   6.899
58580SOL    HW177572  11.169   9.316   6.962
58580SOL    HW277573  11.189   9.337   6.813
58581SOL     OW77574   5.432   6.702  13.871
58581SOL    HW177575   5.426   6.618  13.915
58581SOL    HW277576   5.511   6.742  13.907
58582SOL     OW77577   1.028   4.879   4.147
58582SOL    HW177578   1.019   4.800   4.200
58582SOL    HW277579   0.945   4.926   4.160
58583SOL     OW77580   1.146   8.264  10.209
58583SOL    HW177581   1.125   8.353  10.236
58583SOL    HW277582   1.238   8.268  10.182
58584SOL     OW77583  10.055   5.537   5.571
58584SOL    HW177584  10.001   5.562   5.646
58584SOL    HW277585  10.013   5.580   5.496
58585SOL     OW77586  12.830  14.769  13.111
58585SOL    HW177587  12.816  14.757  13.017
58585SOL    HW277588  12.923  14.788  13.119
58586SOL     OW77589  10.845   2.181   7.010
58586SOL    HW177590  10.917   2.124   6.984
58586SOL    HW277591  10.793   2.127   7.070
58587SOL     OW77592  11.551  12.356   8.458
58587SOL    HW177593  11.506  12.277   8.430
58587SOL    HW277594  11.482  12.421   8.470
58588SOL     OW77595   5.487   6.020   8.291
58588SOL    HW177596   5.515   6.041   8.380
58588SOL    HW277597   5.406   6.070   8.279
58589SOL     OW77598   3.657   9.571   0.649
58589SOL    HW177599   3.615   9.494   0.611
58589SOL    HW277600   3.669   9.549   0.741
58590SOL     OW77601  12.674   0.774   9.918
58590SOL    HW177602  12.583   0.750   9.936
58590SOL    HW277603  12.717   0.691   9.896
58591SOL     OW77604   2.871   5.704  10.954
58591SOL    HW177605   2.960   5.684  10.925
58591SOL    HW277606   2.815   5.642  10.908
58592SOL     OW77607   9.563   5.252  11.865
58592SOL    HW177608   9.657   5.258  11.876
58592SOL    HW277609   9.528   5.240  11.953
58593SOL     OW77610   8.547  12.666   8.347
58593SOL    HW177611   8.471  12.695   8.397
58593SOL    HW277612   8.598  12.745   8.332
58594SOL     OW77613   2.949  12.433   3.138
58594SOL    HW177614   3.007  12.500   3.100
58594SOL    HW277615   3.008  12.359   3.156
58595SOL     OW77616  13.365  13.164   2.756
58595SOL    HW177617  13.385  13.097   2.692
58595SOL    HW277618  13.284  13.204   2.725
58596SOL     OW77619   1.069   1.263   7.684
58596SOL    HW177620   1.148   1.268   7.736
58596SOL    HW277621   1.090   1.307   7.602
58597SOL     OW77622   5.437  11.770   9.519
58597SOL    HW177623   5.345  11.766   9.495
58597SOL    HW277624   5.460  11.863   9.515
58598SOL     OW77625  14.554   1.006   1.462
58598SOL    HW177626  14.460   0.994   1.450
58598SOL    HW277627  14.591   1.003   1.374
58599SOL     OW77628   9.600   4.647   1.212
58599SOL    HW177629   9.638   4.612   1.132
58599SOL    HW277630   9.629   4.586   1.281
58600SOL     OW77631   1.974   3.877  13.502
58600SOL    HW177632   1.942   3.797  13.542
58600SOL    HW277633   1.910   3.944  13.528
58601SOL     OW77634  10.987   3.376   4.027
58601SOL    HW177635  10.902   3.341   3.998
58601SOL    HW277636  11.020   3.310   4.088
58602SOL     OW77637   4.173  12.214   5.763
58602SOL    HW177638   4.229  12.277   5.808
58602SOL    HW277639   4.131  12.165   5.834
58603SOL     OW77640   6.208  14.054  10.854
58603SOL    HW177641   6.191  14.115  10.926
58603SOL    HW277642   6.133  14.065  10.795
58604SOL     OW77643  14.302   6.907   8.799
58604SOL    HW177644  14.392   6.885   8.824
58604SOL    HW277645  14.266   6.948   8.877
58605SOL     OW77646   3.502   0.154   5.957
58605SOL    HW177647   3.564   0.126   5.890
58605SOL    HW277648   3.425   0.098   5.944
58606SOL     OW77649   2.994  13.422   3.984
58606SOL    HW177650   3.012  13.515   3.996
58606SOL    HW277651   2.980  13.389   4.072
58607SOL     OW77652  13.107   3.995  13.267
58607SOL    HW177653  13.170   3.975  13.198
58607SOL    HW277654  13.099   3.913  13.317
58608SOL     OW77655  14.862   2.019   8.990
58608SOL    HW177656   0.037   2.092   9.016
58608SOL    HW277657   0.003   1.948   9.051
58609SOL     OW77658   6.610  14.120   1.726
58609SOL    HW177659   6.685  14.070   1.758
58609SOL    HW277660   6.614  14.113   1.631
58610SOL     OW77661  13.039  10.889  13.840
58610SOL    HW177662  13.101  10.841  13.895
58610SOL    HW277663  13.073  10.978  13.836
58611SOL     OW77664  11.256   5.060  11.441
58611SOL    HW177665  11.324   5.082  11.505
58611SOL    HW277666  11.291   5.093  11.358
58612SOL     OW77667   6.648  14.808   1.422
58612SOL    HW177668   6.668   0.005   1.472
58612SOL    HW277669   6.638  14.839   1.332
58613SOL     OW77670   8.572   4.917  10.503
58613SOL    HW177671   8.580   4.891  10.595
58613SOL    HW277672   8.520   4.997  10.506
58614SOL     OW77673   3.734   8.621  12.468
58614SOL    HW177674   3.649   8.643  12.506
58614SOL    HW277675   3.724   8.642  12.375
58615SOL     OW77676   5.457   9.326  10.622
58615SOL    HW177677   5.450   9.372  10.706
58615SOL    HW277678   5.504   9.245  10.643
58616SOL     OW77679   8.862   5.843  13.481
58616SOL    HW177680   8.799   5.771  13.480
58616SOL    HW277681   8.933   5.813  13.538
58617SOL     OW77682   6.375  13.364  12.762
58617SOL    HW177683   6.313  13.292  12.777
58617SOL    HW277684   6.435  13.359  12.836
58618SOL     OW77685   3.169   0.947   6.915
58618SOL    HW177686   3.174   0.992   6.831
58618SOL    HW277687   3.261   0.931   6.938
58619SOL     OW77688  14.778   7.652  13.280
58619SOL    HW177689  14.832   7.658  13.202
58619SOL    HW277690  14.688   7.659  13.248
58620SOL     OW77691   6.498   0.166   3.889
58620SOL    HW177692   6.415   0.167   3.841
58620SOL    HW277693   6.509   0.256   3.920
58621SOL     OW77694   2.834   3.745   3.204
58621SOL    HW177695   2.863   3.828   3.240
58621SOL    HW277696   2.816   3.763   3.112
58622SOL     OW77697   9.271  11.744   9.464
58622SOL    HW177698   9.190  11.732   9.514
58622SOL    HW277699   9.257  11.692   9.385
58623SOL     OW77700  10.327   2.055  13.201
58623SOL    HW177701  10.306   2.024  13.113
58623SOL    HW277702  10.413   2.016  13.221
58624SOL     OW77703   1.123  13.616   7.624
58624SOL    HW177704   1.079  13.552   7.568
58624SOL    HW277705   1.159  13.681   7.564
58625SOL     OW77706  13.997   6.827   9.759
58625SOL    HW177707  13.954   6.853   9.841
58625SOL    HW277708  14.047   6.749   9.781
58626SOL     OW77709   8.511  14.151  11.212
58626SOL    HW177710   8.478  14.178  11.126
58626SOL    HW277711   8.488  14.058  11.218
58627SOL     OW77712   4.253   4.246   5.671
58627SOL    HW177713   4.210   4.324   5.707
58627SOL    HW277714   4.184   4.198   5.627
58628SOL     OW77715  13.297  14.724  10.609
58628SOL    HW177716  13.345  14.714  10.691
58628SOL    HW277717  13.210  14.753  10.635
58629SOL     OW77718   3.830   2.919   1.722
58629SOL    HW177719   3.919   2.936   1.692
58629SOL    HW277720   3.777   2.986   1.678
58630SOL     OW77721  13.610   1.411   7.416
58630SOL    HW177722  13.647   1.451   7.337
58630SOL    HW277723  13.579   1.325   7.387
58631SOL     OW77724  14.237   5.783  10.762
58631SOL    HW177725  14.259   5.837  10.685
58631SOL    HW277726  14.215   5.697  10.725
58632SOL     OW77727  13.068   1.591  12.509
58632SOL    HW177728  13.018   1.669  12.528
58632SOL    HW277729  13.025   1.521  12.559
58633SOL     OW77730   1.095   8.312   5.178
58633SOL    HW177731   1.178   8.313   5.131
58633SOL    HW277732   1.035   8.362   5.122
58634SOL     OW77733   8.009  12.571   1.336
58634SOL    HW177734   7.918  12.601   1.344
58634SOL    HW277735   8.006  12.506   1.265
58635SOL     OW77736   0.413   1.032   3.261
58635SOL    HW177737   0.491   0.982   3.283
58635SOL    HW277738   0.369   0.980   3.194
58636SOL     OW77739   3.335   4.178  14.456
58636SOL    HW177740   3.269   4.113  14.432
58636SOL    HW277741   3.398   4.129  14.509
58637SOL     OW77742   1.531  12.078   3.026
58637SOL    HW177743   1.483  12.063   3.107
58637SOL    HW277744   1.476  12.039   2.958
58638SOL     OW77745   4.266   8.875   9.482
58638SOL    HW177746   4.305   8.788   9.492
58638SOL    HW277747   4.331   8.925   9.432
58639SOL     OW77748   8.357   0.475   9.068
58639SOL    HW177749   8.426   0.409   9.067
58639SOL    HW277750   8.327   0.477   9.159
58640SOL     OW77751  10.439   1.707   6.931
58640SOL    HW177752  10.478   1.781   6.977
58640SOL    HW277753  10.512   1.664   6.887
58641SOL     OW77754   8.717   2.846  11.940
58641SOL    HW177755   8.722   2.806  12.027
58641SOL    HW277756   8.754   2.933  11.951
58642SOL     OW77757   7.963  12.676  13.744
58642SOL    HW177758   8.057  12.675  13.762
58642SOL    HW277759   7.934  12.763  13.770
58643SOL     OW77760   9.982   7.860   6.690
58643SOL    HW177761  10.003   7.905   6.608
58643SOL    HW277762  10.046   7.789   6.694
58644SOL     OW77763   4.577  10.829   2.631
58644SOL    HW177764   4.666  10.800   2.647
58644SOL    HW277765   4.553  10.878   2.709
58645SOL     OW77766   6.083   2.583   3.272
58645SOL    HW177767   6.140   2.535   3.212
58645SOL    HW277768   6.108   2.552   3.359
58646SOL     OW77769   4.792   5.123  10.569
58646SOL    HW177770   4.830   5.174  10.640
58646SOL    HW277771   4.740   5.187  10.520
58647SOL     OW77772  12.684  13.494  14.540
58647SOL    HW177773  12.607  13.466  14.490
58647SOL    HW277774  12.659  13.579  14.578
58648SOL     OW77775  10.841  11.077   8.867
58648SOL    HW177776  10.878  11.035   8.945
58648SOL    HW277777  10.896  11.046   8.795
58649SOL     OW77778  10.599   8.861   6.782
58649SOL    HW177779  10.619   8.800   6.712
58649SOL    HW277780  10.508   8.843   6.805
58650SOL     OW77781  10.756   7.265  10.102
58650SOL    HW177782  10.768   7.176  10.135
58650SOL    HW277783  10.800   7.321  10.166
58651SOL     OW77784   2.371   3.564   2.479
58651SOL    HW177785   2.467   3.559   2.486
58651SOL    HW277786   2.351   3.655   2.500
58652SOL     OW77787   6.079   6.345   4.072
58652SOL    HW177788   5.990   6.374   4.049
58652SOL    HW277789   6.065   6.267   4.126
58653SOL     OW77790  13.732   7.317  13.108
58653SOL    HW177791  13.757   7.226  13.120
58653SOL    HW277792  13.673   7.315  13.032
58654SOL     OW77793  10.820   6.051   0.627
58654SOL    HW177794  10.884   5.982   0.612
58654SOL    HW277795  10.871   6.132   0.629
58655SOL     OW77796   5.568   2.437   0.785
58655SOL    HW177797   5.580   2.356   0.736
58655SOL    HW277798   5.620   2.424   0.864
58656SOL     OW77799  13.303  10.460   8.593
58656SOL    HW177800  13.248  10.476   8.670
58656SOL    HW277801  13.369  10.398   8.623
58657SOL     OW77802   8.931   7.108   9.847
58657SOL    HW177803   9.023   7.115   9.821
58657SOL    HW277804   8.893   7.192   9.823
58658SOL     OW77805   6.778   1.913   7.911
58658SOL    HW177806   6.726   1.862   7.973
58658SOL    HW277807   6.755   2.004   7.931
58659SOL     OW77808   8.066   5.139   5.178
58659SOL    HW177809   8.023   5.202   5.120
58659SOL    HW277810   8.144   5.185   5.210
58660SOL     OW77811  11.416   3.217   1.169
58660SOL    HW177812  11.334   3.183   1.205
58660SOL    HW277813  11.468   3.138   1.151
58661SOL     OW77814   4.349  11.700  12.162
58661SOL    HW177815   4.348  11.765  12.091
58661SOL    HW277816   4.286  11.733  12.226
58662SOL     OW77817   2.439   4.370   2.187
58662SOL    HW177818   2.433   4.435   2.257
58662SOL    HW277819   2.350   4.361   2.154
58663SOL     OW77820   9.564  13.428   2.540
58663SOL    HW177821   9.528  13.413   2.628
58663SOL    HW277822   9.506  13.492   2.500
58664SOL     OW77823  12.424   9.273   3.458
58664SOL    HW177824  12.444   9.270   3.364
58664SOL    HW277825  12.471   9.198   3.495
58665SOL     OW77826  10.491  14.859   6.502
58665SOL    HW177827  10.499  14.764   6.490
58665SOL    HW277828  10.503   0.013   6.414
58666SOL     OW77829   5.853   1.687   0.546
58666SOL    HW177830   5.917   1.725   0.485
58666SOL    HW277831   5.793   1.638   0.490
58667SOL     OW77832   0.517   3.385  11.733
58667SOL    HW177833   0.475   3.450  11.677
58667SOL    HW277834   0.509   3.420  11.822
58668SOL     OW77835   6.948  12.614   7.295
58668SOL    HW177836   7.002  12.579   7.225
58668SOL    HW277837   6.867  12.642   7.252
58669SOL     OW77838   7.990  13.664   1.904
58669SOL    HW177839   7.988  13.621   1.990
58669SOL    HW277840   7.934  13.609   1.849
58670SOL     OW77841  14.421  10.113   6.336
58670SOL    HW177842  14.348  10.160   6.377
58670SOL    HW277843  14.380  10.062   6.266
58671SOL     OW77844  13.483  13.473   1.414
58671SOL    HW177845  13.484  13.568   1.400
58671SOL    HW277846  13.478  13.436   1.327
58672SOL     OW77847  11.525   4.919   1.723
58672SOL    HW177848  11.552   4.997   1.772
58672SOL    HW277849  11.464   4.953   1.657
58673SOL     OW77850  11.744   4.971  11.242
58673SOL    HW177851  11.703   4.979  11.156
58673SOL    HW277852  11.795   5.052  11.252
58674SOL     OW77853   9.738   2.520   6.774
58674SOL    HW177854   9.824   2.501   6.736
58674SOL    HW277855   9.751   2.601   6.824
58675SOL     OW77856   4.058   2.289  11.330
58675SOL    HW177857   4.073   2.263  11.421
58675SOL    HW277858   3.963   2.287  11.319
58676SOL     OW77859   7.550   7.000  13.799
58676SOL    HW177860   7.565   6.971  13.709
58676SOL    HW277861   7.638   7.018  13.833
58677SOL     OW77862   6.458   8.723  13.380
58677SOL    HW177863   6.535   8.680  13.418
58677SOL    HW277864   6.433   8.789  13.444
58678SOL     OW77865   5.491   0.752   9.653
58678SOL    HW177866   5.511   0.738   9.560
58678SOL    HW277867   5.400   0.724   9.662
58679SOL     OW77868   6.285   2.151   6.325
58679SOL    HW177869   6.271   2.144   6.231
58679SOL    HW277870   6.313   2.064   6.353
58680SOL     OW77871  14.499   7.310   9.357
58680SOL    HW177872  14.480   7.266   9.440
58680SOL    HW277873  14.592   7.297   9.344
58681SOL     OW77874   1.926  11.377  11.177
58681SOL    HW177875   2.010  11.415  11.152
58681SOL    HW277876   1.884  11.445  11.230
58682SOL     OW77877  10.419   9.598  12.046
58682SOL    HW177878  10.398   9.514  12.005
58682SOL    HW277879  10.513   9.595  12.059
58683SOL     OW77880   5.359   9.523   6.532
58683SOL    HW177881   5.379   9.464   6.604
58683SOL    HW277882   5.271   9.497   6.503
58684SOL     OW77883  10.520  12.685   4.667
58684SOL    HW177884  10.578  12.760   4.654
58684SOL    HW277885  10.576  12.618   4.708
58685SOL     OW77886   0.436  12.401   5.819
58685SOL    HW177887   0.393  12.438   5.742
58685SOL    HW277888   0.524  12.437   5.817
58686SOL     OW77889   7.935   3.068   9.799
58686SOL    HW177890   7.875   3.133   9.835
58686SOL    HW277891   7.912   2.987   9.846
58687SOL     OW77892   2.873   9.996   6.166
58687SOL    HW177893   2.916  10.071   6.206
58687SOL    HW277894   2.902   9.997   6.075
58688SOL     OW77895  13.219   6.409  12.789
58688SOL    HW177896  13.162   6.486  12.795
58688SOL    HW277897  13.222   6.374  12.878
58689SOL     OW77898  12.569   6.476   8.798
58689SOL    HW177899  12.511   6.407   8.830
58689SOL    HW277900  12.658   6.442   8.813
58690SOL     OW77901   6.376  12.261   8.774
58690SOL    HW177902   6.450  12.311   8.808
58690SOL    HW277903   6.337  12.318   8.707
58691SOL     OW77904   1.355   4.649  10.931
58691SOL    HW177905   1.423   4.604  10.980
58691SOL    HW277906   1.282   4.658  10.993
58692SOL     OW77907   9.924   6.217   6.341
58692SOL    HW177908   9.834   6.205   6.310
58692SOL    HW277909   9.914   6.247   6.431
58693SOL     OW77910   4.955   9.464   5.656
58693SOL    HW177911   4.914   9.458   5.570
58693SOL    HW277912   4.913   9.539   5.698
58694SOL     OW77913   7.728   8.542  10.494
58694SOL    HW177914   7.675   8.616  10.465
58694SOL    HW277915   7.775   8.575  10.571
58695SOL     OW77916   7.837   2.588   8.638
58695SOL    HW177917   7.760   2.630   8.677
58695SOL    HW277918   7.822   2.593   8.543
58696SOL     OW77919   8.375  10.520  12.253
58696SOL    HW177920   8.315  10.589  12.225
58696SOL    HW277921   8.335  10.439  12.221
58697SOL     OW77922  13.861  11.702   2.861
58697SOL    HW177923  13.793  11.689   2.927
58697SOL    HW277924  13.925  11.633   2.879
58698SOL     OW77925  12.682   8.256   2.176
58698SOL    HW177926  12.607   8.226   2.227
58698SOL    HW277927  12.694   8.189   2.109
58699SOL     OW77928   5.414  13.266   7.835
58699SOL    HW177929   5.354  13.212   7.784
58699SOL    HW277930   5.423  13.220   7.919
58700SOL     OW77931   5.772   0.847   6.398
58700SOL    HW177932   5.850   0.893   6.431
58700SOL    HW277933   5.706   0.860   6.466
58701SOL     OW77934  14.801  10.092  10.743
58701SOL    HW177935  14.822  10.175  10.700
58701SOL    HW277936  14.705  10.087  10.739
58702SOL     OW77937   5.374   8.539  10.514
58702SOL    HW177938   5.344   8.471  10.453
58702SOL    HW277939   5.293   8.584  10.541
58703SOL     OW77940  12.285   2.532  13.242
58703SOL    HW177941  12.307   2.488  13.324
58703SOL    HW277942  12.369   2.543  13.198
58704SOL     OW77943  14.081   4.283   2.798
58704SOL    HW177944  14.024   4.319   2.866
58704SOL    HW277945  14.038   4.306   2.715
58705SOL     OW77946  11.350   9.439  11.396
58705SOL    HW177947  11.403   9.448  11.474
58705SOL    HW277948  11.379   9.356  11.357
58706SOL     OW77949   7.206  12.355   8.495
58706SOL    HW177950   7.182  12.412   8.568
58706SOL    HW277951   7.169  12.269   8.518
58707SOL     OW77952   0.883   8.983   3.287
58707SOL    HW177953   0.952   9.038   3.322
58707SOL    HW277954   0.802   9.031   3.303
58708SOL     OW77955  12.021   7.945  14.437
58708SOL    HW177956  12.078   7.916  14.508
58708SOL    HW277957  11.953   7.997  14.481
58709SOL     OW77958   4.030  12.150   6.573
58709SOL    HW177959   4.068  12.233   6.544
58709SOL    HW277960   4.062  12.086   6.510
58710SOL     OW77961  13.817   2.552   7.934
58710SOL    HW177962  13.776   2.487   7.877
58710SOL    HW277963  13.841   2.624   7.875
58711SOL     OW77964   8.402   7.079   8.676
58711SOL    HW177965   8.379   7.151   8.617
58711SOL    HW277966   8.495   7.091   8.694
58712SOL     OW77967  11.351   8.997   4.859
58712SOL    HW177968  11.305   9.058   4.918
58712SOL    HW277969  11.420   8.960   4.913
58713SOL     OW77970   2.273   2.616   4.736
58713SOL    HW177971   2.320   2.699   4.745
58713SOL    HW277972   2.297   2.566   4.814
58714SOL     OW77973  12.545  13.528  12.423
58714SOL    HW177974  12.629  13.526  12.378
58714SOL    HW277975  12.550  13.458  12.488
58715SOL     OW77976   1.970   7.888   9.984
58715SOL    HW177977   1.986   7.840   9.903
58715SOL    HW277978   1.983   7.980   9.960
58716SOL     OW77979   2.473  10.166  12.626
58716SOL    HW177980   2.424  10.188  12.547
58716SOL    HW277981   2.521  10.247  12.648
58717SOL     OW77982  14.825   9.603   3.646
58717SOL    HW177983  14.837   9.598   3.551
58717SOL    HW277984  14.752   9.664   3.659
58718SOL     OW77985   7.091   0.670   4.785
58718SOL    HW177986   7.059   0.678   4.695
58718SOL    HW277987   7.017   0.634   4.834
58719SOL     OW77988   8.049   6.286   4.625
58719SOL    HW177989   8.055   6.323   4.713
58719SOL    HW277990   8.032   6.362   4.569
58720SOL     OW77991   0.178   9.321  12.200
58720SOL    HW177992   0.111   9.374  12.158
58720SOL    HW277993   0.246   9.383  12.227
58721SOL     OW77994  12.643   9.317   3.990
58721SOL    HW177995  12.589   9.310   4.069
58721SOL    HW277996  12.641   9.411   3.969
58722SOL     OW77997  13.361  10.495   2.969
58722SOL    HW177998  13.319  10.434   3.030
58722SOL    HW277999  13.398  10.438   2.901
58723SOL     OW78000   0.681   7.372   8.911
58723SOL    HW178001   0.595   7.388   8.951
58723SOL    HW278002   0.662   7.324   8.830
58724SOL     OW78003   3.693   5.310   2.143
58724SOL    HW178004   3.767   5.359   2.178
58724SOL    HW278005   3.728   5.266   2.065
58725SOL     OW78006   5.151  13.347   8.763
58725SOL    HW178007   5.158  13.440   8.785
58725SOL    HW278008   5.088  13.345   8.691
58726SOL     OW78009   6.592   5.948   1.314
58726SOL    HW178010   6.584   5.912   1.226
58726SOL    HW278011   6.555   6.036   1.308
58727SOL     OW78012  11.125   4.478   4.587
58727SOL    HW178013  11.098   4.533   4.661
58727SOL    HW278014  11.078   4.515   4.512
58728SOL     OW78015   2.889   0.864   5.147
58728SOL    HW178016   2.934   0.832   5.069
58728SOL    HW278017   2.796   0.861   5.124
58729SOL     OW78018   8.125   3.467   5.086
58729SOL    HW178019   8.060   3.434   5.148
58729SOL    HW278020   8.175   3.390   5.059
58730SOL     OW78021  13.341   0.744  12.190
58730SOL    HW178022  13.358   0.741  12.284
58730SOL    HW278023  13.295   0.663  12.170
58731SOL     OW78024   1.189  14.042   4.796
58731SOL    HW178025   1.165  13.978   4.728
58731SOL    HW278026   1.256  14.097   4.754
58732SOL     OW78027  12.765   6.351   6.748
58732SOL    HW178028  12.731   6.307   6.670
58732SOL    HW278029  12.724   6.438   6.745
58733SOL     OW78030   4.982   8.370   9.133
58733SOL    HW178031   4.942   8.440   9.082
58733SOL    HW278032   4.958   8.289   9.087
58734SOL     OW78033  12.714  12.928   3.028
58734SOL    HW178034  12.655  12.894   2.960
58734SOL    HW278035  12.801  12.919   2.990
58735SOL     OW78036   2.740   9.328  12.448
58735SOL    HW178037   2.702   9.253  12.403
58735SOL    HW278038   2.694   9.404  12.411
58736SOL     OW78039   2.049   5.756   9.783
58736SOL    HW178040   2.144   5.753   9.781
58736SOL    HW278041   2.021   5.695   9.715
58737SOL     OW78042   2.209   7.985  12.038
58737SOL    HW178043   2.169   7.917  11.984
58737SOL    HW278044   2.272   8.029  11.981
58738SOL     OW78045  11.548   0.541   0.559
58738SOL    HW178046  11.455   0.550   0.539
58738SOL    HW278047  11.555   0.570   0.651
58739SOL     OW78048  12.028  11.712   9.225
58739SOL    HW178049  12.077  11.748   9.152
58739SOL    HW278050  12.035  11.779   9.294
58740SOL     OW78051  11.133  12.669  12.234
58740SOL    HW178052  11.119  12.715  12.151
58740SOL    HW278053  11.156  12.739  12.296
58741SOL     OW78054   6.186  10.965   5.214
58741SOL    HW178055   6.261  10.939   5.160
58741SOL    HW278056   6.131  11.016   5.155
58742SOL     OW78057  14.155  11.767   4.433
58742SOL    HW178058  14.125  11.828   4.500
58742SOL    HW278059  14.182  11.689   4.481
58743SOL     OW78060   8.291  13.743  13.035
58743SOL    HW178061   8.354  13.801  12.992
58743SOL    HW278062   8.217  13.799  13.057
58744SOL     OW78063   8.508  13.627  12.166
58744SOL    HW178064   8.557  13.559  12.120
58744SOL    HW278065   8.551  13.634  12.251
58745SOL     OW78066   1.861   8.339   7.421
58745SOL    HW178067   1.855   8.428   7.386
58745SOL    HW278068   1.889   8.286   7.347
58746SOL     OW78069   8.441   7.100   1.960
58746SOL    HW178070   8.406   7.117   1.873
58746SOL    HW278071   8.392   7.025   1.992
58747SOL     OW78072   4.241   1.891   9.816
58747SOL    HW178073   4.155   1.890   9.774
58747SOL    HW278074   4.238   1.965   9.877
58748SOL     OW78075   7.214  13.271  12.440
58748SOL    HW178076   7.208  13.301  12.530
58748SOL    HW278077   7.193  13.177  12.445
58749SOL     OW78078  11.057   1.384  13.324
58749SOL    HW178079  11.014   1.361  13.407
58749SOL    HW278080  10.985   1.396  13.263
58750SOL     OW78081   2.218   1.937   5.661
58750SOL    HW178082   2.128   1.913   5.641
58750SOL    HW278083   2.213   1.982   5.745
58751SOL     OW78084  12.734   1.567   6.230
58751SOL    HW178085  12.810   1.616   6.261
58751SOL    HW278086  12.771   1.499   6.173
58752SOL     OW78087  11.656   3.139   7.155
58752SOL    HW178088  11.654   3.045   7.175
58752SOL    HW278089  11.564   3.162   7.139
58753SOL     OW78090   4.289   6.930   1.657
58753SOL    HW178091   4.327   6.952   1.742
58753SOL    HW278092   4.320   6.842   1.639
58754SOL     OW78093  13.786   1.644   0.031
58754SOL    HW178094  13.737   1.655   0.112
58754SOL    HW278095  13.754   1.563  14.875
58755SOL     OW78096   6.899   7.727   0.315
58755SOL    HW178097   6.971   7.677   0.353
58755SOL    HW278098   6.850   7.760   0.391
58756SOL     OW78099   2.610   8.528   3.637
58756SOL    HW178100   2.598   8.491   3.725
58756SOL    HW278101   2.635   8.619   3.653
58757SOL     OW78102   3.996   8.467  13.891
58757SOL    HW178103   4.038   8.438  13.972
58757SOL    HW278104   3.903   8.467  13.911
58758SOL     OW78105   0.383   3.731   7.415
58758SOL    HW178106   0.308   3.676   7.390
58758SOL    HW278107   0.409   3.775   7.334
58759SOL     OW78108   8.073  11.023   6.482
58759SOL    HW178109   8.067  11.097   6.542
58759SOL    HW278110   8.166  11.007   6.471
58760SOL     OW78111  10.119   3.638  14.222
58760SOL    HW178112  10.024   3.622  14.225
58760SOL    HW278113  10.139   3.670  14.310
58761SOL     OW78114  13.740  13.192   6.236
58761SOL    HW178115  13.746  13.163   6.327
58761SOL    HW278116  13.700  13.279   6.241
58762SOL     OW78117  13.460  12.634   9.608
58762SOL    HW178118  13.446  12.540   9.593
58762SOL    HW278119  13.549  12.650   9.577
58763SOL     OW78120   2.668   7.521   5.971
58763SOL    HW178121   2.670   7.554   6.061
58763SOL    HW278122   2.641   7.430   5.980
58764SOL     OW78123   7.097   0.616  12.662
58764SOL    HW178124   7.081   0.654  12.576
58764SOL    HW278125   7.072   0.684  12.724
58765SOL     OW78126  11.486   8.418   9.577
58765SOL    HW178127  11.504   8.466   9.496
58765SOL    HW278128  11.444   8.337   9.548
58766SOL     OW78129   6.304   2.146   3.372
58766SOL    HW178130   6.289   2.106   3.286
58766SOL    HW278131   6.334   2.235   3.352
58767SOL     OW78132   0.767   1.033  14.640
58767SOL    HW178133   0.696   1.075  14.592
58767SOL    HW278134   0.836   1.020  14.574
58768SOL     OW78135  11.829   6.593   5.143
58768SOL    HW178136  11.904   6.654   5.139
58768SOL    HW278137  11.752   6.650   5.139
58769SOL     OW78138   3.255   2.202   2.662
58769SOL    HW178139   3.238   2.266   2.592
58769SOL    HW278140   3.172   2.157   2.674
58770SOL     OW78141  12.764   0.217   8.230
58770SOL    HW178142  12.807   0.152   8.286
58770SOL    HW278143  12.753   0.174   8.146
58771SOL     OW78144   2.130   6.983  11.898
58771SOL    HW178145   2.165   6.941  11.820
58771SOL    HW278146   2.139   7.077  11.881
58772SOL     OW78147  12.271  14.232   7.648
58772SOL    HW178148  12.270  14.136   7.640
58772SOL    HW278149  12.190  14.253   7.695
58773SOL     OW78150   1.858   3.225  14.268
58773SOL    HW178151   1.843   3.157  14.333
58773SOL    HW278152   1.842   3.183  14.184
58774SOL     OW78153   1.253   5.317   6.567
58774SOL    HW178154   1.184   5.258   6.598
58774SOL    HW278155   1.282   5.279   6.484
58775SOL     OW78156   8.994   5.692  12.191
58775SOL    HW178157   8.925   5.695  12.125
58775SOL    HW278158   8.959   5.740  12.266
58776SOL     OW78159   6.137   0.704   4.955
58776SOL    HW178160   6.152   0.609   4.957
58776SOL    HW278161   6.171   0.732   4.870
58777SOL     OW78162   3.227   0.496  14.415
58777SOL    HW178163   3.239   0.417  14.363
58777SOL    HW278164   3.259   0.473  14.502
58778SOL     OW78165   2.121   2.627   9.775
58778SOL    HW178166   2.119   2.569   9.852
58778SOL    HW278167   2.138   2.568   9.702
58779SOL     OW78168   2.473   6.914   4.507
58779SOL    HW178169   2.503   6.877   4.590
58779SOL    HW278170   2.552   6.916   4.452
58780SOL     OW78171   8.069   6.025   3.754
58780SOL    HW178172   8.041   5.949   3.805
58780SOL    HW278173   7.993   6.084   3.755
58781SOL     OW78174   0.326  13.139   1.422
58781SOL    HW178175   0.303  13.067   1.363
58781SOL    HW278176   0.345  13.096   1.505
58782SOL     OW78177   5.670   7.586  10.848
58782SOL    HW178178   5.635   7.588  10.937
58782SOL    HW278179   5.762   7.562  10.859
58783SOL     OW78180   3.927  13.183  11.904
58783SOL    HW178181   3.987  13.258  11.900
58783SOL    HW278182   3.881  13.183  11.821
58784SOL     OW78183   3.678   7.629  11.140
58784SOL    HW178184   3.749   7.677  11.098
58784SOL    HW278185   3.720   7.579  11.210
58785SOL     OW78186   6.760   9.471   5.298
58785SOL    HW178187   6.776   9.473   5.392
58785SOL    HW278188   6.704   9.547   5.282
58786SOL     OW78189  14.209   9.020   5.844
58786SOL    HW178190  14.223   8.969   5.764
58786SOL    HW278191  14.290   9.009   5.894
58787SOL     OW78192   4.521   4.082   4.622
58787SOL    HW178193   4.533   4.018   4.551
58787SOL    HW278194   4.470   4.035   4.688
58788SOL     OW78195  12.693   8.002   3.809
58788SOL    HW178196  12.754   7.972   3.741
58788SOL    HW278197  12.675   7.924   3.861
58789SOL     OW78198   2.253   3.808  13.909
58789SOL    HW178199   2.269   3.868  13.836
58789SOL    HW278200   2.162   3.821  13.932
58790SOL     OW78201  10.156   7.968   2.668
58790SOL    HW178202  10.183   7.887   2.625
58790SOL    HW278203  10.159   8.034   2.599
58791SOL     OW78204  11.566   7.767   9.975
58791SOL    HW178205  11.656   7.761   9.943
58791SOL    HW278206  11.522   7.691   9.936
58792SOL     OW78207  10.780  14.459  11.867
58792SOL    HW178208  10.699  14.410  11.882
58792SOL    HW278209  10.837  14.434  11.940
58793SOL     OW78210   4.693   6.902   1.639
58793SOL    HW178211   4.758   6.912   1.569
58793SOL    HW278212   4.735   6.941   1.716
58794SOL     OW78213   6.631  11.731   5.820
58794SOL    HW178214   6.634  11.709   5.913
58794SOL    HW278215   6.723  11.732   5.792
58795SOL     OW78216  11.290  14.740   7.883
58795SOL    HW178217  11.243  14.711   7.805
58795SOL    HW278218  11.353  14.670   7.900
58796SOL     OW78219   4.258   3.481   3.688
58796SOL    HW178220   4.206   3.551   3.649
58796SOL    HW278221   4.196   3.410   3.701
58797SOL     OW78222  13.699   9.513   0.016
58797SOL    HW178223  13.603   9.521   0.020
58797SOL    HW278224  13.716   9.466  14.816
58798SOL     OW78225  14.441   1.537  13.600
58798SOL    HW178226  14.412   1.516  13.688
58798SOL    HW278227  14.496   1.463  13.574
58799SOL     OW78228  11.462  12.505   3.998
58799SOL    HW178229  11.509  12.561   4.060
58799SOL    HW278230  11.485  12.416   4.024
58800SOL     OW78231   6.776   9.420   0.242
58800SOL    HW178232   6.750   9.406   0.151
58800SOL    HW278233   6.695   9.414   0.291
58801SOL     OW78234   7.217   8.376  14.220
58801SOL    HW178235   7.125   8.365  14.244
58801SOL    HW278236   7.215   8.393  14.126
58802SOL     OW78237   4.801  12.535   9.974
58802SOL    HW178238   4.730  12.508   9.916
58802SOL    HW278239   4.857  12.589   9.918
58803SOL     OW78240   0.744   2.685   7.880
58803SOL    HW178241   0.763   2.682   7.786
58803SOL    HW278242   0.783   2.768   7.910
58804SOL     OW78243  12.982  12.931   1.979
58804SOL    HW178244  12.907  12.880   2.009
58804SOL    HW278245  12.970  13.018   2.018
58805SOL     OW78246  13.513   8.560   8.060
58805SOL    HW178247  13.550   8.585   8.144
58805SOL    HW278248  13.506   8.465   8.064
58806SOL     OW78249  13.956  12.212  13.712
58806SOL    HW178250  13.894  12.147  13.746
58806SOL    HW278251  13.977  12.180  13.624
58807SOL     OW78252   5.280   5.585   7.124
58807SOL    HW178253   5.302   5.492   7.114
58807SOL    HW278254   5.364   5.630   7.118
58808SOL     OW78255   6.141   2.871  13.395
58808SOL    HW178256   6.213   2.826  13.349
58808SOL    HW278257   6.098   2.922  13.327
58809SOL     OW78258   3.453   1.954   2.196
58809SOL    HW178259   3.384   2.017   2.217
58809SOL    HW278260   3.520   1.968   2.263
58810SOL     OW78261   8.996   8.906   6.712
58810SOL    HW178262   8.998   8.993   6.671
58810SOL    HW278263   8.960   8.848   6.645
58811SOL     OW78264   8.173  11.411  10.760
58811SOL    HW178265   8.147  11.502  10.745
58811SOL    HW278266   8.265  11.416  10.784
58812SOL     OW78267   8.592   8.683   7.341
58812SOL    HW178268   8.499   8.703   7.330
58812SOL    HW278269   8.633   8.711   7.259
58813SOL     OW78270  10.525   8.881   2.157
58813SOL    HW178271  10.430   8.869   2.160
58813SOL    HW278272  10.560   8.795   2.133
58814SOL     OW78273   9.158   7.727  14.204
58814SOL    HW178274   9.082   7.669  14.202
58814SOL    HW278275   9.139   7.794  14.138
58815SOL     OW78276  12.431   3.441  10.881
58815SOL    HW178277  12.514   3.402  10.908
58815SOL    HW278278  12.392   3.475  10.962
58816SOL     OW78279  13.800  11.508   7.382
58816SOL    HW178280  13.887  11.515   7.344
58816SOL    HW278281  13.796  11.580   7.445
58817SOL     OW78282  10.745  10.433   7.030
58817SOL    HW178283  10.826  10.409   6.986
58817SOL    HW278284  10.734  10.366   7.099
58818SOL     OW78285  14.325   2.784   6.495
58818SOL    HW178286  14.305   2.730   6.571
58818SOL    HW278287  14.353   2.721   6.428
58819SOL     OW78288   3.513   4.527   9.845
58819SOL    HW178289   3.524   4.587   9.772
58819SOL    HW278290   3.540   4.442   9.810
58820SOL     OW78291  10.304   4.266   2.920
58820SOL    HW178292  10.270   4.182   2.949
58820SOL    HW278293  10.295   4.323   2.997
58821SOL     OW78294   6.094   0.328   3.432
58821SOL    HW178295   6.189   0.324   3.443
58821SOL    HW278296   6.079   0.298   3.342
58822SOL     OW78297   5.268   2.420  10.547
58822SOL    HW178298   5.239   2.373  10.469
58822SOL    HW278299   5.315   2.355  10.598
58823SOL     OW78300  12.562   6.663  10.002
58823SOL    HW178301  12.494   6.723  10.033
58823SOL    HW278302  12.637   6.719   9.982
58824SOL     OW78303  14.428   9.906   2.752
58824SOL    HW178304  14.468   9.993   2.748
58824SOL    HW278305  14.492   9.852   2.800
58825SOL     OW78306   5.423  14.004   6.807
58825SOL    HW178307   5.514  14.010   6.779
58825SOL    HW278308   5.425  14.021   6.901
58826SOL     OW78309   7.528  13.148   6.022
58826SOL    HW178310   7.619  13.154   6.051
58826SOL    HW278311   7.533  13.150   5.927
58827SOL     OW78312  12.384  13.878   8.419
58827SOL    HW178313  12.366  13.934   8.344
58827SOL    HW278314  12.322  13.806   8.412
58828SOL     OW78315  14.076  12.162  14.098
58828SOL    HW178316  14.143  12.197  14.039
58828SOL    HW278317  14.124  12.104  14.157
58829SOL     OW78318  10.428   9.686  14.214
58829SOL    HW178319  10.450   9.603  14.173
58829SOL    HW278320  10.431   9.750  14.143
58830SOL     OW78321   1.384   5.267   7.618
58830SOL    HW178322   1.385   5.315   7.701
58830SOL    HW278323   1.469   5.222   7.616
58831SOL     OW78324   0.578   6.606   1.373
58831SOL    HW178325   0.539   6.624   1.459
58831SOL    HW278326   0.548   6.678   1.318
58832SOL     OW78327   5.085  13.731   7.076
58832SOL    HW178328   5.105  13.658   7.016
58832SOL    HW278329   5.168  13.777   7.085
58833SOL     OW78330  10.271   4.034   4.351
58833SOL    HW178331  10.209   3.990   4.293
58833SOL    HW278332  10.222   4.053   4.430
58834SOL     OW78333   5.570   5.598  14.231
58834SOL    HW178334   5.491   5.641  14.264
58834SOL    HW278335   5.538   5.528  14.174
58835SOL     OW78336   8.359   3.106   5.363
58835SOL    HW178337   8.297   3.040   5.333
58835SOL    HW278338   8.305   3.181   5.388
58836SOL     OW78339   4.458   4.220  14.463
58836SOL    HW178340   4.394   4.232  14.393
58836SOL    HW278341   4.412   4.248  14.542
58837SOL     OW78342   1.814   8.244  12.971
58837SOL    HW178343   1.787   8.214  12.884
58837SOL    HW278344   1.908   8.231  12.973
58838SOL     OW78345  12.092   7.525   9.104
58838SOL    HW178346  12.000   7.552   9.103
58838SOL    HW278347  12.102   7.478   9.187
58839SOL     OW78348  10.016   2.788  12.075
58839SOL    HW178349  10.110   2.801  12.059
58839SOL    HW278350   9.975   2.869  12.045
58840SOL     OW78351   9.821   0.155   7.370
58840SOL    HW178352   9.808   0.118   7.458
58840SOL    HW278353   9.914   0.179   7.368
58841SOL     OW78354  12.938  13.720   4.216
58841SOL    HW178355  12.902  13.632   4.206
58841SOL    HW278356  12.877  13.776   4.169
58842SOL     OW78357   1.386   9.061   0.765
58842SOL    HW178358   1.305   9.081   0.718
58842SOL    HW278359   1.363   8.989   0.823
58843SOL     OW78360  12.503   7.013   7.662
58843SOL    HW178361  12.576   7.062   7.699
58843SOL    HW278362  12.441   7.080   7.634
58844SOL     OW78363   6.670   9.978   1.428
58844SOL    HW178364   6.659  10.034   1.352
58844SOL    HW278365   6.763   9.988   1.452
58845SOL     OW78366   8.562   7.546   7.062
58845SOL    HW178367   8.529   7.506   6.982
58845SOL    HW278368   8.497   7.613   7.083
58846SOL     OW78369  12.959  13.088  12.217
58846SOL    HW178370  12.981  13.090  12.311
58846SOL    HW278371  12.980  12.999  12.189
58847SOL     OW78372   9.557  11.001   4.512
58847SOL    HW178373   9.616  10.983   4.439
58847SOL    HW278374   9.586  11.086   4.546
58848SOL     OW78375   3.077   4.419   1.296
58848SOL    HW178376   3.072   4.364   1.374
58848SOL    HW278377   3.126   4.496   1.325
58849SOL     OW78378   0.406   6.619  10.075
58849SOL    HW178379   0.371   6.636  10.162
58849SOL    HW278380   0.411   6.523  10.070
58850SOL     OW78381   3.932  14.292   9.668
58850SOL    HW178382   3.970  14.288   9.756
58850SOL    HW278383   4.008  14.282   9.610
58851SOL     OW78384  11.171  10.003   5.547
58851SOL    HW178385  11.196  10.083   5.594
58851SOL    HW278386  11.097  10.030   5.492
58852SOL     OW78387   7.619   1.656   3.797
58852SOL    HW178388   7.534   1.700   3.785
58852SOL    HW278389   7.672   1.720   3.845
58853SOL     OW78390   8.663   8.194   9.038
58853SOL    HW178391   8.729   8.212   8.972
58853SOL    HW278392   8.653   8.099   9.038
58854SOL     OW78393   0.653   8.297  10.549
58854SOL    HW178394   0.744   8.301  10.579
58854SOL    HW278395   0.657   8.330  10.459
58855SOL     OW78396  14.669   0.006  11.419
58855SOL    HW178397  14.733  14.855  11.356
58855SOL    HW278398  14.714  14.881  11.504
58856SOL     OW78399   7.320   5.569   9.627
58856SOL    HW178400   7.399   5.602   9.669
58856SOL    HW278401   7.298   5.635   9.561
58857SOL     OW78402  11.596   2.467   2.663
58857SOL    HW178403  11.666   2.517   2.620
58857SOL    HW278404  11.567   2.404   2.598
58858SOL     OW78405   8.610   1.749   8.518
58858SOL    HW178406   8.557   1.687   8.469
58858SOL    HW278407   8.634   1.816   8.454
58859SOL     OW78408  10.657  11.008  13.694
58859SOL    HW178409  10.596  10.985  13.764
58859SOL    HW278410  10.608  10.993  13.613
58860SOL     OW78411   2.645   2.733   4.228
58860SOL    HW178412   2.636   2.806   4.289
58860SOL    HW278413   2.612   2.657   4.277
58861SOL     OW78414   4.640  13.044   1.920
58861SOL    HW178415   4.587  13.106   1.969
58861SOL    HW278416   4.724  13.088   1.909
58862SOL     OW78417   3.369   2.232   3.144
58862SOL    HW178418   3.460   2.203   3.146
58862SOL    HW278419   3.322   2.158   3.105
58863SOL     OW78420   5.271   7.193   6.062
58863SOL    HW178421   5.252   7.111   6.017
58863SOL    HW278422   5.237   7.261   6.004
58864SOL     OW78423  12.351  10.612  10.161
58864SOL    HW178424  12.256  10.603  10.160
58864SOL    HW278425  12.378  10.578  10.246
58865SOL     OW78426   0.680  10.027   1.071
58865SOL    HW178427   0.659  10.034   1.164
58865SOL    HW278428   0.651  10.111   1.034
58866SOL     OW78429   4.969   6.620   0.495
58866SOL    HW178430   5.056   6.579   0.492
58866SOL    HW278431   4.914   6.564   0.441
58867SOL     OW78432   5.564  10.933   3.114
58867SOL    HW178433   5.623  10.859   3.121
58867SOL    HW278434   5.476  10.895   3.121
58868SOL     OW78435   5.409   7.996   6.923
58868SOL    HW178436   5.434   8.039   6.841
58868SOL    HW278437   5.350   7.925   6.896
58869SOL     OW78438   3.262   9.775   5.140
58869SOL    HW178439   3.342   9.742   5.181
58869SOL    HW278440   3.267   9.744   5.049
58870SOL     OW78441   7.851   6.129   5.011
58870SOL    HW178442   7.849   6.034   5.018
58870SOL    HW278443   7.781   6.151   4.950
58871SOL     OW78444   7.884   3.052   7.822
58871SOL    HW178445   7.824   3.002   7.767
58871SOL    HW278446   7.960   2.996   7.834
58872SOL     OW78447   3.235   2.013   4.125
58872SOL    HW178448   3.285   2.090   4.099
58872SOL    HW278449   3.283   1.977   4.199
58873SOL     OW78450   4.578   8.017   5.018
58873SOL    HW178451   4.672   8.010   5.034
58873SOL    HW278452   4.567   8.101   4.973
58874SOL     OW78453   5.495  12.659   7.747
58874SOL    HW178454   5.512  12.716   7.822
58874SOL    HW278455   5.574  12.663   7.694
58875SOL     OW78456   3.442   1.453   0.467
58875SOL    HW178457   3.528   1.474   0.430
58875SOL    HW278458   3.417   1.371   0.424
58876SOL     OW78459   8.997   9.585   1.065
58876SOL    HW178460   9.034   9.561   1.150
58876SOL    HW278461   9.031   9.520   1.004
58877SOL     OW78462   7.679   8.548   6.743
58877SOL    HW178463   7.602   8.563   6.687
58877SOL    HW278464   7.683   8.453   6.753
58878SOL     OW78465  13.187   9.063   3.665
58878SOL    HW178466  13.226   8.980   3.636
58878SOL    HW278467  13.156   9.045   3.754
58879SOL     OW78468   1.954   7.900   4.526
58879SOL    HW178469   2.006   7.821   4.538
58879SOL    HW278470   1.979   7.933   4.439
58880SOL     OW78471   3.655   7.939   2.860
58880SOL    HW178472   3.601   7.989   2.799
58880SOL    HW278473   3.611   7.949   2.945
58881SOL     OW78474   4.219  11.407   7.093
58881SOL    HW178475   4.300  11.410   7.043
58881SOL    HW278476   4.150  11.427   7.030
58882SOL     OW78477   6.067   7.463  13.365
58882SOL    HW178478   6.093   7.531  13.302
58882SOL    HW278479   6.150   7.426  13.395
58883SOL     OW78480   3.549  14.222  12.340
58883SOL    HW178481   3.531  14.305  12.384
58883SOL    HW278482   3.463  14.182  12.328
58884SOL     OW78483   2.916   0.611   0.411
58884SOL    HW178484   2.980   0.548   0.379
58884SOL    HW278485   2.890   0.661   0.333
58885SOL     OW78486  14.121   9.632   0.059
58885SOL    HW178487  14.072   9.610  14.862
58885SOL    HW278488  14.068   9.599   0.131
58886SOL     OW78489  11.652   7.803   2.548
58886SOL    HW178490  11.711   7.850   2.489
58886SOL    HW278491  11.636   7.865   2.620
58887SOL     OW78492  13.044   1.195   5.389
58887SOL    HW178493  12.950   1.178   5.382
58887SOL    HW278494  13.055   1.283   5.353
58888SOL     OW78495  10.784   9.244   3.738
58888SOL    HW178496  10.857   9.218   3.682
58888SOL    HW278497  10.718   9.176   3.725
58889SOL     OW78498  14.287  12.025   1.845
58889SOL    HW178499  14.255  11.985   1.764
58889SOL    HW278500  14.208  12.057   1.889
58890SOL     OW78501  10.306  14.000   0.226
58890SOL    HW178502  10.292  14.040   0.312
58890SOL    HW278503  10.401  13.988   0.221
58891SOL     OW78504   7.909  11.421   7.886
58891SOL    HW178505   7.907  11.370   7.967
58891SOL    HW278506   7.818  11.422   7.857
58892SOL     OW78507   4.606   1.690   9.523
58892SOL    HW178508   4.593   1.616   9.582
58892SOL    HW278509   4.657   1.753   9.573
58893SOL     OW78510  13.847  12.971  13.524
58893SOL    HW178511  13.799  12.939  13.448
58893SOL    HW278512  13.884  12.893  13.565
58894SOL     OW78513   1.555  12.736  13.452
58894SOL    HW178514   1.619  12.801  13.477
58894SOL    HW278515   1.486  12.785  13.406
58895SOL     OW78516   4.380   8.370   6.051
58895SOL    HW178517   4.372   8.417   6.134
58895SOL    HW278518   4.348   8.433   5.986
58896SOL     OW78519  10.201  14.500   6.904
58896SOL    HW178520  10.221  14.567   6.970
58896SOL    HW278521  10.165  14.549   6.830
58897SOL     OW78522  11.496   3.582   0.149
58897SOL    HW178523  11.539   3.513   0.098
58897SOL    HW278524  11.404   3.556   0.151
58898SOL     OW78525  12.109   3.061  14.488
58898SOL    HW178526  12.142   3.150  14.475
58898SOL    HW278527  12.146   3.011  14.415
58899SOL     OW78528   2.081   6.504   7.869
58899SOL    HW178529   2.157   6.456   7.836
58899SOL    HW278530   2.006   6.450   7.845
58900SOL     OW78531   3.719  12.995   0.162
58900SOL    HW178532   3.688  13.062   0.223
58900SOL    HW278533   3.690  13.026   0.076
58901SOL     OW78534   5.580  14.123   3.443
58901SOL    HW178535   5.611  14.033   3.439
58901SOL    HW278536   5.487  14.118   3.422
58902SOL     OW78537   1.311   7.675  14.002
58902SOL    HW178538   1.348   7.704  13.918
58902SOL    HW278539   1.244   7.741  14.022
58903SOL     OW78540  10.823  12.223  12.288
58903SOL    HW178541  10.830  12.204  12.382
58903SOL    HW278542  10.863  12.310  12.279
58904SOL     OW78543  11.580   7.965   7.646
58904SOL    HW178544  11.556   8.055   7.623
58904SOL    HW278545  11.666   7.974   7.688
58905SOL     OW78546  11.418   1.458   7.809
58905SOL    HW178547  11.406   1.381   7.865
58905SOL    HW278548  11.379   1.433   7.726
58906SOL     OW78549  13.333   5.359  10.657
58906SOL    HW178550  13.381   5.433  10.618
58906SOL    HW278551  13.340   5.373  10.751
58907SOL     OW78552   7.487  12.303  10.711
58907SOL    HW178553   7.488  12.230  10.650
58907SOL    HW278554   7.404  12.348  10.693
58908SOL     OW78555   5.360   9.180  10.185
58908SOL    HW178556   5.414   9.243  10.233
58908SOL    HW278557   5.414   9.101  10.179
58909SOL     OW78558   9.093   8.997  12.179
58909SOL    HW178559   9.172   8.943  12.178
58909SOL    HW278560   9.125   9.086  12.166
58910SOL     OW78561  10.188  13.616   2.526
58910SOL    HW178562  10.179  13.575   2.612
58910SOL    HW278563  10.107  13.594   2.480
58911SOL     OW78564   4.523   3.165   7.468
58911SOL    HW178565   4.584   3.212   7.412
58911SOL    HW278566   4.546   3.192   7.557
58912SOL     OW78567  12.757  13.478  13.442
58912SOL    HW178568  12.710  13.502  13.522
58912SOL    HW278569  12.796  13.560  13.412
58913SOL     OW78570  10.220  11.922   5.677
58913SOL    HW178571  10.186  11.840   5.714
58913SOL    HW278572  10.187  11.990   5.736
58914SOL     OW78573   3.710   6.278   0.497
58914SOL    HW178574   3.794   6.233   0.490
58914SOL    HW278575   3.728   6.367   0.469
58915SOL     OW78576  13.913   5.843   2.349
58915SOL    HW178577  13.829   5.816   2.312
58915SOL    HW278578  13.900   5.838   2.444
58916SOL     OW78579   3.153   5.495  13.074
58916SOL    HW178580   3.238   5.458  13.049
58916SOL    HW278581   3.158   5.587  13.046
58917SOL     OW78582   3.178  10.386  14.818
58917SOL    HW178583   3.186  10.426   0.023
58917SOL    HW278584   3.143  10.299  14.835
58918SOL     OW78585   9.793   7.444  13.711
58918SOL    HW178586   9.704   7.419  13.735
58918SOL    HW278587   9.784   7.531  13.671
58919SOL     OW78588   0.248   7.372   2.612
58919SOL    HW178589   0.278   7.463   2.620
58919SOL    HW278590   0.306   7.323   2.671
58920SOL     OW78591   6.922   8.417   4.932
58920SOL    HW178592   6.969   8.494   4.965
58920SOL    HW278593   6.966   8.342   4.973
58921SOL     OW78594   7.705   6.437   2.311
58921SOL    HW178595   7.682   6.361   2.365
58921SOL    HW278596   7.650   6.507   2.344
58922SOL     OW78597  12.503  13.975   7.482
58922SOL    HW178598  12.437  13.955   7.548
58922SOL    HW278599  12.567  14.029   7.527
58923SOL     OW78600   3.467  11.426   1.213
58923SOL    HW178601   3.521  11.410   1.290
58923SOL    HW278602   3.489  11.355   1.153
58924SOL     OW78603   2.112   7.891   2.000
58924SOL    HW178604   2.085   7.971   1.956
58924SOL    HW278605   2.206   7.904   2.017
58925SOL     OW78606  14.199   0.170   7.514
58925SOL    HW178607  14.246   0.087   7.520
58925SOL    HW278608  14.264   0.237   7.533
58926SOL     OW78609   1.143  12.069   4.715
58926SOL    HW178610   1.124  12.052   4.807
58926SOL    HW278611   1.225  12.021   4.698
58927SOL     OW78612   3.181  13.371   6.048
58927SOL    HW178613   3.208  13.283   6.075
58927SOL    HW278614   3.204  13.376   5.955
58928SOL     OW78615   8.773  13.566  10.676
58928SOL    HW178616   8.841  13.552  10.610
58928SOL    HW278617   8.742  13.655  10.660
58929SOL     OW78618  11.127   5.348   6.956
58929SOL    HW178619  11.081   5.289   7.015
58929SOL    HW278620  11.106   5.317   6.868
58930SOL     OW78621   8.496  11.560  10.438
58930SOL    HW178622   8.508  11.466  10.426
58930SOL    HW278623   8.402  11.574  10.429
58931SOL     OW78624   3.887   6.091   9.956
58931SOL    HW178625   3.868   6.165   9.899
58931SOL    HW278626   3.832   6.105  10.033
58932SOL     OW78627   6.391   4.537   3.490
58932SOL    HW178628   6.336   4.598   3.441
58932SOL    HW278629   6.369   4.451   3.455
58933SOL     OW78630  12.978   0.087   3.540
58933SOL    HW178631  12.898   0.085   3.488
58933SOL    HW278632  13.029   0.013   3.507
58934SOL     OW78633   8.214   7.268  12.950
58934SOL    HW178634   8.235   7.272  13.043
58934SOL    HW278635   8.296   7.290  12.906
58935SOL     OW78636  11.211   5.992   7.278
58935SOL    HW178637  11.272   5.934   7.232
58935SOL    HW278638  11.264   6.033   7.346
58936SOL     OW78639  13.600   0.591   3.626
58936SOL    HW178640  13.548   0.592   3.546
58936SOL    HW278641  13.596   0.681   3.658
58937SOL     OW78642  10.060  11.780   3.344
58937SOL    HW178643  10.029  11.845   3.408
58937SOL    HW278644   9.986  11.722   3.332
58938SOL     OW78645   7.400   6.118   2.927
58938SOL    HW178646   7.359   6.183   2.984
58938SOL    HW278647   7.454   6.168   2.867
58939SOL     OW78648   0.527  14.432  12.226
58939SOL    HW178649   0.531  14.463  12.136
58939SOL    HW278650   0.461  14.487  12.268
58940SOL     OW78651   4.021   0.422  13.418
58940SOL    HW178652   4.033   0.333  13.452
58940SOL    HW278653   4.049   0.479  13.489
58941SOL     OW78654  13.805  14.651  14.355
58941SOL    HW178655  13.849  14.692  14.280
58941SOL    HW278656  13.871  14.593  14.393
58942SOL     OW78657   8.966  10.088   8.715
58942SOL    HW178658   8.925  10.147   8.778
58942SOL    HW278659   8.894  10.032   8.685
58943SOL     OW78660  12.363  10.888   8.089
58943SOL    HW178661  12.377  10.882   7.994
58943SOL    HW278662  12.412  10.815   8.125
58944SOL     OW78663  12.681   3.607   2.551
58944SOL    HW178664  12.713   3.519   2.527
58944SOL    HW278665  12.627   3.633   2.477
58945SOL     OW78666   6.614   2.971   5.800
58945SOL    HW178667   6.574   2.954   5.885
58945SOL    HW278668   6.544   2.953   5.737
58946SOL     OW78669   6.858   6.724   2.529
58946SOL    HW178670   6.784   6.699   2.474
58946SOL    HW278671   6.826   6.715   2.619
58947SOL     OW78672  10.963   2.011  12.321
58947SOL    HW178673  11.058   2.009  12.311
58947SOL    HW278674  10.947   2.002  12.415
58948SOL     OW78675  12.043   8.962   9.326
58948SOL    HW178676  12.084   9.042   9.293
58948SOL    HW278677  12.075   8.893   9.268
58949SOL     OW78678   1.336   6.805   3.706
58949SOL    HW178679   1.271   6.873   3.725
58949SOL    HW278680   1.421   6.851   3.714
58950SOL     OW78681   0.091   2.590   8.522
58950SOL    HW178682   0.166   2.533   8.535
58950SOL    HW278683   0.121   2.676   8.551
58951SOL     OW78684   0.207   8.653   1.443
58951SOL    HW178685   0.187   8.562   1.422
58951SOL    HW278686   0.122   8.693   1.461
58952SOL     OW78687   8.352  14.275  14.736
58952SOL    HW178688   8.340  14.360  14.778
58952SOL    HW278689   8.412  14.292  14.663
58953SOL     OW78690   7.409  10.296   5.240
58953SOL    HW178691   7.383  10.265   5.153
58953SOL    HW278692   7.484  10.241   5.264
58954SOL     OW78693  12.716   0.450   8.349
58954SOL    HW178694  12.624   0.435   8.373
58954SOL    HW278695  12.741   0.369   8.304
58955SOL     OW78696   6.374   6.089   0.870
58955SOL    HW178697   6.309   6.066   0.936
58955SOL    HW278698   6.409   6.174   0.898
58956SOL     OW78699   4.843   0.044  12.797
58956SOL    HW178700   4.933   0.029  12.826
58956SOL    HW278701   4.807  14.838  12.785
58957SOL     OW78702  13.391   8.717   1.377
58957SOL    HW178703  13.450   8.643   1.366
58957SOL    HW278704  13.389   8.760   1.291
58958SOL     OW78705   2.746   5.364   0.379
58958SOL    HW178706   2.724   5.428   0.447
58958SOL    HW278707   2.837   5.383   0.357
58959SOL     OW78708   6.271  13.986  11.787
58959SOL    HW178709   6.280  14.056  11.723
58959SOL    HW278710   6.344  13.926  11.769
58960SOL     OW78711  12.718   5.257   4.605
58960SOL    HW178712  12.679   5.177   4.568
58960SOL    HW278713  12.812   5.244   4.594
58961SOL     OW78714   6.870   2.049   0.022
58961SOL    HW178715   6.785   2.041   0.063
58961SOL    HW278716   6.858   2.115  14.836
58962SOL     OW78717   7.338   3.705   7.446
58962SOL    HW178718   7.396   3.722   7.520
58962SOL    HW278719   7.297   3.621   7.466
58963SOL     OW78720   6.273  14.420   1.326
58963SOL    HW178721   6.179  14.408   1.330
58963SOL    HW278722   6.309  14.348   1.378
58964SOL     OW78723  14.349   4.610   8.320
58964SOL    HW178724  14.281   4.551   8.289
58964SOL    HW278725  14.322   4.634   8.409
58965SOL     OW78726   3.545  14.785   9.639
58965SOL    HW178727   3.523  14.705   9.592
58965SOL    HW278728   3.482  14.787   9.712
58966SOL     OW78729   5.615   6.797  14.074
58966SOL    HW178730   5.548   6.754  14.128
58966SOL    HW278731   5.697   6.781  14.122
58967SOL     OW78732  10.426   2.195   7.216
58967SOL    HW178733  10.425   2.175   7.309
58967SOL    HW278734  10.335   2.183   7.189
58968SOL     OW78735   9.752   7.219   5.479
58968SOL    HW178736   9.683   7.223   5.412
58968SOL    HW278737   9.708   7.248   5.560
58969SOL     OW78738  14.341   6.685   9.276
58969SOL    HW178739  14.339   6.780   9.288
58969SOL    HW278740  14.396   6.653   9.347
58970SOL     OW78741   7.331   1.011   8.888
58970SOL    HW178742   7.238   1.021   8.906
58970SOL    HW278743   7.335   0.985   8.795
58971SOL     OW78744  13.817   8.042   3.714
58971SOL    HW178745  13.795   7.951   3.691
58971SOL    HW278746  13.815   8.044   3.809
58972SOL     OW78747   6.010  13.665  14.703
58972SOL    HW178748   6.020  13.760  14.706
58972SOL    HW278749   6.096  13.631  14.726
58973SOL     OW78750   4.877  11.530   2.179
58973SOL    HW178751   4.812  11.582   2.131
58973SOL    HW278752   4.825  11.466   2.228
58974SOL     OW78753   3.728  12.422   5.430
58974SOL    HW178754   3.637  12.447   5.414
58974SOL    HW278755   3.727  12.381   5.517
58975SOL     OW78756   6.298  13.074  13.563
58975SOL    HW178757   6.245  13.072  13.484
58975SOL    HW278758   6.240  13.044  13.633
58976SOL     OW78759  14.562  11.068   7.757
58976SOL    HW178760  14.538  11.130   7.689
58976SOL    HW278761  14.519  11.101   7.836
58977SOL     OW78762   4.017   7.934  10.890
58977SOL    HW178763   4.083   7.979  10.838
58977SOL    HW278764   3.939   7.932  10.833
58978SOL     OW78765  14.445   4.535  13.646
58978SOL    HW178766  14.392   4.489  13.711
58978SOL    HW278767  14.380   4.571  13.584
58979SOL     OW78768  11.680  11.961   4.090
58979SOL    HW178769  11.726  11.968   4.173
58979SOL    HW278770  11.749  11.948   4.025
58980SOL     OW78771  14.742   4.794  14.139
58980SOL    HW178772  14.650   4.770  14.154
58980SOL    HW278773  14.738   4.883  14.106
58981SOL     OW78774   9.336   1.881   8.454
58981SOL    HW178775   9.368   1.808   8.507
58981SOL    HW278776   9.277   1.841   8.391
58982SOL     OW78777  11.400   9.149   6.500
58982SOL    HW178778  11.386   9.212   6.571
58982SOL    HW278779  11.314   9.110   6.485
58983SOL     OW78780   7.242   6.184   4.387
58983SOL    HW178781   7.194   6.104   4.411
58983SOL    HW278782   7.254   6.231   4.469
58984SOL     OW78783   5.447   2.904   5.454
58984SOL    HW178784   5.529   2.876   5.413
58984SOL    HW278785   5.449   2.999   5.451
58985SOL     OW78786   1.975   8.760   1.069
58985SOL    HW178787   1.923   8.709   1.006
58985SOL    HW278788   1.966   8.850   1.040
58986SOL     OW78789   9.141  11.684   6.233
58986SOL    HW178790   9.184  11.762   6.198
58986SOL    HW278791   9.076  11.718   6.295
58987SOL     OW78792   9.472  14.454  13.014
58987SOL    HW178793   9.533  14.437  12.942
58987SOL    HW278794   9.528  14.468  13.090
58988SOL     OW78795   9.647   6.070   3.433
58988SOL    HW178796   9.702   6.002   3.394
58988SOL    HW278797   9.709   6.125   3.481
58989SOL     OW78798   1.980  13.716  12.414
58989SOL    HW178799   1.946  13.697  12.327
58989SOL    HW278800   1.902  13.724  12.469
58990SOL     OW78801   1.170   5.574   6.855
58990SOL    HW178802   1.102   5.552   6.919
58990SOL    HW278803   1.124   5.584   6.772
58991SOL     OW78804   6.211   1.199  14.461
58991SOL    HW178805   6.148   1.128  14.466
58991SOL    HW278806   6.247   1.193  14.372
58992SOL     OW78807   3.823  11.687   9.830
58992SOL    HW178808   3.909  11.686   9.873
58992SOL    HW278809   3.800  11.594   9.821
58993SOL     OW78810   7.368  14.342   1.805
58993SOL    HW178811   7.452  14.298   1.801
58993SOL    HW278812   7.373  14.409   1.736
58994SOL     OW78813  12.490   4.293  12.933
58994SOL    HW178814  12.435   4.372  12.931
58994SOL    HW278815  12.571   4.322  12.975
58995SOL     OW78816   7.113   8.328  11.328
58995SOL    HW178817   7.193   8.312  11.378
58995SOL    HW278818   7.072   8.242  11.320
58996SOL     OW78819   4.122   8.171   3.751
58996SOL    HW178820   4.103   8.093   3.803
58996SOL    HW278821   4.195   8.146   3.695
58997SOL     OW78822   4.883   7.234   3.819
58997SOL    HW178823   4.821   7.160   3.815
58997SOL    HW278824   4.907   7.239   3.911
58998SOL     OW78825   6.812   6.221   0.470
58998SOL    HW178826   6.854   6.135   0.463
58998SOL    HW278827   6.754   6.214   0.545
58999SOL     OW78828  10.730   8.265  13.661
58999SOL    HW178829  10.717   8.192  13.601
58999SOL    HW278830  10.776   8.227  13.736
59000SOL     OW78831   8.514   5.147  10.253
59000SOL    HW178832   8.433   5.130  10.301
59000SOL    HW278833   8.515   5.242  10.239
59001SOL     OW78834  10.803   4.411   4.995
59001SOL    HW178835  10.761   4.436   4.913
59001SOL    HW278836  10.785   4.318   5.004
59002SOL     OW78837   9.090   6.844   1.037
59002SOL    HW178838   9.004   6.825   1.000
59002SOL    HW278839   9.110   6.767   1.091
59003SOL     OW78840  14.728   3.317   4.076
59003SOL    HW178841  14.758   3.267   4.000
59003SOL    HW278842  14.655   3.266   4.111
59004SOL     OW78843  12.029  14.215   8.080
59004SOL    HW178844  12.099  14.201   8.016
59004SOL    HW278845  12.049  14.154   8.151
59005SOL     OW78846   8.450   8.466   5.784
59005SOL    HW178847   8.379   8.451   5.847
59005SOL    HW278848   8.474   8.379   5.754
59006SOL     OW78849  13.529   4.078  10.374
59006SOL    HW178850  13.557   4.004  10.428
59006SOL    HW278851  13.443   4.052  10.341
59007SOL     OW78852  10.423  13.017   3.823
59007SOL    HW178853  10.499  12.964   3.851
59007SOL    HW278854  10.462  13.093   3.780
59008SOL     OW78855  11.368  11.584   8.185
59008SOL    HW178856  11.444  11.543   8.145
59008SOL    HW278857  11.405  11.637   8.256
59009SOL     OW78858   0.882   0.137  13.433
59009SOL    HW178859   0.964   0.167  13.395
59009SOL    HW278860   0.816   0.198  13.399
59010SOL     OW78861  11.749   4.721  11.354
59010SOL    HW178862  11.713   4.801  11.315
59010SOL    HW278863  11.842   4.724  11.333
59011SOL     OW78864   5.158   9.057  14.570
59011SOL    HW178865   5.240   9.090  14.533
59011SOL    HW278866   5.143   9.112  14.647
59012SOL     OW78867  13.062   9.625   9.333
59012SOL    HW178868  13.135   9.668   9.377
59012SOL    HW278869  13.103   9.559   9.278
59013SOL     OW78870   2.948   8.731   6.678
59013SOL    HW178871   2.982   8.752   6.765
59013SOL    HW278872   2.862   8.691   6.695
59014SOL     OW78873   7.363   3.598  10.968
59014SOL    HW178874   7.377   3.691  10.981
59014SOL    HW278875   7.410   3.556  11.040
59015SOL     OW78876   5.873  11.816   4.493
59015SOL    HW178877   5.868  11.815   4.589
59015SOL    HW278878   5.933  11.745   4.472
59016SOL     OW78879   0.329  11.850   6.572
59016SOL    HW178880   0.306  11.794   6.646
59016SOL    HW278881   0.423  11.837   6.560
59017SOL     OW78882  10.655   5.388  12.502
59017SOL    HW178883  10.559   5.388  12.495
59017SOL    HW278884  10.680   5.300  12.475
59018SOL     OW78885   2.467   0.669   8.586
59018SOL    HW178886   2.438   0.589   8.541
59018SOL    HW278887   2.560   0.654   8.604
59019SOL     OW78888   0.906  11.066  11.754
59019SOL    HW178889   0.877  11.049  11.665
59019SOL    HW278890   0.831  11.041  11.809
59020SOL     OW78891  10.413  14.048   1.404
59020SOL    HW178892  10.318  14.051   1.416
59020SOL    HW278893  10.426  14.042   1.310
59021SOL     OW78894   8.097   9.649   3.428
59021SOL    HW178895   8.144   9.589   3.486
59021SOL    HW278896   8.166   9.688   3.373
59022SOL     OW78897  13.053   6.700   5.831
59022SOL    HW178898  13.001   6.774   5.802
59022SOL    HW278899  13.126   6.697   5.770
59023SOL     OW78900   3.299  13.406   6.734
59023SOL    HW178901   3.381  13.372   6.698
59023SOL    HW278902   3.322  13.492   6.769
59024SOL     OW78903   9.857   3.491   2.061
59024SOL    HW178904   9.817   3.408   2.037
59024SOL    HW278905   9.790   3.557   2.040
59025SOL     OW78906  13.405   5.071  10.695
59025SOL    HW178907  13.424   4.983  10.726
59025SOL    HW278908  13.353   5.057  10.616
59026SOL     OW78909  14.139   3.121   3.079
59026SOL    HW178910  14.199   3.132   3.152
59026SOL    HW278911  14.164   3.189   3.016
59027SOL     OW78912   1.134   4.833   7.525
59027SOL    HW178913   1.144   4.928   7.526
59027SOL    HW278914   1.093   4.813   7.441
59028SOL     OW78915  10.852  10.152  12.731
59028SOL    HW178916  10.932  10.191  12.765
59028SOL    HW278917  10.822  10.212  12.663
59029SOL     OW78918   4.619   9.670   2.485
59029SOL    HW178919   4.547   9.608   2.473
59029SOL    HW278920   4.579   9.755   2.468
59030SOL     OW78921   0.129  10.951  14.568
59030SOL    HW178922   0.069  10.876  14.573
59030SOL    HW278923   0.213  10.913  14.543
59031SOL     OW78924  13.654   7.573  13.781
59031SOL    HW178925  13.696   7.592  13.865
59031SOL    HW278926  13.669   7.651  13.728
59032SOL     OW78927   6.267   2.573  13.533
59032SOL    HW178928   6.340   2.511  13.536
59032SOL    HW278929   6.190   2.519  13.553
59033SOL     OW78930   6.832  14.258  14.400
59033SOL    HW178931   6.747  14.259  14.444
59033SOL    HW278932   6.853  14.165  14.390
59034SOL     OW78933   6.541   0.174   5.220
59034SOL    HW178934   6.466   0.232   5.211
59034SOL    HW278935   6.554   0.166   5.315
59035SOL     OW78936   0.484   0.528   9.727
59035SOL    HW178937   0.579   0.536   9.727
59035SOL    HW278938   0.468   0.438   9.697
59036SOL     OW78939  11.214  11.135   3.854
59036SOL    HW178940  11.188  11.152   3.945
59036SOL    HW278941  11.186  11.213   3.806
59037SOL     OW78942   1.631   9.516  10.688
59037SOL    HW178943   1.724   9.505  10.707
59037SOL    HW278944   1.588   9.453  10.746
59038SOL     OW78945  14.872  13.065   6.581
59038SOL    HW178946  14.850  12.998   6.647
59038SOL    HW278947   0.079  13.043   6.553
59039SOL     OW78948  10.418   1.959  11.490
59039SOL    HW178949  10.447   1.960  11.581
59039SOL    HW278950  10.487   2.006  11.442
59040SOL     OW78951  12.619  12.034   4.684
59040SOL    HW178952  12.552  11.967   4.673
59040SOL    HW278953  12.581  12.112   4.642
59041SOL     OW78954   7.170   3.315  10.580
59041SOL    HW178955   7.201   3.387  10.636
59041SOL    HW278956   7.245   3.256  10.575
59042SOL     OW78957   6.635  12.883   6.341
59042SOL    HW178958   6.726  12.879   6.373
59042SOL    HW278959   6.613  12.976   6.346
59043SOL     OW78960   7.446   1.497  12.826
59043SOL    HW178961   7.449   1.587  12.858
59043SOL    HW278962   7.438   1.443  12.904
59044SOL     OW78963   4.251   5.358   8.493
59044SOL    HW178964   4.236   5.296   8.422
59044SOL    HW278965   4.184   5.338   8.558
59045SOL     OW78966   7.161  12.057   5.969
59045SOL    HW178967   7.247  12.041   5.930
59045SOL    HW278968   7.180  12.108   6.048
59046SOL     OW78969   1.892   9.446   1.475
59046SOL    HW178970   1.851   9.532   1.491
59046SOL    HW278971   1.823   9.394   1.435
59047SOL     OW78972  11.641  11.636   5.003
59047SOL    HW178973  11.584  11.686   4.944
59047SOL    HW278974  11.595  11.553   5.016
59048SOL     OW78975  10.109   2.038  11.294
59048SOL    HW178976  10.157   1.958  11.274
59048SOL    HW278977  10.049   2.050  11.220
59049SOL     OW78978  13.185   8.866   0.021
59049SOL    HW178979  13.178   8.771   0.026
59049SOL    HW278980  13.169   8.897   0.110
59050SOL     OW78981  14.368   2.352   8.309
59050SOL    HW178982  14.346   2.361   8.402
59050SOL    HW278983  14.425   2.275   8.306
59051SOL     OW78984   0.389   7.239   0.855
59051SOL    HW178985   0.357   7.263   0.942
59051SOL    HW278986   0.417   7.322   0.816
59052SOL     OW78987   0.728  11.707   7.284
59052SOL    HW178988   0.710  11.675   7.195
59052SOL    HW278989   0.815  11.745   7.279
59053SOL     OW78990   2.086   9.891   3.955
59053SOL    HW178991   2.102   9.886   4.050
59053SOL    HW278992   2.173   9.889   3.916
59054SOL     OW78993   6.515  13.464  14.015
59054SOL    HW178994   6.477  13.393  14.067
59054SOL    HW278995   6.452  13.479  13.944
59055SOL     OW78996   1.257   1.392   4.326
59055SOL    HW178997   1.349   1.387   4.355
59055SOL    HW278998   1.254   1.471   4.271
59056SOL     OW78999   2.589   4.297  14.530
59056SOL    HW179000   2.519   4.233  14.515
59056SOL    HW279001   2.638   4.299  14.448
59057SOL     OW79002   9.922  13.884   9.590
59057SOL    HW179003   9.853  13.863   9.653
59057SOL    HW279004   9.992  13.822   9.610
59058SOL     OW79005  13.414   4.054  13.198
59058SOL    HW179006  13.435   4.042  13.105
59058SOL    HW279007  13.382   4.144  13.203
59059SOL     OW79008   1.468   6.713   7.939
59059SOL    HW179009   1.494   6.747   7.854
59059SOL    HW279010   1.403   6.775   7.971
59060SOL     OW79011   9.205  10.995   0.681
59060SOL    HW179012   9.198  11.018   0.774
59060SOL    HW279013   9.199  11.079   0.636
59061SOL     OW79014  10.053   9.988   0.335
59061SOL    HW179015   9.984  10.053   0.347
59061SOL    HW279016  10.084   9.969   0.423
59062SOL     OW79017  11.507   4.794   4.420
59062SOL    HW179018  11.506   4.720   4.480
59062SOL    HW279019  11.415   4.823   4.416
59063SOL     OW79020  10.785  10.778   6.405
59063SOL    HW179021  10.699  10.750   6.438
59063SOL    HW279022  10.829  10.813   6.482
59064SOL     OW79023   8.540   3.516  13.875
59064SOL    HW179024   8.571   3.604  13.898
59064SOL    HW279025   8.540   3.515  13.779
59065SOL     OW79026   5.472   7.036  12.255
59065SOL    HW179027   5.565   7.055  12.262
59065SOL    HW279028   5.461   6.952  12.298
59066SOL     OW79029   3.803   0.073   4.496
59066SOL    HW179030   3.840   0.066   4.408
59066SOL    HW279031   3.742  14.882   4.503
59067SOL     OW79032   5.797   6.802  10.009
59067SOL    HW179033   5.771   6.874   9.952
59067SOL    HW279034   5.886   6.825  10.038
59068SOL     OW79035  13.695   5.612  14.157
59068SOL    HW179036  13.637   5.631  14.084
59068SOL    HW279037  13.641   5.562  14.218
59069SOL     OW79038   6.792   0.263   5.604
59069SOL    HW179039   6.836   0.224   5.678
59069SOL    HW279040   6.851   0.334   5.575
59070SOL     OW79041   2.703   4.093   2.637
59070SOL    HW179042   2.657   4.163   2.684
59070SOL    HW279043   2.663   4.093   2.550
59071SOL     OW79044  14.461  11.089  13.540
59071SOL    HW179045  14.446  11.072  13.447
59071SOL    HW279046  14.507  11.011  13.572
59072SOL     OW79047  13.067  11.565   5.631
59072SOL    HW179048  13.089  11.542   5.540
59072SOL    HW279049  13.137  11.625   5.657
59073SOL     OW79050  11.635   1.558   0.407
59073SOL    HW179051  11.569   1.627   0.416
59073SOL    HW279052  11.718   1.605   0.399
59074SOL     OW79053   8.850  14.268   9.464
59074SOL    HW179054   8.893  14.308   9.388
59074SOL    HW279055   8.828  14.180   9.435
59075SOL     OW79056  11.277   3.428   7.183
59075SOL    HW179057  11.285   3.458   7.274
59075SOL    HW279058  11.191   3.458   7.156
59076SOL     OW79059  11.594   0.882  10.948
59076SOL    HW179060  11.522   0.902  10.888
59076SOL    HW279061  11.556   0.820  11.010
59077SOL     OW79062   3.217   4.098  10.328
59077SOL    HW179063   3.154   4.153  10.376
59077SOL    HW279064   3.216   4.015  10.375
59078SOL     OW79065  12.454  11.488   2.957
59078SOL    HW179066  12.440  11.537   3.038
59078SOL    HW279067  12.487  11.403   2.986
59079SOL     OW79068   9.012   2.412   3.710
59079SOL    HW179069   9.032   2.442   3.799
59079SOL    HW279070   8.924   2.445   3.693
59080SOL     OW79071  11.747   6.747  14.018
59080SOL    HW179072  11.668   6.701  14.046
59080SOL    HW279073  11.728   6.775  13.929
59081SOL     OW79074   3.456  11.367  12.516
59081SOL    HW179075   3.434  11.274  12.521
59081SOL    HW279076   3.550  11.369  12.503
59082SOL     OW79077  12.776   3.492  13.541
59082SOL    HW179078  12.828   3.545  13.601
59082SOL    HW279079  12.690   3.533  13.540
59083SOL     OW79080   6.339   6.769  12.522
59083SOL    HW179081   6.245   6.780  12.511
59083SOL    HW279082   6.355   6.677  12.497
59084SOL     OW79083   2.021   3.952   1.937
59084SOL    HW179084   1.931   3.984   1.949
59084SOL    HW279085   2.011   3.874   1.883
59085SOL     OW79086   2.678  11.707  13.076
59085SOL    HW179087   2.708  11.757  13.000
59085SOL    HW279088   2.736  11.631  13.078
59086SOL     OW79089   9.254   9.840   5.066
59086SOL    HW179090   9.164   9.814   5.086
59086SOL    HW279091   9.301   9.757   5.058
59087SOL     OW79092  12.898   9.309  12.437
59087SOL    HW179093  12.901   9.215  12.417
59087SOL    HW279094  12.990   9.334  12.445
59088SOL     OW79095   7.718   9.912  13.139
59088SOL    HW179096   7.755   9.948  13.058
59088SOL    HW279097   7.782   9.935  13.207
59089SOL     OW79098   0.056   6.362   1.154
59089SOL    HW179099  14.845   6.344   1.143
59089SOL    HW279100   0.063   6.457   1.146
59090SOL     OW79101  10.616   9.015  12.095
59090SOL    HW179102  10.630   8.922  12.110
59090SOL    HW279103  10.675   9.037  12.023
59091SOL     OW79104   2.760  10.449   9.100
59091SOL    HW179105   2.671  10.454   9.134
59091SOL    HW279106   2.815  10.463   9.177
59092SOL     OW79107   8.057   4.933  11.519
59092SOL    HW179108   8.095   5.020  11.503
59092SOL    HW279109   8.046   4.895  11.432
59093SOL     OW79110   9.218   5.354  10.094
59093SOL    HW179111   9.141   5.410  10.101
59093SOL    HW279112   9.279   5.388  10.160
59094SOL     OW79113   1.997   9.873  11.502
59094SOL    HW179114   2.060   9.933  11.541
59094SOL    HW279115   2.006   9.887  11.407
59095SOL     OW79116   6.078   2.930  12.031
59095SOL    HW179117   6.139   3.003  12.025
59095SOL    HW279118   6.117   2.862  11.976
59096SOL     OW79119   7.801   8.122  12.501
59096SOL    HW179120   7.803   8.175  12.581
59096SOL    HW279121   7.833   8.180  12.432
59097SOL     OW79122   6.108  12.921   5.851
59097SOL    HW179123   6.197  12.891   5.835
59097SOL    HW279124   6.083  12.965   5.770
59098SOL     OW79125   5.347  14.177  12.898
59098SOL    HW179126   5.374  14.263  12.865
59098SOL    HW279127   5.290  14.143  12.829
59099SOL     OW79128   7.787   6.750   2.445
59099SOL    HW179129   7.694   6.729   2.452
59099SOL    HW279130   7.813   6.776   2.533
59100SOL     OW79131   6.745   1.227  11.778
59100SOL    HW179132   6.699   1.310  11.767
59100SOL    HW279133   6.823   1.235  11.723
59101SOL     OW79134   3.071  13.683  13.801
59101SOL    HW179135   2.997  13.668  13.861
59101SOL    HW279136   3.088  13.598  13.762
59102SOL     OW79137   3.528   3.524   0.713
59102SOL    HW179138   3.618   3.492   0.718
59102SOL    HW279139   3.525   3.596   0.775
59103SOL     OW79140   0.367   3.231  12.948
59103SOL    HW179141   0.316   3.294  12.999
59103SOL    HW279142   0.302   3.184  12.895
59104SOL     OW79143   9.520  14.162   1.129
59104SOL    HW179144   9.594  14.141   1.185
59104SOL    HW279145   9.460  14.087   1.139
59105SOL     OW79146   3.360   2.295  10.009
59105SOL    HW179147   3.340   2.382  10.042
59105SOL    HW279148   3.282   2.269   9.961
59106SOL     OW79149   3.836   5.342   4.594
59106SOL    HW179150   3.767   5.359   4.658
59106SOL    HW279151   3.881   5.425   4.584
59107SOL     OW79152  10.573   5.725   4.070
59107SOL    HW179153  10.585   5.713   3.976
59107SOL    HW279154  10.652   5.688   4.110
59108SOL     OW79155   2.083   4.129  10.662
59108SOL    HW179156   2.070   4.166  10.749
59108SOL    HW279157   2.168   4.161  10.634
59109SOL     OW79158  10.490   2.544  10.219
59109SOL    HW179159  10.420   2.564  10.157
59109SOL    HW279160  10.470   2.455  10.249
59110SOL     OW79161  12.519   0.571   0.831
59110SOL    HW179162  12.424   0.571   0.818
59110SOL    HW279163  12.540   0.662   0.855
59111SOL     OW79164   4.266   3.662   5.172
59111SOL    HW179165   4.224   3.737   5.216
59111SOL    HW279166   4.197   3.596   5.167
59112SOL     OW79167  13.829   7.867   4.853
59112SOL    HW179168  13.844   7.910   4.768
59112SOL    HW279169  13.896   7.903   4.910
59113SOL     OW79170   6.558  11.410   6.455
59113SOL    HW179171   6.613  11.488   6.447
59113SOL    HW279172   6.486  11.425   6.394
59114SOL     OW79173   9.979  11.762  11.261
59114SOL    HW179174  10.071  11.736  11.251
59114SOL    HW279175   9.956  11.798  11.175
59115SOL     OW79176  10.241   7.050  12.265
59115SOL    HW179177  10.214   7.054  12.174
59115SOL    HW279178  10.176   7.104  12.312
59116SOL     OW79179   3.351   5.132   9.281
59116SOL    HW179180   3.318   5.182   9.355
59116SOL    HW279181   3.433   5.175   9.257
59117SOL     OW79182   1.670   6.404   6.141
59117SOL    HW179183   1.576   6.415   6.156
59117SOL    HW279184   1.708   6.402   6.229
59118SOL     OW79185   5.788  11.744   2.348
59118SOL    HW179186   5.834  11.825   2.370
59118SOL    HW279187   5.833  11.677   2.399
59119SOL     OW79188   1.915   5.133  11.423
59119SOL    HW179189   1.963   5.052  11.438
59119SOL    HW279190   1.823   5.107  11.426
59120SOL     OW79191   9.794   3.280  10.006
59120SOL    HW179192   9.808   3.292  10.100
59120SOL    HW279193   9.801   3.368   9.970
59121SOL     OW79194   6.329   9.488   6.373
59121SOL    HW179195   6.274   9.564   6.393
59121SOL    HW279196   6.413   9.526   6.346
59122SOL     OW79197   2.446   6.666   8.620
59122SOL    HW179198   2.468   6.580   8.656
59122SOL    HW279199   2.530   6.706   8.598
59123SOL     OW79200   3.718   1.106   2.335
59123SOL    HW179201   3.754   1.142   2.253
59123SOL    HW279202   3.793   1.105   2.395
59124SOL     OW79203   8.965  13.233   7.766
59124SOL    HW179204   9.019  13.304   7.731
59124SOL    HW279205   9.005  13.212   7.850
59125SOL     OW79206  10.499   4.864  14.426
59125SOL    HW179207  10.412   4.905  14.426
59125SOL    HW279208  10.481   4.771  14.436
59126SOL     OW79209   9.767  10.810   3.238
59126SOL    HW179210   9.861  10.816   3.254
59126SOL    HW279211   9.731  10.775   3.320
59127SOL     OW79212  14.556  12.188   4.005
59127SOL    HW179213  14.570  12.260   3.944
59127SOL    HW279214  14.632  12.131   3.994
59128SOL     OW79215  10.915   3.748   9.267
59128SOL    HW179216  10.944   3.723   9.354
59128SOL    HW279217  10.819   3.745   9.272
59129SOL     OW79218   3.678   1.612   5.930
59129SOL    HW179219   3.718   1.676   5.989
59129SOL    HW279220   3.634   1.550   5.988
59130SOL     OW79221   0.100   1.085   7.392
59130SOL    HW179222   0.122   1.171   7.356
59130SOL    HW279223   0.178   1.060   7.441
59131SOL     OW79224   8.165   7.478   2.033
59131SOL    HW179225   8.132   7.546   2.092
59131SOL    HW279226   8.170   7.520   1.947
59132SOL     OW79227  14.758   2.333   2.593
59132SOL    HW179228  14.708   2.339   2.674
59132SOL    HW279229  14.826   2.400   2.601
59133SOL     OW79230   7.289   1.414  13.239
59133SOL    HW179231   7.316   1.463  13.317
59133SOL    HW279232   7.352   1.440  13.172
59134SOL     OW79233  11.927  10.490   9.801
59134SOL    HW179234  11.898  10.416   9.747
59134SOL    HW279235  11.851  10.549   9.802
59135SOL     OW79236  13.385  10.873   6.692
59135SOL    HW179237  13.435  10.802   6.652
59135SOL    HW279238  13.296  10.862   6.658
59136SOL     OW79239   8.220  12.328   5.242
59136SOL    HW179240   8.159  12.254   5.238
59136SOL    HW279241   8.287  12.308   5.178
59137SOL     OW79242   0.433   3.793   8.106
59137SOL    HW179243   0.497   3.727   8.081
59137SOL    HW279244   0.356   3.743   8.133
59138SOL     OW79245   1.357   2.478   9.963
59138SOL    HW179246   1.337   2.535  10.037
59138SOL    HW279247   1.438   2.434   9.988
59139SOL     OW79248  13.743   9.704  12.489
59139SOL    HW179249  13.827   9.747  12.480
59139SOL    HW279250  13.764   9.616  12.519
59140SOL     OW79251  14.720   4.536   8.349
59140SOL    HW179252  14.700   4.473   8.419
59140SOL    HW279253  14.796   4.584   8.381
59141SOL     OW79254   7.526   9.427  12.993
59141SOL    HW179255   7.514   9.443  12.900
59141SOL    HW279256   7.567   9.506  13.027
59142SOL     OW79257   1.618   4.906   8.237
59142SOL    HW179258   1.560   4.919   8.312
59142SOL    HW279259   1.586   4.967   8.171
59143SOL     OW79260   5.513   7.762  14.082
59143SOL    HW179261   5.455   7.807  14.021
59143SOL    HW279262   5.513   7.817  14.161
59144SOL     OW79263   3.902  14.568   4.579
59144SOL    HW179264   3.918  14.614   4.497
59144SOL    HW279265   3.988  14.537   4.606
59145SOL     OW79266   3.535   9.189   5.100
59145SOL    HW179267   3.457   9.230   5.062
59145SOL    HW279268   3.586   9.262   5.135
59146SOL     OW79269  11.414   1.050   4.390
59146SOL    HW179270  11.493   1.096   4.359
59146SOL    HW279271  11.375   1.014   4.311
59147SOL     OW79272  12.832  14.764   9.227
59147SOL    HW179273  12.849  14.818   9.150
59147SOL    HW279274  12.740  14.739   9.219
59148SOL     OW79275  11.356  12.561   0.809
59148SOL    HW179276  11.320  12.648   0.823
59148SOL    HW279277  11.311  12.506   0.873
59149SOL     OW79278  13.274   9.432   1.173
59149SOL    HW179279  13.269   9.438   1.269
59149SOL    HW279280  13.237   9.346   1.153
59150SOL     OW79281   3.596  10.880  11.051
59150SOL    HW179282   3.605  10.842  11.138
59150SOL    HW279283   3.508  10.855  11.023
59151SOL     OW79284  13.136  11.233   3.567
59151SOL    HW179285  13.067  11.166   3.572
59151SOL    HW279286  13.090  11.315   3.584
59152SOL     OW79287  13.246  10.959   9.473
59152SOL    HW179288  13.300  11.020   9.524
59152SOL    HW279289  13.191  10.916   9.538
59153SOL     OW79290   9.468   3.685  13.896
59153SOL    HW179291   9.514   3.769  13.896
59153SOL    HW279292   9.534   3.622  13.868
59154SOL     OW79293   3.660   2.938   2.556
59154SOL    HW179294   3.734   2.920   2.614
59154SOL    HW279295   3.645   2.856   2.509
59155SOL     OW79296  11.977  10.735   2.211
59155SOL    HW179297  12.001  10.680   2.285
59155SOL    HW279298  12.047  10.721   2.147
59156SOL     OW79299   4.537   8.378  12.721
59156SOL    HW179300   4.577   8.379  12.634
59156SOL    HW279301   4.571   8.299  12.762
59157SOL     OW79302   7.479   5.983   1.374
59157SOL    HW179303   7.564   6.024   1.390
59157SOL    HW279304   7.499   5.891   1.356
59158SOL     OW79305  13.562   5.221   7.207
59158SOL    HW179306  13.530   5.160   7.140
59158SOL    HW279307  13.495   5.289   7.212
59159SOL     OW79308   7.733  14.195  11.389
59159SOL    HW179309   7.684  14.163  11.465
59159SOL    HW279310   7.672  14.190  11.316
59160SOL     OW79311   4.555  12.802   6.570
59160SOL    HW179312   4.628  12.856   6.601
59160SOL    HW279313   4.545  12.825   6.478
59161SOL     OW79314  14.024  11.443   2.326
59161SOL    HW179315  13.987  11.370   2.276
59161SOL    HW279316  14.070  11.401   2.399
59162SOL     OW79317  10.856  10.091   3.751
59162SOL    HW179318  10.924  10.031   3.781
59162SOL    HW279319  10.904  10.171   3.728
59163SOL     OW79320   2.737  13.659  11.616
59163SOL    HW179321   2.774  13.582  11.574
59163SOL    HW279322   2.809  13.723  11.617
59164SOL     OW79323   3.482  12.260  13.447
59164SOL    HW179324   3.447  12.197  13.385
59164SOL    HW279325   3.494  12.210  13.528
59165SOL     OW79326   6.167   8.418   6.365
59165SOL    HW179327   6.244   8.382   6.409
59165SOL    HW279328   6.114   8.341   6.343
59166SOL     OW79329   7.292   3.860   0.787
59166SOL    HW179330   7.366   3.921   0.787
59166SOL    HW279331   7.288   3.828   0.877
59167SOL     OW79332   3.253   5.448   0.367
59167SOL    HW179333   3.242   5.531   0.414
59167SOL    HW279334   3.326   5.464   0.307
59168SOL     OW79335   3.534   6.855   6.607
59168SOL    HW179336   3.503   6.864   6.697
59168SOL    HW279337   3.509   6.767   6.581
59169SOL     OW79338   4.957  12.469   7.483
59169SOL    HW179339   5.029  12.430   7.433
59169SOL    HW279340   4.996  12.490   7.568
59170SOL     OW79341   5.151   8.820   0.843
59170SOL    HW179342   5.169   8.853   0.755
59170SOL    HW279343   5.159   8.896   0.900
59171SOL     OW79344   0.984  11.177   2.190
59171SOL    HW179345   1.051  11.233   2.227
59171SOL    HW279346   0.957  11.120   2.262
59172SOL     OW79347  13.891   4.595   3.401
59172SOL    HW179348  13.838   4.516   3.388
59172SOL    HW279349  13.927   4.585   3.489
59173SOL     OW79350  11.783  12.749   2.838
59173SOL    HW179351  11.821  12.702   2.765
59173SOL    HW279352  11.697  12.708   2.851
59174SOL     OW79353   9.529   1.385   2.917
59174SOL    HW179354   9.441   1.357   2.893
59174SOL    HW279355   9.571   1.307   2.953
59175SOL     OW79356   2.658  10.240   6.528
59175SOL    HW179357   2.631  10.324   6.491
59175SOL    HW279358   2.684  10.261   6.618
59176SOL     OW79359   8.055  14.268   7.178
59176SOL    HW179360   7.980  14.265   7.238
59176SOL    HW279361   8.069  14.176   7.153
59177SOL     OW79362   6.632  13.206   0.168
59177SOL    HW179363   6.597  13.223   0.080
59177SOL    HW279364   6.726  13.198   0.155
59178SOL     OW79365   9.755   8.715   8.484
59178SOL    HW179366   9.707   8.706   8.402
59178SOL    HW279367   9.846   8.732   8.457
59179SOL     OW79368  10.196  11.466  12.254
59179SOL    HW179369  10.108  11.474  12.217
59179SOL    HW279370  10.185  11.489  12.346
59180SOL     OW79371   7.766   1.669   0.355
59180SOL    HW179372   7.842   1.682   0.299
59180SOL    HW279373   7.691   1.695   0.302
59181SOL     OW79374   2.391   0.667  12.632
59181SOL    HW179375   2.483   0.644  12.618
59181SOL    HW279376   2.386   0.686  12.726
59182SOL     OW79377  10.216   0.309   7.434
59182SOL    HW179378  10.219   0.237   7.372
59182SOL    HW279379  10.247   0.271   7.517
59183SOL     OW79380  14.110   1.778   4.029
59183SOL    HW179381  14.080   1.722   4.101
59183SOL    HW279382  14.059   1.750   3.954
59184SOL     OW79383  10.640   6.042   8.174
59184SOL    HW179384  10.700   5.985   8.223
59184SOL    HW279385  10.602   5.985   8.107
59185SOL     OW79386   0.786  12.787   9.818
59185SOL    HW179387   0.739  12.856   9.771
59185SOL    HW279388   0.722  12.753   9.880
59186SOL     OW79389  11.348   0.583   7.925
59186SOL    HW179390  11.425   0.634   7.951
59186SOL    HW279391  11.278   0.614   7.983
59187SOL     OW79392   0.795   5.149  13.334
59187SOL    HW179393   0.850   5.082  13.373
59187SOL    HW279394   0.848   5.186  13.263
59188SOL     OW79395   8.603   4.597   0.882
59188SOL    HW179396   8.517   4.556   0.876
59188SOL    HW279397   8.638   4.568   0.966
59189SOL     OW79398   6.336   5.384   3.255
59189SOL    HW179399   6.427   5.415   3.249
59189SOL    HW279400   6.294   5.445   3.316
59190SOL     OW79401  12.696   8.024   7.814
59190SOL    HW179402  12.698   8.110   7.856
59190SOL    HW279403  12.774   7.980   7.847
59191SOL     OW79404  10.111   1.278   8.341
59191SOL    HW179405  10.087   1.338   8.412
59191SOL    HW279406  10.203   1.258   8.357
59192SOL     OW79407   7.698   2.051   4.916
59192SOL    HW179408   7.774   2.110   4.918
59192SOL    HW279409   7.662   2.062   4.828
59193SOL     OW79410   5.115  11.901  11.151
59193SOL    HW179411   5.129  11.818  11.197
59193SOL    HW279412   5.130  11.880  11.059
59194SOL     OW79413   2.466   8.665   8.025
59194SOL    HW179414   2.493   8.639   7.937
59194SOL    HW279415   2.374   8.689   8.016
59195SOL     OW79416  10.245   7.961   8.631
59195SOL    HW179417  10.284   8.010   8.558
59195SOL    HW279418  10.287   7.998   8.708
59196SOL     OW79419   4.888   7.797   3.225
59196SOL    HW179420   4.938   7.814   3.145
59196SOL    HW279421   4.797   7.805   3.199
59197SOL     OW79422   4.551  13.992  10.498
59197SOL    HW179423   4.527  13.905  10.530
59197SOL    HW279424   4.467  14.032  10.473
59198SOL     OW79425   9.111  10.162   6.234
59198SOL    HW179426   9.133  10.242   6.281
59198SOL    HW279427   9.179  10.152   6.168
59199SOL     OW79428  13.582   0.226   2.983
59199SOL    HW179429  13.633   0.213   2.903
59199SOL    HW279430  13.495   0.194   2.961
59200SOL     OW79431  12.520  12.048   6.681
59200SOL    HW179432  12.478  12.082   6.760
59200SOL    HW279433  12.567  11.970   6.711
59201SOL     OW79434   8.057  12.381   5.844
59201SOL    HW179435   8.131  12.438   5.867
59201SOL    HW279436   8.072  12.359   5.752
59202SOL     OW79437   6.890   0.178   9.828
59202SOL    HW179438   6.854   0.223   9.904
59202SOL    HW279439   6.817   0.125   9.795
59203SOL     OW79440   0.019  10.019   9.467
59203SOL    HW179441   0.100  10.063   9.438
59203SOL    HW279442  14.861   9.987   9.386
59204SOL     OW79443   7.750   7.481   6.933
59204SOL    HW179444   7.843   7.468   6.951
59204SOL    HW279445   7.748   7.559   6.878
59205SOL     OW79446  13.029   5.941   9.896
59205SOL    HW179447  13.069   5.857   9.874
59205SOL    HW279448  12.968   5.921   9.967
59206SOL     OW79449   7.604   7.710   2.835
59206SOL    HW179450   7.612   7.737   2.927
59206SOL    HW279451   7.527   7.652   2.834
59207SOL     OW79452   7.281  13.855   4.073
59207SOL    HW179453   7.287  13.769   4.031
59207SOL    HW279454   7.200  13.892   4.038
59208SOL     OW79455  12.185  13.492  10.180
59208SOL    HW179456  12.230  13.516  10.099
59208SOL    HW279457  12.100  13.460  10.151
59209SOL     OW79458  10.211   4.729   7.880
59209SOL    HW179459  10.127   4.684   7.894
59209SOL    HW279460  10.233   4.765   7.966
59210SOL     OW79461   4.962   7.385  12.309
59210SOL    HW179462   4.868   7.378  12.326
59210SOL    HW279463   5.002   7.393  12.396
59211SOL     OW79464  13.851  12.520   1.526
59211SOL    HW179465  13.935  12.504   1.569
59211SOL    HW279466  13.858  12.473   1.442
59212SOL     OW79467   6.413   1.150   0.973
59212SOL    HW179468   6.372   1.134   0.888
59212SOL    HW279469   6.487   1.208   0.953
59213SOL     OW79470   2.219   1.017   4.475
59213SOL    HW179471   2.124   1.028   4.477
59213SOL    HW279472   2.245   1.010   4.567
59214SOL     OW79473  13.075   2.020   6.858
59214SOL    HW179474  13.021   1.981   6.789
59214SOL    HW279475  13.057   1.966   6.935
59215SOL     OW79476   8.811   9.645  10.014
59215SOL    HW179477   8.814   9.684  10.101
59215SOL    HW279478   8.719   9.617  10.003
59216SOL     OW79479  10.126   4.036   9.187
59216SOL    HW179480  10.033   4.053   9.173
59216SOL    HW279481  10.169   4.118   9.162
59217SOL     OW79482  14.100  10.114   1.442
59217SOL    HW179483  14.157  10.136   1.516
59217SOL    HW279484  14.147  10.043   1.397
59218SOL     OW79485   6.028   0.724  13.368
59218SOL    HW179486   6.089   0.676  13.424
59218SOL    HW279487   6.049   0.694  13.279
59219SOL     OW79488   6.019   7.765   8.523
59219SOL    HW179489   6.065   7.835   8.570
59219SOL    HW279490   6.008   7.800   8.434
59220SOL     OW79491   0.768   6.695   7.646
59220SOL    HW179492   0.845   6.639   7.646
59220SOL    HW279493   0.802   6.784   7.652
59221SOL     OW79494  13.892   8.731   8.151
59221SOL    HW179495  13.832   8.720   8.077
59221SOL    HW279496  13.898   8.644   8.191
59222SOL     OW79497   4.007   2.109   1.376
59222SOL    HW179498   4.014   2.205   1.379
59222SOL    HW279499   3.931   2.088   1.431
59223SOL     OW79500   3.394   9.554   7.228
59223SOL    HW179501   3.347   9.515   7.154
59223SOL    HW279502   3.399   9.647   7.207
59224SOL     OW79503   4.948   0.716   9.938
59224SOL    HW179504   4.949   0.776   9.864
59224SOL    HW279505   4.858   0.682   9.941
59225SOL     OW79506   6.720  14.061   3.371
59225SOL    HW179507   6.756  14.099   3.452
59225SOL    HW279508   6.739  13.968   3.377
59226SOL     OW79509   5.739  14.630   5.140
59226SOL    HW179510   5.731  14.718   5.178
59226SOL    HW279511   5.651  14.593   5.147
59227SOL     OW79512   1.758  11.600  11.001
59227SOL    HW179513   1.686  11.580  11.061
59227SOL    HW279514   1.835  11.608  11.058
59228SOL     OW79515   8.862   4.892  12.190
59228SOL    HW179516   8.860   4.967  12.249
59228SOL    HW279517   8.944   4.903  12.140
59229SOL     OW79518   6.444  14.858  11.621
59229SOL    HW179519   6.445  14.814  11.536
59229SOL    HW279520   6.393   0.056  11.606
59230SOL     OW79521   0.701  13.837   7.141
59230SOL    HW179522   0.643  13.909   7.167
59230SOL    HW279523   0.700  13.839   7.045
59231SOL     OW79524   3.720  13.931   6.584
59231SOL    HW179525   3.643  13.981   6.557
59231SOL    HW279526   3.729  13.949   6.677
59232SOL     OW79527  12.160   7.443   7.295
59232SOL    HW179528  12.103   7.451   7.371
59232SOL    HW279529  12.243   7.412   7.330
59233SOL     OW79530   2.935  14.083  10.194
59233SOL    HW179531   2.958  14.149  10.129
59233SOL    HW279532   2.871  14.027  10.150
59234SOL     OW79533   4.434   4.988   6.058
59234SOL    HW179534   4.432   5.083   6.073
59234SOL    HW279535   4.492   4.977   5.983
59235SOL     OW79536  14.297  14.076  12.557
59235SOL    HW179537  14.238  14.000  12.554
59235SOL    HW279538  14.384  14.038  12.550
59236SOL     OW79539   1.912   6.819   9.212
59236SOL    HW179540   1.956   6.880   9.153
59236SOL    HW279541   1.964   6.739   9.208
59237SOL     OW79542  11.871  13.981  14.082
59237SOL    HW179543  11.856  13.949  14.171
59237SOL    HW279544  11.871  13.902  14.028
59238SOL     OW79545   9.593   9.515  11.272
59238SOL    HW179546   9.527   9.552  11.331
59238SOL    HW279547   9.633   9.591  11.229
59239SOL     OW79548   1.576   8.334  13.656
59239SOL    HW179549   1.603   8.408  13.601
59239SOL    HW279550   1.482   8.344  13.666
59240SOL     OW79551  13.791  12.764  11.136
59240SOL    HW179552  13.812  12.838  11.079
59240SOL    HW279553  13.696  12.759  11.137
59241SOL     OW79554  13.116   7.434   3.824
59241SOL    HW179555  13.151   7.479   3.747
59241SOL    HW279556  13.185   7.374   3.851
59242SOL     OW79557  11.065   6.010  12.335
59242SOL    HW179558  11.047   5.927  12.380
59242SOL    HW279559  11.091   5.984  12.247
59243SOL     OW79560   2.267  12.807   4.241
59243SOL    HW179561   2.298  12.850   4.161
59243SOL    HW279562   2.179  12.776   4.219
59244SOL     OW79563   0.797  14.369   1.091
59244SOL    HW179564   0.868  14.306   1.084
59244SOL    HW279565   0.832  14.438   1.149
59245SOL     OW79566   8.127   2.809   0.294
59245SOL    HW179567   8.138   2.789   0.387
59245SOL    HW279568   8.066   2.743   0.262
59246SOL     OW79569  10.760  11.711   0.518
59246SOL    HW179570  10.817  11.738   0.446
59246SOL    HW279571  10.695  11.654   0.478
59247SOL     OW79572   4.481  11.460   6.973
59247SOL    HW179573   4.482  11.527   6.904
59247SOL    HW279574   4.488  11.509   7.054
59248SOL     OW79575  14.346  11.989   3.145
59248SOL    HW179576  14.262  11.996   3.101
59248SOL    HW279577  14.410  11.980   3.075
59249SOL     OW79578  13.233   0.830   3.658
59249SOL    HW179579  13.214   0.833   3.564
59249SOL    HW279580  13.155   0.866   3.700
59250SOL     OW79581   7.384   0.621  14.647
59250SOL    HW179582   7.436   0.541  14.649
59250SOL    HW279583   7.293   0.591  14.644
59251SOL     OW79584   8.117   0.976   7.200
59251SOL    HW179585   8.191   0.916   7.200
59251SOL    HW279586   8.156   1.062   7.217
59252SOL     OW79587   9.013  12.357  11.131
59252SOL    HW179588   8.919  12.362  11.150
59252SOL    HW279589   9.056  12.389  11.210
59253SOL     OW79590   4.451   4.426  12.974
59253SOL    HW179591   4.395   4.457  13.045
59253SOL    HW279592   4.540   4.434  13.008
59254SOL     OW79593   6.050  11.104   9.275
59254SOL    HW179594   6.014  11.046   9.208
59254SOL    HW279595   5.979  11.163   9.297
59255SOL     OW79596  13.083   7.634   7.757
59255SOL    HW179597  13.056   7.551   7.795
59255SOL    HW279598  13.024   7.647   7.683
59256SOL     OW79599   0.765   4.334   3.143
59256SOL    HW179600   0.766   4.252   3.093
59256SOL    HW279601   0.704   4.317   3.215
59257SOL     OW79602   9.356   5.213   0.576
59257SOL    HW179603   9.360   5.118   0.569
59257SOL    HW279604   9.319   5.229   0.663
59258SOL     OW79605   2.449   8.753   6.624
59258SOL    HW179606   2.479   8.697   6.552
59258SOL    HW279607   2.464   8.842   6.593
59259SOL     OW79608   8.444   3.718   9.303
59259SOL    HW179609   8.359   3.734   9.344
59259SOL    HW279610   8.423   3.697   9.212
59260SOL     OW79611   2.885   8.475  14.516
59260SOL    HW179612   2.835   8.483  14.434
59260SOL    HW279613   2.973   8.504  14.493
59261SOL     OW79614  11.848   4.240   5.440
59261SOL    HW179615  11.828   4.307   5.374
59261SOL    HW279616  11.763   4.218   5.478
59262SOL     OW79617  12.767   3.924   8.061
59262SOL    HW179618  12.798   3.962   7.978
59262SOL    HW279619  12.796   3.833   8.058
59263SOL     OW79620   3.090   0.456   6.560
59263SOL    HW179621   3.089   0.425   6.650
59263SOL    HW279622   3.016   0.518   6.555
59264SOL     OW79623   3.018  12.083   9.984
59264SOL    HW179624   2.968  12.087  10.066
59264SOL    HW279625   2.956  12.048   9.920
59265SOL     OW79626   8.762   5.919   0.988
59265SOL    HW179627   8.770   5.827   1.014
59265SOL    HW279628   8.852   5.952   0.987
59266SOL     OW79629   2.096  10.815  14.626
59266SOL    HW179630   2.189  10.830  14.609
59266SOL    HW279631   2.058  10.903  14.627
59267SOL     OW79632  10.554   2.184   2.742
59267SOL    HW179633  10.546   2.175   2.837
59267SOL    HW279634  10.519   2.102   2.707
59268SOL     OW79635  11.722   9.111  13.031
59268SOL    HW179636  11.725   9.197  12.989
59268SOL    HW279637  11.790   9.115  13.099
59269SOL     OW79638   7.397  11.198  10.663
59269SOL    HW179639   7.403  11.153  10.747
59269SOL    HW279640   7.383  11.127  10.599
59270SOL     OW79641   2.064   0.755  11.331
59270SOL    HW179642   2.098   0.723  11.414
59270SOL    HW279643   2.095   0.691  11.266
59271SOL     OW79644  13.365  10.687  12.174
59271SOL    HW179645  13.336  10.773  12.145
59271SOL    HW279646  13.286  10.633  12.175
59272SOL     OW79647   9.285   8.839   4.786
59272SOL    HW179648   9.286   8.752   4.825
59272SOL    HW279649   9.365   8.844   4.735
59273SOL     OW79650  13.556   4.135   0.751
59273SOL    HW179651  13.551   4.126   0.847
59273SOL    HW279652  13.477   4.184   0.728
59274SOL     OW79653  14.234  13.670   0.388
59274SOL    HW179654  14.236  13.639   0.479
59274SOL    HW279655  14.141  13.670   0.364
59275SOL     OW79656  11.311   5.595   8.030
59275SOL    HW179657  11.337   5.624   8.117
59275SOL    HW279658  11.266   5.512   8.044
59276SOL     OW79659   9.830   9.774   6.624
59276SOL    HW179660   9.760   9.709   6.637
59276SOL    HW279661   9.784   9.858   6.625
59277SOL     OW79662  10.833  13.104  14.472
59277SOL    HW179663  10.906  13.078  14.529
59277SOL    HW279664  10.765  13.132  14.533
59278SOL     OW79665   1.556   1.292   5.803
59278SOL    HW179666   1.643   1.293   5.763
59278SOL    HW279667   1.520   1.379   5.786
59279SOL     OW79668   6.544   4.553  11.072
59279SOL    HW179669   6.610   4.587  11.011
59279SOL    HW279670   6.572   4.583  11.158
59280SOL     OW79671   8.220   8.203  11.302
59280SOL    HW179672   8.133   8.196  11.341
59280SOL    HW279673   8.220   8.141  11.229
59281SOL     OW79674   9.065   9.461   2.849
59281SOL    HW179675   9.141   9.404   2.861
59281SOL    HW279676   9.100   9.550   2.856
59282SOL     OW79677   4.514   6.506   2.042
59282SOL    HW179678   4.460   6.438   2.081
59282SOL    HW279679   4.512   6.577   2.106
59283SOL     OW79680  13.364   6.068  12.758
59283SOL    HW179681  13.271   6.046  12.761
59283SOL    HW279682  13.396   6.025  12.678
59284SOL     OW79683  13.562  13.735   7.308
59284SOL    HW179684  13.548  13.779   7.225
59284SOL    HW279685  13.635  13.674   7.291
59285SOL     OW79686   2.534  11.981   3.715
59285SOL    HW179687   2.580  12.065   3.720
59285SOL    HW279688   2.450  11.998   3.758
59286SOL     OW79689  11.723  12.888   9.190
59286SOL    HW179690  11.633  12.915   9.172
59286SOL    HW279691  11.715  12.803   9.232
59287SOL     OW79692   3.967   9.289  13.812
59287SOL    HW179693   3.997   9.211  13.859
59287SOL    HW279694   4.041   9.311  13.755
59288SOL     OW79695   8.497   6.338  10.865
59288SOL    HW179696   8.535   6.363  10.950
59288SOL    HW279697   8.430   6.405  10.848
59289SOL     OW79698   2.036   5.107  13.592
59289SOL    HW179699   2.099   5.093  13.662
59289SOL    HW279700   1.952   5.082  13.629
59290SOL     OW79701   1.303   8.710   4.734
59290SOL    HW179702   1.313   8.617   4.751
59290SOL    HW279703   1.382   8.750   4.772
59291SOL     OW79704   9.364   7.199   1.088
59291SOL    HW179705   9.419   7.267   1.048
59291SOL    HW279706   9.382   7.205   1.182
59292SOL     OW79707   2.415  10.370   5.171
59292SOL    HW179708   2.433  10.277   5.189
59292SOL    HW279709   2.359  10.399   5.243
59293SOL     OW79710  11.949   8.453   5.523
59293SOL    HW179711  12.044   8.452   5.515
59293SOL    HW279712  11.925   8.546   5.519
59294SOL     OW79713   3.656   9.513   3.031
59294SOL    HW179714   3.634   9.507   2.938
59294SOL    HW279715   3.602   9.446   3.073
59295SOL     OW79716  10.783   9.481   2.259
59295SOL    HW179717  10.805   9.398   2.303
59295SOL    HW279718  10.852   9.492   2.194
59296SOL     OW79719  10.986  11.308  11.008
59296SOL    HW179720  10.911  11.268  10.964
59296SOL    HW279721  11.056  11.306  10.942
59297SOL     OW79722   0.986   0.270  12.290
59297SOL    HW179723   0.955   0.360  12.281
59297SOL    HW279724   1.064   0.277  12.345
59298SOL     OW79725   9.621   3.132   3.551
59298SOL    HW179726   9.621   3.164   3.461
59298SOL    HW279727   9.692   3.068   3.553
59299SOL     OW79728  14.818   9.164   8.979
59299SOL    HW179729   0.000   9.229   9.006
59299SOL    HW279730  14.768   9.206   8.909
59300SOL     OW79731   9.010  14.244   1.675
59300SOL    HW179732   8.945  14.309   1.648
59300SOL    HW279733   9.070  14.237   1.601
59301SOL     OW79734   0.940   2.793   4.672
59301SOL    HW179735   1.014   2.780   4.614
59301SOL    HW279736   0.892   2.867   4.634
59302SOL     OW79737   3.776   8.161   3.446
59302SOL    HW179738   3.701   8.102   3.436
59302SOL    HW279739   3.775   8.215   3.366
59303SOL     OW79740   4.344   1.448   3.972
59303SOL    HW179741   4.438   1.434   3.961
59303SOL    HW279742   4.307   1.360   3.981
59304SOL     OW79743   7.628  13.545  14.039
59304SOL    HW179744   7.547  13.592  14.019
59304SOL    HW279745   7.681  13.608  14.088
59305SOL     OW79746  10.920   9.286   8.602
59305SOL    HW179747  10.889   9.329   8.682
59305SOL    HW279748  10.969   9.210   8.633
59306SOL     OW79749  13.989   7.099   0.760
59306SOL    HW179750  14.038   7.169   0.803
59306SOL    HW279751  13.940   7.057   0.830
59307SOL     OW79752   9.097   1.911   7.825
59307SOL    HW179753   9.117   1.824   7.857
59307SOL    HW279754   9.052   1.897   7.742
59308SOL     OW79755   7.963   6.543   4.465
59308SOL    HW179756   7.878   6.531   4.422
59308SOL    HW279757   7.943   6.595   4.543
59309SOL     OW79758   1.778  12.396   5.658
59309SOL    HW179759   1.712  12.452   5.698
59309SOL    HW279760   1.845  12.384   5.726
59310SOL     OW79761   0.690  12.603  12.455
59310SOL    HW179762   0.734  12.573  12.376
59310SOL    HW279763   0.612  12.649  12.423
59311SOL     OW79764  13.847   2.425   3.643
59311SOL    HW179765  13.815   2.513   3.624
59311SOL    HW279766  13.898   2.435   3.724
59312SOL     OW79767   0.436   8.514   4.550
59312SOL    HW179768   0.413   8.432   4.505
59312SOL    HW279769   0.360   8.571   4.537
59313SOL     OW79770   6.415   4.594  12.859
59313SOL    HW179771   6.346   4.634  12.806
59313SOL    HW279772   6.380   4.508  12.882
59314SOL     OW79773  12.564   6.549   6.767
59314SOL    HW179774  12.566   6.634   6.723
59314SOL    HW279775  12.522   6.566   6.851
59315SOL     OW79776   5.924  10.511   5.202
59315SOL    HW179777   5.993  10.447   5.187
59315SOL    HW279778   5.951  10.557   5.282
59316SOL     OW79779   6.303   8.832   4.814
59316SOL    HW179780   6.243   8.850   4.741
59316SOL    HW279781   6.297   8.737   4.827
59317SOL     OW79782  13.641   7.723   8.190
59317SOL    HW179783  13.676   7.777   8.119
59317SOL    HW279784  13.662   7.772   8.269
59318SOL     OW79785  14.769   1.261   2.004
59318SOL    HW179786  14.734   1.331   1.949
59318SOL    HW279787  14.858   1.289   2.025
59319SOL     OW79788   7.334  10.094  13.698
59319SOL    HW179789   7.316  10.004  13.671
59319SOL    HW279790   7.266  10.114  13.763
59320SOL     OW79791   5.999   2.786  12.265
59320SOL    HW179792   6.029   2.844  12.195
59320SOL    HW279793   6.079   2.742  12.295
59321SOL     OW79794   0.290   7.530   8.834
59321SOL    HW179795   0.341   7.607   8.858
59321SOL    HW279796   0.308   7.517   8.741
59322SOL     OW79797   8.032  14.413  13.911
59322SOL    HW179798   7.966  14.389  13.845
59322SOL    HW279799   8.005  14.500  13.941
59323SOL     OW79800   5.667  14.222  11.888
59323SOL    HW179801   5.737  14.214  11.952
59323SOL    HW279802   5.618  14.300  11.914
59324SOL     OW79803   0.026   7.912   6.055
59324SOL    HW179804  14.856   7.833   6.072
59324SOL    HW279805  14.845   7.976   6.022
59325SOL     OW79806   3.539  12.424   6.219
59325SOL    HW179807   3.536  12.430   6.123
59325SOL    HW279808   3.601  12.353   6.236
59326SOL     OW79809   8.164   1.241   9.928
59326SOL    HW179810   8.114   1.175   9.880
59326SOL    HW279811   8.100   1.282   9.986
59327SOL     OW79812   8.635  14.108   7.581
59327SOL    HW179813   8.610  14.017   7.595
59327SOL    HW279814   8.579  14.158   7.640
59328SOL     OW79815   5.047  12.104   2.234
59328SOL    HW179816   5.107  12.045   2.280
59328SOL    HW279817   5.089  12.118   2.149
59329SOL     OW79818  12.328   5.620  11.369
59329SOL    HW179819  12.267   5.649  11.437
59329SOL    HW279820  12.402   5.583  11.417
59330SOL     OW79821   8.614   1.760   2.691
59330SOL    HW179822   8.556   1.796   2.759
59330SOL    HW279823   8.560   1.696   2.646
59331SOL     OW79824   4.467   3.428   9.253
59331SOL    HW179825   4.458   3.517   9.219
59331SOL    HW279826   4.448   3.371   9.178
59332SOL     OW79827   5.909  11.711   3.272
59332SOL    HW179828   5.907  11.623   3.310
59332SOL    HW279829   5.860  11.764   3.335
59333SOL     OW79830  10.344  12.650   2.895
59333SOL    HW179831  10.276  12.619   2.956
59333SOL    HW279832  10.327  12.601   2.814
59334SOL     OW79833  11.783  14.077   5.616
59334SOL    HW179834  11.697  14.116   5.601
59334SOL    HW279835  11.768  13.983   5.607
59335SOL     OW79836   0.072  10.322  13.840
59335SOL    HW179837   0.036  10.235  13.823
59335SOL    HW279838   0.059  10.369  13.758
59336SOL     OW79839   8.401   2.078   4.247
59336SOL    HW179840   8.393   2.020   4.322
59336SOL    HW279841   8.377   2.165   4.280
59337SOL     OW79842   9.773   0.158   5.064
59337SOL    HW179843   9.818   0.094   5.120
59337SOL    HW279844   9.840   0.222   5.041
59338SOL     OW79845  12.448   6.594   7.920
59338SOL    HW179846  12.514   6.524   7.923
59338SOL    HW279847  12.464   6.638   7.837
59339SOL     OW79848   0.311   2.313   4.488
59339SOL    HW179849   0.389   2.333   4.437
59339SOL    HW279850   0.320   2.220   4.510
59340SOL     OW79851   6.983   7.673   9.647
59340SOL    HW179852   7.025   7.758   9.660
59340SOL    HW279853   6.991   7.630   9.732
59341SOL     OW79854   6.005   3.259   8.122
59341SOL    HW179855   6.055   3.303   8.191
59341SOL    HW279856   6.061   3.186   8.095
59342SOL     OW79857   5.176   9.026   4.659
59342SOL    HW179858   5.081   9.012   4.658
59342SOL    HW279859   5.195   9.053   4.749
59343SOL     OW79860   6.019   7.777   9.571
59343SOL    HW179861   6.052   7.828   9.496
59343SOL    HW279862   6.034   7.686   9.545
59344SOL     OW79863   5.122   1.613   3.800
59344SOL    HW179864   5.104   1.591   3.892
59344SOL    HW279865   5.096   1.534   3.752
59345SOL     OW79866  12.751  10.532   4.064
59345SOL    HW179867  12.795  10.449   4.083
59345SOL    HW279868  12.731  10.569   4.150
59346SOL     OW79869   7.575   6.310   0.890
59346SOL    HW179870   7.597   6.233   0.838
59346SOL    HW279871   7.574   6.278   0.980
59347SOL     OW79872   9.646   7.353   0.746
59347SOL    HW179873   9.629   7.328   0.837
59347SOL    HW279874   9.677   7.444   0.751
59348SOL     OW79875  12.433  11.639  10.769
59348SOL    HW179876  12.518  11.648  10.813
59348SOL    HW279877  12.437  11.702  10.698
59349SOL     OW79878  10.971  11.448   3.995
59349SOL    HW179879  10.883  11.410   3.997
59349SOL    HW279880  10.958  11.540   4.020
59350SOL     OW79881   7.349   3.560   3.307
59350SOL    HW179882   7.433   3.515   3.318
59350SOL    HW279883   7.316   3.530   3.223
59351SOL     OW79884   1.693   1.991  13.605
59351SOL    HW179885   1.784   2.013  13.625
59351SOL    HW279886   1.699   1.916  13.545
59352SOL     OW79887   4.819   0.525   1.918
59352SOL    HW179888   4.893   0.469   1.895
59352SOL    HW279889   4.860   0.605   1.952
59353SOL     OW79890   5.723  11.554   9.924
59353SOL    HW179891   5.811  11.528   9.953
59353SOL    HW279892   5.703  11.632   9.976
59354SOL     OW79893  13.666   7.128  13.780
59354SOL    HW179894  13.595   7.115  13.842
59354SOL    HW279895  13.728   7.185  13.825
59355SOL     OW79896  13.667   7.234   3.338
59355SOL    HW179897  13.587   7.286   3.348
59355SOL    HW279898  13.689   7.242   3.245
59356SOL     OW79899   3.593   7.920   6.939
59356SOL    HW179900   3.662   7.922   6.872
59356SOL    HW279901   3.529   7.858   6.904
59357SOL     OW79902  11.139  10.527  14.866
59357SOL    HW179903  11.119  10.532   0.077
59357SOL    HW279904  11.073  10.468  14.830
59358SOL     OW79905  12.180  11.801   2.388
59358SOL    HW179906  12.257  11.781   2.442
59358SOL    HW279907  12.110  11.816   2.451
59359SOL     OW79908  11.570   9.348   7.639
59359SOL    HW179909  11.666   9.347   7.643
59359SOL    HW279910  11.550   9.393   7.557
59360SOL     OW79911   4.637   7.369   5.106
59360SOL    HW179912   4.635   7.289   5.053
59360SOL    HW279913   4.568   7.357   5.170
59361SOL     OW79914   9.774   7.647   6.159
59361SOL    HW179915   9.708   7.578   6.149
59361SOL    HW279916   9.730   7.714   6.211
59362SOL     OW79917  13.577   4.858   8.089
59362SOL    HW179918  13.507   4.795   8.071
59362SOL    HW279919  13.546   4.939   8.048
59363SOL     OW79920   0.960   9.094   9.890
59363SOL    HW179921   1.036   9.065   9.839
59363SOL    HW279922   0.985   9.181   9.922
59364SOL     OW79923   1.189   0.743   6.143
59364SOL    HW179924   1.251   0.767   6.074
59364SOL    HW279925   1.223   0.786   6.222
59365SOL     OW79926   3.470   7.052   8.340
59365SOL    HW179927   3.476   6.958   8.361
59365SOL    HW279928   3.491   7.096   8.423
59366SOL     OW79929  10.465   4.935  10.206
59366SOL    HW179930  10.369   4.937  10.209
59366SOL    HW279931  10.492   5.026  10.220
59367SOL     OW79932   4.506   7.704   2.940
59367SOL    HW179933   4.426   7.651   2.948
59367SOL    HW279934   4.574   7.640   2.919
59368SOL     OW79935   6.694   7.585   9.017
59368SOL    HW179936   6.760   7.620   8.958
59368SOL    HW279937   6.744   7.545   9.088
59369SOL     OW79938  14.571  10.209   5.391
59369SOL    HW179939  14.520  10.253   5.322
59369SOL    HW279940  14.506  10.173   5.450
59370SOL     OW79941  12.199   0.726   6.229
59370SOL    HW179942  12.125   0.752   6.175
59370SOL    HW279943  12.170   0.646   6.273
59371SOL     OW79944  10.524   7.006  11.924
59371SOL    HW179945  10.521   7.090  11.879
59371SOL    HW279946  10.606   6.966  11.895
59372SOL     OW79947   2.840   5.161  11.282
59372SOL    HW179948   2.786   5.179  11.359
59372SOL    HW279949   2.824   5.236  11.224
59373SOL     OW79950   2.246   9.546   2.217
59373SOL    HW179951   2.263   9.503   2.301
59373SOL    HW279952   2.172   9.499   2.180
59374SOL     OW79953   8.539  10.242   1.296
59374SOL    HW179954   8.455  10.278   1.267
59374SOL    HW279955   8.539  10.152   1.261
59375SOL     OW79956  11.211   0.871  14.564
59375SOL    HW179957  11.260   0.845  14.643
59375SOL    HW279958  11.191   0.963  14.578
59376SOL     OW79959  10.386   9.869  12.015
59376SOL    HW179960  10.358   9.778  12.022
59376SOL    HW279961  10.311   9.914  11.974
59377SOL     OW79962  13.995  13.847   4.509
59377SOL    HW179963  14.090  13.834   4.514
59377SOL    HW279964  13.968  13.798   4.431
59378SOL     OW79965   1.984   2.417  14.871
59378SOL    HW179966   2.063   2.464   0.017
59378SOL    HW279967   1.941   2.476  14.809
59379SOL     OW79968   3.608   9.578  11.536
59379SOL    HW179969   3.579   9.627  11.613
59379SOL    HW279970   3.558   9.615  11.463
59380SOL     OW79971   2.560  10.711   7.123
59380SOL    HW179972   2.638  10.758   7.091
59380SOL    HW279973   2.587  10.674   7.207
59381SOL     OW79974  12.866  12.205   5.161
59381SOL    HW179975  12.929  12.159   5.105
59381SOL    HW279976  12.782  12.193   5.117
59382SOL     OW79977   3.113   4.521   5.642
59382SOL    HW179978   3.017   4.522   5.638
59382SOL    HW279979   3.139   4.607   5.609
59383SOL     OW79980   8.374   5.663   4.951
59383SOL    HW179981   8.316   5.723   4.999
59383SOL    HW279982   8.403   5.714   4.875
59384SOL     OW79983   8.005  14.737   5.604
59384SOL    HW179984   8.002  14.828   5.634
59384SOL    HW279985   7.920  14.723   5.562
59385SOL     OW79986   2.749   7.889   2.330
59385SOL    HW179987   2.661   7.880   2.369
59385SOL    HW279988   2.738   7.955   2.262
59386SOL     OW79989   5.995   0.868   3.045
59386SOL    HW179990   5.903   0.842   3.043
59386SOL    HW279991   5.993   0.964   3.046
59387SOL     OW79992   9.707   8.739  13.281
59387SOL    HW179993   9.687   8.679  13.210
59387SOL    HW279994   9.683   8.826  13.248
59388SOL     OW79995  14.035   0.369   4.734
59388SOL    HW179996  13.978   0.313   4.682
59388SOL    HW279997  14.039   0.451   4.687
59389SOL     OW79998  14.723   7.104   8.775
59389SOL    HW179999  14.809   7.094   8.732
59389SOL    HW280000  14.668   7.144   8.707
59390SOL     OW80001  14.772   5.048   5.764
59390SOL    HW180002  14.685   5.087   5.771
59390SOL    HW280003  14.755   4.954   5.756
59391SOL     OW80004   8.206  12.894   0.739
59391SOL    HW180005   8.131  12.935   0.781
59391SOL    HW280006   8.243  12.836   0.806
59392SOL     OW80007  14.706   3.900   6.198
59392SOL    HW180008  14.753   3.982   6.185
59392SOL    HW280009  14.748   3.859   6.273
59393SOL     OW80010   8.947  13.470  10.145
59393SOL    HW180011   8.879  13.507  10.090
59393SOL    HW280012   9.019  13.533  10.140
59394SOL     OW80013   8.563   7.994  11.435
59394SOL    HW180014   8.488   7.965  11.487
59394SOL    HW280015   8.639   7.973  11.489
59395SOL     OW80016   6.378   8.077   7.992
59395SOL    HW180017   6.406   8.022   7.919
59395SOL    HW280018   6.418   8.037   8.069
59396SOL     OW80019  12.444   7.746   7.680
59396SOL    HW180020  12.361   7.721   7.639
59396SOL    HW280021  12.424   7.824   7.731
59397SOL     OW80022   4.530  14.731  13.499
59397SOL    HW180023   4.518  14.655  13.556
59397SOL    HW280024   4.605  14.777  13.538
59398SOL     OW80025   8.400   8.673  13.861
59398SOL    HW180026   8.379   8.711  13.776
59398SOL    HW280027   8.377   8.580  13.852
59399SOL     OW80028  13.636   1.110   0.798
59399SOL    HW180029  13.681   1.043   0.850
59399SOL    HW280030  13.623   1.069   0.713
59400SOL     OW80031   6.122  12.235   5.605
59400SOL    HW180032   6.092  12.207   5.519
59400SOL    HW280033   6.169  12.160   5.641
59401SOL     OW80034   3.985   7.348   2.612
59401SOL    HW180035   4.072   7.316   2.588
59401SOL    HW280036   3.976   7.430   2.564
59402SOL     OW80037  13.180   0.721   5.066
59402SOL    HW180038  13.136   0.767   5.138
59402SOL    HW280039  13.180   0.784   4.994
59403SOL     OW80040   7.841   3.568   7.199
59403SOL    HW180041   7.860   3.577   7.106
59403SOL    HW280042   7.752   3.533   7.202
59404SOL     OW80043   9.593  12.956  12.808
59404SOL    HW180044   9.656  12.929  12.875
59404SOL    HW280045   9.514  12.905  12.828
59405SOL     OW80046   3.906  14.870  12.428
59405SOL    HW180047   3.987  14.844  12.472
59405SOL    HW280048   3.934   0.052  12.362
59406SOL     OW80049   0.168   3.959   1.746
59406SOL    HW180050   0.084   3.917   1.767
59406SOL    HW280051   0.192   4.005   1.826
59407SOL     OW80052  11.175   9.074   0.414
59407SOL    HW180053  11.203   9.110   0.330
59407SOL    HW280054  11.255   9.034   0.450
59408SOL     OW80055  10.794  14.869  14.279
59408SOL    HW180056  10.859  14.800  14.263
59408SOL    HW280057  10.723  14.825  14.325
59409SOL     OW80058  10.214   8.055   2.932
59409SOL    HW180059  10.189   8.027   2.844
59409SOL    HW280060  10.133   8.090   2.969
59410SOL     OW80061  10.429   0.289   4.916
59410SOL    HW180062  10.450   0.354   4.984
59410SOL    HW280063  10.487   0.312   4.843
59411SOL     OW80064  13.318   4.645   2.719
59411SOL    HW180065  13.253   4.709   2.747
59411SOL    HW280066  13.277   4.560   2.736
59412SOL     OW80067  14.378   2.683   9.496
59412SOL    HW180068  14.457   2.666   9.446
59412SOL    HW280069  14.368   2.778   9.494
59413SOL     OW80070   3.249   9.740   0.175
59413SOL    HW180071   3.217   9.802   0.240
59413SOL    HW280072   3.171   9.708   0.131
59414SOL     OW80073   0.401   4.018   1.076
59414SOL    HW180074   0.478   3.962   1.071
59414SOL    HW280075   0.376   4.017   1.168
59415SOL     OW80076  10.395  12.546  11.811
59415SOL    HW180077  10.391  12.639  11.787
59415SOL    HW280078  10.306  12.523  11.836
59416SOL     OW80079   3.397  10.208   6.223
59416SOL    HW180080   3.427  10.289   6.264
59416SOL    HW280081   3.473  10.175   6.175
59417SOL     OW80082   9.093   1.304   2.607
59417SOL    HW180083   9.001   1.319   2.629
59417SOL    HW280084   9.120   1.384   2.563
59418SOL     OW80085  14.418   9.634  11.297
59418SOL    HW180086  14.363   9.643  11.375
59418SOL    HW280087  14.456   9.721  11.285
59419SOL     OW80088  13.941  13.035  10.230
59419SOL    HW180089  13.860  13.083  10.244
59419SOL    HW280090  14.010  13.096  10.256
59420SOL     OW80091   1.097   4.426   0.852
59420SOL    HW180092   1.008   4.409   0.823
59420SOL    HW280093   1.116   4.515   0.821
59421SOL     OW80094   0.257  13.040  10.019
59421SOL    HW180095   0.251  13.111   9.955
59421SOL    HW280096   0.334  13.061  10.072
59422SOL     OW80097  13.975  11.362   1.030
59422SOL    HW180098  14.043  11.422   1.001
59422SOL    HW280099  14.022  11.290   1.071
59423SOL     OW80100  14.269   7.619   1.712
59423SOL    HW180101  14.249   7.694   1.656
59423SOL    HW280102  14.195   7.612   1.771
59424SOL     OW80103   7.139  11.303  11.805
59424SOL    HW180104   7.166  11.221  11.846
59424SOL    HW280105   7.184  11.304  11.721
59425SOL     OW80106   5.999   6.773  13.495
59425SOL    HW180107   6.022   6.806  13.582
59425SOL    HW280108   5.984   6.852  13.443
59426SOL     OW80109   2.460   9.741  14.385
59426SOL    HW180110   2.525   9.705  14.325
59426SOL    HW280111   2.378   9.740  14.336
59427SOL     OW80112   2.265  13.833  12.777
59427SOL    HW180113   2.359  13.815  12.783
59427SOL    HW280114   2.251  13.856  12.685
59428SOL     OW80115   9.182   7.172  13.359
59428SOL    HW180116   9.100   7.140  13.322
59428SOL    HW280117   9.207   7.106  13.424
59429SOL     OW80118  11.150   8.136  13.221
59429SOL    HW180119  11.160   8.051  13.264
59429SOL    HW280120  11.135   8.197  13.292
59430SOL     OW80121   7.067   3.571   3.649
59430SOL    HW180122   7.055   3.582   3.743
59430SOL    HW280123   7.088   3.658   3.617
59431SOL     OW80124   1.895  12.990   7.961
59431SOL    HW180125   1.968  13.038   7.923
59431SOL    HW280126   1.826  12.996   7.896
59432SOL     OW80127   9.096   2.862   9.072
59432SOL    HW180128   9.151   2.861   8.994
59432SOL    HW280129   9.028   2.797   9.054
59433SOL     OW80130   4.324   8.890   8.475
59433SOL    HW180131   4.365   8.900   8.388
59433SOL    HW280132   4.305   8.980   8.502
59434SOL     OW80133   5.602   7.607   8.198
59434SOL    HW180134   5.602   7.513   8.180
59434SOL    HW280135   5.565   7.614   8.286
59435SOL     OW80136   2.928   6.750   4.760
59435SOL    HW180137   2.886   6.814   4.818
59435SOL    HW280138   2.949   6.799   4.681
59436SOL     OW80139   8.560  11.220   8.033
59436SOL    HW180140   8.571  11.236   8.127
59436SOL    HW280141   8.645  11.185   8.005
59437SOL     OW80142   4.269   2.082  13.347
59437SOL    HW180143   4.242   2.025  13.419
59437SOL    HW280144   4.187   2.114  13.309
59438SOL     OW80145   8.541  11.065   1.649
59438SOL    HW180146   8.531  11.106   1.563
59438SOL    HW280147   8.556  11.139   1.709
59439SOL     OW80148   6.588   5.130   7.084
59439SOL    HW180149   6.658   5.138   7.148
59439SOL    HW280150   6.517   5.085   7.131
59440SOL     OW80151   5.354   5.135  13.606
59440SOL    HW180152   5.292   5.207  13.602
59440SOL    HW280153   5.390   5.139  13.695
59441SOL     OW80154   5.084   1.753   0.383
59441SOL    HW180155   5.115   1.664   0.370
59441SOL    HW280156   5.162   1.804   0.404
59442SOL     OW80157   9.343  10.774   7.395
59442SOL    HW180158   9.418  10.793   7.451
59442SOL    HW280159   9.307  10.860   7.374
59443SOL     OW80160   6.582   9.778   5.137
59443SOL    HW180161   6.535   9.860   5.151
59443SOL    HW280162   6.586   9.737   5.224
59444SOL     OW80163   0.962  12.427   2.789
59444SOL    HW180164   1.054  12.402   2.793
59444SOL    HW280165   0.918  12.373   2.854
59445SOL     OW80166   8.789   3.787   2.443
59445SOL    HW180167   8.722   3.808   2.377
59445SOL    HW280168   8.857   3.742   2.394
59446SOL     OW80169   5.116   7.416   8.873
59446SOL    HW180170   5.065   7.354   8.925
59446SOL    HW280171   5.121   7.376   8.786
59447SOL     OW80172   9.545  12.828  10.164
59447SOL    HW180173   9.616  12.834  10.101
59447SOL    HW280174   9.588  12.825  10.250
59448SOL     OW80175   5.133   5.558   9.983
59448SOL    HW180176   5.103   5.535  10.071
59448SOL    HW280177   5.053   5.580   9.935
59449SOL     OW80178   1.673   8.508   6.575
59449SOL    HW180179   1.687   8.496   6.669
59449SOL    HW280180   1.756   8.481   6.535
59450SOL     OW80181   8.898   4.422   4.415
59450SOL    HW180182   8.829   4.474   4.456
59450SOL    HW280183   8.866   4.331   4.422
59451SOL     OW80184  13.408   9.607  11.586
59451SOL    HW180185  13.468   9.566  11.649
59451SOL    HW280186  13.341   9.541  11.570
59452SOL     OW80187   1.189   7.702   7.515
59452SOL    HW180188   1.247   7.647   7.568
59452SOL    HW280189   1.155   7.644   7.448
59453SOL     OW80190  13.514   1.458   3.381
59453SOL    HW180191  13.580   1.459   3.312
59453SOL    HW280192  13.430   1.458   3.334
59454SOL     OW80193  14.273  14.355  11.937
59454SOL    HW180194  14.339  14.366  12.005
59454SOL    HW280195  14.190  14.366  11.982
59455SOL     OW80196   2.220   5.626   7.497
59455SOL    HW180197   2.166   5.698   7.465
59455SOL    HW280198   2.284   5.667   7.555
59456SOL     OW80199   5.388   4.031   8.496
59456SOL    HW180200   5.373   4.074   8.411
59456SOL    HW280201   5.460   4.080   8.535
59457SOL     OW80202  13.846   6.755   8.215
59457SOL    HW180203  13.904   6.731   8.143
59457SOL    HW280204  13.865   6.690   8.283
59458SOL     OW80205  11.541   0.638  13.093
59458SOL    HW180206  11.456   0.682  13.090
59458SOL    HW280207  11.551   0.610  13.184
59459SOL     OW80208   6.473  12.338  11.643
59459SOL    HW180209   6.474  12.371  11.733
59459SOL    HW280210   6.565  12.326  11.622
59460SOL     OW80211   3.820   1.803   4.151
59460SOL    HW180212   3.769   1.878   4.122
59460SOL    HW280213   3.755   1.737   4.174
59461SOL     OW80214  11.418   0.007   4.506
59461SOL    HW180215  11.505   0.031   4.472
59461SOL    HW280216  11.437  14.840   4.586
59462SOL     OW80217   4.367  10.315   5.941
59462SOL    HW180218   4.296  10.369   5.975
59462SOL    HW280219   4.353  10.229   5.981
59463SOL     OW80220   3.930   3.504  11.521
59463SOL    HW180221   3.876   3.448  11.465
59463SOL    HW280222   3.869   3.536  11.587
59464SOL     OW80223   4.879   9.369   0.025
59464SOL    HW180224   4.851   9.351  14.817
59464SOL    HW280225   4.798   9.395   0.070
59465SOL     OW80226   2.999  11.251   2.559
59465SOL    HW180227   3.074  11.196   2.535
59465SOL    HW280228   2.991  11.313   2.486
59466SOL     OW80229  11.852   4.012   7.890
59466SOL    HW180230  11.884   3.924   7.912
59466SOL    HW280231  11.774   3.996   7.837
59467SOL     OW80232   3.818   9.612  12.277
59467SOL    HW180233   3.822   9.519  12.302
59467SOL    HW280234   3.842   9.659  12.357
59468SOL     OW80235   2.581   9.963  13.534
59468SOL    HW180236   2.638  10.015  13.591
59468SOL    HW280237   2.641   9.911  13.480
59469SOL     OW80238   3.669   8.163  10.954
59469SOL    HW180239   3.643   8.083  10.999
59469SOL    HW280240   3.630   8.156  10.867
59470SOL     OW80241  10.564  11.807   8.470
59470SOL    HW180242  10.644  11.856   8.451
59470SOL    HW280243  10.563  11.735   8.407
59471SOL     OW80244   2.226   7.280   2.371
59471SOL    HW180245   2.149   7.298   2.425
59471SOL    HW280246   2.285   7.230   2.427
59472SOL     OW80247  13.974   8.704   0.194
59472SOL    HW180248  14.066   8.707   0.219
59472SOL    HW280249  13.970   8.754   0.112
59473SOL     OW80250   8.078  12.958  11.769
59473SOL    HW180251   8.050  12.911  11.690
59473SOL    HW280252   8.155  12.910  11.800
59474SOL     OW80253  14.401   7.958   9.893
59474SOL    HW180254  14.478   7.972   9.949
59474SOL    HW280255  14.368   8.045   9.874
59475SOL     OW80256  10.419   7.057   5.388
59475SOL    HW180257  10.437   7.150   5.373
59475SOL    HW280258  10.351   7.056   5.455
59476SOL     OW80259  11.238   9.591  13.798
59476SOL    HW180260  11.180   9.662  13.827
59476SOL    HW280261  11.188   9.547  13.729
59477SOL     OW80262   8.538   1.700  13.526
59477SOL    HW180263   8.464   1.662  13.479
59477SOL    HW280264   8.613   1.645  13.502
59478SOL     OW80265   6.868   3.751   5.196
59478SOL    HW180266   6.922   3.791   5.265
59478SOL    HW280267   6.907   3.665   5.183
59479SOL     OW80268  10.735   2.367   4.606
59479SOL    HW180269  10.812   2.396   4.656
59479SOL    HW280270  10.660   2.394   4.659
59480SOL     OW80271  14.802   3.265  10.555
59480SOL    HW180272  14.769   3.309  10.633
59480SOL    HW280273  14.826   3.336  10.496
59481SOL     OW80274   3.156   4.256   3.993
59481SOL    HW180275   3.151   4.320   4.064
59481SOL    HW280276   3.117   4.301   3.918
59482SOL     OW80277   9.436  13.788   4.520
59482SOL    HW180278   9.380  13.717   4.490
59482SOL    HW280279   9.525  13.751   4.520
59483SOL     OW80280   3.475   8.032  14.374
59483SOL    HW180281   3.440   8.085  14.302
59483SOL    HW280282   3.507   7.952  14.331
59484SOL     OW80283   2.566  12.003   6.409
59484SOL    HW180284   2.628  11.932   6.394
59484SOL    HW280285   2.603  12.077   6.361
59485SOL     OW80286   3.282  13.201  11.908
59485SOL    HW180287   3.201  13.185  11.860
59485SOL    HW280288   3.352  13.181  11.845
59486SOL     OW80289   0.227   9.591  10.079
59486SOL    HW180290   0.231   9.674  10.127
59486SOL    HW280291   0.318   9.562  10.074
59487SOL     OW80292  10.385   7.211   4.654
59487SOL    HW180293  10.381   7.257   4.570
59487SOL    HW280294  10.418   7.277   4.715
59488SOL     OW80295   9.293  13.056   0.314
59488SOL    HW180296   9.377  13.068   0.270
59488SOL    HW280297   9.228  13.062   0.244
59489SOL     OW80298   6.570  10.586  13.646
59489SOL    HW180299   6.604  10.633  13.570
59489SOL    HW280300   6.649  10.557  13.693
59490SOL     OW80301  13.040   7.698   8.999
59490SOL    HW180302  13.102   7.632   8.967
59490SOL    HW280303  12.959   7.679   8.953
59491SOL     OW80304  12.435  13.953   0.163
59491SOL    HW180305  12.513  14.009   0.163
59491SOL    HW280306  12.396  13.966   0.250
59492SOL     OW80307   8.662  13.311   5.294
59492SOL    HW180308   8.577  13.300   5.336
59492SOL    HW280309   8.712  13.366   5.355
59493SOL     OW80310   2.415  10.167  14.546
59493SOL    HW180311   2.384  10.248  14.507
59493SOL    HW280312   2.457  10.120  14.474
59494SOL     OW80313   9.586   2.433   1.676
59494SOL    HW180314   9.567   2.486   1.598
59494SOL    HW280315   9.621   2.495   1.739
59495SOL     OW80316  11.114  11.479   7.553
59495SOL    HW180317  11.050  11.412   7.529
59495SOL    HW280318  11.198  11.446   7.521
59496SOL     OW80319  11.053   9.593  11.704
59496SOL    HW180320  11.089   9.561  11.622
59496SOL    HW280321  10.994   9.523  11.733
59497SOL     OW80322  14.869   5.576   3.310
59497SOL    HW180323   0.079   5.552   3.300
59497SOL    HW280324  14.866   5.670   3.296
59498SOL     OW80325   2.174   5.331   9.818
59498SOL    HW180326   2.252   5.385   9.830
59498SOL    HW280327   2.148   5.346   9.727
59499SOL     OW80328   7.529  14.011   8.433
59499SOL    HW180329   7.474  14.004   8.511
59499SOL    HW280330   7.617  13.988   8.464
59500SOL     OW80331  11.935   5.228   9.068
59500SOL    HW180332  11.908   5.289   9.137
59500SOL    HW280333  11.855   5.209   9.020
59501SOL     OW80334   4.026  12.528   7.532
59501SOL    HW180335   4.072  12.444   7.530
59501SOL    HW280336   4.076  12.584   7.472
59502SOL     OW80337   5.027  13.238   1.103
59502SOL    HW180338   5.072  13.187   1.169
59502SOL    HW280339   4.943  13.260   1.143
59503SOL     OW80340   1.691   2.444   0.927
59503SOL    HW180341   1.648   2.366   0.893
59503SOL    HW280342   1.740   2.412   1.003
59504SOL     OW80343   1.803   3.502  14.635
59504SOL    HW180344   1.825   3.508  14.542
59504SOL    HW280345   1.742   3.574  14.650
59505SOL     OW80346   9.059   8.912   0.698
59505SOL    HW180347   8.966   8.919   0.676
59505SOL    HW280348   9.104   8.927   0.615
59506SOL     OW80349   9.498   2.374  12.779
59506SOL    HW180350   9.433   2.430  12.737
59506SOL    HW280351   9.570   2.433  12.801
59507SOL     OW80352   3.475  10.951  10.776
59507SOL    HW180353   3.551  10.978  10.828
59507SOL    HW280354   3.409  10.927  10.841
59508SOL     OW80355   9.987   2.495   1.751
59508SOL    HW180356  10.015   2.406   1.729
59508SOL    HW280357  10.054   2.552   1.712
59509SOL     OW80358   8.649  13.383  11.587
59509SOL    HW180359   8.625  13.296  11.555
59509SOL    HW280360   8.626  13.442  11.516
59510SOL     OW80361   8.131   2.865   9.653
59510SOL    HW180362   8.099   2.940   9.703
59510SOL    HW280363   8.213   2.894   9.614
59511SOL     OW80364  10.420   5.256   6.362
59511SOL    HW180365  10.406   5.166   6.391
59511SOL    HW280366  10.459   5.301   6.437
59512SOL     OW80367   4.664   5.331  10.364
59512SOL    HW180368   4.592   5.372  10.318
59512SOL    HW280369   4.740   5.341  10.306
59513SOL     OW80370  10.821  10.492   7.374
59513SOL    HW180371  10.742  10.540   7.347
59513SOL    HW280372  10.795  10.400   7.373
59514SOL     OW80373  14.059   2.870  13.248
59514SOL    HW180374  14.132   2.855  13.307
59514SOL    HW280375  13.984   2.829  13.291
59515SOL     OW80376   3.727   9.391   5.186
59515SOL    HW180377   3.784   9.365   5.114
59515SOL    HW280378   3.787   9.416   5.256
59516SOL     OW80379   8.084  10.423   9.434
59516SOL    HW180380   8.125  10.443   9.350
59516SOL    HW280381   8.143  10.461   9.499
59517SOL     OW80382   6.544  14.718   9.429
59517SOL    HW180383   6.628  14.688   9.462
59517SOL    HW280384   6.547  14.700   9.335
59518SOL     OW80385  11.677  12.053   0.438
59518SOL    HW180386  11.638  12.049   0.351
59518SOL    HW280387  11.679  11.962   0.467
59519SOL     OW80388   3.141   0.351  13.344
59519SOL    HW180389   3.054   0.318  13.323
59519SOL    HW280390   3.144   0.438  13.305
59520SOL     OW80391  11.262  10.238   3.822
59520SOL    HW180392  11.327  10.308   3.830
59520SOL    HW280393  11.182  10.273   3.860
59521SOL     OW80394   7.758   1.923   7.480
59521SOL    HW180395   7.776   1.881   7.396
59521SOL    HW280396   7.694   1.992   7.459
59522SOL     OW80397   2.601   1.739   7.164
59522SOL    HW180398   2.664   1.676   7.130
59522SOL    HW280399   2.589   1.801   7.093
59523SOL     OW80400   3.170   6.928   1.431
59523SOL    HW180401   3.266   6.922   1.426
59523SOL    HW280402   3.146   6.977   1.353
59524SOL     OW80403   3.808   2.891   5.333
59524SOL    HW180404   3.888   2.908   5.383
59524SOL    HW280405   3.839   2.856   5.250
59525SOL     OW80406  11.865   7.943   2.755
59525SOL    HW180407  11.886   8.029   2.793
59525SOL    HW280408  11.950   7.903   2.739
59526SOL     OW80409   8.516   7.188   6.742
59526SOL    HW180410   8.455   7.246   6.695
59526SOL    HW280411   8.578   7.248   6.783
59527SOL     OW80412  12.615   4.963  14.759
59527SOL    HW180413  12.641   4.913  14.836
59527SOL    HW280414  12.584   5.047  14.794
59528SOL     OW80415   5.382   4.226   9.725
59528SOL    HW180416   5.334   4.163   9.671
59528SOL    HW280417   5.366   4.198   9.815
59529SOL     OW80418   0.867   9.195   5.539
59529SOL    HW180419   0.812   9.124   5.570
59529SOL    HW280420   0.806   9.260   5.503
59530SOL     OW80421  14.505   4.707  11.702
59530SOL    HW180422  14.467   4.761  11.632
59530SOL    HW280423  14.598   4.703  11.680
59531SOL     OW80424   7.834  12.738   4.041
59531SOL    HW180425   7.911  12.696   4.079
59531SOL    HW280426   7.801  12.674   3.978
59532SOL     OW80427  12.064  12.039   5.215
59532SOL    HW180428  12.124  11.965   5.218
59532SOL    HW280429  12.099  12.101   5.279
59533SOL     OW80430  12.912   5.733   4.086
59533SOL    HW180431  12.966   5.674   4.138
59533SOL    HW280432  12.891   5.683   4.007
59534SOL     OW80433   4.959   2.572   9.141
59534SOL    HW180434   4.910   2.645   9.104
59534SOL    HW280435   4.963   2.508   9.071
59535SOL     OW80436  12.131  10.293  13.755
59535SOL    HW180437  12.139  10.244  13.673
59535SOL    HW280438  12.145  10.228  13.824
59536SOL     OW80439   4.463   0.804   0.847
59536SOL    HW180440   4.389   0.854   0.813
59536SOL    HW280441   4.461   0.722   0.797
59537SOL     OW80442   9.043   5.741  13.669
59537SOL    HW180443   9.053   5.663  13.724
59537SOL    HW280444   9.097   5.808  13.712
59538SOL     OW80445  12.432  12.360  10.761
59538SOL    HW180446  12.518  12.321  10.773
59538SOL    HW280447  12.373  12.286  10.751
59539SOL     OW80448  10.233   4.265   0.144
59539SOL    HW180449  10.246   4.349   0.100
59539SOL    HW280450  10.198   4.289   0.230
59540SOL     OW80451   0.067  11.866  11.607
59540SOL    HW180452   0.153  11.837  11.578
59540SOL    HW280453   0.085  11.944  11.660
59541SOL     OW80454   2.743   4.094   5.533
59541SOL    HW180455   2.774   4.004   5.543
59541SOL    HW280456   2.656   4.085   5.495
59542SOL     OW80457   3.056   9.697   3.074
59542SOL    HW180458   3.031   9.666   2.986
59542SOL    HW280459   2.978   9.681   3.127
59543SOL     OW80460  11.660   4.379   5.317
59543SOL    HW180461  11.661   4.433   5.238
59543SOL    HW280462  11.568   4.362   5.334
59544SOL     OW80463  14.712   4.597   7.927
59544SOL    HW180464  14.792   4.569   7.972
59544SOL    HW280465  14.715   4.552   7.843
59545SOL     OW80466   1.807   1.325   9.560
59545SOL    HW180467   1.824   1.310   9.467
59545SOL    HW280468   1.717   1.298   9.573
59546SOL     OW80469   6.375   8.305   1.004
59546SOL    HW180470   6.349   8.217   0.976
59546SOL    HW280471   6.464   8.295   1.035
59547SOL     OW80472   6.815   2.134   0.628
59547SOL    HW180473   6.845   2.219   0.595
59547SOL    HW280474   6.721   2.133   0.609
59548SOL     OW80475   8.175  10.709  13.453
59548SOL    HW180476   8.116  10.670  13.388
59548SOL    HW280477   8.219  10.634  13.493
59549SOL     OW80478   0.244   3.790  10.588
59549SOL    HW180479   0.191   3.858  10.546
59549SOL    HW280480   0.303   3.760  10.519
59550SOL     OW80481  13.895   1.394  12.626
59550SOL    HW180482  13.891   1.489  12.635
59550SOL    HW280483  13.987   1.375  12.608
59551SOL     OW80484   8.125  12.956   8.462
59551SOL    HW180485   8.111  12.993   8.375
59551SOL    HW280486   8.153  13.030   8.515
59552SOL     OW80487   5.158   4.129   1.262
59552SOL    HW180488   5.193   4.041   1.273
59552SOL    HW280489   5.067   4.116   1.238
59553SOL     OW80490   5.065  13.215   0.141
59553SOL    HW180491   5.030  13.209   0.053
59553SOL    HW280492   5.008  13.278   0.186
59554SOL     OW80493  13.060   6.312   1.192
59554SOL    HW180494  13.144   6.270   1.177
59554SOL    HW280495  12.999   6.240   1.207
59555SOL     OW80496  13.384  13.418  11.854
59555SOL    HW180497  13.309  13.426  11.913
59555SOL    HW280498  13.345  13.403  11.768
59556SOL     OW80499   9.370   9.714   2.402
59556SOL    HW180500   9.280   9.724   2.372
59556SOL    HW280501   9.393   9.624   2.379
59557SOL     OW80502  10.883   5.763   3.628
59557SOL    HW180503  10.845   5.851   3.634
59557SOL    HW280504  10.968   5.777   3.586
59558SOL     OW80505   0.517   4.868  10.634
59558SOL    HW180506   0.516   4.778  10.601
59558SOL    HW280507   0.599   4.874  10.683
59559SOL     OW80508   6.887  13.128  14.198
59559SOL    HW180509   6.872  13.112  14.291
59559SOL    HW280510   6.861  13.047  14.154
59560SOL     OW80511   1.820   9.718  13.939
59560SOL    HW180512   1.837   9.651  14.005
59560SOL    HW280513   1.748   9.770  13.975
59561SOL     OW80514   0.353   0.744  11.094
59561SOL    HW180515   0.323   0.812  11.034
59561SOL    HW280516   0.430   0.783  11.136
59562SOL     OW80517   3.342   2.785  13.046
59562SOL    HW180518   3.253   2.819  13.052
59562SOL    HW280519   3.365   2.763  13.136
59563SOL     OW80520   1.161  12.235  12.986
59563SOL    HW180521   1.119  12.258  12.903
59563SOL    HW280522   1.223  12.166  12.963
59564SOL     OW80523  10.970  13.268  11.728
59564SOL    HW180524  10.879  13.267  11.702
59564SOL    HW280525  11.003  13.180  11.708
59565SOL     OW80526   1.470  11.348  13.570
59565SOL    HW180527   1.508  11.433  13.546
59565SOL    HW280528   1.546  11.293  13.588
59566SOL     OW80529   1.812   6.734  11.636
59566SOL    HW180530   1.772   6.648  11.637
59566SOL    HW280531   1.833   6.752  11.727
59567SOL     OW80532   9.523   1.201   1.518
59567SOL    HW180533   9.460   1.160   1.458
59567SOL    HW280534   9.600   1.218   1.463
59568SOL     OW80535  13.527  11.727   9.508
59568SOL    HW180536  13.542  11.746   9.601
59568SOL    HW280537  13.451  11.781   9.485
59569SOL     OW80538   1.823  12.780   5.862
59569SOL    HW180539   1.824  12.776   5.957
59569SOL    HW280540   1.868  12.862   5.841
59570SOL     OW80541   9.257  13.057   7.034
59570SOL    HW180542   9.272  13.098   7.119
59570SOL    HW280543   9.284  12.966   7.046
59571SOL     OW80544   2.051   5.415  12.149
59571SOL    HW180545   2.077   5.505  12.170
59571SOL    HW280546   2.102   5.393  12.071
59572SOL     OW80547   6.388   0.284   0.794
59572SOL    HW180548   6.461   0.270   0.854
59572SOL    HW280549   6.377   0.379   0.791
59573SOL     OW80550  10.316   5.703   6.528
59573SOL    HW180551  10.385   5.639   6.514
59573SOL    HW280552  10.342   5.778   6.474
59574SOL     OW80553   8.950  11.467   2.604
59574SOL    HW180554   8.969  11.382   2.645
59574SOL    HW280555   8.858  11.460   2.576
59575SOL     OW80556   1.918  12.135  12.767
59575SOL    HW180557   1.871  12.110  12.847
59575SOL    HW280558   2.009  12.143  12.795
59576SOL     OW80559   5.361  14.233   4.614
59576SOL    HW180560   5.354  14.155   4.558
59576SOL    HW280561   5.357  14.306   4.553
59577SOL     OW80562   2.335   0.195   8.951
59577SOL    HW180563   2.256   0.200   9.005
59577SOL    HW280564   2.324   0.263   8.885
59578SOL     OW80565   4.810  11.962   9.449
59578SOL    HW180566   4.856  12.020   9.388
59578SOL    HW280567   4.878  11.903   9.482
59579SOL     OW80568   7.055   7.541  14.149
59579SOL    HW180569   7.099   7.485  14.086
59579SOL    HW280570   7.019   7.481  14.214
59580SOL     OW80571   9.641  11.571  11.575
59580SOL    HW180572   9.650  11.644  11.636
59580SOL    HW280573   9.675  11.605  11.492
59581SOL     OW80574  10.598  11.980  13.469
59581SOL    HW180575  10.640  11.898  13.495
59581SOL    HW280576  10.657  12.018  13.404
59582SOL     OW80577   3.080   5.935  13.950
59582SOL    HW180578   3.070   5.843  13.925
59582SOL    HW280579   3.015   5.982  13.897
59583SOL     OW80580  13.682   0.030  14.051
59583SOL    HW180581  13.760   0.079  14.024
59583SOL    HW280582  13.655   0.071  14.133
59584SOL     OW80583  11.476   8.278  14.119
59584SOL    HW180584  11.424   8.215  14.169
59584SOL    HW280585  11.444   8.364  14.148
59585SOL     OW80586  12.988   4.450  11.530
59585SOL    HW180587  12.896   4.441  11.555
59585SOL    HW280588  13.002   4.380  11.466
59586SOL     OW80589  14.800  14.817   3.364
59586SOL    HW180590  14.737  14.842   3.432
59586SOL    HW280591  14.842  14.738   3.398
59587SOL     OW80592   9.172   8.834   5.560
59587SOL    HW180593   9.196   8.844   5.467
59587SOL    HW280594   9.077   8.843   5.561
59588SOL     OW80595   9.609  12.195   1.313
59588SOL    HW180596   9.662  12.116   1.321
59588SOL    HW280597   9.561  12.184   1.231
59589SOL     OW80598   4.257   7.883   3.389
59589SOL    HW180599   4.194   7.941   3.346
59589SOL    HW280600   4.287   7.824   3.319
59590SOL     OW80601   5.313   7.994   2.158
59590SOL    HW180602   5.387   7.998   2.097
59590SOL    HW280603   5.240   7.962   2.104
59591SOL     OW80604  10.038  14.017   0.145
59591SOL    HW180605  10.073  13.943   0.196
59591SOL    HW280606  10.111  14.078   0.139
59592SOL     OW80607  12.470  14.552   6.420
59592SOL    HW180608  12.425  14.637   6.419
59592SOL    HW280609  12.563  14.574   6.412
59593SOL     OW80610  12.755   1.058   9.842
59593SOL    HW180611  12.700   0.979   9.846
59593SOL    HW280612  12.798   1.053   9.756
59594SOL     OW80613   7.049   6.472   5.707
59594SOL    HW180614   6.989   6.519   5.650
59594SOL    HW280615   7.008   6.387   5.720
59595SOL     OW80616  12.728  12.068   2.355
59595SOL    HW180617  12.700  12.037   2.269
59595SOL    HW280618  12.735  11.988   2.408
59596SOL     OW80619   6.245  10.480   7.536
59596SOL    HW180620   6.228  10.504   7.627
59596SOL    HW280621   6.311  10.543   7.507
59597SOL     OW80622  12.276   8.200   4.325
59597SOL    HW180623  12.222   8.235   4.255
59597SOL    HW280624  12.214   8.174   4.393
59598SOL     OW80625   2.262   8.911   3.096
59598SOL    HW180626   2.312   8.970   3.151
59598SOL    HW280627   2.183   8.961   3.072
59599SOL     OW80628   9.579   7.741   1.674
59599SOL    HW180629   9.486   7.762   1.685
59599SOL    HW280630   9.619   7.824   1.649
59600SOL     OW80631  10.586   3.221   7.428
59600SOL    HW180632  10.665   3.169   7.415
59600SOL    HW280633  10.538   3.174   7.496
59601SOL     OW80634   3.779   7.477   8.471
59601SOL    HW180635   3.798   7.442   8.558
59601SOL    HW280636   3.804   7.570   8.477
59602SOL     OW80637  12.631   2.319   5.053
59602SOL    HW180638  12.552   2.349   5.007
59602SOL    HW280639  12.598   2.260   5.121
59603SOL     OW80640   7.279  13.077   9.905
59603SOL    HW180641   7.338  13.044   9.837
59603SOL    HW280642   7.262  13.168   9.881
59604SOL     OW80643  14.219   3.781   7.679
59604SOL    HW180644  14.303   3.778   7.725
59604SOL    HW280645  14.154   3.780   7.749
59605SOL     OW80646   8.809   2.839  13.011
59605SOL    HW180647   8.737   2.780  13.032
59605SOL    HW280648   8.787   2.875  12.926
59606SOL     OW80649   1.845   2.812   3.152
59606SOL    HW180650   1.932   2.820   3.114
59606SOL    HW280651   1.792   2.773   3.082
59607SOL     OW80652   7.413  14.696   5.615
59607SOL    HW180653   7.480  14.742   5.565
59607SOL    HW280654   7.425  14.726   5.705
59608SOL     OW80655  10.501  11.913   1.743
59608SOL    HW180656  10.475  11.858   1.817
59608SOL    HW280657  10.576  11.964   1.775
59609SOL     OW80658   7.335   9.517  10.875
59609SOL    HW180659   7.257   9.534  10.822
59609SOL    HW280660   7.341   9.593  10.933
59610SOL     OW80661  14.028  12.544   2.708
59610SOL    HW180662  13.955  12.531   2.770
59610SOL    HW280663  14.012  12.630   2.671
59611SOL     OW80664  10.653   7.393  12.424
59611SOL    HW180665  10.639   7.393  12.330
59611SOL    HW280666  10.717   7.323  12.439
59612SOL     OW80667   0.245   8.690   4.490
59612SOL    HW180668   0.154   8.670   4.470
59612SOL    HW280669   0.240   8.755   4.561
59613SOL     OW80670   1.546   9.662   1.702
59613SOL    HW180671   1.540   9.756   1.719
59613SOL    HW280672   1.463   9.626   1.735
59614SOL     OW80673   7.500   0.785   5.498
59614SOL    HW180674   7.443   0.737   5.559
59614SOL    HW280675   7.552   0.842   5.555
59615SOL     OW80676   0.335   9.064  13.361
59615SOL    HW180677   0.355   9.157  13.354
59615SOL    HW280678   0.302   9.054  13.451
59616SOL     OW80679   8.551   5.795  12.911
59616SOL    HW180680   8.611   5.869  12.919
59616SOL    HW280681   8.561   5.746  12.993
59617SOL     OW80682   4.547   6.631  13.158
59617SOL    HW180683   4.468   6.579  13.174
59617SOL    HW280684   4.580   6.651  13.245
59618SOL     OW80685  13.006   8.542   4.249
59618SOL    HW180686  13.101   8.543   4.252
59618SOL    HW280687  12.981   8.476   4.314
59619SOL     OW80688   0.686   3.166   0.300
59619SOL    HW180689   0.770   3.122   0.286
59619SOL    HW280690   0.706   3.259   0.290
59620SOL     OW80691  13.411   9.860  11.706
59620SOL    HW180692  13.409   9.784  11.647
59620SOL    HW280693  13.327   9.903  11.692
59621SOL     OW80694  14.041   0.584   0.741
59621SOL    HW180695  14.119   0.620   0.784
59621SOL    HW280696  13.969   0.641   0.768
59622SOL     OW80697   8.122   0.898  12.269
59622SOL    HW180698   8.209   0.885  12.306
59622SOL    HW280699   8.128   0.865  12.179
59623SOL     OW80700   2.728   5.622   5.452
59623SOL    HW180701   2.728   5.531   5.422
59623SOL    HW280702   2.757   5.672   5.376
59624SOL     OW80703  11.664   7.064   5.446
59624SOL    HW180704  11.641   7.141   5.498
59624SOL    HW280705  11.580   7.021   5.430
59625SOL     OW80706   2.248   4.394  12.334
59625SOL    HW180707   2.195   4.422  12.409
59625SOL    HW280708   2.228   4.457  12.265
59626SOL     OW80709   7.163  11.053  13.001
59626SOL    HW180710   7.088  11.020  13.051
59626SOL    HW280711   7.125  11.082  12.918
59627SOL     OW80712   7.520   6.992   1.389
59627SOL    HW180713   7.455   6.974   1.456
59627SOL    HW280714   7.563   7.072   1.419
59628SOL     OW80715   4.400   0.542  11.054
59628SOL    HW180716   4.423   0.483  10.983
59628SOL    HW280717   4.485   0.566  11.093
59629SOL     OW80718   4.842   2.248   4.208
59629SOL    HW180719   4.786   2.288   4.142
59629SOL    HW280720   4.819   2.293   4.289
59630SOL     OW80721   7.789  11.384  11.320
59630SOL    HW180722   7.881  11.360  11.306
59630SOL    HW280723   7.784  11.475  11.288
59631SOL     OW80724   5.569  11.920   3.117
59631SOL    HW180725   5.536  12.004   3.151
59631SOL    HW280726   5.645  11.900   3.172
59632SOL     OW80727   9.529   9.826   4.898
59632SOL    HW180728   9.513   9.754   4.959
59632SOL    HW280729   9.494   9.795   4.815
59633SOL     OW80730   1.830   1.896   2.927
59633SOL    HW180731   1.822   1.984   2.965
59633SOL    HW280732   1.885   1.908   2.850
59634SOL     OW80733  11.842  10.322   2.357
59634SOL    HW180734  11.824  10.365   2.440
59634SOL    HW280735  11.936  10.304   2.358
59635SOL     OW80736   3.090   4.499   2.885
59635SOL    HW180737   3.032   4.442   2.836
59635SOL    HW280738   3.089   4.582   2.836
59636SOL     OW80739   3.447   6.884   1.313
59636SOL    HW180740   3.380   6.855   1.251
59636SOL    HW280741   3.509   6.934   1.260
59637SOL     OW80742  12.448   6.300   5.299
59637SOL    HW180743  12.401   6.305   5.382
59637SOL    HW280744  12.385   6.334   5.234
59638SOL     OW80745  11.433   4.269  13.266
59638SOL    HW180746  11.442   4.360  13.293
59638SOL    HW280747  11.378   4.229  13.332
59639SOL     OW80748  14.005  12.776  10.895
59639SOL    HW180749  14.090  12.809  10.925
59639SOL    HW280750  13.944  12.847  10.915
59640SOL     OW80751   1.891   2.391   7.326
59640SOL    HW180752   1.937   2.341   7.392
59640SOL    HW280753   1.866   2.327   7.259
59641SOL     OW80754   6.114  11.238   3.671
59641SOL    HW180755   6.140  11.317   3.624
59641SOL    HW280756   6.181  11.229   3.739
59642SOL     OW80757   7.034   3.083   7.296
59642SOL    HW180758   6.998   2.998   7.272
59642SOL    HW280759   7.120   3.085   7.255
59643SOL     OW80760   7.331   2.888  11.224
59643SOL    HW180761   7.320   2.895  11.129
59643SOL    HW280762   7.399   2.953  11.244
59644SOL     OW80763   5.570   7.555  12.631
59644SOL    HW180764   5.476   7.562  12.649
59644SOL    HW280765   5.609   7.625  12.683
59645SOL     OW80766   1.379   5.985  12.858
59645SOL    HW180767   1.287   6.008  12.877
59645SOL    HW280768   1.402   5.923  12.927
59646SOL     OW80769   9.917   0.863   0.032
59646SOL    HW180770   9.941   0.795  14.852
59646SOL    HW280771   9.978   0.935   0.014
59647SOL     OW80772   9.970  11.593  10.996
59647SOL    HW180773  10.004  11.566  11.081
59647SOL    HW280774  10.048  11.604  10.942
59648SOL     OW80775  10.320  12.970   7.461
59648SOL    HW180776  10.290  13.060   7.474
59648SOL    HW280777  10.239  12.919   7.458
59649SOL     OW80778  12.545  10.100   7.099
59649SOL    HW180779  12.481  10.167   7.125
59649SOL    HW280780  12.594  10.140   7.028
59650SOL     OW80781   2.373   5.027   2.778
59650SOL    HW180782   2.336   4.940   2.760
59650SOL    HW280783   2.467   5.012   2.778
59651SOL     OW80784   5.804   2.330   0.062
59651SOL    HW180785   5.720   2.340   0.107
59651SOL    HW280786   5.814   2.235   0.052
59652SOL     OW80787   8.855   6.076  12.601
59652SOL    HW180788   8.863   6.002  12.541
59652SOL    HW280789   8.903   6.147  12.559
59653SOL     OW80790   1.600   6.675  14.165
59653SOL    HW180791   1.630   6.586  14.183
59653SOL    HW280792   1.654   6.731  14.220
59654SOL     OW80793   5.802   6.008   6.608
59654SOL    HW180794   5.838   5.935   6.658
59654SOL    HW280795   5.821   6.085   6.662
59655SOL     OW80796   9.578   0.298   8.350
59655SOL    HW180797   9.486   0.273   8.340
59655SOL    HW280798   9.627   0.227   8.309
59656SOL     OW80799  14.690   1.443  14.303
59656SOL    HW180800  14.624   1.435  14.372
59656SOL    HW280801  14.693   1.356  14.263
59657SOL     OW80802   9.733   2.126   8.214
59657SOL    HW180803   9.668   2.088   8.273
59657SOL    HW280804   9.817   2.105   8.255
59658SOL     OW80805   4.567   5.130   2.943
59658SOL    HW180806   4.508   5.205   2.939
59658SOL    HW280807   4.655   5.169   2.946
59659SOL     OW80808  10.220  10.182  12.039
59659SOL    HW180809  10.137  10.211  12.076
59659SOL    HW280810  10.195  10.126  11.965
59660SOL     OW80811   1.063   5.903   4.609
59660SOL    HW180812   1.022   5.981   4.572
59660SOL    HW280813   0.997   5.834   4.601
59661SOL     OW80814   7.163   5.637  13.004
59661SOL    HW180815   7.115   5.573  12.950
59661SOL    HW280816   7.224   5.678  12.943
59662SOL     OW80817  12.602   2.243   9.873
59662SOL    HW180818  12.625   2.307   9.806
59662SOL    HW280819  12.643   2.162   9.844
59663SOL     OW80820  13.887   6.530   6.574
59663SOL    HW180821  13.950   6.459   6.560
59663SOL    HW280822  13.939   6.610   6.567
59664SOL     OW80823   6.611   5.514  13.449
59664SOL    HW180824   6.553   5.531  13.524
59664SOL    HW280825   6.661   5.437  13.475
59665SOL     OW80826   1.627  10.135   1.072
59665SOL    HW180827   1.618  10.227   1.097
59665SOL    HW280828   1.585  10.130   0.986
59666SOL     OW80829  12.715   4.313  12.260
59666SOL    HW180830  12.780   4.314  12.331
59666SOL    HW280831  12.638   4.357  12.297
59667SOL     OW80832   3.052  12.264  13.274
59667SOL    HW180833   2.971  12.215  13.256
59667SOL    HW280834   3.059  12.265  13.369
59668SOL     OW80835   0.799   0.962   3.742
59668SOL    HW180836   0.787   0.871   3.715
59668SOL    HW280837   0.893   0.973   3.753
59669SOL     OW80838   7.479   4.388   2.182
59669SOL    HW180839   7.391   4.416   2.208
59669SOL    HW280840   7.524   4.469   2.160
59670SOL     OW80841  14.827   8.736  12.039
59670SOL    HW180842  14.797   8.657  12.084
59670SOL    HW280843  14.787   8.730  11.952
59671SOL     OW80844  11.912   6.341   3.629
59671SOL    HW180845  11.842   6.312   3.688
59671SOL    HW280846  11.867   6.388   3.559
59672SOL     OW80847  10.673   7.355  11.376
59672SOL    HW180848  10.752   7.405  11.356
59672SOL    HW280849  10.706   7.273  11.412
59673SOL     OW80850   9.276   5.764   7.448
59673SOL    HW180851   9.206   5.772   7.384
59673SOL    HW280852   9.341   5.829   7.421
59674SOL     OW80853   1.339   1.664  14.302
59674SOL    HW180854   1.429   1.698  14.308
59674SOL    HW280855   1.284   1.742  14.302
59675SOL     OW80856   1.962   6.688  14.534
59675SOL    HW180857   2.000   6.603  14.555
59675SOL    HW280858   1.936   6.681  14.443
59676SOL     OW80859   0.448   5.033  14.141
59676SOL    HW180860   0.524   5.002  14.191
59676SOL    HW280861   0.486   5.092  14.076
59677SOL     OW80862  14.421   6.697   3.692
59677SOL    HW180863  14.453   6.785   3.675
59677SOL    HW280864  14.496   6.640   3.677
59678SOL     OW80865  12.319   9.683  11.492
59678SOL    HW180866  12.269   9.661  11.414
59678SOL    HW280867  12.405   9.643  11.477
59679SOL     OW80868   7.142   8.562   1.515
59679SOL    HW180869   7.162   8.509   1.592
59679SOL    HW280870   7.219   8.619   1.505
59680SOL     OW80871   7.521   1.448  13.119
59680SOL    HW180872   7.561   1.426  13.203
59680SOL    HW280873   7.564   1.530  13.093
59681SOL     OW80874   5.916   3.781   9.509
59681SOL    HW180875   5.887   3.801   9.420
59681SOL    HW280876   5.852   3.826   9.566
59682SOL     OW80877   4.291   6.822   4.178
59682SOL    HW180878   4.237   6.847   4.102
59682SOL    HW280879   4.233   6.834   4.253
59683SOL     OW80880   2.265  12.121   8.810
59683SOL    HW180881   2.253  12.033   8.775
59683SOL    HW280882   2.211  12.177   8.753
59684SOL     OW80883   6.473  13.785   0.334
59684SOL    HW180884   6.381  13.771   0.356
59684SOL    HW280885   6.511  13.697   0.334
59685SOL     OW80886   6.500  14.518   3.506
59685SOL    HW180887   6.438  14.589   3.524
59685SOL    HW280888   6.497  14.463   3.584
59686SOL     OW80889   2.057   9.761   3.103
59686SOL    HW180890   1.962   9.762   3.102
59686SOL    HW280891   2.080   9.689   3.162
59687SOL     OW80892   3.043  13.511   2.663
59687SOL    HW180893   3.086  13.442   2.714
59687SOL    HW280894   3.030  13.474   2.576
59688SOL     OW80895   8.163   4.775   1.727
59688SOL    HW180896   8.103   4.705   1.699
59688SOL    HW280897   8.160   4.773   1.823
59689SOL     OW80898   2.185   2.161   0.775
59689SOL    HW180899   2.143   2.096   0.831
59689SOL    HW280900   2.232   2.110   0.709
59690SOL     OW80901   1.852  13.567  10.805
59690SOL    HW180902   1.882  13.563  10.714
59690SOL    HW280903   1.784  13.635  10.805
59691SOL     OW80904   8.548   6.610   8.141
59691SOL    HW180905   8.479   6.653   8.091
59691SOL    HW280906   8.501   6.562   8.209
59692SOL     OW80907   8.079   0.915   9.394
59692SOL    HW180908   8.114   0.838   9.438
59692SOL    HW280909   7.984   0.906   9.403
59693SOL     OW80910   7.466  12.159  14.417
59693SOL    HW180911   7.551  12.171  14.375
59693SOL    HW280912   7.430  12.079  14.378
59694SOL     OW80913   6.891  10.986   8.763
59694SOL    HW180914   6.983  10.960   8.769
59694SOL    HW280915   6.878  11.008   8.671
59695SOL     OW80916   2.193  14.249   0.832
59695SOL    HW180917   2.264  14.219   0.775
59695SOL    HW280918   2.172  14.174   0.887
59696SOL     OW80919   4.853  10.429   2.310
59696SOL    HW180920   4.794  10.471   2.248
59696SOL    HW280921   4.915  10.497   2.335
59697SOL     OW80922   1.650  10.619  12.857
59697SOL    HW180923   1.648  10.526  12.834
59697SOL    HW280924   1.660  10.620  12.953
59698SOL     OW80925   3.334   0.319   8.565
59698SOL    HW180926   3.358   0.370   8.642
59698SOL    HW280927   3.401   0.251   8.559
59699SOL     OW80928  13.089   6.841  12.482
59699SOL    HW180929  13.037   6.780  12.534
59699SOL    HW280930  13.162   6.864  12.539
59700SOL     OW80931   4.898   0.816   8.210
59700SOL    HW180932   4.969   0.865   8.170
59700SOL    HW280933   4.930   0.726   8.212
59701SOL     OW80934   5.260  11.951   5.956
59701SOL    HW180935   5.351  11.972   5.937
59701SOL    HW280936   5.264  11.875   6.014
59702SOL     OW80937  13.051  13.584   6.112
59702SOL    HW180938  12.981  13.539   6.064
59702SOL    HW280939  13.051  13.673   6.076
59703SOL     OW80940   0.493  10.757  12.106
59703SOL    HW180941   0.580  10.795  12.091
59703SOL    HW280942   0.467  10.724  12.020
59704SOL     OW80943  12.655   6.010   9.795
59704SOL    HW180944  12.702   6.029   9.714
59704SOL    HW280945  12.563   6.031   9.776
59705SOL     OW80946   9.739   4.305   5.195
59705SOL    HW180947   9.709   4.226   5.239
59705SOL    HW280948   9.667   4.328   5.135
59706SOL     OW80949  14.872  14.580   3.502
59706SOL    HW180950  14.827  14.621   3.575
59706SOL    HW280951  14.862  14.486   3.517
59707SOL     OW80952   1.165   1.827   6.514
59707SOL    HW180953   1.251   1.865   6.532
59707SOL    HW280954   1.102   1.894   6.541
59708SOL     OW80955   8.967  13.696   5.023
59708SOL    HW180956   8.949  13.608   4.989
59708SOL    HW280957   8.914  13.703   5.102
59709SOL     OW80958  12.717  10.066   8.945
59709SOL    HW180959  12.728  10.153   8.908
59709SOL    HW280960  12.635  10.033   8.907
59710SOL     OW80961  11.371   7.545   5.424
59710SOL    HW180962  11.442   7.522   5.363
59710SOL    HW280963  11.313   7.469   5.423
59711SOL     OW80964  10.616   0.716   2.707
59711SOL    HW180965  10.697   0.717   2.656
59711SOL    HW280966  10.547   0.717   2.642
59712SOL     OW80967   3.000   1.831  13.191
59712SOL    HW180968   2.957   1.892  13.132
59712SOL    HW280969   3.084   1.872  13.212
59713SOL     OW80970  12.102   9.064   1.009
59713SOL    HW180971  12.018   9.110   1.011
59713SOL    HW280972  12.167   9.131   1.029
59714SOL     OW80973   4.131  14.743   3.673
59714SOL    HW180974   4.113  14.668   3.731
59714SOL    HW280975   4.225  14.757   3.682
59715SOL     OW80976   8.952   2.264   3.113
59715SOL    HW180977   8.951   2.168   3.103
59715SOL    HW280978   9.044   2.288   3.105
59716SOL     OW80979   5.450   0.325  10.499
59716SOL    HW180980   5.493   0.342  10.416
59716SOL    HW280981   5.446   0.229  10.506
59717SOL     OW80982   4.482  10.178   3.693
59717SOL    HW180983   4.567  10.200   3.654
59717SOL    HW280984   4.504  10.144   3.780
59718SOL     OW80985  11.470  14.023  11.292
59718SOL    HW180986  11.434  14.020  11.203
59718SOL    HW280987  11.404  14.070  11.342
59719SOL     OW80988   3.320   9.773  13.450
59719SOL    HW180989   3.402   9.816  13.429
59719SOL    HW280990   3.303   9.715  13.375
59720SOL     OW80991   6.578  12.091   1.512
59720SOL    HW180992   6.646  12.154   1.485
59720SOL    HW280993   6.626  12.025   1.562
59721SOL     OW80994   8.940  12.097  10.006
59721SOL    HW180995   8.932  12.016   9.955
59721SOL    HW280996   8.915  12.167   9.944
59722SOL     OW80997   3.606  12.367  12.739
59722SOL    HW180998   3.671  12.336  12.676
59722SOL    HW280999   3.607  12.301  12.809
59723SOL     OW81000   3.703   0.743   2.230
59723SOL    HW181001   3.741   0.830   2.245
59723SOL    HW281002   3.609   0.755   2.242
59724SOL     OW81003   3.588   9.584   9.810
59724SOL    HW181004   3.679   9.611   9.809
59724SOL    HW281005   3.575   9.540   9.726
59725SOL     OW81006   0.938   4.161   5.065
59725SOL    HW181007   0.949   4.248   5.104
59725SOL    HW281008   1.023   4.119   5.076
59726SOL     OW81009   3.081   8.018  14.757
59726SOL    HW181010   3.021   7.980  14.821
59726SOL    HW281011   3.154   7.956  14.752
59727SOL     OW81012   6.983   7.486   3.640
59727SOL    HW181013   6.908   7.499   3.581
59727SOL    HW281014   7.055   7.462   3.581
59728SOL     OW81015   9.614   3.803   3.190
59728SOL    HW181016   9.658   3.882   3.158
59728SOL    HW281017   9.616   3.742   3.116
59729SOL     OW81018   8.016  13.965   2.531
59729SOL    HW181019   7.953  13.909   2.487
59729SOL    HW281020   8.097  13.955   2.480
59730SOL     OW81021   2.094  11.938  14.730
59730SOL    HW181022   2.059  11.889  14.805
59730SOL    HW281023   2.027  11.931  14.663
59731SOL     OW81024  10.665   3.131   1.653
59731SOL    HW181025  10.644   3.160   1.742
59731SOL    HW281026  10.651   3.036   1.655
59732SOL     OW81027  14.773   9.057  11.217
59732SOL    HW181028  14.816   9.056  11.303
59732SOL    HW281029  14.844   9.074  11.155
59733SOL     OW81030  10.081   8.777   6.744
59733SOL    HW181031  10.111   8.688   6.762
59733SOL    HW281032  10.122   8.799   6.660
59734SOL     OW81033   1.147  14.461   0.695
59734SOL    HW181034   1.183  14.373   0.681
59734SOL    HW281035   1.076  14.448   0.757
59735SOL     OW81036   0.047   4.119   8.132
59735SOL    HW181037   0.111   4.106   8.201
59735SOL    HW281038  14.847   4.083   8.167
59736SOL     OW81039   1.412   9.694   7.952
59736SOL    HW181040   1.374   9.758   8.012
59736SOL    HW281041   1.472   9.744   7.898
59737SOL     OW81042   7.185   7.141   2.046
59737SOL    HW181043   7.121   7.191   2.096
59737SOL    HW281044   7.179   7.052   2.080
59738SOL     OW81045   1.321   2.210  14.484
59738SOL    HW181046   1.231   2.227  14.456
59738SOL    HW281047   1.329   2.114  14.479
59739SOL     OW81048   9.775   2.155   4.088
59739SOL    HW181049   9.796   2.242   4.122
59739SOL    HW281050   9.681   2.159   4.068
59740SOL     OW81051   0.876   2.732  13.077
59740SOL    HW181052   0.846   2.813  13.119
59740SOL    HW281053   0.795   2.684  13.057
59741SOL     OW81054   9.882   0.553   7.850
59741SOL    HW181055   9.869   0.561   7.945
59741SOL    HW281056   9.975   0.533   7.840
59742SOL     OW81057   5.939  12.381   0.424
59742SOL    HW181058   5.983  12.460   0.457
59742SOL    HW281059   5.941  12.320   0.498
59743SOL     OW81060  14.363  10.371   6.630
59743SOL    HW181061  14.279  10.376   6.584
59743SOL    HW281062  14.415  10.309   6.579
59744SOL     OW81063  12.757  14.464  12.185
59744SOL    HW181064  12.711  14.480  12.267
59744SOL    HW281065  12.687  14.464  12.118
59745SOL     OW81066   4.223   6.421   8.809
59745SOL    HW181067   4.240   6.402   8.717
59745SOL    HW281068   4.254   6.511   8.821
59746SOL     OW81069   4.224  13.654  10.223
59746SOL    HW181070   4.292  13.673  10.159
59746SOL    HW281071   4.252  13.572  10.263
59747SOL     OW81072   4.732   4.086  10.534
59747SOL    HW181073   4.762   4.108  10.446
59747SOL    HW281074   4.638   4.099  10.531
59748SOL     OW81075   9.041   7.456  14.359
59748SOL    HW181076   9.004   7.495  14.280
59748SOL    HW281077   9.081   7.375  14.330
59749SOL     OW81078   7.205   3.882   5.703
59749SOL    HW181079   7.125   3.935   5.708
59749SOL    HW281080   7.236   3.875   5.793
59750SOL     OW81081  12.258  13.984   0.409
59750SOL    HW181082  12.170  13.950   0.430
59750SOL    HW281083  12.295  14.007   0.495
59751SOL     OW81084  14.284   0.889  13.972
59751SOL    HW181085  14.241   0.974  13.958
59751SOL    HW281086  14.313   0.891  14.063
59752SOL     OW81087   8.479   5.514  14.650
59752SOL    HW181088   8.465   5.428  14.612
59752SOL    HW281089   8.574   5.521  14.660
59753SOL     OW81090  14.287   9.281  13.354
59753SOL    HW181091  14.259   9.203  13.402
59753SOL    HW281092  14.342   9.246  13.283
59754SOL     OW81093  13.695   4.656   3.847
59754SOL    HW181094  13.787   4.632   3.850
59754SOL    HW281095  13.695   4.751   3.840
59755SOL     OW81096   4.701   6.059   8.427
59755SOL    HW181097   4.629   6.119   8.447
59755SOL    HW281098   4.743   6.044   8.512
59756SOL     OW81099  12.360  14.419   3.349
59756SOL    HW181100  12.420  14.490   3.324
59756SOL    HW281101  12.403  14.339   3.321
59757SOL     OW81102   9.025   0.568  12.848
59757SOL    HW181103   8.953   0.606  12.799
59757SOL    HW281104   9.095   0.633  12.843
59758SOL     OW81105  13.624   1.902   3.147
59758SOL    HW181106  13.541   1.948   3.135
59758SOL    HW281107  13.631   1.891   3.242
59759SOL     OW81108   2.303  12.278  11.005
59759SOL    HW181109   2.218  12.322  10.994
59759SOL    HW281110   2.327  12.294  11.097
59760SOL     OW81111   7.983   5.282   0.574
59760SOL    HW181112   8.052   5.237   0.623
59760SOL    HW281113   7.979   5.369   0.613
59761SOL     OW81114   3.977   2.632   7.446
59761SOL    HW181115   3.933   2.716   7.459
59761SOL    HW281116   4.069   2.650   7.465
59762SOL     OW81117   8.072   1.051   5.648
59762SOL    HW181118   8.028   1.135   5.659
59762SOL    HW281119   8.093   1.023   5.738
59763SOL     OW81120  12.740   5.400  14.565
59763SOL    HW181121  12.798   5.382  14.491
59763SOL    HW281122  12.754   5.493  14.584
59764SOL     OW81123   3.987  12.533  11.152
59764SOL    HW181124   3.943  12.484  11.083
59764SOL    HW281125   4.053  12.472  11.187
59765SOL     OW81126   7.933   7.772   4.132
59765SOL    HW181127   7.886   7.849   4.164
59765SOL    HW281128   7.977   7.738   4.210
59766SOL     OW81129   2.101   7.961  13.019
59766SOL    HW181130   2.122   7.873  12.990
59766SOL    HW281131   2.053   7.949  13.102
59767SOL     OW81132  10.280   6.122   2.317
59767SOL    HW181133  10.375   6.115   2.327
59767SOL    HW281134  10.256   6.198   2.371
59768SOL     OW81135   9.555  10.475   5.305
59768SOL    HW181136   9.621  10.545   5.298
59768SOL    HW281137   9.552  10.454   5.399
59769SOL     OW81138   0.761  13.772  14.344
59769SOL    HW181139   0.786  13.700  14.402
59769SOL    HW281140   0.736  13.843  14.404
59770SOL     OW81141  12.763   0.805   8.154
59770SOL    HW181142  12.858   0.816   8.158
59770SOL    HW281143  12.738   0.776   8.242
59771SOL     OW81144   5.352   8.340  10.280
59771SOL    HW181145   5.276   8.284  10.299
59771SOL    HW281146   5.427   8.290  10.309
59772SOL     OW81147   3.452  12.170  11.316
59772SOL    HW181148   3.488  12.206  11.235
59772SOL    HW281149   3.502  12.213  11.386
59773SOL     OW81150   3.179   2.597   7.729
59773SOL    HW181151   3.207   2.608   7.820
59773SOL    HW281152   3.234   2.657   7.679
59774SOL     OW81153  10.769   1.370   6.137
59774SOL    HW181154  10.749   1.288   6.091
59774SOL    HW281155  10.684   1.415   6.144
59775SOL     OW81156   1.348   5.067  14.551
59775SOL    HW181157   1.295   5.138  14.516
59775SOL    HW281158   1.438   5.088  14.524
59776SOL     OW81159   6.257   1.185   7.856
59776SOL    HW181160   6.267   1.168   7.762
59776SOL    HW281161   6.328   1.245   7.878
59777SOL     OW81162  12.900   9.013  10.874
59777SOL    HW181163  12.922   9.069  10.949
59777SOL    HW281164  12.849   8.941  10.911
59778SOL     OW81165   7.015  12.435   0.375
59778SOL    HW181166   7.039  12.351   0.335
59778SOL    HW281167   6.926  12.420   0.409
59779SOL     OW81168   1.214   6.538  10.290
59779SOL    HW181169   1.227   6.610  10.352
59779SOL    HW281170   1.205   6.460  10.346
59780SOL     OW81171   2.577  10.940   0.109
59780SOL    HW181172   2.655  10.964   0.058
59780SOL    HW281173   2.580  10.998   0.185
59781SOL     OW81174   5.122  11.400   6.771
59781SOL    HW181175   5.067  11.430   6.843
59781SOL    HW281176   5.107  11.463   6.701
59782SOL     OW81177   5.777  12.556   6.735
59782SOL    HW181178   5.736  12.514   6.811
59782SOL    HW281179   5.833  12.624   6.773
59783SOL     OW81180  10.672  13.732  11.260
59783SOL    HW181181  10.608  13.665  11.284
59783SOL    HW281182  10.734  13.687  11.203
59784SOL     OW81183   0.521   7.528   6.882
59784SOL    HW181184   0.520   7.531   6.978
59784SOL    HW281185   0.613   7.514   6.859
59785SOL     OW81186   2.999  10.330  11.749
59785SOL    HW181187   3.043  10.315  11.665
59785SOL    HW281188   2.908  10.307  11.733
59786SOL     OW81189   4.860   5.747  14.586
59786SOL    HW181190   4.801   5.673  14.598
59786SOL    HW281191   4.937   5.725  14.639
59787SOL     OW81192  11.445   2.101   1.084
59787SOL    HW181193  11.481   2.030   1.031
59787SOL    HW281194  11.354   2.077   1.098
59788SOL     OW81195  13.599   2.810   5.023
59788SOL    HW181196  13.591   2.882   5.086
59788SOL    HW281197  13.677   2.830   4.972
59789SOL     OW81198   4.679   2.048   9.594
59789SOL    HW181199   4.689   2.098   9.513
59789SOL    HW281200   4.758   1.995   9.600
59790SOL     OW81201  10.760   3.106  10.847
59790SOL    HW181202  10.683   3.049  10.843
59790SOL    HW281203  10.800   3.087  10.932
59791SOL     OW81204   9.712   8.301   8.089
59791SOL    HW181205   9.650   8.229   8.100
59791SOL    HW281206   9.719   8.340   8.177
59792SOL     OW81207  10.950   5.721   8.590
59792SOL    HW181208  10.925   5.813   8.593
59792SOL    HW281209  10.909   5.683   8.668
59793SOL     OW81210   2.731  13.738   5.516
59793SOL    HW181211   2.719  13.729   5.422
59793SOL    HW281212   2.826  13.740   5.528
59794SOL     OW81213  11.138  11.399   5.218
59794SOL    HW181214  11.136  11.342   5.141
59794SOL    HW281215  11.072  11.465   5.200
59795SOL     OW81216   5.194   2.785   2.146
59795SOL    HW181217   5.288   2.801   2.147
59795SOL    HW281218   5.174   2.753   2.234
59796SOL     OW81219   2.631  12.924   3.019
59796SOL    HW181220   2.691  12.888   2.954
59796SOL    HW281221   2.620  12.854   3.084
59797SOL     OW81222  12.352   5.442   9.948
59797SOL    HW181223  12.374   5.394  10.028
59797SOL    HW281224  12.265   5.408   9.924
59798SOL     OW81225  13.039  12.037  10.403
59798SOL    HW181226  13.008  12.013  10.315
59798SOL    HW281227  13.083  12.121  10.391
59799SOL     OW81228  13.866   8.378   8.254
59799SOL    HW181229  13.947   8.404   8.299
59799SOL    HW281230  13.895   8.356   8.165
59800SOL     OW81231   1.124   7.495   7.334
59800SOL    HW181232   1.076   7.446   7.401
59800SOL    HW281233   1.081   7.473   7.252
59801SOL     OW81234  11.082   8.803  10.206
59801SOL    HW181235  11.171   8.769  10.214
59801SOL    HW281236  11.053   8.772  10.120
59802SOL     OW81237   2.585   1.201  10.642
59802SOL    HW181238   2.521   1.271  10.632
59802SOL    HW281239   2.621   1.213  10.730
59803SOL     OW81240   1.932   9.388   4.472
59803SOL    HW181241   1.930   9.293   4.465
59803SOL    HW281242   2.011   9.413   4.424
59804SOL     OW81243   7.339   8.898  12.444
59804SOL    HW181244   7.353   8.966  12.510
59804SOL    HW281245   7.245   8.899  12.428
59805SOL     OW81246  12.791  11.807   3.658
59805SOL    HW181247  12.840  11.880   3.696
59805SOL    HW281248  12.699  11.827   3.678
59806SOL     OW81249   9.446   9.848   9.568
59806SOL    HW181250   9.418   9.756   9.577
59806SOL    HW281251   9.539   9.847   9.590
59807SOL     OW81252   2.144   1.607  13.889
59807SOL    HW181253   2.202   1.681  13.875
59807SOL    HW281254   2.194   1.548  13.945
59808SOL     OW81255   0.708  11.513  11.049
59808SOL    HW181256   0.730  11.582  11.111
59808SOL    HW281257   0.767  11.441  11.072
59809SOL     OW81258  13.302   1.835   9.637
59809SOL    HW181259  13.220   1.871   9.670
59809SOL    HW281260  13.280   1.802   9.550
59810SOL     OW81261   8.918   7.896  13.336
59810SOL    HW181262   8.869   7.936  13.264
59810SOL    HW281263   8.948   7.970  13.389
59811SOL     OW81264  13.719   0.417  11.257
59811SOL    HW181265  13.629   0.448  11.254
59811SOL    HW281266  13.747   0.435  11.347
59812SOL     OW81267   4.931   2.342  13.682
59812SOL    HW181268   4.925   2.253  13.717
59812SOL    HW281269   4.897   2.398  13.752
59813SOL     OW81270  10.920   6.092   1.081
59813SOL    HW181271  10.856   6.077   1.151
59813SOL    HW281272  10.882   6.162   1.028
59814SOL     OW81273  14.341   0.753   3.192
59814SOL    HW181274  14.434   0.774   3.200
59814SOL    HW281275  14.325   0.743   3.098
59815SOL     OW81276   5.789  14.107   0.602
59815SOL    HW181277   5.759  14.082   0.689
59815SOL    HW281278   5.794  14.203   0.605
59816SOL     OW81279  12.372   0.332   0.277
59816SOL    HW181280  12.400   0.242   0.263
59816SOL    HW281281  12.387   0.375   0.192
59817SOL     OW81282   1.237   7.352   8.483
59817SOL    HW181283   1.286   7.296   8.544
59817SOL    HW281284   1.162   7.382   8.534
59818SOL     OW81285   5.102  11.174   6.913
59818SOL    HW181286   5.068  11.210   6.995
59818SOL    HW281287   5.092  11.245   6.850
59819SOL     OW81288   2.713   5.235   9.666
59819SOL    HW181289   2.654   5.182   9.612
59819SOL    HW281290   2.754   5.295   9.604
59820SOL     OW81291   3.287   3.340   4.631
59820SOL    HW181292   3.350   3.377   4.693
59820SOL    HW281293   3.234   3.415   4.604
59821SOL     OW81294   9.473   2.815   6.091
59821SOL    HW181295   9.530   2.739   6.074
59821SOL    HW281296   9.431   2.832   6.007
59822SOL     OW81297   3.197   4.414   7.820
59822SOL    HW181298   3.223   4.465   7.743
59822SOL    HW281299   3.101   4.414   7.816
59823SOL     OW81300   8.920  14.719   5.404
59823SOL    HW181301   8.886  14.743   5.490
59823SOL    HW281302   8.876  14.780   5.344
59824SOL     OW81303   5.532   5.290  14.831
59824SOL    HW181304   5.566   5.379  14.827
59824SOL    HW281305   5.602   5.235  14.796
59825SOL     OW81306   9.701  14.388   3.323
59825SOL    HW181307   9.759  14.312   3.321
59825SOL    HW281308   9.716  14.432   3.239
59826SOL     OW81309  13.908  10.543   6.224
59826SOL    HW181310  13.989  10.493   6.226
59826SOL    HW281311  13.842  10.486   6.263
59827SOL     OW81312   9.284  14.088   0.826
59827SOL    HW181313   9.350  14.031   0.866
59827SOL    HW281314   9.253  14.038   0.750
59828SOL     OW81315  11.558  13.964   3.422
59828SOL    HW181316  11.629  13.945   3.361
59828SOL    HW281317  11.533  14.054   3.403
59829SOL     OW81318   9.858   0.515   4.157
59829SOL    HW181319   9.815   0.430   4.167
59829SOL    HW281320   9.786   0.577   4.145
59830SOL     OW81321   2.977   8.346   2.532
59830SOL    HW181322   2.930   8.263   2.521
59830SOL    HW281323   3.049   8.325   2.593
59831SOL     OW81324   0.236   8.870   0.257
59831SOL    HW181325   0.248   8.873   0.162
59831SOL    HW281326   0.258   8.779   0.281
59832SOL     OW81327  11.854   8.791  10.487
59832SOL    HW181328  11.786   8.746  10.537
59832SOL    HW281329  11.846   8.755  10.399
59833SOL     OW81330  13.145   1.116   3.853
59833SOL    HW181331  13.084   1.060   3.804
59833SOL    HW281332  13.212   1.140   3.790
59834SOL     OW81333   5.609   0.149   4.290
59834SOL    HW181334   5.666   0.129   4.364
59834SOL    HW281335   5.535   0.090   4.300
59835SOL     OW81336   2.063  10.317   3.959
59835SOL    HW181337   2.152  10.310   3.924
59835SOL    HW281338   2.007  10.308   3.882
59836SOL     OW81339   1.331  11.905  10.258
59836SOL    HW181340   1.402  11.857  10.215
59836SOL    HW281341   1.324  11.987  10.209
59837SOL     OW81342   7.950   3.474  11.699
59837SOL    HW181343   7.957   3.538  11.629
59837SOL    HW281344   7.914   3.524  11.773
59838SOL     OW81345   5.029   5.961   5.193
59838SOL    HW181346   4.939   5.943   5.221
59838SOL    HW281347   5.071   6.001   5.270
59839SOL     OW81348  10.118   9.112   7.062
59839SOL    HW181349  10.042   9.057   7.045
59839SOL    HW281350  10.087   9.201   7.046
59840SOL     OW81351  12.375   7.246   8.336
59840SOL    HW181352  12.320   7.179   8.295
59840SOL    HW281353  12.442   7.196   8.382
59841SOL     OW81354   9.101   3.286  12.889
59841SOL    HW181355   9.134   3.303  12.977
59841SOL    HW281356   9.070   3.371  12.858
59842SOL     OW81357   5.220  11.168   0.484
59842SOL    HW181358   5.183  11.245   0.527
59842SOL    HW281359   5.206  11.183   0.391
59843SOL     OW81360  12.805   9.649  13.825
59843SOL    HW181361  12.899   9.665  13.812
59843SOL    HW281362  12.763   9.730  13.798
59844SOL     OW81363  11.181   9.814   7.757
59844SOL    HW181364  11.191   9.867   7.678
59844SOL    HW281365  11.119   9.746   7.732
59845SOL     OW81366  10.270  10.248   5.348
59845SOL    HW181367  10.230  10.176   5.398
59845SOL    HW281368  10.339  10.205   5.297
59846SOL     OW81369   2.540   5.828  10.038
59846SOL    HW181370   2.596   5.864   9.969
59846SOL    HW281371   2.461   5.882  10.034
59847SOL     OW81372   4.841   8.586  10.655
59847SOL    HW181373   4.797   8.531  10.591
59847SOL    HW281374   4.841   8.534  10.736
59848SOL     OW81375  12.731   8.031   4.975
59848SOL    HW181376  12.667   8.079   5.027
59848SOL    HW281377  12.816   8.071   4.997
59849SOL     OW81378   3.532  13.366   7.767
59849SOL    HW181379   3.591  13.387   7.695
59849SOL    HW281380   3.500  13.451   7.798
59850SOL     OW81381   9.461   1.580   7.204
59850SOL    HW181382   9.402   1.614   7.270
59850SOL    HW281383   9.455   1.484   7.212
59851SOL     OW81384   4.035  14.334   7.987
59851SOL    HW181385   4.072  14.252   8.019
59851SOL    HW281386   4.102  14.400   8.004
59852SOL     OW81387  12.695   0.508   2.278
59852SOL    HW181388  12.733   0.521   2.365
59852SOL    HW281389  12.685   0.414   2.270
59853SOL     OW81390   5.222   4.568  12.710
59853SOL    HW181391   5.264   4.557  12.796
59853SOL    HW281392   5.276   4.633  12.666
59854SOL     OW81393  10.216   6.966  13.007
59854SOL    HW181394  10.261   6.938  13.086
59854SOL    HW281395  10.124   6.970  13.032
59855SOL     OW81396   2.619   0.682  11.001
59855SOL    HW181397   2.527   0.698  11.021
59855SOL    HW281398   2.635   0.730  10.919
59856SOL     OW81399  11.453   1.835   7.291
59856SOL    HW181400  11.361   1.842   7.315
59856SOL    HW281401  11.498   1.807   7.371
59857SOL     OW81402   2.534   6.719   2.504
59857SOL    HW181403   2.527   6.639   2.452
59857SOL    HW281404   2.602   6.699   2.569
59858SOL     OW81405   7.527   3.427   0.113
59858SOL    HW181406   7.600   3.445   0.172
59858SOL    HW281407   7.561   3.448   0.026
59859SOL     OW81408   7.581   4.353   8.206
59859SOL    HW181409   7.665   4.399   8.210
59859SOL    HW281410   7.587   4.299   8.127
59860SOL     OW81411   8.868   6.269  11.560
59860SOL    HW181412   8.919   6.239  11.636
59860SOL    HW281413   8.811   6.196  11.540
59861SOL     OW81414   9.880  11.177   0.049
59861SOL    HW181415   9.820  11.105   0.066
59861SOL    HW281416   9.911  11.162  14.842
59862SOL     OW81417   9.914   7.997   6.188
59862SOL    HW181418   9.890   8.062   6.121
59862SOL    HW281419   9.842   7.934   6.187
59863SOL     OW81420   5.965   6.506   8.502
59863SOL    HW181421   5.970   6.444   8.574
59863SOL    HW281422   5.931   6.587   8.541
59864SOL     OW81423  14.577   2.382  10.589
59864SOL    HW181424  14.623   2.410  10.510
59864SOL    HW281425  14.615   2.435  10.659
59865SOL     OW81426   2.025   0.828   6.422
59865SOL    HW181427   2.104   0.882   6.422
59865SOL    HW281428   1.993   0.833   6.512
59866SOL     OW81429   4.154   0.686   6.712
59866SOL    HW181430   4.175   0.683   6.805
59866SOL    HW281431   4.060   0.668   6.707
59867SOL     OW81432  10.366  14.157   9.057
59867SOL    HW181433  10.353  14.091   9.125
59867SOL    HW281434  10.284  14.207   9.056
59868SOL     OW81435  10.303  14.240   4.034
59868SOL    HW181436  10.310  14.169   4.097
59868SOL    HW281437  10.294  14.319   4.087
59869SOL     OW81438  12.641   1.302   4.288
59869SOL    HW181439  12.665   1.314   4.196
59869SOL    HW281440  12.689   1.371   4.335
59870SOL     OW81441  10.523  11.807  13.119
59870SOL    HW181442  10.566  11.840  13.040
59870SOL    HW281443  10.484  11.884  13.159
59871SOL     OW81444   2.676   8.180  14.413
59871SOL    HW181445   2.765   8.163  14.444
59871SOL    HW281446   2.685   8.258  14.357
59872SOL     OW81447  14.698   8.381   8.599
59872SOL    HW181448  14.654   8.386   8.515
59872SOL    HW281449  14.652   8.312   8.647
59873SOL     OW81450  13.869   0.152   9.291
59873SOL    HW181451  13.920   0.199   9.226
59873SOL    HW281452  13.923   0.075   9.313
59874SOL     OW81453   5.701  12.938   5.640
59874SOL    HW181454   5.647  12.860   5.650
59874SOL    HW281455   5.639  13.008   5.622
59875SOL     OW81456   9.621   6.041   7.042
59875SOL    HW181457   9.710   6.007   7.046
59875SOL    HW281458   9.582   5.997   6.966
59876SOL     OW81459   9.570   9.149   8.952
59876SOL    HW181460   9.505   9.192   8.898
59876SOL    HW281461   9.533   9.150   9.040
59877SOL     OW81462   2.805  13.907   5.304
59877SOL    HW181463   2.889  13.865   5.326
59877SOL    HW281464   2.775  13.861   5.226
59878SOL     OW81465   8.745   9.922  11.911
59878SOL    HW181466   8.799   9.960  11.841
59878SOL    HW281467   8.769   9.972  11.989
59879SOL     OW81468   0.683   9.372  10.298
59879SOL    HW181469   0.644   9.329  10.374
59879SOL    HW281470   0.614   9.370  10.231
59880SOL     OW81471   4.059   8.278   8.986
59880SOL    HW181472   3.991   8.331   8.943
59880SOL    HW281473   4.044   8.291   9.080
59881SOL     OW81474  11.701   4.088   9.640
59881SOL    HW181475  11.623   4.091   9.584
59881SOL    HW281476  11.774   4.106   9.581
59882SOL     OW81477   9.092  10.281   3.202
59882SOL    HW181478   9.119  10.257   3.291
59882SOL    HW281479   9.003  10.247   3.195
59883SOL     OW81480   0.912   7.937   4.389
59883SOL    HW181481   0.833   7.885   4.371
59883SOL    HW281482   0.957   7.889   4.458
59884SOL     OW81483  12.699   0.582   9.330
59884SOL    HW181484  12.670   0.552   9.416
59884SOL    HW281485  12.782   0.627   9.347
59885SOL     OW81486   4.828  12.104   7.477
59885SOL    HW181487   4.848  12.198   7.477
59885SOL    HW281488   4.913  12.062   7.481
59886SOL     OW81489   2.876   0.215   4.978
59886SOL    HW181490   2.935   0.156   5.024
59886SOL    HW281491   2.894   0.200   4.885
59887SOL     OW81492   5.289  13.501   0.821
59887SOL    HW181493   5.353  13.430   0.817
59887SOL    HW281494   5.228  13.474   0.890
59888SOL     OW81495   1.195   9.150   6.244
59888SOL    HW181496   1.158   9.182   6.326
59888SOL    HW281497   1.135   9.080   6.216
59889SOL     OW81498   0.042   5.936   7.585
59889SOL    HW181499   0.112   5.898   7.531
59889SOL    HW281500   0.011   5.863   7.638
59890SOL     OW81501   5.567   8.578   2.236
59890SOL    HW181502   5.574   8.624   2.153
59890SOL    HW281503   5.590   8.487   2.215
59891SOL     OW81504   1.702   3.193   5.511
59891SOL    HW181505   1.745   3.128   5.455
59891SOL    HW281506   1.718   3.276   5.468
59892SOL     OW81507   4.131   1.064   1.824
59892SOL    HW181508   4.094   0.985   1.863
59892SOL    HW281509   4.148   1.040   1.733
59893SOL     OW81510  14.240   7.165   2.952
59893SOL    HW181511  14.158   7.183   2.906
59893SOL    HW281512  14.261   7.074   2.929
59894SOL     OW81513  13.214   4.581  12.261
59894SOL    HW181514  13.177   4.563  12.348
59894SOL    HW281515  13.293   4.527  12.258
59895SOL     OW81516  11.684   3.808  14.041
59895SOL    HW181517  11.699   3.749  13.968
59895SOL    HW281518  11.624   3.874  14.007
59896SOL     OW81519  12.291   5.088  13.908
59896SOL    HW181520  12.289   5.165  13.965
59896SOL    HW281521  12.356   5.111  13.841
59897SOL     OW81522   2.693  12.562   0.573
59897SOL    HW181523   2.612  12.603   0.541
59897SOL    HW281524   2.705  12.486   0.516
59898SOL     OW81525   3.744   5.011   2.258
59898SOL    HW181526   3.722   5.101   2.280
59898SOL    HW281527   3.790   4.978   2.336
59899SOL     OW81528   7.036   1.394   6.608
59899SOL    HW181529   7.067   1.391   6.698
59899SOL    HW281530   7.111   1.365   6.556
59900SOL     OW81531  13.888   3.049   3.151
59900SOL    HW181532  13.969   3.099   3.141
59900SOL    HW281533  13.918   2.961   3.175
59901SOL     OW81534  11.153  12.498  10.140
59901SOL    HW181535  11.104  12.580  10.147
59901SOL    HW281536  11.239  12.525  10.108
59902SOL     OW81537   0.630  12.552   7.905
59902SOL    HW181538   0.636  12.644   7.931
59902SOL    HW281539   0.637  12.503   7.987
59903SOL     OW81540   9.522  13.751  10.579
59903SOL    HW181541   9.599  13.713  10.621
59903SOL    HW281542   9.546  13.761  10.487
59904SOL     OW81543  10.872   3.047  14.341
59904SOL    HW181544  10.915   3.113  14.397
59904SOL    HW281545  10.810   3.004  14.400
59905SOL     OW81546  13.511   7.349  11.548
59905SOL    HW181547  13.564   7.394  11.614
59905SOL    HW281548  13.509   7.409  11.474
59906SOL     OW81549  12.947   5.623   0.620
59906SOL    HW181550  12.905   5.640   0.536
59906SOL    HW281551  12.905   5.543   0.653
59907SOL     OW81552   3.199   3.887   2.687
59907SOL    HW181553   3.195   3.855   2.777
59907SOL    HW281554   3.236   3.814   2.637
59908SOL     OW81555  14.468  13.478   3.653
59908SOL    HW181556  14.488  13.561   3.611
59908SOL    HW281557  14.477  13.413   3.583
59909SOL     OW81558  13.668   1.943   7.276
59909SOL    HW181559  13.704   1.878   7.215
59909SOL    HW281560  13.596   1.984   7.228
59910SOL     OW81561   2.699   4.169   4.697
59910SOL    HW181562   2.778   4.166   4.751
59910SOL    HW281563   2.661   4.255   4.714
59911SOL     OW81564  14.452  11.208   4.566
59911SOL    HW181565  14.515  11.185   4.634
59911SOL    HW281566  14.453  11.134   4.506
59912SOL     OW81567  10.731   1.240   8.886
59912SOL    HW181568  10.689   1.231   8.972
59912SOL    HW281569  10.824   1.228   8.903
59913SOL     OW81570   4.485   0.269  14.318
59913SOL    HW181571   4.445   0.356  14.325
59913SOL    HW281572   4.471   0.229  14.404
59914SOL     OW81573  11.514  12.016   4.808
59914SOL    HW181574  11.434  12.035   4.758
59914SOL    HW281575  11.584  12.025   4.744
59915SOL     OW81576  14.763   5.344  14.369
59915SOL    HW181577  14.687   5.353  14.311
59915SOL    HW281578  14.791   5.253  14.356
59916SOL     OW81579  10.953  14.293   7.836
59916SOL    HW181580  10.911  14.363   7.887
59916SOL    HW281581  10.993  14.338   7.762
59917SOL     OW81582  14.250  13.313  12.790
59917SOL    HW181583  14.286  13.230  12.823
59917SOL    HW281584  14.172  13.286  12.740
59918SOL     OW81585   7.617   0.112   6.877
59918SOL    HW181586   7.585   0.126   6.788
59918SOL    HW281587   7.667   0.030   6.872
59919SOL     OW81588   1.262   8.220   4.938
59919SOL    HW181589   1.326   8.206   5.008
59919SOL    HW281590   1.275   8.146   4.878
59920SOL     OW81591  12.657   1.595   2.209
59920SOL    HW181592  12.665   1.584   2.304
59920SOL    HW281593  12.716   1.529   2.172
59921SOL     OW81594  12.923  10.462   7.533
59921SOL    HW181595  12.915  10.394   7.600
59921SOL    HW281596  12.838  10.463   7.489
59922SOL     OW81597   5.621   5.514  13.573
59922SOL    HW181598   5.617   5.419  13.574
59922SOL    HW281599   5.532   5.542  13.551
59923SOL     OW81600   0.952   7.478   0.726
59923SOL    HW181601   0.992   7.431   0.652
59923SOL    HW281602   0.869   7.511   0.691
59924SOL     OW81603   0.534  13.914  12.311
59924SOL    HW181604   0.560  13.918  12.403
59924SOL    HW281605   0.598  13.967  12.265
59925SOL     OW81606  11.691  13.670   0.846
59925SOL    HW181607  11.667  13.658   0.938
59925SOL    HW281608  11.678  13.584   0.807
59926SOL     OW81609   3.410   5.612  13.983
59926SOL    HW181610   3.344   5.673  13.949
59926SOL    HW281611   3.485   5.623  13.925
59927SOL     OW81612   0.837  10.796   2.723
59927SOL    HW181613   0.818  10.834   2.637
59927SOL    HW281614   0.783  10.847   2.784
59928SOL     OW81615   9.989  11.502   5.888
59928SOL    HW181616   9.908  11.542   5.857
59928SOL    HW281617  10.052  11.573   5.889
59929SOL     OW81618  13.569   1.037  11.651
59929SOL    HW181619  13.537   0.969  11.711
59929SOL    HW281620  13.652   1.065  11.690
59930SOL     OW81621   2.367   5.546  11.737
59930SOL    HW181622   2.305   5.617  11.751
59930SOL    HW281623   2.444   5.588  11.697
59931SOL     OW81624   1.789   6.678   6.431
59931SOL    HW181625   1.856   6.729   6.387
59931SOL    HW281626   1.825   6.662   6.518
59932SOL     OW81627   7.643   9.251   9.559
59932SOL    HW181628   7.641   9.325   9.621
59932SOL    HW281629   7.728   9.258   9.516
59933SOL     OW81630   3.880   6.236   8.124
59933SOL    HW181631   3.881   6.141   8.137
59933SOL    HW281632   3.943   6.251   8.054
59934SOL     OW81633   9.364  12.712   6.293
59934SOL    HW181634   9.296  12.697   6.360
59934SOL    HW281635   9.435  12.652   6.317
59935SOL     OW81636   7.166   7.923   4.890
59935SOL    HW181637   7.205   7.838   4.910
59935SOL    HW281638   7.185   7.978   4.966
59936SOL     OW81639   0.144  11.206  14.113
59936SOL    HW181640   0.236  11.231  14.104
59936SOL    HW281641   0.145  11.130  14.171
59937SOL     OW81642  10.083  13.074   4.328
59937SOL    HW181643  10.153  13.022   4.288
59937SOL    HW281644  10.012  13.073   4.264
59938SOL     OW81645   9.310   7.398   3.149
59938SOL    HW181646   9.313   7.440   3.235
59938SOL    HW281647   9.224   7.420   3.114
59939SOL     OW81648  12.889  11.898  10.150
59939SOL    HW181649  12.811  11.951  10.165
59939SOL    HW281650  12.886  11.830  10.217
59940SOL     OW81651   0.117  10.973   0.243
59940SOL    HW181652   0.106  10.892   0.293
59940SOL    HW281653   0.041  11.026   0.267
59941SOL     OW81654   6.871  10.885   3.408
59941SOL    HW181655   6.837  10.820   3.470
59941SOL    HW281656   6.839  10.969   3.440
59942SOL     OW81657   1.028   4.493   7.548
59942SOL    HW181658   1.083   4.563   7.514
59942SOL    HW281659   1.076   4.412   7.527
59943SOL     OW81660  10.937  10.494  13.702
59943SOL    HW181661  10.873  10.564  13.689
59943SOL    HW281662  10.922  10.433  13.630
59944SOL     OW81663   5.247  11.784  13.751
59944SOL    HW181664   5.294  11.706  13.782
59944SOL    HW281665   5.314  11.836  13.707
59945SOL     OW81666   4.166  10.458  13.608
59945SOL    HW181667   4.166  10.383  13.548
59945SOL    HW281668   4.237  10.440  13.669
59946SOL     OW81669  12.866   0.531  11.995
59946SOL    HW181670  12.777   0.557  11.972
59946SOL    HW281671  12.858   0.442  12.028
59947SOL     OW81672   4.719   2.779   9.942
59947SOL    HW181673   4.694   2.789  10.034
59947SOL    HW281674   4.636   2.764   9.896
59948SOL     OW81675   6.753   2.451   3.893
59948SOL    HW181676   6.816   2.509   3.850
59948SOL    HW281677   6.752   2.372   3.840
59949SOL     OW81678  11.106   7.577   9.683
59949SOL    HW181679  11.067   7.516   9.619
59949SOL    HW281680  11.032   7.606   9.736
59950SOL     OW81681   8.266   3.449   0.871
59950SOL    HW181682   8.353   3.439   0.909
59950SOL    HW281683   8.248   3.364   0.831
59951SOL     OW81684   5.666   1.396   8.980
59951SOL    HW181685   5.631   1.363   9.063
59951SOL    HW281686   5.676   1.490   8.993
59952SOL     OW81687   4.333   6.101   1.020
59952SOL    HW181688   4.258   6.157   1.041
59952SOL    HW281689   4.389   6.105   1.097
59953SOL     OW81690   2.710  10.248   4.092
59953SOL    HW181691   2.712  10.342   4.075
59953SOL    HW281692   2.750  10.208   4.015
59954SOL     OW81693   4.567   9.198   3.572
59954SOL    HW181694   4.517   9.116   3.579
59954SOL    HW281695   4.655   9.170   3.545
59955SOL     OW81696  10.801   3.560  13.163
59955SOL    HW181697  10.792   3.635  13.104
59955SOL    HW281698  10.895   3.555  13.181
59956SOL     OW81699   9.627   6.050   0.979
59956SOL    HW181700   9.585   5.973   0.941
59956SOL    HW281701   9.570   6.076   1.050
59957SOL     OW81702   1.744  14.738  13.810
59957SOL    HW181703   1.750  14.703  13.899
59957SOL    HW281704   1.744  14.833  13.821
59958SOL     OW81705   6.824  10.446   1.439
59958SOL    HW181706   6.838  10.534   1.475
59958SOL    HW281707   6.740  10.419   1.474
59959SOL     OW81708   2.891   4.560  12.589
59959SOL    HW181709   2.879   4.575  12.682
59959SOL    HW281710   2.973   4.604  12.568
59960SOL     OW81711   2.190  11.600   8.910
59960SOL    HW181712   2.168  11.654   8.986
59960SOL    HW281713   2.263  11.545   8.939
59961SOL     OW81714   4.669   9.555   5.693
59961SOL    HW181715   4.576   9.568   5.674
59961SOL    HW281716   4.714   9.614   5.633
59962SOL     OW81717  11.794   0.594   7.864
59962SOL    HW181718  11.883   0.623   7.842
59962SOL    HW281719  11.806   0.515   7.916
59963SOL     OW81720   6.628  11.842   8.522
59963SOL    HW181721   6.652  11.824   8.613
59963SOL    HW281722   6.614  11.755   8.484
59964SOL     OW81723   9.478  13.088  13.859
59964SOL    HW181724   9.445  13.042  13.782
59964SOL    HW281725   9.460  13.028  13.932
59965SOL     OW81726   1.851  14.427   5.576
59965SOL    HW181727   1.757  14.409   5.575
59965SOL    HW281728   1.860  14.512   5.532
59966SOL     OW81729  12.806  11.566   7.179
59966SOL    HW181730  12.726  11.523   7.148
59966SOL    HW281731  12.843  11.608   7.102
59967SOL     OW81732   5.908   9.926  12.451
59967SOL    HW181733   5.815   9.938  12.470
59967SOL    HW281734   5.950   9.930  12.537
59968SOL     OW81735  10.730  11.640   2.918
59968SOL    HW181736  10.775  11.601   2.993
59968SOL    HW281737  10.769  11.597   2.841
59969SOL     OW81738   1.729   2.713   2.932
59969SOL    HW181739   1.636   2.702   2.951
59969SOL    HW281740   1.731   2.740   2.840
59970SOL     OW81741   5.526  14.789   0.980
59970SOL    HW181742   5.460  14.827   0.922
59970SOL    HW281743   5.503  14.697   0.987
59971SOL     OW81744   1.459  10.357   6.046
59971SOL    HW181745   1.504  10.273   6.033
59971SOL    HW281746   1.447  10.391   5.957
59972SOL     OW81747  13.677  13.332   0.228
59972SOL    HW181748  13.582  13.342   0.230
59972SOL    HW281749  13.696  13.297   0.141
59973SOL     OW81750   2.495   5.258   2.519
59973SOL    HW181751   2.477   5.289   2.608
59973SOL    HW281752   2.569   5.310   2.489
59974SOL     OW81753   1.142   0.190  13.366
59974SOL    HW181754   1.201   0.129  13.409
59974SOL    HW281755   1.152   0.272  13.414
59975SOL     OW81756  14.643  10.550   1.167
59975SOL    HW181757  14.577  10.575   1.231
59975SOL    HW281758  14.640  10.454   1.166
59976SOL     OW81759   0.406  12.251  14.835
59976SOL    HW181760   0.485  12.211  14.870
59976SOL    HW281761   0.355  12.275   0.030
59977SOL     OW81762  11.523   1.732   7.882
59977SOL    HW181763  11.486   1.647   7.858
59977SOL    HW281764  11.481   1.794   7.822
59978SOL     OW81765  11.059   7.962   7.606
59978SOL    HW181766  10.973   8.004   7.598
59978SOL    HW281767  11.064   7.903   7.531
59979SOL     OW81768   0.085   4.709   7.660
59979SOL    HW181769   0.139   4.648   7.609
59979SOL    HW281770  14.878   4.675   7.651
59980SOL     OW81771   6.094   7.092   9.701
59980SOL    HW181772   6.183   7.105   9.735
59980SOL    HW281773   6.044   7.166   9.735
59981SOL     OW81774   0.440  12.565  11.429
59981SOL    HW181775   0.448  12.593  11.521
59981SOL    HW281776   0.506  12.617  11.383
59982SOL     OW81777   8.934   9.630   1.827
59982SOL    HW181778   8.971   9.542   1.837
59982SOL    HW281779   8.892   9.647   1.911
59983SOL     OW81780   2.271   2.684  10.616
59983SOL    HW181781   2.271   2.598  10.574
59983SOL    HW281782   2.363   2.708  10.622
59984SOL     OW81783  11.620   5.044   8.447
59984SOL    HW181784  11.525   5.053   8.440
59984SOL    HW281785  11.656   5.124   8.409
59985SOL     OW81786  13.400   0.586  13.388
59985SOL    HW181787  13.479   0.566  13.337
59985SOL    HW281788  13.331   0.595  13.323
59986SOL     OW81789   6.810   6.262   7.115
59986SOL    HW181790   6.841   6.226   7.033
59986SOL    HW281791   6.735   6.317   7.091
59987SOL     OW81792   5.486   4.772   3.583
59987SOL    HW181793   5.504   4.850   3.530
59987SOL    HW281794   5.563   4.764   3.639
59988SOL     OW81795  12.621   6.079   8.885
59988SOL    HW181796  12.691   6.101   8.947
59988SOL    HW281797  12.541   6.103   8.931
59989SOL     OW81798  13.510   8.945  10.962
59989SOL    HW181799  13.486   9.029  10.923
59989SOL    HW281800  13.459   8.880  10.913
59990SOL     OW81801   9.873   8.532   3.790
59990SOL    HW181802   9.908   8.447   3.762
59990SOL    HW281803   9.950   8.587   3.804
59991SOL     OW81804  10.857  13.716   4.369
59991SOL    HW181805  10.948  13.741   4.384
59991SOL    HW281806  10.816  13.724   4.455
59992SOL     OW81807   7.451   2.144   6.359
59992SOL    HW181808   7.497   2.203   6.419
59992SOL    HW281809   7.422   2.201   6.287
59993SOL     OW81810  11.202  11.545  14.430
59993SOL    HW181811  11.272  11.522  14.491
59993SOL    HW281812  11.130  11.575  14.486
59994SOL     OW81813   0.935   1.507   5.518
59994SOL    HW181814   0.925   1.415   5.491
59994SOL    HW281815   0.907   1.557   5.442
59995SOL     OW81816   3.774   3.595  11.756
59995SOL    HW181817   3.695   3.550  11.785
59995SOL    HW281818   3.744   3.684  11.737
59996SOL     OW81819   6.578   4.379  14.809
59996SOL    HW181820   6.537   4.294  14.793
59996SOL    HW281821   6.672   4.363  14.803
59997SOL     OW81822  12.784  10.664   6.860
59997SOL    HW181823  12.746  10.717   6.930
59997SOL    HW281824  12.865  10.629   6.896
59998SOL     OW81825   0.386   0.378  13.903
59998SOL    HW181826   0.352   0.462  13.933
59998SOL    HW281827   0.473   0.398  13.870
59999SOL     OW81828   6.644   4.159   0.747
59999SOL    HW181829   6.666   4.174   0.655
59999SOL    HW281830   6.694   4.225   0.795
60000SOL     OW81831   2.183   6.530   0.472
60000SOL    HW181832   2.128   6.557   0.399
60000SOL    HW281833   2.180   6.604   0.533
60001SOL     OW81834  13.555  13.548  10.697
60001SOL    HW181835  13.479  13.602  10.676
60001SOL    HW281836  13.629  13.609  10.696
60002SOL     OW81837   1.313   4.531   9.037
60002SOL    HW181838   1.377   4.468   9.070
60002SOL    HW281839   1.245   4.477   8.996
60003SOL     OW81840  12.949  10.408   6.307
60003SOL    HW181841  12.869  10.388   6.356
60003SOL    HW281842  13.015  10.350   6.344
60004SOL     OW81843   5.348  12.207  13.352
60004SOL    HW181844   5.273  12.266  13.353
60004SOL    HW281845   5.316  12.127  13.310
60005SOL     OW81846   0.203   9.084   6.171
60005SOL    HW181847   0.265   9.120   6.234
60005SOL    HW281848   0.125   9.138   6.179
60006SOL     OW81849   5.293  10.153  14.736
60006SOL    HW181850   5.310  10.222  14.799
60006SOL    HW281851   5.372  10.150  14.681
60007SOL     OW81852  10.795   8.359   9.212
60007SOL    HW181853  10.737   8.435   9.217
60007SOL    HW281854  10.873   8.392   9.168
60008SOL     OW81855   7.863   2.718   6.763
60008SOL    HW181856   7.797   2.776   6.799
60008SOL    HW281857   7.916   2.774   6.706
60009SOL     OW81858  14.602  14.145   5.840
60009SOL    HW181859  14.565  14.145   5.751
60009SOL    HW281860  14.585  14.233   5.873
60010SOL     OW81861   2.763   5.569   6.517
60010SOL    HW181862   2.790   5.497   6.574
60010SOL    HW281863   2.721   5.526   6.442
60011SOL     OW81864  10.063   0.077   7.615
60011SOL    HW181865   9.969   0.062   7.629
60011SOL    HW281866  10.082   0.033   7.532
60012SOL     OW81867   2.422  14.000   9.420
60012SOL    HW181868   2.357  14.067   9.401
60012SOL    HW281869   2.498  14.025   9.368
60013SOL     OW81870   5.950   6.829  10.889
60013SOL    HW181871   6.029   6.811  10.839
60013SOL    HW281872   5.929   6.920  10.869
60014SOL     OW81873   9.762  10.831   7.254
60014SOL    HW181874   9.761  10.825   7.350
60014SOL    HW281875   9.852  10.858   7.233
60015SOL     OW81876   0.032   1.187  10.498
60015SOL    HW181877   0.058   1.276  10.524
60015SOL    HW281878  14.824   1.179  10.529
60016SOL     OW81879   6.955  11.075   0.255
60016SOL    HW181880   7.036  11.077   0.204
60016SOL    HW281881   6.983  11.047   0.342
60017SOL     OW81882   3.613  10.995   6.863
60017SOL    HW181883   3.574  11.079   6.887
60017SOL    HW281884   3.706  11.014   6.852
60018SOL     OW81885  12.923  11.977  12.332
60018SOL    HW181886  12.963  11.934  12.256
60018SOL    HW281887  12.840  12.011  12.298
60019SOL     OW81888   2.972  11.334  14.275
60019SOL    HW181889   2.902  11.279  14.240
60019SOL    HW281890   3.021  11.278  14.334
60020SOL     OW81891  13.289   7.427  11.120
60020SOL    HW181892  13.213   7.462  11.074
60020SOL    HW281893  13.281   7.462  11.209
60021SOL     OW81894   8.420   4.742   3.211
60021SOL    HW181895   8.452   4.770   3.297
60021SOL    HW281896   8.462   4.657   3.197
60022SOL     OW81897   5.755   4.470  14.836
60022SOL    HW181898   5.735   4.468   0.048
60022SOL    HW281899   5.709   4.394  14.801
60023SOL     OW81900  11.168   1.835   5.017
60023SOL    HW181901  11.139   1.777   5.087
60023SOL    HW281902  11.131   1.798   4.938
60024SOL     OW81903   3.761   5.415   9.959
60024SOL    HW181904   3.677   5.438   9.920
60024SOL    HW281905   3.739   5.351  10.027
60025SOL     OW81906   5.077   2.864   5.464
60025SOL    HW181907   5.109   2.948   5.499
60025SOL    HW281908   5.137   2.844   5.392
60026SOL     OW81909   1.355   4.629   8.117
60026SOL    HW181910   1.449   4.634   8.098
60026SOL    HW281911   1.348   4.650   8.210
60027SOL     OW81912  12.980   6.888   3.543
60027SOL    HW181913  13.043   6.960   3.544
60027SOL    HW281914  12.958   6.878   3.451
60028SOL     OW81915  11.865   5.232   8.564
60028SOL    HW181916  11.872   5.140   8.538
60028SOL    HW281917  11.954   5.266   8.556
60029SOL     OW81918   8.189   4.893  10.811
60029SOL    HW181919   8.281   4.916  10.825
60029SOL    HW281920   8.190   4.838  10.733
60030SOL     OW81921  12.245   5.775   1.363
60030SOL    HW181922  12.310   5.826   1.410
60030SOL    HW281923  12.167   5.779   1.417
60031SOL     OW81924   7.294   7.148   6.304
60031SOL    HW181925   7.291   7.080   6.237
60031SOL    HW281926   7.265   7.227   6.260
60032SOL     OW81927  10.838   5.278  11.447
60032SOL    HW181928  10.908   5.253  11.507
60032SOL    HW281929  10.845   5.216  11.374
60033SOL     OW81930   9.014   2.210   9.593
60033SOL    HW181931   9.085   2.214   9.658
60033SOL    HW281932   8.960   2.137   9.621
60034SOL     OW81933  13.770  11.909  12.773
60034SOL    HW181934  13.822  11.867  12.841
60034SOL    HW281935  13.699  11.846  12.757
60035SOL     OW81936   2.927   8.624   3.336
60035SOL    HW181937   2.998   8.687   3.350
60035SOL    HW281938   2.946   8.553   3.397
60036SOL     OW81939  11.345   1.177   7.011
60036SOL    HW181940  11.281   1.248   7.019
60036SOL    HW281941  11.294   1.101   6.984
60037SOL     OW81942   8.680   8.213   8.319
60037SOL    HW181943   8.602   8.223   8.265
60037SOL    HW281944   8.650   8.162   8.395
60038SOL     OW81945   8.227   7.964   9.456
60038SOL    HW181946   8.245   7.871   9.440
60038SOL    HW281947   8.219   7.971   9.551
60039SOL     OW81948   6.595  11.768   6.614
60039SOL    HW181949   6.577  11.836   6.549
60039SOL    HW281950   6.514  11.762   6.666
60040SOL     OW81951   1.672  12.104  14.848
60040SOL    HW181952   1.639  12.047   0.036
60040SOL    HW281953   1.761  12.128  14.876
60041SOL     OW81954  10.723  11.182  10.954
60041SOL    HW181955  10.738  11.116  11.022
60041SOL    HW281956  10.711  11.130  10.874
60042SOL     OW81957   0.470   7.045   6.045
60042SOL    HW181958   0.508   7.125   6.082
60042SOL    HW281959   0.500   7.043   5.955
60043SOL     OW81960  10.728  11.597  11.412
60043SOL    HW181961  10.808  11.634  11.373
60043SOL    HW281962  10.665  11.670  11.411
60044SOL     OW81963   1.125   2.668  11.260
60044SOL    HW181964   1.201   2.615  11.283
60044SOL    HW281965   1.077   2.615  11.196
60045SOL     OW81966   9.148   6.911   9.549
60045SOL    HW181967   9.219   6.879   9.492
60045SOL    HW281968   9.178   6.891   9.638
60046SOL     OW81969   1.471   4.813   8.694
60046SOL    HW181970   1.478   4.734   8.748
60046SOL    HW281971   1.495   4.884   8.754
60047SOL     OW81972  10.703   3.367   8.685
60047SOL    HW181973  10.757   3.437   8.649
60047SOL    HW281974  10.709   3.297   8.620
60048SOL     OW81975  13.866   9.545   6.123
60048SOL    HW181976  13.817   9.502   6.192
60048SOL    HW281977  13.801   9.564   6.055
60049SOL     OW81978   6.834  10.585   3.166
60049SOL    HW181979   6.824  10.536   3.084
60049SOL    HW281980   6.826  10.676   3.140
60050SOL     OW81981   8.774  11.804   4.342
60050SOL    HW181982   8.842  11.788   4.277
60050SOL    HW281983   8.717  11.728   4.337
60051SOL     OW81984  10.991   5.429   8.025
60051SOL    HW181985  11.030   5.350   7.987
60051SOL    HW281986  10.924   5.456   7.962
60052SOL     OW81987   9.728   1.726   1.301
60052SOL    HW181988   9.747   1.681   1.219
60052SOL    HW281989   9.719   1.656   1.366
60053SOL     OW81990   5.898   3.669   6.576
60053SOL    HW181991   5.806   3.653   6.595
60053SOL    HW281992   5.931   3.584   6.545
60054SOL     OW81993   6.749  14.337   2.684
60054SOL    HW181994   6.839  14.371   2.684
60054SOL    HW281995   6.721  14.346   2.775
60055SOL     OW81996   2.234  10.089   3.225
60055SOL    HW181997   2.193  10.144   3.160
60055SOL    HW281998   2.162  10.058   3.280
60056SOL     OW81999   7.534  12.120   2.414
60056SOL    HW182000   7.606  12.070   2.376
60056SOL    HW282001   7.549  12.210   2.385
60057SOL     OW82002  10.767  11.919   2.394
60057SOL    HW182003  10.701  11.923   2.463
60057SOL    HW282004  10.830  11.855   2.425
60058SOL     OW82005   4.426   6.112   3.898
60058SOL    HW182006   4.425   6.165   3.818
60058SOL    HW282007   4.364   6.157   3.956
60059SOL     OW82008   1.192   2.598   9.163
60059SOL    HW182009   1.273   2.548   9.178
60059SOL    HW282010   1.223   2.684   9.136
60060SOL     OW82011   4.728   2.779   0.232
60060SOL    HW182012   4.739   2.809   0.142
60060SOL    HW282013   4.800   2.717   0.245
60061SOL     OW82014   0.599  14.162   6.899
60061SOL    HW182015   0.574  14.136   6.987
60061SOL    HW282016   0.656  14.092   6.868
60062SOL     OW82017   6.048   0.391  11.242
60062SOL    HW182018   5.986   0.449  11.288
60062SOL    HW282019   6.107   0.361  11.311
60063SOL     OW82020  13.653   5.892  10.468
60063SOL    HW182021  13.574   5.899  10.414
60063SOL    HW282022  13.704   5.970  10.446
60064SOL     OW82023   6.693  12.364  10.371
60064SOL    HW182024   6.778  12.382  10.332
60064SOL    HW282025   6.709  12.363  10.465
60065SOL     OW82026   4.859   2.284  10.329
60065SOL    HW182027   4.799   2.276  10.404
60065SOL    HW282028   4.852   2.376  10.303
60066SOL     OW82029   8.830  12.382   4.411
60066SOL    HW182030   8.920  12.348   4.415
60066SOL    HW282031   8.832  12.459   4.467
60067SOL     OW82032   0.999   3.889   0.225
60067SOL    HW182033   0.971   3.797   0.224
60067SOL    HW282034   0.945   3.929   0.293
60068SOL     OW82035   2.101  11.893   7.629
60068SOL    HW182036   2.070  11.929   7.712
60068SOL    HW282037   2.196  11.886   7.640
60069SOL     OW82038   7.568   0.484   5.837
60069SOL    HW182039   7.620   0.453   5.911
60069SOL    HW282040   7.549   0.405   5.786
60070SOL     OW82041  12.764   9.057   2.662
60070SOL    HW182042  12.787   8.965   2.659
60070SOL    HW282043  12.848   9.103   2.670
60071SOL     OW82044  14.529   2.444   2.136
60071SOL    HW182045  14.593   2.407   2.075
60071SOL    HW282046  14.524   2.379   2.207
60072SOL     OW82047  13.795  13.181   8.607
60072SOL    HW182048  13.764  13.091   8.600
60072SOL    HW282049  13.716  13.232   8.625
60073SOL     OW82050   5.916   0.178  12.953
60073SOL    HW182051   5.850   0.232  12.908
60073SOL    HW282052   5.981   0.241  12.984
60074SOL     OW82053  10.221   5.951   5.156
60074SOL    HW182054  10.234   6.036   5.115
60074SOL    HW282055  10.166   5.902   5.095
60075SOL     OW82056  10.281   0.082  13.514
60075SOL    HW182057  10.359   0.089  13.459
60075SOL    HW282058  10.238   0.167  13.506
60076SOL     OW82059   4.825   0.853  10.150
60076SOL    HW182060   4.829   0.939  10.109
60076SOL    HW282061   4.878   0.797  10.094
60077SOL     OW82062  12.804  10.067   4.703
60077SOL    HW182063  12.844  10.139   4.655
60077SOL    HW282064  12.862  10.054   4.778
60078SOL     OW82065   3.866   2.816   0.395
60078SOL    HW182066   3.806   2.871   0.346
60078SOL    HW282067   3.819   2.733   0.406
60079SOL     OW82068  14.521  10.430   8.156
60079SOL    HW182069  14.433  10.405   8.184
60079SOL    HW282070  14.510  10.516   8.117
60080SOL     OW82071  14.094   5.537  12.076
60080SOL    HW182072  14.102   5.472  12.146
60080SOL    HW282073  14.117   5.491  11.996
60081SOL     OW82074  12.248   0.295   3.193
60081SOL    HW182075  12.187   0.268   3.124
60081SOL    HW282076  12.207   0.264   3.274
60082SOL     OW82077  10.948   6.677   1.037
60082SOL    HW182078  11.019   6.676   0.974
60082SOL    HW282079  10.870   6.700   0.985
60083SOL     OW82080   0.516   6.490  10.802
60083SOL    HW182081   0.505   6.450  10.716
60083SOL    HW282082   0.609   6.513  10.806
60084SOL     OW82083   6.278  11.999   7.849
60084SOL    HW182084   6.193  12.032   7.879
60084SOL    HW282085   6.336  12.009   7.925
60085SOL     OW82086  13.919   9.504  11.393
60085SOL    HW182087  13.840   9.486  11.342
60085SOL    HW282088  13.974   9.426  11.380
60086SOL     OW82089  11.897   4.063  14.659
60086SOL    HW182090  11.971   4.094  14.711
60086SOL    HW282091  11.825   4.122  14.682
60087SOL     OW82092  11.117  14.617  11.945
60087SOL    HW182093  11.075  14.623  11.860
60087SOL    HW282094  11.197  14.566  11.929
60088SOL     OW82095   8.448   9.524   4.422
60088SOL    HW182096   8.500   9.597   4.387
60088SOL    HW282097   8.411   9.558   4.503
60089SOL     OW82098   0.516   9.803   4.514
60089SOL    HW182099   0.511   9.852   4.596
60089SOL    HW282100   0.606   9.770   4.510
60090SOL     OW82101   5.344   4.490   4.467
60090SOL    HW182102   5.403   4.555   4.430
60090SOL    HW282103   5.270   4.488   4.406
60091SOL     OW82104   3.383   3.588   4.761
60091SOL    HW182105   3.466   3.596   4.808
60091SOL    HW282106   3.405   3.611   4.670
60092SOL     OW82107   5.721  12.176   6.557
60092SOL    HW182108   5.659  12.247   6.541
60092SOL    HW282109   5.791  12.190   6.494
60093SOL     OW82110   0.475   0.380   6.316
60093SOL    HW182111   0.530   0.304   6.297
60093SOL    HW282112   0.401   0.346   6.365
60094SOL     OW82113   6.352  12.374   2.539
60094SOL    HW182114   6.374  12.467   2.546
60094SOL    HW282115   6.391  12.345   2.457
60095SOL     OW82116   6.553   3.129  10.350
60095SOL    HW182117   6.559   3.216  10.310
60095SOL    HW282118   6.640   3.092  10.339
60096SOL     OW82119   4.997   5.552   4.493
60096SOL    HW182120   5.057   5.572   4.421
60096SOL    HW282121   5.048   5.497   4.552
60097SOL     OW82122   0.548   9.870  13.737
60097SOL    HW182123   0.623   9.919  13.704
60097SOL    HW282124   0.587   9.791  13.775
60098SOL     OW82125   6.701   9.236   9.567
60098SOL    HW182126   6.657   9.277   9.493
60098SOL    HW282127   6.691   9.142   9.552
60099SOL     OW82128   0.180   6.268  11.984
60099SOL    HW182129   0.092   6.281  12.020
60099SOL    HW282130   0.186   6.174  11.970
60100SOL     OW82131   6.437  11.240   4.840
60100SOL    HW182132   6.436  11.317   4.784
60100SOL    HW282133   6.449  11.275   4.929
60101SOL     OW82134  12.088   4.658  10.015
60101SOL    HW182135  12.106   4.567  10.039
60101SOL    HW282136  12.104   4.662   9.920
60102SOL     OW82137   0.438   4.776   9.626
60102SOL    HW182138   0.486   4.842   9.576
60102SOL    HW282139   0.346   4.793   9.606
60103SOL     OW82140   1.441   3.695   2.880
60103SOL    HW182141   1.503   3.626   2.857
60103SOL    HW282142   1.364   3.678   2.826
60104SOL     OW82143  10.440  14.649  11.101
60104SOL    HW182144  10.350  14.626  11.122
60104SOL    HW282145  10.434  14.687  11.013
60105SOL     OW82146   1.291  11.841   7.584
60105SOL    HW182147   1.349  11.869   7.514
60105SOL    HW282148   1.321  11.753   7.607
60106SOL     OW82149   4.188   0.779   7.125
60106SOL    HW182150   4.203   0.684   7.127
60106SOL    HW282151   4.273   0.817   7.148
60107SOL     OW82152  12.450  11.409   3.866
60107SOL    HW182153  12.394  11.386   3.940
60107SOL    HW282154  12.539  11.409   3.902
60108SOL     OW82155   6.917  14.861   7.920
60108SOL    HW182156   7.009  14.852   7.943
60108SOL    HW282157   6.889   0.059   7.965
60109SOL     OW82158   1.372   2.102  12.926
60109SOL    HW182159   1.384   2.007  12.935
60109SOL    HW282160   1.277   2.114  12.922
60110SOL     OW82161  10.530   1.614   5.133
60110SOL    HW182162  10.486   1.679   5.189
60110SOL    HW282163  10.511   1.643   5.044
60111SOL     OW82164   6.104   1.576   8.109
60111SOL    HW182165   6.160   1.501   8.132
60111SOL    HW282166   6.021   1.558   8.151
60112SOL     OW82167   2.148  12.615   6.321
60112SOL    HW182168   2.140  12.614   6.226
60112SOL    HW282169   2.108  12.533   6.349
60113SOL     OW82170   2.371   7.331   1.080
60113SOL    HW182171   2.398   7.416   1.048
60113SOL    HW282172   2.314   7.350   1.155
60114SOL     OW82173  11.002  10.048  11.728
60114SOL    HW182174  10.961   9.961  11.732
60114SOL    HW282175  10.986  10.086  11.814
60115SOL     OW82176  14.540   2.855   0.854
60115SOL    HW182177  14.630   2.855   0.823
60115SOL    HW282178  14.506   2.770   0.829
60116SOL     OW82179   2.778   2.388   0.165
60116SOL    HW182180   2.813   2.335   0.094
60116SOL    HW282181   2.801   2.478   0.141
60117SOL     OW82182   1.930  14.437   8.338
60117SOL    HW182183   1.981  14.517   8.352
60117SOL    HW282184   1.949  14.383   8.414
60118SOL     OW82185  13.868  10.785   1.528
60118SOL    HW182186  13.963  10.779   1.518
60118SOL    HW282187  13.846  10.871   1.492
60119SOL     OW82188   4.233   9.446   7.145
60119SOL    HW182189   4.154   9.452   7.091
60119SOL    HW282190   4.261   9.537   7.157
60120SOL     OW82191   1.051   2.877   0.212
60120SOL    HW182192   1.124   2.816   0.206
60120SOL    HW282193   0.987   2.844   0.148
60121SOL     OW82194   6.234   5.783   2.094
60121SOL    HW182195   6.260   5.835   2.170
60121SOL    HW282196   6.155   5.737   2.122
60122SOL     OW82197   3.277   4.201   4.407
60122SOL    HW182198   3.309   4.149   4.333
60122SOL    HW282199   3.213   4.261   4.368
60123SOL     OW82200   4.055   3.996   5.864
60123SOL    HW182201   4.057   3.958   5.776
60123SOL    HW282202   3.965   3.984   5.894
60124SOL     OW82203  11.685   8.859   2.878
60124SOL    HW182204  11.731   8.849   2.962
60124SOL    HW282205  11.593   8.847   2.900
60125SOL     OW82206  14.233  14.834   0.437
60125SOL    HW182207  14.168  14.769   0.461
60125SOL    HW282208  14.309  14.814   0.492
60126SOL     OW82209  12.259   3.355   4.822
60126SOL    HW182210  12.230   3.304   4.897
60126SOL    HW282211  12.347   3.324   4.804
60127SOL     OW82212   6.818  10.412  12.951
60127SOL    HW182213   6.877  10.452  12.886
60127SOL    HW282214   6.839  10.318  12.947
60128SOL     OW82215  10.489   2.590  12.566
60128SOL    HW182216  10.443   2.668  12.534
60128SOL    HW282217  10.419   2.527  12.585
60129SOL     OW82218  14.025   5.791   8.028
60129SOL    HW182219  14.090   5.769   8.095
60129SOL    HW282220  14.059   5.871   7.987
60130SOL     OW82221   1.073   5.779  10.465
60130SOL    HW182222   1.030   5.696  10.487
60130SOL    HW282223   1.045   5.797  10.375
60131SOL     OW82224   6.509   6.881   9.978
60131SOL    HW182225   6.592   6.928   9.965
60131SOL    HW282226   6.445   6.951   9.993
60132SOL     OW82227  12.108   2.994   2.805
60132SOL    HW182228  12.128   2.901   2.815
60132SOL    HW282229  12.183   3.029   2.756
60133SOL     OW82230   6.577  13.467  11.988
60133SOL    HW182231   6.549  13.557  11.971
60133SOL    HW282232   6.589  13.463  12.083
60134SOL     OW82233  11.419   1.489   6.306
60134SOL    HW182234  11.487   1.469   6.370
60134SOL    HW282235  11.362   1.412   6.306
60135SOL     OW82236  10.396  13.844  13.752
60135SOL    HW182237  10.442  13.869  13.671
60135SOL    HW282238  10.464  13.847  13.819
60136SOL     OW82239   6.072   1.729   9.878
60136SOL    HW182240   5.984   1.697   9.899
60136SOL    HW282241   6.057   1.800   9.816
60137SOL     OW82242   3.838   2.542   4.631
60137SOL    HW182243   3.848   2.538   4.536
60137SOL    HW282244   3.927   2.529   4.665
60138SOL     OW82245   0.361   1.869   3.732
60138SOL    HW182246   0.318   1.784   3.735
60138SOL    HW282247   0.449   1.850   3.698
60139SOL     OW82248   5.282  12.980  11.402
60139SOL    HW182249   5.252  12.952  11.488
60139SOL    HW282250   5.372  13.011  11.417
60140SOL     OW82251  14.297   8.246   4.004
60140SOL    HW182252  14.370   8.197   4.042
60140SOL    HW282253  14.259   8.186   3.939
60141SOL     OW82254   3.591   6.690   3.812
60141SOL    HW182255   3.574   6.610   3.862
60141SOL    HW282256   3.657   6.737   3.862
60142SOL     OW82257   6.985   9.902  13.845
60142SOL    HW182258   6.998   9.980  13.899
60142SOL    HW282259   6.949   9.935  13.763
60143SOL     OW82260   3.713   0.315  11.107
60143SOL    HW182261   3.642   0.258  11.078
60143SOL    HW282262   3.739   0.363  11.028
60144SOL     OW82263   4.357  11.794   6.523
60144SOL    HW182264   4.266  11.813   6.548
60144SOL    HW282265   4.349  11.725   6.457
60145SOL     OW82266  10.047   9.689   9.366
60145SOL    HW182267  10.074   9.776   9.393
60145SOL    HW282268  10.075   9.682   9.274
60146SOL     OW82269   4.675   7.204  10.544
60146SOL    HW182270   4.731   7.224  10.469
60146SOL    HW282271   4.587   7.195  10.507
60147SOL     OW82272   3.510   5.524   0.191
60147SOL    HW182273   3.582   5.581   0.218
60147SOL    HW282274   3.469   5.571   0.118
60148SOL     OW82275   2.940   4.410   2.027
60148SOL    HW182276   2.856   4.372   2.002
60148SOL    HW282277   2.916   4.488   2.077
60149SOL     OW82278  12.731   5.829   1.488
60149SOL    HW182279  12.715   5.922   1.507
60149SOL    HW282280  12.683   5.813   1.407
60150SOL     OW82281  12.390   6.594  10.475
60150SOL    HW182282  12.349   6.577  10.560
60150SOL    HW282283  12.319   6.589  10.412
60151SOL     OW82284   6.284  13.218   0.091
60151SOL    HW182285   6.282  13.126   0.065
60151SOL    HW282286   6.193  13.238   0.114
60152SOL     OW82287  12.744   2.003  11.836
60152SOL    HW182288  12.761   1.990  11.929
60152SOL    HW282289  12.769   2.094  11.819
60153SOL     OW82290   3.608   4.322   2.647
60153SOL    HW182291   3.565   4.301   2.565
60153SOL    HW282292   3.585   4.250   2.706
60154SOL     OW82293   4.087   8.374  14.123
60154SOL    HW182294   4.058   8.359  14.214
60154SOL    HW282295   4.133   8.294  14.099
60155SOL     OW82296  13.670  13.116   8.931
60155SOL    HW182297  13.615  13.105   9.009
60155SOL    HW282298  13.608  13.139   8.861
60156SOL     OW82299   9.908  13.437  13.340
60156SOL    HW182300   9.884  13.398  13.424
60156SOL    HW282301   9.826  13.470  13.304
60157SOL     OW82302   6.943  10.888   2.434
60157SOL    HW182303   6.969  10.881   2.526
60157SOL    HW282304   7.023  10.872   2.385
60158SOL     OW82305   5.683   6.801   8.670
60158SOL    HW182306   5.685   6.737   8.599
60158SOL    HW282307   5.642   6.754   8.743
60159SOL     OW82308   7.997   6.515   5.579
60159SOL    HW182309   8.001   6.458   5.657
60159SOL    HW282310   8.070   6.575   5.590
60160SOL     OW82311  12.488   0.539   5.616
60160SOL    HW182312  12.560   0.475   5.611
60160SOL    HW282313  12.419   0.492   5.663
60161SOL     OW82314   5.731  12.866   1.745
60161SOL    HW182315   5.714  12.856   1.839
60161SOL    HW282316   5.644  12.873   1.706
60162SOL     OW82317   7.898   8.284  14.309
60162SOL    HW182318   7.811   8.305  14.341
60162SOL    HW282319   7.903   8.189  14.309
60163SOL     OW82320   1.770  11.053  14.093
60163SOL    HW182321   1.858  11.018  14.106
60163SOL    HW282322   1.715  11.004  14.155
60164SOL     OW82323   9.537   2.685  10.798
60164SOL    HW182324   9.445   2.677  10.772
60164SOL    HW282325   9.571   2.755  10.743
60165SOL     OW82326   3.837   8.383   1.503
60165SOL    HW182327   3.783   8.314   1.542
60165SOL    HW282328   3.795   8.401   1.419
60166SOL     OW82329  13.019   5.576   1.865
60166SOL    HW182330  13.088   5.586   1.800
60166SOL    HW282331  12.937   5.583   1.816
60167SOL     OW82332   5.299   8.198   9.430
60167SOL    HW182333   5.256   8.188   9.515
60167SOL    HW282334   5.359   8.123   9.425
60168SOL     OW82335   9.107  12.289   4.507
60168SOL    HW182336   9.179  12.317   4.451
60168SOL    HW282337   9.131  12.322   4.594
60169SOL     OW82338   1.635   2.174   2.745
60169SOL    HW182339   1.702   2.132   2.798
60169SOL    HW282340   1.554   2.129   2.769
60170SOL     OW82341  14.068   9.702   4.091
60170SOL    HW182342  14.091   9.726   4.001
60170SOL    HW282343  14.115   9.620   4.107
60171SOL     OW82344   0.943   3.784   1.296
60171SOL    HW182345   0.984   3.863   1.260
60171SOL    HW282346   0.899   3.814   1.376
60172SOL     OW82347  13.565  13.492   4.204
60172SOL    HW182348  13.630  13.549   4.244
60172SOL    HW282349  13.592  13.486   4.112
60173SOL     OW82350   0.633   8.364   5.792
60173SOL    HW182351   0.723   8.396   5.789
60173SOL    HW282352   0.589   8.408   5.719
60174SOL     OW82353   9.849   6.437  10.267
60174SOL    HW182354   9.937   6.447  10.230
60174SOL    HW282355   9.819   6.527  10.280
60175SOL     OW82356   2.696  13.634   2.229
60175SOL    HW182357   2.791  13.625   2.225
60175SOL    HW282358   2.662  13.558   2.181
60176SOL     OW82359   8.136   3.969   6.087
60176SOL    HW182360   8.170   3.883   6.112
60176SOL    HW282361   8.126   4.016   6.170
60177SOL     OW82362   0.269  11.676   6.356
60177SOL    HW182363   0.325  11.623   6.412
60177SOL    HW282364   0.277  11.765   6.391
60178SOL     OW82365  11.863   6.137   5.414
60178SOL    HW182366  11.931   6.187   5.369
60178SOL    HW282367  11.784   6.191   5.407
60179SOL     OW82368  14.293   2.925   5.699
60179SOL    HW182369  14.353   2.965   5.762
60179SOL    HW282370  14.345   2.916   5.619
60180SOL     OW82371   9.577   5.881  10.702
60180SOL    HW182372   9.628   5.866  10.782
60180SOL    HW282373   9.557   5.793  10.669
60181SOL     OW82374   8.054   2.606   0.485
60181SOL    HW182375   7.963   2.608   0.515
60181SOL    HW282376   8.104   2.579   0.563
60182SOL     OW82377   9.391   3.394   8.559
60182SOL    HW182378   9.303   3.408   8.522
60182SOL    HW282379   9.374   3.369   8.650
60183SOL     OW82380   7.731   6.797  14.036
60183SOL    HW182381   7.810   6.847  14.014
60183SOL    HW282382   7.764   6.717  14.077
60184SOL     OW82383  10.449   6.658   0.335
60184SOL    HW182384  10.449   6.567   0.306
60184SOL    HW282385  10.403   6.706   0.266
60185SOL     OW82386   8.118   5.039   7.625
60185SOL    HW182387   8.033   5.032   7.581
60185SOL    HW282388   8.152   5.124   7.596
60186SOL     OW82389   3.786   3.848   7.417
60186SOL    HW182390   3.801   3.941   7.433
60186SOL    HW282391   3.802   3.806   7.501
60187SOL     OW82392   3.481   3.669  12.784
60187SOL    HW182393   3.417   3.739  12.799
60187SOL    HW282394   3.437   3.609  12.724
60188SOL     OW82395  14.162   7.328  10.162
60188SOL    HW182396  14.104   7.252  10.170
60188SOL    HW282397  14.202   7.336  10.249
60189SOL     OW82398   4.102   5.914   8.830
60189SOL    HW182399   4.135   5.899   8.741
60189SOL    HW282400   4.014   5.877   8.829
60190SOL     OW82401   0.135   4.998   1.148
60190SOL    HW182402   0.176   5.079   1.180
60190SOL    HW282403   0.080   5.026   1.075
60191SOL     OW82404   2.574  14.156   3.301
60191SOL    HW182405   2.479  14.144   3.298
60191SOL    HW282406   2.610  14.074   3.268
60192SOL     OW82407   2.887   3.712  13.849
60192SOL    HW182408   2.852   3.678  13.931
60192SOL    HW282409   2.888   3.807  13.859
60193SOL     OW82410   8.031   5.994   8.678
60193SOL    HW182411   8.074   6.079   8.666
60193SOL    HW282412   7.946   6.015   8.717
60194SOL     OW82413   8.730   1.673   2.259
60194SOL    HW182414   8.807   1.630   2.297
60194SOL    HW282415   8.708   1.742   2.321
60195SOL     OW82416   6.873   9.351  13.442
60195SOL    HW182417   6.858   9.267  13.484
60195SOL    HW282418   6.953   9.385  13.483
60196SOL     OW82419  14.494   1.269  13.488
60196SOL    HW182420  14.511   1.241  13.578
60196SOL    HW282421  14.581   1.284  13.451
60197SOL     OW82422   8.011   2.361  13.465
60197SOL    HW182423   8.075   2.418  13.506
60197SOL    HW282424   8.036   2.358  13.373
60198SOL     OW82425  13.781  14.415  10.800
60198SOL    HW182426  13.824  14.399  10.884
60198SOL    HW282427  13.851  14.446  10.743
60199SOL     OW82428  14.199   5.406   3.549
60199SOL    HW182429  14.153   5.326   3.573
60199SOL    HW282430  14.282   5.376   3.513
60200SOL     OW82431   2.401   8.185   4.112
60200SOL    HW182432   2.416   8.218   4.024
60200SOL    HW282433   2.412   8.261   4.168
60201SOL     OW82434   0.268  14.776  12.999
60201SOL    HW182435   0.300  14.721  13.071
60201SOL    HW282436   0.240  14.857  13.042
60202SOL     OW82437   5.793   1.858  10.594
60202SOL    HW182438   5.834   1.774  10.615
60202SOL    HW282439   5.699   1.843  10.608
60203SOL     OW82440   0.602   8.262   1.233
60203SOL    HW182441   0.597   8.241   1.327
60203SOL    HW282442   0.614   8.178   1.190
60204SOL     OW82443   5.822   0.934  12.111
60204SOL    HW182444   5.788   0.997  12.047
60204SOL    HW282445   5.779   0.851  12.088
60205SOL     OW82446   1.163  13.353  11.955
60205SOL    HW182447   1.145  13.441  11.988
60205SOL    HW282448   1.166  13.298  12.033
60206SOL     OW82449   1.807  12.754   9.597
60206SOL    HW182450   1.777  12.740   9.507
60206SOL    HW282451   1.801  12.667   9.638
60207SOL     OW82452   4.176  10.170  11.170
60207SOL    HW182453   4.124  10.156  11.091
60207SOL    HW282454   4.265  10.147  11.144
60208SOL     OW82455   0.949   8.202   1.322
60208SOL    HW182456   0.926   8.113   1.294
60208SOL    HW282457   0.926   8.204   1.415
60209SOL     OW82458   6.801   2.577   2.239
60209SOL    HW182459   6.863   2.563   2.310
60209SOL    HW282460   6.724   2.527   2.264
60210SOL     OW82461   2.085   5.178   2.618
60210SOL    HW182462   2.049   5.161   2.705
60210SOL    HW282463   2.121   5.093   2.590
60211SOL     OW82464   5.474   9.026   1.752
60211SOL    HW182465   5.445   9.046   1.663
60211SOL    HW282466   5.413   8.959   1.783
60212SOL     OW82467   6.522   0.800  14.671
60212SOL    HW182468   6.582   0.875  14.675
60212SOL    HW282469   6.574   0.729  14.635
60213SOL     OW82470   5.490   0.540   2.623
60213SOL    HW182471   5.488   0.546   2.528
60213SOL    HW282472   5.525   0.625   2.652
60214SOL     OW82473  14.761   7.021   0.557
60214SOL    HW182474  14.826   7.052   0.621
60214SOL    HW282475  14.703   7.096   0.544
60215SOL     OW82476   4.580   1.928   2.847
60215SOL    HW182477   4.507   1.870   2.867
60215SOL    HW282478   4.655   1.869   2.835
60216SOL     OW82479   5.140  13.474   4.054
60216SOL    HW182480   5.168  13.386   4.029
60216SOL    HW282481   5.092  13.506   3.978
60217SOL     OW82482  12.285   3.015   1.043
60217SOL    HW182483  12.266   3.105   1.016
60217SOL    HW282484  12.287   3.019   1.139
60218SOL     OW82485   6.050  12.824   8.492
60218SOL    HW182486   6.002  12.741   8.494
60218SOL    HW282487   6.102  12.820   8.412
60219SOL     OW82488   6.075   4.776  10.872
60219SOL    HW182489   6.143   4.757  10.937
60219SOL    HW282490   6.122   4.813  10.798
60220SOL     OW82491   6.306  13.301   0.430
60220SOL    HW182492   6.249  13.234   0.392
60220SOL    HW282493   6.340  13.349   0.354
60221SOL     OW82494   6.257   7.029   1.843
60221SOL    HW182495   6.169   7.003   1.870
60221SOL    HW282496   6.243   7.090   1.771
60222SOL     OW82497  12.306  13.363   1.131
60222SOL    HW182498  12.235  13.381   1.069
60222SOL    HW282499  12.319  13.446   1.177
60223SOL     OW82500   4.800  13.718  11.578
60223SOL    HW182501   4.832  13.806  11.556
60223SOL    HW282502   4.705  13.727  11.579
60224SOL     OW82503  11.915   2.759   3.955
60224SOL    HW182504  11.828   2.738   3.922
60224SOL    HW282505  11.951   2.676   3.985
60225SOL     OW82506   6.101   8.207   9.288
60225SOL    HW182507   6.016   8.252   9.287
60225SOL    HW282508   6.166   8.277   9.293
60226SOL     OW82509   5.554   8.202   3.045
60226SOL    HW182510   5.466   8.219   3.013
60226SOL    HW282511   5.603   8.282   3.025
60227SOL     OW82512  10.249   5.161  14.035
60227SOL    HW182513  10.178   5.225  14.033
60227SOL    HW282514  10.207   5.080  14.065
60228SOL     OW82515  11.017   2.831  10.334
60228SOL    HW182516  10.997   2.770  10.263
60228SOL    HW282517  11.094   2.793  10.377
60229SOL     OW82518   9.528   3.026  12.405
60229SOL    HW182519   9.435   3.042  12.392
60229SOL    HW282520   9.537   3.007  12.499
60230SOL     OW82521   2.432   9.039   9.354
60230SOL    HW182522   2.401   8.984   9.427
60230SOL    HW282523   2.438   8.978   9.280
60231SOL     OW82524  14.706   7.382  13.825
60231SOL    HW182525  14.692   7.320  13.753
60231SOL    HW282526  14.637   7.447  13.813
60232SOL     OW82527  13.009   2.191  13.345
60232SOL    HW182528  13.100   2.210  13.366
60232SOL    HW282529  13.012   2.113  13.290
60233SOL     OW82530   2.667  11.178  13.388
60233SOL    HW182531   2.624  11.165  13.473
60233SOL    HW282532   2.647  11.268  13.365
60234SOL     OW82533   8.583   4.544   9.036
60234SOL    HW182534   8.605   4.504   8.952
60234SOL    HW282535   8.594   4.473   9.100
60235SOL     OW82536   1.095  12.907   7.392
60235SOL    HW182537   1.036  12.904   7.317
60235SOL    HW282538   1.117  12.999   7.402
60236SOL     OW82539   5.784  14.390   8.458
60236SOL    HW182540   5.863  14.372   8.509
60236SOL    HW282541   5.747  14.468   8.498
60237SOL     OW82542   0.118  10.302   6.405
60237SOL    HW182543   0.180  10.271   6.339
60237SOL    HW282544   0.032  10.281   6.368
60238SOL     OW82545  10.733  10.653   4.650
60238SOL    HW182546  10.717  10.693   4.564
60238SOL    HW282547  10.785  10.575   4.630
60239SOL     OW82548   2.840  13.286   2.670
60239SOL    HW182549   2.777  13.310   2.737
60239SOL    HW282550   2.840  13.360   2.609
60240SOL     OW82551   0.302   0.234  14.873
60240SOL    HW182552   0.210   0.216  14.854
60240SOL    HW282553   0.342   0.249  14.788
60241SOL     OW82554   0.644   4.571   5.608
60241SOL    HW182555   0.681   4.540   5.525
60241SOL    HW282556   0.566   4.621   5.582
60242SOL     OW82557   1.066   8.555  14.256
60242SOL    HW182558   1.114   8.528  14.334
60242SOL    HW282559   1.109   8.509  14.184
60243SOL     OW82560   1.292   9.623   2.552
60243SOL    HW182561   1.279   9.694   2.616
60243SOL    HW282562   1.337   9.555   2.601
60244SOL     OW82563   9.248   9.933   3.890
60244SOL    HW182564   9.158   9.965   3.890
60244SOL    HW282565   9.243   9.847   3.847
60245SOL     OW82566  12.046   3.878  12.364
60245SOL    HW182567  12.142   3.874  12.361
60245SOL    HW282568  12.027   3.964  12.400
60246SOL     OW82569   2.718  10.626  10.254
60246SOL    HW182570   2.777  10.552  10.265
60246SOL    HW282571   2.681  10.615  10.166
60247SOL     OW82572   9.541   4.235   0.227
60247SOL    HW182573   9.562   4.142   0.235
60247SOL    HW282574   9.451   4.242   0.258
60248SOL     OW82575  12.954  11.642   0.815
60248SOL    HW182576  12.897  11.654   0.891
60248SOL    HW282577  13.018  11.577   0.844
60249SOL     OW82578  12.891   8.664  11.362
60249SOL    HW182579  12.967   8.698  11.314
60249SOL    HW282580  12.910   8.571  11.375
60250SOL     OW82581   3.550  13.427  10.519
60250SOL    HW182582   3.611  13.371  10.472
60250SOL    HW282583   3.488  13.457  10.453
60251SOL     OW82584   2.384   7.702  13.074
60251SOL    HW182585   2.343   7.729  12.992
60251SOL    HW282586   2.467   7.749  13.077
60252SOL     OW82587   7.657   6.543   3.633
60252SOL    HW182588   7.740   6.552   3.681
60252SOL    HW282589   7.665   6.459   3.587
60253SOL     OW82590   8.791   8.981   5.812
60253SOL    HW182591   8.740   9.038   5.754
60253SOL    HW282592   8.875   8.970   5.768
60254SOL     OW82593  13.003  12.229   4.385
60254SOL    HW182594  12.976  12.153   4.436
60254SOL    HW282595  13.042  12.288   4.450
60255SOL     OW82596   5.345  11.488   5.461
60255SOL    HW182597   5.326  11.497   5.555
60255SOL    HW282598   5.282  11.423   5.430
60256SOL     OW82599  13.728   1.579  11.114
60256SOL    HW182600  13.691   1.501  11.156
60256SOL    HW282601  13.807   1.598  11.165
60257SOL     OW82602   0.119   6.493  13.352
60257SOL    HW182603   0.141   6.548  13.277
60257SOL    HW282604   0.182   6.519  13.420
60258SOL     OW82605  10.316   8.487  14.216
60258SOL    HW182606  10.346   8.578  14.227
60258SOL    HW282607  10.281   8.464  14.302
60259SOL     OW82608   9.094  11.150   4.904
60259SOL    HW182609   9.009  11.194   4.898
60259SOL    HW282610   9.075  11.059   4.881
60260SOL     OW82611   1.813  12.756   2.957
60260SOL    HW182612   1.814  12.811   2.879
60260SOL    HW282613   1.734  12.702   2.947
60261SOL     OW82614   5.117   5.813   0.431
60261SOL    HW182615   5.086   5.903   0.434
60261SOL    HW282616   5.081   5.772   0.510
60262SOL     OW82617   0.860   6.974  11.264
60262SOL    HW182618   0.877   7.067  11.279
60262SOL    HW282619   0.890   6.958  11.175
60263SOL     OW82620   6.908  13.630   8.369
60263SOL    HW182621   6.889  13.601   8.458
60263SOL    HW282622   6.974  13.569   8.337
60264SOL     OW82623   7.334   6.930   5.382
60264SOL    HW182624   7.250   6.936   5.336
60264SOL    HW282625   7.314   6.957   5.471
60265SOL     OW82626   4.979   4.203   0.725
60265SOL    HW182627   4.957   4.144   0.798
60265SOL    HW282628   4.982   4.146   0.648
60266SOL     OW82629   2.883   7.868   9.309
60266SOL    HW182630   2.930   7.787   9.288
60266SOL    HW282631   2.950   7.926   9.346
60267SOL     OW82632  14.253  14.726  11.215
60267SOL    HW182633  14.348  14.729  11.203
60267SOL    HW282634  14.220  14.687  11.135
60268SOL     OW82635   9.283   8.952  13.102
60268SOL    HW182636   9.326   8.958  13.017
60268SOL    HW282637   9.192   8.934  13.083
60269SOL     OW82638   4.757  13.040  10.996
60269SOL    HW182639   4.829  12.989  10.959
60269SOL    HW282640   4.687  12.976  11.011
60270SOL     OW82641  12.897  10.707   0.182
60270SOL    HW182642  12.899  10.645   0.255
60270SOL    HW282643  12.833  10.670   0.122
60271SOL     OW82644   2.672  12.023   9.359
60271SOL    HW182645   2.666  12.032   9.264
60271SOL    HW282646   2.604  12.081   9.393
60272SOL     OW82647  13.198   0.471   2.956
60272SOL    HW182648  13.110   0.489   2.990
60272SOL    HW282649  13.241   0.421   3.025
60273SOL     OW82650   5.659  11.654   0.659
60273SOL    HW182651   5.585  11.714   0.669
60273SOL    HW282652   5.699  11.651   0.746
60274SOL     OW82653  14.674   1.553  13.369
60274SOL    HW182654  14.730   1.592  13.302
60274SOL    HW282655  14.710   1.465  13.383
60275SOL     OW82656   6.962   5.934  13.215
60275SOL    HW182657   6.922   5.994  13.278
60275SOL    HW282658   6.947   5.975  13.130
60276SOL     OW82659  10.413   7.332   5.431
60276SOL    HW182660  10.388   7.386   5.356
60276SOL    HW282661  10.394   7.387   5.508
60277SOL     OW82662  13.730  10.695   9.773
60277SOL    HW182663  13.721  10.600   9.783
60277SOL    HW282664  13.794  10.706   9.703
60278SOL     OW82665   6.230   2.579   5.281
60278SOL    HW182666   6.160   2.583   5.347
60278SOL    HW282667   6.183   2.576   5.198
60279SOL     OW82668   8.154  13.101  11.993
60279SOL    HW182669   8.101  13.055  11.928
60279SOL    HW282670   8.168  13.036  12.062
60280SOL     OW82671  11.364   9.338  13.490
60280SOL    HW182672  11.450   9.377  13.500
60280SOL    HW282673  11.330   9.375  13.409
60281SOL     OW82674   7.453   2.012   5.827
60281SOL    HW182675   7.527   2.038   5.882
60281SOL    HW282676   7.380   2.066   5.857
60282SOL     OW82677   3.232  14.586  11.874
60282SOL    HW182678   3.262  14.643  11.945
60282SOL    HW282679   3.312  14.555  11.832
60283SOL     OW82680  11.686  10.297  11.541
60283SOL    HW182681  11.776  10.327  11.549
60283SOL    HW282682  11.686  10.209  11.577
60284SOL     OW82683   4.303   9.161   1.243
60284SOL    HW182684   4.289   9.067   1.254
60284SOL    HW282685   4.398   9.169   1.229
60285SOL     OW82686  11.706  11.430   9.431
60285SOL    HW182687  11.753  11.446   9.349
60285SOL    HW282688  11.613  11.436   9.407
60286SOL     OW82689   2.688  13.073   2.510
60286SOL    HW182690   2.768  13.108   2.550
60286SOL    HW282691   2.617  13.107   2.564
60287SOL     OW82692   3.509   1.349   2.144
60287SOL    HW182693   3.483   1.441   2.136
60287SOL    HW282694   3.427   1.300   2.135
60288SOL     OW82695  12.562   7.253   3.479
60288SOL    HW182696  12.504   7.202   3.535
60288SOL    HW282697  12.613   7.188   3.431
60289SOL     OW82698  12.152   6.202   6.309
60289SOL    HW182699  12.190   6.116   6.328
60289SOL    HW282700  12.130   6.237   6.395
60290SOL     OW82701  14.281  13.937   3.239
60290SOL    HW182702  14.375  13.918   3.236
60290SOL    HW282703  14.258  13.960   3.149
60291SOL     OW82704  10.531   8.215   8.514
60291SOL    HW182705  10.581   8.135   8.532
60291SOL    HW282706  10.453   8.185   8.468
60292SOL     OW82707   8.306   7.419  11.281
60292SOL    HW182708   8.265   7.447  11.363
60292SOL    HW282709   8.392   7.386  11.307
60293SOL     OW82710   4.070   9.386   3.874
60293SOL    HW182711   4.115   9.336   3.807
60293SOL    HW282712   3.982   9.398   3.840
60294SOL     OW82713  10.791  13.902   0.582
60294SOL    HW182714  10.708  13.945   0.560
60294SOL    HW282715  10.784  13.815   0.543
60295SOL     OW82716   2.794   7.346   7.158
60295SOL    HW182717   2.807   7.286   7.085
60295SOL    HW282718   2.879   7.389   7.169
60296SOL     OW82719  14.772   5.958   4.456
60296SOL    HW182720  14.751   5.889   4.519
60296SOL    HW282721  14.771   6.038   4.508
60297SOL     OW82722   8.366   0.574   4.404
60297SOL    HW182723   8.373   0.504   4.340
60297SOL    HW282724   8.300   0.633   4.368
60298SOL     OW82725   3.837  11.405   0.211
60298SOL    HW182726   3.825  11.316   0.179
60298SOL    HW282727   3.808  11.402   0.302
60299SOL     OW82728  10.270   9.750   0.037
60299SOL    HW182729  10.258   9.773  14.826
60299SOL    HW282730  10.210   9.677   0.051
60300SOL     OW82731   3.051   1.348   7.536
60300SOL    HW182732   3.105   1.270   7.547
60300SOL    HW282733   2.987   1.343   7.606
60301SOL     OW82734  11.614   4.266  11.411
60301SOL    HW182735  11.602   4.327  11.339
60301SOL    HW282736  11.562   4.302  11.483
60302SOL     OW82737   9.535   5.208   7.864
60302SOL    HW182738   9.584   5.127   7.883
60302SOL    HW282739   9.517   5.245   7.950
60303SOL     OW82740  14.773   9.926   2.499
60303SOL    HW182741  14.825   9.854   2.537
60303SOL    HW282742  14.744   9.892   2.414
60304SOL     OW82743  12.480   2.670   0.805
60304SOL    HW182744  12.502   2.582   0.775
60304SOL    HW282745  12.420   2.657   0.878
60305SOL     OW82746  10.872   9.012  10.187
60305SOL    HW182747  10.957   8.971  10.200
60305SOL    HW282748  10.854   9.056  10.270
60306SOL     OW82749  13.271   0.815  10.061
60306SOL    HW182750  13.307   0.756  10.127
60306SOL    HW282751  13.176   0.812  10.075
60307SOL     OW82752   6.041  11.163   1.700
60307SOL    HW182753   6.054  11.073   1.730
60307SOL    HW282754   6.104  11.215   1.750
60308SOL     OW82755   4.578   5.686   8.783
60308SOL    HW182756   4.546   5.764   8.828
60308SOL    HW282757   4.502   5.651   8.738
60309SOL     OW82758  12.350   9.070  11.781
60309SOL    HW182759  12.412   9.010  11.740
60309SOL    HW282760  12.397   9.105  11.857
60310SOL     OW82761   9.174   6.494   4.617
60310SOL    HW182762   9.135   6.421   4.570
60310SOL    HW282763   9.268   6.478   4.613
60311SOL     OW82764   6.413  12.969   3.529
60311SOL    HW182765   6.338  12.946   3.583
60311SOL    HW282766   6.431  13.061   3.550
60312SOL     OW82767   2.913  10.950   9.287
60312SOL    HW182768   2.952  10.916   9.368
60312SOL    HW282769   2.949  10.894   9.218
60313SOL     OW82770   3.990  12.486   1.204
60313SOL    HW182771   4.047  12.494   1.280
60313SOL    HW282772   4.038  12.429   1.144
60314SOL     OW82773   5.525  11.581   0.284
60314SOL    HW182774   5.441  11.539   0.264
60314SOL    HW282775   5.589  11.511   0.279
60315SOL     OW82776  12.801  13.569   9.008
60315SOL    HW182777  12.879  13.624   9.003
60315SOL    HW282778  12.834  13.480   9.013
60316SOL     OW82779  10.237   2.350   9.294
60316SOL    HW182780  10.258   2.311   9.378
60316SOL    HW282781  10.218   2.276   9.237
60317SOL     OW82782   0.502   2.075   2.022
60317SOL    HW182783   0.498   1.981   2.041
60317SOL    HW282784   0.596   2.095   2.021
60318SOL     OW82785   0.284   0.288   1.465
60318SOL    HW182786   0.324   0.255   1.385
60318SOL    HW282787   0.355   0.291   1.529
60319SOL     OW82788   9.483   0.406  14.652
60319SOL    HW182789   9.451   0.358  14.575
60319SOL    HW282790   9.534   0.478  14.615
60320SOL     OW82791   7.629   5.653   1.969
60320SOL    HW182792   7.540   5.628   1.945
60320SOL    HW282793   7.640   5.620   2.059
60321SOL     OW82794   9.261   4.147   8.173
60321SOL    HW182795   9.224   4.205   8.239
60321SOL    HW282796   9.192   4.083   8.156
60322SOL     OW82797   6.817  11.745   6.821
60322SOL    HW182798   6.802  11.837   6.844
60322SOL    HW282799   6.741  11.722   6.767
60323SOL     OW82800   1.015  14.518  13.305
60323SOL    HW182801   0.983  14.609  13.311
60323SOL    HW282802   0.952  14.475  13.247
60324SOL     OW82803   1.239  13.521   0.650
60324SOL    HW182804   1.233  13.585   0.721
60324SOL    HW282805   1.213  13.571   0.572
60325SOL     OW82806   2.497   6.569   8.982
60325SOL    HW182807   2.509   6.535   8.893
60325SOL    HW282808   2.478   6.491   9.035
60326SOL     OW82809  13.243   0.245   8.021
60326SOL    HW182810  13.221   0.254   8.113
60326SOL    HW282811  13.192   0.170   7.991
60327SOL     OW82812   8.238   0.674   9.857
60327SOL    HW182813   8.202   0.587   9.873
60327SOL    HW282814   8.224   0.721   9.940
60328SOL     OW82815  11.108   3.513  13.956
60328SOL    HW182816  11.070   3.461  13.885
60328SOL    HW282817  11.084   3.464  14.036
60329SOL     OW82818   4.914   1.340   3.028
60329SOL    HW182819   4.867   1.418   2.999
60329SOL    HW282820   4.884   1.327   3.118
60330SOL     OW82821  13.955   4.922  10.603
60330SOL    HW182822  13.946   4.827  10.600
60330SOL    HW282823  13.865   4.955  10.607
60331SOL     OW82824   5.565  11.870   3.718
60331SOL    HW182825   5.590  11.959   3.694
60331SOL    HW282826   5.568  11.870   3.814
60332SOL     OW82827   0.015  10.455   6.774
60332SOL    HW182828   0.103  10.442   6.738
60332SOL    HW282829  14.846  10.490   6.702
60333SOL     OW82830   6.602   9.294   6.385
60333SOL    HW182831   6.608   9.378   6.340
60333SOL    HW282832   6.572   9.316   6.473
60334SOL     OW82833   1.593   8.980   9.159
60334SOL    HW182834   1.569   8.913   9.095
60334SOL    HW282835   1.611   9.058   9.106
60335SOL     OW82836   2.791  14.509   8.688
60335SOL    HW182837   2.823  14.567   8.618
60335SOL    HW282838   2.712  14.469   8.651
60336SOL     OW82839   8.228   0.989  13.585
60336SOL    HW182840   8.213   0.917  13.524
60336SOL    HW282841   8.187   1.065  13.544
60337SOL     OW82842   2.173   0.646   9.945
60337SOL    HW182843   2.221   0.569   9.915
60337SOL    HW282844   2.116   0.669   9.872
60338SOL     OW82845   1.996  14.286  14.025
60338SOL    HW182846   1.975  14.194  14.011
60338SOL    HW282847   1.972  14.329  13.943
60339SOL     OW82848   7.216  13.108  11.696
60339SOL    HW182849   7.131  13.106  11.739
60339SOL    HW282850   7.197  13.109  11.603
60340SOL     OW82851   3.287   6.740   8.065
60340SOL    HW182852   3.354   6.745   7.997
60340SOL    HW282853   3.315   6.803   8.132
60341SOL     OW82854   6.778  10.039   7.168
60341SOL    HW182855   6.855  10.053   7.113
60341SOL    HW282856   6.810  10.054   7.257
60342SOL     OW82857   8.972  11.213  13.109
60342SOL    HW182858   9.022  11.291  13.091
60342SOL    HW282859   8.881  11.236  13.089
60343SOL     OW82860   0.267   2.122   5.168
60343SOL    HW182861   0.226   2.204   5.141
60343SOL    HW282862   0.296   2.082   5.086
60344SOL     OW82863  10.208  14.453   8.388
60344SOL    HW182864  10.192  14.390   8.317
60344SOL    HW282865  10.222  14.398   8.465
60345SOL     OW82866   2.181   8.196   1.391
60345SOL    HW182867   2.128   8.128   1.432
60345SOL    HW282868   2.271   8.166   1.400
60346SOL     OW82869   8.250  11.262  14.168
60346SOL    HW182870   8.156  11.264  14.151
60346SOL    HW282871   8.268  11.171  14.192
60347SOL     OW82872   9.862  13.546   5.498
60347SOL    HW182873   9.836  13.606   5.568
60347SOL    HW282874   9.786  13.544   5.440
60348SOL     OW82875   9.880  11.529   2.576
60348SOL    HW182876   9.824  11.592   2.530
60348SOL    HW282877   9.882  11.453   2.518
60349SOL     OW82878   2.719  13.581   3.706
60349SOL    HW182879   2.813  13.583   3.690
60349SOL    HW282880   2.708  13.517   3.777
60350SOL     OW82881   1.035  13.470   5.789
60350SOL    HW182882   1.100  13.504   5.851
60350SOL    HW282883   0.958  13.524   5.804
60351SOL     OW82884   8.832  11.834  13.657
60351SOL    HW182885   8.826  11.739  13.660
60351SOL    HW282886   8.742  11.865  13.663
60352SOL     OW82887   8.416   8.731   5.212
60352SOL    HW182888   8.340   8.701   5.262
60352SOL    HW282889   8.484   8.747   5.278
60353SOL     OW82890   9.725  11.349   5.038
60353SOL    HW182891   9.679  11.411   4.981
60353SOL    HW282892   9.661  11.282   5.058
60354SOL     OW82893   8.423   4.096  13.285
60354SOL    HW182894   8.485   4.028  13.311
60354SOL    HW282895   8.449   4.173  13.335
60355SOL     OW82896  11.244   1.471  14.214
60355SOL    HW182897  11.249   1.544  14.152
60355SOL    HW282898  11.325   1.477  14.264
60356SOL     OW82899   3.415  13.969   8.508
60356SOL    HW182900   3.399  14.057   8.544
60356SOL    HW282901   3.329  13.940   8.478
60357SOL     OW82902   4.101   0.655   5.943
60357SOL    HW182903   4.112   0.733   5.997
60357SOL    HW282904   4.190   0.626   5.924
60358SOL     OW82905   0.896   6.279  12.679
60358SOL    HW182906   0.986   6.311  12.669
60358SOL    HW282907   0.849   6.352  12.719
60359SOL     OW82908  10.961   7.390   6.549
60359SOL    HW182909  10.945   7.399   6.455
60359SOL    HW282910  11.033   7.451   6.566
60360SOL     OW82911   1.578  10.420   6.996
60360SOL    HW182912   1.603  10.481   6.926
60360SOL    HW282913   1.565  10.336   6.951
60361SOL     OW82914   8.365   0.115   0.481
60361SOL    HW182915   8.415   0.094   0.560
60361SOL    HW282916   8.290   0.164   0.513
60362SOL     OW82917   4.329   7.415  12.145
60362SOL    HW182918   4.424   7.402  12.147
60362SOL    HW282919   4.312   7.452  12.058
60363SOL     OW82920   6.681   7.187   7.072
60363SOL    HW182921   6.741   7.207   7.000
60363SOL    HW282922   6.597   7.173   7.030
60364SOL     OW82923   3.287   2.376   8.634
60364SOL    HW182924   3.300   2.398   8.542
60364SOL    HW282925   3.370   2.397   8.676
60365SOL     OW82926  10.745   4.030   9.961
60365SOL    HW182927  10.758   4.001  10.051
60365SOL    HW282928  10.694   4.111   9.969
60366SOL     OW82929  13.579  13.681   3.385
60366SOL    HW182930  13.526  13.625   3.329
60366SOL    HW282931  13.630  13.620   3.439
60367SOL     OW82932  12.673  14.322   4.308
60367SOL    HW182933  12.754  14.277   4.285
60367SOL    HW282934  12.680  14.408   4.266
60368SOL     OW82935  10.261   1.650  13.076
60368SOL    HW182936  10.267   1.736  13.034
60368SOL    HW282937  10.275   1.588  13.005
60369SOL     OW82938  11.430   5.898   2.295
60369SOL    HW182939  11.459   5.903   2.386
60369SOL    HW282940  11.510   5.903   2.243
60370SOL     OW82941   8.058  14.318   0.147
60370SOL    HW182942   8.038  14.342   0.057
60370SOL    HW282943   8.130  14.377   0.172
60371SOL     OW82944  13.951   5.110  13.454
60371SOL    HW182945  13.964   5.190  13.505
60371SOL    HW282946  13.986   5.040  13.509
60372SOL     OW82947   2.225   9.330   8.414
60372SOL    HW182948   2.140   9.324   8.457
60372SOL    HW282949   2.283   9.274   8.466
60373SOL     OW82950   5.819   3.419   7.998
60373SOL    HW182951   5.892   3.367   8.033
60373SOL    HW282952   5.741   3.381   8.039
60374SOL     OW82953   2.767   5.896   8.934
60374SOL    HW182954   2.764   5.988   8.962
60374SOL    HW282955   2.856   5.883   8.902
60375SOL     OW82956   0.688   4.453  14.609
60375SOL    HW182957   0.725   4.406  14.684
60375SOL    HW282958   0.732   4.415  14.533
60376SOL     OW82959   9.685  11.935   0.952
60376SOL    HW182960   9.719  11.896   1.033
60376SOL    HW282961   9.659  11.861   0.899
60377SOL     OW82962   3.635   7.925  11.711
60377SOL    HW182963   3.637   7.833  11.737
60377SOL    HW282964   3.579   7.927  11.633
60378SOL     OW82965   5.390   1.734   0.244
60378SOL    HW182966   5.388   1.638   0.245
60378SOL    HW282967   5.363   1.759   0.332
60379SOL     OW82968   0.795   1.556  11.889
60379SOL    HW182969   0.757   1.594  11.809
60379SOL    HW282970   0.724   1.504  11.927
60380SOL     OW82971  12.511   8.164   4.632
60380SOL    HW182972  12.479   8.077   4.611
60380SOL    HW282973  12.467   8.222   4.570
60381SOL     OW82974  12.393  13.455   0.477
60381SOL    HW182975  12.472  13.443   0.424
60381SOL    HW282976  12.342  13.376   0.462
60382SOL     OW82977  13.752   1.208  11.000
60382SOL    HW182978  13.832   1.157  10.996
60382SOL    HW282979  13.690   1.153  11.047
60383SOL     OW82980  13.938   2.772  12.133
60383SOL    HW182981  13.869   2.825  12.094
60383SOL    HW282982  13.935   2.794  12.226
60384SOL     OW82983   0.462  11.134   3.721
60384SOL    HW182984   0.389  11.080   3.691
60384SOL    HW282985   0.484  11.098   3.807
60385SOL     OW82986  13.284  12.450   5.422
60385SOL    HW182987  13.258  12.379   5.481
60385SOL    HW282988  13.273  12.530   5.474
60386SOL     OW82989   0.241   7.062   5.505
60386SOL    HW182990   0.200   7.029   5.426
60386SOL    HW282991   0.282   7.144   5.478
60387SOL     OW82992   5.581   4.883   4.027
60387SOL    HW182993   5.660   4.932   4.050
60387SOL    HW282994   5.509   4.946   4.036
60388SOL     OW82995  10.097   0.221   7.980
60388SOL    HW182996  10.092   0.305   7.935
60388SOL    HW282997  10.182   0.185   7.954
60389SOL     OW82998  14.621  12.571   0.723
60389SOL    HW182999  14.584  12.642   0.776
60389SOL    HW283000  14.623  12.495   0.782
60390SOL     OW83001   4.717  11.057   9.085
60390SOL    HW183002   4.785  10.990   9.078
60390SOL    HW283003   4.675  11.058   8.999
60391SOL     OW83004   1.579  12.659   3.345
60391SOL    HW183005   1.500  12.664   3.290
60391SOL    HW283006   1.548  12.678   3.433
60392SOL     OW83007   6.916   2.910   8.211
60392SOL    HW183008   6.853   2.980   8.191
60392SOL    HW283009   6.876   2.862   8.284
60393SOL     OW83010   3.260   3.714   3.689
60393SOL    HW183011   3.223   3.639   3.643
60393SOL    HW283012   3.325   3.676   3.749
60394SOL     OW83013  11.356   3.212   5.424
60394SOL    HW183014  11.422   3.146   5.444
60394SOL    HW283015  11.367   3.279   5.492
60395SOL     OW83016   2.621   4.942   5.654
60395SOL    HW183017   2.581   5.000   5.590
60395SOL    HW283018   2.699   4.989   5.684
60396SOL     OW83019   5.359  11.445   1.762
60396SOL    HW183020   5.370  11.540   1.757
60396SOL    HW283021   5.443  11.409   1.732
60397SOL     OW83022   6.929  14.250   1.900
60397SOL    HW183023   6.994  14.288   1.960
60397SOL    HW283024   6.895  14.325   1.851
60398SOL     OW83025   7.355  10.072   9.524
60398SOL    HW183026   7.390  10.066   9.435
60398SOL    HW283027   7.309   9.989   9.537
60399SOL     OW83028   6.232   2.919   2.909
60399SOL    HW183029   6.327   2.910   2.893
60399SOL    HW283030   6.198   2.830   2.901
60400SOL     OW83031   6.088   6.229   1.880
60400SOL    HW183032   6.175   6.245   1.915
60400SOL    HW283033   6.082   6.133   1.874
60401SOL     OW83034   4.626   5.783  10.582
60401SOL    HW183035   4.684   5.707  10.585
60401SOL    HW283036   4.579   5.775  10.500
60402SOL     OW83037   1.987   2.726   1.044
60402SOL    HW183038   1.895   2.700   1.037
60402SOL    HW283039   2.019   2.679   1.122
60403SOL     OW83040   2.734  12.374   4.124
60403SOL    HW183041   2.806  12.333   4.075
60403SOL    HW283042   2.725  12.461   4.085
60404SOL     OW83043   7.700   3.997   8.105
60404SOL    HW183044   7.664   4.056   8.039
60404SOL    HW283045   7.738   3.925   8.054
60405SOL     OW83046   7.042  11.976   0.349
60405SOL    HW183047   7.026  11.882   0.338
60405SOL    HW283048   7.004  11.998   0.434
60406SOL     OW83049  14.624  11.826   6.128
60406SOL    HW183050  14.617  11.784   6.214
60406SOL    HW283051  14.536  11.858   6.109
60407SOL     OW83052  11.359   4.003   2.756
60407SOL    HW183053  11.363   4.011   2.661
60407SOL    HW283054  11.450   4.003   2.784
60408SOL     OW83055  11.548   7.517  12.786
60408SOL    HW183056  11.543   7.516  12.881
60408SOL    HW283057  11.614   7.452  12.764
60409SOL     OW83058   2.332   0.740   2.436
60409SOL    HW183059   2.271   0.667   2.445
60409SOL    HW283060   2.276   0.817   2.429
60410SOL     OW83061  11.654   9.291   4.840
60410SOL    HW183062  11.602   9.368   4.865
60410SOL    HW283063  11.651   9.235   4.918
60411SOL     OW83064   2.145   5.077   7.923
60411SOL    HW183065   2.236   5.106   7.929
60411SOL    HW283066   2.141   5.000   7.980
60412SOL     OW83067  14.352   5.476   2.039
60412SOL    HW183068  14.371   5.498   1.948
60412SOL    HW283069  14.261   5.504   2.052
60413SOL     OW83070  14.065  10.428  11.380
60413SOL    HW183071  14.018  10.427  11.463
60413SOL    HW283072  14.108  10.513  11.377
60414SOL     OW83073   3.391   0.593  13.605
60414SOL    HW183074   3.300   0.561  13.600
60414SOL    HW283075   3.441   0.531  13.553
60415SOL     OW83076   1.340   5.867  11.111
60415SOL    HW183077   1.388   5.947  11.091
60415SOL    HW283078   1.361   5.849  11.203
60416SOL     OW83079   5.300   0.723  13.639
60416SOL    HW183080   5.375   0.704  13.695
60416SOL    HW283081   5.224   0.719  13.697
60417SOL     OW83082   5.517   3.325   6.654
60417SOL    HW183083   5.524   3.247   6.600
60417SOL    HW283084   5.588   3.317   6.718
60418SOL     OW83085   4.019  14.442   1.563
60418SOL    HW183086   3.968  14.508   1.610
60418SOL    HW283087   3.967  14.362   1.569
60419SOL     OW83088   6.803  13.695   2.985
60419SOL    HW183089   6.754  13.766   2.943
60419SOL    HW283090   6.769  13.616   2.944
60420SOL     OW83091  12.464   0.938   1.452
60420SOL    HW183092  12.421   1.023   1.443
60420SOL    HW283093  12.551   0.959   1.487
60421SOL     OW83094   9.874   4.157   6.874
60421SOL    HW183095   9.860   4.089   6.808
60421SOL    HW283096   9.969   4.164   6.883
60422SOL     OW83097   5.871   4.636   0.164
60422SOL    HW183098   5.871   4.566   0.229
60422SOL    HW283099   5.955   4.626   0.118
60423SOL     OW83100   0.139   8.301   3.175
60423SOL    HW183101   0.230   8.322   3.197
60423SOL    HW283102   0.136   8.303   3.080
60424SOL     OW83103  14.577  14.079   4.989
60424SOL    HW183104  14.513  14.091   4.919
60424SOL    HW283105  14.659  14.110   4.953
60425SOL     OW83106  11.543   9.643  10.789
60425SOL    HW183107  11.521   9.736  10.784
60425SOL    HW283108  11.461   9.597  10.775
60426SOL     OW83109   0.779   2.910  14.127
60426SOL    HW183110   0.796   2.922  14.220
60426SOL    HW283111   0.863   2.879  14.091
60427SOL     OW83112   6.630   8.262   1.099
60427SOL    HW183113   6.661   8.186   1.149
60427SOL    HW283114   6.696   8.273   1.030
60428SOL     OW83115  13.436   5.618   5.838
60428SOL    HW183116  13.523   5.624   5.878
60428SOL    HW283117  13.422   5.524   5.824
60429SOL     OW83118  12.549  13.610   4.253
60429SOL    HW183119  12.594  13.682   4.209
60429SOL    HW283120  12.540  13.640   4.344
60430SOL     OW83121   9.375   0.954  13.550
60430SOL    HW183122   9.301   0.992  13.502
60430SOL    HW283123   9.336   0.883  13.601
60431SOL     OW83124   0.171   5.541   9.730
60431SOL    HW183125   0.081   5.568   9.747
60431SOL    HW283126   0.172   5.516   9.638
60432SOL     OW83127   8.452   1.652  10.238
60432SOL    HW183128   8.443   1.677  10.330
60432SOL    HW283129   8.472   1.559  10.240
60433SOL     OW83130   6.757  11.670   9.155
60433SOL    HW183131   6.811  11.592   9.169
60433SOL    HW283132   6.789  11.707   9.072
60434SOL     OW83133   6.605   1.068   9.951
60434SOL    HW183134   6.680   1.023   9.911
60434SOL    HW283135   6.562   1.001  10.004
60435SOL     OW83136  10.242  11.030   9.628
60435SOL    HW183137  10.278  11.117   9.646
60435SOL    HW283138  10.159  11.048   9.583
60436SOL     OW83139   0.871   4.690  11.642
60436SOL    HW183140   0.787   4.643  11.638
60436SOL    HW283141   0.866   4.754  11.571
60437SOL     OW83142   4.519  12.334   3.609
60437SOL    HW183143   4.597  12.361   3.561
60437SOL    HW283144   4.519  12.388   3.688
60438SOL     OW83145   0.671  14.582   9.902
60438SOL    HW183146   0.621  14.525   9.843
60438SOL    HW283147   0.683  14.530   9.981
60439SOL     OW83148   7.499   1.986   5.109
60439SOL    HW183149   7.480   1.893   5.107
60439SOL    HW283150   7.570   1.998   5.046
60440SOL     OW83151  12.202   1.230  13.615
60440SOL    HW183152  12.124   1.283  13.633
60440SOL    HW283153  12.238   1.212  13.702
60441SOL     OW83154   5.071   4.683   4.898
60441SOL    HW183155   5.076   4.755   4.835
60441SOL    HW283156   5.083   4.604   4.845
60442SOL     OW83157   3.216  10.567   8.412
60442SOL    HW183158   3.304  10.558   8.375
60442SOL    HW283159   3.230  10.609   8.497
60443SOL     OW83160  11.160   8.028   1.577
60443SOL    HW183161  11.178   8.083   1.501
60443SOL    HW283162  11.064   8.022   1.580
60444SOL     OW83163  11.926   9.981   2.449
60444SOL    HW183164  11.837   9.978   2.414
60444SOL    HW283165  11.970  10.048   2.397
60445SOL     OW83166   9.971   6.725  12.170
60445SOL    HW183167   9.990   6.638  12.205
60445SOL    HW283168  10.035   6.737  12.100
60446SOL     OW83169   9.698   9.840   5.114
60446SOL    HW183170   9.666   9.832   5.024
60446SOL    HW283171   9.675   9.929   5.140
60447SOL     OW83172   0.366   2.670  10.063
60447SOL    HW183173   0.377   2.576  10.044
60447SOL    HW283174   0.334   2.707   9.981
60448SOL     OW83175  12.092  13.603   0.203
60448SOL    HW183176  12.138  13.661   0.265
60448SOL    HW283177  12.154  13.533   0.186
60449SOL     OW83178  13.575   3.785   0.227
60449SOL    HW183179  13.571   3.720   0.157
60449SOL    HW283180  13.617   3.738   0.300
60450SOL     OW83181   5.955  10.855   8.593
60450SOL    HW183182   5.904  10.936   8.592
60450SOL    HW283183   5.891  10.787   8.612
60451SOL     OW83184   6.334   7.487   9.750
60451SOL    HW183185   6.331   7.427   9.675
60451SOL    HW283186   6.371   7.568   9.714
60452SOL     OW83187   4.590   7.377   7.091
60452SOL    HW183188   4.559   7.435   7.021
60452SOL    HW283189   4.627   7.437   7.156
60453SOL     OW83190   5.895  14.271   1.380
60453SOL    HW183191   5.930  14.343   1.327
60453SOL    HW283192   5.856  14.314   1.455
60454SOL     OW83193   7.533   2.518   0.822
60454SOL    HW183194   7.604   2.466   0.858
60454SOL    HW283195   7.519   2.587   0.887
60455SOL     OW83196  12.898   6.635   2.710
60455SOL    HW183197  12.896   6.679   2.625
60455SOL    HW283198  12.876   6.704   2.773
60456SOL     OW83199   8.114   9.416   3.771
60456SOL    HW183200   8.024   9.426   3.802
60456SOL    HW283201   8.167   9.426   3.850
60457SOL     OW83202   6.882   7.048   0.573
60457SOL    HW183203   6.971   7.083   0.580
60457SOL    HW283204   6.867   7.004   0.656
60458SOL     OW83205   0.973   9.076  13.775
60458SOL    HW183206   1.061   9.075  13.813
60458SOL    HW283207   0.969   8.997  13.722
60459SOL     OW83208  11.841   1.173   0.334
60459SOL    HW183209  11.927   1.189   0.375
60459SOL    HW283210  11.788   1.135   0.404
60460SOL     OW83211   7.695  10.631   3.447
60460SOL    HW183212   7.748  10.674   3.380
60460SOL    HW283213   7.654  10.703   3.495
60461SOL     OW83214   6.400  11.935  12.751
60461SOL    HW183215   6.420  12.016  12.799
60461SOL    HW283216   6.308  11.917  12.773
60462SOL     OW83217   0.954   6.175  10.837
60462SOL    HW183218   0.921   6.092  10.804
60462SOL    HW283219   0.903   6.193  10.916
60463SOL     OW83220   1.190   3.614   3.157
60463SOL    HW183221   1.172   3.562   3.079
60463SOL    HW283222   1.180   3.705   3.127
60464SOL     OW83223   4.398  10.984   3.692
60464SOL    HW183224   4.354  10.927   3.628
60464SOL    HW283225   4.359  10.959   3.776
60465SOL     OW83226   7.326   6.790   9.572
60465SOL    HW183227   7.310   6.808   9.480
60465SOL    HW283228   7.270   6.852   9.619
60466SOL     OW83229  10.690   3.031   2.500
60466SOL    HW183230  10.690   2.982   2.417
60466SOL    HW283231  10.704   2.964   2.567
60467SOL     OW83232   9.151   8.269   1.572
60467SOL    HW183233   9.096   8.344   1.547
60467SOL    HW283234   9.183   8.235   1.488
60468SOL     OW83235   1.107   5.367   9.281
60468SOL    HW183236   1.120   5.287   9.229
60468SOL    HW283237   1.194   5.385   9.318
60469SOL     OW83238   2.258  11.672   7.827
60469SOL    HW183239   2.219  11.729   7.894
60469SOL    HW283240   2.352  11.676   7.845
60470SOL     OW83241  14.646  14.737   2.339
60470SOL    HW183242  14.551  14.736   2.331
60470SOL    HW283243  14.675  14.661   2.288
60471SOL     OW83244  10.629   6.256  12.707
60471SOL    HW183245  10.624   6.260  12.802
60471SOL    HW283246  10.572   6.182  12.683
60472SOL     OW83247  10.328   7.685   5.013
60472SOL    HW183248  10.343   7.767   5.059
60472SOL    HW283249  10.236   7.688   4.987
60473SOL     OW83250  12.496   4.273  11.180
60473SOL    HW183251  12.414   4.287  11.132
60473SOL    HW283252  12.551   4.346  11.155
60474SOL     OW83253   4.869   9.995   3.279
60474SOL    HW183254   4.947  10.013   3.226
60474SOL    HW283255   4.798  10.037   3.230
60475SOL     OW83256   7.331   4.438  14.482
60475SOL    HW183257   7.347   4.393  14.564
60475SOL    HW283258   7.417   4.447  14.441
60476SOL     OW83259   7.002   4.256   0.234
60476SOL    HW183260   6.958   4.303   0.305
60476SOL    HW283261   7.077   4.214   0.276
60477SOL     OW83262   2.534   3.757   1.403
60477SOL    HW183263   2.481   3.696   1.352
60477SOL    HW283264   2.609   3.776   1.347
60478SOL     OW83265   6.513  13.259   7.293
60478SOL    HW183266   6.543  13.350   7.285
60478SOL    HW283267   6.494  13.249   7.387
60479SOL     OW83268  11.420  13.468   5.047
60479SOL    HW183269  11.342  13.458   5.102
60479SOL    HW283270  11.485  13.410   5.087
60480SOL     OW83271   5.994   7.954   2.150
60480SOL    HW183272   5.926   7.932   2.215
60480SOL    HW283273   6.043   8.025   2.191
60481SOL     OW83274   2.721  12.204   5.115
60481SOL    HW183275   2.712  12.286   5.163
60481SOL    HW283276   2.809  12.208   5.076
60482SOL     OW83277  13.155  11.118  13.874
60482SOL    HW183278  13.137  11.205  13.840
60482SOL    HW283279  13.237  11.129  13.923
60483SOL     OW83280   1.815  11.035  13.828
60483SOL    HW183281   1.785  11.076  13.909
60483SOL    HW283282   1.777  10.947  13.830
60484SOL     OW83283   4.037  11.667   3.923
60484SOL    HW183284   4.032  11.587   3.976
60484SOL    HW283285   3.951  11.709   3.935
60485SOL     OW83286  13.536   4.541   8.319
60485SOL    HW183287  13.617   4.537   8.268
60485SOL    HW283288  13.489   4.461   8.297
60486SOL     OW83289   2.636  14.412  10.206
60486SOL    HW183290   2.689  14.487  10.180
60486SOL    HW283291   2.591  14.440  10.286
60487SOL     OW83292   6.477   4.626   3.112
60487SOL    HW183293   6.511   4.702   3.065
60487SOL    HW283294   6.553   4.569   3.125
60488SOL     OW83295   7.962   1.708   9.380
60488SOL    HW183296   7.938   1.800   9.371
60488SOL    HW283297   8.036   1.708   9.441
60489SOL     OW83298   7.603   0.159   3.368
60489SOL    HW183299   7.697   0.175   3.356
60489SOL    HW283300   7.590   0.069   3.340
60490SOL     OW83301  12.561  14.297   6.906
60490SOL    HW183302  12.528  14.375   6.953
60490SOL    HW283303  12.581  14.235   6.976
60491SOL     OW83304   2.153  13.773  10.672
60491SOL    HW183305   2.129  13.839  10.737
60491SOL    HW283306   2.130  13.690  10.714
60492SOL     OW83307   2.410   4.235   7.155
60492SOL    HW183308   2.346   4.303   7.131
60492SOL    HW283309   2.447   4.266   7.238
60493SOL     OW83310   3.377   5.064   5.904
60493SOL    HW183311   3.448   5.045   5.964
60493SOL    HW283312   3.329   4.981   5.896
60494SOL     OW83313  11.233  13.813  13.820
60494SOL    HW183314  11.248  13.802  13.726
60494SOL    HW283315  11.187  13.897  13.827
60495SOL     OW83316  10.285   0.840  13.592
60495SOL    HW183317  10.244   0.926  13.579
60495SOL    HW283318  10.227   0.779  13.547
60496SOL     OW83319  11.540   6.650  12.999
60496SOL    HW183320  11.631   6.629  12.977
60496SOL    HW283321  11.510   6.575  13.051
60497SOL     OW83322   7.723   9.020   3.996
60497SOL    HW183323   7.765   8.993   4.078
60497SOL    HW283324   7.630   9.005   4.010
60498SOL     OW83325   9.478   3.986   8.501
60498SOL    HW183326   9.419   3.961   8.573
60498SOL    HW283327   9.521   4.065   8.533
60499SOL     OW83328  14.698  11.235   9.134
60499SOL    HW183329  14.692  11.329   9.147
60499SOL    HW283330  14.716  11.200   9.221
60500SOL     OW83331  10.847   6.609   7.834
60500SOL    HW183332  10.791   6.543   7.874
60500SOL    HW283333  10.934   6.569   7.834
60501SOL     OW83334   1.978  12.044  10.367
60501SOL    HW183335   1.888  12.068  10.348
60501SOL    HW283336   1.992  12.072  10.457
60502SOL     OW83337   8.766   3.857  10.785
60502SOL    HW183338   8.711   3.935  10.783
60502SOL    HW283339   8.719   3.795  10.841
60503SOL     OW83340   1.516  12.969   2.425
60503SOL    HW183341   1.550  12.981   2.337
60503SOL    HW283342   1.429  13.008   2.423
60504SOL     OW83343   3.408  11.526   0.849
60504SOL    HW183344   3.325  11.481   0.865
60504SOL    HW283345   3.385  11.603   0.798
60505SOL     OW83346   0.385  14.857   8.863
60505SOL    HW183347   0.397  14.857   8.958
60505SOL    HW283348   0.330  14.780   8.845
60506SOL     OW83349   7.295   4.582   1.271
60506SOL    HW183350   7.208   4.543   1.259
60506SOL    HW283351   7.350   4.509   1.299
60507SOL     OW83352  12.069   2.345   6.228
60507SOL    HW183353  12.050   2.431   6.267
60507SOL    HW283354  12.043   2.355   6.136
60508SOL     OW83355   7.615   3.818   1.333
60508SOL    HW183356   7.637   3.759   1.261
60508SOL    HW283357   7.634   3.767   1.412
60509SOL     OW83358  11.311  13.844   1.844
60509SOL    HW183359  11.221  13.868   1.868
60509SOL    HW283360  11.366  13.896   1.902
60510SOL     OW83361   4.634   8.088   5.562
60510SOL    HW183362   4.717   8.041   5.554
60510SOL    HW283363   4.587   8.067   5.481
60511SOL     OW83364   1.296  13.370  14.542
60511SOL    HW183365   1.320  13.460  14.522
60511SOL    HW283366   1.273  13.332  14.458
60512SOL     OW83367  10.694   4.840   4.704
60512SOL    HW183368  10.665   4.931   4.697
60512SOL    HW283369  10.680   4.818   4.796
60513SOL     OW83370   3.085   3.426  10.335
60513SOL    HW183371   3.130   3.402  10.416
60513SOL    HW283372   3.012   3.365  10.330
60514SOL     OW83373  10.903  14.409   7.097
60514SOL    HW183374  10.870  14.364   7.019
60514SOL    HW283375  10.995  14.382   7.103
60515SOL     OW83376  10.864  11.147   1.853
60515SOL    HW183377  10.926  11.085   1.816
60515SOL    HW283378  10.866  11.129   1.947
60516SOL     OW83379   8.054   8.032   6.388
60516SOL    HW183380   7.964   8.001   6.394
60516SOL    HW283381   8.060   8.072   6.301
60517SOL     OW83382  12.206   7.670   0.098
60517SOL    HW183383  12.166   7.726   0.165
60517SOL    HW283384  12.283   7.720   0.070
60518SOL     OW83385  11.549   8.149  11.371
60518SOL    HW183386  11.454   8.161  11.371
60518SOL    HW283387  11.562   8.058  11.347
60519SOL     OW83388  13.098  13.573  10.846
60519SOL    HW183389  13.044  13.576  10.767
60519SOL    HW283390  13.107  13.479  10.865
60520SOL     OW83391   9.030  13.026  13.444
60520SOL    HW183392   9.000  13.087  13.511
60520SOL    HW283393   9.038  12.942  13.490
60521SOL     OW83394   0.094   7.079   3.118
60521SOL    HW183395   0.148   7.158   3.120
60521SOL    HW283396   0.039   7.085   3.196
60522SOL     OW83397   2.797   2.430   1.290
60522SOL    HW183398   2.761   2.448   1.377
60522SOL    HW283399   2.872   2.373   1.306
60523SOL     OW83400  10.403   5.950  11.389
60523SOL    HW183401  10.437   5.869  11.427
60523SOL    HW283402  10.308   5.939  11.391
60524SOL     OW83403   7.124  12.356   5.228
60524SOL    HW183404   7.180  12.334   5.154
60524SOL    HW283405   7.078  12.275   5.250
60525SOL     OW83406  10.292   3.548   6.801
60525SOL    HW183407  10.316   3.612   6.734
60525SOL    HW283408  10.365   3.486   6.802
60526SOL     OW83409   8.810   7.718  14.838
60526SOL    HW183410   8.791   7.756   0.042
60526SOL    HW283411   8.836   7.793  14.784
60527SOL     OW83412  13.777  14.535   0.467
60527SOL    HW183413  13.687  14.567   0.471
60527SOL    HW283414  13.792  14.518   0.374
60528SOL     OW83415   1.751   0.395  12.633
60528SOL    HW183416   1.760   0.301  12.618
60528SOL    HW283417   1.675   0.421  12.582
60529SOL     OW83418  13.611  14.553   0.003
60529SOL    HW183419  13.569  14.638   0.019
60529SOL    HW283420  13.651  14.563  14.798
60530SOL     OW83421   2.684   2.635   2.859
60530SOL    HW183422   2.774   2.641   2.826
60530SOL    HW283423   2.663   2.724   2.887
60531SOL     OW83424  12.759   8.001   3.254
60531SOL    HW183425  12.815   8.053   3.313
60531SOL    HW283426  12.702   7.952   3.313
60532SOL     OW83427   5.343  11.796   6.164
60532SOL    HW183428   5.341  11.775   6.257
60532SOL    HW283429   5.437  11.803   6.144
60533SOL     OW83430  10.862   8.080   1.895
60533SOL    HW183431  10.776   8.087   1.855
60533SOL    HW283432  10.853   8.011   1.960
60534SOL     OW83433   0.642   6.884  11.402
60534SOL    HW183434   0.720   6.897  11.347
60534SOL    HW283435   0.609   6.798  11.375
60535SOL     OW83436  14.177   0.293   2.203
60535SOL    HW183437  14.223   0.214   2.231
60535SOL    HW283438  14.230   0.365   2.238
60536SOL     OW83439   1.696  13.584   4.123
60536SOL    HW183440   1.654  13.595   4.208
60536SOL    HW283441   1.654  13.649   4.066
60537SOL     OW83442  11.869   1.542   1.721
60537SOL    HW183443  11.795   1.602   1.731
60537SOL    HW283444  11.839   1.478   1.656
60538SOL     OW83445   8.334   6.361  11.179
60538SOL    HW183446   8.412   6.403  11.144
60538SOL    HW283447   8.359   6.333  11.267
60539SOL     OW83448   3.835  13.163   0.914
60539SOL    HW183449   3.742  13.182   0.912
60539SOL    HW283450   3.864  13.173   0.823
60540SOL     OW83451   0.084   9.378   8.256
60540SOL    HW183452   0.089   9.454   8.313
60540SOL    HW283453   0.008   9.330   8.287
60541SOL     OW83454   7.639   2.335   6.462
60541SOL    HW183455   7.610   2.424   6.446
60541SOL    HW283456   7.656   2.332   6.556
60542SOL     OW83457  13.079   8.005   9.337
60542SOL    HW183458  12.995   8.038   9.305
60542SOL    HW283459  13.063   7.988   9.430
60543SOL     OW83460   1.681   7.130   7.610
60543SOL    HW183461   1.774   7.111   7.627
60543SOL    HW283462   1.664   7.212   7.656
60544SOL     OW83463   1.954   1.073   9.652
60544SOL    HW183464   1.946   1.024   9.733
60544SOL    HW283465   1.896   1.149   9.663
60545SOL     OW83466   0.577   4.873  12.211
60545SOL    HW183467   0.631   4.850  12.287
60545SOL    HW283468   0.527   4.794  12.191
60546SOL     OW83469   5.924   0.555   6.689
60546SOL    HW183470   5.908   0.565   6.595
60546SOL    HW283471   6.003   0.607   6.706
60547SOL     OW83472  13.684   7.678   3.943
60547SOL    HW183473  13.698   7.600   3.889
60547SOL    HW283474  13.714   7.652   4.030
60548SOL     OW83475   8.121  11.467  12.144
60548SOL    HW183476   8.087  11.380  12.121
60548SOL    HW283477   8.048  11.509  12.189
60549SOL     OW83478   0.927  13.491  14.858
60549SOL    HW183479   1.010  13.443  14.869
60549SOL    HW283480   0.892  13.460  14.775
60550SOL     OW83481   1.188   0.327  13.108
60550SOL    HW183482   1.110   0.317  13.054
60550SOL    HW283483   1.183   0.255  13.172
60551SOL     OW83484  13.904  10.500   9.174
60551SOL    HW183485  13.966  10.525   9.105
60551SOL    HW283486  13.869  10.416   9.145
60552SOL     OW83487   4.567   8.885  13.946
60552SOL    HW183488   4.615   8.965  13.925
60552SOL    HW283489   4.590   8.825  13.875
60553SOL     OW83490   9.329   0.540  13.423
60553SOL    HW183491   9.375   0.607  13.373
60553SOL    HW283492   9.397   0.500  13.478
60554SOL     OW83493  12.983   8.306   6.829
60554SOL    HW183494  12.906   8.324   6.883
60554SOL    HW283495  12.957   8.333   6.741
60555SOL     OW83496   9.833   6.516  12.492
60555SOL    HW183497   9.795   6.598  12.461
60555SOL    HW283498   9.881   6.540  12.571
60556SOL     OW83499   5.575   4.108   0.920
60556SOL    HW183500   5.659   4.062   0.906
60556SOL    HW283501   5.511   4.052   0.877
60557SOL     OW83502   0.660   9.892   7.257
60557SOL    HW183503   0.634   9.919   7.345
60557SOL    HW283504   0.590   9.926   7.200
60558SOL     OW83505  10.125  13.903  10.176
60558SOL    HW183506  10.179  13.858  10.111
60558SOL    HW283507  10.185  13.918  10.249
60559SOL     OW83508   5.958   7.685   2.431
60559SOL    HW183509   5.992   7.612   2.380
60559SOL    HW283510   6.035   7.726   2.470
60560SOL     OW83511  14.114   7.566   5.055
60560SOL    HW183512  14.134   7.660   5.060
60560SOL    HW283513  14.112   7.537   5.146
60561SOL     OW83514   8.619   3.757  11.622
60561SOL    HW183515   8.676   3.802  11.560
60561SOL    HW283516   8.624   3.665  11.596
60562SOL     OW83517   9.932   2.675  10.650
60562SOL    HW183518   9.855   2.620  10.630
60562SOL    HW283519   9.896   2.762  10.666
60563SOL     OW83520  11.549  10.765   7.479
60563SOL    HW183521  11.613  10.757   7.550
60563SOL    HW283522  11.471  10.719   7.511
60564SOL     OW83523   1.290   9.042  13.420
60564SOL    HW183524   1.319   9.047  13.329
60564SOL    HW283525   1.221   9.108  13.427
60565SOL     OW83526  13.323   7.020   2.410
60565SOL    HW183527  13.306   7.094   2.352
60565SOL    HW283528  13.325   6.944   2.353
60566SOL     OW83529   6.947   7.744  10.168
60566SOL    HW183530   6.902   7.716  10.248
60566SOL    HW283531   7.019   7.681  10.159
60567SOL     OW83532  12.135  12.817   2.627
60567SOL    HW183533  12.176  12.779   2.550
60567SOL    HW283534  12.089  12.744   2.669
60568SOL     OW83535  13.186  11.844   5.364
60568SOL    HW183536  13.231  11.879   5.287
60568SOL    HW283537  13.235  11.880   5.438
60569SOL     OW83538   1.441   4.213   0.436
60569SOL    HW183539   1.367   4.173   0.480
60569SOL    HW283540   1.440   4.175   0.348
60570SOL     OW83541   9.974   9.082  13.161
60570SOL    HW183542   9.894   9.058  13.115
60570SOL    HW283543  10.044   9.046  13.106
60571SOL     OW83544  10.488  13.648  12.976
60571SOL    HW183545  10.541  13.726  12.984
60571SOL    HW283546  10.433  13.664  12.899
60572SOL     OW83547   9.289   5.455   9.628
60572SOL    HW183548   9.360   5.514   9.601
60572SOL    HW283549   9.331   5.369   9.633
60573SOL     OW83550   1.343   2.877  13.594
60573SOL    HW183551   1.355   2.824  13.515
60573SOL    HW283552   1.256   2.853  13.626
60574SOL     OW83553   2.228   2.574  13.648
60574SOL    HW183554   2.150   2.617  13.683
60574SOL    HW283555   2.230   2.489  13.694
60575SOL     OW83556  11.874  10.670   5.596
60575SOL    HW183557  11.783  10.641   5.610
60575SOL    HW283558  11.867  10.765   5.584
60576SOL     OW83559   9.917   7.936   7.747
60576SOL    HW183560   9.850   7.991   7.707
60576SOL    HW283561   9.931   7.973   7.834
60577SOL     OW83562   2.562  10.049  11.825
60577SOL    HW183563   2.506   9.973  11.843
60577SOL    HW283564   2.636  10.039  11.884
60578SOL     OW83565   5.080  13.862  12.661
60578SOL    HW183566   5.113  13.874  12.572
60578SOL    HW283567   5.112  13.938  12.709
60579SOL     OW83568   3.161   0.610  11.220
60579SOL    HW183569   3.251   0.635  11.241
60579SOL    HW283570   3.165   0.581  11.128
60580SOL     OW83571   0.640  11.118   9.349
60580SOL    HW183572   0.693  11.042   9.373
60580SOL    HW283573   0.621  11.106   9.256
60581SOL     OW83574   6.962  13.716   3.547
60581SOL    HW183575   7.004  13.679   3.624
60581SOL    HW283576   6.956  13.643   3.485
60582SOL     OW83577   4.012   0.131   2.173
60582SOL    HW183578   3.955   0.189   2.122
60582SOL    HW283579   4.100   0.148   2.140
60583SOL     OW83580  12.324   6.463   6.579
60583SOL    HW183581  12.409   6.476   6.536
60583SOL    HW283582  12.262   6.512   6.525
60584SOL     OW83583   5.816  11.463  11.261
60584SOL    HW183584   5.781  11.494  11.178
60584SOL    HW283585   5.881  11.397  11.237
60585SOL     OW83586   2.664   9.391   6.775
60585SOL    HW183587   2.615   9.338   6.711
60585SOL    HW283588   2.741   9.421   6.727
60586SOL     OW83589   0.458   1.320   0.554
60586SOL    HW183590   0.363   1.332   0.554
60586SOL    HW283591   0.479   1.293   0.643
60587SOL     OW83592  14.295  12.824   7.979
60587SOL    HW183593  14.351  12.767   7.927
60587SOL    HW283594  14.312  12.912   7.946
60588SOL     OW83595   1.541  10.963   3.671
60588SOL    HW183596   1.583  10.998   3.593
60588SOL    HW283597   1.492  10.887   3.640
60589SOL     OW83598   2.724  14.675   5.970
60589SOL    HW183599   2.659  14.606   5.966
60589SOL    HW283600   2.777  14.655   6.047
60590SOL     OW83601   5.191   3.159   0.886
60590SOL    HW183602   5.236   3.088   0.841
60590SOL    HW283603   5.203   3.140   0.979
60591SOL     OW83604  10.058   6.004  13.397
60591SOL    HW183605  10.126   5.965  13.452
60591SOL    HW283606   9.980   5.950  13.413
60592SOL     OW83607   2.971   7.653  14.416
60592SOL    HW183608   2.954   7.741  14.449
60592SOL    HW283609   3.001   7.603  14.492
60593SOL     OW83610   8.630   4.868   9.098
60593SOL    HW183611   8.686   4.929   9.050
60593SOL    HW283612   8.635   4.898   9.189
60594SOL     OW83613  11.884   1.982   6.821
60594SOL    HW183614  11.849   2.052   6.876
60594SOL    HW283615  11.977   2.003   6.811
60595SOL     OW83616  10.125   8.914  11.339
60595SOL    HW183617  10.076   8.864  11.404
60595SOL    HW283618  10.067   8.985  11.315
60596SOL     OW83619   9.901  10.776   3.684
60596SOL    HW183620   9.935  10.693   3.718
60596SOL    HW283621   9.978  10.832   3.678
60597SOL     OW83622   5.256   7.090   4.540
60597SOL    HW183623   5.267   7.120   4.631
60597SOL    HW283624   5.346   7.079   4.508
60598SOL     OW83625  12.996  11.152  12.221
60598SOL    HW183626  12.993  11.225  12.160
60598SOL    HW283627  12.921  11.166  12.279
60599SOL     OW83628  13.566  13.633   4.762
60599SOL    HW183629  13.549  13.548   4.721
60599SOL    HW283630  13.595  13.689   4.690
60600SOL     OW83631   6.184  12.506   5.153
60600SOL    HW183632   6.233  12.473   5.229
60600SOL    HW283633   6.187  12.601   5.162
60601SOL     OW83634   3.270   2.275   9.001
60601SOL    HW183635   3.257   2.209   8.933
60601SOL    HW283636   3.199   2.260   9.063
60602SOL     OW83637   8.278   7.766  11.261
60602SOL    HW183638   8.285   7.741  11.353
60602SOL    HW283639   8.368   7.786  11.235
60603SOL     OW83640   7.467   8.688   7.209
60603SOL    HW183641   7.431   8.755   7.151
60603SOL    HW283642   7.474   8.731   7.294
60604SOL     OW83643   3.903  12.428  14.814
60604SOL    HW183644   3.812  12.456  14.817
60604SOL    HW283645   3.919  12.408  14.721
60605SOL     OW83646   0.657  12.971   0.824
60605SOL    HW183647   0.725  12.946   0.761
60605SOL    HW283648   0.604  12.893   0.834
60606SOL     OW83649  10.782  10.834  10.184
60606SOL    HW183650  10.761  10.757  10.131
60606SOL    HW283651  10.819  10.897  10.122
60607SOL     OW83652   8.471   0.557   6.747
60607SOL    HW183653   8.383   0.552   6.708
60607SOL    HW283654   8.510   0.472   6.728
60608SOL     OW83655  12.455   7.751   6.766
60608SOL    HW183656  12.449   7.660   6.794
60608SOL    HW283657  12.473   7.800   6.846
60609SOL     OW83658   1.419   1.539   5.841
60609SOL    HW183659   1.477   1.613   5.861
60609SOL    HW283660   1.400   1.548   5.748
60610SOL     OW83661  12.552  10.702   6.470
60610SOL    HW183662  12.479  10.755   6.440
60610SOL    HW283663  12.630  10.755   6.452
60611SOL     OW83664   3.312  14.637   6.600
60611SOL    HW183665   3.345  14.693   6.529
60611SOL    HW283666   3.347  14.550   6.580
60612SOL     OW83667   0.060   0.846   2.119
60612SOL    HW183668   0.106   0.769   2.154
60612SOL    HW283669  14.850   0.820   2.117
60613SOL     OW83670  14.816   8.824   6.819
60613SOL    HW183671  14.757   8.768   6.768
60613SOL    HW283672   0.022   8.793   6.798
60614SOL     OW83673   9.595   2.946   8.679
60614SOL    HW183674   9.567   2.965   8.769
60614SOL    HW283675   9.519   2.966   8.625
60615SOL     OW83676   1.846   5.025   6.169
60615SOL    HW183677   1.807   4.946   6.206
60615SOL    HW283678   1.940   5.014   6.184
60616SOL     OW83679   3.862   2.225  14.424
60616SOL    HW183680   3.792   2.277  14.383
60616SOL    HW283681   3.872   2.149  14.366
60617SOL     OW83682  14.542   1.530   3.682
60617SOL    HW183683  14.496   1.483   3.613
60617SOL    HW283684  14.482   1.600   3.708
60618SOL     OW83685  10.787   2.508  13.889
60618SOL    HW183686  10.774   2.482  13.798
60618SOL    HW283687  10.755   2.434  13.940
60619SOL     OW83688   1.439  10.694  12.313
60619SOL    HW183689   1.449  10.699  12.218
60619SOL    HW283690   1.376  10.624  12.327
60620SOL     OW83691   6.431  12.688   0.977
60620SOL    HW183692   6.390  12.761   1.022
60620SOL    HW283693   6.442  12.621   1.044
60621SOL     OW83694  10.770  14.358   5.608
60621SOL    HW183695  10.836  14.381   5.674
60621SOL    HW283696  10.687  14.359   5.655
60622SOL     OW83697   3.757  12.565  12.046
60622SOL    HW183698   3.790  12.477  12.029
60622SOL    HW283699   3.832  12.622  12.028
60623SOL     OW83700   8.530   4.968   0.577
60623SOL    HW183701   8.455   4.954   0.634
60623SOL    HW283702   8.593   4.900   0.603
60624SOL     OW83703   1.945   9.361   3.505
60624SOL    HW183704   1.937   9.456   3.499
60624SOL    HW283705   1.938   9.331   3.414
60625SOL     OW83706  11.435   9.199  11.281
60625SOL    HW183707  11.388   9.215  11.199
60625SOL    HW283708  11.528   9.201  11.257
60626SOL     OW83709   3.522  13.366   2.640
60626SOL    HW183710   3.553  13.318   2.564
60626SOL    HW283711   3.450  13.420   2.607
60627SOL     OW83712  13.599  12.957   4.700
60627SOL    HW183713  13.536  12.926   4.765
60627SOL    HW283714  13.643  13.031   4.744
60628SOL     OW83715  14.055   0.371   8.651
60628SOL    HW183716  14.027   0.417   8.571
60628SOL    HW283717  14.116   0.432   8.693
60629SOL     OW83718   6.445   2.105  10.982
60629SOL    HW183719   6.501   2.163  10.930
60629SOL    HW283720   6.414   2.040  10.920
60630SOL     OW83721   6.680   9.649   2.813
60630SOL    HW183722   6.655   9.562   2.784
60630SOL    HW283723   6.707   9.637   2.905
60631SOL     OW83724   5.110   0.888   2.443
60631SOL    HW183725   5.117   0.979   2.472
60631SOL    HW283726   5.148   0.837   2.516
60632SOL     OW83727  13.301  12.266   1.060
60632SOL    HW183728  13.332  12.275   1.150
60632SOL    HW283729  13.326  12.348   1.018
60633SOL     OW83730   1.012   9.414  10.638
60633SOL    HW183731   0.977   9.415  10.728
60633SOL    HW283732   1.091   9.467  10.643
60634SOL     OW83733  12.114   5.598  12.306
60634SOL    HW183734  12.054   5.540  12.259
60634SOL    HW283735  12.193   5.546  12.320
60635SOL     OW83736  12.125   5.756  10.279
60635SOL    HW183737  12.195   5.790  10.335
60635SOL    HW283738  12.148   5.664  10.265
60636SOL     OW83739  10.867   6.791  10.877
60636SOL    HW183740  10.828   6.863  10.928
60636SOL    HW283741  10.879   6.828  10.790
60637SOL     OW83742   9.156   9.105   3.785
60637SOL    HW183743   9.172   9.066   3.871
60637SOL    HW283744   9.083   9.055   3.749
60638SOL     OW83745   8.678   2.880  10.566
60638SOL    HW183746   8.733   2.804  10.550
60638SOL    HW283747   8.679   2.929  10.484
60639SOL     OW83748   0.439   8.518  14.506
60639SOL    HW183749   0.469   8.593  14.455
60639SOL    HW283750   0.357   8.547  14.546
60640SOL     OW83751   3.355   7.293   9.281
60640SOL    HW183752   3.363   7.242   9.362
60640SOL    HW283753   3.370   7.230   9.211
60641SOL     OW83754   8.401  12.214  14.485
60641SOL    HW183755   8.396  12.283  14.551
60641SOL    HW283756   8.446  12.255  14.411
60642SOL     OW83757  10.545   6.177   2.352
60642SOL    HW183758  10.640   6.187   2.341
60642SOL    HW283759  10.527   6.216   2.437
60643SOL     OW83760  14.613  11.431  11.317
60643SOL    HW183761  14.523  11.431  11.285
60643SOL    HW283762  14.666  11.447  11.239
60644SOL     OW83763   6.883   2.618   6.420
60644SOL    HW183764   6.852   2.528   6.412
60644SOL    HW283765   6.820   2.661   6.478
60645SOL     OW83766   7.919  13.285  10.376
60645SOL    HW183767   7.880  13.238  10.302
60645SOL    HW283768   7.922  13.376  10.346
60646SOL     OW83769  11.281   8.897   0.175
60646SOL    HW183770  11.322   8.982   0.188
60646SOL    HW283771  11.292   8.851   0.258
60647SOL     OW83772  10.006   9.192   6.213
60647SOL    HW183773  10.047   9.110   6.185
60647SOL    HW283774  10.076   9.257   6.207
60648SOL     OW83775   5.715   0.982  11.316
60648SOL    HW183776   5.770   0.905  11.332
60648SOL    HW283777   5.672   0.999  11.400
60649SOL     OW83778  14.392   5.769  12.821
60649SOL    HW183779  14.448   5.774  12.898
60649SOL    HW283780  14.400   5.678  12.792
60650SOL     OW83781   9.304   7.790  13.444
60650SOL    HW183782   9.356   7.781  13.523
60650SOL    HW283783   9.359   7.754  13.374
60651SOL     OW83784   6.121  13.807  12.240
60651SOL    HW183785   6.121  13.881  12.180
60651SOL    HW283786   6.030  13.779  12.245
60652SOL     OW83787   4.965  14.222   0.482
60652SOL    HW183788   4.947  14.242   0.390
60652SOL    HW283789   4.902  14.275   0.531
60653SOL     OW83790  12.324   1.377   3.421
60653SOL    HW183791  12.256   1.324   3.379
60653SOL    HW283792  12.287   1.400   3.506
60654SOL     OW83793   5.247  10.891  13.758
60654SOL    HW183794   5.220  10.824  13.696
60654SOL    HW283795   5.211  10.973  13.723
60655SOL     OW83796   9.091   2.902   7.271
60655SOL    HW183797   9.181   2.911   7.241
60655SOL    HW283798   9.096   2.911   7.366
60656SOL     OW83799   2.546   0.584  11.798
60656SOL    HW183800   2.557   0.489  11.809
60656SOL    HW283801   2.626   0.612  11.754
60657SOL     OW83802  12.323   8.995   3.664
60657SOL    HW183803  12.236   9.032   3.650
60657SOL    HW283804  12.382   9.070   3.662
60658SOL     OW83805  13.789   8.514   2.066
60658SOL    HW183806  13.712   8.458   2.075
60658SOL    HW283807  13.818   8.501   1.976
60659SOL     OW83808   0.178   1.408   6.263
60659SOL    HW183809   0.088   1.439   6.259
60659SOL    HW283810   0.170   1.318   6.294
60660SOL     OW83811   1.925  10.959   4.522
60660SOL    HW183812   1.988  10.956   4.594
60660SOL    HW283813   1.897  10.867   4.511
60661SOL     OW83814   0.817   1.173   9.867
60661SOL    HW183815   0.899   1.199   9.910
60661SOL    HW283816   0.829   1.080   9.849
60662SOL     OW83817   7.638   9.287   4.176
60662SOL    HW183818   7.600   9.257   4.093
60662SOL    HW283819   7.732   9.289   4.160
60663SOL     OW83820   5.705  12.155   3.631
60663SOL    HW183821   5.732  12.238   3.671
60663SOL    HW283822   5.712  12.171   3.537
60664SOL     OW83823   9.226   1.939  12.018
60664SOL    HW183824   9.215   2.017  11.963
60664SOL    HW283825   9.158   1.878  11.987
60665SOL     OW83826   6.543  13.450   9.051
60665SOL    HW183827   6.476  13.502   9.094
60665SOL    HW283828   6.510  13.437   8.962
60666SOL     OW83829  11.505   6.266  11.952
60666SOL    HW183830  11.438   6.218  11.904
60666SOL    HW283831  11.547   6.200  12.007
60667SOL     OW83832  10.501   8.114  14.486
60667SOL    HW183833  10.502   8.079  14.397
60667SOL    HW283834  10.515   8.038  14.542
60668SOL     OW83835   9.512   0.025   8.450
60668SOL    HW183836   9.592   0.049   8.403
60668SOL    HW283837   9.541  14.843   8.515
60669SOL     OW83838   9.098   4.034   7.116
60669SOL    HW183839   9.113   4.018   7.023
60669SOL    HW283840   9.173   3.992   7.160
60670SOL     OW83841  14.791   0.009   6.253
60670SOL    HW183842  14.757   0.097   6.236
60670SOL    HW283843  14.842   0.018   6.333
60671SOL     OW83844   3.089  14.867  12.435
60671SOL    HW183845   3.045  14.837  12.514
60671SOL    HW283846   3.075   0.080  12.434
60672SOL     OW83847   0.451   7.613   4.761
60672SOL    HW183848   0.501   7.605   4.679
60672SOL    HW283849   0.381   7.548   4.753
60673SOL     OW83850   4.676  13.463  11.638
60673SOL    HW183851   4.719  13.541  11.601
60673SOL    HW283852   4.585  13.490  11.650
60674SOL     OW83853  11.943   8.572   1.195
60674SOL    HW183854  11.982   8.659   1.196
60674SOL    HW283855  11.999   8.521   1.137
60675SOL     OW83856  13.714  11.620   0.347
60675SOL    HW183857  13.784  11.636   0.410
60675SOL    HW283858  13.688  11.529   0.363
60676SOL     OW83859   0.840   1.940   8.319
60676SOL    HW183860   0.889   1.982   8.248
60676SOL    HW283861   0.902   1.877   8.356
60677SOL     OW83862   8.307  12.777   6.087
60677SOL    HW183863   8.350  12.861   6.071
60677SOL    HW283864   8.363  12.733   6.150
60678SOL     OW83865   2.936   5.563   1.114
60678SOL    HW183866   2.950   5.657   1.128
60678SOL    HW283867   3.019   5.523   1.140
60679SOL     OW83868   9.152   3.931   0.114
60679SOL    HW183869   9.140   3.837   0.098
60679SOL    HW283870   9.228   3.955   0.062
60680SOL     OW83871   1.253   5.059   5.872
60680SOL    HW183872   1.298   5.112   5.806
60680SOL    HW283873   1.312   4.985   5.887
60681SOL     OW83874   2.403   6.712  13.130
60681SOL    HW183875   2.374   6.667  13.210
60681SOL    HW283876   2.498   6.714  13.138
60682SOL     OW83877  10.354   0.285  12.308
60682SOL    HW183878  10.323   0.285  12.399
60682SOL    HW283879  10.414   0.211  12.303
60683SOL     OW83880   7.565   7.663   0.456
60683SOL    HW183881   7.478   7.694   0.431
60683SOL    HW283882   7.569   7.573   0.425
60684SOL     OW83883   3.933   8.194   0.267
60684SOL    HW183884   3.971   8.155   0.188
60684SOL    HW283885   3.937   8.288   0.251
60685SOL     OW83886   3.797  12.483  14.401
60685SOL    HW183887   3.822  12.430  14.325
60685SOL    HW283888   3.805  12.425  14.476
60686SOL     OW83889   8.579   8.870  11.295
60686SOL    HW183890   8.628   8.892  11.215
60686SOL    HW283891   8.577   8.774  11.296
60687SOL     OW83892   9.971  10.822   7.764
60687SOL    HW183893   9.878  10.808   7.783
60687SOL    HW283894  10.007  10.858   7.845
60688SOL     OW83895   4.459  10.287   9.540
60688SOL    HW183896   4.406  10.231   9.483
60688SOL    HW283897   4.547  10.282   9.504
60689SOL     OW83898  10.312   6.992   2.668
60689SOL    HW183899  10.340   7.036   2.587
60689SOL    HW283900  10.393   6.957   2.706
60690SOL     OW83901   1.218  10.812   9.915
60690SOL    HW183902   1.216  10.727   9.958
60690SOL    HW283903   1.246  10.873   9.983
60691SOL     OW83904   0.545   2.063  12.679
60691SOL    HW183905   0.456   2.066  12.645
60691SOL    HW283906   0.536   2.069  12.774
60692SOL     OW83907   6.092   0.325   1.390
60692SOL    HW183908   6.183   0.337   1.363
60692SOL    HW283909   6.092   0.346   1.484
60693SOL     OW83910  12.956   9.188  14.738
60693SOL    HW183911  12.943   9.139  14.657
60693SOL    HW283912  13.039   9.156  14.773
60694SOL     OW83913   1.708  12.940  13.537
60694SOL    HW183914   1.775  12.992  13.582
60694SOL    HW283915   1.708  12.973  13.448
60695SOL     OW83916   6.973   1.730   1.679
60695SOL    HW183917   6.971   1.698   1.589
60695SOL    HW283918   6.974   1.651   1.733
60696SOL     OW83919   8.912  11.138   1.918
60696SOL    HW183920   8.940  11.066   1.862
60696SOL    HW283921   8.993  11.183   1.942
60697SOL     OW83922   7.599  11.815   6.796
60697SOL    HW183923   7.678  11.765   6.777
60697SOL    HW283924   7.584  11.801   6.890
60698SOL     OW83925   8.775   4.111   2.275
60698SOL    HW183926   8.721   4.043   2.234
60698SOL    HW283927   8.837   4.062   2.329
60699SOL     OW83928   7.440   8.108   9.344
60699SOL    HW183929   7.427   8.202   9.350
60699SOL    HW283930   7.535   8.097   9.349
60700SOL     OW83931   2.972   5.728  14.563
60700SOL    HW183932   2.959   5.787  14.489
60700SOL    HW283933   3.061   5.695  14.552
60701SOL     OW83934   2.798  12.864  14.471
60701SOL    HW183935   2.813  12.926  14.542
60701SOL    HW283936   2.731  12.804  14.505
60702SOL     OW83937   1.485  12.486   9.166
60702SOL    HW183938   1.477  12.580   9.152
60702SOL    HW283939   1.455  12.447   9.084
60703SOL     OW83940   3.903  10.768   4.143
60703SOL    HW183941   3.970  10.708   4.174
60703SOL    HW283942   3.951  10.849   4.124
60704SOL     OW83943   1.045   8.139  13.944
60704SOL    HW183944   1.132   8.177  13.961
60704SOL    HW283945   1.059   8.081  13.869
60705SOL     OW83946   4.416   5.547   0.589
60705SOL    HW183947   4.409   5.615   0.522
60705SOL    HW283948   4.476   5.583   0.654
60706SOL     OW83949   0.262   4.708  12.930
60706SOL    HW183950   0.337   4.729  12.874
60706SOL    HW283951   0.190   4.761  12.895
60707SOL     OW83952  10.760   6.384  13.406
60707SOL    HW183953  10.722   6.460  13.360
60707SOL    HW283954  10.854   6.393  13.392
60708SOL     OW83955   9.871   3.211   9.472
60708SOL    HW183956   9.857   3.291   9.522
60708SOL    HW283957   9.960   3.183   9.493
60709SOL     OW83958   7.374   7.573   7.356
60709SOL    HW183959   7.334   7.609   7.277
60709SOL    HW283960   7.308   7.514   7.391
60710SOL     OW83961   5.614  13.296   5.066
60710SOL    HW183962   5.622  13.336   4.980
60710SOL    HW283963   5.642  13.364   5.127
60711SOL     OW83964   3.865  13.391   2.930
60711SOL    HW183965   3.780  13.433   2.938
60711SOL    HW283966   3.901  13.392   3.019
60712SOL     OW83967   2.204  13.955   3.730
60712SOL    HW183968   2.129  13.960   3.671
60712SOL    HW283969   2.204  14.040   3.775
60713SOL     OW83970  12.950   9.329   4.777
60713SOL    HW183971  12.878   9.268   4.793
60713SOL    HW283972  13.015   9.307   4.844
60714SOL     OW83973  14.450  12.171   4.257
60714SOL    HW183974  14.524  12.178   4.317
60714SOL    HW283975  14.489  12.181   4.170
60715SOL     OW83976   7.071  12.261   9.282
60715SOL    HW183977   7.149  12.314   9.265
60715SOL    HW283978   7.035  12.298   9.364
60716SOL     OW83979   0.670   7.747   1.096
60716SOL    HW183980   0.580   7.759   1.066
60716SOL    HW283981   0.687   7.653   1.084
60717SOL     OW83982   6.306   1.387  11.524
60717SOL    HW183983   6.308   1.415  11.615
60717SOL    HW283984   6.221   1.417  11.492
60718SOL     OW83985  12.483   2.014  12.276
60718SOL    HW183986  12.533   2.047  12.350
60718SOL    HW283987  12.438   2.091  12.241
60719SOL     OW83988   0.869   7.220   0.451
60719SOL    HW183989   0.929   7.295   0.457
60719SOL    HW283990   0.924   7.144   0.467
60720SOL     OW83991  11.741   0.076   4.661
60720SOL    HW183992  11.826   0.119   4.650
60720SOL    HW283993  11.703   0.074   4.574
60721SOL     OW83994   5.136   2.019  13.439
60721SOL    HW183995   5.163   1.927  13.446
60721SOL    HW283996   5.157   2.056  13.525
60722SOL     OW83997   7.829  14.688   8.423
60722SOL    HW183998   7.773  14.763   8.446
60722SOL    HW283999   7.889  14.722   8.357
60723SOL     OW84000  14.606   5.574  12.401
60723SOL    HW184001  14.534   5.611  12.350
60723SOL    HW284002  14.564   5.530  12.474
60724SOL     OW84003  10.807   2.192   9.381
60724SOL    HW184004  10.829   2.219   9.292
60724SOL    HW284005  10.819   2.097   9.381
60725SOL     OW84006   2.005   5.229   9.040
60725SOL    HW184007   1.957   5.231   8.957
60725SOL    HW284008   2.082   5.284   9.024
60726SOL     OW84009   9.032   7.283   6.811
60726SOL    HW184010   9.014   7.375   6.833
60726SOL    HW284011   8.967   7.261   6.745
60727SOL     OW84012  12.937  13.332   9.032
60727SOL    HW184013  12.928  13.265   9.099
60727SOL    HW284014  13.025  13.320   8.998
60728SOL     OW84015   8.052  12.006   7.185
60728SOL    HW184016   8.137  11.965   7.203
60728SOL    HW284017   7.995  11.978   7.256
60729SOL     OW84018  10.630  14.723  12.708
60729SOL    HW184019  10.598  14.795  12.762
60729SOL    HW284020  10.552  14.672  12.686
60730SOL     OW84021   9.109  12.723   5.221
60730SOL    HW184022   9.093  12.692   5.132
60730SOL    HW284023   9.114  12.644   5.274
60731SOL     OW84024   7.482  14.392  12.965
60731SOL    HW184025   7.486  14.465  12.904
60731SOL    HW284026   7.464  14.432  13.050
60732SOL     OW84027   4.681  13.553   4.403
60732SOL    HW184028   4.679  13.477   4.462
60732SOL    HW284029   4.599  13.599   4.421
60733SOL     OW84030  12.409   8.365   4.123
60733SOL    HW184031  12.322   8.404   4.134
60733SOL    HW284032  12.467   8.422   4.174
60734SOL     OW84033   3.247   4.067   1.159
60734SOL    HW184034   3.286   4.135   1.214
60734SOL    HW284035   3.284   3.985   1.191
60735SOL     OW84036   5.334   1.946  14.050
60735SOL    HW184037   5.246   1.964  14.017
60735SOL    HW284038   5.367   1.876  13.994
60736SOL     OW84039   6.191  12.499  14.652
60736SOL    HW184040   6.248  12.576  14.653
60736SOL    HW284041   6.173  12.481  14.745
60737SOL     OW84042   9.386  12.204   5.680
60737SOL    HW184043   9.429  12.126   5.643
60737SOL    HW284044   9.414  12.206   5.771
60738SOL     OW84045   5.786   7.084  13.771
60738SOL    HW184046   5.729   7.064  13.845
60738SOL    HW284047   5.855   7.140  13.807
60739SOL     OW84048   6.451  13.170   1.527
60739SOL    HW184049   6.385  13.223   1.483
60739SOL    HW284050   6.404  13.091   1.553
60740SOL     OW84051  11.382   9.174   4.170
60740SOL    HW184052  11.387   9.256   4.220
60740SOL    HW284053  11.338   9.199   4.088
60741SOL     OW84054   6.359  11.032   0.393
60741SOL    HW184055   6.266  11.054   0.391
60741SOL    HW284056   6.361  10.938   0.408
60742SOL     OW84057   4.791   9.202  11.588
60742SOL    HW184058   4.848   9.125  11.580
60742SOL    HW284059   4.817   9.258  11.515
60743SOL     OW84060   5.773  10.391   0.819
60743SOL    HW184061   5.750  10.320   0.879
60743SOL    HW284062   5.701  10.453   0.828
60744SOL     OW84063  10.984   6.907   6.595
60744SOL    HW184064  11.041   6.902   6.672
60744SOL    HW284065  10.961   6.816   6.576
60745SOL     OW84066   7.919  11.401   2.485
60745SOL    HW184067   7.880  11.418   2.399
60745SOL    HW284068   7.887  11.472   2.540
60746SOL     OW84069   9.667  14.746   2.873
60746SOL    HW184070   9.690  14.838   2.866
60746SOL    HW284071   9.605  14.731   2.801
60747SOL     OW84072   4.322   7.016   1.917
60747SOL    HW184073   4.292   7.072   1.988
60747SOL    HW284074   4.342   6.932   1.959
60748SOL     OW84075   2.788   9.271  14.765
60748SOL    HW184076   2.856   9.300  14.704
60748SOL    HW284077   2.736   9.349  14.783
60749SOL     OW84078   8.682   8.014  12.858
60749SOL    HW184079   8.651   7.954  12.790
60749SOL    HW284080   8.604   8.031  12.911
60750SOL     OW84081  13.690   9.353  10.816
60750SOL    HW184082  13.618   9.290  10.808
60750SOL    HW284083  13.766   9.299  10.838
60751SOL     OW84084   8.769  13.626   5.851
60751SOL    HW184085   8.731  13.544   5.882
60751SOL    HW284086   8.696  13.686   5.846
60752SOL     OW84087   7.324  13.933  13.667
60752SOL    HW184088   7.392  13.865  13.667
60752SOL    HW284089   7.373  14.014  13.679
60753SOL     OW84090   2.324   3.066   6.172
60753SOL    HW184091   2.290   2.987   6.213
60753SOL    HW284092   2.278   3.138   6.215
60754SOL     OW84093   1.323   2.078   5.927
60754SOL    HW184094   1.267   2.058   5.852
60754SOL    HW284095   1.412   2.064   5.895
60755SOL     OW84096   4.844   3.006  11.995
60755SOL    HW184097   4.788   2.932  11.974
60755SOL    HW284098   4.791   3.083  11.977
60756SOL     OW84099  12.933  13.155   9.218
60756SOL    HW184100  12.877  13.224   9.255
60756SOL    HW284101  12.994  13.135   9.289
60757SOL     OW84102   2.417  11.632  13.093
60757SOL    HW184103   2.475  11.707  13.078
60757SOL    HW284104   2.412  11.624  13.188
60758SOL     OW84105   6.389   4.873   3.580
60758SOL    HW184106   6.392   4.899   3.672
60758SOL    HW284107   6.364   4.953   3.533
60759SOL     OW84108   3.499   5.010  14.543
60759SOL    HW184109   3.585   5.048  14.560
60759SOL    HW284110   3.451   5.023  14.625
60760SOL     OW84111   9.781  11.070  11.017
60760SOL    HW184112   9.824  11.103  11.096
60760SOL    HW284113   9.811  11.129  10.947
60761SOL     OW84114   2.096   8.694   1.730
60761SOL    HW184115   2.134   8.671   1.646
60761SOL    HW284116   2.171   8.694   1.791
60762SOL     OW84117  11.637   4.756   1.544
60762SOL    HW184118  11.632   4.812   1.621
60762SOL    HW284119  11.628   4.816   1.470
60763SOL     OW84120   9.988   0.883  10.386
60763SOL    HW184121  10.042   0.890  10.307
60763SOL    HW284122   9.912   0.938  10.367
60764SOL     OW84123   6.066  11.794   8.297
60764SOL    HW184124   6.152  11.806   8.339
60764SOL    HW284125   6.087  11.776   8.205
60765SOL     OW84126   9.954  12.278   4.619
60765SOL    HW184127   9.950  12.326   4.701
60765SOL    HW284128   9.999  12.337   4.558
60766SOL     OW84129  11.604   2.093  14.834
60766SOL    HW184130  11.524   2.044  14.854
60766SOL    HW284131  11.674   2.028  14.842
60767SOL     OW84132   2.701   1.657   9.924
60767SOL    HW184133   2.654   1.737   9.901
60767SOL    HW284134   2.746   1.678  10.005
60768SOL     OW84135  12.544   8.171   6.915
60768SOL    HW184136  12.497   8.095   6.950
60768SOL    HW284137  12.550   8.231   6.989
60769SOL     OW84138  13.541  14.760   8.125
60769SOL    HW184139  13.503  14.814   8.194
60769SOL    HW284140  13.468  14.741   8.066
60770SOL     OW84141   9.884  13.308   9.804
60770SOL    HW184142   9.825  13.271   9.871
60770SOL    HW284143   9.897  13.237   9.742
60771SOL     OW84144  10.326  11.273  12.618
60771SOL    HW184145  10.279  11.202  12.574
60771SOL    HW284146  10.412  11.237  12.637
60772SOL     OW84147   8.542   0.848   6.295
60772SOL    HW184148   8.453   0.879   6.278
60772SOL    HW284149   8.530   0.758   6.325
60773SOL     OW84150   8.493   3.552   2.675
60773SOL    HW184151   8.468   3.534   2.765
60773SOL    HW284152   8.551   3.628   2.681
60774SOL     OW84153   0.395   4.231   6.599
60774SOL    HW184154   0.346   4.153   6.626
60774SOL    HW284155   0.487   4.206   6.609
60775SOL     OW84156   9.713   6.481   1.373
60775SOL    HW184157   9.808   6.475   1.362
60775SOL    HW284158   9.678   6.412   1.317
60776SOL     OW84159   5.220  10.280  12.143
60776SOL    HW184160   5.280  10.209  12.124
60776SOL    HW284161   5.243  10.349  12.080
60777SOL     OW84162  13.875   6.218  11.559
60777SOL    HW184163  13.969   6.221  11.542
60777SOL    HW284164  13.862   6.276  11.634
60778SOL     OW84165   3.671   1.585   4.170
60778SOL    HW184166   3.630   1.520   4.227
60778SOL    HW284167   3.603   1.609   4.107
60779SOL     OW84168  10.086   3.120   1.806
60779SOL    HW184169  10.088   3.122   1.902
60779SOL    HW284170  10.020   3.054   1.784
60780SOL     OW84171   3.608   7.230   3.330
60780SOL    HW184172   3.652   7.273   3.404
60780SOL    HW284173   3.592   7.141   3.360
60781SOL     OW84174   6.934   0.733   8.974
60781SOL    HW184175   7.003   0.780   8.928
60781SOL    HW284176   6.961   0.641   8.972
60782SOL     OW84177   2.538   9.681  12.265
60782SOL    HW184178   2.534   9.602  12.211
60782SOL    HW284179   2.476   9.741  12.224
60783SOL     OW84180   6.123  10.528   5.934
60783SOL    HW184181   6.063  10.486   5.872
60783SOL    HW284182   6.183  10.459   5.961
60784SOL     OW84183   5.438   3.384  10.187
60784SOL    HW184184   5.530   3.357  10.185
60784SOL    HW284185   5.390   3.303  10.206
60785SOL     OW84186   3.981  11.598  14.176
60785SOL    HW184187   3.908  11.555  14.132
60785SOL    HW284188   4.023  11.649  14.106
60786SOL     OW84189  12.646   5.762   8.639
60786SOL    HW184190  12.728   5.725   8.672
60786SOL    HW284191  12.579   5.731   8.700
60787SOL     OW84192  13.999   2.230  10.139
60787SOL    HW184193  14.070   2.213  10.077
60787SOL    HW284194  13.977   2.144  10.175
60788SOL     OW84195   2.163  11.501   5.193
60788SOL    HW184196   2.082  11.522   5.239
60788SOL    HW284197   2.224  11.570   5.220
60789SOL     OW84198  12.033   2.022   8.974
60789SOL    HW184199  12.029   1.930   8.948
60789SOL    HW284200  12.126   2.036   8.995
60790SOL     OW84201  10.680   6.935   1.234
60790SOL    HW184202  10.595   6.893   1.219
60790SOL    HW284203  10.659   7.026   1.257
60791SOL     OW84204   6.871   7.449   5.967
60791SOL    HW184205   6.810   7.375   5.972
60791SOL    HW284206   6.858   7.485   5.879
60792SOL     OW84207   7.863   3.404   1.088
60792SOL    HW184208   7.930   3.430   1.026
60792SOL    HW284209   7.911   3.385   1.169
60793SOL     OW84210  14.177   9.612   1.978
60793SOL    HW184211  14.244   9.543   1.970
60793SOL    HW284212  14.146   9.605   2.068
60794SOL     OW84213   9.474   2.032   4.434
60794SOL    HW184214   9.536   2.101   4.411
60794SOL    HW284215   9.500   2.005   4.522
60795SOL     OW84216   9.428  12.180   6.422
60795SOL    HW184217   9.375  12.168   6.343
60795SOL    HW284218   9.379  12.243   6.474
60796SOL     OW84219   4.159   2.070   2.998
60796SOL    HW184220   4.223   2.134   3.028
60796SOL    HW284221   4.210   2.010   2.943
60797SOL     OW84222   6.522   3.035   4.037
60797SOL    HW184223   6.599   2.983   4.016
60797SOL    HW284224   6.487   3.062   3.952
60798SOL     OW84225   1.302   0.363   7.555
60798SOL    HW184226   1.259   0.286   7.593
60798SOL    HW284227   1.288   0.432   7.620
60799SOL     OW84228   1.779   3.948   6.117
60799SOL    HW184229   1.807   3.857   6.113
60799SOL    HW284230   1.820   3.983   6.197
60800SOL     OW84231  10.531   2.181  10.779
60800SOL    HW184232  10.536   2.133  10.697
60800SOL    HW284233  10.496   2.117  10.842
60801SOL     OW84234   9.956   3.590   4.088
60801SOL    HW184235  10.019   3.520   4.108
60801SOL    HW284236   9.887   3.546   4.038
60802SOL     OW84237   9.731   1.489  11.128
60802SOL    HW184238   9.712   1.453  11.215
60802SOL    HW284239   9.799   1.431  11.094
60803SOL     OW84240  10.046   2.752   4.087
60803SOL    HW184241  10.032   2.845   4.104
60803SOL    HW284242  10.091   2.720   4.165
60804SOL     OW84243  12.015   5.900   8.461
60804SOL    HW184244  11.956   5.880   8.534
60804SOL    HW284245  11.956   5.914   8.386
60805SOL     OW84246   1.963   2.449  11.951
60805SOL    HW184247   2.038   2.394  11.976
60805SOL    HW284248   1.892   2.419  12.008
60806SOL     OW84249   2.561   3.708   4.646
60806SOL    HW184250   2.524   3.789   4.680
60806SOL    HW284251   2.573   3.724   4.552
60807SOL     OW84252   0.491   4.209  11.751
60807SOL    HW184253   0.497   4.296  11.713
60807SOL    HW284254   0.398   4.198  11.773
60808SOL     OW84255  13.789  12.444   9.193
60808SOL    HW184256  13.806  12.528   9.236
60808SOL    HW284257  13.864  12.433   9.134
60809SOL     OW84258   6.803  13.072  11.678
60809SOL    HW184259   6.729  13.078  11.739
60809SOL    HW284260   6.854  13.151  11.695
60810SOL     OW84261  13.657   8.094  14.532
60810SOL    HW184262  13.656   8.129  14.443
60810SOL    HW284263  13.744   8.057  14.542
60811SOL     OW84264  12.949   7.158   4.150
60811SOL    HW184265  12.928   7.167   4.243
60811SOL    HW284266  13.043   7.177   4.145
60812SOL     OW84267   0.766   8.674   9.517
60812SOL    HW184268   0.710   8.665   9.440
60812SOL    HW284269   0.801   8.763   9.511
60813SOL     OW84270   9.098   7.200   5.249
60813SOL    HW184271   9.012   7.157   5.246
60813SOL    HW284272   9.134   7.189   5.162
60814SOL     OW84273   0.779  12.878   4.286
60814SOL    HW184274   0.872  12.856   4.288
60814SOL    HW284275   0.771  12.943   4.216
60815SOL     OW84276   9.277  12.285  10.263
60815SOL    HW184277   9.250  12.262  10.174
60815SOL    HW284278   9.205  12.255  10.319
60816SOL     OW84279   8.136   5.396  11.772
60816SOL    HW184280   8.097   5.482  11.787
60816SOL    HW284281   8.100   5.367  11.689
60817SOL     OW84282   3.673   6.804   9.280
60817SOL    HW184283   3.582   6.778   9.298
60817SOL    HW284284   3.716   6.722   9.255
60818SOL     OW84285   0.460   6.633   8.367
60818SOL    HW184286   0.418   6.602   8.447
60818SOL    HW284287   0.485   6.554   8.320
60819SOL     OW84288   3.026  14.652   6.603
60819SOL    HW184289   3.037  14.733   6.553
60819SOL    HW284290   3.115  14.626   6.626
60820SOL     OW84291   3.791   3.519   2.927
60820SOL    HW184292   3.791   3.493   3.019
60820SOL    HW284293   3.749   3.605   2.927
60821SOL     OW84294  12.955  11.015   3.681
60821SOL    HW184295  12.999  10.936   3.648
60821SOL    HW284296  12.865  10.986   3.699
60822SOL     OW84297  10.349  12.708   0.997
60822SOL    HW184298  10.310  12.679   0.915
60822SOL    HW284299  10.386  12.794   0.978
60823SOL     OW84300   9.939  13.173  11.563
60823SOL    HW184301  10.029  13.207  11.562
60823SOL    HW284302   9.886  13.246  11.531
60824SOL     OW84303   0.709   1.412   9.380
60824SOL    HW184304   0.764   1.356   9.434
60824SOL    HW284305   0.746   1.500   9.391
60825SOL     OW84306   6.768  12.465   9.987
60825SOL    HW184307   6.790  12.540   9.932
60825SOL    HW284308   6.839  12.461  10.051
60826SOL     OW84309   6.161   9.352  10.171
60826SOL    HW184310   6.222   9.291  10.213
60826SOL    HW284311   6.152   9.424  10.235
60827SOL     OW84312   2.995   4.898   5.718
60827SOL    HW184313   2.937   4.916   5.792
60827SOL    HW284314   3.034   4.983   5.696
60828SOL     OW84315   3.416   4.012   0.407
60828SOL    HW184316   3.377   4.040   0.490
60828SOL    HW284317   3.367   4.061   0.340
60829SOL     OW84318   2.768   5.247   9.134
60829SOL    HW184319   2.778   5.156   9.106
60829SOL    HW284320   2.849   5.266   9.182
60830SOL     OW84321   1.005  13.009   5.143
60830SOL    HW184322   1.007  12.969   5.230
60830SOL    HW284323   0.927  12.973   5.102
60831SOL     OW84324  10.464   2.346   8.395
60831SOL    HW184325  10.369   2.360   8.400
60831SOL    HW284326  10.476   2.285   8.323
60832SOL     OW84327  13.286   9.610   5.924
60832SOL    HW184328  13.265   9.628   5.833
60832SOL    HW284329  13.318   9.693   5.959
60833SOL     OW84330  14.082  14.074  14.064
60833SOL    HW184331  14.109  14.013  13.995
60833SOL    HW284332  14.126  14.041  14.143
60834SOL     OW84333   4.084   2.481   0.154
60834SOL    HW184334   4.040   2.414   0.207
60834SOL    HW284335   4.048   2.469   0.066
60835SOL     OW84336  11.667   9.229  12.544
60835SOL    HW184337  11.593   9.170  12.559
60835SOL    HW284338  11.722   9.183  12.481
60836SOL     OW84339  13.087   4.995   7.172
60836SOL    HW184340  13.056   5.065   7.229
60836SOL    HW284341  13.115   4.926   7.233
60837SOL     OW84342  12.773   7.659   6.903
60837SOL    HW184343  12.829   7.733   6.926
60837SOL    HW284344  12.720   7.644   6.981
60838SOL     OW84345  10.452  11.554  11.817
60838SOL    HW184346  10.535  11.574  11.773
60838SOL    HW284347  10.466  11.584  11.907
60839SOL     OW84348   8.398  11.190  13.795
60839SOL    HW184349   8.468  11.245  13.760
60839SOL    HW284350   8.336  11.252  13.835
60840SOL     OW84351   8.600  13.501  13.238
60840SOL    HW184352   8.560  13.417  13.213
60840SOL    HW284353   8.553  13.528  13.317
60841SOL     OW84354  10.425   3.528   2.096
60841SOL    HW184355  10.338   3.491   2.083
60841SOL    HW284356  10.428   3.548   2.190
60842SOL     OW84357   9.667   3.507  13.859
60842SOL    HW184358   9.706   3.451  13.926
60842SOL    HW284359   9.680   3.460  13.777
60843SOL     OW84360   4.577   9.844  10.185
60843SOL    HW184361   4.667   9.812  10.192
60843SOL    HW284362   4.585   9.932  10.149
60844SOL     OW84363   9.868   1.804  13.042
60844SOL    HW184364   9.775   1.808  13.018
60844SOL    HW284365   9.869   1.814  13.137
60845SOL     OW84366   5.417   9.022   2.659
60845SOL    HW184367   5.398   8.999   2.568
60845SOL    HW284368   5.333   9.011   2.705
60846SOL     OW84369   9.642   4.713   5.148
60846SOL    HW184370   9.690   4.796   5.143
60846SOL    HW284371   9.579   4.726   5.219
60847SOL     OW84372   7.594   6.309  14.553
60847SOL    HW184373   7.525   6.249  14.580
60847SOL    HW284374   7.554   6.396  14.555
60848SOL     OW84375  11.389   7.331   3.685
60848SOL    HW184376  11.344   7.370   3.760
60848SOL    HW284377  11.351   7.375   3.609
60849SOL     OW84378   1.100   7.095   0.235
60849SOL    HW184379   1.137   7.107   0.147
60849SOL    HW284380   1.012   7.133   0.229
60850SOL     OW84381  12.977  13.325   7.335
60850SOL    HW184382  13.021  13.261   7.279
60850SOL    HW284383  13.035  13.401   7.335
60851SOL     OW84384   1.760  11.719   1.724
60851SOL    HW184385   1.727  11.670   1.649
60851SOL    HW284386   1.691  11.713   1.790
60852SOL     OW84387   7.086   3.235   4.718
60852SOL    HW184388   7.117   3.317   4.680
60852SOL    HW284389   7.034   3.194   4.647
60853SOL     OW84390   1.961  10.929  11.598
60853SOL    HW184391   2.007  10.890  11.672
60853SOL    HW284392   2.002  10.890  11.521
60854SOL     OW84393   6.089   0.996   8.871
60854SOL    HW184394   6.035   0.932   8.918
60854SOL    HW284395   6.036   1.076   8.872
60855SOL     OW84396  10.704  11.829   9.421
60855SOL    HW184397  10.735  11.895   9.483
60855SOL    HW284398  10.610  11.846   9.414
60856SOL     OW84399   7.925   1.206   1.339
60856SOL    HW184400   7.979   1.164   1.272
60856SOL    HW284401   7.988   1.239   1.404
60857SOL     OW84402   1.303   5.859  14.500
60857SOL    HW184403   1.365   5.911  14.551
60857SOL    HW284404   1.227   5.849  14.557
60858SOL     OW84405  13.311   7.367   9.084
60858SOL    HW184406  13.307   7.419   9.003
60858SOL    HW284407  13.354   7.285   9.057
60859SOL     OW84408  10.918   5.072   1.253
60859SOL    HW184409  10.904   5.063   1.347
60859SOL    HW284410  10.858   5.142   1.226
60860SOL     OW84411   7.978   3.848   3.750
60860SOL    HW184412   7.944   3.863   3.838
60860SOL    HW284413   8.049   3.912   3.740
60861SOL     OW84414   0.176   1.359  11.297
60861SOL    HW184415   0.240   1.319  11.356
60861SOL    HW284416   0.095   1.311  11.314
60862SOL     OW84417   7.508   5.190   7.565
60862SOL    HW184418   7.416   5.196   7.589
60862SOL    HW284419   7.512   5.224   7.475
60863SOL     OW84420  12.297   2.231   2.188
60863SOL    HW184421  12.328   2.185   2.110
60863SOL    HW284422  12.276   2.319   2.158
60864SOL     OW84423   4.932  13.186  14.771
60864SOL    HW184424   4.848  13.218  14.802
60864SOL    HW284425   4.914  13.098  14.738
60865SOL     OW84426   6.326  14.557  11.044
60865SOL    HW184427   6.403  14.601  11.080
60865SOL    HW284428   6.255  14.581  11.103
60866SOL     OW84429   5.479   4.314   3.923
60866SOL    HW184430   5.439   4.401   3.929
60866SOL    HW284431   5.544   4.313   3.994
60867SOL     OW84432   6.802   6.721  13.419
60867SOL    HW184433   6.856   6.762  13.486
60867SOL    HW284434   6.772   6.640  13.459
60868SOL     OW84435   9.613   1.280  11.776
60868SOL    HW184436   9.686   1.289  11.716
60868SOL    HW284437   9.638   1.207  11.834
60869SOL     OW84438  11.131  10.569   2.737
60869SOL    HW184439  11.054  10.606   2.693
60869SOL    HW284440  11.206  10.605   2.688
60870SOL     OW84441   0.758   1.012   9.429
60870SOL    HW184442   0.748   1.028   9.335
60870SOL    HW284443   0.717   0.927   9.444
60871SOL     OW84444   4.206   8.091   4.459
60871SOL    HW184445   4.271   8.027   4.432
60871SOL    HW284446   4.231   8.171   4.412
60872SOL     OW84447   3.681   8.305  14.678
60872SOL    HW184448   3.707   8.396  14.663
60872SOL    HW284449   3.764   8.256  14.681
60873SOL     OW84450  14.170   1.133  10.271
60873SOL    HW184451  14.166   1.101  10.181
60873SOL    HW284452  14.090   1.100  10.311
60874SOL     OW84453   0.531  14.024   9.118
60874SOL    HW184454   0.602  14.072   9.162
60874SOL    HW284455   0.556  14.023   9.026
60875SOL     OW84456   4.194   7.866   5.313
60875SOL    HW184457   4.236   7.846   5.396
60875SOL    HW284458   4.258   7.920   5.266
60876SOL     OW84459  13.090   4.824  13.191
60876SOL    HW184460  13.014   4.766  13.193
60876SOL    HW284461  13.075   4.886  13.262
60877SOL     OW84462   3.572   1.250  12.261
60877SOL    HW184463   3.508   1.180  12.270
60877SOL    HW284464   3.651   1.207  12.229
60878SOL     OW84465   1.054   8.090   8.019
60878SOL    HW184466   1.084   8.112   7.931
60878SOL    HW284467   1.097   8.154   8.076
60879SOL     OW84468   0.803   1.394  14.411
60879SOL    HW184469   0.748   1.398  14.333
60879SOL    HW284470   0.758   1.449  14.475
60880SOL     OW84471  14.717  14.557  13.317
60880SOL    HW184472  14.625  14.546  13.343
60880SOL    HW284473  14.767  14.547  13.398
60881SOL     OW84474  13.559   4.169  13.460
60881SOL    HW184475  13.501   4.147  13.387
60881SOL    HW284476  13.505   4.223  13.518
60882SOL     OW84477   0.032  11.219   0.694
60882SOL    HW184478  14.833  11.268   0.709
60882SOL    HW284479   0.002  11.130   0.674
60883SOL     OW84480   5.841  10.036   9.930
60883SOL    HW184481   5.777   9.971   9.959
60883SOL    HW284482   5.834  10.034   9.834
60884SOL     OW84483   5.511  12.674   0.385
60884SOL    HW184484   5.514  12.586   0.423
60884SOL    HW284485   5.559  12.667   0.303
60885SOL     OW84486  10.471  13.910  10.015
60885SOL    HW184487  10.522  13.852  10.072
60885SOL    HW284488  10.432  13.852   9.950
60886SOL     OW84489   6.072   6.897   3.704
60886SOL    HW184490   6.128   6.879   3.780
60886SOL    HW284491   6.120   6.860   3.629
60887SOL     OW84492   3.123  13.610  13.485
60887SOL    HW184493   3.195  13.611  13.548
60887SOL    HW284494   3.163  13.582  13.403
60888SOL     OW84495   1.863   4.429  10.959
60888SOL    HW184496   1.892   4.338  10.962
60888SOL    HW284497   1.929   4.474  10.906
60889SOL     OW84498  11.929   3.528  10.407
60889SOL    HW184499  11.991   3.516  10.479
60889SOL    HW284500  11.853   3.571  10.446
60890SOL     OW84501   4.272  12.465   2.171
60890SOL    HW184502   4.215  12.436   2.100
60890SOL    HW284503   4.212  12.500   2.237
60891SOL     OW84504  10.503   7.907   1.577
60891SOL    HW184505  10.428   7.881   1.524
60891SOL    HW284506  10.495   7.854   1.657
60892SOL     OW84507   4.961   0.849   1.846
60892SOL    HW184508   4.948   0.787   1.918
60892SOL    HW284509   5.057   0.855   1.837
60893SOL     OW84510   6.561  13.055  14.510
60893SOL    HW184511   6.542  12.994  14.439
60893SOL    HW284512   6.560  13.001  14.589
60894SOL     OW84513   2.191   4.480  14.586
60894SOL    HW184514   2.206   4.433  14.504
60894SOL    HW284515   2.172   4.411  14.650
60895SOL     OW84516   7.267   6.617   1.584
60895SOL    HW184517   7.263   6.521   1.586
60895SOL    HW284518   7.350   6.638   1.627
60896SOL     OW84519   4.328   8.716   7.987
60896SOL    HW184520   4.389   8.691   7.918
60896SOL    HW284521   4.335   8.812   7.991
60897SOL     OW84522  12.565  13.484   9.337
60897SOL    HW184523  12.495  13.437   9.293
60897SOL    HW284524  12.529  13.571   9.353
60898SOL     OW84525  13.525  10.803   2.742
60898SOL    HW184526  13.525  10.865   2.670
60898SOL    HW284527  13.617  10.790   2.763
60899SOL     OW84528  10.143  10.167   4.973
60899SOL    HW184529  10.121  10.157   5.065
60899SOL    HW284530  10.154  10.261   4.960
60900SOL     OW84531  10.342   7.146   0.739
60900SOL    HW184532  10.436   7.141   0.754
60900SOL    HW284533  10.310   7.058   0.761
60901SOL     OW84534   7.866   5.190   5.688
60901SOL    HW184535   7.939   5.144   5.646
60901SOL    HW284536   7.805   5.121   5.711
60902SOL     OW84537   5.124   8.771   2.214
60902SOL    HW184538   5.193   8.831   2.185
60902SOL    HW284539   5.145   8.688   2.171
60903SOL     OW84540   5.877   3.128  11.459
60903SOL    HW184541   5.886   3.068  11.533
60903SOL    HW284542   5.825   3.080  11.394
60904SOL     OW84543   8.728   6.956  11.874
60904SOL    HW184544   8.662   6.886  11.880
60904SOL    HW284545   8.781   6.945  11.953
60905SOL     OW84546   8.242   6.656  10.193
60905SOL    HW184547   8.316   6.684  10.139
60905SOL    HW284548   8.229   6.727  10.255
60906SOL     OW84549   1.092   4.133  10.984
60906SOL    HW184550   1.012   4.151  10.935
60906SOL    HW284551   1.084   4.042  11.011
60907SOL     OW84552  11.843   3.637  14.722
60907SOL    HW184553  11.907   3.654  14.653
60907SOL    HW284554  11.828   3.542  14.718
60908SOL     OW84555   5.327   7.467   5.824
60908SOL    HW184556   5.376   7.549   5.831
60908SOL    HW284557   5.384   7.410   5.773
60909SOL     OW84558   4.510   9.040   6.619
60909SOL    HW184559   4.429   9.071   6.578
60909SOL    HW284560   4.576   9.104   6.592
60910SOL     OW84561   4.673  12.987   3.023
60910SOL    HW184562   4.640  12.902   2.993
60910SOL    HW284563   4.637  13.050   2.960
60911SOL     OW84564   2.490   5.181  11.112
60911SOL    HW184565   2.543   5.253  11.077
60911SOL    HW284566   2.550   5.106  11.112
60912SOL     OW84567   9.882   8.392  13.242
60912SOL    HW184568   9.925   8.475  13.265
60912SOL    HW284569   9.791   8.417  13.224
60913SOL     OW84570   4.137   7.362   3.903
60913SOL    HW184571   4.095   7.316   3.830
60913SOL    HW284572   4.136   7.454   3.876
60914SOL     OW84573   5.135   0.833  13.294
60914SOL    HW184574   5.048   0.792  13.295
60914SOL    HW284575   5.170   0.812  13.207
60915SOL     OW84576   9.651  13.608   2.871
60915SOL    HW184577   9.625  13.523   2.907
60915SOL    HW284578   9.661  13.665   2.947
60916SOL     OW84579   0.804  11.000   5.750
60916SOL    HW184580   0.788  10.931   5.814
60916SOL    HW284581   0.823  11.078   5.803
60917SOL     OW84582  11.825  10.778   1.315
60917SOL    HW184583  11.791  10.853   1.364
60917SOL    HW284584  11.849  10.814   1.229
60918SOL     OW84585   3.831  12.366   1.846
60918SOL    HW184586   3.906  12.385   1.903
60918SOL    HW284587   3.825  12.442   1.789
60919SOL     OW84588   8.010   1.054   6.973
60919SOL    HW184589   8.030   0.984   6.911
60919SOL    HW284590   8.051   1.025   7.055
60920SOL     OW84591   1.488  12.823   4.239
60920SOL    HW184592   1.477  12.917   4.252
60920SOL    HW284593   1.552  12.797   4.306
60921SOL     OW84594   7.330  10.432   4.967
60921SOL    HW184595   7.333  10.432   4.871
60921SOL    HW284596   7.345  10.341   4.991
60922SOL     OW84597  10.421  12.598   8.095
60922SOL    HW184598  10.381  12.524   8.050
60922SOL    HW284599  10.428  12.571   8.186
60923SOL     OW84600  10.427  14.088   7.353
60923SOL    HW184601  10.490  14.094   7.281
60923SOL    HW284602  10.361  14.026   7.321
60924SOL     OW84603   1.899   7.288   2.166
60924SOL    HW184604   1.884   7.313   2.257
60924SOL    HW284605   1.993   7.303   2.153
60925SOL     OW84606   3.317  13.079   9.068
60925SOL    HW184607   3.388  13.070   9.132
60925SOL    HW284608   3.279  12.991   9.063
60926SOL     OW84609   2.028   9.564   3.840
60926SOL    HW184610   2.011   9.545   3.933
60926SOL    HW284611   2.038   9.660   3.837
60927SOL     OW84612   7.052   1.467   9.348
60927SOL    HW184613   7.070   1.521   9.425
60927SOL    HW284614   7.030   1.381   9.384
60928SOL     OW84615   2.715   6.078   9.510
60928SOL    HW184616   2.678   6.165   9.529
60928SOL    HW284617   2.649   6.037   9.454
60929SOL     OW84618   2.217  10.855  10.263
60929SOL    HW184619   2.233  10.821  10.351
60929SOL    HW284620   2.127  10.889  10.267
60930SOL     OW84621  14.462  10.190  11.490
60930SOL    HW184622  14.510  10.178  11.408
60930SOL    HW284623  14.370  10.195  11.464
60931SOL     OW84624   2.829   3.042   8.342
60931SOL    HW184625   2.889   3.099   8.295
60931SOL    HW284626   2.757   3.099   8.369
60932SOL     OW84627   6.563   1.130  12.775
60932SOL    HW184628   6.535   1.120  12.684
60932SOL    HW284629   6.498   1.080  12.825
60933SOL     OW84630  11.521   0.054   3.507
60933SOL    HW184631  11.573  14.857   3.520
60933SOL    HW284632  11.447   0.026   3.454
60934SOL     OW84633   2.293   2.594  12.125
60934SOL    HW184634   2.273   2.581  12.218
60934SOL    HW284635   2.225   2.544  12.079
60935SOL     OW84636   2.480   0.627   2.204
60935SOL    HW184637   2.532   0.691   2.157
60935SOL    HW284638   2.428   0.679   2.266
60936SOL     OW84639  13.276   5.682   3.731
60936SOL    HW184640  13.352   5.626   3.743
60936SOL    HW284641  13.202   5.622   3.724
60937SOL     OW84642   6.501   0.815   5.931
60937SOL    HW184643   6.413   0.779   5.944
60937SOL    HW284644   6.541   0.758   5.866
60938SOL     OW84645  11.276   3.587   1.134
60938SOL    HW184646  11.270   3.679   1.160
60938SOL    HW284647  11.335   3.587   1.059
60939SOL     OW84648  11.371   4.216   3.712
60939SOL    HW184649  11.284   4.192   3.681
60939SOL    HW284650  11.380   4.169   3.796
60940SOL     OW84651   2.622  14.721  14.503
60940SOL    HW184652   2.710  14.684  14.511
60940SOL    HW284653   2.600  14.751  14.591
60941SOL     OW84654   4.109   4.070   2.965
60941SOL    HW184655   4.143   4.121   2.891
60941SOL    HW284656   4.072   4.136   3.024
60942SOL     OW84657   7.764   6.090   1.487
60942SOL    HW184658   7.834   6.064   1.547
60942SOL    HW284659   7.739   6.177   1.516
60943SOL     OW84660  13.514   1.571  11.477
60943SOL    HW184661  13.490   1.482  11.505
60943SOL    HW284662  13.476   1.580  11.390
60944SOL     OW84663   4.519   1.725   0.592
60944SOL    HW184664   4.609   1.709   0.620
60944SOL    HW284665   4.469   1.654   0.632
60945SOL     OW84666  14.585   5.572  10.798
60945SOL    HW184667  14.574   5.482  10.828
60945SOL    HW284668  14.521   5.622  10.848
60946SOL     OW84669   5.424   4.744   3.306
60946SOL    HW184670   5.442   4.751   3.400
60946SOL    HW284671   5.509   4.734   3.265
60947SOL     OW84672  11.467  10.596   5.905
60947SOL    HW184673  11.376  10.593   5.937
60947SOL    HW284674  11.505  10.672   5.948
60948SOL     OW84675   7.204   7.032  10.971
60948SOL    HW184676   7.241   7.017  11.058
60948SOL    HW284677   7.128   6.973  10.967
60949SOL     OW84678   3.909  11.290  10.777
60949SOL    HW184679   3.927  11.208  10.823
60949SOL    HW284680   3.813  11.298  10.779
60950SOL     OW84681  12.494   9.282   1.614
60950SOL    HW184682  12.521   9.263   1.703
60950SOL    HW284683  12.574   9.280   1.563
60951SOL     OW84684  13.758  13.632   4.951
60951SOL    HW184685  13.686  13.651   4.890
60951SOL    HW284686  13.835  13.671   4.910
60952SOL     OW84687   5.840   6.666  14.171
60952SOL    HW184688   5.811   6.578  14.196
60952SOL    HW284689   5.902   6.651  14.099
60953SOL     OW84690   9.697   4.092   5.415
60953SOL    HW184691   9.763   4.066   5.479
60953SOL    HW284692   9.648   4.163   5.458
60954SOL     OW84693  11.096   7.686  13.117
60954SOL    HW184694  11.048   7.763  13.085
60954SOL    HW284695  11.172   7.679  13.059
60955SOL     OW84696  11.097   8.334   9.398
60955SOL    HW184697  11.158   8.261   9.388
60955SOL    HW284698  11.064   8.350   9.310
60956SOL     OW84699   8.800   3.087   6.413
60956SOL    HW184700   8.852   3.103   6.492
60956SOL    HW284701   8.839   3.143   6.347
60957SOL     OW84702  13.691  11.713   2.650
60957SOL    HW184703  13.742  11.734   2.728
60957SOL    HW284704  13.755  11.712   2.578
60958SOL     OW84705  10.401  10.933   1.185
60958SOL    HW184706  10.463  10.963   1.252
60958SOL    HW284707  10.315  10.942   1.227
60959SOL     OW84708   0.456   4.569   8.491
60959SOL    HW184709   0.461   4.635   8.423
60959SOL    HW284710   0.509   4.496   8.458
60960SOL     OW84711   5.848  10.754   9.341
60960SOL    HW184712   5.917  10.725   9.281
60960SOL    HW284713   5.894  10.784   9.419
60961SOL     OW84714  14.486   8.057   1.019
60961SOL    HW184715  14.437   7.996   1.075
60961SOL    HW284716  14.457   8.036   0.930
60962SOL     OW84717   6.807   1.283   4.641
60962SOL    HW184718   6.773   1.265   4.553
60962SOL    HW284719   6.867   1.357   4.629
60963SOL     OW84720  13.979  11.191   1.989
60963SOL    HW184721  14.022  11.245   2.054
60963SOL    HW284722  13.923  11.251   1.940
60964SOL     OW84723  11.767  13.308   5.809
60964SOL    HW184724  11.752  13.340   5.898
60964SOL    HW284725  11.712  13.363   5.754
60965SOL     OW84726  13.362   8.382  13.787
60965SOL    HW184727  13.415   8.395  13.708
60965SOL    HW284728  13.358   8.287  13.797
60966SOL     OW84729   0.942   7.335   4.535
60966SOL    HW184730   0.873   7.288   4.489
60966SOL    HW284731   1.018   7.278   4.530
60967SOL     OW84732   9.219   3.345   9.146
60967SOL    HW184733   9.174   3.410   9.200
60967SOL    HW284734   9.299   3.390   9.117
60968SOL     OW84735  10.091  13.190  12.360
60968SOL    HW184736  10.132  13.199  12.445
60968SOL    HW284737  10.002  13.159  12.379
60969SOL     OW84738   4.337   1.758   2.874
60969SOL    HW184739   4.251   1.730   2.843
60969SOL    HW284740   4.359   1.696   2.943
60970SOL     OW84741   3.148   3.788   9.600
60970SOL    HW184742   3.198   3.709   9.622
60970SOL    HW284743   3.109   3.769   9.515
60971SOL     OW84744   7.377   9.689   5.561
60971SOL    HW184745   7.310   9.718   5.623
60971SOL    HW284746   7.394   9.598   5.585
60972SOL     OW84747  13.391  14.437   6.169
60972SOL    HW184748  13.374  14.343   6.174
60972SOL    HW284749  13.382  14.467   6.260
60973SOL     OW84750  12.582   2.721   0.477
60973SOL    HW184751  12.584   2.777   0.399
60973SOL    HW284752  12.585   2.782   0.551
60974SOL     OW84753   9.836   6.989   3.390
60974SOL    HW184754   9.790   7.062   3.432
60974SOL    HW284755   9.785   6.971   3.311
60975SOL     OW84756   6.665   3.070   2.235
60975SOL    HW184757   6.741   3.097   2.287
60975SOL    HW284758   6.605   3.144   2.239
60976SOL     OW84759  12.403  10.552   9.150
60976SOL    HW184760  12.430  10.632   9.196
60976SOL    HW284761  12.375  10.493   9.220
60977SOL     OW84762  13.872  12.599  11.643
60977SOL    HW184763  13.918  12.540  11.703
60977SOL    HW284764  13.940  12.633  11.585
60978SOL     OW84765   8.206  14.807   3.639
60978SOL    HW184766   8.272  14.790   3.572
60978SOL    HW284767   8.122  14.794   3.594
60979SOL     OW84768  10.435   7.691  10.813
60979SOL    HW184769  10.361   7.642  10.777
60979SOL    HW284770  10.473   7.735  10.737
60980SOL     OW84771   2.686   3.138   5.201
60980SOL    HW184772   2.676   3.044   5.218
60980SOL    HW284773   2.716   3.142   5.110
60981SOL     OW84774   4.193   2.130   0.008
60981SOL    HW184775   4.219   2.213   0.047
60981SOL    HW284776   4.275   2.091  14.860
60982SOL     OW84777  14.871   6.012  12.580
60982SOL    HW184778  14.805   5.969  12.636
60982SOL    HW284779   0.012   6.091  12.628
60983SOL     OW84780  12.678   1.152   7.340
60983SOL    HW184781  12.683   1.206   7.419
60983SOL    HW284782  12.611   1.195   7.286
60984SOL     OW84783   0.724  11.917   2.477
60984SOL    HW184784   0.637  11.944   2.448
60984SOL    HW284785   0.749  11.982   2.542
60985SOL     OW84786   4.516  10.788  13.245
60985SOL    HW184787   4.536  10.729  13.317
60985SOL    HW284788   4.461  10.736  13.186
60986SOL     OW84789   8.731  10.695  10.092
60986SOL    HW184790   8.776  10.640  10.027
60986SOL    HW284791   8.785  10.689  10.170
60987SOL     OW84792  14.292  10.178  14.026
60987SOL    HW184793  14.373  10.224  14.003
60987SOL    HW284794  14.237  10.245  14.066
60988SOL     OW84795   2.041   4.555  11.132
60988SOL    HW184796   1.971   4.502  11.095
60988SOL    HW284797   2.017   4.565  11.224
60989SOL     OW84798   7.683   0.498   6.467
60989SOL    HW184799   7.650   0.516   6.556
60989SOL    HW284800   7.749   0.430   6.479
60990SOL     OW84801   3.266   0.311  13.944
60990SOL    HW184802   3.204   0.256  13.897
60990SOL    HW284803   3.351   0.270  13.927
60991SOL     OW84804   6.769  13.923   1.197
60991SOL    HW184805   6.680  13.900   1.226
60991SOL    HW284806   6.756  13.974   1.117
60992SOL     OW84807   2.042   7.035   6.195
60992SOL    HW184808   1.990   7.105   6.155
60992SOL    HW284809   2.111   7.018   6.131
60993SOL     OW84810   1.223  10.374   2.844
60993SOL    HW184811   1.130  10.397   2.843
60993SOL    HW284812   1.227  10.292   2.895
60994SOL     OW84813  12.115   2.599   3.682
60994SOL    HW184814  12.161   2.652   3.617
60994SOL    HW284815  12.179   2.589   3.753
60995SOL     OW84816   0.483   2.312   1.206
60995SOL    HW184817   0.520   2.332   1.292
60995SOL    HW284818   0.505   2.389   1.153
60996SOL     OW84819   0.893  10.547   9.458
60996SOL    HW184820   0.936  10.570   9.376
60996SOL    HW284821   0.941  10.596   9.525
60997SOL     OW84822   6.636  10.047   0.299
60997SOL    HW184823   6.627  10.113   0.368
60997SOL    HW284824   6.561  10.062   0.241
60998SOL     OW84825  13.480   2.795  13.868
60998SOL    HW184826  13.391   2.822  13.844
60998SOL    HW284827  13.489   2.819  13.960
60999SOL     OW84828  11.855   1.929   6.550
60999SOL    HW184829  11.866   1.951   6.643
60999SOL    HW284830  11.873   2.011   6.504
61000SOL     OW84831   9.475   2.804  11.549
61000SOL    HW184832   9.511   2.890  11.525
61000SOL    HW284833   9.398   2.824  11.601
61001SOL     OW84834   5.932   5.535   9.993
61001SOL    HW184835   5.866   5.591   9.952
61001SOL    HW284836   5.894   5.514  10.079
61002SOL     OW84837   1.607   8.460   4.126
61002SOL    HW184838   1.639   8.536   4.077
61002SOL    HW284839   1.628   8.481   4.217
61003SOL     OW84840   4.358   7.264  14.881
61003SOL    HW184841   4.450   7.240   0.014
61003SOL    HW284842   4.348   7.347   0.046
61004SOL     OW84843   6.097  12.250   9.359
61004SOL    HW184844   6.114  12.157   9.375
61004SOL    HW284845   6.180  12.293   9.379
61005SOL     OW84846   5.567   5.161   3.259
61005SOL    HW184847   5.543   5.144   3.168
61005SOL    HW284848   5.637   5.226   3.255
61006SOL     OW84849  11.861  14.128  10.826
61006SOL    HW184850  11.911  14.196  10.871
61006SOL    HW284851  11.797  14.099  10.890
61007SOL     OW84852   6.649   5.310   4.223
61007SOL    HW184853   6.631   5.351   4.139
61007SOL    HW284854   6.601   5.228   4.221
61008SOL     OW84855   0.318   0.471  11.910
61008SOL    HW184856   0.287   0.393  11.957
61008SOL    HW284857   0.411   0.477  11.934
61009SOL     OW84858   4.207   7.007   3.161
61009SOL    HW184859   4.238   6.918   3.146
61009SOL    HW284860   4.285   7.061   3.154
61010SOL     OW84861   5.800   5.189   1.706
61010SOL    HW184862   5.814   5.097   1.685
61010SOL    HW284863   5.882   5.218   1.746
61011SOL     OW84864  14.217   8.990   4.981
61011SOL    HW184865  14.275   9.037   4.921
61011SOL    HW284866  14.239   9.027   5.067
61012SOL     OW84867   6.735   8.705   2.209
61012SOL    HW184868   6.651   8.667   2.235
61012SOL    HW284869   6.784   8.712   2.291
61013SOL     OW84870   8.262   3.920  12.847
61013SOL    HW184871   8.275   3.949  12.937
61013SOL    HW284872   8.208   3.842  12.855
61014SOL     OW84873   6.961   7.643  11.870
61014SOL    HW184874   6.988   7.561  11.912
61014SOL    HW284875   6.866   7.644  11.878
61015SOL     OW84876   2.385   9.253   2.205
61015SOL    HW184877   2.305   9.219   2.166
61015SOL    HW284878   2.358   9.333   2.250
61016SOL     OW84879  10.965  14.247  12.443
61016SOL    HW184880  11.006  14.268  12.527
61016SOL    HW284881  11.029  14.276  12.378
61017SOL     OW84882   4.062   1.523  14.145
61017SOL    HW184883   4.148   1.558  14.123
61017SOL    HW284884   4.077   1.468  14.222
61018SOL     OW84885   0.047  13.471  13.257
61018SOL    HW184886  14.879  13.544  13.296
61018SOL    HW284887   0.005  13.392  13.291
61019SOL     OW84888   3.542   6.201   9.594
61019SOL    HW184889   3.501   6.260   9.657
61019SOL    HW284890   3.470   6.174   9.537
61020SOL     OW84891   4.321   3.973  14.344
61020SOL    HW184892   4.292   3.888  14.376
61020SOL    HW284893   4.244   4.011  14.302
61021SOL     OW84894   7.540   5.914  10.487
61021SOL    HW184895   7.534   5.890  10.579
61021SOL    HW284896   7.573   6.004  10.488
61022SOL     OW84897   2.112   3.839  13.248
61022SOL    HW184898   2.073   3.804  13.328
61022SOL    HW284899   2.191   3.885  13.277
61023SOL     OW84900   1.374  12.747  11.375
61023SOL    HW184901   1.342  12.695  11.449
61023SOL    HW284902   1.307  12.815  11.362
61024SOL     OW84903   2.737   5.281  14.277
61024SOL    HW184904   2.767   5.191  14.287
61024SOL    HW284905   2.738   5.296  14.183
61025SOL     OW84906   0.277   6.402   3.321
61025SOL    HW184907   0.268   6.359   3.406
61025SOL    HW284908   0.187   6.417   3.292
61026SOL     OW84909   5.266  14.674   0.287
61026SOL    HW184910   5.348  14.652   0.331
61026SOL    HW284911   5.292  14.727   0.212
61027SOL     OW84912   5.364  12.685  10.757
61027SOL    HW184913   5.390  12.762  10.706
61027SOL    HW284914   5.349  12.720  10.845
61028SOL     OW84915   6.239  11.609   0.607
61028SOL    HW184916   6.221  11.608   0.513
61028SOL    HW284917   6.283  11.525   0.623
61029SOL     OW84918   8.477   6.762   1.984
61029SOL    HW184919   8.548   6.806   2.032
61029SOL    HW284920   8.399   6.813   2.003
61030SOL     OW84921   2.148   0.212   3.878
61030SOL    HW184922   2.217   0.182   3.819
61030SOL    HW284923   2.108   0.286   3.833
61031SOL     OW84924   0.409   8.021   3.705
61031SOL    HW184925   0.358   8.006   3.625
61031SOL    HW284926   0.493   8.054   3.674
61032SOL     OW84927   4.999  14.642   4.574
61032SOL    HW184928   4.914  14.615   4.608
61032SOL    HW284929   5.051  14.562   4.575
61033SOL     OW84930   6.047   5.635  13.707
61033SOL    HW184931   6.041   5.706  13.771
61033SOL    HW284932   6.013   5.673  13.626
61034SOL     OW84933  11.283  13.023   6.367
61034SOL    HW184934  11.325  13.092   6.419
61034SOL    HW284935  11.272  13.061   6.280
61035SOL     OW84936   3.402  11.564   4.147
61035SOL    HW184937   3.380  11.509   4.222
61035SOL    HW284938   3.384  11.509   4.071
61036SOL     OW84939   1.145   6.564   6.069
61036SOL    HW184940   1.096   6.629   6.019
61036SOL    HW284941   1.121   6.480   6.029
61037SOL     OW84942   0.493   7.861   0.751
61037SOL    HW184943   0.578   7.905   0.749
61037SOL    HW284944   0.482   7.836   0.843
61038SOL     OW84945   0.199   6.388   4.019
61038SOL    HW184946   0.106   6.404   4.029
61038SOL    HW284947   0.206   6.294   4.001
61039SOL     OW84948   3.000   8.232  13.336
61039SOL    HW184949   3.064   8.291  13.297
61039SOL    HW284950   2.950   8.287  13.396
61040SOL     OW84951   6.755   5.449   9.706
61040SOL    HW184952   6.736   5.387   9.635
61040SOL    HW284953   6.798   5.396   9.773
61041SOL     OW84954   8.801   0.966  13.678
61041SOL    HW184955   8.860   1.014  13.620
61041SOL    HW284956   8.759   0.901  13.621
61042SOL     OW84957   1.020   6.391   5.503
61042SOL    HW184958   1.023   6.393   5.599
61042SOL    HW284959   0.979   6.474   5.479
61043SOL     OW84960  11.991   0.134   7.363
61043SOL    HW184961  12.025   0.049   7.338
61043SOL    HW284962  12.063   0.176   7.411
61044SOL     OW84963   0.304   8.492   5.300
61044SOL    HW184964   0.367   8.552   5.339
61044SOL    HW284965   0.226   8.545   5.287
61045SOL     OW84966   4.225   0.062   1.201
61045SOL    HW184967   4.207   0.114   1.123
61045SOL    HW284968   4.139   0.040   1.236
61046SOL     OW84969   3.804   8.373   7.597
61046SOL    HW184970   3.716   8.342   7.615
61046SOL    HW284971   3.803   8.396   7.504
61047SOL     OW84972   5.124  14.843  10.411
61047SOL    HW184973   5.046  14.788  10.407
61047SOL    HW284974   5.181  14.797  10.474
61048SOL     OW84975   3.457   2.723   1.903
61048SOL    HW184976   3.475   2.667   1.978
61048SOL    HW284977   3.539   2.724   1.854
61049SOL     OW84978   8.472   5.029  12.151
61049SOL    HW184979   8.554   5.029  12.101
61049SOL    HW284980   8.464   4.940  12.185
61050SOL     OW84981   5.186  14.294  11.749
61050SOL    HW184982   5.267  14.246  11.765
61050SOL    HW284983   5.135  14.283  11.829
61051SOL     OW84984   4.201  13.256   4.720
61051SOL    HW184985   4.131  13.306   4.762
61051SOL    HW284986   4.238  13.201   4.789
61052SOL     OW84987  12.296  10.643  14.421
61052SOL    HW184988  12.366  10.655  14.357
61052SOL    HW284989  12.259  10.730  14.432
61053SOL     OW84990   3.011   8.642   1.680
61053SOL    HW184991   2.991   8.719   1.734
61053SOL    HW284992   3.052   8.581   1.741
61054SOL     OW84993   7.931  14.569   6.036
61054SOL    HW184994   8.026  14.562   6.031
61054SOL    HW284995   7.899  14.522   5.959
61055SOL     OW84996  12.465   0.547  12.205
61055SOL    HW184997  12.534   0.607  12.178
61055SOL    HW284998  12.469   0.547  12.300
61056SOL     OW84999   1.068   8.087  13.672
61056SOL    HW185000   1.138   8.133  13.626
61056SOL    HW285001   0.991   8.144  13.661
61057SOL     OW85002   7.823   7.756   6.514
61057SOL    HW185003   7.804   7.831   6.457
61057SOL    HW285004   7.911   7.729   6.487
61058SOL     OW85005  13.859   9.776   1.978
61058SOL    HW185006  13.853   9.871   1.965
61058SOL    HW285007  13.953   9.758   1.980
61059SOL     OW85008   5.410  10.585  10.544
61059SOL    HW185009   5.396  10.675  10.516
61059SOL    HW285010   5.393  10.586  10.638
61060SOL     OW85011   3.203   4.813   9.595
61060SOL    HW185012   3.289   4.831   9.558
61060SOL    HW285013   3.211   4.725   9.632
61061SOL     OW85014  11.008   8.500  10.827
61061SOL    HW185015  11.063   8.441  10.879
61061SOL    HW285016  11.019   8.470  10.737
61062SOL     OW85017   6.332   2.101   5.628
61062SOL    HW185018   6.281   2.173   5.665
61062SOL    HW285019   6.269   2.053   5.574
61063SOL     OW85020  10.666   5.139   9.762
61063SOL    HW185021  10.591   5.191   9.733
61063SOL    HW285022  10.711   5.196   9.825
61064SOL     OW85023   5.174   9.371  12.606
61064SOL    HW185024   5.082   9.376  12.578
61064SOL    HW285025   5.223   9.397  12.528
61065SOL     OW85026   8.111  11.271   3.549
61065SOL    HW185027   8.202  11.267   3.519
61065SOL    HW285028   8.110  11.219   3.629
61066SOL     OW85029  11.282  10.854   5.439
61066SOL    HW185030  11.231  10.910   5.381
61066SOL    HW285031  11.331  10.796   5.380
61067SOL     OW85032  13.801   1.692   9.072
61067SOL    HW185033  13.839   1.636   9.004
61067SOL    HW285034  13.717   1.651   9.093
61068SOL     OW85035   4.993   0.126   1.345
61068SOL    HW185036   4.976   0.035   1.369
61068SOL    HW285037   4.908   0.159   1.315
61069SOL     OW85038   6.719   5.638  10.260
61069SOL    HW185039   6.726   5.734  10.260
61069SOL    HW285040   6.738   5.613  10.350
61070SOL     OW85041  13.186  13.436   3.127
61070SOL    HW185042  13.199  13.430   3.032
61070SOL    HW285043  13.115  13.375   3.145
61071SOL     OW85044   2.487   2.698   2.461
61071SOL    HW185045   2.488   2.777   2.515
61071SOL    HW285046   2.438   2.722   2.382
61072SOL     OW85047   9.737  11.551   4.125
61072SOL    HW185048   9.671  11.599   4.175
61072SOL    HW285049   9.724  11.580   4.034
61073SOL     OW85050  13.951   1.170   4.899
61073SOL    HW185051  13.978   1.166   4.991
61073SOL    HW285052  13.871   1.222   4.900
61074SOL     OW85053  13.569   5.609   6.422
61074SOL    HW185054  13.601   5.556   6.495
61074SOL    HW285055  13.538   5.689   6.463
61075SOL     OW85056   5.070   9.292  11.717
61075SOL    HW185057   5.038   9.289  11.627
61075SOL    HW285058   5.073   9.200  11.745
61076SOL     OW85059   4.482   4.662   0.577
61076SOL    HW185060   4.526   4.578   0.592
61076SOL    HW285061   4.402   4.656   0.629
61077SOL     OW85062   6.084  12.652   1.905
61077SOL    HW185063   6.004  12.627   1.952
61077SOL    HW285064   6.155  12.618   1.959
61078SOL     OW85065   8.820   2.407   9.214
61078SOL    HW185066   8.740   2.357   9.227
61078SOL    HW285067   8.861   2.366   9.137
61079SOL     OW85068   0.434   2.416  14.875
61079SOL    HW185069   0.391   2.388   0.074
61079SOL    HW285070   0.363   2.426  14.812
61080SOL     OW85071   1.844   7.897   3.463
61080SOL    HW185072   1.910   7.889   3.394
61080SOL    HW285073   1.781   7.829   3.443
61081SOL     OW85074  13.292   5.346  13.500
61081SOL    HW185075  13.199   5.361  13.512
61081SOL    HW285076  13.311   5.378  13.411
61082SOL     OW85077   6.972  12.872   7.696
61082SOL    HW185078   6.919  12.845   7.771
61082SOL    HW285079   6.978  12.794   7.641
61083SOL     OW85080   7.088   1.044   9.332
61083SOL    HW185081   7.030   1.101   9.383
61083SOL    HW285082   7.028   0.990   9.281
61084SOL     OW85083   1.648  13.371   7.067
61084SOL    HW185084   1.662  13.292   7.016
61084SOL    HW285085   1.595  13.341   7.142
61085SOL     OW85086   0.830   8.277   8.696
61085SOL    HW185087   0.848   8.361   8.738
61085SOL    HW285088   0.747   8.292   8.650
61086SOL     OW85089   6.664   1.090  13.165
61086SOL    HW185090   6.695   1.101  13.076
61086SOL    HW285091   6.576   1.053  13.155
61087SOL     OW85092   6.952   3.713   9.633
61087SOL    HW185093   6.937   3.637   9.575
61087SOL    HW285094   6.910   3.688   9.715
61088SOL     OW85095   1.870  11.656   2.522
61088SOL    HW185096   1.926  11.652   2.600
61088SOL    HW285097   1.876  11.568   2.484
61089SOL     OW85098  13.441  10.831  12.851
61089SOL    HW185099  13.394  10.798  12.927
61089SOL    HW285100  13.527  10.790  12.857
61090SOL     OW85101  14.874   0.759  12.688
61090SOL    HW185102   0.064   0.740  12.627
61090SOL    HW285103   0.007   0.698  12.761
61091SOL     OW85104  12.035   2.161  11.969
61091SOL    HW185105  11.957   2.120  12.006
61091SOL    HW285106  12.071   2.215  12.040
61092SOL     OW85107  12.095   4.902   6.949
61092SOL    HW185108  12.007   4.867   6.933
61092SOL    HW285109  12.092   4.935   7.038
61093SOL     OW85110   0.072   2.744   9.080
61093SOL    HW185111   0.094   2.796   9.157
61093SOL    HW285112   0.107   2.657   9.099
61094SOL     OW85113   4.137  11.491  10.755
61094SOL    HW185114   4.163  11.405  10.723
61094SOL    HW285115   4.041  11.491  10.749
61095SOL     OW85116  13.955  11.841   5.798
61095SOL    HW185117  13.987  11.886   5.876
61095SOL    HW285118  14.006  11.878   5.726
61096SOL     OW85119   9.858   9.119   2.656
61096SOL    HW185120   9.954   9.109   2.656
61096SOL    HW285121   9.827   9.050   2.714
61097SOL     OW85122  11.341   1.990   0.033
61097SOL    HW185123  11.262   1.942   0.008
61097SOL    HW285124  11.312   2.081   0.043
61098SOL     OW85125   9.889   4.743  12.895
61098SOL    HW185126   9.800   4.776  12.900
61098SOL    HW285127   9.942   4.821  12.875
61099SOL     OW85128   1.697  12.454   3.052
61099SOL    HW185129   1.680  12.540   3.090
61099SOL    HW285130   1.721  12.398   3.126
61100SOL     OW85131   6.733  12.091  10.280
61100SOL    HW185132   6.747  12.075  10.187
61100SOL    HW285133   6.713  12.185  10.285
61101SOL     OW85134   6.020   6.791   9.546
61101SOL    HW185135   6.056   6.877   9.527
61101SOL    HW285136   5.925   6.805   9.553
61102SOL     OW85137  12.299   3.604  12.458
61102SOL    HW185138  12.347   3.532  12.497
61102SOL    HW285139  12.270   3.570  12.373
61103SOL     OW85140  11.013  11.290  13.370
61103SOL    HW185141  11.019  11.368  13.424
61103SOL    HW285142  10.989  11.323  13.283
61104SOL     OW85143   7.424  13.818   1.253
61104SOL    HW185144   7.454  13.727   1.248
61104SOL    HW285145   7.339  13.817   1.210
61105SOL     OW85146   7.790   1.540   4.188
61105SOL    HW185147   7.746   1.567   4.269
61105SOL    HW285148   7.722   1.545   4.121
61106SOL     OW85149   4.453   5.703  12.361
61106SOL    HW185150   4.416   5.791  12.366
61106SOL    HW285151   4.498   5.691  12.445
61107SOL     OW85152   5.123   4.570   1.072
61107SOL    HW185153   5.159   4.512   1.140
61107SOL    HW285154   5.197   4.588   1.015
61108SOL     OW85155  12.678   9.600   4.011
61108SOL    HW185156  12.603   9.659   4.023
61108SOL    HW285157  12.734   9.616   4.087
61109SOL     OW85158   5.713   4.740   9.805
61109SOL    HW185159   5.723   4.742   9.900
61109SOL    HW285160   5.761   4.817   9.774
61110SOL     OW85161   5.011  14.616   9.212
61110SOL    HW185162   4.946  14.661   9.265
61110SOL    HW285163   5.024  14.673   9.136
61111SOL     OW85164   9.039   2.526   6.688
61111SOL    HW185165   9.091   2.446   6.682
61111SOL    HW285166   8.963   2.501   6.741
61112SOL     OW85167  14.346   4.053   4.753
61112SOL    HW185168  14.354   4.059   4.657
61112SOL    HW285169  14.268   4.105   4.773
61113SOL     OW85170   2.126   2.007   0.093
61113SOL    HW185171   2.157   1.943   0.157
61113SOL    HW285172   2.110   2.086   0.144
61114SOL     OW85173   5.056   4.098   4.678
61114SOL    HW185174   5.081   4.137   4.761
61114SOL    HW285175   5.134   4.109   4.622
61115SOL     OW85176   8.322   6.902  12.310
61115SOL    HW185177   8.294   6.982  12.266
61115SOL    HW285178   8.395   6.930  12.366
61116SOL     OW85179   6.894  13.135   7.612
61116SOL    HW185180   6.829  13.091   7.557
61116SOL    HW285181   6.964  13.071   7.623
61117SOL     OW85182  12.420   0.261   9.365
61117SOL    HW185183  12.400   0.259   9.271
61117SOL    HW285184  12.398   0.173   9.396
61118SOL     OW85185  10.911  13.114   4.978
61118SOL    HW185186  11.006  13.127   4.981
61118SOL    HW285187  10.890  13.072   5.061
61119SOL     OW85188   7.995   8.240   9.691
61119SOL    HW185189   7.914   8.234   9.642
61119SOL    HW285190   7.968   8.242   9.783
61120SOL     OW85191   3.968   4.951   7.353
61120SOL    HW185192   3.983   4.965   7.260
61120SOL    HW285193   4.040   4.997   7.396
61121SOL     OW85194   3.825   6.900   3.106
61121SOL    HW185195   3.887   6.834   3.135
61121SOL    HW285196   3.859   6.982   3.141
61122SOL     OW85197   1.994   7.621  14.109
61122SOL    HW185198   2.002   7.535  14.068
61122SOL    HW285199   2.078   7.634  14.154
61123SOL     OW85200   3.740   0.969   4.989
61123SOL    HW185201   3.715   0.994   5.078
61123SOL    HW285202   3.800   0.895   5.000
61124SOL     OW85203   8.167  11.890  13.807
61124SOL    HW185204   8.095  11.887  13.870
61124SOL    HW285205   8.244  11.910  13.860
61125SOL     OW85206   3.995   1.805   9.225
61125SOL    HW185207   4.026   1.724   9.264
61125SOL    HW285208   4.006   1.794   9.131
61126SOL     OW85209   4.236  12.398  13.480
61126SOL    HW185210   4.331  12.399  13.475
61126SOL    HW285211   4.216  12.342  13.555
61127SOL     OW85212  12.265   3.196   5.721
61127SOL    HW185213  12.297   3.155   5.801
61127SOL    HW285214  12.259   3.124   5.658
61128SOL     OW85215   8.556   2.091  11.371
61128SOL    HW185216   8.634   2.061  11.325
61128SOL    HW285217   8.495   2.116  11.302
61129SOL     OW85218   4.929   7.095  12.344
61129SOL    HW185219   4.935   7.150  12.266
61129SOL    HW285220   4.836   7.084  12.359
61130SOL     OW85221   7.460  13.951   1.987
61130SOL    HW185222   7.526  13.882   1.976
61130SOL    HW285223   7.421  13.961   1.900
61131SOL     OW85224   6.067   0.596   9.391
61131SOL    HW185225   5.982   0.562   9.420
61131SOL    HW285226   6.076   0.679   9.438
61132SOL     OW85227   4.969  10.711   4.414
61132SOL    HW185228   4.920  10.688   4.494
61132SOL    HW285229   4.980  10.806   4.419
61133SOL     OW85230   8.618  14.157   0.979
61133SOL    HW185231   8.635  14.227   0.917
61133SOL    HW285232   8.530  14.175   1.012
61134SOL     OW85233   5.273  13.085  12.160
61134SOL    HW185234   5.267  13.116  12.070
61134SOL    HW285235   5.211  13.012  12.165
61135SOL     OW85236  10.522  14.000   8.048
61135SOL    HW185237  10.452  13.934   8.058
61135SOL    HW285238  10.576  13.966   7.978
61136SOL     OW85239  12.853   0.821   1.065
61136SOL    HW185240  12.903   0.744   1.038
61136SOL    HW285241  12.909   0.895   1.040
61137SOL     OW85242   3.754   6.016   7.409
61137SOL    HW185243   3.696   6.016   7.484
61137SOL    HW285244   3.741   6.101   7.368
61138SOL     OW85245   5.128   1.037   5.557
61138SOL    HW185246   5.109   1.052   5.464
61138SOL    HW285247   5.049   0.997   5.592
61139SOL     OW85248   7.756   5.787  10.955
61139SOL    HW185249   7.737   5.696  10.933
61139SOL    HW285250   7.801   5.782  11.039
61140SOL     OW85251  11.638   0.349   2.235
61140SOL    HW185252  11.692   0.400   2.296
61140SOL    HW285253  11.553   0.392   2.237
61141SOL     OW85254   0.419   5.930   1.300
61141SOL    HW185255   0.356   5.903   1.233
61141SOL    HW285256   0.491   5.969   1.251
61142SOL     OW85257  10.856   1.165   1.349
61142SOL    HW185258  10.857   1.217   1.430
61142SOL    HW285259  10.921   1.096   1.364
61143SOL     OW85260   8.060   8.680   2.373
61143SOL    HW185261   7.998   8.646   2.438
61143SOL    HW285262   8.144   8.684   2.419
61144SOL     OW85263  13.282   2.208   4.617
61144SOL    HW185264  13.326   2.213   4.702
61144SOL    HW285265  13.334   2.145   4.567
61145SOL     OW85266   2.221   4.296  13.368
61145SOL    HW185267   2.203   4.367  13.306
61145SOL    HW285268   2.152   4.304  13.434
61146SOL     OW85269   3.117   4.039   4.570
61146SOL    HW185270   3.159   4.116   4.532
61146SOL    HW285271   3.171   3.966   4.541
61147SOL     OW85272  13.501   6.311   7.432
61147SOL    HW185273  13.411   6.280   7.424
61147SOL    HW285274  13.499   6.378   7.500
61148SOL     OW85275  14.449   3.819  13.301
61148SOL    HW185276  14.497   3.838  13.220
61148SOL    HW285277  14.361   3.852  13.285
61149SOL     OW85278   6.789  10.147  12.879
61149SOL    HW185279   6.728  10.074  12.887
61149SOL    HW285280   6.819  10.144  12.788
61150SOL     OW85281   0.228  11.459   3.814
61150SOL    HW185282   0.290  11.418   3.755
61150SOL    HW285283   0.206  11.391   3.877
61151SOL     OW85284   1.745  13.177   0.058
61151SOL    HW185285   1.816  13.239   0.071
61151SOL    HW285286   1.673  13.230   0.024
61152SOL     OW85287   3.895  13.976  12.022
61152SOL    HW185288   3.823  14.037  12.038
61152SOL    HW285289   3.856  13.890  12.034
61153SOL     OW85290   2.467   6.837   7.920
61153SOL    HW185291   2.522   6.881   7.985
61153SOL    HW285292   2.396   6.798   7.971
61154SOL     OW85293   4.365   8.516   9.992
61154SOL    HW185294   4.350   8.537   9.900
61154SOL    HW285295   4.416   8.435   9.990
61155SOL     OW85296   9.193   1.211  11.153
61155SOL    HW185297   9.283   1.232  11.177
61155SOL    HW285298   9.161   1.158  11.226
61156SOL     OW85299  12.589  14.269  10.396
61156SOL    HW185300  12.590  14.357  10.359
61156SOL    HW285301  12.662  14.224  10.354
61157SOL     OW85302   3.504   8.908  13.923
61157SOL    HW185303   3.588   8.862  13.930
61157SOL    HW285304   3.529   8.999  13.905
61158SOL     OW85305   5.376   1.177  14.530
61158SOL    HW185306   5.461   1.196  14.571
61158SOL    HW285307   5.354   1.257  14.483
61159SOL     OW85308  12.796  12.263  14.164
61159SOL    HW185309  12.799  12.178  14.120
61159SOL    HW285310  12.725  12.254  14.228
61160SOL     OW85311   3.855   6.083   3.260
61160SOL    HW185312   3.896   6.091   3.346
61160SOL    HW285313   3.915   6.130   3.201
61161SOL     OW85314   6.049   4.196  11.459
61161SOL    HW185315   5.969   4.147  11.476
61161SOL    HW285316   6.019   4.285  11.439
61162SOL     OW85317   6.942   2.790  10.348
61162SOL    HW185318   7.014   2.847  10.323
61162SOL    HW285319   6.893   2.840  10.414
61163SOL     OW85320   1.992  13.424  13.419
61163SOL    HW185321   2.063  13.437  13.482
61163SOL    HW285322   2.030  13.447  13.334
61164SOL     OW85323   5.910   2.461   6.182
61164SOL    HW185324   5.967   2.478   6.106
61164SOL    HW285325   5.822   2.482   6.151
61165SOL     OW85326  10.691  11.288  12.914
61165SOL    HW185327  10.672  11.369  12.866
61165SOL    HW285328  10.635  11.222  12.873
61166SOL     OW85329   4.531  10.772   1.409
61166SOL    HW185330   4.555  10.805   1.322
61166SOL    HW285331   4.585  10.694   1.420
61167SOL     OW85332  12.049   2.834   3.400
61167SOL    HW185333  11.978   2.771   3.413
61167SOL    HW285334  12.010   2.918   3.426
61168SOL     OW85335   5.348   5.275   0.974
61168SOL    HW185336   5.429   5.271   1.025
61168SOL    HW285337   5.314   5.186   0.975
61169SOL     OW85338  13.401   2.656  13.114
61169SOL    HW185339  13.475   2.690  13.164
61169SOL    HW285340  13.427   2.567  13.091
61170SOL     OW85341  13.194   9.086  12.989
61170SOL    HW185342  13.164   8.999  13.016
61170SOL    HW285343  13.151   9.146  13.049
61171SOL     OW85344  10.291   5.287   1.632
61171SOL    HW185345  10.346   5.363   1.612
61171SOL    HW285346  10.324   5.255   1.716
61172SOL     OW85347  10.824  11.068  12.628
61172SOL    HW185348  10.901  11.068  12.571
61172SOL    HW285349  10.836  10.991  12.684
61173SOL     OW85350  14.852   2.754  10.938
61173SOL    HW185351   0.010   2.816  10.877
61173SOL    HW285352   0.042   2.694  10.960
61174SOL     OW85353   9.409  13.540   4.248
61174SOL    HW185354   9.362  13.580   4.321
61174SOL    HW285355   9.498  13.527   4.280
61175SOL     OW85356   7.656   3.010  11.314
61175SOL    HW185357   7.699   3.061  11.383
61175SOL    HW285358   7.647   3.072  11.241
61176SOL     OW85359   4.773   0.960  10.984
61176SOL    HW185360   4.833   0.930  10.915
61176SOL    HW285361   4.714   0.886  10.998
61177SOL     OW85362  10.093  14.495   8.150
61177SOL    HW185363  10.043  14.559   8.100
61177SOL    HW285364  10.090  14.527   8.240
61178SOL     OW85365   5.381   9.461   1.542
61178SOL    HW185366   5.331   9.401   1.487
61178SOL    HW285367   5.319   9.530   1.564
61179SOL     OW85368  12.975   0.225   3.975
61179SOL    HW185369  13.047   0.163   3.963
61179SOL    HW285370  13.014   0.298   4.023
61180SOL     OW85371   1.584   4.430  10.640
61180SOL    HW185372   1.672   4.395  10.631
61180SOL    HW285373   1.538   4.398  10.562
61181SOL     OW85374   4.652  13.479  11.193
61181SOL    HW185375   4.577  13.509  11.244
61181SOL    HW285376   4.683  13.557  11.147
61182SOL     OW85377   0.578   8.997   7.189
61182SOL    HW185378   0.590   8.923   7.248
61182SOL    HW285379   0.547   8.958   7.107
61183SOL     OW85380  11.215   8.393   5.837
61183SOL    HW185381  11.121   8.395   5.821
61183SOL    HW285382  11.255   8.401   5.750
61184SOL     OW85383   8.657   2.267   0.494
61184SOL    HW185384   8.696   2.308   0.571
61184SOL    HW285385   8.590   2.209   0.529
61185SOL     OW85386   7.136   6.870   9.319
61185SOL    HW185387   7.210   6.810   9.309
61185SOL    HW285388   7.173   6.956   9.300
61186SOL     OW85389   2.644   1.319   8.808
61186SOL    HW185390   2.663   1.386   8.743
61186SOL    HW285391   2.562   1.280   8.779
61187SOL     OW85392   7.578  13.206  14.144
61187SOL    HW185393   7.594  13.271  14.075
61187SOL    HW285394   7.496  13.234  14.184
61188SOL     OW85395   9.902   0.756   7.014
61188SOL    HW185396   9.826   0.778   7.068
61188SOL    HW285397   9.914   0.833   6.957
61189SOL     OW85398  12.576   8.731   1.977
61189SOL    HW185399  12.651   8.714   1.920
61189SOL    HW285400  12.605   8.801   2.035
61190SOL     OW85401   0.020   7.939  10.061
61190SOL    HW185402   0.024   8.001  10.135
61190SOL    HW285403   0.102   7.954  10.013
61191SOL     OW85404   3.053   2.029  14.749
61191SOL    HW185405   3.105   2.099  14.788
61191SOL    HW285406   3.107   1.951  14.758
61192SOL     OW85407   4.606   6.575   7.997
61192SOL    HW185408   4.636   6.489   7.968
61192SOL    HW285409   4.583   6.621   7.916
61193SOL     OW85410   7.078   4.842   1.868
61193SOL    HW185411   7.142   4.853   1.938
61193SOL    HW285412   7.117   4.886   1.793
61194SOL     OW85413  13.618   3.703   4.945
61194SOL    HW185414  13.675   3.780   4.954
61194SOL    HW285415  13.645   3.645   5.017
61195SOL     OW85416   0.794   4.161   6.335
61195SOL    HW185417   0.780   4.070   6.362
61195SOL    HW285418   0.840   4.155   6.251
61196SOL     OW85419  14.685   0.747   3.620
61196SOL    HW185420  14.590   0.748   3.627
61196SOL    HW285421  14.713   0.687   3.690
61197SOL     OW85422  11.894  11.379   1.931
61197SOL    HW185423  11.960  11.424   1.878
61197SOL    HW285424  11.910  11.286   1.913
61198SOL     OW85425   6.093   3.094  13.964
61198SOL    HW185426   6.149   3.165  13.933
61198SOL    HW285427   6.094   3.030  13.893
61199SOL     OW85428  10.287  10.905  13.736
61199SOL    HW185429  10.205  10.855  13.739
61199SOL    HW285430  10.279  10.968  13.807
61200SOL     OW85431   6.548   6.131   8.004
61200SOL    HW185432   6.495   6.074   7.948
61200SOL    HW285433   6.510   6.121   8.091
61201SOL     OW85434  12.434   4.744   9.165
61201SOL    HW185435  12.366   4.793   9.117
61201SOL    HW285436  12.453   4.669   9.109
61202SOL     OW85437   1.998   9.707   6.901
61202SOL    HW185438   1.912   9.733   6.933
61202SOL    HW285439   2.044   9.673   6.978
61203SOL     OW85440  11.415   4.806   2.170
61203SOL    HW185441  11.468   4.751   2.113
61203SOL    HW285442  11.475   4.835   2.238
61204SOL     OW85443   2.088   5.145   2.093
61204SOL    HW185444   2.170   5.174   2.133
61204SOL    HW285445   2.073   5.207   2.022
61205SOL     OW85446  12.503   6.007  14.294
61205SOL    HW185447  12.437   6.064  14.335
61205SOL    HW285448  12.456   5.965  14.222
61206SOL     OW85449   6.033   1.518  12.703
61206SOL    HW185450   6.035   1.481  12.615
61206SOL    HW285451   6.125   1.524  12.729
61207SOL     OW85452  11.642  14.067  11.005
61207SOL    HW185453  11.644  14.157  11.037
61207SOL    HW285454  11.550  14.046  10.995
61208SOL     OW85455   2.402   3.233   6.864
61208SOL    HW185456   2.425   3.324   6.883
61208SOL    HW285457   2.307   3.230   6.873
61209SOL     OW85458   8.878   1.561  10.488
61209SOL    HW185459   8.906   1.639  10.441
61209SOL    HW285460   8.861   1.591  10.577
61210SOL     OW85461   8.553   2.967   6.810
61210SOL    HW185462   8.516   3.048   6.844
61210SOL    HW285463   8.641   2.992   6.779
61211SOL     OW85464   9.517  13.344  13.903
61211SOL    HW185465   9.502  13.249  13.895
61211SOL    HW285466   9.593  13.361  13.848
61212SOL     OW85467   8.217  11.747   2.884
61212SOL    HW185468   8.233  11.674   2.825
61212SOL    HW285469   8.277  11.733   2.957
61213SOL     OW85470   9.808   8.747   5.536
61213SOL    HW185471   9.794   8.716   5.446
61213SOL    HW285472   9.720   8.765   5.569
61214SOL     OW85473  10.749  10.105   8.422
61214SOL    HW185474  10.699  10.046   8.365
61214SOL    HW285475  10.685  10.171   8.448
61215SOL     OW85476  13.897  13.817   5.796
61215SOL    HW185477  13.948  13.897   5.814
61215SOL    HW285478  13.838  13.842   5.725
61216SOL     OW85479   3.199  11.370  14.592
61216SOL    HW185480   3.243  11.450  14.621
61216SOL    HW285481   3.142  11.346  14.665
61217SOL     OW85482   6.339  11.260   8.352
61217SOL    HW185483   6.319  11.338   8.301
61217SOL    HW285484   6.254  11.223   8.375
61218SOL     OW85485   7.561   3.674   5.273
61218SOL    HW185486   7.571   3.769   5.287
61218SOL    HW285487   7.643   3.648   5.232
61219SOL     OW85488  14.395   7.307   1.414
61219SOL    HW185489  14.345   7.386   1.392
61219SOL    HW285490  14.329   7.243   1.439
61220SOL     OW85491  13.651   5.920  11.499
61220SOL    HW185492  13.622   6.000  11.542
61220SOL    HW285493  13.746   5.919  11.511
61221SOL     OW85494  14.778  11.609   3.208
61221SOL    HW185495  14.745  11.694   3.176
61221SOL    HW285496  14.873  11.621   3.214
61222SOL     OW85497  10.603   4.202   3.700
61222SOL    HW185498  10.618   4.108   3.713
61222SOL    HW285499  10.508   4.209   3.688
61223SOL     OW85500   1.622   1.615  11.852
61223SOL    HW185501   1.650   1.698  11.890
61223SOL    HW285502   1.575   1.571  11.923
61224SOL     OW85503   5.845   7.631  10.511
61224SOL    HW185504   5.842   7.695  10.440
61224SOL    HW285505   5.762   7.584  10.505
61225SOL     OW85506   4.565   5.389   4.964
61225SOL    HW185507   4.638   5.378   4.902
61225SOL    HW285508   4.536   5.300   4.983
61226SOL     OW85509   1.219   2.536  14.452
61226SOL    HW185510   1.225   2.547  14.547
61226SOL    HW285511   1.246   2.445  14.438
61227SOL     OW85512  14.838  14.805  13.261
61227SOL    HW185513   0.031  14.804  13.320
61227SOL    HW285514  14.806  14.715  13.262
61228SOL     OW85515   5.325   7.343   9.742
61228SOL    HW185516   5.362   7.383   9.663
61228SOL    HW285517   5.257   7.404   9.770
61229SOL     OW85518   1.539   1.985   5.712
61229SOL    HW185519   1.538   1.936   5.630
61229SOL    HW285520   1.552   2.076   5.685
61230SOL     OW85521   7.963   6.749   9.010
61230SOL    HW185522   7.991   6.816   9.072
61230SOL    HW285523   7.901   6.793   8.953
61231SOL     OW85524  11.210   8.065   5.568
61231SOL    HW185525  11.240   7.995   5.511
61231SOL    HW285526  11.288   8.118   5.586
61232SOL     OW85527  14.349   1.423   7.406
61232SOL    HW185528  14.435   1.436   7.365
61232SOL    HW285529  14.290   1.479   7.355
61233SOL     OW85530   7.328   4.483   0.554
61233SOL    HW185531   7.354   4.575   0.562
61233SOL    HW285532   7.371   4.453   0.474
61234SOL     OW85533   3.054  13.044   0.976
61234SOL    HW185534   3.044  13.113   1.042
61234SOL    HW285535   2.978  13.055   0.919
61235SOL     OW85536   4.439   2.386   7.730
61235SOL    HW185537   4.344   2.376   7.736
61235SOL    HW285538   4.473   2.297   7.737
61236SOL     OW85539   7.715  13.222  10.603
61236SOL    HW185540   7.799  13.201  10.564
61236SOL    HW285541   7.665  13.140  10.599
61237SOL     OW85542   6.024  13.552   7.665
61237SOL    HW185543   6.079  13.528   7.739
61237SOL    HW285544   6.079  13.538   7.588
61238SOL     OW85545  13.690   4.490   1.384
61238SOL    HW185546  13.614   4.433   1.382
61238SOL    HW285547  13.690   4.525   1.473
61239SOL     OW85548   0.922   3.688   8.024
61239SOL    HW185549   0.828   3.679   8.008
61239SOL    HW285550   0.952   3.748   7.956
61240SOL     OW85551   1.847  14.508  14.395
61240SOL    HW185552   1.878  14.422  14.424
61240SOL    HW285553   1.923  14.548  14.353
61241SOL     OW85554   1.028   5.013  13.437
61241SOL    HW185555   1.027   4.925  13.399
61241SOL    HW285556   1.001   5.000  13.528
61242SOL     OW85557   6.341   5.261   0.005
61242SOL    HW185558   6.304   5.310   0.079
61242SOL    HW285559   6.279   5.276  14.816
61243SOL     OW85560   8.314  14.480  10.501
61243SOL    HW185561   8.378  14.504  10.434
61243SOL    HW285562   8.251  14.424  10.455
61244SOL     OW85563   0.389  10.384   5.045
61244SOL    HW185564   0.408  10.292   5.032
61244SOL    HW285565   0.307  10.399   4.998
61245SOL     OW85566   9.733   3.458   2.766
61245SOL    HW185567   9.755   3.504   2.685
61245SOL    HW285568   9.688   3.524   2.819
61246SOL     OW85569  11.242   7.888   0.236
61246SOL    HW185570  11.195   7.815   0.276
61246SOL    HW285571  11.325   7.851   0.207
61247SOL     OW85572   5.107  10.076   0.958
61247SOL    HW185573   5.103  10.079   0.862
61247SOL    HW285574   5.096   9.983   0.980
61248SOL     OW85575   4.160   9.557   8.455
61248SOL    HW185576   4.155   9.502   8.377
61248SOL    HW285577   4.197   9.500   8.522
61249SOL     OW85578   8.564   5.778   7.286
61249SOL    HW185579   8.644   5.732   7.309
61249SOL    HW285580   8.567   5.859   7.337
61250SOL     OW85581  13.739   2.624   2.591
61250SOL    HW185582  13.818   2.588   2.551
61250SOL    HW285583  13.669   2.564   2.566
61251SOL     OW85584   3.533   2.173   8.923
61251SOL    HW185585   3.462   2.197   8.983
61251SOL    HW285586   3.578   2.256   8.905
61252SOL     OW85587   4.750   4.385   0.777
61252SOL    HW185588   4.812   4.336   0.723
61252SOL    HW285589   4.799   4.407   0.856
61253SOL     OW85590  11.709   4.761  11.839
61253SOL    HW185591  11.726   4.799  11.925
61253SOL    HW285592  11.794   4.758  11.796
61254SOL     OW85593   7.591  12.576   0.116
61254SOL    HW185594   7.553  12.648   0.166
61254SOL    HW285595   7.611  12.509   0.181
61255SOL     OW85596  14.365   1.133   7.424
61255SOL    HW185597  14.294   1.099   7.479
61255SOL    HW285598  14.349   1.227   7.420
61256SOL     OW85599  13.618   7.040   1.303
61256SOL    HW185600  13.656   7.100   1.368
61256SOL    HW285601  13.693   6.993   1.268
61257SOL     OW85602   4.547  12.660   8.203
61257SOL    HW185603   4.593  12.590   8.157
61257SOL    HW285604   4.456  12.651   8.176
61258SOL     OW85605   6.217   4.244   1.293
61258SOL    HW185606   6.273   4.298   1.349
61258SOL    HW285607   6.184   4.304   1.226
61259SOL     OW85608   3.343   1.549   4.464
61259SOL    HW185609   3.425   1.580   4.502
61259SOL    HW285610   3.292   1.518   4.538
61260SOL     OW85611   1.055  10.041  12.898
61260SOL    HW185612   1.080  10.122  12.942
61260SOL    HW285613   1.095  10.048  12.811
61261SOL     OW85614   2.171  13.917   5.229
61261SOL    HW185615   2.156  13.998   5.180
61261SOL    HW285616   2.096  13.861   5.206
61262SOL     OW85617  13.852   5.594   3.815
61262SOL    HW185618  13.780   5.654   3.796
61262SOL    HW285619  13.915   5.610   3.744
61263SOL     OW85620   2.295   0.545  11.978
61263SOL    HW185621   2.326   0.490  11.906
61263SOL    HW285622   2.368   0.604  11.996
61264SOL     OW85623  13.321   0.747   5.333
61264SOL    HW185624  13.388   0.773   5.269
61264SOL    HW285625  13.256   0.817   5.330
61265SOL     OW85626   7.078  10.135  13.521
61265SOL    HW185627   7.091  10.230  13.509
61265SOL    HW285628   7.162  10.104  13.554
61266SOL     OW85629   5.831   4.485   8.676
61266SOL    HW185630   5.886   4.413   8.707
61266SOL    HW285631   5.752   4.442   8.643
61267SOL     OW85632   9.019  13.417   2.741
61267SOL    HW185633   9.061  13.387   2.821
61267SOL    HW285634   9.076  13.487   2.709
61268SOL     OW85635   0.930  14.643   6.075
61268SOL    HW185636   0.905  14.679   6.160
61268SOL    HW285637   1.010  14.690   6.051
61269SOL     OW85638   4.161  11.569   5.057
61269SOL    HW185639   4.246  11.536   5.029
61269SOL    HW285640   4.120  11.601   4.977
61270SOL     OW85641   1.229   3.904   4.212
61270SOL    HW185642   1.244   3.980   4.156
61270SOL    HW285643   1.225   3.939   4.300
61271SOL     OW85644   2.192   8.797   4.591
61271SOL    HW185645   2.152   8.741   4.657
61271SOL    HW285646   2.203   8.881   4.634
61272SOL     OW85647   4.279   5.058  14.720
61272SOL    HW185648   4.242   4.983  14.767
61272SOL    HW285649   4.374   5.045  14.725
61273SOL     OW85650  14.203   2.797   0.795
61273SOL    HW185651  14.231   2.887   0.780
61273SOL    HW285652  14.126   2.805   0.850
61274SOL     OW85653   9.148   4.353  14.677
61274SOL    HW185654   9.099   4.386  14.753
61274SOL    HW285655   9.155   4.428  14.619
61275SOL     OW85656   6.655   0.371  13.172
61275SOL    HW185657   6.720   0.322  13.122
61275SOL    HW285658   6.698   0.455  13.191
61276SOL     OW85659  14.536   2.025  11.108
61276SOL    HW185660  14.603   1.995  11.046
61276SOL    HW285661  14.567   2.111  11.137
61277SOL     OW85662  11.820   4.456   4.739
61277SOL    HW185663  11.764   4.416   4.806
61277SOL    HW285664  11.909   4.436   4.767
61278SOL     OW85665   4.580   6.132   2.048
61278SOL    HW185666   4.642   6.157   1.979
61278SOL    HW285667   4.634   6.120   2.126
61279SOL     OW85668  10.137   4.011  13.627
61279SOL    HW185669  10.212   4.048  13.672
61279SOL    HW285670  10.143   3.917  13.643
61280SOL     OW85671   8.320   5.948   9.789
61280SOL    HW185672   8.239   5.907   9.759
61280SOL    HW285673   8.301   6.042   9.789
61281SOL     OW85674   4.953   6.481   4.828
61281SOL    HW185675   4.977   6.421   4.898
61281SOL    HW285676   4.858   6.473   4.820
61282SOL     OW85677   9.138   2.481   5.209
61282SOL    HW185678   9.102   2.569   5.195
61282SOL    HW285679   9.231   2.496   5.226
61283SOL     OW85680  11.379  14.115   6.638
61283SOL    HW185681  11.348  14.086   6.552
61283SOL    HW285682  11.364  14.210   6.638
61284SOL     OW85683   9.948  10.843   2.001
61284SOL    HW185684   9.993  10.924   2.024
61284SOL    HW285685   9.956  10.837   1.906
61285SOL     OW85686   2.856  14.015  14.732
61285SOL    HW185687   2.883  14.049  14.646
61285SOL    HW285688   2.926  13.956  14.758
61286SOL     OW85689  12.270  14.077   1.930
61286SOL    HW185690  12.222  14.026   1.865
61286SOL    HW285691  12.233  14.051   2.014
61287SOL     OW85692   7.285   7.117  14.337
61287SOL    HW185693   7.220   7.097  14.405
61287SOL    HW285694   7.335   7.036  14.327
61288SOL     OW85695   2.844  11.683  11.336
61288SOL    HW185696   2.769  11.742  11.324
61288SOL    HW285697   2.916  11.725  11.289
61289SOL     OW85698  14.720   4.703  12.323
61289SOL    HW185699  14.788   4.763  12.291
61289SOL    HW285700  14.764   4.618  12.328
61290SOL     OW85701   0.778  11.632   3.025
61290SOL    HW185702   0.828  11.662   3.101
61290SOL    HW285703   0.838  11.643   2.951
61291SOL     OW85704   9.278   7.402   0.395
61291SOL    HW185705   9.294   7.393   0.489
61291SOL    HW285706   9.332   7.476   0.368
61292SOL     OW85707   4.452   7.441   9.206
61292SOL    HW185708   4.539   7.473   9.181
61292SOL    HW285709   4.396   7.462   9.132
61293SOL     OW85710   4.013   9.250   7.444
61293SOL    HW185711   3.992   9.313   7.375
61293SOL    HW285712   4.109   9.249   7.447
61294SOL     OW85713  14.832  14.248  13.954
61294SOL    HW185714  14.850  14.227  14.046
61294SOL    HW285715  14.832  14.344  13.951
61295SOL     OW85716  12.536  12.393   8.896
61295SOL    HW185717  12.499  12.475   8.928
61295SOL    HW285718  12.571  12.414   8.810
61296SOL     OW85719  11.451   2.550   0.330
61296SOL    HW185720  11.535   2.527   0.370
61296SOL    HW285721  11.392   2.478   0.354
61297SOL     OW85722   6.738   2.458   1.145
61297SOL    HW185723   6.821   2.440   1.100
61297SOL    HW285724   6.673   2.462   1.074
61298SOL     OW85725  11.804   1.228   3.248
61298SOL    HW185726  11.760   1.218   3.332
61298SOL    HW285727  11.765   1.306   3.209
61299SOL     OW85728   1.009   7.399   9.665
61299SOL    HW185729   0.977   7.488   9.653
61299SOL    HW285730   1.036   7.396   9.757
61300SOL     OW85731   2.049  12.706   8.518
61300SOL    HW185732   2.005  12.733   8.598
61300SOL    HW285733   1.978  12.696   8.454
61301SOL     OW85734  12.718   7.777  12.276
61301SOL    HW185735  12.675   7.854  12.314
61301SOL    HW285736  12.695   7.705  12.336
61302SOL     OW85737   5.499   1.569   3.002
61302SOL    HW185738   5.475   1.481   2.976
61302SOL    HW285739   5.486   1.571   3.097
61303SOL     OW85740   4.639   6.994  14.088
61303SOL    HW185741   4.615   7.055  14.158
61303SOL    HW285742   4.683   7.049  14.023
61304SOL     OW85743   0.154   7.103   8.858
61304SOL    HW185744   0.128   7.176   8.914
61304SOL    HW285745   0.200   7.144   8.784
61305SOL     OW85746   4.833  11.899   7.740
61305SOL    HW185747   4.791  11.837   7.681
61305SOL    HW285748   4.927  11.888   7.725
61306SOL     OW85749   2.497   8.472   5.800
61306SOL    HW185750   2.500   8.382   5.833
61306SOL    HW285751   2.406   8.485   5.774
61307SOL     OW85752   6.301  10.003   6.836
61307SOL    HW185753   6.339  10.004   6.924
61307SOL    HW285754   6.245   9.924   6.836
61308SOL     OW85755   4.411  11.632   9.090
61308SOL    HW185756   4.497  11.659   9.123
61308SOL    HW285757   4.410  11.660   8.999
61309SOL     OW85758   3.601   2.206   9.815
61309SOL    HW185759   3.540   2.240   9.880
61309SOL    HW285760   3.549   2.197   9.735
61310SOL     OW85761   6.153   6.794   4.519
61310SOL    HW185762   6.196   6.764   4.599
61310SOL    HW285763   6.061   6.771   4.531
61311SOL     OW85764   4.678   0.116   7.402
61311SOL    HW185765   4.693   0.034   7.357
61311SOL    HW285766   4.684   0.094   7.495
61312SOL     OW85767   7.081  12.900   9.522
61312SOL    HW185768   7.081  12.878   9.429
61312SOL    HW285769   7.172  12.922   9.543
61313SOL     OW85770   0.108   8.815  12.981
61313SOL    HW185771   0.025   8.857  13.003
61313SOL    HW285772   0.084   8.745  12.920
61314SOL     OW85773  14.231   9.489   4.015
61314SOL    HW185774  14.254   9.433   4.089
61314SOL    HW285775  14.221   9.429   3.941
61315SOL     OW85776   5.164  10.164  11.764
61315SOL    HW185777   5.087  10.211  11.798
61315SOL    HW285778   5.151  10.163  11.670
61316SOL     OW85779   7.681  13.862  10.489
61316SOL    HW185780   7.670  13.895  10.400
61316SOL    HW285781   7.747  13.793  10.481
61317SOL     OW85782  12.789   2.037  10.996
61317SOL    HW185783  12.797   1.991  10.912
61317SOL    HW285784  12.879   2.047  11.026
61318SOL     OW85785   7.571   4.931   7.556
61318SOL    HW185786   7.515   5.009   7.563
61318SOL    HW285787   7.523   4.873   7.497
61319SOL     OW85788   8.239   3.378  11.168
61319SOL    HW185789   8.161   3.325  11.177
61319SOL    HW285790   8.267   3.366  11.077
61320SOL     OW85791   5.318  13.465   2.804
61320SOL    HW185792   5.406  13.502   2.805
61320SOL    HW285793   5.320  13.393   2.867
61321SOL     OW85794  13.089   7.131   9.800
61321SOL    HW185795  13.060   7.194   9.734
61321SOL    HW285796  13.185   7.131   9.792
61322SOL     OW85797   2.075  14.654   1.287
61322SOL    HW185798   2.029  14.575   1.259
61322SOL    HW285799   2.168  14.633   1.275
61323SOL     OW85800   9.719   8.189   1.302
61323SOL    HW185801   9.722   8.276   1.340
61323SOL    HW285802   9.691   8.203   1.212
61324SOL     OW85803   7.841   2.413   7.190
61324SOL    HW185804   7.794   2.342   7.234
61324SOL    HW285805   7.813   2.492   7.236
61325SOL     OW85806   3.727   8.191  13.984
61325SOL    HW185807   3.750   8.157  13.898
61325SOL    HW285808   3.712   8.114  14.039
61326SOL     OW85809  11.858  12.618   4.201
61326SOL    HW185810  11.943  12.579   4.180
61326SOL    HW285811  11.868  12.651   4.290
61327SOL     OW85812  14.072   4.130   1.114
61327SOL    HW185813  14.030   4.207   1.077
61327SOL    HW285814  14.161   4.132   1.078
61328SOL     OW85815   5.706   3.200   2.596
61328SOL    HW185816   5.621   3.179   2.559
61328SOL    HW285817   5.686   3.252   2.673
61329SOL     OW85818   8.258   8.181  13.103
61329SOL    HW185819   8.320   8.241  13.144
61329SOL    HW285820   8.198   8.156  13.173
61330SOL     OW85821   2.472   0.884   4.722
61330SOL    HW185822   2.391   0.837   4.701
61330SOL    HW285823   2.473   0.890   4.818
61331SOL     OW85824  13.257   3.413  12.618
61331SOL    HW185825  13.195   3.341  12.602
61331SOL    HW285826  13.262   3.459  12.534
61332SOL     OW85827  14.217   4.826  13.144
61332SOL    HW185828  14.252   4.895  13.200
61332SOL    HW285829  14.122   4.837  13.150
61333SOL     OW85830  12.982   2.614  10.778
61333SOL    HW185831  13.051   2.596  10.842
61333SOL    HW285832  13.018   2.581  10.695
61334SOL     OW85833  10.806  13.174   0.502
61334SOL    HW185834  10.720  13.211   0.520
61334SOL    HW285835  10.861  13.250   0.483
61335SOL     OW85836  11.817   7.945   2.372
61335SOL    HW185837  11.743   7.956   2.314
61335SOL    HW285838  11.849   8.033   2.388
61336SOL     OW85839   0.423   7.914   1.035
61336SOL    HW185840   0.371   7.835   1.022
61336SOL    HW285841   0.410   7.937   1.127
61337SOL     OW85842   3.475  13.272   1.368
61337SOL    HW185843   3.425  13.208   1.317
61337SOL    HW285844   3.534  13.218   1.422
61338SOL     OW85845   5.063   5.941  13.003
61338SOL    HW185846   4.984   5.940  12.948
61338SOL    HW285847   5.111   6.018  12.973
61339SOL     OW85848   9.591   8.673   5.736
61339SOL    HW185849   9.591   8.583   5.769
61339SOL    HW285850   9.577   8.727   5.813
61340SOL     OW85851   6.596   3.015   8.549
61340SOL    HW185852   6.529   3.083   8.538
61340SOL    HW285853   6.676   3.064   8.567
61341SOL     OW85854  13.218   5.768   6.699
61341SOL    HW185855  13.217   5.843   6.758
61341SOL    HW285856  13.243   5.694   6.755
61342SOL     OW85857   2.292   7.351  12.554
61342SOL    HW185858   2.277   7.404  12.633
61342SOL    HW285859   2.204   7.330  12.522
61343SOL     OW85860   4.049   7.990   5.904
61343SOL    HW185861   3.999   7.973   5.825
61343SOL    HW285862   4.135   7.950   5.888
61344SOL     OW85863  12.527   7.005   2.466
61344SOL    HW185864  12.444   7.033   2.506
61344SOL    HW285865  12.570   6.953   2.534
61345SOL     OW85866  14.409  14.546   8.279
61345SOL    HW185867  14.493  14.546   8.234
61345SOL    HW285868  14.404  14.631   8.322
61346SOL     OW85869   9.291   9.743  10.948
61346SOL    HW185870   9.238   9.815  10.913
61346SOL    HW285871   9.323   9.776  11.032
61347SOL     OW85872   3.049   2.416   2.999
61347SOL    HW185873   2.965   2.390   3.036
61347SOL    HW285874   3.040   2.401   2.905
61348SOL     OW85875   6.500   8.443  13.494
61348SOL    HW185876   6.443   8.390  13.438
61348SOL    HW285877   6.584   8.445  13.447
61349SOL     OW85878   2.275   7.620   1.882
61349SOL    HW185879   2.295   7.527   1.896
61349SOL    HW285880   2.354   7.666   1.909
61350SOL     OW85881   5.688  14.605   1.289
61350SOL    HW185882   5.702  14.602   1.383
61350SOL    HW285883   5.594  14.597   1.278
61351SOL     OW85884   2.123  13.033   2.398
61351SOL    HW185885   2.156  13.113   2.357
61351SOL    HW285886   2.170  12.962   2.354
61352SOL     OW85887  12.367  14.088   3.131
61352SOL    HW185888  12.441  14.033   3.105
61352SOL    HW285889  12.407  14.162   3.178
61353SOL     OW85890  14.504   7.296  11.548
61353SOL    HW185891  14.459   7.380  11.543
61353SOL    HW285892  14.434   7.231  11.539
61354SOL     OW85893   8.880  13.668   1.919
61354SOL    HW185894   8.836  13.700   1.998
61354SOL    HW285895   8.944  13.737   1.899
61355SOL     OW85896   9.436   1.208   3.436
61355SOL    HW185897   9.359   1.170   3.478
61355SOL    HW285898   9.400   1.276   3.378
61356SOL     OW85899   9.523   4.541  14.638
61356SOL    HW185900   9.520   4.445  14.632
61356SOL    HW285901   9.518   4.571  14.548
61357SOL     OW85902  12.609   8.848   4.059
61357SOL    HW185903  12.697   8.875   4.033
61357SOL    HW285904  12.605   8.866   4.153
61358SOL     OW85905  10.146   4.563  13.280
61358SOL    HW185906  10.151   4.490  13.219
61358SOL    HW285907  10.115   4.524  13.362
61359SOL     OW85908   5.735   7.921  10.021
61359SOL    HW185909   5.813   7.965  10.057
61359SOL    HW285910   5.746   7.927   9.926
61360SOL     OW85911   7.004   8.374   2.896
61360SOL    HW185912   7.057   8.446   2.930
61360SOL    HW285913   6.996   8.314   2.970
61361SOL     OW85914  13.695   4.142   8.469
61361SOL    HW185915  13.717   4.126   8.561
61361SOL    HW285916  13.695   4.238   8.461
61362SOL     OW85917   1.481  12.248   9.954
61362SOL    HW185918   1.547  12.229   9.887
61362SOL    HW285919   1.523  12.313  10.010
61363SOL     OW85920  13.228  13.733   5.388
61363SOL    HW185921  13.243  13.817   5.432
61363SOL    HW285922  13.303  13.679   5.414
61364SOL     OW85923   3.186   2.525   3.654
61364SOL    HW185924   3.117   2.571   3.701
61364SOL    HW285925   3.247   2.593   3.628
61365SOL     OW85926   9.759  13.736   5.700
61365SOL    HW185927   9.753  13.816   5.648
61365SOL    HW285928   9.688  13.743   5.765
61366SOL     OW85929   0.336   6.893   0.233
61366SOL    HW185930   0.346   6.916   0.325
61366SOL    HW285931   0.293   6.808   0.233
61367SOL     OW85932   4.736   4.221   5.730
61367SOL    HW185933   4.643   4.206   5.709
61367SOL    HW285934   4.744   4.195   5.822
61368SOL     OW85935   7.965   2.636   0.170
61368SOL    HW185936   7.936   2.705   0.109
61368SOL    HW285937   7.884   2.602   0.207
61369SOL     OW85938   7.683  12.795   2.551
61369SOL    HW185939   7.716  12.881   2.524
61369SOL    HW285940   7.683  12.798   2.646
61370SOL     OW85941  10.243   3.335   8.741
61370SOL    HW185942  10.161   3.361   8.782
61370SOL    HW285943  10.309   3.346   8.810
61371SOL     OW85944   7.364  14.492   6.539
61371SOL    HW185945   7.311  14.555   6.590
61371SOL    HW285946   7.430  14.546   6.496
61372SOL     OW85947   4.551   8.303   4.980
61372SOL    HW185948   4.535   8.393   5.008
61372SOL    HW285949   4.537   8.305   4.885
61373SOL     OW85950  10.836   9.650  10.972
61373SOL    HW185951  10.761   9.590  10.975
61373SOL    HW285952  10.839   9.689  11.059
61374SOL     OW85953   4.519  11.972  11.782
61374SOL    HW185954   4.565  11.910  11.838
61374SOL    HW285955   4.561  12.056  11.798
61375SOL     OW85956   9.996  14.848   5.494
61375SOL    HW185957   9.918   0.000   5.538
61375SOL    HW285958  10.065   0.030   5.513
61376SOL     OW85959   7.686   2.179   9.292
61376SOL    HW185960   7.679   2.211   9.202
61376SOL    HW285961   7.647   2.249   9.345
61377SOL     OW85962   8.314  14.176   5.736
61377SOL    HW185963   8.379  14.155   5.804
61377SOL    HW285964   8.347  14.132   5.658
61378SOL     OW85965   5.723   8.197   4.198
61378SOL    HW185966   5.780   8.262   4.239
61378SOL    HW285967   5.745   8.115   4.242
61379SOL     OW85968   7.923   3.069  13.145
61379SOL    HW185969   7.868   2.992  13.154
61379SOL    HW285970   8.007   3.044  13.183
61380SOL     OW85971   6.768   6.543   5.076
61380SOL    HW185972   6.697   6.528   5.138
61380SOL    HW285973   6.726   6.586   5.002
61381SOL     OW85974   2.535  10.189   8.185
61381SOL    HW185975   2.507  10.257   8.246
61381SOL    HW285976   2.481  10.113   8.207
61382SOL     OW85977  10.375  10.321  11.486
61382SOL    HW185978  10.357  10.356  11.573
61382SOL    HW285979  10.311  10.363  11.430
61383SOL     OW85980  10.450   6.419  11.223
61383SOL    HW185981  10.451   6.324  11.209
61383SOL    HW285982  10.398   6.454  11.151
61384SOL     OW85983   7.964   6.242  13.608
61384SOL    HW185984   7.911   6.292  13.670
61384SOL    HW285985   7.912   6.163  13.592
61385SOL     OW85986   4.993   2.683  12.080
61385SOL    HW185987   5.079   2.711  12.048
61385SOL    HW285988   4.976   2.601  12.033
61386SOL     OW85989   3.400  11.708   4.487
61386SOL    HW185990   3.385  11.617   4.511
61386SOL    HW285991   3.462  11.704   4.414
61387SOL     OW85992   4.611   8.909   6.982
61387SOL    HW185993   4.581   8.956   7.060
61387SOL    HW285994   4.689   8.957   6.954
61388SOL     OW85995  11.514   4.442   6.543
61388SOL    HW185996  11.474   4.502   6.480
61388SOL    HW285997  11.521   4.359   6.497
61389SOL     OW85998   6.022   1.661  14.344
61389SOL    HW185999   6.093   1.724  14.332
61389SOL    HW286000   6.000   1.666  14.437
61390SOL     OW86001   0.419  10.697   1.119
61390SOL    HW186002   0.453  10.673   1.034
61390SOL    HW286003   0.401  10.791   1.112
61391SOL     OW86004  11.319   8.804  11.896
61391SOL    HW186005  11.272   8.795  11.979
61391SOL    HW286006  11.405   8.764  11.913
61392SOL     OW86007  14.880   8.434   4.570
61392SOL    HW186008  14.805   8.426   4.628
61392SOL    HW286009  14.843   8.464   4.487
61393SOL     OW86010  10.839   4.106  11.359
61393SOL    HW186011  10.912   4.160  11.328
61393SOL    HW286012  10.879   4.020  11.377
61394SOL     OW86013  11.291   3.569   7.564
61394SOL    HW186014  11.357   3.638   7.555
61394SOL    HW286015  11.217   3.599   7.512
61395SOL     OW86016  10.852   8.274   8.489
61395SOL    HW186017  10.907   8.324   8.428
61395SOL    HW286018  10.914   8.244   8.556
61396SOL     OW86019   7.682   7.561  12.542
61396SOL    HW186020   7.668   7.492  12.607
61396SOL    HW286021   7.675   7.516  12.457
61397SOL     OW86022   2.585  12.956   4.266
61397SOL    HW186023   2.559  12.985   4.354
61397SOL    HW286024   2.599  12.862   4.276
61398SOL     OW86025   3.776   4.307   8.152
61398SOL    HW186026   3.731   4.253   8.218
61398SOL    HW286027   3.743   4.396   8.167
61399SOL     OW86028   4.117  14.145   8.507
61399SOL    HW186029   4.156  14.141   8.420
61399SOL    HW286030   4.115  14.054   8.537
61400SOL     OW86031  13.273   2.289   3.320
61400SOL    HW186032  13.249   2.197   3.337
61400SOL    HW286033  13.346   2.306   3.379
61401SOL     OW86034   7.007   8.475   9.938
61401SOL    HW186035   7.025   8.561   9.901
61401SOL    HW286036   6.922   8.484   9.980
61402SOL     OW86037   0.129   8.236   4.408
61402SOL    HW186038   0.088   8.304   4.462
61402SOL    HW286039   0.057   8.195   4.362
61403SOL     OW86040  10.681   5.573   2.824
61403SOL    HW186041  10.718   5.631   2.757
61403SOL    HW286042  10.591   5.558   2.796
61404SOL     OW86043   3.171   0.890   1.318
61404SOL    HW186044   3.132   0.841   1.246
61404SOL    HW286045   3.097   0.938   1.356
61405SOL     OW86046   0.225   5.987  14.596
61405SOL    HW186047   0.305   5.938  14.615
61405SOL    HW286048   0.217   6.049  14.669
61406SOL     OW86049   7.849   1.143  12.139
61406SOL    HW186050   7.931   1.175  12.178
61406SOL    HW286051   7.809   1.221  12.101
61407SOL     OW86052  11.653  13.361  10.504
61407SOL    HW186053  11.575  13.347  10.450
61407SOL    HW286054  11.620  13.353  10.594
61408SOL     OW86055   6.667   3.655   3.930
61408SOL    HW186056   6.713   3.658   3.845
61408SOL    HW286057   6.694   3.735   3.975
61409SOL     OW86058   2.063   8.562  12.801
61409SOL    HW186059   2.149   8.539  12.837
61409SOL    HW286060   2.022   8.616  12.868
61410SOL     OW86061  10.575  13.661   2.025
61410SOL    HW186062  10.545  13.598   1.959
61410SOL    HW286063  10.550  13.622   2.109
61411SOL     OW86064   9.262   4.620  11.702
61411SOL    HW186065   9.321   4.573  11.760
61411SOL    HW286066   9.226   4.552  11.644
61412SOL     OW86067   8.270   5.940   4.597
61412SOL    HW186068   8.204   5.913   4.661
61412SOL    HW286069   8.248   5.891   4.518
61413SOL     OW86070   1.346  13.081   2.154
61413SOL    HW186071   1.302  13.094   2.238
61413SOL    HW286072   1.335  13.164   2.108
61414SOL     OW86073   8.866   8.857   0.451
61414SOL    HW186074   8.800   8.790   0.468
61414SOL    HW286075   8.918   8.822   0.378
61415SOL     OW86076   6.738  12.360   0.751
61415SOL    HW186077   6.799  12.299   0.709
61415SOL    HW286078   6.776  12.375   0.838
61416SOL     OW86079  10.702  12.112   0.086
61416SOL    HW186080  10.696  12.160   0.003
61416SOL    HW286081  10.744  12.030   0.064
61417SOL     OW86082  10.903   1.065   0.256
61417SOL    HW186083  10.917   1.045   0.163
61417SOL    HW286084  10.808   1.066   0.266
61418SOL     OW86085   4.015   3.919   9.446
61418SOL    HW186086   4.086   3.941   9.506
61418SOL    HW286087   3.935   3.943   9.493
61419SOL     OW86088   9.263   6.886  10.340
61419SOL    HW186089   9.223   6.951  10.398
61419SOL    HW286090   9.342   6.928  10.307
61420SOL     OW86091  14.704   6.483   1.869
61420SOL    HW186092  14.644   6.558   1.868
61420SOL    HW286093  14.659   6.416   1.817
61421SOL     OW86094   8.046   7.963   2.774
61421SOL    HW186095   8.050   7.980   2.868
61421SOL    HW286096   7.961   7.923   2.760
61422SOL     OW86097   2.128   6.370  13.427
61422SOL    HW186098   2.126   6.327  13.512
61422SOL    HW286099   2.035   6.380  13.404
61423SOL     OW86100  10.975  12.085   4.051
61423SOL    HW186101  10.891  12.064   4.091
61423SOL    HW286102  10.960  12.074   3.957
61424SOL     OW86103  13.554   2.766   2.246
61424SOL    HW186104  13.575   2.804   2.161
61424SOL    HW286105  13.614   2.692   2.255
61425SOL     OW86106   6.791   3.215   1.890
61425SOL    HW186107   6.815   3.182   1.976
61425SOL    HW286108   6.746   3.298   1.907
61426SOL     OW86109  11.546   0.264  12.378
61426SOL    HW186110  11.580   0.340  12.426
61426SOL    HW286111  11.462   0.245  12.421
61427SOL     OW86112   9.909   0.505   6.688
61427SOL    HW186113   9.979   0.568   6.673
61427SOL    HW286114   9.868   0.494   6.602
61428SOL     OW86115  12.602   1.734   8.246
61428SOL    HW186116  12.507   1.731   8.257
61428SOL    HW286117  12.627   1.643   8.228
61429SOL     OW86118   4.210   9.237  14.798
61429SOL    HW186119   4.115   9.244  14.786
61429SOL    HW286120   4.229   9.144  14.786
61430SOL     OW86121   5.944   4.730   2.810
61430SOL    HW186122   5.860   4.693   2.837
61430SOL    HW286123   5.994   4.739   2.891
61431SOL     OW86124   1.874   4.726  10.518
61431SOL    HW186125   1.810   4.745  10.586
61431SOL    HW286126   1.891   4.632  10.527
61432SOL     OW86127   4.551  13.298  12.063
61432SOL    HW186128   4.500  13.301  12.144
61432SOL    HW286129   4.494  13.252  12.001
61433SOL     OW86130   2.257   3.551   1.922
61433SOL    HW186131   2.244   3.469   1.874
61433SOL    HW286132   2.249   3.619   1.856
61434SOL     OW86133   1.874   5.632   4.911
61434SOL    HW186134   1.793   5.591   4.942
61434SOL    HW286135   1.879   5.715   4.958
61435SOL     OW86136   6.055   1.997   6.437
61435SOL    HW186137   6.127   2.059   6.430
61435SOL    HW286138   5.977   2.048   6.416
61436SOL     OW86139   5.022   9.975   3.607
61436SOL    HW186140   5.071   9.924   3.672
61436SOL    HW286141   4.932   9.975   3.641
61437SOL     OW86142   8.600  12.073  14.139
61437SOL    HW186143   8.673  12.121  14.098
61437SOL    HW286144   8.631  12.052  14.227
61438SOL     OW86145   7.191   9.133   7.804
61438SOL    HW186146   7.200   9.222   7.769
61438SOL    HW286147   7.130   9.143   7.877
61439SOL     OW86148   4.534   1.478   3.265
61439SOL    HW186149   4.532   1.469   3.170
61439SOL    HW286150   4.478   1.553   3.284
61440SOL     OW86151   7.730  11.625  11.242
61440SOL    HW186152   7.733  11.598  11.151
61440SOL    HW286153   7.665  11.696  11.244
61441SOL     OW86154   0.674  10.899  10.045
61441SOL    HW186155   0.758  10.861  10.068
61441SOL    HW286156   0.688  10.994  10.051
61442SOL     OW86157  14.036  14.734  14.212
61442SOL    HW186158  14.064  14.656  14.259
61442SOL    HW286159  14.014  14.703  14.125
61443SOL     OW86160   1.223   7.730  11.218
61443SOL    HW186161   1.285   7.770  11.278
61443SOL    HW286162   1.137   7.745  11.258
61444SOL     OW86163   9.351   3.311   5.705
61444SOL    HW186164   9.399   3.270   5.633
61444SOL    HW286165   9.280   3.359   5.661
61445SOL     OW86166  10.808   5.842  14.861
61445SOL    HW186167  10.819   5.832  14.766
61445SOL    HW286168  10.889   5.809   0.016
61446SOL     OW86169  10.295  12.683  11.473
61446SOL    HW186170  10.303  12.762  11.420
61446SOL    HW286171  10.359  12.695  11.544
61447SOL     OW86172  13.316   2.275   2.238
61447SOL    HW186173  13.237   2.278   2.293
61447SOL    HW286174  13.284   2.249   2.152
61448SOL     OW86175   6.510   5.672  10.091
61448SOL    HW186176   6.519   5.760  10.054
61448SOL    HW286177   6.565   5.673  10.170
61449SOL     OW86178   5.599  14.067   9.294
61449SOL    HW186179   5.668  14.056   9.359
61449SOL    HW286180   5.636  14.033   9.213
61450SOL     OW86181   9.429   0.346  10.952
61450SOL    HW186182   9.405   0.391  11.033
61450SOL    HW286183   9.356   0.287  10.935
61451SOL     OW86184   2.233   1.252   9.214
61451SOL    HW186185   2.279   1.183   9.166
61451SOL    HW286186   2.199   1.208   9.292
61452SOL     OW86187   4.766   4.446  12.389
61452SOL    HW186188   4.776   4.404  12.303
61452SOL    HW286189   4.855   4.469  12.415
61453SOL     OW86190   2.410   1.842   1.313
61453SOL    HW186191   2.382   1.931   1.288
61453SOL    HW286192   2.388   1.836   1.406
61454SOL     OW86193   1.163   7.073  12.475
61454SOL    HW186194   1.250   7.106  12.494
61454SOL    HW286195   1.178   6.987  12.435
61455SOL     OW86196   5.029  13.582   6.556
61455SOL    HW186197   5.013  13.501   6.604
61455SOL    HW286198   4.984  13.569   6.472
61456SOL     OW86199   7.535  11.168   9.560
61456SOL    HW186200   7.458  11.180   9.505
61456SOL    HW286201   7.513  11.094   9.617
61457SOL     OW86202   2.421   7.384  10.259
61457SOL    HW186203   2.374   7.461  10.292
61457SOL    HW286204   2.425   7.325  10.335
61458SOL     OW86205  11.486   7.332  10.624
61458SOL    HW186206  11.525   7.419  10.632
61458SOL    HW286207  11.556   7.272  10.647
61459SOL     OW86208  12.966  14.456   8.036
61459SOL    HW186209  13.053  14.451   7.997
61459SOL    HW286210  12.978  14.425   8.126
61460SOL     OW86211   5.720  12.920   6.745
61460SOL    HW186212   5.787  12.866   6.705
61460SOL    HW286213   5.643  12.908   6.690
61461SOL     OW86214  14.816   3.822   4.800
61461SOL    HW186215  14.798   3.733   4.831
61461SOL    HW286216  14.780   3.824   4.711
61462SOL     OW86217   4.658   2.914   5.713
61462SOL    HW186218   4.620   2.828   5.695
61462SOL    HW286219   4.752   2.898   5.721
61463SOL     OW86220   6.970  11.708   1.417
61463SOL    HW186221   6.943  11.777   1.479
61463SOL    HW286222   6.888  11.679   1.377
61464SOL     OW86223   1.499   3.813  11.915
61464SOL    HW186224   1.450   3.795  11.996
61464SOL    HW286225   1.440   3.788  11.845
61465SOL     OW86226  10.899   3.069  12.120
61465SOL    HW186227  10.984   3.060  12.162
61465SOL    HW286228  10.841   3.012  12.171
61466SOL     OW86229  11.968   1.625   0.871
61466SOL    HW186230  11.898   1.650   0.810
61466SOL    HW286231  12.036   1.589   0.815
61467SOL     OW86232  11.063   7.078   1.301
61467SOL    HW186233  11.037   6.987   1.314
61467SOL    HW286234  11.072   7.114   1.389
61468SOL     OW86235   3.181   8.552   8.107
61468SOL    HW186236   3.276   8.557   8.118
61468SOL    HW286237   3.146   8.598   8.183
61469SOL     OW86238  14.786   8.184   3.152
61469SOL    HW186239  14.860   8.235   3.186
61469SOL    HW286240  14.822   8.135   3.078
61470SOL     OW86241  13.784   1.820   9.837
61470SOL    HW186242  13.692   1.799   9.821
61470SOL    HW286243  13.783   1.909   9.872
61471SOL     OW86244  13.449   1.471   7.648
61471SOL    HW186245  13.464   1.560   7.679
61471SOL    HW286246  13.480   1.472   7.557
61472SOL     OW86247  10.211   7.503   4.345
61472SOL    HW186248  10.230   7.542   4.430
61472SOL    HW286249  10.132   7.549   4.315
61473SOL     OW86250  13.909   9.806  14.016
61473SOL    HW186251  13.998   9.834  14.034
61473SOL    HW286252  13.903   9.805  13.920
61474SOL     OW86253   4.779   3.875  13.268
61474SOL    HW186254   4.869   3.902  13.251
61474SOL    HW286255   4.787   3.786  13.303
61475SOL     OW86256  10.777   4.254   3.174
61475SOL    HW186257  10.747   4.344   3.191
61475SOL    HW286258  10.725   4.226   3.099
61476SOL     OW86259   4.549  13.888   0.008
61476SOL    HW186260   4.456  13.900   0.028
61476SOL    HW286261   4.550  13.820  14.822
61477SOL     OW86262  12.972   1.547   7.649
61477SOL    HW186263  13.001   1.634   7.677
61477SOL    HW286264  12.934   1.508   7.727
61478SOL     OW86265   0.520   3.386   7.242
61478SOL    HW186266   0.585   3.334   7.195
61478SOL    HW286267   0.569   3.424   7.315
61479SOL     OW86268   3.211   3.787   2.985
61479SOL    HW186269   3.210   3.794   3.080
61479SOL    HW286270   3.287   3.732   2.966
61480SOL     OW86271   2.353  10.764   9.229
61480SOL    HW186272   2.286  10.807   9.281
61480SOL    HW286273   2.309  10.737   9.148
61481SOL     OW86274   0.353   1.959   4.896
61481SOL    HW186275   0.327   1.924   4.811
61481SOL    HW286276   0.395   1.886   4.941
61482SOL     OW86277  12.590   0.942  11.709
61482SOL    HW186278  12.600   0.960  11.803
61482SOL    HW286279  12.676   0.911  11.681
61483SOL     OW86280   7.723   2.069  12.112
61483SOL    HW186281   7.650   2.126  12.089
61483SOL    HW286282   7.693   1.981  12.088
61484SOL     OW86283   2.917  12.364   7.173
61484SOL    HW186284   2.943  12.351   7.264
61484SOL    HW286285   2.838  12.312   7.162
61485SOL     OW86286   5.808  14.770   2.540
61485SOL    HW186287   5.845  14.748   2.455
61485SOL    HW286288   5.722  14.809   2.520
61486SOL     OW86289   0.164   2.638   4.210
61486SOL    HW186290   0.114   2.716   4.184
61486SOL    HW286291   0.255   2.659   4.189
61487SOL     OW86292   5.184   5.959  12.016
61487SOL    HW186293   5.167   6.021  12.087
61487SOL    HW286294   5.254   6.000  11.965
61488SOL     OW86295   0.303   6.090  13.116
61488SOL    HW186296   0.282   6.163  13.057
61488SOL    HW286297   0.367   6.126  13.177
61489SOL     OW86298  11.043   2.057  14.605
61489SOL    HW186299  11.112   2.006  14.561
61489SOL    HW286300  10.972   1.994  14.618
61490SOL     OW86301   6.594  14.540   6.377
61490SOL    HW186302   6.504  14.549   6.409
61490SOL    HW286303   6.623  14.630   6.362
61491SOL     OW86304  14.612   8.903   0.918
61491SOL    HW186305  14.657   8.951   0.988
61491SOL    HW286306  14.635   8.951   0.839
61492SOL     OW86307   9.596   0.078   1.422
61492SOL    HW186308   9.602  14.872   1.384
61492SOL    HW286309   9.626   0.068   1.512
61493SOL     OW86310  10.500  10.723   9.914
61493SOL    HW186311  10.539  10.798   9.870
61493SOL    HW286312  10.567  10.693   9.976
61494SOL     OW86313  14.466   6.304   4.581
61494SOL    HW186314  14.386   6.274   4.623
61494SOL    HW286315  14.466   6.260   4.495
61495SOL     OW86316   8.947   4.821   7.628
61495SOL    HW186317   8.965   4.915   7.617
61495SOL    HW286318   9.025   4.786   7.670
61496SOL     OW86319   8.284   8.041   6.504
61496SOL    HW186320   8.243   7.965   6.546
61496SOL    HW286321   8.214   8.080   6.452
61497SOL     OW86322   7.100  14.450  13.301
61497SOL    HW186323   7.035  14.508  13.262
61497SOL    HW286324   7.062  14.423  13.384
61498SOL     OW86325   8.552   2.406   9.675
61498SOL    HW186326   8.539   2.455   9.594
61498SOL    HW286327   8.465   2.404   9.716
61499SOL     OW86328  11.896  10.294   5.828
61499SOL    HW186329  11.966  10.254   5.777
61499SOL    HW286330  11.926  10.383   5.845
61500SOL     OW86331  10.590   3.924   3.012
61500SOL    HW186332  10.596   3.878   2.928
61500SOL    HW286333  10.622   4.013   2.993
61501SOL     OW86334   8.425   1.487   2.893
61501SOL    HW186335   8.390   1.574   2.914
61501SOL    HW286336   8.378   1.460   2.814
61502SOL     OW86337  12.076   8.626   5.883
61502SOL    HW186338  12.054   8.591   5.969
61502SOL    HW286339  12.079   8.721   5.896
61503SOL     OW86340   5.882   8.864   5.595
61503SOL    HW186341   5.967   8.879   5.637
61503SOL    HW286342   5.818   8.901   5.657
61504SOL     OW86343  12.484   9.775   6.220
61504SOL    HW186344  12.555   9.772   6.156
61504SOL    HW286345  12.469   9.868   6.235
61505SOL     OW86346  12.466   6.348   7.363
61505SOL    HW186347  12.409   6.337   7.440
61505SOL    HW286348  12.498   6.438   7.369
61506SOL     OW86349   3.944   1.401   6.226
61506SOL    HW186350   3.981   1.476   6.273
61506SOL    HW286351   3.967   1.416   6.134
61507SOL     OW86352  14.045  10.712  12.864
61507SOL    HW186353  13.990  10.638  12.842
61507SOL    HW286354  14.046  10.714  12.960
61508SOL     OW86355  10.753   3.346  10.677
61508SOL    HW186356  10.672   3.301  10.701
61508SOL    HW286357  10.771   3.316  10.588
61509SOL     OW86358  12.280  14.610  10.393
61509SOL    HW186359  12.322  14.595  10.308
61509SOL    HW286360  12.226  14.532  10.406
61510SOL     OW86361   3.815  11.994   2.955
61510SOL    HW186362   3.826  12.085   2.928
61510SOL    HW286363   3.747  11.959   2.898
61511SOL     OW86364   6.317   4.460  14.283
61511SOL    HW186365   6.302   4.406  14.206
61511SOL    HW286366   6.395   4.423  14.324
61512SOL     OW86367   6.272  13.364  12.005
61512SOL    HW186368   6.185  13.333  12.028
61512SOL    HW286369   6.259  13.454  11.975
61513SOL     OW86370   4.657  14.358  12.269
61513SOL    HW186371   4.740  14.373  12.223
61513SOL    HW286372   4.592  14.355  12.199
61514SOL     OW86373   1.165  12.740  12.704
61514SOL    HW186374   1.135  12.683  12.633
61514SOL    HW286375   1.111  12.715  12.779
61515SOL     OW86376  12.718   3.341   9.127
61515SOL    HW186377  12.733   3.301   9.213
61515SOL    HW286378  12.645   3.291   9.090
61516SOL     OW86379   3.927   5.765   8.465
61516SOL    HW186380   3.924   5.721   8.380
61516SOL    HW286381   3.878   5.708   8.523
61517SOL     OW86382  10.230   8.036   9.054
61517SOL    HW186383  10.142   8.066   9.034
61517SOL    HW286384  10.279   8.116   9.074
61518SOL     OW86385   7.168   9.686   0.788
61518SOL    HW186386   7.261   9.688   0.811
61518SOL    HW286387   7.162   9.733   0.705
61519SOL     OW86388   5.534   4.603   9.673
61519SOL    HW186389   5.487   4.667   9.619
61519SOL    HW286390   5.590   4.655   9.729
61520SOL     OW86391   2.572   1.151   3.928
61520SOL    HW186392   2.627   1.207   3.982
61520SOL    HW286393   2.483   1.172   3.955
61521SOL     OW86394   4.555   1.459   9.684
61521SOL    HW186395   4.484   1.429   9.740
61521SOL    HW286396   4.597   1.379   9.654
61522SOL     OW86397  14.767  13.503  11.525
61522SOL    HW186398  14.808  13.515  11.611
61522SOL    HW286399  14.675  13.527  11.539
61523SOL     OW86400   8.014   6.330   1.340
61523SOL    HW186401   7.967   6.323   1.422
61523SOL    HW286402   8.025   6.424   1.326
61524SOL     OW86403   1.134   2.286   1.663
61524SOL    HW186404   1.230   2.291   1.666
61524SOL    HW286405   1.115   2.195   1.643
61525SOL     OW86406   6.305   1.239   7.590
61525SOL    HW186407   6.279   1.224   7.499
61525SOL    HW286408   6.357   1.163   7.614
61526SOL     OW86409  11.833  13.689  12.487
61526SOL    HW186410  11.900  13.621  12.491
61526SOL    HW286411  11.758  13.652  12.534
61527SOL     OW86412   7.778  11.310   9.979
61527SOL    HW186413   7.720  11.340   9.910
61527SOL    HW286414   7.860  11.287   9.934
61528SOL     OW86415   3.962   3.094   0.511
61528SOL    HW186416   4.056   3.076   0.516
61528SOL    HW286417   3.926   3.021   0.461
61529SOL     OW86418   4.307   1.872  11.899
61529SOL    HW186419   4.253   1.834  11.830
61529SOL    HW286420   4.350   1.947  11.859
61530SOL     OW86421  13.840  12.793   4.703
61530SOL    HW186422  13.836  12.796   4.608
61530SOL    HW286423  13.767  12.848   4.732
61531SOL     OW86424   0.479  10.739   8.479
61531SOL    HW186425   0.390  10.712   8.456
61531SOL    HW286426   0.506  10.678   8.548
61532SOL     OW86427  12.736   5.107  12.268
61532SOL    HW186428  12.674   5.086  12.199
61532SOL    HW286429  12.788   5.179  12.233
61533SOL     OW86430   2.857  11.207   9.135
61533SOL    HW186431   2.895  11.285   9.176
61533SOL    HW286432   2.874  11.136   9.197
61534SOL     OW86433   9.087   2.341  12.412
61534SOL    HW186434   9.167   2.378  12.449
61534SOL    HW286435   9.036   2.312  12.488
61535SOL     OW86436   9.027   7.095   0.682
61535SOL    HW186437   8.989   7.115   0.768
61535SOL    HW286438   9.044   7.001   0.685
61536SOL     OW86439   5.559   2.510   3.740
61536SOL    HW186440   5.540   2.507   3.646
61536SOL    HW286441   5.518   2.592   3.770
61537SOL     OW86442   9.061   6.314   1.396
61537SOL    HW186443   9.027   6.290   1.310
61537SOL    HW286444   9.122   6.386   1.379
61538SOL     OW86445   6.420  13.443   0.217
61538SOL    HW186446   6.442  13.518   0.162
61538SOL    HW286447   6.404  13.372   0.155
61539SOL     OW86448   5.124  14.816  11.848
61539SOL    HW186449   5.210  14.822  11.805
61539SOL    HW286450   5.062  14.808  11.775
61540SOL     OW86451   8.408   4.529   4.604
61540SOL    HW186452   8.333   4.487   4.562
61540SOL    HW286453   8.483   4.474   4.582
61541SOL     OW86454  12.146  13.703   4.372
61541SOL    HW186455  12.197  13.701   4.291
61541SOL    HW286456  12.210  13.692   4.442
61542SOL     OW86457   2.148  11.775   9.457
61542SOL    HW186458   2.054  11.781   9.437
61542SOL    HW286459   2.166  11.851   9.511
61543SOL     OW86460  14.644   4.528   2.713
61543SOL    HW186461  14.642   4.497   2.804
61543SOL    HW286462  14.623   4.622   2.719
61544SOL     OW86463  12.178   6.240   2.769
61544SOL    HW186464  12.160   6.153   2.732
61544SOL    HW286465  12.216   6.289   2.697
61545SOL     OW86466   9.020   4.763   1.755
61545SOL    HW186467   9.071   4.683   1.743
61545SOL    HW286468   9.004   4.767   1.850
61546SOL     OW86469  13.070   0.517   9.095
61546SOL    HW186470  13.100   0.427   9.111
61546SOL    HW286471  13.039   0.547   9.181
61547SOL     OW86472   4.273   4.496   8.692
61547SOL    HW186473   4.268   4.485   8.787
61547SOL    HW286474   4.360   4.533   8.677
61548SOL     OW86475  13.113  12.727   1.242
61548SOL    HW186476  13.061  12.688   1.172
61548SOL    HW286477  13.188  12.668   1.252
61549SOL     OW86478  10.295   6.119   0.187
61549SOL    HW186479  10.372   6.073   0.222
61549SOL    HW286480  10.281   6.079   0.101
61550SOL     OW86481   8.718   3.284   8.188
61550SOL    HW186482   8.754   3.209   8.236
61550SOL    HW286483   8.623   3.276   8.199
61551SOL     OW86484   4.205  12.698   9.966
61551SOL    HW186485   4.284  12.644   9.959
61551SOL    HW286486   4.134  12.642   9.935
61552SOL     OW86487  12.309  14.347  12.732
61552SOL    HW186488  12.348  14.342  12.644
61552SOL    HW286489  12.383  14.360  12.791
61553SOL     OW86490   7.377   3.298   9.349
61553SOL    HW186491   7.468   3.271   9.345
61553SOL    HW286492   7.358   3.335   9.263
61554SOL     OW86493  13.548   7.621  11.652
61554SOL    HW186494  13.513   7.687  11.712
61554SOL    HW286495  13.625   7.586  11.697
61555SOL     OW86496   0.159   8.160   9.671
61555SOL    HW186497   0.077   8.161   9.621
61555SOL    HW286498   0.188   8.069   9.669
61556SOL     OW86499   9.254   2.339   7.922
61556SOL    HW186500   9.175   2.385   7.950
61556SOL    HW286501   9.223   2.272   7.861
61557SOL     OW86502  13.397   6.971  10.262
61557SOL    HW186503  13.336   6.902  10.235
61557SOL    HW286504  13.471   6.924  10.300
61558SOL     OW86505   6.255   5.868   6.986
61558SOL    HW186506   6.260   5.870   6.891
61558SOL    HW286507   6.244   5.960   7.011
61559SOL     OW86508  11.252   3.977   3.619
61559SOL    HW186509  11.192   3.903   3.606
61559SOL    HW286510  11.269   4.010   3.531
61560SOL     OW86511   0.873   5.328   9.169
61560SOL    HW186512   0.961   5.353   9.198
61560SOL    HW286513   0.887   5.286   9.083
61561SOL     OW86514   4.857   4.697   6.822
61561SOL    HW186515   4.893   4.773   6.868
61561SOL    HW286516   4.762   4.702   6.839
61562SOL     OW86517   3.808  14.117  12.373
61562SOL    HW186518   3.887  14.169  12.389
61562SOL    HW286519   3.742  14.181  12.349
61563SOL     OW86520   1.116  13.905  12.277
61563SOL    HW186521   1.157  13.948  12.201
61563SOL    HW286522   1.121  13.971  12.347
61564SOL     OW86523   1.247  10.928   8.191
61564SOL    HW186524   1.200  10.845   8.196
61564SOL    HW286525   1.307  10.927   8.265
61565SOL     OW86526   8.497   6.437  10.561
61565SOL    HW186527   8.464   6.470  10.478
61565SOL    HW286528   8.585   6.474  10.569
61566SOL     OW86529   1.567   5.846  13.710
61566SOL    HW186530   1.615   5.862  13.629
61566SOL    HW286531   1.598   5.761  13.740
61567SOL     OW86532   9.615   5.149  13.295
61567SOL    HW186533   9.611   5.170  13.388
61567SOL    HW286534   9.530   5.109  13.275
61568SOL     OW86535   4.177  10.515   7.847
61568SOL    HW186536   4.219  10.588   7.892
61568SOL    HW286537   4.109  10.557   7.793
61569SOL     OW86538  14.771   5.477   7.223
61569SOL    HW186539  14.805   5.539   7.159
61569SOL    HW286540  14.823   5.398   7.211
61570SOL     OW86541   5.536   6.371  11.631
61570SOL    HW186542   5.524   6.424  11.552
61570SOL    HW286543   5.534   6.280  11.599
61571SOL     OW86544   1.418   3.504   0.634
61571SOL    HW186545   1.427   3.412   0.661
61571SOL    HW286546   1.349   3.538   0.690
61572SOL     OW86547   4.938   7.195   6.022
61572SOL    HW186548   4.882   7.258   5.976
61572SOL    HW286549   5.005   7.171   5.958
61573SOL     OW86550   6.346   7.503   3.469
61573SOL    HW186551   6.355   7.560   3.545
61573SOL    HW286552   6.311   7.422   3.503
61574SOL     OW86553   3.037   1.188   0.958
61574SOL    HW186554   2.980   1.189   1.034
61574SOL    HW286555   3.035   1.278   0.926
61575SOL     OW86556  13.403  10.765   4.562
61575SOL    HW186557  13.420  10.813   4.481
61575SOL    HW286558  13.451  10.683   4.552
61576SOL     OW86559   5.209  10.767   6.655
61576SOL    HW186560   5.170  10.854   6.665
61576SOL    HW286561   5.169  10.731   6.576
61577SOL     OW86562   6.745  12.171   8.519
61577SOL    HW186563   6.751  12.128   8.604
61577SOL    HW286564   6.758  12.264   8.539
61578SOL     OW86565   1.280   6.933   6.448
61578SOL    HW186566   1.321   6.967   6.528
61578SOL    HW286567   1.228   7.006   6.415
61579SOL     OW86568   4.063   8.475   3.337
61579SOL    HW186569   4.058   8.392   3.385
61579SOL    HW286570   4.153   8.479   3.305
61580SOL     OW86571   9.022  12.414   2.602
61580SOL    HW186572   9.019  12.326   2.641
61580SOL    HW286573   9.026  12.398   2.508
61581SOL     OW86574   1.368   1.137  14.372
61581SOL    HW186575   1.330   1.223  14.388
61581SOL    HW286576   1.460   1.147  14.397
61582SOL     OW86577  13.846  12.338   0.900
61582SOL    HW186578  13.917  12.323   0.962
61582SOL    HW286579  13.807  12.252   0.886
61583SOL     OW86580   7.734   2.384  10.802
61583SOL    HW186581   7.705   2.328  10.875
61583SOL    HW286582   7.661   2.442  10.786
61584SOL     OW86583   9.340   7.644   0.200
61584SOL    HW186584   9.315   7.580   0.133
61584SOL    HW286585   9.371   7.719   0.150
61585SOL     OW86586   7.150   0.802   5.115
61585SOL    HW186587   7.137   0.707   5.112
61585SOL    HW286588   7.066   0.839   5.086
61586SOL     OW86589   0.009  13.217   4.063
61586SOL    HW186590   0.093  13.179   4.090
61586SOL    HW286591   0.012  13.307   4.096
61587SOL     OW86592   2.250   0.755   9.457
61587SOL    HW186593   2.197   0.835   9.453
61587SOL    HW286594   2.293   0.751   9.371
61588SOL     OW86595  10.369   7.573   8.989
61588SOL    HW186596  10.297   7.635   9.005
61588SOL    HW286597  10.331   7.487   9.007
61589SOL     OW86598  11.738   3.499  13.360
61589SOL    HW186599  11.727   3.593  13.349
61589SOL    HW286600  11.803   3.474  13.295
61590SOL     OW86601   2.002   1.915   2.705
61590SOL    HW186602   2.052   1.876   2.633
61590SOL    HW286603   1.944   1.978   2.662
61591SOL     OW86604   0.931   0.854   8.857
61591SOL    HW186605   1.006   0.897   8.816
61591SOL    HW286606   0.858   0.914   8.843
61592SOL     OW86607  12.902  11.908   8.645
61592SOL    HW186608  12.940  11.985   8.602
61592SOL    HW286609  12.808  11.922   8.640
61593SOL     OW86610  11.381   8.007  13.094
61593SOL    HW186611  11.310   8.072  13.098
61593SOL    HW286612  11.360   7.944  13.162
61594SOL     OW86613   3.027   8.355  13.684
61594SOL    HW186614   3.098   8.361  13.620
61594SOL    HW286615   2.953   8.398  13.641
61595SOL     OW86616   6.380   7.871  14.360
61595SOL    HW186617   6.434   7.906  14.431
61595SOL    HW286618   6.409   7.781  14.350
61596SOL     OW86619   3.904  11.113  11.795
61596SOL    HW186620   3.886  11.207  11.794
61596SOL    HW286621   3.822  11.073  11.822
61597SOL     OW86622   0.698  11.901   8.263
61597SOL    HW186623   0.700  11.933   8.173
61597SOL    HW286624   0.754  11.962   8.312
61598SOL     OW86625   5.615  12.554   1.246
61598SOL    HW186626   5.584  12.524   1.160
61598SOL    HW286627   5.624  12.474   1.297
61599SOL     OW86628   1.210   0.361   0.406
61599SOL    HW186629   1.207   0.431   0.341
61599SOL    HW286630   1.152   0.293   0.370
61600SOL     OW86631   9.163   4.299   3.964
61600SOL    HW186632   9.097   4.267   4.025
61600SOL    HW286633   9.174   4.391   3.987
61601SOL     OW86634   4.019   0.926   7.476
61601SOL    HW186635   4.083   0.919   7.547
61601SOL    HW286636   4.063   0.980   7.410
61602SOL     OW86637   1.661  10.667   7.172
61602SOL    HW186638   1.679  10.578   7.140
61602SOL    HW286639   1.594  10.700   7.113
61603SOL     OW86640   5.681   5.662   0.271
61603SOL    HW186641   5.605   5.607   0.250
61603SOL    HW286642   5.651   5.718   0.342
61604SOL     OW86643   6.726  12.077   0.306
61604SOL    HW186644   6.635  12.084   0.335
61604SOL    HW286645   6.742  11.983   0.302
61605SOL     OW86646  14.350  10.064   4.516
61605SOL    HW186647  14.265  10.027   4.538
61605SOL    HW286648  14.382  10.009   4.444
61606SOL     OW86649  11.188   2.060   3.317
61606SOL    HW186650  11.133   1.982   3.306
61606SOL    HW286651  11.259   2.032   3.375
61607SOL     OW86652   2.772   8.498   7.839
61607SOL    HW186653   2.852   8.487   7.890
61607SOL    HW286654   2.802   8.504   7.748
61608SOL     OW86655   4.784   1.746   9.301
61608SOL    HW186656   4.756   1.719   9.388
61608SOL    HW286657   4.827   1.830   9.314
61609SOL     OW86658  11.202   7.220   6.289
61609SOL    HW186659  11.139   7.199   6.220
61609SOL    HW286660  11.258   7.288   6.251
61610SOL     OW86661   0.263   4.772   3.970
61610SOL    HW186662   0.316   4.732   4.040
61610SOL    HW286663   0.246   4.861   4.003
61611SOL     OW86664  10.769  11.218  11.950
61611SOL    HW186665  10.858  11.227  11.916
61611SOL    HW286666  10.762  11.127  11.978
61612SOL     OW86667  14.193   6.486  10.101
61612SOL    HW186668  14.229   6.530  10.025
61612SOL    HW286669  14.259   6.498  10.169
61613SOL     OW86670   7.346   3.441   6.803
61613SOL    HW186671   7.356   3.350   6.775
61613SOL    HW286672   7.258   3.446   6.840
61614SOL     OW86673   3.614   9.504   8.480
61614SOL    HW186674   3.620   9.471   8.391
61614SOL    HW286675   3.630   9.427   8.535
61615SOL     OW86676   6.708   7.969  11.254
61615SOL    HW186677   6.781   8.008  11.302
61615SOL    HW286678   6.645   7.944  11.322
61616SOL     OW86679   3.401  13.390   8.784
61616SOL    HW186680   3.354  13.441   8.849
61616SOL    HW286681   3.334  13.360   8.723
61617SOL     OW86682  10.911   9.484   7.879
61617SOL    HW186683  10.953   9.512   7.798
61617SOL    HW286684  10.983   9.462   7.938
61618SOL     OW86685  10.921   1.423   9.587
61618SOL    HW186686  10.958   1.486   9.526
61618SOL    HW286687  10.991   1.407   9.651
61619SOL     OW86688   6.533   9.300   9.346
61619SOL    HW186689   6.496   9.386   9.327
61619SOL    HW286690   6.463   9.239   9.324
61620SOL     OW86691  12.030   6.302   6.878
61620SOL    HW186692  12.124   6.322   6.869
61620SOL    HW286693  11.986   6.374   6.833
61621SOL     OW86694   7.449   1.911   4.330
61621SOL    HW186695   7.520   1.938   4.271
61621SOL    HW286696   7.470   1.955   4.412
61622SOL     OW86697   0.805  13.472  13.979
61622SOL    HW186698   0.896  13.499  13.990
61622SOL    HW286699   0.755  13.536  14.030
61623SOL     OW86700   6.876   4.113   5.170
61623SOL    HW186701   6.909   4.140   5.256
61623SOL    HW286702   6.949   4.064   5.131
61624SOL     OW86703   9.286   5.807  10.184
61624SOL    HW186704   9.223   5.822  10.113
61624SOL    HW286705   9.237   5.824  10.264
61625SOL     OW86706  10.980   3.278   2.479
61625SOL    HW186707  11.062   3.322   2.460
61625SOL    HW286708  10.914   3.329   2.432
61626SOL     OW86709   3.736   7.685   5.587
61626SOL    HW186710   3.735   7.680   5.683
61626SOL    HW286711   3.827   7.666   5.564
61627SOL     OW86712  13.706  10.921   1.117
61627SOL    HW186713  13.660  11.002   1.142
61627SOL    HW286714  13.647  10.851   1.145
61628SOL     OW86715  14.003  12.399   1.321
61628SOL    HW186716  14.003  12.364   1.232
61628SOL    HW286717  14.060  12.339   1.370
61629SOL     OW86718   9.274   3.437   2.777
61629SOL    HW186719   9.276   3.378   2.852
61629SOL    HW286720   9.288   3.524   2.814
61630SOL     OW86721   5.038   3.568   5.785
61630SOL    HW186722   4.950   3.553   5.819
61630SOL    HW286723   5.096   3.523   5.847
61631SOL     OW86724   8.130   9.468  10.274
61631SOL    HW186725   8.037   9.481  10.254
61631SOL    HW286726   8.166   9.557  10.276
61632SOL     OW86727   4.727  14.145   5.915
61632SOL    HW186728   4.743  14.051   5.919
61632SOL    HW286729   4.668  14.156   5.840
61633SOL     OW86730   9.920   8.210  10.388
61633SOL    HW186731   9.893   8.283  10.445
61633SOL    HW286732   9.882   8.231  10.303
61634SOL     OW86733   7.723  14.269   1.808
61634SOL    HW186734   7.685  14.273   1.720
61634SOL    HW286735   7.710  14.356   1.844
61635SOL     OW86736   2.585   3.997  12.689
61635SOL    HW186737   2.671   4.011  12.649
61635SOL    HW286738   2.532   4.071  12.658
61636SOL     OW86739   1.491  10.326   0.478
61636SOL    HW186740   1.416  10.363   0.525
61636SOL    HW286741   1.479  10.231   0.485
61637SOL     OW86742  12.626   0.825   3.007
61637SOL    HW186743  12.599   0.910   2.973
61637SOL    HW286744  12.590   0.823   3.096
61638SOL     OW86745   4.426   1.168  12.351
61638SOL    HW186746   4.464   1.241  12.302
61638SOL    HW286747   4.486   1.157  12.425
61639SOL     OW86748   8.529   4.578   6.734
61639SOL    HW186749   8.614   4.547   6.764
61639SOL    HW286750   8.513   4.658   6.783
61640SOL     OW86751  12.035  13.199   3.952
61640SOL    HW186752  12.024  13.242   3.867
61640SOL    HW286753  11.946  13.177   3.980
61641SOL     OW86754   6.033   3.732   1.766
61641SOL    HW186755   6.039   3.770   1.854
61641SOL    HW286756   6.020   3.638   1.781
61642SOL     OW86757   9.169   8.424  10.289
61642SOL    HW186758   9.124   8.358  10.342
61642SOL    HW286759   9.147   8.402  10.199
61643SOL     OW86760   5.967   2.998   9.633
61643SOL    HW186761   5.934   3.002   9.723
61643SOL    HW286762   5.889   3.001   9.578
61644SOL     OW86763   3.772  13.517  11.725
61644SOL    HW186764   3.748  13.605  11.697
61644SOL    HW286765   3.688  13.475  11.747
61645SOL     OW86766   8.551   1.500   8.392
61645SOL    HW186767   8.543   1.411   8.357
61645SOL    HW286768   8.599   1.548   8.324
61646SOL     OW86769  10.932  13.681   8.327
61646SOL    HW186770  10.863  13.746   8.324
61646SOL    HW286771  10.917  13.627   8.249
61647SOL     OW86772   9.289   6.760  12.047
61647SOL    HW186773   9.319   6.814  11.974
61647SOL    HW286774   9.196   6.746  12.029
61648SOL     OW86775   7.032   2.677   8.780
61648SOL    HW186776   6.993   2.690   8.694
61648SOL    HW286777   7.121   2.712   8.772
61649SOL     OW86778   9.181   4.363   1.216
61649SOL    HW186779   9.097   4.320   1.227
61649SOL    HW286780   9.171   4.415   1.136
61650SOL     OW86781   4.234  10.650  10.861
61650SOL    HW186782   4.280  10.713  10.806
61650SOL    HW286783   4.267  10.565  10.834
61651SOL     OW86784  12.838  12.290   5.429
61651SOL    HW186785  12.917  12.242   5.453
61651SOL    HW286786  12.824  12.269   5.337
61652SOL     OW86787   5.327  13.776  13.540
61652SOL    HW186788   5.408  13.817  13.509
61652SOL    HW286789   5.353  13.685  13.559
61653SOL     OW86790  12.894   7.155  14.112
61653SOL    HW186791  12.916   7.196  14.029
61653SOL    HW286792  12.949   7.200  14.177
61654SOL     OW86793  10.692   5.403   4.562
61654SOL    HW186794  10.776   5.411   4.607
61654SOL    HW286795  10.626   5.414   4.630
61655SOL     OW86796   4.791   1.219   9.398
61655SOL    HW186797   4.712   1.239   9.349
61655SOL    HW286798   4.861   1.263   9.351
61656SOL     OW86799   7.069   6.231  10.254
61656SOL    HW186800   6.993   6.211  10.309
61656SOL    HW286801   7.050   6.319  10.220
61657SOL     OW86802   5.888   0.813   2.685
61657SOL    HW186803   5.889   0.797   2.590
61657SOL    HW286804   5.884   0.726   2.724
61658SOL     OW86805   2.524   3.033   9.595
61658SOL    HW186806   2.571   3.113   9.620
61658SOL    HW286807   2.495   2.996   9.678
61659SOL     OW86808  11.710   6.653  10.906
61659SOL    HW186809  11.762   6.723  10.944
61659SOL    HW286810  11.763   6.620  10.833
61660SOL     OW86811   8.029   4.128  13.176
61660SOL    HW186812   7.963   4.195  13.162
61660SOL    HW286813   8.045   4.130  13.271
61661SOL     OW86814   8.927   2.043  12.014
61661SOL    HW186815   8.952   2.134  11.998
61661SOL    HW286816   8.916   2.037  12.109
61662SOL     OW86817  11.919   3.403   6.758
61662SOL    HW186818  11.894   3.463   6.828
61662SOL    HW286819  11.900   3.316   6.792
61663SOL     OW86820   5.838   7.914  12.094
61663SOL    HW186821   5.831   7.954  12.180
61663SOL    HW286822   5.931   7.921  12.072
61664SOL     OW86823  12.334  14.236   8.684
61664SOL    HW186824  12.291  14.305   8.634
61664SOL    HW286825  12.265  14.170   8.697
61665SOL     OW86826  13.703  14.320   0.659
61665SOL    HW186827  13.726  14.383   0.591
61665SOL    HW286828  13.734  14.236   0.625
61666SOL     OW86829  11.550  12.462   6.224
61666SOL    HW186830  11.638  12.485   6.252
61666SOL    HW286831  11.494  12.530   6.261
61667SOL     OW86832   7.448   2.356   5.912
61667SOL    HW186833   7.432   2.450   5.921
61667SOL    HW286834   7.362   2.318   5.898
61668SOL     OW86835   2.214   7.369   5.548
61668SOL    HW186836   2.236   7.287   5.593
61668SOL    HW286837   2.155   7.341   5.478
61669SOL     OW86838   4.798   6.385  12.557
61669SOL    HW186839   4.702   6.389  12.555
61669SOL    HW286840   4.819   6.381  12.650
61670SOL     OW86841   7.298  10.686   8.087
61670SOL    HW186842   7.307  10.664   8.179
61670SOL    HW286843   7.280  10.602   8.044
61671SOL     OW86844   3.339   0.163   0.652
61671SOL    HW186845   3.404   0.231   0.634
61671SOL    HW286846   3.269   0.179   0.589
61672SOL     OW86847   6.460   1.521   6.441
61672SOL    HW186848   6.538   1.542   6.390
61672SOL    HW286849   6.495   1.479   6.520
61673SOL     OW86850   3.235   4.868   6.823
61673SOL    HW186851   3.189   4.920   6.757
61673SOL    HW286852   3.268   4.933   6.886
61674SOL     OW86853   4.172   6.481   2.965
61674SOL    HW186854   4.122   6.544   2.913
61674SOL    HW286855   4.222   6.431   2.900
61675SOL     OW86856  10.085   5.013   6.904
61675SOL    HW186857  10.118   5.038   6.817
61675SOL    HW286858  10.055   5.095   6.943
61676SOL     OW86859   4.380  10.787  10.236
61676SOL    HW186860   4.352  10.749  10.319
61676SOL    HW286861   4.356  10.722  10.170
61677SOL     OW86862   7.932   1.399  11.425
61677SOL    HW186863   7.860   1.425  11.483
61677SOL    HW286864   7.888   1.356  11.352
61678SOL     OW86865  11.085   5.601   7.479
61678SOL    HW186866  10.992   5.590   7.501
61678SOL    HW286867  11.085   5.669   7.411
61679SOL     OW86868  14.040  14.540   7.189
61679SOL    HW186869  14.014  14.591   7.266
61679SOL    HW286870  14.102  14.475   7.224
61680SOL     OW86871   0.503  13.598   0.521
61680SOL    HW186872   0.415  13.632   0.506
61680SOL    HW286873   0.510  13.593   0.617
61681SOL     OW86874   9.655  10.579  11.940
61681SOL    HW186875   9.612  10.493  11.940
61681SOL    HW286876   9.729  10.569  11.881
61682SOL     OW86877   0.789  12.086  10.081
61682SOL    HW186878   0.875  12.114  10.048
61682SOL    HW286879   0.766  12.011  10.026
61683SOL     OW86880   7.486  12.475   6.136
61683SOL    HW186881   7.548  12.410   6.170
61683SOL    HW286882   7.538  12.555   6.129
61684SOL     OW86883   7.773  12.503   0.594
61684SOL    HW186884   7.782  12.408   0.580
61684SOL    HW286885   7.846  12.526   0.652
61685SOL     OW86886   0.498   8.103  10.290
61685SOL    HW186887   0.587   8.069  10.277
61685SOL    HW286888   0.471   8.069  10.375
61686SOL     OW86889   4.379   3.204   9.093
61686SOL    HW186890   4.440   3.150   9.142
61686SOL    HW286891   4.387   3.174   9.003
61687SOL     OW86892  14.156  13.681  10.162
61687SOL    HW186893  14.103  13.617  10.209
61687SOL    HW286894  14.238  13.686  10.211
61688SOL     OW86895   5.540   7.469   1.539
61688SOL    HW186896   5.606   7.425   1.592
61688SOL    HW286897   5.491   7.397   1.499
61689SOL     OW86898   7.519  14.134   3.948
61689SOL    HW186899   7.452  14.200   3.961
61689SOL    HW286900   7.594  14.165   3.999
61690SOL     OW86901  13.666  10.098   0.385
61690SOL    HW186902  13.760  10.092   0.399
61690SOL    HW286903  13.642  10.187   0.413
61691SOL     OW86904   8.451   4.497   2.489
61691SOL    HW186905   8.400   4.443   2.550
61691SOL    HW286906   8.489   4.434   2.428
61692SOL     OW86907   2.160   2.077  12.142
61692SOL    HW186908   2.202   1.993  12.161
61692SOL    HW286909   2.081   2.054  12.093
61693SOL     OW86910  13.737   4.720   0.015
61693SOL    HW186911  13.819   4.745   0.058
61693SOL    HW286912  13.744   4.626   0.002
61694SOL     OW86913  12.876   6.015  12.610
61694SOL    HW186914  12.782   6.014  12.596
61694SOL    HW286915  12.906   6.098  12.573
61695SOL     OW86916  11.819   2.062   4.833
61695SOL    HW186917  11.825   2.117   4.754
61695SOL    HW286918  11.746   2.003   4.816
61696SOL     OW86919  10.090   3.539   9.668
61696SOL    HW186920  10.173   3.492   9.665
61696SOL    HW286921  10.103   3.606   9.735
61697SOL     OW86922   4.157  14.580   2.943
61697SOL    HW186923   4.188  14.519   2.876
61697SOL    HW286924   4.076  14.541   2.975
61698SOL     OW86925   4.367  10.508   2.422
61698SOL    HW186926   4.356  10.449   2.497
61698SOL    HW286927   4.343  10.455   2.346
61699SOL     OW86928  11.143   1.151  14.551
61699SOL    HW186929  11.088   1.197  14.615
61699SOL    HW286930  11.138   1.205  14.472
61700SOL     OW86931   2.766  10.755  10.503
61700SOL    HW186932   2.745  10.727  10.414
61700SOL    HW286933   2.804  10.842  10.492
61701SOL     OW86934  11.025  14.440  13.925
61701SOL    HW186935  10.994  14.350  13.931
61701SOL    HW286936  11.056  14.449  13.834
61702SOL     OW86937   6.192  13.561   0.603
61702SOL    HW186938   6.102  13.530   0.605
61702SOL    HW286939   6.199  13.610   0.521
61703SOL     OW86940   2.679   1.345  11.750
61703SOL    HW186941   2.723   1.404  11.689
61703SOL    HW286942   2.682   1.391  11.834
61704SOL     OW86943  11.582  11.426   8.096
61704SOL    HW186944  11.643  11.356   8.120
61704SOL    HW286945  11.526  11.386   8.029
61705SOL     OW86946   4.191  12.841   0.108
61705SOL    HW186947   4.113  12.895   0.096
61705SOL    HW286948   4.159  12.751   0.103
61706SOL     OW86949   5.257  12.631  11.449
61706SOL    HW186950   5.308  12.564  11.495
61706SOL    HW286951   5.320  12.675  11.392
61707SOL     OW86952   6.975  11.685   9.977
61707SOL    HW186953   7.056  11.699  10.026
61707SOL    HW286954   6.937  11.605  10.016
61708SOL     OW86955   6.225   7.662   1.393
61708SOL    HW186956   6.205   7.572   1.366
61708SOL    HW286957   6.146   7.692   1.437
61709SOL     OW86958  14.315  13.034  12.484
61709SOL    HW186959  14.374  13.009  12.554
61709SOL    HW286960  14.289  12.952  12.442
61710SOL     OW86961   6.419   6.199   7.211
61710SOL    HW186962   6.338   6.150   7.192
61710SOL    HW286963   6.388   6.285   7.238
61711SOL     OW86964   2.109   5.540  14.727
61711SOL    HW186965   2.178   5.511  14.788
61711SOL    HW286966   2.067   5.459  14.698
61712SOL     OW86967   2.036   5.172   5.949
61712SOL    HW186968   2.017   5.257   5.910
61712SOL    HW286969   1.957   5.150   5.999
61713SOL     OW86970  14.399   2.379  10.032
61713SOL    HW186971  14.345   2.456  10.053
61713SOL    HW286972  14.489   2.410  10.042
61714SOL     OW86973   7.583   5.076   9.069
61714SOL    HW186974   7.631   4.995   9.086
61714SOL    HW286975   7.641   5.126   9.011
61715SOL     OW86976   2.960  13.620   2.172
61715SOL    HW186977   2.992  13.549   2.116
61715SOL    HW286978   2.998  13.699   2.133
61716SOL     OW86979   4.252   5.985  13.628
61716SOL    HW186980   4.192   6.041  13.678
61716SOL    HW286981   4.330   5.978  13.682
61717SOL     OW86982  14.128  12.749   4.489
61717SOL    HW186983  14.155  12.834   4.522
61717SOL    HW286984  14.125  12.760   4.394
61718SOL     OW86985  12.857   4.801   5.045
61718SOL    HW186986  12.763   4.790   5.062
61718SOL    HW286987  12.862   4.874   4.983
61719SOL     OW86988  12.534  10.400  10.599
61719SOL    HW186989  12.454  10.370  10.555
61719SOL    HW286990  12.539  10.348  10.679
61720SOL     OW86991   6.831   7.964   2.991
61720SOL    HW186992   6.737   7.982   2.988
61720SOL    HW286993   6.869   8.042   3.030
61721SOL     OW86994  14.517   1.252   5.681
61721SOL    HW186995  14.481   1.244   5.769
61721SOL    HW286996  14.600   1.206   5.685
61722SOL     OW86997   8.050  12.584  10.553
61722SOL    HW186998   7.996  12.559  10.478
61722SOL    HW286999   8.032  12.677  10.565
61723SOL     OW87000   3.109  12.822   4.187
61723SOL    HW187001   3.043  12.850   4.124
61723SOL    HW287002   3.076  12.852   4.271
61724SOL     OW87003  10.390  14.194  14.536
61724SOL    HW187004  10.449  14.267  14.552
61724SOL    HW287005  10.341  14.219  14.458
61725SOL     OW87006   5.753   8.657   7.006
61725SOL    HW187007   5.769   8.745   7.038
61725SOL    HW287008   5.837   8.612   7.014
61726SOL     OW87009  12.350  11.247   5.285
61726SOL    HW187010  12.390  11.329   5.315
61726SOL    HW287011  12.276  11.233   5.344
61727SOL     OW87012   7.975   2.215   2.618
61727SOL    HW187013   7.963   2.287   2.556
61727SOL    HW287014   7.902   2.224   2.679
61728SOL     OW87015   3.380   2.110   5.020
61728SOL    HW187016   3.343   2.175   5.079
61728SOL    HW287017   3.403   2.160   4.941
61729SOL     OW87018  13.773   1.010  10.670
61729SOL    HW187019  13.677   1.006  10.661
61729SOL    HW287020  13.791   0.959  10.749
61730SOL     OW87021  11.057   0.550  12.429
61730SOL    HW187022  10.996   0.576  12.498
61730SOL    HW287023  11.026   0.465  12.399
61731SOL     OW87024   1.996  11.399   6.121
61731SOL    HW187025   2.031  11.485   6.099
61731SOL    HW287026   1.960  11.409   6.209
61732SOL     OW87027   6.269   2.422  10.719
61732SOL    HW187028   6.324   2.379  10.654
61732SOL    HW287029   6.262   2.358  10.790
61733SOL     OW87030   1.968   1.423   2.108
61733SOL    HW187031   1.885   1.470   2.100
61733SOL    HW287032   2.025   1.462   2.042
61734SOL     OW87033   6.510   1.954  12.834
61734SOL    HW187034   6.468   1.920  12.913
61734SOL    HW287035   6.571   2.020  12.866
61735SOL     OW87036  11.958   8.004   9.630
61735SOL    HW187037  12.021   8.076   9.615
61735SOL    HW287038  11.881   8.029   9.579
61736SOL     OW87039   1.068   2.871  11.536
61736SOL    HW187040   1.027   2.826  11.462
61736SOL    HW287041   1.001   2.869  11.605
61737SOL     OW87042  12.682   2.313   0.759
61737SOL    HW187043  12.748   2.249   0.784
61737SOL    HW287044  12.677   2.373   0.834
61738SOL     OW87045   9.301   1.925   0.877
61738SOL    HW187046   9.290   1.848   0.932
61738SOL    HW287047   9.351   1.894   0.802
61739SOL     OW87048   3.869  11.334   3.983
61739SOL    HW187049   3.962  11.354   3.990
61739SOL    HW287050   3.825  11.414   4.012
61740SOL     OW87051   3.343  14.806  12.033
61740SOL    HW187052   3.357   0.018  12.026
61740SOL    HW287053   3.283  14.796  12.106
61741SOL     OW87054   7.344   4.736   4.067
61741SOL    HW187055   7.402   4.812   4.075
61741SOL    HW287056   7.401   4.667   4.033
61742SOL     OW87057   4.344   3.732  11.129
61742SOL    HW187058   4.375   3.648  11.165
61742SOL    HW287059   4.382   3.735  11.042
61743SOL     OW87060   1.973   3.641   3.349
61743SOL    HW187061   2.008   3.615   3.263
61743SOL    HW287062   1.914   3.714   3.329
61744SOL     OW87063   4.602   6.517   9.925
61744SOL    HW187064   4.646   6.589   9.879
61744SOL    HW287065   4.635   6.522  10.014
61745SOL     OW87066  11.412   6.757  14.159
61745SOL    HW187067  11.329   6.710  14.173
61745SOL    HW287068  11.458   6.749  14.242
61746SOL     OW87069   0.604  14.448   1.666
61746SOL    HW187070   0.678  14.499   1.632
61746SOL    HW287071   0.558  14.419   1.587
61747SOL     OW87072   3.453   4.052   8.832
61747SOL    HW187073   3.401   3.999   8.772
61747SOL    HW287074   3.402   4.055   8.913
61748SOL     OW87075  13.507   3.160   6.957
61748SOL    HW187076  13.509   3.228   6.889
61748SOL    HW287077  13.535   3.080   6.911
61749SOL     OW87078   5.447   9.246   1.284
61749SOL    HW187079   5.368   9.207   1.247
61749SOL    HW287080   5.451   9.333   1.245
61750SOL     OW87081  12.994  12.335   4.111
61750SOL    HW187082  13.082  12.372   4.112
61750SOL    HW287083  12.975  12.313   4.202
61751SOL     OW87084   8.521   5.816  14.052
61751SOL    HW187085   8.476   5.891  14.090
61751SOL    HW287086   8.478   5.739  14.090
61752SOL     OW87087   9.782   0.614  10.176
61752SOL    HW187088   9.735   0.581  10.100
61752SOL    HW287089   9.734   0.692  10.203
61753SOL     OW87090   4.632  10.722   5.542
61753SOL    HW187091   4.701  10.665   5.508
61753SOL    HW287092   4.670  10.810   5.537
61754SOL     OW87093  10.068  12.820  12.158
61754SOL    HW187094   9.979  12.845  12.134
61754SOL    HW287095  10.060  12.729  12.187
61755SOL     OW87096   2.907  12.072   2.694
61755SOL    HW187097   2.861  11.993   2.723
61755SOL    HW287098   2.854  12.145   2.727
61756SOL     OW87099   7.775   8.546   7.311
61756SOL    HW187100   7.768   8.540   7.215
61756SOL    HW287101   7.691   8.583   7.338
61757SOL     OW87102  14.493   7.276   4.995
61757SOL    HW187103  14.530   7.195   4.959
61757SOL    HW287104  14.457   7.250   5.080
61758SOL     OW87105   8.939   7.619  12.230
61758SOL    HW187106   9.003   7.586  12.293
61758SOL    HW287107   8.992   7.662  12.162
61759SOL     OW87108  14.069   0.235   4.428
61759SOL    HW187109  14.076   0.151   4.383
61759SOL    HW287110  13.996   0.225   4.489
61760SOL     OW87111  14.138  13.218   2.519
61760SOL    HW187112  14.142  13.126   2.544
61760SOL    HW287113  14.229  13.242   2.501
61761SOL     OW87114   9.961   8.262  11.121
61761SOL    HW187115  10.033   8.265  11.184
61761SOL    HW287116   9.949   8.353  11.094
61762SOL     OW87117   6.338  12.968   6.630
61762SOL    HW187118   6.364  12.990   6.719
61762SOL    HW287119   6.408  13.003   6.575
61763SOL     OW87120  12.624  12.632   6.788
61763SOL    HW187121  12.610  12.546   6.749
61763SOL    HW287122  12.618  12.617   6.882
61764SOL     OW87123  11.180   1.362  11.756
61764SOL    HW187124  11.239   1.434  11.778
61764SOL    HW287125  11.167   1.370  11.661
61765SOL     OW87126   8.058   2.810   8.977
61765SOL    HW187127   7.990   2.854   9.028
61765SOL    HW287128   8.112   2.766   9.042
61766SOL     OW87129   4.043   2.958   0.122
61766SOL    HW187130   4.124   2.973   0.172
61766SOL    HW287131   3.974   2.954   0.188
61767SOL     OW87132   8.014   0.350   6.211
61767SOL    HW187133   8.028   0.335   6.305
61767SOL    HW287134   8.058   0.433   6.194
61768SOL     OW87135  11.990   0.112   2.821
61768SOL    HW187136  11.911   0.063   2.797
61768SOL    HW287137  12.024   0.145   2.737
61769SOL     OW87138   5.787  13.511   9.800
61769SOL    HW187139   5.836  13.593   9.789
61769SOL    HW287140   5.703  13.538   9.835
61770SOL     OW87141   5.054   9.121   8.261
61770SOL    HW187142   5.120   9.177   8.303
61770SOL    HW287143   5.025   9.171   8.185
61771SOL     OW87144  10.838   9.692   4.570
61771SOL    HW187145  10.768   9.648   4.523
61771SOL    HW287146  10.916   9.641   4.551
61772SOL     OW87147   0.996   1.527   3.439
61772SOL    HW187148   0.940   1.540   3.362
61772SOL    HW287149   0.984   1.607   3.491
61773SOL     OW87150   5.203   5.644   2.500
61773SOL    HW187151   5.201   5.712   2.433
61773SOL    HW287152   5.238   5.567   2.456
61774SOL     OW87153   1.770   9.459   2.977
61774SOL    HW187154   1.844   9.462   2.915
61774SOL    HW287155   1.743   9.551   2.986
61775SOL     OW87156  13.000   4.690   6.443
61775SOL    HW187157  12.949   4.689   6.525
61775SOL    HW287158  12.937   4.714   6.376
61776SOL     OW87159   2.977   8.909  13.027
61776SOL    HW187160   2.928   8.984  13.060
61776SOL    HW287161   3.000   8.933  12.937
61777SOL     OW87162  11.110  13.583   8.764
61777SOL    HW187163  11.189  13.577   8.817
61777SOL    HW287164  11.131  13.647   8.697
61778SOL     OW87165   8.905   3.614   3.709
61778SOL    HW187166   8.975   3.549   3.707
61778SOL    HW287167   8.831   3.572   3.666
61779SOL     OW87168   6.536   7.095   7.870
61779SOL    HW187169   6.588   7.130   7.943
61779SOL    HW287170   6.513   7.173   7.819
61780SOL     OW87171  10.135   0.277   6.611
61780SOL    HW187172  10.079   0.354   6.602
61780SOL    HW287173  10.138   0.239   6.522
61781SOL     OW87174   1.257  12.423   7.646
61781SOL    HW187175   1.285  12.495   7.703
61781SOL    HW287176   1.337  12.377   7.624
61782SOL     OW87177   1.950   9.982  12.950
61782SOL    HW187178   1.881   9.917  12.961
61782SOL    HW287179   1.964   9.986  12.855
61783SOL     OW87180  12.311   2.415  11.446
61783SOL    HW187181  12.370   2.385  11.377
61783SOL    HW287182  12.349   2.381  11.527
61784SOL     OW87183   0.507   6.305  12.422
61784SOL    HW187184   0.547   6.391  12.410
61784SOL    HW287185   0.415   6.318  12.400
61785SOL     OW87186   7.344   3.035   8.986
61785SOL    HW187187   7.368   3.048   8.894
61785SOL    HW287188   7.426   3.010   9.029
61786SOL     OW87189   5.779  14.061   0.307
61786SOL    HW187190   5.757  13.971   0.284
61786SOL    HW287191   5.800  14.058   0.400
61787SOL     OW87192  10.696   6.215  14.421
61787SOL    HW187193  10.688   6.147  14.354
61787SOL    HW287194  10.641   6.287  14.389
61788SOL     OW87195  10.005   0.656   0.369
61788SOL    HW187196   9.925   0.706   0.352
61788SOL    HW287197   9.976   0.565   0.375
61789SOL     OW87198  12.040   6.038  14.751
61789SOL    HW187199  12.092   5.994  14.684
61789SOL    HW287200  12.069   5.999  14.833
61790SOL     OW87201  10.054   6.603   3.716
61790SOL    HW187202  10.107   6.679   3.691
61790SOL    HW287203   9.973   6.612   3.665
61791SOL     OW87204   8.854   3.536   0.115
61791SOL    HW187205   8.949   3.532   0.111
61791SOL    HW287206   8.832   3.511   0.204
61792SOL     OW87207   4.916   0.373  10.074
61792SOL    HW187208   4.933   0.454  10.123
61792SOL    HW287209   4.976   0.309  10.112
61793SOL     OW87210  14.191   6.894   1.606
61793SOL    HW187211  14.185   6.853   1.520
61793SOL    HW287212  14.198   6.820   1.667
61794SOL     OW87213   4.523   3.563   8.534
61794SOL    HW187214   4.491   3.653   8.522
61794SOL    HW287215   4.540   3.532   8.445
61795SOL     OW87216   1.634  12.705  13.050
61795SOL    HW187217   1.627  12.794  13.015
61795SOL    HW287218   1.654  12.717  13.143
61796SOL     OW87219   8.052  12.115   6.911
61796SOL    HW187220   8.043  12.105   7.006
61796SOL    HW287221   8.131  12.065   6.890
61797SOL     OW87222  14.441   2.140  11.713
61797SOL    HW187223  14.439   2.076  11.784
61797SOL    HW287224  14.423   2.224  11.756
61798SOL     OW87225   3.677   0.081  12.577
61798SOL    HW187226   3.729   0.028  12.517
61798SOL    HW287227   3.646   0.020  12.643
61799SOL     OW87228   1.166   6.923   4.109
61799SOL    HW187229   1.128   6.952   4.192
61799SOL    HW287230   1.167   7.002   4.054
61800SOL     OW87231   3.356  10.960   0.408
61800SOL    HW187232   3.443  10.920   0.409
61800SOL    HW287233   3.339  10.976   0.315
61801SOL     OW87234   7.992   2.069  12.036
61801SOL    HW187235   7.898   2.075  12.054
61801SOL    HW287236   8.030   2.036  12.117
61802SOL     OW87237   4.767  14.703  10.658
61802SOL    HW187238   4.688  14.668  10.700
61802SOL    HW287239   4.765  14.797  10.679
61803SOL     OW87240  13.427  13.164   0.870
61803SOL    HW187241  13.415  13.255   0.897
61803SOL    HW287242  13.522  13.152   0.867
61804SOL     OW87243   0.250   0.418  13.571
61804SOL    HW187244   0.337   0.455  13.553
61804SOL    HW287245   0.201   0.491  13.610
61805SOL     OW87246  11.305   9.479   9.212
61805SOL    HW187247  11.253   9.467   9.291
61805SOL    HW287248  11.393   9.499   9.245
61806SOL     OW87249  11.034   6.129  14.496
61806SOL    HW187250  11.114   6.105  14.449
61806SOL    HW287251  10.981   6.175  14.431
61807SOL     OW87252   1.907   3.467  14.353
61807SOL    HW187253   1.982   3.499  14.303
61807SOL    HW287254   1.897   3.376  14.326
61808SOL     OW87255   4.517   2.198   4.440
61808SOL    HW187256   4.449   2.145   4.482
61808SOL    HW287257   4.480   2.222   4.356
61809SOL     OW87258  14.393   1.772   0.782
61809SOL    HW187259  14.367   1.843   0.724
61809SOL    HW287260  14.471   1.805   0.827
61810SOL     OW87261  10.528  10.006   3.583
61810SOL    HW187262  10.555   9.977   3.671
61810SOL    HW287263  10.569   9.944   3.524
61811SOL     OW87264   4.585  14.852   2.643
61811SOL    HW187265   4.640   0.014   2.579
61811SOL    HW287266   4.532  14.791   2.592
61812SOL     OW87267   3.133  14.344   3.094
61812SOL    HW187268   3.201  14.337   3.027
61812SOL    HW287269   3.149  14.269   3.152
61813SOL     OW87270   5.370   4.407   5.534
61813SOL    HW187271   5.373   4.327   5.587
61813SOL    HW287272   5.446   4.400   5.477
61814SOL     OW87273  12.678  13.089  13.079
61814SOL    HW187274  12.750  13.085  13.142
61814SOL    HW287275  12.640  13.001  13.081
61815SOL     OW87276   4.352  10.874   1.558
61815SOL    HW187277   4.412  10.851   1.488
61815SOL    HW287278   4.408  10.908   1.628
61816SOL     OW87279  12.057  13.934   5.119
61816SOL    HW187280  11.974  13.890   5.103
61816SOL    HW287281  12.119  13.890   5.061
61817SOL     OW87282  14.440   7.644  11.901
61817SOL    HW187283  14.519   7.651  11.953
61817SOL    HW287284  14.466   7.674  11.814
61818SOL     OW87285   4.802   5.876   6.545
61818SOL    HW187286   4.876   5.883   6.485
61818SOL    HW287287   4.833   5.916   6.626
61819SOL     OW87288   6.762   2.622   4.251
61819SOL    HW187289   6.673   2.641   4.281
61819SOL    HW287290   6.787   2.698   4.199
61820SOL     OW87291   3.388   6.939   3.527
61820SOL    HW187292   3.314   6.879   3.525
61820SOL    HW287293   3.353   7.022   3.493
61821SOL     OW87294   1.623   7.175   4.040
61821SOL    HW187295   1.569   7.207   4.112
61821SOL    HW287296   1.643   7.253   3.988
61822SOL     OW87297   9.917   4.705  13.175
61822SOL    HW187298   9.990   4.646  13.193
61822SOL    HW287299   9.930   4.732  13.084
61823SOL     OW87300   3.208   1.290   1.824
61823SOL    HW187301   3.238   1.379   1.805
61823SOL    HW287302   3.192   1.251   1.737
61824SOL     OW87303  14.599   2.458   8.778
61824SOL    HW187304  14.598   2.392   8.847
61824SOL    HW287305  14.539   2.527   8.809
61825SOL     OW87306  11.607  10.196   4.870
61825SOL    HW187307  11.624  10.176   4.778
61825SOL    HW287308  11.547  10.271   4.868
61826SOL     OW87309  12.288   4.226  11.407
61826SOL    HW187310  12.214   4.221  11.348
61826SOL    HW287311  12.359   4.263  11.354
61827SOL     OW87312   3.543   9.875  13.794
61827SOL    HW187313   3.549   9.895  13.888
61827SOL    HW287314   3.453   9.844  13.782
61828SOL     OW87315   6.277   4.494   7.948
61828SOL    HW187316   6.339   4.448   8.005
61828SOL    HW287317   6.257   4.431   7.878
61829SOL     OW87318  11.873  11.738   6.433
61829SOL    HW187319  11.924  11.769   6.358
61829SOL    HW287320  11.905  11.650   6.450
61830SOL     OW87321   8.345  11.827   9.898
61830SOL    HW187322   8.332  11.772   9.821
61830SOL    HW287323   8.258  11.836   9.936
61831SOL     OW87324  14.135   0.007  13.252
61831SOL    HW187325  14.124   0.008  13.347
61831SOL    HW287326  14.099   0.091  13.224
61832SOL     OW87327   8.510  13.022  10.181
61832SOL    HW187328   8.585  13.049  10.234
61832SOL    HW287329   8.445  12.994  10.246
61833SOL     OW87330   6.593  10.238   6.874
61833SOL    HW187331   6.682  10.209   6.853
61833SOL    HW287332   6.554  10.164   6.920
61834SOL     OW87333  12.826  10.220   4.065
61834SOL    HW187334  12.872  10.271   3.998
61834SOL    HW287335  12.877  10.139   4.073
61835SOL     OW87336   8.151   4.268   6.288
61835SOL    HW187337   8.071   4.319   6.282
61835SOL    HW287338   8.180   4.280   6.379
61836SOL     OW87339  12.165   5.097   8.717
61836SOL    HW187340  12.219   5.084   8.639
61836SOL    HW287341  12.080   5.059   8.694
61837SOL     OW87342   5.924   9.002   1.127
61837SOL    HW187343   5.845   9.055   1.121
61837SOL    HW287344   5.953   9.012   1.218
61838SOL     OW87345   3.756   9.413   4.636
61838SOL    HW187346   3.798   9.472   4.700
61838SOL    HW287347   3.750   9.329   4.682
61839SOL     OW87348   2.871   6.039  11.836
61839SOL    HW187349   2.911   6.021  11.751
61839SOL    HW287350   2.904   6.126  11.860
61840SOL     OW87351   9.971   0.458   0.040
61840SOL    HW187352  10.054   0.487   0.002
61840SOL    HW287353   9.948   0.527   0.102
61841SOL     OW87354  13.566  12.523   8.137
61841SOL    HW187355  13.631  12.456   8.161
61841SOL    HW287356  13.569  12.585   8.210
61842SOL     OW87357   6.167  11.147  12.467
61842SOL    HW187358   6.084  11.104  12.444
61842SOL    HW287359   6.148  11.194  12.548
61843SOL     OW87360  14.779   8.835   5.866
61843SOL    HW187361  14.865   8.813   5.830
61843SOL    HW287362  14.717   8.795   5.805
61844SOL     OW87363   3.687  13.578   2.360
61844SOL    HW187364   3.781  13.589   2.375
61844SOL    HW287365   3.673  13.484   2.362
61845SOL     OW87366   6.180   2.892   4.212
61845SOL    HW187367   6.163   2.834   4.287
61845SOL    HW287368   6.222   2.835   4.147
61846SOL     OW87369   2.286  14.650   1.605
61846SOL    HW187370   2.202  14.691   1.588
61846SOL    HW287371   2.285  14.571   1.550
61847SOL     OW87372   5.847   3.669   5.892
61847SOL    HW187373   5.762   3.711   5.881
61847SOL    HW287374   5.883   3.665   5.803
61848SOL     OW87375   4.238  14.643   1.647
61848SOL    HW187376   4.200  14.693   1.719
61848SOL    HW287377   4.165  14.594   1.610
61849SOL     OW87378   9.474   8.186   7.673
61849SOL    HW187379   9.382   8.168   7.655
61849SOL    HW287380   9.472   8.255   7.739
61850SOL     OW87381  12.039   0.165   7.804
61850SOL    HW187382  11.981   0.197   7.734
61850SOL    HW287383  12.127   0.170   7.766
61851SOL     OW87384   0.776   1.762   6.566
61851SOL    HW187385   0.828   1.743   6.489
61851SOL    HW287386   0.687   1.777   6.533
61852SOL     OW87387   8.382   9.763   6.584
61852SOL    HW187388   8.382   9.721   6.497
61852SOL    HW287389   8.289   9.771   6.606
61853SOL     OW87390   9.595   1.147   4.997
61853SOL    HW187391   9.532   1.150   4.925
61853SOL    HW287392   9.542   1.170   5.074
61854SOL     OW87393   2.910   4.330  12.453
61854SOL    HW187394   2.970   4.365  12.387
61854SOL    HW287395   2.905   4.398  12.520
61855SOL     OW87396   8.426   2.748   5.190
61855SOL    HW187397   8.476   2.699   5.124
61855SOL    HW287398   8.456   2.838   5.181
61856SOL     OW87399  14.569   1.476  11.412
61856SOL    HW187400  14.585   1.404  11.350
61856SOL    HW287401  14.479   1.503  11.394
61857SOL     OW87402  11.926  14.639   5.836
61857SOL    HW187403  12.011  14.663   5.798
61857SOL    HW287404  11.897  14.564   5.784
61858SOL     OW87405   7.550   7.457   2.030
61858SOL    HW187406   7.629   7.507   2.050
61858SOL    HW287407   7.499   7.515   1.974
61859SOL     OW87408   8.361   0.250   3.127
61859SOL    HW187409   8.270   0.265   3.149
61859SOL    HW287410   8.361   0.164   3.084
61860SOL     OW87411   9.361   1.728   6.811
61860SOL    HW187412   9.434   1.718   6.751
61860SOL    HW287413   9.284   1.738   6.755
61861SOL     OW87414   6.084  12.372   1.400
61861SOL    HW187415   6.171  12.368   1.438
61861SOL    HW287416   6.070  12.285   1.363
61862SOL     OW87417   8.670  12.347   5.136
61862SOL    HW187418   8.723  12.302   5.202
61862SOL    HW287419   8.705  12.436   5.133
61863SOL     OW87420  14.154  10.484   1.213
61863SOL    HW187421  14.122  10.407   1.166
61863SOL    HW287422  14.081  10.508   1.271
61864SOL     OW87423  10.226   6.157   3.559
61864SOL    HW187424  10.155   6.138   3.498
61864SOL    HW287425  10.183   6.167   3.644
61865SOL     OW87426   9.338   0.928  10.110
61865SOL    HW187427   9.289   0.867  10.165
61865SOL    HW287428   9.368   0.875  10.036
61866SOL     OW87429   3.985   6.368  10.918
61866SOL    HW187430   3.919   6.436  10.909
61866SOL    HW287431   4.069   6.415  10.918
61867SOL     OW87432  11.574   8.915   6.452
61867SOL    HW187433  11.531   9.000   6.466
61867SOL    HW287434  11.529   8.877   6.376
61868SOL     OW87435  14.678  10.735   4.051
61868SOL    HW187436  14.770  10.740   4.024
61868SOL    HW287437  14.651  10.826   4.061
61869SOL     OW87438   2.074   9.384   8.839
61869SOL    HW187439   2.014   9.310   8.850
61869SOL    HW287440   2.160   9.348   8.860
61870SOL     OW87441  13.085  12.829  13.682
61870SOL    HW187442  13.067  12.840  13.775
61870SOL    HW287443  13.181  12.829  13.676
61871SOL     OW87444  12.467   1.047   2.021
61871SOL    HW187445  12.417   0.997   1.955
61871SOL    HW287446  12.505   0.980   2.077
61872SOL     OW87447   6.984   4.595  14.692
61872SOL    HW187448   6.923   4.608  14.619
61872SOL    HW287449   7.018   4.682  14.711
61873SOL     OW87450  10.716  14.476   4.174
61873SOL    HW187451  10.706  14.499   4.267
61873SOL    HW287452  10.651  14.530   4.129
61874SOL     OW87453   3.850   7.338  14.674
61874SOL    HW187454   3.911   7.268  14.697
61874SOL    HW287455   3.906   7.413  14.655
61875SOL     OW87456   2.610   8.538  14.361
61875SOL    HW187457   2.550   8.517  14.290
61875SOL    HW287458   2.553   8.551  14.437
61876SOL     OW87459   7.263  13.323   3.949
61876SOL    HW187460   7.201  13.337   4.021
61876SOL    HW287461   7.223  13.367   3.874
61877SOL     OW87462  14.422   5.115   5.310
61877SOL    HW187463  14.505   5.084   5.346
61877SOL    HW287464  14.424   5.210   5.321
61878SOL     OW87465   5.560   3.800  13.099
61878SOL    HW187466   5.544   3.744  13.022
61878SOL    HW287467   5.650   3.830  13.088
61879SOL     OW87468   3.765   7.723   4.926
61879SOL    HW187469   3.837   7.757   4.873
61879SOL    HW287470   3.687   7.763   4.888
61880SOL     OW87471   2.863   6.814   5.043
61880SOL    HW187472   2.811   6.734   5.035
61880SOL    HW287473   2.816   6.868   5.106
61881SOL     OW87474   5.102   4.388  11.082
61881SOL    HW187475   5.032   4.326  11.104
61881SOL    HW287476   5.176   4.333  11.056
61882SOL     OW87477   8.764   4.538   1.364
61882SOL    HW187478   8.711   4.549   1.442
61882SOL    HW287479   8.828   4.609   1.368
61883SOL     OW87480   3.707  10.466  14.464
61883SOL    HW187481   3.703  10.561  14.474
61883SOL    HW287482   3.705  10.432  14.553
61884SOL     OW87483  11.060   8.083  13.585
61884SOL    HW187484  11.013   8.022  13.527
61884SOL    HW287485  11.056   8.167  13.538
61885SOL     OW87486   0.790   3.905   6.942
61885SOL    HW187487   0.697   3.886   6.941
61885SOL    HW287488   0.827   3.852   6.872
61886SOL     OW87489   6.478  12.693   3.712
61886SOL    HW187490   6.568  12.725   3.711
61886SOL    HW287491   6.477  12.628   3.782
61887SOL     OW87492   2.347   8.553   5.398
61887SOL    HW187493   2.342   8.607   5.319
61887SOL    HW287494   2.440   8.543   5.414
61888SOL     OW87495  10.818  13.870   8.678
61888SOL    HW187496  10.889  13.933   8.681
61888SOL    HW287497  10.740  13.922   8.662
61889SOL     OW87498  12.861   6.748   2.455
61889SOL    HW187499  12.930   6.779   2.397
61889SOL    HW287500  12.803   6.698   2.399
61890SOL     OW87501  11.440  10.693  11.425
61890SOL    HW187502  11.391  10.612  11.405
61890SOL    HW287503  11.413  10.715  11.514
61891SOL     OW87504   2.854  12.999   9.332
61891SOL    HW187505   2.817  13.054   9.400
61891SOL    HW287506   2.864  12.913   9.373
61892SOL     OW87507  14.104   5.229   3.736
61892SOL    HW187508  14.020   5.220   3.690
61892SOL    HW287509  14.111   5.149   3.788
61893SOL     OW87510  13.899  10.946   5.453
61893SOL    HW187511  13.825  10.920   5.508
61893SOL    HW287512  13.859  10.998   5.383
61894SOL     OW87513   5.826   3.396  11.144
61894SOL    HW187514   5.885   3.357  11.208
61894SOL    HW287515   5.831   3.339  11.067
61895SOL     OW87516  12.151   6.355   4.423
61895SOL    HW187517  12.103   6.380   4.344
61895SOL    HW287518  12.089   6.302   4.473
61896SOL     OW87519  10.803  12.856   4.333
61896SOL    HW187520  10.840  12.832   4.418
61896SOL    HW287521  10.809  12.951   4.329
61897SOL     OW87522   9.846   2.671   6.511
61897SOL    HW187523   9.939   2.658   6.529
61897SOL    HW287524   9.844   2.724   6.431
61898SOL     OW87525   2.683   2.660  10.593
61898SOL    HW187526   2.615   2.624  10.536
61898SOL    HW287527   2.763   2.614  10.569
61899SOL     OW87528   2.257   5.820   4.534
61899SOL    HW187529   2.252   5.784   4.445
61899SOL    HW287530   2.202   5.762   4.586
61900SOL     OW87531  12.778  12.171   9.949
61900SOL    HW187532  12.774  12.265   9.964
61900SOL    HW287533  12.847  12.160   9.884
61901SOL     OW87534   9.725   8.482   1.379
61901SOL    HW187535   9.703   8.492   1.287
61901SOL    HW287536   9.786   8.554   1.398
61902SOL     OW87537  11.866  12.496   7.772
61902SOL    HW187538  11.910  12.445   7.840
61902SOL    HW287539  11.932  12.559   7.743
61903SOL     OW87540  13.457   7.702   9.700
61903SOL    HW187541  13.371   7.743   9.688
61903SOL    HW287542  13.480   7.668   9.614
61904SOL     OW87543  12.880   2.716  11.842
61904SOL    HW187544  12.914   2.645  11.788
61904SOL    HW287545  12.943   2.725  11.913
61905SOL     OW87546   6.992   3.021   2.980
61905SOL    HW187547   7.014   3.023   3.073
61905SOL    HW287548   7.061   2.968   2.940
61906SOL     OW87549  12.294  11.929   5.300
61906SOL    HW187550  12.361  11.863   5.283
61906SOL    HW287551  12.259  11.907   5.386
61907SOL     OW87552   4.647   3.417  12.092
61907SOL    HW187553   4.648   3.502  12.047
61907SOL    HW287554   4.698   3.360  12.034
61908SOL     OW87555   7.689   7.728   8.473
61908SOL    HW187556   7.729   7.649   8.511
61908SOL    HW287557   7.614   7.745   8.530
61909SOL     OW87558   6.750  14.677  14.542
61909SOL    HW187559   6.706  14.760  14.524
61909SOL    HW287560   6.785  14.687  14.631
61910SOL     OW87561   0.178  10.668   8.492
61910SOL    HW187562   0.137  10.677   8.406
61910SOL    HW287563   0.115  10.709   8.552
61911SOL     OW87564   8.195   5.421   4.847
61911SOL    HW187565   8.290   5.413   4.852
61911SOL    HW287566   8.180   5.487   4.778
61912SOL     OW87567   9.653   4.009  12.538
61912SOL    HW187568   9.721   4.003  12.604
61912SOL    HW287569   9.590   4.072  12.574
61913SOL     OW87570   7.360   7.625  11.274
61913SOL    HW187571   7.392   7.555  11.217
61913SOL    HW287572   7.265   7.613  11.275
61914SOL     OW87573  10.722   1.864   5.851
61914SOL    HW187574  10.694   1.903   5.934
61914SOL    HW287575  10.797   1.917   5.824
61915SOL     OW87576   5.113   0.545  14.638
61915SOL    HW187577   5.019   0.556  14.656
61915SOL    HW287578   5.150   0.632  14.653
61916SOL     OW87579  10.593   9.040   4.742
61916SOL    HW187580  10.653   9.008   4.675
61916SOL    HW287581  10.537   8.965   4.763
61917SOL     OW87582   7.772  11.573   5.853
61917SOL    HW187583   7.688  11.537   5.881
61917SOL    HW287584   7.757  11.667   5.847
61918SOL     OW87585   8.488   6.640  12.261
61918SOL    HW187586   8.521   6.680  12.341
61918SOL    HW287587   8.536   6.558  12.253
61919SOL     OW87588  12.568   2.465  13.955
61919SOL    HW187589  12.638   2.450  13.892
61919SOL    HW287590  12.554   2.560  13.953
61920SOL     OW87591  12.043  14.186   7.390
61920SOL    HW187592  12.108  14.169   7.322
61920SOL    HW287593  12.037  14.281   7.394
61921SOL     OW87594   1.839   9.995   6.503
61921SOL    HW187595   1.887   9.993   6.586
61921SOL    HW287596   1.807  10.085   6.496
61922SOL     OW87597  11.596   9.090   0.664
61922SOL    HW187598  11.524   9.153   0.669
61922SOL    HW287599  11.608   9.060   0.754
61923SOL     OW87600   3.522  13.981  12.891
61923SOL    HW187601   3.493  13.891  12.902
61923SOL    HW287602   3.605  13.974  12.844
61924SOL     OW87603   9.366   9.609   9.589
61924SOL    HW187604   9.336   9.550   9.519
61924SOL    HW287605   9.309   9.589   9.663
61925SOL     OW87606   8.875  14.377  13.093
61925SOL    HW187607   8.863  14.346  13.183
61925SOL    HW287608   8.872  14.298  13.040
61926SOL     OW87609   5.490   4.394  11.346
61926SOL    HW187610   5.535   4.325  11.298
61926SOL    HW287611   5.461   4.456  11.278
61927SOL     OW87612   9.970   5.197   4.147
61927SOL    HW187613   9.974   5.285   4.185
61927SOL    HW287614  10.059   5.179   4.118
61928SOL     OW87615   5.824   1.943   6.650
61928SOL    HW187616   5.842   1.933   6.556
61928SOL    HW287617   5.817   2.038   6.663
61929SOL     OW87618   5.350   7.813  11.097
61929SOL    HW187619   5.260   7.837  11.075
61929SOL    HW287620   5.404   7.857  11.031
61930SOL     OW87621   3.558   7.369   3.061
61930SOL    HW187622   3.521   7.360   3.149
61930SOL    HW287623   3.593   7.282   3.041
61931SOL     OW87624   6.691   4.369  11.456
61931SOL    HW187625   6.669   4.283  11.493
61931SOL    HW287626   6.750   4.350  11.384
61932SOL     OW87627   4.532   3.174   1.007
61932SOL    HW187628   4.551   3.090   0.966
61932SOL    HW287629   4.563   3.163   1.097
61933SOL     OW87630   5.561   9.404  12.586
61933SOL    HW187631   5.559   9.309  12.573
61933SOL    HW287632   5.577   9.440  12.499
61934SOL     OW87633   9.020  11.217   5.812
61934SOL    HW187634   9.023  11.301   5.857
61934SOL    HW287635   9.111  11.200   5.786
61935SOL     OW87636   4.642   2.627   6.790
61935SOL    HW187637   4.658   2.718   6.817
61935SOL    HW287638   4.726   2.597   6.755
61936SOL     OW87639   6.805   5.278   8.122
61936SOL    HW187640   6.733   5.319   8.074
61936SOL    HW287641   6.874   5.345   8.122
61937SOL     OW87642   1.523  14.015  12.921
61937SOL    HW187643   1.585  13.981  12.984
61937SOL    HW287644   1.439  14.013  12.967
61938SOL     OW87645   0.063   7.143   3.996
61938SOL    HW187646   0.111   7.067   3.962
61938SOL    HW287647   0.050   7.199   3.919
61939SOL     OW87648   1.415   0.037   8.267
61939SOL    HW187649   1.400   0.125   8.301
61939SOL    HW287650   1.466   0.050   8.187
61940SOL     OW87651   7.274   2.061   5.475
61940SOL    HW187652   7.304   1.970   5.475
61940SOL    HW287653   7.281   2.088   5.383
61941SOL     OW87654   5.349   8.074   7.744
61941SOL    HW187655   5.287   8.147   7.740
61941SOL    HW287656   5.371   8.066   7.837
61942SOL     OW87657  13.237   1.222   2.866
61942SOL    HW187658  13.203   1.213   2.955
61942SOL    HW287659  13.286   1.141   2.850
61943SOL     OW87660   4.384  12.581  13.942
61943SOL    HW187661   4.415  12.509  13.887
61943SOL    HW287662   4.392  12.658  13.887
61944SOL     OW87663  14.527   0.516  12.646
61944SOL    HW187664  14.472   0.438  12.648
61944SOL    HW287665  14.493   0.571  12.717
61945SOL     OW87666   1.855  10.879  10.386
61945SOL    HW187667   1.897  10.915  10.308
61945SOL    HW287668   1.868  10.945  10.454
61946SOL     OW87669   0.557   7.406   3.322
61946SOL    HW187670   0.486   7.438   3.378
61946SOL    HW287671   0.636   7.415   3.375
61947SOL     OW87672   6.458   9.788  11.118
61947SOL    HW187673   6.463   9.697  11.090
61947SOL    HW287674   6.388   9.789  11.183
61948SOL     OW87675   8.944  14.320  11.971
61948SOL    HW187676   8.852  14.302  11.952
61948SOL    HW287677   8.964  14.397  11.917
61949SOL     OW87678   9.869  11.677  10.349
61949SOL    HW187679   9.843  11.586  10.341
61949SOL    HW287680   9.799  11.718  10.400
61950SOL     OW87681   6.143   8.648   1.597
61950SOL    HW187682   6.196   8.585   1.645
61950SOL    HW287683   6.093   8.596   1.535
61951SOL     OW87684  13.885   5.429   0.516
61951SOL    HW187685  13.832   5.379   0.454
61951SOL    HW287686  13.960   5.458   0.464
61952SOL     OW87687  11.129   0.303  12.008
61952SOL    HW187688  11.180   0.273  12.083
61952SOL    HW287689  11.163   0.252  11.934
61953SOL     OW87690   4.406   3.756   4.881
61953SOL    HW187691   4.339   3.688   4.881
61953SOL    HW287692   4.375   3.821   4.818
61954SOL     OW87693   7.837   2.857  10.496
61954SOL    HW187694   7.873   2.779  10.454
61954SOL    HW287695   7.912   2.895  10.543
61955SOL     OW87696   4.454   2.545   8.184
61955SOL    HW187697   4.494   2.461   8.208
61955SOL    HW287698   4.360   2.529   8.194
61956SOL     OW87699   4.280   8.986   3.442
61956SOL    HW187700   4.223   8.966   3.517
61956SOL    HW287701   4.255   9.075   3.416
61957SOL     OW87702   8.700  14.155  13.030
61957SOL    HW187703   8.678  14.157  12.937
61957SOL    HW287704   8.693  14.062  13.054
61958SOL     OW87705   1.896  11.188  13.278
61958SOL    HW187706   1.816  11.136  13.291
61958SOL    HW287707   1.899  11.246  13.354
61959SOL     OW87708   0.766   5.361   0.279
61959SOL    HW187709   0.821   5.342   0.356
61959SOL    HW287710   0.758   5.456   0.280
61960SOL     OW87711  11.866   5.957   0.162
61960SOL    HW187712  11.848   5.947   0.255
61960SOL    HW287713  11.865   5.868   0.127
61961SOL     OW87714  13.884   3.145  13.281
61961SOL    HW187715  13.963   3.095  13.261
61961SOL    HW287716  13.885   3.155  13.376
61962SOL     OW87717  13.054   9.577   6.887
61962SOL    HW187718  13.030   9.637   6.957
61962SOL    HW287719  12.998   9.500   6.901
61963SOL     OW87720   4.896  10.341  10.218
61963SOL    HW187721   4.920  10.362  10.127
61963SOL    HW287722   4.975  10.302  10.255
61964SOL     OW87723   3.913   5.989   4.409
61964SOL    HW187724   3.921   5.895   4.397
61964SOL    HW287725   3.997   6.016   4.447
61965SOL     OW87726   8.082  11.157   1.335
61965SOL    HW187727   8.005  11.206   1.365
61965SOL    HW287728   8.087  11.082   1.395
61966SOL     OW87729   0.289  12.776   9.999
61966SOL    HW187730   0.274  12.750  10.089
61966SOL    HW287731   0.268  12.869   9.996
61967SOL     OW87732   9.717   5.301  12.148
61967SOL    HW187733   9.690   5.367  12.084
61967SOL    HW287734   9.639   5.249  12.163
61968SOL     OW87735   7.648   7.552  14.302
61968SOL    HW187736   7.565   7.524  14.265
61968SOL    HW287737   7.648   7.517  14.391
61969SOL     OW87738   4.381   2.943   1.320
61969SOL    HW187739   4.392   3.037   1.330
61969SOL    HW287740   4.384   2.929   1.225
61970SOL     OW87741   1.457  11.680   7.314
61970SOL    HW187742   1.380  11.657   7.262
61970SOL    HW287743   1.524  11.701   7.249
61971SOL     OW87744   8.906   2.629   5.949
61971SOL    HW187745   8.878   2.603   5.861
61971SOL    HW287746   8.950   2.713   5.936
61972SOL     OW87747  13.233   6.997   0.698
61972SOL    HW187748  13.277   6.912   0.697
61972SOL    HW287749  13.198   7.006   0.610
61973SOL     OW87750  10.168   5.694  13.745
61973SOL    HW187751  10.141   5.734  13.663
61973SOL    HW287752  10.172   5.767  13.807
61974SOL     OW87753   6.398   4.954  11.812
61974SOL    HW187754   6.338   4.889  11.849
61974SOL    HW287755   6.425   5.008  11.886
61975SOL     OW87756   4.315   0.810   2.777
61975SOL    HW187757   4.272   0.758   2.845
61975SOL    HW287758   4.343   0.890   2.822
61976SOL     OW87759   5.141  10.578   6.844
61976SOL    HW187760   5.128  10.506   6.782
61976SOL    HW287761   5.202  10.636   6.800
61977SOL     OW87762  13.579  11.270   5.287
61977SOL    HW187763  13.664  11.227   5.279
61977SOL    HW287764  13.576  11.303   5.376
61978SOL     OW87765  11.540   3.846   9.410
61978SOL    HW187766  11.493   3.920   9.449
61978SOL    HW287767  11.613   3.887   9.363
61979SOL     OW87768   3.641   1.806  10.437
61979SOL    HW187769   3.591   1.769  10.364
61979SOL    HW287770   3.706   1.863  10.395
61980SOL     OW87771   7.179   3.320  10.310
61980SOL    HW187772   7.163   3.322  10.404
61980SOL    HW287773   7.138   3.239  10.280
61981SOL     OW87774  12.969   6.028  12.226
61981SOL    HW187775  12.972   6.039  12.321
61981SOL    HW287776  13.006   5.940  12.211
61982SOL     OW87777  11.163   7.320  12.152
61982SOL    HW187778  11.101   7.388  12.176
61982SOL    HW287779  11.239   7.367  12.118
61983SOL     OW87780  12.668  14.300   2.849
61983SOL    HW187781  12.666  14.396   2.844
61983SOL    HW287782  12.742  14.281   2.907
61984SOL     OW87783  13.934   5.762  13.576
61984SOL    HW187784  14.018   5.782  13.536
61984SOL    HW287785  13.952   5.762  13.670
61985SOL     OW87786  12.383   9.736   2.510
61985SOL    HW187787  12.326   9.666   2.477
61985SOL    HW287788  12.452   9.690   2.558
61986SOL     OW87789   0.943   6.867   7.874
61986SOL    HW187790   0.943   6.900   7.964
61986SOL    HW287791   0.858   6.892   7.839
61987SOL     OW87792   2.841   9.253   3.564
61987SOL    HW187793   2.919   9.302   3.537
61987SOL    HW287794   2.794   9.236   3.482
61988SOL     OW87795  10.699   3.858   3.239
61988SOL    HW187796  10.662   3.889   3.156
61988SOL    HW287797  10.793   3.851   3.222
61989SOL     OW87798   4.413  12.167   0.563
61989SOL    HW187799   4.377  12.203   0.482
61989SOL    HW287800   4.502  12.201   0.567
61990SOL     OW87801   4.811  10.196   0.813
61990SOL    HW187802   4.860  10.277   0.829
61990SOL    HW287803   4.720  10.226   0.800
61991SOL     OW87804   9.002   6.071  11.179
61991SOL    HW187805   9.031   6.031  11.098
61991SOL    HW287806   8.908   6.053  11.182
61992SOL     OW87807   7.595   2.858   4.828
61992SOL    HW187808   7.536   2.901   4.890
61992SOL    HW287809   7.612   2.772   4.867
61993SOL     OW87810  10.632   1.722  12.008
61993SOL    HW187811  10.687   1.799  12.000
61993SOL    HW287812  10.543   1.756  12.020
61994SOL     OW87813  12.047   7.557   3.396
61994SOL    HW187814  12.088   7.609   3.465
61994SOL    HW287815  11.954   7.575   3.404
61995SOL     OW87816  12.937   3.548   4.877
61995SOL    HW187817  12.944   3.559   4.783
61995SOL    HW287818  12.848   3.518   4.892
61996SOL     OW87819   4.061   7.921   0.200
61996SOL    HW187820   4.153   7.939   0.178
61996SOL    HW287821   4.057   7.926   0.295
61997SOL     OW87822  12.486   2.661  10.947
61997SOL    HW187823  12.506   2.660  11.040
61997SOL    HW287824  12.546   2.726  10.910
61998SOL     OW87825   9.877   2.907  10.772
61998SOL    HW187826   9.795   2.943  10.806
61998SOL    HW287827   9.917   2.863  10.847
61999SOL     OW87828  14.666  12.380  10.250
61999SOL    HW187829  14.695  12.295  10.216
61999SOL    HW287830  14.723  12.444  10.207
62000SOL     OW87831   8.039   2.822  14.491
62000SOL    HW187832   8.081   2.777  14.417
62000SOL    HW287833   7.946   2.822  14.469
62001SOL     OW87834   7.536   3.693  11.956
62001SOL    HW187835   7.496   3.614  11.993
62001SOL    HW287836   7.530   3.757  12.026
62002SOL     OW87837  10.444  13.901   9.506
62002SOL    HW187838  10.488  13.980   9.538
62002SOL    HW287839  10.390  13.931   9.433
62003SOL     OW87840   6.065   0.907   7.083
62003SOL    HW187841   6.035   0.939   6.998
62003SOL    HW287842   6.127   0.837   7.061
62004SOL     OW87843  11.921   3.134   2.130
62004SOL    HW187844  11.944   3.175   2.213
62004SOL    HW287845  11.955   3.194   2.064
62005SOL     OW87846   7.522   5.502   0.948
62005SOL    HW187847   7.483   5.546   1.024
62005SOL    HW287848   7.489   5.412   0.954
62006SOL     OW87849   4.703   6.104   9.271
62006SOL    HW187850   4.611   6.078   9.268
62006SOL    HW287851   4.732   6.103   9.179
62007SOL     OW87852   2.729  13.189  10.591
62007SOL    HW187853   2.791  13.160  10.525
62007SOL    HW287854   2.777  13.255  10.641
62008SOL     OW87855  10.991  10.167   4.792
62008SOL    HW187856  10.935  10.090   4.782
62008SOL    HW287857  11.080  10.134   4.779
62009SOL     OW87858   7.869  14.063   7.818
62009SOL    HW187859   7.903  14.115   7.890
62009SOL    HW287860   7.845  14.126   7.751
62010SOL     OW87861   9.735   7.256   4.690
62010SOL    HW187862   9.670   7.197   4.729
62010SOL    HW287863   9.801   7.269   4.759
62011SOL     OW87864   1.344  12.347   1.522
62011SOL    HW187865   1.423  12.301   1.548
62011SOL    HW287866   1.373  12.409   1.455
62012SOL     OW87867   4.663   1.968  10.926
62012SOL    HW187868   4.658   2.063  10.916
62012SOL    HW287869   4.630   1.952  11.015
62013SOL     OW87870   9.426  13.003   1.588
62013SOL    HW187871   9.411  12.954   1.669
62013SOL    HW287872   9.517  13.030   1.593
62014SOL     OW87873   5.653   0.092   8.637
62014SOL    HW187874   5.569   0.064   8.601
62014SOL    HW287875   5.711   0.018   8.619
62015SOL     OW87876   8.844   5.419  13.325
62015SOL    HW187877   8.917   5.373  13.368
62015SOL    HW287878   8.883   5.499  13.290
62016SOL     OW87879   3.260  14.303  10.324
62016SOL    HW187880   3.264  14.336  10.414
62016SOL    HW287881   3.343  14.331  10.284
62017SOL     OW87882   5.342   3.501   9.778
62017SOL    HW187883   5.327   3.437   9.708
62017SOL    HW287884   5.282   3.474   9.848
62018SOL     OW87885   9.853   0.015   8.596
62018SOL    HW187886   9.887  14.868   8.512
62018SOL    HW287887   9.816   0.102   8.579
62019SOL     OW87888  12.686  14.629   2.524
62019SOL    HW187889  12.693  14.537   2.497
62019SOL    HW287890  12.777  14.659   2.527
62020SOL     OW87891   7.833  11.645   6.772
62020SOL    HW187892   7.866  11.600   6.694
62020SOL    HW287893   7.908  11.693   6.805
62021SOL     OW87894  11.303   6.818  11.168
62021SOL    HW187895  11.302   6.911  11.190
62021SOL    HW287896  11.211   6.796  11.153
62022SOL     OW87897  11.482  11.279   9.884
62022SOL    HW187898  11.574  11.295   9.907
62022SOL    HW287899  11.485  11.248   9.794
62023SOL     OW87900   0.155  13.927   5.477
62023SOL    HW187901   0.099  13.975   5.416
62023SOL    HW287902   0.096  13.901   5.548
62024SOL     OW87903   5.131   2.292   5.014
62024SOL    HW187904   5.105   2.201   5.000
62024SOL    HW287905   5.123   2.332   4.928
62025SOL     OW87906  12.935   6.228   8.472
62025SOL    HW187907  13.002   6.277   8.520
62025SOL    HW287908  12.925   6.146   8.520
62026SOL     OW87909   5.578   0.598   2.160
62026SOL    HW187910   5.507   0.550   2.117
62026SOL    HW287911   5.658   0.554   2.133
62027SOL     OW87912  13.416  12.880   7.890
62027SOL    HW187913  13.412  12.919   7.978
62027SOL    HW287914  13.500  12.911   7.854
62028SOL     OW87915  11.182   0.651   8.395
62028SOL    HW187916  11.153   0.688   8.478
62028SOL    HW287917  11.252   0.709   8.366
62029SOL     OW87918  12.636   4.860   9.713
62029SOL    HW187919  12.591   4.939   9.742
62029SOL    HW287920  12.724   4.890   9.689
62030SOL     OW87921   9.451   5.476   7.794
62030SOL    HW187922   9.522   5.535   7.771
62030SOL    HW287923   9.382   5.534   7.827
62031SOL     OW87924  14.849  11.686  13.834
62031SOL    HW187925  14.801  11.683  13.916
62031SOL    HW287926   0.020  11.766  13.840
62032SOL     OW87927   0.771   7.142  13.357
62032SOL    HW187928   0.710   7.069  13.343
62032SOL    HW287929   0.755   7.171  13.446
62033SOL     OW87930   5.187   6.926   1.381
62033SOL    HW187931   5.223   6.904   1.467
62033SOL    HW287932   5.237   7.002   1.352
62034SOL     OW87933  11.273  13.415   7.654
62034SOL    HW187934  11.321  13.471   7.714
62034SOL    HW287935  11.273  13.329   7.695
62035SOL     OW87936   7.436  14.000   5.760
62035SOL    HW187937   7.466  13.924   5.810
62035SOL    HW287938   7.386  13.963   5.687
62036SOL     OW87939   8.045   2.363   1.557
62036SOL    HW187940   7.954   2.332   1.557
62036SOL    HW287941   8.095   2.289   1.593
62037SOL     OW87942  11.592   2.889   9.708
62037SOL    HW187943  11.614   2.801   9.679
62037SOL    HW287944  11.515   2.913   9.655
62038SOL     OW87945   3.309  12.410   7.801
62038SOL    HW187946   3.375  12.356   7.845
62038SOL    HW287947   3.346  12.498   7.801
62039SOL     OW87948   7.903  10.341  10.269
62039SOL    HW187949   7.918  10.424  10.223
62039SOL    HW287950   7.839  10.295  10.214
62040SOL     OW87951   2.114   3.821   8.112
62040SOL    HW187952   2.172   3.754   8.075
62040SOL    HW287953   2.173   3.881   8.157
62041SOL     OW87954  10.480   4.359   2.378
62041SOL    HW187955  10.415   4.301   2.418
62041SOL    HW287956  10.558   4.305   2.369
62042SOL     OW87957  14.290  13.527   4.108
62042SOL    HW187958  14.229  13.599   4.125
62042SOL    HW287959  14.334  13.551   4.027
62043SOL     OW87960   1.456   9.404   8.390
62043SOL    HW187961   1.496   9.388   8.305
62043SOL    HW287962   1.495   9.486   8.420
62044SOL     OW87963  12.831  14.166  14.313
62044SOL    HW187964  12.782  14.086  14.295
62044SOL    HW287965  12.840  14.168  14.408
62045SOL     OW87966   9.884   3.060  12.443
62045SOL    HW187967   9.920   3.144  12.417
62045SOL    HW287968   9.823   3.037  12.373
62046SOL     OW87969  13.087   1.859   9.930
62046SOL    HW187970  13.065   1.766   9.931
62046SOL    HW287971  13.015   1.902   9.976
62047SOL     OW87972   0.597   8.406  14.703
62047SOL    HW187973   0.546   8.459  14.641
62047SOL    HW287974   0.532   8.352  14.747
62048SOL     OW87975   7.615   6.781   7.630
62048SOL    HW187976   7.569   6.851   7.584
62048SOL    HW287977   7.583   6.786   7.720
62049SOL     OW87978   4.829   0.582   8.469
62049SOL    HW187979   4.881   0.575   8.389
62049SOL    HW287980   4.882   0.638   8.527
62050SOL     OW87981  10.298   3.378   0.352
62050SOL    HW187982  10.360   3.352   0.283
62050SOL    HW287983  10.292   3.473   0.343
62051SOL     OW87984   9.739   2.548   5.664
62051SOL    HW187985   9.648   2.578   5.667
62051SOL    HW287986   9.790   2.626   5.642
62052SOL     OW87987   0.128  11.242   7.143
62052SOL    HW187988   0.119  11.315   7.204
62052SOL    HW287989   0.052  11.250   7.085
62053SOL     OW87990   0.511  11.528   2.537
62053SOL    HW187991   0.566  11.604   2.519
62053SOL    HW287992   0.498  11.487   2.451
62054SOL     OW87993  10.146   4.210   6.924
62054SOL    HW187994  10.115   4.293   6.888
62054SOL    HW287995  10.219   4.235   6.981
62055SOL     OW87996  10.707   9.369   7.758
62055SOL    HW187997  10.734   9.404   7.673
62055SOL    HW287998  10.766   9.410   7.821
62056SOL     OW87999  11.786   0.051   8.452
62056SOL    HW188000  11.705   0.092   8.482
62056SOL    HW288001  11.798  14.857   8.509
62057SOL     OW88002   4.882   1.018  12.679
62057SOL    HW188003   4.952   1.080  12.702
62057SOL    HW288004   4.922   0.958  12.616
62058SOL     OW88005   2.876  13.559   0.007
62058SOL    HW188006   2.924  13.584   0.086
62058SOL    HW288007   2.893  13.466  14.878
62059SOL     OW88008  14.301   0.667   9.705
62059SOL    HW188009  14.306   0.715   9.788
62059SOL    HW288010  14.259   0.727   9.644
62060SOL     OW88011   5.264  14.584   1.943
62060SOL    HW188012   5.268  14.623   1.856
62060SOL    HW288013   5.355  14.561   1.963
62061SOL     OW88014   6.275  10.594   3.044
62061SOL    HW188015   6.361  10.626   3.070
62061SOL    HW288016   6.242  10.662   2.984
62062SOL     OW88017   6.603   1.447   2.137
62062SOL    HW188018   6.574   1.538   2.133
62062SOL    HW288019   6.645   1.430   2.053
62063SOL     OW88020  11.225   2.180   7.315
62063SOL    HW188021  11.219   2.155   7.407
62063SOL    HW288022  11.151   2.239   7.302
62064SOL     OW88023   8.540   2.636  14.103
62064SOL    HW188024   8.541   2.708  14.166
62064SOL    HW288025   8.574   2.675  14.022
62065SOL     OW88026   4.064   5.105   5.063
62065SOL    HW188027   3.997   5.167   5.033
62065SOL    HW288028   4.121   5.157   5.120
62066SOL     OW88029   2.669  12.449  11.379
62066SOL    HW188030   2.621  12.523  11.342
62066SOL    HW288031   2.669  12.465  11.473
62067SOL     OW88032  11.333   6.465   4.308
62067SOL    HW188033  11.247   6.422   4.319
62067SOL    HW288034  11.313   6.548   4.265
62068SOL     OW88035   7.500   3.586   6.063
62068SOL    HW188036   7.499   3.498   6.025
62068SOL    HW288037   7.510   3.571   6.157
62069SOL     OW88038   0.743   8.043   4.066
62069SOL    HW188039   0.758   8.087   4.150
62069SOL    HW288040   0.728   8.114   4.003
62070SOL     OW88041   7.168   4.309   2.173
62070SOL    HW188042   7.225   4.233   2.183
62070SOL    HW288043   7.191   4.367   2.245
62071SOL     OW88044   9.538  11.226   0.486
62071SOL    HW188045   9.557  11.317   0.511
62071SOL    HW288046   9.469  11.234   0.420
62072SOL     OW88047  11.638   3.011  14.136
62072SOL    HW188048  11.642   2.994  14.042
62072SOL    HW288049  11.705   3.078  14.151
62073SOL     OW88050   8.515   0.695   4.777
62073SOL    HW188051   8.531   0.682   4.683
62073SOL    HW288052   8.420   0.689   4.786
62074SOL     OW88053   5.807   7.023   5.337
62074SOL    HW188054   5.791   7.004   5.245
62074SOL    HW288055   5.899   7.000   5.351
62075SOL     OW88056   4.405   4.043   6.793
62075SOL    HW188057   4.411   4.125   6.745
62075SOL    HW288058   4.423   4.067   6.884
62076SOL     OW88059   9.287   9.837  14.487
62076SOL    HW188060   9.200   9.798  14.480
62076SOL    HW288061   9.347   9.767  14.461
62077SOL     OW88062   5.188   9.046  10.629
62077SOL    HW188063   5.251   9.019  10.562
62077SOL    HW288064   5.138   8.967  10.648
62078SOL     OW88065  14.668  11.873   0.566
62078SOL    HW188066  14.575  11.862   0.548
62078SOL    HW288067  14.691  11.957   0.525
62079SOL     OW88068  10.348   3.400   9.643
62079SOL    HW188069  10.311   3.390   9.554
62079SOL    HW288070  10.442   3.399   9.630
62080SOL     OW88071   9.832   2.249   3.798
62080SOL    HW188072   9.839   2.328   3.743
62080SOL    HW288073   9.908   2.254   3.856
62081SOL     OW88074   0.136   8.931  13.259
62081SOL    HW188075   0.121   8.928  13.164
62081SOL    HW288076   0.210   8.991  13.269
62082SOL     OW88077  10.571   0.894  10.895
62082SOL    HW188078  10.596   0.821  10.839
62082SOL    HW288079  10.642   0.957  10.886
62083SOL     OW88080  10.359   1.231   8.808
62083SOL    HW188081  10.409   1.287   8.868
62083SOL    HW288082  10.423   1.170   8.772
62084SOL     OW88083  13.042   0.694   6.973
62084SOL    HW188084  13.079   0.756   6.911
62084SOL    HW288085  13.025   0.745   7.052
62085SOL     OW88086   0.481   4.763   5.681
62085SOL    HW188087   0.507   4.753   5.773
62085SOL    HW288088   0.494   4.856   5.662
62086SOL     OW88089   5.473   9.051   3.389
62086SOL    HW188090   5.429   9.125   3.349
62086SOL    HW288091   5.566   9.073   3.386
62087SOL     OW88092   6.986   0.813  14.610
62087SOL    HW188093   7.040   0.809  14.689
62087SOL    HW288094   6.957   0.904  14.605
62088SOL     OW88095  12.360   6.662  12.957
62088SOL    HW188096  12.345   6.587  13.015
62088SOL    HW288097  12.453   6.683  12.968
62089SOL     OW88098  12.697   4.838  12.430
62089SOL    HW188099  12.762   4.801  12.490
62089SOL    HW288100  12.711   4.932  12.434
62090SOL     OW88101   4.426  13.633   3.007
62090SOL    HW188102   4.516  13.638   2.973
62090SOL    HW288103   4.430  13.676   3.092
62091SOL     OW88104   0.515   8.484  12.143
62091SOL    HW188105   0.605   8.458  12.124
62091SOL    HW288106   0.495   8.551  12.077
62092SOL     OW88107   7.639   0.612   8.180
62092SOL    HW188108   7.570   0.653   8.231
62092SOL    HW288109   7.642   0.662   8.098
62093SOL     OW88110  14.758   7.137   4.184
62093SOL    HW188111  14.833   7.111   4.131
62093SOL    HW288112  14.715   7.205   4.133
62094SOL     OW88113   7.503  11.595  14.525
62094SOL    HW188114   7.547  11.566  14.605
62094SOL    HW288115   7.556  11.560  14.453
62095SOL     OW88116   7.644   0.078   5.315
62095SOL    HW188117   7.638   0.157   5.262
62095SOL    HW288118   7.657   0.007   5.251
62096SOL     OW88119   0.728   4.040   3.722
62096SOL    HW188120   0.702   4.065   3.811
62096SOL    HW288121   0.694   3.952   3.711
62097SOL     OW88122  13.907   8.294  10.250
62097SOL    HW188123  13.835   8.231  10.246
62097SOL    HW288124  13.868   8.371  10.292
62098SOL     OW88125  11.751   2.155   0.943
62098SOL    HW188126  11.687   2.179   1.010
62098SOL    HW288127  11.820   2.109   0.991
62099SOL     OW88128  14.484  11.380   7.347
62099SOL    HW188129  14.558  11.441   7.349
62099SOL    HW288130  14.501  11.326   7.270
62100SOL     OW88131   0.666   6.085   3.892
62100SOL    HW188132   0.693   6.019   3.828
62100SOL    HW288133   0.658   6.038   3.974
62101SOL     OW88134  14.294  14.016  14.289
62101SOL    HW188135  14.369  13.960  14.270
62101SOL    HW288136  14.321  14.103  14.261
62102SOL     OW88137   3.965   6.608   3.568
62102SOL    HW188138   3.895   6.672   3.573
62102SOL    HW288139   3.927   6.534   3.522
62103SOL     OW88140   1.546   3.420   8.989
62103SOL    HW188141   1.556   3.351   8.923
62103SOL    HW288142   1.596   3.494   8.954
62104SOL     OW88143  11.504  14.146   7.855
62104SOL    HW188144  11.527  14.202   7.781
62104SOL    HW288145  11.413  14.168   7.874
62105SOL     OW88146  12.257  13.766   4.111
62105SOL    HW188147  12.164  13.785   4.100
62105SOL    HW288148  12.280  13.715   4.034
62106SOL     OW88149   8.319   8.231   1.407
62106SOL    HW188150   8.257   8.303   1.402
62106SOL    HW288151   8.343   8.226   1.499
62107SOL     OW88152  13.641   3.287  10.715
62107SOL    HW188153  13.726   3.294  10.759
62107SOL    HW288154  13.662   3.282  10.622
62108SOL     OW88155  13.886  10.721  10.551
62108SOL    HW188156  13.955  10.656  10.539
62108SOL    HW288157  13.818  10.695  10.489
62109SOL     OW88158   7.232  11.595   1.938
62109SOL    HW188159   7.190  11.525   1.887
62109SOL    HW288160   7.168  11.617   2.006
62110SOL     OW88161   5.882   3.265  13.275
62110SOL    HW188162   5.951   3.329  13.291
62110SOL    HW288163   5.802   3.317  13.266
62111SOL     OW88164  10.341   3.709   3.801
62111SOL    HW188165  10.376   3.655   3.730
62111SOL    HW288166  10.253   3.732   3.773
62112SOL     OW88167   2.492   7.877   5.681
62112SOL    HW188168   2.544   7.872   5.761
62112SOL    HW288169   2.531   7.814   5.622
62113SOL     OW88170   6.896   2.890   4.436
62113SOL    HW188171   6.907   2.985   4.431
62113SOL    HW288172   6.881   2.864   4.345
62114SOL     OW88173  10.373   1.752  12.501
62114SOL    HW188174  10.354   1.672  12.453
62114SOL    HW288175  10.430   1.802  12.443
62115SOL     OW88176  14.063   6.299   9.713
62115SOL    HW188177  14.115   6.231   9.670
62115SOL    HW288178  13.993   6.252   9.758
62116SOL     OW88179   5.389   5.107   8.666
62116SOL    HW188180   5.425   5.063   8.743
62116SOL    HW288181   5.299   5.130   8.691
62117SOL     OW88182  13.082   5.665  13.313
62117SOL    HW188183  13.060   5.652  13.405
62117SOL    HW288184  13.112   5.579  13.282
62118SOL     OW88185   9.147  13.462   2.454
62118SOL    HW188186   9.068  13.409   2.464
62118SOL    HW288187   9.120  13.534   2.397
62119SOL     OW88188   2.831   5.259   7.510
62119SOL    HW188189   2.843   5.281   7.602
62119SOL    HW288190   2.788   5.174   7.511
62120SOL     OW88191   7.340  11.922   2.466
62120SOL    HW188192   7.379  12.002   2.501
62120SOL    HW288193   7.393  11.901   2.389
62121SOL     OW88194  12.809  14.461   6.147
62121SOL    HW188195  12.790  14.463   6.241
62121SOL    HW288196  12.752  14.528   6.109
62122SOL     OW88197   1.786   3.137  14.711
62122SOL    HW188198   1.814   3.214  14.662
62122SOL    HW288199   1.732   3.171  14.782
62123SOL     OW88200   6.871   0.825   0.339
62123SOL    HW188201   6.874   0.851   0.247
62123SOL    HW288202   6.856   0.907   0.387
62124SOL     OW88203   2.714   7.481  11.900
62124SOL    HW188204   2.792   7.485  11.955
62124SOL    HW288205   2.742   7.435  11.821
62125SOL     OW88206   9.951   7.022   4.737
62125SOL    HW188207   9.884   6.955   4.724
62125SOL    HW288208   9.937   7.054   4.826
62126SOL     OW88209   1.374  12.581   2.396
62126SOL    HW188210   1.349  12.517   2.463
62126SOL    HW288211   1.425  12.646   2.444
62127SOL     OW88212  13.264   1.359   0.511
62127SOL    HW188213  13.279   1.268   0.536
62127SOL    HW288214  13.200   1.392   0.575
62128SOL     OW88215   9.921   8.886  11.828
62128SOL    HW188216   9.982   8.933  11.885
62128SOL    HW288217   9.850   8.859  11.886
62129SOL     OW88218   9.004   5.753  10.146
62129SOL    HW188219   8.924   5.799  10.124
62129SOL    HW288220   9.060   5.764  10.069
62130SOL     OW88221   3.962   3.824   7.203
62130SOL    HW188222   3.956   3.883   7.128
62130SOL    HW288223   3.900   3.860   7.267
62131SOL     OW88224   6.793  10.039   9.956
62131SOL    HW188225   6.707   9.998   9.966
62131SOL    HW288226   6.808  10.043   9.862
62132SOL     OW88227   5.120   4.167   4.379
62132SOL    HW188228   5.069   4.246   4.400
62132SOL    HW288229   5.208   4.187   4.411
62133SOL     OW88230   2.184   2.272   4.510
62133SOL    HW188231   2.265   2.301   4.553
62133SOL    HW288232   2.126   2.348   4.514
62134SOL     OW88233   3.264   1.583   6.005
62134SOL    HW188234   3.200   1.628   5.948
62134SOL    HW288235   3.334   1.556   5.946
62135SOL     OW88236   1.840   8.349   9.239
62135SOL    HW188237   1.777   8.277   9.241
62135SOL    HW288238   1.925   8.306   9.234
62136SOL     OW88239   0.176  11.901   3.555
62136SOL    HW188240   0.133  11.816   3.565
62136SOL    HW288241   0.267  11.885   3.578
62137SOL     OW88242   0.354   1.074  14.811
62137SOL    HW188243   0.362   0.980  14.794
62137SOL    HW288244   0.436   1.097  14.854
62138SOL     OW88245  10.972   3.347   9.714
62138SOL    HW188246  10.956   3.433   9.674
62138SOL    HW288247  10.965   3.285   9.642
62139SOL     OW88248   6.726  12.822   9.613
62139SOL    HW188249   6.639  12.824   9.573
62139SOL    HW288250   6.784  12.860   9.546
62140SOL     OW88251   0.677  13.973   2.156
62140SOL    HW188252   0.766  13.991   2.186
62140SOL    HW288253   0.688  13.919   2.077
62141SOL     OW88254   3.821   4.246   6.200
62141SOL    HW188255   3.909   4.227   6.168
62141SOL    HW288256   3.806   4.178   6.266
62142SOL     OW88257   9.523   3.291   3.320
62142SOL    HW188258   9.524   3.341   3.239
62142SOL    HW288259   9.466   3.341   3.379
62143SOL     OW88260   4.842  10.391  11.433
62143SOL    HW188261   4.858  10.426  11.521
62143SOL    HW288262   4.821  10.299  11.447
62144SOL     OW88263  12.415   4.484   7.381
62144SOL    HW188264  12.328   4.508   7.413
62144SOL    HW288265  12.405   4.395   7.347
62145SOL     OW88266   8.580   2.384  10.451
62145SOL    HW188267   8.574   2.297  10.491
62145SOL    HW288268   8.490   2.404  10.424
62146SOL     OW88269   6.299   5.010   7.694
62146SOL    HW188270   6.288   5.086   7.752
62146SOL    HW288271   6.253   5.035   7.614
62147SOL     OW88272   4.941   0.895   4.837
62147SOL    HW188273   4.990   0.925   4.761
62147SOL    HW288274   4.978   0.809   4.857
62148SOL     OW88275   1.252  14.075   8.646
62148SOL    HW188276   1.176  14.067   8.703
62148SOL    HW288277   1.307  13.999   8.667
62149SOL     OW88278   1.460   5.023   3.587
62149SOL    HW188279   1.411   4.944   3.610
62149SOL    HW288280   1.451   5.080   3.664
62150SOL     OW88281   6.135   5.949   3.360
62150SOL    HW188282   6.148   5.944   3.455
62150SOL    HW288283   6.223   5.950   3.323
62151SOL     OW88284   7.356  10.409   2.948
62151SOL    HW188285   7.416  10.483   2.952
62151SOL    HW288286   7.310  10.410   3.033
62152SOL     OW88287  14.627  12.013   7.395
62152SOL    HW188288  14.544  12.033   7.438
62152SOL    HW288289  14.616  11.924   7.362
62153SOL     OW88290  11.688  13.435   0.712
62153SOL    HW188291  11.725  13.355   0.750
62153SOL    HW288292  11.666  13.410   0.622
62154SOL     OW88293  14.136   2.113   2.625
62154SOL    HW188294  14.050   2.151   2.608
62154SOL    HW288295  14.188   2.185   2.658
62155SOL     OW88296   4.624  11.067   0.758
62155SOL    HW188297   4.705  11.118   0.750
62155SOL    HW288298   4.568  11.101   0.688
62156SOL     OW88299  14.392  10.756  12.995
62156SOL    HW188300  14.445  10.795  12.926
62156SOL    HW288301  14.385  10.664  12.971
62157SOL     OW88302   6.007   6.970  13.086
62157SOL    HW188303   5.940   7.001  13.146
62157SOL    HW288304   5.982   6.880  13.066
62158SOL     OW88305   0.309   0.562  14.627
62158SOL    HW188306   0.270   0.617  14.558
62158SOL    HW288307   0.377   0.512  14.582
62159SOL     OW88308   2.761   9.997   1.288
62159SOL    HW188309   2.840   9.946   1.307
62159SOL    HW288310   2.700   9.934   1.251
62160SOL     OW88311   0.903   9.554  13.453
62160SOL    HW188312   0.922   9.581  13.363
62160SOL    HW288313   0.917   9.633  13.505
62161SOL     OW88314  11.014   9.596   8.622
62161SOL    HW188315  10.921   9.574   8.623
62161SOL    HW288316  11.043   9.570   8.534
62162SOL     OW88317   6.574  13.337  12.952
62162SOL    HW188318   6.628  13.355  12.875
62162SOL    HW288319   6.622  13.269  12.999
62163SOL     OW88320   8.068   5.192  13.897
62163SOL    HW188321   7.997   5.159  13.841
62163SOL    HW288322   8.065   5.135  13.974
62164SOL     OW88323   2.357   6.328   8.928
62164SOL    HW188324   2.280   6.386   8.934
62164SOL    HW288325   2.353   6.292   8.840
62165SOL     OW88326   4.760   0.530  10.857
62165SOL    HW188327   4.749   0.575  10.940
62165SOL    HW288328   4.839   0.569  10.819
62166SOL     OW88329  10.119  11.120  11.906
62166SOL    HW188330  10.111  11.215  11.914
62166SOL    HW288331  10.155  11.106  11.818
62167SOL     OW88332   1.665  14.756  11.236
62167SOL    HW188333   1.598  14.689  11.228
62167SOL    HW288334   1.669  14.797  11.149
62168SOL     OW88335   7.316   3.608   7.179
62168SOL    HW188336   7.370   3.649   7.247
62168SOL    HW288337   7.232   3.654   7.185
62169SOL     OW88338   3.313   5.092   0.761
62169SOL    HW188339   3.326   5.166   0.702
62169SOL    HW288340   3.353   5.120   0.843
62170SOL     OW88341   2.760   1.039   6.800
62170SOL    HW188342   2.797   1.126   6.812
62170SOL    HW288343   2.807   0.983   6.862
62171SOL     OW88344   8.476   3.321   5.197
62171SOL    HW188345   8.521   3.400   5.166
62171SOL    HW288346   8.419   3.352   5.267
62172SOL     OW88347   3.572   8.204   9.390
62172SOL    HW188348   3.500   8.217   9.451
62172SOL    HW288349   3.565   8.112   9.365
62173SOL     OW88350  14.375  11.141  12.895
62173SOL    HW188351  14.282  11.132  12.913
62173SOL    HW288352  14.381  11.146  12.800
62174SOL     OW88353   2.698   8.299   4.883
62174SOL    HW188354   2.659   8.365   4.939
62174SOL    HW288355   2.772   8.265   4.933
62175SOL     OW88356  13.978   2.997   3.529
62175SOL    HW188357  13.885   3.016   3.518
62175SOL    HW288358  13.998   3.025   3.618
62176SOL     OW88359   7.290   7.617   2.518
62176SOL    HW188360   7.287   7.567   2.436
62176SOL    HW288361   7.383   7.635   2.531
62177SOL     OW88362   1.564   6.472   5.143
62177SOL    HW188363   1.534   6.432   5.061
62177SOL    HW288364   1.500   6.540   5.161
62178SOL     OW88365   3.314  14.631   3.814
62178SOL    HW188366   3.321  14.537   3.834
62178SOL    HW288367   3.361  14.641   3.731
62179SOL     OW88368  10.058  12.602   7.719
62179SOL    HW188369  10.142  12.612   7.764
62179SOL    HW288370  10.045  12.685   7.673
62180SOL     OW88371   1.878   5.946  12.307
62180SOL    HW188372   1.847   5.930  12.396
62180SOL    HW288373   1.814   5.903  12.251
62181SOL     OW88374   6.100  13.171  13.791
62181SOL    HW188375   6.082  13.078  13.803
62181SOL    HW288376   6.045  13.216  13.855
62182SOL     OW88377   6.316   9.844   6.509
62182SOL    HW188378   6.366   9.806   6.581
62182SOL    HW288379   6.226   9.849   6.541
62183SOL     OW88380   6.405   3.112  11.232
62183SOL    HW188381   6.369   3.092  11.318
62183SOL    HW288382   6.408   3.027  11.187
62184SOL     OW88383   8.167  11.761   2.450
62184SOL    HW188384   8.085  11.788   2.408
62184SOL    HW288385   8.235  11.802   2.397
62185SOL     OW88386   4.918  12.720   1.866
62185SOL    HW188387   4.824  12.730   1.885
62185SOL    HW288388   4.931  12.769   1.785
62186SOL     OW88389   3.105  10.879  11.134
62186SOL    HW188390   3.124  10.831  11.215
62186SOL    HW288391   3.059  10.958  11.163
62187SOL     OW88392   9.837  10.054   4.310
62187SOL    HW188393   9.905  10.090   4.253
62187SOL    HW288394   9.764  10.034   4.251
62188SOL     OW88395   5.929  10.673  10.746
62188SOL    HW188396   5.865  10.692  10.677
62188SOL    HW288397   5.985  10.751  10.749
62189SOL     OW88398   9.446   9.140   0.873
62189SOL    HW188399   9.359   9.164   0.842
62189SOL    HW288400   9.484   9.089   0.801
62190SOL     OW88401  11.618   7.035   5.761
62190SOL    HW188402  11.624   7.088   5.682
62190SOL    HW288403  11.631   6.945   5.732
62191SOL     OW88404   1.354  11.823  12.073
62191SOL    HW188405   1.273  11.865  12.043
62191SOL    HW288406   1.418  11.894  12.076
62192SOL     OW88407  10.024   2.494   7.563
62192SOL    HW188408  10.103   2.475   7.512
62192SOL    HW288409   9.984   2.568   7.518
62193SOL     OW88410   9.970   7.239   2.811
62193SOL    HW188411   9.903   7.297   2.774
62193SOL    HW288412  10.048   7.255   2.758
62194SOL     OW88413   7.075   4.224   1.455
62194SOL    HW188414   7.001   4.171   1.426
62194SOL    HW288415   7.046   4.314   1.439
62195SOL     OW88416   7.605   8.486   1.610
62195SOL    HW188417   7.638   8.418   1.668
62195SOL    HW288418   7.627   8.455   1.522
62196SOL     OW88419   8.864   6.138  14.396
62196SOL    HW188420   8.831   6.049  14.408
62196SOL    HW288421   8.959   6.130  14.409
62197SOL     OW88422   0.232   1.305  14.306
62197SOL    HW188423   0.274   1.377  14.354
62197SOL    HW288424   0.187   1.254  14.373
62198SOL     OW88425  11.357   6.334   6.139
62198SOL    HW188426  11.291   6.367   6.200
62198SOL    HW288427  11.438   6.334   6.190
62199SOL     OW88428   8.689   6.419   5.522
62199SOL    HW188429   8.629   6.410   5.448
62199SOL    HW288430   8.762   6.471   5.487
62200SOL     OW88431   3.652  12.321   5.047
62200SOL    HW188432   3.662  12.375   4.969
62200SOL    HW288433   3.741  12.307   5.079
62201SOL     OW88434   2.628   8.581   9.988
62201SOL    HW188435   2.666   8.665   9.960
62201SOL    HW288436   2.627   8.527   9.909
62202SOL     OW88437   9.301   8.774   7.571
62202SOL    HW188438   9.346   8.856   7.551
62202SOL    HW288439   9.211   8.799   7.587
62203SOL     OW88440  11.678   7.838   9.606
62203SOL    HW188441  11.647   7.886   9.530
62203SOL    HW288442  11.771   7.820   9.587
62204SOL     OW88443   8.619  10.773   9.726
62204SOL    HW188444   8.527  10.799   9.728
62204SOL    HW288445   8.666  10.854   9.748
62205SOL     OW88446   8.782   9.698   2.103
62205SOL    HW188447   8.775   9.615   2.149
62205SOL    HW288448   8.854   9.744   2.148
62206SOL     OW88449   0.597   9.276  12.741
62206SOL    HW188450   0.514   9.283  12.694
62206SOL    HW288451   0.574   9.234  12.824
62207SOL     OW88452   2.155   4.244   0.670
62207SOL    HW188453   2.233   4.298   0.662
62207SOL    HW288454   2.145   4.203   0.584
62208SOL     OW88455   2.898   3.506   7.737
62208SOL    HW188456   2.898   3.434   7.799
62208SOL    HW288457   2.913   3.585   7.790
62209SOL     OW88458   3.926   5.603   1.937
62209SOL    HW188459   3.835   5.575   1.944
62209SOL    HW288460   3.977   5.528   1.967
62210SOL     OW88461   7.686  14.474  11.427
62210SOL    HW188462   7.649  14.473  11.339
62210SOL    HW288463   7.704  14.382  11.447
62211SOL     OW88464   8.354   6.967  11.644
62211SOL    HW188465   8.278   7.017  11.672
62211SOL    HW288466   8.425   7.031  11.638
62212SOL     OW88467   5.227  11.391   8.260
62212SOL    HW188468   5.317  11.393   8.293
62212SOL    HW288469   5.172  11.392   8.339
62213SOL     OW88470   4.981   2.714   7.396
62213SOL    HW188471   5.008   2.704   7.488
62213SOL    HW288472   4.981   2.808   7.381
62214SOL     OW88473   9.719   5.041  14.275
62214SOL    HW188474   9.814   5.033  14.268
62214SOL    HW288475   9.698   5.115  14.218
62215SOL     OW88476   8.145  10.604   3.352
62215SOL    HW188477   8.094  10.593   3.432
62215SOL    HW288478   8.089  10.570   3.283
62216SOL     OW88479   8.262   6.194   2.216
62216SOL    HW188480   8.346   6.171   2.178
62216SOL    HW288481   8.276   6.194   2.310
62217SOL     OW88482   5.577   5.784  12.549
62217SOL    HW188483   5.512   5.713  12.547
62217SOL    HW288484   5.643   5.758  12.485
62218SOL     OW88485  12.329   9.608   5.550
62218SOL    HW188486  12.384   9.686   5.540
62218SOL    HW288487  12.364   9.565   5.628
62219SOL     OW88488   3.616   7.067   0.862
62219SOL    HW188489   3.691   7.109   0.819
62219SOL    HW288490   3.578   7.012   0.793
62220SOL     OW88491   2.154   4.754   3.793
62220SOL    HW188492   2.118   4.733   3.879
62220SOL    HW288493   2.248   4.744   3.803
62221SOL     OW88494   8.155   1.755  14.631
62221SOL    HW188495   8.112   1.815  14.692
62221SOL    HW288496   8.236   1.731  14.676
62222SOL     OW88497   6.890  13.155  13.272
62222SOL    HW188498   6.807  13.110  13.288
62222SOL    HW288499   6.953  13.085  13.254
62223SOL     OW88500   2.810  14.653   5.445
62223SOL    HW188501   2.729  14.616   5.409
62223SOL    HW288502   2.785  14.742   5.472
62224SOL     OW88503   3.099   8.711   0.202
62224SOL    HW188504   3.029   8.741   0.144
62224SOL    HW288505   3.149   8.649   0.149
62225SOL     OW88506   2.314   4.329  13.991
62225SOL    HW188507   2.229   4.353  13.954
62225SOL    HW288508   2.344   4.256  13.938
62226SOL     OW88509   6.366   3.879   8.212
62226SOL    HW188510   6.293   3.915   8.262
62226SOL    HW288511   6.419   3.955   8.188
62227SOL     OW88512   7.816   7.167   0.867
62227SOL    HW188513   7.847   7.084   0.831
62227SOL    HW288514   7.754   7.199   0.802
62228SOL     OW88515   9.122  11.341   6.729
62228SOL    HW188516   9.051  11.277   6.719
62228SOL    HW288517   9.091  11.418   6.682
62229SOL     OW88518   8.738  14.676   2.476
62229SOL    HW188519   8.794  14.723   2.538
62229SOL    HW288520   8.678  14.743   2.443
62230SOL     OW88521   1.674   4.205   1.889
62230SOL    HW188522   1.661   4.174   1.800
62230SOL    HW288523   1.762   4.242   1.890
62231SOL     OW88524   8.930   7.948   2.116
62231SOL    HW188525   9.015   7.952   2.159
62231SOL    HW288526   8.934   8.015   2.048
62232SOL     OW88527   9.778  12.783  13.865
62232SOL    HW188528   9.686  12.780  13.892
62232SOL    HW288529   9.827  12.768  13.946
62233SOL     OW88530  11.359  13.701   1.405
62233SOL    HW188531  11.294  13.741   1.461
62233SOL    HW288532  11.397  13.631   1.458
62234SOL     OW88533   2.184   3.825   4.736
62234SOL    HW188534   2.143   3.827   4.822
62234SOL    HW288535   2.128   3.880   4.681
62235SOL     OW88536   7.996   2.612   1.431
62235SOL    HW188537   8.068   2.665   1.398
62235SOL    HW288538   8.038   2.543   1.482
62236SOL     OW88539   4.618  11.974  13.170
62236SOL    HW188540   4.595  12.067  13.166
62236SOL    HW288541   4.644  11.960  13.261
62237SOL     OW88542  12.162   0.128  11.318
62237SOL    HW188543  12.214   0.128  11.398
62237SOL    HW288544  12.133   0.038  11.307
62238SOL     OW88545   7.371  10.984   4.112
62238SOL    HW188546   7.287  10.987   4.067
62238SOL    HW288547   7.435  11.005   4.045
62239SOL     OW88548  13.151  10.739   3.950
62239SOL    HW188549  13.063  10.765   3.978
62239SOL    HW288550  13.192  10.704   4.029
62240SOL     OW88551  12.703   9.816   7.547
62240SOL    HW188552  12.687   9.908   7.568
62240SOL    HW288553  12.630   9.791   7.489
62241SOL     OW88554   9.595   3.361   7.365
62241SOL    HW188555   9.508   3.345   7.329
62241SOL    HW288556   9.583   3.359   7.460
62242SOL     OW88557   6.767   7.403   4.509
62242SOL    HW188558   6.751   7.316   4.546
62242SOL    HW288559   6.847   7.393   4.457
62243SOL     OW88560   4.762  11.990  13.453
62243SOL    HW188561   4.782  11.924  13.520
62243SOL    HW288562   4.834  12.053  13.459
62244SOL     OW88563   4.920  10.775  10.512
62244SOL    HW188564   4.825  10.782  10.521
62244SOL    HW288565   4.952  10.763  10.601
62245SOL     OW88566  14.586  14.312   1.811
62245SOL    HW188567  14.665  14.278   1.852
62245SOL    HW288568  14.526  14.238   1.807
62246SOL     OW88569   4.970   2.774   5.931
62246SOL    HW188570   4.970   2.870   5.925
62246SOL    HW288571   4.935   2.745   5.847
62247SOL     OW88572   7.584   4.478  13.477
62247SOL    HW188573   7.618   4.534  13.407
62247SOL    HW288574   7.503   4.441  13.442
62248SOL     OW88575   6.486   6.170   3.512
62248SOL    HW188576   6.426   6.229   3.556
62248SOL    HW288577   6.573   6.198   3.540
62249SOL     OW88578  12.053   6.975  11.988
62249SOL    HW188579  11.997   6.966  12.065
62249SOL    HW288580  12.110   7.050  12.009
62250SOL     OW88581   6.840   2.705  12.037
62250SOL    HW188582   6.898   2.781  12.028
62250SOL    HW288583   6.784   2.708  11.960
62251SOL     OW88584   1.187  12.527  10.893
62251SOL    HW188585   1.192  12.609  10.846
62251SOL    HW288586   1.099  12.525  10.930
62252SOL     OW88587  11.838   2.751   9.581
62252SOL    HW188588  11.817   2.826   9.526
62252SOL    HW288589  11.900   2.786   9.645
62253SOL     OW88590   4.327   4.165   3.146
62253SOL    HW188591   4.253   4.134   3.094
62253SOL    HW288592   4.378   4.086   3.166
62254SOL     OW88593  12.706   4.269   7.776
62254SOL    HW188594  12.613   4.249   7.761
62254SOL    HW288595  12.715   4.361   7.750
62255SOL     OW88596  12.679  14.096   4.470
62255SOL    HW188597  12.629  14.173   4.443
62255SOL    HW288598  12.736  14.128   4.540
62256SOL     OW88599   8.999   6.391   0.690
62256SOL    HW188600   8.909   6.363   0.706
62256SOL    HW288601   9.006   6.398   0.595
62257SOL     OW88602   5.721   0.551   6.138
62257SOL    HW188603   5.648   0.612   6.142
62257SOL    HW288604   5.797   0.605   6.116
62258SOL     OW88605   8.605  13.940   2.178
62258SOL    HW188606   8.592  14.021   2.226
62258SOL    HW288607   8.555  13.952   2.097
62259SOL     OW88608   7.383   3.430   7.422
62259SOL    HW188609   7.397   3.432   7.517
62259SOL    HW288610   7.415   3.344   7.396
62260SOL     OW88611   7.659   7.205   8.940
62260SOL    HW188612   7.620   7.145   8.876
62260SOL    HW288613   7.592   7.215   9.007
62261SOL     OW88614   6.508   1.260   4.595
62261SOL    HW188615   6.452   1.259   4.673
62261SOL    HW288616   6.471   1.329   4.540
62262SOL     OW88617  13.818   4.898   8.248
62262SOL    HW188618  13.842   4.811   8.280
62262SOL    HW288619  13.740   4.883   8.195
62263SOL     OW88620  13.474  14.669   7.073
62263SOL    HW188621  13.469  14.675   6.978
62263SOL    HW288622  13.404  14.608   7.097
62264SOL     OW88623   9.501  14.360   3.713
62264SOL    HW188624   9.547  14.278   3.695
62264SOL    HW288625   9.493  14.403   3.628
62265SOL     OW88626   7.542   1.260  11.464
62265SOL    HW188627   7.628   1.222  11.445
62265SOL    HW288628   7.534   1.256  11.559
62266SOL     OW88629  12.589   9.520   8.250
62266SOL    HW188630  12.507   9.534   8.203
62266SOL    HW288631  12.619   9.609   8.272
62267SOL     OW88632   4.315   5.075   0.690
62267SOL    HW188633   4.250   5.005   0.704
62267SOL    HW288634   4.264   5.156   0.691
62268SOL     OW88635  10.884   5.774   6.310
62268SOL    HW188636  10.939   5.852   6.307
62268SOL    HW288637  10.865   5.755   6.218
62269SOL     OW88638  11.736   1.068   2.145
62269SOL    HW188639  11.821   1.110   2.155
62269SOL    HW288640  11.693   1.080   2.230
62270SOL     OW88641   1.717  13.110   0.884
62270SOL    HW188642   1.728  13.044   0.815
62270SOL    HW288643   1.653  13.072   0.943
62271SOL     OW88644  10.306   9.164   2.440
62271SOL    HW188645  10.363   9.233   2.407
62271SOL    HW288646  10.362   9.112   2.497
62272SOL     OW88647  10.706   6.606   6.958
62272SOL    HW188648  10.656   6.567   7.030
62272SOL    HW288649  10.642   6.655   6.908
62273SOL     OW88650   2.394   5.477   6.423
62273SOL    HW188651   2.306   5.516   6.424
62273SOL    HW288652   2.446   5.535   6.368
62274SOL     OW88653  12.543   9.122  10.168
62274SOL    HW188654  12.599   9.119  10.246
62274SOL    HW288655  12.603   9.108  10.095
62275SOL     OW88656   5.295   1.485  13.587
62275SOL    HW188657   5.354   1.417  13.554
62275SOL    HW288658   5.354   1.550  13.626
62276SOL     OW88659   7.237  11.139   0.544
62276SOL    HW188660   7.174  11.156   0.614
62276SOL    HW288661   7.273  11.053   0.565
62277SOL     OW88662  12.388   1.590   0.481
62277SOL    HW188663  12.367   1.675   0.520
62277SOL    HW288664  12.302   1.550   0.464
62278SOL     OW88665   3.270   6.492  12.342
62278SOL    HW188666   3.206   6.421  12.332
62278SOL    HW288667   3.342   6.453  12.391
62279SOL     OW88668  14.792   3.852   1.849
62279SOL    HW188669  14.740   3.846   1.769
62279SOL    HW288670  14.740   3.906   1.908
62280SOL     OW88671   1.193   0.426  12.094
62280SOL    HW188672   1.166   0.518  12.093
62280SOL    HW288673   1.205   0.406  12.187
62281SOL     OW88674   1.974  13.711   5.452
62281SOL    HW188675   2.001  13.748   5.368
62281SOL    HW288676   1.879  13.704   5.446
62282SOL     OW88677   7.387   2.828   8.657
62282SOL    HW188678   7.309   2.836   8.602
62282SOL    HW288679   7.404   2.917   8.687
62283SOL     OW88680  11.003   7.830  12.190
62283SOL    HW188681  10.929   7.813  12.132
62283SOL    HW288682  10.975   7.902  12.245
62284SOL     OW88683  13.842  14.473  11.380
62284SOL    HW188684  13.768  14.524  11.347
62284SOL    HW288685  13.853  14.503  11.471
62285SOL     OW88686  11.419   4.051   9.580
62285SOL    HW188687  11.405   3.971   9.631
62285SOL    HW288688  11.359   4.115   9.619
62286SOL     OW88689   0.441  10.760   2.549
62286SOL    HW188690   0.373  10.781   2.485
62286SOL    HW288691   0.400  10.693   2.605
62287SOL     OW88692  10.230   7.718  10.404
62287SOL    HW188693  10.209   7.672  10.485
62287SOL    HW288694  10.262   7.803  10.433
62288SOL     OW88695   5.314   0.436   1.355
62288SOL    HW188696   5.404   0.417   1.328
62288SOL    HW288697   5.260   0.377   1.303
62289SOL     OW88698   9.227   0.037   9.163
62289SOL    HW188699   9.285   0.012   9.091
62289SOL    HW288700   9.284   0.045   9.239
62290SOL     OW88701   2.893   5.812   1.440
62290SOL    HW188702   2.923   5.781   1.354
62290SOL    HW288703   2.812   5.860   1.421
62291SOL     OW88704  10.417   4.992   8.696
62291SOL    HW188705  10.416   4.973   8.602
62291SOL    HW288706  10.507   4.976   8.723
62292SOL     OW88707  11.678   3.741   8.043
62292SOL    HW188708  11.620   3.665   8.040
62292SOL    HW288709  11.673   3.771   8.134
62293SOL     OW88710   3.385  14.202  14.233
62293SOL    HW188711   3.322  14.268  14.203
62293SOL    HW288712   3.405  14.151  14.154
62294SOL     OW88713   7.318   7.478   3.936
62294SOL    HW188714   7.235   7.435   3.915
62294SOL    HW288715   7.378   7.406   3.955
62295SOL     OW88716   5.836   7.165  13.527
62295SOL    HW188717   5.803   7.165  13.617
62295SOL    HW288718   5.859   7.256  13.510
62296SOL     OW88719   4.531   7.208  11.498
62296SOL    HW188720   4.486   7.133  11.458
62296SOL    HW288721   4.465   7.277  11.498
62297SOL     OW88722   1.569   3.575   9.353
62297SOL    HW188723   1.473   3.581   9.358
62297SOL    HW288724   1.587   3.481   9.359
62298SOL     OW88725   4.670  13.845   5.941
62298SOL    HW188726   4.739  13.806   5.995
62298SOL    HW288727   4.590  13.803   5.971
62299SOL     OW88728   7.246   7.331  13.106
62299SOL    HW188729   7.230   7.378  13.188
62299SOL    HW288730   7.340   7.318  13.104
62300SOL     OW88731   4.632   0.801   4.770
62300SOL    HW188732   4.679   0.817   4.853
62300SOL    HW288733   4.651   0.710   4.749
62301SOL     OW88734   7.255   8.054  11.632
62301SOL    HW188735   7.227   7.994  11.563
62301SOL    HW288736   7.175   8.081  11.675
62302SOL     OW88737   4.542  14.242  14.868
62302SOL    HW188738   4.603  14.250   0.060
62302SOL    HW288739   4.495  14.160   0.002
62303SOL     OW88740   5.093   7.610   8.455
62303SOL    HW188741   5.066   7.611   8.363
62303SOL    HW288742   5.012   7.609   8.504
62304SOL     OW88743   3.083   1.905  11.962
62304SOL    HW188744   3.025   1.840  12.002
62304SOL    HW288745   3.032   1.986  11.964
62305SOL     OW88746   6.480   7.738   8.013
62305SOL    HW188747   6.567   7.765   7.984
62305SOL    HW288748   6.488   7.729   8.108
62306SOL     OW88749   7.609  11.117   2.851
62306SOL    HW188750   7.631  11.190   2.793
62306SOL    HW288751   7.524  11.140   2.888
62307SOL     OW88752  10.939  12.186   6.415
62307SOL    HW188753  10.894  12.222   6.491
62307SOL    HW288754  11.024  12.231   6.413
62308SOL     OW88755   8.089   7.726   4.359
62308SOL    HW188756   8.144   7.653   4.386
62308SOL    HW288757   8.052   7.760   4.441
62309SOL     OW88758   1.802  11.948   9.722
62309SOL    HW188759   1.831  11.907   9.640
62309SOL    HW288760   1.854  12.028   9.728
62310SOL     OW88761   7.934   8.459  12.271
62310SOL    HW188762   8.013   8.405  12.283
62310SOL    HW288763   7.902   8.474  12.360
62311SOL     OW88764   7.116  13.854   6.806
62311SOL    HW188765   7.173  13.776   6.806
62311SOL    HW288766   7.028  13.819   6.821
62312SOL     OW88767   7.526   3.861   7.606
62312SOL    HW188768   7.504   3.910   7.526
62312SOL    HW288769   7.594   3.800   7.578
62313SOL     OW88770   9.092   5.407  12.256
62313SOL    HW188771   9.139   5.489  12.240
62313SOL    HW288772   9.008   5.435  12.292
62314SOL     OW88773  14.541   2.695  13.151
62314SOL    HW188774  14.519   2.675  13.242
62314SOL    HW288775  14.459   2.724  13.112
62315SOL     OW88776   9.024  12.720   1.911
62315SOL    HW188777   9.051  12.790   1.851
62315SOL    HW288778   8.990  12.766   1.988
62316SOL     OW88779   0.762   1.833   9.851
62316SOL    HW188780   0.809   1.899   9.902
62316SOL    HW288781   0.757   1.869   9.762
62317SOL     OW88782  11.180   5.100   5.620
62317SOL    HW188783  11.113   5.128   5.558
62317SOL    HW288784  11.141   5.117   5.706
62318SOL     OW88785   2.205  13.629  13.735
62318SOL    HW188786   2.172  13.670  13.815
62318SOL    HW288787   2.272  13.689  13.702
62319SOL     OW88788   8.837  14.503   6.524
62319SOL    HW188789   8.921  14.495   6.479
62319SOL    HW288790   8.772  14.469   6.462
62320SOL     OW88791  12.273   9.024   8.362
62320SOL    HW188792  12.234   9.036   8.276
62320SOL    HW288793  12.332   8.949   8.352
62321SOL     OW88794   5.578   9.501  13.106
62321SOL    HW188795   5.514   9.440  13.142
62321SOL    HW288796   5.529   9.551  13.041
62322SOL     OW88797   7.136  13.635   4.687
62322SOL    HW188798   7.224  13.634   4.647
62322SOL    HW288799   7.079  13.600   4.619
62323SOL     OW88800   7.056  14.110  10.331
62323SOL    HW188801   7.054  14.025  10.288
62323SOL    HW288802   7.080  14.171  10.262
62324SOL     OW88803  13.452   8.855  14.823
62324SOL    HW188804  13.490   8.927  14.873
62324SOL    HW288805  13.362   8.850  14.854
62325SOL     OW88806   1.542   0.284  11.091
62325SOL    HW188807   1.507   0.372  11.105
62325SOL    HW288808   1.637   0.296  11.097
62326SOL     OW88809  10.449   0.492  10.860
62326SOL    HW188810  10.484   0.563  10.805
62326SOL    HW288811  10.455   0.525  10.949
62327SOL     OW88812  13.848  10.692   8.200
62327SOL    HW188813  13.917  10.724   8.142
62327SOL    HW288814  13.783  10.762   8.200
62328SOL     OW88815  10.723   1.613  14.729
62328SOL    HW188816  10.753   1.548  14.793
62328SOL    HW288817  10.762   1.584  14.646
62329SOL     OW88818   5.749   3.208   9.053
62329SOL    HW188819   5.821   3.146   9.058
62329SOL    HW288820   5.769   3.273   9.120
62330SOL     OW88821   0.026  13.821   5.676
62330SOL    HW188822  14.813  13.834   5.677
62330SOL    HW288823   0.049  13.807   5.768
62331SOL     OW88824   3.166   2.646   0.531
62331SOL    HW188825   3.092   2.706   0.521
62331SOL    HW288826   3.235   2.700   0.570
62332SOL     OW88827   9.841   7.731  12.610
62332SOL    HW188828   9.898   7.655  12.622
62332SOL    HW288829   9.765   7.712  12.664
62333SOL     OW88830  10.977   9.337  10.662
62333SOL    HW188831  10.957   9.410  10.721
62333SOL    HW288832  11.014   9.270  10.718
62334SOL     OW88833  11.071   3.358  10.489
62334SOL    HW188834  11.028   3.440  10.463
62334SOL    HW288835  11.051   3.298  10.418
62335SOL     OW88836   4.935   7.156   3.126
62335SOL    HW188837   4.958   7.092   3.059
62335SOL    HW288838   5.019   7.181   3.164
62336SOL     OW88839   6.046  14.782   2.787
62336SOL    HW188840   6.089  14.777   2.701
62336SOL    HW288841   6.087  14.713   2.839
62337SOL     OW88842  12.816   4.193   9.769
62337SOL    HW188843  12.778   4.106   9.782
62337SOL    HW288844  12.892   4.179   9.714
62338SOL     OW88845   0.821   0.640  10.150
62338SOL    HW188846   0.876   0.659  10.227
62338SOL    HW288847   0.738   0.611  10.187
62339SOL     OW88848  13.770  12.855  12.360
62339SOL    HW188849  13.815  12.793  12.303
62339SOL    HW288850  13.751  12.805  12.439
62340SOL     OW88851   5.027   3.988  10.914
62340SOL    HW188852   5.094   3.955  10.853
62340SOL    HW288853   4.985   4.059  10.866
62341SOL     OW88854   8.632   2.126   2.298
62341SOL    HW188855   8.613   2.057   2.235
62341SOL    HW288856   8.726   2.121   2.312
62342SOL     OW88857   6.354  13.059  11.446
62342SOL    HW188858   6.355  12.967  11.471
62342SOL    HW288859   6.435  13.095  11.483
62343SOL     OW88860   4.158   2.919   7.729
62343SOL    HW188861   4.182   2.957   7.813
62343SOL    HW288862   4.062   2.912   7.732
62344SOL     OW88863   0.640   2.971   2.493
62344SOL    HW188864   0.728   2.994   2.525
62344SOL    HW288865   0.629   2.880   2.518
62345SOL     OW88866  11.082   2.050  13.285
62345SOL    HW188867  11.052   2.027  13.373
62345SOL    HW288868  11.168   2.009  13.278
62346SOL     OW88869   0.409  10.066   2.433
62346SOL    HW188870   0.426  10.072   2.527
62346SOL    HW288871   0.322  10.025   2.426
62347SOL     OW88872   7.584   2.780   3.958
62347SOL    HW188873   7.563   2.697   4.001
62347SOL    HW288874   7.500   2.813   3.926
62348SOL     OW88875   9.257  12.646   1.410
62348SOL    HW188876   9.236  12.726   1.458
62348SOL    HW288877   9.292  12.587   1.477
62349SOL     OW88878   4.479   3.737  13.620
62349SOL    HW188879   4.518   3.699  13.541
62349SOL    HW288880   4.538   3.710  13.690
62350SOL     OW88881   6.420   2.444  14.326
62350SOL    HW188882   6.457   2.399  14.402
62350SOL    HW288883   6.497   2.473  14.276
62351SOL     OW88884   0.615   9.640   7.323
62351SOL    HW188885   0.633   9.690   7.244
62351SOL    HW288886   0.528   9.602   7.309
62352SOL     OW88887   6.623   3.833  10.901
62352SOL    HW188888   6.567   3.837  10.824
62352SOL    HW288889   6.696   3.893  10.881
62353SOL     OW88890  13.168   6.459   8.861
62353SOL    HW188891  13.180   6.540   8.911
62353SOL    HW288892  13.223   6.395   8.904
62354SOL     OW88893  13.732   6.353  12.836
62354SOL    HW188894  13.675   6.389  12.769
62354SOL    HW288895  13.673   6.315  12.901
62355SOL     OW88896   9.434   3.855   2.098
62355SOL    HW188897   9.419   3.815   2.183
62355SOL    HW288898   9.413   3.786   2.035
62356SOL     OW88899  11.408   4.274   6.329
62356SOL    HW188900  11.372   4.186   6.332
62356SOL    HW288901  11.435   4.287   6.238
62357SOL     OW88902   4.781   8.931  14.543
62357SOL    HW188903   4.798   8.864  14.609
62357SOL    HW288904   4.693   8.911  14.511
62358SOL     OW88905   3.792   0.406   8.606
62358SOL    HW188906   3.790   0.485   8.552
62358SOL    HW288907   3.789   0.438   8.696
62359SOL     OW88908  14.874   2.385   3.922
62359SOL    HW188909   0.020   2.389   4.014
62359SOL    HW288910   0.060   2.431   3.874
62360SOL     OW88911  14.575  11.490  11.580
62360SOL    HW188912  14.518  11.564  11.560
62360SOL    HW288913  14.604  11.459  11.494
62361SOL     OW88914  10.734   0.306   9.557
62361SOL    HW188915  10.691   0.276   9.478
62361SOL    HW288916  10.817   0.258   9.559
62362SOL     OW88917  10.161   6.946   7.570
62362SOL    HW188918  10.106   7.002   7.625
62362SOL    HW288919  10.201   6.884   7.632
62363SOL     OW88920  14.310   0.932  11.006
62363SOL    HW188921  14.404   0.944  11.018
62363SOL    HW288922  14.274   1.020  11.006
62364SOL     OW88923   6.581  10.975   4.436
62364SOL    HW188924   6.565  10.957   4.344
62364SOL    HW288925   6.564  11.068   4.446
62365SOL     OW88926  10.433   1.201  13.145
62365SOL    HW188927  10.430   1.132  13.211
62365SOL    HW288928  10.435   1.154  13.062
62366SOL     OW88929   7.787  13.930  11.269
62366SOL    HW188930   7.796  13.905  11.361
62366SOL    HW288931   7.862  13.988  11.253
62367SOL     OW88932   4.221   2.366   2.843
62367SOL    HW188933   4.159   2.410   2.902
62367SOL    HW288934   4.286   2.327   2.902
62368SOL     OW88935   0.485   8.818   8.926
62368SOL    HW188936   0.502   8.778   8.841
62368SOL    HW288937   0.402   8.781   8.955
62369SOL     OW88938   0.941  13.555   4.751
62369SOL    HW188939   0.855  13.587   4.777
62369SOL    HW288940   0.999  13.581   4.822
62370SOL     OW88941   8.405   6.452  10.308
62370SOL    HW188942   8.326   6.505  10.298
62370SOL    HW288943   8.383   6.369  10.267
62371SOL     OW88944   5.243  11.973   4.654
62371SOL    HW188945   5.277  12.055   4.619
62371SOL    HW288946   5.152  11.971   4.626
62372SOL     OW88947   2.068  10.666   3.959
62372SOL    HW188948   2.147  10.679   3.908
62372SOL    HW288949   2.003  10.722   3.917
62373SOL     OW88950   7.449  11.105   0.871
62373SOL    HW188951   7.413  11.168   0.934
62373SOL    HW288952   7.426  11.019   0.907
62374SOL     OW88953   3.927   0.374  14.476
62374SOL    HW188954   3.969   0.304  14.426
62374SOL    HW288955   3.856   0.330  14.524
62375SOL     OW88956   6.648  10.905  12.047
62375SOL    HW188957   6.640  10.817  12.085
62375SOL    HW288958   6.731  10.938  12.080
62376SOL     OW88959   9.248   0.765   4.067
62376SOL    HW188960   9.219   0.749   4.157
62376SOL    HW288961   9.278   0.856   4.067
62377SOL     OW88962   3.929   9.835   4.365
62377SOL    HW188963   3.920   9.740   4.359
62377SOL    HW288964   4.019   9.853   4.339
62378SOL     OW88965   1.126   7.686  11.658
62378SOL    HW188966   1.077   7.638  11.724
62378SOL    HW288967   1.075   7.675  11.578
62379SOL     OW88968   8.830  13.122   2.682
62379SOL    HW188969   8.863  13.111   2.592
62379SOL    HW288970   8.751  13.067   2.685
62380SOL     OW88971  13.469   9.678   3.606
62380SOL    HW188972  13.418   9.619   3.663
62380SOL    HW288973  13.404   9.737   3.569
62381SOL     OW88974   9.782   2.827   1.855
62381SOL    HW188975   9.718   2.757   1.842
62381SOL    HW288976   9.850   2.810   1.789
62382SOL     OW88977   0.542  13.844  10.051
62382SOL    HW188978   0.482  13.782  10.094
62382SOL    HW288979   0.628  13.803  10.060
62383SOL     OW88980   8.978   8.342   6.014
62383SOL    HW188981   8.887   8.324   6.038
62383SOL    HW288982   9.028   8.319   6.093
62384SOL     OW88983  11.351   9.049  13.264
62384SOL    HW188984  11.311   9.100  13.334
62384SOL    HW288985  11.281   9.038  13.199
62385SOL     OW88986   1.370   2.971   0.596
62385SOL    HW188987   1.398   3.058   0.625
62385SOL    HW288988   1.301   2.989   0.532
62386SOL     OW88989  11.818  13.164   0.702
62386SOL    HW188990  11.855  13.157   0.613
62386SOL    HW288991  11.893  13.189   0.756
62387SOL     OW88992   9.147  11.416  13.217
62387SOL    HW188993   9.234  11.420  13.177
62387SOL    HW288994   9.163  11.405  13.310
62388SOL     OW88995   4.256  13.969   5.465
62388SOL    HW188996   4.262  13.913   5.387
62388SOL    HW288997   4.347  13.982   5.492
62389SOL     OW88998   2.846  10.379  14.847
62389SOL    HW188999   2.845  10.363  14.753
62389SOL    HW289000   2.755  10.401  14.868
62390SOL     OW89001   0.775   4.874   9.944
62390SOL    HW189002   0.764   4.807   9.876
62390SOL    HW289003   0.800   4.953   9.895
62391SOL     OW89004  12.124   2.943   4.416
62391SOL    HW189005  12.167   3.028   4.412
62391SOL    HW289006  12.151   2.899   4.335
62392SOL     OW89007   8.936   9.873  12.898
62392SOL    HW189008   8.932   9.778  12.910
62392SOL    HW289009   8.916   9.909  12.985
62393SOL     OW89010   5.589  12.166   4.291
62393SOL    HW189011   5.676  12.127   4.293
62393SOL    HW289012   5.558  12.159   4.381
62394SOL     OW89013   1.748   7.159  11.001
62394SOL    HW189014   1.730   7.241  11.047
62394SOL    HW289015   1.662   7.123  10.980
62395SOL     OW89016   8.291  11.148  10.208
62395SOL    HW189017   8.270  11.210  10.139
62395SOL    HW289018   8.364  11.097  10.173
62396SOL     OW89019  14.577   4.284   7.901
62396SOL    HW189020  14.572   4.330   7.985
62396SOL    HW289021  14.593   4.354   7.837
62397SOL     OW89022   4.442   6.258   7.018
62397SOL    HW189023   4.456   6.250   7.112
62397SOL    HW289024   4.351   6.288   7.009
62398SOL     OW89025   1.347  14.691  13.357
62398SOL    HW189026   1.278  14.735  13.407
62398SOL    HW289027   1.429  14.719  13.398
62399SOL     OW89028  14.271   4.238  13.012
62399SOL    HW189029  14.302   4.209  12.926
62399SOL    HW289030  14.350   4.267  13.058
62400SOL     OW89031   0.787   3.382   5.195
62400SOL    HW189032   0.773   3.425   5.111
62400SOL    HW289033   0.882   3.385   5.208
62401SOL     OW89034  10.213   7.131  10.769
62401SOL    HW189035  10.244   7.093  10.851
62401SOL    HW289036  10.280   7.194  10.744
62402SOL     OW89037  13.853   1.877   7.448
62402SOL    HW189038  13.777   1.898   7.393
62402SOL    HW289039  13.857   1.946   7.513
62403SOL     OW89040  14.438   4.511   3.417
62403SOL    HW189041  14.529   4.507   3.386
62403SOL    HW289042  14.385   4.503   3.338
62404SOL     OW89043   8.913  13.916  11.002
62404SOL    HW189044   8.968  13.901  10.924
62404SOL    HW289045   8.848  13.980  10.972
62405SOL     OW89046  11.631  10.108   1.326
62405SOL    HW189047  11.628  10.140   1.236
62405SOL    HW289048  11.596  10.019   1.321
62406SOL     OW89049  14.605   1.504   7.301
62406SOL    HW189050  14.698   1.493   7.322
62406SOL    HW289051  14.592   1.599   7.297
62407SOL     OW89052  10.630   0.382   4.743
62407SOL    HW189053  10.681   0.437   4.684
62407SOL    HW289054  10.686   0.371   4.821
62408SOL     OW89055  11.806   5.721   6.312
62408SOL    HW189056  11.883   5.743   6.364
62408SOL    HW289057  11.782   5.802   6.268
62409SOL     OW89058  13.609  12.563  13.937
62409SOL    HW189059  13.676  12.588  13.872
62409SOL    HW289060  13.534  12.619  13.916
62410SOL     OW89061   8.247   6.479   7.628
62410SOL    HW189062   8.161   6.497   7.590
62410SOL    HW289063   8.299   6.445   7.555
62411SOL     OW89064   6.814   9.653   3.058
62411SOL    HW189065   6.849   9.569   3.088
62411SOL    HW289066   6.772   9.691   3.136
62412SOL     OW89067   1.879   7.981   0.626
62412SOL    HW189068   1.810   7.965   0.562
62412SOL    HW289069   1.954   8.010   0.573
62413SOL     OW89070  10.130   5.232   9.003
62413SOL    HW189071  10.167   5.232   9.091
62413SOL    HW289072  10.114   5.139   8.984
62414SOL     OW89073   9.414   0.691   2.223
62414SOL    HW189074   9.342   0.727   2.275
62414SOL    HW289075   9.453   0.768   2.180
62415SOL     OW89076   3.912   2.637   5.637
62415SOL    HW189077   3.886   2.719   5.679
62415SOL    HW289078   3.934   2.662   5.547
62416SOL     OW89079   3.989   0.368  14.147
62416SOL    HW189080   4.058   0.317  14.189
62416SOL    HW289081   3.919   0.304  14.129
62417SOL     OW89082  14.599   3.244   8.878
62417SOL    HW189083  14.518   3.294   8.890
62417SOL    HW289084  14.642   3.248   8.964
62418SOL     OW89085   6.045  11.484   2.966
62418SOL    HW189086   6.074  11.498   2.876
62418SOL    HW289087   6.018  11.392   2.968
62419SOL     OW89088   6.958   8.740   4.430
62419SOL    HW189089   6.891   8.742   4.498
62419SOL    HW289090   6.926   8.675   4.367
62420SOL     OW89091   6.264   3.180  12.654
62420SOL    HW189092   6.268   3.124  12.577
62420SOL    HW289093   6.174   3.214  12.655
62421SOL     OW89094  11.148   9.801   5.002
62421SOL    HW189095  11.188   9.810   5.088
62421SOL    HW289096  11.215   9.832   4.941
62422SOL     OW89097  11.031   2.841  12.450
62422SOL    HW189098  11.019   2.750  12.425
62422SOL    HW289099  11.087   2.838  12.528
62423SOL     OW89100   2.869   7.439   1.684
62423SOL    HW189101   2.846   7.347   1.695
62423SOL    HW289102   2.963   7.443   1.700
62424SOL     OW89103   8.501   3.132  12.277
62424SOL    HW189104   8.490   3.181  12.359
62424SOL    HW289105   8.487   3.040  12.302
62425SOL     OW89106  12.921   9.443  14.591
62425SOL    HW189107  12.911   9.351  14.618
62425SOL    HW289108  12.834   9.469  14.562
62426SOL     OW89109   0.964  11.817   6.314
62426SOL    HW189110   0.982  11.908   6.292
62426SOL    HW289111   0.885  11.795   6.265
62427SOL     OW89112   6.349   9.406  14.397
62427SOL    HW189113   6.297   9.332  14.429
62427SOL    HW289114   6.290   9.452  14.337
62428SOL     OW89115   3.587   2.033   7.561
62428SOL    HW189116   3.593   1.977   7.484
62428SOL    HW289117   3.675   2.069   7.572
62429SOL     OW89118   8.397   3.920  11.508
62429SOL    HW189119   8.387   3.986  11.577
62429SOL    HW289120   8.467   3.863  11.540
62430SOL     OW89121  13.610   5.610  14.787
62430SOL    HW189122  13.525   5.578  14.757
62430SOL    HW289123  13.605   5.607   0.000
62431SOL     OW89124  14.523   3.157   4.161
62431SOL    HW189125  14.479   3.234   4.197
62431SOL    HW289126  14.455   3.111   4.112
62432SOL     OW89127   0.284   6.209  11.733
62432SOL    HW189128   0.363   6.184  11.782
62432SOL    HW289129   0.219   6.229  11.800
62433SOL     OW89130  11.947  12.913   9.689
62433SOL    HW189131  11.868  12.936   9.738
62433SOL    HW289132  11.938  12.819   9.673
62434SOL     OW89133   8.969   0.343   6.987
62434SOL    HW189134   8.957   0.367   6.895
62434SOL    HW289135   8.946   0.250   6.991
62435SOL     OW89136   2.922   3.876   1.744
62435SOL    HW189137   2.837   3.874   1.700
62435SOL    HW289138   2.969   3.799   1.712
62436SOL     OW89139  12.973  14.002   5.504
62436SOL    HW189140  12.944  14.082   5.549
62436SOL    HW289141  12.989  13.939   5.575
62437SOL     OW89142   5.283   2.462   6.877
62437SOL    HW189143   5.360   2.506   6.841
62437SOL    HW289144   5.311   2.433   6.964
62438SOL     OW89145   0.533   7.468   7.146
62438SOL    HW189146   0.613   7.497   7.188
62438SOL    HW289147   0.545   7.374   7.133
62439SOL     OW89148   6.445  12.169  12.436
62439SOL    HW189149   6.433  12.075  12.446
62439SOL    HW289150   6.494  12.178  12.354
62440SOL     OW89151   6.305  14.210  11.627
62440SOL    HW189152   6.239  14.278  11.645
62440SOL    HW289153   6.332  14.227  11.537
62441SOL     OW89154   0.523  10.653   1.600
62441SOL    HW189155   0.611  10.617   1.614
62441SOL    HW289156   0.505  10.636   1.507
62442SOL     OW89157   0.507   2.423   5.194
62442SOL    HW189158   0.500   2.386   5.106
62442SOL    HW289159   0.537   2.513   5.180
62443SOL     OW89160  11.742   0.338   7.991
62443SOL    HW189161  11.668   0.367   7.937
62443SOL    HW289162  11.701   0.291   8.064
62444SOL     OW89163   1.647  12.216   7.160
62444SOL    HW189164   1.634  12.201   7.254
62444SOL    HW289165   1.574  12.172   7.118
62445SOL     OW89166   2.431  11.720  10.513
62445SOL    HW189167   2.517  11.692  10.543
62445SOL    HW289168   2.440  11.730  10.418
62446SOL     OW89169  13.760   1.810  14.680
62446SOL    HW189170  13.779   1.758  14.758
62446SOL    HW289171  13.765   1.901  14.710
62447SOL     OW89172   8.227  12.011  12.590
62447SOL    HW189173   8.286  12.069  12.542
62447SOL    HW289174   8.252  12.022  12.681
62448SOL     OW89175   5.609   5.519   3.584
62448SOL    HW189176   5.651   5.532   3.669
62448SOL    HW289177   5.581   5.428   3.585
62449SOL     OW89178  14.102   6.783   3.420
62449SOL    HW189179  14.133   6.872   3.437
62449SOL    HW289180  14.097   6.742   3.506
62450SOL     OW89181   3.099   4.265   6.315
62450SOL    HW189182   3.047   4.321   6.372
62450SOL    HW289183   3.137   4.325   6.250
62451SOL     OW89184   7.424   2.636   7.510
62451SOL    HW189185   7.349   2.634   7.451
62451SOL    HW289186   7.494   2.591   7.463
62452SOL     OW89187  13.880   0.579  12.415
62452SOL    HW189188  13.835   0.642  12.471
62452SOL    HW289189  13.934   0.528  12.475
62453SOL     OW89190  12.397   2.360   3.681
62453SOL    HW189191  12.389   2.309   3.600
62453SOL    HW289192  12.400   2.294   3.751
62454SOL     OW89193   7.022   4.878  14.585
62454SOL    HW189194   7.083   4.922  14.526
62454SOL    HW289195   7.059   4.894  14.672
62455SOL     OW89196  14.443   0.308  13.262
62455SOL    HW189197  14.385   0.304  13.339
62455SOL    HW289198  14.511   0.244  13.281
62456SOL     OW89199   2.495  10.223   0.042
62456SOL    HW189200   2.557  10.215   0.115
62456SOL    HW289201   2.463  10.313   0.047
62457SOL     OW89202   3.996  13.376   4.845
62457SOL    HW189203   3.975  13.469   4.847
62457SOL    HW289204   4.006  13.351   4.937
62458SOL     OW89205  14.191   3.446  10.221
62458SOL    HW189206  14.115   3.413  10.172
62458SOL    HW289207  14.257   3.378  10.212
62459SOL     OW89208   0.038   0.466   1.434
62459SOL    HW189209   0.119   0.417   1.428
62459SOL    HW289210   0.061   0.544   1.484
62460SOL     OW89211  10.624  11.106   2.362
62460SOL    HW189212  10.539  11.149   2.358
62460SOL    HW289213  10.604  11.013   2.369
62461SOL     OW89214  10.887   9.900   1.061
62461SOL    HW189215  10.966   9.940   1.096
62461SOL    HW289216  10.828   9.891   1.136
62462SOL     OW89217  12.487   4.584   4.880
62462SOL    HW189218  12.511   4.602   4.789
62462SOL    HW289219  12.391   4.591   4.881
62463SOL     OW89220  13.437   3.263   4.388
62463SOL    HW189221  13.435   3.268   4.484
62463SOL    HW289222  13.353   3.222   4.365
62464SOL     OW89223   7.967   0.379   8.578
62464SOL    HW189224   8.020   0.355   8.655
62464SOL    HW289225   7.932   0.465   8.600
62465SOL     OW89226   1.247  13.874  11.971
62465SOL    HW189227   1.215  13.881  11.881
62465SOL    HW289228   1.225  13.957  12.012
62466SOL     OW89229  14.036   4.152  11.626
62466SOL    HW189230  14.003   4.210  11.557
62466SOL    HW289231  14.059   4.211  11.698
62467SOL     OW89232  14.683   3.498   1.331
62467SOL    HW189233  14.631   3.499   1.251
62467SOL    HW289234  14.636   3.438   1.389
62468SOL     OW89235   2.385   1.117   4.288
62468SOL    HW189236   2.353   1.070   4.211
62468SOL    HW289237   2.327   1.087   4.359
62469SOL     OW89238   2.000  14.496   4.269
62469SOL    HW189239   1.941  14.491   4.344
62469SOL    HW289240   2.046  14.412   4.269
62470SOL     OW89241   4.890   2.345   2.524
62470SOL    HW189242   4.837   2.296   2.587
62470SOL    HW289243   4.848   2.432   2.520
62471SOL     OW89244  11.312   4.270  11.023
62471SOL    HW189245  11.319   4.272  11.119
62471SOL    HW289246  11.371   4.199  10.997
62472SOL     OW89247   6.201   6.232  12.210
62472SOL    HW189248   6.218   6.297  12.278
62472SOL    HW289249   6.182   6.284  12.132
62473SOL     OW89250   1.446  12.438   4.410
62473SOL    HW189251   1.539  12.459   4.409
62473SOL    HW289252   1.438  12.360   4.354
62474SOL     OW89253   7.649  13.401   0.504
62474SOL    HW189254   7.631  13.484   0.461
62474SOL    HW289255   7.668  13.424   0.595
62475SOL     OW89256  11.784   3.245   8.317
62475SOL    HW189257  11.808   3.301   8.243
62475SOL    HW289258  11.710   3.193   8.286
62476SOL     OW89259   9.799   2.208  13.584
62476SOL    HW189260   9.861   2.148  13.542
62476SOL    HW289261   9.854   2.261  13.643
62477SOL     OW89262   2.446  10.255   8.664
62477SOL    HW189263   2.376  10.213   8.714
62477SOL    HW289264   2.527  10.215   8.697
62478SOL     OW89265  13.180  10.842   4.691
62478SOL    HW189266  13.241  10.780   4.652
62478SOL    HW289267  13.217  10.928   4.671
62479SOL     OW89268   0.054   3.113  13.557
62479SOL    HW189269   0.019   3.067  13.633
62479SOL    HW289270  14.862   3.163  13.523
62480SOL     OW89271   4.138  14.786   1.921
62480SOL    HW189272   4.182  14.860   1.963
62480SOL    HW289273   4.048  14.790   1.953
62481SOL     OW89274   7.293  10.394   4.682
62481SOL    HW189275   7.287  10.485   4.652
62481SOL    HW289276   7.283  10.342   4.602
62482SOL     OW89277   7.568   9.149  14.790
62482SOL    HW189278   7.633   9.096  14.836
62482SOL    HW289279   7.543   9.097  14.713
62483SOL     OW89280   9.870   0.818  14.489
62483SOL    HW189281   9.913   0.794  14.571
62483SOL    HW289282   9.919   0.771  14.421
62484SOL     OW89283  10.904   3.271   7.911
62484SOL    HW189284  10.896   3.358   7.952
62484SOL    HW289285  10.849   3.276   7.834
62485SOL     OW89286  10.865   8.615  10.411
62485SOL    HW189287  10.895   8.665  10.487
62485SOL    HW289288  10.945   8.581  10.372
62486SOL     OW89289  11.943   5.325   1.444
62486SOL    HW189290  11.904   5.283   1.367
62486SOL    HW289291  12.033   5.292   1.447
62487SOL     OW89292   0.143   0.124   2.404
62487SOL    HW189293   0.135   0.040   2.359
62487SOL    HW289294   0.077   0.180   2.363
62488SOL     OW89295   8.537   0.457   7.177
62488SOL    HW189296   8.524   0.377   7.229
62488SOL    HW289297   8.456   0.467   7.128
62489SOL     OW89298  12.442  12.169  11.123
62489SOL    HW189299  12.459  12.262  11.115
62489SOL    HW289300  12.347  12.161  11.120
62490SOL     OW89301  13.238   4.620   0.459
62490SOL    HW189302  13.203   4.533   0.477
62490SOL    HW289303  13.227   4.632   0.365
62491SOL     OW89304   1.347   2.020   5.145
62491SOL    HW189305   1.265   2.012   5.195
62491SOL    HW289306   1.376   2.110   5.161
62492SOL     OW89307  13.450   0.841   6.075
62492SOL    HW189308  13.474   0.868   6.164
62492SOL    HW289309  13.371   0.891   6.055
62493SOL     OW89310   4.527   7.709  13.443
62493SOL    HW189311   4.583   7.756  13.382
62493SOL    HW289312   4.442   7.706  13.400
62494SOL     OW89313   6.096   7.261   4.196
62494SOL    HW189314   6.032   7.308   4.142
62494SOL    HW289315   6.060   7.264   4.285
62495SOL     OW89316  10.770   7.786   1.532
62495SOL    HW189317  10.748   7.700   1.567
62495SOL    HW289318  10.687   7.821   1.499
62496SOL     OW89319  14.788   3.683  12.555
62496SOL    HW189320  14.751   3.760  12.512
62496SOL    HW289321  14.713   3.642  12.599
62497SOL     OW89322   5.512   2.263   6.331
62497SOL    HW189323   5.579   2.253   6.263
62497SOL    HW289324   5.561   2.288   6.410
62498SOL     OW89325   6.254   8.963   2.646
62498SOL    HW189326   6.263   8.962   2.551
62498SOL    HW289327   6.211   9.046   2.666
62499SOL     OW89328   8.456   0.074   0.967
62499SOL    HW189329   8.434   0.135   1.038
62499SOL    HW289330   8.521   0.016   1.005
62500SOL     OW89331  12.965   2.733   9.978
62500SOL    HW189332  13.038   2.682  10.014
62500SOL    HW289333  12.970   2.717   9.884
62501SOL     OW89334   8.819   6.845  10.879
62501SOL    HW189335   8.893   6.817  10.825
62501SOL    HW289336   8.859   6.890  10.953
62502SOL     OW89337  12.334  11.819  11.077
62502SOL    HW189338  12.260  11.822  11.138
62502SOL    HW289339  12.313  11.885  11.011
62503SOL     OW89340  12.760   2.280   1.793
62503SOL    HW189341  12.668   2.299   1.811
62503SOL    HW289342  12.799   2.365   1.775
62504SOL     OW89343  14.729  10.773   2.519
62504SOL    HW189344  14.724  10.799   2.611
62504SOL    HW289345  14.649  10.808   2.480
62505SOL     OW89346   3.085   4.380   9.807
62505SOL    HW189347   3.074   4.390   9.713
62505SOL    HW289348   3.164   4.327   9.817
62506SOL     OW89349   3.888  11.249   0.763
62506SOL    HW189350   3.847  11.323   0.718
62506SOL    HW289351   3.815  11.202   0.803
62507SOL     OW89352   2.033   8.625  13.825
62507SOL    HW189353   2.080   8.707  13.807
62507SOL    HW289354   2.083   8.584  13.895
62508SOL     OW89355  10.465  13.715   4.000
62508SOL    HW189356  10.430  13.749   4.082
62508SOL    HW289357  10.443  13.782   3.935
62509SOL     OW89358   0.953  10.126  14.643
62509SOL    HW189359   1.010  10.163  14.575
62509SOL    HW289360   0.912  10.050  14.602
62510SOL     OW89361  11.339   9.387  11.822
62510SOL    HW189362  11.383   9.427  11.747
62510SOL    HW289363  11.391   9.309  11.841
62511SOL     OW89364   5.206  11.918  11.501
62511SOL    HW189365   5.169  12.000  11.467
62511SOL    HW289366   5.233  11.939  11.591
62512SOL     OW89367   1.988  12.064   0.451
62512SOL    HW189368   1.899  12.041   0.422
62512SOL    HW289369   2.015  11.990   0.505
62513SOL     OW89370  13.718  11.746   3.972
62513SOL    HW189371  13.745  11.790   3.891
62513SOL    HW289372  13.630  11.712   3.952
62514SOL     OW89373   5.994  12.075   8.963
62514SOL    HW189374   5.990  11.979   8.971
62514SOL    HW289375   6.083  12.097   8.990
62515SOL     OW89376  12.833   3.507   1.484
62515SOL    HW189377  12.780   3.476   1.411
62515SOL    HW289378  12.913   3.540   1.445
62516SOL     OW89379   8.530  13.971   9.924
62516SOL    HW189380   8.512  13.987  10.016
62516SOL    HW289381   8.454  13.921   9.893
62517SOL     OW89382  10.081   6.229   7.648
62517SOL    HW189383  10.065   6.312   7.694
62517SOL    HW289384   9.997   6.184   7.649
62518SOL     OW89385  13.701   0.188   8.692
62518SOL    HW189386  13.723   0.281   8.692
62518SOL    HW289387  13.652   0.175   8.611
62519SOL     OW89388   7.316   3.094   0.492
62519SOL    HW189389   7.406   3.061   0.486
62519SOL    HW289390   7.267   3.039   0.430
62520SOL     OW89391   6.236   3.345   8.825
62520SOL    HW189392   6.196   3.280   8.882
62520SOL    HW289393   6.283   3.403   8.885
62521SOL     OW89394   0.267   1.730   8.795
62521SOL    HW189395   0.265   1.675   8.717
62521SOL    HW289396   0.196   1.793   8.782
62522SOL     OW89397  10.827  12.758   2.449
62522SOL    HW189398  10.921  12.775   2.444
62522SOL    HW289399  10.815  12.710   2.531
62523SOL     OW89400   7.402  13.610   4.635
62523SOL    HW189401   7.414  13.575   4.723
62523SOL    HW289402   7.469  13.678   4.627
62524SOL     OW89403   6.078  13.291   0.991
62524SOL    HW189404   6.069  13.218   0.929
62524SOL    HW289405   6.170  13.315   0.988
62525SOL     OW89406  11.465   4.365  12.166
62525SOL    HW189407  11.497   4.275  12.168
62525SOL    HW289408  11.405   4.368  12.092
62526SOL     OW89409   5.269  13.470   4.864
62526SOL    HW189410   5.296  13.439   4.951
62526SOL    HW289411   5.184  13.429   4.849
62527SOL     OW89412  13.071  11.102  13.044
62527SOL    HW189413  13.065  11.006  13.050
62527SOL    HW289414  12.983  11.133  13.066
62528SOL     OW89415   0.942   9.115  12.979
62528SOL    HW189416   0.943   9.187  13.043
62528SOL    HW289417   0.981   9.041  13.026
62529SOL     OW89418   8.963  12.589   8.330
62529SOL    HW189419   9.041  12.566   8.280
62529SOL    HW289420   8.913  12.507   8.335
62530SOL     OW89421   6.958   4.502   4.902
62530SOL    HW189422   6.922   4.508   4.814
62530SOL    HW289423   6.916   4.424   4.939
62531SOL     OW89424   9.490  13.584  10.163
62531SOL    HW189425   9.524  13.639  10.234
62531SOL    HW289426   9.454  13.507  10.207
62532SOL     OW89427   8.193   6.895   8.421
62532SOL    HW189428   8.144   6.937   8.492
62532SOL    HW289429   8.157   6.933   8.341
62533SOL     OW89430   5.046   7.696   4.151
62533SOL    HW189431   5.050   7.604   4.177
62533SOL    HW289432   4.954   7.711   4.127
62534SOL     OW89433  12.829  11.786  14.448
62534SOL    HW189434  12.791  11.793  14.535
62534SOL    HW289435  12.765  11.737  14.397
62535SOL     OW89436   7.250   2.247   6.649
62535SOL    HW189437   7.168   2.236   6.696
62535SOL    HW289438   7.286   2.158   6.642
62536SOL     OW89439   9.052  13.806   7.664
62536SOL    HW189440   9.124  13.829   7.605
62536SOL    HW289441   9.091  13.744   7.727
62537SOL     OW89442   6.364   5.125  12.023
62537SOL    HW189443   6.341   5.211  11.988
62537SOL    HW289444   6.446   5.139  12.070
62538SOL     OW89445   4.336   2.738  13.829
62538SOL    HW189446   4.392   2.664  13.852
62538SOL    HW289447   4.314   2.778  13.913
62539SOL     OW89448   9.070   0.448  13.084
62539SOL    HW189449   9.166   0.457  13.088
62539SOL    HW289450   9.049   0.459  12.991
62540SOL     OW89451   3.493   6.466   3.917
62540SOL    HW189452   3.573   6.414   3.921
62540SOL    HW289453   3.433   6.424   3.980
62541SOL     OW89454   2.085   9.010   9.689
62541SOL    HW189455   2.107   9.078   9.752
62541SOL    HW289456   2.032   9.055   9.623
62542SOL     OW89457  11.665   8.609   4.289
62542SOL    HW189458  11.601   8.677   4.268
62542SOL    HW289459  11.623   8.557   4.357
62543SOL     OW89460  12.479   8.803  13.791
62543SOL    HW189461  12.417   8.754  13.845
62543SOL    HW289462  12.553   8.820  13.849
62544SOL     OW89463  10.800  13.001   0.693
62544SOL    HW189464  10.799  13.072   0.628
62544SOL    HW289465  10.773  12.924   0.644
62545SOL     OW89466   1.146   9.917   8.427
62545SOL    HW189467   1.235   9.909   8.461
62545SOL    HW289468   1.129   9.833   8.384
62546SOL     OW89469  13.842  12.367  13.156
62546SOL    HW189470  13.814  12.286  13.198
62546SOL    HW289471  13.917  12.396  13.208
62547SOL     OW89472   3.510  10.124   0.410
62547SOL    HW189473   3.519  10.214   0.442
62547SOL    HW289474   3.532  10.070   0.486
62548SOL     OW89475   0.149  10.369   0.243
62548SOL    HW189476   0.088  10.438   0.215
62548SOL    HW289477   0.096  10.289   0.243
62549SOL     OW89478  10.891   4.055   1.400
62549SOL    HW189479  10.971   4.064   1.348
62549SOL    HW289480  10.904   4.112   1.475
62550SOL     OW89481   8.978   6.479   5.378
62550SOL    HW189482   8.923   6.439   5.311
62550SOL    HW289483   9.067   6.472   5.344
62551SOL     OW89484  10.694   4.403   1.204
62551SOL    HW189485  10.767   4.464   1.212
62551SOL    HW289486  10.694   4.355   1.287
62552SOL     OW89487  12.418   8.581  11.841
62552SOL    HW189488  12.404   8.488  11.824
62552SOL    HW289489  12.402   8.623  11.757
62553SOL     OW89490   3.580   2.938  13.128
62553SOL    HW189491   3.495   2.982  13.126
62553SOL    HW289492   3.610   2.939  13.037
62554SOL     OW89493   4.026   2.453   3.036
62554SOL    HW189494   3.938   2.422   3.056
62554SOL    HW289495   4.068   2.464   3.121
62555SOL     OW89496   9.707   9.316  11.831
62555SOL    HW189497   9.622   9.292  11.868
62555SOL    HW289498   9.716   9.261  11.753
62556SOL     OW89499   9.948  11.567   8.709
62556SOL    HW189500   9.932  11.545   8.800
62556SOL    HW289501   9.862  11.565   8.667
62557SOL     OW89502   6.757   5.611   6.400
62557SOL    HW189503   6.806   5.582   6.477
62557SOL    HW289504   6.824   5.651   6.344
62558SOL     OW89505  13.324   2.122  13.764
62558SOL    HW189506  13.345   2.186  13.697
62558SOL    HW289507  13.232   2.100  13.749
62559SOL     OW89508  10.330  13.261   5.566
62559SOL    HW189509  10.246  13.303   5.584
62559SOL    HW289510  10.312  13.202   5.492
62560SOL     OW89511   2.976   9.537  11.651
62560SOL    HW189512   2.926   9.599  11.599
62560SOL    HW289513   3.049   9.587  11.686
62561SOL     OW89514   8.278  13.961   1.552
62561SOL    HW189515   8.254  14.047   1.587
62561SOL    HW289516   8.289  13.906   1.629
62562SOL     OW89517   1.443  10.005  10.493
62562SOL    HW189518   1.387   9.973  10.423
62562SOL    HW289519   1.417  10.097  10.505
62563SOL     OW89520   6.320   3.828   5.959
62563SOL    HW189521   6.375   3.895   5.917
62563SOL    HW289522   6.325   3.849   6.052
62564SOL     OW89523  12.848  10.484   8.598
62564SOL    HW189524  12.919  10.539   8.565
62564SOL    HW289525  12.840  10.414   8.534
62565SOL     OW89526  10.788  11.533   3.396
62565SOL    HW189527  10.698  11.556   3.422
62565SOL    HW289528  10.831  11.509   3.478
62566SOL     OW89529  14.540   0.775   4.001
62566SOL    HW189530  14.447   0.789   4.015
62566SOL    HW289531  14.583   0.816   4.076
62567SOL     OW89532  12.296  13.886   5.918
62567SOL    HW189533  12.332  13.798   5.911
62567SOL    HW289534  12.368  13.944   5.895
62568SOL     OW89535  11.381   0.974   7.204
62568SOL    HW189536  11.307   0.959   7.264
62568SOL    HW289537  11.356   1.053   7.156
62569SOL     OW89538   8.329   7.627   5.927
62569SOL    HW189539   8.418   7.601   5.952
62569SOL    HW289540   8.311   7.577   5.847
62570SOL     OW89541   6.957   7.770   1.464
62570SOL    HW189542   6.947   7.779   1.369
62570SOL    HW289543   6.913   7.688   1.485
62571SOL     OW89544   8.030   0.700   4.589
62571SOL    HW189545   8.043   0.605   4.583
62571SOL    HW289546   8.086   0.736   4.520
62572SOL     OW89547  14.629  11.544  10.136
62572SOL    HW189548  14.650  11.528  10.228
62572SOL    HW289549  14.600  11.636  10.134
62573SOL     OW89550   6.328   6.952   1.022
62573SOL    HW189551   6.422   6.969   1.023
62573SOL    HW289552   6.321   6.861   0.991
62574SOL     OW89553   2.264   7.617  11.162
62574SOL    HW189554   2.209   7.548  11.124
62574SOL    HW289555   2.351   7.578  11.168
62575SOL     OW89556  14.569  12.044  12.123
62575SOL    HW189557  14.576  11.982  12.050
62575SOL    HW289558  14.527  11.993  12.192
62576SOL     OW89559   7.267   6.843   4.487
62576SOL    HW189560   7.266   6.796   4.404
62576SOL    HW289561   7.183   6.823   4.528
62577SOL     OW89562   2.895  14.179   3.753
62577SOL    HW189563   2.816  14.188   3.699
62577SOL    HW289564   2.939  14.100   3.718
62578SOL     OW89565  13.090  10.828  13.014
62578SOL    HW189566  13.143  10.756  13.047
62578SOL    HW289567  13.000  10.798  13.026
62579SOL     OW89568  12.261   6.317   0.804
62579SOL    HW189569  12.170   6.348   0.802
62579SOL    HW289570  12.280   6.296   0.712
62580SOL     OW89571   1.492   0.765   9.707
62580SOL    HW189572   1.414   0.784   9.654
62580SOL    HW289573   1.512   0.848   9.750
62581SOL     OW89574  12.004   3.603   0.435
62581SOL    HW189575  12.010   3.624   0.342
62581SOL    HW289576  12.079   3.545   0.451
62582SOL     OW89577   6.699   1.550   0.586
62582SOL    HW189578   6.605   1.548   0.600
62582SOL    HW289579   6.736   1.570   0.673
62583SOL     OW89580   2.109   3.214  10.225
62583SOL    HW189581   2.111   3.261  10.309
62583SOL    HW289582   2.179   3.150  10.233
62584SOL     OW89583   3.553   8.214  13.140
62584SOL    HW189584   3.460   8.227  13.155
62584SOL    HW289585   3.560   8.183  13.050
62585SOL     OW89586  14.186  10.033   3.445
62585SOL    HW189587  14.200  10.069   3.532
62585SOL    HW289588  14.093  10.011   3.443
62586SOL     OW89589  11.016   0.165   3.515
62586SOL    HW189590  10.996   0.228   3.446
62586SOL    HW289591  11.111   0.165   3.521
62587SOL     OW89592   2.720   7.109   9.905
62587SOL    HW189593   2.675   7.182   9.946
62587SOL    HW289594   2.809   7.140   9.891
62588SOL     OW89595  10.870   5.320   9.964
62588SOL    HW189596  10.832   5.293  10.048
62588SOL    HW289597  10.877   5.415   9.970
62589SOL     OW89598  10.986   6.997   3.095
62589SOL    HW189599  10.891   6.995   3.110
62589SOL    HW289600  10.999   7.067   3.031
62590SOL     OW89601   4.618   8.412   2.948
62590SOL    HW189602   4.561   8.367   2.884
62590SOL    HW289603   4.695   8.356   2.954
62591SOL     OW89604  12.040  13.467  14.568
62591SOL    HW189605  12.016  13.375  14.583
62591SOL    HW289606  12.065  13.499  14.655
62592SOL     OW89607  12.614  11.924   9.948
62592SOL    HW189608  12.665  11.979  10.008
62592SOL    HW289609  12.654  11.940   9.862
62593SOL     OW89610  13.140   5.010   8.905
62593SOL    HW189611  13.162   5.084   8.848
62593SOL    HW289612  13.046   4.997   8.893
62594SOL     OW89613  12.113  11.716   7.440
62594SOL    HW189614  12.186  11.709   7.501
62594SOL    HW289615  12.140  11.783   7.377
62595SOL     OW89616   0.286   1.820   4.642
62595SOL    HW189617   0.240   1.860   4.568
62595SOL    HW289618   0.294   1.727   4.618
62596SOL     OW89619  13.599  10.959   5.908
62596SOL    HW189620  13.656  10.981   5.982
62596SOL    HW289621  13.577  10.867   5.922
62597SOL     OW89622   7.999  11.989   7.558
62597SOL    HW189623   7.911  12.015   7.586
62597SOL    HW289624   8.056  12.057   7.592
62598SOL     OW89625  12.126  14.336  14.189
62598SOL    HW189626  12.133  14.303  14.099
62598SOL    HW289627  12.116  14.257  14.242
62599SOL     OW89628   1.757   2.966  11.761
62599SOL    HW189629   1.764   2.911  11.839
62599SOL    HW289630   1.784   3.053  11.792
62600SOL     OW89631   0.861   5.237   5.557
62600SOL    HW189632   0.927   5.181   5.598
62600SOL    HW289633   0.789   5.177   5.537
62601SOL     OW89634   2.675   6.835   2.045
62601SOL    HW189635   2.688   6.927   2.070
62601SOL    HW289636   2.680   6.835   1.950
62602SOL     OW89637   3.315  13.615  11.820
62602SOL    HW189638   3.222  13.637  11.826
62602SOL    HW289639   3.358  13.697  11.796
62603SOL     OW89640  12.369   7.679  12.467
62603SOL    HW189641  12.330   7.618  12.531
62603SOL    HW289642  12.331   7.764  12.490
62604SOL     OW89643  10.098   8.139   5.805
62604SOL    HW189644  10.159   8.127   5.732
62604SOL    HW289645  10.051   8.220   5.783
62605SOL     OW89646   4.779   1.928  12.515
62605SOL    HW189647   4.706   1.950  12.573
62605SOL    HW289648   4.833   2.006  12.514
62606SOL     OW89649  10.350  11.307  14.385
62606SOL    HW189650  10.366  11.319  14.292
62606SOL    HW289651  10.436  11.315  14.426
62607SOL     OW89652   1.435  11.863  11.395
62607SOL    HW189653   1.346  11.896  11.378
62607SOL    HW289654   1.421  11.782  11.444
62608SOL     OW89655   0.284  10.254   7.838
62608SOL    HW189656   0.286  10.346   7.865
62608SOL    HW289657   0.192  10.236   7.820
62609SOL     OW89658   4.559   4.551   0.181
62609SOL    HW189659   4.559   4.613   0.109
62609SOL    HW289660   4.503   4.591   0.248
62610SOL     OW89661   1.597  14.450   5.482
62610SOL    HW189662   1.580  14.375   5.425
62610SOL    HW289663   1.591  14.526   5.423
62611SOL     OW89664   6.262   0.032   7.925
62611SOL    HW189665   6.273   0.072   7.838
62611SOL    HW289666   6.264   0.107   7.985
62612SOL     OW89667   9.858  10.051   2.964
62612SOL    HW189668   9.819   9.994   2.898
62612SOL    HW289669   9.952  10.048   2.946
62613SOL     OW89670  11.854   7.995   7.723
62613SOL    HW189671  11.929   8.010   7.780
62613SOL    HW289672  11.862   8.062   7.655
62614SOL     OW89673   1.739   2.866  12.699
62614SOL    HW189674   1.758   2.854  12.792
62614SOL    HW289675   1.687   2.946  12.695
62615SOL     OW89676   8.663   5.541   5.062
62615SOL    HW189677   8.734   5.550   5.000
62615SOL    HW289678   8.607   5.473   5.025
62616SOL     OW89679   5.414   0.418   2.016
62616SOL    HW189680   5.465   0.337   2.010
62616SOL    HW289681   5.328   0.395   1.981
62617SOL     OW89682   7.007   3.152  11.658
62617SOL    HW189683   6.918   3.184  11.642
62617SOL    HW289684   7.003   3.059  11.635
62618SOL     OW89685  12.158   2.311   4.150
62618SOL    HW189686  12.174   2.376   4.082
62618SOL    HW289687  12.238   2.311   4.203
62619SOL     OW89688   8.947   4.940   1.184
62619SOL    HW189689   8.917   4.886   1.111
62619SOL    HW289690   8.875   5.000   1.200
62620SOL     OW89691   6.973  13.584   5.537
62620SOL    HW189692   7.057  13.560   5.575
62620SOL    HW289693   6.933  13.500   5.512
62621SOL     OW89694   4.287   1.967   5.676
62621SOL    HW189695   4.336   2.044   5.645
62621SOL    HW289696   4.354   1.908   5.711
62622SOL     OW89697   4.865   4.632  13.912
62622SOL    HW189698   4.953   4.644  13.877
62622SOL    HW289699   4.831   4.721  13.924
62623SOL     OW89700  13.252   8.364   2.268
62623SOL    HW189701  13.246   8.357   2.173
62623SOL    HW289702  13.301   8.445   2.283
62624SOL     OW89703   2.578   6.182   6.667
62624SOL    HW189704   2.657   6.135   6.692
62624SOL    HW289705   2.602   6.230   6.588
62625SOL     OW89706   2.228   8.418  12.178
62625SOL    HW189707   2.322   8.399  12.183
62625SOL    HW289708   2.223   8.491  12.116
62626SOL     OW89709   2.785   8.455  12.317
62626SOL    HW189710   2.801   8.461  12.223
62626SOL    HW289711   2.792   8.361  12.336
62627SOL     OW89712  14.556  14.495   9.205
62627SOL    HW189713  14.583  14.472   9.294
62627SOL    HW289714  14.542  14.410   9.162
62628SOL     OW89715   8.439  10.245   9.286
62628SOL    HW189716   8.466  10.337   9.288
62628SOL    HW289717   8.462  10.212   9.373
62629SOL     OW89718   9.707  14.366  14.498
62629SOL    HW189719   9.685  14.333  14.585
62629SOL    HW289720   9.781  14.425  14.513
62630SOL     OW89721  11.902  11.239  10.318
62630SOL    HW189722  11.919  11.307  10.384
62630SOL    HW289723  11.962  11.260  10.247
62631SOL     OW89724   2.508   9.718   0.670
62631SOL    HW189725   2.481   9.640   0.620
62631SOL    HW289726   2.480   9.700   0.759
62632SOL     OW89727  14.619   1.353   6.716
62632SOL    HW189728  14.611   1.290   6.788
62632SOL    HW289729  14.602   1.438   6.757
62633SOL     OW89730  11.730  13.007   2.801
62633SOL    HW189731  11.746  12.913   2.796
62633SOL    HW289732  11.677  13.018   2.881
62634SOL     OW89733   3.066   0.832  11.490
62634SOL    HW189734   3.066   0.739  11.513
62634SOL    HW289735   3.153   0.848  11.454
62635SOL     OW89736   5.129   5.850   2.326
62635SOL    HW189737   5.040   5.849   2.290
62635SOL    HW289738   5.143   5.941   2.352
62636SOL     OW89739  10.303   5.453   3.970
62636SOL    HW189740  10.390   5.488   3.954
62636SOL    HW289741  10.289   5.389   3.900
62637SOL     OW89742   5.324   6.360   7.395
62637SOL    HW189743   5.380   6.409   7.456
62637SOL    HW289744   5.315   6.418   7.319
62638SOL     OW89745   5.305  14.547   1.139
62638SOL    HW189746   5.369  14.513   1.077
62638SOL    HW289747   5.357  14.596   1.203
62639SOL     OW89748   6.700  13.393  11.693
62639SOL    HW189749   6.666  13.451  11.625
62639SOL    HW289750   6.751  13.451  11.750
62640SOL     OW89751   1.244  10.225  11.200
62640SOL    HW189752   1.188  10.191  11.130
62640SOL    HW289753   1.333  10.210  11.168
62641SOL     OW89754  14.601   0.045   4.099
62641SOL    HW189755  14.677   0.047   4.041
62641SOL    HW289756  14.556   0.128   4.083
62642SOL     OW89757  13.094   1.203  10.748
62642SOL    HW189758  13.101   1.212  10.843
62642SOL    HW289759  13.039   1.276  10.721
62643SOL     OW89760   7.252   4.088   9.599
62643SOL    HW189761   7.245   4.121   9.689
62643SOL    HW289762   7.225   3.996   9.606
62644SOL     OW89763  12.783  10.819   7.065
62644SOL    HW189764  12.781  10.779   7.152
62644SOL    HW289765  12.815  10.908   7.080
62645SOL     OW89766   7.592   3.219   8.858
62645SOL    HW189767   7.591   3.314   8.848
62645SOL    HW289768   7.531   3.187   8.791
62646SOL     OW89769   1.078   1.767   6.181
62646SOL    HW189770   1.152   1.720   6.220
62646SOL    HW289771   1.114   1.852   6.155
62647SOL     OW89772   0.216   8.330   6.784
62647SOL    HW189773   0.222   8.247   6.738
62647SOL    HW289774   0.302   8.370   6.774
62648SOL     OW89775  11.031   5.295  11.111
62648SOL    HW189776  11.091   5.352  11.159
62648SOL    HW289777  11.085   5.256  11.042
62649SOL     OW89778   2.879  11.816   2.471
62649SOL    HW189779   2.813  11.783   2.410
62649SOL    HW289780   2.831  11.830   2.552
62650SOL     OW89781  13.746   0.917   0.940
62650SOL    HW189782  13.760   0.839   0.887
62650SOL    HW289783  13.716   0.885   1.024
62651SOL     OW89784  12.321   9.926   7.136
62651SOL    HW189785  12.385   9.861   7.166
62651SOL    HW289786  12.355   9.956   7.052
62652SOL     OW89787  10.132   9.333   6.736
62652SOL    HW189788  10.039   9.312   6.740
62652SOL    HW289789  10.136   9.427   6.753
62653SOL     OW89790  12.837   3.370  11.525
62653SOL    HW189791  12.835   3.397  11.617
62653SOL    HW289792  12.754   3.324  11.512
62654SOL     OW89793   7.306  13.263   8.775
62654SOL    HW189794   7.263  13.259   8.861
62654SOL    HW289795   7.393  13.298   8.794
62655SOL     OW89796   5.743   3.487   3.949
62655SOL    HW189797   5.753   3.497   3.855
62655SOL    HW289798   5.825   3.449   3.979
62656SOL     OW89799   2.008   7.233  10.901
62656SOL    HW189800   1.922   7.212  10.939
62656SOL    HW289801   1.988   7.271  10.816
62657SOL     OW89802  10.846   6.009   0.308
62657SOL    HW189803  10.765   6.059   0.297
62657SOL    HW289804  10.825   5.921   0.275
62658SOL     OW89805  10.929  10.401   7.729
62658SOL    HW189806  10.905  10.491   7.708
62658SOL    HW289807  10.927  10.397   7.825
62659SOL     OW89808   4.810   0.537   9.375
62659SOL    HW189809   4.780   0.521   9.465
62659SOL    HW289810   4.862   0.460   9.353
62660SOL     OW89811   9.236   5.247  12.098
62660SOL    HW189812   9.188   5.312  12.149
62660SOL    HW289813   9.221   5.272  12.007
62661SOL     OW89814   5.574  11.111   6.075
62661SOL    HW189815   5.599  11.112   5.983
62661SOL    HW289816   5.510  11.182   6.084
62662SOL     OW89817  10.793   5.819   2.161
62662SOL    HW189818  10.847   5.876   2.216
62662SOL    HW289819  10.734   5.878   2.116
62663SOL     OW89820  13.714   6.633  11.671
62663SOL    HW189821  13.675   6.698  11.729
62663SOL    HW289822  13.641   6.605  11.615
62664SOL     OW89823   3.102   9.750   8.530
62664SOL    HW189824   3.094   9.838   8.495
62664SOL    HW289825   3.106   9.693   8.454
62665SOL     OW89826   2.115   3.331  12.574
62665SOL    HW189827   2.121   3.259  12.511
62665SOL    HW289828   2.170   3.399  12.536
62666SOL     OW89829  13.272   9.582  11.264
62666SOL    HW189830  13.222   9.647  11.313
62666SOL    HW289831  13.246   9.498  11.300
62667SOL     OW89832   1.345   7.644   7.206
62667SOL    HW189833   1.302   7.589   7.271
62667SOL    HW289834   1.379   7.583   7.142
62668SOL     OW89835   6.167   5.162   0.829
62668SOL    HW189836   6.103   5.091   0.830
62668SOL    HW289837   6.209   5.156   0.743
62669SOL     OW89838   4.028   8.282   5.253
62669SOL    HW189839   4.121   8.285   5.276
62669SOL    HW289840   4.026   8.297   5.159
62670SOL     OW89841   9.905  10.219   2.743
62670SOL    HW189842   9.915  10.130   2.710
62670SOL    HW289843   9.810  10.232   2.750
62671SOL     OW89844  10.899   1.348  13.575
62671SOL    HW189845  10.971   1.293  13.606
62671SOL    HW289846  10.886   1.413  13.643
62672SOL     OW89847   9.248   7.958   9.240
62672SOL    HW189848   9.331   7.913   9.258
62672SOL    HW289849   9.255   7.986   9.149
62673SOL     OW89850  12.990   7.920   6.587
62673SOL    HW189851  12.905   7.937   6.628
62673SOL    HW289852  13.054   7.962   6.644
62674SOL     OW89853   3.925  10.525  13.765
62674SOL    HW189854   3.971  10.500  13.685
62674SOL    HW289855   3.882  10.445  13.795
62675SOL     OW89856   7.824   0.628  10.644
62675SOL    HW189857   7.738   0.604  10.677
62675SOL    HW289858   7.815   0.720  10.618
62676SOL     OW89859   9.908   3.044  10.376
62676SOL    HW189860   9.957   2.965  10.356
62676SOL    HW289861   9.956   3.086  10.447
62677SOL     OW89862   0.583   0.872  11.196
62677SOL    HW189863   0.613   0.880  11.287
62677SOL    HW289864   0.648   0.921  11.145
62678SOL     OW89865   9.184  14.546  10.146
62678SOL    HW189866   9.146  14.526  10.061
62678SOL    HW289867   9.147  14.632  10.169
62679SOL     OW89868   9.686   7.640   7.976
62679SOL    HW189869   9.638   7.650   7.893
62679SOL    HW289870   9.706   7.730   8.003
62680SOL     OW89871  10.767  12.524  10.203
62680SOL    HW189872  10.831  12.454  10.190
62680SOL    HW289873  10.692  12.480  10.245
62681SOL     OW89874   0.024   4.344   7.628
62681SOL    HW189875  14.826   4.382   7.592
62681SOL    HW289876   0.003   4.328   7.720
62682SOL     OW89877  11.422   7.406   2.060
62682SOL    HW189878  11.461   7.452   2.134
62682SOL    HW289879  11.478   7.426   1.986
62683SOL     OW89880  12.781  10.369  13.731
62683SOL    HW189881  12.741  10.455  13.745
62683SOL    HW289882  12.794  10.363  13.637
62684SOL     OW89883  12.371   0.786   2.445
62684SOL    HW189884  12.403   0.734   2.519
62684SOL    HW289885  12.367   0.876   2.478
62685SOL     OW89886   8.096   5.097   3.693
62685SOL    HW189887   8.182   5.137   3.684
62685SOL    HW289888   8.037   5.171   3.712
62686SOL     OW89889   4.103   3.968   0.169
62686SOL    HW189890   4.017   3.928   0.153
62686SOL    HW289891   4.100   4.050   0.120
62687SOL     OW89892   2.751  12.118  12.381
62687SOL    HW189893   2.685  12.050  12.394
62687SOL    HW289894   2.813  12.105  12.452
62688SOL     OW89895  12.582   3.246   2.789
62688SOL    HW189896  12.616   3.304   2.857
62688SOL    HW289897  12.559   3.304   2.717
62689SOL     OW89898  14.455  10.638   3.298
62689SOL    HW189899  14.445  10.694   3.221
62689SOL    HW289900  14.547  10.644   3.321
62690SOL     OW89901   2.629   2.980   0.348
62690SOL    HW189902   2.594   3.069   0.355
62690SOL    HW289903   2.723   2.992   0.329
62691SOL     OW89904   6.037  14.328   5.199
62691SOL    HW189905   6.120  14.286   5.177
62691SOL    HW289906   5.985  14.321   5.119
62692SOL     OW89907   9.675   1.590   7.781
62692SOL    HW189908   9.586   1.582   7.816
62692SOL    HW289909   9.666   1.652   7.708
62693SOL     OW89910  14.559  11.061   3.009
62693SOL    HW189911  14.520  11.131   3.062
62693SOL    HW289912  14.652  11.062   3.031
62694SOL     OW89913   2.341   8.158  10.565
62694SOL    HW189914   2.299   8.079  10.599
62694SOL    HW289915   2.430   8.130  10.542
62695SOL     OW89916  10.401   8.070  13.585
62695SOL    HW189917  10.333   8.072  13.517
62695SOL    HW289918  10.399   8.157  13.624
62696SOL     OW89919   9.631  13.337   2.226
62696SOL    HW189920   9.581  13.310   2.303
62696SOL    HW289921   9.583  13.411   2.190
62697SOL     OW89922  14.487  12.799   0.228
62697SOL    HW189923  14.508  12.778   0.319
62697SOL    HW289924  14.404  12.847   0.234
62698SOL     OW89925   3.343   6.610   7.317
62698SOL    HW189926   3.255   6.615   7.357
62698SOL    HW289927   3.328   6.568   7.233
62699SOL     OW89928   5.739   8.297   3.383
62699SOL    HW189929   5.807   8.365   3.375
62699SOL    HW289930   5.787   8.215   3.376
62700SOL     OW89931  12.776  14.590   0.321
62700SOL    HW189932  12.849  14.613   0.264
62700SOL    HW289933  12.699  14.593   0.263
62701SOL     OW89934   1.590   6.540  12.517
62701SOL    HW189935   1.684   6.559  12.507
62701SOL    HW289936   1.559   6.602  12.583
62702SOL     OW89937  13.064   1.070  11.606
62702SOL    HW189938  13.005   1.024  11.665
62702SOL    HW289939  13.009   1.095  11.531
62703SOL     OW89940  11.239   1.736   0.890
62703SOL    HW189941  11.195   1.655   0.915
62703SOL    HW289942  11.332   1.720   0.911
62704SOL     OW89943   1.543   0.786   8.618
62704SOL    HW189944   1.638   0.780   8.615
62704SOL    HW289945   1.519   0.755   8.705
62705SOL     OW89946   3.061  11.507   1.183
62705SOL    HW189947   2.978  11.467   1.209
62705SOL    HW289948   3.116  11.502   1.261
62706SOL     OW89949   1.491   7.101  11.930
62706SOL    HW189950   1.415   7.048  11.954
62706SOL    HW289951   1.515   7.069  11.843
62707SOL     OW89952   1.911  12.867  11.368
62707SOL    HW189953   1.879  12.949  11.331
62707SOL    HW289954   1.932  12.814  11.291
62708SOL     OW89955   9.965   0.166  13.412
62708SOL    HW189956  10.048   0.210  13.397
62708SOL    HW289957   9.973   0.083  13.366
62709SOL     OW89958   4.035   1.520  12.009
62709SOL    HW189959   4.112   1.480  11.968
62709SOL    HW289960   4.003   1.454  12.071
62710SOL     OW89961  12.273  10.644   6.848
62710SOL    HW189962  12.268  10.738   6.832
62710SOL    HW289963  12.232  10.632   6.934
62711SOL     OW89964   3.495   2.570  13.489
62711SOL    HW189965   3.484   2.477  13.474
62711SOL    HW289966   3.584   2.590  13.459
62712SOL     OW89967  11.974   3.094   1.730
62712SOL    HW189968  11.931   3.017   1.692
62712SOL    HW289969  12.067   3.077   1.718
62713SOL     OW89970   0.514   0.532  13.520
62713SOL    HW189971   0.571   0.608  13.512
62713SOL    HW289972   0.506   0.498  13.431
62714SOL     OW89973  14.415   6.155   6.094
62714SOL    HW189974  14.420   6.184   6.003
62714SOL    HW289975  14.393   6.062   6.089
62715SOL     OW89976   0.445   0.464   8.149
62715SOL    HW189977   0.424   0.505   8.233
62715SOL    HW289978   0.366   0.417   8.125
62716SOL     OW89979  10.148   4.391  13.066
62716SOL    HW189980  10.074   4.377  13.007
62716SOL    HW289981  10.202   4.457  13.022
62717SOL     OW89982   9.731   1.758  10.926
62717SOL    HW189983   9.823   1.743  10.948
62717SOL    HW289984   9.683   1.694  10.980
62718SOL     OW89985   8.173  13.460   0.784
62718SOL    HW189986   8.189  13.449   0.878
62718SOL    HW289987   8.115  13.387   0.761
62719SOL     OW89988   2.716   8.052   2.121
62719SOL    HW189989   2.731   7.994   2.047
62719SOL    HW289990   2.666   8.125   2.086
62720SOL     OW89991   9.388   8.796   1.112
62720SOL    HW189992   9.390   8.848   1.192
62720SOL    HW289993   9.454   8.837   1.055
62721SOL     OW89994  13.285   5.196   0.772
62721SOL    HW189995  13.302   5.161   0.859
62721SOL    HW289996  13.365   5.245   0.750
62722SOL     OW89997  14.289  13.590   0.687
62722SOL    HW189998  14.337  13.668   0.713
62722SOL    HW289999  14.205  13.596   0.734
62723SOL     OW90000   4.665  11.746   1.399
62723SOL    HW190001   4.697  11.835   1.411
62723SOL    HW290002   4.734  11.701   1.351
62724SOL     OW90003   0.315  10.131   4.605
62724SOL    HW190004   0.238  10.079   4.629
62724SOL    HW290005   0.302  10.215   4.650
62725SOL     OW90006   3.643   4.949   5.399
62725SOL    HW190007   3.648   4.864   5.354
62725SOL    HW290008   3.613   4.928   5.487
62726SOL     OW90009   1.867   3.980   0.727
62726SOL    HW190010   1.834   4.064   0.696
62726SOL    HW290011   1.816   3.962   0.806
62727SOL     OW90012  14.721  11.861   3.157
62727SOL    HW190013  14.773  11.927   3.204
62727SOL    HW290014  14.652  11.912   3.115
62728SOL     OW90015   8.475  11.237   8.885
62728SOL    HW190016   8.426  11.318   8.894
62728SOL    HW290017   8.567  11.264   8.882
62729SOL     OW90018  13.677   5.568  10.937
62729SOL    HW190019  13.633   5.642  10.978
62729SOL    HW290020  13.647   5.492  10.987
62730SOL     OW90021   7.669   5.384   1.367
62730SOL    HW190022   7.625   5.334   1.299
62730SOL    HW290023   7.618   5.466   1.372
62731SOL     OW90024   3.810   2.916  13.826
62731SOL    HW190025   3.877   2.874  13.881
62731SOL    HW290026   3.781   2.992  13.876
62732SOL     OW90027   7.285   1.260   5.976
62732SOL    HW190028   7.295   1.311   6.056
62732SOL    HW290029   7.271   1.170   6.007
62733SOL     OW90030   8.027   7.127  10.179
62733SOL    HW190031   8.103   7.071  10.161
62733SOL    HW290032   8.063   7.215  10.189
62734SOL     OW90033  12.576   6.127   6.154
62734SOL    HW190034  12.657   6.136   6.204
62734SOL    HW290035  12.605   6.115   6.064
62735SOL     OW90036   4.383  14.017   4.206
62735SOL    HW190037   4.410  14.023   4.114
62735SOL    HW290038   4.446  14.071   4.253
62736SOL     OW90039   1.723  10.669  13.120
62736SOL    HW190040   1.806  10.714  13.104
62736SOL    HW290041   1.666  10.737  13.156
62737SOL     OW90042   3.179   5.481   1.195
62737SOL    HW190043   3.206   5.478   1.103
62737SOL    HW290044   3.242   5.539   1.237
62738SOL     OW90045  11.647   6.965  12.165
62738SOL    HW190046  11.582   6.898  12.147
62738SOL    HW290047  11.628   6.993  12.255
62739SOL     OW90048  10.240  14.393  11.967
62739SOL    HW190049  10.193  14.318  11.930
62739SOL    HW290050  10.187  14.469  11.942
62740SOL     OW90051   7.685   0.965   2.721
62740SOL    HW190052   7.679   0.875   2.688
62740SOL    HW290053   7.599   1.003   2.703
62741SOL     OW90054  14.093   6.169  10.158
62741SOL    HW190055  14.114   6.091  10.106
62741SOL    HW290056  14.064   6.234  10.094
62742SOL     OW90057   9.558  11.881   1.420
62742SOL    HW190058   9.506  11.833   1.356
62742SOL    HW290059   9.496  11.939   1.464
62743SOL     OW90060  14.412  14.271   0.171
62743SOL    HW190061  14.349  14.329   0.214
62743SOL    HW290062  14.461  14.232   0.243
62744SOL     OW90063  14.659  10.644  11.648
62744SOL    HW190064  14.737  10.698  11.659
62744SOL    HW290065  14.592  10.688  11.699
62745SOL     OW90066   0.575   6.188   9.774
62745SOL    HW190067   0.665   6.158   9.783
62745SOL    HW290068   0.523   6.108   9.771
62746SOL     OW90069   0.331   4.225   9.271
62746SOL    HW190070   0.271   4.254   9.339
62746SOL    HW290071   0.275   4.214   9.194
62747SOL     OW90072   8.655   5.474   0.184
62747SOL    HW190073   8.736   5.441   0.225
62747SOL    HW290074   8.657   5.437   0.095
62748SOL     OW90075   2.010   8.021   1.509
62748SOL    HW190076   1.949   8.092   1.489
62748SOL    HW290077   1.971   7.943   1.469
62749SOL     OW90078   0.733  11.182  11.985
62749SOL    HW190079   0.816  11.208  12.024
62749SOL    HW290080   0.668  11.202  12.053
62750SOL     OW90081   4.641   7.146  13.114
62750SOL    HW190082   4.718   7.092  13.097
62750SOL    HW290083   4.567   7.087  13.097
62751SOL     OW90084   1.393   2.555   3.549
62751SOL    HW190085   1.444   2.546   3.629
62751SOL    HW290086   1.302   2.542   3.577
62752SOL     OW90087  13.785  13.342   1.011
62752SOL    HW190088  13.842  13.361   0.936
62752SOL    HW290089  13.757  13.251   0.998
62753SOL     OW90090  10.188  11.185   6.460
62753SOL    HW190091  10.133  11.115   6.425
62753SOL    HW290092  10.152  11.203   6.547
62754SOL     OW90093  14.739  12.078   2.467
62754SOL    HW190094  14.670  12.137   2.499
62754SOL    HW290095  14.817  12.133   2.461
62755SOL     OW90096  12.209  14.258   7.175
62755SOL    HW190097  12.293  14.213   7.191
62755SOL    HW290098  12.220  14.343   7.218
62756SOL     OW90099   6.193  10.215   9.050
62756SOL    HW190100   6.124  10.149   9.052
62756SOL    HW290101   6.231  10.207   8.963
62757SOL     OW90102  11.974   5.515  11.468
62757SOL    HW190103  11.962   5.582  11.401
62757SOL    HW290104  12.037   5.554  11.529
62758SOL     OW90105   8.742  12.210   4.786
62758SOL    HW190106   8.696  12.135   4.823
62758SOL    HW290107   8.683  12.244   4.719
62759SOL     OW90108  14.591   8.164   8.739
62759SOL    HW190109  14.579   8.077   8.701
62759SOL    HW290110  14.577   8.152   8.832
62760SOL     OW90111   6.872  14.426  10.085
62760SOL    HW190112   6.846  14.414  10.176
62760SOL    HW290113   6.819  14.364  10.035
62761SOL     OW90114   0.568   0.953   6.561
62761SOL    HW190115   0.569   0.899   6.640
62761SOL    HW290116   0.524   0.898   6.495
62762SOL     OW90117   0.384   8.375  10.571
62762SOL    HW190118   0.479   8.367  10.571
62762SOL    HW290119   0.357   8.344  10.485
62763SOL     OW90120   2.929   5.637   1.669
62763SOL    HW190121   2.976   5.567   1.624
62763SOL    HW290122   2.929   5.709   1.606
62764SOL     OW90123   0.162  10.940   3.001
62764SOL    HW190124   0.255  10.966   2.995
62764SOL    HW290125   0.144  10.897   2.918
62765SOL     OW90126   1.037   9.302  12.277
62765SOL    HW190127   0.969   9.341  12.222
62765SOL    HW290128   1.050   9.365  12.347
62766SOL     OW90129  10.026   7.209   5.445
62766SOL    HW190130  10.057   7.297   5.467
62766SOL    HW290131   9.937   7.205   5.479
62767SOL     OW90132   1.538   2.043  12.262
62767SOL    HW190133   1.558   2.136  12.262
62767SOL    HW290134   1.515   2.024  12.171
62768SOL     OW90135   8.464   8.582  13.451
62768SOL    HW190136   8.469   8.577  13.356
62768SOL    HW290137   8.544   8.628  13.477
62769SOL     OW90138   5.893   0.755   9.767
62769SOL    HW190139   5.983   0.763   9.799
62769SOL    HW290140   5.902   0.743   9.672
62770SOL     OW90141   6.957   1.568  14.642
62770SOL    HW190142   7.031   1.537  14.695
62770SOL    HW290143   6.896   1.604  14.706
62771SOL     OW90144  10.471   2.259  13.577
62771SOL    HW190145  10.443   2.329  13.636
62771SOL    HW290146  10.435   2.179  13.616
62772SOL     OW90147   2.711   3.901  14.287
62772SOL    HW190148   2.767   3.826  14.266
62772SOL    HW290149   2.759   3.950  14.353
62773SOL     OW90150  11.873   1.819   9.508
62773SOL    HW190151  11.820   1.895   9.486
62773SOL    HW290152  11.840   1.791   9.594
62774SOL     OW90153   6.506   5.708  10.913
62774SOL    HW190154   6.477   5.727  10.824
62774SOL    HW290155   6.552   5.788  10.941
62775SOL     OW90156  12.784   2.769   6.285
62775SOL    HW190157  12.780   2.768   6.190
62775SOL    HW290158  12.857   2.711   6.307
62776SOL     OW90159   5.209   8.885  11.572
62776SOL    HW190160   5.291   8.849  11.608
62776SOL    HW290161   5.214   8.867  11.479
62777SOL     OW90162   0.457   9.511   3.264
62777SOL    HW190163   0.414   9.512   3.178
62777SOL    HW290164   0.526   9.446   3.255
62778SOL     OW90165  11.091   0.952  13.491
62778SOL    HW190166  11.146   0.987  13.561
62778SOL    HW290167  11.094   1.018  13.423
62779SOL     OW90168  13.539   0.652   0.570
62779SOL    HW190169  13.492   0.652   0.487
62779SOL    HW290170  13.475   0.625   0.635
62780SOL     OW90171  14.267  12.489   9.998
62780SOL    HW190172  14.196  12.511   9.938
62780SOL    HW290173  14.346  12.520   9.954
62781SOL     OW90174   9.242  12.295   6.606
62781SOL    HW190175   9.152  12.271   6.582
62781SOL    HW290176   9.248  12.274   6.699
62782SOL     OW90177   4.719  11.941   4.195
62782SOL    HW190178   4.762  11.867   4.153
62782SOL    HW290179   4.718  12.009   4.128
62783SOL     OW90180   7.786   5.513  10.945
62783SOL    HW190181   7.802   5.423  10.917
62783SOL    HW290182   7.738   5.505  11.027
62784SOL     OW90183  12.372   9.568  13.060
62784SOL    HW190184  12.348   9.650  13.102
62784SOL    HW290185  12.289   9.525  13.042
62785SOL     OW90186  13.749   1.855  13.438
62785SOL    HW190187  13.804   1.924  13.400
62785SOL    HW290188  13.799   1.774  13.423
62786SOL     OW90189  14.379   9.412   1.998
62786SOL    HW190190  14.387   9.363   1.915
62786SOL    HW290191  14.339   9.349   2.058
62787SOL     OW90192   2.973   3.258   8.582
62787SOL    HW190193   2.987   3.172   8.621
62787SOL    HW290194   2.882   3.258   8.553
62788SOL     OW90195  14.085   6.255   3.823
62788SOL    HW190196  14.153   6.295   3.877
62788SOL    HW290197  14.096   6.295   3.736
62789SOL     OW90198   9.399  10.997  14.566
62789SOL    HW190199   9.376  10.967  14.478
62789SOL    HW290200   9.487  11.034  14.557
62790SOL     OW90201   4.345   1.733  13.798
62790SOL    HW190202   4.315   1.642  13.794
62790SOL    HW290203   4.306   1.767  13.879
62791SOL     OW90204   4.880  10.057  12.781
62791SOL    HW190205   4.877  10.143  12.740
62791SOL    HW290206   4.849   9.997  12.713
62792SOL     OW90207   7.407   9.419   3.239
62792SOL    HW190208   7.422   9.435   3.332
62792SOL    HW290209   7.484   9.456   3.196
62793SOL     OW90210  11.003   1.846   4.307
62793SOL    HW190211  10.965   1.794   4.236
62793SOL    HW290212  10.935   1.850   4.374
62794SOL     OW90213  14.027   4.182  12.524
62794SOL    HW190214  14.101   4.122  12.518
62794SOL    HW290215  14.044   4.248  12.456
62795SOL     OW90216  11.034   7.919   8.604
62795SOL    HW190217  11.081   7.882   8.529
62795SOL    HW290218  11.012   7.842   8.658
62796SOL     OW90219   9.058   8.661   2.881
62796SOL    HW190220   9.114   8.584   2.882
62796SOL    HW290221   9.052   8.687   2.973
62797SOL     OW90222   0.828   1.495   5.248
62797SOL    HW190223   0.829   1.511   5.153
62797SOL    HW290224   0.736   1.506   5.273
62798SOL     OW90225   8.459   3.333  12.812
62798SOL    HW190226   8.479   3.248  12.852
62798SOL    HW290227   8.545   3.372  12.794
62799SOL     OW90228   8.796  14.709   3.389
62799SOL    HW190229   8.888  14.737   3.391
62799SOL    HW290230   8.777  14.685   3.480
62800SOL     OW90231   9.280   0.321   6.725
62800SOL    HW190232   9.257   0.372   6.647
62800SOL    HW290233   9.223   0.245   6.722
62801SOL     OW90234   3.779   1.800   6.102
62801SOL    HW190235   3.788   1.875   6.043
62801SOL    HW290236   3.840   1.819   6.173
62802SOL     OW90237   9.643   2.957   0.752
62802SOL    HW190238   9.645   2.882   0.693
62802SOL    HW290239   9.550   2.965   0.776
62803SOL     OW90240  10.233   4.428   5.935
62803SOL    HW190241  10.141   4.454   5.936
62803SOL    HW290242  10.231   4.336   5.910
62804SOL     OW90243   6.207  13.555   8.136
62804SOL    HW190244   6.284  13.540   8.191
62804SOL    HW290245   6.158  13.473   8.142
62805SOL     OW90246  11.719   6.803  11.651
62805SOL    HW190247  11.682   6.858  11.720
62805SOL    HW290248  11.805   6.778  11.684
62806SOL     OW90249   1.926   4.696   8.964
62806SOL    HW190250   1.946   4.708   8.871
62806SOL    HW290251   1.833   4.672   8.965
62807SOL     OW90252   9.399   7.005   8.892
62807SOL    HW190253   9.313   6.976   8.864
62807SOL    HW290254   9.455   6.927   8.885
62808SOL     OW90255  13.546  12.681   2.520
62808SOL    HW190256  13.565  12.737   2.595
62808SOL    HW290257  13.546  12.592   2.556
62809SOL     OW90258   1.261   3.151  13.972
62809SOL    HW190259   1.234   3.163  13.881
62809SOL    HW290260   1.352   3.181  13.975
62810SOL     OW90261   2.147  11.518   3.017
62810SOL    HW190262   2.210  11.451   2.992
62810SOL    HW290263   2.166  11.536   3.109
62811SOL     OW90264   2.944   1.262  11.937
62811SOL    HW190265   2.913   1.333  11.880
62811SOL    HW290266   2.873   1.198  11.936
62812SOL     OW90267   2.918   1.445   2.515
62812SOL    HW190268   2.870   1.377   2.467
62812SOL    HW290269   2.884   1.527   2.479
62813SOL     OW90270   3.990   4.314  14.076
62813SOL    HW190271   3.989   4.395  14.128
62813SOL    HW290272   3.927   4.329  14.006
62814SOL     OW90273   8.682   6.191   1.159
62814SOL    HW190274   8.695   6.218   1.250
62814SOL    HW290275   8.700   6.097   1.160
62815SOL     OW90276   2.547   8.921   8.068
62815SOL    HW190277   2.516   8.832   8.050
62815SOL    HW290278   2.505   8.946   8.150
62816SOL     OW90279   3.859  13.006   8.463
62816SOL    HW190280   3.951  13.026   8.477
62816SOL    HW290281   3.825  12.987   8.550
62817SOL     OW90282   4.677  11.660   8.900
62817SOL    HW190283   4.696  11.582   8.952
62817SOL    HW290284   4.601  11.635   8.848
62818SOL     OW90285  12.613   0.021   3.382
62818SOL    HW190286  12.699  14.871   3.357
62818SOL    HW290287  12.604  14.878   3.474
62819SOL     OW90288   6.230   7.152  13.447
62819SOL    HW190289   6.265   7.236  13.475
62819SOL    HW290290   6.217   7.161  13.352
62820SOL     OW90291   1.296  13.615  14.184
62820SOL    HW190292   1.264  13.552  14.249
62820SOL    HW290293   1.330  13.688  14.236
62821SOL     OW90294   3.633   5.175   8.409
62821SOL    HW190295   3.635   5.260   8.367
62821SOL    HW290296   3.725   5.151   8.420
62822SOL     OW90297  12.459  13.573   2.983
62822SOL    HW190298  12.531  13.522   2.945
62822SOL    HW290299  12.447  13.536   3.070
62823SOL     OW90300  10.418   5.083  10.871
62823SOL    HW190301  10.330   5.055  10.897
62823SOL    HW290302  10.405   5.172  10.838
62824SOL     OW90303  10.527  10.152  14.034
62824SOL    HW190304  10.612  10.191  14.053
62824SOL    HW290305  10.464  10.211  14.074
62825SOL     OW90306   7.377   8.182   4.037
62825SOL    HW190307   7.332   8.249   4.087
62825SOL    HW290308   7.447   8.151   4.094
62826SOL     OW90309   7.063  10.321   6.225
62826SOL    HW190310   7.118  10.395   6.251
62826SOL    HW290311   7.067  10.261   6.300
62827SOL     OW90312  11.353   4.694   7.619
62827SOL    HW190313  11.341   4.668   7.528
62827SOL    HW290314  11.445   4.674   7.638
62828SOL     OW90315   5.768  12.397   3.763
62828SOL    HW190316   5.679  12.432   3.764
62828SOL    HW290317   5.801  12.411   3.852
62829SOL     OW90318   9.856   7.459   1.151
62829SOL    HW190319   9.951   7.452   1.157
62829SOL    HW290320   9.837   7.552   1.164
62830SOL     OW90321  13.889   8.664   3.459
62830SOL    HW190322  13.845   8.608   3.523
62830SOL    HW290323  13.826   8.676   3.389
62831SOL     OW90324   2.940   9.907   2.835
62831SOL    HW190325   2.999   9.834   2.815
62831SOL    HW290326   2.981   9.950   2.910
62832SOL     OW90327  12.463   9.732   4.112
62832SOL    HW190328  12.516   9.795   4.161
62832SOL    HW290329  12.418   9.681   4.180
62833SOL     OW90330   1.531   9.200  14.649
62833SOL    HW190331   1.554   9.281  14.604
62833SOL    HW290332   1.435   9.199  14.648
62834SOL     OW90333  10.725   7.681   2.495
62834SOL    HW190334  10.770   7.597   2.483
62834SOL    HW290335  10.653   7.678   2.431
62835SOL     OW90336   1.471   5.562   0.813
62835SOL    HW190337   1.449   5.548   0.720
62835SOL    HW290338   1.556   5.607   0.810
62836SOL     OW90339   5.057   9.632   4.770
62836SOL    HW190340   5.046   9.654   4.678
62836SOL    HW290341   5.122   9.694   4.803
62837SOL     OW90342   7.293  12.244   5.040
62837SOL    HW190343   7.336  12.212   5.119
62837SOL    HW290344   7.344  12.208   4.968
62838SOL     OW90345   5.778   8.298   5.001
62838SOL    HW190346   5.742   8.219   4.961
62838SOL    HW290347   5.829   8.266   5.075
62839SOL     OW90348  10.048   7.453   0.380
62839SOL    HW190349   9.999   7.450   0.463
62839SOL    HW290350  10.127   7.402   0.398
62840SOL     OW90351   3.307   3.764   0.383
62840SOL    HW190352   3.360   3.844   0.387
62840SOL    HW290353   3.285   3.745   0.474
62841SOL     OW90354  12.430   7.334   4.487
62841SOL    HW190355  12.493   7.361   4.420
62841SOL    HW290356  12.350   7.382   4.466
62842SOL     OW90357   7.956   0.403   0.944
62842SOL    HW190358   8.031   0.345   0.932
62842SOL    HW290359   7.883   0.345   0.964
62843SOL     OW90360  11.564  14.248   8.541
62843SOL    HW190361  11.608  14.196   8.473
62843SOL    HW290362  11.471  14.230   8.528
62844SOL     OW90363   9.616   4.646   4.893
62844SOL    HW190364   9.618   4.672   4.985
62844SOL    HW290365   9.567   4.715   4.849
62845SOL     OW90366   7.065   2.442   2.775
62845SOL    HW190367   7.023   2.356   2.767
62845SOL    HW290368   7.151   2.430   2.735
62846SOL     OW90369   6.581  13.259   8.376
62846SOL    HW190370   6.663  13.278   8.422
62846SOL    HW290371   6.547  13.181   8.419
62847SOL     OW90372   6.166   3.949   3.789
62847SOL    HW190373   6.258   3.924   3.800
62847SOL    HW290374   6.127   3.874   3.744
62848SOL     OW90375   6.842  12.886  10.133
62848SOL    HW190376   6.752  12.867  10.158
62848SOL    HW290377   6.842  12.878  10.038
62849SOL     OW90378  10.089  12.325  12.636
62849SOL    HW190379  10.097  12.414  12.669
62849SOL    HW290380  10.120  12.330  12.546
62850SOL     OW90381   8.829   2.330   2.054
62850SOL    HW190382   8.913   2.366   2.082
62850SOL    HW290383   8.804   2.384   1.978
62851SOL     OW90384   3.469  10.914  14.781
62851SOL    HW190385   3.421  10.880  14.705
62851SOL    HW290386   3.561  10.896  14.761
62852SOL     OW90387  10.215   9.423   0.301
62852SOL    HW190388  10.282   9.378   0.249
62852SOL    HW290389  10.260   9.501   0.334
62853SOL     OW90390   2.686  12.489   5.674
62853SOL    HW190391   2.716  12.518   5.588
62853SOL    HW290392   2.600  12.529   5.684
62854SOL     OW90393   8.304  13.296  10.892
62854SOL    HW190394   8.304  13.278  10.798
62854SOL    HW290395   8.229  13.354  10.905
62855SOL     OW90396   3.111   3.925  13.390
62855SOL    HW190397   3.120   3.888  13.478
62855SOL    HW290398   3.110   3.849  13.332
62856SOL     OW90399  14.332   3.673   9.038
62856SOL    HW190400  14.311   3.619   9.115
62856SOL    HW290401  14.287   3.630   8.966
62857SOL     OW90402   6.176  12.792   4.009
62857SOL    HW190403   6.088  12.782   3.974
62857SOL    HW290404   6.209  12.703   4.019
62858SOL     OW90405   5.361   9.221   9.737
62858SOL    HW190406   5.315   9.225   9.821
62858SOL    HW290407   5.317   9.151   9.689
62859SOL     OW90408  10.809   4.429  10.456
62859SOL    HW190409  10.724   4.390  10.436
62859SOL    HW290410  10.872   4.361  10.435
62860SOL     OW90411   2.254   7.112  10.818
62860SOL    HW190412   2.232   7.022  10.796
62860SOL    HW290413   2.170   7.155  10.832
62861SOL     OW90414   1.109  11.482   2.900
62861SOL    HW190415   1.169  11.412   2.876
62861SOL    HW290416   1.110  11.542   2.826
62862SOL     OW90417   1.061  10.578   6.904
62862SOL    HW190418   1.126  10.594   6.973
62862SOL    HW290419   1.077  10.646   6.839
62863SOL     OW90420  10.997  14.245   1.498
62863SOL    HW190421  10.978  14.155   1.472
62863SOL    HW290422  11.028  14.287   1.417
62864SOL     OW90423  10.703   3.747   0.829
62864SOL    HW190424  10.788   3.775   0.862
62864SOL    HW290425  10.649   3.735   0.907
62865SOL     OW90426  14.093   3.210   1.598
62865SOL    HW190427  14.011   3.160   1.596
62865SOL    HW290428  14.066   3.301   1.604
62866SOL     OW90429  13.984   3.624  12.042
62866SOL    HW190430  13.926   3.583  12.106
62866SOL    HW290431  13.925   3.670  11.982
62867SOL     OW90432   5.704   0.183   9.360
62867SOL    HW190433   5.760   0.221   9.293
62867SOL    HW290434   5.748   0.101   9.384
62868SOL     OW90435  10.036  14.753   4.379
62868SOL    HW190436   9.954  14.797   4.402
62868SOL    HW290437  10.027  14.732   4.286
62869SOL     OW90438   5.978   5.600   9.281
62869SOL    HW190439   6.030   5.637   9.209
62869SOL    HW290440   6.042   5.585   9.350
62870SOL     OW90441   7.904   6.425  13.374
62870SOL    HW190442   7.927   6.411  13.283
62870SOL    HW290443   7.915   6.339  13.415
62871SOL     OW90444   6.577   9.915   5.921
62871SOL    HW190445   6.564   9.867   6.003
62871SOL    HW290446   6.655   9.968   5.936
62872SOL     OW90447  11.963   7.188   1.500
62872SOL    HW190448  12.052   7.220   1.490
62872SOL    HW290449  11.957   7.113   1.441
62873SOL     OW90450  11.193  11.819  12.192
62873SOL    HW190451  11.176  11.758  12.263
62873SOL    HW290452  11.184  11.767  12.112
62874SOL     OW90453   7.368   3.121  13.351
62874SOL    HW190454   7.416   3.061  13.293
62874SOL    HW290455   7.286   3.138  13.304
62875SOL     OW90456   9.352  12.962  13.644
62875SOL    HW190457   9.392  12.876  13.658
62875SOL    HW290458   9.258  12.945  13.639
62876SOL     OW90459   1.889   5.367   1.231
62876SOL    HW190460   1.797   5.379   1.253
62876SOL    HW290461   1.915   5.450   1.191
62877SOL     OW90462  12.683   7.431   6.707
62877SOL    HW190463  12.687   7.483   6.788
62877SOL    HW290464  12.729   7.484   6.642
62878SOL     OW90465  11.252  14.172   3.202
62878SOL    HW190466  11.332  14.120   3.190
62878SOL    HW290467  11.221  14.148   3.290
62879SOL     OW90468   1.480   1.463   0.825
62879SOL    HW190469   1.400   1.417   0.799
62879SOL    HW290470   1.450   1.536   0.879
62880SOL     OW90471   2.741  12.651  10.190
62880SOL    HW190472   2.815  12.589  10.191
62880SOL    HW290473   2.762  12.713  10.120
62881SOL     OW90474  12.968   9.626  13.198
62881SOL    HW190475  13.050   9.583  13.219
62881SOL    HW290476  12.971   9.708  13.247
62882SOL     OW90477  10.925  13.358   1.903
62882SOL    HW190478  10.892  13.411   1.831
62882SOL    HW290479  10.854  13.298   1.925
62883SOL     OW90480   1.818   7.506   1.261
62883SOL    HW190481   1.731   7.539   1.282
62883SOL    HW290482   1.870   7.525   1.339
62884SOL     OW90483   7.626   2.293   4.503
62884SOL    HW190484   7.650   2.369   4.451
62884SOL    HW290485   7.531   2.297   4.509
62885SOL     OW90486   3.677   3.012  13.406
62885SOL    HW190487   3.661   2.988  13.314
62885SOL    HW290488   3.590   3.033  13.441
62886SOL     OW90489   8.019   8.158   1.017
62886SOL    HW190490   8.080   8.172   1.089
62886SOL    HW290491   7.993   8.067   1.023
62887SOL     OW90492   4.233  14.854   5.987
62887SOL    HW190493   4.159   0.027   6.014
62887SOL    HW290494   4.274   0.021   5.916
62888SOL     OW90495  11.285   4.785   5.674
62888SOL    HW190496  11.259   4.693   5.664
62888SOL    HW290497  11.218   4.834   5.627
62889SOL     OW90498  14.833   8.623   1.333
62889SOL    HW190499   0.031   8.578   1.303
62889SOL    HW290500  14.799   8.665   1.254
62890SOL     OW90501   6.883  13.951  12.510
62890SOL    HW190502   6.958  14.009  12.519
62890SOL    HW290503   6.826  13.974  12.584
62891SOL     OW90504   0.278   6.275   0.183
62891SOL    HW190505   0.360   6.291   0.231
62891SOL    HW290506   0.215   6.254   0.251
62892SOL     OW90507  10.152   8.564   3.460
62892SOL    HW190508  10.083   8.510   3.422
62892SOL    HW290509  10.106   8.624   3.519
62893SOL     OW90510   4.268  12.358   5.043
62893SOL    HW190511   4.252  12.292   5.110
62893SOL    HW290512   4.218  12.434   5.072
62894SOL     OW90513   8.692   9.253   0.611
62894SOL    HW190514   8.694   9.348   0.601
62894SOL    HW290515   8.684   9.238   0.705
62895SOL     OW90516  14.168  12.274   7.248
62895SOL    HW190517  14.157  12.184   7.277
62895SOL    HW290518  14.079  12.305   7.228
62896SOL     OW90519  14.673   7.255   5.532
62896SOL    HW190520  14.676   7.285   5.441
62896SOL    HW290521  14.760   7.273   5.567
62897SOL     OW90522  14.242   1.406   4.997
62897SOL    HW190523  14.184   1.428   4.924
62897SOL    HW290524  14.199   1.441   5.074
62898SOL     OW90525  12.855   2.538   1.924
62898SOL    HW190526  12.833   2.619   1.878
62898SOL    HW290527  12.790   2.532   1.994
62899SOL     OW90528   8.990   6.496  11.852
62899SOL    HW190529   9.085   6.485  11.846
62899SOL    HW290530   8.955   6.422  11.803
62900SOL     OW90531   0.083   4.116   2.018
62900SOL    HW190532  14.879   4.092   1.982
62900SOL    HW290533   0.095   4.207   1.992
62901SOL     OW90534   5.292  13.578  14.531
62901SOL    HW190535   5.325  13.536  14.610
62901SOL    HW290536   5.199  13.556  14.529
62902SOL     OW90537   1.636   9.410   1.768
62902SOL    HW190538   1.613   9.502   1.756
62902SOL    HW290539   1.730   9.410   1.784
62903SOL     OW90540   7.861   2.251  12.372
62903SOL    HW190541   7.874   2.157  12.379
62903SOL    HW290542   7.815   2.264  12.289
62904SOL     OW90543   6.731  14.751   8.632
62904SOL    HW190544   6.638  14.732   8.646
62904SOL    HW290545   6.769  14.754   8.720
62905SOL     OW90546   8.705   3.042   7.416
62905SOL    HW190547   8.676   3.059   7.326
62905SOL    HW290548   8.794   3.076   7.420
62906SOL     OW90549  10.905   6.786   6.230
62906SOL    HW190550  10.987   6.738   6.224
62906SOL    HW290551  10.929   6.871   6.268
62907SOL     OW90552   9.850  12.297   9.839
62907SOL    HW190553   9.943  12.315   9.855
62907SOL    HW290554   9.850  12.222   9.780
62908SOL     OW90555   1.349   9.881   0.055
62908SOL    HW190556   1.280   9.943   0.030
62908SOL    HW290557   1.322   9.849   0.141
62909SOL     OW90558   4.759   8.872   4.113
62909SOL    HW190559   4.839   8.925   4.108
62909SOL    HW290560   4.775   8.799   4.054
62910SOL     OW90561   2.939   5.393   3.499
62910SOL    HW190562   2.905   5.482   3.497
62910SOL    HW290563   3.029   5.402   3.532
62911SOL     OW90564  13.342  10.382  14.572
62911SOL    HW190565  13.407  10.451  14.580
62911SOL    HW290566  13.326  10.354  14.662
62912SOL     OW90567  10.983   3.507   7.692
62912SOL    HW190568  11.045   3.527   7.622
62912SOL    HW290569  11.033   3.454   7.754
62913SOL     OW90570  14.772   1.613  12.817
62913SOL    HW190571  14.707   1.680  12.840
62913SOL    HW290572  14.852   1.640  12.862
62914SOL     OW90573  11.712   6.303   4.318
62914SOL    HW190574  11.674   6.382   4.356
62914SOL    HW290575  11.639   6.242   4.311
62915SOL     OW90576   0.379   1.792   1.044
62915SOL    HW190577   0.423   1.856   0.988
62915SOL    HW290578   0.297   1.772   0.998
62916SOL     OW90579   0.004   4.259   0.867
62916SOL    HW190580   0.017   4.353   0.856
62916SOL    HW290581   0.004   4.246   0.962
62917SOL     OW90582   3.457   3.493   3.634
62917SOL    HW190583   3.409   3.439   3.696
62917SOL    HW290584   3.547   3.492   3.666
62918SOL     OW90585  10.839  10.777  14.531
62918SOL    HW190586  10.773  10.710  14.548
62918SOL    HW290587  10.793  10.844  14.481
62919SOL     OW90588   1.009  13.596  13.622
62919SOL    HW190589   1.029  13.686  13.650
62919SOL    HW290590   1.095  13.556  13.608
62920SOL     OW90591   3.366   7.425   4.799
62920SOL    HW190592   3.451   7.399   4.764
62920SOL    HW290593   3.361   7.381   4.884
62921SOL     OW90594   6.306   2.568  10.436
62921SOL    HW190595   6.370   2.547  10.367
62921SOL    HW290596   6.360   2.594  10.511
62922SOL     OW90597  14.052   5.628   0.787
62922SOL    HW190598  14.035   5.705   0.733
62922SOL    HW290599  13.998   5.559   0.749
62923SOL     OW90600   4.497   8.707   0.608
62923SOL    HW190601   4.514   8.616   0.634
62923SOL    HW290602   4.506   8.706   0.513
62924SOL     OW90603   7.475   2.981  12.085
62924SOL    HW190604   7.400   2.922  12.084
62924SOL    HW290605   7.442   3.062  12.046
62925SOL     OW90606   0.603   4.349   5.752
62925SOL    HW190607   0.510   4.344   5.774
62925SOL    HW290608   0.611   4.429   5.700
62926SOL     OW90609   5.442  13.642   7.631
62926SOL    HW190610   5.352  13.614   7.641
62926SOL    HW290611   5.458  13.699   7.707
62927SOL     OW90612   0.110   1.730   5.345
62927SOL    HW190613   0.089   1.661   5.408
62927SOL    HW290614   0.188   1.772   5.381
62928SOL     OW90615   0.502  10.894   7.175
62928SOL    HW190616   0.419  10.878   7.221
62928SOL    HW290617   0.498  10.836   7.099
62929SOL     OW90618   2.702   6.943   7.328
62929SOL    HW190619   2.685   6.988   7.411
62929SOL    HW290620   2.621   6.895   7.310
62930SOL     OW90621   3.950   9.709  12.536
62930SOL    HW190622   4.027   9.693  12.590
62930SOL    HW290623   3.887   9.642  12.562
62931SOL     OW90624   9.093   5.288   9.758
62931SOL    HW190625   9.167   5.338   9.725
62931SOL    HW290626   9.113   5.275   9.851
62932SOL     OW90627  10.607   3.060   5.932
62932SOL    HW190628  10.617   3.148   5.968
62932SOL    HW290629  10.521   3.060   5.892
62933SOL     OW90630   3.803   2.256  11.234
62933SOL    HW190631   3.747   2.293  11.166
62933SOL    HW290632   3.802   2.162  11.218
62934SOL     OW90633  14.092  10.300   5.815
62934SOL    HW190634  14.128  10.359   5.749
62934SOL    HW290635  14.145  10.317   5.893
62935SOL     OW90636   7.696   0.326   4.475
62935SOL    HW190637   7.633   0.398   4.470
62935SOL    HW290638   7.728   0.328   4.565
62936SOL     OW90639  10.029  11.707  13.799
62936SOL    HW190640  10.022  11.696  13.705
62936SOL    HW290641  10.097  11.645  13.826
62937SOL     OW90642  12.627  10.080  10.713
62937SOL    HW190643  12.636  10.103  10.621
62937SOL    HW290644  12.709  10.110  10.753
62938SOL     OW90645  12.373   1.798   9.835
62938SOL    HW190646  12.358   1.793   9.930
62938SOL    HW290647  12.304   1.857   9.804
62939SOL     OW90648   0.077   1.758   4.059
62939SOL    HW190649   0.050   1.776   3.969
62939SOL    HW290650  14.879   1.725   4.101
62940SOL     OW90651  11.561   5.193   7.990
62940SOL    HW190652  11.640   5.241   7.966
62940SOL    HW290653  11.573   5.173   8.083
62941SOL     OW90654  11.445  14.821   0.706
62941SOL    HW190655  11.469   0.000   0.637
62941SOL    HW290656  11.461  14.734   0.668
62942SOL     OW90657   0.170   1.211   6.594
62942SOL    HW190658   0.245   1.201   6.653
62942SOL    HW290659   0.097   1.170   6.641
62943SOL     OW90660  11.774   4.087   5.061
62943SOL    HW190661  11.806   4.021   5.001
62943SOL    HW290662  11.695   4.048   5.100
62944SOL     OW90663   7.682  10.874   8.144
62944SOL    HW190664   7.721  10.795   8.181
62944SOL    HW290665   7.596  10.846   8.112
62945SOL     OW90666   9.276   1.735   1.067
62945SOL    HW190667   9.287   1.710   1.159
62945SOL    HW290668   9.184   1.759   1.059
62946SOL     OW90669   7.741  12.865   2.823
62946SOL    HW190670   7.803  12.921   2.778
62946SOL    HW290671   7.765  12.871   2.915
62947SOL     OW90672   3.720   7.853   2.462
62947SOL    HW190673   3.719   7.831   2.555
62947SOL    HW290674   3.685   7.942   2.458
62948SOL     OW90675   6.936  13.185   1.337
62948SOL    HW190676   6.842  13.204   1.332
62948SOL    HW290677   6.971  13.255   1.394
62949SOL     OW90678   5.910   8.820   8.825
62949SOL    HW190679   5.933   8.729   8.811
62949SOL    HW290680   5.829   8.833   8.776
62950SOL     OW90681   4.777   2.491  14.298
62950SOL    HW190682   4.728   2.573  14.307
62950SOL    HW290683   4.869   2.517  14.301
62951SOL     OW90684   8.930   9.398  14.016
62951SOL    HW190685   8.904   9.448  14.094
62951SOL    HW290686   8.953   9.312  14.050
62952SOL     OW90687   2.417   5.114  14.418
62952SOL    HW190688   2.486   5.052  14.397
62952SOL    HW290689   2.380   5.082  14.500
62953SOL     OW90690   6.225  10.886  13.422
62953SOL    HW190691   6.267  10.949  13.362
62953SOL    HW290692   6.185  10.822  13.364
62954SOL     OW90693   6.447  14.680   0.745
62954SOL    HW190694   6.411  14.725   0.822
62954SOL    HW290695   6.373  14.674   0.684
62955SOL     OW90696   2.292  10.359   7.910
62955SOL    HW190697   2.279  10.345   8.004
62955SOL    HW290698   2.204  10.376   7.876
62956SOL     OW90699   3.773  14.176  14.756
62956SOL    HW190700   3.844  14.166  14.692
62956SOL    HW290701   3.701  14.213  14.705
62957SOL     OW90702   2.410   1.862   8.384
62957SOL    HW190703   2.364   1.843   8.302
62957SOL    HW290704   2.496   1.820   8.374
62958SOL     OW90705  14.500   7.262  13.076
62958SOL    HW190706  14.527   7.287  13.165
62958SOL    HW290707  14.574   7.211  13.043
62959SOL     OW90708   0.507   0.373  10.021
62959SOL    HW190709   0.507   0.433   9.946
62959SOL    HW290710   0.415   0.359  10.042
62960SOL     OW90711   6.650  14.019  13.297
62960SOL    HW190712   6.714  13.991  13.363
62960SOL    HW290713   6.565  14.003  13.339
62961SOL     OW90714   8.612  12.896   8.717
62961SOL    HW190715   8.690  12.855   8.680
62961SOL    HW290716   8.554  12.911   8.642
62962SOL     OW90717   2.957   0.431  12.974
62962SOL    HW190718   3.005   0.361  13.018
62962SOL    HW290719   2.871   0.393  12.956
62963SOL     OW90720   9.199  10.697  13.216
62963SOL    HW190721   9.192  10.605  13.190
62963SOL    HW290722   9.115  10.717  13.258
62964SOL     OW90723  13.056   1.638  14.762
62964SOL    HW190724  13.066   1.544  14.770
62964SOL    HW290725  13.023   1.667  14.847
62965SOL     OW90726   0.825   1.902   9.267
62965SOL    HW190727   0.747   1.919   9.215
62965SOL    HW290728   0.896   1.891   9.203
62966SOL     OW90729   9.654   7.042   2.248
62966SOL    HW190730   9.619   7.013   2.164
62966SOL    HW290731   9.583   7.093   2.287
62967SOL     OW90732   7.318   4.248   3.081
62967SOL    HW190733   7.292   4.340   3.088
62967SOL    HW290734   7.405   4.251   3.040
62968SOL     OW90735   8.574  13.438   8.902
62968SOL    HW190736   8.508  13.417   8.836
62968SOL    HW290737   8.630  13.360   8.905
62969SOL     OW90738   7.364   6.769  13.487
62969SOL    HW190739   7.298   6.702  13.469
62969SOL    HW290740   7.322   6.827  13.551
62970SOL     OW90741  14.786   5.501   5.785
62970SOL    HW190742  14.810   5.453   5.864
62970SOL    HW290743  14.693   5.518   5.794
62971SOL     OW90744  12.288   1.143   7.506
62971SOL    HW190745  12.317   1.056   7.533
62971SOL    HW290746  12.347   1.167   7.434
62972SOL     OW90747   2.323   1.577   2.952
62972SOL    HW190748   2.367   1.646   3.003
62972SOL    HW290749   2.265   1.624   2.892
62973SOL     OW90750   5.125  13.339  13.063
62973SOL    HW190751   5.113  13.281  13.138
62973SOL    HW290752   5.108  13.283  12.987
62974SOL     OW90753   5.851   0.245   5.234
62974SOL    HW190754   5.872   0.334   5.207
62974SOL    HW290755   5.934   0.197   5.225
62975SOL     OW90756   9.183   3.560  10.531
62975SOL    HW190757   9.106   3.518  10.492
62975SOL    HW290758   9.167   3.654  10.519
62976SOL     OW90759  11.662  12.115   3.390
62976SOL    HW190760  11.720  12.134   3.317
62976SOL    HW290761  11.626  12.200   3.416
62977SOL     OW90762  13.161  13.196  14.865
62977SOL    HW190763  13.123  13.282   0.005
62977SOL    HW290764  13.098  13.133   0.019
62978SOL     OW90765   7.713   9.527   4.602
62978SOL    HW190766   7.642   9.471   4.634
62978SOL    HW290767   7.688   9.547   4.512
62979SOL     OW90768   5.932  10.113   7.012
62979SOL    HW190769   5.868  10.182   6.997
62979SOL    HW290770   5.944  10.073   6.925
62980SOL     OW90771   3.915   7.822   9.115
62980SOL    HW190772   3.856   7.747   9.107
62980SOL    HW290773   3.977   7.795   9.183
62981SOL     OW90774  10.721  10.499   4.221
62981SOL    HW190775  10.784  10.451   4.167
62981SOL    HW290776  10.673  10.430   4.267
62982SOL     OW90777   4.020   9.848  12.111
62982SOL    HW190778   3.987   9.776  12.057
62982SOL    HW290779   4.086   9.808  12.167
62983SOL     OW90780   4.498  13.696  11.667
62983SOL    HW190781   4.530  13.775  11.710
62983SOL    HW290782   4.417  13.675  11.713
62984SOL     OW90783   2.001  10.507   7.082
62984SOL    HW190784   2.046  10.539   7.004
62984SOL    HW290785   1.989  10.585   7.136
62985SOL     OW90786   4.415  12.139  12.280
62985SOL    HW190787   4.355  12.141  12.354
62985SOL    HW290788   4.393  12.218  12.230
62986SOL     OW90789  14.022  14.760   7.978
62986SOL    HW190790  14.059  14.678   8.009
62986SOL    HW290791  14.097  14.809   7.943
62987SOL     OW90792   9.386   7.212  11.997
62987SOL    HW190793   9.295   7.186  12.011
62987SOL    HW290794   9.422   7.222  12.084
62988SOL     OW90795  13.811  11.138   6.471
62988SOL    HW190796  13.767  11.102   6.547
62988SOL    HW290797  13.747  11.132   6.401
62989SOL     OW90798   2.396  13.104   6.709
62989SOL    HW190799   2.363  13.019   6.679
62989SOL    HW290800   2.472  13.082   6.763
62990SOL     OW90801   9.966   8.211   4.995
62990SOL    HW190802   9.990   8.274   5.062
62990SOL    HW290803  10.008   8.129   5.023
62991SOL     OW90804   7.366   7.606   0.842
62991SOL    HW190805   7.271   7.606   0.852
62991SOL    HW290806   7.397   7.541   0.905
62992SOL     OW90807  12.804   5.912   4.481
62992SOL    HW190808  12.884   5.921   4.431
62992SOL    HW290809  12.750   5.852   4.429
62993SOL     OW90810  13.466  12.675   0.235
62993SOL    HW190811  13.440  12.706   0.149
62993SOL    HW290812  13.543  12.620   0.219
62994SOL     OW90813   0.349  13.454  11.125
62994SOL    HW190814   0.343  13.362  11.100
62994SOL    HW290815   0.406  13.455  11.202
62995SOL     OW90816   7.611   5.049   4.767
62995SOL    HW190817   7.652   4.967   4.739
62995SOL    HW290818   7.681   5.115   4.758
62996SOL     OW90819   2.407  14.876   7.451
62996SOL    HW190820   2.365  14.820   7.517
62996SOL    HW290821   2.337   0.015   7.389
62997SOL     OW90822  11.688  10.461   1.881
62997SOL    HW190823  11.756  10.516   1.843
62997SOL    HW290824  11.727  10.427   1.962
62998SOL     OW90825   2.176   2.901  12.175
62998SOL    HW190826   2.181   2.810  12.204
62998SOL    HW290827   2.196   2.897  12.081
62999SOL     OW90828  12.900  13.526   8.049
62999SOL    HW190829  12.972  13.464   8.040
62999SOL    HW290830  12.822  13.471   8.057
63000SOL     OW90831  13.527   0.191   1.003
63000SOL    HW190832  13.475   0.230   1.073
63000SOL    HW290833  13.497   0.101   0.997
63001SOL     OW90834  14.573  13.416   3.902
63001SOL    HW190835  14.539  13.328   3.922
63001SOL    HW290836  14.528  13.441   3.821
63002SOL     OW90837   2.849  11.466   9.221
63002SOL    HW190838   2.815  11.548   9.184
63002SOL    HW290839   2.918  11.494   9.282
63003SOL     OW90840   4.731  11.774   0.058
63003SOL    HW190841   4.820  11.761   0.025
63003SOL    HW290842   4.742  11.774   0.153
63004SOL     OW90843  10.475   5.711   6.771
63004SOL    HW190844  10.475   5.707   6.676
63004SOL    HW290845  10.557   5.670   6.797
63005SOL     OW90846   2.233   8.177   8.157
63005SOL    HW190847   2.164   8.167   8.223
63005SOL    HW290848   2.202   8.249   8.101
63006SOL     OW90849   9.630   5.865   6.226
63006SOL    HW190850   9.689   5.798   6.262
63006SOL    HW290851   9.626   5.932   6.295
63007SOL     OW90852  13.606   5.307   0.623
63007SOL    HW190853  13.596   5.394   0.585
63007SOL    HW290854  13.541   5.253   0.578
63008SOL     OW90855   0.419   1.850   1.638
63008SOL    HW190856   0.470   1.925   1.606
63008SOL    HW290857   0.482   1.798   1.688
63009SOL     OW90858   9.479   9.744   8.868
63009SOL    HW190859   9.480   9.802   8.943
63009SOL    HW290860   9.480   9.656   8.906
63010SOL     OW90861   1.275  10.988  10.104
63010SOL    HW190862   1.335  11.062  10.103
63010SOL    HW290863   1.281  10.953  10.193
63011SOL     OW90864   7.147   0.774  14.845
63011SOL    HW190865   7.168   0.718   0.038
63011SOL    HW290866   7.199   0.853  14.859
63012SOL     OW90867  12.296   3.821  14.800
63012SOL    HW190868  12.222   3.839  14.742
63012SOL    HW290869  12.342   3.904  14.808
63013SOL     OW90870   0.212   0.986   2.847
63013SOL    HW190871   0.272   1.048   2.888
63013SOL    HW290872   0.224   0.999   2.753
63014SOL     OW90873   4.315  12.554   8.121
63014SOL    HW190874   4.228  12.553   8.081
63014SOL    HW290875   4.311  12.487   8.190
63015SOL     OW90876   7.426   8.924   1.556
63015SOL    HW190877   7.490   8.895   1.490
63015SOL    HW290878   7.408   8.846   1.609
63016SOL     OW90879  10.466   5.643   3.377
63016SOL    HW190880  10.447   5.633   3.283
63016SOL    HW290881  10.562   5.637   3.382
63017SOL     OW90882   7.340   7.240   8.849
63017SOL    HW190883   7.265   7.294   8.827
63017SOL    HW290884   7.382   7.285   8.922
63018SOL     OW90885  11.392   8.777  13.818
63018SOL    HW190886  11.353   8.865  13.814
63018SOL    HW290887  11.333   8.722  13.766
63019SOL     OW90888  13.300   3.393   5.764
63019SOL    HW190889  13.236   3.373   5.833
63019SOL    HW290890  13.355   3.462   5.801
63020SOL     OW90891   6.938   0.675   7.359
63020SOL    HW190892   6.970   0.674   7.449
63020SOL    HW290893   6.982   0.602   7.317
63021SOL     OW90894  13.179  10.466   6.714
63021SOL    HW190895  13.107  10.500   6.660
63021SOL    HW290896  13.141  10.388   6.757
63022SOL     OW90897   5.974   2.290   8.783
63022SOL    HW190898   5.969   2.198   8.759
63022SOL    HW290899   5.893   2.328   8.749
63023SOL     OW90900  13.671   7.481   6.477
63023SOL    HW190901  13.651   7.392   6.450
63023SOL    HW290902  13.755   7.474   6.523
63024SOL     OW90903   8.235   0.493   1.394
63024SOL    HW190904   8.152   0.466   1.354
63024SOL    HW290905   8.298   0.492   1.322
63025SOL     OW90906   1.247   6.595  11.577
63025SOL    HW190907   1.272   6.560  11.492
63025SOL    HW290908   1.298   6.544  11.640
63026SOL     OW90909  13.999   7.781   6.755
63026SOL    HW190910  14.083   7.809   6.791
63026SOL    HW290911  13.975   7.704   6.806
63027SOL     OW90912  13.797  11.076   4.089
63027SOL    HW190913  13.858  11.022   4.139
63027SOL    HW290914  13.746  11.123   4.155
63028SOL     OW90915   8.825   4.174   8.720
63028SOL    HW190916   8.733   4.181   8.693
63028SOL    HW290917   8.871   4.143   8.642
63029SOL     OW90918  11.980   7.640  13.206
63029SOL    HW190919  12.029   7.567  13.242
63029SOL    HW290920  11.929   7.602  13.135
63030SOL     OW90921  11.821   0.279  10.519
63030SOL    HW190922  11.870   0.197  10.519
63030SOL    HW290923  11.747   0.263  10.460
63031SOL     OW90924   0.561   5.126  13.677
63031SOL    HW190925   0.472   5.161  13.674
63031SOL    HW290926   0.609   5.180  13.614
63032SOL     OW90927   0.820   1.794   6.286
63032SOL    HW190928   0.770   1.734   6.231
63032SOL    HW290929   0.908   1.792   6.249
63033SOL     OW90930  10.344   4.149   4.079
63033SOL    HW190931  10.334   4.134   4.173
63033SOL    HW290932  10.430   4.112   4.059
63034SOL     OW90933   1.514  11.546   1.795
63034SOL    HW190934   1.505  11.454   1.770
63034SOL    HW290935   1.424  11.577   1.803
63035SOL     OW90936   7.888  13.345   5.926
63035SOL    HW190937   7.868  13.269   5.981
63035SOL    HW290938   7.973  13.376   5.957
63036SOL     OW90939   9.691   0.483   2.001
63036SOL    HW190940   9.752   0.555   2.017
63036SOL    HW290941   9.649   0.467   2.085
63037SOL     OW90942  14.085   8.224   1.910
63037SOL    HW190943  14.168   8.243   1.954
63037SOL    HW290944  14.070   8.300   1.854
63038SOL     OW90945   5.423   3.934  12.017
63038SOL    HW190946   5.346   3.964  12.066
63038SOL    HW290947   5.481   4.010  12.013
63039SOL     OW90948  11.859  12.162   6.686
63039SOL    HW190949  11.903  12.217   6.751
63039SOL    HW290950  11.788  12.120   6.734
63040SOL     OW90951   9.660   6.398   7.725
63040SOL    HW190952   9.609   6.477   7.711
63040SOL    HW290953   9.660   6.387   7.820
63041SOL     OW90954   7.927  12.009  13.577
63041SOL    HW190955   8.015  12.022  13.540
63041SOL    HW290956   7.912  12.088  13.629
63042SOL     OW90957   3.185   8.225   5.862
63042SOL    HW190958   3.242   8.275   5.920
63042SOL    HW290959   3.115   8.286   5.839
63043SOL     OW90960   8.855   8.874   0.078
63043SOL    HW190961   8.925   8.886   0.014
63043SOL    HW290962   8.854   8.780   0.095
63044SOL     OW90963   2.456  14.177  14.117
63044SOL    HW190964   2.429  14.269  14.117
63044SOL    HW290965   2.424  14.143  14.034
63045SOL     OW90966   8.303  13.043  14.178
63045SOL    HW190967   8.301  13.067  14.270
63045SOL    HW290968   8.214  13.012  14.159
63046SOL     OW90969   4.894   0.558  11.967
63046SOL    HW190970   4.820   0.515  12.009
63046SOL    HW290971   4.967   0.496  11.977
63047SOL     OW90972   9.273   8.991  12.833
63047SOL    HW190973   9.196   8.964  12.782
63047SOL    HW290974   9.281   9.085  12.816
63048SOL     OW90975   5.212   7.420   3.810
63048SOL    HW190976   5.177   7.396   3.896
63048SOL    HW290977   5.269   7.494   3.827
63049SOL     OW90978   8.458   2.628  10.564
63049SOL    HW190979   8.455   2.559  10.631
63049SOL    HW290980   8.486   2.583  10.485
63050SOL     OW90981   2.523   7.536  10.693
63050SOL    HW190982   2.559   7.466  10.747
63050SOL    HW290983   2.561   7.616  10.728
63051SOL     OW90984   5.939   1.263   2.318
63051SOL    HW190985   5.924   1.300   2.405
63051SOL    HW290986   6.019   1.211   2.327
63052SOL     OW90987  14.369   3.895  14.689
63052SOL    HW190988  14.325   3.829  14.636
63052SOL    HW290989  14.306   3.917  14.758
63053SOL     OW90990   2.333   7.405  12.091
63053SOL    HW190991   2.379   7.486  12.068
63053SOL    HW290992   2.271   7.431  12.159
63054SOL     OW90993   3.964   6.170   5.881
63054SOL    HW190994   4.025   6.212   5.941
63054SOL    HW290995   3.888   6.229   5.877
63055SOL     OW90996  11.473  14.727   1.277
63055SOL    HW190997  11.560  14.737   1.239
63055SOL    HW290998  11.429  14.810   1.257
63056SOL     OW90999  11.613   1.242   1.043
63056SOL    HW191000  11.584   1.231   1.133
63056SOL    HW291001  11.634   1.335   1.035
63057SOL     OW91002   0.984  12.230   1.301
63057SOL    HW191003   1.046  12.188   1.361
63057SOL    HW291004   1.034  12.244   1.220
63058SOL     OW91005   1.862  11.103   7.386
63058SOL    HW191006   1.771  11.078   7.372
63058SOL    HW291007   1.899  11.031   7.436
63059SOL     OW91008   3.231   5.598  13.424
63059SOL    HW191009   3.209   5.506  13.440
63059SOL    HW291010   3.294   5.595  13.351
63060SOL     OW91011   0.767   2.418   2.001
63060SOL    HW191012   0.731   2.397   1.915
63060SOL    HW291013   0.860   2.435   1.985
63061SOL     OW91014   5.584   0.331   3.582
63061SOL    HW191015   5.654   0.376   3.535
63061SOL    HW291016   5.620   0.315   3.670
63062SOL     OW91017   9.927  13.011   0.865
63062SOL    HW191018   9.981  12.941   0.902
63062SOL    HW291019   9.974  13.039   0.787
63063SOL     OW91020  10.547   0.999  10.599
63063SOL    HW191021  10.550   1.026  10.691
63063SOL    HW291022  10.633   0.959  10.583
63064SOL     OW91023   7.203   0.980   6.070
63064SOL    HW191024   7.125   0.997   6.017
63064SOL    HW291025   7.184   0.898   6.116
63065SOL     OW91026   7.211  14.602   5.024
63065SOL    HW191027   7.151  14.529   5.008
63065SOL    HW291028   7.298  14.565   5.007
63066SOL     OW91029   0.135   2.131  11.655
63066SOL    HW191030   0.165   2.079  11.581
63066SOL    HW291031   0.058   2.177  11.623
63067SOL     OW91032   2.174   2.555   6.303
63067SOL    HW191033   2.106   2.507   6.352
63067SOL    HW291034   2.181   2.508   6.220
63068SOL     OW91035  12.989   2.176   5.720
63068SOL    HW191036  13.083   2.176   5.701
63068SOL    HW291037  12.966   2.268   5.734
63069SOL     OW91038   7.047   8.552   8.367
63069SOL    HW191039   7.023   8.495   8.294
63069SOL    HW291040   7.070   8.492   8.438
63070SOL     OW91041  10.319   2.790  14.493
63070SOL    HW191042  10.304   2.850  14.420
63070SOL    HW291043  10.300   2.841  14.571
63071SOL     OW91044  11.943   9.077  14.688
63071SOL    HW191045  11.980   9.092  14.601
63071SOL    HW291046  11.868   9.020  14.672
63072SOL     OW91047   5.695  11.139   7.138
63072SOL    HW191048   5.760  11.159   7.205
63072SOL    HW291049   5.731  11.177   7.058
63073SOL     OW91050  14.721  11.296   2.886
63073SOL    HW191051  14.666  11.331   2.956
63073SOL    HW291052  14.711  11.201   2.894
63074SOL     OW91053   5.980  12.467   7.503
63074SOL    HW191054   5.884  12.468   7.512
63074SOL    HW291055   6.006  12.556   7.526
63075SOL     OW91056  14.364   7.396   0.308
63075SOL    HW191057  14.306   7.425   0.238
63075SOL    HW291058  14.312   7.334   0.358
63076SOL     OW91059  10.069   1.803   0.740
63076SOL    HW191060  10.019   1.790   0.660
63076SOL    HW291061  10.053   1.725   0.792
63077SOL     OW91062  12.721   8.935   0.845
63077SOL    HW191063  12.649   8.982   0.803
63077SOL    HW291064  12.690   8.918   0.934
63078SOL     OW91065   8.944  10.077  12.331
63078SOL    HW191066   8.852  10.051  12.337
63078SOL    HW291067   8.952  10.149  12.393
63079SOL     OW91068  11.182   0.820   6.163
63079SOL    HW191069  11.201   0.860   6.079
63079SOL    HW291070  11.181   0.893   6.225
63080SOL     OW91071   3.281  10.103   0.232
63080SOL    HW191072   3.307  10.070   0.146
63080SOL    HW291073   3.362  10.105   0.282
63081SOL     OW91074   1.615   6.875   6.125
63081SOL    HW191075   1.619   6.897   6.032
63081SOL    HW291076   1.677   6.803   6.136
63082SOL     OW91077   5.768   2.893   3.324
63082SOL    HW191078   5.728   2.969   3.284
63082SOL    HW291079   5.694   2.839   3.353
63083SOL     OW91080   3.514   1.862   5.889
63083SOL    HW191081   3.554   1.946   5.906
63083SOL    HW291082   3.542   1.806   5.962
63084SOL     OW91083   7.561   9.349  14.600
63084SOL    HW191084   7.596   9.286  14.538
63084SOL    HW291085   7.602   9.326  14.684
63085SOL     OW91086   3.568   3.008   3.677
63085SOL    HW191087   3.595   3.099   3.689
63085SOL    HW291088   3.614   2.979   3.599
63086SOL     OW91089  10.558   4.063   7.097
63086SOL    HW191090  10.646   4.058   7.058
63086SOL    HW291091  10.557   4.145   7.145
63087SOL     OW91092   8.216   5.713   0.597
63087SOL    HW191093   8.245   5.731   0.507
63087SOL    HW291094   8.297   5.711   0.648
63088SOL     OW91095  11.010  10.468   4.437
63088SOL    HW191096  10.988  10.383   4.400
63088SOL    HW291097  10.965  10.531   4.381
63089SOL     OW91098   4.492   0.891  13.468
63089SOL    HW191099   4.543   0.951  13.522
63089SOL    HW291100   4.462   0.945  13.395
63090SOL     OW91101  13.672   5.784   3.751
63090SOL    HW191102  13.606   5.805   3.817
63090SOL    HW291103  13.628   5.800   3.668
63091SOL     OW91104   7.769  12.124   1.103
63091SOL    HW191105   7.829  12.164   1.166
63091SOL    HW291106   7.824  12.096   1.031
63092SOL     OW91107  12.709   5.529  11.217
63092SOL    HW191108  12.642   5.564  11.158
63092SOL    HW291109  12.725   5.599  11.279
63093SOL     OW91110   9.870  11.269   7.915
63093SOL    HW191111   9.963  11.271   7.938
63093SOL    HW291112   9.858  11.344   7.857
63094SOL     OW91113   9.609  10.255   3.187
63094SOL    HW191114   9.636  10.207   3.266
63094SOL    HW291115   9.553  10.193   3.140
63095SOL     OW91116   5.363   7.197  13.614
63095SOL    HW191117   5.419   7.127  13.581
63095SOL    HW291118   5.317   7.159  13.689
63096SOL     OW91119  13.099   2.543   9.290
63096SOL    HW191120  13.088   2.632   9.258
63096SOL    HW291121  13.052   2.489   9.226
63097SOL     OW91122  14.513   0.202   4.845
63097SOL    HW191123  14.550   0.120   4.877
63097SOL    HW291124  14.421   0.182   4.828
63098SOL     OW91125   7.821   3.251   7.284
63098SOL    HW191126   7.793   3.340   7.263
63098SOL    HW291127   7.803   3.242   7.377
63099SOL     OW91128   7.472   0.528   3.037
63099SOL    HW191129   7.464   0.454   3.097
63099SOL    HW291130   7.550   0.575   3.067
63100SOL     OW91131   8.025   8.818   3.352
63100SOL    HW191132   8.080   8.883   3.309
63100SOL    HW291133   8.040   8.831   3.446
63101SOL     OW91134  12.742   4.533   5.356
63101SOL    HW191135  12.787   4.617   5.358
63101SOL    HW291136  12.775   4.486   5.432
63102SOL     OW91137   2.474  11.427   8.141
63102SOL    HW191138   2.540  11.359   8.134
63102SOL    HW291139   2.414  11.410   8.068
63103SOL     OW91140  10.772   6.558   2.965
63103SOL    HW191141  10.743   6.544   3.055
63103SOL    HW291142  10.771   6.653   2.954
63104SOL     OW91143   8.624   1.547   7.695
63104SOL    HW191144   8.688   1.494   7.648
63104SOL    HW291145   8.580   1.598   7.628
63105SOL     OW91146  13.353   3.497  13.575
63105SOL    HW191147  13.316   3.578  13.612
63105SOL    HW291148  13.278   3.449  13.541
63106SOL     OW91149  12.940  11.659   1.912
63106SOL    HW191150  12.857  11.667   1.959
63106SOL    HW291151  12.990  11.595   1.962
63107SOL     OW91152  13.539   3.800  13.184
63107SOL    HW191153  13.609   3.785  13.248
63107SOL    HW291154  13.516   3.892  13.195
63108SOL     OW91155  13.841  11.887  14.624
63108SOL    HW191156  13.887  11.817  14.577
63108SOL    HW291157  13.842  11.961  14.564
63109SOL     OW91158  10.996  13.543  12.915
63109SOL    HW191159  10.924  13.603  12.934
63109SOL    HW291160  10.965  13.458  12.949
63110SOL     OW91161  14.712  12.574   9.272
63110SOL    HW191162  14.789  12.517   9.260
63110SOL    HW291163  14.640  12.525   9.233
63111SOL     OW91164  13.516   3.471   3.341
63111SOL    HW191165  13.488   3.381   3.358
63111SOL    HW291166  13.457   3.502   3.273
63112SOL     OW91167   3.646   1.253  11.022
63112SOL    HW191168   3.642   1.221  11.112
63112SOL    HW291169   3.616   1.180  10.968
63113SOL     OW91170   7.382  13.573   6.437
63113SOL    HW191171   7.455  13.526   6.479
63113SOL    HW291172   7.367  13.648   6.494
63114SOL     OW91173   1.792   3.338   1.433
63114SOL    HW191174   1.732   3.385   1.375
63114SOL    HW291175   1.752   3.252   1.446
63115SOL     OW91176   7.483  10.000   2.553
63115SOL    HW191177   7.567   9.962   2.579
63115SOL    HW291178   7.425   9.981   2.626
63116SOL     OW91179  12.522   9.544   3.484
63116SOL    HW191180  12.482   9.584   3.561
63116SOL    HW291181  12.486   9.455   3.482
63117SOL     OW91182   5.773   2.153   1.172
63117SOL    HW191183   5.828   2.200   1.234
63117SOL    HW291184   5.810   2.065   1.169
63118SOL     OW91185   2.658   7.195   6.629
63118SOL    HW191186   2.685   7.246   6.553
63118SOL    HW291187   2.598   7.253   6.676
63119SOL     OW91188  13.128   8.304   8.738
63119SOL    HW191189  13.177   8.340   8.812
63119SOL    HW291190  13.057   8.367   8.723
63120SOL     OW91191  10.908   6.125  13.869
63120SOL    HW191192  10.851   6.120  13.793
63120SOL    HW291193  10.945   6.037  13.877
63121SOL     OW91194   8.515   6.729   4.854
63121SOL    HW191195   8.475   6.642   4.847
63121SOL    HW291196   8.520   6.760   4.764
63122SOL     OW91197  10.601   1.417   7.808
63122SOL    HW191198  10.539   1.361   7.763
63122SOL    HW291199  10.654   1.358   7.861
63123SOL     OW91200   8.905   9.213   7.791
63123SOL    HW191201   8.942   9.293   7.754
63123SOL    HW291202   8.850   9.178   7.721
63124SOL     OW91203  14.856  11.440  10.845
63124SOL    HW191204   0.045  11.418  10.785
63124SOL    HW291205  14.882  11.524  10.883
63125SOL     OW91206   3.058  12.213   4.611
63125SOL    HW191207   3.143  12.181   4.582
63125SOL    HW291208   2.997  12.189   4.541
63126SOL     OW91209  10.706  10.584  14.869
63126SOL    HW191210  10.621  10.538  14.868
63126SOL    HW291211  10.683  10.677  14.867
63127SOL     OW91212   9.967   0.141   2.951
63127SOL    HW191213   9.899   0.111   3.010
63127SOL    HW291214  10.036   0.175   3.008
63128SOL     OW91215   6.412   9.536   9.303
63128SOL    HW191216   6.357   9.554   9.228
63128SOL    HW291217   6.394   9.607   9.364
63129SOL     OW91218   1.920   3.907   0.436
63129SOL    HW191219   1.938   3.967   0.509
63129SOL    HW291220   1.826   3.919   0.419
63130SOL     OW91221   2.527   3.109   7.684
63130SOL    HW191222   2.521   3.027   7.636
63130SOL    HW291223   2.614   3.108   7.724
63131SOL     OW91224  14.755   2.397   0.214
63131SOL    HW191225  14.759   2.315   0.165
63131SOL    HW291226  14.752   2.370   0.306
63132SOL     OW91227   5.078   4.826  12.795
63132SOL    HW191228   5.090   4.737  12.761
63132SOL    HW291229   5.160   4.871  12.772
63133SOL     OW91230   4.666  12.616   2.498
63133SOL    HW191231   4.745  12.657   2.462
63133SOL    HW291232   4.683  12.522   2.490
63134SOL     OW91233  12.002   2.685   4.300
63134SOL    HW191234  11.992   2.623   4.228
63134SOL    HW291235  11.955   2.763   4.272
63135SOL     OW91236  12.592   1.900  14.157
63135SOL    HW191237  12.595   1.862  14.069
63135SOL    HW291238  12.684   1.913  14.180
63136SOL     OW91239   4.769   7.478   7.669
63136SOL    HW191240   4.744   7.562   7.631
63136SOL    HW291241   4.696   7.419   7.651
63137SOL     OW91242   2.936  14.438   3.760
63137SOL    HW191243   2.947  14.434   3.855
63137SOL    HW291244   2.921  14.348   3.733
63138SOL     OW91245   8.366  10.370   0.871
63138SOL    HW191246   8.445  10.316   0.877
63138SOL    HW291247   8.397  10.455   0.839
63139SOL     OW91248   0.588   2.642  12.693
63139SOL    HW191249   0.680   2.628  12.673
63139SOL    HW291250   0.586   2.656  12.788
63140SOL     OW91251   5.003  14.406   8.146
63140SOL    HW191252   5.012  14.319   8.184
63140SOL    HW291253   4.966  14.459   8.216
63141SOL     OW91254   7.932   0.445  14.700
63141SOL    HW191255   7.934   0.465  14.794
63141SOL    HW291256   7.998   0.377  14.688
63142SOL     OW91257   9.164   7.107  12.093
63142SOL    HW191258   9.070   7.123  12.089
63142SOL    HW291259   9.171   7.012  12.108
63143SOL     OW91260   3.961  13.588   2.393
63143SOL    HW191261   3.951  13.567   2.486
63143SOL    HW291262   4.017  13.518   2.359
63144SOL     OW91263   4.444   8.938   9.289
63144SOL    HW191264   4.442   8.935   9.194
63144SOL    HW291265   4.533   8.910   9.312
63145SOL     OW91266   8.201   2.892   8.758
63145SOL    HW191267   8.177   2.852   8.842
63145SOL    HW291268   8.125   2.877   8.702
63146SOL     OW91269   9.928  12.340  11.412
63146SOL    HW191270   9.906  12.379  11.326
63146SOL    HW291271  10.004  12.389  11.441
63147SOL     OW91272   0.566   4.802   6.575
63147SOL    HW191273   0.627   4.732   6.552
63147SOL    HW291274   0.621   4.878   6.592
63148SOL     OW91275   4.854   1.661  10.672
63148SOL    HW191276   4.925   1.613  10.629
63148SOL    HW291277   4.891   1.688  10.756
63149SOL     OW91278   7.173  11.101   2.178
63149SOL    HW191279   7.257  11.082   2.135
63149SOL    HW291280   7.159  11.194   2.161
63150SOL     OW91281   2.725   1.312   7.245
63150SOL    HW191282   2.769   1.369   7.308
63150SOL    HW291283   2.794   1.256   7.210
63151SOL     OW91284  13.221   9.487   1.438
63151SOL    HW191285  13.136   9.505   1.480
63151SOL    HW291286  13.282   9.475   1.511
63152SOL     OW91287   3.356  13.231   0.662
63152SOL    HW191288   3.410  13.305   0.634
63152SOL    HW291289   3.353  13.173   0.586
63153SOL     OW91290  10.090   1.395   7.150
63153SOL    HW191291  10.017   1.448   7.181
63153SOL    HW291292  10.157   1.459   7.124
63154SOL     OW91293  14.876   7.642  10.108
63154SOL    HW191294   0.037   7.709  10.055
63154SOL    HW291295  14.832   7.586  10.043
63155SOL     OW91296   6.144   5.851   9.276
63155SOL    HW191297   6.067   5.890   9.236
63155SOL    HW291298   6.173   5.785   9.214
63156SOL     OW91299  13.301  11.204  13.139
63156SOL    HW191300  13.365  11.134  13.125
63156SOL    HW291301  13.218  11.167  13.110
63157SOL     OW91302  10.208   3.199   5.365
63157SOL    HW191303  10.292   3.217   5.407
63157SOL    HW291304  10.229   3.191   5.272
63158SOL     OW91305   2.516  10.447  11.393
63158SOL    HW191306   2.438  10.416  11.438
63158SOL    HW291307   2.560  10.367  11.364
63159SOL     OW91308   3.871   5.965   1.528
63159SOL    HW191309   3.836   5.913   1.600
63159SOL    HW291310   3.954   6.000   1.562
63160SOL     OW91311   5.965  11.750   2.737
63160SOL    HW191312   6.000  11.822   2.790
63160SOL    HW291313   5.881  11.729   2.777
63161SOL     OW91314   6.563   0.718   2.783
63161SOL    HW191315   6.514   0.686   2.707
63161SOL    HW291316   6.567   0.813   2.771
63162SOL     OW91317   1.452   1.054   8.546
63162SOL    HW191318   1.466   0.959   8.544
63162SOL    HW291319   1.540   1.091   8.547
63163SOL     OW91320   9.163   2.300   6.345
63163SOL    HW191321   9.157   2.363   6.273
63163SOL    HW291322   9.075   2.297   6.382
63164SOL     OW91323   3.398   1.124   9.913
63164SOL    HW191324   3.313   1.166   9.926
63164SOL    HW291325   3.410   1.124   9.818
63165SOL     OW91326   7.181   8.336  14.575
63165SOL    HW191327   7.262   8.289  14.596
63165SOL    HW291328   7.208   8.405  14.514
63166SOL     OW91329  14.753   4.617   0.778
63166SOL    HW191330  14.836   4.594   0.736
63166SOL    HW291331  14.744   4.711   0.764
63167SOL     OW91332   8.153  13.539  14.292
63167SOL    HW191333   8.166  13.515  14.383
63167SOL    HW291334   8.133  13.457  14.247
63168SOL     OW91335   9.005   4.623  12.703
63168SOL    HW191336   9.066   4.607  12.775
63168SOL    HW291337   8.959   4.540  12.691
63169SOL     OW91338   2.089  10.511  14.474
63169SOL    HW191339   2.067  10.599  14.443
63169SOL    HW291340   2.123  10.525  14.562
63170SOL     OW91341   0.821   1.715   5.687
63170SOL    HW191342   0.809   1.736   5.594
63170SOL    HW291343   0.911   1.683   5.692
63171SOL     OW91344   1.324   0.840  10.591
63171SOL    HW191345   1.395   0.815  10.531
63171SOL    HW291346   1.297   0.926  10.561
63172SOL     OW91347   4.229   7.762  12.033
63172SOL    HW191348   4.197   7.743  11.945
63172SOL    HW291349   4.300   7.825  12.020
63173SOL     OW91350   1.780  10.852   4.218
63173SOL    HW191351   1.716  10.780   4.215
63173SOL    HW291352   1.865  10.809   4.222
63174SOL     OW91353   2.899  14.206   7.832
63174SOL    HW191354   2.889  14.294   7.869
63174SOL    HW291355   2.890  14.218   7.738
63175SOL     OW91356   5.967   6.055  10.861
63175SOL    HW191357   5.996   6.070  10.951
63175SOL    HW291358   6.017   6.118  10.809
63176SOL     OW91359  10.818  11.107  10.009
63176SOL    HW191360  10.866  11.189  10.014
63176SOL    HW291361  10.886  11.040   9.998
63177SOL     OW91362  12.493   0.079   8.009
63177SOL    HW191363  12.428   0.145   8.033
63177SOL    HW291364  12.474   0.004   8.066
63178SOL     OW91365   6.300  13.030   7.252
63178SOL    HW191366   6.323  13.009   7.161
63178SOL    HW291367   6.308  13.125   7.257
63179SOL     OW91368   7.211   2.028  13.528
63179SOL    HW191369   7.157   2.098  13.562
63179SOL    HW291370   7.299   2.046  13.562
63180SOL     OW91371  12.695   2.619   9.105
63180SOL    HW191372  12.606   2.650   9.120
63180SOL    HW291373  12.696   2.596   9.012
63181SOL     OW91374   0.837   8.077   2.754
63181SOL    HW191375   0.835   7.996   2.804
63181SOL    HW291376   0.930   8.094   2.739
63182SOL     OW91377   3.180  10.841  14.173
63182SOL    HW191378   3.155  10.926  14.135
63182SOL    HW291379   3.226  10.864  14.254
63183SOL     OW91380   5.084   3.685   9.563
63183SOL    HW191381   5.059   3.621   9.496
63183SOL    HW291382   5.084   3.635   9.645
63184SOL     OW91383   7.737   3.997  13.964
63184SOL    HW191384   7.672   3.979  13.896
63184SOL    HW291385   7.685   4.014  14.043
63185SOL     OW91386   3.084  11.544  11.594
63185SOL    HW191387   3.121  11.462  11.624
63185SOL    HW291388   3.004  11.519  11.547
63186SOL     OW91389  11.724   7.020  14.847
63186SOL    HW191390  11.723   7.064   0.050
63186SOL    HW291391  11.637   6.981  14.840
63187SOL     OW91392   1.016   7.956   3.429
63187SOL    HW191393   0.953   8.027   3.420
63187SOL    HW291394   1.089   7.994   3.478
63188SOL     OW91395  13.511   5.663   2.788
63188SOL    HW191396  13.529   5.638   2.878
63188SOL    HW291397  13.424   5.627   2.769
63189SOL     OW91398   4.239  14.771   9.623
63189SOL    HW191399   4.224  14.845   9.681
63189SOL    HW291400   4.202  14.696   9.670
63190SOL     OW91401  12.077   6.478  13.308
63190SOL    HW191402  11.998   6.477  13.254
63190SOL    HW291403  12.060   6.415  13.377
63191SOL     OW91404  14.688   9.180   7.951
63191SOL    HW191405  14.593   9.185   7.945
63191SOL    HW291406  14.718   9.271   7.942
63192SOL     OW91407   6.370   7.045   2.104
63192SOL    HW191408   6.449   7.098   2.114
63192SOL    HW291409   6.349   7.051   2.011
63193SOL     OW91410   8.212   5.829   7.274
63193SOL    HW191411   8.145   5.830   7.343
63193SOL    HW291412   8.295   5.836   7.322
63194SOL     OW91413   8.992  10.281   6.537
63194SOL    HW191414   8.912  10.273   6.485
63194SOL    HW291415   8.969  10.342   6.607
63195SOL     OW91416   2.200   8.891   0.644
63195SOL    HW191417   2.119   8.919   0.600
63195SOL    HW291418   2.252   8.851   0.575
63196SOL     OW91419  13.918   8.775  11.067
63196SOL    HW191420  13.968   8.698  11.041
63196SOL    HW291421  13.899   8.820  10.984
63197SOL     OW91422   0.443  10.956   0.942
63197SOL    HW191423   0.349  10.966   0.929
63197SOL    HW291424   0.480  11.040   0.918
63198SOL     OW91425  13.626   7.364   9.361
63198SOL    HW191426  13.567   7.308   9.410
63198SOL    HW291427  13.704   7.311   9.345
63199SOL     OW91428   9.706   3.695  11.392
63199SOL    HW191429   9.662   3.697  11.477
63199SOL    HW291430   9.639   3.725  11.330
63200SOL     OW91431   5.288   8.616   1.346
63200SOL    HW191432   5.357   8.556   1.317
63200SOL    HW291433   5.322   8.654   1.427
63201SOL     OW91434  12.958  10.085   4.944
63201SOL    HW191435  12.964  10.075   5.039
63201SOL    HW291436  12.929  10.175   4.931
63202SOL     OW91437   0.318   1.740   9.930
63202SOL    HW191438   0.254   1.732  10.000
63202SOL    HW291439   0.383   1.673   9.949
63203SOL     OW91440  13.668   5.083  14.078
63203SOL    HW191441  13.732   5.115  14.015
63203SOL    HW291442  13.638   5.000  14.041
63204SOL     OW91443   6.938  14.467  12.817
63204SOL    HW191444   6.984  14.511  12.889
63204SOL    HW291445   6.940  14.374  12.840
63205SOL     OW91446   4.986   1.820  12.359
63205SOL    HW191447   5.037   1.783  12.431
63205SOL    HW291448   4.903   1.845  12.399
63206SOL     OW91449  14.832  12.484   4.408
63206SOL    HW191450  14.865  12.559   4.456
63206SOL    HW291451  14.860  12.500   4.317
63207SOL     OW91452   5.443   5.829  14.812
63207SOL    HW191453   5.410   5.920  14.813
63207SOL    HW291454   5.375   5.781  14.764
63208SOL     OW91455   0.561  14.875   8.317
63208SOL    HW191456   0.482  14.854   8.367
63208SOL    HW291457   0.626   0.016   8.383
63209SOL     OW91458   1.917   0.856  13.601
63209SOL    HW191459   2.008   0.869  13.573
63209SOL    HW291460   1.870   0.931  13.563
63210SOL     OW91461  13.621   9.524   8.035
63210SOL    HW191462  13.573   9.472   7.970
63210SOL    HW291463  13.577   9.608   8.037
63211SOL     OW91464   0.729   5.378   0.651
63211SOL    HW191465   0.722   5.457   0.598
63211SOL    HW291466   0.783   5.403   0.726
63212SOL     OW91467  11.395   3.578   8.872
63212SOL    HW191468  11.363   3.630   8.945
63212SOL    HW291469  11.491   3.579   8.881
63213SOL     OW91470  12.185   7.477   9.657
63213SOL    HW191471  12.114   7.460   9.719
63213SOL    HW291472  12.264   7.480   9.712
63214SOL     OW91473  13.470  12.797   1.436
63214SOL    HW191474  13.521  12.838   1.506
63214SOL    HW291475  13.382  12.834   1.447
63215SOL     OW91476   3.134  14.777  14.037
63215SOL    HW191477   3.216  14.746  14.076
63215SOL    HW291478   3.107  14.706  13.978
63216SOL     OW91479   6.321   8.196  12.866
63216SOL    HW191480   6.286   8.285  12.861
63216SOL    HW291481   6.324   8.166  12.775
63217SOL     OW91482   2.117  10.327  11.799
63217SOL    HW191483   2.043  10.319  11.860
63217SOL    HW291484   2.076  10.331  11.712
63218SOL     OW91485  14.015   4.707   4.130
63218SOL    HW191486  14.096   4.723   4.178
63218SOL    HW291487  13.983   4.795   4.108
63219SOL     OW91488  11.927   9.676   3.468
63219SOL    HW191489  11.968   9.666   3.554
63219SOL    HW291490  12.000   9.685   3.407
63220SOL     OW91491   3.768  14.788  12.937
63220SOL    HW191492   3.852  14.830  12.959
63220SOL    HW291493   3.790  14.696  12.926
63221SOL     OW91494   7.704  10.751  10.847
63221SOL    HW191495   7.660  10.775  10.765
63221SOL    HW291496   7.657  10.800  10.915
63222SOL     OW91497   4.728   4.934   1.207
63222SOL    HW191498   4.810   4.893   1.234
63222SOL    HW291499   4.664   4.907   1.274
63223SOL     OW91500   3.209   7.242   8.422
63223SOL    HW191501   3.146   7.247   8.350
63223SOL    HW291502   3.293   7.227   8.378
63224SOL     OW91503   8.842   3.736  12.576
63224SOL    HW191504   8.840   3.831  12.579
63224SOL    HW291505   8.774   3.708  12.638
63225SOL     OW91506   2.065  12.609  12.439
63225SOL    HW191507   2.069  12.581  12.347
63225SOL    HW291508   1.988  12.565  12.474
63226SOL     OW91509   6.750   2.000   2.280
63226SOL    HW191510   6.747   1.904   2.286
63226SOL    HW291511   6.670   2.030   2.323
63227SOL     OW91512   2.231  13.914  10.059
63227SOL    HW191513   2.175  13.883   9.987
63227SOL    HW291514   2.320  13.896  10.030
63228SOL     OW91515   2.282   8.287   2.096
63228SOL    HW191516   2.195   8.293   2.135
63228SOL    HW291517   2.313   8.377   2.092
63229SOL     OW91518  12.744   2.763   8.732
63229SOL    HW191519  12.654   2.738   8.709
63229SOL    HW291520  12.736   2.854   8.761
63230SOL     OW91521   0.432  10.924  12.662
63230SOL    HW191522   0.370  10.882  12.721
63230SOL    HW291523   0.512  10.932  12.714
63231SOL     OW91524   7.264   1.052   3.508
63231SOL    HW191525   7.291   1.018   3.423
63231SOL    HW291526   7.343   1.089   3.546
63232SOL     OW91527   5.473  14.772   5.592
63232SOL    HW191528   5.483  14.692   5.644
63232SOL    HW291529   5.498  14.745   5.503
63233SOL     OW91530   9.388  13.930  10.819
63233SOL    HW191531   9.435  13.856  10.859
63233SOL    HW291532   9.375  13.992  10.890
63234SOL     OW91533   6.751  12.044   1.092
63234SOL    HW191534   6.690  11.971   1.087
63234SOL    HW291535   6.822  12.020   1.033
63235SOL     OW91536  13.568   0.507   9.379
63235SOL    HW191537  13.526   0.558   9.448
63235SOL    HW291538  13.606   0.572   9.320
63236SOL     OW91539   8.291   3.686  11.423
63236SOL    HW191540   8.286   3.653  11.513
63236SOL    HW291541   8.316   3.778  11.432
63237SOL     OW91542  10.787   3.262   1.169
63237SOL    HW191543  10.692   3.263   1.170
63237SOL    HW291544  10.811   3.212   1.248
63238SOL     OW91545   0.274   7.803   7.166
63238SOL    HW191546   0.267   7.710   7.144
63238SOL    HW291547   0.311   7.843   7.088
63239SOL     OW91548   2.520  12.713   7.412
63239SOL    HW191549   2.530  12.722   7.507
63239SOL    HW291550   2.562  12.630   7.391
63240SOL     OW91551   0.972   9.761   3.095
63240SOL    HW191552   0.952   9.670   3.076
63240SOL    HW291553   1.052   9.758   3.148
63241SOL     OW91554   6.794   0.008  12.212
63241SOL    HW191555   6.808  14.814  12.154
63241SOL    HW291556   6.702  14.882  12.239
63242SOL     OW91557   4.950   5.237  12.507
63242SOL    HW191558   4.986   5.154  12.540
63242SOL    HW291559   5.004   5.258  12.431
63243SOL     OW91560   8.617   4.585   8.417
63243SOL    HW191561   8.693   4.603   8.361
63243SOL    HW291562   8.542   4.591   8.359
63244SOL     OW91563   5.870   6.110  11.777
63244SOL    HW191564   5.917   6.112  11.861
63244SOL    HW291565   5.909   6.181  11.726
63245SOL     OW91566   5.521   2.847  14.606
63245SOL    HW191567   5.540   2.891  14.689
63245SOL    HW291568   5.602   2.856  14.555
63246SOL     OW91569   7.213  13.542   2.501
63246SOL    HW191570   7.140  13.525   2.441
63246SOL    HW291571   7.292  13.529   2.449
63247SOL     OW91572   4.455  14.783   7.469
63247SOL    HW191573   4.526  14.806   7.530
63247SOL    HW291574   4.495  14.721   7.409
63248SOL     OW91575   9.006   3.630   7.714
63248SOL    HW191576   9.038   3.541   7.695
63248SOL    HW291577   9.037   3.647   7.803
63249SOL     OW91578  10.689   1.036   8.155
63249SOL    HW191579  10.661   0.953   8.119
63249SOL    HW291580  10.664   1.033   8.247
63250SOL     OW91581   0.182   0.529   0.626
63250SOL    HW191582   0.161   0.440   0.597
63250SOL    HW291583   0.117   0.584   0.581
63251SOL     OW91584   7.524   9.783   0.198
63251SOL    HW191585   7.514   9.711   0.135
63251SOL    HW291586   7.454   9.844   0.176
63252SOL     OW91587   5.795  11.835   9.279
63252SOL    HW191588   5.780  11.883   9.360
63252SOL    HW291589   5.887  11.808   9.284
63253SOL     OW91590   9.625   8.021   7.117
63253SOL    HW191591   9.682   7.951   7.148
63253SOL    HW291592   9.554   8.024   7.181
63254SOL     OW91593   1.302  12.030  10.525
63254SOL    HW191594   1.367  12.099  10.540
63254SOL    HW291595   1.315  12.004  10.434
63255SOL     OW91596   2.305  14.215  13.773
63255SOL    HW191597   2.281  14.122  13.774
63255SOL    HW291598   2.398  14.216  13.793
63256SOL     OW91599   0.723   1.916  13.446
63256SOL    HW191600   0.767   1.881  13.523
63256SOL    HW291601   0.746   2.009  13.444
63257SOL     OW91602   7.862   9.569  10.273
63257SOL    HW191603   7.848   9.589  10.365
63257SOL    HW291604   7.787   9.610  10.228
63258SOL     OW91605   7.873   7.843   5.067
63258SOL    HW191606   7.893   7.927   5.108
63258SOL    HW291607   7.805   7.805   5.123
63259SOL     OW91608  13.835  11.296   6.106
63259SOL    HW191609  13.844  11.273   6.014
63259SOL    HW291610  13.924  11.317   6.135
63260SOL     OW91611   8.086   5.153  10.170
63260SOL    HW191612   8.153   5.214  10.200
63260SOL    HW291613   8.103   5.141  10.077
63261SOL     OW91614   2.549  10.773   7.899
63261SOL    HW191615   2.561  10.737   7.987
63261SOL    HW291616   2.518  10.699   7.847
63262SOL     OW91617  10.977   9.094   9.440
63262SOL    HW191618  10.884   9.107   9.420
63262SOL    HW291619  11.001   9.015   9.392
63263SOL     OW91620  13.621   5.537   1.310
63263SOL    HW191621  13.653   5.552   1.221
63263SOL    HW291622  13.534   5.577   1.311
63264SOL     OW91623   1.952  12.303   1.316
63264SOL    HW191624   2.019  12.292   1.384
63264SOL    HW291625   1.887  12.236   1.336
63265SOL     OW91626   0.529  13.678   1.273
63265SOL    HW191627   0.538  13.585   1.294
63265SOL    HW291628   0.442  13.686   1.235
63266SOL     OW91629   2.239  12.322  13.151
63266SOL    HW191630   2.269  12.410  13.131
63266SOL    HW291631   2.175  12.334  13.222
63267SOL     OW91632   0.351  12.649  13.067
63267SOL    HW191633   0.315  12.584  13.007
63267SOL    HW291634   0.356  12.603  13.151
63268SOL     OW91635  14.679   6.241   0.501
63268SOL    HW191636  14.665   6.327   0.461
63268SOL    HW291637  14.684   6.181   0.427
63269SOL     OW91638   4.887   5.795   2.240
63269SOL    HW191639   4.809   5.793   2.295
63269SOL    HW291640   4.928   5.710   2.253
63270SOL     OW91641   6.602  11.239  13.591
63270SOL    HW191642   6.576  11.147  13.584
63270SOL    HW291643   6.578  11.278  13.507
63271SOL     OW91644  11.026   1.952   1.871
63271SOL    HW191645  11.082   1.916   1.802
63271SOL    HW291646  11.077   2.023   1.909
63272SOL     OW91647   3.834  11.571   9.445
63272SOL    HW191648   3.864  11.503   9.506
63272SOL    HW291649   3.744  11.546   9.423
63273SOL     OW91650   8.730   1.133  12.080
63273SOL    HW191651   8.746   1.132  11.986
63273SOL    HW291652   8.677   1.055  12.096
63274SOL     OW91653   4.338  13.670   8.298
63274SOL    HW191654   4.389  13.590   8.282
63274SOL    HW291655   4.373  13.704   8.381
63275SOL     OW91656  12.233   5.730   8.960
63275SOL    HW191657  12.268   5.773   9.038
63275SOL    HW291658  12.181   5.797   8.917
63276SOL     OW91659  14.032   8.184   2.974
63276SOL    HW191660  14.041   8.130   3.052
63276SOL    HW291661  14.117   8.174   2.929
63277SOL     OW91662   7.793   1.517   9.505
63277SOL    HW191663   7.865   1.455   9.513
63277SOL    HW291664   7.829   1.590   9.454
63278SOL     OW91665   5.289  12.743   9.645
63278SOL    HW191666   5.193  12.733   9.647
63278SOL    HW291667   5.308  12.804   9.716
63279SOL     OW91668   3.708  10.268   9.317
63279SOL    HW191669   3.677  10.177   9.313
63279SOL    HW291670   3.665  10.304   9.395
63280SOL     OW91671  13.094  14.648  12.864
63280SOL    HW191672  13.139  14.582  12.811
63280SOL    HW291673  13.045  14.700  12.801
63281SOL     OW91674   4.555   5.158  14.828
63281SOL    HW191675   4.501   5.198   0.014
63281SOL    HW291676   4.539   5.211  14.750
63282SOL     OW91677  10.125   3.372   4.099
63282SOL    HW191678  10.166   3.336   4.178
63282SOL    HW291679  10.156   3.315   4.028
63283SOL     OW91680  13.745   3.350   2.377
63283SOL    HW191681  13.761   3.328   2.468
63283SOL    HW291682  13.651   3.336   2.365
63284SOL     OW91683  12.056  11.216  11.173
63284SOL    HW191684  12.019  11.298  11.204
63284SOL    HW291685  12.075  11.231  11.081
63285SOL     OW91686   4.997  13.480   5.526
63285SOL    HW191687   5.084  13.443   5.516
63285SOL    HW291688   4.997  13.521   5.612
63286SOL     OW91689   9.992   7.209   4.532
63286SOL    HW191690   9.901   7.233   4.552
63286SOL    HW291691  10.014   7.145   4.600
63287SOL     OW91692   9.895   7.293   6.269
63287SOL    HW191693   9.930   7.371   6.311
63287SOL    HW291694   9.957   7.224   6.292
63288SOL     OW91695  12.539   6.100   7.404
63288SOL    HW191696  12.598   6.074   7.333
63288SOL    HW291697  12.521   6.193   7.388
63289SOL     OW91698   3.582   4.285   8.743
63289SOL    HW191699   3.632   4.250   8.669
63289SOL    HW291700   3.530   4.210   8.773
63290SOL     OW91701   5.398   3.656  11.367
63290SOL    HW191702   5.442   3.605  11.435
63290SOL    HW291703   5.442   3.630  11.286
63291SOL     OW91704   2.123  10.187   4.212
63291SOL    HW191705   2.086  10.099   4.210
63291SOL    HW291706   2.101  10.225   4.127
63292SOL     OW91707  12.543  10.508   9.620
63292SOL    HW191708  12.599  10.456   9.563
63292SOL    HW291709  12.598  10.579   9.650
63293SOL     OW91710   1.118   9.256  10.903
63293SOL    HW191711   1.209   9.232  10.884
63293SOL    HW291712   1.083   9.183  10.954
63294SOL     OW91713   4.364   8.239   3.991
63294SOL    HW191714   4.398   8.154   4.019
63294SOL    HW291715   4.437   8.279   3.944
63295SOL     OW91716   7.296   8.710   2.826
63295SOL    HW191717   7.323   8.699   2.917
63295SOL    HW291718   7.363   8.664   2.775
63296SOL     OW91719   6.188  10.246  13.319
63296SOL    HW191720   6.098  10.225  13.295
63296SOL    HW291721   6.198  10.211  13.408
63297SOL     OW91722   0.780  14.121   9.163
63297SOL    HW191723   0.829  14.190   9.208
63297SOL    HW291724   0.848  14.061   9.131
63298SOL     OW91725   0.613   0.479  13.781
63298SOL    HW191726   0.628   0.573  13.780
63298SOL    HW291727   0.578   0.459  13.694
63299SOL     OW91728   2.226  12.703  11.197
63299SOL    HW191729   2.231  12.689  11.102
63299SOL    HW291730   2.134  12.689  11.218
63300SOL     OW91731  14.617   0.394   9.980
63300SOL    HW191732  14.609   0.488   9.959
63300SOL    HW291733  14.548   0.378  10.044
63301SOL     OW91734  11.925   8.199   3.049
63301SOL    HW191735  11.939   8.105   3.051
63301SOL    HW291736  11.936   8.223   2.957
63302SOL     OW91737   0.640   6.223   7.950
63302SOL    HW191738   0.572   6.184   7.894
63302SOL    HW291739   0.692   6.277   7.891
63303SOL     OW91740  14.428  11.164  13.206
63303SOL    HW191741  14.438  11.194  13.115
63303SOL    HW291742  14.333  11.155  13.217
63304SOL     OW91743   5.811   2.885  11.922
63304SOL    HW191744   5.892   2.915  11.963
63304SOL    HW291745   5.744   2.896  11.989
63305SOL     OW91746  10.149   3.594   4.704
63305SOL    HW191747  10.147   3.513   4.652
63305SOL    HW291748  10.222   3.644   4.668
63306SOL     OW91749   7.105   2.823   2.062
63306SOL    HW191750   7.088   2.740   2.105
63306SOL    HW291751   7.106   2.803   1.968
63307SOL     OW91752  12.703  13.309   8.055
63307SOL    HW191753  12.639  13.275   8.117
63307SOL    HW291754  12.685  13.262   7.973
63308SOL     OW91755  14.289   5.900   2.927
63308SOL    HW191756  14.220   5.838   2.904
63308SOL    HW291757  14.283   5.968   2.860
63309SOL     OW91758  10.128  10.320   1.003
63309SOL    HW191759  10.112  10.385   0.935
63309SOL    HW291760  10.076  10.349   1.078
63310SOL     OW91761   1.974   3.988   2.830
63310SOL    HW191762   2.027   3.944   2.763
63310SOL    HW291763   2.010   4.077   2.834
63311SOL     OW91764   3.391   3.645  12.341
63311SOL    HW191765   3.320   3.666  12.281
63311SOL    HW291766   3.409   3.552  12.327
63312SOL     OW91767   1.038   1.397   6.329
63312SOL    HW191768   0.953   1.374   6.366
63312SOL    HW291769   1.091   1.423   6.404
63313SOL     OW91770   6.480   3.452  11.300
63313SOL    HW191771   6.501   3.495  11.217
63313SOL    HW291772   6.480   3.359  11.279
63314SOL     OW91773  13.103   6.511   9.415
63314SOL    HW191774  13.043   6.580   9.443
63314SOL    HW291775  13.190   6.544   9.439
63315SOL     OW91776   3.364   4.071   5.189
63315SOL    HW191777   3.459   4.063   5.188
63315SOL    HW291778   3.343   4.112   5.105
63316SOL     OW91779   2.372  10.499   4.061
63316SOL    HW191780   2.442  10.497   4.127
63316SOL    HW291781   2.291  10.494   4.111
63317SOL     OW91782   2.463   1.846   6.854
63317SOL    HW191783   2.439   1.910   6.921
63317SOL    HW291784   2.558   1.839   6.860
63318SOL     OW91785   6.615  12.886   5.398
63318SOL    HW191786   6.700  12.916   5.430
63318SOL    HW291787   6.626  12.879   5.303
63319SOL     OW91788  14.208  12.993   6.642
63319SOL    HW191789  14.219  12.958   6.554
63319SOL    HW291790  14.293  12.978   6.685
63320SOL     OW91791   4.127   1.049  14.068
63320SOL    HW191792   4.222   1.062  14.067
63320SOL    HW291793   4.108   1.000  13.988
63321SOL     OW91794  13.895  13.606  11.146
63321SOL    HW191795  13.820  13.555  11.117
63321SOL    HW291796  13.863  13.655  11.221
63322SOL     OW91797   9.663  13.223  10.602
63322SOL    HW191798   9.715  13.161  10.653
63322SOL    HW291799   9.584  13.174  10.579
63323SOL     OW91800   4.467  10.546  14.812
63323SOL    HW191801   4.414  10.564  14.736
63323SOL    HW291802   4.404  10.535   0.002
63324SOL     OW91803  11.892   2.376   8.548
63324SOL    HW191804  11.872   2.286   8.576
63324SOL    HW291805  11.891   2.372   8.453
63325SOL     OW91806   8.340  12.836   3.743
63325SOL    HW191807   8.331  12.760   3.800
63325SOL    HW291808   8.417  12.881   3.775
63326SOL     OW91809   1.135   9.489   1.112
63326SOL    HW191810   1.108   9.400   1.136
63326SOL    HW291811   1.210   9.508   1.169
63327SOL     OW91812   8.461  11.422  14.277
63327SOL    HW191813   8.390  11.370  14.241
63327SOL    HW291814   8.426  11.511  14.283
63328SOL     OW91815   8.990  11.754   2.716
63328SOL    HW191816   9.070  11.702   2.707
63328SOL    HW291817   9.003  11.803   2.797
63329SOL     OW91818   9.284   8.924  14.507
63329SOL    HW191819   9.338   8.849  14.481
63329SOL    HW291820   9.348   8.993  14.528
63330SOL     OW91821   1.375  10.351   4.287
63330SOL    HW191822   1.313  10.347   4.214
63330SOL    HW291823   1.341  10.287   4.350
63331SOL     OW91824   9.634   4.676   3.282
63331SOL    HW191825   9.670   4.592   3.253
63331SOL    HW291826   9.630   4.729   3.202
63332SOL     OW91827  14.690   0.005   8.516
63332SOL    HW191828  14.753  14.815   8.507
63332SOL    HW291829  14.744   0.085   8.513
63333SOL     OW91830  11.896   5.394  10.504
63333SOL    HW191831  11.885   5.299  10.496
63333SOL    HW291832  11.973   5.414  10.450
63334SOL     OW91833   7.862   0.209  13.111
63334SOL    HW191834   7.957   0.219  13.105
63334SOL    HW291835   7.844   0.214  13.205
63335SOL     OW91836   7.139  12.362  13.129
63335SOL    HW191837   7.230  12.386  13.143
63335SOL    HW291838   7.140  12.312  13.047
63336SOL     OW91839   6.351   5.403   7.453
63336SOL    HW191840   6.411   5.477   7.454
63336SOL    HW291841   6.407   5.326   7.462
63337SOL     OW91842  12.082   0.606   9.878
63337SOL    HW191843  12.023   0.531   9.887
63337SOL    HW291844  12.024   0.678   9.853
63338SOL     OW91845   5.002   4.121   2.537
63338SOL    HW191846   4.991   4.037   2.493
63338SOL    HW291847   4.919   4.167   2.524
63339SOL     OW91848   7.865   4.265   6.172
63339SOL    HW191849   7.843   4.358   6.169
63339SOL    HW291850   7.916   4.250   6.092
63340SOL     OW91851   1.264   4.812   4.473
63340SOL    HW191852   1.200   4.789   4.541
63340SOL    HW291853   1.347   4.819   4.520
63341SOL     OW91854   0.229   0.227   8.318
63341SOL    HW191855   0.157   0.272   8.363
63341SOL    HW291856   0.221   0.255   8.227
63342SOL     OW91857   0.697  14.852   5.465
63342SOL    HW191858   0.680  14.864   5.372
63342SOL    HW291859   0.789  14.827   5.470
63343SOL     OW91860   5.816   4.146   7.676
63343SOL    HW191861   5.750   4.099   7.624
63343SOL    HW291862   5.789   4.237   7.671
63344SOL     OW91863   2.576   9.528  10.391
63344SOL    HW191864   2.635   9.531  10.466
63344SOL    HW291865   2.555   9.619  10.372
63345SOL     OW91866  14.390   5.655   7.005
63345SOL    HW191867  14.336   5.703   7.068
63345SOL    HW291868  14.453   5.606   7.059
63346SOL     OW91869   4.382  14.873  11.929
63346SOL    HW191870   4.301  14.842  11.889
63346SOL    HW291871   4.442   0.003  11.856
63347SOL     OW91872   0.797   7.418   4.987
63347SOL    HW191873   0.713   7.463   4.977
63347SOL    HW291874   0.813   7.419   5.082
63348SOL     OW91875   2.222   9.815  14.272
63348SOL    HW191876   2.218   9.910  14.257
63348SOL    HW291877   2.132   9.790  14.293
63349SOL     OW91878  12.604   6.141  12.247
63349SOL    HW191879  12.549   6.063  12.234
63349SOL    HW291880  12.660   6.144  12.169
63350SOL     OW91881  11.125  10.722   7.235
63350SOL    HW191882  11.079  10.640   7.254
63350SOL    HW291883  11.071  10.765   7.169
63351SOL     OW91884  13.885  10.073   7.699
63351SOL    HW191885  13.830  10.150   7.688
63351SOL    HW291886  13.950  10.100   7.764
63352SOL     OW91887   6.133  12.859   5.395
63352SOL    HW191888   6.209  12.903   5.434
63352SOL    HW291889   6.064  12.869   5.461
63353SOL     OW91890   4.481   4.723  14.144
63353SOL    HW191891   4.479   4.651  14.081
63353SOL    HW291892   4.393   4.761  14.140
63354SOL     OW91893  10.567  13.841  12.153
63354SOL    HW191894  10.634  13.839  12.085
63354SOL    HW291895  10.502  13.777  12.125
63355SOL     OW91896   7.876  11.657   0.276
63355SOL    HW191897   7.890  11.747   0.246
63355SOL    HW291898   7.906  11.656   0.366
63356SOL     OW91899   4.315  10.705   9.938
63356SOL    HW191900   4.351  10.628   9.893
63356SOL    HW291901   4.271  10.755   9.868
63357SOL     OW91902   2.516   1.670  11.876
63357SOL    HW191903   2.447   1.607  11.899
63357SOL    HW291904   2.499   1.745  11.932
63358SOL     OW91905   0.245   2.568   5.030
63358SOL    HW191906   0.315   2.621   4.991
63358SOL    HW291907   0.229   2.498   4.967
63359SOL     OW91908   9.480   2.027   6.748
63359SOL    HW191909   9.567   2.009   6.713
63359SOL    HW291910   9.463   1.954   6.807
63360SOL     OW91911  10.060  11.776  13.511
63360SOL    HW191912  10.123  11.837  13.549
63360SOL    HW291913  10.101  11.746  13.430
63361SOL     OW91914   1.530   6.044   9.220
63361SOL    HW191915   1.442   6.080   9.224
63361SOL    HW291916   1.563   6.050   9.310
63362SOL     OW91917  12.280   9.959   5.511
63362SOL    HW191918  12.285  10.027   5.579
63362SOL    HW291919  12.315  10.002   5.433
63363SOL     OW91920   9.688  12.381  13.712
63363SOL    HW191921   9.622  12.390  13.643
63363SOL    HW291922   9.771  12.373  13.665
63364SOL     OW91923  12.355   1.107  14.412
63364SOL    HW191924  12.392   1.128  14.498
63364SOL    HW291925  12.271   1.066  14.432
63365SOL     OW91926   6.126   9.152  12.263
63365SOL    HW191927   6.100   9.061  12.252
63365SOL    HW291928   6.219   9.147  12.288
63366SOL     OW91929   9.477  14.676  11.665
63366SOL    HW191930   9.456  14.637  11.750
63366SOL    HW291931   9.516  14.760  11.687
63367SOL     OW91932   0.708  11.146  10.089
63367SOL    HW191933   0.764  11.193  10.151
63367SOL    HW291934   0.710  11.200  10.010
63368SOL     OW91935  11.389  13.585   7.865
63368SOL    HW191936  11.429  13.668   7.892
63368SOL    HW291937  11.393  13.530   7.943
63369SOL     OW91938   5.353   1.031   0.965
63369SOL    HW191939   5.318   1.116   0.994
63369SOL    HW291940   5.429   1.054   0.911
63370SOL     OW91941   0.452   6.921   8.735
63370SOL    HW191942   0.492   6.891   8.654
63370SOL    HW291943   0.359   6.932   8.713
63371SOL     OW91944  14.358  14.198   2.779
63371SOL    HW191945  14.388  14.151   2.858
63371SOL    HW291946  14.384  14.141   2.707
63372SOL     OW91947   2.898   0.813  13.346
63372SOL    HW191948   2.808   0.835  13.322
63372SOL    HW291949   2.891   0.779  13.435
63373SOL     OW91950  13.066   6.254   7.615
63373SOL    HW191951  12.970   6.247   7.623
63373SOL    HW291952  13.080   6.277   7.523
63374SOL     OW91953   6.296  13.204  12.434
63374SOL    HW191954   6.205  13.206  12.462
63374SOL    HW291955   6.294  13.163  12.348
63375SOL     OW91956   3.552   1.427  10.337
63375SOL    HW191957   3.518   1.346  10.300
63375SOL    HW291958   3.625   1.399  10.392
63376SOL     OW91959   0.969   2.893   7.886
63376SOL    HW191960   0.950   2.904   7.793
63376SOL    HW291961   0.988   2.981   7.917
63377SOL     OW91962   8.216   5.869  14.062
63377SOL    HW191963   8.284   5.914  14.112
63377SOL    HW291964   8.138   5.874  14.118
63378SOL     OW91965   8.979   6.766   3.492
63378SOL    HW191966   9.053   6.821   3.465
63378SOL    HW291967   8.904   6.802   3.443
63379SOL     OW91968   0.961   7.720   0.064
63379SOL    HW191969   0.983   7.813   0.073
63379SOL    HW291970   0.978   7.700  14.853
63380SOL     OW91971   1.558   9.644  13.227
63380SOL    HW191972   1.648   9.646  13.258
63380SOL    HW291973   1.542   9.732  13.193
63381SOL     OW91974   5.910   0.410   8.721
63381SOL    HW191975   5.936   0.382   8.809
63381SOL    HW291976   5.838   0.471   8.735
63382SOL     OW91977   7.028   2.340  14.647
63382SOL    HW191978   7.057   2.373  14.562
63382SOL    HW291979   7.034   2.245  14.639
63383SOL     OW91980   8.604   9.307  13.063
63383SOL    HW191981   8.509   9.314  13.060
63383SOL    HW291982   8.621   9.243  13.132
63384SOL     OW91983   2.931  14.428   6.881
63384SOL    HW191984   2.994  14.448   6.951
63384SOL    HW291985   2.846  14.447   6.921
63385SOL     OW91986   7.988  12.321   9.208
63385SOL    HW191987   8.040  12.252   9.167
63385SOL    HW291988   7.924  12.345   9.141
63386SOL     OW91989  10.795   7.538  14.761
63386SOL    HW191990  10.708   7.525  14.724
63386SOL    HW291991  10.845   7.461  14.731
63387SOL     OW91992  10.634   0.629   1.356
63387SOL    HW191993  10.675   0.705   1.314
63387SOL    HW291994  10.641   0.648   1.450
63388SOL     OW91995   1.180   3.202   2.477
63388SOL    HW191996   1.241   3.233   2.410
63388SOL    HW291997   1.154   3.115   2.447
63389SOL     OW91998   8.558  13.016   9.253
63389SOL    HW191999   8.609  13.091   9.282
63389SOL    HW292000   8.586  13.000   9.163
63390SOL     OW92001   0.625   7.830   6.555
63390SOL    HW192002   0.700   7.800   6.607
63390SOL    HW292003   0.665   7.862   6.474
63391SOL     OW92004  10.644   4.244  11.142
63391SOL    HW192005  10.694   4.181  11.195
63391SOL    HW292006  10.576   4.276  11.201
63392SOL     OW92007   4.209   4.346  12.610
63392SOL    HW192008   4.294   4.388  12.595
63392SOL    HW292009   4.199   4.287  12.535
63393SOL     OW92010   6.201   1.233   8.609
63393SOL    HW192011   6.251   1.300   8.564
63393SOL    HW292012   6.265   1.164   8.628
63394SOL     OW92013   0.809   1.278  13.699
63394SOL    HW192014   0.887   1.334  13.694
63394SOL    HW292015   0.741   1.327  13.654
63395SOL     OW92016  10.692  13.115   6.544
63395SOL    HW192017  10.610  13.119   6.593
63395SOL    HW292018  10.748  13.181   6.585
63396SOL     OW92019  14.196   6.950   3.749
63396SOL    HW192020  14.242   6.992   3.821
63396SOL    HW292021  14.201   6.856   3.769
63397SOL     OW92022  14.051   5.818   8.450
63397SOL    HW192023  13.964   5.818   8.411
63397SOL    HW292024  14.041   5.769   8.532
63398SOL     OW92025   0.138  12.722   4.010
63398SOL    HW192026   0.187  12.754   4.085
63398SOL    HW292027   0.205  12.706   3.942
63399SOL     OW92028   8.148   0.536   0.494
63399SOL    HW192029   8.214   0.538   0.564
63399SOL    HW292030   8.146   0.445   0.465
63400SOL     OW92031   5.574   2.496   0.429
63400SOL    HW192032   5.531   2.541   0.502
63400SOL    HW292033   5.666   2.488   0.456
63401SOL     OW92034  11.630   0.297   3.572
63401SOL    HW192035  11.554   0.352   3.591
63401SOL    HW292036  11.592   0.212   3.551
63402SOL     OW92037   3.843  10.605   6.145
63402SOL    HW192038   3.856  10.671   6.076
63402SOL    HW292039   3.777  10.546   6.109
63403SOL     OW92040  11.787   5.783  12.781
63403SOL    HW192041  11.842   5.819  12.850
63403SOL    HW292042  11.719   5.849  12.767
63404SOL     OW92043  11.050   6.004   6.305
63404SOL    HW192044  11.003   6.004   6.389
63404SOL    HW292045  11.130   6.054   6.323
63405SOL     OW92046   8.853   8.554   1.302
63405SOL    HW192047   8.945   8.531   1.309
63405SOL    HW292048   8.847   8.601   1.218
63406SOL     OW92049   4.317   5.252   8.011
63406SOL    HW192050   4.340   5.267   7.920
63406SOL    HW292051   4.245   5.312   8.027
63407SOL     OW92052   1.485   9.417   8.925
63407SOL    HW192053   1.400   9.451   8.896
63407SOL    HW292054   1.489   9.328   8.890
63408SOL     OW92055  13.124   3.986   1.673
63408SOL    HW192056  13.036   3.955   1.693
63408SOL    HW292057  13.167   3.912   1.631
63409SOL     OW92058   9.650   8.864  11.899
63409SOL    HW192059   9.631   8.795  11.964
63409SOL    HW292060   9.579   8.926  11.909
63410SOL     OW92061   0.454   7.166  13.091
63410SOL    HW192062   0.465   7.257  13.118
63410SOL    HW292063   0.492   7.163  13.003
63411SOL     OW92064   4.912   0.942  12.941
63411SOL    HW192065   4.856   0.929  12.864
63411SOL    HW292066   4.877   1.020  12.984
63412SOL     OW92067   6.979  10.266  14.796
63412SOL    HW192068   7.039  10.339  14.782
63412SOL    HW292069   6.954  10.238  14.708
63413SOL     OW92070  11.251   7.415   6.645
63413SOL    HW192071  11.281   7.453   6.727
63413SOL    HW292072  11.185   7.351   6.670
63414SOL     OW92073   3.875   1.181   8.332
63414SOL    HW192074   3.832   1.267   8.325
63414SOL    HW292075   3.844   1.146   8.415
63415SOL     OW92076   3.311  14.614   7.112
63415SOL    HW192077   3.321  14.610   7.016
63415SOL    HW292078   3.217  14.601   7.127
63416SOL     OW92079   6.935   8.648   9.378
63416SOL    HW192080   6.987   8.575   9.413
63416SOL    HW292081   6.863   8.658   9.440
63417SOL     OW92082  11.412   2.129   9.989
63417SOL    HW192083  11.338   2.135   9.927
63417SOL    HW292084  11.448   2.218   9.992
63418SOL     OW92085   3.800   2.052   7.931
63418SOL    HW192086   3.826   2.122   7.872
63418SOL    HW292087   3.813   2.088   8.019
63419SOL     OW92088  13.210  13.156  12.119
63419SOL    HW192089  13.120  13.136  12.145
63419SOL    HW292090  13.223  13.106  12.039
63420SOL     OW92091  14.231   7.663   5.652
63420SOL    HW192092  14.292   7.666   5.725
63420SOL    HW292093  14.156   7.714   5.681
63421SOL     OW92094   3.530  12.390   9.179
63421SOL    HW192095   3.610  12.386   9.128
63421SOL    HW292096   3.460  12.394   9.114
63422SOL     OW92097   0.326   1.190  11.461
63422SOL    HW192098   0.274   1.111  11.476
63422SOL    HW292099   0.364   1.209  11.547
63423SOL     OW92100  14.394   7.449   0.623
63423SOL    HW192101  14.337   7.492   0.687
63423SOL    HW292102  14.335   7.392   0.573
63424SOL     OW92103   6.825   3.425   5.791
63424SOL    HW192104   6.861   3.413   5.879
63424SOL    HW292105   6.788   3.514   5.792
63425SOL     OW92106  10.268   1.491   1.539
63425SOL    HW192107  10.265   1.513   1.632
63425SOL    HW292108  10.246   1.572   1.494
63426SOL     OW92109   8.638  12.092   6.003
63426SOL    HW192110   8.558  12.138   6.025
63426SOL    HW292111   8.696  12.106   6.078
63427SOL     OW92112   4.385   1.575   2.600
63427SOL    HW192113   4.481   1.579   2.603
63427SOL    HW292114   4.362   1.613   2.516
63428SOL     OW92115  12.600   0.070   5.108
63428SOL    HW192116  12.618   0.089   5.016
63428SOL    HW292117  12.686   0.051   5.145
63429SOL     OW92118   3.086   9.511   2.394
63429SOL    HW192119   3.077   9.425   2.353
63429SOL    HW292120   3.042   9.571   2.335
63430SOL     OW92121   7.022  11.171   5.451
63430SOL    HW192122   7.098  11.114   5.443
63430SOL    HW292123   6.980  11.144   5.533
63431SOL     OW92124   9.946   8.500   7.175
63431SOL    HW192125   9.911   8.588   7.186
63431SOL    HW292126   9.947   8.463   7.264
63432SOL     OW92127   2.872   8.638  11.745
63432SOL    HW192128   2.815   8.562  11.757
63432SOL    HW292129   2.823   8.697  11.688
63433SOL     OW92130   0.659  13.876   1.889
63433SOL    HW192131   0.697  13.813   1.828
63433SOL    HW292132   0.567  13.882   1.863
63434SOL     OW92133  12.030   4.393   2.748
63434SOL    HW192134  12.101   4.361   2.804
63434SOL    HW292135  12.002   4.316   2.698
63435SOL     OW92136  11.138   5.093  14.173
63435SOL    HW192137  11.224   5.135  14.171
63435SOL    HW292138  11.156   5.000  14.170
63436SOL     OW92139   1.829   6.582  12.819
63436SOL    HW192140   1.816   6.646  12.750
63436SOL    HW292141   1.898   6.525  12.786
63437SOL     OW92142   8.468   7.937   2.956
63437SOL    HW192143   8.419   7.933   2.874
63437SOL    HW292144   8.401   7.926   3.024
63438SOL     OW92145  11.231   6.563   6.521
63438SOL    HW192146  11.201   6.610   6.599
63438SOL    HW292147  11.175   6.486   6.515
63439SOL     OW92148   6.288   7.432  10.462
63439SOL    HW192149   6.246   7.465  10.383
63439SOL    HW292150   6.328   7.509  10.502
63440SOL     OW92151   7.877  12.852   3.081
63440SOL    HW192152   7.869  12.757   3.082
63440SOL    HW292153   7.888  12.876   3.173
63441SOL     OW92154   8.294   5.134   9.197
63441SOL    HW192155   8.215   5.185   9.178
63441SOL    HW292156   8.366   5.193   9.174
63442SOL     OW92157   6.378   2.849  10.904
63442SOL    HW192158   6.324   2.771  10.921
63442SOL    HW292159   6.335   2.892  10.831
63443SOL     OW92160  12.596   0.442   0.408
63443SOL    HW192161  12.511   0.412   0.376
63443SOL    HW292162  12.637   0.364   0.445
63444SOL     OW92163   0.120   1.793   1.935
63444SOL    HW192164   0.037   1.757   1.967
63444SOL    HW292165   0.096   1.847   1.859
63445SOL     OW92166   9.171   5.957   7.923
63445SOL    HW192167   9.187   5.967   8.017
63445SOL    HW292168   9.256   5.935   7.886
63446SOL     OW92169   1.940   8.889  11.290
63446SOL    HW192170   1.985   8.968  11.261
63446SOL    HW292171   1.986   8.863  11.370
63447SOL     OW92172   6.854  13.235  13.008
63447SOL    HW192173   6.853  13.225  13.103
63447SOL    HW292174   6.877  13.327  12.994
63448SOL     OW92175   6.268  13.971   1.415
63448SOL    HW192176   6.237  13.881   1.401
63448SOL    HW292177   6.246  13.989   1.507
63449SOL     OW92178   5.978   3.875   3.048
63449SOL    HW192179   6.050   3.829   3.005
63449SOL    HW292180   5.948   3.939   2.984
63450SOL     OW92181   9.310   2.963   3.350
63450SOL    HW192182   9.219   2.934   3.358
63450SOL    HW292183   9.304   3.058   3.340
63451SOL     OW92184   2.985   7.098  10.506
63451SOL    HW192185   2.952   7.105  10.596
63451SOL    HW292186   3.066   7.048  10.514
63452SOL     OW92187   5.038   3.006  10.018
63452SOL    HW192188   5.092   3.079   9.988
63452SOL    HW292189   4.950   3.043  10.026
63453SOL     OW92190  14.739   0.838   4.220
63453SOL    HW192191  14.786   0.788   4.286
63453SOL    HW292192  14.785   0.820   4.138
63454SOL     OW92193   2.074  10.939   7.158
63454SOL    HW192194   2.045  11.027   7.183
63454SOL    HW292195   2.168  10.946   7.147
63455SOL     OW92196   9.538  13.577   1.830
63455SOL    HW192197   9.456  13.549   1.871
63455SOL    HW292198   9.587  13.495   1.818
63456SOL     OW92199   7.054  12.625   2.636
63456SOL    HW192200   6.977  12.585   2.596
63456SOL    HW292201   7.081  12.562   2.703
63457SOL     OW92202  13.936   4.575   3.896
63457SOL    HW192203  13.909   4.488   3.926
63457SOL    HW292204  13.972   4.617   3.975
63458SOL     OW92205   7.402  13.198   0.167
63458SOL    HW192206   7.372  13.279   0.206
63458SOL    HW292207   7.497  13.209   0.157
63459SOL     OW92208   1.462  10.793   5.762
63459SOL    HW192209   1.392  10.832   5.815
63459SOL    HW292210   1.436  10.702   5.751
63460SOL     OW92211  11.272  12.271   0.460
63460SOL    HW192212  11.216  12.216   0.515
63460SOL    HW292213  11.328  12.318   0.522
63461SOL     OW92214  13.611   7.194   0.095
63461SOL    HW192215  13.668   7.177   0.170
63461SOL    HW292216  13.670   7.196   0.020
63462SOL     OW92217   7.804  12.009   9.549
63462SOL    HW192218   7.708  12.003   9.557
63462SOL    HW292219   7.822  11.974   9.462
63463SOL     OW92220   9.519  14.173  11.354
63463SOL    HW192221   9.471  14.182  11.272
63463SOL    HW292222   9.452  14.183  11.422
63464SOL     OW92223   9.600   6.000   3.147
63464SOL    HW192224   9.656   5.946   3.092
63464SOL    HW292225   9.620   5.972   3.236
63465SOL     OW92226  10.280  10.663   4.358
63465SOL    HW192227  10.313  10.685   4.271
63465SOL    HW292228  10.346  10.603   4.394
63466SOL     OW92229   3.970   7.810  12.828
63466SOL    HW192230   4.052   7.848  12.796
63466SOL    HW292231   3.998   7.742  12.889
63467SOL     OW92232   7.956   4.914  10.943
63467SOL    HW192233   7.923   4.825  10.931
63467SOL    HW292234   8.037   4.917  10.892
63468SOL     OW92235   6.753   0.952   8.730
63468SOL    HW192236   6.839   0.980   8.698
63468SOL    HW292237   6.691   0.991   8.668
63469SOL     OW92238  13.741  11.206   7.853
63469SOL    HW192239  13.733  11.160   7.769
63469SOL    HW292240  13.823  11.175   7.890
63470SOL     OW92241   3.129  14.052   1.148
63470SOL    HW192242   3.185  14.108   1.201
63470SOL    HW292243   3.053  14.034   1.204
63471SOL     OW92244  12.193   4.423   5.843
63471SOL    HW192245  12.146   4.506   5.851
63471SOL    HW292246  12.270   4.434   5.899
63472SOL     OW92247   8.606   2.129   0.903
63472SOL    HW192248   8.680   2.068   0.899
63472SOL    HW292249   8.546   2.089   0.967
63473SOL     OW92250   1.889   0.311   2.608
63473SOL    HW192251   1.898   0.227   2.565
63473SOL    HW292252   1.976   0.331   2.643
63474SOL     OW92253   9.061  12.274   4.190
63474SOL    HW192254   9.126  12.338   4.220
63474SOL    HW292255   8.980  12.325   4.180
63475SOL     OW92256  10.379   3.718   4.568
63475SOL    HW192257  10.386   3.663   4.490
63475SOL    HW292258  10.426   3.798   4.546
63476SOL     OW92259   6.380   0.661   5.555
63476SOL    HW192260   6.416   0.730   5.500
63476SOL    HW292261   6.300   0.697   5.592
63477SOL     OW92262  11.154   0.797   9.658
63477SOL    HW192263  11.079   0.856   9.671
63477SOL    HW292264  11.222   0.854   9.621
63478SOL     OW92265  13.665   7.476   1.730
63478SOL    HW192266  13.619   7.400   1.694
63478SOL    HW292267  13.614   7.551   1.701
63479SOL     OW92268   7.160  12.655   2.339
63479SOL    HW192269   7.159  12.677   2.246
63479SOL    HW292270   7.240  12.694   2.373
63480SOL     OW92271   9.793   8.262   3.472
63480SOL    HW192272   9.834   8.329   3.418
63480SOL    HW292273   9.847   8.257   3.551
63481SOL     OW92274   6.403   9.514   0.124
63481SOL    HW192275   6.425   9.516   0.030
63481SOL    HW292276   6.356   9.595   0.140
63482SOL     OW92277  12.813   4.970   8.377
63482SOL    HW192278  12.731   5.000   8.338
63482SOL    HW292279  12.829   4.885   8.335
63483SOL     OW92280   1.388   3.530   1.438
63483SOL    HW192281   1.310   3.515   1.384
63483SOL    HW292282   1.361   3.596   1.501
63484SOL     OW92283   7.817   7.186  13.486
63484SOL    HW192284   7.875   7.136  13.542
63484SOL    HW292285   7.842   7.277  13.501
63485SOL     OW92286  10.695  10.572   0.680
63485SOL    HW192287  10.619  10.585   0.737
63485SOL    HW292288  10.724  10.483   0.700
63486SOL     OW92289   2.436  14.788   1.077
63486SOL    HW192290   2.495  14.834   1.136
63486SOL    HW292291   2.411  14.854   1.012
63487SOL     OW92292  11.693   6.453  11.115
63487SOL    HW192293  11.712   6.519  11.048
63487SOL    HW292294  11.630   6.496  11.173
63488SOL     OW92295  12.277   0.848   7.930
63488SOL    HW192296  12.310   0.930   7.966
63488SOL    HW292297  12.182   0.853   7.940
63489SOL     OW92298   7.710   9.061   5.079
63489SOL    HW192299   7.720   9.118   5.155
63489SOL    HW292300   7.734   9.115   5.004
63490SOL     OW92301   8.504   9.843   5.069
63490SOL    HW192302   8.414   9.822   5.044
63490SOL    HW292303   8.536   9.764   5.113
63491SOL     OW92304   7.427  14.636   8.443
63491SOL    HW192305   7.347  14.637   8.497
63491SOL    HW292306   7.498  14.652   8.505
63492SOL     OW92307   3.336   1.059   6.392
63492SOL    HW192308   3.348   0.964   6.391
63492SOL    HW292309   3.324   1.083   6.300
63493SOL     OW92310   5.401   7.743  14.496
63493SOL    HW192311   5.332   7.794  14.454
63493SOL    HW292312   5.470   7.806  14.515
63494SOL     OW92313   3.166   8.362   5.559
63494SOL    HW192314   3.191   8.345   5.468
63494SOL    HW292315   3.078   8.327   5.567
63495SOL     OW92316  11.238  12.492  10.428
63495SOL    HW192317  11.234  12.475  10.334
63495SOL    HW292318  11.184  12.423  10.467
63496SOL     OW92319   9.280   1.406   3.709
63496SOL    HW192320   9.303   1.492   3.744
63496SOL    HW292321   9.362   1.357   3.712
63497SOL     OW92322   3.340   7.321  10.085
63497SOL    HW192323   3.367   7.354  10.171
63497SOL    HW292324   3.373   7.385  10.022
63498SOL     OW92325   9.085   6.448   8.399
63498SOL    HW192326   8.997   6.447   8.361
63498SOL    HW292327   9.137   6.498   8.337
63499SOL     OW92328  12.845   1.399   0.944
63499SOL    HW192329  12.910   1.363   1.005
63499SOL    HW292330  12.808   1.322   0.901
63500SOL     OW92331   0.241  11.730   9.642
63500SOL    HW192332   0.271  11.820   9.637
63500SOL    HW292333   0.302  11.681   9.586
63501SOL     OW92334   2.893   8.457  10.339
63501SOL    HW192335   2.955   8.498  10.278
63501SOL    HW292336   2.921   8.366  10.344
63502SOL     OW92337  11.941   2.761   6.893
63502SOL    HW192338  12.031   2.745   6.920
63502SOL    HW292339  11.933   2.856   6.891
63503SOL     OW92340   5.619  12.579   1.520
63503SOL    HW192341   5.708  12.545   1.530
63503SOL    HW292342   5.604  12.580   1.425
63504SOL     OW92343   6.693   0.751  14.327
63504SOL    HW192344   6.711   0.822  14.265
63504SOL    HW292345   6.650   0.683  14.275
63505SOL     OW92346  10.210   5.050   3.177
63505SOL    HW192347  10.217   5.089   3.089
63505SOL    HW292348  10.241   5.119   3.235
63506SOL     OW92349   9.733   1.949   7.441
63506SOL    HW192350   9.724   1.926   7.349
63506SOL    HW292351   9.664   2.014   7.457
63507SOL     OW92352   9.532   1.813   3.677
63507SOL    HW192353   9.565   1.724   3.671
63507SOL    HW292354   9.572   1.859   3.603
63508SOL     OW92355  14.535   1.698   3.121
63508SOL    HW192356  14.586   1.671   3.198
63508SOL    HW292357  14.495   1.618   3.089
63509SOL     OW92358   6.555  11.833   9.981
63509SOL    HW192359   6.595  11.895  10.042
63509SOL    HW292360   6.465  11.865   9.970
63510SOL     OW92361  10.028   9.133  10.506
63510SOL    HW192362  10.104   9.076  10.499
63510SOL    HW292363  10.029   9.163  10.597
63511SOL     OW92364   5.864  11.486   2.456
63511SOL    HW192365   5.796  11.501   2.522
63511SOL    HW292366   5.889  11.395   2.468
63512SOL     OW92367   7.052   7.618  11.235
63512SOL    HW192368   7.047   7.690  11.173
63512SOL    HW292369   6.961   7.594  11.253
63513SOL     OW92370   2.520   8.971  10.087
63513SOL    HW192371   2.587   9.038  10.069
63513SOL    HW292372   2.460   8.977  10.012
63514SOL     OW92373   4.222  10.620   5.892
63514SOL    HW192374   4.176  10.545   5.854
63514SOL    HW292375   4.190  10.696   5.843
63515SOL     OW92376   2.799   4.725   0.837
63515SOL    HW192377   2.873   4.786   0.843
63515SOL    HW292378   2.722   4.780   0.856
63516SOL     OW92379   0.909  12.707   2.945
63516SOL    HW192380   0.881  12.799   2.945
63516SOL    HW292381   0.833  12.659   2.977
63517SOL     OW92382   0.620  13.338  13.012
63517SOL    HW192383   0.618  13.420  12.963
63517SOL    HW292384   0.652  13.273  12.950
63518SOL     OW92385   8.076  13.976  12.619
63518SOL    HW192386   8.045  14.066  12.613
63518SOL    HW292387   8.149  13.971  12.556
63519SOL     OW92388  11.537   1.733  13.488
63519SOL    HW192389  11.490   1.695  13.562
63519SOL    HW292390  11.563   1.658  13.435
63520SOL     OW92391  14.337   6.920   2.984
63520SOL    HW192392  14.363   6.828   2.985
63520SOL    HW292393  14.326   6.943   3.077
63521SOL     OW92394   9.690  10.972  13.239
63521SOL    HW192395   9.734  10.917  13.305
63521SOL    HW292396   9.634  10.911  13.191
63522SOL     OW92397  10.354   8.425   9.344
63522SOL    HW192398  10.283   8.483   9.372
63522SOL    HW292399  10.419   8.484   9.305
63523SOL     OW92400  10.134   6.773  14.356
63523SOL    HW192401  10.038   6.775  14.364
63523SOL    HW292402  10.152   6.818  14.274
63524SOL     OW92403   3.173   2.364   9.634
63524SOL    HW192404   3.189   2.459   9.638
63524SOL    HW292405   3.160   2.338   9.725
63525SOL     OW92406  11.897   4.838   6.043
63525SOL    HW192407  11.802   4.840   6.057
63525SOL    HW292408  11.934   4.872   6.124
63526SOL     OW92409   5.728  14.572   6.373
63526SOL    HW192410   5.806  14.627   6.362
63526SOL    HW292411   5.675  14.619   6.438
63527SOL     OW92412   8.377   6.971   2.331
63527SOL    HW192413   8.452   6.923   2.365
63527SOL    HW292414   8.310   6.904   2.317
63528SOL     OW92415   8.477   7.256   0.922
63528SOL    HW192416   8.556   7.302   0.892
63528SOL    HW292417   8.437   7.316   0.985
63529SOL     OW92418   0.608   1.743   0.513
63529SOL    HW192419   0.536   1.803   0.535
63529SOL    HW292420   0.644   1.778   0.431
63530SOL     OW92421   2.093  10.894   4.740
63530SOL    HW192422   2.014  10.873   4.790
63530SOL    HW292423   2.165  10.862   4.795
63531SOL     OW92424   4.747  13.310  13.744
63531SOL    HW192425   4.657  13.332  13.769
63531SOL    HW292426   4.799  13.327  13.823
63532SOL     OW92427   1.548   6.668  10.055
63532SOL    HW192428   1.498   6.599  10.098
63532SOL    HW292429   1.518   6.668   9.965
63533SOL     OW92430  10.324   0.607   2.168
63533SOL    HW192431  10.405   0.654   2.151
63533SOL    HW292432  10.260   0.675   2.190
63534SOL     OW92433  12.148   1.504   0.701
63534SOL    HW192434  12.135   1.533   0.611
63534SOL    HW292435  12.132   1.410   0.699
63535SOL     OW92436   2.314   3.746   8.895
63535SOL    HW192437   2.354   3.833   8.896
63535SOL    HW292438   2.350   3.704   8.816
63536SOL     OW92439  13.403   5.238  12.264
63536SOL    HW192440  13.400   5.169  12.198
63536SOL    HW292441  13.357   5.201  12.340
63537SOL     OW92442   6.197   1.296   3.447
63537SOL    HW192443   6.122   1.352   3.469
63537SOL    HW292444   6.159   1.209   3.440
63538SOL     OW92445   9.670   0.419   9.965
63538SOL    HW192446   9.609   0.462   9.906
63538SOL    HW292447   9.617   0.356  10.013
63539SOL     OW92448   1.459   9.751   9.592
63539SOL    HW192449   1.471   9.697   9.670
63539SOL    HW292450   1.367   9.778   9.595
63540SOL     OW92451  10.335  11.396   7.859
63540SOL    HW192452  10.400  11.395   7.789
63540SOL    HW292453  10.273  11.464   7.833
63541SOL     OW92454  12.681  10.079   6.522
63541SOL    HW192455  12.665  10.152   6.462
63541SOL    HW292456  12.594  10.042   6.538
63542SOL     OW92457   9.808   1.477  12.590
63542SOL    HW192458   9.767   1.553  12.549
63542SOL    HW292459   9.867   1.515  12.655
63543SOL     OW92460  10.620  12.681   7.908
63543SOL    HW192461  10.606  12.773   7.930
63543SOL    HW292462  10.554  12.634   7.960
63544SOL     OW92463   3.675   1.458  10.856
63544SOL    HW192464   3.668   1.375  10.904
63544SOL    HW292465   3.767   1.462  10.829
63545SOL     OW92466  14.264  13.696   6.669
63545SOL    HW192467  14.230  13.778   6.706
63545SOL    HW292468  14.359  13.703   6.679
63546SOL     OW92469   2.930  13.719   6.089
63546SOL    HW192470   2.849  13.668   6.092
63546SOL    HW292471   2.992  13.670   6.143
63547SOL     OW92472  14.154   6.919  13.628
63547SOL    HW192473  14.072   6.901  13.673
63547SOL    HW292474  14.149   6.868  13.546
63548SOL     OW92475  11.586   6.233   0.795
63548SOL    HW192476  11.565   6.200   0.882
63548SOL    HW292477  11.665   6.185   0.770
63549SOL     OW92478   5.789  10.177   0.650
63549SOL    HW192479   5.820  10.256   0.694
63549SOL    HW292480   5.867  10.121   0.643
63550SOL     OW92481  12.342   4.925  13.569
63550SOL    HW192482  12.283   4.971  13.509
63550SOL    HW292483  12.298   4.927  13.654
63551SOL     OW92484  14.285   3.083  14.000
63551SOL    HW192485  14.202   3.118  14.033
63551SOL    HW292486  14.343   3.082  14.076
63552SOL     OW92487   7.809   5.056   3.988
63552SOL    HW192488   7.892   5.020   3.957
63552SOL    HW292489   7.744   5.027   3.923
63553SOL     OW92490   5.604   6.940   9.866
63553SOL    HW192491   5.590   7.031   9.842
63553SOL    HW292492   5.534   6.892   9.821
63554SOL     OW92493   8.050   6.509   6.881
63554SOL    HW192494   8.145   6.512   6.869
63554SOL    HW292495   8.031   6.581   6.942
63555SOL     OW92496  14.645   9.596   5.016
63555SOL    HW192497  14.671   9.504   5.005
63555SOL    HW292498  14.692   9.643   4.947
63556SOL     OW92499  14.818   7.900  12.237
63556SOL    HW192500   0.010   7.960  12.229
63556SOL    HW292501  14.856   7.813  12.233
63557SOL     OW92502   4.410   3.113   8.822
63557SOL    HW192503   4.489   3.059   8.822
63557SOL    HW292504   4.402   3.144   8.732
63558SOL     OW92505  14.594   7.521   6.122
63558SOL    HW192506  14.615   7.437   6.162
63558SOL    HW292507  14.499   7.525   6.122
63559SOL     OW92508   1.853   4.657   4.435
63559SOL    HW192509   1.932   4.609   4.408
63559SOL    HW292510   1.787   4.631   4.371
63560SOL     OW92511   5.605   4.568  11.533
63560SOL    HW192512   5.549   4.535  11.464
63560SOL    HW292513   5.552   4.632  11.580
63561SOL     OW92514   2.404   9.991   0.171
63561SOL    HW192515   2.431  10.065   0.117
63561SOL    HW292516   2.318   9.966   0.136
63562SOL     OW92517  13.993   0.551   7.688
63562SOL    HW192518  14.050   0.582   7.760
63562SOL    HW292519  13.969   0.462   7.713
63563SOL     OW92520  11.905   9.146   2.014
63563SOL    HW192521  11.867   9.209   1.953
63563SOL    HW292522  11.991   9.126   1.978
63564SOL     OW92523   4.358  14.393   9.692
63564SOL    HW192524   4.342  14.329   9.622
63564SOL    HW292525   4.358  14.341   9.772
63565SOL     OW92526  10.387  13.321   3.545
63565SOL    HW192527  10.345  13.235   3.544
63565SOL    HW292528  10.332  13.375   3.489
63566SOL     OW92529  10.672   0.070   3.454
63566SOL    HW192530  10.660   0.117   3.372
63566SOL    HW292531  10.761   0.091   3.482
63567SOL     OW92532  10.310   7.581   8.451
63567SOL    HW192533  10.371   7.512   8.478
63567SOL    HW292534  10.231   7.563   8.502
63568SOL     OW92535  12.281   2.712  14.709
63568SOL    HW192536  12.187   2.724  14.695
63568SOL    HW292537  12.323   2.777  14.653
63569SOL     OW92538   8.736   2.084   2.610
63569SOL    HW192539   8.668   2.141   2.574
63569SOL    HW292540   8.721   2.085   2.704
63570SOL     OW92541   9.865  12.518   3.227
63570SOL    HW192542   9.894  12.523   3.136
63570SOL    HW292543   9.794  12.453   3.226
63571SOL     OW92544  13.168   8.972   6.478
63571SOL    HW192545  13.204   8.949   6.563
63571SOL    HW292546  13.073   8.976   6.492
63572SOL     OW92547  12.208  14.364   2.781
63572SOL    HW192548  12.128  14.409   2.809
63572SOL    HW292549  12.209  14.283   2.831
63573SOL     OW92550   6.583   5.367   2.391
63573SOL    HW192551   6.491   5.384   2.412
63573SOL    HW292552   6.631   5.433   2.441
63574SOL     OW92553  11.002  14.451  14.705
63574SOL    HW192554  11.068  14.385  14.683
63574SOL    HW292555  11.042  14.534  14.682
63575SOL     OW92556  10.462  10.441   3.995
63575SOL    HW192557  10.537  10.392   3.959
63575SOL    HW292558  10.444  10.398   4.079
63576SOL     OW92559   9.438  13.902   0.941
63576SOL    HW192560   9.530  13.894   0.916
63576SOL    HW292561   9.419  13.821   0.988
63577SOL     OW92562   9.544  14.611   8.193
63577SOL    HW192563   9.544  14.661   8.112
63577SOL    HW292564   9.635  14.610   8.221
63578SOL     OW92565  11.339   6.390   7.005
63578SOL    HW192566  11.335   6.390   7.101
63578SOL    HW292567  11.286   6.316   6.979
63579SOL     OW92568  11.849   9.518   6.340
63579SOL    HW192569  11.816   9.607   6.337
63579SOL    HW292570  11.787   9.471   6.396
63580SOL     OW92571   8.139   0.137  11.764
63580SOL    HW192572   8.214   0.172  11.715
63580SOL    HW292573   8.173   0.124  11.853
63581SOL     OW92574   3.360   7.024  12.176
63581SOL    HW192575   3.349   6.930  12.187
63581SOL    HW292576   3.278   7.062  12.207
63582SOL     OW92577   5.368  10.794   9.736
63582SOL    HW192578   5.356  10.743   9.816
63582SOL    HW292579   5.422  10.869   9.764
63583SOL     OW92580   0.286   7.461   2.908
63583SOL    HW192581   0.309   7.373   2.879
63583SOL    HW292582   0.366   7.512   2.896
63584SOL     OW92583   7.339  10.417   0.803
63584SOL    HW192584   7.328  10.405   0.897
63584SOL    HW292585   7.292  10.344   0.763
63585SOL     OW92586   0.955   1.047  12.547
63585SOL    HW192587   0.911   1.093  12.619
63585SOL    HW292588   1.012   1.114  12.507
63586SOL     OW92589  14.028   9.908   2.240
63586SOL    HW192590  14.060   9.820   2.224
63586SOL    HW292591  14.012   9.911   2.334
63587SOL     OW92592   5.748   9.944   6.025
63587SOL    HW192593   5.833   9.984   6.041
63587SOL    HW292594   5.751   9.860   6.070
63588SOL     OW92595   6.397   4.725   1.854
63588SOL    HW192596   6.313   4.708   1.897
63588SOL    HW292597   6.429   4.806   1.895
63589SOL     OW92598  14.805  14.812  12.712
63589SOL    HW192599  14.853  14.816  12.795
63589SOL    HW292600  14.720  14.851  12.732
63590SOL     OW92601   5.592   1.586  13.131
63590SOL    HW192602   5.607   1.667  13.082
63590SOL    HW292603   5.533   1.534  13.076
63591SOL     OW92604  12.788   6.293   2.937
63591SOL    HW192605  12.830   6.223   2.888
63591SOL    HW292606  12.778   6.258   3.026
63592SOL     OW92607   9.492   6.603   4.084
63592SOL    HW192608   9.403   6.569   4.091
63592SOL    HW292609   9.522   6.612   4.174
63593SOL     OW92610   8.869   5.134  13.074
63593SOL    HW192611   8.794   5.105  13.022
63593SOL    HW292612   8.913   5.199  13.020
63594SOL     OW92613   4.601  12.237   0.864
63594SOL    HW192614   4.687  12.199   0.846
63594SOL    HW292615   4.620  12.315   0.917
63595SOL     OW92616   3.847   0.151   1.381
63595SOL    HW192617   3.908   0.082   1.405
63595SOL    HW292618   3.864   0.168   1.289
63596SOL     OW92619   7.898   9.000   8.255
63596SOL    HW192620   7.892   9.066   8.324
63596SOL    HW292621   7.870   9.045   8.176
63597SOL     OW92622  12.376   4.664   9.904
63597SOL    HW192623  12.455   4.666   9.958
63597SOL    HW292624  12.334   4.748   9.920
63598SOL     OW92625  14.373   3.745   7.927
63598SOL    HW192626  14.379   3.803   8.003
63598SOL    HW292627  14.282   3.715   7.926
63599SOL     OW92628  13.910   7.232  11.339
63599SOL    HW192629  14.004   7.213  11.338
63599SOL    HW292630  13.881   7.203  11.425
63600SOL     OW92631   5.221   5.021   0.979
63600SOL    HW192632   5.138   5.015   1.026
63600SOL    HW292633   5.208   4.970   0.899
63601SOL     OW92634   7.329   6.833  10.691
63601SOL    HW192635   7.377   6.789  10.621
63601SOL    HW292636   7.357   6.789  10.771
63602SOL     OW92637   5.292  12.951   8.633
63602SOL    HW192638   5.289  12.865   8.675
63602SOL    HW292639   5.305  13.012   8.705
63603SOL     OW92640   5.660  13.752   5.582
63603SOL    HW192641   5.643  13.809   5.657
63603SOL    HW292642   5.729  13.796   5.533
63604SOL     OW92643   5.345  12.287   3.739
63604SOL    HW192644   5.371  12.370   3.780
63604SOL    HW292645   5.271  12.310   3.683
63605SOL     OW92646   1.895   1.673  13.040
63605SOL    HW192647   1.970   1.651  13.095
63605SOL    HW292648   1.932   1.716  12.964
63606SOL     OW92649   4.546  13.221   9.447
63606SOL    HW192650   4.600  13.244   9.371
63606SOL    HW292651   4.610  13.202   9.516
63607SOL     OW92652   3.901  13.460   1.383
63607SOL    HW192653   3.865  13.428   1.465
63607SOL    HW292654   3.851  13.416   1.315
63608SOL     OW92655  12.557   5.509  11.485
63608SOL    HW192656  12.627   5.466  11.437
63608SOL    HW292657  12.599   5.542  11.565
63609SOL     OW92658   9.395   6.560   6.186
63609SOL    HW192659   9.483   6.552   6.223
63609SOL    HW292660   9.409   6.599   6.100
63610SOL     OW92661   9.798   4.054  11.740
63610SOL    HW192662   9.784   4.037  11.647
63610SOL    HW292663   9.891   4.037  11.754
63611SOL     OW92664   1.450   7.153   7.912
63611SOL    HW192665   1.433   7.138   7.819
63611SOL    HW292666   1.543   7.177   7.915
63612SOL     OW92667   8.862  12.722   5.498
63612SOL    HW192668   8.919  12.651   5.526
63612SOL    HW292669   8.842  12.770   5.579
63613SOL     OW92670   6.792   3.096  12.930
63613SOL    HW192671   6.729   3.165  12.952
63613SOL    HW292672   6.780   3.031  12.999
63614SOL     OW92673   7.228  10.094  10.883
63614SOL    HW192674   7.153  10.034  10.882
63614SOL    HW292675   7.245  10.112  10.790
63615SOL     OW92676   9.531   6.148   9.605
63615SOL    HW192677   9.549   6.227   9.656
63615SOL    HW292678   9.599   6.086   9.631
63616SOL     OW92679   6.997  10.902   7.359
63616SOL    HW192680   6.930  10.860   7.305
63616SOL    HW292681   7.038  10.967   7.301
63617SOL     OW92682   7.901   5.664   9.264
63617SOL    HW192683   7.961   5.624   9.201
63617SOL    HW292684   7.814   5.636   9.235
63618SOL     OW92685   0.171   9.817   9.599
63618SOL    HW192686   0.146   9.807   9.507
63618SOL    HW292687   0.107   9.765   9.647
63619SOL     OW92688   1.866  14.448   6.009
63619SOL    HW192689   1.811  14.500   5.951
63619SOL    HW292690   1.825  14.362   6.012
63620SOL     OW92691  11.794   5.866  11.653
63620SOL    HW192692  11.711   5.822  11.636
63620SOL    HW292693  11.784   5.903  11.740
63621SOL     OW92694  12.203   4.570   4.967
63621SOL    HW192695  12.207   4.588   4.873
63621SOL    HW292696  12.179   4.478   4.972
63622SOL     OW92697   3.841   3.719  12.125
63622SOL    HW192698   3.894   3.734  12.047
63622SOL    HW292699   3.789   3.641  12.104
63623SOL     OW92700   8.943   8.173   7.989
63623SOL    HW192701   8.883   8.114   7.944
63623SOL    HW292702   8.943   8.252   7.935
63624SOL     OW92703   2.908   6.151   5.886
63624SOL    HW192704   2.961   6.142   5.807
63624SOL    HW292705   2.970   6.175   5.955
63625SOL     OW92706   1.957   0.141  14.426
63625SOL    HW192707   1.970   0.052  14.459
63625SOL    HW292708   1.954   0.196  14.505
63626SOL     OW92709   2.199   7.739  11.826
63626SOL    HW192710   2.214   7.652  11.791
63626SOL    HW292711   2.110   7.761  11.801
63627SOL     OW92712   3.601  10.141  10.366
63627SOL    HW192713   3.543  10.185  10.303
63627SOL    HW292714   3.576  10.049  10.361
63628SOL     OW92715   3.080   4.057  13.019
63628SOL    HW192716   3.070   3.962  13.011
63628SOL    HW292717   3.172   4.073  12.999
63629SOL     OW92718   7.292   3.475   8.307
63629SOL    HW192719   7.290   3.481   8.403
63629SOL    HW292720   7.342   3.395   8.289
63630SOL     OW92721  11.992   2.540  14.791
63630SOL    HW192722  12.048   2.527  14.868
63630SOL    HW292723  11.935   2.463  14.789
63631SOL     OW92724  14.299   0.882   9.898
63631SOL    HW192725  14.383   0.886   9.943
63631SOL    HW292726  14.250   0.957   9.930
63632SOL     OW92727  12.120   8.293   7.769
63632SOL    HW192728  12.132   8.206   7.730
63632SOL    HW292729  12.097   8.349   7.695
63633SOL     OW92730   2.081  12.937   2.763
63633SOL    HW192731   2.110  13.026   2.741
63633SOL    HW292732   2.025  12.911   2.690
63634SOL     OW92733  14.093   3.161   1.221
63634SOL    HW192734  14.152   3.209   1.279
63634SOL    HW292735  14.116   3.190   1.133
63635SOL     OW92736   3.620   7.500   5.403
63635SOL    HW192737   3.661   7.537   5.326
63635SOL    HW292738   3.630   7.566   5.471
63636SOL     OW92739   6.177  13.335   4.901
63636SOL    HW192740   6.157  13.367   4.813
63636SOL    HW292741   6.267  13.304   4.895
63637SOL     OW92742   1.756   6.401   2.939
63637SOL    HW192743   1.839   6.446   2.952
63637SOL    HW292744   1.756   6.376   2.847
63638SOL     OW92745  11.817   9.305   8.063
63638SOL    HW192746  11.721   9.299   8.067
63638SOL    HW292747  11.843   9.228   8.012
63639SOL     OW92748   9.907  13.123  13.877
63639SOL    HW192749   9.855  13.049  13.907
63639SOL    HW292750   9.873  13.143  13.790
63640SOL     OW92751  11.798   8.801  11.800
63640SOL    HW192752  11.744   8.864  11.753
63640SOL    HW292753  11.875   8.851  11.828
63641SOL     OW92754   9.738   4.322  12.526
63641SOL    HW192755   9.754   4.415  12.537
63641SOL    HW292756   9.806   4.279  12.578
63642SOL     OW92757   9.018  10.113  10.603
63642SOL    HW192758   9.001  10.180  10.668
63642SOL    HW292759   8.932  10.078  10.581
63643SOL     OW92760   5.577   7.336   4.946
63643SOL    HW192761   5.625   7.290   5.015
63643SOL    HW292762   5.636   7.333   4.871
63644SOL     OW92763   2.032  14.336  10.594
63644SOL    HW192764   1.963  14.402  10.601
63644SOL    HW292765   2.002  14.263  10.647
63645SOL     OW92766   3.828   0.657   6.057
63645SOL    HW192767   3.890   0.730   6.060
63645SOL    HW292768   3.805   0.641   6.149
63646SOL     OW92769  11.361  12.087  11.189
63646SOL    HW192770  11.333  12.130  11.109
63646SOL    HW292771  11.397  12.158  11.243
63647SOL     OW92772   1.235   9.814  11.339
63647SOL    HW192773   1.326   9.793  11.363
63647SOL    HW292774   1.226   9.908  11.359
63648SOL     OW92775  11.782   6.577   2.016
63648SOL    HW192776  11.750   6.619   1.936
63648SOL    HW292777  11.865   6.622   2.034
63649SOL     OW92778  12.343   5.627   1.131
63649SOL    HW192779  12.283   5.555   1.110
63649SOL    HW292780  12.300   5.674   1.203
63650SOL     OW92781   8.780  13.048   0.389
63650SOL    HW192782   8.826  13.131   0.377
63650SOL    HW292783   8.835  12.998   0.449
63651SOL     OW92784  12.769  14.400   3.542
63651SOL    HW192785  12.805  14.373   3.627
63651SOL    HW292786  12.674  14.393   3.553
63652SOL     OW92787  11.994   3.180   9.236
63652SOL    HW192788  11.955   3.115   9.294
63652SOL    HW292789  12.065   3.133   9.190
63653SOL     OW92790   9.445  13.835   7.086
63653SOL    HW192791   9.428  13.794   7.001
63653SOL    HW292792   9.371  13.810   7.140
63654SOL     OW92793   9.658  10.063   7.503
63654SOL    HW192794   9.580  10.094   7.457
63654SOL    HW292795   9.628  10.043   7.591
63655SOL     OW92796   5.174   2.446   3.975
63655SOL    HW192797   5.151   2.539   3.971
63655SOL    HW292798   5.113   2.403   3.916
63656SOL     OW92799   6.923   1.729  10.952
63656SOL    HW192800   6.927   1.711  11.045
63656SOL    HW292801   6.938   1.824  10.945
63657SOL     OW92802   5.978   3.156  14.202
63657SOL    HW192803   6.051   3.205  14.238
63657SOL    HW292804   6.002   3.140  14.110
63658SOL     OW92805   2.729   9.854   3.459
63658SOL    HW192806   2.749   9.833   3.368
63658SOL    HW292807   2.633   9.852   3.464
63659SOL     OW92808   1.654   9.205   9.031
63659SOL    HW192809   1.750   9.198   9.027
63659SOL    HW292810   1.637   9.298   9.040
63660SOL     OW92811  14.789   7.490   4.933
63660SOL    HW192812  14.804   7.551   4.861
63660SOL    HW292813  14.823   7.534   5.010
63661SOL     OW92814  14.627  10.705   1.921
63661SOL    HW192815  14.616  10.611   1.912
63661SOL    HW292816  14.722  10.717   1.931
63662SOL     OW92817   3.719   9.735   5.039
63662SOL    HW192818   3.803   9.764   5.001
63662SOL    HW292819   3.744   9.687   5.118
63663SOL     OW92820  11.274   0.104  13.771
63663SOL    HW192821  11.194   0.117  13.821
63663SOL    HW292822  11.339   0.076  13.836
63664SOL     OW92823   2.317  11.055   7.433
63664SOL    HW192824   2.338  11.147   7.416
63664SOL    HW292825   2.315  11.014   7.347
63665SOL     OW92826  12.459   2.424   2.841
63665SOL    HW192827  12.489   2.450   2.754
63665SOL    HW292828  12.520   2.356   2.868
63666SOL     OW92829   6.316   4.391  11.076
63666SOL    HW192830   6.355   4.434  11.152
63666SOL    HW292831   6.339   4.447  11.002
63667SOL     OW92832   0.988  11.708   5.900
63667SOL    HW192833   0.925  11.733   5.968
63667SOL    HW292834   1.011  11.617   5.920
63668SOL     OW92835  11.066   8.767  13.577
63668SOL    HW192836  11.021   8.825  13.516
63668SOL    HW292837  11.126   8.824  13.625
63669SOL     OW92838   4.383   6.325   2.730
63669SOL    HW192839   4.445   6.267   2.775
63669SOL    HW292840   4.358   6.277   2.651
63670SOL     OW92841   4.516   3.557   0.640
63670SOL    HW192842   4.516   3.497   0.565
63670SOL    HW292843   4.539   3.503   0.715
63671SOL     OW92844  10.701  14.345   2.654
63671SOL    HW192845  10.634  14.309   2.596
63671SOL    HW292846  10.723  14.272   2.712
63672SOL     OW92847   6.505   2.419   4.245
63672SOL    HW192848   6.471   2.334   4.272
63672SOL    HW292849   6.477   2.479   4.314
63673SOL     OW92850   0.720   2.867   0.016
63673SOL    HW192851   0.741   2.776  14.880
63673SOL    HW292852   0.787   2.917  14.853
63674SOL     OW92853  11.213   7.357  12.869
63674SOL    HW192854  11.129   7.365  12.914
63674SOL    HW292855  11.245   7.447  12.860
63675SOL     OW92856   2.615   9.687  11.303
63675SOL    HW192857   2.539   9.720  11.256
63675SOL    HW292858   2.579   9.632  11.372
63676SOL     OW92859  12.435   8.305  14.875
63676SOL    HW192860  12.383   8.244  14.823
63676SOL    HW292861  12.379   8.382   0.004
63677SOL     OW92862   6.928  13.496  12.598
63677SOL    HW192863   6.985  13.569  12.623
63677SOL    HW292864   6.885  13.526  12.518
63678SOL     OW92865   2.897  12.964   6.043
63678SOL    HW192866   2.885  13.032   5.977
63678SOL    HW292867   2.808  12.940   6.069
63679SOL     OW92868   9.002   3.623   2.308
63679SOL    HW192869   9.090   3.585   2.311
63679SOL    HW292870   8.947   3.558   2.352
63680SOL     OW92871   9.261   5.831  11.758
63680SOL    HW192872   9.222   5.828  11.671
63680SOL    HW292873   9.268   5.739  11.784
63681SOL     OW92874   0.408  11.519   7.179
63681SOL    HW192875   0.359  11.572   7.116
63681SOL    HW292876   0.437  11.443   7.129
63682SOL     OW92877   0.307   4.250   5.150
63682SOL    HW192878   0.283   4.176   5.206
63682SOL    HW292879   0.390   4.224   5.111
63683SOL     OW92880   3.873   0.277   0.695
63683SOL    HW192881   3.869   0.354   0.638
63683SOL    HW292882   3.878   0.203   0.634
63684SOL     OW92883   5.774   4.102   4.490
63684SOL    HW192884   5.866   4.125   4.474
63684SOL    HW292885   5.727   4.140   4.416
63685SOL     OW92886   0.663  12.857   7.294
63685SOL    HW192887   0.639  12.765   7.291
63685SOL    HW292888   0.602  12.896   7.357
63686SOL     OW92889   1.058   3.699   4.600
63686SOL    HW192890   1.091   3.680   4.513
63686SOL    HW292891   0.966   3.725   4.586
63687SOL     OW92892   6.989   6.097   8.653
63687SOL    HW192893   6.910   6.148   8.671
63687SOL    HW292894   7.051   6.161   8.619
63688SOL     OW92895  13.465   9.666   1.972
63688SOL    HW192896  13.376   9.666   1.937
63688SOL    HW292897  13.477   9.754   2.008
63689SOL     OW92898   7.589   8.436   2.008
63689SOL    HW192899   7.604   8.530   2.017
63689SOL    HW292900   7.605   8.418   1.915
63690SOL     OW92901   3.259  11.419  10.618
63690SOL    HW192902   3.287  11.344  10.671
63690SOL    HW292903   3.220  11.480  10.681
63691SOL     OW92904   9.152   5.207  12.435
63691SOL    HW192905   9.245   5.194  12.454
63691SOL    HW292906   9.150   5.272  12.366
63692SOL     OW92907  11.549   8.720   0.108
63692SOL    HW192908  11.531   8.728   0.014
63692SOL    HW292909  11.521   8.804   0.145
63693SOL     OW92910   2.177   1.200  13.578
63693SOL    HW192911   2.253   1.245  13.614
63693SOL    HW292912   2.161   1.127  13.638
63694SOL     OW92913   5.145   7.341   4.085
63694SOL    HW192914   5.052   7.364   4.085
63694SOL    HW292915   5.147   7.252   4.120
63695SOL     OW92916  14.612  12.992  10.483
63695SOL    HW192917  14.607  12.897  10.489
63695SOL    HW292918  14.659  13.019  10.562
63696SOL     OW92919  13.154  12.651   0.649
63696SOL    HW192920  13.225  12.609   0.600
63696SOL    HW292921  13.138  12.733   0.602
63697SOL     OW92922  10.362   0.559   4.517
63697SOL    HW192923  10.434   0.620   4.529
63697SOL    HW292924  10.283   0.611   4.533
63698SOL     OW92925  10.010  14.404  13.758
63698SOL    HW192926  10.083  14.466  13.762
63698SOL    HW292927  10.031  14.338  13.824
63699SOL     OW92928   9.316   1.553   9.975
63699SOL    HW192929   9.267   1.570  10.055
63699SOL    HW292930   9.260   1.588   9.905
63700SOL     OW92931   7.380   7.445   6.402
63700SOL    HW192932   7.347   7.417   6.488
63700SOL    HW292933   7.473   7.464   6.417
63701SOL     OW92934   0.724  14.229   2.111
63701SOL    HW192935   0.797  14.222   2.173
63701SOL    HW292936   0.688  14.140   2.107
63702SOL     OW92937   0.408  12.114  14.278
63702SOL    HW192938   0.312  12.110  14.278
63702SOL    HW292939   0.429  12.199  14.316
63703SOL     OW92940   1.273   6.423   7.889
63703SOL    HW192941   1.246   6.514   7.874
63703SOL    HW292942   1.338   6.406   7.821
63704SOL     OW92943  12.541   5.319   8.320
63704SOL    HW192944  12.480   5.382   8.359
63704SOL    HW292945  12.598   5.372   8.264
63705SOL     OW92946   7.859   9.804   1.461
63705SOL    HW192947   7.837   9.890   1.498
63705SOL    HW292948   7.776   9.772   1.424
63706SOL     OW92949   7.682  11.241   0.291
63706SOL    HW192950   7.620  11.273   0.356
63706SOL    HW292951   7.643  11.160   0.259
63707SOL     OW92952   8.529   3.471  10.175
63707SOL    HW192953   8.473   3.428  10.240
63707SOL    HW292954   8.527   3.564  10.200
63708SOL     OW92955  13.291   6.910   4.144
63708SOL    HW192956  13.362   6.949   4.093
63708SOL    HW292957  13.326   6.827   4.175
63709SOL     OW92958   9.264   3.212   8.256
63709SOL    HW192959   9.261   3.126   8.214
63709SOL    HW292960   9.310   3.268   8.193
63710SOL     OW92961   4.757   5.413   7.950
63710SOL    HW192962   4.751   5.482   8.015
63710SOL    HW292963   4.843   5.426   7.909
63711SOL     OW92964  13.201   3.553  11.703
63711SOL    HW192965  13.288   3.576  11.669
63711SOL    HW292966  13.148   3.631  11.690
63712SOL     OW92967  10.450   2.627   1.905
63712SOL    HW192968  10.384   2.694   1.923
63712SOL    HW292969  10.527   2.677   1.878
63713SOL     OW92970  13.403   7.095  11.629
63713SOL    HW192971  13.440   7.177  11.659
63713SOL    HW292972  13.393   7.106  11.535
63714SOL     OW92973   8.841   1.013   5.310
63714SOL    HW192974   8.749   1.002   5.285
63714SOL    HW292975   8.857   1.107   5.300
63715SOL     OW92976   1.990   7.221  10.144
63715SOL    HW192977   1.975   7.162  10.070
63715SOL    HW292978   2.080   7.204  10.170
63716SOL     OW92979   8.278   3.728  13.890
63716SOL    HW192980   8.271   3.647  13.941
63716SOL    HW292981   8.207   3.722  13.827
63717SOL     OW92982   3.794   5.673  14.797
63717SOL    HW192983   3.776   5.734  14.867
63717SOL    HW292984   3.886   5.648  14.810
63718SOL     OW92985  11.717   7.733   3.026
63718SOL    HW192986  11.732   7.651   2.979
63718SOL    HW292987  11.724   7.709   3.118
63719SOL     OW92988   0.618  12.218   6.957
63719SOL    HW192989   0.603  12.191   6.866
63719SOL    HW292990   0.712  12.209   6.969
63720SOL     OW92991  13.210  12.251   2.764
63720SOL    HW192992  13.232  12.337   2.729
63720SOL    HW292993  13.273  12.237   2.835
63721SOL     OW92994   3.843  13.123   2.861
63721SOL    HW192995   3.766  13.107   2.916
63721SOL    HW292996   3.852  13.219   2.859
63722SOL     OW92997  12.553   3.730   3.669
63722SOL    HW192998  12.523   3.706   3.581
63722SOL    HW292999  12.600   3.653   3.700
63723SOL     OW93000  12.510   1.316   0.013
63723SOL    HW193001  12.484   1.402   0.048
63723SOL    HW293002  12.579   1.287   0.072
63724SOL     OW93003   6.858   1.972  11.811
63724SOL    HW193004   6.934   1.983  11.754
63724SOL    HW293005   6.887   1.908  11.877
63725SOL     OW93006  10.890   8.599   2.911
63725SOL    HW193007  10.911   8.563   2.825
63725SOL    HW293008  10.860   8.523   2.961
63726SOL     OW93009  11.182  14.187   2.425
63726SOL    HW193010  11.164  14.115   2.365
63726SOL    HW293011  11.107  14.245   2.415
63727SOL     OW93012   1.111   9.767  14.133
63727SOL    HW193013   1.018   9.780  14.120
63727SOL    HW293014   1.137   9.834  14.196
63728SOL     OW93015  10.673   8.488   6.635
63728SOL    HW193016  10.743   8.470   6.697
63728SOL    HW293017  10.605   8.530   6.688
63729SOL     OW93018   4.850   9.157  14.694
63729SOL    HW193019   4.921   9.203  14.649
63729SOL    HW293020   4.833   9.080  14.640
63730SOL     OW93021   7.724   5.674   2.915
63730SOL    HW193022   7.702   5.711   3.000
63730SOL    HW293023   7.787   5.605   2.934
63731SOL     OW93024   6.804   6.694  10.588
63731SOL    HW193025   6.889   6.703  10.631
63731SOL    HW293026   6.785   6.600  10.589
63732SOL     OW93027   2.692   4.489   1.003
63732SOL    HW193028   2.666   4.576   0.973
63732SOL    HW293029   2.786   4.495   1.017
63733SOL     OW93030   6.815   6.684   7.605
63733SOL    HW193031   6.808   6.666   7.698
63733SOL    HW293032   6.781   6.773   7.594
63734SOL     OW93033  11.298   4.332  12.391
63734SOL    HW193034  11.327   4.335  12.300
63734SOL    HW293035  11.336   4.252  12.426
63735SOL     OW93036  12.565  11.694   3.887
63735SOL    HW193037  12.585  11.643   3.808
63735SOL    HW293038  12.615  11.652   3.956
63736SOL     OW93039   4.081   5.794  13.499
63736SOL    HW193040   4.148   5.857  13.526
63736SOL    HW293041   4.005   5.849  13.476
63737SOL     OW93042   5.120   3.029   3.232
63737SOL    HW193043   5.130   3.035   3.327
63737SOL    HW293044   5.171   3.102   3.198
63738SOL     OW93045  14.557  10.628   7.131
63738SOL    HW193046  14.537  10.618   7.224
63738SOL    HW293047  14.637  10.578   7.118
63739SOL     OW93048   6.286   8.333   3.488
63739SOL    HW193049   6.361   8.362   3.436
63739SOL    HW293050   6.325   8.302   3.570
63740SOL     OW93051   2.093  14.339  14.337
63740SOL    HW193052   2.107  14.425  14.297
63740SOL    HW293053   2.044  14.290  14.271
63741SOL     OW93054   3.281  10.312   0.524
63741SOL    HW193055   3.239  10.254   0.461
63741SOL    HW293056   3.339  10.367   0.472
63742SOL     OW93057   1.005   7.005   9.182
63742SOL    HW193058   0.981   7.094   9.157
63742SOL    HW293059   1.092   7.013   9.220
63743SOL     OW93060  10.170  11.692   5.816
63743SOL    HW193061  10.181  11.740   5.898
63743SOL    HW293062  10.244  11.631   5.814
63744SOL     OW93063   2.443   0.235  14.874
63744SOL    HW193064   2.393   0.315   0.011
63744SOL    HW293065   2.420   0.175   0.062
63745SOL     OW93066   3.811   1.765   2.295
63745SOL    HW193067   3.781   1.856   2.294
63745SOL    HW293068   3.752   1.720   2.235
63746SOL     OW93069   9.399  13.361   2.753
63746SOL    HW193070   9.418  13.356   2.847
63746SOL    HW293071   9.329  13.426   2.746
63747SOL     OW93072  13.235   4.470   7.556
63747SOL    HW193073  13.162   4.433   7.506
63747SOL    HW293074  13.249   4.408   7.627
63748SOL     OW93075   8.181   9.248   9.243
63748SOL    HW193076   8.220   9.274   9.160
63748SOL    HW293077   8.100   9.204   9.219
63749SOL     OW93078  14.705   6.788   1.867
63749SOL    HW193079  14.615   6.757   1.865
63749SOL    HW293080  14.699   6.883   1.870
63750SOL     OW93081   7.248  10.225  12.457
63750SOL    HW193082   7.300  10.186  12.387
63750SOL    HW293083   7.310  10.241  12.527
63751SOL     OW93084  14.540   5.700   2.077
63751SOL    HW193085  14.503   5.613   2.070
63751SOL    HW293086  14.625   5.693   2.033
63752SOL     OW93087  12.872   1.715   5.480
63752SOL    HW193088  12.918   1.676   5.554
63752SOL    HW293089  12.936   1.716   5.409
63753SOL     OW93090   8.340   0.003   1.510
63753SOL    HW193091   8.252  14.859   1.539
63753SOL    HW293092   8.325   0.055   1.431
63754SOL     OW93093  14.742   0.761  11.965
63754SOL    HW193094  14.762   0.851  11.992
63754SOL    HW293095  14.654   0.745  12.000
63755SOL     OW93096   5.785   8.067   0.285
63755SOL    HW193097   5.735   7.988   0.264
63755SOL    HW293098   5.730   8.115   0.347
63756SOL     OW93099   1.971  14.876   3.874
63756SOL    HW193100   2.026   0.069   3.898
63756SOL    HW293101   1.943  14.839   3.958
63757SOL     OW93102   3.740   4.591   2.201
63757SOL    HW193103   3.729   4.674   2.155
63757SOL    HW293104   3.744   4.525   2.131
63758SOL     OW93105   2.852  14.760   4.796
63758SOL    HW193106   2.820  14.809   4.721
63758SOL    HW293107   2.925  14.709   4.762
63759SOL     OW93108   4.434   3.138   6.999
63759SOL    HW193109   4.393   3.225   6.992
63759SOL    HW293110   4.366   3.077   6.972
63760SOL     OW93111   6.385  14.317   9.239
63760SOL    HW193112   6.382  14.367   9.157
63760SOL    HW293113   6.391  14.225   9.210
63761SOL     OW93114   5.002   2.276  10.570
63761SOL    HW193115   4.919   2.229  10.568
63761SOL    HW293116   5.034   2.274  10.479
63762SOL     OW93117  12.283  12.567   8.857
63762SOL    HW193118  12.191  12.543   8.845
63762SOL    HW293119  12.281  12.654   8.895
63763SOL     OW93120   4.576  12.285   1.305
63763SOL    HW193121   4.661  12.241   1.299
63763SOL    HW293122   4.598  12.378   1.297
63764SOL     OW93123  12.012   9.199   2.291
63764SOL    HW193124  12.016   9.295   2.296
63764SOL    HW293125  11.973   9.181   2.206
63765SOL     OW93126   2.314   6.687  12.490
63765SOL    HW193127   2.313   6.661  12.398
63765SOL    HW293128   2.375   6.760  12.494
63766SOL     OW93129   0.728   9.802  10.265
63766SOL    HW193130   0.743   9.738  10.335
63766SOL    HW293131   0.667   9.865  10.303
63767SOL     OW93132   3.930   5.178   9.720
63767SOL    HW193133   3.843   5.141   9.739
63767SOL    HW293134   3.921   5.271   9.739
63768SOL     OW93135  14.425   7.248   5.674
63768SOL    HW193136  14.406   7.252   5.768
63768SOL    HW293137  14.521   7.247   5.669
63769SOL     OW93138  13.869  10.212   6.709
63769SOL    HW193139  13.844  10.122   6.729
63769SOL    HW293140  13.786  10.255   6.686
63770SOL     OW93141   7.777  13.579  11.279
63770SOL    HW193142   7.855  13.624  11.248
63770SOL    HW293143   7.808  13.490  11.298
63771SOL     OW93144   9.999   4.335   0.612
63771SOL    HW193145   9.974   4.426   0.597
63771SOL    HW293146   9.986   4.321   0.706
63772SOL     OW93147   1.214   1.769   5.512
63772SOL    HW193148   1.237   1.697   5.453
63772SOL    HW293149   1.163   1.829   5.459
63773SOL     OW93150  10.103   0.844   3.201
63773SOL    HW193151  10.178   0.901   3.189
63773SOL    HW293152  10.058   0.844   3.117
63774SOL     OW93153   4.518   0.251   6.889
63774SOL    HW193154   4.463   0.200   6.948
63774SOL    HW293155   4.458   0.313   6.847
63775SOL     OW93156   3.553   3.690   9.525
63775SOL    HW193157   3.632   3.693   9.471
63775SOL    HW293158   3.567   3.756   9.593
63776SOL     OW93159  10.917   9.627   2.608
63776SOL    HW193160  10.953   9.665   2.688
63776SOL    HW293161  10.947   9.536   2.608
63777SOL     OW93162  13.971   3.979   0.639
63777SOL    HW193163  13.911   4.024   0.698
63777SOL    HW293164  14.031   4.047   0.608
63778SOL     OW93165   2.934   4.850   1.895
63778SOL    HW193166   3.001   4.838   1.962
63778SOL    HW293167   2.893   4.934   1.916
63779SOL     OW93168   4.968   6.058  12.531
63779SOL    HW193169   4.993   6.147  12.507
63779SOL    HW293170   4.941   6.018  12.448
63780SOL     OW93171   0.419   3.834   0.111
63780SOL    HW193172   0.399   3.883   0.191
63780SOL    HW293173   0.452   3.750   0.142
63781SOL     OW93174  13.598   3.073   3.756
63781SOL    HW193175  13.504   3.094   3.760
63781SOL    HW293176  13.639   3.155   3.730
63782SOL     OW93177   5.122  13.772  11.185
63782SOL    HW193178   5.135  13.844  11.246
63782SOL    HW293179   5.038  13.733  11.210
63783SOL     OW93180   2.996   9.684   5.161
63783SOL    HW193181   3.016   9.757   5.103
63783SOL    HW293182   3.079   9.665   5.205
63784SOL     OW93183   1.346  14.231   4.674
63784SOL    HW193184   1.356  14.223   4.579
63784SOL    HW293185   1.420  14.286   4.701
63785SOL     OW93186  12.098   3.391  14.211
63785SOL    HW193187  12.081   3.307  14.168
63785SOL    HW293188  12.166   3.432  14.157
63786SOL     OW93189   0.133   4.084   9.534
63786SOL    HW193190   0.090   4.138   9.600
63786SOL    HW293191   0.218   4.126   9.519
63787SOL     OW93192   1.649   0.581  11.434
63787SOL    HW193193   1.680   0.567  11.523
63787SOL    HW293194   1.694   0.660  11.405
63788SOL     OW93195   2.109   7.490   6.405
63788SOL    HW193196   2.095   7.581   6.431
63788SOL    HW293197   2.022   7.450   6.410
63789SOL     OW93198   9.014   7.838   1.254
63789SOL    HW193199   9.004   7.853   1.348
63789SOL    HW293200   9.019   7.926   1.216
63790SOL     OW93201   6.063  10.733   9.563
63790SOL    HW193202   6.026  10.649   9.590
63790SOL    HW293203   6.137  10.710   9.508
63791SOL     OW93204  11.630   3.838   2.913
63791SOL    HW193205  11.646   3.917   2.862
63791SOL    HW293206  11.598   3.870   2.997
63792SOL     OW93207   3.988  13.917   1.372
63792SOL    HW193208   4.059  13.981   1.370
63792SOL    HW293209   3.983  13.883   1.283
63793SOL     OW93210   8.690   9.875  12.724
63793SOL    HW193211   8.717   9.912  12.640
63793SOL    HW293212   8.762   9.895  12.784
63794SOL     OW93213  10.448   5.821   3.573
63794SOL    HW193214  10.449   5.756   3.503
63794SOL    HW293215  10.501   5.894   3.540
63795SOL     OW93216   9.736  11.596   5.817
63795SOL    HW193217   9.687  11.678   5.807
63795SOL    HW293218   9.671  11.532   5.846
63796SOL     OW93219  12.793   5.907   3.532
63796SOL    HW193220  12.881   5.919   3.568
63796SOL    HW293221  12.805   5.914   3.437
63797SOL     OW93222   8.184   8.406   8.804
63797SOL    HW193223   8.186   8.423   8.710
63797SOL    HW293224   8.272   8.373   8.825
63798SOL     OW93225  12.866   6.628   9.063
63798SOL    HW193226  12.879   6.579   8.981
63798SOL    HW293227  12.951   6.624   9.106
63799SOL     OW93228   1.952   9.565   0.007
63799SOL    HW193229   1.928   9.650  14.853
63799SOL    HW293230   1.972   9.511  14.812
63800SOL     OW93231   0.805  14.589   6.351
63800SOL    HW193232   0.753  14.665   6.379
63800SOL    HW293233   0.879  14.587   6.411
63801SOL     OW93234   9.677   7.915  12.973
63801SOL    HW193235   9.620   7.894  13.047
63801SOL    HW293236   9.694   7.830  12.932
63802SOL     OW93237   2.909  10.322   7.477
63802SOL    HW193238   2.929  10.235   7.444
63802SOL    HW293239   2.994  10.357   7.505
63803SOL     OW93240  11.671   6.522   7.743
63803SOL    HW193241  11.701   6.489   7.827
63803SOL    HW293242  11.679   6.447   7.684
63804SOL     OW93243  13.419   1.184  13.377
63804SOL    HW193244  13.449   1.100  13.342
63804SOL    HW293245  13.499   1.234  13.395
63805SOL     OW93246  12.630   1.735  14.611
63805SOL    HW193247  12.686   1.809  14.632
63805SOL    HW293248  12.543   1.760  14.642
63806SOL     OW93249   8.521   6.751   7.344
63806SOL    HW193250   8.549   6.842   7.353
63806SOL    HW293251   8.562   6.706   7.418
63807SOL     OW93252  12.771   6.911  10.361
63807SOL    HW193253  12.713   6.840  10.389
63807SOL    HW293254  12.857   6.869  10.352
63808SOL     OW93255  13.084  13.933   5.767
63808SOL    HW193256  13.128  13.981   5.837
63808SOL    HW293257  13.022  13.875   5.812
63809SOL     OW93258  13.065   4.845  12.723
63809SOL    HW193259  13.082   4.846  12.628
63809SOL    HW293260  12.972   4.867  12.731
63810SOL     OW93261   5.261   9.369  14.797
63810SOL    HW193262   5.209   9.419  14.733
63810SOL    HW293263   5.237   9.406  14.882
63811SOL     OW93264   9.897  14.092  14.409
63811SOL    HW193265   9.896  14.001  14.437
63811SOL    HW293266   9.805  14.114  14.394
63812SOL     OW93267  10.251   8.743   6.513
63812SOL    HW193268  10.256   8.651   6.488
63812SOL    HW293269  10.341   8.773   6.512
63813SOL     OW93270   5.537   0.806   2.723
63813SOL    HW193271   5.601   0.866   2.761
63813SOL    HW293272   5.472   0.793   2.792
63814SOL     OW93273  11.711  14.661   3.055
63814SOL    HW193274  11.761  14.656   3.137
63814SOL    HW293275  11.772  14.627   2.988
63815SOL     OW93276   7.785   2.299  12.648
63815SOL    HW193277   7.806   2.215  12.606
63815SOL    HW293278   7.697   2.285  12.684
63816SOL     OW93279   4.176   1.120   9.515
63816SOL    HW193280   4.181   1.036   9.560
63816SOL    HW293281   4.224   1.181   9.571
63817SOL     OW93282  12.165   4.052  12.071
63817SOL    HW193283  12.163   3.960  12.044
63817SOL    HW293284  12.073   4.076  12.080
63818SOL     OW93285  12.116   1.511   2.502
63818SOL    HW193286  12.168   1.569   2.447
63818SOL    HW293287  12.121   1.550   2.589
63819SOL     OW93288   8.916   7.167  10.676
63819SOL    HW193289   8.995   7.156  10.728
63819SOL    HW293290   8.882   7.253  10.700
63820SOL     OW93291   1.658   7.600  10.845
63820SOL    HW193292   1.654   7.688  10.807
63820SOL    HW293293   1.591   7.550  10.799
63821SOL     OW93294  11.599   5.779   5.554
63821SOL    HW193295  11.546   5.852   5.587
63821SOL    HW293296  11.678   5.821   5.519
63822SOL     OW93297  14.650   6.019  12.323
63822SOL    HW193298  14.733   6.035  12.368
63822SOL    HW293299  14.601   5.964  12.384
63823SOL     OW93300   0.165   2.240   1.667
63823SOL    HW193301   0.218   2.163   1.687
63823SOL    HW293302   0.116   2.258   1.747
63824SOL     OW93303   0.459  10.835   5.142
63824SOL    HW193304   0.437  10.746   5.169
63824SOL    HW293305   0.546  10.851   5.180
63825SOL     OW93306   6.156  14.357  14.827
63825SOL    HW193307   6.093  14.300  14.785
63825SOL    HW293308   6.113  14.384   0.026
63826SOL     OW93309   9.569  14.716   1.849
63826SOL    HW193310   9.622  14.637   1.862
63826SOL    HW293311   9.485  14.696   1.890
63827SOL     OW93312  10.852   6.962  12.585
63827SOL    HW193313  10.937   6.921  12.564
63827SOL    HW293314  10.787   6.903  12.546
63828SOL     OW93315   2.489   1.585  11.402
63828SOL    HW193316   2.442   1.666  11.382
63828SOL    HW293317   2.578   1.613  11.424
63829SOL     OW93318   9.296   0.965  10.955
63829SOL    HW193319   9.270   1.026  11.023
63829SOL    HW293320   9.392   0.960  10.963
63830SOL     OW93321   1.081  11.526   0.607
63830SOL    HW193322   1.086  11.488   0.695
63830SOL    HW293323   1.154  11.486   0.559
63831SOL     OW93324  11.089   7.811  12.787
63831SOL    HW193325  10.999   7.784  12.806
63831SOL    HW293326  11.144   7.750  12.837
63832SOL     OW93327   7.515  11.106   6.006
63832SOL    HW193328   7.425  11.081   5.985
63832SOL    HW293329   7.569  11.038   5.966
63833SOL     OW93330  13.188   4.568  14.564
63833SOL    HW193331  13.199   4.484  14.608
63833SOL    HW293332  13.107   4.605  14.601
63834SOL     OW93333  14.568   4.692   4.762
63834SOL    HW193334  14.513   4.770   4.757
63834SOL    HW293335  14.587   4.681   4.855
63835SOL     OW93336   9.864   3.000   3.560
63835SOL    HW193337   9.917   2.930   3.520
63835SOL    HW293338   9.830   2.961   3.640
63836SOL     OW93339  13.267   9.153  12.675
63836SOL    HW193340  13.279   9.129  12.583
63836SOL    HW293341  13.223   9.077  12.713
63837SOL     OW93342   9.918  14.072   9.830
63837SOL    HW193343   9.983  14.024   9.881
63837SOL    HW293344   9.851  14.007   9.809
63838SOL     OW93345  14.607  10.312  11.716
63838SOL    HW193346  14.701  10.302  11.700
63838SOL    HW293347  14.565  10.259  11.648
63839SOL     OW93348   0.895   2.870   7.609
63839SOL    HW193349   0.852   2.786   7.619
63839SOL    HW293350   0.883   2.893   7.517
63840SOL     OW93351   7.165   1.668   7.628
63840SOL    HW193352   7.168   1.672   7.532
63840SOL    HW293353   7.239   1.612   7.652
63841SOL     OW93354  12.702   2.814   8.073
63841SOL    HW193355  12.717   2.805   8.168
63841SOL    HW293356  12.625   2.870   8.066
63842SOL     OW93357   5.778  13.727   4.572
63842SOL    HW193358   5.788  13.804   4.516
63842SOL    HW293359   5.829  13.659   4.529
63843SOL     OW93360   2.564   5.627   2.932
63843SOL    HW193361   2.588   5.545   2.888
63843SOL    HW293362   2.595   5.615   3.022
63844SOL     OW93363   1.749   2.845   2.678
63844SOL    HW193364   1.812   2.889   2.622
63844SOL    HW293365   1.694   2.915   2.713
63845SOL     OW93366   6.750   7.465   6.722
63845SOL    HW193367   6.786   7.526   6.657
63845SOL    HW293368   6.659   7.454   6.696
63846SOL     OW93369   7.977   4.231   8.571
63846SOL    HW193370   8.062   4.230   8.526
63846SOL    HW293371   7.918   4.186   8.510
63847SOL     OW93372   4.996  12.573   5.585
63847SOL    HW193373   5.019  12.490   5.543
63847SOL    HW293374   4.982  12.550   5.677
63848SOL     OW93375  14.847   3.330  12.410
63848SOL    HW193376  14.863   3.421  12.385
63848SOL    HW293377   0.051   3.288  12.401
63849SOL     OW93378   3.974   9.451   6.339
63849SOL    HW193379   3.997   9.371   6.387
63849SOL    HW293380   3.964   9.422   6.248
63850SOL     OW93381   4.778  12.205   9.991
63850SOL    HW193382   4.850  12.269   9.985
63850SOL    HW293383   4.768  12.190  10.085
63851SOL     OW93384  13.777   7.775  10.905
63851SOL    HW193385  13.718   7.712  10.946
63851SOL    HW293386  13.774   7.753  10.812
63852SOL     OW93387   1.196   9.026  13.901
63852SOL    HW193388   1.286   9.057  13.891
63852SOL    HW293389   1.198   8.974  13.981
63853SOL     OW93390  14.084   1.537   6.639
63853SOL    HW193391  14.025   1.524   6.565
63853SOL    HW293392  14.029   1.519   6.716
63854SOL     OW93393   4.766  12.947   6.617
63854SOL    HW193394   4.836  12.883   6.629
63854SOL    HW293395   4.786  13.017   6.679
63855SOL     OW93396   1.796   1.844  11.069
63855SOL    HW193397   1.833   1.783  11.133
63855SOL    HW293398   1.775   1.922  11.120
63856SOL     OW93399  11.691  12.756   3.289
63856SOL    HW193400  11.686  12.851   3.285
63856SOL    HW293401  11.602  12.726   3.268
63857SOL     OW93402   6.411   0.478   7.713
63857SOL    HW193403   6.471   0.433   7.654
63857SOL    HW293404   6.324   0.460   7.677
63858SOL     OW93405   4.803   5.282   2.947
63858SOL    HW193406   4.838   5.368   2.972
63858SOL    HW293407   4.803   5.283   2.851
63859SOL     OW93408   4.388   2.006   9.177
63859SOL    HW193409   4.477   2.043   9.171
63859SOL    HW293410   4.389   1.955   9.258
63860SOL     OW93411   5.346  12.921   4.987
63860SOL    HW193412   5.408  12.987   4.956
63860SOL    HW293413   5.363  12.844   4.933
63861SOL     OW93414   3.756  12.189   2.106
63861SOL    HW193415   3.758  12.283   2.125
63861SOL    HW293416   3.776  12.183   2.013
63862SOL     OW93417  12.494   0.426   4.357
63862SOL    HW193418  12.500   0.466   4.270
63862SOL    HW293419  12.531   0.492   4.416
63863SOL     OW93420   3.568   8.852  14.433
63863SOL    HW193421   3.527   8.846  14.346
63863SOL    HW293422   3.495   8.867  14.493
63864SOL     OW93423  13.909  11.389  10.874
63864SOL    HW193424  13.814  11.388  10.886
63864SOL    HW293425  13.933  11.298  10.859
63865SOL     OW93426   6.035   4.142   4.765
63865SOL    HW193427   5.990   4.209   4.817
63865SOL    HW293428   5.964   4.100   4.716
63866SOL     OW93429   8.357   3.395  12.295
63866SOL    HW193430   8.385   3.386  12.203
63866SOL    HW293431   8.276   3.345  12.300
63867SOL     OW93432  11.646   9.800   5.182
63867SOL    HW193433  11.659   9.708   5.205
63867SOL    HW293434  11.622   9.842   5.265
63868SOL     OW93435   6.544  10.661   3.121
63868SOL    HW193436   6.618  10.604   3.100
63868SOL    HW293437   6.512  10.630   3.206
63869SOL     OW93438  10.027   8.544   4.980
63869SOL    HW193439  10.033   8.497   4.897
63869SOL    HW293440  10.077   8.489   5.041
63870SOL     OW93441  13.368   0.218   6.440
63870SOL    HW193442  13.294   0.182   6.489
63870SOL    HW293443  13.438   0.154   6.452
63871SOL     OW93444  10.559   2.708  13.673
63871SOL    HW193445  10.586   2.692  13.582
63871SOL    HW293446  10.641   2.729  13.719
63872SOL     OW93447   8.868  13.775  13.684
63872SOL    HW193448   8.867  13.866  13.654
63872SOL    HW293449   8.822  13.727  13.615
63873SOL     OW93450   0.829   5.640   0.191
63873SOL    HW193451   0.803   5.689   0.269
63873SOL    HW293452   0.748   5.602   0.158
63874SOL     OW93453  11.517   7.048   8.137
63874SOL    HW193454  11.447   7.058   8.073
63874SOL    HW293455  11.592   7.092   8.097
63875SOL     OW93456   7.569  10.846   3.546
63875SOL    HW193457   7.486  10.875   3.507
63875SOL    HW293458   7.623  10.924   3.547
63876SOL     OW93459  13.021   5.135   0.887
63876SOL    HW193460  13.034   5.149   0.793
63876SOL    HW293461  12.990   5.219   0.920
63877SOL     OW93462   6.488   3.516  13.571
63877SOL    HW193463   6.523   3.589  13.623
63877SOL    HW293464   6.443   3.558  13.497
63878SOL     OW93465   4.529   4.436   5.118
63878SOL    HW193466   4.586   4.364   5.091
63878SOL    HW293467   4.533   4.435   5.214
63879SOL     OW93468   6.386  12.661  13.141
63879SOL    HW193469   6.356  12.651  13.231
63879SOL    HW293470   6.305  12.674  13.090
63880SOL     OW93471   2.221   2.197  14.565
63880SOL    HW193472   2.169   2.150  14.630
63880SOL    HW293473   2.203   2.289  14.583
63881SOL     OW93474   3.242   8.261  10.172
63881SOL    HW193475   3.248   8.213  10.089
63881SOL    HW293476   3.153   8.244  10.202
63882SOL     OW93477   2.718  12.039   7.486
63882SOL    HW193478   2.739  11.977   7.556
63882SOL    HW293479   2.753  11.997   7.407
63883SOL     OW93480   3.285   6.654   5.554
63883SOL    HW193481   3.333   6.595   5.495
63883SOL    HW293482   3.330   6.739   5.544
63884SOL     OW93483  10.916   6.293   0.158
63884SOL    HW193484  10.821   6.303   0.153
63884SOL    HW293485  10.931   6.200   0.144
63885SOL     OW93486   0.397  14.154  12.828
63885SOL    HW193487   0.478  14.182  12.785
63885SOL    HW293488   0.370  14.231  12.880
63886SOL     OW93489  11.887   7.771  10.216
63886SOL    HW193490  11.962   7.745  10.269
63886SOL    HW293491  11.814   7.720  10.252
63887SOL     OW93492  13.593   5.874   3.497
63887SOL    HW193493  13.640   5.794   3.474
63887SOL    HW293494  13.651   5.945   3.469
63888SOL     OW93495   5.294   4.141   2.035
63888SOL    HW193496   5.249   4.057   2.027
63888SOL    HW293497   5.290   4.179   1.948
63889SOL     OW93498   1.487   5.514   2.942
63889SOL    HW193499   1.535   5.597   2.938
63889SOL    HW293500   1.538   5.454   2.887
63890SOL     OW93501  10.659   3.745   0.387
63890SOL    HW193502  10.694   3.802   0.455
63890SOL    HW293503  10.572   3.780   0.368
63891SOL     OW93504  12.613   4.377   5.145
63891SOL    HW193505  12.591   4.359   5.053
63891SOL    HW293506  12.682   4.315   5.166
63892SOL     OW93507   1.909   5.222  13.891
63892SOL    HW193508   1.884   5.295  13.836
63892SOL    HW293509   1.859   5.148  13.857
63893SOL     OW93510   0.689  14.384  10.083
63893SOL    HW193511   0.669  14.291  10.073
63893SOL    HW293512   0.782  14.385  10.108
63894SOL     OW93513  10.421   7.428   0.004
63894SOL    HW193514  10.332   7.394   0.014
63894SOL    HW293515  10.409   7.519  14.858
63895SOL     OW93516   0.900   6.433  11.555
63895SOL    HW193517   0.917   6.352  11.604
63895SOL    HW293518   0.933   6.502  11.612
63896SOL     OW93519   5.218  11.625   2.188
63896SOL    HW193520   5.295  11.634   2.244
63896SOL    HW293521   5.239  11.674   2.109
63897SOL     OW93522   4.564   4.196  11.324
63897SOL    HW193523   4.517   4.115  11.303
63897SOL    HW293524   4.586   4.233  11.238
63898SOL     OW93525   7.281   5.990   8.609
63898SOL    HW193526   7.257   6.009   8.518
63898SOL    HW293527   7.201   6.004   8.659
63899SOL     OW93528  11.550   9.626   1.286
63899SOL    HW193529  11.556   9.678   1.366
63899SOL    HW293530  11.592   9.680   1.219
63900SOL     OW93531  12.830   7.610   8.600
63900SOL    HW193532  12.909   7.569   8.565
63900SOL    HW293533  12.761   7.583   8.540
63901SOL     OW93534  13.383  10.785  10.096
63901SOL    HW193535  13.440  10.833  10.037
63901SOL    HW293536  13.441  10.754  10.166
63902SOL     OW93537   3.572   2.608  10.385
63902SOL    HW193538   3.523   2.677  10.341
63902SOL    HW293539   3.641   2.654  10.433
63903SOL     OW93540  11.157   8.867   8.897
63903SOL    HW193541  11.086   8.911   8.944
63903SOL    HW293542  11.148   8.898   8.807
63904SOL     OW93543   9.434   2.238  14.638
63904SOL    HW193544   9.482   2.195  14.709
63904SOL    HW293545   9.344   2.244  14.670
63905SOL     OW93546   5.165   4.820  13.373
63905SOL    HW193547   5.248   4.804  13.419
63905SOL    HW293548   5.112   4.869  13.436
63906SOL     OW93549   4.693   0.696   6.110
63906SOL    HW193550   4.673   0.789   6.117
63906SOL    HW293551   4.692   0.665   6.200
63907SOL     OW93552   9.446   5.484   4.097
63907SOL    HW193553   9.442   5.404   4.044
63907SOL    HW293554   9.380   5.471   4.165
63908SOL     OW93555   5.235   8.485   2.211
63908SOL    HW193556   5.232   8.390   2.220
63908SOL    HW293557   5.328   8.506   2.206
63909SOL     OW93558   7.750   5.238   7.692
63909SOL    HW193559   7.679   5.196   7.643
63909SOL    HW293560   7.750   5.328   7.660
63910SOL     OW93561   3.622   6.582   7.344
63910SOL    HW193562   3.528   6.586   7.365
63910SOL    HW293563   3.643   6.489   7.348
63911SOL     OW93564   5.636   9.224   8.869
63911SOL    HW193565   5.659   9.204   8.778
63911SOL    HW293566   5.568   9.290   8.863
63912SOL     OW93567   6.902   5.896   8.826
63912SOL    HW193568   6.813   5.909   8.857
63912SOL    HW293569   6.906   5.940   8.742
63913SOL     OW93570   2.295   8.714   2.927
63913SOL    HW193571   2.302   8.799   2.971
63913SOL    HW293572   2.221   8.724   2.867
63914SOL     OW93573   4.136   7.282   4.204
63914SOL    HW193574   4.060   7.327   4.241
63914SOL    HW293575   4.151   7.326   4.120
63915SOL     OW93576  10.645   2.662   0.137
63915SOL    HW193577  10.710   2.731   0.151
63915SOL    HW293578  10.697   2.584   0.120
63916SOL     OW93579  12.799   4.284   6.888
63916SOL    HW193580  12.892   4.268   6.903
63916SOL    HW293581  12.781   4.248   6.801
63917SOL     OW93582   1.370   6.252  10.720
63917SOL    HW193583   1.429   6.285  10.788
63917SOL    HW293584   1.424   6.193  10.667
63918SOL     OW93585   6.233  13.452   5.154
63918SOL    HW193586   6.169  13.447   5.224
63918SOL    HW293587   6.183  13.436   5.074
63919SOL     OW93588  11.429   1.190   3.962
63919SOL    HW193589  11.399   1.251   3.895
63919SOL    HW293590  11.509   1.229   3.997
63920SOL     OW93591   9.413  10.051   0.823
63920SOL    HW193592   9.490  10.030   0.877
63920SOL    HW293593   9.338  10.028   0.877
63921SOL     OW93594  11.905  12.454   6.534
63921SOL    HW193595  11.980  12.411   6.575
63921SOL    HW293596  11.865  12.504   6.605
63922SOL     OW93597   9.396  12.935   3.946
63922SOL    HW193598   9.374  12.852   3.905
63922SOL    HW293599   9.312  12.975   3.966
63923SOL     OW93600   9.628   2.518   0.899
63923SOL    HW193601   9.579   2.595   0.871
63923SOL    HW293602   9.561   2.455   0.924
63924SOL     OW93603  13.438  13.314   5.838
63924SOL    HW193604  13.496  13.381   5.877
63924SOL    HW293605  13.360  13.316   5.893
63925SOL     OW93606  14.091  11.773  10.610
63925SOL    HW193607  14.122  11.727  10.532
63925SOL    HW293608  14.142  11.736  10.682
63926SOL     OW93609   5.117   0.885   9.131
63926SOL    HW193610   5.197   0.850   9.171
63926SOL    HW293611   5.051   0.817   9.146
63927SOL     OW93612  12.711  14.103   2.657
63927SOL    HW193613  12.725  14.031   2.718
63927SOL    HW293614  12.691  14.178   2.713
63928SOL     OW93615   5.791   0.695  13.856
63928SOL    HW193616   5.703   0.724  13.880
63928SOL    HW293617   5.776   0.627  13.790
63929SOL     OW93618   0.800  13.720   0.030
63929SOL    HW193619   0.837  13.633   0.018
63929SOL    HW293620   0.866  13.779  14.876
63930SOL     OW93621   6.519  13.529  10.739
63930SOL    HW193622   6.519  13.548  10.832
63930SOL    HW293623   6.600  13.481  10.724
63931SOL     OW93624  10.776  14.807   0.423
63931SOL    HW193625  10.768  14.715   0.398
63931SOL    HW293626  10.761  14.855   0.341
63932SOL     OW93627   1.248   3.484   6.523
63932SOL    HW193628   1.235   3.398   6.564
63932SOL    HW293629   1.343   3.495   6.522
63933SOL     OW93630   0.496   5.106  10.493
63933SOL    HW193631   0.471   5.161  10.567
63933SOL    HW293632   0.529   5.026  10.532
63934SOL     OW93633  13.608  11.878  11.763
63934SOL    HW193634  13.633  11.840  11.848
63934SOL    HW293635  13.640  11.816  11.698
63935SOL     OW93636   8.020  14.007   7.177
63935SOL    HW193637   8.018  13.955   7.257
63935SOL    HW293638   7.929  14.009   7.147
63936SOL     OW93639   3.823   1.350   7.854
63936SOL    HW193640   3.734   1.384   7.856
63936SOL    HW293641   3.860   1.386   7.773
63937SOL     OW93642   3.622  14.532   0.854
63937SOL    HW193643   3.688  14.585   0.898
63937SOL    HW293644   3.597  14.583   0.777
63938SOL     OW93645   0.713   3.639   7.804
63938SOL    HW193646   0.774   3.677   7.740
63938SOL    HW293647   0.667   3.570   7.756
63939SOL     OW93648   3.052  11.316   9.520
63939SOL    HW193649   3.078  11.255   9.451
63939SOL    HW293650   2.957  11.327   9.508
63940SOL     OW93651  10.281  13.861   8.366
63940SOL    HW193652  10.324  13.828   8.287
63940SOL    HW293653  10.338  13.933   8.395
63941SOL     OW93654  13.549   2.378  10.077
63941SOL    HW193655  13.642   2.393  10.091
63941SOL    HW293656  13.513   2.363  10.164
63942SOL     OW93657   8.215   6.411   2.084
63942SOL    HW193658   8.211   6.378   1.994
63942SOL    HW293659   8.204   6.333   2.138
63943SOL     OW93660  10.358  11.340  13.295
63943SOL    HW193661  10.450  11.313  13.298
63943SOL    HW293662  10.361  11.429  13.260
63944SOL     OW93663   1.456   0.510   9.490
63944SOL    HW193664   1.436   0.596   9.455
63944SOL    HW293665   1.544   0.491   9.458
63945SOL     OW93666   7.762  14.541   3.757
63945SOL    HW193667   7.721  14.558   3.842
63945SOL    HW293668   7.829  14.474   3.775
63946SOL     OW93669  11.647  13.773   4.476
63946SOL    HW193670  11.588  13.848   4.483
63946SOL    HW293671  11.734  13.812   4.471
63947SOL     OW93672   4.054  10.797  10.265
63947SOL    HW193673   4.002  10.751  10.331
63947SOL    HW293674   4.064  10.733  10.194
63948SOL     OW93675   5.707   8.226  13.700
63948SOL    HW193676   5.759   8.241  13.779
63948SOL    HW293677   5.691   8.314  13.665
63949SOL     OW93678   4.455   9.452   3.631
63949SOL    HW193679   4.513   9.381   3.603
63949SOL    HW293680   4.503   9.497   3.701
63950SOL     OW93681   9.167  10.714  10.603
63950SOL    HW193682   9.200  10.634  10.644
63950SOL    HW293683   9.073  10.700  10.595
63951SOL     OW93684  10.061   6.802   4.301
63951SOL    HW193685  10.055   6.738   4.372
63951SOL    HW293686  10.123   6.868   4.332
63952SOL     OW93687   1.953   1.987   1.053
63952SOL    HW193688   1.999   1.964   0.972
63952SOL    HW293689   1.861   1.988   1.028
63953SOL     OW93690  12.414   3.124   5.962
63953SOL    HW193691  12.472   3.172   5.902
63953SOL    HW293692  12.456   3.132   6.048
63954SOL     OW93693   7.345   0.339   0.527
63954SOL    HW193694   7.386   0.253   0.536
63954SOL    HW293695   7.387   0.393   0.594
63955SOL     OW93696   9.535   0.625   1.504
63955SOL    HW193697   9.442   0.608   1.486
63955SOL    HW293698   9.535   0.708   1.551
63956SOL     OW93699  14.202   6.156   1.646
63956SOL    HW193700  14.222   6.112   1.564
63956SOL    HW293701  14.106   6.157   1.650
63957SOL     OW93702   1.340   9.113   4.777
63957SOL    HW193703   1.353   9.190   4.833
63957SOL    HW293704   1.363   9.039   4.833
63958SOL     OW93705   8.640   5.369  13.181
63958SOL    HW193706   8.667   5.296  13.125
63958SOL    HW293707   8.717   5.387  13.236
63959SOL     OW93708   2.197  10.054   5.590
63959SOL    HW193709   2.116  10.006   5.606
63959SOL    HW293710   2.214  10.101   5.672
63960SOL     OW93711  14.152   5.613   9.990
63960SOL    HW193712  14.186   5.645  10.073
63960SOL    HW293713  14.150   5.517  10.000
63961SOL     OW93714   9.828  13.466   8.352
63961SOL    HW193715   9.865  13.401   8.412
63961SOL    HW293716   9.786  13.530   8.410
63962SOL     OW93717  12.270   8.663  13.907
63962SOL    HW193718  12.268   8.600  13.835
63962SOL    HW293719  12.221   8.620  13.978
63963SOL     OW93720   3.548  10.542   6.762
63963SOL    HW193721   3.636  10.569   6.733
63963SOL    HW293722   3.525  10.607   6.829
63964SOL     OW93723   2.086   3.897   1.536
63964SOL    HW193724   2.163   3.923   1.486
63964SOL    HW293725   2.012   3.913   1.478
63965SOL     OW93726   8.088   7.986  13.265
63965SOL    HW193727   8.053   8.049  13.328
63965SOL    HW293728   8.024   7.915  13.263
63966SOL     OW93729  13.460   5.339  12.599
63966SOL    HW193730  13.517   5.368  12.527
63966SOL    HW293731  13.511   5.271  12.643
63967SOL     OW93732  12.915  12.072   8.271
63967SOL    HW193733  12.969  12.083   8.193
63967SOL    HW293734  12.834  12.119   8.251
63968SOL     OW93735   1.650   5.445   4.990
63968SOL    HW193736   1.606   5.377   4.939
63968SOL    HW293737   1.600   5.525   4.970
63969SOL     OW93738   0.990   7.255   7.875
63969SOL    HW193739   1.029   7.231   7.791
63969SOL    HW293740   1.057   7.308   7.919
63970SOL     OW93741   9.422  10.649   4.743
63970SOL    HW193742   9.383  10.665   4.829
63970SOL    HW293743   9.415  10.555   4.731
63971SOL     OW93744   6.962   1.315   8.358
63971SOL    HW193745   6.998   1.248   8.299
63971SOL    HW293746   7.004   1.297   8.442
63972SOL     OW93747   4.404   9.967  11.459
63972SOL    HW193748   4.374  10.057  11.468
63972SOL    HW293749   4.385   9.927  11.544
63973SOL     OW93750  10.824   4.680   1.736
63973SOL    HW193751  10.863   4.610   1.684
63973SOL    HW293752  10.773   4.634   1.804
63974SOL     OW93753   2.471  12.566   2.052
63974SOL    HW193754   2.436  12.476   2.051
63974SOL    HW293755   2.428  12.607   2.127
63975SOL     OW93756   9.001   6.735   0.444
63975SOL    HW193757   9.027   6.648   0.472
63975SOL    HW293758   9.082   6.774   0.409
63976SOL     OW93759   0.593   0.776   8.592
63976SOL    HW193760   0.528   0.802   8.658
63976SOL    HW293761   0.675   0.769   8.640
63977SOL     OW93762   2.158   9.156   2.068
63977SOL    HW193763   2.084   9.096   2.067
63977SOL    HW293764   2.181   9.167   1.976
63978SOL     OW93765   0.989   6.219   8.403
63978SOL    HW193766   0.921   6.152   8.414
63978SOL    HW293767   1.059   6.192   8.461
63979SOL     OW93768   8.142   5.091   1.112
63979SOL    HW193769   8.210   5.030   1.139
63979SOL    HW293770   8.137   5.080   1.017
63980SOL     OW93771  11.205   0.360   6.532
63980SOL    HW193772  11.148   0.327   6.462
63980SOL    HW293773  11.151   0.425   6.578
63981SOL     OW93774   5.291   2.289   3.568
63981SOL    HW193775   5.216   2.314   3.623
63981SOL    HW293776   5.367   2.297   3.626
63982SOL     OW93777  11.655   3.710  13.760
63982SOL    HW193778  11.575   3.752  13.790
63982SOL    HW293779  11.653   3.720  13.664
63983SOL     OW93780  11.950  10.422   8.002
63983SOL    HW193781  11.969  10.513   7.980
63983SOL    HW293782  11.966  10.374   7.921
63984SOL     OW93783  13.639   4.216   4.300
63984SOL    HW193784  13.652   4.153   4.371
63984SOL    HW293785  13.608   4.162   4.227
63985SOL     OW93786   0.917   2.307   3.003
63985SOL    HW193787   0.839   2.286   3.055
63985SOL    HW293788   0.944   2.394   3.035
63986SOL     OW93789   1.187  12.212   0.181
63986SOL    HW193790   1.104  12.258   0.176
63986SOL    HW293791   1.196  12.187   0.273
63987SOL     OW93792   0.191   9.194  12.935
63987SOL    HW193793   0.189   9.221  12.843
63987SOL    HW293794   0.209   9.274  12.984
63988SOL     OW93795   0.322   2.994   6.598
63988SOL    HW193796   0.241   2.998   6.548
63988SOL    HW293797   0.388   3.032   6.540
63989SOL     OW93798   3.439  12.135   6.682
63989SOL    HW193799   3.511  12.148   6.621
63989SOL    HW293800   3.462  12.054   6.729
63990SOL     OW93801  12.870   3.434   3.039
63990SOL    HW193802  12.854   3.436   3.133
63990SOL    HW293803  12.901   3.345   3.022
63991SOL     OW93804  10.932   7.941  13.861
63991SOL    HW193805  10.929   8.007  13.930
63991SOL    HW293806  10.956   7.990  13.782
63992SOL     OW93807   0.985   2.671  12.312
63992SOL    HW193808   0.972   2.593  12.258
63992SOL    HW293809   1.059   2.650  12.368
63993SOL     OW93810  10.002   9.984   7.854
63993SOL    HW193811   9.927   9.928   7.871
63993SOL    HW293812  10.078   9.931   7.879
63994SOL     OW93813   6.346   0.356  10.109
63994SOL    HW193814   6.327   0.266  10.134
63994SOL    HW293815   6.406   0.387  10.177
63995SOL     OW93816   4.269   9.569   5.375
63995SOL    HW193817   4.269   9.496   5.313
63995SOL    HW293818   4.262   9.647   5.319
63996SOL     OW93819   7.958   7.316  12.949
63996SOL    HW193820   7.956   7.411  12.961
63996SOL    HW293821   8.051   7.296  12.935
63997SOL     OW93822   9.969   3.558   8.422
63997SOL    HW193823   9.906   3.507   8.473
63997SOL    HW293824  10.046   3.563   8.477
63998SOL     OW93825   2.952  11.277   3.738
63998SOL    HW193826   2.894  11.340   3.696
63998SOL    HW293827   2.941  11.292   3.832
63999SOL     OW93828   4.859   5.616  11.375
63999SOL    HW193829   4.832   5.705  11.350
63999SOL    HW293830   4.777   5.570  11.391
64000SOL     OW93831   0.482  10.548  11.794
64000SOL    HW193832   0.488  10.453  11.787
64000SOL    HW293833   0.402  10.571  11.747
64001SOL     OW93834   8.318  13.200   7.088
64001SOL    HW193835   8.253  13.132   7.109
64001SOL    HW293836   8.314  13.260   7.162
64002SOL     OW93837   2.501   8.824  12.199
64002SOL    HW193838   2.532   8.813  12.109
64002SOL    HW293839   2.561   8.770  12.251
64003SOL     OW93840  11.537   4.682  10.564
64003SOL    HW193841  11.473   4.720  10.624
64003SOL    HW293842  11.499   4.598  10.539
64004SOL     OW93843  12.893   2.601  11.193
64004SOL    HW193844  12.955   2.610  11.120
64004SOL    HW293845  12.943   2.627  11.270
64005SOL     OW93846  12.325   1.296  14.053
64005SOL    HW193847  12.254   1.274  14.113
64005SOL    HW293848  12.319   1.391  14.042
64006SOL     OW93849   6.484   5.896   5.516
64006SOL    HW193850   6.438   5.904   5.433
64006SOL    HW293851   6.567   5.941   5.503
64007SOL     OW93852   9.486  10.744  13.863
64007SOL    HW193853   9.468  10.795  13.942
64007SOL    HW293854   9.450  10.657  13.881
64008SOL     OW93855  13.077  14.024   4.036
64008SOL    HW193856  13.032  13.968   3.973
64008SOL    HW293857  13.137  13.965   4.082
64009SOL     OW93858  12.818  11.320   6.798
64009SOL    HW193859  12.899  11.364   6.824
64009SOL    HW293860  12.750  11.388   6.804
64010SOL     OW93861  10.177   3.097  11.832
64010SOL    HW193862  10.204   3.182  11.795
64010SOL    HW293863  10.135   3.052  11.759
64011SOL     OW93864  14.840  12.574   6.965
64011SOL    HW193865  14.749  12.573   6.996
64011SOL    HW293866  14.833  12.580   6.869
64012SOL     OW93867   8.812   5.937  13.233
64012SOL    HW193868   8.719   5.919  13.223
64012SOL    HW293869   8.831   5.916  13.325
64013SOL     OW93870  14.664   6.348  11.167
64013SOL    HW193871  14.590   6.309  11.119
64013SOL    HW293872  14.730   6.279  11.168
64014SOL     OW93873  11.052   9.403  13.622
64014SOL    HW193874  10.992   9.332  13.644
64014SOL    HW293875  11.058   9.401  13.527
64015SOL     OW93876   0.483  11.844  13.519
64015SOL    HW193877   0.422  11.781  13.480
64015SOL    HW293878   0.567  11.798  13.520
64016SOL     OW93879   1.122   2.591   6.801
64016SOL    HW193880   1.109   2.498   6.819
64016SOL    HW293881   1.107   2.600   6.707
64017SOL     OW93882  14.041   7.001   5.181
64017SOL    HW193883  13.960   6.993   5.130
64017SOL    HW293884  14.111   6.990   5.116
64018SOL     OW93885  12.259   3.226  13.739
64018SOL    HW193886  12.352   3.205  13.725
64018SOL    HW293887  12.257   3.321  13.746
64019SOL     OW93888  10.576  11.986  10.578
64019SOL    HW193889  10.551  11.908  10.530
64019SOL    HW293890  10.668  11.973  10.599
64020SOL     OW93891   0.956   6.646  11.008
64020SOL    HW193892   0.868   6.619  10.981
64020SOL    HW293893   0.961   6.623  11.101
64021SOL     OW93894   0.005   6.282  10.053
64021SOL    HW193895   0.040   6.226   9.984
64021SOL    HW293896  14.826   6.340  10.007
64022SOL     OW93897   9.973  13.699   1.669
64022SOL    HW193898  10.000  13.652   1.590
64022SOL    HW293899   9.893  13.745   1.644
64023SOL     OW93900   6.996   3.269  11.139
64023SOL    HW193901   7.052   3.216  11.196
64023SOL    HW293902   6.907   3.244  11.164
64024SOL     OW93903  13.849   1.289   8.550
64024SOL    HW193904  13.812   1.367   8.590
64024SOL    HW293905  13.929   1.320   8.508
64025SOL     OW93906  14.558   0.789   8.774
64025SOL    HW193907  14.513   0.743   8.703
64025SOL    HW293908  14.492   0.845   8.813
64026SOL     OW93909   3.268   9.438  11.576
64026SOL    HW193910   3.182   9.466  11.545
64026SOL    HW293911   3.307   9.517  11.614
64027SOL     OW93912   9.029  13.560   5.526
64027SOL    HW193913   9.014  13.621   5.598
64027SOL    HW293914   9.120  13.576   5.501
64028SOL     OW93915   9.279   7.669   8.308
64028SOL    HW193916   9.286   7.596   8.370
64028SOL    HW293917   9.229   7.633   8.234
64029SOL     OW93918   3.957   6.958   0.817
64029SOL    HW193919   4.034   6.947   0.762
64029SOL    HW293920   3.887   6.980   0.756
64030SOL     OW93921   5.144   2.013   4.937
64030SOL    HW193922   5.079   2.006   4.866
64030SOL    HW293923   5.228   2.010   4.892
64031SOL     OW93924   4.080  13.032   0.969
64031SOL    HW193925   4.063  13.115   1.013
64031SOL    HW293926   4.015  13.028   0.899
64032SOL     OW93927   6.130  11.967  13.963
64032SOL    HW193928   6.035  11.966  13.971
64032SOL    HW293929   6.156  12.052  13.999
64033SOL     OW93930  14.635   9.457   0.136
64033SOL    HW193931  14.580   9.515   0.084
64033SOL    HW293932  14.684   9.515   0.194
64034SOL     OW93933   7.264   3.118  14.395
64034SOL    HW193934   7.280   3.040  14.448
64034SOL    HW293935   7.237   3.185  14.458
64035SOL     OW93936   1.639  11.728   4.046
64035SOL    HW193937   1.629  11.727   3.951
64035SOL    HW293938   1.702  11.798   4.063
64036SOL     OW93939   9.585  10.609   7.317
64036SOL    HW193940   9.494  10.620   7.343
64036SOL    HW293941   9.635  10.654   7.386
64037SOL     OW93942  10.103   2.905   9.409
64037SOL    HW193943  10.151   2.973   9.457
64037SOL    HW293944  10.161   2.879   9.338
64038SOL     OW93945   9.050  14.546  11.829
64038SOL    HW193946   9.121  14.548  11.894
64038SOL    HW293947   9.034  14.639  11.809
64039SOL     OW93948  13.438  13.650   8.189
64039SOL    HW193949  13.408  13.741   8.191
64039SOL    HW293950  13.396  13.609   8.265
64040SOL     OW93951   8.831  11.068   0.440
64040SOL    HW193952   8.809  10.987   0.393
64040SOL    HW293953   8.865  11.039   0.524
64041SOL     OW93954  10.251   5.660  13.132
64041SOL    HW193955  10.339   5.646  13.167
64041SOL    HW293956  10.260   5.647  13.038
64042SOL     OW93957   0.443  13.494   6.126
64042SOL    HW193958   0.365  13.441   6.110
64042SOL    HW293959   0.507  13.434   6.164
64043SOL     OW93960  11.407   2.690   3.388
64043SOL    HW193961  11.440   2.612   3.342
64043SOL    HW293962  11.389   2.752   3.318
64044SOL     OW93963   9.829   8.550   6.643
64044SOL    HW193964   9.775   8.619   6.606
64044SOL    HW293965   9.821   8.561   6.738
64045SOL     OW93966   4.100   7.242  12.498
64045SOL    HW193967   4.061   7.301  12.562
64045SOL    HW293968   4.114   7.296  12.420
64046SOL     OW93969  13.935   8.434   9.858
64046SOL    HW193970  13.965   8.412   9.946
64046SOL    HW293971  14.010   8.415   9.802
64047SOL     OW93972  12.414  12.715   5.590
64047SOL    HW193973  12.401  12.685   5.500
64047SOL    HW293974  12.445  12.637   5.637
64048SOL     OW93975   6.683  13.386   6.232
64048SOL    HW193976   6.653  13.298   6.208
64048SOL    HW293977   6.684  13.433   6.149
64049SOL     OW93978   4.159   5.800  11.485
64049SOL    HW193979   4.109   5.757  11.555
64049SOL    HW293980   4.244   5.818  11.524
64050SOL     OW93981   6.658   3.887   6.072
64050SOL    HW193982   6.694   3.869   6.158
64050SOL    HW293983   6.721   3.848   6.011
64051SOL     OW93984  14.698  11.543  11.959
64051SOL    HW193985  14.699  11.617  11.898
64051SOL    HW293986  14.695  11.583  12.046
64052SOL     OW93987   1.041   5.913  11.231
64052SOL    HW193988   0.970   5.977  11.237
64052SOL    HW293989   1.089   5.939  11.152
64053SOL     OW93990   8.315   0.385   8.050
64053SOL    HW193991   8.362   0.433   7.982
64053SOL    HW293992   8.227   0.423   8.049
64054SOL     OW93993  12.435  10.587  10.901
64054SOL    HW193994  12.363  10.580  10.964
64054SOL    HW293995  12.396  10.556  10.819
64055SOL     OW93996   7.869  14.445   2.351
64055SOL    HW193997   7.842  14.387   2.423
64055SOL    HW293998   7.878  14.531   2.392
64056SOL     OW93999   2.249  13.377  12.309
64056SOL    HW194000   2.311  13.444  12.281
64056SOL    HW294001   2.256  13.309  12.242
64057SOL     OW94002   9.036   7.177   9.581
64057SOL    HW194003   9.102   7.217   9.638
64057SOL    HW294004   9.056   7.084   9.583
64058SOL     OW94005  13.554  10.580  14.663
64058SOL    HW194006  13.485  10.632  14.704
64058SOL    HW294007  13.621  10.571  14.731
64059SOL     OW94008   3.289   4.853  10.948
64059SOL    HW194009   3.216   4.910  10.924
64059SOL    HW294010   3.336   4.837  10.866
64060SOL     OW94011   9.356  14.107  11.012
64060SOL    HW194012   9.295  14.152  11.070
64060SOL    HW294013   9.427  14.169  10.998
64061SOL     OW94014   4.619   3.001   7.954
64061SOL    HW194015   4.578   2.952   7.883
64061SOL    HW294016   4.546   3.035   8.006
64062SOL     OW94017   6.155   2.465   5.573
64062SOL    HW194018   6.143   2.398   5.640
64062SOL    HW294019   6.248   2.485   5.575
64063SOL     OW94020   8.592  11.569   4.690
64063SOL    HW194021   8.536  11.608   4.622
64063SOL    HW294022   8.615  11.642   4.747
64064SOL     OW94023  10.687   7.599   5.744
64064SOL    HW194024  10.756   7.550   5.699
64064SOL    HW294025  10.605   7.565   5.707
64065SOL     OW94026   3.525   1.676  11.842
64065SOL    HW194027   3.469   1.743  11.881
64065SOL    HW294028   3.566   1.720  11.767
64066SOL     OW94029   2.204   0.131  10.197
64066SOL    HW194030   2.198   0.087  10.112
64066SOL    HW294031   2.134   0.092  10.249
64067SOL     OW94032   6.558  12.215   1.252
64067SOL    HW194033   6.621  12.192   1.183
64067SOL    HW294034   6.474  12.183   1.219
64068SOL     OW94035   0.332  12.394   6.189
64068SOL    HW194036   0.349  12.304   6.161
64068SOL    HW294037   0.317  12.442   6.108
64069SOL     OW94038   8.642   3.738  10.981
64069SOL    HW194039   8.564   3.769  11.027
64069SOL    HW294040   8.694   3.696  11.048
64070SOL     OW94041   6.801   3.057  12.655
64070SOL    HW194042   6.853   3.133  12.628
64070SOL    HW294043   6.787   3.069  12.748
64071SOL     OW94044   4.449   3.795   6.676
64071SOL    HW194045   4.538   3.772   6.648
64071SOL    HW294046   4.458   3.883   6.713
64072SOL     OW94047   0.613   4.897  13.263
64072SOL    HW194048   0.549   4.827  13.256
64072SOL    HW294049   0.560   4.976  13.278
64073SOL     OW94050   3.393   2.743  13.298
64073SOL    HW194051   3.410   2.683  13.370
64073SOL    HW294052   3.468   2.803  13.298
64074SOL     OW94053   8.110  11.533   7.544
64074SOL    HW194054   8.090  11.612   7.493
64074SOL    HW294055   8.127  11.564   7.632
64075SOL     OW94056   1.647  10.241   1.990
64075SOL    HW194057   1.729  10.193   2.006
64075SOL    HW294058   1.652  10.266   1.898
64076SOL     OW94059   4.673  11.116   7.850
64076SOL    HW194060   4.763  11.145   7.836
64076SOL    HW294061   4.650  11.070   7.770
64077SOL     OW94062   6.559  13.075  12.751
64077SOL    HW194063   6.584  13.026  12.673
64077SOL    HW294064   6.593  13.163  12.736
64078SOL     OW94065   6.926   7.111   8.764
64078SOL    HW194066   6.832   7.094   8.755
64078SOL    HW294067   6.950   7.066   8.846
64079SOL     OW94068   5.932   0.185   1.899
64079SOL    HW194069   6.000   0.252   1.910
64079SOL    HW294070   5.853   0.234   1.877
64080SOL     OW94071   3.617   3.706  11.252
64080SOL    HW194072   3.612   3.785  11.305
64080SOL    HW294073   3.709   3.699  11.228
64081SOL     OW94074   7.372  13.236   7.079
64081SOL    HW194075   7.430  13.186   7.021
64081SOL    HW294076   7.301  13.175   7.101
64082SOL     OW94077  12.343  14.168   4.874
64082SOL    HW194078  12.335  14.199   4.784
64082SOL    HW294079  12.288  14.227   4.925
64083SOL     OW94080  12.469  12.538   9.887
64083SOL    HW194081  12.401  12.486   9.845
64083SOL    HW294082  12.542  12.477   9.897
64084SOL     OW94083   1.355   3.120   6.371
64084SOL    HW194084   1.285   3.073   6.326
64084SOL    HW294085   1.374   3.195   6.314
64085SOL     OW94086   0.658   8.388   4.994
64085SOL    HW194087   0.593   8.359   5.059
64085SOL    HW294088   0.607   8.399   4.913
64086SOL     OW94089   4.225  10.654  11.130
64086SOL    HW194090   4.264  10.568  11.148
64086SOL    HW294091   4.196  10.648  11.039
64087SOL     OW94092  10.782  10.967  11.129
64087SOL    HW194093  10.718  10.896  11.139
64087SOL    HW294094  10.864  10.922  11.109
64088SOL     OW94095   4.491   6.610  11.160
64088SOL    HW194096   4.405   6.642  11.133
64088SOL    HW294097   4.551   6.647  11.096
64089SOL     OW94098  13.446  13.460   2.587
64089SOL    HW194099  13.524  13.417   2.552
64089SOL    HW294100  13.405  13.394   2.642
64090SOL     OW94101   6.227   3.581  13.149
64090SOL    HW194102   6.216   3.675  13.162
64090SOL    HW294103   6.269   3.573  13.063
64091SOL     OW94104  12.071   5.196  12.839
64091SOL    HW194105  12.007   5.265  12.856
64091SOL    HW294106  12.047   5.162  12.753
64092SOL     OW94107   7.540   2.820  14.844
64092SOL    HW194108   7.471   2.877  14.876
64092SOL    HW294109   7.582   2.785   0.041
64093SOL     OW94110   4.687   3.908   1.266
64093SOL    HW194111   4.605   3.950   1.291
64093SOL    HW294112   4.709   3.852   1.340
64094SOL     OW94113  12.653  10.972   1.508
64094SOL    HW194114  12.639  11.039   1.575
64094SOL    HW294115  12.715  11.011   1.447
64095SOL     OW94116   3.119   9.911   5.439
64095SOL    HW194117   3.035   9.892   5.398
64095SOL    HW294118   3.170   9.956   5.372
64096SOL     OW94119  12.099  12.427  11.442
64096SOL    HW194120  12.026  12.366  11.430
64096SOL    HW294121  12.176  12.371  11.447
64097SOL     OW94122  11.646   0.682   9.789
64097SOL    HW194123  11.719   0.744   9.777
64097SOL    HW294124  11.611   0.668   9.701
64098SOL     OW94125   6.995   8.416  13.677
64098SOL    HW194126   7.087   8.389  13.678
64098SOL    HW294127   6.947   8.333  13.671
64099SOL     OW94128   2.978   5.631  13.320
64099SOL    HW194129   3.071   5.643  13.341
64099SOL    HW294130   2.934   5.707  13.358
64100SOL     OW94131   6.629  12.019   0.617
64100SOL    HW194132   6.558  12.028   0.680
64100SOL    HW294133   6.593  11.963   0.548
64101SOL     OW94134   1.844   2.151  11.729
64101SOL    HW194135   1.798   2.155  11.645
64101SOL    HW294136   1.780   2.185  11.792
64102SOL     OW94137   3.613   8.150  12.239
64102SOL    HW194138   3.585   8.152  12.148
64102SOL    HW294139   3.556   8.213  12.283
64103SOL     OW94140   8.800   5.919   0.705
64103SOL    HW194141   8.800   6.013   0.691
64103SOL    HW294142   8.774   5.908   0.796
64104SOL     OW94143   1.184   0.703   5.306
64104SOL    HW194144   1.168   0.765   5.235
64104SOL    HW294145   1.151   0.747   5.384
64105SOL     OW94146   4.531   2.049   8.807
64105SOL    HW194147   4.516   2.111   8.878
64105SOL    HW294148   4.452   2.053   8.754
64106SOL     OW94149   5.333   4.265   5.171
64106SOL    HW194150   5.273   4.216   5.228
64106SOL    HW294151   5.300   4.355   5.174
64107SOL     OW94152  11.974   3.496   7.745
64107SOL    HW194153  11.971   3.591   7.758
64107SOL    HW294154  11.888   3.465   7.775
64108SOL     OW94155  10.986   5.389   4.126
64108SOL    HW194156  11.007   5.317   4.066
64108SOL    HW294157  11.032   5.368   4.207
64109SOL     OW94158  11.234   0.550  11.250
64109SOL    HW194159  11.217   0.456  11.246
64109SOL    HW294160  11.170   0.583  11.314
64110SOL     OW94161   3.991   2.388  10.866
64110SOL    HW194162   3.919   2.374  10.804
64110SOL    HW294163   3.955   2.450  10.930
64111SOL     OW94164  11.621   9.236   9.533
64111SOL    HW194165  11.578   9.167   9.582
64111SOL    HW294166  11.656   9.192   9.455
64112SOL     OW94167   3.264   9.311   1.396
64112SOL    HW194168   3.223   9.324   1.311
64112SOL    HW294169   3.349   9.354   1.389
64113SOL     OW94170   3.632   6.942  12.333
64113SOL    HW194171   3.600   6.892  12.258
64113SOL    HW294172   3.694   7.004  12.296
64114SOL     OW94173  10.847   4.445  11.721
64114SOL    HW194174  10.759   4.477  11.742
64114SOL    HW294175  10.839   4.407  11.634
64115SOL     OW94176   3.894   6.866   2.493
64115SOL    HW194177   3.957   6.822   2.550
64115SOL    HW294178   3.916   6.958   2.498
64116SOL     OW94179  12.984   0.095   7.873
64116SOL    HW194180  12.921   0.023   7.863
64116SOL    HW294181  12.935   0.173   7.846
64117SOL     OW94182   7.796  10.284  11.727
64117SOL    HW194183   7.735  10.213  11.705
64117SOL    HW294184   7.874  10.266  11.675
64118SOL     OW94185   0.558   7.124  11.318
64118SOL    HW194186   0.642   7.160  11.288
64118SOL    HW294187   0.566   7.030  11.305
64119SOL     OW94188  12.988   2.669   0.478
64119SOL    HW194189  12.913   2.617   0.509
64119SOL    HW294190  12.997   2.645   0.385
64120SOL     OW94191  13.221   6.045  10.676
64120SOL    HW194192  13.166   6.046  10.754
64120SOL    HW294193  13.308   6.070  10.708
64121SOL     OW94194  11.628  13.298   3.927
64121SOL    HW194195  11.552  13.328   3.976
64121SOL    HW294196  11.695  13.281   3.994
64122SOL     OW94197   8.346  13.693  13.943
64122SOL    HW194198   8.303  13.614  13.911
64122SOL    HW294199   8.390  13.729  13.866
64123SOL     OW94200  13.538  12.637   7.435
64123SOL    HW194201  13.529  12.656   7.342
64123SOL    HW294202  13.633  12.627   7.448
64124SOL     OW94203   9.521  11.581  12.326
64124SOL    HW194204   9.507  11.495  12.365
64124SOL    HW294205   9.577  11.565  12.250
64125SOL     OW94206   3.808   5.460   9.128
64125SOL    HW194207   3.890   5.486   9.086
64125SOL    HW294208   3.758   5.541   9.136
64126SOL     OW94209   1.422  12.393  12.810
64126SOL    HW194210   1.383  12.422  12.892
64126SOL    HW294211   1.347  12.365  12.757
64127SOL     OW94212   2.544   2.096   7.320
64127SOL    HW194213   2.480   2.087   7.391
64127SOL    HW294214   2.530   2.184   7.286
64128SOL     OW94215   0.625   9.637  13.833
64128SOL    HW194216   0.713   9.603  13.849
64128SOL    HW294217   0.570   9.559  13.829
64129SOL     OW94218   4.127  14.155   3.734
64129SOL    HW194219   4.120  14.235   3.683
64129SOL    HW294220   4.201  14.170   3.793
64130SOL     OW94221  11.702   2.024  13.608
64130SOL    HW194222  11.660   2.085  13.547
64130SOL    HW294223  11.738   1.956  13.553
64131SOL     OW94224  10.243   4.586  11.282
64131SOL    HW194225  10.270   4.537  11.204
64131SOL    HW294226  10.148   4.573  11.287
64132SOL     OW94227   4.551  10.059   3.904
64132SOL    HW194228   4.470  10.010   3.896
64132SOL    HW294229   4.552  10.089   3.996
64133SOL     OW94230   2.984   6.793   5.868
64133SOL    HW194231   3.066   6.841   5.874
64133SOL    HW294232   2.989   6.747   5.784
64134SOL     OW94233  10.883   4.879   6.914
64134SOL    HW194234  10.875   4.898   7.008
64134SOL    HW294235  10.963   4.827   6.907
64135SOL     OW94236   7.648   1.591   5.663
64135SOL    HW194237   7.573   1.599   5.722
64135SOL    HW294238   7.724   1.593   5.721
64136SOL     OW94239   6.770   9.534   0.629
64136SOL    HW194240   6.844   9.543   0.689
64136SOL    HW294241   6.713   9.469   0.670
64137SOL     OW94242   6.407  11.620   9.350
64137SOL    HW194243   6.377  11.537   9.386
64137SOL    HW294244   6.328  11.674   9.343
64138SOL     OW94245   8.856   1.319   5.251
64138SOL    HW194246   8.767   1.309   5.284
64138SOL    HW294247   8.847   1.372   5.172
64139SOL     OW94248   1.271   8.666   2.497
64139SOL    HW194249   1.330   8.726   2.451
64139SOL    HW294250   1.296   8.674   2.589
64140SOL     OW94251  11.836   4.464  14.660
64140SOL    HW194252  11.766   4.405  14.631
64140SOL    HW294253  11.891   4.410  14.716
64141SOL     OW94254   9.857   6.741   3.534
64141SOL    HW194255   9.828   6.764   3.623
64141SOL    HW294256   9.848   6.821   3.484
64142SOL     OW94257   1.149   7.449   8.012
64142SOL    HW194258   1.180   7.454   8.103
64142SOL    HW294259   1.193   7.522   7.968
64143SOL     OW94260   3.458   6.086  10.373
64143SOL    HW194261   3.430   6.080  10.464
64143SOL    HW294262   3.526   6.019  10.363
64144SOL     OW94263   2.782   5.698   9.432
64144SOL    HW194264   2.729   5.649   9.495
64144SOL    HW294265   2.815   5.773   9.482
64145SOL     OW94266  11.072  14.211   4.214
64145SOL    HW194267  10.994  14.188   4.264
64145SOL    HW294268  11.064  14.160   4.133
64146SOL     OW94269   2.192   3.932   4.379
64146SOL    HW194270   2.213   4.019   4.346
64146SOL    HW294271   2.144   3.948   4.460
64147SOL     OW94272   8.912   4.426  10.012
64147SOL    HW194273   8.926   4.462  10.099
64147SOL    HW294274   8.892   4.333  10.027
64148SOL     OW94275   1.570  12.682   6.255
64148SOL    HW194276   1.492  12.627   6.270
64148SOL    HW294277   1.535  12.763   6.219
64149SOL     OW94278   6.953   5.343   3.650
64149SOL    HW194279   7.029   5.290   3.675
64149SOL    HW294280   6.892   5.280   3.611
64150SOL     OW94281  14.773   9.384   6.344
64150SOL    HW194282  14.802   9.326   6.274
64150SOL    HW294283  14.818   9.351   6.422
64151SOL     OW94284  13.872   6.525  13.020
64151SOL    HW194285  13.919   6.471  13.084
64151SOL    HW294286  13.812   6.464  12.977
64152SOL     OW94287  14.768  13.026  14.263
64152SOL    HW194288  14.756  12.931  14.259
64152SOL    HW294289  14.681  13.061  14.280
64153SOL     OW94290   8.554  12.342   3.741
64153SOL    HW194291   8.562  12.434   3.766
64153SOL    HW294292   8.636  12.302   3.769
64154SOL     OW94293  13.266   1.120  14.849
64154SOL    HW194294  13.316   1.067  14.786
64154SOL    HW294295  13.317   1.114   0.048
64155SOL     OW94296  12.461   5.151   2.767
64155SOL    HW194297  12.484   5.150   2.674
64155SOL    HW294298  12.486   5.238   2.797
64156SOL     OW94299   5.814  11.415   0.565
64156SOL    HW194300   5.725  11.427   0.598
64156SOL    HW294301   5.870  11.458   0.629
64157SOL     OW94302  10.307   8.637   6.198
64157SOL    HW194303  10.291   8.575   6.126
64157SOL    HW294304  10.313   8.582   6.276
64158SOL     OW94305   7.195   4.084   9.052
64158SOL    HW194306   7.163   4.096   9.141
64158SOL    HW294307   7.255   4.157   9.038
64159SOL     OW94308  10.250   6.401  11.581
64159SOL    HW194309  10.223   6.456  11.508
64159SOL    HW294310  10.170   6.383  11.629
64160SOL     OW94311   3.480  13.292  12.684
64160SOL    HW194312   3.458  13.239  12.761
64160SOL    HW294313   3.573  13.274  12.669
64161SOL     OW94314   0.275   8.754  13.499
64161SOL    HW194315   0.199   8.700  13.478
64161SOL    HW294316   0.257   8.838  13.456
64162SOL     OW94317   7.155   6.618   8.255
64162SOL    HW194318   7.154   6.573   8.171
64162SOL    HW294319   7.078   6.675   8.253
64163SOL     OW94320  10.895  14.076   4.651
64163SOL    HW194321  10.809  14.053   4.617
64163SOL    HW294322  10.916  14.005   4.713
64164SOL     OW94323   5.487   2.789   3.337
64164SOL    HW194324   5.475   2.822   3.426
64164SOL    HW294325   5.404   2.807   3.293
64165SOL     OW94326  13.715  10.779   5.089
64165SOL    HW194327  13.676  10.823   5.014
64165SOL    HW294328  13.642  10.762   5.148
64166SOL     OW94329   0.348  11.978   9.621
64166SOL    HW194330   0.321  12.070   9.620
64166SOL    HW294331   0.440  11.980   9.645
64167SOL     OW94332   0.286   0.449   7.415
64167SOL    HW194333   0.215   0.428   7.355
64167SOL    HW294334   0.350   0.380   7.402
64168SOL     OW94335   5.657   9.759   9.550
64168SOL    HW194336   5.606   9.836   9.575
64168SOL    HW294337   5.621   9.688   9.603
64169SOL     OW94338   7.970   7.111   6.245
64169SOL    HW194339   7.967   7.205   6.258
64169SOL    HW294340   7.922   7.075   6.319
64170SOL     OW94341   6.451   5.860   3.547
64170SOL    HW194342   6.489   5.850   3.460
64170SOL    HW294343   6.456   5.954   3.565
64171SOL     OW94344   0.410   4.433  11.564
64171SOL    HW194345   0.442   4.513  11.605
64171SOL    HW294346   0.315   4.436  11.577
64172SOL     OW94347   6.687   3.808  14.806
64172SOL    HW194348   6.753   3.837  14.744
64172SOL    HW294349   6.666   3.719  14.779
64173SOL     OW94350  10.354   6.632   7.029
64173SOL    HW194351  10.355   6.550   6.981
64173SOL    HW294352  10.337   6.607   7.120
64174SOL     OW94353   2.342   6.929   5.383
64174SOL    HW194354   2.285   7.001   5.357
64174SOL    HW294355   2.431   6.964   5.375
64175SOL     OW94356   2.705   2.299  14.667
64175SOL    HW194357   2.730   2.212  14.636
64175SOL    HW294358   2.688   2.349  14.587
64176SOL     OW94359   8.698   3.721   0.794
64176SOL    HW194360   8.766   3.789   0.795
64176SOL    HW294361   8.668   3.719   0.703
64177SOL     OW94362  12.893  11.417   8.153
64177SOL    HW194363  12.837  11.466   8.213
64177SOL    HW294364  12.839  11.403   8.075
64178SOL     OW94365   5.079  13.476   6.938
64178SOL    HW194366   5.136  13.445   6.868
64178SOL    HW294367   5.113  13.433   7.017
64179SOL     OW94368   8.652  14.098   8.349
64179SOL    HW194369   8.604  14.016   8.356
64179SOL    HW294370   8.618  14.140   8.270
64180SOL     OW94371   9.392   0.229   2.409
64180SOL    HW194372   9.445   0.167   2.358
64180SOL    HW294373   9.454   0.271   2.468
64181SOL     OW94374   4.674  10.594   3.881
64181SOL    HW194375   4.607  10.530   3.908
64181SOL    HW294376   4.745  10.541   3.845
64182SOL     OW94377  14.376  13.426   4.842
64182SOL    HW194378  14.420  13.511   4.838
64182SOL    HW294379  14.444  13.364   4.869
64183SOL     OW94380   9.731   8.652   8.746
64183SOL    HW194381   9.745   8.733   8.796
64183SOL    HW294382   9.751   8.676   8.656
64184SOL     OW94383   7.775   3.942   4.341
64184SOL    HW194384   7.749   3.967   4.430
64184SOL    HW294385   7.866   3.971   4.333
64185SOL     OW94386   6.238  12.917  12.486
64185SOL    HW194387   6.314  12.907  12.428
64185SOL    HW294388   6.181  12.843  12.463
64186SOL     OW94389   9.051   5.570   3.099
64186SOL    HW194390   9.007   5.650   3.069
64186SOL    HW294391   8.989   5.532   3.162
64187SOL     OW94392   7.373   6.609   2.848
64187SOL    HW194393   7.417   6.532   2.813
64187SOL    HW294394   7.419   6.683   2.808
64188SOL     OW94395   1.565   6.054   7.889
64188SOL    HW194396   1.588   6.116   7.821
64188SOL    HW294397   1.483   6.015   7.858
64189SOL     OW94398   2.947   5.732  11.585
64189SOL    HW194399   2.872   5.727  11.525
64189SOL    HW294400   2.910   5.712  11.671
64190SOL     OW94401   7.661   0.554   9.846
64190SOL    HW194402   7.722   0.490   9.882
64190SOL    HW294403   7.575   0.516   9.861
64191SOL     OW94404   1.300   6.156  13.124
64191SOL    HW194405   1.216   6.146  13.079
64191SOL    HW294406   1.364   6.159  13.053
64192SOL     OW94407  12.321   5.150   4.484
64192SOL    HW194408  12.340   5.127   4.575
64192SOL    HW294409  12.377   5.226   4.467
64193SOL     OW94410   2.372  11.869   8.424
64193SOL    HW194411   2.379  11.778   8.398
64193SOL    HW294412   2.326  11.912   8.352
64194SOL     OW94413   7.091  13.138   0.428
64194SOL    HW194414   7.137  13.203   0.481
64194SOL    HW294415   7.159  13.077   0.400
64195SOL     OW94416  10.573   5.929   0.542
64195SOL    HW194417  10.613   5.977   0.615
64195SOL    HW294418  10.596   5.838   0.558
64196SOL     OW94419  13.247   0.553   3.630
64196SOL    HW194420  13.260   0.647   3.642
64196SOL    HW294421  13.177   0.530   3.691
64197SOL     OW94422  14.556   8.348  11.469
64197SOL    HW194423  14.488   8.391  11.522
64197SOL    HW294424  14.547   8.388  11.382
64198SOL     OW94425   1.512  14.263  14.770
64198SOL    HW194426   1.591  14.292  14.725
64198SOL    HW294427   1.442  14.277  14.707
64199SOL     OW94428   6.111  13.140   7.722
64199SOL    HW194429   6.180  13.153   7.787
64199SOL    HW294430   6.135  13.197   7.649
64200SOL     OW94431   0.924   5.311   1.779
64200SOL    HW194432   0.991   5.280   1.840
64200SOL    HW294433   0.969   5.376   1.725
64201SOL     OW94434   0.523   7.315  11.662
64201SOL    HW194435   0.547   7.306  11.754
64201SOL    HW294436   0.493   7.228  11.637
64202SOL     OW94437   0.258   5.026   0.329
64202SOL    HW194438   0.351   5.004   0.334
64202SOL    HW294439   0.215   4.945   0.302
64203SOL     OW94440  13.990   1.665   3.738
64203SOL    HW194441  13.940   1.708   3.668
64203SOL    HW294442  14.046   1.602   3.693
64204SOL     OW94443   6.214   5.672   1.722
64204SOL    HW194444   6.122   5.699   1.725
64204SOL    HW294445   6.248   5.710   1.641
64205SOL     OW94446   2.104   9.910   4.269
64205SOL    HW194447   2.011   9.911   4.288
64205SOL    HW294448   2.147   9.916   4.354
64206SOL     OW94449   7.644   4.501   3.114
64206SOL    HW194450   7.616   4.436   3.049
64206SOL    HW294451   7.576   4.497   3.181
64207SOL     OW94452   6.073   2.574   5.963
64207SOL    HW194453   6.004   2.622   5.916
64207SOL    HW294454   6.146   2.635   5.968
64208SOL     OW94455   0.454  11.335  12.033
64208SOL    HW194456   0.364  11.317  12.006
64208SOL    HW294457   0.500  11.253  12.019
64209SOL     OW94458  13.314  10.177   9.216
64209SOL    HW194459  13.326  10.204   9.306
64209SOL    HW294460  13.340  10.085   9.214
64210SOL     OW94461   8.991   6.270  13.741
64210SOL    HW194462   8.939   6.200  13.702
64210SOL    HW294463   8.985   6.343  13.679
64211SOL     OW94464   5.407   4.647   7.770
64211SOL    HW194465   5.360   4.587   7.828
64211SOL    HW294466   5.460   4.589   7.715
64212SOL     OW94467  14.591   7.217   0.507
64212SOL    HW194468  14.515   7.159   0.515
64212SOL    HW294469  14.556   7.305   0.524
64213SOL     OW94470   6.786   1.111   2.340
64213SOL    HW194471   6.866   1.109   2.288
64213SOL    HW294472   6.765   1.019   2.356
64214SOL     OW94473  13.952   6.836   2.451
64214SOL    HW194474  13.924   6.776   2.381
64214SOL    HW294475  14.044   6.854   2.431
64215SOL     OW94476   2.514  10.360   2.374
64215SOL    HW194477   2.575  10.303   2.421
64215SOL    HW294478   2.443  10.301   2.346
64216SOL     OW94479   5.492   3.408   9.191
64216SOL    HW194480   5.524   3.334   9.244
64216SOL    HW294481   5.547   3.481   9.218
64217SOL     OW94482   4.571   1.351  12.201
64217SOL    HW194483   4.546   1.433  12.159
64217SOL    HW294484   4.635   1.313  12.141
64218SOL     OW94485   8.110   8.870   8.338
64218SOL    HW194486   8.036   8.926   8.316
64218SOL    HW294487   8.087   8.833   8.423
64219SOL     OW94488  11.511   6.773   1.480
64219SOL    HW194489  11.491   6.699   1.538
64219SOL    HW294490  11.427   6.818   1.470
64220SOL     OW94491   6.282   6.326   6.179
64220SOL    HW194492   6.292   6.340   6.085
64220SOL    HW294493   6.336   6.249   6.198
64221SOL     OW94494  11.781   0.822  13.296
64221SOL    HW194495  11.790   0.734  13.333
64221SOL    HW294496  11.686   0.835  13.292
64222SOL     OW94497   2.575  14.442  12.358
64222SOL    HW194498   2.614  14.394  12.285
64222SOL    HW294499   2.481  14.443  12.339
64223SOL     OW94500   4.405   4.454   0.954
64223SOL    HW194501   4.361   4.416   1.030
64223SOL    HW294502   4.459   4.524   0.989
64224SOL     OW94503   2.772  14.151   2.786
64224SOL    HW194504   2.765  14.243   2.810
64224SOL    HW294505   2.827  14.151   2.708
64225SOL     OW94506   5.436   6.563   6.285
64225SOL    HW194507   5.488   6.640   6.261
64225SOL    HW294508   5.449   6.502   6.212
64226SOL     OW94509   5.489   7.653   6.261
64226SOL    HW194510   5.483   7.697   6.176
64226SOL    HW294511   5.535   7.715   6.317
64227SOL     OW94512  12.412   9.630   2.046
64227SOL    HW194513  12.501   9.597   2.042
64227SOL    HW294514  12.358   9.560   2.009
64228SOL     OW94515  10.419  13.207   4.668
64228SOL    HW194516  10.353  13.255   4.619
64228SOL    HW294517  10.427  13.123   4.623
64229SOL     OW94518   8.838   8.046  13.693
64229SOL    HW194519   8.891   8.066  13.615
64229SOL    HW294520   8.847   7.952  13.705
64230SOL     OW94521   1.120  14.768   7.507
64230SOL    HW194522   1.147  14.689   7.554
64230SOL    HW294523   1.191  14.783   7.444
64231SOL     OW94524   0.617   3.032  13.510
64231SOL    HW194525   0.613   3.101  13.576
64231SOL    HW294526   0.527   3.024  13.479
64232SOL     OW94527   1.759  13.369  14.698
64232SOL    HW194528   1.714  13.451  14.720
64232SOL    HW294529   1.823  13.357  14.768
64233SOL     OW94530   5.909   7.020  14.501
64233SOL    HW194531   5.856   7.070  14.563
64233SOL    HW294532   5.995   7.061  14.505
64234SOL     OW94533   9.279  11.895   6.113
64234SOL    HW194534   9.334  11.972   6.126
64234SOL    HW294535   9.288  11.874   6.020
64235SOL     OW94536   7.529   0.536  10.226
64235SOL    HW194537   7.598   0.473  10.204
64235SOL    HW294538   7.448   0.486  10.219
64236SOL     OW94539   2.080   0.264  14.233
64236SOL    HW194540   2.078   0.357  14.255
64236SOL    HW294541   2.028   0.223  14.302
64237SOL     OW94542   7.033  11.345   7.989
64237SOL    HW194543   6.991  11.421   7.949
64237SOL    HW294544   6.987  11.270   7.950
64238SOL     OW94545  14.410   1.508   5.570
64238SOL    HW194546  14.443   1.519   5.481
64238SOL    HW294547  14.422   1.414   5.588
64239SOL     OW94548  10.264   0.350   0.888
64239SOL    HW194549  10.267   0.366   0.982
64239SOL    HW294550  10.333   0.405   0.851
64240SOL     OW94551  13.984   5.063  11.477
64240SOL    HW194552  13.962   5.097  11.391
64240SOL    HW294553  14.046   5.126  11.513
64241SOL     OW94554   6.402   4.577   9.801
64241SOL    HW194555   6.407   4.591   9.895
64241SOL    HW294556   6.493   4.560   9.775
64242SOL     OW94557   4.969   2.772   4.525
64242SOL    HW194558   4.878   2.795   4.545
64242SOL    HW294559   4.962   2.713   4.450
64243SOL     OW94560   6.695   7.980  12.708
64243SOL    HW194561   6.694   7.978  12.804
64243SOL    HW294562   6.647   8.060  12.686
64244SOL     OW94563  11.177   9.044   4.423
64244SOL    HW194564  11.143   8.969   4.472
64244SOL    HW294565  11.270   9.024   4.411
64245SOL     OW94566   2.170   8.743   8.012
64245SOL    HW194567   2.140   8.712   8.097
64245SOL    HW294568   2.113   8.701   7.948
64246SOL     OW94569  14.179  12.896   2.227
64246SOL    HW194570  14.224  12.883   2.311
64246SOL    HW294571  14.199  12.986   2.203
64247SOL     OW94572   9.761   1.370   1.842
64247SOL    HW194573   9.748   1.295   1.900
64247SOL    HW294574   9.841   1.348   1.794
64248SOL     OW94575   4.513   9.259   9.935
64248SOL    HW194576   4.603   9.288   9.950
64248SOL    HW294577   4.458   9.328   9.972
64249SOL     OW94578  13.626  10.172   5.241
64249SOL    HW194579  13.716  10.178   5.211
64249SOL    HW294580  13.580  10.241   5.194
64250SOL     OW94581   2.901   1.208   1.201
64250SOL    HW194582   2.928   1.122   1.232
64250SOL    HW294583   2.841   1.240   1.268
64251SOL     OW94584   0.228  12.268   2.192
64251SOL    HW194585   0.260  12.358   2.186
64251SOL    HW294586   0.180  12.254   2.110
64252SOL     OW94587  11.479   3.107  12.010
64252SOL    HW194588  11.427   3.141  12.083
64252SOL    HW294589  11.456   3.014  12.004
64253SOL     OW94590   6.586   0.120  11.924
64253SOL    HW194591   6.520   0.110  11.855
64253SOL    HW294592   6.654   0.056  11.902
64254SOL     OW94593   4.160  13.025   0.377
64254SOL    HW194594   4.101  13.028   0.301
64254SOL    HW294595   4.206  12.942   0.368
64255SOL     OW94596  13.704   9.867   4.240
64255SOL    HW194597  13.668   9.796   4.292
64255SOL    HW294598  13.794   9.877   4.272
64256SOL     OW94599   7.297   9.503  13.421
64256SOL    HW194600   7.379   9.520  13.468
64256SOL    HW294601   7.293   9.572  13.354
64257SOL     OW94602   7.816  11.318   0.673
64257SOL    HW194603   7.737  11.355   0.713
64257SOL    HW294604   7.796  11.226   0.660
64258SOL     OW94605   5.003   6.543   3.310
64258SOL    HW194606   5.066   6.554   3.380
64258SOL    HW294607   4.919   6.570   3.348
64259SOL     OW94608  11.289   6.194  10.212
64259SOL    HW194609  11.197   6.217  10.224
64259SOL    HW294610  11.335   6.278  10.213
64260SOL     OW94611   1.708   3.103   5.066
64260SOL    HW194612   1.684   3.117   4.974
64260SOL    HW294613   1.747   3.016   5.067
64261SOL     OW94614   7.919   9.940   8.285
64261SOL    HW194615   7.940   9.938   8.192
64261SOL    HW294616   8.000   9.970   8.327
64262SOL     OW94617   4.021  10.511   4.205
64262SOL    HW194618   3.957  10.442   4.215
64262SOL    HW294619   4.082  10.498   4.278
64263SOL     OW94620  12.576   5.249  10.585
64263SOL    HW194621  12.657   5.262  10.536
64263SOL    HW294622  12.519   5.320  10.555
64264SOL     OW94623  14.581   5.961   8.013
64264SOL    HW194624  14.656   6.020   8.019
64264SOL    HW294625  14.595   5.913   7.931
64265SOL     OW94626   9.704   5.776   6.907
64265SOL    HW194627   9.715   5.708   6.841
64265SOL    HW294628   9.744   5.854   6.868
64266SOL     OW94629   9.750   2.249   0.991
64266SOL    HW194630   9.745   2.329   1.043
64266SOL    HW294631   9.695   2.187   1.039
64267SOL     OW94632   8.843   2.015   9.669
64267SOL    HW194633   8.835   1.924   9.639
64267SOL    HW294634   8.778   2.023   9.738
64268SOL     OW94635   0.360   5.095  13.345
64268SOL    HW194636   0.390   5.115  13.256
64268SOL    HW294637   0.399   5.164  13.399
64269SOL     OW94638   8.851   4.275  11.040
64269SOL    HW194639   8.926   4.226  11.005
64269SOL    HW294640   8.846   4.248  11.132
64270SOL     OW94641  11.312   4.554  13.986
64270SOL    HW194642  11.365   4.598  14.052
64270SOL    HW294643  11.268   4.624  13.939
64271SOL     OW94644   3.929   1.414   5.793
64271SOL    HW194645   3.895   1.502   5.805
64271SOL    HW294646   3.874   1.359   5.849
64272SOL     OW94647   0.311   6.869   7.982
64272SOL    HW194648   0.350   6.782   7.988
64272SOL    HW294649   0.332   6.899   7.893
64273SOL     OW94650   7.118   7.227   9.386
64273SOL    HW194651   7.084   7.317   9.389
64273SOL    HW294652   7.171   7.224   9.306
64274SOL     OW94653  10.096   3.835   1.589
64274SOL    HW194654  10.021   3.787   1.624
64274SOL    HW294655  10.063   3.923   1.570
64275SOL     OW94656   6.712  11.629   4.817
64275SOL    HW194657   6.732  11.590   4.902
64275SOL    HW294658   6.790  11.678   4.794
64276SOL     OW94659   2.856   5.132   8.389
64276SOL    HW194660   2.913   5.088   8.452
64276SOL    HW294661   2.808   5.197   8.440
64277SOL     OW94662   7.465   2.066   8.939
64277SOL    HW194663   7.378   2.083   8.976
64277SOL    HW294664   7.448   2.021   8.856
64278SOL     OW94665   7.208   2.797  13.009
64278SOL    HW194666   7.277   2.858  12.982
64278SOL    HW294667   7.127   2.849  13.005
64279SOL     OW94668   7.280   6.349   3.027
64279SOL    HW194669   7.243   6.342   2.939
64279SOL    HW294670   7.267   6.440   3.052
64280SOL     OW94671  11.856   5.428  13.486
64280SOL    HW194672  11.898   5.492  13.428
64280SOL    HW294673  11.915   5.353  13.484
64281SOL     OW94674  13.492   0.503   5.222
64281SOL    HW194675  13.476   0.441   5.150
64281SOL    HW294676  13.411   0.554   5.228
64282SOL     OW94677  12.131   7.421   5.274
64282SOL    HW194678  12.188   7.403   5.199
64282SOL    HW294679  12.144   7.514   5.292
64283SOL     OW94680   5.764  12.708   4.627
64283SOL    HW194681   5.851  12.709   4.666
64283SOL    HW294682   5.716  12.777   4.673
64284SOL     OW94683   9.219   5.883   6.797
64284SOL    HW194684   9.252   5.968   6.828
64284SOL    HW294685   9.144   5.904   6.742
64285SOL     OW94686   0.777   7.109   4.462
64285SOL    HW194687   0.766   7.028   4.511
64285SOL    HW294688   0.688   7.132   4.433
64286SOL     OW94689   0.081  13.554  14.820
64286SOL    HW194690   0.055  13.644  14.840
64286SOL    HW294691   0.038  13.534  14.737
64287SOL     OW94692  12.917  14.470  12.991
64287SOL    HW194693  12.960  14.543  12.948
64287SOL    HW294694  12.829  14.502  13.011
64288SOL     OW94695   1.856   5.194  12.136
64288SOL    HW194696   1.918   5.264  12.156
64288SOL    HW294697   1.892   5.116  12.178
64289SOL     OW94698   4.970   4.535   2.378
64289SOL    HW194699   5.036   4.491   2.324
64289SOL    HW294700   4.889   4.487   2.360
64290SOL     OW94701   1.937   3.330   9.526
64290SOL    HW194702   1.974   3.248   9.493
64290SOL    HW294703   1.851   3.305   9.559
64291SOL     OW94704   2.313  10.357   3.058
64291SOL    HW194705   2.397  10.394   3.083
64291SOL    HW294706   2.255  10.377   3.133
64292SOL     OW94707  10.777   3.973  14.572
64292SOL    HW194708  10.709   3.990  14.506
64292SOL    HW294709  10.734   3.989  14.656
64293SOL     OW94710  11.459  13.457   2.164
64293SOL    HW194711  11.531  13.449   2.226
64293SOL    HW294712  11.404  13.527   2.200
64294SOL     OW94713   6.895  12.716   6.935
64294SOL    HW194714   6.973  12.698   6.882
64294SOL    HW294715   6.921  12.788   6.992
64295SOL     OW94716   9.441   7.767  10.365
64295SOL    HW194717   9.449   7.841  10.426
64295SOL    HW294718   9.444   7.807  10.278
64296SOL     OW94719  11.996  11.348   4.502
64296SOL    HW194720  11.951  11.355   4.418
64296SOL    HW294721  11.969  11.263   4.537
64297SOL     OW94722   0.788  10.434  12.311
64297SOL    HW194723   0.837  10.444  12.229
64297SOL    HW294724   0.835  10.365  12.359
64298SOL     OW94725  10.100  11.502   1.923
64298SOL    HW194726  10.155  11.468   1.994
64298SOL    HW294727  10.101  11.597   1.935
64299SOL     OW94728   5.301   7.444  14.215
64299SOL    HW194729   5.386   7.483  14.195
64299SOL    HW294730   5.308   7.416  14.306
64300SOL     OW94731   0.521  10.015  10.351
64300SOL    HW194732   0.513  10.066  10.431
64300SOL    HW294733   0.451  10.047  10.295
64301SOL     OW94734  10.442  12.347  14.198
64301SOL    HW194735  10.433  12.252  14.210
64301SOL    HW294736  10.374  12.370  14.135
64302SOL     OW94737  13.893   6.668   1.020
64302SOL    HW194738  13.827   6.698   1.083
64302SOL    HW294739  13.853   6.683   0.935
64303SOL     OW94740   9.869  13.445  14.696
64303SOL    HW194741   9.793  13.490  14.731
64303SOL    HW294742   9.925  13.515  14.661
64304SOL     OW94743  12.717   3.941   5.065
64304SOL    HW194744  12.623   3.943   5.047
64304SOL    HW294745  12.725   3.987   5.149
64305SOL     OW94746  10.119  10.081   4.725
64305SOL    HW194747  10.138  10.094   4.818
64305SOL    HW294748  10.069  10.159   4.701
64306SOL     OW94749   2.567   4.670  10.209
64306SOL    HW194750   2.528   4.701  10.291
64306SOL    HW294751   2.594   4.580  10.228
64307SOL     OW94752   3.924   8.749  12.622
64307SOL    HW194753   3.866   8.704  12.561
64307SOL    HW294754   3.866   8.777  12.693
64308SOL     OW94755  13.457   9.844  12.081
64308SOL    HW194756  13.491   9.860  11.993
64308SOL    HW294757  13.515   9.778  12.118
64309SOL     OW94758   5.001   4.611   8.615
64309SOL    HW194759   4.969   4.564   8.538
64309SOL    HW294760   4.995   4.703   8.591
64310SOL     OW94761   6.400   6.034  12.900
64310SOL    HW194762   6.416   6.128  12.885
64310SOL    HW294763   6.314   6.032  12.942
64311SOL     OW94764  13.725   8.450   8.775
64311SOL    HW194765  13.713   8.545   8.768
64311SOL    HW294766  13.806   8.440   8.823
64312SOL     OW94767  10.197   1.381   8.640
64312SOL    HW194768  10.267   1.445   8.635
64312SOL    HW294769  10.236   1.306   8.686
64313SOL     OW94770  12.170   7.936   2.927
64313SOL    HW194771  12.112   7.927   3.002
64313SOL    HW294772  12.249   7.977   2.962
64314SOL     OW94773   6.338   2.264   2.757
64314SOL    HW194774   6.247   2.290   2.776
64314SOL    HW294775   6.388   2.298   2.831
64315SOL     OW94776   8.737  12.098  10.514
64315SOL    HW194777   8.762  12.046  10.437
64315SOL    HW294778   8.648  12.070  10.534
64316SOL     OW94779   6.202   3.226  11.793
64316SOL    HW194780   6.225   3.177  11.872
64316SOL    HW294781   6.117   3.266  11.814
64317SOL     OW94782   5.501  13.849   2.854
64317SOL    HW194783   5.509  13.917   2.787
64317SOL    HW294784   5.473  13.896   2.933
64318SOL     OW94785  11.337  10.054  13.968
64318SOL    HW194786  11.292  10.129  14.008
64318SOL    HW294787  11.275  10.020  13.903
64319SOL     OW94788   8.334  13.116  13.599
64319SOL    HW194789   8.253  13.105  13.649
64319SOL    HW294790   8.365  13.203  13.623
64320SOL     OW94791   2.924   3.795   4.771
64320SOL    HW194792   2.876   3.823   4.694
64320SOL    HW294793   2.990   3.734   4.737
64321SOL     OW94794  11.949  14.492   4.454
64321SOL    HW194795  11.877  14.555   4.457
64321SOL    HW294796  11.952  14.454   4.541
64322SOL     OW94797   3.476  12.576   2.425
64322SOL    HW194798   3.399  12.634   2.422
64322SOL    HW294799   3.497  12.568   2.518
64323SOL     OW94800   6.903   2.358   3.027
64323SOL    HW194801   6.925   2.278   2.979
64323SOL    HW294802   6.977   2.417   3.010
64324SOL     OW94803  10.810  11.031   3.875
64324SOL    HW194804  10.850  11.001   3.956
64324SOL    HW294805  10.726  10.986   3.871
64325SOL     OW94806   0.028  13.538   0.281
64325SOL    HW194807  14.819  13.534   0.251
64325SOL    HW294808   0.065  13.453   0.255
64326SOL     OW94809  14.338   8.943   3.032
64326SOL    HW194810  14.276   8.921   3.102
64326SOL    HW294811  14.416   8.893   3.054
64327SOL     OW94812  11.796   8.120  12.168
64327SOL    HW194813  11.717   8.163  12.133
64327SOL    HW294814  11.866   8.148  12.109
64328SOL     OW94815   4.959   3.470  11.495
64328SOL    HW194816   5.020   3.438  11.562
64328SOL    HW294817   4.939   3.559  11.522
64329SOL     OW94818   4.964   4.131   5.152
64329SOL    HW194819   4.904   4.056   5.156
64329SOL    HW294820   5.015   4.125   5.233
64330SOL     OW94821   8.981   3.292   2.409
64330SOL    HW194822   9.010   3.282   2.318
64330SOL    HW294823   9.060   3.273   2.460
64331SOL     OW94824   3.849   3.783   6.775
64331SOL    HW194825   3.805   3.834   6.706
64331SOL    HW294826   3.844   3.839   6.853
64332SOL     OW94827   8.833   7.800   7.237
64332SOL    HW194828   8.825   7.799   7.141
64332SOL    HW294829   8.849   7.891   7.259
64333SOL     OW94830   8.321  10.764  12.424
64333SOL    HW194831   8.285  10.839  12.472
64333SOL    HW294832   8.363  10.710  12.492
64334SOL     OW94833   6.024  11.030  12.989
64334SOL    HW194834   6.001  11.109  13.039
64334SOL    HW294835   6.008  11.054  12.898
64335SOL     OW94836   6.237   2.749   4.787
64335SOL    HW194837   6.258   2.659   4.814
64335SOL    HW294838   6.154   2.741   4.741
64336SOL     OW94839   0.681   5.732  13.693
64336SOL    HW194840   0.751   5.795  13.709
64336SOL    HW294841   0.662   5.741  13.599
64337SOL     OW94842   3.031  12.002   4.351
64337SOL    HW194843   2.944  12.017   4.313
64337SOL    HW294844   3.017  11.931   4.413
64338SOL     OW94845  12.499   2.233   3.147
64338SOL    HW194846  12.583   2.252   3.106
64338SOL    HW294847  12.451   2.182   3.081
64339SOL     OW94848  11.954   1.998  14.531
64339SOL    HW194849  11.975   2.061  14.601
64339SOL    HW294850  12.038   1.984  14.486
64340SOL     OW94851  13.246   4.064   0.916
64340SOL    HW194852  13.221   4.149   0.950
64340SOL    HW294853  13.225   4.068   0.823
64341SOL     OW94854   9.029  13.441   1.896
64341SOL    HW194855   8.983  13.520   1.924
64341SOL    HW294856   8.961  13.387   1.856
64342SOL     OW94857   3.399   4.248   1.336
64342SOL    HW194858   3.483   4.201   1.333
64342SOL    HW294859   3.376   4.249   1.429
64343SOL     OW94860   4.852   3.211   1.025
64343SOL    HW194861   4.888   3.189   1.111
64343SOL    HW294862   4.841   3.127   0.981
64344SOL     OW94863  10.102  14.775  14.396
64344SOL    HW194864  10.071  14.840  14.459
64344SOL    HW294865  10.055  14.695  14.420
64345SOL     OW94866  13.523  11.771   5.855
64345SOL    HW194867  13.569  11.855   5.850
64345SOL    HW294868  13.543  11.738   5.942
64346SOL     OW94869  14.480   3.019   0.601
64346SOL    HW194870  14.464   2.984   0.513
64346SOL    HW294871  14.536   2.953   0.643
64347SOL     OW94872   8.033   2.029   6.830
64347SOL    HW194873   8.112   2.076   6.855
64347SOL    HW294874   7.973   2.098   6.800
64348SOL     OW94875   5.318  12.205  10.255
64348SOL    HW194876   5.361  12.123  10.232
64348SOL    HW294877   5.226  12.182  10.267
64349SOL     OW94878  11.868   0.034  12.070
64349SOL    HW194879  11.812   0.049  12.145
64349SOL    HW294880  11.866  14.821  12.056
64350SOL     OW94881   7.990   3.510   0.849
64350SOL    HW194882   8.074   3.541   0.883
64350SOL    HW294883   8.013   3.446   0.782
64351SOL     OW94884   6.084   6.840  10.623
64351SOL    HW194885   6.035   6.879  10.550
64351SOL    HW294886   6.096   6.749  10.598
64352SOL     OW94887   6.074   4.313   2.879
64352SOL    HW194888   6.156   4.361   2.867
64352SOL    HW294889   6.015   4.352   2.814
64353SOL     OW94890   4.731   1.162   6.925
64353SOL    HW194891   4.666   1.138   6.992
64353SOL    HW294892   4.700   1.246   6.891
64354SOL     OW94893   9.383   6.250   6.435
64354SOL    HW194894   9.469   6.292   6.432
64354SOL    HW294895   9.401   6.156   6.436
64355SOL     OW94896   8.698   6.102   5.039
64355SOL    HW194897   8.661   6.092   5.127
64355SOL    HW294898   8.693   6.015   5.001
64356SOL     OW94899   0.568  11.459   8.909
64356SOL    HW194900   0.512  11.524   8.952
64356SOL    HW294901   0.597  11.502   8.828
64357SOL     OW94902   1.325   2.488   4.750
64357SOL    HW194903   1.341   2.579   4.723
64357SOL    HW294904   1.255   2.459   4.692
64358SOL     OW94905   4.700  12.753   0.797
64358SOL    HW194906   4.653  12.717   0.872
64358SOL    HW294907   4.642  12.821   0.763
64359SOL     OW94908   1.485   2.670   8.974
64359SOL    HW194909   1.563   2.648   9.023
64359SOL    HW294910   1.517   2.695   8.887
64360SOL     OW94911   0.907  13.874  11.711
64360SOL    HW194912   0.909  13.949  11.652
64360SOL    HW294913   0.843  13.814  11.672
64361SOL     OW94914   7.526   4.044   7.399
64361SOL    HW194915   7.472   4.093   7.336
64361SOL    HW294916   7.601   4.014   7.348
64362SOL     OW94917   5.531   9.969   8.116
64362SOL    HW194918   5.591   9.977   8.190
64362SOL    HW294919   5.457   9.920   8.150
64363SOL     OW94920   5.710   1.820  12.139
64363SOL    HW194921   5.659   1.839  12.217
64363SOL    HW294922   5.723   1.906  12.097
64364SOL     OW94923   4.131  13.530   5.419
64364SOL    HW194924   4.085  13.459   5.463
64364SOL    HW294925   4.062  13.576   5.371
64365SOL     OW94926   4.871  10.195   7.238
64365SOL    HW194927   4.863  10.279   7.192
64365SOL    HW294928   4.961  10.193   7.270
64366SOL     OW94929  11.000   5.877   4.748
64366SOL    HW194930  11.066   5.943   4.726
64366SOL    HW294931  11.006   5.868   4.843
64367SOL     OW94932   5.470  12.069   8.582
64367SOL    HW194933   5.559  12.093   8.559
64367SOL    HW294934   5.480  12.002   8.650
64368SOL     OW94935   6.635   8.430  11.255
64368SOL    HW194936   6.679   8.424  11.171
64368SOL    HW294937   6.695   8.390  11.317
64369SOL     OW94938   9.704   0.757   9.917
64369SOL    HW194939   9.727   0.759   9.824
64369SOL    HW294940   9.609   0.770   9.918
64370SOL     OW94941   0.942   0.235  10.238
64370SOL    HW194942   0.985   0.277  10.312
64370SOL    HW294943   0.850   0.229  10.265
64371SOL     OW94944   8.980  13.361   3.087
64371SOL    HW194945   9.061  13.343   3.039
64371SOL    HW294946   8.943  13.438   3.044
64372SOL     OW94947   9.962  14.566   8.762
64372SOL    HW194948   9.998  14.500   8.821
64372SOL    HW294949   9.867  14.561   8.776
64373SOL     OW94950  11.912  12.050  12.810
64373SOL    HW194951  11.836  12.091  12.851
64373SOL    HW294952  11.980  12.054  12.877
64374SOL     OW94953   0.434   3.788  10.392
64374SOL    HW194954   0.437   3.817  10.301
64374SOL    HW294955   0.497   3.716  10.397
64375SOL     OW94956   0.247  13.122   4.144
64375SOL    HW194957   0.295  13.058   4.091
64375SOL    HW294958   0.311  13.151   4.210
64376SOL     OW94959  10.521  13.407   0.912
64376SOL    HW194960  10.589  13.468   0.884
64376SOL    HW294961  10.537  13.328   0.859
64377SOL     OW94962   5.005   7.434  10.747
64377SOL    HW194963   5.101   7.433  10.748
64377SOL    HW294964   4.981   7.462  10.836
64378SOL     OW94965  10.892   8.070  13.360
64378SOL    HW194966  10.935   8.101  13.280
64378SOL    HW294967  10.800   8.060  13.336
64379SOL     OW94968   6.930  13.715   3.836
64379SOL    HW194969   6.888  13.797   3.812
64379SOL    HW294970   6.894  13.693   3.922
64380SOL     OW94971   8.694  14.734  12.392
64380SOL    HW194972   8.611  14.780  12.404
64380SOL    HW294973   8.679  14.648  12.432
64381SOL     OW94974   1.587  14.748  14.172
64381SOL    HW194975   1.577  14.843  14.174
64381SOL    HW294976   1.666  14.733  14.120
64382SOL     OW94977  10.857  14.630  12.153
64382SOL    HW194978  10.930  14.587  12.108
64382SOL    HW294979  10.823  14.693  12.089
64383SOL     OW94980  14.389   2.804   3.210
64383SOL    HW194981  14.316   2.761   3.255
64383SOL    HW294982  14.456   2.736   3.203
64384SOL     OW94983  14.129  10.479  13.779
64384SOL    HW194984  14.160  10.508  13.693
64384SOL    HW294985  14.094  10.392  13.763
64385SOL     OW94986   9.374  12.847   9.922
64385SOL    HW194987   9.413  12.811  10.002
64385SOL    HW294988   9.389  12.941   9.928
64386SOL     OW94989   6.145   1.947   0.985
64386SOL    HW194990   6.055   1.916   0.977
64386SOL    HW294991   6.156   1.963   1.078
64387SOL     OW94992  10.343   9.774   9.450
64387SOL    HW194993  10.430   9.804   9.426
64387SOL    HW294994  10.284   9.828   9.397
64388SOL     OW94995   3.781  14.640  10.018
64388SOL    HW194996   3.762  14.677   9.932
64388SOL    HW294997   3.874  14.616  10.014
64389SOL     OW94998  11.591   4.262   7.615
64389SOL    HW194999  11.601   4.233   7.706
64389SOL    HW295000  11.677   4.250   7.576
64390SOL     OW95001  14.181   8.599  13.244
64390SOL    HW195002  14.235   8.659  13.193
64390SOL    HW295003  14.095   8.605  13.204
64391SOL     OW95004   7.250  10.558  10.316
64391SOL    HW195005   7.158  10.584  10.318
64391SOL    HW295006   7.282  10.571  10.405
64392SOL     OW95007  14.804   1.484   4.288
64392SOL    HW195008  14.716   1.520   4.302
64392SOL    HW295009  14.788   1.394   4.259
64393SOL     OW95010   7.421   8.948  12.712
64393SOL    HW195011   7.453   8.859  12.725
64393SOL    HW295012   7.373   8.968  12.793
64394SOL     OW95013   6.726   8.845  11.114
64394SOL    HW195014   6.809   8.842  11.067
64394SOL    HW295015   6.746   8.812  11.201
64395SOL     OW95016   3.603  14.095  11.375
64395SOL    HW195017   3.671  14.156  11.403
64395SOL    HW295018   3.638  14.008  11.396
64396SOL     OW95019   2.827   9.228   0.986
64396SOL    HW195020   2.883   9.306   0.992
64396SOL    HW295021   2.815   9.215   0.892
64397SOL     OW95022   9.625   6.443   8.403
64397SOL    HW195023   9.708   6.397   8.417
64397SOL    HW295024   9.571   6.379   8.357
64398SOL     OW95025   5.173   1.009  12.229
64398SOL    HW195026   5.236   1.042  12.294
64398SOL    HW295027   5.157   1.085  12.173
64399SOL     OW95028   5.182   6.579  14.427
64399SOL    HW195029   5.164   6.665  14.389
64399SOL    HW295030   5.211   6.525  14.353
64400SOL     OW95031   5.126   1.516   9.415
64400SOL    HW195032   5.063   1.481   9.352
64400SOL    HW295033   5.074   1.541   9.491
64401SOL     OW95034   9.847   9.275   9.571
64401SOL    HW195035   9.816   9.287   9.661
64401SOL    HW295036   9.842   9.362   9.532
64402SOL     OW95037  10.762   7.439   9.478
64402SOL    HW195038  10.756   7.535   9.480
64402SOL    HW295039  10.856   7.421   9.483
64403SOL     OW95040  11.711   2.211  11.975
64403SOL    HW195041  11.659   2.154  11.918
64403SOL    HW295042  11.767   2.151  12.023
64404SOL     OW95043   6.284   9.290   8.300
64404SOL    HW195044   6.293   9.199   8.328
64404SOL    HW295045   6.296   9.288   8.205
64405SOL     OW95046   4.087   9.907   3.110
64405SOL    HW195047   4.033   9.935   3.184
64405SOL    HW295048   4.152   9.977   3.100
64406SOL     OW95049  12.491   6.196   3.827
64406SOL    HW195050  12.583   6.203   3.852
64406SOL    HW295051  12.490   6.131   3.757
64407SOL     OW95052  14.121   1.357   4.083
64407SOL    HW195053  14.133   1.349   3.989
64407SOL    HW295054  14.148   1.272   4.118
64408SOL     OW95055   8.614  10.757   1.496
64408SOL    HW195056   8.531  10.803   1.484
64408SOL    HW295057   8.613  10.686   1.432
64409SOL     OW95058   5.897  12.114  12.102
64409SOL    HW195059   5.909  12.075  12.189
64409SOL    HW295060   5.986  12.132  12.072
64410SOL     OW95061   0.563   4.751   2.437
64410SOL    HW195062   0.540   4.829   2.386
64410SOL    HW295063   0.500   4.685   2.409
64411SOL     OW95064   0.513   5.064   0.499
64411SOL    HW195065   0.535   5.037   0.588
64411SOL    HW295066   0.475   5.152   0.509
64412SOL     OW95067   4.343   4.223   2.825
64412SOL    HW195068   4.421   4.174   2.850
64412SOL    HW295069   4.375   4.312   2.809
64413SOL     OW95070  10.164   9.677   3.300
64413SOL    HW195071  10.239   9.730   3.273
64413SOL    HW295072  10.197   9.587   3.296
64414SOL     OW95073  10.728   1.947   0.863
64414SOL    HW195074  10.668   1.898   0.807
64414SOL    HW295075  10.677   1.968   0.941
64415SOL     OW95076   5.350   5.123   8.364
64415SOL    HW195077   5.404   5.151   8.439
64415SOL    HW295078   5.400   5.051   8.325
64416SOL     OW95079   2.988   0.518   0.912
64416SOL    HW195080   3.038   0.596   0.933
64416SOL    HW295081   3.019   0.492   0.825
64417SOL     OW95082   7.771  14.646   8.862
64417SOL    HW195083   7.803  14.636   8.951
64417SOL    HW295084   7.711  14.720   8.866
64418SOL     OW95085  12.653  12.903   9.670
64418SOL    HW195086  12.578  12.939   9.623
64418SOL    HW295087  12.615  12.852   9.741
64419SOL     OW95088   0.443   1.107   0.336
64419SOL    HW195089   0.462   1.170   0.405
64419SOL    HW295090   0.439   1.023   0.381
64420SOL     OW95091   7.484  11.995  13.682
64420SOL    HW195092   7.462  11.926  13.744
64420SOL    HW295093   7.449  12.075  13.721
64421SOL     OW95094   7.846   0.014   5.959
64421SOL    HW195095   7.918  14.869   6.015
64421SOL    HW295096   7.831  14.822   5.901
64422SOL     OW95097  11.473   8.207   0.060
64422SOL    HW195098  11.381   8.231   0.068
64422SOL    HW295099  11.521   8.285   0.087
64423SOL     OW95100   4.349  14.870   2.817
64423SOL    HW195101   4.336   0.081   2.797
64423SOL    HW295102   4.424  14.845   2.763
64424SOL     OW95103   5.607   7.334  13.718
64424SOL    HW195104   5.643   7.398  13.656
64424SOL    HW295105   5.519   7.316  13.684
64425SOL     OW95106   7.373   9.318  10.023
64425SOL    HW195107   7.421   9.250  10.071
64425SOL    HW295108   7.340   9.272   9.945
64426SOL     OW95109  14.874   5.292  10.929
64426SOL    HW195110   0.033   5.371  10.894
64426SOL    HW295111  14.780   5.309  10.922
64427SOL     OW95112  11.163   8.750   1.991
64427SOL    HW195113  11.118   8.741   2.075
64427SOL    HW295114  11.248   8.709   2.005
64428SOL     OW95115   3.657  11.223   4.174
64428SOL    HW195116   3.572  11.179   4.181
64428SOL    HW295117   3.691  11.194   4.089
64429SOL     OW95118   9.029  13.029   4.605
64429SOL    HW195119   9.102  13.008   4.546
64429SOL    HW295120   8.951  13.017   4.551
64430SOL     OW95121   2.204  10.520  14.715
64430SOL    HW195122   2.240  10.596  14.761
64430SOL    HW295123   2.172  10.462  14.784
64431SOL     OW95124   0.234   0.512  11.016
64431SOL    HW195125   0.185   0.479  11.091
64431SOL    HW295126   0.267   0.597  11.045
64432SOL     OW95127   1.331   5.864   8.687
64432SOL    HW195128   1.354   5.923   8.759
64432SOL    HW295129   1.308   5.782   8.730
64433SOL     OW95130   3.631  13.982   0.746
64433SOL    HW195131   3.656  13.954   0.834
64433SOL    HW295132   3.556  14.040   0.759
64434SOL     OW95133   0.504  14.085   2.878
64434SOL    HW195134   0.584  14.138   2.882
64434SOL    HW295135   0.514  14.022   2.949
64435SOL     OW95136  12.560   1.699  11.676
64435SOL    HW195137  12.598   1.626  11.625
64435SOL    HW295138  12.598   1.777  11.637
64436SOL     OW95139  13.565  11.737   6.845
64436SOL    HW195140  13.613  11.704   6.769
64436SOL    HW295141  13.515  11.662   6.876
64437SOL     OW95142  10.588   1.548   8.370
64437SOL    HW195143  10.596   1.525   8.277
64437SOL    HW295144  10.627   1.635   8.376
64438SOL     OW95145  13.695   8.991   6.879
64438SOL    HW195146  13.764   8.966   6.941
64438SOL    HW295147  13.742   9.032   6.806
64439SOL     OW95148  14.584  12.525   4.879
64439SOL    HW195149  14.619  12.487   4.798
64439SOL    HW295150  14.637  12.485   4.948
64440SOL     OW95151  11.519  10.738   5.230
64440SOL    HW195152  11.491  10.647   5.223
64440SOL    HW295153  11.465  10.785   5.166
64441SOL     OW95154   6.847  12.433   6.897
64441SOL    HW195155   6.821  12.522   6.922
64441SOL    HW295156   6.890  12.445   6.812
64442SOL     OW95157   8.339  13.621   0.620
64442SOL    HW195158   8.288  13.565   0.677
64442SOL    HW295159   8.428  13.585   0.624
64443SOL     OW95160   1.272   2.876  11.847
64443SOL    HW195161   1.269   2.962  11.889
64443SOL    HW295162   1.212   2.822  11.898
64444SOL     OW95163  13.484   6.556   5.715
64444SOL    HW195164  13.403   6.504   5.710
64444SOL    HW295165  13.554   6.493   5.697
64445SOL     OW95166   2.286   4.357   3.621
64445SOL    HW195167   2.341   4.369   3.544
64445SOL    HW295168   2.199   4.385   3.593
64446SOL     OW95169   6.951  14.259   8.656
64446SOL    HW195170   7.017  14.199   8.691
64446SOL    HW295171   7.000  14.336   8.628
64447SOL     OW95172   9.937   1.279  12.436
64447SOL    HW195173   9.874   1.331  12.487
64447SOL    HW295174   9.979   1.343  12.378
64448SOL     OW95175   5.115   3.707   4.398
64448SOL    HW195176   5.169   3.704   4.319
64448SOL    HW295177   5.118   3.618   4.434
64449SOL     OW95178  11.429   2.037   4.007
64449SOL    HW195179  11.518   2.031   3.973
64449SOL    HW295180  11.395   2.120   3.974
64450SOL     OW95181   0.807  11.449   6.383
64450SOL    HW195182   0.831  11.464   6.292
64450SOL    HW295183   0.881  11.400   6.419
64451SOL     OW95184   6.510  13.610  11.032
64451SOL    HW195185   6.481  13.544  11.095
64451SOL    HW295186   6.464  13.690  11.058
64452SOL     OW95187   0.308   2.896  14.166
64452SOL    HW195188   0.317   2.926  14.076
64452SOL    HW295189   0.251   2.960  14.208
64453SOL     OW95190  14.237  14.755  13.046
64453SOL    HW195191  14.188  14.791  13.120
64453SOL    HW295192  14.251  14.663  13.069
64454SOL     OW95193  12.859  11.287  13.101
64454SOL    HW195194  12.903  11.367  13.128
64454SOL    HW295195  12.766  11.310  13.096
64455SOL     OW95196   0.900  12.150   4.645
64455SOL    HW195197   0.879  12.242   4.661
64455SOL    HW295198   0.995  12.146   4.650
64456SOL     OW95199   5.400   7.935   5.419
64456SOL    HW195200   5.470   7.935   5.485
64456SOL    HW295201   5.440   7.973   5.341
64457SOL     OW95202   1.104  13.833  13.696
64457SOL    HW195203   1.085  13.872  13.782
64457SOL    HW295204   1.137  13.907  13.644
64458SOL     OW95205  10.581   9.365   0.423
64458SOL    HW195206  10.606   9.436   0.364
64458SOL    HW295207  10.643   9.371   0.496
64459SOL     OW95208   2.926  11.368   0.098
64459SOL    HW195209   3.019  11.367   0.120
64459SOL    HW295210   2.893  11.450   0.135
64460SOL     OW95211  11.062   5.236   2.720
64460SOL    HW195212  11.058   5.230   2.816
64460SOL    HW295213  10.983   5.190   2.690
64461SOL     OW95214   8.936   1.374   1.814
64461SOL    HW195215   9.023   1.346   1.844
64461SOL    HW295216   8.877   1.345   1.883
64462SOL     OW95217  11.017  12.610   1.647
64462SOL    HW195218  10.989  12.545   1.712
64462SOL    HW295219  11.054  12.558   1.576
64463SOL     OW95220   4.014   2.227   6.146
64463SOL    HW195221   3.969   2.209   6.064
64463SOL    HW295222   3.952   2.280   6.197
64464SOL     OW95223   0.045  14.087   5.313
64464SOL    HW195224   0.092  14.131   5.242
64464SOL    HW295225  14.879  14.157   5.357
64465SOL     OW95226   5.469   6.815   3.903
64465SOL    HW195227   5.552   6.847   3.866
64465SOL    HW295228   5.428   6.893   3.942
64466SOL     OW95229   4.694  11.449   4.550
64466SOL    HW195230   4.742  11.532   4.546
64466SOL    HW295231   4.613  11.465   4.501
64467SOL     OW95232  13.558   6.896  12.526
64467SOL    HW195233  13.585   6.939  12.607
64467SOL    HW295234  13.529   6.809  12.553
64468SOL     OW95235  10.147   9.542   8.406
64468SOL    HW195236  10.157   9.524   8.312
64468SOL    HW295237  10.063   9.587   8.412
64469SOL     OW95238  13.877  11.903  11.353
64469SOL    HW195239  13.905  11.970  11.415
64469SOL    HW295240  13.860  11.951  11.271
64470SOL     OW95241   9.133   7.339   4.249
64470SOL    HW195242   9.213   7.378   4.214
64470SOL    HW295243   9.063   7.397   4.217
64471SOL     OW95244  13.581  13.444   3.903
64471SOL    HW195245  13.664  13.408   3.935
64471SOL    HW295246  13.579  13.422   3.810
64472SOL     OW95247   2.914   8.298  11.293
64472SOL    HW195248   2.948   8.367  11.350
64472SOL    HW295249   2.910   8.220  11.349
64473SOL     OW95250   5.237   2.436  10.916
64473SOL    HW195251   5.241   2.438  10.821
64473SOL    HW295252   5.272   2.350  10.940
64474SOL     OW95253   8.800  10.368   2.228
64474SOL    HW195254   8.886  10.409   2.226
64474SOL    HW295255   8.754  10.403   2.152
64475SOL     OW95256   6.473   6.087   6.261
64475SOL    HW195257   6.525   6.011   6.235
64475SOL    HW295258   6.500   6.105   6.351
64476SOL     OW95259   0.443   4.047   8.231
64476SOL    HW195260   0.443   3.958   8.196
64476SOL    HW295261   0.434   4.036   8.326
64477SOL     OW95262   7.474  10.296   4.273
64477SOL    HW195263   7.448  10.205   4.263
64477SOL    HW295264   7.483  10.308   4.368
64478SOL     OW95265   9.909  12.054   6.910
64478SOL    HW195266   9.877  11.973   6.951
64478SOL    HW295267   9.883  12.124   6.970
64479SOL     OW95268   7.623   9.608  10.539
64479SOL    HW195269   7.655   9.518  10.533
64479SOL    HW295270   7.528   9.601  10.528
64480SOL     OW95271   4.150  13.278   5.970
64480SOL    HW195272   4.098  13.275   6.050
64480SOL    HW295273   4.235  13.242   5.995
64481SOL     OW95274   2.790   8.829  11.583
64481SOL    HW195275   2.805   8.924  11.591
64481SOL    HW295276   2.833   8.805  11.501
64482SOL     OW95277  13.792  10.759   6.567
64482SOL    HW195278  13.700  10.740   6.585
64482SOL    HW295279  13.789  10.837   6.511
64483SOL     OW95280   3.373   6.844   7.142
64483SOL    HW195281   3.297   6.894   7.172
64483SOL    HW295282   3.365   6.759   7.186
64484SOL     OW95283   4.203   7.636   5.028
64484SOL    HW195284   4.175   7.601   4.943
64484SOL    HW295285   4.276   7.694   5.007
64485SOL     OW95286   2.401  11.738   8.802
64485SOL    HW195287   2.363  11.802   8.742
64485SOL    HW295288   2.325  11.697   8.844
64486SOL     OW95289   6.280  12.441   7.792
64486SOL    HW195290   6.280  12.502   7.718
64486SOL    HW295291   6.192  12.405   7.794
64487SOL     OW95292   5.212  13.654   8.213
64487SOL    HW195293   5.241  13.629   8.125
64487SOL    HW295294   5.236  13.579   8.268
64488SOL     OW95295   7.701   2.192  13.770
64488SOL    HW195296   7.751   2.115  13.745
64488SOL    HW295297   7.764   2.265  13.763
64489SOL     OW95298   8.260   1.217   1.731
64489SOL    HW195299   8.350   1.221   1.698
64489SOL    HW295300   8.265   1.255   1.818
64490SOL     OW95301  11.817   9.614   9.356
64490SOL    HW195302  11.740   9.643   9.405
64490SOL    HW295303  11.847   9.693   9.310
64491SOL     OW95304   8.671   3.073   2.737
64491SOL    HW195305   8.759   3.108   2.719
64491SOL    HW295306   8.612   3.143   2.710
64492SOL     OW95307  10.617   0.760   3.615
64492SOL    HW195308  10.710   0.762   3.591
64492SOL    HW295309  10.570   0.766   3.532
64493SOL     OW95310  13.102   5.359  12.371
64493SOL    HW195311  13.121   5.350  12.278
64493SOL    HW295312  13.062   5.445  12.380
64494SOL     OW95313  14.158  12.287  10.306
64494SOL    HW195314  14.143  12.341  10.384
64494SOL    HW295315  14.237  12.323  10.266
64495SOL     OW95316   4.852   6.158  13.253
64495SOL    HW195317   4.821   6.247  13.270
64495SOL    HW295318   4.822   6.138  13.165
64496SOL     OW95319   9.547  11.402  11.891
64496SOL    HW195320   9.631  11.385  11.849
64496SOL    HW295321   9.494  11.325  11.872
64497SOL     OW95322  14.695  13.443  10.582
64497SOL    HW195323  14.775  13.423  10.533
64497SOL    HW295324  14.646  13.504  10.527
64498SOL     OW95325   0.636   9.229   1.851
64498SOL    HW195326   0.581   9.308   1.852
64498SOL    HW295327   0.722   9.260   1.822
64499SOL     OW95328   5.949   3.962   6.638
64499SOL    HW195329   5.860   3.987   6.611
64499SOL    HW295330   5.948   3.866   6.636
64500SOL     OW95331   4.996  10.712  11.337
64500SOL    HW195332   4.924  10.775  11.330
64500SOL    HW295333   5.074  10.762  11.317
64501SOL     OW95334   7.661   1.180   3.997
64501SOL    HW195335   7.572   1.145   4.001
64501SOL    HW295336   7.656   1.249   3.931
64502SOL     OW95337   9.128   5.516  13.816
64502SOL    HW195338   9.067   5.460  13.768
64502SOL    HW295339   9.215   5.485  13.791
64503SOL     OW95340  12.512  13.096   0.242
64503SOL    HW195341  12.588  13.111   0.298
64503SOL    HW295342  12.524  13.008   0.207
64504SOL     OW95343  13.922   4.187  10.037
64504SOL    HW195344  13.945   4.275  10.010
64504SOL    HW295345  13.845   4.197  10.093
64505SOL     OW95346   3.155   5.855   9.087
64505SOL    HW195347   3.140   5.789   9.155
64505SOL    HW295348   3.141   5.809   9.005
64506SOL     OW95349  13.318  10.193  13.066
64506SOL    HW195350  13.325  10.215  12.973
64506SOL    HW295351  13.331  10.277  13.110
64507SOL     OW95352  14.812   8.412   5.378
64507SOL    HW195353  14.762   8.338   5.413
64507SOL    HW295354  14.837   8.462   5.455
64508SOL     OW95355   3.233   6.244   3.704
64508SOL    HW195356   3.202   6.219   3.791
64508SOL    HW295357   3.274   6.330   3.717
64509SOL     OW95358  12.958   2.456   8.242
64509SOL    HW195359  13.046   2.420   8.254
64509SOL    HW295360  12.957   2.537   8.292
64510SOL     OW95361   8.182  13.257  13.142
64510SOL    HW195362   8.134  13.175  13.136
64510SOL    HW295363   8.114  13.325  13.134
64511SOL     OW95364  12.414  10.438  13.803
64511SOL    HW195365  12.434  10.525  13.835
64511SOL    HW295366  12.338  10.410  13.854
64512SOL     OW95367   2.967  11.885  11.782
64512SOL    HW195368   3.014  11.959  11.820
64512SOL    HW295369   3.029  11.812  11.787
64513SOL     OW95370   2.831   2.023   9.118
64513SOL    HW195371   2.769   2.047   9.049
64513SOL    HW295372   2.785   2.047   9.199
64514SOL     OW95373   9.634   5.163  10.564
64514SOL    HW195374   9.725   5.146  10.590
64514SOL    HW295375   9.581   5.111  10.625
64515SOL     OW95376   4.388   6.240  13.551
64515SOL    HW195377   4.462   6.212  13.497
64515SOL    HW295378   4.337   6.160  13.566
64516SOL     OW95379   3.970   7.832  12.130
64516SOL    HW195380   3.915   7.760  12.100
64516SOL    HW295381   4.060   7.803  12.114
64517SOL     OW95382   8.574   4.054   9.427
64517SOL    HW195383   8.556   4.009   9.509
64517SOL    HW295384   8.604   4.141   9.453
64518SOL     OW95385   5.304   6.318   3.064
64518SOL    HW195386   5.331   6.232   3.031
64518SOL    HW295387   5.383   6.372   3.059
64519SOL     OW95388  14.878   2.191   3.229
64519SOL    HW195389  14.797   2.170   3.183
64519SOL    HW295390   0.045   2.247   3.168
64520SOL     OW95391   7.207   2.303   2.467
64520SOL    HW195392   7.285   2.288   2.521
64520SOL    HW295393   7.241   2.347   2.389
64521SOL     OW95394   3.023  10.714   4.959
64521SOL    HW195395   2.930  10.710   4.981
64521SOL    HW295396   3.026  10.752   4.871
64522SOL     OW95397   6.077  10.269  12.910
64522SOL    HW195398   6.107  10.356  12.937
64522SOL    HW295399   5.983  10.269  12.928
64523SOL     OW95400   0.620   3.122  10.482
64523SOL    HW195401   0.633   3.094  10.391
64523SOL    HW295402   0.674   3.062  10.534
64524SOL     OW95403   9.706   4.734   5.655
64524SOL    HW195404   9.612   4.746   5.670
64524SOL    HW295405   9.732   4.668   5.719
64525SOL     OW95406   4.242  11.841   3.881
64525SOL    HW195407   4.194  11.759   3.895
64525SOL    HW295408   4.184  11.909   3.915
64526SOL     OW95409  14.253  12.337   9.535
64526SOL    HW195410  14.305  12.399   9.483
64526SOL    HW295411  14.165  12.375   9.535
64527SOL     OW95412  14.071   2.466   1.329
64527SOL    HW195413  14.152   2.511   1.352
64527SOL    HW295414  14.048   2.499   1.242
64528SOL     OW95415   4.718  10.264   4.526
64528SOL    HW195416   4.808  10.296   4.522
64528SOL    HW295417   4.684  10.298   4.608
64529SOL     OW95418   5.176   1.322  13.097
64529SOL    HW195419   5.149   1.230  13.097
64529SOL    HW295420   5.257   1.322  13.148
64530SOL     OW95421  10.091   3.010   5.023
64530SOL    HW195422  10.033   3.054   4.960
64530SOL    HW295423  10.154   3.078   5.048
64531SOL     OW95424   8.846   1.555  12.611
64531SOL    HW195425   8.784   1.622  12.642
64531SOL    HW295426   8.790   1.481  12.588
64532SOL     OW95427  11.184  13.634   3.440
64532SOL    HW195428  11.262  13.610   3.488
64532SOL    HW295429  11.214  13.699   3.375
64533SOL     OW95430   3.774   3.437   3.163
64533SOL    HW195431   3.682   3.422   3.187
64533SOL    HW295432   3.815   3.351   3.170
64534SOL     OW95433   8.135   7.655  13.150
64534SOL    HW195434   8.104   7.571  13.116
64534SOL    HW295435   8.056   7.697  13.186
64535SOL     OW95436  12.416   1.101   9.142
64535SOL    HW195437  12.499   1.096   9.191
64535SOL    HW295438  12.388   1.192   9.152
64536SOL     OW95439  11.022   9.873  13.287
64536SOL    HW195440  10.944   9.876  13.232
64536SOL    HW295441  11.086   9.824  13.235
64537SOL     OW95442   0.268  13.580  12.443
64537SOL    HW195443   0.218  13.504  12.472
64537SOL    HW295444   0.203  13.648  12.429
64538SOL     OW95445   4.256   7.279  13.308
64538SOL    HW195446   4.306   7.245  13.234
64538SOL    HW295447   4.297   7.364  13.328
64539SOL     OW95448   9.212   5.310   8.375
64539SOL    HW195449   9.267   5.295   8.453
64539SOL    HW295450   9.148   5.375   8.403
64540SOL     OW95451  11.583  13.042   0.539
64540SOL    HW195452  11.523  12.986   0.589
64540SOL    HW295453  11.641  13.079   0.605
64541SOL     OW95454   9.077  14.401   3.752
64541SOL    HW195455   8.983  14.398   3.769
64541SOL    HW295456   9.117  14.389   3.838
64542SOL     OW95457   4.575  10.467  12.698
64542SOL    HW195458   4.620  10.551  12.689
64542SOL    HW295459   4.484  10.486  12.673
64543SOL     OW95460   3.325   7.111  14.350
64543SOL    HW195461   3.298   7.124  14.441
64543SOL    HW295462   3.417   7.138  14.349
64544SOL     OW95463  14.635   3.961  10.001
64544SOL    HW195464  14.591   3.919  10.076
64544SOL    HW295465  14.620   4.055  10.014
64545SOL     OW95466  13.959  11.854   0.472
64545SOL    HW195467  13.867  11.855   0.499
64545SOL    HW295468  13.984  11.762   0.471
64546SOL     OW95469   1.398  12.764   5.903
64546SOL    HW195470   1.348  12.694   5.946
64546SOL    HW295471   1.414  12.828   5.973
64547SOL     OW95472   1.810   3.040   5.813
64547SOL    HW195473   1.879   3.019   5.750
64547SOL    HW295474   1.768   2.956   5.832
64548SOL     OW95475   5.804  13.847   5.356
64548SOL    HW195476   5.852  13.929   5.366
64548SOL    HW295477   5.756  13.858   5.273
64549SOL     OW95478   3.966   2.192   4.473
64549SOL    HW195479   3.959   2.154   4.560
64549SOL    HW295480   3.991   2.118   4.417
64550SOL     OW95481   9.138   8.028   0.399
64550SOL    HW195482   9.116   7.945   0.358
64550SOL    HW295483   9.193   8.005   0.474
64551SOL     OW95484   6.350  13.229   0.861
64551SOL    HW195485   6.386  13.315   0.838
64551SOL    HW295486   6.302  13.201   0.783
64552SOL     OW95487   5.660  12.770  14.191
64552SOL    HW195488   5.595  12.706  14.221
64552SOL    HW295489   5.646  12.846  14.246
64553SOL     OW95490   7.977   2.381   7.577
64553SOL    HW195491   7.943   2.460   7.619
64553SOL    HW295492   7.901   2.324   7.570
64554SOL     OW95493   2.138   3.200  14.652
64554SOL    HW195494   2.195   3.127  14.628
64554SOL    HW295495   2.079   3.164  14.718
64555SOL     OW95496  10.854   8.163   9.385
64555SOL    HW195497  10.907   8.193   9.458
64555SOL    HW295498  10.824   8.243   9.343
64556SOL     OW95499  14.493   2.779   7.938
64556SOL    HW195500  14.399   2.788   7.918
64556SOL    HW295501  14.497   2.705   7.998
64557SOL     OW95502  14.762   1.333  12.844
64557SOL    HW195503  14.756   1.428  12.847
64557SOL    HW295504  14.843   1.313  12.892
64558SOL     OW95505   5.257   5.315   0.532
64558SOL    HW195506   5.324   5.277   0.589
64558SOL    HW295507   5.281   5.408   0.526
64559SOL     OW95508   6.875   4.422   9.037
64559SOL    HW195509   6.929   4.487   8.993
64559SOL    HW295510   6.860   4.458   9.124
64560SOL     OW95511  12.280   7.610   8.274
64560SOL    HW195512  12.251   7.556   8.348
64560SOL    HW295513  12.203   7.615   8.218
64561SOL     OW95514   2.314   9.267   9.215
64561SOL    HW195515   2.342   9.192   9.267
64561SOL    HW295516   2.353   9.343   9.260
64562SOL     OW95517   4.695   3.334  12.753
64562SOL    HW195518   4.688   3.261  12.692
64562SOL    HW295519   4.758   3.394  12.712
64563SOL     OW95520  13.494   0.112   6.026
64563SOL    HW195521  13.470   0.033   6.075
64563SOL    HW295522  13.574   0.142   6.069
64564SOL     OW95523   5.505   9.635   2.335
64564SOL    HW195524   5.487   9.613   2.244
64564SOL    HW295525   5.421   9.626   2.379
64565SOL     OW95526   9.336   8.684   2.423
64565SOL    HW195527   9.290   8.768   2.430
64565SOL    HW295528   9.321   8.655   2.333
64566SOL     OW95529  12.955  11.758  11.417
64566SOL    HW195530  12.996  11.843  11.398
64566SOL    HW295531  13.028  11.700  11.437
64567SOL     OW95532   3.362  12.123   8.499
64567SOL    HW195533   3.339  12.031   8.508
64567SOL    HW295534   3.428  12.124   8.429
64568SOL     OW95535   8.299  11.953   9.053
64568SOL    HW195536   8.257  11.873   9.087
64568SOL    HW295537   8.382  11.923   9.017
64569SOL     OW95538   0.385  13.812   1.022
64569SOL    HW195539   0.301  13.834   1.062
64569SOL    HW295540   0.430  13.896   1.012
64570SOL     OW95541   3.584   8.684   6.161
64570SOL    HW195542   3.560   8.776   6.167
64570SOL    HW295543   3.589   8.667   6.067
64571SOL     OW95544  10.697   4.529   9.210
64571SOL    HW195545  10.663   4.448   9.249
64571SOL    HW295546  10.654   4.599   9.259
64572SOL     OW95547   6.889   1.725   6.164
64572SOL    HW195548   6.804   1.768   6.154
64572SOL    HW295549   6.919   1.708   6.075
64573SOL     OW95550  13.891   4.933   4.042
64573SOL    HW195551  13.823   4.926   3.975
64573SOL    HW295552  13.845   4.918   4.125
64574SOL     OW95553   3.077   0.976   6.130
64574SOL    HW195554   3.028   0.894   6.129
64574SOL    HW295555   3.026   1.034   6.186
64575SOL     OW95556   0.883   7.279   7.423
64575SOL    HW195557   0.847   7.285   7.511
64575SOL    HW295558   0.926   7.193   7.420
64576SOL     OW95559   9.885   2.905   6.668
64576SOL    HW195560   9.841   2.839   6.613
64576SOL    HW295561   9.902   2.860   6.750
64577SOL     OW95562   5.893   0.519  10.791
64577SOL    HW195563   5.954   0.572  10.738
64577SOL    HW295564   5.856   0.581  10.854
64578SOL     OW95565  10.074  10.718   5.784
64578SOL    HW195566  10.070  10.790   5.722
64578SOL    HW295567   9.983  10.689   5.794
64579SOL     OW95568   3.329   2.461   1.349
64579SOL    HW195569   3.287   2.376   1.337
64579SOL    HW295570   3.383   2.472   1.270
64580SOL     OW95571   8.473   7.696   7.672
64580SOL    HW195572   8.569   7.700   7.666
64580SOL    HW295573   8.443   7.741   7.593
64581SOL     OW95574   4.789  10.427   9.327
64581SOL    HW195575   4.800  10.485   9.252
64581SOL    HW295576   4.874  10.385   9.338
64582SOL     OW95577   0.761   3.718   5.395
64582SOL    HW195578   0.855   3.709   5.411
64582SOL    HW295579   0.722   3.721   5.483
64583SOL     OW95580  11.627   5.872   9.028
64583SOL    HW195581  11.650   5.958   8.994
64583SOL    HW295582  11.531   5.869   9.023
64584SOL     OW95583  11.590   5.116   1.902
64584SOL    HW195584  11.653   5.106   1.974
64584SOL    HW295585  11.608   5.204   1.867
64585SOL     OW95586   5.131   7.037  13.406
64585SOL    HW195587   5.209   7.018  13.458
64585SOL    HW295588   5.076   6.959  13.416
64586SOL     OW95589   8.496  13.730   4.937
64586SOL    HW195590   8.531  13.816   4.915
64586SOL    HW295591   8.482  13.734   5.032
64587SOL     OW95592   4.502   4.907  13.794
64587SOL    HW195593   4.540   4.970  13.855
64587SOL    HW295594   4.507   4.951  13.709
64588SOL     OW95595   0.488  12.572  14.180
64588SOL    HW195596   0.464  12.660  14.208
64588SOL    HW295597   0.512  12.582  14.088
64589SOL     OW95598   1.549   4.962   7.797
64589SOL    HW195599   1.553   5.018   7.719
64589SOL    HW295600   1.501   4.885   7.768
64590SOL     OW95601  12.801  12.611   9.783
64590SOL    HW195602  12.715  12.641   9.753
64590SOL    HW295603  12.848  12.589   9.703
64591SOL     OW95604  13.955  12.508   5.168
64591SOL    HW195605  14.046  12.519   5.196
64591SOL    HW295606  13.942  12.414   5.163
64592SOL     OW95607  10.523   4.372  10.380
64592SOL    HW195608  10.454   4.356  10.444
64592SOL    HW295609  10.505   4.459  10.346
64593SOL     OW95610   5.396   8.380   0.788
64593SOL    HW195611   5.368   8.405   0.700
64593SOL    HW295612   5.491   8.375   0.782
64594SOL     OW95613  13.213   2.856  10.841
64594SOL    HW195614  13.164   2.880  10.919
64594SOL    HW295615  13.261   2.777  10.866
64595SOL     OW95616   7.816  12.876  10.249
64595SOL    HW195617   7.823  12.959  10.202
64595SOL    HW295618   7.885  12.880  10.315
64596SOL     OW95619   1.626   9.789   0.637
64596SOL    HW195620   1.675   9.814   0.558
64596SOL    HW295621   1.574   9.714   0.610
64597SOL     OW95622  13.827  13.645   6.270
64597SOL    HW195623  13.865  13.682   6.190
64597SOL    HW295624  13.840  13.712   6.336
64598SOL     OW95625   4.571   5.378   3.222
64598SOL    HW195626   4.528   5.356   3.139
64598SOL    HW295627   4.552   5.304   3.279
64599SOL     OW95628  13.660  10.873   3.176
64599SOL    HW195629  13.692  10.795   3.132
64599SOL    HW295630  13.616  10.923   3.108
64600SOL     OW95631   5.828   5.653   1.536
64600SOL    HW195632   5.826   5.581   1.474
64600SOL    HW295633   5.743   5.695   1.528
64601SOL     OW95634   8.133  14.080  10.013
64601SOL    HW195635   8.124  14.064   9.919
64601SOL    HW295636   8.071  14.151  10.031
64602SOL     OW95637   9.292   9.512  14.309
64602SOL    HW195638   9.210   9.544  14.273
64602SOL    HW295639   9.348   9.497  14.232
64603SOL     OW95640  10.254   9.315  12.173
64603SOL    HW195641  10.284   9.292  12.085
64603SOL    HW295642  10.209   9.236  12.205
64604SOL     OW95643  10.503   3.236   1.188
64604SOL    HW195644  10.523   3.250   1.280
64604SOL    HW295645  10.415   3.273   1.176
64605SOL     OW95646   1.278   8.447   4.764
64605SOL    HW195647   1.185   8.424   4.760
64605SOL    HW295648   1.317   8.377   4.816
64606SOL     OW95649  10.909  10.833   5.902
64606SOL    HW195650  10.982  10.777   5.877
64606SOL    HW295651  10.878  10.797   5.985
64607SOL     OW95652   5.829   3.853   9.219
64607SOL    HW195653   5.757   3.912   9.243
64607SOL    HW295654   5.825   3.849   9.123
64608SOL     OW95655   9.801   7.550   3.854
64608SOL    HW195656   9.735   7.500   3.806
64608SOL    HW295657   9.765   7.561   3.942
64609SOL     OW95658   8.690   8.784   1.351
64609SOL    HW195659   8.749   8.710   1.339
64609SOL    HW295660   8.643   8.764   1.432
64610SOL     OW95661  10.068   8.538   8.196
64610SOL    HW195662  10.082   8.596   8.121
64610SOL    HW295663  10.009   8.587   8.253
64611SOL     OW95664   2.431   4.899   5.896
64611SOL    HW195665   2.511   4.931   5.855
64611SOL    HW295666   2.368   4.970   5.886
64612SOL     OW95667   2.174   5.479   4.381
64612SOL    HW195668   2.171   5.401   4.325
64612SOL    HW295669   2.115   5.458   4.454
64613SOL     OW95670   8.594   8.685   0.934
64613SOL    HW195671   8.576   8.602   0.979
64613SOL    HW295672   8.688   8.685   0.920
64614SOL     OW95673  14.284   5.072  10.331
64614SOL    HW195674  14.261   5.157  10.366
64614SOL    HW295675  14.318   5.091  10.243
64615SOL     OW95676   8.460   8.463   9.531
64615SOL    HW195677   8.403   8.394   9.496
64615SOL    HW295678   8.406   8.507   9.597
64616SOL     OW95679  13.000  12.830   1.722
64616SOL    HW195680  12.939  12.764   1.687
64616SOL    HW295681  12.979  12.833   1.815
64617SOL     OW95682   2.963  12.961  12.643
64617SOL    HW195683   3.023  12.887  12.634
64617SOL    HW295684   2.985  13.001  12.727
64618SOL     OW95685  12.804   4.724   2.472
64618SOL    HW195686  12.887   4.761   2.443
64618SOL    HW295687  12.828   4.642   2.516
64619SOL     OW95688   1.528  12.547   7.761
64619SOL    HW195689   1.508  12.596   7.841
64619SOL    HW295690   1.590  12.479   7.789
64620SOL     OW95691   6.855   2.254   8.542
64620SOL    HW195692   6.928   2.219   8.594
64620SOL    HW295693   6.821   2.177   8.496
64621SOL     OW95694  12.561  10.789   5.691
64621SOL    HW195695  12.474  10.787   5.730
64621SOL    HW295696  12.616  10.833   5.756
64622SOL     OW95697   5.546   5.721  13.240
64622SOL    HW195698   5.549   5.713  13.145
64622SOL    HW295699   5.563   5.632  13.272
64623SOL     OW95700   1.861   8.574   3.798
64623SOL    HW195701   1.932   8.601   3.739
64623SOL    HW295702   1.863   8.478   3.795
64624SOL     OW95703   9.841  12.156   6.158
64624SOL    HW195704   9.794  12.072   6.163
64624SOL    HW295705   9.857  12.180   6.249
64625SOL     OW95706   8.338  13.439   1.065
64625SOL    HW195707   8.370  13.477   1.148
64625SOL    HW295708   8.415  13.440   1.008
64626SOL     OW95709   0.633  10.890   4.356
64626SOL    HW195710   0.591  10.971   4.326
64626SOL    HW295711   0.691  10.918   4.427
64627SOL     OW95712   1.416   9.188   3.484
64627SOL    HW195713   1.473   9.221   3.554
64627SOL    HW295714   1.365   9.119   3.527
64628SOL     OW95715   5.806  12.788  13.958
64628SOL    HW195716   5.825  12.878  13.932
64628SOL    HW295717   5.759  12.797  14.041
64629SOL     OW95718   0.185   2.439   7.861
64629SOL    HW195719   0.276   2.470   7.860
64629SOL    HW295720   0.178   2.383   7.784
64630SOL     OW95721  10.205   2.844   6.989
64630SOL    HW195722  10.189   2.859   7.082
64630SOL    HW295723  10.161   2.916   6.945
64631SOL     OW95724   5.607   3.800   4.436
64631SOL    HW195725   5.582   3.815   4.345
64631SOL    HW295726   5.650   3.881   4.463
64632SOL     OW95727  12.330  10.959   1.862
64632SOL    HW195728  12.321  11.030   1.926
64632SOL    HW295729  12.417  10.924   1.877
64633SOL     OW95730   6.246   4.320   6.760
64633SOL    HW195731   6.157   4.324   6.726
64633SOL    HW295732   6.260   4.228   6.783
64634SOL     OW95733  12.276  11.937   3.892
64634SOL    HW195734  12.246  11.849   3.869
64634SOL    HW295735  12.347  11.922   3.954
64635SOL     OW95736  10.351  14.171   4.743
64635SOL    HW195737  10.332  14.092   4.693
64635SOL    HW295738  10.425  14.147   4.799
64636SOL     OW95739   5.005   2.517   6.881
64636SOL    HW195740   5.094   2.501   6.911
64636SOL    HW295741   4.951   2.461   6.937
64637SOL     OW95742   5.111  11.814  10.871
64637SOL    HW195743   5.097  11.731  10.826
64637SOL    HW295744   5.098  11.881  10.804
64638SOL     OW95745   0.383  11.523   4.133
64638SOL    HW195746   0.448  11.560   4.192
64638SOL    HW295747   0.416  11.435   4.114
64639SOL     OW95748   5.626   7.012   9.312
64639SOL    HW195749   5.603   7.038   9.223
64639SOL    HW295750   5.712   7.052   9.327
64640SOL     OW95751   3.189   6.635   6.357
64640SOL    HW195752   3.249   6.668   6.291
64640SOL    HW295753   3.137   6.568   6.312
64641SOL     OW95754   3.530  11.636   2.743
64641SOL    HW195755   3.446  11.641   2.698
64641SOL    HW295756   3.560  11.546   2.729
64642SOL     OW95757  14.021   1.448   9.171
64642SOL    HW195758  13.988   1.396   9.244
64642SOL    HW295759  14.042   1.385   9.103
64643SOL     OW95760  14.749   4.981  14.699
64643SOL    HW195761  14.843   4.966  14.708
64643SOL    HW295762  14.733   5.066  14.741
64644SOL     OW95763  11.465  14.644  13.439
64644SOL    HW195764  11.405  14.713  13.467
64644SOL    HW295765  11.473  14.656  13.344
64645SOL     OW95766   4.877   9.447   3.655
64645SOL    HW195767   4.841   9.533   3.677
64645SOL    HW295768   4.870   9.397   3.736
64646SOL     OW95769   1.895   2.591  11.131
64646SOL    HW195770   1.841   2.657  11.176
64646SOL    HW295771   1.945   2.642  11.067
64647SOL     OW95772   1.572   0.071   4.103
64647SOL    HW195773   1.510   0.065   4.030
64647SOL    HW295774   1.584   0.165   4.116
64648SOL     OW95775  13.625   3.283   6.267
64648SOL    HW195776  13.536   3.253   6.252
64648SOL    HW295777  13.623   3.376   6.244
64649SOL     OW95778   1.011  11.050  10.694
64649SOL    HW195779   1.014  11.135  10.739
64649SOL    HW295780   0.936  11.005  10.735
64650SOL     OW95781  13.980   7.367  14.217
64650SOL    HW195782  13.984   7.287  14.270
64650SOL    HW295783  14.065   7.409  14.229
64651SOL     OW95784  10.748  14.271   0.433
64651SOL    HW195785  10.781  14.360   0.423
64651SOL    HW295786  10.653  14.279   0.427
64652SOL     OW95787   6.175   6.606   2.846
64652SOL    HW195788   6.165   6.676   2.911
64652SOL    HW295789   6.156   6.648   2.762
64653SOL     OW95790   4.800   3.595   5.599
64653SOL    HW195791   4.760   3.508   5.608
64653SOL    HW295792   4.893   3.577   5.591
64654SOL     OW95793   0.070   4.887   7.068
64654SOL    HW195794   0.047   4.828   7.140
64654SOL    HW295795   0.050   4.837   6.989
64655SOL     OW95796  10.866   7.323   2.809
64655SOL    HW195797  10.778   7.359   2.808
64655SOL    HW295798  10.860   7.242   2.758
64656SOL     OW95799   2.050  10.741   6.346
64656SOL    HW195800   2.028  10.826   6.383
64656SOL    HW295801   1.975  10.685   6.368
64657SOL     OW95802   3.688   2.512  10.032
64657SOL    HW195803   3.603   2.507   9.988
64657SOL    HW295804   3.690   2.600  10.071
64658SOL     OW95805   9.330  12.290   0.005
64658SOL    HW195806   9.423  12.275   0.023
64658SOL    HW295807   9.317  12.256  14.798
64659SOL     OW95808   6.881   2.286  14.306
64659SOL    HW195809   6.919   2.299  14.392
64659SOL    HW295810   6.954   2.258  14.251
64660SOL     OW95811   0.435   2.202   7.179
64660SOL    HW195812   0.344   2.231   7.171
64660SOL    HW295813   0.430   2.107   7.182
64661SOL     OW95814   9.479  12.286  10.452
64661SOL    HW195815   9.397  12.319  10.415
64661SOL    HW295816   9.536  12.271  10.376
64662SOL     OW95817   3.525   2.001  11.666
64662SOL    HW195818   3.536   2.069  11.732
64662SOL    HW295819   3.610   1.958  11.660
64663SOL     OW95820  14.019   6.619   6.215
64663SOL    HW195821  13.990   6.709   6.228
64663SOL    HW295822  13.997   6.599   6.124
64664SOL     OW95823   9.689   6.998  12.696
64664SOL    HW195824   9.615   7.001  12.756
64664SOL    HW295825   9.766   6.996  12.752
64665SOL     OW95826   8.537   6.776   3.357
64665SOL    HW195827   8.583   6.840   3.411
64665SOL    HW295828   8.446   6.806   3.356
64666SOL     OW95829   8.546  14.183   6.144
64666SOL    HW195830   8.561  14.105   6.197
64666SOL    HW295831   8.575  14.256   6.199
64667SOL     OW95832  10.465  10.901   8.163
64667SOL    HW195833  10.420  10.941   8.089
64667SOL    HW295834  10.487  10.974   8.220
64668SOL     OW95835   4.122   7.921   2.679
64668SOL    HW195836   4.167   7.906   2.763
64668SOL    HW295837   4.032   7.943   2.704
64669SOL     OW95838   4.840   1.642  13.567
64669SOL    HW195839   4.759   1.680  13.534
64669SOL    HW295840   4.879   1.597  13.491
64670SOL     OW95841   0.881   8.020   9.490
64670SOL    HW195842   0.806   8.027   9.432
64670SOL    HW295843   0.940   8.091   9.464
64671SOL     OW95844  14.640   2.377   2.860
64671SOL    HW195845  14.704   2.307   2.867
64671SOL    HW295846  14.560   2.341   2.898
64672SOL     OW95847   0.818   7.401  10.018
64672SOL    HW195848   0.850   7.357   9.940
64672SOL    HW295849   0.889   7.394  10.081
64673SOL     OW95850   1.676  14.342   4.358
64673SOL    HW195851   1.658  14.428   4.320
64673SOL    HW295852   1.728  14.297   4.291
64674SOL     OW95853   9.488   6.662   1.760
64674SOL    HW195854   9.517   6.651   1.851
64674SOL    HW295855   9.567   6.645   1.708
64675SOL     OW95856   2.604   0.179   2.757
64675SOL    HW195857   2.525   0.218   2.721
64675SOL    HW295858   2.672   0.198   2.692
64676SOL     OW95859  11.627  11.340   4.644
64676SOL    HW195860  11.661  11.302   4.725
64676SOL    HW295861  11.664  11.285   4.575
64677SOL     OW95862   2.181  10.079   5.319
64677SOL    HW195863   2.128  10.158   5.323
64677SOL    HW295864   2.168  10.038   5.405
64678SOL     OW95865   6.527   1.183   5.291
64678SOL    HW195866   6.475   1.214   5.217
64678SOL    HW295867   6.581   1.113   5.255
64679SOL     OW95868  13.600   9.938   3.194
64679SOL    HW195869  13.618  10.028   3.165
64679SOL    HW295870  13.541   9.948   3.269
64680SOL     OW95871   8.262   6.250   1.279
64680SOL    HW195872   8.173   6.281   1.294
64680SOL    HW295873   8.313   6.330   1.263
64681SOL     OW95874  13.974   2.846   0.919
64681SOL    HW195875  13.967   2.858   1.014
64681SOL    HW295876  13.890   2.807   0.894
64682SOL     OW95877  14.522  13.373   2.168
64682SOL    HW195878  14.586  13.348   2.102
64682SOL    HW295879  14.510  13.467   2.156
64683SOL     OW95880   1.146  13.052  11.134
64683SOL    HW195881   1.136  13.147  11.142
64683SOL    HW295882   1.093  13.029  11.057
64684SOL     OW95883  14.421  13.416  11.045
64684SOL    HW195884  14.334  13.430  11.084
64684SOL    HW295885  14.407  13.347  10.981
64685SOL     OW95886   2.492  12.254   5.905
64685SOL    HW195887   2.534  12.332   5.940
64685SOL    HW295888   2.546  12.229   5.830
64686SOL     OW95889  13.455   3.794   8.999
64686SOL    HW195890  13.472   3.765   9.089
64686SOL    HW295891  13.368   3.758   8.979
64687SOL     OW95892   4.610   1.933   6.172
64687SOL    HW195893   4.706   1.933   6.180
64687SOL    HW295894   4.593   1.909   6.081
64688SOL     OW95895   1.632   1.160   2.602
64688SOL    HW195896   1.624   1.156   2.507
64688SOL    HW295897   1.560   1.217   2.630
64689SOL     OW95898  12.576   0.555  11.188
64689SOL    HW195899  12.622   0.604  11.120
64689SOL    HW295900  12.623   0.471  11.193
64690SOL     OW95901   8.403  10.053   0.784
64690SOL    HW195902   8.434  10.063   0.694
64690SOL    HW295903   8.311  10.027   0.776
64691SOL     OW95904   5.109   0.454   5.782
64691SOL    HW195905   5.183   0.474   5.839
64691SOL    HW295906   5.140   0.381   5.728
64692SOL     OW95907   7.940  13.881  14.322
64692SOL    HW195908   8.035  13.878  14.339
64692SOL    HW295909   7.921  13.974  14.308
64693SOL     OW95910   1.567   1.577  10.668
64693SOL    HW195911   1.487   1.559  10.618
64693SOL    HW295912   1.558   1.522  10.746
64694SOL     OW95913   1.092  14.280   7.120
64694SOL    HW195914   1.027  14.317   7.061
64694SOL    HW295915   1.081  14.186   7.112
64695SOL     OW95916  12.369  10.743  13.293
64695SOL    HW195917  12.368  10.685  13.369
64695SOL    HW295918  12.329  10.824  13.324
64696SOL     OW95919  14.498  12.135  10.963
64696SOL    HW195920  14.558  12.197  11.004
64696SOL    HW295921  14.549  12.097  10.891
64697SOL     OW95922  12.165   3.271   7.028
64697SOL    HW195923  12.084   3.270   6.977
64697SOL    HW295924  12.201   3.358   7.013
64698SOL     OW95925   9.444   9.467  14.011
64698SOL    HW195926   9.359   9.436  13.980
64698SOL    HW295927   9.494   9.388  14.029
64699SOL     OW95928   8.128  12.536   7.978
64699SOL    HW195929   8.150  12.473   7.909
64699SOL    HW295930   8.209  12.583   7.994
64700SOL     OW95931   0.992  12.879  11.925
64700SOL    HW195932   1.024  12.819  11.858
64700SOL    HW295933   1.016  12.837  12.008
64701SOL     OW95934   2.929   2.365   2.745
64701SOL    HW195935   2.856   2.304   2.744
64701SOL    HW295936   2.888   2.452   2.752
64702SOL     OW95937   7.035   8.787  11.034
64702SOL    HW195938   7.016   8.747  10.949
64702SOL    HW295939   7.125   8.759  11.054
64703SOL     OW95940   1.088  13.641   9.247
64703SOL    HW195941   1.160  13.593   9.286
64703SOL    HW295942   1.079  13.605   9.159
64704SOL     OW95943   5.844   8.457  10.258
64704SOL    HW195944   5.820   8.545  10.288
64704SOL    HW295945   5.882   8.472  10.171
64705SOL     OW95946   4.055  13.698  14.391
64705SOL    HW195947   4.021  13.626  14.445
64705SOL    HW295948   4.059  13.773  14.451
64706SOL     OW95949  13.065   7.997  12.893
64706SOL    HW195950  13.064   7.953  12.808
64706SOL    HW295951  13.157   7.997  12.920
64707SOL     OW95952   1.702  11.904  14.079
64707SOL    HW195953   1.669  11.853  14.004
64707SOL    HW295954   1.634  11.894  14.146
64708SOL     OW95955   5.353   1.167  10.235
64708SOL    HW195956   5.433   1.156  10.287
64708SOL    HW295957   5.374   1.126  10.151
64709SOL     OW95958  14.150   4.810   1.379
64709SOL    HW195959  14.095   4.888   1.371
64709SOL    HW295960  14.177   4.808   1.470
64710SOL     OW95961  14.427   2.394   7.897
64710SOL    HW195962  14.419   2.444   7.978
64710SOL    HW295963  14.507   2.344   7.907
64711SOL     OW95964   2.663   5.476  12.254
64711SOL    HW195965   2.723   5.409  12.286
64711SOL    HW295966   2.718   5.533  12.201
64712SOL     OW95967   2.809  13.159  14.052
64712SOL    HW195968   2.729  13.160  14.000
64712SOL    HW295969   2.785  13.109  14.131
64713SOL     OW95970   0.275   9.661   5.752
64713SOL    HW195971   0.358   9.707   5.766
64713SOL    HW295972   0.263   9.608   5.831
64714SOL     OW95973  13.955   2.882   1.685
64714SOL    HW195974  13.885   2.944   1.706
64714SOL    HW295975  14.006   2.875   1.766
64715SOL     OW95976   5.486  14.739   5.937
64715SOL    HW195977   5.505  14.675   6.005
64715SOL    HW295978   5.490  14.689   5.855
64716SOL     OW95979  12.195   6.516   3.667
64716SOL    HW195980  12.289   6.515   3.649
64716SOL    HW295981  12.172   6.425   3.682
64717SOL     OW95982   2.381   2.253   8.786
64717SOL    HW195983   2.402   2.208   8.704
64717SOL    HW295984   2.293   2.223   8.807
64718SOL     OW95985  11.655   2.043   8.531
64718SOL    HW195986  11.571   2.057   8.487
64718SOL    HW295987  11.720   2.049   8.461
64719SOL     OW95988   9.194   5.803  11.288
64719SOL    HW195989   9.253   5.864  11.244
64719SOL    HW295990   9.123   5.789  11.225
64720SOL     OW95991   6.991   0.426   5.850
64720SOL    HW195992   7.071   0.434   5.798
64720SOL    HW295993   6.928   0.483   5.806
64721SOL     OW95994   6.167  11.503   2.426
64721SOL    HW195995   6.132  11.590   2.411
64721SOL    HW295996   6.090  11.447   2.434
64722SOL     OW95997   9.676   7.116   0.171
64722SOL    HW195998   9.752   7.131   0.227
64722SOL    HW295999   9.603   7.152   0.221
64723SOL     OW96000   9.183  11.942   4.448
64723SOL    HW196001   9.099  11.986   4.435
64723SOL    HW296002   9.236  12.005   4.497
64724SOL     OW96003   7.057   8.837   0.134
64724SOL    HW196004   7.099   8.808   0.215
64724SOL    HW296005   7.011   8.760   0.102
64725SOL     OW96006   8.656   4.776  12.455
64725SOL    HW196007   8.735   4.739  12.416
64725SOL    HW296008   8.588   4.711  12.437
64726SOL     OW96009   4.033  13.966   4.852
64726SOL    HW196010   3.950  14.003   4.882
64726SOL    HW296011   4.084  13.953   4.932
64727SOL     OW96012  11.788   2.452   9.519
64727SOL    HW196013  11.871   2.446   9.567
64727SOL    HW296014  11.773   2.546   9.510
64728SOL     OW96015   8.776   4.958  12.644
64728SOL    HW196016   8.729   4.901  12.584
64728SOL    HW296017   8.849   4.993  12.593
64729SOL     OW96018   9.647   7.283  10.641
64729SOL    HW196019   9.564   7.312  10.602
64729SOL    HW296020   9.655   7.192  10.614
64730SOL     OW96021   9.798   9.717  11.175
64730SOL    HW196022   9.809   9.734  11.081
64730SOL    HW296023   9.874   9.665  11.199
64731SOL     OW96024  10.133   2.725  11.609
64731SOL    HW196025  10.041   2.705  11.591
64731SOL    HW296026  10.161   2.777  11.534
64732SOL     OW96027   3.575  14.274   6.544
64732SOL    HW196028   3.550  14.181   6.539
64732SOL    HW296029   3.612  14.284   6.631
64733SOL     OW96030   3.758  11.897  10.609
64733SOL    HW196031   3.677  11.905  10.660
64733SOL    HW296032   3.752  11.810  10.570
64734SOL     OW96033  11.541  13.535  12.174
64734SOL    HW196034  11.460  13.557  12.219
64734SOL    HW296035  11.601  13.607  12.195
64735SOL     OW96036  10.423  12.164   9.504
64735SOL    HW196037  10.362  12.237   9.498
64735SOL    HW296038  10.387  12.097   9.446
64736SOL     OW96039   8.294   8.064  10.687
64736SOL    HW196040   8.200   8.082  10.690
64736SOL    HW296041   8.335   8.149  10.675
64737SOL     OW96042  13.625   6.327   5.641
64737SOL    HW196043  13.687   6.259   5.665
64737SOL    HW296044  13.556   6.282   5.593
64738SOL     OW96045   3.331   6.982   0.942
64738SOL    HW196046   3.343   6.946   1.030
64738SOL    HW296047   3.236   6.981   0.928
64739SOL     OW96048   6.593   7.861   3.282
64739SOL    HW196049   6.548   7.798   3.226
64739SOL    HW296050   6.542   7.942   3.274
64740SOL     OW96051   4.944  12.633  11.489
64740SOL    HW196052   4.943  12.614  11.583
64740SOL    HW296053   5.036  12.647  11.468
64741SOL     OW96054   5.282   7.328   7.519
64741SOL    HW196055   5.352   7.393   7.522
64741SOL    HW296056   5.234   7.339   7.601
64742SOL     OW96057   3.869   4.872  11.591
64742SOL    HW196058   3.931   4.935  11.628
64742SOL    HW296059   3.914   4.835  11.515
64743SOL     OW96060  10.162  12.836   2.005
64743SOL    HW196061  10.187  12.917   1.962
64743SOL    HW296062  10.239  12.780   1.999
64744SOL     OW96063   8.414   0.299   0.266
64744SOL    HW196064   8.361   0.253   0.331
64744SOL    HW296065   8.351   0.330   0.201
64745SOL     OW96066   9.055  13.432  14.017
64745SOL    HW196067   8.999  13.455  13.943
64745SOL    HW296068   9.141  13.416  13.978
64746SOL     OW96069   5.693   0.588   9.127
64746SOL    HW196070   5.704   0.512   9.069
64746SOL    HW296071   5.782   0.617   9.146
64747SOL     OW96072   1.974  13.891  10.484
64747SOL    HW196073   2.028  13.846  10.418
64747SOL    HW296074   1.993  13.844  10.566
64748SOL     OW96075  11.001   3.590   0.747
64748SOL    HW196076  10.954   3.510   0.720
64748SOL    HW296077  11.092   3.572   0.724
64749SOL     OW96078   2.615   8.512   5.532
64749SOL    HW196079   2.604   8.481   5.622
64749SOL    HW296080   2.583   8.440   5.478
64750SOL     OW96081  13.504  10.146  11.408
64750SOL    HW196082  13.489  10.051  11.411
64750SOL    HW296083  13.437  10.183  11.464
64751SOL     OW96084   4.048  14.726  11.569
64751SOL    HW196085   4.095  14.736  11.651
64751SOL    HW296086   4.112  14.748  11.501
64752SOL     OW96087   2.443  11.119  12.410
64752SOL    HW196088   2.487  11.204  12.403
64752SOL    HW296089   2.350  11.141  12.420
64753SOL     OW96090   8.536   0.720   3.421
64753SOL    HW196091   8.519   0.631   3.453
64753SOL    HW296092   8.494   0.722   3.334
64754SOL     OW96093   8.604  10.367   4.069
64754SOL    HW196094   8.533  10.323   4.022
64754SOL    HW296095   8.596  10.459   4.045
64755SOL     OW96096   8.122   1.884   8.005
64755SOL    HW196097   8.144   1.936   7.928
64755SOL    HW296098   8.200   1.830   8.020
64756SOL     OW96099   0.336   3.494   1.301
64756SOL    HW196100   0.308   3.585   1.312
64756SOL    HW296101   0.255   3.443   1.303
64757SOL     OW96102   4.058  12.953   2.995
64757SOL    HW196103   3.992  13.014   2.962
64757SOL    HW296104   4.074  12.981   3.086
64758SOL     OW96105  12.635   8.807   4.914
64758SOL    HW196106  12.564   8.815   4.851
64758SOL    HW296107  12.591   8.787   4.997
64759SOL     OW96108   8.692  11.798   9.300
64759SOL    HW196109   8.664  11.862   9.234
64759SOL    HW296110   8.615  11.745   9.316
64760SOL     OW96111   6.787   7.183   8.408
64760SOL    HW196112   6.872   7.154   8.439
64760SOL    HW296113   6.760   7.116   8.345
64761SOL     OW96114   7.871  12.474  13.140
64761SOL    HW196115   7.818  12.447  13.215
64761SOL    HW296116   7.934  12.537  13.176
64762SOL     OW96117   1.330   2.399  12.556
64762SOL    HW196118   1.362   2.471  12.610
64762SOL    HW296119   1.359   2.320  12.603
64763SOL     OW96120  11.845   1.848   2.243
64763SOL    HW196121  11.877   1.843   2.333
64763SOL    HW296122  11.888   1.777   2.198
64764SOL     OW96123  10.258   7.817  10.055
64764SOL    HW196124  10.271   7.726  10.082
64764SOL    HW296125  10.225   7.860  10.133
64765SOL     OW96126  10.665  12.334   6.060
64765SOL    HW196127  10.706  12.367   5.981
64765SOL    HW296128  10.711  12.252   6.079
64766SOL     OW96129   1.081   0.974   4.250
64766SOL    HW196130   1.011   0.991   4.187
64766SOL    HW296131   1.089   0.879   4.252
64767SOL     OW96132   0.259   6.621  12.872
64767SOL    HW196133   0.256   6.610  12.777
64767SOL    HW296134   0.259   6.715  12.886
64768SOL     OW96135   5.392   6.964  12.830
64768SOL    HW196136   5.363   6.876  12.855
64768SOL    HW296137   5.333   7.023  12.876
64769SOL     OW96138   2.588  13.143   9.404
64769SOL    HW196139   2.498  13.111   9.412
64769SOL    HW296140   2.628  13.122   9.489
64770SOL     OW96141  13.559  10.242   9.728
64770SOL    HW196142  13.592  10.212   9.813
64770SOL    HW296143  13.488  10.302   9.751
64771SOL     OW96144  14.183   4.883  11.326
64771SOL    HW196145  14.102   4.833  11.318
64771SOL    HW296146  14.174   4.955  11.264
64772SOL     OW96147   0.655  10.319   7.830
64772SOL    HW196148   0.730  10.336   7.773
64772SOL    HW296149   0.583  10.302   7.770
64773SOL     OW96150  10.297   2.031   6.449
64773SOL    HW196151  10.206   2.058   6.441
64773SOL    HW296152  10.297   1.962   6.515
64774SOL     OW96153   8.344  12.828   1.702
64774SOL    HW196154   8.401  12.904   1.688
64774SOL    HW296155   8.403  12.753   1.695
64775SOL     OW96156  10.420  10.442   1.421
64775SOL    HW196157  10.349  10.432   1.358
64775SOL    HW296158  10.473  10.363   1.410
64776SOL     OW96159   3.335   7.404   1.985
64776SOL    HW196160   3.270   7.471   1.966
64776SOL    HW296161   3.323   7.338   1.916
64777SOL     OW96162   0.963  14.880   5.163
64777SOL    HW196163   1.001   0.077   5.125
64777SOL    HW296164   0.989  14.809   5.104
64778SOL     OW96165   6.836  11.989  12.105
64778SOL    HW196166   6.803  11.901  12.088
64778SOL    HW296167   6.930  11.983  12.089
64779SOL     OW96168  13.186  10.261  12.249
64779SOL    HW196169  13.243  10.189  12.219
64779SOL    HW296170  13.119  10.217  12.301
64780SOL     OW96171  13.691   2.194   9.248
64780SOL    HW196172  13.735   2.116   9.216
64780SOL    HW296173  13.747   2.225   9.320
64781SOL     OW96174  11.701   8.520   5.932
64781SOL    HW196175  11.702   8.451   5.999
64781SOL    HW296176  11.743   8.595   5.974
64782SOL     OW96177  13.482   1.885   1.272
64782SOL    HW196178  13.565   1.889   1.225
64782SOL    HW296179  13.416   1.887   1.204
64783SOL     OW96180  14.110  14.681   2.138
64783SOL    HW196181  14.033  14.661   2.190
64783SOL    HW296182  14.165  14.735   2.196
64784SOL     OW96183   2.042   0.900  14.602
64784SOL    HW196184   2.125   0.901  14.650
64784SOL    HW296185   1.986   0.962  14.650
64785SOL     OW96186  12.278   1.378   9.246
64785SOL    HW196187  12.222   1.455   9.237
64785SOL    HW296188  12.223   1.306   9.214
64786SOL     OW96189   1.342   7.356   3.758
64786SOL    HW196190   1.423   7.306   3.749
64786SOL    HW296191   1.331   7.400   3.674
64787SOL     OW96192  10.454   6.101   9.869
64787SOL    HW196193  10.504   6.037   9.819
64787SOL    HW296194  10.374   6.056   9.895
64788SOL     OW96195  12.260   8.378   6.552
64788SOL    HW196196  12.226   8.294   6.524
64788SOL    HW296197  12.295   8.363   6.640
64789SOL     OW96198   6.362   9.381   8.977
64789SOL    HW196199   6.341   9.467   9.014
64789SOL    HW296200   6.360   9.395   8.882
64790SOL     OW96201   6.016   1.946   6.860
64790SOL    HW196202   5.946   1.961   6.797
64790SOL    HW296203   6.044   1.856   6.845
64791SOL     OW96204   9.410   4.214   2.673
64791SOL    HW196205   9.327   4.210   2.720
64791SOL    HW296206   9.466   4.151   2.719
64792SOL     OW96207   6.134  10.160   5.740
64792SOL    HW196208   6.223  10.124   5.744
64792SOL    HW296209   6.141  10.237   5.683
64793SOL     OW96210  10.226   8.220   6.988
64793SOL    HW196211  10.160   8.281   6.954
64793SOL    HW296212  10.178   8.138   7.000
64794SOL     OW96213   5.936   2.208   2.277
64794SOL    HW196214   5.975   2.284   2.321
64794SOL    HW296215   5.902   2.154   2.347
64795SOL     OW96216   4.125  12.884   8.076
64795SOL    HW196217   4.149  12.944   8.147
64795SOL    HW296218   4.058  12.932   8.027
64796SOL     OW96219  10.176   6.041   6.001
64796SOL    HW196220  10.101   6.084   5.962
64796SOL    HW296221  10.175   5.952   5.964
64797SOL     OW96222   6.360   8.856   0.229
64797SOL    HW196223   6.316   8.802   0.164
64797SOL    HW296224   6.362   8.943   0.191
64798SOL     OW96225  10.915  12.069   3.135
64798SOL    HW196226  10.944  12.029   3.217
64798SOL    HW296227  10.834  12.023   3.112
64799SOL     OW96228   7.051  11.330   4.749
64799SOL    HW196229   7.090  11.330   4.836
64799SOL    HW296230   7.126  11.325   4.689
64800SOL     OW96231   3.392   1.042  12.256
64800SOL    HW196232   3.313   1.020  12.306
64800SOL    HW296233   3.424   0.958  12.223
64801SOL     OW96234  10.558   2.760   9.699
64801SOL    HW196235  10.475   2.713   9.696
64801SOL    HW296236  10.541   2.835   9.756
64802SOL     OW96237   3.772   9.225   6.003
64802SOL    HW196238   3.809   9.310   6.026
64802SOL    HW296239   3.713   9.204   6.075
64803SOL     OW96240   0.107   9.384   3.910
64803SOL    HW196241   0.018   9.385   3.877
64803SOL    HW296242   0.161   9.407   3.835
64804SOL     OW96243  14.741   0.668   4.651
64804SOL    HW196244  14.707   0.597   4.705
64804SOL    HW296245  14.786   0.624   4.579
64805SOL     OW96246   6.909   3.860   7.901
64805SOL    HW196247   6.980   3.880   7.961
64805SOL    HW296248   6.864   3.785   7.940
64806SOL     OW96249   1.917   1.085  11.512
64806SOL    HW196250   1.912   1.139  11.433
64806SOL    HW296251   1.901   1.146  11.584
64807SOL     OW96252   4.386   4.092   0.949
64807SOL    HW196253   4.452   4.135   1.004
64807SOL    HW296254   4.422   4.096   0.860
64808SOL     OW96255   1.686  10.965   0.710
64808SOL    HW196256   1.721  10.902   0.774
64808SOL    HW296257   1.595  10.938   0.698
64809SOL     OW96258   6.149   5.176   7.503
64809SOL    HW196259   6.141   5.260   7.549
64809SOL    HW296260   6.061   5.160   7.469
64810SOL     OW96261  11.342  13.391   4.502
64810SOL    HW196262  11.386  13.401   4.586
64810SOL    HW296263  11.249  13.386   4.524
64811SOL     OW96264   0.168   5.923  12.305
64811SOL    HW196265   0.091   5.931  12.249
64811SOL    HW296266   0.241   5.908  12.244
64812SOL     OW96267  10.778   2.064   5.532
64812SOL    HW196268  10.763   2.154   5.503
64812SOL    HW296269  10.851   2.033   5.478
64813SOL     OW96270   3.469   3.232   2.952
64813SOL    HW196271   3.485   3.305   2.891
64813SOL    HW296272   3.498   3.265   3.037
64814SOL     OW96273  10.205   1.838   0.493
64814SOL    HW196274  10.161   1.840   0.578
64814SOL    HW296275  10.294   1.866   0.510
64815SOL     OW96276   7.552   9.303   3.854
64815SOL    HW196277   7.504   9.366   3.802
64815SOL    HW296278   7.570   9.230   3.795
64816SOL     OW96279   1.547   1.535   9.046
64816SOL    HW196280   1.474   1.527   8.984
64816SOL    HW296281   1.561   1.629   9.055
64817SOL     OW96282   5.043  12.242  13.749
64817SOL    HW196283   5.078  12.182  13.814
64817SOL    HW296284   4.980  12.296  13.798
64818SOL     OW96285  10.697   0.233   2.741
64818SOL    HW196286  10.685   0.252   2.648
64818SOL    HW296287  10.629   0.169   2.761
64819SOL     OW96288   8.015   8.748   8.538
64819SOL    HW196289   7.944   8.747   8.602
64819SOL    HW296290   8.020   8.658   8.506
64820SOL     OW96291  12.936   1.091  14.481
64820SOL    HW196292  12.903   1.176  14.508
64820SOL    HW296293  13.031   1.097  14.492
64821SOL     OW96294  10.127  11.188   7.204
64821SOL    HW196295  10.207  11.237   7.225
64821SOL    HW296296  10.146  11.098   7.231
64822SOL     OW96297   4.311  11.059  11.123
64822SOL    HW196298   4.283  11.014  11.203
64822SOL    HW296299   4.348  11.141  11.153
64823SOL     OW96300   2.435   7.211   2.544
64823SOL    HW196301   2.530   7.202   2.553
64823SOL    HW296302   2.400   7.180   2.628
64824SOL     OW96303   5.867   5.951  12.500
64824SOL    HW196304   5.781   5.966  12.461
64824SOL    HW296305   5.848   5.907  12.583
64825SOL     OW96306   2.051  10.165  12.054
64825SOL    HW196307   2.023  10.075  12.069
64825SOL    HW296308   1.983  10.201  11.996
64826SOL     OW96309  12.763   2.541   9.985
64826SOL    HW196310  12.839   2.595   9.966
64826SOL    HW296311  12.799   2.461  10.024
64827SOL     OW96312   2.319   6.602  10.575
64827SOL    HW196313   2.384   6.555  10.522
64827SOL    HW296314   2.352   6.593  10.665
64828SOL     OW96315   9.457   9.492   0.839
64828SOL    HW196316   9.408   9.454   0.766
64828SOL    HW296317   9.514   9.557   0.799
64829SOL     OW96318  12.273   9.008   2.553
64829SOL    HW196319  12.360   9.036   2.524
64829SOL    HW296320  12.265   9.042   2.642
64830SOL     OW96321   7.577   3.991   0.409
64830SOL    HW196322   7.667   3.971   0.434
64830SOL    HW296323   7.583   4.071   0.357
64831SOL     OW96324   3.168  12.799  12.155
64831SOL    HW196325   3.128  12.873  12.200
64831SOL    HW296326   3.251  12.784  12.202
64832SOL     OW96327   2.674   1.075  10.930
64832SOL    HW196328   2.608   1.140  10.954
64832SOL    HW296329   2.709   1.044  11.013
64833SOL     OW96330   8.940   6.589   8.807
64833SOL    HW196331   9.014   6.575   8.748
64833SOL    HW296332   8.977   6.586   8.895
64834SOL     OW96333   9.329   6.815   9.377
64834SOL    HW196334   9.366   6.889   9.329
64834SOL    HW296335   9.405   6.769   9.413
64835SOL     OW96336  10.618   3.602   4.011
64835SOL    HW196337  10.713   3.611   4.007
64835SOL    HW296338  10.584   3.688   3.989
64836SOL     OW96339   1.633   3.277   7.955
64836SOL    HW196340   1.558   3.290   8.014
64836SOL    HW296341   1.596   3.231   7.879
64837SOL     OW96342   6.111   5.095   8.772
64837SOL    HW196343   6.015   5.088   8.780
64837SOL    HW296344   6.130   5.186   8.795
64838SOL     OW96345   4.377   3.021   2.533
64838SOL    HW196346   4.462   2.992   2.567
64838SOL    HW296347   4.329   2.940   2.518
64839SOL     OW96348   8.752   4.073   6.326
64839SOL    HW196349   8.776   4.109   6.241
64839SOL    HW296350   8.682   4.131   6.358
64840SOL     OW96351   3.285  12.781   2.922
64840SOL    HW196352   3.332  12.821   2.849
64840SOL    HW296353   3.213  12.841   2.939
64841SOL     OW96354  14.536  11.998   1.085
64841SOL    HW196355  14.590  12.055   1.139
64841SOL    HW296356  14.584  11.915   1.082
64842SOL     OW96357  10.960   6.785   1.670
64842SOL    HW196358  10.882   6.735   1.694
64842SOL    HW296359  10.964   6.778   1.575
64843SOL     OW96360   3.826  12.807  12.828
64843SOL    HW196361   3.765  12.858  12.774
64843SOL    HW296362   3.854  12.735  12.771
64844SOL     OW96363  12.945   9.444   9.494
64844SOL    HW196364  12.936   9.379   9.425
64844SOL    HW296365  12.984   9.520   9.451
64845SOL     OW96366   7.906   3.353   6.228
64845SOL    HW196367   7.887   3.429   6.283
64845SOL    HW296368   7.832   3.349   6.168
64846SOL     OW96369   4.012  11.836   0.334
64846SOL    HW196370   3.920  11.863   0.328
64846SOL    HW296371   4.060  11.919   0.340
64847SOL     OW96372  14.560   9.479   6.967
64847SOL    HW196373  14.493   9.416   6.942
64847SOL    HW296374  14.575   9.463   7.060
64848SOL     OW96375   5.087   1.790   8.210
64848SOL    HW196376   5.162   1.821   8.261
64848SOL    HW296377   5.113   1.703   8.180
64849SOL     OW96378   2.899   8.809   0.045
64849SOL    HW196379   2.907   8.894   0.002
64849SOL    HW296380   2.887   8.747  14.855
64850SOL     OW96381   9.007   1.537   9.051
64850SOL    HW196382   8.961   1.454   9.065
64850SOL    HW296383   8.937   1.602   9.046
64851SOL     OW96384   3.622  14.609  10.663
64851SOL    HW196385   3.618  14.680  10.599
64851SOL    HW296386   3.610  14.651  10.747
64852SOL     OW96387  12.042  11.805   6.189
64852SOL    HW196388  12.100  11.749   6.138
64852SOL    HW296389  12.094  11.831   6.265
64853SOL     OW96390   6.644   7.581  12.862
64853SOL    HW196391   6.734   7.609  12.842
64853SOL    HW296392   6.644   7.568  12.957
64854SOL     OW96393   7.291   5.566   3.158
64854SOL    HW196394   7.259   5.648   3.121
64854SOL    HW296395   7.304   5.585   3.251
64855SOL     OW96396   4.761  12.524   7.814
64855SOL    HW196397   4.849  12.515   7.778
64855SOL    HW296398   4.703  12.499   7.743
64856SOL     OW96399   3.844   2.605  12.136
64856SOL    HW196400   3.829   2.682  12.081
64856SOL    HW296401   3.927   2.569  12.104
64857SOL     OW96402  13.883  13.789   8.133
64857SOL    HW196403  13.808  13.732   8.150
64857SOL    HW296404  13.851  13.854   8.071
64858SOL     OW96405   7.793   9.716   2.319
64858SOL    HW196406   7.862   9.761   2.270
64858SOL    HW296407   7.757   9.783   2.376
64859SOL     OW96408   5.268   4.125   9.960
64859SOL    HW196409   5.178   4.157   9.968
64859SOL    HW296410   5.261   4.030   9.967
64860SOL     OW96411   7.281   5.217   4.247
64860SOL    HW196412   7.247   5.306   4.232
64860SOL    HW296413   7.376   5.227   4.245
64861SOL     OW96414   7.154   0.176   9.148
64861SOL    HW196415   7.119   0.264   9.136
64861SOL    HW296416   7.187   0.151   9.061
64862SOL     OW96417   5.142  11.625   3.964
64862SOL    HW196418   5.180  11.712   3.955
64862SOL    HW296419   5.068  11.624   3.902
64863SOL     OW96420  11.951  14.189   5.799
64863SOL    HW196421  11.912  14.142   5.725
64863SOL    HW296422  11.929  14.281   5.783
64864SOL     OW96423  11.085   0.708  11.059
64864SOL    HW196424  11.129   0.675  11.137
64864SOL    HW296425  11.093   0.638  10.994
64865SOL     OW96426   4.059   7.871   7.117
64865SOL    HW196427   4.120   7.861   7.044
64865SOL    HW296428   4.105   7.930   7.178
64866SOL     OW96429   4.986   5.651   8.303
64866SOL    HW196430   4.959   5.616   8.387
64866SOL    HW296431   5.032   5.733   8.323
64867SOL     OW96432   3.386   2.442  12.066
64867SOL    HW196433   3.401   2.412  12.156
64867SOL    HW296434   3.292   2.428  12.052
64868SOL     OW96435   2.815   8.177  12.340
64868SOL    HW196436   2.778   8.098  12.378
64868SOL    HW296437   2.852   8.149  12.257
64869SOL     OW96438  13.582   1.912   3.424
64869SOL    HW196439  13.581   1.990   3.479
64869SOL    HW296440  13.502   1.864   3.449
64870SOL     OW96441   3.594  13.907   1.968
64870SOL    HW196442   3.619  13.969   1.899
64870SOL    HW296443   3.536  13.845   1.923
64871SOL     OW96444  12.609  10.997   4.983
64871SOL    HW196445  12.525  10.996   5.030
64871SOL    HW296446  12.593  11.055   4.908
64872SOL     OW96447   5.287   1.585   6.227
64872SOL    HW196448   5.365   1.558   6.180
64872SOL    HW296449   5.232   1.628   6.160
64873SOL     OW96450  12.001  14.092   6.257
64873SOL    HW196451  11.906  14.089   6.257
64873SOL    HW296452  12.026  14.071   6.167
64874SOL     OW96453  14.300   7.127  11.465
64874SOL    HW196454  14.261   7.062  11.408
64874SOL    HW296455  14.287   7.092  11.554
64875SOL     OW96456  13.672   7.429   8.313
64875SOL    HW196457  13.721   7.509   8.332
64875SOL    HW296458  13.737   7.369   8.277
64876SOL     OW96459  13.832   8.033   4.025
64876SOL    HW196460  13.867   7.977   4.095
64876SOL    HW296461  13.741   8.049   4.051
64877SOL     OW96462   2.610  13.910   7.879
64877SOL    HW196463   2.527  13.937   7.840
64877SOL    HW296464   2.632  13.980   7.940
64878SOL     OW96465   4.562   8.127  13.557
64878SOL    HW196466   4.544   8.096  13.468
64878SOL    HW296467   4.656   8.114  13.568
64879SOL     OW96468   3.193  12.396  11.854
64879SOL    HW196469   3.131  12.365  11.787
64879SOL    HW296470   3.158  12.481  11.881
64880SOL     OW96471   2.486   5.636   1.935
64880SOL    HW196472   2.482   5.618   2.029
64880SOL    HW296473   2.579   5.636   1.914
64881SOL     OW96474   8.986   9.155   8.154
64881SOL    HW196475   9.018   9.162   8.064
64881SOL    HW296476   9.059   9.184   8.208
64882SOL     OW96477   2.386  12.778   5.321
64882SOL    HW196478   2.302  12.763   5.276
64882SOL    HW296479   2.423  12.854   5.276
64883SOL     OW96480   0.514  14.726  12.133
64883SOL    HW196481   0.424  14.694  12.133
64883SOL    HW296482   0.524  14.769  12.218
64884SOL     OW96483  13.104  13.506   2.438
64884SOL    HW196484  13.032  13.569   2.431
64884SOL    HW296485  13.140  13.501   2.349
64885SOL     OW96486   7.960  13.138   5.095
64885SOL    HW196487   8.006  13.199   5.153
64885SOL    HW296488   7.977  13.052   5.134
64886SOL     OW96489   5.365  10.000   8.870
64886SOL    HW196490   5.409  10.084   8.889
64886SOL    HW296491   5.285  10.003   8.922
64887SOL     OW96492  13.250   0.081  13.581
64887SOL    HW196493  13.161   0.053  13.561
64887SOL    HW296494  13.249   0.176  13.570
64888SOL     OW96495   8.820   8.209  11.133
64888SOL    HW196496   8.872   8.284  11.161
64888SOL    HW296497   8.843   8.197  11.041
64889SOL     OW96498   9.994   2.031  10.767
64889SOL    HW196499   9.990   1.944  10.726
64889SOL    HW296500   9.913   2.037  10.818
64890SOL     OW96501   5.047   5.690   5.611
64890SOL    HW196502   5.118   5.672   5.672
64890SOL    HW296503   4.967   5.665   5.659
64891SOL     OW96504   3.756  10.250   8.638
64891SOL    HW196505   3.806  10.299   8.703
64891SOL    HW296506   3.665  10.267   8.659
64892SOL     OW96507  13.049  13.916   2.787
64892SOL    HW196508  13.058  13.991   2.845
64892SOL    HW296509  13.097  13.845   2.830
64893SOL     OW96510  12.327   8.774  11.658
64893SOL    HW196511  12.297   8.852  11.705
64893SOL    HW296512  12.276   8.775  11.576
64894SOL     OW96513  11.272   3.326  11.390
64894SOL    HW196514  11.329   3.307  11.464
64894SOL    HW296515  11.197   3.268  11.401
64895SOL     OW96516  14.081   5.256   8.828
64895SOL    HW196517  14.172   5.228   8.821
64895SOL    HW296518  14.043   5.235   8.742
64896SOL     OW96519   2.005  10.627   4.420
64896SOL    HW196520   2.026  10.625   4.326
64896SOL    HW296521   2.089  10.648   4.462
64897SOL     OW96522   3.297  13.574   4.975
64897SOL    HW196523   3.269  13.485   4.956
64897SOL    HW296524   3.337  13.569   5.062
64898SOL     OW96525   1.835   5.563  11.786
64898SOL    HW196526   1.835   5.558  11.690
64898SOL    HW296527   1.853   5.655  11.805
64899SOL     OW96528   9.756   1.970   5.157
64899SOL    HW196529   9.765   2.032   5.229
64899SOL    HW296530   9.667   1.936   5.165
64900SOL     OW96531   2.897  13.992   3.047
64900SOL    HW196532   2.978  13.979   2.997
64900SOL    HW296533   2.878  14.085   3.037
64901SOL     OW96534   5.684   7.505   1.850
64901SOL    HW196535   5.633   7.426   1.837
64901SOL    HW296536   5.620   7.571   1.877
64902SOL     OW96537   9.426  11.156  12.297
64902SOL    HW196538   9.496  11.093  12.317
64902SOL    HW296539   9.384  11.122  12.219
64903SOL     OW96540   3.810   4.590   5.923
64903SOL    HW196541   3.897   4.627   5.906
64903SOL    HW296542   3.818   4.499   5.895
64904SOL     OW96543  11.946  13.041   8.272
64904SOL    HW196544  11.965  13.119   8.324
64904SOL    HW296545  12.004  12.974   8.308
64905SOL     OW96546   8.737  12.205   0.537
64905SOL    HW196547   8.773  12.235   0.453
64905SOL    HW296548   8.810  12.216   0.599
64906SOL     OW96549  13.194   3.002  10.034
64906SOL    HW196550  13.290   3.001  10.034
64906SOL    HW296551  13.170   2.957  10.115
64907SOL     OW96552   7.811   7.379   3.913
64907SOL    HW196553   7.723   7.367   3.880
64907SOL    HW296554   7.827   7.473   3.903
64908SOL     OW96555  14.821   6.533  14.378
64908SOL    HW196556   0.017   6.587  14.393
64908SOL    HW296557  14.856   6.446  14.359
64909SOL     OW96558  12.985   9.911   9.570
64909SOL    HW196559  12.948   9.981   9.517
64909SOL    HW296560  13.037   9.859   9.508
64910SOL     OW96561   0.177  10.561   8.993
64910SOL    HW196562   0.085  10.573   8.969
64910SOL    HW296563   0.217  10.522   8.916
64911SOL     OW96564   7.185  10.983   6.873
64911SOL    HW196565   7.158  10.916   6.935
64911SOL    HW296566   7.280  10.971   6.864
64912SOL     OW96567   0.475   3.735   3.369
64912SOL    HW196568   0.471   3.669   3.299
64912SOL    HW296569   0.456   3.686   3.449
64913SOL     OW96570  12.133   2.075   0.371
64913SOL    HW196571  12.044   2.043   0.356
64913SOL    HW296572  12.121   2.161   0.412
64914SOL     OW96573   3.945   5.941  10.861
64914SOL    HW196574   3.982   5.860  10.898
64914SOL    HW296575   4.015   5.975  10.804
64915SOL     OW96576  10.200  10.656   7.442
64915SOL    HW196577  10.125  10.600   7.467
64915SOL    HW296578  10.201  10.725   7.508
64916SOL     OW96579  12.912  12.865   9.627
64916SOL    HW196580  12.958  12.935   9.672
64916SOL    HW296581  12.823  12.868   9.661
64917SOL     OW96582   2.306  10.929   1.672
64917SOL    HW196583   2.400  10.940   1.661
64917SOL    HW296584   2.266  10.993   1.613
64918SOL     OW96585  13.640   3.768   7.541
64918SOL    HW196586  13.687   3.802   7.465
64918SOL    HW296587  13.585   3.699   7.507
64919SOL     OW96588  14.608  13.800   3.891
64919SOL    HW196589  14.648  13.877   3.931
64919SOL    HW296590  14.677  13.734   3.892
64920SOL     OW96591  10.623   5.805   9.290
64920SOL    HW196592  10.573   5.883   9.267
64920SOL    HW296593  10.712   5.823   9.257
64921SOL     OW96594   3.596   3.983   3.946
64921SOL    HW196595   3.650   4.060   3.964
64921SOL    HW296596   3.507   4.018   3.939
64922SOL     OW96597   6.152   0.799   1.089
64922SOL    HW196598   6.090   0.871   1.088
64922SOL    HW296599   6.217   0.822   1.022
64923SOL     OW96600  13.944   0.773   8.586
64923SOL    HW196601  13.921   0.829   8.512
64923SOL    HW296602  14.031   0.741   8.565
64924SOL     OW96603   8.880   3.168   1.531
64924SOL    HW196604   8.802   3.222   1.523
64924SOL    HW296605   8.849   3.078   1.523
64925SOL     OW96606   7.692   7.471   8.828
64925SOL    HW196607   7.668   7.387   8.866
64925SOL    HW296608   7.685   7.533   8.900
64926SOL     OW96609   5.584  13.350   0.860
64926SOL    HW196610   5.641  13.391   0.795
64926SOL    HW296611   5.636  13.352   0.941
64927SOL     OW96612  14.562   6.555  14.272
64927SOL    HW196613  14.544   6.599  14.355
64927SOL    HW296614  14.656   6.536  14.275
64928SOL     OW96615   1.704   5.677   1.227
64928SOL    HW196616   1.628   5.680   1.169
64928SOL    HW296617   1.705   5.587   1.259
64929SOL     OW96618  14.197   2.981   3.367
64929SOL    HW196619  14.263   3.040   3.402
64929SOL    HW296620  14.116   3.007   3.412
64930SOL     OW96621   9.053  12.003   0.797
64930SOL    HW196622   8.980  11.951   0.762
64930SOL    HW296623   9.062  11.973   0.887
64931SOL     OW96624  14.519   4.205   5.390
64931SOL    HW196625  14.531   4.286   5.341
64931SOL    HW296626  14.573   4.141   5.344
64932SOL     OW96627  13.764   2.645  13.605
64932SOL    HW196628  13.741   2.723  13.655
64932SOL    HW296629  13.844   2.613  13.646
64933SOL     OW96630   2.428   0.189  13.518
64933SOL    HW196631   2.457   0.245  13.590
64933SOL    HW296632   2.351   0.234  13.482
64934SOL     OW96633   7.144  13.611  14.741
64934SOL    HW196634   7.107  13.683  14.792
64934SOL    HW296635   7.112  13.626  14.652
64935SOL     OW96636   6.287   4.381   5.332
64935SOL    HW196637   6.331   4.378   5.247
64935SOL    HW296638   6.339   4.443   5.383
64936SOL     OW96639   0.999   9.161   8.486
64936SOL    HW196640   0.911   9.185   8.458
64936SOL    HW296641   1.057   9.222   8.441
64937SOL     OW96642   5.418  14.253   9.280
64937SOL    HW196643   5.472  14.177   9.299
64937SOL    HW296644   5.330  14.218   9.265
64938SOL     OW96645   7.759   0.385   6.997
64938SOL    HW196646   7.712   0.321   7.051
64938SOL    HW296647   7.745   0.468   7.042
64939SOL     OW96648   5.874   9.366  14.029
64939SOL    HW196649   5.957   9.412  14.017
64939SOL    HW296650   5.884   9.318  14.112
64940SOL     OW96651   2.388   6.811   7.637
64940SOL    HW196652   2.479   6.807   7.608
64940SOL    HW296653   2.393   6.813   7.733
64941SOL     OW96654  11.137   1.899   6.410
64941SOL    HW196655  11.118   1.841   6.337
64941SOL    HW296656  11.065   1.962   6.409
64942SOL     OW96657   9.721  13.021   0.078
64942SOL    HW196658   9.659  13.052   0.144
64942SOL    HW296659   9.672  13.026  14.877
64943SOL     OW96660   5.554   1.799   4.842
64943SOL    HW196661   5.464   1.771   4.860
64943SOL    HW296662   5.600   1.718   4.819
64944SOL     OW96663   3.602   4.359   0.218
64944SOL    HW196664   3.630   4.408   0.295
64944SOL    HW296665   3.507   4.348   0.230
64945SOL     OW96666   1.181  10.277   6.964
64945SOL    HW196667   1.122  10.349   6.986
64945SOL    HW296668   1.269  10.310   6.984
64946SOL     OW96669  11.064   8.630  14.718
64946SOL    HW196670  11.122   8.597  14.786
64946SOL    HW296671  10.976   8.607  14.747
64947SOL     OW96672  10.685   8.074   6.734
64947SOL    HW196673  10.775   8.084   6.763
64947SOL    HW296674  10.637   8.142   6.781
64948SOL     OW96675   0.639   5.927   2.800
64948SOL    HW196676   0.691   6.004   2.818
64948SOL    HW296677   0.655   5.908   2.707
64949SOL     OW96678   2.103   2.892  10.581
64949SOL    HW196679   2.172   2.829  10.602
64949SOL    HW296680   2.073   2.923  10.666
64950SOL     OW96681   9.523   9.449   4.606
64950SOL    HW196682   9.489   9.364   4.578
64950SOL    HW296683   9.597   9.427   4.664
64951SOL     OW96684   8.360  10.202   7.780
64951SOL    HW196685   8.419  10.127   7.789
64951SOL    HW296686   8.418  10.275   7.759
64952SOL     OW96687   0.675   4.515  12.336
64952SOL    HW196688   0.712   4.508  12.248
64952SOL    HW296689   0.745   4.551  12.389
64953SOL     OW96690   5.464  13.879   4.439
64953SOL    HW196691   5.528  13.828   4.389
64953SOL    HW296692   5.493  13.970   4.430
64954SOL     OW96693   3.446   4.951   7.430
64954SOL    HW196694   3.504   4.904   7.370
64954SOL    HW296695   3.360   4.947   7.390
64955SOL     OW96696   6.110   8.512  14.004
64955SOL    HW196697   6.022   8.482  14.027
64955SOL    HW296698   6.150   8.438  13.959
64956SOL     OW96699   0.459  14.280  13.129
64956SOL    HW196700   0.380  14.226  13.134
64956SOL    HW296701   0.437  14.348  13.065
64957SOL     OW96702   4.187   2.453   9.114
64957SOL    HW196703   4.218   2.368   9.147
64957SOL    HW296704   4.264   2.510   9.119
64958SOL     OW96705   4.661   8.333  14.101
64958SOL    HW196706   4.613   8.261  14.060
64958SOL    HW296707   4.597   8.404  14.107
64959SOL     OW96708   8.858   6.542  10.141
64959SOL    HW196709   8.847   6.572  10.051
64959SOL    HW296710   8.786   6.583  10.189
64960SOL     OW96711   9.791  10.927  14.651
64960SOL    HW196712   9.866  10.982  14.674
64960SOL    HW296713   9.768  10.955  14.562
64961SOL     OW96714   2.132  12.347   2.442
64961SOL    HW196715   2.046  12.331   2.404
64961SOL    HW296716   2.120  12.332   2.536
64962SOL     OW96717   7.186   2.931   0.298
64962SOL    HW196718   7.121   2.923   0.228
64962SOL    HW296719   7.157   2.869   0.365
64963SOL     OW96720   6.008   0.933  10.801
64963SOL    HW196721   5.921   0.968  10.820
64963SOL    HW296722   6.055   1.007  10.762
64964SOL     OW96723   7.788  12.953  11.938
64964SOL    HW196724   7.867  12.903  11.958
64964SOL    HW296725   7.739  12.954  12.020
64965SOL     OW96726   9.867   4.154   8.215
64965SOL    HW196727   9.813   4.092   8.263
64965SOL    HW296728   9.879   4.114   8.129
64966SOL     OW96729  12.114   8.321  10.749
64966SOL    HW196730  12.079   8.268  10.820
64966SOL    HW296731  12.206   8.333  10.771
64967SOL     OW96732  10.986  12.574  13.116
64967SOL    HW196733  10.958  12.633  13.185
64967SOL    HW296734  11.078  12.598  13.100
64968SOL     OW96735   1.423   3.712   9.663
64968SOL    HW196736   1.493   3.767   9.627
64968SOL    HW296737   1.347   3.729   9.607
64969SOL     OW96738   6.521  13.401  11.215
64969SOL    HW196739   6.612  13.398  11.186
64969SOL    HW296740   6.524  13.452  11.296
64970SOL     OW96741  10.767   0.525  11.331
64970SOL    HW196742  10.811   0.548  11.413
64970SOL    HW296743  10.780   0.602  11.275
64971SOL     OW96744   0.381   1.481   8.330
64971SOL    HW196745   0.310   1.418   8.325
64971SOL    HW296746   0.371   1.534   8.251
64972SOL     OW96747   7.853  10.289   5.606
64972SOL    HW196748   7.782  10.309   5.667
64972SOL    HW296749   7.897  10.373   5.592
64973SOL     OW96750  11.004  11.143   7.340
64973SOL    HW196751  10.952  11.176   7.414
64973SOL    HW296752  11.046  11.064   7.375
64974SOL     OW96753   3.191  13.222   8.036
64974SOL    HW196754   3.170  13.239   8.128
64974SOL    HW296755   3.287  13.219   8.035
64975SOL     OW96756   7.231   5.135  11.660
64975SOL    HW196757   7.189   5.221  11.654
64975SOL    HW296758   7.160   5.075  11.682
64976SOL     OW96759   6.582   2.027  12.336
64976SOL    HW196760   6.497   2.000  12.371
64976SOL    HW296761   6.638   2.037  12.413
64977SOL     OW96762   3.024   4.088   1.611
64977SOL    HW196763   3.010   4.041   1.693
64977SOL    HW296764   2.951   4.061   1.555
64978SOL     OW96765   8.332  14.845   2.663
64978SOL    HW196766   8.307  14.775   2.602
64978SOL    HW296767   8.291   0.042   2.627
64979SOL     OW96768   7.472   0.553  12.245
64979SOL    HW196769   7.426   0.571  12.327
64979SOL    HW296770   7.420   0.485  12.202
64980SOL     OW96771   5.559  10.974   1.487
64980SOL    HW196772   5.609  10.923   1.424
64980SOL    HW296773   5.472  10.984   1.447
64981SOL     OW96774  12.602  13.754   7.174
64981SOL    HW196775  12.517  13.771   7.133
64981SOL    HW296776  12.665  13.782   7.108
64982SOL     OW96777  12.663   1.997   4.514
64982SOL    HW196778  12.605   1.961   4.447
64982SOL    HW296779  12.636   2.088   4.522
64983SOL     OW96780  14.751   0.193  10.056
64983SOL    HW196781  14.671   0.141  10.053
64983SOL    HW296782  14.721   0.283  10.042
64984SOL     OW96783   0.769  10.840   1.341
64984SOL    HW196784   0.847  10.832   1.286
64984SOL    HW296785   0.758  10.753   1.380
64985SOL     OW96786   3.553  11.103  12.797
64985SOL    HW196787   3.611  11.028  12.785
64985SOL    HW296788   3.520  11.094  12.886
64986SOL     OW96789  13.997  12.996   9.547
64986SOL    HW196790  13.992  12.925   9.611
64986SOL    HW296791  13.910  13.037   9.551
64987SOL     OW96792   1.703   0.634   3.613
64987SOL    HW196793   1.633   0.601   3.556
64987SOL    HW296794   1.734   0.714   3.570
64988SOL     OW96795  10.748  14.079  14.389
64988SOL    HW196796  10.696  14.092  14.468
64988SOL    HW296797  10.804  14.004  14.410
64989SOL     OW96798   8.947   8.741   1.091
64989SOL    HW196799   9.035   8.702   1.087
64989SOL    HW296800   8.962   8.831   1.118
64990SOL     OW96801   4.662  12.882   9.324
64990SOL    HW196802   4.624  12.885   9.413
64990SOL    HW296803   4.670  12.789   9.304
64991SOL     OW96804   8.631   3.717   7.334
64991SOL    HW196805   8.599   3.747   7.419
64991SOL    HW296806   8.678   3.636   7.354
64992SOL     OW96807   2.424   6.297  13.420
64992SOL    HW196808   2.341   6.332  13.385
64992SOL    HW296809   2.466   6.373  13.460
64993SOL     OW96810   6.767   7.128   4.552
64993SOL    HW196811   6.687   7.125   4.498
64993SOL    HW296812   6.826   7.066   4.510
64994SOL     OW96813   4.899   6.194  10.658
64994SOL    HW196814   4.940   6.267  10.612
64994SOL    HW296815   4.914   6.214  10.751
64995SOL     OW96816  10.453   6.408   6.877
64995SOL    HW196817  10.454   6.333   6.818
64995SOL    HW296818  10.394   6.382   6.948
64996SOL     OW96819   7.827   2.833   9.935
64996SOL    HW196820   7.814   2.897  10.004
64996SOL    HW296821   7.766   2.762   9.956
64997SOL     OW96822   4.400   0.673   5.097
64997SOL    HW196823   4.404   0.759   5.140
64997SOL    HW296824   4.378   0.693   5.006
64998SOL     OW96825  12.298  13.894  13.954
64998SOL    HW196826  12.311  13.868  14.045
64998SOL    HW296827  12.384  13.921  13.923
64999SOL     OW96828   8.057  12.411  12.727
64999SOL    HW196829   8.141  12.365  12.720
64999SOL    HW296830   8.001  12.369  12.662
65000SOL     OW96831   5.716  11.255   2.764
65000SOL    HW196832   5.678  11.319   2.703
65000SOL    HW296833   5.647  11.240   2.828
65001SOL     OW96834   1.789  14.710   5.167
65001SOL    HW196835   1.832  14.700   5.082
65001SOL    HW296836   1.750  14.797   5.164
65002SOL     OW96837  12.477   2.893  13.849
65002SOL    HW196838  12.474   2.951  13.773
65002SOL    HW296839  12.417   2.934  13.912
65003SOL     OW96840   4.717  13.685  11.888
65003SOL    HW196841   4.635  13.667  11.934
65003SOL    HW296842   4.748  13.598  11.861
65004SOL     OW96843   1.688  10.929   7.292
65004SOL    HW196844   1.677  10.960   7.203
65004SOL    HW296845   1.716  10.838   7.282
65005SOL     OW96846   9.673   6.056   0.502
65005SOL    HW196847   9.732   6.015   0.565
65005SOL    HW296848   9.629   6.125   0.553
65006SOL     OW96849  11.879   2.551   0.871
65006SOL    HW196850  11.790   2.562   0.904
65006SOL    HW296851  11.886   2.616   0.801
65007SOL     OW96852   9.123  14.195   9.510
65007SOL    HW196853   9.029  14.209   9.503
65007SOL    HW296854   9.131  14.108   9.550
65008SOL     OW96855   1.096  11.901  12.263
65008SOL    HW196856   1.166  11.880  12.324
65008SOL    HW296857   1.072  11.991  12.283
65009SOL     OW96858   8.647  11.973   9.636
65009SOL    HW196859   8.636  12.052   9.584
65009SOL    HW296860   8.559  11.951   9.666
65010SOL     OW96861  10.824   9.997   6.515
65010SOL    HW196862  10.814   9.907   6.547
65010SOL    HW296863  10.785   9.996   6.428
65011SOL     OW96864   2.193   5.673   2.210
65011SOL    HW196865   2.236   5.657   2.294
65011SOL    HW296866   2.119   5.613   2.209
65012SOL     OW96867   2.845  13.034   0.236
65012SOL    HW196868   2.765  13.000   0.196
65012SOL    HW296869   2.821  13.121   0.267
65013SOL     OW96870   3.728  12.609   3.562
65013SOL    HW196871   3.809  12.579   3.603
65013SOL    HW296872   3.751  12.692   3.520
65014SOL     OW96873  11.357   9.019   3.705
65014SOL    HW196874  11.335   9.112   3.706
65014SOL    HW296875  11.277   8.975   3.735
65015SOL     OW96876  11.333  12.930   3.455
65015SOL    HW196877  11.314  12.867   3.385
65015SOL    HW296878  11.249  12.972   3.473
65016SOL     OW96879   1.415   5.820  13.065
65016SOL    HW196880   1.503   5.782  13.059
65016SOL    HW296881   1.357   5.746  13.047
65017SOL     OW96882  12.952   8.493  12.093
65017SOL    HW196883  12.912   8.417  12.137
65017SOL    HW296884  12.935   8.478  12.000
65018SOL     OW96885   6.439  10.587  12.166
65018SOL    HW196886   6.368  10.621  12.112
65018SOL    HW296887   6.395  10.545  12.240
65019SOL     OW96888   5.886   8.112   5.169
65019SOL    HW196889   5.860   8.034   5.121
65019SOL    HW296890   5.962   8.084   5.220
65020SOL     OW96891   8.028   9.307   0.227
65020SOL    HW196892   7.963   9.323   0.295
65020SOL    HW296893   8.016   9.379   0.166
65021SOL     OW96894   3.912   4.514   3.724
65021SOL    HW196895   3.900   4.422   3.700
65021SOL    HW296896   3.830   4.538   3.767
65022SOL     OW96897   6.466  14.421  13.807
65022SOL    HW196898   6.553  14.385  13.792
65022SOL    HW296899   6.417  14.402  13.727
65023SOL     OW96900   8.718   4.473  13.470
65023SOL    HW196901   8.746   4.512  13.387
65023SOL    HW296902   8.798   4.474  13.524
65024SOL     OW96903   5.772   1.340   6.615
65024SOL    HW196904   5.698   1.380   6.661
65024SOL    HW296905   5.824   1.414   6.584
65025SOL     OW96906   6.340  12.185  14.621
65025SOL    HW196907   6.371  12.242  14.691
65025SOL    HW296908   6.419  12.146  14.585
65026SOL     OW96909  13.108   4.494   8.866
65026SOL    HW196910  13.190   4.544   8.862
65026SOL    HW296911  13.108   4.443   8.785
65027SOL     OW96912   6.646  11.013   1.166
65027SOL    HW196913   6.656  11.069   1.243
65027SOL    HW296914   6.552  11.010   1.150
65028SOL     OW96915   6.856   1.444   5.515
65028SOL    HW196916   6.936   1.474   5.559
65028SOL    HW296917   6.799   1.521   5.515
65029SOL     OW96918   0.846  12.491   1.365
65029SOL    HW196919   0.868  12.438   1.288
65029SOL    HW296920   0.927  12.495   1.415
65030SOL     OW96921   1.320   7.706   0.190
65030SOL    HW196922   1.277   7.727   0.108
65030SOL    HW296923   1.344   7.791   0.228
65031SOL     OW96924   6.734   3.359  10.929
65031SOL    HW196925   6.810   3.318  10.970
65031SOL    HW296926   6.659   3.328  10.980
65032SOL     OW96927  13.246   1.595   1.858
65032SOL    HW196928  13.202   1.668   1.816
65032SOL    HW296929  13.269   1.536   1.787
65033SOL     OW96930   9.012   6.849  13.638
65033SOL    HW196931   8.981   6.827  13.550
65033SOL    HW296932   8.943   6.818  13.696
65034SOL     OW96933   8.045   6.484   9.006
65034SOL    HW196934   8.022   6.577   8.998
65034SOL    HW296935   8.004   6.457   9.088
65035SOL     OW96936   5.846   6.278   6.761
65035SOL    HW196937   5.927   6.311   6.723
65035SOL    HW296938   5.865   6.270   6.855
65036SOL     OW96939  14.168   3.192   6.259
65036SOL    HW196940  14.101   3.165   6.197
65036SOL    HW296941  14.236   3.234   6.206
65037SOL     OW96942  10.470  12.886  11.087
65037SOL    HW196943  10.562  12.862  11.071
65037SOL    HW296944  10.474  12.978  11.114
65038SOL     OW96945   2.061  13.149  14.536
65038SOL    HW196946   2.000  13.108  14.596
65038SOL    HW296947   2.092  13.227  14.583
65039SOL     OW96948  14.004  13.646   0.760
65039SOL    HW196949  14.024  13.661   0.852
65039SOL    HW296950  14.008  13.733   0.720
65040SOL     OW96951   0.354   7.656   6.732
65040SOL    HW196952   0.393   7.600   6.799
65040SOL    HW296953   0.429   7.691   6.684
65041SOL     OW96954   5.229  14.211   3.585
65041SOL    HW196955   5.152  14.186   3.535
65041SOL    HW296956   5.230  14.151   3.660
65042SOL     OW96957   4.382   9.928   6.377
65042SOL    HW196958   4.456   9.897   6.325
65042SOL    HW296959   4.404   9.905   6.467
65043SOL     OW96960   3.032   4.788   3.684
65043SOL    HW196961   3.057   4.843   3.610
65043SOL    HW296962   3.090   4.817   3.755
65044SOL     OW96963  10.829  12.993   2.742
65044SOL    HW196964  10.764  12.929   2.770
65044SOL    HW296965  10.797  13.076   2.776
65045SOL     OW96966  11.703  10.745   7.688
65045SOL    HW196967  11.798  10.737   7.690
65045SOL    HW296968  11.671  10.683   7.754
65046SOL     OW96969   7.374   1.932   9.287
65046SOL    HW196970   7.358   1.966   9.199
65046SOL    HW296971   7.396   1.840   9.273
65047SOL     OW96972   4.544   8.950   7.994
65047SOL    HW196973   4.634   8.917   7.995
65047SOL    HW296974   4.520   8.954   7.902
65048SOL     OW96975  12.321  10.700   0.504
65048SOL    HW196976  12.401  10.752   0.498
65048SOL    HW296977  12.262  10.739   0.440
65049SOL     OW96978  11.256  11.758   2.362
65049SOL    HW196979  11.312  11.695   2.408
65049SOL    HW296980  11.280  11.843   2.398
65050SOL     OW96981   0.642   6.468   0.974
65050SOL    HW196982   0.706   6.475   1.044
65050SOL    HW296983   0.641   6.554   0.933
65051SOL     OW96984  14.636   4.248   3.667
65051SOL    HW196985  14.545   4.241   3.695
65051SOL    HW296986  14.637   4.211   3.579
65052SOL     OW96987   4.243   2.290  11.937
65052SOL    HW196988   4.230   2.216  11.878
65052SOL    HW296989   4.329   2.275  11.976
65053SOL     OW96990  10.139   4.682   1.617
65053SOL    HW196991  10.075   4.738   1.660
65053SOL    HW296992  10.172   4.736   1.545
65054SOL     OW96993  14.296   8.704   0.275
65054SOL    HW196994  14.346   8.657   0.208
65054SOL    HW296995  14.302   8.647   0.352
65055SOL     OW96996   2.779  11.852  10.096
65055SOL    HW196997   2.753  11.924  10.039
65055SOL    HW296998   2.717  11.782  10.077
65056SOL     OW96999   5.166   2.171   1.616
65056SOL    HW197000   5.214   2.158   1.534
65056SOL    HW297001   5.077   2.140   1.597
65057SOL     OW97002  12.610   5.183   0.777
65057SOL    HW197003  12.524   5.212   0.747
65057SOL    HW297004  12.612   5.206   0.870
65058SOL     OW97005   0.812  13.204   5.162
65058SOL    HW197006   0.890  13.151   5.143
65058SOL    HW297007   0.824  13.232   5.253
65059SOL     OW97008   6.336   9.855   0.960
65059SOL    HW197009   6.388   9.859   1.041
65059SOL    HW297010   6.336   9.944   0.927
65060SOL     OW97011   0.572   0.756   0.269
65060SOL    HW197012   0.495   0.790   0.313
65060SOL    HW297013   0.613   0.832   0.227
65061SOL     OW97014   7.467   7.082   8.586
65061SOL    HW197015   7.411   7.119   8.655
65061SOL    HW297016   7.477   6.990   8.611
65062SOL     OW97017   5.446   3.914  11.142
65062SOL    HW197018   5.464   3.859  11.065
65062SOL    HW297019   5.532   3.932  11.179
65063SOL     OW97020  13.525  11.240   3.020
65063SOL    HW197021  13.596  11.260   3.081
65063SOL    HW297022  13.494  11.154   3.046
65064SOL     OW97023  11.910   5.903   0.445
65064SOL    HW197024  11.908   5.935   0.535
65064SOL    HW297025  12.002   5.911   0.419
65065SOL     OW97026   9.647  12.790  10.817
65065SOL    HW197027   9.724  12.734  10.807
65065SOL    HW297028   9.610  12.796  10.729
65066SOL     OW97029  12.505   0.133   0.164
65066SOL    HW197030  12.489   0.121   0.070
65066SOL    HW297031  12.581   0.191   0.168
65067SOL     OW97032   8.198   1.466  10.891
65067SOL    HW197033   8.235   1.495  10.974
65067SOL    HW297034   8.127   1.407  10.916
65068SOL     OW97035  14.546   5.171   2.915
65068SOL    HW197036  14.597   5.167   2.997
65068SOL    HW297037  14.483   5.100   2.923
65069SOL     OW97038   4.247   7.438  13.642
65069SOL    HW197039   4.182   7.504  13.615
65069SOL    HW297040   4.321   7.452  13.583
65070SOL     OW97041   6.321   9.134   5.854
65070SOL    HW197042   6.362   9.062   5.903
65070SOL    HW297043   6.283   9.191   5.921
65071SOL     OW97044   0.059   9.123   0.157
65071SOL    HW197045   0.114   9.063   0.106
65071SOL    HW297046  14.865   9.139   0.101
65072SOL     OW97047  12.539  11.129  10.512
65072SOL    HW197048  12.569  11.082  10.590
65072SOL    HW297049  12.483  11.066  10.466
65073SOL     OW97050   1.411   6.700  11.807
65073SOL    HW197051   1.385   6.792  11.806
65073SOL    HW297052   1.496   6.700  11.850
65074SOL     OW97053  13.547  14.654  10.520
65074SOL    HW197054  13.459  14.682  10.545
65074SOL    HW297055  13.596  14.735  10.513
65075SOL     OW97056   0.666   4.356  11.469
65075SOL    HW197057   0.570   4.365  11.471
65075SOL    HW297058   0.695   4.425  11.410
65076SOL     OW97059   3.249  12.073   3.580
65076SOL    HW197060   3.343  12.063   3.588
65076SOL    HW297061   3.237  12.155   3.532
65077SOL     OW97062   4.362   9.224   6.919
65077SOL    HW197063   4.381   9.284   6.990
65077SOL    HW297064   4.448   9.204   6.881
65078SOL     OW97065   2.428  13.561   7.332
65078SOL    HW197066   2.368  13.634   7.343
65078SOL    HW297067   2.445  13.529   7.421
65079SOL     OW97068   9.049   7.399  11.287
65079SOL    HW197069   9.052   7.326  11.350
65079SOL    HW297070   9.047   7.478  11.342
65080SOL     OW97071   3.210   0.088  11.815
65080SOL    HW197072   3.295   0.105  11.855
65080SOL    HW297073   3.160   0.041  11.881
65081SOL     OW97074   8.329  12.536   0.230
65081SOL    HW197075   8.354  12.458   0.180
65081SOL    HW297076   8.299  12.598   0.163
65082SOL     OW97077   4.687  14.015   1.893
65082SOL    HW197078   4.674  13.951   1.963
65082SOL    HW297079   4.598  14.040   1.866
65083SOL     OW97080   3.282   0.070   3.498
65083SOL    HW197081   3.223   0.102   3.566
65083SOL    HW297082   3.226   0.018   3.440
65084SOL     OW97083   6.525  13.264  14.821
65084SOL    HW197084   6.435  13.240  14.842
65084SOL    HW297085   6.516  13.339  14.761
65085SOL     OW97086   2.969  11.740   0.549
65085SOL    HW197087   2.970  11.665   0.608
65085SOL    HW297088   3.014  11.810   0.597
65086SOL     OW97089  14.579  11.786   7.583
65086SOL    HW197090  14.539  11.863   7.545
65086SOL    HW297091  14.665  11.816   7.614
65087SOL     OW97092  12.727   2.517   3.216
65087SOL    HW197093  12.669   2.557   3.151
65087SOL    HW297094  12.714   2.570   3.294
65088SOL     OW97095   7.981   2.460   5.974
65088SOL    HW197096   8.067   2.457   5.932
65088SOL    HW297097   7.967   2.552   5.994
65089SOL     OW97098   5.851   1.292   5.551
65089SOL    HW197099   5.783   1.242   5.596
65089SOL    HW297100   5.912   1.226   5.520
65090SOL     OW97101   8.536   4.457  13.073
65090SOL    HW197102   8.567   4.486  12.988
65090SOL    HW297103   8.483   4.529  13.106
65091SOL     OW97104   1.462  14.845   6.585
65091SOL    HW197105   1.424  14.759   6.567
65091SOL    HW297106   1.518  14.832   6.661
65092SOL     OW97107   5.757  13.198   6.432
65092SOL    HW197108   5.786  13.114   6.397
65092SOL    HW297109   5.669  13.210   6.397
65093SOL     OW97110   4.553  10.565   8.844
65093SOL    HW197111   4.576  10.472   8.850
65093SOL    HW297112   4.479  10.568   8.783
65094SOL     OW97113   1.791   0.089   0.206
65094SOL    HW197114   1.802   0.119   0.116
65094SOL    HW297115   1.697   0.070   0.214
65095SOL     OW97116   5.140   5.918   6.743
65095SOL    HW197117   5.218   5.922   6.688
65095SOL    HW297118   5.121   6.010   6.764
65096SOL     OW97119   1.515  10.429  12.132
65096SOL    HW197120   1.533  10.502  12.073
65096SOL    HW297121   1.593  10.425  12.188
65097SOL     OW97122   1.798   1.366  12.932
65097SOL    HW197123   1.756   1.310  12.996
65097SOL    HW297124   1.734   1.434  12.913
65098SOL     OW97125   3.711  13.753   9.015
65098SOL    HW197126   3.766  13.788   9.086
65098SOL    HW297127   3.759  13.775   8.935
65099SOL     OW97128   5.304   6.663  11.151
65099SOL    HW197129   5.215   6.667  11.187
65099SOL    HW297130   5.299   6.596  11.082
65100SOL     OW97131   6.361  10.232   7.404
65100SOL    HW197132   6.345  10.229   7.310
65100SOL    HW297133   6.315  10.311   7.433
65101SOL     OW97134   5.175  11.704   9.424
65101SOL    HW197135   5.089  11.732   9.454
65101SOL    HW297136   5.157  11.627   9.369
65102SOL     OW97137  13.075   4.634   9.382
65102SOL    HW197138  13.117   4.575   9.319
65102SOL    HW297139  12.983   4.609   9.381
65103SOL     OW97140   2.351   8.473   2.731
65103SOL    HW197141   2.437   8.502   2.763
65103SOL    HW297142   2.333   8.393   2.780
65104SOL     OW97143   3.157   0.400   0.707
65104SOL    HW197144   3.209   0.478   0.687
65104SOL    HW297145   3.144   0.358   0.623
65105SOL     OW97146   9.084  10.544  11.544
65105SOL    HW197147   9.120  10.525  11.630
65105SOL    HW297148   9.026  10.620  11.558
65106SOL     OW97149   4.400   1.396   1.668
65106SOL    HW197150   4.317   1.403   1.619
65106SOL    HW297151   4.463   1.444   1.614
65107SOL     OW97152   5.991  11.689   4.837
65107SOL    HW197153   6.067  11.747   4.847
65107SOL    HW297154   5.919  11.747   4.814
65108SOL     OW97155   8.027   2.964   2.651
65108SOL    HW197156   8.004   2.872   2.656
65108SOL    HW297157   8.120   2.964   2.626
65109SOL     OW97158   6.104  14.484   3.283
65109SOL    HW197159   6.010  14.467   3.283
65109SOL    HW297160   6.124  14.506   3.192
65110SOL     OW97161   5.141   8.126  10.235
65110SOL    HW197162   5.058   8.167  10.260
65110SOL    HW297163   5.183   8.106  10.319
65111SOL     OW97164   5.753   3.603  12.497
65111SOL    HW197165   5.749   3.698  12.494
65111SOL    HW297166   5.690   3.578  12.565
65112SOL     OW97167   1.304   9.555   1.822
65112SOL    HW197168   1.273   9.639   1.856
65112SOL    HW297169   1.289   9.493   1.894
65113SOL     OW97170   6.077   9.924   3.650
65113SOL    HW197171   6.030   9.879   3.720
65113SOL    HW297172   6.164   9.942   3.687
65114SOL     OW97173   1.371   4.710   9.742
65114SOL    HW197174   1.301   4.688   9.804
65114SOL    HW297175   1.432   4.763   9.793
65115SOL     OW97176  13.628  10.602   2.423
65115SOL    HW197177  13.642  10.550   2.502
65115SOL    HW297178  13.680  10.681   2.436
65116SOL     OW97179   9.220   8.614   4.910
65116SOL    HW197180   9.139   8.583   4.869
65116SOL    HW297181   9.276   8.536   4.915
65117SOL     OW97182   0.255  12.570  14.614
65117SOL    HW197183   0.170  12.527  14.620
65117SOL    HW297184   0.285  12.575  14.705
65118SOL     OW97185   7.362  14.543  12.239
65118SOL    HW197186   7.282  14.527  12.289
65118SOL    HW297187   7.333  14.548  12.148
65119SOL     OW97188  13.007   7.669   2.465
65119SOL    HW197189  13.031   7.627   2.548
65119SOL    HW297190  13.060   7.623   2.399
65120SOL     OW97191  10.133   4.014  11.029
65120SOL    HW197192  10.086   3.930  11.028
65120SOL    HW297193  10.219   3.994  10.991
65121SOL     OW97194   6.944   6.779   8.220
65121SOL    HW197195   6.989   6.864   8.224
65121SOL    HW297196   6.885   6.780   8.296
65122SOL     OW97197  13.795   6.426   6.826
65122SOL    HW197198  13.783   6.505   6.878
65122SOL    HW297199  13.818   6.458   6.739
65123SOL     OW97200  10.109   1.685  10.850
65123SOL    HW197201  10.090   1.597  10.819
65123SOL    HW297202  10.056   1.742  10.795
65124SOL     OW97203   9.441   0.141   7.435
65124SOL    HW197204   9.457   0.047   7.441
65124SOL    HW297205   9.511   0.174   7.378
65125SOL     OW97206  10.777  11.765   4.414
65125SOL    HW197207  10.774  11.721   4.499
65125SOL    HW297208  10.732  11.848   4.429
65126SOL     OW97209   1.271   0.802   8.859
65126SOL    HW197210   1.245   0.716   8.824
65126SOL    HW297211   1.241   0.864   8.793
65127SOL     OW97212   4.076   9.585  13.301
65127SOL    HW197213   3.986   9.616  13.310
65127SOL    HW297214   4.067   9.493  13.277
65128SOL     OW97215  12.110  11.088  11.680
65128SOL    HW197216  12.079  11.130  11.599
65128SOL    HW297217  12.112  10.994  11.659
65129SOL     OW97218   5.381   1.310   1.963
65129SOL    HW197219   5.401   1.239   2.025
65129SOL    HW297220   5.299   1.282   1.921
65130SOL     OW97221   1.714   8.291   7.628
65130SOL    HW197222   1.775   8.310   7.557
65130SOL    HW297223   1.655   8.367   7.631
65131SOL     OW97224   0.618   0.690   4.455
65131SOL    HW197225   0.562   0.622   4.418
65131SOL    HW297226   0.698   0.643   4.481
65132SOL     OW97227   6.908  11.788   8.956
65132SOL    HW197228   6.887  11.752   8.870
65132SOL    HW297229   6.846  11.860   8.966
65133SOL     OW97230   5.757   3.607  12.921
65133SOL    HW197231   5.851   3.614  12.903
65133SOL    HW297232   5.718   3.678  12.870
65134SOL     OW97233   1.509   1.968  13.270
65134SOL    HW197234   1.541   2.056  13.252
65134SOL    HW297235   1.488   1.969  13.364
65135SOL     OW97236   1.261   0.959  10.290
65135SOL    HW197237   1.304   0.885  10.248
65135SOL    HW297238   1.170   0.955  10.260
65136SOL     OW97239   1.604   4.692   7.566
65136SOL    HW197240   1.530   4.722   7.618
65136SOL    HW297241   1.635   4.770   7.519
65137SOL     OW97242   6.887   8.356   0.047
65137SOL    HW197243   6.864   8.433  14.876
65137SOL    HW297244   6.941   8.303  14.871
65138SOL     OW97245  11.829   2.468   0.361
65138SOL    HW197246  11.885   2.538   0.328
65138SOL    HW297247  11.827   2.404   0.290
65139SOL     OW97248  13.439   2.598  13.410
65139SOL    HW197249  13.477   2.681  13.379
65139SOL    HW297250  13.435   2.608  13.505
65140SOL     OW97251   5.280  11.430  13.152
65140SOL    HW197252   5.285  11.429  13.057
65140SOL    HW297253   5.187  11.443  13.171
65141SOL     OW97254   9.638   3.050   3.227
65141SOL    HW197255   9.601   3.042   3.139
65141SOL    HW297256   9.593   3.126   3.265
65142SOL     OW97257  12.803  11.371   0.298
65142SOL    HW197258  12.723  11.320   0.309
65142SOL    HW297259  12.799  11.437   0.367
65143SOL     OW97260  10.825   8.191   4.412
65143SOL    HW197261  10.777   8.177   4.330
65143SOL    HW297262  10.766   8.162   4.481
65144SOL     OW97263   7.392   3.713  14.672
65144SOL    HW197264   7.455   3.703  14.742
65144SOL    HW297265   7.444   3.716  14.592
65145SOL     OW97266  12.682   1.005   1.673
65145SOL    HW197267  12.745   0.967   1.734
65145SOL    HW297268  12.730   1.075   1.630
65146SOL     OW97269   5.010  12.297   4.250
65146SOL    HW197270   5.040  12.359   4.185
65146SOL    HW297271   5.089  12.271   4.297
65147SOL     OW97272  11.232   9.405   8.932
65147SOL    HW197273  11.255   9.427   9.023
65147SOL    HW297274  11.222   9.489   8.889
65148SOL     OW97275   2.120  14.540   2.627
65148SOL    HW197276   2.188  14.539   2.559
65148SOL    HW297277   2.165  14.574   2.705
65149SOL     OW97278   1.833  12.622   5.085
65149SOL    HW197279   1.874  12.701   5.051
65149SOL    HW297280   1.747  12.651   5.116
65150SOL     OW97281   3.410   5.450  11.156
65150SOL    HW197282   3.474   5.385  11.185
65150SOL    HW297283   3.407   5.514  11.228
65151SOL     OW97284  14.467   0.150   8.643
65151SOL    HW197285  14.372   0.137   8.633
65151SOL    HW297286  14.506   0.070   8.609
65152SOL     OW97287  11.319   5.198   1.946
65152SOL    HW197288  11.240   5.145   1.960
65152SOL    HW297289  11.385   5.136   1.916
65153SOL     OW97290   2.722   1.469  11.998
65153SOL    HW197291   2.656   1.521  12.044
65153SOL    HW297292   2.787   1.449  12.065
65154SOL     OW97293  11.827  12.578  10.531
65154SOL    HW197294  11.801  12.532  10.611
65154SOL    HW297295  11.749  12.575  10.476
65155SOL     OW97296   5.926   9.302  13.234
65155SOL    HW197297   5.882   9.380  13.269
65155SOL    HW297298   5.866   9.230  13.254
65156SOL     OW97299   8.067   6.673   2.133
65156SOL    HW197300   8.027   6.640   2.214
65156SOL    HW297301   8.120   6.600   2.101
65157SOL     OW97302   0.694   0.630   3.048
65157SOL    HW197303   0.673   0.559   3.109
65157SOL    HW297304   0.789   0.635   3.049
65158SOL     OW97305  11.394  14.209  11.547
65158SOL    HW197306  11.301  14.226  11.562
65158SOL    HW297307  11.409  14.234  11.456
65159SOL     OW97308  10.855  12.223   6.694
65159SOL    HW197309  10.854  12.307   6.740
65159SOL    HW297310  10.763  12.206   6.673
65160SOL     OW97311   2.567   8.193   1.731
65160SOL    HW197312   2.471   8.188   1.724
65160SOL    HW297313   2.596   8.205   1.641
65161SOL     OW97314  10.422   5.681   2.583
65161SOL    HW197315  10.417   5.588   2.603
65161SOL    HW297316  10.431   5.685   2.488
65162SOL     OW97317   3.362   9.491  14.644
65162SOL    HW197318   3.366   9.396  14.653
65162SOL    HW297319   3.408   9.524  14.721
65163SOL     OW97320   7.380  14.740   3.709
65163SOL    HW197321   7.288  14.767   3.716
65163SOL    HW297322   7.416  14.795   3.639
65164SOL     OW97323   9.962   3.442   5.026
65164SOL    HW197324   9.900   3.500   4.982
65164SOL    HW297325  10.018   3.409   4.955
65165SOL     OW97326  10.743   1.430   6.998
65165SOL    HW197327  10.790   1.357   6.958
65165SOL    HW297328  10.724   1.489   6.925
65166SOL     OW97329   2.139   0.105  13.613
65166SOL    HW197330   2.219   0.053  13.612
65166SOL    HW297331   2.168   0.194  13.596
65167SOL     OW97332   3.724   0.716   7.551
65167SOL    HW197333   3.787   0.708   7.623
65167SOL    HW297334   3.710   0.810   7.541
65168SOL     OW97335  10.206  14.683   9.768
65168SOL    HW197336  10.247  14.602   9.799
65168SOL    HW297337  10.131  14.652   9.716
65169SOL     OW97338   4.990   8.404  12.481
65169SOL    HW197339   4.995   8.311  12.500
65169SOL    HW297340   4.966   8.445  12.564
65170SOL     OW97341  13.539   3.925   5.659
65170SOL    HW197342  13.634   3.919   5.668
65170SOL    HW297343  13.508   3.940   5.748
65171SOL     OW97344  13.604   2.225  14.872
65171SOL    HW197345  13.629   2.176  14.795
65171SOL    HW297346  13.648   2.181   0.063
65172SOL     OW97347  13.531   9.524   6.268
65172SOL    HW197348  13.459   9.492   6.214
65172SOL    HW297349  13.535   9.618   6.251
65173SOL     OW97350  12.660  10.670  10.714
65173SOL    HW197351  12.615  10.588  10.692
65173SOL    HW297352  12.753  10.646  10.713
65174SOL     OW97353  12.142   5.807   0.120
65174SOL    HW197354  12.055   5.773   0.098
65174SOL    HW297355  12.127   5.875   0.185
65175SOL     OW97356  10.246   7.058   8.582
65175SOL    HW197357  10.214   7.112   8.510
65175SOL    HW297358  10.341   7.064   8.577
65176SOL     OW97359   2.021   2.030  11.250
65176SOL    HW197360   2.079   1.982  11.311
65176SOL    HW297361   2.037   1.989  11.165
65177SOL     OW97362  13.865   7.436  14.674
65177SOL    HW197363  13.793   7.402  14.727
65177SOL    HW297364  13.831   7.516  14.635
65178SOL     OW97365   6.445   5.704   9.226
65178SOL    HW197366   6.481   5.625   9.266
65178SOL    HW297367   6.483   5.776   9.276
65179SOL     OW97368   9.565   7.143  14.800
65179SOL    HW197369   9.617   7.124  14.878
65179SOL    HW297370   9.502   7.071  14.795
65180SOL     OW97371   4.900  11.007   5.343
65180SOL    HW197372   4.928  11.054   5.265
65180SOL    HW297373   4.977  11.004   5.399
65181SOL     OW97374  12.351   7.090   6.295
65181SOL    HW197375  12.272   7.064   6.342
65181SOL    HW297376  12.337   7.182   6.274
65182SOL     OW97377   5.279  14.046   2.039
65182SOL    HW197378   5.357  14.068   1.988
65182SOL    HW297379   5.303  13.967   2.087
65183SOL     OW97380  11.235   6.037   3.809
65183SOL    HW197381  11.244   5.956   3.859
65183SOL    HW297382  11.291   6.025   3.733
65184SOL     OW97383  14.360   4.581  13.202
65184SOL    HW197384  14.430   4.646  13.212
65184SOL    HW297385  14.285   4.630  13.170
65185SOL     OW97386   1.919   6.950  11.130
65185SOL    HW197387   1.860   7.008  11.081
65185SOL    HW297388   1.923   6.988  11.217
65186SOL     OW97389  12.274   1.488  13.274
65186SOL    HW197390  12.255   1.414  13.332
65186SOL    HW297391  12.317   1.448  13.198
65187SOL     OW97392  14.121  11.914   2.311
65187SOL    HW197393  14.174  11.918   2.390
65187SOL    HW297394  14.140  11.827   2.274
65188SOL     OW97395   5.483   8.696   8.218
65188SOL    HW197396   5.506   8.644   8.295
65188SOL    HW297397   5.565   8.705   8.169
65189SOL     OW97398   1.680   0.265   4.692
65189SOL    HW197399   1.594   0.299   4.670
65189SOL    HW297400   1.738   0.341   4.692
65190SOL     OW97401   9.989   9.575   6.495
65190SOL    HW197402   9.902   9.608   6.517
65190SOL    HW297403   9.975   9.484   6.470
65191SOL     OW97404   5.465  13.620   5.226
65191SOL    HW197405   5.463  13.562   5.302
65191SOL    HW297406   5.469  13.708   5.262
65192SOL     OW97407   2.503   8.907   3.887
65192SOL    HW197408   2.527   8.998   3.874
65192SOL    HW297409   2.415   8.900   3.849
65193SOL     OW97410  14.040  13.545   7.680
65193SOL    HW197411  14.084  13.465   7.651
65193SOL    HW297412  13.992  13.518   7.759
65194SOL     OW97413  12.639  12.865   5.554
65194SOL    HW197414  12.675  12.864   5.643
65194SOL    HW297415  12.557  12.817   5.560
65195SOL     OW97416  14.332  12.508  14.134
65195SOL    HW197417  14.313  12.514  14.228
65195SOL    HW297418  14.312  12.417  14.111
65196SOL     OW97419  14.872  10.696  12.061
65196SOL    HW197420   0.057  10.663  12.121
65196SOL    HW297421   0.027  10.686  11.974
65197SOL     OW97422   9.814   1.374   7.753
65197SOL    HW197423   9.743   1.316   7.782
65197SOL    HW297424   9.784   1.461   7.776
65198SOL     OW97425  11.454   2.831   0.410
65198SOL    HW197426  11.547   2.830   0.431
65198SOL    HW297427  11.437   2.743   0.376
65199SOL     OW97428   2.919   8.682  13.526
65199SOL    HW197429   3.000   8.635  13.506
65199SOL    HW297430   2.941   8.774  13.513
65200SOL     OW97431   6.583   7.865   2.490
65200SOL    HW197432   6.612   7.784   2.530
65200SOL    HW297433   6.663   7.904   2.455
65201SOL     OW97434  10.204  13.048   3.984
65201SOL    HW197435  10.212  12.990   4.060
65201SOL    HW297436  10.289  13.043   3.941
65202SOL     OW97437   0.606   2.652   8.383
65202SOL    HW197438   0.615   2.559   8.362
65202SOL    HW297439   0.585   2.694   8.299
65203SOL     OW97440   1.055  14.657   4.534
65203SOL    HW197441   1.119  14.640   4.604
65203SOL    HW297442   1.108  14.683   4.459
65204SOL     OW97443   5.220  12.821   7.700
65204SOL    HW197444   5.160  12.772   7.755
65204SOL    HW297445   5.283  12.756   7.669
65205SOL     OW97446   3.718   4.872  13.651
65205SOL    HW197447   3.682   4.867  13.739
65205SOL    HW297448   3.678   4.799  13.604
65206SOL     OW97449   3.733   6.937  14.317
65206SOL    HW197450   3.801   6.892  14.366
65206SOL    HW297451   3.702   7.006  14.376
65207SOL     OW97452  11.522  13.126  11.716
65207SOL    HW197453  11.545  13.215  11.690
65207SOL    HW297454  11.446  13.138  11.773
65208SOL     OW97455   9.682   4.569   2.280
65208SOL    HW197456   9.678   4.474   2.268
65208SOL    HW297457   9.597   4.593   2.316
65209SOL     OW97458   5.885   7.216  10.490
65209SOL    HW197459   5.828   7.172  10.552
65209SOL    HW297460   5.942   7.270  10.545
65210SOL     OW97461   0.926   2.124   7.798
65210SOL    HW197462   0.964   2.059   7.857
65210SOL    HW297463   0.926   2.082   7.712
65211SOL     OW97464   9.549   7.519   6.299
65211SOL    HW197465   9.467   7.565   6.283
65211SOL    HW297466   9.545   7.494   6.391
65212SOL     OW97467   5.891   9.392  11.388
65212SOL    HW197468   5.796   9.390  11.373
65212SOL    HW297469   5.901   9.366  11.480
65213SOL     OW97470  10.533   7.975   9.219
65213SOL    HW197471  10.528   7.949   9.127
65213SOL    HW297472  10.488   8.060   9.223
65214SOL     OW97473  12.442  12.582   6.337
65214SOL    HW197474  12.374  12.624   6.284
65214SOL    HW297475  12.519  12.584   6.280
65215SOL     OW97476  12.405   4.420   2.783
65215SOL    HW197477  12.391   4.495   2.841
65215SOL    HW297478  12.421   4.347   2.843
65216SOL     OW97479  10.378   9.860   3.266
65216SOL    HW197480  10.362   9.882   3.174
65216SOL    HW297481  10.359   9.940   3.314
65217SOL     OW97482  14.222   9.093   1.022
65217SOL    HW197483  14.311   9.126   1.040
65217SOL    HW297484  14.236   9.011   0.974
65218SOL     OW97485   5.428  12.818   3.831
65218SOL    HW197486   5.491  12.808   3.903
65218SOL    HW297487   5.468  12.773   3.757
65219SOL     OW97488   5.392   4.563  10.747
65219SOL    HW197489   5.399   4.501  10.820
65219SOL    HW297490   5.479   4.603  10.742
65220SOL     OW97491  11.244   9.906   0.393
65220SOL    HW197492  11.259   9.982   0.336
65220SOL    HW297493  11.149   9.905   0.406
65221SOL     OW97494   1.235  13.609   4.426
65221SOL    HW197495   1.182  13.532   4.405
65221SOL    HW297496   1.320  13.574   4.451
65222SOL     OW97497  14.092  11.519  14.759
65222SOL    HW197498  14.176  11.497  14.719
65222SOL    HW297499  14.115  11.565  14.839
65223SOL     OW97500   4.464   2.427   6.904
65223SOL    HW197501   4.507   2.511   6.886
65223SOL    HW297502   4.415   2.442   6.985
65224SOL     OW97503  12.551   1.129  12.900
65224SOL    HW197504  12.625   1.073  12.921
65224SOL    HW297505  12.491   1.119  12.974
65225SOL     OW97506   9.900   6.305   9.731
65225SOL    HW197507   9.958   6.289   9.657
65225SOL    HW297508   9.928   6.390   9.766
65226SOL     OW97509   4.485  13.572  13.567
65226SOL    HW197510   4.577  13.567  13.543
65226SOL    HW297511   4.476  13.512  13.641
65227SOL     OW97512   4.358   4.359  14.686
65227SOL    HW197513   4.272   4.346  14.645
65227SOL    HW297514   4.340   4.414  14.762
65228SOL     OW97515   2.169  13.956  13.855
65228SOL    HW197516   2.080  13.972  13.888
65228SOL    HW297517   2.222  13.947  13.934
65229SOL     OW97518   4.006   9.419   7.035
65229SOL    HW197519   3.929   9.432   7.090
65229SOL    HW297520   3.986   9.341   6.983
65230SOL     OW97521   9.309   7.891   1.641
65230SOL    HW197522   9.323   7.982   1.612
65230SOL    HW297523   9.292   7.842   1.561
65231SOL     OW97524   6.677  11.929  10.714
65231SOL    HW197525   6.747  11.885  10.762
65231SOL    HW297526   6.700  12.022  10.718
65232SOL     OW97527   4.852  11.676   4.550
65232SOL    HW197528   4.821  11.767   4.552
65232SOL    HW297529   4.884  11.659   4.638
65233SOL     OW97530   1.453  11.012   9.010
65233SOL    HW197531   1.539  11.009   8.967
65233SOL    HW297532   1.391  10.989   8.940
65234SOL     OW97533   5.995   8.528   9.200
65234SOL    HW197534   6.010   8.618   9.171
65234SOL    HW297535   5.966   8.481   9.122
65235SOL     OW97536   6.125   3.877   9.635
65235SOL    HW197537   6.102   3.964   9.669
65235SOL    HW297538   6.046   3.848   9.590
65236SOL     OW97539  10.890   8.146   3.297
65236SOL    HW197540  10.959   8.084   3.322
65236SOL    HW297541  10.874   8.128   3.204
65237SOL     OW97542   8.341   7.298   7.534
65237SOL    HW197543   8.331   7.239   7.460
65237SOL    HW297544   8.360   7.383   7.494
65238SOL     OW97545  12.789   9.864   6.142
65238SOL    HW197546  12.880   9.845   6.121
65238SOL    HW297547  12.740   9.839   6.063
65239SOL     OW97548   6.268  13.880   5.014
65239SOL    HW197549   6.290  13.973   5.022
65239SOL    HW297550   6.176  13.879   4.988
65240SOL     OW97551  10.503   5.527   4.274
65240SOL    HW197552  10.494   5.580   4.195
65240SOL    HW297553  10.415   5.523   4.310
65241SOL     OW97554  11.226  11.477  10.257
65241SOL    HW197555  11.259  11.457  10.169
65241SOL    HW297556  11.200  11.569  10.252
65242SOL     OW97557   8.001   1.536   3.227
65242SOL    HW197558   8.083   1.548   3.180
65242SOL    HW297559   7.957   1.465   3.180
65243SOL     OW97560   1.232   6.549   7.149
65243SOL    HW197561   1.284   6.468   7.152
65243SOL    HW297562   1.144   6.520   7.123
65244SOL     OW97563   6.343   7.772   9.555
65244SOL    HW197564   6.306   7.745   9.470
65244SOL    HW297565   6.294   7.852   9.578
65245SOL     OW97566   0.826  13.887  12.410
65245SOL    HW197567   0.897  13.889  12.345
65245SOL    HW297568   0.796  13.796  12.409
65246SOL     OW97569  13.330   4.776   3.662
65246SOL    HW197570  13.282   4.858   3.667
65246SOL    HW297571  13.277   4.714   3.712
65247SOL     OW97572   0.431   6.961   6.706
65247SOL    HW197573   0.353   7.015   6.720
65247SOL    HW297574   0.401   6.872   6.724
65248SOL     OW97575   7.970  11.671   3.129
65248SOL    HW197576   7.963  11.699   3.220
65248SOL    HW297577   8.052  11.620   3.127
65249SOL     OW97578   1.391   0.816  14.802
65249SOL    HW197579   1.375   0.768  14.721
65249SOL    HW297580   1.327   0.887  14.800
65250SOL     OW97581   8.634  14.409   2.601
65250SOL    HW197582   8.635  14.487   2.546
65250SOL    HW297583   8.599  14.340   2.545
65251SOL     OW97584   8.406   5.561   4.510
65251SOL    HW197585   8.366   5.566   4.597
65251SOL    HW297586   8.352   5.619   4.456
65252SOL     OW97587  13.466  10.042   3.416
65252SOL    HW197588  13.484  10.041   3.510
65252SOL    HW297589  13.430  10.129   3.400
65253SOL     OW97590  11.515   2.941   9.136
65253SOL    HW197591  11.424   2.969   9.136
65253SOL    HW297592  11.556   2.996   9.203
65254SOL     OW97593  10.878   0.292   2.452
65254SOL    HW197594  10.927   0.353   2.507
65254SOL    HW297595  10.939   0.221   2.434
65255SOL     OW97596   3.613  11.388   5.808
65255SOL    HW197597   3.602  11.462   5.867
65255SOL    HW297598   3.526  11.374   5.770
65256SOL     OW97599   9.184   0.802   2.343
65256SOL    HW197600   9.229   0.820   2.425
65256SOL    HW297601   9.107   0.751   2.368
65257SOL     OW97602   4.828   3.009  10.293
65257SOL    HW197603   4.893   2.943  10.317
65257SOL    HW297604   4.867   3.092  10.322
65258SOL     OW97605   5.775   4.040   7.936
65258SOL    HW197606   5.683   4.018   7.952
65258SOL    HW297607   5.775   4.078   7.848
65259SOL     OW97608   0.304  11.695   0.725
65259SOL    HW197609   0.392  11.660   0.736
65259SOL    HW297610   0.248  11.618   0.713
65260SOL     OW97611   9.430  12.510   5.700
65260SOL    HW197612   9.451  12.417   5.689
65260SOL    HW297613   9.334  12.514   5.693
65261SOL     OW97614   3.117  11.637   4.272
65261SOL    HW197615   3.143  11.552   4.305
65261SOL    HW297616   3.079  11.682   4.348
65262SOL     OW97617   9.668   8.326   9.845
65262SOL    HW197618   9.723   8.317   9.923
65262SOL    HW297619   9.580   8.345   9.880
65263SOL     OW97620  13.814   4.475  14.804
65263SOL    HW197621  13.876   4.418  14.849
65263SOL    HW297622  13.868   4.526  14.743
65264SOL     OW97623   8.846  12.780   8.600
65264SOL    HW197624   8.925  12.820   8.637
65264SOL    HW297625   8.873  12.690   8.580
65265SOL     OW97626   1.782  11.080   1.376
65265SOL    HW197627   1.840  11.037   1.312
65265SOL    HW297628   1.713  11.118   1.323
65266SOL     OW97629  10.271  11.273   9.694
65266SOL    HW197630  10.212  11.324   9.750
65266SOL    HW297631  10.256  11.307   9.606
65267SOL     OW97632   7.409  12.493   1.028
65267SOL    HW197633   7.365  12.436   0.964
65267SOL    HW297634   7.451  12.433   1.089
65268SOL     OW97635   6.330   6.517   6.760
65268SOL    HW197636   6.401   6.503   6.698
65268SOL    HW297637   6.373   6.521   6.845
65269SOL     OW97638   9.697  13.723  10.013
65269SOL    HW197639   9.618  13.713  10.066
65269SOL    HW297640   9.763  13.756  10.073
65270SOL     OW97641  14.162   7.977  12.607
65270SOL    HW197642  14.109   7.998  12.530
65270SOL    HW297643  14.228   7.915  12.573
65271SOL     OW97644  12.627   0.747   5.398
65271SOL    HW197645  12.618   0.654   5.422
65271SOL    HW297646  12.646   0.792   5.480
65272SOL     OW97647   5.062   2.258  13.127
65272SOL    HW197648   5.085   2.350  13.135
65272SOL    HW297649   5.144   2.211  13.143
65273SOL     OW97650  13.109  10.015   8.766
65273SOL    HW197651  13.070   9.955   8.703
65273SOL    HW297652  13.173  10.065   8.715
65274SOL     OW97653   7.778   2.029   1.518
65274SOL    HW197654   7.765   2.022   1.424
65274SOL    HW297655   7.868   2.002   1.533
65275SOL     OW97656   6.244   7.969   3.271
65275SOL    HW197657   6.204   7.999   3.190
65275SOL    HW297658   6.198   7.888   3.292
65276SOL     OW97659   3.786   6.352  10.335
65276SOL    HW197660   3.823   6.266  10.316
65276SOL    HW297661   3.778   6.354  10.431
65277SOL     OW97662   2.325   0.506   0.083
65277SOL    HW197663   2.239   0.480   0.116
65277SOL    HW297664   2.307   0.548  14.880
65278SOL     OW97665   0.777   2.619   6.523
65278SOL    HW197666   0.772   2.526   6.500
65278SOL    HW297667   0.690   2.653   6.504
65279SOL     OW97668   2.576   9.870   0.331
65279SOL    HW197669   2.525   9.901   0.257
65279SOL    HW297670   2.534   9.787   0.356
65280SOL     OW97671   5.371   3.546   3.129
65280SOL    HW197672   5.392   3.507   3.044
65280SOL    HW297673   5.428   3.622   3.136
65281SOL     OW97674   9.028  11.608  11.897
65281SOL    HW197675   9.098  11.590  11.959
65281SOL    HW297676   9.071  11.655  11.825
65282SOL     OW97677  11.543   3.445  10.859
65282SOL    HW197678  11.604   3.399  10.801
65282SOL    HW297679  11.582   3.531  10.872
65283SOL     OW97680  10.401   4.759   9.625
65283SOL    HW197681  10.378   4.815   9.699
65283SOL    HW297682  10.486   4.722   9.648
65284SOL     OW97683   2.304   3.302   4.660
65284SOL    HW197684   2.235   3.366   4.681
65284SOL    HW297685   2.353   3.293   4.741
65285SOL     OW97686  14.178   7.126   8.081
65285SOL    HW197687  14.104   7.168   8.036
65285SOL    HW297688  14.138   7.069   8.147
65286SOL     OW97689   8.296   3.790   2.372
65286SOL    HW197690   8.211   3.818   2.407
65286SOL    HW297691   8.357   3.805   2.445
65287SOL     OW97692   7.330  12.649   0.423
65287SOL    HW197693   7.409  12.689   0.389
65287SOL    HW297694   7.360  12.572   0.471
65288SOL     OW97695  10.253   0.434   8.985
65288SOL    HW197696  10.298   0.514   9.012
65288SOL    HW297697  10.204   0.459   8.906
65289SOL     OW97698   7.821   8.662  12.746
65289SOL    HW197699   7.884   8.729  12.724
65289SOL    HW297700   7.819   8.660  12.842
65290SOL     OW97701  12.435  10.388   5.087
65290SOL    HW197702  12.471  10.349   5.007
65290SOL    HW297703  12.343  10.405   5.065
65291SOL     OW97704   6.407   1.870  10.832
65291SOL    HW197705   6.499   1.846  10.819
65291SOL    HW297706   6.362   1.833  10.756
65292SOL     OW97707   4.132   4.979   6.058
65292SOL    HW197708   4.204   4.933   6.014
65292SOL    HW297709   4.120   4.932   6.141
65293SOL     OW97710   0.574   9.905   8.836
65293SOL    HW197711   0.524   9.966   8.781
65293SOL    HW297712   0.507   9.850   8.877
65294SOL     OW97713  11.518   0.257   7.881
65294SOL    HW197714  11.435   0.231   7.921
65294SOL    HW297715  11.572   0.178   7.887
65295SOL     OW97716  14.478   2.313   0.395
65295SOL    HW197717  14.550   2.332   0.455
65295SOL    HW297718  14.404   2.291   0.453
65296SOL     OW97719   2.948  13.873  14.136
65296SOL    HW197720   2.929  13.806  14.071
65296SOL    HW297721   2.890  13.852  14.210
65297SOL     OW97722  11.586  10.275   8.401
65297SOL    HW197723  11.619  10.242   8.484
65297SOL    HW297724  11.654  10.333   8.368
65298SOL     OW97725   6.150   9.881   4.983
65298SOL    HW197726   6.148   9.905   4.890
65298SOL    HW297727   6.232   9.919   5.015
65299SOL     OW97728  13.948   4.745  13.134
65299SOL    HW197729  13.915   4.792  13.210
65299SOL    HW297730  13.976   4.660  13.168
65300SOL     OW97731   6.343  13.222   2.481
65300SOL    HW197732   6.398  13.300   2.482
65300SOL    HW297733   6.264  13.248   2.433
65301SOL     OW97734  11.443  11.510   9.389
65301SOL    HW197735  11.383  11.448   9.431
65301SOL    HW297736  11.429  11.592   9.434
65302SOL     OW97737   2.585   3.294   7.127
65302SOL    HW197738   2.531   3.218   7.105
65302SOL    HW297739   2.599   3.286   7.221
65303SOL     OW97740   6.678   2.993  12.089
65303SOL    HW197741   6.689   2.913  12.140
65303SOL    HW297742   6.688   3.064  12.152
65304SOL     OW97743   5.169  12.317   8.356
65304SOL    HW197744   5.208  12.272   8.280
65304SOL    HW297745   5.197  12.408   8.346
65305SOL     OW97746  11.554  14.755  11.245
65305SOL    HW197747  11.569  14.697  11.319
65305SOL    HW297748  11.627  14.737  11.185
65306SOL     OW97749  12.465   4.284  10.668
65306SOL    HW197750  12.472   4.376  10.645
65306SOL    HW297751  12.521   4.239  10.605
65307SOL     OW97752   0.165   4.639   0.376
65307SOL    HW197753   0.112   4.571   0.334
65307SOL    HW297754   0.199   4.691   0.303
65308SOL     OW97755   6.146  11.573  12.509
65308SOL    HW197756   6.188  11.509  12.451
65308SOL    HW297757   6.052  11.557  12.499
65309SOL     OW97758   8.441   2.003   1.574
65309SOL    HW197759   8.491   2.014   1.655
65309SOL    HW297760   8.497   1.949   1.519
65310SOL     OW97761  11.452  12.574   5.272
65310SOL    HW197762  11.495  12.539   5.194
65310SOL    HW297763  11.524  12.596   5.331
65311SOL     OW97764   1.250   4.441   5.239
65311SOL    HW197765   1.280   4.531   5.237
65311SOL    HW297766   1.181   4.440   5.305
65312SOL     OW97767  10.434  11.750   1.972
65312SOL    HW197768  10.448  11.787   2.059
65312SOL    HW297769  10.472  11.662   1.977
65313SOL     OW97770   7.261  11.405   0.192
65313SOL    HW197771   7.176  11.407   0.148
65313SOL    HW297772   7.286  11.498   0.198
65314SOL     OW97773   0.549   4.341   0.435
65314SOL    HW197774   0.600   4.261   0.424
65314SOL    HW297775   0.565   4.390   0.354
65315SOL     OW97776  13.961   9.851   1.051
65315SOL    HW197777  13.961   9.931   1.103
65315SOL    HW297778  13.874   9.847   1.011
65316SOL     OW97779   2.620   9.156   9.803
65316SOL    HW197780   2.701   9.176   9.850
65316SOL    HW297781   2.596   9.239   9.761
65317SOL     OW97782   8.603   2.852  14.220
65317SOL    HW197783   8.628   2.886  14.306
65317SOL    HW297784   8.670   2.886  14.161
65318SOL     OW97785  11.277   2.915   5.528
65318SOL    HW197786  11.222   2.857   5.581
65318SOL    HW297787  11.300   2.986   5.587
65319SOL     OW97788   1.522  11.575   5.284
65319SOL    HW197789   1.507  11.512   5.214
65319SOL    HW297790   1.480  11.536   5.361
65320SOL     OW97791  11.169  10.148  14.709
65320SOL    HW197792  11.111  10.076  14.736
65320SOL    HW297793  11.256  10.120  14.736
65321SOL     OW97794  13.357   0.096   2.887
65321SOL    HW197795  13.279   0.085   2.941
65321SOL    HW297796  13.373   0.009   2.850
65322SOL     OW97797   5.335   0.418  10.995
65322SOL    HW197798   5.348   0.502  11.041
65322SOL    HW297799   5.392   0.424  10.919
65323SOL     OW97800   6.726   6.952  13.280
65323SOL    HW197801   6.714   6.865  13.316
65323SOL    HW297802   6.642   6.975  13.241
65324SOL     OW97803   0.394   7.796   8.982
65324SOL    HW197804   0.323   7.840   9.030
65324SOL    HW297805   0.466   7.858   8.982
65325SOL     OW97806  10.885   1.348   3.672
65325SOL    HW197807  10.905   1.341   3.579
65325SOL    HW297808  10.907   1.263   3.709
65326SOL     OW97809  13.616   9.196  14.617
65326SOL    HW197810  13.699   9.150  14.605
65326SOL    HW297811  13.630   9.281  14.575
65327SOL     OW97812   6.769   2.055  12.561
65327SOL    HW197813   6.804   2.141  12.583
65327SOL    HW297814   6.817   1.994  12.617
65328SOL     OW97815   8.087   4.244  12.466
65328SOL    HW197816   8.044   4.195  12.538
65328SOL    HW297817   8.026   4.236  12.393
65329SOL     OW97818   2.355  10.855   7.634
65329SOL    HW197819   2.436  10.860   7.685
65329SOL    HW297820   2.346  10.942   7.595
65330SOL     OW97821   3.121  11.202   4.554
65330SOL    HW197822   3.151  11.152   4.630
65330SOL    HW297823   3.096  11.287   4.589
65331SOL     OW97824   3.781   7.449  11.314
65331SOL    HW197825   3.869   7.421  11.339
65331SOL    HW297826   3.746   7.493  11.391
65332SOL     OW97827  14.683  12.192   1.235
65332SOL    HW197828  14.628  12.244   1.293
65332SOL    HW297829  14.741  12.143   1.294
65333SOL     OW97830  14.423   7.063  10.949
65333SOL    HW197831  14.461   7.027  11.029
65333SOL    HW297832  14.378   6.989  10.909
65334SOL     OW97833   8.118  13.836  11.993
65334SOL    HW197834   8.196  13.855  12.044
65334SOL    HW297835   8.151  13.812  11.907
65335SOL     OW97836  11.459  11.038   3.531
65335SOL    HW197837  11.381  10.987   3.513
65335SOL    HW297838  11.523  10.975   3.562
65336SOL     OW97839   3.990   5.956   3.591
65336SOL    HW197840   4.018   6.005   3.668
65336SOL    HW297841   3.895   5.970   3.586
65337SOL     OW97842   9.082   7.882   7.015
65337SOL    HW197843   9.074   7.943   6.941
65337SOL    HW297844   9.173   7.853   7.012
65338SOL     OW97845  12.724   2.909  13.066
65338SOL    HW197846  12.644   2.960  13.080
65338SOL    HW297847  12.763   2.946  12.987
65339SOL     OW97848   9.042  14.369  10.760
65339SOL    HW197849   9.065  14.283  10.725
65339SOL    HW297850   9.116  14.394  10.815
65340SOL     OW97851   4.709  10.948   2.049
65340SOL    HW197852   4.614  10.941   2.055
65340SOL    HW297853   4.725  11.005   1.974
65341SOL     OW97854   5.872   4.490   1.856
65341SOL    HW197855   5.788   4.493   1.811
65341SOL    HW297856   5.929   4.440   1.797
65342SOL     OW97857  10.970   3.808  12.645
65342SOL    HW197858  10.925   3.741  12.594
65342SOL    HW297859  10.927   3.890  12.620
65343SOL     OW97860   4.493   7.710   8.824
65343SOL    HW197861   4.470   7.676   8.738
65343SOL    HW297862   4.441   7.659   8.886
65344SOL     OW97863   9.481   0.502   1.798
65344SOL    HW197864   9.553   0.490   1.860
65344SOL    HW297865   9.505   0.580   1.748
65345SOL     OW97866   4.422   1.160  13.295
65345SOL    HW197867   4.340   1.146  13.246
65345SOL    HW297868   4.436   1.254  13.292
65346SOL     OW97869   9.291   7.386  13.542
65346SOL    HW197870   9.245   7.416  13.464
65346SOL    HW297871   9.383   7.378  13.515
65347SOL     OW97872   5.102  13.315   0.466
65347SOL    HW197873   5.045  13.328   0.390
65347SOL    HW297874   5.168  13.251   0.436
65348SOL     OW97875  10.079   6.083  12.389
65348SOL    HW197876  10.012   6.024  12.424
65348SOL    HW297877  10.067   6.164  12.438
65349SOL     OW97878  14.407   9.074  10.531
65349SOL    HW197879  14.328   9.061  10.584
65349SOL    HW297880  14.436   8.986  10.509
65350SOL     OW97881   4.484   3.263  11.063
65350SOL    HW197882   4.530   3.182  11.084
65350SOL    HW297883   4.426   3.278  11.138
65351SOL     OW97884   4.417   1.869   6.557
65351SOL    HW197885   4.470   1.887   6.634
65351SOL    HW297886   4.371   1.952   6.540
65352SOL     OW97887   9.521   4.673  10.035
65352SOL    HW197888   9.584   4.687   9.965
65352SOL    HW297889   9.539   4.742  10.098
65353SOL     OW97890   4.912   0.543  11.323
65353SOL    HW197891   4.905   0.636  11.303
65353SOL    HW297892   4.824   0.508  11.308
65354SOL     OW97893  12.343   0.833   2.819
65354SOL    HW197894  12.258   0.875   2.804
65354SOL    HW297895  12.407   0.904   2.811
65355SOL     OW97896   4.738  13.029  12.377
65355SOL    HW197897   4.818  13.080  12.377
65355SOL    HW297898   4.669  13.092  12.396
65356SOL     OW97899   7.180   6.039  11.149
65356SOL    HW197900   7.222   6.046  11.063
65356SOL    HW297901   7.189   5.946  11.172
65357SOL     OW97902   0.133  12.075  14.248
65357SOL    HW197903   0.153  12.049  14.158
65357SOL    HW297904   0.067  12.143  14.239
65358SOL     OW97905   5.324   0.212   1.753
65358SOL    HW197906   5.362   0.298   1.734
65358SOL    HW297907   5.292   0.181   1.668
65359SOL     OW97908  12.598   3.528   7.578
65359SOL    HW197909  12.587   3.496   7.489
65359SOL    HW297910  12.527   3.592   7.590
65360SOL     OW97911   8.526   9.006   0.594
65360SOL    HW197912   8.436   9.036   0.608
65360SOL    HW297913   8.580   9.084   0.609
65361SOL     OW97914   2.698  13.056   7.580
65361SOL    HW197915   2.760  13.001   7.532
65361SOL    HW297916   2.708  13.029   7.672
65362SOL     OW97917  12.698  10.898  13.828
65362SOL    HW197918  12.722  10.949  13.905
65362SOL    HW297919  12.732  10.948  13.754
65363SOL     OW97920   2.760   0.215   2.535
65363SOL    HW197921   2.827   0.175   2.480
65363SOL    HW297922   2.784   0.308   2.537
65364SOL     OW97923   5.171   9.455   3.752
65364SOL    HW197924   5.179   9.477   3.845
65364SOL    HW297925   5.078   9.436   3.741
65365SOL     OW97926   5.313  14.451  11.565
65365SOL    HW197927   5.255  14.393  11.615
65365SOL    HW297928   5.364  14.497  11.633
65366SOL     OW97929  13.778   5.536   9.940
65366SOL    HW197930  13.837   5.564   9.871
65366SOL    HW297931  13.813   5.452   9.970
65367SOL     OW97932   0.708   6.797  11.897
65367SOL    HW197933   0.722   6.713  11.854
65367SOL    HW297934   0.726   6.862  11.829
65368SOL     OW97935   8.823   6.958  11.619
65368SOL    HW197936   8.794   6.867  11.632
65368SOL    HW297937   8.792   7.004  11.698
65369SOL     OW97938  14.272   0.904   4.272
65369SOL    HW197939  14.361   0.899   4.306
65369SOL    HW297940  14.269   0.988   4.226
65370SOL     OW97941   9.775   6.852   3.779
65370SOL    HW197942   9.787   6.941   3.810
65370SOL    HW297943   9.764   6.800   3.859
65371SOL     OW97944   3.122  10.749   8.608
65371SOL    HW197945   3.057  10.678   8.606
65371SOL    HW297946   3.072  10.826   8.636
65372SOL     OW97947   1.950   5.750  10.957
65372SOL    HW197948   1.936   5.816  10.889
65372SOL    HW297949   1.863   5.734  10.994
65373SOL     OW97950   3.155   1.517   9.774
65373SOL    HW197951   3.087   1.563   9.725
65373SOL    HW297952   3.129   1.425   9.772
65374SOL     OW97953   7.208   7.818  10.392
65374SOL    HW197954   7.152   7.880  10.345
65374SOL    HW297955   7.150   7.779  10.458
65375SOL     OW97956   5.365  10.244   6.633
65375SOL    HW197957   5.418  10.308   6.681
65375SOL    HW297958   5.331  10.293   6.558
65376SOL     OW97959  14.508   8.479   4.928
65376SOL    HW197960  14.429   8.528   4.903
65376SOL    HW297961  14.483   8.435   5.009
65377SOL     OW97962   4.668  11.844   3.270
65377SOL    HW197963   4.664  11.748   3.274
65377SOL    HW297964   4.707  11.863   3.185
65378SOL     OW97965  10.855   2.047   3.257
65378SOL    HW197966  10.792   1.999   3.311
65378SOL    HW297967  10.900   2.105   3.318
65379SOL     OW97968  10.947  12.552   9.419
65379SOL    HW197969  10.895  12.478   9.450
65379SOL    HW297970  10.886  12.602   9.364
65380SOL     OW97971   4.778  11.367   9.846
65380SOL    HW197972   4.852  11.351   9.787
65380SOL    HW297973   4.734  11.282   9.853
65381SOL     OW97974   4.316   2.677   8.609
65381SOL    HW197975   4.399   2.681   8.562
65381SOL    HW297976   4.257   2.735   8.560
65382SOL     OW97977   0.971   4.438   6.107
65382SOL    HW197978   0.929   4.387   6.037
65382SOL    HW297979   1.032   4.495   6.062
65383SOL     OW97980  14.006   8.213   2.586
65383SOL    HW197981  13.979   8.289   2.637
65383SOL    HW297982  13.952   8.217   2.507
65384SOL     OW97983   3.848  13.408  12.732
65384SOL    HW197984   3.864  13.485  12.678
65384SOL    HW297985   3.842  13.336  12.670
65385SOL     OW97986   9.494   3.793   9.611
65385SOL    HW197987   9.433   3.721   9.629
65385SOL    HW297988   9.443   3.854   9.558
65386SOL     OW97989   7.375   3.999   5.184
65386SOL    HW197990   7.355   4.062   5.254
65386SOL    HW297991   7.432   4.046   5.124
65387SOL     OW97992  13.338   1.161   0.663
65387SOL    HW197993  13.297   1.138   0.747
65387SOL    HW297994  13.424   1.195   0.687
65388SOL     OW97995   1.020  11.635  10.976
65388SOL    HW197996   1.020  11.647  10.881
65388SOL    HW297997   0.954  11.568  10.991
65389SOL     OW97998  12.030   5.775   1.533
65389SOL    HW197999  12.012   5.748   1.623
65389SOL    HW298000  11.955   5.829   1.508
65390SOL     OW98001   7.532   3.131   3.719
65390SOL    HW198002   7.465   3.199   3.730
65390SOL    HW298003   7.545   3.096   3.808
65391SOL     OW98004   4.377   3.674   5.580
65391SOL    HW198005   4.405   3.591   5.618
65391SOL    HW298006   4.456   3.710   5.539
65392SOL     OW98007   3.210  11.277   3.737
65392SOL    HW198008   3.228  11.232   3.819
65392SOL    HW298009   3.117  11.261   3.721
65393SOL     OW98010   1.360   6.965   3.453
65393SOL    HW198011   1.340   6.897   3.518
65393SOL    HW298012   1.452   6.987   3.469
65394SOL     OW98013  10.669   0.726  13.880
65394SOL    HW198014  10.740   0.711  13.942
65394SOL    HW298015  10.713   0.761  13.802
65395SOL     OW98016   9.208   1.911  11.242
65395SOL    HW198017   9.175   1.822  11.247
65395SOL    HW298018   9.281   1.913  11.305
65396SOL     OW98019  10.902   9.131  12.347
65396SOL    HW198020  10.821   9.146  12.298
65396SOL    HW298021  10.944   9.217  12.351
65397SOL     OW98022  11.364  12.014   2.588
65397SOL    HW198023  11.414  11.991   2.666
65397SOL    HW298024  11.425  12.001   2.515
65398SOL     OW98025   2.518   1.892  12.040
65398SOL    HW198026   2.525   1.909  12.135
65398SOL    HW298027   2.443   1.944  12.013
65399SOL     OW98028  13.171   1.635   0.727
65399SOL    HW198029  13.200   1.706   0.670
65399SOL    HW298030  13.250   1.586   0.748
65400SOL     OW98031  13.699   8.959  11.395
65400SOL    HW198032  13.681   8.878  11.443
65400SOL    HW298033  13.629   8.965  11.330
65401SOL     OW98034  10.002  13.358   0.769
65401SOL    HW198035  10.077  13.376   0.826
65401SOL    HW298036   9.990  13.264   0.774
65402SOL     OW98037  10.572   0.461   8.284
65402SOL    HW198038  10.629   0.431   8.354
65402SOL    HW298039  10.574   0.391   8.219
65403SOL     OW98040   2.943   5.462   6.724
65403SOL    HW198041   3.020   5.428   6.768
65403SOL    HW298042   2.901   5.518   6.790
65404SOL     OW98043   5.924   1.121   0.957
65404SOL    HW198044   5.959   1.189   0.899
65404SOL    HW298045   5.998   1.095   1.011
65405SOL     OW98046   2.769   1.748  11.795
65405SOL    HW198047   2.686   1.708  11.821
65405SOL    HW298048   2.833   1.678  11.805
65406SOL     OW98049   2.791   2.236   9.299
65406SOL    HW198050   2.769   2.328   9.317
65406SOL    HW298051   2.883   2.239   9.272
65407SOL     OW98052  11.159   6.674   0.831
65407SOL    HW198053  11.168   6.683   0.736
65407SOL    HW298054  11.189   6.586   0.851
65408SOL     OW98055   5.773   3.794   0.252
65408SOL    HW198056   5.861   3.797   0.290
65408SOL    HW298057   5.714   3.806   0.327
65409SOL     OW98058  13.369   3.661   3.798
65409SOL    HW198059  13.362   3.571   3.764
65409SOL    HW298060  13.326   3.715   3.732
65410SOL     OW98061   3.015  12.227   2.014
65410SOL    HW198062   3.108  12.214   2.033
65410SOL    HW298063   2.974  12.143   2.036
65411SOL     OW98064   5.879   0.167  14.849
65411SOL    HW198065   5.940   0.116  14.796
65411SOL    HW298066   5.875   0.120   0.050
65412SOL     OW98067   1.727  12.380   7.504
65412SOL    HW198068   1.652  12.436   7.484
65412SOL    HW298069   1.802  12.424   7.464
65413SOL     OW98070  10.100  13.222  11.222
65413SOL    HW198071  10.070  13.165  11.151
65413SOL    HW298072  10.143  13.162  11.284
65414SOL     OW98073  14.147   3.218   4.017
65414SOL    HW198074  14.126   3.306   4.047
65414SOL    HW298075  14.065   3.169   4.025
65415SOL     OW98076   4.825  10.831   7.684
65415SOL    HW198077   4.778  10.913   7.669
65415SOL    HW298078   4.917  10.855   7.680
65416SOL     OW98079   5.343  10.022   7.282
65416SOL    HW198080   5.365  10.068   7.201
65416SOL    HW298081   5.365   9.930   7.264
65417SOL     OW98082   1.306   7.900   1.652
65417SOL    HW198083   1.327   7.986   1.690
65417SOL    HW298084   1.272   7.849   1.725
65418SOL     OW98085   1.430   2.282   5.176
65418SOL    HW198086   1.367   2.353   5.186
65418SOL    HW298087   1.489   2.312   5.107
65419SOL     OW98088   2.281   7.796   1.662
65419SOL    HW198089   2.265   7.756   1.748
65419SOL    HW298090   2.262   7.727   1.599
65420SOL     OW98091   8.781   2.424   5.772
65420SOL    HW198092   8.755   2.332   5.778
65420SOL    HW298093   8.865   2.422   5.725
65421SOL     OW98094  12.868   5.028   5.856
65421SOL    HW198095  12.886   5.036   5.949
65421SOL    HW298096  12.781   4.988   5.852
65422SOL     OW98097  11.340  14.694   0.986
65422SOL    HW198098  11.355  14.778   0.942
65422SOL    HW298099  11.406  14.691   1.056
65423SOL     OW98100   0.253   4.854   9.940
65423SOL    HW198101   0.326   4.815   9.988
65423SOL    HW298102   0.279   4.945   9.926
65424SOL     OW98103   0.363  11.353   9.135
65424SOL    HW198104   0.406  11.424   9.087
65424SOL    HW298105   0.432  11.288   9.149
65425SOL     OW98106   0.703  10.614   4.384
65425SOL    HW198107   0.633  10.678   4.388
65425SOL    HW298108   0.658  10.530   4.369
65426SOL     OW98109  11.809   6.288   1.916
65426SOL    HW198110  11.810   6.349   1.989
65426SOL    HW298111  11.863   6.329   1.849
65427SOL     OW98112   2.154   2.726  10.115
65427SOL    HW198113   2.210   2.803  10.128
65427SOL    HW298114   2.088   2.755  10.052
65428SOL     OW98115   1.438  10.888   1.765
65428SOL    HW198116   1.510  10.925   1.713
65428SOL    HW298117   1.430  10.798   1.733
65429SOL     OW98118   0.223  14.701  12.086
65429SOL    HW198119   0.212  14.623  12.032
65429SOL    HW298120   0.172  14.769  12.041
65430SOL     OW98121   2.258   7.345   8.393
65430SOL    HW198122   2.254   7.418   8.455
65430SOL    HW298123   2.210   7.274   8.435
65431SOL     OW98124   4.297   6.202  14.823
65431SOL    HW198125   4.383   6.161  14.810
65431SOL    HW298126   4.268   6.226  14.736
65432SOL     OW98127   5.838   1.668  11.843
65432SOL    HW198128   5.869   1.752  11.878
65432SOL    HW298129   5.883   1.659  11.759
65433SOL     OW98130   8.294   4.181  14.424
65433SOL    HW198131   8.266   4.095  14.392
65433SOL    HW298132   8.385   4.189  14.393
65434SOL     OW98133  13.851  13.554   4.517
65434SOL    HW198134  13.792  13.497   4.566
65434SOL    HW298135  13.888  13.498   4.449
65435SOL     OW98136  13.399   3.481   0.532
65435SOL    HW198137  13.350   3.562   0.517
65435SOL    HW298138  13.375   3.425   0.458
65436SOL     OW98139   2.251   8.558   5.727
65436SOL    HW198140   2.188   8.571   5.797
65436SOL    HW298141   2.258   8.643   5.684
65437SOL     OW98142   7.831   6.592   7.715
65437SOL    HW198143   7.786   6.639   7.645
65437SOL    HW298144   7.905   6.550   7.673
65438SOL     OW98145   8.993   1.230  10.945
65438SOL    HW198146   9.054   1.257  11.013
65438SOL    HW298147   9.020   1.279  10.867
65439SOL     OW98148   7.872   1.428  12.087
65439SOL    HW198149   7.872   1.522  12.105
65439SOL    HW298150   7.964   1.403  12.085
65440SOL     OW98151   7.725  14.465  10.506
65440SOL    HW198152   7.688  14.400  10.447
65440SOL    HW298153   7.663  14.539  10.502
65441SOL     OW98154   9.062   1.934   7.049
65441SOL    HW198155   9.132   1.900   7.104
65441SOL    HW298156   9.000   1.974   7.110
65442SOL     OW98157   9.989  10.567   2.918
65442SOL    HW198158   9.955  10.495   2.971
65442SOL    HW298159  10.082  10.546   2.907
65443SOL     OW98160  13.495   3.623   6.179
65443SOL    HW198161  13.571   3.584   6.222
65443SOL    HW298162  13.487   3.711   6.218
65444SOL     OW98163   2.003   0.211   0.977
65444SOL    HW198164   1.947   0.237   1.050
65444SOL    HW298165   2.034   0.123   1.000
65445SOL     OW98166   4.391   8.249   5.588
65445SOL    HW198167   4.450   8.185   5.630
65445SOL    HW298168   4.422   8.334   5.620
65446SOL     OW98169   3.872  13.167   8.980
65446SOL    HW198170   3.859  13.224   8.904
65446SOL    HW298171   3.824  13.208   9.051
65447SOL     OW98172   1.491   9.558   0.659
65447SOL    HW198173   1.547   9.521   0.728
65447SOL    HW298174   1.415   9.500   0.657
65448SOL     OW98175   7.066   9.659   4.725
65448SOL    HW198176   7.065   9.587   4.789
65448SOL    HW298177   6.978   9.660   4.689
65449SOL     OW98178   1.731  14.328  13.640
65449SOL    HW198179   1.704  14.363  13.555
65449SOL    HW298180   1.746  14.235  13.624
65450SOL     OW98181  11.954  14.795   7.921
65450SOL    HW198182  11.987   0.002   7.907
65450SOL    HW298183  11.914  14.797   8.008
65451SOL     OW98184   3.377   7.334   0.204
65451SOL    HW198185   3.443   7.403   0.200
65451SOL    HW298186   3.374   7.298   0.116
65452SOL     OW98187   2.915  11.715   8.878
65452SOL    HW198188   2.970  11.774   8.929
65452SOL    HW298189   2.960  11.630   8.883
65453SOL     OW98190   5.219  14.394   0.230
65453SOL    HW198191   5.219  14.490   0.228
65453SOL    HW298192   5.300  14.371   0.276
65454SOL     OW98193  13.655   9.242   1.197
65454SOL    HW198194  13.641   9.209   1.108
65454SOL    HW298195  13.695   9.328   1.184
65455SOL     OW98196  12.933   1.917   6.378
65455SOL    HW198197  12.958   1.836   6.334
65455SOL    HW298198  13.004   1.978   6.358
65456SOL     OW98199   6.176   3.316   3.071
65456SOL    HW198200   6.184   3.371   2.993
65456SOL    HW298201   6.143   3.232   3.038
65457SOL     OW98202   8.643   7.804   4.627
65457SOL    HW198203   8.553   7.791   4.656
65457SOL    HW298204   8.678   7.715   4.617
65458SOL     OW98205  11.131  13.261  14.505
65458SOL    HW198206  11.201  13.205  14.538
65458SOL    HW298207  11.176  13.327  14.452
65459SOL     OW98208  14.134   9.954  14.132
65459SOL    HW198209  14.138   9.914  14.218
65459SOL    HW298210  14.200  10.023  14.134
65460SOL     OW98211   7.483  13.406   3.677
65460SOL    HW198212   7.458  13.445   3.593
65460SOL    HW298213   7.428  13.329   3.685
65461SOL     OW98214  13.356   0.729  11.482
65461SOL    HW198215  13.283   0.675  11.510
65461SOL    HW298216  13.323   0.818  11.485
65462SOL     OW98217   6.734   4.776   7.692
65462SOL    HW198218   6.757   4.686   7.715
65462SOL    HW298219   6.669   4.767   7.623
65463SOL     OW98220   8.633   0.359   3.658
65463SOL    HW198221   8.593   0.287   3.707
65463SOL    HW298222   8.685   0.407   3.723
65464SOL     OW98223   4.108   1.667   7.679
65464SOL    HW198224   4.189   1.709   7.705
65464SOL    HW298225   4.040   1.731   7.700
65465SOL     OW98226  14.019   5.389  13.522
65465SOL    HW198227  14.077   5.402  13.446
65465SOL    HW298228  14.073   5.341  13.585
65466SOL     OW98229  11.838   9.622  12.913
65466SOL    HW198230  11.905   9.650  12.976
65466SOL    HW298231  11.764   9.680  12.928
65467SOL     OW98232   0.572  14.597   4.058
65467SOL    HW198233   0.658  14.556   4.059
65467SOL    HW298234   0.517  14.539   4.111
65468SOL     OW98235   3.182   5.238   8.439
65468SOL    HW198236   3.243   5.165   8.454
65468SOL    HW298237   3.121   5.205   8.373
65469SOL     OW98238   4.166  13.350  12.490
65469SOL    HW198239   4.121  13.419  12.442
65469SOL    HW298240   4.112  13.272  12.476
65470SOL     OW98241  10.311  14.477   4.175
65470SOL    HW198242  10.324  14.563   4.134
65470SOL    HW298243  10.346  14.488   4.263
65471SOL     OW98244   9.821   9.326  14.096
65471SOL    HW198245   9.858   9.321  14.008
65471SOL    HW298246   9.895   9.351  14.151
65472SOL     OW98247   7.527   2.113   7.528
65472SOL    HW198248   7.497   2.053   7.596
65472SOL    HW298249   7.455   2.119   7.466
65473SOL     OW98250   6.532  12.429   8.946
65473SOL    HW198251   6.494  12.506   8.990
65473SOL    HW298252   6.606  12.404   9.001
65474SOL     OW98253  12.222   0.422   4.418
65474SOL    HW198254  12.248   0.473   4.495
65474SOL    HW298255  12.305   0.404   4.373
65475SOL     OW98256   2.274  13.308   5.191
65475SOL    HW198257   2.318  13.319   5.276
65475SOL    HW298258   2.256  13.398   5.163
65476SOL     OW98259   1.466   6.587   1.850
65476SOL    HW198260   1.394   6.620   1.904
65476SOL    HW298261   1.469   6.493   1.869
65477SOL     OW98262  12.583   8.579   6.839
65477SOL    HW198263  12.653   8.614   6.783
65477SOL    HW298264  12.535   8.657   6.868
65478SOL     OW98265  10.183   0.159   1.154
65478SOL    HW198266  10.091   0.147   1.129
65478SOL    HW298267  10.192   0.115   1.238
65479SOL     OW98268  11.085  11.732  10.314
65479SOL    HW198269  11.061  11.801  10.377
65479SOL    HW298270  11.163  11.765  10.271
65480SOL     OW98271   3.252   1.243   4.219
65480SOL    HW198272   3.219   1.247   4.309
65480SOL    HW298273   3.284   1.153   4.209
65481SOL     OW98274  13.100  13.900   8.616
65481SOL    HW198275  13.025  13.931   8.668
65481SOL    HW298276  13.112  13.969   8.551
65482SOL     OW98277   6.820   2.272  10.719
65482SOL    HW198278   6.825   2.338  10.788
65482SOL    HW298279   6.897   2.218  10.731
65483SOL     OW98280   2.531   9.629  12.674
65483SOL    HW198281   2.454   9.652  12.622
65483SOL    HW298282   2.526   9.688  12.750
65484SOL     OW98283  11.421   4.247   5.082
65484SOL    HW198284  11.348   4.185   5.083
65484SOL    HW298285  11.418   4.289   5.168
65485SOL     OW98286  11.893   0.024   0.994
65485SOL    HW198287  11.822   0.059   0.940
65485SOL    HW298288  11.865   0.041   1.084
65486SOL     OW98289   8.061   0.972  14.668
65486SOL    HW198290   7.990   1.032  14.648
65486SOL    HW298291   8.017   0.889  14.688
65487SOL     OW98292   6.325   9.954   8.619
65487SOL    HW198293   6.383  10.009   8.567
65487SOL    HW298294   6.365   9.953   8.707
65488SOL     OW98295   7.330   8.758   6.822
65488SOL    HW198296   7.302   8.668   6.838
65488SOL    HW298297   7.346   8.795   6.908
65489SOL     OW98298   1.450   8.141   2.447
65489SOL    HW198299   1.496   8.149   2.364
65489SOL    HW298300   1.360   8.122   2.423
65490SOL     OW98301   8.420   8.331   8.902
65490SOL    HW198302   8.515   8.316   8.909
65490SOL    HW298303   8.381   8.246   8.918
65491SOL     OW98304  14.755   1.565  10.307
65491SOL    HW198305  14.808   1.599  10.379
65491SOL    HW298306  14.717   1.644  10.266
65492SOL     OW98307   9.836   3.943   2.084
65492SOL    HW198308   9.795   3.899   2.158
65492SOL    HW298309   9.830   4.036   2.105
65493SOL     OW98310  10.516   0.249   7.353
65493SOL    HW198311  10.545   0.337   7.374
65493SOL    HW298312  10.495   0.251   7.260
65494SOL     OW98313   6.722   1.651  11.662
65494SOL    HW198314   6.804   1.636  11.709
65494SOL    HW298315   6.730   1.741  11.629
65495SOL     OW98316   7.734   2.053   1.896
65495SOL    HW198317   7.649   2.096   1.888
65495SOL    HW298318   7.758   2.064   1.988
65496SOL     OW98319   2.043   5.495   6.608
65496SOL    HW198320   2.073   5.556   6.541
65496SOL    HW298321   2.095   5.517   6.685
65497SOL     OW98322   1.313   1.868   4.247
65497SOL    HW198323   1.315   1.789   4.301
65497SOL    HW298324   1.243   1.922   4.285
65498SOL     OW98325   8.492  13.865  12.906
65498SOL    HW198326   8.549  13.879  12.982
65498SOL    HW298327   8.548  13.824  12.840
65499SOL     OW98328   3.071  12.340  12.208
65499SOL    HW198329   3.041  12.423  12.246
65499SOL    HW298330   2.991  12.298  12.178
65500SOL     OW98331   2.482   4.465  12.848
65500SOL    HW198332   2.516   4.397  12.790
65500SOL    HW298333   2.400   4.429  12.883
65501SOL     OW98334   3.618  13.841   8.356
65501SOL    HW198335   3.541  13.872   8.404
65501SOL    HW298336   3.692  13.870   8.409
65502SOL     OW98337   3.936   0.105   5.889
65502SOL    HW198338   3.955   0.032   5.948
65502SOL    HW298339   3.947   0.183   5.943
65503SOL     OW98340   7.447   2.569   6.177
65503SOL    HW198341   7.432   2.581   6.083
65503SOL    HW298342   7.435   2.475   6.191
65504SOL     OW98343   5.641   9.071  10.612
65504SOL    HW198344   5.625   9.024  10.530
65504SOL    HW298345   5.729   9.044  10.638
65505SOL     OW98346   2.498   1.013   6.741
65505SOL    HW198347   2.588   1.027   6.769
65505SOL    HW298348   2.445   1.065   6.802
65506SOL     OW98349  13.679   2.478  13.374
65506SOL    HW198350  13.587   2.502  13.367
65506SOL    HW298351  13.702   2.496  13.465
65507SOL     OW98352  12.188   1.003  10.045
65507SOL    HW198353  12.219   1.092  10.025
65507SOL    HW298354  12.202   0.994  10.140
65508SOL     OW98355  11.269  13.207   3.276
65508SOL    HW198356  11.251  13.120   3.240
65508SOL    HW298357  11.239  13.202   3.367
65509SOL     OW98358   4.834   0.606   5.074
65509SOL    HW198359   4.764   0.561   5.027
65509SOL    HW298360   4.792   0.638   5.154
65510SOL     OW98361  11.882   3.063   8.489
65510SOL    HW198362  11.851   3.135   8.433
65510SOL    HW298363  11.824   2.990   8.469
65511SOL     OW98364   7.440   0.645   3.452
65511SOL    HW198365   7.364   0.652   3.509
65511SOL    HW298366   7.405   0.657   3.364
65512SOL     OW98367   4.236   1.695   5.534
65512SOL    HW198368   4.265   1.609   5.503
65512SOL    HW298369   4.304   1.755   5.503
65513SOL     OW98370  13.644  10.256  10.949
65513SOL    HW198371  13.631  10.191  10.881
65513SOL    HW298372  13.688  10.329  10.906
65514SOL     OW98373   7.854  11.246   6.876
65514SOL    HW198374   7.908  11.205   6.808
65514SOL    HW298375   7.916  11.297   6.929
65515SOL     OW98376   0.854   3.928  13.249
65515SOL    HW198377   0.862   3.966  13.161
65515SOL    HW298378   0.895   3.992  13.307
65516SOL     OW98379   8.118   4.087  11.839
65516SOL    HW198380   8.198   4.073  11.787
65516SOL    HW298381   8.149   4.092  11.929
65517SOL     OW98382  10.418   7.425   4.836
65517SOL    HW198383  10.414   7.517   4.861
65517SOL    HW298384  10.414   7.377   4.919
65518SOL     OW98385   5.355   9.757  10.759
65518SOL    HW198386   5.434   9.807  10.739
65518SOL    HW298387   5.295   9.777  10.687
65519SOL     OW98388   5.360   9.905   9.947
65519SOL    HW198389   5.284   9.962   9.956
65519SOL    HW298390   5.346   9.859   9.865
65520SOL     OW98391   4.760   6.379   7.405
65520SOL    HW198392   4.767   6.328   7.324
65520SOL    HW298393   4.850   6.400   7.429
65521SOL     OW98394   1.168   3.290   0.674
65521SOL    HW198395   1.097   3.339   0.716
65521SOL    HW298396   1.131   3.261   0.591
65522SOL     OW98397  11.981   8.587   0.444
65522SOL    HW198398  11.910   8.535   0.407
65522SOL    HW298399  12.036   8.523   0.490
65523SOL     OW98400  14.380   3.181   9.202
65523SOL    HW198401  14.442   3.109   9.209
65523SOL    HW298402  14.313   3.150   9.141
65524SOL     OW98403  13.255  14.126   9.913
65524SOL    HW198404  13.320  14.057   9.899
65524SOL    HW298405  13.276  14.162   9.999
65525SOL     OW98406   6.896  11.059  12.075
65525SOL    HW198407   6.939  11.073  12.160
65525SOL    HW298408   6.845  11.139  12.060
65526SOL     OW98409  14.453   9.543   9.647
65526SOL    HW198410  14.396   9.480   9.691
65526SOL    HW298411  14.433   9.533   9.554
65527SOL     OW98412   5.432  10.160  14.388
65527SOL    HW198413   5.464  10.091  14.446
65527SOL    HW298414   5.507  10.219  14.376
65528SOL     OW98415  11.698   5.591   8.997
65528SOL    HW198416  11.658   5.528   9.058
65528SOL    HW298417  11.680   5.676   9.037
65529SOL     OW98418  13.050   8.877   8.508
65529SOL    HW198419  13.064   8.907   8.419
65529SOL    HW298420  13.026   8.785   8.499
65530SOL     OW98421   9.767   0.805   9.549
65530SOL    HW198422   9.830   0.853   9.494
65530SOL    HW298423   9.753   0.723   9.502
65531SOL     OW98424  13.100  14.603  10.188
65531SOL    HW198425  13.134  14.653  10.261
65531SOL    HW298426  13.059  14.667  10.131
65532SOL     OW98427   1.246   4.310  14.749
65532SOL    HW198428   1.338   4.332  14.734
65532SOL    HW298429   1.200   4.351  14.677
65533SOL     OW98430   9.259   3.983   3.087
65533SOL    HW198431   9.328   4.045   3.110
65533SOL    HW298432   9.252   3.925   3.163
65534SOL     OW98433  12.767  11.099  13.615
65534SOL    HW198434  12.764  11.185  13.656
65534SOL    HW298435  12.761  11.117  13.521
65535SOL     OW98436   0.138   1.135   0.083
65535SOL    HW198437   0.196   1.129   0.007
65535SOL    HW298438   0.177   1.205   0.137
65536SOL     OW98439   8.500   0.999   4.789
65536SOL    HW198440   8.447   1.006   4.868
65536SOL    HW298441   8.518   0.906   4.780
65537SOL     OW98442  13.800   2.834   0.025
65537SOL    HW198443  13.706   2.839   0.042
65537SOL    HW298444  13.826   2.750   0.061
65538SOL     OW98445  11.710   6.422  10.200
65538SOL    HW198446  11.718   6.422  10.296
65538SOL    HW298447  11.731   6.512  10.175
65539SOL     OW98448   5.299   2.893   4.224
65539SOL    HW198449   5.282   2.931   4.310
65539SOL    HW298450   5.345   2.811   4.243
65540SOL     OW98451   5.410   6.575  13.617
65540SOL    HW198452   5.465   6.588  13.539
65540SOL    HW298453   5.457   6.620  13.687
65541SOL     OW98454   6.180  13.267   3.344
65541SOL    HW198455   6.110  13.306   3.292
65541SOL    HW298456   6.140  13.191   3.386
65542SOL     OW98457  14.340   8.425  12.037
65542SOL    HW198458  14.252   8.419  12.075
65542SOL    HW298459  14.397   8.385  12.102
65543SOL     OW98460   4.379   8.887   1.566
65543SOL    HW198461   4.294   8.845   1.584
65543SOL    HW298462   4.434   8.861   1.640
65544SOL     OW98463  10.175   9.829   5.230
65544SOL    HW198464  10.095   9.846   5.181
65544SOL    HW298465  10.229   9.906   5.215
65545SOL     OW98466   0.291   1.299   4.723
65545SOL    HW198467   0.379   1.295   4.760
65545SOL    HW298468   0.276   1.212   4.687
65546SOL     OW98469   5.369   2.187  12.978
65546SOL    HW198470   5.347   2.279  12.964
65546SOL    HW298471   5.359   2.173  13.072
65547SOL     OW98472   3.036   8.576   4.761
65547SOL    HW198473   2.992   8.510   4.708
65547SOL    HW298474   3.057   8.646   4.699
65548SOL     OW98475   8.808   3.312  10.649
65548SOL    HW198476   8.765   3.383  10.603
65548SOL    HW298477   8.843   3.256  10.580
65549SOL     OW98478   6.831   4.986   7.183
65549SOL    HW198479   6.912   5.037   7.187
65549SOL    HW298480   6.790   4.998   7.268
65550SOL     OW98481  10.455   3.462   7.292
65550SOL    HW198482  10.453   3.385   7.350
65550SOL    HW298483  10.424   3.534   7.346
65551SOL     OW98484   6.903   1.058   6.294
65551SOL    HW198485   6.966   1.115   6.250
65551SOL    HW298486   6.943   0.971   6.291
65552SOL     OW98487   2.384   3.061  14.116
65552SOL    HW198488   2.358   2.983  14.067
65552SOL    HW298489   2.304   3.089  14.160
65553SOL     OW98490  11.228   9.434   6.403
65553SOL    HW198491  11.266   9.522   6.403
65553SOL    HW298492  11.148   9.443   6.351
65554SOL     OW98493   4.183   7.768   2.345
65554SOL    HW198494   4.137   7.816   2.276
65554SOL    HW298495   4.262   7.820   2.360
65555SOL     OW98496   6.698   2.922  14.567
65555SOL    HW198497   6.787   2.888  14.564
65555SOL    HW298498   6.702   3.006  14.523
65556SOL     OW98499  10.036   5.684   3.725
65556SOL    HW198500  10.123   5.720   3.738
65556SOL    HW298501  10.005   5.663   3.813
65557SOL     OW98502   7.662  11.736  11.945
65557SOL    HW198503   7.741  11.733  11.891
65557SOL    HW298504   7.691  11.711  12.032
65558SOL     OW98505  13.278   4.454   6.049
65558SOL    HW198506  13.210   4.386   6.046
65558SOL    HW298507  13.230   4.536   6.042
65559SOL     OW98508  12.431  11.094   2.357
65559SOL    HW198509  12.356  11.150   2.336
65559SOL    HW298510  12.423  11.076   2.450
65560SOL     OW98511   1.988   5.260   3.778
65560SOL    HW198512   1.990   5.353   3.759
65560SOL    HW298513   1.902   5.231   3.747
65561SOL     OW98514   1.968   2.535   6.807
65561SOL    HW198515   2.059   2.519   6.833
65561SOL    HW298516   1.973   2.551   6.712
65562SOL     OW98517   6.333   5.140   3.125
65562SOL    HW198518   6.381   5.081   3.182
65562SOL    HW298519   6.326   5.222   3.174
65563SOL     OW98520   1.269   6.670   0.334
65563SOL    HW198521   1.314   6.685   0.250
65563SOL    HW298522   1.333   6.621   0.386
65564SOL     OW98523   7.656   2.924   1.961
65564SOL    HW198524   7.656   2.925   1.865
65564SOL    HW298525   7.727   2.864   1.984
65565SOL     OW98526  12.275  10.342   0.243
65565SOL    HW198527  12.187  10.378   0.240
65565SOL    HW298528  12.265  10.250   0.218
65566SOL     OW98529   7.697   7.265  11.519
65566SOL    HW198530   7.661   7.196  11.575
65566SOL    HW298531   7.728   7.220  11.441
65567SOL     OW98532   0.210   7.468  12.916
65567SOL    HW198533   0.269   7.543  12.909
65567SOL    HW298534   0.221   7.421  12.833
65568SOL     OW98535   7.580  14.606   9.754
65568SOL    HW198536   7.549  14.685   9.712
65568SOL    HW298537   7.501  14.555   9.772
65569SOL     OW98538   3.406   8.768  12.009
65569SOL    HW198539   3.331   8.754  11.950
65569SOL    HW298540   3.367   8.788  12.094
65570SOL     OW98541  12.017   4.435   1.276
65570SOL    HW198542  12.022   4.440   1.371
65570SOL    HW298543  12.103   4.466   1.245
65571SOL     OW98544  14.342  12.849   9.704
65571SOL    HW198545  14.314  12.905   9.776
65571SOL    HW298546  14.261  12.813   9.668
65572SOL     OW98547  13.251   2.050   1.823
65572SOL    HW198548  13.190   1.998   1.875
65572SOL    HW298549  13.289   1.988   1.761
65573SOL     OW98550   0.356  12.256   9.379
65573SOL    HW198551   0.339  12.270   9.473
65573SOL    HW298552   0.451  12.252   9.373
65574SOL     OW98553   4.398   9.338   7.694
65574SOL    HW198554   4.437   9.283   7.762
65574SOL    HW298555   4.473   9.383   7.654
65575SOL     OW98556   8.296   4.876  14.481
65575SOL    HW198557   8.378   4.882  14.528
65575SOL    HW298558   8.261   4.965  14.481
65576SOL     OW98559   0.201   4.939   7.765
65576SOL    HW198560   0.171   4.857   7.724
65576SOL    HW298561   0.196   4.922   7.859
65577SOL     OW98562   4.300  12.320  12.116
65577SOL    HW198563   4.207  12.298  12.121
65577SOL    HW298564   4.320  12.319  12.022
65578SOL     OW98565   9.765   5.300   0.844
65578SOL    HW198566   9.804   5.335   0.924
65578SOL    HW298567   9.671   5.313   0.855
65579SOL     OW98568  12.341   7.010   0.836
65579SOL    HW198569  12.327   7.104   0.825
65579SOL    HW298570  12.392   6.984   0.760
65580SOL     OW98571  10.534   8.005   6.002
65580SOL    HW198572  10.528   7.939   5.933
65580SOL    HW298573  10.525   7.957   6.084
65581SOL     OW98574   3.093   0.671   3.381
65581SOL    HW198575   3.061   0.719   3.457
65581SOL    HW298576   3.015   0.630   3.344
65582SOL     OW98577  13.446   1.960  11.079
65582SOL    HW198578  13.479   2.038  11.123
65582SOL    HW298579  13.431   1.987  10.988
65583SOL     OW98580   3.463   6.212  13.423
65583SOL    HW198581   3.441   6.304  13.410
65583SOL    HW298582   3.378   6.167  13.426
65584SOL     OW98583   9.062   1.223  14.418
65584SOL    HW198584   9.154   1.223  14.446
65584SOL    HW298585   9.043   1.314  14.398
65585SOL     OW98586   5.358   8.129   4.110
65585SOL    HW198587   5.424   8.137   4.179
65585SOL    HW298588   5.346   8.218   4.078
65586SOL     OW98589   7.517  11.675  10.687
65586SOL    HW198590   7.609  11.647  10.681
65586SOL    HW298591   7.491  11.693  10.596
65587SOL     OW98592   9.538   9.960  11.464
65587SOL    HW198593   9.523  10.051  11.440
65587SOL    HW298594   9.465   9.939  11.522
65588SOL     OW98595   8.146  13.531   7.519
65588SOL    HW198596   8.199  13.478   7.579
65588SOL    HW298597   8.073  13.561   7.572
65589SOL     OW98598   5.811  11.575   7.483
65589SOL    HW198599   5.722  11.564   7.518
65589SOL    HW298600   5.866  11.519   7.538
65590SOL     OW98601  14.108   9.786  13.100
65590SOL    HW198602  14.089   9.705  13.147
65590SOL    HW298603  14.174   9.830  13.152
65591SOL     OW98604   2.061   0.528  14.238
65591SOL    HW198605   2.005   0.540  14.161
65591SOL    HW298606   2.150   0.539  14.205
65592SOL     OW98607   2.401   7.431  13.801
65592SOL    HW198608   2.352   7.399  13.877
65592SOL    HW298609   2.384   7.367  13.732
65593SOL     OW98610   8.966   9.122   0.164
65593SOL    HW198611   8.926   9.040   0.136
65593SOL    HW298612   9.021   9.148   0.090
65594SOL     OW98613   6.525   1.187   8.752
65594SOL    HW198614   6.478   1.149   8.826
65594SOL    HW298615   6.552   1.274   8.781
65595SOL     OW98616   0.003   8.986  11.754
65595SOL    HW198617   0.071   8.988  11.821
65595SOL    HW298618   0.040   9.038  11.682
65596SOL     OW98619  11.493   4.110   5.989
65596SOL    HW198620  11.402   4.108   5.962
65596SOL    HW298621  11.504   4.035   6.047
65597SOL     OW98622  10.170   4.840  14.226
65597SOL    HW198623  10.236   4.843  14.157
65597SOL    HW298624  10.215   4.801  14.301
65598SOL     OW98625  14.298   1.455   0.454
65598SOL    HW198626  14.294   1.551   0.452
65598SOL    HW298627  14.320   1.434   0.545
65599SOL     OW98628   5.538   8.646   2.852
65599SOL    HW198629   5.447   8.644   2.823
65599SOL    HW298630   5.589   8.671   2.775
65600SOL     OW98631  13.190   5.198   3.471
65600SOL    HW198632  13.198   5.275   3.528
65600SOL    HW298633  13.097   5.179   3.469
65601SOL     OW98634   7.569   4.820   5.257
65601SOL    HW198635   7.629   4.895   5.263
65601SOL    HW298636   7.550   4.812   5.163
65602SOL     OW98637  11.026  13.393   4.068
65602SOL    HW198638  11.076  13.397   4.149
65602SOL    HW298639  10.956  13.457   4.079
65603SOL     OW98640   5.695  12.791   2.937
65603SOL    HW198641   5.637  12.725   2.976
65603SOL    HW298642   5.664  12.874   2.973
65604SOL     OW98643   7.272  12.970   4.804
65604SOL    HW198644   7.223  13.031   4.860
65604SOL    HW298645   7.218  12.891   4.801
65605SOL     OW98646   2.062   5.988   0.025
65605SOL    HW198647   1.996   5.940  14.857
65605SOL    HW298648   2.073   6.070  14.860
65606SOL     OW98649  14.369   8.856  14.288
65606SOL    HW198650  14.363   8.766  14.318
65606SOL    HW298651  14.439   8.895  14.340
65607SOL     OW98652   6.175   1.067   4.396
65607SOL    HW198653   6.127   1.128   4.452
65607SOL    HW298654   6.107   1.016   4.352
65608SOL     OW98655   7.213   8.682   8.732
65608SOL    HW198656   7.277   8.626   8.689
65608SOL    HW298657   7.197   8.640   8.817
65609SOL     OW98658   3.062  14.237  13.166
65609SOL    HW198659   3.081  14.256  13.074
65609SOL    HW298660   2.991  14.172  13.163
65610SOL     OW98661   9.108   4.882   4.079
65610SOL    HW198662   9.168   4.923   4.017
65610SOL    HW298663   9.034   4.853   4.027
65611SOL     OW98664   4.171   8.056   9.735
65611SOL    HW198665   4.089   8.015   9.762
65611SOL    HW298666   4.151   8.095   9.649
65612SOL     OW98667   5.793   4.236  13.086
65612SOL    HW198668   5.737   4.273  13.017
65612SOL    HW298669   5.880   4.231  13.046
65613SOL     OW98670   2.652   4.467  10.539
65613SOL    HW198671   2.624   4.439  10.451
65613SOL    HW298672   2.747   4.477  10.531
65614SOL     OW98673   3.207   6.332   7.268
65614SOL    HW198674   3.241   6.407   7.219
65614SOL    HW298675   3.138   6.297   7.212
65615SOL     OW98676  10.733   9.353  13.671
65615SOL    HW198677  10.761   9.275  13.623
65615SOL    HW298678  10.755   9.426  13.614
65616SOL     OW98679   6.308   9.638  13.895
65616SOL    HW198680   6.350   9.569  13.947
65616SOL    HW298681   6.351   9.719  13.924
65617SOL     OW98682   6.161  11.730  11.479
65617SOL    HW198683   6.110  11.810  11.469
65617SOL    HW298684   6.167  11.717  11.573
65618SOL     OW98685   9.949   9.328  13.279
65618SOL    HW198686  10.018   9.339  13.344
65618SOL    HW298687   9.949   9.234  13.260
65619SOL     OW98688   1.695   3.294   4.782
65619SOL    HW198689   1.697   3.291   4.687
65619SOL    HW298690   1.602   3.283   4.804
65620SOL     OW98691   8.472  14.632  14.001
65620SOL    HW198692   8.445  14.613  14.091
65620SOL    HW298693   8.512  14.718  14.006
65621SOL     OW98694  11.349   7.991   6.542
65621SOL    HW198695  11.338   8.028   6.629
65621SOL    HW298696  11.341   7.897   6.555
65622SOL     OW98697   4.359  14.007  10.044
65622SOL    HW198698   4.337  14.020  10.136
65622SOL    HW298699   4.400  13.920  10.040
65623SOL     OW98700  14.616   4.026   7.890
65623SOL    HW198701  14.647   3.997   7.805
65623SOL    HW298702  14.620   4.121   7.887
65624SOL     OW98703  11.286  14.416   1.445
65624SOL    HW198704  11.232  14.354   1.494
65624SOL    HW298705  11.222  14.467   1.394
65625SOL     OW98706  10.288  13.694   1.027
65625SOL    HW198707  10.359  13.753   1.002
65625SOL    HW298708  10.228  13.697   0.953
65626SOL     OW98709   3.460   4.456   1.193
65626SOL    HW198710   3.439   4.374   1.239
65626SOL    HW298711   3.455   4.523   1.261
65627SOL     OW98712   4.351  12.890   4.038
65627SOL    HW198713   4.317  12.818   4.092
65627SOL    HW298714   4.283  12.904   3.972
65628SOL     OW98715   3.503  10.892   8.933
65628SOL    HW198716   3.545  10.975   8.910
65628SOL    HW298717   3.489  10.848   8.849
65629SOL     OW98718   6.304   8.722  12.567
65629SOL    HW198719   6.240   8.768  12.513
65629SOL    HW298720   6.261   8.713  12.652
65630SOL     OW98721   0.048  10.416  10.006
65630SOL    HW198722   0.032  10.464   9.925
65630SOL    HW298723   0.114  10.351   9.982
65631SOL     OW98724  12.310   2.162   6.652
65631SOL    HW198725  12.267   2.211   6.583
65631SOL    HW298726  12.243   2.103   6.686
65632SOL     OW98727   1.709   8.056   7.888
65632SOL    HW198728   1.701   8.135   7.941
65632SOL    HW298729   1.803   8.037   7.888
65633SOL     OW98730   1.048   3.310  11.249
65633SOL    HW198731   0.964   3.274  11.278
65633SOL    HW298732   1.056   3.283  11.158
65634SOL     OW98733   5.875   2.674   2.478
65634SOL    HW198734   5.862   2.680   2.573
65634SOL    HW298735   5.797   2.628   2.447
65635SOL     OW98736  11.346   9.513   4.043
65635SOL    HW198737  11.342   9.498   4.137
65635SOL    HW298738  11.308   9.434   4.004
65636SOL     OW98739   3.567   9.224   9.185
65636SOL    HW198740   3.503   9.187   9.123
65636SOL    HW298741   3.560   9.168   9.262
65637SOL     OW98742   4.103  12.549   3.450
65637SOL    HW198743   4.046  12.624   3.437
65637SOL    HW298744   4.093  12.496   3.371
65638SOL     OW98745   4.455   0.067   1.346
65638SOL    HW198746   4.474  14.858   1.373
65638SOL    HW298747   4.379   0.059   1.288
65639SOL     OW98748   1.627  13.446   7.505
65639SOL    HW198749   1.539  13.481   7.521
65639SOL    HW298750   1.627  13.362   7.551
65640SOL     OW98751   3.058   0.545   4.155
65640SOL    HW198752   3.145   0.567   4.122
65640SOL    HW298753   3.041   0.608   4.224
65641SOL     OW98754  12.661  12.907   0.021
65641SOL    HW198755  12.599  12.911  14.830
65641SOL    HW298756  12.681  12.813   0.030
65642SOL     OW98757   2.447   9.835   9.787
65642SOL    HW198758   2.520   9.853   9.846
65642SOL    HW298759   2.426   9.920   9.748
65643SOL     OW98760   9.828   2.308   2.520
65643SOL    HW198761   9.915   2.346   2.509
65643SOL    HW298762   9.779   2.373   2.570
65644SOL     OW98763   5.630   5.688   3.383
65644SOL    HW198764   5.716   5.717   3.414
65644SOL    HW298765   5.604   5.620   3.445
65645SOL     OW98766   2.868   7.939  13.724
65645SOL    HW198767   2.844   8.016  13.673
65645SOL    HW298768   2.920   7.886  13.664
65646SOL     OW98769   7.728   0.427   4.948
65646SOL    HW198770   7.657   0.475   4.905
65646SOL    HW298771   7.737   0.468   5.033
65647SOL     OW98772   5.091   2.540  11.547
65647SOL    HW198773   5.148   2.566  11.619
65647SOL    HW298774   5.092   2.615  11.487
65648SOL     OW98775   2.724   9.652   5.283
65648SOL    HW198776   2.797   9.713   5.274
65648SOL    HW298777   2.746   9.580   5.223
65649SOL     OW98778   4.468   7.630   2.095
65649SOL    HW198779   4.465   7.725   2.097
65649SOL    HW298780   4.444   7.603   2.184
65650SOL     OW98781  14.523  13.021  13.446
65650SOL    HW198782  14.551  13.094  13.392
65650SOL    HW298783  14.557  12.943  13.402
65651SOL     OW98784   3.272  13.885  11.432
65651SOL    HW198785   3.287  13.967  11.478
65651SOL    HW298786   3.273  13.908  11.339
65652SOL     OW98787   9.178   9.060   7.039
65652SOL    HW198788   9.088   9.035   7.019
65652SOL    HW298789   9.212   8.988   7.092
65653SOL     OW98790  10.881   9.910  13.029
65653SOL    HW198791  10.953   9.848  13.045
65653SOL    HW298792  10.825   9.864  12.966
65654SOL     OW98793   2.972   2.810  13.458
65654SOL    HW198794   2.903   2.869  13.430
65654SOL    HW298795   3.051   2.845  13.418
65655SOL     OW98796  12.727  13.518   0.129
65655SOL    HW198797  12.739  13.483   0.217
65655SOL    HW298798  12.633  13.535   0.123
65656SOL     OW98799   8.584   2.663   7.614
65656SOL    HW198800   8.571   2.758   7.615
65656SOL    HW298801   8.617   2.643   7.527
65657SOL     OW98802   4.274   6.829  14.464
65657SOL    HW198803   4.238   6.890  14.399
65657SOL    HW298804   4.331   6.771  14.413
65658SOL     OW98805   7.168  14.615  12.055
65658SOL    HW198806   7.115  14.683  12.096
65658SOL    HW298807   7.105  14.545  12.034
65659SOL     OW98808   4.630   0.105  10.335
65659SOL    HW198809   4.707   0.125  10.388
65659SOL    HW298810   4.648   0.020  10.296
65660SOL     OW98811   7.558   1.541   8.058
65660SOL    HW198812   7.604   1.513   7.979
65660SOL    HW298813   7.559   1.637   8.054
65661SOL     OW98814   2.463   1.631  10.428
65661SOL    HW198815   2.371   1.604  10.434
65661SOL    HW298816   2.479   1.680  10.508
65662SOL     OW98817   3.611   8.874   1.822
65662SOL    HW198818   3.691   8.896   1.775
65662SOL    HW298819   3.541   8.903   1.763
65663SOL     OW98820   8.581   9.281   4.380
65663SOL    HW198821   8.553   9.372   4.363
65663SOL    HW298822   8.619   9.284   4.468
65664SOL     OW98823   0.260   6.413   0.493
65664SOL    HW198824   0.330   6.378   0.437
65664SOL    HW298825   0.305   6.441   0.573
65665SOL     OW98826  12.395   5.298   3.618
65665SOL    HW198827  12.454   5.226   3.597
65665SOL    HW298828  12.336   5.304   3.542
65666SOL     OW98829  13.313   4.658  14.823
65666SOL    HW198830  13.403   4.636  14.847
65666SOL    HW298831  13.273   4.574  14.800
65667SOL     OW98832   9.683   8.920  11.624
65667SOL    HW198833   9.687   8.907  11.719
65667SOL    HW298834   9.604   8.971  11.610
65668SOL     OW98835   5.918  11.073   1.004
65668SOL    HW198836   5.964  11.143   0.956
65668SOL    HW298837   5.862  11.120   1.066
65669SOL     OW98838   6.195   4.774   1.099
65669SOL    HW198839   6.273   4.828   1.110
65669SOL    HW298840   6.204   4.704   1.163
65670SOL     OW98841   0.844   0.703   6.493
65670SOL    HW198842   0.887   0.704   6.408
65670SOL    HW298843   0.767   0.646   6.480
65671SOL     OW98844   3.127  14.091   4.926
65671SOL    HW198845   3.032  14.078   4.920
65671SOL    HW298846   3.163  14.025   4.866
65672SOL     OW98847   3.661   7.585   6.464
65672SOL    HW198848   3.656   7.590   6.559
65672SOL    HW298849   3.572   7.563   6.436
65673SOL     OW98850  10.031  13.425   9.623
65673SOL    HW198851   9.977  13.375   9.684
65673SOL    HW298852  10.003  13.397   9.536
65674SOL     OW98853  12.496   7.367   2.348
65674SOL    HW198854  12.438   7.440   2.364
65674SOL    HW298855  12.546   7.357   2.430
65675SOL     OW98856   6.169   6.672  10.216
65675SOL    HW198857   6.247   6.645  10.167
65675SOL    HW298858   6.129   6.590  10.245
65676SOL     OW98859   5.872   6.252   1.655
65676SOL    HW198860   5.957   6.222   1.688
65676SOL    HW298861   5.812   6.240   1.728
65677SOL     OW98862   8.739   8.945  11.497
65677SOL    HW198863   8.702   8.877  11.552
65677SOL    HW298864   8.685   8.944  11.418
65678SOL     OW98865   0.973   4.738   5.001
65678SOL    HW198866   1.004   4.684   4.928
65678SOL    HW298867   0.883   4.707   5.016
65679SOL     OW98868   1.600   1.258   7.309
65679SOL    HW198869   1.651   1.322   7.259
65679SOL    HW298870   1.600   1.179   7.254
65680SOL     OW98871  14.828   8.304   2.067
65680SOL    HW198872  14.860   8.219   2.097
65680SOL    HW298873  14.849   8.307   1.974
65681SOL     OW98874   6.900  12.313   1.923
65681SOL    HW198875   6.968  12.320   1.991
65681SOL    HW298876   6.948  12.285   1.845
65682SOL     OW98877  10.752  13.838   4.883
65682SOL    HW198878  10.845  13.853   4.866
65682SOL    HW298879  10.750  13.776   4.956
65683SOL     OW98880   1.761   6.700  11.227
65683SOL    HW198881   1.764   6.706  11.131
65683SOL    HW298882   1.800   6.782  11.257
65684SOL     OW98883   9.165   4.001   7.852
65684SOL    HW198884   9.238   4.041   7.805
65684SOL    HW298885   9.095   3.996   7.788
65685SOL     OW98886   4.834   2.307  14.073
65685SOL    HW198887   4.880   2.224  14.084
65685SOL    HW298888   4.812   2.335  14.162
65686SOL     OW98889   1.808   3.080   0.188
65686SOL    HW198890   1.823   2.991   0.220
65686SOL    HW298891   1.721   3.103   0.219
65687SOL     OW98892   4.851   8.503  13.981
65687SOL    HW198893   4.922   8.520  14.043
65687SOL    HW298894   4.800   8.433  14.021
65688SOL     OW98895   7.548  14.112   4.458
65688SOL    HW198896   7.627  14.071   4.422
65688SOL    HW298897   7.477  14.051   4.435
65689SOL     OW98898   1.095   1.920  14.834
65689SOL    HW198899   1.147   1.840  14.819
65689SOL    HW298900   1.141   1.965   0.022
65690SOL     OW98901  13.454   9.113  11.753
65690SOL    HW198902  13.410   9.039  11.793
65690SOL    HW298903  13.526   9.134  11.813
65691SOL     OW98904   9.165   5.574   1.112
65691SOL    HW198905   9.124   5.640   1.056
65691SOL    HW298906   9.178   5.619   1.196
65692SOL     OW98907   6.301   7.506   2.612
65692SOL    HW198908   6.282   7.491   2.705
65692SOL    HW298909   6.244   7.445   2.565
65693SOL     OW98910   1.688   5.739   3.480
65693SOL    HW198911   1.603   5.704   3.505
65693SOL    HW298912   1.681   5.833   3.495
65694SOL     OW98913  11.304   8.724  10.361
65694SOL    HW198914  11.341   8.812  10.354
65694SOL    HW298915  11.219   8.736  10.403
65695SOL     OW98916   6.992  10.816   1.763
65695SOL    HW198917   6.938  10.743   1.793
65695SOL    HW298918   6.949  10.846   1.683
65696SOL     OW98919   9.294   5.833   5.370
65696SOL    HW198920   9.298   5.805   5.462
65696SOL    HW298921   9.328   5.922   5.371
65697SOL     OW98922   5.324   6.733  14.763
65697SOL    HW198923   5.389   6.665  14.746
65697SOL    HW298924   5.263   6.693  14.825
65698SOL     OW98925  14.322  11.091  11.190
65698SOL    HW198926  14.408  11.109  11.154
65698SOL    HW298927  14.319  10.995  11.198
65699SOL     OW98928  13.161   5.508  12.877
65699SOL    HW198929  13.249   5.530  12.845
65699SOL    HW298930  13.104   5.517  12.801
65700SOL     OW98931   0.412   2.110   8.265
65700SOL    HW198932   0.460   2.058   8.329
65700SOL    HW298933   0.444   2.200   8.277
65701SOL     OW98934   7.534  14.052   6.828
65701SOL    HW198935   7.551  14.146   6.833
65701SOL    HW298936   7.466  14.036   6.894
65702SOL     OW98937   6.764   7.878  13.799
65702SOL    HW198938   6.718   7.955  13.833
65702SOL    HW298939   6.696   7.811  13.790
65703SOL     OW98940  11.713   3.121   3.327
65703SOL    HW198941  11.698   3.096   3.236
65703SOL    HW298942  11.751   3.042   3.367
65704SOL     OW98943  13.684   0.327   7.581
65704SOL    HW198944  13.707   0.299   7.492
65704SOL    HW298945  13.595   0.359   7.574
65705SOL     OW98946  14.881   1.873   8.184
65705SOL    HW198947  14.879   1.941   8.252
65705SOL    HW298948   0.088   1.838   8.187
65706SOL     OW98949  10.406   8.119  12.303
65706SOL    HW198950  10.344   8.051  12.329
65706SOL    HW298951  10.469   8.074  12.246
65707SOL     OW98952   9.399   2.392   7.678
65707SOL    HW198953   9.461   2.465   7.679
65707SOL    HW298954   9.358   2.394   7.764
65708SOL     OW98955   4.128  14.794  14.530
65708SOL    HW198956   4.104  14.774  14.620
65708SOL    HW298957   4.095  14.719  14.479
65709SOL     OW98958  12.482  12.537   1.515
65709SOL    HW198959  12.406  12.504   1.562
65709SOL    HW298960  12.475  12.498   1.428
65710SOL     OW98961   6.042  11.311   0.998
65710SOL    HW198962   6.042  11.350   1.085
65710SOL    HW298963   6.008  11.380   0.941
65711SOL     OW98964  13.908   5.180   3.567
65711SOL    HW198965  13.822   5.172   3.607
65711SOL    HW298966  13.914   5.106   3.507
65712SOL     OW98967  14.465   9.838   9.182
65712SOL    HW198968  14.457   9.855   9.089
65712SOL    HW298969  14.540   9.779   9.189
65713SOL     OW98970  14.843   0.813   9.243
65713SOL    HW198971  14.845   0.730   9.290
65713SOL    HW298972  14.800   0.792   9.160
65714SOL     OW98973   8.026   4.578   4.448
65714SOL    HW198974   7.979   4.644   4.396
65714SOL    HW298975   7.985   4.582   4.534
65715SOL     OW98976   3.877   5.444   7.185
65715SOL    HW198977   3.921   5.472   7.266
65715SOL    HW298978   3.818   5.373   7.213
65716SOL     OW98979   6.151   8.416  13.226
65716SOL    HW198980   6.094   8.439  13.299
65716SOL    HW298981   6.097   8.359  13.170
65717SOL     OW98982  11.826   9.289   3.299
65717SOL    HW198983  11.779   9.342   3.363
65717SOL    HW298984  11.764   9.221   3.274
65718SOL     OW98985   6.642   2.214   4.940
65718SOL    HW198986   6.635   2.202   5.035
65718SOL    HW298987   6.734   2.235   4.925
65719SOL     OW98988   9.487  11.560   8.293
65719SOL    HW198989   9.530  11.638   8.257
65719SOL    HW298990   9.556  11.494   8.293
65720SOL     OW98991   8.752   2.102   6.502
65720SOL    HW198992   8.784   2.017   6.471
65720SOL    HW298993   8.657   2.096   6.493
65721SOL     OW98994   6.015   2.129   8.181
65721SOL    HW198995   6.025   2.184   8.103
65721SOL    HW298996   6.003   2.040   8.146
65722SOL     OW98997   2.639   2.897   0.093
65722SOL    HW198998   2.645   2.976   0.040
65722SOL    HW298999   2.637   2.929   0.183
65723SOL     OW99000  11.981   0.342  12.073
65723SOL    HW199001  12.006   0.257  12.108
65723SOL    HW299002  12.058   0.373  12.026
65724SOL     OW99003   0.317  13.134  13.604
65724SOL    HW199004   0.338  13.227  13.610
65724SOL    HW299005   0.360  13.105  13.524
65725SOL     OW99006  10.780   1.828   2.240
65725SOL    HW199007  10.866   1.788   2.245
65725SOL    HW299008  10.791   1.904   2.182
65726SOL     OW99009  13.313   9.817   3.443
65726SOL    HW199010  13.356   9.894   3.408
65726SOL    HW299011  13.223   9.822   3.410
65727SOL     OW99012   2.914  13.434   8.326
65727SOL    HW199013   2.868  13.432   8.410
65727SOL    HW299014   2.877  13.510   8.281
65728SOL     OW99015   1.648  12.994   4.440
65728SOL    HW199016   1.719  12.939   4.406
65728SOL    HW299017   1.670  13.083   4.411
65729SOL     OW99018  11.973  11.197   6.501
65729SOL    HW199019  11.886  11.159   6.512
65729SOL    HW299020  12.004  11.163   6.417
65730SOL     OW99021   7.208  13.432   5.340
65730SOL    HW199022   7.301  13.417   5.322
65730SOL    HW299023   7.206  13.468   5.429
65731SOL     OW99024  11.996  10.146   6.964
65731SOL    HW199025  11.976  10.139   7.057
65731SOL    HW299026  12.003  10.055   6.934
65732SOL     OW99027   9.869   8.614  12.899
65732SOL    HW199028   9.788   8.609  12.949
65732SOL    HW299029   9.927   8.668  12.953
65733SOL     OW99030   5.333  12.310   9.355
65733SOL    HW199031   5.369  12.394   9.382
65733SOL    HW299032   5.278  12.282   9.428
65734SOL     OW99033   5.488  12.147   3.922
65734SOL    HW199034   5.472  12.187   3.837
65734SOL    HW299035   5.506  12.220   3.981
65735SOL     OW99036   0.452   4.023  11.104
65735SOL    HW199037   0.389   3.966  11.149
65735SOL    HW299038   0.417   4.034  11.016
65736SOL     OW99039  12.658   5.993   8.196
65736SOL    HW199040  12.592   5.962   8.258
65736SOL    HW299041  12.655   6.088   8.204
65737SOL     OW99042   8.599   4.291   6.170
65737SOL    HW199043   8.589   4.270   6.263
65737SOL    HW299044   8.540   4.365   6.155
65738SOL     OW99045  13.795  11.646   1.509
65738SOL    HW199046  13.793  11.700   1.588
65738SOL    HW299047  13.862  11.580   1.528
65739SOL     OW99048  14.386   2.610   0.755
65739SOL    HW199049  14.363   2.563   0.835
65739SOL    HW299050  14.330   2.687   0.756
65740SOL     OW99051   8.087  12.658   4.293
65740SOL    HW199052   8.131  12.742   4.305
65740SOL    HW299053   8.157  12.593   4.292
65741SOL     OW99054   8.173   6.711   7.365
65741SOL    HW199055   8.193   6.627   7.323
65741SOL    HW299056   8.256   6.738   7.405
65742SOL     OW99057   3.704   7.598   3.701
65742SOL    HW199058   3.626   7.647   3.676
65742SOL    HW299059   3.776   7.659   3.684
65743SOL     OW99060   5.168  11.695   3.451
65743SOL    HW199061   5.146  11.657   3.537
65743SOL    HW299062   5.219  11.773   3.472
65744SOL     OW99063   3.469  13.373   3.099
65744SOL    HW199064   3.512  13.353   3.183
65744SOL    HW299065   3.381  13.337   3.108
65745SOL     OW99066  14.687  13.573  12.533
65745SOL    HW199067  14.742  13.617  12.597
65745SOL    HW299068  14.723  13.485  12.526
65746SOL     OW99069  11.677   6.309   3.793
65746SOL    HW199070  11.661   6.230   3.740
65746SOL    HW299071  11.711   6.275   3.876
65747SOL     OW99072   7.882  11.356  11.786
65747SOL    HW199073   7.786  11.357  11.781
65747SOL    HW299074   7.905  11.265  11.766
65748SOL     OW99075   1.790   5.409   0.079
65748SOL    HW199076   1.831   5.322   0.078
65748SOL    HW299077   1.711   5.399   0.027
65749SOL     OW99078   2.649  12.199   7.102
65749SOL    HW199079   2.619  12.240   7.020
65749SOL    HW299080   2.656  12.106   7.081
65750SOL     OW99081   1.490   0.579   6.306
65750SOL    HW199082   1.568   0.565   6.252
65750SOL    HW299083   1.423   0.609   6.245
65751SOL     OW99084  10.150  10.550   9.302
65751SOL    HW199085  10.072  10.551   9.246
65751SOL    HW299086  10.147  10.633   9.349
65752SOL     OW99087   7.802   3.565  11.950
65752SOL    HW199088   7.778   3.476  11.923
65752SOL    HW299089   7.724   3.618  11.932
65753SOL     OW99090   3.104   0.318  14.173
65753SOL    HW199091   3.086   0.412  14.176
65753SOL    HW299092   3.178   0.309  14.114
65754SOL     OW99093   2.961   4.152   8.220
65754SOL    HW199094   2.948   4.130   8.312
65754SOL    HW299095   2.992   4.243   8.221
65755SOL     OW99096  11.477   4.363   7.060
65755SOL    HW199097  11.564   4.367   7.021
65755SOL    HW299098  11.428   4.433   7.017
65756SOL     OW99099   4.494  10.984   0.122
65756SOL    HW199100   4.540  10.919   0.069
65756SOL    HW299101   4.563  11.030   0.171
65757SOL     OW99102   6.767   3.905   9.096
65757SOL    HW199103   6.767   3.900   9.192
65757SOL    HW299104   6.683   3.945   9.075
65758SOL     OW99105   3.726  11.080   2.842
65758SOL    HW199106   3.727  11.021   2.766
65758SOL    HW299107   3.732  11.022   2.918
65759SOL     OW99108  10.983   3.626   6.597
65759SOL    HW199109  11.049   3.568   6.559
65759SOL    HW299110  10.901   3.576   6.593
65760SOL     OW99111   3.438   3.352   1.846
65760SOL    HW199112   3.435   3.417   1.776
65760SOL    HW299113   3.348   3.323   1.855
65761SOL     OW99114   4.012  11.232  12.051
65761SOL    HW199115   4.033  11.249  11.960
65761SOL    HW299116   4.095  11.210  12.092
65762SOL     OW99117   4.855   2.421   9.518
65762SOL    HW199118   4.875   2.491   9.456
65762SOL    HW299119   4.838   2.345   9.463
65763SOL     OW99120   3.061   4.110   8.823
65763SOL    HW199121   3.005   4.078   8.893
65763SOL    HW299122   3.103   4.188   8.860
65764SOL     OW99123   4.204   8.479   6.869
65764SOL    HW199124   4.291   8.470   6.830
65764SOL    HW299125   4.211   8.432   6.953
65765SOL     OW99126  14.582   8.607   2.490
65765SOL    HW199127  14.613   8.692   2.458
65765SOL    HW299128  14.487   8.616   2.494
65766SOL     OW99129  11.041   8.623   1.700
65766SOL    HW199130  11.096   8.702   1.704
65766SOL    HW299131  11.063   8.582   1.616
65767SOL     OW99132   8.846   0.670  11.209
65767SOL    HW199133   8.883   0.668  11.297
65767SOL    HW299134   8.840   0.763  11.188
65768SOL     OW99135  12.029   0.453   8.520
65768SOL    HW199136  12.002   0.462   8.429
65768SOL    HW299137  11.961   0.398   8.559
65769SOL     OW99138   1.551   5.128   2.200
65769SOL    HW199139   1.529   5.219   2.221
65769SOL    HW299140   1.647   5.128   2.190
65770SOL     OW99141   3.552   0.152   1.316
65770SOL    HW199142   3.642   0.178   1.336
65770SOL    HW299143   3.546   0.061   1.346
65771SOL     OW99144  10.456  10.479  14.880
65771SOL    HW199145  10.459  10.397   0.047
65771SOL    HW299146  10.373  10.475  14.832
65772SOL     OW99147  14.740  14.770   7.756
65772SOL    HW199148  14.769  14.845   7.809
65772SOL    HW299149  14.683  14.808   7.690
65773SOL     OW99150   6.765   5.727   4.408
65773SOL    HW199151   6.819   5.740   4.486
65773SOL    HW299152   6.691   5.787   4.420
65774SOL     OW99153  12.310   9.055   7.742
65774SOL    HW199154  12.294   8.974   7.693
65774SOL    HW299155  12.390   9.091   7.703
65775SOL     OW99156  13.251  14.371  10.789
65775SOL    HW199157  13.230  14.360  10.882
65775SOL    HW299158  13.344  14.393  10.789
65776SOL     OW99159  12.620  10.787   2.677
65776SOL    HW199160  12.702  10.760   2.636
65776SOL    HW299161  12.635  10.877   2.706
65777SOL     OW99162   6.018   6.178   8.033
65777SOL    HW199163   5.971   6.137   7.961
65777SOL    HW299164   6.025   6.270   8.008
65778SOL     OW99165   6.641   1.617   5.815
65778SOL    HW199166   6.733   1.613   5.840
65778SOL    HW299167   6.634   1.557   5.740
65779SOL     OW99168   7.501   8.801   3.879
65779SOL    HW199169   7.413   8.817   3.845
65779SOL    HW299170   7.551   8.771   3.803
65780SOL     OW99171  12.309  13.350   9.497
65780SOL    HW199172  12.336  13.346   9.406
65780SOL    HW299173  12.349  13.274   9.538
65781SOL     OW99174   2.619   0.482   1.900
65781SOL    HW199175   2.629   0.450   1.990
65781SOL    HW299176   2.615   0.402   1.847
65782SOL     OW99177  11.968   3.379  13.179
65782SOL    HW199178  11.981   3.316  13.108
65782SOL    HW299179  12.009   3.337  13.255
65783SOL     OW99180  12.101   8.390   8.784
65783SOL    HW199181  12.125   8.482   8.796
65783SOL    HW299182  12.045   8.371   8.859
65784SOL     OW99183   8.576   9.835  12.287
65784SOL    HW199184   8.639   9.790  12.343
65784SOL    HW299185   8.567   9.779  12.211
65785SOL     OW99186   4.480   1.171   7.122
65785SOL    HW199187   4.431   1.248   7.095
65785SOL    HW299188   4.441   1.098   7.073
65786SOL     OW99189   7.011  14.402   2.882
65786SOL    HW199190   7.084  14.342   2.898
65786SOL    HW299191   7.041  14.458   2.810
65787SOL     OW99192  10.632  10.131  11.653
65787SOL    HW199193  10.640  10.066  11.584
65787SOL    HW299194  10.555  10.183  11.628
65788SOL     OW99195   3.255   1.863  12.487
65788SOL    HW199196   3.272   1.792  12.549
65788SOL    HW299197   3.312   1.844  12.412
65789SOL     OW99198   1.667  12.832   0.376
65789SOL    HW199199   1.632  12.920   0.369
65789SOL    HW299200   1.749  12.842   0.424
65790SOL     OW99201  14.815  14.530  12.599
65790SOL    HW199202  14.832  14.600  12.662
65790SOL    HW299203  14.813  14.450  12.651
65791SOL     OW99204   0.072   3.410  10.929
65791SOL    HW199205   0.074   3.430  10.836
65791SOL    HW299206   0.004   3.344  10.939
65792SOL     OW99207  12.936   6.058   9.651
65792SOL    HW199208  12.982   6.010   9.583
65792SOL    HW299209  12.974   6.026   9.733
65793SOL     OW99210  12.640  12.502   7.501
65793SOL    HW199211  12.618  12.558   7.575
65793SOL    HW299212  12.569  12.517   7.438
65794SOL     OW99213   6.954   1.044   1.861
65794SOL    HW199214   6.868   1.069   1.827
65794SOL    HW299215   7.013   1.109   1.824
65795SOL     OW99216   4.906   1.836   4.773
65795SOL    HW199217   4.954   1.870   4.698
65795SOL    HW299218   4.814   1.845   4.750
65796SOL     OW99219  14.518  14.586   8.702
65796SOL    HW199220  14.523  14.598   8.607
65796SOL    HW299221  14.594  14.632   8.736
65797SOL     OW99222  11.604   9.854   4.196
65797SOL    HW199223  11.662   9.882   4.266
65797SOL    HW299224  11.524   9.827   4.241
65798SOL     OW99225   6.907   4.047   3.224
65798SOL    HW199226   6.883   4.080   3.138
65798SOL    HW299227   6.949   3.962   3.207
65799SOL     OW99228   1.787   8.770   4.907
65799SOL    HW199229   1.867   8.823   4.906
65799SOL    HW299230   1.756   8.775   4.997
65800SOL     OW99231   6.651  13.463   3.140
65800SOL    HW199232   6.575  13.417   3.174
65800SOL    HW299233   6.615  13.539   3.093
65801SOL     OW99234   3.884   4.379  14.626
65801SOL    HW199235   3.836   4.410  14.549
65801SOL    HW299236   3.917   4.459  14.667
65802SOL     OW99237   7.840   8.375  13.313
65802SOL    HW199238   7.765   8.342  13.263
65802SOL    HW299239   7.854   8.309  13.382
65803SOL     OW99240   0.525   6.158   8.640
65803SOL    HW199241   0.453   6.151   8.703
65803SOL    HW299242   0.590   6.096   8.672
65804SOL     OW99243   9.168   0.663  14.109
65804SOL    HW199244   9.103   0.692  14.046
65804SOL    HW299245   9.126   0.592  14.157
65805SOL     OW99246   6.295   4.190   2.484
65805SOL    HW199247   6.333   4.131   2.418
65805SOL    HW299248   6.280   4.272   2.438
65806SOL     OW99249   6.569   2.301   1.636
65806SOL    HW199250   6.620   2.263   1.708
65806SOL    HW299251   6.634   2.319   1.568
65807SOL     OW99252   8.349   0.664   6.384
65807SOL    HW199253   8.275   0.724   6.380
65807SOL    HW299254   8.315   0.585   6.426
65808SOL     OW99255   2.155   5.219  12.307
65808SOL    HW199256   2.244   5.254  12.312
65808SOL    HW299257   2.105   5.288  12.265
65809SOL     OW99258  11.637  14.111  13.949
65809SOL    HW199259  11.558  14.156  13.980
65809SOL    HW299260  11.639  14.029  13.998
65810SOL     OW99261  13.923  13.693   4.251
65810SOL    HW199262  13.838  13.735   4.237
65810SOL    HW299263  13.936  13.638   4.173
65811SOL     OW99264   1.037   1.797  12.470
65811SOL    HW199265   1.076   1.821  12.386
65811SOL    HW299266   0.990   1.716  12.453
65812SOL     OW99267   4.802   9.794   3.058
65812SOL    HW199268   4.794   9.857   3.130
65812SOL    HW299269   4.737   9.822   2.993
65813SOL     OW99270  11.192   2.442  14.853
65813SOL    HW199271  11.262   2.500  14.823
65813SOL    HW299272  11.147   2.416  14.773
65814SOL     OW99273   7.308  11.254  13.198
65814SOL    HW199274   7.221  11.286  13.171
65814SOL    HW299275   7.328  11.183  13.138
65815SOL     OW99276   1.544  12.666   2.852
65815SOL    HW199277   1.512  12.745   2.897
65815SOL    HW299278   1.492  12.661   2.772
65816SOL     OW99279   7.291  14.419   6.158
65816SOL    HW199280   7.380  14.405   6.191
65816SOL    HW299281   7.238  14.431   6.237
65817SOL     OW99282   5.264  12.983   1.620
65817SOL    HW199283   5.312  13.023   1.547
65817SOL    HW299284   5.329  12.928   1.664
65818SOL     OW99285   8.112   0.788   6.421
65818SOL    HW199286   8.106   0.878   6.389
65818SOL    HW299287   8.022   0.756   6.417
65819SOL     OW99288  13.391   2.682   7.215
65819SOL    HW199289  13.305   2.654   7.185
65819SOL    HW299290  13.453   2.632   7.162
65820SOL     OW99291   9.936   2.222  11.775
65820SOL    HW199292   9.991   2.164  11.723
65820SOL    HW299293   9.969   2.310  11.756
65821SOL     OW99294   1.161   3.885   3.008
65821SOL    HW199295   1.251   3.860   3.030
65821SOL    HW299296   1.162   3.896   2.913
65822SOL     OW99297   1.887   2.906   1.348
65822SOL    HW199298   1.836   2.962   1.289
65822SOL    HW299299   1.853   2.926   1.435
65823SOL     OW99300   3.801   3.695   9.419
65823SOL    HW199301   3.838   3.748   9.349
65823SOL    HW299302   3.875   3.674   9.476
65824SOL     OW99303  12.705  12.492   3.155
65824SOL    HW199304  12.725  12.577   3.193
65824SOL    HW299305  12.788  12.444   3.156
65825SOL     OW99306  13.635   7.493   8.024
65825SOL    HW199307  13.636   7.486   8.120
65825SOL    HW299308  13.716   7.540   8.003
65826SOL     OW99309   5.105   0.508   0.824
65826SOL    HW199310   5.137   0.499   0.914
65826SOL    HW299311   5.016   0.544   0.834
65827SOL     OW99312  13.986   2.225   8.142
65827SOL    HW199313  14.062   2.169   8.125
65827SOL    HW299314  14.020   2.314   8.135
65828SOL     OW99315   8.352   8.895   5.005
65828SOL    HW199316   8.372   8.824   5.066
65828SOL    HW299317   8.265   8.876   4.972
65829SOL     OW99318  10.361  13.166   7.798
65829SOL    HW199319  10.303  13.204   7.731
65829SOL    HW299320  10.310  13.095   7.837
65830SOL     OW99321   3.545  14.116   5.590
65830SOL    HW199322   3.450  14.128   5.587
65830SOL    HW299323   3.570  14.144   5.678
65831SOL     OW99324   0.673   7.911   0.463
65831SOL    HW199325   0.659   7.944   0.552
65831SOL    HW299326   0.765   7.929   0.445
65832SOL     OW99327   9.253  10.581  13.715
65832SOL    HW199328   9.275  10.569  13.807
65832SOL    HW299329   9.193  10.656  13.714
65833SOL     OW99330   9.859   4.014   0.434
65833SOL    HW199331   9.768   3.989   0.418
65833SOL    HW299332   9.869   4.098   0.388
65834SOL     OW99333   5.844   5.754   5.563
65834SOL    HW199334   5.792   5.713   5.494
65834SOL    HW299335   5.785   5.756   5.639
65835SOL     OW99336  14.529  12.907   5.555
65835SOL    HW199337  14.593  12.839   5.536
65835SOL    HW299338  14.511  12.948   5.470
65836SOL     OW99339  10.109  10.621  14.268
65836SOL    HW199340  10.169  10.620  14.193
65836SOL    HW299341  10.131  10.542  14.317
65837SOL     OW99342  11.943   1.901   9.222
65837SOL    HW199343  11.924   1.915   9.130
65837SOL    HW299344  11.871   1.847   9.254
65838SOL     OW99345   4.438   2.660   7.841
65838SOL    HW199346   4.419   2.572   7.807
65838SOL    HW299347   4.530   2.657   7.865
65839SOL     OW99348   0.956   1.157   1.612
65839SOL    HW199349   0.879   1.207   1.584
65839SOL    HW299350   0.989   1.204   1.688
65840SOL     OW99351   9.065   8.703   1.514
65840SOL    HW199352   9.054   8.798   1.511
65840SOL    HW299353   9.110   8.681   1.433
65841SOL     OW99354   1.320   0.742   1.760
65841SOL    HW199355   1.249   0.806   1.757
65841SOL    HW299356   1.348   0.733   1.669
65842SOL     OW99357  12.074   2.303   3.832
65842SOL    HW199358  12.157   2.260   3.853
65842SOL    HW299359  12.076   2.316   3.737
65843SOL     OW99360   2.244   8.988  14.141
65843SOL    HW199361   2.321   8.992  14.084
65843SOL    HW299362   2.178   9.042  14.096
65844SOL     OW99363  13.099  10.423   3.488
65844SOL    HW199364  13.089  10.473   3.569
65844SOL    HW299365  13.083  10.487   3.419
65845SOL     OW99366   3.475  10.062   5.351
65845SOL    HW199367   3.565  10.056   5.318
65845SOL    HW299368   3.479  10.131   5.418
65846SOL     OW99369   3.406   0.496   2.276
65846SOL    HW199370   3.470   0.451   2.330
65846SOL    HW299371   3.420   0.589   2.294
65847SOL     OW99372   1.529   0.499   5.567
65847SOL    HW199373   1.478   0.519   5.645
65847SOL    HW299374   1.463   0.483   5.499
65848SOL     OW99375   3.939  10.070   8.535
65848SOL    HW199376   3.848  10.090   8.558
65848SOL    HW299377   3.990  10.102   8.609
65849SOL     OW99378   4.293   4.812   5.799
65849SOL    HW199379   4.309   4.735   5.744
65849SOL    HW299380   4.380   4.847   5.817
65850SOL     OW99381   4.810  14.220  11.207
65850SOL    HW199382   4.762  14.245  11.128
65850SOL    HW299383   4.889  14.178  11.174
65851SOL     OW99384  10.847   8.643   7.955
65851SOL    HW199385  10.926   8.623   7.905
65851SOL    HW299386  10.822   8.559   7.995
65852SOL     OW99387  13.061   9.531  14.367
65852SOL    HW199388  13.029   9.466  14.431
65852SOL    HW299389  13.115   9.590  14.419
65853SOL     OW99390   7.729  14.255   3.014
65853SOL    HW199391   7.753  14.186   2.952
65853SOL    HW299392   7.636  14.272   2.997
65854SOL     OW99393  11.305  11.098  14.140
65854SOL    HW199394  11.233  11.077  14.080
65854SOL    HW299395  11.262  11.144  14.212
65855SOL     OW99396  14.482  10.566   7.385
65855SOL    HW199397  14.533  10.591   7.462
65855SOL    HW299398  14.468  10.472   7.395
65856SOL     OW99399   8.636   8.614  10.290
65856SOL    HW199400   8.567   8.598  10.225
65856SOL    HW299401   8.591   8.614  10.374
65857SOL     OW99402   3.340   8.098   6.128
65857SOL    HW199403   3.356   8.018   6.077
65857SOL    HW299404   3.424   8.145   6.125
65858SOL     OW99405   1.835   6.415   1.247
65858SOL    HW199406   1.893   6.396   1.173
65858SOL    HW299407   1.774   6.341   1.249
65859SOL     OW99408  13.481   8.020  13.193
65859SOL    HW199409  13.562   7.969  13.187
65859SOL    HW299410  13.426   7.971  13.254
65860SOL     OW99411   1.090   2.471   1.959
65860SOL    HW199412   1.130   2.529   2.024
65860SOL    HW299413   1.160   2.410   1.935
65861SOL     OW99414   6.222  10.582   7.121
65861SOL    HW199415   6.288  10.549   7.182
65861SOL    HW299416   6.218  10.517   7.052
65862SOL     OW99417   2.536   1.699   9.285
65862SOL    HW199418   2.617   1.726   9.329
65862SOL    HW299419   2.476   1.682   9.357
65863SOL     OW99420   9.336  12.805  12.193
65863SOL    HW199421   9.429  12.823  12.178
65863SOL    HW299422   9.324  12.819  12.287
65864SOL     OW99423   3.030   2.896   2.507
65864SOL    HW199424   3.011   2.826   2.443
65864SOL    HW299425   3.102   2.861   2.559
65865SOL     OW99426   9.875  14.824   7.145
65865SOL    HW199427   9.933  14.773   7.202
65865SOL    HW299428   9.837   0.008   7.202
65866SOL     OW99429   6.256  10.708   5.353
65866SOL    HW199430   6.308  10.729   5.430
65866SOL    HW299431   6.259  10.787   5.299
65867SOL     OW99432   6.097  11.298   1.289
65867SOL    HW199433   6.108  11.391   1.311
65867SOL    HW299434   6.011  11.275   1.322
65868SOL     OW99435   4.766   9.718   3.721
65868SOL    HW199436   4.726   9.742   3.638
65868SOL    HW299437   4.756   9.795   3.776
65869SOL     OW99438  10.459  13.300   4.170
65869SOL    HW199439  10.535  13.352   4.195
65869SOL    HW299440  10.399  13.308   4.244
65870SOL     OW99441   8.099   0.387  12.355
65870SOL    HW199442   8.061   0.396  12.442
65870SOL    HW299443   8.023   0.385  12.296
65871SOL     OW99444   0.634   5.942   7.004
65871SOL    HW199445   0.635   5.981   7.091
65871SOL    HW299446   0.614   5.850   7.018
65872SOL     OW99447  11.555   2.314   7.401
65872SOL    HW199448  11.514   2.282   7.320
65872SOL    HW299449  11.578   2.234   7.449
65873SOL     OW99450   4.019  12.129  14.250
65873SOL    HW199451   4.029  12.156  14.341
65873SOL    HW299452   4.039  12.035  14.251
65874SOL     OW99453   0.658  10.367   6.690
65874SOL    HW199454   0.622  10.438   6.637
65874SOL    HW299455   0.688  10.302   6.627
65875SOL     OW99456  10.982   8.654   4.065
65875SOL    HW199457  10.931   8.709   4.124
65875SOL    HW299458  11.073   8.681   4.080
65876SOL     OW99459  11.642  12.675   0.733
65876SOL    HW199460  11.553  12.664   0.698
65876SOL    HW299461  11.632  12.740   0.802
65877SOL     OW99462   1.353  14.303  10.805
65877SOL    HW199463   1.418  14.236  10.827
65877SOL    HW299464   1.355  14.363  10.879
65878SOL     OW99465   0.251   6.123   3.944
65878SOL    HW199466   0.264   6.029   3.930
65878SOL    HW299467   0.304   6.165   3.877
65879SOL     OW99468   4.048  11.088   5.218
65879SOL    HW199469   3.996  11.007   5.224
65879SOL    HW299470   4.001  11.150   5.274
65880SOL     OW99471   5.237   5.590   8.889
65880SOL    HW199472   5.309   5.600   8.951
65880SOL    HW299473   5.234   5.497   8.870
65881SOL     OW99474   6.796   4.608   7.150
65881SOL    HW199475   6.867   4.665   7.119
65881SOL    HW299476   6.815   4.523   7.111
65882SOL     OW99477   5.332  14.614   6.355
65882SOL    HW199478   5.281  14.624   6.274
65882SOL    HW299479   5.380  14.697   6.363
65883SOL     OW99480  10.706   9.099   6.807
65883SOL    HW199481  10.768   9.064   6.871
65883SOL    HW299482  10.671   9.021   6.763
65884SOL     OW99483  14.398  12.335   7.674
65884SOL    HW199484  14.355  12.315   7.758
65884SOL    HW299485  14.477  12.281   7.675
65885SOL     OW99486   7.748   5.994   8.020
65885SOL    HW199487   7.811   6.051   7.975
65885SOL    HW299488   7.711   6.048   8.089
65886SOL     OW99489   0.630  13.418   7.688
65886SOL    HW199490   0.563  13.387   7.627
65886SOL    HW299491   0.597  13.394   7.774
65887SOL     OW99492   6.490   5.844  14.165
65887SOL    HW199493   6.465   5.752  14.162
65887SOL    HW299494   6.482   5.868  14.258
65888SOL     OW99495   3.366  14.309   4.176
65888SOL    HW199496   3.297  14.288   4.113
65888SOL    HW299497   3.329  14.378   4.230
65889SOL     OW99498  14.622   4.014  12.473
65889SOL    HW199499  14.717   4.014  12.470
65889SOL    HW299500  14.597   3.922  12.468
65890SOL     OW99501  13.739   2.306   7.786
65890SOL    HW199502  13.741   2.242   7.857
65890SOL    HW299503  13.770   2.259   7.709
65891SOL     OW99504   0.511  12.064  11.704
65891SOL    HW199505   0.433  12.051  11.650
65891SOL    HW299506   0.482  12.041  11.793
65892SOL     OW99507   4.327  11.116  12.569
65892SOL    HW199508   4.288  11.028  12.569
65892SOL    HW299509   4.417  11.101  12.540
65893SOL     OW99510   7.995   4.469  11.055
65893SOL    HW199511   8.021   4.471  10.963
65893SOL    HW299512   7.934   4.542  11.064
65894SOL     OW99513  10.210  11.661   0.149
65894SOL    HW199514  10.184  11.644   0.058
65894SOL    HW299515  10.193  11.754   0.162
65895SOL     OW99516   4.736   2.460   5.899
65895SOL    HW199517   4.825   2.454   5.932
65895SOL    HW299518   4.681   2.455   5.978
65896SOL     OW99519   3.207   6.114  13.103
65896SOL    HW199520   3.289   6.065  13.111
65896SOL    HW299521   3.170   6.114  13.192
65897SOL     OW99522   8.386   9.730   0.215
65897SOL    HW199523   8.393   9.683   0.133
65897SOL    HW299524   8.334   9.807   0.195
65898SOL     OW99525  11.015   3.381  14.300
65898SOL    HW199526  11.014   3.321  14.225
65898SOL    HW299527  10.983   3.328  14.373
65899SOL     OW99528   6.369  14.328  10.179
65899SOL    HW199529   6.447  14.273  10.168
65899SOL    HW299530   6.341  14.312  10.270
65900SOL     OW99531  13.794   9.653   2.408
65900SOL    HW199532  13.869   9.712   2.394
65900SOL    HW299533  13.724   9.692   2.356
65901SOL     OW99534  12.274   6.703  11.735
65901SOL    HW199535  12.362   6.736  11.716
65901SOL    HW299536  12.279   6.609  11.718
65902SOL     OW99537  14.432   5.432  10.600
65902SOL    HW199538  14.510   5.460  10.648
65902SOL    HW299539  14.364   5.493  10.628
65903SOL     OW99540   7.855  10.299  14.819
65903SOL    HW199541   7.824  10.226  14.873
65903SOL    HW299542   7.779  10.323  14.766
65904SOL     OW99543   8.715  13.312   9.895
65904SOL    HW199544   8.762  13.274   9.820
65904SOL    HW299545   8.748  13.263   9.970
65905SOL     OW99546   5.780   3.902   2.320
65905SOL    HW199547   5.810   3.811   2.330
65905SOL    HW299548   5.861   3.953   2.318
65906SOL     OW99549  11.126   8.088   7.189
65906SOL    HW199550  11.108   8.180   7.171
65906SOL    HW299551  11.211   8.088   7.234
65907SOL     OW99552   3.661  13.235  13.674
65907SOL    HW199553   3.580  13.198  13.709
65907SOL    HW299554   3.704  13.276  13.750
65908SOL     OW99555   6.337   8.739   6.301
65908SOL    HW199556   6.388   8.688   6.238
65908SOL    HW299557   6.340   8.828   6.267
65909SOL     OW99558   4.193   8.191  14.786
65909SOL    HW199559   4.248   8.136  14.842
65909SOL    HW299560   4.225   8.280  14.800
65910SOL     OW99561   4.326  11.035   0.491
65910SOL    HW199562   4.308  10.942   0.505
65910SOL    HW299563   4.248  11.079   0.524
65911SOL     OW99564   9.903   7.778  10.065
65911SOL    HW199565   9.974   7.813  10.118
65911SOL    HW299566   9.842   7.851  10.055
65912SOL     OW99567   5.761   8.489  13.667
65912SOL    HW199568   5.855   8.478  13.684
65912SOL    HW299569   5.758   8.553  13.596
65913SOL     OW99570  11.665   4.992  12.431
65913SOL    HW199571  11.580   5.013  12.392
65913SOL    HW299572  11.710   4.940  12.364
65914SOL     OW99573  12.569  13.229   6.832
65914SOL    HW199574  12.518  13.276   6.766
65914SOL    HW299575  12.538  13.264   6.915
65915SOL     OW99576   4.530  13.160   6.827
65915SOL    HW199577   4.554  13.252   6.835
65915SOL    HW299578   4.614  13.115   6.813
65916SOL     OW99579   0.714  10.178   1.315
65916SOL    HW199580   0.771  10.231   1.260
65916SOL    HW299581   0.699  10.231   1.393
65917SOL     OW99582   8.511   4.573  14.447
65917SOL    HW199583   8.557   4.489  14.436
65917SOL    HW299584   8.571   4.638  14.411
65918SOL     OW99585   7.322   3.587   6.547
65918SOL    HW199586   7.341   3.537   6.625
65918SOL    HW299587   7.227   3.603   6.551
65919SOL     OW99588  12.120  11.066   7.719
65919SOL    HW199589  12.183  11.054   7.790
65919SOL    HW299590  12.064  10.988   7.723
65920SOL     OW99591  12.614   4.614   9.615
65920SOL    HW199592  12.637   4.699   9.653
65920SOL    HW299593  12.589   4.634   9.524
65921SOL     OW99594   3.271  13.886   6.632
65921SOL    HW199595   3.236  13.960   6.682
65921SOL    HW299596   3.215  13.812   6.656
65922SOL     OW99597   5.227  11.957   9.277
65922SOL    HW199598   5.219  11.898   9.352
65922SOL    HW299599   5.156  12.020   9.288
65923SOL     OW99600  14.174   5.259   5.114
65923SOL    HW199601  14.153   5.306   5.194
65923SOL    HW299602  14.264   5.284   5.094
65924SOL     OW99603   1.665   3.835   0.545
65924SOL    HW199604   1.749   3.865   0.579
65924SOL    HW299605   1.672   3.739   0.544
65925SOL     OW99606   7.699  13.567   5.935
65925SOL    HW199607   7.762  13.504   5.898
65925SOL    HW299608   7.736  13.590   6.020
65926SOL     OW99609   9.175   3.211   2.592
65926SOL    HW199610   9.249   3.151   2.598
65926SOL    HW299611   9.196   3.282   2.654
65927SOL     OW99612   2.736  13.629  10.950
65927SOL    HW199613   2.691  13.714  10.946
65927SOL    HW299614   2.806  13.636  10.885
65928SOL     OW99615  11.920   7.649  14.168
65928SOL    HW199616  11.991   7.618  14.224
65928SOL    HW299617  11.844   7.652  14.226
65929SOL     OW99618   9.945   7.978   9.746
65929SOL    HW199619   9.960   8.025   9.828
65929SOL    HW299620   9.988   8.031   9.679
65930SOL     OW99621   2.514   2.888  11.350
65930SOL    HW199622   2.454   2.817  11.330
65930SOL    HW299623   2.478   2.964  11.304
65931SOL     OW99624   6.138   6.243  13.379
65931SOL    HW199625   6.063   6.214  13.431
65931SOL    HW299626   6.167   6.164  13.334
65932SOL     OW99627   3.674   5.396   4.816
65932SOL    HW199628   3.652   5.448   4.893
65932SOL    HW299629   3.612   5.424   4.749
65933SOL     OW99630  10.808   0.922   5.846
65933SOL    HW199631  10.822   0.848   5.787
65933SOL    HW299632  10.869   0.989   5.814
65934SOL     OW99633   5.370   8.169   5.913
65934SOL    HW199634   5.355   8.123   5.996
65934SOL    HW299635   5.297   8.143   5.857
65935SOL     OW99636  11.346   9.901   7.360
65935SOL    HW199637  11.345   9.843   7.284
65935SOL    HW299638  11.439   9.914   7.379
65936SOL     OW99639   2.256   4.998   1.291
65936SOL    HW199640   2.332   5.035   1.247
65936SOL    HW299641   2.290   4.967   1.375
65937SOL     OW99642   6.252   2.279   5.251
65937SOL    HW199643   6.340   2.244   5.238
65937SOL    HW299644   6.263   2.373   5.255
65938SOL     OW99645  14.469  14.156  13.329
65938SOL    HW199646  14.511  14.215  13.391
65938SOL    HW299647  14.377  14.184  13.329
65939SOL     OW99648   1.089   7.721   5.502
65939SOL    HW199649   0.996   7.725   5.525
65939SOL    HW299650   1.089   7.695   5.410
65940SOL     OW99651   5.468  14.052   9.811
65940SOL    HW199652   5.523  13.974   9.814
65940SOL    HW299653   5.395  14.027   9.754
65941SOL     OW99654   6.879   3.512  11.900
65941SOL    HW199655   6.872   3.534  11.808
65941SOL    HW299656   6.848   3.422  11.906
65942SOL     OW99657   9.795   7.568  13.252
65942SOL    HW199658   9.831   7.491  13.295
65942SOL    HW299659   9.755   7.534  13.172
65943SOL     OW99660   7.241  12.176   6.228
65943SOL    HW199661   7.247  12.103   6.290
65943SOL    HW299662   7.245  12.254   6.282
65944SOL     OW99663   7.658   2.998   7.419
65944SOL    HW199664   7.687   2.992   7.328
65944SOL    HW299665   7.693   2.919   7.460
65945SOL     OW99666  14.294   6.973   0.858
65945SOL    HW199667  14.373   7.011   0.820
65945SOL    HW299668  14.223   7.031   0.830
65946SOL     OW99669  13.045  13.687   9.883
65946SOL    HW199670  13.055  13.646   9.797
65946SOL    HW299671  12.951  13.682   9.901
65947SOL     OW99672   5.249   5.299   0.255
65947SOL    HW199673   5.243   5.285   0.350
65947SOL    HW299674   5.160   5.283   0.224
65948SOL     OW99675   5.363   0.741   7.286
65948SOL    HW199676   5.344   0.750   7.379
65948SOL    HW299677   5.277   0.751   7.244
65949SOL     OW99678   4.501   6.600   6.845
65949SOL    HW199679   4.553   6.644   6.912
65949SOL    HW299680   4.500   6.661   6.771
65950SOL     OW99681   1.597   5.626  12.968
65950SOL    HW199682   1.614   5.563  13.037
65950SOL    HW299683   1.676   5.680  12.964
65951SOL     OW99684  12.157  13.176  14.448
65951SOL    HW199685  12.242  13.200  14.485
65951SOL    HW299686  12.137  13.092  14.489
65952SOL     OW99687   0.137   2.368   4.160
65952SOL    HW199688   0.227   2.339   4.141
65952SOL    HW299689   0.144   2.463   4.171
65953SOL     OW99690  13.002  12.134   8.514
65953SOL    HW199691  12.962  12.124   8.428
65953SOL    HW299692  13.089  12.169   8.496
65954SOL     OW99693   6.691  14.864   2.254
65954SOL    HW199694   6.750   0.031   2.310
65954SOL    HW299695   6.745  14.837   2.180
65955SOL     OW99696   1.901   6.536   3.716
65955SOL    HW199697   1.963   6.561   3.784
65955SOL    HW299698   1.895   6.614   3.660
65956SOL     OW99699   6.169   4.842  12.199
65956SOL    HW199700   6.264   4.830  12.196
65956SOL    HW299701   6.148   4.890  12.119
65957SOL     OW99702   6.023  14.417   2.633
65957SOL    HW199703   5.976  14.493   2.665
65957SOL    HW299704   5.969  14.342   2.659
65958SOL     OW99705  10.964   6.953   7.916
65958SOL    HW199706  11.052   6.956   7.878
65958SOL    HW299707  10.909   6.918   7.846
65959SOL     OW99708   6.006   1.918   9.688
65959SOL    HW199709   5.967   2.000   9.716
65959SOL    HW299710   6.049   1.939   9.604
65960SOL     OW99711   9.997  10.862  10.445
65960SOL    HW199712   9.961  10.950  10.458
65960SOL    HW299713  10.042  10.866  10.361
65961SOL     OW99714   9.019   8.483  14.800
65961SOL    HW199715   9.052   8.395  14.783
65961SOL    HW299716   9.076   8.541  14.750
65962SOL     OW99717   7.486   8.229   3.507
65962SOL    HW199718   7.575   8.209   3.480
65962SOL    HW299719   7.463   8.158   3.567
65963SOL     OW99720  14.368   6.531   7.046
65963SOL    HW199721  14.288   6.496   7.007
65963SOL    HW299722  14.349   6.624   7.061
65964SOL     OW99723   6.160   5.944  12.257
65964SOL    HW199724   6.237   5.913  12.211
65964SOL    HW299725   6.138   6.027  12.215
65965SOL     OW99726   2.930  13.659   7.786
65965SOL    HW199727   2.941  13.738   7.839
65965SOL    HW299728   2.994  13.597   7.821
65966SOL     OW99729   5.284   3.120  11.507
65966SOL    HW199730   5.262   3.034  11.473
65966SOL    HW299731   5.380   3.122  11.507
65967SOL     OW99732  12.715   5.755  12.217
65967SOL    HW199733  12.692   5.671  12.258
65967SOL    HW299734  12.712   5.737  12.123
65968SOL     OW99735   5.242   5.971   7.161
65968SOL    HW199736   5.261   6.013   7.244
65968SOL    HW299737   5.213   6.043   7.104
65969SOL     OW99738   0.995  13.302   3.862
65969SOL    HW199739   0.907  13.299   3.899
65969SOL    HW299740   1.047  13.246   3.920
65970SOL     OW99741   3.475   9.207  12.522
65970SOL    HW199742   3.517   9.123  12.500
65970SOL    HW299743   3.445   9.241  12.437
65971SOL     OW99744   5.827   0.109  11.754
65971SOL    HW199745   5.748   0.127  11.805
65971SOL    HW299746   5.881   0.187  11.767
65972SOL     OW99747   7.791   2.707  10.882
65972SOL    HW199748   7.749   2.642  10.938
65972SOL    HW299749   7.736   2.784  10.889
65973SOL     OW99750  11.087  10.875  14.722
65973SOL    HW199751  11.089  10.805  14.657
65973SOL    HW299752  11.179  10.899  14.733
65974SOL     OW99753   8.721   9.917  10.804
65974SOL    HW199754   8.742   9.971  10.880
65974SOL    HW299755   8.630   9.937  10.783
65975SOL     OW99756   6.455   3.381  10.265
65975SOL    HW199757   6.408   3.440  10.207
65975SOL    HW299758   6.402   3.379  10.345
65976SOL     OW99759  13.850  13.067  10.695
65976SOL    HW199760  13.860  13.010  10.619
65976SOL    HW299761  13.808  13.146  10.661
65977SOL     OW99762  13.634  14.284   5.994
65977SOL    HW199763  13.632  14.280   5.898
65977SOL    HW299764  13.550  14.323   6.018
65978SOL     OW99765  10.777   3.999   1.757
65978SOL    HW199766  10.711   3.942   1.795
65978SOL    HW299767  10.789   3.966   1.668
65979SOL     OW99768   4.649   1.257   2.728
65979SOL    HW199769   4.665   1.168   2.760
65979SOL    HW299770   4.632   1.246   2.634
65980SOL     OW99771   1.856  13.037  10.162
65980SOL    HW199772   1.848  12.984  10.241
65980SOL    HW299773   1.941  13.080  10.170
65981SOL     OW99774  14.807   8.218  11.497
65981SOL    HW199775  14.724   8.264  11.512
65981SOL    HW299776  14.782   8.127  11.485
65982SOL     OW99777  13.890  11.583   5.748
65982SOL    HW199778  13.894  11.673   5.780
65982SOL    HW299779  13.942  11.533   5.811
65983SOL     OW99780  12.264   1.459  12.116
65983SOL    HW199781  12.271   1.472  12.021
65983SOL    HW299782  12.181   1.413  12.128
65984SOL     OW99783  14.252  14.526   4.137
65984SOL    HW199784  14.274  14.552   4.047
65984SOL    HW299785  14.313  14.576   4.191
65985SOL     OW99786   3.250   2.546   6.557
65985SOL    HW199787   3.193   2.472   6.576
65985SOL    HW299788   3.317   2.543   6.626
65986SOL     OW99789   3.225   1.314  12.251
65986SOL    HW199790   3.261   1.226  12.248
65986SOL    HW299791   3.226   1.338  12.343
65987SOL     OW99792   5.968   0.114   2.634
65987SOL    HW199793   6.053   0.076   2.655
65987SOL    HW299794   5.917   0.042   2.596
65988SOL     OW99795  12.731   9.754   8.316
65988SOL    HW199796  12.794   9.756   8.387
65988SOL    HW299797  12.780   9.723   8.240
65989SOL     OW99798   2.298  11.918   3.862
65989SOL    HW199799   2.213  11.885   3.832
65989SOL    HW299800   2.350  11.839   3.878
65990SOL     OW99801   0.861  10.819  10.863
65990SOL    HW199802   0.872  10.752  10.931
65990SOL    HW299803   0.939  10.809  10.807
65991SOL     OW99804  12.940   2.286   4.650
65991SOL    HW199805  12.892   2.250   4.725
65991SOL    HW299806  12.881   2.272   4.575
65992SOL     OW99807   9.161   2.379  11.696
65992SOL    HW199808   9.082   2.408  11.651
65992SOL    HW299809   9.211   2.459  11.712
65993SOL     OW99810   4.131  10.825   8.126
65993SOL    HW199811   4.045  10.828   8.083
65993SOL    HW299812   4.192  10.807   8.055
65994SOL     OW99813   3.576   9.568  13.305
65994SOL    HW199814   3.623   9.504  13.358
65994SOL    HW299815   3.485   9.539  13.307
65995SOL     OW99816   2.300   1.379  13.985
65995SOL    HW199817   2.246   1.311  14.025
65995SOL    HW299818   2.361   1.404  14.054
65996SOL     OW99819   9.270   7.464   4.515
65996SOL    HW199820   9.211   7.538   4.525
65996SOL    HW299821   9.289   7.461   4.422
65997SOL     OW99822  11.432   1.482   1.468
65997SOL    HW199823  11.347   1.525   1.469
65997SOL    HW299824  11.488   1.541   1.417
65998SOL     OW99825  11.016   4.679   4.778
65998SOL    HW199826  10.979   4.682   4.866
65998SOL    HW299827  11.070   4.757   4.771
65999SOL     OW99828   8.311  13.404   5.894
65999SOL    HW199829   8.286  13.315   5.920
65999SOL    HW299830   8.251  13.461   5.942
66000SOL     OW99831   5.838   7.583   6.274
66000SOL    HW199832   5.827   7.528   6.196
66000SOL    HW299833   5.891   7.657   6.244
66001SOL     OW99834   6.719  12.355  11.191
66001SOL    HW199835   6.762  12.297  11.253
66001SOL    HW299836   6.788  12.415  11.162
66002SOL     OW99837   7.863   4.112   0.211
66002SOL    HW199838   7.946   4.120   0.165
66002SOL    HW299839   7.879   4.050   0.281
66003SOL     OW99840   7.996   4.994   9.010
66003SOL    HW199841   8.054   4.919   8.994
66003SOL    HW299842   7.921   4.958   9.055
66004SOL     OW99843   5.990   4.036   8.411
66004SOL    HW199844   6.040   4.079   8.342
66004SOL    HW299845   6.056   3.996   8.467
66005SOL     OW99846   1.872   5.992   0.963
66005SOL    HW199847   1.911   5.912   0.930
66005SOL    HW299848   1.943   6.035   1.012
66006SOL     OW99849   4.533   6.232   3.681
66006SOL    HW199850   4.620   6.254   3.715
66006SOL    HW299851   4.489   6.317   3.673
66007SOL     OW99852  13.459  14.207   3.031
66007SOL    HW199853  13.411  14.185   3.111
66007SOL    HW299854  13.460  14.126   2.980
66008SOL     OW99855  14.854   3.221   3.872
66008SOL    HW199856   0.013   3.276   3.805
66008SOL    HW299857   0.011   3.135   3.859
66009SOL     OW99858  11.169   9.047  10.756
66009SOL    HW199859  11.206   8.960  10.765
66009SOL    HW299860  11.139   9.070  10.844
66010SOL     OW99861   7.031  13.857   2.777
66010SOL    HW199862   6.989  13.936   2.810
66010SOL    HW299863   7.067  13.883   2.692
66011SOL     OW99864  14.571   2.875   4.481
66011SOL    HW199865  14.568   2.789   4.439
66011SOL    HW299866  14.512   2.867   4.556
66012SOL     OW99867  14.400   9.696   3.571
66012SOL    HW199868  14.329   9.663   3.624
66012SOL    HW299869  14.357   9.739   3.497
66013SOL     OW99870  10.955   1.405   0.761
66013SOL    HW199871  11.015   1.478   0.752
66013SOL    HW299872  11.007   1.328   0.740
66014SOL     OW99873   0.826  13.540   4.496
66014SOL    HW199874   0.751  13.598   4.503
66014SOL    HW299875   0.859  13.532   4.586
66015SOL     OW99876  12.706   8.917   1.158
66015SOL    HW199877  12.754   8.836   1.142
66015SOL    HW299878  12.770   8.973   1.202
66016SOL     OW99879  14.599   4.355  13.936
66016SOL    HW199880  14.599   4.277  13.882
66016SOL    HW299881  14.650   4.419  13.886
66017SOL     OW99882   9.957   1.034   0.673
66017SOL    HW199883   9.991   0.956   0.628
66017SOL    HW299884   9.873   1.050   0.632
66018SOL     OW99885   6.303  10.739  10.295
66018SOL    HW199886   6.252  10.718  10.217
66018SOL    HW299887   6.296  10.662  10.351
66019SOL     OW99888   3.724   6.722   7.710
66019SOL    HW199889   3.766   6.636   7.714
66019SOL    HW299890   3.732   6.748   7.618
66020SOL     OW99891  11.812   1.736   8.574
66020SOL    HW199892  11.839   1.811   8.627
66020SOL    HW299893  11.742   1.771   8.518
66021SOL     OW99894   7.400   4.097   5.887
66021SOL    HW199895   7.440   4.021   5.845
66021SOL    HW299896   7.383   4.069   5.977
66022SOL     OW99897   1.746  10.195   7.245
66022SOL    HW199898   1.782  10.221   7.161
66022SOL    HW299899   1.684  10.125   7.224
66023SOL     OW99900   8.444   3.277   8.227
66023SOL    HW199901   8.371   3.303   8.171
66023SOL    HW299902   8.436   3.182   8.235
66024SOL     OW99903   1.990   1.361   4.485
66024SOL    HW199904   2.080   1.394   4.488
66024SOL    HW299905   1.968   1.346   4.577
66025SOL     OW99906  10.916   2.551   9.810
66025SOL    HW199907  10.887   2.619   9.749
66025SOL    HW299908  11.005   2.529   9.781
66026SOL     OW99909   4.519   7.008  10.152
66026SOL    HW199910   4.499   7.078  10.214
66026SOL    HW299911   4.448   7.012  10.088
66027SOL     OW99912   6.462   2.651   3.385
66027SOL    HW199913   6.545   2.683   3.419
66027SOL    HW299914   6.477   2.558   3.367
66028SOL     OW99915  11.280  14.114  11.823
66028SOL    HW199916  11.360  14.161  11.800
66028SOL    HW299917  11.209  14.175  11.804
66029SOL     OW99918  11.950   1.584   6.704
66029SOL    HW199919  11.922   1.576   6.613
66029SOL    HW299920  11.877   1.625   6.749
66030SOL     OW99921   9.909   8.764   5.072
66030SOL    HW199922   9.926   8.674   5.045
66030SOL    HW299923   9.935   8.818   4.998
66031SOL     OW99924   6.798  10.150   5.175
66031SOL    HW199925   6.884  10.139   5.134
66031SOL    HW299926   6.815  10.143   5.269
66032SOL     OW99927  12.811   0.989  12.705
66032SOL    HW199928  12.731   0.940  12.723
66032SOL    HW299929  12.808   1.006  12.611
66033SOL     OW99930   9.291   9.414   7.872
66033SOL    HW199931   9.318   9.498   7.909
66033SOL    HW299932   9.276   9.358   7.948
66034SOL     OW99933   8.906  10.000   0.845
66034SOL    HW199934   8.816   9.991   0.877
66034SOL    HW299935   8.953   9.929   0.887
66035SOL     OW99936   3.775  10.086  10.018
66035SOL    HW199937   3.865  10.052  10.021
66035SOL    HW299938   3.770  10.145  10.093
66036SOL     OW99939   4.011   5.166   8.946
66036SOL    HW199940   3.925   5.197   8.916
66036SOL    HW299941   4.073   5.228   8.909
66037SOL     OW99942   4.735   0.784   0.902
66037SOL    HW199943   4.652   0.803   0.858
66037SOL    HW299944   4.750   0.691   0.885
66038SOL     OW99945   1.304   6.653   9.184
66038SOL    HW199946   1.272   6.572   9.224
66038SOL    HW299947   1.226   6.698   9.152
66039SOL     OW99948  10.737  13.929  11.960
66039SOL    HW199949  10.674  13.956  11.894
66039SOL    HW299950  10.805  13.881  11.912
66040SOL     OW99951  12.055   5.061   7.189
66040SOL    HW199952  12.044   5.135   7.248
66040SOL    HW299953  11.972   5.056   7.141
66041SOL     OW99954  10.355   8.247   2.121
66041SOL    HW199955  10.440   8.239   2.078
66041SOL    HW299956  10.361   8.328   2.171
66042SOL     OW99957   2.336  13.112   9.833
66042SOL    HW199958   2.306  13.024   9.809
66042SOL    HW299959   2.429  13.112   9.810
66043SOL     OW99960  13.723  12.890   2.291
66043SOL    HW199961  13.664  12.831   2.243
66043SOL    HW299962  13.805  12.841   2.298
66044SOL     OW99963   4.500   7.616  10.699
66044SOL    HW199964   4.577   7.671  10.714
66044SOL    HW299965   4.503   7.550  10.768
66045SOL     OW99966   2.413   5.489   9.500
66045SOL    HW199967   2.472   5.444   9.560
66045SOL    HW299968   2.395   5.424   9.431
66046SOL     OW99969  10.766   6.602   4.013
66046SOL    HW199970  10.846   6.553   4.028
66046SOL    HW299971  10.765   6.668   4.082
66047SOL     OW99972   3.920   4.503   6.205
66047SOL    HW199973   3.928   4.498   6.300
66047SOL    HW299974   3.875   4.422   6.180
66048SOL     OW99975   1.738  12.154   8.550
66048SOL    HW199976   1.730  12.113   8.464
66048SOL    HW299977   1.788  12.091   8.602
66049SOL     OW99978   6.387   1.132   6.511
66049SOL    HW199979   6.413   1.046   6.479
66049SOL    HW299980   6.404   1.191   6.437
66050SOL     OW99981  11.466   8.509   7.520
66050SOL    HW199982  11.393   8.518   7.459
66050SOL    HW299983  11.462   8.588   7.574
66051SOL     OW99984   1.632   4.070  12.946
66051SOL    HW199985   1.648   4.164  12.953
66051SOL    HW299986   1.561   4.063  12.881
66052SOL     OW99987   6.288   5.657  13.348
66052SOL    HW199988   6.280   5.636  13.441
66052SOL    HW299989   6.210   5.710  13.328
66053SOL     OW99990   8.703   3.869   0.482
66053SOL    HW199991   8.797   3.888   0.482
66053SOL    HW299992   8.689   3.813   0.406
66054SOL     OW99993   5.207  12.539   9.120
66054SOL    HW199994   5.246  12.623   9.145
66054SOL    HW299995   5.259  12.474   9.168
66055SOL     OW99996  14.292  14.627   3.881
66055SOL    HW199997  14.297  14.549   3.825
66055SOL    HW299998  14.364  14.682   3.852
66056SOL     OW99999  14.654   6.326  12.539
66056SOL    HW1    0  14.602   6.375  12.475
66056SOL    HW2    1  14.725   6.287  12.488
66057SOL     OW    2  11.210   3.847   9.391
66057SOL    HW1    3  11.222   3.846   9.296
66057SOL    HW2    4  11.284   3.797   9.425
66058SOL     OW    5  14.804   3.654   4.540
66058SOL    HW1    6  14.830   3.713   4.469
66058SOL    HW2    7  14.723   3.614   4.510
66059SOL     OW    8   7.919  11.968   6.175
66059SOL    HW1    9   7.914  11.934   6.086
66059SOL    HW2   10   7.952  12.058   6.165
66060SOL     OW   11  14.336   5.267   7.079
66060SOL    HW1   12  14.262   5.306   7.034
66060SOL    HW2   13  14.407   5.330   7.069
66061SOL     OW   14  13.243  11.433   0.536
66061SOL    HW1   15  13.248  11.507   0.597
66061SOL    HW2   16  13.164  11.449   0.485
66062SOL     OW   17   4.829  10.341  12.965
66062SOL    HW1   18   4.860  10.311  13.051
66062SOL    HW2   19   4.737  10.315  12.963
66063SOL     OW   20  10.692   4.143   7.857
66063SOL    HW1   21  10.642   4.215   7.819
66063SOL    HW2   22  10.675   4.068   7.800
66064SOL     OW   23   8.165   2.338   8.758
66064SOL    HW1   24   8.179   2.273   8.826
66064SOL    HW2   25   8.095   2.302   8.703
66065SOL     OW   26  12.576   5.896   4.211
66065SOL    HW1   27  12.588   5.983   4.249
66065SOL    HW2   28  12.625   5.898   4.129
66066SOL     OW   29   1.825   8.045  12.198
66066SOL    HW1   30   1.890   8.115  12.193
66066SOL    HW2   31   1.757   8.070  12.135
66067SOL     OW   32   4.881   7.662   0.325
66067SOL    HW1   33   4.941   7.717   0.375
66067SOL    HW2   34   4.933   7.631   0.251
66068SOL     OW   35   9.445   1.699  11.400
66068SOL    HW1   36   9.506   1.729  11.332
66068SOL    HW2   37   9.419   1.612  11.371
66069SOL     OW   38   4.781   7.178   2.441
66069SOL    HW1   39   4.867   7.154   2.406
66069SOL    HW2   40   4.800   7.207   2.531
66070SOL     OW   41   7.417   2.383  12.812
66070SOL    HW1   42   7.446   2.474  12.804
66070SOL    HW2   43   7.473   2.347  12.881
66071SOL     OW   44   4.990   4.067   3.203
66071SOL    HW1   45   5.068   4.117   3.223
66071SOL    HW2   46   4.939   4.125   3.145
66072SOL     OW   47   1.760   0.084   0.529
66072SOL    HW1   48   1.855   0.084   0.521
66072SOL    HW2   49   1.729   0.043   0.448
66073SOL     OW   50   6.844  13.671   8.073
66073SOL    HW1   51   6.889  13.727   8.009
66073SOL    HW2   52   6.862  13.712   8.158
66074SOL     OW   53  14.179  13.712   8.388
66074SOL    HW1   54  14.245  13.654   8.425
66074SOL    HW2   55  14.218  13.799   8.391
66075SOL     OW   56   5.305  14.579  12.434
66075SOL    HW1   57   5.367  14.651  12.425
66075SOL    HW2   58   5.226  14.611  12.390
66076SOL     OW   59   5.939   2.246  10.811
66076SOL    HW1   60   6.030   2.268  10.831
66076SOL    HW2   61   5.944   2.170  10.753
66077SOL     OW   62   2.756   7.343  12.390
66077SOL    HW1   63   2.687   7.299  12.339
66077SOL    HW2   64   2.766   7.428  12.348
66078SOL     OW   65   0.477   8.368   4.782
66078SOL    HW1   66   0.383   8.352   4.776
66078SOL    HW2   67   0.498   8.413   4.700
66079SOL     OW   68   4.827   3.319   7.896
66079SOL    HW1   69   4.908   3.291   7.852
66079SOL    HW2   70   4.841   3.411   7.918
66080SOL     OW   71   3.790   5.010   9.466
66080SOL    HW1   72   3.733   4.960   9.409
66080SOL    HW2   73   3.754   4.997   9.554
66081SOL     OW   74  11.011  11.330  14.647
66081SOL    HW1   75  11.058  11.294  14.722
66081SOL    HW2   76  10.988  11.254  14.594
66082SOL     OW   77   3.934  11.318   1.107
66082SOL    HW1   78   3.890  11.298   1.190
66082SOL    HW2   79   3.865  11.311   1.042
66083SOL     OW   80   7.777  10.523  10.051
66083SOL    HW1   81   7.816  10.495   9.968
66083SOL    HW2   82   7.686  10.496  10.046
66084SOL     OW   83   1.914  12.610   7.727
66084SOL    HW1   84   1.891  12.615   7.634
66084SOL    HW2   85   2.009  12.621   7.729
66085SOL     OW   86  12.407   5.657   7.974
66085SOL    HW1   87  12.348   5.600   7.925
66085SOL    HW2   88  12.381   5.746   7.950
66086SOL     OW   89   3.038   1.601   8.576
66086SOL    HW1   90   3.046   1.506   8.575
66086SOL    HW2   91   3.003   1.622   8.490
66087SOL     OW   92   7.550   6.820   5.973
66087SOL    HW1   93   7.628   6.771   5.996
66087SOL    HW2   94   7.567   6.852   5.884
66088SOL     OW   95  11.090  10.662  14.519
66088SOL    HW1   96  11.003  10.701  14.522
66088SOL    HW2   97  11.074  10.568  14.506
66089SOL     OW   98  12.605   6.779   0.247
66089SOL    HW1   99  12.577   6.852   0.193
66089SOL    HW2  100  12.553   6.704   0.217
66090SOL     OW  101   7.951  14.515   0.988
66090SOL    HW1  102   7.907  14.467   0.918
66090SOL    HW2  103   7.954  14.605   0.957
66091SOL     OW  104   9.762   6.912   2.586
66091SOL    HW1  105   9.854   6.888   2.589
66091SOL    HW2  106   9.724   6.853   2.520
66092SOL     OW  107  12.547   2.274   8.340
66092SOL    HW1  108  12.460   2.233   8.338
66092SOL    HW2  109  12.531   2.364   8.312
66093SOL     OW  110   5.550  14.575  10.266
66093SOL    HW1  111   5.572  14.638  10.198
66093SOL    HW2  112   5.577  14.617  10.348
66094SOL     OW  113  14.635   0.315   3.629
66094SOL    HW1  114  14.642   0.405   3.597
66094SOL    HW2  115  14.700   0.266   3.578
66095SOL     OW  116  13.044  14.823  11.057
66095SOL    HW1  117  13.094  14.831  11.139
66095SOL    HW2  118  12.997   0.024  11.049
66096SOL     OW  119  11.315  14.522   3.473
66096SOL    HW1  120  11.255  14.501   3.401
66096SOL    HW2  121  11.259  14.529   3.550
66097SOL     OW  122   4.403  11.686  13.919
66097SOL    HW1  123   4.496  11.676  13.939
66097SOL    HW2  124   4.365  11.599  13.935
66098SOL     OW  125  12.524   0.392   1.045
66098SOL    HW1  126  12.467   0.425   1.115
66098SOL    HW2  127  12.505   0.448   0.970
66099SOL     OW  128  14.761  12.333  13.218
66099SOL    HW1  129  14.856  12.327  13.212
66099SOL    HW2  130  14.729  12.264  13.159
66100SOL     OW  131  13.198   8.421   6.460
66100SOL    HW1  132  13.160   8.485   6.400
66100SOL    HW2  133  13.160   8.337   6.433
66101SOL     OW  134  14.122   0.391   0.103
66101SOL    HW1  135  14.187   0.322   0.117
66101SOL    HW2  136  14.044   0.361   0.149
66102SOL     OW  137   9.877   9.944  14.757
66102SOL    HW1  138   9.850  10.035  14.770
66102SOL    HW2  139   9.795   9.895  14.757
66103SOL     OW  140   5.529   0.189   2.074
66103SOL    HW1  141   5.454   0.143   2.110
66103SOL    HW2  142   5.595   0.187   2.143
66104SOL     OW  143   5.066  13.095   5.081
66104SOL    HW1  144   5.154  13.061   5.100
66104SOL    HW2  145   5.019  13.087   5.164
66105SOL     OW  146  14.444  13.625   1.219
66105SOL    HW1  147  14.532  13.658   1.240
66105SOL    HW2  148  14.453  13.530   1.223
66106SOL     OW  149   9.874   0.977  10.003
66106SOL    HW1  150   9.825   0.895   9.991
66106SOL    HW2  151   9.830   1.040   9.945
66107SOL     OW  152   8.460   1.679   8.796
66107SOL    HW1  153   8.467   1.701   8.703
66107SOL    HW2  154   8.413   1.753   8.834
66108SOL     OW  155   1.545   8.675  11.853
66108SOL    HW1  156   1.482   8.740  11.883
66108SOL    HW2  157   1.494   8.617  11.796
66109SOL     OW  158  13.688   0.640   0.146
66109SOL    HW1  159  13.658   0.724   0.110
66109SOL    HW2  160  13.643   0.632   0.229
66110SOL     OW  161   3.356  11.769   7.530
66110SOL    HW1  162   3.304  11.819   7.468
66110SOL    HW2  163   3.318  11.681   7.527
66111SOL     OW  164  11.727   0.480   1.121
66111SOL    HW1  165  11.810   0.466   1.164
66111SOL    HW2  166  11.750   0.517   1.035
66112SOL     OW  167   3.512  12.890   4.922
66112SOL    HW1  168   3.500  12.797   4.939
66112SOL    HW2  169   3.497  12.933   5.006
66113SOL     OW  170   4.471  10.049   0.032
66113SOL    HW1  171   4.420  10.063   0.112
66113SOL    HW2  172   4.423   9.982  14.866
66114SOL     OW  173  13.570   8.355   0.787
66114SOL    HW1  174  13.524   8.389   0.710
66114SOL    HW2  175  13.502   8.345   0.854
66115SOL     OW  176   3.976   8.228   4.769
66115SOL    HW1  177   3.907   8.162   4.780
66115SOL    HW2  178   4.054   8.186   4.805
66116SOL     OW  179   7.369   7.186  12.137
66116SOL    HW1  180   7.401   7.106  12.179
66116SOL    HW2  181   7.386   7.256  12.201
66117SOL     OW  182   8.748   6.817   2.034
66117SOL    HW1  183   8.790   6.854   2.112
66117SOL    HW2  184   8.819   6.771   1.988
66118SOL     OW  185  14.402   5.260   1.475
66118SOL    HW1  186  14.409   5.293   1.385
66118SOL    HW2  187  14.308   5.246   1.488
66119SOL     OW  188  14.153   6.053   2.668
66119SOL    HW1  189  14.068   6.030   2.705
66119SOL    HW2  190  14.134   6.077   2.577
66120SOL     OW  191   0.022   9.424   9.884
66120SOL    HW1  192   0.061   9.400   9.968
66120SOL    HW2  193  14.843   9.353   9.864
66121SOL     OW  194  10.424   6.292   3.447
66121SOL    HW1  195  10.354   6.239   3.486
66121SOL    HW2  196  10.450   6.352   3.518
66122SOL     OW  197   9.224   7.149   5.788
66122SOL    HW1  198   9.178   7.112   5.863
66122SOL    HW2  199   9.314   7.159   5.818
66123SOL     OW  200   1.053   7.673  13.387
66123SOL    HW1  201   1.032   7.723  13.466
66123SOL    HW2  202   0.969   7.655  13.346
66124SOL     OW  203   1.066   9.156   8.789
66124SOL    HW1  204   1.073   9.061   8.805
66124SOL    HW2  205   1.073   9.164   8.694
66125SOL     OW  206   8.143  11.843   4.661
66125SOL    HW1  207   8.065  11.796   4.631
66125SOL    HW2  208   8.170  11.894   4.585
66126SOL     OW  209  13.570   0.931   3.393
66126SOL    HW1  210  13.541   0.896   3.477
66126SOL    HW2  211  13.531   1.019   3.388
66127SOL     OW  212  10.458   5.536   1.625
66127SOL    HW1  213  10.418   5.614   1.586
66127SOL    HW2  214  10.538   5.567   1.665
66128SOL     OW  215   5.367   6.340  12.600
66128SOL    HW1  216   5.419   6.392  12.662
66128SOL    HW2  217   5.421   6.337  12.521
66129SOL     OW  218  10.239   7.350   6.159
66129SOL    HW1  219  10.192   7.279   6.203
66129SOL    HW2  220  10.289   7.306   6.090
66130SOL     OW  221   8.365   4.724  11.937
66130SOL    HW1  222   8.369   4.661  12.009
66130SOL    HW2  223   8.387   4.808  11.978
66131SOL     OW  224   0.489   4.081   2.491
66131SOL    HW1  225   0.492   4.134   2.571
66131SOL    HW2  226   0.481   3.991   2.524
66132SOL     OW  227   0.135   2.193   6.013
66132SOL    HW1  228   0.072   2.186   6.084
66132SOL    HW2  229   0.124   2.282   5.980
66133SOL     OW  230   0.524   3.310  11.223
66133SOL    HW1  231   0.535   3.405  11.233
66133SOL    HW2  232   0.432   3.299  11.200
66134SOL     OW  233  10.311   2.541   7.869
66134SOL    HW1  234  10.371   2.576   7.803
66134SOL    HW2  235  10.367   2.520   7.944
66135SOL     OW  236   5.550  14.316   8.672
66135SOL    HW1  237   5.548  14.405   8.706
66135SOL    HW2  238   5.459  14.286   8.678
66136SOL     OW  239  12.098   9.533   9.289
66136SOL    HW1  240  12.061   9.587   9.358
66136SOL    HW2  241  12.023   9.504   9.237
66137SOL     OW  242   9.855  13.130  10.075
66137SOL    HW1  243   9.949  13.142  10.067
66137SOL    HW2  244   9.836  13.050  10.025
66138SOL     OW  245   7.927   3.646   4.721
66138SOL    HW1  246   7.863   3.578   4.702
66138SOL    HW2  247   7.917   3.663   4.814
66139SOL     OW  248  13.079  12.392   0.351
66139SOL    HW1  249  13.125  12.367   0.431
66139SOL    HW2  250  12.992  12.353   0.360
66140SOL     OW  251   1.611   7.045   3.430
66140SOL    HW1  252   1.671   7.086   3.367
66140SOL    HW2  253   1.650   6.959   3.447
66141SOL     OW  254  13.245  12.371  13.080
66141SOL    HW1  255  13.160  12.328  13.079
66141SOL    HW2  256  13.305  12.304  13.114
66142SOL     OW  257   9.979   7.912  11.701
66142SOL    HW1  258  10.051   7.882  11.645
66142SOL    HW2  259   9.900   7.892  11.652
66143SOL     OW  260   4.184   5.269   4.591
66143SOL    HW1  261   4.131   5.254   4.513
66143SOL    HW2  262   4.140   5.339   4.639
66144SOL     OW  263   8.487   6.108  10.336
66144SOL    HW1  264   8.500   6.163  10.413
66144SOL    HW2  265   8.543   6.032  10.351
66145SOL     OW  266  11.416  10.534   3.462
66145SOL    HW1  267  11.497  10.580   3.484
66145SOL    HW2  268  11.444  10.461   3.408
66146SOL     OW  269   2.437   6.219  10.372
66146SOL    HW1  270   2.510   6.169  10.336
66146SOL    HW2  271   2.362   6.160  10.368
66147SOL     OW  272   3.563   4.279   5.595
66147SOL    HW1  273   3.519   4.303   5.676
66147SOL    HW2  274   3.493   4.249   5.537
66148SOL     OW  275   2.544   5.647   0.378
66148SOL    HW1  276   2.574   5.610   0.461
66148SOL    HW2  277   2.599   5.724   0.365
66149SOL     OW  278  12.606   3.593   8.091
66149SOL    HW1  279  12.562   3.677   8.097
66149SOL    HW2  280  12.623   3.581   7.997
66150SOL     OW  281   8.713   9.920   6.448
66150SOL    HW1  282   8.737   9.901   6.357
66150SOL    HW2  283   8.788   9.968   6.483
66151SOL     OW  284   1.195   7.731   8.281
66151SOL    HW1  285   1.268   7.669   8.270
66151SOL    HW2  286   1.123   7.677   8.314
66152SOL     OW  287   2.052   5.889   3.446
66152SOL    HW1  288   2.143   5.912   3.429
66152SOL    HW2  289   2.005   5.972   3.441
66153SOL     OW  290  13.379   7.672  13.181
66153SOL    HW1  291  13.340   7.671  13.094
66153SOL    HW2  292  13.462   7.626  13.171
66154SOL     OW  293  11.781  13.189  11.441
66154SOL    HW1  294  11.780  13.282  11.464
66154SOL    HW2  295  11.840  13.149  11.504
66155SOL     OW  296  14.194   9.215  10.678
66155SOL    HW1  297  14.169   9.150  10.744
66155SOL    HW2  298  14.178   9.300  10.720
66156SOL     OW  299  10.981   2.471   4.686
66156SOL    HW1  300  11.073   2.449   4.690
66156SOL    HW2  301  10.973   2.526   4.608
66157SOL     OW  302  14.119  10.708   2.514
66157SOL    HW1  303  14.212  10.718   2.495
66157SOL    HW2  304  14.075  10.768   2.454
66158SOL     OW  305   2.172   6.808  12.275
66158SOL    HW1  306   2.214   6.890  12.247
66158SOL    HW2  307   2.180   6.810  12.370
66159SOL     OW  308  12.738   1.986   1.851
66159SOL    HW1  309  12.804   1.940   1.904
66159SOL    HW2  310  12.776   2.072   1.835
66160SOL     OW  311   9.057  13.286   9.019
66160SOL    HW1  312   9.134  13.322   8.975
66160SOL    HW2  313   9.069  13.191   9.014
66161SOL     OW  314  11.563   5.455   1.338
66161SOL    HW1  315  11.573   5.503   1.256
66161SOL    HW2  316  11.472   5.471   1.365
66162SOL     OW  317   3.519   8.037   2.435
66162SOL    HW1  318   3.510   8.086   2.354
66162SOL    HW2  319   3.491   7.948   2.414
66163SOL     OW  320   4.888   2.974   7.394
66163SOL    HW1  321   4.888   3.067   7.370
66163SOL    HW2  322   4.816   2.965   7.456
66164SOL     OW  323  12.377  11.057   3.157
66164SOL    HW1  324  12.297  11.109   3.162
66164SOL    HW2  325  12.356  10.985   3.097
66165SOL     OW  326   2.066  14.387   0.139
66165SOL    HW1  327   1.989  14.412   0.088
66165SOL    HW2  328   2.102  14.470   0.170
66166SOL     OW  329   9.370  13.900  11.203
66166SOL    HW1  330   9.301  13.842  11.171
66166SOL    HW2  331   9.374  13.971  11.139
66167SOL     OW  332   5.997  10.418   2.603
66167SOL    HW1  333   5.989  10.380   2.690
66167SOL    HW2  334   6.004  10.343   2.544
66168SOL     OW  335   9.780  12.900   2.261
66168SOL    HW1  336   9.790  12.958   2.185
66168SOL    HW2  337   9.691  12.916   2.291
66169SOL     OW  338  12.574  12.172  13.121
66169SOL    HW1  339  12.497  12.130  13.159
66169SOL    HW2  340  12.540  12.249  13.077
66170SOL     OW  341   5.233   5.769   8.090
66170SOL    HW1  342   5.154   5.781   8.038
66170SOL    HW2  343   5.219   5.821   8.168
66171SOL     OW  344   1.122   2.103   4.133
66171SOL    HW1  345   1.186   2.175   4.137
66171SOL    HW2  346   1.105   2.080   4.224
66172SOL     OW  347   4.224   8.129   8.462
66172SOL    HW1  348   4.251   8.136   8.371
66172SOL    HW2  349   4.223   8.219   8.495
66173SOL     OW  350   0.916   6.835   6.357
66173SOL    HW1  351   1.002   6.793   6.353
66173SOL    HW2  352   0.875   6.813   6.273
66174SOL     OW  353   0.862   1.910   2.719
66174SOL    HW1  354   0.863   1.891   2.813
66174SOL    HW2  355   0.879   2.004   2.713
66175SOL     OW  356   8.416   7.889   1.411
66175SOL    HW1  357   8.464   7.815   1.449
66175SOL    HW2  358   8.473   7.965   1.426
66176SOL     OW  359   2.269   5.987   6.565
66176SOL    HW1  360   2.185   6.001   6.522
66176SOL    HW2  361   2.271   6.051   6.637
66177SOL     OW  362  14.240   4.651   8.595
66177SOL    HW1  363  14.307   4.603   8.643
66177SOL    HW2  364  14.200   4.708   8.659
66178SOL     OW  365   5.163   9.309   9.499
66178SOL    HW1  366   5.257   9.289   9.506
66178SOL    HW2  367   5.119   9.227   9.521
66179SOL     OW  368   0.376   2.489   8.568
66179SOL    HW1  369   0.385   2.584   8.576
66179SOL    HW2  370   0.431   2.453   8.638
66180SOL     OW  371   8.000   2.249  14.113
66180SOL    HW1  372   7.994   2.162  14.072
66180SOL    HW2  373   7.968   2.309  14.046
66181SOL     OW  374  14.122   6.917   4.557
66181SOL    HW1  375  14.146   6.935   4.466
66181SOL    HW2  376  14.131   7.002   4.601
66182SOL     OW  377  10.439   6.211   8.286
66182SOL    HW1  378  10.477   6.292   8.250
66182SOL    HW2  379  10.503   6.143   8.264
66183SOL     OW  380  13.173  13.503  10.465
66183SOL    HW1  381  13.254  13.461  10.495
66183SOL    HW2  382  13.108  13.481  10.532
66184SOL     OW  383   5.581   7.889   9.705
66184SOL    HW1  384   5.569   7.801   9.740
66184SOL    HW2  385   5.676   7.901   9.703
66185SOL     OW  386  11.531   3.746   9.999
66185SOL    HW1  387  11.590   3.816   9.970
66185SOL    HW2  388  11.560   3.669   9.950
66186SOL     OW  389   2.288  12.384  10.471
66186SOL    HW1  390   2.380  12.408  10.457
66186SOL    HW2  391   2.274  12.309  10.414
66187SOL     OW  392  12.778   3.218  13.185
66187SOL    HW1  393  12.818   3.302  13.207
66187SOL    HW2  394  12.828   3.187  13.110
66188SOL     OW  395   5.745   3.599   7.257
66188SOL    HW1  396   5.726   3.601   7.351
66188SOL    HW2  397   5.675   3.650   7.217
66189SOL     OW  398  11.597   4.080   3.476
66189SOL    HW1  399  11.537   4.104   3.546
66189SOL    HW2  400  11.588   3.985   3.467
66190SOL     OW  401   2.486  12.145   4.344
66190SOL    HW1  402   2.433  12.218   4.310
66190SOL    HW2  403   2.567  12.186   4.375
66191SOL     OW  404   2.301  12.655  12.066
66191SOL    HW1  405   2.249  12.586  12.026
66191SOL    HW2  406   2.363  12.609  12.123
66192SOL     OW  407   2.143   8.683   4.963
66192SOL    HW1  408   2.087   8.752   4.927
66192SOL    HW2  409   2.131   8.609   4.904
66193SOL     OW  410  11.772   8.415  12.729
66193SOL    HW1  411  11.693   8.361  12.731
66193SOL    HW2  412  11.740   8.504  12.740
66194SOL     OW  413   7.376   3.671   0.593
66194SOL    HW1  414   7.391   3.584   0.630
66194SOL    HW2  415   7.339   3.722   0.665
66195SOL     OW  416  11.914   1.548   3.691
66195SOL    HW1  417  11.938   1.457   3.676
66195SOL    HW2  418  11.820   1.545   3.709
66196SOL     OW  419   8.094   4.267   8.020
66196SOL    HW1  420   8.049   4.218   8.089
66196SOL    HW2  421   8.098   4.357   8.053
66197SOL     OW  422  14.116  14.679  11.709
66197SOL    HW1  423  14.158  14.726  11.780
66197SOL    HW2  424  14.134  14.731  11.631
66198SOL     OW  425  13.314  12.068  12.882
66198SOL    HW1  426  13.374  12.086  12.954
66198SOL    HW2  427  13.365  12.086  12.803
66199SOL     OW  428   1.256   6.818  12.397
66199SOL    HW1  429   1.341   6.830  12.439
66199SOL    HW2  430   1.276   6.766  12.319
66200SOL     OW  431   7.280   7.432   9.263
66200SOL    HW1  432   7.316   7.500   9.320
66200SOL    HW2  433   7.219   7.479   9.206
66201SOL     OW  434   7.240   5.435  13.918
66201SOL    HW1  435   7.329   5.417  13.888
66201SOL    HW2  436   7.230   5.384  13.999
66202SOL     OW  437  12.966  12.969   8.443
66202SOL    HW1  438  12.921  13.049   8.416
66202SOL    HW2  439  13.000  12.988   8.530
66203SOL     OW  440   3.126  11.030   9.063
66203SOL    HW1  441   3.205  11.071   9.028
66203SOL    HW2  442   3.058  11.049   8.999
66204SOL     OW  443  11.145   9.239   6.008
66204SOL    HW1  444  11.149   9.153   5.965
66204SOL    HW2  445  11.192   9.227   6.090
66205SOL     OW  446   8.312  13.375  11.492
66205SOL    HW1  447   8.397  13.340  11.465
66205SOL    HW2  448   8.250  13.341  11.427
66206SOL     OW  449   8.239  10.768   5.096
66206SOL    HW1  450   8.185  10.771   5.017
66206SOL    HW2  451   8.263  10.859   5.112
66207SOL     OW  452   0.336   1.761  14.498
66207SOL    HW1  453   0.415   1.787  14.545
66207SOL    HW2  454   0.295   1.843  14.471
66208SOL     OW  455   1.728  10.620  14.484
66208SOL    HW1  456   1.810  10.642  14.439
66208SOL    HW2  457   1.704  10.700  14.531
66209SOL     OW  458  10.937   8.962   6.879
66209SOL    HW1  459  11.018   8.997   6.916
66209SOL    HW2  460  10.948   8.867   6.881
66210SOL     OW  461  13.866  13.728   7.565
66210SOL    HW1  462  13.941  13.674   7.589
66210SOL    HW2  463  13.807  13.668   7.519
66211SOL     OW  464   9.321  10.859   7.094
66211SOL    HW1  465   9.281  10.946   7.098
66211SOL    HW2  466   9.414  10.876   7.078
66212SOL     OW  467  11.651   5.783   2.135
66212SOL    HW1  468  11.608   5.800   2.051
66212SOL    HW2  469  11.655   5.687   2.141
66213SOL     OW  470   0.156   6.417   7.089
66213SOL    HW1  471   0.133   6.348   7.027
66213SOL    HW2  472   0.073   6.456   7.114
66214SOL     OW  473   8.471  10.728  13.652
66214SOL    HW1  474   8.511  10.702  13.569
66214SOL    HW2  475   8.441  10.646  13.691
66215SOL     OW  476   4.894   8.897   8.345
66215SOL    HW1  477   4.916   8.969   8.286
66215SOL    HW2  478   4.853   8.940   8.420
66216SOL     OW  479  10.630   2.277   5.114
66216SOL    HW1  480  10.669   2.253   5.029
66216SOL    HW2  481  10.538   2.292   5.094
66217SOL     OW  482   6.455   1.725   5.604
66217SOL    HW1  483   6.456   1.670   5.682
66217SOL    HW2  484   6.377   1.697   5.556
66218SOL     OW  485   3.429  11.235   9.820
66218SOL    HW1  486   3.432  11.165   9.754
66218SOL    HW2  487   3.337  11.261   9.823
66219SOL     OW  488   2.272   4.772  10.783
66219SOL    HW1  489   2.242   4.863  10.775
66219SOL    HW2  490   2.287   4.744  10.693
66220SOL     OW  491   7.679   9.121   5.679
66220SOL    HW1  492   7.585   9.111   5.664
66220SOL    HW2  493   7.687   9.135   5.773
66221SOL     OW  494   1.911   7.102  11.356
66221SOL    HW1  495   1.913   7.191  11.389
66221SOL    HW2  496   1.960   7.051  11.421
66222SOL     OW  497   6.445   5.900  13.176
66222SOL    HW1  498   6.436   5.804  13.176
66222SOL    HW2  499   6.446   5.923  13.083
66223SOL     OW  500   5.692  10.577   6.851
66223SOL    HW1  501   5.747  10.616   6.783
66223SOL    HW2  502   5.654  10.652   6.897
66224SOL     OW  503   0.856  13.853  11.980
66224SOL    HW1  504   0.873  13.849  11.886
66224SOL    HW2  505   0.826  13.943  11.995
66225SOL     OW  506   3.833   9.834   6.058
66225SOL    HW1  507   3.906   9.798   6.008
66225SOL    HW2  508   3.849   9.805   6.148
66226SOL     OW  509   6.032   1.627   8.675
66226SOL    HW1  510   6.010   1.681   8.751
66226SOL    HW2  511   6.041   1.539   8.710
66227SOL     OW  512  10.331   0.967   2.579
66227SOL    HW1  513  10.360   1.042   2.632
66227SOL    HW2  514  10.275   0.917   2.638
66228SOL     OW  515   0.685  10.452   2.506
66228SOL    HW1  516   0.596  10.478   2.528
66228SOL    HW2  517   0.704  10.498   2.424
66229SOL     OW  518   8.692   2.705   6.158
66229SOL    HW1  519   8.756   2.634   6.158
66229SOL    HW2  520   8.662   2.711   6.067
66230SOL     OW  521   5.929   7.601  11.994
66230SOL    HW1  522   5.992   7.671  12.009
66230SOL    HW2  523   5.856   7.644  11.947
66231SOL     OW  524  10.683   6.972   7.256
66231SOL    HW1  525  10.732   6.896   7.285
66231SOL    HW2  526  10.657   6.951   7.166
66232SOL     OW  527   6.563  11.304   3.648
66232SOL    HW1  528   6.525  11.347   3.725
66232SOL    HW2  529   6.642  11.354   3.629
66233SOL     OW  530   4.114   5.747  14.271
66233SOL    HW1  531   4.032   5.712  14.237
66233SOL    HW2  532   4.178   5.678  14.255
66234SOL     OW  533   3.783   4.969  12.798
66234SOL    HW1  534   3.702   4.964  12.849
66234SOL    HW2  535   3.810   5.060  12.804
66235SOL     OW  536   2.344  10.174   9.344
66235SOL    HW1  537   2.309  10.188   9.256
66235SOL    HW2  538   2.433  10.211   9.341
66236SOL     OW  539   7.882   3.536  10.954
66236SOL    HW1  540   7.900   3.587  11.033
66236SOL    HW2  541   7.951   3.470  10.951
66237SOL     OW  542   5.909   5.927   9.150
66237SOL    HW1  543   5.843   5.906   9.215
66237SOL    HW2  544   5.860   5.948   9.071
66238SOL     OW  545  14.824   2.775   0.803
66238SOL    HW1  546  14.849   2.836   0.733
66238SOL    HW2  547  14.868   2.693   0.780
66239SOL     OW  548   6.808  13.816   4.723
66239SOL    HW1  549   6.750  13.870   4.778
66239SOL    HW2  550   6.865  13.772   4.785
66240SOL     OW  551  14.700   9.412   5.717
66240SOL    HW1  552  14.615   9.373   5.697
66240SOL    HW2  553  14.713   9.478   5.649
66241SOL     OW  554  12.745   5.696   3.705
66241SOL    HW1  555  12.744   5.754   3.629
66241SOL    HW2  556  12.710   5.613   3.673
66242SOL     OW  557   1.965  10.245   3.689
66242SOL    HW1  558   1.939  10.157   3.662
66242SOL    HW2  559   1.911  10.303   3.636
66243SOL     OW  560   3.979   5.302  12.557
66243SOL    HW1  561   3.935   5.384  12.532
66243SOL    HW2  562   4.072   5.321  12.544
66244SOL     OW  563  10.140   0.688   6.924
66244SOL    HW1  564  10.154   0.783   6.920
66244SOL    HW2  565  10.055   0.678   6.966
66245SOL     OW  566   0.457  14.175   8.765
66245SOL    HW1  567   0.429  14.234   8.695
66245SOL    HW2  568   0.532  14.218   8.805
66246SOL     OW  569   4.108   0.391  12.071
66246SOL    HW1  570   4.159   0.393  11.990
66246SOL    HW2  571   4.126   0.475  12.113
66247SOL     OW  572  10.674   1.067   1.606
66247SOL    HW1  573  10.672   1.096   1.515
66247SOL    HW2  574  10.716   1.138   1.653
66248SOL     OW  575   8.867   9.822  10.270
66248SOL    HW1  576   8.778   9.846  10.246
66248SOL    HW2  577   8.921   9.852  10.197
66249SOL     OW  578   0.962   6.256  10.090
66249SOL    HW1  579   1.042   6.203  10.088
66249SOL    HW2  580   0.919   6.233  10.172
66250SOL     OW  581   7.206  12.700  10.262
66250SOL    HW1  582   7.224  12.759  10.189
66250SOL    HW2  583   7.226  12.612  10.228
66251SOL     OW  584   5.563  14.104   0.043
66251SOL    HW1  585   5.499  14.077   0.108
66251SOL    HW2  586   5.600  14.023   0.011
66252SOL     OW  587   1.002   0.979   7.708
66252SOL    HW1  588   0.930   0.995   7.769
66252SOL    HW2  589   1.034   1.066   7.684
66253SOL     OW  590  13.195   6.021   7.987
66253SOL    HW1  591  13.162   6.100   7.945
66253SOL    HW2  592  13.239   5.973   7.917
66254SOL     OW  593  11.063   9.260  10.941
66254SOL    HW1  594  10.993   9.293  10.998
66254SOL    HW2  595  11.138   9.247  10.999
66255SOL     OW  596  12.812   8.191   8.163
66255SOL    HW1  597  12.795   8.169   8.254
66255SOL    HW2  598  12.899   8.232   8.165
66256SOL     OW  599  10.211  11.308  13.065
66256SOL    HW1  600  10.276  11.271  13.125
66256SOL    HW2  601  10.259  11.374  13.015
66257SOL     OW  602   0.409   4.143   9.551
66257SOL    HW1  603   0.473   4.154   9.622
66257SOL    HW2  604   0.445   4.192   9.478
66258SOL     OW  605  13.008   8.219   2.095
66258SOL    HW1  606  12.935   8.244   2.151
66258SOL    HW2  607  13.066   8.295   2.096
66259SOL     OW  608   2.844   8.743  13.780
66259SOL    HW1  609   2.849   8.697  13.697
66259SOL    HW2  610   2.934   8.743  13.813
66260SOL     OW  611   7.425   6.903   0.320
66260SOL    HW1  612   7.474   6.838   0.270
66260SOL    HW2  613   7.334   6.873   0.314
66261SOL     OW  614   0.236  10.954   5.813
66261SOL    HW1  615   0.266  11.037   5.776
66261SOL    HW2  616   0.147  10.943   5.780
66262SOL     OW  617   9.849   3.985   9.110
66262SOL    HW1  618   9.860   4.029   9.026
66262SOL    HW2  619   9.859   3.892   9.090
66263SOL     OW  620   0.780   7.591   9.529
66263SOL    HW1  621   0.789   7.560   9.439
66263SOL    HW2  622   0.698   7.551   9.560
66264SOL     OW  623   5.528   9.470   4.927
66264SOL    HW1  624   5.594   9.467   4.996
66264SOL    HW2  625   5.458   9.526   4.962
66265SOL     OW  626   8.552  13.526   4.533
66265SOL    HW1  627   8.500  13.449   4.555
66265SOL    HW2  628   8.616  13.534   4.604
66266SOL     OW  629  12.342  12.053  13.220
66266SOL    HW1  630  12.251  12.080  13.227
66266SOL    HW2  631  12.344  11.990  13.148
66267SOL     OW  632   7.039  11.816  14.285
66267SOL    HW1  633   7.099  11.888  14.305
66267SOL    HW2  634   7.094  11.738  14.288
66268SOL     OW  635  10.312  11.193   0.830
66268SOL    HW1  636  10.362  11.239   0.762
66268SOL    HW2  637  10.267  11.124   0.783
66269SOL     OW  638   3.282   3.450  14.642
66269SOL    HW1  639   3.291   3.424  14.734
66269SOL    HW2  640   3.328   3.382  14.593
66270SOL     OW  641  10.170   7.729   1.690
66270SOL    HW1  642  10.145   7.762   1.777
66270SOL    HW2  643  10.262   7.706   1.699
66271SOL     OW  644   3.913  11.857   9.610
66271SOL    HW1  645   4.001  11.862   9.647
66271SOL    HW2  646   3.866  11.796   9.667
66272SOL     OW  647   4.345   4.574   7.886
66272SOL    HW1  648   4.378   4.523   7.960
66272SOL    HW2  649   4.256   4.542   7.872
66273SOL     OW  650   0.208  12.821  11.523
66273SOL    HW1  651   0.283  12.870  11.555
66273SOL    HW2  652   0.137  12.885  11.520
66274SOL     OW  653  11.588  13.062  14.199
66274SOL    HW1  654  11.506  13.020  14.224
66274SOL    HW2  655  11.567  13.111  14.120
66275SOL     OW  656  10.190  12.425   6.313
66275SOL    HW1  657  10.277  12.459   6.334
66275SOL    HW2  658  10.183  12.437   6.218
66276SOL     OW  659   7.687  11.073  10.350
66276SOL    HW1  660   7.739  11.100  10.425
66276SOL    HW2  661   7.741  11.094  10.274
66277SOL     OW  662   6.266   3.612  12.599
66277SOL    HW1  663   6.302   3.531  12.565
66277SOL    HW2  664   6.196   3.635  12.538
66278SOL     OW  665  11.645   1.321   1.937
66278SOL    HW1  666  11.610   1.293   1.852
66278SOL    HW2  667  11.593   1.272   2.001
66279SOL     OW  668   0.245   1.586   8.568
66279SOL    HW1  669   0.297   1.601   8.489
66279SOL    HW2  670   0.155   1.581   8.536
66280SOL     OW  671   3.163   7.644   1.468
66280SOL    HW1  672   3.084   7.592   1.450
66280SOL    HW2  673   3.210   7.647   1.385
66281SOL     OW  674   5.773   5.263   6.746
66281SOL    HW1  675   5.817   5.341   6.781
66281SOL    HW2  676   5.845   5.204   6.723
66282SOL     OW  677  10.029   4.828  12.424
66282SOL    HW1  678  10.070   4.904  12.383
66282SOL    HW2  679  10.079   4.813  12.504
66283SOL     OW  680   5.008   7.873   2.095
66283SOL    HW1  681   4.986   7.880   2.002
66283SOL    HW2  682   4.965   7.948   2.135
66284SOL     OW  683   9.178   7.757   4.503
66284SOL    HW1  684   9.132   7.841   4.489
66284SOL    HW2  685   9.265   7.783   4.533
66285SOL     OW  686  12.160   9.429   3.042
66285SOL    HW1  687  12.144   9.454   3.133
66285SOL    HW2  688  12.148   9.510   2.993
66286SOL     OW  689   1.900  11.549  13.231
66286SOL    HW1  690   1.806  11.562  13.217
66286SOL    HW2  691   1.906  11.498  13.312
66287SOL     OW  692   3.720   7.151   6.555
66287SOL    HW1  693   3.660   7.078   6.540
66287SOL    HW2  694   3.744   7.181   6.467
66288SOL     OW  695   7.610   9.612   1.341
66288SOL    HW1  696   7.568   9.574   1.264
66288SOL    HW2  697   7.667   9.544   1.374
66289SOL     OW  698  11.967   4.462   4.234
66289SOL    HW1  699  12.025   4.535   4.258
66289SOL    HW2  700  11.929   4.434   4.316
66290SOL     OW  701   6.332   8.280  10.243
66290SOL    HW1  702   6.402   8.252  10.184
66290SOL    HW2  703   6.349   8.233  10.324
66291SOL     OW  704   7.688   3.608  12.578
66291SOL    HW1  705   7.617   3.558  12.618
66291SOL    HW2  706   7.694   3.688  12.631
66292SOL     OW  707   6.199   4.512   9.062
66292SOL    HW1  708   6.209   4.552   8.975
66292SOL    HW2  709   6.106   4.521   9.082
66293SOL     OW  710   5.512   9.140   8.496
66293SOL    HW1  711   5.490   9.073   8.432
66293SOL    HW2  712   5.463   9.115   8.574
66294SOL     OW  713   8.207  11.810   5.782
66294SOL    HW1  714   8.213  11.775   5.693
66294SOL    HW2  715   8.170  11.897   5.771
66295SOL     OW  716  14.762  13.890   0.411
66295SOL    HW1  717  14.803  13.829   0.472
66295SOL    HW2  718  14.668  13.873   0.420
66296SOL     OW  719   3.900   9.039  11.249
66296SOL    HW1  720   3.986   8.996  11.243
66296SOL    HW2  721   3.839   8.967  11.263
66297SOL     OW  722   7.469  13.123   9.340
66297SOL    HW1  723   7.449  13.029   9.345
66297SOL    HW2  724   7.521  13.132   9.260
66298SOL     OW  725   2.466  13.026  10.854
66298SOL    HW1  726   2.517  13.105  10.873
66298SOL    HW2  727   2.511  12.986  10.779
66299SOL     OW  728   5.134   6.216   9.202
66299SOL    HW1  729   5.193   6.141   9.201
66299SOL    HW2  730   5.048   6.179   9.220
66300SOL     OW  731   9.471  13.508   5.712
66300SOL    HW1  732   9.382  13.534   5.733
66300SOL    HW2  733   9.523  13.540   5.785
66301SOL     OW  734  12.736   5.186   4.238
66301SOL    HW1  735  12.743   5.279   4.218
66301SOL    HW2  736  12.703   5.146   4.158
66302SOL     OW  737   6.967   5.686   2.555
66302SOL    HW1  738   6.923   5.602   2.549
66302SOL    HW2  739   7.038   5.680   2.491
66303SOL     OW  740   2.831  14.733   7.493
66303SOL    HW1  741   2.893  14.724   7.421
66303SOL    HW2  742   2.848  14.820   7.528
66304SOL     OW  743   0.374   0.551   2.149
66304SOL    HW1  744   0.463   0.581   2.128
66304SOL    HW2  745   0.323   0.570   2.071
66305SOL     OW  746   7.616  11.683   2.380
66305SOL    HW1  747   7.593  11.744   2.311
66305SOL    HW2  748   7.534  11.664   2.424
66306SOL     OW  749   8.365  10.421   1.842
66306SOL    HW1  750   8.387  10.486   1.775
66306SOL    HW2  751   8.406  10.340   1.811
66307SOL     OW  752   3.954   2.891   6.218
66307SOL    HW1  753   3.989   2.928   6.136
66307SOL    HW2  754   3.895   2.959   6.251
66308SOL     OW  755  11.610   2.278  12.900
66308SOL    HW1  756  11.547   2.335  12.945
66308SOL    HW2  757  11.556   2.213  12.856
66309SOL     OW  758  13.891  12.897   0.101
66309SOL    HW1  759  13.806  12.940   0.089
66309SOL    HW2  760  13.942  12.960   0.153
66310SOL     OW  761   7.508   2.638  12.440
66310SOL    HW1  762   7.599   2.656  12.416
66310SOL    HW2  763   7.462   2.632  12.356
66311SOL     OW  764  10.301   8.754   5.462
66311SOL    HW1  765  10.278   8.684   5.524
66311SOL    HW2  766  10.303   8.833   5.515
66312SOL     OW  767  12.022  10.090   9.742
66312SOL    HW1  768  11.930  10.117   9.744
66312SOL    HW2  769  12.021  10.007   9.694
66313SOL     OW  770   3.550   4.810   7.157
66313SOL    HW1  771   3.520   4.755   7.084
66313SOL    HW2  772   3.601   4.879   7.115
66314SOL     OW  773   9.854   2.124  12.740
66314SOL    HW1  774   9.842   2.219  12.739
66314SOL    HW2  775   9.835   2.099  12.831
66315SOL     OW  776   6.258  10.833   1.672
66315SOL    HW1  777   6.246  10.866   1.583
66315SOL    HW2  778   6.170  10.812   1.703
66316SOL     OW  779   3.120   1.057   5.183
66316SOL    HW1  780   3.043   1.000   5.185
66316SOL    HW2  781   3.160   1.041   5.097
66317SOL     OW  782   4.274  13.212  14.120
66317SOL    HW1  783   4.312  13.298  14.102
66317SOL    HW2  784   4.265  13.209  14.215
66318SOL     OW  785   6.649   4.829  13.321
66318SOL    HW1  786   6.626   4.769  13.392
66318SOL    HW2  787   6.596   4.801  13.247
66319SOL     OW  788   5.566   3.494   4.672
66319SOL    HW1  789   5.624   3.560   4.711
66319SOL    HW2  790   5.616   3.413   4.675
66320SOL     OW  791  11.503  12.662   1.221
66320SOL    HW1  792  11.530  12.605   1.148
66320SOL    HW2  793  11.578  12.720   1.235
66321SOL     OW  794  12.605   6.218   2.156
66321SOL    HW1  795  12.700   6.213   2.149
66321SOL    HW2  796  12.584   6.309   2.134
66322SOL     OW  797   3.474   6.639  11.020
66322SOL    HW1  798   3.448   6.626  10.928
66322SOL    HW2  799   3.431   6.567  11.067
66323SOL     OW  800   1.927  13.127  13.583
66323SOL    HW1  801   1.983  13.054  13.560
66323SOL    HW2  802   1.969  13.204  13.544
66324SOL     OW  803  14.521   6.108   8.445
66324SOL    HW1  804  14.594   6.157   8.407
66324SOL    HW2  805  14.556   6.020   8.459
66325SOL     OW  806   9.992   3.752   0.384
66325SOL    HW1  807  10.027   3.800   0.459
66325SOL    HW2  808   9.898   3.745   0.402
66326SOL     OW  809   6.725   7.188   4.010
66326SOL    HW1  810   6.720   7.093   4.004
66326SOL    HW2  811   6.705   7.208   4.101
66327SOL     OW  812  11.132   9.648   1.690
66327SOL    HW1  813  11.121   9.713   1.759
66327SOL    HW2  814  11.176   9.574   1.732
66328SOL     OW  815   5.256   2.916  14.114
66328SOL    HW1  816   5.262   2.998  14.162
66328SOL    HW2  817   5.342   2.875  14.124
66329SOL     OW  818   5.396   8.142   4.948
66329SOL    HW1  819   5.379   8.236   4.941
66329SOL    HW2  820   5.327   8.101   4.896
66330SOL     OW  821   0.886   2.392  12.781
66330SOL    HW1  822   0.864   2.444  12.703
66330SOL    HW2  823   0.865   2.302  12.756
66331SOL     OW  824   9.422  14.299  14.606
66331SOL    HW1  825   9.426  14.203  14.607
66331SOL    HW2  826   9.486  14.326  14.671
66332SOL     OW  827   2.871   0.655   0.694
66332SOL    HW1  828   2.896   0.608   0.614
66332SOL    HW2  829   2.834   0.587   0.751
66333SOL     OW  830   5.991   7.741  13.921
66333SOL    HW1  831   5.903   7.777  13.910
66333SOL    HW2  832   5.980   7.670  13.985
66334SOL     OW  833   7.666   5.545  14.725
66334SOL    HW1  834   7.739   5.525  14.785
66334SOL    HW2  835   7.706   5.544  14.638
66335SOL     OW  836  13.215  13.777   1.404
66335SOL    HW1  837  13.220  13.802   1.497
66335SOL    HW2  838  13.306  13.762   1.379
66336SOL     OW  839   2.861   0.055   1.044
66336SOL    HW1  840   2.900   0.134   1.006
66336SOL    HW2  841   2.799   0.088   1.108
66337SOL     OW  842  12.301   5.142  13.368
66337SOL    HW1  843  12.245   5.204  13.416
66337SOL    HW2  844  12.241   5.096  13.309
66338SOL     OW  845  14.460   1.898   4.506
66338SOL    HW1  846  14.432   1.897   4.597
66338SOL    HW2  847  14.401   1.836   4.462
66339SOL     OW  848   2.210  13.631  12.544
66339SOL    HW1  849   2.188  13.538  12.537
66339SOL    HW2  850   2.150  13.674  12.483
66340SOL     OW  851   4.842   0.178  13.397
66340SOL    HW1  852   4.821   0.109  13.461
66340SOL    HW2  853   4.934   0.164  13.377
66341SOL     OW  854   7.692   3.908  13.300
66341SOL    HW1  855   7.732   3.888  13.216
66341SOL    HW2  856   7.660   3.998  13.292
66342SOL     OW  857  11.320  11.211   2.067
66342SOL    HW1  858  11.365  11.249   2.143
66342SOL    HW2  859  11.362  11.252   1.992
66343SOL     OW  860   9.438   6.184  13.042
66343SOL    HW1  861   9.426   6.158  13.133
66343SOL    HW2  862   9.526   6.222  13.039
66344SOL     OW  863   9.225   9.475   3.639
66344SOL    HW1  864   9.205   9.563   3.672
66344SOL    HW2  865   9.160   9.419   3.681
66345SOL     OW  866   9.719   5.928   5.219
66345SOL    HW1  867   9.702   5.966   5.133
66345SOL    HW2  868   9.814   5.926   5.226
66346SOL     OW  869  14.680   5.196   3.749
66346SOL    HW1  870  14.703   5.257   3.820
66346SOL    HW2  871  14.584   5.203   3.744
66347SOL     OW  872   6.239   8.455   9.331
66347SOL    HW1  873   6.160   8.507   9.316
66347SOL    HW2  874   6.257   8.465   9.424
66348SOL     OW  875  12.802   3.036   2.622
66348SOL    HW1  876  12.830   3.122   2.590
66348SOL    HW2  877  12.754   3.055   2.703
66349SOL     OW  878   7.940  14.585  10.400
66349SOL    HW1  879   7.859  14.569  10.448
66349SOL    HW2  880   7.922  14.557  10.311
66350SOL     OW  881   7.083   1.889   5.083
66350SOL    HW1  882   6.988   1.878   5.077
66350SOL    HW2  883   7.118   1.802   5.063
66351SOL     OW  884   6.459   7.924   4.553
66351SOL    HW1  885   6.535   7.958   4.600
66351SOL    HW2  886   6.443   7.838   4.593
66352SOL     OW  887  13.776  13.777   5.207
66352SOL    HW1  888  13.803  13.848   5.149
66352SOL    HW2  889  13.734  13.714   5.149
66353SOL     OW  890  14.295   8.960   7.020
66353SOL    HW1  891  14.320   8.869   7.033
66353SOL    HW2  892  14.244   8.959   6.939
66354SOL     OW  893   8.998   3.978   3.049
66354SOL    HW1  894   9.092   3.991   3.059
66354SOL    HW2  895   8.962   3.993   3.137
66355SOL     OW  896   7.198   6.700  11.756
66355SOL    HW1  897   7.224   6.722  11.666
66355SOL    HW2  898   7.279   6.670  11.797
66356SOL     OW  899  13.273  13.550   8.393
66356SOL    HW1  900  13.200  13.497   8.426
66356SOL    HW2  901  13.268  13.631   8.444
66357SOL     OW  902  10.859   7.700   2.830
66357SOL    HW1  903  10.896   7.636   2.769
66357SOL    HW2  904  10.907   7.781   2.813
66358SOL     OW  905  11.911   1.592  12.648
66358SOL    HW1  906  11.910   1.528  12.719
66358SOL    HW2  907  11.955   1.547  12.575
66359SOL     OW  908  12.458  13.016   8.397
66359SOL    HW1  909  12.525  13.044   8.459
66359SOL    HW2  910  12.420  12.937   8.436
66360SOL     OW  911   3.253   3.420  10.964
66360SOL    HW1  912   3.255   3.513  10.942
66360SOL    HW2  913   3.338   3.403  11.006
66361SOL     OW  914   0.035   3.870   6.378
66361SOL    HW1  915  14.861   3.893   6.452
66361SOL    HW2  916   0.103   3.937   6.378
66362SOL     OW  917   3.181  14.621   3.154
66362SOL    HW1  918   3.146  14.532   3.157
66362SOL    HW2  919   3.166  14.650   3.064
66363SOL     OW  920   5.072  11.743   8.030
66363SOL    HW1  921   5.120  11.730   8.112
66363SOL    HW2  922   5.139  11.775   7.969
66364SOL     OW  923   7.884  10.331   4.779
66364SOL    HW1  924   7.921  10.398   4.837
66364SOL    HW2  925   7.824  10.281   4.835
66365SOL     OW  926  12.954   9.104   7.699
66365SOL    HW1  927  13.022   9.100   7.766
66365SOL    HW2  928  12.925   9.195   7.699
66366SOL     OW  929   3.519   1.184   1.804
66366SOL    HW1  930   3.471   1.263   1.831
66366SOL    HW2  931   3.471   1.153   1.727
66367SOL     OW  932   0.195   2.585   1.917
66367SOL    HW1  933   0.228   2.500   1.947
66367SOL    HW2  934   0.109   2.593   1.959
66368SOL     OW  935   5.333   6.637   3.375
66368SOL    HW1  936   5.312   6.684   3.294
66368SOL    HW2  937   5.257   6.650   3.431
66369SOL     OW  938   0.053   6.007   2.975
66369SOL    HW1  939   0.107   6.084   2.956
66369SOL    HW2  940   0.110   5.932   2.959
66370SOL     OW  941   4.133   4.554   9.334
66370SOL    HW1  942   4.055   4.527   9.382
66370SOL    HW2  943   4.134   4.650   9.340
66371SOL     OW  944  12.774   0.944   9.182
66371SOL    HW1  945  12.796   0.853   9.163
66371SOL    HW2  946  12.708   0.939   9.251
66372SOL     OW  947   6.875   1.376  12.050
66372SOL    HW1  948   6.942   1.375  11.981
66372SOL    HW2  949   6.820   1.452  12.030
66373SOL     OW  950  11.785   0.581   5.083
66373SOL    HW1  951  11.787   0.563   4.989
66373SOL    HW2  952  11.877   0.584   5.109
66374SOL     OW  953   7.815  10.529   4.001
66374SOL    HW1  954   7.864  10.447   4.012
66374SOL    HW2  955   7.730  10.501   3.968
66375SOL     OW  956  10.974   2.866   7.099
66375SOL    HW1  957  10.884   2.833   7.091
66375SOL    HW2  958  11.027   2.804   7.049
66376SOL     OW  959   7.203   3.141  10.837
66376SOL    HW1  960   7.146   3.167  10.909
66376SOL    HW2  961   7.248   3.222  10.812
66377SOL     OW  962   2.063   7.790   1.015
66377SOL    HW1  963   2.033   7.858   0.955
66377SOL    HW2  964   1.983   7.753   1.052
66378SOL     OW  965   7.893   1.405  13.654
66378SOL    HW1  966   7.854   1.324  13.623
66378SOL    HW2  967   7.908   1.457  13.575
66379SOL     OW  968   2.385  10.595   1.445
66379SOL    HW1  969   2.480  10.598   1.452
66379SOL    HW2  970   2.354  10.596   1.535
66380SOL     OW  971  10.830  13.899   3.253
66380SOL    HW1  972  10.798  13.989   3.249
66380SOL    HW2  973  10.848  13.877   3.161
66381SOL     OW  974   0.732   3.423   1.017
66381SOL    HW1  975   0.673   3.493   1.043
66381SOL    HW2  976   0.674   3.352   0.989
66382SOL     OW  977   0.158  13.055   3.119
66382SOL    HW1  978   0.235  13.001   3.139
66382SOL    HW2  979   0.156  13.120   3.189
66383SOL     OW  980  13.863  14.436   0.950
66383SOL    HW1  981  13.948  14.411   0.988
66383SOL    HW2  982  13.884  14.470   0.863
66384SOL     OW  983  12.428   9.245   6.728
66384SOL    HW1  984  12.492   9.293   6.780
66384SOL    HW2  985  12.362   9.310   6.705
66385SOL     OW  986   4.314   4.314   6.727
66385SOL    HW1  987   4.326   4.310   6.632
66385SOL    HW2  988   4.257   4.389   6.741
66386SOL     OW  989   2.096  14.275   8.107
66386SOL    HW1  990   2.045  14.334   8.163
66386SOL    HW2  991   2.065  14.188   8.129
66387SOL     OW  992   4.700   1.263  11.964
66387SOL    HW1  993   4.713   1.343  11.911
66387SOL    HW2  994   4.610   1.236  11.945
66388SOL     OW  995   2.485   7.428   8.273
66388SOL    HW1  996   2.413   7.399   8.329
66388SOL    HW2  997   2.539   7.350   8.260
66389SOL     OW  998   9.366   9.192   7.722
66389SOL    HW1  999   9.364   9.279   7.761
66389SOL    HW2 1000   9.428   9.143   7.777
66390SOL     OW 1001  11.974  14.535   8.717
66390SOL    HW1 1002  11.937  14.569   8.635
66390SOL    HW2 1003  12.041  14.473   8.689
66391SOL     OW 1004   1.972   6.070  13.331
66391SOL    HW1 1005   1.923   6.088  13.411
66391SOL    HW2 1006   1.929   6.124  13.264
66392SOL     OW 1007   6.353  12.976  10.967
66392SOL    HW1 1008   6.350  13.046  11.032
66392SOL    HW2 1009   6.282  12.916  10.993
66393SOL     OW 1010   6.569   5.464   3.577
66393SOL    HW1 1011   6.647   5.444   3.629
66393SOL    HW2 1012   6.529   5.539   3.622
66394SOL     OW 1013  12.919   8.234   9.923
66394SOL    HW1 1014  12.825   8.215   9.919
66394SOL    HW2 1015  12.925   8.312   9.978
66395SOL     OW 1016   1.974   9.360   8.573
66395SOL    HW1 1017   1.962   9.439   8.520
66395SOL    HW2 1018   2.011   9.392   8.655
66396SOL     OW 1019   9.573   3.466   5.842
66396SOL    HW1 1020   9.577   3.550   5.886
66396SOL    HW2 1021   9.479   3.447   5.834
66397SOL     OW 1022   0.883   8.369  13.980
66397SOL    HW1 1023   0.801   8.333  14.013
66397SOL    HW2 1024   0.939   8.293  13.965
66398SOL     OW 1025   7.583   5.925  11.597
66398SOL    HW1 1026   7.500   5.888  11.627
66398SOL    HW2 1027   7.559   6.007  11.554
66399SOL     OW 1028   6.191  10.220  11.990
66399SOL    HW1 1029   6.175  10.309  12.021
66399SOL    HW2 1030   6.227  10.173  12.065
66400SOL     OW 1031   1.395  11.619   6.400
66400SOL    HW1 1032   1.352  11.691   6.446
66400SOL    HW2 1033   1.327  11.582   6.344
66401SOL     OW 1034   3.755   0.361  14.830
66401SOL    HW1 1035   3.752   0.329  14.740
66401SOL    HW2 1036   3.822   0.307  14.872
66402SOL     OW 1037   4.122   0.581  12.947
66402SOL    HW1 1038   4.068   0.633  12.888
66402SOL    HW2 1039   4.075   0.583  13.030
66403SOL     OW 1040  13.141   1.557  14.371
66403SOL    HW1 1041  13.186   1.505  14.306
66403SOL    HW2 1042  13.195   1.550  14.450
66404SOL     OW 1043   9.417   6.069  13.588
66404SOL    HW1 1044   9.511   6.058  13.570
66404SOL    HW2 1045   9.414   6.138  13.655
66405SOL     OW 1046   0.444   1.947   7.217
66405SOL    HW1 1047   0.462   1.887   7.289
66405SOL    HW2 1048   0.478   1.901   7.140
66406SOL     OW 1049  13.875  10.784   8.632
66406SOL    HW1 1050  13.812  10.801   8.702
66406SOL    HW2 1051  13.956  10.764   8.677
66407SOL     OW 1052  14.746   5.080   4.848
66407SOL    HW1 1053  14.832   5.067   4.807
66407SOL    HW2 1054  14.695   5.128   4.783
66408SOL     OW 1055  12.875  13.691  11.290
66408SOL    HW1 1056  12.786  13.661  11.307
66408SOL    HW2 1057  12.924  13.611  11.270
66409SOL     OW 1058   2.583   7.937  10.430
66409SOL    HW1 1059   2.533   7.915  10.352
66409SOL    HW2 1060   2.561   7.867  10.493
66410SOL     OW 1061  14.442   6.877   1.991
66410SOL    HW1 1062  14.453   6.972   1.992
66410SOL    HW2 1063  14.480   6.848   2.074
66411SOL     OW 1064   1.324   9.641   9.164
66411SOL    HW1 1065   1.302   9.575   9.230
66411SOL    HW2 1066   1.257   9.708   9.175
66412SOL     OW 1067   2.423  13.669   1.862
66412SOL    HW1 1068   2.430  13.716   1.946
66412SOL    HW2 1069   2.511  13.636   1.846
66413SOL     OW 1070   9.870   9.513  12.564
66413SOL    HW1 1071   9.943   9.533  12.622
66413SOL    HW2 1072   9.884   9.569  12.487
66414SOL     OW 1073   1.745   9.101   2.056
66414SOL    HW1 1074   1.779   9.152   2.130
66414SOL    HW2 1075   1.701   9.165   2.001
66415SOL     OW 1076   9.996   3.915  12.455
66415SOL    HW1 1077  10.005   4.006  12.483
66415SOL    HW2 1078  10.072   3.900  12.397
66416SOL     OW 1079   3.201   5.310   5.452
66416SOL    HW1 1080   3.285   5.300   5.408
66416SOL    HW2 1081   3.136   5.283   5.387
66417SOL     OW 1082   6.553   0.582   5.776
66417SOL    HW1 1083   6.503   0.613   5.700
66417SOL    HW2 1084   6.494   0.520   5.819
66418SOL     OW 1085   2.635   7.930   6.254
66418SOL    HW1 1086   2.581   8.009   6.265
66418SOL    HW2 1087   2.602   7.890   6.174
66419SOL     OW 1088   2.186   9.705   9.097
66419SOL    HW1 1089   2.168   9.658   9.179
66419SOL    HW2 1090   2.109   9.761   9.085
66420SOL     OW 1091   0.388   6.577   0.104
66420SOL    HW1 1092   0.385   6.493   0.059
66420SOL    HW2 1093   0.482   6.594   0.116
66421SOL     OW 1094  14.409  14.737   4.275
66421SOL    HW1 1095  14.459  14.795   4.218
66421SOL    HW2 1096  14.431  14.764   4.364
66422SOL     OW 1097  10.922   1.832   3.063
66422SOL    HW1 1098  10.992   1.768   3.077
66422SOL    HW2 1099  10.910   1.873   3.148
66423SOL     OW 1100   3.941   8.151  11.414
66423SOL    HW1 1101   4.028   8.192  11.411
66423SOL    HW2 1102   3.959   8.057  11.413
66424SOL     OW 1103  10.038   1.690   1.984
66424SOL    HW1 1104  10.060   1.776   2.020
66424SOL    HW2 1105   9.988   1.710   1.905
66425SOL     OW 1106   8.704  14.417  10.566
66425SOL    HW1 1107   8.637  14.461  10.514
66425SOL    HW2 1108   8.772  14.392  10.503
66426SOL     OW 1109  11.543   9.489   7.378
66426SOL    HW1 1110  11.595   9.427   7.327
66426SOL    HW2 1111  11.541   9.569   7.324
66427SOL     OW 1112   2.969  11.961   4.746
66427SOL    HW1 1113   2.926  12.011   4.677
66427SOL    HW2 1114   3.061  11.960   4.721
66428SOL     OW 1115  12.146   2.506   0.115
66428SOL    HW1 1116  12.154   2.479   0.206
66428SOL    HW2 1117  12.227   2.554   0.097
66429SOL     OW 1118   3.328   0.770   3.961
66429SOL    HW1 1119   3.422   0.769   3.978
66429SOL    HW2 1120   3.300   0.680   3.977
66430SOL     OW 1121   4.849   1.965  11.947
66430SOL    HW1 1122   4.887   2.052  11.954
66430SOL    HW2 1123   4.756   1.977  11.970
66431SOL     OW 1124  14.205  10.566   0.661
66431SOL    HW1 1125  14.288  10.519   0.662
66431SOL    HW2 1126  14.168  10.552   0.748
66432SOL     OW 1127   2.241   0.019   5.468
66432SOL    HW1 1128   2.330  14.880   5.441
66432SOL    HW2 1129   2.248   0.106   5.508
66433SOL     OW 1130   8.600   3.778   4.719
66433SOL    HW1 1131   8.547   3.715   4.768
66433SOL    HW2 1132   8.690   3.746   4.728
66434SOL     OW 1133   7.111  14.238   3.830
66434SOL    HW1 1134   7.205  14.253   3.826
66434SOL    HW2 1135   7.075  14.316   3.872
66435SOL     OW 1136   9.370   4.802  14.407
66435SOL    HW1 1137   9.391   4.758  14.325
66435SOL    HW2 1138   9.455   4.820  14.448
66436SOL     OW 1139   6.215   3.452   2.860
66436SOL    HW1 1140   6.305   3.442   2.829
66436SOL    HW2 1141   6.167   3.486   2.785
66437SOL     OW 1142   1.162  12.034   1.175
66437SOL    HW1 1143   1.140  11.974   1.102
66437SOL    HW2 1144   1.100  12.010   1.244
66438SOL     OW 1145   7.586   4.764  13.635
66438SOL    HW1 1146   7.673   4.742  13.605
66438SOL    HW2 1147   7.538   4.682  13.634
66439SOL     OW 1148   4.986   6.752   7.331
66439SOL    HW1 1149   4.931   6.831   7.333
66439SOL    HW2 1150   5.075   6.785   7.342
66440SOL     OW 1151   3.292   7.459   2.584
66440SOL    HW1 1152   3.222   7.394   2.596
66440SOL    HW2 1153   3.350   7.420   2.518
66441SOL     OW 1154  12.598  13.331   7.454
66441SOL    HW1 1155  12.580  13.424   7.439
66441SOL    HW2 1156  12.623  13.298   7.368
66442SOL     OW 1157  13.178  12.301   1.776
66442SOL    HW1 1158  13.152  12.295   1.868
66442SOL    HW2 1159  13.214  12.215   1.755
66443SOL     OW 1160   4.454  10.486   2.808
66443SOL    HW1 1161   4.406  10.547   2.751
66443SOL    HW2 1162   4.476  10.412   2.751
66444SOL     OW 1163  10.803   9.176  13.501
66444SOL    HW1 1164  10.789   9.082  13.511
66444SOL    HW2 1165  10.775   9.195  13.412
66445SOL     OW 1166   1.663   7.584   2.326
66445SOL    HW1 1167   1.732   7.528   2.361
66445SOL    HW2 1168   1.606   7.602   2.401
66446SOL     OW 1169  14.387  11.006   3.328
66446SOL    HW1 1170  14.432  10.929   3.362
66446SOL    HW2 1171  14.298  10.998   3.361
66447SOL     OW 1172   6.671   5.542   9.336
66447SOL    HW1 1173   6.729   5.537   9.260
66447SOL    HW2 1174   6.634   5.454   9.344
66448SOL     OW 1175  14.057  11.615   1.107
66448SOL    HW1 1176  14.147  11.600   1.077
66448SOL    HW2 1177  14.063  11.694   1.161
66449SOL     OW 1178  13.737  11.488   4.128
66449SOL    HW1 1179  13.714  11.569   4.082
66449SOL    HW2 1180  13.826  11.504   4.161
66450SOL     OW 1181   8.403   9.641   0.492
66450SOL    HW1 1182   8.342   9.700   0.535
66450SOL    HW2 1183   8.383   9.649   0.398
66451SOL     OW 1184   3.709   0.955   8.150
66451SOL    HW1 1185   3.706   0.865   8.118
66451SOL    HW2 1186   3.746   0.948   8.238
66452SOL     OW 1187   3.537   4.636   2.739
66452SOL    HW1 1188   3.535   4.542   2.757
66452SOL    HW2 1189   3.586   4.643   2.657
66453SOL     OW 1190   1.324   8.394   9.830
66453SOL    HW1 1191   1.379   8.451   9.778
66453SOL    HW2 1192   1.353   8.406   9.920
66454SOL     OW 1193   0.289   4.278  12.813
66454SOL    HW1 1194   0.281   4.333  12.891
66454SOL    HW2 1195   0.287   4.340  12.740
66455SOL     OW 1196  10.096   4.480  12.197
66455SOL    HW1 1197  10.048   4.437  12.126
66455SOL    HW2 1198  10.171   4.521  12.153
66456SOL     OW 1199   7.741   5.851  12.292
66456SOL    HW1 1200   7.723   5.811  12.377
66456SOL    HW2 1201   7.768   5.778  12.236
66457SOL     OW 1202  14.862   9.111  13.550
66457SOL    HW1 1203   0.069   9.084  13.573
66457SOL    HW2 1204  14.818   9.123  13.634
66458SOL     OW 1205   7.244   0.573   9.654
66458SOL    HW1 1206   7.315   0.593   9.714
66458SOL    HW2 1207   7.200   0.497   9.691
66459SOL     OW 1208  10.436   0.794   7.838
66459SOL    HW1 1209  10.470   0.844   7.763
66459SOL    HW2 1210  10.384   0.725   7.798
66460SOL     OW 1211   0.616   6.850   8.495
66460SOL    HW1 1212   0.550   6.800   8.448
66460SOL    HW2 1213   0.675   6.783   8.532
66461SOL     OW 1214   7.232   3.798   3.828
66461SOL    HW1 1215   7.288   3.787   3.905
66461SOL    HW2 1216   7.217   3.893   3.823
66462SOL     OW 1217   3.137   3.610   6.864
66462SOL    HW1 1218   3.158   3.614   6.958
66462SOL    HW2 1219   3.099   3.523   6.852
66463SOL     OW 1220   4.931  11.176   6.396
66463SOL    HW1 1221   4.923  11.239   6.325
66463SOL    HW2 1222   5.003  11.119   6.369
66464SOL     OW 1223   2.012  12.986  11.579
66464SOL    HW1 1224   1.974  12.934  11.508
66464SOL    HW2 1225   2.005  12.929  11.656
66465SOL     OW 1226  11.049   8.409   8.349
66465SOL    HW1 1227  11.085   8.457   8.423
66465SOL    HW2 1228  11.124   8.390   8.293
66466SOL     OW 1229   5.484   3.943  14.747
66466SOL    HW1 1230   5.417   4.011  14.740
66466SOL    HW2 1231   5.530   3.963  14.829
66467SOL     OW 1232   5.814  14.261   2.287
66467SOL    HW1 1233   5.874  14.335   2.296
66467SOL    HW2 1234   5.871  14.185   2.282
66468SOL     OW 1235  11.534   0.534  10.863
66468SOL    HW1 1236  11.495   0.530  10.950
66468SOL    HW2 1237  11.486   0.603  10.818
66469SOL     OW 1238   7.269   2.131  10.485
66469SOL    HW1 1239   7.251   2.216  10.525
66469SOL    HW2 1240   7.361   2.137  10.457
66470SOL     OW 1241  14.641   1.152  10.606
66470SOL    HW1 1242  14.584   1.210  10.555
66470SOL    HW2 1243  14.641   1.189  10.694
66471SOL     OW 1244   9.167   8.914   9.361
66471SOL    HW1 1245   9.213   8.893   9.442
66471SOL    HW2 1246   9.082   8.872   9.371
66472SOL     OW 1247   3.953  12.074  14.794
66472SOL    HW1 1248   3.883  12.138  14.811
66472SOL    HW2 1249   3.923  11.995  14.838
66473SOL     OW 1250   5.586   8.029   9.197
66473SOL    HW1 1251   5.536   7.971   9.140
66473SOL    HW2 1252   5.547   8.018   9.284
66474SOL     OW 1253   4.422   8.592   4.583
66474SOL    HW1 1254   4.334   8.577   4.548
66474SOL    HW2 1255   4.470   8.635   4.512
66475SOL     OW 1256  11.006   7.021   8.661
66475SOL    HW1 1257  11.085   6.976   8.689
66475SOL    HW2 1258  11.001   7.099   8.716
66476SOL     OW 1259   2.914   1.890   0.182
66476SOL    HW1 1260   2.927   1.971   0.231
66476SOL    HW2 1261   2.837   1.907   0.128
66477SOL     OW 1262   0.873   3.496   7.277
66477SOL    HW1 1263   0.793   3.548   7.271
66477SOL    HW2 1264   0.933   3.537   7.215
66478SOL     OW 1265  11.466   8.447   7.970
66478SOL    HW1 1266  11.458   8.366   8.021
66478SOL    HW2 1267  11.461   8.517   8.034
66479SOL     OW 1268   1.163   6.338  12.661
66479SOL    HW1 1269   1.245   6.290  12.678
66479SOL    HW2 1270   1.186   6.399  12.591
66480SOL     OW 1271   2.587   6.373   0.870
66480SOL    HW1 1272   2.506   6.348   0.913
66480SOL    HW2 1273   2.594   6.314   0.795
66481SOL     OW 1274   7.798   8.584   0.748
66481SOL    HW1 1275   7.792   8.512   0.684
66481SOL    HW2 1276   7.772   8.544   0.831
66482SOL     OW 1277   8.781   9.413   8.032
66482SOL    HW1 1278   8.759   9.362   8.110
66482SOL    HW2 1279   8.830   9.351   7.977
66483SOL     OW 1280  11.987   6.707   3.649
66483SOL    HW1 1281  12.061   6.646   3.649
66483SOL    HW2 1282  11.915   6.659   3.608
66484SOL     OW 1283   3.952   1.364   0.519
66484SOL    HW1 1284   3.899   1.443   0.514
66484SOL    HW2 1285   4.011   1.378   0.592
66485SOL     OW 1286   7.115   8.968   9.700
66485SOL    HW1 1287   7.154   8.915   9.630
66485SOL    HW2 1288   7.035   9.004   9.661
66486SOL     OW 1289  14.802  14.404   9.954
66486SOL    HW1 1290  14.750  14.327   9.975
66486SOL    HW2 1291  14.837  14.433  10.038
66487SOL     OW 1292   7.594   7.214   3.814
66487SOL    HW1 1293   7.539   7.209   3.892
66487SOL    HW2 1294   7.589   7.126   3.777
66488SOL     OW 1295  11.762   4.287   6.976
66488SOL    HW1 1296  11.808   4.333   6.905
66488SOL    HW2 1297  11.702   4.227   6.930
66489SOL     OW 1298  14.357   7.332   0.982
66489SOL    HW1 1299  14.317   7.249   1.008
66489SOL    HW2 1300  14.424   7.347   1.048
66490SOL     OW 1301   1.825  14.142   7.377
66490SOL    HW1 1302   1.920  14.139   7.384
66490SOL    HW2 1303   1.808  14.146   7.283
66491SOL     OW 1304   6.190   2.275   5.766
66491SOL    HW1 1305   6.129   2.211   5.803
66491SOL    HW2 1306   6.231   2.316   5.842
66492SOL     OW 1307   8.299  11.668  14.093
66492SOL    HW1 1308   8.320  11.666  14.187
66492SOL    HW2 1309   8.204  11.652  14.089
66493SOL     OW 1310   7.048   7.848   7.776
66493SOL    HW1 1311   7.023   7.758   7.755
66493SOL    HW2 1312   7.001   7.901   7.711
66494SOL     OW 1313  14.570   4.381   0.107
66494SOL    HW1 1314  14.638   4.321   0.077
66494SOL    HW2 1315  14.616   4.462   0.127
66495SOL     OW 1316  13.705   4.970  11.223
66495SOL    HW1 1317  13.715   4.916  11.144
66495SOL    HW2 1318  13.778   5.031  11.220
66496SOL     OW 1319  12.073   6.550  13.764
66496SOL    HW1 1320  11.988   6.521  13.797
66496SOL    HW2 1321  12.121   6.576  13.843
66497SOL     OW 1322   5.268  14.058  10.077
66497SOL    HW1 1323   5.251  14.116  10.003
66497SOL    HW2 1324   5.363  14.050  10.080
66498SOL     OW 1325  13.955  10.853   4.115
66498SOL    HW1 1326  13.889  10.831   4.049
66498SOL    HW2 1327  14.026  10.894   4.065
66499SOL     OW 1328   6.291  10.658   0.376
66499SOL    HW1 1329   6.364  10.675   0.436
66499SOL    HW2 1330   6.333  10.630   0.295
66500SOL     OW 1331   6.663   9.380  14.222
66500SOL    HW1 1332   6.618   9.344  14.146
66500SOL    HW2 1333   6.604   9.446  14.257
66501SOL     OW 1334   6.102   9.838   1.157
66501SOL    HW1 1335   6.017   9.801   1.178
66501SOL    HW2 1336   6.163   9.794   1.217
66502SOL     OW 1337   7.462  13.970   8.685
66502SOL    HW1 1338   7.417  13.926   8.757
66502SOL    HW2 1339   7.552  13.980   8.715
66503SOL     OW 1340   4.919   1.775  10.969
66503SOL    HW1 1341   4.863   1.743  11.040
66503SOL    HW2 1342   4.891   1.865  10.954
66504SOL     OW 1343   7.366  11.718   0.505
66504SOL    HW1 1344   7.432  11.654   0.533
66504SOL    HW2 1345   7.364  11.709   0.410
66505SOL     OW 1346  10.079   8.866   2.391
66505SOL    HW1 1347  10.003   8.871   2.333
66505SOL    HW2 1348  10.078   8.949   2.438
66506SOL     OW 1349   0.687   6.925   3.031
66506SOL    HW1 1350   0.676   6.850   3.090
66506SOL    HW2 1351   0.773   6.911   2.991
66507SOL     OW 1352  12.213   1.013   2.253
66507SOL    HW1 1353  12.263   1.079   2.302
66507SOL    HW2 1354  12.278   0.971   2.196
66508SOL     OW 1355   0.529  10.837   6.013
66508SOL    HW1 1356   0.470  10.898   6.057
66508SOL    HW2 1357   0.501  10.751   6.043
66509SOL     OW 1358  14.076   2.385   4.833
66509SOL    HW1 1359  14.025   2.304   4.823
66509SOL    HW2 1360  14.143   2.362   4.898
66510SOL     OW 1361  12.735   5.023   1.862
66510SOL    HW1 1362  12.785   4.970   1.801
66510SOL    HW2 1363  12.799   5.080   1.904
66511SOL     OW 1364   1.889  13.626   0.497
66511SOL    HW1 1365   1.814  13.668   0.539
66511SOL    HW2 1366   1.928  13.696   0.444
66512SOL     OW 1367  13.086   1.956  12.608
66512SOL    HW1 1368  13.089   2.052  12.604
66512SOL    HW2 1369  13.019   1.937  12.673
66513SOL     OW 1370   0.191  11.344  10.708
66513SOL    HW1 1371   0.216  11.312  10.795
66513SOL    HW2 1372   0.180  11.265  10.656
66514SOL     OW 1373   1.004  11.796   1.650
66514SOL    HW1 1374   0.959  11.739   1.588
66514SOL    HW2 1375   1.008  11.746   1.731
66515SOL     OW 1376   4.484   9.343  13.866
66515SOL    HW1 1377   4.424   9.307  13.931
66515SOL    HW2 1378   4.567   9.354  13.913
66516SOL     OW 1379   5.326   4.777   4.586
66516SOL    HW1 1380   5.377   4.829   4.648
66516SOL    HW2 1381   5.366   4.795   4.501
66517SOL     OW 1382   6.712  14.527   8.382
66517SOL    HW1 1383   6.771  14.528   8.457
66517SOL    HW2 1384   6.756  14.581   8.316
66518SOL     OW 1385   5.821  13.153  14.147
66518SOL    HW1 1386   5.910  13.118  14.137
66518SOL    HW2 1387   5.834  13.239  14.186
66519SOL     OW 1388   4.803   9.887  12.574
66519SOL    HW1 1389   4.792   9.797  12.603
66519SOL    HW2 1390   4.784   9.884  12.480
66520SOL     OW 1391  10.146   0.557   5.897
66520SOL    HW1 1392  10.218   0.497   5.878
66520SOL    HW2 1393  10.189   0.638   5.924
66521SOL     OW 1394   6.162  10.728   0.825
66521SOL    HW1 1395   6.095  10.780   0.780
66521SOL    HW2 1396   6.231  10.715   0.760
66522SOL     OW 1397   3.466   0.903  14.571
66522SOL    HW1 1398   3.528   0.963  14.530
66522SOL    HW2 1399   3.516   0.823  14.585
66523SOL     OW 1400   8.631  12.424  14.385
66523SOL    HW1 1401   8.609  12.508  14.426
66523SOL    HW2 1402   8.700  12.388  14.441
66524SOL     OW 1403  14.027   9.103  12.521
66524SOL    HW1 1404  14.069   9.091  12.606
66524SOL    HW2 1405  14.082   9.052  12.460
66525SOL     OW 1406   4.077  10.986   4.107
66525SOL    HW1 1407   4.119  10.934   4.176
66525SOL    HW2 1408   4.128  10.967   4.028
66526SOL     OW 1409  12.329  12.641   3.166
66526SOL    HW1 1410  12.328  12.550   3.139
66526SOL    HW2 1411  12.326  12.691   3.085
66527SOL     OW 1412   9.394  13.121  11.624
66527SOL    HW1 1413   9.416  13.037  11.584
66527SOL    HW2 1414   9.433  13.186  11.565
66528SOL     OW 1415  14.111   7.507   5.320
66528SOL    HW1 1416  14.163   7.498   5.400
66528SOL    HW2 1417  14.050   7.433   5.322
66529SOL     OW 1418   0.932   4.556   9.847
66529SOL    HW1 1419   0.885   4.479   9.879
66529SOL    HW2 1420   0.866   4.626   9.845
66530SOL     OW 1421   5.787   9.042  12.825
66530SOL    HW1 1422   5.774   9.110  12.892
66530SOL    HW2 1423   5.721   8.976  12.844
66531SOL     OW 1424   7.311   0.148  14.576
66531SOL    HW1 1425   7.380   0.083  14.589
66531SOL    HW2 1426   7.230   0.098  14.575
66532SOL     OW 1427  11.026  11.338   4.715
66532SOL    HW1 1428  10.952  11.318   4.772
66532SOL    HW2 1429  11.098  11.359   4.775
66533SOL     OW 1430   6.132  14.856   8.677
66533SOL    HW1 1431   6.139   0.066   8.704
66533SOL    HW2 1432   6.182  14.808   8.744
66534SOL     OW 1433  12.806   4.891  12.699
66534SOL    HW1 1434  12.717   4.882  12.733
66534SOL    HW2 1435  12.798   4.953  12.627
66535SOL     OW 1436  11.340   0.367  14.863
66535SOL    HW1 1437  11.406   0.304  14.834
66535SOL    HW2 1438  11.344   0.363   0.077
66536SOL     OW 1439   4.599  13.050   1.641
66536SOL    HW1 1440   4.605  13.080   1.732
66536SOL    HW2 1441   4.685  13.066   1.604
66537SOL     OW 1442  10.948  12.613  10.511
66537SOL    HW1 1443  10.895  12.571  10.579
66537SOL    HW2 1444  10.912  12.701  10.504
66538SOL     OW 1445  14.168   5.200   4.149
66538SOL    HW1 1446  14.074   5.197   4.135
66538SOL    HW2 1447  14.179   5.257   4.225
66539SOL     OW 1448   0.494   3.851   7.192
66539SOL    HW1 1449   0.586   3.872   7.175
66539SOL    HW2 1450   0.453   3.936   7.210
66540SOL     OW 1451   1.084   4.769  12.020
66540SOL    HW1 1452   1.040   4.830  11.962
66540SOL    HW2 1453   1.158   4.817  12.055
66541SOL     OW 1454  14.502   8.928   0.633
66541SOL    HW1 1455  14.485   8.949   0.541
66541SOL    HW2 1456  14.462   8.842   0.646
66542SOL     OW 1457   9.835   4.437   5.693
66542SOL    HW1 1458   9.887   4.367   5.653
66542SOL    HW2 1459   9.805   4.490   5.618
66543SOL     OW 1460   3.417   5.153   6.657
66543SOL    HW1 1461   3.461   5.089   6.601
66543SOL    HW2 1462   3.324   5.130   6.651
66544SOL     OW 1463  14.382   5.942   5.165
66544SOL    HW1 1464  14.318   6.009   5.188
66544SOL    HW2 1465  14.331   5.873   5.123
66545SOL     OW 1466   9.484   1.588   8.009
66545SOL    HW1 1467   9.494   1.534   8.087
66545SOL    HW2 1468   9.502   1.677   8.038
66546SOL     OW 1469  14.330  14.870   1.060
66546SOL    HW1 1470  14.410  14.838   1.101
66546SOL    HW2 1471  14.283   0.032   1.131
66547SOL     OW 1472   3.592   2.808  11.614
66547SOL    HW1 1473   3.671   2.758  11.632
66547SOL    HW2 1474   3.570   2.850  11.698
66548SOL     OW 1475   9.568   6.128  11.164
66548SOL    HW1 1476   9.647   6.179  11.182
66548SOL    HW2 1477   9.524   6.176  11.093
66549SOL     OW 1478   0.858   8.316   7.514
66549SOL    HW1 1479   0.825   8.404   7.530
66549SOL    HW2 1480   0.880   8.282   7.601
66550SOL     OW 1481   6.562   2.592  13.218
66550SOL    HW1 1482   6.656   2.606  13.209
66550SOL    HW2 1483   6.554   2.518  13.278
66551SOL     OW 1484   6.757   5.275   1.549
66551SOL    HW1 1485   6.684   5.335   1.563
66551SOL    HW2 1486   6.716   5.193   1.521
66552SOL     OW 1487  14.599  14.558   6.668
66552SOL    HW1 1488  14.557  14.642   6.650
66552SOL    HW2 1489  14.558  14.527   6.749
66553SOL     OW 1490  10.307   6.503  10.534
66553SOL    HW1 1491  10.301   6.578  10.593
66553SOL    HW2 1492  10.255   6.528  10.458
66554SOL     OW 1493   8.841   6.679  11.675
66554SOL    HW1 1494   8.890   6.645  11.750
66554SOL    HW2 1495   8.908   6.697  11.609
66555SOL     OW 1496  11.772  12.972  11.949
66555SOL    HW1 1497  11.740  12.883  11.964
66555SOL    HW2 1498  11.859  12.960  11.909
66556SOL     OW 1499   1.625  14.099   1.168
66556SOL    HW1 1500   1.692  14.047   1.213
66556SOL    HW2 1501   1.618  14.060   1.082
66557SOL     OW 1502   9.900  14.746  10.001
66557SOL    HW1 1503   9.959  14.814   9.968
66557SOL    HW2 1504   9.959  14.680  10.038
66558SOL     OW 1505   9.334   2.940  11.839
66558SOL    HW1 1506   9.302   3.029  11.821
66558SOL    HW2 1507   9.355   2.941  11.932
66559SOL     OW 1508   4.489   2.895   7.698
66559SOL    HW1 1509   4.449   2.817   7.738
66559SOL    HW2 1510   4.428   2.966   7.719
66560SOL     OW 1511   7.847   5.664   6.007
66560SOL    HW1 1512   7.828   5.580   5.965
66560SOL    HW2 1513   7.848   5.644   6.101
66561SOL     OW 1514  12.488   1.831   3.242
66561SOL    HW1 1515  12.531   1.772   3.304
66561SOL    HW2 1516  12.397   1.834   3.270
66562SOL     OW 1517  11.376   6.214   6.717
66562SOL    HW1 1518  11.292   6.208   6.671
66562SOL    HW2 1519  11.360   6.174   6.802
66563SOL     OW 1520   2.083  14.426   0.481
66563SOL    HW1 1521   2.096  14.521   0.476
66563SOL    HW2 1522   2.026  14.415   0.558
66564SOL     OW 1523   0.768   1.411   3.016
66564SOL    HW1 1524   0.690   1.425   2.963
66564SOL    HW2 1525   0.756   1.325   3.055
66565SOL     OW 1526   6.917   5.233  11.027
66565SOL    HW1 1527   6.836   5.284  11.031
66565SOL    HW2 1528   6.889   5.142  11.028
66566SOL     OW 1529  12.287   3.460   6.497
66566SOL    HW1 1530  12.313   3.425   6.412
66566SOL    HW2 1531  12.313   3.552   6.493
66567SOL     OW 1532  14.791   4.159  10.696
66567SOL    HW1 1533  14.789   4.067  10.671
66567SOL    HW2 1534  14.859   4.164  10.763
66568SOL     OW 1535   2.663   8.208   5.208
66568SOL    HW1 1536   2.664   8.274   5.139
66568SOL    HW2 1537   2.727   8.240   5.272
66569SOL     OW 1538   5.661  10.489  10.432
66569SOL    HW1 1539   5.574  10.525  10.449
66569SOL    HW2 1540   5.721  10.556  10.464
66570SOL     OW 1541  13.879   9.371   7.746
66570SOL    HW1 1542  13.843   9.455   7.774
66570SOL    HW2 1543  13.889   9.321   7.826
66571SOL     OW 1544  11.354   9.438  10.100
66571SOL    HW1 1545  11.338   9.530  10.121
66571SOL    HW2 1546  11.315   9.426  10.013
66572SOL     OW 1547   3.082   8.589   5.674
66572SOL    HW1 1548   3.120   8.665   5.631
66572SOL    HW2 1549   3.113   8.514   5.623
66573SOL     OW 1550  12.576   5.997  11.275
66573SOL    HW1 1551  12.517   5.922  11.277
66573SOL    HW2 1552  12.620   5.995  11.360
66574SOL     OW 1553   8.001  13.414  13.886
66574SOL    HW1 1554   8.089  13.436  13.856
66574SOL    HW2 1555   7.943  13.454  13.821
66575SOL     OW 1556   8.177   7.423   5.168
66575SOL    HW1 1557   8.215   7.498   5.122
66575SOL    HW2 1558   8.159   7.360   5.098
66576SOL     OW 1559   9.022   3.904  13.340
66576SOL    HW1 1560   8.969   3.825  13.350
66576SOL    HW2 1561   9.100   3.874  13.294
66577SOL     OW 1562   1.903   6.034   1.459
66577SOL    HW1 1563   1.962   6.091   1.410
66577SOL    HW2 1564   1.915   6.059   1.551
66578SOL     OW 1565  11.970   7.479   0.153
66578SOL    HW1 1566  11.875   7.479   0.165
66578SOL    HW2 1567  11.995   7.571   0.164
66579SOL     OW 1568   3.240  10.957   0.657
66579SOL    HW1 1569   3.256  10.982   0.565
66579SOL    HW2 1570   3.326  10.931   0.690
66580SOL     OW 1571  12.934   4.368  14.561
66580SOL    HW1 1572  13.015   4.319  14.574
66580SOL    HW2 1573  12.950   4.421  14.483
66581SOL     OW 1574   0.490  12.738  13.568
66581SOL    HW1 1575   0.565  12.797  13.578
66581SOL    HW2 1576   0.521  12.655  13.603
66582SOL     OW 1577  14.519   9.084   8.352
66582SOL    HW1 1578  14.529   9.010   8.293
66582SOL    HW2 1579  14.479   9.152   8.298
66583SOL     OW 1580   8.233   4.154   5.757
66583SOL    HW1 1581   8.246   4.156   5.663
66583SOL    HW2 1582   8.314   4.189   5.793
66584SOL     OW 1583   5.839   6.143  13.344
66584SOL    HW1 1584   5.818   6.050  13.346
66584SOL    HW2 1585   5.813   6.172  13.257
66585SOL     OW 1586   7.844  11.306   8.601
66585SOL    HW1 1587   7.762  11.317   8.554
66585SOL    HW2 1588   7.904  11.369   8.560
66586SOL     OW 1589   1.528   9.290   3.714
66586SOL    HW1 1590   1.549   9.203   3.749
66586SOL    HW2 1591   1.594   9.348   3.751
66587SOL     OW 1592   1.761  14.825   8.381
66587SOL    HW1 1593   1.769   0.032   8.415
66587SOL    HW2 1594   1.834  14.778   8.423
66588SOL     OW 1595   7.099   1.999   8.799
66588SOL    HW1 1596   7.122   1.930   8.861
66588SOL    HW2 1597   7.022   1.966   8.753
66589SOL     OW 1598   4.363  11.599   6.329
66589SOL    HW1 1599   4.366  11.503   6.340
66589SOL    HW2 1600   4.291  11.614   6.268
66590SOL     OW 1601   9.841  12.533  10.376
66590SOL    HW1 1602   9.815  12.463  10.316
66590SOL    HW2 1603   9.760  12.580  10.395
66591SOL     OW 1604   6.273   4.771   5.159
66591SOL    HW1 1605   6.359   4.737   5.180
66591SOL    HW2 1606   6.290   4.854   5.115
66592SOL     OW 1607  13.183  14.154   1.017
66592SOL    HW1 1608  13.220  14.241   1.032
66592SOL    HW2 1609  13.224  14.125   0.936
66593SOL     OW 1610  14.498  10.215   2.770
66593SOL    HW1 1611  14.436  10.285   2.749
66593SOL    HW2 1612  14.557  10.212   2.695
66594SOL     OW 1613   5.491   5.144  14.520
66594SOL    HW1 1614   5.418   5.168  14.576
66594SOL    HW2 1615   5.543   5.083  14.572
66595SOL     OW 1616   5.353   7.879   0.902
66595SOL    HW1 1617   5.297   7.929   0.961
66595SOL    HW2 1618   5.412   7.944   0.864
66596SOL     OW 1619   7.292   9.735   5.913
66596SOL    HW1 1620   7.237   9.663   5.945
66596SOL    HW2 1621   7.374   9.692   5.887
66597SOL     OW 1622  10.981   7.624   2.234
66597SOL    HW1 1623  10.944   7.600   2.149
66597SOL    HW2 1624  11.075   7.609   2.224
66598SOL     OW 1625   5.987   3.654   7.143
66598SOL    HW1 1626   6.041   3.584   7.179
66598SOL    HW2 1627   5.897   3.628   7.164
66599SOL     OW 1628  14.156   7.952   5.725
66599SOL    HW1 1629  14.215   8.011   5.771
66599SOL    HW2 1630  14.086   7.932   5.787
66600SOL     OW 1631   6.110  13.097   5.043
66600SOL    HW1 1632   6.104  13.178   4.993
66600SOL    HW2 1633   6.125  13.125   5.133
66601SOL     OW 1634   1.812   1.644   1.301
66601SOL    HW1 1635   1.770   1.641   1.387
66601SOL    HW2 1636   1.835   1.736   1.289
66602SOL     OW 1637   1.573   5.108   8.030
66602SOL    HW1 1638   1.608   5.056   7.958
66602SOL    HW2 1639   1.484   5.131   8.002
66603SOL     OW 1640  14.370   2.893   8.730
66603SOL    HW1 1641  14.314   2.858   8.661
66603SOL    HW2 1642  14.360   2.988   8.723
66604SOL     OW 1643   7.489   6.118  12.939
66604SOL    HW1 1644   7.417   6.136  12.999
66604SOL    HW2 1645   7.561   6.171  12.972
66605SOL     OW 1646  11.278   3.287  13.625
66605SOL    HW1 1647  11.349   3.329  13.575
66605SOL    HW2 1648  11.286   3.194  13.606
66606SOL     OW 1649  13.538   8.892   5.363
66606SOL    HW1 1650  13.509   8.957   5.299
66606SOL    HW2 1651  13.539   8.810   5.315
66607SOL     OW 1652   0.354   2.713   5.935
66607SOL    HW1 1653   0.358   2.625   5.898
66607SOL    HW2 1654   0.446   2.738   5.946
66608SOL     OW 1655   5.592   4.619   7.151
66608SOL    HW1 1656   5.534   4.582   7.085
66608SOL    HW2 1657   5.574   4.713   7.150
66609SOL     OW 1658  11.730  13.836  12.280
66609SOL    HW1 1659  11.648  13.869  12.316
66609SOL    HW2 1660  11.772  13.791  12.353
66610SOL     OW 1661   2.923   3.607   8.195
66610SOL    HW1 1662   2.876   3.622   8.276
66610SOL    HW2 1663   2.927   3.693   8.153
66611SOL     OW 1664   9.970   5.748   4.766
66611SOL    HW1 1665  10.013   5.781   4.687
66611SOL    HW2 1666   9.932   5.664   4.739
66612SOL     OW 1667   3.043   6.277   0.833
66612SOL    HW1 1668   3.052   6.354   0.778
66612SOL    HW2 1669   3.124   6.228   0.820
66613SOL     OW 1670   1.493   7.529   7.520
66613SOL    HW1 1671   1.559   7.593   7.493
66613SOL    HW2 1672   1.499   7.459   7.456
66614SOL     OW 1673   3.207  12.579  11.166
66614SOL    HW1 1674   3.264  12.529  11.224
66614SOL    HW2 1675   3.120  12.572  11.206
66615SOL     OW 1676   3.835  10.097   5.941
66615SOL    HW1 1677   3.797  10.120   5.856
66615SOL    HW2 1678   3.849  10.003   5.936
66616SOL     OW 1679  12.707  12.482   4.828
66616SOL    HW1 1680  12.787  12.457   4.873
66616SOL    HW2 1681  12.682  12.566   4.866
66617SOL     OW 1682   7.143  11.174  14.777
66617SOL    HW1 1683   7.122  11.228  14.854
66617SOL    HW2 1684   7.181  11.094  14.814
66618SOL     OW 1685  14.811  10.397   0.870
66618SOL    HW1 1686  14.880  10.419   0.933
66618SOL    HW2 1687  14.760  10.477   0.861
66619SOL     OW 1688   7.573  10.488  10.821
66619SOL    HW1 1689   7.630  10.565  10.827
66619SOL    HW2 1690   7.573  10.466  10.728
66620SOL     OW 1691  14.163   1.094   4.708
66620SOL    HW1 1692  14.240   1.124   4.758
66620SOL    HW2 1693  14.100   1.068   4.776
66621SOL     OW 1694   7.394   8.159   4.335
66621SOL    HW1 1695   7.421   8.193   4.420
66621SOL    HW2 1696   7.312   8.114   4.353
66622SOL     OW 1697   9.317   3.288   4.537
66622SOL    HW1 1698   9.370   3.344   4.593
66622SOL    HW2 1699   9.359   3.293   4.451
66623SOL     OW 1700   0.933   6.474   3.240
66623SOL    HW1 1701   0.974   6.531   3.175
66623SOL    HW2 1702   0.976   6.389   3.229
66624SOL     OW 1703   6.150   5.747   8.862
66624SOL    HW1 1704   6.229   5.790   8.829
66624SOL    HW2 1705   6.162   5.744   8.957
66625SOL     OW 1706  11.310   0.414   2.822
66625SOL    HW1 1707  11.296   0.501   2.785
66625SOL    HW2 1708  11.404   0.399   2.814
66626SOL     OW 1709   9.834  11.581  13.005
66626SOL    HW1 1710   9.856  11.674  13.002
66626SOL    HW2 1711   9.896  11.544  13.068
66627SOL     OW 1712   6.856   8.629  12.539
66627SOL    HW1 1713   6.802   8.565  12.585
66627SOL    HW2 1714   6.800   8.662  12.469
66628SOL     OW 1715   2.535   1.362   4.354
66628SOL    HW1 1716   2.552   1.292   4.416
66628SOL    HW2 1717   2.477   1.323   4.289
66629SOL     OW 1718   6.538   3.024   3.415
66629SOL    HW1 1719   6.468   3.017   3.480
66629SOL    HW2 1720   6.500   2.993   3.334
66630SOL     OW 1721  13.149  12.260  10.316
66630SOL    HW1 1722  13.136  12.298  10.230
66630SOL    HW2 1723  13.220  12.196  10.305
66631SOL     OW 1724  11.952   7.549   1.429
66631SOL    HW1 1725  11.929   7.476   1.371
66631SOL    HW2 1726  11.938   7.515   1.517
66632SOL     OW 1727  14.804   4.763   5.769
66632SOL    HW1 1728   0.000   4.708   5.772
66632SOL    HW2 1729  14.741   4.718   5.826
66633SOL     OW 1730  10.357   2.064   0.792
66633SOL    HW1 1731  10.370   2.026   0.705
66633SOL    HW2 1732  10.400   2.003   0.852
66634SOL     OW 1733   7.242  12.726   8.348
66634SOL    HW1 1734   7.243  12.668   8.272
66634SOL    HW2 1735   7.307  12.689   8.408
66635SOL     OW 1736   6.610  12.172   5.503
66635SOL    HW1 1737   6.621  12.256   5.459
66635SOL    HW2 1738   6.624  12.107   5.435
66636SOL     OW 1739   1.585   7.270   1.122
66636SOL    HW1 1740   1.589   7.365   1.108
66636SOL    HW2 1741   1.587   7.260   1.217
66637SOL     OW 1742   5.379   4.587   7.364
66637SOL    HW1 1743   5.307   4.548   7.314
66637SOL    HW2 1744   5.421   4.648   7.303
66638SOL     OW 1745   0.556  13.266   2.448
66638SOL    HW1 1746   0.641  13.267   2.406
66638SOL    HW2 1747   0.571  13.304   2.534
66639SOL     OW 1748   1.555   4.479   2.350
66639SOL    HW1 1749   1.517   4.556   2.392
66639SOL    HW2 1750   1.479   4.425   2.325
66640SOL     OW 1751   4.269   7.966   9.409
66640SOL    HW1 1752   4.206   7.899   9.434
66640SOL    HW2 1753   4.287   7.949   9.316
66641SOL     OW 1754   8.666   6.441   9.280
66641SOL    HW1 1755   8.756   6.437   9.314
66641SOL    HW2 1756   8.646   6.351   9.255
66642SOL     OW 1757   3.297  13.791  10.073
66642SOL    HW1 1758   3.277  13.774   9.981
66642SOL    HW2 1759   3.260  13.878  10.090
66643SOL     OW 1760   7.637   2.253   3.447
66643SOL    HW1 1761   7.598   2.311   3.382
66643SOL    HW2 1762   7.651   2.309   3.524
66644SOL     OW 1763   8.940   9.005  12.517
66644SOL    HW1 1764   8.905   9.078  12.466
66644SOL    HW2 1765   8.966   9.044  12.600
66645SOL     OW 1766   5.143  13.569  12.673
66645SOL    HW1 1767   5.122  13.662  12.681
66645SOL    HW2 1768   5.234  13.563  12.700
66646SOL     OW 1769   4.570  14.595   0.628
66646SOL    HW1 1770   4.548  14.601   0.721
66646SOL    HW2 1771   4.615  14.677   0.609
66647SOL     OW 1772   7.397  14.619   7.973
66647SOL    HW1 1773   7.482  14.587   7.942
66647SOL    HW2 1774   7.418  14.677   8.047
66648SOL     OW 1775  13.659   0.299   9.757
66648SOL    HW1 1776  13.697   0.225   9.805
66648SOL    HW2 1777  13.688   0.286   9.667
66649SOL     OW 1778  11.678   4.338   4.942
66649SOL    HW1 1779  11.739   4.266   4.958
66649SOL    HW2 1780  11.611   4.327   5.009
66650SOL     OW 1781  11.280   4.058   3.035
66650SOL    HW1 1782  11.222   3.992   2.998
66650SOL    HW2 1783  11.309   4.109   2.959
66651SOL     OW 1784   4.412   7.276  11.014
66651SOL    HW1 1785   4.498   7.260  11.055
66651SOL    HW2 1786   4.349   7.251  11.082
66652SOL     OW 1787   8.329   3.375  10.366
66652SOL    HW1 1788   8.346   3.448  10.426
66652SOL    HW2 1789   8.347   3.297  10.419
66653SOL     OW 1790  12.046   8.062   8.392
66653SOL    HW1 1791  11.975   8.054   8.456
66653SOL    HW2 1792  12.078   7.972   8.382
66654SOL     OW 1793  14.135   2.143  11.577
66654SOL    HW1 1794  14.139   2.076  11.645
66654SOL    HW2 1795  14.177   2.220  11.616
66655SOL     OW 1796   4.104   9.604   9.949
66655SOL    HW1 1797   4.015   9.625   9.978
66655SOL    HW2 1798   4.105   9.509   9.943
66656SOL     OW 1799   7.909   1.294   4.117
66656SOL    HW1 1800   7.858   1.371   4.142
66656SOL    HW2 1801   7.871   1.223   4.168
66657SOL     OW 1802   4.308   7.555  13.318
66657SOL    HW1 1803   4.358   7.592  13.244
66657SOL    HW2 1804   4.217   7.565  13.292
66658SOL     OW 1805  10.146   1.218   6.703
66658SOL    HW1 1806  10.211   1.288   6.698
66658SOL    HW2 1807  10.199   1.138   6.706
66659SOL     OW 1808   3.023   7.112   5.293
66659SOL    HW1 1809   3.115   7.085   5.286
66659SOL    HW2 1810   3.024   7.205   5.271
66660SOL     OW 1811   8.063  10.797   4.858
66660SOL    HW1 1812   8.009  10.869   4.824
66660SOL    HW2 1813   8.000  10.730   4.884
66661SOL     OW 1814  12.137   8.698   8.334
66661SOL    HW1 1815  12.046   8.720   8.315
66661SOL    HW2 1816  12.156   8.742   8.417
66662SOL     OW 1817  11.525   5.360  10.249
66662SOL    HW1 1818  11.445   5.328  10.290
66662SOL    HW2 1819  11.571   5.281  10.221
66663SOL     OW 1820   3.275   6.012  10.630
66663SOL    HW1 1821   3.328   6.066  10.688
66663SOL    HW2 1822   3.191   6.003  10.675
66664SOL     OW 1823   2.149  11.557   4.706
66664SOL    HW1 1824   2.239  11.535   4.730
66664SOL    HW2 1825   2.132  11.639   4.753
66665SOL     OW 1826   8.075   5.830   9.732
66665SOL    HW1 1827   7.986   5.836   9.767
66665SOL    HW2 1828   8.068   5.768   9.660
66666SOL     OW 1829   6.642   4.487   9.266
66666SOL    HW1 1830   6.562   4.481   9.213
66666SOL    HW2 1831   6.688   4.405   9.249
66667SOL     OW 1832  13.428   7.122  13.901
66667SOL    HW1 1833  13.411   7.069  13.979
66667SOL    HW2 1834  13.341   7.154  13.874
66668SOL     OW 1835   6.944   0.584   2.969
66668SOL    HW1 1836   6.972   0.621   2.886
66668SOL    HW2 1837   7.025   0.570   3.018
66669SOL     OW 1838   6.087   9.262   2.647
66669SOL    HW1 1839   6.112   9.232   2.560
66669SOL    HW2 1840   6.001   9.301   2.635
66670SOL     OW 1841   9.098  10.876  12.332
66670SOL    HW1 1842   9.049  10.868  12.414
66670SOL    HW2 1843   9.073  10.962  12.298
66671SOL     OW 1844   6.075   0.196   9.695
66671SOL    HW1 1845   6.001   0.243   9.657
66671SOL    HW2 1846   6.147   0.260   9.695
66672SOL     OW 1847  11.890   1.221   7.362
66672SOL    HW1 1848  11.953   1.229   7.434
66672SOL    HW2 1849  11.943   1.196   7.287
66673SOL     OW 1850   9.855   0.438   9.756
66673SOL    HW1 1851   9.786   0.436   9.823
66673SOL    HW2 1852   9.902   0.520   9.774
66674SOL     OW 1853  13.237  10.070   4.258
66674SOL    HW1 1854  13.332  10.067   4.241
66674SOL    HW2 1855  13.209  10.153   4.220
66675SOL     OW 1856   4.847   1.311   7.301
66675SOL    HW1 1857   4.786   1.242   7.327
66675SOL    HW2 1858   4.793   1.390   7.301
66676SOL     OW 1859   3.400   5.646   3.497
66676SOL    HW1 1860   3.447   5.564   3.482
66676SOL    HW2 1861   3.449   5.689   3.567
66677SOL     OW 1862   8.792  12.958  14.603
66677SOL    HW1 1863   8.767  13.046  14.574
66677SOL    HW2 1864   8.869  12.972  14.659
66678SOL     OW 1865  12.957   9.622   7.557
66678SOL    HW1 1866  13.018   9.610   7.630
66678SOL    HW2 1867  12.895   9.687   7.589
66679SOL     OW 1868  13.306   8.170  13.546
66679SOL    HW1 1869  13.378   8.232  13.531
66679SOL    HW2 1870  13.339   8.110  13.613
66680SOL     OW 1871  10.374   1.442   3.524
66680SOL    HW1 1872  10.361   1.357   3.566
66680SOL    HW2 1873  10.449   1.481   3.570
66681SOL     OW 1874   7.700   6.211   0.241
66681SOL    HW1 1875   7.735   6.122   0.243
66681SOL    HW2 1876   7.655   6.216   0.157
66682SOL     OW 1877  11.334   1.588  10.359
66682SOL    HW1 1878  11.277   1.536  10.416
66682SOL    HW2 1879  11.385   1.643  10.418
66683SOL     OW 1880   6.692   8.509   0.288
66683SOL    HW1 1881   6.657   8.446   0.225
66683SOL    HW2 1882   6.627   8.579   0.291
66684SOL     OW 1883   2.857   7.369  10.224
66684SOL    HW1 1884   2.850   7.437  10.158
66684SOL    HW2 1885   2.949   7.342  10.221
66685SOL     OW 1886   3.365  14.147   6.252
66685SOL    HW1 1887   3.438  14.194   6.212
66685SOL    HW2 1888   3.300  14.214   6.271
66686SOL     OW 1889   4.588  10.669   7.029
66686SOL    HW1 1890   4.496  10.684   7.051
66686SOL    HW2 1891   4.592  10.577   7.003
66687SOL     OW 1892   6.334  10.816   4.529
66687SOL    HW1 1893   6.391  10.881   4.487
66687SOL    HW2 1894   6.278  10.867   4.587
66688SOL     OW 1895   6.948  13.873  13.133
66688SOL    HW1 1896   7.022  13.814  13.124
66688SOL    HW2 1897   6.982  13.945  13.187
66689SOL     OW 1898   7.468  14.462   7.349
66689SOL    HW1 1899   7.387  14.414   7.370
66689SOL    HW2 1900   7.467  14.537   7.408
66690SOL     OW 1901  10.577  10.825   2.045
66690SOL    HW1 1902  10.498  10.818   2.097
66690SOL    HW2 1903  10.551  10.872   1.966
66691SOL     OW 1904   0.547   8.044  10.561
66691SOL    HW1 1905   0.593   8.127  10.563
66691SOL    HW2 1906   0.616   7.978  10.569
66692SOL     OW 1907   3.969   4.493  12.199
66692SOL    HW1 1908   3.951   4.478  12.292
66692SOL    HW2 1909   3.961   4.406  12.159
66693SOL     OW 1910  12.953   8.801   9.481
66693SOL    HW1 1911  12.911   8.737   9.423
66693SOL    HW2 1912  12.952   8.759   9.567
66694SOL     OW 1913   0.855   8.675   0.606
66694SOL    HW1 1914   0.946   8.661   0.580
66694SOL    HW2 1915   0.860   8.699   0.698
66695SOL     OW 1916   8.245   8.744  10.511
66695SOL    HW1 1917   8.192   8.676  10.551
66695SOL    HW2 1918   8.189   8.781  10.442
66696SOL     OW 1919   4.160  13.194   7.970
66696SOL    HW1 1920   4.126  13.118   8.017
66696SOL    HW2 1921   4.128  13.183   7.880
66697SOL     OW 1922   3.406   3.739   3.456
66697SOL    HW1 1923   3.386   3.652   3.421
66697SOL    HW2 1924   3.366   3.740   3.543
66698SOL     OW 1925   2.317   0.384   4.772
66698SOL    HW1 1926   2.301   0.313   4.834
66698SOL    HW2 1927   2.263   0.456   4.803
66699SOL     OW 1928   9.460  10.499   9.268
66699SOL    HW1 1929   9.474  10.418   9.316
66699SOL    HW2 1930   9.547  10.534   9.252
66700SOL     OW 1931  12.148  11.553   5.122
66700SOL    HW1 1932  12.160  11.503   5.041
66700SOL    HW2 1933  12.054  11.568   5.127
66701SOL     OW 1934  12.614  12.283   1.714
66701SOL    HW1 1935  12.539  12.278   1.656
66701SOL    HW2 1936  12.682  12.325   1.662
66702SOL     OW 1937   1.279   9.403   1.602
66702SOL    HW1 1938   1.347   9.338   1.619
66702SOL    HW2 1939   1.298   9.474   1.664
66703SOL     OW 1940  12.146  13.482   9.702
66703SOL    HW1 1941  12.062  13.441   9.681
66703SOL    HW2 1942  12.202  13.459   9.628
66704SOL     OW 1943   9.289  10.387  12.470
66704SOL    HW1 1944   9.323  10.308  12.429
66704SOL    HW2 1945   9.355  10.454  12.453
66705SOL     OW 1946   8.747   0.760  13.471
66705SOL    HW1 1947   8.666   0.757  13.419
66705SOL    HW2 1948   8.763   0.668  13.495
66706SOL     OW 1949   7.996   0.003   6.210
66706SOL    HW1 1950   8.073   0.026   6.157
66706SOL    HW2 1951   8.031  14.869   6.297
66707SOL     OW 1952  13.096   3.386  13.728
66707SOL    HW1 1953  13.048   3.467  13.741
66707SOL    HW2 1954  13.094   3.372  13.633
66708SOL     OW 1955   6.708   3.459   7.178
66708SOL    HW1 1956   6.802   3.445   7.189
66708SOL    HW2 1957   6.668   3.375   7.202
66709SOL     OW 1958   5.149   4.445   4.697
66709SOL    HW1 1959   5.154   4.503   4.621
66709SOL    HW2 1960   5.237   4.448   4.735
66710SOL     OW 1961  10.816   5.705   6.040
66710SOL    HW1 1962  10.729   5.709   6.001
66710SOL    HW2 1963  10.874   5.739   5.972
66711SOL     OW 1964   0.939  11.509   6.650
66711SOL    HW1 1965   0.847  11.485   6.661
66711SOL    HW2 1966   0.985  11.425   6.639
66712SOL     OW 1967  12.957  10.212  10.066
66712SOL    HW1 1968  13.036  10.157  10.063
66712SOL    HW2 1969  12.964  10.268   9.989
66713SOL     OW 1970  11.564   0.591  13.351
66713SOL    HW1 1971  11.514   0.521  13.393
66713SOL    HW2 1972  11.651   0.585  13.390
66714SOL     OW 1973  12.764   4.083   9.129
66714SOL    HW1 1974  12.741   4.153   9.189
66714SOL    HW2 1975  12.821   4.124   9.064
66715SOL     OW 1976   5.049   6.129   0.211
66715SOL    HW1 1977   5.122   6.187   0.188
66715SOL    HW2 1978   5.048   6.063   0.140
66716SOL     OW 1979  14.598  12.517  13.100
66716SOL    HW1 1980  14.589  12.482  13.011
66716SOL    HW2 1981  14.641  12.446  13.149
66717SOL     OW 1982   8.485   8.359  11.045
66717SOL    HW1 1983   8.459   8.267  11.043
66717SOL    HW2 1984   8.471   8.386  11.136
66718SOL     OW 1985   5.126  13.490   1.039
66718SOL    HW1 1986   5.073  13.431   1.092
66718SOL    HW2 1987   5.186  13.531   1.101
66719SOL     OW 1988   0.779   4.471   2.042
66719SOL    HW1 1989   0.739   4.437   1.962
66719SOL    HW2 1990   0.872   4.481   2.020
66720SOL     OW 1991   7.675   2.802   2.582
66720SOL    HW1 1992   7.763   2.786   2.548
66720SOL    HW2 1993   7.690   2.843   2.667
66721SOL     OW 1994   4.377   0.892   3.483
66721SOL    HW1 1995   4.330   0.817   3.518
66721SOL    HW2 1996   4.333   0.911   3.400
66722SOL     OW 1997   8.295   3.172  13.699
66722SOL    HW1 1998   8.374   3.118  13.697
66722SOL    HW2 1999   8.311   3.237  13.767
66723SOL     OW 2000   7.925   7.713   2.916
66723SOL    HW1 2001   7.838   7.678   2.894
66723SOL    HW2 2002   7.907   7.801   2.951
66724SOL     OW 2003  12.244  12.463   1.635
66724SOL    HW1 2004  12.234  12.469   1.730
66724SOL    HW2 2005  12.156  12.475   1.600
66725SOL     OW 2006   5.855  10.079   8.090
66725SOL    HW1 2007   5.905  10.029   8.024
66725SOL    HW2 2008   5.779  10.112   8.042
66726SOL     OW 2009  14.442  11.282   5.343
66726SOL    HW1 2010  14.455  11.366   5.388
66726SOL    HW2 2011  14.361  11.247   5.380
66727SOL     OW 2012  13.615   9.315   7.509
66727SOL    HW1 2013  13.701   9.326   7.549
66727SOL    HW2 2014  13.591   9.224   7.527
66728SOL     OW 2015   7.926  14.623  12.116
66728SOL    HW1 2016   7.962  14.555  12.060
66728SOL    HW2 2017   7.831  14.612  12.110
66729SOL     OW 2018   7.401   5.816  14.509
66729SOL    HW1 2019   7.346   5.872  14.455
66729SOL    HW2 2020   7.487   5.821  14.469
66730SOL     OW 2021   5.678   1.150   1.405
66730SOL    HW1 2022   5.624   1.170   1.482
66730SOL    HW2 2023   5.617   1.108   1.344
66731SOL     OW 2024  11.209   7.452  11.476
66731SOL    HW1 2025  11.287   7.402  11.498
66731SOL    HW2 2026  11.137   7.400  11.510
66732SOL     OW 2027   7.827  11.002   3.166
66732SOL    HW1 2028   7.884  11.019   3.091
66732SOL    HW2 2029   7.757  11.067   3.157
66733SOL     OW 2030   7.815   6.878   9.763
66733SOL    HW1 2031   7.841   6.923   9.843
66733SOL    HW2 2032   7.742   6.822   9.789
66734SOL     OW 2033   6.788   7.540  13.866
66734SOL    HW1 2034   6.712   7.576  13.820
66734SOL    HW2 2035   6.754   7.461  13.909
66735SOL     OW 2036   4.920   8.978   4.407
66735SOL    HW1 2037   5.010   8.975   4.375
66735SOL    HW2 2038   4.905   8.891   4.445
66736SOL     OW 2039   7.266   7.364   6.947
66736SOL    HW1 2040   7.353   7.377   6.984
66736SOL    HW2 2041   7.241   7.451   6.913
66737SOL     OW 2042   1.465   1.119   9.142
66737SOL    HW1 2043   1.531   1.188   9.143
66737SOL    HW2 2044   1.514   1.039   9.161
66738SOL     OW 2045  11.112   5.002   1.880
66738SOL    HW1 2046  11.026   4.992   1.838
66738SOL    HW2 2047  11.140   4.913   1.900
66739SOL     OW 2048  13.373  10.646   2.499
66739SOL    HW1 2049  13.461  10.646   2.461
66739SOL    HW2 2050  13.387  10.624   2.592
66740SOL     OW 2051   3.185   6.179  14.023
66740SOL    HW1 2052   3.111   6.238  14.008
66740SOL    HW2 2053   3.151   6.092  14.006
66741SOL     OW 2054   7.394   5.617  14.731
66741SOL    HW1 2055   7.389   5.684  14.662
66741SOL    HW2 2056   7.488   5.597  14.737
66742SOL     OW 2057   8.883   5.172   7.830
66742SOL    HW1 2058   8.876   5.268   7.829
66742SOL    HW2 2059   8.827   5.145   7.903
66743SOL     OW 2060  11.646   3.872   2.581
66743SOL    HW1 2061  11.694   3.953   2.598
66743SOL    HW2 2062  11.653   3.859   2.486
66744SOL     OW 2063   6.191   0.866   5.347
66744SOL    HW1 2064   6.160   0.804   5.413
66744SOL    HW2 2065   6.124   0.866   5.279
66745SOL     OW 2066   1.279  11.616   1.134
66745SOL    HW1 2067   1.328  11.675   1.192
66745SOL    HW2 2068   1.257  11.670   1.058
66746SOL     OW 2069  13.775  13.928   1.907
66746SOL    HW1 2070  13.685  13.900   1.891
66746SOL    HW2 2071  13.827  13.883   1.840
66747SOL     OW 2072   0.917  12.129   3.640
66747SOL    HW1 2073   0.877  12.120   3.726
66747SOL    HW2 2074   0.984  12.197   3.650
66748SOL     OW 2075   8.850   5.765  12.751
66748SOL    HW1 2076   8.887   5.794  12.834
66748SOL    HW2 2077   8.831   5.846  12.703
66749SOL     OW 2078   3.843  11.125   6.817
66749SOL    HW1 2079   3.803  11.199   6.863
66749SOL    HW2 2080   3.918  11.101   6.872
66750SOL     OW 2081   6.833   4.745   7.971
66750SOL    HW1 2082   6.879   4.803   7.911
66750SOL    HW2 2083   6.741   4.754   7.948
66751SOL     OW 2084   6.177   3.607   2.553
66751SOL    HW1 2085   6.216   3.664   2.620
66751SOL    HW2 2086   6.232   3.622   2.476
66752SOL     OW 2087  10.625   9.015  11.644
66752SOL    HW1 2088  10.583   8.944  11.596
66752SOL    HW2 2089  10.703   9.036  11.592
66753SOL     OW 2090   4.335   2.716  11.296
66753SOL    HW1 2091   4.273   2.697  11.366
66753SOL    HW2 2092   4.367   2.630  11.269
66754SOL     OW 2093   7.844   0.060  12.290
66754SOL    HW1 2094   7.844   0.045  12.196
66754SOL    HW2 2095   7.889  14.866  12.327
66755SOL     OW 2096  13.260   3.118  13.207
66755SOL    HW1 2097  13.172   3.130  13.242
66755SOL    HW2 2098  13.248   3.067  13.127
66756SOL     OW 2099   1.596   8.121   6.646
66756SOL    HW1 2100   1.602   8.037   6.691
66756SOL    HW2 2101   1.611   8.186   6.715
66757SOL     OW 2102  10.271   2.122   2.255
66757SOL    HW1 2103  10.243   2.076   2.333
66757SOL    HW2 2104  10.305   2.206   2.287
66758SOL     OW 2105   0.367  14.652  12.749
66758SOL    HW1 2106   0.298  14.677  12.810
66758SOL    HW2 2107   0.441  14.709  12.772
66759SOL     OW 2108  14.158  12.697   9.444
66759SOL    HW1 2109  14.205  12.615   9.433
66759SOL    HW2 2110  14.169  12.743   9.361
66760SOL     OW 2111  14.521   6.660  10.598
66760SOL    HW1 2112  14.613   6.668  10.572
66760SOL    HW2 2113  14.488   6.749  10.598
66761SOL     OW 2114   7.472  10.918   0.170
66761SOL    HW1 2115   7.538  10.959   0.113
66761SOL    HW2 2116   7.448  10.986   0.233
66762SOL     OW 2117   2.080  12.318   1.652
66762SOL    HW1 2118   2.151  12.346   1.594
66762SOL    HW2 2119   2.096  12.365   1.734
66763SOL     OW 2120   0.837   3.306   8.992
66763SOL    HW1 2121   0.794   3.389   9.012
66763SOL    HW2 2122   0.765   3.244   8.984
66764SOL     OW 2123   7.130   2.736  10.764
66764SOL    HW1 2124   7.161   2.796  10.696
66764SOL    HW2 2125   7.100   2.659  10.717
66765SOL     OW 2126  11.694   9.577   3.746
66765SOL    HW1 2127  11.715   9.555   3.837
66765SOL    HW2 2128  11.646   9.659   3.751
66766SOL     OW 2129   6.095  13.042  14.137
66766SOL    HW1 2130   6.163  13.066  14.200
66766SOL    HW2 2131   6.081  12.949  14.151
66767SOL     OW 2132   0.734   1.942   3.776
66767SOL    HW1 2133   0.688   1.875   3.725
66767SOL    HW2 2134   0.764   2.005   3.710
66768SOL     OW 2135   9.835   2.399  11.306
66768SOL    HW1 2136   9.765   2.443  11.258
66768SOL    HW2 2137   9.794   2.320  11.340
66769SOL     OW 2138   6.928   9.487   7.836
66769SOL    HW1 2139   6.940   9.410   7.781
66769SOL    HW2 2140   6.998   9.547   7.809
66770SOL     OW 2141  10.314  12.027   8.245
66770SOL    HW1 2142  10.316  12.011   8.340
66770SOL    HW2 2143  10.406  12.029   8.219
66771SOL     OW 2144   9.058   0.445  13.890
66771SOL    HW1 2145   9.010   0.527  13.897
66771SOL    HW2 2146   9.130   0.464  13.830
66772SOL     OW 2147   0.004   9.056   7.736
66772SOL    HW1 2148   0.021   9.003   7.657
66772SOL    HW2 2149  14.790   9.054   7.745
66773SOL     OW 2150  13.125  13.882   6.094
66773SOL    HW1 2151  13.093  13.963   6.054
66773SOL    HW2 2152  13.219  13.881   6.075
66774SOL     OW 2153  11.890  11.731   4.830
66774SOL    HW1 2154  11.844  11.709   4.749
66774SOL    HW2 2155  11.834  11.695   4.899
66775SOL     OW 2156   9.295   1.090   5.723
66775SOL    HW1 2157   9.203   1.089   5.699
66775SOL    HW2 2158   9.342   1.081   5.640
66776SOL     OW 2159   8.417   8.794  12.772
66776SOL    HW1 2160   8.376   8.757  12.850
66776SOL    HW2 2161   8.358   8.772  12.701
66777SOL     OW 2162  13.681   1.496   4.051
66777SOL    HW1 2163  13.654   1.525   3.964
66777SOL    HW2 2164  13.739   1.422   4.036
66778SOL     OW 2165   5.535  13.460   7.166
66778SOL    HW1 2166   5.522  13.543   7.120
66778SOL    HW2 2167   5.543  13.395   7.096
66779SOL     OW 2168  13.465   2.384  11.600
66779SOL    HW1 2169  13.396   2.434  11.642
66779SOL    HW2 2170  13.527   2.364  11.670
66780SOL     OW 2171   7.299   9.129   0.547
66780SOL    HW1 2172   7.280   9.182   0.625
66780SOL    HW2 2173   7.390   9.149   0.527
66781SOL     OW 2174   6.361   2.720  12.023
66781SOL    HW1 2175   6.308   2.720  11.943
66781SOL    HW2 2176   6.443   2.762  11.996
66782SOL     OW 2177   1.139   9.713   8.253
66782SOL    HW1 2178   1.154   9.620   8.232
66782SOL    HW2 2179   1.053   9.732   8.216
66783SOL     OW 2180  10.859  14.144   4.361
66783SOL    HW1 2181  10.850  14.069   4.420
66783SOL    HW2 2182  10.813  14.117   4.281
66784SOL     OW 2183   6.735  12.848  10.558
66784SOL    HW1 2184   6.767  12.843  10.648
66784SOL    HW2 2185   6.725  12.942  10.541
66785SOL     OW 2186   5.482  13.045   2.186
66785SOL    HW1 2187   5.427  13.121   2.169
66785SOL    HW2 2188   5.492  13.043   2.281
66786SOL     OW 2189  11.422  10.018  14.855
66786SOL    HW1 2190  11.490  10.029  14.788
66786SOL    HW2 2191  11.455   9.949   0.030
66787SOL     OW 2192  13.804   8.198   2.376
66787SOL    HW1 2193  13.712   8.222   2.368
66787SOL    HW2 2194  13.849   8.249   2.308
66788SOL     OW 2195   1.083   3.077   5.251
66788SOL    HW1 2196   1.046   3.004   5.201
66788SOL    HW2 2197   1.056   3.060   5.341
66789SOL     OW 2198   8.546  14.484  10.344
66789SOL    HW1 2199   8.575  14.539  10.271
66789SOL    HW2 2200   8.574  14.396  10.320
66790SOL     OW 2201  11.707   7.802   7.976
66790SOL    HW1 2202  11.789   7.837   7.943
66790SOL    HW2 2203  11.660   7.878   8.012
66791SOL     OW 2204  14.581   5.068   1.354
66791SOL    HW1 2205  14.524   5.115   1.416
66791SOL    HW2 2206  14.521   5.011   1.306
66792SOL     OW 2207   3.105   6.988   6.127
66792SOL    HW1 2208   3.109   7.020   6.217
66792SOL    HW2 2209   3.019   7.017   6.095
66793SOL     OW 2210   7.016   1.110   4.098
66793SOL    HW1 2211   7.043   1.021   4.118
66793SOL    HW2 2212   7.005   1.152   4.184
66794SOL     OW 2213   6.282   8.838  10.729
66794SOL    HW1 2214   6.284   8.747  10.760
66794SOL    HW2 2215   6.284   8.831  10.634
66795SOL     OW 2216  11.540   2.044   9.341
66795SOL    HW1 2217  11.629   2.074   9.357
66795SOL    HW2 2218  11.551   1.961   9.294
66796SOL     OW 2219  12.242   3.529   6.998
66796SOL    HW1 2220  12.319   3.585   6.983
66796SOL    HW2 2221  12.172   3.591   7.019
66797SOL     OW 2222   3.456   3.680  13.350
66797SOL    HW1 2223   3.550   3.690  13.365
66797SOL    HW2 2224   3.440   3.723  13.266
66798SOL     OW 2225   7.613   6.754  11.207
66798SOL    HW1 2226   7.556   6.679  11.224
66798SOL    HW2 2227   7.669   6.760  11.284
66799SOL     OW 2228   7.306  13.733   3.708
66799SOL    HW1 2229   7.360  13.802   3.747
66799SOL    HW2 2230   7.333  13.730   3.616
66800SOL     OW 2231  11.801   0.568  12.017
66800SOL    HW1 2232  11.861   0.511  12.067
66800SOL    HW2 2233  11.836   0.566  11.928
66801SOL     OW 2234   9.075   6.445   0.440
66801SOL    HW1 2235   9.014   6.444   0.366
66801SOL    HW2 2236   9.125   6.364   0.430
66802SOL     OW 2237   8.466   4.737   0.357
66802SOL    HW1 2238   8.501   4.822   0.384
66802SOL    HW2 2239   8.541   4.690   0.320
66803SOL     OW 2240   6.743  11.501   5.090
66803SOL    HW1 2241   6.826  11.546   5.073
66803SOL    HW2 2242   6.730  11.510   5.184
66804SOL     OW 2243  10.328  14.440   7.626
66804SOL    HW1 2244  10.343  14.405   7.538
66804SOL    HW2 2245  10.249  14.394   7.656
66805SOL     OW 2246   3.236   3.450  13.558
66805SOL    HW1 2247   3.179   3.442  13.635
66805SOL    HW2 2248   3.323   3.467  13.594
66806SOL     OW 2249   5.870   6.314   0.994
66806SOL    HW1 2250   5.898   6.373   1.065
66806SOL    HW2 2251   5.854   6.372   0.920
66807SOL     OW 2252  10.687   8.840   5.069
66807SOL    HW1 2253  10.621   8.790   5.116
66807SOL    HW2 2254  10.687   8.926   5.111
66808SOL     OW 2255   9.843   4.208  10.473
66808SOL    HW1 2256   9.876   4.286  10.428
66808SOL    HW2 2257   9.762   4.187  10.427
66809SOL     OW 2258  11.494  14.831   2.105
66809SOL    HW1 2259  11.527   0.001   2.179
66809SOL    HW2 2260  11.480   0.013   2.035
66810SOL     OW 2261   8.145   5.000   4.301
66810SOL    HW1 2262   8.057   4.973   4.275
66810SOL    HW2 2263   8.204   4.939   4.257
66811SOL     OW 2264   4.609   9.931  14.671
66811SOL    HW1 2265   4.551   9.858  14.654
66811SOL    HW2 2266   4.574  10.004  14.620
66812SOL     OW 2267   7.688   5.433   6.787
66812SOL    HW1 2268   7.693   5.356   6.732
66812SOL    HW2 2269   7.723   5.504   6.733
66813SOL     OW 2270   8.092  14.795   1.583
66813SOL    HW1 2271   8.013  14.837   1.617
66813SOL    HW2 2272   8.060  14.731   1.519
66814SOL     OW 2273   9.876   7.000  14.792
66814SOL    HW1 2274   9.821   6.988  14.870
66814SOL    HW2 2275   9.815   7.000  14.719
66815SOL     OW 2276  14.682   2.170   9.746
66815SOL    HW1 2277  14.724   2.120   9.817
66815SOL    HW2 2278  14.650   2.104   9.686
66816SOL     OW 2279  13.587   5.450  14.360
66816SOL    HW1 2280  13.565   5.357  14.365
66816SOL    HW2 2281  13.632   5.469  14.443
66817SOL     OW 2282   6.660   7.459  10.582
66817SOL    HW1 2283   6.690   7.473  10.672
66817SOL    HW2 2284   6.575   7.504  10.578
66818SOL     OW 2285   7.694   2.676  13.919
66818SOL    HW1 2286   7.670   2.587  13.946
66818SOL    HW2 2287   7.640   2.733  13.974
66819SOL     OW 2288  13.351  10.195   0.435
66819SOL    HW1 2289  13.415  10.124   0.431
66819SOL    HW2 2290  13.266  10.151   0.438
66820SOL     OW 2291  11.071   9.454  14.628
66820SOL    HW1 2292  11.048   9.379  14.573
66820SOL    HW2 2293  11.112   9.416  14.705
66821SOL     OW 2294  10.235   1.362  13.282
66821SOL    HW1 2295  10.299   1.297  13.254
66821SOL    HW2 2296  10.184   1.381  13.203
66822SOL     OW 2297  10.147  13.035   9.318
66822SOL    HW1 2298  10.182  12.966   9.375
66822SOL    HW2 2299  10.194  13.023   9.235
66823SOL     OW 2300  13.127   0.506   5.666
66823SOL    HW1 2301  13.090   0.556   5.593
66823SOL    HW2 2302  13.221   0.519   5.660
66824SOL     OW 2303   4.843   5.988  11.642
66824SOL    HW1 2304   4.934   5.969  11.620
66824SOL    HW2 2305   4.824   6.071  11.598
66825SOL     OW 2306  10.917   1.426  12.410
66825SOL    HW1 2307  10.822   1.438  12.406
66825SOL    HW2 2308  10.943   1.417  12.318
66826SOL     OW 2309   9.594  10.992   5.697
66826SOL    HW1 2310   9.555  11.014   5.782
66826SOL    HW2 2311   9.624  11.076   5.662
66827SOL     OW 2312  14.086   2.357   4.088
66827SOL    HW1 2313  14.158   2.306   4.124
66827SOL    HW2 2314  14.050   2.405   4.163
66828SOL     OW 2315   0.235   8.632   0.993
66828SOL    HW1 2316   0.175   8.661   0.924
66828SOL    HW2 2317   0.320   8.623   0.949
66829SOL     OW 2318   4.717   7.303  11.105
66829SOL    HW1 2319   4.733   7.283  11.197
66829SOL    HW2 2320   4.788   7.259  11.058
66830SOL     OW 2321   9.378   7.843   6.280
66830SOL    HW1 2322   9.355   7.896   6.205
66830SOL    HW2 2323   9.317   7.770   6.279
66831SOL     OW 2324   0.595  11.764   0.486
66831SOL    HW1 2325   0.551  11.843   0.517
66831SOL    HW2 2326   0.598  11.707   0.563
66832SOL     OW 2327   9.296   9.268   8.111
66832SOL    HW1 2328   9.349   9.272   8.191
66832SOL    HW2 2329   9.316   9.182   8.074
66833SOL     OW 2330  14.424  12.942   1.121
66833SOL    HW1 2331  14.422  12.995   1.041
66833SOL    HW2 2332  14.501  12.887   1.112
66834SOL     OW 2333   1.005  13.660  14.123
66834SOL    HW1 2334   1.074  13.636  14.062
66834SOL    HW2 2335   1.018  13.753  14.139
66835SOL     OW 2336   7.756   0.232   0.346
66835SOL    HW1 2337   7.740   0.180   0.267
66835SOL    HW2 2338   7.693   0.304   0.339
66836SOL     OW 2339   5.483   7.679  10.265
66836SOL    HW1 2340   5.508   7.607  10.323
66836SOL    HW2 2341   5.405   7.717  10.306
66837SOL     OW 2342   0.692   9.273   7.920
66837SOL    HW1 2343   0.682   9.293   7.827
66837SOL    HW2 2344   0.686   9.177   7.924
66838SOL     OW 2345   6.526   5.059   9.169
66838SOL    HW1 2346   6.608   5.104   9.151
66838SOL    HW2 2347   6.472   5.072   9.091
66839SOL     OW 2348   4.244   1.392   4.925
66839SOL    HW1 2349   4.295   1.384   5.005
66839SOL    HW2 2350   4.176   1.324   4.933
66840SOL     OW 2351   1.850  10.544  10.132
66840SOL    HW1 2352   1.860  10.605  10.059
66840SOL    HW2 2353   1.813  10.465  10.092
66841SOL     OW 2354   7.975   5.568   7.742
66841SOL    HW1 2355   7.926   5.517   7.677
66841SOL    HW2 2356   7.908   5.623   7.784
66842SOL     OW 2357   9.137  10.876   3.353
66842SOL    HW1 2358   9.043  10.879   3.371
66842SOL    HW2 2359   9.156  10.958   3.308
66843SOL     OW 2360   5.364  11.417  11.238
66843SOL    HW1 2361   5.384  11.459  11.322
66843SOL    HW2 2362   5.440  11.436  11.183
66844SOL     OW 2363   2.056   4.207  10.920
66844SOL    HW1 2364   2.136   4.258  10.911
66844SOL    HW2 2365   2.080   4.134  10.978
66845SOL     OW 2366  10.055   9.491   2.881
66845SOL    HW1 2367  10.024   9.561   2.939
66845SOL    HW2 2368  10.012   9.508   2.797
66846SOL     OW 2369  11.008   3.709   9.529
66846SOL    HW1 2370  11.082   3.752   9.486
66846SOL    HW2 2371  11.044   3.671   9.608
66847SOL     OW 2372  11.563   3.051  10.283
66847SOL    HW1 2373  11.649   3.073  10.319
66847SOL    HW2 2374  11.524   3.136  10.261
66848SOL     OW 2375   8.003   8.382  11.823
66848SOL    HW1 2376   7.928   8.418  11.872
66848SOL    HW2 2377   8.077   8.394  11.882
66849SOL     OW 2378   3.714  10.396   7.327
66849SOL    HW1 2379   3.629  10.367   7.362
66849SOL    HW2 2380   3.778  10.341   7.372
66850SOL     OW 2381  11.970   4.225  11.924
66850SOL    HW1 2382  11.977   4.147  11.869
66850SOL    HW2 2383  11.897   4.275  11.887
66851SOL     OW 2384   4.452   8.447   6.716
66851SOL    HW1 2385   4.526   8.502   6.689
66851SOL    HW2 2386   4.465   8.365   6.669
66852SOL     OW 2387   7.715  10.921   9.027
66852SOL    HW1 2388   7.717  10.826   9.035
66852SOL    HW2 2389   7.764  10.953   9.103
66853SOL     OW 2390   4.701   4.747  12.794
66853SOL    HW1 2391   4.720   4.773  12.704
66853SOL    HW2 2392   4.618   4.700  12.789
66854SOL     OW 2393  12.876  10.347  10.780
66854SOL    HW1 2394  12.789  10.357  10.820
66854SOL    HW2 2395  12.934  10.398  10.838
66855SOL     OW 2396  10.194   5.137  14.854
66855SOL    HW1 2397  10.137   5.195   0.022
66855SOL    HW2 2398  10.282   5.173  14.867
66856SOL     OW 2399  13.059  11.683   2.243
66856SOL    HW1 2400  13.056  11.727   2.328
66856SOL    HW2 2401  13.093  11.750   2.183
66857SOL     OW 2402   8.069  10.981  10.150
66857SOL    HW1 2403   8.015  10.972  10.228
66857SOL    HW2 2404   8.148  11.027  10.180
66858SOL     OW 2405  11.449  12.961   2.154
66858SOL    HW1 2406  11.451  12.977   2.249
66858SOL    HW2 2407  11.407  13.039   2.118
66859SOL     OW 2408   9.071   8.176   7.291
66859SOL    HW1 2409   9.086   8.085   7.318
66859SOL    HW2 2410   9.138   8.192   7.224
66860SOL     OW 2411   5.600   0.928   8.651
66860SOL    HW1 2412   5.600   0.927   8.555
66860SOL    HW2 2413   5.679   0.880   8.675
66861SOL     OW 2414  14.247   6.095  14.315
66861SOL    HW1 2415  14.276   6.175  14.271
66861SOL    HW2 2416  14.153   6.108  14.327
66862SOL     OW 2417   2.567   6.604  12.771
66862SOL    HW1 2418   2.582   6.542  12.699
66862SOL    HW2 2419   2.472   6.605  12.783
66863SOL     OW 2420  14.704   1.173   0.733
66863SOL    HW1 2421  14.650   1.095   0.741
66863SOL    HW2 2422  14.770   1.163   0.801
66864SOL     OW 2423   7.326   9.009   7.336
66864SOL    HW1 2424   7.306   9.091   7.380
66864SOL    HW2 2425   7.416   8.989   7.364
66865SOL     OW 2426   5.495   3.529  10.999
66865SOL    HW1 2427   5.406   3.506  11.026
66865SOL    HW2 2428   5.551   3.500  11.072
66866SOL     OW 2429  10.835  13.117   1.541
66866SOL    HW1 2430  10.858  13.028   1.568
66866SOL    HW2 2431  10.791  13.105   1.456
66867SOL     OW 2432   1.682   8.422  14.304
66867SOL    HW1 2433   1.652   8.336  14.273
66867SOL    HW2 2434   1.736   8.455  14.233
66868SOL     OW 2435   2.525   3.583   9.049
66868SOL    HW1 2436   2.445   3.607   9.002
66868SOL    HW2 2437   2.589   3.648   9.021
66869SOL     OW 2438  10.298   8.871  10.572
66869SOL    HW1 2439  10.306   8.948  10.515
66869SOL    HW2 2440  10.329   8.901  10.658
66870SOL     OW 2441   1.016   4.221  11.919
66870SOL    HW1 2442   1.072   4.284  11.874
66870SOL    HW2 2443   1.055   4.136  11.897
66871SOL     OW 2444   1.649   3.898   6.582
66871SOL    HW1 2445   1.735   3.864   6.606
66871SOL    HW2 2446   1.612   3.931   6.664
66872SOL     OW 2447  12.372   7.882  13.620
66872SOL    HW1 2448  12.466   7.869  13.607
66872SOL    HW2 2449  12.354   7.844  13.706
66873SOL     OW 2450   7.938   3.152   0.580
66873SOL    HW1 2451   7.873   3.099   0.627
66873SOL    HW2 2452   7.925   3.128   0.488
66874SOL     OW 2453   4.045   4.965  14.571
66874SOL    HW1 2454   4.074   4.976  14.480
66874SOL    HW2 2455   4.120   4.993  14.624
66875SOL     OW 2456  13.313  12.230   5.914
66875SOL    HW1 2457  13.385  12.190   5.865
66875SOL    HW2 2458  13.246  12.161   5.919
66876SOL     OW 2459   7.869   0.629  12.808
66876SOL    HW1 2460   7.874   0.644  12.714
66876SOL    HW2 2461   7.843   0.538  12.817
66877SOL     OW 2462  14.526  10.653   2.917
66877SOL    HW1 2463  14.439  10.628   2.888
66877SOL    HW2 2464  14.512  10.726   2.978
66878SOL     OW 2465   3.406  12.180  14.087
66878SOL    HW1 2466   3.358  12.170  14.005
66878SOL    HW2 2467   3.498  12.176  14.061
66879SOL     OW 2468   3.088   0.804   0.920
66879SOL    HW1 2469   3.015   0.846   0.965
66879SOL    HW2 2470   3.071   0.821   0.827
66880SOL     OW 2471   0.727   6.144   3.323
66880SOL    HW1 2472   0.674   6.072   3.288
66880SOL    HW2 2473   0.668   6.220   3.321
66881SOL     OW 2474   7.483  12.551   1.662
66881SOL    HW1 2475   7.549  12.619   1.647
66881SOL    HW2 2476   7.412  12.596   1.708
66882SOL     OW 2477  11.441   0.304   7.545
66882SOL    HW1 2478  11.355   0.303   7.586
66882SOL    HW2 2479  11.488   0.375   7.589
66883SOL     OW 2480   9.753   2.340  14.586
66883SOL    HW1 2481   9.700   2.296  14.653
66883SOL    HW2 2482   9.742   2.287  14.508
66884SOL     OW 2483   9.879   0.314   3.355
66884SOL    HW1 2484   9.876   0.409   3.371
66884SOL    HW2 2485   9.971   0.297   3.334
66885SOL     OW 2486   9.117  14.284  10.223
66885SOL    HW1 2487   9.150  14.366  10.187
66885SOL    HW2 2488   9.075  14.241  10.148
66886SOL     OW 2489   4.016  11.637   0.147
66886SOL    HW1 2490   4.017  11.719   0.196
66886SOL    HW2 2491   3.958  11.580   0.198
66887SOL     OW 2492  12.238   2.792   6.073
66887SOL    HW1 2493  12.232   2.841   5.992
66887SOL    HW2 2494  12.233   2.700   6.046
66888SOL     OW 2495   3.137   8.661   0.472
66888SOL    HW1 2496   3.156   8.667   0.378
66888SOL    HW2 2497   3.044   8.682   0.479
66889SOL     OW 2498   5.160   0.771   2.675
66889SOL    HW1 2499   5.072   0.751   2.705
66889SOL    HW2 2500   5.217   0.710   2.722
66890SOL     OW 2501   1.534  10.071   5.237
66890SOL    HW1 2502   1.591  10.139   5.202
66890SOL    HW2 2503   1.559  10.062   5.329
66891SOL     OW 2504   2.066  13.786   5.899
66891SOL    HW1 2505   2.043  13.786   5.992
66891SOL    HW2 2506   1.985  13.810   5.854
66892SOL     OW 2507   0.391  10.108  11.262
66892SOL    HW1 2508   0.470  10.100  11.209
66892SOL    HW2 2509   0.364  10.018  11.278
66893SOL     OW 2510   0.947   3.122   6.643
66893SOL    HW1 2511   0.939   3.027   6.652
66893SOL    HW2 2512   0.913   3.142   6.556
66894SOL     OW 2513  13.883  10.206   5.160
66894SOL    HW1 2514  13.903  10.226   5.069
66894SOL    HW2 2515  13.949  10.142   5.186
66895SOL     OW 2516  10.721  10.836  13.326
66895SOL    HW1 2517  10.799  10.875  13.286
66895SOL    HW2 2518  10.648  10.883  13.286
66896SOL     OW 2519  11.586  10.192   7.036
66896SOL    HW1 2520  11.502  10.213   7.074
66896SOL    HW2 2521  11.567  10.123   6.971
66897SOL     OW 2522   8.297  10.519  10.959
66897SOL    HW1 2523   8.202  10.526  10.957
66897SOL    HW2 2524   8.325  10.588  11.019
66898SOL     OW 2525   7.762   2.873   1.318
66898SOL    HW1 2526   7.844   2.896   1.362
66898SOL    HW2 2527   7.736   2.791   1.361
66899SOL     OW 2528   4.988   5.063   9.910
66899SOL    HW1 2529   4.930   5.139   9.918
66899SOL    HW2 2530   5.008   5.039  10.000
66900SOL     OW 2531  12.152   6.367   5.365
66900SOL    HW1 2532  12.123   6.434   5.427
66900SOL    HW2 2533  12.123   6.399   5.280
66901SOL     OW 2534   3.830   1.439   1.592
66901SOL    HW1 2535   3.860   1.368   1.648
66901SOL    HW2 2536   3.876   1.517   1.624
66902SOL     OW 2537   8.074  11.489  11.116
66902SOL    HW1 2538   8.069  11.448  11.203
66902SOL    HW2 2539   8.028  11.428  11.059
66903SOL     OW 2540   5.348  11.327   4.856
66903SOL    HW1 2541   5.340  11.399   4.794
66903SOL    HW2 2542   5.277  11.267   4.833
66904SOL     OW 2543   0.505   8.953   3.294
66904SOL    HW1 2544   0.415   8.933   3.321
66904SOL    HW2 2545   0.513   8.914   3.207
66905SOL     OW 2546   7.831  14.721   7.155
66905SOL    HW1 2547   7.880  14.793   7.195
66905SOL    HW2 2548   7.875  14.642   7.187
66906SOL     OW 2549  14.082   6.736   8.064
66906SOL    HW1 2550  14.152   6.758   8.125
66906SOL    HW2 2551  14.127   6.703   7.986
66907SOL     OW 2552   9.742   7.656   5.559
66907SOL    HW1 2553   9.800   7.712   5.610
66907SOL    HW2 2554   9.779   7.569   5.566
66908SOL     OW 2555  13.070   8.322   3.730
66908SOL    HW1 2556  12.982   8.354   3.711
66908SOL    HW2 2557  13.086   8.351   3.820
66909SOL     OW 2558   8.226   8.662   9.178
66909SOL    HW1 2559   8.174   8.620   9.247
66909SOL    HW2 2560   8.308   8.612   9.176
66910SOL     OW 2561   1.614   7.379  13.794
66910SOL    HW1 2562   1.534   7.327  13.799
66910SOL    HW2 2563   1.653   7.356  13.709
66911SOL     OW 2564   0.198  10.538   3.798
66911SOL    HW1 2565   0.116  10.496   3.824
66911SOL    HW2 2566   0.204  10.521   3.704
66912SOL     OW 2567   0.219  13.319   4.419
66912SOL    HW1 2568   0.188  13.371   4.345
66912SOL    HW2 2569   0.275  13.379   4.469
66913SOL     OW 2570   3.212  13.236   0.880
66913SOL    HW1 2571   3.270  13.231   0.804
66913SOL    HW2 2572   3.169  13.150   0.883
66914SOL     OW 2573  14.704   4.433   5.687
66914SOL    HW1 2574  14.754   4.429   5.769
66914SOL    HW2 2575  14.670   4.345   5.675
66915SOL     OW 2576  14.270   7.898   4.448
66915SOL    HW1 2577  14.325   7.971   4.424
66915SOL    HW2 2578  14.299   7.826   4.392
66916SOL     OW 2579  10.243  11.680   8.387
66916SOL    HW1 2580  10.330  11.642   8.375
66916SOL    HW2 2581  10.222  11.665   8.479
66917SOL     OW 2582  12.796   5.329  12.069
66917SOL    HW1 2583  12.892   5.330  12.078
66917SOL    HW2 2584  12.781   5.300  11.979
66918SOL     OW 2585  14.065  13.462   2.019
66918SOL    HW1 2586  14.028  13.375   2.005
66918SOL    HW2 2587  13.989  13.520   2.020
66919SOL     OW 2588   1.199  14.518   4.743
66919SOL    HW1 2589   1.248  14.446   4.704
66919SOL    HW2 2590   1.124  14.476   4.784
66920SOL     OW 2591  13.146   6.066  13.441
66920SOL    HW1 2592  13.092   5.999  13.399
66920SOL    HW2 2593  13.197   6.104  13.369
66921SOL     OW 2594  10.266   4.700  14.469
66921SOL    HW1 2595  10.305   4.740  14.547
66921SOL    HW2 2596  10.286   4.607  14.477
66922SOL     OW 2597   9.242   4.559   0.227
66922SOL    HW1 2598   9.304   4.576   0.156
66922SOL    HW2 2599   9.250   4.466   0.246
66923SOL     OW 2600  14.043   7.487   8.178
66923SOL    HW1 2601  14.087   7.556   8.228
66923SOL    HW2 2602  13.975   7.533   8.129
66924SOL     OW 2603   5.924   2.627   6.931
66924SOL    HW1 2604   6.006   2.579   6.928
66924SOL    HW2 2605   5.943   2.710   6.887
66925SOL     OW 2606  13.288  13.319   6.859
66925SOL    HW1 2607  13.282  13.225   6.847
66925SOL    HW2 2608  13.285  13.356   6.771
66926SOL     OW 2609   8.308  13.891   8.070
66926SOL    HW1 2610   8.227  13.865   8.027
66926SOL    HW2 2611   8.281  13.916   8.159
66927SOL     OW 2612   6.221  12.225   4.701
66927SOL    HW1 2613   6.233  12.264   4.788
66927SOL    HW2 2614   6.268  12.142   4.705
66928SOL     OW 2615  14.098  13.616   8.124
66928SOL    HW1 2616  14.031  13.682   8.107
66928SOL    HW2 2617  14.136  13.641   8.208
66929SOL     OW 2618   3.580   0.203   8.543
66929SOL    HW1 2619   3.610   0.148   8.471
66929SOL    HW2 2620   3.647   0.271   8.550
66930SOL     OW 2621   3.010  12.082   8.408
66930SOL    HW1 2622   3.012  12.101   8.314
66930SOL    HW2 2623   3.006  12.168   8.449
66931SOL     OW 2624   8.934  14.794   6.600
66931SOL    HW1 2625   8.861  14.814   6.658
66931SOL    HW2 2626   8.925  14.701   6.580
66932SOL     OW 2627  12.687  11.580   9.100
66932SOL    HW1 2628  12.713  11.493   9.072
66932SOL    HW2 2629  12.689  11.633   9.020
66933SOL     OW 2630  14.157   1.524   4.627
66933SOL    HW1 2631  14.091   1.455   4.632
66933SOL    HW2 2632  14.240   1.478   4.642
66934SOL     OW 2633   0.728   0.878   8.014
66934SOL    HW1 2634   0.710   0.963   7.974
66934SOL    HW2 2635   0.708   0.889   8.107
66935SOL     OW 2636  12.887   2.548   3.825
66935SOL    HW1 2637  12.860   2.503   3.746
66935SOL    HW2 2638  12.965   2.598   3.799
66936SOL     OW 2639   8.689   9.901   2.521
66936SOL    HW1 2640   8.633   9.956   2.576
66936SOL    HW2 2641   8.677   9.936   2.432
66937SOL     OW 2642   9.799   3.388  14.048
66937SOL    HW1 2643   9.851   3.447  14.102
66937SOL    HW2 2644   9.774   3.317  14.107
66938SOL     OW 2645   4.725   5.423   6.845
66938SOL    HW1 2646   4.726   5.341   6.894
66938SOL    HW2 2647   4.801   5.471   6.876
66939SOL     OW 2648  12.586  14.442  12.822
66939SOL    HW1 2649  12.579  14.434  12.917
66939SOL    HW2 2650  12.527  14.513  12.799
66940SOL     OW 2651   2.006  14.244   1.306
66940SOL    HW1 2652   1.968  14.300   1.238
66940SOL    HW2 2653   2.088  14.287   1.330
66941SOL     OW 2654  14.868   8.783   2.293
66941SOL    HW1 2655   0.005   8.727   2.368
66941SOL    HW2 2656   0.014   8.732   2.217
66942SOL     OW 2657  11.576  14.095   9.653
66942SOL    HW1 2658  11.501  14.113   9.709
66942SOL    HW2 2659  11.578  14.000   9.644
66943SOL     OW 2660  10.195   4.891   4.967
66943SOL    HW1 2661  10.252   4.892   5.044
66943SOL    HW2 2662  10.170   4.982   4.955
66944SOL     OW 2663   9.010   8.919   9.924
66944SOL    HW1 2664   8.920   8.902   9.949
66944SOL    HW2 2665   9.061   8.897  10.002
66945SOL     OW 2666   2.662   0.435   2.178
66945SOL    HW1 2667   2.630   0.357   2.223
66945SOL    HW2 2668   2.598   0.503   2.200
66946SOL     OW 2669   7.479  11.976   3.364
66946SOL    HW1 2670   7.421  12.032   3.415
66946SOL    HW2 2671   7.519  11.918   3.429
66947SOL     OW 2672   4.760  12.504   1.267
66947SOL    HW1 2673   4.847  12.504   1.308
66947SOL    HW2 2674   4.714  12.577   1.309
66948SOL     OW 2675   0.019   9.424   1.670
66948SOL    HW1 2676   0.113   9.443   1.679
66948SOL    HW2 2677  14.880   9.371   1.747
66949SOL     OW 2678   2.178   6.579   4.058
66949SOL    HW1 2679   2.194   6.591   3.965
66949SOL    HW2 2680   2.083   6.584   4.068
66950SOL     OW 2681   5.243   0.655   3.750
66950SOL    HW1 2682   5.301   0.669   3.825
66950SOL    HW2 2683   5.216   0.743   3.723
66951SOL     OW 2684   4.177  11.075   2.260
66951SOL    HW1 2685   4.126  11.090   2.340
66951SOL    HW2 2686   4.262  11.116   2.278
66952SOL     OW 2687  12.221   8.550  10.175
66952SOL    HW1 2688  12.236   8.630  10.125
66952SOL    HW2 2689  12.130   8.527  10.158
66953SOL     OW 2690   1.051   3.353  12.449
66953SOL    HW1 2691   1.142   3.325  12.460
66953SOL    HW2 2692   1.006   3.318  12.525
66954SOL     OW 2693   1.120   6.035  12.150
66954SOL    HW1 2694   1.192   6.072  12.099
66954SOL    HW2 2695   1.111   6.094  12.225
66955SOL     OW 2696  12.901  13.730  10.981
66955SOL    HW1 2697  12.983  13.683  10.960
66955SOL    HW2 2698  12.871  13.688  11.062
66956SOL     OW 2699   8.364  10.142  11.545
66956SOL    HW1 2700   8.368  10.218  11.487
66956SOL    HW2 2701   8.331  10.176  11.628
66957SOL     OW 2702   0.762   6.616   2.847
66957SOL    HW1 2703   0.855   6.633   2.861
66957SOL    HW2 2704   0.759   6.536   2.795
66958SOL     OW 2705   4.635  13.909  10.821
66958SOL    HW1 2706   4.731  13.903  10.824
66958SOL    HW2 2707   4.606  13.818  10.814
66959SOL     OW 2708   9.497   9.230   7.195
66959SOL    HW1 2709   9.579   9.268   7.165
66959SOL    HW2 2710   9.438   9.305   7.205
66960SOL     OW 2711   3.354   5.342  11.824
66960SOL    HW1 2712   3.348   5.262  11.773
66960SOL    HW2 2713   3.369   5.411  11.759
66961SOL     OW 2714   5.479   8.553   4.709
66961SOL    HW1 2715   5.431   8.631   4.738
66961SOL    HW2 2716   5.442   8.534   4.622
66962SOL     OW 2717   5.391   8.794  14.866
66962SOL    HW1 2718   5.407   8.827   0.073
66962SOL    HW2 2719   5.381   8.873  14.813
66963SOL     OW 2720   5.004   2.021   6.341
66963SOL    HW1 2721   4.928   2.077   6.350
66963SOL    HW2 2722   5.057   2.038   6.419
66964SOL     OW 2723   3.845   6.861   5.998
66964SOL    HW1 2724   3.785   6.919   6.043
66964SOL    HW2 2725   3.885   6.809   6.067
66965SOL     OW 2726   8.923   9.374   0.872
66965SOL    HW1 2727   8.861   9.441   0.842
66965SOL    HW2 2728   8.984   9.364   0.799
66966SOL     OW 2729   4.927   1.073  11.523
66966SOL    HW1 2730   4.857   1.009  11.538
66966SOL    HW2 2731   4.911   1.142  11.587
66967SOL     OW 2732   0.066   9.064   5.091
66967SOL    HW1 2733   0.004   9.035   5.024
66967SOL    HW2 2734   0.117   8.986   5.112
66968SOL     OW 2735   2.448   3.133   5.940
66968SOL    HW1 2736   2.422   3.124   6.032
66968SOL    HW2 2737   2.371   3.105   5.891
66969SOL     OW 2738   4.730  12.867   8.242
66969SOL    HW1 2739   4.728  12.914   8.159
66969SOL    HW2 2740   4.685  12.784   8.223
66970SOL     OW 2741   7.819   8.736   1.879
66970SOL    HW1 2742   7.737   8.763   1.921
66970SOL    HW2 2743   7.865   8.684   1.945
66971SOL     OW 2744   1.209   2.504   9.562
66971SOL    HW1 2745   1.193   2.597   9.545
66971SOL    HW2 2746   1.212   2.464   9.475
66972SOL     OW 2747  13.152   8.339   9.471
66972SOL    HW1 2748  13.217   8.400   9.505
66972SOL    HW2 2749  13.112   8.301   9.549
66973SOL     OW 2750  14.729   0.741   5.781
66973SOL    HW1 2751  14.694   0.746   5.691
66973SOL    HW2 2752  14.693   0.659   5.816
66974SOL     OW 2753   4.716  14.348  13.613
66974SOL    HW1 2754   4.745  14.413  13.548
66974SOL    HW2 2755   4.776  14.275  13.602
66975SOL     OW 2756   3.791   1.249   5.947
66975SOL    HW1 2757   3.835   1.164   5.943
66975SOL    HW2 2758   3.728   1.241   6.019
66976SOL     OW 2759   6.836   1.935   8.737
66976SOL    HW1 2760   6.769   2.001   8.755
66976SOL    HW2 2761   6.832   1.921   8.643
66977SOL     OW 2762   1.025   0.071   3.070
66977SOL    HW1 2763   1.027   0.017   2.990
66977SOL    HW2 2764   0.968   0.144   3.048
66978SOL     OW 2765   3.781  12.154   8.025
66978SOL    HW1 2766   3.720  12.224   8.049
66978SOL    HW2 2767   3.779  12.094   8.099
66979SOL     OW 2768  14.060  12.326   8.592
66979SOL    HW1 2769  14.079  12.385   8.519
66979SOL    HW2 2770  14.091  12.373   8.669
66980SOL     OW 2771   3.192   4.532   5.291
66980SOL    HW1 2772   3.249   4.482   5.233
66980SOL    HW2 2773   3.126   4.469   5.321
66981SOL     OW 2774   7.667  12.469  12.964
66981SOL    HW1 2775   7.647  12.378  12.942
66981SOL    HW2 2776   7.742  12.463  13.024
66982SOL     OW 2777   7.164   9.450   3.062
66982SOL    HW1 2778   7.255   9.445   3.093
66982SOL    HW2 2779   7.170   9.488   2.975
66983SOL     OW 2780   6.456   4.756  13.154
66983SOL    HW1 2781   6.385   4.698  13.182
66983SOL    HW2 2782   6.422   4.801  13.076
66984SOL     OW 2783   8.126   9.752  12.312
66984SOL    HW1 2784   8.128   9.688  12.240
66984SOL    HW2 2785   8.166   9.706  12.386
66985SOL     OW 2786  12.149   4.319   3.025
66985SOL    HW1 2787  12.079   4.259   3.051
66985SOL    HW2 2788  12.130   4.399   3.074
66986SOL     OW 2789  11.776   5.321   0.904
66986SOL    HW1 2790  11.682   5.304   0.905
66986SOL    HW2 2791  11.796   5.339   0.812
66987SOL     OW 2792  13.261   1.652   7.943
66987SOL    HW1 2793  13.183   1.706   7.927
66987SOL    HW2 2794  13.244   1.609   8.026
66988SOL     OW 2795   2.529   9.526  13.469
66988SOL    HW1 2796   2.604   9.559  13.519
66988SOL    HW2 2797   2.566   9.461  13.409
66989SOL     OW 2798  13.029  14.599   8.537
66989SOL    HW1 2799  13.070  14.524   8.579
66989SOL    HW2 2800  13.076  14.675   8.571
66990SOL     OW 2801   3.945  13.239  13.076
66990SOL    HW1 2802   3.853  13.261  13.068
66990SOL    HW2 2803   3.968  13.200  12.992
66991SOL     OW 2804   1.227  10.093   9.138
66991SOL    HW1 2805   1.148  10.061   9.180
66991SOL    HW2 2806   1.197  10.166   9.083
66992SOL     OW 2807   9.111   1.472  12.741
66992SOL    HW1 2808   9.036   1.504  12.690
66992SOL    HW2 2809   9.183   1.471  12.678
66993SOL     OW 2810   0.510  12.570   9.767
66993SOL    HW1 2811   0.566  12.503   9.728
66993SOL    HW2 2812   0.527  12.564   9.861
66994SOL     OW 2813   2.857   4.671   0.206
66994SOL    HW1 2814   2.935   4.625   0.173
66994SOL    HW2 2815   2.787   4.644   0.147
66995SOL     OW 2816   5.927  11.849   7.865
66995SOL    HW1 2817   5.870  11.848   7.942
66995SOL    HW2 2818   5.959  11.939   7.860
66996SOL     OW 2819   4.285   5.106   0.368
66996SOL    HW1 2820   4.344   5.097   0.442
66996SOL    HW2 2821   4.207   5.056   0.393
66997SOL     OW 2822  11.128  11.954  11.121
66997SOL    HW1 2823  11.222  11.964  11.135
66997SOL    HW2 2824  11.122  11.894  11.046
66998SOL     OW 2825  11.154   0.120   6.950
66998SOL    HW1 2826  11.070   0.153   6.982
66998SOL    HW2 2827  11.179   0.053   7.015
66999SOL     OW 2828   1.325   7.482   8.262
66999SOL    HW1 2829   1.396   7.435   8.219
66999SOL    HW2 2830   1.286   7.419   8.322
67000SOL     OW 2831   7.590  14.441  13.395
67000SOL    HW1 2832   7.651  14.452  13.321
67000SOL    HW2 2833   7.628  14.495  13.465
67001SOL     OW 2834   5.422   5.399   4.058
67001SOL    HW1 2835   5.469   5.481   4.071
67001SOL    HW2 2836   5.401   5.397   3.965
67002SOL     OW 2837  10.307   8.141   0.118
67002SOL    HW1 2838  10.237   8.091   0.075
67002SOL    HW2 2839  10.273   8.160   0.205
67003SOL     OW 2840  14.010   8.734  14.742
67003SOL    HW1 2841  14.033   8.726  14.649
67003SOL    HW2 2842  13.918   8.759  14.742
67004SOL     OW 2843   1.454  14.514   9.871
67004SOL    HW1 2844   1.478  14.560   9.951
67004SOL    HW2 2845   1.528  14.527   9.812
67005SOL     OW 2846  13.008   4.338   9.953
67005SOL    HW1 2847  13.087   4.284   9.959
67005SOL    HW2 2848  12.958   4.298   9.882
67006SOL     OW 2849  11.832  12.719   0.540
67006SOL    HW1 2850  11.762  12.714   0.606
67006SOL    HW2 2851  11.895  12.780   0.576
67007SOL     OW 2852  12.205   2.733   2.895
67007SOL    HW1 2853  12.299   2.741   2.881
67007SOL    HW2 2854  12.195   2.732   2.991
67008SOL     OW 2855   1.738  14.642  12.486
67008SOL    HW1 2856   1.832  14.639  12.502
67008SOL    HW2 2857   1.699  14.604  12.565
67009SOL     OW 2858  10.336  14.795  13.722
67009SOL    HW1 2859  10.391  14.847  13.780
67009SOL    HW2 2860  10.295  14.858  13.664
67010SOL     OW 2861   1.676   8.413   6.829
67010SOL    HW1 2862   1.687   8.329   6.875
67010SOL    HW2 2863   1.591   8.445   6.859
67011SOL     OW 2864   9.632   0.121   3.514
67011SOL    HW1 2865   9.640   0.026   3.504
67011SOL    HW2 2866   9.605   0.134   3.605
67012SOL     OW 2867   3.940  12.652   8.645
67012SOL    HW1 2868   3.910  12.679   8.558
67012SOL    HW2 2869   3.980  12.731   8.682
67013SOL     OW 2870  14.554   3.656  10.423
67013SOL    HW1 2871  14.472   3.606  10.416
67013SOL    HW2 2872  14.581   3.643  10.514
67014SOL     OW 2873   9.634   9.355   2.326
67014SOL    HW1 2874   9.706   9.298   2.355
67014SOL    HW2 2875   9.656   9.375   2.235
67015SOL     OW 2876  14.736   9.928  11.408
67015SOL    HW1 2877  14.796   9.874  11.356
67015SOL    HW2 2878  14.652   9.920  11.364
67016SOL     OW 2879   5.783   7.933   8.997
67016SOL    HW1 2880   5.737   7.986   9.062
67016SOL    HW2 2881   5.714   7.882   8.955
67017SOL     OW 2882   4.622   1.186  10.820
67017SOL    HW1 2883   4.685   1.254  10.798
67017SOL    HW2 2884   4.674   1.116  10.858
67018SOL     OW 2885  13.115   4.043   2.980
67018SOL    HW1 2886  13.162   4.014   2.902
67018SOL    HW2 2887  13.023   4.021   2.962
67019SOL     OW 2888  11.187   4.033   3.356
67019SOL    HW1 2889  11.210   4.069   3.270
67019SOL    HW2 2890  11.175   3.940   3.339
67020SOL     OW 2891   4.004   6.560  12.515
67020SOL    HW1 2892   3.919   6.605  12.506
67020SOL    HW2 2893   4.068   6.624  12.485
67021SOL     OW 2894  12.657   1.549   0.443
67021SOL    HW1 2895  12.705   1.601   0.508
67021SOL    HW2 2896  12.566   1.577   0.452
67022SOL     OW 2897   7.275  12.318   7.444
67022SOL    HW1 2898   7.336  12.380   7.404
67022SOL    HW2 2899   7.262  12.351   7.533
67023SOL     OW 2900  12.571  14.281   9.552
67023SOL    HW1 2901  12.652  14.326   9.575
67023SOL    HW2 2902  12.583  14.255   9.461
67024SOL     OW 2903   1.952  12.107   3.953
67024SOL    HW1 2904   1.904  12.169   4.007
67024SOL    HW2 2905   2.035  12.150   3.934
67025SOL     OW 2906  12.723   8.678   0.586
67025SOL    HW1 2907  12.769   8.758   0.562
67025SOL    HW2 2908  12.662   8.705   0.655
67026SOL     OW 2909  13.927   9.967   0.152
67026SOL    HW1 2910  13.966   9.897   0.205
67026SOL    HW2 2911  13.915  10.039   0.214
67027SOL     OW 2912   2.702   3.140   4.920
67027SOL    HW1 2913   2.707   3.178   4.833
67027SOL    HW2 2914   2.689   3.046   4.904
67028SOL     OW 2915   2.658   7.532  13.820
67028SOL    HW1 2916   2.576   7.497  13.787
67028SOL    HW2 2917   2.679   7.604  13.761
67029SOL     OW 2918  12.646  11.262   3.456
67029SOL    HW1 2919  12.566  11.279   3.506
67029SOL    HW2 2920  12.625  11.185   3.404
67030SOL     OW 2921   6.867   2.811   8.572
67030SOL    HW1 2922   6.828   2.799   8.486
67030SOL    HW2 2923   6.832   2.894   8.604
67031SOL     OW 2924  14.688  10.744   8.319
67031SOL    HW1 2925  14.752  10.723   8.250
67031SOL    HW2 2926  14.685  10.840   8.319
67032SOL     OW 2927  12.807   9.685  12.022
67032SOL    HW1 2928  12.812   9.768  11.975
67032SOL    HW2 2929  12.807   9.619  11.953
67033SOL     OW 2930  10.729  11.499   9.007
67033SOL    HW1 2931  10.727  11.588   9.041
67033SOL    HW2 2932  10.686  11.505   8.922
67034SOL     OW 2933   0.508  10.261   5.865
67034SOL    HW1 2934   0.465  10.341   5.834
67034SOL    HW2 2935   0.528  10.280   5.957
67035SOL     OW 2936   3.778   1.247  13.640
67035SOL    HW1 2937   3.791   1.228  13.733
67035SOL    HW2 2938   3.757   1.162  13.601
67036SOL     OW 2939   2.220  14.180   4.893
67036SOL    HW1 2940   2.315  14.193   4.901
67036SOL    HW2 2941   2.200  14.204   4.803
67037SOL     OW 2942   1.851   8.509  14.081
67037SOL    HW1 2943   1.808   8.461  14.010
67037SOL    HW2 2944   1.917   8.448  14.115
67038SOL     OW 2945   8.511   0.733   2.851
67038SOL    HW1 2946   8.500   0.694   2.938
67038SOL    HW2 2947   8.432   0.786   2.839
67039SOL     OW 2948   9.347  11.353  14.021
67039SOL    HW1 2949   9.332  11.406  14.099
67039SOL    HW2 2950   9.385  11.271  14.055
67040SOL     OW 2951   5.548  13.372   9.617
67040SOL    HW1 2952   5.630  13.417   9.638
67040SOL    HW2 2953   5.568  13.279   9.631
67041SOL     OW 2954   5.872   7.206  14.737
67041SOL    HW1 2955   5.790   7.210  14.787
67041SOL    HW2 2956   5.931   7.155  14.793
67042SOL     OW 2957  13.429   7.178  13.066
67042SOL    HW1 2958  13.405   7.104  13.122
67042SOL    HW2 2959  13.398   7.153  12.979
67043SOL     OW 2960   7.873   7.603  13.936
67043SOL    HW1 2961   7.961   7.641  13.944
67043SOL    HW2 2962   7.870   7.535  14.003
67044SOL     OW 2963   2.417  12.423   8.108
67044SOL    HW1 2964   2.342  12.468   8.069
67044SOL    HW2 2965   2.464  12.386   8.034
67045SOL     OW 2966  11.786  11.003   2.476
67045SOL    HW1 2967  11.735  11.056   2.537
67045SOL    HW2 2968  11.875  11.006   2.511
67046SOL     OW 2969   5.647   7.214   2.589
67046SOL    HW1 2970   5.595   7.294   2.593
67046SOL    HW2 2971   5.727   7.240   2.543
67047SOL     OW 2972   4.066  11.449  14.597
67047SOL    HW1 2973   3.976  11.483  14.600
67047SOL    HW2 2974   4.120  11.521  14.628
67048SOL     OW 2975  12.667   5.317  13.868
67048SOL    HW1 2976  12.699   5.258  13.937
67048SOL    HW2 2977  12.746   5.348  13.825
67049SOL     OW 2978  12.411   9.548   1.683
67049SOL    HW1 2979  12.480   9.609   1.657
67049SOL    HW2 2980  12.447   9.461   1.663
67050SOL     OW 2981   3.283  11.985  11.885
67050SOL    HW1 2982   3.257  12.000  11.976
67050SOL    HW2 2983   3.345  11.913  11.889
67051SOL     OW 2984   4.568   8.196  10.678
67051SOL    HW1 2985   4.663   8.203  10.673
67051SOL    HW2 2986   4.536   8.282  10.652
67052SOL     OW 2987   6.283   0.883  14.222
67052SOL    HW1 2988   6.336   0.917  14.294
67052SOL    HW2 2989   6.193   0.884  14.256
67053SOL     OW 2990   1.345   9.574   7.641
67053SOL    HW1 2991   1.330   9.629   7.718
67053SOL    HW2 2992   1.274   9.511   7.642
67054SOL     OW 2993   4.718   0.701  12.303
67054SOL    HW1 2994   4.808   0.729  12.290
67054SOL    HW2 2995   4.666   0.764  12.253
67055SOL     OW 2996   9.042   9.665   0.227
67055SOL    HW1 2997   9.045   9.733   0.159
67055SOL    HW2 2998   9.084   9.706   0.303
67056SOL     OW 2999   5.392   3.310   9.558
67056SOL    HW1 3000   5.353   3.223   9.547
67056SOL    HW2 3001   5.484   3.293   9.576
67057SOL     OW 3002  11.396   1.362   3.276
67057SOL    HW1 3003  11.352   1.432   3.228
67057SOL    HW2 3004  11.474   1.343   3.225
67058SOL     OW 3005   1.055  10.924   3.922
67058SOL    HW1 3006   1.039  10.832   3.942
67058SOL    HW2 3007   1.005  10.972   3.989
67059SOL     OW 3008   9.555   7.682   7.148
67059SOL    HW1 3009   9.506   7.726   7.217
67059SOL    HW2 3010   9.538   7.589   7.161
67060SOL     OW 3011   5.270   2.530   2.029
67060SOL    HW1 3012   5.219   2.597   2.076
67060SOL    HW2 3013   5.344   2.578   1.992
67061SOL     OW 3014  11.885   3.719   7.869
67061SOL    HW1 3015  11.955   3.727   7.934
67061SOL    HW2 3016  11.804   3.722   7.920
67062SOL     OW 3017  10.629   5.317  13.516
67062SOL    HW1 3018  10.575   5.392  13.539
67062SOL    HW2 3019  10.683   5.301  13.593
67063SOL     OW 3020   3.539   0.417   5.149
67063SOL    HW1 3021   3.608   0.432   5.215
67063SOL    HW2 3022   3.577   0.353   5.089
67064SOL     OW 3023   0.378  11.057  13.184
67064SOL    HW1 3024   0.333  11.036  13.102
67064SOL    HW2 3025   0.311  11.101  13.237
67065SOL     OW 3026   2.698   9.516   0.803
67065SOL    HW1 3027   2.648   9.439   0.779
67065SOL    HW2 3028   2.735   9.547   0.720
67066SOL     OW 3029   5.649  11.349   6.511
67066SOL    HW1 3030   5.695  11.389   6.584
67066SOL    HW2 3031   5.556  11.368   6.528
67067SOL     OW 3032   1.012  10.647   7.276
67067SOL    HW1 3033   1.101  10.648   7.241
67067SOL    HW2 3034   0.965  10.584   7.221
67068SOL     OW 3035   5.961   8.102   8.883
67068SOL    HW1 3036   5.897   8.044   8.926
67068SOL    HW2 3037   6.006   8.046   8.820
67069SOL     OW 3038   9.009   1.818   0.043
67069SOL    HW1 3039   8.971   1.785  14.844
67069SOL    HW2 3040   8.960   1.898   0.062
67070SOL     OW 3041   9.027   1.616  12.955
67070SOL    HW1 3042   9.028   1.705  12.920
67070SOL    HW2 3043   9.073   1.564  12.889
67071SOL     OW 3044  14.160   1.685   2.483
67071SOL    HW1 3045  14.168   1.780   2.474
67071SOL    HW2 3046  14.083   1.673   2.538
67072SOL     OW 3047   6.417   7.558   7.777
67072SOL    HW1 3048   6.457   7.615   7.843
67072SOL    HW2 3049   6.405   7.614   7.700
67073SOL     OW 3050  12.168  14.791   9.123
67073SOL    HW1 3051  12.101  14.761   9.062
67073SOL    HW2 3052  12.125  14.860   9.174
67074SOL     OW 3053   8.623   1.156  12.723
67074SOL    HW1 3054   8.609   1.216  12.797
67074SOL    HW2 3055   8.563   1.084  12.740
67075SOL     OW 3056   7.238   0.414   2.715
67075SOL    HW1 3057   7.158   0.363   2.704
67075SOL    HW2 3058   7.208   0.499   2.749
67076SOL     OW 3059  11.397   9.903   6.192
67076SOL    HW1 3060  11.390   9.860   6.107
67076SOL    HW2 3061  11.372   9.994   6.176
67077SOL     OW 3062   6.723  14.511   1.522
67077SOL    HW1 3063   6.697  14.602   1.512
67077SOL    HW2 3064   6.679  14.465   1.451
67078SOL     OW 3065   1.011  11.003  13.706
67078SOL    HW1 3066   0.970  10.969  13.785
67078SOL    HW2 3067   0.951  10.981  13.636
67079SOL     OW 3068  13.511   8.894   4.055
67079SOL    HW1 3069  13.596   8.919   4.090
67079SOL    HW2 3070  13.460   8.868   4.132
67080SOL     OW 3071   1.601   0.744  13.277
67080SOL    HW1 3072   1.633   0.803  13.209
67080SOL    HW2 3073   1.681   0.715  13.322
67081SOL     OW 3074   3.658  10.877   4.178
67081SOL    HW1 3075   3.746  10.838   4.171
67081SOL    HW2 3076   3.617  10.857   4.094
67082SOL     OW 3077  11.193  11.332  10.857
67082SOL    HW1 3078  11.232  11.295  10.935
67082SOL    HW2 3079  11.261  11.324  10.790
67083SOL     OW 3080  14.785   3.737  12.172
67083SOL    HW1 3081  14.780   3.716  12.079
67083SOL    HW2 3082  14.708   3.791  12.188
67084SOL     OW 3083   5.342   7.861   1.498
67084SOL    HW1 3084   5.402   7.799   1.456
67084SOL    HW2 3085   5.256   7.839   1.462
67085SOL     OW 3086  13.106  14.376   9.533
67085SOL    HW1 3087  13.199  14.379   9.557
67085SOL    HW2 3088  13.066  14.444   9.587
67086SOL     OW 3089   2.215   6.058  10.708
67086SOL    HW1 3090   2.230   5.964  10.698
67086SOL    HW2 3091   2.240   6.077  10.799
67087SOL     OW 3092   7.739  11.872   6.326
67087SOL    HW1 3093   7.741  11.782   6.293
67087SOL    HW2 3094   7.790  11.922   6.262
67088SOL     OW 3095  11.782   1.869  13.349
67088SOL    HW1 3096  11.784   1.777  13.375
67088SOL    HW2 3097  11.691   1.895  13.358
67089SOL     OW 3098   0.308   6.011   9.037
67089SOL    HW1 3099   0.350   5.967   9.111
67089SOL    HW2 3100   0.215   5.993   9.048
67090SOL     OW 3101   6.634   2.612  10.546
67090SOL    HW1 3102   6.676   2.621  10.632
67090SOL    HW2 3103   6.672   2.532  10.509
67091SOL     OW 3104  10.342  11.999   1.534
67091SOL    HW1 3105  10.424  11.987   1.582
67091SOL    HW2 3106  10.278  11.947   1.582
67092SOL     OW 3107   6.512   3.228  11.002
67092SOL    HW1 3108   6.439   3.229  10.940
67092SOL    HW2 3109   6.473   3.196  11.084
67093SOL     OW 3110  14.818   0.505  12.844
67093SOL    HW1 3111  14.830   0.488  12.751
67093SOL    HW2 3112  14.757   0.437  12.873
67094SOL     OW 3113  14.316   6.276   8.254
67094SOL    HW1 3114  14.279   6.364   8.260
67094SOL    HW2 3115  14.411   6.290   8.257
67095SOL     OW 3116   8.826   9.718   3.749
67095SOL    HW1 3117   8.752   9.777   3.733
67095SOL    HW2 3118   8.832   9.713   3.844
67096SOL     OW 3119  10.624   6.998  14.259
67096SOL    HW1 3120  10.691   6.990  14.327
67096SOL    HW2 3121  10.646   6.930  14.195
67097SOL     OW 3122   2.310   4.117   0.241
67097SOL    HW1 3123   2.359   4.179   0.186
67097SOL    HW2 3124   2.268   4.057   0.179
67098SOL     OW 3125  12.224  11.016  13.343
67098SOL    HW1 3126  12.223  11.082  13.273
67098SOL    HW2 3127  12.236  11.067  13.423
67099SOL     OW 3128   2.065   1.547   0.343
67099SOL    HW1 3129   2.147   1.500   0.361
67099SOL    HW2 3130   2.030   1.566   0.430
67100SOL     OW 3131   4.525   9.300   4.699
67100SOL    HW1 3132   4.598   9.360   4.717
67100SOL    HW2 3133   4.528   9.286   4.605
67101SOL     OW 3134  12.372   1.613   3.766
67101SOL    HW1 3135  12.424   1.626   3.686
67101SOL    HW2 3136  12.303   1.679   3.760
67102SOL     OW 3137   3.061  11.057  13.639
67102SOL    HW1 3138   3.153  11.083  13.633
67102SOL    HW2 3139   3.044  11.052  13.733
67103SOL     OW 3140   7.563   1.735   8.339
67103SOL    HW1 3141   7.636   1.787   8.307
67103SOL    HW2 3142   7.600   1.684   8.411
67104SOL     OW 3143   8.901   5.298   9.373
67104SOL    HW1 3144   8.915   5.228   9.437
67104SOL    HW2 3145   8.983   5.303   9.325
67105SOL     OW 3146  13.860  10.151   4.026
67105SOL    HW1 3147  13.918  10.143   4.102
67105SOL    HW2 3148  13.810  10.231   4.043
67106SOL     OW 3149  10.551   0.106  12.336
67106SOL    HW1 3150  10.498   0.026  12.330
67106SOL    HW2 3151  10.608   0.090  12.411
67107SOL     OW 3152   2.353  13.230   8.394
67107SOL    HW1 3153   2.349  13.253   8.487
67107SOL    HW2 3154   2.427  13.169   8.388
67108SOL     OW 3155  10.618  10.424   2.861
67108SOL    HW1 3156  10.627  10.339   2.817
67108SOL    HW2 3157  10.621  10.488   2.790
67109SOL     OW 3158   8.467  11.701   1.455
67109SOL    HW1 3159   8.385  11.664   1.423
67109SOL    HW2 3160   8.496  11.760   1.385
67110SOL     OW 3161   4.068   7.475   8.030
67110SOL    HW1 3162   4.035   7.519   8.109
67110SOL    HW2 3163   4.035   7.528   7.958
67111SOL     OW 3164  10.694   5.333   6.493
67111SOL    HW1 3165  10.685   5.238   6.492
67111SOL    HW2 3166  10.784   5.349   6.464
67112SOL     OW 3167   5.865   9.343   3.243
67112SOL    HW1 3168   5.793   9.387   3.198
67112SOL    HW2 3169   5.821   9.279   3.300
67113SOL     OW 3170   1.686   6.497  11.655
67113SOL    HW1 3171   1.732   6.486  11.738
67113SOL    HW2 3172   1.593   6.488  11.678
67114SOL     OW 3173   3.586  12.508  14.195
67114SOL    HW1 3174   3.619  12.430  14.150
67114SOL    HW2 3175   3.649  12.523  14.266
67115SOL     OW 3176   2.579  10.148   7.570
67115SOL    HW1 3177   2.488  10.143   7.599
67115SOL    HW2 3178   2.598  10.060   7.537
67116SOL     OW 3179   7.832   8.822   0.641
67116SOL    HW1 3180   7.853   8.782   0.556
67116SOL    HW2 3181   7.829   8.749   0.702
67117SOL     OW 3182   3.171   4.675  11.119
67117SOL    HW1 3183   3.199   4.731  11.047
67117SOL    HW2 3184   3.078   4.693  11.129
67118SOL     OW 3185  11.991   5.719   4.568
67118SOL    HW1 3186  12.070   5.772   4.558
67118SOL    HW2 3187  11.980   5.675   4.484
67119SOL     OW 3188   7.920   8.150  13.474
67119SOL    HW1 3189   7.882   8.122  13.557
67119SOL    HW2 3190   8.011   8.173  13.496
67120SOL     OW 3191   0.693   2.373  12.977
67120SOL    HW1 3192   0.699   2.282  13.003
67120SOL    HW2 3193   0.763   2.384  12.912
67121SOL     OW 3194  14.121  12.887  13.052
67121SOL    HW1 3195  14.163  12.832  13.118
67121SOL    HW2 3196  14.135  12.977  13.084
67122SOL     OW 3197   1.939   7.022   6.487
67122SOL    HW1 3198   2.026   6.986   6.467
67122SOL    HW2 3199   1.947   7.053   6.578
67123SOL     OW 3200   0.574   8.311  11.555
67123SOL    HW1 3201   0.588   8.267  11.640
67123SOL    HW2 3202   0.550   8.240  11.495
67124SOL     OW 3203   3.135   6.817  10.478
67124SOL    HW1 3204   3.090   6.806  10.561
67124SOL    HW2 3205   3.209   6.756  10.482
67125SOL     OW 3206   5.172   6.931  10.321
67125SOL    HW1 3207   5.129   6.930  10.407
67125SOL    HW2 3208   5.107   6.894  10.262
67126SOL     OW 3209  13.124  12.743  11.129
67126SOL    HW1 3210  13.205  12.720  11.084
67126SOL    HW2 3211  13.142  12.829  11.169
67127SOL     OW 3212  10.509   3.462  13.057
67127SOL    HW1 3213  10.604   3.461  13.054
67127SOL    HW2 3214  10.487   3.451  13.150
67128SOL     OW 3215   5.031   6.245   7.287
67128SOL    HW1 3216   5.097   6.286   7.343
67128SOL    HW2 3217   5.003   6.315   7.228
67129SOL     OW 3218   8.161   3.463   9.328
67129SOL    HW1 3219   8.109   3.396   9.373
67129SOL    HW2 3220   8.123   3.546   9.358
67130SOL     OW 3221   5.135   7.247   9.332
67130SOL    HW1 3222   5.101   7.160   9.356
67130SOL    HW2 3223   5.201   7.229   9.266
67131SOL     OW 3224   8.481   9.634   2.433
67131SOL    HW1 3225   8.512   9.716   2.394
67131SOL    HW2 3226   8.491   9.647   2.527
67132SOL     OW 3227   6.079   9.716   6.865
67132SOL    HW1 3228   6.012   9.783   6.853
67132SOL    HW2 3229   6.030   9.635   6.877
67133SOL     OW 3230   1.270   1.632   6.362
67133SOL    HW1 3231   1.312   1.583   6.433
67133SOL    HW2 3232   1.228   1.706   6.406
67134SOL     OW 3233   2.951   2.878  10.656
67134SOL    HW1 3234   2.926   2.815  10.588
67134SOL    HW2 3235   3.021   2.834  10.704
67135SOL     OW 3236   4.378   9.527   2.387
67135SOL    HW1 3237   4.326   9.448   2.402
67135SOL    HW2 3238   4.315   9.598   2.394
67136SOL     OW 3239   0.924  13.134  13.390
67136SOL    HW1 3240   1.009  13.109  13.425
67136SOL    HW2 3241   0.907  13.072  13.319
67137SOL     OW 3242   4.627   1.308  11.341
67137SOL    HW1 3243   4.554   1.341  11.289
67137SOL    HW2 3244   4.664   1.238  11.288
67138SOL     OW 3245   1.545   7.187   5.819
67138SOL    HW1 3246   1.629   7.188   5.866
67138SOL    HW2 3247   1.547   7.105   5.769
67139SOL     OW 3248   5.997   0.731  12.419
67139SOL    HW1 3249   6.070   0.741  12.480
67139SOL    HW2 3250   5.920   0.726  12.475
67140SOL     OW 3251  12.473  11.820  10.559
67140SOL    HW1 3252  12.510  11.797  10.474
67140SOL    HW2 3253  12.416  11.895  10.540
67141SOL     OW 3254   4.751   0.051  13.183
67141SOL    HW1 3255   4.778   0.093  13.264
67141SOL    HW2 3256   4.833   0.024  13.141
67142SOL     OW 3257   6.008  11.129   5.864
67142SOL    HW1 3258   6.061  11.088   5.797
67142SOL    HW2 3259   6.035  11.086   5.946
67143SOL     OW 3260  11.483   4.814   9.789
67143SOL    HW1 3261  11.555   4.769   9.745
67143SOL    HW2 3262  11.405   4.790   9.739
67144SOL     OW 3263   5.922  13.883   4.359
67144SOL    HW1 3264   5.898  13.957   4.303
67144SOL    HW2 3265   5.926  13.808   4.300
67145SOL     OW 3266   7.789   5.571   8.548
67145SOL    HW1 3267   7.801   5.652   8.598
67145SOL    HW2 3268   7.805   5.501   8.612
67146SOL     OW 3269   2.518   3.104  10.535
67146SOL    HW1 3270   2.580   3.161  10.581
67146SOL    HW2 3271   2.488   3.043  10.602
67147SOL     OW 3272   4.603  14.775   2.259
67147SOL    HW1 3273   4.514  14.782   2.223
67147SOL    HW2 3274   4.661  14.799   2.187
67148SOL     OW 3275   9.528   3.570   3.526
67148SOL    HW1 3276   9.501   3.662   3.527
67148SOL    HW2 3277   9.573   3.559   3.442
67149SOL     OW 3278   9.743  14.278  14.762
67149SOL    HW1 3279   9.788  14.199  14.731
67149SOL    HW2 3280   9.788  14.301  14.843
67150SOL     OW 3281   9.192  11.729  12.778
67150SOL    HW1 3282   9.142  11.681  12.845
67150SOL    HW2 3283   9.271  11.677  12.766
67151SOL     OW 3284   3.572  12.343   0.207
67151SOL    HW1 3285   3.507  12.330   0.275
67151SOL    HW2 3286   3.531  12.406   0.147
67152SOL     OW 3287  13.747   8.715   6.589
67152SOL    HW1 3288  13.682   8.673   6.645
67152SOL    HW2 3289  13.748   8.806   6.618
67153SOL     OW 3290  12.261  11.082  10.906
67153SOL    HW1 3291  12.197  11.079  10.835
67153SOL    HW2 3292  12.306  10.998  10.901
67154SOL     OW 3293   1.402   6.312  13.703
67154SOL    HW1 3294   1.319   6.279  13.667
67154SOL    HW2 3295   1.390   6.407  13.705
67155SOL     OW 3296  14.344  12.514  11.442
67155SOL    HW1 3297  14.420  12.492  11.496
67155SOL    HW2 3298  14.293  12.433  11.437
67156SOL     OW 3299  13.975  14.385   2.762
67156SOL    HW1 3300  14.053  14.433   2.736
67156SOL    HW2 3301  13.991  14.295   2.736
67157SOL     OW 3302   4.724   4.831  14.237
67157SOL    HW1 3303   4.636   4.807  14.207
67157SOL    HW2 3304   4.710   4.905  14.296
67158SOL     OW 3305   6.516  14.243   6.780
67158SOL    HW1 3306   6.521  14.217   6.687
67158SOL    HW2 3307   6.542  14.335   6.780
67159SOL     OW 3308   4.798   1.915   7.114
67159SOL    HW1 3309   4.722   1.874   7.155
67159SOL    HW2 3310   4.774   2.007   7.105
67160SOL     OW 3311  11.804  13.906  14.358
67160SOL    HW1 3312  11.794  13.820  14.400
67160SOL    HW2 3313  11.890  13.937  14.387
67161SOL     OW 3314   9.997   2.055  14.079
67161SOL    HW1 3315   9.939   2.114  14.126
67161SOL    HW2 3316   9.945   2.021  14.007
67162SOL     OW 3317   4.787  14.398   0.582
67162SOL    HW1 3318   4.706  14.371   0.540
67162SOL    HW2 3319   4.765  14.478   0.629
67163SOL     OW 3320  12.560   1.187  10.502
67163SOL    HW1 3321  12.654   1.186  10.520
67163SOL    HW2 3322  12.553   1.175  10.408
67164SOL     OW 3323   7.223  12.052  12.324
67164SOL    HW1 3324   7.156  11.984  12.314
67164SOL    HW2 3325   7.286  12.034  12.254
67165SOL     OW 3326   5.973   5.768  14.535
67165SOL    HW1 3327   6.054   5.719  14.529
67165SOL    HW2 3328   5.944   5.758  14.625
67166SOL     OW 3329  10.832  12.718   6.742
67166SOL    HW1 3330  10.760  12.750   6.798
67166SOL    HW2 3331  10.826  12.773   6.664
67167SOL     OW 3332  14.261   6.453  13.796
67167SOL    HW1 3333  14.168   6.470  13.806
67167SOL    HW2 3334  14.298   6.468  13.883
67168SOL     OW 3335   9.178  14.493   1.762
67168SOL    HW1 3336   9.163  14.506   1.668
67168SOL    HW2 3337   9.251  14.432   1.766
67169SOL     OW 3338  13.087   1.373  14.841
67169SOL    HW1 3339  13.107   1.363   0.052
67169SOL    HW2 3340  13.069   1.284  14.810
67170SOL     OW 3341   7.516   0.690   0.213
67170SOL    HW1 3342   7.519   0.755   0.284
67170SOL    HW2 3343   7.585   0.628   0.235
67171SOL     OW 3344   9.344   5.115   0.950
67171SOL    HW1 3345   9.278   5.130   0.882
67171SOL    HW2 3346   9.393   5.197   0.954
67172SOL     OW 3347  13.591  10.824   4.319
67172SOL    HW1 3348  13.537  10.822   4.239
67172SOL    HW2 3349  13.616  10.916   4.328
67173SOL     OW 3350   7.807  11.425  12.643
67173SOL    HW1 3351   7.807  11.449  12.736
67173SOL    HW2 3352   7.714  11.426  12.619
67174SOL     OW 3353   6.165   9.188   1.615
67174SOL    HW1 3354   6.217   9.108   1.622
67174SOL    HW2 3355   6.110   9.175   1.538
67175SOL     OW 3356   6.505   3.120  10.639
67175SOL    HW1 3357   6.476   3.029  10.642
67175SOL    HW2 3358   6.485   3.150  10.551
67176SOL     OW 3359   5.267   7.452   8.133
67176SOL    HW1 3360   5.316   7.495   8.203
67176SOL    HW2 3361   5.304   7.488   8.053
67177SOL     OW 3362   7.242   3.053   6.888
67177SOL    HW1 3363   7.287   3.129   6.850
67177SOL    HW2 3364   7.149   3.072   6.877
67178SOL     OW 3365   5.021   9.686   6.119
67178SOL    HW1 3366   5.110   9.658   6.140
67178SOL    HW2 3367   5.004   9.650   6.031
67179SOL     OW 3368   9.392  13.002   5.107
67179SOL    HW1 3369   9.403  12.907   5.105
67179SOL    HW2 3370   9.394  13.028   5.015
67180SOL     OW 3371   0.135   5.512  14.648
67180SOL    HW1 3372   0.139   5.604  14.624
67180SOL    HW2 3373   0.042   5.491  14.647
67181SOL     OW 3374   4.240   4.253   1.947
67181SOL    HW1 3375   4.275   4.252   1.858
67181SOL    HW2 3376   4.257   4.165   1.980
67182SOL     OW 3377   9.727   8.500  12.301
67182SOL    HW1 3378   9.794   8.536  12.359
67182SOL    HW2 3379   9.763   8.417  12.270
67183SOL     OW 3380  13.454   1.184   1.079
67183SOL    HW1 3381  13.517   1.205   1.010
67183SOL    HW2 3382  13.473   1.093   1.103
67184SOL     OW 3383   9.788  13.899   0.183
67184SOL    HW1 3384   9.859  13.962   0.178
67184SOL    HW2 3385   9.831  13.813   0.178
67185SOL     OW 3386   6.151   3.971   3.339
67185SOL    HW1 3387   6.118   3.881   3.343
67185SOL    HW2 3388   6.080   4.020   3.297
67186SOL     OW 3389   5.327   8.958   3.064
67186SOL    HW1 3390   5.264   8.930   3.131
67186SOL    HW2 3391   5.333   9.053   3.077
67187SOL     OW 3392   5.140   9.545   0.461
67187SOL    HW1 3393   5.216   9.574   0.512
67187SOL    HW2 3394   5.109   9.624   0.416
67188SOL     OW 3395   8.269   0.697  13.179
67188SOL    HW1 3396   8.199   0.631  13.177
67188SOL    HW2 3397   8.325   0.675  13.105
67189SOL     OW 3398  11.029  13.282   3.084
67189SOL    HW1 3399  10.940  13.314   3.100
67189SOL    HW2 3400  11.075  13.298   3.167
67190SOL     OW 3401   5.116   9.983   7.039
67190SOL    HW1 3402   5.172  10.007   6.965
67190SOL    HW2 3403   5.177   9.964   7.110
67191SOL     OW 3404   7.958   1.263  12.434
67191SOL    HW1 3405   8.022   1.245  12.364
67191SOL    HW2 3406   7.997   1.225  12.512
67192SOL     OW 3407  14.158   1.058   7.604
67192SOL    HW1 3408  14.204   0.990   7.653
67192SOL    HW2 3409  14.099   1.099   7.669
67193SOL     OW 3410  12.979  11.987  10.673
67193SOL    HW1 3411  12.894  11.944  10.660
67193SOL    HW2 3412  13.002  12.021  10.587
67194SOL     OW 3413   4.796   1.555   8.923
67194SOL    HW1 3414   4.874   1.519   8.965
67194SOL    HW2 3415   4.728   1.551   8.991
67195SOL     OW 3416   4.187   8.391   8.509
67195SOL    HW1 3417   4.202   8.421   8.419
67195SOL    HW2 3418   4.135   8.460   8.550
67196SOL     OW 3419   5.748  10.579   4.343
67196SOL    HW1 3420   5.678  10.639   4.318
67196SOL    HW2 3421   5.730  10.557   4.434
67197SOL     OW 3422   7.890  13.748   2.420
67197SOL    HW1 3423   7.953  13.681   2.444
67197SOL    HW2 3424   7.805  13.703   2.421
67198SOL     OW 3425   8.719  11.804  10.794
67198SOL    HW1 3426   8.722  11.710  10.813
67198SOL    HW2 3427   8.653  11.812  10.725
67199SOL     OW 3428  10.429   7.575   4.179
67199SOL    HW1 3429  10.470   7.492   4.154
67199SOL    HW2 3430  10.356   7.551   4.235
67200SOL     OW 3431   2.328   1.420  12.622
67200SOL    HW1 3432   2.297   1.470  12.697
67200SOL    HW2 3433   2.272   1.342  12.621
67201SOL     OW 3434  10.175  14.236   4.472
67201SOL    HW1 3435  10.180  14.292   4.395
67201SOL    HW2 3436  10.243  14.270   4.530
67202SOL     OW 3437   4.742  10.023   3.718
67202SOL    HW1 3438   4.680  10.022   3.646
67202SOL    HW2 3439   4.689  10.042   3.796
67203SOL     OW 3440   8.533   7.956  10.826
67203SOL    HW1 3441   8.449   7.981  10.788
67203SOL    HW2 3442   8.534   7.999  10.912
67204SOL     OW 3443   8.901   8.030   5.760
67204SOL    HW1 3444   8.944   8.108   5.793
67204SOL    HW2 3445   8.876   8.052   5.670
67205SOL     OW 3446  10.284   9.195   8.835
67205SOL    HW1 3447  10.261   9.125   8.895
67205SOL    HW2 3448  10.204   9.248   8.829
67206SOL     OW 3449  11.179   1.523   9.382
67206SOL    HW1 3450  11.218   1.435   9.379
67206SOL    HW2 3451  11.218   1.563   9.459
67207SOL     OW 3452  14.216   8.572   5.445
67207SOL    HW1 3453  14.147   8.553   5.381
67207SOL    HW2 3454  14.292   8.597   5.392
67208SOL     OW 3455   1.780   6.931   5.704
67208SOL    HW1 3456   1.806   6.860   5.645
67208SOL    HW2 3457   1.684   6.930   5.702
67209SOL     OW 3458   3.621   7.277   1.312
67209SOL    HW1 3459   3.624   7.190   1.273
67209SOL    HW2 3460   3.710   7.311   1.304
67210SOL     OW 3461   1.843  11.931  12.925
67210SOL    HW1 3462   1.858  11.843  12.960
67210SOL    HW2 3463   1.875  11.927  12.835
67211SOL     OW 3464  12.546   0.507   5.980
67211SOL    HW1 3465  12.503   0.591   5.996
67211SOL    HW2 3466  12.639   0.525   5.993
67212SOL     OW 3467   7.208   0.240  11.550
67212SOL    HW1 3468   7.209   0.333  11.528
67212SOL    HW2 3469   7.122   0.226  11.590
67213SOL     OW 3470  12.551   8.580   1.257
67213SOL    HW1 3471  12.532   8.556   1.347
67213SOL    HW2 3472  12.633   8.534   1.236
67214SOL     OW 3473   5.080  14.007  11.348
67214SOL    HW1 3474   5.065  14.101  11.355
67214SOL    HW2 3475   5.163  13.992  11.394
67215SOL     OW 3476   5.200   0.881  14.852
67215SOL    HW1 3477   5.252   0.856   0.047
67215SOL    HW2 3478   5.256   0.858  14.778
67216SOL     OW 3479   8.023   2.467   9.988
67216SOL    HW1 3480   8.007   2.523   9.912
67216SOL    HW2 3481   7.944   2.414   9.997
67217SOL     OW 3482   2.245   9.651   3.556
67217SOL    HW1 3483   2.197   9.600   3.621
67217SOL    HW2 3484   2.246   9.595   3.478
67218SOL     OW 3485   3.481   3.056   5.772
67218SOL    HW1 3486   3.489   3.003   5.851
67218SOL    HW2 3487   3.516   3.001   5.702
67219SOL     OW 3488   0.037  12.675   7.228
67219SOL    HW1 3489   0.086  12.756   7.211
67219SOL    HW2 3490   0.016  12.641   7.141
67220SOL     OW 3491  12.191   6.189  13.714
67220SOL    HW1 3492  12.185   6.140  13.631
67220SOL    HW2 3493  12.204   6.280  13.687
67221SOL     OW 3494   5.077  14.544   1.365
67221SOL    HW1 3495   5.168  14.538   1.393
67221SOL    HW2 3496   5.043  14.455   1.373
67222SOL     OW 3497   1.419  11.120   1.930
67222SOL    HW1 3498   1.425  11.039   1.879
67222SOL    HW2 3499   1.348  11.103   1.993
67223SOL     OW 3500   0.164   1.311   8.342
67223SOL    HW1 3501   0.084   1.324   8.291
67223SOL    HW2 3502   0.195   1.224   8.315
67224SOL     OW 3503   1.356   6.696  14.091
67224SOL    HW1 3504   1.445   6.682  14.124
67224SOL    HW2 3505   1.300   6.648  14.151
67225SOL     OW 3506   8.591   6.969   1.264
67225SOL    HW1 3507   8.513   7.019   1.289
67225SOL    HW2 3508   8.593   6.896   1.326
67226SOL     OW 3509   9.119  14.720  12.788
67226SOL    HW1 3510   9.185  14.721  12.857
67226SOL    HW2 3511   9.107  14.627  12.767
67227SOL     OW 3512  11.936   2.203   2.631
67227SOL    HW1 3513  11.899   2.275   2.579
67227SOL    HW2 3514  12.022   2.188   2.593
67228SOL     OW 3515   1.511   8.844   4.844
67228SOL    HW1 3516   1.596   8.802   4.854
67228SOL    HW2 3517   1.501   8.898   4.923
67229SOL     OW 3518   9.679   2.193  14.803
67229SOL    HW1 3519   9.741   2.172  14.873
67229SOL    HW2 3520   9.599   2.218  14.850
67230SOL     OW 3521   5.996   4.013  11.863
67230SOL    HW1 3522   6.036   4.099  11.876
67230SOL    HW2 3523   5.905   4.032  11.841
67231SOL     OW 3524   1.100   2.551  11.499
67231SOL    HW1 3525   1.173   2.587  11.549
67231SOL    HW2 3526   1.097   2.606  11.420
67232SOL     OW 3527   4.219  13.454  10.816
67232SOL    HW1 3528   4.140  13.458  10.762
67232SOL    HW2 3529   4.193  13.403  10.893
67233SOL     OW 3530   7.946   6.383   3.299
67233SOL    HW1 3531   7.939   6.408   3.391
67233SOL    HW2 3532   7.967   6.290   3.301
67234SOL     OW 3533   9.394   3.703   8.320
67234SOL    HW1 3534   9.373   3.793   8.293
67234SOL    HW2 3535   9.323   3.678   8.379
67235SOL     OW 3536  12.862   5.202   9.354
67235SOL    HW1 3537  12.868   5.275   9.292
67235SOL    HW2 3538  12.824   5.130   9.304
67236SOL     OW 3539   2.731   0.147   2.119
67236SOL    HW1 3540   2.668   0.076   2.108
67236SOL    HW2 3541   2.779   0.149   2.036
67237SOL     OW 3542   2.159   4.271   1.928
67237SOL    HW1 3543   2.209   4.216   1.989
67237SOL    HW2 3544   2.200   4.256   1.843
67238SOL     OW 3545   0.173  12.822   6.479
67238SOL    HW1 3546   0.089  12.780   6.462
67238SOL    HW2 3547   0.201  12.857   6.395
67239SOL     OW 3548  12.635   5.451  12.261
67239SOL    HW1 3549  12.683   5.407  12.190
67239SOL    HW2 3550  12.691   5.442  12.338
67240SOL     OW 3551   4.608   7.755   1.101
67240SOL    HW1 3552   4.625   7.834   1.050
67240SOL    HW2 3553   4.651   7.685   1.051
67241SOL     OW 3554   4.914   6.750   0.739
67241SOL    HW1 3555   4.955   6.837   0.742
67241SOL    HW2 3556   4.908   6.729   0.646
67242SOL     OW 3557  12.721   0.200   4.011
67242SOL    HW1 3558  12.811   0.233   4.013
67242SOL    HW2 3559  12.671   0.265   4.060
67243SOL     OW 3560   2.673   8.184   3.789
67243SOL    HW1 3561   2.714   8.127   3.724
67243SOL    HW2 3562   2.580   8.184   3.766
67244SOL     OW 3563  11.263  10.017   6.899
67244SOL    HW1 3564  11.267  10.078   6.825
67244SOL    HW2 3565  11.309   9.939   6.870
67245SOL     OW 3566  12.138   5.802   6.158
67245SOL    HW1 3567  12.151   5.739   6.229
67245SOL    HW2 3568  12.091   5.874   6.198
67246SOL     OW 3569   6.012   7.737  11.539
67246SOL    HW1 3570   5.958   7.813  11.564
67246SOL    HW2 3571   5.982   7.667  11.598
67247SOL     OW 3572  14.592  11.358  14.194
67247SOL    HW1 3573  14.650  11.419  14.239
67247SOL    HW2 3574  14.645  11.281  14.177
67248SOL     OW 3575   9.928   6.409  12.042
67248SOL    HW1 3576  10.020   6.405  12.015
67248SOL    HW2 3577   9.931   6.403  12.137
67249SOL     OW 3578  13.514  10.069   4.177
67249SOL    HW1 3579  13.582  10.006   4.204
67249SOL    HW2 3580  13.522  10.073   4.081
67250SOL     OW 3581   9.110  11.179   9.630
67250SOL    HW1 3582   9.055  11.154   9.555
67250SOL    HW2 3583   9.182  11.229   9.591
67251SOL     OW 3584   5.587  12.248  14.304
67251SOL    HW1 3585   5.659  12.194  14.337
67251SOL    HW2 3586   5.630  12.323  14.264
67252SOL     OW 3587   8.678   2.419  13.822
67252SOL    HW1 3588   8.607   2.355  13.830
67252SOL    HW2 3589   8.699   2.419  13.729
67253SOL     OW 3590   8.227  10.586  14.761
67253SOL    HW1 3591   8.198  10.661  14.813
67253SOL    HW2 3592   8.154  10.569  14.702
67254SOL     OW 3593   2.190   8.521  14.488
67254SOL    HW1 3594   2.169   8.452  14.550
67254SOL    HW2 3595   2.269   8.561  14.523
67255SOL     OW 3596   2.355   9.013   2.755
67255SOL    HW1 3597   2.289   8.944   2.755
67255SOL    HW2 3598   2.310   9.090   2.788
67256SOL     OW 3599  12.683   6.560  11.376
67256SOL    HW1 3600  12.678   6.474  11.333
67256SOL    HW2 3601  12.594   6.577  11.406
67257SOL     OW 3602   5.542   0.975  13.945
67257SOL    HW1 3603   5.514   1.035  14.014
67257SOL    HW2 3604   5.628   1.008  13.918
67258SOL     OW 3605   7.953   2.592   8.216
67258SOL    HW1 3606   7.927   2.680   8.190
67258SOL    HW2 3607   7.875   2.555   8.257
67259SOL     OW 3608  11.640   1.565  14.547
67259SOL    HW1 3609  11.640   1.471  14.559
67259SOL    HW2 3610  11.733   1.590  14.547
67260SOL     OW 3611  13.446   8.236  10.380
67260SOL    HW1 3612  13.483   8.170  10.439
67260SOL    HW2 3613  13.498   8.315  10.395
67261SOL     OW 3614   5.271  14.398   9.966
67261SOL    HW1 3615   5.267  14.425  10.057
67261SOL    HW2 3616   5.329  14.462   9.924
67262SOL     OW 3617   5.857   8.670   0.526
67262SOL    HW1 3618   5.925   8.603   0.512
67262SOL    HW2 3619   5.899   8.734   0.583
67263SOL     OW 3620   3.265  10.508   9.127
67263SOL    HW1 3621   3.219  10.462   9.198
67263SOL    HW2 3622   3.197  10.531   9.065
67264SOL     OW 3623   8.577  10.024   3.980
67264SOL    HW1 3624   8.602   9.981   4.061
67264SOL    HW2 3625   8.645  10.090   3.965
67265SOL     OW 3626  13.860  11.455   1.265
67265SOL    HW1 3627  13.853  11.545   1.233
67265SOL    HW2 3628  13.893  11.405   1.190
67266SOL     OW 3629   0.836   0.170   9.120
67266SOL    HW1 3630   0.751   0.177   9.076
67266SOL    HW2 3631   0.816   0.184   9.212
67267SOL     OW 3632   5.604   3.750   7.782
67267SOL    HW1 3633   5.651   3.736   7.865
67267SOL    HW2 3634   5.530   3.689   7.787
67268SOL     OW 3635   1.690   8.994  10.861
67268SOL    HW1 3636   1.756   8.925  10.856
67268SOL    HW2 3637   1.702   9.045  10.781
67269SOL     OW 3638   5.212   2.239   4.679
67269SOL    HW1 3639   5.204   2.320   4.730
67269SOL    HW2 3640   5.166   2.258   4.597
67270SOL     OW 3641  13.706   1.058   8.511
67270SOL    HW1 3642  13.687   1.079   8.420
67270SOL    HW2 3643  13.768   1.125   8.539
67271SOL     OW 3644   7.242   7.617  14.751
67271SOL    HW1 3645   7.258   7.588  14.662
67271SOL    HW2 3646   7.305   7.568  14.804
67272SOL     OW 3647   8.374   7.420   0.416
67272SOL    HW1 3648   8.418   7.349   0.462
67272SOL    HW2 3649   8.377   7.494   0.477
67273SOL     OW 3650   4.105  14.759   2.738
67273SOL    HW1 3651   4.118  14.768   2.644
67273SOL    HW2 3652   4.193  14.763   2.775
67274SOL     OW 3653   5.556   1.757  14.576
67274SOL    HW1 3654   5.552   1.838  14.626
67274SOL    HW2 3655   5.467   1.723  14.578
67275SOL     OW 3656   3.075   0.523   6.051
67275SOL    HW1 3657   3.133   0.529   6.127
67275SOL    HW2 3658   3.015   0.596   6.061
67276SOL     OW 3659   9.675   4.760   7.660
67276SOL    HW1 3660   9.711   4.845   7.636
67276SOL    HW2 3661   9.725   4.697   7.608
67277SOL     OW 3662  10.227   7.587  13.484
67277SOL    HW1 3663  10.179   7.590  13.401
67277SOL    HW2 3664  10.303   7.644  13.470
67278SOL     OW 3665   5.504   4.591  14.128
67278SOL    HW1 3666   5.442   4.570  14.058
67278SOL    HW2 3667   5.588   4.603  14.084
67279SOL     OW 3668   1.411   2.915  14.586
67279SOL    HW1 3669   1.449   2.988  14.537
67279SOL    HW2 3670   1.430   2.935  14.678
67280SOL     OW 3671  14.493   6.374  13.380
67280SOL    HW1 3672  14.573   6.374  13.432
67280SOL    HW2 3673  14.436   6.437  13.422
67281SOL     OW 3674  12.717  12.813   3.720
67281SOL    HW1 3675  12.777  12.878   3.757
67281SOL    HW2 3676  12.728  12.735   3.774
67282SOL     OW 3677  13.134   6.759  10.934
67282SOL    HW1 3678  13.094   6.782  11.018
67282SOL    HW2 3679  13.227   6.744  10.955
67283SOL     OW 3680  13.048  10.884   6.949
67283SOL    HW1 3681  13.097  10.808   6.979
67283SOL    HW2 3682  12.980  10.896   7.014
67284SOL     OW 3683   3.382   8.517   3.957
67284SOL    HW1 3684   3.397   8.479   4.044
67284SOL    HW2 3685   3.376   8.442   3.898
67285SOL     OW 3686   9.505  14.740   7.396
67285SOL    HW1 3687   9.578  14.688   7.430
67285SOL    HW2 3688   9.432  14.721   7.455
67286SOL     OW 3689   8.632   6.692  10.719
67286SOL    HW1 3690   8.701   6.635  10.686
67286SOL    HW2 3691   8.677   6.754  10.776
67287SOL     OW 3692  13.553   4.220   6.082
67287SOL    HW1 3693  13.540   4.314   6.097
67287SOL    HW2 3694  13.609   4.216   6.005
67288SOL     OW 3695   5.831   5.204   3.570
67288SOL    HW1 3696   5.880   5.276   3.532
67288SOL    HW2 3697   5.796   5.239   3.652
67289SOL     OW 3698  10.749  14.374   3.362
67289SOL    HW1 3699  10.696  14.435   3.310
67289SOL    HW2 3700  10.712  14.379   3.450
67290SOL     OW 3701  14.640  13.557   5.601
67290SOL    HW1 3702  14.673  13.578   5.514
67290SOL    HW2 3703  14.605  13.640   5.634
67291SOL     OW 3704  14.197   5.452  14.404
67291SOL    HW1 3705  14.130   5.386  14.424
67291SOL    HW2 3706  14.260   5.444  14.476
67292SOL     OW 3707   3.902   1.841   2.692
67292SOL    HW1 3708   3.899   1.937   2.699
67292SOL    HW2 3709   3.903   1.811   2.782
67293SOL     OW 3710   9.199  14.870  14.109
67293SOL    HW1 3711   9.119   0.006  14.158
67293SOL    HW2 3712   9.221   0.071  14.067
67294SOL     OW 3713  13.642   9.614   1.573
67294SOL    HW1 3714  13.718   9.593   1.519
67294SOL    HW2 3715  13.678   9.626   1.661
67295SOL     OW 3716   0.649   5.056   5.486
67295SOL    HW1 3717   0.662   4.972   5.440
67295SOL    HW2 3718   0.556   5.076   5.472
67296SOL     OW 3719   1.981  11.769   9.914
67296SOL    HW1 3720   1.917  11.831   9.880
67296SOL    HW2 3721   2.019  11.814   9.990
67297SOL     OW 3722   7.421   3.010  10.151
67297SOL    HW1 3723   7.394   3.055  10.070
67297SOL    HW2 3724   7.364   2.933  10.156
67298SOL     OW 3725   3.549   4.425   7.584
67298SOL    HW1 3726   3.610   4.467   7.646
67298SOL    HW2 3727   3.474   4.485   7.580
67299SOL     OW 3728   6.659   5.527  12.308
67299SOL    HW1 3729   6.660   5.617  12.341
67299SOL    HW2 3730   6.744   5.516  12.266
67300SOL     OW 3731   5.463   1.033  10.815
67300SOL    HW1 3732   5.405   0.965  10.851
67300SOL    HW2 3733   5.448   1.109  10.870
67301SOL     OW 3734   4.614   1.697  13.788
67301SOL    HW1 3735   4.522   1.692  13.812
67301SOL    HW2 3736   4.614   1.720  13.695
67302SOL     OW 3737   8.214   9.902   9.203
67302SOL    HW1 3738   8.303   9.903   9.167
67302SOL    HW2 3739   8.219   9.957   9.281
67303SOL     OW 3740   0.316   3.249  10.813
67303SOL    HW1 3741   0.362   3.185  10.867
67303SOL    HW2 3742   0.257   3.198  10.758
67304SOL     OW 3743  14.122  12.954  14.174
67304SOL    HW1 3744  14.093  12.866  14.149
67304SOL    HW2 3745  14.057  13.013  14.135
67305SOL     OW 3746   5.544   0.385  10.239
67305SOL    HW1 3747   5.624   0.359  10.193
67305SOL    HW2 3748   5.524   0.472  10.205
67306SOL     OW 3749   0.932   1.560  11.323
67306SOL    HW1 3750   0.985   1.604  11.257
67306SOL    HW2 3751   0.877   1.499  11.274
67307SOL     OW 3752  10.927  12.440   8.848
67307SOL    HW1 3753  10.966  12.421   8.763
67307SOL    HW2 3754  10.977  12.388   8.910
67308SOL     OW 3755   3.859   2.188   1.838
67308SOL    HW1 3756   3.871   2.135   1.760
67308SOL    HW2 3757   3.905   2.270   1.820
67309SOL     OW 3758   1.612   9.287   7.785
67309SOL    HW1 3759   1.549   9.257   7.719
67309SOL    HW2 3760   1.694   9.246   7.760
67310SOL     OW 3761   2.971   5.964   5.356
67310SOL    HW1 3762   2.914   5.918   5.418
67310SOL    HW2 3763   3.014   5.895   5.306
67311SOL     OW 3764   3.118   3.877   5.964
67311SOL    HW1 3765   3.169   3.895   5.885
67311SOL    HW2 3766   3.043   3.936   5.958
67312SOL     OW 3767  12.701  10.386   9.400
67312SOL    HW1 3768  12.752  10.372   9.321
67312SOL    HW2 3769  12.616  10.345   9.381
67313SOL     OW 3770  12.695  12.096  10.233
67313SOL    HW1 3771  12.685  12.170  10.294
67313SOL    HW2 3772  12.691  12.136  10.146
67314SOL     OW 3773  11.784   9.312   1.807
67314SOL    HW1 3774  11.804   9.350   1.722
67314SOL    HW2 3775  11.719   9.371   1.845
67315SOL     OW 3776  13.440   6.110   3.125
67315SOL    HW1 3777  13.354   6.146   3.104
67315SOL    HW2 3778  13.434   6.018   3.102
67316SOL     OW 3779   1.689  11.467   3.668
67316SOL    HW1 3780   1.681  11.427   3.581
67316SOL    HW2 3781   1.652  11.403   3.728
67317SOL     OW 3782   4.981   5.382   3.599
67317SOL    HW1 3783   5.066   5.417   3.574
67317SOL    HW2 3784   4.958   5.431   3.679
67318SOL     OW 3785   1.729   9.362  11.774
67318SOL    HW1 3786   1.685   9.296  11.828
67318SOL    HW2 3787   1.821   9.335  11.774
67319SOL     OW 3788   9.394   4.250   3.804
67319SOL    HW1 3789   9.306   4.254   3.842
67319SOL    HW2 3790   9.420   4.342   3.795
67320SOL     OW 3791   0.307   5.379   9.928
67320SOL    HW1 3792   0.246   5.412   9.862
67320SOL    HW2 3793   0.316   5.451   9.991
67321SOL     OW 3794   9.742   3.262   1.965
67321SOL    HW1 3795   9.686   3.188   1.940
67321SOL    HW2 3796   9.801   3.274   1.891
67322SOL     OW 3797   0.710   2.764   3.441
67322SOL    HW1 3798   0.790   2.764   3.493
67322SOL    HW2 3799   0.709   2.678   3.399
67323SOL     OW 3800  10.660  14.488   8.784
67323SOL    HW1 3801  10.628  14.431   8.854
67323SOL    HW2 3802  10.585  14.542   8.761
67324SOL     OW 3803   9.351   7.250  12.963
67324SOL    HW1 3804   9.392   7.207  12.888
67324SOL    HW2 3805   9.262   7.270  12.933
67325SOL     OW 3806  10.229   5.025   3.637
67325SOL    HW1 3807  10.193   4.953   3.585
67325SOL    HW2 3808  10.305   5.056   3.587
67326SOL     OW 3809   7.554  14.499   5.944
67326SOL    HW1 3810   7.545  14.545   6.027
67326SOL    HW2 3811   7.465  14.468   5.924
67327SOL     OW 3812  13.541   1.382   0.464
67327SOL    HW1 3813  13.449   1.389   0.490
67327SOL    HW2 3814  13.540   1.394   0.369
67328SOL     OW 3815   2.918   7.282   7.684
67328SOL    HW1 3816   3.003   7.325   7.679
67328SOL    HW2 3817   2.859   7.350   7.718
67329SOL     OW 3818   3.559   6.741   2.710
67329SOL    HW1 3819   3.560   6.689   2.791
67329SOL    HW2 3820   3.611   6.690   2.648
67330SOL     OW 3821   1.173   6.658   4.567
67330SOL    HW1 3822   1.134   6.661   4.480
67330SOL    HW2 3823   1.251   6.603   4.558
67331SOL     OW 3824   7.198   5.632   4.689
67331SOL    HW1 3825   7.207   5.714   4.739
67331SOL    HW2 3826   7.185   5.565   4.755
67332SOL     OW 3827   4.741   9.440  13.112
67332SOL    HW1 3828   4.669   9.490  13.150
67332SOL    HW2 3829   4.706   9.352  13.100
67333SOL     OW 3830  14.257   7.340   7.447
67333SOL    HW1 3831  14.314   7.322   7.373
67333SOL    HW2 3832  14.170   7.312   7.418
67334SOL     OW 3833   7.112  12.410  13.393
67334SOL    HW1 3834   7.112  12.368  13.307
67334SOL    HW2 3835   7.196  12.387  13.432
67335SOL     OW 3836  11.092  13.157  13.616
67335SOL    HW1 3837  11.180  13.118  13.608
67335SOL    HW2 3838  11.078  13.201  13.533
67336SOL     OW 3839   8.726   7.522  11.387
67336SOL    HW1 3840   8.754   7.503  11.298
67336SOL    HW2 3841   8.648   7.468  11.399
67337SOL     OW 3842   0.174  10.897   1.550
67337SOL    HW1 3843   0.097  10.843   1.568
67337SOL    HW2 3844   0.233  10.879   1.623
67338SOL     OW 3845  10.769   0.354  11.125
67338SOL    HW1 3846  10.859   0.381  11.112
67338SOL    HW2 3847  10.741   0.399  11.205
67339SOL     OW 3848  12.484  10.150  10.102
67339SOL    HW1 3849  12.570  10.108  10.100
67339SOL    HW2 3850  12.503  10.244  10.100
67340SOL     OW 3851   8.447   7.256   3.358
67340SOL    HW1 3852   8.405   7.342   3.364
67340SOL    HW2 3853   8.531   7.268   3.403
67341SOL     OW 3854  10.670   1.574   6.788
67341SOL    HW1 3855  10.698   1.531   6.707
67341SOL    HW2 3856  10.692   1.666   6.775
67342SOL     OW 3857   5.318   4.542   4.991
67342SOL    HW1 3858   5.398   4.580   5.027
67342SOL    HW2 3859   5.341   4.518   4.901
67343SOL     OW 3860  13.851   6.596   0.345
67343SOL    HW1 3861  13.772   6.616   0.395
67343SOL    HW2 3862  13.828   6.617   0.254
67344SOL     OW 3863   7.927  11.861   6.575
67344SOL    HW1 3864   7.984  11.831   6.504
67344SOL    HW2 3865   7.839  11.862   6.535
67345SOL     OW 3866  13.146   2.724   6.628
67345SOL    HW1 3867  13.102   2.809   6.622
67345SOL    HW2 3868  13.078   2.664   6.658
67346SOL     OW 3869  11.988   7.644   8.234
67346SOL    HW1 3870  11.949   7.667   8.318
67346SOL    HW2 3871  11.943   7.564   8.208
67347SOL     OW 3872   5.072   9.499   2.256
67347SOL    HW1 3873   5.061   9.506   2.351
67347SOL    HW2 3874   5.051   9.407   2.236
67348SOL     OW 3875   0.865  12.409   4.171
67348SOL    HW1 3876   0.857  12.319   4.202
67348SOL    HW2 3877   0.889  12.460   4.249
67349SOL     OW 3878   7.400  12.734  10.633
67349SOL    HW1 3879   7.413  12.778  10.717
67349SOL    HW2 3880   7.487  12.735  10.592
67350SOL     OW 3881   2.342  11.480   1.212
67350SOL    HW1 3882   2.281  11.554   1.213
67350SOL    HW2 3883   2.338  11.445   1.301
67351SOL     OW 3884   7.285   6.523   3.370
67351SOL    HW1 3885   7.267   6.499   3.279
67351SOL    HW2 3886   7.375   6.555   3.369
67352SOL     OW 3887  11.380   5.557  13.005
67352SOL    HW1 3888  11.450   5.497  13.028
67352SOL    HW2 3889  11.301   5.517  13.042
67353SOL     OW 3890   7.765   2.943   8.802
67353SOL    HW1 3891   7.709   3.008   8.845
67353SOL    HW2 3892   7.853   2.962   8.835
67354SOL     OW 3893   1.623   0.819   6.948
67354SOL    HW1 3894   1.649   0.882   6.881
67354SOL    HW2 3895   1.530   0.837   6.964
67355SOL     OW 3896   8.871  14.416   1.344
67355SOL    HW1 3897   8.954  14.371   1.364
67355SOL    HW2 3898   8.896  14.484   1.281
67356SOL     OW 3899   6.977   9.378   4.005
67356SOL    HW1 3900   7.026   9.422   4.075
67356SOL    HW2 3901   6.944   9.298   4.046
67357SOL     OW 3902   8.529   8.106   7.342
67357SOL    HW1 3903   8.564   8.194   7.325
67357SOL    HW2 3904   8.506   8.072   7.256
67358SOL     OW 3905   7.482   2.238   2.462
67358SOL    HW1 3906   7.532   2.221   2.382
67358SOL    HW2 3907   7.520   2.179   2.527
67359SOL     OW 3908   6.981   0.803  12.843
67359SOL    HW1 3909   6.957   0.799  12.935
67359SOL    HW2 3910   7.000   0.896  12.828
67360SOL     OW 3911   8.158   3.316   2.928
67360SOL    HW1 3912   8.181   3.322   2.835
67360SOL    HW2 3913   8.188   3.398   2.966
67361SOL     OW 3914  13.718   7.872   8.831
67361SOL    HW1 3915  13.791   7.934   8.840
67361SOL    HW2 3916  13.684   7.887   8.743
67362SOL     OW 3917   0.850   6.226   5.336
67362SOL    HW1 3918   0.811   6.162   5.395
67362SOL    HW2 3919   0.912   6.275   5.392
67363SOL     OW 3920   1.155   1.167   7.278
67363SOL    HW1 3921   1.096   1.104   7.320
67363SOL    HW2 3922   1.161   1.138   7.187
67364SOL     OW 3923   2.923  12.640   0.333
67364SOL    HW1 3924   2.834  12.675   0.327
67364SOL    HW2 3925   2.961  12.655   0.246
67365SOL     OW 3926   0.284  10.971   7.665
67365SOL    HW1 3927   0.248  10.892   7.623
67365SOL    HW2 3928   0.379  10.955   7.669
67366SOL     OW 3929  11.487  12.703  11.530
67366SOL    HW1 3930  11.482  12.788  11.486
67366SOL    HW2 3931  11.567  12.663  11.495
67367SOL     OW 3932   4.185   7.036  13.422
67367SOL    HW1 3933   4.197   7.125  13.388
67367SOL    HW2 3934   4.233   7.035  13.504
67368SOL     OW 3935   0.364   9.793   8.562
67368SOL    HW1 3936   0.379   9.858   8.630
67368SOL    HW2 3937   0.386   9.709   8.603
67369SOL     OW 3938   3.056  14.440   9.831
67369SOL    HW1 3939   2.989  14.491   9.784
67369SOL    HW2 3940   3.135  14.448   9.776
67370SOL     OW 3941   8.322   3.489   4.184
67370SOL    HW1 3942   8.397   3.446   4.224
67370SOL    HW2 3943   8.250   3.427   4.196
67371SOL     OW 3944   9.375  12.069   1.514
67371SOL    HW1 3945   9.304  12.103   1.460
67371SOL    HW2 3946   9.422  12.147   1.543
67372SOL     OW 3947   8.776   2.275   5.335
67372SOL    HW1 3948   8.714   2.218   5.381
67372SOL    HW2 3949   8.814   2.219   5.268
67373SOL     OW 3950   1.735   1.067  10.938
67373SOL    HW1 3951   1.710   1.039  11.026
67373SOL    HW2 3952   1.795   0.999  10.907
67374SOL     OW 3953   0.353   3.159   5.700
67374SOL    HW1 3954   0.321   3.084   5.751
67374SOL    HW2 3955   0.436   3.182   5.740
67375SOL     OW 3956   2.200  10.722   3.065
67375SOL    HW1 3957   2.137  10.653   3.045
67375SOL    HW2 3958   2.149  10.803   3.058
67376SOL     OW 3959  11.098   8.986  11.099
67376SOL    HW1 3960  11.181   9.032  11.089
67376SOL    HW2 3961  11.119   8.907  11.150
67377SOL     OW 3962   3.191   7.955   4.538
67377SOL    HW1 3963   3.270   7.904   4.523
67377SOL    HW2 3964   3.130   7.927   4.470
67378SOL     OW 3965   5.200   4.078   9.567
67378SOL    HW1 3966   5.123   4.052   9.617
67378SOL    HW2 3967   5.252   3.998   9.560
67379SOL     OW 3968   4.989   9.818  13.544
67379SOL    HW1 3969   5.076   9.834  13.508
67379SOL    HW2 3970   5.003   9.757  13.616
67380SOL     OW 3971  13.419   6.094   7.121
67380SOL    HW1 3972  13.377   6.061   7.201
67380SOL    HW2 3973  13.510   6.110   7.146
67381SOL     OW 3974  13.671   2.450  11.191
67381SOL    HW1 3975  13.733   2.521  11.205
67381SOL    HW2 3976  13.725   2.373  11.176
67382SOL     OW 3977  13.410  13.804  10.738
67382SOL    HW1 3978  13.357  13.747  10.794
67382SOL    HW2 3979  13.353  13.822  10.663
67383SOL     OW 3980   6.428   5.061   0.388
67383SOL    HW1 3981   6.473   4.999   0.331
67383SOL    HW2 3982   6.393   5.128   0.329
67384SOL     OW 3983  11.688   1.507   5.072
67384SOL    HW1 3984  11.779   1.519   5.045
67384SOL    HW2 3985  11.679   1.560   5.151
67385SOL     OW 3986  13.390   7.647   8.120
67385SOL    HW1 3987  13.397   7.714   8.052
67385SOL    HW2 3988  13.479   7.637   8.154
67386SOL     OW 3989   7.174   3.079   5.454
67386SOL    HW1 3990   7.119   3.000   5.450
67386SOL    HW2 3991   7.256   3.049   5.492
67387SOL     OW 3992   0.715   9.414  10.588
67387SOL    HW1 3993   0.784   9.439  10.527
67387SOL    HW2 3994   0.723   9.319  10.598
67388SOL     OW 3995  13.336  12.889   8.867
67388SOL    HW1 3996  13.371  12.926   8.948
67388SOL    HW2 3997  13.341  12.794   8.880
67389SOL     OW 3998   2.576  10.765   6.233
67389SOL    HW1 3999   2.632  10.688   6.233
67389SOL    HW2 4000   2.583  10.799   6.144
67390SOL     OW 4001  10.860   0.931  10.221
67390SOL    HW1 4002  10.843   0.851  10.270
67390SOL    HW2 4003  10.780   0.983  10.231
67391SOL     OW 4004   8.926   8.470   5.766
67391SOL    HW1 4005   8.934   8.503   5.855
67391SOL    HW2 4006   8.970   8.385   5.768
67392SOL     OW 4007   0.001  10.366   6.083
67392SOL    HW1 4008  14.827  10.351   6.159
67392SOL    HW2 4009  14.824  10.400   6.016
67393SOL     OW 4010   2.669   7.014   8.968
67393SOL    HW1 4011   2.660   7.105   8.996
67393SOL    HW2 4012   2.661   6.964   9.049
67394SOL     OW 4013  10.095   9.710   4.080
67394SOL    HW1 4014  10.010   9.718   4.036
67394SOL    HW2 4015  10.075   9.719   4.173
67395SOL     OW 4016   5.293   9.517  10.222
67395SOL    HW1 4017   5.227   9.464  10.178
67395SOL    HW2 4018   5.327   9.461  10.292
67396SOL     OW 4019  11.594   7.690  10.251
67396SOL    HW1 4020  11.503   7.679  10.278
67396SOL    HW2 4021  11.589   7.733  10.165
67397SOL     OW 4022   7.187  14.516  14.209
67397SOL    HW1 4023   7.114  14.577  14.196
67397SOL    HW2 4024   7.171  14.446  14.146
67398SOL     OW 4025   3.661  13.056   4.292
67398SOL    HW1 4026   3.593  13.024   4.351
67398SOL    HW2 4027   3.627  13.139   4.259
67399SOL     OW 4028   9.756   3.972   7.213
67399SOL    HW1 4029   9.705   4.029   7.155
67399SOL    HW2 4030   9.774   3.894   7.160
67400SOL     OW 4031   3.578   8.416   4.698
67400SOL    HW1 4032   3.626   8.499   4.709
67400SOL    HW2 4033   3.604   8.364   4.774
67401SOL     OW 4034  12.244   1.684   7.520
67401SOL    HW1 4035  12.253   1.606   7.574
67401SOL    HW2 4036  12.325   1.733   7.536
67402SOL     OW 4037   1.766   8.968  11.560
67402SOL    HW1 4038   1.762   8.876  11.587
67402SOL    HW2 4039   1.732   8.969  11.471
67403SOL     OW 4040   9.618   2.983  13.431
67403SOL    HW1 4041   9.672   2.997  13.353
67403SOL    HW2 4042   9.629   2.890  13.452
67404SOL     OW 4043  13.229   8.636  11.465
67404SOL    HW1 4044  13.189   8.559  11.504
67404SOL    HW2 4045  13.323   8.618  11.467
67405SOL     OW 4046   9.598   1.982  13.822
67405SOL    HW1 4047   9.556   2.028  13.750
67405SOL    HW2 4048   9.585   1.889  13.802
67406SOL     OW 4049   7.680  10.826  13.500
67406SOL    HW1 4050   7.632  10.747  13.475
67406SOL    HW2 4051   7.700  10.869  13.417
67407SOL     OW 4052   0.675  12.656   1.619
67407SOL    HW1 4053   0.721  12.691   1.695
67407SOL    HW2 4054   0.582  12.664   1.641
67408SOL     OW 4055   0.639  10.504   0.579
67408SOL    HW1 4056   0.614  10.596   0.570
67408SOL    HW2 4057   0.628  10.468   0.491
67409SOL     OW 4058   3.405   3.942  10.760
67409SOL    HW1 4059   3.326   3.992  10.738
67409SOL    HW2 4060   3.424   3.966  10.850
67410SOL     OW 4061   8.600   5.985  14.616
67410SOL    HW1 4062   8.515   5.978  14.572
67410SOL    HW2 4063   8.578   6.017  14.704
67411SOL     OW 4064  12.353  12.634  10.719
67411SOL    HW1 4065  12.440  12.650  10.682
67411SOL    HW2 4066  12.349  12.540  10.734
67412SOL     OW 4067   0.223   7.695   9.315
67412SOL    HW1 4068   0.129   7.681   9.307
67412SOL    HW2 4069   0.232   7.788   9.338
67413SOL     OW 4070   1.811   1.028  10.523
67413SOL    HW1 4071   1.831   0.938  10.497
67413SOL    HW2 4072   1.715   1.029  10.530
67414SOL     OW 4073   5.305   7.912   8.274
67414SOL    HW1 4074   5.285   7.980   8.338
67414SOL    HW2 4075   5.231   7.915   8.213
67415SOL     OW 4076  10.309  11.124   0.209
67415SOL    HW1 4077  10.311  11.062   0.136
67415SOL    HW2 4078  10.231  11.177   0.193
67416SOL     OW 4079   8.245   8.094  11.030
67416SOL    HW1 4080   8.186   8.020  11.016
67416SOL    HW2 4081   8.332   8.057  11.029
67417SOL     OW 4082  11.768   3.799   1.377
67417SOL    HW1 4083  11.673   3.813   1.371
67417SOL    HW2 4084  11.804   3.887   1.386
67418SOL     OW 4085   7.245   3.173  11.532
67418SOL    HW1 4086   7.276   3.125  11.609
67418SOL    HW2 4087   7.150   3.181  11.545
67419SOL     OW 4088   7.690   9.629   0.347
67419SOL    HW1 4089   7.691   9.538   0.318
67419SOL    HW2 4090   7.612   9.666   0.308
67420SOL     OW 4091   0.978  11.320  10.758
67420SOL    HW1 4092   0.977  11.388  10.690
67420SOL    HW2 4093   0.892  11.328  10.800
67421SOL     OW 4094   3.070  14.755   0.432
67421SOL    HW1 4095   3.121  14.762   0.512
67421SOL    HW2 4096   3.135  14.761   0.361
67422SOL     OW 4097  11.784   5.754   2.918
67422SOL    HW1 4098  11.869   5.774   2.878
67422SOL    HW2 4099  11.744   5.691   2.859
67423SOL     OW 4100  14.706   7.643   2.461
67423SOL    HW1 4101  14.732   7.616   2.550
67423SOL    HW2 4102  14.617   7.676   2.472
67424SOL     OW 4103   4.782   1.326  14.562
67424SOL    HW1 4104   4.687   1.318  14.550
67424SOL    HW2 4105   4.817   1.329  14.473
67425SOL     OW 4106   2.950   3.849   9.769
67425SOL    HW1 4107   2.930   3.938   9.741
67425SOL    HW2 4108   3.024   3.823   9.715
67426SOL     OW 4109   6.521  14.223   8.489
67426SOL    HW1 4110   6.612  14.233   8.461
67426SOL    HW2 4111   6.481  14.308   8.473
67427SOL     OW 4112   2.488   8.410  12.707
67427SOL    HW1 4113   2.432   8.359  12.648
67427SOL    HW2 4114   2.561   8.352  12.727
67428SOL     OW 4115  12.237  14.881   7.522
67428SOL    HW1 4116  12.204  14.806   7.571
67428SOL    HW2 4117  12.214  14.863   7.431
67429SOL     OW 4118   3.493   9.749   5.419
67429SOL    HW1 4119   3.461   9.706   5.499
67429SOL    HW2 4120   3.437   9.826   5.410
67430SOL     OW 4121   9.470   7.638  13.276
67430SOL    HW1 4122   9.490   7.562  13.330
67430SOL    HW2 4123   9.430   7.602  13.197
67431SOL     OW 4124  13.889   6.634  12.059
67431SOL    HW1 4125  13.903   6.554  12.008
67431SOL    HW2 4126  13.795   6.637  12.073
67432SOL     OW 4127   8.447   8.765   7.911
67432SOL    HW1 4128   8.358   8.788   7.937
67432SOL    HW2 4129   8.501   8.792   7.985
67433SOL     OW 4130  12.727   0.323  11.131
67433SOL    HW1 4131  12.659   0.314  11.064
67433SOL    HW2 4132  12.801   0.271  11.098
67434SOL     OW 4133   9.564   3.352  12.912
67434SOL    HW1 4134   9.602   3.276  12.956
67434SOL    HW2 4135   9.504   3.315  12.848
67435SOL     OW 4136   0.911   3.126   4.012
67435SOL    HW1 4137   0.928   3.210   3.970
67435SOL    HW2 4138   0.815   3.119   4.013
67436SOL     OW 4139   9.339   4.429   9.486
67436SOL    HW1 4140   9.363   4.410   9.395
67436SOL    HW2 4141   9.402   4.495   9.515
67437SOL     OW 4142   9.685   1.292  10.180
67437SOL    HW1 4143   9.646   1.353  10.118
67437SOL    HW2 4144   9.615   1.230  10.201
67438SOL     OW 4145  12.640   6.286   9.398
67438SOL    HW1 4146  12.681   6.306   9.314
67438SOL    HW2 4147  12.652   6.366   9.450
67439SOL     OW 4148   0.323  10.580   1.998
67439SOL    HW1 4149   0.273  10.656   2.027
67439SOL    HW2 4150   0.415  10.606   2.011
67440SOL     OW 4151   5.118   7.119  13.796
67440SOL    HW1 4152   5.195   7.127  13.853
67440SOL    HW2 4153   5.060   7.060  13.843
67441SOL     OW 4154   2.192  11.459  11.544
67441SOL    HW1 4155   2.234  11.420  11.621
67441SOL    HW2 4156   2.190  11.553  11.563
67442SOL     OW 4157  11.232   0.744  14.880
67442SOL    HW1 4158  11.323   0.774   0.001
67442SOL    HW2 4159  11.186   0.805   0.056
67443SOL     OW 4160   1.193  14.437   2.029
67443SOL    HW1 4161   1.272  14.386   2.015
67443SOL    HW2 4162   1.222  14.528   2.027
67444SOL     OW 4163  10.587  12.928  11.454
67444SOL    HW1 4164  10.634  12.853  11.418
67444SOL    HW2 4165  10.645  12.961  11.523
67445SOL     OW 4166  14.323   3.838   0.634
67445SOL    HW1 4167  14.392   3.773   0.622
67445SOL    HW2 4168  14.367   3.915   0.670
67446SOL     OW 4169   6.816   3.700   4.744
67446SOL    HW1 4170   6.905   3.672   4.764
67446SOL    HW2 4171   6.766   3.678   4.823
67447SOL     OW 4172   0.099  13.778  12.467
67447SOL    HW1 4173   0.172  13.831  12.496
67447SOL    HW2 4174   0.031  13.792  12.534
67448SOL     OW 4175  11.895   7.389   1.659
67448SOL    HW1 4176  11.895   7.318   1.595
67448SOL    HW2 4177  11.902   7.344   1.744
67449SOL     OW 4178   4.720   8.376  13.139
67449SOL    HW1 4179   4.694   8.464  13.112
67449SOL    HW2 4180   4.662   8.318  13.089
67450SOL     OW 4181  14.542   8.510   5.475
67450SOL    HW1 4182  14.518   8.435   5.420
67450SOL    HW2 4183  14.608   8.558   5.424
67451SOL     OW 4184   6.847   5.078   5.699
67451SOL    HW1 4185   6.903   5.131   5.642
67451SOL    HW2 4186   6.775   5.051   5.644
67452SOL     OW 4187   3.690   8.307   3.188
67452SOL    HW1 4188   3.620   8.343   3.243
67452SOL    HW2 4189   3.648   8.288   3.104
67453SOL     OW 4190   4.264  13.139   2.087
67453SOL    HW1 4191   4.218  13.067   2.043
67453SOL    HW2 4192   4.197  13.207   2.097
67454SOL     OW 4193  14.731  14.823   8.122
67454SOL    HW1 4194  14.732   0.005   8.050
67454SOL    HW2 4195  14.820  14.828   8.158
67455SOL     OW 4196   5.125   3.156   8.034
67455SOL    HW1 4197   5.219   3.160   8.014
67455SOL    HW2 4198   5.120   3.183   8.126
67456SOL     OW 4199  11.534   6.702   4.096
67456SOL    HW1 4200  11.553   6.786   4.054
67456SOL    HW2 4201  11.561   6.714   4.187
67457SOL     OW 4202   3.862   3.009   7.800
67457SOL    HW1 4203   3.912   3.082   7.836
67457SOL    HW2 4204   3.814   2.974   7.875
67458SOL     OW 4205   3.507   4.343   4.095
67458SOL    HW1 4206   3.452   4.264   4.096
67458SOL    HW2 4207   3.445   4.416   4.090
67459SOL     OW 4208  14.645  12.394   8.632
67459SOL    HW1 4209  14.657  12.442   8.714
67459SOL    HW2 4210  14.725  12.412   8.582
67460SOL     OW 4211   7.540   7.414   2.616
67460SOL    HW1 4212   7.561   7.341   2.674
67460SOL    HW2 4213   7.445   7.424   2.622
67461SOL     OW 4214   1.535   2.592   2.679
67461SOL    HW1 4215   1.576   2.679   2.672
67461SOL    HW2 4216   1.503   2.574   2.591
67462SOL     OW 4217   6.304   1.534   2.649
67462SOL    HW1 4218   6.213   1.519   2.624
67462SOL    HW2 4219   6.355   1.476   2.593
67463SOL     OW 4220   7.738   7.483  12.079
67463SOL    HW1 4221   7.730   7.506  12.172
67463SOL    HW2 4222   7.731   7.388  12.078
67464SOL     OW 4223   4.056   5.456   6.513
67464SOL    HW1 4224   4.009   5.539   6.515
67464SOL    HW2 4225   4.092   5.450   6.424
67465SOL     OW 4226   7.560  11.110  13.282
67465SOL    HW1 4227   7.636  11.053  13.289
67465SOL    HW2 4228   7.519  11.085  13.199
67466SOL     OW 4229  14.212  12.826  14.522
67466SOL    HW1 4230  14.119  12.815  14.504
67466SOL    HW2 4231  14.244  12.883  14.452
67467SOL     OW 4232  10.397   2.950  10.089
67467SOL    HW1 4233  10.373   3.018  10.151
67467SOL    HW2 4234  10.348   2.873  10.117
67468SOL     OW 4235   5.865   9.818  13.563
67468SOL    HW1 4236   5.947   9.841  13.608
67468SOL    HW2 4237   5.865   9.723  13.560
67469SOL     OW 4238   1.720  13.723   5.349
67469SOL    HW1 4239   1.684  13.657   5.290
67469SOL    HW2 4240   1.651  13.788   5.359
67470SOL     OW 4241  10.185   3.973   8.090
67470SOL    HW1 4242  10.194   4.046   8.028
67470SOL    HW2 4243  10.214   3.896   8.041
67471SOL     OW 4244   3.474  11.176   4.560
67471SOL    HW1 4245   3.477  11.111   4.490
67471SOL    HW2 4246   3.388  11.165   4.600
67472SOL     OW 4247   6.684   0.808  12.709
67472SOL    HW1 4248   6.770   0.794  12.748
67472SOL    HW2 4249   6.625   0.816  12.785
67473SOL     OW 4250  11.508   9.716   9.854
67473SOL    HW1 4251  11.540   9.657   9.922
67473SOL    HW2 4252  11.427   9.675   9.824
67474SOL     OW 4253   2.359   1.554   1.930
67474SOL    HW1 4254   2.350   1.597   2.016
67474SOL    HW2 4255   2.270   1.529   1.907
67475SOL     OW 4256   4.711  13.842   8.033
67475SOL    HW1 4257   4.753  13.838   7.947
67475SOL    HW2 4258   4.781  13.867   8.093
67476SOL     OW 4259   9.211  12.394   1.287
67476SOL    HW1 4260   9.301  12.394   1.319
67476SOL    HW2 4261   9.185  12.486   1.288
67477SOL     OW 4262   8.500   6.168   1.855
67477SOL    HW1 4263   8.488   6.073   1.844
67477SOL    HW2 4264   8.413   6.204   1.846
67478SOL     OW 4265   3.176  13.023   3.455
67478SOL    HW1 4266   3.086  12.995   3.470
67478SOL    HW2 4267   3.172  13.119   3.454
67479SOL     OW 4268   3.279   7.749  13.416
67479SOL    HW1 4269   3.332   7.745  13.496
67479SOL    HW2 4270   3.322   7.690  13.355
67480SOL     OW 4271  12.041   3.975   2.325
67480SOL    HW1 4272  12.036   3.914   2.398
67480SOL    HW2 4273  12.075   4.056   2.363
67481SOL     OW 4274  12.174   5.281   8.912
67481SOL    HW1 4275  12.168   5.215   8.843
67481SOL    HW2 4276  12.094   5.268   8.964
67482SOL     OW 4277  11.004   4.766   8.196
67482SOL    HW1 4278  10.999   4.675   8.226
67482SOL    HW2 4279  11.034   4.760   8.105
67483SOL     OW 4280   2.688   9.631  13.017
67483SOL    HW1 4281   2.641   9.550  13.001
67483SOL    HW2 4282   2.706   9.632  13.111
67484SOL     OW 4283   9.188  12.382  10.922
67484SOL    HW1 4284   9.179  12.475  10.943
67484SOL    HW2 4285   9.133  12.338  10.987
67485SOL     OW 4286   0.147   4.930   5.483
67485SOL    HW1 4287   0.120   5.001   5.425
67485SOL    HW2 4288   0.089   4.857   5.460
67486SOL     OW 4289   4.061  12.470   2.861
67486SOL    HW1 4290   4.033  12.560   2.844
67486SOL    HW2 4291   4.115  12.476   2.939
67487SOL     OW 4292   5.238   9.697   0.017
67487SOL    HW1 4293   5.166   9.733   0.069
67487SOL    HW2 4294   5.261   9.615   0.061
67488SOL     OW 4295   8.876  12.550  10.657
67488SOL    HW1 4296   8.832  12.485  10.711
67488SOL    HW2 4297   8.882  12.628  10.713
67489SOL     OW 4298   0.429   1.479   4.103
67489SOL    HW1 4299   0.345   1.480   4.149
67489SOL    HW2 4300   0.481   1.415   4.150
67490SOL     OW 4301   0.329  11.730  10.317
67490SOL    HW1 4302   0.266  11.681  10.371
67490SOL    HW2 4303   0.414  11.693  10.341
67491SOL     OW 4304   2.737   2.110  12.244
67491SOL    HW1 4305   2.820   2.072  12.215
67491SOL    HW2 4306   2.692   2.037  12.288
67492SOL     OW 4307   3.776   8.729  14.310
67492SOL    HW1 4308   3.698   8.693  14.267
67492SOL    HW2 4309   3.741   8.789  14.376
67493SOL     OW 4310   0.081   8.347  14.142
67493SOL    HW1 4311   0.130   8.397  14.077
67493SOL    HW2 4312   0.095   8.256  14.117
67494SOL     OW 4313   1.379   8.404   7.805
67494SOL    HW1 4314   1.388   8.330   7.865
67494SOL    HW2 4315   1.455   8.397   7.747
67495SOL     OW 4316   2.200   9.556   0.443
67495SOL    HW1 4317   2.202   9.486   0.378
67495SOL    HW2 4318   2.148   9.625   0.403
67496SOL     OW 4319   1.130  14.114  12.472
67496SOL    HW1 4320   1.088  14.198  12.455
67496SOL    HW2 4321   1.224  14.131  12.462
67497SOL     OW 4322   5.429  13.875   5.083
67497SOL    HW1 4323   5.430  13.779   5.074
67497SOL    HW2 4324   5.389  13.890   5.169
67498SOL     OW 4325   6.879  11.680   9.523
67498SOL    HW1 4326   6.785  11.677   9.538
67498SOL    HW2 4327   6.912  11.596   9.555
67499SOL     OW 4328   3.540   8.282  10.634
67499SOL    HW1 4329   3.579   8.229  10.564
67499SOL    HW2 4330   3.581   8.368  10.625
67500SOL     OW 4331   4.398   1.014   1.989
67500SOL    HW1 4332   4.393   1.101   1.948
67500SOL    HW2 4333   4.429   1.031   2.078
67501SOL     OW 4334   4.734   8.341   8.856
67501SOL    HW1 4335   4.761   8.259   8.899
67501SOL    HW2 4336   4.779   8.410   8.904
67502SOL     OW 4337   7.982  12.522   3.817
67502SOL    HW1 4338   8.039  12.599   3.824
67502SOL    HW2 4339   7.912  12.540   3.880
67503SOL     OW 4340  14.182  11.823   9.595
67503SOL    HW1 4341  14.207  11.910   9.627
67503SOL    HW2 4342  14.257  11.793   9.544
67504SOL     OW 4343   5.287  12.754  12.571
67504SOL    HW1 4344   5.296  12.692  12.499
67504SOL    HW2 4345   5.278  12.700  12.649
67505SOL     OW 4346   0.953   0.353  14.104
67505SOL    HW1 4347   0.949   0.340  14.199
67505SOL    HW2 4348   1.011   0.283  14.073
67506SOL     OW 4349  13.655   0.564  11.872
67506SOL    HW1 4350  13.622   0.617  11.944
67506SOL    HW2 4351  13.719   0.620  11.828
67507SOL     OW 4352  13.412  11.132   5.577
67507SOL    HW1 4353  13.323  11.118   5.609
67507SOL    HW2 4354  13.429  11.225   5.591
67508SOL     OW 4355   9.779   3.763   9.718
67508SOL    HW1 4356   9.823   3.720   9.645
67508SOL    HW2 4357   9.688   3.771   9.689
67509SOL     OW 4358  13.900   0.558   3.457
67509SOL    HW1 4359  13.939   0.620   3.519
67509SOL    HW2 4360  13.846   0.613   3.400
67510SOL     OW 4361  11.362  11.298   7.996
67510SOL    HW1 4362  11.266  11.304   7.999
67510SOL    HW2 4363  11.383  11.299   7.903
67511SOL     OW 4364   8.624   9.271   1.160
67511SOL    HW1 4365   8.600   9.198   1.217
67511SOL    HW2 4366   8.719   9.264   1.151
67512SOL     OW 4367  13.152  10.499  13.426
67512SOL    HW1 4368  13.136  10.427  13.364
67512SOL    HW2 4369  13.073  10.552  13.422
67513SOL     OW 4370   7.057   6.819   4.960
67513SOL    HW1 4371   7.086   6.909   4.949
67513SOL    HW2 4372   7.138   6.767   4.961
67514SOL     OW 4373   6.568   1.369   2.843
67514SOL    HW1 4374   6.647   1.333   2.885
67514SOL    HW2 4375   6.602   1.425   2.774
67515SOL     OW 4376   1.577  10.507   3.982
67515SOL    HW1 4377   1.548  10.556   4.059
67515SOL    HW2 4378   1.619  10.429   4.017
67516SOL     OW 4379   6.256  12.029   5.730
67516SOL    HW1 4380   6.292  12.056   5.815
67516SOL    HW2 4381   6.334  12.005   5.679
67517SOL     OW 4382  13.313   2.570   0.962
67517SOL    HW1 4383  13.292   2.525   1.044
67517SOL    HW2 4384  13.269   2.520   0.894
67518SOL     OW 4385   3.489   5.091   7.830
67518SOL    HW1 4386   3.408   5.095   7.879
67518SOL    HW2 4387   3.548   5.038   7.884
67519SOL     OW 4388   1.885   6.956  14.467
67519SOL    HW1 4389   1.912   6.884  14.524
67519SOL    HW2 4390   1.965   6.982  14.421
67520SOL     OW 4391   0.796   8.744  14.705
67520SOL    HW1 4392   0.783   8.664  14.755
67520SOL    HW2 4393   0.871   8.726  14.649
67521SOL     OW 4394   7.334  14.436   5.628
67521SOL    HW1 4395   7.292  14.426   5.714
67521SOL    HW2 4396   7.341  14.531   5.616
67522SOL     OW 4397   2.429   0.163  10.621
67522SOL    HW1 4398   2.427   0.187  10.529
67522SOL    HW2 4399   2.337   0.163  10.648
67523SOL     OW 4400   7.110   0.994   3.120
67523SOL    HW1 4401   7.051   0.922   3.141
67523SOL    HW2 4402   7.115   1.045   3.202
67524SOL     OW 4403   8.355  12.524   2.017
67524SOL    HW1 4404   8.365  12.437   2.057
67524SOL    HW2 4405   8.264  12.548   2.038
67525SOL     OW 4406   3.948   2.744   3.053
67525SOL    HW1 4407   3.946   2.706   2.965
67525SOL    HW2 4408   4.025   2.705   3.095
67526SOL     OW 4409   9.537   0.774   0.506
67526SOL    HW1 4410   9.544   0.838   0.577
67526SOL    HW2 4411   9.520   0.691   0.551
67527SOL     OW 4412  10.744  13.729   1.835
67527SOL    HW1 4413  10.764  13.653   1.780
67527SOL    HW2 4414  10.687  13.694   1.904
67528SOL     OW 4415   0.082   6.970  13.493
67528SOL    HW1 4416   0.041   7.048  13.456
67528SOL    HW2 4417   0.034   6.953  13.574
67529SOL     OW 4418   5.109   5.448   6.477
67529SOL    HW1 4419   5.089   5.451   6.383
67529SOL    HW2 4420   5.202   5.471   6.482
67530SOL     OW 4421   2.912   1.602   7.804
67530SOL    HW1 4422   2.938   1.689   7.835
67530SOL    HW2 4423   2.848   1.619   7.735
67531SOL     OW 4424   8.907  10.017   2.009
67531SOL    HW1 4425   8.924   9.986   1.920
67531SOL    HW2 4426   8.812  10.029   2.013
67532SOL     OW 4427   2.713   2.650   8.537
67532SOL    HW1 4428   2.672   2.634   8.622
67532SOL    HW2 4429   2.649   2.703   8.489
67533SOL     OW 4430   8.740   1.273   2.024
67533SOL    HW1 4431   8.698   1.358   2.035
67533SOL    HW2 4432   8.676   1.210   2.057
67534SOL     OW 4433   5.245   1.107   6.803
67534SOL    HW1 4434   5.268   1.199   6.790
67534SOL    HW2 4435   5.172   1.109   6.865
67535SOL     OW 4436   1.969   7.914  13.240
67535SOL    HW1 4437   2.012   7.933  13.324
67535SOL    HW2 4438   1.905   7.846  13.260
67536SOL     OW 4439  11.703   1.348   6.235
67536SOL    HW1 4440  11.655   1.399   6.170
67536SOL    HW2 4441  11.699   1.400   6.315
67537SOL     OW 4442  14.775   7.341   4.607
67537SOL    HW1 4443  14.846   7.301   4.557
67537SOL    HW2 4444  14.778   7.298   4.692
67538SOL     OW 4445  11.822  10.042   2.882
67538SOL    HW1 4446  11.813   9.974   2.949
67538SOL    HW2 4447  11.882  10.005   2.817
67539SOL     OW 4448   0.130  12.997   5.761
67539SOL    HW1 4449   0.133  13.021   5.853
67539SOL    HW2 4450   0.045  12.956   5.749
67540SOL     OW 4451   6.669   6.986   3.053
67540SOL    HW1 4452   6.628   7.066   3.020
67540SOL    HW2 4453   6.761   7.010   3.067
67541SOL     OW 4454  14.341  12.127   2.773
67541SOL    HW1 4455  14.272  12.091   2.717
67541SOL    HW2 4456  14.323  12.221   2.776
67542SOL     OW 4457   4.460   8.850  10.751
67542SOL    HW1 4458   4.386   8.800  10.716
67542SOL    HW2 4459   4.495   8.795  10.822
67543SOL     OW 4460   4.133  13.841   8.510
67543SOL    HW1 4461   4.087  13.822   8.427
67543SOL    HW2 4462   4.074  13.808   8.578
67544SOL     OW 4463   2.264   4.691   0.067
67544SOL    HW1 4464   2.317   4.742   0.005
67544SOL    HW2 4465   2.181   4.677   0.022
67545SOL     OW 4466  10.247   2.152  12.524
67545SOL    HW1 4467  10.211   2.081  12.577
67545SOL    HW2 4468  10.309   2.197  12.581
67546SOL     OW 4469   1.626  11.708  11.868
67546SOL    HW1 4470   1.586  11.705  11.955
67546SOL    HW2 4471   1.576  11.646  11.816
67547SOL     OW 4472   8.442  14.581   5.157
67547SOL    HW1 4473   8.532  14.548   5.149
67547SOL    HW2 4474   8.388  14.509   5.126
67548SOL     OW 4475   5.714   9.337   9.895
67548SOL    HW1 4476   5.759   9.263   9.856
67548SOL    HW2 4477   5.720   9.322   9.990
67549SOL     OW 4478  12.714   6.930   7.837
67549SOL    HW1 4479  12.788   6.896   7.787
67549SOL    HW2 4480  12.748   7.009   7.879
67550SOL     OW 4481  13.607   3.976   0.531
67550SOL    HW1 4482  13.578   3.898   0.579
67550SOL    HW2 4483  13.583   4.049   0.587
67551SOL     OW 4484   2.104   2.704   8.708
67551SOL    HW1 4485   2.020   2.695   8.752
67551SOL    HW2 4486   2.169   2.691   8.777
67552SOL     OW 4487   8.455   0.093  12.947
67552SOL    HW1 4488   8.468   0.164  13.010
67552SOL    HW2 4489   8.361   0.090  12.931
67553SOL     OW 4490   7.517   2.392  10.248
67553SOL    HW1 4491   7.540   2.364  10.159
67553SOL    HW2 4492   7.429   2.356  10.261
67554SOL     OW 4493   1.008  11.707  11.246
67554SOL    HW1 4494   0.999  11.685  11.154
67554SOL    HW2 4495   1.032  11.624  11.288
67555SOL     OW 4496  12.377  12.416   3.878
67555SOL    HW1 4497  12.314  12.478   3.914
67555SOL    HW2 4498  12.347  12.400   3.789
67556SOL     OW 4499   6.393   8.772   5.191
67556SOL    HW1 4500   6.400   8.858   5.151
67556SOL    HW2 4501   6.445   8.778   5.271
67557SOL     OW 4502   4.363   1.708  13.386
67557SOL    HW1 4503   4.371   1.638  13.451
67557SOL    HW2 4504   4.273   1.700  13.352
67558SOL     OW 4505   0.521   7.783  13.789
67558SOL    HW1 4506   0.517   7.753  13.879
67558SOL    HW2 4507   0.459   7.728  13.742
67559SOL     OW 4508   3.557   1.919   3.040
67559SOL    HW1 4509   3.607   1.874   2.972
67559SOL    HW2 4510   3.581   1.874   3.121
67560SOL     OW 4511   6.750   5.906   3.597
67560SOL    HW1 4512   6.757   5.818   3.633
67560SOL    HW2 4513   6.683   5.949   3.650
67561SOL     OW 4514  13.961   9.354  12.119
67561SOL    HW1 4515  13.913   9.346  12.201
67561SOL    HW2 4516  14.010   9.272  12.110
67562SOL     OW 4517   2.329  14.554  12.275
67562SOL    HW1 4518   2.243  14.591  12.259
67562SOL    HW2 4519   2.342  14.560  12.369
67563SOL     OW 4520  12.200   0.708   5.564
67563SOL    HW1 4521  12.134   0.650   5.527
67563SOL    HW2 4522  12.176   0.717   5.656
67564SOL     OW 4523   2.359   7.294  13.362
67564SOL    HW1 4524   2.331   7.373  13.315
67564SOL    HW2 4525   2.450   7.281  13.336
67565SOL     OW 4526  14.856   0.853  10.488
67565SOL    HW1 4527   0.038   0.879  10.421
67565SOL    HW2 4528  14.844   0.932  10.541
67566SOL     OW 4529   6.197   4.236   0.127
67566SOL    HW1 4530   6.223   4.197   0.044
67566SOL    HW2 4531   6.263   4.205   0.190
67567SOL     OW 4532  14.579   2.400  12.586
67567SOL    HW1 4533  14.524   2.455  12.530
67567SOL    HW2 4534  14.649   2.370  12.527
67568SOL     OW 4535   4.116   6.707   9.400
67568SOL    HW1 4536   4.068   6.788   9.384
67568SOL    HW2 4537   4.130   6.670   9.313
67569SOL     OW 4538   3.297   5.516   9.675
67569SOL    HW1 4539   3.314   5.503   9.769
67569SOL    HW2 4540   3.352   5.590   9.651
67570SOL     OW 4541  10.336  12.026  10.949
67570SOL    HW1 4542  10.420  11.984  10.931
67570SOL    HW2 4543  10.306  11.986  11.031
67571SOL     OW 4544  13.359   3.054   2.121
67571SOL    HW1 4545  13.411   2.977   2.097
67571SOL    HW2 4546  13.372   3.063   2.215
67572SOL     OW 4547   2.511  11.968   2.326
67572SOL    HW1 4548   2.526  12.041   2.385
67572SOL    HW2 4549   2.495  12.009   2.241
67573SOL     OW 4550  14.605   2.063   8.870
67573SOL    HW1 4551  14.700   2.062   8.883
67573SOL    HW2 4552  14.574   1.980   8.905
67574SOL     OW 4553   9.957   3.700   5.535
67574SOL    HW1 4554  10.042   3.682   5.494
67574SOL    HW2 4555   9.954   3.643   5.611
67575SOL     OW 4556  14.011   6.156  10.847
67575SOL    HW1 4557  14.097   6.198  10.857
67575SOL    HW2 4558  13.992   6.119  10.934
67576SOL     OW 4559   4.337   7.842   1.542
67576SOL    HW1 4560   4.255   7.844   1.492
67576SOL    HW2 4561   4.313   7.800   1.625
67577SOL     OW 4562   8.547   5.842  11.566
67577SOL    HW1 4563   8.461   5.803  11.548
67577SOL    HW2 4564   8.610   5.779  11.534
67578SOL     OW 4565  13.756  11.027   6.107
67578SOL    HW1 4566  13.824  10.961   6.111
67578SOL    HW2 4567  13.785  11.096   6.167
67579SOL     OW 4568   6.199  13.523   2.782
67579SOL    HW1 4569   6.176  13.616   2.787
67579SOL    HW2 4570   6.116  13.479   2.759
67580SOL     OW 4571   7.662   1.390  14.759
67580SOL    HW1 4572   7.666   1.297  14.736
67580SOL    HW2 4573   7.739   1.428  14.716
67581SOL     OW 4574   5.200   3.440   9.995
67581SOL    HW1 4575   5.125   3.490  10.026
67581SOL    HW2 4576   5.264   3.446  10.067
67582SOL     OW 4577   0.589   3.122   1.229
67582SOL    HW1 4578   0.612   3.094   1.140
67582SOL    HW2 4579   0.641   3.201   1.243
67583SOL     OW 4580   1.291  11.062   6.837
67583SOL    HW1 4581   1.299  11.029   6.747
67583SOL    HW2 4582   1.318  11.153   6.831
67584SOL     OW 4583  10.263   7.662   3.851
67584SOL    HW1 4584  10.174   7.674   3.820
67584SOL    HW2 4585  10.313   7.640   3.772
67585SOL     OW 4586  13.394   9.637   0.390
67585SOL    HW1 4587  13.313   9.641   0.338
67585SOL    HW2 4588  13.463   9.651   0.326
67586SOL     OW 4589  11.390  14.569   2.857
67586SOL    HW1 4590  11.336  14.498   2.823
67586SOL    HW2 4591  11.427  14.535   2.938
67587SOL     OW 4592   0.924  12.257  12.002
67587SOL    HW1 4593   0.934  12.222  11.913
67587SOL    HW2 4594   0.839  12.300  12.001
67588SOL     OW 4595   6.049   4.679  13.422
67588SOL    HW1 4596   6.000   4.619  13.366
67588SOL    HW2 4597   6.043   4.641  13.509
67589SOL     OW 4598  11.478   0.861  14.880
67589SOL    HW1 4599  11.510   0.950   0.011
67589SOL    HW2 4600  11.536   0.824  14.814
67590SOL     OW 4601   8.648  12.534  14.878
67590SOL    HW1 4602   8.626  12.625  14.858
67590SOL    HW2 4603   8.706  12.540   0.072
67591SOL     OW 4604  10.553  10.275   6.954
67591SOL    HW1 4605  10.604  10.354   6.968
67591SOL    HW2 4606  10.544  10.269   6.859
67592SOL     OW 4607   3.860   1.346   2.791
67592SOL    HW1 4608   3.890   1.344   2.700
67592SOL    HW2 4609   3.778   1.395   2.787
67593SOL     OW 4610   5.736   5.643   2.950
67593SOL    HW1 4611   5.719   5.626   2.857
67593SOL    HW2 4612   5.673   5.588   2.997
67594SOL     OW 4613   4.546  11.510   7.977
67594SOL    HW1 4614   4.480  11.579   7.971
67594SOL    HW2 4615   4.553  11.491   8.071
67595SOL     OW 4616  11.990   4.079  12.976
67595SOL    HW1 4617  12.010   4.164  12.937
67595SOL    HW2 4618  11.944   4.099  13.057
67596SOL     OW 4619   0.044  10.768   5.585
67596SOL    HW1 4620   0.100  10.692   5.602
67596SOL    HW2 4621   0.104  10.841   5.574
67597SOL     OW 4622   7.985   9.999  12.289
67597SOL    HW1 4623   8.044   9.925  12.303
67597SOL    HW2 4624   7.904   9.960  12.255
67598SOL     OW 4625   2.799   8.284   6.956
67598SOL    HW1 4626   2.820   8.271   6.864
67598SOL    HW2 4627   2.781   8.196   6.990
67599SOL     OW 4628   4.122   3.910  10.421
67599SOL    HW1 4629   4.179   3.986  10.406
67599SOL    HW2 4630   4.117   3.867  10.335
67600SOL     OW 4631   5.359   4.573   0.910
67600SOL    HW1 4632   5.361   4.643   0.844
67600SOL    HW2 4633   5.322   4.498   0.864
67601SOL     OW 4634  13.811   6.119   0.741
67601SOL    HW1 4635  13.737   6.115   0.680
67601SOL    HW2 4636  13.796   6.046   0.802
67602SOL     OW 4637  13.541   9.368   4.781
67602SOL    HW1 4638  13.503   9.434   4.722
67602SOL    HW2 4639  13.562   9.417   4.861
67603SOL     OW 4640   2.281   9.357   4.432
67603SOL    HW1 4641   2.304   9.443   4.399
67603SOL    HW2 4642   2.363   9.320   4.463
67604SOL     OW 4643   5.387  10.003   2.808
67604SOL    HW1 4644   5.413   9.912   2.819
67604SOL    HW2 4645   5.459  10.053   2.846
67605SOL     OW 4646   9.664  12.478   4.511
67605SOL    HW1 4647   9.591  12.531   4.545
67605SOL    HW2 4648   9.728  12.478   4.582
67606SOL     OW 4649  13.517   5.091   3.959
67606SOL    HW1 4650  13.441   5.045   3.993
67606SOL    HW2 4651  13.494   5.115   3.870
67607SOL     OW 4652   7.782   3.587   8.297
67607SOL    HW1 4653   7.783   3.593   8.392
67607SOL    HW2 4654   7.873   3.571   8.273
67608SOL     OW 4655  10.020   1.227  14.667
67608SOL    HW1 4656   9.949   1.210  14.605
67608SOL    HW2 4657  10.098   1.193  14.623
67609SOL     OW 4658   3.389   2.001   0.974
67609SOL    HW1 4659   3.384   1.958   0.889
67609SOL    HW2 4660   3.300   2.030   0.992
67610SOL     OW 4661  12.908   7.639   6.045
67610SOL    HW1 4662  12.969   7.566   6.037
67610SOL    HW2 4663  12.880   7.638   6.136
67611SOL     OW 4664  11.139  13.059  11.756
67611SOL    HW1 4665  11.164  12.967  11.761
67611SOL    HW2 4666  11.176  13.089  11.673
67612SOL     OW 4667   5.745  13.084  14.753
67612SOL    HW1 4668   5.724  13.071  14.845
67612SOL    HW2 4669   5.663  13.114  14.714
67613SOL     OW 4670   6.781  11.313  14.541
67613SOL    HW1 4671   6.829  11.396  14.544
67613SOL    HW2 4672   6.790  11.283  14.451
67614SOL     OW 4673   4.127   1.681  13.265
67614SOL    HW1 4674   4.032   1.687  13.261
67614SOL    HW2 4675   4.153   1.649  13.179
67615SOL     OW 4676   1.770   8.574   2.634
67615SOL    HW1 4677   1.751   8.645   2.695
67615SOL    HW2 4678   1.685   8.538   2.610
67616SOL     OW 4679   8.558   0.413   0.491
67616SOL    HW1 4680   8.613   0.344   0.528
67616SOL    HW2 4681   8.515   0.371   0.416
67617SOL     OW 4682   9.755   4.579   7.072
67617SOL    HW1 4683   9.781   4.652   7.129
67617SOL    HW2 4684   9.759   4.616   6.983
67618SOL     OW 4685  10.793  13.011   4.022
67618SOL    HW1 4686  10.736  12.972   3.955
67618SOL    HW2 4687  10.880  13.013   3.981
67619SOL     OW 4688   4.319   1.057   5.700
67619SOL    HW1 4689   4.286   1.122   5.761
67619SOL    HW2 4690   4.245   1.040   5.641
67620SOL     OW 4691  14.626   4.744  10.259
67620SOL    HW1 4692  14.682   4.735  10.337
67620SOL    HW2 4693  14.604   4.654  10.235
67621SOL     OW 4694  12.019  10.291   0.935
67621SOL    HW1 4695  12.002  10.207   0.976
67621SOL    HW2 4696  12.110  10.285   0.907
67622SOL     OW 4697  11.423   0.189  10.389
67622SOL    HW1 4698  11.392   0.142  10.312
67622SOL    HW2 4699  11.366   0.266  10.396
67623SOL     OW 4700   1.065   4.542   8.211
67623SOL    HW1 4701   1.107   4.577   8.289
67623SOL    HW2 4702   1.135   4.541   8.145
67624SOL     OW 4703  14.540  11.087   1.470
67624SOL    HW1 4704  14.537  11.181   1.449
67624SOL    HW2 4705  14.594  11.049   1.401
67625SOL     OW 4706   7.506   9.371   2.472
67625SOL    HW1 4707   7.497   9.353   2.379
67625SOL    HW2 4708   7.467   9.295   2.516
67626SOL     OW 4709   3.572  13.507   1.060
67626SOL    HW1 4710   3.547  13.597   1.038
67626SOL    HW2 4711   3.489  13.461   1.073
67627SOL     OW 4712   2.961   5.298  10.163
67627SOL    HW1 4713   2.956   5.283  10.068
67627SOL    HW2 4714   2.890   5.246  10.199
67628SOL     OW 4715   6.184   7.178   2.939
67628SOL    HW1 4716   6.089   7.171   2.936
67628SOL    HW2 4717   6.203   7.223   3.021
67629SOL     OW 4718   4.580  12.964  13.334
67629SOL    HW1 4719   4.509  12.990  13.276
67629SOL    HW2 4720   4.617  13.046  13.365
67630SOL     OW 4721  12.823  10.949   0.861
67630SOL    HW1 4722  12.904  10.957   0.911
67630SOL    HW2 4723  12.851  10.960   0.770
67631SOL     OW 4724   7.320   8.450   0.960
67631SOL    HW1 4725   7.390   8.390   0.987
67631SOL    HW2 4726   7.336   8.464   0.867
67632SOL     OW 4727   9.255  11.989   1.948
67632SOL    HW1 4728   9.304  11.940   1.882
67632SOL    HW2 4729   9.181  11.932   1.970
67633SOL     OW 4730   7.411   6.459  11.628
67633SOL    HW1 4731   7.497   6.499  11.621
67633SOL    HW2 4732   7.356   6.511  11.569
67634SOL     OW 4733  14.205  11.952  11.301
67634SOL    HW1 4734  14.169  11.988  11.382
67634SOL    HW2 4735  14.269  12.018  11.272
67635SOL     OW 4736   8.295   7.133   6.024
67635SOL    HW1 4737   8.285   7.061   6.086
67635SOL    HW2 4738   8.217   7.187   6.036
67636SOL     OW 4739  13.941  12.468  14.471
67636SOL    HW1 4740  13.980  12.459  14.384
67636SOL    HW2 4741  13.968  12.389  14.518
67637SOL     OW 4742  12.540   5.476   6.394
67637SOL    HW1 4743  12.445   5.476   6.388
67637SOL    HW2 4744  12.565   5.568   6.395
67638SOL     OW 4745   6.297   9.048   3.561
67638SOL    HW1 4746   6.290   9.056   3.466
67638SOL    HW2 4747   6.247   9.121   3.596
67639SOL     OW 4748   6.122  11.461   9.076
67639SOL    HW1 4749   6.051  11.479   9.138
67639SOL    HW2 4750   6.078  11.451   8.992
67640SOL     OW 4751   3.309   5.715   4.350
67640SOL    HW1 4752   3.218   5.733   4.378
67640SOL    HW2 4753   3.355   5.695   4.432
67641SOL     OW 4754   1.928   8.182   2.327
67641SOL    HW1 4755   1.944   8.091   2.353
67641SOL    HW2 4756   1.880   8.176   2.244
67642SOL     OW 4757   3.798   5.930   7.883
67642SOL    HW1 4758   3.776   5.836   7.881
67642SOL    HW2 4759   3.852   5.944   7.806
67643SOL     OW 4760   1.587   1.256  11.097
67643SOL    HW1 4761   1.601   1.334  11.043
67643SOL    HW2 4762   1.551   1.191  11.037
67644SOL     OW 4763  11.835   4.206   6.572
67644SOL    HW1 4764  11.810   4.153   6.497
67644SOL    HW2 4765  11.835   4.296   6.540
67645SOL     OW 4766   9.655   9.579   5.798
67645SOL    HW1 4767   9.664   9.669   5.829
67645SOL    HW2 4768   9.579   9.582   5.739
67646SOL     OW 4769   1.880   1.284   8.525
67646SOL    HW1 4770   1.861   1.196   8.555
67646SOL    HW2 4771   1.809   1.338   8.560
67647SOL     OW 4772   7.712   1.262   6.346
67647SOL    HW1 4773   7.641   1.280   6.284
67647SOL    HW2 4774   7.792   1.279   6.296
67648SOL     OW 4775  14.294   3.685   5.720
67648SOL    HW1 4776  14.204   3.662   5.745
67648SOL    HW2 4777  14.347   3.657   5.794
67649SOL     OW 4778   7.000   3.420   4.441
67649SOL    HW1 4779   6.908   3.432   4.468
67649SOL    HW2 4780   7.050   3.432   4.522
67650SOL     OW 4781   0.586   7.156   6.575
67650SOL    HW1 4782   0.662   7.143   6.519
67650SOL    HW2 4783   0.570   7.070   6.615
67651SOL     OW 4784   0.237   9.424   3.682
67651SOL    HW1 4785   0.225   9.447   3.590
67651SOL    HW2 4786   0.312   9.366   3.683
67652SOL     OW 4787   8.263  14.559   2.808
67652SOL    HW1 4788   8.284  14.652   2.799
67652SOL    HW2 4789   8.348  14.515   2.808
67653SOL     OW 4790   2.474  13.819   2.546
67653SOL    HW1 4791   2.553  13.874   2.550
67653SOL    HW2 4792   2.402  13.880   2.560
67654SOL     OW 4793  11.344   9.920  14.460
67654SOL    HW1 4794  11.349   9.947  14.368
67654SOL    HW2 4795  11.428   9.948  14.497
67655SOL     OW 4796   2.267   2.075   9.350
67655SOL    HW1 4797   2.281   1.990   9.308
67655SOL    HW2 4798   2.354   2.113   9.357
67656SOL     OW 4799   2.224   1.564   5.367
67656SOL    HW1 4800   2.284   1.638   5.354
67656SOL    HW2 4801   2.247   1.530   5.453
67657SOL     OW 4802   9.005   8.431   9.275
67657SOL    HW1 4803   8.998   8.392   9.362
67657SOL    HW2 4804   9.092   8.407   9.245
67658SOL     OW 4805   7.355   0.909  11.755
67658SOL    HW1 4806   7.432   0.885  11.703
67658SOL    HW2 4807   7.341   0.834  11.813
67659SOL     OW 4808  14.167   5.053  12.402
67659SOL    HW1 4809  14.252   5.093  12.415
67659SOL    HW2 4810  14.138   5.085  12.317
67660SOL     OW 4811   3.828   4.158  11.484
67660SOL    HW1 4812   3.921   4.151  11.464
67660SOL    HW2 4813   3.816   4.250  11.510
67661SOL     OW 4814   3.757  10.823   4.675
67661SOL    HW1 4815   3.782  10.881   4.604
67661SOL    HW2 4816   3.703  10.756   4.633
67662SOL     OW 4817   5.649   0.437   0.014
67662SOL    HW1 4818   5.718   0.412   0.076
67662SOL    HW2 4819   5.574   0.459   0.070
67663SOL     OW 4820  13.186   2.018   3.332
67663SOL    HW1 4821  13.230   1.934   3.345
67663SOL    HW2 4822  13.093   1.997   3.340
67664SOL     OW 4823   1.143  14.659   7.807
67664SOL    HW1 4824   1.194  14.738   7.791
67664SOL    HW2 4825   1.165  14.634   7.897
67665SOL     OW 4826  13.037  11.204  14.278
67665SOL    HW1 4827  12.996  11.259  14.344
67665SOL    HW2 4828  13.100  11.262  14.234
67666SOL     OW 4829   9.254  13.252   3.959
67666SOL    HW1 4830   9.346  13.276   3.966
67666SOL    HW2 4831   9.254  13.175   3.902
67667SOL     OW 4832  12.220   9.277  11.639
67667SOL    HW1 4833  12.166   9.215  11.590
67667SOL    HW2 4834  12.266   9.222  11.703
67668SOL     OW 4835  14.124  13.063   4.631
67668SOL    HW1 4836  14.115  13.043   4.537
67668SOL    HW2 4837  14.043  13.030   4.670
67669SOL     OW 4838   0.928   1.265  13.406
67669SOL    HW1 4839   0.855   1.205  13.418
67669SOL    HW2 4840   1.006   1.209  13.413
67670SOL     OW 4841   1.318   7.344   8.764
67670SOL    HW1 4842   1.331   7.435   8.738
67670SOL    HW2 4843   1.241   7.346   8.820
67671SOL     OW 4844   9.804  10.279  12.897
67671SOL    HW1 4845   9.766  10.232  12.971
67671SOL    HW2 4846   9.898  10.273  12.910
67672SOL     OW 4847   5.897   4.033   0.044
67672SOL    HW1 4848   5.863   4.107   0.094
67672SOL    HW2 4849   5.964   3.995   0.101
67673SOL     OW 4850  13.940  12.582  10.705
67673SOL    HW1 4851  13.847  12.605  10.708
67673SOL    HW2 4852  13.983  12.652  10.755
67674SOL     OW 4853   9.836   2.931   0.955
67674SOL    HW1 4854   9.782   2.968   0.886
67674SOL    HW2 4855   9.918   2.908   0.912
67675SOL     OW 4856   6.849   0.353   6.113
67675SOL    HW1 4857   6.779   0.299   6.079
67675SOL    HW2 4858   6.929   0.311   6.082
67676SOL     OW 4859   1.821  11.333   7.917
67676SOL    HW1 4860   1.901  11.283   7.900
67676SOL    HW2 4861   1.847  11.402   7.977
67677SOL     OW 4862   0.626  14.199   3.637
67677SOL    HW1 4863   0.623  14.192   3.541
67677SOL    HW2 4864   0.576  14.278   3.657
67678SOL     OW 4865   0.314   9.275   3.396
67678SOL    HW1 4866   0.305   9.219   3.319
67678SOL    HW2 4867   0.333   9.362   3.361
67679SOL     OW 4868   5.235   3.697  13.487
67679SOL    HW1 4869   5.314   3.677  13.437
67679SOL    HW2 4870   5.205   3.613  13.521
67680SOL     OW 4871   7.919   7.342  13.218
67680SOL    HW1 4872   8.011   7.324  13.240
67680SOL    HW2 4873   7.907   7.300  13.133
67681SOL     OW 4874   3.953  11.271  10.493
67681SOL    HW1 4875   3.953  11.275  10.589
67681SOL    HW2 4876   3.872  11.224  10.471
67682SOL     OW 4877   3.601  12.748   3.178
67682SOL    HW1 4878   3.530  12.762   3.115
67682SOL    HW2 4879   3.596  12.823   3.238
67683SOL     OW 4880  14.170   7.931   9.734
67683SOL    HW1 4881  14.152   7.837   9.726
67683SOL    HW2 4882  14.265   7.937   9.737
67684SOL     OW 4883  14.424   1.089   3.916
67684SOL    HW1 4884  14.420   1.067   4.009
67684SOL    HW2 4885  14.515   1.117   3.902
67685SOL     OW 4886   4.232  10.333   1.928
67685SOL    HW1 4887   4.153  10.326   1.875
67685SOL    HW2 4888   4.295  10.274   1.885
67686SOL     OW 4889   3.711  12.008  13.120
67686SOL    HW1 4890   3.700  12.000  13.215
67686SOL    HW2 4891   3.805  12.024  13.108
67687SOL     OW 4892   6.483   8.980   1.889
67687SOL    HW1 4893   6.479   9.043   1.817
67687SOL    HW2 4894   6.567   8.997   1.931
67688SOL     OW 4895   3.950   8.411   0.723
67688SOL    HW1 4896   3.996   8.452   0.796
67688SOL    HW2 4897   3.935   8.482   0.661
67689SOL     OW 4898  11.136  11.173   5.392
67689SOL    HW1 4899  11.127  11.250   5.336
67689SOL    HW2 4900  11.047  11.136   5.396
67690SOL     OW 4901   3.960  13.573   6.085
67690SOL    HW1 4902   3.905  13.507   6.128
67690SOL    HW2 4903   4.038  13.578   6.140
67691SOL     OW 4904   1.866   7.599   5.661
67691SOL    HW1 4905   1.804   7.608   5.733
67691SOL    HW2 4906   1.952   7.595   5.703
67692SOL     OW 4907   4.998   1.147   6.244
67692SOL    HW1 4908   4.913   1.189   6.236
67692SOL    HW2 4909   5.056   1.200   6.189
67693SOL     OW 4910   2.647   4.067  11.484
67693SOL    HW1 4911   2.714   4.075  11.553
67693SOL    HW2 4912   2.579   4.013  11.523
67694SOL     OW 4913   9.667  14.762   6.951
67694SOL    HW1 4914   9.599  14.793   7.011
67694SOL    HW2 4915   9.744  14.749   7.006
67695SOL     OW 4916  12.811   4.797   7.197
67695SOL    HW1 4917  12.796   4.869   7.136
67695SOL    HW2 4918  12.725   4.755   7.206
67696SOL     OW 4919   6.585   3.551   4.314
67696SOL    HW1 4920   6.517   3.607   4.352
67696SOL    HW2 4921   6.626   3.508   4.389
67697SOL     OW 4922   3.826   3.048   2.878
67697SOL    HW1 4923   3.772   3.007   2.946
67697SOL    HW2 4924   3.916   3.028   2.903
67698SOL     OW 4925  11.873  12.654   3.447
67698SOL    HW1 4926  11.844  12.669   3.537
67698SOL    HW2 4927  11.797  12.680   3.393
67699SOL     OW 4928   1.513   9.543  10.036
67699SOL    HW1 4929   1.428   9.523   9.997
67699SOL    HW2 4930   1.571   9.559   9.961
67700SOL     OW 4931   1.230   4.719   2.280
67700SOL    HW1 4932   1.262   4.785   2.219
67700SOL    HW2 4933   1.140   4.701   2.252
67701SOL     OW 4934   2.311  11.634   3.913
67701SOL    HW1 4935   2.316  11.562   3.976
67701SOL    HW2 4936   2.324  11.592   3.828
67702SOL     OW 4937   9.379   3.708   5.540
67702SOL    HW1 4938   9.395   3.619   5.510
67702SOL    HW2 4939   9.359   3.757   5.460
67703SOL     OW 4940  10.540   2.706   7.516
67703SOL    HW1 4941  10.604   2.722   7.446
67703SOL    HW2 4942  10.510   2.617   7.501
67704SOL     OW 4943   8.991  14.756  13.609
67704SOL    HW1 4944   8.916  14.728  13.661
67704SOL    HW2 4945   9.059  14.778  13.674
67705SOL     OW 4946   9.165   8.159   7.666
67705SOL    HW1 4947   9.092   8.135   7.608
67705SOL    HW2 4948   9.155   8.102   7.742
67706SOL     OW 4949  11.049   7.582   7.166
67706SOL    HW1 4950  11.093   7.521   7.107
67706SOL    HW2 4951  10.956   7.566   7.151
67707SOL     OW 4952  11.747  13.967  12.021
67707SOL    HW1 4953  11.730  13.948  12.113
67707SOL    HW2 4954  11.695  13.901  11.973
67708SOL     OW 4955   8.821   2.071   0.334
67708SOL    HW1 4956   8.852   2.090   0.245
67708SOL    HW2 4957   8.726   2.085   0.329
67709SOL     OW 4958   0.163   1.039   5.004
67709SOL    HW1 4959   0.100   1.105   4.978
67709SOL    HW2 4960   0.130   1.004   5.086
67710SOL     OW 4961  11.786   0.010  10.194
67710SOL    HW1 4962  11.812  14.827  10.128
67710SOL    HW2 4963  11.864   0.065  10.204
67711SOL     OW 4964   6.048   6.539   3.113
67711SOL    HW1 4965   6.098   6.480   3.056
67711SOL    HW2 4966   5.962   6.497   3.120
67712SOL     OW 4967   2.314  13.919  10.494
67712SOL    HW1 4968   2.274  13.995  10.535
67712SOL    HW2 4969   2.288  13.845  10.549
67713SOL     OW 4970   5.578   5.034   3.496
67713SOL    HW1 4971   5.548   5.083   3.420
67713SOL    HW2 4972   5.666   5.067   3.513
67714SOL     OW 4973   4.158   0.673  11.796
67714SOL    HW1 4974   4.163   0.699  11.704
67714SOL    HW2 4975   4.118   0.748  11.841
67715SOL     OW 4976   9.043  10.712   9.169
67715SOL    HW1 4977   9.077  10.745   9.087
67715SOL    HW2 4978   8.949  10.700   9.154
67716SOL     OW 4979  13.120   6.344   0.200
67716SOL    HW1 4980  13.194   6.340   0.261
67716SOL    HW2 4981  13.154   6.307   0.118
67717SOL     OW 4982  14.804   1.156  12.632
67717SOL    HW1 4983  14.796   1.215  12.558
67717SOL    HW2 4984  14.800   1.212  12.709
67718SOL     OW 4985  12.076   9.008   4.266
67718SOL    HW1 4986  12.166   8.975   4.267
67718SOL    HW2 4987  12.028   8.945   4.213
67719SOL     OW 4988   5.645   1.493  12.759
67719SOL    HW1 4989   5.597   1.544  12.694
67719SOL    HW2 4990   5.581   1.477  12.828
67720SOL     OW 4991   1.942  10.278  11.079
67720SOL    HW1 4992   1.960  10.236  10.994
67720SOL    HW2 4993   2.005  10.350  11.083
67721SOL     OW 4994   8.911   8.788   5.521
67721SOL    HW1 4995   8.875   8.705   5.490
67721SOL    HW2 4996   8.840   8.851   5.510
67722SOL     OW 4997   4.480   4.066   8.644
67722SOL    HW1 4998   4.521   4.062   8.731
67722SOL    HW2 4999   4.449   4.156   8.636
67723SOL     OW 5000   9.727   1.716   6.746
67723SOL    HW1 5001   9.691   1.743   6.831
67723SOL    HW2 5002   9.650   1.689   6.695
67724SOL     OW 5003  10.452  10.711  14.014
67724SOL    HW1 5004  10.484  10.670  13.933
67724SOL    HW2 5005  10.357  10.717  14.002
67725SOL     OW 5006   6.272   9.487   2.283
67725SOL    HW1 5007   6.330   9.431   2.334
67725SOL    HW2 5008   6.204   9.514   2.345
67726SOL     OW 5009   4.572   9.318  11.095
67726SOL    HW1 5010   4.593   9.225  11.095
67726SOL    HW2 5011   4.645   9.359  11.049
67727SOL     OW 5012   2.224   5.789  10.455
67727SOL    HW1 5013   2.239   5.705  10.412
67727SOL    HW2 5014   2.263   5.779  10.541
67728SOL     OW 5015   7.474  10.308   3.932
67728SOL    HW1 5016   7.386  10.276   3.912
67728SOL    HW2 5017   7.460  10.394   3.973
67729SOL     OW 5018   7.886   7.945  10.799
67729SOL    HW1 5019   7.837   7.866  10.772
67729SOL    HW2 5020   7.883   8.002  10.723
67730SOL     OW 5021  14.301   7.563   5.902
67730SOL    HW1 5022  14.301   7.620   5.979
67730SOL    HW2 5023  14.242   7.491   5.925
67731SOL     OW 5024   7.153  10.489   8.281
67731SOL    HW1 5025   7.084  10.483   8.215
67731SOL    HW2 5026   7.226  10.439   8.245
67732SOL     OW 5027   5.615  10.960  13.585
67732SOL    HW1 5028   5.609  11.048  13.621
67732SOL    HW2 5029   5.525  10.930  13.578
67733SOL     OW 5030   6.578   3.783   2.315
67733SOL    HW1 5031   6.595   3.748   2.228
67733SOL    HW2 5032   6.488   3.756   2.334
67734SOL     OW 5033   3.518   5.580   0.788
67734SOL    HW1 5034   3.486   5.614   0.705
67734SOL    HW2 5035   3.535   5.487   0.771
67735SOL     OW 5036   1.945  13.267   9.726
67735SOL    HW1 5037   2.002  13.234   9.796
67735SOL    HW2 5038   1.865  13.216   9.735
67736SOL     OW 5039  13.382   7.940   8.258
67736SOL    HW1 5040  13.304   7.930   8.313
67736SOL    HW2 5041  13.423   7.854   8.259
67737SOL     OW 5042   6.148   2.730  11.835
67737SOL    HW1 5043   6.149   2.757  11.744
67737SOL    HW2 5044   6.075   2.669  11.842
67738SOL     OW 5045   6.835   0.499   2.396
67738SOL    HW1 5046   6.775   0.439   2.440
67738SOL    HW2 5047   6.780   0.573   2.370
67739SOL     OW 5048  12.624  14.679   1.246
67739SOL    HW1 5049  12.558  14.621   1.209
67739SOL    HW2 5050  12.578  14.728   1.315
67740SOL     OW 5051  10.937   7.534   1.985
67740SOL    HW1 5052  10.858   7.488   1.957
67740SOL    HW2 5053  10.994   7.533   1.909
67741SOL     OW 5054  12.160   5.258   2.998
67741SOL    HW1 5055  12.072   5.253   3.037
67741SOL    HW2 5056  12.214   5.202   3.054
67742SOL     OW 5057  14.662   8.040   8.407
67742SOL    HW1 5058  14.680   8.043   8.313
67742SOL    HW2 5059  14.746   8.017   8.447
67743SOL     OW 5060   2.068  14.168   8.740
67743SOL    HW1 5061   2.156  14.145   8.770
67743SOL    HW2 5062   2.013  14.095   8.769
67744SOL     OW 5063   7.916   6.747   2.732
67744SOL    HW1 5064   7.996   6.794   2.708
67744SOL    HW2 5065   7.926   6.728   2.825
67745SOL     OW 5066  12.478   1.510   0.203
67745SOL    HW1 5067  12.420   1.584   0.185
67745SOL    HW2 5068  12.460   1.487   0.295
67746SOL     OW 5069  13.728   2.759   5.781
67746SOL    HW1 5070  13.652   2.723   5.735
67746SOL    HW2 5071  13.782   2.682   5.799
67747SOL     OW 5072   7.325  13.603   8.800
67747SOL    HW1 5073   7.295  13.517   8.772
67747SOL    HW2 5074   7.400  13.623   8.743
67748SOL     OW 5075  14.640  10.180   6.517
67748SOL    HW1 5076  14.679  10.107   6.564
67748SOL    HW2 5077  14.552  10.150   6.493
67749SOL     OW 5078   5.099   4.666  14.442
67749SOL    HW1 5079   5.191   4.690  14.445
67749SOL    HW2 5080   5.099   4.574  14.415
67750SOL     OW 5081   7.074  12.672   9.674
67750SOL    HW1 5082   6.986  12.665   9.712
67750SOL    HW2 5083   7.069  12.747   9.615
67751SOL     OW 5084   0.383   2.441   5.595
67751SOL    HW1 5085   0.321   2.372   5.616
67751SOL    HW2 5086   0.349   2.480   5.514
67752SOL     OW 5087  14.196   6.181   4.694
67752SOL    HW1 5088  14.238   6.137   4.768
67752SOL    HW2 5089  14.102   6.167   4.708
67753SOL     OW 5090   6.213   8.509   2.107
67753SOL    HW1 5091   6.168   8.559   2.039
67753SOL    HW2 5092   6.301   8.494   2.072
67754SOL     OW 5093   6.840   7.407   2.186
67754SOL    HW1 5094   6.835   7.499   2.209
67754SOL    HW2 5095   6.857   7.407   2.091
67755SOL     OW 5096   9.149  14.361   4.558
67755SOL    HW1 5097   9.192  14.442   4.583
67755SOL    HW2 5098   9.198  14.331   4.482
67756SOL     OW 5099  13.358   8.993   7.096
67756SOL    HW1 5100  13.388   9.075   7.057
67756SOL    HW2 5101  13.437   8.955   7.136
67757SOL     OW 5102   0.018   7.877   2.486
67757SOL    HW1 5103   0.090   7.907   2.542
67757SOL    HW2 5104  14.842   7.953   2.478
67758SOL     OW 5105  13.240   2.070   1.355
67758SOL    HW1 5106  13.315   2.075   1.414
67758SOL    HW2 5107  13.178   2.012   1.400
67759SOL     OW 5108  13.113   7.703   5.138
67759SOL    HW1 5109  13.176   7.725   5.207
67759SOL    HW2 5110  13.121   7.774   5.074
67760SOL     OW 5111   4.391   1.141   4.775
67760SOL    HW1 5112   4.474   1.174   4.810
67760SOL    HW2 5113   4.411   1.053   4.745
67761SOL     OW 5114   4.861  14.823   9.329
67761SOL    HW1 5115   4.880   0.017   9.274
67761SOL    HW2 5116   4.864  14.858   9.419
67762SOL     OW 5117   5.829   0.706   3.161
67762SOL    HW1 5118   5.759   0.658   3.118
67762SOL    HW2 5119   5.788   0.742   3.240
67763SOL     OW 5120   4.503   1.492   6.275
67763SOL    HW1 5121   4.502   1.504   6.180
67763SOL    HW2 5122   4.542   1.573   6.309
67764SOL     OW 5123  12.254  11.105  14.592
67764SOL    HW1 5124  12.250  11.074  14.683
67764SOL    HW2 5125  12.237  11.199  14.598
67765SOL     OW 5126   7.286  12.466   9.259
67765SOL    HW1 5127   7.339  12.536   9.296
67765SOL    HW2 5128   7.245  12.505   9.182
67766SOL     OW 5129  12.877   2.915   7.139
67766SOL    HW1 5130  12.940   2.895   7.070
67766SOL    HW2 5131  12.850   3.005   7.122
67767SOL     OW 5132   8.901   7.531   6.582
67767SOL    HW1 5133   8.896   7.569   6.670
67767SOL    HW2 5134   8.852   7.449   6.589
67768SOL     OW 5135   1.177  11.526  11.708
67768SOL    HW1 5136   1.143  11.536  11.797
67768SOL    HW2 5137   1.157  11.435  11.685
67769SOL     OW 5138   4.966  14.859  10.048
67769SOL    HW1 5139   5.055  14.826  10.059
67769SOL    HW2 5140   4.960   0.049  10.111
67770SOL     OW 5141   0.866   6.042  13.216
67770SOL    HW1 5142   0.941   6.050  13.158
67770SOL    HW2 5143   0.797   6.092  13.173
67771SOL     OW 5144  14.628   3.703   8.484
67771SOL    HW1 5145  14.723   3.710   8.479
67771SOL    HW2 5146  14.609   3.688   8.577
67772SOL     OW 5147  11.850   6.576   3.468
67772SOL    HW1 5148  11.919   6.624   3.423
67772SOL    HW2 5149  11.791   6.546   3.399
67773SOL     OW 5150  14.415   5.197  13.133
67773SOL    HW1 5151  14.463   5.280  13.132
67773SOL    HW2 5152  14.440   5.156  13.216
67774SOL     OW 5153  10.327  14.211   6.561
67774SOL    HW1 5154  10.331  14.287   6.619
67774SOL    HW2 5155  10.408  14.163   6.578
67775SOL     OW 5156   2.240   0.525   1.430
67775SOL    HW1 5157   2.296   0.540   1.506
67775SOL    HW2 5158   2.274   0.443   1.392
67776SOL     OW 5159  10.460   9.227  14.012
67776SOL    HW1 5160  10.486   9.302  14.065
67776SOL    HW2 5161  10.374   9.250  13.977
67777SOL     OW 5162   8.650   0.729  11.637
67777SOL    HW1 5163   8.600   0.747  11.558
67777SOL    HW2 5164   8.587   0.693  11.698
67778SOL     OW 5165   2.880   1.210   9.323
67778SOL    HW1 5166   2.844   1.175   9.242
67778SOL    HW2 5167   2.962   1.252   9.297
67779SOL     OW 5168   7.735  11.248  10.830
67779SOL    HW1 5169   7.690  11.332  10.838
67779SOL    HW2 5170   7.683  11.188  10.884
67780SOL     OW 5171   0.438  13.632   6.375
67780SOL    HW1 5172   0.400  13.719   6.370
67780SOL    HW2 5173   0.427  13.596   6.286
67781SOL     OW 5174   9.636  13.274   3.348
67781SOL    HW1 5175   9.720  13.237   3.374
67781SOL    HW2 5176   9.588  13.201   3.309
67782SOL     OW 5177   2.898   3.688  14.328
67782SOL    HW1 5178   2.826   3.649  14.378
67782SOL    HW2 5179   2.944   3.744  14.391
67783SOL     OW 5180   0.283  13.364   6.656
67783SOL    HW1 5181   0.371  13.397   6.639
67783SOL    HW2 5182   0.291  13.269   6.645
67784SOL     OW 5183   6.158  10.861  14.332
67784SOL    HW1 5184   6.245  10.885  14.364
67784SOL    HW2 5185   6.175  10.811  14.252
67785SOL     OW 5186   9.588  12.571   6.395
67785SOL    HW1 5187   9.538  12.512   6.450
67785SOL    HW2 5188   9.649  12.614   6.455
67786SOL     OW 5189   1.711   4.281   4.747
67786SOL    HW1 5190   1.675   4.246   4.829
67786SOL    HW2 5191   1.766   4.210   4.713
67787SOL     OW 5192  14.612   1.105   6.863
67787SOL    HW1 5193  14.607   1.015   6.830
67787SOL    HW2 5194  14.596   1.096   6.957
67788SOL     OW 5195   2.558  10.357  10.825
67788SOL    HW1 5196   2.614  10.387  10.753
67788SOL    HW2 5197   2.568  10.424  10.893
67789SOL     OW 5198   7.687   2.850  13.001
67789SOL    HW1 5199   7.633   2.878  12.928
67789SOL    HW2 5200   7.690   2.755  12.994
67790SOL     OW 5201  13.091   3.931   2.035
67790SOL    HW1 5202  13.101   3.860   1.972
67790SOL    HW2 5203  13.120   4.009   1.988
67791SOL     OW 5204   7.135  14.656   3.365
67791SOL    HW1 5205   7.046  14.671   3.333
67791SOL    HW2 5206   7.124  14.595   3.438
67792SOL     OW 5207   3.987   2.088   9.338
67792SOL    HW1 5208   3.949   2.005   9.309
67792SOL    HW2 5209   3.932   2.114   9.412
67793SOL     OW 5210  14.292   1.144   0.894
67793SOL    HW1 5211  14.318   1.164   0.804
67793SOL    HW2 5212  14.197   1.153   0.894
67794SOL     OW 5213   3.781   0.693   8.081
67794SOL    HW1 5214   3.843   0.701   8.153
67794SOL    HW2 5215   3.827   0.728   8.005
67795SOL     OW 5216  12.018   9.724  13.087
67795SOL    HW1 5217  12.109   9.745  13.106
67795SOL    HW2 5218  11.970   9.754  13.164
67796SOL     OW 5219   3.469  11.123   2.069
67796SOL    HW1 5220   3.393  11.075   2.037
67796SOL    HW2 5221   3.495  11.178   1.995
67797SOL     OW 5222   0.174   9.455  14.344
67797SOL    HW1 5223   0.242   9.503  14.297
67797SOL    HW2 5224   0.221   9.401  14.407
67798SOL     OW 5225   1.654  12.556   4.000
67798SOL    HW1 5226   1.718  12.577   4.068
67798SOL    HW2 5227   1.651  12.635   3.946
67799SOL     OW 5228   7.384   8.789   0.665
67799SOL    HW1 5229   7.417   8.780   0.576
67799SOL    HW2 5230   7.390   8.701   0.702
67800SOL     OW 5231  14.504  10.893   6.320
67800SOL    HW1 5232  14.568  10.944   6.370
67800SOL    HW2 5233  14.531  10.903   6.229
67801SOL     OW 5234   9.821   3.624   5.308
67801SOL    HW1 5235   9.772   3.707   5.306
67801SOL    HW2 5236   9.868   3.626   5.391
67802SOL     OW 5237  13.278   1.872   2.891
67802SOL    HW1 5238  13.184   1.872   2.912
67802SOL    HW2 5239  13.310   1.956   2.922
67803SOL     OW 5240   5.480   1.432   8.793
67803SOL    HW1 5241   5.546   1.394   8.852
67803SOL    HW2 5242   5.421   1.359   8.773
67804SOL     OW 5243  10.977   3.771   3.098
67804SOL    HW1 5244  10.999   3.687   3.056
67804SOL    HW2 5245  10.957   3.829   3.025
67805SOL     OW 5246  10.428   1.411   4.681
67805SOL    HW1 5247  10.359   1.345   4.676
67805SOL    HW2 5248  10.469   1.409   4.594
67806SOL     OW 5249   6.351   0.937  10.602
67806SOL    HW1 5250   6.258   0.955  10.616
67806SOL    HW2 5251   6.375   0.991  10.526
67807SOL     OW 5252  11.221   3.816   2.351
67807SOL    HW1 5253  11.226   3.881   2.281
67807SOL    HW2 5254  11.128   3.802   2.364
67808SOL     OW 5255   6.669   1.717   2.944
67808SOL    HW1 5256   6.604   1.711   2.874
67808SOL    HW2 5257   6.620   1.702   3.024
67809SOL     OW 5258  13.648   1.466   5.756
67809SOL    HW1 5259  13.690   1.383   5.780
67809SOL    HW2 5260  13.720   1.522   5.727
67810SOL     OW 5261   9.248  12.620   6.001
67810SOL    HW1 5262   9.310  12.689   6.023
67810SOL    HW2 5263   9.266  12.599   5.909
67811SOL     OW 5264  10.629   6.102   8.504
67811SOL    HW1 5265  10.577   6.037   8.457
67811SOL    HW2 5266  10.570   6.135   8.572
67812SOL     OW 5267  10.919   4.395   3.507
67812SOL    HW1 5268  10.828   4.419   3.529
67812SOL    HW2 5269  10.930   4.422   3.416
67813SOL     OW 5270   7.101   2.443   1.224
67813SOL    HW1 5271   7.007   2.434   1.242
67813SOL    HW2 5272   7.111   2.416   1.133
67814SOL     OW 5273   7.734   6.634  10.525
67814SOL    HW1 5274   7.696   6.627  10.613
67814SOL    HW2 5275   7.710   6.552  10.483
67815SOL     OW 5276   6.889   8.768   0.438
67815SOL    HW1 5277   6.901   8.696   0.376
67815SOL    HW2 5278   6.834   8.831   0.391
67816SOL     OW 5279   9.376  14.027   5.700
67816SOL    HW1 5280   9.288  14.051   5.672
67816SOL    HW2 5281   9.420  14.111   5.714
67817SOL     OW 5282  14.705  14.143   7.981
67817SOL    HW1 5283  14.629  14.175   8.029
67817SOL    HW2 5284  14.676  14.062   7.940
67818SOL     OW 5285  12.460   6.509  12.323
67818SOL    HW1 5286  12.449   6.547  12.236
67818SOL    HW2 5287  12.412   6.567  12.382
67819SOL     OW 5288   4.338   7.897  10.485
67819SOL    HW1 5289   4.387   7.926  10.408
67819SOL    HW2 5290   4.290   7.820  10.455
67820SOL     OW 5291  13.892   2.712   2.948
67820SOL    HW1 5292  13.973   2.719   2.999
67820SOL    HW2 5293  13.887   2.795   2.900
67821SOL     OW 5294   7.166  12.645   6.840
67821SOL    HW1 5295   7.184  12.600   6.922
67821SOL    HW2 5296   7.212  12.595   6.773
67822SOL     OW 5297   0.335   8.823   2.646
67822SOL    HW1 5298   0.303   8.741   2.609
67822SOL    HW2 5299   0.399   8.797   2.712
67823SOL     OW 5300   9.472   4.127   3.123
67823SOL    HW1 5301   9.560   4.132   3.161
67823SOL    HW2 5302   9.448   4.218   3.106
67824SOL     OW 5303   0.359  13.789   5.348
67824SOL    HW1 5304   0.301  13.848   5.397
67824SOL    HW2 5305   0.304  13.755   5.278
67825SOL     OW 5306  12.138  11.459   1.725
67825SOL    HW1 5307  12.213  11.459   1.785
67825SOL    HW2 5308  12.142  11.545   1.683
67826SOL     OW 5309   9.445   2.192   1.877
67826SOL    HW1 5310   9.502   2.203   1.801
67826SOL    HW2 5311   9.448   2.098   1.895
67827SOL     OW 5312  13.457  14.406   3.694
67827SOL    HW1 5313  13.483  14.441   3.779
67827SOL    HW2 5314  13.440  14.483   3.640
67828SOL     OW 5315   4.242  13.645   1.220
67828SOL    HW1 5316   4.244  13.628   1.126
67828SOL    HW2 5317   4.262  13.738   1.228
67829SOL     OW 5318   5.747   5.948   0.463
67829SOL    HW1 5319   5.684   5.885   0.495
67829SOL    HW2 5320   5.820   5.945   0.525
67830SOL     OW 5321   3.740   4.966   4.785
67830SOL    HW1 5322   3.644   4.965   4.784
67830SOL    HW2 5323   3.763   4.958   4.877
67831SOL     OW 5324  10.026   2.199   5.511
67831SOL    HW1 5325   9.999   2.119   5.555
67831SOL    HW2 5326  10.034   2.174   5.419
67832SOL     OW 5327  14.574  11.346  11.797
67832SOL    HW1 5328  14.605  11.416  11.855
67832SOL    HW2 5329  14.565  11.388  11.711
67833SOL     OW 5330  10.122   9.598  10.824
67833SOL    HW1 5331  10.065   9.557  10.760
67833SOL    HW2 5332  10.189   9.532  10.843
67834SOL     OW 5333   1.043  10.350   3.178
67834SOL    HW1 5334   1.002  10.435   3.193
67834SOL    HW2 5335   0.989  10.289   3.228
67835SOL     OW 5336   0.596   8.511   2.940
67835SOL    HW1 5337   0.616   8.496   3.032
67835SOL    HW2 5338   0.638   8.439   2.894
67836SOL     OW 5339  11.701   2.663  14.145
67836SOL    HW1 5340  11.758   2.629  14.076
67836SOL    HW2 5341  11.760   2.690  14.215
67837SOL     OW 5342   6.320   1.187  14.182
67837SOL    HW1 5343   6.248   1.177  14.119
67837SOL    HW2 5344   6.357   1.100  14.191
67838SOL     OW 5345  10.358   8.156   8.787
67838SOL    HW1 5346  10.414   8.224   8.749
67838SOL    HW2 5347  10.279   8.203   8.815
67839SOL     OW 5348   4.065  12.387   3.242
67839SOL    HW1 5349   3.984  12.336   3.244
67839SOL    HW2 5350   4.132  12.324   3.215
67840SOL     OW 5351   7.793  12.102   1.973
67840SOL    HW1 5352   7.750  12.126   1.892
67840SOL    HW2 5353   7.882  12.137   1.965
67841SOL     OW 5354   9.594  12.320   9.939
67841SOL    HW1 5355   9.535  12.325   9.864
67841SOL    HW2 5356   9.682  12.323   9.901
67842SOL     OW 5357   9.186  10.631   5.867
67842SOL    HW1 5358   9.132  10.679   5.930
67842SOL    HW2 5359   9.213  10.552   5.914
67843SOL     OW 5360   1.489   3.779   1.705
67843SOL    HW1 5361   1.460   3.798   1.616
67843SOL    HW2 5362   1.581   3.756   1.697
67844SOL     OW 5363   0.055  12.096   5.179
67844SOL    HW1 5364   0.120  12.060   5.118
67844SOL    HW2 5365  14.853  12.073   5.140
67845SOL     OW 5366   2.424   9.142  12.734
67845SOL    HW1 5367   2.513   9.119  12.708
67845SOL    HW2 5368   2.371   9.067  12.707
67846SOL     OW 5369   7.703   2.567   4.860
67846SOL    HW1 5370   7.638   2.505   4.826
67846SOL    HW2 5371   7.720   2.538   4.950
67847SOL     OW 5372   5.681  12.077  13.857
67847SOL    HW1 5373   5.696  12.162  13.815
67847SOL    HW2 5374   5.714  12.088  13.946
67848SOL     OW 5375  14.289   8.511  10.068
67848SOL    HW1 5376  14.381   8.535  10.061
67848SOL    HW2 5377  14.241   8.593  10.058
67849SOL     OW 5378  13.829  12.030   1.026
67849SOL    HW1 5379  13.787  11.948   1.053
67849SOL    HW2 5380  13.920  12.019   1.051
67850SOL     OW 5381   4.038  11.089   3.455
67850SOL    HW1 5382   4.078  11.083   3.542
67850SOL    HW2 5383   4.112  11.105   3.396
67851SOL     OW 5384   8.433  13.906   3.287
67851SOL    HW1 5385   8.410  13.992   3.321
67851SOL    HW2 5386   8.389  13.901   3.202
67852SOL     OW 5387   0.211   4.243   8.383
67852SOL    HW1 5388   0.160   4.225   8.462
67852SOL    HW2 5389   0.301   4.223   8.407
67853SOL     OW 5390   8.626   7.923   6.736
67853SOL    HW1 5391   8.589   7.986   6.673
67853SOL    HW2 5392   8.551   7.893   6.786
67854SOL     OW 5393  12.435   3.996  11.605
67854SOL    HW1 5394  12.372   4.060  11.639
67854SOL    HW2 5395  12.397   3.966  11.522
67855SOL     OW 5396   1.122   7.738   9.285
67855SOL    HW1 5397   1.081   7.772   9.364
67855SOL    HW2 5398   1.136   7.645   9.304
67856SOL     OW 5399  14.817   3.304   2.945
67856SOL    HW1 5400  14.765   3.354   2.882
67856SOL    HW2 5401  14.779   3.216   2.943
67857SOL     OW 5402   0.818   3.456  12.289
67857SOL    HW1 5403   0.893   3.406  12.322
67857SOL    HW2 5404   0.772   3.396  12.231
67858SOL     OW 5405   1.441   6.110  11.706
67858SOL    HW1 5406   1.474   6.118  11.616
67858SOL    HW2 5407   1.362   6.164  11.707
67859SOL     OW 5408   1.685   8.365  14.808
67859SOL    HW1 5409   1.759   8.420  14.783
67859SOL    HW2 5410   1.631   8.359  14.730
67860SOL     OW 5411   6.187   4.810   8.714
67860SOL    HW1 5412   6.175   4.902   8.740
67860SOL    HW2 5413   6.098   4.775   8.707
67861SOL     OW 5414  13.105   8.836  13.819
67861SOL    HW1 5415  13.178   8.775  13.828
67861SOL    HW2 5416  13.128   8.891  13.744
67862SOL     OW 5417   8.573   1.923  13.164
67862SOL    HW1 5418   8.662   1.888  13.169
67862SOL    HW2 5419   8.521   1.862  13.216
67863SOL     OW 5420  13.243   8.081   7.030
67863SOL    HW1 5421  13.240   7.996   6.987
67863SOL    HW2 5422  13.312   8.129   6.985
67864SOL     OW 5423   7.266  10.393   3.200
67864SOL    HW1 5424   7.344  10.438   3.232
67864SOL    HW2 5425   7.195  10.456   3.210
67865SOL     OW 5426   5.011   1.252   4.058
67865SOL    HW1 5427   4.933   1.299   4.027
67865SOL    HW2 5428   4.992   1.160   4.039
67866SOL     OW 5429  14.293   1.681   4.429
67866SOL    HW1 5430  14.232   1.663   4.357
67866SOL    HW2 5431  14.250   1.642   4.506
67867SOL     OW 5432  11.998  12.117  11.919
67867SOL    HW1 5433  11.950  12.057  11.861
67867SOL    HW2 5434  11.994  12.201  11.874
67868SOL     OW 5435  11.837   0.619   2.986
67868SOL    HW1 5436  11.768   0.674   2.950
67868SOL    HW2 5437  11.875   0.574   2.911
67869SOL     OW 5438  13.332   6.107   4.374
67869SOL    HW1 5439  13.359   6.199   4.381
67869SOL    HW2 5440  13.296   6.100   4.285
67870SOL     OW 5441   8.137   6.814  13.763
67870SOL    HW1 5442   8.216   6.868  13.760
67870SOL    HW2 5443   8.160   6.735  13.713
67871SOL     OW 5444  13.612   9.471  10.577
67871SOL    HW1 5445  13.606   9.566  10.580
67871SOL    HW2 5446  13.631   9.444  10.667
67872SOL     OW 5447   5.016   4.569  12.505
67872SOL    HW1 5448   5.073   4.585  12.429
67872SOL    HW2 5449   5.077   4.553  12.577
67873SOL     OW 5450   8.665  11.737   5.587
67873SOL    HW1 5451   8.624  11.824   5.583
67873SOL    HW2 5452   8.594  11.679   5.615
67874SOL     OW 5453   1.845  12.485  12.517
67874SOL    HW1 5454   1.840  12.404  12.467
67874SOL    HW2 5455   1.799  12.466  12.599
67875SOL     OW 5456  13.826  12.173   2.841
67875SOL    HW1 5457  13.740  12.154   2.879
67875SOL    HW2 5458  13.828  12.269   2.832
67876SOL     OW 5459   6.990   1.767  10.549
67876SOL    HW1 5460   7.068   1.817  10.574
67876SOL    HW2 5461   7.024   1.696  10.494
67877SOL     OW 5462   0.639  10.081   6.209
67877SOL    HW1 5463   0.607  10.010   6.265
67877SOL    HW2 5464   0.733  10.067   6.204
67878SOL     OW 5465   4.227   2.138   4.151
67878SOL    HW1 5466   4.310   2.091   4.152
67878SOL    HW2 5467   4.212   2.158   4.059
67879SOL     OW 5468   4.636  13.109  14.631
67879SOL    HW1 5469   4.553  13.064  14.619
67879SOL    HW2 5470   4.698  13.040  14.653
67880SOL     OW 5471  13.276   1.009  12.943
67880SOL    HW1 5472  13.341   1.076  12.921
67880SOL    HW2 5473  13.298   0.935  12.887
67881SOL     OW 5474   4.796  11.288   0.447
67881SOL    HW1 5475   4.705  11.315   0.454
67881SOL    HW2 5476   4.814  11.242   0.530
67882SOL     OW 5477   3.821   6.464   7.703
67882SOL    HW1 5478   3.883   6.391   7.703
67882SOL    HW2 5479   3.741   6.428   7.739
67883SOL     OW 5480   5.406   1.223   5.431
67883SOL    HW1 5481   5.332   1.261   5.479
67883SOL    HW2 5482   5.478   1.225   5.493
67884SOL     OW 5483   0.426  13.351   4.913
67884SOL    HW1 5484   0.349  13.304   4.880
67884SOL    HW2 5485   0.495  13.285   4.915
67885SOL     OW 5486   3.316  12.498   0.563
67885SOL    HW1 5487   3.240  12.557   0.569
67885SOL    HW2 5488   3.310  12.460   0.475
67886SOL     OW 5489   9.985   1.675   4.966
67886SOL    HW1 5490   9.895   1.647   4.986
67886SOL    HW2 5491   9.982   1.704   4.875
67887SOL     OW 5492  10.248   3.037   4.354
67887SOL    HW1 5493  10.243   3.131   4.333
67887SOL    HW2 5494  10.317   3.004   4.297
67888SOL     OW 5495   0.977   3.148   4.372
67888SOL    HW1 5496   0.905   3.167   4.311
67888SOL    HW2 5497   0.980   3.053   4.377
67889SOL     OW 5498   0.008   9.915   5.075
67889SOL    HW1 5499  14.815   9.959   5.118
67889SOL    HW2 5500  14.858   9.895   4.987
67890SOL     OW 5501  14.688   6.764   9.113
67890SOL    HW1 5502  14.683   6.840   9.170
67890SOL    HW2 5503  14.724   6.694   9.168
67891SOL     OW 5504   1.584   2.391   1.359
67891SOL    HW1 5505   1.575   2.484   1.339
67891SOL    HW2 5506   1.648   2.359   1.296
67892SOL     OW 5507  14.692   2.313  12.353
67892SOL    HW1 5508  14.619   2.358  12.310
67892SOL    HW2 5509  14.719   2.245  12.291
67893SOL     OW 5510   5.566   0.543   7.375
67893SOL    HW1 5511   5.514   0.480   7.426
67893SOL    HW2 5512   5.500   0.601   7.336
67894SOL     OW 5513  14.502   9.858   5.305
67894SOL    HW1 5514  14.407   9.853   5.298
67894SOL    HW2 5515  14.534   9.825   5.221
67895SOL     OW 5516   8.669  13.639  12.990
67895SOL    HW1 5517   8.714  13.565  12.950
67895SOL    HW2 5518   8.633  13.604  13.071
67896SOL     OW 5519  13.184   9.956   4.795
67896SOL    HW1 5520  13.103   9.987   4.834
67896SOL    HW2 5521  13.157   9.918   4.711
67897SOL     OW 5522  14.050   1.548  10.089
67897SOL    HW1 5523  13.995   1.485  10.135
67897SOL    HW2 5524  14.111   1.495  10.038
67898SOL     OW 5525  14.195   3.928  11.627
67898SOL    HW1 5526  14.158   4.013  11.650
67898SOL    HW2 5527  14.208   3.933  11.532
67899SOL     OW 5528  13.631   4.120   2.829
67899SOL    HW1 5529  13.711   4.127   2.880
67899SOL    HW2 5530  13.594   4.035   2.852
67900SOL     OW 5531  11.598  14.527   8.959
67900SOL    HW1 5532  11.641  14.612   8.946
67900SOL    HW2 5533  11.561  14.533   9.047
67901SOL     OW 5534   0.094   1.886   4.901
67901SOL    HW1 5535   0.181   1.919   4.922
67901SOL    HW2 5536   0.110   1.802   4.858
67902SOL     OW 5537   8.386   4.809   5.591
67902SOL    HW1 5538   8.395   4.823   5.497
67902SOL    HW2 5539   8.331   4.730   5.598
67903SOL     OW 5540   7.417   5.186   9.241
67903SOL    HW1 5541   7.482   5.147   9.182
67903SOL    HW2 5542   7.384   5.111   9.292
67904SOL     OW 5543   9.329   4.590   5.026
67904SOL    HW1 5544   9.240   4.557   5.039
67904SOL    HW2 5545   9.339   4.659   5.091
67905SOL     OW 5546   2.978   6.778   3.651
67905SOL    HW1 5547   3.027   6.789   3.570
67905SOL    HW2 5548   3.004   6.853   3.705
67906SOL     OW 5549   2.883  14.158   2.537
67906SOL    HW1 5550   2.805  14.153   2.481
67906SOL    HW2 5551   2.936  14.227   2.497
67907SOL     OW 5552  11.422   0.523   2.193
67907SOL    HW1 5553  11.409   0.617   2.178
67907SOL    HW2 5554  11.364   0.480   2.130
67908SOL     OW 5555   2.615  11.030   8.528
67908SOL    HW1 5556   2.583  11.061   8.612
67908SOL    HW2 5557   2.709  11.045   8.531
67909SOL     OW 5558   0.221   6.015   5.372
67909SOL    HW1 5559   0.148   6.077   5.375
67909SOL    HW2 5560   0.178   5.929   5.366
67910SOL     OW 5561  13.169   4.985   2.525
67910SOL    HW1 5562  13.154   4.903   2.476
67910SOL    HW2 5563  13.111   5.048   2.483
67911SOL     OW 5564   4.628  12.964   3.282
67911SOL    HW1 5565   4.662  12.948   3.194
67911SOL    HW2 5566   4.558  12.899   3.292
67912SOL     OW 5567  10.912   1.518   7.756
67912SOL    HW1 5568  10.828   1.535   7.798
67912SOL    HW2 5569  10.954   1.451   7.810
67913SOL     OW 5570   4.019   6.662   7.831
67913SOL    HW1 5571   3.964   6.595   7.871
67913SOL    HW2 5572   4.026   6.731   7.897
67914SOL     OW 5573  12.946   7.899   7.865
67914SOL    HW1 5574  12.972   7.831   7.804
67914SOL    HW2 5575  13.021   7.958   7.869
67915SOL     OW 5576   9.080   8.296   3.577
67915SOL    HW1 5577   9.064   8.326   3.666
67915SOL    HW2 5578   9.003   8.241   3.556
67916SOL     OW 5579   4.567   4.831   1.383
67916SOL    HW1 5580   4.486   4.787   1.409
67916SOL    HW2 5581   4.635   4.766   1.396
67917SOL     OW 5582  11.324   3.080   1.714
67917SOL    HW1 5583  11.295   3.053   1.801
67917SOL    HW2 5584  11.349   3.171   1.724
67918SOL     OW 5585  13.960   3.091  13.818
67918SOL    HW1 5586  14.004   3.137  13.889
67918SOL    HW2 5587  13.969   2.998  13.839
67919SOL     OW 5588   2.207  12.524   4.647
67919SOL    HW1 5589   2.291  12.520   4.693
67919SOL    HW2 5590   2.141  12.521   4.716
67920SOL     OW 5591   3.821   5.875   9.394
67920SOL    HW1 5592   3.850   5.916   9.313
67920SOL    HW2 5593   3.826   5.945   9.460
67921SOL     OW 5594  11.331   7.415   9.375
67921SOL    HW1 5595  11.290   7.492   9.415
67921SOL    HW2 5596  11.406   7.449   9.327
67922SOL     OW 5597  10.559   2.787  11.652
67922SOL    HW1 5598  10.639   2.749  11.686
67922SOL    HW2 5599  10.495   2.716  11.654
67923SOL     OW 5600   3.517   0.884   4.789
67923SOL    HW1 5601   3.552   0.797   4.809
67923SOL    HW2 5602   3.553   0.940   4.858
67924SOL     OW 5603   9.186   8.789   8.626
67924SOL    HW1 5604   9.199   8.770   8.719
67924SOL    HW2 5605   9.109   8.738   8.602
67925SOL     OW 5606  13.767   2.669   0.824
67925SOL    HW1 5607  13.752   2.619   0.905
67925SOL    HW2 5608  13.680   2.696   0.795
67926SOL     OW 5609  11.869   7.539   6.149
67926SOL    HW1 5610  11.931   7.530   6.076
67926SOL    HW2 5611  11.806   7.604   6.119
67927SOL     OW 5612   4.587  14.446   1.549
67927SOL    HW1 5613   4.503  14.403   1.564
67927SOL    HW2 5614   4.601  14.498   1.628
67928SOL     OW 5615  14.524  11.859  11.887
67928SOL    HW1 5616  14.477  11.813  11.957
67928SOL    HW2 5617  14.488  11.823  11.806
67929SOL     OW 5618   0.686   4.303   8.673
67929SOL    HW1 5619   0.747   4.245   8.627
67929SOL    HW2 5620   0.660   4.253   8.750
67930SOL     OW 5621   9.208  14.205  11.945
67930SOL    HW1 5622   9.125  14.207  11.898
67930SOL    HW2 5623   9.207  14.282  12.001
67931SOL     OW 5624   5.218   4.388   0.776
67931SOL    HW1 5625   5.147   4.366   0.715
67931SOL    HW2 5626   5.238   4.306   0.821
67932SOL     OW 5627   0.903   0.305   0.516
67932SOL    HW1 5628   0.941   0.389   0.491
67932SOL    HW2 5629   0.812   0.325   0.539
67933SOL     OW 5630   6.234   5.707   3.143
67933SOL    HW1 5631   6.294   5.643   3.103
67933SOL    HW2 5632   6.178   5.655   3.200
67934SOL     OW 5633  10.671   4.499   3.235
67934SOL    HW1 5634  10.580   4.521   3.254
67934SOL    HW2 5635  10.693   4.555   3.161
67935SOL     OW 5636   9.787   7.330  12.643
67935SOL    HW1 5637   9.866   7.383  12.653
67935SOL    HW2 5638   9.809   7.246  12.684
67936SOL     OW 5639   6.833  10.819   1.141
67936SOL    HW1 5640   6.759  10.879   1.149
67936SOL    HW2 5641   6.794  10.733   1.130
67937SOL     OW 5642   2.857   6.264   8.644
67937SOL    HW1 5643   2.807   6.198   8.596
67937SOL    HW2 5644   2.875   6.333   8.580
67938SOL     OW 5645  12.357  10.658   1.009
67938SOL    HW1 5646  12.341  10.752   1.017
67938SOL    HW2 5647  12.452  10.650   1.002
67939SOL     OW 5648  13.802   5.117   5.217
67939SOL    HW1 5649  13.807   5.058   5.292
67939SOL    HW2 5650  13.708   5.124   5.198
67940SOL     OW 5651  10.679  14.706   0.884
67940SOL    HW1 5652  10.595  14.749   0.870
67940SOL    HW2 5653  10.656  14.615   0.905
67941SOL     OW 5654   8.867  12.552   7.400
67941SOL    HW1 5655   8.797  12.591   7.347
67941SOL    HW2 5656   8.939  12.538   7.338
67942SOL     OW 5657   8.303   6.234  11.433
67942SOL    HW1 5658   8.357   6.271  11.502
67942SOL    HW2 5659   8.279   6.147  11.466
67943SOL     OW 5660  12.243   6.648   8.116
67943SOL    HW1 5661  12.308   6.649   8.045
67943SOL    HW2 5662  12.274   6.717   8.176
67944SOL     OW 5663   9.527   4.331   2.446
67944SOL    HW1 5664   9.482   4.297   2.523
67944SOL    HW2 5665   9.564   4.254   2.404
67945SOL     OW 5666   4.582   3.097   9.696
67945SOL    HW1 5667   4.559   3.168   9.756
67945SOL    HW2 5668   4.524   3.109   9.621
67946SOL     OW 5669  13.845   3.220  11.989
67946SOL    HW1 5670  13.903   3.151  12.021
67946SOL    HW2 5671  13.905   3.289  11.958
67947SOL     OW 5672   1.632   9.626  11.844
67947SOL    HW1 5673   1.664   9.555  11.788
67947SOL    HW2 5674   1.541   9.604  11.862
67948SOL     OW 5675   2.868  10.517   2.704
67948SOL    HW1 5676   2.915  10.438   2.675
67948SOL    HW2 5677   2.832  10.554   2.623
67949SOL     OW 5678   3.247   9.077   8.460
67949SOL    HW1 5679   3.274   9.161   8.422
67949SOL    HW2 5680   3.304   9.013   8.418
67950SOL     OW 5681   2.168   5.112   9.251
67950SOL    HW1 5682   2.206   5.031   9.216
67950SOL    HW2 5683   2.118   5.148   9.179
67951SOL     OW 5684  12.823   0.140   4.308
67951SOL    HW1 5685  12.838   0.125   4.402
67951SOL    HW2 5686  12.887   0.207   4.285
67952SOL     OW 5687  14.454   8.523   4.593
67952SOL    HW1 5688  14.519   8.548   4.658
67952SOL    HW2 5689  14.383   8.587   4.603
67953SOL     OW 5690  13.144   3.727   2.399
67953SOL    HW1 5691  13.194   3.746   2.478
67953SOL    HW2 5692  13.144   3.810   2.351
67954SOL     OW 5693   2.425  14.366  10.580
67954SOL    HW1 5694   2.504  14.382  10.632
67954SOL    HW2 5695   2.389  14.453  10.564
67955SOL     OW 5696   1.286   7.840   2.894
67955SOL    HW1 5697   1.220   7.800   2.838
67955SOL    HW2 5698   1.266   7.934   2.891
67956SOL     OW 5699   8.452  10.850  11.654
67956SOL    HW1 5700   8.536  10.864  11.610
67956SOL    HW2 5701   8.475  10.834  11.746
67957SOL     OW 5702  11.959  10.002  13.183
67957SOL    HW1 5703  11.961  10.088  13.141
67957SOL    HW2 5704  12.027   9.952  13.139
67958SOL     OW 5705   6.568   3.526   2.512
67958SOL    HW1 5706   6.596   3.602   2.461
67958SOL    HW2 5707   6.649   3.484   2.540
67959SOL     OW 5708   9.948   4.379  11.523
67959SOL    HW1 5709   9.985   4.411  11.606
67959SOL    HW2 5710   9.867   4.335  11.549
67960SOL     OW 5711  11.862   7.204   8.314
67960SOL    HW1 5712  11.905   7.217   8.229
67960SOL    HW2 5713  11.879   7.285   8.362
67961SOL     OW 5714   1.373  10.098   1.743
67961SOL    HW1 5715   1.359  10.076   1.651
67961SOL    HW2 5716   1.419  10.022   1.779
67962SOL     OW 5717  14.132   5.767   1.001
67962SOL    HW1 5718  14.091   5.707   0.939
67962SOL    HW2 5719  14.223   5.772   0.972
67963SOL     OW 5720  13.424  13.738   9.331
67963SOL    HW1 5721  13.375  13.734   9.249
67963SOL    HW2 5722  13.374  13.684   9.392
67964SOL     OW 5723   7.061  11.305   5.050
67964SOL    HW1 5724   7.007  11.371   5.006
67964SOL    HW2 5725   6.998  11.240   5.082
67965SOL     OW 5726   8.349   2.492   0.520
67965SOL    HW1 5727   8.277   2.528   0.572
67965SOL    HW2 5728   8.427   2.512   0.572
67966SOL     OW 5729   0.082   4.813   3.151
67966SOL    HW1 5730   0.019   4.814   3.223
67966SOL    HW2 5731   0.167   4.808   3.193
67967SOL     OW 5732  14.036  11.553   7.214
67967SOL    HW1 5733  14.110  11.519   7.264
67967SOL    HW2 5734  13.995  11.475   7.176
67968SOL     OW 5735   5.157   4.977   3.925
67968SOL    HW1 5736   5.121   5.065   3.921
67968SOL    HW2 5737   5.227   4.977   3.860
67969SOL     OW 5738   9.051  12.310   1.604
67969SOL    HW1 5739   9.066  12.403   1.622
67969SOL    HW2 5740   9.074  12.266   1.686
67970SOL     OW 5741  13.899  10.914   7.622
67970SOL    HW1 5742  13.857  10.999   7.607
67970SOL    HW2 5743  13.926  10.885   7.535
67971SOL     OW 5744   4.475  12.662   9.724
67971SOL    HW1 5745   4.490  12.600   9.795
67971SOL    HW2 5746   4.404  12.624   9.672
67972SOL     OW 5747  14.390   3.920   2.367
67972SOL    HW1 5748  14.475   3.954   2.339
67972SOL    HW2 5749  14.363   3.978   2.438
67973SOL     OW 5750   4.254   3.508   0.800
67973SOL    HW1 5751   4.280   3.558   0.878
67973SOL    HW2 5752   4.329   3.515   0.741
67974SOL     OW 5753  12.816  14.280  12.827
67974SOL    HW1 5754  12.875  14.350  12.854
67974SOL    HW2 5755  12.729  14.320  12.830
67975SOL     OW 5756  11.814  10.454  12.413
67975SOL    HW1 5757  11.893  10.463  12.466
67975SOL    HW2 5758  11.743  10.479  12.471
67976SOL     OW 5759  11.063   4.679   6.959
67976SOL    HW1 5760  10.981   4.631   6.974
67976SOL    HW2 5761  11.109   4.673   7.042
67977SOL     OW 5762   7.018  11.086  12.768
67977SOL    HW1 5763   6.963  11.010  12.748
67977SOL    HW2 5764   7.006  11.145  12.694
67978SOL     OW 5765  10.917  14.690   7.646
67978SOL    HW1 5766  10.884  14.629   7.712
67978SOL    HW2 5767  10.838  14.724   7.603
67979SOL     OW 5768   4.667   6.401   2.600
67979SOL    HW1 5769   4.667   6.429   2.508
67979SOL    HW2 5770   4.620   6.317   2.600
67980SOL     OW 5771   5.112   1.271   6.452
67980SOL    HW1 5772   5.090   1.362   6.433
67980SOL    HW2 5773   5.052   1.220   6.398
67981SOL     OW 5774   6.785   7.652   9.887
67981SOL    HW1 5775   6.795   7.724   9.949
67981SOL    HW2 5776   6.868   7.605   9.890
67982SOL     OW 5777   8.818  11.198  12.352
67982SOL    HW1 5778   8.909  11.208  12.379
67982SOL    HW2 5779   8.769  11.189  12.433
67983SOL     OW 5780   1.337  10.041  13.747
67983SOL    HW1 5781   1.307   9.967  13.799
67983SOL    HW2 5782   1.428  10.020  13.725
67984SOL     OW 5783  13.027   9.925   0.179
67984SOL    HW1 5784  12.978   9.958   0.103
67984SOL    HW2 5785  12.960   9.882   0.233
67985SOL     OW 5786  13.111   1.478  11.863
67985SOL    HW1 5787  13.160   1.461  11.943
67985SOL    HW2 5788  13.140   1.565  11.835
67986SOL     OW 5789  13.261   8.325   1.979
67986SOL    HW1 5790  13.265   8.408   1.932
67986SOL    HW2 5791  13.281   8.259   1.913
67987SOL     OW 5792   3.188   3.370   2.721
67987SOL    HW1 5793   3.195   3.276   2.737
67987SOL    HW2 5794   3.278   3.402   2.724
67988SOL     OW 5795  11.440   4.336  13.835
67988SOL    HW1 5796  11.451   4.260  13.892
67988SOL    HW2 5797  11.399   4.402  13.890
67989SOL     OW 5798   4.990   6.691  10.899
67989SOL    HW1 5799   5.032   6.777  10.893
67989SOL    HW2 5800   4.987   6.673  10.993
67990SOL     OW 5801  14.112   1.337   8.440
67990SOL    HW1 5802  14.148   1.344   8.351
67990SOL    HW2 5803  14.187   1.308   8.493
67991SOL     OW 5804  14.425   7.685   1.316
67991SOL    HW1 5805  14.470   7.626   1.255
67991SOL    HW2 5806  14.332   7.678   1.291
67992SOL     OW 5807   9.699   6.535   2.821
67992SOL    HW1 5808   9.788   6.563   2.800
67992SOL    HW2 5809   9.707   6.443   2.844
67993SOL     OW 5810  10.114   0.344   3.782
67993SOL    HW1 5811  10.019   0.335   3.784
67993SOL    HW2 5812  10.138   0.367   3.871
67994SOL     OW 5813  12.672   1.187   5.485
67994SOL    HW1 5814  12.672   1.282   5.480
67994SOL    HW2 5815  12.690   1.158   5.395
67995SOL     OW 5816   3.311   2.733  11.564
67995SOL    HW1 5817   3.387   2.792  11.561
67995SOL    HW2 5818   3.321   2.686  11.647
67996SOL     OW 5819   7.177   2.969   4.234
67996SOL    HW1 5820   7.130   3.038   4.187
67996SOL    HW2 5821   7.165   2.991   4.327
67997SOL     OW 5822  11.491   5.328   6.594
67997SOL    HW1 5823  11.549   5.385   6.645
67997SOL    HW2 5824  11.529   5.327   6.506
67998SOL     OW 5825  11.524   5.620   3.861
67998SOL    HW1 5826  11.470   5.612   3.782
67998SOL    HW2 5827  11.472   5.576   3.929
67999SOL     OW 5828   1.532   2.271   0.377
67999SOL    HW1 5829   1.457   2.272   0.435
67999SOL    HW2 5830   1.496   2.248   0.291
68000SOL     OW 5831  12.975   0.508   3.146
68000SOL    HW1 5832  12.920   0.535   3.220
68000SOL    HW2 5833  12.915   0.503   3.072
68001SOL     OW 5834   9.546   0.521  10.748
68001SOL    HW1 5835   9.513   0.456  10.811
68001SOL    HW2 5836   9.615   0.474  10.700
68002SOL     OW 5837   4.775  14.002   6.380
68002SOL    HW1 5838   4.759  14.062   6.307
68002SOL    HW2 5839   4.843  14.043   6.432
68003SOL     OW 5840   7.645   4.935  11.756
68003SOL    HW1 5841   7.689   4.953  11.838
68003SOL    HW2 5842   7.709   4.958  11.688
68004SOL     OW 5843  11.492  12.297   0.313
68004SOL    HW1 5844  11.537  12.215   0.291
68004SOL    HW2 5845  11.416  12.270   0.365
68005SOL     OW 5846   9.825   8.561  11.173
68005SOL    HW1 5847   9.882   8.597  11.105
68005SOL    HW2 5848   9.752   8.522  11.126
68006SOL     OW 5849   5.425   0.624   4.707
68006SOL    HW1 5850   5.473   0.645   4.787
68006SOL    HW2 5851   5.363   0.556   4.733
68007SOL     OW 5852   9.235   7.959   8.930
68007SOL    HW1 5853   9.204   8.024   8.866
68007SOL    HW2 5854   9.330   7.962   8.922
68008SOL     OW 5855   4.464   0.036   1.678
68008SOL    HW1 5856   4.375   0.067   1.697
68008SOL    HW2 5857   4.502   0.106   1.625
68009SOL     OW 5858   8.574  10.424   8.815
68009SOL    HW1 5859   8.595  10.493   8.751
68009SOL    HW2 5860   8.575  10.343   8.764
68010SOL     OW 5861   9.801  10.721   9.920
68010SOL    HW1 5862   9.749  10.738   9.841
68010SOL    HW2 5863   9.740  10.682   9.981
68011SOL     OW 5864   1.170   0.350  13.697
68011SOL    HW1 5865   1.162   0.433  13.745
68011SOL    HW2 5866   1.168   0.375  13.605
68012SOL     OW 5867  12.183   4.531   0.898
68012SOL    HW1 5868  12.150   4.620   0.905
68012SOL    HW2 5869  12.222   4.513   0.983
68013SOL     OW 5870   3.758   8.714  11.603
68013SOL    HW1 5871   3.666   8.690  11.606
68013SOL    HW2 5872   3.775   8.735  11.511
68014SOL     OW 5873   6.347   8.782   9.156
68014SOL    HW1 5874   6.257   8.756   9.135
68014SOL    HW2 5875   6.373   8.837   9.082
68015SOL     OW 5876   9.091   3.317  12.465
68015SOL    HW1 5877   9.065   3.368  12.542
68015SOL    HW2 5878   9.022   3.333  12.401
68016SOL     OW 5879  14.217  12.504   2.182
68016SOL    HW1 5880  14.183  12.574   2.126
68016SOL    HW2 5881  14.139  12.461   2.217
68017SOL     OW 5882  13.529   0.586   6.177
68017SOL    HW1 5883  13.516   0.667   6.128
68017SOL    HW2 5884  13.571   0.527   6.115
68018SOL     OW 5885  14.829   2.302  14.711
68018SOL    HW1 5886  14.867   2.215  14.708
68018SOL    HW2 5887  14.809   2.323  14.620
68019SOL     OW 5888   8.938   4.943   4.623
68019SOL    HW1 5889   8.863   4.885   4.609
68019SOL    HW2 5890   8.981   4.948   4.538
68020SOL     OW 5891  11.122  11.384  12.805
68020SOL    HW1 5892  11.122  11.472  12.842
68020SOL    HW2 5893  11.110  11.326  12.880
68021SOL     OW 5894   5.133   3.229  12.784
68021SOL    HW1 5895   5.052   3.183  12.761
68021SOL    HW2 5896   5.172   3.176  12.853
68022SOL     OW 5897  13.540   6.099  13.403
68022SOL    HW1 5898  13.464   6.048  13.375
68022SOL    HW2 5899  13.599   6.034  13.441
68023SOL     OW 5900   7.742   2.018  10.462
68023SOL    HW1 5901   7.759   1.948  10.399
68023SOL    HW2 5902   7.803   2.087  10.437
68024SOL     OW 5903  11.943  12.736   6.280
68024SOL    HW1 5904  11.998  12.745   6.202
68024SOL    HW2 5905  11.907  12.647   6.273
68025SOL     OW 5906   3.054   3.966   6.316
68025SOL    HW1 5907   3.042   4.059   6.300
68025SOL    HW2 5908   3.007   3.923   6.245
68026SOL     OW 5909   2.360   0.673   3.994
68026SOL    HW1 5910   2.383   0.714   3.911
68026SOL    HW2 5911   2.442   0.634   4.025
68027SOL     OW 5912   8.253   2.657   8.157
68027SOL    HW1 5913   8.311   2.598   8.110
68027SOL    HW2 5914   8.181   2.601   8.188
68028SOL     OW 5915   4.183   8.441   3.954
68028SOL    HW1 5916   4.120   8.414   3.887
68028SOL    HW2 5917   4.248   8.371   3.955
68029SOL     OW 5918   9.873   4.848   4.876
68029SOL    HW1 5919   9.943   4.786   4.897
68029SOL    HW2 5920   9.823   4.857   4.958
68030SOL     OW 5921   6.813  12.345   0.134
68030SOL    HW1 5922   6.816  12.408   0.206
68030SOL    HW2 5923   6.837  12.261   0.175
68031SOL     OW 5924   5.887   4.943   3.570
68031SOL    HW1 5925   5.890   5.038   3.578
68031SOL    HW2 5926   5.920   4.925   3.482
68032SOL     OW 5927  10.990   4.619  10.579
68032SOL    HW1 5928  11.017   4.567  10.655
68032SOL    HW2 5929  10.931   4.561  10.531
68033SOL     OW 5930   5.595   5.606  12.065
68033SOL    HW1 5931   5.658   5.534  12.070
68033SOL    HW2 5932   5.647   5.682  12.039
68034SOL     OW 5933   8.102   3.039   7.579
68034SOL    HW1 5934   8.107   3.128   7.543
68034SOL    HW2 5935   8.111   3.050   7.673
68035SOL     OW 5936   1.680  10.874  14.635
68035SOL    HW1 5937   1.744  10.944  14.622
68035SOL    HW2 5938   1.718  10.820  14.705
68036SOL     OW 5939   4.837   9.622  10.433
68036SOL    HW1 5940   4.831   9.669  10.349
68036SOL    HW2 5941   4.841   9.691  10.499
68037SOL     OW 5942   5.138   6.051   1.248
68037SOL    HW1 5943   5.177   6.054   1.335
68037SOL    HW2 5944   5.069   6.118   1.250
68038SOL     OW 5945   7.184  11.273  10.234
68038SOL    HW1 5946   7.268  11.239  10.203
68038SOL    HW2 5947   7.126  11.197  10.233
68039SOL     OW 5948  12.849   1.360  11.186
68039SOL    HW1 5949  12.758   1.386  11.199
68039SOL    HW2 5950  12.900   1.423  11.237
68040SOL     OW 5951   0.219  10.048  14.377
68040SOL    HW1 5952   0.266  10.058  14.460
68040SOL    HW2 5953   0.199   9.955  14.372
68041SOL     OW 5954   6.124  14.242  12.620
68041SOL    HW1 5955   6.095  14.314  12.565
68041SOL    HW2 5956   6.135  14.281  12.707
68042SOL     OW 5957  10.016  11.589   3.706
68042SOL    HW1 5958  10.016  11.496   3.730
68042SOL    HW2 5959  10.011  11.588   3.610
68043SOL     OW 5960   1.011   5.310  14.215
68043SOL    HW1 5961   1.019   5.219  14.185
68043SOL    HW2 5962   1.011   5.362  14.135
68044SOL     OW 5963   1.866  13.551  10.532
68044SOL    HW1 5964   1.796  13.494  10.499
68044SOL    HW2 5965   1.940  13.534  10.474
68045SOL     OW 5966   6.958   8.907   9.262
68045SOL    HW1 5967   6.952   8.819   9.301
68045SOL    HW2 5968   7.028   8.950   9.311
68046SOL     OW 5969   8.976   5.793   7.846
68046SOL    HW1 5970   9.048   5.856   7.843
68046SOL    HW2 5971   8.970   5.759   7.757
68047SOL     OW 5972  10.519   9.898   9.251
68047SOL    HW1 5973  10.537   9.805   9.236
68047SOL    HW2 5974  10.443   9.916   9.196
68048SOL     OW 5975   8.251   9.232   5.943
68048SOL    HW1 5976   8.230   9.325   5.936
68048SOL    HW2 5977   8.293   9.211   5.860
68049SOL     OW 5978  11.625   6.937   2.358
68049SOL    HW1 5979  11.616   7.025   2.321
68049SOL    HW2 5980  11.637   6.880   2.282
68050SOL     OW 5981  11.431   2.647  14.028
68050SOL    HW1 5982  11.457   2.555  14.018
68050SOL    HW2 5983  11.488   2.680  14.097
68051SOL     OW 5984   0.837   1.101  12.863
68051SOL    HW1 5985   0.748   1.075  12.839
68051SOL    HW2 5986   0.839   1.096  12.959
68052SOL     OW 5987   7.976   5.984   2.959
68052SOL    HW1 5988   8.015   5.899   2.977
68052SOL    HW2 5989   8.038   6.047   2.996
68053SOL     OW 5990   1.744  13.612  13.439
68053SOL    HW1 5991   1.684  13.654  13.377
68053SOL    HW2 5992   1.816  13.580  13.384
68054SOL     OW 5993  12.024  12.541   5.387
68054SOL    HW1 5994  11.980  12.576   5.464
68054SOL    HW2 5995  12.103  12.500   5.420
68055SOL     OW 5996   1.918  12.089   2.001
68055SOL    HW1 5997   1.844  12.035   1.974
68055SOL    HW2 5998   1.978  12.087   1.927
68056SOL     OW 5999  10.991   5.116  13.377
68056SOL    HW1 6000  11.051   5.157  13.315
68056SOL    HW2 6001  10.958   5.039  13.332
68057SOL     OW 6002   2.604   6.790   3.004
68057SOL    HW1 6003   2.575   6.713   3.052
68057SOL    HW2 6004   2.592   6.767   2.912
68058SOL     OW 6005   5.472   6.104   7.942
68058SOL    HW1 6006   5.397   6.158   7.966
68058SOL    HW2 6007   5.435   6.015   7.934
68059SOL     OW 6008   1.553  11.556  12.384
68059SOL    HW1 6009   1.548  11.473  12.432
68059SOL    HW2 6010   1.640  11.590  12.404
68060SOL     OW 6011   2.428  13.186  12.975
68060SOL    HW1 6012   2.502  13.201  12.916
68060SOL    HW2 6013   2.390  13.104  12.945
68061SOL     OW 6014   7.819  11.147  10.587
68061SOL    HW1 6015   7.796  11.167  10.678
68061SOL    HW2 6016   7.908  11.113  10.592
68062SOL     OW 6017   1.022   2.399   9.141
68062SOL    HW1 6018   1.082   2.473   9.129
68062SOL    HW2 6019   1.077   2.330   9.178
68063SOL     OW 6020   0.927   2.858   6.728
68063SOL    HW1 6021   0.834   2.839   6.737
68063SOL    HW2 6022   0.963   2.781   6.684
68064SOL     OW 6023   8.891   8.933   4.162
68064SOL    HW1 6024   8.876   8.907   4.253
68064SOL    HW2 6025   8.904   8.850   4.115
68065SOL     OW 6026   6.534  10.283   8.905
68065SOL    HW1 6027   6.540  10.312   8.996
68065SOL    HW2 6028   6.444  10.303   8.879
68066SOL     OW 6029   6.888   5.928   0.459
68066SOL    HW1 6030   6.884   5.893   0.548
68066SOL    HW2 6031   6.903   5.851   0.404
68067SOL     OW 6032   8.860   8.283   8.874
68067SOL    HW1 6033   8.942   8.257   8.916
68067SOL    HW2 6034   8.843   8.371   8.906
68068SOL     OW 6035  11.284   4.937  10.007
68068SOL    HW1 6036  11.269   4.844  10.023
68068SOL    HW2 6037  11.379   4.946  10.004
68069SOL     OW 6038   1.150   3.212  13.712
68069SOL    HW1 6039   1.139   3.304  13.688
68069SOL    HW2 6040   1.062   3.175  13.706
68070SOL     OW 6041  14.182  11.176  14.581
68070SOL    HW1 6042  14.233  11.190  14.501
68070SOL    HW2 6043  14.229  11.107  14.628
68071SOL     OW 6044   2.440   0.004   4.711
68071SOL    HW1 6045   2.493   0.083   4.699
68071SOL    HW2 6046   2.486  14.818   4.663
68072SOL     OW 6047  10.195  11.079   1.826
68072SOL    HW1 6048  10.240  11.127   1.896
68072SOL    HW2 6049  10.116  11.131   1.810
68073SOL     OW 6050  11.932   0.676  12.500
68073SOL    HW1 6051  11.875   0.684  12.424
68073SOL    HW2 6052  11.967   0.587  12.495
68074SOL     OW 6053   5.469   5.432  13.261
68074SOL    HW1 6054   5.499   5.347  13.293
68074SOL    HW2 6055   5.422   5.470  13.334
68075SOL     OW 6056   2.399  13.821   7.084
68075SOL    HW1 6057   2.424  13.903   7.126
68075SOL    HW2 6058   2.479  13.791   7.041
68076SOL     OW 6059  11.135   8.499  13.641
68076SOL    HW1 6060  11.229   8.510  13.622
68076SOL    HW2 6061  11.100   8.588  13.638
68077SOL     OW 6062  12.417   0.487   0.043
68077SOL    HW1 6063  12.387   0.567   0.087
68077SOL    HW2 6064  12.501   0.511   0.004
68078SOL     OW 6065  14.713  12.619  14.476
68078SOL    HW1 6066  14.762  12.538  14.488
68078SOL    HW2 6067  14.758  12.683  14.531
68079SOL     OW 6068   5.634  10.091   3.062
68079SOL    HW1 6069   5.587  10.159   3.013
68079SOL    HW2 6070   5.573  10.067   3.132
68080SOL     OW 6071  13.871   6.252   9.894
68080SOL    HW1 6072  13.804   6.299   9.843
68080SOL    HW2 6073  13.820   6.197   9.953
68081SOL     OW 6074   5.537   7.704   4.680
68081SOL    HW1 6075   5.568   7.666   4.762
68081SOL    HW2 6076   5.444   7.721   4.696
68082SOL     OW 6077   1.203   2.082   6.184
68082SOL    HW1 6078   1.236   2.080   6.094
68082SOL    HW2 6079   1.280   2.102   6.237
68083SOL     OW 6080   7.381  13.104   6.707
68083SOL    HW1 6081   7.476  13.099   6.716
68083SOL    HW2 6082   7.347  13.041   6.770
68084SOL     OW 6083  11.806  13.881   2.526
68084SOL    HW1 6084  11.840  13.802   2.486
68084SOL    HW2 6085  11.849  13.886   2.611
68085SOL     OW 6086  14.257   5.545  11.677
68085SOL    HW1 6087  14.314   5.561  11.752
68085SOL    HW2 6088  14.284   5.611  11.613
68086SOL     OW 6089   1.801   1.026   0.743
68086SOL    HW1 6090   1.815   1.031   0.648
68086SOL    HW2 6091   1.763   1.111   0.766
68087SOL     OW 6092  12.478   8.589   2.202
68087SOL    HW1 6093  12.507   8.666   2.153
68087SOL    HW2 6094  12.398   8.618   2.247
68088SOL     OW 6095   1.654  12.292   0.365
68088SOL    HW1 6096   1.619  12.366   0.316
68088SOL    HW2 6097   1.731  12.326   0.410
68089SOL     OW 6098  14.516   8.009   9.413
68089SOL    HW1 6099  14.451   7.947   9.446
68089SOL    HW2 6100  14.561   7.961   9.344
68090SOL     OW 6101   0.797   5.229   5.919
68090SOL    HW1 6102   0.878   5.203   5.962
68090SOL    HW2 6103   0.728   5.190   5.972
68091SOL     OW 6104   8.757   2.028  12.705
68091SOL    HW1 6105   8.763   1.963  12.635
68091SOL    HW2 6106   8.728   1.979  12.781
68092SOL     OW 6107   4.339  14.805  12.402
68092SOL    HW1 6108   4.362   0.014  12.379
68092SOL    HW2 6109   4.366  14.754  12.326
68093SOL     OW 6110  10.753   2.997  11.879
68093SOL    HW1 6111  10.726   3.072  11.826
68093SOL    HW2 6112  10.771   3.033  11.966
68094SOL     OW 6113   3.201   8.869   8.209
68094SOL    HW1 6114   3.195   8.907   8.122
68094SOL    HW2 6115   3.122   8.816   8.219
68095SOL     OW 6116   0.795   1.468   5.978
68095SOL    HW1 6117   0.748   1.472   6.062
68095SOL    HW2 6118   0.881   1.505   5.997
68096SOL     OW 6119   1.831  13.944   0.715
68096SOL    HW1 6120   1.859  14.009   0.650
68096SOL    HW2 6121   1.866  13.977   0.798
68097SOL     OW 6122  11.644   3.618   3.354
68097SOL    HW1 6123  11.691   3.541   3.385
68097SOL    HW2 6124  11.591   3.587   3.281
68098SOL     OW 6125   0.272  14.214   9.799
68098SOL    HW1 6126   0.280  14.120   9.785
68098SOL    HW2 6127   0.254  14.250   9.712
68099SOL     OW 6128  10.970   1.822   5.464
68099SOL    HW1 6129  10.929   1.760   5.525
68099SOL    HW2 6130  11.049   1.852   5.510
68100SOL     OW 6131   4.646  12.394   9.767
68100SOL    HW1 6132   4.598  12.376   9.687
68100SOL    HW2 6133   4.680  12.309   9.794
68101SOL     OW 6134   9.146   4.334  12.717
68101SOL    HW1 6135   9.230   4.378  12.732
68101SOL    HW2 6136   9.134   4.278  12.794
68102SOL     OW 6137   7.639   2.486   2.799
68102SOL    HW1 6138   7.628   2.577   2.770
68102SOL    HW2 6139   7.696   2.447   2.733
68103SOL     OW 6140   8.812  10.236   0.307
68103SOL    HW1 6141   8.865  10.284   0.371
68103SOL    HW2 6142   8.789  10.154   0.352
68104SOL     OW 6143   9.242   1.916   9.565
68104SOL    HW1 6144   9.211   1.998   9.526
68104SOL    HW2 6145   9.200   1.914   9.651
68105SOL     OW 6146  10.997  14.000   3.448
68105SOL    HW1 6147  10.941  13.938   3.402
68105SOL    HW2 6148  10.944  14.030   3.522
68106SOL     OW 6149   0.037  12.764   9.229
68106SOL    HW1 6150   0.085  12.681   9.229
68106SOL    HW2 6151  14.829  12.739   9.250
68107SOL     OW 6152   2.480   9.120   6.689
68107SOL    HW1 6153   2.429   9.077   6.758
68107SOL    HW2 6154   2.439   9.091   6.607
68108SOL     OW 6155   7.086  14.846  14.598
68108SOL    HW1 6156   7.042  14.802  14.526
68108SOL    HW2 6157   7.137  14.778  14.641
68109SOL     OW 6158  10.044   7.367   6.559
68109SOL    HW1 6159  10.033   7.424   6.483
68109SOL    HW2 6160   9.960   7.321   6.567
68110SOL     OW 6161   4.004   0.307   5.041
68110SOL    HW1 6162   4.091   0.347   5.035
68110SOL    HW2 6163   4.008   0.254   5.120
68111SOL     OW 6164   3.060  14.670   8.114
68111SOL    HW1 6165   3.147  14.642   8.144
68111SOL    HW2 6166   3.040  14.613   8.040
68112SOL     OW 6167   5.199   1.620  12.319
68112SOL    HW1 6168   5.147   1.699  12.307
68112SOL    HW2 6169   5.175   1.564  12.245
68113SOL     OW 6170   6.504  14.349   1.037
68113SOL    HW1 6171   6.552  14.402   0.974
68113SOL    HW2 6172   6.424  14.323   0.991
68114SOL     OW 6173   8.861   8.724   7.107
68114SOL    HW1 6174   8.803   8.799   7.122
68114SOL    HW2 6175   8.932   8.737   7.169
68115SOL     OW 6176   8.214   6.387  12.285
68115SOL    HW1 6177   8.255   6.352  12.206
68115SOL    HW2 6178   8.286   6.427  12.333
68116SOL     OW 6179  11.302   1.568   6.595
68116SOL    HW1 6180  11.364   1.609   6.656
68116SOL    HW2 6181  11.353   1.556   6.515
68117SOL     OW 6182   3.532  12.193   9.862
68117SOL    HW1 6183   3.595  12.258   9.831
68117SOL    HW2 6184   3.464  12.192   9.795
68118SOL     OW 6185   6.905  10.900   9.740
68118SOL    HW1 6186   6.990  10.928   9.706
68118SOL    HW2 6187   6.841  10.954   9.692
68119SOL     OW 6188  12.449   9.963  13.006
68119SOL    HW1 6189  12.518   9.904  12.977
68119SOL    HW2 6190  12.398   9.981  12.926
68120SOL     OW 6191   7.638   2.577   9.823
68120SOL    HW1 6192   7.671   2.586   9.912
68120SOL    HW2 6193   7.620   2.667   9.795
68121SOL     OW 6194   4.477   1.515   5.666
68121SOL    HW1 6195   4.509   1.437   5.711
68121SOL    HW2 6196   4.406   1.483   5.610
68122SOL     OW 6197  14.595   8.600   8.791
68122SOL    HW1 6198  14.601   8.529   8.728
68122SOL    HW2 6199  14.519   8.578   8.845
68123SOL     OW 6200   0.113   3.342   5.910
68123SOL    HW1 6201   0.077   3.379   5.829
68123SOL    HW2 6202   0.101   3.247   5.899
68124SOL     OW 6203  13.368  14.307  11.837
68124SOL    HW1 6204  13.413  14.265  11.911
68124SOL    HW2 6205  13.314  14.238  11.799
68125SOL     OW 6206   4.699   7.523   8.699
68125SOL    HW1 6207   4.770   7.578   8.665
68125SOL    HW2 6208   4.640   7.583   8.743
68126SOL     OW 6209  12.022   9.467  11.650
68126SOL    HW1 6210  12.083   9.395  11.634
68126SOL    HW2 6211  11.944   9.424  11.687
68127SOL     OW 6212   4.222   6.240   7.495
68127SOL    HW1 6213   4.205   6.254   7.402
68127SOL    HW2 6214   4.284   6.308   7.520
68128SOL     OW 6215   6.752  14.347  10.634
68128SOL    HW1 6216   6.724  14.287  10.704
68128SOL    HW2 6217   6.835  14.311  10.604
68129SOL     OW 6218  10.719   9.746   6.563
68129SOL    HW1 6219  10.721   9.650   6.564
68129SOL    HW2 6220  10.626   9.768   6.565
68130SOL     OW 6221   8.865   7.583   9.406
68130SOL    HW1 6222   8.940   7.523   9.403
68130SOL    HW2 6223   8.811   7.557   9.332
68131SOL     OW 6224  11.588  10.635   5.643
68131SOL    HW1 6225  11.539  10.620   5.724
68131SOL    HW2 6226  11.573  10.556   5.591
68132SOL     OW 6227   5.076   3.926  13.309
68132SOL    HW1 6228   5.133   3.905  13.234
68132SOL    HW2 6229   5.117   3.882  13.383
68133SOL     OW 6230   6.777   6.563   3.927
68133SOL    HW1 6231   6.699   6.618   3.926
68133SOL    HW2 6232   6.828   6.596   4.002
68134SOL     OW 6233   4.578   0.283  13.462
68134SOL    HW1 6234   4.543   0.195  13.453
68134SOL    HW2 6235   4.668   0.277  13.429
68135SOL     OW 6236   3.853   8.197   4.317
68135SOL    HW1 6237   3.918   8.160   4.258
68135SOL    HW2 6238   3.905   8.248   4.380
68136SOL     OW 6239   0.833   7.913  12.820
68136SOL    HW1 6240   0.928   7.905  12.829
68136SOL    HW2 6241   0.800   7.904  12.909
68137SOL     OW 6242   7.371   1.680   6.129
68137SOL    HW1 6243   7.305   1.730   6.080
68137SOL    HW2 6244   7.428   1.748   6.167
68138SOL     OW 6245   8.982   6.750   4.319
68138SOL    HW1 6246   8.972   6.732   4.413
68138SOL    HW2 6247   9.013   6.840   4.316
68139SOL     OW 6248  12.948   8.162   8.888
68139SOL    HW1 6249  12.991   8.111   8.956
68139SOL    HW2 6250  13.019   8.214   8.849
68140SOL     OW 6251   4.866  12.636   3.965
68140SOL    HW1 6252   4.956  12.656   3.992
68140SOL    HW2 6253   4.861  12.540   3.968
68141SOL     OW 6254  10.317  14.777   9.024
68141SOL    HW1 6255  10.344  14.685   9.017
68141SOL    HW2 6256  10.223  14.773   9.044
68142SOL     OW 6257   8.648   6.000   7.439
68142SOL    HW1 6258   8.738   6.018   7.467
68142SOL    HW2 6259   8.596   6.069   7.479
68143SOL     OW 6260   6.338   8.463   6.968
68143SOL    HW1 6261   6.343   8.557   6.951
68143SOL    HW2 6262   6.426   8.431   6.950
68144SOL     OW 6263   1.411   0.570   5.808
68144SOL    HW1 6264   1.321   0.548   5.782
68144SOL    HW2 6265   1.416   0.665   5.796
68145SOL     OW 6266  13.007  13.300  13.927
68145SOL    HW1 6267  13.096  13.323  13.954
68145SOL    HW2 6268  13.008  13.308  13.831
68146SOL     OW 6269   2.309   4.133   6.820
68146SOL    HW1 6270   2.271   4.052   6.853
68146SOL    HW2 6271   2.326   4.116   6.727
68147SOL     OW 6272   0.056   2.726  14.668
68147SOL    HW1 6273  14.851   2.734  14.707
68147SOL    HW2 6274   0.116   2.723  14.743
68148SOL     OW 6275   6.513   4.360   8.720
68148SOL    HW1 6276   6.569   4.293   8.681
68148SOL    HW2 6277   6.482   4.412   8.647
68149SOL     OW 6278   9.334   3.874  11.403
68149SOL    HW1 6279   9.328   3.900  11.495
68149SOL    HW2 6280   9.333   3.778  11.405
68150SOL     OW 6281   0.940   6.061  14.353
68150SOL    HW1 6282   0.880   6.006  14.301
68150SOL    HW2 6283   0.944   6.018  14.438
68151SOL     OW 6284   7.161   0.448   6.361
68151SOL    HW1 6285   7.101   0.473   6.291
68151SOL    HW2 6286   7.107   0.394   6.420
68152SOL     OW 6287   4.058   2.697  10.556
68152SOL    HW1 6288   4.080   2.750  10.480
68152SOL    HW2 6289   4.015   2.620  10.520
68153SOL     OW 6290   3.026   4.969   9.978
68153SOL    HW1 6291   3.097   4.909  10.002
68153SOL    HW2 6292   3.071   5.048   9.947
68154SOL     OW 6293  12.710   3.360   5.226
68154SOL    HW1 6294  12.714   3.445   5.183
68154SOL    HW2 6295  12.628   3.322   5.197
68155SOL     OW 6296   2.337   2.852   2.106
68155SOL    HW1 6297   2.278   2.916   2.147
68155SOL    HW2 6298   2.308   2.847   2.015
68156SOL     OW 6299  12.347   5.880   5.865
68156SOL    HW1 6300  12.432   5.868   5.824
68156SOL    HW2 6301  12.336   5.975   5.872
68157SOL     OW 6302   6.969   7.127   6.578
68157SOL    HW1 6303   6.938   7.195   6.518
68157SOL    HW2 6304   6.973   7.048   6.525
68158SOL     OW 6305   3.514   6.335   0.339
68158SOL    HW1 6306   3.570   6.291   0.403
68158SOL    HW2 6307   3.512   6.426   0.367
68159SOL     OW 6308  12.093   3.762   3.014
68159SOL    HW1 6309  12.005   3.763   3.053
68159SOL    HW2 6310  12.095   3.680   2.963
68160SOL     OW 6311  13.197   4.664   4.808
68160SOL    HW1 6312  13.167   4.590   4.862
68160SOL    HW2 6313  13.247   4.623   4.738
68161SOL     OW 6314   6.328   9.304  13.670
68161SOL    HW1 6315   6.290   9.301  13.757
68161SOL    HW2 6316   6.266   9.257  13.614
68162SOL     OW 6317  12.161   0.736  13.389
68162SOL    HW1 6318  12.089   0.799  13.391
68162SOL    HW2 6319  12.220   0.764  13.459
68163SOL     OW 6320   0.417   1.526   5.564
68163SOL    HW1 6321   0.355   1.460   5.595
68163SOL    HW2 6322   0.479   1.538   5.636
68164SOL     OW 6323   0.311  12.237  13.570
68164SOL    HW1 6324   0.348  12.199  13.490
68164SOL    HW2 6325   0.384  12.280  13.613
68165SOL     OW 6326   7.140   3.319  14.580
68165SOL    HW1 6327   7.173   3.340  14.667
68165SOL    HW2 6328   7.165   3.395  14.527
68166SOL     OW 6329  11.065  12.796   9.642
68166SOL    HW1 6330  11.054  12.753   9.727
68166SOL    HW2 6331  10.977  12.828   9.621
68167SOL     OW 6332   7.513  14.416   1.046
68167SOL    HW1 6333   7.593  14.383   1.005
68167SOL    HW2 6334   7.460  14.338   1.062
68168SOL     OW 6335   4.178   0.071   9.822
68168SOL    HW1 6336   4.215   0.158   9.806
68168SOL    HW2 6337   4.242   0.028   9.878
68169SOL     OW 6338   8.701   6.135   3.154
68169SOL    HW1 6339   8.707   6.224   3.117
68169SOL    HW2 6340   8.792   6.112   3.174
68170SOL     OW 6341  11.664  13.614   2.997
68170SOL    HW1 6342  11.579  13.628   3.037
68170SOL    HW2 6343  11.723  13.596   3.070
68171SOL     OW 6344   1.813  11.354   8.403
68171SOL    HW1 6345   1.892  11.390   8.362
68171SOL    HW2 6346   1.743  11.414   8.377
68172SOL     OW 6347   7.912   0.228   7.911
68172SOL    HW1 6348   7.891   0.282   7.988
68172SOL    HW2 6349   7.919   0.139   7.946
68173SOL     OW 6350  12.691   7.826  14.696
68173SOL    HW1 6351  12.648   7.811  14.611
68173SOL    HW2 6352  12.655   7.910  14.726
68174SOL     OW 6353   1.660   4.955  10.757
68174SOL    HW1 6354   1.677   4.861  10.752
68174SOL    HW2 6355   1.571   4.962  10.793
68175SOL     OW 6356   1.009   3.382   4.494
68175SOL    HW1 6357   0.985   3.317   4.428
68175SOL    HW2 6358   1.052   3.452   4.444
68176SOL     OW 6359  14.639   6.678  13.223
68176SOL    HW1 6360  14.722   6.695  13.178
68176SOL    HW2 6361  14.664   6.644  13.309
68177SOL     OW 6362  14.029   9.870   9.124
68177SOL    HW1 6363  14.022   9.965   9.135
68177SOL    HW2 6364  13.947   9.836   9.159
68178SOL     OW 6365   6.832   6.117   2.300
68178SOL    HW1 6366   6.851   6.055   2.370
68178SOL    HW2 6367   6.737   6.125   2.300
68179SOL     OW 6368   4.161   8.945   7.577
68179SOL    HW1 6369   4.076   8.967   7.538
68179SOL    HW2 6370   4.191   9.027   7.616
68180SOL     OW 6371  10.602   6.696   3.791
68180SOL    HW1 6372  10.535   6.733   3.847
68180SOL    HW2 6373  10.637   6.622   3.841
68181SOL     OW 6374   4.267  11.792   9.290
68181SOL    HW1 6375   4.311  11.755   9.213
68181SOL    HW2 6376   4.288  11.730   9.360
68182SOL     OW 6377  11.604   3.070   5.523
68182SOL    HW1 6378  11.624   3.062   5.616
68182SOL    HW2 6379  11.557   2.989   5.501
68183SOL     OW 6380   0.218   0.921   6.809
68183SOL    HW1 6381   0.209   0.919   6.904
68183SOL    HW2 6382   0.292   0.979   6.793
68184SOL     OW 6383  10.869  13.767   7.874
68184SOL    HW1 6384  10.938  13.721   7.826
68184SOL    HW2 6385  10.836  13.702   7.936
68185SOL     OW 6386  13.179   1.749   9.113
68185SOL    HW1 6387  13.180   1.835   9.071
68185SOL    HW2 6388  13.228   1.692   9.053
68186SOL     OW 6389   7.554  14.136  12.449
68186SOL    HW1 6390   7.474  14.161  12.496
68186SOL    HW2 6391   7.625  14.165  12.505
68187SOL     OW 6392  13.557   3.372   8.157
68187SOL    HW1 6393  13.476   3.323   8.171
68187SOL    HW2 6394  13.586   3.348   8.069
68188SOL     OW 6395  13.587   0.945   7.126
68188SOL    HW1 6396  13.583   0.850   7.134
68188SOL    HW2 6397  13.671   0.962   7.082
68189SOL     OW 6398   6.917   6.701   3.628
68189SOL    HW1 6399   6.970   6.629   3.664
68189SOL    HW2 6400   6.979   6.751   3.575
68190SOL     OW 6401  14.369  14.446  10.536
68190SOL    HW1 6402  14.374  14.527  10.588
68190SOL    HW2 6403  14.367  14.476  10.445
68191SOL     OW 6404  10.506   2.522   3.325
68191SOL    HW1 6405  10.447   2.449   3.341
68191SOL    HW2 6406  10.537   2.510   3.235
68192SOL     OW 6407   1.330  13.409   2.388
68192SOL    HW1 6408   1.235  13.421   2.386
68192SOL    HW2 6409   1.362  13.455   2.310
68193SOL     OW 6410  14.104   8.743  11.947
68193SOL    HW1 6411  14.167   8.790  11.892
68193SOL    HW2 6412  14.036   8.807  11.966
68194SOL     OW 6413   4.890   2.168  12.508
68194SOL    HW1 6414   4.983   2.173  12.489
68194SOL    HW2 6415   4.877   2.229  12.581
68195SOL     OW 6416   3.170   7.241  10.910
68195SOL    HW1 6417   3.253   7.286  10.897
68195SOL    HW2 6418   3.185   7.187  10.988
68196SOL     OW 6419   9.585  10.869  10.717
68196SOL    HW1 6420   9.542  10.909  10.793
68196SOL    HW2 6421   9.619  10.942  10.667
68197SOL     OW 6422   4.554   6.293   8.475
68197SOL    HW1 6423   4.607   6.309   8.553
68197SOL    HW2 6424   4.604   6.333   8.404
68198SOL     OW 6425   8.550   9.420   1.579
68198SOL    HW1 6426   8.591   9.503   1.552
68198SOL    HW2 6427   8.614   9.380   1.637
68199SOL     OW 6428   3.471   7.775  14.335
68199SOL    HW1 6429   3.449   7.706  14.273
68199SOL    HW2 6430   3.387   7.813  14.361
68200SOL     OW 6431   2.724   0.325   3.498
68200SOL    HW1 6432   2.665   0.342   3.424
68200SOL    HW2 6433   2.762   0.411   3.519
68201SOL     OW 6434  12.202   9.765   3.423
68201SOL    HW1 6435  12.266   9.769   3.351
68201SOL    HW2 6436  12.230   9.692   3.477
68202SOL     OW 6437   0.820   4.121   7.782
68202SOL    HW1 6438   0.810   4.057   7.711
68202SOL    HW2 6439   0.752   4.097   7.845
68203SOL     OW 6440   5.248   0.471  14.165
68203SOL    HW1 6441   5.262   0.455  14.258
68203SOL    HW2 6442   5.154   0.458  14.152
68204SOL     OW 6443  13.633   8.653  14.037
68204SOL    HW1 6444  13.541   8.625  14.029
68204SOL    HW2 6445  13.633   8.744  14.009
68205SOL     OW 6446  14.473   4.792   2.732
68205SOL    HW1 6447  14.384   4.779   2.698
68205SOL    HW2 6448  14.504   4.872   2.690
68206SOL     OW 6449   2.638   0.096  14.260
68206SOL    HW1 6450   2.598   0.059  14.339
68206SOL    HW2 6451   2.616   0.189  14.264
68207SOL     OW 6452   9.804   0.217   5.872
68207SOL    HW1 6453   9.740   0.205   5.942
68207SOL    HW2 6454   9.889   0.203   5.914
68208SOL     OW 6455   4.904  11.193   0.689
68208SOL    HW1 6456   4.955  11.274   0.689
68208SOL    HW2 6457   4.914  11.159   0.778
68209SOL     OW 6458   0.232   9.206   4.814
68209SOL    HW1 6459   0.297   9.147   4.852
68209SOL    HW2 6460   0.219   9.274   4.879
68210SOL     OW 6461   4.404   2.947   4.453
68210SOL    HW1 6462   4.322   2.943   4.405
68210SOL    HW2 6463   4.378   2.944   4.545
68211SOL     OW 6464   7.211  11.210   5.764
68211SOL    HW1 6465   7.209  11.162   5.846
68211SOL    HW2 6466   7.179  11.147   5.699
68212SOL     OW 6467  11.957   2.565  13.342
68212SOL    HW1 6468  11.953   2.598  13.432
68212SOL    HW2 6469  11.999   2.480  13.349
68213SOL     OW 6470   0.354  12.391   2.474
68213SOL    HW1 6471   0.368  12.400   2.379
68213SOL    HW2 6472   0.270  12.346   2.482
68214SOL     OW 6473  11.447   6.942  11.710
68214SOL    HW1 6474  11.479   6.962  11.798
68214SOL    HW2 6475  11.480   6.854  11.692
68215SOL     OW 6476   0.122   7.197  12.894
68215SOL    HW1 6477   0.130   7.221  12.802
68215SOL    HW2 6478   0.145   7.277  12.942
68216SOL     OW 6479  11.170   1.522   1.392
68216SOL    HW1 6480  11.153   1.582   1.320
68216SOL    HW2 6481  11.196   1.440   1.350
68217SOL     OW 6482   4.911   4.134  13.382
68217SOL    HW1 6483   4.976   4.086  13.330
68217SOL    HW2 6484   4.869   4.192  13.319
68218SOL     OW 6485   2.885  11.715   3.290
68218SOL    HW1 6486   2.959  11.692   3.234
68218SOL    HW2 6487   2.925  11.748   3.370
68219SOL     OW 6488   3.252   8.306   1.059
68219SOL    HW1 6489   3.208   8.391   1.062
68219SOL    HW2 6490   3.181   8.243   1.046
68220SOL     OW 6491   8.227   9.240  13.612
68220SOL    HW1 6492   8.229   9.162  13.668
68220SOL    HW2 6493   8.297   9.225  13.548
68221SOL     OW 6494  13.146   2.262   4.108
68221SOL    HW1 6495  13.230   2.263   4.154
68221SOL    HW2 6496  13.169   2.240   4.017
68222SOL     OW 6497   4.652   4.093   5.360
68222SOL    HW1 6498   4.565   4.077   5.397
68222SOL    HW2 6499   4.636   4.116   5.269
68223SOL     OW 6500   9.465   7.885   6.560
68223SOL    HW1 6501   9.554   7.853   6.570
68223SOL    HW2 6502   9.446   7.873   6.467
68224SOL     OW 6503  12.943   2.369   6.545
68224SOL    HW1 6504  13.018   2.325   6.505
68224SOL    HW2 6505  12.982   2.422   6.615
68225SOL     OW 6506   8.349   0.190  14.159
68225SOL    HW1 6507   8.376   0.177  14.250
68225SOL    HW2 6508   8.339   0.285  14.151
68226SOL     OW 6509  10.009   1.021   0.939
68226SOL    HW1 6510   9.980   1.017   0.848
68226SOL    HW2 6511   9.968   1.100   0.974
68227SOL     OW 6512   8.947   0.911  12.056
68227SOL    HW1 6513   8.986   0.864  12.130
68227SOL    HW2 6514   8.894   0.979  12.097
68228SOL     OW 6515   5.923  14.622   0.348
68228SOL    HW1 6516   5.848  14.655   0.397
68228SOL    HW2 6517   5.999  14.645   0.401
68229SOL     OW 6518  14.181   1.822  14.047
68229SOL    HW1 6519  14.158   1.809  13.955
68229SOL    HW2 6520  14.270   1.857  14.045
68230SOL     OW 6521  10.480   0.206  14.383
68230SOL    HW1 6522  10.571   0.235  14.378
68230SOL    HW2 6523  10.477   0.127  14.330
68231SOL     OW 6524  12.571   1.748  11.346
68231SOL    HW1 6525  12.652   1.784  11.309
68231SOL    HW2 6526  12.505   1.816  11.332
68232SOL     OW 6527   5.898   3.044  13.518
68232SOL    HW1 6528   5.839   3.119  13.507
68232SOL    HW2 6529   5.946   3.039  13.435
68233SOL     OW 6530  13.810   4.310   3.873
68233SOL    HW1 6531  13.873   4.275   3.937
68233SOL    HW2 6532  13.837   4.272   3.790
68234SOL     OW 6533   1.002   6.131   8.133
68234SOL    HW1 6534   1.016   6.146   8.226
68234SOL    HW2 6535   0.913   6.096   8.127
68235SOL     OW 6536  10.770  14.095   6.814
68235SOL    HW1 6537  10.838  14.060   6.871
68235SOL    HW2 6538  10.801  14.183   6.791
68236SOL     OW 6539  10.106  12.744   5.871
68236SOL    HW1 6540  10.072  12.707   5.953
68236SOL    HW2 6541  10.095  12.674   5.807
68237SOL     OW 6542  12.249   7.834  14.615
68237SOL    HW1 6543  12.331   7.815  14.569
68237SOL    HW2 6544  12.229   7.753  14.662
68238SOL     OW 6545  11.664   6.104  12.109
68238SOL    HW1 6546  11.627   6.016  12.111
68238SOL    HW2 6547  11.687   6.124  12.200
68239SOL     OW 6548   9.074   2.115   0.905
68239SOL    HW1 6549   9.065   2.172   0.829
68239SOL    HW2 6550   9.149   2.060   0.884
68240SOL     OW 6551   2.489   2.088   4.407
68240SOL    HW1 6552   2.395   2.072   4.399
68240SOL    HW2 6553   2.511   2.139   4.329
68241SOL     OW 6554   3.122  11.449   5.996
68241SOL    HW1 6555   3.080  11.478   5.915
68241SOL    HW2 6556   3.106  11.519   6.059
68242SOL     OW 6557   7.803   7.406  10.101
68242SOL    HW1 6558   7.856   7.356  10.039
68242SOL    HW2 6559   7.719   7.416  10.058
68243SOL     OW 6560   3.785   7.362  14.354
68243SOL    HW1 6561   3.844   7.376  14.280
68243SOL    HW2 6562   3.813   7.426  14.419
68244SOL     OW 6563   5.319   7.152   3.533
68244SOL    HW1 6564   5.254   7.152   3.603
68244SOL    HW2 6565   5.315   7.241   3.496
68245SOL     OW 6566   2.869  10.306   5.477
68245SOL    HW1 6567   2.817  10.257   5.413
68245SOL    HW2 6568   2.812  10.312   5.554
68246SOL     OW 6569   0.414   8.636   1.599
68246SOL    HW1 6570   0.475   8.588   1.543
68246SOL    HW2 6571   0.329   8.626   1.556
68247SOL     OW 6572   8.105   8.446   7.067
68247SOL    HW1 6573   8.046   8.512   7.031
68247SOL    HW2 6574   8.107   8.376   7.001
68248SOL     OW 6575  12.911  13.357   6.725
68248SOL    HW1 6576  12.864  13.406   6.792
68248SOL    HW2 6577  12.989  13.409   6.707
68249SOL     OW 6578   2.564   3.343  14.488
68249SOL    HW1 6579   2.568   3.439  14.493
68249SOL    HW2 6580   2.513   3.317  14.565
68250SOL     OW 6581   2.447   7.708   1.213
68250SOL    HW1 6582   2.459   7.716   1.307
68250SOL    HW2 6583   2.356   7.735   1.197
68251SOL     OW 6584  11.824  14.425  10.766
68251SOL    HW1 6585  11.845  14.385  10.682
68251SOL    HW2 6586  11.729  14.424  10.771
68252SOL     OW 6587   3.426  10.860   4.750
68252SOL    HW1 6588   3.455  10.786   4.697
68252SOL    HW2 6589   3.506  10.899   4.783
68253SOL     OW 6590   5.340   5.535  13.495
68253SOL    HW1 6591   5.299   5.478  13.560
68253SOL    HW2 6592   5.270   5.595  13.468
68254SOL     OW 6593   5.456   5.826   7.058
68254SOL    HW1 6594   5.404   5.885   7.113
68254SOL    HW2 6595   5.447   5.862   6.970
68255SOL     OW 6596  10.520   3.388   4.172
68255SOL    HW1 6597  10.564   3.303   4.182
68255SOL    HW2 6598  10.566   3.431   4.101
68256SOL     OW 6599   5.366   1.466   0.272
68256SOL    HW1 6600   5.401   1.377   0.274
68256SOL    HW2 6601   5.273   1.456   0.291
68257SOL     OW 6602   4.719   6.086   9.008
68257SOL    HW1 6603   4.661   6.107   8.936
68257SOL    HW2 6604   4.736   5.992   8.998
68258SOL     OW 6605   3.316  10.560  11.220
68258SOL    HW1 6606   3.366  10.484  11.190
68258SOL    HW2 6607   3.381  10.630  11.229
68259SOL     OW 6608  12.878  13.473  12.557
68259SOL    HW1 6609  12.863  13.382  12.580
68259SOL    HW2 6610  12.854  13.522  12.636
68260SOL     OW 6611  14.728  11.529   5.730
68260SOL    HW1 6612  14.676  11.593   5.682
68260SOL    HW2 6613  14.729  11.562   5.820
68261SOL     OW 6614   7.646   6.087   3.723
68261SOL    HW1 6615   7.600   6.032   3.786
68261SOL    HW2 6616   7.580   6.150   3.693
68262SOL     OW 6617  13.646   1.101  12.168
68262SOL    HW1 6618  13.704   1.025  12.171
68262SOL    HW2 6619  13.582   1.084  12.238
68263SOL     OW 6620   2.631   6.695   0.571
68263SOL    HW1 6621   2.564   6.653   0.624
68263SOL    HW2 6622   2.585   6.727   0.493
68264SOL     OW 6623   8.683  10.087  12.927
68264SOL    HW1 6624   8.596  10.051  12.914
68264SOL    HW2 6625   8.732  10.018  12.973
68265SOL     OW 6626   6.405   7.365   6.374
68265SOL    HW1 6627   6.462   7.384   6.300
68265SOL    HW2 6628   6.318   7.392   6.344
68266SOL     OW 6629   5.119  13.629   6.201
68266SOL    HW1 6630   5.206  13.597   6.225
68266SOL    HW2 6631   5.098  13.694   6.267
68267SOL     OW 6632   4.544   2.115  12.967
68267SOL    HW1 6633   4.463   2.142  13.010
68267SOL    HW2 6634   4.566   2.030  13.007
68268SOL     OW 6635   6.840   1.430  10.244
68268SOL    HW1 6636   6.781   1.487  10.195
68268SOL    HW2 6637   6.899   1.393  10.178
68269SOL     OW 6638   7.113   6.182  14.018
68269SOL    HW1 6639   7.032   6.132  14.015
68269SOL    HW2 6640   7.182   6.117  14.002
68270SOL     OW 6641   0.549  14.830   9.801
68270SOL    HW1 6642   0.604   0.024   9.819
68270SOL    HW2 6643   0.604  14.755   9.822
68271SOL     OW 6644  12.803  14.211   8.502
68271SOL    HW1 6645  12.766  14.123   8.497
68271SOL    HW2 6646  12.758  14.251   8.576
68272SOL     OW 6647   5.314   1.284  11.772
68272SOL    HW1 6648   5.232   1.295  11.822
68272SOL    HW2 6649   5.310   1.352  11.705
68273SOL     OW 6650   9.330   3.229  11.569
68273SOL    HW1 6651   9.296   3.206  11.656
68273SOL    HW2 6652   9.402   3.289  11.588
68274SOL     OW 6653   4.532  11.202   3.272
68274SOL    HW1 6654   4.491  11.138   3.214
68274SOL    HW2 6655   4.578  11.149   3.337
68275SOL     OW 6656   4.346   0.693   7.531
68275SOL    HW1 6657   4.280   0.625   7.517
68275SOL    HW2 6658   4.416   0.649   7.580
68276SOL     OW 6659   2.463   0.743  11.359
68276SOL    HW1 6660   2.445   0.659  11.400
68276SOL    HW2 6661   2.437   0.808  11.426
68277SOL     OW 6662   4.958   2.478   5.500
68277SOL    HW1 6663   4.997   2.473   5.413
68277SOL    HW2 6664   4.875   2.430   5.492
68278SOL     OW 6665   3.489  11.552   9.359
68278SOL    HW1 6666   3.507  11.526   9.450
68278SOL    HW2 6667   3.422  11.491   9.329
68279SOL     OW 6668   9.314   8.946   8.050
68279SOL    HW1 6669   9.393   8.931   7.999
68279SOL    HW2 6670   9.249   8.974   7.986
68280SOL     OW 6671  10.261  11.549   6.095
68280SOL    HW1 6672  10.202  11.611   6.138
68280SOL    HW2 6673  10.332  11.603   6.061
68281SOL     OW 6674   6.182   7.501   0.947
68281SOL    HW1 6675   6.239   7.457   1.009
68281SOL    HW2 6676   6.137   7.569   0.998
68282SOL     OW 6677  14.524  11.732   8.638
68282SOL    HW1 6678  14.574  11.680   8.701
68282SOL    HW2 6679  14.434  11.700   8.646
68283SOL     OW 6680  10.854   8.415   0.210
68283SOL    HW1 6681  10.950   8.422   0.213
68283SOL    HW2 6682  10.830   8.387   0.299
68284SOL     OW 6683   1.306   9.991   1.489
68284SOL    HW1 6684   1.346   9.994   1.402
68284SOL    HW2 6685   1.322   9.902   1.520
68285SOL     OW 6686   5.439   3.930   5.630
68285SOL    HW1 6687   5.488   3.906   5.551
68285SOL    HW2 6688   5.348   3.935   5.601
68286SOL     OW 6689   4.631   9.947  11.299
68286SOL    HW1 6690   4.655   9.856  11.284
68286SOL    HW2 6691   4.554   9.942  11.356
68287SOL     OW 6692   7.181  12.263   8.081
68287SOL    HW1 6693   7.179  12.168   8.092
68287SOL    HW2 6694   7.213  12.277   7.992
68288SOL     OW 6695  12.988  13.256   4.616
68288SOL    HW1 6696  12.981  13.291   4.704
68288SOL    HW2 6697  13.055  13.188   4.622
68289SOL     OW 6698   1.931   9.690  14.307
68289SOL    HW1 6699   1.938   9.615  14.248
68289SOL    HW2 6700   1.846   9.729  14.286
68290SOL     OW 6701   4.591   4.435   6.405
68290SOL    HW1 6702   4.608   4.500   6.472
68290SOL    HW2 6703   4.676   4.392   6.391
68291SOL     OW 6704  11.270   9.935   1.421
68291SOL    HW1 6705  11.240   9.977   1.501
68291SOL    HW2 6706  11.287  10.007   1.360
68292SOL     OW 6707   1.632  12.892   1.078
68292SOL    HW1 6708   1.632  12.964   1.141
68292SOL    HW2 6709   1.717  12.849   1.089
68293SOL     OW 6710   6.447  10.522   3.671
68293SOL    HW1 6711   6.353  10.535   3.658
68293SOL    HW2 6712   6.452  10.451   3.734
68294SOL     OW 6713   0.560   3.927   3.190
68294SOL    HW1 6714   0.602   3.991   3.247
68294SOL    HW2 6715   0.508   3.873   3.249
68295SOL     OW 6716  13.896  14.695   6.136
68295SOL    HW1 6717  13.954  14.624   6.164
68295SOL    HW2 6718  13.811  14.653   6.125
68296SOL     OW 6719   9.306   0.200   1.132
68296SOL    HW1 6720   9.380   0.236   1.181
68296SOL    HW2 6721   9.273   0.129   1.186
68297SOL     OW 6722   5.390  10.945   5.808
68297SOL    HW1 6723   5.327  10.928   5.738
68297SOL    HW2 6724   5.365  10.886   5.879
68298SOL     OW 6725   6.598   0.843   7.483
68298SOL    HW1 6726   6.618   0.751   7.503
68298SOL    HW2 6727   6.613   0.850   7.388
68299SOL     OW 6728  12.867   3.610  14.459
68299SOL    HW1 6729  12.820   3.549  14.517
68299SOL    HW2 6730  12.960   3.597  14.481
68300SOL     OW 6731   8.212   0.919  13.894
68300SOL    HW1 6732   8.225   1.000  13.943
68300SOL    HW2 6733   8.147   0.943  13.827
68301SOL     OW 6734  10.861   3.116   0.315
68301SOL    HW1 6735  10.886   3.209   0.319
68301SOL    HW2 6736  10.941   3.069   0.336
68302SOL     OW 6737   9.345   3.631   1.463
68302SOL    HW1 6738   9.286   3.559   1.439
68302SOL    HW2 6739   9.402   3.642   1.388
68303SOL     OW 6740  12.297  10.740   2.388
68303SOL    HW1 6741  12.207  10.709   2.390
68303SOL    HW2 6742  12.329  10.728   2.477
68304SOL     OW 6743   6.145  13.084   6.407
68304SOL    HW1 6744   6.149  13.036   6.324
68304SOL    HW2 6745   6.237  13.100   6.429
68305SOL     OW 6746  10.099   4.836   2.057
68305SOL    HW1 6747  10.187   4.873   2.060
68305SOL    HW2 6748  10.050   4.885   2.122
68306SOL     OW 6749   0.826  12.086   8.422
68306SOL    HW1 6750   0.799  12.178   8.427
68306SOL    HW2 6751   0.922  12.090   8.416
68307SOL     OW 6752   2.905   3.790   6.192
68307SOL    HW1 6753   2.913   3.728   6.119
68307SOL    HW2 6754   2.882   3.735   6.267
68308SOL     OW 6755  12.806  10.213  12.825
68308SOL    HW1 6756  12.803  10.306  12.849
68308SOL    HW2 6757  12.740  10.172  12.881
68309SOL     OW 6758   0.244   0.326   3.334
68309SOL    HW1 6759   0.226   0.357   3.423
68309SOL    HW2 6760   0.174   0.264   3.315
68310SOL     OW 6761   4.436   4.300   3.414
68310SOL    HW1 6762   4.482   4.383   3.424
68310SOL    HW2 6763   4.379   4.313   3.338
68311SOL     OW 6764   2.827   8.988   2.123
68311SOL    HW1 6765   2.755   9.025   2.174
68311SOL    HW2 6766   2.786   8.921   2.069
68312SOL     OW 6767   4.463  10.393   3.960
68312SOL    HW1 6768   4.442  10.391   4.053
68312SOL    HW2 6769   4.377  10.400   3.917
68313SOL     OW 6770  12.382   0.896   8.972
68313SOL    HW1 6771  12.313   0.936   8.919
68313SOL    HW2 6772  12.399   0.961   9.041
68314SOL     OW 6773   5.669   6.909  13.500
68314SOL    HW1 6774   5.684   6.839  13.564
68314SOL    HW2 6775   5.732   6.977  13.524
68315SOL     OW 6776   5.203   0.351   6.991
68315SOL    HW1 6777   5.255   0.421   7.030
68315SOL    HW2 6778   5.184   0.383   6.902
68316SOL     OW 6779  13.911   2.829  12.407
68316SOL    HW1 6780  13.829   2.872  12.432
68316SOL    HW2 6781  13.927   2.766  12.476
68317SOL     OW 6782   4.818  12.280   3.679
68317SOL    HW1 6783   4.783  12.301   3.593
68317SOL    HW2 6784   4.881  12.210   3.664
68318SOL     OW 6785   0.658   4.058  10.859
68318SOL    HW1 6786   0.606   4.053  10.779
68318SOL    HW2 6787   0.688   3.968  10.874
68319SOL     OW 6788  10.298  14.854   2.499
68319SOL    HW1 6789  10.209   0.007   2.506
68319SOL    HW2 6790  10.300  14.813   2.412
68320SOL     OW 6791   9.603  14.733   8.636
68320SOL    HW1 6792   9.619  14.643   8.664
68320SOL    HW2 6793   9.674  14.784   8.676
68321SOL     OW 6794   5.552  12.398   6.896
68321SOL    HW1 6795   5.491  12.328   6.916
68321SOL    HW2 6796   5.517  12.474   6.942
68322SOL     OW 6797  12.036   1.674   0.150
68322SOL    HW1 6798  11.998   1.687   0.063
68322SOL    HW2 6799  11.992   1.597   0.184
68323SOL     OW 6800   5.300  11.130   6.454
68323SOL    HW1 6801   5.231  11.110   6.392
68323SOL    HW2 6802   5.330  11.045   6.486
68324SOL     OW 6803   9.011   7.467   0.268
68324SOL    HW1 6804   9.061   7.534   0.223
68324SOL    HW2 6805   9.075   7.422   0.323
68325SOL     OW 6806   8.829   6.740  11.405
68325SOL    HW1 6807   8.774   6.818  11.413
68325SOL    HW2 6808   8.785   6.684  11.342
68326SOL     OW 6809   1.946   7.327   5.084
68326SOL    HW1 6810   2.006   7.386   5.038
68326SOL    HW2 6811   1.939   7.250   5.027
68327SOL     OW 6812   1.796   9.668   7.947
68327SOL    HW1 6813   1.868   9.730   7.941
68327SOL    HW2 6814   1.836   9.583   7.929
68328SOL     OW 6815   8.375  12.353   2.503
68328SOL    HW1 6816   8.388  12.284   2.568
68328SOL    HW2 6817   8.417  12.431   2.542
68329SOL     OW 6818   2.784   1.412  11.507
68329SOL    HW1 6819   2.789   1.481  11.440
68329SOL    HW2 6820   2.768   1.332  11.457
68330SOL     OW 6821   5.180   8.111   0.500
68330SOL    HW1 6822   5.175   8.135   0.407
68330SOL    HW2 6823   5.257   8.056   0.506
68331SOL     OW 6824  11.587  12.949  12.414
68331SOL    HW1 6825  11.608  12.870  12.464
68331SOL    HW2 6826  11.514  12.988  12.462
68332SOL     OW 6827   5.218   7.656   8.939
68332SOL    HW1 6828   5.146   7.719   8.937
68332SOL    HW2 6829   5.175   7.571   8.924
68333SOL     OW 6830  14.484  11.292   7.610
68333SOL    HW1 6831  14.465  11.304   7.517
68333SOL    HW2 6832  14.501  11.380   7.643
68334SOL     OW 6833  14.545  13.718   8.532
68334SOL    HW1 6834  14.553  13.809   8.505
68334SOL    HW2 6835  14.569  13.718   8.625
68335SOL     OW 6836   2.404   0.744   5.984
68335SOL    HW1 6837   2.479   0.694   6.017
68335SOL    HW2 6838   2.329   0.684   5.994
68336SOL     OW 6839   6.985   4.755   0.706
68336SOL    HW1 6840   6.933   4.772   0.785
68336SOL    HW2 6841   7.019   4.666   0.719
68337SOL     OW 6842  10.453  14.518   5.025
68337SOL    HW1 6843  10.414  14.432   5.036
68337SOL    HW2 6844  10.467  14.526   4.930
68338SOL     OW 6845  12.938   5.858   0.754
68338SOL    HW1 6846  12.955   5.781   0.700
68338SOL    HW2 6847  12.909   5.925   0.692
68339SOL     OW 6848  14.675  11.348   3.146
68339SOL    HW1 6849  14.689  11.442   3.153
68339SOL    HW2 6850  14.587  11.333   3.183
68340SOL     OW 6851   7.078  11.053   6.611
68340SOL    HW1 6852   7.090  11.064   6.705
68340SOL    HW2 6853   7.124  11.127   6.571
68341SOL     OW 6854  13.765   8.201   3.471
68341SOL    HW1 6855  13.772   8.170   3.562
68341SOL    HW2 6856  13.707   8.277   3.477
68342SOL     OW 6857   2.577   6.116  14.057
68342SOL    HW1 6858   2.617   6.073  14.132
68342SOL    HW2 6859   2.531   6.192  14.094
68343SOL     OW 6860   2.636   0.380  13.658
68343SOL    HW1 6861   2.724   0.396  13.623
68343SOL    HW2 6862   2.584   0.455  13.628
68344SOL     OW 6863  14.195   5.081  11.093
68344SOL    HW1 6864  14.184   5.176  11.098
68344SOL    HW2 6865  14.290   5.067  11.096
68345SOL     OW 6866  10.782  12.371   7.587
68345SOL    HW1 6867  10.732  12.345   7.510
68345SOL    HW2 6868  10.773  12.297   7.647
68346SOL     OW 6869   4.620   6.049  12.424
68346SOL    HW1 6870   4.585   6.018  12.508
68346SOL    HW2 6871   4.546   6.041  12.364
68347SOL     OW 6872   5.283   1.480   5.554
68347SOL    HW1 6873   5.314   1.566   5.526
68347SOL    HW2 6874   5.218   1.456   5.488
68348SOL     OW 6875   8.939   8.437   7.319
68348SOL    HW1 6876   8.997   8.512   7.316
68348SOL    HW2 6877   8.993   8.363   7.292
68349SOL     OW 6878  11.964   7.936   3.110
68349SOL    HW1 6879  11.916   7.876   3.053
68349SOL    HW2 6880  11.935   7.914   3.198
68350SOL     OW 6881   3.674  11.630  12.974
68350SOL    HW1 6882   3.719  11.630  12.890
68350SOL    HW2 6883   3.660  11.723  12.994
68351SOL     OW 6884   4.023   3.049   9.029
68351SOL    HW1 6885   3.993   3.001   9.106
68351SOL    HW2 6886   3.944   3.060   8.975
68352SOL     OW 6887   0.924  14.803  10.390
68352SOL    HW1 6888   0.898  14.712  10.398
68352SOL    HW2 6889   0.844  14.849  10.364
68353SOL     OW 6890   3.730   8.060   4.746
68353SOL    HW1 6891   3.679   8.106   4.679
68353SOL    HW2 6892   3.744   7.973   4.711
68354SOL     OW 6893   5.212  11.455   5.892
68354SOL    HW1 6894   5.144  11.404   5.849
68354SOL    HW2 6895   5.165  11.514   5.950
68355SOL     OW 6896  10.541   6.016  12.018
68355SOL    HW1 6897  10.470   5.955  12.035
68355SOL    HW2 6898  10.614   5.984  12.071
68356SOL     OW 6899   5.170  11.336  13.868
68356SOL    HW1 6900   5.138  11.421  13.898
68356SOL    HW2 6901   5.234  11.310  13.935
68357SOL     OW 6902  10.485   9.496   6.723
68357SOL    HW1 6903  10.422   9.427   6.702
68357SOL    HW2 6904  10.541   9.459   6.791
68358SOL     OW 6905   2.441   9.359   6.320
68358SOL    HW1 6906   2.509   9.356   6.387
68358SOL    HW2 6907   2.456   9.441   6.273
68359SOL     OW 6908  14.233   4.317  14.502
68359SOL    HW1 6909  14.281   4.234  14.507
68359SOL    HW2 6910  14.301   4.383  14.489
68360SOL     OW 6911   9.903   9.590   5.086
68360SOL    HW1 6912   9.834   9.524   5.086
68360SOL    HW2 6913   9.875   9.655   5.149
68361SOL     OW 6914  14.184   3.613   6.731
68361SOL    HW1 6915  14.194   3.662   6.649
68361SOL    HW2 6916  14.243   3.657   6.793
68362SOL     OW 6917   3.540   2.188  12.491
68362SOL    HW1 6918   3.589   2.213  12.570
68362SOL    HW2 6919   3.606   2.190  12.421
68363SOL     OW 6920   3.493   2.798   6.638
68363SOL    HW1 6921   3.467   2.834   6.553
68363SOL    HW2 6922   3.424   2.826   6.698
68364SOL     OW 6923   0.766   1.442   4.308
68364SOL    HW1 6924   0.780   1.480   4.395
68364SOL    HW2 6925   0.844   1.389   4.292
68365SOL     OW 6926   5.231   0.876  11.274
68365SOL    HW1 6927   5.148   0.848  11.235
68365SOL    HW2 6928   5.220   0.860  11.368
68366SOL     OW 6929   6.860   7.610  12.512
68366SOL    HW1 6930   6.884   7.635  12.601
68366SOL    HW2 6931   6.940   7.624  12.461
68367SOL     OW 6932   3.816  14.721   0.971
68367SOL    HW1 6933   3.910  14.734   0.957
68367SOL    HW2 6934   3.782  14.809   0.989
68368SOL     OW 6935   4.344   2.747   5.013
68368SOL    HW1 6936   4.430   2.729   4.974
68368SOL    HW2 6937   4.323   2.668   5.063
68369SOL     OW 6938   3.354   1.364  14.077
68369SOL    HW1 6939   3.433   1.389  14.030
68369SOL    HW2 6940   3.343   1.271  14.060
68370SOL     OW 6941   6.048  13.002  12.917
68370SOL    HW1 6942   6.096  12.997  12.834
68370SOL    HW2 6943   5.979  13.066  12.900
68371SOL     OW 6944   9.575   9.333   5.337
68371SOL    HW1 6945   9.651   9.300   5.385
68371SOL    HW2 6946   9.569   9.425   5.364
68372SOL     OW 6947   5.346   8.896   2.077
68372SOL    HW1 6948   5.369   8.980   2.116
68372SOL    HW2 6949   5.285   8.917   2.007
68373SOL     OW 6950  11.454  12.957   9.102
68373SOL    HW1 6951  11.435  12.991   9.015
68373SOL    HW2 6952  11.382  12.896   9.120
68374SOL     OW 6953   1.835  10.187   2.293
68374SOL    HW1 6954   1.747  10.223   2.305
68374SOL    HW2 6955   1.845  10.181   2.198
68375SOL     OW 6956   9.692  10.150  13.115
68375SOL    HW1 6957   9.634  10.097  13.170
68375SOL    HW2 6958   9.738  10.207  13.177
68376SOL     OW 6959  11.227   6.156   5.584
68376SOL    HW1 6960  11.181   6.172   5.666
68376SOL    HW2 6961  11.174   6.090   5.538
68377SOL     OW 6962  11.316   3.990   4.529
68377SOL    HW1 6963  11.253   4.062   4.536
68377SOL    HW2 6964  11.388   4.015   4.587
68378SOL     OW 6965   5.912   1.019  12.707
68378SOL    HW1 6966   5.990   1.036  12.655
68378SOL    HW2 6967   5.852   1.089  12.685
68379SOL     OW 6968   9.872   9.216  14.733
68379SOL    HW1 6969   9.926   9.156  14.681
68379SOL    HW2 6970   9.877   9.299  14.686
68380SOL     OW 6971   8.011   2.884  12.862
68380SOL    HW1 6972   7.922   2.899  12.832
68380SOL    HW2 6973   8.054   2.841  12.788
68381SOL     OW 6974  11.132   1.802   3.285
68381SOL    HW1 6975  11.191   1.736   3.249
68381SOL    HW2 6976  11.083   1.755   3.353
68382SOL     OW 6977   4.900   9.517   0.712
68382SOL    HW1 6978   4.987   9.554   0.694
68382SOL    HW2 6979   4.859   9.582   0.769
68383SOL     OW 6980  13.727  14.311   6.314
68383SOL    HW1 6981  13.739  14.224   6.276
68383SOL    HW2 6982  13.664  14.298   6.385
68384SOL     OW 6983   9.766   6.238   0.331
68384SOL    HW1 6984   9.729   6.168   0.385
68384SOL    HW2 6985   9.785   6.308   0.393
68385SOL     OW 6986  12.723   2.399   9.589
68385SOL    HW1 6987  12.688   2.382   9.502
68385SOL    HW2 6988  12.671   2.473   9.622
68386SOL     OW 6989   1.923   8.587   9.423
68386SOL    HW1 6990   1.899   8.514   9.366
68386SOL    HW2 6991   1.857   8.654   9.405
68387SOL     OW 6992   3.179   3.005   5.912
68387SOL    HW1 6993   3.105   3.065   5.915
68387SOL    HW2 6994   3.229   3.025   5.992
68388SOL     OW 6995   0.911  12.090   7.358
68388SOL    HW1 6996   0.840  12.050   7.309
68388SOL    HW2 6997   0.963  12.016   7.391
68389SOL     OW 6998   9.817  10.366   5.187
68389SOL    HW1 6999   9.730  10.386   5.222
68389SOL    HW2 7000   9.800  10.337   5.097
68390SOL     OW 7001   7.900  10.451   1.759
68390SOL    HW1 7002   7.991  10.453   1.789
68390SOL    HW2 7003   7.851  10.490   1.831
68391SOL     OW 7004   8.966   3.905   0.774
68391SOL    HW1 7005   8.996   3.858   0.852
68391SOL    HW2 7006   8.958   3.996   0.803
68392SOL     OW 7007  11.165  11.512   7.827
68392SOL    HW1 7008  11.077  11.478   7.844
68392SOL    HW2 7009  11.182  11.491   7.735
68393SOL     OW 7010   0.247   5.193   2.101
68393SOL    HW1 7011   0.331   5.230   2.125
68393SOL    HW2 7012   0.266   5.138   2.024
68394SOL     OW 7013   0.736   5.121  14.151
68394SOL    HW1 7014   0.721   5.137  14.058
68394SOL    HW2 7015   0.828   5.094  14.156
68395SOL     OW 7016   1.505   3.963   4.000
68395SOL    HW1 7017   1.510   4.048   4.045
68395SOL    HW2 7018   1.423   3.967   3.951
68396SOL     OW 7019   8.408   1.436  10.709
68396SOL    HW1 7020   8.342   1.435  10.779
68396SOL    HW2 7021   8.383   1.364  10.652
68397SOL     OW 7022   7.271   0.477   1.888
68397SOL    HW1 7023   7.286   0.409   1.953
68397SOL    HW2 7024   7.358   0.501   1.858
68398SOL     OW 7025   2.926  11.794   5.757
68398SOL    HW1 7026   2.915  11.765   5.666
68398SOL    HW2 7027   2.954  11.886   5.750
68399SOL     OW 7028   2.383  11.278   7.137
68399SOL    HW1 7029   2.403  11.245   7.050
68399SOL    HW2 7030   2.288  11.277   7.142
68400SOL     OW 7031   3.257  14.075   9.093
68400SOL    HW1 7032   3.332  14.078   9.034
68400SOL    HW2 7033   3.245  13.981   9.111
68401SOL     OW 7034  14.211   0.966   8.320
68401SOL    HW1 7035  14.132   0.912   8.321
68401SOL    HW2 7036  14.221   0.993   8.229
68402SOL     OW 7037   5.283   4.841   8.027
68402SOL    HW1 7038   5.265   4.806   8.114
68402SOL    HW2 7039   5.212   4.807   7.972
68403SOL     OW 7040  12.026   7.606   1.763
68403SOL    HW1 7041  11.934   7.605   1.734
68403SOL    HW2 7042  12.021   7.603   1.858
68404SOL     OW 7043   4.332   4.378  13.760
68404SOL    HW1 7044   4.250   4.329  13.761
68404SOL    HW2 7045   4.320   4.446  13.693
68405SOL     OW 7046   5.237  11.268   9.508
68405SOL    HW1 7047   5.229  11.180   9.471
68405SOL    HW2 7048   5.156  11.312   9.482
68406SOL     OW 7049   6.080   5.343   0.577
68406SOL    HW1 7050   6.100   5.353   0.670
68406SOL    HW2 7051   6.151   5.389   0.532
68407SOL     OW 7052  14.097   0.050   5.378
68407SOL    HW1 7053  14.035  14.877   5.424
68407SOL    HW2 7054  14.105   0.128   5.433
68408SOL     OW 7055  14.091   8.499  12.110
68408SOL    HW1 7056  13.997   8.509  12.125
68408SOL    HW2 7057  14.112   8.568  12.047
68409SOL     OW 7058   2.878  14.041   0.591
68409SOL    HW1 7059   2.915  14.050   0.679
68409SOL    HW2 7060   2.910  14.117   0.543
68410SOL     OW 7061  10.054  12.927  14.414
68410SOL    HW1 7062  10.107  13.006  14.429
68410SOL    HW2 7063   9.964  12.957  14.417
68411SOL     OW 7064   0.334  13.402  11.571
68411SOL    HW1 7065   0.394  13.329  11.588
68411SOL    HW2 7066   0.255  13.361  11.538
68412SOL     OW 7067   5.496   7.593   8.700
68412SOL    HW1 7068   5.429   7.654   8.669
68412SOL    HW2 7069   5.517   7.624   8.788
68413SOL     OW 7070   8.068   0.295   3.171
68413SOL    HW1 7071   7.983   0.252   3.179
68413SOL    HW2 7072   8.070   0.328   3.081
68414SOL     OW 7073   0.769   0.056  11.851
68414SOL    HW1 7074   0.759   0.057  11.947
68414SOL    HW2 7075   0.695   0.003  11.820
68415SOL     OW 7076   1.799  12.852   7.284
68415SOL    HW1 7077   1.758  12.933   7.313
68415SOL    HW2 7078   1.860  12.879   7.216
68416SOL     OW 7079   6.835   3.792   6.305
68416SOL    HW1 7080   6.925   3.769   6.284
68416SOL    HW2 7081   6.796   3.710   6.336
68417SOL     OW 7082  13.452  10.763  14.168
68417SOL    HW1 7083  13.502  10.720  14.237
68417SOL    HW2 7084  13.361  10.756  14.196
68418SOL     OW 7085  13.846   7.726   1.857
68418SOL    HW1 7086  13.798   7.754   1.780
68418SOL    HW2 7087  13.780   7.715   1.925
68419SOL     OW 7088   8.990   0.540  12.024
68419SOL    HW1 7089   8.998   0.595  12.102
68419SOL    HW2 7090   9.054   0.470  12.037
68420SOL     OW 7091  12.551   3.292  12.444
68420SOL    HW1 7092  12.564   3.375  12.398
68420SOL    HW2 7093  12.549   3.226  12.375
68421SOL     OW 7094  12.033   3.518   9.018
68421SOL    HW1 7095  12.118   3.502   8.978
68421SOL    HW2 7096  11.975   3.452   8.980
68422SOL     OW 7097  11.137  11.648  12.443
68422SOL    HW1 7098  11.096  11.729  12.474
68422SOL    HW2 7099  11.084  11.578  12.481
68423SOL     OW 7100  11.509   0.572   3.020
68423SOL    HW1 7101  11.449   0.531   3.083
68423SOL    HW2 7102  11.540   0.500   2.966
68424SOL     OW 7103  12.040   5.937   8.848
68424SOL    HW1 7104  12.078   6.015   8.807
68424SOL    HW2 7105  11.992   5.894   8.777
68425SOL     OW 7106   9.655   3.121  10.504
68425SOL    HW1 7107   9.694   3.203  10.533
68425SOL    HW2 7108   9.729   3.060  10.496
68426SOL     OW 7109   0.476   5.126  13.114
68426SOL    HW1 7110   0.431   5.089  13.038
68426SOL    HW2 7111   0.527   5.199  13.079
68427SOL     OW 7112  14.586   7.689   5.740
68427SOL    HW1 7113  14.590   7.752   5.811
68427SOL    HW2 7114  14.513   7.631   5.762
68428SOL     OW 7115   1.794  12.718  12.353
68428SOL    HW1 7116   1.809  12.644  12.412
68428SOL    HW2 7117   1.856  12.705  12.281
68429SOL     OW 7118   0.032   9.151  14.011
68429SOL    HW1 7119   0.027   9.067  14.058
68429SOL    HW2 7120   0.011   9.217  14.077
68430SOL     OW 7121   1.762   9.862  10.832
68430SOL    HW1 7122   1.674   9.842  10.865
68430SOL    HW2 7123   1.818   9.859  10.910
68431SOL     OW 7124   1.291   7.398   3.133
68431SOL    HW1 7125   1.301   7.440   3.048
68431SOL    HW2 7126   1.340   7.454   3.193
68432SOL     OW 7127   0.660  10.414   1.834
68432SOL    HW1 7128   0.731  10.370   1.881
68432SOL    HW2 7129   0.704  10.472   1.772
68433SOL     OW 7130   5.431   1.833   5.929
68433SOL    HW1 7131   5.343   1.807   5.957
68433SOL    HW2 7132   5.481   1.839   6.010
68434SOL     OW 7133  11.093  11.705   8.653
68434SOL    HW1 7134  11.177  11.690   8.696
68434SOL    HW2 7135  11.105  11.669   8.565
68435SOL     OW 7136   9.463  12.133   2.026
68435SOL    HW1 7137   9.457  12.204   1.961
68435SOL    HW2 7138   9.379  12.087   2.018
68436SOL     OW 7139  11.918  12.398   3.431
68436SOL    HW1 7140  12.007  12.363   3.435
68436SOL    HW2 7141  11.927  12.490   3.454
68437SOL     OW 7142   4.639   5.833   0.645
68437SOL    HW1 7143   4.659   5.765   0.580
68437SOL    HW2 7144   4.594   5.901   0.595
68438SOL     OW 7145   6.075   5.357  13.224
68438SOL    HW1 7146   6.121   5.296  13.282
68438SOL    HW2 7147   6.145   5.403  13.178
68439SOL     OW 7148   8.942   3.772  11.384
68439SOL    HW1 7149   8.987   3.728  11.312
68439SOL    HW2 7150   8.964   3.720  11.461
68440SOL     OW 7151   3.178   3.412   4.027
68440SOL    HW1 7152   3.133   3.338   4.068
68440SOL    HW2 7153   3.108   3.469   3.996
68441SOL     OW 7154  11.176   9.120  10.265
68441SOL    HW1 7155  11.203   9.203  10.303
68441SOL    HW2 7156  11.183   9.057  10.337
68442SOL     OW 7157   9.555   0.223  13.927
68442SOL    HW1 7158   9.591   0.186  14.008
68442SOL    HW2 7159   9.618   0.291  13.902
68443SOL     OW 7160   0.458   2.883   5.551
68443SOL    HW1 7161   0.383   2.849   5.600
68443SOL    HW2 7162   0.503   2.805   5.519
68444SOL     OW 7163  14.610  13.926   7.616
68444SOL    HW1 7164  14.613  14.022   7.621
68444SOL    HW2 7165  14.527  13.903   7.658
68445SOL     OW 7166  10.707   1.958  13.881
68445SOL    HW1 7167  10.717   2.004  13.964
68445SOL    HW2 7168  10.615   1.929  13.880
68446SOL     OW 7169   0.617  12.589   0.598
68446SOL    HW1 7170   0.575  12.585   0.684
68446SOL    HW2 7171   0.661  12.674   0.596
68447SOL     OW 7172   6.324   1.088  11.430
68447SOL    HW1 7173   6.297   1.173  11.464
68447SOL    HW2 7174   6.404   1.066  11.480
68448SOL     OW 7175  10.189   7.890  14.662
68448SOL    HW1 7176  10.213   7.919  14.574
68448SOL    HW2 7177  10.097   7.866  14.655
68449SOL     OW 7178   0.372   3.892   2.919
68449SOL    HW1 7179   0.416   3.931   2.994
68449SOL    HW2 7180   0.410   3.937   2.843
68450SOL     OW 7181  12.784   2.245  12.671
68450SOL    HW1 7182  12.763   2.290  12.753
68450SOL    HW2 7183  12.822   2.312  12.615
68451SOL     OW 7184   8.738  13.174  10.781
68451SOL    HW1 7185   8.794  13.145  10.853
68451SOL    HW2 7186   8.701  13.094  10.746
68452SOL     OW 7187   7.954  11.717   0.902
68452SOL    HW1 7188   7.959  11.642   0.961
68452SOL    HW2 7189   7.938  11.791   0.960
68453SOL     OW 7190  12.024  13.717   2.796
68453SOL    HW1 7191  12.069  13.800   2.813
68453SOL    HW2 7192  12.072  13.679   2.722
68454SOL     OW 7193   9.577  12.804   2.544
68454SOL    HW1 7194   9.536  12.833   2.462
68454SOL    HW2 7195   9.573  12.881   2.601
68455SOL     OW 7196  12.708  11.022   8.254
68455SOL    HW1 7197  12.664  10.939   8.233
68455SOL    HW2 7198  12.640  11.076   8.294
68456SOL     OW 7199  14.724   5.709   1.752
68456SOL    HW1 7200  14.763   5.708   1.839
68456SOL    HW2 7201  14.678   5.793   1.748
68457SOL     OW 7202  11.149  10.391   4.029
68457SOL    HW1 7203  11.082  10.460   4.026
68457SOL    HW2 7204  11.134  10.347   4.113
68458SOL     OW 7205  11.942   6.574   2.785
68458SOL    HW1 7206  12.027   6.563   2.742
68458SOL    HW2 7207  11.962   6.572   2.878
68459SOL     OW 7208  14.431  12.801  11.660
68459SOL    HW1 7209  14.494  12.866  11.628
68459SOL    HW2 7210  14.367  12.851  11.711
68460SOL     OW 7211   4.054   4.670  11.048
68460SOL    HW1 7212   3.995   4.609  11.091
68460SOL    HW2 7213   4.042   4.654  10.954
68461SOL     OW 7214   3.512   1.953  13.320
68461SOL    HW1 7215   3.555   1.895  13.256
68461SOL    HW2 7216   3.528   1.912  13.404
68462SOL     OW 7217   0.404   7.660   4.331
68462SOL    HW1 7218   0.351   7.738   4.349
68462SOL    HW2 7219   0.418   7.662   4.237
68463SOL     OW 7220   9.794  10.229  12.163
68463SOL    HW1 7221   9.883  10.227  12.127
68463SOL    HW2 7222   9.807  10.226  12.258
68464SOL     OW 7223  11.912  10.127  11.422
68464SOL    HW1 7224  11.857  10.100  11.496
68464SOL    HW2 7225  11.879  10.214  11.398
68465SOL     OW 7226   7.210   5.267   3.783
68465SOL    HW1 7227   7.260   5.226   3.853
68465SOL    HW2 7228   7.181   5.351   3.820
68466SOL     OW 7229   8.269  14.030  12.838
68466SOL    HW1 7230   8.355  13.993  12.858
68466SOL    HW2 7231   8.233  13.973  12.771
68467SOL     OW 7232   8.304  13.722   3.704
68467SOL    HW1 7233   8.277  13.645   3.753
68467SOL    HW2 7234   8.387  13.749   3.745
68468SOL     OW 7235   1.223   5.320   4.081
68468SOL    HW1 7236   1.289   5.265   4.124
68468SOL    HW2 7237   1.206   5.276   3.998
68469SOL     OW 7238   5.845  10.720  14.533
68469SOL    HW1 7239   5.779  10.761  14.589
68469SOL    HW2 7240   5.889  10.657  14.590
68470SOL     OW 7241   6.363  13.516   6.241
68470SOL    HW1 7242   6.453  13.489   6.222
68470SOL    HW2 7243   6.367  13.611   6.248
68471SOL     OW 7244   8.080   7.621   3.454
68471SOL    HW1 7245   7.997   7.643   3.495
68471SOL    HW2 7246   8.057   7.601   3.363
68472SOL     OW 7247  12.639   4.576   1.011
68472SOL    HW1 7248  12.656   4.670   1.008
68472SOL    HW2 7249  12.622   4.551   0.920
68473SOL     OW 7250   4.201   9.759  12.301
68473SOL    HW1 7251   4.241   9.754  12.214
68473SOL    HW2 7252   4.235   9.683  12.348
68474SOL     OW 7253   8.252  13.367   0.416
68474SOL    HW1 7254   8.331  13.399   0.373
68474SOL    HW2 7255   8.285  13.325   0.497
68475SOL     OW 7256   8.985   6.296   1.801
68475SOL    HW1 7257   9.051   6.273   1.865
68475SOL    HW2 7258   9.004   6.241   1.725
68476SOL     OW 7259   8.173   8.615  13.326
68476SOL    HW1 7260   8.203   8.526  13.347
68476SOL    HW2 7261   8.199   8.628  13.235
68477SOL     OW 7262   1.317  10.760  11.032
68477SOL    HW1 7263   1.254  10.787  10.965
68477SOL    HW2 7264   1.306  10.665  11.039
68478SOL     OW 7265   1.159   7.220   6.651
68478SOL    HW1 7266   1.250   7.195   6.639
68478SOL    HW2 7267   1.119   7.145   6.695
68479SOL     OW 7268  14.385  12.450  10.252
68479SOL    HW1 7269  14.356  12.488  10.169
68479SOL    HW2 7270  14.476  12.426  10.237
68480SOL     OW 7271  10.447  14.600   5.278
68480SOL    HW1 7272  10.356  14.571   5.286
68480SOL    HW2 7273  10.475  14.566   5.193
68481SOL     OW 7274  12.884  11.075   3.414
68481SOL    HW1 7275  12.789  11.069   3.403
68481SOL    HW2 7276  12.898  11.153   3.467
68482SOL     OW 7277   7.531   2.863   3.559
68482SOL    HW1 7278   7.514   2.923   3.632
68482SOL    HW2 7279   7.623   2.840   3.569
68483SOL     OW 7280   0.584   0.502  11.981
68483SOL    HW1 7281   0.642   0.555  12.035
68483SOL    HW2 7282   0.574   0.420  12.029
68484SOL     OW 7283  12.715   2.368   7.664
68484SOL    HW1 7284  12.775   2.311   7.711
68484SOL    HW2 7285  12.632   2.320   7.663
68485SOL     OW 7286   5.537  11.186   8.615
68485SOL    HW1 7287   5.470  11.131   8.573
68485SOL    HW2 7288   5.519  11.177   8.709
68486SOL     OW 7289   1.522   8.615   6.361
68486SOL    HW1 7290   1.544   8.700   6.401
68486SOL    HW2 7291   1.581   8.553   6.404
68487SOL     OW 7292   6.003   5.855   7.414
68487SOL    HW1 7293   6.083   5.876   7.463
68487SOL    HW2 7294   5.978   5.768   7.444
68488SOL     OW 7295   3.940  14.429   3.011
68488SOL    HW1 7296   3.848  14.451   3.024
68488SOL    HW2 7297   3.964  14.379   3.090
68489SOL     OW 7298   5.001   4.396   8.439
68489SOL    HW1 7299   5.084   4.369   8.478
68489SOL    HW2 7300   4.936   4.337   8.478
68490SOL     OW 7301  14.232   8.945   2.259
68490SOL    HW1 7302  14.322   8.974   2.248
68490SOL    HW2 7303  14.216   8.888   2.183
68491SOL     OW 7304   5.045   7.483   7.312
68491SOL    HW1 7305   5.086   7.406   7.351
68491SOL    HW2 7306   5.023   7.455   7.223
68492SOL     OW 7307   3.762   5.024   7.907
68492SOL    HW1 7308   3.824   4.954   7.926
68492SOL    HW2 7309   3.785   5.054   7.819
68493SOL     OW 7310  10.498   0.985   6.229
68493SOL    HW1 7311  10.408   1.007   6.252
68493SOL    HW2 7312  10.522   0.914   6.289
68494SOL     OW 7313   1.267   0.104   5.307
68494SOL    HW1 7314   1.175   0.126   5.317
68494SOL    HW2 7315   1.301   0.104   5.397
68495SOL     OW 7316   4.413   9.848   8.796
68495SOL    HW1 7317   4.322   9.827   8.775
68495SOL    HW2 7318   4.425   9.936   8.760
68496SOL     OW 7319   3.990   3.536   5.109
68496SOL    HW1 7320   3.967   3.478   5.037
68496SOL    HW2 7321   4.026   3.478   5.177
68497SOL     OW 7322   6.459   0.375   8.472
68497SOL    HW1 7323   6.383   0.331   8.434
68497SOL    HW2 7324   6.482   0.322   8.548
68498SOL     OW 7325   9.254  13.230  12.786
68498SOL    HW1 7326   9.324  13.211  12.723
68498SOL    HW2 7327   9.184  13.268  12.733
68499SOL     OW 7328   6.393   6.557  10.094
68499SOL    HW1 7329   6.472   6.572  10.041
68499SOL    HW2 7330   6.353   6.479  10.056
68500SOL     OW 7331  13.014   6.792  13.761
68500SOL    HW1 7332  12.973   6.839  13.834
68500SOL    HW2 7333  13.081   6.737  13.803
68501SOL     OW 7334   5.494   6.753   1.817
68501SOL    HW1 7335   5.481   6.660   1.836
68501SOL    HW2 7336   5.431   6.771   1.747
68502SOL     OW 7337   1.661   4.060   1.665
68502SOL    HW1 7338   1.726   4.064   1.595
68502SOL    HW2 7339   1.644   3.966   1.676
68503SOL     OW 7340   1.097   9.079   7.032
68503SOL    HW1 7341   1.188   9.056   7.049
68503SOL    HW2 7342   1.047   9.019   7.088
68504SOL     OW 7343  11.672  10.809  11.333
68504SOL    HW1 7344  11.684  10.852  11.418
68504SOL    HW2 7345  11.582  10.777  11.335
68505SOL     OW 7346  13.186   2.318   1.258
68505SOL    HW1 7347  13.165   2.238   1.306
68505SOL    HW2 7348  13.267   2.298   1.211
68506SOL     OW 7349   5.768  10.220   1.349
68506SOL    HW1 7350   5.839  10.214   1.413
68506SOL    HW2 7351   5.784  10.148   1.288
68507SOL     OW 7352   2.912  12.518   9.729
68507SOL    HW1 7353   2.832  12.565   9.704
68507SOL    HW2 7354   2.983  12.572   9.695
68508SOL     OW 7355  13.838   9.276   6.789
68508SOL    HW1 7356  13.881   9.361   6.777
68508SOL    HW2 7357  13.902   9.225   6.839
68509SOL     OW 7358   4.659   1.081  12.482
68509SOL    HW1 7359   4.742   1.092  12.529
68509SOL    HW2 7360   4.633   0.991  12.500
68510SOL     OW 7361   7.545   3.780  12.359
68510SOL    HW1 7362   7.494   3.720  12.305
68510SOL    HW2 7363   7.586   3.724  12.426
68511SOL     OW 7364  10.283   7.053  11.009
68511SOL    HW1 7365  10.190   7.038  11.028
68511SOL    HW2 7366  10.326   7.050  11.095
68512SOL     OW 7367   0.245   4.335   7.461
68512SOL    HW1 7368   0.238   4.429   7.442
68512SOL    HW2 7369   0.176   4.319   7.526
68513SOL     OW 7370   5.345   7.911   2.572
68513SOL    HW1 7371   5.316   7.880   2.486
68513SOL    HW2 7372   5.318   7.842   2.633
68514SOL     OW 7373   4.134   9.388   0.168
68514SOL    HW1 7374   4.207   9.365   0.225
68514SOL    HW2 7375   4.158   9.351   0.083
68515SOL     OW 7376  12.637   8.709  14.790
68515SOL    HW1 7377  12.648   8.799  14.760
68515SOL    HW2 7378  12.692   8.657  14.733
68516SOL     OW 7379   6.785  10.314   9.666
68516SOL    HW1 7380   6.797  10.219   9.670
68516SOL    HW2 7381   6.833  10.348   9.742
68517SOL     OW 7382   0.568   5.883   6.299
68517SOL    HW1 7383   0.610   5.810   6.254
68517SOL    HW2 7384   0.517   5.842   6.368
68518SOL     OW 7385  13.401   9.335   8.571
68518SOL    HW1 7386  13.339   9.406   8.554
68518SOL    HW2 7387  13.469   9.346   8.505
68519SOL     OW 7388   5.645   5.599  14.763
68519SOL    HW1 7389   5.665   5.663  14.695
68519SOL    HW2 7390   5.560   5.626  14.797
68520SOL     OW 7391   6.743  12.187   6.619
68520SOL    HW1 7392   6.676  12.140   6.669
68520SOL    HW2 7393   6.694  12.230   6.548
68521SOL     OW 7394   6.777   2.254   1.384
68521SOL    HW1 7395   6.779   2.244   1.289
68521SOL    HW2 7396   6.764   2.348   1.397
68522SOL     OW 7397   8.939   8.903  10.242
68522SOL    HW1 7398   8.951   8.993  10.274
68522SOL    HW2 7399   8.846   8.897  10.221
68523SOL     OW 7400   8.936   8.280   9.517
68523SOL    HW1 7401   8.851   8.317   9.539
68523SOL    HW2 7402   8.916   8.199   9.470
68524SOL     OW 7403   8.521   5.118  14.207
68524SOL    HW1 7404   8.542   5.096  14.298
68524SOL    HW2 7405   8.452   5.184  14.214
68525SOL     OW 7406  13.591  10.274   4.370
68525SOL    HW1 7407  13.538  10.201   4.338
68525SOL    HW2 7408  13.654  10.235   4.430
68526SOL     OW 7409   9.755  13.013   8.012
68526SOL    HW1 7410   9.767  12.957   7.935
68526SOL    HW2 7411   9.813  12.976   8.078
68527SOL     OW 7412  13.767   4.704   1.206
68527SOL    HW1 7413  13.730   4.617   1.222
68527SOL    HW2 7414  13.706   4.745   1.145
68528SOL     OW 7415   9.871   3.783   7.078
68528SOL    HW1 7416   9.960   3.764   7.049
68528SOL    HW2 7417   9.815   3.747   7.009
68529SOL     OW 7418   3.781   4.078  10.655
68529SOL    HW1 7419   3.844   4.055  10.724
68529SOL    HW2 7420   3.835   4.105  10.581
68530SOL     OW 7421  11.195   4.357  14.122
68530SOL    HW1 7422  11.230   4.432  14.074
68530SOL    HW2 7423  11.108   4.386  14.151
68531SOL     OW 7424   4.078   7.946   5.049
68531SOL    HW1 7425   4.058   7.911   5.136
68531SOL    HW2 7426   4.173   7.949   5.046
68532SOL     OW 7427   7.558  12.457  14.234
68532SOL    HW1 7428   7.574  12.531  14.175
68532SOL    HW2 7429   7.627  12.462  14.300
68533SOL     OW 7430  11.776   4.041   8.139
68533SOL    HW1 7431  11.778   4.043   8.043
68533SOL    HW2 7432  11.858   4.082   8.166
68534SOL     OW 7433  10.014   7.211   8.963
68534SOL    HW1 7434  10.012   7.182   8.872
68534SOL    HW2 7435  10.033   7.132   9.013
68535SOL     OW 7436  11.727   8.998   4.027
68535SOL    HW1 7437  11.641   8.967   3.999
68535SOL    HW2 7438  11.730   9.090   4.000
68536SOL     OW 7439  12.001   0.164   4.662
68536SOL    HW1 7440  12.071   0.167   4.728
68536SOL    HW2 7441  12.045   0.184   4.579
68537SOL     OW 7442  11.141   7.863   9.925
68537SOL    HW1 7443  11.208   7.928   9.901
68537SOL    HW2 7444  11.185   7.779   9.917
68538SOL     OW 7445   6.960   3.393   8.498
68538SOL    HW1 7446   6.971   3.427   8.410
68538SOL    HW2 7447   7.041   3.418   8.544
68539SOL     OW 7448   7.858  12.189  11.325
68539SOL    HW1 7449   7.806  12.220  11.251
68539SOL    HW2 7450   7.842  12.095  11.328
68540SOL     OW 7451   6.015   0.998   6.455
68540SOL    HW1 7452   5.967   1.067   6.501
68540SOL    HW2 7453   6.068   1.045   6.391
68541SOL     OW 7454   3.233   3.151   1.118
68541SOL    HW1 7455   3.201   3.188   1.036
68541SOL    HW2 7456   3.258   3.061   1.096
68542SOL     OW 7457   3.185  13.669   2.363
68542SOL    HW1 7458   3.132  13.637   2.291
68542SOL    HW2 7459   3.138  13.746   2.396
68543SOL     OW 7460  14.621  13.291   1.042
68543SOL    HW1 7461  14.644  13.384   1.042
68543SOL    HW2 7462  14.537  13.287   0.997
68544SOL     OW 7463   5.191   1.021  13.022
68544SOL    HW1 7464   5.105   1.003  12.983
68544SOL    HW2 7465   5.225   0.934  13.046
68545SOL     OW 7466  10.978  10.785   3.208
68545SOL    HW1 7467  10.960  10.875   3.231
68545SOL    HW2 7468  10.918  10.733   3.262
68546SOL     OW 7469   2.164   0.868  13.482
68546SOL    HW1 7470   2.257   0.851  13.498
68546SOL    HW2 7471   2.162   0.948  13.431
68547SOL     OW 7472   9.698   7.786   2.893
68547SOL    HW1 7473   9.729   7.745   2.973
68547SOL    HW2 7474   9.772   7.837   2.862
68548SOL     OW 7475  11.978  11.789   1.161
68548SOL    HW1 7476  11.902  11.733   1.143
68548SOL    HW2 7477  12.037  11.773   1.088
68549SOL     OW 7478  13.425  14.458   1.249
68549SOL    HW1 7479  13.352  14.408   1.213
68549SOL    HW2 7480  13.418  14.544   1.206
68550SOL     OW 7481  11.342   7.384  13.833
68550SOL    HW1 7482  11.343   7.396  13.928
68550SOL    HW2 7483  11.249   7.385  13.809
68551SOL     OW 7484  12.408   0.366   1.589
68551SOL    HW1 7485  12.477   0.308   1.620
68551SOL    HW2 7486  12.420   0.447   1.639
68552SOL     OW 7487   9.233  10.487   8.583
68552SOL    HW1 7488   9.196  10.523   8.503
68552SOL    HW2 7489   9.199  10.398   8.588
68553SOL     OW 7490   4.121  12.745   0.550
68553SOL    HW1 7491   4.180  12.721   0.622
68553SOL    HW2 7492   4.178  12.747   0.473
68554SOL     OW 7493   8.465   5.759   3.778
68554SOL    HW1 7494   8.490   5.846   3.807
68554SOL    HW2 7495   8.377   5.770   3.741
68555SOL     OW 7496   7.350   1.761  13.813
68555SOL    HW1 7497   7.305   1.686  13.774
68555SOL    HW2 7498   7.441   1.733  13.822
68556SOL     OW 7499  13.208   2.113   9.888
68556SOL    HW1 7500  13.135   2.159   9.848
68556SOL    HW2 7501  13.174   2.026   9.907
68557SOL     OW 7502  10.702   0.467   2.100
68557SOL    HW1 7503  10.746   0.386   2.124
68557SOL    HW2 7504  10.609   0.446   2.107
68558SOL     OW 7505   9.266   4.196  11.824
68558SOL    HW1 7506   9.243   4.165  11.912
68558SOL    HW2 7507   9.321   4.273  11.838
68559SOL     OW 7508   3.081  11.142  14.470
68559SOL    HW1 7509   3.122  11.224  14.497
68559SOL    HW2 7510   3.154  11.082  14.458
68560SOL     OW 7511  11.988  13.376   1.211
68560SOL    HW1 7512  11.904  13.422   1.204
68560SOL    HW2 7513  12.006  13.346   1.122
68561SOL     OW 7514   2.203   0.582   5.987
68561SOL    HW1 7515   2.168   0.562   5.900
68561SOL    HW2 7516   2.199   0.499   6.034
68562SOL     OW 7517  10.428   3.735  11.753
68562SOL    HW1 7518  10.481   3.697  11.683
68562SOL    HW2 7519  10.371   3.798  11.708
68563SOL     OW 7520   4.949   4.278   5.573
68563SOL    HW1 7521   4.921   4.366   5.549
68563SOL    HW2 7522   4.882   4.246   5.634
68564SOL     OW 7523  12.100  14.517  13.263
68564SOL    HW1 7524  12.021  14.463  13.253
68564SOL    HW2 7525  12.123  14.508  13.356
68565SOL     OW 7526   9.054   2.137   0.461
68565SOL    HW1 7527   9.082   2.047   0.449
68565SOL    HW2 7528   8.968   2.141   0.418
68566SOL     OW 7529   1.131   6.042   0.595
68566SOL    HW1 7530   1.217   6.010   0.619
68566SOL    HW2 7531   1.113   6.112   0.658
68567SOL     OW 7532   1.762   1.257   4.341
68567SOL    HW1 7533   1.855   1.276   4.353
68567SOL    HW2 7534   1.750   1.256   4.246
68568SOL     OW 7535   6.982   5.676  14.325
68568SOL    HW1 7536   7.011   5.763  14.299
68568SOL    HW2 7537   6.948   5.686  14.414
68569SOL     OW 7538   2.747   0.139   5.421
68569SOL    HW1 7539   2.803   0.215   5.438
68569SOL    HW2 7540   2.780   0.103   5.339
68570SOL     OW 7541  13.720   6.852   9.174
68570SOL    HW1 7542  13.719   6.872   9.268
68570SOL    HW2 7543  13.662   6.918   9.135
68571SOL     OW 7544  11.292  10.697  13.328
68571SOL    HW1 7545  11.238  10.682  13.251
68571SOL    HW2 7546  11.230  10.693  13.402
68572SOL     OW 7547  12.613   8.948  12.301
68572SOL    HW1 7548  12.518   8.955  12.307
68572SOL    HW2 7549  12.630   8.854  12.295
68573SOL     OW 7550  13.076  12.384   3.588
68573SOL    HW1 7551  13.082  12.457   3.650
68573SOL    HW2 7552  13.054  12.308   3.643
68574SOL     OW 7553  13.397   5.779   4.556
68574SOL    HW1 7554  13.420   5.783   4.649
68574SOL    HW2 7555  13.475   5.808   4.511
68575SOL     OW 7556   9.141  12.538  12.591
68575SOL    HW1 7557   9.084  12.604  12.629
68575SOL    HW2 7558   9.099  12.455  12.611
68576SOL     OW 7559   3.099  11.848   3.450
68576SOL    HW1 7560   3.157  11.884   3.518
68576SOL    HW2 7561   3.017  11.896   3.461
68577SOL     OW 7562   3.605   4.625  10.760
68577SOL    HW1 7563   3.627   4.655  10.848
68577SOL    HW2 7564   3.590   4.531  10.771
68578SOL     OW 7565   9.380   6.542   5.509
68578SOL    HW1 7566   9.291   6.575   5.499
68578SOL    HW2 7567   9.436   6.617   5.489
68579SOL     OW 7568   8.962   5.489  11.451
68579SOL    HW1 7569   9.043   5.456  11.490
68579SOL    HW2 7570   8.949   5.436  11.373
68580SOL     OW 7571   5.608   8.457   9.537
68580SOL    HW1 7572   5.647   8.541   9.513
68580SOL    HW2 7573   5.589   8.414   9.454
68581SOL     OW 7574   2.288   1.817   9.234
68581SOL    HW1 7575   2.214   1.769   9.272
68581SOL    HW2 7576   2.358   1.753   9.230
68582SOL     OW 7577   7.174   3.741  14.473
68582SOL    HW1 7578   7.187   3.664  14.417
68582SOL    HW2 7579   7.236   3.729  14.545
68583SOL     OW 7580  13.957  12.727  13.664
68583SOL    HW1 7581  13.974  12.727  13.758
68583SOL    HW2 7582  14.025  12.670  13.628
68584SOL     OW 7583   6.181   2.591  13.241
68584SOL    HW1 7584   6.186   2.542  13.323
68584SOL    HW2 7585   6.269   2.629  13.231
68585SOL     OW 7586  12.358   9.082   4.475
68585SOL    HW1 7587  12.397   9.062   4.560
68585SOL    HW2 7588  12.283   9.138   4.495
68586SOL     OW 7589  12.858   3.087  14.343
68586SOL    HW1 7590  12.796   3.059  14.410
68586SOL    HW2 7591  12.926   3.019  14.342
68587SOL     OW 7592   1.312  11.291   7.862
68587SOL    HW1 7593   1.328  11.227   7.792
68587SOL    HW2 7594   1.361  11.256   7.937
68588SOL     OW 7595   2.666   7.511   4.294
68588SOL    HW1 7596   2.594   7.521   4.356
68588SOL    HW2 7597   2.632   7.550   4.213
68589SOL     OW 7598   3.295   5.500   1.620
68589SOL    HW1 7599   3.295   5.499   1.716
68589SOL    HW2 7600   3.203   5.500   1.595
68590SOL     OW 7601   7.877  14.382   5.829
68590SOL    HW1 7602   7.954  14.326   5.816
68590SOL    HW2 7603   7.804  14.331   5.795
68591SOL     OW 7604   1.384   8.974  11.553
68591SOL    HW1 7605   1.326   8.921  11.607
68591SOL    HW2 7606   1.428   8.911  11.496
68592SOL     OW 7607   5.130   4.078   7.982
68592SOL    HW1 7608   5.093   4.007   7.929
68592SOL    HW2 7609   5.182   4.130   7.920
68593SOL     OW 7610   4.857  10.722   4.656
68593SOL    HW1 7611   4.807  10.645   4.683
68593SOL    HW2 7612   4.933  10.724   4.714
68594SOL     OW 7613   4.253   0.662  12.678
68594SOL    HW1 7614   4.203   0.583  12.655
68594SOL    HW2 7615   4.246   0.668  12.773
68595SOL     OW 7616  14.065   2.047   3.310
68595SOL    HW1 7617  14.149   2.041   3.354
68595SOL    HW2 7618  14.011   2.102   3.367
68596SOL     OW 7619   8.718  10.767  10.881
68596SOL    HW1 7620   8.625  10.790  10.887
68596SOL    HW2 7621   8.759  10.813  10.954
68597SOL     OW 7622   7.197  10.672  12.865
68597SOL    HW1 7623   7.151  10.720  12.795
68597SOL    HW2 7624   7.275  10.725  12.883
68598SOL     OW 7625   9.007  11.502   5.909
68598SOL    HW1 7626   8.961  11.495   5.993
68598SOL    HW2 7627   8.937  11.515   5.845
68599SOL     OW 7628  12.103   0.255  14.797
68599SOL    HW1 7629  12.180   0.308  14.775
68599SOL    HW2 7630  12.130   0.165  14.778
68600SOL     OW 7631  12.990  14.187   5.715
68600SOL    HW1 7632  13.018  14.119   5.777
68600SOL    HW2 7633  13.070  14.237   5.698
68601SOL     OW 7634   0.172  11.468   7.337
68601SOL    HW1 7635   0.151  11.544   7.391
68601SOL    HW2 7636   0.247  11.495   7.284
68602SOL     OW 7637   3.947   3.705  12.368
68602SOL    HW1 7638   3.911   3.620  12.395
68602SOL    HW2 7639   3.930   3.709  12.274
68603SOL     OW 7640   4.885   6.539   2.789
68603SOL    HW1 7641   4.968   6.528   2.743
68603SOL    HW2 7642   4.819   6.501   2.731
68604SOL     OW 7643  10.285   6.909   6.059
68604SOL    HW1 7644  10.316   6.840   6.000
68604SOL    HW2 7645  10.293   6.871   6.146
68605SOL     OW 7646   3.873  10.289  14.372
68605SOL    HW1 7647   3.858  10.221  14.437
68605SOL    HW2 7648   3.805  10.354  14.388
68606SOL     OW 7649  13.620   6.945   6.026
68606SOL    HW1 7650  13.647   6.908   5.942
68606SOL    HW2 7651  13.680   6.906   6.090
68607SOL     OW 7652   4.773   8.055   8.177
68607SOL    HW1 7653   4.708   8.072   8.110
68607SOL    HW2 7654   4.810   8.141   8.197
68608SOL     OW 7655   1.027   5.689   8.455
68608SOL    HW1 7656   1.117   5.684   8.423
68608SOL    HW2 7657   0.980   5.622   8.405
68609SOL     OW 7658   4.074   8.318  12.515
68609SOL    HW1 7659   4.013   8.333  12.587
68609SOL    HW2 7660   4.154   8.365  12.541
68610SOL     OW 7661   8.976  10.979   1.694
68610SOL    HW1 7662   8.899  10.955   1.643
68610SOL    HW2 7663   9.049  10.938   1.648
68611SOL     OW 7664   5.824  14.848  14.276
68611SOL    HW1 7665   5.800  14.852  14.184
68611SOL    HW2 7666   5.773   0.036  14.317
68612SOL     OW 7667   1.883  13.505   2.460
68612SOL    HW1 7668   1.882  13.594   2.426
68612SOL    HW2 7669   1.800  13.467   2.432
68613SOL     OW 7670   5.886   1.185  14.400
68613SOL    HW1 7671   5.900   1.202  14.307
68613SOL    HW2 7672   5.816   1.120  14.402
68614SOL     OW 7673   8.265   1.231   7.745
68614SOL    HW1 7674   8.221   1.152   7.713
68614SOL    HW2 7675   8.294   1.276   7.665
68615SOL     OW 7676   9.631   9.856   3.005
68615SOL    HW1 7677   9.554   9.912   2.993
68615SOL    HW2 7678   9.673   9.855   2.919
68616SOL     OW 7679   7.336   3.120   8.436
68616SOL    HW1 7680   7.261   3.132   8.377
68616SOL    HW2 7681   7.408   3.096   8.378
68617SOL     OW 7682   3.155  12.478   4.321
68617SOL    HW1 7683   3.227  12.444   4.374
68617SOL    HW2 7684   3.118  12.401   4.277
68618SOL     OW 7685   5.125   4.479   9.600
68618SOL    HW1 7686   5.216   4.449   9.602
68618SOL    HW2 7687   5.087   4.434   9.524
68619SOL     OW 7688   9.673   1.246   1.279
68619SOL    HW1 7689   9.606   1.233   1.212
68619SOL    HW2 7690   9.732   1.172   1.267
68620SOL     OW 7691   2.326   5.462   5.327
68620SOL    HW1 7692   2.329   5.510   5.410
68620SOL    HW2 7693   2.285   5.378   5.350
68621SOL     OW 7694   2.412   1.378  14.664
68621SOL    HW1 7695   2.473   1.396  14.735
68621SOL    HW2 7696   2.356   1.308  14.697
68622SOL     OW 7697   3.725  12.763  10.742
68622SOL    HW1 7698   3.721  12.858  10.747
68622SOL    HW2 7699   3.769  12.736  10.823
68623SOL     OW 7700   1.180   3.625  12.423
68623SOL    HW1 7701   1.114   3.564  12.457
68623SOL    HW2 7702   1.208   3.586  12.340
68624SOL     OW 7703   6.569   9.180   0.352
68624SOL    HW1 7704   6.501   9.177   0.284
68624SOL    HW2 7705   6.572   9.273   0.378
68625SOL     OW 7706   1.980   8.077  14.731
68625SOL    HW1 7707   2.075   8.076  14.729
68625SOL    HW2 7708   1.954   8.085  14.639
68626SOL     OW 7709  14.868   3.683   6.795
68626SOL    HW1 7710   0.058   3.642   6.844
68626SOL    HW2 7711  14.819   3.732   6.862
68627SOL     OW 7712   8.116  10.608  10.302
68627SOL    HW1 7713   8.036  10.646  10.266
68627SOL    HW2 7714   8.180  10.614  10.231
68628SOL     OW 7715  13.635   6.928   9.583
68628SOL    HW1 7716  13.596   6.899   9.501
68628SOL    HW2 7717  13.728   6.939   9.562
68629SOL     OW 7718   8.831  11.339   8.531
68629SOL    HW1 7719   8.853  11.246   8.536
68629SOL    HW2 7720   8.913  11.384   8.551
68630SOL     OW 7721   6.179   6.457   3.386
68630SOL    HW1 7722   6.116   6.431   3.319
68630SOL    HW2 7723   6.150   6.412   3.465
68631SOL     OW 7724   5.710   8.553   9.061
68631SOL    HW1 7725   5.712   8.541   8.966
68631SOL    HW2 7726   5.745   8.641   9.075
68632SOL     OW 7727   3.182   0.211  10.853
68632SOL    HW1 7728   3.145   0.287  10.808
68632SOL    HW2 7729   3.270   0.203  10.816
68633SOL     OW 7730   6.333   9.884   0.127
68633SOL    HW1 7731   6.341   9.968   0.172
68633SOL    HW2 7732   6.413   9.836   0.151
68634SOL     OW 7733  13.753   5.027   6.533
68634SOL    HW1 7734  13.793   5.093   6.476
68634SOL    HW2 7735  13.827   4.977   6.568
68635SOL     OW 7736  10.137  11.735   5.320
68635SOL    HW1 7737  10.137  11.690   5.235
68635SOL    HW2 7738  10.134  11.828   5.297
68636SOL     OW 7739   1.482   6.486   2.260
68636SOL    HW1 7740   1.518   6.408   2.217
68636SOL    HW2 7741   1.532   6.493   2.341
68637SOL     OW 7742  11.953   4.229  10.601
68637SOL    HW1 7743  11.931   4.141  10.569
68637SOL    HW2 7744  11.983   4.277  10.524
68638SOL     OW 7745   7.201   1.555  13.708
68638SOL    HW1 7746   7.177   1.463  13.718
68638SOL    HW2 7747   7.259   1.556  13.632
68639SOL     OW 7748  13.200   6.601  14.184
68639SOL    HW1 7749  13.220   6.573  14.273
68639SOL    HW2 7750  13.106   6.619  14.185
68640SOL     OW 7751   0.066   5.485   5.246
68640SOL    HW1 7752   0.014   5.423   5.195
68640SOL    HW2 7753   0.113   5.431   5.310
68641SOL     OW 7754   4.887   9.611  11.590
68641SOL    HW1 7755   4.813   9.555  11.567
68641SOL    HW2 7756   4.959   9.579  11.536
68642SOL     OW 7757  11.619  11.290  10.253
68642SOL    HW1 7758  11.572  11.222  10.206
68642SOL    HW2 7759  11.704  11.250  10.273
68643SOL     OW 7760   1.879   5.657   0.100
68643SOL    HW1 7761   1.971   5.632   0.100
68643SOL    HW2 7762   1.832   5.574   0.089
68644SOL     OW 7763  11.864   7.567   8.718
68644SOL    HW1 7764  11.879   7.475   8.739
68644SOL    HW2 7765  11.855   7.610   8.803
68645SOL     OW 7766   0.269   8.120  12.377
68645SOL    HW1 7767   0.309   8.132  12.464
68645SOL    HW2 7768   0.325   8.056  12.334
68646SOL     OW 7769  10.801   2.846   6.292
68646SOL    HW1 7770  10.822   2.879   6.205
68646SOL    HW2 7771  10.735   2.779   6.277
68647SOL     OW 7772   8.232   7.133  12.602
68647SOL    HW1 7773   8.138   7.139  12.587
68647SOL    HW2 7774   8.272   7.148  12.516
68648SOL     OW 7775   1.262   8.088   0.666
68648SOL    HW1 7776   1.354   8.087   0.639
68648SOL    HW2 7777   1.264   8.052   0.755
68649SOL     OW 7778  12.843  11.890   7.299
68649SOL    HW1 7779  12.848  11.901   7.394
68649SOL    HW2 7780  12.835  11.795   7.286
68650SOL     OW 7781  10.585   0.697   4.861
68650SOL    HW1 7782  10.557   0.627   4.920
68650SOL    HW2 7783  10.574   0.660   4.773
68651SOL     OW 7784   4.606   9.725   8.024
68651SOL    HW1 7785   4.604   9.703   8.118
68651SOL    HW2 7786   4.644   9.647   7.983
68652SOL     OW 7787   4.326  10.293   7.879
68652SOL    HW1 7788   4.297  10.384   7.884
68652SOL    HW2 7789   4.291  10.262   7.795
68653SOL     OW 7790   5.943  10.089  12.032
68653SOL    HW1 7791   6.036  10.095  12.052
68653SOL    HW2 7792   5.936  10.118  11.941
68654SOL     OW 7793  10.997   0.450   6.941
68654SOL    HW1 7794  11.036   0.492   6.865
68654SOL    HW2 7795  10.928   0.394   6.905
68655SOL     OW 7796   0.258   6.536  12.010
68655SOL    HW1 7797   0.204   6.457  12.019
68655SOL    HW2 7798   0.329   6.510  11.951
68656SOL     OW 7799   5.394   1.214   6.480
68656SOL    HW1 7800   5.385   1.259   6.564
68656SOL    HW2 7801   5.305   1.216   6.443
68657SOL     OW 7802   5.981   6.861   8.362
68657SOL    HW1 7803   6.038   6.938   8.375
68657SOL    HW2 7804   5.902   6.897   8.322
68658SOL     OW 7805   2.525   0.491   9.031
68658SOL    HW1 7806   2.543   0.401   9.059
68658SOL    HW2 7807   2.430   0.495   9.022
68659SOL     OW 7808   6.876   3.607  11.048
68659SOL    HW1 7809   6.911   3.519  11.036
68659SOL    HW2 7810   6.893   3.651  10.965
68660SOL     OW 7811  10.165   0.183  13.101
68660SOL    HW1 7812  10.100   0.239  13.057
68660SOL    HW2 7813  10.245   0.235  13.101
68661SOL     OW 7814   7.286   0.426  10.199
68661SOL    HW1 7815   7.273   0.337  10.232
68661SOL    HW2 7816   7.201   0.449  10.161
68662SOL     OW 7817   3.208  10.015   2.559
68662SOL    HW1 7818   3.163   9.997   2.477
68662SOL    HW2 7819   3.150  10.074   2.606
68663SOL     OW 7820   8.064  11.798   9.964
68663SOL    HW1 7821   8.025  11.712   9.982
68663SOL    HW2 7822   8.006  11.838   9.900
68664SOL     OW 7823   5.188   4.963   0.374
68664SOL    HW1 7824   5.139   4.881   0.369
68664SOL    HW2 7825   5.145   5.013   0.443
68665SOL     OW 7826  10.186   8.106   9.392
68665SOL    HW1 7827  10.242   8.030   9.402
68665SOL    HW2 7828  10.233   8.163   9.331
68666SOL     OW 7829  11.106   6.396  10.813
68666SOL    HW1 7830  11.085   6.438  10.897
68666SOL    HW2 7831  11.049   6.440  10.750
68667SOL     OW 7832   9.878  13.280   0.056
68667SOL    HW1 7833   9.828  13.202   0.032
68667SOL    HW2 7834   9.884  13.330  14.857
68668SOL     OW 7835   0.039   9.685  12.085
68668SOL    HW1 7836   0.091   9.712  12.009
68668SOL    HW2 7837  14.853   9.752  12.092
68669SOL     OW 7838   4.042   7.505   9.488
68669SOL    HW1 7839   3.949   7.512   9.510
68669SOL    HW2 7840   4.085   7.486   9.572
68670SOL     OW 7841  12.406   7.660   2.398
68670SOL    HW1 7842  12.473   7.686   2.462
68670SOL    HW2 7843  12.329   7.713   2.422
68671SOL     OW 7844  10.124   2.910   5.788
68671SOL    HW1 7845  10.166   2.981   5.739
68671SOL    HW2 7846  10.189   2.840   5.788
68672SOL     OW 7847  12.232  11.618   2.857
68672SOL    HW1 7848  12.253  11.532   2.895
68672SOL    HW2 7849  12.289  11.679   2.904
68673SOL     OW 7850  13.865  12.084   2.603
68673SOL    HW1 7851  13.843  12.090   2.696
68673SOL    HW2 7852  13.781  12.075   2.559
68674SOL     OW 7853   6.674   9.813  13.710
68674SOL    HW1 7854   6.740   9.842  13.646
68674SOL    HW2 7855   6.715   9.738  13.754
68675SOL     OW 7856   5.391   8.051   8.016
68675SOL    HW1 7857   5.301   8.037   8.046
68675SOL    HW2 7858   5.445   8.002   8.078
68676SOL     OW 7859  14.455  12.780   9.314
68676SOL    HW1 7860  14.404  12.700   9.316
68676SOL    HW2 7861  14.521  12.766   9.246
68677SOL     OW 7862   7.548   4.637   1.207
68677SOL    HW1 7863   7.553   4.567   1.141
68677SOL    HW2 7864   7.460   4.630   1.242
68678SOL     OW 7865   7.905   9.610   7.963
68678SOL    HW1 7866   7.827   9.626   8.016
68678SOL    HW2 7867   7.871   9.599   7.874
68679SOL     OW 7868   0.868   7.211  10.923
68679SOL    HW1 7869   0.793   7.272  10.930
68679SOL    HW2 7870   0.941   7.259  10.962
68680SOL     OW 7871   2.954   2.675   4.167
68680SOL    HW1 7872   2.962   2.764   4.135
68680SOL    HW2 7873   2.931   2.623   4.091
68681SOL     OW 7874   9.010  13.347   4.116
68681SOL    HW1 7875   9.046  13.436   4.123
68681SOL    HW2 7876   9.067  13.294   4.171
68682SOL     OW 7877  12.948  14.524   7.396
68682SOL    HW1 7878  13.039  14.545   7.374
68682SOL    HW2 7879  12.948  14.510   7.491
68683SOL     OW 7880  14.582  14.248  12.463
68683SOL    HW1 7881  14.581  14.155  12.484
68683SOL    HW2 7882  14.492  14.266  12.433
68684SOL     OW 7883   6.779   7.958   1.562
68684SOL    HW1 7884   6.822   7.875   1.542
68684SOL    HW2 7885   6.710   7.965   1.495
68685SOL     OW 7886   8.058   3.927   5.447
68685SOL    HW1 7887   8.063   3.949   5.354
68685SOL    HW2 7888   7.983   3.977   5.480
68686SOL     OW 7889   0.977   0.104   2.394
68686SOL    HW1 7890   1.020   0.183   2.425
68686SOL    HW2 7891   0.899   0.096   2.448
68687SOL     OW 7892   0.268   3.902  13.798
68687SOL    HW1 7893   0.348   3.919  13.848
68687SOL    HW2 7894   0.253   3.808  13.808
68688SOL     OW 7895  12.128  13.596   5.728
68688SOL    HW1 7896  12.147  13.523   5.670
68688SOL    HW2 7897  12.214  13.628   5.755
68689SOL     OW 7898  13.888  14.635   2.280
68689SOL    HW1 7899  13.900  14.696   2.352
68689SOL    HW2 7900  13.795  14.640   2.259
68690SOL     OW 7901   5.107   0.880   6.371
68690SOL    HW1 7902   5.187   0.924   6.398
68690SOL    HW2 7903   5.069   0.939   6.305
68691SOL     OW 7904  10.605  14.201   2.917
68691SOL    HW1 7905  10.619  14.294   2.936
68691SOL    HW2 7906  10.529  14.199   2.859
68692SOL     OW 7907  12.836  13.374   4.827
68692SOL    HW1 7908  12.840  13.470   4.826
68692SOL    HW2 7909  12.743  13.353   4.823
68693SOL     OW 7910  11.424   0.090   1.201
68693SOL    HW1 7911  11.440   0.161   1.140
68693SOL    HW2 7912  11.425   0.132   1.287
68694SOL     OW 7913   6.551  14.801  11.095
68694SOL    HW1 7914   6.608  14.878  11.104
68694SOL    HW2 7915   6.515  14.807  11.007
68695SOL     OW 7916  13.504   3.296   2.497
68695SOL    HW1 7917  13.436   3.295   2.564
68695SOL    HW2 7918  13.506   3.206   2.465
68696SOL     OW 7919   5.385   2.119   1.433
68696SOL    HW1 7920   5.422   2.183   1.371
68696SOL    HW2 7921   5.435   2.133   1.514
68697SOL     OW 7922  10.131  11.859   2.410
68697SOL    HW1 7923  10.135  11.954   2.413
68697SOL    HW2 7924  10.048  11.838   2.366
68698SOL     OW 7925   4.404   0.860   0.431
68698SOL    HW1 7926   4.495   0.868   0.403
68698SOL    HW2 7927   4.383   0.945   0.470
68699SOL     OW 7928   1.608   4.883   1.619
68699SOL    HW1 7929   1.657   4.886   1.537
68699SOL    HW2 7930   1.659   4.938   1.679
68700SOL     OW 7931   0.335  11.944  12.127
68700SOL    HW1 7932   0.386  11.963  12.049
68700SOL    HW2 7933   0.254  11.905  12.095
68701SOL     OW 7934   0.746   9.725  10.020
68701SOL    HW1 7935   0.759   9.752  10.110
68701SOL    HW2 7936   0.714   9.803   9.975
68702SOL     OW 7937  12.899  14.272   3.331
68702SOL    HW1 7938  12.930  14.187   3.362
68702SOL    HW2 7939  12.865  14.315   3.409
68703SOL     OW 7940   5.895   9.234  14.270
68703SOL    HW1 7941   5.820   9.249  14.328
68703SOL    HW2 7942   5.887   9.143  14.243
68704SOL     OW 7943  14.248   3.215   6.600
68704SOL    HW1 7944  14.241   3.229   6.694
68704SOL    HW2 7945  14.175   3.157   6.579
68705SOL     OW 7946   0.928   3.235  12.689
68705SOL    HW1 7947   0.859   3.172  12.666
68705SOL    HW2 7948   0.994   3.183  12.735
68706SOL     OW 7949   3.835   3.673  13.999
68706SOL    HW1 7950   3.880   3.652  14.081
68706SOL    HW2 7951   3.768   3.737  14.024
68707SOL     OW 7952   5.528   6.930   4.216
68707SOL    HW1 7953   5.442   6.895   4.241
68707SOL    HW2 7954   5.559   6.869   4.149
68708SOL     OW 7955  14.016   5.124   5.612
68708SOL    HW1 7956  14.057   5.093   5.531
68708SOL    HW2 7957  13.981   5.210   5.590
68709SOL     OW 7958  11.029   5.853  13.946
68709SOL    HW1 7959  10.976   5.792  13.999
68709SOL    HW2 7960  11.112   5.807  13.933
68710SOL     OW 7961   6.730   1.897  13.417
68710SOL    HW1 7962   6.817   1.916  13.453
68710SOL    HW2 7963   6.674   1.884  13.493
68711SOL     OW 7964   7.289  11.220   2.567
68711SOL    HW1 7965   7.207  11.250   2.527
68711SOL    HW2 7966   7.347  11.297   2.562
68712SOL     OW 7967   6.844   5.408   5.406
68712SOL    HW1 7968   6.750   5.404   5.388
68712SOL    HW2 7969   6.877   5.474   5.345
68713SOL     OW 7970   2.012   3.740   3.021
68713SOL    HW1 7971   1.949   3.791   2.970
68713SOL    HW2 7972   2.003   3.651   2.988
68714SOL     OW 7973   7.663   2.453   5.731
68714SOL    HW1 7974   7.626   2.522   5.676
68714SOL    HW2 7975   7.594   2.433   5.794
68715SOL     OW 7976  12.733   7.393   6.001
68715SOL    HW1 7977  12.659   7.413   5.944
68715SOL    HW2 7978  12.787   7.472   6.000
68716SOL     OW 7979   5.345  13.368  12.258
68716SOL    HW1 7980   5.264  13.380  12.307
68716SOL    HW2 7981   5.337  13.281  12.219
68717SOL     OW 7982   9.413   2.152   2.992
68717SOL    HW1 7983   9.508   2.152   2.997
68717SOL    HW2 7984   9.389   2.059   2.992
68718SOL     OW 7985   6.677   1.353  12.525
68718SOL    HW1 7986   6.770   1.363  12.546
68718SOL    HW2 7987   6.676   1.331  12.432
68719SOL     OW 7988  13.803   6.967  11.205
68719SOL    HW1 7989  13.746   7.024  11.257
68719SOL    HW2 7990  13.766   6.880  11.215
68720SOL     OW 7991  12.905  13.688   2.716
68720SOL    HW1 7992  12.820  13.723   2.690
68720SOL    HW2 7993  12.951  13.763   2.754
68721SOL     OW 7994  13.424   8.594   1.040
68721SOL    HW1 7995  13.354   8.546   0.997
68721SOL    HW2 7996  13.424   8.680   0.997
68722SOL     OW 7997   3.189   9.132   7.828
68722SOL    HW1 7998   3.115   9.086   7.787
68722SOL    HW2 7999   3.246   9.062   7.859
68723SOL     OW 8000  10.641   3.846   2.232
68723SOL    HW1 8001  10.671   3.932   2.206
68723SOL    HW2 8002  10.646   3.793   2.152
68724SOL     OW 8003   2.006  12.599   3.076
68724SOL    HW1 8004   1.944  12.665   3.045
68724SOL    HW2 8005   2.074  12.596   3.008
68725SOL     OW 8006  14.009   9.922   6.721
68725SOL    HW1 8007  13.928   9.900   6.675
68725SOL    HW2 8008  14.049   9.991   6.669
68726SOL     OW 8009   3.316   0.555   8.953
68726SOL    HW1 8010   3.307   0.533   8.860
68726SOL    HW2 8011   3.306   0.650   8.955
68727SOL     OW 8012   9.321   8.052   0.827
68727SOL    HW1 8013   9.351   8.040   0.737
68727SOL    HW2 8014   9.323   7.964   0.864
68728SOL     OW 8015  12.860   6.473  13.543
68728SOL    HW1 8016  12.856   6.433  13.630
68728SOL    HW2 8017  12.911   6.411  13.490
68729SOL     OW 8018  12.508   6.653   8.379
68729SOL    HW1 8019  12.499   6.633   8.472
68729SOL    HW2 8020  12.587   6.707   8.373
68730SOL     OW 8021  12.505   0.056  13.982
68730SOL    HW1 8022  12.550   0.139  14.000
68730SOL    HW2 8023  12.565   0.008  13.924
68731SOL     OW 8024   1.003  14.686   5.528
68731SOL    HW1 8025   1.077  14.640   5.489
68731SOL    HW2 8026   0.998  14.653   5.618
68732SOL     OW 8027  13.527   1.296  10.876
68732SOL    HW1 8028  13.602   1.267  10.927
68732SOL    HW2 8029  13.481   1.216  10.852
68733SOL     OW 8030   5.595   9.322   7.231
68733SOL    HW1 8031   5.669   9.287   7.279
68733SOL    HW2 8032   5.523   9.262   7.250
68734SOL     OW 8033  13.333   5.015   6.777
68734SOL    HW1 8034  13.377   5.058   6.704
68734SOL    HW2 8035  13.372   4.928   6.781
68735SOL     OW 8036   6.096  14.080   3.358
68735SOL    HW1 8037   6.158  14.008   3.352
68735SOL    HW2 8038   6.151  14.158   3.366
68736SOL     OW 8039  11.236   3.977   5.967
68736SOL    HW1 8040  11.154   4.004   5.927
68736SOL    HW2 8041  11.211   3.940   6.051
68737SOL     OW 8042  13.895   6.846  13.777
68737SOL    HW1 8043  13.912   6.775  13.838
68737SOL    HW2 8044  13.896   6.925  13.831
68738SOL     OW 8045   7.262   0.031  10.104
68738SOL    HW1 8046   7.172   0.042  10.075
68738SOL    HW2 8047   7.261  14.831  10.154
68739SOL     OW 8048   8.248   2.697   9.170
68739SOL    HW1 8049   8.249   2.613   9.124
68739SOL    HW2 8050   8.310   2.685   9.242
68740SOL     OW 8051   4.517  12.428   2.060
68740SOL    HW1 8052   4.572  12.500   2.092
68740SOL    HW2 8053   4.429  12.451   2.090
68741SOL     OW 8054   4.741  13.440   2.929
68741SOL    HW1 8055   4.835  13.449   2.938
68741SOL    HW2 8056   4.706  13.459   3.016
68742SOL     OW 8057   6.044  14.000  12.561
68742SOL    HW1 8058   6.071  14.088  12.590
68742SOL    HW2 8059   6.126  13.956  12.539
68743SOL     OW 8060  14.531  14.035  11.282
68743SOL    HW1 8061  14.438  14.028  11.306
68743SOL    HW2 8062  14.532  14.090  11.204
68744SOL     OW 8063  12.824   1.849   1.580
68744SOL    HW1 8064  12.772   1.911   1.529
68744SOL    HW2 8065  12.760   1.800   1.630
68745SOL     OW 8066   8.019   9.326   2.152
68745SOL    HW1 8067   8.062   9.246   2.183
68745SOL    HW2 8068   7.925   9.310   2.167
68746SOL     OW 8069   8.160   2.016   2.714
68746SOL    HW1 8070   8.113   2.098   2.704
68746SOL    HW2 8071   8.096   1.956   2.753
68747SOL     OW 8072   6.356  12.084  11.581
68747SOL    HW1 8073   6.296  12.059  11.652
68747SOL    HW2 8074   6.394  12.167  11.610
68748SOL     OW 8075  12.261   2.654   7.648
68748SOL    HW1 8076  12.341   2.629   7.695
68748SOL    HW2 8077  12.223   2.724   7.702
68749SOL     OW 8078   2.405   1.967  14.581
68749SOL    HW1 8079   2.398   1.885  14.533
68749SOL    HW2 8080   2.337   2.024  14.543
68750SOL     OW 8081   1.371   0.818  11.333
68750SOL    HW1 8082   1.332   0.858  11.411
68750SOL    HW2 8083   1.439   0.878  11.306
68751SOL     OW 8084  10.709   1.655   6.059
68751SOL    HW1 8085  10.737   1.719   5.994
68751SOL    HW2 8086  10.613   1.652   6.050
68752SOL     OW 8087   2.380   7.883   8.336
68752SOL    HW1 8088   2.444   7.813   8.326
68752SOL    HW2 8089   2.306   7.855   8.283
68753SOL     OW 8090   9.833   8.058   3.892
68753SOL    HW1 8091   9.839   7.998   3.818
68753SOL    HW2 8092   9.918   8.052   3.936
68754SOL     OW 8093  11.109  10.904   6.204
68754SOL    HW1 8094  11.069  10.817   6.201
68754SOL    HW2 8095  11.038  10.963   6.177
68755SOL     OW 8096  10.523  12.246   4.560
68755SOL    HW1 8097  10.507  12.289   4.475
68755SOL    HW2 8098  10.444  12.196   4.577
68756SOL     OW 8099   3.280  12.812   6.649
68756SOL    HW1 8100   3.368  12.774   6.656
68756SOL    HW2 8101   3.235  12.755   6.586
68757SOL     OW 8102   9.052  12.526  14.002
68757SOL    HW1 8103   9.015  12.524  14.091
68757SOL    HW2 8104   9.040  12.437  13.970
68758SOL     OW 8105   0.535  13.176  14.172
68758SOL    HW1 8106   0.533  13.220  14.087
68758SOL    HW2 8107   0.626  13.184  14.200
68759SOL     OW 8108  12.408   8.257  11.810
68759SOL    HW1 8109  12.489   8.206  11.812
68759SOL    HW2 8110  12.368   8.235  11.726
68760SOL     OW 8111   4.928   0.703   7.832
68760SOL    HW1 8112   4.971   0.785   7.810
68760SOL    HW2 8113   4.894   0.670   7.748
68761SOL     OW 8114  13.100   2.506   7.599
68761SOL    HW1 8115  13.101   2.416   7.567
68761SOL    HW2 8116  13.168   2.550   7.549
68762SOL     OW 8117   3.017   1.769   1.287
68762SOL    HW1 8118   2.931   1.811   1.293
68762SOL    HW2 8119   3.017   1.724   1.203
68763SOL     OW 8120   4.179   9.749   4.658
68763SOL    HW1 8121   4.173   9.764   4.563
68763SOL    HW2 8122   4.161   9.835   4.696
68764SOL     OW 8123  10.771   9.339   2.548
68764SOL    HW1 8124  10.864   9.357   2.534
68764SOL    HW2 8125  10.762   9.245   2.536
68765SOL     OW 8126   0.433   4.403  14.535
68765SOL    HW1 8127   0.510   4.434  14.583
68765SOL    HW2 8128   0.459   4.406  14.443
68766SOL     OW 8129   9.542  13.176   0.275
68766SOL    HW1 8130   9.465  13.230   0.256
68766SOL    HW2 8131   9.609  13.238   0.305
68767SOL     OW 8132   1.721  12.134   5.593
68767SOL    HW1 8133   1.721  12.109   5.500
68767SOL    HW2 8134   1.768  12.218   5.594
68768SOL     OW 8135  14.548   4.922  14.527
68768SOL    HW1 8136  14.529   4.832  14.553
68768SOL    HW2 8137  14.639   4.936  14.552
68769SOL     OW 8138   4.359   3.073  12.278
68769SOL    HW1 8139   4.379   3.164  12.257
68769SOL    HW2 8140   4.444   3.033  12.295
68770SOL     OW 8141  13.187  14.668  11.676
68770SOL    HW1 8142  13.207  14.634  11.763
68770SOL    HW2 8143  13.158  14.591  11.626
68771SOL     OW 8144   1.514   4.763   2.439
68771SOL    HW1 8145   1.460   4.709   2.497
68771SOL    HW2 8146   1.456   4.835   2.413
68772SOL     OW 8147   0.016  10.804   6.508
68772SOL    HW1 8148  14.859  10.747   6.574
68772SOL    HW2 8149   0.032  10.746   6.433
68773SOL     OW 8150  11.336   2.846   6.487
68773SOL    HW1 8151  11.259   2.878   6.535
68773SOL    HW2 8152  11.364   2.768   6.534
68774SOL     OW 8153  11.564   9.593  12.253
68774SOL    HW1 8154  11.654   9.560  12.241
68774SOL    HW2 8155  11.513   9.515  12.275
68775SOL     OW 8156   0.593   3.577   8.030
68775SOL    HW1 8157   0.610   3.597   7.938
68775SOL    HW2 8158   0.554   3.490   8.029
68776SOL     OW 8159   0.197   4.642   8.671
68776SOL    HW1 8160   0.288   4.648   8.699
68776SOL    HW2 8161   0.147   4.648   8.753
68777SOL     OW 8162   5.796   5.873  13.313
68777SOL    HW1 8163   5.843   5.844  13.234
68777SOL    HW2 8164   5.704   5.875  13.287
68778SOL     OW 8165   0.190  12.460   0.833
68778SOL    HW1 8166   0.163  12.546   0.863
68778SOL    HW2 8167   0.136  12.443   0.756
68779SOL     OW 8168   4.591   5.045  14.478
68779SOL    HW1 8169   4.522   4.986  14.510
68779SOL    HW2 8170   4.667   5.025  14.532
68780SOL     OW 8171   2.812  10.465  13.509
68780SOL    HW1 8172   2.786  10.552  13.480
68780SOL    HW2 8173   2.842  10.421  13.430
68781SOL     OW 8174   1.460  12.262   5.144
68781SOL    HW1 8175   1.398  12.294   5.077
68781SOL    HW2 8176   1.536  12.319   5.134
68782SOL     OW 8177   1.120   9.365   4.764
68782SOL    HW1 8178   1.213   9.388   4.763
68782SOL    HW2 8179   1.104   9.337   4.854
68783SOL     OW 8180  12.233   7.846   8.365
68783SOL    HW1 8181  12.246   7.761   8.322
68783SOL    HW2 8182  12.251   7.828   8.458
68784SOL     OW 8183  11.405   2.133  11.443
68784SOL    HW1 8184  11.408   2.211  11.387
68784SOL    HW2 8185  11.381   2.167  11.529
68785SOL     OW 8186  11.082  10.421   2.976
68785SOL    HW1 8187  11.008  10.451   3.028
68785SOL    HW2 8188  11.077  10.474   2.896
68786SOL     OW 8189   4.098   4.818   5.056
68786SOL    HW1 8190   4.123   4.882   4.989
68786SOL    HW2 8191   4.070   4.872   5.131
68787SOL     OW 8192  13.381  12.460   4.470
68787SOL    HW1 8193  13.332  12.381   4.446
68787SOL    HW2 8194  13.464  12.426   4.505
68788SOL     OW 8195   9.400  13.039   4.545
68788SOL    HW1 8196   9.385  12.947   4.523
68788SOL    HW2 8197   9.335  13.087   4.495
68789SOL     OW 8198  14.446  14.330   3.600
68789SOL    HW1 8199  14.383  14.346   3.670
68789SOL    HW2 8200  14.393  14.323   3.520
68790SOL     OW 8201   2.323   8.082   5.949
68790SOL    HW1 8202   2.242   8.088   5.999
68790SOL    HW2 8203   2.297   8.093   5.858
68791SOL     OW 8204  11.019   4.088   3.076
68791SOL    HW1 8205  10.981   4.132   3.152
68791SOL    HW2 8206  11.105   4.128   3.066
68792SOL     OW 8207  13.791  11.754   4.474
68792SOL    HW1 8208  13.741  11.680   4.440
68792SOL    HW2 8209  13.812  11.807   4.397
68793SOL     OW 8210  13.693  10.422   9.585
68793SOL    HW1 8211  13.620  10.468   9.544
68793SOL    HW2 8212  13.652  10.361   9.646
68794SOL     OW 8213   3.944  13.644   0.923
68794SOL    HW1 8214   3.952  13.602   1.009
68794SOL    HW2 8215   4.025  13.622   0.878
68795SOL     OW 8216   2.595   6.493   9.640
68795SOL    HW1 8217   2.593   6.428   9.570
68795SOL    HW2 8218   2.656   6.560   9.609
68796SOL     OW 8219   5.327  12.620   5.758
68796SOL    HW1 8220   5.271  12.561   5.807
68796SOL    HW2 8221   5.305  12.603   5.666
68797SOL     OW 8222   3.410  14.614   2.882
68797SOL    HW1 8223   3.339  14.676   2.898
68797SOL    HW2 8224   3.490  14.662   2.904
68798SOL     OW 8225   9.880  12.121  10.235
68798SOL    HW1 8226   9.859  12.214  10.238
68798SOL    HW2 8227   9.806  12.081  10.189
68799SOL     OW 8228   3.642   4.159   8.342
68799SOL    HW1 8229   3.688   4.091   8.391
68799SOL    HW2 8230   3.571   4.187   8.399
68800SOL     OW 8231   9.307   7.275   6.805
68800SOL    HW1 8232   9.326   7.363   6.837
68800SOL    HW2 8233   9.212   7.273   6.795
68801SOL     OW 8234  11.482   7.158   2.180
68801SOL    HW1 8235  11.486   7.228   2.116
68801SOL    HW2 8236  11.450   7.200   2.260
68802SOL     OW 8237  12.296   1.852   4.627
68802SOL    HW1 8238  12.298   1.791   4.553
68802SOL    HW2 8239  12.379   1.839   4.672
68803SOL     OW 8240  11.671   5.151   4.897
68803SOL    HW1 8241  11.593   5.185   4.940
68803SOL    HW2 8242  11.655   5.057   4.889
68804SOL     OW 8243   6.208   3.233   3.710
68804SOL    HW1 8244   6.196   3.299   3.779
68804SOL    HW2 8245   6.198   3.282   3.628
68805SOL     OW 8246   1.365   4.696   0.126
68805SOL    HW1 8247   1.434   4.755   0.156
68805SOL    HW2 8248   1.392   4.670   0.038
68806SOL     OW 8249   6.413   8.839   0.988
68806SOL    HW1 8250   6.472   8.819   0.916
68806SOL    HW2 8251   6.464   8.822   1.067
68807SOL     OW 8252  11.807   7.787  13.735
68807SOL    HW1 8253  11.833   7.787  13.643
68807SOL    HW2 8254  11.714   7.766  13.734
68808SOL     OW 8255   4.855   8.336   2.333
68808SOL    HW1 8256   4.799   8.401   2.292
68808SOL    HW2 8257   4.944   8.370   2.323
68809SOL     OW 8258   2.810   7.534   7.689
68809SOL    HW1 8259   2.842   7.585   7.614
68809SOL    HW2 8260   2.717   7.520   7.671
68810SOL     OW 8261   3.524   5.599  14.715
68810SOL    HW1 8262   3.604   5.622  14.760
68810SOL    HW2 8263   3.501   5.512  14.749
68811SOL     OW 8264   0.553   3.746   1.426
68811SOL    HW1 8265   0.495   3.808   1.470
68811SOL    HW2 8266   0.554   3.669   1.483
68812SOL     OW 8267  13.597   5.584  10.328
68812SOL    HW1 8268  13.557   5.576  10.414
68812SOL    HW2 8269  13.682   5.540  10.337
68813SOL     OW 8270  14.324   0.581   0.152
68813SOL    HW1 8271  14.325   0.665   0.105
68813SOL    HW2 8272  14.251   0.532   0.114
68814SOL     OW 8273  12.359   3.249  11.396
68814SOL    HW1 8274  12.403   3.180  11.346
68814SOL    HW2 8275  12.427   3.284  11.454
68815SOL     OW 8276   4.433   7.644   8.572
68815SOL    HW1 8277   4.484   7.595   8.508
68815SOL    HW2 8278   4.411   7.726   8.529
68816SOL     OW 8279  14.771  13.880   2.534
68816SOL    HW1 8280  14.754  13.913   2.446
68816SOL    HW2 8281  14.727  13.942   2.592
68817SOL     OW 8282   9.611   1.768  13.018
68817SOL    HW1 8283   9.516   1.771  13.030
68817SOL    HW2 8284   9.630   1.675  13.002
68818SOL     OW 8285   4.877  14.499   2.194
68818SOL    HW1 8286   4.921  14.470   2.114
68818SOL    HW2 8287   4.784  14.487   2.176
68819SOL     OW 8288  11.581   3.429   1.326
68819SOL    HW1 8289  11.555   3.350   1.278
68819SOL    HW2 8290  11.666   3.406   1.364
68820SOL     OW 8291  10.000  14.472   3.203
68820SOL    HW1 8292   9.918  14.501   3.163
68820SOL    HW2 8293  10.010  14.381   3.175
68821SOL     OW 8294  13.490   2.165  12.750
68821SOL    HW1 8295  13.420   2.222  12.720
68821SOL    HW2 8296  13.516   2.116  12.671
68822SOL     OW 8297   5.765  10.375   0.035
68822SOL    HW1 8298   5.699  10.395  14.851
68822SOL    HW2 8299   5.786  10.283   0.020
68823SOL     OW 8300   3.383  11.404   3.415
68823SOL    HW1 8301   3.430  11.357   3.483
68823SOL    HW2 8302   3.348  11.482   3.459
68824SOL     OW 8303  12.451   8.430  11.557
68824SOL    HW1 8304  12.461   8.456  11.465
68824SOL    HW2 8305  12.358   8.441  11.575
68825SOL     OW 8306   2.164   5.575   9.164
68825SOL    HW1 8307   2.080   5.608   9.133
68825SOL    HW2 8308   2.182   5.498   9.109
68826SOL     OW 8309   3.208   9.257   0.936
68826SOL    HW1 8310   3.266   9.183   0.917
68826SOL    HW2 8311   3.263   9.334   0.924
68827SOL     OW 8312   5.898   9.659   9.396
68827SOL    HW1 8313   5.809   9.694   9.397
68827SOL    HW2 8314   5.898   9.590   9.463
68828SOL     OW 8315  12.945   0.239   4.708
68828SOL    HW1 8316  12.978   0.326   4.683
68828SOL    HW2 8317  12.988   0.221   4.792
68829SOL     OW 8318   2.997   1.098   9.582
68829SOL    HW1 8319   2.940   1.151   9.527
68829SOL    HW2 8320   2.950   1.016   9.595
68830SOL     OW 8321  10.273   4.935   1.110
68830SOL    HW1 8322  10.296   4.913   1.201
68830SOL    HW2 8323  10.357   4.949   1.067
68831SOL     OW 8324   9.038  13.686  12.831
68831SOL    HW1 8325   9.036  13.592  12.813
68831SOL    HW2 8326   9.128  13.712  12.811
68832SOL     OW 8327   6.052   8.158  11.432
68832SOL    HW1 8328   5.973   8.146  11.484
68832SOL    HW2 8329   6.123   8.124  11.487
68833SOL     OW 8330  13.432   8.369   0.074
68833SOL    HW1 8331  13.473   8.453   0.053
68833SOL    HW2 8332  13.434   8.320  14.874
68834SOL     OW 8333  12.011   1.205   8.124
68834SOL    HW1 8334  12.012   1.292   8.082
68834SOL    HW2 8335  12.062   1.217   8.204
68835SOL     OW 8336   0.501  10.068   2.679
68835SOL    HW1 8337   0.591  10.094   2.694
68835SOL    HW2 8338   0.456  10.089   2.761
68836SOL     OW 8339   5.050   1.886  11.751
68836SOL    HW1 8340   4.990   1.925  11.814
68836SOL    HW2 8341   5.043   1.941  11.673
68837SOL     OW 8342   1.379  13.241  10.677
68837SOL    HW1 8343   1.338  13.287  10.750
68837SOL    HW2 8344   1.323  13.165  10.662
68838SOL     OW 8345  10.008   3.357  10.768
68838SOL    HW1 8346  10.103   3.370  10.762
68838SOL    HW2 8347   9.992   3.279  10.715
68839SOL     OW 8348   2.441   4.729   7.474
68839SOL    HW1 8349   2.442   4.793   7.403
68839SOL    HW2 8350   2.531   4.727   7.506
68840SOL     OW 8351  11.705  11.519   6.647
68840SOL    HW1 8352  11.631  11.485   6.596
68840SOL    HW2 8353  11.669  11.593   6.695
68841SOL     OW 8354   7.454   6.994   9.865
68841SOL    HW1 8355   7.466   7.024   9.775
68841SOL    HW2 8356   7.491   6.906   9.866
68842SOL     OW 8357  14.173  11.038   1.877
68842SOL    HW1 8358  14.220  11.086   1.809
68842SOL    HW2 8359  14.101  11.097   1.902
68843SOL     OW 8360  14.207   3.919  10.850
68843SOL    HW1 8361  14.182   3.936  10.940
68843SOL    HW2 8362  14.177   3.830  10.832
68844SOL     OW 8363   8.940  13.099  10.962
68844SOL    HW1 8364   9.032  13.097  10.936
68844SOL    HW2 8365   8.934  13.035  11.033
68845SOL     OW 8366   2.481   8.252   0.151
68845SOL    HW1 8367   2.494   8.298   0.068
68845SOL    HW2 8368   2.469   8.322   0.216
68846SOL     OW 8369  12.422   5.576   4.722
68846SOL    HW1 8370  12.374   5.625   4.789
68846SOL    HW2 8371  12.510   5.612   4.724
68847SOL     OW 8372   7.356   1.586   1.260
68847SOL    HW1 8373   7.336   1.619   1.347
68847SOL    HW2 8374   7.317   1.650   1.200
68848SOL     OW 8375  13.653   5.899   4.177
68848SOL    HW1 8376  13.731   5.843   4.179
68848SOL    HW2 8377  13.622   5.900   4.268
68849SOL     OW 8378   0.943   0.606  11.771
68849SOL    HW1 8379   0.912   0.526  11.812
68849SOL    HW2 8380   0.945   0.586  11.677
68850SOL     OW 8381  12.015   0.958   5.411
68850SOL    HW1 8382  12.073   0.957   5.335
68850SOL    HW2 8383  12.023   1.046   5.447
68851SOL     OW 8384   7.594   3.047   6.622
68851SOL    HW1 8385   7.674   3.022   6.667
68851SOL    HW2 8386   7.622   3.069   6.533
68852SOL     OW 8387  11.157  12.553   6.637
68852SOL    HW1 8388  11.085  12.554   6.700
68852SOL    HW2 8389  11.156  12.465   6.600
68853SOL     OW 8390  11.407  13.010   1.545
68853SOL    HW1 8391  11.488  13.060   1.538
68853SOL    HW2 8392  11.347  13.053   1.484
68854SOL     OW 8393   3.759  14.084   2.387
68854SOL    HW1 8394   3.758  14.013   2.323
68854SOL    HW2 8395   3.809  14.049   2.461
68855SOL     OW 8396   6.220   4.129  10.440
68855SOL    HW1 8397   6.252   4.085  10.362
68855SOL    HW2 8398   6.149   4.184  10.409
68856SOL     OW 8399  10.054   7.919   6.435
68856SOL    HW1 8400  10.013   7.966   6.363
68856SOL    HW2 8401  10.128   7.974   6.461
68857SOL     OW 8402   7.744   3.712  13.039
68857SOL    HW1 8403   7.740   3.662  13.120
68857SOL    HW2 8404   7.779   3.650  12.975
68858SOL     OW 8405  13.608   4.653   5.923
68858SOL    HW1 8406  13.652   4.675   5.841
68858SOL    HW2 8407  13.530   4.709   5.924
68859SOL     OW 8408   9.207   6.387   4.981
68859SOL    HW1 8409   9.122   6.409   4.942
68859SOL    HW2 8410   9.267   6.383   4.906
68860SOL     OW 8411  13.280  12.050   1.761
68860SOL    HW1 8412  13.355  12.055   1.701
68860SOL    HW2 8413  13.232  11.973   1.732
68861SOL     OW 8414   4.936   0.773   1.586
68861SOL    HW1 8415   5.010   0.712   1.584
68861SOL    HW2 8416   4.942   0.814   1.672
68862SOL     OW 8417   6.287   3.672   8.912
68862SOL    HW1 8418   6.375   3.707   8.907
68862SOL    HW2 8419   6.246   3.698   8.829
68863SOL     OW 8420  12.810   4.887   8.663
68863SOL    HW1 8421  12.802   4.919   8.573
68863SOL    HW2 8422  12.898   4.849   8.667
68864SOL     OW 8423  13.375   0.736  13.934
68864SOL    HW1 8424  13.380   0.707  13.843
68864SOL    HW2 8425  13.453   0.791  13.946
68865SOL     OW 8426   2.001  13.012   3.469
68865SOL    HW1 8427   2.088  12.975   3.484
68865SOL    HW2 8428   2.000  13.093   3.521
68866SOL     OW 8429  11.941   4.125   4.762
68866SOL    HW1 8430  11.922   4.094   4.673
68866SOL    HW2 8431  11.960   4.045   4.811
68867SOL     OW 8432  10.396   3.890   4.795
68867SOL    HW1 8433  10.304   3.901   4.820
68867SOL    HW2 8434  10.393   3.877   4.700
68868SOL     OW 8435  14.593   8.915  12.310
68868SOL    HW1 8436  14.678   8.933  12.351
68868SOL    HW2 8437  14.556   9.002  12.293
68869SOL     OW 8438   7.862  10.451   9.286
68869SOL    HW1 8439   7.807  10.493   9.353
68869SOL    HW2 8440   7.942  10.428   9.333
68870SOL     OW 8441   3.867  14.659   3.945
68870SOL    HW1 8442   3.820  14.684   3.866
68870SOL    HW2 8443   3.836  14.570   3.965
68871SOL     OW 8444  14.044   7.436   4.308
68871SOL    HW1 8445  14.125   7.462   4.352
68871SOL    HW2 8446  13.981   7.504   4.333
68872SOL     OW 8447   5.492  10.092   1.725
68872SOL    HW1 8448   5.556  10.164   1.725
68872SOL    HW2 8449   5.544  10.015   1.748
68873SOL     OW 8450   5.286   3.716   9.114
68873SOL    HW1 8451   5.372   3.700   9.074
68873SOL    HW2 8452   5.227   3.658   9.068
68874SOL     OW 8453  14.607   3.555  10.023
68874SOL    HW1 8454  14.658   3.603   9.958
68874SOL    HW2 8455  14.518   3.587  10.012
68875SOL     OW 8456   0.582  14.590   2.263
68875SOL    HW1 8457   0.595  14.683   2.281
68875SOL    HW2 8458   0.663  14.548   2.293
68876SOL     OW 8459  13.383   8.179   3.139
68876SOL    HW1 8460  13.416   8.123   3.209
68876SOL    HW2 8461  13.376   8.266   3.179
68877SOL     OW 8462  13.976   6.610   7.246
68877SOL    HW1 8463  13.973   6.544   7.315
68877SOL    HW2 8464  13.974   6.694   7.293
68878SOL     OW 8465   5.380  10.643   5.091
68878SOL    HW1 8466   5.344  10.555   5.098
68878SOL    HW2 8467   5.458  10.641   5.146
68879SOL     OW 8468  13.961   3.702  13.251
68879SOL    HW1 8469  13.875   3.740  13.270
68879SOL    HW2 8470  13.962   3.620  13.300
68880SOL     OW 8471  12.553  13.474  11.138
68880SOL    HW1 8472  12.517  13.554  11.100
68880SOL    HW2 8473  12.564  13.494  11.231
68881SOL     OW 8474  11.167  14.391  14.454
68881SOL    HW1 8475  11.154  14.357  14.366
68881SOL    HW2 8476  11.190  14.483  14.441
68882SOL     OW 8477  14.398   5.753   9.874
68882SOL    HW1 8478  14.448   5.696   9.933
68882SOL    HW2 8479  14.317   5.706   9.858
68883SOL     OW 8480   7.212   1.479  14.075
68883SOL    HW1 8481   7.223   1.416  14.004
68883SOL    HW2 8482   7.117   1.489  14.084
68884SOL     OW 8483   2.506   0.109   3.505
68884SOL    HW1 8484   2.552   0.026   3.511
68884SOL    HW2 8485   2.529   0.144   3.419
68885SOL     OW 8486  11.362   3.577  13.731
68885SOL    HW1 8487  11.328   3.554  13.644
68885SOL    HW2 8488  11.319   3.515  13.791
68886SOL     OW 8489   7.417  11.991  10.285
68886SOL    HW1 8490   7.438  12.000  10.192
68886SOL    HW2 8491   7.328  12.025  10.293
68887SOL     OW 8492  14.280   3.471   2.678
68887SOL    HW1 8493  14.322   3.550   2.644
68887SOL    HW2 8494  14.223   3.441   2.607
68888SOL     OW 8495   4.807   2.826   6.861
68888SOL    HW1 8496   4.847   2.872   6.934
68888SOL    HW2 8497   4.856   2.856   6.784
68889SOL     OW 8498  12.059  12.101  11.374
68889SOL    HW1 8499  12.074  12.006  11.373
68889SOL    HW2 8500  12.052  12.123  11.466
68890SOL     OW 8501  12.497  14.456  12.046
68890SOL    HW1 8502  12.448  14.412  12.115
68890SOL    HW2 8503  12.556  14.389  12.011
68891SOL     OW 8504  12.756  10.503  12.867
68891SOL    HW1 8505  12.842  10.519  12.906
68891SOL    HW2 8506  12.752  10.563  12.793
68892SOL     OW 8507  14.578   8.495  10.177
68892SOL    HW1 8508  14.638   8.555  10.221
68892SOL    HW2 8509  14.500   8.493  10.233
68893SOL     OW 8510  10.195  11.002   6.227
68893SOL    HW1 8511  10.155  10.921   6.260
68893SOL    HW2 8512  10.174  11.004   6.134
68894SOL     OW 8513   8.827  12.202   1.492
68894SOL    HW1 8514   8.901  12.249   1.530
68894SOL    HW2 8515   8.752  12.228   1.545
68895SOL     OW 8516  12.208   2.900  14.297
68895SOL    HW1 8517  12.297   2.934  14.294
68895SOL    HW2 8518  12.219   2.807  14.320
68896SOL     OW 8519  12.028   0.729   8.795
68896SOL    HW1 8520  11.940   0.709   8.763
68896SOL    HW2 8521  12.041   0.668   8.868
68897SOL     OW 8522   7.133   0.842   4.082
68897SOL    HW1 8523   7.197   0.783   4.041
68897SOL    HW2 8524   7.128   0.813   4.173
68898SOL     OW 8525   8.233   0.436  12.725
68898SOL    HW1 8526   8.293   0.509  12.737
68898SOL    HW2 8527   8.282   0.372  12.674
68899SOL     OW 8528   3.005   7.265   2.123
68899SOL    HW1 8529   3.079   7.215   2.088
68899SOL    HW2 8530   3.027   7.356   2.104
68900SOL     OW 8531  10.272   5.711   7.128
68900SOL    HW1 8532  10.331   5.777   7.162
68900SOL    HW2 8533  10.239   5.748   7.046
68901SOL     OW 8534   9.461  13.019  11.208
68901SOL    HW1 8535   9.456  12.995  11.116
68901SOL    HW2 8536   9.548  13.058  11.219
68902SOL     OW 8537  12.135  10.640   0.060
68902SOL    HW1 8538  12.223  10.646   0.098
68902SOL    HW2 8539  12.086  10.587   0.121
68903SOL     OW 8540  11.935   8.863   4.070
68903SOL    HW1 8541  11.987   8.889   3.994
68903SOL    HW2 8542  11.846   8.892   4.049
68904SOL     OW 8543   0.457   3.269  13.996
68904SOL    HW1 8544   0.489   3.346  13.950
68904SOL    HW2 8545   0.377   3.298  14.041
68905SOL     OW 8546   5.983   6.411   2.501
68905SOL    HW1 8547   6.011   6.357   2.574
68905SOL    HW2 8548   5.914   6.360   2.459
68906SOL     OW 8549   0.952   4.879  12.289
68906SOL    HW1 8550   0.926   4.792  12.258
68906SOL    HW2 8551   1.043   4.869  12.317
68907SOL     OW 8552   0.425   5.342   2.802
68907SOL    HW1 8553   0.390   5.272   2.748
68907SOL    HW2 8554   0.354   5.365   2.862
68908SOL     OW 8555   7.773   1.672   0.632
68908SOL    HW1 8556   7.821   1.755   0.638
68908SOL    HW2 8557   7.769   1.653   0.538
68909SOL     OW 8558   6.412   2.755   0.179
68909SOL    HW1 8559   6.444   2.840   0.152
68909SOL    HW2 8560   6.385   2.711   0.098
68910SOL     OW 8561   9.920  10.029   7.543
68910SOL    HW1 8562   9.832  10.064   7.534
68910SOL    HW2 8563   9.908   9.941   7.579
68911SOL     OW 8564   4.275   7.728   8.251
68911SOL    HW1 8565   4.307   7.797   8.309
68911SOL    HW2 8566   4.282   7.648   8.302
68912SOL     OW 8567   3.883   1.765  12.322
68912SOL    HW1 8568   3.837   1.732  12.245
68912SOL    HW2 8569   3.965   1.715  12.325
68913SOL     OW 8570   3.989  10.266   3.383
68913SOL    HW1 8571   3.933  10.287   3.458
68913SOL    HW2 8572   4.078  10.273   3.417
68914SOL     OW 8573   1.202   5.449   3.505
68914SOL    HW1 8574   1.167   5.441   3.416
68914SOL    HW2 8575   1.169   5.534   3.536
68915SOL     OW 8576  13.253   2.684  10.069
68915SOL    HW1 8577  13.316   2.703  10.138
68915SOL    HW2 8578  13.298   2.709   9.988
68916SOL     OW 8579  13.325  13.288   2.041
68916SOL    HW1 8580  13.277  13.278   1.959
68916SOL    HW2 8581  13.397  13.225   2.035
68917SOL     OW 8582   4.630   9.403   2.362
68917SOL    HW1 8583   4.535   9.415   2.369
68917SOL    HW2 8584   4.654   9.355   2.441
68918SOL     OW 8585  10.454   8.589   0.555
68918SOL    HW1 8586  10.447   8.677   0.519
68918SOL    HW2 8587  10.500   8.539   0.488
68919SOL     OW 8588   4.943  10.189   2.018
68919SOL    HW1 8589   5.033  10.168   1.991
68919SOL    HW2 8590   4.928  10.277   1.984
68920SOL     OW 8591   8.669   0.369   1.151
68920SOL    HW1 8592   8.676   0.274   1.167
68920SOL    HW2 8593   8.757   0.395   1.125
68921SOL     OW 8594  11.333   7.426   3.425
68921SOL    HW1 8595  11.288   7.463   3.348
68921SOL    HW2 8596  11.417   7.395   3.391
68922SOL     OW 8597  11.585   2.799  14.782
68922SOL    HW1 8598  11.525   2.742  14.830
68922SOL    HW2 8599  11.528   2.855  14.730
68923SOL     OW 8600   0.363  13.665   1.859
68923SOL    HW1 8601   0.369  13.613   1.939
68923SOL    HW2 8602   0.370  13.756   1.888
68924SOL     OW 8603   4.998   7.392  13.817
68924SOL    HW1 8604   5.003   7.355  13.729
68924SOL    HW2 8605   5.013   7.318  13.876
68925SOL     OW 8606  12.725  12.201   0.139
68925SOL    HW1 8607  12.722  12.288   0.099
68925SOL    HW2 8608  12.634  12.170   0.134
68926SOL     OW 8609  12.308   3.322  12.567
68926SOL    HW1 8610  12.402   3.305  12.562
68926SOL    HW2 8611  12.292   3.338  12.660
68927SOL     OW 8612  10.791  11.643  10.864
68927SOL    HW1 8613  10.739  11.568  10.890
68927SOL    HW2 8614  10.873  11.606  10.830
68928SOL     OW 8615   9.114   0.312  10.584
68928SOL    HW1 8616   9.128   0.220  10.607
68928SOL    HW2 8617   9.036   0.338  10.635
68929SOL     OW 8618   1.027  12.608   0.339
68929SOL    HW1 8619   0.932  12.623   0.338
68929SOL    HW2 8620   1.043  12.557   0.260
68930SOL     OW 8621  12.229   9.430   9.846
68930SOL    HW1 8622  12.166   9.367   9.880
68930SOL    HW2 8623  12.307   9.418   9.900
68931SOL     OW 8624   0.037   5.016   7.460
68931SOL    HW1 8625   0.018   4.971   7.542
68931SOL    HW2 8626   0.131   5.005   7.448
68932SOL     OW 8627   7.737   8.582  14.556
68932SOL    HW1 8628   7.821   8.548  14.525
68932SOL    HW2 8629   7.702   8.632  14.482
68933SOL     OW 8630   6.277   8.713   6.844
68933SOL    HW1 8631   6.238   8.641   6.794
68933SOL    HW2 8632   6.234   8.791   6.810
68934SOL     OW 8633   9.651  12.305  12.144
68934SOL    HW1 8634   9.586  12.290  12.075
68934SOL    HW2 8635   9.628  12.390  12.181
68935SOL     OW 8636  14.147   0.611   7.915
68935SOL    HW1 8637  14.236   0.631   7.887
68935SOL    HW2 8638  14.158   0.545   7.984
68936SOL     OW 8639   9.081  13.148   5.449
68936SOL    HW1 8640   9.087  13.094   5.370
68936SOL    HW2 8641   9.169  13.145   5.487
68937SOL     OW 8642   7.979   1.513   9.893
68937SOL    HW1 8643   7.960   1.513   9.987
68937SOL    HW2 8644   8.033   1.591   9.879
68938SOL     OW 8645   6.022   8.244   0.880
68938SOL    HW1 8646   6.014   8.151   0.901
68938SOL    HW2 8647   6.054   8.246   0.790
68939SOL     OW 8648   5.875   5.642   0.079
68939SOL    HW1 8649   5.811   5.641   0.008
68939SOL    HW2 8650   5.826   5.669   0.156
68940SOL     OW 8651   3.763   5.215  11.865
68940SOL    HW1 8652   3.767   5.242  11.774
68940SOL    HW2 8653   3.789   5.292  11.915
68941SOL     OW 8654  10.381   4.356  13.223
68941SOL    HW1 8655  10.431   4.277  13.201
68941SOL    HW2 8656  10.299   4.346  13.175
68942SOL     OW 8657   9.125   9.173  11.914
68942SOL    HW1 8658   9.186   9.200  11.982
68942SOL    HW2 8659   9.160   9.089  11.883
68943SOL     OW 8660  14.209  11.614   2.266
68943SOL    HW1 8661  14.245  11.592   2.180
68943SOL    HW2 8662  14.139  11.550   2.279
68944SOL     OW 8663   0.812   6.266   2.025
68944SOL    HW1 8664   0.861   6.184   2.017
68944SOL    HW2 8665   0.870   6.324   2.074
68945SOL     OW 8666   3.402   3.344   9.133
68945SOL    HW1 8667   3.459   3.373   9.062
68945SOL    HW2 8668   3.398   3.249   9.123
68946SOL     OW 8669   7.341   7.721   3.865
68946SOL    HW1 8670   7.336   7.629   3.891
68946SOL    HW2 8671   7.306   7.770   3.940
68947SOL     OW 8672   1.967   2.351  12.739
68947SOL    HW1 8673   2.001   2.261  12.736
68947SOL    HW2 8674   1.901   2.354  12.670
68948SOL     OW 8675  13.199  11.824   9.794
68948SOL    HW1 8676  13.193  11.766   9.717
68948SOL    HW2 8677  13.108  11.835   9.823
68949SOL     OW 8678   6.659   5.034  10.139
68949SOL    HW1 8679   6.652   5.078  10.224
68949SOL    HW2 8680   6.614   5.092  10.078
68950SOL     OW 8681   7.414   9.201  10.674
68950SOL    HW1 8682   7.447   9.161  10.593
68950SOL    HW2 8683   7.483   9.262  10.700
68951SOL     OW 8684   2.292   4.898   7.064
68951SOL    HW1 8685   2.302   4.885   6.970
68951SOL    HW2 8686   2.291   4.809   7.100
68952SOL     OW 8687   0.917  13.224   8.879
68952SOL    HW1 8688   0.850  13.205   8.813
68952SOL    HW2 8689   0.890  13.173   8.956
68953SOL     OW 8690   8.020   1.155   4.452
68953SOL    HW1 8691   7.958   1.208   4.502
68953SOL    HW2 8692   8.065   1.217   4.395
68954SOL     OW 8693   6.368   6.068   8.685
68954SOL    HW1 8694   6.374   6.145   8.627
68954SOL    HW2 8695   6.330   6.000   8.630
68955SOL     OW 8696   1.268   8.459  12.510
68955SOL    HW1 8697   1.292   8.503  12.592
68955SOL    HW2 8698   1.187   8.502  12.482
68956SOL     OW 8699   2.025   0.941   7.187
68956SOL    HW1 8700   2.052   0.921   7.097
68956SOL    HW2 8701   2.072   1.021   7.209
68957SOL     OW 8702   0.131   8.907   1.901
68957SOL    HW1 8703   0.118   8.954   1.983
68957SOL    HW2 8704   0.217   8.866   1.911
68958SOL     OW 8705   9.474  14.128   3.095
68958SOL    HW1 8706   9.431  14.118   3.010
68958SOL    HW2 8707   9.447  14.214   3.126
68959SOL     OW 8708   6.153   8.970  13.916
68959SOL    HW1 8709   6.243   8.960  13.946
68959SOL    HW2 8710   6.120   8.880  13.910
68960SOL     OW 8711   5.251   3.648  13.875
68960SOL    HW1 8712   5.202   3.568  13.857
68960SOL    HW2 8713   5.295   3.631  13.958
68961SOL     OW 8714   7.672   4.575   0.717
68961SOL    HW1 8715   7.745   4.525   0.754
68961SOL    HW2 8716   7.594   4.542   0.763
68962SOL     OW 8717   5.889   5.433  13.899
68962SOL    HW1 8718   5.949   5.459  13.968
68962SOL    HW2 8719   5.945   5.417  13.823
68963SOL     OW 8720   3.788   4.639   6.989
68963SOL    HW1 8721   3.816   4.692   6.914
68963SOL    HW2 8722   3.702   4.605   6.963
68964SOL     OW 8723   7.416  11.230   4.372
68964SOL    HW1 8724   7.435  11.268   4.287
68964SOL    HW2 8725   7.332  11.270   4.398
68965SOL     OW 8726   9.215  13.025  12.080
68965SOL    HW1 8727   9.258  12.946  12.113
68965SOL    HW2 8728   9.211  13.083  12.155
68966SOL     OW 8729   2.102   2.738   2.805
68966SOL    HW1 8730   2.129   2.672   2.870
68966SOL    HW2 8731   2.036   2.790   2.851
68967SOL     OW 8732   1.179   3.326  10.645
68967SOL    HW1 8733   1.222   3.382  10.580
68967SOL    HW2 8734   1.098   3.373  10.666
68968SOL     OW 8735   5.189  13.403   3.176
68968SOL    HW1 8736   5.121  13.355   3.222
68968SOL    HW2 8737   5.235  13.336   3.125
68969SOL     OW 8738   3.259  10.647   0.496
68969SOL    HW1 8739   3.346  10.683   0.476
68969SOL    HW2 8740   3.199  10.700   0.444
68970SOL     OW 8741   6.423   5.823   8.338
68970SOL    HW1 8742   6.424   5.731   8.365
68970SOL    HW2 8743   6.390   5.869   8.415
68971SOL     OW 8744  14.771  14.434   8.395
68971SOL    HW1 8745  14.716  14.452   8.319
68971SOL    HW2 8746  14.713  14.388   8.457
68972SOL     OW 8747  12.725   7.876   6.687
68972SOL    HW1 8748  12.662   7.822   6.735
68972SOL    HW2 8749  12.711   7.965   6.719
68973SOL     OW 8750  12.598   9.741  11.718
68973SOL    HW1 8751  12.566   9.695  11.796
68973SOL    HW2 8752  12.524   9.794  11.690
68974SOL     OW 8753  13.588   0.881  13.759
68974SOL    HW1 8754  13.542   0.959  13.728
68974SOL    HW2 8755  13.679   0.909  13.768
68975SOL     OW 8756  14.606   6.566   7.505
68975SOL    HW1 8757  14.691   6.522   7.500
68975SOL    HW2 8758  14.542   6.497   7.484
68976SOL     OW 8759   3.119   5.627  10.891
68976SOL    HW1 8760   3.214   5.632  10.904
68976SOL    HW2 8761   3.104   5.678  10.811
68977SOL     OW 8762  13.367   5.488   9.464
68977SOL    HW1 8763  13.414   5.426   9.408
68977SOL    HW2 8764  13.434   5.519   9.526
68978SOL     OW 8765  13.128  10.387   0.118
68978SOL    HW1 8766  13.112  10.359   0.028
68978SOL    HW2 8767  13.217  10.420   0.118
68979SOL     OW 8768   8.377   6.032  12.801
68979SOL    HW1 8769   8.364   5.937  12.808
68979SOL    HW2 8770   8.462   6.040  12.757
68980SOL     OW 8771   6.473  10.327  12.467
68980SOL    HW1 8772   6.409  10.352  12.400
68980SOL    HW2 8773   6.527  10.404  12.479
68981SOL     OW 8774   9.752   2.439   7.662
68981SOL    HW1 8775   9.844   2.467   7.661
68981SOL    HW2 8776   9.756   2.345   7.641
68982SOL     OW 8777   0.710  11.327  11.430
68982SOL    HW1 8778   0.655  11.404  11.415
68982SOL    HW2 8779   0.708  11.280  11.347
68983SOL     OW 8780   0.943  14.155   4.897
68983SOL    HW1 8781   0.895  14.190   4.821
68983SOL    HW2 8782   1.026  14.123   4.860
68984SOL     OW 8783   5.707   5.380  11.664
68984SOL    HW1 8784   5.672   5.344  11.582
68984SOL    HW2 8785   5.642   5.445  11.691
68985SOL     OW 8786  14.670   4.575  11.149
68985SOL    HW1 8787  14.593   4.527  11.181
68985SOL    HW2 8788  14.674   4.653  11.204
68986SOL     OW 8789  14.528   8.520   0.340
68986SOL    HW1 8790  14.609   8.478   0.311
68986SOL    HW2 8791  14.467   8.509   0.268
68987SOL     OW 8792   8.176   7.423   4.065
68987SOL    HW1 8793   8.200   7.458   4.151
68987SOL    HW2 8794   8.204   7.491   4.003
68988SOL     OW 8795   6.068   6.086   2.693
68988SOL    HW1 8796   5.988   6.080   2.747
68988SOL    HW2 8797   6.139   6.078   2.756
68989SOL     OW 8798  12.213  14.205  13.356
68989SOL    HW1 8799  12.290  14.193  13.300
68989SOL    HW2 8800  12.223  14.293  13.391
68990SOL     OW 8801  14.377   4.613   9.807
68990SOL    HW1 8802  14.283   4.621   9.786
68990SOL    HW2 8803  14.388   4.522   9.832
68991SOL     OW 8804  10.715   9.337   1.177
68991SOL    HW1 8805  10.804   9.316   1.205
68991SOL    HW2 8806  10.663   9.336   1.257
68992SOL     OW 8807   3.177   3.146   5.340
68992SOL    HW1 8808   3.228   3.226   5.351
68992SOL    HW2 8809   3.090   3.168   5.373
68993SOL     OW 8810   1.215   6.970  13.337
68993SOL    HW1 8811   1.299   6.963  13.292
68993SOL    HW2 8812   1.210   7.061  13.365
68994SOL     OW 8813   1.801   6.332   9.389
68994SOL    HW1 8814   1.751   6.301   9.314
68994SOL    HW2 8815   1.868   6.266   9.402
68995SOL     OW 8816   1.974  14.491  10.260
68995SOL    HW1 8817   1.988  14.401  10.289
68995SOL    HW2 8818   1.987  14.544  10.338
68996SOL     OW 8819  10.945   6.813   8.194
68996SOL    HW1 8820  11.018   6.755   8.218
68996SOL    HW2 8821  10.977   6.861   8.117
68997SOL     OW 8822  10.386  13.758   8.135
68997SOL    HW1 8823  10.428  13.674   8.117
68997SOL    HW2 8824  10.306  13.757   8.083
68998SOL     OW 8825   7.685  10.372   3.708
68998SOL    HW1 8826   7.753  10.319   3.748
68998SOL    HW2 8827   7.603  10.332   3.737
68999SOL     OW 8828   2.187   2.486  14.217
68999SOL    HW1 8829   2.218   2.539  14.290
68999SOL    HW2 8830   2.095   2.469  14.237
69000SOL     OW 8831   5.453  12.670  10.432
69000SOL    HW1 8832   5.481  12.651  10.522
69000SOL    HW2 8833   5.444  12.584  10.391
69001SOL     OW 8834   9.480   5.608   9.519
69001SOL    HW1 8835   9.457   5.693   9.481
69001SOL    HW2 8836   9.573   5.595   9.496
69002SOL     OW 8837   7.230   0.541   1.184
69002SOL    HW1 8838   7.264   0.608   1.244
69002SOL    HW2 8839   7.309   0.499   1.149
69003SOL     OW 8840  13.076   4.955   5.546
69003SOL    HW1 8841  13.148   4.985   5.602
69003SOL    HW2 8842  13.061   5.027   5.485
69004SOL     OW 8843   4.861   2.811   1.141
69004SOL    HW1 8844   4.831   2.738   1.196
69004SOL    HW2 8845   4.871   2.884   1.202
69005SOL     OW 8846   2.782   6.376   5.424
69005SOL    HW1 8847   2.714   6.402   5.362
69005SOL    HW2 8848   2.778   6.281   5.427
69006SOL     OW 8849  12.817  10.509   8.204
69006SOL    HW1 8850  12.804  10.562   8.126
69006SOL    HW2 8851  12.853  10.426   8.172
69007SOL     OW 8852  12.963   7.073   0.979
69007SOL    HW1 8853  12.955   7.165   0.954
69007SOL    HW2 8854  13.057   7.058   0.986
69008SOL     OW 8855   5.635   8.313  11.496
69008SOL    HW1 8856   5.604   8.381  11.555
69008SOL    HW2 8857   5.592   8.332  11.412
69009SOL     OW 8858   6.718   1.494   2.620
69009SOL    HW1 8859   6.728   1.399   2.613
69009SOL    HW2 8860   6.709   1.524   2.530
69010SOL     OW 8861  10.024  12.482   5.804
69010SOL    HW1 8862   9.985  12.404   5.842
69010SOL    HW2 8863  10.108  12.452   5.769
69011SOL     OW 8864  11.866  13.322   2.592
69011SOL    HW1 8865  11.952  13.363   2.588
69011SOL    HW2 8866  11.884  13.229   2.608
69012SOL     OW 8867  14.458  13.321   1.266
69012SOL    HW1 8868  14.541  13.282   1.237
69012SOL    HW2 8869  14.462  13.318   1.362
69013SOL     OW 8870   7.984   9.691   0.405
69013SOL    HW1 8871   7.902   9.676   0.358
69013SOL    HW2 8872   8.025   9.765   0.359
69014SOL     OW 8873   8.421   7.005   6.559
69014SOL    HW1 8874   8.489   7.055   6.605
69014SOL    HW2 8875   8.339   7.034   6.599
69015SOL     OW 8876   6.608   7.309  12.542
69015SOL    HW1 8877   6.553   7.311  12.464
69015SOL    HW2 8878   6.697   7.301  12.508
69016SOL     OW 8879  10.548  13.576   5.029
69016SOL    HW1 8880  10.483  13.508   5.010
69016SOL    HW2 8881  10.500  13.658   5.018
69017SOL     OW 8882  10.122  14.421   2.153
69017SOL    HW1 8883  10.211  14.387   2.143
69017SOL    HW2 8884  10.077  14.353   2.204
69018SOL     OW 8885   9.325   1.183   0.555
69018SOL    HW1 8886   9.348   1.110   0.497
69018SOL    HW2 8887   9.401   1.241   0.552
69019SOL     OW 8888   7.947  14.497  10.141
69019SOL    HW1 8889   8.040  14.499  10.163
69019SOL    HW2 8890   7.933  14.409  10.106
69020SOL     OW 8891   0.065  14.553   6.878
69020SOL    HW1 8892   0.015  14.497   6.819
69020SOL    HW2 8893   0.154  14.552   6.843
69021SOL     OW 8894   8.306   6.597  11.736
69021SOL    HW1 8895   8.369   6.621  11.668
69021SOL    HW2 8896   8.359   6.583  11.814
69022SOL     OW 8897  14.049  14.458   8.746
69022SOL    HW1 8898  14.033  14.452   8.651
69022SOL    HW2 8899  13.962  14.464   8.785
69023SOL     OW 8900   1.856   8.508   4.994
69023SOL    HW1 8901   1.906   8.433   4.962
69023SOL    HW2 8902   1.843   8.563   4.916
69024SOL     OW 8903   8.760   6.921   3.787
69024SOL    HW1 8904   8.823   6.868   3.836
69024SOL    HW2 8905   8.790   7.011   3.799
69025SOL     OW 8906   2.391   6.808   9.059
69025SOL    HW1 8907   2.357   6.822   8.971
69025SOL    HW2 8908   2.459   6.741   9.048
69026SOL     OW 8909  11.370   8.395   5.578
69026SOL    HW1 8910  11.368   8.491   5.579
69026SOL    HW2 8911  11.462   8.372   5.591
69027SOL     OW 8912   9.721   4.983  13.612
69027SOL    HW1 8913   9.750   4.935  13.535
69027SOL    HW2 8914   9.742   5.074  13.594
69028SOL     OW 8915   7.670   1.988   4.154
69028SOL    HW1 8916   7.730   1.932   4.204
69028SOL    HW2 8917   7.704   2.076   4.168
69029SOL     OW 8918  13.191  11.225   2.045
69029SOL    HW1 8919  13.160  11.315   2.046
69029SOL    HW2 8920  13.235  11.215   1.960
69030SOL     OW 8921   3.060   9.147   8.817
69030SOL    HW1 8922   3.143   9.102   8.830
69030SOL    HW2 8923   3.079   9.217   8.755
69031SOL     OW 8924   2.943  10.726  14.271
69031SOL    HW1 8925   2.925  10.635  14.248
69031SOL    HW2 8926   3.030  10.744  14.235
69032SOL     OW 8927   9.761   5.762  13.824
69032SOL    HW1 8928   9.775   5.799  13.911
69032SOL    HW2 8929   9.838   5.790  13.774
69033SOL     OW 8930   2.410   9.190  10.414
69033SOL    HW1 8931   2.315   9.187  10.429
69033SOL    HW2 8932   2.437   9.098  10.413
69034SOL     OW 8933   5.545   7.220   3.800
69034SOL    HW1 8934   5.488   7.161   3.850
69034SOL    HW2 8935   5.503   7.306   3.807
69035SOL     OW 8936  11.095   5.115  12.217
69035SOL    HW1 8937  11.093   5.025  12.250
69035SOL    HW2 8938  11.157   5.111  12.144
69036SOL     OW 8939   0.132   9.669  14.154
69036SOL    HW1 8940   0.088   9.705  14.231
69036SOL    HW2 8941   0.196   9.736  14.129
69037SOL     OW 8942   1.036   1.344   9.192
69037SOL    HW1 8943   1.064   1.405   9.259
69037SOL    HW2 8944   1.078   1.261   9.216
69038SOL     OW 8945   1.448   7.233   7.185
69038SOL    HW1 8946   1.460   7.149   7.142
69038SOL    HW2 8947   1.386   7.281   7.130
69039SOL     OW 8948   5.191   0.183   4.174
69039SOL    HW1 8949   5.220   0.250   4.112
69039SOL    HW2 8950   5.255   0.186   4.245
69040SOL     OW 8951   6.545   4.199   9.411
69040SOL    HW1 8952   6.568   4.115   9.371
69040SOL    HW2 8953   6.483   4.239   9.350
69041SOL     OW 8954   8.265  14.133   2.164
69041SOL    HW1 8955   8.245  14.084   2.244
69041SOL    HW2 8956   8.181  14.139   2.118
69042SOL     OW 8957  11.994   3.222   0.804
69042SOL    HW1 8958  11.899   3.211   0.813
69042SOL    HW2 8959  12.019   3.158   0.737
69043SOL     OW 8960   6.745   4.967   6.929
69043SOL    HW1 8961   6.819   4.906   6.932
69043SOL    HW2 8962   6.741   5.003   7.018
69044SOL     OW 8963  14.013   5.370  12.335
69044SOL    HW1 8964  13.975   5.383  12.423
69044SOL    HW2 8965  13.937   5.358  12.278
69045SOL     OW 8966  10.536   1.928   4.353
69045SOL    HW1 8967  10.529   1.856   4.290
69045SOL    HW2 8968  10.546   2.006   4.299
69046SOL     OW 8969   5.904   8.526   8.537
69046SOL    HW1 8970   5.992   8.559   8.553
69046SOL    HW2 8971   5.918   8.441   8.495
69047SOL     OW 8972   5.010  14.424   1.963
69047SOL    HW1 8973   4.997  14.363   1.890
69047SOL    HW2 8974   5.104  14.441   1.963
69048SOL     OW 8975   2.280   1.846  12.356
69048SOL    HW1 8976   2.221   1.823  12.427
69048SOL    HW2 8977   2.247   1.798  12.280
69049SOL     OW 8978  13.901  11.418   3.427
69049SOL    HW1 8979  13.982  11.463   3.449
69049SOL    HW2 8980  13.922  11.325   3.436
69050SOL     OW 8981  10.849  14.249   9.595
69050SOL    HW1 8982  10.896  14.331   9.607
69050SOL    HW2 8983  10.884  14.213   9.513
69051SOL     OW 8984   8.135   2.926  14.744
69051SOL    HW1 8985   8.217   2.886  14.776
69051SOL    HW2 8986   8.118   2.882  14.661
69052SOL     OW 8987   6.424  13.152   5.178
69052SOL    HW1 8988   6.353  13.197   5.225
69052SOL    HW2 8989   6.464  13.220   5.125
69053SOL     OW 8990  14.351   7.700  11.236
69053SOL    HW1 8991  14.377   7.646  11.161
69053SOL    HW2 8992  14.428   7.700  11.292
69054SOL     OW 8993   5.833  12.936  13.101
69054SOL    HW1 8994   5.900  13.005  13.102
69054SOL    HW2 8995   5.860  12.878  13.030
69055SOL     OW 8996   1.650   5.143  10.099
69055SOL    HW1 8997   1.628   5.116  10.189
69055SOL    HW2 8998   1.568   5.178  10.064
69056SOL     OW 8999   1.604   0.010   0.742
69056SOL    HW1 9000   1.636   0.013   0.652
69056SOL    HW2 9001   1.509   0.009   0.733
69057SOL     OW 9002   7.847   0.025  14.181
69057SOL    HW1 9003   7.838  14.813  14.196
69057SOL    HW2 9004   7.942   0.039  14.176
69058SOL     OW 9005  10.968  14.418  12.900
69058SOL    HW1 9006  10.907  14.469  12.952
69058SOL    HW2 9007  10.913  14.356  12.852
69059SOL     OW 9008   2.464   2.188   6.893
69059SOL    HW1 9009   2.398   2.185   6.823
69059SOL    HW2 9010   2.415   2.216   6.970
69060SOL     OW 9011   8.703  13.163  13.019
69060SOL    HW1 9012   8.731  13.079  13.056
69060SOL    HW2 9013   8.610  13.151  13.001
69061SOL     OW 9014   3.866   7.149   6.179
69061SOL    HW1 9015   3.915   7.129   6.259
69061SOL    HW2 9016   3.925   7.123   6.108
69062SOL     OW 9017   6.441   7.060   3.701
69062SOL    HW1 9018   6.488   6.978   3.718
69062SOL    HW2 9019   6.383   7.071   3.776
69063SOL     OW 9020   5.192   8.766  13.649
69063SOL    HW1 9021   5.175   8.858  13.666
69063SOL    HW2 9022   5.196   8.758  13.554
69064SOL     OW 9023  13.605   7.699   1.996
69064SOL    HW1 9024  13.589   7.663   2.083
69064SOL    HW2 9025  13.570   7.788   2.000
69065SOL     OW 9026   8.271  10.122   5.618
69065SOL    HW1 9027   8.340  10.121   5.551
69065SOL    HW2 9028   8.308  10.177   5.688
69066SOL     OW 9029   9.354   0.233  10.282
69066SOL    HW1 9030   9.270   0.279  10.278
69066SOL    HW2 9031   9.405   0.283  10.346
69067SOL     OW 9032  10.449  13.594   8.707
69067SOL    HW1 9033  10.408  13.515   8.669
69067SOL    HW2 9034  10.543  13.578   8.698
69068SOL     OW 9035  13.773   7.645  14.013
69068SOL    HW1 9036  13.739   7.730  14.042
69068SOL    HW2 9037  13.800   7.602  14.094
69069SOL     OW 9038   8.092   8.924  12.750
69069SOL    HW1 9039   8.145   8.928  12.829
69069SOL    HW2 9040   8.100   9.012  12.711
69070SOL     OW 9041   1.848   3.889  14.066
69070SOL    HW1 9042   1.901   3.930  13.998
69070SOL    HW2 9043   1.875   3.797  14.066
69071SOL     OW 9044  11.235   5.855   6.532
69071SOL    HW1 9045  11.236   5.943   6.495
69071SOL    HW2 9046  11.230   5.797   6.456
69072SOL     OW 9047   0.217   7.532   4.110
69072SOL    HW1 9048   0.177   7.480   4.040
69072SOL    HW2 9049   0.272   7.595   4.064
69073SOL     OW 9050  12.456   9.934   6.559
69073SOL    HW1 9051  12.407   9.941   6.642
69073SOL    HW2 9052  12.472   9.841   6.548
69074SOL     OW 9053   1.235   3.140   3.602
69074SOL    HW1 9054   1.197   3.228   3.594
69074SOL    HW2 9055   1.287   3.143   3.682
69075SOL     OW 9056   7.126   0.860   7.238
69075SOL    HW1 9057   7.063   0.805   7.285
69075SOL    HW2 9058   7.211   0.826   7.265
69076SOL     OW 9059   4.398   5.284   6.108
69076SOL    HW1 9060   4.377   5.317   6.020
69076SOL    HW2 9061   4.494   5.290   6.114
69077SOL     OW 9062   2.773   1.103   8.278
69077SOL    HW1 9063   2.805   1.035   8.336
69077SOL    HW2 9064   2.845   1.167   8.275
69078SOL     OW 9065  11.574  11.872   3.272
69078SOL    HW1 9066  11.556  11.822   3.352
69078SOL    HW2 9067  11.612  11.954   3.304
69079SOL     OW 9068  10.609   6.754   4.731
69079SOL    HW1 9069  10.680   6.723   4.787
69079SOL    HW2 9070  10.633   6.844   4.709
69080SOL     OW 9071   8.690   3.164  13.427
69080SOL    HW1 9072   8.747   3.118  13.367
69080SOL    HW2 9073   8.611   3.183  13.376
69081SOL     OW 9074   8.029   1.926   3.477
69081SOL    HW1 9075   7.944   1.969   3.486
69081SOL    HW2 9076   8.041   1.880   3.560
69082SOL     OW 9077  10.714   8.692  12.254
69082SOL    HW1 9078  10.773   8.759  12.288
69082SOL    HW2 9079  10.710   8.709  12.160
69083SOL     OW 9080   4.442   1.991   4.180
69083SOL    HW1 9081   4.527   2.023   4.148
69083SOL    HW2 9082   4.465   1.920   4.240
69084SOL     OW 9083  11.905  10.341   1.282
69084SOL    HW1 9084  11.883  10.248   1.275
69084SOL    HW2 9085  11.994  10.342   1.316
69085SOL     OW 9086   0.023  14.066  12.169
69085SOL    HW1 9087   0.025  14.134  12.236
69085SOL    HW2 9088   0.109  14.025  12.175
69086SOL     OW 9089  12.894   1.581   8.913
69086SOL    HW1 9090  12.988   1.564   8.901
69086SOL    HW2 9091  12.852   1.500   8.883
69087SOL     OW 9092   9.015   3.562   9.124
69087SOL    HW1 9093   8.969   3.641   9.152
69087SOL    HW2 9094   8.958   3.522   9.059
69088SOL     OW 9095   7.231  12.822   9.034
69088SOL    HW1 9096   7.294  12.891   9.015
69088SOL    HW2 9097   7.162  12.834   8.968
69089SOL     OW 9098  13.150  12.022   3.505
69089SOL    HW1 9099  13.160  11.927   3.498
69089SOL    HW2 9100  13.151  12.053   3.414
69090SOL     OW 9101  12.406  10.822  14.810
69090SOL    HW1 9102  12.353  10.900  14.823
69090SOL    HW2 9103  12.351  10.764  14.757
69091SOL     OW 9104   5.535   3.025   8.809
69091SOL    HW1 9105   5.600   2.957   8.827
69091SOL    HW2 9106   5.584   3.107   8.814
69092SOL     OW 9107   6.965  14.648   5.152
69092SOL    HW1 9108   7.025  14.573   5.152
69092SOL    HW2 9109   6.985  14.695   5.233
69093SOL     OW 9110   7.603  12.654  13.173
69093SOL    HW1 9111   7.574  12.612  13.091
69093SOL    HW2 9112   7.599  12.584  13.238
69094SOL     OW 9113   2.553   3.533  14.158
69094SOL    HW1 9114   2.475   3.584  14.137
69094SOL    HW2 9115   2.519   3.454  14.201
69095SOL     OW 9116   5.126   6.980   8.863
69095SOL    HW1 9117   5.109   7.056   8.918
69095SOL    HW2 9118   5.180   6.922   8.917
69096SOL     OW 9119   7.642   0.068  12.499
69096SOL    HW1 9120   7.599   0.140  12.454
69096SOL    HW2 9121   7.687   0.020  12.430
69097SOL     OW 9122   7.994   6.759   6.553
69097SOL    HW1 9123   7.932   6.687   6.541
69097SOL    HW2 9124   8.063   6.743   6.489
69098SOL     OW 9125   4.527  13.050  14.098
69098SOL    HW1 9126   4.433  13.052  14.079
69098SOL    HW2 9127   4.556  12.963  14.070
69099SOL     OW 9128  14.459  13.283  11.836
69099SOL    HW1 9129  14.542  13.256  11.795
69099SOL    HW2 9130  14.467  13.378  11.846
69100SOL     OW 9131   6.381   6.243   4.120
69100SOL    HW1 9132   6.444   6.262   4.051
69100SOL    HW2 9133   6.298   6.279   4.088
69101SOL     OW 9134   0.123   6.868  10.909
69101SOL    HW1 9135   0.112   6.951  10.955
69101SOL    HW2 9136   0.037   6.850  10.871
69102SOL     OW 9137   9.223   9.370  10.257
69102SOL    HW1 9138   9.289   9.380  10.189
69102SOL    HW2 9139   9.256   9.422  10.330
69103SOL     OW 9140   3.833   5.838   0.575
69103SOL    HW1 9141   3.825   5.926   0.612
69103SOL    HW2 9142   3.895   5.848   0.503
69104SOL     OW 9143   7.538  12.924  14.806
69104SOL    HW1 9144   7.471  12.863  14.836
69104SOL    HW2 9145   7.598  12.931  14.880
69105SOL     OW 9146   0.174   6.050  14.346
69105SOL    HW1 9147   0.187   6.041  14.440
69105SOL    HW2 9148   0.093   6.002  14.328
69106SOL     OW 9149  11.129  14.249   1.247
69106SOL    HW1 9150  11.102  14.158   1.238
69106SOL    HW2 9151  11.225  14.245   1.248
69107SOL     OW 9152  14.099   0.260   1.932
69107SOL    HW1 9153  14.164   0.218   1.875
69107SOL    HW2 9154  14.119   0.227   2.020
69108SOL     OW 9155   6.837   3.684  11.295
69108SOL    HW1 9156   6.856   3.623  11.224
69108SOL    HW2 9157   6.790   3.756  11.254
69109SOL     OW 9158  13.586  14.316   2.237
69109SOL    HW1 9159  13.557  14.358   2.156
69109SOL    HW2 9160  13.530  14.353   2.305
69110SOL     OW 9161   0.352  11.155   7.343
69110SOL    HW1 9162   0.275  11.154   7.287
69110SOL    HW2 9163   0.321  11.192   7.426
69111SOL     OW 9164   2.519   3.027   6.752
69111SOL    HW1 9165   2.484   3.106   6.794
69111SOL    HW2 9166   2.597   3.006   6.803
69112SOL     OW 9167   7.110   2.196   2.052
69112SOL    HW1 9168   7.098   2.165   1.962
69112SOL    HW2 9169   7.047   2.268   2.061
69113SOL     OW 9170   5.800   3.260  12.934
69113SOL    HW1 9171   5.882   3.264  12.983
69113SOL    HW2 9172   5.767   3.350  12.934
69114SOL     OW 9173   0.619   1.702  11.028
69114SOL    HW1 9174   0.697   1.655  10.998
69114SOL    HW2 9175   0.561   1.633  11.060
69115SOL     OW 9176   2.591   8.777   0.156
69115SOL    HW1 9177   2.595   8.871   0.139
69115SOL    HW2 9178   2.680   8.753   0.181
69116SOL     OW 9179   8.691  10.695   1.742
69116SOL    HW1 9180   8.690  10.701   1.647
69116SOL    HW2 9181   8.614  10.744   1.771
69117SOL     OW 9182   9.473   2.672   5.643
69117SOL    HW1 9183   9.476   2.695   5.550
69117SOL    HW2 9184   9.394   2.716   5.675
69118SOL     OW 9185   7.461   5.903  10.231
69118SOL    HW1 9186   7.479   5.892  10.325
69118SOL    HW2 9187   7.488   5.820  10.192
69119SOL     OW 9188  11.446   4.182  14.061
69119SOL    HW1 9189  11.398   4.099  14.061
69119SOL    HW2 9190  11.379   4.247  14.084
69120SOL     OW 9191   6.428   6.602   7.500
69120SOL    HW1 9192   6.366   6.674   7.492
69120SOL    HW2 9193   6.392   6.546   7.569
69121SOL     OW 9194   9.798  11.385  11.305
69121SOL    HW1 9195   9.709  11.394  11.337
69121SOL    HW2 9196   9.805  11.294  11.277
69122SOL     OW 9197  10.205   4.555   2.097
69122SOL    HW1 9198  10.154   4.474   2.091
69122SOL    HW2 9199  10.147   4.623   2.062
69123SOL     OW 9200   7.729   2.734   8.423
69123SOL    HW1 9201   7.727   2.747   8.329
69123SOL    HW2 9202   7.642   2.700   8.445
69124SOL     OW 9203   8.320   7.226  14.217
69124SOL    HW1 9204   8.301   7.167  14.289
69124SOL    HW2 9205   8.326   7.169  14.140
69125SOL     OW 9206  12.874   6.098   1.234
69125SOL    HW1 9207  12.894   6.045   1.157
69125SOL    HW2 9208  12.907   6.047   1.307
69126SOL     OW 9209  12.485   1.678  11.925
69126SOL    HW1 9210  12.504   1.659  11.834
69126SOL    HW2 9211  12.486   1.774  11.931
69127SOL     OW 9212   9.969   6.863   0.361
69127SOL    HW1 9213   9.997   6.944   0.403
69127SOL    HW2 9214  10.037   6.846   0.295
69128SOL     OW 9215   7.586   3.839   4.781
69128SOL    HW1 9216   7.501   3.811   4.816
69128SOL    HW2 9217   7.631   3.757   4.760
69129SOL     OW 9218   8.267   2.221   1.899
69129SOL    HW1 9219   8.347   2.205   1.948
69129SOL    HW2 9220   8.207   2.152   1.927
69130SOL     OW 9221   2.178   2.897   8.979
69130SOL    HW1 9222   2.161   2.872   9.069
69130SOL    HW2 9223   2.254   2.956   8.985
69131SOL     OW 9224   8.197  12.288  12.117
69131SOL    HW1 9225   8.269  12.250  12.167
69131SOL    HW2 9226   8.126  12.225  12.125
69132SOL     OW 9227  14.005   3.882  10.370
69132SOL    HW1 9228  13.950   3.826  10.314
69132SOL    HW2 9229  14.021   3.960  10.317
69133SOL     OW 9230   3.696   3.333   1.181
69133SOL    HW1 9231   3.724   3.273   1.112
69133SOL    HW2 9232   3.636   3.393   1.137
69134SOL     OW 9233   7.479  12.008  10.606
69134SOL    HW1 9234   7.406  12.019  10.666
69134SOL    HW2 9235   7.453  11.936  10.548
69135SOL     OW 9236   8.845   8.047   5.475
69135SOL    HW1 9237   8.872   8.129   5.435
69135SOL    HW2 9238   8.902   7.981   5.435
69136SOL     OW 9239  10.699   2.415   7.373
69136SOL    HW1 9240  10.619   2.432   7.423
69136SOL    HW2 9241  10.747   2.350   7.425
69137SOL     OW 9242  12.651  12.804  14.094
69137SOL    HW1 9243  12.746  12.790  14.088
69137SOL    HW2 9244  12.612  12.734  14.042
69138SOL     OW 9245  13.681   0.509   9.992
69138SOL    HW1 9246  13.777   0.510   9.982
69138SOL    HW2 9247  13.651   0.441   9.931
69139SOL     OW 9248  12.118  10.240   7.575
69139SOL    HW1 9249  12.167  10.195   7.645
69139SOL    HW2 9250  12.140  10.192   7.496
69140SOL     OW 9251  12.328   2.556   3.390
69140SOL    HW1 9252  12.367   2.626   3.443
69140SOL    HW2 9253  12.299   2.600   3.310
69141SOL     OW 9254   9.873   3.183   1.369
69141SOL    HW1 9255   9.812   3.155   1.301
69141SOL    HW2 9256   9.955   3.198   1.322
69142SOL     OW 9257   0.438  14.323   8.108
69142SOL    HW1 9258   0.524  14.321   8.066
69142SOL    HW2 9259   0.408  14.232   8.105
69143SOL     OW 9260   2.788   2.137  13.272
69143SOL    HW1 9261   2.764   2.059  13.323
69143SOL    HW2 9262   2.851   2.183  13.328
69144SOL     OW 9263   5.950  10.354   5.469
69144SOL    HW1 9264   5.977  10.304   5.392
69144SOL    HW2 9265   6.032  10.387   5.507
69145SOL     OW 9266   9.985  10.455   1.191
69145SOL    HW1 9267   9.932  10.524   1.231
69145SOL    HW2 9268  10.007  10.396   1.263
69146SOL     OW 9269   5.204  12.940   3.138
69146SOL    HW1 9270   5.204  13.023   3.186
69146SOL    HW2 9271   5.114  12.931   3.106
69147SOL     OW 9272  13.192  14.816   3.360
69147SOL    HW1 9273  13.270  14.856   3.398
69147SOL    HW2 9274  13.225  14.764   3.286
69148SOL     OW 9275   9.695  14.413   1.656
69148SOL    HW1 9276   9.773  14.399   1.602
69148SOL    HW2 9277   9.727  14.457   1.734
69149SOL     OW 9278   6.700   8.835   8.836
69149SOL    HW1 9279   6.749   8.868   8.760
69149SOL    HW2 9280   6.751   8.761   8.867
69150SOL     OW 9281   8.106   2.479  12.710
69150SOL    HW1 9282   8.177   2.507  12.767
69150SOL    HW2 9283   8.144   2.481  12.622
69151SOL     OW 9284   5.712  14.675  10.950
69151SOL    HW1 9285   5.700  14.632  11.034
69151SOL    HW2 9286   5.806  14.690  10.943
69152SOL     OW 9287  12.602   7.604   7.114
69152SOL    HW1 9288  12.527   7.653   7.146
69152SOL    HW2 9289  12.571   7.514   7.105
69153SOL     OW 9290  12.737  14.386  11.134
69153SOL    HW1 9291  12.826  14.368  11.165
69153SOL    HW2 9292  12.715  14.310  11.081
69154SOL     OW 9293   6.138  12.028   7.477
69154SOL    HW1 9294   6.145  11.988   7.390
69154SOL    HW2 9295   6.085  11.966   7.527
69155SOL     OW 9296  13.332   2.252   1.022
69155SOL    HW1 9297  13.406   2.193   1.035
69155SOL    HW2 9298  13.334   2.273   0.928
69156SOL     OW 9299   8.509   4.833   4.296
69156SOL    HW1 9300   8.449   4.889   4.247
69156SOL    HW2 9301   8.566   4.893   4.343
69157SOL     OW 9302   1.047  11.571   5.650
69157SOL    HW1 9303   0.999  11.644   5.688
69157SOL    HW2 9304   1.131  11.608   5.624
69158SOL     OW 9305  12.524  10.865  14.095
69158SOL    HW1 9306  12.543  10.931  14.029
69158SOL    HW2 9307  12.610  10.829  14.119
69159SOL     OW 9308   3.164   0.477   7.024
69159SOL    HW1 9309   3.240   0.500   6.970
69159SOL    HW2 9310   3.172   0.533   7.101
69160SOL     OW 9311  14.578   8.388   5.767
69160SOL    HW1 9312  14.577   8.296   5.741
69160SOL    HW2 9313  14.655   8.425   5.724
69161SOL     OW 9314   5.577   0.428   4.194
69161SOL    HW1 9315   5.610   0.356   4.248
69161SOL    HW2 9316   5.548   0.494   4.257
69162SOL     OW 9317  11.886   5.734   6.622
69162SOL    HW1 9318  11.859   5.717   6.712
69162SOL    HW2 9319  11.857   5.824   6.604
69163SOL     OW 9320   6.698   9.435   9.184
69163SOL    HW1 9321   6.684   9.529   9.199
69163SOL    HW2 9322   6.651   9.393   9.255
69164SOL     OW 9323   1.304   6.444   3.881
69164SOL    HW1 9324   1.352   6.429   3.963
69164SOL    HW2 9325   1.219   6.402   3.895
69165SOL     OW 9326   8.322   7.187  10.712
69165SOL    HW1 9327   8.389   7.253  10.693
69165SOL    HW2 9328   8.259   7.195  10.641
69166SOL     OW 9329  13.250  13.324  11.612
69166SOL    HW1 9330  13.211  13.373  11.539
69166SOL    HW2 9331  13.275  13.240  11.574
69167SOL     OW 9332  12.948   4.693   7.739
69167SOL    HW1 9333  13.010   4.754   7.779
69167SOL    HW2 9334  12.932   4.728   7.652
69168SOL     OW 9335   9.517  10.131  13.423
69168SOL    HW1 9336   9.583  10.134  13.492
69168SOL    HW2 9337   9.556  10.076  13.355
69169SOL     OW 9338  14.647   9.748  14.335
69169SOL    HW1 9339  14.716   9.696  14.375
69169SOL    HW2 9340  14.669   9.839  14.356
69170SOL     OW 9341  13.967   6.690   4.856
69170SOL    HW1 9342  14.005   6.657   4.937
69170SOL    HW2 9343  13.875   6.704   4.877
69171SOL     OW 9344   8.446   2.887   7.954
69171SOL    HW1 9345   8.368   2.928   7.990
69171SOL    HW2 9346   8.424   2.793   7.951
69172SOL     OW 9347   3.564   5.647  13.022
69172SOL    HW1 9348   3.560   5.648  13.117
69172SOL    HW2 9349   3.622   5.719  12.999
69173SOL     OW 9350   0.378   3.512  10.156
69173SOL    HW1 9351   0.459   3.461  10.159
69173SOL    HW2 9352   0.407   3.602  10.145
69174SOL     OW 9353  11.837   5.675   0.831
69174SOL    HW1 9354  11.862   5.608   0.767
69174SOL    HW2 9355  11.784   5.737   0.782
69175SOL     OW 9356  13.533   4.098   8.200
69175SOL    HW1 9357  13.546   4.089   8.106
69175SOL    HW2 9358  13.622   4.098   8.236
69176SOL     OW 9359   8.619   7.763   6.188
69176SOL    HW1 9360   8.657   7.742   6.274
69176SOL    HW2 9361   8.576   7.847   6.201
69177SOL     OW 9362  14.653  12.402  11.916
69177SOL    HW1 9363  14.597  12.422  11.841
69177SOL    HW2 9364  14.693  12.486  11.939
69178SOL     OW 9365   6.856   8.734   4.745
69178SOL    HW1 9366   6.785   8.751   4.683
69178SOL    HW2 9367   6.812   8.716   4.827
69179SOL     OW 9368   9.867  10.221  10.256
69179SOL    HW1 9369   9.925  10.292  10.228
69179SOL    HW2 9370   9.886  10.209  10.349
69180SOL     OW 9371   3.656   2.521   6.973
69180SOL    HW1 9372   3.701   2.550   6.894
69180SOL    HW2 9373   3.638   2.602   7.021
69181SOL     OW 9374   7.831  12.099  14.670
69181SOL    HW1 9375   7.853  12.139  14.754
69181SOL    HW2 9376   7.916  12.084  14.627
69182SOL     OW 9377  10.552  10.806   6.805
69182SOL    HW1 9378  10.622  10.770   6.860
69182SOL    HW2 9379  10.476  10.752   6.825
69183SOL     OW 9380   1.688   1.463   5.497
69183SOL    HW1 9381   1.706   1.491   5.407
69183SOL    HW2 9382   1.593   1.458   5.502
69184SOL     OW 9383   5.348   2.836   8.590
69184SOL    HW1 9384   5.258   2.832   8.621
69184SOL    HW2 9385   5.390   2.901   8.647
69185SOL     OW 9386   3.552   0.080   2.055
69185SOL    HW1 9387   3.636   0.125   2.044
69185SOL    HW2 9388   3.505   0.132   2.120
69186SOL     OW 9389   7.790  12.265  11.077
69186SOL    HW1 9390   7.817  12.195  11.017
69186SOL    HW2 9391   7.696  12.274  11.062
69187SOL     OW 9392  14.747   5.155   8.267
69187SOL    HW1 9393  14.811   5.088   8.293
69187SOL    HW2 9394  14.686   5.109   8.210
69188SOL     OW 9395  10.608   5.575  10.334
69188SOL    HW1 9396  10.703   5.563  10.333
69188SOL    HW2 9397  10.595   5.664  10.302
69189SOL     OW 9398  10.306   3.634   4.921
69189SOL    HW1 9399  10.237   3.597   4.867
69189SOL    HW2 9400  10.308   3.727   4.899
69190SOL     OW 9401   1.732   7.372  14.347
69190SOL    HW1 9402   1.738   7.343  14.256
69190SOL    HW2 9403   1.685   7.455  14.343
69191SOL     OW 9404  14.696   8.836   3.997
69191SOL    HW1 9405  14.753   8.834   4.074
69191SOL    HW2 9406  14.755   8.857   3.925
69192SOL     OW 9407   2.278   6.353   4.200
69192SOL    HW1 9408   2.276   6.421   4.133
69192SOL    HW2 9409   2.368   6.353   4.231
69193SOL     OW 9410  11.682  12.705  13.125
69193SOL    HW1 9411  11.650  12.724  13.213
69193SOL    HW2 9412  11.716  12.788  13.093
69194SOL     OW 9413  13.513   3.899   7.241
69194SOL    HW1 9414  13.460   3.819   7.240
69194SOL    HW2 9415  13.469   3.956   7.304
69195SOL     OW 9416   2.516   5.122  11.752
69195SOL    HW1 9417   2.578   5.182  11.795
69195SOL    HW2 9418   2.460   5.179  11.699
69196SOL     OW 9419   5.944  13.773   3.582
69196SOL    HW1 9420   6.013  13.838   3.595
69196SOL    HW2 9421   5.950  13.716   3.660
69197SOL     OW 9422   9.612   0.898   0.753
69197SOL    HW1 9423   9.637   0.981   0.793
69197SOL    HW2 9424   9.689   0.842   0.765
69198SOL     OW 9425   2.976   0.589  14.543
69198SOL    HW1 9426   2.964   0.519  14.608
69198SOL    HW2 9427   3.055   0.563  14.495
69199SOL     OW 9428   4.932  12.300   0.824
69199SOL    HW1 9429   4.917  12.290   0.918
69199SOL    HW2 9430   5.006  12.360   0.818
69200SOL     OW 9431  13.930   8.675   1.499
69200SOL    HW1 9432  13.967   8.735   1.564
69200SOL    HW2 9433  13.992   8.678   1.427
69201SOL     OW 9434   6.720  12.152  13.465
69201SOL    HW1 9435   6.749  12.228  13.413
69201SOL    HW2 9436   6.731  12.180  13.556
69202SOL     OW 9437   6.232   1.149  11.841
69202SOL    HW1 9438   6.208   1.077  11.782
69202SOL    HW2 9439   6.327   1.141  11.850
69203SOL     OW 9440   4.312  11.323  12.231
69203SOL    HW1 9441   4.379  11.331  12.164
69203SOL    HW2 9442   4.300  11.229  12.243
69204SOL     OW 9443   6.541  11.931   6.362
69204SOL    HW1 9444   6.499  11.846   6.347
69204SOL    HW2 9445   6.618  11.929   6.305
69205SOL     OW 9446   6.540  12.529  12.366
69205SOL    HW1 9447   6.449  12.551  12.347
69205SOL    HW2 9448   6.541  12.509  12.460
69206SOL     OW 9449   5.989   3.433   1.666
69206SOL    HW1 9450   6.057   3.383   1.620
69206SOL    HW2 9451   5.932   3.366   1.704
69207SOL     OW 9452  12.237   8.945  11.440
69207SOL    HW1 9453  12.316   8.992  11.413
69207SOL    HW2 9454  12.220   8.883  11.369
69208SOL     OW 9455   5.933   0.487  12.835
69208SOL    HW1 9456   5.974   0.573  12.843
69208SOL    HW2 9457   5.873   0.482  12.910
69209SOL     OW 9458   4.428  13.675  10.488
69209SOL    HW1 9459   4.445  13.613  10.558
69209SOL    HW2 9460   4.443  13.626  10.408
69210SOL     OW 9461  13.560  13.237   9.390
69210SOL    HW1 9462  13.598  13.300   9.329
69210SOL    HW2 9463  13.481  13.205   9.346
69211SOL     OW 9464   0.871   5.114   6.991
69211SOL    HW1 9465   0.881   5.098   7.085
69211SOL    HW2 9466   0.886   5.029   6.950
69212SOL     OW 9467   6.450   9.583   3.719
69212SOL    HW1 9468   6.494   9.520   3.661
69212SOL    HW2 9469   6.521   9.627   3.765
69213SOL     OW 9470   4.726   5.044   1.766
69213SOL    HW1 9471   4.712   4.956   1.731
69213SOL    HW2 9472   4.689   5.103   1.700
69214SOL     OW 9473   0.526   4.027  10.570
69214SOL    HW1 9474   0.506   3.980  10.490
69214SOL    HW2 9475   0.484   4.113  10.558
69215SOL     OW 9476   8.739   4.684  11.818
69215SOL    HW1 9477   8.827   4.714  11.796
69215SOL    HW2 9478   8.681   4.743  11.770
69216SOL     OW 9479  14.464   5.879   9.340
69216SOL    HW1 9480  14.412   5.816   9.291
69216SOL    HW2 9481  14.437   5.867   9.431
69217SOL     OW 9482   6.926   5.794   0.702
69217SOL    HW1 9483   6.956   5.834   0.784
69217SOL    HW2 9484   6.998   5.738   0.675
69218SOL     OW 9485   2.144   4.480   1.267
69218SOL    HW1 9486   2.144   4.493   1.362
69218SOL    HW2 9487   2.183   4.560   1.232
69219SOL     OW 9488  14.197  11.146  11.731
69219SOL    HW1 9489  14.210  11.137  11.826
69219SOL    HW2 9490  14.272  11.100  11.693
69220SOL     OW 9491   6.480   9.201   4.618
69220SOL    HW1 9492   6.518   9.125   4.573
69220SOL    HW2 9493   6.479   9.270   4.552
69221SOL     OW 9494   8.775   5.027   3.025
69221SOL    HW1 9495   8.759   5.103   2.968
69221SOL    HW2 9496   8.748   5.057   3.112
69222SOL     OW 9497  11.695   9.240  11.466
69222SOL    HW1 9498  11.681   9.278  11.379
69222SOL    HW2 9499  11.664   9.150  11.458
69223SOL     OW 9500   5.749   2.314   3.499
69223SOL    HW1 9501   5.711   2.401   3.510
69223SOL    HW2 9502   5.698   2.259   3.559
69224SOL     OW 9503   9.227   9.591   7.426
69224SOL    HW1 9504   9.223   9.496   7.423
69224SOL    HW2 9505   9.309   9.614   7.383
69225SOL     OW 9506   7.817   7.427  13.701
69225SOL    HW1 9507   7.833   7.479  13.780
69225SOL    HW2 9508   7.732   7.386  13.716
69226SOL     OW 9509   7.302   8.150   1.583
69226SOL    HW1 9510   7.299   8.224   1.644
69226SOL    HW2 9511   7.285   8.073   1.637
69227SOL     OW 9512   7.565   3.283   1.976
69227SOL    HW1 9513   7.525   3.221   2.038
69227SOL    HW2 9514   7.569   3.234   1.894
69228SOL     OW 9515   4.293  12.098   2.453
69228SOL    HW1 9516   4.311  12.040   2.379
69228SOL    HW2 9517   4.362  12.164   2.448
69229SOL     OW 9518  13.586   1.997   5.963
69229SOL    HW1 9519  13.532   1.922   5.990
69229SOL    HW2 9520  13.561   2.067   6.024
69230SOL     OW 9521  12.060  13.202   5.371
69230SOL    HW1 9522  11.996  13.207   5.442
69230SOL    HW2 9523  12.123  13.271   5.391
69231SOL     OW 9524  11.627   6.475   7.246
69231SOL    HW1 9525  11.585   6.528   7.313
69231SOL    HW2 9526  11.561   6.410   7.222
69232SOL     OW 9527   0.759   1.327  14.809
69232SOL    HW1 9528   0.819   1.400  14.792
69232SOL    HW2 9529   0.809   1.249  14.786
69233SOL     OW 9530   1.672   7.504  10.132
69233SOL    HW1 9531   1.639   7.563  10.064
69233SOL    HW2 9532   1.693   7.423  10.085
69234SOL     OW 9533   7.010   7.122   9.924
69234SOL    HW1 9534   7.092   7.078   9.949
69234SOL    HW2 9535   7.004   7.197   9.984
69235SOL     OW 9536   5.345   0.292  11.425
69235SOL    HW1 9537   5.418   0.348  11.450
69235SOL    HW2 9538   5.269   0.328  11.472
69236SOL     OW 9539   6.299   3.621   9.967
69236SOL    HW1 9540   6.267   3.550   9.912
69236SOL    HW2 9541   6.221   3.655  10.010
69237SOL     OW 9542   8.780   6.679   5.017
69237SOL    HW1 9543   8.732   6.670   4.935
69237SOL    HW2 9544   8.771   6.772   5.040
69238SOL     OW 9545  12.396   1.364  13.061
69238SOL    HW1 9546  12.489   1.379  13.044
69238SOL    HW2 9547  12.388   1.268  13.064
69239SOL     OW 9548   7.973   0.805  11.102
69239SOL    HW1 9549   7.920   0.725  11.105
69239SOL    HW2 9550   7.913   0.875  11.128
69240SOL     OW 9551  11.642  10.553   7.163
69240SOL    HW1 9552  11.578  10.624   7.168
69240SOL    HW2 9553  11.620  10.495   7.236
69241SOL     OW 9554  10.971   0.783   0.450
69241SOL    HW1 9555  11.052   0.733   0.441
69241SOL    HW2 9556  10.929   0.777   0.365
69242SOL     OW 9557   4.029   4.782  12.148
69242SOL    HW1 9558   4.021   4.690  12.173
69242SOL    HW2 9559   3.971   4.791  12.072
69243SOL     OW 9560   2.288   7.873   1.410
69243SOL    HW1 9561   2.256   7.880   1.500
69243SOL    HW2 9562   2.363   7.932   1.407
69244SOL     OW 9563  12.563   7.277   9.576
69244SOL    HW1 9564  12.611   7.214   9.629
69244SOL    HW2 9565  12.602   7.269   9.489
69245SOL     OW 9566  14.668   1.719   4.062
69245SOL    HW1 9567  14.608   1.783   4.024
69245SOL    HW2 9568  14.631   1.634   4.037
69246SOL     OW 9569   8.027   7.358   1.335
69246SOL    HW1 9570   7.962   7.292   1.311
69246SOL    HW2 9571   8.081   7.369   1.257
69247SOL     OW 9572  13.923  14.055   4.240
69247SOL    HW1 9573  13.886  14.134   4.280
69247SOL    HW2 9574  14.011  14.081   4.212
69248SOL     OW 9575   6.893   0.139   1.252
69248SOL    HW1 9576   6.927   0.227   1.270
69248SOL    HW2 9577   6.919   0.087   1.327
69249SOL     OW 9578   3.590  11.233   5.424
69249SOL    HW1 9579   3.581  11.321   5.459
69249SOL    HW2 9580   3.672  11.235   5.375
69250SOL     OW 9581   3.965   4.535   3.196
69250SOL    HW1 9582   3.912   4.572   3.267
69250SOL    HW2 9583   4.048   4.583   3.201
69251SOL     OW 9584   7.857  12.243   0.101
69251SOL    HW1 9585   7.878  12.315   0.160
69251SOL    HW2 9586   7.789  12.194   0.146
69252SOL     OW 9587  14.442   0.778   1.628
69252SOL    HW1 9588  14.347   0.788   1.623
69252SOL    HW2 9589  14.476   0.847   1.572
69253SOL     OW 9590  13.055   3.617   0.534
69253SOL    HW1 9591  12.997   3.688   0.559
69253SOL    HW2 9592  13.135   3.660   0.505
69254SOL     OW 9593   6.919  11.138   7.812
69254SOL    HW1 9594   6.863  11.118   7.738
69254SOL    HW2 9595   6.979  11.064   7.818
69255SOL     OW 9596   6.141   2.403  14.622
69255SOL    HW1 9597   6.091   2.474  14.661
69255SOL    HW2 9598   6.144   2.423  14.529
69256SOL     OW 9599  14.060   7.807  11.557
69256SOL    HW1 9600  14.020   7.726  11.523
69256SOL    HW2 9601  14.146   7.809  11.516
69257SOL     OW 9602   9.101  13.251  10.321
69257SOL    HW1 9603   9.042  13.254  10.397
69257SOL    HW2 9604   9.049  13.286  10.249
69258SOL     OW 9605   3.370   9.803   0.626
69258SOL    HW1 9606   3.336   9.892   0.632
69258SOL    HW2 9607   3.399   9.782   0.714
69259SOL     OW 9608   7.608   4.358   1.107
69259SOL    HW1 9609   7.575   4.291   1.047
69259SOL    HW2 9610   7.677   4.313   1.157
69260SOL     OW 9611   9.683   8.230   2.915
69260SOL    HW1 9612   9.656   8.148   2.957
69260SOL    HW2 9613   9.631   8.235   2.835
69261SOL     OW 9614  10.750   1.169   6.363
69261SOL    HW1 9615  10.723   1.255   6.330
69261SOL    HW2 9616  10.680   1.144   6.424
69262SOL     OW 9617  12.287   3.849   3.170
69262SOL    HW1 9618  12.224   3.843   3.098
69262SOL    HW2 9619  12.275   3.767   3.219
69263SOL     OW 9620   9.006   6.753   1.937
69263SOL    HW1 9621   9.005   6.707   1.853
69263SOL    HW2 9622   8.988   6.845   1.914
69264SOL     OW 9623  13.643   1.316   4.440
69264SOL    HW1 9624  13.559   1.357   4.420
69264SOL    HW2 9625  13.666   1.269   4.360
69265SOL     OW 9626  12.053   0.608  13.788
69265SOL    HW1 9627  12.004   0.669  13.735
69265SOL    HW2 9628  12.094   0.548  13.725
69266SOL     OW 9629   0.591   7.193   8.700
69266SOL    HW1 9630   0.557   7.104   8.713
69266SOL    HW2 9631   0.533   7.232   8.636
69267SOL     OW 9632   0.653   5.949   9.172
69267SOL    HW1 9633   0.637   5.869   9.222
69267SOL    HW2 9634   0.632   5.925   9.082
69268SOL     OW 9635   5.073   5.816   6.483
69268SOL    HW1 9636   5.069   5.846   6.574
69268SOL    HW2 9637   5.030   5.730   6.484
69269SOL     OW 9638  10.544   8.677   9.542
69269SOL    HW1 9639  10.556   8.761   9.585
69269SOL    HW2 9640  10.461   8.644   9.577
69270SOL     OW 9641   0.388   8.269  14.805
69270SOL    HW1 9642   0.348   8.192  14.764
69270SOL    HW2 9643   0.442   8.232  14.875
69271SOL     OW 9644   5.800   2.410   8.233
69271SOL    HW1 9645   5.807   2.344   8.165
69271SOL    HW2 9646   5.852   2.483   8.201
69272SOL     OW 9647   9.973   6.574   9.730
69272SOL    HW1 9648  10.018   6.625   9.798
69272SOL    HW2 9649  10.028   6.584   9.652
69273SOL     OW 9650  12.417   5.580   5.212
69273SOL    HW1 9651  12.409   5.502   5.158
69273SOL    HW2 9652  12.499   5.620   5.185
69274SOL     OW 9653  14.403  14.068  11.653
69274SOL    HW1 9654  14.412  13.974  11.638
69274SOL    HW2 9655  14.350  14.075  11.732
69275SOL     OW 9656  13.257   3.664   2.078
69275SOL    HW1 9657  13.181   3.666   2.020
69275SOL    HW2 9658  13.221   3.640   2.164
69276SOL     OW 9659   0.397   1.301   8.929
69276SOL    HW1 9660   0.375   1.317   8.837
69276SOL    HW2 9661   0.384   1.207   8.941
69277SOL     OW 9662   2.424  12.702   0.528
69277SOL    HW1 9663   2.413  12.760   0.452
69277SOL    HW2 9664   2.349  12.643   0.524
69278SOL     OW 9665   1.906  13.142  12.474
69278SOL    HW1 9666   1.857  13.218  12.506
69278SOL    HW2 9667   1.897  13.077  12.544
69279SOL     OW 9668  10.692   0.035   1.476
69279SOL    HW1 9669  10.628   0.095   1.516
69279SOL    HW2 9670  10.669   0.033   1.383
69280SOL     OW 9671   8.341  13.727   6.378
69280SOL    HW1 9672   8.302  13.658   6.431
69280SOL    HW2 9673   8.274  13.794   6.372
69281SOL     OW 9674   2.030   3.070  14.880
69281SOL    HW1 9675   2.111   3.033   0.034
69281SOL    HW2 9676   1.966   3.061   0.069
69282SOL     OW 9677  12.090   6.287  11.669
69282SOL    HW1 9678  11.997   6.297  11.690
69282SOL    HW2 9679  12.115   6.204  11.710
69283SOL     OW 9680   4.633   7.217   2.217
69283SOL    HW1 9681   4.672   7.219   2.305
69283SOL    HW2 9682   4.587   7.134   2.214
69284SOL     OW 9683   4.805   1.103   5.254
69284SOL    HW1 9684   4.743   1.172   5.229
69284SOL    HW2 9685   4.834   1.128   5.342
69285SOL     OW 9686   3.505  12.234   1.395
69285SOL    HW1 9687   3.576  12.240   1.459
69285SOL    HW2 9688   3.538  12.172   1.330
69286SOL     OW 9689  11.966   1.266  14.594
69286SOL    HW1 9690  11.928   1.314  14.520
69286SOL    HW2 9691  12.059   1.291  14.593
69287SOL     OW 9692   2.065   0.734  10.205
69287SOL    HW1 9693   2.095   0.679  10.133
69287SOL    HW2 9694   1.974   0.706  10.221
69288SOL     OW 9695   9.365   9.671   1.253
69288SOL    HW1 9696   9.435   9.653   1.316
69288SOL    HW2 9697   9.289   9.695   1.307
69289SOL     OW 9698  13.457  13.209  12.218
69289SOL    HW1 9699  13.373  13.192  12.176
69289SOL    HW2 9700  13.477  13.129  12.266
69290SOL     OW 9701   5.039   8.504   6.171
69290SOL    HW1 9702   5.116   8.533   6.218
69290SOL    HW2 9703   4.966   8.549   6.214
69291SOL     OW 9704   8.246  12.006  12.860
69291SOL    HW1 9705   8.294  11.923  12.857
69291SOL    HW2 9706   8.295  12.060  12.922
69292SOL     OW 9707  13.605   3.147  11.840
69292SOL    HW1 9708  13.690   3.168  11.878
69292SOL    HW2 9709  13.625   3.089  11.766
69293SOL     OW 9710   9.183   4.747   4.456
69293SOL    HW1 9711   9.181   4.791   4.541
69293SOL    HW2 9712   9.118   4.793   4.403
69294SOL     OW 9713   6.168  10.805  13.073
69294SOL    HW1 9714   6.256  10.835  13.049
69294SOL    HW2 9715   6.110  10.873  13.038
69295SOL     OW 9716   9.924   8.938   5.742
69295SOL    HW1 9717   9.891   8.849   5.732
69295SOL    HW2 9718   9.986   8.948   5.670
69296SOL     OW 9719  12.830   5.096  10.769
69296SOL    HW1 9720  12.834   5.190  10.788
69296SOL    HW2 9721  12.753   5.066  10.816
69297SOL     OW 9722  14.008  10.963   9.869
69297SOL    HW1 9723  14.091  10.999   9.900
69297SOL    HW2 9724  14.029  10.919   9.787
69298SOL     OW 9725   2.550   8.218   6.677
69298SOL    HW1 9726   2.632   8.265   6.664
69298SOL    HW2 9727   2.483   8.286   6.679
69299SOL     OW 9728   8.461   5.266   9.004
69299SOL    HW1 9729   8.541   5.216   9.015
69299SOL    HW2 9730   8.437   5.253   8.912
69300SOL     OW 9731   3.174   4.620  12.560
69300SOL    HW1 9732   3.230   4.546  12.537
69300SOL    HW2 9733   3.235   4.692  12.575
69301SOL     OW 9734   6.517   5.145   7.582
69301SOL    HW1 9735   6.470   5.068   7.615
69301SOL    HW2 9736   6.592   5.154   7.640
69302SOL     OW 9737   4.412   5.106   9.097
69302SOL    HW1 9738   4.361   5.029   9.121
69302SOL    HW2 9739   4.481   5.111   9.163
69303SOL     OW 9740   2.419  10.764   6.480
69303SOL    HW1 9741   2.494  10.750   6.423
69303SOL    HW2 9742   2.375  10.841   6.445
69304SOL     OW 9743   5.142   1.241  14.699
69304SOL    HW1 9744   5.211   1.187  14.662
69304SOL    HW2 9745   5.181   1.328  14.708
69305SOL     OW 9746  10.446   9.229   6.007
69305SOL    HW1 9747  10.418   9.287   6.078
69305SOL    HW2 9748  10.475   9.289   5.938
69306SOL     OW 9749  12.938  12.480  14.433
69306SOL    HW1 9750  12.967  12.391  14.411
69306SOL    HW2 9751  12.853  12.467  14.477
69307SOL     OW 9752   3.337  14.060   3.559
69307SOL    HW1 9753   3.364  14.046   3.649
69307SOL    HW2 9754   3.375  14.145   3.536
69308SOL     OW 9755   8.627   7.978   5.280
69308SOL    HW1 9756   8.613   7.887   5.307
69308SOL    HW2 9757   8.653   8.023   5.360
69309SOL     OW 9758  12.742   3.429   3.293
69309SOL    HW1 9759  12.666   3.385   3.255
69309SOL    HW2 9760  12.770   3.371   3.364
69310SOL     OW 9761   8.919   9.025   1.102
69310SOL    HW1 9762   8.902   9.119   1.091
69310SOL    HW2 9763   8.834   8.984   1.088
69311SOL     OW 9764   9.180  13.642  10.197
69311SOL    HW1 9765   9.259  13.602  10.231
69311SOL    HW2 9766   9.210  13.725  10.159
69312SOL     OW 9767   0.171   8.355   1.494
69312SOL    HW1 9768   0.205   8.346   1.405
69312SOL    HW2 9769   0.145   8.266   1.518
69313SOL     OW 9770   2.152   3.670  11.280
69313SOL    HW1 9771   2.209   3.603  11.242
69313SOL    HW2 9772   2.209   3.745  11.293
69314SOL     OW 9773   0.006  14.419   0.072
69314SOL    HW1 9774   0.051  14.503   0.080
69314SOL    HW2 9775   0.075  14.353   0.084
69315SOL     OW 9776   7.774  11.014   9.522
69315SOL    HW1 9777   7.704  11.072   9.494
69315SOL    HW2 9778   7.838  11.017   9.451
69316SOL     OW 9779  12.145   5.724   2.477
69316SOL    HW1 9780  12.110   5.759   2.395
69316SOL    HW2 9781  12.237   5.706   2.457
69317SOL     OW 9782  13.995  13.037   7.166
69317SOL    HW1 9783  14.029  13.063   7.080
69317SOL    HW2 9784  13.905  13.068   7.166
69318SOL     OW 9785   9.284   9.700   0.006
69318SOL    HW1 9786   9.368   9.672   0.043
69318SOL    HW2 9787   9.308   9.754  14.813
69319SOL     OW 9788   0.067   1.791  12.446
69319SOL    HW1 9789  14.862   1.829  12.436
69319SOL    HW2 9790   0.099   1.825  12.529
69320SOL     OW 9791   2.872   3.598  13.202
69320SOL    HW1 9792   2.879   3.688  13.232
69320SOL    HW2 9793   2.891   3.545  13.279
69321SOL     OW 9794  10.292  12.314   5.112
69321SOL    HW1 9795  10.206  12.295   5.152
69321SOL    HW2 9796  10.348  12.335   5.187
69322SOL     OW 9797   1.176   5.998  10.794
69322SOL    HW1 9798   1.218   6.036  10.716
69322SOL    HW2 9799   1.085   5.983  10.767
69323SOL     OW 9800   9.460  10.258   8.096
69323SOL    HW1 9801   9.389  10.322   8.102
69323SOL    HW2 9802   9.422  10.186   8.045
69324SOL     OW 9803   7.293   7.927   7.534
69324SOL    HW1 9804   7.209   7.911   7.492
69324SOL    HW2 9805   7.356   7.927   7.462
69325SOL     OW 9806   4.685  12.937  10.399
69325SOL    HW1 9807   4.668  13.007  10.336
69325SOL    HW2 9808   4.688  12.858  10.346
69326SOL     OW 9809   1.776  13.570   8.606
69326SOL    HW1 9810   1.783  13.590   8.699
69326SOL    HW2 9811   1.834  13.632   8.563
69327SOL     OW 9812  12.399   5.898  12.394
69327SOL    HW1 9813  12.349   5.861  12.321
69327SOL    HW2 9814  12.350   5.977  12.419
69328SOL     OW 9815   7.504   1.013   7.952
69328SOL    HW1 9816   7.436   0.974   7.897
69328SOL    HW2 9817   7.517   1.101   7.916
69329SOL     OW 9818   9.562   8.192  13.606
69329SOL    HW1 9819   9.644   8.233  13.633
69329SOL    HW2 9820   9.516   8.176  13.689
69330SOL     OW 9821   4.513   0.253   4.858
69330SOL    HW1 9822   4.476   0.198   4.927
69330SOL    HW2 9823   4.438   0.292   4.815
69331SOL     OW 9824   0.817  12.774   0.684
69331SOL    HW1 9825   0.871  12.704   0.719
69331SOL    HW2 9826   0.851  12.789   0.596
69332SOL     OW 9827   2.194  12.944   1.793
69332SOL    HW1 9828   2.273  12.955   1.847
69332SOL    HW2 9829   2.198  12.853   1.764
69333SOL     OW 9830   9.400  13.256   8.781
69333SOL    HW1 9831   9.313  13.221   8.762
69333SOL    HW2 9832   9.442  13.266   8.696
69334SOL     OW 9833  13.482   7.191   7.913
69334SOL    HW1 9834  13.551   7.241   7.869
69334SOL    HW2 9835  13.490   7.215   8.005
69335SOL     OW 9836  10.909   2.165   3.557
69335SOL    HW1 9837  10.843   2.116   3.606
69335SOL    HW2 9838  10.990   2.117   3.572
69336SOL     OW 9839   8.338   0.505  14.139
69336SOL    HW1 9840   8.249   0.525  14.107
69336SOL    HW2 9841   8.330   0.506  14.234
69337SOL     OW 9842   0.942  11.923   1.355
69337SOL    HW1 9843   1.007  11.862   1.388
69337SOL    HW2 9844   0.867  11.868   1.331
69338SOL     OW 9845  14.410   8.259   0.514
69338SOL    HW1 9846  14.367   8.192   0.567
69338SOL    HW2 9847  14.447   8.211   0.440
69339SOL     OW 9848   0.692   2.247   0.337
69339SOL    HW1 9849   0.730   2.278   0.255
69339SOL    HW2 9850   0.749   2.283   0.405
69340SOL     OW 9851   8.154   7.171   3.843
69340SOL    HW1 9852   8.195   7.131   3.920
69340SOL    HW2 9853   8.149   7.264   3.863
69341SOL     OW 9854   3.514  10.441   4.347
69341SOL    HW1 9855   3.545  10.366   4.297
69341SOL    HW2 9856   3.426  10.416   4.376
69342SOL     OW 9857  12.300   4.219   7.008
69342SOL    HW1 9858  12.221   4.173   6.981
69342SOL    HW2 9859  12.369   4.183   6.953
69343SOL     OW 9860  11.674   5.300   8.331
69343SOL    HW1 9861  11.718   5.265   8.254
69343SOL    HW2 9862  11.743   5.309   8.396
69344SOL     OW 9863   8.055   4.198   0.021
69344SOL    HW1 9864   8.066   4.122  14.847
69344SOL    HW2 9865   8.133   4.251   0.005
69345SOL     OW 9866  10.387   4.586   1.725
69345SOL    HW1 9867  10.293   4.603   1.716
69345SOL    HW2 9868  10.404   4.515   1.662
69346SOL     OW 9869   9.245   0.122   1.938
69346SOL    HW1 9870   9.198   0.203   1.921
69346SOL    HW2 9871   9.232   0.106   2.032
69347SOL     OW 9872   1.224   4.221   4.484
69347SOL    HW1 9873   1.249   4.132   4.462
69347SOL    HW2 9874   1.196   4.217   4.575
69348SOL     OW 9875   9.015  13.730   4.092
69348SOL    HW1 9876   9.053  13.813   4.120
69348SOL    HW2 9877   9.089  13.680   4.057
69349SOL     OW 9878   0.246  10.073   9.700
69349SOL    HW1 9879   0.248   9.981   9.676
69349SOL    HW2 9880   0.154  10.092   9.718
69350SOL     OW 9881  11.377  10.032  11.433
69350SOL    HW1 9882  11.399   9.945  11.399
69350SOL    HW2 9883  11.301  10.017  11.489
69351SOL     OW 9884   9.714  10.462   0.301
69351SOL    HW1 9885   9.692  10.493   0.389
69351SOL    HW2 9886   9.681  10.373   0.298
69352SOL     OW 9887   2.035  13.199  12.734
69352SOL    HW1 9888   1.993  13.267  12.681
69352SOL    HW2 9889   1.970  13.128  12.736
69353SOL     OW 9890   0.808  14.463   1.896
69353SOL    HW1 9891   0.743  14.429   1.835
69353SOL    HW2 9892   0.777  14.435   1.982
69354SOL     OW 9893   5.102   3.404   4.399
69354SOL    HW1 9894   5.041   3.408   4.325
69354SOL    HW2 9895   5.047   3.382   4.474
69355SOL     OW 9896   6.661   0.012  13.422
69355SOL    HW1 9897   6.730  14.850  13.471
69355SOL    HW2 9898   6.702   0.032  13.337
69356SOL     OW 9899   1.607   2.943   9.264
69356SOL    HW1 9900   1.613   2.903   9.351
69356SOL    HW2 9901   1.522   2.914   9.231
69357SOL     OW 9902   8.540  10.591   1.235
69357SOL    HW1 9903   8.620  10.540   1.225
69357SOL    HW2 9904   8.470  10.528   1.223
69358SOL     OW 9905   8.167  13.654  10.832
69358SOL    HW1 9906   8.156  13.559  10.833
69358SOL    HW2 9907   8.086  13.687  10.792
69359SOL     OW 9908   8.658   6.222  13.861
69359SOL    HW1 9909   8.698   6.139  13.833
69359SOL    HW2 9910   8.683   6.230  13.953
69360SOL     OW 9911   1.477   1.498   8.761
69360SOL    HW1 9912   1.432   1.419   8.730
69360SOL    HW2 9913   1.569   1.474   8.761
69361SOL     OW 9914  11.238  12.145  14.238
69361SOL    HW1 9915  11.256  12.193  14.158
69361SOL    HW2 9916  11.184  12.204  14.291
69362SOL     OW 9917  10.676   1.123   9.527
69362SOL    HW1 9918  10.694   1.149   9.617
69362SOL    HW2 9919  10.684   1.205   9.477
69363SOL     OW 9920  11.920   9.524  12.662
69363SOL    HW1 9921  11.898   9.547  12.752
69363SOL    HW2 9922  11.894   9.433  12.653
69364SOL     OW 9923  12.367   8.331  12.857
69364SOL    HW1 9924  12.352   8.314  12.764
69364SOL    HW2 9925  12.459   8.308  12.871
69365SOL     OW 9926   7.352   7.829   9.581
69365SOL    HW1 9927   7.304   7.818   9.663
69365SOL    HW2 9928   7.439   7.859   9.609
69366SOL     OW 9929  13.959   7.670  13.825
69366SOL    HW1 9930  13.889   7.661  13.889
69366SOL    HW2 9931  14.031   7.618  13.860
69367SOL     OW 9932   8.759   4.965   5.604
69367SOL    HW1 9933   8.854   4.969   5.617
69367SOL    HW2 9934   8.738   5.045   5.556
69368SOL     OW 9935   5.336   6.991   7.963
69368SOL    HW1 9936   5.368   7.079   7.945
69368SOL    HW2 9937   5.278   7.000   8.039
69369SOL     OW 9938   0.206   4.602  12.363
69369SOL    HW1 9939   0.215   4.677  12.422
69369SOL    HW2 9940   0.112   4.591  12.353
69370SOL     OW 9941   5.909  12.711   0.645
69370SOL    HW1 9942   5.964  12.663   0.706
69370SOL    HW2 9943   5.949  12.696   0.560
69371SOL     OW 9944   4.281   4.563   4.398
69371SOL    HW1 9945   4.313   4.653   4.391
69371SOL    HW2 9946   4.240   4.546   4.313
69372SOL     OW 9947  12.956   9.927   8.408
69372SOL    HW1 9948  13.003  10.010   8.418
69372SOL    HW2 9949  12.960   9.887   8.495
69373SOL     OW 9950  14.881  12.258   4.834
69373SOL    HW1 9951  14.814  12.190   4.829
69373SOL    HW2 9952  14.860  12.306   4.914
69374SOL     OW 9953   4.499   7.096   4.389
69374SOL    HW1 9954   4.405   7.086   4.372
69374SOL    HW2 9955   4.523   7.016   4.436
69375SOL     OW 9956  10.507   3.841   6.386
69375SOL    HW1 9957  10.466   3.805   6.465
69375SOL    HW2 9958  10.508   3.768   6.324
69376SOL     OW 9959   1.578   3.118  12.716
69376SOL    HW1 9960   1.594   3.181  12.787
69376SOL    HW2 9961   1.571   3.172  12.637
69377SOL     OW 9962   3.626   8.214   8.945
69377SOL    HW1 9963   3.622   8.142   8.882
69377SOL    HW2 9964   3.702   8.193   8.999
69378SOL     OW 9965  12.124   7.851  13.098
69378SOL    HW1 9966  12.092   7.773  13.144
69378SOL    HW2 9967  12.047   7.889  13.058
69379SOL     OW 9968  13.604   4.994   4.689
69379SOL    HW1 9969  13.585   4.904   4.713
69379SOL    HW2 9970  13.590   4.997   4.594
69380SOL     OW 9971   4.315   6.014   6.262
69380SOL    HW1 9972   4.386   5.958   6.229
69380SOL    HW2 9973   4.300   5.983   6.351
69381SOL     OW 9974   9.663  10.752   3.514
69381SOL    HW1 9975   9.735  10.762   3.575
69381SOL    HW2 9976   9.587  10.788   3.560
69382SOL     OW 9977  11.089  13.467   4.575
69382SOL    HW1 9978  11.025  13.396   4.570
69382SOL    HW2 9979  11.070  13.511   4.657
69383SOL     OW 9980  10.317   3.769   5.948
69383SOL    HW1 9981  10.402   3.790   5.909
69383SOL    HW2 9982  10.317   3.674   5.957
69384SOL     OW 9983   4.176  12.224   1.416
69384SOL    HW1 9984   4.148  12.297   1.472
69384SOL    HW2 9985   4.096  12.173   1.403
69385SOL     OW 9986   3.024   8.922  10.442
69385SOL    HW1 9987   3.016   8.986  10.371
69385SOL    HW2 9988   2.939   8.878  10.444
69386SOL     OW 9989  12.664  12.855   5.265
69386SOL    HW1 9990  12.614  12.875   5.344
69386SOL    HW2 9991  12.736  12.918   5.265
69387SOL     OW 9992  12.125   8.849  10.454
69387SOL    HW1 9993  12.114   8.889  10.368
69387SOL    HW2 9994  12.035   8.832  10.483
69388SOL     OW 9995   0.322  12.448  11.021
69388SOL    HW1 9996   0.286  12.374  11.071
69388SOL    HW2 9997   0.343  12.514  11.087
69389SOL     OW 9998   7.305   9.849  13.573
69389SOL    HW1 9999   7.281   9.845  13.480
69389SOL    HW210000   7.263   9.772  13.611
69390SOL     OW10001  14.056   6.664  12.277
69390SOL    HW110002  14.026   6.578  12.305
69390SOL    HW210003  14.044   6.664  12.182
69391SOL     OW10004   5.460   0.169  14.441
69391SOL    HW110005   5.442   0.136  14.529
69391SOL    HW210006   5.432   0.261  14.444
69392SOL     OW10007  10.292   2.416   5.404
69392SOL    HW110008  10.313   2.421   5.310
69392SOL    HW210009  10.225   2.348   5.409
69393SOL     OW10010   1.291   1.102   1.796
69393SOL    HW110011   1.280   1.168   1.865
69393SOL    HW210012   1.216   1.044   1.806
69394SOL     OW10013   5.930   9.796   0.208
69394SOL    HW110014   5.943   9.885   0.242
69394SOL    HW210015   5.911   9.808   0.115
69395SOL     OW10016  10.596  12.241   5.151
69395SOL    HW110017  10.553  12.216   5.233
69395SOL    HW210018  10.601  12.336   5.154
69396SOL     OW10019  14.483   3.824  12.890
69396SOL    HW110020  14.510   3.754  12.830
69396SOL    HW210021  14.410   3.787  12.940
69397SOL     OW10022   1.119  10.098  10.970
69397SOL    HW110023   1.044  10.152  10.996
69397SOL    HW210024   1.137  10.124  10.880
69398SOL     OW10025   1.552  12.926   2.172
69398SOL    HW110026   1.481  12.989   2.158
69398SOL    HW210027   1.509  12.840   2.168
69399SOL     OW10028   4.883   1.299   4.785
69399SOL    HW110029   4.914   1.255   4.864
69399SOL    HW210030   4.943   1.269   4.716
69400SOL     OW10031  11.928   5.478  12.097
69400SOL    HW110032  11.875   5.423  12.154
69400SOL    HW210033  11.917   5.441  12.010
69401SOL     OW10034   9.006   4.207  13.943
69401SOL    HW110035   8.948   4.282  13.933
69401SOL    HW210036   9.007   4.165  13.857
69402SOL     OW10037   3.011   8.958  13.614
69402SOL    HW110038   3.088   8.966  13.557
69402SOL    HW210039   3.016   9.035  13.671
69403SOL     OW10040  13.536   3.332  11.354
69403SOL    HW110041  13.449   3.316  11.391
69403SOL    HW210042  13.526   3.408  11.298
69404SOL     OW10043  12.933   4.123   3.237
69404SOL    HW110044  12.846   4.163   3.249
69404SOL    HW210045  12.991   4.197   3.217
69405SOL     OW10046   8.517   0.418   4.921
69405SOL    HW110047   8.434   0.386   4.885
69405SOL    HW210048   8.514   0.513   4.907
69406SOL     OW10049  10.678   1.754   3.634
69406SOL    HW110050  10.601   1.724   3.683
69406SOL    HW210051  10.750   1.702   3.669
69407SOL     OW10052   8.384   5.514   7.367
69407SOL    HW110053   8.468   5.469   7.353
69407SOL    HW210054   8.405   5.607   7.357
69408SOL     OW10055   6.114   9.512  10.394
69408SOL    HW110056   6.034   9.506  10.446
69408SOL    HW210057   6.167   9.577  10.439
69409SOL     OW10058   0.508   6.788   5.526
69409SOL    HW110059   0.529   6.850   5.456
69409SOL    HW210060   0.556   6.821   5.602
69410SOL     OW10061   1.689   3.216  10.272
69410SOL    HW110062   1.752   3.236  10.202
69410SOL    HW210063   1.709   3.280  10.340
69411SOL     OW10064  12.109  10.343   6.225
69411SOL    HW110065  12.060  10.410   6.273
69411SOL    HW210066  12.124  10.381   6.139
69412SOL     OW10067   0.302   3.081  13.639
69412SOL    HW110068   0.215   3.097  13.602
69412SOL    HW210069   0.340   3.015  13.581
69413SOL     OW10070  14.206  12.342   3.088
69413SOL    HW110071  14.288  12.384   3.114
69413SOL    HW210072  14.224  12.306   3.001
69414SOL     OW10073   0.710   7.539   0.557
69414SOL    HW110074   0.713   7.615   0.499
69414SOL    HW210075   0.757   7.471   0.509
69415SOL     OW10076  11.127   5.205  11.913
69415SOL    HW110077  11.067   5.234  11.982
69415SOL    HW210078  11.069   5.176  11.842
69416SOL     OW10079  12.299   4.325   8.399
69416SOL    HW110080  12.207   4.304   8.379
69416SOL    HW210081  12.297   4.418   8.422
69417SOL     OW10082  11.806   4.029   3.857
69417SOL    HW110083  11.746   4.013   3.929
69417SOL    HW210084  11.830   3.942   3.825
69418SOL     OW10085   9.889   2.780  11.275
69418SOL    HW110086   9.978   2.791  11.309
69418SOL    HW210087   9.835   2.769  11.352
69419SOL     OW10088   1.343   4.990   2.923
69419SOL    HW110089   1.305   4.903   2.905
69419SOL    HW210090   1.409   5.002   2.854
69420SOL     OW10091  14.020   6.497  13.256
69420SOL    HW110092  14.115   6.494  13.245
69420SOL    HW210093  14.007   6.498  13.350
69421SOL     OW10094   7.865   2.209   6.760
69421SOL    HW110095   7.824   2.219   6.846
69421SOL    HW210096   7.860   2.296   6.721
69422SOL     OW10097   7.515   6.164   4.884
69422SOL    HW110098   7.535   6.196   4.796
69422SOL    HW210099   7.564   6.082   4.891
69423SOL     OW10100  11.335   9.298   7.400
69423SOL    HW110101  11.257   9.297   7.456
69423SOL    HW210102  11.376   9.382   7.417
69424SOL     OW10103  14.169   7.016   9.613
69424SOL    HW110104  14.253   7.001   9.656
69424SOL    HW210105  14.112   6.948   9.649
69425SOL     OW10106   1.740  11.147  12.313
69425SOL    HW110107   1.729  11.159  12.219
69425SOL    HW210108   1.692  11.066  12.333
69426SOL     OW10109   4.250  10.022  10.095
69426SOL    HW110110   4.278  10.084  10.028
69426SOL    HW210111   4.303   9.944  10.079
69427SOL     OW10112   4.874   7.696   0.773
69427SOL    HW110113   4.877   7.788   0.796
69427SOL    HW210114   4.786   7.684   0.736
69428SOL     OW10115   1.946   2.439   2.554
69428SOL    HW110116   1.878   2.457   2.619
69428SOL    HW210117   1.904   2.458   2.470
69429SOL     OW10118   6.042  14.077   8.815
69429SOL    HW110119   6.063  14.139   8.745
69429SOL    HW210120   6.020  13.996   8.770
69430SOL     OW10121   7.983  12.997   0.857
69430SOL    HW110122   7.945  12.918   0.819
69430SOL    HW210123   7.919  13.026   0.922
69431SOL     OW10124   4.642  13.919  14.335
69431SOL    HW110125   4.689  13.855  14.281
69431SOL    HW210126   4.551  13.911  14.308
69432SOL     OW10127   3.352  12.421   4.498
69432SOL    HW110128   3.338  12.330   4.527
69432SOL    HW210129   3.438  12.420   4.457
69433SOL     OW10130   7.197  12.359  11.689
69433SOL    HW110131   7.191  12.328  11.780
69433SOL    HW210132   7.133  12.430  11.684
69434SOL     OW10133   0.037   2.284  12.704
69434SOL    HW110134   0.124   2.293  12.743
69434SOL    HW210135   0.054   2.274  12.610
69435SOL     OW10136   9.906   3.542  11.281
69435SOL    HW110137   9.823   3.588  11.295
69435SOL    HW210138   9.897   3.501  11.195
69436SOL     OW10139   7.579   4.691  14.686
69436SOL    HW110140   7.562   4.748  14.611
69436SOL    HW210141   7.662   4.722  14.722
69437SOL     OW10142  11.718   6.600   3.921
69437SOL    HW110143  11.711   6.518   3.872
69437SOL    HW210144  11.628   6.619   3.948
69438SOL     OW10145   6.519  11.822  13.707
69438SOL    HW110146   6.497  11.742  13.659
69438SOL    HW210147   6.482  11.810  13.794
69439SOL     OW10148   7.102  13.964   6.018
69439SOL    HW110149   7.074  13.948   5.927
69439SOL    HW210150   7.049  13.904   6.070
69440SOL     OW10151   2.982   0.578   9.967
69440SOL    HW110152   3.021   0.620  10.044
69440SOL    HW210153   3.031   0.614   9.893
69441SOL     OW10154   9.621   6.811   2.864
69441SOL    HW110155   9.634   6.716   2.859
69441SOL    HW210156   9.650   6.843   2.778
69442SOL     OW10157   7.810  10.372   2.212
69442SOL    HW110158   7.900  10.363   2.181
69442SOL    HW210159   7.817  10.430   2.288
69443SOL     OW10160   0.270   5.642   9.180
69443SOL    HW110161   0.269   5.556   9.138
69443SOL    HW210162   0.197   5.689   9.140
69444SOL     OW10163   7.975  12.996   2.748
69444SOL    HW110164   8.000  13.081   2.711
69444SOL    HW210165   8.015  12.995   2.835
69445SOL     OW10166   5.242   0.161   9.523
69445SOL    HW110167   5.338   0.156   9.527
69445SOL    HW210168   5.214   0.072   9.505
69446SOL     OW10169   6.496   0.455   4.738
69446SOL    HW110170   6.515   0.375   4.688
69446SOL    HW210171   6.526   0.526   4.682
69447SOL     OW10172  13.629  13.215   9.798
69447SOL    HW110173  13.683  13.281   9.841
69447SOL    HW210174  13.675  13.196   9.716
69448SOL     OW10175  10.512   7.369   9.381
69448SOL    HW110176  10.522   7.331   9.294
69448SOL    HW210177  10.600   7.363   9.419
69449SOL     OW10178   0.257   1.487  10.606
69449SOL    HW110179   0.339   1.535  10.598
69449SOL    HW210180   0.277   1.399  10.574
69450SOL     OW10181  12.797   7.698   2.266
69450SOL    HW110182  12.874   7.690   2.322
69450SOL    HW210183  12.741   7.761   2.312
69451SOL     OW10184   1.321   9.815   0.728
69451SOL    HW110185   1.409   9.786   0.706
69451SOL    HW210186   1.283   9.742   0.778
69452SOL     OW10187  11.630   8.354  11.168
69452SOL    HW110188  11.545   8.345  11.126
69452SOL    HW210189  11.631   8.285  11.235
69453SOL     OW10190   5.697  12.488   5.870
69453SOL    HW110191   5.725  12.537   5.947
69453SOL    HW210192   5.777  12.446   5.838
69454SOL     OW10193  10.087   4.452  12.468
69454SOL    HW110194  10.097   4.451  12.373
69454SOL    HW210195  10.039   4.533  12.486
69455SOL     OW10196  14.049  14.179   9.785
69455SOL    HW110197  13.983  14.192   9.853
69455SOL    HW210198  14.058  14.084   9.779
69456SOL     OW10199   4.162   1.052   1.559
69456SOL    HW110200   4.093   1.118   1.549
69456SOL    HW210201   4.180   1.024   1.469
69457SOL     OW10202   5.574  14.791   2.813
69457SOL    HW110203   5.669  14.794   2.825
69457SOL    HW210204   5.562  14.734   2.737
69458SOL     OW10205  12.477   8.533  11.318
69458SOL    HW110206  12.404   8.547  11.258
69458SOL    HW210207  12.493   8.619  11.356
69459SOL     OW10208   2.768  13.958  13.697
69459SOL    HW110209   2.846  14.002  13.729
69459SOL    HW210210   2.800  13.893  13.635
69460SOL     OW10211  10.442  11.055   6.551
69460SOL    HW110212  10.360  11.029   6.593
69460SOL    HW210213  10.417  11.122   6.488
69461SOL     OW10214   3.595   7.924  11.059
69461SOL    HW110215   3.551   7.882  10.985
69461SOL    HW210216   3.532   7.916  11.131
69462SOL     OW10217   3.712   4.151  14.409
69462SOL    HW110218   3.696   4.245  14.409
69462SOL    HW210219   3.675   4.121  14.492
69463SOL     OW10220   6.156  11.085   6.565
69463SOL    HW110221   6.065  11.116   6.573
69463SOL    HW210222   6.149  11.003   6.517
69464SOL     OW10223   9.739  14.309   4.163
69464SOL    HW110224   9.813  14.295   4.105
69464SOL    HW210225   9.765  14.382   4.219
69465SOL     OW10226   2.393   6.946   2.842
69465SOL    HW110227   2.373   7.020   2.899
69465SOL    HW210228   2.464   6.977   2.786
69466SOL     OW10229  14.322  12.724   8.227
69466SOL    HW110230  14.297  12.764   8.143
69466SOL    HW210231  14.305  12.630   8.215
69467SOL     OW10232  12.028   0.182   3.082
69467SOL    HW110233  11.962   0.135   3.132
69467SOL    HW210234  12.001   0.170   2.991
69468SOL     OW10235  12.372   6.522  10.930
69468SOL    HW110236  12.429   6.599  10.939
69468SOL    HW210237  12.411   6.457  10.988
69469SOL     OW10238  10.549   7.983   7.533
69469SOL    HW110239  10.516   7.893   7.532
69469SOL    HW210240  10.472   8.037   7.550
69470SOL     OW10241   1.005  11.934   8.945
69470SOL    HW110242   1.037  11.984   8.870
69470SOL    HW210243   1.012  11.843   8.918
69471SOL     OW10244  14.052   4.593   8.963
69471SOL    HW110245  14.117   4.576   8.896
69471SOL    HW210246  13.973   4.548   8.933
69472SOL     OW10247   1.663   5.769  11.347
69472SOL    HW110248   1.660   5.779  11.252
69472SOL    HW210249   1.715   5.843  11.378
69473SOL     OW10250  11.839   7.556   9.313
69473SOL    HW110251  11.922   7.511   9.332
69473SOL    HW210252  11.842   7.635   9.368
69474SOL     OW10253   2.565  13.776  13.007
69474SOL    HW110254   2.591  13.712  13.075
69474SOL    HW210255   2.571  13.727  12.925
69475SOL     OW10256   8.172   2.606  10.189
69475SOL    HW110257   8.127   2.670  10.134
69475SOL    HW210258   8.151   2.522  10.150
69476SOL     OW10259   7.331   3.777   2.918
69476SOL    HW110260   7.426   3.768   2.910
69476SOL    HW210261   7.298   3.757   2.830
69477SOL     OW10262   0.638   1.406   2.179
69477SOL    HW110263   0.577   1.469   2.216
69477SOL    HW210264   0.714   1.408   2.237
69478SOL     OW10265   6.480   0.681   4.524
69478SOL    HW110266   6.479   0.771   4.492
69478SOL    HW210267   6.484   0.627   4.445
69479SOL     OW10268   7.988   9.058  10.941
69479SOL    HW110269   8.021   9.058  10.851
69479SOL    HW210270   7.934   8.979  10.947
69480SOL     OW10271  10.130  12.408   2.360
69480SOL    HW110272  10.050  12.456   2.380
69480SOL    HW210273  10.179  12.467   2.303
69481SOL     OW10274   5.333   2.440   2.696
69481SOL    HW110275   5.299   2.355   2.723
69481SOL    HW210276   5.398   2.462   2.762
69482SOL     OW10277   8.962   7.136   2.866
69482SOL    HW110278   8.999   7.130   2.778
69482SOL    HW210279   8.884   7.191   2.855
69483SOL     OW10280  13.734   9.635  14.095
69483SOL    HW110281  13.647   9.671  14.077
69483SOL    HW210282  13.794   9.702  14.064
69484SOL     OW10283   8.785   8.759   7.998
69484SOL    HW110284   8.743   8.678   8.028
69484SOL    HW210285   8.722   8.828   8.022
69485SOL     OW10286   1.788  10.817   0.898
69485SOL    HW110287   1.883  10.824   0.885
69485SOL    HW210288   1.769  10.724   0.893
69486SOL     OW10289  12.086   5.985   3.833
69486SOL    HW110290  12.118   6.066   3.793
69486SOL    HW210291  12.161   5.951   3.881
69487SOL     OW10292  13.103   9.598   3.986
69487SOL    HW110293  13.113   9.685   4.025
69487SOL    HW210294  13.115   9.537   4.059
69488SOL     OW10295   9.398   3.100   9.324
69488SOL    HW110296   9.492   3.096   9.341
69488SOL    HW210297   9.372   3.009   9.310
69489SOL     OW10298   3.960   9.945  14.274
69489SOL    HW110299   3.972   9.922  14.182
69489SOL    HW210300   4.047   9.972  14.303
69490SOL     OW10301  12.246   1.294  10.005
69490SOL    HW110302  12.248   1.321   9.913
69490SOL    HW210303  12.162   1.327  10.038
69491SOL     OW10304   7.933   7.064  13.250
69491SOL    HW110305   7.880   7.092  13.325
69491SOL    HW210306   8.022   7.086  13.275
69492SOL     OW10307   3.240  11.839   4.702
69492SOL    HW110308   3.290  11.816   4.624
69492SOL    HW210309   3.307  11.855   4.769
69493SOL     OW10310  14.571   9.939   6.913
69493SOL    HW110311  14.491   9.987   6.891
69493SOL    HW210312  14.596   9.972   6.999
69494SOL     OW10313  10.532   7.889  14.658
69494SOL    HW110314  10.619   7.851  14.643
69494SOL    HW210315  10.472   7.815  14.647
69495SOL     OW10316   1.765   2.522  13.754
69495SOL    HW110317   1.702   2.535  13.684
69495SOL    HW210318   1.819   2.449  13.725
69496SOL     OW10319   3.345   6.333   4.113
69496SOL    HW110320   3.280   6.268   4.086
69496SOL    HW210321   3.296   6.393   4.170
69497SOL     OW10322   4.988   1.547   8.491
69497SOL    HW110323   4.932   1.602   8.546
69497SOL    HW210324   5.042   1.608   8.442
69498SOL     OW10325   2.378   7.531   7.003
69498SOL    HW110326   2.454   7.578   7.036
69498SOL    HW210327   2.409   7.488   6.923
69499SOL     OW10328   2.747  13.979   1.909
69499SOL    HW110329   2.826  13.997   1.857
69499SOL    HW210330   2.676  14.017   1.858
69500SOL     OW10331   6.514   4.963  12.507
69500SOL    HW110332   6.461   5.040  12.488
69500SOL    HW210333   6.562   4.987  12.587
69501SOL     OW10334   9.296   2.525  10.646
69501SOL    HW110335   9.242   2.511  10.568
69501SOL    HW210336   9.315   2.437  10.677
69502SOL     OW10337  10.401   7.630   3.590
69502SOL    HW110338  10.480   7.664   3.548
69502SOL    HW210339  10.350   7.593   3.518
69503SOL     OW10340   4.577  11.490  11.355
69503SOL    HW110341   4.532  11.487  11.439
69503SOL    HW210342   4.587  11.583  11.336
69504SOL     OW10343   0.199   9.122   1.280
69504SOL    HW110344   0.226   9.048   1.227
69504SOL    HW210345   0.252   9.195   1.249
69505SOL     OW10346   3.785   4.054  11.844
69505SOL    HW110347   3.872   4.025  11.872
69505SOL    HW210348   3.799   4.142  11.810
69506SOL     OW10349  11.397   9.993  13.228
69506SOL    HW110350  11.331  10.061  13.236
69506SOL    HW210351  11.440  10.012  13.144
69507SOL     OW10352  10.992  13.451  14.017
69507SOL    HW110353  10.945  13.411  14.090
69507SOL    HW210354  11.014  13.539  14.048
69508SOL     OW10355   0.104   7.723   5.409
69508SOL    HW110356   0.184   7.765   5.441
69508SOL    HW210357   0.099   7.641   5.458
69509SOL     OW10358   8.975   2.414   1.711
69509SOL    HW110359   8.972   2.490   1.653
69509SOL    HW210360   9.068   2.396   1.723
69510SOL     OW10361   6.187   9.081  13.170
69510SOL    HW110362   6.133   9.101  13.247
69510SOL    HW210363   6.144   9.128  13.099
69511SOL     OW10364   4.953   2.960   0.431
69511SOL    HW110365   4.925   2.891   0.492
69511SOL    HW210366   4.992   3.027   0.487
69512SOL     OW10367   8.462   9.205  11.410
69512SOL    HW110368   8.423   9.123  11.438
69512SOL    HW210369   8.399   9.242  11.348
69513SOL     OW10370   6.506   7.672   2.147
69513SOL    HW110371   6.558   7.648   2.223
69513SOL    HW210372   6.420   7.695   2.183
69514SOL     OW10373   3.085   4.258  10.577
69514SOL    HW110374   3.059   4.282  10.488
69514SOL    HW210375   3.091   4.341  10.623
69515SOL     OW10376   0.726  13.368   6.898
69515SOL    HW110377   0.642  13.362   6.943
69515SOL    HW210378   0.775  13.434   6.948
69516SOL     OW10379   5.777  12.717   9.410
69516SOL    HW110380   5.741  12.707   9.322
69516SOL    HW210381   5.709  12.763   9.458
69517SOL     OW10382  12.685   7.307   7.669
69517SOL    HW110383  12.688   7.402   7.679
69517SOL    HW210384  12.686   7.273   7.758
69518SOL     OW10385   4.859   3.716  14.321
69518SOL    HW110386   4.949   3.726  14.291
69518SOL    HW210387   4.863   3.644  14.384
69519SOL     OW10388   0.016   7.646  12.315
69519SOL    HW110389  14.841   7.579  12.279
69519SOL    HW210390   0.035   7.617  12.404
69520SOL     OW10391   5.567   3.755   2.797
69520SOL    HW110392   5.613   3.719   2.721
69520SOL    HW210393   5.488   3.794   2.760
69521SOL     OW10394   4.394   9.254   5.701
69521SOL    HW110395   4.460   9.199   5.658
69521SOL    HW210396   4.311   9.212   5.679
69522SOL     OW10397   0.173  11.509  12.273
69522SOL    HW110398   0.204  11.424  12.305
69522SOL    HW210399   0.226  11.526  12.195
69523SOL     OW10400  11.429   7.646  14.528
69523SOL    HW110401  11.423   7.735  14.495
69523SOL    HW210402  11.356   7.639  14.590
69524SOL     OW10403   6.915   5.060  13.131
69524SOL    HW110404   6.864   5.035  13.055
69524SOL    HW210405   6.920   5.156  13.126
69525SOL     OW10406   4.791   1.158  13.041
69525SOL    HW110407   4.855   1.183  13.109
69525SOL    HW210408   4.786   1.235  12.985
69526SOL     OW10409   4.651  11.719  12.800
69526SOL    HW110410   4.658  11.703  12.706
69526SOL    HW210411   4.586  11.789  12.808
69527SOL     OW10412   2.633  14.310  11.548
69527SOL    HW110413   2.567  14.245  11.527
69527SOL    HW210414   2.611  14.385  11.492
69528SOL     OW10415   5.860   4.338   5.885
69528SOL    HW110416   5.770   4.348   5.916
69528SOL    HW210417   5.851   4.307   5.795
69529SOL     OW10418   4.000   6.254  14.674
69529SOL    HW110419   4.085   6.295  14.655
69529SOL    HW210420   3.945   6.327  14.703
69530SOL     OW10421   9.974   7.787   5.630
69530SOL    HW110422  10.032   7.859   5.606
69530SOL    HW210423   9.989   7.774   5.723
69531SOL     OW10424   0.287  13.728  10.544
69531SOL    HW110425   0.361  13.689  10.591
69531SOL    HW210426   0.313  13.723  10.452
69532SOL     OW10427   6.934   1.562   2.780
69532SOL    HW110428   6.864   1.527   2.725
69532SOL    HW210429   6.949   1.650   2.746
69533SOL     OW10430   5.744   6.240   5.409
69533SOL    HW110431   5.788   6.207   5.488
69533SOL    HW210432   5.675   6.298   5.443
69534SOL     OW10433   1.134   5.957   6.505
69534SOL    HW110434   1.076   5.882   6.491
69534SOL    HW210435   1.085   6.013   6.566
69535SOL     OW10436  10.977   7.806   4.714
69535SOL    HW110437  11.022   7.732   4.674
69535SOL    HW210438  11.036   7.834   4.784
69536SOL     OW10439  12.764   4.957   7.932
69536SOL    HW110440  12.802   4.886   7.984
69536SOL    HW210441  12.729   4.913   7.854
69537SOL     OW10442  12.854   2.913   0.188
69537SOL    HW110443  12.868   3.007   0.203
69537SOL    HW210444  12.921   2.890   0.123
69538SOL     OW10445   5.286   0.939  13.490
69538SOL    HW110446   5.284   0.866  13.551
69538SOL    HW210447   5.215   0.921  13.428
69539SOL     OW10448   9.583   9.148   1.681
69539SOL    HW110449   9.633   9.197   1.616
69539SOL    HW210450   9.555   9.214   1.744
69540SOL     OW10451   0.453   1.551   7.752
69540SOL    HW110452   0.543   1.561   7.721
69540SOL    HW210453   0.442   1.456   7.762
69541SOL     OW10454  12.469   0.025   4.036
69541SOL    HW110455  12.515   0.088   4.092
69541SOL    HW210456  12.539  14.852   3.999
69542SOL     OW10457   9.937   8.307  12.180
69542SOL    HW110458   9.878   8.244  12.138
69542SOL    HW210459  10.000   8.330  12.111
69543SOL     OW10460   7.168   5.173   8.391
69543SOL    HW110461   7.228   5.174   8.317
69543SOL    HW210462   7.217   5.216   8.462
69544SOL     OW10463   0.023  12.437   6.144
69544SOL    HW110464   0.113  12.413   6.164
69544SOL    HW210465   0.009  12.406   6.054
69545SOL     OW10466  14.737   8.672   8.158
69545SOL    HW110467  14.657   8.619   8.153
69545SOL    HW210468  14.709   8.754   8.200
69546SOL     OW10469  14.850  14.789   3.946
69546SOL    HW110470  14.799  14.761   3.869
69546SOL    HW210471   0.036  14.722   3.955
69547SOL     OW10472   7.385   2.231  13.937
69547SOL    HW110473   7.469   2.205  13.975
69547SOL    HW210474   7.358   2.155  13.885
69548SOL     OW10475   9.307   5.231   3.548
69548SOL    HW110476   9.388   5.275   3.572
69548SOL    HW210477   9.334   5.142   3.525
69549SOL     OW10478   4.450  10.106   2.907
69549SOL    HW110479   4.456  10.040   2.839
69549SOL    HW210480   4.540  10.134   2.922
69550SOL     OW10481   4.928  12.066  14.636
69550SOL    HW110482   4.992  12.011  14.591
69550SOL    HW210483   4.902  12.015  14.712
69551SOL     OW10484   3.991  11.145   0.020
69551SOL    HW110485   4.055  11.087  14.861
69551SOL    HW210486   4.042  11.222   0.046
69552SOL     OW10487   7.780   7.442   9.634
69552SOL    HW110488   7.697   7.411   9.672
69552SOL    HW210489   7.847   7.407   9.692
69553SOL     OW10490  14.794   9.020   8.676
69553SOL    HW110491  14.875   8.970   8.668
69553SOL    HW210492  14.734   8.961   8.722
69554SOL     OW10493   9.364   2.494   2.454
69554SOL    HW110494   9.324   2.457   2.533
69554SOL    HW210495   9.436   2.435   2.434
69555SOL     OW10496   6.614   2.398   6.506
69555SOL    HW110497   6.527   2.361   6.494
69555SOL    HW210498   6.610   2.442   6.592
69556SOL     OW10499  13.252   0.871   7.099
69556SOL    HW110500  13.311   0.824   7.158
69556SOL    HW210501  13.198   0.926   7.156
69557SOL     OW10502   9.927   2.899   4.712
69557SOL    HW110503   9.878   2.881   4.632
69557SOL    HW210504  10.014   2.862   4.695
69558SOL     OW10505   3.946   2.459  14.101
69558SOL    HW110506   3.923   2.371  14.073
69558SOL    HW210507   3.905   2.469  14.187
69559SOL     OW10508  12.949   5.692   5.893
69559SOL    HW110509  12.909   5.661   5.812
69559SOL    HW210510  12.957   5.786   5.882
69560SOL     OW10511  14.380   8.331   7.172
69560SOL    HW110512  14.318   8.340   7.244
69560SOL    HW210513  14.328   8.343   7.093
69561SOL     OW10514   6.739   8.936   1.131
69561SOL    HW110515   6.821   8.925   1.178
69561SOL    HW210516   6.753   8.892   1.047
69562SOL     OW10517   0.685   8.994  10.440
69562SOL    HW110518   0.607   9.009  10.387
69562SOL    HW210519   0.758   9.010  10.380
69563SOL     OW10520  13.499  10.668   3.648
69563SOL    HW110521  13.481  10.677   3.554
69563SOL    HW210522  13.440  10.730   3.690
69564SOL     OW10523  11.939   1.984  11.376
69564SOL    HW110524  12.011   1.934  11.338
69564SOL    HW210525  11.896   2.025  11.300
69565SOL     OW10526   0.855   7.238  11.337
69565SOL    HW110527   0.874   7.312  11.279
69565SOL    HW210528   0.818   7.278  11.416
69566SOL     OW10529  12.393   8.273  10.160
69566SOL    HW110530  12.383   8.228  10.243
69566SOL    HW210531  12.336   8.350  10.167
69567SOL     OW10532   9.184  11.826  10.523
69567SOL    HW110533   9.262  11.841  10.577
69567SOL    HW210534   9.113  11.869  10.571
69568SOL     OW10535  11.229   2.591   9.086
69568SOL    HW110536  11.243   2.641   9.006
69568SOL    HW210537  11.171   2.645   9.139
69569SOL     OW10538   3.420   9.785   9.894
69569SOL    HW110539   3.485   9.729   9.852
69569SOL    HW210540   3.344   9.728   9.908
69570SOL     OW10541   4.281   3.771   6.923
69570SOL    HW110542   4.215   3.709   6.894
69570SOL    HW210543   4.345   3.773   6.852
69571SOL     OW10544   5.497  14.665  13.723
69571SOL    HW110545   5.491  14.570  13.737
69571SOL    HW210546   5.526  14.699  13.807
69572SOL     OW10547   2.712  10.557   6.111
69572SOL    HW110548   2.710  10.478   6.163
69572SOL    HW210549   2.770  10.537   6.038
69573SOL     OW10550  10.392   7.509  11.493
69573SOL    HW110551  10.339   7.493  11.571
69573SOL    HW210552  10.408   7.422  11.457
69574SOL     OW10553   0.525   6.764   6.417
69574SOL    HW110554   0.485   6.844   6.451
69574SOL    HW210555   0.480   6.693   6.462
69575SOL     OW10556  11.847   0.043   3.247
69575SOL    HW110557  11.898   0.083   3.317
69575SOL    HW210558  11.807  14.848   3.287
69576SOL     OW10559  13.280  14.712   3.125
69576SOL    HW110560  13.284  14.619   3.145
69576SOL    HW210561  13.359  14.730   3.073
69577SOL     OW10562  12.400  14.787   6.153
69577SOL    HW110563  12.437  14.811   6.238
69577SOL    HW210564  12.311  14.759   6.172
69578SOL     OW10565  11.685   2.033   3.294
69578SOL    HW110566  11.713   1.990   3.214
69578SOL    HW210567  11.603   2.077   3.271
69579SOL     OW10568  14.204   4.291  12.145
69579SOL    HW110569  14.275   4.249  12.194
69579SOL    HW210570  14.128   4.235  12.161
69580SOL     OW10571  11.913   4.162   3.097
69580SOL    HW110572  11.863   4.242   3.113
69580SOL    HW210573  11.882   4.101   3.165
69581SOL     OW10574   1.033  12.824   8.429
69581SOL    HW110575   1.085  12.744   8.420
69581SOL    HW210576   0.949  12.794   8.464
69582SOL     OW10577   9.805  10.441   7.420
69582SOL    HW110578   9.885  10.434   7.472
69582SOL    HW210579   9.810  10.369   7.358
69583SOL     OW10580  13.681   6.411   4.133
69583SOL    HW110581  13.643   6.458   4.059
69583SOL    HW210582  13.711   6.328   4.097
69584SOL     OW10583  14.551   3.337   2.481
69584SOL    HW110584  14.618   3.405   2.492
69584SOL    HW210585  14.468   3.386   2.477
69585SOL     OW10586   7.672   5.946   8.644
69585SOL    HW110587   7.711   6.033   8.650
69585SOL    HW210588   7.610   5.952   8.571
69586SOL     OW10589  10.115  12.897   1.368
69586SOL    HW110590  10.023  12.888   1.393
69586SOL    HW210591  10.115  12.882   1.274
69587SOL     OW10592   8.103   7.660   0.626
69587SOL    HW110593   8.050   7.660   0.706
69587SOL    HW210594   8.041   7.637   0.556
69588SOL     OW10595   5.629   0.400   4.642
69588SOL    HW110596   5.703   0.414   4.583
69588SOL    HW210597   5.643   0.463   4.713
69589SOL     OW10598   8.519   8.894   3.916
69589SOL    HW110599   8.481   8.834   3.851
69589SOL    HW210600   8.608   8.862   3.929
69590SOL     OW10601  12.474  10.532   4.235
69590SOL    HW110602  12.541  10.550   4.302
69590SOL    HW210603  12.522  10.489   4.164
69591SOL     OW10604   3.591   8.166   7.589
69591SOL    HW110605   3.560   8.213   7.512
69591SOL    HW210606   3.638   8.090   7.553
69592SOL     OW10607   7.755   9.538   3.121
69592SOL    HW110608   7.784   9.533   3.212
69592SOL    HW210609   7.805   9.612   3.085
69593SOL     OW10610   5.408   9.554  11.348
69593SOL    HW110611   5.335   9.614  11.330
69593SOL    HW210612   5.416   9.555  11.443
69594SOL     OW10613   2.696   5.542  10.807
69594SOL    HW110614   2.618   5.500  10.845
69594SOL    HW210615   2.665   5.579  10.724
69595SOL     OW10616  13.388  11.711   4.381
69595SOL    HW110617  13.371  11.618   4.367
69595SOL    HW210618  13.404  11.747   4.294
69596SOL     OW10619  13.603   8.959   5.769
69596SOL    HW110620  13.572   8.921   5.851
69596SOL    HW210621  13.639   9.044   5.794
69597SOL     OW10622   7.569  12.420  11.355
69597SOL    HW110623   7.607  12.483  11.293
69597SOL    HW210624   7.603  12.446  11.440
69598SOL     OW10625   1.396   2.319   7.875
69598SOL    HW110626   1.316   2.372   7.874
69598SOL    HW210627   1.366   2.230   7.896
69599SOL     OW10628   9.123   3.789   4.858
69599SOL    HW110629   9.128   3.765   4.950
69599SOL    HW210630   9.177   3.725   4.813
69600SOL     OW10631   8.054   6.042   2.139
69600SOL    HW110632   8.091   5.965   2.097
69600SOL    HW210633   8.130   6.094   2.166
69601SOL     OW10634  11.928   8.235  12.593
69601SOL    HW110635  11.924   8.163  12.656
69601SOL    HW210636  11.862   8.297  12.622
69602SOL     OW10637   2.904  14.415  14.198
69602SOL    HW110638   2.848  14.474  14.149
69602SOL    HW210639   2.887  14.328  14.160
69603SOL     OW10640  11.453  12.248  13.724
69603SOL    HW110641  11.368  12.292  13.721
69603SOL    HW210642  11.517  12.320  13.721
69604SOL     OW10643  12.320  11.715   0.536
69604SOL    HW110644  12.274  11.685   0.614
69604SOL    HW210645  12.253  11.718   0.468
69605SOL     OW10646   7.572  10.885  14.692
69605SOL    HW110647   7.632  10.876  14.618
69605SOL    HW210648   7.559  10.980  14.700
69606SOL     OW10649   5.783   8.162  14.238
69606SOL    HW110650   5.871   8.187  14.209
69606SOL    HW210651   5.773   8.206  14.323
69607SOL     OW10652   3.502  10.325  13.247
69607SOL    HW110653   3.566  10.348  13.180
69607SOL    HW210654   3.554  10.293  13.321
69608SOL     OW10655   8.361   6.771  13.033
69608SOL    HW110656   8.283   6.721  13.011
69608SOL    HW210657   8.333   6.832  13.101
69609SOL     OW10658   4.280  14.810   3.437
69609SOL    HW110659   4.313  14.785   3.351
69609SOL    HW210660   4.356  14.801   3.495
69610SOL     OW10661  13.297   9.521   3.291
69610SOL    HW110662  13.381   9.513   3.244
69610SOL    HW210663  13.291   9.614   3.313
69611SOL     OW10664  11.723   2.891   2.438
69611SOL    HW110665  11.744   2.964   2.496
69611SOL    HW210666  11.733   2.928   2.350
69612SOL     OW10667   4.946  11.556   9.974
69612SOL    HW110668   5.016  11.557   9.909
69612SOL    HW210669   4.885  11.489   9.943
69613SOL     OW10670   6.626  11.878   9.319
69613SOL    HW110671   6.661  11.807   9.265
69613SOL    HW210672   6.599  11.836   9.400
69614SOL     OW10673   7.834  11.931   4.247
69614SOL    HW110674   7.923  11.906   4.221
69614SOL    HW210675   7.778  11.900   4.176
69615SOL     OW10676   0.772  11.961  12.969
69615SOL    HW110677   0.739  11.883  12.924
69615SOL    HW210678   0.694  12.000  13.010
69616SOL     OW10679   4.702   7.043   8.959
69616SOL    HW110680   4.692   7.075   9.049
69616SOL    HW210681   4.690   7.120   8.904
69617SOL     OW10682   5.853  11.491  13.258
69617SOL    HW110683   5.849  11.459  13.348
69617SOL    HW210684   5.932  11.546  13.256
69618SOL     OW10685  12.371   9.279   8.175
69618SOL    HW110686  12.378   9.368   8.141
69618SOL    HW210687  12.342   9.290   8.265
69619SOL     OW10688   3.408  13.620  14.436
69619SOL    HW110689   3.460  13.661  14.505
69619SOL    HW210690   3.468  13.609  14.363
69620SOL     OW10691   1.325   3.916  14.379
69620SOL    HW110692   1.370   3.849  14.328
69620SOL    HW210693   1.261   3.868  14.432
69621SOL     OW10694  11.756  13.711   2.767
69621SOL    HW110695  11.849  13.712   2.787
69621SOL    HW210696  11.715  13.665   2.840
69622SOL     OW10697   9.289   0.988   9.213
69622SOL    HW110698   9.263   1.079   9.233
69622SOL    HW210699   9.273   0.980   9.119
69623SOL     OW10700   8.300   6.543   6.225
69623SOL    HW110701   8.206   6.555   6.239
69623SOL    HW210702   8.306   6.493   6.144
69624SOL     OW10703  10.554   3.939   8.738
69624SOL    HW110704  10.477   3.893   8.768
69624SOL    HW210705  10.578   3.895   8.656
69625SOL     OW10706  13.624   6.723   8.560
69625SOL    HW110707  13.650   6.803   8.513
69625SOL    HW210708  13.669   6.730   8.645
69626SOL     OW10709   8.991   0.500   7.817
69626SOL    HW110710   8.991   0.441   7.892
69626SOL    HW210711   8.911   0.551   7.827
69627SOL     OW10712   7.150  12.431  13.995
69627SOL    HW110713   7.115  12.435  13.906
69627SOL    HW210714   7.089  12.373  14.042
69628SOL     OW10715  10.104   8.057  12.138
69628SOL    HW110716  10.101   8.047  12.233
69628SOL    HW210717  10.032   8.003  12.106
69629SOL     OW10718  10.404   9.774  11.151
69629SOL    HW110719  10.399   9.735  11.239
69629SOL    HW210720  10.454   9.710  11.100
69630SOL     OW10721  11.240   3.191  10.755
69630SOL    HW110722  11.251   3.117  10.815
69630SOL    HW210723  11.167   3.164  10.699
69631SOL     OW10724   6.183  11.709  10.992
69631SOL    HW110725   6.253  11.766  11.023
69631SOL    HW210726   6.103  11.754  11.016
69632SOL     OW10727   8.003   6.484  12.837
69632SOL    HW110728   8.003   6.556  12.900
69632SOL    HW210729   8.080   6.501  12.782
69633SOL     OW10730   3.008   5.864   8.818
69633SOL    HW110731   3.063   5.787   8.830
69633SOL    HW210732   3.018   5.886   8.726
69634SOL     OW10733   2.800   5.052   1.031
69634SOL    HW110734   2.850   5.053   1.112
69634SOL    HW210735   2.788   5.144   1.009
69635SOL     OW10736   2.834   4.905  11.923
69635SOL    HW110737   2.865   4.958  11.850
69635SOL    HW210738   2.751   4.868  11.894
69636SOL     OW10739   5.870   4.800   6.261
69636SOL    HW110740   5.812   4.757   6.325
69636SOL    HW210741   5.824   4.791   6.178
69637SOL     OW10742   5.628   1.542   8.592
69637SOL    HW110743   5.564   1.523   8.660
69637SOL    HW210744   5.658   1.456   8.563
69638SOL     OW10745  12.657   2.820   5.382
69638SOL    HW110746  12.680   2.741   5.333
69638SOL    HW210747  12.722   2.824   5.452
69639SOL     OW10748   4.557   0.921   9.452
69639SOL    HW110749   4.653   0.913   9.449
69639SOL    HW210750   4.531   0.861   9.523
69640SOL     OW10751  10.589   4.664   4.496
69640SOL    HW110752  10.587   4.732   4.565
69640SOL    HW210753  10.497   4.639   4.486
69641SOL     OW10754   2.354   6.515   5.413
69641SOL    HW110755   2.393   6.498   5.499
69641SOL    HW210756   2.262   6.493   5.424
69642SOL     OW10757   0.659   1.282   8.370
69642SOL    HW110758   0.662   1.364   8.320
69642SOL    HW210759   0.714   1.221   8.321
69643SOL     OW10760   3.630   8.754   1.218
69643SOL    HW110761   3.621   8.713   1.304
69643SOL    HW210762   3.540   8.775   1.192
69644SOL     OW10763   0.980  12.838   5.761
69644SOL    HW110764   0.987  12.929   5.788
69644SOL    HW210765   0.990  12.788   5.843
69645SOL     OW10766   1.290   4.493   1.032
69645SOL    HW110767   1.225   4.449   0.977
69645SOL    HW210768   1.356   4.525   0.971
69646SOL     OW10769   0.153  12.327  13.198
69646SOL    HW110770   0.201  12.267  13.141
69646SOL    HW210771   0.221  12.377  13.243
69647SOL     OW10772   7.272  10.871   1.828
69647SOL    HW110773   7.181  10.843   1.829
69647SOL    HW210774   7.321  10.791   1.811
69648SOL     OW10775  13.099   1.349   3.505
69648SOL    HW110776  13.189   1.383   3.511
69648SOL    HW210777  13.058   1.377   3.588
69649SOL     OW10778   2.219  10.582   1.208
69649SOL    HW110779   2.253  10.631   1.133
69649SOL    HW210780   2.277  10.607   1.281
69650SOL     OW10781  14.050   4.803  14.160
69650SOL    HW110782  14.000   4.751  14.098
69650SOL    HW210783  13.986   4.863  14.199
69651SOL     OW10784  13.454   0.822  11.798
69651SOL    HW110785  13.381   0.763  11.814
69651SOL    HW210786  13.517   0.804  11.868
69652SOL     OW10787  13.262  14.729   0.532
69652SOL    HW110788  13.266  14.648   0.581
69652SOL    HW210789  13.171  14.758   0.540
69653SOL     OW10790  14.693  10.388   5.871
69653SOL    HW110791  14.755  10.360   5.804
69653SOL    HW210792  14.642  10.457   5.830
69654SOL     OW10793   3.396   9.306   5.473
69654SOL    HW110794   3.324   9.247   5.494
69654SOL    HW210795   3.374   9.387   5.519
69655SOL     OW10796  13.222   5.756   6.006
69655SOL    HW110797  13.290   5.702   5.966
69655SOL    HW210798  13.140   5.718   5.974
69656SOL     OW10799   7.069   9.671   3.849
69656SOL    HW110800   7.095   9.631   3.766
69656SOL    HW210801   7.136   9.642   3.911
69657SOL     OW10802   2.144  12.334   7.036
69657SOL    HW110803   2.177  12.258   6.988
69657SOL    HW210804   2.062  12.303   7.077
69658SOL     OW10805  11.725  10.038  11.624
69658SOL    HW110806  11.642   9.989  11.621
69658SOL    HW210807  11.755  10.028  11.714
69659SOL     OW10808   2.639   0.429  14.132
69659SOL    HW110809   2.673   0.499  14.075
69659SOL    HW210810   2.620   0.473  14.215
69660SOL     OW10811   7.945   9.728   8.456
69660SOL    HW110812   7.921   9.796   8.393
69660SOL    HW210813   7.863   9.683   8.475
69661SOL     OW10814  10.782  10.156   1.226
69661SOL    HW110815  10.769  10.168   1.132
69661SOL    HW210816  10.694  10.162   1.263
69662SOL     OW10817  10.264   8.185   1.718
69662SOL    HW110818  10.188   8.145   1.677
69662SOL    HW210819  10.282   8.128   1.794
69663SOL     OW10820   5.955  12.405   5.836
69663SOL    HW110821   5.977  12.493   5.807
69663SOL    HW210822   6.039  12.364   5.854
69664SOL     OW10823   2.561   2.490  10.847
69664SOL    HW110824   2.586   2.541  10.770
69664SOL    HW210825   2.546   2.402  10.813
69665SOL     OW10826  11.073   2.742  13.184
69665SOL    HW110827  11.148   2.723  13.239
69665SOL    HW210828  11.087   2.832  13.153
69666SOL     OW10829   6.748   0.429   4.587
69666SOL    HW110830   6.679   0.363   4.586
69666SOL    HW210831   6.776   0.437   4.495
69667SOL     OW10832  12.009   3.039   4.003
69667SOL    HW110833  11.973   2.953   3.980
69667SOL    HW210834  12.089   3.019   4.053
69668SOL     OW10835   4.961   4.642  12.966
69668SOL    HW110836   4.995   4.713  12.912
69668SOL    HW210837   4.873   4.627  12.933
69669SOL     OW10838   7.488   1.728  13.428
69669SOL    HW110839   7.508   1.821  13.441
69669SOL    HW210840   7.449   1.723  13.341
69670SOL     OW10841  11.441  11.630   1.363
69670SOL    HW110842  11.440  11.662   1.453
69670SOL    HW210843  11.514  11.568   1.360
69671SOL     OW10844   9.653   4.929   1.853
69671SOL    HW110845   9.601   4.872   1.796
69671SOL    HW210846   9.742   4.923   1.819
69672SOL     OW10847   9.494  12.126   1.058
69672SOL    HW110848   9.420  12.148   1.001
69672SOL    HW210849   9.545  12.063   1.008
69673SOL     OW10850  13.576  10.875   9.928
69673SOL    HW110851  13.629  10.803   9.893
69673SOL    HW210852  13.640  10.938   9.963
69674SOL     OW10853   8.830  13.680   7.612
69674SOL    HW110854   8.900  13.738   7.644
69674SOL    HW210855   8.855  13.660   7.521
69675SOL     OW10856   8.994  13.422  12.792
69675SOL    HW110857   8.899  13.415  12.782
69675SOL    HW210858   9.025  13.333  12.777
69676SOL     OW10859   7.695  10.938   1.525
69676SOL    HW110860   7.771  10.951   1.582
69676SOL    HW210861   7.702  10.847   1.496
69677SOL     OW10862  13.500  13.320   2.955
69677SOL    HW110863  13.439  13.393   2.963
69677SOL    HW210864  13.460  13.261   2.892
69678SOL     OW10865   2.529   2.295   2.117
69678SOL    HW110866   2.554   2.285   2.209
69678SOL    HW210867   2.574   2.223   2.073
69679SOL     OW10868  13.142   9.912  13.970
69679SOL    HW110869  13.098   9.927  13.886
69679SOL    HW210870  13.196   9.990  13.982
69680SOL     OW10871   6.434  14.496   2.486
69680SOL    HW110872   6.381  14.454   2.418
69680SOL    HW210873   6.524  14.483   2.458
69681SOL     OW10874  10.025   7.218  14.712
69681SOL    HW110875   9.971   7.139  14.717
69681SOL    HW210876   9.990   7.266  14.637
69682SOL     OW10877   0.337  14.170   3.832
69682SOL    HW110878   0.363  14.222   3.909
69682SOL    HW210879   0.294  14.093   3.868
69683SOL     OW10880   9.196   5.141  11.238
69683SOL    HW110881   9.169   5.165  11.327
69683SOL    HW210882   9.166   5.051  11.227
69684SOL     OW10883   0.336   9.758  12.911
69684SOL    HW110884   0.313   9.672  12.875
69684SOL    HW210885   0.312   9.752  13.003
69685SOL     OW10886  12.661   0.521  13.884
69685SOL    HW110887  12.601   0.578  13.931
69685SOL    HW210888  12.743   0.526  13.934
69686SOL     OW10889   4.139   0.773   6.335
69686SOL    HW110890   4.179   0.816   6.411
69686SOL    HW210891   4.055   0.741   6.367
69687SOL     OW10892   4.281   7.437  11.843
69687SOL    HW110893   4.187   7.429  11.830
69687SOL    HW210894   4.308   7.506  11.783
69688SOL     OW10895   0.659  12.368  12.027
69688SOL    HW110896   0.620  12.290  12.065
69688SOL    HW210897   0.659  12.432  12.098
69689SOL     OW10898  10.424  14.620  11.865
69689SOL    HW110899  10.482  14.555  11.905
69689SOL    HW210900  10.379  14.572  11.795
69690SOL     OW10901  10.821   5.485  14.275
69690SOL    HW110902  10.863   5.434  14.344
69690SOL    HW210903  10.728   5.462  14.282
69691SOL     OW10904   3.214   2.137  14.031
69691SOL    HW110905   3.186   2.226  14.050
69691SOL    HW210906   3.167   2.083  14.095
69692SOL     OW10907   7.184   2.846   1.193
69692SOL    HW110908   7.259   2.800   1.231
69692SOL    HW210909   7.215   2.935   1.176
69693SOL     OW10910  11.090   2.880   3.342
69693SOL    HW110911  11.109   2.804   3.397
69693SOL    HW210912  11.173   2.903   3.302
69694SOL     OW10913  11.039   4.932  11.526
69694SOL    HW110914  11.004   4.862  11.472
69694SOL    HW210915  11.117   4.962  11.479
69695SOL     OW10916   5.909  13.524   4.442
69695SOL    HW110917   5.827  13.498   4.399
69695SOL    HW210918   5.978  13.500   4.380
69696SOL     OW10919   7.533   6.630   2.451
69696SOL    HW110920   7.461   6.692   2.449
69696SOL    HW210921   7.496   6.551   2.489
69697SOL     OW10922   6.802   6.577   2.139
69697SOL    HW110923   6.756   6.646   2.186
69697SOL    HW210924   6.755   6.497   2.160
69698SOL     OW10925   3.984  10.963  13.807
69698SOL    HW110926   3.963  10.894  13.744
69698SOL    HW210927   3.995  11.041  13.753
69699SOL     OW10928   1.756   0.443  14.764
69699SOL    HW110929   1.681   0.495  14.737
69699SOL    HW210930   1.792   0.489  14.840
69700SOL     OW10931   2.686   5.978  11.411
69700SOL    HW110932   2.776   5.958  11.387
69700SOL    HW210933   2.637   5.900  11.388
69701SOL     OW10934   2.493   6.607   4.483
69701SOL    HW110935   2.513   6.624   4.391
69701SOL    HW210936   2.478   6.693   4.521
69702SOL     OW10937   2.496   4.670   7.022
69702SOL    HW110938   2.557   4.602   6.992
69702SOL    HW210939   2.539   4.753   6.999
69703SOL     OW10940   8.163   2.441  11.001
69703SOL    HW110941   8.147   2.347  10.994
69703SOL    HW210942   8.183   2.454  11.094
69704SOL     OW10943  14.291   1.572   9.155
69704SOL    HW110944  14.348   1.533   9.221
69704SOL    HW210945  14.226   1.504   9.137
69705SOL     OW10946   4.550   7.760  13.159
69705SOL    HW110947   4.621   7.697  13.166
69705SOL    HW210948   4.592   7.845  13.177
69706SOL     OW10949  12.587  14.774   3.629
69706SOL    HW110950  12.602  14.853   3.681
69706SOL    HW210951  12.550  14.711   3.691
69707SOL     OW10952   5.598  13.691   3.174
69707SOL    HW110953   5.599  13.668   3.267
69707SOL    HW210954   5.518  13.651   3.140
69708SOL     OW10955   0.396  14.094   1.035
69708SOL    HW110956   0.385  14.164   0.971
69708SOL    HW210957   0.439  14.135   1.109
69709SOL     OW10958   4.308   1.229   6.783
69709SOL    HW110959   4.266   1.165   6.840
69709SOL    HW210960   4.237   1.285   6.752
69710SOL     OW10961  10.146   7.495   1.959
69710SOL    HW110962  10.145   7.591   1.960
69710SOL    HW210963  10.055   7.471   1.941
69711SOL     OW10964  11.956   2.865   5.977
69711SOL    HW110965  11.861   2.866   5.980
69711SOL    HW210966  11.982   2.811   6.051
69712SOL     OW10967  12.924   7.440   1.171
69712SOL    HW110968  12.962   7.409   1.088
69712SOL    HW210969  12.950   7.374   1.235
69713SOL     OW10970  12.245  12.250   0.447
69713SOL    HW110971  12.232  12.155   0.447
69713SOL    HW210972  12.277  12.270   0.359
69714SOL     OW10973  10.310   8.353   7.478
69714SOL    HW110974  10.257   8.278   7.506
69714SOL    HW210975  10.304   8.352   7.382
69715SOL     OW10976   6.874   3.277   2.980
69715SOL    HW110977   6.908   3.188   2.970
69715SOL    HW210978   6.876   3.293   3.074
69716SOL     OW10979   8.836   5.382   0.359
69716SOL    HW110980   8.768   5.328   0.400
69716SOL    HW210981   8.915   5.365   0.411
69717SOL     OW10982  12.619   3.788  11.030
69717SOL    HW110983  12.571   3.719  11.077
69717SOL    HW210984  12.582   3.869  11.065
69718SOL     OW10985   8.577   1.654   4.274
69718SOL    HW110986   8.509   1.715   4.302
69718SOL    HW210987   8.579   1.587   4.341
69719SOL     OW10988   1.312   1.243   1.243
69719SOL    HW110989   1.258   1.241   1.322
69719SOL    HW210990   1.372   1.169   1.254
69720SOL     OW10991  12.325   0.610   6.944
69720SOL    HW110992  12.360   0.628   6.857
69720SOL    HW210993  12.376   0.666   7.002
69721SOL     OW10994  10.237   8.465   6.437
69721SOL    HW110995  10.292   8.390   6.462
69721SOL    HW210996  10.156   8.427   6.404
69722SOL     OW10997   8.841  14.837   9.994
69722SOL    HW110998   8.916  14.786  10.024
69722SOL    HW210999   8.878   0.038   9.964
69723SOL     OW11000   2.810  13.462   5.881
69723SOL    HW111001   2.756  13.526   5.834
69723SOL    HW211002   2.789  13.475   5.973
69724SOL     OW11003   5.466   8.834   5.962
69724SOL    HW111004   5.541   8.812   5.906
69724SOL    HW211005   5.458   8.929   5.955
69725SOL     OW11006  13.102  11.208   0.762
69725SOL    HW111007  13.110  11.135   0.823
69725SOL    HW211008  13.147  11.281   0.806
69726SOL     OW11009   6.499   3.224   7.696
69726SOL    HW111010   6.485   3.315   7.723
69726SOL    HW211011   6.464   3.172   7.768
69727SOL     OW11012   7.526  10.411  10.062
69727SOL    HW111013   7.554  10.332  10.015
69727SOL    HW211014   7.499  10.379  10.148
69728SOL     OW11015  11.419   4.624  14.804
69728SOL    HW111016  11.419   4.607   0.016
69728SOL    HW211017  11.329   4.649  14.784
69729SOL     OW11018   2.843  11.464   1.793
69729SOL    HW111019   2.806  11.552   1.782
69729SOL    HW211020   2.922  11.477   1.844
69730SOL     OW11021   6.298   1.671   0.022
69730SOL    HW111022   6.321   1.642  14.816
69730SOL    HW211023   6.235   1.606   0.053
69731SOL     OW11024   1.865   7.940   2.938
69731SOL    HW111025   1.876   7.986   2.855
69731SOL    HW211026   1.771   7.925   2.945
69732SOL     OW11027   9.203   0.620   3.408
69732SOL    HW111028   9.123   0.661   3.441
69732SOL    HW211029   9.263   0.620   3.482
69733SOL     OW11030   4.712   2.790   4.636
69733SOL    HW111031   4.703   2.881   4.609
69733SOL    HW211032   4.637   2.774   4.694
69734SOL     OW11033   5.481   9.360   8.336
69734SOL    HW111034   5.447   9.429   8.393
69734SOL    HW211035   5.493   9.285   8.394
69735SOL     OW11036   5.107   3.564   0.029
69735SOL    HW111037   5.076   3.653   0.013
69735SOL    HW211038   5.191   3.560  14.866
69736SOL     OW11039   4.525   4.174  13.783
69736SOL    HW111040   4.485   4.090  13.762
69736SOL    HW211041   4.450   4.232  13.800
69737SOL     OW11042  12.751   1.213  11.564
69737SOL    HW111043  12.677   1.181  11.513
69737SOL    HW211044  12.826   1.207  11.505
69738SOL     OW11045   6.969   1.098  12.082
69738SOL    HW111046   6.875   1.080  12.087
69738SOL    HW211047   6.975   1.186  12.044
69739SOL     OW11048   0.423   3.073   4.976
69739SOL    HW111049   0.421   3.113   5.063
69739SOL    HW211050   0.507   3.099   4.939
69740SOL     OW11051   8.586   5.892   6.976
69740SOL    HW111052   8.523   5.932   7.036
69740SOL    HW211053   8.660   5.868   7.032
69741SOL     OW11054   1.181   8.498   1.006
69741SOL    HW111055   1.096   8.543   1.012
69741SOL    HW211056   1.193   8.484   0.912
69742SOL     OW11057  11.475   8.562  10.466
69742SOL    HW111058  11.413   8.619  10.419
69742SOL    HW211059  11.501   8.497  10.401
69743SOL     OW11060   9.684   4.498  10.325
69743SOL    HW111061   9.597   4.515  10.289
69743SOL    HW211062   9.744   4.512  10.251
69744SOL     OW11063  11.902   4.309  13.700
69744SOL    HW111064  11.849   4.233  13.676
69744SOL    HW211065  11.935   4.342  13.616
69745SOL     OW11066  12.463  14.597   1.041
69745SOL    HW111067  12.513  14.632   0.967
69745SOL    HW211068  12.457  14.503   1.024
69746SOL     OW11069   4.148   6.429   6.268
69746SOL    HW111070   4.154   6.522   6.250
69746SOL    HW211071   4.058   6.416   6.299
69747SOL     OW11072  13.625   9.440   3.710
69747SOL    HW111073  13.565   9.491   3.655
69747SOL    HW211074  13.705   9.434   3.659
69748SOL     OW11075   2.575   7.359  14.020
69748SOL    HW111076   2.624   7.406  13.952
69748SOL    HW211077   2.489   7.402  14.020
69749SOL     OW11078   2.610   1.274   5.957
69749SOL    HW111079   2.573   1.200   6.006
69749SOL    HW211080   2.588   1.351   6.010
69750SOL     OW11081  13.382  14.420   0.728
69750SOL    HW111082  13.433  14.389   0.804
69750SOL    HW211083  13.442  14.479   0.682
69751SOL     OW11084   0.391  10.804  10.336
69751SOL    HW111085   0.407  10.894  10.362
69751SOL    HW211086   0.306  10.806  10.290
69752SOL     OW11087   9.602  13.689  12.764
69752SOL    HW111088   9.579  13.755  12.830
69752SOL    HW211089   9.536  13.621  12.775
69753SOL     OW11090   2.961   6.167  12.981
69753SOL    HW111091   2.957   6.262  12.969
69753SOL    HW211092   3.049   6.151  13.015
69754SOL     OW11093   4.695   4.372   5.411
69754SOL    HW111094   4.766   4.408   5.464
69754SOL    HW211095   4.710   4.277   5.412
69755SOL     OW11096   0.721   8.540  12.602
69755SOL    HW111097   0.689   8.509  12.517
69755SOL    HW211098   0.812   8.511  12.606
69756SOL     OW11099  10.258   0.940   8.532
69756SOL    HW111100  10.176   0.964   8.488
69756SOL    HW211101  10.231   0.902   8.616
69757SOL     OW11102  11.805   9.542  12.153
69757SOL    HW111103  11.862   9.469  12.179
69757SOL    HW211104  11.795   9.531  12.059
69758SOL     OW11105   1.453   8.749   8.721
69758SOL    HW111106   1.504   8.752   8.802
69758SOL    HW211107   1.423   8.838   8.707
69759SOL     OW11108   7.762   1.739   6.208
69759SOL    HW111109   7.735   1.717   6.297
69759SOL    HW211110   7.752   1.834   6.203
69760SOL     OW11111  12.277  13.382   5.415
69760SOL    HW111112  12.309  13.460   5.460
69760SOL    HW211113  12.297  13.398   5.323
69761SOL     OW11114   9.454   5.102   2.393
69761SOL    HW111115   9.430   5.059   2.311
69761SOL    HW211116   9.538   5.064   2.416
69762SOL     OW11117  14.328   1.426   8.752
69762SOL    HW111118  14.332   1.383   8.667
69762SOL    HW211119  14.262   1.494   8.742
69763SOL     OW11120   1.570   9.272   2.961
69763SOL    HW111121   1.652   9.320   2.969
69763SOL    HW211122   1.503   9.340   2.956
69764SOL     OW11123   7.692  12.537   8.341
69764SOL    HW111124   7.776  12.568   8.308
69764SOL    HW211125   7.686  12.446   8.312
69765SOL     OW11126   9.166  13.652  14.852
69765SOL    HW111127   9.148  13.712   0.042
69765SOL    HW211128   9.226  13.701  14.795
69766SOL     OW11129  13.478  13.614   5.432
69766SOL    HW111130  13.450  13.580   5.517
69766SOL    HW211131  13.527  13.542   5.393
69767SOL     OW11132   8.488  13.452   4.150
69767SOL    HW111133   8.576  13.476   4.119
69767SOL    HW211134   8.441  13.535   4.154
69768SOL     OW11135   8.217  11.152   4.627
69768SOL    HW111136   8.275  11.165   4.552
69768SOL    HW211137   8.248  11.071   4.669
69769SOL     OW11138   8.041  12.310   3.104
69769SOL    HW111139   8.045  12.351   3.018
69769SOL    HW211140   8.113  12.247   3.105
69770SOL     OW11141   2.687  14.616  10.843
69770SOL    HW111142   2.747  14.630  10.916
69770SOL    HW211143   2.670  14.704  10.809
69771SOL     OW11144   8.979   5.718   8.128
69771SOL    HW111145   8.893   5.685   8.154
69771SOL    HW211146   8.969   5.741   8.036
69772SOL     OW11147  11.253   3.936  12.802
69772SOL    HW111148  11.316   3.902  12.738
69772SOL    HW211149  11.216   3.858  12.844
69773SOL     OW11150  12.432   1.977   2.272
69773SOL    HW111151  12.354   2.020   2.305
69773SOL    HW211152  12.442   2.009   2.183
69774SOL     OW11153   0.697   4.028  12.086
69774SOL    HW111154   0.655   3.977  12.156
69774SOL    HW211155   0.642   4.105  12.077
69775SOL     OW11156   4.205  12.534   6.175
69775SOL    HW111157   4.185  12.479   6.099
69775SOL    HW211158   4.284  12.582   6.149
69776SOL     OW11159   3.682   6.124  14.285
69776SOL    HW111160   3.661   6.041  14.329
69776SOL    HW211161   3.772   6.143  14.311
69777SOL     OW11162   1.661   3.910  10.873
69777SOL    HW111163   1.571   3.885  10.852
69777SOL    HW211164   1.652   3.995  10.918
69778SOL     OW11165  12.737   7.208   2.679
69778SOL    HW111166  12.746   7.287   2.626
69778SOL    HW211167  12.792   7.143   2.635
69779SOL     OW11168   7.304   3.049   1.766
69779SOL    HW111169   7.394   3.016   1.758
69779SOL    HW211170   7.259   3.016   1.689
69780SOL     OW11171   1.717   1.706   6.951
69780SOL    HW111172   1.644   1.687   7.009
69780SOL    HW211173   1.752   1.789   6.983
69781SOL     OW11174   1.834   9.242  12.680
69781SOL    HW111175   1.856   9.238  12.773
69781SOL    HW211176   1.858   9.331  12.654
69782SOL     OW11177  13.073   2.181   8.382
69782SOL    HW111178  13.063   2.151   8.473
69782SOL    HW211179  12.989   2.160   8.341
69783SOL     OW11180  12.764   0.244   9.319
69783SOL    HW111181  12.775   0.171   9.380
69783SOL    HW211182  12.707   0.305   9.366
69784SOL     OW11183   9.822   1.243  10.578
69784SOL    HW111184   9.819   1.325  10.626
69784SOL    HW211185   9.808   1.175  10.644
69785SOL     OW11186  10.324  14.077   4.259
69785SOL    HW111187  10.270  14.120   4.325
69785SOL    HW211188  10.412  14.113   4.273
69786SOL     OW11189  13.078   7.547  12.712
69786SOL    HW111190  13.169   7.536  12.685
69786SOL    HW211191  13.026   7.515  12.638
69787SOL     OW11192   8.068   2.694   7.047
69787SOL    HW111193   8.015   2.666   6.973
69787SOL    HW211194   8.158   2.684   7.017
69788SOL     OW11195  12.881   1.824   2.031
69788SOL    HW111196  12.898   1.797   2.121
69788SOL    HW211197  12.962   1.866   2.002
69789SOL     OW11198   1.348   3.110   6.877
69789SOL    HW111199   1.422   3.051   6.892
69789SOL    HW211200   1.271   3.054   6.879
69790SOL     OW11201  12.762  14.322   9.853
69790SOL    HW111202  12.794  14.296   9.767
69790SOL    HW211203  12.726  14.243   9.891
69791SOL     OW11204  12.216   8.457   5.654
69791SOL    HW111205  12.158   8.468   5.729
69791SOL    HW211206  12.294   8.414   5.689
69792SOL     OW11207   0.822   2.640  13.561
69792SOL    HW111208   0.848   2.706  13.497
69792SOL    HW211209   0.730   2.621  13.541
69793SOL     OW11210   9.387  11.499  13.800
69793SOL    HW111211   9.397  11.419  13.851
69793SOL    HW211212   9.309  11.541  13.835
69794SOL     OW11213   4.252   4.511  14.370
69794SOL    HW111214   4.222   4.535  14.283
69794SOL    HW211215   4.343   4.542  14.374
69795SOL     OW11216   5.980   8.616   4.804
69795SOL    HW111217   5.912   8.608   4.737
69795SOL    HW211218   5.995   8.710   4.813
69796SOL     OW11219   5.150   5.405  12.970
69796SOL    HW111220   5.223   5.464  12.947
69796SOL    HW211221   5.076   5.464  12.986
69797SOL     OW11222   5.896   2.107   9.398
69797SOL    HW111223   5.946   2.033   9.432
69797SOL    HW211224   5.942   2.184   9.433
69798SOL     OW11225  10.231   2.805   8.454
69798SOL    HW111226  10.159   2.852   8.412
69798SOL    HW211227  10.206   2.802   8.547
69799SOL     OW11228   9.136   0.288   0.889
69799SOL    HW111229   9.166   0.289   0.798
69799SOL    HW211230   9.214   0.265   0.940
69800SOL     OW11231  12.515   0.735  14.005
69800SOL    HW111232  12.580   0.793  13.965
69800SOL    HW211233  12.431   0.780  13.991
69801SOL     OW11234   8.346   3.598   5.958
69801SOL    HW111235   8.332   3.667   5.894
69801SOL    HW211236   8.263   3.550   5.960
69802SOL     OW11237   0.227   6.661  11.057
69802SOL    HW111238   0.188   6.659  11.144
69802SOL    HW211239   0.172   6.721  11.007
69803SOL     OW11240   2.546   9.506   4.699
69803SOL    HW111241   2.575   9.461   4.779
69803SOL    HW211242   2.624   9.509   4.644
69804SOL     OW11243   4.958   1.285   5.054
69804SOL    HW111244   4.908   1.366   5.068
69804SOL    HW211245   4.934   1.229   5.127
69805SOL     OW11246   5.221   6.941   5.008
69805SOL    HW111247   5.305   6.941   5.054
69805SOL    HW211248   5.205   6.849   4.987
69806SOL     OW11249   9.290   9.208  13.515
69806SOL    HW111250   9.356   9.248  13.573
69806SOL    HW211251   9.225   9.171  13.575
69807SOL     OW11252   7.932   4.970  10.649
69807SOL    HW111253   7.944   4.939  10.738
69807SOL    HW211254   8.000   5.036  10.637
69808SOL     OW11255   0.022   2.660   9.997
69808SOL    HW111256   0.021   2.716  10.074
69808SOL    HW211257   0.067   2.712   9.930
69809SOL     OW11258  13.151   1.752   4.274
69809SOL    HW111259  13.174   1.746   4.366
69809SOL    HW211260  13.234   1.771   4.229
69810SOL     OW11261  12.677   6.893   2.185
69810SOL    HW111262  12.690   6.815   2.131
69810SOL    HW211263  12.641   6.958   2.125
69811SOL     OW11264   6.425   3.931  12.513
69811SOL    HW111265   6.341   3.887  12.496
69811SOL    HW211266   6.409   4.023  12.491
69812SOL     OW11267   0.224   2.953   4.097
69812SOL    HW111268   0.251   3.020   4.159
69812SOL    HW211269   0.143   2.918   4.133
69813SOL     OW11270  11.262   2.760   0.713
69813SOL    HW111271  11.317   2.818   0.661
69813SOL    HW211272  11.204   2.718   0.649
69814SOL     OW11273  10.214  10.485   9.932
69814SOL    HW111274  10.269  10.448  10.002
69814SOL    HW211275  10.171  10.408   9.894
69815SOL     OW11276  13.340   3.158   6.607
69815SOL    HW111277  13.310   3.246   6.586
69815SOL    HW211278  13.431   3.156   6.578
69816SOL     OW11279   6.749   0.941  14.127
69816SOL    HW111280   6.668   0.949  14.078
69816SOL    HW211281   6.762   1.028  14.167
69817SOL     OW11282  12.926  14.025   2.449
69817SOL    HW111283  12.907  14.041   2.541
69817SOL    HW211284  12.947  14.111   2.413
69818SOL     OW11285   6.873  11.182  14.271
69818SOL    HW111286   6.809  11.136  14.216
69818SOL    HW211287   6.923  11.235  14.209
69819SOL     OW11288   5.906  14.379   9.218
69819SOL    HW111289   5.994  14.363   9.183
69819SOL    HW211290   5.920  14.394   9.312
69820SOL     OW11291  14.462   5.350   9.022
69820SOL    HW111292  14.459   5.257   8.999
69820SOL    HW211293  14.372   5.380   9.009
69821SOL     OW11294   4.580   7.574  14.389
69821SOL    HW111295   4.665   7.564  14.433
69821SOL    HW211296   4.536   7.490  14.403
69822SOL     OW11297  14.500  13.984   1.301
69822SOL    HW111298  14.592  13.999   1.322
69822SOL    HW211299  14.501  13.907   1.244
69823SOL     OW11300   3.375   6.875   0.463
69823SOL    HW111301   3.284   6.848   0.455
69823SOL    HW211302   3.383   6.950   0.404
69824SOL     OW11303  14.402   2.722   5.238
69824SOL    HW111304  14.416   2.782   5.311
69824SOL    HW211305  14.401   2.778   5.160
69825SOL     OW11306  13.512  10.528   3.869
69825SOL    HW111307  13.607  10.543   3.873
69825SOL    HW211308  13.488  10.551   3.780
69826SOL     OW11309   9.555   3.228  14.603
69826SOL    HW111310   9.525   3.138  14.607
69826SOL    HW211311   9.553   3.258  14.694
69827SOL     OW11312   3.175   6.758   3.439
69827SOL    HW111313   3.209   6.669   3.449
69827SOL    HW211314   3.184   6.777   3.346
69828SOL     OW11315  13.213   8.402  11.604
69828SOL    HW111316  13.288   8.357  11.565
69828SOL    HW211317  13.163   8.332  11.647
69829SOL     OW11318   3.145   6.970   7.267
69829SOL    HW111319   3.074   6.906   7.263
69829SOL    HW211320   3.102   7.054   7.276
69830SOL     OW11321   1.382   8.647   4.368
69830SOL    HW111322   1.444   8.662   4.297
69830SOL    HW211323   1.436   8.622   4.442
69831SOL     OW11324   2.902   2.425  11.442
69831SOL    HW111325   2.894   2.492  11.509
69831SOL    HW211326   2.966   2.363  11.477
69832SOL     OW11327   2.205   9.802   9.935
69832SOL    HW111328   2.284   9.816   9.884
69832SOL    HW211329   2.228   9.733   9.997
69833SOL     OW11330  12.902   0.057   9.617
69833SOL    HW111331  12.874   0.095   9.701
69833SOL    HW211332  12.828   0.002   9.591
69834SOL     OW11333   2.507   2.653   5.626
69834SOL    HW111334   2.536   2.695   5.708
69834SOL    HW211335   2.480   2.726   5.570
69835SOL     OW11336   5.945   5.667  10.413
69835SOL    HW111337   6.025   5.688  10.461
69835SOL    HW211338   5.875   5.711  10.462
69836SOL     OW11339  12.758   2.874  14.491
69836SOL    HW111340  12.682   2.823  14.462
69836SOL    HW211341  12.768   2.853  14.584
69837SOL     OW11342  13.193  10.744  11.650
69837SOL    HW111343  13.174  10.680  11.718
69837SOL    HW211344  13.141  10.716  11.575
69838SOL     OW11345   1.201  13.864  11.715
69838SOL    HW111346   1.118  13.818  11.706
69838SOL    HW211347   1.243  13.856  11.630
69839SOL     OW11348  11.627  13.309   5.123
69839SOL    HW111349  11.603  13.276   5.210
69839SOL    HW211350  11.722  13.302   5.120
69840SOL     OW11351   1.155  12.658   1.295
69840SOL    HW111352   1.247  12.662   1.324
69840SOL    HW211353   1.110  12.615   1.368
69841SOL     OW11354  13.573   2.555  12.104
69841SOL    HW111355  13.573   2.464  12.072
69841SOL    HW211356  13.628   2.552  12.183
69842SOL     OW11357   2.912   8.230   8.509
69842SOL    HW111358   2.867   8.250   8.591
69842SOL    HW211359   2.842   8.213   8.447
69843SOL     OW11360   4.598   5.141   9.293
69843SOL    HW111361   4.677   5.089   9.304
69843SOL    HW211362   4.610   5.216   9.351
69844SOL     OW11363  13.976  12.425   9.540
69844SOL    HW111364  13.952  12.467   9.457
69844SOL    HW211365  13.919  12.348   9.546
69845SOL     OW11366   7.849   4.425   0.111
69845SOL    HW111367   7.778   4.420   0.048
69845SOL    HW211368   7.883   4.335   0.116
69846SOL     OW11369   4.529   9.829   4.116
69846SOL    HW111370   4.509   9.816   4.208
69846SOL    HW211371   4.577   9.911   4.113
69847SOL     OW11372   5.175  11.328  14.202
69847SOL    HW111373   5.244  11.261  14.203
69847SOL    HW211374   5.191  11.380  14.281
69848SOL     OW11375  11.616   2.252   4.710
69848SOL    HW111376  11.627   2.169   4.663
69848SOL    HW211377  11.565   2.229   4.787
69849SOL     OW11378  13.903  11.529  10.278
69849SOL    HW111379  13.992  11.515  10.247
69849SOL    HW211380  13.890  11.624  10.274
69850SOL     OW11381  10.367  13.082   5.325
69850SOL    HW111382  10.412  13.003   5.355
69850SOL    HW211383  10.432  13.128   5.272
69851SOL     OW11384   3.897   5.675  12.904
69851SOL    HW111385   3.871   5.716  12.821
69851SOL    HW211386   3.992   5.670  12.899
69852SOL     OW11387   9.792   5.514   9.474
69852SOL    HW111388   9.841   5.575   9.529
69852SOL    HW211389   9.858   5.473   9.418
69853SOL     OW11390  14.296   7.102  10.565
69853SOL    HW111391  14.310   7.169  10.632
69853SOL    HW211392  14.228   7.140  10.508
69854SOL     OW11393  14.013   3.792   0.326
69854SOL    HW111394  14.009   3.725   0.258
69854SOL    HW211395  13.938   3.849   0.308
69855SOL     OW11396   5.648   0.245   0.738
69855SOL    HW111397   5.676   0.199   0.817
69855SOL    HW211398   5.699   0.325   0.736
69856SOL     OW11399   8.623  10.670   8.663
69856SOL    HW111400   8.625  10.752   8.614
69856SOL    HW211401   8.575  10.692   8.744
69857SOL     OW11402   8.348   7.102   5.365
69857SOL    HW111403   8.417   7.132   5.424
69857SOL    HW211404   8.297   7.040   5.418
69858SOL     OW11405   0.472   8.299   2.517
69858SOL    HW111406   0.521   8.229   2.561
69858SOL    HW211407   0.538   8.364   2.494
69859SOL     OW11408   8.863   2.335   6.559
69859SOL    HW111409   8.861   2.327   6.655
69859SOL    HW211410   8.831   2.251   6.527
69860SOL     OW11411   9.465   4.222   5.801
69860SOL    HW111412   9.423   4.136   5.793
69860SOL    HW211413   9.395   4.280   5.832
69861SOL     OW11414   6.969   8.699   7.757
69861SOL    HW111415   6.900   8.761   7.779
69861SOL    HW211416   7.044   8.754   7.733
69862SOL     OW11417   5.545   5.487   3.041
69862SOL    HW111418   5.601   5.411   3.059
69862SOL    HW211419   5.465   5.449   3.006
69863SOL     OW11420   8.189   1.663  10.184
69863SOL    HW111421   8.192   1.573  10.217
69863SOL    HW211422   8.281   1.689  10.180
69864SOL     OW11423   6.212  10.654  12.028
69864SOL    HW111424   6.169  10.570  12.012
69864SOL    HW211425   6.228  10.690  11.941
69865SOL     OW11426   4.614   9.442   8.668
69865SOL    HW111427   4.696   9.395   8.681
69865SOL    HW211428   4.625   9.523   8.718
69866SOL     OW11429  11.805  14.310   7.925
69866SOL    HW111430  11.815  14.270   7.839
69866SOL    HW211431  11.868  14.264   7.981
69867SOL     OW11432  13.072  14.029   7.590
69867SOL    HW111433  13.123  13.962   7.544
69867SOL    HW211434  12.983  14.019   7.556
69868SOL     OW11435   1.119  13.815   4.571
69868SOL    HW111436   1.158  13.748   4.514
69868SOL    HW211437   1.098  13.768   4.651
69869SOL     OW11438   8.641   2.374  14.199
69869SOL    HW111439   8.728   2.410  14.179
69869SOL    HW211440   8.580   2.428  14.150
69870SOL     OW11441   8.580  12.807   4.786
69870SOL    HW111442   8.563  12.719   4.820
69870SOL    HW211443   8.627  12.793   4.704
69871SOL     OW11444  10.668   2.849   2.276
69871SOL    HW111445  10.758   2.818   2.283
69871SOL    HW211446  10.648   2.842   2.182
69872SOL     OW11447   0.010  11.645  11.348
69872SOL    HW111448  14.830  11.595  11.402
69872SOL    HW211449   0.062  11.579  11.303
69873SOL     OW11450   1.036   1.750   1.162
69873SOL    HW111451   1.001   1.826   1.116
69873SOL    HW211452   0.963   1.688   1.163
69874SOL     OW11453  14.306  10.671   3.855
69874SOL    HW111454  14.377  10.719   3.897
69874SOL    HW211455  14.241  10.738   3.833
69875SOL     OW11456   6.410   4.722   1.586
69875SOL    HW111457   6.505   4.714   1.594
69875SOL    HW211458   6.376   4.694   1.670
69876SOL     OW11459  10.433   1.278  13.845
69876SOL    HW111460  10.365   1.275  13.777
69876SOL    HW211461  10.472   1.191  13.842
69877SOL     OW11462   5.145   4.820  14.800
69877SOL    HW111463   5.116   4.895  14.852
69877SOL    HW211464   5.065   4.783  14.764
69878SOL     OW11465  14.234   7.523   2.340
69878SOL    HW111466  14.168   7.499   2.275
69878SOL    HW211467  14.247   7.617   2.327
69879SOL     OW11468   7.924  14.398   7.817
69879SOL    HW111469   7.993  14.389   7.883
69879SOL    HW211470   7.963  14.454   7.749
69880SOL     OW11471   6.132   0.353   2.756
69880SOL    HW111472   6.044   0.330   2.784
69880SOL    HW211473   6.119   0.422   2.691
69881SOL     OW11474   5.465  11.891   8.188
69881SOL    HW111475   5.469  11.798   8.210
69881SOL    HW211476   5.392  11.925   8.240
69882SOL     OW11477  11.912   5.901   4.808
69882SOL    HW111478  11.825   5.935   4.788
69882SOL    HW211479  11.923   5.825   4.750
69883SOL     OW11480   5.370   7.568   7.316
69883SOL    HW111481   5.315   7.548   7.241
69883SOL    HW211482   5.332   7.647   7.354
69884SOL     OW11483  13.196  11.308  11.760
69884SOL    HW111484  13.246  11.325  11.680
69884SOL    HW211485  13.180  11.214  11.758
69885SOL     OW11486   0.050  12.153   6.138
69885SOL    HW111487   0.048  12.177   6.046
69885SOL    HW211488   0.142  12.138   6.158
69886SOL     OW11489  12.450  10.314   9.297
69886SOL    HW111490  12.377  10.257   9.320
69886SOL    HW211491  12.501  10.263   9.233
69887SOL     OW11492   6.919   8.056   9.637
69887SOL    HW111493   6.893   8.142   9.671
69887SOL    HW211494   6.862   8.042   9.561
69888SOL     OW11495   1.881   5.057  11.875
69888SOL    HW111496   1.881   5.146  11.841
69888SOL    HW211497   1.878   5.067  11.970
69889SOL     OW11498   4.206   3.223   6.691
69889SOL    HW111499   4.218   3.133   6.663
69889SOL    HW211500   4.115   3.228   6.719
69890SOL     OW11501   1.841  13.461   5.271
69890SOL    HW111502   1.800  13.454   5.358
69890SOL    HW211503   1.935  13.455   5.288
69891SOL     OW11504   3.621   5.852   1.393
69891SOL    HW111505   3.586   5.848   1.482
69891SOL    HW211506   3.660   5.939   1.387
69892SOL     OW11507  10.730   3.483   3.321
69892SOL    HW111508  10.820   3.501   3.348
69892SOL    HW211509  10.725   3.388   3.313
69893SOL     OW11510   5.750   4.303   2.824
69893SOL    HW111511   5.720   4.315   2.914
69893SOL    HW211512   5.673   4.269   2.778
69894SOL     OW11513   5.691  11.893  14.269
69894SOL    HW111514   5.724  11.811  14.305
69894SOL    HW211515   5.638  11.931  14.340
69895SOL     OW11516   2.689  14.434   0.979
69895SOL    HW111517   2.760  14.461   1.038
69895SOL    HW211518   2.620  14.403   1.038
69896SOL     OW11519  13.388   5.540   1.924
69896SOL    HW111520  13.327   5.587   1.867
69896SOL    HW211521  13.372   5.576   2.012
69897SOL     OW11522  14.065  13.663   4.714
69897SOL    HW111523  14.025  13.666   4.627
69897SOL    HW211524  14.045  13.575   4.746
69898SOL     OW11525   2.242  10.492   7.318
69898SOL    HW111526   2.304  10.558   7.349
69898SOL    HW211527   2.165  10.542   7.291
69899SOL     OW11528  14.005  11.968   7.096
69899SOL    HW111529  13.979  11.877   7.086
69899SOL    HW211530  13.925  12.014   7.119
69900SOL     OW11531   8.373   4.578   5.269
69900SOL    HW111532   8.352   4.486   5.288
69900SOL    HW211533   8.427   4.575   5.191
69901SOL     OW11534  11.944   1.385   4.846
69901SOL    HW111535  12.001   1.460   4.863
69901SOL    HW211536  11.939   1.380   4.751
69902SOL     OW11537  13.148  13.079  11.008
69902SOL    HW111538  13.168  13.154  10.952
69902SOL    HW211539  13.167  13.002  10.953
69903SOL     OW11540   4.119  10.848   3.027
69903SOL    HW111541   4.158  10.792   3.095
69903SOL    HW211542   4.096  10.787   2.957
69904SOL     OW11543   2.972   1.487  11.776
69904SOL    HW111544   2.986   1.466  11.683
69904SOL    HW211545   3.046   1.543  11.799
69905SOL     OW11546   6.975   7.388  13.317
69905SOL    HW111547   6.904   7.342  13.271
69905SOL    HW211548   6.958   7.481  13.302
69906SOL     OW11549   1.843   4.637   7.990
69906SOL    HW111550   1.803   4.632   7.903
69906SOL    HW211551   1.937   4.631   7.973
69907SOL     OW11552   0.058   1.980  13.190
69907SOL    HW111553   0.088   1.914  13.253
69907SOL    HW211554  14.862   1.942  13.150
69908SOL     OW11555   6.797   0.259  10.063
69908SOL    HW111556   6.868   0.301  10.113
69908SOL    HW211557   6.739   0.331  10.040
69909SOL     OW11558   5.147  13.176  13.968
69909SOL    HW111559   5.174  13.227  13.891
69909SOL    HW211560   5.226  13.174  14.023
69910SOL     OW11561  14.642   5.248   0.509
69910SOL    HW111562  14.553   5.279   0.528
69910SOL    HW211563  14.633   5.192   0.432
69911SOL     OW11564  13.509   7.813   7.432
69911SOL    HW111565  13.414   7.804   7.431
69911SOL    HW211566  13.525   7.901   7.467
69912SOL     OW11567   5.495  12.726   5.995
69912SOL    HW111568   5.461  12.728   5.905
69912SOL    HW211569   5.442  12.660   6.039
69913SOL     OW11570  13.143  10.863  10.301
69913SOL    HW111571  13.186  10.803  10.363
69913SOL    HW211572  13.139  10.813  10.219
69914SOL     OW11573   1.071   2.807   6.141
69914SOL    HW111574   1.133   2.745   6.102
69914SOL    HW211575   1.122   2.887   6.152
69915SOL     OW11576   5.965  13.315   5.503
69915SOL    HW111577   5.995  13.386   5.559
69915SOL    HW211578   5.870  13.322   5.504
69916SOL     OW11579   4.261  10.214  11.711
69916SOL    HW111580   4.180  10.173  11.742
69916SOL    HW211581   4.253  10.214  11.615
69917SOL     OW11582  12.410  11.369   3.562
69917SOL    HW111583  12.315  11.359   3.567
69917SOL    HW211584  12.437  11.391   3.652
69918SOL     OW11585   0.724   0.678   9.484
69918SOL    HW111586   0.743   0.601   9.539
69918SOL    HW211587   0.644   0.714   9.521
69919SOL     OW11588   6.178   4.782   7.465
69919SOL    HW111589   6.262   4.805   7.425
69919SOL    HW211590   6.113   4.819   7.406
69920SOL     OW11591   3.162  10.798  10.506
69920SOL    HW111592   3.247  10.756  10.524
69920SOL    HW211593   3.154  10.797  10.411
69921SOL     OW11594   0.663   6.590   0.147
69921SOL    HW111595   0.739   6.647   0.135
69921SOL    HW211596   0.695   6.520   0.204
69922SOL     OW11597  10.232   8.476  13.570
69922SOL    HW111598  10.182   8.421  13.630
69922SOL    HW211599  10.258   8.552  13.622
69923SOL     OW11600  14.481   2.124  12.640
69923SOL    HW111601  14.481   2.195  12.575
69923SOL    HW211602  14.522   2.162  12.717
69924SOL     OW11603   0.906   0.244   3.936
69924SOL    HW111604   0.885   0.297   3.859
69924SOL    HW211605   0.924   0.156   3.901
69925SOL     OW11606   7.096  11.917  11.634
69925SOL    HW111607   7.098  11.966  11.552
69925SOL    HW211608   7.006  11.924  11.664
69926SOL     OW11609   5.899   3.719  14.710
69926SOL    HW111610   5.927   3.809  14.694
69926SOL    HW211611   5.976   3.665  14.692
69927SOL     OW11612   2.766  12.660   7.707
69927SOL    HW111613   2.694  12.599   7.717
69927SOL    HW211614   2.725  12.747   7.717
69928SOL     OW11615  14.820   5.839  13.554
69928SOL    HW111616  14.754   5.896  13.516
69928SOL    HW211617  14.772   5.788  13.620
69929SOL     OW11618   9.914   7.803   0.939
69929SOL    HW111619   9.960   7.720   0.922
69929SOL    HW211620   9.910   7.846   0.854
69930SOL     OW11621   2.722   2.148   6.887
69930SOL    HW111622   2.627   2.155   6.887
69930SOL    HW211623   2.743   2.111   6.972
69931SOL     OW11624   4.206   7.841  13.821
69931SOL    HW111625   4.246   7.817  13.905
69931SOL    HW211626   4.278   7.874  13.769
69932SOL     OW11627   4.487   2.513   5.291
69932SOL    HW111628   4.526   2.599   5.278
69932SOL    HW211629   4.399   2.531   5.325
69933SOL     OW11630   9.161   1.556   0.845
69933SOL    HW111631   9.229   1.566   0.912
69933SOL    HW211632   9.104   1.486   0.878
69934SOL     OW11633   0.042   0.740  13.369
69934SOL    HW111634   0.079   0.707  13.287
69934SOL    HW211635  14.842   0.692  13.380
69935SOL     OW11636   6.629  13.915  12.995
69935SOL    HW111637   6.646  13.939  13.086
69935SOL    HW211638   6.538  13.887  12.993
69936SOL     OW11639  11.180  12.563   5.358
69936SOL    HW111640  11.267  12.531   5.334
69936SOL    HW211641  11.182  12.571   5.453
69937SOL     OW11642  13.745  14.820   2.002
69937SOL    HW111643  13.830  14.860   2.019
69937SOL    HW211644  13.764  14.750   1.939
69938SOL     OW11645   9.319   3.984  13.949
69938SOL    HW111646   9.233   4.008  13.914
69938SOL    HW211647   9.378   3.989  13.874
69939SOL     OW11648   1.823   2.016   3.995
69939SOL    HW111649   1.790   1.962   4.067
69939SOL    HW211650   1.785   2.102   4.010
69940SOL     OW11651   9.317   1.450  11.307
69940SOL    HW111652   9.376   1.389  11.263
69940SOL    HW211653   9.278   1.398  11.377
69941SOL     OW11654  10.883  12.850  12.791
69941SOL    HW111655  10.872  12.942  12.766
69941SOL    HW211656  10.799  12.826  12.831
69942SOL     OW11657  14.421   8.237  11.793
69942SOL    HW111658  14.506   8.222  11.834
69942SOL    HW211659  14.393   8.323  11.825
69943SOL     OW11660  11.521  11.660   2.479
69943SOL    HW111661  11.556  11.571   2.476
69943SOL    HW211662  11.590  11.714   2.439
69944SOL     OW11663  11.693   5.230   3.332
69944SOL    HW111664  11.755   5.231   3.405
69944SOL    HW211665  11.684   5.137   3.311
69945SOL     OW11666  10.420  12.425  14.811
69945SOL    HW111667  10.513  12.403  14.800
69945SOL    HW211668  10.381  12.408  14.725
69946SOL     OW11669  11.214  10.667   1.569
69946SOL    HW111670  11.166  10.629   1.643
69946SOL    HW211671  11.224  10.759   1.591
69947SOL     OW11672   1.712  11.587   9.526
69947SOL    HW111673   1.743  11.562   9.613
69947SOL    HW211674   1.670  11.508   9.492
69948SOL     OW11675  10.896   1.387   7.518
69948SOL    HW111676  10.882   1.443   7.442
69948SOL    HW211677  10.895   1.447   7.593
69949SOL     OW11678  14.758   3.006   7.497
69949SOL    HW111679  14.667   2.989   7.474
69949SOL    HW211680  14.793   2.920   7.521
69950SOL     OW11681   0.795  12.599   3.536
69950SOL    HW111682   0.886  12.615   3.563
69950SOL    HW211683   0.793  12.507   3.510
69951SOL     OW11684  14.725   3.246  13.428
69951SOL    HW111685  14.641   3.283  13.456
69951SOL    HW211686  14.776   3.322  13.400
69952SOL     OW11687   4.850  10.678  10.087
69952SOL    HW111688   4.756  10.661  10.090
69952SOL    HW211689   4.868  10.728  10.167
69953SOL     OW11690  13.334   5.650   4.278
69953SOL    HW111691  13.355   5.692   4.362
69953SOL    HW211692  13.329   5.722   4.216
69954SOL     OW11693  13.035  11.689   8.907
69954SOL    HW111694  12.958  11.667   8.960
69954SOL    HW211695  13.029  11.630   8.832
69955SOL     OW11696   0.178  13.394   0.922
69955SOL    HW111697   0.130  13.333   0.978
69955SOL    HW211698   0.124  13.474   0.923
69956SOL     OW11699   9.470   8.131   4.629
69956SOL    HW111700   9.531   8.151   4.700
69956SOL    HW211701   9.482   8.038   4.612
69957SOL     OW11702   7.622   2.420  13.964
69957SOL    HW111703   7.602   2.355  14.031
69957SOL    HW211704   7.647   2.368  13.887
69958SOL     OW11705   1.912   4.701   4.017
69958SOL    HW111706   1.845   4.672   4.079
69958SOL    HW211707   1.995   4.678   4.058
69959SOL     OW11708   1.055   0.332   7.208
69959SOL    HW111709   1.146   0.331   7.236
69959SOL    HW211710   1.058   0.300   7.118
69960SOL     OW11711  11.817  10.185   9.496
69960SOL    HW111712  11.828  10.280   9.490
69960SOL    HW211713  11.792  10.169   9.587
69961SOL     OW11714   8.895   8.717   2.414
69961SOL    HW111715   8.917   8.777   2.485
69961SOL    HW211716   8.960   8.647   2.420
69962SOL     OW11717   0.725   8.545   0.014
69962SOL    HW111718   0.687   8.478  14.840
69962SOL    HW211719   0.651   8.601   0.039
69963SOL     OW11720   1.838  11.326  10.331
69963SOL    HW111721   1.777  11.376  10.278
69963SOL    HW211722   1.799  11.239  10.338
69964SOL     OW11723   6.955   3.061   1.324
69964SOL    HW111724   6.959   3.048   1.419
69964SOL    HW211725   7.015   2.997   1.288
69965SOL     OW11726  11.670  13.300  12.270
69965SOL    HW111727  11.655  13.392  12.252
69965SOL    HW211728  11.639  13.254  12.192
69966SOL     OW11729   8.145   7.163  12.168
69966SOL    HW111730   8.156   7.224  12.095
69966SOL    HW211731   8.172   7.212  12.245
69967SOL     OW11732  10.238   0.294  11.269
69967SOL    HW111733  10.301   0.246  11.322
69967SOL    HW211734  10.173   0.229  11.244
69968SOL     OW11735   4.686  14.196  11.658
69968SOL    HW111736   4.636  14.219  11.580
69968SOL    HW211737   4.775  14.223  11.638
69969SOL     OW11738   9.934   2.736   5.632
69969SOL    HW111739   9.987   2.816   5.627
69969SOL    HW211740   9.990   2.668   5.594
69970SOL     OW11741   4.668  10.548  13.184
69970SOL    HW111742   4.754  10.557  13.143
69970SOL    HW211743   4.684  10.558  13.277
69971SOL     OW11744  10.628   6.287  11.856
69971SOL    HW111745  10.704   6.229  11.866
69971SOL    HW211746  10.650   6.363  11.909
69972SOL     OW11747  10.125   7.205  13.408
69972SOL    HW111748  10.103   7.296  13.428
69972SOL    HW211749  10.166   7.209  13.322
69973SOL     OW11750  12.450   5.743  12.959
69973SOL    HW111751  12.493   5.823  12.929
69973SOL    HW211752  12.474   5.677  12.894
69974SOL     OW11753  14.450   2.194   2.952
69974SOL    HW111754  14.422   2.187   2.860
69974SOL    HW211755  14.424   2.111   2.991
69975SOL     OW11756  12.927   8.987   5.493
69975SOL    HW111757  13.022   8.975   5.491
69975SOL    HW211758  12.915   9.082   5.489
69976SOL     OW11759   8.920   1.685   4.845
69976SOL    HW111760   9.011   1.667   4.871
69976SOL    HW211761   8.919   1.669   4.751
69977SOL     OW11762   8.735   5.921  10.697
69977SOL    HW111763   8.740   5.963  10.782
69977SOL    HW211764   8.652   5.950  10.660
69978SOL     OW11765   0.481  13.273   2.171
69978SOL    HW111766   0.565  13.259   2.128
69978SOL    HW211767   0.503  13.309   2.257
69979SOL     OW11768   4.409   3.291   9.869
69979SOL    HW111769   4.419   3.230   9.942
69979SOL    HW211770   4.356   3.244   9.805
69980SOL     OW11771   3.268   9.681   9.420
69980SOL    HW111772   3.198   9.745   9.435
69980SOL    HW211773   3.338   9.708   9.480
69981SOL     OW11774   6.263   4.992   6.725
69981SOL    HW111775   6.348   4.952   6.742
69981SOL    HW211776   6.220   4.932   6.665
69982SOL     OW11777   2.360  13.389   2.650
69982SOL    HW111778   2.328  13.478   2.662
69982SOL    HW211779   2.416  13.393   2.572
69983SOL     OW11780   6.465   7.014  13.369
69983SOL    HW111781   6.379   7.029  13.407
69983SOL    HW211782   6.517   6.977  13.440
69984SOL     OW11783  12.158   4.002  10.871
69984SOL    HW111784  12.214   4.077  10.853
69984SOL    HW211785  12.090   4.037  10.930
69985SOL     OW11786  13.791   2.876   7.355
69985SOL    HW111787  13.722   2.941   7.345
69985SOL    HW211788  13.811   2.848   7.266
69986SOL     OW11789   6.253  13.297   7.540
69986SOL    HW111790   6.243  13.317   7.447
69986SOL    HW211791   6.299  13.373   7.576
69987SOL     OW11792  11.545  12.675  12.069
69987SOL    HW111793  11.635  12.691  12.041
69987SOL    HW211794  11.493  12.739  12.021
69988SOL     OW11795  14.840  11.203   9.820
69988SOL    HW111796   0.023  11.272   9.804
69988SOL    HW211797  14.756  11.244   9.796
69989SOL     OW11798   8.067   7.003   6.944
69989SOL    HW111799   8.146   7.026   6.992
69989SOL    HW211800   8.031   7.087   6.915
69990SOL     OW11801  13.605  12.885  14.605
69990SOL    HW111802  13.583  12.839  14.524
69990SOL    HW211803  13.698  12.868  14.618
69991SOL     OW11804   6.697  10.639   1.855
69991SOL    HW111805   6.619  10.592   1.883
69991SOL    HW211806   6.767  10.573   1.857
69992SOL     OW11807   3.139   3.300   9.706
69992SOL    HW111808   3.172   3.362   9.641
69992SOL    HW211809   3.049   3.331   9.723
69993SOL     OW11810  12.176  10.328  10.906
69993SOL    HW111811  12.170  10.338  10.811
69993SOL    HW211812  12.257  10.278  10.920
69994SOL     OW11813   7.338   7.904   0.019
69994SOL    HW111814   7.330   7.952  14.819
69994SOL    HW211815   7.364   7.816  14.875
69995SOL     OW11816  12.506  13.492   7.875
69995SOL    HW111817  12.517  13.400   7.852
69995SOL    HW211818  12.582  13.513   7.930
69996SOL     OW11819  12.101   1.347   1.350
69996SOL    HW111820  12.032   1.288   1.381
69996SOL    HW211821  12.126   1.398   1.427
69997SOL     OW11822  13.746   3.353  12.510
69997SOL    HW111823  13.806   3.283  12.535
69997SOL    HW211824  13.731   3.340  12.416
69998SOL     OW11825  14.747   6.616   4.431
69998SOL    HW111826  14.815   6.556   4.462
69998SOL    HW211827  14.705   6.648   4.511
69999SOL     OW11828   8.297   9.610   5.664
69999SOL    HW111829   8.342   9.612   5.580
69999SOL    HW211830   8.269   9.701   5.678
70000SOL     OW11831  14.662  13.299   5.689
70000SOL    HW111832  14.630  13.313   5.778
70000SOL    HW211833  14.665  13.387   5.651
70001SOL     OW11834   9.278  14.088   2.891
70001SOL    HW111835   9.230  14.156   2.843
70001SOL    HW211836   9.211  14.036   2.934
70002SOL     OW11837   8.054   0.984  10.890
70002SOL    HW111838   8.041   0.928  10.966
70002SOL    HW211839   7.985   0.956  10.829
70003SOL     OW11840  13.041  11.460   2.106
70003SOL    HW111841  13.042  11.542   2.155
70003SOL    HW211842  12.976  11.406   2.150
70004SOL     OW11843  13.163  10.971  14.243
70004SOL    HW111844  13.241  11.012  14.204
70004SOL    HW211845  13.105  11.045  14.262
70005SOL     OW11846   1.682   7.838  11.351
70005SOL    HW111847   1.771   7.836  11.316
70005SOL    HW211848   1.692   7.823  11.445
70006SOL     OW11849   6.997   8.465  11.744
70006SOL    HW111850   7.011   8.510  11.660
70006SOL    HW211851   6.938   8.523  11.792
70007SOL     OW11852  11.174   8.793  14.355
70007SOL    HW111853  11.107   8.736  14.393
70007SOL    HW211854  11.200   8.749  14.274
70008SOL     OW11855   5.460   5.587   2.357
70008SOL    HW111856   5.450   5.583   2.262
70008SOL    HW211857   5.435   5.500   2.387
70009SOL     OW11858  12.721   4.277   7.173
70009SOL    HW111859  12.775   4.335   7.227
70009SOL    HW211860  12.734   4.309   7.084
70010SOL     OW11861  11.570  13.705  11.300
70010SOL    HW111862  11.541  13.794  11.320
70010SOL    HW211863  11.541  13.690  11.210
70011SOL     OW11864   8.001   4.711   4.704
70011SOL    HW111865   8.086   4.756   4.705
70011SOL    HW211866   7.985   4.686   4.795
70012SOL     OW11867   9.942  14.813  11.378
70012SOL    HW111868  10.014  14.843  11.433
70012SOL    HW211869   9.883  14.767  11.438
70013SOL     OW11870  13.530   5.066   7.688
70013SOL    HW111871  13.509   5.087   7.597
70013SOL    HW211872  13.519   4.971   7.694
70014SOL     OW11873   5.343  13.363   5.090
70014SOL    HW111874   5.434  13.331   5.093
70014SOL    HW211875   5.308  13.343   5.177
70015SOL     OW11876  11.212   4.936   7.125
70015SOL    HW111877  11.196   4.848   7.161
70015SOL    HW211878  11.204   4.925   7.031
70016SOL     OW11879  12.110  10.228  12.286
70016SOL    HW111880  12.062  10.154  12.323
70016SOL    HW211881  12.091  10.301  12.345
70017SOL     OW11882  10.993   6.962   5.839
70017SOL    HW111883  10.921   7.001   5.789
70017SOL    HW211884  10.988   7.004   5.925
70018SOL     OW11885   8.347   7.045  11.973
70018SOL    HW111886   8.333   7.107  12.045
70018SOL    HW211887   8.263   7.043  11.926
70019SOL     OW11888  14.620  12.336   6.723
70019SOL    HW111889  14.540  12.305   6.765
70019SOL    HW211890  14.686  12.271   6.745
70020SOL     OW11891  13.986   3.245   7.929
70020SOL    HW111892  13.943   3.175   7.979
70020SOL    HW211893  14.077   3.245   7.960
70021SOL     OW11894  11.354  11.069  10.570
70021SOL    HW111895  11.286  11.132  10.548
70021SOL    HW211896  11.358  11.010  10.495
70022SOL     OW11897   5.935   4.945   3.033
70022SOL    HW111898   5.844   4.929   3.008
70022SOL    HW211899   5.959   5.025   2.985
70023SOL     OW11900   2.016   1.943  13.558
70023SOL    HW111901   2.004   1.900  13.474
70023SOL    HW211902   1.982   1.881  13.622
70024SOL     OW11903   1.578   6.066   6.970
70024SOL    HW111904   1.664   6.084   7.009
70024SOL    HW211905   1.579   6.115   6.887
70025SOL     OW11906  14.299  11.690   9.206
70025SOL    HW111907  14.283  11.600   9.232
70025SOL    HW211908  14.212  11.724   9.184
70026SOL     OW11909  10.655   0.422   8.596
70026SOL    HW111910  10.573   0.375   8.581
70026SOL    HW211911  10.631   0.496   8.652
70027SOL     OW11912  11.282   0.178  14.635
70027SOL    HW111913  11.197   0.203  14.672
70027SOL    HW211914  11.321   0.260  14.607
70028SOL     OW11915   1.394   6.927   7.507
70028SOL    HW111916   1.389   6.884   7.422
70028SOL    HW211917   1.377   6.858   7.571
70029SOL     OW11918   5.263  13.120  11.110
70029SOL    HW111919   5.233  13.115  11.201
70029SOL    HW211920   5.274  13.029  11.083
70030SOL     OW11921  14.386  10.159  12.078
70030SOL    HW111922  14.476  10.136  12.100
70030SOL    HW211923  14.381  10.254  12.093
70031SOL     OW11924   2.981  12.362   9.413
70031SOL    HW111925   2.972  12.330   9.503
70031SOL    HW211926   2.950  12.290   9.359
70032SOL     OW11927   1.337   9.644   2.275
70032SOL    HW111928   1.314   9.588   2.200
70032SOL    HW211929   1.308   9.594   2.352
70033SOL     OW11930  10.724  13.192   2.051
70033SOL    HW111931  10.631  13.169   2.050
70033SOL    HW211932  10.760  13.140   2.123
70034SOL     OW11933   1.845   4.067   6.736
70034SOL    HW111934   1.901   3.990   6.726
70034SOL    HW211935   1.906   4.139   6.757
70035SOL     OW11936  14.707   6.351   9.052
70035SOL    HW111937  14.776   6.336   9.117
70035SOL    HW211938  14.737   6.427   9.003
70036SOL     OW11939   2.279  11.588  11.930
70036SOL    HW111940   2.271  11.496  11.904
70036SOL    HW211941   2.328  11.629  11.858
70037SOL     OW11942   6.317   1.995   2.821
70037SOL    HW111943   6.303   2.090   2.824
70037SOL    HW211944   6.394   1.980   2.876
70038SOL     OW11945   9.014   1.951  14.156
70038SOL    HW111946   8.941   1.896  14.130
70038SOL    HW211947   8.975   2.036  14.175
70039SOL     OW11948   7.804   8.854  11.703
70039SOL    HW111949   7.867   8.829  11.635
70039SOL    HW211950   7.857   8.866  11.782
70040SOL     OW11951   2.649   6.062   0.038
70040SOL    HW111952   2.739   6.082   0.011
70040SOL    HW211953   2.658   6.029   0.128
70041SOL     OW11954   9.229   9.134  12.521
70041SOL    HW111955   9.188   9.184  12.451
70041SOL    HW211956   9.208   9.042  12.500
70042SOL     OW11957   6.766   3.250  11.543
70042SOL    HW111958   6.782   3.326  11.487
70042SOL    HW211959   6.673   3.232  11.534
70043SOL     OW11960   3.743  14.491   1.295
70043SOL    HW111961   3.665  14.521   1.249
70043SOL    HW211962   3.723  14.502   1.388
70044SOL     OW11963   8.549   0.335   9.966
70044SOL    HW111964   8.623   0.367   9.914
70044SOL    HW211965   8.514   0.414  10.009
70045SOL     OW11966  10.864   6.819  12.886
70045SOL    HW111967  10.907   6.864  12.813
70045SOL    HW211968  10.815   6.748  12.845
70046SOL     OW11969   1.542   9.535   3.909
70046SOL    HW111970   1.563   9.552   3.817
70046SOL    HW211971   1.452   9.504   3.907
70047SOL     OW11972  11.874  14.809   8.185
70047SOL    HW111973  11.812  14.737   8.183
70047SOL    HW211974  11.853  14.857   8.266
70048SOL     OW11975   1.332   7.737   7.816
70048SOL    HW111976   1.260   7.750   7.878
70048SOL    HW211977   1.302   7.668   7.757
70049SOL     OW11978   2.570   8.651  11.569
70049SOL    HW111979   2.598   8.562  11.548
70049SOL    HW211980   2.650   8.696  11.595
70050SOL     OW11981   5.132  10.824  10.731
70050SOL    HW111982   5.184  10.853  10.806
70050SOL    HW211983   5.193  10.827  10.657
70051SOL     OW11984   2.866   3.638   6.417
70051SOL    HW111985   2.866   3.548   6.384
70051SOL    HW211986   2.874   3.629   6.512
70052SOL     OW11987   0.953  12.262   5.075
70052SOL    HW111988   0.895  12.313   5.131
70052SOL    HW211989   0.924  12.281   4.986
70053SOL     OW11990   2.412  10.480   0.065
70053SOL    HW111991   2.439  10.493   0.156
70053SOL    HW211992   2.317  10.467   0.070
70054SOL     OW11993   3.866   5.323   3.730
70054SOL    HW111994   3.884   5.253   3.793
70054SOL    HW211995   3.891   5.404   3.775
70055SOL     OW11996   5.781   7.869   3.456
70055SOL    HW111997   5.815   7.947   3.412
70055SOL    HW211998   5.750   7.901   3.541
70056SOL     OW11999   0.860  12.379  11.183
70056SOL    HW112000   0.835  12.385  11.091
70056SOL    HW212001   0.815  12.452  11.225
70057SOL     OW12002  12.502   0.922   3.226
70057SOL    HW112003  12.407   0.921   3.228
70057SOL    HW212004  12.528   0.983   3.295
70058SOL     OW12005   4.819   0.428   0.615
70058SOL    HW112006   4.842   0.359   0.553
70058SOL    HW212007   4.787   0.500   0.560
70059SOL     OW12008   1.567  11.308   9.970
70059SOL    HW112009   1.644  11.359   9.945
70059SOL    HW212010   1.504  11.323   9.899
70060SOL     OW12011  10.389   5.296  13.798
70060SOL    HW112012  10.324   5.303  13.868
70060SOL    HW212013  10.429   5.383  13.793
70061SOL     OW12014   3.837  12.608  11.409
70061SOL    HW112015   3.851  12.607  11.504
70061SOL    HW212016   3.891  12.537  11.375
70062SOL     OW12017   5.492   8.958   3.661
70062SOL    HW112018   5.461   8.980   3.573
70062SOL    HW212019   5.587   8.971   3.656
70063SOL     OW12020  14.154   8.338   9.728
70063SOL    HW112021  14.249   8.346   9.737
70063SOL    HW212022  14.140   8.325   9.634
70064SOL     OW12023  12.434   5.681   2.421
70064SOL    HW112024  12.511   5.680   2.478
70064SOL    HW212025  12.399   5.593   2.425
70065SOL     OW12026   9.281  13.025   5.829
70065SOL    HW112027   9.303  12.933   5.810
70065SOL    HW212028   9.311  13.073   5.752
70066SOL     OW12029   6.223   2.007   1.909
70066SOL    HW112030   6.216   2.046   1.821
70066SOL    HW212031   6.143   2.036   1.954
70067SOL     OW12032  11.294   4.938   6.853
70067SOL    HW112033  11.249   4.948   6.770
70067SOL    HW212034  11.378   4.983   6.841
70068SOL     OW12035   7.985   5.343   5.000
70068SOL    HW112036   8.045   5.392   4.944
70068SOL    HW212037   7.902   5.342   4.952
70069SOL     OW12038  14.687   9.186   0.028
70069SOL    HW112039  14.699   9.202  14.817
70069SOL    HW212040  14.666   9.272   0.065
70070SOL     OW12041   0.860  14.013  13.523
70070SOL    HW112042   0.871  14.097  13.567
70070SOL    HW212043   0.934  14.007  13.463
70071SOL     OW12044   0.160   9.161  11.608
70071SOL    HW112045   0.235   9.144  11.665
70071SOL    HW212046   0.146   9.255  11.613
70072SOL     OW12047  10.834   2.203  10.814
70072SOL    HW112048  10.852   2.295  10.796
70072SOL    HW212049  10.738   2.196  10.808
70073SOL     OW12050   7.941   7.594  12.520
70073SOL    HW112051   7.853   7.575  12.552
70073SOL    HW212052   7.937   7.683  12.487
70074SOL     OW12053  12.478   6.339  10.641
70074SOL    HW112054  12.433   6.276  10.697
70074SOL    HW212055  12.473   6.301  10.553
70075SOL     OW12056   7.334   0.927   0.629
70075SOL    HW112057   7.346   0.865   0.700
70075SOL    HW212058   7.261   0.891   0.578
70076SOL     OW12059  12.274   0.323   8.567
70076SOL    HW112060  12.220   0.248   8.541
70076SOL    HW212061  12.213   0.396   8.571
70077SOL     OW12062  13.676   5.973   6.386
70077SOL    HW112063  13.624   5.900   6.421
70077SOL    HW212064  13.611   6.035   6.353
70078SOL     OW12065   6.962   5.178   0.065
70078SOL    HW112066   6.922   5.125   0.134
70078SOL    HW212067   7.050   5.142   0.056
70079SOL     OW12068   3.768   0.760  11.423
70079SOL    HW112069   3.829   0.687  11.431
70079SOL    HW212070   3.694   0.736  11.478
70080SOL     OW12071   0.246   8.539  10.737
70080SOL    HW112072   0.311   8.475  10.708
70080SOL    HW212073   0.285   8.581  10.814
70081SOL     OW12074   2.590   0.386   7.527
70081SOL    HW112075   2.679   0.354   7.520
70081SOL    HW212076   2.598   0.471   7.570
70082SOL     OW12077   2.222  10.245  13.656
70082SOL    HW112078   2.222  10.320  13.716
70082SOL    HW212079   2.160  10.269  13.587
70083SOL     OW12080  11.555   1.010   2.972
70083SOL    HW112081  11.470   0.967   2.986
70083SOL    HW212082  11.583   0.980   2.886
70084SOL     OW12083   0.855   0.463   5.518
70084SOL    HW112084   0.811   0.545   5.537
70084SOL    HW212085   0.897   0.477   5.433
70085SOL     OW12086  11.486   0.468   9.938
70085SOL    HW112087  11.546   0.504   9.872
70085SOL    HW212088  11.441   0.544   9.974
70086SOL     OW12089   2.831   7.758   8.425
70086SOL    HW112090   2.806   7.692   8.360
70086SOL    HW212091   2.852   7.836   8.374
70087SOL     OW12092   8.158   2.373   4.433
70087SOL    HW112093   8.103   2.296   4.449
70087SOL    HW212094   8.190   2.398   4.520
70088SOL     OW12095  13.385   7.352   0.491
70088SOL    HW112096  13.303   7.372   0.535
70088SOL    HW212097  13.442   7.427   0.510
70089SOL     OW12098   4.046   9.772  11.806
70089SOL    HW112099   4.048   9.677  11.817
70089SOL    HW212100   3.993   9.787  11.728
70090SOL     OW12101  10.014   7.079  11.079
70090SOL    HW112102   9.957   7.131  11.023
70090SOL    HW212103  10.016   7.127  11.162
70091SOL     OW12104  11.421   4.360   1.611
70091SOL    HW112105  11.475   4.363   1.532
70091SOL    HW212106  11.406   4.266   1.626
70092SOL     OW12107   4.775   9.402  13.802
70092SOL    HW112108   4.770   9.472  13.866
70092SOL    HW212109   4.829   9.437  13.731
70093SOL     OW12110  14.336   2.273  11.028
70093SOL    HW112111  14.261   2.220  11.056
70093SOL    HW212112  14.330   2.275  10.933
70094SOL     OW12113   4.392  12.040   0.797
70094SOL    HW112114   4.365  12.067   0.709
70094SOL    HW212115   4.470  12.094   0.815
70095SOL     OW12116  12.005   5.990  13.557
70095SOL    HW112117  11.949   5.962  13.484
70095SOL    HW212118  11.949   6.048  13.609
70096SOL     OW12119  12.746   8.853  10.246
70096SOL    HW112120  12.786   8.816  10.325
70096SOL    HW212121  12.685   8.919  10.279
70097SOL     OW12122   7.082  14.357  12.253
70097SOL    HW112123   7.000  14.332  12.210
70097SOL    HW212124   7.151  14.325  12.194
70098SOL     OW12125   9.015   7.920  13.054
70098SOL    HW112126   9.097   7.963  13.079
70098SOL    HW212127   9.022   7.833  13.093
70099SOL     OW12128  10.527   2.978   4.545
70099SOL    HW112129  10.509   3.072   4.544
70099SOL    HW212130  10.621   2.972   4.562
70100SOL     OW12131  12.127   5.931   3.137
70100SOL    HW112132  12.071   6.001   3.102
70100SOL    HW212133  12.073   5.853   3.133
70101SOL     OW12134  13.793   8.561  11.840
70101SOL    HW112135  13.811   8.651  11.812
70101SOL    HW212136  13.871   8.512  11.816
70102SOL     OW12137   1.860   0.364   5.284
70102SOL    HW112138   1.902   0.284   5.253
70102SOL    HW212139   1.784   0.334   5.333
70103SOL     OW12140  10.781  13.479  14.609
70103SOL    HW112141  10.752  13.528  14.686
70103SOL    HW212142  10.761  13.388  14.630
70104SOL     OW12143   5.736  14.413   1.090
70104SOL    HW112144   5.752  14.485   1.150
70104SOL    HW212145   5.645  14.424   1.062
70105SOL     OW12146  11.055   5.192   7.182
70105SOL    HW112147  11.057   5.205   7.277
70105SOL    HW212148  11.138   5.148   7.161
70106SOL     OW12149  14.243   8.847   8.143
70106SOL    HW112150  14.300   8.807   8.208
70106SOL    HW212151  14.301   8.902   8.090
70107SOL     OW12152  14.125   9.469   9.989
70107SOL    HW112153  14.196   9.526   9.958
70107SOL    HW212154  14.072   9.526  10.045
70108SOL     OW12155   5.968   1.341  12.957
70108SOL    HW112156   6.036   1.347  13.024
70108SOL    HW212157   6.007   1.380  12.879
70109SOL     OW12158  13.872  14.843  11.434
70109SOL    HW112159  13.947  14.785  11.430
70109SOL    HW212160  13.824  14.815  11.512
70110SOL     OW12161   7.062   4.129   5.705
70110SOL    HW112162   7.003   4.109   5.777
70110SOL    HW212163   7.080   4.223   5.713
70111SOL     OW12164   4.491  13.762  10.070
70111SOL    HW112165   4.553  13.778  10.141
70111SOL    HW212166   4.545  13.749   9.992
70112SOL     OW12167   1.112   1.252  12.386
70112SOL    HW112168   1.169   1.189  12.342
70112SOL    HW212169   1.167   1.291  12.455
70113SOL     OW12170  11.621  13.560  10.245
70113SOL    HW112171  11.529  13.544  10.267
70113SOL    HW212172  11.639  13.647  10.279
70114SOL     OW12173   6.991   6.982   2.935
70114SOL    HW112174   6.948   7.064   2.913
70114SOL    HW212175   7.084   6.999   2.919
70115SOL     OW12176   5.970  13.962  13.294
70115SOL    HW112177   5.993  14.055  13.301
70115SOL    HW212178   5.890  13.961  13.241
70116SOL     OW12179   4.448   3.611   4.113
70116SOL    HW112180   4.530   3.637   4.071
70116SOL    HW212181   4.389   3.684   4.096
70117SOL     OW12182   7.425   4.180   5.632
70117SOL    HW112183   7.389   4.101   5.593
70117SOL    HW212184   7.429   4.161   5.726
70118SOL     OW12185   4.287  10.115   8.333
70118SOL    HW112186   4.250  10.046   8.389
70118SOL    HW212187   4.247  10.196   8.364
70119SOL     OW12188   2.962   7.966  14.477
70119SOL    HW112189   3.005   8.049  14.458
70119SOL    HW212190   2.971   7.955  14.571
70120SOL     OW12191   5.222  10.263   8.256
70120SOL    HW112192   5.135  10.222   8.258
70120SOL    HW212193   5.204  10.354   8.233
70121SOL     OW12194   1.617  11.751  14.543
70121SOL    HW112195   1.674  11.725  14.470
70121SOL    HW212196   1.578  11.670  14.574
70122SOL     OW12197  12.923  11.694   3.418
70122SOL    HW112198  13.000  11.645   3.446
70122SOL    HW212199  12.887  11.730   3.500
70123SOL     OW12200   5.549  13.761  13.229
70123SOL    HW112201   5.522  13.677  13.267
70123SOL    HW212202   5.503  13.765  13.146
70124SOL     OW12203  12.288  10.825   3.024
70124SOL    HW112204  12.306  10.748   2.969
70124SOL    HW212205  12.267  10.788   3.110
70125SOL     OW12206   6.082  14.330   6.417
70125SOL    HW112207   6.118  14.343   6.330
70125SOL    HW212208   5.988  14.346   6.407
70126SOL     OW12209   1.809   1.836  14.860
70126SOL    HW112210   1.822   1.801   0.067
70126SOL    HW212211   1.807   1.931  14.872
70127SOL     OW12212  13.823  11.632   2.420
70127SOL    HW112213  13.904  11.596   2.383
70127SOL    HW212214  13.767  11.649   2.344
70128SOL     OW12215  14.154  11.108   7.133
70128SOL    HW112216  14.229  11.096   7.074
70128SOL    HW212217  14.107  11.026   7.129
70129SOL     OW12218  10.239  10.730   6.260
70129SOL    HW112219  10.270  10.717   6.170
70129SOL    HW212220  10.146  10.707   6.257
70130SOL     OW12221   4.168   8.143  13.978
70130SOL    HW112222   4.249   8.152  13.927
70130SOL    HW212223   4.109   8.094  13.920
70131SOL     OW12224  11.031   2.254   0.366
70131SOL    HW112225  10.943   2.233   0.336
70131SOL    HW212226  11.024   2.262   0.461
70132SOL     OW12227   4.163  12.508  14.076
70132SOL    HW112228   4.249  12.531  14.041
70132SOL    HW212229   4.100  12.545  14.014
70133SOL     OW12230  13.470  12.879   6.165
70133SOL    HW112231  13.428  12.940   6.227
70133SOL    HW212232  13.530  12.828   6.219
70134SOL     OW12233  10.371   0.781  13.894
70134SOL    HW112234  10.459   0.745  13.903
70134SOL    HW212235  10.328   0.725  13.828
70135SOL     OW12236   5.864   2.041   8.753
70135SOL    HW112237   5.865   2.051   8.658
70135SOL    HW212238   5.786   1.989   8.771
70136SOL     OW12239   4.535  13.473   8.290
70136SOL    HW112240   4.575  13.403   8.342
70136SOL    HW212241   4.570  13.460   8.202
70137SOL     OW12242  10.098  11.030   5.733
70137SOL    HW112243  10.099  10.999   5.823
70137SOL    HW212244  10.054  11.114   5.736
70138SOL     OW12245   8.430   2.127   6.357
70138SOL    HW112246   8.444   2.205   6.411
70138SOL    HW212247   8.347   2.090   6.389
70139SOL     OW12248  13.919   5.762   4.443
70139SOL    HW112249  13.906   5.784   4.351
70139SOL    HW212250  14.013   5.770   4.457
70140SOL     OW12251   3.568   4.353   3.500
70140SOL    HW112252   3.590   4.316   3.585
70140SOL    HW212253   3.653   4.375   3.461
70141SOL     OW12254   6.492   6.452   2.141
70141SOL    HW112255   6.478   6.535   2.188
70141SOL    HW212256   6.550   6.402   2.199
70142SOL     OW12257   8.711   1.095   0.192
70142SOL    HW112258   8.740   1.004   0.187
70142SOL    HW212259   8.626   1.091   0.236
70143SOL     OW12260   5.085  11.665  12.390
70143SOL    HW112261   5.083  11.645  12.297
70143SOL    HW212262   5.097  11.579  12.432
70144SOL     OW12263  11.122   5.558   3.915
70144SOL    HW112264  11.067   5.502   3.859
70144SOL    HW212265  11.126   5.512   3.998
70145SOL     OW12266   3.635  10.829   7.189
70145SOL    HW112267   3.587  10.772   7.250
70145SOL    HW212268   3.660  10.904   7.243
70146SOL     OW12269  11.815   5.931   9.484
70146SOL    HW112270  11.882   5.960   9.422
70146SOL    HW212271  11.743   5.993   9.473
70147SOL     OW12272  11.601  14.474   3.402
70147SOL    HW112273  11.516  14.519   3.400
70147SOL    HW212274  11.596  14.418   3.480
70148SOL     OW12275  11.320  12.487   6.861
70148SOL    HW112276  11.230  12.516   6.850
70148SOL    HW212277  11.334  12.487   6.955
70149SOL     OW12278   3.116   5.403  12.265
70149SOL    HW112279   3.162   5.365  12.190
70149SOL    HW212280   3.186   5.422  12.328
70150SOL     OW12281   6.530   4.670   7.932
70150SOL    HW112282   6.524   4.604   7.863
70150SOL    HW212283   6.452   4.724   7.922
70151SOL     OW12284   2.580  10.399  12.618
70151SOL    HW112285   2.606  10.426  12.530
70151SOL    HW212286   2.557  10.481  12.662
70152SOL     OW12287   9.901  10.662   4.288
70152SOL    HW112288   9.829  10.635   4.345
70152SOL    HW212289   9.958  10.714   4.345
70153SOL     OW12290  10.409  10.212   8.165
70153SOL    HW112291  10.337  10.187   8.107
70153SOL    HW212292  10.419  10.306   8.153
70154SOL     OW12293  12.631   4.934  10.196
70154SOL    HW112294  12.638   4.863  10.132
70154SOL    HW212295  12.599   4.892  10.276
70155SOL     OW12296   9.534   0.832  11.809
70155SOL    HW112297   9.459   0.847  11.751
70155SOL    HW212298   9.550   0.917  11.851
70156SOL     OW12299   0.834   3.895   7.257
70156SOL    HW112300   0.864   3.961   7.194
70156SOL    HW212301   0.911   3.839   7.271
70157SOL     OW12302   2.696   5.759  14.621
70157SOL    HW112303   2.789   5.746  14.602
70157SOL    HW212304   2.663   5.672  14.644
70158SOL     OW12305   8.851   8.622  10.006
70158SOL    HW112306   8.864   8.690  10.073
70158SOL    HW212307   8.932   8.622   9.956
70159SOL     OW12308  14.019  13.580   6.818
70159SOL    HW112309  14.104  13.600   6.779
70159SOL    HW212310  14.036  13.508   6.879
70160SOL     OW12311   6.182   4.995   9.577
70160SOL    HW112312   6.099   4.947   9.585
70160SOL    HW212313   6.249   4.930   9.598
70161SOL     OW12314  12.532   8.947   6.742
70161SOL    HW112315  12.582   8.886   6.688
70161SOL    HW212316  12.505   9.017   6.682
70162SOL     OW12317   2.600   3.891   3.140
70162SOL    HW112318   2.636   3.806   3.116
70162SOL    HW212319   2.534   3.909   3.074
70163SOL     OW12320   9.758   3.939   5.825
70163SOL    HW112321   9.850   3.951   5.803
70163SOL    HW212322   9.719   4.026   5.816
70164SOL     OW12323  14.207   9.599   5.708
70164SOL    HW112324  14.146   9.597   5.783
70164SOL    HW212325  14.248   9.685   5.712
70165SOL     OW12326   4.301   0.593  12.257
70165SOL    HW112327   4.351   0.556  12.329
70165SOL    HW212328   4.269   0.676  12.290
70166SOL     OW12329   7.567  10.506  11.645
70166SOL    HW112330   7.557  10.497  11.740
70166SOL    HW212331   7.661  10.504  11.630
70167SOL     OW12332  10.962   3.959   0.295
70167SOL    HW112333  10.979   3.874   0.336
70167SOL    HW212334  10.955   4.020   0.369
70168SOL     OW12335   5.148   1.692   7.896
70168SOL    HW112336   5.232   1.706   7.939
70168SOL    HW212337   5.153   1.745   7.816
70169SOL     OW12338  10.640   8.458   1.740
70169SOL    HW112339  10.545   8.460   1.739
70169SOL    HW212340  10.666   8.523   1.674
70170SOL     OW12341  10.545  12.856  13.702
70170SOL    HW112342  10.523  12.938  13.658
70170SOL    HW212343  10.474  12.797  13.680
70171SOL     OW12344   0.721   6.648  10.545
70171SOL    HW112345   0.780   6.631  10.472
70171SOL    HW212346   0.638   6.674  10.504
70172SOL     OW12347   8.839  12.258  14.497
70172SOL    HW112348   8.920  12.223  14.461
70172SOL    HW212349   8.866  12.340  14.540
70173SOL     OW12350  13.445   8.889   7.795
70173SOL    HW112351  13.489   8.846   7.868
70173SOL    HW212352  13.430   8.819   7.731
70174SOL     OW12353  13.594   4.964  10.327
70174SOL    HW112354  13.641   5.005  10.400
70174SOL    HW212355  13.505   4.952  10.361
70175SOL     OW12356  13.848   7.816  14.793
70175SOL    HW112357  13.891   7.734  14.818
70175SOL    HW212358  13.857   7.872  14.870
70176SOL     OW12359   0.677   5.288   2.361
70176SOL    HW112360   0.607   5.352   2.349
70176SOL    HW212361   0.749   5.337   2.398
70177SOL     OW12362   3.309   4.504  10.226
70177SOL    HW112363   3.241   4.552  10.273
70177SOL    HW212364   3.262   4.456  10.158
70178SOL     OW12365   1.585   2.255   5.655
70178SOL    HW112366   1.520   2.310   5.612
70178SOL    HW212367   1.664   2.309   5.659
70179SOL     OW12368   9.563   4.521   8.987
70179SOL    HW112369   9.528   4.551   8.903
70179SOL    HW212370   9.603   4.436   8.968
70180SOL     OW12371  12.920   8.201   5.646
70180SOL    HW112372  12.899   8.239   5.560
70180SOL    HW212373  12.835   8.192   5.690
70181SOL     OW12374   0.060   0.383   5.893
70181SOL    HW112375   0.123   0.403   5.962
70181SOL    HW212376  14.861   0.361   5.940
70182SOL     OW12377   2.702  11.775  11.783
70182SOL    HW112378   2.796  11.763  11.797
70182SOL    HW212379   2.688  11.869  11.798
70183SOL     OW12380  13.401   1.313   7.175
70183SOL    HW112381  13.419   1.382   7.112
70183SOL    HW212382  13.311   1.331   7.205
70184SOL     OW12383   7.824   8.280   3.653
70184SOL    HW112384   7.909   8.317   3.630
70184SOL    HW212385   7.798   8.229   3.577
70185SOL     OW12386  11.002   3.651   5.213
70185SOL    HW112387  11.078   3.631   5.158
70185SOL    HW212388  10.989   3.573   5.266
70186SOL     OW12389  11.826   7.526   6.449
70186SOL    HW112390  11.856   7.615   6.428
70186SOL    HW212391  11.807   7.487   6.364
70187SOL     OW12392  14.573   5.246  13.652
70187SOL    HW112393  14.568   5.267  13.559
70187SOL    HW212394  14.539   5.157  13.659
70188SOL     OW12395  10.117   5.984   1.329
70188SOL    HW112396  10.127   6.030   1.413
70188SOL    HW212397  10.095   6.053   1.267
70189SOL     OW12398   1.829   6.192   0.603
70189SOL    HW112399   1.828   6.166   0.511
70189SOL    HW212400   1.917   6.170   0.633
70190SOL     OW12401  10.745   7.584   3.563
70190SOL    HW112402  10.814   7.532   3.604
70190SOL    HW212403  10.734   7.659   3.621
70191SOL     OW12404  12.834  14.498   3.165
70191SOL    HW112405  12.841  14.424   3.226
70191SOL    HW212406  12.871  14.572   3.213
70192SOL     OW12407  11.942   0.380  12.404
70192SOL    HW112408  11.914   0.396  12.313
70192SOL    HW212409  12.036   0.364  12.398
70193SOL     OW12410   0.095  13.935   2.750
70193SOL    HW112411   0.030  13.886   2.699
70193SOL    HW212412   0.046  13.968   2.825
70194SOL     OW12413  11.257   1.545   3.131
70194SOL    HW112414  11.181   1.500   3.168
70194SOL    HW212415  11.233   1.564   3.041
70195SOL     OW12416   5.677  13.424  14.355
70195SOL    HW112417   5.766  13.420  14.389
70195SOL    HW212418   5.647  13.512  14.375
70196SOL     OW12419  11.996  13.494  10.914
70196SOL    HW112420  12.072  13.524  10.864
70196SOL    HW212421  11.979  13.565  10.977
70197SOL     OW12422  11.439  13.612  14.351
70197SOL    HW112423  11.444  13.702  14.319
70197SOL    HW212424  11.489  13.613  14.433
70198SOL     OW12425   3.745  13.728  13.592
70198SOL    HW112426   3.811  13.670  13.553
70198SOL    HW212427   3.698  13.672  13.654
70199SOL     OW12428   4.076   5.789   5.186
70199SOL    HW112429   3.982   5.776   5.195
70199SOL    HW212430   4.095   5.861   5.247
70200SOL     OW12431   7.935  14.052   2.121
70200SOL    HW112432   7.912  14.033   2.030
70200SOL    HW212433   7.962  13.967   2.156
70201SOL     OW12434  13.468  11.748   8.853
70201SOL    HW112435  13.416  11.668   8.845
70201SOL    HW212436  13.440  11.786   8.936
70202SOL     OW12437   9.562   9.385   9.223
70202SOL    HW112438   9.636   9.363   9.166
70202SOL    HW212439   9.584   9.345   9.307
70203SOL     OW12440   2.277  10.054  10.022
70203SOL    HW112441   2.252  10.142   9.995
70203SOL    HW212442   2.221   9.996   9.970
70204SOL     OW12443   1.404   9.858   2.145
70204SOL    HW112444   1.497   9.883   2.151
70204SOL    HW212445   1.397   9.778   2.197
70205SOL     OW12446  14.735   7.038  12.334
70205SOL    HW112447  14.712   6.947  12.351
70205SOL    HW212448  14.754   7.041  12.241
70206SOL     OW12449  10.848  10.370   5.398
70206SOL    HW112450  10.811  10.319   5.470
70206SOL    HW212451  10.894  10.442   5.440
70207SOL     OW12452  13.038   2.016   8.607
70207SOL    HW112453  13.002   2.069   8.678
70207SOL    HW212454  13.024   1.926   8.634
70208SOL     OW12455   0.261  14.836   6.679
70208SOL    HW112456   0.216   0.010   6.741
70208SOL    HW212457   0.263  14.749   6.720
70209SOL     OW12458   5.732   1.692   8.973
70209SOL    HW112459   5.821   1.663   8.993
70209SOL    HW212460   5.742   1.785   8.952
70210SOL     OW12461   3.143   0.521  11.559
70210SOL    HW112462   3.137   0.456  11.629
70210SOL    HW212463   3.108   0.477  11.482
70211SOL     OW12464   3.862  10.884   1.016
70211SOL    HW112465   3.934  10.822   1.029
70211SOL    HW212466   3.823  10.895   1.102
70212SOL     OW12467   5.351   3.159  13.686
70212SOL    HW112468   5.446   3.155  13.678
70212SOL    HW212469   5.321   3.073  13.657
70213SOL     OW12470   7.099   3.697  13.066
70213SOL    HW112471   7.047   3.619  13.047
70213SOL    HW212472   7.113   3.693  13.161
70214SOL     OW12473  10.380   1.082  14.467
70214SOL    HW112474  10.447   1.137  14.426
70214SOL    HW212475  10.399   0.994  14.435
70215SOL     OW12476   3.239   0.474   0.249
70215SOL    HW112477   3.274   0.559   0.276
70215SOL    HW212478   3.316   0.423   0.224
70216SOL     OW12479  13.259   5.613  14.181
70216SOL    HW112480  13.270   5.523  14.151
70216SOL    HW212481  13.236   5.662  14.103
70217SOL     OW12482   1.985   8.103   7.854
70217SOL    HW112483   1.999   8.182   7.906
70217SOL    HW212484   2.056   8.044   7.879
70218SOL     OW12485  14.046   2.888   2.068
70218SOL    HW112486  14.047   2.970   2.117
70218SOL    HW212487  13.980   2.835   2.113
70219SOL     OW12488  13.275   5.106  13.196
70219SOL    HW112489  13.221   5.089  13.273
70219SOL    HW212490  13.221   5.162  13.140
70220SOL     OW12491   5.764   9.522   2.745
70220SOL    HW112492   5.745   9.528   2.651
70220SOL    HW212493   5.792   9.432   2.758
70221SOL     OW12494   2.319   9.552   3.126
70221SOL    HW112495   2.363   9.468   3.119
70221SOL    HW212496   2.228   9.530   3.148
70222SOL     OW12497   1.513  12.465  13.964
70222SOL    HW112498   1.494  12.462  14.057
70222SOL    HW212499   1.501  12.375  13.934
70223SOL     OW12500   4.626   6.903   8.531
70223SOL    HW112501   4.644   6.833   8.594
70223SOL    HW212502   4.668   6.874   8.450
70224SOL     OW12503   3.570   4.902   4.293
70224SOL    HW112504   3.508   4.924   4.224
70224SOL    HW212505   3.518   4.900   4.373
70225SOL     OW12506   3.617   9.686   3.232
70225SOL    HW112507   3.620   9.779   3.208
70225SOL    HW212508   3.620   9.640   3.148
70226SOL     OW12509   9.651   2.675   2.866
70226SOL    HW112510   9.574   2.733   2.867
70226SOL    HW212511   9.713   2.716   2.926
70227SOL     OW12512   8.462   5.723   9.011
70227SOL    HW112513   8.446   5.814   9.034
70227SOL    HW212514   8.556   5.719   8.994
70228SOL     OW12515  12.637   5.461  10.144
70228SOL    HW112516  12.592   5.525  10.199
70228SOL    HW212517  12.626   5.377  10.189
70229SOL     OW12518  11.961  11.459  11.275
70229SOL    HW112519  12.023  11.483  11.344
70229SOL    HW212520  11.890  11.413  11.321
70230SOL     OW12521  13.569   7.174   6.887
70230SOL    HW112522  13.551   7.268   6.897
70230SOL    HW212523  13.523   7.149   6.807
70231SOL     OW12524   8.632   2.474   7.812
70231SOL    HW112525   8.568   2.426   7.758
70231SOL    HW212526   8.646   2.556   7.766
70232SOL     OW12527   1.787   9.641  13.403
70232SOL    HW112528   1.812   9.549  13.413
70232SOL    HW212529   1.861   9.681  13.359
70233SOL     OW12530   3.547   2.490   7.615
70233SOL    HW112531   3.632   2.470   7.656
70233SOL    HW212532   3.546   2.586   7.609
70234SOL     OW12533   8.412   5.646  10.337
70234SOL    HW112534   8.397   5.591  10.259
70234SOL    HW212535   8.324   5.667  10.368
70235SOL     OW12536  10.191   7.202   7.448
70235SOL    HW112537  10.161   7.152   7.525
70235SOL    HW212538  10.269   7.155   7.418
70236SOL     OW12539   0.422   1.207  14.098
70236SOL    HW112540   0.350   1.262  14.129
70236SOL    HW212541   0.435   1.233  14.007
70237SOL     OW12542   4.103   9.140   4.912
70237SOL    HW112543   4.160   9.215   4.898
70237SOL    HW212544   4.157   9.064   4.890
70238SOL     OW12545   1.456   0.681   7.600
70238SOL    HW112546   1.390   0.740   7.562
70238SOL    HW212547   1.477   0.620   7.529
70239SOL     OW12548  14.877   1.172  11.360
70239SOL    HW112549   0.049   1.110  11.310
70239SOL    HW212550  14.815   1.117  11.408
70240SOL     OW12551   9.913  10.253   2.346
70240SOL    HW112552   9.873  10.167   2.342
70240SOL    HW212553   9.996  10.239   2.392
70241SOL     OW12554  13.928   1.964  10.258
70241SOL    HW112555  13.890   1.877  10.240
70241SOL    HW212556  13.890   1.990  10.341
70242SOL     OW12557   8.467   0.884  10.808
70242SOL    HW112558   8.416   0.964  10.799
70242SOL    HW212559   8.514   0.876  10.725
70243SOL     OW12560   0.895  13.720   6.229
70243SOL    HW112561   0.947  13.800   6.219
70243SOL    HW212562   0.817  13.736   6.175
70244SOL     OW12563   9.412   4.017   9.878
70244SOL    HW112564   9.380   3.970   9.801
70244SOL    HW212565   9.464   4.089   9.842
70245SOL     OW12566  11.010   9.317   3.303
70245SOL    HW112567  11.057   9.367   3.236
70245SOL    HW212568  11.078   9.294   3.367
70246SOL     OW12569  14.212  12.358  13.285
70246SOL    HW112570  14.288  12.305  13.311
70246SOL    HW212571  14.240  12.403  13.206
70247SOL     OW12572   3.781   3.447   5.703
70247SOL    HW112573   3.811   3.511   5.767
70247SOL    HW212574   3.765   3.367   5.755
70248SOL     OW12575   9.929  13.539   0.557
70248SOL    HW112576   9.997  13.536   0.490
70248SOL    HW212577   9.956  13.472   0.621
70249SOL     OW12578   4.797  12.366   1.903
70249SOL    HW112579   4.789  12.271   1.899
70249SOL    HW212580   4.743  12.392   1.978
70250SOL     OW12581   8.770   1.066  13.929
70250SOL    HW112582   8.795   1.012  13.854
70250SOL    HW212583   8.854   1.094  13.967
70251SOL     OW12584   9.628  11.564   1.343
70251SOL    HW112585   9.634  11.568   1.438
70251SOL    HW212586   9.577  11.484   1.326
70252SOL     OW12587   5.844   5.759   3.554
70252SOL    HW112588   5.926   5.768   3.603
70252SOL    HW212589   5.777   5.791   3.614
70253SOL     OW12590   6.121   7.992  10.843
70253SOL    HW112591   6.108   7.925  10.910
70253SOL    HW212592   6.050   7.976  10.780
70254SOL     OW12593   7.202   8.972  14.524
70254SOL    HW112594   7.261   8.968  14.598
70254SOL    HW212595   7.196   8.881  14.494
70255SOL     OW12596  14.360  14.400  10.937
70255SOL    HW112597  14.382  14.484  10.898
70255SOL    HW212598  14.267  14.387  10.916
70256SOL     OW12599  13.699   6.723   1.198
70256SOL    HW112600  13.636   6.768   1.142
70256SOL    HW212601  13.646   6.682   1.267
70257SOL     OW12602  13.359  12.623  11.038
70257SOL    HW112603  13.434  12.564  11.034
70257SOL    HW212604  13.309  12.604  10.958
70258SOL     OW12605  12.931  14.123  11.238
70258SOL    HW112606  13.004  14.062  11.254
70258SOL    HW212607  12.876  14.114  11.315
70259SOL     OW12608  13.164   7.095   3.525
70259SOL    HW112609  13.230   7.148   3.570
70259SOL    HW212610  13.206   7.069   3.443
70260SOL     OW12611   4.483   6.674  12.494
70260SOL    HW112612   4.470   6.579  12.494
70260SOL    HW212613   4.540   6.691  12.419
70261SOL     OW12614   8.802   8.919   7.629
70261SOL    HW112615   8.818   9.006   7.592
70261SOL    HW212616   8.710   8.920   7.655
70262SOL     OW12617   2.784   1.831   5.112
70262SOL    HW112618   2.816   1.762   5.054
70262SOL    HW212619   2.728   1.886   5.057
70263SOL     OW12620   2.931  13.642  10.791
70263SOL    HW112621   2.985  13.718  10.812
70263SOL    HW212622   2.934  13.637  10.695
70264SOL     OW12623   0.525   0.843   9.566
70264SOL    HW112624   0.580   0.871   9.640
70264SOL    HW212625   0.480   0.923   9.539
70265SOL     OW12626   4.780   5.393  12.808
70265SOL    HW112627   4.840   5.352  12.870
70265SOL    HW212628   4.747   5.470  12.854
70266SOL     OW12629   5.361  13.545  13.298
70266SOL    HW112630   5.366  13.453  13.272
70266SOL    HW212631   5.329  13.542  13.389
70267SOL     OW12632   4.940  13.578   6.025
70267SOL    HW112633   4.870  13.528   6.068
70267SOL    HW212634   5.014  13.574   6.086
70268SOL     OW12635   2.850  14.213   5.109
70268SOL    HW112636   2.883  14.291   5.063
70268SOL    HW212637   2.910  14.203   5.183
70269SOL     OW12638   2.438   1.774   5.329
70269SOL    HW112639   2.419   1.865   5.352
70269SOL    HW212640   2.394   1.760   5.245
70270SOL     OW12641  11.264   2.480  12.842
70270SOL    HW112642  11.222   2.412  12.790
70270SOL    HW212643  11.298   2.434  12.919
70271SOL     OW12644   2.988  13.503   6.844
70271SOL    HW112645   2.939  13.518   6.925
70271SOL    HW212646   2.978  13.410   6.826
70272SOL     OW12647   2.652   2.199   2.369
70272SOL    HW112648   2.657   2.259   2.444
70272SOL    HW212649   2.600   2.125   2.402
70273SOL     OW12650  11.123  10.348   8.212
70273SOL    HW112651  11.163  10.406   8.277
70273SOL    HW212652  11.081  10.279   8.263
70274SOL     OW12653   8.018  13.916   8.064
70274SOL    HW112654   7.941  13.864   8.088
70274SOL    HW212655   8.021  13.985   8.131
70275SOL     OW12656   8.853   4.371  13.134
70275SOL    HW112657   8.787   4.406  13.076
70275SOL    HW212658   8.861   4.436  13.204
70276SOL     OW12659  10.003  14.386   8.950
70276SOL    HW112660   9.945  14.412   9.022
70276SOL    HW212661  10.046  14.307   8.982
70277SOL     OW12662   9.338   5.664  11.464
70277SOL    HW112663   9.281   5.722  11.413
70277SOL    HW212664   9.422   5.710  11.467
70278SOL     OW12665   3.423  14.509   8.428
70278SOL    HW112666   3.387  14.590   8.464
70278SOL    HW212667   3.517  14.516   8.442
70279SOL     OW12668  14.415   4.146  13.556
70279SOL    HW112669  14.385   4.130  13.467
70279SOL    HW212670  14.405   4.062  13.601
70280SOL     OW12671   4.327   4.833   0.099
70280SOL    HW112672   4.378   4.820   0.179
70280SOL    HW212673   4.391   4.831   0.029
70281SOL     OW12674   0.641   4.524  11.057
70281SOL    HW112675   0.610   4.614  11.067
70281SOL    HW212676   0.624   4.483  11.142
70282SOL     OW12677   5.348   6.991  13.132
70282SOL    HW112678   5.342   6.979  13.227
70282SOL    HW212679   5.434   6.955  13.109
70283SOL     OW12680  11.278   5.687  14.088
70283SOL    HW112681  11.243   5.598  14.086
70283SOL    HW212682  11.369   5.677  14.061
70284SOL     OW12683   2.824   7.238   4.633
70284SOL    HW112684   2.746   7.212   4.682
70284SOL    HW212685   2.885   7.164   4.643
70285SOL     OW12686   6.968   5.334   9.246
70285SOL    HW112687   6.928   5.350   9.332
70285SOL    HW212688   7.061   5.353   9.259
70286SOL     OW12689   6.853   2.800   6.957
70286SOL    HW112690   6.763   2.768   6.951
70286SOL    HW212691   6.892   2.777   6.873
70287SOL     OW12692   4.557   1.499   4.252
70287SOL    HW112693   4.464   1.478   4.255
70287SOL    HW212694   4.591   1.467   4.336
70288SOL     OW12695   2.821   0.468   2.554
70288SOL    HW112696   2.838   0.517   2.634
70288SOL    HW212697   2.837   0.531   2.484
70289SOL     OW12698   7.972   4.780  14.456
70289SOL    HW112699   8.053   4.808  14.499
70289SOL    HW212700   8.002   4.723  14.384
70290SOL     OW12701  11.005   9.565   0.750
70290SOL    HW112702  11.076   9.612   0.706
70290SOL    HW212703  11.017   9.586   0.843
70291SOL     OW12704   7.627   9.251  12.110
70291SOL    HW112705   7.578   9.332  12.095
70291SOL    HW212706   7.559   9.186  12.131
70292SOL     OW12707   4.455   9.303   3.879
70292SOL    HW112708   4.445   9.323   3.786
70292SOL    HW212709   4.547   9.322   3.898
70293SOL     OW12710   8.235  11.431   9.044
70293SOL    HW112711   8.231  11.402   8.953
70293SOL    HW212712   8.144  11.435   9.072
70294SOL     OW12713   2.176  13.777  10.294
70294SOL    HW112714   2.236  13.815  10.358
70294SOL    HW212715   2.195  13.824  10.212
70295SOL     OW12716  10.866  10.160  10.744
70295SOL    HW112717  10.775  10.145  10.772
70295SOL    HW212718  10.863  10.242  10.696
70296SOL     OW12719   2.217   2.417   8.991
70296SOL    HW112720   2.296   2.366   8.973
70296SOL    HW212721   2.240   2.506   8.967
70297SOL     OW12722   2.691   7.944   8.211
70297SOL    HW112723   2.674   7.870   8.269
70297SOL    HW212724   2.617   8.003   8.224
70298SOL     OW12725   7.195   4.902   8.511
70298SOL    HW112726   7.140   4.977   8.486
70298SOL    HW212727   7.284   4.937   8.514
70299SOL     OW12728   8.835  14.057  11.566
70299SOL    HW112729   8.851  14.111  11.489
70299SOL    HW212730   8.767  13.996  11.539
70300SOL     OW12731   5.186   8.857  11.293
70300SOL    HW112732   5.253   8.793  11.269
70300SOL    HW212733   5.124   8.855  11.220
70301SOL     OW12734   4.386  11.876   8.305
70301SOL    HW112735   4.361  11.856   8.395
70301SOL    HW212736   4.397  11.971   8.303
70302SOL     OW12737   6.821  10.772  10.637
70302SOL    HW112738   6.761  10.698  10.642
70302SOL    HW212739   6.884  10.757  10.707
70303SOL     OW12740   0.064   2.150  10.349
70303SOL    HW112741   0.066   2.237  10.307
70303SOL    HW212742  14.853   2.135  10.367
70304SOL     OW12743   0.866   3.514   9.407
70304SOL    HW112744   0.916   3.528   9.327
70304SOL    HW212745   0.788   3.466   9.379
70305SOL     OW12746  10.388   1.188  10.224
70305SOL    HW112747  10.393   1.244  10.146
70305SOL    HW212748  10.308   1.214  10.268
70306SOL     OW12749   6.023   2.672  14.648
70306SOL    HW112750   5.986   2.670  14.560
70306SOL    HW212751   6.069   2.756  14.653
70307SOL     OW12752   0.041   4.840  14.331
70307SOL    HW112753  14.860   4.817  14.262
70307SOL    HW212754   0.115   4.878  14.284
70308SOL     OW12755   1.817   0.634  13.752
70308SOL    HW112756   1.895   0.583  13.732
70308SOL    HW212757   1.839   0.724  13.728
70309SOL     OW12758  10.099   3.545  13.923
70309SOL    HW112759  10.020   3.595  13.901
70309SOL    HW212760  10.112   3.561  14.016
70310SOL     OW12761  13.264   6.754  10.180
70310SOL    HW112762  13.304   6.670  10.158
70310SOL    HW212763  13.250   6.797  10.096
70311SOL     OW12764   3.854   7.804   9.548
70311SOL    HW112765   3.810   7.728   9.586
70311SOL    HW212766   3.835   7.876   9.609
70312SOL     OW12767   0.217   9.700  10.462
70312SOL    HW112768   0.215   9.605  10.474
70312SOL    HW212769   0.281   9.714  10.392
70313SOL     OW12770   8.263  13.200   2.666
70313SOL    HW112771   8.272  13.109   2.640
70313SOL    HW212772   8.335  13.215   2.727
70314SOL     OW12773   6.797   8.334   3.944
70314SOL    HW112774   6.725   8.273   3.928
70314SOL    HW212775   6.829   8.309   4.031
70315SOL     OW12776  13.482   4.557  10.589
70315SOL    HW112777  13.455   4.468  10.564
70315SOL    HW212778  13.495   4.602  10.505
70316SOL     OW12779   9.771  10.207  14.834
70316SOL    HW112780   9.813  10.292  14.825
70316SOL    HW212781   9.695  10.223   0.008
70317SOL     OW12782   0.342   7.777   7.479
70317SOL    HW112783   0.335   7.746   7.389
70317SOL    HW212784   0.251   7.786   7.508
70318SOL     OW12785  10.638   1.758   3.157
70318SOL    HW112786  10.618   1.808   3.236
70318SOL    HW212787  10.693   1.818   3.106
70319SOL     OW12788  11.795  13.533   6.474
70319SOL    HW112789  11.867  13.514   6.413
70319SOL    HW212790  11.786  13.628   6.472
70320SOL     OW12791  10.203   2.431   4.879
70320SOL    HW112792  10.181   2.358   4.821
70320SOL    HW212793  10.151   2.505   4.847
70321SOL     OW12794   6.448  12.570   9.176
70321SOL    HW112795   6.373  12.617   9.211
70321SOL    HW212796   6.509  12.563   9.250
70322SOL     OW12797   4.412   6.465   3.672
70322SOL    HW112798   4.355   6.517   3.728
70322SOL    HW212799   4.371   6.471   3.585
70323SOL     OW12800   7.791   6.438   5.147
70323SOL    HW112801   7.782   6.436   5.052
70323SOL    HW212802   7.878   6.476   5.162
70324SOL     OW12803   3.161   0.792   6.490
70324SOL    HW112804   3.254   0.808   6.502
70324SOL    HW212805   3.119   0.875   6.514
70325SOL     OW12806  11.146   0.416  13.741
70325SOL    HW112807  11.079   0.466  13.694
70325SOL    HW212808  11.098   0.345  13.783
70326SOL     OW12809   7.154  14.610   1.884
70326SOL    HW112810   7.190  14.547   1.946
70326SOL    HW212811   7.199  14.692   1.903
70327SOL     OW12812   2.737   3.699   5.730
70327SOL    HW112813   2.672   3.685   5.799
70327SOL    HW212814   2.749   3.613   5.689
70328SOL     OW12815   3.677   0.753   9.264
70328SOL    HW112816   3.581   0.758   9.260
70328SOL    HW212817   3.696   0.659   9.259
70329SOL     OW12818  11.007   1.499   1.605
70329SOL    HW112819  11.064   1.500   1.528
70329SOL    HW212820  11.061   1.463   1.675
70330SOL     OW12821   9.415  13.194   6.476
70330SOL    HW112822   9.499  13.229   6.447
70330SOL    HW212823   9.390  13.133   6.407
70331SOL     OW12824   6.033   7.146   4.937
70331SOL    HW112825   6.120   7.117   4.964
70331SOL    HW212826   6.020   7.229   4.983
70332SOL     OW12827  14.733   7.831  13.477
70332SOL    HW112828  14.733   7.927  13.468
70332SOL    HW212829  14.745   7.798  13.388
70333SOL     OW12830   3.399  12.330  10.759
70333SOL    HW112831   3.346  12.361  10.686
70333SOL    HW212832   3.407  12.235  10.744
70334SOL     OW12833   0.088  12.664   5.076
70334SOL    HW112834   0.000  12.659   5.038
70334SOL    HW212835   0.091  12.751   5.116
70335SOL     OW12836  13.855  12.127   1.364
70335SOL    HW112837  13.828  12.177   1.287
70335SOL    HW212838  13.799  12.049   1.362
70336SOL     OW12839   9.766   2.542   1.126
70336SOL    HW112840   9.719   2.557   1.044
70336SOL    HW212841   9.699   2.507   1.186
70337SOL     OW12842   0.142  11.194  11.524
70337SOL    HW112843   0.198  11.126  11.485
70337SOL    HW212844   0.194  11.231  11.595
70338SOL     OW12845   3.848   0.258   7.648
70338SOL    HW112846   3.879   0.338   7.690
70338SOL    HW212847   3.764   0.239   7.691
70339SOL     OW12848  11.298  10.672  11.103
70339SOL    HW112849  11.378  10.667  11.154
70339SOL    HW212850  11.306  10.754  11.054
70340SOL     OW12851   5.481   3.683  10.199
70340SOL    HW112852   5.553   3.679  10.263
70340SOL    HW212853   5.441   3.596  10.204
70341SOL     OW12854   5.305  13.013   5.232
70341SOL    HW112855   5.339  12.982   5.148
70341SOL    HW212856   5.371  13.075   5.264
70342SOL     OW12857   4.528  12.564  14.178
70342SOL    HW112858   4.519  12.652  14.214
70342SOL    HW212859   4.506  12.574  14.085
70343SOL     OW12860   1.652  11.712   7.126
70343SOL    HW112861   1.695  11.722   7.040
70343SOL    HW212862   1.721  11.732   7.189
70344SOL     OW12863  13.065   7.506  14.490
70344SOL    HW112864  13.098   7.462  14.568
70344SOL    HW212865  13.021   7.584  14.524
70345SOL     OW12866  14.052   1.590  12.081
70345SOL    HW112867  14.143   1.595  12.052
70345SOL    HW212868  14.056   1.604  12.176
70346SOL     OW12869  12.011   4.665   7.268
70346SOL    HW112870  12.016   4.649   7.174
70346SOL    HW212871  11.917   4.666   7.288
70347SOL     OW12872   0.054   0.956   7.683
70347SOL    HW112873   0.029   0.879   7.631
70347SOL    HW212874   0.131   0.991   7.638
70348SOL     OW12875   4.688   0.514   4.739
70348SOL    HW112876   4.679   0.465   4.821
70348SOL    HW212877   4.629   0.470   4.678
70349SOL     OW12878   7.783   3.344   6.648
70349SOL    HW112879   7.874   3.372   6.659
70349SOL    HW212880   7.747   3.406   6.585
70350SOL     OW12881   0.040   0.688   4.382
70350SOL    HW112882   0.025   0.593   4.377
70350SOL    HW212883   0.119   0.702   4.331
70351SOL     OW12884  12.795  10.606   3.723
70351SOL    HW112885  12.878  10.559   3.718
70351SOL    HW212886  12.742  10.553   3.783
70352SOL     OW12887   8.082  13.827   4.493
70352SOL    HW112888   8.142  13.901   4.494
70352SOL    HW212889   8.063  13.813   4.401
70353SOL     OW12890   5.321  11.800   5.620
70353SOL    HW112891   5.360  11.723   5.661
70353SOL    HW212892   5.228  11.796   5.645
70354SOL     OW12893   3.309   3.615   7.096
70354SOL    HW112894   3.394   3.659   7.097
70354SOL    HW212895   3.272   3.632   7.183
70355SOL     OW12896  10.615   9.692   3.011
70355SOL    HW112897  10.661   9.609   3.019
70355SOL    HW212898  10.524   9.671   3.036
70356SOL     OW12899  11.168  11.798  12.729
70356SOL    HW112900  11.233  11.801  12.659
70356SOL    HW212901  11.144  11.889  12.743
70357SOL     OW12902   6.849   4.444   0.388
70357SOL    HW112903   6.785   4.468   0.321
70357SOL    HW212904   6.888   4.528   0.414
70358SOL     OW12905   0.615   9.958   3.683
70358SOL    HW112906   0.640   9.935   3.773
70358SOL    HW212907   0.538   9.903   3.665
70359SOL     OW12908  10.488   3.601   7.796
70359SOL    HW112909  10.583   3.610   7.809
70359SOL    HW212910  10.477   3.512   7.763
70360SOL     OW12911   6.279  11.595  14.698
70360SOL    HW112912   6.206  11.622  14.754
70360SOL    HW212913   6.316  11.519  14.744
70361SOL     OW12914  11.215  13.173   5.582
70361SOL    HW112915  11.181  13.190   5.494
70361SOL    HW212916  11.308  13.194   5.576
70362SOL     OW12917   3.882  10.548   8.645
70362SOL    HW112918   3.811  10.611   8.640
70362SOL    HW212919   3.860  10.492   8.720
70363SOL     OW12920  14.321   9.037   7.745
70363SOL    HW112921  14.357   9.059   7.660
70363SOL    HW212922  14.239   9.085   7.750
70364SOL     OW12923   5.211  13.900   1.319
70364SOL    HW112924   5.240  13.934   1.235
70364SOL    HW212925   5.121  13.933   1.329
70365SOL     OW12926   2.351   2.116   1.278
70365SOL    HW112927   2.384   2.148   1.194
70365SOL    HW212928   2.421   2.135   1.340
70366SOL     OW12929  11.929   8.050  12.973
70366SOL    HW112930  11.882   8.052  13.057
70366SOL    HW212931  11.971   8.136  12.967
70367SOL     OW12932   8.271   0.725  14.728
70367SOL    HW112933   8.325   0.803  14.739
70367SOL    HW212934   8.248   0.699  14.818
70368SOL     OW12935   1.799   2.862  12.970
70368SOL    HW112936   1.811   2.954  12.992
70368SOL    HW212937   1.738   2.829  13.037
70369SOL     OW12938  10.937   5.401   4.691
70369SOL    HW112939  10.990   5.384   4.769
70369SOL    HW212940  10.935   5.496   4.684
70370SOL     OW12941   2.655   5.687   8.275
70370SOL    HW112942   2.641   5.597   8.244
70370SOL    HW212943   2.587   5.738   8.231
70371SOL     OW12944  14.286   2.754  14.707
70371SOL    HW112945  14.332   2.672  14.728
70371SOL    HW212946  14.346   2.822  14.737
70372SOL     OW12947  11.432   4.890  13.262
70372SOL    HW112948  11.523   4.888  13.232
70372SOL    HW212949  11.381   4.906  13.182
70373SOL     OW12950   7.674   8.329   2.419
70373SOL    HW112951   7.733   8.393   2.379
70373SOL    HW212952   7.658   8.264   2.350
70374SOL     OW12953  14.625   4.405   5.237
70374SOL    HW112954  14.651   4.325   5.191
70374SOL    HW212955  14.700   4.464   5.226
70375SOL     OW12956  11.926   7.621   0.434
70375SOL    HW112957  11.864   7.555   0.464
70375SOL    HW212958  11.873   7.700   0.420
70376SOL     OW12959  10.119   5.534  10.015
70376SOL    HW112960  10.178   5.493   9.951
70376SOL    HW212961  10.139   5.488  10.097
70377SOL     OW12962  11.020  13.322   1.524
70377SOL    HW112963  10.963  13.246   1.524
70377SOL    HW212964  10.970  13.390   1.480
70378SOL     OW12965   7.423   4.414  12.919
70378SOL    HW112966   7.465   4.380  12.998
70378SOL    HW212967   7.442   4.348  12.852
70379SOL     OW12968   8.733  13.370  12.850
70379SOL    HW112969   8.717  13.314  12.926
70379SOL    HW212970   8.654  13.360  12.796
70380SOL     OW12971   4.445   2.598  12.935
70380SOL    HW112972   4.495   2.523  12.966
70380SOL    HW212973   4.473   2.671  12.990
70381SOL     OW12974  11.634  14.500   7.933
70381SOL    HW112975  11.639  14.524   8.025
70381SOL    HW212976  11.696  14.427   7.924
70382SOL     OW12977   3.890   4.910   0.711
70382SOL    HW112978   3.880   4.999   0.746
70382SOL    HW212979   3.978   4.883   0.738
70383SOL     OW12980   0.844   6.732   6.616
70383SOL    HW112981   0.858   6.782   6.535
70383SOL    HW212982   0.767   6.677   6.597
70384SOL     OW12983   2.841   0.667   6.733
70384SOL    HW112984   2.765   0.609   6.739
70384SOL    HW212985   2.820   0.726   6.660
70385SOL     OW12986   8.533   0.429  13.973
70385SOL    HW112987   8.457   0.455  14.025
70385SOL    HW212988   8.497   0.414  13.885
70386SOL     OW12989  13.297   2.332  12.284
70386SOL    HW112990  13.339   2.413  12.314
70386SOL    HW212991  13.271   2.350  12.194
70387SOL     OW12992   2.816  13.639  12.720
70387SOL    HW112993   2.775  13.557  12.750
70387SOL    HW212994   2.850  13.618  12.633
70388SOL     OW12995   0.696   0.301   0.125
70388SOL    HW112996   0.669   0.393   0.126
70388SOL    HW212997   0.656   0.265   0.047
70389SOL     OW12998  14.751   8.105  13.022
70389SOL    HW112999  14.842   8.076  13.015
70389SOL    HW213000  14.749   8.190  12.978
70390SOL     OW13001   5.134  11.780   8.757
70390SOL    HW113002   5.093  11.851   8.709
70390SOL    HW213003   5.156  11.818   8.842
70391SOL     OW13004   5.676   6.056  10.926
70391SOL    HW113005   5.759   6.007  10.924
70391SOL    HW213006   5.665   6.079  11.018
70392SOL     OW13007   1.006   7.436   8.607
70392SOL    HW113008   0.953   7.360   8.584
70392SOL    HW213009   0.965   7.471   8.686
70393SOL     OW13010  12.330   6.613  14.707
70393SOL    HW113011  12.338   6.518  14.715
70393SOL    HW213012  12.397   6.637  14.643
70394SOL     OW13013  13.264  10.347   2.335
70394SOL    HW113014  13.317  10.418   2.299
70394SOL    HW213015  13.294  10.269   2.289
70395SOL     OW13016   1.048  10.778   7.880
70395SOL    HW113017   1.053  10.687   7.849
70395SOL    HW213018   1.052  10.770   7.976
70396SOL     OW13019  12.656   2.434  14.623
70396SOL    HW113020  12.695   2.505  14.571
70396SOL    HW213021  12.562   2.447  14.614
70397SOL     OW13022   2.714   5.307  10.503
70397SOL    HW113023   2.635   5.299  10.556
70397SOL    HW213024   2.763   5.380  10.543
70398SOL     OW13025   0.154   0.904  12.420
70398SOL    HW113026   0.206   0.902  12.340
70398SOL    HW213027   0.084   0.966  12.401
70399SOL     OW13028   4.614   0.374   1.814
70399SOL    HW113029   4.649   0.366   1.725
70399SOL    HW213030   4.661   0.448   1.852
70400SOL     OW13031   1.566   0.844   2.210
70400SOL    HW113032   1.583   0.795   2.129
70400SOL    HW213033   1.610   0.794   2.278
70401SOL     OW13034   6.029   9.229   6.966
70401SOL    HW113035   5.952   9.269   6.926
70401SOL    HW213036   6.042   9.148   6.916
70402SOL     OW13037  12.009  11.307   5.946
70402SOL    HW113038  12.073  11.359   5.897
70402SOL    HW213039  11.957  11.372   5.994
70403SOL     OW13040   9.065   0.403   2.697
70403SOL    HW113041   9.148   0.399   2.745
70403SOL    HW213042   9.037   0.494   2.707
70404SOL     OW13043  14.059  13.021   4.375
70404SOL    HW113044  14.040  13.107   4.339
70404SOL    HW213045  13.973  12.982   4.390
70405SOL     OW13046  12.101  10.237  14.584
70405SOL    HW113047  12.142  10.153  14.567
70405SOL    HW213048  12.161  10.282  14.643
70406SOL     OW13049   2.397   0.212   7.905
70406SOL    HW113050   2.314   0.228   7.859
70406SOL    HW213051   2.460   0.198   7.834
70407SOL     OW13052  14.479   0.052   6.322
70407SOL    HW113053  14.468   0.135   6.368
70407SOL    HW213054  14.560   0.063   6.272
70408SOL     OW13055   2.561   5.879   3.447
70408SOL    HW113056   2.475   5.921   3.438
70408SOL    HW213057   2.590   5.867   3.356
70409SOL     OW13058  14.653  13.418   9.257
70409SOL    HW113059  14.600  13.366   9.318
70409SOL    HW213060  14.684  13.355   9.193
70410SOL     OW13061   7.236   4.941   2.073
70410SOL    HW113062   7.172   4.949   2.144
70410SOL    HW213063   7.289   4.865   2.097
70411SOL     OW13064  13.361  12.579   8.429
70411SOL    HW113065  13.300  12.623   8.488
70411SOL    HW213066  13.440  12.634   8.430
70412SOL     OW13067   0.939  10.433  12.076
70412SOL    HW113068   0.871  10.414  12.011
70412SOL    HW213069   1.018  10.396  12.039
70413SOL     OW13070  11.208   2.492   7.332
70413SOL    HW113071  11.202   2.582   7.366
70413SOL    HW213072  11.267   2.498   7.257
70414SOL     OW13073   2.060  10.331  12.643
70414SOL    HW113074   2.138  10.385  12.634
70414SOL    HW213075   1.987  10.393  12.639
70415SOL     OW13076   8.196   9.658  14.212
70415SOL    HW113077   8.254   9.616  14.276
70415SOL    HW213078   8.181   9.745  14.248
70416SOL     OW13079   9.631  12.909   4.054
70416SOL    HW113080   9.636  12.899   4.149
70416SOL    HW213081   9.540  12.934   4.037
70417SOL     OW13082  11.237  12.807  11.730
70417SOL    HW113083  11.191  12.781  11.650
70417SOL    HW213084  11.326  12.774  11.719
70418SOL     OW13085   4.849   0.638   8.911
70418SOL    HW113086   4.854   0.679   8.997
70418SOL    HW213087   4.932   0.660   8.869
70419SOL     OW13088   9.320  14.651  10.921
70419SOL    HW113089   9.297  14.559  10.908
70419SOL    HW213090   9.274  14.676  11.001
70420SOL     OW13091   3.791   3.739   7.664
70420SOL    HW113092   3.709   3.769   7.703
70420SOL    HW213093   3.859   3.774   7.722
70421SOL     OW13094   4.157   0.151  14.853
70421SOL    HW113095   4.221   0.155   0.043
70421SOL    HW213096   4.145   0.058  14.837
70422SOL     OW13097  12.450   2.751   2.755
70422SOL    HW113098  12.503   2.831   2.754
70422SOL    HW213099  12.503   2.686   2.709
70423SOL     OW13100   3.960  10.287   9.613
70423SOL    HW113101   4.030  10.285   9.548
70423SOL    HW213102   4.004  10.302   9.697
70424SOL     OW13103   8.318   2.941  13.287
70424SOL    HW113104   8.266   2.936  13.207
70424SOL    HW213105   8.286   3.019  13.332
70425SOL     OW13106   7.685  13.063   2.491
70425SOL    HW113107   7.700  13.095   2.580
70425SOL    HW213108   7.631  13.131   2.450
70426SOL     OW13109   9.494  10.818   3.068
70426SOL    HW113110   9.463  10.737   3.028
70426SOL    HW213111   9.533  10.791   3.151
70427SOL     OW13112  12.112   8.655   2.130
70427SOL    HW113113  12.072   8.569   2.115
70427SOL    HW213114  12.167   8.642   2.208
70428SOL     OW13115  10.700   6.881  13.322
70428SOL    HW113116  10.751   6.930  13.257
70428SOL    HW213117  10.691   6.793  13.286
70429SOL     OW13118   3.790   1.782   1.491
70429SOL    HW113119   3.739   1.800   1.571
70429SOL    HW213120   3.724   1.751   1.428
70430SOL     OW13121   9.707   8.931  12.223
70430SOL    HW113122   9.775   8.988  12.186
70430SOL    HW213123   9.748   8.845  12.226
70431SOL     OW13124   2.743  14.404  14.671
70431SOL    HW113125   2.668  14.462  14.658
70431SOL    HW213126   2.713  14.341  14.737
70432SOL     OW13127   9.782  13.021   4.928
70432SOL    HW113128   9.705  13.037   4.874
70432SOL    HW213129   9.748  12.998   5.013
70433SOL     OW13130  10.716   8.592   9.332
70433SOL    HW113131  10.786   8.578   9.396
70433SOL    HW213132  10.649   8.640   9.381
70434SOL     OW13133  13.060   2.799   9.217
70434SOL    HW113134  13.063   2.878   9.271
70434SOL    HW213135  13.008   2.824   9.140
70435SOL     OW13136  14.737  10.662   9.579
70435SOL    HW113137  14.737  10.585   9.522
70435SOL    HW213138  14.829  10.678   9.599
70436SOL     OW13139   9.718  12.622  11.747
70436SOL    HW113140   9.632  12.615  11.706
70436SOL    HW213141   9.780  12.595  11.679
70437SOL     OW13142   0.184   1.816  13.376
70437SOL    HW113143   0.268   1.860  13.361
70437SOL    HW213144   0.168   1.826  13.469
70438SOL     OW13145   7.605   9.550   4.330
70438SOL    HW113146   7.555   9.482   4.283
70438SOL    HW213147   7.683   9.563   4.277
70439SOL     OW13148  13.580   8.791   0.567
70439SOL    HW113149  13.552   8.701   0.580
70439SOL    HW213150  13.645   8.786   0.498
70440SOL     OW13151  11.232   0.304   2.424
70440SOL    HW113152  11.200   0.391   2.399
70440SOL    HW213153  11.166   0.244   2.391
70441SOL     OW13154   6.256   8.638   0.850
70441SOL    HW113155   6.314   8.705   0.886
70441SOL    HW213156   6.304   8.602   0.776
70442SOL     OW13157   3.937   4.630   9.552
70442SOL    HW113158   3.909   4.543   9.578
70442SOL    HW213159   3.976   4.667   9.631
70443SOL     OW13160   3.323  10.875  13.397
70443SOL    HW113161   3.229  10.865  13.412
70443SOL    HW213162   3.328  10.942  13.328
70444SOL     OW13163  12.645  14.316   0.238
70444SOL    HW113164  12.652  14.399   0.286
70444SOL    HW213165  12.593  14.260   0.296
70445SOL     OW13166  11.041  12.227   9.632
70445SOL    HW113167  11.063  12.139   9.662
70445SOL    HW213168  10.998  12.213   9.548
70446SOL     OW13169   3.732  11.603   1.837
70446SOL    HW113170   3.798  11.598   1.907
70446SOL    HW213171   3.716  11.697   1.826
70447SOL     OW13172   4.571   9.207   0.189
70447SOL    HW113173   4.620   9.226   0.269
70447SOL    HW213174   4.492   9.261   0.195
70448SOL     OW13175   4.145  11.059   7.837
70448SOL    HW113176   4.120  11.092   7.923
70448SOL    HW213177   4.240  11.076   7.832
70449SOL     OW13178   0.000  12.945   8.409
70449SOL    HW113179   0.001  12.985   8.496
70449SOL    HW213180   0.009  12.851   8.426
70450SOL     OW13181   8.525   9.429  13.408
70450SOL    HW113182   8.573   9.471  13.336
70450SOL    HW213183   8.591   9.418  13.477
70451SOL     OW13184   0.733   4.619   3.938
70451SOL    HW113185   0.703   4.691   3.992
70451SOL    HW213186   0.813   4.588   3.981
70452SOL     OW13187   5.967   9.608   3.803
70452SOL    HW113188   5.911   9.543   3.846
70452SOL    HW213189   5.923   9.626   3.720
70453SOL     OW13190  10.113   7.805  13.908
70453SOL    HW113191  10.192   7.850  13.878
70453SOL    HW213192  10.145   7.719  13.936
70454SOL     OW13193   2.238   6.360  13.167
70454SOL    HW113194   2.189   6.379  13.087
70454SOL    HW213195   2.230   6.439  13.220
70455SOL     OW13196   7.437   2.952  12.900
70455SOL    HW113197   7.408   3.031  12.946
70455SOL    HW213198   7.436   2.975  12.808
70456SOL     OW13199   0.207   4.640  13.189
70456SOL    HW113200   0.272   4.669  13.253
70456SOL    HW213201   0.246   4.659  13.104
70457SOL     OW13202  13.132   9.054   3.306
70457SOL    HW113203  13.147   9.135   3.257
70457SOL    HW213204  13.070   9.078   3.375
70458SOL     OW13205   4.303   5.935   5.944
70458SOL    HW113206   4.360   5.893   5.879
70458SOL    HW213207   4.359   5.946   6.021
70459SOL     OW13208  14.478   6.921  10.672
70459SOL    HW113209  14.559   6.963  10.643
70459SOL    HW213210  14.409   6.982  10.645
70460SOL     OW13211   9.800   5.171  10.035
70460SOL    HW113212   9.813   5.077  10.024
70460SOL    HW213213   9.787   5.204   9.946
70461SOL     OW13214  14.001   1.044  11.093
70461SOL    HW113215  13.983   0.985  11.166
70461SOL    HW213216  14.024   1.127  11.134
70462SOL     OW13217   5.762  12.204   9.017
70462SOL    HW113218   5.827  12.133   9.017
70462SOL    HW213219   5.793  12.265   9.084
70463SOL     OW13220   9.938   8.043   8.034
70463SOL    HW113221  10.033   8.053   8.044
70463SOL    HW213222   9.902   8.105   8.098
70464SOL     OW13223   8.873   8.588  14.399
70464SOL    HW113224   8.798   8.611  14.344
70464SOL    HW213225   8.837   8.578  14.486
70465SOL     OW13226   7.613   9.400   9.816
70465SOL    HW113227   7.518   9.411   9.815
70465SOL    HW213228   7.648   9.486   9.790
70466SOL     OW13229  11.055  12.576  11.085
70466SOL    HW113230  11.150  12.588  11.075
70466SOL    HW213231  11.021  12.580  10.996
70467SOL     OW13232   4.003  13.207   2.628
70467SOL    HW113233   4.097  13.221   2.620
70467SOL    HW213234   3.990  13.182   2.719
70468SOL     OW13235   9.966   1.783   6.644
70468SOL    HW113236   9.880   1.756   6.676
70468SOL    HW213237   9.989   1.718   6.578
70469SOL     OW13238   7.195  10.090   4.789
70469SOL    HW113239   7.201   9.995   4.780
70469SOL    HW213240   7.239  10.124   4.711
70470SOL     OW13241  12.224   8.027   6.823
70470SOL    HW113242  12.220   8.057   6.732
70470SOL    HW213243  12.169   7.948   6.825
70471SOL     OW13244  10.199   3.397   3.316
70471SOL    HW113245  10.246   3.477   3.338
70471SOL    HW213246  10.227   3.334   3.382
70472SOL     OW13247   1.077  14.570  13.813
70472SOL    HW113248   1.089  14.526  13.728
70472SOL    HW213249   0.984  14.595  13.813
70473SOL     OW13250   1.650  14.664   3.595
70473SOL    HW113251   1.692  14.720   3.660
70473SOL    HW213252   1.721  14.611   3.558
70474SOL     OW13253  14.586   0.801   4.996
70474SOL    HW113254  14.664   0.769   4.951
70474SOL    HW213255  14.519   0.804   4.928
70475SOL     OW13256   5.351   1.013  10.512
70475SOL    HW113257   5.373   0.929  10.553
70475SOL    HW213258   5.435   1.056  10.498
70476SOL     OW13259   4.572  10.238   2.225
70476SOL    HW113260   4.487  10.274   2.251
70476SOL    HW213261   4.626  10.315   2.208
70477SOL     OW13262   2.875   9.892   9.087
70477SOL    HW113263   2.926   9.945   9.148
70477SOL    HW213264   2.912   9.912   9.001
70478SOL     OW13265   5.428   7.825  12.865
70478SOL    HW113266   5.334   7.811  12.875
70478SOL    HW213267   5.436   7.912  12.826
70479SOL     OW13268   6.574  12.616   6.357
70479SOL    HW113269   6.626  12.697   6.362
70479SOL    HW213270   6.486  12.646   6.334
70480SOL     OW13271   5.276  14.098  10.758
70480SOL    HW113272   5.203  14.038  10.774
70480SOL    HW213273   5.281  14.151  10.838
70481SOL     OW13274   7.930   0.880   2.492
70481SOL    HW113275   7.985   0.829   2.433
70481SOL    HW213276   7.860   0.819   2.517
70482SOL     OW13277  14.488  13.193   0.150
70482SOL    HW113278  14.557  13.232   0.203
70482SOL    HW213279  14.534  13.149   0.079
70483SOL     OW13280   3.415   4.491  13.905
70483SOL    HW113281   3.492   4.539  13.874
70483SOL    HW213282   3.405   4.420  13.842
70484SOL     OW13283   8.178   7.627   1.813
70484SOL    HW113284   8.160   7.622   1.719
70484SOL    HW213285   8.115   7.691   1.845
70485SOL     OW13286  10.321   3.392  12.235
70485SOL    HW113287  10.325   3.435  12.150
70485SOL    HW213288  10.387   3.438  12.288
70486SOL     OW13289   2.699  11.996  10.775
70486SOL    HW113290   2.707  12.088  10.751
70486SOL    HW213291   2.751  11.949  10.711
70487SOL     OW13292   5.388   1.851  12.675
70487SOL    HW113293   5.446   1.854  12.751
70487SOL    HW213294   5.359   1.942  12.664
70488SOL     OW13295  11.639   3.784  13.475
70488SOL    HW113296  11.657   3.878  13.477
70488SOL    HW213297  11.564   3.775  13.417
70489SOL     OW13298   6.429   6.100   5.965
70489SOL    HW113299   6.438   6.087   6.059
70489SOL    HW213300   6.335   6.092   5.948
70490SOL     OW13301   6.735   4.530   1.676
70490SOL    HW113302   6.701   4.605   1.626
70490SOL    HW213303   6.820   4.512   1.636
70491SOL     OW13304  10.922  12.361   3.071
70491SOL    HW113305  10.978  12.409   3.132
70491SOL    HW213306  10.943  12.269   3.086
70492SOL     OW13307   6.152  10.144   1.860
70492SOL    HW113308   6.231  10.177   1.817
70492SOL    HW213309   6.155  10.049   1.845
70493SOL     OW13310  11.624   5.770   9.646
70493SOL    HW113311  11.590   5.851   9.684
70493SOL    HW213312  11.682   5.800   9.576
70494SOL     OW13313   7.219   6.334   3.550
70494SOL    HW113314   7.164   6.286   3.489
70494SOL    HW213315   7.251   6.409   3.500
70495SOL     OW13316   6.700   7.966   4.044
70495SOL    HW113317   6.696   8.025   4.119
70495SOL    HW213318   6.701   7.878   4.084
70496SOL     OW13319   0.297   9.693   3.775
70496SOL    HW113320   0.260   9.606   3.756
70496SOL    HW213321   0.331   9.724   3.691
70497SOL     OW13322  14.812   2.506   3.033
70497SOL    HW113323   0.014   2.461   3.029
70497SOL    HW213324  14.759   2.464   2.965
70498SOL     OW13325   5.582   8.222  11.871
70498SOL    HW113326   5.567   8.132  11.842
70498SOL    HW213327   5.613   8.267  11.792
70499SOL     OW13328   7.865   0.660   8.563
70499SOL    HW113329   7.791   0.716   8.586
70499SOL    HW213330   7.873   0.668   8.468
70500SOL     OW13331   8.926  12.869   2.122
70500SOL    HW113332   9.008  12.917   2.108
70500SOL    HW213333   8.858  12.937   2.124
70501SOL     OW13334  13.894   3.072  11.495
70501SOL    HW113335  13.896   2.983  11.530
70501SOL    HW213336  13.801   3.090  11.481
70502SOL     OW13337   9.003  11.356   7.094
70502SOL    HW113338   8.994  11.399   7.179
70502SOL    HW213339   8.913  11.338   7.067
70503SOL     OW13340   5.971  14.246   3.128
70503SOL    HW113341   5.905  14.287   3.184
70503SOL    HW213342   6.023  14.191   3.187
70504SOL     OW13343  13.272   3.251   9.351
70504SOL    HW113344  13.307   3.337   9.370
70504SOL    HW213345  13.189   3.268   9.305
70505SOL     OW13346  10.004  11.770   1.445
70505SOL    HW113347   9.961  11.843   1.401
70505SOL    HW213348  10.018  11.705   1.376
70506SOL     OW13349   0.413   5.875  11.776
70506SOL    HW113350   0.463   5.866  11.694
70506SOL    HW213351   0.437   5.799  11.828
70507SOL     OW13352   7.401  14.642  10.724
70507SOL    HW113353   7.364  14.593  10.797
70507SOL    HW213354   7.377  14.733  10.741
70508SOL     OW13355  10.976   7.342   4.978
70508SOL    HW113356  11.070   7.330   4.991
70508SOL    HW213357  10.935   7.280   5.039
70509SOL     OW13358   2.950  10.971  11.487
70509SOL    HW113359   2.920  10.912  11.557
70509SOL    HW213360   2.930  11.059  11.520
70510SOL     OW13361  11.054   8.570   3.293
70510SOL    HW113362  11.003   8.515   3.234
70510SOL    HW213363  11.062   8.519   3.374
70511SOL     OW13364   7.272   1.452  14.333
70511SOL    HW113365   7.250   1.428  14.243
70511SOL    HW213366   7.277   1.369  14.380
70512SOL     OW13367   3.418   6.147   6.811
70512SOL    HW113368   3.486   6.128   6.876
70512SOL    HW213369   3.348   6.084   6.830
70513SOL     OW13370   3.753   1.069   7.906
70513SOL    HW113371   3.773   1.163   7.909
70513SOL    HW213372   3.727   1.048   7.996
70514SOL     OW13373   3.443   9.342  12.040
70514SOL    HW113374   3.409   9.297  11.963
70514SOL    HW213375   3.382   9.413  12.056
70515SOL     OW13376   4.853  14.230   9.586
70515SOL    HW113377   4.762  14.250   9.562
70515SOL    HW213378   4.871  14.287   9.660
70516SOL     OW13379   1.346  10.777   3.580
70516SOL    HW113380   1.341  10.682   3.570
70516SOL    HW213381   1.255  10.803   3.596
70517SOL     OW13382   5.132   8.636   5.348
70517SOL    HW113383   5.058   8.593   5.305
70517SOL    HW213384   5.117   8.621   5.441
70518SOL     OW13385   3.500  13.775  10.932
70518SOL    HW113386   3.423  13.724  10.959
70518SOL    HW213387   3.490  13.784  10.837
70519SOL     OW13388   7.551  11.482   6.013
70519SOL    HW113389   7.603  11.406   6.038
70519SOL    HW213390   7.500  11.453   5.938
70520SOL     OW13391  14.473   4.907   6.744
70520SOL    HW113392  14.424   4.854   6.807
70520SOL    HW213393  14.482   4.992   6.787
70521SOL     OW13394   0.409   1.619   2.224
70521SOL    HW113395   0.326   1.662   2.245
70521SOL    HW213396   0.472   1.657   2.284
70522SOL     OW13397  10.784   1.023   8.686
70522SOL    HW113398  10.744   1.086   8.746
70522SOL    HW213399  10.825   1.077   8.618
70523SOL     OW13400   5.782   7.250   3.974
70523SOL    HW113401   5.783   7.338   4.013
70523SOL    HW213402   5.726   7.258   3.897
70524SOL     OW13403   1.919   7.812  11.243
70524SOL    HW113404   1.881   7.798  11.156
70524SOL    HW213405   1.945   7.904  11.243
70525SOL     OW13406  11.022  14.585   2.523
70525SOL    HW113407  10.958  14.651   2.495
70525SOL    HW213408  11.032  14.601   2.617
70526SOL     OW13409   9.776   4.621   1.556
70526SOL    HW113410   9.797   4.634   1.463
70526SOL    HW213411   9.757   4.528   1.563
70527SOL     OW13412   5.288   1.751   2.678
70527SOL    HW113413   5.286   1.747   2.774
70527SOL    HW213414   5.344   1.826   2.658
70528SOL     OW13415   7.789   2.236   4.200
70528SOL    HW113416   7.714   2.280   4.239
70528SOL    HW213417   7.785   2.259   4.107
70529SOL     OW13418   7.489   0.191   1.201
70529SOL    HW113419   7.534   0.119   1.246
70529SOL    HW213420   7.509   0.178   1.108
70530SOL     OW13421   5.794  13.203  11.341
70530SOL    HW113422   5.853  13.276  11.321
70530SOL    HW213423   5.709  13.231  11.305
70531SOL     OW13424   5.365  11.717   6.435
70531SOL    HW113425   5.297  11.653   6.454
70531SOL    HW213426   5.375  11.767   6.516
70532SOL     OW13427   6.897   7.977   7.258
70532SOL    HW113428   6.856   7.895   7.231
70532SOL    HW213429   6.869   8.041   7.193
70533SOL     OW13430   1.553  13.392   6.175
70533SOL    HW113431   1.600  13.468   6.141
70533SOL    HW213432   1.594  13.317   6.132
70534SOL     OW13433   7.688  12.493   9.788
70534SOL    HW113434   7.751  12.507   9.860
70534SOL    HW213435   7.721  12.416   9.742
70535SOL     OW13436   0.058  14.315   5.742
70535SOL    HW113437   0.111  14.393   5.759
70535SOL    HW213438  14.849  14.347   5.746
70536SOL     OW13439   7.564   9.838  13.709
70536SOL    HW113440   7.477   9.830  13.670
70536SOL    HW213441   7.622   9.852  13.634
70537SOL     OW13442   9.551   2.608   7.659
70537SOL    HW113443   9.625   2.547   7.652
70537SOL    HW213444   9.592   2.692   7.680
70538SOL     OW13445  14.307  12.480   6.501
70538SOL    HW113446  14.248  12.553   6.521
70538SOL    HW213447  14.271  12.441   6.421
70539SOL     OW13448  14.785  10.973   8.897
70539SOL    HW113449  14.840  11.019   8.834
70539SOL    HW213450  14.719  11.037   8.922
70540SOL     OW13451   0.552   5.642   9.258
70540SOL    HW113452   0.469   5.597   9.240
70540SOL    HW213453   0.613   5.571   9.278
70541SOL     OW13454  14.346  11.123   2.558
70541SOL    HW113455  14.407  11.197   2.556
70541SOL    HW213456  14.381  11.064   2.625
70542SOL     OW13457   5.161   5.342   8.549
70542SOL    HW113458   5.227   5.396   8.505
70542SOL    HW213459   5.195   5.331   8.638
70543SOL     OW13460  12.194   4.819   5.442
70543SOL    HW113461  12.176   4.777   5.358
70543SOL    HW213462  12.142   4.899   5.440
70544SOL     OW13463   8.654   8.323  13.296
70544SOL    HW113464   8.657   8.301  13.389
70544SOL    HW213465   8.739   8.296  13.261
70545SOL     OW13466   3.430   2.157   5.482
70545SOL    HW113467   3.523   2.138   5.499
70545SOL    HW213468   3.385   2.127   5.560
70546SOL     OW13469   6.041  11.899   7.188
70546SOL    HW113470   6.062  11.818   7.234
70546SOL    HW213471   5.999  11.869   7.107
70547SOL     OW13472  13.898   1.712  11.774
70547SOL    HW113473  13.822   1.655  11.786
70547SOL    HW213474  13.963   1.678  11.835
70548SOL     OW13475   2.225   6.811   9.747
70548SOL    HW113476   2.161   6.775   9.809
70548SOL    HW213477   2.172   6.852   9.679
70549SOL     OW13478   5.105   8.553   0.488
70549SOL    HW113479   5.109   8.468   0.531
70549SOL    HW213480   5.194   8.567   0.453
70550SOL     OW13481   4.071   2.119   8.269
70550SOL    HW113482   4.146   2.152   8.319
70550SOL    HW213483   4.062   2.028   8.296
70551SOL     OW13484   5.706   0.502   1.802
70551SOL    HW113485   5.633   0.443   1.783
70551SOL    HW213486   5.719   0.494   1.896
70552SOL     OW13487   6.158   0.934   1.751
70552SOL    HW113488   6.132   1.014   1.705
70552SOL    HW213489   6.147   0.865   1.686
70553SOL     OW13490  10.085   4.832   3.545
70553SOL    HW113491  10.069   4.861   3.635
70553SOL    HW213492   9.997   4.826   3.507
70554SOL     OW13493  13.165   2.632   7.057
70554SOL    HW113494  13.076   2.611   7.085
70554SOL    HW213495  13.160   2.724   7.029
70555SOL     OW13496  10.553   8.446   4.479
70555SOL    HW113497  10.533   8.361   4.439
70555SOL    HW213498  10.468   8.486   4.494
70556SOL     OW13499  13.082   6.137   3.323
70556SOL    HW113500  13.146   6.172   3.261
70556SOL    HW213501  13.134   6.110   3.399
70557SOL     OW13502   1.041   2.104  10.294
70557SOL    HW113503   1.059   2.110  10.388
70557SOL    HW213504   1.077   2.185  10.257
70558SOL     OW13505   2.756   1.210  14.507
70558SOL    HW113506   2.780   1.251  14.590
70558SOL    HW213507   2.789   1.270  14.441
70559SOL     OW13508   6.261  10.651   8.900
70559SOL    HW113509   6.244  10.706   8.977
70559SOL    HW213510   6.304  10.573   8.935
70560SOL     OW13511   6.735   1.983   0.323
70560SOL    HW113512   6.783   1.907   0.291
70560SOL    HW213513   6.726   1.968   0.417
70561SOL     OW13514   3.028   3.791  12.308
70561SOL    HW113515   3.058   3.855  12.372
70561SOL    HW213516   2.983   3.724  12.359
70562SOL     OW13517   9.252  10.073   8.819
70562SOL    HW113518   9.329  10.073   8.762
70562SOL    HW213519   9.177  10.081   8.759
70563SOL     OW13520   2.263  11.432  14.500
70563SOL    HW113521   2.348  11.463  14.532
70563SOL    HW213522   2.279  11.410  14.409
70564SOL     OW13523   2.886   7.005   9.443
70564SOL    HW113524   2.884   7.079   9.382
70564SOL    HW213525   2.942   6.940   9.399
70565SOL     OW13526  14.465  14.366   4.247
70565SOL    HW113527  14.373  14.386   4.230
70565SOL    HW213528  14.477  14.276   4.218
70566SOL     OW13529   8.451  13.930  13.425
70566SOL    HW113530   8.400  14.011  13.428
70566SOL    HW213531   8.428  13.883  13.505
70567SOL     OW13532   9.396   3.328   8.035
70567SOL    HW113533   9.471   3.270   8.052
70567SOL    HW213534   9.427   3.388   7.967
70568SOL     OW13535   6.117   8.861   0.772
70568SOL    HW113536   6.189   8.912   0.735
70568SOL    HW213537   6.146   8.770   0.767
70569SOL     OW13538   9.696  11.031   6.230
70569SOL    HW113539   9.783  11.070   6.223
70569SOL    HW213540   9.646  11.091   6.285
70570SOL     OW13541  12.092   8.586  11.995
70570SOL    HW113542  12.007   8.546  11.977
70570SOL    HW213543  12.149   8.513  12.019
70571SOL     OW13544  13.117  10.814   6.682
70571SOL    HW113545  13.080  10.735   6.643
70571SOL    HW213546  13.084  10.815   6.772
70572SOL     OW13547   5.735   8.626   4.678
70572SOL    HW113548   5.642   8.640   4.695
70572SOL    HW213549   5.744   8.633   4.583
70573SOL     OW13550  11.940  13.107   1.444
70573SOL    HW113551  11.936  13.082   1.351
70573SOL    HW213552  11.905  13.196   1.446
70574SOL     OW13553  13.402   0.384   7.580
70574SOL    HW113554  13.366   0.395   7.668
70574SOL    HW213555  13.359   0.452   7.528
70575SOL     OW13556   3.915   3.334   3.868
70575SOL    HW113557   3.982   3.397   3.896
70575SOL    HW213558   3.961   3.276   3.807
70576SOL     OW13559   0.141   4.751   1.250
70576SOL    HW113560   0.122   4.837   1.212
70576SOL    HW213561   0.175   4.770   1.337
70577SOL     OW13562  13.152  13.863   0.367
70577SOL    HW113563  13.146  13.841   0.274
70577SOL    HW213564  13.231  13.918   0.373
70578SOL     OW13565   6.602   5.455   6.196
70578SOL    HW113566   6.636   5.511   6.266
70578SOL    HW213567   6.607   5.367   6.233
70579SOL     OW13568   5.008   5.189   9.344
70579SOL    HW113569   5.052   5.267   9.379
70579SOL    HW213570   4.938   5.171   9.407
70580SOL     OW13571   0.495   7.401  13.803
70580SOL    HW113572   0.570   7.355  13.841
70580SOL    HW213573   0.420   7.371  13.854
70581SOL     OW13574   7.964   3.776   0.634
70581SOL    HW113575   7.965   3.689   0.674
70581SOL    HW213576   7.953   3.837   0.707
70582SOL     OW13577   7.639   9.787   4.813
70582SOL    HW113578   7.658   9.710   4.865
70582SOL    HW213579   7.629   9.754   4.723
70583SOL     OW13580   7.038   6.625  14.562
70583SOL    HW113581   6.951   6.654  14.590
70583SOL    HW213582   7.023   6.586  14.476
70584SOL     OW13583   3.474  14.584   1.178
70584SOL    HW113584   3.432  14.509   1.135
70584SOL    HW213585   3.485  14.649   1.108
70585SOL     OW13586   5.509   1.249   8.096
70585SOL    HW113587   5.427   1.232   8.050
70585SOL    HW213588   5.488   1.315   8.161
70586SOL     OW13589   4.492  10.093   8.117
70586SOL    HW113590   4.512  10.182   8.089
70586SOL    HW213591   4.452  10.103   8.203
70587SOL     OW13592   0.485  13.671   2.173
70587SOL    HW113593   0.563  13.617   2.178
70587SOL    HW213594   0.423  13.620   2.121
70588SOL     OW13595   1.114   6.997   0.601
70588SOL    HW113596   1.154   6.913   0.625
70588SOL    HW213597   1.165   7.062   0.650
70589SOL     OW13598  11.534   9.540  14.578
70589SOL    HW113599  11.456   9.586  14.549
70589SOL    HW213600  11.598   9.552  14.508
70590SOL     OW13601   1.210  14.142   4.097
70590SOL    HW113602   1.226  14.169   4.007
70590SOL    HW213603   1.115  14.153   4.109
70591SOL     OW13604   6.096   5.177   8.472
70591SOL    HW113605   6.086   5.171   8.567
70591SOL    HW213606   6.185   5.147   8.455
70592SOL     OW13607   0.990  10.074   7.161
70592SOL    HW113608   1.003  10.093   7.068
70592SOL    HW213609   1.078  10.069   7.197
70593SOL     OW13610  14.154  14.859   1.907
70593SOL    HW113611  14.068   0.018   1.914
70593SOL    HW213612  14.142  14.772   1.946
70594SOL     OW13613   8.665   5.888   7.946
70594SOL    HW113614   8.725   5.848   7.882
70594SOL    HW213615   8.708   5.968   7.974
70595SOL     OW13616   1.760   6.851  10.714
70595SOL    HW113617   1.744   6.942  10.739
70595SOL    HW213618   1.673   6.814  10.702
70596SOL     OW13619  11.568  10.563   7.853
70596SOL    HW113620  11.583  10.604   7.938
70596SOL    HW213621  11.478  10.531   7.856
70597SOL     OW13622   7.795   7.100   9.401
70597SOL    HW113623   7.878   7.127   9.441
70597SOL    HW213624   7.780   7.012   9.434
70598SOL     OW13625  14.315  10.585   9.619
70598SOL    HW113626  14.389  10.529   9.645
70598SOL    HW213627  14.316  10.584   9.523
70599SOL     OW13628   1.802  10.538   6.319
70599SOL    HW113629   1.824  10.566   6.230
70599SOL    HW213630   1.741  10.465   6.307
70600SOL     OW13631   7.407   5.666  10.802
70600SOL    HW113632   7.440   5.756  10.797
70600SOL    HW213633   7.314   5.673  10.780
70601SOL     OW13634  14.339  11.979   4.658
70601SOL    HW113635  14.344  12.070   4.686
70601SOL    HW213636  14.366  11.928   4.734
70602SOL     OW13637  10.863  10.186   0.405
70602SOL    HW113638  10.862  10.270   0.451
70602SOL    HW213639  10.772  10.159   0.402
70603SOL     OW13640   3.522   7.366  14.009
70603SOL    HW113641   3.443   7.339  13.961
70603SOL    HW213642   3.593   7.315  13.969
70604SOL     OW13643   3.812   2.804  11.922
70604SOL    HW113644   3.721   2.832  11.913
70604SOL    HW213645   3.862   2.885  11.927
70605SOL     OW13646   5.297   8.101  10.450
70605SOL    HW113647   5.265   8.024  10.497
70605SOL    HW213648   5.354   8.146  10.513
70606SOL     OW13649  12.538   2.215  12.891
70606SOL    HW113650  12.521   2.213  12.985
70606SOL    HW213651  12.593   2.138  12.875
70607SOL     OW13652   0.176   5.779   3.270
70607SOL    HW113653   0.248   5.739   3.319
70607SOL    HW213654   0.155   5.859   3.318
70608SOL     OW13655   8.906   5.801   4.596
70608SOL    HW113656   8.863   5.884   4.575
70608SOL    HW213657   8.999   5.822   4.598
70609SOL     OW13658  11.430   8.013   0.992
70609SOL    HW113659  11.341   8.011   1.027
70609SOL    HW213660  11.485   8.035   1.067
70610SOL     OW13661   0.784   0.411   9.332
70610SOL    HW113662   0.691   0.424   9.312
70610SOL    HW213663   0.815   0.496   9.361
70611SOL     OW13664  14.513   7.267  12.646
70611SOL    HW113665  14.493   7.357  12.623
70611SOL    HW213666  14.462   7.250  12.725
70612SOL     OW13667  13.782  10.995   3.834
70612SOL    HW113668  13.756  10.908   3.866
70612SOL    HW213669  13.796  11.047   3.913
70613SOL     OW13670   4.965   9.263  12.899
70613SOL    HW113671   4.953   9.358  12.900
70613SOL    HW213672   4.900   9.231  12.837
70614SOL     OW13673   8.553   2.237   7.460
70614SOL    HW113674   8.501   2.250   7.381
70614SOL    HW213675   8.632   2.289   7.447
70615SOL     OW13676   1.320   6.113   3.239
70615SOL    HW113677   1.410   6.133   3.214
70615SOL    HW213678   1.328   6.048   3.309
70616SOL     OW13679   9.488  13.671   5.930
70616SOL    HW113680   9.478  13.619   6.010
70616SOL    HW213681   9.412  13.729   5.929
70617SOL     OW13682   5.577   9.132  12.512
70617SOL    HW113683   5.657   9.087  12.487
70617SOL    HW213684   5.530   9.147  12.430
70618SOL     OW13685   2.465   5.496  10.954
70618SOL    HW113686   2.503   5.572  10.997
70618SOL    HW213687   2.396   5.467  11.013
70619SOL     OW13688  10.378   7.960  11.760
70619SOL    HW113689  10.313   8.013  11.808
70619SOL    HW213690  10.326   7.910  11.697
70620SOL     OW13691   0.198   2.845   2.200
70620SOL    HW113692   0.208   2.936   2.173
70620SOL    HW213693   0.281   2.823   2.242
70621SOL     OW13694   3.960   6.229   3.021
70621SOL    HW113695   3.954   6.277   2.938
70621SOL    HW213696   4.037   6.172   3.009
70622SOL     OW13697  10.655   7.431  13.077
70622SOL    HW113698  10.594   7.498  13.045
70622SOL    HW213699  10.735   7.448  13.028
70623SOL     OW13700   8.165   8.105  11.663
70623SOL    HW113701   8.104   8.055  11.716
70623SOL    HW213702   8.129   8.100  11.574
70624SOL     OW13703  14.012  13.224   5.596
70624SOL    HW113704  13.990  13.226   5.690
70624SOL    HW213705  14.102  13.193   5.593
70625SOL     OW13706   9.938   5.767   5.995
70625SOL    HW113707  10.011   5.723   6.039
70625SOL    HW213708   9.931   5.722   5.911
70626SOL     OW13709   2.866   2.787   4.673
70626SOL    HW113710   2.841   2.871   4.633
70626SOL    HW213711   2.902   2.736   4.601
70627SOL     OW13712   7.427   1.929   4.615
70627SOL    HW113713   7.398   1.865   4.680
70627SOL    HW213714   7.523   1.926   4.620
70628SOL     OW13715   9.171  11.288   6.080
70628SOL    HW113716   9.118  11.353   6.126
70628SOL    HW213717   9.255  11.290   6.125
70629SOL     OW13718   5.160  14.366   9.615
70629SOL    HW113719   5.101  14.419   9.561
70629SOL    HW213720   5.229  14.426   9.642
70630SOL     OW13721   7.881  12.777   2.229
70630SOL    HW113722   7.972  12.758   2.204
70630SOL    HW213723   7.884  12.866   2.264
70631SOL     OW13724   8.001   0.534  14.348
70631SOL    HW113725   8.053   0.454  14.356
70631SOL    HW213726   8.052   0.600  14.396
70632SOL     OW13727   1.837   7.746  10.607
70632SOL    HW113728   1.849   7.656  10.636
70632SOL    HW213729   1.813   7.738  10.515
70633SOL     OW13730   1.257   3.733  10.620
70633SOL    HW113731   1.256   3.814  10.570
70633SOL    HW213732   1.177   3.688  10.594
70634SOL     OW13733  11.572  12.702   4.380
70634SOL    HW113734  11.534  12.615   4.390
70634SOL    HW213735  11.569  12.719   4.286
70635SOL     OW13736  10.082  10.276   9.064
70635SOL    HW113737  10.001  10.310   9.026
70635SOL    HW213738  10.146  10.281   8.993
70636SOL     OW13739   5.725  11.255  11.466
70636SOL    HW113740   5.798  11.246  11.528
70636SOL    HW213741   5.730  11.346  11.437
70637SOL     OW13742   1.535   7.833   9.410
70637SOL    HW113743   1.453   7.879   9.394
70637SOL    HW213744   1.597   7.870   9.347
70638SOL     OW13745  13.195   6.575  14.472
70638SOL    HW113746  13.173   6.490  14.510
70638SOL    HW213747  13.143   6.638  14.522
70639SOL     OW13748   0.978   6.431  10.740
70639SOL    HW113749   0.996   6.342  10.770
70639SOL    HW213750   1.064   6.467  10.720
70640SOL     OW13751  12.429   8.931   1.255
70640SOL    HW113752  12.524   8.918   1.246
70640SOL    HW213753  12.401   8.964   1.170
70641SOL     OW13754   1.822  11.059   8.361
70641SOL    HW113755   1.809  11.154   8.364
70641SOL    HW213756   1.914  11.047   8.382
70642SOL     OW13757   6.377   6.089  13.615
70642SOL    HW113758   6.366   6.003  13.574
70642SOL    HW213759   6.368   6.072  13.709
70643SOL     OW13760   0.135   8.102   3.511
70643SOL    HW113761   0.111   8.013   3.483
70643SOL    HW213762   0.056   8.136   3.553
70644SOL     OW13763  14.666  14.181   6.593
70644SOL    HW113764  14.586  14.207   6.549
70644SOL    HW213765  14.706  14.117   6.534
70645SOL     OW13766   0.960   2.052  11.200
70645SOL    HW113767   0.885   2.111  11.210
70645SOL    HW213768   0.988   2.065  11.109
70646SOL     OW13769  12.819   7.564   3.259
70646SOL    HW113770  12.880   7.634   3.285
70646SOL    HW213771  12.873   7.503   3.210
70647SOL     OW13772   8.737   0.716  12.238
70647SOL    HW113773   8.696   0.680  12.317
70647SOL    HW213774   8.831   0.708  12.254
70648SOL     OW13775   3.808  13.647   5.039
70648SOL    HW113776   3.800  13.685   4.951
70648SOL    HW213777   3.727  13.597   5.050
70649SOL     OW13778   8.819  10.544  11.803
70649SOL    HW113779   8.833  10.578  11.891
70649SOL    HW213780   8.858  10.610  11.746
70650SOL     OW13781   9.135   9.927  10.806
70650SOL    HW113782   9.075   9.855  10.784
70650SOL    HW213783   9.087  10.006  10.782
70651SOL     OW13784   5.774  11.482   3.629
70651SOL    HW113785   5.822  11.473   3.546
70651SOL    HW213786   5.698  11.536   3.606
70652SOL     OW13787   3.265  14.718   0.191
70652SOL    HW113788   3.302  14.638   0.227
70652SOL    HW213789   3.340  14.777   0.181
70653SOL     OW13790   9.667  11.194   8.971
70653SOL    HW113791   9.639  11.264   8.912
70653SOL    HW213792   9.596  11.187   9.035
70654SOL     OW13793   5.990  12.507   9.467
70654SOL    HW113794   6.007  12.432   9.411
70654SOL    HW213795   5.937  12.566   9.413
70655SOL     OW13796   9.326   8.281  12.748
70655SOL    HW113797   9.268   8.207  12.764
70655SOL    HW213798   9.325   8.292  12.653
70656SOL     OW13799  10.282   1.259  12.279
70656SOL    HW113800  10.240   1.270  12.194
70656SOL    HW213801  10.286   1.164  12.291
70657SOL     OW13802   7.372  10.027   4.214
70657SOL    HW113803   7.369   9.958   4.147
70657SOL    HW213804   7.355   9.982   4.296
70658SOL     OW13805   4.208   9.216   0.893
70658SOL    HW113806   4.220   9.272   0.815
70658SOL    HW213807   4.233   9.272   0.966
70659SOL     OW13808  12.264   1.252   2.017
70659SOL    HW113809  12.315   1.171   2.007
70659SOL    HW213810  12.263   1.291   1.930
70660SOL     OW13811   0.244   2.116   0.829
70660SOL    HW113812   0.150   2.102   0.843
70660SOL    HW213813   0.260   2.081   0.741
70661SOL     OW13814   7.188   8.904   0.417
70661SOL    HW113815   7.208   8.957   0.494
70661SOL    HW213816   7.178   8.967   0.346
70662SOL     OW13817  12.736   5.216  11.375
70662SOL    HW113818  12.800   5.224  11.446
70662SOL    HW213819  12.743   5.124  11.348
70663SOL     OW13820   0.989   9.948   0.301
70663SOL    HW113821   0.982   9.868   0.249
70663SOL    HW213822   0.930  10.010   0.258
70664SOL     OW13823   8.307   9.521   5.219
70664SOL    HW113824   8.236   9.463   5.246
70664SOL    HW213825   8.318   9.504   5.126
70665SOL     OW13826   1.280   1.731   7.445
70665SOL    HW113827   1.238   1.710   7.362
70665SOL    HW213828   1.238   1.812   7.474
70666SOL     OW13829   3.152   6.721   4.147
70666SOL    HW113830   3.232   6.689   4.107
70666SOL    HW213831   3.095   6.744   4.073
70667SOL     OW13832  14.415  11.271  14.401
70667SOL    HW113833  14.495  11.253  14.451
70667SOL    HW213834  14.446  11.313  14.321
70668SOL     OW13835  11.576  10.222   2.365
70668SOL    HW113836  11.607  10.305   2.329
70668SOL    HW213837  11.621  10.214   2.450
70669SOL     OW13838   8.687   1.852   7.140
70669SOL    HW113839   8.618   1.864   7.075
70669SOL    HW213840   8.690   1.934   7.188
70670SOL     OW13841   4.132   8.878   4.241
70670SOL    HW113842   4.148   8.904   4.151
70670SOL    HW213843   4.130   8.960   4.290
70671SOL     OW13844   2.673  11.471   2.738
70671SOL    HW113845   2.677  11.473   2.834
70671SOL    HW213846   2.758  11.436   2.711
70672SOL     OW13847  11.826   3.320   8.938
70672SOL    HW113848  11.774   3.267   8.999
70672SOL    HW213849  11.850   3.259   8.868
70673SOL     OW13850   7.466  13.951  12.746
70673SOL    HW113851   7.387  13.922  12.700
70673SOL    HW213852   7.482  14.039  12.711
70674SOL     OW13853   5.451   8.271  11.266
70674SOL    HW113854   5.513   8.232  11.204
70674SOL    HW213855   5.380   8.207  11.271
70675SOL     OW13856   9.382   8.757   9.998
70675SOL    HW113857   9.309   8.797  10.045
70675SOL    HW213858   9.352   8.669   9.978
70676SOL     OW13859   6.665  12.612   5.852
70676SOL    HW113860   6.683  12.621   5.946
70676SOL    HW213861   6.691  12.696   5.814
70677SOL     OW13862   5.412   4.358  14.555
70677SOL    HW113863   5.454   4.357  14.470
70677SOL    HW213864   5.454   4.430  14.602
70678SOL     OW13865  10.430   1.002   6.664
70678SOL    HW113866  10.451   0.977   6.754
70678SOL    HW213867  10.445   0.922   6.613
70679SOL     OW13868   4.930   0.349  12.215
70679SOL    HW113869   4.876   0.369  12.291
70679SOL    HW213870   4.874   0.296  12.158
70680SOL     OW13871   9.998  12.568  14.241
70680SOL    HW113872  10.087  12.544  14.267
70680SOL    HW213873   9.974  12.504  14.174
70681SOL     OW13874   9.965   8.675   9.570
70681SOL    HW113875   9.923   8.753   9.534
70681SOL    HW213876   9.946   8.678   9.663
70682SOL     OW13877  14.704  13.166   9.136
70682SOL    HW113878  14.724  13.087   9.186
70682SOL    HW213879  14.769  13.167   9.065
70683SOL     OW13880   7.965   9.828  13.315
70683SOL    HW113881   7.974   9.874  13.399
70683SOL    HW213882   8.052   9.793  13.298
70684SOL     OW13883  13.419  12.066  12.612
70684SOL    HW113884  13.356  12.070  12.539
70684SOL    HW213885  13.473  11.990  12.592
70685SOL     OW13886   0.470   7.613   9.218
70685SOL    HW113887   0.392   7.614   9.273
70685SOL    HW213888   0.451   7.675   9.147
70686SOL     OW13889  13.660  12.086   6.606
70686SOL    HW113890  13.646  12.108   6.698
70686SOL    HW213891  13.735  12.026   6.607
70687SOL     OW13892  12.823   7.259  13.492
70687SOL    HW113893  12.911   7.222  13.493
70687SOL    HW213894  12.823   7.319  13.418
70688SOL     OW13895   8.878  14.202   7.621
70688SOL    HW113896   8.796  14.154   7.607
70688SOL    HW213897   8.926  14.191   7.539
70689SOL     OW13898   6.273   7.190   0.915
70689SOL    HW113899   6.281   7.103   0.953
70689SOL    HW213900   6.283   7.250   0.990
70690SOL     OW13901   9.355   3.420  11.300
70690SOL    HW113902   9.302   3.422  11.220
70690SOL    HW213903   9.422   3.354  11.282
70691SOL     OW13904   9.090  12.344  11.924
70691SOL    HW113905   9.131  12.386  12.000
70691SOL    HW213906   9.163  12.313  11.871
70692SOL     OW13907  14.271  13.873   4.795
70692SOL    HW113908  14.301  13.816   4.866
70692SOL    HW213909  14.212  13.817   4.743
70693SOL     OW13910  11.386   7.751   2.419
70693SOL    HW113911  11.335   7.830   2.437
70693SOL    HW213912  11.458   7.755   2.483
70694SOL     OW13913   4.519   5.209   0.821
70694SOL    HW113914   4.448   5.230   0.882
70694SOL    HW213915   4.474   5.184   0.740
70695SOL     OW13916  13.099   8.544   3.901
70695SOL    HW113917  13.084   8.612   3.967
70695SOL    HW213918  13.019   8.491   3.903
70696SOL     OW13919  13.807   2.504  11.698
70696SOL    HW113920  13.886   2.486  11.749
70696SOL    HW213921  13.760   2.569  11.750
70697SOL     OW13922   5.264  14.181   5.871
70697SOL    HW113923   5.295  14.247   5.933
70697SOL    HW213924   5.314  14.102   5.891
70698SOL     OW13925   2.896   8.442   7.599
70698SOL    HW113926   2.987   8.413   7.606
70698SOL    HW213927   2.848   8.363   7.572
70699SOL     OW13928  10.249   0.000   7.889
70699SOL    HW113929  10.299  14.802   7.906
70699SOL    HW213930  10.277   0.027   7.801
70700SOL     OW13931   8.103   5.567  14.156
70700SOL    HW113932   8.026   5.516  14.130
70700SOL    HW213933   8.166   5.553  14.085
70701SOL     OW13934   5.577  13.391   2.921
70701SOL    HW113935   5.564  13.331   2.994
70701SOL    HW213936   5.657  13.439   2.944
70702SOL     OW13937  11.431   0.499  12.146
70702SOL    HW113938  11.401   0.408  12.153
70702SOL    HW213939  11.351   0.551  12.157
70703SOL     OW13940   9.583  13.140   6.810
70703SOL    HW113941   9.642  13.206   6.775
70703SOL    HW213942   9.586  13.069   6.745
70704SOL     OW13943   5.080  12.785   2.119
70704SOL    HW113944   5.052  12.770   2.029
70704SOL    HW213945   5.011  12.744   2.172
70705SOL     OW13946  14.509   2.976  13.556
70705SOL    HW113947  14.444   3.018  13.612
70705SOL    HW213948  14.579   2.950  13.616
70706SOL     OW13949  13.031  13.937   9.306
70706SOL    HW113950  13.097  13.877   9.271
70706SOL    HW213951  13.082  14.005   9.351
70707SOL     OW13952   8.957   4.402   3.771
70707SOL    HW113953   9.020   4.334   3.798
70707SOL    HW213954   9.011   4.479   3.756
70708SOL     OW13955  11.311   8.027   2.454
70708SOL    HW113956  11.394   8.072   2.467
70708SOL    HW213957  11.294   8.033   2.360
70709SOL     OW13958  12.695  14.540   0.805
70709SOL    HW113959  12.672  14.449   0.786
70709SOL    HW213960  12.633  14.591   0.754
70710SOL     OW13961  11.341   8.720   9.243
70710SOL    HW113962  11.360   8.797   9.190
70710SOL    HW213963  11.263   8.745   9.294
70711SOL     OW13964   6.839   3.419   0.849
70711SOL    HW113965   6.753   3.378   0.844
70711SOL    HW213966   6.856   3.452   0.761
70712SOL     OW13967   9.296   5.304   7.427
70712SOL    HW113968   9.345   5.378   7.392
70712SOL    HW213969   9.350   5.269   7.497
70713SOL     OW13970   7.827   6.725   7.974
70713SOL    HW113971   7.818   6.665   7.899
70713SOL    HW213972   7.825   6.812   7.934
70714SOL     OW13973   5.023   9.781   9.629
70714SOL    HW113974   4.940   9.735   9.636
70714SOL    HW213975   5.001   9.868   9.596
70715SOL     OW13976   9.403  14.759   0.418
70715SOL    HW113977   9.434  14.683   0.467
70715SOL    HW213978   9.307  14.751   0.419
70716SOL     OW13979   6.633   5.083  14.783
70716SOL    HW113980   6.617   4.989  14.776
70716SOL    HW213981   6.689   5.104  14.708
70717SOL     OW13982   8.541   9.122   6.437
70717SOL    HW113983   8.450   9.149   6.444
70717SOL    HW213984   8.542   9.057   6.367
70718SOL     OW13985   0.697   9.356   5.415
70718SOL    HW113986   0.679   9.407   5.494
70718SOL    HW213987   0.611   9.320   5.390
70719SOL     OW13988   7.619   2.040   3.749
70719SOL    HW113989   7.543   1.990   3.780
70719SOL    HW213990   7.585   2.096   3.680
70720SOL     OW13991  11.192   1.623   8.411
70720SOL    HW113992  11.234   1.594   8.493
70720SOL    HW213993  11.100   1.632   8.433
70721SOL     OW13994   6.958  12.608  13.475
70721SOL    HW113995   6.892  12.600  13.406
70721SOL    HW213996   7.032  12.557  13.444
70722SOL     OW13997   2.997  14.120   0.111
70722SOL    HW113998   2.945  14.144   0.187
70722SOL    HW213999   3.016  14.203   0.066
70723SOL     OW14000  12.288   9.521  11.756
70723SOL    HW114001  12.271   9.428  11.742
70723SOL    HW214002  12.225   9.566  11.699
70724SOL     OW14003  12.121  14.038  12.300
70724SOL    HW114004  12.209  14.008  12.276
70724SOL    HW214005  12.074  14.044  12.217
70725SOL     OW14006   9.601   8.121   6.116
70725SOL    HW114007   9.659   8.159   6.050
70725SOL    HW214008   9.521   8.099   6.068
70726SOL     OW14009   1.483   9.841  11.793
70726SOL    HW114010   1.417   9.807  11.852
70726SOL    HW214011   1.554   9.777  11.796
70727SOL     OW14012   6.564  12.082   8.337
70727SOL    HW114013   6.634  12.115   8.394
70727SOL    HW214014   6.537  12.000   8.378
70728SOL     OW14015  10.575   5.718   1.407
70728SOL    HW114016  10.635   5.737   1.480
70728SOL    HW214017  10.523   5.798   1.398
70729SOL     OW14018   0.827   8.152   4.919
70729SOL    HW114019   0.858   8.121   4.833
70729SOL    HW214020   0.792   8.239   4.902
70730SOL     OW14021  10.800  12.801   6.215
70730SOL    HW114022  10.886  12.829   6.243
70730SOL    HW214023  10.803  12.705   6.220
70731SOL     OW14024   6.044  12.725  12.691
70731SOL    HW114025   6.132  12.686  12.696
70731SOL    HW214026   5.986  12.650  12.682
70732SOL     OW14027  11.099   6.729  10.492
70732SOL    HW114028  11.078   6.638  10.473
70732SOL    HW214029  11.181   6.725  10.541
70733SOL     OW14030   3.525   3.311   3.209
70733SOL    HW114031   3.484   3.367   3.275
70733SOL    HW214032   3.502   3.222   3.235
70734SOL     OW14033   3.191  14.212  11.832
70734SOL    HW114034   3.191  14.229  11.926
70734SOL    HW214035   3.245  14.282  11.795
70735SOL     OW14036   5.503   3.101   5.751
70735SOL    HW114037   5.577   3.108   5.690
70735SOL    HW214038   5.435   3.056   5.701
70736SOL     OW14039   2.447   3.404  10.767
70736SOL    HW114040   2.366   3.353  10.769
70736SOL    HW214041   2.517   3.338  10.764
70737SOL     OW14042   3.907   1.401  12.777
70737SOL    HW114043   3.928   1.457  12.703
70737SOL    HW214044   3.929   1.312  12.748
70738SOL     OW14045   4.759   7.468   2.934
70738SOL    HW114046   4.787   7.480   3.025
70738SOL    HW214047   4.706   7.389   2.936
70739SOL     OW14048   8.359   1.966  13.959
70739SOL    HW114049   8.339   2.043  14.013
70739SOL    HW214050   8.374   1.895  14.022
70740SOL     OW14051   7.795   3.938   4.634
70740SOL    HW114052   7.859   3.867   4.633
70740SOL    HW214053   7.729   3.911   4.698
70741SOL     OW14054  12.015  10.183   0.103
70741SOL    HW114055  12.009  10.277   0.086
70741SOL    HW214056  11.934  10.147   0.066
70742SOL     OW14057  14.322   5.149   0.366
70742SOL    HW114058  14.380   5.146   0.290
70742SOL    HW214059  14.306   5.058   0.388
70743SOL     OW14060  10.834  11.819   2.038
70743SOL    HW114061  10.744  11.818   2.071
70743SOL    HW214062  10.882  11.761   2.097
70744SOL     OW14063   7.713  10.574  11.175
70744SOL    HW114064   7.646  10.624  11.223
70744SOL    HW214065   7.713  10.612  11.087
70745SOL     OW14066   2.797   0.934   7.362
70745SOL    HW114067   2.708   0.912   7.334
70745SOL    HW214068   2.851   0.863   7.329
70746SOL     OW14069   5.918   9.982   9.400
70746SOL    HW114070   5.874   9.994   9.484
70746SOL    HW214071   5.998   9.933   9.421
70747SOL     OW14072   4.823   8.425   7.702
70747SOL    HW114073   4.762   8.419   7.629
70747SOL    HW214074   4.891   8.485   7.672
70748SOL     OW14075   7.551  11.456  10.281
70748SOL    HW114076   7.586  11.442  10.369
70748SOL    HW214077   7.627  11.474  10.227
70749SOL     OW14078   5.744   8.996  11.898
70749SOL    HW114079   5.812   9.057  11.925
70749SOL    HW214080   5.726   8.944  11.975
70750SOL     OW14081   2.970   8.422   0.336
70750SOL    HW114082   3.038   8.469   0.384
70750SOL    HW214083   2.927   8.489   0.283
70751SOL     OW14084  11.462   7.776  13.357
70751SOL    HW114085  11.531   7.842  13.347
70751SOL    HW214086  11.478   7.737  13.442
70752SOL     OW14087  10.812  11.633   3.796
70752SOL    HW114088  10.838  11.680   3.875
70752SOL    HW214089  10.750  11.567   3.826
70753SOL     OW14090   3.743   6.310   5.626
70753SOL    HW114091   3.663   6.267   5.596
70753SOL    HW214092   3.812   6.273   5.572
70754SOL     OW14093   8.245   3.661   3.939
70754SOL    HW114094   8.158   3.621   3.931
70754SOL    HW214095   8.304   3.600   3.895
70755SOL     OW14096   3.185   4.818   0.790
70755SOL    HW114097   3.229   4.896   0.757
70755SOL    HW214098   3.097   4.846   0.812
70756SOL     OW14099  13.521  14.112  13.496
70756SOL    HW114100  13.514  14.178  13.426
70756SOL    HW214101  13.436  14.114  13.539
70757SOL     OW14102  13.508   7.286   1.482
70757SOL    HW114103  13.459   7.217   1.527
70757SOL    HW214104  13.443   7.328   1.426
70758SOL     OW14105   4.332   7.906   7.687
70758SOL    HW114106   4.411   7.924   7.738
70758SOL    HW214107   4.321   7.984   7.632
70759SOL     OW14108  12.756   4.502   9.967
70759SOL    HW114109  12.724   4.479  10.054
70759SOL    HW214110  12.833   4.447   9.955
70760SOL     OW14111  13.291   4.985   5.295
70760SOL    HW114112  13.230   4.912   5.299
70760SOL    HW214113  13.315   5.001   5.386
70761SOL     OW14114   5.551  12.374   2.351
70761SOL    HW114115   5.490  12.408   2.417
70761SOL    HW214116   5.611  12.446   2.335
70762SOL     OW14117  13.841  14.802   9.062
70762SOL    HW114118  13.888   0.003   9.063
70762SOL    HW214119  13.900  14.741   9.016
70763SOL     OW14120   9.640   7.356   1.023
70763SOL    HW114121   9.579   7.417   1.065
70763SOL    HW214122   9.723   7.370   1.069
70764SOL     OW14123   1.404   7.149   5.127
70764SOL    HW114124   1.381   7.060   5.101
70764SOL    HW214125   1.365   7.204   5.059
70765SOL     OW14126   4.881  14.635  10.425
70765SOL    HW114127   4.857  14.665  10.513
70765SOL    HW214128   4.901  14.542  10.437
70766SOL     OW14129   8.679   7.621  12.296
70766SOL    HW114130   8.671   7.686  12.226
70766SOL    HW214131   8.767   7.585  12.285
70767SOL     OW14132  12.413   6.094   9.336
70767SOL    HW114133  12.365   6.157   9.391
70767SOL    HW214134  12.499   6.134   9.323
70768SOL     OW14135   7.840  11.924  11.267
70768SOL    HW114136   7.832  11.837  11.306
70768SOL    HW214137   7.760  11.934  11.215
70769SOL     OW14138   5.932   1.294   7.543
70769SOL    HW114139   5.960   1.264   7.630
70769SOL    HW214140   5.862   1.356   7.560
70770SOL     OW14141   0.541  11.511   0.405
70770SOL    HW114142   0.567  11.602   0.414
70770SOL    HW214143   0.614  11.461   0.441
70771SOL     OW14144   8.885   5.479   3.281
70771SOL    HW114145   8.850   5.554   3.328
70771SOL    HW214146   8.963   5.453   3.331
70772SOL     OW14147  14.805  14.133   4.560
70772SOL    HW114148  14.830  14.137   4.652
70772SOL    HW214149   0.002  14.163   4.513
70773SOL     OW14150   0.978   8.979   5.846
70773SOL    HW114151   0.961   9.064   5.885
70773SOL    HW214152   1.054   8.993   5.790
70774SOL     OW14153  12.323   8.832   1.485
70774SOL    HW114154  12.367   8.853   1.402
70774SOL    HW214155  12.240   8.878   1.481
70775SOL     OW14156   8.168   4.273  10.177
70775SOL    HW114157   8.089   4.302  10.132
70775SOL    HW214158   8.136   4.223  10.252
70776SOL     OW14159   4.545   7.999  12.331
70776SOL    HW114160   4.452   7.976  12.329
70776SOL    HW214161   4.566   8.025  12.242
70777SOL     OW14162   7.472  12.153   4.868
70777SOL    HW114163   7.545  12.163   4.928
70777SOL    HW214164   7.473  12.232   4.814
70778SOL     OW14165   6.739  14.747   5.608
70778SOL    HW114166   6.670  14.690   5.643
70778SOL    HW214167   6.774  14.792   5.685
70779SOL     OW14168  13.639   3.703  11.096
70779SOL    HW114169  13.561   3.651  11.078
70779SOL    HW214170  13.660   3.743  11.011
70780SOL     OW14171   8.277  11.533   1.585
70780SOL    HW114172   8.186  11.542   1.614
70780SOL    HW214173   8.273  11.470   1.513
70781SOL     OW14174  13.669  13.953  11.935
70781SOL    HW114175  13.604  13.883  11.943
70781SOL    HW214176  13.661  13.983  11.844
70782SOL     OW14177   6.898   6.169   1.526
70782SOL    HW114178   6.883   6.195   1.617
70782SOL    HW214179   6.888   6.073   1.527
70783SOL     OW14180   9.781   6.175  11.566
70783SOL    HW114181   9.861   6.209  11.527
70783SOL    HW214182   9.771   6.223  11.648
70784SOL     OW14183  13.970  10.134  13.963
70784SOL    HW114184  13.993  10.066  14.027
70784SOL    HW214185  14.054  10.170  13.935
70785SOL     OW14186  12.671  13.935  14.254
70785SOL    HW114187  12.657  13.934  14.159
70785SOL    HW214188  12.583  13.930  14.291
70786SOL     OW14189  12.494   4.908   2.986
70786SOL    HW114190  12.514   4.954   2.905
70786SOL    HW214191  12.540   4.825   2.978
70787SOL     OW14192  11.333   5.209   0.184
70787SOL    HW114193  11.276   5.135   0.162
70787SOL    HW214194  11.407   5.202   0.124
70788SOL     OW14195  11.048  14.621   4.820
70788SOL    HW114196  11.136  14.597   4.793
70788SOL    HW214197  10.997  14.540   4.811
70789SOL     OW14198   1.939   5.905  10.363
70789SOL    HW114199   1.998   5.913  10.288
70789SOL    HW214200   1.943   5.812  10.386
70790SOL     OW14201  13.477   2.404  13.031
70790SOL    HW114202  13.447   2.382  13.119
70790SOL    HW214203  13.495   2.319  12.990
70791SOL     OW14204  12.878   5.542   7.574
70791SOL    HW114205  12.846   5.470   7.520
70791SOL    HW214206  12.931   5.499   7.641
70792SOL     OW14207   2.155   8.261  13.616
70792SOL    HW114208   2.215   8.336  13.604
70792SOL    HW214209   2.129   8.265  13.708
70793SOL     OW14210   2.523  12.791   7.674
70793SOL    HW114211   2.522  12.836   7.759
70793SOL    HW214212   2.441  12.742   7.672
70794SOL     OW14213  11.798   3.936  14.456
70794SOL    HW114214  11.829   3.991  14.527
70794SOL    HW214215  11.771   3.997  14.388
70795SOL     OW14216  11.479   1.329  13.820
70795SOL    HW114217  11.423   1.379  13.761
70795SOL    HW214218  11.430   1.326  13.902
70796SOL     OW14219   9.011   9.358   1.927
70796SOL    HW114220   9.008   9.413   2.005
70796SOL    HW214221   9.062   9.282   1.954
70797SOL     OW14222   1.434   1.883   6.535
70797SOL    HW114223   1.509   1.930   6.572
70797SOL    HW214224   1.472   1.833   6.462
70798SOL     OW14225  14.414   4.872   0.116
70798SOL    HW114226  14.375   4.832   0.193
70798SOL    HW214227  14.340   4.891   0.058
70799SOL     OW14228  10.687  10.343   4.550
70799SOL    HW114229  10.648  10.264   4.588
70799SOL    HW214230  10.762  10.362   4.605
70800SOL     OW14231   7.316  11.948   0.172
70800SOL    HW114232   7.288  11.975   0.084
70800SOL    HW214233   7.346  12.030   0.213
70801SOL     OW14234   2.922  10.560   3.002
70801SOL    HW114235   3.009  10.533   3.029
70801SOL    HW214236   2.923  10.552   2.906
70802SOL     OW14237  13.628   0.886   0.088
70802SOL    HW114238  13.677   0.945   0.030
70802SOL    HW214239  13.569   0.944   0.136
70803SOL     OW14240  13.281  12.277   8.656
70803SOL    HW114241  13.242  12.331   8.724
70803SOL    HW214242  13.325  12.206   8.704
70804SOL     OW14243  11.681   5.849  10.531
70804SOL    HW114244  11.600   5.805  10.558
70804SOL    HW214245  11.710   5.800  10.454
70805SOL     OW14246   7.931  12.638  10.176
70805SOL    HW114247   8.025  12.635  10.196
70805SOL    HW214248   7.904  12.726  10.202
70806SOL     OW14249   3.079  13.182  11.721
70806SOL    HW114250   3.053  13.125  11.648
70806SOL    HW214251   3.013  13.251  11.723
70807SOL     OW14252   2.993  12.379   0.296
70807SOL    HW114253   2.932  12.355   0.226
70807SOL    HW214254   2.970  12.470   0.318
70808SOL     OW14255   8.191   4.056  14.181
70808SOL    HW114256   8.103   4.062  14.219
70808SOL    HW214257   8.229   3.978  14.221
70809SOL     OW14258  10.118   1.520   8.216
70809SOL    HW114259  10.152   1.522   8.126
70809SOL    HW214260  10.107   1.427   8.236
70810SOL     OW14261   5.610   8.541  12.126
70810SOL    HW114262   5.564   8.561  12.045
70810SOL    HW214263   5.579   8.454  12.151
70811SOL     OW14264   3.224   7.697   8.142
70811SOL    HW114265   3.286   7.769   8.142
70811SOL    HW214266   3.159   7.721   8.076
70812SOL     OW14267  13.215  12.746   3.680
70812SOL    HW114268  13.146  12.807   3.705
70812SOL    HW214269  13.196  12.667   3.730
70813SOL     OW14270   2.812   9.174   5.735
70813SOL    HW114271   2.721   9.157   5.713
70813SOL    HW214272   2.812   9.261   5.774
70814SOL     OW14273  12.510   7.490   8.209
70814SOL    HW114274  12.438   7.547   8.235
70814SOL    HW214275  12.477   7.401   8.224
70815SOL     OW14276   7.192  10.254   1.737
70815SOL    HW114277   7.263  10.195   1.710
70815SOL    HW214278   7.137  10.202   1.795
70816SOL     OW14279   1.606   4.595   0.457
70816SOL    HW114280   1.645   4.620   0.541
70816SOL    HW214281   1.680   4.596   0.395
70817SOL     OW14282   0.150  13.995   7.509
70817SOL    HW114283   0.238  14.016   7.541
70817SOL    HW214284   0.127  14.069   7.452
70818SOL     OW14285   7.124   6.260  13.337
70818SOL    HW114286   7.077   6.210  13.403
70818SOL    HW214287   7.056   6.306  13.288
70819SOL     OW14288   5.252   3.581   1.054
70819SOL    HW114289   5.347   3.589   1.062
70819SOL    HW214290   5.238   3.551   0.964
70820SOL     OW14291   0.038   0.794   4.818
70820SOL    HW114292   0.088   0.872   4.797
70820SOL    HW214293  14.840   0.802   4.766
70821SOL     OW14294   2.690   2.392   7.387
70821SOL    HW114295   2.694   2.319   7.448
70821SOL    HW214296   2.606   2.434   7.404
70822SOL     OW14297   4.643   0.943   6.227
70822SOL    HW114298   4.695   0.979   6.299
70822SOL    HW214299   4.557   0.984   6.237
70823SOL     OW14300   8.878   9.654   7.539
70823SOL    HW114301   8.800   9.599   7.531
70823SOL    HW214302   8.869   9.719   7.470
70824SOL     OW14303  13.753  10.515  14.857
70824SOL    HW114304  13.711  10.455   0.036
70824SOL    HW214305  13.846  10.499  14.866
70825SOL     OW14306   7.754   0.713   4.662
70825SOL    HW114307   7.720   0.793   4.623
70825SOL    HW214308   7.831   0.691   4.610
70826SOL     OW14309   0.588   2.990   0.994
70826SOL    HW114310   0.524   2.925   0.964
70826SOL    HW214311   0.561   3.072   0.953
70827SOL     OW14312   0.974   6.749   9.114
70827SOL    HW114313   0.937   6.709   9.192
70827SOL    HW214314   0.988   6.840   9.138
70828SOL     OW14315   7.156   0.705   8.198
70828SOL    HW114316   7.171   0.612   8.214
70828SOL    HW214317   7.121   0.709   8.109
70829SOL     OW14318  14.101  14.507   1.096
70829SOL    HW114319  14.151  14.559   1.033
70829SOL    HW214320  14.126  14.542   1.182
70830SOL     OW14321   9.056  12.488   6.343
70830SOL    HW114322   9.003  12.477   6.264
70830SOL    HW214323   9.021  12.424   6.405
70831SOL     OW14324   0.953   4.391   0.528
70831SOL    HW114325   0.893   4.391   0.602
70831SOL    HW214326   0.994   4.477   0.530
70832SOL     OW14327   2.235   5.918   7.256
70832SOL    HW114328   2.214   6.008   7.279
70832SOL    HW214329   2.253   5.920   7.162
70833SOL     OW14330   9.086   8.919  14.792
70833SOL    HW114331   9.118   8.999  14.833
70833SOL    HW214332   9.064   8.945  14.702
70834SOL     OW14333   5.428   9.203   3.969
70834SOL    HW114334   5.432   9.298   3.976
70834SOL    HW214335   5.376   9.187   3.890
70835SOL     OW14336  12.233   7.148  12.123
70835SOL    HW114337  12.200   7.163  12.212
70835SOL    HW214338  12.326   7.167  12.129
70836SOL     OW14339   0.538   3.100   0.589
70836SOL    HW114340   0.621   3.054   0.594
70836SOL    HW214341   0.561   3.192   0.603
70837SOL     OW14342  11.829   8.803   3.116
70837SOL    HW114343  11.786   8.725   3.151
70837SOL    HW214344  11.918   8.775   3.096
70838SOL     OW14345  12.846   9.451   3.467
70838SOL    HW114346  12.830   9.524   3.408
70838SOL    HW214347  12.937   9.461   3.495
70839SOL     OW14348  12.418   9.396   9.068
70839SOL    HW114349  12.438   9.489   9.055
70839SOL    HW214350  12.449   9.378   9.157
70840SOL     OW14351  14.742   4.505  10.054
70840SOL    HW114352  14.665   4.490  10.109
70840SOL    HW214353  14.738   4.437   9.987
70841SOL     OW14354   7.019   5.148   8.969
70841SOL    HW114355   6.992   5.217   9.030
70841SOL    HW214356   7.037   5.073   9.025
70842SOL     OW14357   5.375   5.166  11.971
70842SOL    HW114358   5.360   5.260  11.963
70842SOL    HW214359   5.417   5.142  11.888
70843SOL     OW14360   0.648   3.183  14.167
70843SOL    HW114361   0.705   3.121  14.121
70843SOL    HW214362   0.601   3.228  14.097
70844SOL     OW14363   6.789   8.333   0.879
70844SOL    HW114364   6.785   8.425   0.905
70844SOL    HW214365   6.883   8.316   0.867
70845SOL     OW14366   7.374  11.761  13.177
70845SOL    HW114367   7.377  11.665  13.180
70845SOL    HW214368   7.392  11.789  13.267
70846SOL     OW14369   9.810  10.965   6.921
70846SOL    HW114370   9.830  11.059   6.921
70846SOL    HW214371   9.723  10.959   6.960
70847SOL     OW14372  11.419  13.558  11.922
70847SOL    HW114373  11.439  13.533  12.012
70847SOL    HW214374  11.353  13.627  11.931
70848SOL     OW14375  12.829   8.308   2.824
70848SOL    HW114376  12.906   8.281   2.874
70848SOL    HW214377  12.802   8.391   2.864
70849SOL     OW14378  12.526  10.917  12.728
70849SOL    HW114379  12.498  10.876  12.646
70849SOL    HW214380  12.506  11.010  12.716
70850SOL     OW14381   6.669  11.678   7.049
70850SOL    HW114382   6.613  11.602   7.066
70850SOL    HW214383   6.699  11.665   6.959
70851SOL     OW14384   0.073   3.509  13.557
70851SOL    HW114385   0.162   3.489  13.585
70851SOL    HW214386   0.063   3.462  13.474
70852SOL     OW14387  11.551   6.784   4.452
70852SOL    HW114388  11.510   6.815   4.532
70852SOL    HW214389  11.548   6.859   4.393
70853SOL     OW14390   8.717   0.733   6.127
70853SOL    HW114391   8.763   0.671   6.183
70853SOL    HW214392   8.655   0.777   6.185
70854SOL     OW14393   6.974   3.690   2.490
70854SOL    HW114394   6.910   3.759   2.509
70854SOL    HW214395   7.037   3.732   2.430
70855SOL     OW14396   1.804   1.627   0.834
70855SOL    HW114397   1.797   1.714   0.872
70855SOL    HW214398   1.815   1.568   0.909
70856SOL     OW14399  14.046  14.016   5.869
70856SOL    HW114400  13.991  14.087   5.835
70856SOL    HW214401  14.134  14.038   5.839
70857SOL     OW14402   0.195   2.522   9.176
70857SOL    HW114403   0.226   2.520   9.267
70857SOL    HW214404   0.158   2.436   9.161
70858SOL     OW14405   0.176   0.133   7.864
70858SOL    HW114406   0.251   0.075   7.847
70858SOL    HW214407   0.189   0.206   7.804
70859SOL     OW14408  11.216   2.593  13.341
70859SOL    HW114409  11.232   2.500  13.354
70859SOL    HW214410  11.183   2.625  13.425
70860SOL     OW14411   9.649  10.302   6.454
70860SOL    HW114412   9.600  10.220   6.467
70860SOL    HW214413   9.598  10.368   6.500
70861SOL     OW14414   5.902   4.310  12.299
70861SOL    HW114415   5.941   4.324  12.213
70861SOL    HW214416   5.869   4.396  12.324
70862SOL     OW14417   6.588   7.554   0.190
70862SOL    HW114418   6.678   7.524   0.177
70862SOL    HW214419   6.560   7.511   0.271
70863SOL     OW14420   3.670  14.141   9.114
70863SOL    HW114421   3.604  14.104   9.055
70863SOL    HW214422   3.670  14.082   9.190
70864SOL     OW14423   1.483   7.037  11.137
70864SOL    HW114424   1.517   7.106  11.195
70864SOL    HW214425   1.457   6.966  11.196
70865SOL     OW14426  11.659   1.106   4.312
70865SOL    HW114427  11.701   1.058   4.383
70865SOL    HW214428  11.726   1.168   4.282
70866SOL     OW14429  13.869   5.142   2.795
70866SOL    HW114430  13.820   5.223   2.802
70866SOL    HW214431  13.806   5.073   2.817
70867SOL     OW14432   0.129   5.409   4.053
70867SOL    HW114433   0.088   5.460   3.984
70867SOL    HW214434   0.203   5.463   4.081
70868SOL     OW14435   9.425  14.371   1.752
70868SOL    HW114436   9.504  14.387   1.700
70868SOL    HW214437   9.447  14.295   1.807
70869SOL     OW14438   1.637  13.448   1.356
70869SOL    HW114439   1.625  13.532   1.400
70869SOL    HW214440   1.636  13.384   1.427
70870SOL     OW14441  14.313   5.429   0.193
70870SOL    HW114442  14.382   5.480   0.150
70870SOL    HW214443  14.324   5.340   0.158
70871SOL     OW14444   4.699   8.989   9.612
70871SOL    HW114445   4.640   8.913   9.613
70871SOL    HW214446   4.751   8.978   9.691
70872SOL     OW14447   5.016   1.410   8.998
70872SOL    HW114448   5.022   1.342   9.065
70872SOL    HW214449   5.065   1.376   8.924
70873SOL     OW14450  10.042   3.162   7.276
70873SOL    HW114451  10.094   3.083   7.260
70873SOL    HW214452  10.072   3.224   7.209
70874SOL     OW14453   4.801   0.318   2.972
70874SOL    HW114454   4.852   0.381   3.023
70874SOL    HW214455   4.860   0.289   2.904
70875SOL     OW14456   7.674  11.479   6.467
70875SOL    HW114457   7.675  11.387   6.494
70875SOL    HW214458   7.584  11.508   6.482
70876SOL     OW14459   5.042  11.547   5.276
70876SOL    HW114460   5.043  11.643   5.270
70876SOL    HW214461   5.063  11.517   5.188
70877SOL     OW14462   8.531  10.680   4.696
70877SOL    HW114463   8.587  10.752   4.669
70877SOL    HW214464   8.476  10.717   4.765
70878SOL     OW14465   2.988   9.848  10.967
70878SOL    HW114466   2.952   9.854  10.879
70878SOL    HW214467   3.012   9.938  10.990
70879SOL     OW14468   6.002   2.564  14.096
70879SOL    HW114469   6.094   2.586  14.080
70879SOL    HW214470   6.000   2.534  14.187
70880SOL     OW14471   6.801   4.032  12.658
70880SOL    HW114472   6.780   4.109  12.710
70880SOL    HW214473   6.807   4.064  12.568
70881SOL     OW14474   2.983   2.238   1.362
70881SOL    HW114475   2.933   2.157   1.355
70881SOL    HW214476   2.997   2.249   1.457
70882SOL     OW14477   3.130  14.219   7.254
70882SOL    HW114478   3.085  14.294   7.293
70882SOL    HW214479   3.222  14.246   7.249
70883SOL     OW14480   9.651  10.745   4.613
70883SOL    HW114481   9.576  10.708   4.661
70883SOL    HW214482   9.621  10.831   4.584
70884SOL     OW14483  11.443   1.639   9.039
70884SOL    HW114484  11.529   1.621   9.079
70884SOL    HW214485  11.457   1.624   8.945
70885SOL     OW14486   5.217  13.966  13.712
70885SOL    HW114487   5.226  13.914  13.632
70885SOL    HW214488   5.248  13.908  13.782
70886SOL     OW14489  11.014   3.321  13.425
70886SOL    HW114490  11.025   3.236  13.467
70886SOL    HW214491  11.070   3.319  13.348
70887SOL     OW14492   7.211   4.613  13.188
70887SOL    HW114493   7.215   4.558  13.266
70887SOL    HW214494   7.295   4.659  13.186
70888SOL     OW14495   8.728   0.299   5.035
70888SOL    HW114496   8.645   0.329   4.998
70888SOL    HW214497   8.729   0.205   5.018
70889SOL     OW14498  13.373   2.811  11.522
70889SOL    HW114499  13.402   2.744  11.460
70889SOL    HW214500  13.453   2.842  11.564
70890SOL     OW14501  11.861   6.931  10.744
70890SOL    HW114502  11.935   6.991  10.738
70890SOL    HW214503  11.868   6.893  10.832
70891SOL     OW14504   3.861  12.787  11.829
70891SOL    HW114505   3.947  12.783  11.787
70891SOL    HW214506   3.799  12.794  11.757
70892SOL     OW14507   2.524   3.471   6.925
70892SOL    HW114508   2.523   3.563   6.950
70892SOL    HW214509   2.549   3.424   7.004
70893SOL     OW14510   0.697   9.723   6.659
70893SOL    HW114511   0.635   9.697   6.590
70893SOL    HW214512   0.662   9.683   6.739
70894SOL     OW14513  13.766   6.616   9.724
70894SOL    HW114514  13.835   6.577   9.777
70894SOL    HW214515  13.812   6.680   9.669
70895SOL     OW14516  10.516   2.424   4.790
70895SOL    HW114517  10.484   2.508   4.755
70895SOL    HW214518  10.443   2.364   4.778
70896SOL     OW14519  14.827  13.397   5.077
70896SOL    HW114520  14.786  13.453   5.011
70896SOL    HW214521   0.001  13.456   5.127
70897SOL     OW14522   9.774   2.715   4.200
70897SOL    HW114523   9.771   2.739   4.292
70897SOL    HW214524   9.867   2.715   4.178
70898SOL     OW14525  13.283   8.334   7.181
70898SOL    HW114526  13.374   8.312   7.197
70898SOL    HW214527  13.233   8.265   7.226
70899SOL     OW14528   7.319  13.479   0.213
70899SOL    HW114529   7.249  13.542   0.228
70899SOL    HW214530   7.396  13.532   0.194
70900SOL     OW14531   8.187   6.474   4.331
70900SOL    HW114532   8.108   6.494   4.380
70900SOL    HW214533   8.156   6.431   4.251
70901SOL     OW14534   0.575   9.141   5.173
70901SOL    HW114535   0.481   9.123   5.163
70901SOL    HW214536   0.590   9.135   5.268
70902SOL     OW14537   0.342   1.887  14.139
70902SOL    HW114538   0.432   1.864  14.164
70902SOL    HW214539   0.327   1.973  14.179
70903SOL     OW14540  11.860   6.992   3.239
70903SOL    HW114541  11.838   6.963   3.151
70903SOL    HW214542  11.925   7.061   3.226
70904SOL     OW14543   7.568  11.510  12.883
70904SOL    HW114544   7.661  11.518  12.901
70904SOL    HW214545   7.529  11.492  12.969
70905SOL     OW14546  12.709   5.788   5.535
70905SOL    HW114547  12.735   5.724   5.602
70905SOL    HW214548  12.613   5.787   5.537
70906SOL     OW14549  11.140   8.999   4.140
70906SOL    HW114550  11.059   8.951   4.159
70906SOL    HW214551  11.173   9.026   4.226
70907SOL     OW14552   8.823   8.602   1.989
70907SOL    HW114553   8.884   8.553   2.044
70907SOL    HW214554   8.861   8.690   1.984
70908SOL     OW14555  10.732  11.062   8.029
70908SOL    HW114556  10.676  11.101   7.962
70908SOL    HW214557  10.678  11.061   8.108
70909SOL     OW14558  11.133   2.012   3.630
70909SOL    HW114559  11.218   2.013   3.585
70909SOL    HW214560  11.155   2.010   3.723
70910SOL     OW14561   1.707  12.359   3.333
70910SOL    HW114562   1.701  12.455   3.336
70910SOL    HW214563   1.684  12.331   3.421
70911SOL     OW14564   9.959  14.510   6.433
70911SOL    HW114565   9.964  14.481   6.342
70911SOL    HW214566   9.976  14.604   6.429
70912SOL     OW14567  10.574   4.304   7.249
70912SOL    HW114568  10.516   4.320   7.323
70912SOL    HW214569  10.661   4.330   7.281
70913SOL     OW14570  14.562   4.509   6.871
70913SOL    HW114571  14.614   4.445   6.821
70913SOL    HW214572  14.583   4.593   6.830
70914SOL     OW14573  10.117  11.751   3.892
70914SOL    HW114574  10.086  11.696   3.821
70914SOL    HW214575  10.060  11.731   3.966
70915SOL     OW14576   3.560  10.554   4.988
70915SOL    HW114577   3.478  10.604   4.985
70915SOL    HW214578   3.580  10.534   4.897
70916SOL     OW14579  10.035   5.148   6.657
70916SOL    HW114580   9.989   5.196   6.726
70916SOL    HW214581  10.040   5.209   6.584
70917SOL     OW14582  14.145   8.332  12.439
70917SOL    HW114583  14.055   8.352  12.413
70917SOL    HW214584  14.165   8.251  12.392
70918SOL     OW14585   5.585   5.790  11.078
70918SOL    HW114586   5.514   5.737  11.040
70918SOL    HW214587   5.542   5.869  11.109
70919SOL     OW14588   8.791   1.778   9.583
70919SOL    HW114589   8.780   1.704   9.643
70919SOL    HW214590   8.850   1.744   9.515
70920SOL     OW14591  14.627   9.628   9.147
70920SOL    HW114592  14.561   9.559   9.150
70920SOL    HW214593  14.681   9.606   9.071
70921SOL     OW14594   5.784   4.355  11.588
70921SOL    HW114595   5.737   4.312  11.660
70921SOL    HW214596   5.719   4.412  11.548
70922SOL     OW14597   8.206   9.870   2.965
70922SOL    HW114598   8.158   9.787   2.958
70922SOL    HW214599   8.269   9.867   2.892
70923SOL     OW14600   5.548  13.838   7.811
70923SOL    HW114601   5.507  13.908   7.861
70923SOL    HW214602   5.641  13.859   7.810
70924SOL     OW14603   8.219   9.411  10.715
70924SOL    HW114604   8.242   9.490  10.668
70924SOL    HW214605   8.181   9.353  10.649
70925SOL     OW14606   4.884   5.078   5.590
70925SOL    HW114607   4.851   5.081   5.500
70925SOL    HW214608   4.963   5.024   5.585
70926SOL     OW14609  12.758   1.905   0.930
70926SOL    HW114610  12.671   1.873   0.906
70926SOL    HW214611  12.815   1.828   0.921
70927SOL     OW14612   6.926   4.640  13.251
70927SOL    HW114613   7.015   4.639  13.217
70927SOL    HW214614   6.872   4.668  13.177
70928SOL     OW14615  12.433   7.581   9.972
70928SOL    HW114616  12.380   7.519  10.022
70928SOL    HW214617  12.431   7.548   9.882
70929SOL     OW14618   4.746   3.974  13.517
70929SOL    HW114619   4.792   4.036  13.461
70929SOL    HW214620   4.704   3.913  13.457
70930SOL     OW14621  13.366   8.618   4.670
70930SOL    HW114622  13.346   8.710   4.684
70930SOL    HW214623  13.368   8.580   4.758
70931SOL     OW14624   0.707   8.998   2.471
70931SOL    HW114625   0.782   9.057   2.476
70931SOL    HW214626   0.707   8.965   2.381
70932SOL     OW14627   7.677   4.655  11.809
70932SOL    HW114628   7.655   4.616  11.724
70932SOL    HW214629   7.687   4.748  11.791
70933SOL     OW14630   1.525  13.845  14.841
70933SOL    HW114631   1.521  13.792   0.039
70933SOL    HW214632   1.601  13.902  14.853
70934SOL     OW14633   8.911  11.175  13.588
70934SOL    HW114634   8.849  11.205  13.522
70934SOL    HW214635   8.883  11.085  13.608
70935SOL     OW14636  13.105   3.327   0.400
70935SOL    HW114637  13.121   3.406   0.452
70935SOL    HW214638  13.148   3.257   0.448
70936SOL     OW14639   7.295  11.515  10.345
70936SOL    HW114640   7.251  11.435  10.317
70936SOL    HW214641   7.385  11.504  10.316
70937SOL     OW14642   4.364   1.066   6.110
70937SOL    HW114643   4.394   1.074   6.201
70937SOL    HW214644   4.330   1.153   6.088
70938SOL     OW14645  14.040   8.904  12.944
70938SOL    HW114646  13.969   8.875  12.888
70938SOL    HW214647  14.101   8.947  12.885
70939SOL     OW14648   2.817  13.838  14.395
70939SOL    HW114649   2.806  13.769  14.461
70939SOL    HW214650   2.906  13.871  14.409
70940SOL     OW14651   7.328   3.399  10.802
70940SOL    HW114652   7.414   3.379  10.765
70940SOL    HW214653   7.341   3.479  10.852
70941SOL     OW14654   2.641  12.649   9.069
70941SOL    HW114655   2.657  12.743   9.079
70941SOL    HW214656   2.719  12.616   9.025
70942SOL     OW14657   1.281   4.298  13.542
70942SOL    HW114658   1.343   4.369  13.530
70942SOL    HW214659   1.196   4.335  13.519
70943SOL     OW14660   6.626   0.344   7.535
70943SOL    HW114661   6.687   0.280   7.571
70943SOL    HW214662   6.564   0.291   7.483
70944SOL     OW14663   4.960   4.115  13.091
70944SOL    HW114664   4.874   4.073  13.099
70944SOL    HW214665   4.944   4.191  13.035
70945SOL     OW14666   6.044  10.382   1.803
70945SOL    HW114667   6.053  10.416   1.892
70945SOL    HW214668   6.062  10.289   1.811
70946SOL     OW14669   6.839   1.418   9.895
70946SOL    HW114670   6.746   1.417   9.918
70946SOL    HW214671   6.842   1.382   9.806
70947SOL     OW14672   5.172   2.436  12.143
70947SOL    HW114673   5.177   2.440  12.239
70947SOL    HW214674   5.252   2.479  12.113
70948SOL     OW14675   0.826   9.461   7.359
70948SOL    HW114676   0.775   9.388   7.324
70948SOL    HW214677   0.763   9.533   7.367
70949SOL     OW14678   3.422   7.697   3.971
70949SOL    HW114679   3.382   7.749   3.901
70949SOL    HW214680   3.379   7.727   4.051
70950SOL     OW14681  12.092   4.424  13.836
70950SOL    HW114682  12.028   4.373  13.786
70950SOL    HW214683  12.060   4.420  13.926
70951SOL     OW14684   8.535   8.201   5.482
70951SOL    HW114685   8.448   8.175   5.511
70951SOL    HW214686   8.593   8.174   5.553
70952SOL     OW14687   1.499   4.401  14.484
70952SOL    HW114688   1.431   4.450  14.438
70952SOL    HW214689   1.542   4.350  14.416
70953SOL     OW14690   5.267  10.884   0.510
70953SOL    HW114691   5.308  10.970   0.513
70953SOL    HW214692   5.174  10.901   0.498
70954SOL     OW14693   3.378  12.656   5.088
70954SOL    HW114694   3.343  12.589   5.029
70954SOL    HW214695   3.300  12.697   5.126
70955SOL     OW14696  14.683   3.168   7.171
70955SOL    HW114697  14.687   3.261   7.150
70955SOL    HW214698  14.593   3.142   7.148
70956SOL     OW14699  12.457   1.051  12.453
70956SOL    HW114700  12.465   1.143  12.476
70956SOL    HW214701  12.405   1.013  12.523
70957SOL     OW14702   2.140   3.982   0.755
70957SOL    HW114703   2.045   3.994   0.750
70957SOL    HW214704   2.177   4.065   0.724
70958SOL     OW14705   2.949   9.332   6.985
70958SOL    HW114706   2.963   9.403   6.922
70958SOL    HW214707   2.855   9.333   7.003
70959SOL     OW14708   8.401   8.396  11.352
70959SOL    HW114709   8.334   8.328  11.342
70959SOL    HW214710   8.351   8.477  11.361
70960SOL     OW14711   7.700   8.923   1.078
70960SOL    HW114712   7.626   8.890   1.130
70960SOL    HW214713   7.665   8.932   0.990
70961SOL     OW14714   9.570   8.184  13.201
70961SOL    HW114715   9.512   8.200  13.126
70961SOL    HW214716   9.611   8.100  13.183
70962SOL     OW14717   9.132   4.240   5.781
70962SOL    HW114718   9.089   4.155   5.794
70962SOL    HW214719   9.172   4.259   5.865
70963SOL     OW14720   3.634   6.569  12.756
70963SOL    HW114721   3.692   6.642  12.735
70963SOL    HW214722   3.565   6.573  12.690
70964SOL     OW14723  10.224   3.876   6.178
70964SOL    HW114724  10.270   3.852   6.098
70964SOL    HW214725  10.281   3.942   6.219
70965SOL     OW14726   5.970  13.685   7.347
70965SOL    HW114727   5.898  13.745   7.367
70965SOL    HW214728   5.927  13.603   7.322
70966SOL     OW14729   1.962  11.509   9.370
70966SOL    HW114730   1.926  11.466   9.293
70966SOL    HW214731   1.903  11.582   9.387
70967SOL     OW14732   7.770  13.942   5.405
70967SOL    HW114733   7.684  13.970   5.373
70967SOL    HW214734   7.764  13.948   5.500
70968SOL     OW14735   5.433  14.648   1.378
70968SOL    HW114736   5.408  14.572   1.431
70968SOL    HW214737   5.383  14.721   1.415
70969SOL     OW14738  13.660  10.727   9.320
70969SOL    HW114739  13.724  10.734   9.249
70969SOL    HW214740  13.620  10.813   9.325
70970SOL     OW14741   7.801  14.393   0.789
70970SOL    HW114742   7.750  14.422   0.713
70970SOL    HW214743   7.757  14.312   0.817
70971SOL     OW14744  10.451  14.609   8.412
70971SOL    HW114745  10.490  14.599   8.324
70971SOL    HW214746  10.384  14.541   8.416
70972SOL     OW14747   9.039  11.095   9.879
70972SOL    HW114748   9.109  11.099   9.944
70972SOL    HW214749   9.076  11.137   9.801
70973SOL     OW14750   3.097   7.497  10.823
70973SOL    HW114751   3.045   7.533  10.895
70973SOL    HW214752   3.113   7.406  10.849
70974SOL     OW14753  10.612   8.954   6.284
70974SOL    HW114754  10.622   9.045   6.311
70974SOL    HW214755  10.561   8.958   6.203
70975SOL     OW14756   7.047   6.903  14.293
70975SOL    HW114757   7.097   6.859  14.362
70975SOL    HW214758   7.076   6.863  14.212
70976SOL     OW14759   7.039  12.785   1.736
70976SOL    HW114760   6.999  12.818   1.656
70976SOL    HW214761   6.997  12.835   1.806
70977SOL     OW14762   6.623   1.506  10.077
70977SOL    HW114763   6.580   1.540  10.156
70977SOL    HW214764   6.577   1.549  10.004
70978SOL     OW14765  14.547   8.826   9.421
70978SOL    HW114766  14.538   8.850   9.328
70978SOL    HW214767  14.459   8.802   9.448
70979SOL     OW14768   1.876  14.298   9.063
70979SOL    HW114769   1.939  14.362   9.096
70979SOL    HW214770   1.860  14.325   8.973
70980SOL     OW14771  13.797  13.034  11.674
70980SOL    HW114772  13.811  13.001  11.762
70980SOL    HW214773  13.885  13.051  11.640
70981SOL     OW14774   7.798   0.745   1.209
70981SOL    HW114775   7.879   0.695   1.197
70981SOL    HW214776   7.795   0.805   1.134
70982SOL     OW14777  10.558  12.625  10.446
70982SOL    HW114778  10.544  12.679  10.368
70982SOL    HW214779  10.567  12.536  10.412
70983SOL     OW14780   2.865  14.665  11.485
70983SOL    HW114781   2.874  14.757  11.462
70983SOL    HW214782   2.773  14.645  11.469
70984SOL     OW14783   8.614   7.931   9.049
70984SOL    HW114784   8.679   7.890   8.993
70984SOL    HW214785   8.636   7.900   9.137
70985SOL     OW14786   0.877   1.233   2.213
70985SOL    HW114787   0.874   1.138   2.204
70985SOL    HW214788   0.868   1.266   2.123
70986SOL     OW14789  13.300  11.520   6.081
70986SOL    HW114790  13.383  11.489   6.116
70986SOL    HW214791  13.237  11.453   6.105
70987SOL     OW14792   9.995  10.916   9.051
70987SOL    HW114793   9.992  10.999   9.003
70987SOL    HW214794   9.903  10.892   9.065
70988SOL     OW14795   7.649  11.155   7.760
70988SOL    HW114796   7.602  11.079   7.727
70988SOL    HW214797   7.708  11.121   7.827
70989SOL     OW14798   6.429   9.280   2.146
70989SOL    HW114799   6.497   9.308   2.207
70989SOL    HW214800   6.377   9.359   2.130
70990SOL     OW14801  14.135   1.956   1.082
70990SOL    HW114802  14.165   2.042   1.109
70990SOL    HW214803  14.107   1.968   0.991
70991SOL     OW14804   5.557  12.335   5.667
70991SOL    HW114805   5.570  12.409   5.726
70991SOL    HW214806   5.645  12.315   5.634
70992SOL     OW14807   4.766  11.470  10.258
70992SOL    HW114808   4.858  11.448  10.269
70992SOL    HW214809   4.721  11.424  10.330
70993SOL     OW14810   0.200   6.712  13.187
70993SOL    HW114811   0.120   6.762  13.202
70993SOL    HW214812   0.218   6.722  13.093
70994SOL     OW14813   1.106   6.940   7.607
70994SOL    HW114814   1.130   6.851   7.579
70994SOL    HW214815   1.080   6.929   7.699
70995SOL     OW14816   2.038   8.033  13.467
70995SOL    HW114817   1.981   8.010  13.540
70995SOL    HW214818   2.075   8.118  13.491
70996SOL     OW14819  12.483   3.519  11.125
70996SOL    HW114820  12.416   3.533  11.192
70996SOL    HW214821  12.532   3.442  11.154
70997SOL     OW14822   8.568   7.233   8.052
70997SOL    HW114823   8.618   7.153   8.067
70997SOL    HW214824   8.487   7.221   8.102
70998SOL     OW14825  14.418   9.950   4.813
70998SOL    HW114826  14.340   9.957   4.757
70998SOL    HW214827  14.488   9.922   4.754
70999SOL     OW14828   5.461   8.151   2.594
70999SOL    HW114829   5.541   8.140   2.544
70999SOL    HW214830   5.422   8.064   2.595
71000SOL     OW14831   6.755   6.648   1.747
71000SOL    HW114832   6.818   6.577   1.737
71000SOL    HW214833   6.805   6.718   1.789
71001SOL     OW14834   8.152   1.942  13.758
71001SOL    HW114835   8.220   1.965  13.821
71001SOL    HW214836   8.199   1.922  13.678
71002SOL     OW14837   4.591   1.050  13.689
71002SOL    HW114838   4.685   1.063  13.691
71002SOL    HW214839   4.573   0.991  13.763
71003SOL     OW14840   9.722  14.357   6.470
71003SOL    HW114841   9.700  14.415   6.543
71003SOL    HW214842   9.805  14.390   6.437
71004SOL     OW14843  11.132  11.935   8.909
71004SOL    HW114844  11.222  11.903   8.903
71004SOL    HW214845  11.083  11.862   8.944
71005SOL     OW14846   4.942   5.987   3.933
71005SOL    HW114847   4.889   5.964   3.857
71005SOL    HW214848   5.031   5.997   3.898
71006SOL     OW14849   0.520   2.592   0.817
71006SOL    HW114850   0.610   2.623   0.827
71006SOL    HW214851   0.529   2.505   0.778
71007SOL     OW14852   7.435  11.383   5.797
71007SOL    HW114853   7.485  11.352   5.722
71007SOL    HW214854   7.353  11.334   5.795
71008SOL     OW14855   3.234   1.934  13.329
71008SOL    HW114856   3.204   2.025  13.320
71008SOL    HW214857   3.327   1.942  13.352
71009SOL     OW14858   9.794   8.372   6.412
71009SOL    HW114859   9.812   8.439   6.478
71009SOL    HW214860   9.751   8.420   6.341
71010SOL     OW14861  10.062  12.992  10.823
71010SOL    HW114862  10.145  12.945  10.824
71010SOL    HW214863  10.059  13.034  10.737
71011SOL     OW14864   9.605  11.086   8.358
71011SOL    HW114865   9.626  11.059   8.448
71011SOL    HW214866   9.553  11.166   8.369
71012SOL     OW14867   4.534   8.704   2.516
71012SOL    HW114868   4.522   8.634   2.580
71012SOL    HW214869   4.470   8.684   2.447
71013SOL     OW14870   6.329   8.757   4.339
71013SOL    HW114871   6.261   8.823   4.326
71013SOL    HW214872   6.344   8.756   4.433
71014SOL     OW14873   3.175  12.510   8.313
71014SOL    HW114874   3.165  12.491   8.220
71014SOL    HW214875   3.115  12.450   8.357
71015SOL     OW14876  11.061   2.478   4.244
71015SOL    HW114877  10.969   2.455   4.262
71015SOL    HW214878  11.104   2.471   4.328
71016SOL     OW14879   2.045  10.292   5.385
71016SOL    HW114880   2.043  10.383   5.415
71016SOL    HW214881   2.034  10.298   5.290
71017SOL     OW14882  12.767   0.273   9.058
71017SOL    HW114883  12.750   0.256   9.151
71017SOL    HW214884  12.770   0.369   9.052
71018SOL     OW14885  12.375   9.303   4.123
71018SOL    HW114886  12.443   9.339   4.180
71018SOL    HW214887  12.297   9.354   4.144
71019SOL     OW14888   7.773   3.041  12.732
71019SOL    HW114889   7.724   2.958  12.727
71019SOL    HW214890   7.809   3.053  12.644
71020SOL     OW14891  14.395   0.831   0.047
71020SOL    HW114892  14.405   0.924   0.069
71020SOL    HW214893  14.484   0.795   0.055
71021SOL     OW14894   5.342   2.198   0.141
71021SOL    HW114895   5.377   2.135   0.078
71021SOL    HW214896   5.250   2.174   0.151
71022SOL     OW14897   7.794   6.764  11.437
71022SOL    HW114898   7.781   6.845  11.486
71022SOL    HW214899   7.886   6.765  11.412
71023SOL     OW14900   9.129   7.265  10.432
71023SOL    HW114901   9.167   7.336  10.380
71023SOL    HW214902   9.058   7.306  10.481
71024SOL     OW14903   5.630   7.462  10.409
71024SOL    HW114904   5.685   7.418  10.344
71024SOL    HW214905   5.587   7.391  10.456
71025SOL     OW14906   6.313   0.216  13.697
71025SOL    HW114907   6.385   0.277  13.718
71025SOL    HW214908   6.357   0.134  13.677
71026SOL     OW14909   8.703   5.959   9.258
71026SOL    HW114910   8.791   5.969   9.293
71026SOL    HW214911   8.682   6.044   9.219
71027SOL     OW14912   2.881   6.837  13.865
71027SOL    HW114913   2.882   6.932  13.882
71027SOL    HW214914   2.937   6.800  13.933
71028SOL     OW14915  13.946   4.538   8.003
71028SOL    HW114916  13.887   4.495   7.941
71028SOL    HW214917  13.941   4.631   7.980
71029SOL     OW14918   7.477  12.529   4.431
71029SOL    HW114919   7.533  12.549   4.356
71029SOL    HW214920   7.529  12.467   4.484
71030SOL     OW14921   5.565  13.581   8.964
71030SOL    HW114922   5.536  13.603   8.875
71030SOL    HW214923   5.557  13.486   8.969
71031SOL     OW14924   6.675   4.897  12.303
71031SOL    HW114925   6.645   4.897  12.394
71031SOL    HW214926   6.745   4.831  12.301
71032SOL     OW14927  13.760  13.696  11.677
71032SOL    HW114928  13.746  13.610  11.717
71032SOL    HW214929  13.675  13.718  11.638
71033SOL     OW14930   4.618  14.370  10.716
71033SOL    HW114931   4.692  14.308  10.722
71033SOL    HW214932   4.615  14.395  10.624
71034SOL     OW14933  10.786   5.652   5.253
71034SOL    HW114934  10.776   5.558   5.270
71034SOL    HW214935  10.868   5.659   5.204
71035SOL     OW14936   2.318   2.649  11.267
71035SOL    HW114937   2.252   2.614  11.328
71035SOL    HW214938   2.376   2.575  11.250
71036SOL     OW14939  10.070   6.978   1.011
71036SOL    HW114940  10.017   7.036   0.958
71036SOL    HW214941  10.096   6.907   0.952
71037SOL     OW14942   2.972  12.503   3.482
71037SOL    HW114943   3.009  12.500   3.570
71037SOL    HW214944   3.041  12.544   3.429
71038SOL     OW14945   5.842   8.305  12.739
71038SOL    HW114946   5.843   8.257  12.656
71038SOL    HW214947   5.879   8.244  12.803
71039SOL     OW14948   3.622  13.572   8.372
71039SOL    HW114949   3.633  13.664   8.397
71039SOL    HW214950   3.532  13.551   8.396
71040SOL     OW14951  10.552   7.133   8.122
71040SOL    HW114952  10.582   7.207   8.175
71040SOL    HW214953  10.563   7.057   8.180
71041SOL     OW14954   3.078   2.045   7.020
71041SOL    HW114955   3.002   2.021   6.966
71041SOL    HW214956   3.058   2.134   7.050
71042SOL     OW14957   0.492  13.900   2.651
71042SOL    HW114958   0.499  13.963   2.723
71042SOL    HW214959   0.576  13.855   2.651
71043SOL     OW14960   9.953   6.070  12.928
71043SOL    HW114961   9.969   5.986  12.886
71043SOL    HW214962  10.019   6.129  12.892
71044SOL     OW14963  10.368  13.811   4.232
71044SOL    HW114964  10.278  13.779   4.232
71044SOL    HW214965  10.359  13.906   4.226
71045SOL     OW14966  13.294   3.738   0.521
71045SOL    HW114967  13.326   3.799   0.455
71045SOL    HW214968  13.331   3.770   0.603
71046SOL     OW14969  14.646  11.413   8.599
71046SOL    HW114970  14.687  11.437   8.682
71046SOL    HW214971  14.641  11.317   8.602
71047SOL     OW14972   6.236   4.492   7.128
71047SOL    HW114973   6.164   4.473   7.188
71047SOL    HW214974   6.194   4.509   7.044
71048SOL     OW14975   5.367  13.493   4.539
71048SOL    HW114976   5.292  13.475   4.595
71048SOL    HW214977   5.428  13.542   4.595
71049SOL     OW14978   7.263  13.935  12.571
71049SOL    HW114979   7.284  13.897  12.485
71049SOL    HW214980   7.204  14.009  12.551
71050SOL     OW14981  14.835  13.437  14.570
71050SOL    HW114982  14.794  13.523  14.562
71050SOL    HW214983  14.812  13.391  14.489
71051SOL     OW14984   3.365   4.785   5.868
71051SOL    HW114985   3.434   4.785   5.934
71051SOL    HW214986   3.412   4.798   5.785
71052SOL     OW14987   0.633   8.509   2.491
71052SOL    HW114988   0.653   8.524   2.398
71052SOL    HW214989   0.654   8.592   2.533
71053SOL     OW14990   3.508   4.895   0.345
71053SOL    HW114991   3.565   4.925   0.416
71053SOL    HW214992   3.430   4.950   0.353
71054SOL     OW14993   0.215   4.741   7.978
71054SOL    HW114994   0.208   4.805   8.049
71054SOL    HW214995   0.295   4.692   7.997
71055SOL     OW14996   2.058  14.619  12.232
71055SOL    HW114997   2.018  14.548  12.183
71055SOL    HW214998   2.023  14.609  12.321
71056SOL     OW14999   5.199   4.545   4.222
71056SOL    HW115000   5.239   4.469   4.179
71056SOL    HW215001   5.179   4.605   4.150
71057SOL     OW15002   2.170  10.465  13.862
71057SOL    HW115003   2.160  10.433  13.952
71057SOL    HW215004   2.085  10.450  13.821
71058SOL     OW15005   7.347  14.589  11.635
71058SOL    HW115006   7.324  14.672  11.676
71058SOL    HW215007   7.343  14.606  11.541
71059SOL     OW15008  12.160   8.840   0.870
71059SOL    HW115009  12.145   8.915   0.928
71059SOL    HW215010  12.165   8.878   0.782
71060SOL     OW15011   8.923   1.645  11.328
71060SOL    HW115012   8.876   1.570  11.365
71060SOL    HW215013   8.967   1.685  11.404
71061SOL     OW15014  13.222  12.819   1.549
71061SOL    HW115015  13.160  12.826   1.621
71061SOL    HW215016  13.175  12.771   1.481
71062SOL     OW15017   0.505  13.827   2.980
71062SOL    HW115018   0.427  13.785   2.944
71062SOL    HW215019   0.574  13.762   2.968
71063SOL     OW15020   1.420   1.324   2.744
71063SOL    HW115021   1.444   1.362   2.829
71063SOL    HW215022   1.326   1.338   2.737
71064SOL     OW15023   9.829   0.076   6.287
71064SOL    HW115024   9.885   0.035   6.353
71064SOL    HW215025   9.888   0.102   6.217
71065SOL     OW15026   6.766  11.795  14.337
71065SOL    HW115027   6.787  11.824  14.426
71065SOL    HW215028   6.852  11.777  14.297
71066SOL     OW15029   1.762  11.387   1.030
71066SOL    HW115030   1.814  11.461   0.999
71066SOL    HW215031   1.822  11.312   1.025
71067SOL     OW15032  11.735  12.444  13.139
71067SOL    HW115033  11.753  12.455  13.232
71067SOL    HW215034  11.713  12.532  13.108
71068SOL     OW15035   8.358  13.416  14.116
71068SOL    HW115036   8.268  13.449  14.120
71068SOL    HW215037   8.358  13.340  14.173
71069SOL     OW15038   2.286  12.753   9.888
71069SOL    HW115039   2.204  12.741   9.840
71069SOL    HW215040   2.327  12.666   9.886
71070SOL     OW15041  12.897  14.649  13.843
71070SOL    HW115042  12.967  14.669  13.905
71070SOL    HW215043  12.917  14.702  13.765
71071SOL     OW15044  12.088   4.036   2.922
71071SOL    HW115045  12.030   4.069   2.990
71071SOL    HW215046  12.087   3.941   2.933
71072SOL     OW15047   1.810   3.886   9.999
71072SOL    HW115048   1.723   3.856  10.025
71072SOL    HW215049   1.794   3.937   9.920
71073SOL     OW15050  12.422   2.765   1.704
71073SOL    HW115051  12.362   2.724   1.766
71073SOL    HW215052  12.389   2.738   1.618
71074SOL     OW15053   4.687   7.662  14.146
71074SOL    HW115054   4.680   7.757  14.155
71074SOL    HW215055   4.634   7.627  14.218
71075SOL     OW15056  14.568   1.800   6.562
71075SOL    HW115057  14.586   1.795   6.656
71075SOL    HW215058  14.491   1.743   6.550
71076SOL     OW15059   6.180   7.520  10.241
71076SOL    HW115060   6.205   7.498  10.151
71076SOL    HW215061   6.089   7.548  10.235
71077SOL     OW15062  11.102   7.569  12.262
71077SOL    HW115063  11.108   7.664  12.265
71077SOL    HW215064  11.009   7.552  12.246
71078SOL     OW15065   8.723   6.569   4.691
71078SOL    HW115066   8.750   6.631   4.623
71078SOL    HW215067   8.799   6.561   4.748
71079SOL     OW15068   6.727   4.146   4.259
71079SOL    HW115069   6.780   4.107   4.190
71079SOL    HW215070   6.725   4.239   4.239
71080SOL     OW15071   6.142   4.067   5.631
71080SOL    HW115072   6.049   4.050   5.646
71080SOL    HW215073   6.156   4.156   5.665
71081SOL     OW15074   4.880   9.711   2.441
71081SOL    HW115075   4.786   9.692   2.433
71081SOL    HW215076   4.921   9.625   2.450
71082SOL     OW15077   6.983   1.686   9.190
71082SOL    HW115078   6.998   1.728   9.274
71082SOL    HW215079   7.000   1.593   9.206
71083SOL     OW15080   0.648   8.134   0.061
71083SOL    HW115081   0.627   8.061   0.119
71083SOL    HW215082   0.734   8.164   0.090
71084SOL     OW15083   4.360  10.224   9.911
71084SOL    HW115084   4.446  10.255   9.938
71084SOL    HW215085   4.323  10.296   9.859
71085SOL     OW15086   9.198   0.478   6.532
71085SOL    HW115087   9.116   0.475   6.581
71085SOL    HW215088   9.206   0.570   6.504
71086SOL     OW15089   2.769  11.347   8.116
71086SOL    HW115090   2.861  11.326   8.099
71086SOL    HW215091   2.720  11.276   8.075
71087SOL     OW15092   4.840  11.991   2.358
71087SOL    HW115093   4.811  12.041   2.435
71087SOL    HW215094   4.925  12.027   2.336
71088SOL     OW15095  14.728   0.047   1.991
71088SOL    HW115096  14.649   0.020   2.037
71088SOL    HW215097  14.779  14.848   1.982
71089SOL     OW15098   8.071   3.529   1.481
71089SOL    HW115099   8.059   3.622   1.463
71089SOL    HW215100   8.096   3.491   1.397
71090SOL     OW15101   7.262   1.182   1.245
71090SOL    HW115102   7.230   1.241   1.313
71090SOL    HW215103   7.279   1.239   1.170
71091SOL     OW15104   6.999  11.932   9.522
71091SOL    HW115105   7.073  11.915   9.581
71091SOL    HW215106   6.936  11.862   9.541
71092SOL     OW15107  14.773  10.285  11.251
71092SOL    HW115108  14.772  10.374  11.216
71092SOL    HW215109  14.700  10.241  11.207
71093SOL     OW15110   6.260   8.296   5.342
71093SOL    HW115111   6.248   8.359   5.270
71093SOL    HW215112   6.351   8.306   5.368
71094SOL     OW15113   0.757   4.386  14.334
71094SOL    HW115114   0.677   4.420  14.295
71094SOL    HW215115   0.826   4.446  14.304
71095SOL     OW15116  14.749  13.671  13.390
71095SOL    HW115117  14.685  13.709  13.329
71095SOL    HW215118  14.698  13.608  13.441
71096SOL     OW15119  13.838   3.427  12.864
71096SOL    HW115120  13.792   3.477  12.932
71096SOL    HW215121  13.841   3.487  12.789
71097SOL     OW15122   2.439   0.672   7.479
71097SOL    HW115123   2.404   0.744   7.426
71097SOL    HW215124   2.459   0.712   7.564
71098SOL     OW15125  10.393   4.325   6.463
71098SOL    HW115126  10.381   4.362   6.375
71098SOL    HW215127  10.364   4.395   6.522
71099SOL     OW15128   8.165   9.167   7.638
71099SOL    HW115129   8.073   9.188   7.627
71099SOL    HW215130   8.187   9.115   7.560
71100SOL     OW15131  14.437   5.255   4.299
71100SOL    HW115132  14.410   5.164   4.312
71100SOL    HW215133  14.472   5.256   4.210
71101SOL     OW15134  13.728   1.159   3.743
71101SOL    HW115135  13.804   1.115   3.781
71101SOL    HW215136  13.753   1.251   3.740
71102SOL     OW15137  13.980  11.685   0.841
71102SOL    HW115138  13.996  11.652   0.929
71102SOL    HW215139  14.026  11.768   0.837
71103SOL     OW15140   8.049  14.553   0.596
71103SOL    HW115141   8.126  14.536   0.541
71103SOL    HW215142   8.045  14.478   0.655
71104SOL     OW15143   7.470   3.758  13.410
71104SOL    HW115144   7.539   3.815  13.378
71104SOL    HW215145   7.471   3.770  13.505
71105SOL     OW15146  11.505  13.757   6.818
71105SOL    HW115147  11.495  13.787   6.728
71105SOL    HW215148  11.582  13.700   6.816
71106SOL     OW15149  10.889   1.322  11.460
71106SOL    HW115150  10.973   1.275  11.468
71106SOL    HW215151  10.914   1.410  11.430
71107SOL     OW15152  10.294  12.476   2.693
71107SOL    HW115153  10.256  12.446   2.611
71107SOL    HW215154  10.387  12.457   2.686
71108SOL     OW15155  13.801  13.729   0.090
71108SOL    HW115156  13.731  13.678   0.049
71108SOL    HW215157  13.865  13.744   0.021
71109SOL     OW15158   4.783   3.863  13.739
71109SOL    HW115159   4.756   3.920  13.667
71109SOL    HW215160   4.754   3.908  13.818
71110SOL     OW15161   7.618   2.604   7.935
71110SOL    HW115162   7.692   2.660   7.955
71110SOL    HW215163   7.585   2.635   7.851
71111SOL     OW15164   4.812   9.513  13.510
71111SOL    HW115165   4.774   9.426  13.499
71111SOL    HW215166   4.876   9.521  13.439
71112SOL     OW15167   5.030   8.827   9.102
71112SOL    HW115168   5.003   8.902   9.049
71112SOL    HW215169   4.974   8.830   9.179
71113SOL     OW15170  14.712  13.542   0.917
71113SOL    HW115171  14.777  13.611   0.932
71113SOL    HW215172  14.629  13.589   0.910
71114SOL     OW15173   7.065   3.838   4.967
71114SOL    HW115174   7.033   3.753   4.939
71114SOL    HW215175   7.008   3.901   4.922
71115SOL     OW15176   0.495   7.368   4.113
71115SOL    HW115177   0.540   7.350   4.031
71115SOL    HW215178   0.532   7.451   4.144
71116SOL     OW15179  12.611  11.097  14.644
71116SOL    HW115180  12.695  11.057  14.667
71116SOL    HW215181  12.553  11.023  14.629
71117SOL     OW15182   4.710   5.976  14.602
71117SOL    HW115183   4.769   5.917  14.556
71117SOL    HW215184   4.626   5.929  14.604
71118SOL     OW15185   3.869   3.839   9.193
71118SOL    HW115186   3.891   3.801   9.108
71118SOL    HW215187   3.921   3.920   9.197
71119SOL     OW15188   1.206  10.035   2.206
71119SOL    HW115189   1.274   9.974   2.176
71119SOL    HW215190   1.253  10.099   2.260
71120SOL     OW15191  13.504   1.275   2.592
71120SOL    HW115192  13.451   1.196   2.599
71120SOL    HW215193  13.557   1.261   2.513
71121SOL     OW15194  13.242   5.781   9.818
71121SOL    HW115195  13.220   5.810   9.729
71121SOL    HW215196  13.245   5.686   9.813
71122SOL     OW15197   3.016  12.128   8.127
71122SOL    HW115198   3.031  12.220   8.107
71122SOL    HW215199   2.979  12.091   8.047
71123SOL     OW15200   7.313  12.189   3.493
71123SOL    HW115201   7.221  12.167   3.505
71123SOL    HW215202   7.313  12.257   3.425
71124SOL     OW15203  11.952   9.047  11.287
71124SOL    HW115204  11.996   8.984  11.230
71124SOL    HW215205  11.859   9.028  11.277
71125SOL     OW15206   7.527   9.745   4.521
71125SOL    HW115207   7.480   9.681   4.574
71125SOL    HW215208   7.552   9.697   4.441
71126SOL     OW15209   3.429  13.220  12.154
71126SOL    HW115210   3.428  13.315  12.141
71126SOL    HW215211   3.390  13.184  12.075
71127SOL     OW15212   3.492   8.653  11.576
71127SOL    HW115213   3.419   8.714  11.565
71127SOL    HW215214   3.452   8.566  11.574
71128SOL     OW15215   3.274   9.543  13.273
71128SOL    HW115216   3.286   9.466  13.217
71128SOL    HW215217   3.195   9.585  13.240
71129SOL     OW15218   2.614  12.556  12.288
71129SOL    HW115219   2.604  12.618  12.360
71129SOL    HW215220   2.632  12.472  12.330
71130SOL     OW15221   3.103   9.027   2.144
71130SOL    HW115222   3.132   8.957   2.085
71130SOL    HW215223   3.008   9.015   2.151
71131SOL     OW15224   6.005  11.429   7.311
71131SOL    HW115225   6.000  11.447   7.217
71131SOL    HW215226   5.979  11.512   7.353
71132SOL     OW15227  10.230   2.961   7.227
71132SOL    HW115228  10.285   3.033   7.196
71132SOL    HW215229  10.279   2.924   7.301
71133SOL     OW15230  14.665   2.520   3.708
71133SOL    HW115231  14.710   2.533   3.625
71133SOL    HW215232  14.733   2.491   3.768
71134SOL     OW15233   6.831   9.143   7.773
71134SOL    HW115234   6.886   9.122   7.848
71134SOL    HW215235   6.832   9.063   7.719
71135SOL     OW15236   4.189   2.192   2.640
71135SOL    HW115237   4.187   2.262   2.706
71135SOL    HW215238   4.225   2.116   2.687
71136SOL     OW15239  13.802   2.234  11.958
71136SOL    HW115240  13.783   2.247  12.051
71136SOL    HW215241  13.818   2.322  11.925
71137SOL     OW15242   4.983   5.476   9.004
71137SOL    HW115243   5.059   5.435   9.045
71137SOL    HW215244   5.019   5.553   8.959
71138SOL     OW15245  12.833   1.711   3.675
71138SOL    HW115246  12.779   1.639   3.707
71138SOL    HW215247  12.858   1.759   3.754
71139SOL     OW15248   8.012   3.087  12.080
71139SOL    HW115249   7.965   3.008  12.055
71139SOL    HW215250   8.018   3.138  11.999
71140SOL     OW15251  10.582   0.332   9.774
71140SOL    HW115252  10.627   0.400   9.824
71140SOL    HW215253  10.641   0.313   9.701
71141SOL     OW15254   9.556  11.800  12.496
71141SOL    HW115255   9.501  11.875  12.475
71141SOL    HW215256   9.524  11.730  12.439
71142SOL     OW15257   2.685  12.330  13.759
71142SOL    HW115258   2.634  12.411  13.746
71142SOL    HW215259   2.745  12.352  13.830
71143SOL     OW15260   5.141   6.619   3.548
71143SOL    HW115261   5.088   6.696   3.564
71143SOL    HW215262   5.172   6.592   3.635
71144SOL     OW15263   7.167  13.444   6.507
71144SOL    HW115264   7.125  13.454   6.422
71144SOL    HW215265   7.242  13.504   6.503
71145SOL     OW15266   1.667  11.183   0.559
71145SOL    HW115267   1.693  11.097   0.591
71145SOL    HW215268   1.622  11.164   0.476
71146SOL     OW15269   2.501  12.230   4.748
71146SOL    HW115270   2.463  12.317   4.763
71146SOL    HW215271   2.431  12.180   4.706
71147SOL     OW15272   5.921  12.071  12.360
71147SOL    HW115273   5.852  12.089  12.424
71147SOL    HW215274   5.946  11.980  12.376
71148SOL     OW15275   8.748  12.740   1.075
71148SOL    HW115276   8.746  12.762   1.168
71148SOL    HW215277   8.677  12.676   1.065
71149SOL     OW15278   9.417  11.055   3.206
71149SOL    HW115279   9.412  10.971   3.160
71149SOL    HW215280   9.332  11.096   3.189
71150SOL     OW15281   0.481  12.977   7.096
71150SOL    HW115282   0.567  12.941   7.113
71150SOL    HW215283   0.421  12.924   7.148
71151SOL     OW15284   0.934   2.104   3.568
71151SOL    HW115285   0.905   2.152   3.491
71151SOL    HW215286   0.937   2.170   3.638
71152SOL     OW15287  10.606   7.663   9.104
71152SOL    HW115288  10.519   7.626   9.089
71152SOL    HW215289  10.592   7.729   9.172
71153SOL     OW15290   3.137  11.863  14.380
71153SOL    HW115291   3.094  11.913  14.449
71153SOL    HW215292   3.129  11.772  14.408
71154SOL     OW15293   1.485  14.294  13.831
71154SOL    HW115294   1.419  14.364  13.837
71154SOL    HW215295   1.536  14.316  13.753
71155SOL     OW15296   5.918   2.261   9.065
71155SOL    HW115297   5.950   2.277   8.976
71155SOL    HW215298   5.993   2.279   9.121
71156SOL     OW15299  14.624   5.120  12.343
71156SOL    HW115300  14.664   5.069  12.273
71156SOL    HW215301  14.593   5.055  12.406
71157SOL     OW15302   3.807   1.695   0.318
71157SOL    HW115303   3.733   1.750   0.345
71157SOL    HW215304   3.871   1.757   0.281
71158SOL     OW15305  12.107   2.175   1.559
71158SOL    HW115306  12.138   2.095   1.601
71158SOL    HW215307  12.015   2.158   1.541
71159SOL     OW15308   3.121  13.479   5.202
71159SOL    HW115309   3.141  13.411   5.267
71159SOL    HW215310   3.069  13.434   5.135
71160SOL     OW15311   2.189  12.651  10.945
71160SOL    HW115312   2.174  12.717  10.877
71160SOL    HW215313   2.187  12.568  10.898
71161SOL     OW15314   5.268  10.458  10.287
71161SOL    HW115315   5.301  10.518  10.354
71161SOL    HW215316   5.215  10.513  10.229
71162SOL     OW15317  14.137   1.071  12.077
71162SOL    HW115318  14.057   1.118  12.054
71162SOL    HW215319  14.204   1.107  12.020
71163SOL     OW15320  12.845   9.625   8.744
71163SOL    HW115321  12.823   9.680   8.819
71163SOL    HW215322  12.763   9.618   8.694
71164SOL     OW15323   0.841   2.838  11.731
71164SOL    HW115324   0.758   2.820  11.687
71164SOL    HW215325   0.871   2.753  11.762
71165SOL     OW15326  11.412   9.385   8.512
71165SOL    HW115327  11.426   9.292   8.527
71165SOL    HW215328  11.457   9.429   8.584
71166SOL     OW15329   9.055  11.396   0.870
71166SOL    HW115330   8.965  11.424   0.883
71166SOL    HW215331   9.081  11.434   0.786
71167SOL     OW15332   2.508  13.834   6.157
71167SOL    HW115333   2.574  13.903   6.162
71167SOL    HW215334   2.454  13.847   6.235
71168SOL     OW15335   8.350  12.544  12.450
71168SOL    HW115336   8.260  12.545  12.420
71168SOL    HW215337   8.354  12.612  12.518
71169SOL     OW15338   8.051  11.805   6.830
71169SOL    HW115339   8.030  11.816   6.737
71169SOL    HW215340   8.120  11.869   6.847
71170SOL     OW15341  14.052  13.042   2.740
71170SOL    HW115342  14.008  13.009   2.819
71170SOL    HW215343  14.145  13.040   2.762
71171SOL     OW15344   9.495   4.228   3.452
71171SOL    HW115345   9.536   4.302   3.498
71171SOL    HW215346   9.419   4.267   3.409
71172SOL     OW15347   5.206  10.607  13.627
71172SOL    HW115348   5.233  10.599  13.718
71172SOL    HW215349   5.220  10.520  13.589
71173SOL     OW15350   0.768   8.516  14.197
71173SOL    HW115351   0.864   8.509  14.196
71173SOL    HW215352   0.738   8.430  14.168
71174SOL     OW15353   9.265   1.016   6.525
71174SOL    HW115354   9.339   1.015   6.585
71174SOL    HW215355   9.205   1.081   6.562
71175SOL     OW15356   9.285   1.956  12.674
71175SOL    HW115357   9.369   2.000  12.682
71175SOL    HW215358   9.225   2.025  12.645
71176SOL     OW15359   8.848  12.284   0.304
71176SOL    HW115360   8.849  12.380   0.305
71176SOL    HW215361   8.803  12.261   0.223
71177SOL     OW15362  10.396   2.765   5.664
71177SOL    HW115363  10.448   2.710   5.724
71177SOL    HW215364  10.456   2.786   5.593
71178SOL     OW15365   7.341   5.508   3.440
71178SOL    HW115366   7.288   5.548   3.509
71178SOL    HW215367   7.315   5.416   3.440
71179SOL     OW15368   9.468   9.698   3.939
71179SOL    HW115369   9.419   9.641   3.998
71179SOL    HW215370   9.478   9.780   3.988
71180SOL     OW15371  13.722  10.072  12.630
71180SOL    HW115372  13.643  10.056  12.579
71180SOL    HW215373  13.723  10.003  12.696
71181SOL     OW15374   0.222   5.550  14.008
71181SOL    HW115375   0.316   5.548  14.026
71181SOL    HW215376   0.185   5.598  14.082
71182SOL     OW15377  11.871   5.712   0.085
71182SOL    HW115378  11.855   5.713  14.872
71182SOL    HW215379  11.882   5.620   0.106
71183SOL     OW15380   4.250  11.592  13.191
71183SOL    HW115381   4.246  11.523  13.125
71183SOL    HW215382   4.331  11.639  13.173
71184SOL     OW15383   6.484  13.472   2.802
71184SOL    HW115384   6.391  13.476   2.780
71184SOL    HW215385   6.500  13.552   2.853
71185SOL     OW15386   1.749   8.499  10.112
71185SOL    HW115387   1.831   8.547  10.123
71185SOL    HW215388   1.763   8.444  10.035
71186SOL     OW15389   2.248   8.746   5.204
71186SOL    HW115390   2.234   8.753   5.109
71186SOL    HW215391   2.164   8.774   5.242
71187SOL     OW15392   4.711   0.577  13.108
71187SOL    HW115393   4.648   0.643  13.079
71187SOL    HW215394   4.660   0.520  13.167
71188SOL     OW15395   2.817   1.324   9.873
71188SOL    HW115396   2.740   1.340   9.928
71188SOL    HW215397   2.781   1.290   9.792
71189SOL     OW15398   3.719   1.040   9.901
71189SOL    HW115399   3.667   1.119   9.887
71189SOL    HW215400   3.669   0.970   9.860
71190SOL     OW15401   5.164  14.182   9.844
71190SOL    HW115402   5.191  14.257   9.896
71190SOL    HW215403   5.117  14.220   9.770
71191SOL     OW15404   8.969   5.511   5.438
71191SOL    HW115405   8.886   5.557   5.446
71191SOL    HW215406   9.016   5.558   5.369
71192SOL     OW15407   7.596   9.380  10.743
71192SOL    HW115408   7.687   9.400  10.763
71192SOL    HW215409   7.578   9.428  10.662
71193SOL     OW15410   9.548   1.504   1.539
71193SOL    HW115411   9.635   1.482   1.505
71193SOL    HW215412   9.510   1.419   1.564
71194SOL     OW15413   3.587   0.110   4.719
71194SOL    HW115414   3.657   0.174   4.705
71194SOL    HW215415   3.510   0.150   4.680
71195SOL     OW15416   9.253   4.304   9.721
71195SOL    HW115417   9.276   4.346   9.638
71195SOL    HW215418   9.337   4.280   9.760
71196SOL     OW15419   9.841   8.094  12.671
71196SOL    HW115420   9.759   8.071  12.714
71196SOL    HW215421   9.841   8.189  12.666
71197SOL     OW15422   2.819   6.789  10.913
71197SOL    HW115423   2.836   6.764  10.822
71197SOL    HW215424   2.738   6.744  10.936
71198SOL     OW15425   2.875  12.676  11.539
71198SOL    HW115426   2.782  12.684  11.561
71198SOL    HW215427   2.887  12.733  11.463
71199SOL     OW15428   6.608   1.035   4.453
71199SOL    HW115429   6.528   0.983   4.441
71199SOL    HW215430   6.581   1.109   4.508
71200SOL     OW15431   6.822   1.303   9.232
71200SOL    HW115432   6.763   1.237   9.196
71200SOL    HW215433   6.766   1.378   9.251
71201SOL     OW15434   5.201   0.151   9.109
71201SOL    HW115435   5.119   0.101   9.105
71201SOL    HW215436   5.251   0.109   9.179
71202SOL     OW15437   0.668   9.376  14.747
71202SOL    HW115438   0.655   9.348  14.838
71202SOL    HW215439   0.703   9.465  14.754
71203SOL     OW15440   6.026   2.872   3.216
71203SOL    HW115441   5.949   2.886   3.271
71203SOL    HW215442   6.025   2.778   3.197
71204SOL     OW15443  13.995   8.974   8.253
71204SOL    HW115444  14.048   8.912   8.203
71204SOL    HW215445  13.912   8.929   8.268
71205SOL     OW15446   4.644   8.069  12.677
71205SOL    HW115447   4.597   8.069  12.593
71205SOL    HW215448   4.645   7.977  12.704
71206SOL     OW15449   9.816   0.556  14.282
71206SOL    HW115450   9.752   0.491  14.308
71206SOL    HW215451   9.769   0.639  14.285
71207SOL     OW15452   6.683   1.381   7.760
71207SOL    HW115453   6.774   1.366   7.785
71207SOL    HW215454   6.668   1.474   7.778
71208SOL     OW15455   1.888   8.544   0.541
71208SOL    HW115456   1.878   8.454   0.510
71208SOL    HW215457   1.968   8.542   0.594
71209SOL     OW15458   1.301  14.367  11.933
71209SOL    HW115459   1.340  14.376  12.020
71209SOL    HW215460   1.358  14.418  11.876
71210SOL     OW15461  11.238   3.632  11.524
71210SOL    HW115462  11.322   3.658  11.562
71210SOL    HW215463  11.218   3.701  11.461
71211SOL     OW15464   0.392  14.406   2.342
71211SOL    HW115465   0.464  14.436   2.288
71211SOL    HW215466   0.434  14.366   2.418
71212SOL     OW15467   5.374   6.054   2.989
71212SOL    HW115468   5.435   6.041   2.916
71212SOL    HW215469   5.425   6.031   3.067
71213SOL     OW15470   0.772  13.421  11.077
71213SOL    HW115471   0.790  13.344  11.022
71213SOL    HW215472   0.846  13.479  11.061
71214SOL     OW15473  11.747  12.507  12.824
71214SOL    HW115474  11.657  12.475  12.819
71214SOL    HW215475  11.759  12.558  12.743
71215SOL     OW15476   9.744   8.698   7.760
71215SOL    HW115477   9.748   8.677   7.853
71215SOL    HW215478   9.650   8.701   7.740
71216SOL     OW15479   2.455   4.525   9.870
71216SOL    HW115480   2.490   4.611   9.892
71216SOL    HW215481   2.362   4.530   9.895
71217SOL     OW15482   5.979  13.879   4.943
71217SOL    HW115483   5.945  13.791   4.959
71217SOL    HW215484   5.917  13.937   4.986
71218SOL     OW15485   3.931   7.359   3.186
71218SOL    HW115486   3.975   7.442   3.198
71218SOL    HW215487   3.881   7.370   3.105
71219SOL     OW15488   0.436   9.599  11.513
71219SOL    HW115489   0.377   9.549  11.570
71219SOL    HW215490   0.380   9.667  11.475
71220SOL     OW15491  13.470   2.065  10.311
71220SOL    HW115492  13.497   2.144  10.357
71220SOL    HW215493  13.415   2.096  10.239
71221SOL     OW15494   9.315  13.499  14.246
71221SOL    HW115495   9.405  13.529  14.236
71221SOL    HW215496   9.268  13.539  14.173
71222SOL     OW15497  11.368   5.967   9.481
71222SOL    HW115498  11.327   5.894   9.528
71222SOL    HW215499  11.294   6.022   9.455
71223SOL     OW15500   4.996   5.173  11.252
71223SOL    HW115501   5.007   5.264  11.225
71223SOL    HW215502   4.906   5.167  11.283
71224SOL     OW15503  11.252   4.274   4.127
71224SOL    HW115504  11.168   4.320   4.116
71224SOL    HW215505  11.292   4.315   4.203
71225SOL     OW15506   5.053   0.341   8.501
71225SOL    HW115507   4.958   0.349   8.491
71225SOL    HW215508   5.085   0.316   8.415
71226SOL     OW15509   8.020   6.653   9.981
71226SOL    HW115510   8.052   6.613   9.900
71226SOL    HW215511   8.084   6.629  10.047
71227SOL     OW15512  13.712  14.813   9.615
71227SOL    HW115513  13.705  14.824   9.520
71227SOL    HW215514  13.622  14.817   9.646
71228SOL     OW15515   6.806   1.610   8.961
71228SOL    HW115516   6.854   1.615   9.044
71228SOL    HW215517   6.874   1.603   8.894
71229SOL     OW15518   7.423   2.225  14.227
71229SOL    HW115519   7.408   2.316  14.201
71229SOL    HW215520   7.494   2.195  14.171
71230SOL     OW15521   2.697   8.831  13.099
71230SOL    HW115522   2.739   8.898  13.045
71230SOL    HW215523   2.604   8.849  13.091
71231SOL     OW15524  13.984  13.496   8.439
71231SOL    HW115525  14.021  13.484   8.526
71231SOL    HW215526  14.035  13.568   8.401
71232SOL     OW15527  12.726   9.782  11.092
71232SOL    HW115528  12.654   9.746  11.142
71232SOL    HW215529  12.775   9.706  11.061
71233SOL     OW15530  12.656   5.930   6.921
71233SOL    HW115531  12.716   5.996   6.886
71233SOL    HW215532  12.696   5.846   6.901
71234SOL     OW15533   6.134  13.184  11.510
71234SOL    HW115534   6.087  13.117  11.460
71234SOL    HW215535   6.226  13.159  11.503
71235SOL     OW15536   7.524   2.169  10.482
71235SOL    HW115537   7.608   2.123  10.476
71235SOL    HW215538   7.537   2.250  10.434
71236SOL     OW15539   9.629   6.353  14.735
71236SOL    HW115540   9.538   6.329  14.721
71236SOL    HW215541   9.636   6.369  14.829
71237SOL     OW15542   2.528  10.419   1.812
71237SOL    HW115543   2.472  10.485   1.772
71237SOL    HW215544   2.476  10.387   1.887
71238SOL     OW15545   2.483   2.765   1.855
71238SOL    HW115546   2.519   2.731   1.773
71238SOL    HW215547   2.393   2.790   1.833
71239SOL     OW15548   4.664  10.588   1.052
71239SOL    HW115549   4.728  10.527   1.014
71239SOL    HW215550   4.587  10.580   0.995
71240SOL     OW15551  11.584  12.183  10.948
71240SOL    HW115552  11.578  12.088  10.961
71240SOL    HW215553  11.665  12.196  10.899
71241SOL     OW15554  10.256   0.149   0.121
71241SOL    HW115555  10.309   0.218   0.081
71241SOL    HW215556  10.167   0.167   0.091
71242SOL     OW15557  14.310   8.158   5.885
71242SOL    HW115558  14.303   8.220   5.958
71242SOL    HW215559  14.357   8.083   5.922
71243SOL     OW15560   0.537   3.144   6.507
71243SOL    HW115561   0.527   3.233   6.539
71243SOL    HW215562   0.629   3.138   6.480
71244SOL     OW15563   4.310   9.383   8.766
71244SOL    HW115564   4.399   9.416   8.779
71244SOL    HW215565   4.302   9.373   8.671
71245SOL     OW15566  10.191   4.139   4.999
71245SOL    HW115567  10.131   4.173   5.066
71245SOL    HW215568  10.208   4.215   4.942
71246SOL     OW15569   4.304   4.376   6.063
71246SOL    HW115570   4.294   4.282   6.048
71246SOL    HW215571   4.224   4.415   6.026
71247SOL     OW15572   4.304   6.329   4.787
71247SOL    HW115573   4.353   6.248   4.807
71247SOL    HW215574   4.371   6.390   4.755
71248SOL     OW15575  12.276  14.380   2.236
71248SOL    HW115576  12.328  14.455   2.207
71248SOL    HW215577  12.239  14.407   2.320
71249SOL     OW15578   0.144   9.527  11.115
71249SOL    HW115579   0.067   9.530  11.058
71249SOL    HW215580   0.113   9.485  11.195
71250SOL     OW15581   1.673  13.536   8.228
71250SOL    HW115582   1.663  13.631   8.238
71250SOL    HW215583   1.658  13.501   8.315
71251SOL     OW15584  10.788   7.790  12.042
71251SOL    HW115585  10.754   7.824  11.959
71251SOL    HW215586  10.820   7.702  12.021
71252SOL     OW15587   7.420  12.067   1.180
71252SOL    HW115588   7.344  12.025   1.220
71252SOL    HW215589   7.449  12.005   1.113
71253SOL     OW15590  14.191   3.894   1.373
71253SOL    HW115591  14.174   3.988   1.371
71253SOL    HW215592  14.189   3.871   1.466
71254SOL     OW15593  10.109   1.837  12.488
71254SOL    HW115594  10.136   1.825  12.397
71254SOL    HW215595  10.190   1.834  12.538
71255SOL     OW15596   2.305   0.031   5.145
71255SOL    HW115597   2.210   0.035   5.140
71255SOL    HW215598   2.335   0.084   5.071
71256SOL     OW15599  13.276   7.993   4.555
71256SOL    HW115600  13.269   8.053   4.481
71256SOL    HW215601  13.189   7.991   4.594
71257SOL     OW15602   9.651   0.002  11.772
71257SOL    HW115603   9.672  14.872  11.865
71257SOL    HW215604   9.649   0.097  11.760
71258SOL     OW15605   5.148  11.679  11.820
71258SOL    HW115606   5.157  11.764  11.777
71258SOL    HW215607   5.070  11.641  11.781
71259SOL     OW15608   6.210   9.183   4.698
71259SOL    HW115609   6.304   9.182   4.682
71259SOL    HW215610   6.201   9.150   4.788
71260SOL     OW15611   2.257   9.778  13.846
71260SOL    HW115612   2.301   9.861  13.826
71260SOL    HW215613   2.164   9.796  13.831
71261SOL     OW15614   8.191   9.325   8.974
71261SOL    HW115615   8.228   9.307   8.887
71261SOL    HW215616   8.196   9.420   8.983
71262SOL     OW15617   7.303   0.553  11.683
71262SOL    HW115618   7.231   0.550  11.746
71262SOL    HW215619   7.260   0.546  11.597
71263SOL     OW15620   7.427   7.756  14.191
71263SOL    HW115621   7.436   7.661  14.190
71263SOL    HW215622   7.336   7.772  14.217
71264SOL     OW15623   3.824   1.611   8.345
71264SOL    HW115624   3.763   1.543   8.372
71264SOL    HW215625   3.911   1.577   8.368
71265SOL     OW15626   8.629  11.374   3.805
71265SOL    HW115627   8.655  11.306   3.867
71265SOL    HW215628   8.650  11.456   3.849
71266SOL     OW15629  10.397   2.222   1.408
71266SOL    HW115630  10.313   2.202   1.368
71266SOL    HW215631  10.426   2.303   1.365
71267SOL     OW15632   0.192   0.561   7.902
71267SOL    HW115633   0.184   0.655   7.885
71267SOL    HW215634   0.284   0.540   7.882
71268SOL     OW15635   6.052   9.307   9.324
71268SOL    HW115636   6.114   9.291   9.253
71268SOL    HW215637   5.972   9.262   9.296
71269SOL     OW15638   8.234   6.789   6.458
71269SOL    HW115639   8.283   6.858   6.502
71269SOL    HW215640   8.291   6.712   6.465
71270SOL     OW15641  13.251   8.144   8.962
71270SOL    HW115642  13.279   8.233   8.945
71270SOL    HW215643  13.276   8.128   9.053
71271SOL     OW15644   0.174  12.544   8.330
71271SOL    HW115645   0.118  12.468   8.316
71271SOL    HW215646   0.263  12.509   8.331
71272SOL     OW15647   7.091   1.108   7.113
71272SOL    HW115648   7.105   1.020   7.147
71272SOL    HW215649   7.034   1.151   7.177
71273SOL     OW15650  13.950   2.355   9.198
71273SOL    HW115651  13.953   2.273   9.150
71273SOL    HW215652  13.951   2.329   9.290
71274SOL     OW15653  13.369  14.748   1.224
71274SOL    HW115654  13.448  14.800   1.209
71274SOL    HW215655  13.318  14.760   1.144
71275SOL     OW15656   3.534  13.463   0.602
71275SOL    HW115657   3.626  13.434   0.602
71275SOL    HW215658   3.540  13.559   0.610
71276SOL     OW15659  12.186  11.515   9.726
71276SOL    HW115660  12.268  11.559   9.750
71276SOL    HW215661  12.173  11.450   9.795
71277SOL     OW15662  12.859  14.877   3.850
71277SOL    HW115663  12.893   0.070   3.899
71277SOL    HW215664  12.777   0.026   3.813
71278SOL     OW15665   3.736  12.551   7.628
71278SOL    HW115666   3.813  12.522   7.578
71278SOL    HW215667   3.738  12.496   7.707
71279SOL     OW15668   0.761  12.471   5.840
71279SOL    HW115669   0.817  12.507   5.771
71279SOL    HW215670   0.816  12.468   5.918
71280SOL     OW15671  10.109   2.492   0.633
71280SOL    HW115672  10.115   2.585   0.658
71280SOL    HW215673  10.021   2.465   0.663
71281SOL     OW15674  10.823  13.875   9.072
71281SOL    HW115675  10.900  13.871   9.130
71281SOL    HW215676  10.763  13.935   9.116
71282SOL     OW15677   3.733   7.491   8.186
71282SOL    HW115678   3.804   7.547   8.216
71282SOL    HW215679   3.766   7.450   8.105
71283SOL     OW15680   8.756   4.247   7.336
71283SOL    HW115681   8.841   4.284   7.313
71283SOL    HW215682   8.709   4.320   7.378
71284SOL     OW15683   8.063  10.536   1.114
71284SOL    HW115684   7.999  10.526   1.043
71284SOL    HW215685   8.121  10.606   1.084
71285SOL     OW15686   6.206   1.483   0.963
71285SOL    HW115687   6.258   1.536   0.902
71285SOL    HW215688   6.196   1.538   1.040
71286SOL     OW15689   8.919   0.791   0.449
71286SOL    HW115690   8.885   0.715   0.496
71286SOL    HW215691   8.971   0.838   0.514
71287SOL     OW15692  12.937  11.494  10.918
71287SOL    HW115693  12.998  11.435  10.873
71287SOL    HW215694  12.973  11.502  11.007
71288SOL     OW15695   8.725   6.589   0.950
71288SOL    HW115696   8.682   6.507   0.974
71288SOL    HW215697   8.666   6.629   0.885
71289SOL     OW15698   2.381   6.680  11.983
71289SOL    HW115699   2.430   6.655  12.062
71289SOL    HW215700   2.299   6.633  11.990
71290SOL     OW15701   2.991  12.429  10.442
71290SOL    HW115702   3.083  12.413  10.462
71290SOL    HW215703   2.970  12.511  10.486
71291SOL     OW15704   6.879  13.593   0.102
71291SOL    HW115705   6.846  13.512   0.141
71291SOL    HW215706   6.832  13.663   0.149
71292SOL     OW15707  10.725   9.984   9.797
71292SOL    HW115708  10.794   9.927   9.832
71292SOL    HW215709  10.765  10.071   9.793
71293SOL     OW15710   5.189   3.092   6.800
71293SOL    HW115711   5.135   3.023   6.838
71293SOL    HW215712   5.236   3.130   6.874
71294SOL     OW15713   7.214   9.177   1.320
71294SOL    HW115714   7.128   9.157   1.282
71294SOL    HW215715   7.277   9.145   1.254
71295SOL     OW15716   5.080  12.625  10.575
71295SOL    HW115717   5.011  12.691  10.581
71295SOL    HW215718   5.142  12.650  10.643
71296SOL     OW15719   9.089  12.142   7.431
71296SOL    HW115720   9.007  12.138   7.479
71296SOL    HW215721   9.135  12.217   7.467
71297SOL     OW15722   4.292   1.056  10.483
71297SOL    HW115723   4.347   1.129  10.455
71297SOL    HW215724   4.349   0.980  10.480
71298SOL     OW15725   0.528   0.336   5.952
71298SOL    HW115726   0.609   0.327   5.902
71298SOL    HW215727   0.505   0.429   5.943
71299SOL     OW15728   9.536   8.286   8.577
71299SOL    HW115729   9.616   8.265   8.528
71299SOL    HW215730   9.465   8.259   8.519
71300SOL     OW15731   9.064   1.965  13.492
71300SOL    HW115732   9.146   1.996  13.531
71300SOL    HW215733   9.063   1.871  13.508
71301SOL     OW15734   3.178  10.754   2.786
71301SOL    HW115735   3.173  10.662   2.809
71301SOL    HW215736   3.244  10.758   2.717
71302SOL     OW15737   7.450   9.475   3.506
71302SOL    HW115738   7.416   9.564   3.517
71302SOL    HW215739   7.407   9.424   3.575
71303SOL     OW15740   0.269   9.855  11.269
71303SOL    HW115741   0.196   9.875  11.210
71303SOL    HW215742   0.226   9.819  11.347
71304SOL     OW15743   0.447   3.041   0.338
71304SOL    HW115744   0.520   3.097   0.313
71304SOL    HW215745   0.456   3.032   0.433
71305SOL     OW15746  10.403   9.389   1.606
71305SOL    HW115747  10.392   9.421   1.695
71305SOL    HW215748  10.339   9.438   1.554
71306SOL     OW15749  13.529  13.775   7.601
71306SOL    HW115750  13.533  13.727   7.518
71306SOL    HW215751  13.587  13.850   7.588
71307SOL     OW15752  10.721   1.792   8.879
71307SOL    HW115753  10.700   1.816   8.969
71307SOL    HW215754  10.658   1.724   8.857
71308SOL     OW15755   2.705   0.010  13.690
71308SOL    HW115756   2.702  14.847  13.606
71308SOL    HW215757   2.771   0.078  13.678
71309SOL     OW15758   2.964  13.944   7.509
71309SOL    HW115759   3.036  13.955   7.447
71309SOL    HW215760   3.007  13.937   7.594
71310SOL     OW15761  11.322   5.687   0.960
71310SOL    HW115762  11.309   5.688   1.055
71310SOL    HW215763  11.417   5.694   0.949
71311SOL     OW15764  13.905  10.898   9.400
71311SOL    HW115765  13.913  10.843   9.478
71311SOL    HW215766  13.811  10.901   9.383
71312SOL     OW15767   4.122   7.480   2.899
71312SOL    HW115768   4.082   7.555   2.942
71312SOL    HW215769   4.050   7.435   2.855
71313SOL     OW15770  10.416   4.021   9.363
71313SOL    HW115771  10.395   4.021   9.270
71313SOL    HW215772  10.364   3.950   9.400
71314SOL     OW15773   2.808   0.935   0.112
71314SOL    HW115774   2.838   1.025   0.100
71314SOL    HW215775   2.867   0.883   0.059
71315SOL     OW15776   3.981   4.315  12.787
71315SOL    HW115777   4.076   4.317  12.799
71315SOL    HW215778   3.968   4.277  12.700
71316SOL     OW15779  13.648  11.297   7.367
71316SOL    HW115780  13.583  11.298   7.438
71316SOL    HW215781  13.688  11.384   7.371
71317SOL     OW15782  13.118  11.882  10.892
71317SOL    HW115783  13.046  11.850  10.947
71317SOL    HW215784  13.076  11.906  10.809
71318SOL     OW15785   3.338   2.916   9.781
71318SOL    HW115786   3.391   2.980   9.735
71318SOL    HW215787   3.294   2.965   9.851
71319SOL     OW15788   0.571   1.347   5.150
71319SOL    HW115789   0.501   1.339   5.085
71319SOL    HW215790   0.649   1.316   5.105
71320SOL     OW15791   1.281   7.953   9.154
71320SOL    HW115792   1.278   8.039   9.197
71320SOL    HW215793   1.232   7.896   9.212
71321SOL     OW15794   3.710   4.280  13.513
71321SOL    HW115795   3.720   4.219  13.587
71321SOL    HW215796   3.619   4.271  13.486
71322SOL     OW15797   0.418   4.779   8.984
71322SOL    HW115798   0.438   4.716   8.914
71322SOL    HW215799   0.427   4.864   8.942
71323SOL     OW15800  10.036  13.285   9.392
71323SOL    HW115801  10.002  13.296   9.303
71323SOL    HW215802  10.098  13.212   9.385
71324SOL     OW15803   0.982  11.013   3.324
71324SOL    HW115804   0.903  11.033   3.274
71324SOL    HW215805   0.963  10.931   3.369
71325SOL     OW15806   4.608   0.879  12.808
71325SOL    HW115807   4.650   0.897  12.724
71325SOL    HW215808   4.591   0.965  12.845
71326SOL     OW15809   1.109   8.001  13.379
71326SOL    HW115810   1.074   7.925  13.425
71326SOL    HW215811   1.054   8.010  13.301
71327SOL     OW15812  11.552  13.188   1.301
71327SOL    HW115813  11.558  13.236   1.384
71327SOL    HW215814  11.461  13.198   1.274
71328SOL     OW15815  13.326  13.436   6.599
71328SOL    HW115816  13.313  13.391   6.515
71328SOL    HW215817  13.251  13.495   6.606
71329SOL     OW15818   4.998   0.175  10.263
71329SOL    HW115819   5.053   0.110  10.306
71329SOL    HW215820   4.957   0.223  10.335
71330SOL     OW15821   7.632   9.175   3.622
71330SOL    HW115822   7.662   9.241   3.559
71330SOL    HW215823   7.695   9.103   3.611
71331SOL     OW15824   6.621  10.099  12.425
71331SOL    HW115825   6.597  10.030  12.486
71331SOL    HW215826   6.560  10.171  12.445
71332SOL     OW15827   8.552  10.854   9.077
71332SOL    HW115828   8.495  10.929   9.091
71332SOL    HW215829   8.498  10.791   9.029
71333SOL     OW15830  14.787   7.566   1.744
71333SOL    HW115831  14.691   7.564   1.742
71333SOL    HW215832  14.808   7.658   1.760
71334SOL     OW15833   8.171   2.631   4.880
71334SOL    HW115834   8.210   2.718   4.871
71334SOL    HW215835   8.079   2.643   4.855
71335SOL     OW15836   9.489   9.140  14.486
71335SOL    HW115837   9.555   9.199  14.451
71335SOL    HW215838   9.411   9.194  14.497
71336SOL     OW15839  13.001   0.934  12.909
71336SOL    HW115840  13.075   0.930  12.849
71336SOL    HW215841  12.925   0.950  12.852
71337SOL     OW15842  12.176  14.597   0.231
71337SOL    HW115843  12.101  14.654   0.247
71337SOL    HW215844  12.204  14.618   0.142
71338SOL     OW15845   5.864   9.762   1.215
71338SOL    HW115846   5.877   9.670   1.190
71338SOL    HW215847   5.785   9.788   1.168
71339SOL     OW15848   3.349   3.004  10.648
71339SOL    HW115849   3.323   3.020  10.739
71339SOL    HW215850   3.312   2.917  10.628
71340SOL     OW15851  13.211   5.501   9.871
71340SOL    HW115852  13.220   5.531   9.962
71340SOL    HW215853  13.248   5.413   9.871
71341SOL     OW15854   6.389   8.603  12.346
71341SOL    HW115855   6.430   8.516  12.338
71341SOL    HW215856   6.361   8.608  12.437
71342SOL     OW15857   1.292   9.883   5.181
71342SOL    HW115858   1.349   9.845   5.248
71342SOL    HW215859   1.243   9.951   5.227
71343SOL     OW15860   7.750   1.172   8.134
71343SOL    HW115861   7.722   1.159   8.043
71343SOL    HW215862   7.739   1.265   8.149
71344SOL     OW15863   2.268   9.655   8.833
71344SOL    HW115864   2.363   9.647   8.840
71344SOL    HW215865   2.239   9.673   8.923
71345SOL     OW15866   2.046  10.811  12.200
71345SOL    HW115867   1.995  10.849  12.128
71345SOL    HW215868   2.136  10.809  12.167
71346SOL     OW15869  13.091  14.879   2.984
71346SOL    HW115870  13.060   0.060   3.050
71346SOL    HW215871  13.123  14.805   3.036
71347SOL     OW15872  10.689   6.434   5.351
71347SOL    HW115873  10.688   6.515   5.299
71347SOL    HW215874  10.603   6.431   5.392
71348SOL     OW15875  11.908  12.035   2.288
71348SOL    HW115876  11.962  12.071   2.359
71348SOL    HW215877  11.970  12.017   2.218
71349SOL     OW15878   0.652  14.627  11.013
71349SOL    HW115879   0.595  14.557  11.043
71349SOL    HW215880   0.730  14.620  11.068
71350SOL     OW15881   2.077   4.879   8.125
71350SOL    HW115882   2.122   4.797   8.104
71350SOL    HW215883   2.024   4.858   8.202
71351SOL     OW15884   3.219   7.960   9.012
71351SOL    HW115885   3.164   8.039   9.009
71351SOL    HW215886   3.270   7.963   8.931
71352SOL     OW15887  12.450   5.642  10.308
71352SOL    HW115888  12.393   5.679  10.240
71352SOL    HW215889  12.436   5.698  10.384
71353SOL     OW15890   4.912  12.480   0.472
71353SOL    HW115891   4.865  12.466   0.554
71353SOL    HW215892   4.863  12.549   0.428
71354SOL     OW15893   0.370  12.702   3.024
71354SOL    HW115894   0.361  12.763   3.098
71354SOL    HW215895   0.312  12.629   3.047
71355SOL     OW15896   1.296   5.337  14.159
71355SOL    HW115897   1.225   5.307  14.216
71355SOL    HW215898   1.267   5.423  14.129
71356SOL     OW15899  10.568   0.682   2.017
71356SOL    HW115900  10.611   0.755   1.973
71356SOL    HW215901  10.637   0.618   2.032
71357SOL     OW15902   7.270  13.211   8.361
71357SOL    HW115903   7.299  13.171   8.443
71357SOL    HW215904   7.227  13.140   8.314
71358SOL     OW15905   4.069  12.576   0.108
71358SOL    HW115906   4.013  12.594   0.184
71358SOL    HW215907   4.011  12.535   0.045
71359SOL     OW15908   2.429   6.276   6.387
71359SOL    HW115909   2.518   6.310   6.384
71359SOL    HW215910   2.407   6.277   6.480
71360SOL     OW15911   3.631  11.884   2.785
71360SOL    HW115912   3.659  11.880   2.694
71360SOL    HW215913   3.582  11.804   2.799
71361SOL     OW15914  13.906   5.278   9.866
71361SOL    HW115915  13.865   5.201   9.904
71361SOL    HW215916  13.878   5.278   9.775
71362SOL     OW15917  13.567  10.913  14.468
71362SOL    HW115918  13.620  10.838  14.442
71362SOL    HW215919  13.587  10.980  14.403
71363SOL     OW15920   8.346  10.451   8.974
71363SOL    HW115921   8.421  10.438   8.916
71363SOL    HW215922   8.271  10.458   8.916
71364SOL     OW15923   7.578   0.073   1.558
71364SOL    HW115924   7.575   0.026   1.475
71364SOL    HW215925   7.541   0.012   1.622
71365SOL     OW15926   1.975   9.880  13.811
71365SOL    HW115927   1.972   9.956  13.869
71365SOL    HW215928   1.915   9.817  13.851
71366SOL     OW15929  13.863   2.852   1.393
71366SOL    HW115930  13.896   2.921   1.450
71366SOL    HW215931  13.929   2.843   1.325
71367SOL     OW15932  13.190  10.348   4.209
71367SOL    HW115933  13.145  10.401   4.275
71367SOL    HW215934  13.233  10.412   4.153
71368SOL     OW15935  13.560   0.492  10.943
71368SOL    HW115936  13.649   0.523  10.925
71368SOL    HW215937  13.572   0.407  10.986
71369SOL     OW15938   4.816   3.340   9.766
71369SOL    HW115939   4.763   3.345   9.686
71369SOL    HW215940   4.872   3.263   9.753
71370SOL     OW15941   8.018   3.597   5.615
71370SOL    HW115942   7.988   3.687   5.627
71370SOL    HW215943   8.038   3.591   5.522
71371SOL     OW15944   7.497  12.231   9.853
71371SOL    HW115945   7.419  12.258   9.804
71371SOL    HW215946   7.502  12.293   9.926
71372SOL     OW15947  14.056  12.178  14.801
71372SOL    HW115948  14.127  12.218  14.851
71372SOL    HW215949  14.035  12.098  14.849
71373SOL     OW15950  12.915  11.932   2.019
71373SOL    HW115951  12.929  11.979   1.937
71373SOL    HW215952  12.952  11.845   2.003
71374SOL     OW15953   9.988  14.688  11.024
71374SOL    HW115954   9.954  14.600  11.041
71374SOL    HW215955   9.912  14.739  10.997
71375SOL     OW15956   6.119   7.711   0.350
71375SOL    HW115957   6.125   7.798   0.310
71375SOL    HW215958   6.059   7.662   0.293
71376SOL     OW15959  13.395   3.876  13.477
71376SOL    HW115960  13.460   3.848  13.542
71376SOL    HW215961  13.418   3.967  13.458
71377SOL     OW15962  12.315   7.829   8.635
71377SOL    HW115963  12.307   7.865   8.723
71377SOL    HW215964  12.406   7.845   8.611
71378SOL     OW15965   4.664  14.860   7.647
71378SOL    HW115966   4.601   0.014   7.709
71378SOL    HW215967   4.739  14.835   7.700
71379SOL     OW15968  10.761   6.298  14.670
71379SOL    HW115969  10.719   6.227  14.719
71379SOL    HW215970  10.761   6.267  14.579
71380SOL     OW15971   3.325  13.647   4.325
71380SOL    HW115972   3.277  13.702   4.386
71380SOL    HW215973   3.307  13.557   4.355
71381SOL     OW15974   9.704   4.143  14.480
71381SOL    HW115975   9.757   4.063  14.477
71381SOL    HW215976   9.614   4.112  14.479
71382SOL     OW15977   6.618   4.508   8.919
71382SOL    HW115978   6.568   4.464   8.849
71382SOL    HW215979   6.705   4.469   8.914
71383SOL     OW15980   1.598  10.551   1.572
71383SOL    HW115981   1.561  10.575   1.658
71383SOL    HW215982   1.668  10.615   1.559
71384SOL     OW15983  14.223  12.120  10.885
71384SOL    HW115984  14.312  12.126  10.919
71384SOL    HW215985  14.228  12.159  10.797
71385SOL     OW15986   2.175   5.693   6.899
71385SOL    HW115987   2.083   5.720   6.895
71385SOL    HW215988   2.220   5.768   6.936
71386SOL     OW15989   2.584   4.667   2.862
71386SOL    HW115990   2.506   4.696   2.910
71386SOL    HW215991   2.597   4.577   2.891
71387SOL     OW15992   7.706  13.487  12.150
71387SOL    HW115993   7.785  13.476  12.203
71387SOL    HW215994   7.719  13.430  12.074
71388SOL     OW15995   3.200   7.361   0.405
71388SOL    HW115996   3.271   7.339   0.345
71388SOL    HW215997   3.238   7.348   0.492
71389SOL     OW15998   5.877   7.294  11.090
71389SOL    HW115999   5.906   7.271  11.002
71389SOL    HW216000   5.950   7.345  11.126
71390SOL     OW16001   1.301  14.321  12.340
71390SOL    HW116002   1.382  14.328  12.290
71390SOL    HW216003   1.257  14.405  12.327
71391SOL     OW16004  12.344  13.449  14.090
71391SOL    HW116005  12.348  13.379  14.155
71391SOL    HW216006  12.323  13.403  14.008
71392SOL     OW16007   4.353  13.729   5.760
71392SOL    HW116008   4.295  13.733   5.683
71392SOL    HW216009   4.439  13.710   5.724
71393SOL     OW16010   9.858   9.521   9.774
71393SOL    HW116011   9.855   9.596   9.833
71393SOL    HW216012   9.832   9.556   9.689
71394SOL     OW16013   5.644   4.882   9.026
71394SOL    HW116014   5.554   4.892   8.995
71394SOL    HW216015   5.694   4.857   8.948
71395SOL     OW16016  10.418   5.089  11.857
71395SOL    HW116017  10.411   5.140  11.937
71395SOL    HW216018  10.491   5.029  11.873
71396SOL     OW16019  12.573   3.137  13.334
71396SOL    HW116020  12.530   3.080  13.270
71396SOL    HW216021  12.654   3.164  13.292
71397SOL     OW16022  14.473  13.189  10.881
71397SOL    HW116023  14.530  13.116  10.905
71397SOL    HW216024  14.450  13.173  10.790
71398SOL     OW16025   7.097   7.183   0.878
71398SOL    HW116026   7.119   7.187   0.784
71398SOL    HW216027   7.157   7.118   0.914
71399SOL     OW16028  11.447   3.119   2.453
71399SOL    HW116029  11.431   3.031   2.488
71399SOL    HW216030  11.540   3.135   2.470
71400SOL     OW16031   4.622  11.038  11.140
71400SOL    HW116032   4.622  11.079  11.053
71400SOL    HW216033   4.569  10.959  11.129
71401SOL     OW16034   0.206  10.737   7.345
71401SOL    HW116035   0.183  10.789   7.267
71401SOL    HW216036   0.175  10.649   7.324
71402SOL     OW16037   5.571   6.180   6.830
71402SOL    HW116038   5.516   6.191   6.753
71402SOL    HW216039   5.654   6.220   6.806
71403SOL     OW16040   8.329   8.939  11.383
71403SOL    HW116041   8.419   8.917  11.357
71403SOL    HW216042   8.289   8.972  11.303
71404SOL     OW16043  12.336   2.180   5.352
71404SOL    HW116044  12.266   2.221   5.403
71404SOL    HW216045  12.336   2.088   5.381
71405SOL     OW16046   4.115   5.256   5.285
71405SOL    HW116047   4.098   5.347   5.310
71405SOL    HW216048   4.040   5.208   5.319
71406SOL     OW16049   4.674  10.096   6.241
71406SOL    HW116050   4.742  10.085   6.174
71406SOL    HW216051   4.668  10.011   6.285
71407SOL     OW16052   1.793  11.979   1.635
71407SOL    HW116053   1.716  12.030   1.660
71407SOL    HW216054   1.779  11.894   1.677
71408SOL     OW16055   7.876   6.883   7.222
71408SOL    HW116056   7.918   6.926   7.147
71408SOL    HW216057   7.804   6.941   7.247
71409SOL     OW16058   5.730  13.357   5.391
71409SOL    HW116059   5.692  13.405   5.464
71409SOL    HW216060   5.740  13.423   5.322
71410SOL     OW16061   7.292  10.037   6.224
71410SOL    HW116062   7.235   9.983   6.281
71410SOL    HW216063   7.375   9.990   6.223
71411SOL     OW16064   4.638  11.222   6.444
71411SOL    HW116065   4.729  11.196   6.428
71411SOL    HW216066   4.604  11.154   6.502
71412SOL     OW16067   3.447   4.853  11.378
71412SOL    HW116068   3.516   4.917  11.357
71412SOL    HW216069   3.476   4.772  11.336
71413SOL     OW16070   0.139  11.468   0.717
71413SOL    HW116071   0.098  11.382   0.707
71413SOL    HW216072   0.071  11.530   0.692
71414SOL     OW16073  13.824   7.194   6.465
71414SOL    HW116074  13.804   7.178   6.557
71414SOL    HW216075  13.881   7.271   6.465
71415SOL     OW16076   5.731   3.324   6.849
71415SOL    HW116077   5.742   3.418   6.859
71415SOL    HW216078   5.762   3.287   6.931
71416SOL     OW16079   1.542   4.762   7.196
71416SOL    HW116080   1.596   4.715   7.133
71416SOL    HW216081   1.549   4.854   7.170
71417SOL     OW16082   3.351   4.057  12.975
71417SOL    HW116083   3.378   4.130  13.031
71417SOL    HW216084   3.405   4.064  12.897
71418SOL     OW16085   4.126   2.059  12.188
71418SOL    HW116086   4.221   2.058  12.184
71418SOL    HW216087   4.097   2.011  12.111
71419SOL     OW16088   3.169   2.731   1.183
71419SOL    HW116089   3.075   2.744   1.173
71419SOL    HW216090   3.183   2.640   1.155
71420SOL     OW16091   3.127  12.812  10.573
71420SOL    HW116092   3.043  12.767  10.563
71420SOL    HW216093   3.157  12.788  10.660
71421SOL     OW16094  14.030   8.767   2.906
71421SOL    HW116095  14.085   8.792   2.832
71421SOL    HW216096  13.944   8.749   2.868
71422SOL     OW16097  11.399  13.162   6.824
71422SOL    HW116098  11.449  13.148   6.905
71422SOL    HW216099  11.339  13.234   6.846
71423SOL     OW16100   5.360   0.036   3.724
71423SOL    HW116101   5.381  14.827   3.702
71423SOL    HW216102   5.349   0.079   3.639
71424SOL     OW16103  13.116   0.889  14.226
71424SOL    HW116104  13.183   0.885  14.157
71424SOL    HW216105  13.050   0.949  14.191
71425SOL     OW16106  11.739  12.834  10.186
71425SOL    HW116107  11.730  12.740  10.202
71425SOL    HW216108  11.826  12.843  10.146
71426SOL     OW16109   7.568   3.542   2.438
71426SOL    HW116110   7.600   3.477   2.376
71426SOL    HW216111   7.492   3.500   2.479
71427SOL     OW16112   2.893   2.296   1.961
71427SOL    HW116113   2.980   2.329   1.938
71427SOL    HW216114   2.863   2.352   2.032
71428SOL     OW16115  13.804   4.071  13.511
71428SOL    HW116116  13.717   4.110  13.502
71428SOL    HW216117  13.824   4.036  13.424
71429SOL     OW16118   7.730   9.353  14.001
71429SOL    HW116119   7.812   9.360  14.051
71429SOL    HW216120   7.667   9.404  14.052
71430SOL     OW16121   2.577  11.341  10.142
71430SOL    HW116122   2.611  11.320  10.055
71430SOL    HW216123   2.543  11.258  10.175
71431SOL     OW16124  13.433  13.643   8.897
71431SOL    HW116125  13.487  13.686   8.831
71431SOL    HW216126  13.419  13.710   8.964
71432SOL     OW16127   5.736  12.067   0.172
71432SOL    HW116128   5.750  12.068   0.077
71432SOL    HW216129   5.710  11.977   0.191
71433SOL     OW16130   8.788   2.638   2.251
71433SOL    HW116131   8.858   2.692   2.287
71433SOL    HW216132   8.795   2.554   2.297
71434SOL     OW16133   1.127  12.358  12.755
71434SOL    HW116134   1.051  12.414  12.739
71434SOL    HW216135   1.151  12.324  12.669
71435SOL     OW16136   3.982   9.934   9.846
71435SOL    HW116137   4.072   9.957   9.826
71435SOL    HW216138   3.935   9.944   9.763
71436SOL     OW16139  11.083   0.426   5.712
71436SOL    HW116140  11.149   0.449   5.778
71436SOL    HW216141  11.132   0.416   5.631
71437SOL     OW16142   8.850  12.903   7.507
71437SOL    HW116143   8.941  12.921   7.481
71437SOL    HW216144   8.851  12.812   7.535
71438SOL     OW16145  12.598  14.621   9.329
71438SOL    HW116146  12.652  14.546   9.307
71438SOL    HW216147  12.511  14.598   9.297
71439SOL     OW16148  12.115  10.832   8.164
71439SOL    HW116149  12.206  10.848   8.137
71439SOL    HW216150  12.118  10.835   8.259
71440SOL     OW16151   8.799   9.411   4.071
71440SOL    HW116152   8.872   9.398   4.011
71440SOL    HW216153   8.771   9.322   4.094
71441SOL     OW16154   0.766   3.107  11.739
71441SOL    HW116155   0.806   3.033  11.692
71441SOL    HW216156   0.749   3.172  11.672
71442SOL     OW16157  14.205   0.276   7.780
71442SOL    HW116158  14.264   0.316   7.716
71442SOL    HW216159  14.122   0.265   7.732
71443SOL     OW16160   1.960  10.001   2.441
71443SOL    HW116161   1.931  10.072   2.383
71443SOL    HW216162   1.899   9.930   2.424
71444SOL     OW16163  11.989   0.391   1.236
71444SOL    HW116164  12.048   0.465   1.246
71444SOL    HW216165  12.033   0.332   1.175
71445SOL     OW16166  13.570  11.776   9.794
71445SOL    HW116167  13.551  11.696   9.843
71445SOL    HW216168  13.632  11.824   9.848
71446SOL     OW16169  14.447   1.459   6.114
71446SOL    HW116170  14.456   1.432   6.205
71446SOL    HW216171  14.355   1.484   6.105
71447SOL     OW16172   1.723  12.046  10.262
71447SOL    HW116173   1.673  12.035  10.181
71447SOL    HW216174   1.686  11.981  10.322
71448SOL     OW16175   5.022   0.194   3.271
71448SOL    HW116176   5.053   0.211   3.360
71448SOL    HW216177   5.046   0.273   3.222
71449SOL     OW16178   4.808   6.888   6.696
71449SOL    HW116179   4.789   6.800   6.663
71449SOL    HW216180   4.724   6.933   6.692
71450SOL     OW16181  14.850   0.110   2.639
71450SOL    HW116182  14.878   0.099   2.730
71450SOL    HW216183   0.048   0.102   2.587
71451SOL     OW16184   5.056   3.237   7.774
71451SOL    HW116185   5.089   3.160   7.728
71451SOL    HW216186   5.097   3.233   7.861
71452SOL     OW16187   6.044   3.670   9.060
71452SOL    HW116188   6.001   3.756   9.062
71452SOL    HW216189   6.115   3.681   8.996
71453SOL     OW16190  12.774  12.943  10.326
71453SOL    HW116191  12.764  12.900  10.241
71453SOL    HW216192  12.690  12.987  10.340
71454SOL     OW16193  14.204   9.705   7.836
71454SOL    HW116194  14.292   9.668   7.833
71454SOL    HW216195  14.146   9.629   7.842
71455SOL     OW16196   9.134   2.548   3.490
71455SOL    HW116197   9.097   2.535   3.577
71455SOL    HW216198   9.084   2.488   3.433
71456SOL     OW16199   5.840   0.568   5.196
71456SOL    HW116200   5.863   0.523   5.114
71456SOL    HW216201   5.923   0.573   5.244
71457SOL     OW16202   9.862  10.911  12.455
71457SOL    HW116203   9.940  10.887  12.504
71457SOL    HW216204   9.833  10.993  12.494
71458SOL     OW16205   5.585   1.309   0.698
71458SOL    HW116206   5.632   1.261   0.630
71458SOL    HW216207   5.497   1.321   0.661
71459SOL     OW16208  11.655  14.676   2.347
71459SOL    HW116209  11.645  14.588   2.385
71459SOL    HW216210  11.643  14.662   2.253
71460SOL     OW16211   3.175  12.011   5.895
71460SOL    HW116212   3.107  12.053   5.842
71460SOL    HW216213   3.255  12.024   5.845
71461SOL     OW16214   7.829   0.848   2.070
71461SOL    HW116215   7.796   0.898   1.995
71461SOL    HW216216   7.765   0.778   2.081
71462SOL     OW16217   4.767  14.431   5.595
71462SOL    HW116218   4.738  14.510   5.641
71462SOL    HW216219   4.722  14.360   5.640
71463SOL     OW16220   1.157   6.097   7.915
71463SOL    HW116221   1.092   6.129   7.853
71463SOL    HW216222   1.110   6.091   7.998
71464SOL     OW16223   4.047  14.284  14.089
71464SOL    HW116224   4.004  14.358  14.133
71464SOL    HW216225   4.010  14.206  14.131
71465SOL     OW16226  11.433   2.376   4.266
71465SOL    HW116227  11.409   2.437   4.196
71465SOL    HW216228  11.527   2.361   4.254
71466SOL     OW16229   0.233   7.627  10.406
71466SOL    HW116230   0.296   7.683  10.362
71466SOL    HW216231   0.178   7.687  10.457
71467SOL     OW16232   4.411   9.208   7.931
71467SOL    HW116233   4.480   9.146   7.952
71467SOL    HW216234   4.386   9.246   8.016
71468SOL     OW16235   4.330   0.937   7.933
71468SOL    HW116236   4.270   1.009   7.912
71468SOL    HW216237   4.293   0.897   8.011
71469SOL     OW16238   4.746  10.224   5.932
71469SOL    HW116239   4.701  10.289   5.987
71469SOL    HW216240   4.827  10.267   5.906
71470SOL     OW16241   8.626   3.251   9.747
71470SOL    HW116242   8.707   3.294   9.718
71470SOL    HW216243   8.595   3.306   9.819
71471SOL     OW16244   9.735  10.918   8.862
71471SOL    HW116245   9.742  11.000   8.911
71471SOL    HW216246   9.647  10.886   8.882
71472SOL     OW16247  11.926   1.516   4.559
71472SOL    HW116248  11.904   1.423   4.555
71472SOL    HW216249  12.001   1.525   4.502
71473SOL     OW16250  14.442   9.532   8.236
71473SOL    HW116251  14.363   9.495   8.275
71473SOL    HW216252  14.413   9.614   8.196
71474SOL     OW16253   5.398   9.392   6.767
71474SOL    HW116254   5.326   9.329   6.767
71474SOL    HW216255   5.385   9.442   6.848
71475SOL     OW16256   6.351  12.087   1.116
71475SOL    HW116257   6.356  12.080   1.021
71475SOL    HW216258   6.293  12.015   1.142
71476SOL     OW16259   2.218   0.310  13.409
71476SOL    HW116260   2.195   0.399  13.381
71476SOL    HW216261   2.231   0.261  13.328
71477SOL     OW16262  14.433   5.891  12.472
71477SOL    HW116263  14.362   5.936  12.516
71477SOL    HW216264  14.409   5.891  12.380
71478SOL     OW16265   0.109   6.795   3.113
71478SOL    HW116266   0.098   6.890   3.119
71478SOL    HW216267   0.181   6.775   3.172
71479SOL     OW16268   2.542  13.583   5.257
71479SOL    HW116269   2.494  13.632   5.325
71479SOL    HW216270   2.486  13.508   5.238
71480SOL     OW16271   0.138   2.511   9.761
71480SOL    HW116272   0.144   2.489   9.854
71480SOL    HW216273   0.172   2.601   9.756
71481SOL     OW16274  13.390   8.221  12.509
71481SOL    HW116275  13.463   8.279  12.534
71481SOL    HW216276  13.368   8.247  12.420
71482SOL     OW16277  10.770   1.664   1.554
71482SOL    HW116278  10.694   1.607   1.565
71482SOL    HW216279  10.786   1.664   1.459
71483SOL     OW16280  14.680   4.624   9.255
71483SOL    HW116281  14.667   4.589   9.343
71483SOL    HW216282  14.690   4.547   9.200
71484SOL     OW16283  10.471   7.671   2.399
71484SOL    HW116284  10.431   7.661   2.313
71484SOL    HW216285  10.414   7.732   2.446
71485SOL     OW16286   3.041   5.882  12.930
71485SOL    HW116287   2.970   5.818  12.919
71485SOL    HW216288   2.998   5.967  12.917
71486SOL     OW16289  13.989   7.042   2.078
71486SOL    HW116290  13.993   7.032   1.983
71486SOL    HW216291  13.965   6.955   2.110
71487SOL     OW16292   4.233   5.223   2.053
71487SOL    HW116293   4.302   5.175   2.099
71487SOL    HW216294   4.156   5.215   2.109
71488SOL     OW16295   5.960  14.219   0.067
71488SOL    HW116296   5.963  14.308   0.103
71488SOL    HW216297   5.885  14.179   0.111
71489SOL     OW16298   1.421   8.612  11.510
71489SOL    HW116299   1.383   8.526  11.526
71489SOL    HW216300   1.510   8.593  11.479
71490SOL     OW16301   0.245   9.744   4.524
71490SOL    HW116302   0.195   9.707   4.452
71490SOL    HW216303   0.326   9.777   4.484
71491SOL     OW16304   9.411   6.906   7.290
71491SOL    HW116305   9.317   6.917   7.303
71491SOL    HW216306   9.449   6.924   7.377
71492SOL     OW16307  12.390  10.418   2.153
71492SOL    HW116308  12.338  10.438   2.075
71492SOL    HW216309  12.479  10.407   2.121
71493SOL     OW16310   6.205   5.959   7.552
71493SOL    HW116311   6.196   6.017   7.627
71493SOL    HW216312   6.284   5.989   7.507
71494SOL     OW16313   3.950  10.998   8.414
71494SOL    HW116314   3.865  10.963   8.388
71494SOL    HW216315   3.993  10.925   8.460
71495SOL     OW16316   8.940   4.353   1.698
71495SOL    HW116317   8.882   4.416   1.741
71495SOL    HW216318   8.983   4.404   1.629
71496SOL     OW16319   9.498   2.063   0.213
71496SOL    HW116320   9.510   1.986   0.158
71496SOL    HW216321   9.577   2.066   0.267
71497SOL     OW16322   5.750   2.588   5.313
71497SOL    HW116323   5.786   2.540   5.238
71497SOL    HW216324   5.712   2.520   5.369
71498SOL     OW16325   4.800   1.955   0.883
71498SOL    HW116326   4.739   2.026   0.863
71498SOL    HW216327   4.842   1.981   0.964
71499SOL     OW16328   6.005  14.423  13.327
71499SOL    HW116329   6.001  14.389  13.238
71499SOL    HW216330   6.045  14.510  13.318
71500SOL     OW16331   9.960   2.125   9.211
71500SOL    HW116332  10.051   2.139   9.182
71500SOL    HW216333   9.954   2.031   9.227
71501SOL     OW16334  14.160   7.812   4.999
71501SOL    HW116335  14.105   7.889   5.014
71501SOL    HW216336  14.249   7.842   5.015
71502SOL     OW16337   3.651  14.458   4.578
71502SOL    HW116338   3.737  14.500   4.566
71502SOL    HW216339   3.665  14.367   4.552
71503SOL     OW16340   2.505   7.430   3.374
71503SOL    HW116341   2.536   7.341   3.391
71503SOL    HW216342   2.582   7.477   3.341
71504SOL     OW16343   6.563   1.062   0.139
71504SOL    HW116344   6.629   1.013   0.090
71504SOL    HW216345   6.593   1.153   0.135
71505SOL     OW16346   8.599  11.320   1.756
71505SOL    HW116347   8.610  11.357   1.669
71505SOL    HW216348   8.656  11.373   1.812
71506SOL     OW16349   0.644   8.940   4.669
71506SOL    HW116350   0.734   8.931   4.636
71506SOL    HW216351   0.650   9.009   4.735
71507SOL     OW16352   5.965  14.349   7.665
71507SOL    HW116353   5.872  14.363   7.685
71507SOL    HW216354   5.989  14.272   7.717
71508SOL     OW16355   7.478  11.836  14.136
71508SOL    HW116356   7.426  11.789  14.201
71508SOL    HW216357   7.447  11.926  14.141
71509SOL     OW16358   8.080   1.067   5.914
71509SOL    HW116359   8.174   1.065   5.933
71509SOL    HW216360   8.057   1.160   5.918
71510SOL     OW16361   7.462   5.618   7.925
71510SOL    HW116362   7.516   5.547   7.961
71510SOL    HW216363   7.395   5.573   7.873
71511SOL     OW16364  10.358  11.596   0.728
71511SOL    HW116365  10.437  11.644   0.702
71511SOL    HW216366  10.388  11.506   0.741
71512SOL     OW16367  10.366  10.095   7.711
71512SOL    HW116368  10.335  10.183   7.689
71512SOL    HW216369  10.432  10.108   7.779
71513SOL     OW16370  13.207  12.065   9.685
71513SOL    HW116371  13.189  11.974   9.708
71513SOL    HW216372  13.301  12.068   9.667
71514SOL     OW16373   9.518   3.465   0.964
71514SOL    HW116374   9.597   3.500   0.922
71514SOL    HW216375   9.447   3.522   0.935
71515SOL     OW16376   3.897   3.281   4.298
71515SOL    HW116377   3.820   3.291   4.243
71515SOL    HW216378   3.971   3.287   4.238
71516SOL     OW16379   9.270   1.303   2.884
71516SOL    HW116380   9.245   1.221   2.927
71516SOL    HW216381   9.249   1.288   2.792
71517SOL     OW16382  10.841   5.478  14.669
71517SOL    HW116383  10.912   5.506  14.611
71517SOL    HW216384  10.803   5.402  14.625
71518SOL     OW16385   4.840   5.984  11.007
71518SOL    HW116386   4.798   5.919  10.950
71518SOL    HW216387   4.811   6.069  10.973
71519SOL     OW16388  11.704   8.625  10.870
71519SOL    HW116389  11.782   8.593  10.826
71519SOL    HW216390  11.632   8.575  10.831
71520SOL     OW16391   7.189   0.457   3.397
71520SOL    HW116392   7.119   0.393   3.408
71520SOL    HW216393   7.177   0.518   3.470
71521SOL     OW16394   3.844   6.321  11.350
71521SOL    HW116395   3.928   6.358  11.377
71521SOL    HW216396   3.796   6.396  11.315
71522SOL     OW16397   0.588   8.541   3.391
71522SOL    HW116398   0.615   8.633   3.384
71522SOL    HW216399   0.645   8.503   3.457
71523SOL     OW16400   8.884   4.605   2.279
71523SOL    HW116401   8.910   4.514   2.267
71523SOL    HW216402   8.797   4.610   2.239
71524SOL     OW16403   3.789   8.740   0.717
71524SOL    HW116404   3.706   8.707   0.684
71524SOL    HW216405   3.855   8.707   0.656
71525SOL     OW16406  11.374  14.255  14.015
71525SOL    HW116407  11.398  14.334  13.966
71525SOL    HW216408  11.385  14.279  14.107
71526SOL     OW16409  10.171   5.159   9.527
71526SOL    HW116410  10.113   5.197   9.593
71526SOL    HW216411  10.231   5.104   9.577
71527SOL     OW16412   6.909   6.778  10.162
71527SOL    HW116413   6.835   6.832  10.134
71527SOL    HW216414   6.962   6.768  10.083
71528SOL     OW16415   4.831   8.644   3.974
71528SOL    HW116416   4.789   8.559   3.992
71528SOL    HW216417   4.884   8.628   3.896
71529SOL     OW16418   7.010   3.726   1.350
71529SOL    HW116419   7.024   3.633   1.332
71529SOL    HW216420   7.060   3.743   1.430
71530SOL     OW16421   9.343  14.734  12.271
71530SOL    HW116422   9.330  14.647  12.309
71530SOL    HW216423   9.438  14.748  12.275
71531SOL     OW16424   3.851  10.992   4.497
71531SOL    HW116425   3.918  11.058   4.514
71531SOL    HW216426   3.802  11.026   4.422
71532SOL     OW16427   7.671   0.777   7.987
71532SOL    HW116428   7.638   0.864   8.007
71532SOL    HW216429   7.654   0.766   7.893
71533SOL     OW16430   3.444   6.549   5.338
71533SOL    HW116431   3.441   6.456   5.317
71533SOL    HW216432   3.387   6.590   5.274
71534SOL     OW16433  14.648   0.480   9.406
71534SOL    HW116434  14.605   0.510   9.486
71534SOL    HW216435  14.597   0.521   9.335
71535SOL     OW16436   7.197   5.773  11.092
71535SOL    HW116437   7.195   5.762  10.997
71535SOL    HW216438   7.174   5.687  11.126
71536SOL     OW16439   4.101   9.816   6.653
71536SOL    HW116440   4.151   9.768   6.719
71536SOL    HW216441   4.036   9.754   6.622
71537SOL     OW16442   2.883   4.119   2.367
71537SOL    HW116443   2.926   4.046   2.412
71537SOL    HW216444   2.824   4.156   2.432
71538SOL     OW16445  10.251   0.675   0.264
71538SOL    HW116446  10.283   0.764   0.249
71538SOL    HW216447  10.165   0.687   0.303
71539SOL     OW16448  10.202   6.409  11.974
71539SOL    HW116449  10.271   6.361  12.019
71539SOL    HW216450  10.244   6.490  11.945
71540SOL     OW16451   3.806  14.542   4.229
71540SOL    HW116452   3.861  14.466   4.213
71540SOL    HW216453   3.727  14.526   4.178
71541SOL     OW16454   5.684   4.825  14.418
71541SOL    HW116455   5.776   4.810  14.397
71541SOL    HW216456   5.685   4.897  14.481
71542SOL     OW16457   6.214   5.635   9.120
71542SOL    HW116458   6.302   5.662   9.147
71542SOL    HW216459   6.222   5.540   9.108
71543SOL     OW16460   9.807  13.336   1.431
71543SOL    HW116461   9.822  13.308   1.341
71543SOL    HW216462   9.748  13.412   1.423
71544SOL     OW16463   8.324   9.332   4.259
71544SOL    HW116464   8.373   9.388   4.319
71544SOL    HW216465   8.390   9.298   4.199
71545SOL     OW16466   7.989   4.252   4.287
71545SOL    HW116467   8.075   4.244   4.245
71545SOL    HW216468   7.968   4.163   4.316
71546SOL     OW16469   7.785   8.790   9.117
71546SOL    HW116470   7.766   8.703   9.081
71546SOL    HW216471   7.874   8.809   9.086
71547SOL     OW16472   4.088  11.176   9.066
71547SOL    HW116473   4.081  11.160   8.972
71547SOL    HW216474   4.136  11.259   9.072
71548SOL     OW16475  12.104  12.913  14.512
71548SOL    HW116476  12.067  12.826  14.528
71548SOL    HW216477  12.121  12.914  14.418
71549SOL     OW16478   4.818   8.033   1.287
71549SOL    HW116479   4.869   8.057   1.364
71549SOL    HW216480   4.856   7.950   1.258
71550SOL     OW16481   2.336   8.316  10.138
71550SOL    HW116482   2.302   8.354  10.219
71550SOL    HW216483   2.321   8.382  10.071
71551SOL     OW16484   3.031   2.309  12.496
71551SOL    HW116485   2.996   2.361  12.568
71551SOL    HW216486   3.113   2.273  12.530
71552SOL     OW16487  13.851   3.427   9.507
71552SOL    HW116488  13.890   3.391   9.587
71552SOL    HW216489  13.893   3.378   9.437
71553SOL     OW16490  13.439   3.015  10.169
71553SOL    HW116491  13.433   2.982  10.259
71553SOL    HW216492  13.480   3.101  10.177
71554SOL     OW16493   6.727   1.709   6.654
71554SOL    HW116494   6.688   1.690   6.569
71554SOL    HW216495   6.821   1.709   6.639
71555SOL     OW16496  13.625   3.857  12.798
71555SOL    HW116497  13.589   3.907  12.725
71555SOL    HW216498  13.608   3.766  12.775
71556SOL     OW16499  10.661  11.878   6.135
71556SOL    HW116500  10.571  11.909   6.125
71556SOL    HW216501  10.711  11.955   6.161
71557SOL     OW16502   3.140  11.676  11.821
71557SOL    HW116503   3.121  11.642  11.733
71557SOL    HW216504   3.197  11.609  11.860
71558SOL     OW16505  14.509   6.798   6.145
71558SOL    HW116506  14.492   6.717   6.193
71558SOL    HW216507  14.422   6.835   6.130
71559SOL     OW16508   4.323  10.622   1.880
71559SOL    HW116509   4.392  10.596   1.819
71559SOL    HW216510   4.287  10.539   1.911
71560SOL     OW16511   5.936   6.714  13.058
71560SOL    HW116512   5.963   6.644  13.117
71560SOL    HW216513   5.986   6.699  12.978
71561SOL     OW16514   3.571   9.230   0.972
71561SOL    HW116515   3.614   9.308   0.936
71561SOL    HW216516   3.630   9.158   0.950
71562SOL     OW16517   7.600  13.243  10.214
71562SOL    HW116518   7.522  13.190  10.229
71562SOL    HW216519   7.664  13.182  10.178
71563SOL     OW16520   9.381   8.778   9.132
71563SOL    HW116521   9.474   8.801   9.140
71563SOL    HW216522   9.339   8.819   9.208
71564SOL     OW16523   8.381   1.590   9.185
71564SOL    HW116524   8.341   1.675   9.206
71564SOL    HW216525   8.387   1.546   9.270
71565SOL     OW16526   2.356  10.204   4.380
71565SOL    HW116527   2.398  10.281   4.344
71565SOL    HW216528   2.288  10.181   4.317
71566SOL     OW16529   5.171  14.139   1.506
71566SOL    HW116530   5.105  14.104   1.446
71566SOL    HW216531   5.121  14.171   1.581
71567SOL     OW16532  12.160  11.721   1.608
71567SOL    HW116533  12.227  11.759   1.552
71567SOL    HW216534  12.078  11.736   1.561
71568SOL     OW16535   8.018   8.281   0.782
71568SOL    HW116536   8.105   8.312   0.757
71568SOL    HW216537   8.029   8.245   0.870
71569SOL     OW16538   6.767   3.113  13.549
71569SOL    HW116539   6.848   3.158  13.525
71569SOL    HW216540   6.697   3.171  13.518
71570SOL     OW16541   4.996   8.445  14.229
71570SOL    HW116542   5.015   8.371  14.286
71570SOL    HW216543   5.079   8.463  14.184
71571SOL     OW16544  14.425  11.632   6.657
71571SOL    HW116545  14.505  11.580   6.656
71571SOL    HW216546  14.358  11.573   6.692
71572SOL     OW16547   7.333   3.763   4.926
71572SOL    HW116548   7.249   3.788   4.965
71572SOL    HW216549   7.399   3.799   4.986
71573SOL     OW16550   4.768   6.453  13.069
71573SOL    HW116551   4.792   6.441  13.161
71573SOL    HW216552   4.683   6.497  13.072
71574SOL     OW16553   3.670   3.204   1.910
71574SOL    HW116554   3.609   3.276   1.897
71574SOL    HW216555   3.653   3.173   1.999
71575SOL     OW16556   0.608   5.830   8.007
71575SOL    HW116557   0.627   5.855   7.916
71575SOL    HW216558   0.571   5.742   8.001
71576SOL     OW16559   6.373   0.482   7.207
71576SOL    HW116560   6.386   0.468   7.301
71576SOL    HW216561   6.330   0.402   7.177
71577SOL     OW16562  10.557   0.888  12.059
71577SOL    HW116563  10.638   0.857  12.100
71577SOL    HW216564  10.587   0.932  11.979
71578SOL     OW16565   8.162   2.571  13.588
71578SOL    HW116566   8.201   2.618  13.514
71578SOL    HW216567   8.118   2.638  13.639
71579SOL     OW16568   7.277  14.808   2.002
71579SOL    HW116569   7.350  14.868   1.986
71579SOL    HW216570   7.275  14.798   2.097
71580SOL     OW16571   8.778   4.753  14.412
71580SOL    HW116572   8.798   4.701  14.490
71580SOL    HW216573   8.819   4.838  14.430
71581SOL     OW16574   8.233   9.940   4.190
71581SOL    HW116575   8.143   9.956   4.217
71581SOL    HW216576   8.237   9.972   4.100
71582SOL     OW16577   4.606   0.489   5.009
71582SOL    HW116578   4.587   0.396   5.023
71582SOL    HW216579   4.521   0.531   5.006
71583SOL     OW16580   6.589   9.388  13.761
71583SOL    HW116581   6.625   9.442  13.690
71583SOL    HW216582   6.508   9.353  13.725
71584SOL     OW16583   1.890   0.316  13.307
71584SOL    HW116584   1.973   0.303  13.262
71584SOL    HW216585   1.897   0.264  13.387
71585SOL     OW16586   3.524   5.309   4.270
71585SOL    HW116587   3.468   5.265   4.206
71585SOL    HW216588   3.490   5.281   4.355
71586SOL     OW16589   1.725  11.383   5.699
71586SOL    HW116590   1.721  11.351   5.789
71586SOL    HW216591   1.746  11.305   5.647
71587SOL     OW16592   5.632   4.065   4.241
71587SOL    HW116593   5.703   4.018   4.198
71587SOL    HW216594   5.618   4.143   4.188
71588SOL     OW16595   6.303   0.357   5.164
71588SOL    HW116596   6.308   0.382   5.256
71588SOL    HW216597   6.310   0.439   5.116
71589SOL     OW16598   2.583   8.303   1.262
71589SOL    HW116599   2.544   8.306   1.174
71589SOL    HW216600   2.669   8.265   1.249
71590SOL     OW16601   1.398   9.552   5.114
71590SOL    HW116602   1.317   9.558   5.063
71590SOL    HW216603   1.374   9.585   5.200
71591SOL     OW16604   3.192   6.246   9.795
71591SOL    HW116605   3.145   6.167   9.821
71591SOL    HW216606   3.223   6.283   9.878
71592SOL     OW16607   0.039   2.087   2.423
71592SOL    HW116608  14.856   2.082   2.352
71592SOL    HW216609  14.876   2.048   2.498
71593SOL     OW16610   7.089   2.332   7.408
71593SOL    HW116611   7.094   2.291   7.321
71593SOL    HW216612   7.007   2.301   7.445
71594SOL     OW16613   7.641   2.124   9.589
71594SOL    HW116614   7.676   2.035   9.592
71594SOL    HW216615   7.559   2.117   9.539
71595SOL     OW16616  13.061   0.524  12.923
71595SOL    HW116617  13.047   0.430  12.935
71595SOL    HW216618  13.111   0.530  12.842
71596SOL     OW16619   4.825   2.829   9.028
71596SOL    HW116620   4.748   2.864   8.983
71596SOL    HW216621   4.899   2.875   8.987
71597SOL     OW16622   7.397   7.470   2.303
71597SOL    HW116623   7.420   7.384   2.268
71597SOL    HW216624   7.479   7.520   2.300
71598SOL     OW16625   9.344   1.156   5.172
71598SOL    HW116626   9.263   1.200   5.150
71598SOL    HW216627   9.335   1.134   5.265
71599SOL     OW16628  11.165  11.263   8.343
71599SOL    HW116629  11.123  11.251   8.258
71599SOL    HW216630  11.226  11.190   8.351
71600SOL     OW16631  13.862  13.500  10.450
71600SOL    HW116632  13.939  13.541  10.488
71600SOL    HW216633  13.801  13.573  10.434
71601SOL     OW16634   4.343   1.757   1.241
71601SOL    HW116635   4.410   1.808   1.197
71601SOL    HW216636   4.286   1.822   1.283
71602SOL     OW16637  13.841   5.847  13.934
71602SOL    HW116638  13.811   5.757  13.944
71602SOL    HW216639  13.764   5.894  13.902
71603SOL     OW16640  10.899   5.401   2.952
71603SOL    HW116641  10.857   5.315   2.955
71603SOL    HW216642  10.830   5.460   2.920
71604SOL     OW16643  14.797   9.885   2.216
71604SOL    HW116644  14.876   9.900   2.164
71604SOL    HW216645  14.733   9.946   2.181
71605SOL     OW16646   0.236  13.311  12.862
71605SOL    HW116647   0.282  13.317  12.946
71605SOL    HW216648   0.244  13.398  12.824
71606SOL     OW16649   2.273   8.257   4.960
71606SOL    HW116650   2.191   8.267   5.008
71606SOL    HW216651   2.326   8.199   5.015
71607SOL     OW16652  14.128   7.756   6.488
71607SOL    HW116653  14.081   7.773   6.570
71607SOL    HW216654  14.198   7.696   6.514
71608SOL     OW16655   8.689  10.831   5.082
71608SOL    HW116656   8.649  10.891   5.146
71608SOL    HW216657   8.627  10.758   5.075
71609SOL     OW16658  12.554   5.657   4.351
71609SOL    HW116659  12.468   5.618   4.340
71609SOL    HW216660  12.549   5.740   4.303
71610SOL     OW16661   1.122   9.356   2.345
71610SOL    HW116662   1.049   9.409   2.313
71610SOL    HW216663   1.117   9.364   2.440
71611SOL     OW16664  14.624   1.631   7.744
71611SOL    HW116665  14.692   1.697   7.761
71611SOL    HW216666  14.650   1.556   7.798
71612SOL     OW16667   3.168   0.807   9.829
71612SOL    HW116668   3.236   0.741   9.842
71612SOL    HW216669   3.127   0.784   9.746
71613SOL     OW16670  12.777  13.656   9.829
71613SOL    HW116671  12.710  13.634   9.764
71613SOL    HW216672  12.730  13.656   9.913
71614SOL     OW16673   6.683   5.856   7.609
71614SOL    HW116674   6.591   5.864   7.633
71614SOL    HW216675   6.730   5.909   7.674
71615SOL     OW16676  11.585   3.679  12.420
71615SOL    HW116677  11.535   3.724  12.352
71615SOL    HW216678  11.577   3.586  12.397
71616SOL     OW16679   1.999   7.850   0.065
71616SOL    HW116680   1.968   7.924   0.013
71616SOL    HW216681   2.094   7.855   0.061
71617SOL     OW16682   2.099   6.016  14.581
71617SOL    HW116683   2.142   5.935  14.606
71617SOL    HW216684   2.074   6.004  14.489
71618SOL     OW16685  12.586   0.689   0.325
71618SOL    HW116686  12.668   0.720   0.286
71618SOL    HW216687  12.604   0.598   0.348
71619SOL     OW16688   0.997   7.430   3.831
71619SOL    HW116689   1.084   7.460   3.855
71619SOL    HW216690   1.007   7.335   3.821
71620SOL     OW16691   6.332   5.679   0.299
71620SOL    HW116692   6.274   5.676   0.222
71620SOL    HW216693   6.419   5.697   0.263
71621SOL     OW16694   5.858   2.659   8.721
71621SOL    HW116695   5.925   2.640   8.656
71621SOL    HW216696   5.903   2.654   8.805
71622SOL     OW16697  12.776  12.960  12.710
71622SOL    HW116698  12.686  12.933  12.689
71622SOL    HW216699  12.796  12.915  12.792
71623SOL     OW16700   4.810   0.076   1.783
71623SOL    HW116701   4.849  14.873   1.761
71623SOL    HW216702   4.771   0.106   1.701
71624SOL     OW16703   3.127   9.146   0.560
71624SOL    HW116704   3.177   9.066   0.549
71624SOL    HW216705   3.162   9.186   0.640
71625SOL     OW16706   9.011   3.415   3.910
71625SOL    HW116707   8.937   3.388   3.963
71625SOL    HW216708   9.088   3.386   3.959
71626SOL     OW16709  10.563  14.168   2.073
71626SOL    HW116710  10.595  14.097   2.018
71626SOL    HW216711  10.623  14.241   2.056
71627SOL     OW16712  12.830   2.532   7.368
71627SOL    HW116713  12.919   2.556   7.392
71627SOL    HW216714  12.777   2.562   7.442
71628SOL     OW16715   2.188   0.524   2.146
71628SOL    HW116716   2.168   0.595   2.086
71628SOL    HW216717   2.158   0.445   2.102
71629SOL     OW16718   2.840   7.105   5.668
71629SOL    HW116719   2.790   7.029   5.638
71629SOL    HW216720   2.925   7.096   5.625
71630SOL     OW16721   3.944  12.955   2.072
71630SOL    HW116722   4.016  12.898   2.097
71630SOL    HW216723   3.979  13.009   2.001
71631SOL     OW16724   5.619  13.323   0.101
71631SOL    HW116725   5.633  13.333   0.007
71631SOL    HW216726   5.530  13.288   0.108
71632SOL     OW16727   1.160  10.338   2.450
71632SOL    HW116728   1.217  10.325   2.526
71632SOL    HW216729   1.111  10.256   2.442
71633SOL     OW16730   8.260   4.545  13.895
71633SOL    HW116731   8.239   4.468  13.948
71633SOL    HW216732   8.353   4.536  13.874
71634SOL     OW16733   3.218  11.473   7.032
71634SOL    HW116734   3.124  11.490   7.027
71634SOL    HW216735   3.238  11.426   6.951
71635SOL     OW16736   5.704  12.590   7.340
71635SOL    HW116737   5.621  12.566   7.300
71635SOL    HW216738   5.755  12.628   7.269
71636SOL     OW16739   4.911   9.400   0.994
71636SOL    HW116740   4.838   9.345   1.020
71636SOL    HW216741   4.908   9.400   0.898
71637SOL     OW16742   6.108  14.721   0.125
71637SOL    HW116743   6.187  14.760   0.086
71637SOL    HW216744   6.089  14.778   0.200
71638SOL     OW16745  14.238   4.030  12.459
71638SOL    HW116746  14.279   4.106  12.418
71638SOL    HW216747  14.301   3.999  12.524
71639SOL     OW16748   1.661   4.745  13.486
71639SOL    HW116749   1.737   4.730  13.543
71639SOL    HW216750   1.699   4.766  13.401
71640SOL     OW16751   1.373   2.238   1.321
71640SOL    HW116752   1.443   2.303   1.315
71640SOL    HW216753   1.343   2.242   1.411
71641SOL     OW16754   6.514  11.852   1.316
71641SOL    HW116755   6.531  11.936   1.360
71641SOL    HW216756   6.431  11.822   1.354
71642SOL     OW16757  10.636  11.308   3.302
71642SOL    HW116758  10.669  11.218   3.302
71642SOL    HW216759  10.696  11.356   3.359
71643SOL     OW16760   6.564  10.033   0.606
71643SOL    HW116761   6.546  10.005   0.696
71643SOL    HW216762   6.641   9.983   0.580
71644SOL     OW16763   6.192   2.262   7.401
71644SOL    HW116764   6.168   2.170   7.386
71644SOL    HW216765   6.274   2.257   7.452
71645SOL     OW16766   2.684   5.293  11.904
71645SOL    HW116767   2.615   5.356  11.923
71645SOL    HW216768   2.737   5.292  11.984
71646SOL     OW16769  12.499   9.584  13.421
71646SOL    HW116770  12.576   9.575  13.364
71646SOL    HW216771  12.498   9.677  13.445
71647SOL     OW16772  14.278   1.936   9.687
71647SOL    HW116773  14.219   1.885   9.744
71647SOL    HW216774  14.341   1.974   9.748
71648SOL     OW16775  13.178   3.296  13.479
71648SOL    HW116776  13.237   3.240  13.530
71648SOL    HW216777  13.109   3.237  13.449
71649SOL     OW16778   6.881  13.222   9.327
71649SOL    HW116779   6.939  13.225   9.403
71649SOL    HW216780   6.931  13.175   9.260
71650SOL     OW16781   3.691  12.062   8.942
71650SOL    HW116782   3.728  12.146   8.969
71650SOL    HW216783   3.751  11.996   8.977
71651SOL     OW16784  12.448   7.428  14.340
71651SOL    HW116785  12.408   7.481  14.408
71651SOL    HW216786  12.542   7.432  14.359
71652SOL     OW16787   2.186   7.940   7.979
71652SOL    HW116788   2.155   7.935   8.070
71652SOL    HW216789   2.267   7.990   7.983
71653SOL     OW16790   1.301  13.581  12.342
71653SOL    HW116791   1.332  13.671  12.338
71653SOL    HW216792   1.363  13.531  12.289
71654SOL     OW16793   1.621   2.050   0.565
71654SOL    HW116794   1.648   2.110   0.496
71654SOL    HW216795   1.536   2.017   0.537
71655SOL     OW16796   9.011   5.161   2.717
71655SOL    HW116797   9.038   5.184   2.806
71655SOL    HW216798   8.967   5.239   2.684
71656SOL     OW16799  14.420  13.620   2.238
71656SOL    HW116800  14.437  13.643   2.329
71656SOL    HW216801  14.325  13.611   2.233
71657SOL     OW16802   4.150   9.823   8.087
71657SOL    HW116803   4.133   9.827   8.181
71657SOL    HW216804   4.160   9.914   8.060
71658SOL     OW16805   7.355   7.084   3.147
71658SOL    HW116806   7.443   7.049   3.142
71658SOL    HW216807   7.317   7.066   3.060
71659SOL     OW16808   2.749   2.758  13.789
71659SOL    HW116809   2.667   2.709  13.791
71659SOL    HW216810   2.726   2.846  13.817
71660SOL     OW16811   7.466   2.109   1.934
71660SOL    HW116812   7.438   2.199   1.925
71660SOL    HW216813   7.386   2.057   1.919
71661SOL     OW16814   8.042   6.106  14.555
71661SOL    HW116815   8.039   6.096  14.460
71661SOL    HW216816   7.951   6.093  14.583
71662SOL     OW16817   0.839   9.185   6.012
71662SOL    HW116818   0.848   9.266   5.963
71662SOL    HW216819   0.746   9.180   6.034
71663SOL     OW16820   4.964   7.757  12.656
71663SOL    HW116821   4.999   7.740  12.569
71663SOL    HW216822   4.935   7.672  12.688
71664SOL     OW16823   6.874  12.184  11.369
71664SOL    HW116824   6.961  12.193  11.331
71664SOL    HW216825   6.856  12.090  11.366
71665SOL     OW16826   9.068   4.492   0.007
71665SOL    HW116827   9.119   4.492   0.088
71665SOL    HW216828   9.062   4.584  14.864
71666SOL     OW16829   5.114  11.222   4.081
71666SOL    HW116830   5.077  11.309   4.095
71666SOL    HW216831   5.208  11.237   4.070
71667SOL     OW16832   3.212  11.054  10.383
71667SOL    HW116833   3.286  11.064  10.442
71667SOL    HW216834   3.164  10.978  10.416
71668SOL     OW16835   8.979   7.384  10.987
71668SOL    HW116836   9.023   7.417  10.909
71668SOL    HW216837   9.034   7.414  11.060
71669SOL     OW16838   2.434   0.905   3.811
71669SOL    HW116839   2.490   0.841   3.767
71669SOL    HW216840   2.489   0.983   3.817
71670SOL     OW16841   4.373   8.712   4.231
71670SOL    HW116842   4.419   8.783   4.275
71670SOL    HW216843   4.350   8.748   4.146
71671SOL     OW16844   0.843   1.031   6.615
71671SOL    HW116845   0.891   0.955   6.581
71671SOL    HW216846   0.751   1.007   6.605
71672SOL     OW16847   4.535   9.631  12.453
71672SOL    HW116848   4.441   9.614  12.448
71672SOL    HW216849   4.555   9.677  12.371
71673SOL     OW16850  12.691   3.431   4.944
71673SOL    HW116851  12.721   3.345   4.914
71673SOL    HW216852  12.596   3.422   4.951
71674SOL     OW16853   9.075   4.493   9.798
71674SOL    HW116854   9.026   4.451   9.869
71674SOL    HW216855   9.155   4.442   9.791
71675SOL     OW16856  12.898   4.935  13.000
71675SOL    HW116857  12.993   4.931  13.003
71675SOL    HW216858  12.878   5.023  12.968
71676SOL     OW16859   8.873   3.632   8.478
71676SOL    HW116860   8.878   3.559   8.416
71676SOL    HW216861   8.919   3.600   8.556
71677SOL     OW16862   5.157   8.792  14.660
71677SOL    HW116863   5.180   8.884  14.648
71677SOL    HW216864   5.186   8.749  14.580
71678SOL     OW16865   5.087   8.071   8.076
71678SOL    HW116866   5.000   8.040   8.100
71678SOL    HW216867   5.075   8.165   8.059
71679SOL     OW16868   2.921   1.595   6.464
71679SOL    HW116869   2.923   1.517   6.409
71679SOL    HW216870   2.965   1.662   6.411
71680SOL     OW16871  10.974   5.413   1.056
71680SOL    HW116872  11.025   5.352   1.110
71680SOL    HW216873  10.991   5.499   1.095
71681SOL     OW16874   5.158  12.570  10.321
71681SOL    HW116875   5.134  12.589  10.412
71681SOL    HW216876   5.123  12.643  10.271
71682SOL     OW16877  13.192   2.409   0.791
71682SOL    HW116878  13.102   2.442   0.791
71682SOL    HW216879  13.212   2.392   0.699
71683SOL     OW16880  11.842  11.925   4.331
71683SOL    HW116881  11.799  11.840   4.345
71683SOL    HW216882  11.930  11.913   4.366
71684SOL     OW16883   5.200   9.746  10.123
71684SOL    HW116884   5.264   9.678  10.140
71684SOL    HW216885   5.237   9.798  10.053
71685SOL     OW16886   7.490   9.525   8.320
71685SOL    HW116887   7.436   9.566   8.252
71685SOL    HW216888   7.429   9.469   8.368
71686SOL     OW16889  13.110  14.706   9.313
71686SOL    HW116890  13.021  14.725   9.283
71686SOL    HW216891  13.117  14.752   9.397
71687SOL     OW16892  12.442  12.957   3.770
71687SOL    HW116893  12.355  12.986   3.798
71687SOL    HW216894  12.448  12.981   3.678
71688SOL     OW16895   5.539   2.154  10.340
71688SOL    HW116896   5.588   2.231  10.311
71688SOL    HW216897   5.469   2.145  10.275
71689SOL     OW16898   9.495   3.454  12.551
71689SOL    HW116899   9.587   3.481  12.560
71689SOL    HW216900   9.445   3.528  12.586
71690SOL     OW16901  10.608   2.197   1.101
71690SOL    HW116902  10.542   2.259   1.071
71690SOL    HW216903  10.692   2.241   1.086
71691SOL     OW16904  13.430   2.109   9.164
71691SOL    HW116905  13.503   2.170   9.170
71691SOL    HW216906  13.394   2.106   9.253
71692SOL     OW16907   6.325  10.786   8.672
71692SOL    HW116908   6.415  10.810   8.649
71692SOL    HW216909   6.333  10.735   8.752
71693SOL     OW16910   4.583  12.464   7.585
71693SOL    HW116911   4.508  12.498   7.634
71693SOL    HW216912   4.574  12.369   7.590
71694SOL     OW16913   4.935  14.754   1.434
71694SOL    HW116914   4.902  14.738   1.522
71694SOL    HW216915   4.951  14.667   1.399
71695SOL     OW16916   1.239  13.475   6.991
71695SOL    HW116917   1.332  13.496   6.979
71695SOL    HW216918   1.221  13.410   6.923
71696SOL     OW16919   8.865   0.910  14.421
71696SOL    HW116920   8.955   0.922  14.392
71696SOL    HW216921   8.821   0.991  14.395
71697SOL     OW16922   0.587  14.089   9.622
71697SOL    HW116923   0.536  14.168   9.640
71697SOL    HW216924   0.547  14.021   9.675
71698SOL     OW16925  12.105  12.829   5.084
71698SOL    HW116926  12.052  12.868   5.015
71698SOL    HW216927  12.189  12.875   5.079
71699SOL     OW16928  10.567  11.089   6.892
71699SOL    HW116929  10.477  11.092   6.925
71699SOL    HW216930  10.568  11.012   6.834
71700SOL     OW16931  11.145   6.404  11.530
71700SOL    HW116932  11.072   6.355  11.494
71700SOL    HW216933  11.201   6.424  11.454
71701SOL     OW16934   6.094  11.575   9.390
71701SOL    HW116935   6.166  11.513   9.399
71701SOL    HW216936   6.015  11.522   9.398
71702SOL     OW16937  13.707   6.220  11.345
71702SOL    HW116938  13.760   6.184  11.416
71702SOL    HW216939  13.628   6.252  11.388
71703SOL     OW16940   7.427   6.308  10.695
71703SOL    HW116941   7.457   6.237  10.751
71703SOL    HW216942   7.457   6.387  10.739
71704SOL     OW16943  12.344   2.716   0.105
71704SOL    HW116944  12.347   2.705   0.010
71704SOL    HW216945  12.436   2.722   0.131
71705SOL     OW16946   0.102  10.452   8.069
71705SOL    HW116947   0.167  10.384   8.089
71705SOL    HW216948   0.018  10.406   8.069
71706SOL     OW16949   8.731   2.395  10.911
71706SOL    HW116950   8.648   2.442  10.900
71706SOL    HW216951   8.798   2.459  10.887
71707SOL     OW16952   4.277   3.933  11.514
71707SOL    HW116953   4.364   3.897  11.494
71707SOL    HW216954   4.217   3.862  11.491
71708SOL     OW16955  12.869   1.741   4.935
71708SOL    HW116956  12.802   1.792   4.889
71708SOL    HW216957  12.847   1.750   5.028
71709SOL     OW16958   0.775   0.970   1.062
71709SOL    HW116959   0.780   0.891   1.009
71709SOL    HW216960   0.745   0.940   1.148
71710SOL     OW16961   1.356   0.487   8.621
71710SOL    HW116962   1.341   0.407   8.672
71710SOL    HW216963   1.283   0.544   8.642
71711SOL     OW16964   6.754   9.868   2.660
71711SOL    HW116965   6.724   9.794   2.713
71711SOL    HW216966   6.693   9.872   2.587
71712SOL     OW16967  12.507   9.414   0.006
71712SOL    HW116968  12.592   9.370   0.008
71712SOL    HW216969  12.486   9.422  14.795
71713SOL     OW16970   1.375  10.650   8.414
71713SOL    HW116971   1.431  10.625   8.340
71713SOL    HW216972   1.437  10.673   8.484
71714SOL     OW16973  11.087  11.582   0.526
71714SOL    HW116974  10.999  11.560   0.555
71714SOL    HW216975  11.115  11.652   0.586
71715SOL     OW16976   0.944   8.986   4.318
71715SOL    HW116977   0.952   8.944   4.232
71715SOL    HW216978   0.971   8.918   4.380
71716SOL     OW16979  13.066  11.597  12.578
71716SOL    HW116980  12.989  11.582  12.634
71716SOL    HW216981  13.031  11.640  12.500
71717SOL     OW16982   3.626   0.387   1.093
71717SOL    HW116983   3.704   0.429   1.128
71717SOL    HW216984   3.557   0.406   1.157
71718SOL     OW16985  11.191   9.992   9.828
71718SOL    HW116986  11.242   9.935   9.771
71718SOL    HW216987  11.141   9.932   9.884
71719SOL     OW16988   6.882  10.253   0.673
71719SOL    HW116989   6.906  10.166   0.706
71719SOL    HW216990   6.886  10.245   0.578
71720SOL     OW16991  13.417   6.019   0.430
71720SOL    HW116992  13.461   5.987   0.351
71720SOL    HW216993  13.327   5.986   0.421
71721SOL     OW16994   2.302   7.818   8.578
71721SOL    HW116995   2.217   7.788   8.545
71721SOL    HW216996   2.343   7.859   8.502
71722SOL     OW16997   7.357   7.771   7.975
71722SOL    HW116998   7.305   7.843   7.939
71722SOL    HW216999   7.445   7.784   7.938
71723SOL     OW17000  11.146  12.490   3.211
71723SOL    HW117001  11.150  12.465   3.304
71723SOL    HW217002  11.124  12.583   3.213
71724SOL     OW17003   9.692  10.086  13.631
71724SOL    HW117004   9.693   9.992  13.616
71724SOL    HW217005   9.784  10.112  13.635
71725SOL     OW17006   5.538   4.000   2.445
71725SOL    HW117007   5.564   4.091   2.436
71725SOL    HW217008   5.608   3.950   2.402
71726SOL     OW17009  10.397   7.454   1.865
71726SOL    HW117010  10.413   7.370   1.822
71726SOL    HW217011  10.304   7.452   1.886
71727SOL     OW17012   5.889   9.700   8.407
71727SOL    HW117013   5.967   9.755   8.409
71727SOL    HW217014   5.901   9.644   8.330
71728SOL     OW17015  12.128   7.636   3.154
71728SOL    HW117016  12.102   7.617   3.244
71728SOL    HW217017  12.181   7.716   3.161
71729SOL     OW17018  10.282   0.686   4.025
71729SOL    HW117019  10.223   0.611   4.029
71729SOL    HW217020  10.351   0.660   3.964
71730SOL     OW17021   2.518  13.162   5.043
71730SOL    HW117022   2.601  13.124   5.015
71730SOL    HW217023   2.543  13.232   5.104
71731SOL     OW17024  13.776   7.837  11.301
71731SOL    HW117025  13.863   7.855  11.266
71731SOL    HW217026  13.772   7.887  11.383
71732SOL     OW17027   5.041   0.820  12.532
71732SOL    HW117028   5.028   0.837  12.439
71732SOL    HW217029   5.131   0.849  12.549
71733SOL     OW17030   4.780   9.873  12.293
71733SOL    HW117031   4.829   9.896  12.214
71733SOL    HW217032   4.709   9.817  12.262
71734SOL     OW17033   8.127  11.190   2.130
71734SOL    HW117034   8.199  11.238   2.089
71734SOL    HW217035   8.124  11.106   2.083
71735SOL     OW17036   5.974  10.051   9.133
71735SOL    HW117037   5.952  10.039   9.225
71735SOL    HW217038   5.900  10.100   9.097
71736SOL     OW17039  14.614   5.365  12.650
71736SOL    HW117040  14.670   5.379  12.727
71736SOL    HW217041  14.578   5.277  12.663
71737SOL     OW17042   2.596   7.157   6.141
71737SOL    HW117043   2.655   7.094   6.181
71737SOL    HW217044   2.523   7.165   6.202
71738SOL     OW17045   2.597   9.135  12.326
71738SOL    HW117046   2.517   9.188  12.325
71738SOL    HW217047   2.612   9.114  12.234
71739SOL     OW17048   7.623   3.264   0.820
71739SOL    HW117049   7.612   3.226   0.907
71739SOL    HW217050   7.641   3.189   0.764
71740SOL     OW17051   9.780   9.813   1.011
71740SOL    HW117052   9.737   9.730   1.029
71740SOL    HW217053   9.873   9.797   1.028
71741SOL     OW17054  14.713   9.236  14.635
71741SOL    HW117055  14.637   9.289  14.610
71741SOL    HW217056  14.715   9.165  14.571
71742SOL     OW17057   3.779   9.571   9.043
71742SOL    HW117058   3.806   9.485   9.076
71742SOL    HW217059   3.690   9.583   9.076
71743SOL     OW17060   8.520   8.478   7.063
71743SOL    HW117061   8.460   8.551   7.076
71743SOL    HW217062   8.478   8.423   6.997
71744SOL     OW17063  11.848  11.326   7.484
71744SOL    HW117064  11.882  11.320   7.573
71744SOL    HW217065  11.759  11.293   7.490
71745SOL     OW17066   5.862  10.762  14.241
71745SOL    HW117067   5.936  10.809  14.280
71745SOL    HW217068   5.822  10.716  14.315
71746SOL     OW17069   7.364   5.781   0.821
71746SOL    HW117070   7.434   5.745   0.766
71746SOL    HW217071   7.404   5.791   0.907
71747SOL     OW17072  10.039   1.310   2.987
71747SOL    HW117073   9.997   1.382   3.034
71747SOL    HW217074  10.131   1.314   3.014
71748SOL     OW17075   0.924   3.221  13.014
71748SOL    HW117076   0.838   3.224  13.054
71748SOL    HW217077   0.915   3.275  12.935
71749SOL     OW17078  10.324   9.664  13.261
71749SOL    HW117079  10.326   9.730  13.191
71749SOL    HW217080  10.271   9.593  13.225
71750SOL     OW17081  12.862  11.330   8.485
71750SOL    HW117082  12.768  11.313   8.475
71750SOL    HW217083  12.891  11.355   8.398
71751SOL     OW17084   5.309   0.843  12.556
71751SOL    HW117085   5.321   0.894  12.475
71751SOL    HW217086   5.374   0.878  12.616
71752SOL     OW17087   7.659   4.256   0.782
71752SOL    HW117088   7.724   4.305   0.832
71752SOL    HW217089   7.581   4.310   0.785
71753SOL     OW17090   1.161   0.566   6.789
71753SOL    HW117091   1.079   0.613   6.774
71753SOL    HW217092   1.188   0.592   6.877
71754SOL     OW17093   5.480   1.542   8.301
71754SOL    HW117094   5.542   1.522   8.371
71754SOL    HW217095   5.407   1.482   8.316
71755SOL     OW17096   0.217  13.037  14.698
71755SOL    HW117097   0.198  13.115  14.645
71755SOL    HW217098   0.231  12.967  14.634
71756SOL     OW17099   5.856  14.542   7.066
71756SOL    HW117100   5.932  14.532   7.009
71756SOL    HW217101   5.858  14.633   7.094
71757SOL     OW17102   7.215   4.119  12.933
71757SOL    HW117103   7.171   4.053  12.880
71757SOL    HW217104   7.174   4.111  13.020
71758SOL     OW17105   6.694   8.551   5.240
71758SOL    HW117106   6.664   8.543   5.150
71758SOL    HW217107   6.727   8.463   5.262
71759SOL     OW17108  11.124   1.647   1.166
71759SOL    HW117109  11.158   1.730   1.200
71759SOL    HW217110  11.033   1.666   1.144
71760SOL     OW17111   8.540   4.540  10.629
71760SOL    HW117112   8.544   4.552  10.534
71760SOL    HW217113   8.632   4.537  10.656
71761SOL     OW17114   3.709  12.668   4.867
71761SOL    HW117115   3.635  12.617   4.833
71761SOL    HW217116   3.778  12.603   4.883
71762SOL     OW17117   0.283   8.459   2.041
71762SOL    HW117118   0.361   8.435   2.091
71762SOL    HW217119   0.268   8.385   1.983
71763SOL     OW17120   9.192  14.235  11.170
71763SOL    HW117121   9.141  14.176  11.226
71763SOL    HW217122   9.136  14.312  11.160
71764SOL     OW17123   5.755   8.417   7.819
71764SOL    HW117124   5.676   8.470   7.804
71764SOL    HW217125   5.828   8.476   7.803
71765SOL     OW17126   7.656   2.614  11.567
71765SOL    HW117127   7.564   2.641  11.560
71765SOL    HW217128   7.693   2.635  11.481
71766SOL     OW17129   9.493  11.859  13.815
71766SOL    HW117130   9.513  11.865  13.908
71766SOL    HW217131   9.539  11.780  13.785
71767SOL     OW17132  11.642  10.312   4.146
71767SOL    HW117133  11.622  10.243   4.082
71767SOL    HW217134  11.683  10.381   4.093
71768SOL     OW17135   4.306  11.852   5.931
71768SOL    HW117136   4.351  11.915   5.875
71768SOL    HW217137   4.353  11.770   5.917
71769SOL     OW17138   9.241   9.500  11.073
71769SOL    HW117139   9.269   9.575  11.020
71769SOL    HW217140   9.235   9.428  11.010
71770SOL     OW17141   5.414   3.663  12.824
71770SOL    HW117142   5.386   3.738  12.771
71770SOL    HW217143   5.332   3.625  12.855
71771SOL     OW17144  11.050   5.313   7.437
71771SOL    HW117145  11.080   5.403   7.427
71771SOL    HW217146  10.958   5.315   7.413
71772SOL     OW17147  10.674   5.022   0.585
71772SOL    HW117148  10.621   5.038   0.663
71772SOL    HW217149  10.705   5.108   0.558
71773SOL     OW17150   3.257   7.000  13.212
71773SOL    HW117151   3.211   6.953  13.281
71773SOL    HW217152   3.220   7.088  13.213
71774SOL     OW17153   9.910   4.828   4.423
71774SOL    HW117154   9.977   4.768   4.390
71774SOL    HW217155   9.887   4.793   4.509
71775SOL     OW17156  12.268  14.483   3.928
71775SOL    HW117157  12.240  14.457   3.841
71775SOL    HW217158  12.233  14.415   3.986
71776SOL     OW17159   6.440  10.438   4.269
71776SOL    HW117160   6.471  10.528   4.261
71776SOL    HW217161   6.493  10.400   4.340
71777SOL     OW17162   5.390  11.144  14.228
71777SOL    HW117163   5.364  11.052  14.228
71777SOL    HW217164   5.462  11.148  14.165
71778SOL     OW17165   8.216   3.392   8.108
71778SOL    HW117166   8.155   3.450   8.153
71778SOL    HW217167   8.176   3.306   8.112
71779SOL     OW17168   3.390   4.792  11.866
71779SOL    HW117169   3.485   4.789  11.851
71779SOL    HW217170   3.355   4.839  11.791
71780SOL     OW17171   3.917   8.851  10.917
71780SOL    HW117172   3.999   8.894  10.939
71780SOL    HW217173   3.915   8.774  10.974
71781SOL     OW17174  11.108  14.720   9.600
71781SOL    HW117175  11.125  14.742   9.508
71781SOL    HW217176  11.127  14.801   9.648
71782SOL     OW17177   7.341   2.237   3.005
71782SOL    HW117178   7.431   2.265   3.023
71782SOL    HW217179   7.292   2.260   3.084
71783SOL     OW17180  14.288   7.517   8.048
71783SOL    HW117181  14.347   7.447   8.077
71783SOL    HW217182  14.208   7.502   8.098
71784SOL     OW17183  14.742  10.754   6.023
71784SOL    HW117184  14.784  10.700   5.956
71784SOL    HW217185  14.673  10.800   5.977
71785SOL     OW17186   3.917   2.876   9.199
71785SOL    HW117187   3.967   2.795   9.188
71785SOL    HW217188   3.827   2.852   9.178
71786SOL     OW17189   3.805  14.600  14.048
71786SOL    HW117190   3.787  14.578  13.957
71786SOL    HW217191   3.880  14.659  14.044
71787SOL     OW17192  12.826  12.432   4.552
71787SOL    HW117193  12.750  12.381   4.525
71787SOL    HW217194  12.798  12.478   4.632
71788SOL     OW17195   3.561   0.687   4.998
71788SOL    HW117196   3.623   0.615   4.985
71788SOL    HW217197   3.513   0.663   5.078
71789SOL     OW17198   6.842   0.933   5.008
71789SOL    HW117199   6.792   0.852   5.015
71789SOL    HW217200   6.787   0.990   4.953
71790SOL     OW17201   9.822  12.268  14.725
71790SOL    HW117202   9.767  12.340  14.694
71790SOL    HW217203   9.873  12.306  14.796
71791SOL     OW17204   3.101   5.110  10.389
71791SOL    HW117205   3.167   5.054  10.349
71791SOL    HW217206   3.018   5.064  10.375
71792SOL     OW17207  13.072   0.232  11.908
71792SOL    HW117208  13.047   0.165  11.844
71792SOL    HW217209  13.164   0.214  11.927
71793SOL     OW17210   2.810   9.885  12.653
71793SOL    HW117211   2.864   9.806  12.651
71793SOL    HW217212   2.741   9.865  12.717
71794SOL     OW17213  13.503  12.407   3.098
71794SOL    HW117214  13.533  12.362   3.176
71794SOL    HW217215  13.449  12.342   3.052
71795SOL     OW17216   8.242   2.418   2.873
71795SOL    HW117217   8.278   2.363   2.943
71795SOL    HW217218   8.275   2.378   2.792
71796SOL     OW17219   0.737   7.364   7.898
71796SOL    HW117220   0.716   7.341   7.989
71796SOL    HW217221   0.824   7.327   7.883
71797SOL     OW17222   6.092   8.064   3.064
71797SOL    HW117223   6.112   8.053   2.971
71797SOL    HW217224   6.062   8.154   3.072
71798SOL     OW17225   4.266  12.566   3.922
71798SOL    HW117226   4.194  12.596   3.977
71798SOL    HW217227   4.249  12.605   3.836
71799SOL     OW17228  11.935  13.503   4.437
71799SOL    HW117229  12.013  13.545   4.400
71799SOL    HW217230  11.871  13.506   4.366
71800SOL     OW17231   6.512   0.497   3.390
71800SOL    HW117232   6.539   0.473   3.301
71800SOL    HW217233   6.455   0.572   3.378
71801SOL     OW17234   6.628   8.984   7.204
71801SOL    HW117235   6.673   9.015   7.282
71801SOL    HW217236   6.697   8.943   7.151
71802SOL     OW17237   3.018  11.520   5.451
71802SOL    HW117238   2.958  11.476   5.511
71802SOL    HW217239   2.990  11.492   5.364
71803SOL     OW17240   7.006   4.787   7.516
71803SOL    HW117241   6.984   4.858   7.456
71803SOL    HW217242   6.985   4.823   7.603
71804SOL     OW17243   4.471  14.463   2.359
71804SOL    HW117244   4.402  14.399   2.378
71804SOL    HW217245   4.530  14.418   2.298
71805SOL     OW17246   7.222  14.295  12.870
71805SOL    HW117247   7.188  14.273  12.957
71805SOL    HW217248   7.288  14.363  12.887
71806SOL     OW17249  11.144  11.513   2.095
71806SOL    HW117250  11.147  11.526   2.000
71806SOL    HW217251  11.231  11.482   2.118
71807SOL     OW17252   5.423  14.219  14.706
71807SOL    HW117253   5.445  14.175  14.787
71807SOL    HW217254   5.496  14.200  14.647
71808SOL     OW17255   3.350   3.890   8.089
71808SOL    HW117256   3.304   3.896   8.005
71808SOL    HW217257   3.433   3.934   8.074
71809SOL     OW17258  10.270  11.506   0.395
71809SOL    HW117259  10.198  11.548   0.442
71809SOL    HW217260  10.262  11.538   0.306
71810SOL     OW17261   7.977   4.462   0.500
71810SOL    HW117262   8.070   4.470   0.523
71810SOL    HW217263   7.974   4.488   0.408
71811SOL     OW17264   7.135   6.453   8.047
71811SOL    HW117265   7.201   6.489   7.988
71811SOL    HW217266   7.068   6.416   7.988
71812SOL     OW17267   1.638  11.564  13.486
71812SOL    HW117268   1.711  11.515  13.523
71812SOL    HW217269   1.648  11.652  13.522
71813SOL     OW17270  11.298   1.207   6.698
71813SOL    HW117271  11.300   1.297   6.668
71813SOL    HW217272  11.207   1.193   6.727
71814SOL     OW17273  13.351  13.065  14.272
71814SOL    HW117274  13.424  13.111  14.315
71814SOL    HW217275  13.274  13.092  14.321
71815SOL     OW17276   5.376   4.912   2.667
71815SOL    HW117277   5.343   4.835   2.713
71815SOL    HW217278   5.299   4.967   2.653
71816SOL     OW17279   6.321   8.634   0.385
71816SOL    HW117280   6.341   8.724   0.357
71816SOL    HW217281   6.324   8.583   0.305
71817SOL     OW17282  10.657   0.297   4.394
71817SOL    HW117283  10.589   0.278   4.459
71817SOL    HW217284  10.739   0.267   4.435
71818SOL     OW17285   2.423   0.820   3.273
71818SOL    HW117286   2.364   0.755   3.235
71818SOL    HW217287   2.376   0.903   3.265
71819SOL     OW17288   1.071   8.769   4.003
71819SOL    HW117289   1.001   8.754   4.067
71819SOL    HW217290   1.043   8.847   3.954
71820SOL     OW17291   5.336  14.396   6.039
71820SOL    HW117292   5.311  14.458   5.971
71820SOL    HW217293   5.423  14.425   6.066
71821SOL     OW17294   5.601  14.142  10.114
71821SOL    HW117295   5.650  14.224  10.115
71821SOL    HW217296   5.571  14.133  10.023
71822SOL     OW17297   7.464   2.184   4.017
71822SOL    HW117298   7.523   2.109   4.022
71822SOL    HW217299   7.522   2.258   4.000
71823SOL     OW17300  14.233  13.357   1.714
71823SOL    HW117301  14.159  13.322   1.765
71823SOL    HW217302  14.242  13.297   1.640
71824SOL     OW17303   5.863   6.909   8.844
71824SOL    HW117304   5.791   6.877   8.791
71824SOL    HW217305   5.849   6.870   8.930
71825SOL     OW17306  13.071   2.117   1.071
71825SOL    HW117307  13.032   2.196   1.107
71825SOL    HW217308  13.162   2.141   1.053
71826SOL     OW17309  13.996   6.406  11.979
71826SOL    HW117310  14.041   6.347  11.919
71826SOL    HW217311  13.989   6.356  12.061
71827SOL     OW17312   7.403   3.778   9.225
71827SOL    HW117313   7.473   3.764   9.289
71827SOL    HW217314   7.336   3.826   9.273
71828SOL     OW17315   2.760   8.813  10.151
71828SOL    HW117316   2.825   8.803  10.082
71828SOL    HW217317   2.727   8.903  10.140
71829SOL     OW17318  13.154  11.567  14.653
71829SOL    HW117319  13.240  11.527  14.663
71829SOL    HW217320  13.154  11.601  14.563
71830SOL     OW17321  12.847   0.535   0.142
71830SOL    HW117322  12.931   0.556   0.100
71830SOL    HW217323  12.864   0.546   0.235
71831SOL     OW17324   8.855   7.187   5.653
71831SOL    HW117325   8.788   7.156   5.715
71831SOL    HW217326   8.936   7.146   5.683
71832SOL     OW17327  11.580   9.777   6.525
71832SOL    HW117328  11.650   9.789   6.461
71832SOL    HW217329  11.617   9.718   6.591
71833SOL     OW17330  10.507  12.963   1.024
71833SOL    HW117331  10.507  12.989   0.932
71833SOL    HW217332  10.478  13.040   1.072
71834SOL     OW17333   3.375  11.372   4.878
71834SOL    HW117334   3.299  11.402   4.928
71834SOL    HW217335   3.404  11.293   4.924
71835SOL     OW17336   8.640   7.945   9.314
71835SOL    HW117337   8.704   8.014   9.294
71835SOL    HW217338   8.635   7.944   9.410
71836SOL     OW17339   5.018  12.414   6.652
71836SOL    HW117340   5.048  12.499   6.621
71836SOL    HW217341   4.973  12.432   6.734
71837SOL     OW17342  11.848  14.122   7.040
71837SOL    HW117343  11.850  14.206   7.086
71837SOL    HW217344  11.762  14.121   6.997
71838SOL     OW17345   6.138   9.455   0.453
71838SOL    HW117346   6.048   9.483   0.470
71838SOL    HW217347   6.180   9.531   0.414
71839SOL     OW17348   2.127   9.750   1.240
71839SOL    HW117349   2.206   9.699   1.222
71839SOL    HW217350   2.076   9.747   1.159
71840SOL     OW17351  12.975   0.850  13.593
71840SOL    HW117352  13.019   0.932  13.569
71840SOL    HW217353  12.883   0.866  13.573
71841SOL     OW17354   9.378   5.201   9.630
71841SOL    HW117355   9.388   5.114   9.591
71841SOL    HW217356   9.371   5.184   9.724
71842SOL     OW17357  12.652   2.625   1.716
71842SOL    HW117358  12.588   2.695   1.706
71842SOL    HW217359  12.602   2.551   1.750
71843SOL     OW17360   3.170  11.870  10.197
71843SOL    HW117361   3.118  11.853  10.119
71843SOL    HW217362   3.257  11.837  10.176
71844SOL     OW17363   0.552   9.335  11.998
71844SOL    HW117364   0.531   9.368  12.085
71844SOL    HW217365   0.601   9.406  11.956
71845SOL     OW17366  13.191   5.962   2.492
71845SOL    HW117367  13.179   5.904   2.417
71845SOL    HW217368  13.138   5.923   2.561
71846SOL     OW17369  10.978  12.155   4.492
71846SOL    HW117370  10.896  12.163   4.443
71846SOL    HW217371  11.034  12.225   4.456
71847SOL     OW17372  14.423   0.710   3.719
71847SOL    HW117373  14.359   0.652   3.677
71847SOL    HW217374  14.376   0.748   3.792
71848SOL     OW17375  11.224   7.329  10.703
71848SOL    HW117376  11.317   7.313  10.685
71848SOL    HW217377  11.220   7.423  10.723
71849SOL     OW17378   5.413   9.128  11.411
71849SOL    HW117379   5.387   9.068  11.480
71849SOL    HW217380   5.442   9.071  11.340
71850SOL     OW17381   3.741   9.842   5.334
71850SOL    HW117382   3.803   9.812   5.401
71850SOL    HW217383   3.657   9.805   5.361
71851SOL     OW17384  13.293  12.496   2.701
71851SOL    HW117385  13.231  12.544   2.646
71851SOL    HW217386  13.350  12.565   2.737
71852SOL     OW17387   6.814   1.214  14.234
71852SOL    HW117388   6.783   1.293  14.189
71852SOL    HW217389   6.906   1.231  14.252
71853SOL     OW17390  13.603   7.194  14.703
71853SOL    HW117391  13.547   7.266  14.734
71853SOL    HW217392  13.593   7.195  14.608
71854SOL     OW17393   6.357  10.933   2.938
71854SOL    HW117394   6.431  10.959   2.993
71854SOL    HW217395   6.314  11.016   2.916
71855SOL     OW17396   2.667   3.006  14.223
71855SOL    HW117397   2.576   3.024  14.200
71855SOL    HW217398   2.715   3.017  14.141
71856SOL     OW17399  12.632   0.657   2.025
71856SOL    HW117400  12.538   0.671   2.037
71856SOL    HW217401  12.648   0.569   2.058
71857SOL     OW17402   8.787   8.625   4.519
71857SOL    HW117403   8.711   8.615   4.576
71857SOL    HW217404   8.789   8.546   4.467
71858SOL     OW17405   2.308  12.064   7.186
71858SOL    HW117406   2.287  12.097   7.099
71858SOL    HW217407   2.390  12.016   7.175
71859SOL     OW17408   0.763  10.883   3.070
71859SOL    HW117409   0.799  10.971   3.057
71859SOL    HW217410   0.839  10.826   3.078
71860SOL     OW17411   6.770  12.692   8.120
71860SOL    HW117412   6.749  12.609   8.163
71860SOL    HW217413   6.704  12.753   8.152
71861SOL     OW17414   6.439   4.080  11.173
71861SOL    HW117415   6.395   4.117  11.250
71861SOL    HW217416   6.463   4.156  11.120
71862SOL     OW17417   8.491   1.952  10.877
71862SOL    HW117418   8.530   1.985  10.958
71862SOL    HW217419   8.444   1.873  10.903
71863SOL     OW17420   4.265   3.424   3.228
71863SOL    HW117421   4.353   3.434   3.191
71863SOL    HW217422   4.225   3.511   3.221
71864SOL     OW17423   2.209   0.398   7.647
71864SOL    HW117424   2.219   0.311   7.687
71864SOL    HW217425   2.214   0.382   7.553
71865SOL     OW17426   8.780   5.110   0.116
71865SOL    HW117427   8.706   5.115   0.177
71865SOL    HW217428   8.851   5.155   0.162
71866SOL     OW17429   5.688   6.504   1.579
71866SOL    HW117430   5.767   6.484   1.529
71866SOL    HW217431   5.618   6.456   1.535
71867SOL     OW17432  14.434   6.369   7.447
71867SOL    HW117433  14.349   6.402   7.419
71867SOL    HW217434  14.425   6.274   7.442
71868SOL     OW17435   4.749   7.361   4.586
71868SOL    HW117436   4.760   7.289   4.648
71868SOL    HW217437   4.657   7.358   4.561
71869SOL     OW17438   7.790  10.613   6.215
71869SOL    HW117439   7.851  10.556   6.261
71869SOL    HW217440   7.740  10.554   6.159
71870SOL     OW17441   3.642   7.431   6.922
71870SOL    HW117442   3.647   7.355   6.864
71870SOL    HW217443   3.662   7.397   7.009
71871SOL     OW17444   6.720  11.689   7.556
71871SOL    HW117445   6.745  11.769   7.602
71871SOL    HW217446   6.627  11.679   7.574
71872SOL     OW17447   1.018  14.127  14.340
71872SOL    HW117448   1.036  14.052  14.397
71872SOL    HW217449   1.044  14.203  14.393
71873SOL     OW17450   6.055  11.157   3.970
71873SOL    HW117451   6.080  11.072   3.935
71873SOL    HW217452   6.012  11.202   3.897
71874SOL     OW17453   1.970   6.863   3.232
71874SOL    HW117454   1.929   6.776   3.228
71874SOL    HW217455   2.064   6.844   3.233
71875SOL     OW17456  11.548  10.635   8.759
71875SOL    HW117457  11.528  10.553   8.714
71875SOL    HW217458  11.504  10.627   8.844
71876SOL     OW17459   5.028   2.252  14.610
71876SOL    HW117460   5.004   2.221  14.698
71876SOL    HW217461   5.000   2.182  14.551
71877SOL     OW17462   0.733   1.667   4.843
71877SOL    HW117463   0.762   1.741   4.790
71877SOL    HW217464   0.642   1.688   4.866
71878SOL     OW17465  12.203   9.474   2.482
71878SOL    HW117466  12.169   9.415   2.550
71878SOL    HW217467  12.142   9.465   2.409
71879SOL     OW17468   0.462  11.077   6.897
71879SOL    HW117469   0.511  11.084   6.815
71879SOL    HW217470   0.371  11.065   6.870
71880SOL     OW17471   2.703   0.842  10.789
71880SOL    HW117472   2.702   0.929  10.830
71880SOL    HW217473   2.678   0.859  10.698
71881SOL     OW17474   5.271   6.034  10.714
71881SOL    HW117475   5.234   6.103  10.770
71881SOL    HW217476   5.334   6.080  10.658
71882SOL     OW17477   9.234   6.151  11.312
71882SOL    HW117478   9.147   6.147  11.272
71882SOL    HW217479   9.287   6.089  11.262
71883SOL     OW17480  12.069   3.235   1.379
71883SOL    HW117481  11.996   3.259   1.435
71883SOL    HW217482  12.140   3.294   1.405
71884SOL     OW17483  13.969  14.578  13.969
71884SOL    HW117484  13.897  14.565  14.031
71884SOL    HW217485  13.993  14.490  13.941
71885SOL     OW17486   2.408  12.304   2.322
71885SOL    HW117487   2.464  12.379   2.339
71885SOL    HW217488   2.320  12.342   2.311
71886SOL     OW17489   2.614  13.111   0.615
71886SOL    HW117490   2.524  13.090   0.640
71886SOL    HW217491   2.639  13.182   0.675
71887SOL     OW17492  13.005  11.100   2.586
71887SOL    HW117493  13.031  11.088   2.677
71887SOL    HW217494  13.063  11.170   2.554
71888SOL     OW17495   5.633   8.129  12.925
71888SOL    HW117496   5.592   8.212  12.901
71888SOL    HW217497   5.592   8.105  13.008
71889SOL     OW17498   1.302   3.717   8.883
71889SOL    HW117499   1.206   3.718   8.873
71889SOL    HW217500   1.321   3.633   8.925
71890SOL     OW17501   3.065   5.002   7.434
71890SOL    HW117502   3.007   5.019   7.360
71890SOL    HW217503   3.151   4.991   7.395
71891SOL     OW17504   0.938   9.891   1.377
71891SOL    HW117505   0.929   9.907   1.471
71891SOL    HW217506   0.874   9.949   1.336
71892SOL     OW17507   2.115  13.168   3.837
71892SOL    HW117508   2.181  13.232   3.810
71892SOL    HW217509   2.041  13.184   3.779
71893SOL     OW17510   4.144   0.530   8.766
71893SOL    HW117511   4.135   0.549   8.859
71893SOL    HW217512   4.058   0.549   8.729
71894SOL     OW17513   7.732  11.305   5.501
71894SOL    HW117514   7.699  11.301   5.411
71894SOL    HW217515   7.714  11.218   5.537
71895SOL     OW17516   6.286   6.854   9.237
71895SOL    HW117517   6.368   6.808   9.257
71895SOL    HW217518   6.313   6.943   9.216
71896SOL     OW17519   2.026   8.770   3.423
71896SOL    HW117520   2.037   8.728   3.337
71896SOL    HW217521   1.932   8.787   3.429
71897SOL     OW17522   2.990   2.162   6.131
71897SOL    HW117523   2.967   2.226   6.199
71897SOL    HW217524   3.075   2.129   6.157
71898SOL     OW17525   9.034   3.659  11.632
71898SOL    HW117526   8.984   3.600  11.687
71898SOL    HW217527   9.049   3.736  11.686
71899SOL     OW17528   8.530  11.345  13.569
71899SOL    HW117529   8.535  11.427  13.619
71899SOL    HW217530   8.481  11.368  13.490
71900SOL     OW17531   8.841   4.458   5.916
71900SOL    HW117532   8.761   4.508   5.934
71900SOL    HW217533   8.904   4.492   5.979
71901SOL     OW17534  13.274  10.024   0.693
71901SOL    HW117535  13.207  10.013   0.760
71901SOL    HW217536  13.225  10.041   0.612
71902SOL     OW17537   1.264   3.899   1.957
71902SOL    HW117538   1.334   3.937   1.904
71902SOL    HW217539   1.291   3.915   2.048
71903SOL     OW17540  11.454   4.285   0.490
71903SOL    HW117541  11.444   4.351   0.558
71903SOL    HW217542  11.383   4.303   0.428
71904SOL     OW17543  14.049  12.539   9.792
71904SOL    HW117544  14.020  12.512   9.705
71904SOL    HW217545  14.045  12.634   9.791
71905SOL     OW17546   6.738  11.624   6.432
71905SOL    HW117547   6.826  11.656   6.453
71905SOL    HW217548   6.686  11.644   6.510
71906SOL     OW17549  11.434   1.385   0.716
71906SOL    HW117550  11.430   1.346   0.629
71906SOL    HW217551  11.416   1.312   0.775
71907SOL     OW17552   9.425   7.424  11.654
71907SOL    HW117553   9.450   7.451  11.743
71907SOL    HW217554   9.357   7.485  11.628
71908SOL     OW17555   7.616   3.753   0.696
71908SOL    HW117556   7.679   3.682   0.707
71908SOL    HW217557   7.542   3.714   0.649
71909SOL     OW17558   9.961   5.768   9.253
71909SOL    HW117559   9.995   5.780   9.342
71909SOL    HW217560   9.909   5.687   9.259
71910SOL     OW17561  11.598   2.384   2.945
71910SOL    HW117562  11.576   2.387   2.852
71910SOL    HW217563  11.656   2.309   2.954
71911SOL     OW17564   6.624   8.230   2.549
71911SOL    HW117565   6.647   8.315   2.587
71911SOL    HW217566   6.574   8.253   2.470
71912SOL     OW17567  10.716   1.443   0.635
71912SOL    HW117568  10.686   1.357   0.605
71912SOL    HW217569  10.794   1.425   0.686
71913SOL     OW17570  12.646  14.789   9.573
71913SOL    HW117571  12.615  14.733   9.502
71913SOL    HW217572  12.679  14.728   9.638
71914SOL     OW17573  12.924   7.036   2.572
71914SOL    HW117574  12.901   6.957   2.525
71914SOL    HW217575  13.013   7.019   2.605
71915SOL     OW17576   0.228   2.509   3.902
71915SOL    HW117577   0.245   2.603   3.909
71915SOL    HW217578   0.313   2.468   3.917
71916SOL     OW17579   7.837  12.545  11.138
71916SOL    HW117580   7.918  12.568  11.184
71916SOL    HW217581   7.838  12.449  11.134
71917SOL     OW17582   9.602   7.962  12.358
71917SOL    HW117583   9.624   7.925  12.443
71917SOL    HW217584   9.559   8.045  12.379
71918SOL     OW17585  11.998  11.593  13.006
71918SOL    HW117586  12.083  11.619  13.042
71918SOL    HW217587  11.983  11.654  12.934
71919SOL     OW17588  14.108   3.892   9.244
71919SOL    HW117589  14.104   3.943   9.326
71919SOL    HW217590  14.138   3.955   9.179
71920SOL     OW17591  13.647   1.608   0.661
71920SOL    HW117592  13.598   1.529   0.638
71920SOL    HW217593  13.620   1.627   0.751
71921SOL     OW17594  11.998  12.990  10.810
71921SOL    HW117595  12.060  12.920  10.830
71921SOL    HW217596  11.973  12.974  10.719
71922SOL     OW17597  11.049   1.748   2.189
71922SOL    HW117598  11.068   1.696   2.112
71922SOL    HW217599  11.087   1.834   2.170
71923SOL     OW17600   0.539   2.585   5.748
71923SOL    HW117601   0.478   2.536   5.692
71923SOL    HW217602   0.605   2.618   5.688
71924SOL     OW17603  14.245   7.419  11.047
71924SOL    HW117604  14.209   7.338  11.013
71924SOL    HW217605  14.255   7.403  11.141
71925SOL     OW17606   2.899   3.276  10.731
71925SOL    HW117607   2.971   3.267  10.793
71925SOL    HW217608   2.937   3.319  10.655
71926SOL     OW17609  11.560   9.279   6.725
71926SOL    HW117610  11.625   9.228   6.677
71926SOL    HW217611  11.575   9.256   6.817
71927SOL     OW17612   0.266   8.385   9.552
71927SOL    HW117613   0.357   8.399   9.579
71927SOL    HW217614   0.236   8.312   9.605
71928SOL     OW17615   9.314  13.768  13.709
71928SOL    HW117616   9.328  13.859  13.735
71928SOL    HW217617   9.224  13.767  13.676
71929SOL     OW17618   5.476   8.074   0.738
71929SOL    HW117619   5.434   8.158   0.757
71929SOL    HW217620   5.443   8.050   0.651
71930SOL     OW17621   8.319   2.955   1.057
71930SOL    HW117622   8.389   2.928   1.117
71930SOL    HW217623   8.329   3.050   1.050
71931SOL     OW17624  10.425  11.824   9.641
71931SOL    HW117625  10.427  11.844   9.548
71931SOL    HW217626  10.516  11.807   9.664
71932SOL     OW17627   5.780  12.841   9.760
71932SOL    HW117628   5.718  12.798   9.702
71932SOL    HW217629   5.737  12.923   9.785
71933SOL     OW17630  14.104   9.266  12.799
71933SOL    HW117631  14.045   9.255  12.873
71933SOL    HW217632  14.082   9.351  12.762
71934SOL     OW17633   9.652   7.244   4.037
71934SOL    HW117634   9.720   7.184   4.006
71934SOL    HW217635   9.594   7.189   4.090
71935SOL     OW17636  14.114   0.509   9.312
71935SOL    HW117637  14.106   0.555   9.229
71935SOL    HW217638  14.056   0.556   9.372
71936SOL     OW17639   8.157  12.161   1.293
71936SOL    HW117640   8.240  12.200   1.267
71936SOL    HW217641   8.181  12.077   1.330
71937SOL     OW17642  11.434   7.725   3.434
71937SOL    HW117643  11.483   7.724   3.516
71937SOL    HW217644  11.356   7.778   3.454
71938SOL     OW17645  13.142  14.086  12.298
71938SOL    HW117646  13.119  14.025  12.368
71938SOL    HW217647  13.077  14.069  12.229
71939SOL     OW17648   5.118  13.432  13.436
71939SOL    HW117649   5.029  13.401  13.453
71939SOL    HW217650   5.116  13.524  13.462
71940SOL     OW17651  13.466   3.513   4.250
71940SOL    HW117652  13.466   3.424   4.285
71940SOL    HW217653  13.386   3.552   4.286
71941SOL     OW17654   8.147  14.296  10.804
71941SOL    HW117655   8.135  14.209  10.765
71941SOL    HW217656   8.075  14.348  10.768
71942SOL     OW17657   6.772   1.591   0.839
71942SOL    HW117658   6.859   1.614   0.808
71942SOL    HW217659   6.783   1.577   0.933
71943SOL     OW17660   4.962  12.200  13.511
71943SOL    HW117661   4.986  12.203  13.604
71943SOL    HW217662   5.011  12.272  13.471
71944SOL     OW17663  11.658   5.350   8.727
71944SOL    HW117664  11.685   5.428   8.776
71944SOL    HW217665  11.731   5.333   8.667
71945SOL     OW17666  14.567   0.224   0.285
71945SOL    HW117667  14.622   0.299   0.265
71945SOL    HW217668  14.595   0.196   0.373
71946SOL     OW17669  13.713   8.644  11.212
71946SOL    HW117670  13.750   8.666  11.297
71946SOL    HW217671  13.754   8.706  11.151
71947SOL     OW17672   8.606   3.226   0.767
71947SOL    HW117673   8.639   3.195   0.682
71947SOL    HW217674   8.518   3.191   0.772
71948SOL     OW17675  11.806   8.301   2.506
71948SOL    HW117676  11.880   8.301   2.446
71948SOL    HW217677  11.782   8.393   2.515
71949SOL     OW17678   7.628   6.186   9.018
71949SOL    HW117679   7.635   6.156   9.109
71949SOL    HW217680   7.714   6.222   8.998
71950SOL     OW17681   8.979   2.642   5.677
71950SOL    HW117682   9.042   2.578   5.646
71950SOL    HW217683   9.023   2.726   5.669
71951SOL     OW17684  13.518  12.822   6.643
71951SOL    HW117685  13.547  12.879   6.714
71951SOL    HW217686  13.455  12.875   6.594
71952SOL     OW17687   8.070  13.982  11.257
71952SOL    HW117688   8.137  13.971  11.325
71952SOL    HW217689   8.117  14.019  11.183
71953SOL     OW17690  14.030  12.154   8.324
71953SOL    HW117691  14.007  12.207   8.247
71953SOL    HW217692  13.962  12.174   8.388
71954SOL     OW17693   0.730  13.098  13.804
71954SOL    HW117694   0.722  13.003  13.801
71954SOL    HW217695   0.824  13.114  13.817
71955SOL     OW17696   9.492   6.076   1.791
71955SOL    HW117697   9.531   6.080   1.879
71955SOL    HW217698   9.507   5.985   1.763
71956SOL     OW17699   1.001   5.806   2.954
71956SOL    HW117700   1.018   5.851   3.037
71956SOL    HW217701   0.931   5.744   2.973
71957SOL     OW17702   6.958   1.121  11.328
71957SOL    HW117703   6.868   1.116  11.295
71957SOL    HW217704   7.013   1.105  11.252
71958SOL     OW17705   6.611   9.219   3.882
71958SOL    HW117706   6.661   9.296   3.855
71958SOL    HW217707   6.670   9.171   3.941
71959SOL     OW17708   4.944   1.496   1.902
71959SOL    HW117709   4.953   1.590   1.887
71959SOL    HW217710   4.908   1.461   1.821
71960SOL     OW17711   7.130  13.499   3.784
71960SOL    HW117712   7.090  13.584   3.798
71960SOL    HW217713   7.154  13.498   3.691
71961SOL     OW17714  10.593   0.637   0.574
71961SOL    HW117715  10.665   0.679   0.621
71961SOL    HW217716  10.540   0.597   0.643
71962SOL     OW17717  12.267   7.148   8.616
71962SOL    HW117718  12.194   7.111   8.566
71962SOL    HW217719  12.314   7.202   8.553
71963SOL     OW17720  13.232   5.600   8.055
71963SOL    HW117721  13.169   5.656   8.099
71963SOL    HW217722  13.316   5.622   8.095
71964SOL     OW17723  13.276   8.176   4.373
71964SOL    HW117724  13.248   8.123   4.298
71964SOL    HW217725  13.356   8.219   4.344
71965SOL     OW17726  13.505  10.520   6.316
71965SOL    HW117727  13.551  10.569   6.248
71965SOL    HW217728  13.414  10.516   6.285
71966SOL     OW17729   1.813   6.728   9.993
71966SOL    HW117730   1.788   6.795   9.930
71966SOL    HW217731   1.731   6.701  10.034
71967SOL     OW17732   0.425   7.439   5.467
71967SOL    HW117733   0.358   7.487   5.517
71967SOL    HW217734   0.508   7.471   5.501
71968SOL     OW17735   4.110   4.059   6.873
71968SOL    HW117736   4.155   3.977   6.895
71968SOL    HW217737   4.180   4.116   6.842
71969SOL     OW17738   8.995   6.516  13.541
71969SOL    HW117739   8.905   6.521  13.508
71969SOL    HW217740   8.997   6.581  13.612
71970SOL     OW17741   5.101   3.620   7.846
71970SOL    HW117742   5.045   3.605   7.923
71970SOL    HW217743   5.101   3.715   7.835
71971SOL     OW17744   2.151   6.874   3.591
71971SOL    HW117745   2.234   6.918   3.570
71971SOL    HW217746   2.121   6.916   3.671
71972SOL     OW17747   0.728   8.278   1.802
71972SOL    HW117748   0.646   8.327   1.799
71972SOL    HW217749   0.707   8.198   1.849
71973SOL     OW17750  10.237  10.609   7.831
71973SOL    HW117751  10.321  10.654   7.841
71973SOL    HW217752  10.191  10.657   7.763
71974SOL     OW17753   0.648   6.472   4.933
71974SOL    HW117754   0.635   6.532   4.859
71974SOL    HW217755   0.696   6.525   4.997
71975SOL     OW17756   6.756   6.285  10.273
71975SOL    HW117757   6.746   6.229  10.196
71975SOL    HW217758   6.762   6.373  10.237
71976SOL     OW17759  11.704   5.623   5.769
71976SOL    HW117760  11.790   5.657   5.743
71976SOL    HW217761  11.642   5.672   5.715
71977SOL     OW17762   3.020   7.986  10.971
71977SOL    HW117763   2.971   8.039  10.909
71977SOL    HW217764   2.966   7.985  11.050
71978SOL     OW17765   4.182  12.134   0.094
71978SOL    HW117766   4.192  12.081   0.173
71978SOL    HW217767   4.098  12.108   0.057
71979SOL     OW17768   3.464  12.641   5.989
71979SOL    HW117769   3.482  12.684   6.072
71979SOL    HW217770   3.390  12.689   5.952
71980SOL     OW17771  11.853   0.835   2.727
71980SOL    HW117772  11.886   0.914   2.770
71980SOL    HW217773  11.765   0.859   2.697
71981SOL     OW17774  14.803   1.383   6.516
71981SOL    HW117775   0.010   1.397   6.547
71981SOL    HW217776  14.749   1.386   6.595
71982SOL     OW17777   7.757   3.478   5.522
71982SOL    HW117778   7.708   3.552   5.557
71982SOL    HW217779   7.843   3.485   5.564
71983SOL     OW17780  11.347   7.925   2.808
71983SOL    HW117781  11.442   7.940   2.814
71983SOL    HW217782  11.309   8.013   2.810
71984SOL     OW17783   9.841   6.333   6.597
71984SOL    HW117784   9.911   6.398   6.601
71984SOL    HW217785   9.789   6.348   6.676
71985SOL     OW17786  11.802   9.613   8.667
71985SOL    HW117787  11.806   9.650   8.755
71985SOL    HW217788  11.709   9.596   8.652
71986SOL     OW17789   3.967  13.193   0.631
71986SOL    HW117790   4.058  13.223   0.631
71986SOL    HW217791   3.973  13.100   0.652
71987SOL     OW17792  11.475   0.702  11.519
71987SOL    HW117793  11.444   0.694  11.610
71987SOL    HW217794  11.421   0.771  11.481
71988SOL     OW17795   6.189  13.560  12.672
71988SOL    HW117796   6.264  13.501  12.677
71988SOL    HW217797   6.182  13.598  12.760
71989SOL     OW17798  12.814   1.862  10.768
71989SOL    HW117799  12.761   1.782  10.768
71989SOL    HW217800  12.806   1.895  10.678
71990SOL     OW17801  14.283  14.525   8.855
71990SOL    HW117802  14.219  14.489   8.794
71990SOL    HW217803  14.360  14.543   8.800
71991SOL     OW17804  12.441   2.600   2.402
71991SOL    HW117805  12.472   2.654   2.330
71991SOL    HW217806  12.367   2.648   2.438
71992SOL     OW17807  14.488   9.456  12.025
71992SOL    HW117808  14.439   9.528  12.065
71992SOL    HW217809  14.555   9.433  12.089
71993SOL     OW17810   6.811   4.332  11.768
71993SOL    HW117811   6.763   4.267  11.717
71993SOL    HW217812   6.900   4.330  11.730
71994SOL     OW17813  14.317   1.326   2.103
71994SOL    HW117814  14.276   1.347   2.020
71994SOL    HW217815  14.292   1.398   2.161
71995SOL     OW17816   8.759   0.219  14.016
71995SOL    HW117817   8.837   0.216  13.961
71995SOL    HW217818   8.692   0.259  13.962
71996SOL     OW17819   3.620  13.189  13.384
71996SOL    HW117820   3.624  13.167  13.477
71996SOL    HW217821   3.538  13.149  13.353
71997SOL     OW17822   2.523   7.992   2.452
71997SOL    HW117823   2.543   7.951   2.537
71997SOL    HW217824   2.472   8.069   2.475
71998SOL     OW17825   4.833   1.131   0.864
71998SOL    HW117826   4.846   1.204   0.926
71998SOL    HW217827   4.921   1.108   0.835
71999SOL     OW17828   1.038   1.706  11.527
71999SOL    HW117829   1.007   1.645  11.460
71999SOL    HW217830   1.025   1.793  11.490
72000SOL     OW17831  13.348   5.152   9.687
72000SOL    HW117832  13.305   5.237   9.689
72000SOL    HW217833  13.327   5.116   9.601
72001SOL     OW17834  13.637   9.863  14.437
72001SOL    HW117835  13.635   9.942  14.491
72001SOL    HW217836  13.686   9.889  14.359
72002SOL     OW17837   1.605   4.748  11.777
72002SOL    HW117838   1.574   4.659  11.762
72002SOL    HW217839   1.676   4.739  11.841
72003SOL     OW17840  13.759  13.055   2.824
72003SOL    HW117841  13.817  13.118   2.780
72003SOL    HW217842  13.697  13.110   2.872
72004SOL     OW17843   4.147  14.477   9.488
72004SOL    HW117844   4.198  14.395   9.486
72004SOL    HW217845   4.167  14.516   9.573
72005SOL     OW17846   3.007   2.538  13.431
72005SOL    HW117847   3.049   2.556  13.346
72005SOL    HW217848   2.965   2.621  13.455
72006SOL     OW17849   9.641  12.471  14.616
72006SOL    HW117850   9.625  12.561  14.644
72006SOL    HW217851   9.693  12.480  14.535
72007SOL     OW17852  11.734   1.878   3.532
72007SOL    HW117853  11.806   1.929   3.569
72007SOL    HW217854  11.728   1.908   3.442
72008SOL     OW17855   3.484   1.357  12.934
72008SOL    HW117856   3.414   1.350  12.870
72008SOL    HW217857   3.439   1.374  13.017
72009SOL     OW17858   7.831   3.801   5.699
72009SOL    HW117859   7.758   3.863   5.701
72009SOL    HW217860   7.903   3.847   5.740
72010SOL     OW17861   2.974  12.453  12.509
72010SOL    HW117862   2.890  12.442  12.552
72010SOL    HW217863   2.959  12.518  12.440
72011SOL     OW17864  13.247  12.213   6.702
72011SOL    HW117865  13.294  12.270   6.642
72011SOL    HW217866  13.315  12.154   6.736
72012SOL     OW17867  10.821   3.740   9.855
72012SOL    HW117868  10.789   3.816   9.905
72012SOL    HW217869  10.883   3.697   9.914
72013SOL     OW17870   2.223  12.338   7.724
72013SOL    HW117871   2.309  12.319   7.760
72013SOL    HW217872   2.229  12.429   7.694
72014SOL     OW17873  14.509   2.124   5.515
72014SOL    HW117874  14.495   2.030   5.514
72014SOL    HW217875  14.535   2.144   5.605
72015SOL     OW17876   5.676   0.525  12.073
72015SOL    HW117877   5.663   0.620  12.072
72015SOL    HW217878   5.595   0.489  12.037
72016SOL     OW17879   6.250   6.508   4.343
72016SOL    HW117880   6.276   6.426   4.300
72016SOL    HW217881   6.266   6.492   4.436
72017SOL     OW17882   8.470   3.810  11.856
72017SOL    HW117883   8.520   3.793  11.776
72017SOL    HW217884   8.507   3.891  11.890
72018SOL     OW17885   8.085   8.924   3.595
72018SOL    HW117886   8.077   9.011   3.634
72018SOL    HW217887   8.054   8.864   3.663
72019SOL     OW17888   1.190   7.731   4.192
72019SOL    HW117889   1.187   7.822   4.223
72019SOL    HW217890   1.163   7.679   4.268
72020SOL     OW17891  11.839  13.681   1.967
72020SOL    HW117892  11.906  13.623   2.003
72020SOL    HW217893  11.860  13.688   1.874
72021SOL     OW17894   9.396   2.576   2.045
72021SOL    HW117895   9.394   2.628   2.126
72021SOL    HW217896   9.322   2.609   1.994
72022SOL     OW17897  12.094   1.887   1.676
72022SOL    HW117898  12.114   1.875   1.769
72022SOL    HW217899  12.000   1.869   1.670
72023SOL     OW17900   1.622   4.138   0.969
72023SOL    HW117901   1.543   4.106   0.926
72023SOL    HW217902   1.664   4.058   1.003
72024SOL     OW17903   2.862   3.066   6.533
72024SOL    HW117904   2.789   3.014   6.567
72024SOL    HW217905   2.850   3.064   6.438
72025SOL     OW17906   7.901  14.504   2.916
72025SOL    HW117907   7.864  14.590   2.934
72025SOL    HW217908   7.844  14.442   2.961
72026SOL     OW17909   6.695  11.581  13.552
72026SOL    HW117910   6.698  11.649  13.484
72026SOL    HW217911   6.634  11.516  13.519
72027SOL     OW17912   9.877  10.545   6.607
72027SOL    HW117913   9.809  10.559   6.673
72027SOL    HW217914   9.902  10.633   6.580
72028SOL     OW17915   0.403   5.097  10.237
72028SOL    HW117916   0.438   5.096  10.326
72028SOL    HW217917   0.468   5.048  10.186
72029SOL     OW17918   0.479   1.431   1.941
72029SOL    HW117919   0.546   1.422   2.009
72029SOL    HW217920   0.447   1.521   1.950
72030SOL     OW17921   5.873  14.623   9.559
72030SOL    HW117922   5.941  14.658   9.615
72030SOL    HW217923   5.794  14.624   9.613
72031SOL     OW17924  13.410  14.866   9.458
72031SOL    HW117925  13.358   0.000   9.537
72031SOL    HW217926  13.455  14.784   9.476
72032SOL     OW17927  14.800   1.201   4.264
72032SOL    HW117928  14.743   1.133   4.229
72032SOL    HW217929  14.780   1.203   4.358
72033SOL     OW17930  10.231  12.879  14.710
72033SOL    HW117931  10.258  12.867  14.801
72033SOL    HW217932  10.156  12.820  14.699
72034SOL     OW17933   2.997   2.042  10.234
72034SOL    HW117934   3.037   1.985  10.169
72034SOL    HW217935   3.033   2.013  10.318
72035SOL     OW17936  12.160   4.846   2.721
72035SOL    HW117937  12.155   4.933   2.761
72035SOL    HW217938  12.254   4.824   2.724
72036SOL     OW17939  10.032   5.610  11.672
72036SOL    HW117940  10.083   5.690  11.687
72036SOL    HW217941  10.034   5.598  11.577
72037SOL     OW17942   5.749  11.805  11.894
72037SOL    HW117943   5.786  11.732  11.943
72037SOL    HW217944   5.724  11.869  11.961
72038SOL     OW17945   8.816   6.303   8.344
72038SOL    HW117946   8.739   6.331   8.394
72038SOL    HW217947   8.825   6.210   8.366
72039SOL     OW17948   3.918   3.867   2.174
72039SOL    HW117949   3.850   3.811   2.138
72039SOL    HW217950   3.872   3.949   2.195
72040SOL     OW17951   3.895   8.257   2.845
72040SOL    HW117952   3.816   8.217   2.808
72040SOL    HW217953   3.900   8.343   2.804
72041SOL     OW17954   1.388  13.725   1.495
72041SOL    HW117955   1.420  13.789   1.430
72041SOL    HW217956   1.323  13.674   1.447
72042SOL     OW17957   9.581   1.118   2.989
72042SOL    HW117958   9.583   1.126   3.084
72042SOL    HW217959   9.605   1.027   2.972
72043SOL     OW17960  10.210   3.034  14.060
72043SOL    HW117961  10.169   3.115  14.031
72043SOL    HW217962  10.301   3.058  14.076
72044SOL     OW17963   7.440   6.891  14.310
72044SOL    HW117964   7.413   6.876  14.220
72044SOL    HW217965   7.373   6.849  14.364
72045SOL     OW17966   7.087  12.068   4.360
72045SOL    HW117967   7.180  12.085   4.378
72045SOL    HW217968   7.087  12.026   4.274
72046SOL     OW17969   5.160   7.972  13.060
72046SOL    HW117970   5.111   7.998  12.982
72046SOL    HW217971   5.213   8.048  13.082
72047SOL     OW17972   7.123  12.552   1.131
72047SOL    HW117973   7.125  12.593   1.218
72047SOL    HW217974   7.215  12.555   1.102
72048SOL     OW17975   6.603   2.605  13.911
72048SOL    HW117976   6.589   2.623  13.818
72048SOL    HW217977   6.584   2.688  13.954
72049SOL     OW17978   2.812  13.152   1.124
72049SOL    HW117979   2.718  13.141   1.139
72049SOL    HW217980   2.853  13.126   1.207
72050SOL     OW17981   7.798   4.792   2.410
72050SOL    HW117982   7.762   4.881   2.417
72050SOL    HW217983   7.728   4.735   2.442
72051SOL     OW17984   7.167   3.326   8.803
72051SOL    HW117985   7.175   3.297   8.894
72051SOL    HW217986   7.092   3.386   8.804
72052SOL     OW17987   0.589  14.687   4.893
72052SOL    HW117988   0.575  14.622   4.961
72052SOL    HW217989   0.663  14.739   4.924
72053SOL     OW17990  12.546   4.269   1.077
72053SOL    HW117991  12.562   4.175   1.090
72053SOL    HW217992  12.618   4.312   1.123
72054SOL     OW17993  11.376   8.442   0.312
72054SOL    HW117994  11.399   8.438   0.405
72054SOL    HW217995  11.307   8.377   0.301
72055SOL     OW17996  10.992   5.101   3.211
72055SOL    HW117997  10.907   5.075   3.246
72055SOL    HW217998  10.970   5.159   3.137
72056SOL     OW17999   0.348   5.267  14.308
72056SOL    HW118000   0.349   5.175  14.282
72056SOL    HW218001   0.324   5.266  14.401
72057SOL     OW18002   1.723   6.566  13.875
72057SOL    HW118003   1.729   6.472  13.892
72057SOL    HW218004   1.629   6.583  13.868
72058SOL     OW18005   0.012   2.682   3.722
72058SOL    HW118006   0.021   2.616   3.654
72058SOL    HW218007   0.098   2.686   3.764
72059SOL     OW18008  13.482  10.477  10.680
72059SOL    HW118009  13.491  10.567  10.710
72059SOL    HW218010  13.567  10.456  10.642
72060SOL     OW18011   0.780   9.647   5.815
72060SOL    HW118012   0.843   9.718   5.823
72060SOL    HW218013   0.713   9.666   5.881
72061SOL     OW18014   0.054   9.104   4.270
72061SOL    HW118015   0.029   9.030   4.214
72061SOL    HW218016   0.096   9.063   4.346
72062SOL     OW18017   2.799   4.953   9.783
72062SOL    HW118018   2.881   4.938   9.829
72062SOL    HW218019   2.822   4.946   9.690
72063SOL     OW18020   6.154   7.540  10.895
72063SOL    HW118021   6.150   7.522  10.989
72063SOL    HW218022   6.237   7.502  10.866
72064SOL     OW18023  10.461   0.816  14.490
72064SOL    HW118024  10.506   0.821  14.406
72064SOL    HW218025  10.450   0.722  14.505
72065SOL     OW18026   5.862   2.090   2.530
72065SOL    HW118027   5.914   2.011   2.544
72065SOL    HW218028   5.792   2.085   2.595
72066SOL     OW18029   1.814   3.512   4.294
72066SOL    HW118030   1.728   3.493   4.257
72066SOL    HW218031   1.866   3.540   4.219
72067SOL     OW18032  10.485   9.628  13.509
72067SOL    HW118033  10.452   9.608  13.421
72067SOL    HW218034  10.545   9.701  13.495
72068SOL     OW18035   0.216  14.810   2.237
72068SOL    HW118036   0.177  14.738   2.288
72068SOL    HW218037   0.250  14.767   2.159
72069SOL     OW18038   0.499   5.845   4.807
72069SOL    HW118039   0.407   5.820   4.806
72069SOL    HW218040   0.517   5.871   4.897
72070SOL     OW18041   6.558  14.480   2.084
72070SOL    HW118042   6.491  14.413   2.069
72070SOL    HW218043   6.523  14.558   2.043
72071SOL     OW18044   4.344   1.305   6.011
72071SOL    HW118045   4.414   1.297   5.947
72071SOL    HW218046   4.349   1.396   6.040
72072SOL     OW18047   8.876   5.474   0.740
72072SOL    HW118048   8.840   5.518   0.663
72072SOL    HW218049   8.938   5.410   0.704
72073SOL     OW18050   0.108  10.069   2.691
72073SOL    HW118051   0.063  10.025   2.619
72073SOL    HW218052   0.121  10.159   2.661
72074SOL     OW18053   5.591   2.522   8.993
72074SOL    HW118054   5.572   2.428   8.983
72074SOL    HW218055   5.603   2.554   8.904
72075SOL     OW18056   5.441   1.742   8.909
72075SOL    HW118057   5.460   1.660   8.864
72075SOL    HW218058   5.385   1.716   8.982
72076SOL     OW18059  14.093   3.366   2.502
72076SOL    HW118060  14.027   3.372   2.571
72076SOL    HW218061  14.046   3.390   2.422
72077SOL     OW18062   0.021  10.674   1.872
72077SOL    HW118063   0.068  10.651   1.792
72077SOL    HW218064   0.076  10.739   1.915
72078SOL     OW18065   5.513   1.278   8.475
72078SOL    HW118066   5.440   1.290   8.415
72078SOL    HW218067   5.472   1.248   8.557
72079SOL     OW18068   1.746   9.403   5.319
72079SOL    HW118069   1.830   9.448   5.330
72079SOL    HW218070   1.768   9.323   5.272
72080SOL     OW18071   6.536  10.801   3.450
72080SOL    HW118072   6.616  10.791   3.501
72080SOL    HW218073   6.524  10.715   3.409
72081SOL     OW18074   9.975   2.965   4.274
72081SOL    HW118075   9.945   3.051   4.246
72081SOL    HW218076  10.054   2.982   4.325
72082SOL     OW18077   4.292   2.482   7.479
72082SOL    HW118078   4.358   2.439   7.533
72082SOL    HW218079   4.284   2.570   7.516
72083SOL     OW18080  13.651   4.487   6.131
72083SOL    HW118081  13.649   4.537   6.213
72083SOL    HW218082  13.653   4.554   6.063
72084SOL     OW18083   7.190   5.907   7.312
72084SOL    HW118084   7.159   5.818   7.293
72084SOL    HW218085   7.130   5.940   7.378
72085SOL     OW18086  10.002  11.115   9.542
72085SOL    HW118087  10.012  11.177   9.470
72085SOL    HW218088   9.944  11.159   9.604
72086SOL     OW18089   5.522  11.363   2.390
72086SOL    HW118090   5.532  11.346   2.484
72086SOL    HW218091   5.442  11.316   2.366
72087SOL     OW18092   8.760   5.198  13.762
72087SOL    HW118093   8.738   5.165  13.849
72087SOL    HW218094   8.680   5.187  13.711
72088SOL     OW18095   4.685   7.256   4.307
72088SOL    HW118096   4.763   7.204   4.325
72088SOL    HW218097   4.614   7.209   4.350
72089SOL     OW18098   8.806  10.979   9.788
72089SOL    HW118099   8.889  11.019   9.813
72089SOL    HW218100   8.742  11.050   9.792
72090SOL     OW18101   4.384   3.011   5.642
72090SOL    HW118102   4.460   3.032   5.696
72090SOL    HW218103   4.377   2.915   5.648
72091SOL     OW18104   6.815   7.880  13.507
72091SOL    HW118105   6.906   7.907  13.499
72091SOL    HW218106   6.806   7.849  13.597
72092SOL     OW18107  13.871   5.386   2.945
72092SOL    HW118108  13.888   5.449   3.015
72092SOL    HW218109  13.868   5.301   2.989
72093SOL     OW18110   1.410   5.705   1.164
72093SOL    HW118111   1.421   5.698   1.259
72093SOL    HW218112   1.330   5.654   1.146
72094SOL     OW18113   1.375   7.812   2.022
72094SOL    HW118114   1.353   7.904   2.037
72094SOL    HW218115   1.463   7.814   1.985
72095SOL     OW18116  11.965  13.873   1.017
72095SOL    HW118117  12.038  13.820   1.049
72095SOL    HW218118  12.001  13.962   1.010
72096SOL     OW18119  14.149   8.971   6.770
72096SOL    HW118120  14.116   8.889   6.733
72096SOL    HW218121  14.196   9.013   6.699
72097SOL     OW18122   3.426  11.244   6.016
72097SOL    HW118123   3.519  11.220   6.015
72097SOL    HW218124   3.417  11.301   6.093
72098SOL     OW18125   1.068  10.352   2.071
72098SOL    HW118126   1.067  10.447   2.086
72098SOL    HW218127   1.137  10.319   2.129
72099SOL     OW18128  12.258  12.950   9.783
72099SOL    HW118129  12.240  13.011   9.855
72099SOL    HW218130  12.175  12.945   9.735
72100SOL     OW18131   0.579   1.896   8.315
72100SOL    HW118132   0.570   1.814   8.364
72100SOL    HW218133   0.672   1.919   8.323
72101SOL     OW18134   8.837   6.786   5.884
72101SOL    HW118135   8.768   6.843   5.917
72101SOL    HW218136   8.790   6.712   5.845
72102SOL     OW18137   8.201   3.332   7.259
72102SOL    HW118138   8.185   3.317   7.352
72102SOL    HW218139   8.133   3.283   7.213
72103SOL     OW18140   9.689   7.178   2.625
72103SOL    HW118141   9.774   7.216   2.604
72103SOL    HW218142   9.693   7.090   2.587
72104SOL     OW18143  13.693   6.760   8.808
72104SOL    HW118144  13.661   6.839   8.850
72104SOL    HW218145  13.755   6.723   8.870
72105SOL     OW18146   6.431  13.178   9.974
72105SOL    HW118147   6.508  13.122   9.968
72105SOL    HW218148   6.359  13.124   9.941
72106SOL     OW18149   3.578   5.913   4.953
72106SOL    HW118150   3.564   5.978   5.022
72106SOL    HW218151   3.590   5.965   4.873
72107SOL     OW18152   2.823   2.919  11.949
72107SOL    HW118153   2.762   2.975  11.997
72107SOL    HW218154   2.795   2.829  11.970
72108SOL     OW18155  12.501   2.562   7.754
72108SOL    HW118156  12.571   2.516   7.708
72108SOL    HW218157  12.501   2.524   7.842
72109SOL     OW18158  14.498   6.865  13.092
72109SOL    HW118159  14.540   6.783  13.118
72109SOL    HW218160  14.571   6.927  13.082
72110SOL     OW18161  10.317   4.496   7.832
72110SOL    HW118162  10.269   4.465   7.909
72110SOL    HW218163  10.322   4.591   7.844
72111SOL     OW18164   2.258   6.640  12.822
72111SOL    HW118165   2.294   6.727  12.841
72111SOL    HW218166   2.241   6.603  12.908
72112SOL     OW18167  14.179   1.651  11.772
72112SOL    HW118168  14.235   1.573  11.774
72112SOL    HW218169  14.219   1.708  11.706
72113SOL     OW18170   2.614   5.808   6.077
72113SOL    HW118171   2.625   5.767   5.992
72113SOL    HW218172   2.641   5.899   6.064
72114SOL     OW18173  13.508   2.413   9.253
72114SOL    HW118174  13.508   2.398   9.348
72114SOL    HW218175  13.583   2.363   9.221
72115SOL     OW18176   1.460  14.790  11.965
72115SOL    HW118177   1.535  14.824  11.917
72115SOL    HW218178   1.384  14.835  11.926
72116SOL     OW18179  12.779   1.312   3.485
72116SOL    HW118180  12.820   1.316   3.572
72116SOL    HW218181  12.825   1.378   3.434
72117SOL     OW18182  13.128  11.095   5.573
72117SOL    HW118183  13.069  11.088   5.648
72117SOL    HW218184  13.084  11.154   5.512
72118SOL     OW18185   1.936   5.939   2.011
72118SOL    HW118186   2.006   6.004   2.013
72118SOL    HW218187   1.865   5.979   2.062
72119SOL     OW18188   0.777   0.001  14.029
72119SOL    HW118189   0.848   0.039  13.976
72119SOL    HW218190   0.810   0.004  14.118
72120SOL     OW18191  11.343   4.588   3.004
72120SOL    HW118192  11.426   4.636   3.004
72120SOL    HW218193  11.297   4.620   2.926
72121SOL     OW18194   3.776   3.602  13.426
72121SOL    HW118195   3.833   3.577  13.499
72121SOL    HW218196   3.791   3.534  13.360
72122SOL     OW18197   1.127   2.570   8.618
72122SOL    HW118198   1.159   2.636   8.678
72122SOL    HW218199   1.071   2.618   8.556
72123SOL     OW18200  12.681   6.917  13.282
72123SOL    HW118201  12.641   6.899  13.368
72123SOL    HW218202  12.617   6.885  13.219
72124SOL     OW18203   1.989  11.945   3.182
72124SOL    HW118204   1.902  11.985   3.186
72124SOL    HW218205   2.002  11.907   3.269
72125SOL     OW18206  14.222   8.439  14.550
72125SOL    HW118207  14.151   8.401  14.497
72125SOL    HW218208  14.188   8.439  14.639
72126SOL     OW18209  11.071  14.607   8.680
72126SOL    HW118210  10.989  14.598   8.728
72126SOL    HW218211  11.130  14.543   8.720
72127SOL     OW18212  11.264   8.140   0.351
72127SOL    HW118213  11.352   8.126   0.385
72127SOL    HW218214  11.239   8.056   0.313
72128SOL     OW18215  14.268  14.587  12.510
72128SOL    HW118216  14.363  14.593  12.516
72128SOL    HW218217  14.245  14.507  12.556
72129SOL     OW18218  11.792  10.815   6.259
72129SOL    HW118219  11.774  10.792   6.168
72129SOL    HW218220  11.849  10.892   6.254
72130SOL     OW18221   9.665  12.919  11.778
72130SOL    HW118222   9.710  13.002  11.764
72130SOL    HW218223   9.656  12.881  11.690
72131SOL     OW18224   9.153   5.213   8.120
72131SOL    HW118225   9.148   5.278   8.190
72131SOL    HW218226   9.066   5.175   8.115
72132SOL     OW18227  13.393  13.111   7.372
72132SOL    HW118228  13.393  13.164   7.452
72132SOL    HW218229  13.325  13.046   7.386
72133SOL     OW18230  13.105   9.612  10.866
72133SOL    HW118231  13.141   9.693  10.901
72133SOL    HW218232  13.133   9.611  10.774
72134SOL     OW18233   5.737   2.360  14.632
72134SOL    HW118234   5.692   2.313  14.562
72134SOL    HW218235   5.815   2.307  14.650
72135SOL     OW18236  14.448   6.873  12.173
72135SOL    HW118237  14.420   6.850  12.261
72135SOL    HW218238  14.381   6.835  12.116
72136SOL     OW18239   3.683   7.397   7.907
72136SOL    HW118240   3.629   7.319   7.895
72136SOL    HW218241   3.743   7.397   7.833
72137SOL     OW18242  13.026   5.450   2.091
72137SOL    HW118243  13.022   5.518   2.024
72137SOL    HW218244  12.935   5.430   2.111
72138SOL     OW18245   8.662   8.714  10.972
72138SOL    HW118246   8.725   8.659  10.925
72138SOL    HW218247   8.672   8.689  11.064
72139SOL     OW18248   0.116   4.905  14.730
72139SOL    HW118249   0.133   4.819  14.692
72139SOL    HW218250   0.201   4.933  14.765
72140SOL     OW18251   9.811   6.144   7.683
72140SOL    HW118252   9.792   6.237   7.669
72140SOL    HW218253   9.780   6.102   7.602
72141SOL     OW18254   8.213   4.569   9.743
72141SOL    HW118255   8.144   4.600   9.685
72141SOL    HW218256   8.289   4.622   9.720
72142SOL     OW18257   0.946   0.146  11.663
72142SOL    HW118258   0.886   0.108  11.727
72142SOL    HW218259   0.888   0.190  11.600
72143SOL     OW18260   3.076  13.914   0.363
72143SOL    HW118261   3.095  13.926   0.270
72143SOL    HW218262   2.981  13.905   0.367
72144SOL     OW18263   3.030   8.436   7.093
72144SOL    HW118264   2.939   8.425   7.064
72144SOL    HW218265   3.082   8.423   7.013
72145SOL     OW18266   4.269   5.641   9.887
72145SOL    HW118267   4.229   5.653   9.973
72145SOL    HW218268   4.328   5.716   9.877
72146SOL     OW18269   0.811   2.513   8.122
72146SOL    HW118270   0.882   2.449   8.112
72146SOL    HW218271   0.779   2.527   8.033
72147SOL     OW18272   3.233   4.112  12.634
72147SOL    HW118273   3.188   4.166  12.699
72147SOL    HW218274   3.252   4.030  12.680
72148SOL     OW18275  12.688  10.642  11.773
72148SOL    HW118276  12.614  10.595  11.810
72148SOL    HW218277  12.651  10.691  11.699
72149SOL     OW18278   1.114   1.175  12.841
72149SOL    HW118279   1.153   1.101  12.796
72149SOL    HW218280   1.024   1.148  12.858
72150SOL     OW18281   6.468  11.409   5.983
72150SOL    HW118282   6.494  11.320   5.961
72150SOL    HW218283   6.542  11.444   6.033
72151SOL     OW18284  14.528   8.752  11.834
72151SOL    HW118285  14.504   8.774  11.924
72151SOL    HW218286  14.568   8.832  11.800
72152SOL     OW18287   4.617   8.286   5.256
72152SOL    HW118288   4.610   8.272   5.162
72152SOL    HW218289   4.697   8.239   5.282
72153SOL     OW18290   7.471   0.551   2.256
72153SOL    HW118291   7.463   0.467   2.211
72153SOL    HW218292   7.398   0.553   2.318
72154SOL     OW18293   5.348   3.831  13.696
72154SOL    HW118294   5.303   3.778  13.763
72154SOL    HW218295   5.326   3.789  13.613
72155SOL     OW18296   6.131   1.666   6.239
72155SOL    HW118297   6.122   1.573   6.259
72155SOL    HW218298   6.121   1.672   6.144
72156SOL     OW18299   8.778   5.004  10.192
72156SOL    HW118300   8.790   5.082  10.246
72156SOL    HW218301   8.688   5.011  10.159
72157SOL     OW18302   2.708   2.753   8.975
72157SOL    HW118303   2.802   2.766   8.960
72157SOL    HW218304   2.677   2.837   9.007
72158SOL     OW18305   4.498   5.949  13.736
72158SOL    HW118306   4.522   6.029  13.784
72158SOL    HW218307   4.496   5.881  13.803
72159SOL     OW18308  11.624   7.462   1.643
72159SOL    HW118309  11.718   7.451   1.657
72159SOL    HW218310  11.616   7.547   1.599
72160SOL     OW18311  13.771  12.809   5.833
72160SOL    HW118312  13.811  12.890   5.864
72160SOL    HW218313  13.839  12.743   5.846
72161SOL     OW18314  11.900  11.484   9.138
72161SOL    HW118315  11.907  11.509   9.046
72161SOL    HW218316  11.942  11.555   9.186
72162SOL     OW18317  13.291  12.078   8.289
72162SOL    HW118318  13.313  12.164   8.327
72162SOL    HW218319  13.366  12.055   8.235
72163SOL     OW18320   8.543   9.548   7.892
72163SOL    HW118321   8.456   9.527   7.925
72163SOL    HW218322   8.602   9.492   7.942
72164SOL     OW18323  11.728  14.065   6.272
72164SOL    HW118324  11.727  14.132   6.340
72164SOL    HW218325  11.709  14.112   6.191
72165SOL     OW18326   9.097   9.816  11.375
72165SOL    HW118327   9.046   9.803  11.295
72165SOL    HW218328   9.093   9.911  11.390
72166SOL     OW18329  13.678   1.339  13.024
72166SOL    HW118330  13.715   1.424  13.047
72166SOL    HW218331  13.705   1.281  13.096
72167SOL     OW18332   6.225   6.542   8.463
72167SOL    HW118333   6.222   6.562   8.557
72167SOL    HW218334   6.133   6.529   8.439
72168SOL     OW18335   4.588   3.374   0.838
72168SOL    HW118336   4.681   3.349   0.831
72168SOL    HW218337   4.565   3.350   0.928
72169SOL     OW18338  14.711   4.634   4.543
72169SOL    HW118339  14.648   4.656   4.612
72169SOL    HW218340  14.690   4.693   4.471
72170SOL     OW18341  10.060  13.469   1.463
72170SOL    HW118342  10.015  13.540   1.419
72170SOL    HW218343   9.991  13.406   1.484
72171SOL     OW18344  13.707  11.409   6.491
72171SOL    HW118345  13.704  11.491   6.441
72171SOL    HW218346  13.796  11.407   6.526
72172SOL     OW18347   4.597   5.171  13.044
72172SOL    HW118348   4.546   5.128  13.114
72172SOL    HW218349   4.665   5.107  13.022
72173SOL     OW18350   7.681   6.354   6.453
72173SOL    HW118351   7.631   6.343   6.372
72173SOL    HW218352   7.621   6.399   6.513
72174SOL     OW18353   1.789   4.938  14.471
72174SOL    HW118354   1.868   4.990  14.458
72174SOL    HW218355   1.820   4.859  14.514
72175SOL     OW18356   8.854   2.126  13.662
72175SOL    HW118357   8.871   2.092  13.750
72175SOL    HW218358   8.904   2.070  13.604
72176SOL     OW18359  11.306  11.845   6.741
72176SOL    HW118360  11.241  11.897   6.693
72176SOL    HW218361  11.369  11.819   6.674
72177SOL     OW18362   9.948   3.649   0.131
72177SOL    HW118363   9.971   3.690   0.214
72177SOL    HW218364  10.032   3.622   0.093
72178SOL     OW18365  12.399   4.141   6.101
72178SOL    HW118366  12.451   4.063   6.119
72178SOL    HW218367  12.329   4.110   6.043
72179SOL     OW18368   7.237   9.279  12.284
72179SOL    HW118369   7.312   9.336  12.269
72179SOL    HW218370   7.257   9.233  12.366
72180SOL     OW18371   7.699   7.147   0.589
72180SOL    HW118372   7.725   7.071   0.641
72180SOL    HW218373   7.684   7.113   0.501
72181SOL     OW18374  13.934  11.417   4.938
72181SOL    HW118375  13.984  11.340   4.965
72181SOL    HW218376  13.875  11.435   5.011
72182SOL     OW18377  14.298   1.267  10.981
72182SOL    HW118378  14.224   1.268  11.042
72182SOL    HW218379  14.330   1.357  10.982
72183SOL     OW18380   7.611   3.025   7.688
72183SOL    HW118381   7.572   3.090   7.747
72183SOL    HW218382   7.618   3.070   7.604
72184SOL     OW18383  12.656  10.602   7.695
72184SOL    HW118384  12.578  10.657   7.695
72184SOL    HW218385  12.726  10.660   7.664
72185SOL     OW18386   8.872  14.106   1.192
72185SOL    HW118387   8.924  14.179   1.224
72185SOL    HW218388   8.789  14.146   1.166
72186SOL     OW18389   7.807  10.851   6.636
72186SOL    HW118390   7.865  10.851   6.559
72186SOL    HW218391   7.857  10.899   6.702
72187SOL     OW18392   1.850   6.595  12.486
72187SOL    HW118393   1.891   6.672  12.525
72187SOL    HW218394   1.921   6.532  12.477
72188SOL     OW18395   0.663   8.660  10.422
72188SOL    HW118396   0.740   8.718  10.417
72188SOL    HW218397   0.698   8.573  10.402
72189SOL     OW18398   2.528  11.362   4.993
72189SOL    HW118399   2.536  11.393   5.083
72189SOL    HW218400   2.616  11.371   4.957
72190SOL     OW18401   4.261   5.955   1.399
72190SOL    HW118402   4.204   5.950   1.322
72190SOL    HW218403   4.330   5.891   1.382
72191SOL     OW18404  10.671   9.553  10.678
72191SOL    HW118405  10.636   9.607  10.607
72191SOL    HW218406  10.762   9.580  10.686
72192SOL     OW18407   4.998  14.750   0.380
72192SOL    HW118408   5.085  14.720   0.353
72192SOL    HW218409   4.940  14.719   0.310
72193SOL     OW18410  13.779   3.744   8.814
72193SOL    HW118411  13.790   3.700   8.730
72193SOL    HW218412  13.816   3.683   8.878
72194SOL     OW18413   5.108   9.039   7.401
72194SOL    HW118414   5.043   9.099   7.363
72194SOL    HW218415   5.149   8.998   7.325
72195SOL     OW18416   3.440   4.313   6.511
72195SOL    HW118417   3.471   4.403   6.501
72195SOL    HW218418   3.351   4.321   6.544
72196SOL     OW18419   0.717   5.301   1.282
72196SOL    HW118420   0.777   5.371   1.307
72196SOL    HW218421   0.665   5.284   1.360
72197SOL     OW18422   8.132   0.659   7.016
72197SOL    HW118423   8.054   0.657   7.071
72197SOL    HW218424   8.103   0.701   6.935
72198SOL     OW18425   0.073   3.079   7.200
72198SOL    HW118426   0.126   3.156   7.178
72198SOL    HW218427  14.869   3.114   7.222
72199SOL     OW18428   6.963   7.684   8.119
72199SOL    HW118429   6.912   7.680   8.200
72199SOL    HW218430   7.054   7.677   8.148
72200SOL     OW18431   0.465  10.662   9.257
72200SOL    HW118432   0.488  10.579   9.215
72200SOL    HW218433   0.372  10.654   9.278
72201SOL     OW18434  14.670   4.367   1.706
72201SOL    HW118435  14.756   4.346   1.743
72201SOL    HW218436  14.609   4.308   1.751
72202SOL     OW18437   7.965   3.600   4.133
72202SOL    HW118438   8.020   3.576   4.208
72202SOL    HW218439   7.999   3.547   4.060
72203SOL     OW18440   1.054   1.577   7.559
72203SOL    HW118441   1.127   1.618   7.511
72203SOL    HW218442   0.979   1.588   7.500
72204SOL     OW18443  10.005   7.710   3.808
72204SOL    HW118444  10.001   7.754   3.893
72204SOL    HW218445   9.940   7.640   3.815
72205SOL     OW18446   1.111   6.635   2.557
72205SOL    HW118447   1.037   6.626   2.617
72205SOL    HW218448   1.094   6.573   2.487
72206SOL     OW18449   5.532  12.040   9.492
72206SOL    HW118450   5.512  12.104   9.424
72206SOL    HW218451   5.623  12.015   9.476
72207SOL     OW18452  12.099   9.152   6.439
72207SOL    HW118453  12.105   9.227   6.499
72207SOL    HW218454  12.087   9.076   6.496
72208SOL     OW18455   5.859   2.040  13.871
72208SOL    HW118456   5.899   1.953  13.861
72208SOL    HW218457   5.908   2.096  13.810
72209SOL     OW18458   1.736   8.573   8.397
72209SOL    HW118459   1.796   8.642   8.427
72209SOL    HW218460   1.794   8.500   8.374
72210SOL     OW18461  11.650   4.690   9.271
72210SOL    HW118462  11.722   4.698   9.208
72210SOL    HW218463  11.651   4.772   9.320
72211SOL     OW18464   6.726   8.692   3.621
72211SOL    HW118465   6.706   8.724   3.533
72211SOL    HW218466   6.822   8.692   3.625
72212SOL     OW18467  13.083   3.607  10.969
72212SOL    HW118468  13.095   3.577  11.060
72212SOL    HW218469  13.107   3.531  10.916
72213SOL     OW18470   0.817  12.115   2.201
72213SOL    HW118471   0.876  12.118   2.277
72213SOL    HW218472   0.773  12.200   2.201
72214SOL     OW18473   5.302   5.504  13.877
72214SOL    HW118474   5.360   5.485  13.950
72214SOL    HW218475   5.333   5.587  13.841
72215SOL     OW18476   6.194   3.738   2.954
72215SOL    HW118477   6.230   3.743   2.866
72215SOL    HW218478   6.159   3.649   2.961
72216SOL     OW18479   6.205  13.984   9.981
72216SOL    HW118480   6.157  14.068   9.984
72216SOL    HW218481   6.294  14.009   9.957
72217SOL     OW18482   5.608  13.751   8.334
72217SOL    HW118483   5.700  13.740   8.310
72217SOL    HW218484   5.562  13.685   8.282
72218SOL     OW18485  10.272   8.047  11.033
72218SOL    HW118486  10.313   8.114  11.087
72218SOL    HW218487  10.178   8.058  11.048
72219SOL     OW18488   5.426   5.931   2.040
72219SOL    HW118489   5.512   5.910   2.075
72219SOL    HW218490   5.393   6.001   2.096
72220SOL     OW18491   1.889  14.845   4.326
72220SOL    HW118492   1.897  14.807   4.414
72220SOL    HW218493   1.829   0.037   4.338
72221SOL     OW18494   6.982   2.914   0.947
72221SOL    HW118495   6.935   2.832   0.929
72221SOL    HW218496   7.051   2.889   1.009
72222SOL     OW18497  13.409  12.513  13.501
72222SOL    HW118498  13.429  12.548  13.588
72222SOL    HW218499  13.447  12.576  13.440
72223SOL     OW18500  14.782  13.515   4.080
72223SOL    HW118501  14.711  13.463   4.042
72223SOL    HW218502  14.821  13.560   4.005
72224SOL     OW18503   2.532  11.369  10.706
72224SOL    HW118504   2.617  11.325  10.701
72224SOL    HW218505   2.515  11.397  10.616
72225SOL     OW18506   1.622  13.355  11.032
72225SOL    HW118507   1.619  13.266  10.997
72225SOL    HW218508   1.536  13.392  11.011
72226SOL     OW18509  12.916  11.216   1.537
72226SOL    HW118510  12.853  11.271   1.489
72226SOL    HW218511  12.917  11.133   1.488
72227SOL     OW18512   9.535  14.242   5.595
72227SOL    HW118513   9.549  14.335   5.611
72227SOL    HW218514   9.617  14.200   5.624
72228SOL     OW18515   0.696   3.003   7.021
72228SOL    HW118516   0.619   3.060   7.016
72228SOL    HW218517   0.661   2.915   7.030
72229SOL     OW18518  10.490  12.388  12.891
72229SOL    HW118519  10.506  12.480  12.867
72229SOL    HW218520  10.465  12.345  12.810
72230SOL     OW18521  13.599   3.665  14.041
72230SOL    HW118522  13.523   3.723  14.030
72230SOL    HW218523  13.673   3.724  14.055
72231SOL     OW18524   3.318   2.416   2.928
72231SOL    HW118525   3.385   2.394   2.992
72231SOL    HW218526   3.235   2.397   2.972
72232SOL     OW18527  11.168  13.465  11.719
72232SOL    HW118528  11.106  13.393  11.726
72232SOL    HW218529  11.133  13.533  11.776
72233SOL     OW18530   5.238   9.781  11.340
72233SOL    HW118531   5.277   9.848  11.284
72233SOL    HW218532   5.245   9.817  11.429
72234SOL     OW18533  14.504   9.779  10.552
72234SOL    HW118534  14.537   9.727  10.480
72234SOL    HW218535  14.463   9.716  10.611
72235SOL     OW18536   7.848  12.255   7.202
72235SOL    HW118537   7.842  12.272   7.108
72235SOL    HW218538   7.859  12.342   7.242
72236SOL     OW18539   8.076   3.406   0.590
72236SOL    HW118540   8.158   3.400   0.542
72236SOL    HW218541   8.022   3.335   0.555
72237SOL     OW18542   9.688   2.972   6.190
72237SOL    HW118543   9.744   2.898   6.217
72237SOL    HW218544   9.619   2.931   6.137
72238SOL     OW18545   8.380   9.395   6.552
72238SOL    HW118546   8.368   9.342   6.631
72238SOL    HW218547   8.450   9.456   6.574
72239SOL     OW18548   2.122   4.767   4.708
72239SOL    HW118549   2.170   4.757   4.790
72239SOL    HW218550   2.117   4.862   4.695
72240SOL     OW18551   1.802   6.159   7.106
72240SOL    HW118552   1.854   6.235   7.132
72240SOL    HW218553   1.865   6.086   7.104
72241SOL     OW18554   6.096   3.120   5.677
72241SOL    HW118555   6.163   3.169   5.631
72241SOL    HW218556   6.031   3.185   5.703
72242SOL     OW18557  12.754   3.193   4.813
72242SOL    HW118558  12.730   3.111   4.857
72242SOL    HW218559  12.849   3.192   4.810
72243SOL     OW18560   5.118   3.821   4.946
72243SOL    HW118561   5.183   3.887   4.967
72243SOL    HW218562   5.034   3.860   4.972
72244SOL     OW18563  13.737   1.788  14.145
72244SOL    HW118564  13.763   1.797  14.237
72244SOL    HW218565  13.664   1.849  14.135
72245SOL     OW18566   9.670   0.793  12.036
72245SOL    HW118567   9.631   0.791  11.949
72245SOL    HW218568   9.757   0.754  12.024
72246SOL     OW18569   3.796  11.950   0.232
72246SOL    HW118570   3.797  12.030   0.179
72246SOL    HW218571   3.704  11.928   0.240
72247SOL     OW18572   4.529  12.438  12.609
72247SOL    HW118573   4.572  12.430  12.523
72247SOL    HW218574   4.529  12.531  12.627
72248SOL     OW18575  14.030   6.125   8.474
72248SOL    HW118576  14.061   6.037   8.456
72248SOL    HW218577  14.083   6.154   8.549
72249SOL     OW18578   1.227  13.430   8.394
72249SOL    HW118579   1.266  13.360   8.342
72249SOL    HW218580   1.146  13.392   8.428
72250SOL     OW18581  13.602  10.700   1.492
72250SOL    HW118582  13.693  10.714   1.518
72250SOL    HW218583  13.566  10.642   1.560
72251SOL     OW18584   6.543   2.621   2.416
72251SOL    HW118585   6.574   2.710   2.432
72251SOL    HW218586   6.460   2.615   2.464
72252SOL     OW18587  12.761  14.107  12.020
72252SOL    HW118588  12.840  14.054  12.012
72252SOL    HW218589  12.760  14.135  12.112
72253SOL     OW18590  10.710   1.079   4.342
72253SOL    HW118591  10.738   1.163   4.377
72253SOL    HW218592  10.626   1.097   4.299
72254SOL     OW18593   1.271   7.242   5.757
72254SOL    HW118594   1.356   7.218   5.793
72254SOL    HW218595   1.255   7.177   5.688
72255SOL     OW18596   8.555   3.013  13.186
72255SOL    HW118597   8.465   2.996  13.212
72255SOL    HW218598   8.587   2.929  13.155
72256SOL     OW18599   9.696   3.178   2.793
72256SOL    HW118600   9.772   3.125   2.821
72256SOL    HW218601   9.731   3.266   2.784
72257SOL     OW18602   3.357   4.437  11.312
72257SOL    HW118603   3.363   4.517  11.260
72257SOL    HW218604   3.264   4.429  11.334
72258SOL     OW18605   4.644   2.155  10.143
72258SOL    HW118606   4.719   2.193  10.188
72258SOL    HW218607   4.678   2.075  10.104
72259SOL     OW18608  12.066   4.369  10.377
72259SOL    HW118609  11.980   4.393  10.342
72259SOL    HW218610  12.118   4.449  10.368
72260SOL     OW18611  11.438   7.849  11.322
72260SOL    HW118612  11.369   7.787  11.344
72260SOL    HW218613  11.392   7.924  11.283
72261SOL     OW18614   0.065  13.556   3.650
72261SOL    HW118615   0.052  13.493   3.579
72261SOL    HW218616   0.148  13.530   3.690
72262SOL     OW18617  12.046   8.815   7.812
72262SOL    HW118618  12.136   8.818   7.781
72262SOL    HW218619  12.042   8.738   7.868
72263SOL     OW18620  10.986   7.582   8.383
72263SOL    HW118621  10.985   7.620   8.471
72263SOL    HW218622  10.958   7.491   8.396
72264SOL     OW18623   4.024  13.189   1.267
72264SOL    HW118624   4.045  13.234   1.349
72264SOL    HW218625   3.928  13.190   1.263
72265SOL     OW18626   5.628   8.258  10.338
72265SOL    HW118627   5.697   8.252  10.405
72265SOL    HW218628   5.663   8.320  10.274
72266SOL     OW18629   0.629   0.960   6.177
72266SOL    HW118630   0.567   0.887   6.184
72266SOL    HW218631   0.709   0.921   6.142
72267SOL     OW18632   0.404   1.769   7.945
72267SOL    HW118633   0.427   1.730   7.861
72267SOL    HW218634   0.488   1.798   7.982
72268SOL     OW18635  14.465   5.817   6.488
72268SOL    HW118636  14.451   5.723   6.499
72268SOL    HW218637  14.558   5.830   6.507
72269SOL     OW18638   3.424   6.031   5.176
72269SOL    HW118639   3.414   5.980   5.256
72269SOL    HW218640   3.344   6.085   5.172
72270SOL     OW18641   5.864  13.265   7.948
72270SOL    HW118642   5.954  13.276   7.919
72270SOL    HW218643   5.870  13.256   8.043
72271SOL     OW18644  11.687   5.067  11.566
72271SOL    HW118645  11.760   5.124  11.541
72271SOL    HW218646  11.693   4.992  11.508
72272SOL     OW18647   5.968  12.459   5.476
72272SOL    HW118648   5.895  12.405   5.507
72272SOL    HW218649   6.023  12.400   5.426
72273SOL     OW18650   4.092   9.213  12.265
72273SOL    HW118651   4.064   9.140  12.210
72273SOL    HW218652   4.016   9.271  12.268
72274SOL     OW18653   2.576   1.374   8.050
72274SOL    HW118654   2.608   1.456   8.014
72274SOL    HW218655   2.563   1.391   8.143
72275SOL     OW18656   3.076   6.068   9.974
72275SOL    HW118657   3.054   5.974   9.974
72275SOL    HW218658   3.158   6.073  10.023
72276SOL     OW18659  11.038  11.311  11.463
72276SOL    HW118660  11.007  11.267  11.383
72276SOL    HW218661  10.978  11.385  11.474
72277SOL     OW18662   7.053  12.374   4.172
72277SOL    HW118663   7.149  12.382   4.169
72277SOL    HW218664   7.032  12.369   4.265
72278SOL     OW18665  14.012   7.218   6.161
72278SOL    HW118666  14.039   7.136   6.120
72278SOL    HW218667  13.916   7.218   6.154
72279SOL     OW18668  11.440   6.399  10.209
72279SOL    HW118669  11.424   6.493  10.201
72279SOL    HW218670  11.535   6.392  10.217
72280SOL     OW18671   7.770  14.213   7.532
72280SOL    HW118672   7.709  14.156   7.483
72280SOL    HW218673   7.716  14.288   7.558
72281SOL     OW18674   5.263  13.095   0.424
72281SOL    HW118675   5.214  13.023   0.383
72281SOL    HW218676   5.304  13.054   0.500
72282SOL     OW18677  13.401   9.960  10.767
72282SOL    HW118678  13.327  10.020  10.756
72282SOL    HW218679  13.365   9.887  10.818
72283SOL     OW18680  13.007   3.228   4.758
72283SOL    HW118681  13.069   3.172   4.805
72283SOL    HW218682  13.043   3.316   4.767
72284SOL     OW18683  10.470   6.169  10.907
72284SOL    HW118684  10.451   6.120  10.827
72284SOL    HW218685  10.429   6.255  10.892
72285SOL     OW18686   1.551   4.774   5.470
72285SOL    HW118687   1.501   4.786   5.551
72285SOL    HW218688   1.530   4.685   5.442
72286SOL     OW18689   1.557   5.185   8.324
72286SOL    HW118690   1.609   5.261   8.351
72286SOL    HW218691   1.556   5.189   8.229
72287SOL     OW18692  11.379  10.164   2.023
72287SOL    HW118693  11.345  10.077   2.002
72287SOL    HW218694  11.430  10.189   1.947
72288SOL     OW18695   8.112   6.070   1.016
72288SOL    HW118696   8.073   6.119   0.944
72288SOL    HW218697   8.191   6.118   1.038
72289SOL     OW18698  14.409   6.244   1.774
72289SOL    HW118699  14.343   6.194   1.726
72289SOL    HW218700  14.379   6.242   1.865
72290SOL     OW18701  12.023   8.228   1.152
72290SOL    HW118702  12.048   8.312   1.115
72290SOL    HW218703  12.007   8.247   1.245
72291SOL     OW18704   8.596  14.813   4.662
72291SOL    HW118705   8.636  14.840   4.744
72291SOL    HW218706   8.516  14.863   4.655
72292SOL     OW18707  13.502   6.755   6.972
72292SOL    HW118708  13.485   6.805   6.893
72292SOL    HW218709  13.581   6.795   7.010
72293SOL     OW18710   7.852   3.163   6.443
72293SOL    HW118711   7.811   3.201   6.522
72293SOL    HW218712   7.895   3.237   6.401
72294SOL     OW18713   9.411   2.801   5.378
72294SOL    HW118714   9.366   2.738   5.322
72294SOL    HW218715   9.381   2.886   5.347
72295SOL     OW18716  12.942   3.482   5.450
72295SOL    HW118717  13.036   3.469   5.463
72295SOL    HW218718  12.932   3.489   5.355
72296SOL     OW18719   4.108  13.906  14.106
72296SOL    HW118720   4.124  13.812  14.117
72296SOL    HW218721   4.134  13.925  14.016
72297SOL     OW18722   9.255   7.601   0.919
72297SOL    HW118723   9.252   7.692   0.949
72297SOL    HW218724   9.164   7.571   0.925
72298SOL     OW18725   4.516   2.078   5.533
72298SOL    HW118726   4.602   2.077   5.574
72298SOL    HW218727   4.518   2.005   5.471
72299SOL     OW18728   1.936  14.061   8.367
72299SOL    HW118729   1.996  14.106   8.426
72299SOL    HW218730   1.983  14.056   8.284
72300SOL     OW18731  12.615  11.192   4.458
72300SOL    HW118732  12.690  11.210   4.402
72300SOL    HW218733  12.651  11.179   4.545
72301SOL     OW18734   5.557  10.190  10.418
72301SOL    HW118735   5.505  10.205  10.339
72301SOL    HW218736   5.604  10.272  10.432
72302SOL     OW18737  11.900   4.644  13.788
72302SOL    HW118738  11.958   4.599  13.727
72302SOL    HW218739  11.812   4.631  13.751
72303SOL     OW18740  11.661  13.219  13.948
72303SOL    HW118741  11.641  13.229  13.855
72303SOL    HW218742  11.752  13.190  13.950
72304SOL     OW18743   9.698   4.401   4.003
72304SOL    HW118744   9.696   4.460   3.928
72304SOL    HW218745   9.669   4.317   3.968
72305SOL     OW18746   1.387  12.202  12.316
72305SOL    HW118747   1.325  12.134  12.342
72305SOL    HW218748   1.382  12.267  12.386
72306SOL     OW18749   8.108  12.175   2.185
72306SOL    HW118750   8.116  12.081   2.172
72306SOL    HW218751   8.127  12.189   2.277
72307SOL     OW18752   0.305  11.959   2.735
72307SOL    HW118753   0.216  11.932   2.755
72307SOL    HW218754   0.325  12.025   2.801
72308SOL     OW18755   1.368   9.140   3.991
72308SOL    HW118756   1.328   9.066   4.037
72308SOL    HW218757   1.327   9.217   4.029
72309SOL     OW18758  10.283  10.206   3.657
72309SOL    HW118759  10.260  10.180   3.746
72309SOL    HW218760  10.372  10.173   3.645
72310SOL     OW18761   0.970  13.167  11.847
72310SOL    HW118762   1.063  13.184  11.834
72310SOL    HW218763   0.964  13.072  11.854
72311SOL     OW18764   0.850   0.549  10.620
72311SOL    HW118765   0.917   0.556  10.688
72311SOL    HW218766   0.828   0.456  10.616
72312SOL     OW18767  13.480  10.456   3.396
72312SOL    HW118768  13.467  10.547   3.369
72312SOL    HW218769  13.563  10.431   3.356
72313SOL     OW18770   6.871  14.830  12.568
72313SOL    HW118771   6.882  14.803  12.477
72313SOL    HW218772   6.956  14.813  12.608
72314SOL     OW18773   2.685  13.747   5.111
72314SOL    HW118774   2.650  13.688   5.178
72314SOL    HW218775   2.665  13.704   5.028
72315SOL     OW18776   3.599  13.943   5.333
72315SOL    HW118777   3.514  13.932   5.289
72315SOL    HW218778   3.589  14.021   5.387
72316SOL     OW18779   4.368  13.950  11.902
72316SOL    HW118780   4.363  13.875  11.962
72316SOL    HW218781   4.448  13.935  11.852
72317SOL     OW18782  14.042  13.925  11.154
72317SOL    HW118783  14.121  13.975  11.172
72317SOL    HW218784  14.006  13.904  11.240
72318SOL     OW18785   9.910   6.033   3.854
72318SOL    HW118786   9.871   6.027   3.767
72318SOL    HW218787   9.839   6.009   3.913
72319SOL     OW18788  14.304   9.518   3.237
72319SOL    HW118789  14.391   9.556   3.247
72319SOL    HW218790  14.244   9.586   3.268
72320SOL     OW18791   8.826  12.478  13.613
72320SOL    HW118792   8.828  12.566  13.577
72320SOL    HW218793   8.742  12.473  13.659
72321SOL     OW18794   7.174  10.874   9.193
72321SOL    HW118795   7.168  10.895   9.100
72321SOL    HW218796   7.263  10.842   9.205
72322SOL     OW18797   4.358  14.045   2.737
72322SOL    HW118798   4.357  13.973   2.800
72322SOL    HW218799   4.418  14.017   2.668
72323SOL     OW18800  12.098   7.109   0.633
72323SOL    HW118801  12.175   7.081   0.585
72323SOL    HW218802  12.049   7.028   0.649
72324SOL     OW18803  10.389   6.829   2.070
72324SOL    HW118804  10.394   6.806   1.977
72324SOL    HW218805  10.420   6.919   2.074
72325SOL     OW18806   2.639  10.542   1.509
72325SOL    HW118807   2.707  10.575   1.567
72325SOL    HW218808   2.651  10.447   1.508
72326SOL     OW18809   2.728   7.635   7.932
72326SOL    HW118810   2.731   7.600   7.843
72326SOL    HW218811   2.644   7.681   7.937
72327SOL     OW18812  14.100   6.571   9.761
72327SOL    HW118813  14.189   6.559   9.793
72327SOL    HW218814  14.071   6.482   9.737
72328SOL     OW18815   0.015   0.592   9.424
72328SOL    HW118816   0.039   0.555   9.509
72328SOL    HW218817  14.808   0.559   9.407
72329SOL     OW18818   9.281   3.679   9.974
72329SOL    HW118819   9.246   3.596   9.942
72329SOL    HW218820   9.269   3.740   9.901
72330SOL     OW18821   2.531   0.643  13.365
72330SOL    HW118822   2.438   0.656  13.346
72330SOL    HW218823   2.571   0.728  13.347
72331SOL     OW18824   7.495  12.671   1.350
72331SOL    HW118825   7.505  12.718   1.433
72331SOL    HW218826   7.425  12.717   1.304
72332SOL     OW18827  13.569   1.797   1.913
72332SOL    HW118828  13.517   1.832   1.840
72332SOL    HW218829  13.580   1.704   1.891
72333SOL     OW18830   3.600   6.943  10.396
72333SOL    HW118831   3.562   6.856  10.400
72333SOL    HW218832   3.578   6.974  10.308
72334SOL     OW18833  12.876   7.877  10.945
72334SOL    HW118834  12.936   7.880  11.020
72334SOL    HW218835  12.793   7.847  10.982
72335SOL     OW18836   1.668   9.733  13.636
72335SOL    HW118837   1.716   9.712  13.556
72335SOL    HW218838   1.692   9.663  13.697
72336SOL     OW18839   1.370  11.638   3.821
72336SOL    HW118840   1.448  11.681   3.786
72336SOL    HW218841   1.384  11.545   3.804
72337SOL     OW18842  14.797   4.988  13.771
72337SOL    HW118843  14.824   4.973  13.680
72337SOL    HW218844  14.764   4.904  13.801
72338SOL     OW18845  12.545   1.362   7.210
72338SOL    HW118846  12.516   1.396   7.126
72338SOL    HW218847  12.468   1.369   7.267
72339SOL     OW18848   2.375   8.596  10.837
72339SOL    HW118849   2.317   8.671  10.827
72339SOL    HW218850   2.435   8.601  10.762
72340SOL     OW18851  13.486   9.730   1.358
72340SOL    HW118852  13.525   9.722   1.445
72340SOL    HW218853  13.397   9.763   1.375
72341SOL     OW18854   5.578  10.658   5.310
72341SOL    HW118855   5.627  10.587   5.350
72341SOL    HW218856   5.633  10.735   5.321
72342SOL     OW18857   7.585   1.299  10.838
72342SOL    HW118858   7.653   1.258  10.891
72342SOL    HW218859   7.513   1.236  10.837
72343SOL     OW18860   7.239  10.060  13.075
72343SOL    HW118861   7.311  10.027  13.130
72343SOL    HW218862   7.277  10.066  12.988
72344SOL     OW18863   3.116   6.215   4.376
72344SOL    HW118864   3.162   6.159   4.313
72344SOL    HW218865   3.140   6.304   4.350
72345SOL     OW18866   5.928   6.213   2.150
72345SOL    HW118867   6.016   6.250   2.151
72345SOL    HW218868   5.922   6.166   2.067
72346SOL     OW18869   3.372   7.565   9.812
72346SOL    HW118870   3.352   7.473   9.793
72346SOL    HW218871   3.291   7.601   9.848
72347SOL     OW18872  10.103   5.373  13.035
72347SOL    HW118873  10.115   5.287  12.995
72347SOL    HW218874  10.016   5.369  13.074
72348SOL     OW18875   5.245  11.413  10.395
72348SOL    HW118876   5.326  11.422  10.446
72348SOL    HW218877   5.212  11.502  10.386
72349SOL     OW18878  13.875   2.569   1.587
72349SOL    HW118879  13.781   2.584   1.592
72349SOL    HW218880  13.900   2.606   1.502
72350SOL     OW18881  10.488   6.439   0.842
72350SOL    HW118882  10.468   6.527   0.810
72350SOL    HW218883  10.543   6.400   0.774
72351SOL     OW18884   9.644  12.061  11.647
72351SOL    HW118885   9.738  12.050  11.659
72351SOL    HW218886   9.615  12.107  11.726
72352SOL     OW18887  10.527   4.380   1.578
72352SOL    HW118888  10.522   4.326   1.499
72352SOL    HW218889  10.610   4.354   1.619
72353SOL     OW18890   2.402   3.026   8.960
72353SOL    HW118891   2.489   3.021   9.000
72353SOL    HW218892   2.375   3.117   8.973
72354SOL     OW18893   9.647  12.941  12.258
72354SOL    HW118894   9.660  12.996  12.181
72354SOL    HW218895   9.670  12.997  12.332
72355SOL     OW18896  11.741  12.125   2.931
72355SOL    HW118897  11.681  12.193   2.962
72355SOL    HW218898  11.695  12.084   2.858
72356SOL     OW18899  12.607   1.054   6.510
72356SOL    HW118900  12.589   0.964   6.535
72356SOL    HW218901  12.602   1.103   6.592
72357SOL     OW18902  11.833   4.233   7.488
72357SOL    HW118903  11.826   4.272   7.401
72357SOL    HW218904  11.921   4.256   7.518
72358SOL     OW18905   2.448  14.105  13.039
72358SOL    HW118906   2.494  14.021  13.042
72358SOL    HW218907   2.357  14.084  13.058
72359SOL     OW18908   2.625  11.526  13.463
72359SOL    HW118909   2.594  11.482  13.384
72359SOL    HW218910   2.569  11.602  13.472
72360SOL     OW18911   3.402  11.136   4.205
72360SOL    HW118912   3.315  11.173   4.215
72360SOL    HW218913   3.387  11.052   4.161
72361SOL     OW18914  11.174   6.643   8.806
72361SOL    HW118915  11.148   6.609   8.891
72361SOL    HW218916  11.094   6.643   8.754
72362SOL     OW18917   5.109   8.646   2.518
72362SOL    HW118918   5.144   8.659   2.430
72362SOL    HW218919   5.088   8.553   2.523
72363SOL     OW18920  12.641  14.679   6.095
72363SOL    HW118921  12.566  14.736   6.113
72363SOL    HW218922  12.716  14.739   6.088
72364SOL     OW18923  11.729   0.168   6.451
72364SOL    HW118924  11.640   0.199   6.433
72364SOL    HW218925  11.718   0.100   6.516
72365SOL     OW18926  11.237   9.873   4.251
72365SOL    HW118927  11.162   9.820   4.277
72365SOL    HW218928  11.296   9.869   4.326
72366SOL     OW18929   2.733   3.765  13.393
72366SOL    HW118930   2.764   3.715  13.469
72366SOL    HW218931   2.637   3.767  13.404
72367SOL     OW18932   9.787  12.334   1.520
72367SOL    HW118933   9.722  12.303   1.457
72367SOL    HW218934   9.847  12.388   1.469
72368SOL     OW18935   4.877   0.533   2.712
72368SOL    HW118936   4.904   0.441   2.711
72368SOL    HW218937   4.878   0.557   2.805
72369SOL     OW18938   3.571   4.303  12.855
72369SOL    HW118939   3.536   4.302  12.944
72369SOL    HW218940   3.604   4.214  12.842
72370SOL     OW18941  14.533   6.383   6.896
72370SOL    HW118942  14.594   6.439   6.848
72370SOL    HW218943  14.486   6.442   6.954
72371SOL     OW18944   9.291  12.202  13.876
72371SOL    HW118945   9.310  12.296  13.871
72371SOL    HW218946   9.366  12.160  13.835
72372SOL     OW18947   6.719   1.736   8.139
72372SOL    HW118948   6.643   1.718   8.193
72372SOL    HW218949   6.793   1.705   8.190
72373SOL     OW18950   2.488   6.310   3.963
72373SOL    HW118951   2.510   6.347   3.877
72373SOL    HW218952   2.417   6.249   3.946
72374SOL     OW18953   5.783   8.664   6.115
72374SOL    HW118954   5.789   8.650   6.021
72374SOL    HW218955   5.868   8.700   6.141
72375SOL     OW18956   6.548   2.869  12.336
72375SOL    HW118957   6.626   2.814  12.349
72375SOL    HW218958   6.485   2.836  12.400
72376SOL     OW18959   5.465   0.631   0.732
72376SOL    HW118960   5.386   0.669   0.694
72376SOL    HW218961   5.505   0.702   0.781
72377SOL     OW18962   9.532   7.278   4.380
72377SOL    HW118963   9.529   7.203   4.320
72377SOL    HW218964   9.472   7.254   4.450
72378SOL     OW18965   9.250   5.292   7.021
72378SOL    HW118966   9.257   5.245   7.104
72378SOL    HW218967   9.239   5.223   6.955
72379SOL     OW18968  13.970   0.450  10.013
72379SOL    HW118969  14.002   0.487  10.095
72379SOL    HW218970  13.990   0.357  10.019
72380SOL     OW18971   8.981   8.039   5.086
72380SOL    HW118972   9.074   8.035   5.108
72380SOL    HW218973   8.968   8.129   5.055
72381SOL     OW18974  12.123  11.169  11.409
72381SOL    HW118975  12.137  11.074  11.413
72381SOL    HW218976  12.105  11.187  11.317
72382SOL     OW18977   8.518  11.137  11.530
72382SOL    HW118978   8.487  11.224  11.505
72382SOL    HW218979   8.527  11.141  11.625
72383SOL     OW18980   7.730  12.414   5.507
72383SOL    HW118981   7.813  12.461   5.503
72383SOL    HW218982   7.750  12.327   5.473
72384SOL     OW18983   0.313   4.586   5.967
72384SOL    HW118984   0.375   4.589   6.040
72384SOL    HW218985   0.308   4.493   5.944
72385SOL     OW18986   2.227   6.398  10.170
72385SOL    HW118987   2.155   6.335  10.177
72385SOL    HW218988   2.218   6.454  10.247
72386SOL     OW18989  10.788   2.519   9.321
72386SOL    HW118990  10.725   2.532   9.392
72386SOL    HW218991  10.737   2.478   9.251
72387SOL     OW18992   2.987   4.264  13.174
72387SOL    HW118993   2.997   4.172  13.150
72387SOL    HW218994   3.018   4.313  13.098
72388SOL     OW18995   1.790   0.388  10.014
72388SOL    HW118996   1.767   0.349   9.929
72388SOL    HW218997   1.877   0.424  10.001
72389SOL     OW18998  13.724   2.637  12.804
72389SOL    HW118999  13.698   2.704  12.740
72389SOL    HW219000  13.679   2.661  12.884
72390SOL     OW19001  12.027   8.849   5.145
72390SOL    HW119002  11.975   8.899   5.082
72390SOL    HW219003  12.089   8.799   5.092
72391SOL     OW19004   6.315  13.137  13.011
72391SOL    HW119005   6.328  13.092  12.928
72391SOL    HW219006   6.304  13.068  13.075
72392SOL     OW19007   4.065  12.350   0.990
72392SOL    HW119008   4.086  12.271   0.940
72392SOL    HW219009   3.974  12.370   0.967
72393SOL     OW19010  13.547   9.992   0.714
72393SOL    HW119011  13.571  10.081   0.739
72393SOL    HW219012  13.454   9.997   0.692
72394SOL     OW19013   5.368   1.693  14.849
72394SOL    HW119014   5.296   1.633  14.828
72394SOL    HW219015   5.382   1.682   0.061
72395SOL     OW19016   9.870   2.583   5.096
72395SOL    HW119017   9.777   2.562   5.105
72395SOL    HW219018   9.914   2.499   5.101
72396SOL     OW19019   0.156   0.985  13.452
72396SOL    HW119020   0.135   0.898  13.417
72396SOL    HW219021   0.078   1.010  13.502
72397SOL     OW19022   8.236   6.239   9.687
72397SOL    HW119023   8.158   6.239   9.742
72397SOL    HW219024   8.290   6.310   9.721
72398SOL     OW19025   8.206   0.895   3.998
72398SOL    HW119026   8.149   0.958   3.953
72398SOL    HW219027   8.185   0.811   3.959
72399SOL     OW19028  13.641  11.500   2.229
72399SOL    HW119029  13.640  11.406   2.245
72399SOL    HW219030  13.551  11.528   2.243
72400SOL     OW19031   6.094   0.403   2.015
72400SOL    HW119032   6.188   0.395   1.997
72400SOL    HW219033   6.079   0.497   2.022
72401SOL     OW19034   1.142  14.787  13.489
72401SOL    HW119035   1.163  14.855  13.554
72401SOL    HW219036   1.046  14.785  13.486
72402SOL     OW19037   6.180   2.848   5.731
72402SOL    HW119038   6.159   2.941   5.730
72402SOL    HW219039   6.192   2.827   5.823
72403SOL     OW19040  10.701   5.862   9.577
72403SOL    HW119041  10.795   5.873   9.560
72403SOL    HW219042  10.664   5.844   9.491
72404SOL     OW19043   6.362   9.303  12.074
72404SOL    HW119044   6.380   9.397  12.071
72404SOL    HW219045   6.373   9.279  12.166
72405SOL     OW19046  11.019   2.717   6.390
72405SOL    HW119047  11.075   2.709   6.313
72405SOL    HW219048  10.948   2.774   6.362
72406SOL     OW19049   4.762  14.554  13.456
72406SOL    HW119050   4.839  14.610  13.462
72406SOL    HW219051   4.688  14.613  13.469
72407SOL     OW19052   0.805   7.698   2.105
72407SOL    HW119053   0.719   7.660   2.086
72407SOL    HW219054   0.843   7.717   2.019
72408SOL     OW19055   2.778   4.388   2.501
72408SOL    HW119056   2.741   4.430   2.424
72408SOL    HW219057   2.847   4.448   2.530
72409SOL     OW19058   3.047   6.122   5.664
72409SOL    HW119059   3.139   6.146   5.662
72409SOL    HW219060   3.017   6.132   5.573
72410SOL     OW19061  12.261  12.491   0.989
72410SOL    HW119062  12.351  12.519   1.003
72410SOL    HW219063  12.240  12.436   1.064
72411SOL     OW19064   8.950   3.256   9.044
72411SOL    HW119065   8.991   3.198   8.980
72411SOL    HW219066   9.023   3.304   9.082
72412SOL     OW19067   6.028   3.840   6.214
72412SOL    HW119068   5.940   3.819   6.244
72412SOL    HW219069   6.016   3.880   6.128
72413SOL     OW19070   8.853   3.721   4.758
72413SOL    HW119071   8.885   3.639   4.720
72413SOL    HW219072   8.931   3.764   4.793
72414SOL     OW19073   5.897   8.023  12.874
72414SOL    HW119074   5.801   8.019  12.871
72414SOL    HW219075   5.921   7.964  12.945
72415SOL     OW19076   0.576   2.187  14.505
72415SOL    HW119077   0.568   2.200  14.600
72415SOL    HW219078   0.577   2.275  14.469
72416SOL     OW19079  12.356   9.304  14.163
72416SOL    HW119080  12.377   9.232  14.222
72416SOL    HW219081  12.287   9.270  14.106
72417SOL     OW19082   9.719   3.270   5.753
72417SOL    HW119083   9.661   3.330   5.800
72417SOL    HW219084   9.674   3.255   5.670
72418SOL     OW19085  10.942   8.868   4.937
72418SOL    HW119086  10.986   8.786   4.961
72418SOL    HW219087  10.855   8.861   4.977
72419SOL     OW19088   4.163   3.587   2.598
72419SOL    HW119089   4.105   3.655   2.564
72419SOL    HW219090   4.105   3.513   2.616
72420SOL     OW19091   4.892  10.385   2.757
72420SOL    HW119092   4.871  10.446   2.686
72420SOL    HW219093   4.893  10.440   2.836
72421SOL     OW19094   1.450   5.702   1.433
72421SOL    HW119095   1.465   5.795   1.412
72421SOL    HW219096   1.526   5.676   1.485
72422SOL     OW19097   2.640  10.606  14.143
72422SOL    HW119098   2.621  10.564  14.059
72422SOL    HW219099   2.716  10.558  14.177
72423SOL     OW19100   3.368   9.295  11.774
72423SOL    HW119101   3.326   9.354  11.711
72423SOL    HW219102   3.321   9.212  11.763
72424SOL     OW19103   5.338   8.266   8.633
72424SOL    HW119104   5.362   8.263   8.726
72424SOL    HW219105   5.418   8.295   8.589
72425SOL     OW19106  11.225  14.178   7.932
72425SOL    HW119107  11.165  14.205   7.862
72425SOL    HW219108  11.191  14.220   8.011
72426SOL     OW19109   3.829   1.339   4.970
72426SOL    HW119110   3.901   1.282   4.943
72426SOL    HW219111   3.757   1.315   4.911
72427SOL     OW19112   7.458  11.603   9.136
72427SOL    HW119113   7.393  11.535   9.150
72427SOL    HW219114   7.532  11.578   9.192
72428SOL     OW19115  14.861  11.383  14.639
72428SOL    HW119116  14.766  11.395  14.638
72428SOL    HW219117   0.012  11.459  14.689
72429SOL     OW19118   9.782   4.441   6.388
72429SOL    HW119119   9.759   4.534   6.390
72429SOL    HW219120   9.744   4.406   6.468
72430SOL     OW19121  12.313   4.922  14.842
72430SOL    HW119122  12.281   4.927   0.050
72430SOL    HW219123  12.318   5.013  14.813
72431SOL     OW19124   0.307  11.504  14.635
72431SOL    HW119125   0.289  11.414  14.606
72431SOL    HW219126   0.241  11.557  14.590
72432SOL     OW19127   9.740  12.680   2.897
72432SOL    HW119128   9.725  12.586   2.884
72432SOL    HW219129   9.782  12.708   2.815
72433SOL     OW19130   5.695   5.252  13.942
72433SOL    HW119131   5.749   5.201  14.003
72433SOL    HW219132   5.744   5.334  13.930
72434SOL     OW19133   2.785   8.451  12.600
72434SOL    HW119134   2.771   8.468  12.507
72434SOL    HW219135   2.803   8.538  12.637
72435SOL     OW19136   7.584  10.927   7.619
72435SOL    HW119137   7.511  10.882   7.663
72435SOL    HW219138   7.561  10.925   7.526
72436SOL     OW19139   7.134  14.805   1.117
72436SOL    HW119140   7.096  14.849   1.041
72436SOL    HW219141   7.170  14.875   1.171
72437SOL     OW19142   4.415   0.109  11.436
72437SOL    HW119143   4.372   0.026  11.454
72437SOL    HW219144   4.444   0.103  11.345
72438SOL     OW19145   3.327   9.789  14.446
72438SOL    HW119146   3.413   9.747  14.447
72438SOL    HW219147   3.285   9.760  14.528
72439SOL     OW19148   4.009  11.257   7.205
72439SOL    HW119149   3.987  11.186   7.144
72439SOL    HW219150   4.092  11.292   7.173
72440SOL     OW19151   4.852  10.126  11.601
72440SOL    HW119152   4.938  10.158  11.573
72440SOL    HW219153   4.872  10.059  11.667
72441SOL     OW19154   0.993   2.020   6.613
72441SOL    HW119155   0.915   2.026   6.558
72441SOL    HW219156   1.035   2.106   6.603
72442SOL     OW19157   4.142  11.082  11.400
72442SOL    HW119158   4.156  11.025  11.476
72442SOL    HW219159   4.081  11.034  11.345
72443SOL     OW19160   4.865  10.713  12.511
72443SOL    HW119161   4.920  10.787  12.535
72443SOL    HW219162   4.925  10.649  12.474
72444SOL     OW19163   6.265  13.207  10.425
72444SOL    HW119164   6.299  13.222  10.337
72444SOL    HW219165   6.297  13.281  10.476
72445SOL     OW19166  11.456  12.378   5.972
72445SOL    HW119167  11.509  12.402   6.049
72445SOL    HW219168  11.366  12.375   6.005
72446SOL     OW19169   5.224  10.195   6.895
72446SOL    HW119170   5.157  10.254   6.928
72446SOL    HW219171   5.214  10.198   6.800
72447SOL     OW19172   0.303  13.129   8.039
72447SOL    HW119173   0.280  13.095   7.953
72447SOL    HW219174   0.253  13.076   8.101
72448SOL     OW19175   8.155   7.161   9.791
72448SOL    HW119176   8.247   7.162   9.764
72448SOL    HW219177   8.139   7.069   9.815
72449SOL     OW19178  11.163   6.539   2.820
72449SOL    HW119179  11.098   6.473   2.796
72449SOL    HW219180  11.123   6.588   2.892
72450SOL     OW19181   7.428   3.237  10.564
72450SOL    HW119182   7.442   3.305  10.499
72450SOL    HW219183   7.516   3.209  10.590
72451SOL     OW19184   7.696   0.434   1.353
72451SOL    HW119185   7.719   0.342   1.358
72451SOL    HW219186   7.778   0.481   1.365
72452SOL     OW19187  11.375   6.041  10.697
72452SOL    HW119188  11.398   6.098  10.624
72452SOL    HW219189  11.399   5.953  10.667
72453SOL     OW19190   3.591   5.700   2.513
72453SOL    HW119191   3.682   5.668   2.511
72453SOL    HW219192   3.540   5.630   2.473
72454SOL     OW19193   6.151  10.474   0.907
72454SOL    HW119194   6.131  10.547   0.849
72454SOL    HW219195   6.069  10.456   0.953
72455SOL     OW19196   6.463  14.875  13.604
72455SOL    HW119197   6.390  14.827  13.564
72455SOL    HW219198   6.533  14.872  13.540
72456SOL     OW19199  11.131  14.450   2.810
72456SOL    HW119200  11.086  14.524   2.850
72456SOL    HW219201  11.083  14.373   2.840
72457SOL     OW19202   0.921   8.893   1.676
72457SOL    HW119203   0.873   8.843   1.742
72457SOL    HW219204   0.870   8.973   1.664
72458SOL     OW19205  12.227   1.585   6.255
72458SOL    HW119206  12.190   1.546   6.176
72458SOL    HW219207  12.291   1.648   6.223
72459SOL     OW19208  13.620   2.288   2.381
72459SOL    HW119209  13.533   2.260   2.353
72459SOL    HW219210  13.678   2.216   2.355
72460SOL     OW19211   5.487   1.606   3.583
72460SOL    HW119212   5.486   1.511   3.597
72460SOL    HW219213   5.408   1.637   3.629
72461SOL     OW19214  14.084   7.960   2.703
72461SOL    HW119215  14.027   8.033   2.680
72461SOL    HW219216  14.033   7.882   2.681
72462SOL     OW19217   4.098  10.661   2.805
72462SOL    HW119218   4.179  10.647   2.755
72462SOL    HW219219   4.064  10.572   2.819
72463SOL     OW19220   2.587   5.384   7.935
72463SOL    HW119221   2.501   5.392   7.892
72463SOL    HW219222   2.636   5.322   7.880
72464SOL     OW19223   9.829   0.444   2.917
72464SOL    HW119224   9.831   0.370   2.978
72464SOL    HW219225   9.737   0.469   2.914
72465SOL     OW19226   1.274  14.623   4.103
72465SOL    HW119227   1.255  14.574   4.183
72465SOL    HW219228   1.321  14.700   4.133
72466SOL     OW19229   0.156  10.380   5.848
72466SOL    HW119230   0.127  10.375   5.939
72466SOL    HW219231   0.121  10.301   5.807
72467SOL     OW19232   4.621  11.336   1.167
72467SOL    HW119233   4.611  11.244   1.192
72467SOL    HW219234   4.558  11.349   1.097
72468SOL     OW19235   7.836   1.425   7.906
72468SOL    HW119236   7.867   1.493   7.966
72468SOL    HW219237   7.861   1.457   7.819
72469SOL     OW19238   8.143   8.728   0.893
72469SOL    HW119239   8.211   8.712   0.827
72469SOL    HW219240   8.113   8.817   0.875
72470SOL     OW19241   2.645  14.683  11.192
72470SOL    HW119242   2.614  14.600  11.229
72470SOL    HW219243   2.593  14.695  11.113
72471SOL     OW19244   7.478   2.394   3.247
72471SOL    HW119245   7.548   2.354   3.195
72471SOL    HW219246   7.446   2.466   3.193
72472SOL     OW19247   2.515   7.530   3.746
72472SOL    HW119248   2.425   7.560   3.750
72472SOL    HW219249   2.524   7.469   3.819
72473SOL     OW19250  13.689  11.695  11.324
72473SOL    HW119251  13.734  11.779  11.329
72473SOL    HW219252  13.695  11.670  11.232
72474SOL     OW19253   6.619   0.169   8.005
72474SOL    HW119254   6.532   0.208   8.013
72474SOL    HW219255   6.623   0.138   7.914
72475SOL     OW19256   5.388  14.122  11.832
72475SOL    HW119257   5.481  14.141  11.848
72475SOL    HW219258   5.389  14.044  11.777
72476SOL     OW19259  11.999   1.332   7.071
72476SOL    HW119260  11.917   1.343   7.023
72476SOL    HW219261  12.016   1.238   7.069
72477SOL     OW19262   3.752   0.269   2.600
72477SOL    HW119263   3.717   0.194   2.648
72477SOL    HW219264   3.783   0.231   2.517
72478SOL     OW19265  12.384   0.877   5.376
72478SOL    HW119266  12.345   0.866   5.463
72478SOL    HW219267  12.463   0.823   5.378
72479SOL     OW19268   0.847   6.303   3.876
72479SOL    HW119269   0.778   6.239   3.892
72479SOL    HW219270   0.814   6.384   3.916
72480SOL     OW19271   7.485   8.608  11.445
72480SOL    HW119272   7.538   8.530  11.461
72480SOL    HW219273   7.498   8.662  11.523
72481SOL     OW19274  10.355  12.917   0.378
72481SOL    HW119275  10.384  12.995   0.330
72481SOL    HW219276  10.407  12.845   0.341
72482SOL     OW19277  14.446   1.497   2.487
72482SOL    HW119278  14.534   1.486   2.453
72482SOL    HW219279  14.397   1.422   2.453
72483SOL     OW19280   1.974  11.577  10.206
72483SOL    HW119281   2.005  11.518  10.275
72483SOL    HW219282   1.969  11.522  10.128
72484SOL     OW19283   1.965  13.359   7.547
72484SOL    HW119284   2.004  13.356   7.460
72484SOL    HW219285   1.927  13.447   7.554
72485SOL     OW19286  12.667   7.776   0.466
72485SOL    HW119287  12.703   7.691   0.437
72485SOL    HW219288  12.699   7.838   0.401
72486SOL     OW19289   5.486   4.874   7.079
72486SOL    HW119290   5.392   4.888   7.085
72486SOL    HW219291   5.523   4.962   7.066
72487SOL     OW19292   6.770   7.700   4.589
72487SOL    HW119293   6.802   7.612   4.573
72487SOL    HW219294   6.732   7.728   4.505
72488SOL     OW19295   1.337  10.245   3.736
72488SOL    HW119296   1.258  10.287   3.702
72488SOL    HW219297   1.374  10.310   3.797
72489SOL     OW19298  14.456  10.942   0.404
72489SOL    HW119299  14.362  10.947   0.422
72489SOL    HW219300  14.491  10.889   0.476
72490SOL     OW19301   1.658   1.986  10.367
72490SOL    HW119302   1.676   2.072  10.405
72490SOL    HW219303   1.626   1.934  10.441
72491SOL     OW19304   1.978   9.641   5.091
72491SOL    HW119305   1.951   9.625   5.181
72491SOL    HW219306   2.055   9.698   5.098
72492SOL     OW19307  14.481   7.663   4.686
72492SOL    HW119308  14.531   7.708   4.618
72492SOL    HW219309  14.540   7.661   4.762
72493SOL     OW19310   7.644  13.131   3.483
72493SOL    HW119311   7.675  13.099   3.567
72493SOL    HW219312   7.549  13.138   3.493
72494SOL     OW19313  14.528   0.657   6.486
72494SOL    HW119314  14.523   0.753   6.484
72494SOL    HW219315  14.505   0.631   6.397
72495SOL     OW19316   6.614   6.567   5.608
72495SOL    HW119317   6.607   6.520   5.691
72495SOL    HW219318   6.542   6.630   5.610
72496SOL     OW19319  11.625   8.891  13.289
72496SOL    HW119320  11.649   8.981  13.312
72496SOL    HW219321  11.595   8.896  13.199
72497SOL     OW19322   0.877  13.188   9.890
72497SOL    HW119323   0.796  13.237   9.894
72497SOL    HW219324   0.930  13.234   9.825
72498SOL     OW19325  10.745   4.225  10.632
72498SOL    HW119326  10.801   4.299  10.609
72498SOL    HW219327  10.803   4.150  10.632
72499SOL     OW19328   0.149   8.680   2.895
72499SOL    HW119329   0.180   8.600   2.938
72499SOL    HW219330   0.196   8.682   2.812
72500SOL     OW19331  14.031   3.974  14.593
72500SOL    HW119332  13.936   3.975  14.578
72500SOL    HW219333  14.055   3.881  14.587
72501SOL     OW19334   8.240   9.864  13.287
72501SOL    HW119335   8.313   9.915  13.253
72501SOL    HW219336   8.278   9.812  13.358
72502SOL     OW19337   4.778  12.069  14.390
72502SOL    HW119338   4.819  12.048  14.474
72502SOL    HW219339   4.684  12.059  14.406
72503SOL     OW19340  12.952  11.571   0.532
72503SOL    HW119341  12.950  11.646   0.473
72503SOL    HW219342  12.982  11.607   0.615
72504SOL     OW19343   7.804  10.944  10.057
72504SOL    HW119344   7.898  10.952  10.046
72504SOL    HW219345   7.767  11.000   9.989
72505SOL     OW19346   5.975  13.839  13.980
72505SOL    HW119347   6.023  13.849  13.898
72505SOL    HW219348   5.930  13.922  13.992
72506SOL     OW19349  11.894   4.040   4.251
72506SOL    HW119350  11.892   3.968   4.188
72506SOL    HW219351  11.850   4.112   4.206
72507SOL     OW19352  13.501   8.584   5.193
72507SOL    HW119353  13.514   8.654   5.130
72507SOL    HW219354  13.408   8.564   5.188
72508SOL     OW19355  13.475   5.615  11.207
72508SOL    HW119356  13.495   5.678  11.138
72508SOL    HW219357  13.404   5.562  11.172
72509SOL     OW19358  13.844   6.155   8.877
72509SOL    HW119359  13.767   6.109   8.844
72509SOL    HW219360  13.824   6.172   8.969
72510SOL     OW19361   1.229   7.066  11.486
72510SOL    HW119362   1.227   7.082  11.392
72510SOL    HW219363   1.278   6.984  11.495
72511SOL     OW19364  11.782   0.971   8.547
72511SOL    HW119365  11.765   0.916   8.624
72511SOL    HW219366  11.802   1.057   8.583
72512SOL     OW19367  13.914  13.670   7.251
72512SOL    HW119368  13.857  13.632   7.185
72512SOL    HW219369  13.952  13.594   7.296
72513SOL     OW19370   8.646   9.673   1.514
72513SOL    HW119371   8.616   9.720   1.592
72513SOL    HW219372   8.601   9.716   1.441
72514SOL     OW19373   1.056   4.090  12.723
72514SOL    HW119374   1.023   4.033  12.792
72514SOL    HW219375   1.086   4.030  12.655
72515SOL     OW19376   7.717  13.927  10.241
72515SOL    HW119377   7.806  13.899  10.219
72515SOL    HW219378   7.693  13.989  10.172
72516SOL     OW19379   5.281   7.876   6.526
72516SOL    HW119380   5.226   7.916   6.593
72516SOL    HW219381   5.221   7.821   6.475
72517SOL     OW19382   3.648  10.856   5.303
72517SOL    HW119383   3.632  10.766   5.333
72517SOL    HW219384   3.728  10.850   5.250
72518SOL     OW19385  11.394   0.797   8.271
72518SOL    HW119386  11.485   0.823   8.260
72518SOL    HW219387  11.347   0.843   8.201
72519SOL     OW19388  12.451  10.013  13.991
72519SOL    HW119389  12.409   9.928  13.985
72519SOL    HW219390  12.382  10.076  13.970
72520SOL     OW19391   7.451   5.449   4.808
72520SOL    HW119392   7.371   5.464   4.857
72520SOL    HW219393   7.435   5.370   4.758
72521SOL     OW19394   3.126   9.931   6.676
72521SOL    HW119395   3.194   9.936   6.609
72521SOL    HW219396   3.044   9.946   6.629
72522SOL     OW19397   4.675   4.414  10.660
72522SOL    HW119398   4.609   4.482  10.664
72522SOL    HW219399   4.757   4.459  10.680
72523SOL     OW19400   0.786   6.940   2.097
72523SOL    HW119401   0.800   6.877   2.167
72523SOL    HW219402   0.730   7.007   2.135
72524SOL     OW19403  13.492   2.549  14.569
72524SOL    HW119404  13.445   2.471  14.541
72524SOL    HW219405  13.583   2.533  14.542
72525SOL     OW19406   8.021   3.549   2.276
72525SOL    HW119407   7.983   3.573   2.361
72525SOL    HW219408   8.100   3.500   2.298
72526SOL     OW19409  11.298   7.377   1.281
72526SOL    HW119410  11.247   7.442   1.329
72526SOL    HW219411  11.234   7.308   1.259
72527SOL     OW19412   6.239   6.414   0.985
72527SOL    HW119413   6.189   6.457   0.915
72527SOL    HW219414   6.173   6.393   1.051
72528SOL     OW19415  14.599   2.259  10.909
72528SOL    HW119416  14.504   2.271  10.909
72528SOL    HW219417  14.629   2.301  10.990
72529SOL     OW19418   6.827  14.300  11.767
72529SOL    HW119419   6.808  14.352  11.689
72529SOL    HW219420   6.740  14.275  11.800
72530SOL     OW19421   1.610  13.048   7.027
72530SOL    HW119422   1.529  13.096   7.011
72530SOL    HW219423   1.606  13.023   7.119
72531SOL     OW19424   0.992   9.107  11.131
72531SOL    HW119425   0.918   9.047  11.119
72531SOL    HW219426   0.965   9.163  11.204
72532SOL     OW19427   5.611  12.766  11.555
72532SOL    HW119428   5.707  12.768  11.550
72532SOL    HW219429   5.585  12.712  11.480
72533SOL     OW19430   8.852  10.605  11.169
72533SOL    HW119431   8.885  10.635  11.084
72533SOL    HW219432   8.907  10.649  11.233
72534SOL     OW19433  14.706  14.560  10.836
72534SOL    HW119434  14.702  14.539  10.930
72534SOL    HW219435  14.686  14.477  10.792
72535SOL     OW19436  10.297  10.761  11.129
72535SOL    HW119437  10.237  10.835  11.129
72535SOL    HW219438  10.350  10.772  11.050
72536SOL     OW19439   7.309   3.736   1.057
72536SOL    HW119440   7.397   3.773   1.047
72536SOL    HW219441   7.316   3.648   1.020
72537SOL     OW19442   1.566   4.153  14.084
72537SOL    HW119443   1.502   4.187  14.021
72537SOL    HW219444   1.559   4.057  14.075
72538SOL     OW19445   5.176   9.109   4.201
72538SOL    HW119446   5.151   9.128   4.292
72538SOL    HW219447   5.271   9.111   4.201
72539SOL     OW19448   7.036   5.519  12.734
72539SOL    HW119449   6.967   5.585  12.739
72539SOL    HW219450   6.991   5.436  12.752
72540SOL     OW19451  13.133   1.566   7.098
72540SOL    HW119452  13.121   1.575   7.193
72540SOL    HW219453  13.071   1.629   7.061
72541SOL     OW19454   3.954   5.414  11.028
72541SOL    HW119455   3.993   5.438  11.112
72541SOL    HW219456   3.862   5.440  11.036
72542SOL     OW19457  11.812   0.949   4.492
72542SOL    HW119458  11.776   0.880   4.548
72542SOL    HW219459  11.878   0.904   4.439
72543SOL     OW19460  11.062   7.920   2.533
72543SOL    HW119461  11.136   7.979   2.520
72543SOL    HW219462  10.992   7.958   2.479
72544SOL     OW19463   5.626   1.432   5.100
72544SOL    HW119464   5.541   1.395   5.123
72544SOL    HW219465   5.681   1.415   5.177
72545SOL     OW19466   1.870  14.688  14.784
72545SOL    HW119467   1.860  14.611  14.840
72545SOL    HW219468   1.784  14.730  14.786
72546SOL     OW19469  12.079   8.736   6.971
72546SOL    HW119470  12.121   8.751   6.887
72546SOL    HW219471  12.151   8.741   7.035
72547SOL     OW19472   2.752   5.976  13.636
72547SOL    HW119473   2.761   6.025  13.718
72547SOL    HW219474   2.733   6.044  13.571
72548SOL     OW19475   1.801   3.145  10.613
72548SOL    HW119476   1.821   3.094  10.534
72548SOL    HW219477   1.735   3.208  10.585
72549SOL     OW19478   0.458  10.726   7.817
72549SOL    HW119479   0.467  10.779   7.896
72549SOL    HW219480   0.543  10.732   7.774
72550SOL     OW19481   4.925  10.017  12.101
72550SOL    HW119482   4.959  10.076  12.033
72550SOL    HW219483   4.948  10.060  12.183
72551SOL     OW19484  10.217   4.022   3.055
72551SOL    HW119485  10.235   3.980   2.972
72551SOL    HW219486  10.292   4.000   3.111
72552SOL     OW19487   0.057   1.293   7.592
72552SOL    HW119488  14.848   1.289   7.562
72552SOL    HW219489   0.052   1.272   7.686
72553SOL     OW19490  12.565   3.038  10.953
72553SOL    HW119491  12.534   3.058  10.864
72553SOL    HW219492  12.660   3.052  10.949
72554SOL     OW19493   0.674  14.128   7.664
72554SOL    HW119494   0.737  14.139   7.735
72554SOL    HW219495   0.712  14.060   7.608
72555SOL     OW19496   4.179   0.259  14.303
72555SOL    HW119497   4.161   0.236  14.394
72555SOL    HW219498   4.203   0.175  14.262
72556SOL     OW19499   7.064  14.023  11.283
72556SOL    HW119500   7.114  13.999  11.205
72556SOL    HW219501   7.126  14.013  11.356
72557SOL     OW19502  10.014   0.554   7.380
72557SOL    HW119503  10.089   0.497   7.396
72557SOL    HW219504   9.963   0.509   7.313
72558SOL     OW19505  12.941  14.575  13.285
72558SOL    HW119506  12.904  14.608  13.204
72558SOL    HW219507  13.034  14.565  13.267
72559SOL     OW19508   2.300   6.632   1.288
72559SOL    HW119509   2.332   6.717   1.257
72559SOL    HW219510   2.273   6.586   1.208
72560SOL     OW19511   3.192  12.089   7.764
72560SOL    HW119512   3.217  12.008   7.808
72560SOL    HW219513   3.275  12.128   7.737
72561SOL     OW19514   1.038   4.015   1.168
72561SOL    HW119515   1.128   4.025   1.138
72561SOL    HW219516   0.993   4.094   1.138
72562SOL     OW19517   3.459   9.138   1.207
72562SOL    HW119518   3.506   9.178   1.134
72562SOL    HW219519   3.413   9.063   1.168
72563SOL     OW19520   7.893   7.375   6.274
72563SOL    HW119521   7.884   7.382   6.369
72563SOL    HW219522   7.932   7.458   6.248
72564SOL     OW19523  11.805  13.574  10.603
72564SOL    HW119524  11.760  13.494  10.575
72564SOL    HW219525  11.861  13.547  10.675
72565SOL     OW19526   1.878  11.803   9.486
72565SOL    HW119527   1.868  11.830   9.394
72565SOL    HW219528   1.807  11.741   9.500
72566SOL     OW19529   5.357   6.468   8.346
72566SOL    HW119530   5.344   6.375   8.330
72566SOL    HW219531   5.386   6.474   8.437
72567SOL     OW19532   6.114  14.567   5.544
72567SOL    HW119533   6.193  14.549   5.493
72567SOL    HW219534   6.052  14.602   5.480
72568SOL     OW19535   4.236  12.253  14.137
72568SOL    HW119536   4.160  12.214  14.180
72568SOL    HW219537   4.205  12.339  14.109
72569SOL     OW19538   8.780   3.821   6.628
72569SOL    HW119539   8.794   3.827   6.534
72569SOL    HW219540   8.700   3.871   6.645
72570SOL     OW19541   5.936   3.168   6.405
72570SOL    HW119542   6.023   3.128   6.401
72570SOL    HW219543   5.922   3.206   6.319
72571SOL     OW19544  11.600   7.057  11.921
72571SOL    HW119545  11.602   7.028  12.012
72571SOL    HW219546  11.692   7.066  11.896
72572SOL     OW19547   0.105   6.256   5.796
72572SOL    HW119548   0.071   6.245   5.707
72572SOL    HW219549   0.043   6.314   5.839
72573SOL     OW19550   1.674   8.086   7.382
72573SOL    HW119551   1.682   8.007   7.436
72573SOL    HW219552   1.720   8.154   7.432
72574SOL     OW19553   1.073   2.131   5.045
72574SOL    HW119554   1.071   2.143   5.140
72574SOL    HW219555   1.108   2.214   5.011
72575SOL     OW19556   4.666   5.244   6.053
72575SOL    HW119557   4.727   5.198   5.996
72575SOL    HW219558   4.710   5.247   6.138
72576SOL     OW19559   9.713   1.846   9.186
72576SOL    HW119560   9.681   1.929   9.222
72576SOL    HW219561   9.659   1.780   9.228
72577SOL     OW19562   0.142  11.690   3.170
72577SOL    HW119563   0.175  11.682   3.260
72577SOL    HW219564   0.215  11.727   3.121
72578SOL     OW19565   6.048  13.020   6.680
72578SOL    HW119566   6.091  13.038   6.596
72578SOL    HW219567   6.000  12.939   6.666
72579SOL     OW19568  13.966  12.347   8.134
72579SOL    HW119569  13.962  12.392   8.049
72579SOL    HW219570  13.906  12.396   8.190
72580SOL     OW19571   6.141  13.950   0.147
72580SOL    HW119572   6.099  13.959   0.062
72580SOL    HW219573   6.202  14.024   0.153
72581SOL     OW19574  13.168   7.142  14.471
72581SOL    HW119575  13.083   7.146  14.514
72581SOL    HW219576  13.212   7.223  14.495
72582SOL     OW19577  10.166   0.668  12.168
72582SOL    HW119578  10.224   0.647  12.241
72582SOL    HW219579  10.222   0.662  12.090
72583SOL     OW19580   4.398  12.291   6.082
72583SOL    HW119581   4.447  12.297   6.164
72583SOL    HW219582   4.405  12.379   6.043
72584SOL     OW19583   1.694  13.129   9.811
72584SOL    HW119584   1.714  13.035   9.806
72584SOL    HW219585   1.604  13.135   9.777
72585SOL     OW19586   4.294  12.188   2.842
72585SOL    HW119587   4.239  12.160   2.769
72585SOL    HW219588   4.296  12.112   2.900
72586SOL     OW19589   5.041   8.330   4.116
72586SOL    HW119590   5.089   8.411   4.133
72586SOL    HW219591   4.981   8.353   4.045
72587SOL     OW19592  14.287   8.682   4.345
72587SOL    HW119593  14.296   8.702   4.438
72587SOL    HW219594  14.289   8.586   4.342
72588SOL     OW19595  10.550   8.454   0.326
72588SOL    HW119596  10.537   8.376   0.379
72588SOL    HW219597  10.629   8.436   0.274
72589SOL     OW19598   1.789   7.060   3.201
72589SOL    HW119599   1.850   6.987   3.188
72589SOL    HW219600   1.757   7.081   3.113
72590SOL     OW19601  12.394   4.503   5.991
72590SOL    HW119602  12.488   4.500   6.009
72590SOL    HW219603  12.353   4.458   6.065
72591SOL     OW19604   3.572  13.743   7.256
72591SOL    HW119605   3.627  13.666   7.268
72591SOL    HW219606   3.514  13.744   7.333
72592SOL     OW19607  12.582   3.236   5.788
72592SOL    HW119608  12.638   3.208   5.716
72592SOL    HW219609  12.641   3.278   5.850
72593SOL     OW19610   6.074   9.593  14.551
72593SOL    HW119611   6.146   9.652  14.573
72593SOL    HW219612   6.050   9.616  14.461
72594SOL     OW19613  10.949  14.304   0.826
72594SOL    HW119614  10.972  14.224   0.778
72594SOL    HW219615  10.937  14.370   0.759
72595SOL     OW19616   2.097   8.476   1.374
72595SOL    HW119617   2.052   8.420   1.311
72595SOL    HW219618   2.154   8.417   1.423
72596SOL     OW19619   1.800   3.751   2.372
72596SOL    HW119620   1.804   3.830   2.318
72596SOL    HW219621   1.724   3.764   2.428
72597SOL     OW19622   8.224   5.227   2.364
72597SOL    HW119623   8.231   5.323   2.368
72597SOL    HW219624   8.132   5.211   2.343
72598SOL     OW19625   6.605   5.838  12.863
72598SOL    HW119626   6.661   5.898  12.814
72598SOL    HW219627   6.518   5.876  12.859
72599SOL     OW19628   0.984   7.607  11.872
72599SOL    HW119629   0.998   7.638  11.961
72599SOL    HW219630   0.891   7.587  11.868
72600SOL     OW19631   4.433  10.187   1.805
72600SOL    HW119632   4.497  10.148   1.746
72600SOL    HW219633   4.413  10.117   1.868
72601SOL     OW19634   5.362  12.295   0.850
72601SOL    HW119635   5.294  12.360   0.835
72601SOL    HW219636   5.428  12.341   0.901
72602SOL     OW19637   7.630   0.081   3.046
72602SOL    HW119638   7.538   0.098   3.067
72602SOL    HW219639   7.676   0.157   3.081
72603SOL     OW19640  11.600  11.907  10.144
72603SOL    HW119641  11.667  11.842  10.122
72603SOL    HW219642  11.650  11.985  10.170
72604SOL     OW19643  11.761  13.563   9.117
72604SOL    HW119644  11.758  13.647   9.163
72604SOL    HW219645  11.753  13.497   9.186
72605SOL     OW19646   8.223   7.734   9.809
72605SOL    HW119647   8.209   7.663   9.745
72605SOL    HW219648   8.160   7.802   9.783
72606SOL     OW19649   3.249   7.817  14.751
72606SOL    HW119650   3.314   7.793  14.817
72606SOL    HW219651   3.224   7.733  14.711
72607SOL     OW19652   6.537   7.555  13.131
72607SOL    HW119653   6.497   7.472  13.154
72607SOL    HW219654   6.595   7.576  13.204
72608SOL     OW19655   9.582   0.935  11.011
72608SOL    HW119656   9.636   0.861  10.983
72608SOL    HW219657   9.604   1.004  10.948
72609SOL     OW19658  12.340  11.024   2.608
72609SOL    HW119659  12.271  11.052   2.668
72609SOL    HW219660  12.369  10.939   2.642
72610SOL     OW19661   9.149  12.372   9.029
72610SOL    HW119662   9.131  12.432   9.102
72610SOL    HW219663   9.195  12.298   9.070
72611SOL     OW19664  14.844   6.466   4.189
72611SOL    HW119665  14.797   6.532   4.239
72611SOL    HW219666   0.054   6.477   4.214
72612SOL     OW19667   6.831  14.737   3.645
72612SOL    HW119668   6.755  14.785   3.676
72612SOL    HW219669   6.872  14.795   3.581
72613SOL     OW19670   8.307   5.021  12.916
72613SOL    HW119671   8.230   4.988  12.870
72613SOL    HW219672   8.378   4.962  12.889
72614SOL     OW19673  13.621  10.672   0.382
72614SOL    HW119674  13.553  10.605   0.393
72614SOL    HW219675  13.611  10.701   0.291
72615SOL     OW19676   4.791   3.602   5.933
72615SOL    HW119677   4.746   3.681   5.963
72615SOL    HW219678   4.729   3.560   5.874
72616SOL     OW19679   7.198   5.392   5.217
72616SOL    HW119680   7.116   5.430   5.186
72616SOL    HW219681   7.208   5.312   5.165
72617SOL     OW19682   2.881  12.792   9.513
72617SOL    HW119683   2.802  12.756   9.554
72617SOL    HW219684   2.904  12.728   9.445
72618SOL     OW19685  12.502   0.716   6.749
72618SOL    HW119686  12.533   0.776   6.817
72618SOL    HW219687  12.564   0.729   6.677
72619SOL     OW19688   3.884   1.096   4.267
72619SOL    HW119689   3.808   1.154   4.264
72619SOL    HW219690   3.856   1.016   4.223
72620SOL     OW19691  12.951   3.925  14.603
72620SOL    HW119692  13.025   3.976  14.636
72620SOL    HW219693  12.932   3.862  14.673
72621SOL     OW19694  10.170  11.683   8.128
72621SOL    HW119695  10.104  11.747   8.102
72621SOL    HW219696  10.183  11.697   8.221
72622SOL     OW19697   0.334   7.538  11.933
72622SOL    HW119698   0.345   7.564  11.842
72622SOL    HW219699   0.399   7.589  11.981
72623SOL     OW19700   8.362  14.469   5.542
72623SOL    HW119701   8.439  14.418   5.515
72623SOL    HW219702   8.308  14.474   5.464
72624SOL     OW19703  11.071  12.247   1.826
72624SOL    HW119704  11.026  12.331   1.830
72624SOL    HW219705  11.025  12.193   1.891
72625SOL     OW19706  11.937  13.929   7.909
72625SOL    HW119707  11.982  13.984   7.845
72625SOL    HW219708  11.886  13.991   7.962
72626SOL     OW19709   7.512   7.672   0.108
72626SOL    HW119710   7.576   7.734   0.142
72626SOL    HW219711   7.561   7.590   0.098
72627SOL     OW19712   2.791   9.068   5.377
72627SOL    HW119713   2.807   9.004   5.307
72627SOL    HW219714   2.876   9.078   5.420
72628SOL     OW19715   7.559   5.088   0.745
72628SOL    HW119716   7.628   5.104   0.681
72628SOL    HW219717   7.555   4.992   0.753
72629SOL     OW19718   1.207   1.778   3.251
72629SOL    HW119719   1.297   1.785   3.218
72629SOL    HW219720   1.213   1.714   3.322
72630SOL     OW19721   1.207   8.420   0.746
72630SOL    HW119722   1.200   8.448   0.655
72630SOL    HW219723   1.294   8.380   0.753
72631SOL     OW19724   0.983  10.259   9.799
72631SOL    HW119725   1.054  10.323   9.802
72631SOL    HW219726   0.904  10.311   9.812
72632SOL     OW19727   7.212  10.958   2.394
72632SOL    HW119728   7.201  11.009   2.314
72632SOL    HW219729   7.232  11.024   2.461
72633SOL     OW19730  14.620   7.812   4.493
72633SOL    HW119731  14.646   7.903   4.508
72633SOL    HW219732  14.624   7.802   4.398
72634SOL     OW19733   5.869  13.751   7.726
72634SOL    HW119734   5.850  13.784   7.638
72634SOL    HW219735   5.926  13.676   7.711
72635SOL     OW19736  12.873   0.429  10.186
72635SOL    HW119737  12.826   0.509  10.162
72635SOL    HW219738  12.897   0.442  10.278
72636SOL     OW19739   5.513  11.621   4.179
72636SOL    HW119740   5.585  11.684   4.166
72636SOL    HW219741   5.463  11.657   4.252
72637SOL     OW19742   2.164   3.565   4.678
72637SOL    HW119743   2.184   3.658   4.682
72637SOL    HW219744   2.080   3.560   4.632
72638SOL     OW19745   9.604  13.807  10.305
72638SOL    HW119746   9.569  13.881  10.256
72638SOL    HW219747   9.698  13.809  10.289
72639SOL     OW19748   4.833  10.182  12.389
72639SOL    HW119749   4.787  10.265  12.399
72639SOL    HW219750   4.783  10.120  12.442
72640SOL     OW19751   7.379   2.688   9.980
72640SOL    HW119752   7.473   2.687   9.961
72640SOL    HW219753   7.338   2.650   9.902
72641SOL     OW19754  14.662   7.905   9.214
72641SOL    HW119755  14.690   7.996   9.224
72641SOL    HW219756  14.710   7.873   9.138
72642SOL     OW19757  12.861   2.823   2.200
72642SOL    HW119758  12.940   2.869   2.172
72642SOL    HW219759  12.890   2.733   2.215
72643SOL     OW19760  11.498   1.462  14.809
72643SOL    HW119761  11.415   1.429  14.775
72643SOL    HW219762  11.495   1.556  14.793
72644SOL     OW19763   5.961   7.281  10.816
72644SOL    HW119764   6.001   7.354  10.768
72644SOL    HW219765   6.033   7.223  10.837
72645SOL     OW19766   7.039   8.997  11.243
72645SOL    HW119767   7.068   9.085  11.217
72645SOL    HW219768   7.066   8.941  11.171
72646SOL     OW19769   8.068   3.936   2.953
72646SOL    HW119770   8.067   3.962   3.045
72646SOL    HW219771   8.063   4.018   2.904
72647SOL     OW19772  13.371   9.410   7.606
72647SOL    HW119773  13.449   9.410   7.550
72647SOL    HW219774  13.330   9.325   7.590
72648SOL     OW19775  14.521   0.480  11.872
72648SOL    HW119776  14.522   0.552  11.935
72648SOL    HW219777  14.592   0.423  11.900
72649SOL     OW19778   2.027   2.700   3.473
72649SOL    HW119779   2.058   2.790   3.462
72649SOL    HW219780   2.106   2.646   3.463
72650SOL     OW19781  13.072   4.364   2.141
72650SOL    HW119782  13.103   4.296   2.082
72650SOL    HW219783  13.023   4.316   2.209
72651SOL     OW19784  13.883   6.804  14.166
72651SOL    HW119785  13.829   6.725  14.160
72651SOL    HW219786  13.956   6.779  14.222
72652SOL     OW19787   3.688  11.773  13.911
72652SOL    HW119788   3.680  11.693  13.964
72652SOL    HW219789   3.722  11.742  13.827
72653SOL     OW19790   2.050   7.145  12.151
72653SOL    HW119791   2.006   7.125  12.068
72653SOL    HW219792   2.140   7.114  12.139
72654SOL     OW19793   2.870   2.379   4.287
72654SOL    HW119794   2.954   2.416   4.312
72654SOL    HW219795   2.888   2.333   4.205
72655SOL     OW19796   7.617  11.120   9.273
72655SOL    HW119797   7.559  11.197   9.275
72655SOL    HW219798   7.560  11.047   9.295
72656SOL     OW19799   2.511   8.761   7.343
72656SOL    HW119800   2.510   8.733   7.251
72656SOL    HW219801   2.475   8.850   7.340
72657SOL     OW19802   1.299  12.525   5.305
72657SOL    HW119803   1.390  12.523   5.276
72657SOL    HW219804   1.267  12.436   5.289
72658SOL     OW19805   7.136   0.509   5.154
72658SOL    HW119806   7.082   0.449   5.207
72658SOL    HW219807   7.164   0.457   5.079
72659SOL     OW19808  10.076   6.470   7.751
72659SOL    HW119809  10.056   6.559   7.780
72659SOL    HW219810  10.171   6.463   7.761
72660SOL     OW19811   8.381   5.944  11.895
72660SOL    HW119812   8.376   5.871  11.956
72660SOL    HW219813   8.300   5.993  11.910
72661SOL     OW19814   0.497  11.981   7.435
72661SOL    HW119815   0.481  11.916   7.367
72661SOL    HW219816   0.531  11.931   7.509
72662SOL     OW19817  10.005   1.668   6.379
72662SOL    HW119818  10.098   1.689   6.384
72662SOL    HW219819   9.969   1.732   6.318
72663SOL     OW19820   1.185   5.740   2.440
72663SOL    HW119821   1.234   5.819   2.416
72663SOL    HW219822   1.120   5.730   2.370
72664SOL     OW19823  14.059   5.495   4.651
72664SOL    HW119824  13.990   5.557   4.677
72664SOL    HW219825  14.095   5.533   4.571
72665SOL     OW19826  13.645   2.937  11.615
72665SOL    HW119827  13.727   2.888  11.622
72665SOL    HW219828  13.648   2.976  11.528
72666SOL     OW19829   9.337   1.560  13.366
72666SOL    HW119830   9.267   1.545  13.303
72666SOL    HW219831   9.418   1.546  13.317
72667SOL     OW19832  13.978   8.885  10.802
72667SOL    HW119833  13.930   8.950  10.750
72667SOL    HW219834  14.059   8.871  10.753
72668SOL     OW19835   9.714   5.938   5.970
72668SOL    HW119836   9.674   5.939   6.056
72668SOL    HW219837   9.780   5.869   5.975
72669SOL     OW19838  12.096   7.794   6.751
72669SOL    HW119839  12.140   7.728   6.698
72669SOL    HW219840  12.064   7.746   6.828
72670SOL     OW19841   1.069  11.710   3.434
72670SOL    HW119842   0.990  11.670   3.470
72670SOL    HW219843   1.072  11.682   3.343
72671SOL     OW19844  13.324   5.418  11.890
72671SOL    HW119845  13.377   5.345  11.920
72671SOL    HW219846  13.260   5.379  11.831
72672SOL     OW19847  13.761   8.042   3.090
72672SOL    HW119848  13.850   8.046   3.125
72672SOL    HW219849  13.767   8.084   3.004
72673SOL     OW19850   8.819  13.464   9.595
72673SOL    HW119851   8.840  13.496   9.683
72673SOL    HW219852   8.742  13.408   9.607
72674SOL     OW19853   9.522   6.657   9.500
72674SOL    HW119854   9.551   6.650   9.591
72674SOL    HW219855   9.561   6.581   9.457
72675SOL     OW19856  13.997  13.192   1.730
72675SOL    HW119857  13.990  13.098   1.746
72675SOL    HW219858  13.968  13.203   1.639
72676SOL     OW19859   9.377   8.590  13.387
72676SOL    HW119860   9.452   8.650  13.395
72676SOL    HW219861   9.411   8.505  13.414
72677SOL     OW19862  10.854  11.772   4.026
72677SOL    HW119863  10.902  11.781   4.108
72677SOL    HW219864  10.762  11.787   4.051
72678SOL     OW19865  13.412   3.181  12.059
72678SOL    HW119866  13.336   3.149  12.011
72678SOL    HW219867  13.487   3.146  12.010
72679SOL     OW19868  12.430   2.671   4.753
72679SOL    HW119869  12.353   2.717   4.718
72679SOL    HW219870  12.493   2.740   4.772
72680SOL     OW19871  11.788  12.992  14.422
72680SOL    HW119872  11.852  13.013  14.353
72680SOL    HW219873  11.703  13.007  14.381
72681SOL     OW19874  11.282  12.632  10.957
72681SOL    HW119875  11.259  12.714  10.913
72681SOL    HW219876  11.377  12.634  10.965
72682SOL     OW19877   0.298   5.202   7.681
72682SOL    HW119878   0.383   5.204   7.726
72682SOL    HW219879   0.260   5.118   7.706
72683SOL     OW19880   5.937   1.284   1.367
72683SOL    HW119881   5.852   1.240   1.373
72683SOL    HW219882   5.996   1.217   1.333
72684SOL     OW19883   0.395   9.835   6.687
72684SOL    HW119884   0.473   9.835   6.741
72684SOL    HW219885   0.347   9.914   6.713
72685SOL     OW19886   6.622   1.448   8.829
72685SOL    HW119887   6.698   1.480   8.878
72685SOL    HW219888   6.549   1.459   8.889
72686SOL     OW19889  14.726  11.838   1.268
72686SOL    HW119890  14.813  11.811   1.237
72686SOL    HW219891  14.741  11.922   1.311
72687SOL     OW19892   8.802   4.670   5.021
72687SOL    HW119893   8.841   4.699   4.939
72687SOL    HW219894   8.828   4.737   5.085
72688SOL     OW19895   6.812   3.776  14.070
72688SOL    HW119896   6.728   3.740  14.039
72688SOL    HW219897   6.870   3.700  14.075
72689SOL     OW19898   6.859  14.310   7.408
72689SOL    HW119899   6.885  14.318   7.500
72689SOL    HW219900   6.765  14.328   7.408
72690SOL     OW19901   0.216   2.321   0.494
72690SOL    HW119902   0.169   2.267   0.431
72690SOL    HW219903   0.204   2.411   0.462
72691SOL     OW19904   4.403   9.021   7.443
72691SOL    HW119905   4.330   8.960   7.451
72691SOL    HW219906   4.363   9.108   7.453
72692SOL     OW19907   8.799   3.367   0.354
72692SOL    HW119908   8.833   3.335   0.437
72692SOL    HW219909   8.746   3.295   0.320
72693SOL     OW19910   6.944   6.431  13.251
72693SOL    HW119911   6.848   6.432  13.255
72693SOL    HW219912   6.965   6.488  13.177
72694SOL     OW19913  13.713  10.236   6.111
72694SOL    HW119914  13.666  10.207   6.034
72694SOL    HW219915  13.806  10.223   6.089
72695SOL     OW19916  13.965   5.932  13.303
72695SOL    HW119917  13.895   5.933  13.367
72695SOL    HW219918  13.990   6.024  13.293
72696SOL     OW19919  11.452  11.942  12.888
72696SOL    HW119920  11.531  11.889  12.884
72696SOL    HW219921  11.429  11.957  12.796
72697SOL     OW19922   7.800   7.092  13.899
72697SOL    HW119923   7.849   7.014  13.926
72697SOL    HW219924   7.864   7.163  13.903
72698SOL     OW19925   4.594   6.002   6.651
72698SOL    HW119926   4.557   6.085   6.622
72698SOL    HW219927   4.522   5.958   6.696
72699SOL     OW19928  13.803   6.407  14.385
72699SOL    HW119929  13.730   6.384  14.443
72699SOL    HW219930  13.860   6.462  14.439
72700SOL     OW19931   1.394  10.714  12.906
72700SOL    HW119932   1.401  10.744  12.996
72700SOL    HW219933   1.485  10.710  12.874
72701SOL     OW19934  12.758   2.098   6.256
72701SOL    HW119935  12.801   2.081   6.172
72701SOL    HW219936  12.784   2.025   6.312
72702SOL     OW19937   0.687  10.426  12.818
72702SOL    HW119938   0.709  10.473  12.738
72702SOL    HW219939   0.771  10.400  12.854
72703SOL     OW19940   3.191  11.342  10.352
72703SOL    HW119941   3.232  11.257  10.362
72703SOL    HW219942   3.192  11.379  10.440
72704SOL     OW19943  14.756   7.078   2.467
72704SOL    HW119944  14.804   7.161   2.473
72704SOL    HW219945  14.719   7.078   2.379
72705SOL     OW19946   1.454  14.197   5.873
72705SOL    HW119947   1.510  14.151   5.810
72705SOL    HW219948   1.388  14.132   5.898
72706SOL     OW19949   7.752   5.496   7.595
72706SOL    HW119950   7.766   5.522   7.504
72706SOL    HW219951   7.679   5.550   7.624
72707SOL     OW19952   6.374   7.334   0.370
72707SOL    HW119953   6.321   7.284   0.432
72707SOL    HW219954   6.460   7.342   0.412
72708SOL     OW19955  13.582   7.195  11.006
72708SOL    HW119956  13.606   7.131  10.939
72708SOL    HW219957  13.619   7.278  10.974
72709SOL     OW19958   1.019   9.070   0.941
72709SOL    HW119959   1.003   9.125   0.865
72709SOL    HW219960   1.108   9.094   0.970
72710SOL     OW19961   8.283  14.723   6.563
72710SOL    HW119962   8.301  14.795   6.623
72710SOL    HW219963   8.290  14.644   6.617
72711SOL     OW19964  14.618  13.889  10.031
72711SOL    HW119965  14.620  13.916  10.123
72711SOL    HW219966  14.702  13.917   9.996
72712SOL     OW19967  11.551  12.016   0.188
72712SOL    HW119968  11.506  12.055   0.113
72712SOL    HW219969  11.528  11.923   0.184
72713SOL     OW19970   5.752  13.154   9.873
72713SOL    HW119971   5.689  13.084   9.888
72713SOL    HW219972   5.762  13.196   9.959
72714SOL     OW19973  14.154  11.098   1.413
72714SOL    HW119974  14.090  11.110   1.483
72714SOL    HW219975  14.207  11.023   1.441
72715SOL     OW19976  12.925   1.792   7.219
72715SOL    HW119977  12.835   1.785   7.251
72715SOL    HW219978  12.924   1.745   7.135
72716SOL     OW19979   2.430   2.653   6.330
72716SOL    HW119980   2.345   2.612   6.320
72716SOL    HW219981   2.476   2.634   6.249
72717SOL     OW19982   1.190   1.390  10.377
72717SOL    HW119983   1.131   1.332  10.425
72717SOL    HW219984   1.145   1.407  10.294
72718SOL     OW19985   2.776   2.080   7.159
72718SOL    HW119986   2.709   2.081   7.227
72718SOL    HW219987   2.859   2.071   7.207
72719SOL     OW19988  14.419   5.077   9.455
72719SOL    HW119989  14.472   5.146   9.416
72719SOL    HW219990  14.436   5.083   9.549
72720SOL     OW19991  10.515  14.817  11.709
72720SOL    HW119992  10.605  14.784  11.708
72720SOL    HW219993  10.475  14.773  11.784
72721SOL     OW19994   3.749  11.439   3.569
72721SOL    HW119995   3.838  11.468   3.592
72721SOL    HW219996   3.729  11.485   3.488
72722SOL     OW19997   2.314  11.161   4.942
72722SOL    HW119998   2.333  11.070   4.918
72722SOL    HW219999   2.395  11.208   4.923
72723SOL     OW20000  10.278   4.464   7.187
72723SOL    HW120001  10.191   4.500   7.171
72723SOL    HW220002  10.272   4.372   7.160
72724SOL     OW20003   6.516  12.772   9.405
72724SOL    HW120004   6.571  12.795   9.330
72724SOL    HW220005   6.434  12.818   9.390
72725SOL     OW20006  13.893  10.833   3.628
72725SOL    HW120007  13.814  10.830   3.575
72725SOL    HW220008  13.875  10.901   3.693
72726SOL     OW20009   4.414   6.961  13.127
72726SOL    HW120010   4.473   6.909  13.073
72726SOL    HW220011   4.404   6.911  13.208
72727SOL     OW20012  12.985   1.126   2.033
72727SOL    HW120013  13.011   1.213   2.003
72727SOL    HW220014  12.973   1.136   2.127
72728SOL     OW20015   2.368   0.621  14.423
72728SOL    HW120016   2.334   0.699  14.378
72728SOL    HW220017   2.352   0.549  14.362
72729SOL     OW20018   1.813   7.428   3.963
72729SOL    HW120019   1.860   7.465   4.038
72729SOL    HW220020   1.871   7.360   3.930
72730SOL     OW20021   9.565   3.157   5.528
72730SOL    HW120022   9.602   3.180   5.443
72730SOL    HW220023   9.503   3.088   5.509
72731SOL     OW20024   3.664  14.044   5.969
72731SOL    HW120025   3.574  14.037   5.938
72731SOL    HW220026   3.716  13.999   5.902
72732SOL     OW20027   3.863  11.464  10.015
72732SOL    HW120028   3.953  11.442   9.991
72732SOL    HW220029   3.845  11.410  10.092
72733SOL     OW20030   7.374   7.327   8.260
72733SOL    HW120031   7.286   7.358   8.281
72733SOL    HW220032   7.429   7.405   8.264
72734SOL     OW20033   9.788   4.826   7.237
72734SOL    HW120034   9.764   4.906   7.284
72734SOL    HW220035   9.780   4.849   7.145
72735SOL     OW20036   1.560  12.555   5.214
72735SOL    HW120037   1.635  12.523   5.265
72735SOL    HW220038   1.573  12.650   5.210
72736SOL     OW20039   0.942   2.849   9.646
72736SOL    HW120040   0.880   2.815   9.581
72736SOL    HW220041   0.932   2.792   9.722
72737SOL     OW20042   3.679  14.296   5.796
72737SOL    HW120043   3.724  14.372   5.832
72737SOL    HW220044   3.621  14.267   5.865
72738SOL     OW20045   5.530   6.319  12.378
72738SOL    HW120046   5.617   6.282  12.394
72738SOL    HW220047   5.494   6.267  12.306
72739SOL     OW20048   2.482   8.849   4.862
72739SOL    HW120049   2.421   8.923   4.853
72739SOL    HW220050   2.427   8.772   4.853
72740SOL     OW20051   4.701   6.998   3.853
72740SOL    HW120052   4.649   6.997   3.933
72740SOL    HW220053   4.748   6.915   3.854
72741SOL     OW20054  11.222  11.360  12.051
72741SOL    HW120055  11.238  11.439  11.999
72741SOL    HW220056  11.238  11.387  12.141
72742SOL     OW20057   5.479   4.684  12.567
72742SOL    HW120058   5.538   4.747  12.524
72742SOL    HW220059   5.538   4.619  12.605
72743SOL     OW20060   1.562   7.855  12.631
72743SOL    HW120061   1.608   7.810  12.560
72743SOL    HW220062   1.556   7.790  12.701
72744SOL     OW20063  12.302   9.878   3.828
72744SOL    HW120064  12.343   9.847   3.909
72744SOL    HW220065  12.255   9.957   3.854
72745SOL     OW20066   3.509   9.636   0.160
72745SOL    HW120067   3.548   9.719   0.188
72745SOL    HW220068   3.415   9.656   0.151
72746SOL     OW20069  14.434   8.573   2.823
72746SOL    HW120070  14.522   8.590   2.856
72746SOL    HW220071  14.386   8.541   2.899
72747SOL     OW20072  12.358   8.319   1.750
72747SOL    HW120073  12.452   8.336   1.761
72747SOL    HW220074  12.316   8.380   1.810
72748SOL     OW20075   0.533   2.515  13.497
72748SOL    HW120076   0.495   2.562  13.422
72748SOL    HW220077   0.530   2.578  13.568
72749SOL     OW20078  12.085  14.522   3.429
72749SOL    HW120079  12.146  14.468   3.377
72749SOL    HW220080  12.011  14.537   3.370
72750SOL     OW20081  11.027   4.338  14.796
72750SOL    HW120082  11.019   4.313  14.704
72750SOL    HW220083  11.110   4.384  14.801
72751SOL     OW20084  12.298   4.545  13.530
72751SOL    HW120085  12.355   4.471  13.548
72751SOL    HW220086  12.292   4.592  13.613
72752SOL     OW20087   9.644   5.351   9.068
72752SOL    HW120088   9.737   5.334   9.054
72752SOL    HW220089   9.613   5.273   9.114
72753SOL     OW20090   8.784   6.527   9.726
72753SOL    HW120091   8.870   6.485   9.722
72753SOL    HW220092   8.790   6.599   9.663
72754SOL     OW20093   0.860  12.285   0.869
72754SOL    HW120094   0.891  12.372   0.893
72754SOL    HW220095   0.843  12.241   0.953
72755SOL     OW20096   9.345   7.942   0.567
72755SOL    HW120097   9.410   7.965   0.500
72755SOL    HW220098   9.362   7.850   0.587
72756SOL     OW20099   4.037   4.811   9.785
72756SOL    HW120100   4.047   4.869   9.709
72756SOL    HW220101   4.101   4.741   9.770
72757SOL     OW20102  13.886   8.212   4.384
72757SOL    HW120103  13.871   8.288   4.328
72757SOL    HW220104  13.839   8.233   4.465
72758SOL     OW20105   3.275   5.467   3.846
72758SOL    HW120106   3.277   5.405   3.919
72758SOL    HW220107   3.185   5.500   3.844
72759SOL     OW20108   9.615   4.120   4.741
72759SOL    HW120109   9.685   4.060   4.714
72759SOL    HW220110   9.618   4.191   4.677
72760SOL     OW20111   7.543   0.535   7.606
72760SOL    HW120112   7.581   0.459   7.651
72760SOL    HW220113   7.538   0.508   7.514
72761SOL     OW20114   2.312   2.514   1.996
72761SOL    HW120115   2.406   2.520   1.982
72761SOL    HW220116   2.277   2.487   1.910
72762SOL     OW20117  10.072   7.276   4.249
72762SOL    HW120118  10.109   7.361   4.274
72762SOL    HW220119  10.057   7.231   4.332
72763SOL     OW20120   7.247   9.658  14.713
72763SOL    HW120121   7.207   9.667  14.799
72763SOL    HW220122   7.234   9.743  14.671
72764SOL     OW20123   2.254   5.821  11.119
72764SOL    HW120124   2.229   5.770  11.042
72764SOL    HW220125   2.278   5.756  11.184
72765SOL     OW20126  14.284   5.477   5.874
72765SOL    HW120127  14.208   5.525   5.840
72765SOL    HW220128  14.250   5.391   5.898
72766SOL     OW20129   4.409  11.079   0.979
72766SOL    HW120130   4.447  10.992   0.994
72766SOL    HW220131   4.314  11.065   0.984
72767SOL     OW20132   7.918   6.857   0.974
72767SOL    HW120133   7.885   6.824   1.058
72767SOL    HW220134   8.011   6.874   0.989
72768SOL     OW20135  14.590   7.658   8.578
72768SOL    HW120136  14.595   7.602   8.656
72768SOL    HW220137  14.620   7.602   8.507
72769SOL     OW20138  10.204   2.622  14.194
72769SOL    HW120139  10.160   2.613  14.278
72769SOL    HW220140  10.164   2.699  14.154
72770SOL     OW20141   6.378  11.511  13.159
72770SOL    HW120142   6.286  11.507  13.135
72770SOL    HW220143   6.397  11.605  13.165
72771SOL     OW20144   1.962   3.180   3.148
72771SOL    HW120145   1.959   3.213   3.237
72771SOL    HW220146   1.937   3.088   3.155
72772SOL     OW20147  12.084  11.694   0.110
72772SOL    HW120148  12.025  11.769   0.124
72772SOL    HW220149  12.032  11.633   0.057
72773SOL     OW20150  13.436  13.128  10.669
72773SOL    HW120151  13.377  13.060  10.639
72773SOL    HW220152  13.520  13.108  10.628
72774SOL     OW20153   9.484   6.434   5.152
72774SOL    HW120154   9.512   6.351   5.112
72774SOL    HW220155   9.476   6.494   5.078
72775SOL     OW20156   2.935   6.919   5.467
72775SOL    HW120157   2.960   6.957   5.382
72775SOL    HW220158   2.886   6.840   5.444
72776SOL     OW20159  13.399   0.995  11.239
72776SOL    HW120160  13.373   0.963  11.326
72776SOL    HW220161  13.368   1.085  11.237
72777SOL     OW20162   3.368  11.290  11.329
72777SOL    HW120163   3.455  11.312  11.297
72777SOL    HW220164   3.361  11.195  11.318
72778SOL     OW20165   8.200   1.888   5.392
72778SOL    HW120166   8.178   1.944   5.467
72778SOL    HW220167   8.227   1.805   5.431
72779SOL     OW20168  14.082  12.802   2.587
72779SOL    HW120169  14.075  12.875   2.649
72779SOL    HW220170  14.158  12.824   2.533
72780SOL     OW20171  13.777  12.441   5.417
72780SOL    HW120172  13.793  12.513   5.478
72780SOL    HW220173  13.795  12.478   5.331
72781SOL     OW20174   7.979   8.874  11.194
72781SOL    HW120175   8.067   8.899  11.168
72781SOL    HW220176   7.922   8.912  11.128
72782SOL     OW20177   0.636   3.044   2.228
72782SOL    HW120178   0.607   2.957   2.200
72782SOL    HW220179   0.630   3.042   2.324
72783SOL     OW20180  12.602   6.633   3.426
72783SOL    HW120181  12.578   6.553   3.474
72783SOL    HW220182  12.688   6.657   3.462
72784SOL     OW20183   2.753   7.936   5.101
72784SOL    HW120184   2.762   8.026   5.129
72784SOL    HW220185   2.779   7.884   5.177
72785SOL     OW20186   1.884   1.888   9.826
72785SOL    HW120187   1.897   1.825   9.897
72785SOL    HW220188   1.805   1.857   9.781
72786SOL     OW20189   2.636  10.248   2.841
72786SOL    HW120190   2.613  10.178   2.903
72786SOL    HW220191   2.726  10.270   2.863
72787SOL     OW20192   6.808   5.478  14.673
72787SOL    HW120193   6.880   5.436  14.721
72787SOL    HW220194   6.730   5.428  14.698
72788SOL     OW20195   0.213  12.220   5.668
72788SOL    HW120196   0.171  12.241   5.584
72788SOL    HW220197   0.306  12.238   5.654
72789SOL     OW20198   6.976   0.134  14.031
72789SOL    HW120199   7.068   0.129  14.060
72789SOL    HW220200   6.970   0.216  13.984
72790SOL     OW20201   7.122  11.785  10.484
72790SOL    HW120202   7.066  11.862  10.473
72790SOL    HW220203   7.087  11.740  10.561
72791SOL     OW20204  12.481  12.128   2.888
72791SOL    HW120205  12.460  12.119   2.981
72791SOL    HW220206  12.451  12.216   2.865
72792SOL     OW20207   0.365   7.984   7.702
72792SOL    HW120208   0.393   8.004   7.614
72792SOL    HW220209   0.443   7.949   7.746
72793SOL     OW20210  13.666   6.167  10.357
72793SOL    HW120211  13.648   6.258  10.380
72793SOL    HW220212  13.658   6.163  10.262
72794SOL     OW20213   1.747   0.734  14.150
72794SOL    HW120214   1.663   0.721  14.194
72794SOL    HW220215   1.788   0.647  14.151
72795SOL     OW20216   2.245   9.102   5.522
72795SOL    HW120217   2.340   9.107   5.530
72795SOL    HW220218   2.225   9.154   5.444
72796SOL     OW20219   7.183   5.083  13.201
72796SOL    HW120220   7.228   5.140  13.138
72796SOL    HW220221   7.114   5.041  13.150
72797SOL     OW20222   2.600  12.331  14.063
72797SOL    HW120223   2.540  12.386  14.115
72797SOL    HW220224   2.668  12.392  14.034
72798SOL     OW20225  13.044   5.884   4.356
72798SOL    HW120226  13.134   5.911   4.340
72798SOL    HW220227  13.014   5.851   4.271
72799SOL     OW20228   2.471  14.309   7.891
72799SOL    HW120229   2.403  14.370   7.921
72799SOL    HW220230   2.424  14.233   7.858
72800SOL     OW20231   1.490   0.501  13.401
72800SOL    HW120232   1.521   0.460  13.320
72800SOL    HW220233   1.518   0.592  13.395
72801SOL     OW20234   7.715  14.086  13.473
72801SOL    HW120235   7.739  14.122  13.388
72801SOL    HW220236   7.789  14.108  13.530
72802SOL     OW20237   2.562   4.427   0.543
72802SOL    HW120238   2.606   4.437   0.459
72802SOL    HW220239   2.516   4.343   0.536
72803SOL     OW20240   1.288   3.463  12.201
72803SOL    HW120241   1.211   3.428  12.156
72803SOL    HW220242   1.356   3.397  12.185
72804SOL     OW20243  13.685   9.631   6.950
72804SOL    HW120244  13.763   9.608   6.900
72804SOL    HW220245  13.715   9.695   7.014
72805SOL     OW20246   5.817   5.495   0.897
72805SOL    HW120247   5.906   5.461   0.902
72805SOL    HW220248   5.820   5.565   0.832
72806SOL     OW20249   7.438   0.317   8.664
72806SOL    HW120250   7.498   0.304   8.738
72806SOL    HW220251   7.418   0.228   8.635
72807SOL     OW20252   1.744  13.311   4.017
72807SOL    HW120253   1.821  13.360   3.990
72807SOL    HW220254   1.676  13.377   4.029
72808SOL     OW20255   7.724   2.429  10.437
72808SOL    HW120256   7.667   2.438  10.361
72808SOL    HW220257   7.702   2.504  10.493
72809SOL     OW20258  14.814   0.329   6.608
72809SOL    HW120259   0.027   0.339   6.612
72809SOL    HW220260  14.786   0.388   6.538
72810SOL     OW20261   2.476   8.723   8.724
72810SOL    HW120262   2.512   8.805   8.757
72810SOL    HW220263   2.410   8.697   8.789
72811SOL     OW20264   1.490   3.306   9.281
72811SOL    HW120265   1.529   3.328   9.197
72811SOL    HW220266   1.439   3.227   9.265
72812SOL     OW20267   7.970  11.091  13.125
72812SOL    HW120268   8.017  11.099  13.041
72812SOL    HW220269   7.970  11.179  13.161
72813SOL     OW20270  12.990  10.453  12.700
72813SOL    HW120271  13.066  10.493  12.656
72813SOL    HW220272  13.009  10.461  12.793
72814SOL     OW20273   3.101  14.712   5.316
72814SOL    HW120274   3.149  14.728   5.235
72814SOL    HW220275   3.145  14.767   5.381
72815SOL     OW20276   1.468   3.116  11.338
72815SOL    HW120277   1.420   3.077  11.411
72815SOL    HW220278   1.549   3.066  11.334
72816SOL     OW20279  12.685   8.954   7.502
72816SOL    HW120280  12.676   8.894   7.575
72816SOL    HW220281  12.645   9.035   7.532
72817SOL     OW20282  13.946   5.836   4.177
72817SOL    HW120283  13.950   5.779   4.100
72817SOL    HW220284  13.985   5.918   4.148
72818SOL     OW20285   9.795   3.949  11.479
72818SOL    HW120286   9.885   3.944  11.448
72818SOL    HW220287   9.753   3.870  11.445
72819SOL     OW20288  14.056   8.033   3.199
72819SOL    HW120289  14.097   7.954   3.232
72819SOL    HW220290  14.058   8.094   3.272
72820SOL     OW20291   6.689   8.794   5.660
72820SOL    HW120292   6.678   8.821   5.569
72820SOL    HW220293   6.782   8.808   5.678
72821SOL     OW20294  10.443   4.908  12.505
72821SOL    HW120295  10.455   4.962  12.582
72821SOL    HW220296  10.478   4.822  12.530
72822SOL     OW20297   3.465   4.883  14.277
72822SOL    HW120298   3.457   4.933  14.358
72822SOL    HW220299   3.428   4.940  14.210
72823SOL     OW20300  14.215   3.942   0.402
72823SOL    HW120301  14.253   3.909   0.484
72823SOL    HW220302  14.150   3.877   0.377
72824SOL     OW20303   3.765  11.665   6.352
72824SOL    HW120304   3.736  11.698   6.437
72824SOL    HW220305   3.845  11.617   6.372
72825SOL     OW20306  12.719   6.855  14.690
72825SOL    HW120307  12.734   6.851  14.785
72825SOL    HW220308  12.649   6.919  14.680
72826SOL     OW20309  14.486   1.870   5.870
72826SOL    HW120310  14.473   1.847   5.962
72826SOL    HW220311  14.580   1.886   5.862
72827SOL     OW20312   6.444  10.870   5.526
72827SOL    HW120313   6.435  10.949   5.578
72827SOL    HW220314   6.538  10.850   5.529
72828SOL     OW20315  12.174   0.878   1.564
72828SOL    HW120316  12.205   0.953   1.614
72828SOL    HW220317  12.254   0.833   1.535
72829SOL     OW20318   5.149   3.360  11.306
72829SOL    HW120319   5.118   3.411  11.382
72829SOL    HW220320   5.197   3.287  11.344
72830SOL     OW20321   6.674   8.946   9.556
72830SOL    HW120322   6.605   8.944   9.489
72830SOL    HW220323   6.639   8.894   9.628
72831SOL     OW20324   2.899   9.054   4.231
72831SOL    HW120325   2.903   8.999   4.153
72831SOL    HW220326   2.943   9.003   4.299
72832SOL     OW20327  10.962   7.493   2.483
72832SOL    HW120328  10.964   7.559   2.413
72832SOL    HW220329  11.017   7.422   2.451
72833SOL     OW20330   2.363  13.981   7.798
72833SOL    HW120331   2.345  13.951   7.887
72833SOL    HW220332   2.284  13.957   7.749
72834SOL     OW20333  11.176   8.681   7.149
72834SOL    HW120334  11.141   8.663   7.237
72834SOL    HW220335  11.241   8.749   7.163
72835SOL     OW20336   2.609   2.115   8.971
72835SOL    HW120337   2.548   2.178   8.933
72835SOL    HW220338   2.578   2.030   8.941
72836SOL     OW20339  14.133   9.099  10.942
72836SOL    HW120340  14.175   9.157  11.006
72836SOL    HW220341  14.159   9.011  10.970
72837SOL     OW20342  12.804   8.853   3.474
72837SOL    HW120343  12.890   8.864   3.515
72837SOL    HW220344  12.812   8.773   3.422
72838SOL     OW20345  10.660  11.460   4.662
72838SOL    HW120346  10.591  11.462   4.596
72838SOL    HW220347  10.679  11.553   4.680
72839SOL     OW20348   3.560   3.976   3.547
72839SOL    HW120349   3.511   3.909   3.593
72839SOL    HW220350   3.498   4.048   3.535
72840SOL     OW20351  14.669   6.476   8.535
72840SOL    HW120352  14.620   6.419   8.595
72840SOL    HW220353  14.729   6.416   8.491
72841SOL     OW20354   2.884   5.256   3.735
72841SOL    HW120355   2.907   5.289   3.648
72841SOL    HW220356   2.820   5.320   3.768
72842SOL     OW20357   5.084  12.688   2.834
72842SOL    HW120358   5.170  12.647   2.834
72842SOL    HW220359   5.035  12.639   2.901
72843SOL     OW20360   9.857  10.824  13.419
72843SOL    HW120361   9.943  10.796  13.387
72843SOL    HW220362   9.873  10.855  13.508
72844SOL     OW20363   1.765  10.058  11.598
72844SOL    HW120364   1.748  10.043  11.691
72844SOL    HW220365   1.820   9.984  11.571
72845SOL     OW20366   5.188  11.512  14.389
72845SOL    HW120367   5.116  11.568  14.361
72845SOL    HW220368   5.190  11.522  14.484
72846SOL     OW20369   9.641  12.528   5.938
72846SOL    HW120370   9.555  12.503   5.904
72846SOL    HW220371   9.650  12.620   5.915
72847SOL     OW20372  14.353   3.854   5.277
72847SOL    HW120373  14.337   3.764   5.249
72847SOL    HW220374  14.439   3.852   5.318
72848SOL     OW20375   3.239   3.435   6.268
72848SOL    HW120376   3.315   3.412   6.322
72848SOL    HW220377   3.251   3.527   6.247
72849SOL     OW20378   5.729  12.841  12.398
72849SOL    HW120379   5.780  12.902  12.451
72849SOL    HW220380   5.638  12.862  12.417
72850SOL     OW20381   8.379   9.934   0.012
72850SOL    HW120382   8.363   9.989   0.089
72850SOL    HW220383   8.311   9.959  14.831
72851SOL     OW20384  13.993   1.784   3.098
72851SOL    HW120385  14.075   1.742   3.074
72851SOL    HW220386  14.018   1.875   3.119
72852SOL     OW20387   3.148  14.850   1.294
72852SOL    HW120388   3.125   0.047   1.244
72852SOL    HW220389   3.098  14.780   1.252
72853SOL     OW20390   0.095   3.855   5.872
72853SOL    HW120391   0.157   3.888   5.937
72853SOL    HW220392   0.014   3.841   5.921
72854SOL     OW20393   1.633   1.499  12.780
72854SOL    HW120394   1.545   1.537  12.788
72854SOL    HW220395   1.689   1.573  12.755
72855SOL     OW20396   1.358  12.985  11.968
72855SOL    HW120397   1.341  12.907  11.916
72855SOL    HW220398   1.273  13.009  12.004
72856SOL     OW20399   3.169   6.396   1.056
72856SOL    HW120400   3.133   6.468   1.106
72856SOL    HW220401   3.099   6.371   0.995
72857SOL     OW20402   9.690  13.601  14.820
72857SOL    HW120403   9.700  13.685  14.774
72857SOL    HW220404   9.608  13.609  14.868
72858SOL     OW20405  14.261   5.824   4.300
72858SOL    HW120406  14.342   5.850   4.344
72858SOL    HW220407  14.257   5.879   4.222
72859SOL     OW20408   3.799   3.220   6.518
72859SOL    HW120409   3.837   3.303   6.490
72859SOL    HW220410   3.772   3.176   6.437
72860SOL     OW20411  14.029  12.658  13.916
72860SOL    HW120412  13.974  12.580  13.916
72860SOL    HW220413  14.004  12.704  13.996
72861SOL     OW20414  11.973   8.428   8.180
72861SOL    HW120415  12.032   8.489   8.135
72861SOL    HW220416  11.976   8.349   8.127
72862SOL     OW20417  11.100   9.603   1.013
72862SOL    HW120418  11.180   9.619   1.064
72862SOL    HW220419  11.039   9.565   1.077
72863SOL     OW20420   3.599   8.841   3.048
72863SOL    HW120421   3.615   8.927   3.087
72863SOL    HW220422   3.682   8.794   3.059
72864SOL     OW20423   4.008   1.132   6.283
72864SOL    HW120424   4.045   1.172   6.361
72864SOL    HW220425   4.009   1.201   6.217
72865SOL     OW20426   0.893   7.379   1.041
72865SOL    HW120427   0.938   7.352   0.961
72865SOL    HW220428   0.942   7.455   1.073
72866SOL     OW20429  10.980  13.890  11.552
72866SOL    HW120430  11.058  13.924  11.596
72866SOL    HW220431  10.916  13.962  11.557
72867SOL     OW20432  11.126   3.604   4.439
72867SOL    HW120433  11.198   3.610   4.376
72867SOL    HW220434  11.047   3.604   4.385
72868SOL     OW20435   3.579   0.321   4.292
72868SOL    HW120436   3.567   0.268   4.371
72868SOL    HW220437   3.490   0.335   4.259
72869SOL     OW20438   3.350  14.837   2.691
72869SOL    HW120439   3.419   0.014   2.721
72869SOL    HW220440   3.394  14.774   2.634
72870SOL     OW20441   6.658   3.431   4.082
72870SOL    HW120442   6.647   3.466   4.171
72870SOL    HW220443   6.641   3.505   4.025
72871SOL     OW20444  12.220   4.343  10.876
72871SOL    HW120445  12.278   4.326  10.802
72871SOL    HW220446  12.173   4.423  10.853
72872SOL     OW20447   4.831  10.538   5.433
72872SOL    HW120448   4.904  10.476   5.442
72872SOL    HW220449   4.766  10.490   5.382
72873SOL     OW20450   6.760   3.966   2.845
72873SOL    HW120451   6.697   3.967   2.917
72873SOL    HW220452   6.706   3.966   2.766
72874SOL     OW20453  10.937   7.168  12.183
72874SOL    HW120454  11.027   7.196  12.165
72874SOL    HW220455  10.922   7.194  12.274
72875SOL     OW20456  11.945   1.427   9.041
72875SOL    HW120457  11.999   1.349   9.052
72875SOL    HW220458  11.941   1.440   8.946
72876SOL     OW20459   7.826   8.581   9.512
72876SOL    HW120460   7.860   8.604   9.598
72876SOL    HW220461   7.767   8.507   9.529
72877SOL     OW20462   0.186   0.891   0.173
72877SOL    HW120463   0.168   0.973   0.127
72877SOL    HW220464   0.266   0.908   0.222
72878SOL     OW20465   8.040   5.641  11.773
72878SOL    HW120466   7.997   5.681  11.697
72878SOL    HW220467   8.036   5.708  11.841
72879SOL     OW20468  10.464  10.790   2.599
72879SOL    HW120469  10.368  10.789   2.599
72879SOL    HW220470  10.487  10.835   2.680
72880SOL     OW20471  11.026   3.784   9.001
72880SOL    HW120472  11.008   3.784   9.095
72880SOL    HW220473  10.940   3.793   8.960
72881SOL     OW20474   6.231   1.742   7.956
72881SOL    HW120475   6.169   1.761   7.885
72881SOL    HW220476   6.193   1.666   8.000
72882SOL     OW20477   3.643   8.238   8.266
72882SOL    HW120478   3.632   8.225   8.172
72882SOL    HW220479   3.563   8.202   8.305
72883SOL     OW20480   4.304   0.054  12.844
72883SOL    HW120481   4.341   0.119  12.785
72883SOL    HW220482   4.380   0.003  12.873
72884SOL     OW20483   6.698  12.999   7.853
72884SOL    HW120484   6.742  13.059   7.792
72884SOL    HW220485   6.699  13.045   7.937
72885SOL     OW20486  13.230   2.904  13.048
72885SOL    HW120487  13.268   2.822  13.081
72885SOL    HW220488  13.141   2.880  13.022
72886SOL     OW20489   3.865   4.722   2.842
72886SOL    HW120490   3.852   4.766   2.925
72886SOL    HW220491   3.839   4.631   2.858
72887SOL     OW20492   5.568   6.111   7.667
72887SOL    HW120493   5.561   6.099   7.762
72887SOL    HW220494   5.566   6.022   7.631
72888SOL     OW20495  10.284   9.477   3.792
72888SOL    HW120496  10.227   9.481   3.715
72888SOL    HW220497  10.317   9.387   3.793
72889SOL     OW20498  12.267  12.149   5.013
72889SOL    HW120499  12.277  12.105   4.928
72889SOL    HW220500  12.225  12.084   5.069
72890SOL     OW20501   7.836  12.246   0.633
72890SOL    HW120502   7.807  12.158   0.612
72890SOL    HW220503   7.921  12.235   0.675
72891SOL     OW20504   2.073   3.295  12.828
72891SOL    HW120505   2.083   3.323  12.737
72891SOL    HW220506   2.086   3.375  12.879
72892SOL     OW20507   2.254   5.524   1.405
72892SOL    HW120508   2.250   5.578   1.326
72892SOL    HW220509   2.329   5.560   1.454
72893SOL     OW20510   9.641   6.148   2.061
72893SOL    HW120511   9.655   6.053   2.067
72893SOL    HW220512   9.726   6.186   2.084
72894SOL     OW20513   3.200  12.025   7.178
72894SOL    HW120514   3.196  11.944   7.229
72894SOL    HW220515   3.292  12.053   7.185
72895SOL     OW20516   6.885   0.631  11.324
72895SOL    HW120517   6.918   0.720  11.310
72895SOL    HW220518   6.892   0.618  11.419
72896SOL     OW20519   3.905   5.635   9.466
72896SOL    HW120520   3.933   5.659   9.555
72896SOL    HW220521   3.865   5.715   9.432
72897SOL     OW20522   5.204  14.258   4.218
72897SOL    HW120523   5.296  14.282   4.230
72897SOL    HW220524   5.158  14.342   4.211
72898SOL     OW20525  11.213  13.848   6.755
72898SOL    HW120526  11.301  13.823   6.725
72898SOL    HW220527  11.222  13.940   6.780
72899SOL     OW20528   6.313   8.612   5.865
72899SOL    HW120529   6.389   8.603   5.808
72899SOL    HW220530   6.252   8.545   5.835
72900SOL     OW20531   9.546  13.252  10.058
72900SOL    HW120532   9.453  13.251  10.035
72900SOL    HW220533   9.589  13.211   9.983
72901SOL     OW20534   5.898  11.251   5.397
72901SOL    HW120535   5.875  11.248   5.304
72901SOL    HW220536   5.815  11.237   5.443
72902SOL     OW20537  12.480  13.437   9.969
72902SOL    HW120538  12.554  13.475  10.017
72902SOL    HW220539  12.416  13.508   9.964
72903SOL     OW20540   4.475   5.129   3.375
72903SOL    HW120541   4.505   5.071   3.445
72903SOL    HW220542   4.396   5.170   3.409
72904SOL     OW20543   6.495  10.895   8.973
72904SOL    HW120544   6.520  10.901   8.881
72904SOL    HW220545   6.550  10.824   9.008
72905SOL     OW20546   8.659   5.943  13.807
72905SOL    HW120547   8.615   5.889  13.873
72905SOL    HW220548   8.686   5.881  13.740
72906SOL     OW20549   0.071   8.208  12.661
72906SOL    HW120550   0.005   8.194  12.593
72906SOL    HW220551   0.153   8.219  12.614
72907SOL     OW20552  11.529  13.110   3.537
72907SOL    HW120553  11.450  13.061   3.514
72907SOL    HW220554  11.543  13.090   3.630
72908SOL     OW20555   7.960   1.739  11.426
72908SOL    HW120556   7.875   1.770  11.456
72908SOL    HW220557   7.942   1.652  11.389
72909SOL     OW20558   4.332   5.361   3.487
72909SOL    HW120559   4.416   5.361   3.533
72909SOL    HW220560   4.267   5.372   3.556
72910SOL     OW20561   3.147  13.382  14.292
72910SOL    HW120562   3.220  13.366  14.352
72910SOL    HW220563   3.164  13.469  14.257
72911SOL     OW20564   2.235  14.428   3.133
72911SOL    HW120565   2.253  14.334   3.122
72911SOL    HW220566   2.305  14.459   3.189
72912SOL     OW20567   2.584  10.426   3.774
72912SOL    HW120568   2.517  10.452   3.711
72912SOL    HW220569   2.613  10.340   3.743
72913SOL     OW20570   7.966   0.684   5.757
72913SOL    HW120571   7.939   0.725   5.839
72913SOL    HW220572   7.935   0.744   5.689
72914SOL     OW20573   8.811   0.671  12.706
72914SOL    HW120574   8.724   0.710  12.715
72914SOL    HW220575   8.794   0.584  12.669
72915SOL     OW20576   2.542   0.470  10.237
72915SOL    HW120577   2.587   0.488  10.155
72915SOL    HW220578   2.592   0.517  10.303
72916SOL     OW20579   9.696   3.016   9.993
72916SOL    HW120580   9.688   2.987   9.902
72916SOL    HW220581   9.754   3.091   9.989
72917SOL     OW20582   2.821   3.750   7.855
72917SOL    HW120583   2.831   3.786   7.943
72917SOL    HW220584   2.760   3.809   7.811
72918SOL     OW20585  13.692  11.721   6.597
72918SOL    HW120586  13.701  11.686   6.509
72918SOL    HW220587  13.776  11.763   6.615
72919SOL     OW20588  10.938   6.841  11.286
72919SOL    HW120589  10.993   6.811  11.213
72919SOL    HW220590  10.851   6.807  11.266
72920SOL     OW20591  14.566   6.424   9.349
72920SOL    HW120592  14.619   6.475   9.287
72920SOL    HW220593  14.544   6.344   9.302
72921SOL     OW20594   1.879  13.022  14.678
72921SOL    HW120595   1.826  12.944  14.661
72921SOL    HW220596   1.834  13.068  14.748
72922SOL     OW20597   7.268   6.147   9.661
72922SOL    HW120598   7.185   6.141   9.615
72922SOL    HW220599   7.247   6.123   9.751
72923SOL     OW20600   2.267   4.473  11.391
72923SOL    HW120601   2.171   4.476  11.393
72923SOL    HW220602   2.294   4.553  11.435
72924SOL     OW20603   6.870   1.703   2.391
72924SOL    HW120604   6.777   1.707   2.411
72924SOL    HW220605   6.902   1.793   2.404
72925SOL     OW20606   9.976   8.375   6.940
72925SOL    HW120607   9.955   8.412   7.026
72925SOL    HW220608   9.915   8.302   6.930
72926SOL     OW20609   7.635   5.050   6.412
72926SOL    HW120610   7.666   5.062   6.322
72926SOL    HW220611   7.550   5.007   6.404
72927SOL     OW20612  13.388   6.792   4.769
72927SOL    HW120613  13.480   6.773   4.749
72927SOL    HW220614  13.371   6.747   4.851
72928SOL     OW20615   0.331   3.920   6.927
72928SOL    HW120616   0.417   3.950   6.898
72928SOL    HW220617   0.316   3.965   7.010
72929SOL     OW20618  12.099   4.419   8.634
72929SOL    HW120619  12.165   4.487   8.651
72929SOL    HW220620  12.016   4.466   8.635
72930SOL     OW20621   3.040   0.579  13.193
72930SOL    HW120622   2.969   0.519  13.172
72930SOL    HW220623   2.999   0.649  13.244
72931SOL     OW20624   7.817   4.380  11.682
72931SOL    HW120625   7.823   4.308  11.746
72931SOL    HW220626   7.880   4.445  11.713
72932SOL     OW20627   4.766   7.491   9.442
72932SOL    HW120628   4.676   7.477   9.471
72932SOL    HW220629   4.819   7.465   9.517
72933SOL     OW20630  14.056   2.665   4.848
72933SOL    HW120631  14.043   2.574   4.822
72933SOL    HW220632  14.150   2.673   4.860
72934SOL     OW20633   5.946  13.729   2.388
72934SOL    HW120634   5.909  13.657   2.438
72934SOL    HW220635   5.968  13.795   2.454
72935SOL     OW20636   8.733   8.544  12.709
72935SOL    HW120637   8.757   8.590  12.629
72935SOL    HW220638   8.809   8.555  12.766
72936SOL     OW20639  14.468   4.986   0.992
72936SOL    HW120640  14.452   4.895   0.967
72936SOL    HW220641  14.457   4.987   1.088
72937SOL     OW20642  13.726  10.786  12.822
72937SOL    HW120643  13.726  10.759  12.914
72937SOL    HW220644  13.760  10.710  12.775
72938SOL     OW20645  10.015   6.755   7.117
72938SOL    HW120646  10.031   6.802   7.199
72938SOL    HW220647   9.950   6.809   7.071
72939SOL     OW20648   2.927   4.844  10.184
72939SOL    HW120649   2.966   4.897  10.115
72939SOL    HW220650   2.860   4.792  10.140
72940SOL     OW20651   8.449   6.027   2.640
72940SOL    HW120652   8.484   6.017   2.728
72940SOL    HW220653   8.390   6.103   2.646
72941SOL     OW20654   6.014   3.196   7.419
72941SOL    HW120655   6.023   3.127   7.354
72941SOL    HW220656   6.092   3.188   7.474
72942SOL     OW20657   9.671   2.745   0.550
72942SOL    HW120658   9.680   2.667   0.497
72942SOL    HW220659   9.759   2.761   0.585
72943SOL     OW20660   6.116   0.452  10.959
72943SOL    HW120661   6.080   0.421  11.042
72943SOL    HW220662   6.041   0.456  10.900
72944SOL     OW20663   3.514   4.655  11.214
72944SOL    HW120664   3.521   4.719  11.144
72944SOL    HW220665   3.597   4.606  11.211
72945SOL     OW20666   6.184  11.122   7.117
72945SOL    HW120667   6.123  11.113   7.044
72945SOL    HW220668   6.206  11.032   7.141
72946SOL     OW20669   6.661   7.117   6.456
72946SOL    HW120670   6.579   7.101   6.503
72946SOL    HW220671   6.673   7.039   6.402
72947SOL     OW20672   0.926  10.996   1.109
72947SOL    HW120673   0.955  11.062   1.046
72947SOL    HW220674   1.006  10.951   1.136
72948SOL     OW20675  12.920   1.037   5.109
72948SOL    HW120676  12.941   1.030   5.016
72948SOL    HW220677  13.002   1.013   5.153
72949SOL     OW20678   2.537   2.828  10.741
72949SOL    HW120679   2.574   2.849  10.826
72949SOL    HW220680   2.611   2.795  10.690
72950SOL     OW20681   2.285  11.984   1.857
72950SOL    HW120682   2.194  12.010   1.839
72950SOL    HW220683   2.320  11.962   1.771
72951SOL     OW20684  10.951  12.689  13.908
72951SOL    HW120685  11.031  12.708  13.859
72951SOL    HW220686  10.885  12.675  13.841
72952SOL     OW20687   2.585   9.385   8.866
72952SOL    HW120688   2.615   9.338   8.943
72952SOL    HW220689   2.624   9.338   8.792
72953SOL     OW20690  10.702   8.005   8.506
72953SOL    HW120691  10.748   8.046   8.433
72953SOL    HW220692  10.763   7.940   8.540
72954SOL     OW20693   4.378   4.482   7.322
72954SOL    HW120694   4.399   4.444   7.407
72954SOL    HW220695   4.316   4.420   7.283
72955SOL     OW20696   2.070   0.368   9.971
72955SOL    HW120697   2.092   0.292  10.025
72955SOL    HW220698   2.155   0.399   9.938
72956SOL     OW20699   3.837   7.583  12.008
72956SOL    HW120700   3.744   7.606  12.006
72956SOL    HW220701   3.864   7.585  11.916
72957SOL     OW20702   4.060  11.762   6.277
72957SOL    HW120703   4.052  11.678   6.323
72957SOL    HW220704   4.090  11.738   6.189
72958SOL     OW20705   5.745  13.610  13.015
72958SOL    HW120706   5.748  13.668  12.939
72958SOL    HW220707   5.808  13.541  12.996
72959SOL     OW20708   5.125  10.753   0.132
72959SOL    HW120709   5.124  10.767   0.038
72959SOL    HW220710   5.032  10.753   0.157
72960SOL     OW20711   3.050   2.130   1.657
72960SOL    HW120712   3.065   2.056   1.716
72960SOL    HW220713   3.137   2.166   1.640
72961SOL     OW20714  10.028   8.302   2.679
72961SOL    HW120715  10.116   8.335   2.701
72961SOL    HW220716   9.969   8.351   2.736
72962SOL     OW20717   0.792   4.837  10.645
72962SOL    HW120718   0.841   4.912  10.610
72962SOL    HW220719   0.830   4.761  10.601
72963SOL     OW20720   0.392   2.346  12.046
72963SOL    HW120721   0.321   2.391  11.999
72963SOL    HW220722   0.349   2.308  12.123
72964SOL     OW20723   4.479   3.128   4.072
72964SOL    HW120724   4.446   3.216   4.054
72964SOL    HW220725   4.488   3.087   3.986
72965SOL     OW20726   7.120   1.200   5.469
72965SOL    HW120727   7.178   1.158   5.406
72965SOL    HW220728   7.131   1.150   5.549
72966SOL     OW20729   6.637   8.494   4.910
72966SOL    HW120730   6.590   8.427   4.960
72966SOL    HW220731   6.716   8.449   4.879
72967SOL     OW20732   0.161   7.728  12.774
72967SOL    HW120733   0.255   7.728  12.791
72967SOL    HW220734   0.137   7.820  12.766
72968SOL     OW20735   8.165   6.085   7.723
72968SOL    HW120736   8.116   6.003   7.725
72968SOL    HW220737   8.140   6.126   7.640
72969SOL     OW20738  10.879   2.585   3.598
72969SOL    HW120739  10.806   2.622   3.548
72969SOL    HW220740  10.946   2.567   3.532
72970SOL     OW20741   4.431   3.118  12.621
72970SOL    HW120742   4.453   3.206  12.590
72970SOL    HW220743   4.424   3.065  12.542
72971SOL     OW20744   3.054  13.672   4.805
72971SOL    HW120745   3.125  13.655   4.867
72971SOL    HW220746   2.997  13.734   4.850
72972SOL     OW20747  11.870  14.611   3.942
72972SOL    HW120748  11.921  14.634   4.019
72972SOL    HW220749  11.788  14.576   3.976
72973SOL     OW20750   4.835   7.854   7.853
72973SOL    HW120751   4.757   7.800   7.857
72973SOL    HW220752   4.894   7.816   7.919
72974SOL     OW20753   1.668   8.780   3.894
72974SOL    HW120754   1.584   8.754   3.858
72974SOL    HW220755   1.731   8.721   3.854
72975SOL     OW20756   9.608   3.114   7.654
72975SOL    HW120757   9.676   3.106   7.587
72975SOL    HW220758   9.579   3.205   7.648
72976SOL     OW20759  13.966  14.660  12.049
72976SOL    HW120760  13.985  14.717  12.124
72976SOL    HW220761  14.030  14.684  11.983
72977SOL     OW20762  10.769   7.421   8.177
72977SOL    HW120763  10.736   7.392   8.092
72977SOL    HW220764  10.775   7.517   8.169
72978SOL     OW20765   5.557  10.447  12.473
72978SOL    HW120766   5.529  10.470  12.562
72978SOL    HW220767   5.651  10.434  12.480
72979SOL     OW20768   9.743   4.211   5.854
72979SOL    HW120769   9.649   4.228   5.845
72979SOL    HW220770   9.784   4.276   5.796
72980SOL     OW20771   6.198  12.733   6.597
72980SOL    HW120772   6.256  12.809   6.608
72980SOL    HW220773   6.243  12.662   6.642
72981SOL     OW20774  10.522  12.585   9.113
72981SOL    HW120775  10.542  12.635   9.034
72981SOL    HW220776  10.533  12.493   9.087
72982SOL     OW20777   7.286   5.213  14.257
72982SOL    HW120778   7.234   5.290  14.277
72982SOL    HW220779   7.377   5.244  14.258
72983SOL     OW20780   0.245  10.396   6.630
72983SOL    HW120781   0.300  10.454   6.578
72983SOL    HW220782   0.189  10.352   6.566
72984SOL     OW20783   7.554   9.722   2.190
72984SOL    HW120784   7.644   9.721   2.224
72984SOL    HW220785   7.501   9.686   2.260
72985SOL     OW20786   6.312   1.838  10.175
72985SOL    HW120787   6.334   1.746  10.160
72985SOL    HW220788   6.337   1.882  10.094
72986SOL     OW20789  12.390  14.406   4.728
72986SOL    HW120790  12.478  14.436   4.705
72986SOL    HW220791  12.331  14.459   4.674
72987SOL     OW20792   5.500  10.740  12.961
72987SOL    HW120793   5.570  10.713  13.021
72987SOL    HW220794   5.422  10.695  12.993
72988SOL     OW20795   4.318   0.603   2.987
72988SOL    HW120796   4.298   0.510   2.985
72988SOL    HW220797   4.290   0.632   3.074
72989SOL     OW20798   4.828  13.138   6.781
72989SOL    HW120799   4.844  13.142   6.876
72989SOL    HW220800   4.870  13.217   6.747
72990SOL     OW20801   2.228   2.032   2.352
72990SOL    HW120802   2.184   2.070   2.428
72990SOL    HW220803   2.239   2.105   2.291
72991SOL     OW20804  10.476   9.911   7.102
72991SOL    HW120805  10.500   9.974   7.034
72991SOL    HW220806  10.487   9.826   7.060
72992SOL     OW20807   8.391   5.085   9.868
72992SOL    HW120808   8.307   5.124   9.890
72992SOL    HW220809   8.423   5.134   9.792
72993SOL     OW20810   4.698   6.998   2.899
72993SOL    HW120811   4.658   6.938   2.962
72993SOL    HW220812   4.658   7.083   2.920
72994SOL     OW20813   2.602  13.457  10.040
72994SOL    HW120814   2.573  13.396   9.972
72994SOL    HW220815   2.521  13.483  10.085
72995SOL     OW20816   1.685   6.996   6.477
72995SOL    HW120817   1.653   7.052   6.406
72995SOL    HW220818   1.780   6.996   6.467
72996SOL     OW20819   4.095   4.354   8.022
72996SOL    HW120820   4.058   4.402   8.096
72996SOL    HW220821   4.189   4.362   8.032
72997SOL     OW20822   5.388  11.592  13.899
72997SOL    HW120823   5.439  11.520  13.936
72997SOL    HW220824   5.446  11.668  13.905
72998SOL     OW20825   9.144   1.438   9.692
72998SOL    HW120826   9.177   1.480   9.613
72998SOL    HW220827   9.100   1.508   9.740
72999SOL     OW20828   6.449   6.141   8.265
72999SOL    HW120829   6.373   6.084   8.250
72999SOL    HW220830   6.412   6.228   8.277
73000SOL     OW20831  14.784  11.003   6.799
73000SOL    HW120832  14.738  11.081   6.768
73000SOL    HW220833  14.724  10.963   6.862
73001SOL     OW20834   1.428   7.801  13.358
73001SOL    HW120835   1.373   7.793  13.280
73001SOL    HW220836   1.411   7.889  13.391
73002SOL     OW20837   0.981  14.697   0.260
73002SOL    HW120838   1.048  14.644   0.303
73002SOL    HW220839   0.992  14.784   0.297
73003SOL     OW20840  11.399   4.295   5.392
73003SOL    HW120841  11.420   4.252   5.475
73003SOL    HW220842  11.316   4.340   5.409
73004SOL     OW20843   1.920   9.634  12.961
73004SOL    HW120844   1.857   9.565  12.979
73004SOL    HW220845   1.866   9.709  12.936
73005SOL     OW20846   1.065   3.315   0.396
73005SOL    HW120847   1.135   3.257   0.367
73005SOL    HW220848   0.995   3.302   0.332
73006SOL     OW20849   3.071  13.844   2.084
73006SOL    HW120850   3.114  13.917   2.129
73006SOL    HW220851   3.078  13.865   1.991
73007SOL     OW20852  10.200   6.617   2.467
73007SOL    HW120853  10.222   6.638   2.558
73007SOL    HW220854  10.223   6.696   2.418
73008SOL     OW20855   6.383   7.864  13.257
73008SOL    HW120856   6.450   7.931  13.269
73008SOL    HW220857   6.395   7.834  13.167
73009SOL     OW20858   8.645   7.249   8.562
73009SOL    HW120859   8.728   7.293   8.545
73009SOL    HW220860   8.593   7.265   8.483
73010SOL     OW20861   0.715   3.721  14.175
73010SOL    HW120862   0.735   3.636  14.214
73010SOL    HW220863   0.799   3.750  14.138
73011SOL     OW20864  10.840  13.383   7.659
73011SOL    HW120865  10.745  13.391   7.660
73011SOL    HW220866  10.857  13.300   7.615
73012SOL     OW20867   1.700   7.518   2.025
73012SOL    HW120868   1.788   7.552   2.040
73012SOL    HW220869   1.687   7.453   2.094
73013SOL     OW20870   2.090  13.049   3.017
73013SOL    HW120871   2.170  13.002   3.039
73013SOL    HW220872   2.089  13.050   2.921
73014SOL     OW20873   9.256   6.097   1.419
73014SOL    HW120874   9.261   6.098   1.515
73014SOL    HW220875   9.220   6.182   1.395
73015SOL     OW20876   8.298  14.485  11.139
73015SOL    HW120877   8.360  14.552  11.111
73015SOL    HW220878   8.347  14.431  11.201
73016SOL     OW20879   2.107  13.370   1.918
73016SOL    HW120880   2.064  13.296   1.960
73016SOL    HW220881   2.156  13.331   1.845
73017SOL     OW20882   5.479   3.099   4.482
73017SOL    HW120883   5.474   3.194   4.487
73017SOL    HW220884   5.518   3.080   4.397
73018SOL     OW20885  11.285   6.082  14.721
73018SOL    HW120886  11.376   6.057  14.735
73018SOL    HW220887  11.287   6.178  14.719
73019SOL     OW20888   9.749   3.409   8.056
73019SOL    HW120889   9.702   3.325   8.059
73019SOL    HW220890   9.699   3.466   8.115
73020SOL     OW20891  11.944  11.724   2.032
73020SOL    HW120892  11.852  11.743   2.014
73020SOL    HW220893  11.993  11.780   1.972
73021SOL     OW20894   7.291   9.890  10.054
73021SOL    HW120895   7.353   9.842  10.109
73021SOL    HW220896   7.213   9.899  10.107
73022SOL     OW20897  14.769   7.310  11.545
73022SOL    HW120898  14.675   7.290  11.541
73022SOL    HW220899  14.780   7.386  11.488
73023SOL     OW20900   2.554  14.574  14.274
73023SOL    HW120901   2.569  14.644  14.338
73023SOL    HW220902   2.547  14.495  14.327
73024SOL     OW20903   4.338   1.478   9.459
73024SOL    HW120904   4.409   1.469   9.522
73024SOL    HW220905   4.260   1.492   9.513
73025SOL     OW20906   2.404  13.782  12.112
73025SOL    HW120907   2.472  13.841  12.144
73025SOL    HW220908   2.424  13.772  12.019
73026SOL     OW20909  14.556   0.302   7.270
73026SOL    HW120910  14.631   0.360   7.258
73026SOL    HW220911  14.480   0.360   7.265
73027SOL     OW20912  13.518   2.071   1.462
73027SOL    HW120913  13.599   2.105   1.425
73027SOL    HW220914  13.495   1.997   1.405
73028SOL     OW20915   3.602   5.115  14.844
73028SOL    HW120916   3.662   5.087  14.776
73028SOL    HW220917   3.606   5.046   0.028
73029SOL     OW20918  11.299  13.391  14.231
73029SOL    HW120919  11.319  13.425  14.143
73029SOL    HW220920  11.323  13.462  14.290
73030SOL     OW20921   2.361   5.242   8.496
73030SOL    HW120922   2.296   5.232   8.565
73030SOL    HW220923   2.426   5.303   8.533
73031SOL     OW20924   1.451   3.862   3.109
73031SOL    HW120925   1.472   3.789   3.050
73031SOL    HW220926   1.516   3.929   3.088
73032SOL     OW20927   4.552  11.700   0.625
73032SOL    HW120928   4.645  11.720   0.628
73032SOL    HW220929   4.515  11.746   0.701
73033SOL     OW20930  12.309   7.878   4.045
73033SOL    HW120931  12.239   7.911   4.101
73033SOL    HW220932  12.384   7.935   4.064
73034SOL     OW20933   5.741   9.154  13.401
73034SOL    HW120934   5.767   9.196  13.483
73034SOL    HW220935   5.713   9.066  13.426
73035SOL     OW20936  10.233   6.909  13.752
73035SOL    HW120937  10.244   6.853  13.828
73035SOL    HW220938  10.322   6.934  13.726
73036SOL     OW20939  11.001  11.335   0.437
73036SOL    HW120940  11.079  11.391   0.441
73036SOL    HW220941  11.034  11.252   0.403
73037SOL     OW20942  13.280   9.262  10.170
73037SOL    HW120943  13.199   9.265  10.221
73037SOL    HW220944  13.256   9.298  10.084
73038SOL     OW20945   2.689   0.647   7.961
73038SOL    HW120946   2.687   0.598   8.043
73038SOL    HW220947   2.597   0.671   7.945
73039SOL     OW20948   3.696   8.346   4.070
73039SOL    HW120949   3.677   8.260   4.109
73039SOL    HW220950   3.692   8.331   3.976
73040SOL     OW20951  11.765   8.309   9.380
73040SOL    HW120952  11.858   8.287   9.386
73040SOL    HW220953  11.763   8.401   9.353
73041SOL     OW20954   8.676  11.724   5.243
73041SOL    HW120955   8.664  11.819   5.254
73041SOL    HW220956   8.596  11.686   5.279
73042SOL     OW20957  11.344   1.751  12.837
73042SOL    HW120958  11.384   1.665  12.840
73042SOL    HW220959  11.329   1.775  12.929
73043SOL     OW20960   0.899  13.999   2.465
73043SOL    HW120961   0.874  14.027   2.553
73043SOL    HW220962   0.867  13.909   2.458
73044SOL     OW20963   9.811   7.904   4.162
73044SOL    HW120964   9.879   7.842   4.136
73044SOL    HW220965   9.859   7.978   4.200
73045SOL     OW20966   6.575   7.772   1.668
73045SOL    HW120967   6.516   7.795   1.740
73045SOL    HW220968   6.628   7.851   1.655
73046SOL     OW20969   9.204   6.812   2.330
73046SOL    HW120970   9.260   6.806   2.252
73046SOL    HW220971   9.115   6.798   2.297
73047SOL     OW20972  12.161  11.812   7.701
73047SOL    HW120973  12.181  11.719   7.711
73047SOL    HW220974  12.072  11.814   7.666
73048SOL     OW20975  11.281   1.948   6.631
73048SOL    HW120976  11.258   1.927   6.541
73048SOL    HW220977  11.376   1.943   6.634
73049SOL     OW20978  14.228   2.869   3.808
73049SOL    HW120979  14.157   2.927   3.780
73049SOL    HW220980  14.212   2.788   3.760
73050SOL     OW20981   3.571   5.260  12.324
73050SOL    HW120982   3.506   5.329  12.309
73050SOL    HW220983   3.611   5.281  12.408
73051SOL     OW20984  11.468   8.301   0.798
73051SOL    HW120985  11.481   8.207   0.790
73051SOL    HW220986  11.402   8.310   0.867
73052SOL     OW20987   9.615   3.975  10.907
73052SOL    HW120988   9.669   3.985  10.828
73052SOL    HW220989   9.663   3.912  10.960
73053SOL     OW20990   8.012   7.327   5.598
73053SOL    HW120991   8.051   7.287   5.520
73053SOL    HW220992   7.919   7.331   5.579
73054SOL     OW20993   8.030   0.089  11.060
73054SOL    HW120994   8.039   0.069  11.153
73054SOL    HW220995   8.112   0.133  11.037
73055SOL     OW20996  12.618   1.830   8.577
73055SOL    HW120997  12.544   1.815   8.636
73055SOL    HW220998  12.659   1.743   8.568
73056SOL     OW20999   2.702  13.766   0.815
73056SOL    HW121000   2.695  13.852   0.856
73056SOL    HW221001   2.622  13.759   0.762
73057SOL     OW21002   6.001   6.762   1.017
73057SOL    HW121003   6.031   6.761   1.108
73057SOL    HW221004   5.974   6.672   1.000
73058SOL     OW21005   3.329  13.842   0.473
73058SOL    HW121006   3.283  13.817   0.393
73058SOL    HW221007   3.307  13.934   0.486
73059SOL     OW21008  13.343   0.257   2.500
73059SOL    HW121009  13.279   0.298   2.559
73059SOL    HW221010  13.322   0.164   2.504
73060SOL     OW21011  13.197   3.084   0.650
73060SOL    HW121012  13.102   3.095   0.649
73060SOL    HW221013  13.231   3.166   0.686
73061SOL     OW21014   1.537   2.360   9.102
73061SOL    HW121015   1.575   2.446   9.086
73061SOL    HW221016   1.566   2.337   9.191
73062SOL     OW21017  11.688   1.785   1.281
73062SOL    HW121018  11.738   1.806   1.202
73062SOL    HW221019  11.612   1.736   1.249
73063SOL     OW21020  10.411   1.859   5.229
73063SOL    HW121021  10.361   1.934   5.264
73063SOL    HW221022  10.498   1.869   5.265
73064SOL     OW21023   7.925   0.423   2.610
73064SOL    HW121024   7.888   0.462   2.531
73064SOL    HW221025   8.017   0.449   2.609
73065SOL     OW21026   0.036  13.646   7.786
73065SOL    HW121027   0.016  13.592   7.709
73065SOL    HW221028  14.871  13.603   7.858
73066SOL     OW21029   8.837   8.279  10.754
73066SOL    HW121030   8.872   8.199  10.793
73066SOL    HW221031   8.745   8.258  10.735
73067SOL     OW21032   3.068   4.545   0.126
73067SOL    HW121033   3.149   4.561   0.079
73067SOL    HW221034   3.066   4.450   0.140
73068SOL     OW21035   8.225   6.667   4.973
73068SOL    HW121036   8.261   6.709   4.894
73068SOL    HW221037   8.176   6.736   5.017
73069SOL     OW21038   0.909   9.632  13.799
73069SOL    HW121039   0.938   9.704  13.743
73069SOL    HW221040   0.962   9.557  13.771
73070SOL     OW21041  13.266   2.328  11.024
73070SOL    HW121042  13.308   2.299  10.944
73070SOL    HW221043  13.328   2.305  11.094
73071SOL     OW21044   4.723   7.338   5.888
73071SOL    HW121045   4.649   7.299   5.935
73071SOL    HW221046   4.693   7.344   5.797
73072SOL     OW21047   7.453   1.404   7.363
73072SOL    HW121048   7.523   1.450   7.409
73072SOL    HW221049   7.497   1.332   7.318
73073SOL     OW21050   8.213   8.976   3.160
73073SOL    HW121051   8.224   9.064   3.123
73073SOL    HW221052   8.187   8.922   3.086
73074SOL     OW21053  10.036   1.684   1.093
73074SOL    HW121054   9.967   1.745   1.071
73074SOL    HW221055  10.115   1.738   1.102
73075SOL     OW21056  12.228   6.928   8.983
73075SOL    HW121057  12.203   6.966   8.899
73075SOL    HW221058  12.322   6.915   8.977
73076SOL     OW21059   0.728  14.022   3.193
73076SOL    HW121060   0.670  14.001   3.265
73076SOL    HW221061   0.716  13.950   3.130
73077SOL     OW21062  13.148   2.592  11.004
73077SOL    HW121063  13.194   2.509  11.014
73077SOL    HW221064  13.196   2.653  11.060
73078SOL     OW21065  12.751   0.494   2.541
73078SOL    HW121066  12.676   0.545   2.571
73078SOL    HW221067  12.718   0.404   2.537
73079SOL     OW21068   9.376   3.463  14.038
73079SOL    HW121069   9.319   3.520  14.089
73079SOL    HW221070   9.409   3.518  13.967
73080SOL     OW21071   9.931   9.716   8.364
73080SOL    HW121072   9.848   9.714   8.413
73080SOL    HW221073   9.958   9.807   8.366
73081SOL     OW21074  10.254   9.100   6.712
73081SOL    HW121075  10.208   9.062   6.637
73081SOL    HW221076  10.204   9.179   6.733
73082SOL     OW21077   2.895  12.024   7.917
73082SOL    HW121078   2.865  11.959   7.981
73082SOL    HW221079   2.924  11.972   7.842
73083SOL     OW21080   4.370   6.382   9.482
73083SOL    HW121081   4.282   6.398   9.446
73083SOL    HW221082   4.358   6.386   9.577
73084SOL     OW21083   5.918   9.115   9.185
73084SOL    HW121084   5.826   9.100   9.164
73084SOL    HW221085   5.958   9.143   9.102
73085SOL     OW21086   5.308   1.326   9.739
73085SOL    HW121087   5.356   1.396   9.785
73085SOL    HW221088   5.217   1.340   9.764
73086SOL     OW21089  10.492   4.309   5.974
73086SOL    HW121090  10.425   4.371   5.946
73086SOL    HW221091  10.527   4.347   6.055
73087SOL     OW21092   3.992   2.404   4.262
73087SOL    HW121093   4.006   2.314   4.292
73087SOL    HW221094   4.063   2.420   4.201
73088SOL     OW21095   4.698   0.813   9.108
73088SOL    HW121096   4.626   0.862   9.145
73088SOL    HW221097   4.713   0.741   9.169
73089SOL     OW21098   5.855  11.510  10.612
73089SOL    HW121099   5.781  11.486  10.667
73089SOL    HW221100   5.922  11.542  10.673
73090SOL     OW21101   5.210   1.226  12.689
73090SOL    HW121102   5.290   1.200  12.734
73090SOL    HW221103   5.208   1.321  12.695
73091SOL     OW21104   3.835   2.263   2.377
73091SOL    HW121105   3.872   2.180   2.348
73091SOL    HW221106   3.814   2.309   2.296
73092SOL     OW21107   8.926   4.315   0.548
73092SOL    HW121108   8.937   4.241   0.488
73092SOL    HW221109   8.928   4.277   0.635
73093SOL     OW21110  14.781   9.605  14.728
73093SOL    HW121111  14.838   9.624  14.802
73093SOL    HW221112  14.693   9.608  14.765
73094SOL     OW21113   3.801  10.680  10.003
73094SOL    HW121114   3.788  10.683  10.098
73094SOL    HW221115   3.893  10.657   9.992
73095SOL     OW21116   0.035   5.614  13.824
73095SOL    HW121117   0.090   5.683  13.786
73095SOL    HW221118   0.087   5.577  13.894
73096SOL     OW21119  12.275   0.569  13.994
73096SOL    HW121120  12.348   0.631  13.995
73096SOL    HW221121  12.236   0.580  13.907
73097SOL     OW21122  11.922   7.301   5.615
73097SOL    HW121123  11.879   7.378   5.650
73097SOL    HW221124  11.892   7.229   5.671
73098SOL     OW21125  12.288   3.377   1.471
73098SOL    HW121126  12.326   3.378   1.559
73098SOL    HW221127  12.363   3.365   1.413
73099SOL     OW21128   5.724   3.255  12.143
73099SOL    HW121129   5.685   3.316  12.081
73099SOL    HW221130   5.710   3.295  12.229
73100SOL     OW21131   1.793   2.330   6.716
73100SOL    HW121132   1.708   2.372   6.726
73100SOL    HW221133   1.856   2.397   6.742
73101SOL     OW21134   4.072   8.306  11.608
73101SOL    HW121135   4.117   8.328  11.526
73101SOL    HW221136   3.982   8.334  11.595
73102SOL     OW21137  10.939   4.855   9.385
73102SOL    HW121138  11.002   4.813   9.326
73102SOL    HW221139  10.978   4.940   9.405
73103SOL     OW21140   4.698   6.073   0.976
73103SOL    HW121141   4.794   6.064   0.979
73103SOL    HW221142   4.669   6.054   1.065
73104SOL     OW21143   4.294   7.346  11.506
73104SOL    HW121144   4.259   7.322  11.420
73104SOL    HW221145   4.241   7.296  11.568
73105SOL     OW21146  13.943   5.966   7.676
73105SOL    HW121147  13.996   6.028   7.725
73105SOL    HW221148  13.879   6.020   7.630
73106SOL     OW21149  14.325  11.948   1.265
73106SOL    HW121150  14.368  11.940   1.350
73106SOL    HW221151  14.397  11.953   1.202
73107SOL     OW21152   6.576   2.814  14.118
73107SOL    HW121153   6.484   2.789  14.107
73107SOL    HW221154   6.600   2.779  14.204
73108SOL     OW21155  13.865   4.546   9.174
73108SOL    HW121156  13.931   4.603   9.134
73108SOL    HW221157  13.913   4.468   9.200
73109SOL     OW21158   1.065   4.290  11.213
73109SOL    HW121159   1.083   4.383  11.199
73109SOL    HW221160   1.067   4.252  11.126
73110SOL     OW21161   1.795  10.579   3.363
73110SOL    HW121162   1.707  10.588   3.327
73110SOL    HW221163   1.799  10.488   3.394
73111SOL     OW21164  12.057   0.417   0.823
73111SOL    HW121165  12.092   0.361   0.892
73111SOL    HW221166  11.999   0.360   0.772
73112SOL     OW21167   0.171   8.016   0.050
73112SOL    HW121168   0.256   7.980   0.023
73112SOL    HW221169   0.135   7.950   0.109
73113SOL     OW21170  13.457   5.425   9.955
73113SOL    HW121171  13.483   5.514   9.978
73113SOL    HW221172  13.432   5.385  10.039
73114SOL     OW21173  14.386   0.017   1.764
73114SOL    HW121174  14.304  14.872   1.805
73114SOL    HW221175  14.380   0.112   1.758
73115SOL     OW21176   2.665   0.005   8.647
73115SOL    HW121177   2.640   0.025   8.737
73115SOL    HW221178   2.586  14.849   8.608
73116SOL     OW21179   3.633   2.288   7.107
73116SOL    HW121180   3.618   2.367   7.054
73116SOL    HW221181   3.729   2.280   7.110
73117SOL     OW21182   6.230  13.391   3.034
73117SOL    HW121183   6.223  13.454   2.963
73117SOL    HW221184   6.213  13.306   2.993
73118SOL     OW21185   6.896   2.903   5.254
73118SOL    HW121186   6.900   2.941   5.341
73118SOL    HW221187   6.860   2.815   5.267
73119SOL     OW21188  14.034   4.915  14.605
73119SOL    HW121189  13.940   4.897  14.607
73119SOL    HW221190  14.070   4.846  14.550
73120SOL     OW21191   3.352   7.550   6.379
73120SOL    HW121192   3.357   7.462   6.342
73120SOL    HW221193   3.301   7.538   6.460
73121SOL     OW21194   1.662   0.727  11.026
73121SOL    HW121195   1.696   0.642  10.998
73121SOL    HW221196   1.634   0.770  10.945
73122SOL     OW21197   9.575   7.430  12.762
73122SOL    HW121198   9.647   7.398  12.707
73122SOL    HW221199   9.576   7.372  12.838
73123SOL     OW21200   8.745   4.257   6.708
73123SOL    HW121201   8.692   4.294   6.779
73123SOL    HW221202   8.780   4.176   6.744
73124SOL     OW21203   1.395   0.111   5.632
73124SOL    HW121204   1.330   0.154   5.687
73124SOL    HW221205   1.479   0.144   5.664
73125SOL     OW21206  10.626  11.780   2.208
73125SOL    HW121207  10.551  11.780   2.268
73125SOL    HW221208  10.696  11.822   2.258
73126SOL     OW21209  10.217   9.140  11.562
73126SOL    HW121210  10.148   9.075  11.573
73126SOL    HW221211  10.258   9.117  11.479
73127SOL     OW21212   4.418   4.852  14.558
73127SOL    HW121213   4.344   4.806  14.600
73127SOL    HW221214   4.447   4.791  14.490
73128SOL     OW21215   7.130   4.922  10.977
73128SOL    HW121216   7.074   4.860  10.931
73128SOL    HW221217   7.208   4.872  11.000
73129SOL     OW21218   0.289   7.345  14.513
73129SOL    HW121219   0.268   7.306  14.428
73129SOL    HW221220   0.204   7.371  14.549
73130SOL     OW21221   6.141   4.835  11.335
73130SOL    HW121222   6.168   4.812  11.424
73130SOL    HW221223   6.143   4.930  11.333
73131SOL     OW21224   7.575  12.600   5.385
73131SOL    HW121225   7.597  12.558   5.468
73131SOL    HW221226   7.648  12.659   5.367
73132SOL     OW21227   4.926   5.841  13.216
73132SOL    HW121228   4.852   5.795  13.175
73132SOL    HW221229   4.959   5.899  13.147
73133SOL     OW21230   1.472   3.184   5.285
73133SOL    HW121231   1.465   3.107   5.341
73133SOL    HW221232   1.549   3.168   5.230
73134SOL     OW21233   9.100   5.847   6.134
73134SOL    HW121234   9.065   5.814   6.217
73134SOL    HW221235   9.182   5.890   6.158
73135SOL     OW21236   7.425  10.601   3.949
73135SOL    HW121237   7.430  10.531   3.884
73135SOL    HW221238   7.388  10.675   3.901
73136SOL     OW21239   6.283   9.356   8.023
73136SOL    HW121240   6.215   9.298   7.989
73136SOL    HW221241   6.254   9.444   7.999
73137SOL     OW21242  10.311  10.845   8.962
73137SOL    HW121243  10.328  10.827   9.054
73137SOL    HW221244  10.304  10.940   8.956
73138SOL     OW21245  11.001   7.414   1.085
73138SOL    HW121246  10.947   7.462   1.022
73138SOL    HW221247  11.024   7.333   1.040
73139SOL     OW21248  11.068  14.722  13.694
73139SOL    HW121249  11.019  14.780  13.752
73139SOL    HW221250  11.123  14.780  13.642
73140SOL     OW21251  11.753   4.160  14.311
73140SOL    HW121252  11.782   4.251  14.319
73140SOL    HW221253  11.739   4.148  14.217
73141SOL     OW21254   7.443   3.945   4.504
73141SOL    HW121255   7.485   4.022   4.541
73141SOL    HW221256   7.406   3.899   4.579
73142SOL     OW21257   5.593   1.037   8.902
73142SOL    HW121258   5.563   1.123   8.873
73142SOL    HW221259   5.611   0.989   8.821
73143SOL     OW21260   5.660   9.898   2.061
73143SOL    HW121261   5.681   9.917   2.152
73143SOL    HW221262   5.570   9.868   2.063
73144SOL     OW21263  11.466  11.007   8.007
73144SOL    HW121264  11.472  11.097   8.041
73144SOL    HW221265  11.494  11.013   7.916
73145SOL     OW21266  11.308   1.716  10.618
73145SOL    HW121267  11.287   1.808  10.601
73145SOL    HW221268  11.224   1.677  10.643
73146SOL     OW21269  11.790   9.920   4.434
73146SOL    HW121270  11.833   9.866   4.499
73146SOL    HW221271  11.844   9.912   4.356
73147SOL     OW21272   5.371   4.845   8.485
73147SOL    HW121273   5.445   4.824   8.429
73147SOL    HW221274   5.408   4.900   8.554
73148SOL     OW21275  13.620  12.427   9.885
73148SOL    HW121276  13.706  12.390   9.906
73148SOL    HW221277  13.604  12.491   9.954
73149SOL     OW21278   7.518   8.669   0.450
73149SOL    HW121279   7.436   8.631   0.418
73149SOL    HW221280   7.585   8.631   0.392
73150SOL     OW21281   2.119   9.077  13.649
73150SOL    HW121282   2.073   9.079  13.565
73150SOL    HW221283   2.202   9.121  13.631
73151SOL     OW21284   7.601   7.565   9.436
73151SOL    HW121285   7.618   7.652   9.471
73151SOL    HW221286   7.597   7.508   9.513
73152SOL     OW21287  14.868   7.982   0.754
73152SOL    HW121288  14.791   7.961   0.807
73152SOL    HW221289   0.052   8.010   0.817
73153SOL     OW21290   2.039   3.623   8.563
73153SOL    HW121291   2.052   3.608   8.656
73153SOL    HW221292   1.948   3.599   8.546
73154SOL     OW21293   5.473  13.354   1.280
73154SOL    HW121294   5.529  13.314   1.213
73154SOL    HW221295   5.509  13.442   1.292
73155SOL     OW21296   7.546   8.744   4.151
73155SOL    HW121297   7.505   8.805   4.212
73155SOL    HW221298   7.494   8.751   4.071
73156SOL     OW21299   2.364  12.957   2.998
73156SOL    HW121300   2.361  12.865   2.972
73156SOL    HW221301   2.457  12.975   3.010
73157SOL     OW21302   2.997  14.291   4.270
73157SOL    HW121303   2.906  14.314   4.252
73157SOL    HW221304   3.048  14.350   4.215
73158SOL     OW21305   6.657   3.248   6.311
73158SOL    HW121306   6.652   3.181   6.379
73158SOL    HW221307   6.675   3.198   6.231
73159SOL     OW21308   7.364   3.266   1.494
73159SOL    HW121309   7.406   3.180   1.493
73159SOL    HW221310   7.272   3.247   1.479
73160SOL     OW21311  11.990   0.235   8.067
73160SOL    HW121312  11.919   0.297   8.047
73160SOL    HW221313  12.035   0.222   7.984
73161SOL     OW21314   0.229   9.974  12.292
73161SOL    HW121315   0.184   9.959  12.375
73161SOL    HW221316   0.306  10.026  12.316
73162SOL     OW21317   2.377   3.355   5.549
73162SOL    HW121318   2.307   3.420   5.562
73162SOL    HW221319   2.355   3.284   5.610
73163SOL     OW21320   8.059   9.851  11.801
73163SOL    HW121321   8.077   9.901  11.721
73163SOL    HW221322   8.143   9.847  11.847
73164SOL     OW21323   6.357   8.566  13.691
73164SOL    HW121324   6.344   8.652  13.651
73164SOL    HW221325   6.398   8.514  13.622
73165SOL     OW21326  14.795   0.266  14.040
73165SOL    HW121327  14.830   0.328  14.103
73165SOL    HW221328  14.759   0.321  13.970
73166SOL     OW21329   8.441  11.551  12.456
73166SOL    HW121330   8.462  11.512  12.371
73166SOL    HW221331   8.484  11.636  12.455
73167SOL     OW21332   2.263   2.222   2.123
73167SOL    HW121333   2.200   2.287   2.091
73167SOL    HW221334   2.346   2.269   2.128
73168SOL     OW21335  12.243   9.168   7.452
73168SOL    HW121336  12.166   9.224   7.438
73168SOL    HW221337  12.305   9.223   7.500
73169SOL     OW21338   0.325   1.357  10.859
73169SOL    HW121339   0.286   1.283  10.904
73169SOL    HW221340   0.251   1.405  10.822
73170SOL     OW21341   0.183  14.303  12.634
73170SOL    HW121342   0.234  14.331  12.710
73170SOL    HW221343   0.099  14.276  12.670
73171SOL     OW21344   9.805  13.500   4.094
73171SOL    HW121345   9.795  13.482   4.188
73171SOL    HW221346   9.762  13.584   4.081
73172SOL     OW21347   0.026  14.161   0.497
73172SOL    HW121348  14.860  14.241   0.473
73172SOL    HW221349  14.868  14.092   0.443
73173SOL     OW21350   0.775   2.460  13.313
73173SOL    HW121351   0.760   2.467  13.218
73173SOL    HW221352   0.688   2.444  13.349
73174SOL     OW21353  13.951   4.408  12.376
73174SOL    HW121354  13.930   4.487  12.326
73174SOL    HW221355  13.938   4.434  12.467
73175SOL     OW21356   9.059  14.011  13.078
73175SOL    HW121357   9.027  14.036  13.165
73175SOL    HW221358   9.006  13.935  13.053
73176SOL     OW21359  13.931   5.168   0.596
73176SOL    HW121360  13.904   5.253   0.562
73176SOL    HW221361  14.003   5.187   0.656
73177SOL     OW21362  10.541  10.912   4.893
73177SOL    HW121363  10.561  10.819   4.906
73177SOL    HW221364  10.573  10.955   4.972
73178SOL     OW21365   7.279   3.063   7.149
73178SOL    HW121366   7.239   3.031   7.069
73178SOL    HW221367   7.367   3.091   7.123
73179SOL     OW21368   4.237   2.108  10.728
73179SOL    HW121369   4.321   2.116  10.684
73179SOL    HW221370   4.172   2.117  10.659
73180SOL     OW21371   7.038   1.421  11.846
73180SOL    HW121372   7.119   1.461  11.878
73180SOL    HW221373   7.067   1.354  11.784
73181SOL     OW21374  10.997  12.743   2.034
73181SOL    HW121375  11.042  12.825   2.052
73181SOL    HW221376  11.014  12.689   2.111
73182SOL     OW21377   5.472  13.604   8.718
73182SOL    HW121378   5.500  13.528   8.667
73182SOL    HW221379   5.463  13.674   8.653
73183SOL     OW21380   5.244   4.392   8.947
73183SOL    HW121381   5.187   4.439   9.008
73183SOL    HW221382   5.289   4.327   9.001
73184SOL     OW21383  12.768  12.878   1.080
73184SOL    HW121384  12.737  12.948   1.138
73184SOL    HW221385  12.859  12.863   1.108
73185SOL     OW21386   4.234   9.189   2.011
73185SOL    HW121387   4.278   9.129   2.072
73185SOL    HW221388   4.165   9.136   1.971
73186SOL     OW21389   9.801   9.301   1.490
73186SOL    HW121390   9.864   9.235   1.462
73186SOL    HW221391   9.732   9.298   1.424
73187SOL     OW21392  12.853  11.337   1.796
73187SOL    HW121393  12.926  11.350   1.857
73187SOL    HW221394  12.895  11.317   1.712
73188SOL     OW21395  13.970  10.666   5.400
73188SOL    HW121396  13.941  10.643   5.488
73188SOL    HW221397  13.946  10.759   5.391
73189SOL     OW21398  14.682   2.106  10.382
73189SOL    HW121399  14.652   2.140  10.466
73189SOL    HW221400  14.604   2.104  10.327
73190SOL     OW21401   6.759   2.122   7.007
73190SOL    HW121402   6.847   2.159   6.997
73190SOL    HW221403   6.748   2.067   6.929
73191SOL     OW21404   7.930  10.151   2.383
73191SOL    HW121405   7.929  10.185   2.293
73191SOL    HW221406   8.003  10.089   2.383
73192SOL     OW21407   5.328   2.126  12.663
73192SOL    HW121408   5.406   2.133  12.609
73192SOL    HW221409   5.352   2.170  12.745
73193SOL     OW21410  11.946  13.570   0.464
73193SOL    HW121411  11.869  13.625   0.481
73193SOL    HW221412  11.942  13.552   0.370
73194SOL     OW21413   3.073   7.868   7.969
73194SOL    HW121414   3.127   7.913   7.904
73194SOL    HW221415   3.012   7.816   7.917
73195SOL     OW21416   8.596   3.619  14.184
73195SOL    HW121417   8.686   3.617  14.151
73195SOL    HW221418   8.560   3.534  14.160
73196SOL     OW21419   8.820  13.581  11.742
73196SOL    HW121420   8.760  13.522  11.698
73196SOL    HW221421   8.872  13.620  11.672
73197SOL     OW21422   5.835   9.710   0.761
73197SOL    HW121423   5.916   9.744   0.799
73197SOL    HW221424   5.769   9.776   0.782
73198SOL     OW21425   6.940  13.438  13.316
73198SOL    HW121426   7.014  13.400  13.364
73198SOL    HW221427   6.902  13.364  13.269
73199SOL     OW21428  10.207   2.535  10.015
73199SOL    HW121429  10.151   2.595   9.966
73199SOL    HW221430  10.167   2.529  10.102
73200SOL     OW21431   0.331   8.164   7.922
73200SOL    HW121432   0.319   8.111   7.843
73200SOL    HW221433   0.374   8.244   7.891
73201SOL     OW21434   8.899  13.538   3.710
73201SOL    HW121435   8.859  13.571   3.630
73201SOL    HW221436   8.949  13.461   3.683
73202SOL     OW21437   8.541   3.231   7.085
73202SOL    HW121438   8.472   3.178   7.126
73202SOL    HW221439   8.525   3.320   7.116
73203SOL     OW21440   8.120  14.474   3.221
73203SOL    HW121441   8.091  14.473   3.130
73203SOL    HW221442   8.064  14.540   3.262
73204SOL     OW21443   0.470   3.234   3.303
73204SOL    HW121444   0.376   3.224   3.290
73204SOL    HW221445   0.501   3.145   3.320
73205SOL     OW21446  13.174   9.482   6.371
73205SOL    HW121447  13.088   9.508   6.339
73205SOL    HW221448  13.170   9.495   6.465
73206SOL     OW21449   3.536   4.315   9.398
73206SOL    HW121450   3.629   4.312   9.375
73206SOL    HW221451   3.490   4.311   9.314
73207SOL     OW21452   3.252  12.465  11.415
73207SOL    HW121453   3.223  12.374  11.419
73207SOL    HW221454   3.206  12.508  11.487
73208SOL     OW21455   6.250  10.794   3.411
73208SOL    HW121456   6.345  10.811   3.410
73208SOL    HW221457   6.221  10.831   3.495
73209SOL     OW21458  12.183  12.252   3.416
73209SOL    HW121459  12.261  12.221   3.370
73209SOL    HW221460  12.130  12.174   3.429
73210SOL     OW21461   1.861   4.993   6.480
73210SOL    HW121462   1.901   5.067   6.435
73210SOL    HW221463   1.935   4.944   6.516
73211SOL     OW21464   1.781   9.217   8.034
73211SOL    HW121465   1.783   9.126   8.006
73211SOL    HW221466   1.753   9.266   7.957
73212SOL     OW21467  14.880   8.127   8.837
73212SOL    HW121468   0.020   8.194   8.901
73212SOL    HW221469  14.801   8.159   8.794
73213SOL     OW21470  12.331   5.897   9.144
73213SOL    HW121471  12.402   5.953   9.111
73213SOL    HW221472  12.315   5.930   9.233
73214SOL     OW21473  10.477   7.086   4.962
73214SOL    HW121474  10.565   7.118   4.945
73214SOL    HW221475  10.463   7.018   4.896
73215SOL     OW21476   3.157  12.884   9.961
73215SOL    HW121477   3.233  12.941   9.946
73215SOL    HW221478   3.087  12.944   9.988
73216SOL     OW21479   2.433   0.226  10.344
73216SOL    HW121480   2.346   0.198  10.315
73216SOL    HW221481   2.447   0.310  10.300
73217SOL     OW21482   1.695  13.148   2.871
73217SOL    HW121483   1.601  13.168   2.867
73217SOL    HW221484   1.720  13.134   2.779
73218SOL     OW21485  14.706  14.535  11.897
73218SOL    HW121486  14.620  14.532  11.855
73218SOL    HW221487  14.687  14.540  11.991
73219SOL     OW21488  13.811  10.454  13.292
73219SOL    HW121489  13.785  10.367  13.262
73219SOL    HW221490  13.729  10.502  13.298
73220SOL     OW21491   2.952  11.000   1.251
73220SOL    HW121492   2.866  11.034   1.228
73220SOL    HW221493   2.958  10.917   1.204
73221SOL     OW21494   6.994   6.159  13.538
73221SOL    HW121495   6.964   6.247  13.561
73221SOL    HW221496   6.915   6.106  13.533
73222SOL     OW21497   3.742   1.523   3.643
73222SOL    HW121498   3.759   1.547   3.734
73222SOL    HW221499   3.747   1.606   3.595
73223SOL     OW21500   5.318   1.025   4.751
73223SOL    HW121501   5.362   0.969   4.688
73223SOL    HW221502   5.317   0.975   4.833
73224SOL     OW21503  12.181   0.919   6.699
73224SOL    HW121504  12.087   0.899   6.694
73224SOL    HW221505  12.216   0.890   6.614
73225SOL     OW21506  12.039   1.181   1.662
73225SOL    HW121507  12.012   1.175   1.570
73225SOL    HW221508  11.974   1.129   1.709
73226SOL     OW21509   2.828   5.991   2.276
73226SOL    HW121510   2.797   6.054   2.341
73226SOL    HW221511   2.880   6.043   2.214
73227SOL     OW21512   5.774   8.848   9.827
73227SOL    HW121513   5.779   8.944   9.834
73227SOL    HW221514   5.680   8.829   9.831
73228SOL     OW21515  14.260   7.953   8.075
73228SOL    HW121516  14.293   7.924   7.990
73228SOL    HW221517  14.313   7.906   8.139
73229SOL     OW21518   5.363   9.506   9.723
73229SOL    HW121519   5.455   9.522   9.746
73229SOL    HW221520   5.357   9.411   9.712
73230SOL     OW21521  11.204   8.283  11.422
73230SOL    HW121522  11.225   8.198  11.383
73230SOL    HW221523  11.114   8.273  11.454
73231SOL     OW21524   3.970   2.954   8.065
73231SOL    HW121525   4.012   2.869   8.053
73231SOL    HW221526   3.879   2.933   8.087
73232SOL     OW21527  14.851  11.125   3.474
73232SOL    HW121528  14.833  11.075   3.394
73232SOL    HW221529   0.065  11.128   3.479
73233SOL     OW21530   9.390   2.849   2.871
73233SOL    HW121531   9.318   2.800   2.831
73233SOL    HW221532   9.393   2.818   2.961
73234SOL     OW21533  12.640   7.564   5.189
73234SOL    HW121534  12.692   7.531   5.116
73234SOL    HW221535  12.705   7.582   5.258
73235SOL     OW21536   1.847   7.065   0.759
73235SOL    HW121537   1.848   7.040   0.666
73235SOL    HW221538   1.829   7.159   0.758
73236SOL     OW21539   8.889  11.569  14.458
73236SOL    HW121540   8.933  11.485  14.467
73236SOL    HW221541   8.929  11.609  14.381
73237SOL     OW21542   0.084   5.308  11.441
73237SOL    HW121543   0.057   5.333  11.530
73237SOL    HW221544   0.097   5.391  11.396
73238SOL     OW21545   4.617   3.008   5.055
73238SOL    HW121546   4.704   2.993   5.018
73238SOL    HW221547   4.623   3.095   5.094
73239SOL     OW21548  10.520   3.403   2.398
73239SOL    HW121549  10.513   3.307   2.397
73239SOL    HW221550  10.429   3.433   2.400
73240SOL     OW21551   1.943  14.085  10.709
73240SOL    HW121552   1.955  14.052  10.620
73240SOL    HW221553   1.997  14.029  10.763
73241SOL     OW21554  12.090  14.314   1.936
73241SOL    HW121555  12.121  14.224   1.932
73241SOL    HW221556  12.166  14.364   1.966
73242SOL     OW21557  10.149  14.680   4.829
73242SOL    HW121558  10.194  14.597   4.813
73242SOL    HW221559  10.178  14.738   4.758
73243SOL     OW21560  10.961   3.128  10.639
73243SOL    HW121561  10.880   3.136  10.689
73243SOL    HW221562  10.969   3.210  10.591
73244SOL     OW21563   4.130  14.841  12.599
73244SOL    HW121564   4.208  14.836  12.544
73244SOL    HW221565   4.163  14.862  12.686
73245SOL     OW21566   0.503   4.110   3.486
73245SOL    HW121567   0.560   4.108   3.563
73245SOL    HW221568   0.417   4.131   3.521
73246SOL     OW21569   0.292  13.993   5.946
73246SOL    HW121570   0.301  14.065   6.008
73246SOL    HW221571   0.198  13.973   5.947
73247SOL     OW21572  11.074  11.309   1.729
73247SOL    HW121573  11.128  11.231   1.739
73247SOL    HW221574  10.990  11.284   1.768
73248SOL     OW21575  12.027   1.178   4.993
73248SOL    HW121576  12.099   1.211   5.046
73248SOL    HW221577  12.001   1.252   4.939
73249SOL     OW21578   4.570  13.942   3.408
73249SOL    HW121579   4.498  13.992   3.447
73249SOL    HW221580   4.634  14.008   3.383
73250SOL     OW21581   0.898   2.336   3.766
73250SOL    HW121582   0.899   2.287   3.848
73250SOL    HW221583   0.866   2.423   3.789
73251SOL     OW21584   0.046   2.371   4.498
73251SOL    HW121585   0.137   2.347   4.480
73251SOL    HW221586   0.044   2.466   4.492
73252SOL     OW21587  11.224   8.048   1.152
73252SOL    HW121588  11.166   7.975   1.177
73252SOL    HW221589  11.203   8.117   1.214
73253SOL     OW21590   6.038  13.636   6.816
73253SOL    HW121591   6.074  13.579   6.748
73253SOL    HW221592   6.040  13.723   6.778
73254SOL     OW21593   4.472   2.492   4.676
73254SOL    HW121594   4.432   2.446   4.750
73254SOL    HW221595   4.562   2.458   4.673
73255SOL     OW21596  14.818   2.405  13.460
73255SOL    HW121597  14.836   2.470  13.393
73255SOL    HW221598   0.020   2.359  13.471
73256SOL     OW21599   5.822  12.952   8.145
73256SOL    HW121600   5.726  12.956   8.148
73256SOL    HW221601   5.841  12.859   8.129
73257SOL     OW21602   7.765  10.170  13.653
73257SOL    HW121603   7.735  10.106  13.717
73257SOL    HW221604   7.707  10.245  13.666
73258SOL     OW21605   9.026  10.099   5.126
73258SOL    HW121606   8.958  10.159   5.158
73258SOL    HW221607   9.017  10.102   5.030
73259SOL     OW21608   5.011   0.827   0.909
73259SOL    HW121609   4.922   0.812   0.878
73259SOL    HW221610   5.007   0.810   1.003
73260SOL     OW21611  10.040   4.491   2.635
73260SOL    HW121612  10.035   4.572   2.687
73260SOL    HW221613   9.956   4.487   2.590
73261SOL     OW21614   4.031   7.924   8.582
73261SOL    HW121615   4.087   7.989   8.539
73261SOL    HW221616   3.974   7.976   8.639
73262SOL     OW21617   7.923  10.517   3.562
73262SOL    HW121618   7.950  10.604   3.590
73262SOL    HW221619   7.830  10.526   3.542
73263SOL     OW21620   3.258   0.465  12.183
73263SOL    HW121621   3.332   0.471  12.243
73263SOL    HW221622   3.181   0.478  12.239
73264SOL     OW21623   3.849   6.278   6.772
73264SOL    HW121624   3.893   6.358   6.741
73264SOL    HW221625   3.755   6.299   6.768
73265SOL     OW21626  12.162  13.109   7.454
73265SOL    HW121627  12.217  13.062   7.391
73265SOL    HW221628  12.075  13.109   7.414
73266SOL     OW21629   8.517  11.339   0.844
73266SOL    HW121630   8.461  11.406   0.806
73266SOL    HW221631   8.514  11.267   0.781
73267SOL     OW21632   2.093   6.632   7.408
73267SOL    HW121633   2.105   6.727   7.407
73267SOL    HW221634   2.180   6.597   7.427
73268SOL     OW21635   1.253   9.828   4.910
73268SOL    HW121636   1.205   9.751   4.939
73268SOL    HW221637   1.304   9.855   4.986
73269SOL     OW21638   4.158   3.716  14.148
73269SOL    HW121639   4.222   3.771  14.102
73269SOL    HW221640   4.142   3.761  14.231
73270SOL     OW21641   4.622  12.913   7.627
73270SOL    HW121642   4.594  12.848   7.563
73270SOL    HW221643   4.551  12.977   7.628
73271SOL     OW21644   9.297   3.978   5.696
73271SOL    HW121645   9.315   3.892   5.659
73271SOL    HW221646   9.202   3.978   5.712
73272SOL     OW21647   2.497  12.940   7.004
73272SOL    HW121648   2.456  12.867   6.958
73272SOL    HW221649   2.573  12.902   7.047
73273SOL     OW21650   6.302   3.527   4.998
73273SOL    HW121651   6.284   3.620   4.987
73273SOL    HW221652   6.378   3.524   5.056
73274SOL     OW21653   7.233   7.425  13.976
73274SOL    HW121654   7.194   7.351  13.931
73274SOL    HW221655   7.252   7.488  13.907
73275SOL     OW21656  11.690   7.325   7.540
73275SOL    HW121657  11.624   7.256   7.548
73275SOL    HW221658  11.691   7.367   7.625
73276SOL     OW21659   9.557   4.116   7.855
73276SOL    HW121660   9.616   4.172   7.805
73276SOL    HW221661   9.503   4.072   7.789
73277SOL     OW21662   4.103  11.087   5.725
73277SOL    HW121663   4.026  11.139   5.747
73277SOL    HW221664   4.147  11.072   5.809
73278SOL     OW21665  12.357  13.301  13.762
73278SOL    HW121666  12.429  13.356  13.793
73278SOL    HW221667  12.325  13.257  13.841
73279SOL     OW21668  14.381   0.294   1.788
73279SOL    HW121669  14.304   0.335   1.747
73279SOL    HW221670  14.382   0.330   1.876
73280SOL     OW21671   5.948   2.659   9.673
73280SOL    HW121672   5.991   2.618   9.749
73280SOL    HW221673   6.019   2.671   9.610
73281SOL     OW21674  11.387  14.244  13.059
73281SOL    HW121675  11.373  14.190  12.982
73281SOL    HW221676  11.350  14.330  13.037
73282SOL     OW21677   5.771   9.876  11.419
73282SOL    HW121678   5.768   9.967  11.390
73282SOL    HW221679   5.813   9.880  11.505
73283SOL     OW21680  10.682   9.813   5.107
73283SOL    HW121681  10.624   9.778   5.039
73283SOL    HW221682  10.770   9.799   5.074
73284SOL     OW21683   1.203   6.514   2.274
73284SOL    HW121684   1.294   6.511   2.245
73284SOL    HW221685   1.176   6.604   2.261
73285SOL     OW21686  12.308   6.864   1.577
73285SOL    HW121687  12.301   6.908   1.492
73285SOL    HW221688  12.242   6.795   1.574
73286SOL     OW21689   2.879   0.416  13.536
73286SOL    HW121690   2.891   0.389  13.444
73286SOL    HW221691   2.926   0.498  13.544
73287SOL     OW21692   2.827   1.093   4.111
73287SOL    HW121693   2.835   1.182   4.147
73287SOL    HW221694   2.758   1.053   4.163
73288SOL     OW21695  14.743   4.411  13.318
73288SOL    HW121696  14.663   4.407  13.369
73288SOL    HW221697  14.780   4.323  13.324
73289SOL     OW21698   3.229  11.560  11.290
73289SOL    HW121699   3.147  11.511  11.283
73289SOL    HW221700   3.290  11.498  11.329
73290SOL     OW21701   4.843   1.826  13.790
73290SOL    HW121702   4.751   1.806  13.810
73290SOL    HW221703   4.865   1.768  13.718
73291SOL     OW21704   3.341   8.893   7.861
73291SOL    HW121705   3.369   8.802   7.871
73291SOL    HW221706   3.373   8.919   7.775
73292SOL     OW21707  14.123  12.506  12.220
73292SOL    HW121708  14.123  12.411  12.209
73292SOL    HW221709  14.155  12.519  12.309
73293SOL     OW21710   3.215   4.001  10.068
73293SOL    HW121711   3.189   4.024  10.157
73293SOL    HW221712   3.251   4.082  10.031
73294SOL     OW21713   9.039   1.087  11.337
73294SOL    HW121714   9.061   1.034  11.414
73294SOL    HW221715   8.988   1.160  11.372
73295SOL     OW21716  13.645   8.393  11.103
73295SOL    HW121717  13.726   8.353  11.136
73295SOL    HW221718  13.656   8.487  11.122
73296SOL     OW21719   7.607   5.724   8.797
73296SOL    HW121720   7.631   5.782   8.725
73296SOL    HW221721   7.602   5.781   8.874
73297SOL     OW21722  10.975   0.680  14.606
73297SOL    HW121723  11.059   0.725  14.614
73297SOL    HW221724  10.910   0.750  14.608
73298SOL     OW21725   3.701   3.936  11.443
73298SOL    HW121726   3.762   3.896  11.382
73298SOL    HW221727   3.744   4.016  11.472
73299SOL     OW21728   7.610   6.150   3.104
73299SOL    HW121729   7.529   6.100   3.109
73299SOL    HW221730   7.646   6.129   3.017
73300SOL     OW21731   6.967   4.384   6.093
73300SOL    HW121732   6.958   4.474   6.061
73300SOL    HW221733   7.043   4.349   6.047
73301SOL     OW21734   4.972   0.861   6.767
73301SOL    HW121735   5.012   0.884   6.851
73301SOL    HW221736   5.017   0.781   6.740
73302SOL     OW21737   0.457  12.011   2.501
73302SOL    HW121738   0.459  12.100   2.537
73302SOL    HW221739   0.409  11.960   2.567
73303SOL     OW21740  10.541   3.686   5.704
73303SOL    HW121741  10.610   3.673   5.638
73303SOL    HW221742  10.539   3.604   5.753
73304SOL     OW21743   1.150  12.446  11.398
73304SOL    HW121744   1.054  12.452  11.399
73304SOL    HW221745   1.168  12.355  11.374
73305SOL     OW21746   2.503   7.754   1.946
73305SOL    HW121747   2.568   7.812   1.906
73305SOL    HW221748   2.499   7.781   2.037
73306SOL     OW21749  11.914  12.023  14.840
73306SOL    HW121750  11.892  12.084  14.769
73306SOL    HW221751  11.834  11.972  14.853
73307SOL     OW21752   3.671  12.192   6.523
73307SOL    HW121753   3.682  12.195   6.428
73307SOL    HW221754   3.700  12.278   6.554
73308SOL     OW21755   2.513   6.161   2.841
73308SOL    HW121756   2.592   6.108   2.839
73308SOL    HW221757   2.498   6.186   2.750
73309SOL     OW21758   7.918  12.363   1.737
73309SOL    HW121759   7.867  12.438   1.766
73309SOL    HW221760   7.977  12.344   1.810
73310SOL     OW21761  11.560  12.782  10.615
73310SOL    HW121762  11.525  12.869  10.632
73310SOL    HW221763  11.613  12.763  10.693
73311SOL     OW21764   1.351  13.849   2.799
73311SOL    HW121765   1.405  13.773   2.779
73311SOL    HW221766   1.261  13.816   2.791
73312SOL     OW21767   2.558  10.674  13.070
73312SOL    HW121768   2.623  10.607  13.092
73312SOL    HW221769   2.604  10.757  13.082
73313SOL     OW21770   2.624   3.915   7.788
73313SOL    HW121771   2.530   3.929   7.781
73313SOL    HW221772   2.661   3.970   7.719
73314SOL     OW21773  13.703  11.791  11.998
73314SOL    HW121774  13.616  11.789  12.040
73314SOL    HW221775  13.757  11.735  12.053
73315SOL     OW21776   9.424   3.311   4.927
73315SOL    HW121777   9.518   3.303   4.915
73315SOL    HW221778   9.402   3.398   4.896
73316SOL     OW21779  12.720   8.519   5.040
73316SOL    HW121780  12.685   8.600   5.076
73316SOL    HW221781  12.785   8.546   4.976
73317SOL     OW21782   2.535   7.838   2.692
73317SOL    HW121783   2.444   7.809   2.685
73317SOL    HW221784   2.560   7.816   2.782
73318SOL     OW21785   8.860   0.962   3.163
73318SOL    HW121786   8.794   0.991   3.226
73318SOL    HW221787   8.939   1.010   3.187
73319SOL     OW21788   2.056  13.361   7.080
73319SOL    HW121789   2.115  13.307   7.027
73319SOL    HW221790   2.097  13.365   7.166
73320SOL     OW21791  14.472   4.352   5.967
73320SOL    HW121792  14.480   4.427   5.908
73320SOL    HW221793  14.501   4.385   6.052
73321SOL     OW21794   6.395  12.949   2.720
73321SOL    HW121795   6.389  13.043   2.737
73321SOL    HW221796   6.394  12.942   2.624
73322SOL     OW21797   5.944   0.052   4.319
73322SOL    HW121798   5.905  14.850   4.346
73322SOL    HW221799   5.894   0.118   4.368
73323SOL     OW21800  11.769   4.605   3.856
73323SOL    HW121801  11.728   4.599   3.943
73323SOL    HW221802  11.695   4.600   3.795
73324SOL     OW21803  12.805  13.715   5.866
73324SOL    HW121804  12.730  13.717   5.925
73324SOL    HW221805  12.767  13.716   5.778
73325SOL     OW21806   3.567  10.470   1.063
73325SOL    HW121807   3.508  10.521   1.119
73325SOL    HW221808   3.651  10.516   1.068
73326SOL     OW21809   0.170   0.720  12.087
73326SOL    HW121810   0.099   0.784  12.089
73326SOL    HW221811   0.130   0.640  12.053
73327SOL     OW21812   5.150   7.883  12.121
73327SOL    HW121813   5.180   7.792  12.124
73327SOL    HW221814   5.066   7.883  12.167
73328SOL     OW21815   4.205   3.530   8.864
73328SOL    HW121816   4.235   3.620   8.854
73328SOL    HW221817   4.121   3.536   8.909
73329SOL     OW21818   9.737   5.385  10.884
73329SOL    HW121819   9.783   5.332  10.949
73329SOL    HW221820   9.758   5.475  10.909
73330SOL     OW21821   6.090  13.860  13.702
73330SOL    HW121822   6.020  13.852  13.637
73330SOL    HW221823   6.165  13.818  13.660
73331SOL     OW21824   0.381   3.360   6.004
73331SOL    HW121825   0.288   3.351   5.983
73331SOL    HW221826   0.427   3.343   5.922
73332SOL     OW21827  13.474   0.334  10.682
73332SOL    HW121828  13.505   0.383  10.758
73332SOL    HW221829  13.542   0.347  10.616
73333SOL     OW21830   0.185   2.412  14.779
73333SOL    HW121831   0.171   2.493  14.828
73333SOL    HW221832   0.099   2.388  14.746
73334SOL     OW21833  14.322   4.024   6.488
73334SOL    HW121834  14.350   4.115   6.498
73334SOL    HW221835  14.355   3.981   6.567
73335SOL     OW21836   2.769   2.464   3.648
73335SOL    HW121837   2.841   2.410   3.615
73335SOL    HW221838   2.796   2.554   3.630
73336SOL     OW21839  10.958   5.705  10.951
73336SOL    HW121840  10.934   5.784  10.902
73336SOL    HW221841  10.934   5.633  10.894
73337SOL     OW21842   3.411   4.172   8.465
73337SOL    HW121843   3.371   4.183   8.378
73337SOL    HW221844   3.387   4.252   8.512
73338SOL     OW21845   0.195  11.014   6.882
73338SOL    HW121846   0.144  11.009   6.963
73338SOL    HW221847   0.131  11.035   6.814
73339SOL     OW21848  14.639  10.614   4.315
73339SOL    HW121849  14.543  10.618   4.319
73339SOL    HW221850  14.662  10.675   4.245
73340SOL     OW21851  14.610   2.002  13.394
73340SOL    HW121852  14.550   1.946  13.443
73340SOL    HW221853  14.663   2.045  13.461
73341SOL     OW21854   4.521   6.039   4.430
73341SOL    HW121855   4.583   6.108   4.452
73341SOL    HW221856   4.553   6.003   4.347
73342SOL     OW21857  10.056  11.074   0.954
73342SOL    HW121858  10.028  11.155   0.996
73342SOL    HW221859  10.063  11.096   0.861
73343SOL     OW21860   4.420   6.988  11.374
73343SOL    HW121861   4.425   6.974  11.279
73343SOL    HW221862   4.327   6.985  11.393
73344SOL     OW21863  11.335   3.578   4.264
73344SOL    HW121864  11.340   3.502   4.207
73344SOL    HW221865  11.426   3.606   4.275
73345SOL     OW21866   9.839   4.976   8.016
73345SOL    HW121867   9.816   5.010   8.103
73345SOL    HW221868   9.755   4.962   7.973
73346SOL     OW21869  13.142  13.981   4.580
73346SOL    HW121870  13.186  13.961   4.662
73346SOL    HW221871  13.197  13.940   4.513
73347SOL     OW21872   9.099   9.060   8.529
73347SOL    HW121873   9.079   9.086   8.439
73347SOL    HW221874   9.051   8.978   8.541
73348SOL     OW21875   0.514   7.949  11.676
73348SOL    HW121876   0.442   8.012  11.663
73348SOL    HW221877   0.549   7.933  11.589
73349SOL     OW21878  14.486  10.577   5.779
73349SOL    HW121879  14.495  10.666   5.814
73349SOL    HW221880  14.519  10.583   5.690
73350SOL     OW21881  14.510  14.680  13.937
73350SOL    HW121882  14.543  14.770  13.937
73350SOL    HW221883  14.587  14.626  13.919
73351SOL     OW21884   0.384   5.415  12.453
73351SOL    HW121885   0.317   5.374  12.398
73351SOL    HW221886   0.425   5.480  12.396
73352SOL     OW21887   3.303  10.170  13.285
73352SOL    HW121888   3.359  10.099  13.316
73352SOL    HW221889   3.364  10.242  13.267
73353SOL     OW21890   3.265   8.920   8.780
73353SOL    HW121891   3.319   8.841   8.781
73353SOL    HW221892   3.297   8.971   8.705
73354SOL     OW21893   3.825  10.121   6.336
73354SOL    HW121894   3.751  10.129   6.276
73354SOL    HW221895   3.849  10.028   6.332
73355SOL     OW21896  14.404   0.458   2.188
73355SOL    HW121897  14.485   0.462   2.136
73355SOL    HW221898  14.365   0.544   2.177
73356SOL     OW21899  11.179   0.950   0.182
73356SOL    HW121900  11.189   1.034   0.226
73356SOL    HW221901  11.085   0.944   0.164
73357SOL     OW21902  11.168   5.358  10.722
73357SOL    HW121903  11.263   5.368  10.733
73357SOL    HW221904  11.156   5.349  10.628
73358SOL     OW21905   2.490   8.554  12.429
73358SOL    HW121906   2.427   8.620  12.458
73358SOL    HW221907   2.496   8.493  12.503
73359SOL     OW21908   9.898   8.558   7.447
73359SOL    HW121909   9.813   8.599   7.433
73359SOL    HW221910   9.960   8.631   7.445
73360SOL     OW21911   0.151  11.680   6.711
73360SOL    HW121912   0.102  11.603   6.680
73360SOL    HW221913   0.210  11.645   6.777
73361SOL     OW21914   1.763   5.505   7.914
73361SOL    HW121915   1.671   5.516   7.938
73361SOL    HW221916   1.810   5.504   7.997
73362SOL     OW21917   5.826   5.625   7.204
73362SOL    HW121918   5.754   5.565   7.181
73362SOL    HW221919   5.840   5.677   7.125
73363SOL     OW21920   3.298  10.357  13.023
73363SOL    HW121921   3.308  10.391  12.934
73363SOL    HW221922   3.318  10.431  13.080
73364SOL     OW21923  10.378  13.400   6.553
73364SOL    HW121924  10.298  13.396   6.606
73364SOL    HW221925  10.425  13.319   6.574
73365SOL     OW21926   2.187   7.061   5.688
73365SOL    HW121927   2.093   7.080   5.684
73365SOL    HW221928   2.191   6.965   5.682
73366SOL     OW21929   5.491  10.414   3.127
73366SOL    HW121930   5.575  10.388   3.165
73366SOL    HW221931   5.514  10.447   3.040
73367SOL     OW21932   3.860   3.090  11.266
73367SOL    HW121933   3.823   3.154  11.327
73367SOL    HW221934   3.803   3.013  11.275
73368SOL     OW21935   7.093   6.784   9.982
73368SOL    HW121936   7.092   6.764   9.889
73368SOL    HW221937   7.145   6.864   9.989
73369SOL     OW21938   2.142  13.805   0.171
73369SOL    HW121939   2.081  13.827   0.100
73369SOL    HW221940   2.228  13.830   0.137
73370SOL     OW21941   5.949   9.258  11.856
73370SOL    HW121942   6.032   9.222  11.887
73370SOL    HW221943   5.907   9.294  11.934
73371SOL     OW21944   3.533   0.462   7.578
73371SOL    HW121945   3.491   0.414   7.650
73371SOL    HW221946   3.574   0.537   7.619
73372SOL     OW21947   9.095  13.920  12.452
73372SOL    HW121948   9.030  13.945  12.517
73372SOL    HW221949   9.127  14.003  12.417
73373SOL     OW21950  13.054   7.040   6.162
73373SOL    HW121951  13.130   6.989   6.191
73373SOL    HW221952  12.982   6.978   6.160
73374SOL     OW21953  12.743  10.075  10.162
73374SOL    HW121954  12.753   9.988  10.125
73374SOL    HW221955  12.810  10.128  10.118
73375SOL     OW21956   8.518   0.691   5.510
73375SOL    HW121957   8.541   0.768   5.459
73375SOL    HW221958   8.569   0.620   5.470
73376SOL     OW21959   3.525   7.204  12.009
73376SOL    HW121960   3.472   7.142  12.060
73376SOL    HW221961   3.568   7.258  12.075
73377SOL     OW21962   5.657  12.601   0.181
73377SOL    HW121963   5.697  12.515   0.193
73377SOL    HW221964   5.605  12.592   0.101
73378SOL     OW21965   4.191   6.011  10.997
73378SOL    HW121966   4.196   6.070  10.922
73378SOL    HW221967   4.098   5.990  11.005
73379SOL     OW21968   3.337   6.166   1.011
73379SOL    HW121969   3.342   6.140   0.919
73379SOL    HW221970   3.320   6.261   1.007
73380SOL     OW21971   8.196  14.330   9.024
73380SOL    HW121972   8.208  14.398   8.959
73380SOL    HW221973   8.136  14.268   8.983
73381SOL     OW21974   3.107   7.475  10.466
73381SOL    HW121975   3.088   7.382  10.460
73381SOL    HW221976   3.038   7.510  10.523
73382SOL     OW21977   9.887   7.492  14.086
73382SOL    HW121978   9.810   7.466  14.137
73382SOL    HW221979   9.959   7.442  14.124
73383SOL     OW21980  13.475   6.136  11.965
73383SOL    HW121981  13.438   6.208  11.913
73383SOL    HW221982  13.570   6.144  11.953
73384SOL     OW21983   4.562   2.653   8.503
73384SOL    HW121984   4.608   2.686   8.426
73384SOL    HW221985   4.629   2.610   8.556
73385SOL     OW21986  13.170   0.844  10.670
73385SOL    HW121987  13.095   0.842  10.730
73385SOL    HW221988  13.227   0.774  10.702
73386SOL     OW21989   1.888   4.239  14.524
73386SOL    HW121990   1.849   4.180  14.460
73386SOL    HW221991   1.876   4.196  14.608
73387SOL     OW21992   4.615  10.938  14.031
73387SOL    HW121993   4.568  10.869  14.077
73387SOL    HW221994   4.566  11.018  14.050
73388SOL     OW21995   5.085  11.394  11.547
73388SOL    HW121996   5.055  11.485  11.544
73388SOL    HW221997   5.060  11.358  11.462
73389SOL     OW21998   5.068   4.949  10.646
73389SOL    HW121999   5.075   5.044  10.636
73389SOL    HW222000   5.017   4.937  10.726
73390SOL     OW22001   2.015   2.961  10.346
73390SOL    HW122002   2.033   3.049  10.315
73390SOL    HW222003   2.065   2.953  10.427
73391SOL     OW22004   4.382  11.128   7.514
73391SOL    HW122005   4.372  11.190   7.587
73391SOL    HW222006   4.293  11.117   7.481
73392SOL     OW22007   2.799   7.206  14.567
73392SOL    HW122008   2.786   7.298  14.544
73392SOL    HW222009   2.724   7.184  14.623
73393SOL     OW22010  10.139   3.470   1.717
73393SOL    HW122011  10.158   3.563   1.703
73393SOL    HW222012  10.156   3.430   1.632
73394SOL     OW22013  14.156   0.614   2.951
73394SOL    HW122014  14.090   0.545   2.957
73394SOL    HW222015  14.239   0.567   2.940
73395SOL     OW22016  10.778   5.589   4.196
73395SOL    HW122017  10.746   5.521   4.254
73395SOL    HW222018  10.864   5.557   4.167
73396SOL     OW22019   1.871  14.882   1.168
73396SOL    HW122020   1.955  14.838   1.157
73396SOL    HW222021   1.823  14.861   1.088
73397SOL     OW22022   5.385  12.453  10.296
73397SOL    HW122023   5.303  12.502  10.292
73397SOL    HW222024   5.358  12.361  10.292
73398SOL     OW22025  14.620  11.831  10.918
73398SOL    HW122026  14.630  11.926  10.929
73398SOL    HW222027  14.666  11.793  10.993
73399SOL     OW22028   8.867  10.661   3.569
73399SOL    HW122029   8.775  10.636   3.578
73399SOL    HW222030   8.864  10.745   3.524
73400SOL     OW22031   4.115  12.430   6.613
73400SOL    HW122032   4.086  12.393   6.696
73400SOL    HW222033   4.193  12.481   6.635
73401SOL     OW22034   3.364   8.565   7.715
73401SOL    HW122035   3.419   8.582   7.792
73401SOL    HW222036   3.277   8.596   7.741
73402SOL     OW22037   3.369   9.464   6.343
73402SOL    HW122038   3.339   9.538   6.396
73402SOL    HW222039   3.464   9.468   6.347
73403SOL     OW22040   7.465   4.979   8.596
73403SOL    HW122041   7.450   5.073   8.609
73403SOL    HW222042   7.454   4.941   8.684
73404SOL     OW22043   8.299   1.386   7.064
73404SOL    HW122044   8.337   1.370   6.978
73404SOL    HW222045   8.307   1.481   7.076
73405SOL     OW22046  11.143   0.652  14.089
73405SOL    HW122047  11.173   0.682  14.003
73405SOL    HW222048  11.131   0.558  14.078
73406SOL     OW22049   7.534  12.384   8.963
73406SOL    HW122050   7.535  12.478   8.981
73406SOL    HW222051   7.465  12.373   8.898
73407SOL     OW22052  12.773   2.401   1.503
73407SOL    HW122053  12.740   2.446   1.581
73407SOL    HW222054  12.845   2.346   1.536
73408SOL     OW22055   6.881  10.729  11.229
73408SOL    HW122056   6.913  10.793  11.293
73408SOL    HW222057   6.939  10.654  11.238
73409SOL     OW22058   8.381  11.241   5.212
73409SOL    HW122059   8.321  11.250   5.287
73409SOL    HW222060   8.456  11.297   5.235
73410SOL     OW22061   6.411  10.726  14.296
73410SOL    HW122062   6.434  10.808  14.253
73410SOL    HW222063   6.331  10.697  14.252
73411SOL     OW22064   8.557   9.693  13.859
73411SOL    HW122065   8.594   9.608  13.836
73411SOL    HW222066   8.473   9.672  13.899
73412SOL     OW22067   6.620   7.358  13.542
73412SOL    HW122068   6.667   7.280  13.516
73412SOL    HW222069   6.558   7.328  13.609
73413SOL     OW22070   1.857  14.715   6.999
73413SOL    HW122071   1.875  14.788   6.940
73413SOL    HW222072   1.799  14.751   7.065
73414SOL     OW22073   8.216   5.491  12.923
73414SOL    HW122074   8.189   5.573  12.962
73414SOL    HW222075   8.302   5.473  12.962
73415SOL     OW22076   7.341   7.198   5.254
73415SOL    HW122077   7.370   7.241   5.335
73415SOL    HW222078   7.304   7.115   5.283
73416SOL     OW22079  11.783   4.500   1.221
73416SOL    HW122080  11.871   4.476   1.249
73416SOL    HW222081  11.792   4.522   1.128
73417SOL     OW22082   5.108   3.917   8.569
73417SOL    HW122083   5.140   3.885   8.653
73417SOL    HW222084   5.179   3.974   8.537
73418SOL     OW22085  14.797  13.039   8.674
73418SOL    HW122086  14.730  13.102   8.702
73418SOL    HW222087  14.751  12.955   8.672
73419SOL     OW22088   8.350  14.510  13.276
73419SOL    HW122089   8.400  14.589  13.258
73419SOL    HW222090   8.412  14.438  13.260
73420SOL     OW22091   0.839   8.226  10.204
73420SOL    HW122092   0.816   8.140  10.241
73420SOL    HW222093   0.935   8.229  10.210
73421SOL     OW22094  10.052   7.177   5.923
73421SOL    HW122095   9.964   7.208   5.946
73421SOL    HW222096  10.083   7.240   5.859
73422SOL     OW22097   7.181   2.316   4.953
73422SOL    HW122098   7.150   2.226   4.947
73422SOL    HW222099   7.264   2.316   4.905
73423SOL     OW22100  11.770   8.330  14.439
73423SOL    HW122101  11.772   8.256  14.379
73423SOL    HW222102  11.687   8.320  14.486
73424SOL     OW22103  13.448   9.721   2.448
73424SOL    HW122104  13.367   9.685   2.410
73424SOL    HW222105  13.497   9.645   2.477
73425SOL     OW22106   5.997   8.547   9.536
73425SOL    HW122107   5.915   8.573   9.494
73425SOL    HW222108   6.041   8.630   9.555
73426SOL     OW22109   0.625   8.765   8.233
73426SOL    HW122110   0.716   8.758   8.205
73426SOL    HW222111   0.576   8.778   8.152
73427SOL     OW22112   0.686   9.833   5.307
73427SOL    HW122113   0.690   9.795   5.395
73427SOL    HW222114   0.598   9.869   5.300
73428SOL     OW22115   4.907   1.291   5.763
73428SOL    HW122116   4.881   1.213   5.713
73428SOL    HW222117   4.997   1.274   5.789
73429SOL     OW22118   1.774   1.344  13.557
73429SOL    HW122119   1.734   1.426  13.585
73429SOL    HW222120   1.813   1.307  13.636
73430SOL     OW22121   9.430   8.616   4.071
73430SOL    HW122122   9.451   8.611   4.164
73430SOL    HW222123   9.515   8.630   4.028
73431SOL     OW22124  10.430   9.640   5.235
73431SOL    HW122125  10.393   9.554   5.217
73431SOL    HW222126  10.354   9.697   5.247
73432SOL     OW22127  13.165   6.896   5.109
73432SOL    HW122128  13.172   6.988   5.133
73432SOL    HW222129  13.157   6.896   5.014
73433SOL     OW22130  10.989  14.448   1.058
73433SOL    HW122131  11.028  14.400   1.131
73433SOL    HW222132  11.006  14.392   0.981
73434SOL     OW22133   8.489  13.622  14.406
73434SOL    HW122134   8.569  13.622  14.458
73434SOL    HW222135   8.519  13.631  14.315
73435SOL     OW22136   0.457  11.996   9.131
73435SOL    HW122137   0.443  12.060   9.062
73435SOL    HW222138   0.371  11.983   9.170
73436SOL     OW22139  11.777   0.330  12.639
73436SOL    HW122140  11.694   0.374  12.619
73436SOL    HW222141  11.833   0.349  12.563
73437SOL     OW22142   4.218   7.133   9.166
73437SOL    HW122143   4.307   7.124   9.200
73437SOL    HW222144   4.177   7.200   9.221
73438SOL     OW22145  10.259  11.454   5.504
73438SOL    HW122146  10.294  11.443   5.592
73438SOL    HW222147  10.305  11.529   5.468
73439SOL     OW22148   8.800   2.784  11.209
73439SOL    HW122149   8.870   2.849  11.200
73439SOL    HW222150   8.837   2.703  11.174
73440SOL     OW22151  13.553   3.581  12.723
73440SOL    HW122152  13.550   3.511  12.788
73440SOL    HW222153  13.630   3.561  12.670
73441SOL     OW22154   2.955  12.163   4.959
73441SOL    HW122155   3.017  12.121   5.018
73441SOL    HW222156   2.963  12.116   4.877
73442SOL     OW22157   7.549   2.303   6.765
73442SOL    HW122158   7.627   2.335   6.812
73442SOL    HW222159   7.491   2.378   6.760
73443SOL     OW22160   6.775  12.207  14.657
73443SOL    HW122161   6.728  12.241  14.733
73443SOL    HW222162   6.841  12.149  14.694
73444SOL     OW22163  11.872   0.413   9.900
73444SOL    HW122164  11.816   0.406   9.823
73444SOL    HW222165  11.816   0.451   9.967
73445SOL     OW22166   1.107   5.536  10.209
73445SOL    HW122167   1.094   5.447  10.242
73445SOL    HW222168   1.078   5.533  10.118
73446SOL     OW22169   4.733   5.459   9.662
73446SOL    HW122170   4.658   5.493   9.711
73446SOL    HW222171   4.696   5.418   9.585
73447SOL     OW22172   1.826   4.286   1.104
73447SOL    HW122173   1.883   4.298   1.029
73447SOL    HW222174   1.761   4.223   1.075
73448SOL     OW22175   0.379  12.789   6.190
73448SOL    HW122176   0.408  12.716   6.244
73448SOL    HW222177   0.425  12.866   6.224
73449SOL     OW22178  13.943  11.695  11.531
73449SOL    HW122179  13.929  11.777  11.485
73449SOL    HW222180  13.864  11.683  11.583
73450SOL     OW22181   1.092   5.094   7.833
73450SOL    HW122182   1.026   5.078   7.901
73450SOL    HW222183   1.049   5.153   7.771
73451SOL     OW22184   1.878   8.472  13.653
73451SOL    HW122185   1.946   8.508  13.709
73451SOL    HW222186   1.898   8.379  13.646
73452SOL     OW22187   3.481  13.109   8.338
73452SOL    HW122188   3.488  13.080   8.429
73452SOL    HW222189   3.408  13.058   8.303
73453SOL     OW22190   1.235   3.070   9.815
73453SOL    HW122191   1.147   3.067   9.778
73453SOL    HW222192   1.290   3.028   9.749
73454SOL     OW22193   5.924   1.752  13.826
73454SOL    HW122194   5.996   1.692  13.842
73454SOL    HW222195   5.883   1.719  13.745
73455SOL     OW22196   1.061   2.336   8.143
73455SOL    HW122197   1.031   2.245   8.149
73455SOL    HW222198   1.094   2.356   8.230
73456SOL     OW22199  11.141   5.886  12.086
73456SOL    HW122200  11.168   5.839  12.007
73456SOL    HW222201  11.129   5.818  12.151
73457SOL     OW22202   1.910   6.170   0.345
73457SOL    HW122203   1.839   6.229   0.321
73457SOL    HW222204   1.921   6.114   0.269
73458SOL     OW22205   7.969   9.539   4.481
73458SOL    HW122206   8.017   9.483   4.543
73458SOL    HW222207   7.891   9.566   4.529
73459SOL     OW22208   2.789   1.235   2.396
73459SOL    HW122209   2.740   1.162   2.358
73459SOL    HW222210   2.749   1.248   2.482
73460SOL     OW22211   1.933  14.662   2.114
73460SOL    HW122212   1.968  14.670   2.203
73460SOL    HW222213   2.004  14.623   2.063
73461SOL     OW22214   6.570   1.519   4.812
73461SOL    HW122215   6.644   1.539   4.755
73461SOL    HW222216   6.512   1.466   4.758
73462SOL     OW22217   5.465   4.890  10.636
73462SOL    HW122218   5.462   4.888  10.540
73462SOL    HW222219   5.373   4.892  10.663
73463SOL     OW22220   6.659   5.684   6.018
73463SOL    HW122221   6.682   5.600   6.056
73463SOL    HW222222   6.608   5.662   5.939
73464SOL     OW22223   6.772   2.625   5.060
73464SOL    HW122224   6.758   2.578   4.977
73464SOL    HW222225   6.730   2.710   5.047
73465SOL     OW22226   7.405  11.722   5.969
73465SOL    HW122227   7.459  11.776   5.912
73465SOL    HW222228   7.460  11.647   5.991
73466SOL     OW22229  10.711   4.552  12.326
73466SOL    HW122230  10.750   4.576  12.411
73466SOL    HW222231  10.637   4.612  12.316
73467SOL     OW22232  12.455  14.246   6.685
73467SOL    HW122233  12.366  14.221   6.710
73467SOL    HW222234  12.495  14.275   6.767
73468SOL     OW22235   8.355   0.854   7.536
73468SOL    HW122236   8.279   0.890   7.583
73468SOL    HW222237   8.317   0.790   7.475
73469SOL     OW22238   6.814  13.967   4.511
73469SOL    HW122239   6.786  13.927   4.429
73469SOL    HW222240   6.796  13.900   4.578
73470SOL     OW22241   9.911  11.956  12.956
73470SOL    HW122242   9.925  11.963  12.861
73470SOL    HW222243   9.825  11.915  12.964
73471SOL     OW22244  11.979   7.899   8.055
73471SOL    HW122245  11.951   7.866   8.141
73471SOL    HW222246  11.997   7.820   8.004
73472SOL     OW22247   6.480   4.433   7.234
73472SOL    HW122248   6.400   4.474   7.202
73472SOL    HW222249   6.547   4.456   7.170
73473SOL     OW22250   6.233  11.264  12.709
73473SOL    HW122251   6.156  11.290  12.758
73473SOL    HW222252   6.290  11.222  12.773
73474SOL     OW22253   5.030  10.387   0.714
73474SOL    HW122254   4.990  10.406   0.629
73474SOL    HW222255   5.046  10.473   0.753
73475SOL     OW22256   2.745   5.704  12.476
73475SOL    HW122257   2.750   5.629  12.418
73475SOL    HW222258   2.791   5.677  12.555
73476SOL     OW22259  11.879  13.054  13.239
73476SOL    HW122260  11.833  13.052  13.323
73476SOL    HW222261  11.894  13.146  13.222
73477SOL     OW22262   4.662  11.584   6.324
73477SOL    HW122263   4.567  11.591   6.320
73477SOL    HW222264   4.694  11.662   6.280
73478SOL     OW22265   8.611   3.167  10.364
73478SOL    HW122266   8.665   3.243  10.342
73478SOL    HW222267   8.635   3.101  10.299
73479SOL     OW22268   5.273   0.693   8.201
73479SOL    HW122269   5.269   0.669   8.108
73479SOL    HW222270   5.309   0.615   8.244
73480SOL     OW22271   7.853   7.000   7.881
73480SOL    HW122272   7.888   7.081   7.916
73480SOL    HW222273   7.770   7.025   7.841
73481SOL     OW22274   6.129   7.255   2.516
73481SOL    HW122275   6.045   7.297   2.497
73481SOL    HW222276   6.107   7.162   2.524
73482SOL     OW22277   8.524   0.636  10.028
73482SOL    HW122278   8.475   0.641  10.110
73482SOL    HW222279   8.560   0.723  10.016
73483SOL     OW22280   6.139   4.569  12.304
73483SOL    HW122281   6.144   4.656  12.265
73483SOL    HW222282   6.075   4.577  12.374
73484SOL     OW22283   1.485  10.573  14.354
73484SOL    HW122284   1.575  10.601  14.370
73484SOL    HW222285   1.478  10.488  14.398
73485SOL     OW22286   4.112   5.268   1.394
73485SOL    HW122287   4.115   5.244   1.301
73485SOL    HW222288   4.032   5.320   1.403
73486SOL     OW22289   4.033   7.289   3.659
73486SOL    HW122290   4.085   7.297   3.579
73486SOL    HW222291   3.954   7.243   3.632
73487SOL     OW22292   7.395  11.404  11.725
73487SOL    HW122293   7.450  11.425  11.649
73487SOL    HW222294   7.386  11.487  11.772
73488SOL     OW22295  11.909   0.791   0.270
73488SOL    HW122296  11.986   0.756   0.315
73488SOL    HW222297  11.918   0.886   0.279
73489SOL     OW22298   4.381   4.572  13.523
73489SOL    HW122299   4.395   4.484  13.487
73489SOL    HW222300   4.467   4.614  13.518
73490SOL     OW22301  14.085   8.521   2.430
73490SOL    HW122302  14.165   8.574   2.436
73490SOL    HW222303  14.087   8.465   2.507
73491SOL     OW22304  11.337  12.121  10.779
73491SOL    HW122305  11.402  12.170  10.830
73491SOL    HW222306  11.360  12.029  10.792
73492SOL     OW22307  10.294  11.912  14.771
73492SOL    HW122308  10.383  11.887  14.796
73492SOL    HW222309  10.286  12.003  14.798
73493SOL     OW22310   6.737   8.597  13.759
73493SOL    HW122311   6.690   8.674  13.726
73493SOL    HW222312   6.806   8.581  13.695
73494SOL     OW22313   3.183   4.335   6.629
73494SOL    HW122314   3.161   4.242   6.626
73494SOL    HW222315   3.125   4.375   6.565
73495SOL     OW22316  10.345   3.758   0.771
73495SOL    HW122317  10.414   3.747   0.835
73495SOL    HW222318  10.391   3.775   0.688
73496SOL     OW22319  10.735   2.802   2.656
73496SOL    HW122320  10.765   2.799   2.747
73496SOL    HW222321  10.738   2.711   2.627
73497SOL     OW22322   3.090   7.720   0.072
73497SOL    HW122323   3.077   7.678   0.156
73497SOL    HW222324   3.183   7.746   0.073
73498SOL     OW22325   9.981   5.673  11.418
73498SOL    HW122326   9.897   5.629  11.414
73498SOL    HW222327  10.020   5.660  11.331
73499SOL     OW22328   1.283  13.192   0.114
73499SOL    HW122329   1.208  13.212   0.170
73499SOL    HW222330   1.333  13.127   0.163
73500SOL     OW22331   8.396   6.113  14.463
73500SOL    HW122332   8.475   6.160  14.437
73500SOL    HW222333   8.337   6.181  14.494
73501SOL     OW22334   9.745   4.176  13.769
73501SOL    HW122335   9.657   4.195  13.736
73501SOL    HW222336   9.773   4.259  13.809
73502SOL     OW22337  12.064   4.110   8.566
73502SOL    HW122338  12.136   4.070   8.517
73502SOL    HW222339  12.087   4.203   8.570
73503SOL     OW22340  13.762   3.975   0.053
73503SOL    HW122341  13.672   4.007   0.058
73503SOL    HW222342  13.798   3.993   0.140
73504SOL     OW22343   8.153   0.696  14.491
73504SOL    HW122344   8.158   0.777  14.441
73504SOL    HW222345   8.204   0.714  14.570
73505SOL     OW22346   6.563  10.284  10.582
73505SOL    HW122347   6.477  10.297  10.622
73505SOL    HW222348   6.623  10.330  10.641
73506SOL     OW22349  14.427   3.752   6.207
73506SOL    HW122350  14.436   3.845   6.230
73506SOL    HW222351  14.345   3.748   6.158
73507SOL     OW22352   0.625   0.470  11.024
73507SOL    HW122353   0.630   0.565  11.011
73507SOL    HW222354   0.615   0.435  10.935
73508SOL     OW22355   6.040   3.951   4.229
73508SOL    HW122356   5.959   3.953   4.178
73508SOL    HW222357   6.048   4.039   4.266
73509SOL     OW22358   7.658   2.745  10.321
73509SOL    HW122359   7.622   2.810  10.261
73509SOL    HW222360   7.706   2.797  10.386
73510SOL     OW22361   1.991   9.246   1.621
73510SOL    HW122362   1.971   9.321   1.566
73510SOL    HW222363   1.937   9.175   1.585
73511SOL     OW22364  14.164   4.732  11.889
73511SOL    HW122365  14.173   4.637  11.879
73511SOL    HW222366  14.139   4.764  11.803
73512SOL     OW22367   9.432  10.480   2.506
73512SOL    HW122368   9.414  10.568   2.539
73512SOL    HW222369   9.527  10.470   2.514
73513SOL     OW22370  14.382   3.461   3.842
73513SOL    HW122371  14.444   3.392   3.817
73513SOL    HW222372  14.422   3.501   3.919
73514SOL     OW22373   4.360   4.646   8.293
73514SOL    HW122374   4.357   4.617   8.384
73514SOL    HW222375   4.422   4.719   8.293
73515SOL     OW22376  10.486  13.675   9.178
73515SOL    HW122377  10.498  13.618   9.102
73515SOL    HW222378  10.573  13.681   9.217
73516SOL     OW22379   0.620  12.380   8.154
73516SOL    HW122380   0.696  12.329   8.125
73516SOL    HW222381   0.547  12.318   8.152
73517SOL     OW22382  10.611   0.668   4.581
73517SOL    HW122383  10.640   0.711   4.501
73517SOL    HW222384  10.687   0.619   4.612
73518SOL     OW22385   0.379   2.577  11.190
73518SOL    HW122386   0.457   2.627  11.165
73518SOL    HW222387   0.403   2.486  11.173
73519SOL     OW22388  14.666   9.626   0.458
73519SOL    HW122389  14.749   9.613   0.413
73519SOL    HW222390  14.599   9.599   0.395
73520SOL     OW22391   4.006   7.472   0.664
73520SOL    HW122392   4.010   7.477   0.569
73520SOL    HW222393   4.081   7.417   0.688
73521SOL     OW22394  11.814   6.635  13.541
73521SOL    HW122395  11.759   6.673  13.473
73521SOL    HW222396  11.894   6.607  13.495
73522SOL     OW22397  14.279   8.224   1.216
73522SOL    HW122398  14.298   8.136   1.247
73522SOL    HW222399  14.364   8.268   1.217
73523SOL     OW22400   1.915  11.146   4.332
73523SOL    HW122401   1.923  11.079   4.400
73523SOL    HW222402   1.858  11.213   4.371
73524SOL     OW22403  12.483   1.950  10.920
73524SOL    HW122404  12.425   1.903  10.979
73524SOL    HW222405  12.513   2.026  10.971
73525SOL     OW22406   3.424   8.635   4.426
73525SOL    HW122407   3.454   8.706   4.482
73525SOL    HW222408   3.496   8.620   4.364
73526SOL     OW22409   9.729  11.688   3.683
73526SOL    HW122410   9.817  11.653   3.670
73526SOL    HW222411   9.686  11.679   3.598
73527SOL     OW22412   3.852   0.238   6.897
73527SOL    HW122413   3.778   0.255   6.839
73527SOL    HW222414   3.813   0.225   6.983
73528SOL     OW22415  13.127  11.732  11.905
73528SOL    HW122416  13.186  11.744  11.831
73528SOL    HW222417  13.161  11.654  11.950
73529SOL     OW22418   4.290  12.690  11.905
73529SOL    HW122419   4.292  12.673  11.999
73529SOL    HW222420   4.319  12.781  11.897
73530SOL     OW22421  11.402   2.476   5.141
73530SOL    HW122422  11.309   2.499   5.138
73530SOL    HW222423  11.448   2.556   5.114
73531SOL     OW22424   6.524   1.070   9.669
73531SOL    HW122425   6.549   1.157   9.700
73531SOL    HW222426   6.527   1.015   9.747
73532SOL     OW22427   1.437  10.285  10.575
73532SOL    HW122428   1.503  10.340  10.617
73532SOL    HW222429   1.356  10.336  10.579
73533SOL     OW22430   1.665  12.541  12.745
73533SOL    HW122431   1.599  12.495  12.797
73533SOL    HW222432   1.619  12.617  12.709
73534SOL     OW22433  13.088   3.131   2.340
73534SOL    HW122434  13.084   3.036   2.330
73534SOL    HW222435  13.012   3.153   2.394
73535SOL     OW22436   7.956   6.982   5.825
73535SOL    HW122437   7.912   6.967   5.741
73535SOL    HW222438   7.932   7.071   5.849
73536SOL     OW22439  12.094   3.424   3.050
73536SOL    HW122440  12.005   3.392   3.037
73536SOL    HW222441  12.148   3.369   2.993
73537SOL     OW22442   6.826   1.039   0.506
73537SOL    HW122443   6.809   1.118   0.455
73537SOL    HW222444   6.918   1.045   0.530
73538SOL     OW22445   0.432   2.680  13.288
73538SOL    HW122446   0.400   2.723  13.209
73538SOL    HW222447   0.365   2.615  13.309
73539SOL     OW22448   1.087   1.867   2.140
73539SOL    HW122449   1.169   1.831   2.176
73539SOL    HW222450   1.028   1.792   2.137
73540SOL     OW22451   2.661  12.720   5.087
73540SOL    HW122452   2.624  12.713   4.999
73540SOL    HW222453   2.602  12.669   5.142
73541SOL     OW22454   0.274   4.956   8.777
73541SOL    HW122455   0.192   4.906   8.786
73541SOL    HW222456   0.277   4.980   8.684
73542SOL     OW22457   6.417  14.589   5.135
73542SOL    HW122458   6.460  14.664   5.094
73542SOL    HW222459   6.488  14.534   5.166
73543SOL     OW22460   4.496   6.368  12.479
73543SOL    HW122461   4.442   6.327  12.411
73543SOL    HW222462   4.510   6.299  12.544
73544SOL     OW22463   5.117  12.943   1.081
73544SOL    HW122464   5.147  13.009   1.018
73544SOL    HW222465   5.066  12.882   1.029
73545SOL     OW22466   8.123   8.801   8.798
73545SOL    HW122467   8.104   8.779   8.707
73545SOL    HW222468   8.135   8.716   8.841
73546SOL     OW22469   5.546   5.018   6.652
73546SOL    HW122470   5.478   5.030   6.587
73546SOL    HW222471   5.628   5.024   6.603
73547SOL     OW22472   2.409   5.992  13.748
73547SOL    HW122473   2.413   6.000  13.843
73547SOL    HW222474   2.451   5.908  13.729
73548SOL     OW22475   2.259  14.162  10.557
73548SOL    HW122476   2.188  14.226  10.564
73548SOL    HW222477   2.336  14.207  10.590
73549SOL     OW22478  10.184  14.099   5.638
73549SOL    HW122479  10.187  14.134   5.549
73549SOL    HW222480  10.157  14.174   5.692
73550SOL     OW22481  10.066   7.178   9.716
73550SOL    HW122482  10.160   7.186   9.733
73550SOL    HW222483  10.056   7.205   9.624
73551SOL     OW22484   6.153   7.041   1.226
73551SOL    HW122485   6.097   6.969   1.199
73551SOL    HW222486   6.235   7.026   1.179
73552SOL     OW22487   8.932  11.821   3.819
73552SOL    HW122488   8.873  11.826   3.744
73552SOL    HW222489   9.010  11.776   3.785
73553SOL     OW22490   2.047  11.174   8.668
73553SOL    HW122491   2.064  11.217   8.583
73553SOL    HW222492   2.040  11.247   8.730
73554SOL     OW22493   5.651   8.471   3.063
73554SOL    HW122494   5.591   8.536   3.026
73554SOL    HW222495   5.736   8.514   3.062
73555SOL     OW22496   7.979   4.440  14.014
73555SOL    HW122497   7.897   4.403  13.982
73555SOL    HW222498   7.959   4.532  14.031
73556SOL     OW22499   1.379   1.941   0.515
73556SOL    HW122500   1.387   1.847   0.533
73556SOL    HW222501   1.411   1.950   0.425
73557SOL     OW22502   5.144   6.721  11.972
73557SOL    HW122503   5.088   6.729  12.049
73557SOL    HW222504   5.151   6.811  11.938
73558SOL     OW22505   4.989   4.402  10.181
73558SOL    HW122506   5.060   4.388  10.118
73558SOL    HW222507   4.929   4.463  10.137
73559SOL     OW22508   8.381  14.724   0.380
73559SOL    HW122509   8.448  14.674   0.427
73559SOL    HW222510   8.352  14.790   0.443
73560SOL     OW22511   1.102  14.543   1.420
73560SOL    HW122512   1.107  14.638   1.427
73560SOL    HW222513   1.172  14.511   1.477
73561SOL     OW22514  12.527   4.012   3.791
73561SOL    HW122515  12.569   4.071   3.729
73561SOL    HW222516  12.526   3.928   3.747
73562SOL     OW22517   0.782   1.945  12.824
73562SOL    HW122518   0.832   1.909  12.751
73562SOL    HW222519   0.714   1.998  12.783
73563SOL     OW22520   8.801  10.065  14.214
73563SOL    HW122521   8.765   9.998  14.157
73563SOL    HW222522   8.726  10.121  14.236
73564SOL     OW22523   0.987   4.178  13.317
73564SOL    HW122524   1.029   4.256  13.355
73564SOL    HW222525   1.007   4.184  13.224
73565SOL     OW22526   9.131   5.542   7.089
73565SOL    HW122527   9.180   5.527   7.008
73565SOL    HW222528   9.121   5.456   7.129
73566SOL     OW22529   9.558  11.349  10.707
73566SOL    HW122530   9.624  11.360  10.776
73566SOL    HW222531   9.517  11.435  10.698
73567SOL     OW22532   9.153   0.132   1.478
73567SOL    HW122533   9.181   0.065   1.416
73567SOL    HW222534   9.232   0.155   1.527
73568SOL     OW22535   9.467   0.736  13.303
73568SOL    HW122536   9.466   0.827  13.331
73568SOL    HW222537   9.536   0.732  13.236
73569SOL     OW22538  14.427   3.341   0.581
73569SOL    HW122539  14.520   3.356   0.565
73569SOL    HW222540  14.391   3.428   0.600
73570SOL     OW22541   2.974   1.912  12.254
73570SOL    HW122542   2.932   1.833  12.220
73570SOL    HW222543   2.958   1.911  12.348
73571SOL     OW22544   4.292  13.977   4.462
73571SOL    HW122545   4.327  14.005   4.378
73571SOL    HW222546   4.247  13.895   4.443
73572SOL     OW22547   7.898  13.714  10.772
73572SOL    HW122548   7.871  13.757  10.853
73572SOL    HW222549   7.864  13.625  10.780
73573SOL     OW22550   8.943   0.178   2.029
73573SOL    HW122551   9.026   0.187   2.075
73573SOL    HW222552   8.880   0.155   2.097
73574SOL     OW22553  14.254   0.275   6.150
73574SOL    HW122554  14.328   0.217   6.168
73574SOL    HW222555  14.279   0.324   6.072
73575SOL     OW22556   1.510   3.756   2.198
73575SOL    HW122557   1.558   3.695   2.253
73575SOL    HW222558   1.501   3.711   2.114
73576SOL     OW22559   2.266  13.467  14.191
73576SOL    HW122560   2.351  13.424  14.177
73576SOL    HW222561   2.205  13.394  14.204
73577SOL     OW22562   0.675  12.776   4.542
73577SOL    HW122563   0.664  12.834   4.617
73577SOL    HW222564   0.743  12.818   4.489
73578SOL     OW22565   7.144   1.455   7.889
73578SOL    HW122566   7.145   1.545   7.857
73578SOL    HW222567   7.204   1.455   7.964
73579SOL     OW22568  10.865  13.667  12.059
73579SOL    HW122569  10.859  13.685  11.965
73579SOL    HW222570  10.799  13.600  12.075
73580SOL     OW22571   4.238   6.131   8.149
73580SOL    HW122572   4.226   6.041   8.177
73580SOL    HW222573   4.215   6.130   8.056
73581SOL     OW22574   0.867  14.768   2.233
73581SOL    HW122575   0.896  14.859   2.245
73581SOL    HW222576   0.907  14.741   2.151
73582SOL     OW22577  11.425  11.183  12.058
73582SOL    HW122578  11.336  11.196  12.025
73582SOL    HW222579  11.415  11.119  12.129
73583SOL     OW22580   2.873  10.575  12.278
73583SOL    HW122581   2.943  10.566  12.342
73583SOL    HW222582   2.798  10.607  12.329
73584SOL     OW22583   9.027   8.505   2.118
73584SOL    HW122584   9.059   8.415   2.110
73584SOL    HW222585   9.105   8.555   2.144
73585SOL     OW22586   4.851   1.775  14.434
73585SOL    HW122587   4.836   1.747  14.524
73585SOL    HW222588   4.812   1.705  14.381
73586SOL     OW22589  10.640   1.121   0.751
73586SOL    HW122590  10.641   1.137   0.656
73586SOL    HW222591  10.699   1.047   0.763
73587SOL     OW22592   2.866   3.221   3.103
73587SOL    HW122593   2.844   3.129   3.117
73587SOL    HW222594   2.961   3.221   3.089
73588SOL     OW22595   2.731   1.080  11.980
73588SOL    HW122596   2.654   1.054  12.030
73588SOL    HW222597   2.753   1.003  11.927
73589SOL     OW22598   7.808   5.593   7.355
73589SOL    HW122599   7.798   5.559   7.266
73589SOL    HW222600   7.897   5.566   7.381
73590SOL     OW22601  12.394   7.605   2.123
73590SOL    HW122602  12.403   7.694   2.088
73590SOL    HW222603  12.418   7.613   2.215
73591SOL     OW22604  12.493   3.059  10.682
73591SOL    HW122605  12.447   3.128  10.635
73591SOL    HW222606  12.538   3.010  10.614
73592SOL     OW22607   9.298   3.150   5.899
73592SOL    HW122608   9.325   3.210   5.829
73592SOL    HW222609   9.364   3.161   5.967
73593SOL     OW22610   5.900   3.863  13.095
73593SOL    HW122611   5.910   3.933  13.160
73593SOL    HW222612   5.973   3.876  13.035
73594SOL     OW22613   9.267   5.634   2.480
73594SOL    HW122614   9.175   5.619   2.499
73594SOL    HW222615   9.296   5.553   2.438
73595SOL     OW22616   4.306   6.109   1.955
73595SOL    HW122617   4.318   6.018   1.930
73595SOL    HW222618   4.388   6.132   2.000
73596SOL     OW22619   7.100   8.749  14.704
73596SOL    HW122620   7.186   8.779  14.675
73596SOL    HW222621   7.048   8.829  14.713
73597SOL     OW22622   9.418   3.498   0.020
73597SOL    HW122623   9.462   3.416  14.878
73597SOL    HW222624   9.367   3.521  14.825
73598SOL     OW22625   2.861   6.658   2.529
73598SOL    HW122626   2.781   6.606   2.540
73598SOL    HW222627   2.916   6.632   2.603
73599SOL     OW22628  14.678   5.752   9.106
73599SOL    HW122629  14.716   5.737   9.193
73599SOL    HW222630  14.612   5.820   9.120
73600SOL     OW22631   5.115   2.218   1.103
73600SOL    HW122632   5.181   2.170   1.052
73600SOL    HW222633   5.125   2.309   1.075
73601SOL     OW22634  11.161   1.730   7.941
73601SOL    HW122635  11.185   1.711   7.851
73601SOL    HW222636  11.170   1.646   7.986
73602SOL     OW22637   0.898   4.720  12.790
73602SOL    HW122638   0.842   4.643  12.789
73602SOL    HW222639   0.861   4.778  12.724
73603SOL     OW22640   7.269  14.198   0.205
73603SOL    HW122641   7.262  14.204   0.300
73603SOL    HW222642   7.330  14.126   0.191
73604SOL     OW22643   9.972   9.898   5.069
73604SOL    HW122644   9.953   9.978   5.119
73604SOL    HW222645   9.889   9.877   5.025
73605SOL     OW22646  12.403  14.535   5.166
73605SOL    HW122647  12.487  14.578   5.182
73605SOL    HW222648  12.405  14.456   5.220
73606SOL     OW22649   1.248  11.131   2.945
73606SOL    HW122650   1.179  11.153   2.882
73606SOL    HW222651   1.324  11.180   2.916
73607SOL     OW22652   2.238   5.980   0.679
73607SOL    HW122653   2.289   6.013   0.605
73607SOL    HW222654   2.152   5.961   0.643
73608SOL     OW22655   4.337   9.989   4.712
73608SOL    HW122656   4.323  10.015   4.621
73608SOL    HW222657   4.431   9.970   4.718
73609SOL     OW22658   7.931  11.179   4.458
73609SOL    HW122659   7.944  11.093   4.417
73609SOL    HW222660   7.839  11.200   4.440
73610SOL     OW22661   6.246   0.082  10.147
73610SOL    HW122662   6.193   0.006  10.120
73610SOL    HW222663   6.296   0.050  10.222
73611SOL     OW22664  14.055   0.164  11.410
73611SOL    HW122665  14.005   0.244  11.427
73611SOL    HW222666  13.989   0.094  11.411
73612SOL     OW22667  10.385  11.930   6.784
73612SOL    HW122668  10.294  11.912   6.763
73612SOL    HW222669  10.381  11.984   6.864
73613SOL     OW22670   4.078  11.715  10.180
73613SOL    HW122671   3.989  11.696  10.208
73613SOL    HW222672   4.125  11.633  10.193
73614SOL     OW22673   2.498  14.401   6.445
73614SOL    HW122674   2.571  14.458   6.420
73614SOL    HW222675   2.531  14.353   6.521
73615SOL     OW22676  11.839  11.520  10.665
73615SOL    HW122677  11.779  11.529  10.738
73615SOL    HW222678  11.904  11.589  10.679
73616SOL     OW22679   7.462  12.488   7.326
73616SOL    HW122680   7.515  12.463   7.402
73616SOL    HW222681   7.526  12.511   7.258
73617SOL     OW22682  11.580   3.123   9.950
73617SOL    HW122683  11.618   3.153   9.867
73617SOL    HW222684  11.606   3.189  10.014
73618SOL     OW22685   9.030  11.447  10.125
73618SOL    HW122686   8.939  11.432  10.151
73618SOL    HW222687   9.035  11.413  10.035
73619SOL     OW22688   2.067   9.122  11.238
73619SOL    HW122689   2.045   9.140  11.146
73619SOL    HW222690   2.018   9.187  11.288
73620SOL     OW22691  10.930   1.466   8.439
73620SOL    HW122692  10.881   1.472   8.521
73620SOL    HW222693  11.020   1.446   8.467
73621SOL     OW22694   4.333   8.029  12.922
73621SOL    HW122695   4.322   8.089  12.848
73621SOL    HW222696   4.308   7.943  12.888
73622SOL     OW22697  11.476  11.526   3.672
73622SOL    HW122698  11.541  11.554   3.736
73622SOL    HW222699  11.470  11.599   3.610
73623SOL     OW22700   6.300   7.495   2.906
73623SOL    HW122701   6.255   7.443   2.972
73623SOL    HW222702   6.266   7.583   2.918
73624SOL     OW22703  14.523  14.873   5.585
73624SOL    HW122704  14.486   0.067   5.541
73624SOL    HW222705  14.459  14.803   5.571
73625SOL     OW22706  12.676  13.897  11.512
73625SOL    HW122707  12.702  13.810  11.480
73625SOL    HW222708  12.592  13.883  11.555
73626SOL     OW22709  14.559   0.413   8.028
73626SOL    HW122710  14.528   0.503   8.038
73626SOL    HW222711  14.653   0.422   8.011
73627SOL     OW22712   7.391   6.217   6.775
73627SOL    HW122713   7.367   6.306   6.749
73627SOL    HW222714   7.466   6.229   6.835
73628SOL     OW22715  14.475   7.417  10.106
73628SOL    HW122716  14.394   7.394  10.151
73628SOL    HW222717  14.454   7.409  10.013
73629SOL     OW22718  10.844  10.091   1.479
73629SOL    HW122719  10.825  10.103   1.386
73629SOL    HW222720  10.907  10.160   1.499
73630SOL     OW22721  12.360  12.343  13.544
73630SOL    HW122722  12.360  12.434  13.573
73630SOL    HW222723  12.449  12.327  13.513
73631SOL     OW22724  13.187   6.965   2.667
73631SOL    HW122725  13.261   7.000   2.715
73631SOL    HW222726  13.220   6.950   2.578
73632SOL     OW22727   7.367   7.855   1.508
73632SOL    HW122728   7.453   7.857   1.550
73632SOL    HW222729   7.375   7.787   1.441
73633SOL     OW22730   8.237   5.061   8.133
73633SOL    HW122731   8.245   5.128   8.065
73633SOL    HW222732   8.273   5.103   8.211
73634SOL     OW22733  14.661  12.567   8.868
73634SOL    HW122734  14.740  12.616   8.892
73634SOL    HW222735  14.591  12.632   8.868
73635SOL     OW22736   4.717   1.878  13.098
73635SOL    HW122737   4.653   1.887  13.169
73635SOL    HW222738   4.801   1.900  13.139
73636SOL     OW22739  11.621   0.490   3.989
73636SOL    HW122740  11.530   0.470   3.966
73636SOL    HW222741  11.671   0.416   3.953
73637SOL     OW22742   5.106   8.657   7.035
73637SOL    HW122743   5.071   8.731   6.986
73637SOL    HW222744   5.035   8.593   7.037
73638SOL     OW22745   9.212   9.820   3.071
73638SOL    HW122746   9.123   9.830   3.105
73638SOL    HW222747   9.199   9.800   2.978
73639SOL     OW22748   2.706   6.112   5.445
73639SOL    HW122749   2.621   6.090   5.485
73639SOL    HW222750   2.701   6.072   5.358
73640SOL     OW22751   9.918   0.678   3.653
73640SOL    HW122752   9.909   0.719   3.568
73640SOL    HW222753   9.964   0.595   3.635
73641SOL     OW22754   9.726  10.779  12.755
73641SOL    HW122755   9.658  10.770  12.689
73641SOL    HW222756   9.679  10.774  12.839
73642SOL     OW22757   5.621  12.854   2.038
73642SOL    HW122758   5.587  12.906   2.111
73642SOL    HW222759   5.604  12.763   2.065
73643SOL     OW22760   3.530   6.896  13.734
73643SOL    HW122761   3.607   6.839  13.729
73643SOL    HW222762   3.504   6.893  13.827
73644SOL     OW22763   4.817   6.810   4.560
73644SOL    HW122764   4.839   6.812   4.654
73644SOL    HW222765   4.862   6.733   4.527
73645SOL     OW22766  10.311   1.020  12.373
73645SOL    HW122767  10.216   1.020  12.385
73645SOL    HW222768  10.344   0.954  12.433
73646SOL     OW22769   2.462   2.690  13.214
73646SOL    HW122770   2.413   2.622  13.260
73646SOL    HW222771   2.397   2.730  13.155
73647SOL     OW22772   2.437   8.564  11.093
73647SOL    HW122773   2.414   8.474  11.071
73647SOL    HW222774   2.395   8.618  11.026
73648SOL     OW22775  10.348  14.638   2.736
73648SOL    HW122776  10.342  14.709   2.673
73648SOL    HW222777  10.319  14.561   2.688
73649SOL     OW22778   2.707   0.184  10.315
73649SOL    HW122779   2.700   0.089  10.328
73649SOL    HW222780   2.617   0.215  10.318
73650SOL     OW22781   5.199  14.761   6.893
73650SOL    HW122782   5.110  14.727   6.879
73650SOL    HW222783   5.216  14.743   6.986
73651SOL     OW22784   8.036   8.031  14.055
73651SOL    HW122785   8.003   8.102  13.999
73651SOL    HW222786   7.969   8.020  14.122
73652SOL     OW22787  13.992  11.989  10.966
73652SOL    HW122788  14.064  12.037  10.926
73652SOL    HW222789  14.033  11.915  11.011
73653SOL     OW22790   8.252   2.049   8.640
73653SOL    HW122791   8.215   2.133   8.669
73653SOL    HW222792   8.346   2.064   8.641
73654SOL     OW22793  11.782  11.189   1.629
73654SOL    HW122794  11.793  11.171   1.722
73654SOL    HW222795  11.866  11.224   1.601
73655SOL     OW22796  13.304  12.639   3.412
73655SOL    HW122797  13.303  12.544   3.427
73655SOL    HW222798  13.303  12.677   3.499
73656SOL     OW22799   2.154  14.827   7.302
73656SOL    HW122800   2.184   0.036   7.293
73656SOL    HW222801   2.133  14.801   7.212
73657SOL     OW22802  14.499   0.659  14.693
73657SOL    HW122803  14.473   0.733  14.746
73657SOL    HW222804  14.594   0.668  14.683
73658SOL     OW22805  11.691   4.078   0.204
73658SOL    HW122806  11.678   4.000   0.151
73658SOL    HW222807  11.638   4.063   0.283
73659SOL     OW22808   9.981   3.244   7.664
73659SOL    HW122809   9.885   3.250   7.659
73659SOL    HW222810   9.999   3.220   7.755
73660SOL     OW22811   2.860   6.814  14.438
73660SOL    HW122812   2.796   6.822  14.508
73660SOL    HW222813   2.846   6.892  14.383
73661SOL     OW22814   2.766   4.609  13.705
73661SOL    HW122815   2.724   4.636  13.786
73661SOL    HW222816   2.858   4.596  13.729
73662SOL     OW22817  12.333   2.241   9.794
73662SOL    HW122818  12.352   2.222   9.702
73662SOL    HW222819  12.419   2.255   9.834
73663SOL     OW22820  13.709   5.665   9.252
73663SOL    HW122821  13.646   5.703   9.314
73663SOL    HW222822  13.769   5.615   9.307
73664SOL     OW22823   1.602  13.052   3.477
73664SOL    HW122824   1.629  13.117   3.541
73664SOL    HW222825   1.675  13.047   3.416
73665SOL     OW22826   6.447   8.900  11.671
73665SOL    HW122827   6.447   8.995  11.667
73665SOL    HW222828   6.380   8.872  11.609
73666SOL     OW22829   2.201  11.197   9.651
73666SOL    HW122830   2.224  11.168   9.563
73666SOL    HW222831   2.252  11.278   9.663
73667SOL     OW22832  12.714   2.026   3.265
73667SOL    HW122833  12.701   2.117   3.236
73667SOL    HW222834  12.636   1.980   3.236
73668SOL     OW22835  10.084  12.828   1.087
73668SOL    HW122836  10.012  12.772   1.057
73668SOL    HW222837  10.159  12.801   1.034
73669SOL     OW22838   4.136  13.232  11.028
73669SOL    HW122839   4.055  13.249  10.980
73669SOL    HW222840   4.110  13.230  11.120
73670SOL     OW22841   0.149   6.231  11.017
73670SOL    HW122842   0.178   6.229  11.108
73670SOL    HW222843   0.191   6.308  10.980
73671SOL     OW22844   2.439   3.231   5.113
73671SOL    HW122845   2.534   3.223   5.121
73671SOL    HW222846   2.420   3.322   5.135
73672SOL     OW22847   6.370  12.692  14.582
73672SOL    HW122848   6.350  12.785  14.596
73672SOL    HW222849   6.397  12.688  14.490
73673SOL     OW22850   8.665  12.225   2.652
73673SOL    HW122851   8.666  12.188   2.564
73673SOL    HW222852   8.576  12.209   2.684
73674SOL     OW22853   6.776   3.414   2.238
73674SOL    HW122854   6.809   3.449   2.155
73674SOL    HW222855   6.845   3.435   2.302
73675SOL     OW22856   1.023  14.009   9.133
73675SOL    HW122857   1.080  14.083   9.112
73675SOL    HW222858   1.051  13.981   9.221
73676SOL     OW22859  13.028   4.976  14.195
73676SOL    HW122860  13.017   4.910  14.126
73676SOL    HW222861  13.119   4.966  14.224
73677SOL     OW22862   5.286   4.259  11.819
73677SOL    HW122863   5.267   4.337  11.767
73677SOL    HW222864   5.361   4.219  11.775
73678SOL     OW22865   2.564   5.395   3.451
73678SOL    HW122866   2.523   5.309   3.456
73678SOL    HW222867   2.658   5.377   3.453
73679SOL     OW22868   7.549  14.351  12.121
73679SOL    HW122869   7.535  14.337  12.028
73679SOL    HW222870   7.462  14.370  12.156
73680SOL     OW22871   1.159  13.453   1.111
73680SOL    HW122872   1.094  13.445   1.180
73680SOL    HW222873   1.204  13.369   1.110
73681SOL     OW22874  13.852   1.912   5.876
73681SOL    HW122875  13.881   2.001   5.894
73681SOL    HW222876  13.757   1.915   5.886
73682SOL     OW22877   6.045   7.104   8.808
73682SOL    HW122878   5.971   7.044   8.822
73682SOL    HW222879   6.121   7.046   8.802
73683SOL     OW22880   7.001   2.473   2.044
73683SOL    HW122881   6.908   2.471   2.068
73683SOL    HW222882   7.001   2.503   1.953
73684SOL     OW22883  10.165   9.905   1.401
73684SOL    HW122884  10.260   9.908   1.409
73684SOL    HW222885  10.148   9.917   1.308
73685SOL     OW22886   0.896  11.121   3.050
73685SOL    HW122887   0.903  11.204   3.097
73685SOL    HW222888   0.981  11.110   3.008
73686SOL     OW22889   4.716  11.686  13.358
73686SOL    HW122890   4.794  11.719  13.402
73686SOL    HW222891   4.643  11.721  13.409
73687SOL     OW22892  14.428   9.385   5.719
73687SOL    HW122893  14.352   9.328   5.703
73687SOL    HW222894  14.397   9.473   5.695
73688SOL     OW22895  11.070   6.605   3.414
73688SOL    HW122896  11.011   6.668   3.373
73688SOL    HW222897  11.149   6.608   3.361
73689SOL     OW22898  13.312  11.813   6.060
73689SOL    HW122899  13.284  11.721   6.067
73689SOL    HW222900  13.391  11.818   6.113
73690SOL     OW22901   3.222   5.095   9.642
73690SOL    HW122902   3.161   5.151   9.595
73690SOL    HW222903   3.201   5.006   9.613
73691SOL     OW22904  12.391   0.400   0.617
73691SOL    HW122905  12.336   0.452   0.674
73691SOL    HW222906  12.420   0.461   0.549
73692SOL     OW22907  10.562   5.064   5.770
73692SOL    HW122908  10.571   5.032   5.680
73692SOL    HW222909  10.587   4.989   5.824
73693SOL     OW22910  11.090   5.185   8.502
73693SOL    HW122911  11.078   5.104   8.451
73693SOL    HW222912  11.119   5.249   8.437
73694SOL     OW22913  14.036   3.288   0.572
73694SOL    HW122914  13.995   3.373   0.584
73694SOL    HW222915  13.981   3.227   0.622
73695SOL     OW22916   1.598  14.716  12.198
73695SOL    HW122917   1.539  14.762  12.139
73695SOL    HW222918   1.568  14.741  12.286
73696SOL     OW22919   8.704   0.522   3.863
73696SOL    HW122920   8.613   0.549   3.855
73696SOL    HW222921   8.720   0.520   3.957
73697SOL     OW22922   9.256   0.063   6.112
73697SOL    HW122923   9.249   0.042   6.205
73697SOL    HW222924   9.172   0.101   6.089
73698SOL     OW22925  13.089   3.600   1.417
73698SOL    HW122926  13.096   3.608   1.322
73698SOL    HW222927  13.146   3.669   1.451
73699SOL     OW22928  14.085   3.735   8.648
73699SOL    HW122929  14.175   3.767   8.657
73699SOL    HW222930  14.031   3.814   8.647
73700SOL     OW22931   6.862  13.414  14.695
73700SOL    HW122932   6.858  13.319  14.705
73700SOL    HW222933   6.921  13.443  14.765
73701SOL     OW22934  11.375  14.167   1.266
73701SOL    HW122935  11.456  14.157   1.316
73701SOL    HW222936  11.341  14.078   1.258
73702SOL     OW22937   0.892   2.177  13.882
73702SOL    HW122938   0.838   2.100  13.863
73702SOL    HW222939   0.888   2.230  13.803
73703SOL     OW22940   3.232   9.044   2.390
73703SOL    HW122941   3.201   9.041   2.299
73703SOL    HW222942   3.220   8.955   2.423
73704SOL     OW22943  10.019  10.687   3.256
73704SOL    HW122944   9.948  10.642   3.211
73704SOL    HW222945  10.098  10.640   3.230
73705SOL     OW22946  14.624   1.845   1.587
73705SOL    HW122947  14.545   1.802   1.619
73705SOL    HW222948  14.597   1.937   1.574
73706SOL     OW22949   9.449   1.421   8.738
73706SOL    HW122950   9.419   1.381   8.819
73706SOL    HW222951   9.475   1.347   8.683
73707SOL     OW22952   9.832   5.133   9.752
73707SOL    HW122953   9.783   5.052   9.765
73707SOL    HW222954   9.778   5.186   9.694
73708SOL     OW22955   0.214  10.382  11.174
73708SOL    HW122956   0.182  10.422  11.255
73708SOL    HW222957   0.155  10.414  11.106
73709SOL     OW22958   9.094  10.254   5.744
73709SOL    HW122959   9.117  10.165   5.715
73709SOL    HW222960   9.156  10.274   5.813
73710SOL     OW22961  10.115  12.199   5.308
73710SOL    HW122962  10.056  12.250   5.365
73710SOL    HW222963  10.168  12.148   5.369
73711SOL     OW22964   0.415   0.014  13.343
73711SOL    HW122965   0.370  14.833  13.287
73711SOL    HW222966   0.484   0.050  13.287
73712SOL     OW22967   7.536  11.098  12.757
73712SOL    HW122968   7.464  11.125  12.700
73712SOL    HW222969   7.614  11.104  12.702
73713SOL     OW22970   3.249  13.605   1.521
73713SOL    HW122971   3.205  13.674   1.571
73713SOL    HW222972   3.240  13.632   1.430
73714SOL     OW22973   6.362   2.805  13.283
73714SOL    HW122974   6.422   2.740  13.246
73714SOL    HW222975   6.410   2.887  13.277
73715SOL     OW22976   7.971  10.005   4.213
73715SOL    HW122977   7.916   9.971   4.143
73715SOL    HW222978   7.921   9.992   4.293
73716SOL     OW22979  10.769   0.881  14.671
73716SOL    HW122980  10.810   0.940  14.607
73716SOL    HW222981  10.718   0.938  14.728
73717SOL     OW22982  14.386   7.075   1.762
73717SOL    HW122983  14.314   7.024   1.725
73717SOL    HW222984  14.349   7.161   1.778
73718SOL     OW22985  11.394   5.581   2.941
73718SOL    HW122986  11.414   5.640   3.014
73718SOL    HW222987  11.298   5.574   2.941
73719SOL     OW22988   5.308   4.570   3.886
73719SOL    HW122989   5.295   4.557   3.792
73719SOL    HW222990   5.225   4.604   3.918
73720SOL     OW22991   3.052   4.049   7.523
73720SOL    HW122992   3.057   4.116   7.455
73720SOL    HW222993   3.127   4.067   7.580
73721SOL     OW22994   5.684  10.187   7.902
73721SOL    HW122995   5.679  10.222   7.813
73721SOL    HW222996   5.613  10.124   7.908
73722SOL     OW22997   8.144  11.173   5.373
73722SOL    HW122998   8.099  11.142   5.451
73722SOL    HW222999   8.075  11.204   5.315
73723SOL     OW23000   0.334  11.547  14.345
73723SOL    HW123001   0.391  11.470  14.347
73723SOL    HW223002   0.377  11.610  14.403
73724SOL     OW23003   5.230   4.123   7.707
73724SOL    HW123004   5.289   4.068   7.655
73724SOL    HW223005   5.193   4.184   7.643
73725SOL     OW23006  11.553  13.707   8.055
73725SOL    HW123007  11.624  13.651   8.025
73725SOL    HW223008  11.530  13.673   8.141
73726SOL     OW23009   0.413   1.129   6.696
73726SOL    HW123010   0.472   1.143   6.771
73726SOL    HW223011   0.471   1.098   6.626
73727SOL     OW23012  10.276   9.086  10.746
73727SOL    HW123013  10.278   9.038  10.829
73727SOL    HW223014  10.203   9.147  10.756
73728SOL     OW23015  10.963  11.858  12.430
73728SOL    HW123016  10.909  11.899  12.498
73728SOL    HW223017  10.901  11.817  12.371
73729SOL     OW23018  13.719   2.676   3.725
73729SOL    HW123019  13.715   2.749   3.662
73729SOL    HW223020  13.647   2.694   3.786
73730SOL     OW23021  11.019   3.126   6.883
73730SOL    HW123022  10.981   3.214   6.885
73730SOL    HW223023  11.012   3.095   6.974
73731SOL     OW23024  14.238   2.489   3.481
73731SOL    HW123025  14.145   2.502   3.461
73731SOL    HW223026  14.256   2.399   3.454
73732SOL     OW23027  11.929   1.103   0.084
73732SOL    HW123028  11.883   1.123   0.165
73732SOL    HW223029  11.860   1.103   0.017
73733SOL     OW23030   4.247   0.417  11.841
73733SOL    HW123031   4.231   0.507  11.813
73733SOL    HW223032   4.282   0.373  11.762
73734SOL     OW23033  14.620  10.745   1.452
73734SOL    HW123034  14.632  10.814   1.388
73734SOL    HW223035  14.619  10.790   1.536
73735SOL     OW23036  12.355   6.942  11.426
73735SOL    HW123037  12.291   6.940  11.497
73735SOL    HW223038  12.335   7.022  11.378
73736SOL     OW23039  13.541  12.373   9.618
73736SOL    HW123040  13.556  12.418   9.701
73736SOL    HW223041  13.586  12.290   9.627
73737SOL     OW23042   9.554   2.445  10.949
73737SOL    HW123043   9.574   2.523  10.898
73737SOL    HW223044   9.531   2.379  10.884
73738SOL     OW23045  13.877  10.547   2.258
73738SOL    HW123046  13.936  10.622   2.257
73738SOL    HW223047  13.791  10.583   2.277
73739SOL     OW23048   5.900   8.958   7.351
73739SOL    HW123049   5.861   8.873   7.373
73739SOL    HW223050   5.991   8.950   7.379
73740SOL     OW23051  11.229   6.042   2.559
73740SOL    HW123052  11.317   6.076   2.575
73740SOL    HW223053  11.187   6.111   2.506
73741SOL     OW23054   8.729  12.106   4.272
73741SOL    HW123055   8.794  12.037   4.278
73741SOL    HW223056   8.756  12.170   4.339
73742SOL     OW23057   7.680   3.302   5.352
73742SOL    HW123058   7.712   3.369   5.412
73742SOL    HW223059   7.694   3.219   5.399
73743SOL     OW23060   9.355  13.959   6.720
73743SOL    HW123061   9.442  13.998   6.731
73743SOL    HW223062   9.370  13.865   6.727
73744SOL     OW23063   2.386  11.727   7.307
73744SOL    HW123064   2.441  11.804   7.291
73744SOL    HW223065   2.424  11.686   7.385
73745SOL     OW23066  11.609  10.407   5.479
73745SOL    HW123067  11.660  10.354   5.540
73745SOL    HW223068  11.565  10.344   5.423
73746SOL     OW23069   6.691   8.607   3.876
73746SOL    HW123070   6.695   8.650   3.790
73746SOL    HW223071   6.727   8.519   3.860
73747SOL     OW23072   6.963  10.988   4.864
73747SOL    HW123073   6.964  10.942   4.948
73747SOL    HW223074   7.052  10.978   4.829
73748SOL     OW23075  14.434   7.270   7.886
73748SOL    HW123076  14.431   7.179   7.856
73748SOL    HW223077  14.377   7.272   7.963
73749SOL     OW23078   5.506  10.016  13.125
73749SOL    HW123079   5.448  10.085  13.159
73749SOL    HW223080   5.450   9.939  13.117
73750SOL     OW23081   1.169   9.182   7.583
73750SOL    HW123082   1.157   9.136   7.665
73750SOL    HW223083   1.159   9.115   7.515
73751SOL     OW23084  14.434   8.119  13.931
73751SOL    HW123085  14.422   8.142  13.839
73751SOL    HW223086  14.528   8.100  13.939
73752SOL     OW23087   1.397   7.667  11.568
73752SOL    HW123088   1.432   7.612  11.637
73752SOL    HW223089   1.304   7.678  11.590
73753SOL     OW23090   5.637   9.036   5.163
73753SOL    HW123091   5.587   8.986   5.099
73753SOL    HW223092   5.729   9.015   5.143
73754SOL     OW23093   1.288  13.407  12.602
73754SOL    HW123094   1.296  13.326  12.551
73754SOL    HW223095   1.290  13.477  12.536
73755SOL     OW23096  14.399  11.075   9.379
73755SOL    HW123097  14.420  11.080   9.286
73755SOL    HW223098  14.441  10.995   9.409
73756SOL     OW23099   4.199   7.893  12.688
73756SOL    HW123100   4.163   7.970  12.644
73756SOL    HW223101   4.201   7.825  12.621
73757SOL     OW23102  13.584  13.216   6.549
73757SOL    HW123103  13.539  13.137   6.578
73757SOL    HW223104  13.526  13.253   6.482
73758SOL     OW23105  10.697  12.100   8.731
73758SOL    HW123106  10.623  12.150   8.765
73758SOL    HW223107  10.716  12.036   8.800
73759SOL     OW23108   7.903  10.958   1.703
73759SOL    HW123109   7.938  10.907   1.776
73759SOL    HW223110   7.907  11.049   1.733
73760SOL     OW23111  10.535   3.599  11.540
73760SOL    HW123112  10.466   3.605  11.474
73760SOL    HW223113  10.612   3.637  11.497
73761SOL     OW23114  12.006  10.807  13.527
73761SOL    HW123115  12.056  10.889  13.523
73761SOL    HW223116  11.981  10.790  13.436
73762SOL     OW23117   1.004   6.884  12.798
73762SOL    HW123118   0.965   6.961  12.840
73762SOL    HW223119   0.978   6.891  12.706
73763SOL     OW23120   8.762   1.871   7.773
73763SOL    HW123121   8.733   1.920   7.851
73763SOL    HW223122   8.725   1.920   7.700
73764SOL     OW23123  11.413  13.034  13.336
73764SOL    HW123124  11.470  13.029  13.412
73764SOL    HW223125  11.340  12.976  13.356
73765SOL     OW23126   9.178  13.828   0.175
73765SOL    HW123127   9.145  13.918   0.185
73765SOL    HW223128   9.211  13.806   0.262
73766SOL     OW23129  11.026  14.354   3.405
73766SOL    HW123130  11.086  14.378   3.334
73766SOL    HW223131  10.940  14.347   3.363
73767SOL     OW23132   0.897   6.087   1.741
73767SOL    HW123133   0.951   6.116   1.668
73767SOL    HW223134   0.810   6.073   1.702
73768SOL     OW23135  14.120   2.721   5.717
73768SOL    HW123136  14.182   2.793   5.707
73768SOL    HW223137  14.111   2.710   5.812
73769SOL     OW23138  11.897  11.054   6.194
73769SOL    HW123139  11.981  11.086   6.227
73769SOL    HW223140  11.917  11.022   6.106
73770SOL     OW23141   4.451   2.254   9.978
73770SOL    HW123142   4.507   2.212  10.043
73770SOL    HW223143   4.498   2.242   9.895
73771SOL     OW23144  12.749  11.211  11.815
73771SOL    HW123145  12.722  11.135  11.763
73771SOL    HW223146  12.706  11.199  11.899
73772SOL     OW23147   3.556  11.560   4.916
73772SOL    HW123148   3.495  11.487   4.907
73772SOL    HW223149   3.503  11.630   4.954
73773SOL     OW23150   6.360   9.229   4.017
73773SOL    HW123151   6.445   9.240   3.975
73773SOL    HW223152   6.309   9.177   3.954
73774SOL     OW23153   3.246  12.423   4.974
73774SOL    HW123154   3.172  12.424   4.913
73774SOL    HW223155   3.206  12.422   5.061
73775SOL     OW23156   6.603   5.539   0.425
73775SOL    HW123157   6.572   5.535   0.516
73775SOL    HW223158   6.604   5.632   0.404
73776SOL     OW23159   3.055   9.956   1.393
73776SOL    HW123160   3.111  10.021   1.435
73776SOL    HW223161   3.098   9.872   1.410
73777SOL     OW23162   1.239   0.091   2.753
73777SOL    HW123163   1.154   0.127   2.781
73777SOL    HW223164   1.249   0.011   2.805
73778SOL     OW23165   1.238   0.276   5.791
73778SOL    HW123166   1.216   0.315   5.876
73778SOL    HW223167   1.219   0.344   5.727
73779SOL     OW23168  13.793   6.625   5.513
73779SOL    HW123169  13.700   6.645   5.500
73779SOL    HW223170  13.833   6.641   5.428
73780SOL     OW23171   5.906  13.067   3.141
73780SOL    HW123172   5.988  13.023   3.166
73780SOL    HW223173   5.850  13.059   3.219
73781SOL     OW23174  12.694   6.249  11.298
73781SOL    HW123175  12.769   6.196  11.324
73781SOL    HW223176  12.619   6.190  11.306
73782SOL     OW23177   9.977  13.960  12.952
73782SOL    HW123178   9.947  13.887  13.006
73782SOL    HW223179   9.910  14.028  12.963
73783SOL     OW23180  14.398  12.145  11.245
73783SOL    HW123181  14.433  12.229  11.274
73783SOL    HW223182  14.468  12.107  11.192
73784SOL     OW23183   4.105  13.375  11.831
73784SOL    HW123184   4.191  13.417  11.828
73784SOL    HW223185   4.066  13.394  11.746
73785SOL     OW23186   1.908  11.111   2.277
73785SOL    HW123187   1.900  11.017   2.292
73785SOL    HW223188   2.001  11.129   2.292
73786SOL     OW23189   2.835  13.049   7.081
73786SOL    HW123190   2.833  13.099   7.162
73786SOL    HW223191   2.804  12.961   7.105
73787SOL     OW23192  10.667  11.531  12.776
73787SOL    HW123193  10.726  11.586  12.828
73787SOL    HW223194  10.725  11.483  12.717
73788SOL     OW23195   8.349  14.605   1.402
73788SOL    HW123196   8.432  14.634   1.364
73788SOL    HW223197   8.282  14.642   1.345
73789SOL     OW23198   8.942   1.478   6.540
73789SOL    HW123199   8.911   1.496   6.629
73789SOL    HW223200   8.910   1.389   6.521
73790SOL     OW23201  13.175   2.926  14.046
73790SOL    HW123202  13.185   3.009  13.999
73790SOL    HW223203  13.261   2.883  14.039
73791SOL     OW23204  12.813  14.127   4.749
73791SOL    HW123205  12.767  14.138   4.832
73791SOL    HW223206  12.877  14.058   4.766
73792SOL     OW23207   7.759   9.830   4.207
73792SOL    HW123208   7.797   9.742   4.217
73792SOL    HW223209   7.727   9.852   4.295
73793SOL     OW23210   6.963   1.488   4.482
73793SOL    HW123211   6.893   1.503   4.418
73793SOL    HW223212   7.043   1.486   4.429
73794SOL     OW23213   7.780  14.133  14.282
73794SOL    HW123214   7.702  14.077  14.280
73794SOL    HW223215   7.756  14.209  14.228
73795SOL     OW23216   3.242   4.831  10.010
73795SOL    HW123217   3.331   4.852   9.983
73795SOL    HW223218   3.217   4.756   9.956
73796SOL     OW23219   3.903   1.884  13.828
73796SOL    HW123220   3.808   1.874  13.825
73796SOL    HW223221   3.922   1.954  13.765
73797SOL     OW23222   0.110   1.675  12.146
73797SOL    HW123223   0.152   1.752  12.109
73797SOL    HW223224   0.102   1.695  12.240
73798SOL     OW23225  14.202   2.388  11.671
73798SOL    HW123226  14.283   2.431  11.698
73798SOL    HW223227  14.134   2.428  11.726
73799SOL     OW23228  11.614   8.293  12.070
73799SOL    HW123229  11.553   8.364  12.090
73799SOL    HW223230  11.565   8.234  12.014
73800SOL     OW23231   0.345   9.821   0.498
73800SOL    HW123232   0.440   9.824   0.486
73800SOL    HW223233   0.331   9.860   0.583
73801SOL     OW23234   3.891   4.501  13.384
73801SOL    HW123235   3.901   4.433  13.450
73801SOL    HW223236   3.834   4.462  13.317
73802SOL     OW23237  11.377   9.076   1.692
73802SOL    HW123238  11.438   9.024   1.640
73802SOL    HW223239  11.341   9.140   1.631
73803SOL     OW23240  12.171  14.198   0.263
73803SOL    HW123241  12.218  14.202   0.180
73803SOL    HW223242  12.204  14.117   0.304
73804SOL     OW23243   8.027   5.861   7.670
73804SOL    HW123244   8.054   5.822   7.587
73804SOL    HW223245   7.931   5.867   7.663
73805SOL     OW23246   2.892   9.639   8.732
73805SOL    HW123247   2.910   9.662   8.641
73805SOL    HW223248   2.797   9.629   8.737
73806SOL     OW23249   8.923   7.349  14.550
73806SOL    HW123250   8.882   7.410  14.611
73806SOL    HW223251   8.960   7.405  14.482
73807SOL     OW23252  12.670   3.020   8.820
73807SOL    HW123253  12.682   3.109   8.787
73807SOL    HW223254  12.576   3.006   8.819
73808SOL     OW23255   2.053   1.560   8.384
73808SOL    HW123256   2.148   1.559   8.369
73808SOL    HW223257   2.043   1.575   8.478
73809SOL     OW23258  11.079   1.612   3.965
73809SOL    HW123259  11.055   1.589   4.055
73809SOL    HW223260  11.153   1.673   3.974
73810SOL     OW23261   3.893  10.612   3.282
73810SOL    HW123262   3.859  10.571   3.203
73810SOL    HW223263   3.838  10.690   3.294
73811SOL     OW23264  10.689   0.299   6.336
73811SOL    HW123265  10.615   0.239   6.324
73811SOL    HW223266  10.761   0.257   6.290
73812SOL     OW23267   2.797   4.553   0.625
73812SOL    HW123268   2.816   4.601   0.705
73812SOL    HW223269   2.705   4.528   0.632
73813SOL     OW23270  13.023   2.566  12.623
73813SOL    HW123271  12.994   2.656  12.635
73813SOL    HW223272  13.024   2.529  12.712
73814SOL     OW23273  11.977   1.123   3.907
73814SOL    HW123274  12.071   1.132   3.926
73814SOL    HW223275  11.974   1.083   3.820
73815SOL     OW23276   0.134   5.718  12.488
73815SOL    HW123277   0.150   5.796  12.435
73815SOL    HW223278   0.079   5.662  12.433
73816SOL     OW23279  11.891   4.780   2.658
73816SOL    HW123280  11.869   4.768   2.750
73816SOL    HW223281  11.984   4.803   2.659
73817SOL     OW23282  13.787  12.690   7.134
73817SOL    HW123283  13.832  12.735   7.063
73817SOL    HW223284  13.719  12.751   7.161
73818SOL     OW23285   8.330   0.249   3.411
73818SOL    HW123286   8.332   0.186   3.483
73818SOL    HW223287   8.354   0.197   3.334
73819SOL     OW23288  14.260   2.493   3.757
73819SOL    HW123289  14.258   2.492   3.662
73819SOL    HW223290  14.297   2.578   3.780
73820SOL     OW23291  10.095   7.409   4.733
73820SOL    HW123292  10.063   7.322   4.759
73820SOL    HW223293  10.084   7.410   4.638
73821SOL     OW23294  11.330   7.007   0.366
73821SOL    HW123295  11.309   6.916   0.344
73821SOL    HW223296  11.291   7.021   0.452
73822SOL     OW23297  11.136  14.557   0.086
73822SOL    HW123298  11.053  14.516   0.060
73822SOL    HW223299  11.183  14.570   0.004
73823SOL     OW23300   8.835   7.922   1.816
73823SOL    HW123301   8.911   7.979   1.803
73823SOL    HW223302   8.872   7.834   1.824
73824SOL     OW23303  13.832  14.649   2.659
73824SOL    HW123304  13.738  14.653   2.677
73824SOL    HW223305  13.850  14.555   2.653
73825SOL     OW23306   8.342  10.217   8.644
73825SOL    HW123307   8.313  10.189   8.731
73825SOL    HW223308   8.434  10.190   8.640
73826SOL     OW23309   4.670   4.484   7.855
73826SOL    HW123310   4.597   4.444   7.901
73826SOL    HW223311   4.728   4.515   7.924
73827SOL     OW23312   2.829   4.506  14.414
73827SOL    HW123313   2.889   4.580  14.409
73827SOL    HW223314   2.823   4.485  14.507
73828SOL     OW23315   0.603  13.642   8.210
73828SOL    HW123316   0.658  13.583   8.263
73828SOL    HW223317   0.579  13.712   8.271
73829SOL     OW23318  10.555  14.022   4.864
73829SOL    HW123319  10.614  14.049   4.794
73829SOL    HW223320  10.587  13.935   4.891
73830SOL     OW23321   3.377  10.718  10.656
73830SOL    HW123322   3.413  10.807  10.649
73830SOL    HW223323   3.395  10.693  10.747
73831SOL     OW23324  13.807   7.061   4.666
73831SOL    HW123325  13.894   7.086   4.635
73831SOL    HW223326  13.778   6.994   4.605
73832SOL     OW23327  13.262  14.653  14.196
73832SOL    HW123328  13.208  14.674  14.272
73832SOL    HW223329  13.352  14.666  14.226
73833SOL     OW23330  12.768  11.684   0.995
73833SOL    HW123331  12.728  11.770   1.013
73833SOL    HW223332  12.732  11.627   1.063
73834SOL     OW23333   6.616  13.915  14.092
73834SOL    HW123334   6.577  14.001  14.081
73834SOL    HW223335   6.680  13.926  14.162
73835SOL     OW23336   5.421  14.779  12.068
73835SOL    HW123337   5.505  14.803  12.030
73835SOL    HW223338   5.434  14.784  12.162
73836SOL     OW23339   2.312  13.534   1.496
73836SOL    HW123340   2.377  13.492   1.440
73836SOL    HW223341   2.343  13.624   1.505
73837SOL     OW23342   3.831  14.842   0.031
73837SOL    HW123343   3.737  14.838   0.013
73837SOL    HW223344   3.844   0.045   0.073
73838SOL     OW23345   9.353  10.171  11.436
73838SOL    HW123346   9.263  10.139  11.437
73838SOL    HW223347   9.350  10.251  11.384
73839SOL     OW23348   1.234  14.722   9.630
73839SOL    HW123349   1.140  14.706   9.640
73839SOL    HW223350   1.275  14.651   9.679
73840SOL     OW23351   9.187   2.817  12.702
73840SOL    HW123352   9.137   2.789  12.626
73840SOL    HW223353   9.178   2.912  12.704
73841SOL     OW23354   4.194   7.814   6.340
73841SOL    HW123355   4.269   7.871   6.323
73841SOL    HW223356   4.125   7.848   6.283
73842SOL     OW23357   4.276  14.060   9.290
73842SOL    HW123358   4.329  13.985   9.317
73842SOL    HW223359   4.216  14.025   9.225
73843SOL     OW23360   2.331   3.397   4.192
73843SOL    HW123361   2.247   3.360   4.219
73843SOL    HW223362   2.377   3.414   4.275
73844SOL     OW23363   7.011  13.328  10.338
73844SOL    HW123364   7.014  13.237  10.308
73844SOL    HW223365   7.087  13.336  10.396
73845SOL     OW23366   1.757   0.186   4.428
73845SOL    HW123367   1.713   0.256   4.380
73845SOL    HW223368   1.760   0.217   4.518
73846SOL     OW23369   8.999  12.531  12.192
73846SOL    HW123370   8.915  12.514  12.149
73846SOL    HW223371   9.001  12.471  12.267
73847SOL     OW23372  10.169   5.426  10.268
73847SOL    HW123373  10.168   5.331  10.269
73847SOL    HW223374  10.112   5.451  10.341
73848SOL     OW23375   6.061  11.977  13.212
73848SOL    HW123376   6.156  11.974  13.214
73848SOL    HW223377   6.034  11.923  13.286
73849SOL     OW23378   0.841  14.241   1.438
73849SOL    HW123379   0.935  14.232   1.451
73849SOL    HW223380   0.803  14.171   1.491
73850SOL     OW23381   2.272  11.293  10.124
73850SOL    HW123382   2.203  11.275  10.188
73850SOL    HW223383   2.239  11.256  10.042
73851SOL     OW23384   5.837   3.007   3.570
73851SOL    HW123385   5.877   3.092   3.551
73851SOL    HW223386   5.823   2.968   3.484
73852SOL     OW23387   9.516  13.334   4.657
73852SOL    HW123388   9.420  13.333   4.667
73852SOL    HW223389   9.548  13.364   4.742
73853SOL     OW23390   4.958  11.946   7.241
73853SOL    HW123391   4.898  12.018   7.220
73853SOL    HW223392   5.028  11.987   7.292
73854SOL     OW23393   4.622  14.422  10.452
73854SOL    HW123394   4.683  14.400  10.382
73854SOL    HW223395   4.537  14.390  10.421
73855SOL     OW23396  10.058   6.082   9.043
73855SOL    HW123397   9.971   6.050   9.066
73855SOL    HW223398  10.096   6.013   8.989
73856SOL     OW23399   5.818   6.093   8.283
73856SOL    HW123400   5.737   6.103   8.232
73856SOL    HW223401   5.887   6.125   8.226
73857SOL     OW23402  13.156   0.499   0.175
73857SOL    HW123403  13.196   0.414   0.197
73857SOL    HW223404  13.152   0.545   0.258
73858SOL     OW23405  10.026   3.205  14.315
73858SOL    HW123406  10.055   3.272  14.253
73858SOL    HW223407  10.030   3.249  14.400
73859SOL     OW23408   8.993  12.265   1.121
73859SOL    HW123409   9.071  12.320   1.131
73859SOL    HW223410   8.972  12.269   1.028
73860SOL     OW23411   3.539   5.757   1.895
73860SOL    HW123412   3.596   5.683   1.916
73860SOL    HW223413   3.454   5.733   1.930
73861SOL     OW23414   0.500   1.045   8.440
73861SOL    HW123415   0.431   1.047   8.507
73861SOL    HW223416   0.531   1.135   8.434
73862SOL     OW23417   8.131   8.760   9.871
73862SOL    HW123418   8.063   8.738   9.935
73862SOL    HW223419   8.084   8.781   9.791
73863SOL     OW23420   9.185   9.348   7.084
73863SOL    HW123421   9.239   9.420   7.051
73863SOL    HW223422   9.187   9.283   7.014
73864SOL     OW23423   1.047   9.062   1.977
73864SOL    HW123424   0.998   9.142   1.994
73864SOL    HW223425   1.035   9.008   2.055
73865SOL     OW23426   1.196   7.646   3.803
73865SOL    HW123427   1.266   7.634   3.867
73865SOL    HW223428   1.143   7.717   3.839
73866SOL     OW23429  10.270   3.450   1.255
73866SOL    HW123430  10.251   3.543   1.267
73866SOL    HW223431  10.289   3.441   1.162
73867SOL     OW23432  12.347   9.050   9.701
73867SOL    HW123433  12.375   9.004   9.622
73867SOL    HW223434  12.425   9.051   9.757
73868SOL     OW23435   7.925  14.151   6.063
73868SOL    HW123436   7.955  14.211   5.995
73868SOL    HW223437   7.836  14.178   6.082
73869SOL     OW23438   4.388   0.842   5.900
73869SOL    HW123439   4.352   0.926   5.871
73869SOL    HW223440   4.394   0.850   5.996
73870SOL     OW23441   2.884  12.390  14.285
73870SOL    HW123442   2.864  12.472  14.331
73870SOL    HW223443   2.967  12.408  14.239
73871SOL     OW23444   6.165   7.855   4.728
73871SOL    HW123445   6.241   7.863   4.671
73871SOL    HW223446   6.141   7.762   4.723
73872SOL     OW23447   3.157  13.411   7.710
73872SOL    HW123448   3.088  13.346   7.718
73872SOL    HW223449   3.163  13.451   7.797
73873SOL     OW23450  12.760  12.047   4.085
73873SOL    HW123451  12.732  12.071   4.174
73873SOL    HW223452  12.833  12.107   4.067
73874SOL     OW23453   3.396   6.028   1.925
73874SOL    HW123454   3.316   5.987   1.959
73874SOL    HW223455   3.452   5.954   1.901
73875SOL     OW23456   9.562   2.136   1.216
73875SOL    HW123457   9.548   2.084   1.136
73875SOL    HW223458   9.656   2.129   1.232
73876SOL     OW23459  10.560   3.572   2.595
73876SOL    HW123460  10.554   3.504   2.528
73876SOL    HW223461  10.508   3.539   2.669
73877SOL     OW23462   6.310   3.205   8.197
73877SOL    HW123463   6.266   3.290   8.207
73877SOL    HW223464   6.376   3.205   8.266
73878SOL     OW23465   5.139  14.644   8.479
73878SOL    HW123466   5.231  14.651   8.502
73878SOL    HW223467   5.098  14.720   8.520
73879SOL     OW23468  11.359   4.435  10.558
73879SOL    HW123469  11.266   4.417  10.544
73879SOL    HW223470  11.401   4.350  10.554
73880SOL     OW23471   7.708  13.468   7.137
73880SOL    HW123472   7.667  13.424   7.062
73880SOL    HW223473   7.664  13.430   7.213
73881SOL     OW23474   4.441  12.709   2.658
73881SOL    HW123475   4.381  12.638   2.634
73881SOL    HW223476   4.521  12.689   2.608
73882SOL     OW23477   3.818   7.198   9.530
73882SOL    HW123478   3.852   7.234   9.612
73882SOL    HW223479   3.771   7.271   9.489
73883SOL     OW23480   0.475  11.284   5.954
73883SOL    HW123481   0.488  11.323   5.868
73883SOL    HW223482   0.380  11.267   5.958
73884SOL     OW23483   1.456  10.781   7.037
73884SOL    HW123484   1.449  10.872   7.065
73884SOL    HW223485   1.416  10.780   6.949
73885SOL     OW23486  10.938   9.942  12.425
73885SOL    HW123487  10.994   9.899  12.361
73885SOL    HW223488  10.993  10.009  12.465
73886SOL     OW23489  13.148   4.968   2.148
73886SOL    HW123490  13.164   5.061   2.167
73886SOL    HW223491  13.081   4.969   2.080
73887SOL     OW23492   8.123   0.933  12.596
73887SOL    HW123493   8.065   0.876  12.544
73887SOL    HW223494   8.065   1.001  12.629
73888SOL     OW23495   4.104   9.638   2.929
73888SOL    HW123496   4.095   9.710   2.992
73888SOL    HW223497   4.038   9.575   2.956
73889SOL     OW23498   9.900  13.565  12.857
73889SOL    HW123499   9.919  13.639  12.799
73889SOL    HW223500   9.890  13.491  12.797
73890SOL     OW23501   7.520   8.052   3.831
73890SOL    HW123502   7.473   8.089   3.906
73890SOL    HW223503   7.470   7.974   3.807
73891SOL     OW23504   7.772  12.054   2.260
73891SOL    HW123505   7.818  12.126   2.302
73891SOL    HW223506   7.760  12.082   2.169
73892SOL     OW23507  12.930  13.324   3.253
73892SOL    HW123508  12.941  13.275   3.172
73892SOL    HW223509  12.976  13.272   3.319
73893SOL     OW23510   4.524  12.145  13.570
73893SOL    HW123511   4.471  12.072  13.603
73893SOL    HW223512   4.600  12.103  13.529
73894SOL     OW23513   5.553   2.016  14.621
73894SOL    HW123514   5.601   2.092  14.588
73894SOL    HW223515   5.465   2.025  14.584
73895SOL     OW23516   9.379   7.008   3.868
73895SOL    HW123517   9.359   7.095   3.832
73895SOL    HW223518   9.457   6.980   3.820
73896SOL     OW23519   5.747  10.592   7.276
73896SOL    HW123520   5.720  10.681   7.299
73896SOL    HW223521   5.778  10.553   7.358
73897SOL     OW23522   8.617  14.159  13.498
73897SOL    HW123523   8.590  14.201  13.579
73897SOL    HW223524   8.566  14.203  13.430
73898SOL     OW23525   0.791  14.239   6.616
73898SOL    HW123526   0.785  14.152   6.576
73898SOL    HW223527   0.864  14.231   6.678
73899SOL     OW23528   0.865   6.541  13.921
73899SOL    HW123529   0.784   6.489  13.928
73899SOL    HW223530   0.920   6.492  13.860
73900SOL     OW23531  12.955  12.838   9.346
73900SOL    HW123532  12.902  12.856   9.424
73900SOL    HW223533  13.034  12.795   9.380
73901SOL     OW23534   3.838   9.194   1.112
73901SOL    HW123535   3.898   9.249   1.162
73901SOL    HW223536   3.850   9.221   1.021
73902SOL     OW23537   1.085  10.437  11.657
73902SOL    HW123538   1.098  10.405  11.567
73902SOL    HW223539   0.997  10.474  11.656
73903SOL     OW23540   3.723  10.361   2.755
73903SOL    HW123541   3.707  10.285   2.699
73903SOL    HW223542   3.818  10.359   2.771
73904SOL     OW23543   0.181   4.078  14.242
73904SOL    HW123544   0.171   4.171  14.220
73904SOL    HW223545   0.136   4.069  14.326
73905SOL     OW23546   6.790   2.491   8.692
73905SOL    HW123547   6.812   2.530   8.607
73905SOL    HW223548   6.847   2.415   8.699
73906SOL     OW23549  14.100  14.063   4.901
73906SOL    HW123550  14.146  13.990   4.861
73906SOL    HW223551  14.032  14.086   4.838
73907SOL     OW23552   8.916  12.490   7.012
73907SOL    HW123553   8.898  12.441   7.093
73907SOL    HW223554   8.833  12.491   6.965
73908SOL     OW23555   4.993  12.942   1.656
73908SOL    HW123556   5.088  12.957   1.651
73908SOL    HW223557   4.958  12.991   1.582
73909SOL     OW23558   6.214   3.815  11.424
73909SOL    HW123559   6.301   3.794  11.389
73909SOL    HW223560   6.182   3.886  11.368
73910SOL     OW23561   0.666   1.485   0.742
73910SOL    HW123562   0.683   1.548   0.671
73910SOL    HW223563   0.744   1.429   0.742
73911SOL     OW23564  13.974   2.142   4.331
73911SOL    HW123565  13.985   2.235   4.312
73911SOL    HW223566  13.910   2.139   4.402
73912SOL     OW23567   9.864  14.271  12.345
73912SOL    HW123568   9.953  14.271  12.310
73912SOL    HW223569   9.864  14.339  12.412
73913SOL     OW23570  10.832   9.699   6.112
73913SOL    HW123571  10.784   9.631   6.065
73913SOL    HW223572  10.910   9.715   6.060
73914SOL     OW23573   5.789   1.652   1.493
73914SOL    HW123574   5.737   1.723   1.532
73914SOL    HW223575   5.736   1.621   1.419
73915SOL     OW23576   0.656   4.154   7.319
73915SOL    HW123577   0.624   4.118   7.402
73915SOL    HW223578   0.695   4.239   7.343
73916SOL     OW23579  12.640   4.881   0.145
73916SOL    HW123580  12.630   4.952   0.207
73916SOL    HW223581  12.588   4.810   0.181
73917SOL     OW23582   8.626  12.969  11.880
73917SOL    HW123583   8.714  12.982  11.845
73917SOL    HW223584   8.576  13.043  11.847
73918SOL     OW23585   7.107   9.625   8.709
73918SOL    HW123586   7.168   9.687   8.670
73918SOL    HW223587   7.080   9.666   8.791
73919SOL     OW23588  10.858   6.887   4.177
73919SOL    HW123589  10.927   6.827   4.206
73919SOL    HW223590  10.824   6.925   4.257
73920SOL     OW23591  13.588   5.131   1.819
73920SOL    HW123592  13.515   5.184   1.848
73920SOL    HW223593  13.598   5.064   1.886
73921SOL     OW23594   9.047   0.226  11.855
73921SOL    HW123595   9.121   0.245  11.798
73921SOL    HW223596   8.975   0.207  11.796
73922SOL     OW23597  11.125  14.858  12.904
73922SOL    HW123598  11.033  14.839  12.925
73922SOL    HW223599  11.162  14.774  12.880
73923SOL     OW23600  13.805   2.363  11.470
73923SOL    HW123601  13.834   2.408  11.391
73923SOL    HW223602  13.810   2.429  11.539
73924SOL     OW23603   5.629   8.118  11.105
73924SOL    HW123604   5.602   8.069  11.027
73924SOL    HW223605   5.722   8.136  11.091
73925SOL     OW23606   6.557   9.761   3.454
73925SOL    HW123607   6.590   9.712   3.529
73925SOL    HW223608   6.471   9.722   3.437
73926SOL     OW23609   1.393  11.977   3.260
73926SOL    HW123610   1.366  12.025   3.338
73926SOL    HW223611   1.426  11.894   3.293
73927SOL     OW23612  14.639   4.238   4.138
73927SOL    HW123613  14.595   4.323   4.127
73927SOL    HW223614  14.639   4.223   4.232
73928SOL     OW23615   3.449   5.070  11.095
73928SOL    HW123616   3.385   5.002  11.116
73928SOL    HW223617   3.395   5.145  11.068
73929SOL     OW23618   3.852  14.118   7.423
73929SOL    HW123619   3.787  14.059   7.460
73929SOL    HW223620   3.907  14.062   7.368
73930SOL     OW23621  11.857   7.245   4.797
73930SOL    HW123622  11.826   7.264   4.885
73930SOL    HW223623  11.946   7.280   4.794
73931SOL     OW23624   9.138   7.737   9.777
73931SOL    HW123625   9.109   7.822   9.810
73931SOL    HW223626   9.075   7.716   9.708
73932SOL     OW23627   4.339  12.252   9.841
73932SOL    HW123628   4.284  12.188   9.885
73932SOL    HW223629   4.409  12.200   9.800
73933SOL     OW23630   1.898  10.877  12.598
73933SOL    HW123631   1.907  10.961  12.642
73933SOL    HW223632   1.978  10.868  12.547
73934SOL     OW23633   9.698  11.155   5.454
73934SOL    HW123634   9.785  11.133   5.487
73934SOL    HW223635   9.699  11.250   5.444
73935SOL     OW23636   8.358   7.952  12.148
73935SOL    HW123637   8.312   8.019  12.199
73935SOL    HW223638   8.386   7.997  12.069
73936SOL     OW23639  11.765   8.467   9.981
73936SOL    HW123640  11.857   8.492   9.988
73936SOL    HW223641  11.759   8.422   9.896
73937SOL     OW23642   7.774  10.496   0.416
73937SOL    HW123643   7.679  10.503   0.407
73937SOL    HW223644   7.807  10.499   0.326
73938SOL     OW23645  11.877   3.138   6.438
73938SOL    HW123646  11.943   3.175   6.496
73938SOL    HW223647  11.921   3.065   6.395
73939SOL     OW23648   8.690   1.542   0.173
73939SOL    HW123649   8.654   1.472   0.227
73939SOL    HW223650   8.631   1.616   0.189
73940SOL     OW23651   5.806   9.462   9.602
73940SOL    HW123652   5.757   9.457   9.684
73940SOL    HW223653   5.780   9.384   9.553
73941SOL     OW23654  11.839  11.503   7.785
73941SOL    HW123655  11.808  11.413   7.773
73941SOL    HW223656  11.904  11.497   7.854
73942SOL     OW23657  12.933   8.515  14.356
73942SOL    HW123658  13.016   8.477  14.383
73942SOL    HW223659  12.867   8.451  14.381
73943SOL     OW23660  14.557   5.525   4.881
73943SOL    HW123661  14.615   5.547   4.808
73943SOL    HW223662  14.599   5.565   4.958
73944SOL     OW23663  13.533  14.041   1.692
73944SOL    HW123664  13.510  13.973   1.755
73944SOL    HW223665  13.627  14.029   1.678
73945SOL     OW23666  12.810   9.499   9.068
73945SOL    HW123667  12.904   9.481   9.068
73945SOL    HW223668  12.772   9.426   9.019
73946SOL     OW23669   0.843   0.427   8.317
73946SOL    HW123670   0.758   0.438   8.360
73946SOL    HW223671   0.826   0.443   8.225
73947SOL     OW23672  10.757  13.542   6.596
73947SOL    HW123673  10.739  13.514   6.686
73947SOL    HW223674  10.812  13.619   6.605
73948SOL     OW23675   9.527  10.740  13.551
73948SOL    HW123676   9.494  10.774  13.634
73948SOL    HW223677   9.486  10.796  13.485
73949SOL     OW23678   3.334  14.391  12.855
73949SOL    HW123679   3.362  14.481  12.870
73949SOL    HW223680   3.391  14.338  12.911
73950SOL     OW23681   4.136   7.479   0.026
73950SOL    HW123682   4.208   7.488   0.088
73950SOL    HW223683   4.092   7.398   0.051
73951SOL     OW23684  14.824   7.198  10.337
73951SOL    HW123685  14.747   7.250  10.316
73951SOL    HW223686   0.016   7.256  10.321
73952SOL     OW23687   2.662   2.641   7.156
73952SOL    HW123688   2.744   2.600   7.183
73952SOL    HW223689   2.642   2.602   7.071
73953SOL     OW23690  10.800   1.638   1.274
73953SOL    HW123691  10.849   1.578   1.217
73953SOL    HW223692  10.718   1.653   1.227
73954SOL     OW23693   5.910   4.052   1.296
73954SOL    HW123694   5.901   4.087   1.207
73954SOL    HW223695   5.988   3.996   1.292
73955SOL     OW23696   3.013   6.475  10.993
73955SOL    HW123697   3.019   6.567  11.018
73955SOL    HW223698   2.925   6.448  11.019
73956SOL     OW23699   6.459  10.311   2.943
73956SOL    HW123700   6.445  10.226   2.901
73956SOL    HW223701   6.392  10.368   2.904
73957SOL     OW23702   7.113  13.948   5.405
73957SOL    HW123703   7.134  14.023   5.350
73957SOL    HW223704   7.149  13.873   5.358
73958SOL     OW23705  12.869   1.463  14.311
73958SOL    HW123706  12.839   1.389  14.364
73958SOL    HW223707  12.933   1.507  14.366
73959SOL     OW23708  12.644  13.616   6.060
73959SOL    HW123709  12.611  13.690   6.111
73959SOL    HW223710  12.565  13.577   6.021
73960SOL     OW23711   1.146   2.841  12.733
73960SOL    HW123712   1.149   2.792  12.816
73960SOL    HW223713   1.237   2.863  12.715
73961SOL     OW23714   4.818  13.248   5.602
73961SOL    HW123715   4.865  13.323   5.565
73961SOL    HW223716   4.774  13.283   5.679
73962SOL     OW23717   1.194   5.061   7.197
73962SOL    HW123718   1.214   5.148   7.163
73962SOL    HW223719   1.164   5.077   7.287
73963SOL     OW23720   0.637   5.482   2.685
73963SOL    HW123721   0.643   5.475   2.589
73963SOL    HW223722   0.558   5.434   2.707
73964SOL     OW23723  11.553  13.343   1.560
73964SOL    HW123724  11.635  13.312   1.598
73964SOL    HW223725  11.561  13.439   1.564
73965SOL     OW23726   5.859   5.195  12.765
73965SOL    HW123727   5.875   5.189  12.671
73965SOL    HW223728   5.892   5.282  12.790
73966SOL     OW23729   0.975   7.285   3.143
73966SOL    HW123730   0.880   7.282   3.154
73966SOL    HW223731   1.010   7.234   3.216
73967SOL     OW23732   1.804   9.290   0.502
73967SOL    HW123733   1.863   9.358   0.535
73967SOL    HW223734   1.839   9.267   0.416
73968SOL     OW23735  10.569   9.394   9.461
73968SOL    HW123736  10.485   9.435   9.480
73968SOL    HW223737  10.634   9.458   9.489
73969SOL     OW23738   5.235  12.626   5.497
73969SOL    HW123739   5.148  12.590   5.517
73969SOL    HW223740   5.246  12.611   5.404
73970SOL     OW23741   6.870   2.790   3.610
73970SOL    HW123742   6.845   2.794   3.517
73970SOL    HW223743   6.924   2.867   3.624
73971SOL     OW23744  14.359   9.522   1.032
73971SOL    HW123745  14.385   9.469   0.956
73971SOL    HW223746  14.266   9.539   1.018
73972SOL     OW23747  14.384  13.526   9.550
73972SOL    HW123748  14.389  13.534   9.455
73972SOL    HW223749  14.474  13.543   9.580
73973SOL     OW23750   7.943  11.677   9.048
73973SOL    HW123751   7.909  11.599   9.004
73973SOL    HW223752   7.891  11.683   9.128
73974SOL     OW23753   8.431  12.174   1.825
73974SOL    HW123754   8.503  12.220   1.783
73974SOL    HW223755   8.471  12.129   1.899
73975SOL     OW23756   2.152  10.798  13.411
73975SOL    HW123757   2.195  10.733  13.356
73975SOL    HW223758   2.146  10.876  13.356
73976SOL     OW23759   7.401   1.697  12.463
73976SOL    HW123760   7.345   1.632  12.505
73976SOL    HW223761   7.342   1.765  12.431
73977SOL     OW23762   6.117  10.993   6.067
73977SOL    HW123763   6.171  10.918   6.090
73977SOL    HW223764   6.077  11.021   6.149
73978SOL     OW23765   4.167   3.767   7.377
73978SOL    HW123766   4.237   3.763   7.312
73978SOL    HW223767   4.088   3.786   7.327
73979SOL     OW23768  10.380   7.322   5.090
73979SOL    HW123769  10.393   7.239   5.045
73979SOL    HW223770  10.468   7.358   5.101
73980SOL     OW23771   4.746   9.469   7.969
73980SOL    HW123772   4.727   9.470   7.875
73980SOL    HW223773   4.766   9.377   7.988
73981SOL     OW23774   9.860  12.648  10.798
73981SOL    HW123775   9.918  12.647  10.874
73981SOL    HW223776   9.881  12.567  10.751
73982SOL     OW23777   4.393  12.505   9.951
73982SOL    HW123778   4.368  12.424   9.907
73982SOL    HW223779   4.475  12.484   9.995
73983SOL     OW23780  12.664  13.969   0.563
73983SOL    HW123781  12.656  13.929   0.650
73983SOL    HW223782  12.759  13.978   0.550
73984SOL     OW23783   3.400   6.100  13.865
73984SOL    HW123784   3.451   6.046  13.925
73984SOL    HW223785   3.326   6.130  13.916
73985SOL     OW23786   0.732   1.704  10.163
73985SOL    HW123787   0.818   1.664  10.152
73985SOL    HW223788   0.671   1.630  10.155
73986SOL     OW23789   0.164   2.299   6.451
73986SOL    HW123790   0.233   2.274   6.512
73986SOL    HW223791   0.193   2.263   6.367
73987SOL     OW23792   4.797  12.841  13.966
73987SOL    HW123793   4.782  12.769  14.028
73987SOL    HW223794   4.807  12.918  14.022
73988SOL     OW23795   8.691  13.074   3.923
73988SOL    HW123796   8.674  13.152   3.870
73988SOL    HW223797   8.630  13.081   3.996
73989SOL     OW23798  14.575   8.547   4.338
73989SOL    HW123799  14.537   8.578   4.420
73989SOL    HW223800  14.504   8.499   4.295
73990SOL     OW23801   3.943   2.672  11.694
73990SOL    HW123802   3.922   2.579  11.684
73990SOL    HW223803   3.877   2.705  11.755
73991SOL     OW23804  14.555  10.378   0.225
73991SOL    HW123805  14.616  10.391   0.152
73991SOL    HW223806  14.485  10.442   0.210
73992SOL     OW23807   6.062   2.838   7.608
73992SOL    HW123808   6.096   2.777   7.672
73992SOL    HW223809   5.980   2.799   7.578
73993SOL     OW23810  13.912  10.179  11.013
73993SOL    HW123811  13.820  10.197  10.997
73993SOL    HW223812  13.942  10.252  11.068
73994SOL     OW23813  10.374   2.372   6.891
73994SOL    HW123814  10.457   2.326   6.901
73994SOL    HW223815  10.396   2.465   6.904
73995SOL     OW23816   8.095   7.574   7.985
73995SOL    HW123817   8.181   7.536   7.967
73995SOL    HW223818   8.059   7.593   7.899
73996SOL     OW23819   7.378   0.889  14.242
73996SOL    HW123820   7.319   0.862  14.171
73996SOL    HW223821   7.357   0.981  14.256
73997SOL     OW23822  10.544  13.391   7.645
73997SOL    HW123823  10.494  13.335   7.705
73997SOL    HW223824  10.507  13.479   7.658
73998SOL     OW23825  14.591   0.931   4.646
73998SOL    HW123826  14.677   0.889   4.645
73998SOL    HW223827  14.530   0.861   4.671
73999SOL     OW23828  12.031  10.917  12.591
73999SOL    HW123829  12.016  10.850  12.524
73999SOL    HW223830  12.087  10.982  12.548
74000SOL     OW23831   1.977   6.210   2.431
74000SOL    HW123832   2.070   6.192   2.444
74000SOL    HW223833   1.953   6.265   2.506
74001SOL     OW23834   4.499   6.134   5.247
74001SOL    HW123835   4.581   6.159   5.290
74001SOL    HW223836   4.445   6.096   5.316
74002SOL     OW23837   3.326   8.418  12.071
74002SOL    HW123838   3.350   8.341  12.020
74002SOL    HW223839   3.389   8.485  12.044
74003SOL     OW23840  11.772   8.661  14.676
74003SOL    HW123841  11.806   8.595  14.615
74003SOL    HW223842  11.744   8.733  14.619
74004SOL     OW23843  14.077   1.330  11.613
74004SOL    HW123844  14.154   1.359  11.564
74004SOL    HW223845  14.090   1.366  11.701
74005SOL     OW23846   5.399   5.412  12.128
74005SOL    HW123847   5.346   5.447  12.057
74005SOL    HW223848   5.455   5.485  12.155
74006SOL     OW23849   4.446   2.713  11.828
74006SOL    HW123850   4.451   2.756  11.743
74006SOL    HW223851   4.352   2.708  11.847
74007SOL     OW23852  11.621  13.202  12.006
74007SOL    HW123853  11.542  13.182  11.955
74007SOL    HW223854  11.675  13.124  11.998
74008SOL     OW23855   7.266   9.431   1.332
74008SOL    HW123856   7.244   9.339   1.325
74008SOL    HW223857   7.208   9.464   1.401
74009SOL     OW23858   4.540   9.458   0.727
74009SOL    HW123859   4.600   9.533   0.723
74009SOL    HW223860   4.498   9.465   0.812
74010SOL     OW23861   3.264  10.049  13.025
74010SOL    HW123862   3.322  10.026  13.098
74010SOL    HW223863   3.269  10.144  13.021
74011SOL     OW23864  10.483   6.614  14.489
74011SOL    HW123865  10.577   6.629  14.494
74011SOL    HW223866  10.446   6.701  14.473
74012SOL     OW23867   9.315   3.965  13.021
74012SOL    HW123868   9.311   3.870  13.016
74012SOL    HW223869   9.368   3.991  12.946
74013SOL     OW23870   0.543  13.259   9.935
74013SOL    HW123871   0.588  13.337   9.903
74013SOL    HW223872   0.538  13.271  10.030
74014SOL     OW23873   1.934  13.898   6.375
74014SOL    HW123874   1.908  13.812   6.409
74014SOL    HW223875   1.939  13.953   6.453
74015SOL     OW23876  11.235  12.661   1.250
74015SOL    HW123877  11.211  12.732   1.191
74015SOL    HW223878  11.325  12.639   1.227
74016SOL     OW23879   7.426   9.009  11.179
74016SOL    HW123880   7.465   9.092  11.206
74016SOL    HW223881   7.372   9.031  11.103
74017SOL     OW23882   2.974   7.806  11.335
74017SOL    HW123883   2.936   7.892  11.358
74017SOL    HW223884   3.068   7.820  11.337
74018SOL     OW23885   4.632  14.283   7.511
74018SOL    HW123886   4.612  14.367   7.553
74018SOL    HW223887   4.548  14.239   7.504
74019SOL     OW23888  11.289  11.362   9.136
74019SOL    HW123889  11.282  11.423   9.063
74019SOL    HW223890  11.352  11.402   9.195
74020SOL     OW23891   0.125   7.893   1.041
74020SOL    HW123892   0.171   7.967   1.001
74020SOL    HW223893   0.033   7.909   1.019
74021SOL     OW23894   8.997   1.754  13.809
74021SOL    HW123895   8.976   1.828  13.752
74021SOL    HW223896   9.069   1.785  13.864
74022SOL     OW23897  10.282   9.847   6.819
74022SOL    HW123898  10.257   9.811   6.904
74022SOL    HW223899  10.294   9.941   6.836
74023SOL     OW23900   5.525  13.250   3.131
74023SOL    HW123901   5.481  13.169   3.158
74023SOL    HW223902   5.537  13.299   3.213
74024SOL     OW23903  13.972  14.311  13.271
74024SOL    HW123904  13.931  14.239  13.223
74024SOL    HW223905  13.912  14.385  13.258
74025SOL     OW23906  14.016  14.205   6.598
74025SOL    HW123907  13.938  14.183   6.649
74025SOL    HW223908  14.085  14.218   6.663
74026SOL     OW23909   3.946  12.150   7.580
74026SOL    HW123910   4.033  12.188   7.589
74026SOL    HW223911   3.920  12.127   7.669
74027SOL     OW23912  14.822  14.248   6.279
74027SOL    HW123913  14.820  14.225   6.186
74027SOL    HW223914  14.791  14.169   6.324
74028SOL     OW23915  14.872   5.333   9.987
74028SOL    HW123916  14.817   5.258   9.964
74028SOL    HW223917   0.061   5.296  10.039
74029SOL     OW23918   4.640   9.842  13.103
74029SOL    HW123919   4.695   9.818  13.178
74029SOL    HW223920   4.592   9.920  13.132
74030SOL     OW23921   5.434  10.556   3.954
74030SOL    HW123922   5.419  10.646   3.927
74030SOL    HW223923   5.389  10.548   4.038
74031SOL     OW23924   4.966   8.576  12.257
74031SOL    HW123925   4.990   8.540  12.342
74031SOL    HW223926   5.009   8.519  12.193
74032SOL     OW23927   4.293   5.800   3.849
74032SOL    HW123928   4.352   5.739   3.804
74032SOL    HW223929   4.311   5.786   3.942
74033SOL     OW23930   6.618   0.602   0.357
74033SOL    HW123931   6.601   0.618   0.264
74033SOL    HW223932   6.590   0.683   0.400
74034SOL     OW23933   3.258   7.723   2.529
74034SOL    HW123934   3.255   7.628   2.538
74034SOL    HW223935   3.173   7.746   2.491
74035SOL     OW23936   4.265   8.721   3.985
74035SOL    HW123937   4.191   8.778   3.963
74035SOL    HW223938   4.238   8.634   3.956
74036SOL     OW23939  14.094   0.615   4.190
74036SOL    HW123940  14.134   0.597   4.275
74036SOL    HW223941  14.006   0.647   4.211
74037SOL     OW23942  10.282   1.472   9.690
74037SOL    HW123943  10.346   1.431   9.632
74037SOL    HW223944  10.271   1.411   9.763
74038SOL     OW23945   5.755  14.328   3.388
74038SOL    HW123946   5.751  14.397   3.455
74038SOL    HW223947   5.681  14.270   3.409
74039SOL     OW23948  12.797   0.686   8.437
74039SOL    HW123949  12.795   0.666   8.531
74039SOL    HW223950  12.779   0.603   8.394
74040SOL     OW23951   7.812   3.338  14.559
74040SOL    HW123952   7.751   3.272  14.592
74040SOL    HW223953   7.882   3.286  14.518
74041SOL     OW23954  14.369   8.269   1.916
74041SOL    HW123955  14.373   8.173   1.917
74041SOL    HW223956  14.375   8.291   1.823
74042SOL     OW23957  10.383   1.200   3.642
74042SOL    HW123958  10.476   1.185   3.660
74042SOL    HW223959  10.337   1.158   3.715
74043SOL     OW23960   8.621   9.530  14.708
74043SOL    HW123961   8.556   9.595  14.733
74043SOL    HW223962   8.615   9.463  14.775
74044SOL     OW23963  10.528   4.813   1.759
74044SOL    HW123964  10.486   4.727   1.753
74044SOL    HW223965  10.588   4.816   1.685
74045SOL     OW23966   3.255  10.456   7.272
74045SOL    HW123967   3.223  10.543   7.294
74045SOL    HW223968   3.240  10.404   7.351
74046SOL     OW23969   8.610  12.552   9.439
74046SOL    HW123970   8.597  12.576   9.531
74046SOL    HW223971   8.562  12.619   9.390
74047SOL     OW23972  10.111  14.866   6.682
74047SOL    HW123973  10.059   0.015   6.756
74047SOL    HW223974  10.163   0.061   6.656
74048SOL     OW23975  13.330   4.263   0.663
74048SOL    HW123976  13.314   4.305   0.578
74048SOL    HW223977  13.277   4.183   0.660
74049SOL     OW23978  10.190  10.729  14.010
74049SOL    HW123979  10.126  10.794  13.980
74049SOL    HW223980  10.144  10.645  14.002
74050SOL     OW23981  12.757   2.961   7.860
74050SOL    HW123982  12.763   2.884   7.916
74050SOL    HW223983  12.694   2.937   7.792
74051SOL     OW23984  12.617   7.812  13.590
74051SOL    HW123985  12.674   7.889  13.592
74051SOL    HW223986  12.672   7.742  13.553
74052SOL     OW23987   8.142   5.230  10.998
74052SOL    HW123988   8.081   5.255  10.928
74052SOL    HW223989   8.086   5.197  11.068
74053SOL     OW23990  10.172   2.837   3.114
74053SOL    HW123991  10.248   2.867   3.164
74053SOL    HW223992  10.192   2.860   3.023
74054SOL     OW23993  12.918   6.828  12.778
74054SOL    HW123994  12.917   6.812  12.873
74054SOL    HW223995  12.854   6.898  12.765
74055SOL     OW23996   1.623   0.544   7.843
74055SOL    HW123997   1.703   0.596   7.853
74055SOL    HW223998   1.583   0.577   7.762
74056SOL     OW23999   4.946   1.472   0.739
74056SOL    HW124000   4.874   1.534   0.725
74056SOL    HW224001   4.949   1.459   0.833
74057SOL     OW24002   5.052   4.464  11.538
74057SOL    HW124003   5.135   4.499  11.570
74057SOL    HW224004   5.073   4.374  11.512
74058SOL     OW24005   8.171  13.396   3.958
74058SOL    HW124006   8.155  13.379   3.865
74058SOL    HW224007   8.225  13.323   3.986
74059SOL     OW24008  13.038   1.939   8.235
74059SOL    HW124009  12.969   1.898   8.287
74059SOL    HW224010  13.074   2.008   8.292
74060SOL     OW24011   9.436   4.215  13.424
74060SOL    HW124012   9.374   4.193  13.354
74060SOL    HW224013   9.506   4.151  13.414
74061SOL     OW24014  12.875   5.593   8.561
74061SOL    HW124015  12.822   5.516   8.542
74061SOL    HW224016  12.892   5.632   8.475
74062SOL     OW24017   8.484  12.500   2.695
74062SOL    HW124018   8.565  12.535   2.657
74062SOL    HW224019   8.498  12.505   2.790
74063SOL     OW24020   7.270  10.665   1.341
74063SOL    HW124021   7.335  10.721   1.383
74063SOL    HW224022   7.187  10.711   1.353
74064SOL     OW24023   5.939  12.167   6.371
74064SOL    HW124024   5.936  12.236   6.305
74064SOL    HW224025   5.878  12.100   6.340
74065SOL     OW24026  13.874   3.686   3.467
74065SOL    HW124027  13.837   3.606   3.504
74065SOL    HW224028  13.933   3.719   3.536
74066SOL     OW24029   2.120   5.159   0.141
74066SOL    HW124030   2.160   5.137   0.057
74066SOL    HW224031   2.026   5.153   0.125
74067SOL     OW24032  12.423   6.375  14.306
74067SOL    HW124033  12.503   6.341  14.347
74067SOL    HW224034  12.438   6.469  14.296
74068SOL     OW24035   5.330  14.297   1.202
74068SOL    HW124036   5.288  14.378   1.175
74068SOL    HW224037   5.259  14.233   1.205
74069SOL     OW24038   0.398   9.354   2.191
74069SOL    HW124039   0.308   9.362   2.224
74069SOL    HW224040   0.393   9.283   2.126
74070SOL     OW24041   3.129   2.988  11.662
74070SOL    HW124042   3.192   3.060  11.652
74070SOL    HW224043   3.157   2.944  11.743
74071SOL     OW24044   8.010   5.220   0.238
74071SOL    HW124045   7.932   5.240   0.187
74071SOL    HW224046   7.978   5.214   0.328
74072SOL     OW24047  14.682   1.593  12.269
74072SOL    HW124048  14.756   1.534  12.261
74072SOL    HW224049  14.677   1.613  12.363
74073SOL     OW24050   0.278   1.838   8.195
74073SOL    HW124051   0.339   1.870   8.261
74073SOL    HW224052   0.328   1.837   8.114
74074SOL     OW24053   5.039   9.100   9.773
74074SOL    HW124054   5.122   9.069   9.738
74074SOL    HW224055   5.003   9.025   9.820
74075SOL     OW24056   8.256   6.240  10.609
74075SOL    HW124057   8.199   6.310  10.578
74075SOL    HW224058   8.344   6.277  10.603
74076SOL     OW24059   3.915   2.924   2.651
74076SOL    HW124060   3.989   2.976   2.620
74076SOL    HW224061   3.906   2.947   2.743
74077SOL     OW24062  13.122   3.381   5.996
74077SOL    HW124063  13.031   3.410   6.006
74077SOL    HW224064  13.140   3.329   6.074
74078SOL     OW24065   2.441  11.340  13.789
74078SOL    HW124066   2.525  11.362  13.828
74078SOL    HW224067   2.463  11.312  13.700
74079SOL     OW24068   8.551   0.448   3.114
74079SOL    HW124069   8.516   0.528   3.154
74079SOL    HW224070   8.491   0.379   3.143
74080SOL     OW24071   6.834   3.793   7.354
74080SOL    HW124072   6.781   3.735   7.409
74080SOL    HW224073   6.772   3.855   7.317
74081SOL     OW24074   6.062   0.344  14.605
74081SOL    HW124075   6.052   0.252  14.632
74081SOL    HW224076   6.075   0.341  14.511
74082SOL     OW24077   8.215   5.421   3.888
74082SOL    HW124078   8.176   5.413   3.975
74082SOL    HW224079   8.140   5.427   3.829
74083SOL     OW24080   7.564   3.500   7.171
74083SOL    HW124081   7.546   3.436   7.241
74083SOL    HW224082   7.477   3.527   7.141
74084SOL     OW24083  11.456   5.840  10.093
74084SOL    HW124084  11.463   5.754  10.051
74084SOL    HW224085  11.547   5.868  10.105
74085SOL     OW24086   2.400   3.142  13.829
74085SOL    HW124087   2.343   3.215  13.804
74085SOL    HW224088   2.435   3.168  13.914
74086SOL     OW24089   8.827   4.955   8.492
74086SOL    HW124090   8.743   4.934   8.451
74086SOL    HW224091   8.803   4.992   8.577
74087SOL     OW24092   3.357   8.514   6.216
74087SOL    HW124093   3.409   8.553   6.287
74087SOL    HW224094   3.420   8.499   6.146
74088SOL     OW24095   8.990   2.732   5.127
74088SOL    HW124096   9.038   2.806   5.165
74088SOL    HW224097   8.899   2.748   5.153
74089SOL     OW24098   8.513   3.353  10.733
74089SOL    HW124099   8.482   3.268  10.702
74089SOL    HW224100   8.605   3.338  10.756
74090SOL     OW24101   5.465  11.315  13.935
74090SOL    HW124102   5.420  11.232  13.954
74090SOL    HW224103   5.555  11.300  13.963
74091SOL     OW24104   0.009  13.657   1.486
74091SOL    HW124105   0.014  13.564   1.509
74091SOL    HW224106   0.032  13.702   1.567
74092SOL     OW24107  14.533   4.300  10.481
74092SOL    HW124108  14.566   4.358  10.550
74092SOL    HW224109  14.519   4.216  10.525
74093SOL     OW24110   9.663  13.371  12.864
74093SOL    HW124111   9.580  13.403  12.829
74093SOL    HW224112   9.718  13.357  12.786
74094SOL     OW24113   3.834   4.818   7.656
74094SOL    HW124114   3.800   4.881   7.592
74094SOL    HW224115   3.929   4.827   7.651
74095SOL     OW24116   7.905   0.354  10.875
74095SOL    HW124117   7.873   0.285  10.816
74095SOL    HW224118   7.841   0.355  10.946
74096SOL     OW24119   2.221   9.968   2.413
74096SOL    HW124120   2.131   9.986   2.439
74096SOL    HW224121   2.247   9.892   2.465
74097SOL     OW24122   8.689   1.912   2.082
74097SOL    HW124123   8.749   1.841   2.104
74097SOL    HW224124   8.721   1.947   1.999
74098SOL     OW24125   7.645  14.281  14.091
74098SOL    HW124126   7.594  14.214  14.046
74098SOL    HW224127   7.682  14.334  14.021
74099SOL     OW24128   4.437   4.206  12.383
74099SOL    HW124129   4.512   4.214  12.442
74099SOL    HW224130   4.462   4.257  12.306
74100SOL     OW24131   0.941   1.048   5.227
74100SOL    HW124132   1.006   0.993   5.182
74100SOL    HW224133   0.910   0.993   5.299
74101SOL     OW24134  10.055   3.893   4.241
74101SOL    HW124135  10.013   3.808   4.234
74101SOL    HW224136  10.027   3.941   4.163
74102SOL     OW24137  11.577   7.683   7.765
74102SOL    HW124138  11.615   7.743   7.829
74102SOL    HW224139  11.498   7.727   7.735
74103SOL     OW24140   8.008   4.720   8.764
74103SOL    HW124141   8.064   4.737   8.688
74103SOL    HW224142   8.010   4.625   8.774
74104SOL     OW24143   3.517   7.925  11.436
74104SOL    HW124144   3.533   7.887  11.349
74104SOL    HW224145   3.569   8.005  11.438
74105SOL     OW24146   8.858  13.393   6.662
74105SOL    HW124147   8.791  13.383   6.730
74105SOL    HW224148   8.941  13.393   6.709
74106SOL     OW24149  11.495   3.834   6.469
74106SOL    HW124150  11.452   3.832   6.555
74106SOL    HW224151  11.521   3.744   6.453
74107SOL     OW24152  12.456   3.026   4.267
74107SOL    HW124153  12.469   3.093   4.333
74107SOL    HW224154  12.534   2.970   4.273
74108SOL     OW24155  14.603  12.239  14.613
74108SOL    HW124156  14.544  12.308  14.582
74108SOL    HW224157  14.580  12.227  14.705
74109SOL     OW24158   5.083   0.670  12.140
74109SOL    HW124159   5.046   0.743  12.190
74109SOL    HW224160   5.006   0.622  12.108
74110SOL     OW24161   0.152  10.085  10.906
74110SOL    HW124162   0.075  10.141  10.895
74110SOL    HW224163   0.146  10.055  10.997
74111SOL     OW24164   1.663   9.316   7.354
74111SOL    HW124165   1.667   9.377   7.280
74111SOL    HW224166   1.575   9.327   7.390
74112SOL     OW24167   5.620   8.093  14.012
74112SOL    HW124168   5.675   8.101  14.090
74112SOL    HW224169   5.584   8.181  13.999
74113SOL     OW24170   7.601   2.378  12.418
74113SOL    HW124171   7.565   2.463  12.444
74113SOL    HW224172   7.653   2.350  12.493
74114SOL     OW24173   9.597   9.145  12.770
74114SOL    HW124174   9.571   9.172  12.858
74114SOL    HW224175   9.623   9.226  12.727
74115SOL     OW24176   5.962   4.451  13.302
74115SOL    HW124177   6.039   4.401  13.273
74115SOL    HW224178   5.928   4.402  13.377
74116SOL     OW24179   0.633   0.189   1.299
74116SOL    HW124180   0.706   0.171   1.358
74116SOL    HW224181   0.578   0.110   1.305
74117SOL     OW24182   3.112   5.040  10.891
74117SOL    HW124183   3.065   5.081  10.819
74117SOL    HW224184   3.117   5.107  10.958
74118SOL     OW24185  13.705  11.550  13.773
74118SOL    HW124186  13.728  11.607  13.700
74118SOL    HW224187  13.788  11.514  13.803
74119SOL     OW24188   1.333   5.231   6.316
74119SOL    HW124189   1.259   5.286   6.290
74119SOL    HW224190   1.308   5.142   6.290
74120SOL     OW24191   8.961  10.225   9.911
74120SOL    HW124192   9.014  10.267   9.844
74120SOL    HW224193   8.949  10.293   9.978
74121SOL     OW24194  13.070  13.479   2.768
74121SOL    HW124195  13.016  13.548   2.730
74121SOL    HW224196  13.010  13.406   2.782
74122SOL     OW24197   6.115  13.495   9.307
74122SOL    HW124198   6.138  13.562   9.372
74122SOL    HW224199   6.190  13.491   9.249
74123SOL     OW24200  12.658   1.959   7.067
74123SOL    HW124201  12.660   1.907   7.147
74123SOL    HW224202  12.663   1.895   6.996
74124SOL     OW24203   6.443   0.103   2.351
74124SOL    HW124204   6.502   0.042   2.306
74124SOL    HW224205   6.465   0.094   2.443
74125SOL     OW24206   7.302  12.731   1.779
74125SOL    HW124207   7.359  12.807   1.792
74125SOL    HW224208   7.214  12.768   1.774
74126SOL     OW24209   1.296   6.300   0.097
74126SOL    HW124210   1.265   6.288   0.007
74126SOL    HW224211   1.260   6.225   0.145
74127SOL     OW24212   7.711   3.996   6.683
74127SOL    HW124213   7.785   4.021   6.739
74127SOL    HW224214   7.651   3.949   6.742
74128SOL     OW24215   0.744   7.683  10.092
74128SOL    HW124216   0.780   7.614  10.036
74128SOL    HW224217   0.656   7.698  10.057
74129SOL     OW24218   8.657  10.757  14.025
74129SOL    HW124219   8.577  10.765  14.076
74129SOL    HW224220   8.674  10.845  13.992
74130SOL     OW24221   9.386  10.251   4.999
74130SOL    HW124222   9.422  10.340   5.004
74130SOL    HW224223   9.329  10.245   5.076
74131SOL     OW24224   3.327   3.528   4.212
74131SOL    HW124225   3.256   3.481   4.168
74131SOL    HW224226   3.406   3.480   4.187
74132SOL     OW24227   7.731   4.406  12.115
74132SOL    HW124228   7.744   4.376  12.025
74132SOL    HW224229   7.640   4.384  12.135
74133SOL     OW24230   8.237   0.927   4.908
74133SOL    HW124231   8.226   1.022   4.907
74133SOL    HW224232   8.242   0.904   5.000
74134SOL     OW24233  10.090   3.127  11.146
74134SOL    HW124234  10.016   3.075  11.114
74134SOL    HW224235  10.136   3.068  11.206
74135SOL     OW24236   7.433   8.937   8.224
74135SOL    HW124237   7.515   8.931   8.273
74135SOL    HW224238   7.427   9.029   8.197
74136SOL     OW24239  10.357  11.212   2.048
74136SOL    HW124240  10.441  11.227   2.006
74136SOL    HW224241  10.335  11.295   2.090
74137SOL     OW24242  12.849   4.732   1.484
74137SOL    HW124243  12.873   4.651   1.439
74137SOL    HW224244  12.928   4.785   1.482
74138SOL     OW24245   4.505   4.862   6.570
74138SOL    HW124246   4.472   4.907   6.648
74138SOL    HW224247   4.542   4.932   6.516
74139SOL     OW24248   2.681   1.943   7.821
74139SOL    HW124249   2.765   1.937   7.774
74139SOL    HW224250   2.688   1.877   7.890
74140SOL     OW24251   6.636   2.119   2.754
74140SOL    HW124252   6.633   2.188   2.821
74140SOL    HW224253   6.598   2.160   2.676
74141SOL     OW24254   2.755   7.246   4.335
74141SOL    HW124255   2.777   7.259   4.428
74141SOL    HW224256   2.719   7.330   4.307
74142SOL     OW24257  14.242   3.603  10.771
74142SOL    HW124258  14.189   3.637  10.843
74142SOL    HW224259  14.194   3.628  10.692
74143SOL     OW24260   5.057  14.112  10.608
74143SOL    HW124261   5.100  14.195  10.628
74143SOL    HW224262   4.964  14.132  10.613
74144SOL     OW24263   1.365   0.668  13.936
74144SOL    HW124264   1.453   0.703  13.921
74144SOL    HW224265   1.371   0.622  14.020
74145SOL     OW24266  11.211   9.691   0.563
74145SOL    HW124267  11.178   9.766   0.514
74145SOL    HW224268  11.280   9.726   0.619
74146SOL     OW24269  11.454  11.122   8.901
74146SOL    HW124270  11.363  11.143   8.881
74146SOL    HW224271  11.478  11.054   8.838
74147SOL     OW24272  13.968  11.213   1.623
74147SOL    HW124273  13.877  11.184   1.619
74147SOL    HW224274  13.962  11.308   1.629
74148SOL     OW24275  11.809  10.499   6.699
74148SOL    HW124276  11.785  10.543   6.617
74148SOL    HW224277  11.735  10.517   6.757
74149SOL     OW24278  11.264   3.024   9.157
74149SOL    HW124279  11.224   3.069   9.082
74149SOL    HW224280  11.196   2.962   9.185
74150SOL     OW24281   8.000  13.799   2.193
74150SOL    HW124282   8.031  13.711   2.175
74150SOL    HW224283   7.965  13.795   2.282
74151SOL     OW24284   1.639  12.322  10.856
74151SOL    HW124285   1.546  12.306  10.876
74151SOL    HW224286   1.687  12.276  10.925
74152SOL     OW24287   6.424   7.024  10.830
74152SOL    HW124288   6.461   6.978  10.906
74152SOL    HW224289   6.473   7.106  10.825
74153SOL     OW24290   6.416  11.314  14.803
74153SOL    HW124291   6.348  11.247  14.796
74153SOL    HW224292   6.452  11.320  14.714
74154SOL     OW24293   7.554   8.369   8.670
74154SOL    HW124294   7.522   8.287   8.631
74154SOL    HW224295   7.493   8.436   8.638
74155SOL     OW24296   2.787   8.089  10.095
74155SOL    HW124297   2.703   8.074  10.051
74155SOL    HW224298   2.777   8.174  10.137
74156SOL     OW24299   9.414   3.705  10.327
74156SOL    HW124300   9.319   3.704  10.320
74156SOL    HW224301   9.439   3.613  10.338
74157SOL     OW24302   7.357   4.738   6.995
74157SOL    HW124303   7.441   4.693   6.998
74157SOL    HW224304   7.299   4.684   7.048
74158SOL     OW24305  11.097   9.645  14.404
74158SOL    HW124306  11.105   9.629  14.310
74158SOL    HW224307  11.130   9.565  14.445
74159SOL     OW24308   8.882   5.096  11.545
74159SOL    HW124309   8.970   5.128  11.528
74159SOL    HW224310   8.837   5.104  11.461
74160SOL     OW24311  10.470  12.922   7.699
74160SOL    HW124312  10.463  13.015   7.720
74160SOL    HW224313  10.430  12.914   7.613
74161SOL     OW24314   2.256   0.191   7.303
74161SOL    HW124315   2.291   0.275   7.333
74161SOL    HW224316   2.292   0.179   7.216
74162SOL     OW24317   2.115  12.159  11.252
74162SOL    HW124318   2.030  12.202  11.259
74162SOL    HW224319   2.102  12.092  11.184
74163SOL     OW24320   6.945   0.981   6.915
74163SOL    HW124321   6.976   1.072   6.918
74163SOL    HW224322   6.994   0.937   6.984
74164SOL     OW24323   7.056  10.406   7.624
74164SOL    HW124324   7.124  10.473   7.635
74164SOL    HW224325   7.104  10.326   7.601
74165SOL     OW24326  10.939   9.566  12.372
74165SOL    HW124327  10.850   9.530  12.379
74165SOL    HW224328  10.927   9.648  12.323
74166SOL     OW24329   1.234  13.661   1.734
74166SOL    HW124330   1.253  13.698   1.648
74166SOL    HW224331   1.273  13.722   1.796
74167SOL     OW24332   0.386   6.179   6.344
74167SOL    HW124333   0.335   6.244   6.392
74167SOL    HW224334   0.330   6.102   6.340
74168SOL     OW24335   5.052  13.300   6.287
74168SOL    HW124336   5.076  13.269   6.374
74168SOL    HW224337   4.960  13.324   6.294
74169SOL     OW24338  13.161   7.438   8.604
74169SOL    HW124339  13.243   7.389   8.596
74169SOL    HW224340  13.129   7.447   8.515
74170SOL     OW24341  10.165  13.315  11.691
74170SOL    HW124342  10.136  13.341  11.778
74170SOL    HW224343  10.165  13.397  11.641
74171SOL     OW24344   8.437   7.911  10.365
74171SOL    HW124345   8.410   7.998  10.338
74171SOL    HW224346   8.496   7.925  10.439
74172SOL     OW24347   3.729  14.825   6.680
74172SOL    HW124348   3.658   0.002   6.707
74172SOL    HW224349   3.792  14.829   6.751
74173SOL     OW24350  14.831   2.271  11.488
74173SOL    HW124351   0.017   2.336  11.470
74173SOL    HW224352  14.749   2.320  11.485
74174SOL     OW24353  10.979  11.684  14.558
74174SOL    HW124354  11.012  11.711  14.644
74174SOL    HW224355  10.941  11.764  14.521
74175SOL     OW24356   4.458  14.812   4.275
74175SOL    HW124357   4.444  14.731   4.324
74175SOL    HW224358   4.370  14.842   4.253
74176SOL     OW24359   6.391  14.391  10.628
74176SOL    HW124360   6.448  14.461  10.595
74176SOL    HW224361   6.369  14.340  10.551
74177SOL     OW24362  14.244   3.014   7.714
74177SOL    HW124363  14.229   2.960   7.637
74177SOL    HW224364  14.335   3.041   7.707
74178SOL     OW24365   3.687   1.859   1.736
74178SOL    HW124366   3.607   1.858   1.789
74178SOL    HW224367   3.758   1.855   1.800
74179SOL     OW24368   4.220  12.077   1.630
74179SOL    HW124369   4.315  12.074   1.627
74179SOL    HW224370   4.196  12.130   1.554
74180SOL     OW24371  12.060   2.667  12.123
74180SOL    HW124372  12.048   2.678  12.217
74180SOL    HW224373  11.984   2.709  12.084
74181SOL     OW24374   4.118   9.534   9.088
74181SOL    HW124375   4.066   9.568   9.161
74181SOL    HW224376   4.197   9.588   9.089
74182SOL     OW24377   5.866   1.048   3.501
74182SOL    HW124378   5.945   1.045   3.447
74182SOL    HW224379   5.797   1.075   3.441
74183SOL     OW24380   0.919   5.745   7.069
74183SOL    HW124381   0.841   5.800   7.074
74183SOL    HW224382   0.907   5.680   7.139
74184SOL     OW24383  11.479   9.699  14.354
74184SOL    HW124384  11.440   9.760  14.416
74184SOL    HW224385  11.467   9.740  14.269
74185SOL     OW24386  14.126  10.717   1.559
74185SOL    HW124387  14.156  10.627   1.551
74185SOL    HW224388  14.201  10.770   1.532
74186SOL     OW24389  13.201   0.427  14.318
74186SOL    HW124390  13.261   0.359  14.286
74186SOL    HW224391  13.202   0.493  14.248
74187SOL     OW24392  14.691   6.769  12.465
74187SOL    HW124393  14.702   6.704  12.396
74187SOL    HW224394  14.605   6.749  12.503
74188SOL     OW24395   1.160   5.099   3.116
74188SOL    HW124396   1.092   5.142   3.063
74188SOL    HW224397   1.227   5.074   3.054
74189SOL     OW24398   0.940   7.836  13.908
74189SOL    HW124399   0.873   7.899  13.932
74189SOL    HW224400   0.987   7.818  13.989
74190SOL     OW24401  12.089   7.059   6.389
74190SOL    HW124402  12.059   7.101   6.470
74190SOL    HW224403  12.008   7.030   6.346
74191SOL     OW24404   9.496   8.289   7.401
74191SOL    HW124405   9.541   8.263   7.481
74191SOL    HW224406   9.433   8.355   7.430
74192SOL     OW24407   5.670   2.070   8.315
74192SOL    HW124408   5.703   2.096   8.229
74192SOL    HW224409   5.663   2.153   8.364
74193SOL     OW24410   6.600   1.786   8.976
74193SOL    HW124411   6.573   1.811   8.887
74193SOL    HW224412   6.667   1.719   8.962
74194SOL     OW24413   4.725  10.245   0.467
74194SOL    HW124414   4.720  10.258   0.562
74194SOL    HW224415   4.813  10.212   0.452
74195SOL     OW24416   8.648   3.300   1.574
74195SOL    HW124417   8.594   3.258   1.507
74195SOL    HW224418   8.598   3.292   1.655
74196SOL     OW24419  10.332  14.434   9.818
74196SOL    HW124420  10.422  14.452   9.845
74196SOL    HW224421  10.284  14.424   9.899
74197SOL     OW24422   4.588   7.555   3.326
74197SOL    HW124423   4.589   7.634   3.380
74197SOL    HW224424   4.671   7.558   3.278
74198SOL     OW24425  12.187   9.933   8.976
74198SOL    HW124426  12.241   9.878   9.033
74198SOL    HW224427  12.100   9.894   8.980
74199SOL     OW24428   8.222   8.966  11.112
74199SOL    HW124429   8.166   9.015  11.052
74199SOL    HW224430   8.305   8.956  11.066
74200SOL     OW24431  11.015   0.467   2.630
74200SOL    HW124432  11.108   0.482   2.616
74200SOL    HW224433  10.995   0.515   2.711
74201SOL     OW24434  13.337   3.833   9.590
74201SOL    HW124435  13.398   3.890   9.544
74201SOL    HW224436  13.313   3.882   9.669
74202SOL     OW24437   5.203  12.978  11.745
74202SOL    HW124438   5.223  12.940  11.831
74202SOL    HW224439   5.109  12.995  11.747
74203SOL     OW24440  12.741  14.843   0.778
74203SOL    HW124441  12.756  14.805   0.865
74203SOL    HW224442  12.814   0.021   0.766
74204SOL     OW24443   4.784   7.103   7.006
74204SOL    HW124444   4.707   7.160   7.002
74204SOL    HW224445   4.846   7.140   6.944
74205SOL     OW24446  14.084   8.971  14.213
74205SOL    HW124447  14.168   8.927  14.228
74205SOL    HW224448  14.019   8.902  14.221
74206SOL     OW24449  13.473   0.806   4.188
74206SOL    HW124450  13.430   0.793   4.273
74206SOL    HW224451  13.435   0.740   4.131
74207SOL     OW24452   3.013   5.366  11.600
74207SOL    HW124453   3.050   5.397  11.517
74207SOL    HW224454   3.081   5.310  11.638
74208SOL     OW24455   6.716   0.025  10.497
74208SOL    HW124456   6.772   0.093  10.535
74208SOL    HW224457   6.729   0.033  10.403
74209SOL     OW24458   2.192   8.293   6.469
74209SOL    HW124459   2.231   8.286   6.382
74209SOL    HW224460   2.099   8.305   6.454
74210SOL     OW24461   5.292   5.008   3.692
74210SOL    HW124462   5.382   4.978   3.674
74210SOL    HW224463   5.269   5.059   3.615
74211SOL     OW24464  10.983   6.710   3.645
74211SOL    HW124465  11.001   6.681   3.556
74211SOL    HW224466  11.066   6.699   3.692
74212SOL     OW24467  13.986   6.500   3.580
74212SOL    HW124468  13.931   6.547   3.641
74212SOL    HW224469  14.076   6.516   3.610
74213SOL     OW24470   3.511   2.101  13.036
74213SOL    HW124471   3.429   2.060  13.008
74213SOL    HW224472   3.542   2.046  13.108
74214SOL     OW24473   4.954   5.517   6.704
74214SOL    HW124474   5.019   5.556   6.763
74214SOL    HW224475   5.005   5.482   6.631
74215SOL     OW24476   7.648  11.672   3.243
74215SOL    HW124477   7.610  11.713   3.321
74215SOL    HW224478   7.726  11.628   3.275
74216SOL     OW24479   8.241   0.996   3.492
74216SOL    HW124480   8.237   1.091   3.503
74216SOL    HW224481   8.153   0.973   3.462
74217SOL     OW24482   0.029  14.635  14.723
74217SOL    HW124483   0.063  14.553  14.687
74217SOL    HW224484   0.058  14.634  14.814
74218SOL     OW24485   6.808   8.089   9.368
74218SOL    HW124486   6.716   8.103   9.389
74218SOL    HW224487   6.809   8.012   9.312
74219SOL     OW24488   8.059   4.595   3.067
74219SOL    HW124489   8.059   4.657   3.140
74219SOL    HW224490   8.136   4.619   3.014
74220SOL     OW24491   0.658   3.343   9.276
74220SOL    HW124492   0.611   3.325   9.357
74220SOL    HW224493   0.707   3.263   9.258
74221SOL     OW24494   6.319  10.904  14.851
74221SOL    HW124495   6.394  10.850  14.828
74221SOL    HW224496   6.356  10.978   0.017
74222SOL     OW24497   3.686   9.981   3.703
74222SOL    HW124498   3.714   9.926   3.630
74222SOL    HW224499   3.734   9.947   3.779
74223SOL     OW24500  10.656   7.017   9.821
74223SOL    HW124501  10.612   6.999   9.904
74223SOL    HW224502  10.665   7.113   9.820
74224SOL     OW24503   1.802   6.080  12.053
74224SOL    HW124504   1.710   6.106  12.046
74224SOL    HW224505   1.826   6.098  12.144
74225SOL     OW24506  11.250   9.461   3.703
74225SOL    HW124507  11.265   9.540   3.755
74225SOL    HW224508  11.169   9.479   3.655
74226SOL     OW24509   3.100   1.522   0.325
74226SOL    HW124510   3.062   1.575   0.255
74226SOL    HW224511   3.103   1.580   0.401
74227SOL     OW24512   1.795   6.040   4.725
74227SOL    HW124513   1.872   6.053   4.670
74227SOL    HW224514   1.754   5.961   4.690
74228SOL     OW24515   1.349  11.262   6.361
74228SOL    HW124516   1.405  11.339   6.365
74228SOL    HW224517   1.398  11.194   6.406
74229SOL     OW24518   9.706  13.837   9.773
74229SOL    HW124519   9.702  13.778   9.847
74229SOL    HW224520   9.615  13.863   9.758
74230SOL     OW24521   8.093   9.836   5.362
74230SOL    HW124522   8.031   9.872   5.425
74230SOL    HW224523   8.089   9.895   5.287
74231SOL     OW24524  10.684   5.955  11.110
74231SOL    HW124525  10.729   5.926  11.189
74231SOL    HW224526  10.723   6.040  11.091
74232SOL     OW24527  10.976   6.409  10.006
74232SOL    HW124528  11.001   6.501  10.000
74232SOL    HW224529  11.047   6.362   9.963
74233SOL     OW24530  11.028   7.782   9.059
74233SOL    HW124531  11.019   7.875   9.079
74233SOL    HW224532  10.943   7.757   9.025
74234SOL     OW24533  10.199   8.691  13.984
74234SOL    HW124534  10.224   8.645  14.065
74234SOL    HW224535  10.276   8.744  13.962
74235SOL     OW24536   4.454   5.073  13.239
74235SOL    HW124537   4.426   5.138  13.303
74235SOL    HW224538   4.392   5.000  13.250
74236SOL     OW24539   0.205   0.281   6.341
74236SOL    HW124540   0.215   0.186   6.331
74236SOL    HW224541   0.111   0.295   6.348
74237SOL     OW24542   1.502   9.917   2.995
74237SOL    HW124543   1.420   9.873   2.972
74237SOL    HW224544   1.476   9.988   3.054
74238SOL     OW24545  13.035   4.267   6.631
74238SOL    HW124546  12.954   4.249   6.583
74238SOL    HW224547  13.071   4.345   6.588
74239SOL     OW24548   6.009  12.377   2.178
74239SOL    HW124549   5.948  12.333   2.238
74239SOL    HW224550   6.007  12.323   2.099
74240SOL     OW24551  14.466   1.233   2.393
74240SOL    HW124552  14.509   1.189   2.320
74240SOL    HW224553  14.380   1.192   2.399
74241SOL     OW24554  11.849   7.375   1.266
74241SOL    HW124555  11.827   7.305   1.327
74241SOL    HW224556  11.764   7.405   1.233
74242SOL     OW24557   3.000   5.841   3.901
74242SOL    HW124558   3.031   5.924   3.864
74242SOL    HW224559   2.983   5.861   3.993
74243SOL     OW24560   9.231   4.208   9.088
74243SOL    HW124561   9.219   4.124   9.044
74243SOL    HW224562   9.155   4.260   9.062
74244SOL     OW24563   7.343   0.186   4.459
74244SOL    HW124564   7.317   0.262   4.406
74244SOL    HW224565   7.392   0.224   4.532
74245SOL     OW24566  13.893   8.907  13.787
74245SOL    HW124567  13.980   8.946  13.782
74245SOL    HW224568  13.846   8.945  13.712
74246SOL     OW24569   1.425   1.762  11.427
74246SOL    HW124570   1.459   1.688  11.477
74246SOL    HW224571   1.459   1.750  11.338
74247SOL     OW24572  14.141  13.237   3.655
74247SOL    HW124573  14.206  13.190   3.602
74247SOL    HW224574  14.066  13.178   3.660
74248SOL     OW24575   0.313   2.277   6.210
74248SOL    HW124576   0.255   2.262   6.136
74248SOL    HW224577   0.379   2.208   6.203
74249SOL     OW24578  11.624   3.057   8.656
74249SOL    HW124579  11.718   3.043   8.665
74249SOL    HW224580  11.607   3.044   8.562
74250SOL     OW24581   1.340   8.689   8.411
74250SOL    HW124582   1.414   8.723   8.462
74250SOL    HW224583   1.314   8.762   8.355
74251SOL     OW24584   2.629  10.177   2.564
74251SOL    HW124585   2.616  10.216   2.651
74251SOL    HW224586   2.716  10.138   2.569
74252SOL     OW24587   7.714   8.927   5.493
74252SOL    HW124588   7.697   9.003   5.549
74252SOL    HW224589   7.672   8.854   5.539
74253SOL     OW24590   7.959   9.332  12.418
74253SOL    HW124591   7.905   9.372  12.350
74253SOL    HW224592   7.923   9.243  12.427
74254SOL     OW24593  10.614   0.489   7.437
74254SOL    HW124594  10.634   0.535   7.518
74254SOL    HW224595  10.536   0.534   7.403
74255SOL     OW24596   1.158   4.941  12.617
74255SOL    HW124597   1.068   4.973  12.621
74255SOL    HW224598   1.212   5.020  12.624
74256SOL     OW24599   1.130  13.196   7.102
74256SOL    HW124600   1.105  13.129   7.039
74256SOL    HW224601   1.081  13.274   7.075
74257SOL     OW24602   5.219  14.801   5.912
74257SOL    HW124603   5.312  14.819   5.898
74257SOL    HW224604   5.175  14.841   5.836
74258SOL     OW24605   1.950  13.354   0.013
74258SOL    HW124606   2.009  13.278   0.008
74258SOL    HW224607   1.983  13.405   0.087
74259SOL     OW24608   4.513  14.724   6.834
74259SOL    HW124609   4.604  14.696   6.846
74259SOL    HW224610   4.461  14.661   6.883
74260SOL     OW24611   4.079   2.193   3.259
74260SOL    HW124612   4.037   2.139   3.192
74260SOL    HW224613   4.075   2.282   3.225
74261SOL     OW24614  12.037   7.139   4.338
74261SOL    HW124615  12.045   7.046   4.316
74261SOL    HW224616  12.001   7.139   4.427
74262SOL     OW24617   8.302  10.047   9.760
74262SOL    HW124618   8.248  10.010   9.830
74262SOL    HW224619   8.302  10.141   9.778
74263SOL     OW24620   7.545   8.125   8.544
74263SOL    HW124621   7.589   8.058   8.597
74263SOL    HW224622   7.613   8.158   8.486
74264SOL     OW24623  13.833  14.120  11.627
74264SOL    HW124624  13.893  14.182  11.669
74264SOL    HW224625  13.864  14.034  11.654
74265SOL     OW24626   7.736   8.375  13.950
74265SOL    HW124627   7.741   8.375  13.855
74265SOL    HW224628   7.665   8.314  13.970
74266SOL     OW24629   5.871  12.740   5.821
74266SOL    HW124630   5.794  12.773   5.775
74266SOL    HW224631   5.896  12.811   5.880
74267SOL     OW24632   1.869   0.380   4.182
74267SOL    HW124633   1.854   0.463   4.136
74267SOL    HW224634   1.915   0.405   4.263
74268SOL     OW24635   2.773   5.739  13.739
74268SOL    HW124636   2.851   5.691  13.711
74268SOL    HW224637   2.776   5.820  13.688
74269SOL     OW24638  14.859   4.677   6.119
74269SOL    HW124639   0.033   4.730   6.062
74269SOL    HW224640   0.012   4.588   6.110
74270SOL     OW24641  10.907   9.969   7.341
74270SOL    HW124642  10.874   9.941   7.256
74270SOL    HW224643  10.853   9.922   7.405
74271SOL     OW24644   2.414   2.795   7.009
74271SOL    HW124645   2.455   2.744   6.939
74271SOL    HW224646   2.488   2.831   7.058
74272SOL     OW24647   5.046   9.089  12.106
74272SOL    HW124648   5.080   9.178  12.098
74272SOL    HW224649   5.073   9.060  12.193
74273SOL     OW24650  14.784   8.187   2.727
74273SOL    HW124651  14.797   8.125   2.655
74273SOL    HW224652  14.711   8.242   2.698
74274SOL     OW24653   8.754   4.223   5.796
74274SOL    HW124654   8.798   4.244   5.714
74274SOL    HW224655   8.787   4.287   5.859
74275SOL     OW24656  13.801  13.651   9.888
74275SOL    HW124657  13.763  13.723   9.939
74275SOL    HW224658  13.765  13.572   9.927
74276SOL     OW24659  14.473   4.475   9.405
74276SOL    HW124660  14.381   4.462   9.383
74276SOL    HW224661  14.487   4.417   9.480
74277SOL     OW24662  12.358  14.579   9.256
74277SOL    HW124663  12.320  14.492   9.246
74277SOL    HW224664  12.338  14.623   9.173
74278SOL     OW24665   7.484  11.284   3.823
74278SOL    HW124666   7.451  11.320   3.741
74278SOL    HW224667   7.532  11.206   3.797
74279SOL     OW24668   7.768  14.643   4.099
74279SOL    HW124669   7.832  14.699   4.145
74279SOL    HW224670   7.707  14.705   4.060
74280SOL     OW24671   6.876   7.099  11.548
74280SOL    HW124672   6.884   7.159  11.475
74280SOL    HW224673   6.804   7.135  11.601
74281SOL     OW24674  13.572  14.315   0.912
74281SOL    HW124675  13.577  14.226   0.947
74281SOL    HW224676  13.651  14.325   0.858
74282SOL     OW24677   8.123  13.139   5.701
74282SOL    HW124678   8.198  13.125   5.643
74282SOL    HW224679   8.100  13.231   5.690
74283SOL     OW24680   7.927  10.171   2.655
74283SOL    HW124681   7.832  10.161   2.661
74283SOL    HW224682   7.945  10.175   2.561
74284SOL     OW24683   0.746   4.427  13.825
74284SOL    HW124684   0.784   4.362  13.883
74284SOL    HW224685   0.655   4.436  13.855
74285SOL     OW24686   6.770  14.632   2.856
74285SOL    HW124687   6.818  14.550   2.866
74285SOL    HW224688   6.763  14.645   2.762
74286SOL     OW24689  13.399  10.329   3.612
74286SOL    HW124690  13.315  10.366   3.585
74286SOL    HW224691  13.459  10.350   3.540
74287SOL     OW24692  11.846   4.335   7.235
74287SOL    HW124693  11.927   4.290   7.211
74287SOL    HW224694  11.790   4.327   7.158
74288SOL     OW24695  11.627  12.899   0.900
74288SOL    HW124696  11.636  12.924   0.992
74288SOL    HW224697  11.714  12.870   0.874
74289SOL     OW24698   5.558   3.039   8.255
74289SOL    HW124699   5.622   3.077   8.315
74289SOL    HW224700   5.603   2.964   8.217
74290SOL     OW24701   8.413   0.754  12.364
74290SOL    HW124702   8.372   0.743  12.278
74290SOL    HW224703   8.401   0.669  12.407
74291SOL     OW24704   7.922  10.448  10.702
74291SOL    HW124705   8.006  10.434  10.747
74291SOL    HW224706   7.942  10.514  10.636
74292SOL     OW24707   9.934  12.362   8.211
74292SOL    HW124708   9.896  12.279   8.184
74292SOL    HW224709  10.010  12.338   8.265
74293SOL     OW24710   5.866   4.058  13.278
74293SOL    HW124711   5.820   4.123  13.225
74293SOL    HW224712   5.861   4.092  13.367
74294SOL     OW24713   3.797   0.980   6.349
74294SOL    HW124714   3.721   1.037   6.364
74294SOL    HW224715   3.868   1.040   6.326
74295SOL     OW24716   0.712   2.673   9.108
74295SOL    HW124717   0.727   2.585   9.075
74295SOL    HW224718   0.794   2.719   9.091
74296SOL     OW24719   8.100   2.799  10.036
74296SOL    HW124720   8.009   2.822  10.018
74296SOL    HW224721   8.146   2.882  10.036
74297SOL     OW24722  11.550   8.943   1.531
74297SOL    HW124723  11.627   8.998   1.549
74297SOL    HW224724  11.575   8.856   1.561
74298SOL     OW24725   0.570   1.650   6.192
74298SOL    HW124726   0.500   1.626   6.130
74298SOL    HW224727   0.586   1.570   6.242
74299SOL     OW24728   5.509   4.364  14.298
74299SOL    HW124729   5.515   4.445  14.247
74299SOL    HW224730   5.417   4.338  14.289
74300SOL     OW24731  10.613   2.984  13.824
74300SOL    HW124732  10.675   2.919  13.792
74300SOL    HW224733  10.575   2.944  13.902
74301SOL     OW24734  10.883  14.374  11.605
74301SOL    HW124735  10.924  14.455  11.635
74301SOL    HW224736  10.789  14.390  11.615
74302SOL     OW24737   1.969  10.880  11.955
74302SOL    HW124738   2.054  10.862  11.914
74302SOL    HW224739   1.914  10.807  11.928
74303SOL     OW24740   8.615  10.663   3.431
74303SOL    HW124741   8.578  10.740   3.387
74303SOL    HW224742   8.629  10.601   3.360
74304SOL     OW24743   2.288  13.763  13.154
74304SOL    HW124744   2.364  13.766  13.097
74304SOL    HW224745   2.310  13.697  13.220
74305SOL     OW24746  13.088   1.341   1.900
74305SOL    HW124747  13.080   1.429   1.865
74305SOL    HW224748  13.169   1.307   1.862
74306SOL     OW24749  10.021   1.561   0.320
74306SOL    HW124750   9.995   1.554   0.228
74306SOL    HW224751  10.115   1.544   0.319
74307SOL     OW24752   6.846   6.220   3.207
74307SOL    HW124753   6.878   6.207   3.118
74307SOL    HW224754   6.765   6.169   3.212
74308SOL     OW24755   5.455   9.713   5.784
74308SOL    HW124756   5.478   9.803   5.809
74308SOL    HW224757   5.382   9.724   5.723
74309SOL     OW24758  12.747   0.629  12.267
74309SOL    HW124759  12.833   0.642  12.307
74309SOL    HW224760  12.767   0.602  12.177
74310SOL     OW24761   3.906   1.730  13.599
74310SOL    HW124762   3.954   1.744  13.681
74310SOL    HW224763   3.917   1.637  13.580
74311SOL     OW24764   4.140  11.154  12.781
74311SOL    HW124765   4.068  11.143  12.718
74311SOL    HW224766   4.219  11.147  12.728
74312SOL     OW24767   4.304  12.352  12.449
74312SOL    HW124768   4.376  12.390  12.500
74312SOL    HW224769   4.278  12.422  12.389
74313SOL     OW24770  12.256   0.876  11.007
74313SOL    HW124771  12.258   0.790  11.051
74313SOL    HW224772  12.228   0.937  11.076
74314SOL     OW24773   4.580   5.847  13.494
74314SOL    HW124774   4.580   5.754  13.517
74314SOL    HW224775   4.543   5.891  13.571
74315SOL     OW24776  11.076   4.729   0.979
74315SOL    HW124777  11.105   4.674   0.906
74315SOL    HW224778  11.138   4.709   1.049
74316SOL     OW24779   6.304   2.999   2.022
74316SOL    HW124780   6.276   2.943   1.949
74316SOL    HW224781   6.297   2.943   2.099
74317SOL     OW24782   4.028   9.978   7.457
74317SOL    HW124783   4.073   9.971   7.372
74317SOL    HW224784   4.033  10.071   7.479
74318SOL     OW24785  14.804  11.105   3.105
74318SOL    HW124786  14.776  11.190   3.138
74318SOL    HW224787   0.017  11.102   3.121
74319SOL     OW24788  13.465   0.075   3.273
74319SOL    HW124789  13.469   0.037   3.185
74319SOL    HW224790  13.556   0.091   3.297
74320SOL     OW24791  13.947   6.230   3.219
74320SOL    HW124792  14.002   6.163   3.178
74320SOL    HW224793  13.858   6.196   3.210
74321SOL     OW24794   3.605   6.516   1.208
74321SOL    HW124795   3.560   6.432   1.211
74321SOL    HW224796   3.623   6.531   1.115
74322SOL     OW24797   4.909   3.535   0.377
74322SOL    HW124798   4.834   3.594   0.376
74322SOL    HW224799   4.876   3.455   0.418
74323SOL     OW24800   3.385   8.506  10.277
74323SOL    HW124801   3.361   8.475  10.364
74323SOL    HW224802   3.360   8.434  10.218
74324SOL     OW24803   5.958   0.841   9.041
74324SOL    HW124804   5.970   0.750   9.069
74324SOL    HW224805   5.912   0.883   9.113
74325SOL     OW24806   7.137  14.868  10.661
74325SOL    HW124807   7.143   0.021  10.572
74325SOL    HW224808   7.105  14.778  10.650
74326SOL     OW24809   1.527   1.413  10.866
74326SOL    HW124810   1.525   1.320  10.845
74326SOL    HW224811   1.453   1.425  10.926
74327SOL     OW24812   5.550  11.635   8.251
74327SOL    HW124813   5.608  11.602   8.319
74327SOL    HW224814   5.525  11.557   8.201
74328SOL     OW24815   2.602   3.878   3.404
74328SOL    HW124816   2.515   3.841   3.390
74328SOL    HW224817   2.636   3.893   3.316
74329SOL     OW24818   0.789   4.892  11.162
74329SOL    HW124819   0.882   4.870  11.153
74329SOL    HW224820   0.789   4.977  11.207
74330SOL     OW24821   6.707   4.209   0.486
74330SOL    HW124822   6.681   4.167   0.404
74330SOL    HW224823   6.775   4.271   0.461
74331SOL     OW24824  11.361   6.214  12.231
74331SOL    HW124825  11.309   6.216  12.151
74331SOL    HW224826  11.394   6.124  12.237
74332SOL     OW24827   6.623   3.820   4.549
74332SOL    HW124828   6.677   3.899   4.554
74332SOL    HW224829   6.658   3.763   4.618
74333SOL     OW24830   2.958  14.815   3.478
74333SOL    HW124831   2.980  14.730   3.516
74333SOL    HW224832   3.033  14.836   3.422
74334SOL     OW24833   2.912   6.184  14.314
74334SOL    HW124834   2.942   6.211  14.228
74334SOL    HW224835   2.964   6.236  14.375
74335SOL     OW24836   8.916   4.598   7.866
74335SOL    HW124837   9.001   4.643   7.865
74335SOL    HW224838   8.928   4.525   7.926
74336SOL     OW24839  14.094  11.938   3.899
74336SOL    HW124840  14.189  11.953   3.900
74336SOL    HW224841  14.069  11.938   3.992
74337SOL     OW24842   0.684  13.323   0.152
74337SOL    HW124843   0.653  13.413   0.146
74337SOL    HW224844   0.767  13.329   0.199
74338SOL     OW24845   2.079   3.965   1.226
74338SOL    HW124846   2.159   3.967   1.173
74338SOL    HW224847   2.079   4.048   1.273
74339SOL     OW24848   7.023   7.392  10.355
74339SOL    HW124849   7.007   7.362  10.266
74339SOL    HW224850   6.963   7.466  10.367
74340SOL     OW24851   0.719  11.678  12.913
74340SOL    HW124852   0.692  11.649  13.000
74340SOL    HW224853   0.791  11.620  12.890
74341SOL     OW24854   8.717   2.423   8.291
74341SOL    HW124855   8.677   2.444   8.375
74341SOL    HW224856   8.644   2.399   8.234
74342SOL     OW24857   8.255  10.134  12.374
74342SOL    HW124858   8.165  10.139  12.343
74342SOL    HW224859   8.272  10.040  12.385
74343SOL     OW24860  13.623   2.286   0.324
74343SOL    HW124861  13.562   2.352   0.291
74343SOL    HW224862  13.704   2.303   0.278
74344SOL     OW24863  12.846   9.160  12.913
74344SOL    HW124864  12.917   9.178  12.975
74344SOL    HW224865  12.815   9.246  12.887
74345SOL     OW24866  12.659  11.606  10.119
74345SOL    HW124867  12.612  11.688  10.136
74345SOL    HW224868  12.695  11.617  10.031
74346SOL     OW24869  11.549   1.822   8.143
74346SOL    HW124870  11.538   1.772   8.062
74346SOL    HW224871  11.495   1.900   8.130
74347SOL     OW24872   6.684   5.432   4.558
74347SOL    HW124873   6.598   5.462   4.590
74347SOL    HW224874   6.701   5.352   4.608
74348SOL     OW24875  14.117   9.668   2.287
74348SOL    HW124876  14.208   9.651   2.261
74348SOL    HW224877  14.118   9.660   2.383
74349SOL     OW24878  12.095  11.465   4.722
74349SOL    HW124879  12.050  11.430   4.645
74349SOL    HW224880  12.126  11.388   4.769
74350SOL     OW24881   3.053   3.227   1.435
74350SOL    HW124882   3.071   3.243   1.342
74350SOL    HW224883   3.100   3.146   1.455
74351SOL     OW24884   9.414   2.602   6.781
74351SOL    HW124885   9.482   2.562   6.727
74351SOL    HW224886   9.362   2.654   6.720
74352SOL     OW24887   2.242   1.755   0.676
74352SOL    HW124888   2.222   1.670   0.638
74352SOL    HW224889   2.268   1.810   0.602
74353SOL     OW24890   7.782   3.775  13.648
74353SOL    HW124891   7.733   3.849  13.683
74353SOL    HW224892   7.835   3.812  13.578
74354SOL     OW24893   5.640   6.991  10.884
74354SOL    HW124894   5.674   6.930  10.949
74354SOL    HW224895   5.637   7.075  10.929
74355SOL     OW24896  11.989  10.847   0.087
74355SOL    HW124897  11.985  10.896   0.005
74355SOL    HW224898  12.033  10.766   0.065
74356SOL     OW24899   0.512  12.587   7.265
74356SOL    HW124900   0.567  12.521   7.307
74356SOL    HW224901   0.479  12.544   7.186
74357SOL     OW24902   9.920   2.955   9.710
74357SOL    HW124903   9.833   2.990   9.688
74357SOL    HW224904   9.966   2.952   9.626
74358SOL     OW24905   5.989  13.301   6.494
74358SOL    HW124906   5.904  13.259   6.484
74358SOL    HW224907   6.050  13.242   6.450
74359SOL     OW24908   1.966   7.593   0.800
74359SOL    HW124909   1.978   7.687   0.814
74359SOL    HW224910   2.005   7.552   0.877
74360SOL     OW24911   4.936   9.791   8.998
74360SOL    HW124912   4.951   9.824   8.910
74360SOL    HW224913   4.871   9.850   9.036
74361SOL     OW24914  10.786  11.895  13.743
74361SOL    HW124915  10.779  11.823  13.681
74361SOL    HW224916  10.880  11.906  13.758
74362SOL     OW24917   5.926  10.041   8.509
74362SOL    HW124918   5.952  10.030   8.601
74362SOL    HW224919   6.008  10.059   8.463
74363SOL     OW24920   2.394  12.781   2.631
74363SOL    HW124921   2.476  12.748   2.668
74363SOL    HW224922   2.332  12.709   2.642
74364SOL     OW24923  13.806   0.620   2.143
74364SOL    HW124924  13.786   0.577   2.227
74364SOL    HW224925  13.796   0.713   2.161
74365SOL     OW24926   1.520   6.861   2.458
74365SOL    HW124927   1.613   6.842   2.454
74365SOL    HW224928   1.485   6.796   2.520
74366SOL     OW24929   0.989   5.125  10.062
74366SOL    HW124930   0.961   5.099   9.974
74366SOL    HW224931   0.983   5.045  10.114
74367SOL     OW24932   7.859  13.077  13.596
74367SOL    HW124933   7.847  13.012  13.527
74367SOL    HW224934   7.772  13.117  13.607
74368SOL     OW24935  10.710   2.666  11.197
74368SOL    HW124936  10.710   2.572  11.217
74368SOL    HW224937  10.718   2.708  11.282
74369SOL     OW24938   7.619   9.229   4.452
74369SOL    HW124939   7.706   9.191   4.468
74369SOL    HW224940   7.616   9.244   4.358
74370SOL     OW24941   8.650  11.496  10.172
74370SOL    HW124942   8.608  11.506  10.257
74370SOL    HW224943   8.695  11.411  10.177
74371SOL     OW24944   7.562  14.392   6.219
74371SOL    HW124945   7.589  14.344   6.298
74371SOL    HW224946   7.585  14.483   6.238
74372SOL     OW24947   7.328   0.099   2.812
74372SOL    HW124948   7.353   0.081   2.902
74372SOL    HW224949   7.244   0.144   2.818
74373SOL     OW24950   0.180   2.749   6.922
74373SOL    HW124951   0.202   2.835   6.886
74373SOL    HW224952   0.237   2.739   6.998
74374SOL     OW24953  10.867   4.212   1.116
74374SOL    HW124954  10.836   4.122   1.123
74374SOL    HW224955  10.790   4.266   1.133
74375SOL     OW24956   1.978   8.123   3.639
74375SOL    HW124957   2.017   8.183   3.576
74375SOL    HW224958   1.956   8.045   3.588
74376SOL     OW24959  10.520   8.226  13.925
74376SOL    HW124960  10.613   8.206  13.913
74376SOL    HW224961  10.497   8.281  13.851
74377SOL     OW24962   5.394   2.507   7.751
74377SOL    HW124963   5.427   2.422   7.722
74377SOL    HW224964   5.457   2.535   7.817
74378SOL     OW24965  14.620   2.539   5.319
74378SOL    HW124966  14.536   2.578   5.295
74378SOL    HW224967  14.656   2.507   5.236
74379SOL     OW24968   9.956  11.015  10.097
74379SOL    HW124969   9.964  10.981  10.008
74379SOL    HW224970  10.045  11.007  10.133
74380SOL     OW24971  13.436   5.948  12.524
74380SOL    HW124972  13.498   5.886  12.563
74380SOL    HW224973  13.394   5.899  12.453
74381SOL     OW24974  10.478   1.591   9.235
74381SOL    HW124975  10.433   1.676   9.229
74381SOL    HW224976  10.418   1.536   9.286
74382SOL     OW24977   6.242   5.580   3.423
74382SOL    HW124978   6.276   5.670   3.419
74382SOL    HW224979   6.227   5.564   3.516
74383SOL     OW24980   7.897   0.117  13.396
74383SOL    HW124981   7.991   0.123  13.414
74383SOL    HW224982   7.874   0.027  13.419
74384SOL     OW24983  10.029   4.312   4.497
74384SOL    HW124984  10.064   4.227   4.521
74384SOL    HW224985  10.072   4.374   4.556
74385SOL     OW24986   9.352  12.080  14.114
74385SOL    HW124987   9.280  12.021  14.134
74385SOL    HW224988   9.321  12.133  14.041
74386SOL     OW24989  12.208  11.466  10.736
74386SOL    HW124990  12.201  11.448  10.830
74386SOL    HW224991  12.289  11.516  10.728
74387SOL     OW24992  14.348   0.274   3.660
74387SOL    HW124993  14.369   0.258   3.568
74387SOL    HW224994  14.328   0.367   3.664
74388SOL     OW24995   7.304   8.916  11.402
74388SOL    HW124996   7.263   8.830  11.404
74388SOL    HW224997   7.332   8.928  11.311
74389SOL     OW24998  14.479   0.235  12.197
74389SOL    HW124999  14.409   0.171  12.209
74389SOL    HW225000  14.434   0.319  12.190
74390SOL     OW25001   3.243  14.826  11.356
74390SOL    HW125002   3.251  14.822  11.260
74390SOL    HW225003   3.181   0.015  11.372
74391SOL     OW25004   1.093   7.261  12.668
74391SOL    HW125005   1.009   7.273  12.712
74391SOL    HW225006   1.086   7.175  12.626
74392SOL     OW25007  14.775  13.821   3.452
74392SOL    HW125008  14.748  13.748   3.508
74392SOL    HW225009  14.697  13.874   3.442
74393SOL     OW25010  14.055   6.968  14.668
74393SOL    HW125011  13.968   6.932  14.688
74393SOL    HW225012  14.055   7.055  14.708
74394SOL     OW25013   2.808   9.840  13.838
74394SOL    HW125014   2.812   9.897  13.915
74394SOL    HW225015   2.899   9.828  13.812
74395SOL     OW25016   4.950   6.526   2.061
74395SOL    HW125017   5.034   6.571   2.049
74395SOL    HW225018   4.902   6.542   1.979
74396SOL     OW25019   0.246   7.427   4.708
74396SOL    HW125020   0.218   7.436   4.617
74396SOL    HW225021   0.226   7.337   4.731
74397SOL     OW25022  14.212   9.104  14.746
74397SOL    HW125023  14.249   9.022  14.780
74397SOL    HW225024  14.157   9.076  14.672
74398SOL     OW25025  10.987   2.694  10.071
74398SOL    HW125026  11.055   2.627  10.067
74398SOL    HW225027  10.919   2.665  10.011
74399SOL     OW25028   8.664   6.822   0.445
74399SOL    HW125029   8.702   6.906   0.469
74399SOL    HW225030   8.652   6.827   0.350
74400SOL     OW25031   7.804   4.208  14.682
74400SOL    HW125032   7.898   4.223  14.699
74400SOL    HW225033   7.763   4.292  14.701
74401SOL     OW25034  13.173   8.944   6.780
74401SOL    HW125035  13.207   9.031   6.800
74401SOL    HW225036  13.223   8.885   6.837
74402SOL     OW25037   2.786   9.620  13.285
74402SOL    HW125038   2.836   9.663  13.354
74402SOL    HW225039   2.741   9.548  13.329
74403SOL     OW25040   6.824   4.347   3.992
74403SOL    HW125041   6.784   4.356   4.079
74403SOL    HW225042   6.803   4.429   3.947
74404SOL     OW25043  13.400   8.829   5.045
74404SOL    HW125044  13.470   8.789   4.993
74404SOL    HW225045  13.392   8.918   5.011
74405SOL     OW25046   8.807  10.756   0.830
74405SOL    HW125047   8.839  10.667   0.844
74405SOL    HW225048   8.754  10.750   0.750
74406SOL     OW25049   9.623  10.829   0.009
74406SOL    HW125050   9.634  10.838  14.796
74406SOL    HW225051   9.682  10.757   0.033
74407SOL     OW25052   7.944   9.873  14.696
74407SOL    HW125053   7.871   9.823  14.733
74407SOL    HW225054   7.903   9.944  14.647
74408SOL     OW25055   2.578   7.039   7.603
74408SOL    HW125056   2.596   7.127   7.570
74408SOL    HW225057   2.518   7.053   7.676
74409SOL     OW25058   9.256   5.668   4.679
74409SOL    HW125059   9.214   5.582   4.672
74409SOL    HW225060   9.236   5.697   4.768
74410SOL     OW25061   0.333   8.430   7.728
74410SOL    HW125062   0.239   8.423   7.712
74410SOL    HW225063   0.371   8.437   7.640
74411SOL     OW25064  10.970   6.290   0.612
74411SOL    HW125065  10.937   6.379   0.599
74411SOL    HW225066  11.058   6.291   0.576
74412SOL     OW25067   5.377  11.972  12.848
74412SOL    HW125068   5.348  12.012  12.765
74412SOL    HW225069   5.423  12.042  12.893
74413SOL     OW25070   7.049   7.227   2.270
74413SOL    HW125071   7.105   7.250   2.344
74413SOL    HW225072   6.988   7.300   2.262
74414SOL     OW25073   9.946   5.504   4.631
74414SOL    HW125074   9.890   5.553   4.571
74414SOL    HW225075   9.894   5.428   4.656
74415SOL     OW25076   5.086  11.491   6.233
74415SOL    HW125077   5.010  11.437   6.213
74415SOL    HW225078   5.098  11.545   6.155
74416SOL     OW25079  10.153   3.049   3.936
74416SOL    HW125080  10.196   3.118   3.885
74416SOL    HW225081  10.225   3.006   3.984
74417SOL     OW25082  13.473   2.518   1.998
74417SOL    HW125083  13.442   2.487   1.913
74417SOL    HW225084  13.393   2.526   2.051
74418SOL     OW25085   8.191   9.580  14.796
74418SOL    HW125086   8.208   9.488  14.815
74418SOL    HW225087   8.121   9.579  14.731
74419SOL     OW25088   6.512  13.873   8.867
74419SOL    HW125089   6.555  13.889   8.951
74419SOL    HW225090   6.418  13.876   8.886
74420SOL     OW25091   8.513  13.812  14.815
74420SOL    HW125092   8.492  13.897  14.855
74420SOL    HW225093   8.486  13.822  14.723
74421SOL     OW25094  11.501   9.904  13.727
74421SOL    HW125095  11.489   9.809  13.725
74421SOL    HW225096  11.553   9.920  13.806
74422SOL     OW25097   9.750  11.411  10.383
74422SOL    HW125098   9.660  11.440  10.368
74422SOL    HW225099   9.774  11.364  10.304
74423SOL     OW25100  12.662  14.753   4.435
74423SOL    HW125101  12.673  14.775   4.342
74423SOL    HW225102  12.704  14.825   4.482
74424SOL     OW25103  11.889  10.181   3.707
74424SOL    HW125104  11.971  10.166   3.755
74424SOL    HW225105  11.822  10.140   3.762
74425SOL     OW25106   2.597   4.915  14.373
74425SOL    HW125107   2.551   4.831  14.378
74425SOL    HW225108   2.625   4.922  14.282
74426SOL     OW25109   6.549   2.245   5.193
74426SOL    HW125110   6.542   2.237   5.288
74426SOL    HW225111   6.557   2.339   5.177
74427SOL     OW25112   6.172   8.586   2.377
74427SOL    HW125113   6.080   8.585   2.405
74427SOL    HW225114   6.168   8.579   2.282
74428SOL     OW25115   6.002  10.861   1.773
74428SOL    HW125116   5.910  10.885   1.788
74428SOL    HW225117   6.019  10.792   1.837
74429SOL     OW25118  11.223   0.299   4.254
74429SOL    HW125119  11.154   0.232   4.254
74429SOL    HW225120  11.183   0.376   4.215
74430SOL     OW25121   2.807   5.351   4.113
74430SOL    HW125122   2.840   5.424   4.061
74430SOL    HW225123   2.731   5.386   4.159
74431SOL     OW25124   3.788  12.725  11.013
74431SOL    HW125125   3.803  12.637  10.979
74431SOL    HW225126   3.854  12.736  11.082
74432SOL     OW25127   0.575   9.655  10.488
74432SOL    HW125128   0.653   9.608  10.516
74432SOL    HW225129   0.510   9.587  10.472
74433SOL     OW25130  10.156   2.252   0.822
74433SOL    HW125131  10.165   2.311   0.747
74433SOL    HW225132  10.234   2.195   0.817
74434SOL     OW25133   3.229   3.072   2.719
74434SOL    HW125134   3.291   3.021   2.666
74434SOL    HW225135   3.240   3.038   2.808
74435SOL     OW25136  12.018   7.826  13.949
74435SOL    HW125137  11.994   7.747  13.998
74435SOL    HW225138  11.944   7.841  13.890
74436SOL     OW25139   5.650   4.456  11.918
74436SOL    HW125140   5.605   4.534  11.951
74436SOL    HW225141   5.742   4.481  11.917
74437SOL     OW25142   1.398  11.945   1.710
74437SOL    HW125143   1.427  12.036   1.705
74437SOL    HW225144   1.450  11.900   1.644
74438SOL     OW25145  10.293  14.226   9.641
74438SOL    HW125146  10.306  14.307   9.690
74438SOL    HW225147  10.375  14.178   9.652
74439SOL     OW25148  11.568  10.482   2.295
74439SOL    HW125149  11.483  10.478   2.339
74439SOL    HW225150  11.558  10.550   2.228
74440SOL     OW25151   3.328  11.658   1.243
74440SOL    HW125152   3.276  11.656   1.324
74440SOL    HW225153   3.353  11.566   1.230
74441SOL     OW25154   4.913   8.040   5.531
74441SOL    HW125155   4.934   8.131   5.552
74441SOL    HW225156   4.994   7.992   5.548
74442SOL     OW25157   5.099   6.881   5.257
74442SOL    HW125158   5.174   6.825   5.240
74442SOL    HW225159   5.068   6.907   5.171
74443SOL     OW25160   2.995   7.644   0.946
74443SOL    HW125161   2.980   7.563   0.995
74443SOL    HW225162   2.969   7.623   0.856
74444SOL     OW25163   1.645   9.402  13.761
74444SOL    HW125164   1.699   9.330  13.794
74444SOL    HW225165   1.569   9.358  13.723
74445SOL     OW25166  11.180  13.226   0.026
74445SOL    HW125167  11.156  13.134   0.013
74445SOL    HW225168  11.275  13.228   0.015
74446SOL     OW25169   8.988   5.218   2.023
74446SOL    HW125170   8.928   5.282   1.984
74446SOL    HW225171   8.951   5.133   2.000
74447SOL     OW25172   2.140  11.992   2.358
74447SOL    HW125173   2.060  11.939   2.365
74447SOL    HW225174   2.163  12.013   2.449
74448SOL     OW25175   2.441  10.410   9.890
74448SOL    HW125176   2.466  10.365   9.809
74448SOL    HW225177   2.354  10.445   9.871
74449SOL     OW25178   8.804  10.413  10.627
74449SOL    HW125179   8.792  10.342  10.690
74449SOL    HW225180   8.848  10.482  10.676
74450SOL     OW25181   2.249  10.816  11.394
74450SOL    HW125182   2.214  10.728  11.394
74450SOL    HW225183   2.219  10.854  11.311
74451SOL     OW25184   3.581   8.971  12.985
74451SOL    HW125185   3.509   9.000  12.928
74451SOL    HW225186   3.544   8.901  13.038
74452SOL     OW25187   2.387   1.073   5.765
74452SOL    HW125188   2.457   1.122   5.721
74452SOL    HW225189   2.308   1.098   5.718
74453SOL     OW25190   3.823   7.227   4.387
74453SOL    HW125191   3.812   7.163   4.316
74453SOL    HW225192   3.734   7.248   4.414
74454SOL     OW25193   5.842   7.170   1.558
74454SOL    HW125194   5.838   7.149   1.652
74454SOL    HW225195   5.926   7.137   1.529
74455SOL     OW25196  11.905   0.439  11.760
74455SOL    HW125197  11.893   0.419  11.668
74455SOL    HW225198  11.903   0.354  11.804
74456SOL     OW25199   5.009  13.835   6.340
74456SOL    HW125200   4.917  13.861   6.344
74456SOL    HW225201   5.052  13.891   6.405
74457SOL     OW25202  10.321   0.986   3.138
74457SOL    HW125203  10.406   0.999   3.178
74457SOL    HW225204  10.316   1.053   3.070
74458SOL     OW25205  13.991  13.278  13.151
74458SOL    HW125206  14.083  13.253  13.140
74458SOL    HW225207  13.941  13.208  13.109
74459SOL     OW25208  10.757  12.630  12.156
74459SOL    HW125209  10.796  12.556  12.110
74459SOL    HW225210  10.761  12.605  12.248
74460SOL     OW25211   6.011   9.287  14.872
74460SOL    HW125212   6.067   9.312   0.064
74460SOL    HW225213   6.021   9.192  14.865
74461SOL     OW25214   9.838   2.198   7.575
74461SOL    HW125215   9.929   2.214   7.600
74461SOL    HW225216   9.843   2.165   7.485
74462SOL     OW25217   3.799   7.163   5.060
74462SOL    HW125218   3.850   7.168   5.141
74462SOL    HW225219   3.793   7.254   5.029
74463SOL     OW25220   4.534   2.554  12.459
74463SOL    HW125221   4.537   2.467  12.497
74463SOL    HW225222   4.516   2.612  12.533
74464SOL     OW25223   2.597   4.556  10.785
74464SOL    HW125224   2.502   4.545  10.788
74464SOL    HW225225   2.622   4.518  10.700
74465SOL     OW25226  11.334  11.733   9.151
74465SOL    HW125227  11.325  11.826   9.169
74465SOL    HW225228  11.271  11.691   9.210
74466SOL     OW25229   1.804   0.708   3.859
74466SOL    HW125230   1.759   0.677   3.780
74466SOL    HW225231   1.745   0.774   3.895
74467SOL     OW25232   3.729   9.874  13.998
74467SOL    HW125233   3.812   9.828  14.012
74467SOL    HW225234   3.743   9.924  13.918
74468SOL     OW25235   1.872  14.026  12.403
74468SOL    HW125236   1.946  14.064  12.450
74468SOL    HW225237   1.821  14.101  12.373
74469SOL     OW25238   2.344   5.560   4.823
74469SOL    HW125239   2.282   5.584   4.892
74469SOL    HW225240   2.381   5.643   4.794
74470SOL     OW25241  12.169   2.199   1.894
74470SOL    HW125242  12.122   2.263   1.949
74470SOL    HW225243  12.167   2.237   1.806
74471SOL     OW25244   8.013  14.881  14.866
74471SOL    HW125245   8.003  14.808   0.045
74471SOL    HW225246   7.923   0.028  14.849
74472SOL     OW25247   7.057  10.530   4.205
74472SOL    HW125248   7.051  10.572   4.120
74472SOL    HW225249   7.132  10.571   4.247
74473SOL     OW25250   7.826   3.998   7.624
74473SOL    HW125251   7.827   4.051   7.545
74473SOL    HW225252   7.841   3.908   7.594
74474SOL     OW25253   5.048  13.490   8.547
74474SOL    HW125254   5.045  13.576   8.590
74474SOL    HW225255   4.961  13.480   8.509
74475SOL     OW25256  11.829  14.353   2.750
74475SOL    HW125257  11.734  14.364   2.747
74475SOL    HW225258  11.843  14.267   2.711
74476SOL     OW25259   4.984  14.261   3.167
74476SOL    HW125260   4.998  14.252   3.262
74476SOL    HW225261   4.913  14.324   3.159
74477SOL     OW25262   2.398   9.564   0.909
74477SOL    HW125263   2.381   9.525   0.823
74477SOL    HW225264   2.346   9.510   0.970
74478SOL     OW25265   8.574  10.987  14.540
74478SOL    HW125266   8.591  10.909  14.594
74478SOL    HW225267   8.542  11.053  14.601
74479SOL     OW25268   3.193   3.793  13.761
74479SOL    HW125269   3.247   3.819  13.687
74479SOL    HW225270   3.173   3.875  13.806
74480SOL     OW25271   8.665   1.324  12.508
74480SOL    HW125272   8.642   1.290  12.594
74480SOL    HW225273   8.603   1.283  12.448
74481SOL     OW25274  11.476   4.882  14.581
74481SOL    HW125275  11.556   4.908  14.626
74481SOL    HW225276  11.474   4.786  14.589
74482SOL     OW25277   3.266  11.980   4.942
74482SOL    HW125278   3.316  12.062   4.947
74482SOL    HW225279   3.223  11.984   4.857
74483SOL     OW25280  10.057   9.564  10.052
74483SOL    HW125281  10.019   9.637  10.003
74483SOL    HW225282  10.014   9.567  10.137
74484SOL     OW25283   1.718   3.777   8.292
74484SOL    HW125284   1.788   3.840   8.272
74484SOL    HW225285   1.638   3.821   8.264
74485SOL     OW25286   5.693  14.378   2.597
74485SOL    HW125287   5.768  14.319   2.598
74485SOL    HW225288   5.720  14.452   2.651
74486SOL     OW25289  12.461   7.302   6.843
74486SOL    HW125290  12.545   7.286   6.800
74486SOL    HW225291  12.403   7.332   6.773
74487SOL     OW25292   2.816   3.583  14.075
74487SOL    HW125293   2.722   3.579  14.092
74487SOL    HW225294   2.854   3.616  14.157
74488SOL     OW25295   6.784   4.754   2.603
74488SOL    HW125296   6.732   4.693   2.551
74488SOL    HW225297   6.872   4.750   2.565
74489SOL     OW25298   8.107  10.770   9.399
74489SOL    HW125299   8.103  10.704   9.330
74489SOL    HW225300   8.199  10.798   9.400
74490SOL     OW25301   6.719   7.674   9.515
74490SOL    HW125302   6.802   7.641   9.549
74490SOL    HW225303   6.739   7.703   9.426
74491SOL     OW25304  12.039  11.476  13.263
74491SOL    HW125305  11.970  11.410  13.267
74491SOL    HW225306  12.052  11.491  13.170
74492SOL     OW25307   6.169  10.887   4.277
74492SOL    HW125308   6.129  10.847   4.354
74492SOL    HW225309   6.115  10.857   4.204
74493SOL     OW25310  11.342   6.030  13.877
74493SOL    HW125311  11.287   6.029  13.799
74493SOL    HW225312  11.284   6.063  13.946
74494SOL     OW25313   3.003   2.785   8.975
74494SOL    HW125314   3.057   2.706   8.978
74494SOL    HW225315   3.048   2.842   8.913
74495SOL     OW25316  10.478   6.878   9.667
74495SOL    HW125317  10.411   6.889   9.735
74495SOL    HW225318  10.556   6.920   9.703
74496SOL     OW25319  11.545  12.298   3.059
74496SOL    HW125320  11.542  12.317   3.153
74496SOL    HW225321  11.455  12.273   3.038
74497SOL     OW25322   5.512  10.724  11.036
74497SOL    HW125323   5.550  10.681  11.112
74497SOL    HW225324   5.477  10.807  11.070
74498SOL     OW25325  13.929   7.786   7.160
74498SOL    HW125326  13.875   7.847   7.209
74498SOL    HW225327  13.868   7.746   7.097
74499SOL     OW25328   0.308   6.568   5.171
74499SOL    HW125329   0.375   6.575   5.239
74499SOL    HW225330   0.305   6.475   5.149
74500SOL     OW25331   6.824  11.589   3.225
74500SOL    HW125332   6.820  11.630   3.139
74500SOL    HW225333   6.913  11.557   3.232
74501SOL     OW25334  11.070   3.100   7.185
74501SOL    HW125335  11.158   3.127   7.161
74501SOL    HW225336  11.066   3.007   7.161
74502SOL     OW25337   1.169   2.928  14.372
74502SOL    HW125338   1.228   2.929  14.297
74502SOL    HW225339   1.200   2.855  14.426
74503SOL     OW25340  10.520  13.630   2.763
74503SOL    HW125341  10.500  13.710   2.811
74503SOL    HW225342  10.499  13.651   2.672
74504SOL     OW25343   2.410  11.631   9.490
74504SOL    HW125344   2.483  11.687   9.514
74504SOL    HW225345   2.334  11.690   9.486
74505SOL     OW25346   1.722  14.252  10.654
74505SOL    HW125347   1.662  14.183  10.625
74505SOL    HW225348   1.794  14.205  10.695
74506SOL     OW25349   0.866   2.456   9.414
74506SOL    HW125350   0.902   2.388   9.472
74506SOL    HW225351   0.942   2.490   9.368
74507SOL     OW25352   5.717   9.977   4.351
74507SOL    HW125353   5.716   9.972   4.447
74507SOL    HW225354   5.637   9.931   4.324
74508SOL     OW25355   4.732   1.909  10.084
74508SOL    HW125356   4.753   1.824  10.044
74508SOL    HW225357   4.728   1.890  10.178
74509SOL     OW25358   8.846   7.169   3.403
74509SOL    HW125359   8.912   7.177   3.335
74509SOL    HW225360   8.785   7.102   3.370
74510SOL     OW25361   4.504  11.823   1.655
74510SOL    HW125362   4.457  11.753   1.700
74510SOL    HW225363   4.487  11.808   1.562
74511SOL     OW25364  12.148   5.734  13.617
74511SOL    HW125365  12.096   5.706  13.542
74511SOL    HW225366  12.118   5.823  13.635
74512SOL     OW25367   8.456   6.847  10.585
74512SOL    HW125368   8.522   6.914  10.567
74512SOL    HW225369   8.503   6.779  10.633
74513SOL     OW25370   9.285   6.197  14.042
74513SOL    HW125371   9.259   6.254  14.114
74513SOL    HW225372   9.249   6.111  14.065
74514SOL     OW25373  12.633   3.123   9.524
74514SOL    HW125374  12.695   3.058   9.492
74514SOL    HW225375  12.644   3.198   9.465
74515SOL     OW25376   4.748   4.537   3.744
74515SOL    HW125377   4.685   4.481   3.788
74515SOL    HW225378   4.795   4.479   3.684
74516SOL     OW25379   5.349  10.117  13.450
74516SOL    HW125380   5.341  10.150  13.360
74516SOL    HW225381   5.303  10.033  13.448
74517SOL     OW25382   4.971   5.309  13.879
74517SOL    HW125383   4.896   5.341  13.828
74517SOL    HW225384   4.982   5.218  13.851
74518SOL     OW25385   0.682   4.509   6.839
74518SOL    HW125386   0.678   4.577   6.906
74518SOL    HW225387   0.691   4.427   6.888
74519SOL     OW25388   5.284   4.923  13.950
74519SOL    HW125389   5.327   5.003  13.921
74519SOL    HW225390   5.267   4.874  13.869
74520SOL     OW25391   7.729   9.892  10.012
74520SOL    HW125392   7.809   9.878   9.960
74520SOL    HW225393   7.658   9.869   9.953
74521SOL     OW25394   8.927   9.840   3.179
74521SOL    HW125395   8.891   9.753   3.163
74521SOL    HW225396   8.873   9.898   3.126
74522SOL     OW25397  12.309  10.801   8.688
74522SOL    HW125398  12.366  10.726   8.673
74522SOL    HW225399  12.246  10.771   8.753
74523SOL     OW25400   0.425  14.214  10.950
74523SOL    HW125401   0.375  14.262  10.884
74523SOL    HW225402   0.372  14.136  10.967
74524SOL     OW25403   8.309   4.858   6.434
74524SOL    HW125404   8.217   4.878   6.453
74524SOL    HW225405   8.358   4.925   6.482
74525SOL     OW25406   4.201   0.587   4.833
74525SOL    HW125407   4.238   0.630   4.755
74525SOL    HW225408   4.136   0.526   4.798
74526SOL     OW25409   5.998   8.512   5.119
74526SOL    HW125410   6.016   8.474   5.033
74526SOL    HW225411   5.910   8.481   5.141
74527SOL     OW25412   4.323   5.372   5.850
74527SOL    HW125413   4.344   5.312   5.779
74527SOL    HW225414   4.236   5.405   5.829
74528SOL     OW25415   2.915   1.374   6.298
74528SOL    HW125416   2.965   1.346   6.222
74528SOL    HW225417   2.826   1.387   6.266
74529SOL     OW25418  11.068   3.826   7.264
74529SOL    HW125419  10.997   3.885   7.238
74529SOL    HW225420  11.148   3.870   7.233
74530SOL     OW25421   9.736  13.566  11.070
74530SOL    HW125422   9.705  13.600  11.154
74530SOL    HW225423   9.793  13.493  11.094
74531SOL     OW25424   2.441  11.207   4.498
74531SOL    HW125425   2.355  11.170   4.517
74531SOL    HW225426   2.454  11.274   4.565
74532SOL     OW25427   8.554   9.325   9.288
74532SOL    HW125428   8.515   9.347   9.372
74532SOL    HW225429   8.554   9.407   9.239
74533SOL     OW25430   0.814   6.183   7.576
74533SOL    HW125431   0.908   6.168   7.571
74533SOL    HW225432   0.776   6.095   7.576
74534SOL     OW25433   1.276   8.742  11.041
74534SOL    HW125434   1.249   8.791  11.118
74534SOL    HW225435   1.371   8.745  11.042
74535SOL     OW25436  14.439   8.939  10.904
74535SOL    HW125437  14.351   8.929  10.938
74535SOL    HW225438  14.461   9.031  10.920
74536SOL     OW25439   9.326   9.810   1.936
74536SOL    HW125440   9.312   9.904   1.944
74536SOL    HW225441   9.420   9.800   1.928
74537SOL     OW25442   7.835   5.889   6.496
74537SOL    HW125443   7.801   5.837   6.424
74537SOL    HW225444   7.801   5.977   6.480
74538SOL     OW25445  13.073  13.222   5.594
74538SOL    HW125446  13.155  13.262   5.565
74538SOL    HW225447  13.100  13.142   5.638
74539SOL     OW25448  13.798   1.071  13.481
74539SOL    HW125449  13.759   0.985  13.461
74539SOL    HW225450  13.878   1.073  13.429
74540SOL     OW25451   5.414   4.182   4.459
74540SOL    HW125452   5.450   4.269   4.445
74540SOL    HW225453   5.455   4.127   4.392
74541SOL     OW25454   7.315  13.040   7.360
74541SOL    HW125455   7.294  12.998   7.443
74541SOL    HW225456   7.237  13.092   7.339
74542SOL     OW25457   6.700   5.109   2.523
74542SOL    HW125458   6.634   5.176   2.501
74542SOL    HW225459   6.710   5.117   2.618
74543SOL     OW25460  14.076   1.027   7.164
74543SOL    HW125461  14.111   0.983   7.087
74543SOL    HW225462  14.043   1.111   7.132
74544SOL     OW25463   3.115   4.438  10.985
74544SOL    HW125464   3.147   4.514  11.033
74544SOL    HW225465   3.042   4.405  11.038
74545SOL     OW25466   9.433   0.160   5.882
74545SOL    HW125467   9.380   0.096   5.833
74545SOL    HW225468   9.409   0.145   5.974
74546SOL     OW25469   7.872  12.683  12.622
74546SOL    HW125470   7.938  12.718  12.682
74546SOL    HW225471   7.835  12.760  12.579
74547SOL     OW25472   1.954  11.577  12.558
74547SOL    HW125473   2.000  11.505  12.513
74547SOL    HW225474   1.895  11.533  12.619
74548SOL     OW25475  12.875   9.873   6.880
74548SOL    HW125476  12.899   9.818   6.955
74548SOL    HW225477  12.943   9.939   6.875
74549SOL     OW25478   4.770  13.872  12.803
74549SOL    HW125479   4.714  13.924  12.746
74549SOL    HW225480   4.848  13.926  12.817
74550SOL     OW25481  10.519  10.401   7.866
74550SOL    HW125482  10.573  10.322   7.865
74550SOL    HW225483  10.512  10.427   7.775
74551SOL     OW25484   3.276   1.968   5.337
74551SOL    HW125485   3.190   2.004   5.320
74551SOL    HW225486   3.325   2.040   5.376
74552SOL     OW25487  14.403   6.917  13.534
74552SOL    HW125488  14.313   6.923  13.566
74552SOL    HW225489  14.401   6.961  13.449
74553SOL     OW25490   7.426   0.058   0.519
74553SOL    HW125491   7.377   0.013   0.588
74553SOL    HW225492   7.504   0.004   0.506
74554SOL     OW25493   9.379  10.345   4.719
74554SOL    HW125494   9.372  10.296   4.801
74554SOL    HW225495   9.443  10.295   4.667
74555SOL     OW25496   6.957   1.762  12.031
74555SOL    HW125497   7.004   1.776  12.113
74555SOL    HW225498   7.024   1.738  11.968
74556SOL     OW25499  12.681   4.209   4.893
74556SOL    HW125500  12.717   4.122   4.912
74556SOL    HW225501  12.729   4.239   4.817
74557SOL     OW25502  12.007   6.938  13.720
74557SOL    HW125503  12.064   6.861  13.727
74557SOL    HW225504  12.052   7.006  13.771
74558SOL     OW25505   8.335   6.281   2.531
74558SOL    HW125506   8.268   6.348   2.530
74558SOL    HW225507   8.407   6.319   2.580
74559SOL     OW25508   5.668   1.127   0.516
74559SOL    HW125509   5.759   1.110   0.492
74559SOL    HW225510   5.616   1.082   0.448
74560SOL     OW25511   0.328  12.583  11.784
74560SOL    HW125512   0.413  12.587  11.740
74560SOL    HW225513   0.332  12.651  11.851
74561SOL     OW25514  11.490   6.882   6.552
74561SOL    HW125515  11.485   6.977   6.552
74561SOL    HW225516  11.525   6.860   6.639
74562SOL     OW25517  11.241   7.572   2.201
74562SOL    HW125518  11.301   7.521   2.147
74562SOL    HW225519  11.298   7.621   2.260
74563SOL     OW25520  13.339   2.964   6.354
74563SOL    HW125521  13.311   2.874   6.369
74563SOL    HW225522  13.320   3.010   6.436
74564SOL     OW25523  12.680   6.644  13.739
74564SOL    HW125524  12.759   6.591  13.727
74564SOL    HW225525  12.642   6.611  13.820
74565SOL     OW25526   1.098   3.678  10.333
74565SOL    HW125527   1.191   3.671  10.311
74565SOL    HW225528   1.083   3.772  10.343
74566SOL     OW25529   6.372   7.042   3.401
74566SOL    HW125530   6.372   7.035   3.497
74566SOL    HW225531   6.465   7.035   3.377
74567SOL     OW25532  11.173   0.910   7.380
74567SOL    HW125533  11.186   0.828   7.332
74567SOL    HW225534  11.213   0.894   7.466
74568SOL     OW25535   3.262  14.037   0.895
74568SOL    HW125536   3.257  13.944   0.874
74568SOL    HW225537   3.243  14.041   0.989
74569SOL     OW25538   7.546   5.887  10.792
74569SOL    HW125539   7.623   5.833  10.806
74569SOL    HW225540   7.537   5.937  10.873
74570SOL     OW25541  12.685   2.996   6.754
74570SOL    HW125542  12.649   3.084   6.765
74570SOL    HW225543  12.609   2.938   6.752
74571SOL     OW25544   4.082  12.479  12.315
74571SOL    HW125545   3.998  12.520  12.294
74571SOL    HW225546   4.075  12.390  12.280
74572SOL     OW25547   9.686  14.497   8.726
74572SOL    HW125548   9.713  14.424   8.670
74572SOL    HW225549   9.666  14.456   8.810
74573SOL     OW25550   9.314   2.043   5.869
74573SOL    HW125551   9.262   2.102   5.814
74573SOL    HW225552   9.399   2.038   5.825
74574SOL     OW25553   0.013   1.113  12.267
74574SOL    HW125554  14.856   1.181  12.321
74574SOL    HW225555   0.083   1.157  12.219
74575SOL     OW25556  11.906  14.445   5.657
74575SOL    HW125557  11.896  14.532   5.619
74575SOL    HW225558  11.961  14.397   5.594
74576SOL     OW25559  12.444   5.016  10.675
74576SOL    HW125560  12.527   4.987  10.713
74576SOL    HW225561  12.465   5.100  10.635
74577SOL     OW25562  13.500  14.288   6.829
74577SOL    HW125563  13.480  14.210   6.881
74577SOL    HW225564  13.509  14.358   6.894
74578SOL     OW25565  14.686   6.128  14.839
74578SOL    HW125566  14.779   6.106  14.836
74578SOL    HW225567  14.674   6.189  14.766
74579SOL     OW25568   5.376   6.743   3.663
74579SOL    HW125569   5.409   6.775   3.747
74579SOL    HW225570   5.406   6.808   3.600
74580SOL     OW25571   5.543   2.620   6.849
74580SOL    HW125572   5.495   2.659   6.776
74580SOL    HW225573   5.579   2.695   6.897
74581SOL     OW25574   5.033  12.883   0.414
74581SOL    HW125575   4.964  12.931   0.460
74581SOL    HW225576   5.046  12.803   0.466
74582SOL     OW25577   5.012   8.269   5.835
74582SOL    HW125578   4.923   8.255   5.803
74582SOL    HW225579   5.067   8.256   5.758
74583SOL     OW25580   1.467  11.453   5.541
74583SOL    HW125581   1.537  11.454   5.606
74583SOL    HW225582   1.426  11.367   5.551
74584SOL     OW25583   9.709   4.967  10.810
74584SOL    HW125584   9.736   4.878  10.791
74584SOL    HW225585   9.765   5.022  10.754
74585SOL     OW25586  14.293  12.242   3.913
74585SOL    HW125587  14.362  12.270   3.973
74585SOL    HW225588  14.319  12.154   3.886
74586SOL     OW25589   5.133   8.373   2.499
74586SOL    HW125590   5.066   8.311   2.529
74586SOL    HW225591   5.179   8.328   2.429
74587SOL     OW25592   5.067   7.569   1.008
74587SOL    HW125593   5.153   7.585   1.045
74587SOL    HW225594   5.083   7.551   0.915
74588SOL     OW25595  14.728   6.393   4.647
74588SOL    HW125596  14.762   6.325   4.589
74588SOL    HW225597  14.633   6.377   4.649
74589SOL     OW25598   1.521   8.346   1.605
74589SOL    HW125599   1.560   8.427   1.571
74589SOL    HW225600   1.483   8.303   1.529
74590SOL     OW25601   6.624   9.559  11.297
74590SOL    HW125602   6.653   9.571  11.388
74590SOL    HW225603   6.702   9.528  11.251
74591SOL     OW25604   2.234   6.316  10.646
74591SOL    HW125605   2.173   6.358  10.585
74591SOL    HW225606   2.203   6.225  10.651
74592SOL     OW25607   5.197   6.439  14.673
74592SOL    HW125608   5.291   6.422  14.668
74592SOL    HW225609   5.181   6.509  14.610
74593SOL     OW25610  10.167   5.326  14.568
74593SOL    HW125611  10.095   5.361  14.621
74593SOL    HW225612  10.246   5.355  14.612
74594SOL     OW25613   4.659   7.712  10.159
74594SOL    HW125614   4.700   7.770  10.094
74594SOL    HW225615   4.694   7.625  10.139
74595SOL     OW25616   9.188   7.503   8.112
74595SOL    HW125617   9.137   7.429   8.079
74595SOL    HW225618   9.277   7.486   8.081
74596SOL     OW25619  12.612   9.856  13.751
74596SOL    HW125620  12.603   9.941  13.708
74596SOL    HW225621  12.553   9.861  13.826
74597SOL     OW25622  12.842   9.329   1.399
74597SOL    HW125623  12.823   9.291   1.312
74597SOL    HW225624  12.890   9.260   1.445
74598SOL     OW25625   3.335  14.570   6.854
74598SOL    HW125626   3.280  14.584   6.778
74598SOL    HW225627   3.425  14.575   6.820
74599SOL     OW25628   4.661  12.467   1.001
74599SOL    HW125629   4.594  12.532   1.021
74599SOL    HW225630   4.684  12.428   1.085
74600SOL     OW25631   5.996  11.321  12.196
74600SOL    HW125632   5.986  11.359  12.283
74600SOL    HW225633   5.912  11.280  12.177
74601SOL     OW25634   6.077  10.810   0.560
74601SOL    HW125635   6.021  10.745   0.602
74601SOL    HW225636   6.129  10.760   0.497
74602SOL     OW25637   4.097  10.058   5.265
74602SOL    HW125638   4.151   9.998   5.316
74602SOL    HW225639   4.126  10.045   5.175
74603SOL     OW25640  12.277  13.419  12.920
74603SOL    HW125641  12.336  13.480  12.875
74603SOL    HW225642  12.331  13.342  12.938
74604SOL     OW25643   2.513  13.185  12.442
74604SOL    HW125644   2.569  13.108  12.452
74604SOL    HW225645   2.499  13.193  12.348
74605SOL     OW25646   6.463   6.572   3.480
74605SOL    HW125647   6.463   6.519   3.400
74605SOL    HW225648   6.527   6.641   3.463
74606SOL     OW25649   8.287  14.017   4.255
74606SOL    HW125650   8.308  13.963   4.179
74606SOL    HW225651   8.366  14.014   4.309
74607SOL     OW25652   2.174   4.703  10.481
74607SOL    HW125653   2.197   4.739  10.395
74607SOL    HW225654   2.096   4.752  10.507
74608SOL     OW25655   7.252   1.401  12.158
74608SOL    HW125656   7.327   1.436  12.206
74608SOL    HW225657   7.277   1.406  12.066
74609SOL     OW25658   6.946  11.938  13.463
74609SOL    HW125659   6.911  11.852  13.441
74609SOL    HW225660   6.951  11.984  13.379
74610SOL     OW25661   8.057  14.607   5.110
74610SOL    HW125662   8.070  14.695   5.074
74610SOL    HW225663   8.082  14.548   5.039
74611SOL     OW25664   1.438   1.466   2.242
74611SOL    HW125665   1.522   1.513   2.247
74611SOL    HW225666   1.372   1.533   2.256
74612SOL     OW25667   1.190   8.336  13.559
74612SOL    HW125668   1.265   8.315  13.505
74612SOL    HW225669   1.225   8.392  13.629
74613SOL     OW25670  11.428   8.768   4.288
74613SOL    HW125671  11.440   8.826   4.364
74613SOL    HW225672  11.356   8.711   4.314
74614SOL     OW25673  10.903   2.568   6.067
74614SOL    HW125674  10.864   2.621   5.997
74614SOL    HW225675  10.981   2.529   6.026
74615SOL     OW25676   2.806  11.861   8.405
74615SOL    HW125677   2.874  11.922   8.375
74615SOL    HW225678   2.818  11.856   8.500
74616SOL     OW25679  13.842   6.383   1.428
74616SOL    HW125680  13.756   6.423   1.439
74616SOL    HW225681  13.873   6.416   1.344
74617SOL     OW25682  13.396  12.210  13.773
74617SOL    HW125683  13.465  12.232  13.836
74617SOL    HW225684  13.438  12.218  13.688
74618SOL     OW25685   6.449   8.947   9.789
74618SOL    HW125686   6.438   8.860   9.750
74618SOL    HW225687   6.365   8.990   9.776
74619SOL     OW25688   4.741   7.426  14.019
74619SOL    HW125689   4.802   7.464  13.955
74619SOL    HW225690   4.729   7.495  14.084
74620SOL     OW25691   3.757   4.571  11.270
74620SOL    HW125692   3.810   4.639  11.312
74620SOL    HW225693   3.820   4.520  11.219
74621SOL     OW25694  14.150   9.061   9.543
74621SOL    HW125695  14.059   9.035   9.530
74621SOL    HW225696  14.170   9.118   9.469
74622SOL     OW25697   1.360   0.748   1.475
74622SOL    HW125698   1.321   0.830   1.447
74622SOL    HW225699   1.454   0.765   1.476
74623SOL     OW25700   4.721   3.492   9.038
74623SOL    HW125701   4.686   3.543   8.965
74623SOL    HW225702   4.673   3.410   9.035
74624SOL     OW25703  12.096   3.392   1.126
74624SOL    HW125704  12.075   3.339   1.203
74624SOL    HW225705  12.053   3.476   1.142
74625SOL     OW25706   8.030   3.222  10.327
74625SOL    HW125707   8.087   3.158  10.369
74625SOL    HW225708   8.073   3.306  10.340
74626SOL     OW25709  13.755   1.676  10.848
74626SOL    HW125710  13.709   1.645  10.926
74626SOL    HW225711  13.847   1.653  10.863
74627SOL     OW25712   6.900  11.258   9.937
74627SOL    HW125713   6.994  11.256   9.922
74627SOL    HW225714   6.886  11.203  10.014
74628SOL     OW25715   8.974   5.513   9.602
74628SOL    HW125716   9.063   5.485   9.622
74628SOL    HW225717   8.955   5.472   9.518
74629SOL     OW25718  11.511   1.756   6.689
74629SOL    HW125719  11.572   1.708   6.633
74629SOL    HW225720  11.546   1.844   6.693
74630SOL     OW25721   3.033  10.717   3.533
74630SOL    HW125722   2.974  10.689   3.603
74630SOL    HW225723   3.008  10.808   3.516
74631SOL     OW25724   4.306   1.113   2.519
74631SOL    HW125725   4.230   1.076   2.564
74631SOL    HW225726   4.356   1.036   2.491
74632SOL     OW25727   8.163   0.469  11.190
74632SOL    HW125728   8.076   0.433  11.209
74632SOL    HW225729   8.169   0.467  11.095
74633SOL     OW25730   7.459   2.056   3.348
74633SOL    HW125731   7.374   2.098   3.354
74633SOL    HW225732   7.520   2.118   3.387
74634SOL     OW25733   9.371  11.345   7.258
74634SOL    HW125734   9.353  11.426   7.209
74634SOL    HW225735   9.301  11.340   7.322
74635SOL     OW25736  14.826   6.443   5.142
74635SOL    HW125737  14.846   6.531   5.173
74635SOL    HW225738  14.786   6.456   5.055
74636SOL     OW25739   8.867   9.486   5.223
74636SOL    HW125740   8.827   9.404   5.194
74636SOL    HW225741   8.795   9.549   5.224
74637SOL     OW25742   4.784   7.908   8.414
74637SOL    HW125743   4.700   7.944   8.441
74637SOL    HW225744   4.809   7.959   8.337
74638SOL     OW25745   7.869   5.655  12.815
74638SOL    HW125746   7.879   5.750  12.812
74638SOL    HW225747   7.863   5.634  12.908
74639SOL     OW25748  12.948  12.816  14.330
74639SOL    HW125749  12.980  12.882  14.392
74639SOL    HW225750  12.860  12.795  14.361
74640SOL     OW25751  14.723   4.421  10.790
74640SOL    HW125752  14.745   4.328  10.786
74640SOL    HW225753  14.628   4.423  10.804
74641SOL     OW25754   7.571   3.816   0.958
74641SOL    HW125755   7.634   3.763   1.007
74641SOL    HW225756   7.589   3.797   0.866
74642SOL     OW25757   3.402   3.151  13.089
74642SOL    HW125758   3.325   3.131  13.142
74642SOL    HW225759   3.422   3.242  13.109
74643SOL     OW25760   9.093   8.299   2.609
74643SOL    HW125761   9.003   8.316   2.581
74643SOL    HW225762   9.095   8.325   2.701
74644SOL     OW25763   5.089   3.854   6.543
74644SOL    HW125764   5.154   3.923   6.561
74644SOL    HW225765   5.009   3.902   6.521
74645SOL     OW25766  14.855  10.816   8.608
74645SOL    HW125767  14.837  10.910   8.608
74645SOL    HW225768  14.780  10.777   8.651
74646SOL     OW25769   6.086   7.436   6.048
74646SOL    HW125770   6.062   7.382   5.972
74646SOL    HW225771   6.162   7.487   6.019
74647SOL     OW25772   9.915   2.944  11.712
74647SOL    HW125773   9.843   2.947  11.774
74647SOL    HW225774   9.945   2.853  11.712
74648SOL     OW25775   9.420   8.980  11.556
74648SOL    HW125776   9.342   9.028  11.582
74648SOL    HW225777   9.432   9.003  11.464
74649SOL     OW25778  11.928   0.384  13.626
74649SOL    HW125779  11.887   0.351  13.706
74649SOL    HW225780  11.904   0.321  13.558
74650SOL     OW25781   1.653  14.175  12.112
74650SOL    HW125782   1.588  14.105  12.100
74650SOL    HW225783   1.734  14.138  12.075
74651SOL     OW25784   0.534  10.849  14.614
74651SOL    HW125785   0.510  10.940  14.633
74651SOL    HW225786   0.628  10.846  14.631
74652SOL     OW25787  10.062   5.033   0.926
74652SOL    HW125788  10.139   5.072   0.884
74652SOL    HW225789  10.092   5.012   1.015
74653SOL     OW25790  10.240  13.648  10.850
74653SOL    HW125791  10.149  13.619  10.855
74653SOL    HW225792  10.242  13.710  10.777
74654SOL     OW25793   2.398   9.477   8.649
74654SOL    HW125794   2.313   9.520   8.659
74654SOL    HW225795   2.393   9.400   8.706
74655SOL     OW25796  13.649   6.754   4.615
74655SOL    HW125797  13.741   6.740   4.591
74655SOL    HW225798  13.623   6.832   4.567
74656SOL     OW25799  11.470  12.259   5.090
74656SOL    HW125800  11.414  12.250   5.012
74656SOL    HW225801  11.511  12.344   5.080
74657SOL     OW25802  13.486  13.201   1.485
74657SOL    HW125803  13.461  13.287   1.451
74657SOL    HW225804  13.538  13.221   1.563
74658SOL     OW25805   8.897   9.907   2.262
74658SOL    HW125806   8.838   9.966   2.310
74658SOL    HW225807   8.906   9.947   2.176
74659SOL     OW25808   1.350   5.119   5.196
74659SOL    HW125809   1.333   5.174   5.273
74659SOL    HW225810   1.327   5.174   5.121
74660SOL     OW25811   1.739   9.790   7.001
74660SOL    HW125812   1.730   9.869   6.948
74660SOL    HW225813   1.652   9.775   7.037
74661SOL     OW25814   9.998   1.793   9.250
74661SOL    HW125815   9.907   1.811   9.225
74661SOL    HW225816  10.037   1.755   9.171
74662SOL     OW25817  11.128   9.688   7.435
74662SOL    HW125818  11.142   9.783   7.430
74662SOL    HW225819  11.147   9.656   7.347
74663SOL     OW25820   5.723   8.455  11.266
74663SOL    HW125821   5.797   8.444  11.326
74663SOL    HW225822   5.688   8.367  11.255
74664SOL     OW25823  13.203  13.685   9.162
74664SOL    HW125824  13.159  13.608   9.127
74664SOL    HW225825  13.195  13.751   9.093
74665SOL     OW25826   0.032   6.914  10.030
74665SOL    HW125827   0.084   6.990  10.056
74665SOL    HW225828   0.095   6.853   9.992
74666SOL     OW25829  13.193  13.516   8.893
74666SOL    HW125830  13.132  13.586   8.916
74666SOL    HW225831  13.280  13.553   8.906
74667SOL     OW25832   1.390   4.511   7.680
74667SOL    HW125833   1.402   4.606   7.682
74667SOL    HW225834   1.376   4.491   7.587
74668SOL     OW25835  11.776   2.429   8.880
74668SOL    HW125836  11.791   2.343   8.839
74668SOL    HW225837  11.682   2.429   8.900
74669SOL     OW25838   3.545   6.717   1.979
74669SOL    HW125839   3.527   6.750   2.067
74669SOL    HW225840   3.476   6.755   1.925
74670SOL     OW25841  11.206  13.678  12.576
74670SOL    HW125842  11.161  13.746  12.627
74670SOL    HW225843  11.222  13.608  12.639
74671SOL     OW25844   2.712   1.371   9.053
74671SOL    HW125845   2.683   1.355   8.963
74671SOL    HW225846   2.752   1.288   9.081
74672SOL     OW25847  12.260   1.331   4.008
74672SOL    HW125848  12.194   1.369   4.065
74672SOL    HW225849  12.232   1.240   3.996
74673SOL     OW25850   3.715  12.219   7.473
74673SOL    HW125851   3.802  12.216   7.511
74673SOL    HW225852   3.714  12.300   7.421
74674SOL     OW25853   2.774   4.992   9.048
74674SOL    HW125854   2.846   4.939   9.084
74674SOL    HW225855   2.702   4.978   9.109
74675SOL     OW25856   1.736  14.764   8.038
74675SOL    HW125857   1.816  14.800   8.075
74675SOL    HW225858   1.668  14.828   8.061
74676SOL     OW25859   5.301  12.243  13.640
74676SOL    HW125860   5.334  12.332  13.628
74676SOL    HW225861   5.206  12.253  13.648
74677SOL     OW25862  11.102   4.807   0.273
74677SOL    HW125863  11.065   4.893   0.291
74677SOL    HW225864  11.029   4.755   0.241
74678SOL     OW25865   8.198   3.705   3.625
74678SOL    HW125866   8.152   3.744   3.699
74678SOL    HW225867   8.217   3.615   3.652
74679SOL     OW25868   8.126  12.424   2.434
74679SOL    HW125869   8.151  12.460   2.349
74679SOL    HW225870   8.209  12.401   2.476
74680SOL     OW25871  14.265  11.969  13.548
74680SOL    HW125872  14.340  11.926  13.508
74680SOL    HW225873  14.299  12.009  13.628
74681SOL     OW25874   5.548   0.994   8.402
74681SOL    HW125875   5.547   1.089   8.404
74681SOL    HW225876   5.472   0.970   8.348
74682SOL     OW25877   6.236  13.795   2.539
74682SOL    HW125878   6.215  13.881   2.504
74682SOL    HW225879   6.330  13.797   2.553
74683SOL     OW25880  10.889   5.898   9.889
74683SOL    HW125881  10.922   5.895   9.978
74683SOL    HW225882  10.798   5.868   9.896
74684SOL     OW25883   5.121   4.149   2.776
74684SOL    HW125884   5.063   4.168   2.850
74684SOL    HW225885   5.066   4.164   2.699
74685SOL     OW25886  13.973   3.488  10.423
74685SOL    HW125887  13.964   3.433  10.501
74685SOL    HW225888  14.029   3.436  10.365
74686SOL     OW25889   6.507  12.543  10.515
74686SOL    HW125890   6.576  12.518  10.576
74686SOL    HW225891   6.504  12.471  10.452
74687SOL     OW25892   1.914   3.671   9.729
74687SOL    HW125893   1.859   3.687   9.652
74687SOL    HW225894   1.861   3.702   9.803
74688SOL     OW25895   0.708   1.871   4.518
74688SOL    HW125896   0.749   1.887   4.433
74688SOL    HW225897   0.644   1.801   4.501
74689SOL     OW25898  14.862   4.652   7.208
74689SOL    HW125899  14.842   4.575   7.154
74689SOL    HW225900  14.783   4.664   7.261
74690SOL     OW25901  13.713  12.216   1.590
74690SOL    HW125902  13.782  12.186   1.531
74690SOL    HW225903  13.760  12.265   1.658
74691SOL     OW25904   1.034  14.565  11.581
74691SOL    HW125905   1.055  14.486  11.630
74691SOL    HW225906   0.939  14.563  11.571
74692SOL     OW25907   5.285   4.928   3.118
74692SOL    HW125908   5.213   4.881   3.075
74692SOL    HW225909   5.287   4.892   3.207
74693SOL     OW25910   0.498   3.376  10.520
74693SOL    HW125911   0.412   3.345  10.493
74693SOL    HW225912   0.555   3.299  10.512
74694SOL     OW25913  11.681   6.377   0.367
74694SOL    HW125914  11.670   6.331   0.283
74694SOL    HW225915  11.770   6.412   0.363
74695SOL     OW25916   8.425   2.185   7.221
74695SOL    HW125917   8.429   2.219   7.132
74695SOL    HW225918   8.500   2.126   7.228
74696SOL     OW25919  13.023  10.615   9.030
74696SOL    HW125920  12.961  10.556   9.072
74696SOL    HW225921  12.978  10.700   9.027
74697SOL     OW25922   3.772  11.086   2.349
74697SOL    HW125923   3.857  11.047   2.365
74697SOL    HW225924   3.791  11.176   2.321
74698SOL     OW25925   7.678   0.394  14.128
74698SOL    HW125926   7.631   0.372  14.209
74698SOL    HW225927   7.760   0.345  14.134
74699SOL     OW25928   6.800  10.365   7.689
74699SOL    HW125929   6.887  10.399   7.666
74699SOL    HW225930   6.745  10.387   7.614
74700SOL     OW25931   0.876  12.993   6.462
74700SOL    HW125932   0.914  13.080   6.454
74700SOL    HW225933   0.923  12.952   6.534
74701SOL     OW25934   1.488   8.602   9.265
74701SOL    HW125935   1.493   8.585   9.359
74701SOL    HW225936   1.396   8.590   9.244
74702SOL     OW25937   7.472   9.499  12.167
74702SOL    HW125938   7.532   9.573  12.154
74702SOL    HW225939   7.386   9.540  12.178
74703SOL     OW25940   5.933  14.160   7.457
74703SOL    HW125941   5.934  14.244   7.504
74703SOL    HW225942   5.972  14.098   7.519
74704SOL     OW25943   4.040  10.365   0.310
74704SOL    HW125944   4.091  10.290   0.341
74704SOL    HW225945   3.983  10.388   0.384
74705SOL     OW25946  11.087   2.059   2.685
74705SOL    HW125947  11.003   2.085   2.723
74705SOL    HW225948  11.063   2.011   2.606
74706SOL     OW25949  13.326   5.558   9.039
74706SOL    HW125950  13.300   5.466   9.039
74706SOL    HW225951  13.421   5.556   9.054
74707SOL     OW25952   2.664   6.240   1.968
74707SOL    HW125953   2.593   6.209   1.912
74707SOL    HW225954   2.708   6.159   1.997
74708SOL     OW25955   7.742  11.328  13.684
74708SOL    HW125956   7.673  11.292  13.629
74708SOL    HW225957   7.701  11.343  13.769
74709SOL     OW25958   8.710   5.891   5.622
74709SOL    HW125959   8.651   5.963   5.645
74709SOL    HW225960   8.775   5.931   5.564
74710SOL     OW25961  14.869   9.799  12.721
74710SOL    HW125962   0.026   9.725  12.675
74710SOL    HW225963   0.058   9.863  12.730
74711SOL     OW25964   6.561   6.453   6.589
74711SOL    HW125965   6.641   6.504   6.580
74711SOL    HW225966   6.511   6.473   6.510
74712SOL     OW25967   5.834   1.887   1.131
74712SOL    HW125968   5.873   1.813   1.178
74712SOL    HW225969   5.759   1.850   1.084
74713SOL     OW25970   1.680  11.524   4.806
74713SOL    HW125971   1.586  11.538   4.789
74713SOL    HW225972   1.723  11.559   4.728
74714SOL     OW25973   0.077   9.995   7.640
74714SOL    HW125974   0.126  10.032   7.567
74714SOL    HW225975   0.144   9.973   7.705
74715SOL     OW25976   0.326  12.337   0.546
74715SOL    HW125977   0.333  12.432   0.558
74715SOL    HW225978   0.411  12.311   0.511
74716SOL     OW25979   5.718   3.499   6.394
74716SOL    HW125980   5.679   3.522   6.479
74716SOL    HW225981   5.646   3.459   6.344
74717SOL     OW25982  13.054   7.267   2.788
74717SOL    HW125983  13.070   7.208   2.862
74717SOL    HW225984  13.012   7.212   2.722
74718SOL     OW25985  14.845   9.863  14.560
74718SOL    HW125986  14.815   9.820  14.640
74718SOL    HW225987  14.819   9.954  14.570
74719SOL     OW25988  13.504  11.470  12.375
74719SOL    HW125989  13.421  11.428  12.401
74719SOL    HW225990  13.552  11.401  12.329
74720SOL     OW25991   8.282  13.889  12.455
74720SOL    HW125992   8.365  13.916  12.495
74720SOL    HW225993   8.275  13.796  12.475
74721SOL     OW25994   3.767   5.075  12.197
74721SOL    HW125995   3.826   5.062  12.271
74721SOL    HW225996   3.702   5.138  12.229
74722SOL     OW25997   7.394   2.370   4.792
74722SOL    HW125998   7.386   2.320   4.710
74722SOL    HW225999   7.476   2.338   4.830
74723SOL     OW26000  14.878   9.175   1.481
74723SOL    HW126001   0.057   9.185   1.408
74723SOL    HW226002  14.879   9.260   1.525
74724SOL     OW26003   6.277   8.779  12.172
74724SOL    HW126004   6.345   8.841  12.145
74724SOL    HW226005   6.325   8.713  12.223
74725SOL     OW26006   3.468   4.758   4.889
74725SOL    HW126007   3.430   4.745   4.976
74725SOL    HW226008   3.502   4.672   4.865
74726SOL     OW26009   5.312  14.724  13.995
74726SOL    HW126010   5.288  14.729  13.902
74726SOL    HW226011   5.408  14.725  13.994
74727SOL     OW26012   6.258   2.687   1.155
74727SOL    HW126013   6.271   2.769   1.202
74727SOL    HW226014   6.342   2.671   1.112
74728SOL     OW26015   4.543   7.096  14.339
74728SOL    HW126016   4.608   7.097  14.410
74728SOL    HW226017   4.511   7.006  14.338
74729SOL     OW26018  13.811  13.783  14.317
74729SOL    HW126019  13.865  13.718  14.362
74729SOL    HW226020  13.816  13.757  14.225
74730SOL     OW26021   0.377   0.594   3.128
74730SOL    HW126022   0.425   0.596   3.211
74730SOL    HW226023   0.378   0.685   3.097
74731SOL     OW26024   7.392  11.402   6.926
74731SOL    HW126025   7.348  11.403   6.841
74731SOL    HW226026   7.473  11.451   6.912
74732SOL     OW26027   8.141  12.974   9.065
74732SOL    HW126028   8.158  12.887   9.100
74732SOL    HW226029   8.129  12.960   8.971
74733SOL     OW26030   9.846  12.335   5.969
74733SOL    HW126031   9.837  12.256   6.023
74733SOL    HW226032   9.766  12.384   5.984
74734SOL     OW26033   2.669   9.869   7.489
74734SOL    HW126034   2.675   9.868   7.585
74734SOL    HW226035   2.578   9.848   7.470
74735SOL     OW26036  13.858   4.911  12.677
74735SOL    HW126037  13.849   4.836  12.736
74735SOL    HW226038  13.904   4.877  12.601
74736SOL     OW26039   1.289   7.393   1.697
74736SOL    HW126040   1.365   7.444   1.725
74736SOL    HW226041   1.246   7.367   1.778
74737SOL     OW26042  12.819   9.305  10.862
74737SOL    HW126043  12.780   9.299  10.775
74737SOL    HW226044  12.890   9.241  10.862
74738SOL     OW26045  14.839   4.090  13.017
74738SOL    HW126046   0.002   4.161  13.062
74738SOL    HW226047  14.761   4.130  12.980
74739SOL     OW26048   3.934  13.247  14.333
74739SOL    HW126049   4.015  13.209  14.366
74739SOL    HW226050   3.952  13.265  14.241
74740SOL     OW26051   1.635  14.743   9.479
74740SOL    HW126052   1.580  14.818   9.499
74740SOL    HW226053   1.692  14.734   9.555
74741SOL     OW26054  13.747  11.392  11.328
74741SOL    HW126055  13.667  11.340  11.325
74741SOL    HW226056  13.761  11.412  11.420
74742SOL     OW26057   4.718   7.909  10.904
74742SOL    HW126058   4.657   7.908  10.830
74742SOL    HW226059   4.769   7.828  10.894
74743SOL     OW26060   9.283   9.878  10.204
74743SOL    HW126061   9.319   9.810  10.261
74743SOL    HW226062   9.232   9.934  10.262
74744SOL     OW26063   9.989   1.177   8.645
74744SOL    HW126064  10.066   1.230   8.624
74744SOL    HW226065   9.992   1.104   8.583
74745SOL     OW26066   4.121  11.267   5.940
74745SOL    HW126067   4.029  11.268   5.965
74745SOL    HW226068   4.163  11.211   6.006
74746SOL     OW26069   3.740  10.904   0.087
74746SOL    HW126070   3.834  10.887   0.079
74746SOL    HW226071   3.702  10.820   0.113
74747SOL     OW26072   4.327   2.682   6.184
74747SOL    HW126073   4.271   2.732   6.243
74747SOL    HW226074   4.386   2.634   6.243
74748SOL     OW26075   7.865   5.595   7.046
74748SOL    HW126076   7.955   5.627   7.057
74748SOL    HW226077   7.821   5.667   7.001
74749SOL     OW26078   5.762   9.705   6.746
74749SOL    HW126079   5.690   9.758   6.712
74749SOL    HW226080   5.793   9.656   6.670
74750SOL     OW26081   1.777   3.426  10.461
74750SOL    HW126082   1.764   3.521  10.461
74750SOL    HW226083   1.698   3.391  10.503
74751SOL     OW26084   6.495   0.061   9.626
74751SOL    HW126085   6.472   0.006   9.702
74751SOL    HW226086   6.495  14.882   9.552
74752SOL     OW26087   5.484  12.005   7.167
74752SOL    HW126088   5.555  11.942   7.156
74752SOL    HW226089   5.404  11.954   7.149
74753SOL     OW26090   0.147   8.476   1.194
74753SOL    HW126091   0.089   8.419   1.144
74753SOL    HW226092   0.195   8.526   1.128
74754SOL     OW26093   7.359  14.400   5.310
74754SOL    HW126094   7.394  14.481   5.273
74754SOL    HW226095   7.277  14.427   5.353
74755SOL     OW26096  14.325  13.047   5.054
74755SOL    HW126097  14.320  13.140   5.075
74755SOL    HW226098  14.297  13.003   5.134
74756SOL     OW26099   4.406  13.869  12.165
74756SOL    HW126100   4.472  13.828  12.221
74756SOL    HW226101   4.323  13.832  12.195
74757SOL     OW26102  10.980  12.478   2.835
74757SOL    HW126103  10.972  12.443   2.924
74757SOL    HW226104  11.038  12.417   2.790
74758SOL     OW26105   3.347   5.514   9.942
74758SOL    HW126106   3.269   5.524   9.998
74758SOL    HW226107   3.419   5.501  10.003
74759SOL     OW26108   2.900  11.073   7.398
74759SOL    HW126109   2.878  11.005   7.461
74759SOL    HW226110   2.990  11.055   7.373
74760SOL     OW26111   4.524   8.264  11.186
74760SOL    HW126112   4.486   8.183  11.222
74760SOL    HW226113   4.570   8.235  11.107
74761SOL     OW26114  12.298   0.381  14.393
74761SOL    HW126115  12.254   0.349  14.315
74761SOL    HW226116  12.385   0.409  14.363
74762SOL     OW26117   6.583   4.714   0.931
74762SOL    HW126118   6.633   4.678   0.858
74762SOL    HW226119   6.502   4.747   0.891
74763SOL     OW26120   0.207  10.243  11.851
74763SOL    HW126121   0.158  10.282  11.924
74763SOL    HW226122   0.298  10.266  11.869
74764SOL     OW26123   9.682  14.362   4.550
74764SOL    HW126124   9.661  14.275   4.517
74764SOL    HW226125   9.776  14.372   4.531
74765SOL     OW26126  14.516  10.324   8.490
74765SOL    HW126127  14.473  10.254   8.440
74765SOL    HW226128  14.446  10.364   8.541
74766SOL     OW26129   9.923   6.048   0.781
74766SOL    HW126130   9.908   6.085   0.868
74766SOL    HW226131  10.011   6.078   0.758
74767SOL     OW26132  10.938  12.326  10.136
74767SOL    HW126133  11.015  12.379  10.155
74767SOL    HW226134  10.929  12.330  10.041
74768SOL     OW26135  11.613   9.407  13.635
74768SOL    HW126136  11.643   9.357  13.711
74768SOL    HW226137  11.692   9.449  13.601
74769SOL     OW26138  11.991  13.876  10.108
74769SOL    HW126139  11.952  13.804  10.058
74769SOL    HW226140  12.063  13.907  10.053
74770SOL     OW26141  10.335   5.020  10.557
74770SOL    HW126142  10.425   4.987  10.562
74770SOL    HW226143  10.309   5.031  10.649
74771SOL     OW26144   7.642   0.282   2.124
74771SOL    HW126145   7.692   0.269   2.205
74771SOL    HW226146   7.695   0.343   2.073
74772SOL     OW26147  12.291   7.356   6.340
74772SOL    HW126148  12.218   7.339   6.280
74772SOL    HW226149  12.340   7.427   6.297
74773SOL     OW26150   3.891   2.790   4.716
74773SOL    HW126151   3.861   2.702   4.695
74773SOL    HW226152   3.830   2.821   4.783
74774SOL     OW26153  10.751  14.778  10.972
74774SOL    HW126154  10.661  14.792  10.943
74774SOL    HW226155  10.805  14.798  10.895
74775SOL     OW26156  13.096  12.282  11.678
74775SOL    HW126157  13.012  12.296  11.636
74775SOL    HW226158  13.142  12.366  11.670
74776SOL     OW26159  14.191   7.762   7.218
74776SOL    HW126160  14.099   7.784   7.203
74776SOL    HW226161  14.226   7.838   7.264
74777SOL     OW26162  10.629   5.374   1.461
74777SOL    HW126163  10.667   5.422   1.388
74777SOL    HW226164  10.547   5.338   1.427
74778SOL     OW26165  11.579   5.630   6.434
74778SOL    HW126166  11.663   5.648   6.392
74778SOL    HW226167  11.514   5.666   6.374
74779SOL     OW26168   1.585   8.152  13.135
74779SOL    HW126169   1.668   8.190  13.108
74779SOL    HW226170   1.526   8.167  13.061
74780SOL     OW26171  13.635   3.902   6.056
74780SOL    HW126172  13.605   3.943   6.137
74780SOL    HW226173  13.585   3.946   5.987
74781SOL     OW26174   8.686  10.799   2.354
74781SOL    HW126175   8.639  10.879   2.377
74781SOL    HW226176   8.765  10.800   2.409
74782SOL     OW26177   6.891  12.237   6.208
74782SOL    HW126178   6.917  12.323   6.241
74782SOL    HW226179   6.923  12.235   6.118
74783SOL     OW26180  13.189  11.627   7.087
74783SOL    HW126181  13.168  11.556   7.148
74783SOL    HW226182  13.231  11.693   7.141
74784SOL     OW26183  12.598   7.304   0.438
74784SOL    HW126184  12.505   7.307   0.457
74784SOL    HW226185  12.623   7.213   0.456
74785SOL     OW26186   5.620  14.679   0.103
74785SOL    HW126187   5.597  14.594   0.065
74785SOL    HW226188   5.541  14.731   0.093
74786SOL     OW26189  14.370  10.563   1.331
74786SOL    HW126190  14.299  10.523   1.280
74786SOL    HW226191  14.361  10.657   1.316
74787SOL     OW26192   4.938   6.564   8.248
74787SOL    HW126193   4.907   6.620   8.177
74787SOL    HW226194   4.932   6.618   8.327
74788SOL     OW26195   5.971  11.126   5.060
74788SOL    HW126196   6.028  11.200   5.041
74788SOL    HW226197   5.888  11.166   5.087
74789SOL     OW26198  13.089  11.873   9.167
74789SOL    HW126199  13.111  11.893   9.076
74789SOL    HW226200  13.041  11.790   9.163
74790SOL     OW26201   2.130   3.602  14.447
74790SOL    HW126202   2.093   3.644  14.525
74790SOL    HW226203   2.134   3.509  14.469
74791SOL     OW26204   9.871   8.749   6.100
74791SOL    HW126205   9.966   8.764   6.101
74791SOL    HW226206   9.839   8.786   6.182
74792SOL     OW26207   3.783   8.940   4.441
74792SOL    HW126208   3.801   9.011   4.379
74792SOL    HW226209   3.837   8.961   4.518
74793SOL     OW26210   1.815  12.532  11.937
74793SOL    HW126211   1.860  12.583  12.004
74793SOL    HW226212   1.725  12.525  11.968
74794SOL     OW26213   5.321   0.530   8.846
74794SOL    HW126214   5.387   0.574   8.898
74794SOL    HW226215   5.330   0.437   8.869
74795SOL     OW26216   0.678   6.954   7.904
74795SOL    HW126217   0.590   6.970   7.870
74795SOL    HW226218   0.665   6.907   7.986
74796SOL     OW26219   4.010   3.111  10.318
74796SOL    HW126220   4.003   3.131  10.225
74796SOL    HW226221   3.921   3.124  10.352
74797SOL     OW26222  13.515   2.046  13.115
74797SOL    HW126223  13.580   2.103  13.075
74797SOL    HW226224  13.508   2.077  13.205
74798SOL     OW26225   2.189   3.953   3.059
74798SOL    HW126226   2.113   3.920   3.011
74798SOL    HW226227   2.255   3.885   3.049
74799SOL     OW26228   4.315  13.551   1.611
74799SOL    HW126229   4.353  13.631   1.575
74799SOL    HW226230   4.290  13.500   1.534
74800SOL     OW26231  12.578   5.198   1.718
74800SOL    HW126232  12.560   5.134   1.649
74800SOL    HW226233  12.646   5.157   1.771
74801SOL     OW26234  11.715   6.094   4.712
74801SOL    HW126235  11.650   6.163   4.718
74801SOL    HW226236  11.788   6.134   4.665
74802SOL     OW26237  12.517   2.355  10.522
74802SOL    HW126238  12.554   2.277  10.564
74802SOL    HW226239  12.427   2.332  10.502
74803SOL     OW26240  12.054   8.180  10.491
74803SOL    HW126241  11.981   8.231  10.455
74803SOL    HW226242  12.044   8.188  10.586
74804SOL     OW26243   0.718   0.991  14.254
74804SOL    HW126244   0.704   0.902  14.286
74804SOL    HW226245   0.663   1.046  14.309
74805SOL     OW26246   0.037   8.629  13.494
74805SOL    HW126247   0.036   8.534  13.483
74805SOL    HW226248  14.838   8.650  13.540
74806SOL     OW26249  11.746  12.491   8.155
74806SOL    HW126250  11.715  12.402   8.143
74806SOL    HW226251  11.680  12.546   8.113
74807SOL     OW26252   3.672   9.332  11.458
74807SOL    HW126253   3.626   9.251  11.478
74807SOL    HW226254   3.628   9.399  11.510
74808SOL     OW26255   6.499   6.580   8.553
74808SOL    HW126256   6.420   6.534   8.526
74808SOL    HW226257   6.519   6.637   8.478
74809SOL     OW26258  14.475   1.864  12.708
74809SOL    HW126259  14.385   1.840  12.731
74809SOL    HW226260  14.469   1.956  12.682
74810SOL     OW26261  10.656   7.859   3.189
74810SOL    HW126262  10.588   7.925   3.176
74810SOL    HW226263  10.610   7.785   3.229
74811SOL     OW26264   5.835  11.674   2.064
74811SOL    HW126265   5.924  11.640   2.059
74811SOL    HW226266   5.820  11.687   2.158
74812SOL     OW26267   3.830  11.174  11.334
74812SOL    HW126268   3.906  11.233  11.339
74812SOL    HW226269   3.833  11.125  11.416
74813SOL     OW26270  10.271   1.477  11.374
74813SOL    HW126271  10.272   1.472  11.278
74813SOL    HW226272  10.263   1.386  11.403
74814SOL     OW26273  11.996  13.086   2.714
74814SOL    HW126274  11.925  13.063   2.774
74814SOL    HW226275  12.016  13.005   2.668
74815SOL     OW26276   6.975   3.576  14.009
74815SOL    HW126277   6.976   3.563  13.915
74815SOL    HW226278   7.067   3.574  14.035
74816SOL     OW26279   9.406   9.389   2.464
74816SOL    HW126280   9.482   9.354   2.416
74816SOL    HW226281   9.429   9.378   2.556
74817SOL     OW26282   5.011  11.112   7.448
74817SOL    HW126283   5.032  11.019   7.435
74817SOL    HW226284   4.928  11.125   7.402
74818SOL     OW26285   1.214  13.505  12.847
74818SOL    HW126286   1.245  13.459  12.769
74818SOL    HW226287   1.234  13.597  12.830
74819SOL     OW26288  10.260   6.640  12.730
74819SOL    HW126289  10.298   6.728  12.732
74819SOL    HW226290  10.334   6.582  12.714
74820SOL     OW26291   6.226   5.251  12.846
74820SOL    HW126292   6.162   5.294  12.790
74820SOL    HW226293   6.256   5.320  12.906
74821SOL     OW26294   3.745   0.590  12.709
74821SOL    HW126295   3.746   0.513  12.765
74821SOL    HW226296   3.772   0.558  12.623
74822SOL     OW26297  11.341   5.984   2.951
74822SOL    HW126298  11.336   6.079   2.958
74822SOL    HW226299  11.418   5.960   3.003
74823SOL     OW26300   8.632  13.743  12.697
74823SOL    HW126301   8.721  13.734  12.663
74823SOL    HW226302   8.606  13.654  12.722
74824SOL     OW26303   3.822  11.251  11.073
74824SOL    HW126304   3.819  11.206  11.157
74824SOL    HW226305   3.864  11.335  11.092
74825SOL     OW26306  14.326   3.862   8.700
74825SOL    HW126307  14.346   3.943   8.746
74825SOL    HW226308  14.404   3.808   8.710
74826SOL     OW26309  11.319  11.612  14.019
74826SOL    HW126310  11.362  11.693  13.992
74826SOL    HW226311  11.390  11.549  14.030
74827SOL     OW26312   2.153   7.181   6.930
74827SOL    HW126313   2.249   7.173   6.932
74827SOL    HW226314   2.137   7.271   6.901
74828SOL     OW26315  12.383  10.834  12.510
74828SOL    HW126316  12.293  10.868  12.506
74828SOL    HW226317  12.404  10.810  12.420
74829SOL     OW26318  12.750  11.102   6.985
74829SOL    HW126319  12.712  11.144   7.062
74829SOL    HW226320  12.784  11.175   6.933
74830SOL     OW26321   8.733  12.580  10.426
74830SOL    HW126322   8.790  12.577  10.503
74830SOL    HW226323   8.771  12.515  10.366
74831SOL     OW26324   6.652  13.874   2.889
74831SOL    HW126325   6.598  13.938   2.936
74831SOL    HW226326   6.688  13.923   2.815
74832SOL     OW26327  10.309   3.556  13.754
74832SOL    HW126328  10.280   3.591  13.670
74832SOL    HW226329  10.240   3.580  13.816
74833SOL     OW26330  13.117   1.193  14.294
74833SOL    HW126331  13.165   1.154  14.368
74833SOL    HW226332  13.165   1.273  14.274
74834SOL     OW26333   5.627   1.000  14.400
74834SOL    HW126334   5.535   1.020  14.419
74834SOL    HW226335   5.626   0.909  14.370
74835SOL     OW26336   0.256  14.045  13.129
74835SOL    HW126337   0.276  13.992  13.206
74835SOL    HW226338   0.319  14.016  13.063
74836SOL     OW26339   8.236  12.941   5.395
74836SOL    HW126340   8.258  13.009   5.459
74836SOL    HW226341   8.303  12.950   5.327
74837SOL     OW26342  14.044   5.165  12.605
74837SOL    HW126343  13.970   5.206  12.561
74837SOL    HW226344  14.087   5.114  12.536
74838SOL     OW26345   8.055   9.293   7.932
74838SOL    HW126346   8.089   9.204   7.937
74838SOL    HW226347   7.988   9.290   7.864
74839SOL     OW26348   1.588   7.803   4.357
74839SOL    HW126349   1.560   7.754   4.435
74839SOL    HW226350   1.624   7.737   4.299
74840SOL     OW26351   3.462   3.114   2.551
74840SOL    HW126352   3.488   3.171   2.624
74840SOL    HW226353   3.534   3.052   2.541
74841SOL     OW26354  11.679   6.972  14.489
74841SOL    HW126355  11.628   7.034  14.437
74841SOL    HW226356  11.761   6.961  14.440
74842SOL     OW26357   8.105  12.571   7.217
74842SOL    HW126358   8.172  12.613   7.271
74842SOL    HW226359   8.134  12.481   7.206
74843SOL     OW26360  10.974  10.679   4.192
74843SOL    HW126361  10.934  10.766   4.185
74843SOL    HW226362  10.944  10.632   4.114
74844SOL     OW26363   8.992  14.796   7.442
74844SOL    HW126364   8.942  14.823   7.519
74844SOL    HW226365   9.014  14.705   7.458
74845SOL     OW26366  10.108   7.660   7.938
74845SOL    HW126367  10.129   7.670   8.031
74845SOL    HW226368  10.179   7.606   7.903
74846SOL     OW26369   9.235   2.167  11.838
74846SOL    HW126370   9.330   2.181  11.841
74846SOL    HW226371   9.201   2.243  11.792
74847SOL     OW26372   6.727   9.524  13.590
74847SOL    HW126373   6.778   9.604  13.577
74847SOL    HW226374   6.761   9.463  13.525
74848SOL     OW26375   4.198  13.871   6.211
74848SOL    HW126376   4.184  13.949   6.265
74848SOL    HW226377   4.123  13.870   6.152
74849SOL     OW26378   2.131   4.289   9.229
74849SOL    HW126379   2.213   4.290   9.279
74849SOL    HW226380   2.100   4.380   9.233
74850SOL     OW26381   9.983   6.182  11.369
74850SOL    HW126382  10.012   6.165  11.279
74850SOL    HW226383  10.062   6.170  11.422
74851SOL     OW26384   8.806   4.629   3.373
74851SOL    HW126385   8.870   4.700   3.374
74851SOL    HW226386   8.782   4.617   3.464
74852SOL     OW26387   9.121   7.206   2.359
74852SOL    HW126388   9.186   7.197   2.288
74852SOL    HW226389   9.152   7.282   2.409
74853SOL     OW26390   0.295   2.693   0.694
74853SOL    HW126391   0.360   2.631   0.728
74853SOL    HW226392   0.317   2.776   0.737
74854SOL     OW26393  10.164   9.045  12.273
74854SOL    HW126394  10.189   9.032  12.365
74854SOL    HW226395  10.165   8.957  12.236
74855SOL     OW26396   0.467  11.129   6.212
74855SOL    HW126397   0.404  11.058   6.216
74855SOL    HW226398   0.483  11.142   6.118
74856SOL     OW26399  10.639  10.869   0.025
74856SOL    HW126400  10.679  10.933  14.847
74856SOL    HW226401  10.545  10.876   0.008
74857SOL     OW26402   8.339   2.440  10.360
74857SOL    HW126403   8.291   2.368  10.319
74857SOL    HW226404   8.273   2.509  10.372
74858SOL     OW26405   3.890   4.091  14.173
74858SOL    HW126406   3.937   4.165  14.135
74858SOL    HW226407   3.828   4.131  14.235
74859SOL     OW26408   8.934   2.426  13.906
74859SOL    HW126409   8.939   2.483  13.982
74859SOL    HW226410   8.841   2.427  13.882
74860SOL     OW26411   1.763   0.421  10.627
74860SOL    HW126412   1.674   0.433  10.660
74860SOL    HW226413   1.775   0.327  10.623
74861SOL     OW26414  10.817   0.346   4.990
74861SOL    HW126415  10.911   0.331   5.000
74861SOL    HW226416  10.776   0.266   5.024
74862SOL     OW26417   0.470   1.214   6.121
74862SOL    HW126418   0.487   1.120   6.126
74862SOL    HW226419   0.474   1.234   6.027
74863SOL     OW26420   9.342   8.363   4.051
74863SOL    HW126421   9.341   8.324   4.139
74863SOL    HW226422   9.355   8.457   4.067
74864SOL     OW26423   3.144   4.851   0.498
74864SOL    HW126424   3.184   4.837   0.584
74864SOL    HW226425   3.051   4.836   0.512
74865SOL     OW26426   3.792   3.542   3.455
74865SOL    HW126427   3.758   3.555   3.544
74865SOL    HW226428   3.734   3.593   3.399
74866SOL     OW26429   1.139  10.128   6.327
74866SOL    HW126430   1.191  10.088   6.257
74866SOL    HW226431   1.073  10.180   6.282
74867SOL     OW26432   5.042   8.216   3.168
74867SOL    HW126433   5.061   8.146   3.106
74867SOL    HW226434   5.079   8.185   3.251
74868SOL     OW26435  12.739  10.931   6.741
74868SOL    HW126436  12.726  10.952   6.834
74868SOL    HW226437  12.779  10.843   6.742
74869SOL     OW26438   5.924   9.643   5.093
74869SOL    HW126439   5.993   9.577   5.082
74869SOL    HW226440   5.963   9.724   5.060
74870SOL     OW26441   7.726   3.855  11.459
74870SOL    HW126442   7.736   3.931  11.402
74870SOL    HW226443   7.770   3.879  11.540
74871SOL     OW26444  10.344  13.077  12.779
74871SOL    HW126445  10.297  13.000  12.811
74871SOL    HW226446  10.353  13.133  12.856
74872SOL     OW26447   0.161   8.913   9.602
74872SOL    HW126448   0.095   8.868   9.655
74872SOL    HW226449   0.239   8.913   9.658
74873SOL     OW26450   7.205   9.127   1.593
74873SOL    HW126451   7.198   9.189   1.520
74873SOL    HW226452   7.256   9.055   1.558
74874SOL     OW26453   7.013   0.478   1.047
74874SOL    HW126454   7.089   0.521   1.087
74874SOL    HW226455   6.951   0.550   1.030
74875SOL     OW26456   5.491   5.114  13.868
74875SOL    HW126457   5.566   5.168  13.892
74875SOL    HW226458   5.529   5.038  13.824
74876SOL     OW26459   6.314  11.528  11.142
74876SOL    HW126460   6.390  11.535  11.084
74876SOL    HW226461   6.246  11.581  11.099
74877SOL     OW26462  14.584   4.827  13.581
74877SOL    HW126463  14.548   4.902  13.628
74877SOL    HW226464  14.648   4.789  13.641
74878SOL     OW26465   1.566  14.210   1.571
74878SOL    HW126466   1.514  14.249   1.501
74878SOL    HW226467   1.655  14.205   1.535
74879SOL     OW26468   1.543   3.304  10.527
74879SOL    HW126469   1.499   3.389  10.530
74879SOL    HW226470   1.480   3.246  10.484
74880SOL     OW26471  11.307   0.451  13.344
74880SOL    HW126472  11.246   0.516  13.379
74880SOL    HW226473  11.303   0.378  13.406
74881SOL     OW26474   6.592   1.171   2.126
74881SOL    HW126475   6.572   1.263   2.139
74881SOL    HW226476   6.639   1.145   2.206
74882SOL     OW26477   7.315   6.028   2.055
74882SOL    HW126478   7.322   6.070   1.969
74882SOL    HW226479   7.386   6.066   2.106
74883SOL     OW26480   6.548   0.054   8.270
74883SOL    HW126481   6.475   0.102   8.310
74883SOL    HW226482   6.581   0.112   8.201
74884SOL     OW26483   7.452   4.824   3.395
74884SOL    HW126484   7.368   4.866   3.413
74884SOL    HW226485   7.457   4.752   3.457
74885SOL     OW26486   4.319   8.016  11.599
74885SOL    HW126487   4.243   8.007  11.656
74885SOL    HW226488   4.393   8.031  11.658
74886SOL     OW26489   2.523   9.566   1.411
74886SOL    HW126490   2.601   9.604   1.373
74886SOL    HW226491   2.451   9.599   1.358
74887SOL     OW26492  10.862   4.649   0.200
74887SOL    HW126493  10.841   4.557   0.212
74887SOL    HW226494  10.838   4.691   0.282
74888SOL     OW26495   1.773  14.524  14.044
74888SOL    HW126496   1.803  14.470  13.971
74888SOL    HW226497   1.710  14.469  14.091
74889SOL     OW26498   1.266   7.992   4.788
74889SOL    HW126499   1.277   7.900   4.811
74889SOL    HW226500   1.338   8.010   4.727
74890SOL     OW26501   9.692  11.108  14.461
74890SOL    HW126502   9.651  11.193  14.451
74890SOL    HW226503   9.772  11.113  14.408
74891SOL     OW26504  13.085  12.084  11.863
74891SOL    HW126505  12.997  12.049  11.852
74891SOL    HW226506  13.094  12.149  11.793
74892SOL     OW26507   1.423   2.206   4.659
74892SOL    HW126508   1.420   2.280   4.720
74892SOL    HW226509   1.344   2.156   4.677
74893SOL     OW26510  13.282   0.191  13.233
74893SOL    HW126511  13.349   0.180  13.300
74893SOL    HW226512  13.328   0.178  13.150
74894SOL     OW26513   7.253  10.836   0.547
74894SOL    HW126514   7.232  10.810   0.637
74894SOL    HW226515   7.347  10.824   0.540
74895SOL     OW26516  11.565  13.113  10.008
74895SOL    HW126517  11.582  13.207  10.018
74895SOL    HW226518  11.522  13.105   9.923
74896SOL     OW26519   2.080   4.791  13.669
74896SOL    HW126520   2.066   4.834  13.753
74896SOL    HW226521   2.146   4.845  13.625
74897SOL     OW26522   0.688   7.273  14.597
74897SOL    HW126523   0.629   7.344  14.573
74897SOL    HW226524   0.659   7.246  14.684
74898SOL     OW26525  13.041   4.862  12.431
74898SOL    HW126526  13.117   4.920  12.432
74898SOL    HW226527  13.067   4.789  12.375
74899SOL     OW26528   5.474   7.698   3.734
74899SOL    HW126529   5.394   7.687   3.682
74899SOL    HW226530   5.451   7.767   3.797
74900SOL     OW26531  12.759   7.954   8.824
74900SOL    HW126532  12.839   7.991   8.862
74900SOL    HW226533  12.700   8.028   8.814
74901SOL     OW26534  14.382   8.417   8.942
74901SOL    HW126535  14.456   8.358   8.958
74901SOL    HW226536  14.307   8.371   8.978
74902SOL     OW26537   6.483   6.766   3.032
74902SOL    HW126538   6.517   6.811   2.955
74902SOL    HW226539   6.535   6.801   3.105
74903SOL     OW26540   6.746  11.343   9.383
74903SOL    HW126541   6.752  11.434   9.354
74903SOL    HW226542   6.793  11.341   9.466
74904SOL     OW26543   9.179  12.977  10.340
74904SOL    HW126544   9.247  13.015  10.285
74904SOL    HW226545   9.114  13.047  10.350
74905SOL     OW26546   7.170  12.258  14.552
74905SOL    HW126547   7.232  12.317  14.594
74905SOL    HW226548   7.091  12.311  14.540
74906SOL     OW26549   8.844   6.786  13.433
74906SOL    HW126550   8.870   6.730  13.360
74906SOL    HW226551   8.768   6.743  13.470
74907SOL     OW26552   3.706   4.088   2.302
74907SOL    HW126553   3.799   4.100   2.321
74907SOL    HW226554   3.661   4.128   2.377
74908SOL     OW26555   0.797   4.565   7.174
74908SOL    HW126556   0.767   4.508   7.244
74908SOL    HW226557   0.875   4.522   7.139
74909SOL     OW26558   8.236   4.988   8.480
74909SOL    HW126559   8.263   5.061   8.424
74909SOL    HW226560   8.196   5.031   8.556
74910SOL     OW26561   1.341   6.690   2.941
74910SOL    HW126562   1.401   6.760   2.914
74910SOL    HW226563   1.398   6.619   2.970
74911SOL     OW26564   6.276  14.775  13.447
74911SOL    HW126565   6.186  14.754  13.472
74911SOL    HW226566   6.291  14.722  13.368
74912SOL     OW26567   2.518   9.668   5.493
74912SOL    HW126568   2.507   9.761   5.515
74912SOL    HW226569   2.607   9.662   5.459
74913SOL     OW26570   4.992  12.000   6.814
74913SOL    HW126571   4.908  12.025   6.777
74913SOL    HW226572   4.972  11.931   6.876
74914SOL     OW26573   0.672   6.139   0.527
74914SOL    HW126574   0.618   6.163   0.602
74914SOL    HW226575   0.687   6.045   0.537
74915SOL     OW26576   7.975   5.877   5.881
74915SOL    HW126577   7.908   5.818   5.915
74915SOL    HW226578   7.981   5.856   5.788
74916SOL     OW26579   9.747   3.851  12.355
74916SOL    HW126580   9.684   3.866  12.425
74916SOL    HW226581   9.833   3.861  12.396
74917SOL     OW26582  11.791  14.177   5.032
74917SOL    HW126583  11.850  14.108   5.061
74917SOL    HW226584  11.796  14.174   4.936
74918SOL     OW26585   8.044   1.750   2.271
74918SOL    HW126586   7.978   1.684   2.293
74918SOL    HW226587   8.100   1.755   2.349
74919SOL     OW26588   3.410   9.313  13.202
74919SOL    HW126589   3.333   9.258  13.189
74919SOL    HW226590   3.484   9.254  13.190
74920SOL     OW26591   0.449  10.178   9.865
74920SOL    HW126592   0.366  10.153   9.825
74920SOL    HW226593   0.493  10.231   9.800
74921SOL     OW26594  13.753  11.853   1.313
74921SOL    HW126595  13.727  11.777   1.261
74921SOL    HW226596  13.801  11.816   1.387
74922SOL     OW26597   3.884   5.176   0.156
74922SOL    HW126598   3.861   5.090   0.191
74922SOL    HW226599   3.890   5.233   0.233
74923SOL     OW26600   6.283   1.108   5.814
74923SOL    HW126601   6.294   1.134   5.723
74923SOL    HW226602   6.371   1.108   5.850
74924SOL     OW26603   7.697   9.602   9.629
74924SOL    HW126604   7.784   9.615   9.592
74924SOL    HW226605   7.638   9.642   9.566
74925SOL     OW26606   2.463  14.543   2.611
74925SOL    HW126607   2.511  14.516   2.533
74925SOL    HW226608   2.530  14.583   2.667
74926SOL     OW26609   5.633   9.928   3.727
74926SOL    HW126610   5.713   9.960   3.685
74926SOL    HW226611   5.646   9.834   3.735
74927SOL     OW26612  11.172   2.675   4.096
74927SOL    HW126613  11.155   2.625   4.175
74927SOL    HW226614  11.109   2.641   4.032
74928SOL     OW26615   0.270   2.937   5.836
74928SOL    HW126616   0.297   2.854   5.876
74928SOL    HW226617   0.208   2.911   5.768
74929SOL     OW26618   9.595  13.307   9.628
74929SOL    HW126619   9.517  13.320   9.573
74929SOL    HW226620   9.666  13.294   9.566
74930SOL     OW26621   4.876   9.040  14.069
74930SOL    HW126622   4.827   9.063  14.148
74930SOL    HW226623   4.824   9.076  13.997
74931SOL     OW26624   7.029   0.731  12.425
74931SOL    HW126625   7.040   0.812  12.375
74931SOL    HW226626   6.949   0.692  12.390
74932SOL     OW26627  12.831  10.370   5.153
74932SOL    HW126628  12.860  10.379   5.062
74932SOL    HW226629  12.745  10.412   5.155
74933SOL     OW26630   3.301   4.748   0.285
74933SOL    HW126631   3.222   4.737   0.339
74933SOL    HW226632   3.369   4.775   0.347
74934SOL     OW26633   0.815   9.546   6.283
74934SOL    HW126634   0.855   9.632   6.295
74934SOL    HW226635   0.870   9.503   6.217
74935SOL     OW26636  13.015  10.728   2.830
74935SOL    HW126637  12.929  10.712   2.791
74935SOL    HW226638  13.069  10.655   2.799
74936SOL     OW26639   9.393   1.951   6.448
74936SOL    HW126640   9.377   2.030   6.500
74936SOL    HW226641   9.321   1.948   6.386
74937SOL     OW26642   6.776   0.359   0.149
74937SOL    HW126643   6.695   0.391   0.188
74937SOL    HW226644   6.836   0.434   0.151
74938SOL     OW26645   9.593  11.383   8.780
74938SOL    HW126646   9.624  11.456   8.725
74938SOL    HW226647   9.500  11.377   8.762
74939SOL     OW26648   2.025   4.748   8.366
74939SOL    HW126649   2.029   4.654   8.387
74939SOL    HW226650   2.115   4.778   8.373
74940SOL     OW26651   2.941   5.116   0.588
74940SOL    HW126652   2.875   5.056   0.551
74940SOL    HW226653   2.973   5.166   0.513
74941SOL     OW26654   6.298   9.289   6.201
74941SOL    HW126655   6.328   9.357   6.262
74941SOL    HW226656   6.257   9.338   6.130
74942SOL     OW26657   0.465  14.307   4.934
74942SOL    HW126658   0.473  14.252   5.011
74942SOL    HW226659   0.474  14.397   4.966
74943SOL     OW26660   1.244   2.643   2.102
74943SOL    HW126661   1.322   2.587   2.111
74943SOL    HW226662   1.278   2.724   2.064
74944SOL     OW26663   3.956   9.743   5.495
74944SOL    HW126664   3.908   9.767   5.574
74944SOL    HW226665   4.046   9.733   5.524
74945SOL     OW26666  13.139  10.962   0.918
74945SOL    HW126667  13.182  10.893   0.868
74945SOL    HW226668  13.151  10.937   1.009
74946SOL     OW26669   3.114   7.912   5.623
74946SOL    HW126670   3.121   7.826   5.582
74946SOL    HW226671   3.053   7.898   5.696
74947SOL     OW26672   4.125   6.064   1.633
74947SOL    HW126673   4.169   6.072   1.548
74947SOL    HW226674   4.154   5.979   1.667
74948SOL     OW26675   4.519   6.925  14.832
74948SOL    HW126676   4.567   6.989   0.002
74948SOL    HW226677   4.578   6.902  14.760
74949SOL     OW26678   4.497   7.987   3.955
74949SOL    HW126679   4.507   7.894   3.932
74949SOL    HW226680   4.576   8.008   4.005
74950SOL     OW26681   1.963   0.713   4.152
74950SOL    HW126682   1.984   0.620   4.143
74950SOL    HW226683   2.036   0.750   4.202
74951SOL     OW26684  12.113   5.537   2.060
74951SOL    HW126685  12.091   5.444   2.058
74951SOL    HW226686  12.068   5.574   1.984
74952SOL     OW26687  12.182  11.275  12.839
74952SOL    HW126688  12.163  11.181  12.833
74952SOL    HW226689  12.142  11.313  12.761
74953SOL     OW26690  12.627   8.087  11.789
74953SOL    HW126691  12.671   8.085  11.705
74953SOL    HW226692  12.696   8.106  11.852
74954SOL     OW26693   8.661   6.485   7.904
74954SOL    HW126694   8.612   6.534   7.970
74954SOL    HW226695   8.597   6.470   7.834
74955SOL     OW26696   7.015   1.492   1.856
74955SOL    HW126697   6.927   1.470   1.885
74955SOL    HW226698   7.037   1.424   1.792
74956SOL     OW26699  13.162   7.420   3.313
74956SOL    HW126700  13.100   7.403   3.242
74956SOL    HW226701  13.108   7.419   3.392
74957SOL     OW26702   6.161  14.190   7.112
74957SOL    HW126703   6.077  14.228   7.140
74957SOL    HW226704   6.142  14.097   7.101
74958SOL     OW26705   6.412   5.976  13.889
74958SOL    HW126706   6.334   6.007  13.935
74958SOL    HW226707   6.479   5.967  13.956
74959SOL     OW26708   3.368   7.625  14.112
74959SOL    HW126709   3.277   7.626  14.084
74959SOL    HW226710   3.399   7.537  14.091
74960SOL     OW26711   7.012  13.883   8.369
74960SOL    HW126712   6.936  13.928   8.404
74960SOL    HW226713   6.984  13.792   8.359
74961SOL     OW26714   9.839  11.713   4.799
74961SOL    HW126715   9.797  11.699   4.714
74961SOL    HW226716   9.871  11.804   4.795
74962SOL     OW26717   7.596   4.951   9.959
74962SOL    HW126718   7.551   4.939   9.875
74962SOL    HW226719   7.574   5.041   9.985
74963SOL     OW26720   7.803  11.479   1.430
74963SOL    HW126721   7.776  11.394   1.463
74963SOL    HW226722   7.720  11.524   1.410
74964SOL     OW26723   4.029  10.563   1.743
74964SOL    HW126724   4.067  10.629   1.799
74964SOL    HW226725   4.093  10.549   1.673
74965SOL     OW26726  14.467   2.842   2.948
74965SOL    HW126727  14.443   2.827   3.040
74965SOL    HW226728  14.559   2.816   2.943
74966SOL     OW26729  12.858  10.688  13.090
74966SOL    HW126730  12.771  10.648  13.081
74966SOL    HW226731  12.850  10.744  13.168
74967SOL     OW26732   1.157   5.456  12.769
74967SOL    HW126733   1.099   5.395  12.815
74967SOL    HW226734   1.110   5.478  12.688
74968SOL     OW26735   1.431   6.855   1.111
74968SOL    HW126736   1.355   6.862   1.169
74968SOL    HW226737   1.404   6.792   1.044
74969SOL     OW26738  12.760   4.174  14.257
74969SOL    HW126739  12.800   4.169  14.344
74969SOL    HW226740  12.823   4.223  14.205
74970SOL     OW26741  13.995   3.429   3.233
74970SOL    HW126742  13.936   3.474   3.172
74970SOL    HW226743  13.938   3.401   3.304
74971SOL     OW26744   7.766   0.058   9.673
74971SOL    HW126745   7.836   0.123   9.666
74971SOL    HW226746   7.698   0.091   9.615
74972SOL     OW26747   0.266   8.600   0.391
74972SOL    HW126748   0.184   8.564   0.357
74972SOL    HW226749   0.334   8.553   0.343
74973SOL     OW26750  14.874   2.640   4.435
74973SOL    HW126751   0.018   2.658   4.344
74973SOL    HW226752  14.778   2.639   4.432
74974SOL     OW26753   5.178   2.630   8.724
74974SOL    HW126754   5.196   2.677   8.805
74974SOL    HW226755   5.248   2.566   8.717
74975SOL     OW26756   6.813   9.020   1.470
74975SOL    HW126757   6.817   8.942   1.415
74975SOL    HW226758   6.753   9.079   1.425
74976SOL     OW26759   0.676   0.110   3.064
74976SOL    HW126760   0.669   0.141   3.154
74976SOL    HW226761   0.589   0.124   3.027
74977SOL     OW26762   2.576  11.917  12.155
74977SOL    HW126763   2.527  11.973  12.215
74977SOL    HW226764   2.583  11.968  12.074
74978SOL     OW26765   6.789   8.959   8.525
74978SOL    HW126766   6.842   9.033   8.494
74978SOL    HW226767   6.750   8.923   8.445
74979SOL     OW26768   1.526   6.818   9.401
74979SOL    HW126769   1.528   6.860   9.315
74979SOL    HW226770   1.435   6.828   9.430
74980SOL     OW26771   3.036  14.774   5.930
74980SOL    HW126772   3.033  14.841   5.861
74980SOL    HW226773   2.991  14.699   5.892
74981SOL     OW26774   0.259   5.863  13.992
74981SOL    HW126775   0.311   5.814  13.929
74981SOL    HW226776   0.282   5.955  13.976
74982SOL     OW26777   4.813  10.259   9.108
74982SOL    HW126778   4.774  10.341   9.139
74982SOL    HW226779   4.901  10.283   9.082
74983SOL     OW26780   5.140  13.524   9.973
74983SOL    HW126781   5.057  13.489  10.003
74983SOL    HW226782   5.142  13.505   9.879
74984SOL     OW26783   4.212  10.884   6.867
74984SOL    HW126784   4.118  10.873   6.853
74984SOL    HW226785   4.224  10.977   6.884
74985SOL     OW26786   7.123   6.754  14.796
74985SOL    HW126787   7.104   6.687  14.731
74985SOL    HW226788   7.210   6.786  14.773
74986SOL     OW26789  10.991   4.050  11.085
74986SOL    HW126790  10.901   4.025  11.105
74986SOL    HW226791  11.044   3.973  11.107
74987SOL     OW26792   2.361   8.034   2.021
74987SOL    HW126793   2.351   8.126   2.045
74987SOL    HW226794   2.344   8.031   1.927
74988SOL     OW26795   2.219   1.022   8.307
74988SOL    HW126796   2.221   1.000   8.400
74988SOL    HW226797   2.159   1.097   8.303
74989SOL     OW26798  12.850  13.904  12.944
74989SOL    HW126799  12.922  13.924  13.005
74989SOL    HW226800  12.806  13.988  12.932
74990SOL     OW26801   6.714   5.349  13.198
74990SOL    HW126802   6.622   5.370  13.214
74990SOL    HW226803   6.754   5.347  13.285
74991SOL     OW26804   2.050  13.553   5.686
74991SOL    HW126805   1.985  13.579   5.621
74991SOL    HW226806   2.115  13.624   5.685
74992SOL     OW26807   2.213   7.404  13.089
74992SOL    HW126808   2.203   7.475  13.153
74992SOL    HW226809   2.141   7.418  13.027
74993SOL     OW26810   3.233   1.896   9.179
74993SOL    HW126811   3.148   1.851   9.188
74993SOL    HW226812   3.244   1.908   9.085
74994SOL     OW26813   3.304  13.742  10.367
74994SOL    HW126814   3.227  13.778  10.411
74994SOL    HW226815   3.307  13.787  10.283
74995SOL     OW26816   1.837   4.747  11.953
74995SOL    HW126817   1.918   4.799  11.953
74995SOL    HW226818   1.805   4.752  12.043
74996SOL     OW26819   2.039   1.468  14.577
74996SOL    HW126820   2.083   1.417  14.645
74996SOL    HW226821   1.992   1.536  14.625
74997SOL     OW26822   9.969   4.429  10.344
74997SOL    HW126823   9.917   4.468  10.275
74997SOL    HW226824  10.053   4.475  10.341
74998SOL     OW26825   1.012   6.023  14.846
74998SOL    HW126826   1.030   6.012   0.058
74998SOL    HW226827   1.070   6.094  14.819
74999SOL     OW26828   4.068   1.568   0.849
74999SOL    HW126829   3.973   1.580   0.855
74999SOL    HW226830   4.083   1.534   0.761
75000SOL     OW26831  10.537  10.350  11.044
75000SOL    HW126832  10.627  10.342  11.013
75000SOL    HW226833  10.545  10.385  11.133
75001SOL     OW26834   9.192   7.350   5.578
75001SOL    HW126835   9.231   7.284   5.636
75001SOL    HW226836   9.209   7.317   5.490
75002SOL     OW26837   1.379  10.478  13.189
75002SOL    HW126838   1.419  10.404  13.143
75002SOL    HW226839   1.304  10.502  13.135
75003SOL     OW26840   7.136   6.328  14.475
75003SOL    HW126841   7.116   6.420  14.458
75003SOL    HW226842   7.189   6.301  14.400
75004SOL     OW26843  10.555  14.117   9.628
75004SOL    HW126844  10.584  14.182   9.564
75004SOL    HW226845  10.634  14.098   9.680
75005SOL     OW26846   9.914  14.550   9.389
75005SOL    HW126847   9.838  14.605   9.412
75005SOL    HW226848   9.880  14.490   9.322
75006SOL     OW26849   3.912   0.313   9.932
75006SOL    HW126850   3.930   0.300   9.839
75006SOL    HW226851   3.983   0.369   9.963
75007SOL     OW26852   8.513   7.397   1.699
75007SOL    HW126853   8.423   7.378   1.674
75007SOL    HW226854   8.563   7.319   1.673
75008SOL     OW26855   9.351   3.025   8.558
75008SOL    HW126856   9.294   3.100   8.543
75008SOL    HW226857   9.292   2.952   8.575
75009SOL     OW26858  11.334   4.094   3.945
75009SOL    HW126859  11.291   4.163   3.995
75009SOL    HW226860  11.399   4.057   4.004
75010SOL     OW26861  14.597   3.424   1.080
75010SOL    HW126862  14.503   3.427   1.099
75010SOL    HW226863  14.604   3.364   1.006
75011SOL     OW26864   9.308   6.848   9.830
75011SOL    HW126865   9.253   6.782   9.873
75011SOL    HW226866   9.398   6.815   9.841
75012SOL     OW26867   9.529  13.674  13.858
75012SOL    HW126868   9.455  13.690  13.799
75012SOL    HW226869   9.603  13.659  13.799
75013SOL     OW26870   4.349   7.533   8.972
75013SOL    HW126871   4.273   7.583   9.004
75013SOL    HW226872   4.316   7.444   8.961
75014SOL     OW26873   1.568   5.146   9.272
75014SOL    HW126874   1.571   5.056   9.303
75014SOL    HW226875   1.659   5.175   9.272
75015SOL     OW26876  10.246   1.816  13.930
75015SOL    HW126877  10.259   1.909  13.913
75015SOL    HW226878  10.224   1.811  14.023
75016SOL     OW26879  10.329  10.748  13.117
75016SOL    HW126880  10.389  10.758  13.042
75016SOL    HW226881  10.378  10.693  13.178
75017SOL     OW26882   2.129   1.139   9.439
75017SOL    HW126883   2.056   1.111   9.494
75017SOL    HW226884   2.206   1.126   9.493
75018SOL     OW26885   0.132   7.848   7.678
75018SOL    HW126886   0.210   7.881   7.724
75018SOL    HW226887   0.127   7.755   7.702
75019SOL     OW26888   6.623   3.239   9.400
75019SOL    HW126889   6.655   3.266   9.486
75019SOL    HW226890   6.555   3.303   9.378
75020SOL     OW26891   7.885  10.325  13.253
75020SOL    HW126892   7.838  10.247  13.283
75020SOL    HW226893   7.864  10.393  13.317
75021SOL     OW26894   2.495  14.369   8.988
75021SOL    HW126895   2.558  14.379   9.059
75021SOL    HW226896   2.542  14.316   8.923
75022SOL     OW26897  10.674   9.884  13.857
75022SOL    HW126898  10.698   9.970  13.892
75022SOL    HW226899  10.754   9.850  13.818
75023SOL     OW26900   8.469   5.192  11.843
75023SOL    HW126901   8.540   5.162  11.901
75023SOL    HW226902   8.504   5.179  11.755
75024SOL     OW26903   5.316  11.474  11.825
75024SOL    HW126904   5.256  11.549  11.832
75024SOL    HW226905   5.394  11.511  11.784
75025SOL     OW26906   0.029   2.145   4.329
75025SOL    HW126907   0.017   2.208   4.401
75025SOL    HW226908   0.047   2.200   4.253
75026SOL     OW26909   8.127   3.403   5.777
75026SOL    HW126910   8.087   3.476   5.730
75026SOL    HW226911   8.100   3.415   5.868
75027SOL     OW26912   9.560   9.354   1.327
75027SOL    HW126913   9.479   9.384   1.369
75027SOL    HW226914   9.533   9.279   1.275
75028SOL     OW26915  14.126  12.351   4.323
75028SOL    HW126916  14.165  12.378   4.407
75028SOL    HW226917  14.156  12.261   4.311
75029SOL     OW26918  13.822   7.508   5.120
75029SOL    HW126919  13.838   7.445   5.190
75029SOL    HW226920  13.835   7.459   5.039
75030SOL     OW26921   9.890   7.829   3.234
75030SOL    HW126922   9.918   7.744   3.201
75030SOL    HW226923   9.954   7.851   3.301
75031SOL     OW26924   3.059   1.050  14.614
75031SOL    HW126925   3.136   1.015  14.657
75031SOL    HW226926   3.040   1.131  14.661
75032SOL     OW26927  12.052   0.733   4.576
75032SOL    HW126928  11.970   0.705   4.536
75032SOL    HW226929  12.027   0.802   4.637
75033SOL     OW26930   3.582   2.521   5.725
75033SOL    HW126931   3.518   2.454   5.700
75033SOL    HW226932   3.561   2.596   5.669
75034SOL     OW26933  12.817  12.152  12.819
75034SOL    HW126934  12.724  12.142  12.799
75034SOL    HW226935  12.862  12.135  12.736
75035SOL     OW26936   2.386   7.300   7.577
75035SOL    HW126937   2.353   7.287   7.666
75035SOL    HW226938   2.423   7.388   7.578
75036SOL     OW26939   1.841   6.508   7.514
75036SOL    HW126940   1.915   6.553   7.470
75036SOL    HW226941   1.821   6.565   7.589
75037SOL     OW26942   0.207   4.014   4.742
75037SOL    HW126943   0.284   3.994   4.795
75037SOL    HW226944   0.145   4.055   4.802
75038SOL     OW26945  12.020  10.961  10.213
75038SOL    HW126946  11.963  11.038  10.216
75038SOL    HW226947  12.107  10.994  10.235
75039SOL     OW26948   8.631   8.472  12.294
75039SOL    HW126949   8.608   8.557  12.333
75039SOL    HW226950   8.692   8.433  12.356
75040SOL     OW26951  11.810   7.330   4.545
75040SOL    HW126952  11.736   7.385   4.569
75040SOL    HW226953  11.824   7.274   4.622
75041SOL     OW26954  13.767   1.573  12.075
75041SOL    HW126955  13.755   1.550  11.983
75041SOL    HW226956  13.861   1.560  12.091
75042SOL     OW26957  14.224   2.314   5.081
75042SOL    HW126958  14.262   2.262   5.152
75042SOL    HW226959  14.129   2.309   5.095
75043SOL     OW26960  10.540   1.918  13.292
75043SOL    HW126961  10.528   1.892  13.384
75043SOL    HW226962  10.581   1.842  13.251
75044SOL     OW26963   0.048   1.004  12.828
75044SOL    HW126964   0.060   0.917  12.789
75044SOL    HW226965   0.015   1.058  12.756
75045SOL     OW26966   0.166   5.358   0.621
75045SOL    HW126967   0.211   5.307   0.688
75045SOL    HW226968   0.096   5.403   0.668
75046SOL     OW26969   1.051  13.211   5.651
75046SOL    HW126970   1.066  13.297   5.692
75046SOL    HW226971   0.982  13.171   5.703
75047SOL     OW26972   4.372   5.315   2.971
75047SOL    HW126973   4.323   5.317   2.889
75047SOL    HW226974   4.319   5.365   3.033
75048SOL     OW26975   7.047   1.218   9.749
75048SOL    HW126976   7.134   1.251   9.727
75048SOL    HW226977   7.008   1.194   9.665
75049SOL     OW26978   1.106   7.021   4.930
75049SOL    HW126979   1.122   6.931   4.899
75049SOL    HW226980   1.083   7.011   5.022
75050SOL     OW26981  10.766   4.228   5.858
75050SOL    HW126982  10.712   4.191   5.928
75050SOL    HW226983  10.704   4.276   5.803
75051SOL     OW26984   9.880  11.007   1.553
75051SOL    HW126985   9.819  10.938   1.580
75051SOL    HW226986   9.965  10.977   1.585
75052SOL     OW26987   1.398   3.846  12.603
75052SOL    HW126988   1.377   3.767  12.653
75052SOL    HW226989   1.491   3.860  12.618
75053SOL     OW26990   3.978   6.480   1.368
75053SOL    HW126991   3.979   6.531   1.449
75053SOL    HW226992   3.897   6.429   1.373
75054SOL     OW26993  13.270  13.500   4.290
75054SOL    HW126994  13.189  13.512   4.340
75054SOL    HW226995  13.339  13.525   4.350
75055SOL     OW26996  13.539   8.914  14.395
75055SOL    HW126997  13.452   8.921  14.434
75055SOL    HW226998  13.539   8.979  14.325
75056SOL     OW26999  11.734  12.878   6.119
75056SOL    HW127000  11.755  12.954   6.065
75056SOL    HW227001  11.749  12.803   6.063
75057SOL     OW27002   5.155  11.541   3.663
75057SOL    HW127003   5.236  11.508   3.702
75057SOL    HW227004   5.093  11.469   3.673
75058SOL     OW27005  10.081   7.631   2.627
75058SOL    HW127006   9.991   7.598   2.622
75058SOL    HW227007  10.112   7.602   2.712
75059SOL     OW27008  14.513  14.379  14.597
75059SOL    HW127009  14.569  14.391  14.673
75059SOL    HW227010  14.488  14.286  14.599
75060SOL     OW27011  12.563   1.506  13.403
75060SOL    HW127012  12.592   1.442  13.468
75060SOL    HW227013  12.467   1.502  13.407
75061SOL     OW27014  10.441   0.423   1.817
75061SOL    HW127015  10.423   0.517   1.817
75061SOL    HW227016  10.429   0.396   1.908
75062SOL     OW27017   4.568  14.603   6.186
75062SOL    HW127018   4.576  14.585   6.092
75062SOL    HW227019   4.475  14.590   6.205
75063SOL     OW27020  13.040   8.831   3.167
75063SOL    HW127021  13.064   8.923   3.177
75063SOL    HW227022  12.998   8.826   3.082
75064SOL     OW27023  13.517   1.766   9.790
75064SOL    HW127024  13.435   1.783   9.744
75064SOL    HW227025  13.493   1.705   9.860
75065SOL     OW27026   7.373   6.550   8.388
75065SOL    HW127027   7.421   6.520   8.311
75065SOL    HW227028   7.287   6.575   8.355
75066SOL     OW27029   5.943   9.008   4.963
75066SOL    HW127030   5.959   8.929   5.014
75066SOL    HW227031   6.026   9.056   4.966
75067SOL     OW27032   1.897   8.231   6.351
75067SOL    HW127033   1.926   8.162   6.412
75067SOL    HW227034   1.805   8.210   6.334
75068SOL     OW27035   8.651  11.663   0.378
75068SOL    HW127036   8.620  11.679   0.289
75068SOL    HW227037   8.619  11.737   0.429
75069SOL     OW27038  14.868  11.898  10.334
75069SOL    HW127039   0.005  11.842  10.259
75069SOL    HW227040  14.773  11.906  10.334
75070SOL     OW27041  13.475   4.530   6.697
75070SOL    HW127042  13.412   4.462   6.722
75070SOL    HW227043  13.425   4.591   6.643
75071SOL     OW27044   0.967   6.802  12.115
75071SOL    HW127045   1.012   6.821  12.033
75071SOL    HW227046   0.950   6.708  12.112
75072SOL     OW27047  12.627   5.194   7.992
75072SOL    HW127048  12.676   5.112   7.986
75072SOL    HW227049  12.553   5.183   7.932
75073SOL     OW27050   6.704  10.461   2.962
75073SOL    HW127051   6.619  10.419   2.970
75073SOL    HW227052   6.696  10.518   2.885
75074SOL     OW27053   8.022  12.350   8.246
75074SOL    HW127054   8.060  12.269   8.279
75074SOL    HW227055   7.993  12.328   8.157
75075SOL     OW27056   2.602   9.456   8.396
75075SOL    HW127057   2.579   9.410   8.316
75075SOL    HW227058   2.587   9.392   8.466
75076SOL     OW27059   0.072   7.191  11.804
75076SOL    HW127060   0.030   7.274  11.781
75076SOL    HW227061   0.159   7.196  11.763
75077SOL     OW27062  14.118  12.142   1.449
75077SOL    HW127063  14.027  12.127   1.424
75077SOL    HW227064  14.133  12.085   1.524
75078SOL     OW27065   2.490  11.540   2.376
75078SOL    HW127066   2.546  11.463   2.384
75078SOL    HW227067   2.466  11.561   2.466
75079SOL     OW27068  13.845   9.809  11.877
75079SOL    HW127069  13.783   9.881  11.863
75079SOL    HW227070  13.885   9.794  11.791
75080SOL     OW27071  10.432   7.023  13.253
75080SOL    HW127072  10.520   7.030  13.217
75080SOL    HW227073  10.437   6.951  13.316
75081SOL     OW27074   3.750   3.400  13.879
75081SOL    HW127075   3.775   3.487  13.911
75081SOL    HW227076   3.818   3.377  13.816
75082SOL     OW27077   6.413   2.479   8.046
75082SOL    HW127078   6.405   2.461   7.953
75082SOL    HW227079   6.418   2.574   8.052
75083SOL     OW27080   4.536  10.328   0.784
75083SOL    HW127081   4.511  10.254   0.839
75083SOL    HW227082   4.512  10.406   0.835
75084SOL     OW27083   2.527   1.461  14.152
75084SOL    HW127084   2.521   1.425  14.241
75084SOL    HW227085   2.606   1.422  14.115
75085SOL     OW27086  10.167   7.886  14.197
75085SOL    HW127087  10.261   7.895  14.179
75085SOL    HW227088  10.125   7.920  14.119
75086SOL     OW27089   2.612  13.922   4.299
75086SOL    HW127090   2.547  13.938   4.231
75086SOL    HW227091   2.680  13.987   4.283
75087SOL     OW27092   5.279   0.394   8.280
75087SOL    HW127093   5.357   0.340   8.269
75087SOL    HW227094   5.286   0.428   8.369
75088SOL     OW27095   8.548   6.898   5.880
75088SOL    HW127096   8.467   6.855   5.907
75088SOL    HW227097   8.537   6.989   5.908
75089SOL     OW27098   2.776  12.305   2.138
75089SOL    HW127099   2.719  12.248   2.087
75089SOL    HW227100   2.856  12.312   2.087
75090SOL     OW27101  10.067  10.195   3.279
75090SOL    HW127102  10.004  10.133   3.243
75090SOL    HW227103  10.139  10.141   3.310
75091SOL     OW27104   2.694   2.677  13.070
75091SOL    HW127105   2.712   2.771  13.069
75091SOL    HW227106   2.605   2.671  13.104
75092SOL     OW27107  11.718  11.150   6.565
75092SOL    HW127108  11.675  11.162   6.649
75092SOL    HW227109  11.648  11.125   6.504
75093SOL     OW27110   7.346   3.271   6.371
75093SOL    HW127111   7.347   3.242   6.280
75093SOL    HW227112   7.374   3.362   6.368
75094SOL     OW27113  14.183   6.941   0.217
75094SOL    HW127114  14.270   6.909   0.191
75094SOL    HW227115  14.130   6.862   0.226
75095SOL     OW27116  14.773   1.503   9.571
75095SOL    HW127117  14.682   1.472   9.570
75095SOL    HW227118  14.779   1.563   9.497
75096SOL     OW27119   8.843   2.531  10.508
75096SOL    HW127120   8.750   2.509  10.500
75096SOL    HW227121   8.876   2.527  10.418
75097SOL     OW27122   6.723   1.602  12.039
75097SOL    HW127123   6.804   1.652  12.036
75097SOL    HW227124   6.671   1.644  12.107
75098SOL     OW27125   7.189   6.172   4.100
75098SOL    HW127126   7.249   6.207   4.166
75098SOL    HW227127   7.142   6.248   4.067
75099SOL     OW27128   5.580   3.291  14.636
75099SOL    HW127129   5.536   3.258  14.557
75099SOL    HW227130   5.642   3.356  14.605
75100SOL     OW27131   7.098   9.571   9.364
75100SOL    HW127132   7.036   9.506   9.330
75100SOL    HW227133   7.046   9.624   9.424
75101SOL     OW27134   6.817   5.975   5.661
75101SOL    HW127135   6.754   5.919   5.705
75101SOL    HW227136   6.765   6.027   5.600
75102SOL     OW27137   7.868  14.801   1.223
75102SOL    HW127138   7.854  14.761   1.137
75102SOL    HW227139   7.926  14.876   1.205
75103SOL     OW27140   1.427   0.281   8.396
75103SOL    HW127141   1.406   0.330   8.475
75103SOL    HW227142   1.394   0.335   8.324
75104SOL     OW27143   9.489   5.866  11.929
75104SOL    HW127144   9.410   5.824  11.894
75104SOL    HW227145   9.492   5.951  11.886
75105SOL     OW27146   5.597  11.952   2.151
75105SOL    HW127147   5.581  11.903   2.232
75105SOL    HW227148   5.692  11.963   2.148
75106SOL     OW27149   1.615   6.625   8.822
75106SOL    HW127150   1.545   6.623   8.756
75106SOL    HW227151   1.571   6.656   8.901
75107SOL     OW27152   4.797  11.199   1.541
75107SOL    HW127153   4.871  11.154   1.581
75107SOL    HW227154   4.754  11.133   1.487
75108SOL     OW27155   9.823  14.277   9.370
75108SOL    HW127156   9.888  14.214   9.341
75108SOL    HW227157   9.859  14.314   9.451
75109SOL     OW27158  10.412   3.230   2.114
75109SOL    HW127159  10.426   3.290   2.187
75109SOL    HW227160  10.335   3.264   2.068
75110SOL     OW27161   2.596   2.761  10.187
75110SOL    HW127162   2.609   2.847  10.227
75110SOL    HW227163   2.548   2.711  10.252
75111SOL     OW27164  10.309   3.678  11.432
75111SOL    HW127165  10.273   3.703  11.347
75111SOL    HW227166  10.237   3.692  11.493
75112SOL     OW27167   8.210  14.630   5.726
75112SOL    HW127168   8.246  14.565   5.665
75112SOL    HW227169   8.126  14.655   5.687
75113SOL     OW27170   9.437  13.615   9.425
75113SOL    HW127171   9.503  13.545   9.425
75113SOL    HW227172   9.426  13.636   9.518
75114SOL     OW27173  10.536   6.740   8.018
75114SOL    HW127174  10.457   6.772   8.060
75114SOL    HW227175  10.605   6.751   8.083
75115SOL     OW27176   1.102   0.057   8.597
75115SOL    HW127177   1.185   0.099   8.618
75115SOL    HW227178   1.056   0.120   8.542
75116SOL     OW27179   6.539   2.195   5.458
75116SOL    HW127180   6.471   2.158   5.513
75116SOL    HW227181   6.617   2.197   5.513
75117SOL     OW27182  14.691  13.656   8.907
75117SOL    HW127183  14.769  13.633   8.857
75117SOL    HW227184  14.629  13.585   8.890
75118SOL     OW27185   4.507   9.251   6.355
75118SOL    HW127186   4.483   9.160   6.342
75118SOL    HW227187   4.579   9.266   6.293
75119SOL     OW27188  14.100   3.230   9.804
75119SOL    HW127189  14.142   3.144   9.800
75119SOL    HW227190  14.166   3.286   9.846
75120SOL     OW27191  12.365   5.383  11.090
75120SOL    HW127192  12.453   5.362  11.122
75120SOL    HW227193  12.348   5.317  11.022
75121SOL     OW27194   3.036   5.186   4.401
75121SOL    HW127195   2.941   5.186   4.393
75121SOL    HW227196   3.058   5.101   4.437
75122SOL     OW27197   3.509  10.075   8.871
75122SOL    HW127198   3.587  10.043   8.826
75122SOL    HW227199   3.516  10.170   8.868
75123SOL     OW27200   8.460   0.389   5.684
75123SOL    HW127201   8.442   0.350   5.599
75123SOL    HW227202   8.376   0.424   5.712
75124SOL     OW27203  11.262   3.514   0.718
75124SOL    HW127204  11.271   3.420   0.705
75124SOL    HW227205  11.305   3.553   0.642
75125SOL     OW27206  12.529  12.567  13.905
75125SOL    HW127207  12.452  12.569  13.847
75125SOL    HW227208  12.570  12.482  13.888
75126SOL     OW27209  13.643   0.454   5.978
75126SOL    HW127210  13.607   0.366   5.991
75126SOL    HW227211  13.734   0.447   6.005
75127SOL     OW27212  10.613  11.380   8.068
75127SOL    HW127213  10.632  11.416   7.982
75127SOL    HW227214  10.531  11.422   8.095
75128SOL     OW27215   2.532   5.755  11.273
75128SOL    HW127216   2.543   5.772  11.180
75128SOL    HW227217   2.438   5.746  11.286
75129SOL     OW27218   2.024   9.794   5.438
75129SOL    HW127219   2.004   9.865   5.499
75129SOL    HW227220   1.991   9.825   5.353
75130SOL     OW27221  11.733  13.504   3.495
75130SOL    HW127222  11.697  13.511   3.583
75130SOL    HW227223  11.658  13.485   3.439
75131SOL     OW27224   6.744   5.759   7.346
75131SOL    HW127225   6.733   5.850   7.317
75131SOL    HW227226   6.714   5.760   7.437
75132SOL     OW27227   4.299   8.459   3.610
75132SOL    HW127228   4.350   8.487   3.686
75132SOL    HW227229   4.254   8.538   3.580
75133SOL     OW27230   9.619  11.730   0.785
75133SOL    HW127231   9.581  11.642   0.792
75133SOL    HW227232   9.591  11.761   0.699
75134SOL     OW27233  14.839  14.076   4.252
75134SOL    HW127234  14.871  14.142   4.190
75134SOL    HW227235  14.829  14.123   4.335
75135SOL     OW27236  13.347   3.646  14.624
75135SOL    HW127237  13.330   3.723  14.570
75135SOL    HW227238  13.395   3.680  14.699
75136SOL     OW27239   6.633   2.344  12.675
75136SOL    HW127240   6.724   2.358  12.647
75136SOL    HW227241   6.635   2.262  12.723
75137SOL     OW27242   5.255   3.419   9.350
75137SOL    HW127243   5.308   3.450   9.276
75137SOL    HW227244   5.317   3.370   9.405
75138SOL     OW27245   7.143   2.522   5.412
75138SOL    HW127246   7.174   2.454   5.351
75138SOL    HW227247   7.055   2.543   5.381
75139SOL     OW27248   9.408   0.218   6.421
75139SOL    HW127249   9.366   0.230   6.506
75139SOL    HW227250   9.372   0.136   6.387
75140SOL     OW27251  11.840   5.253   6.342
75140SOL    HW127252  11.864   5.198   6.417
75140SOL    HW227253  11.745   5.259   6.346
75141SOL     OW27254   5.819  14.544  12.979
75141SOL    HW127255   5.806  14.452  13.001
75141SOL    HW227256   5.765  14.592  13.041
75142SOL     OW27257   0.397   9.652   9.607
75142SOL    HW127258   0.408   9.561   9.633
75142SOL    HW227259   0.325   9.684   9.661
75143SOL     OW27260  10.827   5.963  10.540
75143SOL    HW127261  10.850   5.882  10.495
75143SOL    HW227262  10.852   5.948  10.631
75144SOL     OW27263  14.622   9.874   1.143
75144SOL    HW127264  14.561   9.943   1.116
75144SOL    HW227265  14.627   9.816   1.067
75145SOL     OW27266   4.608  11.940   6.910
75145SOL    HW127267   4.642  11.903   6.829
75145SOL    HW227268   4.525  11.981   6.885
75146SOL     OW27269   8.892  13.797  13.019
75146SOL    HW127270   8.941  13.754  12.949
75146SOL    HW227271   8.804  13.759  13.014
75147SOL     OW27272  13.358   3.414   3.663
75147SOL    HW127273  13.365   3.329   3.707
75147SOL    HW227274  13.266   3.420   3.637
75148SOL     OW27275   6.743  14.095   4.013
75148SOL    HW127276   6.769  14.170   4.066
75148SOL    HW227277   6.702  14.035   4.076
75149SOL     OW27278   7.361   3.849   1.808
75149SOL    HW127279   7.426   3.793   1.765
75149SOL    HW227280   7.366   3.933   1.763
75150SOL     OW27281   2.841   9.624  13.564
75150SOL    HW127282   2.893   9.699  13.537
75150SOL    HW227283   2.905   9.553  13.577
75151SOL     OW27284   6.974   0.489   5.554
75151SOL    HW127285   6.932   0.546   5.490
75151SOL    HW227286   7.062   0.524   5.564
75152SOL     OW27287   8.954   6.442   8.137
75152SOL    HW127288   8.892   6.382   8.179
75152SOL    HW227289   8.909   6.527   8.137
75153SOL     OW27290   4.605  11.220  11.368
75153SOL    HW127291   4.653  11.191  11.291
75153SOL    HW227292   4.578  11.309  11.348
75154SOL     OW27293  10.593  12.849   2.792
75154SOL    HW127294  10.564  12.793   2.864
75154SOL    HW227295  10.520  12.910   2.778
75155SOL     OW27296   9.834   4.055   1.802
75155SOL    HW127297   9.898   4.036   1.870
75155SOL    HW227298   9.774   3.980   1.803
75156SOL     OW27299  12.148   3.090   0.600
75156SOL    HW127300  12.236   3.086   0.562
75156SOL    HW227301  12.092   3.119   0.528
75157SOL     OW27302   3.345   6.124   6.156
75157SOL    HW127303   3.336   6.031   6.181
75157SOL    HW227304   3.430   6.150   6.191
75158SOL     OW27305   7.292   6.037  10.590
75158SOL    HW127306   7.253   5.952  10.569
75158SOL    HW227307   7.313   6.075  10.504
75159SOL     OW27308  12.583  12.355   6.721
75159SOL    HW127309  12.656  12.326   6.667
75159SOL    HW227310  12.594  12.310   6.805
75160SOL     OW27311   5.428  14.435   4.446
75160SOL    HW127312   5.493  14.379   4.405
75160SOL    HW227313   5.479  14.491   4.505
75161SOL     OW27314  14.093   9.045  13.505
75161SOL    HW127315  14.143   9.028  13.585
75161SOL    HW227316  14.142   8.998  13.437
75162SOL     OW27317   6.040  12.913   1.811
75162SOL    HW127318   5.953  12.912   1.773
75162SOL    HW227319   6.051  12.826   1.849
75163SOL     OW27320   0.653  11.033   0.349
75163SOL    HW127321   0.560  11.010   0.347
75163SOL    HW227322   0.697  10.962   0.302
75164SOL     OW27323  10.257  12.573  14.613
75164SOL    HW127324  10.212  12.638  14.560
75164SOL    HW227325  10.330  12.544  14.558
75165SOL     OW27326   9.027  10.224   9.200
75165SOL    HW127327   8.984  10.141   9.179
75165SOL    HW227328   8.956  10.281   9.229
75166SOL     OW27329   8.688   7.479   8.113
75166SOL    HW127330   8.605   7.499   8.070
75166SOL    HW227331   8.683   7.385   8.131
75167SOL     OW27332   8.636  12.063  14.439
75167SOL    HW127333   8.706  12.123  14.466
75167SOL    HW227334   8.556  12.115  14.447
75168SOL     OW27335  11.465   6.995   9.834
75168SOL    HW127336  11.379   7.002   9.792
75168SOL    HW227337  11.450   7.025   9.923
75169SOL     OW27338   4.365   5.248  10.856
75169SOL    HW127339   4.269   5.250  10.849
75169SOL    HW227340   4.394   5.233  10.766
75170SOL     OW27341   8.465   8.918  14.142
75170SOL    HW127342   8.552   8.919  14.101
75170SOL    HW227343   8.435   9.008  14.135
75171SOL     OW27344  14.154   2.578   5.316
75171SOL    HW127345  14.233   2.616   5.278
75171SOL    HW227346  14.183   2.537   5.397
75172SOL     OW27347   5.642   8.391   0.983
75172SOL    HW127348   5.696   8.361   0.909
75172SOL    HW227349   5.638   8.316   1.042
75173SOL     OW27350   0.287   3.552  11.046
75173SOL    HW127351   0.256   3.552  10.956
75173SOL    HW227352   0.264   3.465  11.079
75174SOL     OW27353   1.808  14.276   9.868
75174SOL    HW127354   1.832  14.357   9.913
75174SOL    HW227355   1.886  14.221   9.875
75175SOL     OW27356  14.674   8.539  14.447
75175SOL    HW127357  14.675   8.502  14.358
75175SOL    HW227358  14.730   8.480  14.498
75176SOL     OW27359  10.408   6.904  14.446
75176SOL    HW127360  10.318   6.928  14.422
75176SOL    HW227361  10.460   6.926  14.368
75177SOL     OW27362   5.192  14.482   6.562
75177SOL    HW127363   5.221  14.558   6.511
75177SOL    HW227364   5.134  14.434   6.503
75178SOL     OW27365   7.542   4.193   4.595
75178SOL    HW127366   7.633   4.200   4.565
75178SOL    HW227367   7.540   4.241   4.677
75179SOL     OW27368  11.009   6.554   0.519
75179SOL    HW127369  11.101   6.562   0.545
75179SOL    HW227370  11.012   6.530   0.427
75180SOL     OW27371   2.409  11.220   2.714
75180SOL    HW127372   2.480  11.250   2.656
75180SOL    HW227373   2.439  11.135   2.746
75181SOL     OW27374   7.065   2.542  14.029
75181SOL    HW127375   7.152   2.553  14.069
75181SOL    HW227376   7.070   2.457  13.985
75182SOL     OW27377  10.330   7.164   0.260
75182SOL    HW127378  10.422   7.140   0.262
75182SOL    HW227379  10.325   7.247   0.308
75183SOL     OW27380  14.098  10.701   8.760
75183SOL    HW127381  14.119  10.626   8.817
75183SOL    HW227382  14.119  10.670   8.672
75184SOL     OW27383   4.284   1.429   5.480
75184SOL    HW127384   4.198   1.402   5.514
75184SOL    HW227385   4.325   1.347   5.451
75185SOL     OW27386  10.885  14.541   1.936
75185SOL    HW127387  10.909  14.514   1.847
75185SOL    HW227388  10.969  14.560   1.978
75186SOL     OW27389   4.521   4.034   5.648
75186SOL    HW127390   4.519   3.939   5.652
75186SOL    HW227391   4.456   4.057   5.581
75187SOL     OW27392   5.373   5.483   2.084
75187SOL    HW127393   5.310   5.555   2.093
75187SOL    HW227394   5.319   5.407   2.062
75188SOL     OW27395   3.169   0.962   7.192
75188SOL    HW127396   3.144   0.942   7.102
75188SOL    HW227397   3.220   1.043   7.186
75189SOL     OW27398  10.992   4.283   3.889
75189SOL    HW127399  10.972   4.290   3.982
75189SOL    HW227400  10.972   4.193   3.866
75190SOL     OW27401   9.434   9.327   0.428
75190SOL    HW127402   9.371   9.389   0.391
75190SOL    HW227403   9.395   9.241   0.412
75191SOL     OW27404   5.603   9.413   0.101
75191SOL    HW127405   5.547   9.460   0.163
75191SOL    HW227406   5.686   9.461   0.103
75192SOL     OW27407  13.446   2.747   5.700
75192SOL    HW127408  13.426   2.818   5.761
75192SOL    HW227409  13.421   2.781   5.614
75193SOL     OW27410   2.282  14.233   9.387
75193SOL    HW127411   2.190  14.222   9.407
75193SOL    HW227412   2.284  14.296   9.314
75194SOL     OW27413   2.980   3.489   5.770
75194SOL    HW127414   2.900   3.482   5.717
75194SOL    HW227415   3.033   3.554   5.723
75195SOL     OW27416   4.162  10.939  14.050
75195SOL    HW127417   4.101  10.889  13.997
75195SOL    HW227418   4.184  11.015  13.997
75196SOL     OW27419   3.548   9.442   1.658
75196SOL    HW127420   3.532   9.532   1.628
75196SOL    HW227421   3.513   9.440   1.747
75197SOL     OW27422   9.203   9.818   0.380
75197SOL    HW127423   9.129   9.877   0.388
75197SOL    HW227424   9.231   9.802   0.470
75198SOL     OW27425  12.655  14.499  14.332
75198SOL    HW127426  12.630  14.444  14.405
75198SOL    HW227427  12.631  14.449  14.254
75199SOL     OW27428   1.408   3.370   4.902
75199SOL    HW127429   1.410   3.293   4.958
75199SOL    HW227430   1.318   3.403   4.910
75200SOL     OW27431  10.809   2.478   1.284
75200SOL    HW127432  10.719   2.472   1.314
75200SOL    HW227433  10.856   2.521   1.356
75201SOL     OW27434   5.738   5.516   7.624
75201SOL    HW127435   5.764   5.511   7.717
75201SOL    HW227436   5.643   5.512   7.626
75202SOL     OW27437   8.835   6.778   9.970
75202SOL    HW127438   8.866   6.839  10.037
75202SOL    HW227439   8.774   6.830   9.918
75203SOL     OW27440   8.431   2.565   3.393
75203SOL    HW127441   8.433   2.658   3.415
75203SOL    HW227442   8.356   2.556   3.333
75204SOL     OW27443  14.402   7.000  12.760
75204SOL    HW127444  14.409   7.074  12.820
75204SOL    HW227445  14.493   6.978  12.739
75205SOL     OW27446   5.470  14.192   2.323
75205SOL    HW127447   5.419  14.113   2.342
75205SOL    HW227448   5.554  14.159   2.291
75206SOL     OW27449   7.511   4.696   5.809
75206SOL    HW127450   7.484   4.787   5.825
75206SOL    HW227451   7.588   4.684   5.864
75207SOL     OW27452   8.363  10.141  14.534
75207SOL    HW127453   8.312  10.097  14.602
75207SOL    HW227454   8.381  10.228  14.569
75208SOL     OW27455   0.248   8.852  10.214
75208SOL    HW127456   0.185   8.822  10.279
75208SOL    HW227457   0.306   8.777  10.201
75209SOL     OW27458   6.480   2.048   7.255
75209SOL    HW127459   6.539   1.977   7.231
75209SOL    HW227460   6.405   2.037   7.197
75210SOL     OW27461  11.396   0.944   8.562
75210SOL    HW127462  11.414   0.925   8.470
75210SOL    HW227463  11.412   1.038   8.570
75211SOL     OW27464   8.550  14.426   0.227
75211SOL    HW127465   8.621  14.469   0.274
75211SOL    HW227466   8.576  14.429   0.135
75212SOL     OW27467  11.522  11.448  13.044
75212SOL    HW127468  11.498  11.366  13.087
75212SOL    HW227469  11.569  11.422  12.965
75213SOL     OW27470  14.115   7.534  12.721
75213SOL    HW127471  14.064   7.593  12.665
75213SOL    HW227472  14.131   7.457  12.666
75214SOL     OW27473   4.252   9.362   5.204
75214SOL    HW127474   4.341   9.339   5.176
75214SOL    HW227475   4.211   9.277   5.224
75215SOL     OW27476   4.436  14.315   1.952
75215SOL    HW127477   4.439  14.220   1.964
75215SOL    HW227478   4.344  14.334   1.936
75216SOL     OW27479   8.824   0.438   1.651
75216SOL    HW127480   8.874   0.493   1.590
75216SOL    HW227481   8.759   0.497   1.690
75217SOL     OW27482  12.727   2.948   4.202
75217SOL    HW127483  12.807   2.897   4.196
75217SOL    HW227484  12.757   3.038   4.217
75218SOL     OW27485  14.802   8.695  10.947
75218SOL    HW127486  14.846   8.637  11.009
75218SOL    HW227487  14.726   8.728  10.994
75219SOL     OW27488  14.260   5.316  12.378
75219SOL    HW127489  14.280   5.373  12.453
75219SOL    HW227490  14.168   5.333  12.359
75220SOL     OW27491  11.351  11.009   8.372
75220SOL    HW127492  11.389  11.077   8.317
75220SOL    HW227493  11.413  10.936   8.366
75221SOL     OW27494   5.814   9.342   3.849
75221SOL    HW127495   5.753   9.299   3.909
75221SOL    HW227496   5.760   9.364   3.772
75222SOL     OW27497  12.048   3.718   2.071
75222SOL    HW127498  11.970   3.773   2.074
75222SOL    HW227499  12.017   3.634   2.038
75223SOL     OW27500  11.293   6.902  12.148
75223SOL    HW127501  11.262   6.870  12.063
75223SOL    HW227502  11.309   6.995  12.133
75224SOL     OW27503   0.146   1.636  12.931
75224SOL    HW127504   0.127   1.579  13.006
75224SOL    HW227505   0.228   1.679  12.954
75225SOL     OW27506  11.499   3.002   4.911
75225SOL    HW127507  11.462   3.022   4.997
75225SOL    HW227508  11.439   2.938   4.873
75226SOL     OW27509   4.900   3.663  13.404
75226SOL    HW127510   4.905   3.580  13.357
75226SOL    HW227511   4.946   3.646  13.487
75227SOL     OW27512   0.058   8.736   7.955
75227SOL    HW127513   0.012   8.711   8.035
75227SOL    HW227514   0.018   8.682   7.886
75228SOL     OW27515  12.494   3.393   1.662
75228SOL    HW127516  12.469   3.479   1.696
75228SOL    HW227517  12.572   3.369   1.712
75229SOL     OW27518   7.998   2.218   8.587
75229SOL    HW127519   7.906   2.198   8.603
75229SOL    HW227520   8.004   2.224   8.492
75230SOL     OW27521  14.352   0.980  13.152
75230SOL    HW127522  14.335   0.938  13.068
75230SOL    HW227523  14.354   1.074  13.132
75231SOL     OW27524  12.985   1.018   1.762
75231SOL    HW127525  12.954   0.929   1.775
75231SOL    HW227526  12.962   1.064   1.843
75232SOL     OW27527   7.099  14.536  13.792
75232SOL    HW127528   7.028  14.502  13.848
75232SOL    HW227529   7.100  14.631  13.809
75233SOL     OW27530   9.769   0.421   4.693
75233SOL    HW127531   9.754   0.337   4.737
75233SOL    HW227532   9.721   0.485   4.745
75234SOL     OW27533  13.839   8.890   4.028
75234SOL    HW127534  13.819   8.983   4.035
75234SOL    HW227535  13.913   8.876   4.087
75235SOL     OW27536   7.048   5.341  11.525
75235SOL    HW127537   7.105   5.412  11.557
75235SOL    HW227538   7.002   5.379  11.451
75236SOL     OW27539   0.551  11.450   8.342
75236SOL    HW127540   0.597  11.440   8.258
75236SOL    HW227541   0.479  11.510   8.322
75237SOL     OW27542   5.060   3.450  13.747
75237SOL    HW127543   5.130   3.441  13.683
75237SOL    HW227544   5.017   3.533  13.724
75238SOL     OW27545   1.227  11.241   6.120
75238SOL    HW127546   1.273  11.248   6.204
75238SOL    HW227547   1.245  11.324   6.075
75239SOL     OW27548   3.855   7.542   2.275
75239SOL    HW127549   3.792   7.549   2.346
75239SOL    HW227550   3.931   7.498   2.313
75240SOL     OW27551   2.977   9.597  11.077
75240SOL    HW127552   2.991   9.688  11.051
75240SOL    HW227553   2.979   9.548  10.994
75241SOL     OW27554   8.867  11.920  11.769
75241SOL    HW127555   8.960  11.898  11.775
75241SOL    HW227556   8.828  11.883  11.848
75242SOL     OW27557   6.574   1.087   9.173
75242SOL    HW127558   6.514   1.013   9.183
75242SOL    HW227559   6.555   1.143   9.249
75243SOL     OW27560   1.294   8.608   4.008
75243SOL    HW127561   1.311   8.629   3.917
75243SOL    HW227562   1.201   8.628   4.020
75244SOL     OW27563   6.963   8.793   2.117
75244SOL    HW127564   6.996   8.704   2.103
75244SOL    HW227565   6.873   8.781   2.147
75245SOL     OW27566   0.424   5.691   4.536
75245SOL    HW127567   0.361   5.701   4.607
75245SOL    HW227568   0.485   5.764   4.548
75246SOL     OW27569   6.721  13.937   2.401
75246SOL    HW127570   6.769  14.019   2.407
75246SOL    HW227571   6.631  13.962   2.381
75247SOL     OW27572   4.487  10.922   4.672
75247SOL    HW127573   4.577  10.934   4.641
75247SOL    HW227574   4.434  10.974   4.612
75248SOL     OW27575   5.769  13.120  11.855
75248SOL    HW127576   5.683  13.103  11.816
75248SOL    HW227577   5.813  13.178  11.794
75249SOL     OW27578   5.137  10.283   7.213
75249SOL    HW127579   5.198  10.355   7.200
75249SOL    HW227580   5.189  10.214   7.254
75250SOL     OW27581   8.263  12.076   0.946
75250SOL    HW127582   8.279  12.150   1.004
75250SOL    HW227583   8.331  12.012   0.969
75251SOL     OW27584  14.362   0.945   8.911
75251SOL    HW127585  14.395   1.034   8.918
75251SOL    HW227586  14.269   0.955   8.893
75252SOL     OW27587  10.316   6.640   7.319
75252SOL    HW127588  10.352   6.669   7.403
75252SOL    HW227589  10.234   6.595   7.343
75253SOL     OW27590   6.496   6.347   0.935
75253SOL    HW127591   6.538   6.380   1.014
75253SOL    HW227592   6.404   6.372   0.945
75254SOL     OW27593   8.747   1.024  11.674
75254SOL    HW127594   8.685   1.092  11.702
75254SOL    HW227595   8.692   0.953  11.642
75255SOL     OW27596  13.341   3.187   3.831
75255SOL    HW127597  13.260   3.148   3.801
75255SOL    HW227598  13.342   3.172   3.926
75256SOL     OW27599  10.709   7.734   1.817
75256SOL    HW127600  10.790   7.785   1.817
75256SOL    HW227601  10.730   7.655   1.767
75257SOL     OW27602   8.340  14.164   0.645
75257SOL    HW127603   8.255  14.201   0.623
75257SOL    HW227604   8.323  14.070   0.658
75258SOL     OW27605   5.443  10.267   5.363
75258SOL    HW127606   5.461  10.173   5.364
75258SOL    HW227607   5.526  10.307   5.391
75259SOL     OW27608  12.672  10.950   5.456
75259SOL    HW127609  12.593  10.905   5.425
75259SOL    HW227610  12.715  10.885   5.512
75260SOL     OW27611   8.587  14.211   3.266
75260SOL    HW127612   8.632  14.286   3.227
75260SOL    HW227613   8.545  14.246   3.344
75261SOL     OW27614   6.226  10.373   5.549
75261SOL    HW127615   6.265  10.457   5.526
75261SOL    HW227616   6.299  10.321   5.583
75262SOL     OW27617   3.372   3.763   0.835
75262SOL    HW127618   3.364   3.854   0.807
75262SOL    HW227619   3.456   3.760   0.882
75263SOL     OW27620   3.835   0.798   1.271
75263SOL    HW127621   3.867   0.707   1.272
75263SOL    HW227622   3.831   0.822   1.364
75264SOL     OW27623   7.768   1.095  10.058
75264SOL    HW127624   7.833   1.025  10.065
75264SOL    HW227625   7.741   1.112  10.148
75265SOL     OW27626   9.943   2.100   9.653
75265SOL    HW127627   9.953   2.020   9.602
75265SOL    HW227628   9.973   2.076   9.741
75266SOL     OW27629   5.745  10.742   2.388
75266SOL    HW127630   5.741  10.837   2.380
75266SOL    HW227631   5.817  10.726   2.449
75267SOL     OW27632   4.901   9.830   5.345
75267SOL    HW127633   4.905   9.786   5.260
75267SOL    HW227634   4.874   9.920   5.323
75268SOL     OW27635   6.949   6.688   1.467
75268SOL    HW127636   6.979   6.772   1.431
75268SOL    HW227637   6.993   6.681   1.552
75269SOL     OW27638   9.237   5.875   3.289
75269SOL    HW127639   9.257   5.967   3.306
75269SOL    HW227640   9.167   5.878   3.223
75270SOL     OW27641  11.661  14.059  12.836
75270SOL    HW127642  11.719  13.986  12.859
75270SOL    HW227643  11.703  14.136  12.875
75271SOL     OW27644  10.271   0.951   0.215
75271SOL    HW127645  10.360   0.958   0.251
75271SOL    HW227646  10.225   1.027   0.249
75272SOL     OW27647  12.000  12.787   6.790
75272SOL    HW127648  11.955  12.862   6.829
75272SOL    HW227649  11.996  12.804   6.696
75273SOL     OW27650   4.930  14.007   1.412
75273SOL    HW127651   4.900  13.986   1.500
75273SOL    HW227652   4.908  13.930   1.360
75274SOL     OW27653   9.860   5.916  14.231
75274SOL    HW127654   9.797   5.854  14.195
75274SOL    HW227655   9.844   5.997  14.182
75275SOL     OW27656   6.936  11.918   0.945
75275SOL    HW127657   7.019  11.965   0.932
75275SOL    HW227658   6.904  11.900   0.856
75276SOL     OW27659   2.664   5.618   2.551
75276SOL    HW127660   2.598   5.549   2.548
75276SOL    HW227661   2.614   5.699   2.557
75277SOL     OW27662   6.298   9.706  10.460
75277SOL    HW127663   6.325   9.702  10.551
75277SOL    HW227664   6.212   9.749  10.462
75278SOL     OW27665   1.815   0.215  10.852
75278SOL    HW127666   1.908   0.235  10.849
75278SOL    HW227667   1.773   0.300  10.869
75279SOL     OW27668   4.669   4.187   0.981
75279SOL    HW127669   4.676   4.235   0.898
75279SOL    HW227670   4.717   4.106   0.967
75280SOL     OW27671   3.608  14.305   2.745
75280SOL    HW127672   3.638  14.325   2.656
75280SOL    HW227673   3.688  14.284   2.793
75281SOL     OW27674   2.517  14.489   7.675
75281SOL    HW127675   2.498  14.427   7.745
75281SOL    HW227676   2.600  14.531   7.701
75282SOL     OW27677  12.808  12.895  13.281
75282SOL    HW127678  12.836  12.879  13.371
75282SOL    HW227679  12.744  12.826  13.263
75283SOL     OW27680   9.478   6.367  14.286
75283SOL    HW127681   9.525   6.448  14.308
75283SOL    HW227682   9.536   6.322  14.224
75284SOL     OW27683   3.637  12.334   2.479
75284SOL    HW127684   3.710  12.372   2.528
75284SOL    HW227685   3.614  12.402   2.414
75285SOL     OW27686   3.749  12.231   1.498
75285SOL    HW127687   3.820  12.179   1.461
75285SOL    HW227688   3.776  12.247   1.589
75286SOL     OW27689   7.762   4.618  12.986
75286SOL    HW127690   7.829   4.644  12.923
75286SOL    HW227691   7.679   4.643  12.944
75287SOL     OW27692  12.646   8.303  13.164
75287SOL    HW127693  12.576   8.239  13.174
75287SOL    HW227694  12.602   8.388  13.168
75288SOL     OW27695   4.174   3.930   9.692
75288SOL    HW127696   4.097   3.933   9.750
75288SOL    HW227697   4.197   3.838   9.688
75289SOL     OW27698   8.466   7.046   8.375
75289SOL    HW127699   8.380   7.022   8.409
75289SOL    HW227700   8.459   7.139   8.354
75290SOL     OW27701  13.392  10.132   2.200
75290SOL    HW127702  13.462  10.176   2.152
75290SOL    HW227703  13.434  10.097   2.278
75291SOL     OW27704   0.875  10.211   2.208
75291SOL    HW127705   0.947  10.254   2.161
75291SOL    HW227706   0.795  10.245   2.165
75292SOL     OW27707   1.900   2.193   6.254
75292SOL    HW127708   1.894   2.289   6.250
75292SOL    HW227709   1.845   2.168   6.328
75293SOL     OW27710   6.112   1.114  12.486
75293SOL    HW127711   6.097   1.100  12.392
75293SOL    HW227712   6.198   1.077  12.502
75294SOL     OW27713  11.051   5.769  12.561
75294SOL    HW127714  11.041   5.839  12.626
75294SOL    HW227715  11.006   5.694  12.600
75295SOL     OW27716   2.381   2.897  13.650
75295SOL    HW127717   2.382   2.989  13.676
75295SOL    HW227718   2.393   2.900  13.555
75296SOL     OW27719   2.990  12.162   0.003
75296SOL    HW127720   3.058  12.109   0.043
75296SOL    HW227721   2.928  12.099  14.848
75297SOL     OW27722   9.968   9.533   1.383
75297SOL    HW127723   9.889   9.493   1.347
75297SOL    HW227724   9.939   9.619   1.414
75298SOL     OW27725   2.190   1.447  13.449
75298SOL    HW127726   2.119   1.508  13.470
75298SOL    HW227727   2.169   1.368  13.498
75299SOL     OW27728   8.227   8.332   0.613
75299SOL    HW127729   8.249   8.334   0.520
75299SOL    HW227730   8.267   8.251   0.646
75300SOL     OW27731   8.487   4.864   2.072
75300SOL    HW127732   8.419   4.893   2.133
75300SOL    HW227733   8.569   4.883   2.118
75301SOL     OW27734  10.430  14.408   6.776
75301SOL    HW127735  10.502  14.407   6.838
75301SOL    HW227736  10.355  14.440   6.826
75302SOL     OW27737   1.064   4.072   9.350
75302SOL    HW127738   1.154   4.072   9.317
75302SOL    HW227739   1.074   4.066   9.445
75303SOL     OW27740   8.711   4.113   4.606
75303SOL    HW127741   8.711   4.058   4.685
75303SOL    HW227742   8.690   4.052   4.535
75304SOL     OW27743  14.368   7.562  14.517
75304SOL    HW127744  14.438   7.627  14.530
75304SOL    HW227745  14.408   7.478  14.540
75305SOL     OW27746   0.989   8.271   5.572
75305SOL    HW127747   1.030   8.237   5.492
75305SOL    HW227748   1.012   8.208   5.640
75306SOL     OW27749   4.333  10.776   7.953
75306SOL    HW127750   4.348  10.773   7.858
75306SOL    HW227751   4.412  10.817   7.988
75307SOL     OW27752   9.960   3.659   9.255
75307SOL    HW127753   9.892   3.698   9.200
75307SOL    HW227754   9.978   3.725   9.322
75308SOL     OW27755  10.665  12.525   9.854
75308SOL    HW127756  10.745  12.472   9.854
75308SOL    HW227757  10.682  12.593   9.920
75309SOL     OW27758   2.497  12.545   8.334
75309SOL    HW127759   2.447  12.506   8.263
75309SOL    HW227760   2.568  12.483   8.351
75310SOL     OW27761   4.041   4.903   3.676
75310SOL    HW127762   4.081   4.985   3.649
75310SOL    HW227763   4.114   4.842   3.685
75311SOL     OW27764   2.610   8.224   0.996
75311SOL    HW127765   2.526   8.247   0.955
75311SOL    HW227766   2.597   8.136   1.029
75312SOL     OW27767   7.037  13.429  10.847
75312SOL    HW127768   7.083  13.508  10.819
75312SOL    HW227769   7.077  13.359  10.795
75313SOL     OW27770  13.760  13.742  10.748
75313SOL    HW127771  13.750  13.804  10.677
75313SOL    HW227772  13.840  13.770  10.793
75314SOL     OW27773   6.119   2.137   1.574
75314SOL    HW127774   6.039   2.188   1.556
75314SOL    HW227775   6.182   2.168   1.510
75315SOL     OW27776   1.858   4.093  12.723
75315SOL    HW127777   1.936   4.045  12.697
75315SOL    HW227778   1.811   4.033  12.781
75316SOL     OW27779   9.540  10.451   4.156
75316SOL    HW127780   9.567  10.371   4.201
75316SOL    HW227781   9.588  10.521   4.201
75317SOL     OW27782   5.001  12.567   1.398
75317SOL    HW127783   5.026  12.503   1.465
75317SOL    HW227784   5.084  12.605   1.370
75318SOL     OW27785   4.359  10.256   2.617
75318SOL    HW127786   4.318  10.192   2.675
75318SOL    HW227787   4.452  10.234   2.620
75319SOL     OW27788   0.675  12.882   1.402
75319SOL    HW127789   0.657  12.943   1.331
75319SOL    HW227790   0.693  12.799   1.358
75320SOL     OW27791  14.849   0.202   9.796
75320SOL    HW127792  14.778   0.263   9.773
75320SOL    HW227793  14.844   0.194   9.891
75321SOL     OW27794   6.350  13.597   9.169
75321SOL    HW127795   6.365  13.606   9.263
75321SOL    HW227796   6.290  13.669   9.147
75322SOL     OW27797   0.626   4.816   4.102
75322SOL    HW127798   0.685   4.878   4.145
75322SOL    HW227799   0.548   4.867   4.080
75323SOL     OW27800   5.318  10.301   2.208
75323SOL    HW127801   5.329  10.225   2.151
75323SOL    HW227802   5.247  10.276   2.268
75324SOL     OW27803   9.524  11.322  12.471
75324SOL    HW127804   9.482  11.272  12.401
75324SOL    HW227805   9.461  11.322  12.543
75325SOL     OW27806   2.536  10.737   4.824
75325SOL    HW127807   2.508  10.682   4.751
75325SOL    HW227808   2.593  10.681   4.876
75326SOL     OW27809   0.664   6.517  12.346
75326SOL    HW127810   0.653   6.564  12.263
75326SOL    HW227811   0.697   6.582  12.407
75327SOL     OW27812   6.273   3.523   4.600
75327SOL    HW127813   6.196   3.563   4.642
75327SOL    HW227814   6.306   3.591   4.541
75328SOL     OW27815   4.510   2.557   9.954
75328SOL    HW127816   4.475   2.468   9.958
75328SOL    HW227817   4.580   2.553   9.889
75329SOL     OW27818   4.088   5.526   7.726
75329SOL    HW127819   4.118   5.552   7.638
75329SOL    HW227820   4.168   5.526   7.779
75330SOL     OW27821   9.294  11.934   6.910
75330SOL    HW127822   9.301  11.928   7.005
75330SOL    HW227823   9.218  11.881   6.887
75331SOL     OW27824   5.395  14.346   0.462
75331SOL    HW127825   5.408  14.281   0.531
75331SOL    HW227826   5.443  14.423   0.493
75332SOL     OW27827   2.470  12.147   9.517
75332SOL    HW127828   2.376  12.134   9.505
75332SOL    HW227829   2.477  12.210   9.588
75333SOL     OW27830  12.676  11.789   3.313
75333SOL    HW127831  12.697  11.850   3.243
75333SOL    HW227832  12.760  11.773   3.357
75334SOL     OW27833   4.385   9.994  13.890
75334SOL    HW127834   4.468  10.033  13.861
75334SOL    HW227835   4.365  10.040  13.972
75335SOL     OW27836   6.329  13.212  14.543
75335SOL    HW127837   6.422  13.190  14.533
75335SOL    HW227838   6.325  13.305  14.522
75336SOL     OW27839   3.723   5.750   9.043
75336SOL    HW127840   3.671   5.804   9.102
75336SOL    HW227841   3.750   5.809   8.973
75337SOL     OW27842   9.841   9.105  12.568
75337SOL    HW127843   9.837   9.037  12.636
75337SOL    HW227844   9.835   9.057  12.486
75338SOL     OW27845   9.170  12.687   4.939
75338SOL    HW127846   9.124  12.764   4.906
75338SOL    HW227847   9.257  12.719   4.963
75339SOL     OW27848   5.411   0.440   3.255
75339SOL    HW127849   5.400   0.430   3.350
75339SOL    HW227850   5.372   0.525   3.235
75340SOL     OW27851   3.219  12.329   1.654
75340SOL    HW127852   3.219  12.381   1.734
75340SOL    HW227853   3.224  12.238   1.684
75341SOL     OW27854   8.825  10.290  11.436
75341SOL    HW127855   8.764  10.267  11.506
75341SOL    HW227856   8.771  10.294  11.357
75342SOL     OW27857  13.205   5.169   9.943
75342SOL    HW127858  13.277   5.155  10.004
75342SOL    HW227859  13.228   5.116   9.866
75343SOL     OW27860  14.025  10.082  10.402
75343SOL    HW127861  14.063  10.101  10.487
75343SOL    HW227862  14.057  10.152  10.345
75344SOL     OW27863   8.255  10.308   9.842
75344SOL    HW127864   8.273  10.303   9.936
75344SOL    HW227865   8.330  10.354   9.805
75345SOL     OW27866   7.482   5.633   4.220
75345SOL    HW127867   7.458   5.610   4.309
75345SOL    HW227868   7.532   5.714   4.228
75346SOL     OW27869  14.416  10.857   1.131
75346SOL    HW127870  14.452  10.943   1.149
75346SOL    HW227871  14.323  10.873   1.116
75347SOL     OW27872   4.433  10.960   5.660
75347SOL    HW127873   4.527  10.973   5.646
75347SOL    HW227874   4.410  10.887   5.602
75348SOL     OW27875  14.594  11.438  12.366
75348SOL    HW127876  14.619  11.360  12.315
75348SOL    HW227877  14.654  11.506  12.336
75349SOL     OW27878   8.169   8.970  11.642
75349SOL    HW127879   8.235   8.974  11.572
75349SOL    HW227880   8.095   8.923  11.603
75350SOL     OW27881  11.055   8.585  12.999
75350SOL    HW127882  11.107   8.620  12.926
75350SOL    HW227883  11.012   8.508  12.964
75351SOL     OW27884   3.149   5.769   5.936
75351SOL    HW127885   3.104   5.692   5.901
75351SOL    HW227886   3.141   5.761   6.031
75352SOL     OW27887  14.286   7.831  10.108
75352SOL    HW127888  14.226   7.892  10.151
75352SOL    HW227889  14.297   7.867  10.020
75353SOL     OW27890  12.340   8.508   1.962
75353SOL    HW127891  12.424   8.502   2.007
75353SOL    HW227892  12.294   8.579   2.006
75354SOL     OW27893   6.395   1.428   3.314
75354SOL    HW127894   6.320   1.383   3.353
75354SOL    HW227895   6.418   1.376   3.237
75355SOL     OW27896   6.871   6.301   2.900
75355SOL    HW127897   6.838   6.378   2.946
75355SOL    HW227898   6.815   6.293   2.823
75356SOL     OW27899  12.036   3.185  12.219
75356SOL    HW127900  11.991   3.134  12.285
75356SOL    HW227901  12.006   3.149  12.135
75357SOL     OW27902   9.617   6.359   6.400
75357SOL    HW127903   9.641   6.383   6.490
75357SOL    HW227904   9.654   6.428   6.346
75358SOL     OW27905   6.888   4.722   0.429
75358SOL    HW127906   6.861   4.799   0.378
75358SOL    HW227907   6.893   4.753   0.519
75359SOL     OW27908  11.534   5.490   0.146
75359SOL    HW127909  11.440   5.481   0.128
75359SOL    HW227910  11.573   5.511   0.061
75360SOL     OW27911  11.903   6.290  12.599
75360SOL    HW127912  11.984   6.237  12.598
75360SOL    HW227913  11.851   6.252  12.669
75361SOL     OW27914   8.650   3.954  12.184
75361SOL    HW127915   8.658   4.005  12.264
75361SOL    HW227916   8.639   3.863  12.214
75362SOL     OW27917   9.253  12.893  13.254
75362SOL    HW127918   9.258  12.804  13.218
75362SOL    HW227919   9.170  12.927  13.220
75363SOL     OW27920   8.254   4.604   6.806
75363SOL    HW127921   8.261   4.676   6.868
75363SOL    HW227922   8.343   4.592   6.773
75364SOL     OW27923   6.458   4.302  13.184
75364SOL    HW127924   6.524   4.370  13.170
75364SOL    HW227925   6.497   4.243  13.247
75365SOL     OW27926  10.852   1.920   9.381
75365SOL    HW127927  10.866   1.853   9.448
75365SOL    HW227928  10.915   1.898   9.312
75366SOL     OW27929   6.130   5.900   6.458
75366SOL    HW127930   6.165   5.988   6.452
75366SOL    HW227931   6.158   5.869   6.544
75367SOL     OW27932   8.155  12.151   8.757
75367SOL    HW127933   8.195  12.189   8.678
75367SOL    HW227934   8.168  12.057   8.747
75368SOL     OW27935   7.404   0.767   4.508
75368SOL    HW127936   7.316   0.745   4.477
75368SOL    HW227937   7.418   0.857   4.478
75369SOL     OW27938   1.164   6.780   4.812
75369SOL    HW127939   1.256   6.808   4.807
75369SOL    HW227940   1.152   6.722   4.738
75370SOL     OW27941   9.227  11.402  10.315
75370SOL    HW127942   9.255  11.493  10.317
75370SOL    HW227943   9.174  11.394  10.236
75371SOL     OW27944   8.623   0.023   7.095
75371SOL    HW127945   8.656   0.099   7.048
75371SOL    HW227946   8.661  14.830   7.049
75372SOL     OW27947   3.930  13.711   7.285
75372SOL    HW127948   3.933  13.786   7.344
75372SOL    HW227949   4.022  13.692   7.265
75373SOL     OW27950  14.004   6.968   6.393
75373SOL    HW127951  14.043   7.010   6.316
75373SOL    HW227952  13.917   7.006   6.401
75374SOL     OW27953  12.527  12.176  12.700
75374SOL    HW127954  12.456  12.174  12.764
75374SOL    HW227955  12.488  12.211  12.620
75375SOL     OW27956  10.997   4.005   0.621
75375SOL    HW127957  10.977   4.072   0.686
75375SOL    HW227958  11.063   4.046   0.564
75376SOL     OW27959   6.963  10.136   5.698
75376SOL    HW127960   7.011  10.077   5.757
75376SOL    HW227961   6.871  10.115   5.713
75377SOL     OW27962   1.575   3.077   3.057
75377SOL    HW127963   1.648   3.116   3.104
75377SOL    HW227964   1.559   2.994   3.102
75378SOL     OW27965   0.510   4.609  10.591
75378SOL    HW127966   0.538   4.557  10.666
75378SOL    HW227967   0.423   4.574  10.568
75379SOL     OW27968   2.913  13.359  11.888
75379SOL    HW127969   2.895  13.449  11.916
75379SOL    HW227970   2.888  13.304  11.962
75380SOL     OW27971   8.214   9.617   9.323
75380SOL    HW127972   8.166   9.591   9.245
75380SOL    HW227973   8.171   9.696   9.354
75381SOL     OW27974   2.984   5.965  11.344
75381SOL    HW127975   3.038   5.913  11.285
75381SOL    HW227976   3.000   6.056  11.317
75382SOL     OW27977   8.084  13.614   8.275
75382SOL    HW127978   8.139  13.661   8.337
75382SOL    HW227979   8.037  13.549   8.327
75383SOL     OW27980  12.638   9.288   9.486
75383SOL    HW127981  12.610   9.353   9.550
75383SOL    HW227982  12.713   9.244   9.527
75384SOL     OW27983  13.735   4.804   4.249
75384SOL    HW127984  13.657   4.750   4.238
75384SOL    HW227985  13.777   4.770   4.327
75385SOL     OW27986   8.323  10.715   3.857
75385SOL    HW127987   8.252  10.651   3.866
75385SOL    HW227988   8.345  10.714   3.764
75386SOL     OW27989  12.929   8.432   7.205
75386SOL    HW127990  13.017   8.455   7.235
75386SOL    HW227991  12.943   8.363   7.140
75387SOL     OW27992   6.425  12.657   8.724
75387SOL    HW127993   6.386  12.733   8.682
75387SOL    HW227994   6.407  12.670   8.817
75388SOL     OW27995   3.880   8.760   8.944
75388SOL    HW127996   3.835   8.828   8.893
75388SOL    HW227997   3.829   8.681   8.927
75389SOL     OW27998   0.537   1.669  14.140
75389SOL    HW127999   0.561   1.597  14.198
75389SOL    HW228000   0.444   1.655  14.123
75390SOL     OW28001  10.134  13.028   5.470
75390SOL    HW128002  10.183  13.039   5.389
75390SOL    HW228003  10.151  12.938   5.497
75391SOL     OW28004   6.280   3.543   0.542
75391SOL    HW128005   6.340   3.507   0.608
75391SOL    HW228006   6.207   3.578   0.592
75392SOL     OW28007   1.885   4.463  10.562
75392SOL    HW128008   1.954   4.444  10.625
75392SOL    HW228009   1.857   4.377  10.530
75393SOL     OW28010   1.369  11.224   5.598
75393SOL    HW128011   1.292  11.213   5.653
75393SOL    HW228012   1.350  11.172   5.519
75394SOL     OW28013   7.985  11.126   2.959
75394SOL    HW128014   8.010  11.151   2.870
75394SOL    HW228015   8.000  11.205   3.011
75395SOL     OW28016   4.256   6.577  13.429
75395SOL    HW128017   4.288   6.487  13.418
75395SOL    HW228018   4.176   6.568  13.481
75396SOL     OW28019   9.872   8.693   1.476
75396SOL    HW128020   9.808   8.761   1.496
75396SOL    HW228021   9.933   8.734   1.416
75397SOL     OW28022   7.944   0.859   7.770
75397SOL    HW128023   7.908   0.807   7.843
75397SOL    HW228024   7.937   0.949   7.800
75398SOL     OW28025   5.028   8.246   5.228
75398SOL    HW128026   4.956   8.200   5.272
75398SOL    HW228027   5.086   8.273   5.299
75399SOL     OW28028   2.295  12.761   8.898
75399SOL    HW128029   2.325  12.851   8.887
75399SOL    HW228030   2.364  12.718   8.949
75400SOL     OW28031  12.143  14.746  12.586
75400SOL    HW128032  12.101  14.733  12.671
75400SOL    HW228033  12.080  14.798  12.536
75401SOL     OW28034   0.988   5.449  13.990
75401SOL    HW128035   0.903   5.471  13.952
75401SOL    HW228036   1.051   5.472  13.922
75402SOL     OW28037   9.984   8.196   3.028
75402SOL    HW128038   9.991   8.292   3.019
75402SOL    HW228039   9.913   8.183   3.090
75403SOL     OW28040  11.018   4.694  12.976
75403SOL    HW128041  11.025   4.660  13.065
75403SOL    HW228042  11.102   4.738  12.960
75404SOL     OW28043  14.196   0.898   2.031
75404SOL    HW128044  14.257   0.896   1.958
75404SOL    HW228045  14.186   0.807   2.058
75405SOL     OW28046  12.802   6.897   6.184
75405SOL    HW128047  12.749   6.856   6.115
75405SOL    HW228048  12.776   6.990   6.181
75406SOL     OW28049   0.779   7.019   5.011
75406SOL    HW128050   0.807   7.083   4.945
75406SOL    HW228051   0.684   7.027   5.012
75407SOL     OW28052   2.001   5.299  11.661
75407SOL    HW128053   1.927   5.320  11.718
75407SOL    HW228054   1.960   5.265  11.581
75408SOL     OW28055  10.930   4.029   3.812
75408SOL    HW128056  11.002   3.981   3.852
75408SOL    HW228057  10.966   4.061   3.729
75409SOL     OW28058   1.990   8.679  10.114
75409SOL    HW128059   2.045   8.612  10.073
75409SOL    HW228060   2.005   8.757  10.060
75410SOL     OW28061  11.110   4.515   2.810
75410SOL    HW128062  11.145   4.426   2.820
75410SOL    HW228063  11.185   4.569   2.787
75411SOL     OW28064  12.272   2.584   4.395
75411SOL    HW128065  12.189   2.579   4.349
75411SOL    HW228066  12.291   2.677   4.402
75412SOL     OW28067  12.122  13.659  14.162
75412SOL    HW128068  12.195  13.600  14.180
75412SOL    HW228069  12.140  13.737  14.214
75413SOL     OW28070  14.718   6.275   3.322
75413SOL    HW128071  14.717   6.305   3.231
75413SOL    HW228072  14.721   6.179   3.315
75414SOL     OW28073   7.789   4.741   1.029
75414SOL    HW128074   7.810   4.682   1.101
75414SOL    HW228075   7.723   4.800   1.064
75415SOL     OW28076  14.414   6.328   3.224
75415SOL    HW128077  14.396   6.238   3.198
75415SOL    HW228078  14.498   6.323   3.270
75416SOL     OW28079   4.767   8.206   4.173
75416SOL    HW128080   4.755   8.236   4.263
75416SOL    HW228081   4.788   8.113   4.182
75417SOL     OW28082   7.978   4.034   3.259
75417SOL    HW128083   8.052   4.072   3.308
75417SOL    HW228084   7.923   3.995   3.327
75418SOL     OW28085   7.257   6.252   9.292
75418SOL    HW128086   7.295   6.168   9.266
75418SOL    HW228087   7.308   6.317   9.243
75419SOL     OW28088   0.476  11.753   8.313
75419SOL    HW128089   0.557  11.803   8.309
75419SOL    HW228090   0.446  11.764   8.403
75420SOL     OW28091  14.038   8.822   9.241
75420SOL    HW128092  14.110   8.885   9.241
75420SOL    HW228093  14.077   8.741   9.206
75421SOL     OW28094   1.088   2.455   3.610
75421SOL    HW128095   1.041   2.538   3.613
75421SOL    HW228096   1.035   2.396   3.663
75422SOL     OW28097   5.935   6.562   6.906
75422SOL    HW128098   5.937   6.636   6.966
75422SOL    HW228099   5.897   6.597   6.825
75423SOL     OW28100   1.236   8.057   0.981
75423SOL    HW128101   1.145   8.080   0.963
75423SOL    HW228102   1.262   8.115   1.053
75424SOL     OW28103   9.803   4.732   3.564
75424SOL    HW128104   9.733   4.772   3.512
75424SOL    HW228105   9.835   4.661   3.509
75425SOL     OW28106   2.243  12.030   0.311
75425SOL    HW128107   2.302  12.103   0.299
75425SOL    HW228108   2.158  12.062   0.279
75426SOL     OW28109   6.971   2.456   7.922
75426SOL    HW128110   6.893   2.464   7.867
75426SOL    HW228111   6.999   2.366   7.912
75427SOL     OW28112  13.182   9.812  12.740
75427SOL    HW128113  13.144   9.725  12.752
75427SOL    HW228114  13.118   9.872  12.777
75428SOL     OW28115  14.756   0.922   0.266
75428SOL    HW128116  14.728   0.856   0.203
75428SOL    HW228117  14.851   0.930   0.251
75429SOL     OW28118   4.543  14.322  12.938
75429SOL    HW128119   4.618  14.380  12.952
75429SOL    HW228120   4.515  14.339  12.848
75430SOL     OW28121   3.247   1.572  12.115
75430SOL    HW128122   3.224   1.482  12.138
75430SOL    HW228123   3.339   1.580  12.139
75431SOL     OW28124   1.087   7.757  12.852
75431SOL    HW128125   1.033   7.708  12.914
75431SOL    HW228126   1.081   7.706  12.771
75432SOL     OW28127   1.052   9.647   3.977
75432SOL    HW128128   1.098   9.573   4.016
75432SOL    HW228129   0.959   9.623   3.982
75433SOL     OW28130   1.693   4.345   6.848
75433SOL    HW128131   1.630   4.293   6.797
75433SOL    HW228132   1.659   4.434   6.844
75434SOL     OW28133   4.095  12.502   8.972
75434SOL    HW128134   4.126  12.589   8.998
75434SOL    HW228135   4.169  12.465   8.923
75435SOL     OW28136   9.251   8.017   5.250
75435SOL    HW128137   9.342   7.988   5.256
75435SOL    HW228138   9.251   8.081   5.179
75436SOL     OW28139   6.579   5.132  12.204
75436SOL    HW128140   6.601   5.045  12.236
75436SOL    HW228141   6.546   5.178  12.281
75437SOL     OW28142  10.298   3.326   4.344
75437SOL    HW128143  10.348   3.374   4.278
75437SOL    HW228144  10.364   3.291   4.404
75438SOL     OW28145   5.914   7.330   2.861
75438SOL    HW128146   5.913   7.391   2.787
75438SOL    HW228147   5.878   7.380   2.934
75439SOL     OW28148  12.549  14.713  13.154
75439SOL    HW128149  12.522  14.805  13.161
75439SOL    HW228150  12.639  14.717  13.123
75440SOL     OW28151  13.064   4.811  11.830
75440SOL    HW128152  13.072   4.755  11.908
75440SOL    HW228153  13.143   4.793  11.779
75441SOL     OW28154   2.033   9.377   5.565
75441SOL    HW128155   2.104   9.431   5.598
75441SOL    HW228156   2.076   9.303   5.522
75442SOL     OW28157  14.559   3.130   4.607
75442SOL    HW128158  14.602   3.055   4.566
75442SOL    HW228159  14.623   3.161   4.671
75443SOL     OW28160   0.971   9.221  14.159
75443SOL    HW128161   0.969   9.126  14.171
75443SOL    HW228162   1.048   9.237  14.105
75444SOL     OW28163   9.318  12.558  10.238
75444SOL    HW128164   9.282  12.469  10.241
75444SOL    HW228165   9.242  12.615  10.245
75445SOL     OW28166   7.978  10.487   5.150
75445SOL    HW128167   8.065  10.501   5.187
75445SOL    HW228168   7.935  10.430   5.214
75446SOL     OW28169  14.256   7.199   4.888
75446SOL    HW128170  14.234   7.227   4.799
75446SOL    HW228171  14.344   7.232   4.903
75447SOL     OW28172   2.940  10.384  10.135
75447SOL    HW128173   2.957  10.291  10.120
75447SOL    HW228174   2.998  10.429  10.073
75448SOL     OW28175  12.004   9.286   7.286
75448SOL    HW128176  12.021   9.281   7.192
75448SOL    HW228177  11.917   9.247   7.296
75449SOL     OW28178   7.899   6.890   5.241
75449SOL    HW128179   7.880   6.968   5.294
75449SOL    HW228180   7.813   6.861   5.209
75450SOL     OW28181   4.184   7.383   6.777
75450SOL    HW128182   4.234   7.302   6.781
75450SOL    HW228183   4.158   7.391   6.685
75451SOL     OW28184   3.249  12.746  10.801
75451SOL    HW128185   3.333  12.728  10.758
75451SOL    HW228186   3.262  12.721  10.892
75452SOL     OW28187  11.713  10.756   0.894
75452SOL    HW128188  11.737  10.749   0.987
75452SOL    HW228189  11.644  10.823   0.892
75453SOL     OW28190  10.998   2.426   7.794
75453SOL    HW128191  10.955   2.433   7.879
75453SOL    HW228192  11.015   2.517   7.768
75454SOL     OW28193   1.112   2.851  13.245
75454SOL    HW128194   1.135   2.810  13.162
75454SOL    HW228195   1.128   2.945  13.232
75455SOL     OW28196   3.834   2.048   3.946
75455SOL    HW128197   3.816   2.108   4.018
75455SOL    HW228198   3.891   2.097   3.887
75456SOL     OW28199  11.332  14.880  13.534
75456SOL    HW128200  11.352   0.016  13.626
75456SOL    HW228201  11.278   0.073  13.507
75457SOL     OW28202   8.125   8.419   8.296
75457SOL    HW128203   8.152   8.357   8.228
75457SOL    HW228204   8.032   8.435   8.279
75458SOL     OW28205   9.779  12.846   1.652
75458SOL    HW128206   9.840  12.790   1.699
75458SOL    HW228207   9.717  12.786   1.611
75459SOL     OW28208  12.495  13.894   5.389
75459SOL    HW128209  12.419  13.927   5.438
75459SOL    HW228210  12.566  13.895   5.453
75460SOL     OW28211   8.834  14.583   1.116
75460SOL    HW128212   8.783  14.657   1.084
75460SOL    HW228213   8.868  14.541   1.037
75461SOL     OW28214   2.970  13.712   7.069
75461SOL    HW128215   2.922  13.772   7.126
75461SOL    HW228216   3.044  13.764   7.037
75462SOL     OW28217   5.793   1.179  11.950
75462SOL    HW128218   5.847   1.250  11.984
75462SOL    HW228219   5.707   1.219  11.935
75463SOL     OW28220   9.555  14.618   4.464
75463SOL    HW128221   9.619  14.624   4.392
75463SOL    HW228222   9.590  14.549   4.520
75464SOL     OW28223   7.313   0.608   6.525
75464SOL    HW128224   7.263   0.545   6.474
75464SOL    HW228225   7.401   0.603   6.489
75465SOL     OW28226   0.507  13.336   7.072
75465SOL    HW128227   0.470  13.419   7.101
75465SOL    HW228228   0.560  13.306   7.146
75466SOL     OW28229   9.162   4.015   6.873
75466SOL    HW128230   9.227   4.084   6.888
75466SOL    HW228231   9.184   3.979   6.787
75467SOL     OW28232  12.282  13.402   8.916
75467SOL    HW128233  12.206  13.392   8.974
75467SOL    HW228234  12.328  13.479   8.950
75468SOL     OW28235   8.621   8.177   2.964
75468SOL    HW128236   8.689   8.174   2.896
75468SOL    HW228237   8.591   8.086   2.970
75469SOL     OW28238   0.985   6.914   8.154
75469SOL    HW128239   0.974   7.006   8.179
75469SOL    HW228240   0.938   6.865   8.221
75470SOL     OW28241   3.985   4.806   7.955
75470SOL    HW128242   4.064   4.855   7.934
75470SOL    HW228243   4.005   4.716   7.929
75471SOL     OW28244  12.681   2.441   9.308
75471SOL    HW128245  12.708   2.354   9.277
75471SOL    HW228246  12.703   2.500   9.237
75472SOL     OW28247   0.260   6.681   4.485
75472SOL    HW128248   0.226   6.606   4.533
75472SOL    HW228249   0.292   6.740   4.553
75473SOL     OW28250  12.533   7.748  11.768
75473SOL    HW128251  12.517   7.787  11.854
75473SOL    HW228252  12.629   7.745  11.760
75474SOL     OW28253  10.052   2.271   3.503
75474SOL    HW128254  10.072   2.337   3.570
75474SOL    HW228255  10.094   2.191   3.534
75475SOL     OW28256  11.714   2.659   3.129
75475SOL    HW128257  11.714   2.739   3.181
75475SOL    HW228258  11.700   2.689   3.039
75476SOL     OW28259   8.091  12.344   8.532
75476SOL    HW128260   8.182  12.314   8.535
75476SOL    HW228261   8.090  12.408   8.461
75477SOL     OW28262  11.774  12.282   0.849
75477SOL    HW128263  11.747  12.262   0.760
75477SOL    HW228264  11.864  12.314   0.841
75478SOL     OW28265   1.849   4.119   8.094
75478SOL    HW128266   1.921   4.157   8.044
75478SOL    HW228267   1.812   4.193   8.142
75479SOL     OW28268   5.944  11.885   3.835
75479SOL    HW128269   5.982  11.944   3.900
75479SOL    HW228270   5.850  11.888   3.853
75480SOL     OW28271   9.846  10.526   9.638
75480SOL    HW128272   9.779  10.514   9.706
75480SOL    HW228273   9.806  10.588   9.576
75481SOL     OW28274  13.366  14.070  14.151
75481SOL    HW128275  13.382  14.107  14.238
75481SOL    HW228276  13.271  14.075  14.140
75482SOL     OW28277   9.056  10.456  11.032
75482SOL    HW128278   9.135  10.510  11.021
75482SOL    HW228279   9.039  10.458  11.127
75483SOL     OW28280  12.374  12.157   1.137
75483SOL    HW128281  12.320  12.101   1.192
75483SOL    HW228282  12.338  12.147   1.049
75484SOL     OW28283   0.040  12.745  11.788
75484SOL    HW128284   0.046  12.670  11.847
75484SOL    HW228285   0.130  12.773  11.775
75485SOL     OW28286   0.666   9.329   3.207
75485SOL    HW128287   0.684   9.280   3.127
75485SOL    HW228288   0.671   9.264   3.277
75486SOL     OW28289   7.598  10.585  10.315
75486SOL    HW128290   7.638  10.563  10.231
75486SOL    HW228291   7.520  10.636  10.292
75487SOL     OW28292  11.256   4.654   1.176
75487SOL    HW128293  11.340   4.681   1.140
75487SOL    HW228294  11.266   4.663   1.271
75488SOL     OW28295   1.787  14.516  12.244
75488SOL    HW128296   1.744  14.578  12.185
75488SOL    HW228297   1.778  14.555  12.331
75489SOL     OW28298  14.758  13.293   7.153
75489SOL    HW128299  14.670  13.283   7.118
75489SOL    HW228300  14.804  13.347   7.089
75490SOL     OW28301   0.717   8.214   6.793
75490SOL    HW128302   0.752   8.241   6.878
75490SOL    HW228303   0.763   8.132   6.774
75491SOL     OW28304   0.070   3.556  13.013
75491SOL    HW128305   0.071   3.604  12.931
75491SOL    HW228306   0.004   3.600  13.067
75492SOL     OW28307  14.197  12.717   4.227
75492SOL    HW128308  14.188  12.730   4.132
75492SOL    HW228309  14.287  12.687   4.239
75493SOL     OW28310  10.084   1.305   4.029
75493SOL    HW128311   9.999   1.339   4.000
75493SOL    HW228312  10.068   1.213   4.047
75494SOL     OW28313  14.643  11.851  14.714
75494SOL    HW128314  14.653  11.867  14.620
75494SOL    HW228315  14.575  11.912  14.741
75495SOL     OW28316  11.036   7.866  11.722
75495SOL    HW128317  11.093   7.836  11.792
75495SOL    HW228318  10.975   7.794  11.708
75496SOL     OW28319   1.734  12.524   9.769
75496SOL    HW128320   1.691  12.451   9.724
75496SOL    HW228321   1.691  12.527   9.855
75497SOL     OW28322   4.159   6.790  12.442
75497SOL    HW128323   4.246   6.798  12.481
75497SOL    HW228324   4.101   6.833  12.505
75498SOL     OW28325   1.829  11.665   3.256
75498SOL    HW128326   1.861  11.710   3.334
75498SOL    HW228327   1.907  11.647   3.204
75499SOL     OW28328   5.272   1.680   0.797
75499SOL    HW128329   5.358   1.677   0.838
75499SOL    HW228330   5.247   1.589   0.784
75500SOL     OW28331   1.873   4.979   3.930
75500SOL    HW128332   1.908   5.025   4.006
75500SOL    HW228333   1.916   4.893   3.932
75501SOL     OW28334   9.131  14.329   5.822
75501SOL    HW128335   9.119  14.423   5.809
75501SOL    HW228336   9.174  14.321   5.907
75502SOL     OW28337   1.947   1.564   6.942
75502SOL    HW128338   1.973   1.542   7.031
75502SOL    HW228339   1.869   1.619   6.953
75503SOL     OW28340  10.275   1.752   2.285
75503SOL    HW128341  10.203   1.808   2.256
75503SOL    HW228342  10.350   1.810   2.291
75504SOL     OW28343  11.331   8.189   1.793
75504SOL    HW128344  11.358   8.177   1.702
75504SOL    HW228345  11.315   8.283   1.801
75505SOL     OW28346  10.025   0.754   4.123
75505SOL    HW128347   9.970   0.689   4.079
75505SOL    HW228348  10.115   0.730   4.099
75506SOL     OW28349   6.177   7.890   9.987
75506SOL    HW128350   6.117   7.818   9.965
75506SOL    HW228351   6.195   7.933   9.903
75507SOL     OW28352   4.453  11.132   2.265
75507SOL    HW128353   4.500  11.055   2.299
75507SOL    HW228354   4.523  11.194   2.243
75508SOL     OW28355   0.654  10.250  13.696
75508SOL    HW128356   0.703  10.290  13.768
75508SOL    HW228357   0.562  10.259  13.722
75509SOL     OW28358   5.901   5.176  12.492
75509SOL    HW128359   5.957   5.239  12.447
75509SOL    HW228360   5.917   5.093  12.446
75510SOL     OW28361  10.831   7.525  11.244
75510SOL    HW128362  10.877   7.519  11.160
75510SOL    HW228363  10.754   7.578  11.226
75511SOL     OW28364   1.429   7.432   6.481
75511SOL    HW128365   1.365   7.455   6.414
75511SOL    HW228366   1.509   7.413   6.433
75512SOL     OW28367   8.262  10.884  12.739
75512SOL    HW128368   8.214  10.803  12.753
75512SOL    HW228369   8.211  10.932  12.674
75513SOL     OW28370  12.224   8.555   1.440
75513SOL    HW128371  12.266   8.613   1.503
75513SOL    HW228372  12.212   8.609   1.362
75514SOL     OW28373   6.417   2.597  14.581
75514SOL    HW128374   6.376   2.654  14.516
75514SOL    HW228375   6.437   2.517  14.533
75515SOL     OW28376   3.342   2.742   7.600
75515SOL    HW128377   3.437   2.750   7.594
75515SOL    HW228378   3.310   2.832   7.596
75516SOL     OW28379   7.850  14.762   0.926
75516SOL    HW128380   7.786  14.774   0.856
75516SOL    HW228381   7.929  14.806   0.895
75517SOL     OW28382  11.307   3.540  13.469
75517SOL    HW128383  11.315   3.466  13.408
75517SOL    HW228384  11.394   3.579  13.471
75518SOL     OW28385   7.281   7.892   3.313
75518SOL    HW128386   7.350   7.855   3.258
75518SOL    HW228387   7.326   7.919   3.393
75519SOL     OW28388   8.697   3.343  14.835
75519SOL    HW128389   8.776   3.393  14.814
75519SOL    HW228390   8.719   3.253  14.809
75520SOL     OW28391   1.546   6.539   5.457
75520SOL    HW128392   1.513   6.556   5.545
75520SOL    HW228393   1.471   6.553   5.400
75521SOL     OW28394   6.204  14.835   2.570
75521SOL    HW128395   6.268  14.764   2.573
75521SOL    HW228396   6.255   0.032   2.591
75522SOL     OW28397   1.027   7.260  13.681
75522SOL    HW128398   0.934   7.246  13.696
75522SOL    HW228399   1.069   7.182  13.718
75523SOL     OW28400   1.520  10.125  10.190
75523SOL    HW128401   1.475  10.044  10.166
75523SOL    HW228402   1.522  10.176  10.110
75524SOL     OW28403   5.817   6.987   5.048
75524SOL    HW128404   5.862   7.050   4.992
75524SOL    HW228405   5.789   6.917   4.989
75525SOL     OW28406   9.342   2.228   9.162
75525SOL    HW128407   9.288   2.187   9.094
75525SOL    HW228408   9.295   2.211   9.244
75526SOL     OW28409   4.473   8.661  13.142
75526SOL    HW128410   4.566   8.681  13.155
75526SOL    HW228411   4.440   8.733  13.089
75527SOL     OW28412  14.450  10.046   8.061
75527SOL    HW128413  14.368  10.084   8.028
75527SOL    HW228414  14.513  10.059   7.991
75528SOL     OW28415  10.544   8.959   0.066
75528SOL    HW128416  10.545   9.013   0.145
75528SOL    HW228417  10.468   8.902   0.078
75529SOL     OW28418   6.179  13.551  10.395
75529SOL    HW128419   6.257  13.510  10.433
75529SOL    HW228420   6.173  13.514  10.307
75530SOL     OW28421   1.809   2.076   2.573
75530SOL    HW128422   1.728   2.115   2.605
75530SOL    HW228423   1.874   2.146   2.582
75531SOL     OW28424  12.361   9.280  11.960
75531SOL    HW128425  12.432   9.339  11.936
75531SOL    HW228426  12.369   9.269  12.054
75532SOL     OW28427   0.557   1.449   0.309
75532SOL    HW128428   0.519   1.536   0.324
75532SOL    HW228429   0.539   1.402   0.391
75533SOL     OW28430   0.311   0.940  13.180
75533SOL    HW128431   0.228   0.974  13.147
75533SOL    HW228432   0.369   1.016  13.183
75534SOL     OW28433   4.330   8.711  13.572
75534SOL    HW128434   4.319   8.789  13.518
75534SOL    HW228435   4.327   8.638  13.510
75535SOL     OW28436   8.037  12.864   7.140
75535SOL    HW128437   7.959  12.841   7.189
75535SOL    HW228438   8.100  12.794   7.159
75536SOL     OW28439   4.686  10.600   5.940
75536SOL    HW128440   4.647  10.546   6.008
75536SOL    HW228441   4.627  10.589   5.865
75537SOL     OW28442   2.930   5.342  14.608
75537SOL    HW128443   2.953   5.406  14.541
75537SOL    HW228444   3.012   5.330  14.657
75538SOL     OW28445   6.088   7.876   3.977
75538SOL    HW128446   6.097   7.799   3.922
75538SOL    HW228447   6.056   7.945   3.917
75539SOL     OW28448   9.142  13.651  12.209
75539SOL    HW128449   9.155  13.556  12.199
75539SOL    HW228450   9.220  13.690  12.170
75540SOL     OW28451   7.981   5.370   5.334
75540SOL    HW128452   7.953   5.279   5.339
75540SOL    HW228453   8.076   5.367   5.346
75541SOL     OW28454   6.586   8.688  14.093
75541SOL    HW128455   6.506   8.663  14.138
75541SOL    HW228456   6.561   8.693  14.001
75542SOL     OW28457   7.089   3.207  12.174
75542SOL    HW128458   7.098   3.192  12.080
75542SOL    HW228459   6.995   3.206  12.189
75543SOL     OW28460  10.834  14.456  10.077
75543SOL    HW128461  10.852  14.459  10.171
75543SOL    HW228462  10.908  14.408  10.040
75544SOL     OW28463   5.827   1.966   4.726
75544SOL    HW128464   5.750   1.924   4.764
75544SOL    HW228465   5.799   1.992   4.638
75545SOL     OW28466   1.973   8.298   1.216
75545SOL    HW128467   1.882   8.278   1.237
75545SOL    HW228468   2.024   8.234   1.266
75546SOL     OW28469   4.409   6.853   3.550
75546SOL    HW128470   4.459   6.818   3.624
75546SOL    HW228471   4.336   6.792   3.540
75547SOL     OW28472   2.324   8.275   6.239
75547SOL    HW128473   2.274   8.233   6.170
75547SOL    HW228474   2.289   8.364   6.244
75548SOL     OW28475  12.337  13.966   4.561
75548SOL    HW128476  12.354  13.996   4.472
75548SOL    HW228477  12.320  13.872   4.551
75549SOL     OW28478   6.408   0.868   9.107
75549SOL    HW128479   6.368   0.836   9.026
75549SOL    HW228480   6.502   0.871   9.088
75550SOL     OW28481   3.557   4.547   8.611
75550SOL    HW128482   3.506   4.507   8.681
75550SOL    HW228483   3.515   4.517   8.530
75551SOL     OW28484   1.908   3.983   5.272
75551SOL    HW128485   1.963   4.049   5.228
75551SOL    HW228486   1.960   3.903   5.268
75552SOL     OW28487   0.303  12.542   5.502
75552SOL    HW128488   0.386  12.570   5.540
75552SOL    HW228489   0.328  12.491   5.425
75553SOL     OW28490  11.675   2.336  11.659
75553SOL    HW128491  11.751   2.381  11.622
75553SOL    HW228492  11.600   2.382  11.621
75554SOL     OW28493   9.614   8.180   1.023
75554SOL    HW128494   9.690   8.125   1.044
75554SOL    HW228495   9.587   8.150   0.936
75555SOL     OW28496   9.678   3.762  10.371
75555SOL    HW128497   9.588   3.744  10.344
75555SOL    HW228498   9.682   3.731  10.462
75556SOL     OW28499   5.818  13.924   7.925
75556SOL    HW128500   5.800  14.003   7.874
75556SOL    HW228501   5.851  13.861   7.860
75557SOL     OW28502  12.959  11.849   4.006
75557SOL    HW128503  12.951  11.786   4.078
75557SOL    HW228504  12.893  11.916   4.025
75558SOL     OW28505   3.630  11.887   7.819
75558SOL    HW128506   3.587  11.883   7.905
75558SOL    HW228507   3.715  11.928   7.837
75559SOL     OW28508   0.636   6.229   5.064
75559SOL    HW128509   0.667   6.311   5.026
75559SOL    HW228510   0.704   6.204   5.127
75560SOL     OW28511   9.135  14.172   1.921
75560SOL    HW128512   9.082  14.197   1.846
75560SOL    HW228513   9.098  14.221   1.994
75561SOL     OW28514   8.155  13.546   5.059
75561SOL    HW128515   8.219  13.507   5.001
75561SOL    HW228516   8.106  13.608   5.004
75562SOL     OW28517   6.253   1.965   0.434
75562SOL    HW128518   6.249   1.959   0.339
75562SOL    HW228519   6.178   1.915   0.465
75563SOL     OW28520   5.857   2.763   1.851
75563SOL    HW128521   5.944   2.790   1.819
75563SOL    HW228522   5.857   2.668   1.843
75564SOL     OW28523   2.834   2.762   0.763
75564SOL    HW128524   2.883   2.794   0.839
75564SOL    HW228525   2.758   2.719   0.799
75565SOL     OW28526   4.404   2.312   0.309
75565SOL    HW128527   4.344   2.345   0.376
75565SOL    HW228528   4.360   2.328   0.226
75566SOL     OW28529   6.626  13.540   0.415
75566SOL    HW128530   6.668  13.518   0.498
75566SOL    HW228531   6.582  13.459   0.388
75567SOL     OW28532  10.629   6.515   6.199
75567SOL    HW128533  10.620   6.600   6.243
75567SOL    HW228534  10.556   6.463   6.231
75568SOL     OW28535   7.821   3.006   4.691
75568SOL    HW128536   7.733   3.040   4.709
75568SOL    HW228537   7.856   3.063   4.623
75569SOL     OW28538   0.488  12.463   6.600
75569SOL    HW128539   0.556  12.497   6.658
75569SOL    HW228540   0.484  12.370   6.620
75570SOL     OW28541  12.311   2.028  14.834
75570SOL    HW128542  12.339   2.050   0.041
75570SOL    HW228543  12.375   2.070  14.777
75571SOL     OW28544   0.045   0.771   3.217
75571SOL    HW128545  14.862   0.758   3.148
75571SOL    HW228546   0.045   0.688   3.265
75572SOL     OW28547   5.545   8.341   4.533
75572SOL    HW128548   5.606   8.366   4.602
75572SOL    HW228549   5.592   8.275   4.482
75573SOL     OW28550   0.408   4.685  13.363
75573SOL    HW128551   0.396   4.677  13.458
75573SOL    HW228552   0.476   4.621  13.341
75574SOL     OW28553  13.283  13.399  13.064
75574SOL    HW128554  13.252  13.309  13.055
75574SOL    HW228555  13.351  13.395  13.131
75575SOL     OW28556   3.492  14.129   1.233
75575SOL    HW128557   3.506  14.209   1.182
75575SOL    HW228558   3.548  14.063   1.191
75576SOL     OW28559  10.516   5.614   5.166
75576SOL    HW128560  10.605   5.638   5.191
75576SOL    HW228561  10.527   5.549   5.096
75577SOL     OW28562  11.414   2.590  12.299
75577SOL    HW128563  11.389   2.529  12.231
75577SOL    HW228564  11.498   2.626  12.270
75578SOL     OW28565   1.586  14.004   4.316
75578SOL    HW128566   1.554  14.047   4.237
75578SOL    HW228567   1.538  13.921   4.319
75579SOL     OW28568  10.751  10.605  10.577
75579SOL    HW128569  10.823  10.615  10.514
75579SOL    HW228570  10.746  10.511  10.593
75580SOL     OW28571   9.894   5.067  12.113
75580SOL    HW128572   9.983   5.098  12.099
75580SOL    HW228573   9.840   5.147  12.116
75581SOL     OW28574   2.007   2.109   8.513
75581SOL    HW128575   1.913   2.101   8.499
75581SOL    HW228576   2.042   2.023   8.491
75582SOL     OW28577   1.432  11.824  12.364
75582SOL    HW128578   1.448  11.735  12.394
75582SOL    HW228579   1.460  11.823  12.272
75583SOL     OW28580   0.170   2.991   9.373
75583SOL    HW128581   0.125   3.062   9.327
75583SOL    HW228582   0.262   3.017   9.374
75584SOL     OW28583   5.029   4.368   3.962
75584SOL    HW128584   4.958   4.384   4.023
75584SOL    HW228585   5.084   4.303   4.005
75585SOL     OW28586   8.215  10.295   6.472
75585SOL    HW128587   8.164  10.252   6.541
75585SOL    HW228588   8.305  10.293   6.504
75586SOL     OW28589   4.935   3.202   0.047
75586SOL    HW128590   4.893   3.192   0.132
75586SOL    HW228591   5.018   3.155   0.055
75587SOL     OW28592   0.125   6.340   4.931
75587SOL    HW128593   0.208   6.388   4.933
75587SOL    HW228594   0.079   6.368   5.010
75588SOL     OW28595   2.531   2.412  11.243
75588SOL    HW128596   2.564   2.403  11.154
75588SOL    HW228597   2.559   2.332  11.287
75589SOL     OW28598   1.265   9.132   1.071
75589SOL    HW128599   1.328   9.061   1.053
75589SOL    HW228600   1.250   9.127   1.165
75590SOL     OW28601  11.327  10.308   1.671
75590SOL    HW128602  11.271  10.231   1.666
75590SOL    HW228603  11.313  10.354   1.588
75591SOL     OW28604   2.180   8.014   6.871
75591SOL    HW128605   2.268   8.036   6.839
75591SOL    HW228606   2.196   7.956   6.945
75592SOL     OW28607   4.652   3.596   4.804
75592SOL    HW128608   4.693   3.603   4.718
75592SOL    HW228609   4.570   3.644   4.796
75593SOL     OW28610   4.410   1.282   1.897
75593SOL    HW128611   4.400   1.343   1.824
75593SOL    HW228612   4.494   1.304   1.936
75594SOL     OW28613  11.608   3.847  12.098
75594SOL    HW128614  11.703   3.854  12.091
75594SOL    HW228615  11.593   3.756  12.125
75595SOL     OW28616   7.285   3.733   4.653
75595SOL    HW128617   7.289   3.745   4.748
75595SOL    HW228618   7.224   3.800   4.623
75596SOL     OW28619   7.418   5.200  13.639
75596SOL    HW128620   7.396   5.214  13.731
75596SOL    HW228621   7.346   5.145  13.606
75597SOL     OW28622   8.405   2.834  12.199
75597SOL    HW128623   8.411   2.860  12.107
75597SOL    HW228624   8.356   2.753  12.198
75598SOL     OW28625   4.254  12.051   1.035
75598SOL    HW128626   4.309  12.117   1.077
75598SOL    HW228627   4.285  12.048   0.945
75599SOL     OW28628  10.631   4.523  11.606
75599SOL    HW128629  10.595   4.450  11.555
75599SOL    HW228630  10.639   4.594  11.543
75600SOL     OW28631   9.247   6.613   8.238
75600SOL    HW128632   9.321   6.658   8.278
75600SOL    HW228633   9.209   6.678   8.179
75601SOL     OW28634   3.890   8.962  12.218
75601SOL    HW128635   3.805   8.917  12.218
75601SOL    HW228636   3.905   8.985  12.310
75602SOL     OW28637  10.741   7.290   2.466
75602SOL    HW128638  10.674   7.344   2.507
75602SOL    HW228639  10.818   7.347   2.461
75603SOL     OW28640   6.648  13.001  13.897
75603SOL    HW128641   6.558  13.022  13.922
75603SOL    HW228642   6.683  12.954  13.973
75604SOL     OW28643   7.257  12.762  12.063
75604SOL    HW128644   7.313  12.821  12.012
75604SOL    HW228645   7.168  12.792  12.044
75605SOL     OW28646   2.934   0.003   6.304
75605SOL    HW128647   2.868  14.855   6.366
75605SOL    HW228648   2.957   0.091   6.334
75606SOL     OW28649  12.136   3.134  10.823
75606SOL    HW128650  12.189   3.073  10.874
75606SOL    HW228651  12.134   3.214  10.875
75607SOL     OW28652  14.084   5.472   5.261
75607SOL    HW128653  14.018   5.514   5.316
75607SOL    HW228654  14.059   5.494   5.172
75608SOL     OW28655  10.574  10.120   9.390
75608SOL    HW128656  10.556  10.042   9.338
75608SOL    HW228657  10.606  10.184   9.326
75609SOL     OW28658   3.330   6.365  13.005
75609SOL    HW128659   3.424   6.350  12.994
75609SOL    HW228660   3.298   6.287  13.049
75610SOL     OW28661  11.167   8.731   2.689
75610SOL    HW128662  11.168   8.789   2.612
75610SOL    HW228663  11.101   8.665   2.668
75611SOL     OW28664   6.214   4.985   2.285
75611SOL    HW128665   6.291   4.979   2.228
75611SOL    HW228666   6.176   4.897   2.285
75612SOL     OW28667   6.218   6.001   1.500
75612SOL    HW128668   6.265   5.994   1.583
75612SOL    HW228669   6.164   6.080   1.510
75613SOL     OW28670   0.556   9.525  10.049
75613SOL    HW128671   0.541   9.511   9.956
75613SOL    HW228672   0.621   9.595  10.052
75614SOL     OW28673   0.299  10.448   8.387
75614SOL    HW128674   0.258  10.528   8.419
75614SOL    HW228675   0.226  10.387   8.377
75615SOL     OW28676   6.334   3.686   3.488
75615SOL    HW128677   6.372   3.765   3.527
75615SOL    HW228678   6.389   3.669   3.411
75616SOL     OW28679   0.234   7.986   9.351
75616SOL    HW128680   0.256   7.975   9.443
75616SOL    HW228681   0.222   8.080   9.339
75617SOL     OW28682   9.450   5.302   8.138
75617SOL    HW128683   9.364   5.265   8.158
75617SOL    HW228684   9.433   5.397   8.132
75618SOL     OW28685  14.614  11.504   1.709
75618SOL    HW128686  14.633  11.503   1.803
75618SOL    HW228687  14.688  11.457   1.669
75619SOL     OW28688   7.089   0.000   5.959
75619SOL    HW128689   7.120  14.791   5.957
75619SOL    HW228690   7.169   0.052   5.963
75620SOL     OW28691   7.083   1.810   9.873
75620SOL    HW128692   7.002   1.761   9.858
75620SOL    HW228693   7.061   1.900   9.846
75621SOL     OW28694  13.001  11.236  10.808
75621SOL    HW128695  12.914  11.196  10.818
75621SOL    HW228696  13.048  11.177  10.750
75622SOL     OW28697   2.628   9.909   9.484
75622SOL    HW128698   2.562   9.878   9.423
75622SOL    HW228699   2.581   9.969   9.542
75623SOL     OW28700  13.753  13.919   0.527
75623SOL    HW128701  13.727  13.990   0.468
75623SOL    HW228702  13.722  13.840   0.484
75624SOL     OW28703   8.705   1.992   7.988
75624SOL    HW128704   8.753   2.062   8.033
75624SOL    HW228705   8.614   2.024   7.987
75625SOL     OW28706   4.837   7.779  13.868
75625SOL    HW128707   4.855   7.867  13.836
75625SOL    HW228708   4.753   7.755  13.830
75626SOL     OW28709  14.133   4.835   8.745
75626SOL    HW128710  14.098   4.918   8.713
75626SOL    HW228711  14.196   4.860   8.812
75627SOL     OW28712  11.010  11.099   0.837
75627SOL    HW128713  11.033  11.036   0.769
75627SOL    HW228714  10.917  11.083   0.854
75628SOL     OW28715  12.976   2.230   9.826
75628SOL    HW128716  12.914   2.197   9.760
75628SOL    HW228717  12.920   2.267   9.894
75629SOL     OW28718   3.119  12.215   2.798
75629SOL    HW128719   3.090  12.137   2.750
75629SOL    HW228720   3.052  12.228   2.865
75630SOL     OW28721  12.499   9.621  10.159
75630SOL    HW128722  12.594   9.631  10.152
75630SOL    HW228723  12.466   9.711  10.159
75631SOL     OW28724  11.346   0.491   3.755
75631SOL    HW128725  11.284   0.433   3.799
75631SOL    HW228726  11.360   0.452   3.670
75632SOL     OW28727   5.257  11.041   8.826
75632SOL    HW128728   5.219  11.062   8.911
75632SOL    HW228729   5.344  11.082   8.827
75633SOL     OW28730   2.347   7.626   5.831
75633SOL    HW128731   2.319   7.670   5.751
75633SOL    HW228732   2.435   7.660   5.848
75634SOL     OW28733   8.329   5.302  12.670
75634SOL    HW128734   8.406   5.254  12.641
75634SOL    HW228735   8.350   5.331  12.759
75635SOL     OW28736   0.589  13.665  14.743
75635SOL    HW128737   0.557  13.583  14.780
75635SOL    HW228738   0.624  13.713  14.818
75636SOL     OW28739   5.798   0.494  13.072
75636SOL    HW128740   5.742   0.565  13.102
75636SOL    HW228741   5.872   0.494  13.132
75637SOL     OW28742  14.580   9.397  13.405
75637SOL    HW128743  14.673   9.419  13.409
75637SOL    HW228744  14.567   9.332  13.474
75638SOL     OW28745  14.197   0.288  14.693
75638SOL    HW128746  14.290   0.272  14.705
75638SOL    HW228747  14.155   0.204  14.711
75639SOL     OW28748   7.672  12.986  11.586
75639SOL    HW128749   7.655  12.944  11.502
75639SOL    HW228750   7.660  12.916  11.650
75640SOL     OW28751   2.156   6.993  12.552
75640SOL    HW128752   2.112   7.076  12.532
75640SOL    HW228753   2.216   7.015  12.624
75641SOL     OW28754  11.591  13.287   5.424
75641SOL    HW128755  11.630  13.209   5.387
75641SOL    HW228756  11.555  13.259   5.509
75642SOL     OW28757   3.395   3.757   0.116
75642SOL    HW128758   3.418   3.667   0.097
75642SOL    HW228759   3.345   3.753   0.198
75643SOL     OW28760  10.037  13.509   1.853
75643SOL    HW128761  10.008  13.572   1.786
75643SOL    HW228762  10.109  13.553   1.897
75644SOL     OW28763  11.989   1.241   5.785
75644SOL    HW128764  11.967   1.332   5.806
75644SOL    HW228765  12.043   1.247   5.706
75645SOL     OW28766   2.305   3.095   3.960
75645SOL    HW128767   2.307   3.071   4.052
75645SOL    HW228768   2.256   3.177   3.958
75646SOL     OW28769   8.753  11.601   3.443
75646SOL    HW128770   8.705  11.661   3.500
75646SOL    HW228771   8.806  11.549   3.502
75647SOL     OW28772   4.318   0.080   0.244
75647SOL    HW128773   4.312   0.156   0.302
75647SOL    HW228774   4.322   0.005   0.303
75648SOL     OW28775   4.628   9.569   9.880
75648SOL    HW128776   4.549   9.580   9.932
75648SOL    HW228777   4.681   9.506   9.929
75649SOL     OW28778  12.808  14.007  11.012
75649SOL    HW128779  12.838  14.028  11.100
75649SOL    HW228780  12.844  13.920  10.994
75650SOL     OW28781   4.336   9.443  10.397
75650SOL    HW128782   4.387   9.428  10.476
75650SOL    HW228783   4.365   9.529  10.366
75651SOL     OW28784   3.308   1.697  13.194
75651SOL    HW128785   3.384   1.744  13.160
75651SOL    HW228786   3.287   1.742  13.276
75652SOL     OW28787   6.073  10.631   9.213
75652SOL    HW128788   6.122  10.712   9.202
75652SOL    HW228789   6.137  10.562   9.195
75653SOL     OW28790   6.829  14.342  10.342
75653SOL    HW128791   6.896  14.396  10.385
75653SOL    HW228792   6.841  14.255  10.380
75654SOL     OW28793   7.400   9.431  11.840
75654SOL    HW128794   7.475   9.490  11.830
75654SOL    HW228795   7.379   9.405  11.750
75655SOL     OW28796   7.209   2.128   4.106
75655SOL    HW128797   7.284   2.165   4.059
75655SOL    HW228798   7.207   2.174   4.189
75656SOL     OW28799   1.000   6.829   3.454
75656SOL    HW128800   0.988   6.734   3.459
75656SOL    HW228801   1.083   6.845   3.499
75657SOL     OW28802   4.390  12.040   4.985
75657SOL    HW128803   4.416  11.969   5.043
75657SOL    HW228804   4.472  12.071   4.947
75658SOL     OW28805  13.951   2.847   7.566
75658SOL    HW128806  13.897   2.837   7.488
75658SOL    HW228807  13.991   2.933   7.557
75659SOL     OW28808   0.888   2.238   4.050
75659SOL    HW128809   0.834   2.159   4.054
75659SOL    HW228810   0.973   2.211   4.083
75660SOL     OW28811   5.082   2.523  10.215
75660SOL    HW128812   5.069   2.594  10.152
75660SOL    HW228813   5.000   2.520  10.264
75661SOL     OW28814  14.358   3.691   4.794
75661SOL    HW128815  14.402   3.736   4.865
75661SOL    HW228816  14.403   3.721   4.715
75662SOL     OW28817  11.718   2.206   0.663
75662SOL    HW128818  11.739   2.194   0.755
75662SOL    HW228819  11.804   2.218   0.621
75663SOL     OW28820   4.355   0.243   0.453
75663SOL    HW128821   4.365   0.313   0.517
75663SOL    HW228822   4.444   0.211   0.437
75664SOL     OW28823  14.715   4.283  11.101
75664SOL    HW128824  14.781   4.280  11.031
75664SOL    HW228825  14.714   4.375  11.128
75665SOL     OW28826   8.234  14.283   8.563
75665SOL    HW128827   8.325  14.260   8.543
75665SOL    HW228828   8.205  14.335   8.489
75666SOL     OW28829   0.268  12.220   7.048
75666SOL    HW128830   0.328  12.287   7.082
75666SOL    HW228831   0.322  12.164   6.993
75667SOL     OW28832   6.235  11.835   4.511
75667SOL    HW128833   6.234  11.927   4.483
75667SOL    HW228834   6.250  11.838   4.605
75668SOL     OW28835  10.524  14.090  11.123
75668SOL    HW128836  10.548  14.151  11.192
75668SOL    HW228837  10.467  14.026  11.165
75669SOL     OW28838   2.004   4.383   1.638
75669SOL    HW128839   1.963   4.370   1.552
75669SOL    HW228840   1.989   4.301   1.684
75670SOL     OW28841   0.801   5.563  11.650
75670SOL    HW128842   0.896   5.565  11.641
75670SOL    HW228843   0.787   5.528  11.738
75671SOL     OW28844  10.463  14.811   0.544
75671SOL    HW128845  10.532  14.773   0.489
75671SOL    HW228846  10.389  14.824   0.485
75672SOL     OW28847   7.742   3.729   1.586
75672SOL    HW128848   7.669   3.682   1.627
75672SOL    HW228849   7.726   3.821   1.608
75673SOL     OW28850   8.737   0.890   3.498
75673SOL    HW128851   8.727   0.979   3.465
75673SOL    HW228852   8.662   0.843   3.461
75674SOL     OW28853  13.164   4.856  12.106
75674SOL    HW128854  13.249   4.874  12.146
75674SOL    HW228855  13.153   4.761  12.114
75675SOL     OW28856  13.190   6.023  11.854
75675SOL    HW128857  13.107   6.058  11.886
75675SOL    HW228858  13.247   6.024  11.931
75676SOL     OW28859   1.669   7.879   0.455
75676SOL    HW128860   1.661   7.903   0.362
75676SOL    HW228861   1.670   7.784   0.455
75677SOL     OW28862  12.272  13.269   4.963
75677SOL    HW128863  12.265  13.327   5.038
75677SOL    HW228864  12.185  13.272   4.922
75678SOL     OW28865   6.640   8.683  10.919
75678SOL    HW128866   6.614   8.754  10.860
75678SOL    HW228867   6.659   8.727  11.002
75679SOL     OW28868   5.838   1.648   9.991
75679SOL    HW128869   5.745   1.634   9.975
75679SOL    HW228870   5.851   1.621  10.082
75680SOL     OW28871   2.606   7.115   0.392
75680SOL    HW128872   2.520   7.080   0.415
75680SOL    HW228873   2.647   7.136   0.476
75681SOL     OW28874  10.696  10.992   5.103
75681SOL    HW128875  10.706  11.084   5.127
75681SOL    HW228876  10.758  10.945   5.158
75682SOL     OW28877  13.699  14.441   7.789
75682SOL    HW128878  13.717  14.486   7.706
75682SOL    HW228879  13.738  14.496   7.856
75683SOL     OW28880  12.396  11.988  11.356
75683SOL    HW128881  12.315  11.953  11.318
75683SOL    HW228882  12.449  12.011  11.280
75684SOL     OW28883   1.362   0.912   5.990
75684SOL    HW128884   1.358   0.928   6.084
75684SOL    HW228885   1.438   0.962   5.960
75685SOL     OW28886  11.635  12.681  12.339
75685SOL    HW128887  11.707  12.735  12.305
75685SOL    HW228888  11.606  12.630  12.263
75686SOL     OW28889  13.593   3.402  10.439
75686SOL    HW128890  13.557   3.377  10.354
75686SOL    HW228891  13.628   3.490  10.426
75687SOL     OW28892  10.004  13.126   0.603
75687SOL    HW128893  10.060  13.154   0.531
75687SOL    HW228894   9.962  13.046   0.571
75688SOL     OW28895  10.886   6.527  14.198
75688SOL    HW128896  10.874   6.459  14.132
75688SOL    HW228897  10.962   6.577  14.167
75689SOL     OW28898  10.279   2.890  12.012
75689SOL    HW128899  10.244   2.912  11.925
75689SOL    HW228900  10.252   2.963  12.067
75690SOL     OW28901  14.780   1.772  11.209
75690SOL    HW128902  14.711   1.832  11.179
75690SOL    HW228903  14.811   1.811  11.291
75691SOL     OW28904   8.450  14.730   2.102
75691SOL    HW128905   8.489  14.684   2.176
75691SOL    HW228906   8.483  14.820   2.109
75692SOL     OW28907  10.550   2.646   5.236
75692SOL    HW128908  10.628   2.634   5.289
75692SOL    HW228909  10.580   2.635   5.146
75693SOL     OW28910   5.294   2.480  13.399
75693SOL    HW128911   5.239   2.493  13.477
75693SOL    HW228912   5.348   2.404  13.420
75694SOL     OW28913   9.625   1.858  10.511
75694SOL    HW128914   9.597   1.795  10.445
75694SOL    HW228915   9.714   1.882  10.484
75695SOL     OW28916   9.800  11.188   2.916
75695SOL    HW128917   9.750  11.131   2.858
75695SOL    HW228918   9.750  11.189   2.998
75696SOL     OW28919  14.008   2.564   2.506
75696SOL    HW128920  14.045   2.631   2.565
75696SOL    HW228921  13.991   2.489   2.563
75697SOL     OW28922  14.219   0.602   3.368
75697SOL    HW128923  14.136   0.579   3.325
75697SOL    HW228924  14.260   0.664   3.308
75698SOL     OW28925  12.678   5.662  10.616
75698SOL    HW128926  12.592   5.621  10.621
75698SOL    HW228927  12.681   5.700  10.528
75699SOL     OW28928   3.420  12.198   4.961
75699SOL    HW128929   3.500  12.222   5.006
75699SOL    HW228930   3.366  12.277   4.963
75700SOL     OW28931   5.264  10.398   6.397
75700SOL    HW128932   5.202  10.418   6.327
75700SOL    HW228933   5.349  10.427   6.364
75701SOL     OW28934  11.012   5.031  10.839
75701SOL    HW128935  10.923   5.060  10.817
75701SOL    HW228936  11.029   4.960  10.777
75702SOL     OW28937   6.459   1.117   2.429
75702SOL    HW128938   6.468   1.083   2.340
75702SOL    HW228939   6.466   1.040   2.486
75703SOL     OW28940  13.362   3.667   7.146
75703SOL    HW128941  13.296   3.620   7.197
75703SOL    HW228942  13.314   3.698   7.069
75704SOL     OW28943   6.154   8.879  12.415
75704SOL    HW128944   6.199   8.870  12.331
75704SOL    HW228945   6.072   8.831  12.403
75705SOL     OW28946   6.459  14.131   2.793
75705SOL    HW128947   6.374  14.089   2.787
75705SOL    HW228948   6.496  14.123   2.705
75706SOL     OW28949   3.053  12.647   2.145
75706SOL    HW128950   3.136  12.626   2.102
75706SOL    HW228951   2.996  12.674   2.073
75707SOL     OW28952   8.774  12.367   1.271
75707SOL    HW128953   8.795  12.377   1.179
75707SOL    HW228954   8.842  12.308   1.305
75708SOL     OW28955  13.248  10.553  13.711
75708SOL    HW128956  13.175  10.599  13.751
75708SOL    HW228957  13.220  10.536  13.621
75709SOL     OW28958   5.903   4.457   0.378
75709SOL    HW128959   5.887   4.452   0.473
75709SOL    HW228960   5.933   4.369   0.354
75710SOL     OW28961   7.080   6.918   1.419
75710SOL    HW128962   7.172   6.940   1.408
75710SOL    HW228963   7.065   6.920   1.513
75711SOL     OW28964   6.100  11.957  14.275
75711SOL    HW128965   6.108  12.044  14.314
75711SOL    HW228966   6.188  11.938  14.242
75712SOL     OW28967   3.865   0.939   4.515
75712SOL    HW128968   3.946   0.889   4.525
75712SOL    HW228969   3.858   0.957   4.421
75713SOL     OW28970   9.371  13.201   6.032
75713SOL    HW128971   9.323  13.146   6.093
75713SOL    HW228972   9.346  13.168   5.945
75714SOL     OW28973  11.760   0.156   1.360
75714SOL    HW128974  11.674   0.134   1.395
75714SOL    HW228975  11.802   0.208   1.428
75715SOL     OW28976   1.671   9.315  14.195
75715SOL    HW128977   1.711   9.261  14.127
75715SOL    HW228978   1.646   9.252  14.263
75716SOL     OW28979   4.474   3.489   3.563
75716SOL    HW128980   4.392   3.485   3.611
75716SOL    HW228981   4.514   3.572   3.591
75717SOL     OW28982   0.298  12.258   9.665
75717SOL    HW128983   0.372  12.263   9.725
75717SOL    HW228984   0.273  12.350   9.650
75718SOL     OW28985  12.579   5.337   3.366
75718SOL    HW128986  12.504   5.397   3.365
75718SOL    HW228987  12.541   5.251   3.346
75719SOL     OW28988   0.971   8.986   6.156
75719SOL    HW128989   0.905   8.972   6.224
75719SOL    HW228990   0.931   9.049   6.096
75720SOL     OW28991   7.792   1.829  11.867
75720SOL    HW128992   7.881   1.843  11.836
75720SOL    HW228993   7.799   1.833  11.962
75721SOL     OW28994   5.884   4.990  11.462
75721SOL    HW128995   5.911   4.901  11.483
75721SOL    HW228996   5.910   5.002  11.371
75722SOL     OW28997  12.634   9.830  12.425
75722SOL    HW128998  12.585   9.843  12.506
75722SOL    HW228999  12.726   9.826  12.453
75723SOL     OW29000   0.313   6.168   8.821
75723SOL    HW129001   0.279   6.092   8.774
75723SOL    HW229002   0.326   6.137   8.911
75724SOL     OW29003   7.765   2.547  13.297
75724SOL    HW129004   7.687   2.592  13.330
75724SOL    HW229005   7.808   2.515  13.376
75725SOL     OW29006  12.151   5.874  10.996
75725SOL    HW129007  12.196   5.792  11.017
75725SOL    HW229008  12.216   5.942  11.015
75726SOL     OW29009   1.950   5.480   0.350
75726SOL    HW129010   1.960   5.568   0.313
75726SOL    HW229011   1.885   5.438   0.295
75727SOL     OW29012   5.686   8.300   0.433
75727SOL    HW129013   5.709   8.365   0.366
75727SOL    HW229014   5.677   8.351   0.513
75728SOL     OW29015   7.341   0.701   3.927
75728SOL    HW129016   7.375   0.612   3.927
75728SOL    HW229017   7.347   0.729   3.836
75729SOL     OW29018   4.243  13.470  13.470
75729SOL    HW129019   4.210  13.553  13.436
75729SOL    HW229020   4.333  13.489  13.496
75730SOL     OW29021   9.375  13.082   7.283
75730SOL    HW129022   9.349  12.991   7.286
75730SOL    HW229023   9.412  13.099   7.370
75731SOL     OW29024   1.585   5.451   5.369
75731SOL    HW129025   1.597   5.358   5.390
75731SOL    HW229026   1.604   5.497   5.451
75732SOL     OW29027  14.041   4.079   4.562
75732SOL    HW129028  13.982   4.021   4.610
75732SOL    HW229029  14.120   4.083   4.615
75733SOL     OW29030   0.308  13.613   2.993
75733SOL    HW129031   0.359  13.553   3.049
75733SOL    HW229032   0.287  13.560   2.916
75734SOL     OW29033   6.200  12.376  10.745
75734SOL    HW129034   6.233  12.369  10.655
75734SOL    HW229035   6.104  12.376  10.735
75735SOL     OW29036  14.218   4.714   1.845
75735SOL    HW129037  14.255   4.730   1.932
75735SOL    HW229038  14.264   4.776   1.788
75736SOL     OW29039   1.086   7.454   5.620
75736SOL    HW129040   1.047   7.524   5.569
75736SOL    HW229041   1.149   7.497   5.678
75737SOL     OW29042   4.524  11.041   2.830
75737SOL    HW129043   4.505  11.005   2.916
75737SOL    HW229044   4.472  11.121   2.824
75738SOL     OW29045  14.612   2.987  12.911
75738SOL    HW129046  14.638   2.900  12.878
75738SOL    HW229047  14.636   2.985  13.003
75739SOL     OW29048   8.184  10.389   2.624
75739SOL    HW129049   8.206  10.301   2.654
75739SOL    HW229050   8.202  10.388   2.530
75740SOL     OW29051  11.555   1.095   8.208
75740SOL    HW129052  11.620   1.134   8.266
75740SOL    HW229053  11.589   1.008   8.188
75741SOL     OW29054   5.942  13.419   3.206
75741SOL    HW129055   5.953  13.506   3.244
75741SOL    HW229056   5.880  13.375   3.264
75742SOL     OW29057   7.006   5.218   1.804
75742SOL    HW129058   7.001   5.123   1.812
75742SOL    HW229059   7.055   5.246   1.880
75743SOL     OW29060  14.753  14.532   7.857
75743SOL    HW129061  14.758  14.620   7.820
75743SOL    HW229062  14.686  14.488   7.805
75744SOL     OW29063   7.742   7.949   0.797
75744SOL    HW129064   7.797   7.990   0.730
75744SOL    HW229065   7.659   7.933   0.753
75745SOL     OW29066   8.249   5.616   2.168
75745SOL    HW129067   8.343   5.596   2.159
75745SOL    HW229068   8.207   5.530   2.165
75746SOL     OW29069  14.694  14.128   3.148
75746SOL    HW129070  14.776  14.095   3.111
75746SOL    HW229071  14.717  14.159   3.235
75747SOL     OW29072   3.999  12.342   2.320
75747SOL    HW129073   3.920  12.381   2.281
75747SOL    HW229074   4.023  12.272   2.260
75748SOL     OW29075  10.860   4.714  14.096
75748SOL    HW129076  10.942   4.700  14.143
75748SOL    HW229077  10.883   4.776  14.026
75749SOL     OW29078   3.423  10.753   3.649
75749SOL    HW129079   3.412  10.708   3.733
75749SOL    HW229080   3.380  10.838   3.661
75750SOL     OW29081   0.077   5.144  11.171
75750SOL    HW129082   0.045   5.169  11.084
75750SOL    HW229083   0.089   5.227  11.217
75751SOL     OW29084  11.053   8.967   8.401
75751SOL    HW129085  10.997   8.968   8.324
75751SOL    HW229086  11.120   8.902   8.381
75752SOL     OW29087   4.762   5.691   3.137
75752SOL    HW129088   4.667   5.700   3.138
75752SOL    HW229089   4.793   5.761   3.079
75753SOL     OW29090   8.337   4.464   8.802
75753SOL    HW129091   8.408   4.445   8.741
75753SOL    HW229092   8.352   4.404   8.875
75754SOL     OW29093   4.986   1.770   1.799
75754SOL    HW129094   5.021   1.791   1.712
75754SOL    HW229095   5.039   1.821   1.860
75755SOL     OW29096  11.268   0.026  14.125
75755SOL    HW129097  11.293   0.090  14.058
75755SOL    HW229098  11.254   0.079  14.204
75756SOL     OW29099   5.287   1.744   4.128
75756SOL    HW129100   5.264   1.742   4.221
75756SOL    HW229101   5.361   1.684   4.121
75757SOL     OW29102  10.503   4.285   5.474
75757SOL    HW129103  10.533   4.276   5.384
75757SOL    HW229104  10.425   4.230   5.480
75758SOL     OW29105   6.044  10.040   0.630
75758SOL    HW129106   6.033   9.981   0.705
75758SOL    HW229107   6.100  10.111   0.663
75759SOL     OW29108   3.059   8.770   9.494
75759SOL    HW129109   3.075   8.773   9.400
75759SOL    HW229110   2.982   8.826   9.507
75760SOL     OW29111   4.763   4.885  13.971
75760SOL    HW129112   4.694   4.951  13.974
75760SOL    HW229113   4.779   4.863  14.063
75761SOL     OW29114   3.240   9.393   9.820
75761SOL    HW129115   3.199   9.389   9.733
75761SOL    HW229116   3.327   9.355   9.808
75762SOL     OW29117  12.398   0.644   0.502
75762SOL    HW129118  12.480   0.671   0.460
75762SOL    HW229119  12.376   0.716   0.560
75763SOL     OW29120   5.140   3.263   5.298
75763SOL    HW129121   5.139   3.180   5.250
75763SOL    HW229122   5.141   3.331   5.231
75764SOL     OW29123   9.889  14.279  10.439
75764SOL    HW129124   9.930  14.251  10.357
75764SOL    HW229125   9.828  14.208  10.461
75765SOL     OW29126  13.131   2.237   1.653
75765SOL    HW129127  13.158   2.167   1.713
75765SOL    HW229128  13.054   2.201   1.609
75766SOL     OW29129   4.389  13.767   3.275
75766SOL    HW129130   4.473  13.810   3.292
75766SOL    HW229131   4.335  13.790   3.351
75767SOL     OW29132   0.394   6.886   2.105
75767SOL    HW129133   0.455   6.859   2.175
75767SOL    HW229134   0.405   6.981   2.099
75768SOL     OW29135  10.699  14.548  12.977
75768SOL    HW129136  10.710  14.489  13.051
75768SOL    HW229137  10.677  14.491  12.903
75769SOL     OW29138   8.527   6.064   4.655
75769SOL    HW129139   8.497   6.140   4.705
75769SOL    HW229140   8.454   6.043   4.596
75770SOL     OW29141   4.183  11.241   3.232
75770SOL    HW129142   4.193  11.177   3.161
75770SOL    HW229143   4.205  11.325   3.191
75771SOL     OW29144   1.009   9.043  12.348
75771SOL    HW129145   1.026   9.042  12.442
75771SOL    HW229146   1.007   9.136  12.325
75772SOL     OW29147  10.466   7.692  12.463
75772SOL    HW129148  10.560   7.703  12.474
75772SOL    HW229149  10.458   7.618  12.402
75773SOL     OW29150   4.074   4.794   1.710
75773SOL    HW129151   4.143   4.808   1.775
75773SOL    HW229152   3.993   4.816   1.756
75774SOL     OW29153  14.237   1.795   1.784
75774SOL    HW129154  14.145   1.817   1.796
75774SOL    HW229155  14.264   1.755   1.867
75775SOL     OW29156  12.669   6.258   6.518
75775SOL    HW129157  12.707   6.220   6.439
75775SOL    HW229158  12.596   6.201   6.540
75776SOL     OW29159   3.207   1.170   8.521
75776SOL    HW129160   3.234   1.190   8.432
75776SOL    HW229161   3.288   1.176   8.573
75777SOL     OW29162  11.257   1.887   4.408
75777SOL    HW129163  11.165   1.867   4.393
75777SOL    HW229164  11.303   1.808   4.380
75778SOL     OW29165  11.281   8.789  11.486
75778SOL    HW129166  11.338   8.773  11.410
75778SOL    HW229167  11.268   8.884  11.486
75779SOL     OW29168   9.842   0.176  13.662
75779SOL    HW129169   9.935   0.175  13.685
75779SOL    HW229170   9.841   0.192  13.568
75780SOL     OW29171   3.573   9.330   0.087
75780SOL    HW129172   3.592   9.354  14.878
75780SOL    HW229173   3.488   9.287   0.083
75781SOL     OW29174   2.374   2.814   4.488
75781SOL    HW129175   2.370   2.814   4.583
75781SOL    HW229176   2.294   2.768   4.461
75782SOL     OW29177   9.169   7.449   8.921
75782SOL    HW129178   9.123   7.497   8.990
75782SOL    HW229179   9.261   7.474   8.932
75783SOL     OW29180  10.783  12.990   3.497
75783SOL    HW129181  10.790  13.086   3.496
75783SOL    HW229182  10.871  12.960   3.518
75784SOL     OW29183   9.362   7.833  10.981
75784SOL    HW129184   9.452   7.863  10.990
75784SOL    HW229185   9.366   7.765  10.913
75785SOL     OW29186   1.249   0.918  12.739
75785SOL    HW129187   1.183   0.856  12.707
75785SOL    HW229188   1.333   0.874  12.724
75786SOL     OW29189  14.251  14.377   2.265
75786SOL    HW129190  14.168  14.410   2.299
75786SOL    HW229191  14.246  14.282   2.278
75787SOL     OW29192   0.297   5.987   0.184
75787SOL    HW129193   0.209   5.971   0.220
75787SOL    HW229194   0.302   6.082   0.173
75788SOL     OW29195   3.567   8.679   9.864
75788SOL    HW129196   3.531   8.624   9.794
75788SOL    HW229197   3.490   8.711   9.911
75789SOL     OW29198   4.813   2.646   4.026
75789SOL    HW129199   4.730   2.629   4.071
75789SOL    HW229200   4.836   2.562   3.985
75790SOL     OW29201   5.027  14.452  10.172
75790SOL    HW129202   5.036  14.357  10.163
75790SOL    HW229203   5.112  14.482  10.203
75791SOL     OW29204  14.527   5.090   7.813
75791SOL    HW129205  14.512   5.003   7.851
75791SOL    HW229206  14.448   5.139   7.834
75792SOL     OW29207  10.771  11.648  13.196
75792SOL    HW129208  10.863  11.673  13.184
75792SOL    HW229209  10.725  11.731  13.207
75793SOL     OW29210   6.315   7.700  11.235
75793SOL    HW129211   6.305   7.606  11.243
75793SOL    HW229212   6.383   7.723  11.299
75794SOL     OW29213   1.114   5.898  13.597
75794SOL    HW129214   1.182   5.965  13.592
75794SOL    HW229215   1.162   5.817  13.615
75795SOL     OW29216   0.249  14.560  10.994
75795SOL    HW129217   0.207  14.475  10.983
75795SOL    HW229218   0.234  14.606  10.911
75796SOL     OW29219  10.769  11.597   7.283
75796SOL    HW129220  10.749  11.533   7.352
75796SOL    HW229221  10.813  11.668   7.329
75797SOL     OW29222  11.343   9.854  10.856
75797SOL    HW129223  11.320   9.895  10.939
75797SOL    HW229224  11.261   9.815  10.825
75798SOL     OW29225   0.697   6.751   0.909
75798SOL    HW129226   0.746   6.816   0.960
75798SOL    HW229227   0.751   6.737   0.831
75799SOL     OW29228  14.056   6.246   4.231
75799SOL    HW129229  14.132   6.301   4.243
75799SOL    HW229230  14.002   6.292   4.167
75800SOL     OW29231   4.804  13.780  14.173
75800SOL    HW129232   4.831  13.872  14.173
75800SOL    HW229233   4.886  13.731  14.164
75801SOL     OW29234   3.835  14.298   6.386
75801SOL    HW129235   3.890  14.264   6.315
75801SOL    HW229236   3.746  14.272   6.361
75802SOL     OW29237  10.497  13.396  13.086
75802SOL    HW129238  10.526  13.420  13.174
75802SOL    HW229239  10.497  13.478  13.037
75803SOL     OW29240   4.986   7.117   0.507
75803SOL    HW129241   5.005   7.060   0.581
75803SOL    HW229242   5.059   7.179   0.505
75804SOL     OW29243  14.087  11.194   5.002
75804SOL    HW129244  14.150  11.136   5.045
75804SOL    HW229245  14.137  11.235   4.932
75805SOL     OW29246   5.471   2.139   6.632
75805SOL    HW129247   5.392   2.159   6.581
75805SOL    HW229248   5.441   2.140   6.723
75806SOL     OW29249  10.278   9.984   1.730
75806SOL    HW129250  10.362   9.987   1.684
75806SOL    HW229251  10.220  10.041   1.678
75807SOL     OW29252  12.225  12.273  14.040
75807SOL    HW129253  12.221  12.188  14.084
75807SOL    HW229254  12.234  12.252  13.947
75808SOL     OW29255   5.303   5.826   9.912
75808SOL    HW129256   5.255   5.745   9.928
75808SOL    HW229257   5.360   5.836   9.988
75809SOL     OW29258   3.213   1.033  11.127
75809SOL    HW129259   3.150   0.962  11.133
75809SOL    HW229260   3.176   1.103  11.182
75810SOL     OW29261   6.430   8.594   6.643
75810SOL    HW129262   6.522   8.616   6.631
75810SOL    HW229263   6.431   8.516   6.699
75811SOL     OW29264  10.846   7.473  12.658
75811SOL    HW129265  10.910   7.405  12.639
75811SOL    HW229266  10.792   7.478  12.579
75812SOL     OW29267  14.488   5.129   5.835
75812SOL    HW129268  14.405   5.081   5.831
75812SOL    HW229269  14.486   5.186   5.759
75813SOL     OW29270   7.416   8.904   1.142
75813SOL    HW129271   7.351   8.847   1.100
75813SOL    HW229272   7.456   8.849   1.210
75814SOL     OW29273   3.457  14.812   6.423
75814SOL    HW129274   3.489   0.020   6.429
75814SOL    HW229275   3.533  14.760   6.399
75815SOL     OW29276  11.332  10.428  11.407
75815SOL    HW129277  11.253  10.377  11.426
75815SOL    HW229278  11.395  10.362  11.376
75816SOL     OW29279   0.553  12.988  13.135
75816SOL    HW129280   0.556  12.899  13.171
75816SOL    HW229281   0.645  13.014  13.128
75817SOL     OW29282   9.200   3.436   9.911
75817SOL    HW129283   9.154   3.369   9.861
75817SOL    HW229284   9.277   3.390   9.946
75818SOL     OW29285   6.445  11.403   1.206
75818SOL    HW129286   6.425  11.465   1.276
75818SOL    HW229287   6.393  11.325   1.227
75819SOL     OW29288   6.654   2.927  11.324
75819SOL    HW129289   6.736   2.883  11.303
75819SOL    HW229290   6.587   2.870  11.285
75820SOL     OW29291   1.241   9.419  13.145
75820SOL    HW129292   1.277   9.504  13.122
75820SOL    HW229293   1.266   9.405  13.236
75821SOL     OW29294  11.389   0.271   7.272
75821SOL    HW129295  11.433   0.289   7.355
75821SOL    HW229296  11.339   0.351   7.253
75822SOL     OW29297   4.163   6.977   7.395
75822SOL    HW129298   4.149   7.071   7.409
75822SOL    HW229299   4.084   6.948   7.349
75823SOL     OW29300  12.726  10.377  14.660
75823SOL    HW129301  12.643  10.394  14.616
75823SOL    HW229302  12.764  10.304  14.612
75824SOL     OW29303  13.366  11.954   7.606
75824SOL    HW129304  13.321  12.023   7.557
75824SOL    HW229305  13.442  11.997   7.645
75825SOL     OW29306   7.038   2.598   4.013
75825SOL    HW129307   7.006   2.565   3.930
75825SOL    HW229308   7.042   2.693   4.002
75826SOL     OW29309   2.256  14.151   3.070
75826SOL    HW129310   2.332  14.120   3.021
75826SOL    HW229311   2.274  14.124   3.160
75827SOL     OW29312   9.153  11.711  11.312
75827SOL    HW129313   9.148  11.756  11.228
75827SOL    HW229314   9.070  11.732  11.355
75828SOL     OW29315   4.770   6.600   3.139
75828SOL    HW129316   4.750   6.513   3.104
75828SOL    HW229317   4.865   6.598   3.156
75829SOL     OW29318   5.423  12.915   0.204
75829SOL    HW129319   5.340  12.962   0.193
75829SOL    HW229320   5.400  12.839   0.259
75830SOL     OW29321   3.831  12.180  11.463
75830SOL    HW129322   3.850  12.178  11.369
75830SOL    HW229323   3.894  12.242  11.499
75831SOL     OW29324   8.762   3.103   8.395
75831SOL    HW129325   8.733   3.012   8.393
75831SOL    HW229326   8.779   3.122   8.487
75832SOL     OW29327   8.005  10.318   1.259
75832SOL    HW129328   7.992  10.404   1.218
75832SOL    HW229329   8.045  10.264   1.191
75833SOL     OW29330   4.832   8.225  10.719
75833SOL    HW129331   4.850   8.296  10.781
75833SOL    HW229332   4.919   8.193  10.694
75834SOL     OW29333  11.223  14.479  13.013
75834SOL    HW129334  11.301  14.503  12.964
75834SOL    HW229335  11.153  14.475  12.948
75835SOL     OW29336   3.494   0.874  11.856
75835SOL    HW129337   3.511   0.898  11.947
75835SOL    HW229338   3.410   0.829  11.859
75836SOL     OW29339   6.394   5.481   5.515
75836SOL    HW129340   6.414   5.393   5.546
75836SOL    HW229341   6.479   5.523   5.505
75837SOL     OW29342  10.428   8.596  10.588
75837SOL    HW129343  10.349   8.632  10.548
75837SOL    HW229344  10.451   8.658  10.657
75838SOL     OW29345   0.481   8.327   6.334
75838SOL    HW129346   0.474   8.402   6.274
75838SOL    HW229347   0.396   8.322   6.377
75839SOL     OW29348  12.870   6.250  12.477
75839SOL    HW129349  12.839   6.272  12.389
75839SOL    HW229350  12.846   6.325  12.531
75840SOL     OW29351   2.667   5.970   2.010
75840SOL    HW129352   2.739   5.939   2.064
75840SOL    HW229353   2.588   5.946   2.059
75841SOL     OW29354   4.964  10.720  13.550
75841SOL    HW129355   4.944  10.787  13.615
75841SOL    HW229356   5.044  10.678  13.584
75842SOL     OW29357   4.663  12.513   3.025
75842SOL    HW129358   4.665  12.498   3.119
75842SOL    HW229359   4.599  12.450   2.992
75843SOL     OW29360   0.732  12.528   2.008
75843SOL    HW129361   0.807  12.552   1.953
75843SOL    HW229362   0.656  12.544   1.952
75844SOL     OW29363   3.825   1.575  14.848
75844SOL    HW129364   3.897   1.637  14.863
75844SOL    HW229365   3.855   1.494   0.007
75845SOL     OW29366  13.387   2.428   5.360
75845SOL    HW129367  13.419   2.486   5.292
75845SOL    HW229368  13.304   2.394   5.326
75846SOL     OW29369   5.916   8.036  13.386
75846SOL    HW129370   5.953   7.995  13.308
75846SOL    HW229371   5.872   8.114  13.354
75847SOL     OW29372  13.018   4.646   1.287
75847SOL    HW129373  12.979   4.577   1.234
75847SOL    HW229374  13.079   4.600   1.345
75848SOL     OW29375  10.290   4.257  11.780
75848SOL    HW129376  10.333   4.286  11.860
75848SOL    HW229377  10.250   4.336  11.744
75849SOL     OW29378   4.990   7.542   9.623
75849SOL    HW129379   5.061   7.551   9.560
75849SOL    HW229380   5.033   7.551   9.708
75850SOL     OW29381   6.085   1.996   9.061
75850SOL    HW129382   6.111   2.075   9.013
75850SOL    HW229383   6.012   2.025   9.116
75851SOL     OW29384   4.773  11.919   4.893
75851SOL    HW129385   4.850  11.964   4.928
75851SOL    HW229386   4.774  11.833   4.934
75852SOL     OW29387   9.153   8.702   1.820
75852SOL    HW129388   9.190   8.624   1.863
75852SOL    HW229389   9.138   8.674   1.730
75853SOL     OW29390   9.632   5.626   0.910
75853SOL    HW129391   9.615   5.555   0.972
75853SOL    HW229392   9.721   5.609   0.879
75854SOL     OW29393  11.045   6.372  14.785
75854SOL    HW129394  10.986   6.348  14.856
75854SOL    HW229395  11.005   6.332  14.707
75855SOL     OW29396   2.517   9.660   6.638
75855SOL    HW129397   2.580   9.622   6.577
75855SOL    HW229398   2.478   9.733   6.590
75856SOL     OW29399  13.511   2.168   8.516
75856SOL    HW129400  13.438   2.116   8.481
75856SOL    HW229401  13.472   2.218   8.587
75857SOL     OW29402   2.723  12.948   4.592
75857SOL    HW129403   2.660  12.883   4.622
75857SOL    HW229404   2.799  12.897   4.565
75858SOL     OW29405   5.560   0.012   3.236
75858SOL    HW129406   5.504   0.061   3.175
75858SOL    HW229407   5.571  14.809   3.194
75859SOL     OW29408  11.478  13.933   8.467
75859SOL    HW129409  11.459  13.888   8.384
75859SOL    HW229410  11.529  13.869   8.518
75860SOL     OW29411   1.275  11.662   5.519
75860SOL    HW129412   1.319  11.746   5.531
75860SOL    HW229413   1.346  11.598   5.511
75861SOL     OW29414   9.958  14.767  13.742
75861SOL    HW129415   9.912  14.851  13.738
75861SOL    HW229416   9.976  14.754  13.835
75862SOL     OW29417   0.449   6.314  14.254
75862SOL    HW129418   0.543   6.318  14.233
75862SOL    HW229419   0.428   6.403  14.283
75863SOL     OW29420   4.823   8.478   4.708
75863SOL    HW129421   4.809   8.392   4.669
75863SOL    HW229422   4.769   8.537   4.655
75864SOL     OW29423   9.472   3.476  11.650
75864SOL    HW129424   9.395   3.503  11.599
75864SOL    HW229425   9.439   3.470  11.740
75865SOL     OW29426   4.310   7.632  12.489
75865SOL    HW129427   4.389   7.647  12.541
75865SOL    HW229428   4.332   7.665  12.402
75866SOL     OW29429  11.964   5.546   5.094
75866SOL    HW129430  11.997   5.595   5.168
75866SOL    HW229431  11.870   5.565   5.091
75867SOL     OW29432  11.714   7.410   9.726
75867SOL    HW129433  11.658   7.482   9.697
75867SOL    HW229434  11.693   7.338   9.666
75868SOL     OW29435   9.760   5.896  10.114
75868SOL    HW129436   9.748   5.874  10.206
75868SOL    HW229437   9.672   5.916  10.082
75869SOL     OW29438  14.874   1.134   6.000
75869SOL    HW129439   0.075   1.181   5.992
75869SOL    HW229440   0.017   1.047   6.032
75870SOL     OW29441   4.361   7.140   7.970
75870SOL    HW129442   4.400   7.211   8.020
75870SOL    HW229443   4.411   7.062   7.996
75871SOL     OW29444   1.859  13.985  12.028
75871SOL    HW129445   1.881  13.914  11.967
75871SOL    HW229446   1.834  13.941  12.109
75872SOL     OW29447   3.410   7.305   5.045
75872SOL    HW129448   3.415   7.385   5.097
75872SOL    HW229449   3.475   7.247   5.085
75873SOL     OW29450  10.716  14.851   4.521
75873SOL    HW129451  10.709  14.864   4.426
75873SOL    HW229452  10.752   0.051   4.554
75874SOL     OW29453  14.217   2.812   7.884
75874SOL    HW129454  14.223   2.894   7.834
75874SOL    HW229455  14.133   2.775   7.859
75875SOL     OW29456   3.812   0.279  12.292
75875SOL    HW129457   3.762   0.297  12.372
75875SOL    HW229458   3.746   0.265  12.225
75876SOL     OW29459   3.279   3.322   7.591
75876SOL    HW129460   3.307   3.240   7.631
75876SOL    HW229461   3.249   3.376   7.664
75877SOL     OW29462   0.876   8.548   8.808
75877SOL    HW129463   0.792   8.556   8.852
75877SOL    HW229464   0.861   8.587   8.721
75878SOL     OW29465   9.702   6.799   0.119
75878SOL    HW129466   9.716   6.847   0.201
75878SOL    HW229467   9.699   6.707   0.145
75879SOL     OW29468  13.542   9.307  13.178
75879SOL    HW129469  13.577   9.231  13.225
75879SOL    HW229470  13.620   9.354  13.147
75880SOL     OW29471   3.356  10.257   2.578
75880SOL    HW129472   3.323  10.172   2.547
75880SOL    HW229473   3.451  10.245   2.580
75881SOL     OW29474   3.056   9.785   4.174
75881SOL    HW129475   3.072   9.819   4.086
75881SOL    HW229476   2.963   9.800   4.189
75882SOL     OW29477   1.184  11.574   9.444
75882SOL    HW129478   1.208  11.481   9.444
75882SOL    HW229479   1.088  11.574   9.436
75883SOL     OW29480   8.119   1.347   2.266
75883SOL    HW129481   8.036   1.363   2.221
75883SOL    HW229482   8.102   1.369   2.357
75884SOL     OW29483   2.654  11.037   5.456
75884SOL    HW129484   2.734  11.086   5.477
75884SOL    HW229485   2.604  11.095   5.398
75885SOL     OW29486   5.421   0.458   5.288
75885SOL    HW129487   5.331   0.490   5.291
75885SOL    HW229488   5.436   0.421   5.376
75886SOL     OW29489   7.096   2.695   9.343
75886SOL    HW129490   7.093   2.767   9.280
75886SOL    HW229491   7.188   2.690   9.369
75887SOL     OW29492   8.808  11.015  13.913
75887SOL    HW129493   8.742  10.995  13.847
75887SOL    HW229494   8.806  11.111  13.920
75888SOL     OW29495   6.720   7.635   7.478
75888SOL    HW129496   6.731   7.542   7.461
75888SOL    HW229497   6.643   7.660   7.426
75889SOL     OW29498   3.556   3.470  12.967
75889SOL    HW129499   3.480   3.475  13.025
75889SOL    HW229500   3.549   3.548  12.912
75890SOL     OW29501   1.727   4.778  11.521
75890SOL    HW129502   1.776   4.727  11.585
75890SOL    HW229503   1.646   4.728  11.508
75891SOL     OW29504   8.563   1.203   4.004
75891SOL    HW129505   8.487   1.172   4.054
75891SOL    HW229506   8.537   1.192   3.913
75892SOL     OW29507   0.784   1.814   7.831
75892SOL    HW129508   0.744   1.832   7.916
75892SOL    HW229509   0.767   1.893   7.780
75893SOL     OW29510   3.040  14.352   2.408
75893SOL    HW129511   3.135  14.349   2.416
75893SOL    HW229512   3.017  14.442   2.433
75894SOL     OW29513   2.436   1.689   8.615
75894SOL    HW129514   2.355   1.716   8.658
75894SOL    HW229515   2.440   1.743   8.536
75895SOL     OW29516  11.013  11.849  11.803
75895SOL    HW129517  10.950  11.915  11.776
75895SOL    HW229518  11.031  11.799  11.724
75896SOL     OW29519  12.705   6.585   2.313
75896SOL    HW129520  12.727   6.537   2.233
75896SOL    HW229521  12.614   6.610   2.302
75897SOL     OW29522  12.326  10.027  12.522
75897SOL    HW129523  12.383  10.047  12.448
75897SOL    HW229524  12.282   9.946  12.497
75898SOL     OW29525   9.446   4.548   0.028
75898SOL    HW129526   9.536   4.518   0.016
75898SOL    HW229527   9.406   4.539  14.824
75899SOL     OW29528  12.092   8.517   1.692
75899SOL    HW129529  12.111   8.423   1.695
75899SOL    HW229530  12.083   8.537   1.599
75900SOL     OW29531   3.090   6.257  12.570
75900SOL    HW129532   3.169   6.284  12.617
75900SOL    HW229533   3.026   6.326  12.589
75901SOL     OW29534  13.619   1.236   9.922
75901SOL    HW129535  13.708   1.243   9.888
75901SOL    HW229536  13.629   1.203  10.011
75902SOL     OW29537  10.452   0.933   4.722
75902SOL    HW129538  10.514   0.996   4.759
75902SOL    HW229539  10.490   0.847   4.743
75903SOL     OW29540   6.078   3.316   2.402
75903SOL    HW129541   6.115   3.229   2.414
75903SOL    HW229542   6.151   3.368   2.369
75904SOL     OW29543   7.211   9.518   4.496
75904SOL    HW129544   7.139   9.571   4.530
75904SOL    HW229545   7.277   9.520   4.566
75905SOL     OW29546  11.885  14.808  13.428
75905SOL    HW129547  11.968  14.778  13.463
75905SOL    HW229548  11.821  14.746  13.462
75906SOL     OW29549   3.480   7.825   7.874
75906SOL    HW129550   3.535   7.808   7.797
75906SOL    HW229551   3.474   7.740   7.918
75907SOL     OW29552  14.507   3.739   4.576
75907SOL    HW129553  14.544   3.653   4.594
75907SOL    HW229554  14.441   3.723   4.508
75908SOL     OW29555   3.763   6.800   7.423
75908SOL    HW129556   3.836   6.782   7.364
75908SOL    HW229557   3.699   6.732   7.404
75909SOL     OW29558   4.112   1.895   8.420
75909SOL    HW129559   4.069   1.958   8.477
75909SOL    HW229560   4.163   1.839   8.479
75910SOL     OW29561   9.340  14.069  14.118
75910SOL    HW129562   9.402  14.080  14.047
75910SOL    HW229563   9.346  14.150  14.168
75911SOL     OW29564  12.429  11.700   6.957
75911SOL    HW129565  12.411  11.606   6.957
75911SOL    HW229566  12.469  11.717   7.042
75912SOL     OW29567  11.599   1.769   8.397
75912SOL    HW129568  11.539   1.826   8.444
75912SOL    HW229569  11.591   1.796   8.305
75913SOL     OW29570   2.687   2.467   0.423
75913SOL    HW129571   2.667   2.560   0.430
75913SOL    HW229572   2.635   2.437   0.349
75914SOL     OW29573  13.455   1.066  12.353
75914SOL    HW129574  13.440   0.995  12.415
75914SOL    HW229575  13.376   1.119  12.358
75915SOL     OW29576   9.672  10.778   2.008
75915SOL    HW129577   9.762  10.778   2.038
75915SOL    HW229578   9.665  10.855   1.951
75916SOL     OW29579  13.793   1.310  11.646
75916SOL    HW129580  13.754   1.293  11.560
75916SOL    HW229581  13.887   1.301  11.632
75917SOL     OW29582   1.999   6.951  10.413
75917SOL    HW129583   1.990   6.963  10.508
75917SOL    HW229584   1.939   6.880  10.392
75918SOL     OW29585   4.421   3.558   1.051
75918SOL    HW129586   4.500   3.612   1.058
75918SOL    HW229587   4.370   3.580   1.129
75919SOL     OW29588  11.406   5.975  11.481
75919SOL    HW129589  11.439   6.052  11.434
75919SOL    HW229590  11.325   5.952  11.435
75920SOL     OW29591   9.609   8.817   6.723
75920SOL    HW129592   9.518   8.789   6.714
75920SOL    HW229593   9.648   8.756   6.785
75921SOL     OW29594   7.552   8.005   1.889
75921SOL    HW129595   7.461   8.022   1.914
75921SOL    HW229596   7.548   7.923   1.840
75922SOL     OW29597  14.104  11.680   6.333
75922SOL    HW129598  14.134  11.691   6.243
75922SOL    HW229599  14.087  11.769   6.364
75923SOL     OW29600  14.512   2.794   2.056
75923SOL    HW129601  14.513   2.701   2.078
75923SOL    HW229602  14.461   2.799   1.976
75924SOL     OW29603  12.779   6.383   4.398
75924SOL    HW129604  12.748   6.314   4.458
75924SOL    HW229605  12.858   6.346   4.359
75925SOL     OW29606   0.651  11.078   1.132
75925SOL    HW129607   0.728  11.022   1.129
75925SOL    HW229608   0.585  11.030   1.082
75926SOL     OW29609   9.665  13.018   0.953
75926SOL    HW129610   9.756  13.027   0.925
75926SOL    HW229611   9.669  12.960   1.029
75927SOL     OW29612  13.159  10.165  11.375
75927SOL    HW129613  13.076  10.117  11.385
75927SOL    HW229614  13.213  10.108  11.321
75928SOL     OW29615   6.973   5.117   7.920
75928SOL    HW129616   6.942   5.180   7.985
75928SOL    HW229617   7.068   5.126   7.921
75929SOL     OW29618   6.192   8.820  11.274
75929SOL    HW129619   6.220   8.796  11.362
75929SOL    HW229620   6.163   8.911  11.281
75930SOL     OW29621   8.208  12.684  14.472
75930SOL    HW129622   8.139  12.728  14.523
75930SOL    HW229623   8.172  12.677  14.384
75931SOL     OW29624  12.906   2.121   9.517
75931SOL    HW129625  12.813   2.122   9.496
75931SOL    HW229626  12.933   2.213   9.511
75932SOL     OW29627   7.185   6.657   5.829
75932SOL    HW129628   7.127   6.600   5.779
75932SOL    HW229629   7.177   6.742   5.787
75933SOL     OW29630   4.164  10.496   9.231
75933SOL    HW129631   4.251  10.503   9.193
75933SOL    HW229632   4.105  10.534   9.166
75934SOL     OW29633   7.301   5.298  10.637
75934SOL    HW129634   7.220   5.260  10.670
75934SOL    HW229635   7.366   5.228  10.647
75935SOL     OW29636   1.470   5.817   5.954
75935SOL    HW129637   1.506   5.828   5.866
75935SOL    HW229638   1.468   5.722   5.968
75936SOL     OW29639   6.269   4.961   1.579
75936SOL    HW129640   6.340   4.900   1.598
75936SOL    HW229641   6.262   5.015   1.658
75937SOL     OW29642   8.160  11.965  10.961
75937SOL    HW129643   8.188  11.960  10.870
75937SOL    HW229644   8.186  12.053  10.989
75938SOL     OW29645   7.806   3.206  14.253
75938SOL    HW129646   7.791   3.288  14.301
75938SOL    HW229647   7.846   3.148  14.318
75939SOL     OW29648   0.814   4.559   1.152
75939SOL    HW129649   0.782   4.504   1.224
75939SOL    HW229650   0.895   4.598   1.186
75940SOL     OW29651   3.768  10.578   6.599
75940SOL    HW129652   3.859  10.552   6.612
75940SOL    HW229653   3.735  10.516   6.534
75941SOL     OW29654   9.362   6.286   7.827
75941SOL    HW129655   9.286   6.282   7.884
75941SOL    HW229656   9.403   6.369   7.848
75942SOL     OW29657   9.880  11.765  14.615
75942SOL    HW129658   9.975  11.771  14.624
75942SOL    HW229659   9.863  11.782  14.522
75943SOL     OW29660  12.393  10.600   0.129
75943SOL    HW129661  12.452  10.596   0.205
75943SOL    HW229662  12.409  10.687   0.092
75944SOL     OW29663  12.960   6.000  12.972
75944SOL    HW129664  12.908   6.079  12.987
75944SOL    HW229665  12.999   6.012  12.885
75945SOL     OW29666   4.486   2.583   0.128
75945SOL    HW129667   4.471   2.540   0.212
75945SOL    HW229668   4.475   2.676   0.146
75946SOL     OW29669  12.427   8.071   0.169
75946SOL    HW129670  12.440   8.146   0.111
75946SOL    HW229671  12.336   8.080   0.199
75947SOL     OW29672   4.189   5.479  12.531
75947SOL    HW129673   4.180   5.451  12.440
75947SOL    HW229674   4.232   5.564  12.526
75948SOL     OW29675   1.394   5.972   3.449
75948SOL    HW129676   1.381   5.978   3.544
75948SOL    HW229677   1.406   5.879   3.433
75949SOL     OW29678   1.055   1.798  10.237
75949SOL    HW129679   1.128   1.820  10.178
75949SOL    HW229680   1.029   1.882  10.275
75950SOL     OW29681  14.432   9.629  12.506
75950SOL    HW129682  14.518   9.610  12.543
75950SOL    HW229683  14.376   9.645  12.582
75951SOL     OW29684   0.604   3.569   5.951
75951SOL    HW129685   0.688   3.611   5.967
75951SOL    HW229686   0.555   3.583   6.032
75952SOL     OW29687  12.826   1.403   2.656
75952SOL    HW129688  12.838   1.485   2.704
75952SOL    HW229689  12.900   1.348   2.684
75953SOL     OW29690   3.586   6.518   9.414
75953SOL    HW129691   3.533   6.472   9.479
75953SOL    HW229692   3.647   6.452   9.381
75954SOL     OW29693   5.044   0.122   7.604
75954SOL    HW129694   5.125   0.073   7.616
75954SOL    HW229695   5.031   0.169   7.686
75955SOL     OW29696   9.829   4.677  13.935
75955SOL    HW129697   9.878   4.677  14.017
75955SOL    HW229698   9.870   4.745  13.882
75956SOL     OW29699   8.722   2.776   3.558
75956SOL    HW129700   8.732   2.781   3.653
75956SOL    HW229701   8.715   2.868   3.530
75957SOL     OW29702  11.433   4.853   8.072
75957SOL    HW129703  11.454   4.833   8.163
75957SOL    HW229704  11.363   4.919   8.078
75958SOL     OW29705   9.599   4.222   8.115
75958SOL    HW129706   9.628   4.150   8.172
75958SOL    HW229707   9.620   4.192   8.026
75959SOL     OW29708   1.424   5.529  12.335
75959SOL    HW129709   1.516   5.503  12.330
75959SOL    HW229710   1.407   5.537  12.429
75960SOL     OW29711   5.514  14.586  11.689
75960SOL    HW129712   5.471  14.574  11.774
75960SOL    HW229713   5.543  14.677  11.690
75961SOL     OW29714   7.802   2.261  14.874
75961SOL    HW129715   7.871   2.305  14.825
75961SOL    HW229716   7.731   2.249  14.811
75962SOL     OW29717   3.840  11.911   3.936
75962SOL    HW129718   3.927  11.947   3.919
75962SOL    HW229719   3.789  11.933   3.857
75963SOL     OW29720   0.269   6.851  12.317
75963SOL    HW129721   0.235   6.913  12.380
75963SOL    HW229722   0.353   6.822  12.354
75964SOL     OW29723   6.752  12.660   4.642
75964SOL    HW129724   6.774  12.568   4.632
75964SOL    HW229725   6.825  12.696   4.694
75965SOL     OW29726   9.073  13.176   1.607
75965SOL    HW129727   9.027  13.139   1.532
75965SOL    HW229728   9.113  13.256   1.574
75966SOL     OW29729   1.346   3.285  12.451
75966SOL    HW129730   1.427   3.303  12.500
75966SOL    HW229731   1.367   3.309  12.361
75967SOL     OW29732   5.169   8.699  12.033
75967SOL    HW129733   5.157   8.760  11.961
75967SOL    HW229734   5.085   8.654  12.041
75968SOL     OW29735  10.167   8.877   0.954
75968SOL    HW129736  10.180   8.936   0.880
75968SOL    HW229737  10.252   8.873   0.997
75969SOL     OW29738   3.219  12.635   3.474
75969SOL    HW129739   3.269  12.584   3.537
75969SOL    HW229740   3.268  12.717   3.465
75970SOL     OW29741  13.371  12.494   7.937
75970SOL    HW129742  13.429  12.514   8.010
75970SOL    HW229743  13.317  12.572   7.927
75971SOL     OW29744   6.450   3.315   8.487
75971SOL    HW129745   6.411   3.250   8.546
75971SOL    HW229746   6.391   3.391   8.494
75972SOL     OW29747   3.441   9.219   2.425
75972SOL    HW129748   3.355   9.178   2.418
75972SOL    HW229749   3.451   9.241   2.518
75973SOL     OW29750   6.869  12.227  12.745
75973SOL    HW129751   6.887  12.168  12.671
75973SOL    HW229752   6.926  12.302  12.729
75974SOL     OW29753   7.484  11.799   7.061
75974SOL    HW129754   7.414  11.855   7.028
75974SOL    HW229755   7.442  11.744   7.127
75975SOL     OW29756   1.640  14.026   3.255
75975SOL    HW129757   1.559  14.076   3.252
75975SOL    HW229758   1.614  13.935   3.241
75976SOL     OW29759   4.015   2.406   1.449
75976SOL    HW129760   4.037   2.469   1.381
75976SOL    HW229761   4.090   2.408   1.509
75977SOL     OW29762  10.474   2.127  10.049
75977SOL    HW129763  10.446   2.203   9.999
75977SOL    HW229764  10.549   2.093  10.001
75978SOL     OW29765   1.427   4.416   0.620
75978SOL    HW129766   1.465   4.344   0.570
75978SOL    HW229767   1.470   4.494   0.584
75979SOL     OW29768   7.076  11.072  14.453
75979SOL    HW129769   7.087  11.146  14.513
75979SOL    HW229770   7.005  11.099  14.395
75980SOL     OW29771   1.529   2.837   5.710
75980SOL    HW129772   1.578   2.828   5.628
75980SOL    HW229773   1.502   2.929   5.712
75981SOL     OW29774   4.401  14.446  11.554
75981SOL    HW129775   4.392  14.368  11.500
75981SOL    HW229776   4.475  14.494  11.517
75982SOL     OW29777   8.517   9.546  11.106
75982SOL    HW129778   8.553   9.553  11.018
75982SOL    HW229779   8.567   9.609  11.158
75983SOL     OW29780   8.969   7.882   3.252
75983SOL    HW129781   8.962   7.977   3.254
75983SOL    HW229782   8.957   7.860   3.159
75984SOL     OW29783  12.913   7.363   7.843
75984SOL    HW129784  13.008   7.348   7.833
75984SOL    HW229785  12.889   7.312   7.920
75985SOL     OW29786   2.972   6.974   8.226
75985SOL    HW129787   3.062   7.007   8.221
75985SOL    HW229788   2.953   6.971   8.320
75986SOL     OW29789   8.677   0.093  13.526
75986SOL    HW129790   8.746   0.159  13.517
75986SOL    HW229791   8.636   0.090  13.439
75987SOL     OW29792   8.112   0.048   7.612
75987SOL    HW129793   8.160  14.875   7.674
75987SOL    HW229794   8.142   0.019   7.526
75988SOL     OW29795   4.995   4.754   7.928
75988SOL    HW129796   4.943   4.683   7.966
75988SOL    HW229797   4.970   4.754   7.835
75989SOL     OW29798  13.937  13.288   2.750
75989SOL    HW129799  13.979  13.320   2.829
75989SOL    HW229800  13.990  13.213   2.723
75990SOL     OW29801  13.530   6.565   0.065
75990SOL    HW129802  13.576   6.649   0.053
75990SOL    HW229803  13.514   6.534  14.858
75991SOL     OW29804   7.418   8.802   9.271
75991SOL    HW129805   7.500   8.784   9.318
75991SOL    HW229806   7.383   8.715   9.250
75992SOL     OW29807   6.021  12.506   2.602
75992SOL    HW129808   6.072  12.542   2.675
75992SOL    HW229809   6.058  12.419   2.588
75993SOL     OW29810   4.707   9.265   2.635
75993SOL    HW129811   4.778   9.212   2.671
75993SOL    HW229812   4.712   9.348   2.684
75994SOL     OW29813   8.527   5.877  12.386
75994SOL    HW129814   8.485   5.815  12.445
75994SOL    HW229815   8.481   5.867  12.303
75995SOL     OW29816   3.612  14.832  11.210
75995SOL    HW129817   3.610  14.756  11.268
75995SOL    HW229818   3.671   0.012  11.254
75996SOL     OW29819   0.800  10.205   7.338
75996SOL    HW129820   0.715  10.204   7.293
75996SOL    HW229821   0.858  10.157   7.280
75997SOL     OW29822   3.072   2.120   9.525
75997SOL    HW129823   2.981   2.117   9.553
75997SOL    HW229824   3.104   2.205   9.555
75998SOL     OW29825  13.102   1.324   4.281
75998SOL    HW129826  13.072   1.267   4.210
75998SOL    HW229827  13.057   1.407   4.265
75999SOL     OW29828   3.318   6.290  12.742
75999SOL    HW129829   3.305   6.340  12.823
75999SOL    HW229830   3.299   6.199  12.766
76000SOL     OW29831   8.460  10.067   0.284
76000SOL    HW129832   8.533  10.013   0.252
76000SOL    HW229833   8.447  10.132   0.214
76001SOL     OW29834   7.949   0.716   7.239
76001SOL    HW129835   7.967   0.661   7.315
76001SOL    HW229836   8.002   0.795   7.253
76002SOL     OW29837   4.540  11.225  12.936
76002SOL    HW129838   4.462  11.210  12.990
76002SOL    HW229839   4.605  11.262  12.996
76003SOL     OW29840  11.344  12.950   8.573
76003SOL    HW129841  11.402  12.910   8.508
76003SOL    HW229842  11.292  13.013   8.523
76004SOL     OW29843  11.998   8.031   3.841
76004SOL    HW129844  12.012   8.061   3.751
76004SOL    HW229845  11.922   7.974   3.836
76005SOL     OW29846   5.320  14.694   9.114
76005SOL    HW129847   5.255  14.630   9.143
76005SOL    HW229848   5.390  14.687   9.179
76006SOL     OW29849   7.871   3.234   2.661
76006SOL    HW129850   7.927   3.158   2.672
76006SOL    HW229851   7.904   3.277   2.582
76007SOL     OW29852   4.649  10.310   8.881
76007SOL    HW129853   4.669  10.228   8.836
76007SOL    HW229854   4.655  10.289   8.974
76008SOL     OW29855  13.380   5.410   3.054
76008SOL    HW129856  13.384   5.317   3.032
76008SOL    HW229857  13.472   5.438   3.054
76009SOL     OW29858   5.689   8.914   0.906
76009SOL    HW129859   5.712   8.991   0.958
76009SOL    HW229860   5.673   8.845   0.971
76010SOL     OW29861   1.552   9.057   7.264
76010SOL    HW129862   1.630   9.039   7.212
76010SOL    HW229863   1.528   9.147   7.241
76011SOL     OW29864   2.822  11.209  11.561
76011SOL    HW129865   2.838  11.299  11.534
76011SOL    HW229866   2.732  11.191  11.536
76012SOL     OW29867   1.877   6.987   2.842
76012SOL    HW129868   1.924   6.904   2.834
76012SOL    HW229869   1.815   6.987   2.768
76013SOL     OW29870   3.982   9.159  14.198
76013SOL    HW129871   3.970   9.073  14.158
76013SOL    HW229872   3.932   9.154  14.280
76014SOL     OW29873  12.569  11.927   2.677
76014SOL    HW129874  12.659  11.930   2.645
76014SOL    HW229875  12.573  11.967   2.764
76015SOL     OW29876  11.250   0.678   9.998
76015SOL    HW129877  11.259   0.770  10.024
76015SOL    HW229878  11.193   0.680   9.921
76016SOL     OW29879   7.770  11.328   4.115
76016SOL    HW129880   7.730  11.301   4.197
76016SOL    HW229881   7.859  11.293   4.118
76017SOL     OW29882   5.423  13.996   8.013
76017SOL    HW129883   5.332  13.973   8.029
76017SOL    HW229884   5.458  14.018   8.100
76018SOL     OW29885  11.270  14.710   7.056
76018SOL    HW129886  11.251  14.774   7.124
76018SOL    HW229887  11.365  14.696   7.061
76019SOL     OW29888   1.521  13.326  12.774
76019SOL    HW129889   1.521  13.299  12.866
76019SOL    HW229890   1.439  13.289  12.738
76020SOL     OW29891   3.501   3.409  11.553
76020SOL    HW129892   3.470   3.498  11.570
76020SOL    HW229893   3.479   3.393  11.462
76021SOL     OW29894   5.923  12.942  11.988
76021SOL    HW129895   5.857  12.918  12.053
76021SOL    HW229896   5.879  13.005  11.931
76022SOL     OW29897   3.072  12.213  14.486
76022SOL    HW129898   3.084  12.204  14.391
76022SOL    HW229899   3.157  12.245  14.518
76023SOL     OW29900   6.041  11.037  11.913
76023SOL    HW129901   6.052  10.942  11.913
76023SOL    HW229902   6.117  11.070  11.865
76024SOL     OW29903   4.851   7.497   3.199
76024SOL    HW129904   4.918   7.436   3.230
76024SOL    HW229905   4.886   7.583   3.219
76025SOL     OW29906   0.508   3.608   0.226
76025SOL    HW129907   0.594   3.566   0.229
76025SOL    HW229908   0.460   3.569   0.299
76026SOL     OW29909   2.937   4.034   9.380
76026SOL    HW129910   3.028   4.042   9.352
76026SOL    HW229911   2.919   3.940   9.376
76027SOL     OW29912  10.789   5.863   8.337
76027SOL    HW129913  10.841   5.830   8.264
76027SOL    HW229914  10.854   5.878   8.407
76028SOL     OW29915   9.302  13.673   3.307
76028SOL    HW129916   9.226  13.709   3.353
76028SOL    HW229917   9.331  13.744   3.250
76029SOL     OW29918   2.258   9.356  11.799
76029SOL    HW129919   2.307   9.294  11.852
76029SOL    HW229920   2.308   9.364  11.718
76030SOL     OW29921   7.599   8.924   0.802
76030SOL    HW129922   7.534   8.883   0.745
76030SOL    HW229923   7.682   8.910   0.757
76031SOL     OW29924   2.796   7.353   8.767
76031SOL    HW129925   2.861   7.307   8.714
76031SOL    HW229926   2.841   7.432   8.796
76032SOL     OW29927   6.815  11.072   3.836
76032SOL    HW129928   6.774  11.125   3.904
76032SOL    HW229929   6.814  10.983   3.871
76033SOL     OW29930  12.859   2.565   4.607
76033SOL    HW129931  12.836   2.472   4.612
76033SOL    HW229932  12.846   2.598   4.695
76034SOL     OW29933   9.872  13.794  10.233
76034SOL    HW129934   9.949  13.847  10.209
76034SOL    HW229935   9.904  13.704  10.232
76035SOL     OW29936  12.680   1.919  13.458
76035SOL    HW129937  12.662   1.852  13.393
76035SOL    HW229938  12.770   1.903  13.486
76036SOL     OW29939   8.640  10.771  14.679
76036SOL    HW129940   8.578  10.755  14.749
76036SOL    HW229941   8.669  10.683  14.653
76037SOL     OW29942   1.630  13.242   5.077
76037SOL    HW129943   1.719  13.214   5.052
76037SOL    HW229944   1.634  13.337   5.077
76038SOL     OW29945  11.811  10.752   7.360
76038SOL    HW129946  11.839  10.662   7.342
76038SOL    HW229947  11.717  10.744   7.376
76039SOL     OW29948   9.665   6.681  10.295
76039SOL    HW129949   9.617   6.664  10.214
76039SOL    HW229950   9.633   6.615  10.356
76040SOL     OW29951   1.150   4.786   8.834
76040SOL    HW129952   1.243   4.804   8.819
76040SOL    HW229953   1.140   4.790   8.929
76041SOL     OW29954   0.325   9.328  13.843
76041SOL    HW129955   0.345   9.311  13.751
76041SOL    HW229956   0.404   9.300  13.890
76042SOL     OW29957   4.604   4.748  10.022
76042SOL    HW129958   4.655   4.725  10.099
76042SOL    HW229959   4.541   4.814  10.053
76043SOL     OW29960   0.935   9.794   8.905
76043SOL    HW129961   0.956   9.842   8.825
76043SOL    HW229962   0.867   9.847   8.947
76044SOL     OW29963  13.438   5.072  10.116
76044SOL    HW129964  13.515   5.048  10.169
76044SOL    HW229965  13.374   5.004  10.136
76045SOL     OW29966   4.693   4.383  14.596
76045SOL    HW129967   4.609   4.340  14.580
76045SOL    HW229968   4.747   4.315  14.636
76046SOL     OW29969   7.810   6.538   0.093
76046SOL    HW129970   7.878   6.507   0.154
76046SOL    HW229971   7.834   6.499   0.009
76047SOL     OW29972  13.620   0.266   5.739
76047SOL    HW129973  13.569   0.186   5.749
76047SOL    HW229974  13.699   0.251   5.791
76048SOL     OW29975  10.324  14.519   8.780
76048SOL    HW129976  10.290  14.606   8.761
76048SOL    HW229977  10.336  14.517   8.875
76049SOL     OW29978  10.372   3.646   8.823
76049SOL    HW129979  10.328   3.702   8.888
76049SOL    HW229980  10.394   3.566   8.871
76050SOL     OW29981  13.318   5.227   5.636
76050SOL    HW129982  13.223   5.228   5.649
76050SOL    HW229983  13.352   5.277   5.710
76051SOL     OW29984   8.771   8.229  11.860
76051SOL    HW129985   8.738   8.314  11.827
76051SOL    HW229986   8.800   8.183  11.781
76052SOL     OW29987   0.348   0.841   0.400
76052SOL    HW129988   0.362   0.838   0.494
76052SOL    HW229989   0.253   0.849   0.390
76053SOL     OW29990   2.244  11.728   0.363
76053SOL    HW129991   2.260  11.822   0.362
76053SOL    HW229992   2.215  11.709   0.453
76054SOL     OW29993   8.238   4.474   3.368
76054SOL    HW129994   8.192   4.530   3.305
76054SOL    HW229995   8.176   4.464   3.441
76055SOL     OW29996   4.824   2.761  11.354
76055SOL    HW129997   4.773   2.720  11.425
76055SOL    HW229998   4.909   2.780  11.394
76056SOL     OW29999   7.699   7.278   6.051
76056SOL    HW130000   7.748   7.249   5.974
76056SOL    HW230001   7.764   7.289   6.120
76057SOL     OW30002  11.430  14.829  14.602
76057SOL    HW130003  11.489  14.862  14.534
76057SOL    HW230004  11.393   0.026  14.642
76058SOL     OW30005   5.452   3.219   7.178
76058SOL    HW130006   5.436   3.258   7.092
76058SOL    HW230007   5.545   3.237   7.195
76059SOL     OW30008   8.125   5.367   9.117
76059SOL    HW130009   8.153   5.336   9.031
76059SOL    HW230010   8.059   5.434   9.099
76060SOL     OW30011   4.842   3.685   4.946
76060SOL    HW130012   4.856   3.606   4.998
76060SOL    HW230013   4.763   3.666   4.895
76061SOL     OW30014   7.657  12.727   5.815
76061SOL    HW130015   7.740  12.681   5.803
76061SOL    HW230016   7.648  12.735   5.910
76062SOL     OW30017   7.608  13.752  11.610
76062SOL    HW130018   7.522  13.718  11.587
76062SOL    HW230019   7.618  13.730  11.702
76063SOL     OW30020   4.881   3.803   2.771
76063SOL    HW130021   4.837   3.734   2.820
76063SOL    HW230022   4.921   3.758   2.696
76064SOL     OW30023   9.535  11.345  14.452
76064SOL    HW130024   9.551  11.348  14.546
76064SOL    HW230025   9.512  11.435  14.429
76065SOL     OW30026  13.764   6.184   8.454
76065SOL    HW130027  13.843   6.131   8.462
76065SOL    HW230028  13.795   6.273   8.443
76066SOL     OW30029   8.429   1.920  12.237
76066SOL    HW130030   8.384   1.859  12.179
76066SOL    HW230031   8.442   1.999  12.185
76067SOL     OW30032   8.911   1.223   6.388
76067SOL    HW130033   9.002   1.230   6.359
76067SOL    HW230034   8.860   1.215   6.307
76068SOL     OW30035  14.026   4.704   6.039
76068SOL    HW130036  14.021   4.733   5.948
76068SOL    HW230037  14.020   4.609   6.034
76069SOL     OW30038   2.491   0.852   1.527
76069SOL    HW130039   2.541   0.836   1.607
76069SOL    HW230040   2.550   0.828   1.456
76070SOL     OW30041   2.249   3.306   1.747
76070SOL    HW130042   2.165   3.286   1.706
76070SOL    HW230043   2.310   3.316   1.674
76071SOL     OW30044   6.929   1.940   8.166
76071SOL    HW130045   7.012   1.973   8.132
76071SOL    HW230046   6.873   1.932   8.088
76072SOL     OW30047   9.140   7.519  13.892
76072SOL    HW130048   9.095   7.500  13.974
76072SOL    HW230049   9.198   7.444  13.878
76073SOL     OW30050   5.704   1.920   5.047
76073SOL    HW130051   5.630   1.882   5.000
76073SOL    HW230052   5.741   1.847   5.097
76074SOL     OW30053   2.390   2.454  11.457
76074SOL    HW130054   2.382   2.362  11.485
76074SOL    HW230055   2.440   2.450  11.376
76075SOL     OW30056   4.705   6.871   9.440
76075SOL    HW130057   4.689   6.922   9.519
76075SOL    HW230058   4.788   6.826   9.456
76076SOL     OW30059   2.112   4.057   6.043
76076SOL    HW130060   2.051   4.130   6.057
76076SOL    HW230061   2.180   4.069   6.109
76077SOL     OW30062   1.965   8.664   5.251
76077SOL    HW130063   2.027   8.651   5.180
76077SOL    HW230064   1.883   8.685   5.208
76078SOL     OW30065   8.691   1.395   1.139
76078SOL    HW130066   8.633   1.441   1.199
76078SOL    HW230067   8.760   1.459   1.119
76079SOL     OW30068   2.562   5.174   5.880
76079SOL    HW130069   2.571   5.268   5.895
76079SOL    HW230070   2.492   5.166   5.815
76080SOL     OW30071  11.638   2.961   6.809
76080SOL    HW130072  11.628   2.877   6.764
76080SOL    HW230073  11.727   2.989   6.787
76081SOL     OW30074   2.008   5.265   6.396
76081SOL    HW130075   1.999   5.317   6.316
76081SOL    HW230076   2.020   5.330   6.466
76082SOL     OW30077   5.121   2.715   1.726
76082SOL    HW130078   5.160   2.629   1.712
76082SOL    HW230079   5.178   2.775   1.678
76083SOL     OW30080   0.724  12.550   2.766
76083SOL    HW130081   0.705  12.549   2.860
76083SOL    HW230082   0.802  12.495   2.757
76084SOL     OW30083  11.066   2.671  12.900
76084SOL    HW130084  11.039   2.686  12.991
76084SOL    HW230085  11.150   2.627  12.907
76085SOL     OW30086   3.366   6.768  12.584
76085SOL    HW130087   3.419   6.846  12.597
76085SOL    HW230088   3.423   6.707  12.538
76086SOL     OW30089   5.878  10.356  14.569
76086SOL    HW130090   5.871  10.284  14.632
76086SOL    HW230091   5.889  10.434  14.623
76087SOL     OW30092  10.642   0.499   3.401
76087SOL    HW130093  10.633   0.592   3.381
76087SOL    HW230094  10.620   0.454   3.320
76088SOL     OW30095   0.599   6.485  14.756
76088SOL    HW130096   0.647   6.520  14.831
76088SOL    HW230097   0.661   6.425  14.714
76089SOL     OW30098  14.769  10.620  14.002
76089SOL    HW130099  14.850  10.633  13.952
76089SOL    HW230100  14.798  10.603  14.091
76090SOL     OW30101  12.933   2.402   3.331
76090SOL    HW130102  13.013   2.453   3.323
76090SOL    HW230103  12.870   2.448   3.277
76091SOL     OW30104   2.539  13.227  14.299
76091SOL    HW130105   2.481  13.192  14.366
76091SOL    HW230106   2.606  13.160  14.288
76092SOL     OW30107  13.195   0.680   8.415
76092SOL    HW130108  13.114   0.683   8.465
76092SOL    HW230109  13.175   0.621   8.342
76093SOL     OW30110   7.734  12.520   1.294
76093SOL    HW130111   7.691  12.435   1.299
76093SOL    HW230112   7.668  12.583   1.322
76094SOL     OW30113   0.479   3.532   5.703
76094SOL    HW130114   0.393   3.574   5.703
76094SOL    HW230115   0.506   3.533   5.795
76095SOL     OW30116  12.061   9.853   0.982
76095SOL    HW130117  12.074   9.829   1.074
76095SOL    HW230118  12.144   9.894   0.956
76096SOL     OW30119   4.860   6.964   4.172
76096SOL    HW130120   4.865   6.982   4.266
76096SOL    HW230121   4.769   6.981   4.149
76097SOL     OW30122   7.882   4.677  11.486
76097SOL    HW130123   7.971   4.692  11.455
76097SOL    HW230124   7.887   4.696  11.580
76098SOL     OW30125   8.253  13.138   8.625
76098SOL    HW130126   8.349  13.139   8.625
76098SOL    HW230127   8.228  13.229   8.637
76099SOL     OW30128  11.578  10.029  13.041
76099SOL    HW130129  11.659  10.074  13.015
76099SOL    HW230130  11.601   9.936  13.040
76100SOL     OW30131   7.487  13.000   8.232
76100SOL    HW130132   7.421  13.024   8.296
76100SOL    HW230133   7.447  12.931   8.179
76101SOL     OW30134  14.694   8.391   4.757
76101SOL    HW130135  14.617   8.432   4.797
76101SOL    HW230136  14.738   8.348   4.830
76102SOL     OW30137  12.409  11.826   9.451
76102SOL    HW130138  12.499  11.836   9.482
76102SOL    HW230139  12.411  11.746   9.398
76103SOL     OW30140  12.204   5.742   9.426
76103SOL    HW130141  12.299   5.751   9.430
76103SOL    HW230142  12.184   5.671   9.487
76104SOL     OW30143   6.356   0.424   1.417
76104SOL    HW130144   6.376   0.515   1.397
76104SOL    HW230145   6.414   0.402   1.490
76105SOL     OW30146   4.826  13.756   7.319
76105SOL    HW130147   4.834  13.807   7.238
76105SOL    HW230148   4.748  13.792   7.362
76106SOL     OW30149   7.965   5.861   1.470
76106SOL    HW130150   7.997   5.870   1.381
76106SOL    HW230151   8.043   5.844   1.523
76107SOL     OW30152  13.337   6.816   2.213
76107SOL    HW130153  13.306   6.799   2.124
76107SOL    HW230154  13.419   6.768   2.219
76108SOL     OW30155   4.684   9.673  11.310
76108SOL    HW130156   4.592   9.647  11.318
76108SOL    HW230157   4.730   9.617  11.371
76109SOL     OW30158  13.258   1.780   4.907
76109SOL    HW130159  13.186   1.805   4.964
76109SOL    HW230160  13.296   1.863   4.879
76110SOL     OW30161  10.043   1.513   8.825
76110SOL    HW130162   9.968   1.555   8.781
76110SOL    HW230163  10.084   1.461   8.756
76111SOL     OW30164   3.196  12.432  10.143
76111SOL    HW130165   3.267  12.473  10.094
76111SOL    HW230166   3.213  12.338  10.137
76112SOL     OW30167   6.264  11.305   1.818
76112SOL    HW130168   6.317  11.226   1.827
76112SOL    HW230169   6.323  11.369   1.780
76113SOL     OW30170   7.437   2.387  13.728
76113SOL    HW130171   7.369   2.452  13.712
76113SOL    HW230172   7.413   2.348  13.812
76114SOL     OW30173   6.265   7.678   9.285
76114SOL    HW130174   6.268   7.727   9.203
76114SOL    HW230175   6.191   7.618   9.274
76115SOL     OW30176   1.329   0.186   8.677
76115SOL    HW130177   1.320   0.204   8.770
76115SOL    HW230178   1.417   0.150   8.668
76116SOL     OW30179   0.453  12.622   0.838
76116SOL    HW130180   0.423  12.710   0.813
76116SOL    HW230181   0.372  12.575   0.859
76117SOL     OW30182   6.907   7.372   0.123
76117SOL    HW130183   6.841   7.323   0.074
76117SOL    HW230184   6.974   7.306   0.144
76118SOL     OW30185  14.012  12.744   0.826
76118SOL    HW130186  13.974  12.693   0.898
76118SOL    HW230187  14.037  12.679   0.760
76119SOL     OW30188  10.615   3.652  14.662
76119SOL    HW130189  10.695   3.616  14.699
76119SOL    HW230190  10.639   3.676  14.573
76120SOL     OW30191   5.063   4.493   8.147
76120SOL    HW130192   5.084   4.414   8.197
76120SOL    HW230193   5.118   4.561   8.187
76121SOL     OW30194   9.393  13.063   1.312
76121SOL    HW130195   9.467  13.114   1.279
76121SOL    HW230196   9.415  13.045   1.403
76122SOL     OW30197  10.348   2.224   9.521
76122SOL    HW130198  10.440   2.228   9.546
76122SOL    HW230199  10.317   2.140   9.555
76123SOL     OW30200   2.490   0.321   5.209
76123SOL    HW130201   2.557   0.256   5.187
76123SOL    HW230202   2.519   0.358   5.292
76124SOL     OW30203  12.437   1.585   0.838
76124SOL    HW130204  12.375   1.537   0.783
76124SOL    HW230205  12.402   1.577   0.927
76125SOL     OW30206  12.313  14.079   4.323
76125SOL    HW130207  12.221  14.053   4.329
76125SOL    HW230208  12.311  14.168   4.290
76126SOL     OW30209   5.945   8.219   5.917
76126SOL    HW130210   5.879   8.179   5.860
76126SOL    HW230211   5.961   8.153   5.985
76127SOL     OW30212   1.597   8.193  14.201
76127SOL    HW130213   1.666   8.147  14.152
76127SOL    HW230214   1.515   8.162  14.163
76128SOL     OW30215   1.685  14.493   6.532
76128SOL    HW130216   1.696  14.490   6.437
76128SOL    HW230217   1.745  14.561   6.561
76129SOL     OW30218   0.317   2.057   1.826
76129SOL    HW130219   0.382   2.070   1.895
76129SOL    HW230220   0.356   1.994   1.767
76130SOL     OW30221   5.640  13.276  13.063
76130SOL    HW130222   5.630  13.369  13.082
76130SOL    HW230223   5.664  13.236  13.147
76131SOL     OW30224   5.123  12.688   4.056
76131SOL    HW130225   5.133  12.702   4.150
76131SOL    HW230226   5.159  12.601   4.041
76132SOL     OW30227   7.894  11.606   3.417
76132SOL    HW130228   7.853  11.588   3.501
76132SOL    HW230229   7.906  11.519   3.378
76133SOL     OW30230  10.005   7.132   2.375
76133SOL    HW130231  10.086   7.113   2.328
76133SOL    HW230232   9.938   7.083   2.329
76134SOL     OW30233  10.910   1.226   2.115
76134SOL    HW130234  10.926   1.285   2.188
76134SOL    HW230235  10.870   1.282   2.048
76135SOL     OW30236  12.577   8.528  14.436
76135SOL    HW130237  12.587   8.616  14.473
76135SOL    HW230238  12.499   8.493  14.479
76136SOL     OW30239  14.103   8.918   1.691
76136SOL    HW130240  14.156   8.846   1.725
76136SOL    HW230241  14.146   8.997   1.725
76137SOL     OW30242   8.914  10.519   6.224
76137SOL    HW130243   8.894  10.521   6.318
76137SOL    HW230244   8.885  10.433   6.195
76138SOL     OW30245   5.870  13.770   6.381
76138SOL    HW130246   5.883  13.821   6.301
76138SOL    HW230247   5.958  13.751   6.412
76139SOL     OW30248   6.256  14.502   9.950
76139SOL    HW130249   6.334  14.527   9.901
76139SOL    HW230250   6.274  14.413   9.979
76140SOL     OW30251   6.428  14.356  14.842
76140SOL    HW130252   6.447  14.263  14.858
76140SOL    HW230253   6.335  14.358  14.819
76141SOL     OW30254   8.476   3.253   4.449
76141SOL    HW130255   8.434   3.269   4.533
76141SOL    HW230256   8.423   3.185   4.408
76142SOL     OW30257   2.640   0.170   9.836
76142SOL    HW130258   2.728   0.180   9.871
76142SOL    HW230259   2.627   0.249   9.782
76143SOL     OW30260   3.609   2.928   5.145
76143SOL    HW130261   3.679   2.944   5.208
76143SOL    HW230262   3.534   2.902   5.199
76144SOL     OW30263   7.910   5.120   2.741
76144SOL    HW130264   7.917   5.039   2.690
76144SOL    HW230265   7.979   5.113   2.806
76145SOL     OW30266  11.819   3.316   0.069
76145SOL    HW130267  11.835   3.386   0.132
76145SOL    HW230268  11.851   3.352  14.868
76146SOL     OW30269   7.576   0.501  13.700
76146SOL    HW130270   7.669   0.519  13.712
76146SOL    HW230271   7.538   0.510  13.787
76147SOL     OW30272   7.289   1.489  10.144
76147SOL    HW130273   7.324   1.530  10.223
76147SOL    HW230274   7.212   1.440  10.174
76148SOL     OW30275   5.765   2.141   0.742
76148SOL    HW130276   5.760   2.208   0.811
76148SOL    HW230277   5.859   2.128   0.728
76149SOL     OW30278   8.566   8.602   9.977
76149SOL    HW130279   8.657   8.610  10.002
76149SOL    HW230280   8.566   8.616   9.882
76150SOL     OW30281  14.206  14.794   4.554
76150SOL    HW130282  14.170  14.713   4.589
76150SOL    HW230283  14.133  14.857   4.559
76151SOL     OW30284   9.401   9.610  13.378
76151SOL    HW130285   9.392   9.703  13.395
76151SOL    HW230286   9.460   9.578  13.447
76152SOL     OW30287  14.047   3.318   7.481
76152SOL    HW130288  14.035   3.245   7.543
76152SOL    HW230289  14.129   3.358   7.508
76153SOL     OW30290   8.201  11.057  10.889
76153SOL    HW130291   8.123  11.111  10.877
76153SOL    HW230292   8.206  11.002  10.811
76154SOL     OW30293  10.244   6.977   4.389
76154SOL    HW130294  10.314   7.040   4.370
76154SOL    HW230295  10.262   6.950   4.479
76155SOL     OW30296   2.956   1.187   4.888
76155SOL    HW130297   3.045   1.180   4.922
76155SOL    HW230298   2.951   1.122   4.818
76156SOL     OW30299   9.629   9.943   6.606
76156SOL    HW130300   9.594   9.876   6.547
76156SOL    HW230301   9.559   9.957   6.671
76157SOL     OW30302   3.296  14.480   7.501
76157SOL    HW130303   3.381  14.497   7.461
76157SOL    HW230304   3.298  14.387   7.523
76158SOL     OW30305   7.005  10.406   3.757
76158SOL    HW130306   6.918  10.397   3.718
76158SOL    HW230307   7.064  10.415   3.682
76159SOL     OW30308  14.829  14.097   2.894
76159SOL    HW130309  14.750  14.143   2.923
76159SOL    HW230310   0.013  14.166   2.884
76160SOL     OW30311   8.520   2.579   0.737
76160SOL    HW130312   8.536   2.668   0.767
76160SOL    HW230313   8.529   2.525   0.816
76161SOL     OW30314   8.274   1.224   4.925
76161SOL    HW130315   8.205   1.277   4.964
76161SOL    HW230316   8.355   1.271   4.944
76162SOL     OW30317   6.384   9.497  11.052
76162SOL    HW130318   6.437   9.477  11.130
76162SOL    HW230319   6.399   9.423  10.994
76163SOL     OW30320   6.736  10.166   5.545
76163SOL    HW130321   6.721  10.072   5.534
76163SOL    HW230322   6.824  10.180   5.510
76164SOL     OW30323   6.622   7.707   9.253
76164SOL    HW130324   6.632   7.692   9.159
76164SOL    HW230325   6.559   7.779   9.260
76165SOL     OW30326   7.001   2.172   0.889
76165SOL    HW130327   6.941   2.152   0.817
76165SOL    HW230328   7.086   2.142   0.859
76166SOL     OW30329   2.642   7.055  11.080
76166SOL    HW130330   2.666   6.964  11.097
76166SOL    HW230331   2.716   7.106  11.112
76167SOL     OW30332  13.047   8.564   8.937
76167SOL    HW130333  13.118   8.625   8.916
76167SOL    HW230334  12.973   8.594   8.884
76168SOL     OW30335   3.985  13.705   4.753
76168SOL    HW130336   4.072  13.672   4.775
76168SOL    HW230337   3.983  13.795   4.787
76169SOL     OW30338  14.282   1.375   5.281
76169SOL    HW130339  14.368   1.366   5.241
76169SOL    HW230340  14.290   1.335   5.367
76170SOL     OW30341   7.306  11.309   7.905
76170SOL    HW130342   7.215  11.317   7.934
76170SOL    HW230343   7.339  11.399   7.904
76171SOL     OW30344  11.600   0.945   9.254
76171SOL    HW130345  11.667   0.926   9.187
76171SOL    HW230346  11.538   0.873   9.247
76172SOL     OW30347  11.414  10.487   4.129
76172SOL    HW130348  11.348  10.444   4.075
76172SOL    HW230349  11.478  10.418   4.147
76173SOL     OW30350   6.156   6.683   2.050
76173SOL    HW130351   6.141   6.591   2.029
76173SOL    HW230352   6.112   6.696   2.134
76174SOL     OW30353   2.833  10.161  10.937
76174SOL    HW130354   2.835  10.252  10.907
76174SOL    HW230355   2.872  10.164  11.024
76175SOL     OW30356   6.214   6.122   7.810
76175SOL    HW130357   6.246   6.207   7.840
76175SOL    HW230358   6.125   6.116   7.845
76176SOL     OW30359   9.570   5.726  12.923
76176SOL    HW130360   9.510   5.737  12.997
76176SOL    HW230361   9.514   5.721  12.846
76177SOL     OW30362  10.690   4.842   2.850
76177SOL    HW130363  10.766   4.784   2.839
76177SOL    HW230364  10.703   4.884   2.935
76178SOL     OW30365  14.389   6.162   7.846
76178SOL    HW130366  14.369   6.077   7.885
76178SOL    HW230367  14.396   6.145   7.753
76179SOL     OW30368  13.740   7.632   7.342
76179SOL    HW130369  13.832   7.606   7.332
76179SOL    HW230370  13.731   7.656   7.434
76180SOL     OW30371  12.813  13.477   4.203
76180SOL    HW130372  12.844  13.402   4.254
76180SOL    HW230373  12.728  13.499   4.242
76181SOL     OW30374  12.658   6.288   7.022
76181SOL    HW130375  12.729   6.352   7.027
76181SOL    HW230376  12.636   6.284   6.929
76182SOL     OW30377   1.401   1.494  10.016
76182SOL    HW130378   1.335   1.435  10.052
76182SOL    HW230379   1.396   1.480   9.922
76183SOL     OW30380   5.672  10.410  13.197
76183SOL    HW130381   5.583  10.382  13.218
76183SOL    HW230382   5.699  10.463  13.272
76184SOL     OW30383   3.280   8.925   6.210
76184SOL    HW130384   3.353   8.927   6.272
76184SOL    HW230385   3.246   8.836   6.215
76185SOL     OW30386  11.406  12.691   3.252
76185SOL    HW130387  11.361  12.608   3.266
76185SOL    HW230388  11.382  12.716   3.162
76186SOL     OW30389   8.800  10.511  12.971
76186SOL    HW130390   8.718  10.495  12.925
76186SOL    HW230391   8.818  10.429  13.018
76187SOL     OW30392   7.067  10.275   9.217
76187SOL    HW130393   7.144  10.328   9.196
76187SOL    HW230394   7.081  10.192   9.172
76188SOL     OW30395  12.588   9.532   3.223
76188SOL    HW130396  12.567   9.527   3.316
76188SOL    HW230397  12.506   9.559   3.182
76189SOL     OW30398  13.409   3.935   2.222
76189SOL    HW130399  13.317   3.927   2.248
76189SOL    HW230400  13.446   3.849   2.238
76190SOL     OW30401   4.796  14.131  14.419
76190SOL    HW130402   4.750  14.056  14.381
76190SOL    HW230403   4.726  14.189  14.448
76191SOL     OW30404  14.079  14.741   5.687
76191SOL    HW130405  14.084  14.814   5.750
76191SOL    HW230406  14.163  14.696   5.697
76192SOL     OW30407   5.884  13.267  11.650
76192SOL    HW130408   5.950  13.240  11.586
76192SOL    HW230409   5.888  13.363  11.650
76193SOL     OW30410   9.732   0.138  12.936
76193SOL    HW130411   9.640   0.119  12.916
76193SOL    HW230412   9.764   0.058  12.978
76194SOL     OW30413  12.598   4.135   5.898
76194SOL    HW130414  12.554   4.069   5.843
76194SOL    HW230415  12.527   4.175   5.949
76195SOL     OW30416  13.916   4.758   2.726
76195SOL    HW130417  13.854   4.771   2.798
76195SOL    HW230418  13.867   4.779   2.647
76196SOL     OW30419  10.061   7.575   6.736
76196SOL    HW130420  10.122   7.502   6.723
76196SOL    HW230421   9.985   7.552   6.681
76197SOL     OW30422   5.954   7.509   1.978
76197SOL    HW130423   5.955   7.423   2.021
76197SOL    HW230424   5.863   7.521   1.952
76198SOL     OW30425   1.413  11.636   4.949
76198SOL    HW130426   1.509  11.638   4.959
76198SOL    HW230427   1.382  11.710   5.001
76199SOL     OW30428   9.900   9.990   8.790
76199SOL    HW130429   9.896  10.018   8.699
76199SOL    HW230430   9.990   9.961   8.803
76200SOL     OW30431   7.932  11.631   2.173
76200SOL    HW130432   7.906  11.705   2.118
76200SOL    HW230433   7.909  11.553   2.122
76201SOL     OW30434   4.369  12.984  10.435
76201SOL    HW130435   4.359  12.928  10.358
76201SOL    HW230436   4.453  13.029  10.422
76202SOL     OW30437   6.233  14.300   3.444
76202SOL    HW130438   6.213  14.370   3.382
76202SOL    HW230439   6.327  14.285   3.434
76203SOL     OW30440   4.235   8.681   7.613
76203SOL    HW130441   4.300   8.687   7.683
76203SOL    HW230442   4.216   8.772   7.590
76204SOL     OW30443   4.599   5.392   9.415
76204SOL    HW130444   4.511   5.384   9.378
76204SOL    HW230445   4.638   5.465   9.368
76205SOL     OW30446   2.872   2.701   1.457
76205SOL    HW130447   2.888   2.643   1.383
76205SOL    HW230448   2.910   2.654   1.532
76206SOL     OW30449   9.039   3.065  11.873
76206SOL    HW130450   8.949   3.082  11.901
76206SOL    HW230451   9.034   2.985  11.822
76207SOL     OW30452  14.390   7.223   4.241
76207SOL    HW130453  14.453   7.285   4.204
76207SOL    HW230454  14.424   7.204   4.328
76208SOL     OW30455  10.729   2.574  11.721
76208SOL    HW130456  10.712   2.485  11.752
76208SOL    HW230457  10.704   2.630  11.794
76209SOL     OW30458  10.815   8.864   2.954
76209SOL    HW130459  10.834   8.774   2.930
76209SOL    HW230460  10.792   8.861   3.047
76210SOL     OW30461   4.985   5.536  13.587
76210SOL    HW130462   4.915   5.595  13.614
76210SOL    HW230463   5.034   5.585  13.521
76211SOL     OW30464  13.021   6.181   6.203
76211SOL    HW130465  13.029   6.089   6.177
76211SOL    HW230466  13.075   6.228   6.139
76212SOL     OW30467   4.653  14.623  14.180
76212SOL    HW130468   4.722  14.680  14.146
76212SOL    HW230469   4.701  14.552  14.223
76213SOL     OW30470   3.805   8.412   6.076
76213SOL    HW130471   3.731   8.429   6.135
76213SOL    HW230472   3.878   8.461   6.114
76214SOL     OW30473   2.656  13.741   7.384
76214SOL    HW130474   2.709  13.697   7.450
76214SOL    HW230475   2.605  13.671   7.343
76215SOL     OW30476   4.585   1.890  11.167
76215SOL    HW130477   4.608   1.799  11.147
76215SOL    HW230478   4.527   1.884  11.243
76216SOL     OW30479   3.890   5.539  13.885
76216SOL    HW130480   3.948   5.594  13.832
76216SOL    HW230481   3.934   5.454  13.889
76217SOL     OW30482   7.611   1.245   7.824
76217SOL    HW130483   7.552   1.230   7.750
76217SOL    HW230484   7.639   1.336   7.814
76218SOL     OW30485   6.352  13.820  11.364
76218SOL    HW130486   6.361  13.915  11.371
76218SOL    HW230487   6.299  13.807  11.286
76219SOL     OW30488  14.109   1.955  11.770
76219SOL    HW130489  14.033   1.951  11.828
76219SOL    HW230490  14.091   1.891  11.702
76220SOL     OW30491   8.974  14.188   0.957
76220SOL    HW130492   9.066  14.212   0.964
76220SOL    HW230493   8.954  14.148   1.042
76221SOL     OW30494  14.584   8.873  11.125
76221SOL    HW130495  14.557   8.897  11.036
76221SOL    HW230496  14.655   8.935  11.146
76222SOL     OW30497   1.320   8.781  12.451
76222SOL    HW130498   1.384   8.721  12.412
76222SOL    HW230499   1.274   8.819  12.376
76223SOL     OW30500   5.310  14.646   3.303
76223SOL    HW130501   5.385  14.703   3.288
76223SOL    HW230502   5.238  14.690   3.257
76224SOL     OW30503   7.712  11.408  10.491
76224SOL    HW130504   7.735  11.447  10.575
76224SOL    HW230505   7.731  11.314  10.501
76225SOL     OW30506   9.136  12.623   1.099
76225SOL    HW130507   9.219  12.664   1.126
76225SOL    HW230508   9.162  12.551   1.043
76226SOL     OW30509  11.075   5.083  10.081
76226SOL    HW130510  11.058   5.133  10.001
76226SOL    HW230511  11.144   5.021  10.057
76227SOL     OW30512   6.116   8.067   3.518
76227SOL    HW130513   6.184   8.007   3.487
76227SOL    HW230514   6.159   8.119   3.586
76228SOL     OW30515   2.414  13.890  11.734
76228SOL    HW130516   2.434  13.800  11.708
76228SOL    HW230517   2.497  13.924  11.768
76229SOL     OW30518  10.835   2.957   6.028
76229SOL    HW130519  10.752   3.002   6.014
76229SOL    HW230520  10.859   2.924   5.942
76230SOL     OW30521   0.227   9.004   0.939
76230SOL    HW130522   0.167   8.942   0.896
76230SOL    HW230523   0.255   9.063   0.869
76231SOL     OW30524  14.393   7.707   9.777
76231SOL    HW130525  14.423   7.659   9.855
76231SOL    HW230526  14.362   7.791   9.811
76232SOL     OW30527  10.145   6.713  11.680
76232SOL    HW130528  10.102   6.799  11.681
76232SOL    HW230529  10.082   6.655  11.723
76233SOL     OW30530  12.591   8.078  14.787
76233SOL    HW130531  12.522   8.074  14.720
76233SOL    HW230532  12.584   8.167  14.823
76234SOL     OW30533   2.117   4.542   5.414
76234SOL    HW130534   2.148   4.597   5.486
76234SOL    HW230535   2.025   4.566   5.403
76235SOL     OW30536  10.933  12.181   1.176
76235SOL    HW130537  10.885  12.109   1.135
76235SOL    HW230538  11.022  12.147   1.186
76236SOL     OW30539   8.865   4.807  11.546
76236SOL    HW130540   8.871   4.901  11.562
76236SOL    HW230541   8.775   4.785  11.568
76237SOL     OW30542   8.529   5.970  13.132
76237SOL    HW130543   8.600   5.999  13.075
76237SOL    HW230544   8.452   6.016  13.099
76238SOL     OW30545  11.769  10.429   8.237
76238SOL    HW130546  11.818  10.414   8.156
76238SOL    HW230547  11.825  10.488   8.288
76239SOL     OW30548   1.869  11.305   9.760
76239SOL    HW130549   1.946  11.256   9.733
76239SOL    HW230550   1.797  11.266   9.710
76240SOL     OW30551   9.912  10.718   0.900
76240SOL    HW130552   9.880  10.771   0.827
76240SOL    HW230553   9.988  10.672   0.865
76241SOL     OW30554   4.203   4.838  13.554
76241SOL    HW130555   4.207   4.781  13.631
76241SOL    HW230556   4.219   4.926  13.588
76242SOL     OW30557   2.951   1.248   6.819
76242SOL    HW130558   2.988   1.258   6.906
76242SOL    HW230559   2.983   1.324   6.770
76243SOL     OW30560  12.228  12.896   0.618
76243SOL    HW130561  12.224  12.895   0.522
76243SOL    HW230562  12.230  12.804   0.643
76244SOL     OW30563  12.613   0.908   2.248
76244SOL    HW130564  12.675   0.840   2.273
76244SOL    HW230565  12.528   0.863   2.242
76245SOL     OW30566   4.805   1.449  11.493
76245SOL    HW130567   4.765   1.529  11.526
76245SOL    HW230568   4.738   1.409  11.438
76246SOL     OW30569  10.648  12.830   3.902
76246SOL    HW130570  10.645  12.773   3.825
76246SOL    HW230571  10.692  12.778   3.969
76247SOL     OW30572   3.047  12.864  11.776
76247SOL    HW130573   2.991  12.919  11.831
76247SOL    HW230574   3.049  12.908  11.691
76248SOL     OW30575  14.603   8.835   3.498
76248SOL    HW130576  14.646   8.756   3.529
76248SOL    HW230577  14.672   8.901   3.497
76249SOL     OW30578   8.663   2.675   9.447
76249SOL    HW130579   8.739   2.617   9.456
76249SOL    HW230580   8.689   2.737   9.378
76250SOL     OW30581   0.319   7.659   1.042
76250SOL    HW130582   0.223   7.660   1.044
76250SOL    HW230583   0.345   7.615   1.123
76251SOL     OW30584   8.421  11.681   4.507
76251SOL    HW130585   8.332  11.660   4.480
76251SOL    HW230586   8.450  11.746   4.442
76252SOL     OW30587   8.171  10.704  12.212
76252SOL    HW130588   8.221  10.747  12.283
76252SOL    HW230589   8.089  10.678  12.253
76253SOL     OW30590   1.077  14.774   2.611
76253SOL    HW130591   1.149  14.837   2.606
76253SOL    HW230592   1.116  14.692   2.581
76254SOL     OW30593   0.352  11.197  13.522
76254SOL    HW130594   0.373  11.287  13.544
76254SOL    HW230595   0.296  11.203  13.445
76255SOL     OW30596   3.042   9.310  13.341
76255SOL    HW130597   3.079   9.379  13.285
76255SOL    HW230598   3.050   9.344  13.430
76256SOL     OW30599   5.936  11.071  11.233
76256SOL    HW130600   5.955  11.023  11.314
76256SOL    HW230601   5.917  11.003  11.169
76257SOL     OW30602   8.392   7.957   3.357
76257SOL    HW130603   8.353   7.924   3.438
76257SOL    HW230604   8.482   7.926   3.359
76258SOL     OW30605  13.592  11.469   8.486
76258SOL    HW130606  13.512  11.506   8.448
76258SOL    HW230607  13.564  11.432   8.570
76259SOL     OW30608   0.161   1.144   3.313
76259SOL    HW130609   0.209   1.155   3.230
76259SOL    HW230610   0.209   1.076   3.359
76260SOL     OW30611  10.086  14.498   6.159
76260SOL    HW130612  10.103  14.412   6.121
76260SOL    HW230613  10.149  14.556   6.115
76261SOL     OW30614   1.826  13.581   7.684
76261SOL    HW130615   1.786  13.664   7.711
76261SOL    HW230616   1.751  13.523   7.668
76262SOL     OW30617   5.648  10.410   5.449
76262SOL    HW130618   5.650  10.439   5.540
76262SOL    HW230619   5.740  10.399   5.425
76263SOL     OW30620   5.923  14.070  11.903
76263SOL    HW130621   5.936  14.092  11.995
76263SOL    HW230622   5.988  14.002  11.884
76264SOL     OW30623  13.102   8.201  10.962
76264SOL    HW130624  13.032   8.218  10.900
76264SOL    HW230625  13.180   8.241  10.923
76265SOL     OW30626  10.806   1.781   4.466
76265SOL    HW130627  10.713   1.759   4.472
76265SOL    HW230628  10.826   1.822   4.551
76266SOL     OW30629   7.323   5.989  11.913
76266SOL    HW130630   7.366   6.074  11.910
76266SOL    HW230631   7.364   5.943  11.986
76267SOL     OW30632   0.178  13.626  11.625
76267SOL    HW130633   0.221  13.702  11.587
76267SOL    HW230634   0.248  13.561  11.633
76268SOL     OW30635   5.316  13.660  11.882
76268SOL    HW130636   5.350  13.595  11.944
76268SOL    HW230637   5.250  13.613  11.832
76269SOL     OW30638   5.780  12.680   7.077
76269SOL    HW130639   5.866  12.657   7.044
76269SOL    HW230640   5.768  12.772   7.051
76270SOL     OW30641   2.570   3.631  13.763
76270SOL    HW130642   2.591   3.725  13.768
76270SOL    HW230643   2.632   3.596  13.699
76271SOL     OW30644  12.660  11.615  12.978
76271SOL    HW130645  12.696  11.703  12.972
76271SOL    HW230646  12.717  11.569  13.040
76272SOL     OW30647   5.337   9.815   8.273
76272SOL    HW130648   5.247   9.787   8.254
76272SOL    HW230649   5.326   9.894   8.327
76273SOL     OW30650   5.607   5.995  12.753
76273SOL    HW130651   5.570   5.933  12.690
76273SOL    HW230652   5.682   5.950  12.791
76274SOL     OW30653  11.788   9.346   9.074
76274SOL    HW130654  11.722   9.276   9.075
76274SOL    HW230655  11.738   9.427   9.073
76275SOL     OW30656   2.684   2.112   2.025
76275SOL    HW130657   2.766   2.161   2.018
76275SOL    HW230658   2.704   2.026   1.988
76276SOL     OW30659   0.817   3.367  14.551
76276SOL    HW130660   0.743   3.306  14.545
76276SOL    HW230661   0.856   3.365  14.464
76277SOL     OW30662   0.669  12.648   1.012
76277SOL    HW130663   0.632  12.636   1.099
76277SOL    HW230664   0.598  12.626   0.952
76278SOL     OW30665   8.247   1.524   4.246
76278SOL    HW130666   8.332   1.515   4.289
76278SOL    HW230667   8.204   1.596   4.294
76279SOL     OW30668   3.110   7.638   8.550
76279SOL    HW130669   3.160   7.627   8.469
76279SOL    HW230670   3.019   7.620   8.524
76280SOL     OW30671   8.535   7.068   4.121
76280SOL    HW130672   8.513   7.089   4.212
76280SOL    HW230673   8.631   7.063   4.121
76281SOL     OW30674   4.762   3.849   3.043
76281SOL    HW130675   4.808   3.920   2.999
76281SOL    HW230676   4.672   3.856   3.012
76282SOL     OW30677   6.185   2.556   7.385
76282SOL    HW130678   6.176   2.585   7.476
76282SOL    HW230679   6.156   2.465   7.386
76283SOL     OW30680   1.214   1.179   0.068
76283SOL    HW130681   1.154   1.242   0.029
76283SOL    HW230682   1.173   1.156   0.152
76284SOL     OW30683  14.808  11.073   6.078
76284SOL    HW130684  14.814  11.019   5.999
76284SOL    HW230685  14.718  11.063   6.107
76285SOL     OW30686   0.469  13.914   9.793
76285SOL    HW130687   0.493  13.921   9.885
76285SOL    HW230688   0.386  13.866   9.793
76286SOL     OW30689   7.130   0.308  12.172
76286SOL    HW130690   7.078   0.231  12.149
76286SOL    HW230691   7.072   0.359  12.228
76287SOL     OW30692   0.902   8.626   8.227
76287SOL    HW130693   0.824   8.584   8.264
76287SOL    HW230694   0.972   8.606   8.288
76288SOL     OW30695   9.540   6.973   1.046
76288SOL    HW130696   9.570   6.942   1.131
76288SOL    HW230697   9.455   7.014   1.064
76289SOL     OW30698   6.746  10.579   4.304
76289SOL    HW130699   6.832  10.619   4.316
76289SOL    HW230700   6.686  10.653   4.295
76290SOL     OW30701   5.484  10.730  12.074
76290SOL    HW130702   5.528  10.649  12.050
76290SOL    HW230703   5.476  10.726  12.169
76291SOL     OW30704   3.152  14.174   4.022
76291SOL    HW130705   3.134  14.084   3.993
76291SOL    HW230706   3.067  14.217   4.021
76292SOL     OW30707  14.209   1.574   5.720
76292SOL    HW130708  14.273   1.566   5.790
76292SOL    HW230709  14.260   1.564   5.639
76293SOL     OW30710   4.669   2.193   2.937
76293SOL    HW130711   4.697   2.276   2.899
76293SOL    HW230712   4.668   2.131   2.864
76294SOL     OW30713  11.203  11.652   4.584
76294SOL    HW130714  11.262  11.579   4.605
76294SOL    HW230715  11.155  11.668   4.665
76295SOL     OW30716  13.826   4.565  14.257
76295SOL    HW130717  13.776   4.623  14.314
76295SOL    HW230718  13.876   4.510  14.318
76296SOL     OW30719   1.104   2.134   8.732
76296SOL    HW130720   1.090   2.103   8.822
76296SOL    HW230721   1.019   2.120   8.689
76297SOL     OW30722  10.444  10.040  13.513
76297SOL    HW130723  10.429  10.035  13.418
76297SOL    HW230724  10.502   9.966  13.532
76298SOL     OW30725  14.806   6.032   1.515
76298SOL    HW130726  14.740   5.964   1.522
76298SOL    HW230727  14.872   6.009   1.580
76299SOL     OW30728   4.233   9.837   8.438
76299SOL    HW130729   4.191   9.851   8.523
76299SOL    HW230730   4.192   9.758   8.403
76300SOL     OW30731  12.279  11.748  13.382
76300SOL    HW130732  12.254  11.814  13.446
76300SOL    HW230733  12.374  11.741  13.390
76301SOL     OW30734   1.198   5.652   9.462
76301SOL    HW130735   1.202   5.723   9.397
76301SOL    HW230736   1.234   5.576   9.416
76302SOL     OW30737   1.024   3.980   0.860
76302SOL    HW130738   1.112   4.018   0.863
76302SOL    HW230739   1.028   3.914   0.791
76303SOL     OW30740   7.865  14.189   8.275
76303SOL    HW130741   7.834  14.253   8.340
76303SOL    HW230742   7.787  14.168   8.223
76304SOL     OW30743   0.310   1.498   1.038
76304SOL    HW130744   0.320   1.512   0.943
76304SOL    HW230745   0.387   1.541   1.076
76305SOL     OW30746   9.600   2.202  14.390
76305SOL    HW130747   9.583   2.217  14.297
76305SOL    HW230748   9.516   2.219  14.433
76306SOL     OW30749  11.100   4.199  13.890
76306SOL    HW130750  11.010   4.184  13.919
76306SOL    HW230751  11.142   4.245  13.962
76307SOL     OW30752   4.813   2.372   8.027
76307SOL    HW130753   4.869   2.406   7.957
76307SOL    HW230754   4.733   2.345   7.982
76308SOL     OW30755  14.136  12.012   6.585
76308SOL    HW130756  14.202  11.999   6.517
76308SOL    HW230757  14.111  12.104   6.576
76309SOL     OW30758   7.152  14.844   4.906
76309SOL    HW130759   7.127  14.765   4.955
76309SOL    HW230760   7.212  14.813   4.838
76310SOL     OW30761   9.247   7.195  11.496
76310SOL    HW130762   9.236   7.242  11.579
76310SOL    HW230763   9.160   7.160  11.477
76311SOL     OW30764   5.191   4.454   7.202
76311SOL    HW130765   5.232   4.402   7.133
76311SOL    HW230766   5.140   4.520   7.155
76312SOL     OW30767   8.819   8.886   4.401
76312SOL    HW130768   8.830   8.807   4.453
76312SOL    HW230769   8.729   8.915   4.419
76313SOL     OW30770   7.602   9.597   2.625
76313SOL    HW130771   7.531   9.603   2.689
76313SOL    HW230772   7.601   9.506   2.595
76314SOL     OW30773  12.099  12.139   7.455
76314SOL    HW130774  12.133  12.131   7.544
76314SOL    HW230775  12.004  12.146   7.466
76315SOL     OW30776  11.064   4.894   8.805
76315SOL    HW130777  11.112   4.814   8.827
76315SOL    HW230778  10.991   4.863   8.751
76316SOL     OW30779   0.264   0.901  11.605
76316SOL    HW130780   0.350   0.937  11.583
76316SOL    HW230781   0.282   0.825  11.659
76317SOL     OW30782  14.151  10.328   0.437
76317SOL    HW130783  14.199  10.310   0.518
76317SOL    HW230784  14.216  10.370   0.380
76318SOL     OW30785   0.331  10.758   0.402
76318SOL    HW130786   0.413  10.740   0.449
76318SOL    HW230787   0.350  10.738   0.311
76319SOL     OW30788   9.863   5.303  13.160
76319SOL    HW130789   9.915   5.236  13.203
76319SOL    HW230790   9.778   5.299  13.204
76320SOL     OW30791   5.347  12.403   7.764
76320SOL    HW130792   5.407  12.477   7.757
76320SOL    HW230793   5.363  12.366   7.851
76321SOL     OW30794   5.352   3.265  10.690
76321SOL    HW130795   5.298   3.225  10.622
76321SOL    HW230796   5.413   3.321  10.642
76322SOL     OW30797   7.523   6.157  12.271
76322SOL    HW130798   7.523   6.091  12.341
76322SOL    HW230799   7.537   6.106  12.191
76323SOL     OW30800   3.026  14.441   7.414
76323SOL    HW130801   3.115  14.453   7.449
76323SOL    HW230802   2.978  14.399   7.485
76324SOL     OW30803   2.105   5.816   1.844
76324SOL    HW130804   2.029   5.817   1.902
76324SOL    HW230805   2.177   5.848   1.899
76325SOL     OW30806   6.009   4.221   7.285
76325SOL    HW130807   5.990   4.213   7.191
76325SOL    HW230808   5.946   4.286   7.317
76326SOL     OW30809  14.243  12.520  11.941
76326SOL    HW130810  14.254  12.510  12.035
76326SOL    HW230811  14.162  12.474  11.921
76327SOL     OW30812   7.290   1.205  10.003
76327SOL    HW130813   7.330   1.130  10.047
76327SOL    HW230814   7.362   1.267   9.992
76328SOL     OW30815   7.126  10.878   8.130
76328SOL    HW130816   7.177  10.797   8.122
76328SOL    HW230817   7.138  10.923   8.046
76329SOL     OW30818  10.865  10.478  11.812
76329SOL    HW130819  10.882  10.549  11.874
76329SOL    HW230820  10.846  10.402  11.867
76330SOL     OW30821   2.831  10.862  11.245
76330SOL    HW130822   2.743  10.839  11.275
76330SOL    HW230823   2.862  10.926  11.309
76331SOL     OW30824  12.897   4.734  11.599
76331SOL    HW130825  12.931   4.653  11.561
76331SOL    HW230826  12.968   4.766  11.655
76332SOL     OW30827   7.863   7.358   0.561
76332SOL    HW130828   7.876   7.394   0.473
76332SOL    HW230829   7.820   7.274   0.547
76333SOL     OW30830  13.131  14.801   9.576
76333SOL    HW130831  13.046  14.844   9.584
76333SOL    HW230832  13.142  14.755   9.659
76334SOL     OW30833   5.250   3.069  12.314
76334SOL    HW130834   5.234   3.121  12.393
76334SOL    HW230835   5.170   3.018  12.302
76335SOL     OW30836  12.353   4.594   6.312
76335SOL    HW130837  12.335   4.503   6.289
76335SOL    HW230838  12.268   4.637   6.310
76336SOL     OW30839   1.939  12.911   7.005
76336SOL    HW130840   1.928  12.983   6.944
76336SOL    HW230841   2.023  12.929   7.048
76337SOL     OW30842   7.498   0.019   2.313
76337SOL    HW130843   7.406   0.046   2.305
76337SOL    HW230844   7.512  14.841   2.240
76338SOL     OW30845  13.516   9.762  10.597
76338SOL    HW130846  13.467   9.820  10.655
76338SOL    HW230847  13.454   9.738  10.529
76339SOL     OW30848  14.603  13.074   1.286
76339SOL    HW130849  14.526  13.041   1.241
76339SOL    HW230850  14.572  13.100   1.373
76340SOL     OW30851   9.292  10.470   6.690
76340SOL    HW130852   9.214  10.438   6.735
76340SOL    HW230853   9.342  10.515   6.758
76341SOL     OW30854   9.399   5.416   1.279
76341SOL    HW130855   9.307   5.415   1.253
76341SOL    HW230856   9.399   5.383   1.369
76342SOL     OW30857  12.900   8.857   8.974
76342SOL    HW130858  12.982   8.906   8.971
76342SOL    HW230859  12.834   8.922   8.997
76343SOL     OW30860   5.138  12.348   2.303
76343SOL    HW130861   5.112  12.258   2.280
76343SOL    HW230862   5.138  12.349   2.399
76344SOL     OW30863   0.899   5.586  13.297
76344SOL    HW130864   0.880   5.661  13.354
76344SOL    HW230865   0.821   5.532  13.301
76345SOL     OW30866   8.839   2.619   9.840
76345SOL    HW130867   8.760   2.670   9.820
76345SOL    HW230868   8.879   2.666   9.913
76346SOL     OW30869   3.801   1.045   8.544
76346SOL    HW130870   3.708   1.058   8.522
76346SOL    HW230871   3.805   0.956   8.578
76347SOL     OW30872  11.396   3.739   2.614
76347SOL    HW130873  11.475   3.793   2.615
76347SOL    HW230874  11.377   3.724   2.707
76348SOL     OW30875   1.606   3.489   3.885
76348SOL    HW130876   1.612   3.451   3.973
76348SOL    HW230877   1.537   3.438   3.842
76349SOL     OW30878   1.494  11.020  14.506
76349SOL    HW130879   1.556  10.953  14.535
76349SOL    HW230880   1.427  10.971  14.458
76350SOL     OW30881  14.635  10.676   0.331
76350SOL    HW130882  14.573  10.698   0.400
76350SOL    HW230883  14.640  10.580   0.333
76351SOL     OW30884  10.029   5.899   6.582
76351SOL    HW130885  10.043   5.912   6.488
76351SOL    HW230886  10.078   5.970   6.623
76352SOL     OW30887   1.760   7.065   1.640
76352SOL    HW130888   1.719   7.150   1.650
76352SOL    HW230889   1.829   7.063   1.706
76353SOL     OW30890   0.811   2.047   7.394
76353SOL    HW130891   0.735   2.101   7.418
76353SOL    HW230892   0.828   2.069   7.303
76354SOL     OW30893  13.158   0.263   0.868
76354SOL    HW130894  13.213   0.209   0.811
76354SOL    HW230895  13.125   0.332   0.811
76355SOL     OW30896   0.400   5.901  10.982
76355SOL    HW130897   0.467   5.838  10.958
76355SOL    HW230898   0.359   5.865  11.060
76356SOL     OW30899  12.529   5.337   2.218
76356SOL    HW130900  12.613   5.368   2.183
76356SOL    HW230901  12.463   5.390   2.173
76357SOL     OW30902   2.283  12.010  13.794
76357SOL    HW130903   2.363  12.055  13.822
76357SOL    HW230904   2.302  11.917  13.807
76358SOL     OW30905  10.843   6.794  14.623
76358SOL    HW130906  10.775   6.815  14.687
76358SOL    HW230907  10.821   6.706  14.593
76359SOL     OW30908   7.745   3.433  10.534
76359SOL    HW130909   7.832   3.468  10.514
76359SOL    HW230910   7.718   3.388  10.454
76360SOL     OW30911  11.702  12.179  10.134
76360SOL    HW130912  11.743  12.210  10.053
76360SOL    HW230913  11.611  12.208  10.127
76361SOL     OW30914   0.071  10.811  11.321
76361SOL    HW130915   0.099  10.780  11.235
76361SOL    HW230916   0.032  10.734  11.363
76362SOL     OW30917  14.107   2.925  10.772
76362SOL    HW130918  14.076   2.989  10.837
76362SOL    HW230919  14.034   2.916  10.711
76363SOL     OW30920  13.927   6.069   8.148
76363SOL    HW130921  13.984   6.120   8.090
76363SOL    HW230922  13.843   6.116   8.146
76364SOL     OW30923  11.972   9.203  13.580
76364SOL    HW130924  11.979   9.143  13.655
76364SOL    HW230925  11.953   9.146  13.506
76365SOL     OW30926   4.407   9.653   4.801
76365SOL    HW130927   4.336   9.712   4.776
76365SOL    HW230928   4.474   9.710   4.839
76366SOL     OW30929   9.543   6.531   8.977
76366SOL    HW130930   9.513   6.475   9.048
76366SOL    HW230931   9.638   6.520   8.975
76367SOL     OW30932  13.284   5.734   7.200
76367SOL    HW130933  13.292   5.808   7.260
76367SOL    HW230934  13.225   5.673   7.244
76368SOL     OW30935  13.848  13.649   5.435
76368SOL    HW130936  13.835  13.701   5.355
76368SOL    HW230937  13.885  13.566   5.404
76369SOL     OW30938   4.285  13.355  12.737
76369SOL    HW130939   4.250  13.351  12.648
76369SOL    HW230940   4.211  13.383  12.791
76370SOL     OW30941   4.434   2.130   1.340
76370SOL    HW130942   4.507   2.087   1.384
76370SOL    HW230943   4.362   2.067   1.348
76371SOL     OW30944  10.596  14.389   9.940
76371SOL    HW130945  10.672  14.391   9.997
76371SOL    HW230946  10.632  14.389   9.852
76372SOL     OW30947   9.889   3.556   0.659
76372SOL    HW130948   9.936   3.637   0.681
76372SOL    HW230949   9.817   3.552   0.721
76373SOL     OW30950  12.965   8.846   9.768
76373SOL    HW130951  12.962   8.757   9.803
76373SOL    HW230952  13.012   8.896   9.835
76374SOL     OW30953   0.256  14.294   9.196
76374SOL    HW130954   0.313  14.354   9.245
76374SOL    HW230955   0.171  14.338   9.195
76375SOL     OW30956   0.213   7.996   9.097
76375SOL    HW130957   0.124   7.966   9.076
76375SOL    HW230958   0.218   7.989   9.192
76376SOL     OW30959   7.276   9.234  13.968
76376SOL    HW130960   7.278   9.314  13.916
76376SOL    HW230961   7.316   9.168  13.912
76377SOL     OW30962  13.528  10.618  11.805
76377SOL    HW130963  13.446  10.595  11.850
76377SOL    HW230964  13.557  10.698  11.848
76378SOL     OW30965  10.862  11.203   0.067
76378SOL    HW130966  10.825  11.177  14.865
76378SOL    HW230967  10.788  11.237   0.117
76379SOL     OW30968   3.478  12.484   1.614
76379SOL    HW130969   3.489  12.456   1.705
76379SOL    HW230970   3.427  12.413   1.574
76380SOL     OW30971   1.562   8.868   6.490
76380SOL    HW130972   1.590   8.910   6.409
76380SOL    HW230973   1.634   8.882   6.551
76381SOL     OW30974   8.322   1.689   0.540
76381SOL    HW130975   8.326   1.769   0.487
76381SOL    HW230976   8.335   1.720   0.630
76382SOL     OW30977   1.163  12.251  12.513
76382SOL    HW130978   1.203  12.164  12.516
76382SOL    HW230979   1.100  12.246  12.441
76383SOL     OW30980  14.026   5.713   7.680
76383SOL    HW130981  14.080   5.721   7.601
76383SOL    HW230982  14.010   5.803   7.707
76384SOL     OW30983   0.686   4.323  10.188
76384SOL    HW130984   0.598   4.351  10.164
76384SOL    HW230985   0.683   4.311  10.283
76385SOL     OW30986   8.771  12.439   6.732
76385SOL    HW130987   8.818  12.523   6.726
76385SOL    HW230988   8.784  12.398   6.647
76386SOL     OW30989  12.849   0.175   9.875
76386SOL    HW130990  12.856   0.163   9.970
76386SOL    HW230991  12.756   0.195   9.861
76387SOL     OW30992   8.655   6.911   0.188
76387SOL    HW130993   8.604   6.982   0.149
76387SOL    HW230994   8.745   6.941   0.188
76388SOL     OW30995   9.532  14.248  13.937
76388SOL    HW130996   9.526  14.298  13.855
76388SOL    HW230997   9.626  14.242  13.954
76389SOL     OW30998  11.696   4.534   9.777
76389SOL    HW130999  11.764   4.577   9.726
76389SOL    HW231000  11.620   4.531   9.718
76390SOL     OW31001  14.317   0.393   7.552
76390SOL    HW131002  14.284   0.479   7.526
76390SOL    HW231003  14.412   0.404   7.556
76391SOL     OW31004  14.737   0.845   8.980
76391SOL    HW131005  14.725   0.760   9.023
76391SOL    HW231006  14.696   0.835   8.894
76392SOL     OW31007   1.997  12.072  13.189
76392SOL    HW131008   1.910  12.102  13.163
76392SOL    HW231009   1.982  12.028  13.273
76393SOL     OW31010  14.532  11.072   6.121
76393SOL    HW131011  14.491  11.093   6.037
76393SOL    HW231012  14.497  11.137   6.181
76394SOL     OW31013  11.375   3.720   5.444
76394SOL    HW131014  11.446   3.708   5.508
76394SOL    HW231015  11.390   3.651   5.380
76395SOL     OW31016   9.401   1.575   2.166
76395SOL    HW131017   9.396   1.571   2.261
76395SOL    HW231018   9.347   1.502   2.136
76396SOL     OW31019   4.845  12.493   0.100
76396SOL    HW131020   4.774  12.446   0.144
76396SOL    HW231021   4.895  12.424   0.055
76397SOL     OW31022  10.619   2.172   3.853
76397SOL    HW131023  10.655   2.100   3.802
76397SOL    HW231024  10.598   2.239   3.787
76398SOL     OW31025  10.027   4.478  10.625
76398SOL    HW131026   9.960   4.439  10.681
76398SOL    HW231027   9.981   4.498  10.543
76399SOL     OW31028   1.413  11.914   5.534
76399SOL    HW131029   1.449  12.002   5.523
76399SOL    HW231030   1.428  11.893   5.626
76400SOL     OW31031   0.655   7.626  11.212
76400SOL    HW131032   0.632   7.580  11.132
76400SOL    HW231033   0.645   7.561  11.282
76401SOL     OW31034   7.462   1.290   4.317
76401SOL    HW131035   7.464   1.359   4.250
76401SOL    HW231036   7.553   1.262   4.325
76402SOL     OW31037  13.364   8.219   6.257
76402SOL    HW131038  13.324   8.304   6.236
76402SOL    HW231039  13.310   8.183   6.327
76403SOL     OW31040   2.167  12.087   4.878
76403SOL    HW131041   2.234  12.083   4.809
76403SOL    HW231042   2.085  12.101   4.831
76404SOL     OW31043   1.745   5.491   8.745
76404SOL    HW131044   1.767   5.404   8.781
76404SOL    HW231045   1.687   5.529   8.811
76405SOL     OW31046   2.679   8.427   9.724
76405SOL    HW131047   2.754   8.483   9.702
76405SOL    HW231048   2.718   8.343   9.745
76406SOL     OW31049  10.883  11.183  11.288
76406SOL    HW131050  10.867  11.217  11.200
76406SOL    HW231051  10.847  11.095  11.286
76407SOL     OW31052   7.112  11.924   2.317
76407SOL    HW131053   7.161  11.921   2.399
76407SOL    HW231054   7.141  12.004   2.274
76408SOL     OW31055   2.287   0.988   5.008
76408SOL    HW131056   2.372   1.019   5.041
76408SOL    HW231057   2.254   0.931   5.077
76409SOL     OW31058   6.918  10.214   6.785
76409SOL    HW131059   6.950  10.201   6.874
76409SOL    HW231060   6.992  10.189   6.729
76410SOL     OW31061   4.016  10.364   4.988
76410SOL    HW131062   4.037  10.445   4.942
76410SOL    HW231063   4.046  10.378   5.078
76411SOL     OW31064   8.908  14.243   3.179
76411SOL    HW131065   8.871  14.330   3.165
76411SOL    HW231066   8.887  14.222   3.270
76412SOL     OW31067   8.137  13.039   2.320
76412SOL    HW131068   8.117  13.000   2.235
76412SOL    HW231069   8.123  12.968   2.383
76413SOL     OW31070   4.965  10.837   9.234
76413SOL    HW131071   4.880  10.821   9.275
76413SOL    HW231072   5.021  10.768   9.268
76414SOL     OW31073   0.996  13.880   3.643
76414SOL    HW131074   0.905  13.862   3.621
76414SOL    HW231075   1.047  13.828   3.581
76415SOL     OW31076  11.197   0.691  13.442
76415SOL    HW131077  11.266   0.716  13.381
76415SOL    HW231078  11.150   0.772  13.460
76416SOL     OW31079  10.442   9.569   7.665
76416SOL    HW131080  10.475   9.579   7.576
76416SOL    HW231081  10.497   9.501   7.704
76417SOL     OW31082  12.149  14.307  10.137
76417SOL    HW131083  12.140  14.266  10.223
76417SOL    HW231084  12.112  14.395  10.149
76418SOL     OW31085   6.427   2.813   8.548
76418SOL    HW131086   6.434   2.828   8.453
76418SOL    HW231087   6.474   2.887   8.587
76419SOL     OW31088  10.713   6.024  14.241
76419SOL    HW131089  10.754   5.953  14.290
76419SOL    HW231090  10.647   5.981  14.186
76420SOL     OW31091   3.689   2.640  13.075
76420SOL    HW131092   3.668   2.711  13.136
76420SOL    HW231093   3.614   2.637  13.015
76421SOL     OW31094  14.338   4.548   3.165
76421SOL    HW131095  14.247   4.518   3.156
76421SOL    HW231096  14.344   4.625   3.109
76422SOL     OW31097   4.728   5.034  11.582
76422SOL    HW131098   4.658   4.981  11.544
76422SOL    HW231099   4.746   5.100  11.516
76423SOL     OW31100  12.875   7.210   4.443
76423SOL    HW131101  12.840   7.210   4.532
76423SOL    HW231102  12.963   7.175   4.452
76424SOL     OW31103  12.980  14.544  10.922
76424SOL    HW131104  12.948  14.490  10.994
76424SOL    HW231105  13.054  14.593  10.960
76425SOL     OW31106  12.709   0.877  11.064
76425SOL    HW131107  12.700   0.799  11.010
76425SOL    HW231108  12.642   0.937  11.031
76426SOL     OW31109   7.130   7.042   3.315
76426SOL    HW131110   7.154   6.952   3.337
76426SOL    HW231111   7.195   7.069   3.249
76427SOL     OW31112   4.139  13.860   6.751
76427SOL    HW131113   4.091  13.893   6.675
76427SOL    HW231114   4.072  13.820   6.807
76428SOL     OW31115  12.793  10.528   2.777
76428SOL    HW131116  12.797  10.459   2.844
76428SOL    HW231117  12.707  10.518   2.738
76429SOL     OW31118   6.159   5.781  11.620
76429SOL    HW131119   6.083   5.729  11.648
76429SOL    HW231120   6.221   5.718  11.585
76430SOL     OW31121   0.498   3.130   4.638
76430SOL    HW131122   0.468   3.197   4.699
76430SOL    HW231123   0.439   3.056   4.651
76431SOL     OW31124   7.544   1.350  13.701
76431SOL    HW131125   7.609   1.400  13.751
76431SOL    HW231126   7.561   1.259  13.724
76432SOL     OW31127  14.279  14.284   1.468
76432SOL    HW131128  14.191  14.249   1.485
76432SOL    HW231129  14.332  14.207   1.449
76433SOL     OW31130  13.026   3.403  10.277
76433SOL    HW131131  13.056   3.312  10.282
76433SOL    HW231132  12.936   3.399  10.310
76434SOL     OW31133   7.025   4.559   8.030
76434SOL    HW131134   6.955   4.616   7.998
76434SOL    HW231135   7.100   4.617   8.040
76435SOL     OW31136   8.855   8.924  13.656
76435SOL    HW131137   8.828   8.883  13.738
76435SOL    HW231138   8.784   8.984  13.633
76436SOL     OW31139   0.308  14.584  14.465
76436SOL    HW131140   0.348  14.508  14.425
76436SOL    HW231141   0.233  14.549  14.514
76437SOL     OW31142  10.694   1.832  10.850
76437SOL    HW131143  10.602   1.834  10.824
76437SOL    HW231144  10.737   1.896  10.794
76438SOL     OW31145   7.728   6.915   8.444
76438SOL    HW131146   7.704   6.890   8.355
76438SOL    HW231147   7.656   6.971   8.474
76439SOL     OW31148   2.717   5.199  10.264
76439SOL    HW131149   2.723   5.108  10.294
76439SOL    HW231150   2.693   5.248  10.342
76440SOL     OW31151   6.829  11.482  10.110
76440SOL    HW131152   6.781  11.455  10.188
76440SOL    HW231153   6.864  11.401  10.074
76441SOL     OW31154   5.399  13.809  14.154
76441SOL    HW131155   5.381  13.730  14.205
76441SOL    HW231156   5.400  13.880  14.219
76442SOL     OW31157   7.169  14.057   1.066
76442SOL    HW131158   7.197  13.965   1.062
76442SOL    HW231159   7.125  14.065   1.151
76443SOL     OW31160   1.190   9.161   6.549
76443SOL    HW131161   1.153   9.236   6.502
76443SOL    HW231162   1.174   9.180   6.641
76444SOL     OW31163  14.298   9.551   4.306
76444SOL    HW131164  14.298   9.589   4.394
76444SOL    HW231165  14.346   9.469   4.315
76445SOL     OW31166   6.100  11.762  14.874
76445SOL    HW131167   6.056  11.821  14.813
76445SOL    HW231168   6.030  11.707   0.027
76446SOL     OW31169   8.076   4.089  12.693
76446SOL    HW131170   8.165   4.058  12.708
76446SOL    HW231171   8.025   4.010  12.675
76447SOL     OW31172   5.442  10.251   3.408
76447SOL    HW131173   5.534  10.274   3.418
76447SOL    HW231174   5.404  10.325   3.360
76448SOL     OW31175  11.357   1.488  12.111
76448SOL    HW131176  11.366   1.407  12.160
76448SOL    HW231177  11.379   1.557  12.174
76449SOL     OW31178  11.734   1.522   0.653
76449SOL    HW131179  11.686   1.513   0.570
76449SOL    HW231180  11.783   1.440   0.660
76450SOL     OW31181  12.749   6.554  12.256
76450SOL    HW131182  12.730   6.638  12.297
76450SOL    HW231183  12.664   6.518  12.231
76451SOL     OW31184  12.110   6.477   7.250
76451SOL    HW131185  12.176   6.435   7.195
76451SOL    HW231186  12.130   6.571   7.245
76452SOL     OW31187   3.698   9.430   6.394
76452SOL    HW131188   3.788   9.459   6.377
76452SOL    HW231189   3.644   9.505   6.370
76453SOL     OW31190   2.806  11.810   4.892
76453SOL    HW131191   2.856  11.872   4.840
76453SOL    HW231192   2.763  11.753   4.828
76454SOL     OW31193  13.949   6.426  11.295
76454SOL    HW131194  14.017   6.446  11.231
76454SOL    HW231195  13.934   6.332  11.284
76455SOL     OW31196  12.776   7.706   2.830
76455SOL    HW131197  12.755   7.618   2.862
76455SOL    HW231198  12.868   7.719   2.856
76456SOL     OW31199  10.913   1.196   8.521
76456SOL    HW131200  10.970   1.171   8.448
76456SOL    HW231201  10.936   1.286   8.540
76457SOL     OW31202  13.192  11.200   7.514
76457SOL    HW131203  13.262  11.179   7.575
76457SOL    HW231204  13.143  11.271   7.556
76458SOL     OW31205   3.185  14.875   6.197
76458SOL    HW131206   3.227   0.005   6.283
76458SOL    HW231207   3.092  14.864   6.217
76459SOL     OW31208   1.059  13.500   5.031
76459SOL    HW131209   1.079  13.569   5.094
76459SOL    HW231210   0.964  13.494   5.031
76460SOL     OW31211  14.345  11.398   0.648
76460SOL    HW131212  14.258  11.362   0.633
76460SOL    HW231213  14.405  11.325   0.630
76461SOL     OW31214   8.634   5.547  12.781
76461SOL    HW131215   8.620   5.628  12.831
76461SOL    HW231216   8.640   5.576  12.690
76462SOL     OW31217   1.748   9.338   6.760
76462SOL    HW131218   1.745   9.264   6.700
76462SOL    HW231219   1.841   9.352   6.776
76463SOL     OW31220   9.323   0.859   0.076
76463SOL    HW131221   9.389   0.869   0.007
76463SOL    HW231222   9.255   0.804   0.036
76464SOL     OW31223  13.333  11.301  13.379
76464SOL    HW131224  13.313  11.394  13.374
76464SOL    HW231225  13.348  11.275  13.288
76465SOL     OW31226  11.486   2.552  10.394
76465SOL    HW131227  11.477   2.573  10.487
76465SOL    HW231228  11.523   2.631  10.355
76466SOL     OW31229   2.144   6.208  14.773
76466SOL    HW131230   2.238   6.195  14.765
76466SOL    HW231231   2.106   6.151  14.707
76467SOL     OW31232   3.941   9.261  11.698
76467SOL    HW131233   3.850   9.252  11.728
76467SOL    HW231234   3.948   9.354  11.674
76468SOL     OW31235   0.144  10.188  10.372
76468SOL    HW131236   0.233  10.156  10.354
76468SOL    HW231237   0.111  10.215  10.286
76469SOL     OW31238  14.161   4.885  14.863
76469SOL    HW131239  14.115   4.946   0.039
76469SOL    HW231240  14.112   4.887  14.782
76470SOL     OW31241  10.767  14.138   9.817
76470SOL    HW131242  10.799  14.186   9.893
76470SOL    HW231243  10.805  14.185   9.742
76471SOL     OW31244   7.815   9.407   6.831
76471SOL    HW131245   7.843   9.339   6.769
76471SOL    HW231246   7.733   9.440   6.794
76472SOL     OW31247   4.356  11.045   5.899
76472SOL    HW131248   4.356  11.023   5.806
76472SOL    HW231249   4.409  10.976   5.940
76473SOL     OW31250   5.621   1.018   9.784
76473SOL    HW131251   5.530   1.026   9.755
76473SOL    HW231252   5.643   0.927   9.768
76474SOL     OW31253   1.127   1.372   6.636
76474SOL    HW131254   1.077   1.355   6.715
76474SOL    HW231255   1.218   1.372   6.665
76475SOL     OW31256   0.295  11.871  12.376
76475SOL    HW131257   0.373  11.905  12.421
76475SOL    HW231258   0.313  11.885  12.283
76476SOL     OW31259   8.565  10.792   1.001
76476SOL    HW131260   8.615  10.719   0.966
76476SOL    HW231261   8.556  10.772   1.094
76477SOL     OW31262  14.144  13.485  11.187
76477SOL    HW131263  14.134  13.464  11.280
76477SOL    HW231264  14.067  13.536  11.165
76478SOL     OW31265   8.624   9.780   4.394
76478SOL    HW131266   8.558   9.837   4.433
76478SOL    HW231267   8.689   9.768   4.463
76479SOL     OW31268  12.227   6.814   2.576
76479SOL    HW131269  12.255   6.902   2.553
76479SOL    HW231270  12.244   6.807   2.670
76480SOL     OW31271   4.112  14.563  12.288
76480SOL    HW131272   4.090  14.651  12.257
76480SOL    HW231273   4.207  14.558  12.280
76481SOL     OW31274   2.174   3.936   9.915
76481SOL    HW131275   2.246   3.905   9.970
76481SOL    HW231276   2.188   4.030   9.909
76482SOL     OW31277   6.171  11.365  11.779
76482SOL    HW131278   6.155  11.347  11.686
76482SOL    HW231279   6.238  11.301  11.804
76483SOL     OW31280   8.863  10.330   5.155
76483SOL    HW131281   8.892  10.400   5.096
76483SOL    HW231282   8.862  10.370   5.242
76484SOL     OW31283   6.103   3.265   0.020
76484SOL    HW131284   6.108   3.228   0.108
76484SOL    HW231285   6.034   3.331   0.025
76485SOL     OW31286   8.449  11.627   0.852
76485SOL    HW131287   8.386  11.697   0.836
76485SOL    HW231288   8.482  11.604   0.765
76486SOL     OW31289  13.647   5.740   7.658
76486SOL    HW131290  13.693   5.812   7.700
76486SOL    HW231291  13.654   5.758   7.564
76487SOL     OW31292   8.720  13.512   0.341
76487SOL    HW131293   8.693  13.530   0.251
76487SOL    HW231294   8.778  13.585   0.364
76488SOL     OW31295   7.203   3.007   4.499
76488SOL    HW131296   7.278   2.972   4.548
76488SOL    HW231297   7.127   2.965   4.538
76489SOL     OW31298   3.813   8.804   0.180
76489SOL    HW131299   3.777   8.883   0.141
76489SOL    HW231300   3.776   8.802   0.268
76490SOL     OW31301  12.811   2.208   8.304
76490SOL    HW131302  12.858   2.290   8.284
76490SOL    HW231303  12.719   2.234   8.308
76491SOL     OW31304  10.501  13.165   7.063
76491SOL    HW131305  10.564  13.095   7.048
76491SOL    HW231306  10.548  13.245   7.037
76492SOL     OW31307   1.613   2.178  11.908
76492SOL    HW131308   1.556   2.251  11.932
76492SOL    HW231309   1.558   2.122  11.853
76493SOL     OW31310   5.536   1.407   2.553
76493SOL    HW131311   5.476   1.429   2.483
76493SOL    HW231312   5.570   1.491   2.584
76494SOL     OW31313  12.885   3.259   9.345
76494SOL    HW131314  12.936   3.243   9.265
76494SOL    HW231315  12.916   3.343   9.377
76495SOL     OW31316  10.019   5.212   7.058
76495SOL    HW131317  10.063   5.297   7.049
76495SOL    HW231318  10.051   5.178   7.141
76496SOL     OW31319   2.142   1.350   6.929
76496SOL    HW131320   2.185   1.423   6.883
76496SOL    HW231321   2.114   1.388   7.012
76497SOL     OW31322  11.695  11.068   1.371
76497SOL    HW131323  11.605  11.069   1.341
76497SOL    HW231324  11.689  11.085   1.465
76498SOL     OW31325  14.247  10.605   8.554
76498SOL    HW131326  14.257  10.513   8.578
76498SOL    HW231327  14.258  10.606   8.459
76499SOL     OW31328   3.973  12.605   2.018
76499SOL    HW131329   4.007  12.626   1.931
76499SOL    HW231330   4.025  12.659   2.078
76500SOL     OW31331  14.338   5.079   9.717
76500SOL    HW131332  14.378   4.992   9.727
76500SOL    HW231333  14.245   5.062   9.704
76501SOL     OW31334  10.566   9.908   1.874
76501SOL    HW131335  10.560   9.971   1.946
76501SOL    HW231336  10.547   9.823   1.914
76502SOL     OW31337  14.189  12.723   6.046
76502SOL    HW131338  14.236  12.793   6.091
76502SOL    HW231339  14.134  12.684   6.114
76503SOL     OW31340   1.855   2.790   6.360
76503SOL    HW131341   1.797   2.767   6.433
76503SOL    HW231342   1.816   2.868   6.321
76504SOL     OW31343   3.750  10.049  11.148
76504SOL    HW131344   3.845  10.045  11.161
76504SOL    HW231345   3.733   9.986  11.078
76505SOL     OW31346   2.735   2.729   5.071
76505SOL    HW131347   2.730   2.634   5.054
76505SOL    HW231348   2.800   2.737   5.141
76506SOL     OW31349   5.080   2.344   9.682
76506SOL    HW131350   5.056   2.251   9.685
76506SOL    HW231351   5.014   2.384   9.625
76507SOL     OW31352  12.403   9.816   2.253
76507SOL    HW131353  12.371   9.775   2.333
76507SOL    HW231354  12.397   9.748   2.187
76508SOL     OW31355  14.565   8.179  10.261
76508SOL    HW131356  14.478   8.162  10.298
76508SOL    HW231357  14.562   8.271  10.235
76509SOL     OW31358  12.304   8.744   7.683
76509SOL    HW131359  12.293   8.663   7.634
76509SOL    HW231360  12.387   8.780   7.652
76510SOL     OW31361  13.075   4.744  11.159
76510SOL    HW131362  13.158   4.769  11.200
76510SOL    HW231363  13.086   4.767  11.067
76511SOL     OW31364   8.113   9.352   5.309
76511SOL    HW131365   8.037   9.370   5.254
76511SOL    HW231366   8.122   9.257   5.307
76512SOL     OW31367  11.504   2.687  13.105
76512SOL    HW131368  11.517   2.672  13.012
76512SOL    HW231369  11.559   2.763  13.125
76513SOL     OW31370   2.545   1.065   7.746
76513SOL    HW131371   2.565   1.100   7.833
76513SOL    HW231372   2.605   1.111   7.687
76514SOL     OW31373   4.695   7.573  11.221
76514SOL    HW131374   4.736   7.514  11.157
76514SOL    HW231375   4.731   7.547  11.305
76515SOL     OW31376   5.811   3.246  10.902
76515SOL    HW131377   5.889   3.263  10.849
76515SOL    HW231378   5.740   3.291  10.857
76516SOL     OW31379   3.536   9.015  13.347
76516SOL    HW131380   3.598   8.969  13.404
76516SOL    HW231381   3.520   8.954  13.275
76517SOL     OW31382   3.943   6.631  13.799
76517SOL    HW131383   4.030   6.648  13.836
76517SOL    HW231384   3.927   6.539  13.818
76518SOL     OW31385   1.825  12.553   9.145
76518SOL    HW131386   1.873  12.471   9.137
76518SOL    HW231387   1.741  12.536   9.103
76519SOL     OW31388   3.733   7.592   3.358
76519SOL    HW131389   3.828   7.599   3.352
76519SOL    HW231390   3.718   7.519   3.419
76520SOL     OW31391  11.438   5.736   5.942
76520SOL    HW131392  11.393   5.762   6.022
76520SOL    HW231393  11.377   5.757   5.871
76521SOL     OW31394   2.885   8.972   3.028
76521SOL    HW131395   2.839   8.898   3.067
76521SOL    HW231396   2.883   8.955   2.934
76522SOL     OW31397  13.379   0.445  11.994
76522SOL    HW131398  13.352   0.377  11.933
76522SOL    HW231399  13.351   0.527  11.953
76523SOL     OW31400   3.736   5.003   1.211
76523SOL    HW131401   3.743   5.067   1.141
76523SOL    HW231402   3.721   5.054   1.290
76524SOL     OW31403   6.998  13.661   5.201
76524SOL    HW131404   7.003  13.583   5.145
76524SOL    HW231405   7.089  13.689   5.210
76525SOL     OW31406  13.000  10.445   2.411
76525SOL    HW131407  13.091  10.417   2.409
76525SOL    HW231408  12.957  10.390   2.345
76526SOL     OW31409  12.628  10.358  10.897
76526SOL    HW131410  12.632  10.289  10.963
76526SOL    HW231411  12.536  10.383  10.894
76527SOL     OW31412  14.328   2.207   4.121
76527SOL    HW131413  14.375   2.137   4.166
76527SOL    HW231414  14.395   2.252   4.069
76528SOL     OW31415   6.211   1.676  14.034
76528SOL    HW131416   6.235   1.591  14.070
76528SOL    HW231417   6.180   1.726  14.110
76529SOL     OW31418  14.820  13.365  14.282
76529SOL    HW131419  14.837  13.280  14.241
76529SOL    HW231420  14.845  13.429  14.215
76530SOL     OW31421  14.347   7.538  11.603
76530SOL    HW131422  14.291   7.507  11.674
76530SOL    HW231423  14.345   7.634  11.610
76531SOL     OW31424  12.875   3.478   5.770
76531SOL    HW131425  12.850   3.442   5.684
76531SOL    HW231426  12.946   3.539   5.750
76532SOL     OW31427   6.123   9.574   7.979
76532SOL    HW131428   6.045   9.562   8.033
76532SOL    HW231429   6.095   9.631   7.908
76533SOL     OW31430  12.391  13.411   3.200
76533SOL    HW131431  12.310  13.363   3.217
76533SOL    HW231432  12.460  13.357   3.238
76534SOL     OW31433   7.570  10.249   4.558
76534SOL    HW131434   7.540  10.163   4.586
76534SOL    HW231435   7.592  10.294   4.640
76535SOL     OW31436   2.506   4.965   2.530
76535SOL    HW131437   2.418   4.958   2.492
76535SOL    HW231438   2.518   5.058   2.544
76536SOL     OW31439   9.263   8.196   9.389
76536SOL    HW131440   9.246   8.110   9.350
76536SOL    HW231441   9.300   8.176   9.475
76537SOL     OW31442   1.248   0.570   3.447
76537SOL    HW131443   1.180   0.551   3.382
76537SOL    HW231444   1.202   0.568   3.531
76538SOL     OW31445   9.006   6.057   3.690
76538SOL    HW131446   8.942   6.112   3.736
76538SOL    HW231447   9.081   6.116   3.676
76539SOL     OW31448   2.197  10.247   1.795
76539SOL    HW131449   2.218  10.262   1.887
76539SOL    HW231450   2.115  10.294   1.781
76540SOL     OW31451   0.036  13.325  12.218
76540SOL    HW131452   0.001  13.303  12.132
76540SOL    HW231453   0.016  13.418  12.229
76541SOL     OW31454  10.172   0.152   5.552
76541SOL    HW131455  10.229   0.167   5.477
76541SOL    HW231456  10.172   0.236   5.599
76542SOL     OW31457  10.188   3.082   8.937
76542SOL    HW131458  10.129   3.085   9.012
76542SOL    HW231459  10.131   3.066   8.862
76543SOL     OW31460   7.597   0.444   6.742
76543SOL    HW131461   7.510   0.453   6.781
76543SOL    HW231462   7.653   0.413   6.813
76544SOL     OW31463  13.289  12.647  10.753
76544SOL    HW131464  13.316  12.670  10.665
76544SOL    HW231465  13.269  12.554  10.748
76545SOL     OW31466  11.876   2.672   3.545
76545SOL    HW131467  11.815   2.709   3.609
76545SOL    HW231468  11.936   2.620   3.597
76546SOL     OW31469   1.079   4.045   6.445
76546SOL    HW131470   1.046   4.040   6.355
76546SOL    HW231471   1.142   3.974   6.452
76547SOL     OW31472  12.902  13.975   9.885
76547SOL    HW131473  12.977  14.018   9.846
76547SOL    HW231474  12.843  13.958   9.812
76548SOL     OW31475   0.505   6.746   3.425
76548SOL    HW131476   0.421   6.768   3.384
76548SOL    HW231477   0.569   6.755   3.354
76549SOL     OW31478   6.487  10.915   2.452
76549SOL    HW131479   6.464  10.823   2.465
76549SOL    HW231480   6.580  10.914   2.427
76550SOL     OW31481  13.719   6.993   8.488
76550SOL    HW131482  13.687   7.065   8.543
76550SOL    HW231483  13.768   7.036   8.417
76551SOL     OW31484  11.504  13.041  13.051
76551SOL    HW131485  11.454  13.028  13.131
76551SOL    HW231486  11.444  13.088  12.993
76552SOL     OW31487  10.724   8.646   4.595
76552SOL    HW131488  10.709   8.663   4.688
76552SOL    HW231489  10.676   8.565   4.577
76553SOL     OW31490  11.914   6.948  12.201
76553SOL    HW131491  11.919   6.939  12.296
76553SOL    HW231492  11.821   6.942  12.181
76554SOL     OW31493   8.212  10.534   4.258
76554SOL    HW131494   8.131  10.584   4.247
76554SOL    HW231495   8.185  10.442   4.247
76555SOL     OW31496  13.054   1.189  12.796
76555SOL    HW131497  13.027   1.159  12.883
76555SOL    HW231498  13.020   1.122  12.736
76556SOL     OW31499  14.282  11.318   9.842
76556SOL    HW131500  14.281  11.235   9.891
76556SOL    HW231501  14.199  11.319   9.796
76557SOL     OW31502  14.356   6.440  10.580
76557SOL    HW131503  14.405   6.522  10.581
76557SOL    HW231504  14.337   6.425  10.487
76558SOL     OW31505   2.678  11.897  13.316
76558SOL    HW131506   2.663  11.847  13.235
76558SOL    HW231507   2.704  11.984  13.285
76559SOL     OW31508  13.738   0.164   3.307
76559SOL    HW131509  13.743   0.070   3.327
76559SOL    HW231510  13.828   0.195   3.318
76560SOL     OW31511   9.105   4.125   1.750
76560SOL    HW131512   9.072   4.056   1.693
76560SOL    HW231513   9.051   4.201   1.730
76561SOL     OW31514   2.815   4.367   9.848
76561SOL    HW131515   2.766   4.285   9.861
76561SOL    HW231516   2.906   4.340   9.836
76562SOL     OW31517   9.446  10.568   2.967
76562SOL    HW131518   9.528  10.520   2.984
76562SOL    HW231519   9.387  10.538   3.036
76563SOL     OW31520  11.671   7.446   7.795
76563SOL    HW131521  11.726   7.469   7.871
76563SOL    HW231522  11.638   7.530   7.764
76564SOL     OW31523   7.980  13.542  13.612
76564SOL    HW131524   7.920  13.592  13.557
76564SOL    HW231525   7.993  13.459  13.566
76565SOL     OW31526   7.710   1.901   4.586
76565SOL    HW131527   7.746   1.989   4.577
76565SOL    HW231528   7.748   1.867   4.667
76566SOL     OW31529   8.293   8.989   5.485
76566SOL    HW131530   8.284   8.894   5.496
76566SOL    HW231531   8.203   9.022   5.486
76567SOL     OW31532  14.533   6.916   1.420
76567SOL    HW131533  14.581   6.844   1.460
76567SOL    HW231534  14.542   6.988   1.482
76568SOL     OW31535  10.711   2.703  14.584
76568SOL    HW131536  10.700   2.798  14.594
76568SOL    HW231537  10.646   2.665  14.643
76569SOL     OW31538  12.271  11.786   5.532
76569SOL    HW131539  12.348  11.737   5.561
76569SOL    HW231540  12.222  11.725   5.477
76570SOL     OW31541   7.074  11.791   3.086
76570SOL    HW131542   7.072  11.696   3.091
76570SOL    HW231543   6.983  11.818   3.077
76571SOL     OW31544   5.701  13.494  11.869
76571SOL    HW131545   5.633  13.551  11.832
76571SOL    HW231546   5.728  13.439  11.796
76572SOL     OW31547   0.280   2.652  13.915
76572SOL    HW131548   0.229   2.653  13.996
76572SOL    HW231549   0.248   2.727  13.866
76573SOL     OW31550   6.761  13.340   6.769
76573SOL    HW131551   6.666  13.345   6.783
76573SOL    HW231552   6.791  13.431   6.772
76574SOL     OW31553   4.972  14.724  13.451
76574SOL    HW131554   5.046  14.723  13.511
76574SOL    HW231555   5.002  14.676  13.374
76575SOL     OW31556   2.533   2.325   0.008
76575SOL    HW131557   2.590   2.256   0.042
76575SOL    HW231558   2.574   2.352  14.808
76576SOL     OW31559   6.523   0.815  10.313
76576SOL    HW131560   6.503   0.905  10.338
76576SOL    HW231561   6.470   0.800  10.235
76577SOL     OW31562   1.535  11.803  10.092
76577SOL    HW131563   1.562  11.711  10.096
76577SOL    HW231564   1.535  11.824   9.998
76578SOL     OW31565   9.526  12.612   0.313
76578SOL    HW131566   9.516  12.693   0.363
76578SOL    HW231567   9.459  12.617   0.245
76579SOL     OW31568  11.170   6.181   8.167
76579SOL    HW131569  11.214   6.101   8.137
76579SOL    HW231570  11.079   6.154   8.181
76580SOL     OW31571   5.090   6.985  11.896
76580SOL    HW131572   5.008   7.016  11.857
76580SOL    HW231573   5.124   7.060  11.945
76581SOL     OW31574   3.707   6.584   1.652
76581SOL    HW131575   3.639   6.533   1.697
76581SOL    HW231576   3.661   6.623   1.577
76582SOL     OW31577   0.986   2.873   4.272
76582SOL    HW131578   0.891   2.878   4.274
76582SOL    HW231579   1.008   2.862   4.179
76583SOL     OW31580   7.955   9.379   3.031
76583SOL    HW131581   7.876   9.413   3.072
76583SOL    HW231582   7.923   9.319   2.963
76584SOL     OW31583   4.796   5.182   6.550
76584SOL    HW131584   4.737   5.213   6.619
76584SOL    HW231585   4.876   5.232   6.562
76585SOL     OW31586   9.587   0.955   5.783
76585SOL    HW131587   9.509   0.906   5.810
76585SOL    HW231588   9.553   1.024   5.727
76586SOL     OW31589   1.155   3.940  11.666
76586SOL    HW131590   1.077   3.990  11.640
76586SOL    HW231591   1.171   3.967  11.757
76587SOL     OW31592   3.460  10.821  13.963
76587SOL    HW131593   3.365  10.836  13.963
76587SOL    HW231594   3.472  10.738  13.917
76588SOL     OW31595  12.718   9.014  13.858
76588SOL    HW131596  12.647   9.071  13.830
76588SOL    HW231597  12.726   9.029  13.953
76589SOL     OW31598   1.828   0.708  11.823
76589SOL    HW131599   1.853   0.702  11.916
76589SOL    HW231600   1.773   0.631  11.807
76590SOL     OW31601   4.819   3.315   6.074
76590SOL    HW131602   4.784   3.236   6.113
76590SOL    HW231603   4.850   3.367   6.148
76591SOL     OW31604   8.511   4.790   2.852
76591SOL    HW131605   8.530   4.702   2.820
76591SOL    HW231606   8.472   4.776   2.938
76592SOL     OW31607  12.924  12.734  12.089
76592SOL    HW131608  12.836  12.758  12.063
76592SOL    HW231609  12.917  12.713  12.183
76593SOL     OW31610   0.531  14.075   8.333
76593SOL    HW131611   0.549  14.166   8.357
76593SOL    HW231612   0.563  14.067   8.243
76594SOL     OW31613   3.621   6.166  12.620
76594SOL    HW131614   3.624   6.073  12.595
76594SOL    HW231615   3.712   6.188  12.638
76595SOL     OW31616  14.686   4.843  11.920
76595SOL    HW131617  14.597   4.831  11.951
76595SOL    HW231618  14.722   4.911  11.977
76596SOL     OW31619  14.277   9.805   3.319
76596SOL    HW131620  14.253   9.891   3.354
76596SOL    HW231621  14.275   9.815   3.224
76597SOL     OW31622   4.364   4.038   7.303
76597SOL    HW131623   4.366   4.073   7.214
76597SOL    HW231624   4.355   3.943   7.291
76598SOL     OW31625   7.771  12.641  13.561
76598SOL    HW131626   7.857  12.645  13.604
76598SOL    HW231627   7.754  12.548  13.551
76599SOL     OW31628   4.429  13.120  12.550
76599SOL    HW131629   4.352  13.072  12.581
76599SOL    HW231630   4.454  13.175  12.624
76600SOL     OW31631   4.649  10.423   0.061
76600SOL    HW131632   4.574  10.440   0.004
76600SOL    HW231633   4.709  10.370   0.008
76601SOL     OW31634  13.803   0.314   4.272
76601SOL    HW131635  13.878   0.301   4.330
76601SOL    HW231636  13.730   0.269   4.314
76602SOL     OW31637   7.459  11.610   3.734
76602SOL    HW131638   7.445  11.527   3.688
76602SOL    HW231639   7.396  11.608   3.807
76603SOL     OW31640  14.649   8.090   7.682
76603SOL    HW131641  14.663   8.018   7.744
76603SOL    HW231642  14.663   8.169   7.734
76604SOL     OW31643  14.782  12.628  13.360
76604SOL    HW131644  14.751  12.550  13.314
76604SOL    HW231645  14.844  12.595  13.424
76605SOL     OW31646   8.022   5.627  12.297
76605SOL    HW131647   8.067   5.666  12.222
76605SOL    HW231648   8.023   5.696  12.363
76606SOL     OW31649   4.219   4.622   4.659
76606SOL    HW131650   4.224   4.602   4.565
76606SOL    HW231651   4.187   4.713   4.662
76607SOL     OW31652   4.707  10.635   7.910
76607SOL    HW131653   4.777  10.688   7.870
76607SOL    HW231654   4.641  10.699   7.935
76608SOL     OW31655   5.971   9.827  14.395
76608SOL    HW131656   6.008   9.822  14.307
76608SOL    HW231657   5.881   9.797  14.386
76609SOL     OW31658   8.816  13.756  13.948
76609SOL    HW131659   8.820  13.757  13.852
76609SOL    HW231660   8.903  13.782  13.977
76610SOL     OW31661   7.576   0.191   5.791
76610SOL    HW131662   7.528   0.114   5.821
76610SOL    HW231663   7.547   0.204   5.701
76611SOL     OW31664   3.473   6.770   8.354
76611SOL    HW131665   3.520   6.741   8.432
76611SOL    HW231666   3.528   6.742   8.281
76612SOL     OW31667  10.071  11.726  10.170
76612SOL    HW131668  10.098  11.635  10.181
76612SOL    HW231669   9.997  11.736  10.230
76613SOL     OW31670   4.385  13.677  10.955
76613SOL    HW131671   4.354  13.604  10.901
76613SOL    HW231672   4.462  13.710  10.910
76614SOL     OW31673  11.392  14.521   8.759
76614SOL    HW131674  11.323  14.503   8.823
76614SOL    HW231675  11.469  14.542   8.812
76615SOL     OW31676   5.590   5.837   7.575
76615SOL    HW131677   5.675   5.820   7.614
76615SOL    HW231678   5.535   5.764   7.604
76616SOL     OW31679   3.623   5.766   7.357
76616SOL    HW131680   3.661   5.721   7.282
76616SOL    HW231681   3.697   5.813   7.396
76617SOL     OW31682   3.526  11.273   1.474
76617SOL    HW131683   3.612  11.237   1.495
76617SOL    HW231684   3.491  11.215   1.406
76618SOL     OW31685  11.131  14.707  13.986
76618SOL    HW131686  11.194  14.663  13.930
76618SOL    HW231687  11.180  14.776  14.028
76619SOL     OW31688   9.102   3.263   7.261
76619SOL    HW131689   9.095   3.252   7.356
76619SOL    HW231690   9.046   3.194   7.225
76620SOL     OW31691   5.605  10.725   9.016
76620SOL    HW131692   5.682  10.780   9.000
76620SOL    HW231693   5.626  10.678   9.097
76621SOL     OW31694  12.252  14.664   4.177
76621SOL    HW131695  12.316  14.657   4.247
76621SOL    HW231696  12.287  14.609   4.107
76622SOL     OW31697   7.991   3.305   1.321
76622SOL    HW131698   8.048   3.233   1.294
76622SOL    HW231699   7.955   3.277   1.405
76623SOL     OW31700  11.519  11.110   6.356
76623SOL    HW131701  11.428  11.126   6.384
76623SOL    HW231702  11.510  11.051   6.280
76624SOL     OW31703  12.345   9.144   2.209
76624SOL    HW131704  12.261   9.159   2.253
76624SOL    HW231705  12.394   9.088   2.270
76625SOL     OW31706   5.655   1.278   4.836
76625SOL    HW131707   5.717   1.290   4.908
76625SOL    HW231708   5.575   1.245   4.878
76626SOL     OW31709  13.539   6.786   3.005
76626SOL    HW131710  13.614   6.792   3.064
76626SOL    HW231711  13.559   6.848   2.934
76627SOL     OW31712  12.472  14.702  12.774
76627SOL    HW131713  12.401  14.758  12.804
76627SOL    HW231714  12.518  14.754  12.709
76628SOL     OW31715   6.756  13.232  12.077
76628SOL    HW131716   6.726  13.316  12.112
76628SOL    HW231717   6.811  13.195  12.146
76629SOL     OW31718   3.710   5.631   7.880
76629SOL    HW131719   3.728   5.537   7.882
76629SOL    HW231720   3.614   5.636   7.878
76630SOL     OW31721   8.325   4.643   4.241
76630SOL    HW131722   8.328   4.584   4.317
76630SOL    HW231723   8.400   4.701   4.253
76631SOL     OW31724   0.974  12.601   7.198
76631SOL    HW131725   1.048  12.561   7.243
76631SOL    HW231726   0.897  12.560   7.238
76632SOL     OW31727   9.420  12.317  14.597
76632SOL    HW131728   9.507  12.356  14.597
76632SOL    HW231729   9.417  12.265  14.517
76633SOL     OW31730   9.405   0.698   9.960
76633SOL    HW131731   9.387   0.654  10.043
76633SOL    HW231732   9.362   0.643   9.894
76634SOL     OW31733  13.980  14.647   0.765
76634SOL    HW131734  14.041  14.611   0.700
76634SOL    HW231735  14.022  14.726   0.797
76635SOL     OW31736   5.677   3.052   0.525
76635SOL    HW131737   5.745   3.120   0.523
76635SOL    HW231738   5.670   3.030   0.618
76636SOL     OW31739   8.396   7.966  11.680
76636SOL    HW131740   8.323   8.028  11.687
76636SOL    HW231741   8.357   7.880  11.696
76637SOL     OW31742   0.506   2.589   7.863
76637SOL    HW131743   0.539   2.510   7.821
76637SOL    HW231744   0.584   2.639   7.886
76638SOL     OW31745   2.979   8.407   7.993
76638SOL    HW131746   3.040   8.460   8.044
76638SOL    HW231747   3.035   8.346   7.945
76639SOL     OW31748   7.012   5.010   1.043
76639SOL    HW131749   6.917   5.002   1.039
76639SOL    HW231750   7.044   4.920   1.043
76640SOL     OW31751   9.124   0.964   6.896
76640SOL    HW131752   9.036   0.928   6.885
76640SOL    HW231753   9.123   1.046   6.846
76641SOL     OW31754  10.825   5.548  11.660
76641SOL    HW131755  10.869   5.521  11.579
76641SOL    HW231756  10.884   5.518  11.730
76642SOL     OW31757  10.154  14.182   6.358
76642SOL    HW131758  10.233  14.197   6.411
76642SOL    HW231759  10.135  14.089   6.369
76643SOL     OW31760   0.281  10.516   5.632
76643SOL    HW131761   0.223  10.506   5.707
76643SOL    HW231762   0.247  10.455   5.566
76644SOL     OW31763   8.926   0.162   2.783
76644SOL    HW131764   8.958   0.241   2.738
76644SOL    HW231765   8.928   0.185   2.876
76645SOL     OW31766  13.666   2.884   6.060
76645SOL    HW131767  13.714   2.889   5.977
76645SOL    HW231768  13.597   2.950   6.052
76646SOL     OW31769  10.160  12.957   4.983
76646SOL    HW131770  10.130  13.046   4.967
76646SOL    HW231771  10.203  12.931   4.901
76647SOL     OW31772   2.325  12.671   3.918
76647SOL    HW131773   2.280  12.738   3.867
76647SOL    HW231774   2.414  12.671   3.884
76648SOL     OW31775   8.888  12.311   7.222
76648SOL    HW131776   8.834  12.318   7.301
76648SOL    HW231777   8.977  12.299   7.255
76649SOL     OW31778   8.136   2.681  14.273
76649SOL    HW131779   8.064   2.704  14.215
76649SOL    HW231780   8.150   2.588  14.258
76650SOL     OW31781   4.382   0.391   5.770
76650SOL    HW131782   4.359   0.483   5.754
76650SOL    HW231783   4.478   0.391   5.770
76651SOL     OW31784   8.659   4.698   8.655
76651SOL    HW131785   8.650   4.654   8.570
76651SOL    HW231786   8.570   4.725   8.677
76652SOL     OW31787   5.582   6.515   6.824
76652SOL    HW131788   5.659   6.459   6.837
76652SOL    HW231789   5.583   6.535   6.731
76653SOL     OW31790   9.812   7.333   5.925
76653SOL    HW131791   9.750   7.327   5.997
76653SOL    HW231792   9.847   7.422   5.931
76654SOL     OW31793   7.021   4.708   2.481
76654SOL    HW131794   7.035   4.729   2.389
76654SOL    HW231795   7.018   4.612   2.483
76655SOL     OW31796   0.109   4.439   6.230
76655SOL    HW131797   0.147   4.354   6.208
76655SOL    HW231798   0.114   4.443   6.326
76656SOL     OW31799   5.151   5.270   7.289
76656SOL    HW131800   5.094   5.307   7.356
76656SOL    HW231801   5.188   5.191   7.330
76657SOL     OW31802  14.678   9.677   8.252
76657SOL    HW131803  14.607   9.617   8.228
76657SOL    HW231804  14.718   9.637   8.329
76658SOL     OW31805   6.343   9.928   1.804
76658SOL    HW131806   6.356   9.844   1.847
76658SOL    HW231807   6.426   9.974   1.815
76659SOL     OW31808   4.757   2.932  13.230
76659SOL    HW131809   4.738   2.995  13.299
76659SOL    HW231810   4.743   2.846  13.271
76660SOL     OW31811  14.075  14.338  10.899
76660SOL    HW131812  14.100  14.327  10.991
76660SOL    HW231813  14.038  14.253  10.874
76661SOL     OW31814  13.175   3.722  13.556
76661SOL    HW131815  13.226   3.795  13.523
76661SOL    HW231816  13.109   3.706  13.488
76662SOL     OW31817   9.319   5.123   7.234
76662SOL    HW131818   9.318   5.031   7.260
76662SOL    HW231819   9.328   5.172   7.316
76663SOL     OW31820  13.987   3.265   6.797
76663SOL    HW131821  13.989   3.322   6.874
76663SOL    HW231822  13.915   3.297   6.744
76664SOL     OW31823   8.214   4.072   9.978
76664SOL    HW131824   8.119   4.075   9.967
76664SOL    HW231825   8.236   4.152  10.026
76665SOL     OW31826  10.609   0.250   2.431
76665SOL    HW131827  10.611   0.156   2.415
76665SOL    HW231828  10.699   0.279   2.417
76666SOL     OW31829   6.701  11.655  11.015
76666SOL    HW131830   6.682  11.676  11.106
76666SOL    HW231831   6.768  11.718  10.988
76667SOL     OW31832   6.186   8.199   8.157
76667SOL    HW131833   6.134   8.242   8.089
76667SOL    HW231834   6.255   8.153   8.110
76668SOL     OW31835  12.559   5.621   7.278
76668SOL    HW131836  12.609   5.568   7.216
76668SOL    HW231837  12.511   5.684   7.223
76669SOL     OW31838   0.195  12.136   8.985
76669SOL    HW131839   0.150  12.129   9.069
76669SOL    HW231840   0.269  12.195   9.002
76670SOL     OW31841  12.230  10.500   4.354
76670SOL    HW131842  12.228  10.429   4.418
76670SOL    HW231843  12.319  10.496   4.317
76671SOL     OW31844   8.537   2.652  14.589
76671SOL    HW131845   8.552   2.627  14.681
76671SOL    HW231846   8.556   2.573  14.539
76672SOL     OW31847  14.486   9.243   9.483
76672SOL    HW131848  14.504   9.254   9.577
76672SOL    HW231849  14.395   9.215   9.479
76673SOL     OW31850  12.663  14.398   8.939
76673SOL    HW131851  12.754  14.426   8.934
76673SOL    HW231852  12.667  14.311   8.979
76674SOL     OW31853  10.411   3.099  13.537
76674SOL    HW131854  10.481   3.145  13.491
76674SOL    HW231855  10.402   3.147  13.620
76675SOL     OW31856   9.058   5.039  12.006
76675SOL    HW131857   9.132   5.091  12.037
76675SOL    HW231858   9.011   5.097  11.947
76676SOL     OW31859   6.937   0.470   8.496
76676SOL    HW131860   6.870   0.429   8.442
76676SOL    HW231861   6.894   0.546   8.534
76677SOL     OW31862  14.222   7.536  12.043
76677SOL    HW131863  14.303   7.564  11.999
76677SOL    HW231864  14.162   7.609  12.030
76678SOL     OW31865   9.930  12.290   7.464
76678SOL    HW131866   9.864  12.220   7.464
76678SOL    HW231867   9.983  12.274   7.386
76679SOL     OW31868   2.617  14.150  11.980
76679SOL    HW131869   2.661  14.079  11.934
76679SOL    HW231870   2.528  14.149  11.944
76680SOL     OW31871  13.954   9.408   7.494
76680SOL    HW131872  13.927   9.419   7.585
76680SOL    HW231873  13.945   9.496   7.456
76681SOL     OW31874   8.450  14.828  10.749
76681SOL    HW131875   8.494  14.773  10.685
76681SOL    HW231876   8.363  14.844  10.711
76682SOL     OW31877   6.188   4.685  14.827
76682SOL    HW131878   6.123   4.732  14.775
76682SOL    HW231879   6.237   4.753  14.873
76683SOL     OW31880   5.493   8.932  13.401
76683SOL    HW131881   5.457   8.934  13.490
76683SOL    HW231882   5.584   8.907  13.412
76684SOL     OW31883   1.237   8.265  14.092
76684SOL    HW131884   1.307   8.201  14.083
76684SOL    HW231885   1.205   8.254  14.182
76685SOL     OW31886   8.612   8.355  14.501
76685SOL    HW131887   8.694   8.398  14.522
76685SOL    HW231888   8.545   8.422  14.511
76686SOL     OW31889   4.710   9.413  12.037
76686SOL    HW131890   4.763   9.479  11.992
76686SOL    HW231891   4.730   9.331  11.991
76687SOL     OW31892  10.295  10.018  10.761
76687SOL    HW131893  10.369   9.980  10.714
76687SOL    HW231894  10.225  10.022  10.696
76688SOL     OW31895  13.450   9.677   4.684
76688SOL    HW131896  13.398   9.712   4.756
76688SOL    HW231897  13.530   9.729   4.683
76689SOL     OW31898   3.673  10.452   9.874
76689SOL    HW131899   3.706  10.536   9.907
76689SOL    HW231900   3.580  10.452   9.895
76690SOL     OW31901   1.675   9.498   7.130
76690SOL    HW131902   1.745   9.452   7.082
76690SOL    HW231903   1.686   9.590   7.106
76691SOL     OW31904   5.633   4.923   8.419
76691SOL    HW131905   5.706   4.985   8.411
76691SOL    HW231906   5.625   4.884   8.332
76692SOL     OW31907   7.354  11.372   2.244
76692SOL    HW131908   7.295  11.435   2.202
76692SOL    HW231909   7.295  11.312   2.291
76693SOL     OW31910   7.310  11.160  12.376
76693SOL    HW131911   7.308  11.198  12.463
76693SOL    HW231912   7.372  11.087  12.383
76694SOL     OW31913   1.440   4.308  10.411
76694SOL    HW131914   1.423   4.376  10.346
76694SOL    HW231915   1.366   4.313  10.471
76695SOL     OW31916   4.676   4.242   6.081
76695SOL    HW131917   4.739   4.172   6.096
76695SOL    HW231918   4.665   4.284   6.166
76696SOL     OW31919   8.269  10.879  12.024
76696SOL    HW131920   8.222  10.963  12.017
76696SOL    HW231921   8.200  10.814  12.038
76697SOL     OW31922  11.244   1.652  11.045
76697SOL    HW131923  11.248   1.649  11.141
76697SOL    HW231924  11.332   1.679  11.018
76698SOL     OW31925  13.438   7.540   5.525
76698SOL    HW131926  13.505   7.605   5.502
76698SOL    HW231927  13.379   7.539   5.450
76699SOL     OW31928  11.775  11.139  11.060
76699SOL    HW131929  11.857  11.130  11.109
76699SOL    HW231930  11.718  11.071  11.096
76700SOL     OW31931   5.905   1.252   8.897
76700SOL    HW131932   5.811   1.269   8.896
76700SOL    HW231933   5.922   1.212   8.982
76701SOL     OW31934   7.363  14.074  10.178
76701SOL    HW131935   7.295  14.007  10.179
76701SOL    HW231936   7.367  14.105  10.269
76702SOL     OW31937  12.079   1.554  14.384
76702SOL    HW131938  12.146   1.504  14.431
76702SOL    HW231939  12.038   1.490  14.325
76703SOL     OW31940   0.987   9.261   9.240
76703SOL    HW131941   0.922   9.202   9.203
76703SOL    HW231942   1.034   9.296   9.164
76704SOL     OW31943   0.621  14.879   4.085
76704SOL    HW131944   0.635  14.786   4.069
76704SOL    HW231945   0.536   0.001   4.128
76705SOL     OW31946   2.179   7.839   5.048
76705SOL    HW131947   2.171   7.858   4.955
76705SOL    HW231948   2.091   7.811   5.075
76706SOL     OW31949  11.908  11.011   2.737
76706SOL    HW131950  11.850  10.939   2.764
76706SOL    HW231951  11.965  11.025   2.812
76707SOL     OW31952  12.019  10.683   3.465
76707SOL    HW131953  12.027  10.644   3.378
76707SOL    HW231954  11.977  10.768   3.449
76708SOL     OW31955   3.702   5.728   4.290
76708SOL    HW131956   3.707   5.633   4.296
76708SOL    HW231957   3.788   5.755   4.255
76709SOL     OW31958   9.666   5.264  13.557
76709SOL    HW131959   9.717   5.337  13.520
76709SOL    HW231960   9.577   5.299  13.564
76710SOL     OW31961  13.929   3.385   6.320
76710SOL    HW131962  13.915   3.291   6.309
76710SOL    HW231963  14.016   3.393   6.360
76711SOL     OW31964   9.305   9.625  11.421
76711SOL    HW131965   9.260   9.560  11.366
76711SOL    HW231966   9.250   9.703  11.416
76712SOL     OW31967  11.450  12.613  14.668
76712SOL    HW131968  11.482  12.668  14.740
76712SOL    HW231969  11.416  12.675  14.604
76713SOL     OW31970   6.701   9.565   3.566
76713SOL    HW131971   6.728   9.485   3.612
76713SOL    HW231972   6.778   9.591   3.515
76714SOL     OW31973  13.491   4.459   7.440
76714SOL    HW131974  13.409   4.483   7.485
76714SOL    HW231975  13.517   4.539   7.395
76715SOL     OW31976  11.172   1.799   7.345
76715SOL    HW131977  11.120   1.814   7.266
76715SOL    HW231978  11.119   1.740   7.398
76716SOL     OW31979   9.960  10.022   9.611
76716SOL    HW131980   9.956  10.118   9.618
76716SOL    HW231981  10.040  10.005   9.560
76717SOL     OW31982   7.670  14.520   3.205
76717SOL    HW131983   7.719  14.479   3.276
76717SOL    HW231984   7.585  14.476   3.206
76718SOL     OW31985   4.810   8.960   1.989
76718SOL    HW131986   4.716   8.972   2.000
76718SOL    HW231987   4.819   8.874   1.948
76719SOL     OW31988   4.174  10.580   8.853
76719SOL    HW131989   4.140  10.634   8.924
76719SOL    HW231990   4.195  10.642   8.783
76720SOL     OW31991   6.920   1.082   8.029
76720SOL    HW131992   6.966   1.096   8.112
76720SOL    HW231993   6.827   1.082   8.053
76721SOL     OW31994   7.590  12.555  10.301
76721SOL    HW131995   7.532  12.482  10.325
76721SOL    HW231996   7.549  12.595  10.225
76722SOL     OW31997   7.912  10.730  13.626
76722SOL    HW131998   7.992  10.779  13.604
76722SOL    HW231999   7.840  10.787  13.599
76723SOL     OW32000  10.076   6.015  14.842
76723SOL    HW132001   9.990   6.050  14.866
76723SOL    HW232002  10.122   6.088  14.802
76724SOL     OW32003   4.437   3.840   2.502
76724SOL    HW132004   4.440   3.933   2.525
76724SOL    HW232005   4.356   3.831   2.452
76725SOL     OW32006  12.760   8.894   2.088
76725SOL    HW132007  12.787   8.986   2.088
76725SOL    HW232008  12.841   8.845   2.080
76726SOL     OW32009   8.977   6.105   3.111
76726SOL    HW132010   8.974   6.189   3.064
76726SOL    HW232011   9.029   6.123   3.189
76727SOL     OW32012   6.407  12.565   6.702
76727SOL    HW132013   6.428  12.538   6.792
76727SOL    HW232014   6.476  12.626   6.679
76728SOL     OW32015  11.608   4.371  12.890
76728SOL    HW132016  11.598   4.330  12.976
76728SOL    HW232017  11.596   4.298  12.828
76729SOL     OW32018   6.497  13.254  11.560
76729SOL    HW132019   6.462  13.343  11.559
76729SOL    HW232020   6.549  13.249  11.641
76730SOL     OW32021   4.251   9.637   2.093
76730SOL    HW132022   4.309   9.577   2.045
76730SOL    HW232023   4.219   9.585   2.167
76731SOL     OW32024   3.539  13.588   3.325
76731SOL    HW132025   3.457  13.613   3.282
76731SOL    HW232026   3.527  13.611   3.417
76732SOL     OW32027   6.010   4.399   9.305
76732SOL    HW132028   5.985   4.310   9.281
76732SOL    HW232029   6.003   4.402   9.400
76733SOL     OW32030   3.426   7.769  11.203
76733SOL    HW132031   3.507   7.718  11.195
76733SOL    HW232032   3.391   7.744  11.288
76734SOL     OW32033  13.181  12.994   4.175
76734SOL    HW132034  13.086  12.982   4.174
76734SOL    HW232035  13.195  13.080   4.135
76735SOL     OW32036   5.120  11.611  14.651
76735SOL    HW132037   5.145  11.620  14.743
76735SOL    HW232038   5.044  11.552  14.652
76736SOL     OW32039   1.398   8.458   8.662
76736SOL    HW132040   1.422   8.448   8.755
76736SOL    HW232041   1.357   8.544   8.657
76737SOL     OW32042  13.773  13.961   1.561
76737SOL    HW132043  13.863  13.984   1.586
76737SOL    HW232044  13.761  14.003   1.476
76738SOL     OW32045   3.676   9.555   5.915
76738SOL    HW132046   3.726   9.629   5.948
76738SOL    HW232047   3.590   9.563   5.956
76739SOL     OW32048  11.557   7.070  12.393
76739SOL    HW132049  11.490   7.117  12.443
76739SOL    HW232050  11.570   6.988  12.441
76740SOL     OW32051  10.009  10.300   5.431
76740SOL    HW132052  10.072  10.281   5.500
76740SOL    HW232053   9.996  10.395   5.436
76741SOL     OW32054   2.791   8.829   9.527
76741SOL    HW132055   2.721   8.836   9.462
76741SOL    HW232056   2.746   8.832   9.611
76742SOL     OW32057  13.309   7.373  13.262
76742SOL    HW132058  13.377   7.308  13.245
76742SOL    HW232059  13.268   7.387  13.176
76743SOL     OW32060   0.613   0.254  12.849
76743SOL    HW132061   0.585   0.279  12.761
76743SOL    HW232062   0.636   0.337  12.891
76744SOL     OW32063   7.793  12.438  11.866
76744SOL    HW132064   7.737  12.361  11.855
76744SOL    HW232065   7.881  12.403  11.876
76745SOL     OW32066   3.559   6.249  12.177
76745SOL    HW132067   3.643   6.226  12.217
76745SOL    HW232068   3.509   6.167  12.179
76746SOL     OW32069  12.973   7.351   9.651
76746SOL    HW132070  12.901   7.389   9.702
76746SOL    HW232071  13.034   7.423   9.638
76747SOL     OW32072   3.853   5.707   3.007
76747SOL    HW132073   3.776   5.653   2.990
76747SOL    HW232074   3.839   5.742   3.095
76748SOL     OW32075   7.339  13.948   1.743
76748SOL    HW132076   7.391  13.946   1.663
76748SOL    HW232077   7.272  14.015   1.726
76749SOL     OW32078   9.552   8.695   8.291
76749SOL    HW132079   9.544   8.791   8.287
76749SOL    HW232080   9.478   8.667   8.343
76750SOL     OW32081  12.788   2.903   4.583
76750SOL    HW132082  12.748   2.853   4.511
76750SOL    HW232083  12.774   2.848   4.660
76751SOL     OW32084   2.922  12.671   6.163
76751SOL    HW132085   2.926  12.632   6.076
76751SOL    HW232086   2.931  12.765   6.148
76752SOL     OW32087   7.899   8.068   1.751
76752SOL    HW132088   7.923   8.053   1.660
76752SOL    HW232089   7.970   8.120   1.787
76753SOL     OW32090  14.268  13.621   3.865
76753SOL    HW132091  14.327  13.688   3.830
76753SOL    HW232092  14.225  13.585   3.788
76754SOL     OW32093  11.427  12.778   3.873
76754SOL    HW132094  11.420  12.741   3.785
76754SOL    HW232095  11.443  12.702   3.929
76755SOL     OW32096  11.312   9.107   8.347
76755SOL    HW132097  11.349   9.151   8.271
76755SOL    HW232098  11.333   9.015   8.334
76756SOL     OW32099   5.478  11.204   0.414
76756SOL    HW132100   5.383  11.218   0.420
76756SOL    HW232101   5.515  11.268   0.474
76757SOL     OW32102   5.275   4.531   5.294
76757SOL    HW132103   5.245   4.465   5.357
76757SOL    HW232104   5.344   4.578   5.341
76758SOL     OW32105  11.018   0.852  10.807
76758SOL    HW132106  10.992   0.822  10.894
76758SOL    HW232107  11.037   0.771  10.759
76759SOL     OW32108  12.380  13.467   5.128
76759SOL    HW132109  12.340  13.541   5.084
76759SOL    HW232110  12.474  13.475   5.110
76760SOL     OW32111   0.573  10.745  12.420
76760SOL    HW132112   0.624  10.761  12.340
76760SOL    HW232113   0.519  10.824  12.430
76761SOL     OW32114   2.826   8.230  14.697
76761SOL    HW132115   2.856   8.196  14.781
76761SOL    HW232116   2.892   8.295  14.673
76762SOL     OW32117   5.788   6.566  11.318
76762SOL    HW132118   5.779   6.519  11.401
76762SOL    HW232119   5.711   6.623  11.315
76763SOL     OW32120  12.290  14.603   1.775
76763SOL    HW132121  12.209  14.601   1.724
76763SOL    HW232122  12.315  14.511   1.783
76764SOL     OW32123   2.105   8.613   2.739
76764SOL    HW132124   2.176   8.550   2.742
76764SOL    HW232125   2.107   8.648   2.650
76765SOL     OW32126   9.192   2.713   7.809
76765SOL    HW132127   9.143   2.669   7.879
76765SOL    HW232128   9.277   2.734   7.850
76766SOL     OW32129  12.891   8.842   0.216
76766SOL    HW132130  12.866   8.805   0.301
76766SOL    HW232131  12.852   8.929   0.215
76767SOL     OW32132  13.153   0.418   4.066
76767SOL    HW132133  13.155   0.430   4.161
76767SOL    HW232134  13.162   0.506   4.031
76768SOL     OW32135  12.050  14.770   5.080
76768SOL    HW132136  12.144  14.783   5.066
76768SOL    HW232137  12.042  14.680   5.111
76769SOL     OW32138  11.504   1.918  10.159
76769SOL    HW132139  11.422   1.872  10.142
76769SOL    HW232140  11.507   1.987  10.093
76770SOL     OW32141  14.396   8.580   9.154
76770SOL    HW132142  14.361   8.512   9.096
76770SOL    HW232143  14.379   8.662   9.107
76771SOL     OW32144  14.880  11.678   9.056
76771SOL    HW132145   0.077  11.718   9.093
76771SOL    HW232146  14.863  11.603   9.113
76772SOL     OW32147  10.638   8.989   7.742
76772SOL    HW132148  10.579   9.047   7.790
76772SOL    HW232149  10.653   8.915   7.801
76773SOL     OW32150   1.892   2.664   8.863
76773SOL    HW132151   1.832   2.713   8.807
76773SOL    HW232152   1.871   2.572   8.846
76774SOL     OW32153   0.735   4.421   6.585
76774SOL    HW132154   0.746   4.501   6.534
76774SOL    HW232155   0.703   4.451   6.670
76775SOL     OW32156  11.754   3.075   0.215
76775SOL    HW132157  11.730   3.167   0.222
76775SOL    HW232158  11.726   3.049   0.127
76776SOL     OW32159   3.271   2.595   0.262
76776SOL    HW132160   3.241   2.608   0.352
76776SOL    HW232161   3.207   2.535   0.224
76777SOL     OW32162  14.199   7.701   0.689
76777SOL    HW132163  14.107   7.680   0.700
76777SOL    HW232164  14.212   7.702   0.594
76778SOL     OW32165   0.137   4.952  10.246
76778SOL    HW132166   0.143   4.873  10.193
76778SOL    HW232167   0.224   4.991  10.243
76779SOL     OW32168   5.817   8.166  11.614
76779SOL    HW132169   5.848   8.231  11.677
76779SOL    HW232170   5.734   8.200  11.583
76780SOL     OW32171   0.550   6.651  12.110
76780SOL    HW132172   0.465   6.621  12.079
76780SOL    HW232173   0.569   6.729  12.057
76781SOL     OW32174   9.153   6.164  14.748
76781SOL    HW132175   9.170   6.081  14.791
76781SOL    HW232176   9.058   6.166  14.738
76782SOL     OW32177   9.840   0.806  13.839
76782SOL    HW132178   9.898   0.835  13.909
76782SOL    HW232179   9.770   0.872  13.836
76783SOL     OW32180   7.760   9.143   6.981
76783SOL    HW132181   7.780   9.143   6.887
76783SOL    HW232182   7.769   9.235   7.008
76784SOL     OW32183   2.597   7.651   6.635
76784SOL    HW132184   2.623   7.697   6.555
76784SOL    HW232185   2.676   7.604   6.662
76785SOL     OW32186   7.394   1.105  10.842
76785SOL    HW132187   7.379   1.085  10.749
76785SOL    HW232188   7.306   1.104  10.880
76786SOL     OW32189  14.509   3.942   7.542
76786SOL    HW132190  14.562   3.914   7.616
76786SOL    HW232191  14.462   3.863   7.514
76787SOL     OW32192  12.327  10.503   0.695
76787SOL    HW132193  12.310  10.582   0.644
76787SOL    HW232194  12.423  10.497   0.699
76788SOL     OW32195   5.963   8.568   7.708
76788SOL    HW132196   6.005   8.568   7.622
76788SOL    HW232197   5.908   8.646   7.707
76789SOL     OW32198   0.734   0.225  14.522
76789SOL    HW132199   0.698   0.140  14.498
76789SOL    HW232200   0.800   0.244  14.455
76790SOL     OW32201   7.755   1.917   6.471
76790SOL    HW132202   7.755   1.936   6.377
76790SOL    HW232203   7.683   1.970   6.506
76791SOL     OW32204   3.231   0.993   9.553
76791SOL    HW132205   3.200   0.902   9.550
76791SOL    HW232206   3.157   1.042   9.588
76792SOL     OW32207  11.004  10.713   1.923
76792SOL    HW132208  10.940  10.785   1.921
76792SOL    HW232209  11.071  10.743   1.985
76793SOL     OW32210  14.364   0.111  12.962
76793SOL    HW132211  14.363   0.160  13.045
76793SOL    HW232212  14.335   0.023  12.986
76794SOL     OW32213   4.656  11.349   8.943
76794SOL    HW132214   4.693  11.271   8.901
76794SOL    HW232215   4.566  11.352   8.911
76795SOL     OW32216  13.597   7.540   9.089
76795SOL    HW132217  13.560   7.456   9.119
76795SOL    HW232218  13.648   7.572   9.164
76796SOL     OW32219   6.122   6.454  11.425
76796SOL    HW132220   6.093   6.500  11.503
76796SOL    HW232221   6.091   6.365  11.436
76797SOL     OW32222  13.364   5.075  11.431
76797SOL    HW132223  13.334   5.157  11.392
76797SOL    HW232224  13.372   5.095  11.524
76798SOL     OW32225  14.814  12.053   8.021
76798SOL    HW132226  14.742  11.991   8.038
76798SOL    HW232227  14.840  12.034   7.931
76799SOL     OW32228   2.400   6.228  14.816
76799SOL    HW132229   2.467   6.160  14.803
76799SOL    HW232230   2.377   6.222   0.026
76800SOL     OW32231  13.688  13.434  11.405
76800SOL    HW132232  13.661  13.382  11.481
76800SOL    HW232233  13.783  13.446  11.416
76801SOL     OW32234   8.823  13.271   1.728
76801SOL    HW132235   8.903  13.247   1.682
76801SOL    HW232236   8.753  13.228   1.679
76802SOL     OW32237  14.574   4.247  10.049
76802SOL    HW132238  14.586   4.212  10.137
76802SOL    HW232239  14.487   4.287  10.050
76803SOL     OW32240   1.305   9.442   3.848
76803SOL    HW132241   1.309   9.358   3.803
76803SOL    HW232242   1.218   9.444   3.887
76804SOL     OW32243   6.776  12.897  13.617
76804SOL    HW132244   6.703  12.934  13.567
76804SOL    HW232245   6.848  12.893  13.554
76805SOL     OW32246   1.662  10.767   4.840
76805SOL    HW132247   1.736  10.773   4.901
76805SOL    HW232248   1.664  10.677   4.809
76806SOL     OW32249   3.902  12.451  10.118
76806SOL    HW132250   3.928  12.540  10.141
76806SOL    HW232251   3.953  12.430  10.040
76807SOL     OW32252   3.572   8.779   9.425
76807SOL    HW132253   3.597   8.689   9.448
76807SOL    HW232254   3.522   8.770   9.343
76808SOL     OW32255  13.058  14.327  11.908
76808SOL    HW132256  12.990  14.341  11.842
76808SOL    HW232257  13.089  14.238  11.892
76809SOL     OW32258  12.293  10.852   3.688
76809SOL    HW132259  12.254  10.817   3.768
76809SOL    HW232260  12.372  10.799   3.674
76810SOL     OW32261   4.206   9.930   6.070
76810SOL    HW132262   4.290   9.893   6.042
76810SOL    HW232263   4.220  10.025   6.069
76811SOL     OW32264  10.911   7.122  12.824
76811SOL    HW132265  10.869   7.087  12.745
76811SOL    HW232266  10.993   7.073  12.832
76812SOL     OW32267  11.588  13.844  11.651
76812SOL    HW132268  11.511  13.803  11.612
76812SOL    HW232269  11.595  13.803  11.737
76813SOL     OW32270   9.503   4.923  14.751
76813SOL    HW132271   9.525   4.845  14.700
76813SOL    HW232272   9.580   4.979  14.743
76814SOL     OW32273  13.058   1.940   9.642
76814SOL    HW132274  13.040   1.963   9.734
76814SOL    HW232275  13.040   2.020   9.594
76815SOL     OW32276   7.586   6.268   1.155
76815SOL    HW132277   7.678   6.246   1.172
76815SOL    HW232278   7.563   6.328   1.226
76816SOL     OW32279  12.110  14.134   8.306
76816SOL    HW132280  12.036  14.185   8.338
76816SOL    HW232281  12.184  14.164   8.357
76817SOL     OW32282   2.028   9.348   2.797
76817SOL    HW132283   2.074   9.429   2.818
76817SOL    HW232284   2.078   9.280   2.842
76818SOL     OW32285   7.463   5.379  10.340
76818SOL    HW132286   7.546   5.392  10.387
76818SOL    HW232287   7.425   5.467  10.335
76819SOL     OW32288   7.243   3.315   7.956
76819SOL    HW132289   7.265   3.238   7.904
76819SOL    HW232290   7.319   3.327   8.014
76820SOL     OW32291   2.652   5.540   7.522
76820SOL    HW132292   2.693   5.472   7.575
76820SOL    HW232293   2.654   5.506   7.432
76821SOL     OW32294   6.024   2.122  12.400
76821SOL    HW132295   6.002   2.054  12.465
76821SOL    HW232296   6.082   2.181  12.447
76822SOL     OW32297   6.167   6.668   7.742
76822SOL    HW132298   6.244   6.693   7.791
76822SOL    HW232299   6.100   6.733   7.766
76823SOL     OW32300   6.792   7.775   1.861
76823SOL    HW132301   6.750   7.854   1.894
76823SOL    HW232302   6.867   7.806   1.810
76824SOL     OW32303  11.529   4.367   2.945
76824SOL    HW132304  11.472   4.415   3.004
76824SOL    HW232305  11.496   4.387   2.857
76825SOL     OW32306   4.929   9.997  10.180
76825SOL    HW132307   4.859  10.057  10.206
76825SOL    HW232308   5.003  10.020  10.235
76826SOL     OW32309   1.184  13.378  14.831
76826SOL    HW132310   1.202  13.296  14.876
76826SOL    HW232311   1.195  13.357  14.738
76827SOL     OW32312  13.765   1.993  10.478
76827SOL    HW132313  13.772   1.969  10.571
76827SOL    HW232314  13.680   1.957  10.451
76828SOL     OW32315   5.024   1.439  13.379
76828SOL    HW132316   5.047   1.439  13.286
76828SOL    HW232317   5.102   1.404  13.423
76829SOL     OW32318   2.049   4.248   7.683
76829SOL    HW132319   2.058   4.277   7.593
76829SOL    HW232320   1.985   4.176   7.679
76830SOL     OW32321   0.654   1.867   8.056
76830SOL    HW132322   0.635   1.866   8.150
76830SOL    HW232323   0.627   1.954   8.027
76831SOL     OW32324  12.296   7.077   2.573
76831SOL    HW132325  12.293   7.107   2.664
76831SOL    HW232326  12.271   7.154   2.522
76832SOL     OW32327  10.275   5.602   2.957
76832SOL    HW132328  10.306   5.587   2.867
76832SOL    HW232329  10.180   5.592   2.952
76833SOL     OW32330  13.354   4.624   8.903
76833SOL    HW132331  13.413   4.651   8.832
76833SOL    HW232332  13.362   4.694   8.968
76834SOL     OW32333  13.530   3.798   8.712
76834SOL    HW132334  13.621   3.772   8.698
76834SOL    HW232335  13.507   3.760   8.796
76835SOL     OW32336  11.353   0.624  10.462
76835SOL    HW132337  11.431   0.575  10.487
76835SOL    HW232338  11.381   0.680  10.390
76836SOL     OW32339   5.980   2.775   9.292
76836SOL    HW132340   5.924   2.698   9.302
76836SOL    HW232341   6.060   2.753   9.341
76837SOL     OW32342   5.411   5.100   7.290
76837SOL    HW132343   5.437   5.025   7.344
76837SOL    HW232344   5.346   5.065   7.230
76838SOL     OW32345  12.827   1.259   8.345
76838SOL    HW132346  12.798   1.234   8.433
76838SOL    HW232347  12.775   1.204   8.287
76839SOL     OW32348  13.260  10.155   8.618
76839SOL    HW132349  13.353  10.172   8.602
76839SOL    HW232350  13.215  10.202   8.548
76840SOL     OW32351  14.035   5.437   4.942
76840SOL    HW132352  14.078   5.356   4.970
76840SOL    HW232353  14.058   5.445   4.849
76841SOL     OW32354   8.837   3.592  14.028
76841SOL    HW132355   8.899   3.541  14.080
76841SOL    HW232356   8.877   3.679  14.022
76842SOL     OW32357   5.500   8.026   5.155
76842SOL    HW132358   5.469   8.062   5.072
76842SOL    HW232359   5.533   7.939   5.132
76843SOL     OW32360  12.675  11.160   5.614
76843SOL    HW132361  12.654  11.227   5.548
76843SOL    HW232362  12.680  11.078   5.564
76844SOL     OW32363  12.336   2.465  12.082
76844SOL    HW132364  12.346   2.459  11.987
76844SOL    HW232365  12.328   2.559  12.100
76845SOL     OW32366   6.622  11.680   9.524
76845SOL    HW132367   6.591  11.629   9.599
76845SOL    HW232368   6.563  11.657   9.453
76846SOL     OW32369   3.255   6.861  10.948
76846SOL    HW132370   3.327   6.798  10.951
76846SOL    HW232371   3.205   6.836  10.870
76847SOL     OW32372   1.552  11.568  11.380
76847SOL    HW132373   1.469  11.607  11.406
76847SOL    HW232374   1.543  11.554  11.286
76848SOL     OW32375  13.592  13.473  13.464
76848SOL    HW132376  13.546  13.530  13.525
76848SOL    HW232377  13.674  13.518  13.446
76849SOL     OW32378   6.937   3.638   3.138
76849SOL    HW132379   7.029   3.619   3.115
76849SOL    HW232380   6.906   3.695   3.067
76850SOL     OW32381   6.407  13.014   1.279
76850SOL    HW132382   6.457  12.935   1.296
76850SOL    HW232383   6.461  13.064   1.217
76851SOL     OW32384   5.745   7.203   3.138
76851SOL    HW132385   5.717   7.179   3.050
76851SOL    HW232386   5.828   7.157   3.151
76852SOL     OW32387  12.558  14.829   7.739
76852SOL    HW132388  12.570   0.014   7.807
76852SOL    HW232389  12.472  14.790   7.759
76853SOL     OW32390  12.659   5.672   7.818
76853SOL    HW132391  12.583   5.659   7.875
76853SOL    HW232392  12.622   5.694   7.732
76854SOL     OW32393   5.285   0.927   3.822
76854SOL    HW132394   5.354   0.927   3.756
76854SOL    HW232395   5.324   0.883   3.898
76855SOL     OW32396   1.001   4.790   9.581
76855SOL    HW132397   0.959   4.852   9.521
76855SOL    HW232398   0.930   4.761   9.639
76856SOL     OW32399   3.660   5.442   3.515
76856SOL    HW132400   3.693   5.504   3.579
76856SOL    HW232401   3.717   5.453   3.439
76857SOL     OW32402   6.209   8.018  13.040
76857SOL    HW132403   6.272   7.946  13.030
76857SOL    HW232404   6.242   8.088  12.984
76858SOL     OW32405   4.424  10.876  11.751
76858SOL    HW132406   4.341  10.911  11.785
76858SOL    HW232407   4.454  10.942  11.689
76859SOL     OW32408  13.763   9.641   9.208
76859SOL    HW132409  13.845   9.645   9.258
76859SOL    HW232410  13.779   9.575   9.141
76860SOL     OW32411   1.140  13.919   8.403
76860SOL    HW132412   1.150  13.913   8.498
76860SOL    HW232413   1.085  13.996   8.388
76861SOL     OW32414   0.479   5.530   7.967
76861SOL    HW132415   0.419   5.506   8.038
76861SOL    HW232416   0.546   5.461   7.968
76862SOL     OW32417   2.637   2.816  14.704
76862SOL    HW132418   2.649   2.874  14.628
76862SOL    HW232419   2.673   2.865  14.778
76863SOL     OW32420   9.217  11.048   8.451
76863SOL    HW132421   9.278  11.119   8.429
76863SOL    HW232422   9.267  10.990   8.508
76864SOL     OW32423  10.832  12.671   2.701
76864SOL    HW132424  10.865  12.607   2.765
76864SOL    HW232425  10.816  12.750   2.753
76865SOL     OW32426  14.398   7.412   9.830
76865SOL    HW132427  14.422   7.435   9.741
76865SOL    HW232428  14.304   7.399   9.828
76866SOL     OW32429   6.069   5.130   3.240
76866SOL    HW132430   5.996   5.184   3.270
76866SOL    HW232431   6.076   5.149   3.146
76867SOL     OW32432   1.671   6.159   7.594
76867SOL    HW132433   1.611   6.099   7.549
76867SOL    HW232434   1.746   6.167   7.535
76868SOL     OW32435   3.308   7.824  11.757
76868SOL    HW132436   3.361   7.754  11.794
76868SOL    HW232437   3.315   7.896  11.820
76869SOL     OW32438   1.892   2.626   7.784
76869SOL    HW132439   1.952   2.565   7.827
76869SOL    HW232440   1.811   2.575   7.774
76870SOL     OW32441  11.008   0.111   8.066
76870SOL    HW132442  10.959   0.176   8.014
76870SOL    HW232443  10.942   0.071   8.122
76871SOL     OW32444   3.125  13.098  14.162
76871SOL    HW132445   3.184  13.034  14.201
76871SOL    HW232446   3.115  13.165  14.229
76872SOL     OW32447   6.933  12.050   6.405
76872SOL    HW132448   6.936  12.110   6.330
76872SOL    HW232449   6.933  12.108   6.481
76873SOL     OW32450   9.172   7.061   0.393
76873SOL    HW132451   9.139   7.102   0.472
76873SOL    HW232452   9.258   7.026   0.417
76874SOL     OW32453   1.322   9.275  12.317
76874SOL    HW132454   1.326   9.262  12.412
76874SOL    HW232455   1.230   9.295  12.300
76875SOL     OW32456   1.305   8.471   3.158
76875SOL    HW132457   1.233   8.515   3.114
76875SOL    HW232458   1.378   8.477   3.096
76876SOL     OW32459  10.177  11.476  11.133
76876SOL    HW132460  10.243  11.446  11.196
76876SOL    HW232461  10.196  11.428  11.053
76877SOL     OW32462  12.156   1.913  10.648
76877SOL    HW132463  12.220   1.895  10.579
76877SOL    HW232464  12.175   2.003  10.675
76878SOL     OW32465  11.439   8.224   2.059
76878SOL    HW132466  11.424   8.212   1.965
76878SOL    HW232467  11.531   8.250   2.065
76879SOL     OW32468  14.742  12.875   6.960
76879SOL    HW132469  14.833  12.859   6.986
76879SOL    HW232470  14.734  12.834   6.873
76880SOL     OW32471  12.964   7.326  11.464
76880SOL    HW132472  12.885   7.361  11.424
76880SOL    HW232473  12.966   7.234  11.437
76881SOL     OW32474   0.556   2.367  12.650
76881SOL    HW132475   0.523   2.358  12.560
76881SOL    HW232476   0.584   2.459  12.656
76882SOL     OW32477   6.527  13.121  10.333
76882SOL    HW132478   6.553  13.163  10.415
76882SOL    HW232479   6.590  13.049  10.323
76883SOL     OW32480   9.625  12.139  10.890
76883SOL    HW132481   9.716  12.155  10.864
76883SOL    HW232482   9.594  12.224  10.922
76884SOL     OW32483  10.078   4.021  14.279
76884SOL    HW132484  10.068   4.104  14.232
76884SOL    HW232485  10.111   4.046  14.365
76885SOL     OW32486   6.443   4.789  12.147
76885SOL    HW132487   6.512   4.826  12.200
76885SOL    HW232488   6.483   4.715  12.101
76886SOL     OW32489  13.925   4.580   4.440
76886SOL    HW132490  13.909   4.674   4.431
76886SOL    HW232491  13.893   4.541   4.359
76887SOL     OW32492   6.888   0.580  11.612
76887SOL    HW132493   6.885   0.530  11.693
76887SOL    HW232494   6.981   0.592  11.594
76888SOL     OW32495   1.172   7.359   5.348
76888SOL    HW132496   1.155   7.450   5.323
76888SOL    HW232497   1.244   7.364   5.410
76889SOL     OW32498   2.498  13.621   0.518
76889SOL    HW132499   2.564  13.561   0.552
76889SOL    HW232500   2.537  13.658   0.440
76890SOL     OW32501   6.362   5.815   7.966
76890SOL    HW132502   6.316   5.898   7.983
76890SOL    HW232503   6.419   5.803   8.042
76891SOL     OW32504  11.913   5.624   0.414
76891SOL    HW132505  11.936   5.585   0.499
76891SOL    HW232506  11.894   5.716   0.434
76892SOL     OW32507   0.046   6.165  12.355
76892SOL    HW132508   0.028   6.131  12.442
76892SOL    HW232509   0.088   6.092  12.309
76893SOL     OW32510   0.914   6.767   5.089
76893SOL    HW132511   0.846   6.726   5.142
76893SOL    HW232512   0.875   6.849   5.059
76894SOL     OW32513   5.618   4.331  12.903
76894SOL    HW132514   5.532   4.308  12.870
76894SOL    HW232515   5.621   4.426  12.898
76895SOL     OW32516  10.174   2.870   3.618
76895SOL    HW132517  10.199   2.799   3.558
76895SOL    HW232518  10.111   2.829   3.677
76896SOL     OW32519  11.318  11.400   0.203
76896SOL    HW132520  11.403  11.438   0.185
76896SOL    HW232521  11.326  11.360   0.289
76897SOL     OW32522   1.688  11.728  13.863
76897SOL    HW132523   1.775  11.697  13.839
76897SOL    HW232524   1.639  11.648  13.882
76898SOL     OW32525  13.987  12.805   9.788
76898SOL    HW132526  14.039  12.875   9.827
76898SOL    HW232527  13.901  12.813   9.828
76899SOL     OW32528   4.544  14.080   9.578
76899SOL    HW132529   4.568  14.120   9.495
76899SOL    HW232530   4.480  14.012   9.555
76900SOL     OW32531   6.045   9.161   0.590
76900SOL    HW132532   6.085   9.248   0.584
76900SOL    HW232533   6.117   9.102   0.611
76901SOL     OW32534  13.330   7.435  10.150
76901SOL    HW132535  13.243   7.460  10.118
76901SOL    HW232536  13.327   7.340  10.158
76902SOL     OW32537   2.348   5.144  13.109
76902SOL    HW132538   2.413   5.213  13.099
76902SOL    HW232539   2.400   5.063  13.114
76903SOL     OW32540   7.418  12.286   8.710
76903SOL    HW132541   7.394  12.295   8.618
76903SOL    HW232542   7.514  12.285   8.710
76904SOL     OW32543   0.868   3.100   2.558
76904SOL    HW132544   0.847   3.146   2.639
76904SOL    HW232545   0.926   3.160   2.510
76905SOL     OW32546   1.607   4.528  10.952
76905SOL    HW132547   1.687   4.477  10.964
76905SOL    HW232548   1.574   4.501  10.866
76906SOL     OW32549   5.986   5.432   3.486
76906SOL    HW132550   5.965   5.439   3.579
76906SOL    HW232551   6.067   5.481   3.476
76907SOL     OW32552   2.040   3.427   2.176
76907SOL    HW132553   2.129   3.440   2.144
76907SOL    HW232554   2.014   3.512   2.211
76908SOL     OW32555   7.665  10.259  14.608
76908SOL    HW132556   7.649  10.338  14.556
76908SOL    HW232557   7.587  10.248  14.661
76909SOL     OW32558  10.850   7.964   5.080
76909SOL    HW132559  10.907   7.892   5.054
76909SOL    HW232560  10.904   8.019   5.135
76910SOL     OW32561  10.883   2.578  13.241
76910SOL    HW132562  10.957   2.635  13.219
76910SOL    HW232563  10.915   2.489  13.225
76911SOL     OW32564  10.260  12.154   0.024
76911SOL    HW132565  10.262  12.163   0.120
76911SOL    HW232566  10.272  12.243  14.874
76912SOL     OW32567   6.276  13.603   3.914
76912SOL    HW132568   6.313  13.536   3.972
76912SOL    HW232569   6.347  13.666   3.901
76913SOL     OW32570   3.839   5.545  12.527
76913SOL    HW132571   3.787   5.577  12.601
76913SOL    HW232572   3.830   5.613  12.460
76914SOL     OW32573   0.499  13.049   9.156
76914SOL    HW132574   0.556  13.116   9.193
76914SOL    HW232575   0.412  13.070   9.193
76915SOL     OW32576  13.664  11.088  14.802
76915SOL    HW132577  13.665  11.117  14.711
76915SOL    HW232578  13.639  11.166  14.852
76916SOL     OW32579   0.084   7.426  13.190
76916SOL    HW132580   0.122   7.463  13.110
76916SOL    HW232581   0.085   7.498  13.253
76917SOL     OW32582   5.991   0.218   5.804
76917SOL    HW132583   5.910   0.168   5.809
76917SOL    HW232584   6.027   0.198   5.718
76918SOL     OW32585   4.018   3.248  10.068
76918SOL    HW132586   3.943   3.303  10.091
76918SOL    HW232587   4.020   3.250   9.972
76919SOL     OW32588  10.678   9.858  13.251
76919SOL    HW132589  10.694   9.909  13.171
76919SOL    HW232590  10.651   9.772  13.219
76920SOL     OW32591  10.800   2.615   4.037
76920SOL    HW132592  10.808   2.520   4.046
76920SOL    HW232593  10.848   2.635   3.956
76921SOL     OW32594   8.519  10.258  12.627
76921SOL    HW132595   8.605  10.217  12.640
76921SOL    HW232596   8.516  10.279  12.533
76922SOL     OW32597  10.255  13.080  11.376
76922SOL    HW132598  10.279  13.070  11.468
76922SOL    HW232599  10.315  13.022  11.329
76923SOL     OW32600   3.192  12.125  11.219
76923SOL    HW132601   3.190  12.191  11.150
76923SOL    HW232602   3.281  12.127  11.253
76924SOL     OW32603   8.496   9.925   2.217
76924SOL    HW132604   8.549   9.909   2.139
76924SOL    HW232605   8.535  10.003   2.258
76925SOL     OW32606  10.903  12.470  11.906
76925SOL    HW132607  10.846  12.429  11.840
76925SOL    HW232608  10.986  12.423  11.898
76926SOL     OW32609   1.227   3.447  12.669
76926SOL    HW132610   1.139   3.447  12.631
76926SOL    HW232611   1.276   3.384  12.616
76927SOL     OW32612  11.479   9.533   6.722
76927SOL    HW132613  11.519   9.550   6.636
76927SOL    HW232614  11.503   9.443   6.742
76928SOL     OW32615   1.962  12.878   4.015
76928SOL    HW132616   1.943  12.895   3.922
76928SOL    HW232617   1.919  12.950   4.061
76929SOL     OW32618   4.198   6.529  11.686
76929SOL    HW132619   4.109   6.526  11.650
76929SOL    HW232620   4.254   6.540  11.609
76930SOL     OW32621   5.446   2.857  12.398
76930SOL    HW132622   5.518   2.853  12.462
76930SOL    HW232623   5.465   2.935  12.347
76931SOL     OW32624   2.063   1.472   2.732
76931SOL    HW132625   1.980   1.515   2.713
76931SOL    HW232626   2.052   1.436   2.820
76932SOL     OW32627  13.024   1.570   3.910
76932SOL    HW132628  12.986   1.584   3.997
76932SOL    HW232629  13.118   1.582   3.924
76933SOL     OW32630   5.086   4.880   8.488
76933SOL    HW132631   5.177   4.863   8.511
76933SOL    HW232632   5.074   4.973   8.507
76934SOL     OW32633   8.123  14.758   7.014
76934SOL    HW132634   8.076  14.826   7.063
76934SOL    HW232635   8.212  14.793   7.004
76935SOL     OW32636  11.014  11.649   1.337
76935SOL    HW132637  11.050  11.576   1.388
76935SOL    HW232638  10.920  11.643   1.352
76936SOL     OW32639   9.821   8.376   8.837
76936SOL    HW132640   9.766   8.304   8.868
76936SOL    HW232641   9.774   8.455   8.861
76937SOL     OW32642   6.837  13.969   3.806
76937SOL    HW132643   6.802  14.041   3.859
76937SOL    HW232644   6.767  13.950   3.743
76938SOL     OW32645   1.310   0.695   3.179
76938SOL    HW132646   1.322   0.775   3.231
76938SOL    HW232647   1.358   0.628   3.226
76939SOL     OW32648  12.707  11.693   8.852
76939SOL    HW132649  12.766  11.665   8.782
76939SOL    HW232650  12.620  11.670   8.820
76940SOL     OW32651   7.495   7.446   9.955
76940SOL    HW132652   7.497   7.351   9.963
76940SOL    HW232653   7.481   7.477  10.044
76941SOL     OW32654  10.115   6.661   9.480
76941SOL    HW132655  10.030   6.702   9.466
76941SOL    HW232656  10.175   6.711   9.424
76942SOL     OW32657   8.961   7.030   5.902
76942SOL    HW132658   8.966   6.937   5.883
76942SOL    HW232659   8.887   7.037   5.964
76943SOL     OW32660  14.298   9.261  10.079
76943SOL    HW132661  14.214   9.303  10.059
76943SOL    HW232662  14.303   9.262  10.174
76944SOL     OW32663   5.644   7.073  14.004
76944SOL    HW132664   5.665   7.132  14.076
76944SOL    HW232665   5.633   6.987  14.046
76945SOL     OW32666  13.694   0.800   9.353
76945SOL    HW132667  13.625   0.830   9.412
76945SOL    HW232668  13.667   0.830   9.266
76946SOL     OW32669  13.001   5.865   0.158
76946SOL    HW132670  12.994   5.875   0.063
76946SOL    HW232671  13.007   5.770   0.171
76947SOL     OW32672   4.118  10.430   5.736
76947SOL    HW132673   4.171  10.383   5.671
76947SOL    HW232674   4.086  10.362   5.795
76948SOL     OW32675   2.498  10.358   0.810
76948SOL    HW132676   2.576  10.310   0.837
76948SOL    HW232677   2.472  10.408   0.887
76949SOL     OW32678  13.251   0.650  11.890
76949SOL    HW132679  13.188   0.651  11.962
76949SOL    HW232680  13.198   0.662  11.811
76950SOL     OW32681   6.194  10.595   7.763
76950SOL    HW132682   6.226  10.637   7.843
76950SOL    HW232683   6.147  10.664   7.716
76951SOL     OW32684   1.466   5.892  13.319
76951SOL    HW132685   1.428   5.812  13.354
76951SOL    HW232686   1.432   5.898  13.230
76952SOL     OW32687  13.358  14.200   7.114
76952SOL    HW132688  13.282  14.220   7.060
76952SOL    HW232689  13.332  14.122   7.164
76953SOL     OW32690  11.908   0.817   0.962
76953SOL    HW132691  11.880   0.725   0.962
76953SOL    HW232692  11.983   0.819   1.021
76954SOL     OW32693   1.727   5.463   9.354
76954SOL    HW132694   1.717   5.441   9.447
76954SOL    HW232695   1.750   5.380   9.312
76955SOL     OW32696  14.460   1.430   6.378
76955SOL    HW132697  14.450   1.350   6.430
76955SOL    HW232698  14.421   1.499   6.432
76956SOL     OW32699  13.126   0.071   5.686
76956SOL    HW132700  13.094   0.132   5.753
76956SOL    HW232701  13.164   0.127   5.619
76957SOL     OW32702   8.140  12.708   0.957
76957SOL    HW132703   8.047  12.722   0.940
76957SOL    HW232704   8.159  12.623   0.917
76958SOL     OW32705   6.928  12.390  14.518
76958SOL    HW132706   6.887  12.304  14.525
76958SOL    HW232707   6.862  12.451  14.549
76959SOL     OW32708   9.686   9.934  12.669
76959SOL    HW132709   9.650   9.958  12.754
76959SOL    HW232710   9.638   9.855  12.643
76960SOL     OW32711  10.887   1.834  11.168
76960SOL    HW132712  10.856   1.925  11.162
76960SOL    HW232713  10.813   1.786  11.205
76961SOL     OW32714   6.854   8.080  14.505
76961SOL    HW132715   6.901   8.042  14.579
76961SOL    HW232716   6.883   8.029  14.429
76962SOL     OW32717   1.365   3.949  13.843
76962SOL    HW132718   1.447   3.914  13.879
76962SOL    HW232719   1.340   4.019  13.904
76963SOL     OW32720  12.946  10.483   7.241
76963SOL    HW132721  12.885  10.552   7.266
76963SOL    HW232722  12.931  10.470   7.148
76964SOL     OW32723  14.036  10.522   3.065
76964SOL    HW132724  14.002  10.498   3.152
76964SOL    HW232725  14.101  10.454   3.045
76965SOL     OW32726   7.447   4.454   3.289
76965SOL    HW132727   7.367   4.486   3.247
76965SOL    HW232728   7.418   4.382   3.344
76966SOL     OW32729   2.554   5.777  10.998
76966SOL    HW132730   2.547   5.873  10.989
76966SOL    HW232731   2.630   5.755  10.944
76967SOL     OW32732   8.273   3.128   1.452
76967SOL    HW132733   8.288   3.216   1.417
76967SOL    HW232734   8.259   3.142   1.546
76968SOL     OW32735   2.615   7.553   7.148
76968SOL    HW132736   2.573   7.548   7.234
76968SOL    HW232737   2.669   7.475   7.143
76969SOL     OW32738   1.281  13.075   7.804
76969SOL    HW132739   1.338  13.151   7.802
76969SOL    HW232740   1.193  13.111   7.793
76970SOL     OW32741  11.343  10.386  14.736
76970SOL    HW132742  11.263  10.349  14.698
76970SOL    HW232743  11.311  10.449  14.801
76971SOL     OW32744   1.521  12.768   1.441
76971SOL    HW132745   1.490  12.855   1.417
76971SOL    HW232746   1.615  12.770   1.423
76972SOL     OW32747  12.741   7.276   3.105
76972SOL    HW132748  12.672   7.216   3.134
76972SOL    HW232749  12.803   7.278   3.178
76973SOL     OW32750  11.425   6.662   9.582
76973SOL    HW132751  11.383   6.628   9.503
76973SOL    HW232752  11.511   6.620   9.583
76974SOL     OW32753   5.416   8.934   8.364
76974SOL    HW132754   5.329   8.915   8.399
76974SOL    HW232755   5.434   8.863   8.303
76975SOL     OW32756   6.831   4.337  11.195
76975SOL    HW132757   6.850   4.392  11.119
76975SOL    HW232758   6.867   4.252  11.172
76976SOL     OW32759  14.079   9.683   5.037
76976SOL    HW132760  14.035   9.717   5.115
76976SOL    HW232761  14.151   9.743   5.022
76977SOL     OW32762   4.407   9.103  10.686
76977SOL    HW132763   4.396   9.120  10.592
76977SOL    HW232764   4.424   9.009  10.691
76978SOL     OW32765   9.929  10.165   6.296
76978SOL    HW132766   9.952  10.213   6.375
76978SOL    HW232767   9.839  10.137   6.310
76979SOL     OW32768   9.666   7.024  10.587
76979SOL    HW132769   9.697   6.981  10.508
76979SOL    HW232770   9.745   7.040  10.638
76980SOL     OW32771   4.349   3.378   6.858
76980SOL    HW132772   4.314   3.330   6.783
76980SOL    HW232773   4.276   3.384   6.920
76981SOL     OW32774   4.319  11.471   2.734
76981SOL    HW132775   4.359  11.557   2.723
76981SOL    HW232776   4.291  11.446   2.646
76982SOL     OW32777  11.489  13.632  10.742
76982SOL    HW132778  11.404  13.676  10.745
76982SOL    HW232779  11.533  13.670  10.665
76983SOL     OW32780   7.628   7.471   9.201
76983SOL    HW132781   7.723   7.470   9.210
76983SOL    HW232782   7.596   7.517   9.278
76984SOL     OW32783   7.782   4.727   5.601
76984SOL    HW132784   7.833   4.729   5.682
76984SOL    HW232785   7.845   4.702   5.534
76985SOL     OW32786   7.993   6.154   1.683
76985SOL    HW132787   7.972   6.246   1.667
76985SOL    HW232788   8.067   6.135   1.625
76986SOL     OW32789   7.977   0.426  12.602
76986SOL    HW132790   8.043   0.422  12.671
76986SOL    HW232791   7.911   0.362  12.629
76987SOL     OW32792  13.643  14.803   1.154
76987SOL    HW132793  13.733  14.826   1.131
76987SOL    HW232794  13.621  14.730   1.096
76988SOL     OW32795   8.511  12.096  12.498
76988SOL    HW132796   8.589  12.049  12.468
76988SOL    HW232797   8.485  12.149  12.423
76989SOL     OW32798  13.609   7.712  11.147
76989SOL    HW132799  13.676   7.752  11.202
76989SOL    HW232800  13.534   7.771  11.154
76990SOL     OW32801  11.236   2.139  12.340
76990SOL    HW132802  11.176   2.211  12.356
76990SOL    HW232803  11.254   2.143  12.246
76991SOL     OW32804  12.823   4.038   7.821
76991SOL    HW132805  12.906   4.030   7.774
76991SOL    HW232806  12.792   4.126   7.801
76992SOL     OW32807   8.115  13.279   5.329
76992SOL    HW132808   8.103  13.343   5.399
76992SOL    HW232809   8.207  13.288   5.303
76993SOL     OW32810   6.041  13.323   8.148
76993SOL    HW132811   6.017  13.369   8.229
76993SOL    HW232812   6.054  13.232   8.175
76994SOL     OW32813  13.257  14.796   0.076
76994SOL    HW132814  13.282  14.871   0.023
76994SOL    HW232815  13.314  14.801   0.153
76995SOL     OW32816  14.385  10.314   3.943
76995SOL    HW132817  14.331  10.350   3.873
76995SOL    HW232818  14.350  10.352   4.023
76996SOL     OW32819  12.689   7.693  10.026
76996SOL    HW132820  12.616   7.653   9.979
76996SOL    HW232821  12.659   7.782  10.047
76997SOL     OW32822   4.895  13.934   0.804
76997SOL    HW132823   4.897  13.844   0.836
76997SOL    HW232824   4.879  13.986   0.882
76998SOL     OW32825   6.165   4.713   9.719
76998SOL    HW132826   6.246   4.664   9.710
76998SOL    HW232827   6.101   4.665   9.666
76999SOL     OW32828  14.560  12.532   6.458
76999SOL    HW132829  14.536  12.622   6.479
76999SOL    HW232830  14.487  12.479   6.492
77000SOL     OW32831  11.918   2.060   2.900
77000SOL    HW132832  11.997   2.096   2.941
77000SOL    HW232833  11.901   2.117   2.826
77001SOL     OW32834   7.792   6.965   9.010
77001SOL    HW132835   7.712   6.918   9.033
77001SOL    HW232836   7.763   7.055   8.995
77002SOL     OW32837   7.381  10.780   3.293
77002SOL    HW132838   7.436  10.701   3.301
77002SOL    HW232839   7.321  10.760   3.222
77003SOL     OW32840  13.478  10.551   4.308
77003SOL    HW132841  13.565  10.590   4.317
77003SOL    HW232842  13.489  10.461   4.338
77004SOL     OW32843  14.697   1.072  11.536
77004SOL    HW132844  14.640   0.996  11.550
77004SOL    HW232845  14.687   1.124  11.615
77005SOL     OW32846   3.578   3.928  14.313
77005SOL    HW132847   3.616   4.012  14.338
77005SOL    HW232848   3.590   3.872  14.390
77006SOL     OW32849   3.433   7.585   5.187
77006SOL    HW132850   3.526   7.599   5.208
77006SOL    HW232851   3.390   7.579   5.272
77007SOL     OW32852   5.363   6.212   3.918
77007SOL    HW132853   5.372   6.263   3.837
77007SOL    HW232854   5.447   6.167   3.928
77008SOL     OW32855  14.592   6.466   3.653
77008SOL    HW132856  14.591   6.387   3.599
77008SOL    HW232857  14.679   6.504   3.637
77009SOL     OW32858   1.369   2.178   8.987
77009SOL    HW132859   1.437   2.237   9.019
77009SOL    HW232860   1.337   2.220   8.907
77010SOL     OW32861   8.098   6.615  11.985
77010SOL    HW132862   8.078   6.675  11.914
77010SOL    HW232863   8.189   6.635  12.008
77011SOL     OW32864  13.632  12.444   0.521
77011SOL    HW132865  13.645  12.361   0.475
77011SOL    HW232866  13.581  12.420   0.599
77012SOL     OW32867  12.695  12.289   6.985
77012SOL    HW132868  12.759  12.249   7.044
77012SOL    HW232869  12.694  12.382   7.011
77013SOL     OW32870   1.799   6.710   2.532
77013SOL    HW132871   1.872   6.684   2.475
77013SOL    HW232872   1.841   6.740   2.612
77014SOL     OW32873   7.347   5.067   3.919
77014SOL    HW132874   7.407   5.022   3.860
77014SOL    HW232875   7.368   5.032   4.006
77015SOL     OW32876   4.644   1.589   2.600
77015SOL    HW132877   4.702   1.514   2.607
77015SOL    HW232878   4.689   1.659   2.648
77016SOL     OW32879   7.640   5.409   3.255
77016SOL    HW132880   7.545   5.408   3.238
77016SOL    HW232881   7.670   5.490   3.214
77017SOL     OW32882   3.265   4.258   5.688
77017SOL    HW132883   3.222   4.192   5.633
77017SOL    HW232884   3.221   4.340   5.667
77018SOL     OW32885  10.420   8.840   4.809
77018SOL    HW132886  10.369   8.854   4.889
77018SOL    HW232887  10.362   8.868   4.738
77019SOL     OW32888   5.081  10.388   0.125
77019SOL    HW132889   5.152  10.452   0.127
77019SOL    HW232890   5.120  10.312   0.081
77020SOL     OW32891  14.864   3.894  10.100
77020SOL    HW132892  14.790   3.917  10.044
77020SOL    HW232893  14.837   3.812  10.142
77021SOL     OW32894   4.265  12.706   4.218
77021SOL    HW132895   4.266  12.625   4.269
77021SOL    HW232896   4.172  12.724   4.203
77022SOL     OW32897   0.079   6.886   6.760
77022SOL    HW132898   0.021   6.910   6.832
77022SOL    HW232899   0.143   6.957   6.756
77023SOL     OW32900   0.032   5.928   0.330
77023SOL    HW132901   0.048   5.835   0.345
77023SOL    HW232902   0.057   5.971   0.412
77024SOL     OW32903  12.762   1.815   8.872
77024SOL    HW132904  12.769   1.850   8.961
77024SOL    HW232905  12.816   1.736   8.872
77025SOL     OW32906   8.285   0.735  11.738
77025SOL    HW132907   8.199   0.693  11.735
77025SOL    HW232908   8.306   0.752  11.646
77026SOL     OW32909   3.807   4.421  11.515
77026SOL    HW132910   3.881   4.479  11.536
77026SOL    HW232911   3.770   4.457  11.435
77027SOL     OW32912   0.402  12.709   1.681
77027SOL    HW132913   0.379  12.783   1.737
77027SOL    HW232914   0.320  12.662   1.666
77028SOL     OW32915   1.101   1.902   3.978
77028SOL    HW132916   1.011   1.873   3.964
77028SOL    HW232917   1.093   1.979   4.034
77029SOL     OW32918  10.942  13.431   9.237
77029SOL    HW132919  10.955  13.356   9.179
77029SOL    HW232920  10.959  13.397   9.325
77030SOL     OW32921  13.899  13.374  14.877
77030SOL    HW132922  13.826  13.413   0.043
77030SOL    HW232923  13.873  13.378  14.785
77031SOL     OW32924  12.293   9.892  11.946
77031SOL    HW132925  12.227   9.894  12.015
77031SOL    HW232926  12.335   9.806  11.956
77032SOL     OW32927  14.617   2.488   0.703
77032SOL    HW132928  14.533   2.526   0.729
77032SOL    HW232929  14.600   2.394   0.697
77033SOL     OW32930   4.160   4.559   4.910
77033SOL    HW132931   4.178   4.558   4.816
77033SOL    HW232932   4.093   4.626   4.920
77034SOL     OW32933   5.220   7.644   2.066
77034SOL    HW132934   5.211   7.579   1.997
77034SOL    HW232935   5.143   7.700   2.057
77035SOL     OW32936   4.420  10.409   6.345
77035SOL    HW132937   4.355  10.430   6.412
77035SOL    HW232938   4.470  10.336   6.382
77036SOL     OW32939  13.444   1.465   5.955
77036SOL    HW132940  13.474   1.376   5.970
77036SOL    HW232941  13.509   1.502   5.895
77037SOL     OW32942   7.783   9.083   8.032
77037SOL    HW132943   7.710   9.144   8.044
77037SOL    HW232944   7.795   9.078   7.937
77038SOL     OW32945   5.505   7.879   3.141
77038SOL    HW132946   5.410   7.874   3.137
77038SOL    HW232947   5.522   7.932   3.220
77039SOL     OW32948   6.946  13.407   9.095
77039SOL    HW132949   6.965  13.501   9.104
77039SOL    HW232950   6.913  13.381   9.181
77040SOL     OW32951   7.093   5.231  14.660
77040SOL    HW132952   7.085   5.326  14.656
77040SOL    HW232953   7.044   5.207  14.739
77041SOL     OW32954   1.581   8.396   1.295
77041SOL    HW132955   1.489   8.422   1.287
77041SOL    HW232956   1.610   8.386   1.204
77042SOL     OW32957  10.899   0.035  12.466
77042SOL    HW132958  10.911   0.043  12.372
77042SOL    HW232959  10.901  14.822  12.482
77043SOL     OW32960   0.152   0.053   2.852
77043SOL    HW132961   0.234   0.013   2.824
77043SOL    HW232962   0.098  14.860   2.880
77044SOL     OW32963   4.369   4.654  11.355
77044SOL    HW132964   4.294   4.697  11.314
77044SOL    HW232965   4.413   4.609  11.283
77045SOL     OW32966  11.182  14.645   4.090
77045SOL    HW132967  11.198  14.715   4.027
77045SOL    HW232968  11.220  14.678   4.172
77046SOL     OW32969   1.432   8.332  13.322
77046SOL    HW132970   1.447   8.426  13.331
77046SOL    HW232971   1.498   8.302  13.260
77047SOL     OW32972   4.748   4.124   7.202
77047SOL    HW132973   4.784   4.165   7.123
77047SOL    HW232974   4.727   4.034   7.175
77048SOL     OW32975  12.734   8.206   1.203
77048SOL    HW132976  12.798   8.210   1.274
77048SOL    HW232977  12.737   8.293   1.163
77049SOL     OW32978   7.110  11.542   0.980
77049SOL    HW132979   7.029  11.507   0.944
77049SOL    HW232980   7.118  11.502   1.066
77050SOL     OW32981   6.652  12.178  12.223
77050SOL    HW132982   6.683  12.269  12.233
77050SOL    HW232983   6.721  12.135  12.173
77051SOL     OW32984   7.480  14.663  14.181
77051SOL    HW132985   7.467  14.592  14.244
77051SOL    HW232986   7.472  14.622  14.096
77052SOL     OW32987  11.959   2.658   1.796
77052SOL    HW132988  11.893   2.721   1.767
77052SOL    HW232989  11.921   2.619   1.875
77053SOL     OW32990  10.975  14.652  14.220
77053SOL    HW132991  11.022  14.582  14.264
77053SOL    HW232992  11.022  14.665  14.138
77054SOL     OW32993   9.390   0.587   8.266
77054SOL    HW132994   9.398   0.493   8.252
77054SOL    HW232995   9.381   0.597   8.361
77055SOL     OW32996   2.433   1.745   6.565
77055SOL    HW132997   2.441   1.777   6.655
77055SOL    HW232998   2.524   1.726   6.539
77056SOL     OW32999  11.915  14.545   8.436
77056SOL    HW133000  11.881  14.456   8.427
77056SOL    HW233001  11.965  14.559   8.355
77057SOL     OW33002   3.860   8.526   5.542
77057SOL    HW133003   3.789   8.507   5.603
77057SOL    HW233004   3.935   8.479   5.576
77058SOL     OW33005   4.162   8.782  13.797
77058SOL    HW133006   4.219   8.735  13.735
77058SOL    HW233007   4.183   8.745  13.882
77059SOL     OW33008  13.890   5.654   6.449
77059SOL    HW133009  13.911   5.747   6.461
77059SOL    HW233010  13.796   5.648   6.466
77060SOL     OW33011   3.818   5.548   6.172
77060SOL    HW133012   3.868   5.588   6.101
77060SOL    HW233013   3.787   5.622   6.225
77061SOL     OW33014  11.641  13.448   1.867
77061SOL    HW133015  11.600  13.490   1.943
77061SOL    HW233016  11.691  13.518   1.825
77062SOL     OW33017   7.089   7.495   4.587
77062SOL    HW133018   7.093   7.589   4.575
77062SOL    HW233019   7.043   7.483   4.670
77063SOL     OW33020   8.393  12.627   8.002
77063SOL    HW133021   8.444  12.564   7.951
77063SOL    HW233022   8.420  12.611   8.093
77064SOL     OW33023   4.359   2.000   2.348
77064SOL    HW133024   4.393   2.029   2.264
77064SOL    HW233025   4.292   2.064   2.371
77065SOL     OW33026   4.505  13.351   3.386
77065SOL    HW133027   4.551  13.270   3.406
77065SOL    HW233028   4.502  13.398   3.470
77066SOL     OW33029   0.210   5.300  10.222
77066SOL    HW133030   0.259   5.372  10.183
77066SOL    HW233031   0.267   5.224  10.214
77067SOL     OW33032   7.730  12.500  10.738
77067SOL    HW133033   7.643  12.460  10.742
77067SOL    HW233034   7.757  12.492  10.647
77068SOL     OW33035   4.749  14.827   7.198
77068SOL    HW133036   4.759  14.733   7.179
77068SOL    HW233037   4.748  14.869   7.113
77069SOL     OW33038   8.483   0.884   1.619
77069SOL    HW133039   8.512   0.933   1.695
77069SOL    HW233040   8.408   0.833   1.650
77070SOL     OW33041  11.160   9.346  10.426
77070SOL    HW133042  11.117   9.308  10.503
77070SOL    HW233043  11.104   9.419  10.401
77071SOL     OW33044   4.309  13.167   1.734
77071SOL    HW133045   4.324  13.209   1.819
77071SOL    HW233046   4.397  13.144   1.704
77072SOL     OW33047   5.603  11.546   6.156
77072SOL    HW133048   5.558  11.513   6.234
77072SOL    HW233049   5.574  11.489   6.085
77073SOL     OW33050   4.195   7.505   8.609
77073SOL    HW133051   4.290   7.520   8.611
77073SOL    HW233052   4.159   7.581   8.655
77074SOL     OW33053   6.248   4.595  10.633
77074SOL    HW133054   6.224   4.544  10.711
77074SOL    HW233055   6.167   4.598  10.581
77075SOL     OW33056   4.424  12.768   3.241
77075SOL    HW133057   4.356  12.785   3.176
77075SOL    HW233058   4.415  12.674   3.259
77076SOL     OW33059   9.478   4.459   8.183
77076SOL    HW133060   9.487   4.370   8.148
77076SOL    HW233061   9.389   4.485   8.162
77077SOL     OW33062   7.340   8.500   0.691
77077SOL    HW133063   7.259   8.494   0.640
77077SOL    HW233064   7.398   8.436   0.651
77078SOL     OW33065   1.707   5.564  12.259
77078SOL    HW133066   1.722   5.535  12.169
77078SOL    HW233067   1.708   5.660  12.254
77079SOL     OW33068   5.976  11.311  11.121
77079SOL    HW133069   6.071  11.307  11.106
77079SOL    HW233070   5.953  11.222  11.148
77080SOL     OW33071   9.985   3.356  14.534
77080SOL    HW133072  10.034   3.398  14.605
77080SOL    HW233073   9.897   3.394  14.539
77081SOL     OW33074   4.630  11.029   7.522
77081SOL    HW133075   4.540  11.043   7.493
77081SOL    HW233076   4.680  11.024   7.440
77082SOL     OW33077   8.450  14.390  12.877
77082SOL    HW133078   8.406  14.403  12.793
77082SOL    HW233079   8.457  14.478  12.914
77083SOL     OW33080   4.174   7.812   6.609
77083SOL    HW133081   4.175   7.809   6.514
77083SOL    HW233082   4.165   7.720   6.635
77084SOL     OW33083   3.555   1.418  13.903
77084SOL    HW133084   3.579   1.329  13.930
77084SOL    HW233085   3.633   1.470  13.924
77085SOL     OW33086   5.914   8.346   9.005
77085SOL    HW133087   5.823   8.328   9.029
77085SOL    HW233088   5.948   8.262   8.975
77086SOL     OW33089   9.144   8.724  13.884
77086SOL    HW133090   9.101   8.772  13.955
77086SOL    HW233091   9.214   8.674  13.928
77087SOL     OW33092   2.778   8.252   4.053
77087SOL    HW133093   2.744   8.210   3.974
77087SOL    HW233094   2.737   8.338   4.054
77088SOL     OW33095   2.539   1.910  12.327
77088SOL    HW133096   2.453   1.882  12.359
77088SOL    HW233097   2.601   1.880  12.394
77089SOL     OW33098   6.713   7.522   4.966
77089SOL    HW133099   6.639   7.531   4.907
77089SOL    HW233100   6.713   7.602   5.018
77090SOL     OW33101   1.191  11.856   6.916
77090SOL    HW133102   1.199  11.891   7.005
77090SOL    HW233103   1.128  11.914   6.874
77091SOL     OW33104   3.585  11.488   5.522
77091SOL    HW133105   3.528  11.552   5.564
77091SOL    HW233106   3.638  11.539   5.461
77092SOL     OW33107   0.071  12.989   9.764
77092SOL    HW133108  14.869  13.000   9.720
77092SOL    HW233109   0.111  13.076   9.763
77093SOL     OW33110   2.409  11.395  12.347
77093SOL    HW133111   2.482  11.456  12.341
77093SOL    HW233112   2.339  11.435  12.295
77094SOL     OW33113  10.529  10.630   1.245
77094SOL    HW133114  10.530  10.537   1.225
77094SOL    HW233115  10.518  10.635   1.340
77095SOL     OW33116   2.154   2.463  14.584
77095SOL    HW133117   2.071   2.504  14.610
77095SOL    HW233118   2.205   2.534  14.547
77096SOL     OW33119  11.379  11.728   9.525
77096SOL    HW133120  11.426  11.739   9.608
77096SOL    HW233121  11.335  11.812   9.511
77097SOL     OW33122   5.771   3.019   4.481
77097SOL    HW133123   5.783   2.954   4.550
77097SOL    HW233124   5.711   2.978   4.419
77098SOL     OW33125   0.369   9.682   7.166
77098SOL    HW133126   0.353   9.601   7.118
77098SOL    HW233127   0.316   9.673   7.246
77099SOL     OW33128   2.509   6.931  13.525
77099SOL    HW133129   2.600   6.937  13.554
77099SOL    HW233130   2.507   6.980  13.443
77100SOL     OW33131   3.726   0.949  13.824
77100SOL    HW133132   3.689   0.872  13.781
77100SOL    HW233133   3.819   0.948  13.800
77101SOL     OW33134   7.002   3.961   0.690
77101SOL    HW133135   6.974   3.902   0.619
77101SOL    HW233136   7.090   3.989   0.663
77102SOL     OW33137   1.262  13.936   0.647
77102SOL    HW133138   1.176  13.962   0.680
77102SOL    HW233139   1.244  13.867   0.583
77103SOL     OW33140   7.079   7.429   0.973
77103SOL    HW133141   7.096   7.340   0.941
77103SOL    HW233142   7.006   7.418   1.035
77104SOL     OW33143  13.761  13.378  12.438
77104SOL    HW133144  13.708  13.379  12.518
77104SOL    HW233145  13.739  13.295  12.395
77105SOL     OW33146  11.912   4.132   9.457
77105SOL    HW133147  11.983   4.188   9.490
77105SOL    HW233148  11.957   4.055   9.422
77106SOL     OW33149  10.899   6.119   2.896
77106SOL    HW133150  10.896   6.131   2.991
77106SOL    HW233151  10.910   6.208   2.862
77107SOL     OW33152  11.165   9.994   5.987
77107SOL    HW133153  11.114  10.047   6.048
77107SOL    HW233154  11.127  10.015   5.901
77108SOL     OW33155   6.432   9.692   0.500
77108SOL    HW133156   6.475   9.688   0.586
77108SOL    HW233157   6.368   9.762   0.509
77109SOL     OW33158  14.398   4.587   1.492
77109SOL    HW133159  14.408   4.510   1.436
77109SOL    HW233160  14.486   4.603   1.526
77110SOL     OW33161  14.823  12.777   0.731
77110SOL    HW133162  14.859  12.798   0.645
77110SOL    HW233163  14.754  12.713   0.713
77111SOL     OW33164   7.277   4.582   3.036
77111SOL    HW133165   7.300   4.674   3.028
77111SOL    HW233166   7.222   4.578   3.114
77112SOL     OW33167   6.355   3.051   0.330
77112SOL    HW133168   6.341   3.039   0.236
77112SOL    HW233169   6.338   3.144   0.345
77113SOL     OW33170   4.790   5.836   8.957
77113SOL    HW133171   4.812   5.787   8.877
77113SOL    HW233172   4.754   5.770   9.016
77114SOL     OW33173   8.855   8.586   0.116
77114SOL    HW133174   8.899   8.535   0.048
77114SOL    HW233175   8.906   8.568   0.195
77115SOL     OW33176  13.907  12.337   9.907
77115SOL    HW133177  13.966  12.385   9.848
77115SOL    HW233178  13.965  12.287   9.964
77116SOL     OW33179   2.104   3.374  11.462
77116SOL    HW133180   2.057   3.380  11.379
77116SOL    HW233181   2.050   3.316  11.516
77117SOL     OW33182   1.352  10.489   3.428
77117SOL    HW133183   1.414  10.416   3.438
77117SOL    HW233184   1.392  10.544   3.360
77118SOL     OW33185  10.379   0.692   1.095
77118SOL    HW133186  10.318   0.628   1.132
77118SOL    HW233187  10.416   0.736   1.171
77119SOL     OW33188  13.934   2.954   0.258
77119SOL    HW133189  13.898   2.909   0.182
77119SOL    HW233190  13.870   3.024   0.277
77120SOL     OW33191  12.713   2.988  12.161
77120SOL    HW133192  12.685   2.972  12.071
77120SOL    HW233193  12.777   3.060  12.153
77121SOL     OW33194   7.762  13.846   0.161
77121SOL    HW133195   7.777  13.885   0.074
77121SOL    HW233196   7.844  13.801   0.182
77122SOL     OW33197  14.718  11.977   0.074
77122SOL    HW133198  14.707  11.905   0.011
77122SOL    HW233199  14.793  12.026   0.041
77123SOL     OW33200   2.549   3.059   6.470
77123SOL    HW133201   2.539   3.036   6.563
77123SOL    HW233202   2.517   3.149   6.464
77124SOL     OW33203   9.665   0.567   9.440
77124SOL    HW133204   9.593   0.504   9.436
77124SOL    HW233205   9.743   0.516   9.415
77125SOL     OW33206   7.875   5.022   7.791
77125SOL    HW133207   7.845   5.105   7.754
77125SOL    HW233208   7.795   4.974   7.810
77126SOL     OW33209  11.137   4.418   1.117
77126SOL    HW133210  11.044   4.429   1.099
77126SOL    HW233211  11.161   4.497   1.166
77127SOL     OW33212   5.639   4.471   0.245
77127SOL    HW133213   5.642   4.566   0.249
77127SOL    HW233214   5.552   4.448   0.277
77128SOL     OW33215   8.233  10.325  12.074
77128SOL    HW133216   8.207  10.240  12.037
77128SOL    HW233217   8.325  10.334  12.048
77129SOL     OW33218  11.201   5.154   2.974
77129SOL    HW133219  11.250   5.098   3.035
77129SOL    HW233220  11.223   5.243   3.001
77130SOL     OW33221   3.782   1.151  12.159
77130SOL    HW133222   3.808   1.062  12.183
77130SOL    HW233223   3.775   1.149  12.063
77131SOL     OW33224   9.112   2.383  12.847
77131SOL    HW133225   9.079   2.426  12.925
77131SOL    HW233226   9.042   2.323  12.821
77132SOL     OW33227  14.725  11.436   4.834
77132SOL    HW133228  14.802  11.492   4.829
77132SOL    HW233229  14.681  11.464   4.915
77133SOL     OW33230   3.336   6.347   2.660
77133SOL    HW133231   3.317   6.388   2.576
77133SOL    HW233232   3.358   6.420   2.719
77134SOL     OW33233   3.085   6.167   6.069
77134SOL    HW133234   3.177   6.171   6.095
77134SOL    HW233235   3.043   6.112   6.136
77135SOL     OW33236   0.872   7.569   8.837
77135SOL    HW133237   0.809   7.509   8.877
77135SOL    HW233238   0.900   7.626   8.908
77136SOL     OW33239   4.422   7.516  10.238
77136SOL    HW133240   4.490   7.528  10.305
77136SOL    HW233241   4.467   7.533  10.156
77137SOL     OW33242  11.610   7.064   8.404
77137SOL    HW133243  11.693   7.109   8.385
77137SOL    HW233244  11.570   7.051   8.318
77138SOL     OW33245   9.269   0.585   0.170
77138SOL    HW133246   9.262   0.657   0.233
77138SOL    HW233247   9.179   0.571   0.139
77139SOL     OW33248  14.447   8.959   0.346
77139SOL    HW133249  14.464   8.984   0.255
77139SOL    HW233250  14.444   8.863   0.344
77140SOL     OW33251   7.048   3.489  10.116
77140SOL    HW133252   7.115   3.461  10.179
77140SOL    HW233253   6.979   3.527  10.170
77141SOL     OW33254   0.937  11.043   6.796
77141SOL    HW133255   0.990  11.096   6.856
77141SOL    HW233256   0.891  10.981   6.853
77142SOL     OW33257   8.271  10.154   4.703
77142SOL    HW133258   8.267  10.232   4.648
77142SOL    HW233259   8.301  10.185   4.788
77143SOL     OW33260   3.797  13.457  13.535
77143SOL    HW133261   3.888  13.457  13.565
77143SOL    HW233262   3.748  13.420  13.608
77144SOL     OW33263   8.911  12.719  10.872
77144SOL    HW133264   8.896  12.780  10.799
77144SOL    HW233265   8.873  12.764  10.948
77145SOL     OW33266  12.390   4.914  12.587
77145SOL    HW133267  12.312   4.876  12.627
77145SOL    HW233268  12.427   4.843  12.534
77146SOL     OW33269  13.708  11.599   3.241
77146SOL    HW133270  13.665  11.647   3.312
77146SOL    HW233271  13.801  11.604   3.262
77147SOL     OW33272   1.742  10.916   0.229
77147SOL    HW133273   1.715  10.841   0.282
77147SOL    HW233274   1.660  10.960   0.205
77148SOL     OW33275   5.162   3.676  11.228
77148SOL    HW133276   5.191   3.603  11.173
77148SOL    HW233277   5.222   3.676  11.302
77149SOL     OW33278   0.287  11.435   4.401
77149SOL    HW133279   0.208  11.460   4.354
77149SOL    HW233280   0.303  11.344   4.374
77150SOL     OW33281  12.908   9.967   5.758
77150SOL    HW133282  12.863   9.883   5.749
77150SOL    HW233283  12.925   9.995   5.668
77151SOL     OW33284   5.458   7.007  14.350
77151SOL    HW133285   5.400   6.980  14.422
77151SOL    HW233286   5.466   6.929  14.296
77152SOL     OW33287   2.072  14.180   0.321
77152SOL    HW133288   2.074  14.246   0.390
77152SOL    HW233289   2.059  14.230   0.240
77153SOL     OW33290  14.490  13.581  14.206
77153SOL    HW133291  14.442  13.542  14.279
77153SOL    HW233292  14.502  13.509  14.144
77154SOL     OW33293   5.185   8.169   5.653
77154SOL    HW133294   5.190   8.089   5.600
77154SOL    HW233295   5.251   8.226   5.614
77155SOL     OW33296   2.069   6.740   9.953
77155SOL    HW133297   1.975   6.727   9.950
77155SOL    HW233298   2.089   6.759  10.044
77156SOL     OW33299  10.112   2.672   0.091
77156SOL    HW133300  10.056   2.630   0.025
77156SOL    HW233301  10.052   2.699   0.160
77157SOL     OW33302   8.874   7.176   3.887
77157SOL    HW133303   8.936   7.225   3.834
77157SOL    HW233304   8.789   7.219   3.872
77158SOL     OW33305  14.281   2.713  13.094
77158SOL    HW133306  14.207   2.657  13.071
77158SOL    HW233307  14.240   2.791  13.132
77159SOL     OW33308   5.804  14.812   0.909
77159SOL    HW133309   5.828   0.019   0.884
77159SOL    HW233310   5.714  14.819   0.940
77160SOL     OW33311  14.033   6.229   6.167
77160SOL    HW133312  14.080   6.151   6.137
77160SOL    HW233313  14.091   6.302   6.145
77161SOL     OW33314  14.289   6.828  13.874
77161SOL    HW133315  14.237   6.868  13.804
77161SOL    HW233316  14.270   6.882  13.951
77162SOL     OW33317  10.517  11.702  10.724
77162SOL    HW133318  10.607  11.672  10.713
77162SOL    HW233319  10.483  11.712  10.635
77163SOL     OW33320   8.332  12.002   6.169
77163SOL    HW133321   8.415  11.970   6.204
77163SOL    HW233322   8.288  12.041   6.244
77164SOL     OW33323   9.395   1.449  14.612
77164SOL    HW133324   9.326   1.515  14.611
77164SOL    HW233325   9.476   1.500  14.615
77165SOL     OW33326   9.081  14.446   2.565
77165SOL    HW133327   9.003  14.409   2.606
77165SOL    HW233328   9.142  14.373   2.559
77166SOL     OW33329   8.652   2.405   4.180
77166SOL    HW133330   8.596   2.389   4.104
77166SOL    HW233331   8.741   2.391   4.148
77167SOL     OW33332   4.853   2.950   4.886
77167SOL    HW133333   4.825   3.027   4.838
77167SOL    HW233334   4.941   2.972   4.919
77168SOL     OW33335   6.907   5.867   9.420
77168SOL    HW133336   6.829   5.821   9.452
77168SOL    HW233337   6.875   5.954   9.398
77169SOL     OW33338  10.243   9.428   8.654
77169SOL    HW133339  10.218   9.464   8.569
77169SOL    HW233340  10.183   9.354   8.667
77170SOL     OW33341   7.772   7.205  14.715
77170SOL    HW133342   7.849   7.248  14.754
77170SOL    HW233343   7.747   7.139  14.780
77171SOL     OW33344  12.395   4.951   2.302
77171SOL    HW133345  12.464   4.978   2.241
77171SOL    HW233346  12.432   4.876   2.348
77172SOL     OW33347   0.559  14.234   2.482
77172SOL    HW133348   0.500  14.181   2.535
77172SOL    HW233349   0.630  14.175   2.459
77173SOL     OW33350   3.432   1.123   7.858
77173SOL    HW133351   3.488   1.135   7.782
77173SOL    HW233352   3.344   1.114   7.822
77174SOL     OW33353   3.804  12.572   8.864
77174SOL    HW133354   3.878  12.579   8.804
77174SOL    HW233355   3.834  12.616   8.944
77175SOL     OW33356   5.605  10.837  14.171
77175SOL    HW133357   5.609  10.781  14.093
77175SOL    HW233358   5.643  10.783  14.241
77176SOL     OW33359  14.788  12.675  11.553
77176SOL    HW133360  14.806  12.732  11.628
77176SOL    HW233361  14.872  12.634  11.533
77177SOL     OW33362   0.367  10.339  14.547
77177SOL    HW133363   0.394  10.262  14.597
77177SOL    HW233364   0.292  10.374  14.596
77178SOL     OW33365  10.577   6.938  10.756
77178SOL    HW133366  10.500   6.993  10.748
77178SOL    HW233367  10.639   6.990  10.808
77179SOL     OW33368   2.560   1.548  12.473
77179SOL    HW133369   2.618   1.605  12.525
77179SOL    HW233370   2.493   1.520  12.535
77180SOL     OW33371   4.392   6.293  12.952
77180SOL    HW133372   4.328   6.359  12.978
77180SOL    HW233373   4.392   6.229  13.023
77181SOL     OW33374  10.409  11.561   5.788
77181SOL    HW133375  10.413  11.467   5.807
77181SOL    HW233376  10.474  11.574   5.719
77182SOL     OW33377   8.724  11.852   3.989
77182SOL    HW133378   8.668  11.930   3.995
77182SOL    HW233379   8.802  11.882   3.941
77183SOL     OW33380  13.758   4.402   3.283
77183SOL    HW133381  13.681   4.436   3.237
77183SOL    HW233382  13.735   4.312   3.305
77184SOL     OW33383  10.790   0.571   6.289
77184SOL    HW133384  10.757   0.484   6.264
77184SOL    HW233385  10.745   0.631   6.229
77185SOL     OW33386   7.879  12.915   3.741
77185SOL    HW133387   7.881  12.944   3.832
77185SOL    HW233388   7.786  12.897   3.723
77186SOL     OW33389   2.994  14.465  11.329
77186SOL    HW133390   2.938  14.516  11.386
77186SOL    HW233391   2.945  14.385  11.311
77187SOL     OW33392   1.963   3.647  14.004
77187SOL    HW133393   2.037   3.605  14.048
77187SOL    HW233394   1.957   3.603  13.920
77188SOL     OW33395   1.490  13.193  13.262
77188SOL    HW133396   1.577  13.208  13.298
77188SOL    HW233397   1.431  13.237  13.324
77189SOL     OW33398   0.633   9.128  11.864
77189SOL    HW133399   0.615   9.195  11.930
77189SOL    HW233400   0.723   9.100  11.883
77190SOL     OW33401   1.530   1.460   4.216
77190SOL    HW133402   1.550   1.526   4.149
77190SOL    HW233403   1.557   1.502   4.298
77191SOL     OW33404  10.581  14.602   5.510
77191SOL    HW133405  10.532  14.638   5.436
77191SOL    HW233406  10.573  14.507   5.500
77192SOL     OW33407   9.266  12.439   9.901
77192SOL    HW133408   9.238  12.371   9.961
77192SOL    HW233409   9.301  12.392   9.826
77193SOL     OW33410   9.408   2.546  12.296
77193SOL    HW133411   9.500   2.571  12.306
77193SOL    HW233412   9.410   2.463  12.248
77194SOL     OW33413   7.052  11.493  14.061
77194SOL    HW133414   7.073  11.502  14.154
77194SOL    HW233415   6.974  11.547  14.049
77195SOL     OW33416   9.513  13.361   5.496
77195SOL    HW133417   9.512  13.417   5.573
77195SOL    HW233418   9.448  13.400   5.437
77196SOL     OW33419   0.211   0.410   5.388
77196SOL    HW133420   0.129   0.458   5.392
77196SOL    HW233421   0.278   0.476   5.406
77197SOL     OW33422   0.889   1.837  11.723
77197SOL    HW133423   0.962   1.776  11.713
77197SOL    HW233424   0.863   1.859  11.634
77198SOL     OW33425   8.151   2.880   8.395
77198SOL    HW133426   8.237   2.846   8.418
77198SOL    HW233427   8.150   2.881   8.299
77199SOL     OW33428  11.771  14.802   8.947
77199SOL    HW133429  11.842  14.842   8.897
77199SOL    HW233430  11.715  14.876   8.972
77200SOL     OW33431  12.603   4.501  11.076
77200SOL    HW133432  12.689   4.542  11.084
77200SOL    HW233433  12.557   4.553  11.011
77201SOL     OW33434   9.664   8.328   6.765
77201SOL    HW133435   9.719   8.255   6.794
77201SOL    HW233436   9.719   8.375   6.702
77202SOL     OW33437   6.543   0.245  12.654
77202SOL    HW133438   6.571   0.154  12.664
77202SOL    HW233439   6.456   0.239  12.614
77203SOL     OW33440  11.152  12.072   4.716
77203SOL    HW133441  11.145  11.978   4.731
77203SOL    HW233442  11.092  12.090   4.644
77204SOL     OW33443   5.633   4.329   1.565
77204SOL    HW133444   5.576   4.269   1.518
77204SOL    HW233445   5.716   4.283   1.572
77205SOL     OW33446   3.953   8.751   5.431
77205SOL    HW133447   3.933   8.665   5.469
77205SOL    HW233448   3.881   8.766   5.370
77206SOL     OW33449  11.875   7.217  12.062
77206SOL    HW133450  11.923   7.214  12.145
77206SOL    HW233451  11.783   7.214  12.088
77207SOL     OW33452   9.775   1.034   9.032
77207SOL    HW133453   9.830   1.033   9.111
77207SOL    HW233454   9.819   1.096   8.974
77208SOL     OW33455   5.963  14.496   8.882
77208SOL    HW133456   5.994  14.454   8.802
77208SOL    HW233457   6.026  14.471   8.949
77209SOL     OW33458   2.527   0.919   8.395
77209SOL    HW133459   2.605   0.970   8.415
77209SOL    HW233460   2.456   0.967   8.438
77210SOL     OW33461   5.173   2.003   2.299
77210SOL    HW133462   5.105   1.968   2.357
77210SOL    HW233463   5.125   2.050   2.231
77211SOL     OW33464   3.290   8.658  14.393
77211SOL    HW133465   3.235   8.582  14.413
77211SOL    HW233466   3.247   8.731  14.439
77212SOL     OW33467   9.981   1.274  12.857
77212SOL    HW133468   9.971   1.219  12.779
77212SOL    HW233469   9.949   1.360  12.830
77213SOL     OW33470   0.171   1.156   3.664
77213SOL    HW133471   0.098   1.099   3.687
77213SOL    HW233472   0.233   1.145   3.735
77214SOL     OW33473   4.058  13.677   7.937
77214SOL    HW133474   4.084  13.610   8.000
77214SOL    HW233475   3.975  13.645   7.902
77215SOL     OW33476   7.260   5.657  11.972
77215SOL    HW133477   7.310   5.726  12.015
77215SOL    HW233478   7.226   5.604  12.044
77216SOL     OW33479   8.910   2.961   9.513
77216SOL    HW133480   8.941   2.886   9.564
77216SOL    HW233481   8.983   2.982   9.455
77217SOL     OW33482   4.604   2.660   0.660
77217SOL    HW133483   4.594   2.619   0.746
77217SOL    HW233484   4.692   2.635   0.632
77218SOL     OW33485  10.071   6.113   4.830
77218SOL    HW133486  10.080   6.170   4.754
77218SOL    HW233487  10.120   6.157   4.899
77219SOL     OW33488   3.592   7.424  14.710
77219SOL    HW133489   3.674   7.387  14.679
77219SOL    HW233490   3.615   7.511  14.745
77220SOL     OW33491   4.344   0.335   1.858
77220SOL    HW133492   4.283   0.347   1.785
77220SOL    HW233493   4.431   0.348   1.819
77221SOL     OW33494   5.476   1.583   4.597
77221SOL    HW133495   5.455   1.578   4.690
77221SOL    HW233496   5.563   1.542   4.590
77222SOL     OW33497   2.920   4.475   4.816
77222SOL    HW133498   2.847   4.426   4.854
77222SOL    HW233499   2.994   4.455   4.872
77223SOL     OW33500  14.504  14.569   2.756
77223SOL    HW133501  14.525  14.607   2.841
77223SOL    HW233502  14.564  14.611   2.695
77224SOL     OW33503   1.304   0.525   1.979
77224SOL    HW133504   1.349   0.606   2.001
77224SOL    HW233505   1.360   0.484   1.913
77225SOL     OW33506  13.297   2.853   4.133
77225SOL    HW133507  13.217   2.850   4.185
77225SOL    HW233508  13.301   2.768   4.089
77226SOL     OW33509  12.068   5.006  11.983
77226SOL    HW133510  12.084   5.070  11.913
77226SOL    HW233511  12.134   5.028  12.049
77227SOL     OW33512  10.058  13.341   3.612
77227SOL    HW133513  10.093  13.429   3.601
77227SOL    HW233514  10.105  13.305   3.687
77228SOL     OW33515   7.959   4.813  11.734
77228SOL    HW133516   7.999   4.851  11.655
77228SOL    HW233517   7.975   4.878  11.802
77229SOL     OW33518  12.940   6.812   4.882
77229SOL    HW133519  12.971   6.729   4.917
77229SOL    HW233520  13.020   6.860   4.859
77230SOL     OW33521  14.421   5.516  11.906
77230SOL    HW133522  14.514   5.533  11.914
77230SOL    HW233523  14.395   5.478  11.990
77231SOL     OW33524   7.487   6.677  14.054
77231SOL    HW133525   7.580   6.696  14.063
77231SOL    HW233526   7.445   6.763  14.049
77232SOL     OW33527   5.154   6.088   1.516
77232SOL    HW133528   5.152   6.052   1.604
77232SOL    HW233529   5.204   6.170   1.525
77233SOL     OW33530  12.363   0.787  13.604
77233SOL    HW133531  12.443   0.769  13.554
77233SOL    HW233532  12.324   0.701  13.618
77234SOL     OW33533   1.372   0.205   6.733
77234SOL    HW133534   1.416   0.272   6.681
77234SOL    HW233535   1.380   0.125   6.681
77235SOL     OW33536   3.636  13.941  12.518
77235SOL    HW133537   3.708  13.992  12.480
77235SOL    HW233538   3.671  13.909  12.601
77236SOL     OW33539   0.584  12.383  10.784
77236SOL    HW133540   0.522  12.328  10.833
77236SOL    HW233541   0.661  12.328  10.772
77237SOL     OW33542   6.900   8.078   5.319
77237SOL    HW133543   6.989   8.069   5.354
77237SOL    HW233544   6.854   7.999   5.349
77238SOL     OW33545   2.472   4.297   9.706
77238SOL    HW133546   2.534   4.298   9.633
77238SOL    HW233547   2.470   4.387   9.737
77239SOL     OW33548  13.370   2.139   2.934
77239SOL    HW133549  13.407   2.195   3.002
77239SOL    HW233550  13.398   2.179   2.852
77240SOL     OW33551   2.879  11.325  10.454
77240SOL    HW133552   2.824  11.384  10.403
77240SOL    HW233553   2.965  11.331  10.412
77241SOL     OW33554   3.739   6.298   8.488
77241SOL    HW133555   3.821   6.255   8.513
77241SOL    HW233556   3.691   6.230   8.439
77242SOL     OW33557   8.613  12.207  10.176
77242SOL    HW133558   8.548  12.152  10.219
77242SOL    HW233559   8.603  12.189  10.083
77243SOL     OW33560   3.164  12.795   0.290
77243SOL    HW133561   3.214  12.744   0.354
77243SOL    HW233562   3.229  12.851   0.248
77244SOL     OW33563  10.166  12.494  13.639
77244SOL    HW133564  10.128  12.552  13.573
77244SOL    HW233565  10.109  12.502  13.715
77245SOL     OW33566   0.610   0.721  11.804
77245SOL    HW133567   0.558   0.709  11.724
77245SOL    HW233568   0.589   0.644  11.857
77246SOL     OW33569  10.222   4.556   0.168
77246SOL    HW133570  10.128   4.555   0.149
77246SOL    HW233571  10.233   4.631   0.226
77247SOL     OW33572  12.097  12.885   8.438
77247SOL    HW133573  12.182  12.846   8.421
77247SOL    HW233574  12.058  12.830   8.506
77248SOL     OW33575   4.353   7.951  13.613
77248SOL    HW133576   4.400   7.967  13.531
77248SOL    HW233577   4.389   8.016  13.674
77249SOL     OW33578  13.715  12.006   5.049
77249SOL    HW133579  13.784  11.946   5.020
77249SOL    HW233580  13.690  11.974   5.135
77250SOL     OW33581   8.889   0.102   0.843
77250SOL    HW133582   8.961   0.165   0.840
77250SOL    HW233583   8.917   0.029   0.789
77251SOL     OW33584   3.011  14.633  10.832
77251SOL    HW133585   2.982  14.640  10.922
77251SOL    HW233586   3.099  14.594  10.838
77252SOL     OW33587   6.730  11.375  11.293
77252SOL    HW133588   6.778  11.292  11.282
77252SOL    HW233589   6.638  11.348  11.296
77253SOL     OW33590   3.969   8.522   8.305
77253SOL    HW133591   4.046   8.578   8.313
77253SOL    HW233592   3.895   8.584   8.303
77254SOL     OW33593   1.017   8.828   7.171
77254SOL    HW133594   0.956   8.757   7.190
77254SOL    HW233595   1.101   8.785   7.157
77255SOL     OW33596   3.866   7.367  13.204
77255SOL    HW133597   3.787   7.325  13.170
77255SOL    HW233598   3.939   7.318  13.166
77256SOL     OW33599   1.141  10.410   3.600
77256SOL    HW133600   1.204  10.435   3.532
77256SOL    HW233601   1.163  10.466   3.674
77257SOL     OW33602   8.005   6.328   8.069
77257SOL    HW133603   7.914   6.356   8.079
77257SOL    HW233604   8.034   6.308   8.158
77258SOL     OW33605   7.927   8.011  11.087
77258SOL    HW133606   7.978   7.932  11.107
77258SOL    HW233607   7.919   8.010  10.992
77259SOL     OW33608   0.204   3.348  14.163
77259SOL    HW133609   0.143   3.398  14.217
77259SOL    HW233610   0.148   3.297  14.105
77260SOL     OW33611   9.097   3.502   3.507
77260SOL    HW133612   9.173   3.538   3.553
77260SOL    HW233613   9.062   3.576   3.458
77261SOL     OW33614   2.610   0.242  12.561
77261SOL    HW133615   2.548   0.287  12.618
77261SOL    HW233616   2.591   0.275  12.473
77262SOL     OW33617   2.088   0.297   1.951
77262SOL    HW133618   2.160   0.246   1.987
77262SOL    HW233619   2.061   0.248   1.873
77263SOL     OW33620   2.314   0.197   4.363
77263SOL    HW133621   2.270   0.222   4.282
77263SOL    HW233622   2.268   0.245   4.431
77264SOL     OW33623  14.684  10.781  14.825
77264SOL    HW133624  14.686  10.846   0.014
77264SOL    HW233625  14.593  10.752  14.822
77265SOL     OW33626  13.772   4.070   5.430
77265SOL    HW133627  13.814   4.093   5.513
77265SOL    HW233628  13.684   4.108   5.437
77266SOL     OW33629   1.754  13.708   3.543
77266SOL    HW133630   1.684  13.656   3.583
77266SOL    HW233631   1.709  13.765   3.481
77267SOL     OW33632   1.912  10.254   3.224
77267SOL    HW133633   1.980  10.314   3.252
77267SOL    HW233634   1.935  10.231   3.134
77268SOL     OW33635  14.081  12.922  12.139
77268SOL    HW133636  14.157  12.884  12.096
77268SOL    HW233637  14.028  12.847  12.167
77269SOL     OW33638  14.831   8.486   9.522
77269SOL    HW133639  14.803   8.573   9.495
77269SOL    HW233640   0.044   8.490   9.524
77270SOL     OW33641  14.065   2.553  14.839
77270SOL    HW133642  14.077   2.639  14.799
77270SOL    HW233643  14.118   2.555   0.036
77271SOL     OW33644  12.103   9.430  14.113
77271SOL    HW133645  12.168   9.451  14.180
77271SOL    HW233646  12.106   9.334  14.107
77272SOL     OW33647   2.672  13.549  14.549
77272SOL    HW133648   2.681  13.540  14.455
77272SOL    HW233649   2.740  13.612  14.574
77273SOL     OW33650  10.587   0.239  12.118
77273SOL    HW133651  10.605   0.200  12.203
77273SOL    HW233652  10.532   0.175  12.073
77274SOL     OW33653  11.008   1.747  10.927
77274SOL    HW133654  10.963   1.781  11.004
77274SOL    HW233655  11.082   1.699  10.961
77275SOL     OW33656   8.785   4.539  10.749
77275SOL    HW133657   8.830   4.593  10.685
77275SOL    HW233658   8.766   4.598  10.822
77276SOL     OW33659   6.208   8.091  11.638
77276SOL    HW133660   6.228   8.185  11.641
77276SOL    HW233661   6.178   8.070  11.727
77277SOL     OW33662  12.405   4.670  14.787
77277SOL    HW133663  12.371   4.759  14.776
77277SOL    HW233664  12.481   4.666  14.728
77278SOL     OW33665  14.135  14.560   9.635
77278SOL    HW133666  14.207  14.510   9.596
77278SOL    HW233667  14.151  14.650   9.605
77279SOL     OW33668   7.491  12.287   5.591
77279SOL    HW133669   7.579  12.324   5.591
77279SOL    HW233670   7.463  12.292   5.683
77280SOL     OW33671  12.062  10.838  12.313
77280SOL    HW133672  12.124  10.901  12.276
77280SOL    HW233673  11.976  10.869  12.283
77281SOL     OW33674  14.103   2.946   6.412
77281SOL    HW133675  14.087   2.896   6.332
77281SOL    HW233676  14.189   2.916   6.443
77282SOL     OW33677  12.261   2.819   0.643
77282SOL    HW133678  12.309   2.883   0.591
77282SOL    HW233679  12.329   2.766   0.685
77283SOL     OW33680   9.617   6.447   3.235
77283SOL    HW133681   9.694   6.467   3.288
77283SOL    HW233682   9.628   6.500   3.156
77284SOL     OW33683  10.082   3.612   5.197
77284SOL    HW133684  10.022   3.600   5.270
77284SOL    HW233685  10.097   3.524   5.163
77285SOL     OW33686  10.179  14.076   1.147
77285SOL    HW133687  10.113  14.126   1.196
77285SOL    HW233688  10.136  14.056   1.063
77286SOL     OW33689  14.321  13.449   3.159
77286SOL    HW133690  14.248  13.466   3.218
77286SOL    HW233691  14.397  13.487   3.204
77287SOL     OW33692  11.132   6.744   3.025
77287SOL    HW133693  11.067   6.811   3.047
77287SOL    HW233694  11.172   6.721   3.109
77288SOL     OW33695   1.048   0.801   4.860
77288SOL    HW133696   1.133   0.761   4.839
77288SOL    HW233697   1.048   0.883   4.811
77289SOL     OW33698   2.425   4.041  12.002
77289SOL    HW133699   2.438   4.070  12.092
77289SOL    HW233700   2.461   3.952  12.000
77290SOL     OW33701  11.801   2.538   5.138
77290SOL    HW133702  11.802   2.464   5.077
77290SOL    HW233703  11.726   2.591   5.111
77291SOL     OW33704   3.058  10.698   9.022
77291SOL    HW133705   3.008  10.682   9.102
77291SOL    HW233706   3.118  10.769   9.044
77292SOL     OW33707   9.141   5.619   9.305
77292SOL    HW133708   9.189   5.648   9.227
77292SOL    HW233709   9.132   5.524   9.292
77293SOL     OW33710  11.631   5.472  10.521
77293SOL    HW133711  11.727   5.471  10.522
77293SOL    HW233712  11.607   5.414  10.449
77294SOL     OW33713   6.203  11.098   4.713
77294SOL    HW133714   6.136  11.074   4.777
77294SOL    HW233715   6.260  11.159   4.760
77295SOL     OW33716  12.783   9.533  12.510
77295SOL    HW133717  12.808   9.554  12.420
77295SOL    HW233718  12.813   9.443  12.523
77296SOL     OW33719   9.766  10.572  11.194
77296SOL    HW133720   9.738  10.575  11.286
77296SOL    HW233721   9.851  10.616  11.195
77297SOL     OW33722   5.673   0.391   3.886
77297SOL    HW133723   5.577   0.395   3.890
77297SOL    HW233724   5.696   0.319   3.944
77298SOL     OW33725   7.720   9.114   1.955
77298SOL    HW133726   7.788   9.074   1.900
77298SOL    HW233727   7.638   9.082   1.917
77299SOL     OW33728   7.266   4.536   0.963
77299SOL    HW133729   7.200   4.512   1.028
77299SOL    HW233730   7.276   4.631   0.974
77300SOL     OW33731  13.149   2.570  14.185
77300SOL    HW133732  13.060   2.588  14.152
77300SOL    HW233733  13.166   2.480  14.158
77301SOL     OW33734   9.242  14.139  12.429
77301SOL    HW133735   9.229  14.178  12.515
77301SOL    HW233736   9.323  14.179  12.397
77302SOL     OW33737   3.647   6.409   8.103
77302SOL    HW133738   3.739   6.383   8.094
77302SOL    HW233739   3.616   6.361   8.180
77303SOL     OW33740   2.282   9.391   3.396
77303SOL    HW133741   2.267   9.368   3.488
77303SOL    HW233742   2.375   9.410   3.391
77304SOL     OW33743   8.454   1.880   4.848
77304SOL    HW133744   8.459   1.816   4.777
77304SOL    HW233745   8.376   1.856   4.897
77305SOL     OW33746   1.525  14.239   5.336
77305SOL    HW133747   1.469  14.161   5.339
77305SOL    HW233748   1.507  14.278   5.250
77306SOL     OW33749  10.625   7.612   9.779
77306SOL    HW133750  10.572   7.682   9.816
77306SOL    HW233751  10.715   7.638   9.798
77307SOL     OW33752   2.469   3.707   0.710
77307SOL    HW133753   2.433   3.787   0.671
77307SOL    HW233754   2.422   3.698   0.793
77308SOL     OW33755  10.553   8.269   7.586
77308SOL    HW133756  10.470   8.312   7.567
77308SOL    HW233757  10.552   8.255   7.681
77309SOL     OW33758   9.381   3.278   6.684
77309SOL    HW133759   9.416   3.366   6.686
77309SOL    HW233760   9.339   3.270   6.599
77310SOL     OW33761   7.152   4.714   4.304
77310SOL    HW133762   7.217   4.715   4.234
77310SOL    HW233763   7.197   4.751   4.380
77311SOL     OW33764   6.677  13.589   9.598
77311SOL    HW133765   6.718  13.554   9.677
77311SOL    HW233766   6.742  13.575   9.529
77312SOL     OW33767   6.684   1.846  13.830
77312SOL    HW133768   6.588   1.847  13.828
77312SOL    HW233769   6.710   1.925  13.782
77313SOL     OW33770   7.960   1.769   5.158
77313SOL    HW133771   8.053   1.758   5.138
77313SOL    HW233772   7.950   1.732   5.246
77314SOL     OW33773  10.306   2.123  12.262
77314SOL    HW133774  10.283   2.130  12.355
77314SOL    HW233775  10.223   2.137  12.216
77315SOL     OW33776   6.816   4.293   5.003
77315SOL    HW133777   6.826   4.225   5.068
77315SOL    HW233778   6.772   4.250   4.929
77316SOL     OW33779   9.199   8.164   8.067
77316SOL    HW133780   9.108   8.165   8.036
77316SOL    HW233781   9.204   8.237   8.129
77317SOL     OW33782   0.132   1.940   6.304
77317SOL    HW133783   0.137   1.858   6.352
77317SOL    HW233784   0.207   1.938   6.245
77318SOL     OW33785   6.089   6.031  14.614
77318SOL    HW133786   6.060   5.978  14.688
77318SOL    HW233787   6.031   6.004  14.542
77319SOL     OW33788   3.071  12.212  14.187
77319SOL    HW133789   2.981  12.242  14.197
77319SOL    HW233790   3.065  12.137  14.128
77320SOL     OW33791  10.310   6.127   4.094
77320SOL    HW133792  10.225   6.083   4.095
77320SOL    HW233793  10.374   6.056   4.089
77321SOL     OW33794   9.833  10.600  12.487
77321SOL    HW133795   9.777  10.546  12.431
77321SOL    HW233796   9.774  10.667  12.522
77322SOL     OW33797   5.550   2.685   9.488
77322SOL    HW133798   5.584   2.681   9.398
77322SOL    HW233799   5.494   2.608   9.496
77323SOL     OW33800  14.506   9.804   7.884
77323SOL    HW133801  14.512   9.745   7.959
77323SOL    HW233802  14.597   9.821   7.859
77324SOL     OW33803   9.983   3.919   6.345
77324SOL    HW133804  10.020   3.894   6.261
77324SOL    HW233805   9.998   4.013   6.351
77325SOL     OW33806  12.561   6.863   7.445
77325SOL    HW133807  12.647   6.903   7.432
77325SOL    HW233808  12.532   6.895   7.530
77326SOL     OW33809  10.059  10.481   8.394
77326SOL    HW133810  10.054  10.541   8.469
77326SOL    HW233811  10.060  10.538   8.317
77327SOL     OW33812  10.998   0.863   1.103
77327SOL    HW133813  10.905   0.841   1.105
77327SOL    HW233814  11.043   0.779   1.094
77328SOL     OW33815   7.540   7.610   7.662
77328SOL    HW133816   7.463   7.647   7.705
77328SOL    HW233817   7.510   7.526   7.627
77329SOL     OW33818   6.888  11.642   6.108
77329SOL    HW133819   6.934  11.717   6.145
77329SOL    HW233820   6.947  11.607   6.041
77330SOL     OW33821   7.207  12.867  12.905
77330SOL    HW133822   7.274  12.833  12.846
77330SOL    HW233823   7.195  12.799  12.971
77331SOL     OW33824   6.835   1.822  14.571
77331SOL    HW133825   6.847   1.727  14.571
77331SOL    HW233826   6.893   1.854  14.640
77332SOL     OW33827   2.343   9.396   1.527
77332SOL    HW133828   2.420   9.440   1.489
77332SOL    HW233829   2.323   9.446   1.605
77333SOL     OW33830   0.292  11.560   1.061
77333SOL    HW133831   0.313  11.499   0.991
77333SOL    HW233832   0.377  11.598   1.085
77334SOL     OW33833   1.829   4.860   5.601
77334SOL    HW133834   1.907   4.913   5.619
77334SOL    HW233835   1.808   4.821   5.686
77335SOL     OW33836   5.403  14.400  14.287
77335SOL    HW133837   5.356  14.418  14.205
77335SOL    HW233838   5.354  14.328  14.327
77336SOL     OW33839   2.385  11.399   6.387
77336SOL    HW133840   2.324  11.372   6.455
77336SOL    HW233841   2.413  11.486   6.413
77337SOL     OW33842   1.066   3.802   9.102
77337SOL    HW133843   1.039   3.803   9.010
77337SOL    HW233844   1.046   3.713   9.132
77338SOL     OW33845   7.302  10.630   4.485
77338SOL    HW133846   7.249  10.709   4.477
77338SOL    HW233847   7.300  10.591   4.398
77339SOL     OW33848   4.167   7.939   4.143
77339SOL    HW133849   4.110   7.910   4.215
77339SOL    HW233850   4.255   7.939   4.180
77340SOL     OW33851   1.345   7.246  12.816
77340SOL    HW133852   1.288   7.258  12.739
77340SOL    HW233853   1.371   7.334  12.841
77341SOL     OW33854   4.087   9.682   9.688
77341SOL    HW133855   4.172   9.693   9.646
77341SOL    HW233856   4.106   9.682   9.782
77342SOL     OW33857   1.831  14.258   3.783
77342SOL    HW133858   1.904  14.320   3.789
77342SOL    HW233859   1.851  14.203   3.707
77343SOL     OW33860   7.193   5.960  10.147
77343SOL    HW133861   7.170   6.037  10.199
77343SOL    HW233862   7.288   5.952  10.157
77344SOL     OW33863   5.553   5.610   6.759
77344SOL    HW133864   5.542   5.587   6.851
77344SOL    HW233865   5.585   5.700   6.761
77345SOL     OW33866   2.778  14.201   2.092
77345SOL    HW133867   2.740  14.186   2.178
77345SOL    HW233868   2.764  14.118   2.045
77346SOL     OW33869   6.323   3.786   9.466
77346SOL    HW133870   6.277   3.725   9.409
77346SOL    HW233871   6.254   3.837   9.508
77347SOL     OW33872   5.540   9.020   0.459
77347SOL    HW133873   5.548   9.030   0.554
77347SOL    HW233874   5.630   9.001   0.430
77348SOL     OW33875  11.939   3.365  14.689
77348SOL    HW133876  11.908   3.352  14.599
77348SOL    HW233877  12.035   3.365  14.682
77349SOL     OW33878   9.438   4.943  11.946
77349SOL    HW133879   9.529   4.937  11.916
77349SOL    HW233880   9.387   4.955  11.865
77350SOL     OW33881   9.441   9.477  12.882
77350SOL    HW133882   9.533   9.500  12.893
77350SOL    HW233883   9.405   9.478  12.971
77351SOL     OW33884   1.160  12.659   8.051
77351SOL    HW133885   1.211  12.711   7.990
77351SOL    HW233886   1.069  12.680   8.032
77352SOL     OW33887  13.770  13.196   9.557
77352SOL    HW133888  13.702  13.222   9.494
77352SOL    HW233889  13.816  13.277   9.577
77353SOL     OW33890   4.983   2.872  10.822
77353SOL    HW133891   4.905   2.874  10.877
77353SOL    HW233892   5.032   2.795  10.852
77354SOL     OW33893  14.596   3.549   0.116
77354SOL    HW133894  14.603   3.580   0.207
77354SOL    HW233895  14.598   3.453   0.123
77355SOL     OW33896  11.456  12.605   9.474
77355SOL    HW133897  11.363  12.612   9.451
77355SOL    HW233898  11.456  12.561   9.559
77356SOL     OW33899   1.824   0.133  14.000
77356SOL    HW133900   1.844   0.040  14.015
77356SOL    HW233901   1.795   0.166  14.085
77357SOL     OW33902   9.984   5.502   2.590
77357SOL    HW133903  10.017   5.566   2.527
77357SOL    HW233904   9.982   5.550   2.673
77358SOL     OW33905   2.746  11.507  10.295
77358SOL    HW133906   2.825  11.550  10.262
77358SOL    HW233907   2.710  11.461  10.219
77359SOL     OW33908   8.460   5.921   6.283
77359SOL    HW133909   8.438   5.852   6.220
77359SOL    HW233910   8.419   6.000   6.247
77360SOL     OW33911   9.898  12.929   7.020
77360SOL    HW133912   9.881  13.013   7.062
77360SOL    HW233913   9.833  12.869   7.057
77361SOL     OW33914  13.318   7.170  11.140
77361SOL    HW133915  13.398   7.153  11.090
77361SOL    HW233916  13.305   7.265  11.130
77362SOL     OW33917  13.301   7.724   9.972
77362SOL    HW133918  13.332   7.811   9.946
77362SOL    HW233919  13.378   7.681  10.007
77363SOL     OW33920   9.754   9.796   3.700
77363SOL    HW133921   9.660   9.781   3.713
77363SOL    HW233922   9.772   9.763   3.612
77364SOL     OW33923  10.509   0.366  11.875
77364SOL    HW133924  10.429   0.313  11.875
77364SOL    HW233925  10.557   0.337  11.953
77365SOL     OW33926   8.268   8.798   7.344
77365SOL    HW133927   8.237   8.791   7.434
77365SOL    HW233928   8.287   8.891   7.332
77366SOL     OW33929   0.738   4.135   9.714
77366SOL    HW133930   0.752   4.224   9.683
77366SOL    HW233931   0.731   4.143   9.809
77367SOL     OW33932   1.500   7.500   7.972
77367SOL    HW133933   1.510   7.474   7.881
77367SOL    HW233934   1.460   7.587   7.968
77368SOL     OW33935  10.810   5.333   6.833
77368SOL    HW133936  10.760   5.334   6.751
77368SOL    HW233937  10.898   5.307   6.806
77369SOL     OW33938   7.465   1.701   7.602
77369SOL    HW133939   7.479   1.735   7.513
77369SOL    HW233940   7.472   1.778   7.658
77370SOL     OW33941   4.202   4.784  11.923
77370SOL    HW133942   4.258   4.823  11.990
77370SOL    HW233943   4.118   4.770  11.967
77371SOL     OW33944  13.194   1.666   5.902
77371SOL    HW133945  13.253   1.595   5.927
77371SOL    HW233946  13.106   1.629   5.914
77372SOL     OW33947   8.760  12.233   2.315
77372SOL    HW133948   8.829  12.188   2.267
77372SOL    HW233949   8.798  12.318   2.338
77373SOL     OW33950   2.325   1.280   2.516
77373SOL    HW133951   2.296   1.224   2.588
77373SOL    HW233952   2.251   1.282   2.455
77374SOL     OW33953  10.895   4.312   0.516
77374SOL    HW133954  10.984   4.348   0.523
77374SOL    HW233955  10.861   4.347   0.434
77375SOL     OW33956   4.353   9.508   0.956
77375SOL    HW133957   4.324   9.593   0.923
77375SOL    HW233958   4.391   9.527   1.042
77376SOL     OW33959   0.804   9.323  13.459
77376SOL    HW133960   0.833   9.414  13.464
77376SOL    HW233961   0.814   9.290  13.549
77377SOL     OW33962   0.318  14.811   4.591
77377SOL    HW133963   0.367  14.826   4.671
77377SOL    HW233964   0.241  14.868   4.598
77378SOL     OW33965  13.284   7.574  13.448
77378SOL    HW133966  13.304   7.483  13.427
77378SOL    HW233967  13.300   7.621  13.366
77379SOL     OW33968   3.204   2.968  13.322
77379SOL    HW133969   3.273   2.926  13.373
77379SOL    HW233970   3.194   3.055  13.361
77380SOL     OW33971   4.973  13.213   2.677
77380SOL    HW133972   4.983  13.260   2.759
77380SOL    HW233973   5.063  13.199   2.646
77381SOL     OW33974  10.888   7.855  10.211
77381SOL    HW133975  10.859   7.868  10.121
77381SOL    HW233976  10.818   7.893  10.264
77382SOL     OW33977  13.385   3.613   5.154
77382SOL    HW133978  13.436   3.693   5.161
77382SOL    HW233979  13.430   3.551   5.212
77383SOL     OW33980   4.814  10.383   4.250
77383SOL    HW133981   4.799  10.477   4.235
77383SOL    HW233982   4.771  10.340   4.177
77384SOL     OW33983   0.188  12.584   1.943
77384SOL    HW133984   0.127  12.556   2.011
77384SOL    HW233985   0.270  12.541   1.966
77385SOL     OW33986   1.124  11.597   6.319
77385SOL    HW133987   1.083  11.683   6.309
77385SOL    HW233988   1.075  11.540   6.260
77386SOL     OW33989  14.463   6.370   5.863
77386SOL    HW133990  14.515   6.358   5.783
77386SOL    HW233991  14.466   6.464   5.879
77387SOL     OW33992   1.187   5.397   3.196
77387SOL    HW133993   1.206   5.307   3.169
77387SOL    HW233994   1.098   5.413   3.164
77388SOL     OW33995  11.875   4.493   7.664
77388SOL    HW133996  11.837   4.419   7.712
77388SOL    HW233997  11.899   4.556   7.732
77389SOL     OW33998   9.645   8.478   2.027
77389SOL    HW133999   9.668   8.454   1.937
77389SOL    HW234000   9.611   8.398   2.066
77390SOL     OW34001  12.866   0.885   4.585
77390SOL    HW134002  12.905   0.935   4.513
77390SOL    HW234003  12.797   0.942   4.619
77391SOL     OW34004  12.034   5.640   5.972
77391SOL    HW134005  12.001   5.592   6.049
77391SOL    HW234006  12.089   5.709   6.008
77392SOL     OW34007  10.851   2.416   6.695
77392SOL    HW134008  10.769   2.398   6.648
77392SOL    HW234009  10.825   2.424   6.787
77393SOL     OW34010  14.500   8.422   1.405
77393SOL    HW134011  14.548   8.504   1.416
77393SOL    HW234012  14.536   8.385   1.324
77394SOL     OW34013   9.717  13.979   0.979
77394SOL    HW134014   9.790  13.994   0.918
77394SOL    HW234015   9.682  14.066   0.997
77395SOL     OW34016  11.401   0.003  11.980
77395SOL    HW134017  11.405  14.880  11.884
77395SOL    HW234018  11.477  14.834  12.009
77396SOL     OW34019   1.659  11.046   9.241
77396SOL    HW134020   1.588  11.055   9.178
77396SOL    HW234021   1.616  11.026   9.324
77397SOL     OW34022   0.581   8.218  12.641
77397SOL    HW134023   0.640   8.149  12.610
77397SOL    HW234024   0.634   8.267  12.704
77398SOL     OW34025   7.898   3.589   0.442
77398SOL    HW134026   7.887   3.670   0.492
77398SOL    HW234027   7.944   3.530   0.501
77399SOL     OW34028   1.364   2.512  11.316
77399SOL    HW134029   1.402   2.488  11.400
77399SOL    HW234030   1.344   2.428  11.274
77400SOL     OW34031   1.977  14.063   6.595
77400SOL    HW134032   1.993  14.038   6.686
77400SOL    HW234033   1.930  14.146   6.601
77401SOL     OW34034   3.032   6.298   7.654
77401SOL    HW134035   2.978   6.293   7.575
77401SOL    HW234036   2.999   6.375   7.701
77402SOL     OW34037   1.138   8.776   1.782
77402SOL    HW134038   1.183   8.849   1.824
77402SOL    HW234039   1.057   8.814   1.748
77403SOL     OW34040   3.835   4.826   9.037
77403SOL    HW134041   3.894   4.890   9.078
77403SOL    HW234042   3.849   4.837   8.943
77404SOL     OW34043   7.925   3.709   6.015
77404SOL    HW134044   7.964   3.752   5.939
77404SOL    HW234045   7.835   3.742   6.018
77405SOL     OW34046   0.912   9.648   0.303
77405SOL    HW134047   0.922   9.727   0.355
77405SOL    HW234048   0.989   9.646   0.246
77406SOL     OW34049   1.925  10.529   4.879
77406SOL    HW134050   1.892  10.461   4.821
77406SOL    HW234051   1.848  10.557   4.929
77407SOL     OW34052  12.884   6.128  14.140
77407SOL    HW134053  12.794   6.154  14.119
77407SOL    HW234054  12.931   6.211  14.144
77408SOL     OW34055   2.328  10.856  12.705
77408SOL    HW134056   2.250  10.897  12.666
77408SOL    HW234057   2.373  10.927  12.749
77409SOL     OW34058   5.825   8.714  10.315
77409SOL    HW134059   5.749   8.751  10.361
77409SOL    HW234060   5.897   8.772  10.337
77410SOL     OW34061   5.656  13.917   9.061
77410SOL    HW134062   5.732  13.888   9.112
77410SOL    HW234063   5.680  13.899   8.970
77411SOL     OW34064   9.611   1.252   4.524
77411SOL    HW134065   9.680   1.190   4.498
77411SOL    HW234066   9.530   1.210   4.497
77412SOL     OW34067   7.873   0.872   4.360
77412SOL    HW134068   7.846   0.927   4.434
77412SOL    HW234069   7.969   0.869   4.366
77413SOL     OW34070   7.512   9.195   9.245
77413SOL    HW134071   7.460   9.181   9.324
77413SOL    HW234072   7.494   9.118   9.191
77414SOL     OW34073  10.629   4.223   8.661
77414SOL    HW134074  10.579   4.292   8.705
77414SOL    HW234075  10.616   4.145   8.716
77415SOL     OW34076   9.855   5.215   5.235
77415SOL    HW134077   9.847   5.308   5.256
77415SOL    HW234078   9.889   5.175   5.315
77416SOL     OW34079   1.421   6.034   0.670
77416SOL    HW134080   1.390   5.956   0.714
77416SOL    HW234081   1.503   6.056   0.714
77417SOL     OW34082   8.941   6.978  14.769
77417SOL    HW134083   8.994   6.995  14.847
77417SOL    HW234084   8.952   6.885  14.752
77418SOL     OW34085   5.410  13.206   6.869
77418SOL    HW134086   5.333  13.242   6.826
77418SOL    HW234087   5.417  13.116   6.835
77419SOL     OW34088   8.896   8.189  14.109
77419SOL    HW134089   8.943   8.186  14.026
77419SOL    HW234090   8.953   8.241  14.167
77420SOL     OW34091  10.544   9.891   2.313
77420SOL    HW134092  10.623   9.842   2.335
77420SOL    HW234093  10.551   9.972   2.363
77421SOL     OW34094  13.527  11.622   1.452
77421SOL    HW134095  13.518  11.548   1.512
77421SOL    HW234096  13.619  11.647   1.459
77422SOL     OW34097  13.673   1.003  11.176
77422SOL    HW134098  13.598   0.943  11.180
77422SOL    HW234099  13.747   0.949  11.204
77423SOL     OW34100   0.990   0.928  10.250
77423SOL    HW134101   0.981   0.849  10.303
77423SOL    HW234102   0.900   0.955  10.233
77424SOL     OW34103   1.901   4.104  13.081
77424SOL    HW134104   1.858   4.065  13.006
77424SOL    HW234105   1.995   4.091  13.065
77425SOL     OW34106  12.913  13.712   3.122
77425SOL    HW134107  12.949  13.665   3.197
77425SOL    HW234108  12.863  13.646   3.073
77426SOL     OW34109  10.518   2.665  14.787
77426SOL    HW134110  10.434   2.712  14.784
77426SOL    HW234111  10.551   2.680  14.876
77427SOL     OW34112   4.899  10.185   8.512
77427SOL    HW134113   4.988  10.210   8.539
77427SOL    HW234114   4.873  10.118   8.574
77428SOL     OW34115   7.585  14.695   9.378
77428SOL    HW134116   7.667  14.744   9.363
77428SOL    HW234117   7.540  14.745   9.446
77429SOL     OW34118  10.634   5.578   0.097
77429SOL    HW134119  10.688   5.614   0.168
77429SOL    HW234120  10.554   5.630   0.098
77430SOL     OW34121  14.784   5.288   3.503
77430SOL    HW134122  14.753   5.226   3.570
77430SOL    HW234123  14.828   5.357   3.552
77431SOL     OW34124  14.622   2.844   1.619
77431SOL    HW134125  14.601   2.753   1.639
77431SOL    HW234126  14.711   2.856   1.653
77432SOL     OW34127   0.290  14.384  12.914
77432SOL    HW134128   0.211  14.423  12.951
77432SOL    HW234129   0.321  14.449  12.850
77433SOL     OW34130   0.634   4.554   7.707
77433SOL    HW134131   0.588   4.491   7.651
77433SOL    HW234132   0.720   4.515   7.722
77434SOL     OW34133   2.183  13.668   8.487
77434SOL    HW134134   2.152  13.579   8.469
77434SOL    HW234135   2.176  13.677   8.582
77435SOL     OW34136   2.718  11.125   5.112
77435SOL    HW134137   2.671  11.192   5.062
77435SOL    HW234138   2.713  11.156   5.202
77436SOL     OW34139   4.234   9.808   2.389
77436SOL    HW134140   4.181   9.753   2.331
77436SOL    HW234141   4.197   9.794   2.476
77437SOL     OW34142   6.463   4.641   9.087
77437SOL    HW134143   6.506   4.590   9.018
77437SOL    HW234144   6.371   4.617   9.079
77438SOL     OW34145   2.083   1.735   7.840
77438SOL    HW134146   2.166   1.708   7.800
77438SOL    HW234147   2.083   1.695   7.926
77439SOL     OW34148   3.599   6.188   2.668
77439SOL    HW134149   3.511   6.197   2.630
77439SOL    HW234150   3.651   6.148   2.598
77440SOL     OW34151  13.580  11.016  12.218
77440SOL    HW134152  13.671  11.022  12.246
77440SOL    HW234153  13.582  10.957  12.142
77441SOL     OW34154   7.523   4.924  11.177
77441SOL    HW134155   7.511   5.008  11.221
77441SOL    HW234156   7.570   4.870  11.241
77442SOL     OW34157   2.257  14.601   9.607
77442SOL    HW134158   2.242  14.507   9.619
77442SOL    HW234159   2.310  14.627   9.682
77443SOL     OW34160   7.815  10.198   4.391
77443SOL    HW134161   7.813  10.103   4.375
77443SOL    HW234162   7.742  10.213   4.452
77444SOL     OW34163  11.845   0.548  14.198
77444SOL    HW134164  11.767   0.523  14.247
77444SOL    HW234165  11.816   0.555  14.107
77445SOL     OW34166   0.846  11.577   1.538
77445SOL    HW134167   0.766  11.558   1.490
77445SOL    HW234168   0.917  11.547   1.481
77446SOL     OW34169   6.871   8.151  13.607
77446SOL    HW134170   6.782   8.136  13.639
77446SOL    HW234171   6.926   8.095  13.662
77447SOL     OW34172   1.328  14.864   7.833
77447SOL    HW134173   1.385  14.876   7.757
77447SOL    HW234174   1.366   0.038   7.901
77448SOL     OW34175   8.397  12.918  10.638
77448SOL    HW134176   8.453  12.924  10.560
77448SOL    HW234177   8.349  13.001  10.640
77449SOL     OW34178   1.558   7.505   2.850
77449SOL    HW134179   1.598   7.512   2.936
77449SOL    HW234180   1.472   7.465   2.865
77450SOL     OW34181  12.176  12.217  10.736
77450SOL    HW134182  12.085  12.222  10.707
77450SOL    HW234183  12.185  12.288  10.799
77451SOL     OW34184   0.408   8.626  11.917
77451SOL    HW134185   0.329   8.672  11.943
77451SOL    HW234186   0.417   8.643  11.824
77452SOL     OW34187   5.594   2.915   7.272
77452SOL    HW134188   5.665   2.860   7.240
77452SOL    HW234189   5.621   3.004   7.249
77453SOL     OW34190   1.034   4.885   3.495
77453SOL    HW134191   1.028   4.840   3.579
77453SOL    HW234192   0.946   4.878   3.458
77454SOL     OW34193  12.366   8.945  14.613
77454SOL    HW134194  12.367   9.033  14.651
77454SOL    HW234195  12.306   8.895  14.668
77455SOL     OW34196   6.971   3.894   5.412
77455SOL    HW134197   7.065   3.898   5.393
77455SOL    HW234198   6.956   3.967   5.472
77456SOL     OW34199   3.355   0.027  10.432
77456SOL    HW134200   3.261   0.008  10.430
77456SOL    HW234201   3.392  14.846  10.369
77457SOL     OW34202   0.631  13.247   6.215
77457SOL    HW134203   0.564  13.194   6.258
77457SOL    HW234204   0.697  13.184   6.186
77458SOL     OW34205   4.018   2.488   6.006
77458SOL    HW134206   4.005   2.507   6.099
77458SOL    HW234207   3.931   2.496   5.967
77459SOL     OW34208   3.859   9.852   0.079
77459SOL    HW134209   3.827   9.940   0.096
77459SOL    HW234210   3.793   9.814   0.020
77460SOL     OW34211   4.760  11.825   8.483
77460SOL    HW134212   4.718  11.865   8.560
77460SOL    HW234213   4.845  11.870   8.476
77461SOL     OW34214   4.717  14.096   5.305
77461SOL    HW134215   4.800  14.051   5.313
77461SOL    HW234216   4.737  14.188   5.321
77462SOL     OW34217  14.446   6.051  10.702
77462SOL    HW134218  14.494   6.130  10.678
77462SOL    HW234219  14.381   6.040  10.632
77463SOL     OW34220  14.481   5.293   6.067
77463SOL    HW134221  14.398   5.340   6.071
77463SOL    HW234222  14.473   5.237   5.990
77464SOL     OW34223   7.938  12.933   9.671
77464SOL    HW134224   7.942  12.839   9.651
77464SOL    HW234225   7.881  12.969   9.604
77465SOL     OW34226   7.511   1.596   2.010
77465SOL    HW134227   7.512   1.692   2.016
77465SOL    HW234228   7.598   1.574   1.975
77466SOL     OW34229  12.231   2.025   1.346
77466SOL    HW134230  12.262   2.016   1.436
77466SOL    HW234231  12.296   2.081   1.304
77467SOL     OW34232   9.788   8.788   4.323
77467SOL    HW134233   9.783   8.778   4.418
77467SOL    HW234234   9.773   8.881   4.307
77468SOL     OW34235  12.045   9.212   7.016
77468SOL    HW134236  11.964   9.161   7.008
77468SOL    HW234237  12.040   9.277   6.946
77469SOL     OW34238   1.166   0.442  11.124
77469SOL    HW134239   1.188   0.349  11.126
77469SOL    HW234240   1.072   0.444  11.142
77470SOL     OW34241   8.103  10.298  11.238
77470SOL    HW134242   8.099  10.213  11.195
77470SOL    HW234243   8.074  10.360  11.172
77471SOL     OW34244   7.483  12.646   6.517
77471SOL    HW134245   7.401  12.656   6.469
77471SOL    HW234246   7.466  12.576   6.579
77472SOL     OW34247   0.543  11.976   4.537
77472SOL    HW134248   0.484  11.926   4.481
77472SOL    HW234249   0.604  11.912   4.572
77473SOL     OW34250  14.696  11.117  11.681
77473SOL    HW134251  14.645  11.185  11.725
77473SOL    HW234252  14.710  11.151  11.592
77474SOL     OW34253   9.077   6.834   8.581
77474SOL    HW134254   9.118   6.921   8.582
77474SOL    HW234255   9.148   6.773   8.601
77475SOL     OW34256  14.394   6.812   6.493
77475SOL    HW134257  14.409   6.738   6.433
77475SOL    HW234258  14.357   6.881   6.438
77476SOL     OW34259   0.713  14.449  13.873
77476SOL    HW134260   0.719  14.529  13.926
77476SOL    HW234261   0.624  14.451  13.837
77477SOL     OW34262   9.596  13.909   8.409
77477SOL    HW134263   9.578  13.826   8.453
77477SOL    HW234264   9.533  13.971   8.446
77478SOL     OW34265   9.155   4.561   4.139
77478SOL    HW134266   9.166   4.654   4.156
77478SOL    HW234267   9.143   4.522   4.225
77479SOL     OW34268   2.884   0.182   1.312
77479SOL    HW134269   2.920   0.151   1.395
77479SOL    HW234270   2.949   0.246   1.281
77480SOL     OW34271   8.575   0.422  12.627
77480SOL    HW134272   8.530   0.465  12.554
77480SOL    HW234273   8.526   0.342  12.643
77481SOL     OW34274   3.871  10.517   5.626
77481SOL    HW134275   3.950  10.496   5.675
77481SOL    HW234276   3.903  10.544   5.540
77482SOL     OW34277  12.865   4.160  10.395
77482SOL    HW134278  12.906   4.183  10.312
77482SOL    HW234279  12.935   4.120  10.446
77483SOL     OW34280   9.927   0.429   6.426
77483SOL    HW134281   9.831   0.421   6.421
77483SOL    HW234282   9.959   0.347   6.389
77484SOL     OW34283  13.858   7.398   5.667
77484SOL    HW134284  13.952   7.406   5.648
77484SOL    HW234285  13.831   7.487   5.690
77485SOL     OW34286   3.175  14.836   9.194
77485SOL    HW134287   3.144   0.040   9.222
77485SOL    HW234288   3.268  14.850   9.172
77486SOL     OW34289   3.072   8.548   9.772
77486SOL    HW134290   3.023   8.536   9.691
77486SOL    HW234291   3.023   8.500   9.838
77487SOL     OW34292   8.361   3.992  13.907
77487SOL    HW134293   8.333   3.900  13.910
77487SOL    HW234294   8.359   4.021  13.998
77488SOL     OW34295   3.603   2.883   7.300
77488SOL    HW134296   3.579   2.971   7.328
77488SOL    HW234297   3.521   2.835   7.297
77489SOL     OW34298   5.135  14.344   9.152
77489SOL    HW134299   5.133  14.382   9.064
77489SOL    HW234300   5.083  14.405   9.205
77490SOL     OW34301  14.408   8.002  14.189
77490SOL    HW134302  14.421   8.013  14.095
77490SOL    HW234303  14.455   7.921  14.211
77491SOL     OW34304   0.360   4.197   4.602
77491SOL    HW134305   0.297   4.229   4.537
77491SOL    HW234306   0.306   4.161   4.672
77492SOL     OW34307   6.694   4.488   2.321
77492SOL    HW134308   6.617   4.537   2.349
77492SOL    HW234309   6.668   4.396   2.331
77493SOL     OW34310   6.583  11.180  10.983
77493SOL    HW134311   6.540  11.260  10.952
77493SOL    HW234312   6.676  11.194  10.963
77494SOL     OW34313  14.547   8.482   0.609
77494SOL    HW134314  14.521   8.392   0.590
77494SOL    HW234315  14.571   8.518   0.523
77495SOL     OW34316  14.442   2.084  10.219
77495SOL    HW134317  14.408   2.172  10.204
77495SOL    HW234318  14.364   2.030  10.233
77496SOL     OW34319  12.318  14.648   2.049
77496SOL    HW134320  12.327  14.626   1.956
77496SOL    HW234321  12.224  14.659   2.062
77497SOL     OW34322  13.368   8.317   9.689
77497SOL    HW134323  13.402   8.231   9.665
77497SOL    HW234324  13.428   8.379   9.647
77498SOL     OW34325   0.884   5.306   4.825
77498SOL    HW134326   0.860   5.347   4.909
77498SOL    HW234327   0.801   5.291   4.780
77499SOL     OW34328  11.500  12.732   2.468
77499SOL    HW134329  11.512  12.751   2.375
77499SOL    HW234330  11.557  12.657   2.484
77500SOL     OW34331  13.339  13.188   9.553
77500SOL    HW134332  13.418  13.234   9.526
77500SOL    HW234333  13.276  13.257   9.573
77501SOL     OW34334  13.906  14.305   9.587
77501SOL    HW134335  13.852  14.226   9.578
77501SOL    HW234336  13.970  14.282   9.655
77502SOL     OW34337  10.782   4.899   8.685
77502SOL    HW134338  10.791   4.826   8.623
77502SOL    HW234339  10.737   4.861   8.761
77503SOL     OW34340   8.740   9.968   8.568
77503SOL    HW134341   8.698   9.882   8.567
77503SOL    HW234342   8.767   9.982   8.477
77504SOL     OW34343  13.460   4.177  11.590
77504SOL    HW134344  13.545   4.192  11.632
77504SOL    HW234345  13.461   4.237  11.515
77505SOL     OW34346   8.531  14.725   9.415
77505SOL    HW134347   8.544  14.787   9.487
77505SOL    HW234348   8.586  14.650   9.437
77506SOL     OW34349  12.874   4.320   2.921
77506SOL    HW134350  12.896   4.227   2.910
77506SOL    HW234351  12.835   4.325   3.008
77507SOL     OW34352   5.499   4.684   5.352
77507SOL    HW134353   5.517   4.718   5.264
77507SOL    HW234354   5.525   4.755   5.411
77508SOL     OW34355   3.442   9.548   5.208
77508SOL    HW134356   3.481   9.461   5.209
77508SOL    HW234357   3.497   9.600   5.267
77509SOL     OW34358  13.997   3.109  14.110
77509SOL    HW134359  13.912   3.068  14.123
77509SOL    HW234360  14.023   3.139  14.197
77510SOL     OW34361   6.005  14.502  12.156
77510SOL    HW134362   6.040  14.571  12.213
77510SOL    HW234363   6.073  14.488  12.090
77511SOL     OW34364   1.061  14.104   2.700
77511SOL    HW134365   1.105  14.027   2.662
77511SOL    HW234366   1.102  14.178   2.656
77512SOL     OW34367  11.739  10.128   1.596
77512SOL    HW134368  11.708  10.113   1.506
77512SOL    HW234369  11.659  10.130   1.649
77513SOL     OW34370  11.872  13.133   4.335
77513SOL    HW134371  11.941  13.155   4.398
77513SOL    HW234372  11.791  13.156   4.379
77514SOL     OW34373  14.333   1.612   6.544
77514SOL    HW134374  14.298   1.699   6.530
77514SOL    HW234375  14.274   1.571   6.607
77515SOL     OW34376   3.364  10.624   3.894
77515SOL    HW134377   3.437  10.563   3.894
77515SOL    HW234378   3.288  10.572   3.917
77516SOL     OW34379  14.116   4.690   9.711
77516SOL    HW134380  14.097   4.693   9.617
77516SOL    HW234381  14.045   4.740   9.752
77517SOL     OW34382   6.908  10.375  10.293
77517SOL    HW134383   6.980  10.383  10.357
77517SOL    HW234384   6.925  10.444  10.229
77518SOL     OW34385  12.620   5.368  10.889
77518SOL    HW134386  12.711   5.348  10.866
77518SOL    HW234387  12.615   5.346  10.982
77519SOL     OW34388  11.346   2.891   7.703
77519SOL    HW134389  11.284   2.923   7.638
77519SOL    HW234390  11.318   2.930   7.785
77520SOL     OW34391   2.575   3.001   3.007
77520SOL    HW134392   2.499   3.049   2.973
77520SOL    HW234393   2.539   2.918   3.037
77521SOL     OW34394   0.098   9.597   0.374
77521SOL    HW134395   0.128   9.507   0.392
77521SOL    HW234396   0.124   9.613   0.283
77522SOL     OW34397   6.097   7.438   3.955
77522SOL    HW134398   6.092   7.522   4.001
77522SOL    HW234399   6.031   7.445   3.886
77523SOL     OW34400   7.794  10.644   5.696
77523SOL    HW134401   7.735  10.574   5.723
77523SOL    HW234402   7.876  10.599   5.676
77524SOL     OW34403  11.177   0.957   6.918
77524SOL    HW134404  11.208   0.868   6.935
77524SOL    HW234405  11.086   0.957   6.948
77525SOL     OW34406   0.287   0.993  10.153
77525SOL    HW134407   0.244   0.907  10.157
77525SOL    HW234408   0.284   1.016  10.060
77526SOL     OW34409   1.161   6.966   5.958
77526SOL    HW134410   1.239   6.938   5.911
77526SOL    HW234411   1.188   6.970   6.050
77527SOL     OW34412   2.545  10.384   4.690
77527SOL    HW134413   2.631  10.355   4.658
77527SOL    HW234414   2.513  10.444   4.622
77528SOL     OW34415   4.076   0.370   2.404
77528SOL    HW134416   3.983   0.386   2.421
77528SOL    HW234417   4.090   0.399   2.314
77529SOL     OW34418   6.812   0.390   9.190
77529SOL    HW134419   6.757   0.423   9.261
77529SOL    HW234420   6.761   0.321   9.149
77530SOL     OW34421   1.503  13.760  13.323
77530SOL    HW134422   1.532  13.850  13.312
77530SOL    HW234423   1.434  13.764  13.390
77531SOL     OW34424   2.204  14.274   4.646
77531SOL    HW134425   2.133  14.237   4.594
77531SOL    HW234426   2.284  14.249   4.599
77532SOL     OW34427   3.577   2.100   1.841
77532SOL    HW134428   3.577   2.026   1.901
77532SOL    HW234429   3.670   2.115   1.822
77533SOL     OW34430  11.596   7.894   6.813
77533SOL    HW134431  11.631   7.813   6.776
77533SOL    HW234432  11.506   7.873   6.838
77534SOL     OW34433   5.377   5.108  11.454
77534SOL    HW134434   5.368   5.179  11.390
77534SOL    HW234435   5.307   5.046  11.431
77535SOL     OW34436  13.535   3.188  14.348
77535SOL    HW134437  13.559   3.147  14.430
77535SOL    HW234438  13.551   3.281  14.361
77536SOL     OW34439  10.284   5.068  14.422
77536SOL    HW134440  10.354   5.107  14.368
77536SOL    HW234441  10.247   5.142  14.470
77537SOL     OW34442  12.556  14.285  14.173
77537SOL    HW134443  12.490  14.243  14.117
77537SOL    HW234444  12.532  14.258  14.262
77538SOL     OW34445  11.463   0.135   1.460
77538SOL    HW134446  11.425   0.075   1.524
77538SOL    HW234447  11.438   0.222   1.492
77539SOL     OW34448  10.323   2.554   2.890
77539SOL    HW134449  10.334   2.459   2.899
77539SOL    HW234450  10.377   2.577   2.814
77540SOL     OW34451   0.259   4.502   8.252
77540SOL    HW134452   0.271   4.410   8.276
77540SOL    HW234453   0.312   4.515   8.174
77541SOL     OW34454  14.256   6.341  10.848
77541SOL    HW134455  14.188   6.396  10.888
77541SOL    HW234456  14.277   6.385  10.766
77542SOL     OW34457  12.533   7.402   8.690
77542SOL    HW134458  12.495   7.318   8.665
77542SOL    HW234459  12.618   7.381   8.727
77543SOL     OW34460  10.783   4.771   5.300
77543SOL    HW134461  10.823   4.804   5.381
77543SOL    HW234462  10.774   4.849   5.245
77544SOL     OW34463  13.905   9.767   7.956
77544SOL    HW134464  13.848   9.766   8.033
77544SOL    HW234465  13.876   9.843   7.906
77545SOL     OW34466   2.959  11.714  10.928
77545SOL    HW134467   3.002  11.760  11.000
77545SOL    HW234468   2.990  11.624  10.935
77546SOL     OW34469   5.289  12.786  14.826
77546SOL    HW134470   5.247  12.862  14.785
77546SOL    HW234471   5.233  12.765   0.018
77547SOL     OW34472   1.436  12.904   2.923
77547SOL    HW134473   1.466  12.928   3.011
77547SOL    HW234474   1.449  12.984   2.872
77548SOL     OW34475   4.115  14.855   9.369
77548SOL    HW134476   4.037  14.819   9.411
77548SOL    HW234477   4.188  14.825   9.423
77549SOL     OW34478   9.329   0.708   5.866
77549SOL    HW134479   9.413   0.666   5.884
77549SOL    HW234480   9.266   0.660   5.920
77550SOL     OW34481  13.540   9.319   5.912
77550SOL    HW134482  13.491   9.319   5.995
77550SOL    HW234483  13.604   9.249   5.923
77551SOL     OW34484  12.383   4.111   0.787
77551SOL    HW134485  12.438   4.171   0.736
77551SOL    HW234486  12.434   4.030   0.792
77552SOL     OW34487   1.184   9.977   7.362
77552SOL    HW134488   1.280   9.985   7.360
77552SOL    HW234489   1.168   9.883   7.363
77553SOL     OW34490   1.472   3.881   8.222
77553SOL    HW134491   1.414   3.956   8.209
77553SOL    HW234492   1.413   3.809   8.246
77554SOL     OW34493   8.153   1.732   4.096
77554SOL    HW134494   8.220   1.666   4.111
77554SOL    HW234495   8.080   1.685   4.055
77555SOL     OW34496  13.223   2.684   8.469
77555SOL    HW134497  13.318   2.687   8.485
77555SOL    HW234498  13.208   2.597   8.431
77556SOL     OW34499  10.637   9.024   3.642
77556SOL    HW134500  10.558   8.995   3.688
77556SOL    HW234501  10.606   9.090   3.580
77557SOL     OW34502   0.110  13.843   3.593
77557SOL    HW134503   0.041  13.824   3.529
77557SOL    HW234504   0.128  13.758   3.634
77558SOL     OW34505   5.574   1.186   4.114
77558SOL    HW134506   5.662   1.219   4.130
77558SOL    HW234507   5.570   1.172   4.020
77559SOL     OW34508  14.683   5.884   7.412
77559SOL    HW134509  14.615   5.843   7.467
77559SOL    HW234510  14.733   5.938   7.473
77560SOL     OW34511   8.302  13.541  10.400
77560SOL    HW134512   8.297  13.543  10.304
77560SOL    HW234513   8.373  13.600  10.422
77561SOL     OW34514   5.730   6.355   5.775
77561SOL    HW134515   5.681   6.288   5.823
77561SOL    HW234516   5.663   6.414   5.740
77562SOL     OW34517  10.753   8.899   5.673
77562SOL    HW134518  10.764   8.979   5.724
77562SOL    HW234519  10.839   8.856   5.678
77563SOL     OW34520   1.515   6.751   6.927
77563SOL    HW134521   1.422   6.749   6.905
77563SOL    HW234522   1.546   6.661   6.910
77564SOL     OW34523   6.688  12.348   5.854
77564SOL    HW134524   6.770  12.323   5.897
77564SOL    HW234525   6.696  12.443   5.842
77565SOL     OW34526  14.078   1.880  14.618
77565SOL    HW134527  14.107   1.792  14.594
77565SOL    HW234528  14.030   1.869  14.700
77566SOL     OW34529   3.625  11.418  13.748
77566SOL    HW134530   3.667  11.371  13.675
77566SOL    HW234531   3.607  11.350  13.813
77567SOL     OW34532   0.364   9.005   3.637
77567SOL    HW134533   0.342   9.028   3.547
77567SOL    HW234534   0.408   9.083   3.672
77568SOL     OW34535  14.037   0.609   8.984
77568SOL    HW134536  14.061   0.662   9.060
77568SOL    HW234537  13.966   0.658   8.943
77569SOL     OW34538   6.694   0.382   8.324
77569SOL    HW134539   6.617   0.351   8.370
77569SOL    HW234540   6.660   0.442   8.257
77570SOL     OW34541   4.635  12.608   9.428
77570SOL    HW134542   4.611  12.601   9.336
77570SOL    HW234543   4.552  12.606   9.475
77571SOL     OW34544  12.301   3.785   8.755
77571SOL    HW134545  12.288   3.760   8.664
77571SOL    HW234546  12.249   3.865   8.766
77572SOL     OW34547   2.974   5.954  11.038
77572SOL    HW134548   3.052   5.919  11.081
77572SOL    HW234549   2.926   5.876  11.009
77573SOL     OW34550  13.116  11.861  12.154
77573SOL    HW134551  13.176  11.868  12.080
77573SOL    HW234552  13.029  11.852  12.115
77574SOL     OW34553   8.726   5.637   5.466
77574SOL    HW134554   8.654   5.576   5.458
77574SOL    HW234555   8.703   5.693   5.540
77575SOL     OW34556   9.467   3.209   1.005
77575SOL    HW134557   9.378   3.209   1.041
77575SOL    HW234558   9.489   3.302   0.997
77576SOL     OW34559   5.299   4.579  12.971
77576SOL    HW134560   5.271   4.566  13.061
77576SOL    HW234561   5.394   4.590  12.977
77577SOL     OW34562   0.455   3.991   4.861
77577SOL    HW134563   0.472   4.037   4.943
77577SOL    HW234564   0.455   3.899   4.884
77578SOL     OW34565  11.628  11.040   3.969
77578SOL    HW134566  11.610  11.128   3.937
77578SOL    HW234567  11.572  10.983   3.916
77579SOL     OW34568   2.740  10.242   2.108
77579SOL    HW134569   2.731  10.318   2.051
77579SOL    HW234570   2.650  10.211   2.120
77580SOL     OW34571   5.342   8.979   2.398
77580SOL    HW134572   5.363   9.028   2.318
77580SOL    HW234573   5.369   8.889   2.379
77581SOL     OW34574   9.948  13.200  14.634
77581SOL    HW134575  10.031  13.209  14.587
77581SOL    HW234576   9.925  13.290  14.659
77582SOL     OW34577   0.559   1.342  13.556
77582SOL    HW134578   0.611   1.388  13.490
77582SOL    HW234579   0.488   1.301  13.507
77583SOL     OW34580  11.487   9.004   9.724
77583SOL    HW134581  11.427   8.936   9.753
77583SOL    HW234582  11.519   9.044   9.805
77584SOL     OW34583   7.462   9.078   7.868
77584SOL    HW134584   7.485   9.059   7.777
77584SOL    HW234585   7.366   9.081   7.869
77585SOL     OW34586   7.124   4.064  11.486
77585SOL    HW134587   7.214   4.086  11.509
77585SOL    HW234588   7.130   3.980  11.440
77586SOL     OW34589   2.802   3.200   3.867
77586SOL    HW134590   2.745   3.260   3.818
77586SOL    HW234591   2.777   3.214   3.959
77587SOL     OW34592   8.111   2.414   3.357
77587SOL    HW134593   8.129   2.479   3.289
77587SOL    HW234594   8.136   2.330   3.317
77588SOL     OW34595   1.842   6.870   6.877
77588SOL    HW134596   1.808   6.882   6.966
77588SOL    HW234597   1.935   6.893   6.884
77589SOL     OW34598   2.124   6.246   0.494
77589SOL    HW134599   2.154   6.335   0.513
77589SOL    HW234600   2.042   6.257   0.446
77590SOL     OW34601   3.348  13.188  13.753
77590SOL    HW134602   3.316  13.276  13.732
77590SOL    HW234603   3.275  13.146  13.799
77591SOL     OW34604   1.229   8.628   5.769
77591SOL    HW134605   1.273   8.544   5.784
77591SOL    HW234606   1.289   8.693   5.804
77592SOL     OW34607   3.990   8.387   1.814
77592SOL    HW134608   4.031   8.333   1.746
77592SOL    HW234609   3.897   8.371   1.804
77593SOL     OW34610   6.843   8.714   2.484
77593SOL    HW134611   6.901   8.664   2.542
77593SOL    HW234612   6.803   8.780   2.540
77594SOL     OW34613   4.209   5.191   8.266
77594SOL    HW134614   4.251   5.263   8.219
77594SOL    HW234615   4.231   5.112   8.216
77595SOL     OW34616  13.897   0.526  14.598
77595SOL    HW134617  13.981   0.505  14.638
77595SOL    HW234618  13.868   0.444  14.559
77596SOL     OW34619  14.427   5.979   3.859
77596SOL    HW134620  14.437   6.074   3.858
77596SOL    HW234621  14.516   5.945   3.850
77597SOL     OW34622   1.269   1.564  11.209
77597SOL    HW134623   1.356   1.601  11.191
77597SOL    HW234624   1.258   1.497  11.142
77598SOL     OW34625   5.584   6.747  10.203
77598SOL    HW134626   5.602   6.655  10.181
77598SOL    HW234627   5.585   6.793  10.119
77599SOL     OW34628   9.005   2.588   3.018
77599SOL    HW134629   9.045   2.527   3.080
77599SOL    HW234630   8.971   2.659   3.073
77600SOL     OW34631   4.267   4.527   0.001
77600SOL    HW134632   4.227   4.602   0.045
77600SOL    HW234633   4.305   4.475   0.072
77601SOL     OW34634   7.861   6.020  13.315
77601SOL    HW134635   7.794   6.046  13.378
77601SOL    HW234636   7.887   5.932  13.342
77602SOL     OW34637  12.961   7.873   5.585
77602SOL    HW134638  12.905   7.945   5.614
77602SOL    HW234639  12.983   7.895   5.494
77603SOL     OW34640   7.194   0.512   7.746
77603SOL    HW134641   7.288   0.496   7.739
77603SOL    HW234642   7.155   0.425   7.753
77604SOL     OW34643  10.465  12.647   0.429
77604SOL    HW134644  10.407  12.591   0.480
77604SOL    HW234645  10.520  12.586   0.380
77605SOL     OW34646  12.416   2.060   4.954
77605SOL    HW134647  12.352   2.084   5.021
77605SOL    HW234648  12.376   2.084   4.871
77606SOL     OW34649  10.098   5.714   4.288
77606SOL    HW134650  10.132   5.794   4.249
77606SOL    HW234651  10.047   5.743   4.363
77607SOL     OW34652   1.865   0.257   8.984
77607SOL    HW134653   1.814   0.325   8.940
77607SOL    HW234654   1.801   0.210   9.037
77608SOL     OW34655  14.347  11.489  11.248
77608SOL    HW134656  14.369  11.450  11.163
77608SOL    HW234657  14.262  11.451  11.270
77609SOL     OW34658   1.687  13.337   4.330
77609SOL    HW134659   1.717  13.357   4.241
77609SOL    HW234660   1.751  13.380   4.387
77610SOL     OW34661   4.746  14.489   4.374
77610SOL    HW134662   4.733  14.584   4.368
77610SOL    HW234663   4.748  14.472   4.468
77611SOL     OW34664  12.957   1.406  14.033
77611SOL    HW134665  12.892   1.401  14.103
77611SOL    HW234666  12.961   1.317  13.998
77612SOL     OW34667   6.365  11.989   5.996
77612SOL    HW134668   6.283  12.028   6.028
77612SOL    HW234669   6.433  12.049   6.025
77613SOL     OW34670  10.418   0.316  13.995
77613SOL    HW134671  10.368   0.301  14.075
77613SOL    HW234672  10.352   0.335  13.928
77614SOL     OW34673  13.062  13.683   7.022
77614SOL    HW134674  12.982  13.643   6.989
77614SOL    HW234675  13.032  13.753   7.079
77615SOL     OW34676   6.845   5.197  12.129
77615SOL    HW134677   6.911   5.155  12.184
77615SOL    HW234678   6.764   5.150  12.148
77616SOL     OW34679   4.443  14.315   9.309
77616SOL    HW134680   4.384  14.384   9.278
77616SOL    HW234681   4.392  14.234   9.300
77617SOL     OW34682  12.636   2.044   1.474
77617SOL    HW134683  12.576   2.062   1.401
77617SOL    HW234684  12.584   2.061   1.553
77618SOL     OW34685   2.441   0.338  12.790
77618SOL    HW134686   2.366   0.392  12.815
77618SOL    HW234687   2.515   0.377  12.838
77619SOL     OW34688  11.511   7.127   7.408
77619SOL    HW134689  11.593   7.172   7.389
77619SOL    HW234690  11.505   7.058   7.343
77620SOL     OW34691  12.233  13.158  10.794
77620SOL    HW134692  12.145  13.123  10.809
77620SOL    HW234693  12.226  13.251  10.816
77621SOL     OW34694   7.776  13.587   7.919
77621SOL    HW134695   7.849  13.611   7.976
77621SOL    HW234696   7.715  13.661   7.926
77622SOL     OW34697   6.840   0.082   6.679
77622SOL    HW134698   6.933   0.099   6.663
77622SOL    HW234699   6.811   0.156   6.732
77623SOL     OW34700   9.234  10.518   4.108
77623SOL    HW134701   9.182  10.472   4.174
77623SOL    HW234702   9.324  10.504   4.135
77624SOL     OW34703   3.204   9.692  12.782
77624SOL    HW134704   3.146   9.667  12.710
77624SOL    HW234705   3.155   9.758  12.831
77625SOL     OW34706   1.117   8.283   7.581
77625SOL    HW134707   1.053   8.324   7.522
77625SOL    HW234708   1.167   8.356   7.617
77626SOL     OW34709  13.247  14.641   2.430
77626SOL    HW134710  13.253  14.567   2.491
77626SOL    HW234711  13.197  14.607   2.356
77627SOL     OW34712   9.556   3.128  13.168
77627SOL    HW134713   9.606   3.206  13.193
77627SOL    HW234714   9.619   3.072  13.122
77628SOL     OW34715   4.399   5.827   1.883
77628SOL    HW134716   4.388   5.812   1.977
77628SOL    HW234717   4.473   5.772   1.858
77629SOL     OW34718  10.632   5.750   1.732
77629SOL    HW134719  10.545   5.777   1.759
77629SOL    HW234720  10.688   5.769   1.807
77630SOL     OW34721  11.698   1.910   4.627
77630SOL    HW134722  11.766   1.864   4.677
77630SOL    HW234723  11.733   1.913   4.537
77631SOL     OW34724   0.166   3.774   8.918
77631SOL    HW134725   0.259   3.777   8.941
77631SOL    HW234726   0.145   3.681   8.911
77632SOL     OW34727   0.764   5.264  10.551
77632SOL    HW134728   0.730   5.277  10.463
77632SOL    HW234729   0.807   5.178  10.548
77633SOL     OW34730   6.939  13.012   0.925
77633SOL    HW134731   6.845  12.992   0.931
77633SOL    HW234732   6.962  12.988   0.836
77634SOL     OW34733   8.034   3.052  10.107
77634SOL    HW134734   8.096   3.096  10.048
77634SOL    HW234735   8.024   3.113  10.180
77635SOL     OW34736  14.813   2.014   8.455
77635SOL    HW134737   0.026   2.025   8.446
77635SOL    HW234738  14.803   1.944   8.519
77636SOL     OW34739   5.162   0.431   5.299
77636SOL    HW134740   5.163   0.370   5.373
77636SOL    HW234741   5.094   0.495   5.321
77637SOL     OW34742   4.354  13.435   8.958
77637SOL    HW134743   4.292  13.492   9.004
77637SOL    HW234744   4.301  13.388   8.894
77638SOL     OW34745   8.266  12.881   4.223
77638SOL    HW134746   8.330  12.912   4.287
77638SOL    HW234747   8.226  12.961   4.188
77639SOL     OW34748   2.510   2.453   3.401
77639SOL    HW134749   2.547   2.507   3.471
77639SOL    HW234750   2.525   2.503   3.321
77640SOL     OW34751   6.948  11.436   5.638
77640SOL    HW134752   7.008  11.379   5.590
77640SOL    HW234753   6.861  11.414   5.604
77641SOL     OW34754  13.738  13.505   8.349
77641SOL    HW134755  13.735  13.565   8.274
77641SOL    HW234756  13.826  13.516   8.385
77642SOL     OW34757   0.556   6.339  11.097
77642SOL    HW134758   0.542   6.262  11.042
77642SOL    HW234759   0.588   6.407  11.036
77643SOL     OW34760   1.086   8.886   9.263
77643SOL    HW134761   1.158   8.915   9.209
77643SOL    HW234762   1.086   8.946   9.338
77644SOL     OW34763   7.314  14.166   3.369
77644SOL    HW134764   7.366  14.143   3.446
77644SOL    HW234765   7.355  14.118   3.297
77645SOL     OW34766   5.715   4.533  10.449
77645SOL    HW134767   5.762   4.513  10.531
77645SOL    HW234768   5.728   4.455  10.395
77646SOL     OW34769   2.575  12.467   3.592
77646SOL    HW134770   2.581  12.539   3.529
77646SOL    HW234771   2.637  12.401   3.560
77647SOL     OW34772   7.501  11.959  11.891
77647SOL    HW134773   7.444  11.938  11.817
77647SOL    HW234774   7.545  11.876  11.911
77648SOL     OW34775   9.704   5.234   3.352
77648SOL    HW134776   9.608   5.241   3.354
77648SOL    HW234777   9.723   5.184   3.272
77649SOL     OW34778  10.771   0.439   0.882
77649SOL    HW134779  10.814   0.383   0.946
77649SOL    HW234780  10.761   0.523   0.928
77650SOL     OW34781   6.246   0.438   6.867
77650SOL    HW134782   6.180   0.425   6.936
77650SOL    HW234783   6.226   0.370   6.803
77651SOL     OW34784  13.310   2.037  13.359
77651SOL    HW134785  13.298   1.950  13.321
77651SOL    HW234786  13.349   2.020  13.445
77652SOL     OW34787  12.382   7.531   4.779
77652SOL    HW134788  12.306   7.577   4.743
77652SOL    HW234789  12.372   7.441   4.748
77653SOL     OW34790  14.847   6.319   9.313
77653SOL    HW134791  14.770   6.275   9.348
77653SOL    HW234792   0.039   6.272   9.351
77654SOL     OW34793  10.035   5.095  13.287
77654SOL    HW134794  10.093   5.063  13.218
77654SOL    HW234795  10.081   5.168  13.326
77655SOL     OW34796  11.723   7.276   2.746
77655SOL    HW134797  11.762   7.363   2.747
77655SOL    HW234798  11.661   7.278   2.674
77656SOL     OW34799   7.646   7.851   9.556
77656SOL    HW134800   7.625   7.895   9.638
77656SOL    HW234801   7.740   7.833   9.561
77657SOL     OW34802   9.696   6.283   2.968
77657SOL    HW134803   9.624   6.280   3.031
77657SOL    HW234804   9.772   6.252   3.018
77658SOL     OW34805  13.969  14.219   0.444
77658SOL    HW134806  13.981  14.179   0.358
77658SOL    HW234807  13.875  14.237   0.450
77659SOL     OW34808  14.456   0.634   8.523
77659SOL    HW134809  14.449   0.702   8.457
77659SOL    HW234810  14.484   0.556   8.475
77660SOL     OW34811   3.904  11.498   7.208
77660SOL    HW134812   3.977  11.558   7.216
77660SOL    HW234813   3.943  11.411   7.213
77661SOL     OW34814   8.454   2.821   3.441
77661SOL    HW134815   8.414   2.891   3.389
77661SOL    HW234816   8.508   2.867   3.505
77662SOL     OW34817   5.745   4.887  13.852
77662SOL    HW134818   5.717   4.895  13.943
77662SOL    HW234819   5.664   4.897  13.802
77663SOL     OW34820   0.911  11.492  14.435
77663SOL    HW134821   0.901  11.461  14.525
77663SOL    HW234822   0.870  11.578  14.435
77664SOL     OW34823   4.752  10.409  12.060
77664SOL    HW134824   4.754  10.501  12.086
77664SOL    HW234825   4.671  10.375  12.097
77665SOL     OW34826   0.534   2.397   4.337
77665SOL    HW134827   0.584   2.476   4.317
77665SOL    HW234828   0.516   2.358   4.252
77666SOL     OW34829   6.144  11.713   7.350
77666SOL    HW134830   6.239  11.711   7.345
77666SOL    HW234831   6.124  11.699   7.442
77667SOL     OW34832  10.642   3.889   9.415
77667SOL    HW134833  10.662   3.904   9.507
77667SOL    HW234834  10.584   3.961   9.391
77668SOL     OW34835   6.036   5.994   5.240
77668SOL    HW134836   5.981   6.069   5.219
77668SOL    HW234837   6.070   5.964   5.156
77669SOL     OW34838   2.286   6.336   7.810
77669SOL    HW134839   2.370   6.363   7.773
77669SOL    HW234840   2.278   6.244   7.786
77670SOL     OW34841   1.808  10.725   1.593
77670SOL    HW134842   1.880  10.736   1.655
77670SOL    HW234843   1.764  10.810   1.592
77671SOL     OW34844   3.402   7.464   3.482
77671SOL    HW134845   3.311   7.493   3.490
77671SOL    HW234846   3.404   7.379   3.525
77672SOL     OW34847   9.215   9.261  12.158
77672SOL    HW134848   9.191   9.351  12.138
77672SOL    HW234849   9.289   9.269  12.219
77673SOL     OW34850  10.666   1.778   9.150
77673SOL    HW134851  10.698   1.809   9.235
77673SOL    HW234852  10.646   1.685   9.165
77674SOL     OW34853   7.603   1.294   2.028
77674SOL    HW134854   7.629   1.312   1.937
77674SOL    HW234855   7.507   1.302   2.027
77675SOL     OW34856  13.395   0.295  14.123
77675SOL    HW134857  13.481   0.321  14.091
77675SOL    HW234858  13.347   0.267  14.045
77676SOL     OW34859   6.027  14.480   1.269
77676SOL    HW134860   5.986  14.560   1.304
77676SOL    HW234861   6.067  14.508   1.187
77677SOL     OW34862   7.077  14.832   3.086
77677SOL    HW134863   6.990  14.795   3.105
77677SOL    HW234864   7.080   0.030   3.138
77678SOL     OW34865   9.342   8.408   8.335
77678SOL    HW134866   9.282   8.346   8.377
77678SOL    HW234867   9.347   8.481   8.397
77679SOL     OW34868   1.174   2.140   9.179
77679SOL    HW134869   1.254   2.145   9.126
77679SOL    HW234870   1.122   2.071   9.138
77680SOL     OW34871   8.482   5.178   5.288
77680SOL    HW134872   8.571   5.162   5.320
77680SOL    HW234873   8.442   5.092   5.281
77681SOL     OW34874  12.420  12.307   7.029
77681SOL    HW134875  12.482  12.236   7.010
77681SOL    HW234876  12.337  12.261   7.044
77682SOL     OW34877  11.630   1.241   7.000
77682SOL    HW134878  11.684   1.163   6.985
77682SOL    HW234879  11.540   1.208   7.004
77683SOL     OW34880   5.573   3.485  12.644
77683SOL    HW134881   5.550   3.392  12.645
77683SOL    HW234882   5.503   3.528  12.693
77684SOL     OW34883   5.135  13.286  14.616
77684SOL    HW134884   5.208  13.307  14.675
77684SOL    HW234885   5.063  13.264  14.675
77685SOL     OW34886   3.770   1.576  13.931
77685SOL    HW134887   3.859   1.583  13.966
77685SOL    HW234888   3.759   1.654  13.878
77686SOL     OW34889   7.553   5.816   0.537
77686SOL    HW134890   7.623   5.800   0.474
77686SOL    HW234891   7.557   5.742   0.597
77687SOL     OW34892   1.294  11.891   8.308
77687SOL    HW134893   1.221  11.952   8.320
77687SOL    HW234894   1.337  11.920   8.228
77688SOL     OW34895   2.374   8.924   9.599
77688SOL    HW134896   2.288   8.946   9.633
77688SOL    HW234897   2.432   8.930   9.675
77689SOL     OW34898  11.102  12.416   3.472
77689SOL    HW134899  11.040  12.358   3.516
77689SOL    HW234900  11.124  12.482   3.538
77690SOL     OW34901   5.392   9.328   6.220
77690SOL    HW134902   5.453   9.254   6.224
77690SOL    HW234903   5.318   9.300   6.274
77691SOL     OW34904   3.797   4.105   1.009
77691SOL    HW134905   3.721   4.148   0.969
77691SOL    HW234906   3.813   4.029   0.953
77692SOL     OW34907   2.089   3.707  10.092
77692SOL    HW134908   2.091   3.654  10.012
77692SOL    HW234909   2.063   3.794  10.063
77693SOL     OW34910   7.743  11.102  12.157
77693SOL    HW134911   7.713  11.193  12.155
77693SOL    HW234912   7.812  11.098  12.091
77694SOL     OW34913   6.294  14.319   2.632
77694SOL    HW134914   6.219  14.377   2.649
77694SOL    HW234915   6.369  14.379   2.627
77695SOL     OW34916  12.699   4.239   9.354
77695SOL    HW134917  12.739   4.169   9.405
77695SOL    HW234918  12.738   4.319   9.389
77696SOL     OW34919   8.385  13.975   5.507
77696SOL    HW134920   8.376  14.001   5.415
77696SOL    HW234921   8.431  13.892   5.504
77697SOL     OW34922   5.510  13.954   3.123
77697SOL    HW134923   5.436  13.957   3.184
77697SOL    HW234924   5.554  13.872   3.143
77698SOL     OW34925   8.289   9.237  10.253
77698SOL    HW134926   8.249   9.316  10.290
77698SOL    HW234927   8.216   9.189  10.213
77699SOL     OW34928  11.577   7.954  14.373
77699SOL    HW134929  11.638   8.013  14.330
77699SOL    HW234930  11.632   7.897  14.427
77700SOL     OW34931   1.675   8.336   7.905
77700SOL    HW134932   1.724   8.313   7.827
77700SOL    HW234933   1.707   8.423   7.929
77701SOL     OW34934  10.641  13.618   6.886
77701SOL    HW134935  10.647  13.707   6.920
77701SOL    HW234936  10.571  13.622   6.820
77702SOL     OW34937   1.858  12.192   6.862
77702SOL    HW134938   1.889  12.201   6.952
77702SOL    HW234939   1.912  12.122   6.825
77703SOL     OW34940   5.553   3.733   3.073
77703SOL    HW134941   5.641   3.726   3.109
77703SOL    HW234942   5.566   3.757   2.981
77704SOL     OW34943   7.300   7.489   1.138
77704SOL    HW134944   7.351   7.415   1.106
77704SOL    HW234945   7.209   7.461   1.129
77705SOL     OW34946   8.795   8.950  11.104
77705SOL    HW134947   8.889   8.949  11.082
77705SOL    HW234948   8.752   8.976  11.023
77706SOL     OW34949  13.397  12.625   8.913
77706SOL    HW134950  13.420  12.603   9.003
77706SOL    HW234951  13.465  12.584   8.860
77707SOL     OW34952  10.550   6.944   8.335
77707SOL    HW134953  10.644   6.928   8.328
77707SOL    HW234954  10.539   6.985   8.421
77708SOL     OW34955  10.548   4.183   4.852
77708SOL    HW134956  10.501   4.101   4.838
77708SOL    HW234957  10.633   4.157   4.888
77709SOL     OW34958   5.104   4.339  14.068
77709SOL    HW134959   5.120   4.427  14.034
77709SOL    HW234960   5.118   4.281  13.993
77710SOL     OW34961   1.297  10.712   0.847
77710SOL    HW134962   1.225  10.774   0.857
77710SOL    HW234963   1.253  10.627   0.836
77711SOL     OW34964  12.379   2.924   0.386
77711SOL    HW134965  12.474   2.921   0.375
77711SOL    HW234966  12.353   3.009   0.350
77712SOL     OW34967  13.974  14.812   0.067
77712SOL    HW134968  13.929  14.875   0.123
77712SOL    HW234969  14.035  14.767   0.126
77713SOL     OW34970  11.168  14.157   3.581
77713SOL    HW134971  11.116  14.097   3.528
77713SOL    HW234972  11.133  14.244   3.560
77714SOL     OW34973   0.935   9.467   9.428
77714SOL    HW134974   0.942   9.393   9.367
77714SOL    HW234975   0.848   9.503   9.411
77715SOL     OW34976  12.220   1.428   6.893
77715SOL    HW134977  12.171   1.368   6.949
77715SOL    HW234978  12.169   1.434   6.813
77716SOL     OW34979   2.622  13.218   0.862
77716SOL    HW134980   2.689  13.267   0.911
77716SOL    HW234981   2.560  13.189   0.928
77717SOL     OW34982   4.205   5.876  14.506
77717SOL    HW134983   4.151   5.853  14.582
77717SOL    HW234984   4.159   5.837  14.431
77718SOL     OW34985  13.996   4.707   5.771
77718SOL    HW134986  14.069   4.764   5.746
77718SOL    HW234987  13.956   4.682   5.688
77719SOL     OW34988   9.157   2.682   1.643
77719SOL    HW134989   9.249   2.707   1.653
77719SOL    HW234990   9.139   2.697   1.550
77720SOL     OW34991  12.746  11.935   8.982
77720SOL    HW134992  12.721  11.862   8.925
77720SOL    HW234993  12.729  12.013   8.930
77721SOL     OW34994   9.175   6.675  14.538
77721SOL    HW134995   9.135   6.681  14.625
77721SOL    HW234996   9.209   6.764  14.521
77722SOL     OW34997   5.798  10.779  12.239
77722SOL    HW134998   5.810  10.775  12.144
77722SOL    HW234999   5.837  10.697  12.271
77723SOL     OW35000   9.410   6.554  13.454
77723SOL    HW135001   9.370   6.623  13.507
77723SOL    HW235002   9.335   6.510  13.413
77724SOL     OW35003  11.941   5.472   1.794
77724SOL    HW135004  11.900   5.453   1.710
77724SOL    HW235005  11.878   5.441   1.860
77725SOL     OW35006  10.845  11.001  12.081
77725SOL    HW135007  10.755  11.009  12.112
77725SOL    HW235008  10.887  10.943  12.144
77726SOL     OW35009  11.959  10.431   7.708
77726SOL    HW135010  11.874  10.435   7.665
77726SOL    HW235011  12.009  10.367   7.658
77727SOL     OW35012   6.276   3.845  13.253
77727SOL    HW135013   6.237   3.932  13.267
77727SOL    HW235014   6.279   3.805  13.339
77728SOL     OW35015  13.319   2.542   9.464
77728SOL    HW135016  13.327   2.462   9.515
77728SOL    HW235017  13.245   2.525   9.405
77729SOL     OW35018   9.282   2.126   2.429
77729SOL    HW135019   9.236   2.194   2.478
77729SOL    HW235020   9.220   2.054   2.423
77730SOL     OW35021   6.885   1.937   7.645
77730SOL    HW135022   6.919   1.906   7.729
77730SOL    HW235023   6.963   1.969   7.598
77731SOL     OW35024  12.511  11.818  11.609
77731SOL    HW135025  12.441  11.837  11.546
77731SOL    HW235026  12.493  11.728  11.638
77732SOL     OW35027   9.644   4.870   8.690
77732SOL    HW135028   9.571   4.839   8.743
77732SOL    HW235029   9.640   4.818   8.610
77733SOL     OW35030   4.851  13.229   7.616
77733SOL    HW135031   4.905  13.275   7.551
77733SOL    HW235032   4.765  13.269   7.608
77734SOL     OW35033  14.497  12.838   6.155
77734SOL    HW135034  14.516  12.747   6.132
77734SOL    HW235035  14.580  12.884   6.144
77735SOL     OW35036  14.264   7.544   4.455
77735SOL    HW135037  14.340   7.597   4.477
77735SOL    HW235038  14.205   7.555   4.529
77736SOL     OW35039   2.691   9.414   9.487
77736SOL    HW135040   2.746   9.482   9.526
77736SOL    HW235041   2.602   9.444   9.502
77737SOL     OW35042   7.765   9.853  11.865
77737SOL    HW135043   7.858   9.855  11.840
77737SOL    HW235044   7.731   9.774  11.823
77738SOL     OW35045  13.044   6.787  10.328
77738SOL    HW135046  13.117   6.761  10.272
77738SOL    HW235047  13.049   6.728  10.403
77739SOL     OW35048   6.872   7.633   7.696
77739SOL    HW135049   6.883   7.541   7.716
77739SOL    HW235050   6.808   7.635   7.624
77740SOL     OW35051   5.220   8.916  12.457
77740SOL    HW135052   5.149   8.968  12.419
77740SOL    HW235053   5.278   8.980  12.498
77741SOL     OW35054  12.939   2.542   6.295
77741SOL    HW135055  12.896   2.476   6.350
77741SOL    HW235056  12.959   2.497   6.214
77742SOL     OW35057   9.193   4.393  11.558
77742SOL    HW135058   9.143   4.359  11.632
77742SOL    HW235059   9.258   4.326  11.539
77743SOL     OW35060   8.428  10.689  12.966
77743SOL    HW135061   8.478  10.766  12.940
77743SOL    HW235062   8.482  10.615  12.937
77744SOL     OW35063   8.945   6.509  12.807
77744SOL    HW135064   8.898   6.512  12.890
77744SOL    HW235065   9.012   6.441  12.819
77745SOL     OW35066   3.583   9.753   0.466
77745SOL    HW135067   3.612   9.684   0.526
77745SOL    HW235068   3.495   9.775   0.496
77746SOL     OW35069  14.672  14.654   5.523
77746SOL    HW135070  14.656  14.745   5.546
77746SOL    HW235071  14.767  14.644   5.528
77747SOL     OW35072   6.817   1.986   1.970
77747SOL    HW135073   6.867   1.905   1.984
77747SOL    HW235074   6.783   2.008   2.057
77748SOL     OW35075  13.932   2.039   8.913
77748SOL    HW135076  13.971   2.070   8.995
77748SOL    HW235077  14.004   1.996   8.866
77749SOL     OW35078   4.017   1.363   0.124
77749SOL    HW135079   3.983   1.307   0.054
77749SOL    HW235080   4.066   1.304   0.180
77750SOL     OW35081   7.331   6.504   7.363
77750SOL    HW135082   7.283   6.479   7.442
77750SOL    HW235083   7.270   6.561   7.316
77751SOL     OW35084   6.293   5.112   6.166
77751SOL    HW135085   6.200   5.132   6.170
77751SOL    HW235086   6.309   5.092   6.073
77752SOL     OW35087   1.761   4.569   5.711
77752SOL    HW135088   1.779   4.476   5.699
77752SOL    HW235089   1.739   4.601   5.623
77753SOL     OW35090   9.150   4.511   0.981
77753SOL    HW135091   9.089   4.494   0.909
77753SOL    HW235092   9.163   4.606   0.979
77754SOL     OW35093  10.748   2.861   9.158
77754SOL    HW135094  10.683   2.791   9.153
77754SOL    HW235095  10.810   2.841   9.087
77755SOL     OW35096   3.442   0.531   2.660
77755SOL    HW135097   3.526   0.507   2.621
77755SOL    HW235098   3.456   0.526   2.754
77756SOL     OW35099  13.035   5.320   5.599
77756SOL    HW135100  12.989   5.327   5.515
77756SOL    HW235101  12.965   5.304   5.663
77757SOL     OW35102  14.043   1.893  10.865
77757SOL    HW135103  14.063   1.800  10.852
77757SOL    HW235104  13.969   1.910  10.806
77758SOL     OW35105  10.238   3.668  13.498
77758SOL    HW135106  10.189   3.725  13.438
77758SOL    HW235107  10.232   3.581  13.459
77759SOL     OW35108   0.278  12.633   4.384
77759SOL    HW135109   0.198  12.612   4.432
77759SOL    HW235110   0.263  12.722   4.351
77760SOL     OW35111  10.832   1.545  13.766
77760SOL    HW135112  10.840   1.566  13.859
77760SOL    HW235113  10.820   1.630  13.723
77761SOL     OW35114   6.591  12.735   4.977
77761SOL    HW135115   6.640  12.700   5.051
77761SOL    HW235116   6.600  12.830   4.984
77762SOL     OW35117   0.588   9.369   6.622
77762SOL    HW135118   0.657   9.373   6.687
77762SOL    HW235119   0.634   9.360   6.538
77763SOL     OW35120   4.858   4.783  14.483
77763SOL    HW135121   4.942   4.736  14.485
77763SOL    HW235122   4.798   4.721  14.442
77764SOL     OW35123  13.492   4.041   4.088
77764SOL    HW135124  13.509   4.036   3.994
77764SOL    HW235125  13.546   3.971   4.126
77765SOL     OW35126  14.725  12.867  12.199
77765SOL    HW135127  14.664  12.822  12.257
77765SOL    HW235128  14.735  12.954  12.238
77766SOL     OW35129   1.647   4.814   8.988
77766SOL    HW135130   1.644   4.903   8.955
77766SOL    HW235131   1.686   4.821   9.075
77767SOL     OW35132  11.983   9.322   5.493
77767SOL    HW135133  11.993   9.387   5.563
77767SOL    HW235134  11.945   9.246   5.536
77768SOL     OW35135   4.888   8.883   9.838
77768SOL    HW135136   4.920   8.804   9.795
77768SOL    HW235137   4.806   8.856   9.879
77769SOL     OW35138   9.359   3.345  14.438
77769SOL    HW135139   9.419   3.296  14.494
77769SOL    HW235140   9.374   3.309  14.351
77770SOL     OW35141   3.997   7.136   2.161
77770SOL    HW135142   3.931   7.181   2.109
77770SOL    HW235143   4.071   7.125   2.101
77771SOL     OW35144  10.633  12.456  13.453
77771SOL    HW135145  10.617  12.487  13.542
77771SOL    HW235146  10.611  12.362  13.456
77772SOL     OW35147   7.714  14.167  11.931
77772SOL    HW135148   7.679  14.253  11.957
77772SOL    HW235149   7.687  14.109  12.002
77773SOL     OW35150   1.982   3.490   1.292
77773SOL    HW135151   1.988   3.450   1.205
77773SOL    HW235152   1.915   3.438   1.337
77774SOL     OW35153   2.808  12.504   1.020
77774SOL    HW135154   2.833  12.471   0.934
77774SOL    HW235155   2.890  12.508   1.069
77775SOL     OW35156  11.530   6.949   3.961
77775SOL    HW135157  11.525   6.903   3.877
77775SOL    HW235158  11.451   7.003   3.964
77776SOL     OW35159   8.725  12.476   8.100
77776SOL    HW135160   8.741  12.408   8.034
77776SOL    HW235161   8.736  12.431   8.184
77777SOL     OW35162   9.007   9.441   9.167
77777SOL    HW135163   9.060   9.512   9.129
77777SOL    HW235164   9.049   9.422   9.251
77778SOL     OW35165  13.612   6.830   3.605
77778SOL    HW135166  13.632   6.923   3.603
77778SOL    HW235167  13.585   6.809   3.516
77779SOL     OW35168   6.528   6.193   6.518
77779SOL    HW135169   6.519   6.282   6.551
77779SOL    HW235170   6.592   6.152   6.576
77780SOL     OW35171   4.167  14.416  10.805
77780SOL    HW135172   4.105  14.429  10.733
77780SOL    HW235173   4.112  14.391  10.880
77781SOL     OW35174   6.218  11.906  10.616
77781SOL    HW135175   6.292  11.867  10.570
77781SOL    HW235176   6.258  11.970  10.675
77782SOL     OW35177   5.827   9.443   7.845
77782SOL    HW135178   5.752   9.497   7.867
77782SOL    HW235179   5.898   9.505   7.828
77783SOL     OW35180  10.315  14.123  10.955
77783SOL    HW135181  10.257  14.048  10.969
77783SOL    HW235182  10.396  14.100  11.000
77784SOL     OW35183   0.527  10.320  12.363
77784SOL    HW135184   0.603  10.355  12.318
77784SOL    HW235185   0.555  10.311  12.454
77785SOL     OW35186   8.240   4.601   5.670
77785SOL    HW135187   8.260   4.584   5.762
77785SOL    HW235188   8.183   4.529   5.643
77786SOL     OW35189   6.073   0.692  10.690
77786SOL    HW135190   6.028   0.695  10.606
77786SOL    HW235191   6.061   0.778  10.729
77787SOL     OW35192  11.038   1.862   9.204
77787SOL    HW135193  11.082   1.778   9.192
77787SOL    HW235194  11.109   1.925   9.215
77788SOL     OW35195  14.856  12.450  12.754
77788SOL    HW135196   0.041  12.383  12.765
77788SOL    HW235197   0.006  12.524  12.808
77789SOL     OW35198   0.311  14.286   0.319
77789SOL    HW135199   0.306  14.266   0.226
77789SOL    HW235200   0.235  14.242   0.357
77790SOL     OW35201  10.405   5.561  14.592
77790SOL    HW135202  10.489   5.597  14.622
77790SOL    HW235203  10.368   5.519  14.669
77791SOL     OW35204  11.972   1.879   2.499
77791SOL    HW135205  11.936   1.947   2.556
77791SOL    HW235206  11.920   1.801   2.519
77792SOL     OW35207   9.284   9.184  13.946
77792SOL    HW135208   9.364   9.151  13.988
77792SOL    HW235209   9.221   9.113  13.957
77793SOL     OW35210   9.369  10.449  10.759
77793SOL    HW135211   9.404  10.369  10.720
77793SOL    HW235212   9.417  10.520  10.716
77794SOL     OW35213  13.775  10.530   7.905
77794SOL    HW135214  13.811  10.601   7.958
77794SOL    HW235215  13.695  10.565   7.868
77795SOL     OW35216   6.766  14.520   4.974
77795SOL    HW135217   6.859  14.537   4.988
77795SOL    HW235218   6.722  14.558   5.051
77796SOL     OW35219  11.015   8.885   3.353
77796SOL    HW135220  10.964   8.956   3.391
77796SOL    HW235221  11.086   8.870   3.416
77797SOL     OW35222   4.066   5.931   0.464
77797SOL    HW135223   4.088   6.024   0.465
77797SOL    HW235224   4.142   5.887   0.503
77798SOL     OW35225   1.592  10.940   6.144
77798SOL    HW135226   1.596  11.036   6.137
77798SOL    HW235227   1.620  10.922   6.234
77799SOL     OW35228  14.403  13.444   7.419
77799SOL    HW135229  14.357  13.527   7.403
77799SOL    HW235230  14.495  13.468   7.417
77800SOL     OW35231  11.597   0.807   3.175
77800SOL    HW135232  11.578   0.725   3.130
77800SOL    HW235233  11.597   0.873   3.106
77801SOL     OW35234   1.496   8.411  10.879
77801SOL    HW135235   1.494   8.316  10.868
77801SOL    HW235236   1.554   8.425  10.954
77802SOL     OW35237   7.692   8.303   8.042
77802SOL    HW135238   7.667   8.223   8.088
77802SOL    HW235239   7.787   8.293   8.027
77803SOL     OW35240   4.867   9.122   5.636
77803SOL    HW135241   4.823   9.054   5.685
77803SOL    HW235242   4.917   9.171   5.701
77804SOL     OW35243   0.086   0.596   5.685
77804SOL    HW135244   0.031   0.660   5.730
77804SOL    HW235245   0.072   0.514   5.733
77805SOL     OW35246  11.521   5.225   4.394
77805SOL    HW135247  11.465   5.163   4.347
77805SOL    HW235248  11.584   5.171   4.441
77806SOL     OW35249  13.314   9.146  14.399
77806SOL    HW135250  13.312   9.122  14.492
77806SOL    HW235251  13.328   9.240  14.398
77807SOL     OW35252   6.282   5.098  13.162
77807SOL    HW135253   6.320   5.169  13.214
77807SOL    HW235254   6.315   5.113  13.073
77808SOL     OW35255   6.252   5.302   6.747
77808SOL    HW135256   6.278   5.323   6.658
77808SOL    HW235257   6.244   5.207   6.748
77809SOL     OW35258  13.805   8.702   8.486
77809SOL    HW135259  13.771   8.683   8.573
77809SOL    HW235260  13.899   8.688   8.493
77810SOL     OW35261  14.195   2.495   1.840
77810SOL    HW135262  14.104   2.477   1.818
77810SOL    HW235263  14.234   2.527   1.759
77811SOL     OW35264  14.462   2.963   6.691
77811SOL    HW135265  14.452   2.868   6.686
77811SOL    HW235266  14.491   2.988   6.603
77812SOL     OW35267  13.366   1.738   7.500
77812SOL    HW135268  13.365   1.727   7.595
77812SOL    HW235269  13.367   1.832   7.486
77813SOL     OW35270  12.492   9.330   9.983
77813SOL    HW135271  12.460   9.369  10.064
77813SOL    HW235272  12.476   9.237   9.992
77814SOL     OW35273   6.070  11.817   9.286
77814SOL    HW135274   6.103  11.898   9.324
77814SOL    HW235275   6.099  11.748   9.346
77815SOL     OW35276   7.141   6.351   1.559
77815SOL    HW135277   7.122   6.400   1.479
77815SOL    HW235278   7.185   6.271   1.528
77816SOL     OW35279   6.615   4.574   5.861
77816SOL    HW135280   6.622   4.556   5.955
77816SOL    HW235281   6.705   4.593   5.834
77817SOL     OW35282   1.504  10.434  11.331
77817SOL    HW135283   1.521  10.366  11.396
77817SOL    HW235284   1.560  10.411  11.257
77818SOL     OW35285  10.102  14.261  10.761
77818SOL    HW135286  10.017  14.277  10.800
77818SOL    HW235287  10.154  14.221  10.831
77819SOL     OW35288  10.250   0.243   7.712
77819SOL    HW135289  10.230   0.335   7.695
77819SOL    HW235290  10.170   0.196   7.691
77820SOL     OW35291  13.292   5.972   7.339
77820SOL    HW135292  13.234   5.986   7.413
77820SOL    HW235293  13.379   5.962   7.379
77821SOL     OW35294  13.694  12.556  14.223
77821SOL    HW135295  13.762  12.489  14.230
77821SOL    HW235296  13.663  12.551  14.133
77822SOL     OW35297   9.785   1.006  12.532
77822SOL    HW135298   9.784   0.967  12.444
77822SOL    HW235299   9.791   1.101  12.516
77823SOL     OW35300   2.796   6.362   4.376
77823SOL    HW135301   2.857   6.347   4.303
77823SOL    HW235302   2.710   6.366   4.335
77824SOL     OW35303  13.654  10.322   5.467
77824SOL    HW135304  13.749  10.333   5.470
77824SOL    HW235305  13.641  10.251   5.404
77825SOL     OW35306   5.595   4.297   9.282
77825SOL    HW135307   5.620   4.380   9.242
77825SOL    HW235308   5.600   4.314   9.376
77826SOL     OW35309   1.810   7.203   4.555
77826SOL    HW135310   1.749   7.178   4.486
77826SOL    HW235311   1.883   7.142   4.546
77827SOL     OW35312   0.980   7.355  10.403
77827SOL    HW135313   1.023   7.374  10.486
77827SOL    HW235314   1.044   7.380  10.336
77828SOL     OW35315   5.900  14.041  12.239
77828SOL    HW135316   5.841  13.966  12.234
77828SOL    HW235317   5.947  14.029  12.321
77829SOL     OW35318   4.388   0.244  12.026
77829SOL    HW135319   4.391   0.160  11.981
77829SOL    HW235320   4.376   0.308  11.956
77830SOL     OW35321  11.680  12.691   0.218
77830SOL    HW135322  11.750  12.631   0.247
77830SOL    HW235323  11.606  12.634   0.198
77831SOL     OW35324   4.065  10.337  10.142
77831SOL    HW135325   4.119  10.354  10.219
77831SOL    HW235326   4.044  10.244  10.149
77832SOL     OW35327   0.627  11.980   2.078
77832SOL    HW135328   0.595  12.058   2.034
77832SOL    HW235329   0.701  12.010   2.131
77833SOL     OW35330  14.554   5.793   8.716
77833SOL    HW135331  14.541   5.884   8.742
77833SOL    HW235332  14.487   5.745   8.765
77834SOL     OW35333  13.461   2.785   8.603
77834SOL    HW135334  13.491   2.697   8.625
77834SOL    HW235335  13.420   2.818   8.683
77835SOL     OW35336   8.261   5.741   4.366
77835SOL    HW135337   8.172   5.754   4.332
77835SOL    HW235338   8.318   5.754   4.290
77836SOL     OW35339   1.623   3.378   2.362
77836SOL    HW135340   1.660   3.291   2.378
77836SOL    HW235341   1.675   3.413   2.290
77837SOL     OW35342   1.917   1.278   9.897
77837SOL    HW135343   1.879   1.362   9.925
77837SOL    HW235344   1.999   1.302   9.854
77838SOL     OW35345   0.508  12.488  10.034
77838SOL    HW135346   0.568  12.559  10.056
77838SOL    HW235347   0.543  12.412  10.079
77839SOL     OW35348  12.141   7.675   4.719
77839SOL    HW135349  12.120   7.750   4.663
77839SOL    HW235350  12.056   7.644   4.749
77840SOL     OW35351  13.664   1.935   0.080
77840SOL    HW135352  13.684   1.862   0.138
77840SOL    HW235353  13.578   1.913   0.044
77841SOL     OW35354  12.593  12.990   2.778
77841SOL    HW135355  12.580  13.085   2.769
77841SOL    HW235356  12.621  12.961   2.692
77842SOL     OW35357   1.172   1.844  13.755
77842SOL    HW135358   1.164   1.939  13.748
77842SOL    HW235359   1.232   1.830  13.828
77843SOL     OW35360   9.718  14.009  13.326
77843SOL    HW135361   9.784  14.078  13.332
77843SOL    HW235362   9.732  13.956  13.405
77844SOL     OW35363   0.082   6.399   1.777
77844SOL    HW135364   0.083   6.494   1.789
77844SOL    HW235365  14.873   6.374   1.794
77845SOL     OW35366   5.458   3.665   5.357
77845SOL    HW135367   5.442   3.658   5.263
77845SOL    HW235368   5.398   3.602   5.397
77846SOL     OW35369  14.545   5.805   9.631
77846SOL    HW135370  14.497   5.821   9.712
77846SOL    HW235371  14.492   5.740   9.584
77847SOL     OW35372   2.326   7.137   4.574
77847SOL    HW135373   2.358   7.049   4.551
77847SOL    HW235374   2.368   7.156   4.658
77848SOL     OW35375   8.947   4.332   9.368
77848SOL    HW135376   8.989   4.403   9.418
77848SOL    HW235377   8.997   4.326   9.287
77849SOL     OW35378   2.090   8.833  12.073
77849SOL    HW135379   2.000   8.801  12.080
77849SOL    HW235380   2.092   8.883  11.992
77850SOL     OW35381   7.724   5.326  10.511
77850SOL    HW135382   7.659   5.380  10.557
77850SOL    HW235383   7.793   5.388  10.486
77851SOL     OW35384   2.965   5.078   1.246
77851SOL    HW135385   3.038   5.132   1.277
77851SOL    HW235386   2.944   5.021   1.320
77852SOL     OW35387   2.429  12.304   2.604
77852SOL    HW135388   2.513  12.258   2.602
77852SOL    HW235389   2.399  12.304   2.513
77853SOL     OW35390   0.735   3.000  12.538
77853SOL    HW135391   0.826   2.973  12.547
77853SOL    HW235392   0.725   3.018  12.444
77854SOL     OW35393   9.259   1.312   1.265
77854SOL    HW135394   9.328   1.278   1.208
77854SOL    HW235395   9.201   1.360   1.206
77855SOL     OW35396   9.823   7.051   1.249
77855SOL    HW135397   9.797   7.118   1.311
77855SOL    HW235398   9.838   7.098   1.167
77856SOL     OW35399   4.900   4.995   2.114
77856SOL    HW135400   4.970   4.931   2.109
77856SOL    HW235401   4.925   5.063   2.051
77857SOL     OW35402   4.164  11.449   9.107
77857SOL    HW135403   4.098  11.498   9.156
77857SOL    HW235404   4.238  11.510   9.100
77858SOL     OW35405   7.524  13.322   7.329
77858SOL    HW135406   7.548  13.234   7.357
77858SOL    HW235407   7.469  13.308   7.251
77859SOL     OW35408   2.954   5.970   7.171
77859SOL    HW135409   2.926   5.899   7.228
77859SOL    HW235410   2.877   6.026   7.162
77860SOL     OW35411  13.905  12.185  11.417
77860SOL    HW135412  13.832  12.231  11.459
77860SOL    HW235413  13.875  12.171  11.328
77861SOL     OW35414   8.062   6.381   0.222
77861SOL    HW135415   8.068   6.346   0.310
77861SOL    HW235416   8.056   6.304   0.166
77862SOL     OW35417   3.154  14.559   6.134
77862SOL    HW135418   3.133  14.643   6.094
77862SOL    HW235419   3.120  14.493   6.073
77863SOL     OW35420  11.061  11.724   2.674
77863SOL    HW135421  10.992  11.685   2.620
77863SOL    HW235422  11.035  11.816   2.683
77864SOL     OW35423   1.445   8.368   0.603
77864SOL    HW135424   1.467   8.445   0.550
77864SOL    HW235425   1.413   8.304   0.540
77865SOL     OW35426   1.022  11.260   9.551
77865SOL    HW135427   0.984  11.319   9.616
77865SOL    HW235428   1.110  11.243   9.583
77866SOL     OW35429   8.695   6.715   4.399
77866SOL    HW135430   8.750   6.660   4.342
77866SOL    HW235431   8.639   6.763   4.338
77867SOL     OW35432   2.757   8.571   8.588
77867SOL    HW135433   2.792   8.595   8.502
77867SOL    HW235434   2.731   8.479   8.578
77868SOL     OW35435   8.891   3.837   9.224
77868SOL    HW135436   8.800   3.820   9.197
77868SOL    HW235437   8.889   3.830   9.319
77869SOL     OW35438   9.315   8.027   6.042
77869SOL    HW135439   9.225   8.026   6.074
77869SOL    HW235440   9.326   8.113   6.002
77870SOL     OW35441   7.007   8.266   3.776
77870SOL    HW135442   6.933   8.309   3.820
77870SOL    HW235443   7.007   8.177   3.811
77871SOL     OW35444   3.447   3.504   0.046
77871SOL    HW135445   3.527   3.452   0.039
77871SOL    HW235446   3.376   3.441   0.038
77872SOL     OW35447   2.170  11.683   7.472
77872SOL    HW135448   2.248  11.717   7.429
77872SOL    HW235449   2.137  11.757   7.525
77873SOL     OW35450   3.031  10.723   2.302
77873SOL    HW135451   3.104  10.689   2.354
77873SOL    HW235452   2.980  10.776   2.363
77874SOL     OW35453   6.359   7.185  14.674
77874SOL    HW135454   6.415   7.223  14.741
77874SOL    HW235455   6.410   7.113  14.638
77875SOL     OW35456   0.810   5.782   8.911
77875SOL    HW135457   0.796   5.699   8.866
77875SOL    HW235458   0.871   5.829   8.855
77876SOL     OW35459   1.662  14.103   2.612
77876SOL    HW135460   1.674  14.137   2.701
77876SOL    HW235461   1.656  14.181   2.557
77877SOL     OW35462  10.037   8.889   1.225
77877SOL    HW135463  10.121   8.877   1.271
77877SOL    HW235464  10.057   8.873   1.133
77878SOL     OW35465   4.957  11.031   8.198
77878SOL    HW135466   4.964  10.999   8.108
77878SOL    HW235467   4.941  11.125   8.189
77879SOL     OW35468   6.548  11.056   6.616
77879SOL    HW135469   6.489  11.128   6.638
77879SOL    HW235470   6.494  10.978   6.623
77880SOL     OW35471   7.691   9.627  11.723
77880SOL    HW135472   7.728   9.543  11.753
77880SOL    HW235473   7.689   9.620  11.628
77881SOL     OW35474   6.887   2.301  12.586
77881SOL    HW135475   6.981   2.313  12.599
77881SOL    HW235476   6.863   2.370  12.524
77882SOL     OW35477   1.683   9.563   8.835
77882SOL    HW135478   1.608   9.508   8.861
77882SOL    HW235479   1.685   9.555   8.739
77883SOL     OW35480   7.781  10.961  13.297
77883SOL    HW135481   7.792  10.872  13.264
77883SOL    HW235482   7.863  11.005  13.276
77884SOL     OW35483   9.111   9.371   1.247
77884SOL    HW135484   9.193   9.393   1.203
77884SOL    HW235485   9.135   9.300   1.307
77885SOL     OW35486   3.366   2.734   9.337
77885SOL    HW135487   3.415   2.814   9.319
77885SOL    HW235488   3.432   2.669   9.359
77886SOL     OW35489   2.964  13.076   1.347
77886SOL    HW135490   2.975  12.984   1.324
77886SOL    HW235491   3.020  13.089   1.423
77887SOL     OW35492  13.345   0.106  14.773
77887SOL    HW135493  13.354   0.097  14.678
77887SOL    HW235494  13.408   0.174  14.797
77888SOL     OW35495  12.605   6.030  10.737
77888SOL    HW135496  12.515   6.006  10.714
77888SOL    HW235497  12.613   6.007  10.829
77889SOL     OW35498  10.611   3.496   8.423
77889SOL    HW135499  10.637   3.584   8.395
77889SOL    HW235500  10.636   3.439   8.350
77890SOL     OW35501  11.781  10.413   3.592
77890SOL    HW135502  11.791  10.396   3.499
77890SOL    HW235503  11.804  10.330   3.634
77891SOL     OW35504  13.479  13.921  13.169
77891SOL    HW135505  13.443  13.839  13.136
77891SOL    HW235506  13.573  13.904  13.178
77892SOL     OW35507  12.765   6.399  12.667
77892SOL    HW135508  12.807   6.395  12.753
77892SOL    HW235509  12.701   6.470  12.675
77893SOL     OW35510  11.050   7.234  11.479
77893SOL    HW135511  11.053   7.140  11.499
77893SOL    HW235512  11.089   7.241  11.392
77894SOL     OW35513  10.959   3.040  13.855
77894SOL    HW135514  10.925   3.091  13.929
77894SOL    HW235515  11.052   3.028  13.876
77895SOL     OW35516   3.883  12.007   7.824
77895SOL    HW135517   3.923  11.925   7.853
77895SOL    HW235518   3.869  12.057   7.905
77896SOL     OW35519   8.850   0.962   1.866
77896SOL    HW135520   8.760   0.943   1.889
77896SOL    HW235521   8.889   0.877   1.846
77897SOL     OW35522   5.873   4.827  11.943
77897SOL    HW135523   5.801   4.843  11.882
77897SOL    HW235524   5.951   4.822  11.888
77898SOL     OW35525   2.129   1.169   2.690
77898SOL    HW135526   2.059   1.222   2.653
77898SOL    HW235527   2.168   1.224   2.757
77899SOL     OW35528   6.648   9.138   2.378
77899SOL    HW135529   6.702   9.147   2.456
77899SOL    HW235530   6.641   9.227   2.344
77900SOL     OW35531  11.739  12.078   7.077
77900SOL    HW135532  11.669  12.043   7.133
77900SOL    HW235533  11.803  12.113   7.138
77901SOL     OW35534  11.268  12.832  10.794
77901SOL    HW135535  11.189  12.878  10.765
77901SOL    HW235536  11.338  12.868  10.740
77902SOL     OW35537   1.675   7.422  13.522
77902SOL    HW135538   1.640   7.511  13.524
77902SOL    HW235539   1.604   7.368  13.488
77903SOL     OW35540   1.396   3.400   5.437
77903SOL    HW135541   1.454   3.466   5.399
77903SOL    HW235542   1.414   3.320   5.387
77904SOL     OW35543  10.928  11.523  12.079
77904SOL    HW135544  10.864  11.540  12.147
77904SOL    HW235545  10.956  11.433  12.093
77905SOL     OW35546   6.743   0.666  10.234
77905SOL    HW135547   6.662   0.716  10.231
77905SOL    HW235548   6.811   0.729  10.208
77906SOL     OW35549   0.086   9.365  11.322
77906SOL    HW135550   0.041   9.439  11.362
77906SOL    HW235551   0.047   9.288  11.363
77907SOL     OW35552   9.388   2.236   6.511
77907SOL    HW135553   9.306   2.280   6.486
77907SOL    HW235554   9.416   2.280   6.591
77908SOL     OW35555  13.001  12.856   9.073
77908SOL    HW135556  13.081  12.907   9.083
77908SOL    HW235557  12.967  12.848   9.162
77909SOL     OW35558  12.091   5.535   8.811
77909SOL    HW135559  12.125   5.595   8.877
77909SOL    HW235560  12.124   5.449   8.837
77910SOL     OW35561   7.299   1.131  12.310
77910SOL    HW135562   7.260   1.206  12.265
77910SOL    HW235563   7.393   1.145  12.304
77911SOL     OW35564   2.762  14.418   4.130
77911SOL    HW135565   2.711  14.428   4.050
77911SOL    HW235566   2.803  14.504   4.143
77912SOL     OW35567  10.677   0.643   1.010
77912SOL    HW135568  10.706   0.732   1.031
77912SOL    HW235569  10.599   0.630   1.064
77913SOL     OW35570   9.402  13.146   7.550
77913SOL    HW135571   9.313  13.177   7.532
77913SOL    HW235572   9.394  13.093   7.629
77914SOL     OW35573  11.236   4.576  13.477
77914SOL    HW135574  11.204   4.494  13.514
77914SOL    HW235575  11.315   4.552  13.429
77915SOL     OW35576  11.269  11.281   6.771
77915SOL    HW135577  11.173  11.275   6.766
77915SOL    HW235578  11.291  11.354   6.713
77916SOL     OW35579  13.058   5.936   3.560
77916SOL    HW135580  13.077   5.974   3.645
77916SOL    HW235581  13.143   5.930   3.516
77917SOL     OW35582  13.447   2.298  10.789
77917SOL    HW135583  13.536   2.285  10.820
77917SOL    HW235584  13.453   2.369  10.725
77918SOL     OW35585   4.304   0.131   5.779
77918SOL    HW135586   4.376   0.090   5.732
77918SOL    HW235587   4.331   0.222   5.791
77919SOL     OW35588   8.238   3.983   2.739
77919SOL    HW135589   8.191   3.950   2.815
77919SOL    HW235590   8.269   4.070   2.764
77920SOL     OW35591  13.386  14.785   0.919
77920SOL    HW135592  13.315  14.726   0.946
77920SOL    HW235593  13.461  14.727   0.907
77921SOL     OW35594   6.729   6.259   3.627
77921SOL    HW135595   6.750   6.350   3.646
77921SOL    HW235596   6.809   6.222   3.590
77922SOL     OW35597   4.624   7.268   1.009
77922SOL    HW135598   4.616   7.199   1.076
77922SOL    HW235599   4.560   7.244   0.942
77923SOL     OW35600   7.295   0.115  12.580
77923SOL    HW135601   7.283   0.071  12.495
77923SOL    HW235602   7.239   0.192  12.574
77924SOL     OW35603   0.386   0.241   4.010
77924SOL    HW135604   0.303   0.287   4.021
77924SOL    HW235605   0.429   0.287   3.938
77925SOL     OW35606   3.808  12.697   9.814
77925SOL    HW135607   3.796  12.711   9.908
77925SOL    HW235608   3.869  12.765   9.787
77926SOL     OW35609   4.388  12.406   5.787
77926SOL    HW135610   4.432  12.360   5.715
77926SOL    HW235611   4.458  12.455   5.830
77927SOL     OW35612   1.620   3.499   5.076
77927SOL    HW135613   1.558   3.561   5.113
77927SOL    HW235614   1.572   3.459   5.002
77928SOL     OW35615   7.041   6.289  14.726
77928SOL    HW135616   7.068   6.303  14.635
77928SOL    HW235617   6.986   6.364  14.747
77929SOL     OW35618  14.190   9.260   9.368
77929SOL    HW135619  14.231   9.346   9.373
77929SOL    HW235620  14.096   9.277   9.374
77930SOL     OW35621  10.000  12.689  14.488
77930SOL    HW135622  10.030  12.777  14.464
77930SOL    HW235623   9.993  12.642  14.405
77931SOL     OW35624  12.111   5.271  12.496
77931SOL    HW135625  12.050   5.213  12.450
77931SOL    HW235626  12.198   5.237  12.473
77932SOL     OW35627  14.643  11.270   5.772
77932SOL    HW135628  14.672  11.348   5.724
77932SOL    HW235629  14.684  11.279   5.858
77933SOL     OW35630   2.053   2.230   0.240
77933SOL    HW135631   2.051   2.309   0.186
77933SOL    HW235632   2.056   2.262   0.330
77934SOL     OW35633   0.609   3.099   3.684
77934SOL    HW135634   0.635   3.074   3.596
77934SOL    HW235635   0.591   3.193   3.678
77935SOL     OW35636   9.338   9.556  11.716
77935SOL    HW135637   9.366   9.600  11.637
77935SOL    HW235638   9.244   9.543  11.704
77936SOL     OW35639   5.377   1.957   3.950
77936SOL    HW135640   5.394   1.881   4.005
77936SOL    HW235641   5.281   1.960   3.941
77937SOL     OW35642   5.059   9.586  11.348
77937SOL    HW135643   5.105   9.670  11.359
77937SOL    HW235644   5.030   9.587  11.257
77938SOL     OW35645   9.585   8.662  12.071
77938SOL    HW135646   9.662   8.632  12.120
77938SOL    HW235647   9.514   8.655  12.134
77939SOL     OW35648  11.986  10.189   8.272
77939SOL    HW135649  11.911  10.198   8.214
77939SOL    HW235650  12.059  10.225   8.221
77940SOL     OW35651   4.965   5.972  10.525
77940SOL    HW135652   4.885   5.963  10.474
77940SOL    HW235653   4.954   6.053  10.575
77941SOL     OW35654  11.719   0.927  11.933
77941SOL    HW135655  11.656   0.906  12.003
77941SOL    HW235656  11.677   0.996  11.883
77942SOL     OW35657  11.320   6.204   0.739
77942SOL    HW135658  11.412   6.226   0.722
77942SOL    HW235659  11.284   6.280   0.783
77943SOL     OW35660   7.898   6.091   9.646
77943SOL    HW135661   7.821   6.072   9.700
77943SOL    HW235662   7.943   6.161   9.693
77944SOL     OW35663   4.454   0.523   0.737
77944SOL    HW135664   4.391   0.494   0.672
77944SOL    HW235665   4.540   0.510   0.696
77945SOL     OW35666   7.732  13.061   4.449
77945SOL    HW135667   7.809  13.017   4.413
77945SOL    HW235668   7.763  13.100   4.531
77946SOL     OW35669  13.134   4.000  14.830
77946SOL    HW135670  13.093   4.079  14.796
77946SOL    HW235671  13.061   3.939  14.842
77947SOL     OW35672   0.587   9.609   6.924
77947SOL    HW135673   0.654   9.541   6.910
77947SOL    HW235674   0.508   9.560   6.948
77948SOL     OW35675   3.418   1.924  14.134
77948SOL    HW135676   3.423   2.010  14.090
77948SOL    HW235677   3.329   1.894  14.117
77949SOL     OW35678   5.715   4.261  10.367
77949SOL    HW135679   5.679   4.245  10.280
77949SOL    HW235680   5.680   4.190  10.421
77950SOL     OW35681   6.111  12.210   1.719
77950SOL    HW135682   6.044  12.171   1.664
77950SOL    HW235683   6.194  12.183   1.680
77951SOL     OW35684   4.380   9.437   1.978
77951SOL    HW135685   4.331   9.366   2.018
77951SOL    HW235686   4.456   9.394   1.938
77952SOL     OW35687   1.501   8.836   1.617
77952SOL    HW135688   1.530   8.747   1.601
77952SOL    HW235689   1.414   8.840   1.577
77953SOL     OW35690  11.848   0.745  12.746
77953SOL    HW135691  11.815   0.656  12.759
77953SOL    HW235692  11.913   0.736  12.676
77954SOL     OW35693  11.474   6.241  14.457
77954SOL    HW135694  11.462   6.148  14.438
77954SOL    HW235695  11.535   6.271  14.389
77955SOL     OW35696  12.466   7.831   0.719
77955SOL    HW135697  12.417   7.838   0.637
77955SOL    HW235698  12.546   7.784   0.695
77956SOL     OW35699   1.812   6.910   4.695
77956SOL    HW135700   1.811   6.818   4.666
77956SOL    HW235701   1.898   6.922   4.735
77957SOL     OW35702   9.920  13.258   8.559
77957SOL    HW135703   9.928  13.281   8.652
77957SOL    HW235704   9.838  13.208   8.555
77958SOL     OW35705   9.176   8.027  11.053
77958SOL    HW135706   9.241   7.958  11.043
77958SOL    HW235707   9.211   8.084  11.121
77959SOL     OW35708   0.461   4.456  13.964
77959SOL    HW135709   0.367   4.463  13.950
77959SOL    HW235710   0.477   4.362  13.970
77960SOL     OW35711  14.169   2.854  12.501
77960SOL    HW135712  14.217   2.926  12.459
77960SOL    HW235713  14.078   2.866  12.473
77961SOL     OW35714   8.189   4.610   7.382
77961SOL    HW135715   8.261   4.578   7.437
77961SOL    HW235716   8.231   4.635   7.300
77962SOL     OW35717   7.337   5.886   8.876
77962SOL    HW135718   7.347   5.889   8.781
77962SOL    HW235719   7.270   5.820   8.892
77963SOL     OW35720   1.674  11.275   4.488
77963SOL    HW135721   1.695  11.255   4.579
77963SOL    HW235722   1.623  11.199   4.459
77964SOL     OW35723   9.263   8.803   9.586
77964SOL    HW135724   9.356   8.799   9.564
77964SOL    HW235725   9.244   8.718   9.627
77965SOL     OW35726   2.951  11.699   6.834
77965SOL    HW135727   2.954  11.605   6.848
77965SOL    HW235728   2.966  11.736   6.921
77966SOL     OW35729  12.226  10.325   2.888
77966SOL    HW135730  12.265  10.249   2.933
77966SOL    HW235731  12.133  10.319   2.908
77967SOL     OW35732   0.427   0.196   2.725
77967SOL    HW135733   0.490   0.265   2.705
77967SOL    HW235734   0.385   0.224   2.807
77968SOL     OW35735   4.714  10.776   8.995
77968SOL    HW135736   4.662  10.731   8.928
77968SOL    HW235737   4.649  10.808   9.058
77969SOL     OW35738  13.133   7.085   4.492
77969SOL    HW135739  13.152   7.122   4.578
77969SOL    HW235740  13.214   7.096   4.443
77970SOL     OW35741  14.312   4.183   0.994
77970SOL    HW135742  14.296   4.242   0.920
77970SOL    HW235743  14.304   4.095   0.957
77971SOL     OW35744   9.591   9.688  12.696
77971SOL    HW135745   9.556   9.631  12.628
77971SOL    HW235746   9.525   9.685  12.766
77972SOL     OW35747   8.125   5.247  13.004
77972SOL    HW135748   8.191   5.180  12.985
77972SOL    HW235749   8.158   5.327  12.963
77973SOL     OW35750   8.234   9.034   7.973
77973SOL    HW135751   8.158   8.977   7.987
77973SOL    HW235752   8.241   9.041   7.878
77974SOL     OW35753   7.257   3.199   5.109
77974SOL    HW135754   7.283   3.114   5.145
77974SOL    HW235755   7.330   3.257   5.131
77975SOL     OW35756   6.922   8.567   3.350
77975SOL    HW135757   6.941   8.633   3.417
77975SOL    HW235758   6.974   8.491   3.377
77976SOL     OW35759  13.733   9.435  11.981
77976SOL    HW135760  13.737   9.521  12.021
77976SOL    HW235761  13.810   9.389  12.015
77977SOL     OW35762   6.895   7.662  13.313
77977SOL    HW135763   6.910   7.753  13.340
77977SOL    HW235764   6.845   7.623  13.384
77978SOL     OW35765   8.159  10.912   3.064
77978SOL    HW135766   8.106  10.983   3.028
77978SOL    HW235767   8.127  10.833   3.021
77979SOL     OW35768   5.166   8.916   1.885
77979SOL    HW135769   5.114   8.836   1.877
77979SOL    HW235770   5.101   8.986   1.894
77980SOL     OW35771   6.617   4.467   1.933
77980SOL    HW135772   6.557   4.541   1.936
77980SOL    HW235773   6.665   4.478   1.851
77981SOL     OW35774   5.612   8.938   4.032
77981SOL    HW135775   5.577   9.026   4.021
77981SOL    HW235776   5.703   8.951   4.060
77982SOL     OW35777  10.123  13.699   4.998
77982SOL    HW135778  10.089  13.632   4.940
77982SOL    HW235779  10.110  13.664   5.086
77983SOL     OW35780   3.966   1.826   3.150
77983SOL    HW135781   3.946   1.780   3.068
77983SOL    HW235782   3.940   1.916   3.133
77984SOL     OW35783   1.062   1.990   0.768
77984SOL    HW135784   1.014   2.050   0.711
77984SOL    HW235785   1.022   2.001   0.854
77985SOL     OW35786   7.735   7.179   7.380
77985SOL    HW135787   7.683   7.256   7.404
77985SOL    HW235788   7.756   7.191   7.288
77986SOL     OW35789  13.789   6.589  12.539
77986SOL    HW135790  13.796   6.656  12.471
77986SOL    HW235791  13.705   6.606  12.581
77987SOL     OW35792   9.072   2.992  14.206
77987SOL    HW135793   9.162   3.000  14.239
77987SOL    HW235794   9.073   3.036  14.122
77988SOL     OW35795   9.565   2.057   5.714
77988SOL    HW135796   9.527   2.081   5.630
77988SOL    HW235797   9.611   2.136   5.743
77989SOL     OW35798  14.868   8.974  12.718
77989SOL    HW135799  14.833   8.965  12.807
77989SOL    HW235800   0.025   8.889  12.699
77990SOL     OW35801   5.235   8.323   7.333
77990SOL    HW135802   5.268   8.377   7.262
77990SOL    HW235803   5.163   8.374   7.370
77991SOL     OW35804   2.546   6.341  11.943
77991SOL    HW135805   2.626   6.311  11.900
77991SOL    HW235806   2.556   6.437  11.945
77992SOL     OW35807  13.421   7.222   3.579
77992SOL    HW135808  13.510   7.186   3.580
77992SOL    HW235809  13.429   7.303   3.527
77993SOL     OW35810   9.060   8.982   2.220
77993SOL    HW135811   9.118   8.908   2.238
77993SOL    HW235812   8.973   8.950   2.243
77994SOL     OW35813   9.776   0.849   8.345
77994SOL    HW135814   9.772   0.939   8.312
77994SOL    HW235815   9.685   0.820   8.348
77995SOL     OW35816   6.216   4.116  10.014
77995SOL    HW135817   6.173   4.041   9.974
77995SOL    HW235818   6.146   4.179  10.029
77996SOL     OW35819   6.260   5.490   0.470
77996SOL    HW135820   6.329   5.504   0.535
77996SOL    HW235821   6.279   5.554   0.401
77997SOL     OW35822   1.374  10.814  14.350
77997SOL    HW135823   1.406  10.723  14.348
77997SOL    HW235824   1.280  10.806  14.367
77998SOL     OW35825  12.071   4.267  14.784
77998SOL    HW135826  12.109   4.352  14.805
77998SOL    HW235827  12.068   4.221  14.868
77999SOL     OW35828   1.600   9.057  12.788
77999SOL    HW135829   1.693   9.073  12.773
77999SOL    HW235830   1.567   9.027  12.703
78000SOL     OW35831   0.096   4.511   9.168
78000SOL    HW135832   0.103   4.552   9.254
78000SOL    HW235833   0.110   4.418   9.185
78001SOL     OW35834  14.657  12.943   7.817
78001SOL    HW135835  14.649  12.930   7.912
78001SOL    HW235836  14.704  13.026   7.808
78002SOL     OW35837   8.475  11.995   1.488
78002SOL    HW135838   8.544  11.993   1.422
78002SOL    HW235839   8.520  11.974   1.570
78003SOL     OW35840   0.188   4.322   3.901
78003SOL    HW135841   0.109   4.370   3.926
78003SOL    HW235842   0.173   4.297   3.809
78004SOL     OW35843   1.042   4.566   5.398
78004SOL    HW135844   1.024   4.571   5.492
78004SOL    HW235845   1.008   4.648   5.363
78005SOL     OW35846   7.879   4.746  13.812
78005SOL    HW135847   7.891   4.825  13.758
78005SOL    HW235848   7.844   4.681  13.751
78006SOL     OW35849   1.053  12.068   1.705
78006SOL    HW135850   1.013  11.987   1.673
78006SOL    HW235851   0.994  12.097   1.775
78007SOL     OW35852   7.903   4.570   6.805
78007SOL    HW135853   7.852   4.492   6.786
78007SOL    HW235854   7.925   4.606   6.719
78008SOL     OW35855  13.393   8.117  10.132
78008SOL    HW135856  13.361   8.036  10.173
78008SOL    HW235857  13.419   8.171  10.207
78009SOL     OW35858   7.948   0.191   6.946
78009SOL    HW135859   7.930   0.147   6.862
78009SOL    HW235860   7.877   0.253   6.956
78010SOL     OW35861   1.782   5.895   4.098
78010SOL    HW135862   1.828   5.930   4.022
78010SOL    HW235863   1.832   5.819   4.125
78011SOL     OW35864   1.595   1.751   5.854
78011SOL    HW135865   1.683   1.770   5.823
78011SOL    HW235866   1.543   1.827   5.827
78012SOL     OW35867   2.639   8.405  14.833
78012SOL    HW135868   2.605   8.481  14.786
78012SOL    HW235869   2.718   8.380  14.784
78013SOL     OW35870  10.181   3.784  14.790
78013SOL    HW135871  10.273   3.778  14.818
78013SOL    HW235872  10.149   3.865  14.830
78014SOL     OW35873  13.027  10.212  14.057
78014SOL    HW135874  13.081  10.199  13.979
78014SOL    HW235875  12.938  10.218  14.024
78015SOL     OW35876   4.350  10.340  14.380
78015SOL    HW135877   4.424  10.362  14.323
78015SOL    HW235878   4.285  10.408  14.362
78016SOL     OW35879   0.110  13.318   7.856
78016SOL    HW135880   0.036  13.263   7.882
78016SOL    HW235881   0.133  13.367   7.935
78017SOL     OW35882  10.564  13.311  14.204
78017SOL    HW135883  10.657  13.295  14.191
78017SOL    HW235884  10.525  13.223  14.205
78018SOL     OW35885   6.246  14.375  12.271
78018SOL    HW135886   6.165  14.374  12.322
78018SOL    HW235887   6.306  14.321  12.322
78019SOL     OW35888   0.879   3.320   6.792
78019SOL    HW135889   0.919   3.329   6.878
78019SOL    HW235890   0.899   3.231   6.765
78020SOL     OW35891   3.774  10.903   4.944
78020SOL    HW135892   3.756  10.875   4.854
78020SOL    HW235893   3.759  10.997   4.943
78021SOL     OW35894   0.509   2.434   3.872
78021SOL    HW135895   0.558   2.413   3.793
78021SOL    HW235896   0.540   2.522   3.896
78022SOL     OW35897  11.325   0.958  10.083
78022SOL    HW135898  11.394   0.998  10.030
78022SOL    HW235899  11.245   1.003  10.057
78023SOL     OW35900   3.658   6.355  10.897
78023SOL    HW135901   3.665   6.450  10.900
78023SOL    HW235902   3.731   6.323  10.950
78024SOL     OW35903   5.942   7.576   7.555
78024SOL    HW135904   5.905   7.646   7.502
78024SOL    HW235905   5.897   7.497   7.524
78025SOL     OW35906  13.542  12.753   5.435
78025SOL    HW135907  13.486  12.741   5.359
78025SOL    HW235908  13.631  12.738   5.402
78026SOL     OW35909  10.085   6.545   8.390
78026SOL    HW135910  10.149   6.607   8.355
78026SOL    HW235911  10.003   6.594   8.392
78027SOL     OW35912   1.618  13.235   1.531
78027SOL    HW135913   1.535  13.193   1.552
78027SOL    HW235914   1.684  13.169   1.549
78028SOL     OW35915   1.631  13.700  10.702
78028SOL    HW135916   1.614  13.761  10.630
78028SOL    HW235917   1.642  13.615  10.660
78029SOL     OW35918  13.419   6.741   8.360
78029SOL    HW135919  13.356   6.737   8.431
78029SOL    HW235920  13.500   6.707   8.399
78030SOL     OW35921   1.068   4.881   1.865
78030SOL    HW135922   1.039   4.953   1.810
78030SOL    HW235923   1.021   4.805   1.833
78031SOL     OW35924   1.866   9.831   5.870
78031SOL    HW135925   1.950   9.841   5.915
78031SOL    HW235926   1.849   9.736   5.873
78032SOL     OW35927   8.090   4.814   5.711
78032SOL    HW135928   8.158   4.750   5.691
78032SOL    HW235929   8.126   4.897   5.680
78033SOL     OW35930   0.613   8.886  12.339
78033SOL    HW135931   0.677   8.865  12.407
78033SOL    HW235932   0.550   8.814  12.342
78034SOL     OW35933  12.320   8.549  12.595
78034SOL    HW135934  12.243   8.525  12.646
78034SOL    HW235935  12.381   8.586  12.658
78035SOL     OW35936   9.156   1.082   9.934
78035SOL    HW135937   9.158   1.160   9.990
78035SOL    HW235938   9.228   1.027   9.965
78036SOL     OW35939   8.072   1.238  10.996
78036SOL    HW135940   8.136   1.246  11.067
78036SOL    HW235941   8.064   1.144  10.980
78037SOL     OW35942  13.315   0.564   1.360
78037SOL    HW135943  13.402   0.596   1.336
78037SOL    HW235944  13.297   0.606   1.445
78038SOL     OW35945  13.636   6.497   3.481
78038SOL    HW135946  13.569   6.455   3.428
78038SOL    HW235947  13.711   6.505   3.422
78039SOL     OW35948   2.367  10.567  11.683
78039SOL    HW135949   2.390  10.499  11.748
78039SOL    HW235950   2.446  10.619  11.673
78040SOL     OW35951   6.695   1.094  12.020
78040SOL    HW135952   6.722   1.132  11.936
78040SOL    HW235953   6.610   1.133  12.038
78041SOL     OW35954   9.929   2.262   9.981
78041SOL    HW135955   9.932   2.350   9.944
78041SOL    HW235956   9.969   2.206   9.915
78042SOL     OW35957   1.679  12.320   9.577
78042SOL    HW135958   1.607  12.317   9.515
78042SOL    HW235959   1.665  12.244   9.634
78043SOL     OW35960  11.017  10.057  11.448
78043SOL    HW135961  10.994  10.072  11.540
78043SOL    HW235962  11.009  10.144  11.407
78044SOL     OW35963   5.581   0.404  11.515
78044SOL    HW135964   5.631   0.428  11.593
78044SOL    HW235965   5.648   0.382  11.450
78045SOL     OW35966  10.990   0.922  11.734
78045SOL    HW135967  10.977   1.015  11.755
78045SOL    HW235968  11.027   0.923  11.645
78046SOL     OW35969   1.752   2.373   0.500
78046SOL    HW135970   1.694   2.336   0.434
78046SOL    HW235971   1.838   2.335   0.480
78047SOL     OW35972   3.817   4.136   8.947
78047SOL    HW135973   3.761   4.168   9.018
78047SOL    HW235974   3.889   4.199   8.943
78048SOL     OW35975   4.876   4.633  14.743
78048SOL    HW135976   4.877   4.690  14.666
78048SOL    HW235977   4.785   4.636  14.774
78049SOL     OW35978   9.634  12.206   5.306
78049SOL    HW135979   9.552  12.176   5.347
78049SOL    HW235980   9.703  12.161   5.355
78050SOL     OW35981  14.050   3.283  10.597
78050SOL    HW135982  14.020   3.207  10.548
78050SOL    HW235983  14.130   3.254  10.640
78051SOL     OW35984  10.470   2.671   1.569
78051SOL    HW135985  10.494   2.703   1.656
78051SOL    HW235986  10.466   2.749   1.514
78052SOL     OW35987   4.460  10.247   1.453
78052SOL    HW135988   4.424  10.164   1.422
78052SOL    HW235989   4.555  10.236   1.447
78053SOL     OW35990  10.473  12.190  13.578
78053SOL    HW135991  10.529  12.128  13.532
78053SOL    HW235992  10.520  12.211  13.659
78054SOL     OW35993   7.229  13.652  11.403
78054SOL    HW135994   7.212  13.567  11.442
78054SOL    HW235995   7.299  13.636  11.339
78055SOL     OW35996   8.745  12.998   3.368
78055SOL    HW135997   8.821  12.947   3.396
78055SOL    HW235998   8.782  13.072   3.321
78056SOL     OW35999   2.583   2.682   2.121
78056SOL    HW136000   2.611   2.723   2.039
78056SOL    HW236001   2.489   2.702   2.127
78057SOL     OW36002  12.925   7.385  10.495
78057SOL    HW136003  12.901   7.292  10.501
78057SOL    HW236004  12.879   7.426  10.568
78058SOL     OW36005   7.229   0.817   2.250
78058SOL    HW136006   7.302   0.756   2.261
78058SOL    HW236007   7.220   0.825   2.155
78059SOL     OW36008   6.321   7.974  10.218
78059SOL    HW136009   6.257   7.927  10.164
78059SOL    HW236010   6.312   8.066  10.191
78060SOL     OW36011   3.864  12.046   4.490
78060SOL    HW136012   3.885  11.958   4.461
78060SOL    HW236013   3.793  12.074   4.431
78061SOL     OW36014   5.896   1.801   0.787
78061SOL    HW136015   5.845   1.774   0.863
78061SOL    HW236016   5.860   1.750   0.715
78062SOL     OW36017   4.226   4.684   7.427
78062SOL    HW136018   4.286   4.617   7.395
78062SOL    HW236019   4.189   4.723   7.348
78063SOL     OW36020  12.301  11.450   9.155
78063SOL    HW136021  12.351  11.492   9.225
78063SOL    HW236022  12.210  11.456   9.184
78064SOL     OW36023   0.787  10.776  14.658
78064SOL    HW136024   0.864  10.758  14.711
78064SOL    HW236025   0.796  10.717  14.583
78065SOL     OW36026   3.799  11.862  12.911
78065SOL    HW136027   3.891  11.886  12.925
78065SOL    HW236028   3.750  11.918  12.971
78066SOL     OW36029   3.743  12.475   1.336
78066SOL    HW136030   3.738  12.396   1.391
78066SOL    HW236031   3.817  12.459   1.278
78067SOL     OW36032   3.604   1.793   1.291
78067SOL    HW136033   3.594   1.877   1.248
78067SOL    HW236034   3.584   1.728   1.223
78068SOL     OW36035   6.296  10.389   8.178
78068SOL    HW136036   6.262  10.361   8.092
78068SOL    HW236037   6.342  10.471   8.160
78069SOL     OW36038   1.303  12.585   0.881
78069SOL    HW136039   1.358  12.645   0.831
78069SOL    HW236040   1.213  12.612   0.861
78070SOL     OW36041  14.384   6.251   1.359
78070SOL    HW136042  14.341   6.170   1.387
78070SOL    HW236043  14.473   6.245   1.395
78071SOL     OW36044   3.646   8.509  10.535
78071SOL    HW136045   3.678   8.495  10.445
78071SOL    HW236046   3.629   8.603  10.539
78072SOL     OW36047  11.039  14.011   1.829
78072SOL    HW136048  11.030  13.917   1.843
78072SOL    HW236049  10.983  14.030   1.754
78073SOL     OW36050   6.653   6.977   9.151
78073SOL    HW136051   6.646   6.897   9.099
78073SOL    HW236052   6.654   6.947   9.242
78074SOL     OW36053   2.799   7.230  13.054
78074SOL    HW136054   2.820   7.142  13.024
78074SOL    HW236055   2.739   7.265  12.988
78075SOL     OW36056   3.399   5.390   7.648
78075SOL    HW136057   3.316   5.350   7.621
78075SOL    HW236058   3.466   5.333   7.611
78076SOL     OW36059  14.403  13.884   0.376
78076SOL    HW136060  14.356  13.801   0.376
78076SOL    HW236061  14.400  13.915   0.286
78077SOL     OW36062  14.809  13.232   8.239
78077SOL    HW136063  14.858  13.202   8.163
78077SOL    HW236064  14.773  13.152   8.277
78078SOL     OW36065   3.144  12.271   7.054
78078SOL    HW136066   3.074  12.319   7.098
78078SOL    HW236067   3.154  12.191   7.105
78079SOL     OW36068  14.480  14.231  11.109
78079SOL    HW136069  14.443  14.306  11.062
78079SOL    HW236070  14.561  14.264  11.147
78080SOL     OW36071   1.845  10.762   9.975
78080SOL    HW136072   1.930  10.806   9.967
78080SOL    HW236073   1.806  10.770   9.887
78081SOL     OW36074   5.045   1.535  13.719
78081SOL    HW136075   4.977   1.563  13.658
78081SOL    HW236076   5.121   1.515  13.664
78082SOL     OW36077   5.304   9.790   7.510
78082SOL    HW136078   5.345   9.796   7.424
78082SOL    HW236079   5.300   9.881   7.540
78083SOL     OW36080  14.469   2.094  12.111
78083SOL    HW136081  14.519   2.025  12.155
78083SOL    HW236082  14.421   2.048  12.042
78084SOL     OW36083  12.407  14.302   5.392
78084SOL    HW136084  12.491  14.263   5.367
78084SOL    HW236085  12.395  14.277   5.483
78085SOL     OW36086   7.469  11.899   0.976
78085SOL    HW136087   7.426  11.886   0.892
78085SOL    HW236088   7.521  11.820   0.989
78086SOL     OW36089   7.411   2.526   8.577
78086SOL    HW136090   7.347   2.510   8.508
78086SOL    HW236091   7.434   2.619   8.567
78087SOL     OW36092   6.254   5.092   5.898
78087SOL    HW136093   6.164   5.073   5.874
78087SOL    HW236094   6.267   5.183   5.870
78088SOL     OW36095   7.875   4.096   5.541
78088SOL    HW136096   7.840   4.090   5.630
78088SOL    HW236097   7.806   4.141   5.491
78089SOL     OW36098  13.257  13.624   1.692
78089SOL    HW136099  13.261  13.531   1.713
78089SOL    HW236100  13.238  13.667   1.775
78090SOL     OW36101   6.631  11.606   8.413
78090SOL    HW136102   6.690  11.539   8.446
78090SOL    HW236103   6.543  11.568   8.425
78091SOL     OW36104   8.421   0.247   5.451
78091SOL    HW136105   8.407   0.222   5.360
78091SOL    HW236106   8.339   0.223   5.495
78092SOL     OW36107   0.880   9.545  11.524
78092SOL    HW136108   0.937   9.523  11.597
78092SOL    HW236109   0.940   9.572  11.454
78093SOL     OW36110   7.622   0.055   8.504
78093SOL    HW136111   7.695   0.074   8.563
78093SOL    HW236112   7.544   0.057   8.560
78094SOL     OW36113   5.815   1.656  10.266
78094SOL    HW136114   5.797   1.740  10.222
78094SOL    HW236115   5.860   1.681  10.347
78095SOL     OW36116  11.702   9.511   6.099
78095SOL    HW136117  11.610   9.521   6.125
78095SOL    HW236118  11.751   9.514   6.181
78096SOL     OW36119  11.983   1.046   3.647
78096SOL    HW136120  11.906   0.989   3.639
78096SOL    HW236121  12.050   1.002   3.594
78097SOL     OW36122   3.381   4.580   2.418
78097SOL    HW136123   3.316   4.511   2.428
78097SOL    HW236124   3.335   4.650   2.373
78098SOL     OW36125   7.976   9.380   0.966
78098SOL    HW136126   7.977   9.462   1.015
78098SOL    HW236127   7.919   9.322   1.017
78099SOL     OW36128  10.374   1.587  14.183
78099SOL    HW136129  10.458   1.615  14.217
78099SOL    HW236130  10.347   1.657  14.124
78100SOL     OW36131  11.398   7.117   7.901
78100SOL    HW136132  11.458   7.087   7.833
78100SOL    HW236133  11.311   7.098   7.866
78101SOL     OW36134   2.343   0.876   7.309
78101SOL    HW136135   2.398   0.899   7.234
78101SOL    HW236136   2.267   0.934   7.303
78102SOL     OW36137  12.433  12.922   8.734
78102SOL    HW136138  12.398  12.887   8.817
78102SOL    HW236139  12.418  13.016   8.739
78103SOL     OW36140  10.252  14.700   5.577
78103SOL    HW136141  10.168  14.740   5.554
78103SOL    HW236142  10.273  14.644   5.502
78104SOL     OW36143   3.503  12.067  10.721
78104SOL    HW136144   3.542  12.083  10.635
78104SOL    HW236145   3.415  12.033  10.701
78105SOL     OW36146   3.201   9.273  10.408
78105SOL    HW136147   3.206   9.181  10.381
78105SOL    HW236148   3.232   9.273  10.498
78106SOL     OW36149   3.371  12.739  14.784
78106SOL    HW136150   3.365  12.802  14.856
78106SOL    HW236151   3.368  12.792  14.705
78107SOL     OW36152  11.899   9.353  14.601
78107SOL    HW136153  11.833   9.340  14.533
78107SOL    HW236154  11.908   9.267  14.642
78108SOL     OW36155   8.146   8.285  12.296
78108SOL    HW136156   8.236   8.316  12.303
78108SOL    HW236157   8.135   8.226  12.370
78109SOL     OW36158   2.381   5.871  12.380
78109SOL    HW136159   2.310   5.889  12.317
78109SOL    HW236160   2.350   5.795  12.429
78110SOL     OW36161   4.254  14.642   0.306
78110SOL    HW136162   4.257  14.599   0.221
78110SOL    HW236163   4.160  14.647   0.327
78111SOL     OW36164   3.405   7.317  13.598
78111SOL    HW136165   3.446   7.275  13.522
78111SOL    HW236166   3.457   7.288  13.673
78112SOL     OW36167   9.046   6.136   9.089
78112SOL    HW136168   9.124   6.084   9.071
78112SOL    HW236169   9.035   6.131   9.184
78113SOL     OW36170  13.520   7.466   6.040
78113SOL    HW136171  13.501   7.555   6.009
78113SOL    HW236172  13.497   7.410   5.966
78114SOL     OW36173   3.595   5.193   0.647
78114SOL    HW136174   3.510   5.220   0.611
78114SOL    HW236175   3.608   5.104   0.614
78115SOL     OW36176   2.634   1.447   1.868
78115SOL    HW136177   2.549   1.480   1.895
78115SOL    HW236178   2.681   1.433   1.951
78116SOL     OW36179   8.312   4.918   9.029
78116SOL    HW136180   8.303   4.994   9.087
78116SOL    HW236181   8.330   4.955   8.943
78117SOL     OW36182   9.016   0.454   0.045
78117SOL    HW136183   9.074   0.472  14.853
78117SOL    HW236184   8.928   0.470   0.010
78118SOL     OW36185   2.465   6.150   9.170
78118SOL    HW136186   2.409   6.196   9.233
78118SOL    HW236187   2.413   6.148   9.089
78119SOL     OW36188   2.939   7.546   0.684
78119SOL    HW136189   2.894   7.603   0.623
78119SOL    HW236190   2.873   7.482   0.712
78120SOL     OW36191   9.880   9.037  13.795
78120SOL    HW136192   9.932   9.004  13.869
78120SOL    HW236193   9.943   9.043  13.723
78121SOL     OW36194   3.912  12.976   7.897
78121SOL    HW136195   3.879  12.895   7.856
78121SOL    HW236196   3.842  13.039   7.884
78122SOL     OW36197  14.862   1.769   7.712
78122SOL    HW136198   0.044   1.711   7.669
78122SOL    HW236199  14.835   1.830   7.644
78123SOL     OW36200   0.458   8.858   9.392
78123SOL    HW136201   0.369   8.839   9.363
78123SOL    HW236202   0.451   8.868   9.487
78124SOL     OW36203   2.132   9.442   0.196
78124SOL    HW136204   2.208   9.499   0.189
78124SOL    HW236205   2.069   9.478   0.134
78125SOL     OW36206  12.742   0.208   2.569
78125SOL    HW136207  12.806   0.156   2.617
78125SOL    HW236208  12.660   0.198   2.617
78126SOL     OW36209  12.594  10.625   1.890
78126SOL    HW136210  12.581  10.719   1.904
78126SOL    HW236211  12.668  10.602   1.945
78127SOL     OW36212  13.165  12.832  14.166
78127SOL    HW136213  13.089  12.810  14.221
78127SOL    HW236214  13.199  12.913  14.203
78128SOL     OW36215   9.234   7.045   7.990
78128SOL    HW136216   9.165   6.981   8.007
78128SOL    HW236217   9.309   7.014   8.039
78129SOL     OW36218   6.820  12.670   8.452
78129SOL    HW136219   6.782  12.590   8.489
78129SOL    HW236220   6.797  12.666   8.359
78130SOL     OW36221   0.034   7.525  13.494
78130SOL    HW136222  14.855   7.569  13.434
78130SOL    HW236223   0.004   7.551  13.581
78131SOL     OW36224   2.823   9.387   2.061
78131SOL    HW136225   2.813   9.465   2.006
78131SOL    HW236226   2.745   9.334   2.042
78132SOL     OW36227  10.280  10.690   2.225
78132SOL    HW136228  10.237  10.683   2.310
78132SOL    HW236229  10.265  10.781   2.199
78133SOL     OW36230   4.909   9.317   9.753
78133SOL    HW136231   4.935   9.225   9.756
78133SOL    HW236232   4.991   9.365   9.745
78134SOL     OW36233   8.186   5.421   4.169
78134SOL    HW136234   8.239   5.399   4.246
78134SOL    HW236235   8.096   5.417   4.200
78135SOL     OW36236   6.160  14.652   3.495
78135SOL    HW136237   6.156  14.642   3.400
78135SOL    HW236238   6.070  14.673   3.521
78136SOL     OW36239  13.099   0.618   7.783
78136SOL    HW136240  13.073   0.705   7.816
78136SOL    HW236241  13.088   0.625   7.688
78137SOL     OW36242  10.783  10.480   6.540
78137SOL    HW136243  10.827  10.421   6.601
78137SOL    HW236244  10.699  10.500   6.581
78138SOL     OW36245   9.440   6.512   8.015
78138SOL    HW136246   9.413   6.551   8.098
78138SOL    HW236247   9.519   6.463   8.035
78139SOL     OW36248  10.500  11.350   0.662
78139SOL    HW136249  10.498  11.309   0.576
78139SOL    HW236250  10.586  11.329   0.697
78140SOL     OW36251   1.216  13.289   9.946
78140SOL    HW136252   1.188  13.254  10.030
78140SOL    HW236253   1.306  13.258   9.935
78141SOL     OW36254  12.927  14.524   5.093
78141SOL    HW136255  13.010  14.491   5.060
78141SOL    HW236256  12.884  14.562   5.016
78142SOL     OW36257   3.791  14.590  11.768
78142SOL    HW136258   3.805  14.671  11.817
78142SOL    HW236259   3.876  14.546  11.770
78143SOL     OW36260  11.005   6.204  12.941
78143SOL    HW136261  11.040   6.211  12.852
78143SOL    HW236262  10.980   6.294  12.963
78144SOL     OW36263   2.530   1.053   3.025
78144SOL    HW136264   2.624   1.067   3.018
78144SOL    HW236265   2.508   1.000   2.948
78145SOL     OW36266  11.847   8.169   4.260
78145SOL    HW136267  11.796   8.229   4.314
78145SOL    HW236268  11.850   8.210   4.174
78146SOL     OW36269  14.488   7.880   5.927
78146SOL    HW136270  14.525   7.961   5.892
78146SOL    HW236271  14.456   7.905   6.014
78147SOL     OW36272   3.700  13.877  14.790
78147SOL    HW136273   3.728  13.940  14.857
78147SOL    HW236274   3.781  13.848  14.749
78148SOL     OW36275  14.327   9.942   8.695
78148SOL    HW136276  14.250   9.987   8.730
78148SOL    HW236277  14.324   9.855   8.736
78149SOL     OW36278  10.938   8.963  14.287
78149SOL    HW136279  11.009   8.900  14.292
78149SOL    HW236280  10.974   9.036  14.237
78150SOL     OW36281   5.848   3.144   5.311
78150SOL    HW136282   5.904   3.220   5.327
78150SOL    HW236283   5.898   3.070   5.346
78151SOL     OW36284  13.259  14.607   5.453
78151SOL    HW136285  13.253  14.593   5.548
78151SOL    HW236286  13.299  14.527   5.419
78152SOL     OW36287   3.261   2.783   7.963
78152SOL    HW136288   3.226   2.867   7.932
78152SOL    HW236289   3.198   2.754   8.029
78153SOL     OW36290   7.873   7.062  14.225
78153SOL    HW136291   7.827   6.979  14.240
78153SOL    HW236292   7.950   7.056  14.282
78154SOL     OW36293  10.123   9.692   4.955
78154SOL    HW136294  10.069   9.626   4.998
78154SOL    HW236295  10.104   9.773   5.003
78155SOL     OW36296  12.224  12.845   2.196
78155SOL    HW136297  12.184  12.839   2.110
78155SOL    HW236298  12.243  12.939   2.207
78156SOL     OW36299   5.004   4.646   2.667
78156SOL    HW136300   5.002   4.607   2.579
78156SOL    HW236301   5.096   4.650   2.690
78157SOL     OW36302   8.214   5.745  12.983
78157SOL    HW136303   8.200   5.813  13.048
78157SOL    HW236304   8.306   5.753  12.959
78158SOL     OW36305   7.629   2.063  12.610
78158SOL    HW136306   7.553   2.056  12.552
78158SOL    HW236307   7.591   2.072  12.698
78159SOL     OW36308  14.181   9.411   4.766
78159SOL    HW136309  14.102   9.462   4.786
78159SOL    HW236310  14.216   9.388   4.852
78160SOL     OW36311   1.615  10.162   5.504
78160SOL    HW136312   1.647  10.084   5.550
78160SOL    HW236313   1.692  10.218   5.495
78161SOL     OW36314   2.789  11.320   5.320
78161SOL    HW136315   2.811  11.299   5.411
78161SOL    HW236316   2.704  11.362   5.324
78162SOL     OW36317   5.040   0.821   7.196
78162SOL    HW136318   5.029   0.912   7.224
78162SOL    HW236319   4.999   0.770   7.266
78163SOL     OW36320   0.965   6.405   8.087
78163SOL    HW136321   0.960   6.310   8.099
78163SOL    HW236322   1.048   6.420   8.041
78164SOL     OW36323   5.281  10.878   2.733
78164SOL    HW136324   5.338  10.814   2.775
78164SOL    HW236325   5.238  10.923   2.805
78165SOL     OW36326  11.206   3.278   8.363
78165SOL    HW136327  11.130   3.275   8.305
78165SOL    HW236328  11.277   3.311   8.308
78166SOL     OW36329   6.456   8.906   2.887
78166SOL    HW136330   6.457   8.998   2.913
78166SOL    HW236331   6.395   8.903   2.813
78167SOL     OW36332  14.532   8.191   3.456
78167SOL    HW136333  14.459   8.247   3.428
78167SOL    HW236334  14.547   8.133   3.381
78168SOL     OW36335   3.471   2.162   1.430
78168SOL    HW136336   3.501   2.089   1.375
78168SOL    HW236337   3.510   2.240   1.391
78169SOL     OW36338  11.391   2.358   1.169
78169SOL    HW136339  11.342   2.400   1.098
78169SOL    HW236340  11.413   2.272   1.135
78170SOL     OW36341  14.813  11.309   6.946
78170SOL    HW136342  14.764  11.276   6.871
78170SOL    HW236343  14.796  11.403   6.945
78171SOL     OW36344   9.143   4.980   0.419
78171SOL    HW136345   9.167   4.896   0.459
78171SOL    HW236346   9.080   5.018   0.479
78172SOL     OW36347   0.419   4.056   8.807
78172SOL    HW136348   0.343   4.091   8.761
78172SOL    HW236349   0.402   3.962   8.815
78173SOL     OW36350   7.848  13.297   9.713
78173SOL    HW136351   7.820  13.388   9.704
78173SOL    HW236352   7.933  13.293   9.669
78174SOL     OW36353   1.467   3.886  11.113
78174SOL    HW136354   1.540   3.875  11.174
78174SOL    HW236355   1.498   3.846  11.032
78175SOL     OW36356   9.115   9.121   2.734
78175SOL    HW136357   9.078   9.076   2.810
78175SOL    HW236358   9.190   9.170   2.768
78176SOL     OW36359   3.830  10.254  13.760
78176SOL    HW136360   3.882  10.220  13.834
78176SOL    HW236361   3.881  10.230  13.683
78177SOL     OW36362   1.806  13.634  13.131
78177SOL    HW136363   1.898  13.650  13.109
78177SOL    HW236364   1.773  13.718  13.161
78178SOL     OW36365   1.548  12.147   9.128
78178SOL    HW136366   1.612  12.217   9.135
78178SOL    HW236367   1.595  12.074   9.088
78179SOL     OW36368   6.460   1.093   3.396
78179SOL    HW136369   6.491   1.174   3.355
78179SOL    HW236370   6.413   1.047   3.326
78180SOL     OW36371   2.489   7.628   4.532
78180SOL    HW136372   2.464   7.719   4.551
78180SOL    HW236373   2.525   7.596   4.614
78181SOL     OW36374   1.247   4.396   5.834
78181SOL    HW136375   1.252   4.308   5.872
78181SOL    HW236376   1.275   4.384   5.743
78182SOL     OW36377   3.512   2.962   6.019
78182SOL    HW136378   3.507   3.007   6.103
78182SOL    HW236379   3.458   2.883   6.031
78183SOL     OW36380  14.494   0.556   5.855
78183SOL    HW136381  14.480   0.625   5.790
78183SOL    HW236382  14.406   0.533   5.884
78184SOL     OW36383   6.896   6.360  12.697
78184SOL    HW136384   6.810   6.321  12.681
78184SOL    HW236385   6.901   6.434  12.637
78185SOL     OW36386  11.105   6.318  14.228
78185SOL    HW136387  11.012   6.337  14.229
78185SOL    HW236388  11.141   6.365  14.303
78186SOL     OW36389  12.611   0.781   0.991
78186SOL    HW136390  12.698   0.781   1.031
78186SOL    HW236391  12.551   0.774   1.065
78187SOL     OW36392   0.223   9.875  11.999
78187SOL    HW136393   0.205   9.890  12.091
78187SOL    HW236394   0.139   9.888  11.955
78188SOL     OW36395  13.853   3.676  10.233
78188SOL    HW136396  13.892   3.593  10.261
78188SOL    HW236397  13.759   3.663  10.246
78189SOL     OW36398  14.682  14.150  10.527
78189SOL    HW136399  14.761  14.128  10.576
78189SOL    HW236400  14.707  14.142  10.435
78190SOL     OW36401   6.873   1.728   1.409
78190SOL    HW136402   6.787   1.690   1.426
78190SOL    HW236403   6.859   1.823   1.415
78191SOL     OW36404  11.737   7.046  13.225
78191SOL    HW136405  11.698   7.100  13.293
78191SOL    HW236406  11.682   7.061  13.148
78192SOL     OW36407   9.017   1.384   5.464
78192SOL    HW136408   9.107   1.385   5.430
78192SOL    HW236409   8.963   1.377   5.386
78193SOL     OW36410   7.462   5.303   9.563
78193SOL    HW136411   7.412   5.382   9.586
78193SOL    HW236412   7.530   5.297   9.631
78194SOL     OW36413  12.803  14.632  10.510
78194SOL    HW136414  12.711  14.608  10.511
78194SOL    HW236415  12.843  14.581  10.580
78195SOL     OW36416  14.184   4.265   4.796
78195SOL    HW136417  14.115   4.290   4.736
78195SOL    HW236418  14.185   4.334   4.862
78196SOL     OW36419  11.358   2.185   1.534
78196SOL    HW136420  11.418   2.150   1.467
78196SOL    HW236421  11.311   2.255   1.489
78197SOL     OW36422  10.414   7.950   0.686
78197SOL    HW136423  10.352   7.958   0.614
78197SOL    HW236424  10.486   7.898   0.649
78198SOL     OW36425  14.192   4.937   8.376
78198SOL    HW136426  14.136   4.956   8.302
78198SOL    HW236427  14.238   4.857   8.352
78199SOL     OW36428   0.754   0.672   6.102
78199SOL    HW136429   0.795   0.594   6.141
78199SOL    HW236430   0.820   0.740   6.109
78200SOL     OW36431   1.285   7.487   7.676
78200SOL    HW136432   1.227   7.411   7.679
78200SOL    HW236433   1.355   7.462   7.616
78201SOL     OW36434   5.764  14.689   0.578
78201SOL    HW136435   5.844  14.684   0.631
78201SOL    HW236436   5.749  14.783   0.566
78202SOL     OW36437   0.548   4.358   4.284
78202SOL    HW136438   0.516   4.357   4.194
78202SOL    HW236439   0.519   4.275   4.322
78203SOL     OW36440  14.560  12.072   5.761
78203SOL    HW136441  14.642  12.042   5.720
78203SOL    HW236442  14.537  12.151   5.713
78204SOL     OW36443  10.888  13.783   7.202
78204SOL    HW136444  10.942  13.733   7.263
78204SOL    HW236445  10.904  13.742   7.117
78205SOL     OW36446   7.438  10.163   8.533
78205SOL    HW136447   7.424  10.241   8.586
78205SOL    HW236448   7.458  10.094   8.596
78206SOL     OW36449   6.699  14.452   2.330
78206SOL    HW136450   6.792  14.439   2.310
78206SOL    HW236451   6.655  14.450   2.246
78207SOL     OW36452  13.823   5.544   1.953
78207SOL    HW136453  13.764   5.619   1.961
78207SOL    HW236454  13.805   5.490   2.030
78208SOL     OW36455   9.771  11.624  13.992
78208SOL    HW136456   9.837  11.693  13.979
78208SOL    HW236457   9.713  11.632  13.916
78209SOL     OW36458  10.165  10.759   9.456
78209SOL    HW136459  10.182  10.851   9.474
78209SOL    HW236460  10.173  10.716   9.541
78210SOL     OW36461  12.698   9.979   7.982
78210SOL    HW136462  12.695   9.901   7.927
78210SOL    HW236463  12.786   9.980   8.018
78211SOL     OW36464   3.522   5.222   3.637
78211SOL    HW136465   3.450   5.183   3.589
78211SOL    HW236466   3.543   5.302   3.588
78212SOL     OW36467  12.967   2.164  14.678
78212SOL    HW136468  13.047   2.135  14.720
78212SOL    HW236469  12.976   2.138  14.586
78213SOL     OW36470   1.740  11.960   0.499
78213SOL    HW136471   1.753  11.990   0.589
78213SOL    HW236472   1.659  11.910   0.502
78214SOL     OW36473  11.857   5.815   2.264
78214SOL    HW136474  11.923   5.819   2.194
78214SOL    HW236475  11.774   5.806   2.218
78215SOL     OW36476  14.312   3.989   6.995
78215SOL    HW136477  14.256   4.065   7.013
78215SOL    HW236478  14.368   3.981   7.072
78216SOL     OW36479  11.045   2.281   5.669
78216SOL    HW136480  11.129   2.244   5.641
78216SOL    HW236481  10.980   2.237   5.614
78217SOL     OW36482   1.965   9.037   1.107
78217SOL    HW136483   2.004   9.041   1.194
78217SOL    HW236484   2.013   9.102   1.056
78218SOL     OW36485   3.531   3.961   4.395
78218SOL    HW136486   3.462   3.910   4.438
78218SOL    HW236487   3.557   4.026   4.460
78219SOL     OW36488   2.785   3.749   8.407
78219SOL    HW136489   2.796   3.782   8.496
78219SOL    HW236490   2.690   3.751   8.393
78220SOL     OW36491   8.889   1.395   0.887
78220SOL    HW136492   8.823   1.336   0.853
78220SOL    HW236493   8.888   1.380   0.981
78221SOL     OW36494  12.882   3.447   4.581
78221SOL    HW136495  12.859   3.365   4.624
78221SOL    HW236496  12.963   3.427   4.534
78222SOL     OW36497  12.041   2.966   4.964
78222SOL    HW136498  12.122   2.927   4.931
78222SOL    HW236499  12.020   2.918   5.043
78223SOL     OW36500   8.491   0.951   9.451
78223SOL    HW136501   8.513   1.035   9.409
78223SOL    HW236502   8.441   0.975   9.529
78224SOL     OW36503   0.224   0.965   1.898
78224SOL    HW136504   0.145   0.953   1.950
78224SOL    HW236505   0.249   1.057   1.913
78225SOL     OW36506   1.522  11.841  12.694
78225SOL    HW136507   1.606  11.843  12.649
78225SOL    HW236508   1.491  11.931  12.690
78226SOL     OW36509   4.161   6.003   5.349
78226SOL    HW136510   4.135   6.017   5.440
78226SOL    HW236511   4.257   5.997   5.352
78227SOL     OW36512  12.412   5.266  13.158
78227SOL    HW136513  12.490   5.217  13.132
78227SOL    HW236514  12.395   5.239  13.248
78228SOL     OW36515   4.688   7.820  12.462
78228SOL    HW136516   4.678   7.829  12.556
78228SOL    HW236517   4.632   7.889  12.426
78229SOL     OW36518   4.797   1.264   7.611
78229SOL    HW136519   4.732   1.278   7.680
78229SOL    HW236520   4.830   1.351   7.591
78230SOL     OW36521   9.964   3.668   2.683
78230SOL    HW136522   9.981   3.760   2.662
78230SOL    HW236523   9.947   3.667   2.777
78231SOL     OW36524   9.377   8.565   2.661
78231SOL    HW136525   9.405   8.474   2.647
78231SOL    HW236526   9.367   8.600   2.573
78232SOL     OW36527   6.908   5.848   8.313
78232SOL    HW136528   6.873   5.887   8.233
78232SOL    HW236529   6.927   5.922   8.370
78233SOL     OW36530  14.368   8.426   3.065
78233SOL    HW136531  14.444   8.448   3.120
78233SOL    HW236532  14.296   8.475   3.103
78234SOL     OW36533   7.004  12.529   3.947
78234SOL    HW136534   7.000  12.623   3.966
78234SOL    HW236535   7.001  12.487   4.033
78235SOL     OW36536  11.963   2.305   0.775
78235SOL    HW136537  12.049   2.344   0.764
78235SOL    HW236538  11.906   2.377   0.801
78236SOL     OW36539   1.771   8.995   2.837
78236SOL    HW136540   1.687   8.956   2.862
78236SOL    HW236541   1.827   8.982   2.913
78237SOL     OW36542  11.652   6.160  10.802
78237SOL    HW136543  11.628   6.241  10.758
78237SOL    HW236544  11.569   6.116  10.818
78238SOL     OW36545   9.377  13.093   4.816
78238SOL    HW136546   9.417  13.080   4.729
78238SOL    HW236547   9.337  13.180   4.811
78239SOL     OW36548   8.114  11.536   6.333
78239SOL    HW136549   8.060  11.536   6.254
78239SOL    HW236550   8.172  11.461   6.323
78240SOL     OW36551  13.220  11.671   9.560
78240SOL    HW136552  13.248  11.708   9.477
78240SOL    HW236553  13.256  11.582   9.560
78241SOL     OW36554   9.212   3.201   6.883
78241SOL    HW136555   9.274   3.212   6.811
78241SOL    HW236556   9.195   3.107   6.886
78242SOL     OW36557   9.487   4.874   8.298
78242SOL    HW136558   9.582   4.870   8.307
78242SOL    HW236559   9.455   4.898   8.385
78243SOL     OW36560  11.989   1.343  13.740
78243SOL    HW136561  11.976   1.312  13.830
78243SOL    HW236562  11.900   1.357  13.707
78244SOL     OW36563   0.832   1.449  12.735
78244SOL    HW136564   0.766   1.388  12.702
78244SOL    HW236565   0.823   1.446  12.830
78245SOL     OW36566  14.111   9.854  13.538
78245SOL    HW136567  14.110   9.922  13.470
78245SOL    HW236568  14.180   9.883  13.599
78246SOL     OW36569   5.928   1.689  11.597
78246SOL    HW136570   5.941   1.765  11.539
78246SOL    HW236571   5.995   1.627  11.568
78247SOL     OW36572  14.458   3.085   3.190
78247SOL    HW136573  14.412   3.002   3.203
78247SOL    HW236574  14.448   3.132   3.273
78248SOL     OW36575  11.201   7.740   1.358
78248SOL    HW136576  11.208   7.693   1.275
78248SOL    HW236577  11.191   7.671   1.424
78249SOL     OW36578  11.730   3.690  10.532
78249SOL    HW136579  11.671   3.636  10.479
78249SOL    HW236580  11.686   3.698  10.617
78250SOL     OW36581   1.227  13.314   8.048
78250SOL    HW136582   1.206  13.408   8.045
78250SOL    HW236583   1.267  13.296   7.963
78251SOL     OW36584   7.661   8.450   5.745
78251SOL    HW136585   7.643   8.464   5.838
78251SOL    HW236586   7.661   8.355   5.735
78252SOL     OW36587   9.656  14.310   2.752
78252SOL    HW136588   9.648  14.257   2.673
78252SOL    HW236589   9.578  14.288   2.803
78253SOL     OW36590   6.305  10.804   9.157
78253SOL    HW136591   6.376  10.843   9.107
78253SOL    HW236592   6.292  10.863   9.231
78254SOL     OW36593   5.254  13.698   4.392
78254SOL    HW136594   5.324  13.635   4.372
78254SOL    HW236595   5.298  13.768   4.439
78255SOL     OW36596   5.072   6.329   9.557
78255SOL    HW136597   5.156   6.372   9.577
78255SOL    HW236598   5.049   6.360   9.470
78256SOL     OW36599   0.214  10.483   2.384
78256SOL    HW136600   0.291  10.431   2.405
78256SOL    HW236601   0.188  10.453   2.297
78257SOL     OW36602  13.896   1.596   7.480
78257SOL    HW136603  13.863   1.685   7.490
78257SOL    HW236604  13.847   1.545   7.546
78258SOL     OW36605   9.356   0.578   0.904
78258SOL    HW136606   9.360   0.506   0.841
78258SOL    HW236607   9.397   0.544   0.983
78259SOL     OW36608   5.214  11.865   1.976
78259SOL    HW136609   5.152  11.889   1.906
78259SOL    HW236610   5.224  11.944   2.028
78260SOL     OW36611   9.737  14.676   0.443
78260SOL    HW136612   9.658  14.639   0.483
78260SOL    HW236613   9.732  14.769   0.463
78261SOL     OW36614   0.472  13.697   5.723
78261SOL    HW136615   0.510  13.675   5.637
78261SOL    HW236616   0.457  13.791   5.719
78262SOL     OW36617   8.505   2.935   7.587
78262SOL    HW136618   8.561   2.946   7.510
78262SOL    HW236619   8.487   3.025   7.616
78263SOL     OW36620  13.686  12.641  10.678
78263SOL    HW136621  13.658  12.729  10.702
78263SOL    HW236622  13.703  12.645  10.584
78264SOL     OW36623  11.587   6.182  11.646
78264SOL    HW136624  11.566   6.275  11.641
78264SOL    HW236625  11.506   6.141  11.674
78265SOL     OW36626  10.279   4.758   3.798
78265SOL    HW136627  10.340   4.745   3.871
78265SOL    HW236628  10.204   4.803   3.838
78266SOL     OW36629  10.090  13.913   7.006
78266SOL    HW136630  10.183  13.892   7.013
78266SOL    HW236631  10.054  13.845   6.949
78267SOL     OW36632   8.297  14.817   7.787
78267SOL    HW136633   8.364  14.863   7.838
78267SOL    HW236634   8.346  14.770   7.719
78268SOL     OW36635   1.795  12.851   2.251
78268SOL    HW136636   1.715  12.878   2.205
78268SOL    HW236637   1.775  12.764   2.284
78269SOL     OW36638   0.112   6.812   7.696
78269SOL    HW136639   0.156   6.886   7.740
78269SOL    HW236640   0.050   6.853   7.636
78270SOL     OW36641   1.114   5.450   5.231
78270SOL    HW136642   1.169   5.450   5.153
78270SOL    HW236643   1.174   5.425   5.302
78271SOL     OW36644  12.805   7.405   8.313
78271SOL    HW136645  12.754   7.486   8.316
78271SOL    HW236646  12.794   7.366   8.400
78272SOL     OW36647  12.835   2.747   7.528
78272SOL    HW136648  12.803   2.726   7.615
78272SOL    HW236649  12.928   2.766   7.540
78273SOL     OW36650   2.651  14.820   8.112
78273SOL    HW136651   2.638  14.725   8.105
78273SOL    HW236652   2.575  14.850   8.163
78274SOL     OW36653   1.869   7.917   2.462
78274SOL    HW136654   1.779   7.891   2.482
78274SOL    HW236655   1.896   7.969   2.537
78275SOL     OW36656   8.470   2.951  11.367
78275SOL    HW136657   8.462   3.033  11.416
78275SOL    HW236658   8.507   2.977  11.283
78276SOL     OW36659   5.990   3.371   5.309
78276SOL    HW136660   6.020   3.443   5.364
78276SOL    HW236661   6.070   3.324   5.284
78277SOL     OW36662   1.716  13.552  11.676
78277SOL    HW136663   1.784  13.486  11.690
78277SOL    HW236664   1.754  13.613  11.613
78278SOL     OW36665   2.282  12.574  13.075
78278SOL    HW136666   2.364  12.539  13.039
78278SOL    HW236667   2.270  12.657  13.028
78279SOL     OW36668   1.213   9.565  10.288
78279SOL    HW136669   1.277   9.502  10.254
78279SOL    HW236670   1.175   9.522  10.364
78280SOL     OW36671  11.682  11.968  11.372
78280SOL    HW136672  11.717  12.048  11.335
78280SOL    HW236673  11.633  11.996  11.450
78281SOL     OW36674  13.780  11.807   0.008
78281SOL    HW136675  13.806  11.848  14.808
78281SOL    HW236676  13.699  11.852   0.033
78282SOL     OW36677  12.405   1.690   3.007
78282SOL    HW136678  12.412   1.608   3.055
78282SOL    HW236679  12.442   1.756   3.066
78283SOL     OW36680  13.009   1.695   6.303
78283SOL    HW136681  13.001   1.671   6.396
78283SOL    HW236682  13.062   1.625   6.265
78284SOL     OW36683   6.078   6.187  11.407
78284SOL    HW136684   6.122   6.151  11.330
78284SOL    HW236685   6.045   6.111  11.455
78285SOL     OW36686   1.863   9.600   6.247
78285SOL    HW136687   1.877   9.592   6.341
78285SOL    HW236688   1.818   9.684   6.237
78286SOL     OW36689   7.763   1.440  11.644
78286SOL    HW136690   7.689   1.387  11.673
78286SOL    HW236691   7.725   1.527  11.630
78287SOL     OW36692   6.858   4.332  10.480
78287SOL    HW136693   6.815   4.316  10.396
78287SOL    HW236694   6.948   4.357  10.457
78288SOL     OW36695   8.639   1.351   9.502
78288SOL    HW136696   8.623   1.285   9.434
78288SOL    HW236697   8.729   1.380   9.487
78289SOL     OW36698  13.807   4.644   8.363
78289SOL    HW136699  13.832   4.705   8.431
78289SOL    HW236700  13.807   4.558   8.406
78290SOL     OW36701   0.362  12.712   1.372
78290SOL    HW136702   0.340  12.732   1.463
78290SOL    HW236703   0.279  12.722   1.324
78291SOL     OW36704   9.483  13.611   0.112
78291SOL    HW136705   9.438  13.683   0.067
78291SOL    HW236706   9.490  13.640   0.203
78292SOL     OW36707   9.161   7.295   7.149
78292SOL    HW136708   9.227   7.331   7.208
78292SOL    HW236709   9.109   7.370   7.122
78293SOL     OW36710   9.641   7.313   6.145
78293SOL    HW136711   9.731   7.295   6.174
78293SOL    HW236712   9.606   7.373   6.210
78294SOL     OW36713  12.376   2.026   7.375
78294SOL    HW136714  12.283   2.036   7.357
78294SOL    HW236715  12.419   2.056   7.295
78295SOL     OW36716   9.129   3.192   8.508
78295SOL    HW136717   9.140   3.239   8.425
78295SOL    HW236718   9.090   3.108   8.484
78296SOL     OW36719   5.169   2.218  11.794
78296SOL    HW136720   5.196   2.158  11.725
78296SOL    HW236721   5.203   2.178  11.875
78297SOL     OW36722   1.090   4.621   0.533
78297SOL    HW136723   1.144   4.667   0.469
78297SOL    HW236724   1.125   4.648   0.618
78298SOL     OW36725  10.138   1.090   9.692
78298SOL    HW136726  10.145   1.066   9.784
78298SOL    HW236727  10.068   1.156   9.689
78299SOL     OW36728  12.877  10.689   0.517
78299SOL    HW136729  12.793  10.644   0.501
78299SOL    HW236730  12.941  10.618   0.521
78300SOL     OW36731   1.358   8.237   6.846
78300SOL    HW136732   1.267   8.229   6.875
78300SOL    HW236733   1.388   8.147   6.838
78301SOL     OW36734   2.828  14.492   6.466
78301SOL    HW136735   2.846  14.411   6.513
78301SOL    HW236736   2.893  14.554   6.499
78302SOL     OW36737   3.816   6.877  10.799
78302SOL    HW136738   3.782   6.966  10.802
78302SOL    HW236739   3.773   6.833  10.873
78303SOL     OW36740  11.933  12.967   7.717
78303SOL    HW136741  11.901  13.057   7.720
78303SOL    HW236742  11.949  12.944   7.809
78304SOL     OW36743   0.465   5.316   0.551
78304SOL    HW136744   0.398   5.380   0.574
78304SOL    HW236745   0.546   5.350   0.590
78305SOL     OW36746   9.390   9.910  10.695
78305SOL    HW136747   9.302   9.937  10.722
78305SOL    HW236748   9.421   9.854  10.766
78306SOL     OW36749  13.245   4.385  13.914
78306SOL    HW136750  13.234   4.293  13.938
78306SOL    HW236751  13.185   4.397  13.840
78307SOL     OW36752   3.683   3.296   4.521
78307SOL    HW136753   3.772   3.273   4.548
78307SOL    HW236754   3.688   3.389   4.500
78308SOL     OW36755  12.848   8.408   9.075
78308SOL    HW136756  12.840   8.333   9.017
78308SOL    HW236757  12.902   8.471   9.026
78309SOL     OW36758   0.057   1.900   0.156
78309SOL    HW136759  14.870   1.897   0.090
78309SOL    HW236760   0.131   1.854   0.116
78310SOL     OW36761   6.238  11.195  13.296
78310SOL    HW136762   6.288  11.137  13.239
78310SOL    HW236763   6.212  11.268  13.240
78311SOL     OW36764  10.027   5.709   2.378
78311SOL    HW136765  10.002   5.693   2.287
78311SOL    HW236766  10.051   5.801   2.381
78312SOL     OW36767  13.549   6.913  12.263
78312SOL    HW136768  13.462   6.884  12.237
78312SOL    HW236769  13.549   6.909  12.358
78313SOL     OW36770   7.351  14.456  10.481
78313SOL    HW136771   7.360  14.539  10.529
78313SOL    HW236772   7.345  14.389  10.550
78314SOL     OW36773   3.720   5.788   5.791
78314SOL    HW136774   3.640   5.746   5.822
78314SOL    HW236775   3.692   5.843   5.718
78315SOL     OW36776   7.178   0.814  11.399
78315SOL    HW136777   7.086   0.830  11.375
78315SOL    HW236778   7.208   0.898  11.434
78316SOL     OW36779   1.470  12.148   0.509
78316SOL    HW136780   1.526  12.194   0.447
78316SOL    HW236781   1.525  12.134   0.585
78317SOL     OW36782  11.946   5.535  11.027
78317SOL    HW136783  11.951   5.615  10.975
78317SOL    HW236784  11.856   5.505  11.016
78318SOL     OW36785  14.113   6.019   9.237
78318SOL    HW136786  14.019   6.033   9.246
78318SOL    HW236787  14.133   6.046   9.147
78319SOL     OW36788   1.773   0.864  13.101
78319SOL    HW136789   1.748   0.885  13.011
78319SOL    HW236790   1.824   0.784  13.094
78320SOL     OW36791  14.829  13.738  10.388
78320SOL    HW136792  14.759  13.672  10.385
78320SOL    HW236793  14.829  13.769  10.478
78321SOL     OW36794  10.469   6.390   0.168
78321SOL    HW136795  10.433   6.308   0.133
78321SOL    HW236796  10.478   6.447   0.092
78322SOL     OW36797  12.765   0.843   4.157
78322SOL    HW136798  12.809   0.879   4.234
78322SOL    HW236799  12.694   0.904   4.137
78323SOL     OW36800  11.706   2.733   3.759
78323SOL    HW136801  11.654   2.813   3.747
78323SOL    HW236802  11.672   2.694   3.839
78324SOL     OW36803  13.690   6.479   8.176
78324SOL    HW136804  13.649   6.393   8.172
78324SOL    HW236805  13.697   6.508   8.085
78325SOL     OW36806   4.545  11.915   6.351
78325SOL    HW136807   4.586  11.858   6.285
78325SOL    HW236808   4.485  11.858   6.399
78326SOL     OW36809   0.957   4.162   2.210
78326SOL    HW136810   0.924   4.106   2.140
78326SOL    HW236811   0.881   4.212   2.238
78327SOL     OW36812  10.897  13.991  10.851
78327SOL    HW136813  10.872  13.951  10.934
78327SOL    HW236814  10.815  14.022  10.813
78328SOL     OW36815  13.053   5.486  11.282
78328SOL    HW136816  13.013   5.522  11.203
78328SOL    HW236817  13.075   5.563  11.335
78329SOL     OW36818   3.389   0.599   7.387
78329SOL    HW136819   3.425   0.529   7.442
78329SOL    HW236820   3.448   0.602   7.312
78330SOL     OW36821   2.662  11.862   0.763
78330SOL    HW136822   2.700  11.924   0.701
78330SOL    HW236823   2.623  11.917   0.831
78331SOL     OW36824   8.894  10.087  13.866
78331SOL    HW136825   8.821  10.036  13.900
78331SOL    HW236826   8.854  10.145  13.800
78332SOL     OW36827   6.329  10.114  12.229
78332SOL    HW136828   6.288  10.190  12.272
78332SOL    HW236829   6.270  10.041  12.248
78333SOL     OW36830   5.020  12.843   5.475
78333SOL    HW136831   5.035  12.898   5.552
78333SOL    HW236832   4.992  12.759   5.511
78334SOL     OW36833   7.734   0.261   8.349
78334SOL    HW136834   7.757   0.310   8.427
78334SOL    HW236835   7.688   0.184   8.382
78335SOL     OW36836   7.964   1.603   6.116
78335SOL    HW136837   7.910   1.673   6.151
78335SOL    HW236838   7.999   1.558   6.193
78336SOL     OW36839   2.717   5.633   7.933
78336SOL    HW136840   2.654   5.562   7.922
78336SOL    HW236841   2.669   5.712   7.909
78337SOL     OW36842   2.731  13.657   6.437
78337SOL    HW136843   2.802  13.718   6.418
78337SOL    HW236844   2.713  13.615   6.353
78338SOL     OW36845   4.505   3.150  11.535
78338SOL    HW136846   4.563   3.150  11.612
78338SOL    HW236847   4.561   3.120  11.463
78339SOL     OW36848   5.729   4.656   9.491
78339SOL    HW136849   5.656   4.622   9.542
78339SOL    HW236850   5.688   4.701   9.417
78340SOL     OW36851   4.708   2.324   3.966
78340SOL    HW136852   4.772   2.294   3.901
78340SOL    HW236853   4.669   2.243   4.000
78341SOL     OW36854  11.575  14.225  13.542
78341SOL    HW136855  11.508  14.181  13.593
78341SOL    HW236856  11.547  14.214  13.451
78342SOL     OW36857   6.516  13.811   2.558
78342SOL    HW136858   6.565  13.821   2.476
78342SOL    HW236859   6.584  13.802   2.625
78343SOL     OW36860   5.814   5.870   8.454
78343SOL    HW136861   5.785   5.959   8.431
78343SOL    HW236862   5.738   5.830   8.496
78344SOL     OW36863  13.749  12.648   0.341
78344SOL    HW136864  13.762  12.732   0.387
78344SOL    HW236865  13.694  12.597   0.400
78345SOL     OW36866   4.363  12.599  10.330
78345SOL    HW136867   4.278  12.555  10.333
78345SOL    HW236868   4.375  12.635  10.417
78346SOL     OW36869   0.775  11.933   9.442
78346SOL    HW136870   0.681  11.941   9.454
78346SOL    HW236871   0.786  11.854   9.390
78347SOL     OW36872  13.225   2.078   5.550
78347SOL    HW136873  13.234   1.987   5.575
78347SOL    HW236874  13.274   2.127   5.617
78348SOL     OW36875   8.258   1.912   3.032
78348SOL    HW136876   8.198   1.923   3.106
78348SOL    HW236877   8.345   1.910   3.072
78349SOL     OW36878   7.337   5.656   1.138
78349SOL    HW136879   7.297   5.739   1.164
78349SOL    HW236880   7.263   5.596   1.126
78350SOL     OW36881   3.536   0.379  12.869
78350SOL    HW136882   3.598   0.309  12.884
78350SOL    HW236883   3.473   0.372  12.941
78351SOL     OW36884  14.869  11.495   1.542
78351SOL    HW136885   0.034  11.528   1.619
78351SOL    HW236886   0.034  11.415   1.518
78352SOL     OW36887   7.976   2.235   0.383
78352SOL    HW136888   8.025   2.249   0.464
78352SOL    HW236889   8.040   2.196   0.323
78353SOL     OW36890   8.293   4.397  10.907
78353SOL    HW136891   8.386   4.406  10.885
78353SOL    HW236892   8.285   4.310  10.946
78354SOL     OW36893   3.078  11.341  12.086
78354SOL    HW136894   2.990  11.372  12.065
78354SOL    HW236895   3.100  11.384  12.169
78355SOL     OW36896   6.720   4.247  12.798
78355SOL    HW136897   6.667   4.326  12.789
78355SOL    HW236898   6.810   4.279  12.809
78356SOL     OW36899  11.009  12.918   0.839
78356SOL    HW136900  10.963  12.876   0.767
78356SOL    HW236901  10.970  12.881   0.918
78357SOL     OW36902  14.187  12.486   0.988
78357SOL    HW136903  14.251  12.548   1.022
78357SOL    HW236904  14.178  12.507   0.895
78358SOL     OW36905   0.840   4.411  13.106
78358SOL    HW136906   0.756   4.397  13.062
78358SOL    HW236907   0.893   4.335  13.082
78359SOL     OW36908  13.726   3.137  10.437
78359SOL    HW136909  13.645   3.102  10.400
78359SOL    HW236910  13.731   3.226  10.403
78360SOL     OW36911  13.320   1.007  11.491
78360SOL    HW136912  13.396   1.033  11.543
78360SOL    HW236913  13.245   1.019  11.550
78361SOL     OW36914   6.531   2.342   8.233
78361SOL    HW136915   6.461   2.283   8.262
78361SOL    HW236916   6.496   2.386   8.156
78362SOL     OW36917  13.292   1.362   1.305
78362SOL    HW136918  13.371   1.407   1.334
78362SOL    HW236919  13.314   1.326   1.219
78363SOL     OW36920  13.395   3.493   2.831
78363SOL    HW136921  13.335   3.490   2.757
78363SOL    HW236922  13.465   3.553   2.804
78364SOL     OW36923   0.593   8.998   0.505
78364SOL    HW136924   0.619   9.028   0.592
78364SOL    HW236925   0.504   9.032   0.493
78365SOL     OW36926  14.578   8.869   7.268
78365SOL    HW136927  14.645   8.820   7.315
78365SOL    HW236928  14.624   8.910   7.195
78366SOL     OW36929  11.756  12.698  11.206
78366SOL    HW136930  11.810  12.761  11.255
78366SOL    HW236931  11.671  12.701  11.249
78367SOL     OW36932  14.041   1.441   5.223
78367SOL    HW136933  14.133   1.426   5.241
78367SOL    HW236934  14.021   1.523   5.268
78368SOL     OW36935   5.525   6.497   9.787
78368SOL    HW136936   5.535   6.486   9.882
78368SOL    HW236937   5.611   6.474   9.752
78369SOL     OW36938   6.566  13.190   9.404
78369SOL    HW136939   6.659  13.168   9.396
78369SOL    HW236940   6.558  13.276   9.362
78370SOL     OW36941  11.883   3.626   2.718
78370SOL    HW136942  11.834   3.707   2.736
78370SOL    HW236943  11.815   3.558   2.715
78371SOL     OW36944  13.523  10.658  13.638
78371SOL    HW136945  13.577  10.586  13.672
78371SOL    HW236946  13.434  10.633  13.660
78372SOL     OW36947   3.020  14.828  11.963
78372SOL    HW136948   3.071  14.778  12.027
78372SOL    HW236949   2.965  14.762  11.919
78373SOL     OW36950  14.505  14.507   6.940
78373SOL    HW136951  14.523  14.600   6.953
78373SOL    HW236952  14.419  14.504   6.898
78374SOL     OW36953   0.259  10.937   5.522
78374SOL    HW136954   0.276  11.028   5.546
78374SOL    HW236955   0.346  10.897   5.518
78375SOL     OW36956   2.227   3.463   6.680
78375SOL    HW136957   2.194   3.401   6.745
78375SOL    HW236958   2.277   3.526   6.730
78376SOL     OW36959  13.813   0.119   1.743
78376SOL    HW136960  13.780   0.030   1.748
78376SOL    HW236961  13.734   0.174   1.742
78377SOL     OW36962   2.405   2.125   5.059
78377SOL    HW136963   2.483   2.126   5.113
78377SOL    HW236964   2.436   2.147   4.971
78378SOL     OW36965   4.596  10.848   1.154
78378SOL    HW136966   4.689  10.825   1.156
78378SOL    HW236967   4.571  10.839   1.062
78379SOL     OW36968   3.253  14.822   7.313
78379SOL    HW136969   3.313  14.778   7.253
78379SOL    HW236970   3.308   0.002   7.361
78380SOL     OW36971   5.561  13.221   5.631
78380SOL    HW136972   5.592  13.190   5.716
78380SOL    HW236973   5.619  13.294   5.610
78381SOL     OW36974   2.890  12.231   2.965
78381SOL    HW136975   2.946  12.175   3.019
78381SOL    HW236976   2.876  12.309   3.019
78382SOL     OW36977   0.819   1.547   1.202
78382SOL    HW136978   0.825   1.452   1.194
78382SOL    HW236979   0.733   1.569   1.167
78383SOL     OW36980   2.256   7.596   7.419
78383SOL    HW136981   2.167   7.599   7.454
78383SOL    HW236982   2.251   7.531   7.349
78384SOL     OW36983   0.321   3.613   0.880
78384SOL    HW136984   0.329   3.524   0.845
78384SOL    HW236985   0.264   3.603   0.957
78385SOL     OW36986  10.583   8.945   9.286
78385SOL    HW136987  10.589   9.002   9.208
78385SOL    HW236988  10.630   8.994   9.354
78386SOL     OW36989   6.395  11.436   4.617
78386SOL    HW136990   6.308  11.436   4.658
78386SOL    HW236991   6.377  11.427   4.523
78387SOL     OW36992   5.548  11.488   7.540
78387SOL    HW136993   5.503  11.430   7.479
78387SOL    HW236994   5.547  11.441   7.624
78388SOL     OW36995  12.924   5.184   8.033
78388SOL    HW136996  12.928   5.107   7.976
78388SOL    HW236997  12.855   5.238   7.994
78389SOL     OW36998   5.557   5.712   0.896
78389SOL    HW136999   5.561   5.655   0.819
78389SOL    HW237000   5.498   5.783   0.870
78390SOL     OW37001   2.167   6.701   5.775
78390SOL    HW137002   2.134   6.736   5.692
78390SOL    HW237003   2.091   6.702   5.833
78391SOL     OW37004  12.904   0.011  14.019
78391SOL    HW137005  12.997   0.000  13.998
78391SOL    HW237006  12.887   0.104  14.003
78392SOL     OW37007  11.749  10.398   0.418
78392SOL    HW137008  11.699  10.470   0.455
78392SOL    HW237009  11.683  10.336   0.387
78393SOL     OW37010   0.080   6.583   5.642
78393SOL    HW137011   0.151   6.646   5.646
78393SOL    HW237012   0.069   6.554   5.733
78394SOL     OW37013   4.249  11.144  13.870
78394SOL    HW137014   4.301  11.081  13.818
78394SOL    HW237015   4.268  11.229  13.830
78395SOL     OW37016  14.847  11.916   5.999
78395SOL    HW137017   0.021  11.925   6.076
78395SOL    HW237018  14.759  11.908   6.034
78396SOL     OW37019   1.025   0.595  10.813
78396SOL    HW137020   1.068   0.677  10.789
78396SOL    HW237021   0.972   0.617  10.890
78397SOL     OW37022   6.639  10.277  10.309
78397SOL    HW137023   6.733  10.288  10.295
78397SOL    HW237024   6.626  10.300  10.401
78398SOL     OW37025   9.976  10.567  10.867
78398SOL    HW137026   9.914  10.630  10.903
78398SOL    HW237027  10.024  10.616  10.801
78399SOL     OW37028   8.975   9.320  10.600
78399SOL    HW137029   8.977   9.415  10.614
78399SOL    HW237030   8.903   9.307  10.539
78400SOL     OW37031  13.866   3.129   9.952
78400SOL    HW137032  13.947   3.152   9.907
78400SOL    HW237033  13.813   3.086   9.885
78401SOL     OW37034   7.626   2.164   5.969
78401SOL    HW137035   7.569   2.239   5.951
78401SOL    HW237036   7.665   2.184   6.054
78402SOL     OW37037  14.155  12.049  11.598
78402SOL    HW137038  14.226  12.054  11.661
78402SOL    HW237039  14.137  12.139  11.573
78403SOL     OW37040   1.921   2.640   0.368
78403SOL    HW137041   1.966   2.713   0.411
78403SOL    HW237042   1.953   2.562   0.415
78404SOL     OW37043   5.448  14.817  12.332
78404SOL    HW137044   5.542  14.800  12.333
78404SOL    HW237045   5.436   0.005  12.396
78405SOL     OW37046  14.059   0.056   1.601
78405SOL    HW137047  14.101   0.136   1.569
78405SOL    HW237048  13.994   0.087   1.664
78406SOL     OW37049   0.801   6.983   7.651
78406SOL    HW137050   0.779   7.064   7.605
78406SOL    HW237051   0.739   6.979   7.724
78407SOL     OW37052   1.109   2.674  12.946
78407SOL    HW137053   1.028   2.705  12.986
78407SOL    HW237054   1.120   2.585  12.979
78408SOL     OW37055   8.730  14.437   6.803
78408SOL    HW137056   8.736  14.449   6.708
78408SOL    HW237057   8.817  14.405   6.828
78409SOL     OW37058   4.617   3.955   9.176
78409SOL    HW137059   4.654   3.869   9.197
78409SOL    HW237060   4.620   4.003   9.259
78410SOL     OW37061   2.603  11.756   1.078
78410SOL    HW137062   2.535  11.783   1.140
78410SOL    HW237063   2.682  11.747   1.131
78411SOL     OW37064  11.041   2.172   2.288
78411SOL    HW137065  10.946   2.168   2.298
78411SOL    HW237066  11.065   2.258   2.321
78412SOL     OW37067   8.585   8.032   8.533
78412SOL    HW137068   8.643   7.966   8.570
78412SOL    HW237069   8.512   7.982   8.497
78413SOL     OW37070   2.259  10.238  10.563
78413SOL    HW137071   2.204  10.224  10.640
78413SOL    HW237072   2.197  10.235  10.490
78414SOL     OW37073   6.267  14.271  14.388
78414SOL    HW137074   6.300  14.356  14.417
78414SOL    HW237075   6.173  14.284  14.377
78415SOL     OW37076   6.953   3.451  11.411
78415SOL    HW137077   6.971   3.379  11.351
78415SOL    HW237078   6.934   3.526  11.354
78416SOL     OW37079   5.362   8.291   1.073
78416SOL    HW137080   5.321   8.304   0.988
78416SOL    HW237081   5.436   8.352   1.074
78417SOL     OW37082   9.134   5.449   6.446
78417SOL    HW137083   9.093   5.516   6.501
78417SOL    HW237084   9.066   5.382   6.435
78418SOL     OW37085   5.337   7.633   8.350
78418SOL    HW137086   5.246   7.622   8.380
78418SOL    HW237087   5.356   7.725   8.366
78419SOL     OW37088   2.276   9.044   1.147
78419SOL    HW137089   2.340   9.109   1.175
78419SOL    HW237090   2.317   9.001   1.072
78420SOL     OW37091   2.256   2.666   3.252
78420SOL    HW137092   2.171   2.665   3.208
78420SOL    HW237093   2.318   2.632   3.187
78421SOL     OW37094  10.173   7.028   0.450
78421SOL    HW137095  10.243   6.963   0.461
78421SOL    HW237096  10.208   7.108   0.487
78422SOL     OW37097   0.276   6.190  14.778
78422SOL    HW137098   0.297   6.246  14.703
78422SOL    HW237099   0.289   6.247  14.855
78423SOL     OW37100   3.361  14.673  12.873
78423SOL    HW137101   3.356  14.686  12.968
78423SOL    HW237102   3.282  14.714  12.839
78424SOL     OW37103  13.778   4.903   1.604
78424SOL    HW137104  13.708   4.964   1.580
78424SOL    HW237105  13.743   4.855   1.679
78425SOL     OW37106  12.788   2.344  11.718
78425SOL    HW137107  12.832   2.300  11.644
78425SOL    HW237108  12.705   2.374  11.681
78426SOL     OW37109  12.372   9.017   0.190
78426SOL    HW137110  12.460   8.981   0.176
78426SOL    HW237111  12.314   8.958   0.141
78427SOL     OW37112   1.999   3.329   2.459
78427SOL    HW137113   2.004   3.424   2.455
78427SOL    HW237114   1.997   3.301   2.367
78428SOL     OW37115  12.727   0.764   6.097
78428SOL    HW137116  12.636   0.743   6.118
78428SOL    HW237117  12.722   0.845   6.046
78429SOL     OW37118   9.049   5.740  14.660
78429SOL    HW137119   9.050   5.775  14.749
78429SOL    HW237120   9.006   5.808  14.608
78430SOL     OW37121   8.046   9.210  11.761
78430SOL    HW137122   8.107   9.276  11.726
78430SOL    HW237123   8.084   9.126  11.736
78431SOL     OW37124   1.023   1.410   9.667
78431SOL    HW137125   0.956   1.462   9.711
78431SOL    HW237126   0.974   1.339   9.625
78432SOL     OW37127   9.769  11.345   3.232
78432SOL    HW137128   9.864  11.349   3.218
78432SOL    HW237129   9.746  11.254   3.215
78433SOL     OW37130   1.034   8.183  12.633
78433SOL    HW137131   0.980   8.259  12.654
78433SOL    HW237132   0.987   8.109  12.671
78434SOL     OW37133   2.078   8.874  13.126
78434SOL    HW137134   2.049   8.784  13.142
78434SOL    HW237135   2.152   8.887  13.185
78435SOL     OW37136   7.815   0.351  12.873
78435SOL    HW137137   7.767   0.310  12.945
78435SOL    HW237138   7.809   0.288  12.801
78436SOL     OW37139  13.848   0.813  10.265
78436SOL    HW137140  13.908   0.828  10.192
78436SOL    HW237141  13.832   0.900  10.301
78437SOL     OW37142  14.630   1.490  11.053
78437SOL    HW137143  14.605   1.421  11.114
78437SOL    HW237144  14.641   1.568  11.108
78438SOL     OW37145  10.561   6.506   7.238
78438SOL    HW137146  10.538   6.415   7.253
78438SOL    HW237147  10.481   6.555   7.258
78439SOL     OW37148  14.704   8.311   7.857
78439SOL    HW137149  14.688   8.399   7.823
78439SOL    HW237150  14.729   8.324   7.948
78440SOL     OW37151   1.488   6.951   5.687
78440SOL    HW137152   1.439   6.920   5.763
78440SOL    HW237153   1.421   6.960   5.618
78441SOL     OW37154   0.460   8.311   0.917
78441SOL    HW137155   0.544   8.269   0.901
78441SOL    HW237156   0.422   8.262   0.990
78442SOL     OW37157   3.374   6.696   3.995
78442SOL    HW137158   3.425   6.617   3.973
78442SOL    HW237159   3.325   6.715   3.915
78443SOL     OW37160   8.153   4.767   2.007
78443SOL    HW137161   8.199   4.695   2.049
78443SOL    HW237162   8.069   4.773   2.053
78444SOL     OW37163   2.654   2.592   5.334
78444SOL    HW137164   2.603   2.533   5.279
78444SOL    HW237165   2.731   2.613   5.282
78445SOL     OW37166   6.301   3.940  14.272
78445SOL    HW137167   6.346   3.868  14.228
78445SOL    HW237168   6.219   3.901  14.303
78446SOL     OW37169   8.688   4.384  11.808
78446SOL    HW137170   8.722   4.473  11.794
78446SOL    HW237171   8.612   4.397  11.865
78447SOL     OW37172   9.744  14.283   7.436
78447SOL    HW137173   9.663  14.238   7.460
78447SOL    HW237174   9.759  14.345   7.507
78448SOL     OW37175  11.801  13.557   3.217
78448SOL    HW137176  11.781  13.543   3.309
78448SOL    HW237177  11.861  13.631   3.217
78449SOL     OW37178  13.725   6.795   0.593
78449SOL    HW137179  13.799   6.824   0.540
78449SOL    HW237180  13.760   6.793   0.683
78450SOL     OW37181  12.071   5.488   3.246
78450SOL    HW137182  12.006   5.422   3.221
78450SOL    HW237183  12.051   5.564   3.190
78451SOL     OW37184  13.997   5.074   5.976
78451SOL    HW137185  13.938   5.115   5.913
78451SOL    HW237186  13.944   5.010   6.022
78452SOL     OW37187   0.308   2.316   2.132
78452SOL    HW137188   0.276   2.328   2.222
78452SOL    HW237189   0.302   2.221   2.118
78453SOL     OW37190   3.466  14.711   2.474
78453SOL    HW137191   3.384  14.737   2.432
78453SOL    HW237192   3.476  14.619   2.451
78454SOL     OW37193  11.793   0.033   9.519
78454SOL    HW137194  11.733   0.005   9.587
78454SOL    HW237195  11.869   0.068   9.566
78455SOL     OW37196  11.359   2.399   9.568
78455SOL    HW137197  11.346   2.423   9.477
78455SOL    HW237198  11.442   2.441   9.592
78456SOL     OW37199  11.500  11.648  12.161
78456SOL    HW137200  11.515  11.620  12.251
78456SOL    HW237201  11.508  11.568  12.109
78457SOL     OW37202   8.927   9.403   4.811
78457SOL    HW137203   9.009   9.366   4.842
78457SOL    HW237204   8.861   9.337   4.832
78458SOL     OW37205   2.399   4.675   0.944
78458SOL    HW137206   2.481   4.725   0.941
78458SOL    HW237207   2.363   4.694   1.031
78459SOL     OW37208  11.834  13.157   9.464
78459SOL    HW137209  11.835  13.202   9.379
78459SOL    HW237210  11.841  13.064   9.443
78460SOL     OW37211   3.144   7.557   2.820
78460SOL    HW137212   3.140   7.637   2.769
78460SOL    HW237213   3.238   7.542   2.835
78461SOL     OW37214   9.168  14.568   9.192
78461SOL    HW137215   9.116  14.622   9.251
78461SOL    HW237216   9.113  14.557   9.114
78462SOL     OW37217   4.090  13.267   6.234
78462SOL    HW137218   4.153  13.336   6.257
78462SOL    HW237219   4.078  13.218   6.315
78463SOL     OW37220   6.176   0.738   8.313
78463SOL    HW137221   6.185   0.775   8.226
78463SOL    HW237222   6.263   0.746   8.352
78464SOL     OW37223   4.014   7.078   2.968
78464SOL    HW137224   4.082   7.072   3.036
78464SOL    HW237225   4.063   7.072   2.885
78465SOL     OW37226   8.251   4.724   7.692
78465SOL    HW137227   8.213   4.697   7.776
78465SOL    HW237228   8.213   4.810   7.675
78466SOL     OW37229   2.789   7.071   2.153
78466SOL    HW137230   2.841   7.048   2.229
78466SOL    HW237231   2.841   7.136   2.107
78467SOL     OW37232  10.695   7.952   7.238
78467SOL    HW137233  10.674   8.002   7.317
78467SOL    HW237234  10.739   7.873   7.270
78468SOL     OW37235  13.555  14.035   9.082
78468SOL    HW137236  13.618  13.985   9.134
78468SOL    HW237237  13.607  14.101   9.037
78469SOL     OW37238   7.674   1.805   1.215
78469SOL    HW137239   7.758   1.846   1.236
78469SOL    HW237240   7.666   1.734   1.278
78470SOL     OW37241   9.329   8.931  13.501
78470SOL    HW137242   9.241   8.927  13.463
78470SOL    HW237243   9.351   9.024  13.501
78471SOL     OW37244   2.708   8.043   1.494
78471SOL    HW137245   2.726   8.041   1.401
78471SOL    HW237246   2.792   8.021   1.536
78472SOL     OW37247  13.671   4.563   7.664
78472SOL    HW137248  13.620   4.510   7.602
78472SOL    HW237249  13.701   4.501   7.730
78473SOL     OW37250   4.670   9.462   5.041
78473SOL    HW137251   4.645   9.371   5.054
78473SOL    HW237252   4.743   9.458   4.978
78474SOL     OW37253  11.978  12.375   9.633
78474SOL    HW137254  11.956  12.285   9.609
78474SOL    HW237255  11.895  12.414   9.659
78475SOL     OW37256   0.640  10.121   5.583
78475SOL    HW137257   0.721  10.161   5.551
78475SOL    HW237258   0.571  10.180   5.553
78476SOL     OW37259   9.628   0.679  14.661
78476SOL    HW137260   9.715   0.685  14.621
78476SOL    HW237261   9.646   0.662  14.754
78477SOL     OW37262  12.003  12.282   0.568
78477SOL    HW137263  12.090  12.288   0.527
78477SOL    HW237264  12.001  12.353   0.632
78478SOL     OW37265   2.759   9.577   0.208
78478SOL    HW137266   2.806   9.496   0.224
78478SOL    HW237267   2.801   9.641   0.266
78479SOL     OW37268   9.411  12.966   5.380
78479SOL    HW137269   9.434  12.873   5.369
78479SOL    HW237270   9.369  12.990   5.298
78480SOL     OW37271   3.886   7.199  10.232
78480SOL    HW137272   3.966   7.165  10.191
78480SOL    HW237273   3.897   7.179  10.325
78481SOL     OW37274  10.811   4.613   7.228
78481SOL    HW137275  10.905   4.621   7.246
78481SOL    HW237276  10.770   4.642   7.309
78482SOL     OW37277   7.120   1.618   4.193
78482SOL    HW137278   7.108   1.588   4.283
78482SOL    HW237279   7.181   1.691   4.199
78483SOL     OW37280   5.349   5.074  10.960
78483SOL    HW137281   5.401   4.994  10.953
78483SOL    HW237282   5.283   5.054  11.027
78484SOL     OW37283   7.274   7.624  11.548
78484SOL    HW137284   7.302   7.536  11.572
78484SOL    HW237285   7.319   7.643  11.466
78485SOL     OW37286  13.813   2.413  10.086
78485SOL    HW137287  13.856   2.496  10.106
78485SOL    HW237288  13.874   2.346  10.117
78486SOL     OW37289   7.856   3.850  10.652
78486SOL    HW137290   7.878   3.936  10.688
78486SOL    HW237291   7.761   3.843  10.663
78487SOL     OW37292   3.794   1.029   9.189
78487SOL    HW137293   3.840   1.045   9.271
78487SOL    HW237294   3.752   0.943   9.200
78488SOL     OW37295  14.267   9.785   6.181
78488SOL    HW137296  14.315   9.703   6.168
78488SOL    HW237297  14.286   9.809   6.272
78489SOL     OW37298  14.856   3.653   1.498
78489SOL    HW137299  14.804   3.602   1.436
78489SOL    HW237300  14.803   3.731   1.515
78490SOL     OW37301   8.217   0.489   8.773
78490SOL    HW137302   8.304   0.510   8.741
78490SOL    HW237303   8.168   0.571   8.768
78491SOL     OW37304  13.323   6.578   6.539
78491SOL    HW137305  13.382   6.514   6.579
78491SOL    HW237306  13.262   6.526   6.487
78492SOL     OW37307   3.447   8.082   4.624
78492SOL    HW137308   3.518   8.136   4.587
78492SOL    HW237309   3.377   8.088   4.559
78493SOL     OW37310  10.041   3.082   6.519
78493SOL    HW137311   9.995   3.027   6.582
78493SOL    HW237312   9.974   3.139   6.482
78494SOL     OW37313   8.457   0.440   6.245
78494SOL    HW137314   8.435   0.506   6.179
78494SOL    HW237315   8.487   0.490   6.321
78495SOL     OW37316   9.067   3.517   6.407
78495SOL    HW137317   9.126   3.447   6.435
78495SOL    HW237318   9.044   3.562   6.488
78496SOL     OW37319   3.935  11.104   0.283
78496SOL    HW137320   3.974  11.190   0.297
78496SOL    HW237321   3.930  11.094   0.187
78497SOL     OW37322   1.064  12.222   9.870
78497SOL    HW137323   1.119  12.145   9.887
78497SOL    HW237324   1.046  12.218   9.777
78498SOL     OW37325   7.085   3.207   6.472
78498SOL    HW137326   7.167   3.246   6.443
78498SOL    HW237327   7.095   3.113   6.454
78499SOL     OW37328   9.629  14.308   8.923
78499SOL    HW137329   9.650  14.244   8.856
78499SOL    HW237330   9.599  14.257   8.998
78500SOL     OW37331   2.448   5.319  12.781
78500SOL    HW137332   2.532   5.322  12.734
78500SOL    HW237333   2.423   5.411  12.792
78501SOL     OW37334   2.909   2.447   7.939
78501SOL    HW137335   2.969   2.373   7.950
78501SOL    HW237336   2.829   2.409   7.904
78502SOL     OW37337   2.571  11.475   7.148
78502SOL    HW137338   2.565  11.545   7.084
78502SOL    HW237339   2.502  11.413   7.123
78503SOL     OW37340  14.623   3.065   9.603
78503SOL    HW137341  14.591   3.011   9.676
78503SOL    HW237342  14.595   3.154   9.625
78504SOL     OW37343  11.054  14.270   7.450
78504SOL    HW137344  11.060  14.268   7.355
78504SOL    HW237345  10.961  14.280   7.469
78505SOL     OW37346  14.339   0.128   2.589
78505SOL    HW137347  14.328   0.085   2.505
78505SOL    HW237348  14.418   0.181   2.579
78506SOL     OW37349   5.350   4.728   5.997
78506SOL    HW137350   5.403   4.663   6.042
78506SOL    HW237351   5.323   4.684   5.916
78507SOL     OW37352   2.406   1.726   5.047
78507SOL    HW137353   2.470   1.719   4.976
78507SOL    HW237354   2.337   1.665   5.023
78508SOL     OW37355   3.010   9.887   9.840
78508SOL    HW137356   3.021   9.815   9.902
78508SOL    HW237357   3.065   9.862   9.765
78509SOL     OW37358  10.736   3.694   6.939
78509SOL    HW137359  10.685   3.642   7.001
78509SOL    HW237360  10.692   3.682   6.855
78510SOL     OW37361   7.423   3.940  12.879
78510SOL    HW137362   7.366   4.012  12.906
78510SOL    HW237363   7.466   3.971  12.799
78511SOL     OW37364  14.277  13.109  11.737
78511SOL    HW137365  14.336  13.175  11.773
78511SOL    HW237366  14.202  13.108  11.797
78512SOL     OW37367   1.700   0.267   5.691
78512SOL    HW137368   1.733   0.206   5.757
78512SOL    HW237369   1.752   0.347   5.704
78513SOL     OW37370  13.787   7.603   4.742
78513SOL    HW137371  13.861   7.548   4.715
78513SOL    HW237372  13.829   7.681   4.779
78514SOL     OW37373  14.618   2.523   4.702
78514SOL    HW137374  14.646   2.434   4.680
78514SOL    HW237375  14.549   2.543   4.639
78515SOL     OW37376   8.419   6.546   1.523
78515SOL    HW137377   8.403   6.530   1.430
78515SOL    HW237378   8.475   6.474   1.550
78516SOL     OW37379   1.314   4.040   1.123
78516SOL    HW137380   1.278   4.065   1.038
78516SOL    HW237381   1.328   4.124   1.168
78517SOL     OW37382   3.705   2.642   9.620
78517SOL    HW137383   3.777   2.632   9.558
78517SOL    HW237384   3.627   2.623   9.569
78518SOL     OW37385   6.455   8.908   8.912
78518SOL    HW137386   6.478   8.985   8.964
78518SOL    HW237387   6.539   8.864   8.895
78519SOL     OW37388  14.426   7.085   6.994
78519SOL    HW137389  14.472   7.128   6.921
78519SOL    HW237390  14.333   7.097   6.974
78520SOL     OW37391  13.303  10.766  11.170
78520SOL    HW137392  13.258  10.814  11.100
78520SOL    HW237393  13.392  10.756  11.137
78521SOL     OW37394   6.609   4.814   5.506
78521SOL    HW137395   6.617   4.909   5.499
78521SOL    HW237396   6.544   4.800   5.575
78522SOL     OW37397   0.008  10.490   5.525
78522SOL    HW137398  14.819  10.552   5.541
78522SOL    HW237399  14.855  10.406   5.553
78523SOL     OW37400   6.157  11.407   6.481
78523SOL    HW137401   6.194  11.442   6.400
78523SOL    HW237402   6.063  11.423   6.473
78524SOL     OW37403  11.283   7.256   2.961
78524SOL    HW137404  11.327   7.172   2.948
78524SOL    HW237405  11.334   7.319   2.910
78525SOL     OW37406   9.872   3.696  13.943
78525SOL    HW137407   9.830   3.777  13.971
78525SOL    HW237408   9.801   3.632  13.940
78526SOL     OW37409   2.480   1.955   2.414
78526SOL    HW137410   2.490   1.927   2.505
78526SOL    HW237411   2.388   1.981   2.407
78527SOL     OW37412   2.365  11.176   2.357
78527SOL    HW137413   2.452  11.210   2.379
78527SOL    HW237414   2.340  11.224   2.278
78528SOL     OW37415   6.630  14.259  14.075
78528SOL    HW137416   6.583  14.254  14.158
78528SOL    HW237417   6.562  14.268  14.009
78529SOL     OW37418  11.642  14.773   9.719
78529SOL    HW137419  11.710  14.739   9.777
78529SOL    HW237420  11.584  14.823   9.776
78530SOL     OW37421   4.449   3.784  10.184
78530SOL    HW137422   4.480   3.824  10.265
78530SOL    HW237423   4.435   3.859  10.125
78531SOL     OW37424  12.444   4.239   2.319
78531SOL    HW137425  12.448   4.284   2.235
78531SOL    HW237426  12.354   4.208   2.326
78532SOL     OW37427  13.472   4.679   3.226
78532SOL    HW137428  13.379   4.697   3.212
78532SOL    HW237429  13.490   4.601   3.175
78533SOL     OW37430  11.874  13.329   8.203
78533SOL    HW137431  11.798  13.284   8.240
78533SOL    HW237432  11.948  13.300   8.257
78534SOL     OW37433   9.797   6.197   9.309
78534SOL    HW137434   9.751   6.219   9.390
78534SOL    HW237435   9.890   6.211   9.330
78535SOL     OW37436   6.159  12.863  14.397
78535SOL    HW137437   6.065  12.882  14.395
78535SOL    HW237438   6.175  12.814  14.316
78536SOL     OW37439  10.046  13.496   4.822
78536SOL    HW137440  10.033  13.403   4.839
78536SOL    HW237441   9.958  13.533   4.817
78537SOL     OW37442   0.602   8.135   8.117
78537SOL    HW137443   0.574   8.219   8.082
78537SOL    HW237444   0.608   8.150   8.212
78538SOL     OW37445   1.365  10.840   5.238
78538SOL    HW137446   1.402  10.792   5.164
78538SOL    HW237447   1.274  10.809   5.244
78539SOL     OW37448  10.148  11.842   7.785
78539SOL    HW137449  10.183  11.753   7.782
78539SOL    HW237450  10.053  11.831   7.790
78540SOL     OW37451  11.687   8.493   4.787
78540SOL    HW137452  11.778   8.496   4.758
78540SOL    HW237453  11.677   8.569   4.844
78541SOL     OW37454   7.366  14.350   3.795
78541SOL    HW137455   7.435  14.340   3.729
78541SOL    HW237456   7.390  14.429   3.843
78542SOL     OW37457  10.114  12.246  13.825
78542SOL    HW137458  10.039  12.194  13.854
78542SOL    HW237459  10.187  12.185  13.827
78543SOL     OW37460   0.176   5.857   8.796
78543SOL    HW137461   0.089   5.823   8.818
78543SOL    HW237462   0.230   5.836   8.873
78544SOL     OW37463   3.323  10.691  11.913
78544SOL    HW137464   3.370  10.616  11.950
78544SOL    HW237465   3.257  10.651  11.856
78545SOL     OW37466   9.026   6.962  11.084
78545SOL    HW137467   9.116   6.990  11.099
78545SOL    HW237468   8.976   7.043  11.080
78546SOL     OW37469  11.515   4.008  13.373
78546SOL    HW137470  11.494   3.923  13.335
78546SOL    HW237471  11.437   4.061  13.359
78547SOL     OW37472   3.199   3.698   5.373
78547SOL    HW137473   3.140   3.703   5.448
78547SOL    HW237474   3.197   3.606   5.347
78548SOL     OW37475   7.762  14.054   2.408
78548SOL    HW137476   7.711  13.975   2.394
78548SOL    HW237477   7.815  14.062   2.328
78549SOL     OW37478  12.509   0.564   2.661
78549SOL    HW137479  12.578   0.614   2.704
78549SOL    HW237480  12.448   0.542   2.731
78550SOL     OW37481   0.257   6.813  12.007
78550SOL    HW137482   0.251   6.823  12.102
78550SOL    HW237483   0.261   6.718  11.993
78551SOL     OW37484   2.183   0.119  10.754
78551SOL    HW137485   2.119   0.048  10.766
78551SOL    HW237486   2.132   0.199  10.762
78552SOL     OW37487   0.867  14.318   9.341
78552SOL    HW137488   0.825  14.355   9.419
78552SOL    HW237489   0.851  14.382   9.273
78553SOL     OW37490  11.894  13.127   6.874
78553SOL    HW137491  11.944  13.122   6.793
78553SOL    HW237492  11.807  13.094   6.852
78554SOL     OW37493  12.055  10.072   6.213
78554SOL    HW137494  11.984  10.048   6.272
78554SOL    HW237495  12.068  10.165   6.227
78555SOL     OW37496   3.045   2.712  11.919
78555SOL    HW137497   3.045   2.623  11.956
78555SOL    HW237498   2.999   2.765  11.984
78556SOL     OW37499   6.443   9.053   5.161
78556SOL    HW137500   6.467   9.063   5.069
78556SOL    HW237501   6.506   9.108   5.208
78557SOL     OW37502  10.038   3.968   7.274
78557SOL    HW137503   9.946   3.967   7.246
78557SOL    HW237504  10.057   4.061   7.285
78558SOL     OW37505   7.192   1.412   7.345
78558SOL    HW137506   7.283   1.383   7.357
78558SOL    HW237507   7.142   1.363   7.410
78559SOL     OW37508  13.471  14.452   2.503
78559SOL    HW137509  13.524  14.440   2.582
78559SOL    HW237510  13.409  14.379   2.504
78560SOL     OW37511  14.766  11.827   4.271
78560SOL    HW137512  14.716  11.830   4.190
78560SOL    HW237513  14.729  11.754   4.320
78561SOL     OW37514   9.577   7.163   3.576
78561SOL    HW137515   9.550   7.075   3.601
78561SOL    HW237516   9.505   7.196   3.523
78562SOL     OW37517  14.530  12.192   3.264
78562SOL    HW137518  14.446  12.149   3.249
78562SOL    HW237519  14.556  12.223   3.177
78563SOL     OW37520   2.700   0.796   6.494
78563SOL    HW137521   2.735   0.881   6.520
78563SOL    HW237522   2.606   0.812   6.480
78564SOL     OW37523  13.832  13.878  12.176
78564SOL    HW137524  13.831  13.783  12.169
78564SOL    HW237525  13.794  13.909  12.094
78565SOL     OW37526   9.558   5.985   8.301
78565SOL    HW137527   9.581   5.892   8.295
78565SOL    HW237528   9.596   6.014   8.384
78566SOL     OW37529   2.408   9.521   7.968
78566SOL    HW137530   2.368   9.599   7.929
78566SOL    HW237531   2.334   9.464   7.988
78567SOL     OW37532   1.434   8.358  11.767
78567SOL    HW137533   1.422   8.363  11.862
78567SOL    HW237534   1.526   8.334  11.757
78568SOL     OW37535   2.266  13.562   9.898
78568SOL    HW137536   2.301  13.650   9.911
78568SOL    HW237537   2.192  13.557   9.959
78569SOL     OW37538  14.810   9.990  12.083
78569SOL    HW137539  14.759   9.975  12.163
78569SOL    HW237540  14.753  10.043  12.028
78570SOL     OW37541  14.703   8.169  14.814
78570SOL    HW137542  14.630   8.145  14.757
78570SOL    HW237543  14.716   8.093  14.870
78571SOL     OW37544   6.757  11.986  13.674
78571SOL    HW137545   6.695  11.913  13.676
78571SOL    HW237546   6.797  11.981  13.587
78572SOL     OW37547  14.684   5.947   3.029
78572SOL    HW137548  14.760   5.987   2.987
78572SOL    HW237549  14.609   5.999   2.998
78573SOL     OW37550   2.683   5.651  12.842
78573SOL    HW137551   2.697   5.734  12.888
78573SOL    HW237552   2.602   5.662  12.794
78574SOL     OW37553  11.868  12.864   2.070
78574SOL    HW137554  11.944  12.833   2.022
78574SOL    HW237555  11.796  12.857   2.008
78575SOL     OW37556   9.847   9.236  11.597
78575SOL    HW137557   9.783   9.254  11.528
78575SOL    HW237558   9.884   9.322  11.619
78576SOL     OW37559   4.253   9.844  11.241
78576SOL    HW137560   4.271   9.863  11.333
78576SOL    HW237561   4.168   9.883  11.224
78577SOL     OW37562   0.766  13.676  12.166
78577SOL    HW137563   0.845  13.668  12.219
78577SOL    HW237564   0.789  13.741  12.099
78578SOL     OW37565   0.249  12.119  10.625
78578SOL    HW137566   0.177  12.057  10.629
78578SOL    HW237567   0.209  12.202  10.599
78579SOL     OW37568  11.776   9.978  12.716
78579SOL    HW137569  11.870   9.966  12.728
78579SOL    HW237570  11.765   9.979  12.621
78580SOL     OW37571   5.882   1.920  14.810
78580SOL    HW137572   5.878   2.005  14.766
78580SOL    HW237573   5.927   1.862  14.748
78581SOL     OW37574   9.980   6.022   7.323
78581SOL    HW137575   9.910   5.964   7.293
78581SOL    HW237576  10.061   5.980   7.294
78582SOL     OW37577   9.431  14.686   1.499
78582SOL    HW137578   9.395  14.713   1.583
78582SOL    HW237579   9.525  14.674   1.516
78583SOL     OW37580   6.188   4.192   9.675
78583SOL    HW137581   6.115   4.237   9.717
78583SOL    HW237582   6.252   4.179   9.745
78584SOL     OW37583   5.357   5.321   2.922
78584SOL    HW137584   5.345   5.405   2.877
78584SOL    HW237585   5.297   5.261   2.877
78585SOL     OW37586   9.667  13.962   2.989
78585SOL    HW137587   9.633  13.967   2.900
78585SOL    HW237588   9.607  14.015   3.041
78586SOL     OW37589   0.981  10.373   6.767
78586SOL    HW137590   0.993  10.459   6.805
78586SOL    HW237591   0.888  10.371   6.742
78587SOL     OW37592   9.694   1.400  14.424
78587SOL    HW137593   9.693   1.409  14.329
78587SOL    HW237594   9.705   1.489  14.457
78588SOL     OW37595  10.146   4.586  10.865
78588SOL    HW137596  10.081   4.580  10.935
78588SOL    HW237597  10.099   4.558  10.787
78589SOL     OW37598   9.473   2.179  10.913
78589SOL    HW137599   9.465   2.085  10.898
78589SOL    HW237600   9.448   2.191  11.005
78590SOL     OW37601   4.364   7.798   9.970
78590SOL    HW137602   4.377   7.871   9.910
78590SOL    HW237603   4.285   7.755   9.939
78591SOL     OW37604   9.990   8.119  11.477
78591SOL    HW137605   9.975   8.028  11.452
78591SOL    HW237606   9.911   8.144  11.526
78592SOL     OW37607   6.416   4.818   9.559
78592SOL    HW137608   6.431   4.834   9.466
78592SOL    HW237609   6.389   4.727   9.564
78593SOL     OW37610   0.228   8.386   6.052
78593SOL    HW137611   0.148   8.351   6.091
78593SOL    HW237612   0.200   8.468   6.010
78594SOL     OW37613   1.444   0.126   2.101
78594SOL    HW137614   1.351   0.120   2.125
78594SOL    HW237615   1.491   0.097   2.179
78595SOL     OW37616   1.386   8.831   2.710
78595SOL    HW137617   1.387   8.786   2.794
78595SOL    HW237618   1.428   8.915   2.727
78596SOL     OW37619   7.855   1.021   9.144
78596SOL    HW137620   7.877   1.003   9.053
78596SOL    HW237621   7.940   1.034   9.187
78597SOL     OW37622   2.381  14.835   3.118
78597SOL    HW137623   2.452  14.777   3.149
78597SOL    HW237624   2.383  14.825   3.023
78598SOL     OW37625   8.756  10.033   3.030
78598SOL    HW137626   8.788  10.116   2.994
78598SOL    HW237627   8.662  10.047   3.040
78599SOL     OW37628   3.498   0.474  14.848
78599SOL    HW137629   3.588   0.442  14.842
78599SOL    HW237630   3.477   0.472   0.059
78600SOL     OW37631   9.399  13.721   8.972
78600SOL    HW137632   9.495  13.715   8.970
78600SOL    HW237633   9.381  13.789   9.037
78601SOL     OW37634  14.542   7.342  12.134
78601SOL    HW137635  14.543   7.257  12.091
78601SOL    HW237636  14.481   7.332  12.207
78602SOL     OW37637   7.418  13.150   2.888
78602SOL    HW137638   7.428  13.089   2.815
78602SOL    HW237639   7.328  13.137   2.918
78603SOL     OW37640   2.629   4.730  12.908
78603SOL    HW137641   2.603   4.641  12.884
78603SOL    HW237642   2.643   4.774  12.824
78604SOL     OW37643   4.849   5.588   2.883
78604SOL    HW137644   4.854   5.662   2.822
78604SOL    HW237645   4.829   5.629   2.968
78605SOL     OW37646  11.833  13.089  12.392
78605SOL    HW137647  11.797  13.166  12.348
78605SOL    HW237648  11.761  13.056  12.446
78606SOL     OW37649  13.150   4.252   3.128
78606SOL    HW137650  13.203   4.315   3.079
78606SOL    HW237651  13.134   4.181   3.066
78607SOL     OW37652   2.445   5.513   8.744
78607SOL    HW137653   2.456   5.527   8.650
78607SOL    HW237654   2.470   5.422   8.757
78608SOL     OW37655   6.923   6.768  12.922
78608SOL    HW137656   6.892   6.809  12.841
78608SOL    HW237657   6.938   6.841  12.982
78609SOL     OW37658   5.993   2.813   5.005
78609SOL    HW137659   5.901   2.823   5.030
78609SOL    HW237660   6.038   2.884   5.050
78610SOL     OW37661   5.863   7.132  12.874
78610SOL    HW137662   5.932   7.065  12.871
78610SOL    HW237663   5.855   7.153  12.967
78611SOL     OW37664   2.099   1.247   1.369
78611SOL    HW137665   2.087   1.166   1.320
78611SOL    HW237666   2.110   1.314   1.302
78612SOL     OW37667   5.921  12.973  12.564
78612SOL    HW137668   5.963  12.906  12.618
78612SOL    HW237669   5.993  13.018  12.520
78613SOL     OW37670  14.240  14.272   5.979
78613SOL    HW137671  14.294  14.301   5.905
78613SOL    HW237672  14.285  14.195   6.013
78614SOL     OW37673  13.427   1.773  12.054
78614SOL    HW137674  13.450   1.862  12.029
78614SOL    HW237675  13.421   1.775  12.149
78615SOL     OW37676   3.375   7.975  12.274
78615SOL    HW137677   3.335   7.897  12.236
78615SOL    HW237678   3.469   7.957  12.274
78616SOL     OW37679   7.709   3.146   4.217
78616SOL    HW137680   7.625   3.102   4.232
78616SOL    HW237681   7.736   3.175   4.304
78617SOL     OW37682  10.176   8.119   7.597
78617SOL    HW137683  10.211   8.096   7.683
78617SOL    HW237684  10.087   8.150   7.615
78618SOL     OW37685   9.347  13.824   1.731
78618SOL    HW137686   9.410  13.779   1.787
78618SOL    HW237687   9.314  13.756   1.672
78619SOL     OW37688   2.029   8.344   8.972
78619SOL    HW137689   2.056   8.303   9.054
78619SOL    HW237690   2.109   8.382   8.936
78620SOL     OW37691   0.375   6.366   9.701
78620SOL    HW137692   0.432   6.432   9.663
78620SOL    HW237693   0.435   6.301   9.738
78621SOL     OW37694   0.960   0.128  14.810
78621SOL    HW137695   1.013   0.166  14.740
78621SOL    HW237696   0.994   0.039  14.821
78622SOL     OW37697   0.612  14.697   7.604
78622SOL    HW137698   0.580  14.608   7.617
78622SOL    HW237699   0.633  14.728   7.693
78623SOL     OW37700  11.067   4.573  11.257
78623SOL    HW137701  11.101   4.484  11.268
78623SOL    HW237702  11.139   4.629  11.284
78624SOL     OW37703  14.220  11.460   1.578
78624SOL    HW137704  14.257  11.396   1.639
78624SOL    HW237705  14.206  11.411   1.497
78625SOL     OW37706   7.999   8.543   2.075
78625SOL    HW137707   8.030   8.633   2.062
78625SOL    HW237708   8.068   8.501   2.127
78626SOL     OW37709   0.433   6.440  11.799
78626SOL    HW137710   0.417   6.364  11.743
78626SOL    HW237711   0.527   6.452  11.796
78627SOL     OW37712   6.801   1.646   4.270
78627SOL    HW137713   6.781   1.736   4.244
78627SOL    HW237714   6.834   1.605   4.190
78628SOL     OW37715   7.639   0.240   8.877
78628SOL    HW137716   7.594   0.296   8.939
78628SOL    HW237717   7.732   0.254   8.896
78629SOL     OW37718   1.138   8.920  14.484
78629SOL    HW137719   1.077   8.872  14.428
78629SOL    HW237720   1.115   9.012  14.471
78630SOL     OW37721  13.798  12.640  10.370
78630SOL    HW137722  13.708  12.617  10.346
78630SOL    HW237723  13.848  12.630  10.288
78631SOL     OW37724  11.734   1.519   3.219
78631SOL    HW137725  11.743   1.562   3.134
78631SOL    HW237726  11.781   1.576   3.280
78632SOL     OW37727  11.621   9.072  14.230
78632SOL    HW137728  11.594   9.114  14.148
78632SOL    HW237729  11.539   9.038  14.268
78633SOL     OW37730   5.539   1.273   9.269
78633SOL    HW137731   5.514   1.316   9.351
78633SOL    HW237732   5.622   1.229   9.289
78634SOL     OW37733  13.048   8.493  14.001
78634SOL    HW137734  13.093   8.415  14.032
78634SOL    HW237735  13.047   8.552  14.077
78635SOL     OW37736  10.268  12.930   4.218
78635SOL    HW137737  10.360  12.959   4.214
78635SOL    HW237738  10.272  12.844   4.260
78636SOL     OW37739   7.540  10.488   2.674
78636SOL    HW137740   7.565  10.397   2.661
78636SOL    HW237741   7.473  10.505   2.607
78637SOL     OW37742   2.693   1.672   0.013
78637SOL    HW137743   2.733   1.730  14.829
78637SOL    HW237744   2.654   1.732   0.076
78638SOL     OW37745   8.448   6.785   8.705
78638SOL    HW137746   8.390   6.861   8.700
78638SOL    HW237747   8.438   6.741   8.621
78639SOL     OW37748   5.954   5.761   1.750
78639SOL    HW137749   5.905   5.731   1.827
78639SOL    HW237750   5.893   5.754   1.677
78640SOL     OW37751  10.704   1.675  12.866
78640SOL    HW137752  10.616   1.698  12.897
78640SOL    HW237753  10.691   1.648  12.775
78641SOL     OW37754   9.219  12.165   9.485
78641SOL    HW137755   9.171  12.137   9.407
78641SOL    HW237756   9.152  12.172   9.553
78642SOL     OW37757   1.582   7.234   2.993
78642SOL    HW137758   1.495   7.205   3.021
78642SOL    HW237759   1.606   7.302   3.056
78643SOL     OW37760   3.093  12.648   5.286
78643SOL    HW137761   3.118  12.657   5.379
78643SOL    HW237762   3.113  12.557   5.264
78644SOL     OW37763   1.073   9.370   5.638
78644SOL    HW137764   0.996   9.320   5.610
78644SOL    HW237765   1.140   9.348   5.573
78645SOL     OW37766   4.609   8.790   3.139
78645SOL    HW137767   4.681   8.795   3.202
78645SOL    HW237768   4.651   8.802   3.054
78646SOL     OW37769  11.900   5.307  10.173
78646SOL    HW137770  11.894   5.399  10.150
78646SOL    HW237771  11.810   5.280  10.190
78647SOL     OW37772   7.431   2.673  10.805
78647SOL    HW137773   7.489   2.699  10.877
78647SOL    HW237774   7.374   2.606  10.843
78648SOL     OW37775  13.923  11.121  11.091
78648SOL    HW137776  13.957  11.131  11.003
78648SOL    HW237777  13.831  11.097  11.079
78649SOL     OW37778  14.454   6.749  10.882
78649SOL    HW137779  14.474   6.822  10.824
78649SOL    HW237780  14.467   6.671  10.827
78650SOL     OW37781   6.084   3.897   8.005
78650SOL    HW137782   6.034   3.961   7.955
78650SOL    HW237783   6.095   3.937   8.091
78651SOL     OW37784   4.155   9.713  10.214
78651SOL    HW137785   4.164   9.657  10.136
78651SOL    HW237786   4.239   9.706  10.258
78652SOL     OW37787   0.871   7.657   0.336
78652SOL    HW137788   0.902   7.724   0.397
78652SOL    HW237789   0.891   7.691   0.249
78653SOL     OW37790   5.833   6.031   6.334
78653SOL    HW137791   5.864   5.943   6.311
78653SOL    HW237792   5.818   6.027   6.428
78654SOL     OW37793   9.811   6.850   0.975
78654SOL    HW137794   9.723   6.851   1.012
78654SOL    HW237795   9.864   6.901   1.037
78655SOL     OW37796  10.659   8.230   3.460
78655SOL    HW137797  10.674   8.323   3.444
78655SOL    HW237798  10.741   8.188   3.436
78656SOL     OW37799   5.516   1.925   3.548
78656SOL    HW137800   5.494   1.887   3.463
78656SOL    HW237801   5.491   1.858   3.612
78657SOL     OW37802   4.721   4.757   4.867
78657SOL    HW137803   4.742   4.741   4.775
78657SOL    HW237804   4.681   4.845   4.868
78658SOL     OW37805   3.332   9.339   4.984
78658SOL    HW137806   3.347   9.291   4.902
78658SOL    HW237807   3.295   9.423   4.957
78659SOL     OW37808   9.391   4.238  11.494
78659SOL    HW137809   9.399   4.191  11.411
78659SOL    HW237810   9.382   4.170  11.560
78660SOL     OW37811  12.134  14.376   3.691
78660SOL    HW137812  12.167  14.291   3.662
78660SOL    HW237813  12.094  14.414   3.613
78661SOL     OW37814  14.802   3.865   3.617
78661SOL    HW137815  14.827   3.941   3.564
78661SOL    HW237816  14.815   3.894   3.707
78662SOL     OW37817   7.205   5.841   1.921
78662SOL    HW137818   7.116   5.873   1.930
78662SOL    HW237819   7.256   5.894   1.983
78663SOL     OW37820  13.078  12.904   0.218
78663SOL    HW137821  12.987  12.924   0.192
78663SOL    HW237822  13.076  12.811   0.239
78664SOL     OW37823  12.208   7.639   5.977
78664SOL    HW137824  12.141   7.707   5.974
78664SOL    HW237825  12.282   7.676   5.929
78665SOL     OW37826  13.011  14.788   4.283
78665SOL    HW137827  12.959  14.835   4.217
78665SOL    HW237828  13.043  14.857   4.341
78666SOL     OW37829   0.318   6.155   4.649
78666SOL    HW137830   0.408   6.129   4.630
78666SOL    HW237831   0.318   6.250   4.641
78667SOL     OW37832   5.262   5.449   3.844
78667SOL    HW137833   5.286   5.518   3.783
78667SOL    HW237834   5.202   5.490   3.906
78668SOL     OW37835   6.177   2.743   9.473
78668SOL    HW137836   6.201   2.809   9.538
78668SOL    HW237837   6.261   2.718   9.433
78669SOL     OW37838   9.351   7.360  10.571
78669SOL    HW137839   9.304   7.414  10.508
78669SOL    HW237840   9.308   7.274  10.565
78670SOL     OW37841  12.321   1.522   9.786
78670SOL    HW137842  12.263   1.554   9.717
78670SOL    HW237843  12.370   1.599   9.815
78671SOL     OW37844   3.217   8.204   1.731
78671SOL    HW137845   3.150   8.266   1.760
78671SOL    HW237846   3.203   8.126   1.784
78672SOL     OW37847  11.108   0.499   1.563
78672SOL    HW137848  11.170   0.432   1.592
78672SOL    HW237849  11.038   0.450   1.519
78673SOL     OW37850   9.291   5.548   2.977
78673SOL    HW137851   9.204   5.556   3.017
78673SOL    HW237852   9.340   5.623   3.011
78674SOL     OW37853   3.884  13.119   6.856
78674SOL    HW137854   3.835  13.201   6.848
78674SOL    HW237855   3.893  13.086   6.767
78675SOL     OW37856  13.357  10.720  14.811
78675SOL    HW137857  13.332  10.659  14.881
78675SOL    HW237858  13.436  10.763  14.844
78676SOL     OW37859   2.861  11.890  10.568
78676SOL    HW137860   2.889  11.981  10.560
78676SOL    HW237861   2.930  11.840  10.524
78677SOL     OW37862   5.649   2.837   5.270
78677SOL    HW137863   5.710   2.893   5.220
78677SOL    HW237864   5.685   2.749   5.262
78678SOL     OW37865  11.740   7.810   5.241
78678SOL    HW137866  11.732   7.736   5.182
78678SOL    HW237867  11.800   7.870   5.197
78679SOL     OW37868  13.616   3.801  13.638
78679SOL    HW137869  13.550   3.803  13.707
78679SOL    HW237870  13.700   3.798  13.685
78680SOL     OW37871   9.537   1.336   6.293
78680SOL    HW137872   9.567   1.257   6.338
78680SOL    HW237873   9.511   1.306   6.206
78681SOL     OW37874  14.167   7.495  10.638
78681SOL    HW137875  14.080   7.472  10.672
78681SOL    HW237876  14.212   7.535  10.712
78682SOL     OW37877   5.749   3.347   1.804
78682SOL    HW137878   5.799   3.339   1.886
78682SOL    HW237879   5.660   3.365   1.832
78683SOL     OW37880   2.909   7.071  14.316
78683SOL    HW137881   2.884   7.121  14.394
78683SOL    HW237882   2.915   7.136  14.246
78684SOL     OW37883   0.147  14.296  11.010
78684SOL    HW137884   0.076  14.274  10.949
78684SOL    HW237885   0.145  14.227  11.075
78685SOL     OW37886   9.282  11.502   6.876
78685SOL    HW137887   9.220  11.432   6.855
78685SOL    HW237888   9.233  11.583   6.862
78686SOL     OW37889   3.057  13.149  14.640
78686SOL    HW137890   2.996  13.182  14.705
78686SOL    HW237891   3.013  13.162  14.556
78687SOL     OW37892  12.536   6.628   4.726
78687SOL    HW137893  12.498   6.709   4.762
78687SOL    HW237894  12.611   6.658   4.675
78688SOL     OW37895   5.070  13.579   4.563
78688SOL    HW137896   5.049  13.491   4.532
78688SOL    HW237897   5.136  13.611   4.503
78689SOL     OW37898   0.333   1.811   5.529
78689SOL    HW137899   0.419   1.825   5.491
78689SOL    HW237900   0.337   1.723   5.567
78690SOL     OW37901  14.667  14.703   4.541
78690SOL    HW137902  14.606  14.775   4.559
78690SOL    HW237903  14.722  14.698   4.619
78691SOL     OW37904  11.755  10.927   5.593
78691SOL    HW137905  11.660  10.935   5.585
78691SOL    HW237906  11.780  11.004   5.645
78692SOL     OW37907  12.254  11.483   4.129
78692SOL    HW137908  12.262  11.575   4.153
78692SOL    HW237909  12.299  11.436   4.199
78693SOL     OW37910   0.706  14.329   4.485
78693SOL    HW137911   0.772  14.363   4.424
78693SOL    HW237912   0.698  14.397   4.552
78694SOL     OW37913  10.533   8.685   2.841
78694SOL    HW137914  10.534   8.664   2.935
78694SOL    HW237915  10.622   8.665   2.812
78695SOL     OW37916   6.055  13.314  13.559
78695SOL    HW137917   6.057  13.255  13.634
78695SOL    HW237918   6.146  13.345  13.551
78696SOL     OW37919   7.579   6.171  11.474
78696SOL    HW137920   7.639   6.194  11.403
78696SOL    HW237921   7.635   6.168  11.552
78697SOL     OW37922   6.633  14.468   6.808
78697SOL    HW137923   6.652  14.535   6.742
78697SOL    HW237924   6.659  14.508   6.891
78698SOL     OW37925  10.579   2.976   8.866
78698SOL    HW137926  10.518   3.002   8.796
78698SOL    HW237927  10.531   2.910   8.916
78699SOL     OW37928   1.323   1.829   2.951
78699SOL    HW137929   1.404   1.778   2.956
78699SOL    HW237930   1.253   1.763   2.953
78700SOL     OW37931   0.040   6.441   0.257
78700SOL    HW137932   0.085   6.376   0.312
78700SOL    HW237933   0.086   6.437   0.173
78701SOL     OW37934  14.335  12.081   0.173
78701SOL    HW137935  14.267  12.092   0.239
78701SOL    HW237936  14.341  11.986   0.160
78702SOL     OW37937  14.102  13.764   5.493
78702SOL    HW137938  14.007  13.768   5.480
78702SOL    HW237939  14.127  13.678   5.460
78703SOL     OW37940   1.655   8.343   8.666
78703SOL    HW137941   1.609   8.402   8.606
78703SOL    HW237942   1.698   8.401   8.729
78704SOL     OW37943  14.732   1.142   8.926
78704SOL    HW137944  14.732   1.046   8.922
78704SOL    HW237945  14.714   1.169   8.836
78705SOL     OW37946   4.118  12.759   2.174
78705SOL    HW137947   4.083  12.786   2.259
78705SOL    HW237948   4.213  12.766   2.183
78706SOL     OW37949   8.646   8.638   5.069
78706SOL    HW137950   8.556   8.660   5.094
78706SOL    HW237951   8.660   8.684   4.986
78707SOL     OW37952  10.182   5.345   4.609
78707SOL    HW137953  10.160   5.274   4.549
78707SOL    HW237954  10.100   5.392   4.623
78708SOL     OW37955  14.507   9.995   9.572
78708SOL    HW137956  14.449   9.935   9.526
78708SOL    HW237957  14.522   9.953   9.657
78709SOL     OW37958   2.606   2.150  14.276
78709SOL    HW137959   2.525   2.198  14.293
78709SOL    HW237960   2.628   2.173  14.186
78710SOL     OW37961   2.340   1.761   1.583
78710SOL    HW137962   2.385   1.681   1.555
78710SOL    HW237963   2.383   1.785   1.666
78711SOL     OW37964   3.293   0.223  11.304
78711SOL    HW137965   3.335   0.179  11.230
78711SOL    HW237966   3.317   0.315  11.294
78712SOL     OW37967   6.542   8.981   4.460
78712SOL    HW137968   6.573   8.987   4.369
78712SOL    HW237969   6.447   8.986   4.452
78713SOL     OW37970   7.781   3.320  13.189
78713SOL    HW137971   7.699   3.314  13.237
78713SOL    HW237972   7.823   3.235  13.204
78714SOL     OW37973   3.571   1.677  14.716
78714SOL    HW137974   3.657   1.641  14.737
78714SOL    HW237975   3.544   1.632  14.637
78715SOL     OW37976   3.878   3.129  13.050
78715SOL    HW137977   3.855   3.036  13.039
78715SOL    HW237978   3.817   3.175  12.992
78716SOL     OW37979   6.267   9.402   3.457
78716SOL    HW137980   6.334   9.374   3.519
78716SOL    HW237981   6.294   9.490   3.430
78717SOL     OW37982  14.141   8.271   9.086
78717SOL    HW137983  14.174   8.283   9.175
78717SOL    HW237984  14.168   8.182   9.063
78718SOL     OW37985  10.374   9.562   2.222
78718SOL    HW137986  10.352   9.614   2.300
78718SOL    HW237987  10.298   9.507   2.207
78719SOL     OW37988   5.207  11.488   1.480
78719SOL    HW137989   5.189  11.397   1.503
78719SOL    HW237990   5.206  11.534   1.564
78720SOL     OW37991   2.956   8.937   7.728
78720SOL    HW137992   2.961   8.863   7.667
78720SOL    HW237993   2.898   8.908   7.797
78721SOL     OW37994   9.211   2.355  14.266
78721SOL    HW137995   9.206   2.355  14.171
78721SOL    HW237996   9.287   2.409  14.286
78722SOL     OW37997   6.910  14.556   8.570
78722SOL    HW137998   7.000  14.582   8.548
78722SOL    HW237999   6.867  14.638   8.594
78723SOL     OW38000   1.801  10.733  12.316
78723SOL    HW138001   1.780  10.813  12.363
78723SOL    HW238002   1.890  10.745  12.285
78724SOL     OW38003   4.687   9.768   7.045
78724SOL    HW138004   4.659   9.860   7.042
78724SOL    HW238005   4.682   9.745   7.138
78725SOL     OW38006   7.551  11.108  13.847
78725SOL    HW138007   7.567  11.121  13.754
78725SOL    HW238008   7.587  11.186  13.889
78726SOL     OW38009   7.542   8.602   8.396
78726SOL    HW138010   7.452   8.634   8.388
78726SOL    HW238011   7.595   8.681   8.400
78727SOL     OW38012  13.393   7.747  13.642
78727SOL    HW138013  13.349   7.676  13.595
78727SOL    HW238014  13.328   7.779  13.704
78728SOL     OW38015   6.182  11.017   6.834
78728SOL    HW138016   6.194  11.027   6.739
78728SOL    HW238017   6.271  11.022   6.870
78729SOL     OW38018   2.809   8.015  13.339
78729SOL    HW138019   2.766   8.016  13.253
78729SOL    HW238020   2.884   8.073  13.328
78730SOL     OW38021  10.525  14.590   0.034
78730SOL    HW138022  10.593  14.610  14.851
78730SOL    HW238023  10.459  14.658   0.021
78731SOL     OW38024  13.845   0.607   5.724
78731SOL    HW138025  13.832   0.586   5.631
78731SOL    HW238026  13.756   0.618   5.759
78732SOL     OW38027   8.755   5.671  11.440
78732SOL    HW138028   8.842   5.632  11.451
78732SOL    HW238029   8.696   5.597  11.430
78733SOL     OW38030   9.582   7.915  11.629
78733SOL    HW138031   9.588   8.001  11.671
78733SOL    HW238032   9.507   7.873  11.670
78734SOL     OW38033  12.605  10.796   6.096
78734SOL    HW138034  12.531  10.852   6.122
78734SOL    HW238035  12.585  10.711   6.137
78735SOL     OW38036   2.022   0.757   6.157
78735SOL    HW138037   2.104   0.712   6.137
78735SOL    HW238038   2.025   0.773   6.251
78736SOL     OW38039   0.974   6.045   8.916
78736SOL    HW138040   1.037   6.003   8.975
78736SOL    HW238041   1.024   6.062   8.836
78737SOL     OW38042   2.863   2.814   5.953
78737SOL    HW138043   2.872   2.871   6.029
78737SOL    HW238044   2.952   2.803   5.921
78738SOL     OW38045  14.609   2.979  11.866
78738SOL    HW138046  14.622   3.041  11.795
78738SOL    HW238047  14.666   2.905  11.846
78739SOL     OW38048   2.617   5.413   8.214
78739SOL    HW138049   2.602   5.385   8.124
78739SOL    HW238050   2.713   5.417   8.222
78740SOL     OW38051   4.747   8.264  12.279
78740SOL    HW138052   4.834   8.225  12.287
78740SOL    HW238053   4.737   8.318  12.357
78741SOL     OW38054   9.021   4.739  11.757
78741SOL    HW138055   9.101   4.698  11.722
78741SOL    HW238056   8.971   4.762  11.679
78742SOL     OW38057   3.120   0.348  11.767
78742SOL    HW138058   3.060   0.314  11.834
78742SOL    HW238059   3.199   0.294  11.775
78743SOL     OW38060   7.270  13.448   8.095
78743SOL    HW138061   7.313  13.513   8.039
78743SOL    HW238062   7.338  13.384   8.114
78744SOL     OW38063  12.962  11.651   1.643
78744SOL    HW138064  12.955  11.637   1.737
78744SOL    HW238065  12.922  11.737   1.628
78745SOL     OW38066   4.456   8.212  10.396
78745SOL    HW138067   4.378   8.256  10.430
78745SOL    HW238068   4.525   8.236  10.457
78746SOL     OW38069  11.187   6.858   6.810
78746SOL    HW138070  11.181   6.765   6.831
78746SOL    HW238071  11.163   6.903   6.891
78747SOL     OW38072  13.982   3.877  13.969
78747SOL    HW138073  13.975   3.971  13.984
78747SOL    HW238074  14.075   3.863  13.951
78748SOL     OW38075  12.430   6.948   7.174
78748SOL    HW138076  12.385   6.867   7.146
78748SOL    HW238077  12.428   6.944   7.269
78749SOL     OW38078   8.577   5.411   8.066
78749SOL    HW138079   8.508   5.441   8.124
78749SOL    HW238080   8.591   5.484   8.005
78750SOL     OW38081   9.022   0.982   4.177
78750SOL    HW138082   9.079   0.915   4.216
78750SOL    HW238083   8.969   0.934   4.113
78751SOL     OW38084   0.987  14.449   4.097
78751SOL    HW138085   0.958  14.532   4.135
78751SOL    HW238086   1.083  14.452   4.105
78752SOL     OW38087   9.679   6.881   8.348
78752SOL    HW138088   9.694   6.908   8.438
78752SOL    HW238089   9.734   6.940   8.296
78753SOL     OW38090   3.861  14.436  14.252
78753SOL    HW138091   3.788  14.381  14.282
78753SOL    HW238092   3.823  14.490  14.183
78754SOL     OW38093  10.714   2.039  10.561
78754SOL    HW138094  10.774   2.053  10.488
78754SOL    HW238095  10.627   2.038  10.521
78755SOL     OW38096   4.222  11.282  11.870
78755SOL    HW138097   4.302  11.327  11.898
78755SOL    HW238098   4.223  11.289  11.775
78756SOL     OW38099  13.921  12.525   6.664
78756SOL    HW138100  13.988  12.579   6.622
78756SOL    HW238101  13.845  12.533   6.607
78757SOL     OW38102  10.988  14.832   9.371
78757SOL    HW138103  10.914  14.850   9.313
78757SOL    HW238104  11.044  14.773   9.321
78758SOL     OW38105   2.881   6.649   2.099
78758SOL    HW138106   2.820   6.723   2.096
78758SOL    HW238107   2.825   6.571   2.101
78759SOL     OW38108  14.859  10.309   1.861
78759SOL    HW138109   0.023  10.387   1.829
78759SOL    HW238110  14.790  10.294   1.796
78760SOL     OW38111   9.259  10.244   6.539
78760SOL    HW138112   9.279  10.321   6.592
78760SOL    HW238113   9.163  10.246   6.530
78761SOL     OW38114   8.986   3.265  14.105
78761SOL    HW138115   9.026   3.230  14.025
78761SOL    HW238116   9.022   3.353  14.114
78762SOL     OW38117   0.272   5.286   0.043
78762SOL    HW138118   0.190   5.335   0.036
78762SOL    HW238119   0.300   5.299   0.134
78763SOL     OW38120  10.831   0.667  10.912
78763SOL    HW138121  10.778   0.677  10.833
78763SOL    HW238122  10.887   0.592  10.894
78764SOL     OW38123   0.045   0.961   1.663
78764SOL    HW138124  14.848   0.974   1.716
78764SOL    HW238125   0.118   0.970   1.724
78765SOL     OW38126   9.418  10.377   2.249
78765SOL    HW138127   9.423  10.403   2.341
78765SOL    HW238128   9.442  10.284   2.249
78766SOL     OW38129   8.058  12.370  11.894
78766SOL    HW138130   8.045  12.464  11.891
78766SOL    HW238131   8.131  12.357  11.955
78767SOL     OW38132   3.740  14.640   8.465
78767SOL    HW138133   3.801  14.693   8.414
78767SOL    HW238134   3.750  14.672   8.555
78768SOL     OW38135  11.282  14.514   4.725
78768SOL    HW138136  11.342  14.584   4.699
78768SOL    HW238137  11.338  14.445   4.760
78769SOL     OW38138   8.789   4.423   4.111
78769SOL    HW138139   8.841   4.352   4.149
78769SOL    HW238140   8.845   4.501   4.122
78770SOL     OW38141   6.403   0.945   7.005
78770SOL    HW138142   6.491   0.915   6.981
78770SOL    HW238143   6.355   0.865   7.025
78771SOL     OW38144   1.274   0.947  10.929
78771SOL    HW138145   1.255   0.983  11.016
78771SOL    HW238146   1.288   0.853  10.944
78772SOL     OW38147  10.964   0.880   7.959
78772SOL    HW138148  10.956   0.806   8.019
78772SOL    HW238149  10.963   0.957   8.015
78773SOL     OW38150   8.231   5.491   0.874
78773SOL    HW138151   8.308   5.496   0.931
78773SOL    HW238152   8.267   5.478   0.786
78774SOL     OW38153  14.101   6.081   8.970
78774SOL    HW138154  14.035   6.111   8.908
78774SOL    HW238155  14.174   6.141   8.959
78775SOL     OW38156   2.814   2.127  11.972
78775SOL    HW138157   2.791   2.087  11.889
78775SOL    HW238158   2.742   2.103  12.031
78776SOL     OW38159  13.234  13.406   5.367
78776SOL    HW138160  13.283  13.330   5.336
78776SOL    HW238161  13.266  13.421   5.456
78777SOL     OW38162  10.607   0.048   1.220
78777SOL    HW138163  10.566  14.849   1.252
78777SOL    HW238164  10.544   0.083   1.157
78778SOL     OW38165  13.178   0.844   4.273
78778SOL    HW138166  13.220   0.890   4.200
78778SOL    HW238167  13.088   0.877   4.274
78779SOL     OW38168   4.278  10.175   9.337
78779SOL    HW138169   4.197  10.213   9.371
78779SOL    HW238170   4.278  10.197   9.244
78780SOL     OW38171   2.601  10.060  13.139
78780SOL    HW138172   2.541  10.046  13.066
78780SOL    HW238173   2.685  10.028  13.107
78781SOL     OW38174   8.237   8.656   0.314
78781SOL    HW138175   8.246   8.703   0.397
78781SOL    HW238176   8.318   8.676   0.266
78782SOL     OW38177  11.584   4.392   3.686
78782SOL    HW138178  11.538   4.473   3.707
78782SOL    HW238179  11.521   4.323   3.707
78783SOL     OW38180  13.196   3.892  12.041
78783SOL    HW138181  13.181   3.959  11.974
78783SOL    HW238182  13.114   3.888  12.090
78784SOL     OW38183   0.679   2.319   7.907
78784SOL    HW138184   0.620   2.256   7.949
78784SOL    HW238185   0.757   2.267   7.885
78785SOL     OW38186  11.126  10.387  14.522
78785SOL    HW138187  11.114  10.323  14.592
78785SOL    HW238188  11.205  10.357  14.476
78786SOL     OW38189   9.666   3.398   8.678
78786SOL    HW138190   9.644   3.471   8.619
78786SOL    HW238191   9.672   3.322   8.620
78787SOL     OW38192  12.141  10.545   1.967
78787SOL    HW138193  12.082  10.615   1.939
78787SOL    HW238194  12.210  10.544   1.901
78788SOL     OW38195   8.585   5.995   8.542
78788SOL    HW138196   8.614   5.976   8.631
78788SOL    HW238197   8.499   5.955   8.535
78789SOL     OW38198   0.263   4.330   4.834
78789SOL    HW138199   0.345   4.304   4.874
78789SOL    HW238200   0.211   4.250   4.830
78790SOL     OW38201   6.403   5.021   7.231
78790SOL    HW138202   6.407   4.935   7.273
78790SOL    HW238203   6.343   5.072   7.286
78791SOL     OW38204   9.768   2.016   6.621
78791SOL    HW138205   9.835   1.949   6.636
78791SOL    HW238206   9.813   2.098   6.642
78792SOL     OW38207   7.322  10.820  13.881
78792SOL    HW138208   7.410  10.816  13.845
78792SOL    HW238209   7.312  10.910  13.911
78793SOL     OW38210   1.279  13.020   5.410
78793SOL    HW138211   1.325  13.103   5.396
78793SOL    HW238212   1.349  12.955   5.415
78794SOL     OW38213   1.774  10.620  11.182
78794SOL    HW138214   1.740  10.709  11.190
78794SOL    HW238215   1.749  10.593  11.093
78795SOL     OW38216  12.546  13.654   3.283
78795SOL    HW138217  12.538  13.560   3.266
78795SOL    HW238218  12.569  13.692   3.198
78796SOL     OW38219   2.221   7.741  12.859
78796SOL    HW138220   2.215   7.647  12.843
78796SOL    HW238221   2.228   7.780  12.771
78797SOL     OW38222   6.624   5.136   3.864
78797SOL    HW138223   6.665   5.067   3.811
78797SOL    HW238224   6.629   5.103   3.954
78798SOL     OW38225   8.313   2.802   4.405
78798SOL    HW138226   8.337   2.750   4.328
78798SOL    HW238227   8.222   2.777   4.423
78799SOL     OW38228   4.987  12.017   4.443
78799SOL    HW138229   4.987  12.098   4.494
78799SOL    HW238230   4.906  12.020   4.393
78800SOL     OW38231   9.622  13.355   3.068
78800SOL    HW138232   9.636  13.364   3.162
78800SOL    HW238233   9.672  13.278   3.043
78801SOL     OW38234   7.814  14.628   6.275
78801SOL    HW138235   7.870  14.558   6.310
78801SOL    HW238236   7.852  14.648   6.190
78802SOL     OW38237   5.622   4.719   2.757
78802SOL    HW138238   5.544   4.702   2.704
78802SOL    HW238239   5.670   4.785   2.709
78803SOL     OW38240   4.047   5.943   6.019
78803SOL    HW138241   4.003   6.008   5.963
78803SOL    HW238242   4.134   5.935   5.981
78804SOL     OW38243  14.136   4.205   6.725
78804SOL    HW138244  14.065   4.263   6.752
78804SOL    HW238245  14.197   4.205   6.799
78805SOL     OW38246  13.945   8.684  13.110
78805SOL    HW138247  13.994   8.750  13.060
78805SOL    HW238248  13.888   8.643  13.045
78806SOL     OW38249   2.366   1.158  12.070
78806SOL    HW138250   2.318   1.076  12.070
78806SOL    HW238251   2.414   1.157  11.987
78807SOL     OW38252   1.485  13.086   6.424
78807SOL    HW138253   1.406  13.105   6.373
78807SOL    HW238254   1.551  13.147   6.391
78808SOL     OW38255   0.757   2.466  14.491
78808SOL    HW138256   0.817   2.537  14.468
78808SOL    HW238257   0.714   2.444  14.408
78809SOL     OW38258   4.503   0.062  13.110
78809SOL    HW138259   4.596   0.051  13.132
78809SOL    HW238260   4.503   0.120  13.035
78810SOL     OW38261   2.619   1.410  10.013
78810SOL    HW138262   2.633   1.503   9.998
78810SOL    HW238263   2.554   1.406  10.084
78811SOL     OW38264   4.052  10.131  10.930
78811SOL    HW138265   4.058  10.199  10.863
78811SOL    HW238266   4.032  10.051  10.883
78812SOL     OW38267   6.214   7.170   3.897
78812SOL    HW138268   6.195   7.077   3.911
78812SOL    HW238269   6.129   7.210   3.879
78813SOL     OW38270   0.374  13.863   8.098
78813SOL    HW138271   0.331  13.928   8.042
78813SOL    HW238272   0.458  13.846   8.055
78814SOL     OW38273   6.584   0.978  13.652
78814SOL    HW138274   6.647   0.970  13.581
78814SOL    HW238275   6.542   0.892  13.657
78815SOL     OW38276   6.414  14.724   1.527
78815SOL    HW138277   6.498  14.755   1.494
78815SOL    HW238278   6.383  14.662   1.461
78816SOL     OW38279   5.051   8.315   0.620
78816SOL    HW138280   4.981   8.269   0.665
78816SOL    HW238281   5.105   8.245   0.581
78817SOL     OW38282  13.403   6.536   3.120
78817SOL    HW138283  13.437   6.606   3.064
78817SOL    HW238284  13.309   6.552   3.125
78818SOL     OW38285   4.885   4.994  10.212
78818SOL    HW138286   4.932   4.916  10.182
78818SOL    HW238287   4.812   5.002  10.152
78819SOL     OW38288  10.790  11.994  12.629
78819SOL    HW138289  10.761  12.084  12.619
78819SOL    HW238290  10.716  11.941  12.600
78820SOL     OW38291   7.803  11.850  13.741
78820SOL    HW138292   7.733  11.914  13.756
78820SOL    HW238293   7.869  11.897  13.690
78821SOL     OW38294  14.831   8.570   4.269
78821SOL    HW138295  14.844   8.499   4.207
78821SOL    HW238296  14.737   8.587   4.267
78822SOL     OW38297  11.734  14.710   9.329
78822SOL    HW138298  11.773  14.772   9.390
78822SOL    HW238299  11.667  14.665   9.380
78823SOL     OW38300   5.767   8.922   3.239
78823SOL    HW138301   5.725   8.887   3.160
78823SOL    HW238302   5.845   8.868   3.250
78824SOL     OW38303   5.591   7.938  12.434
78824SOL    HW138304   5.641   7.857  12.444
78824SOL    HW238305   5.561   7.937  12.343
78825SOL     OW38306  10.419   0.925   9.636
78825SOL    HW138307  10.342   0.882   9.673
78825SOL    HW238308  10.398   0.936   9.543
78826SOL     OW38309   4.522   5.030   5.797
78826SOL    HW138310   4.506   5.121   5.773
78826SOL    HW238311   4.528   4.983   5.714
78827SOL     OW38312   4.882  14.353   6.985
78827SOL    HW138313   4.954  14.385   6.930
78827SOL    HW238314   4.877  14.260   6.965
78828SOL     OW38315   3.989   1.272   6.845
78828SOL    HW138316   3.927   1.239   6.779
78828SOL    HW238317   4.033   1.345   6.802
78829SOL     OW38318   8.185   9.544   2.127
78829SOL    HW138319   8.172   9.571   2.036
78829SOL    HW238320   8.123   9.472   2.140
78830SOL     OW38321   2.172   2.415   0.944
78830SOL    HW138322   2.136   2.364   1.017
78830SOL    HW238323   2.153   2.362   0.866
78831SOL     OW38324   7.265   2.573   9.748
78831SOL    HW138325   7.317   2.535   9.677
78831SOL    HW238326   7.221   2.498   9.789
78832SOL     OW38327   0.581   8.242  11.100
78832SOL    HW138328   0.642   8.310  11.127
78832SOL    HW238329   0.602   8.226  11.008
78833SOL     OW38330   9.581  11.011   1.882
78833SOL    HW138331   9.518  11.012   1.810
78833SOL    HW238332   9.659  11.052   1.846
78834SOL     OW38333  10.311  12.024  11.232
78834SOL    HW138334  10.228  12.029  11.280
78834SOL    HW238335  10.326  11.931  11.218
78835SOL     OW38336  12.180  10.546   9.876
78835SOL    HW138337  12.086  10.559   9.867
78835SOL    HW238338  12.191  10.451   9.876
78836SOL     OW38339   9.125  10.122   5.373
78836SOL    HW138340   9.096  10.120   5.282
78836SOL    HW238341   9.061  10.070   5.421
78837SOL     OW38342   8.044  14.344  13.104
78837SOL    HW138343   8.047  14.262  13.053
78837SOL    HW238344   8.113  14.334  13.169
78838SOL     OW38345  10.511  11.025   9.477
78838SOL    HW138346  10.427  11.019   9.524
78838SOL    HW238347  10.532  11.118   9.479
78839SOL     OW38348  14.497  13.435   1.755
78839SOL    HW138349  14.476  13.505   1.817
78839SOL    HW238350  14.412  13.397   1.734
78840SOL     OW38351   8.169   2.505   4.207
78840SOL    HW138352   8.189   2.448   4.132
78840SOL    HW238353   8.144   2.445   4.277
78841SOL     OW38354   4.385   7.251  10.287
78841SOL    HW138355   4.388   7.347  10.294
78841SOL    HW238356   4.352   7.222  10.372
78842SOL     OW38357  13.507   9.431   6.537
78842SOL    HW138358  13.480   9.456   6.448
78842SOL    HW238359  13.504   9.513   6.587
78843SOL     OW38360   8.409   5.784   4.152
78843SOL    HW138361   8.469   5.856   4.168
78843SOL    HW238362   8.466   5.713   4.121
78844SOL     OW38363   3.003  10.554   6.538
78844SOL    HW138364   2.915  10.517   6.537
78844SOL    HW238365   3.015  10.585   6.628
78845SOL     OW38366   9.597   7.181   7.214
78845SOL    HW138367   9.567   7.131   7.289
78845SOL    HW238368   9.536   7.159   7.144
78846SOL     OW38369   9.339   7.434   2.157
78846SOL    HW138370   9.334   7.525   2.127
78846SOL    HW238371   9.274   7.388   2.104
78847SOL     OW38372  10.871   8.832   2.526
78847SOL    HW138373  10.894   8.924   2.535
78847SOL    HW238374  10.937   8.797   2.466
78848SOL     OW38375   7.560  11.182  14.667
78848SOL    HW138376   7.589  11.220  14.750
78848SOL    HW238377   7.499  11.248  14.631
78849SOL     OW38378   8.268   8.521   5.599
78849SOL    HW138379   8.214   8.446   5.621
78849SOL    HW238380   8.344   8.514   5.657
78850SOL     OW38381   7.320   4.263   7.376
78850SOL    HW138382   7.246   4.252   7.436
78850SOL    HW238383   7.308   4.194   7.310
78851SOL     OW38384   1.055  10.873  12.326
78851SOL    HW138385   1.131  10.852  12.272
78851SOL    HW238386   1.082  10.947  12.379
78852SOL     OW38387  14.341   6.746   0.695
78852SOL    HW138388  14.327   6.807   0.767
78852SOL    HW238389  14.427   6.708   0.711
78853SOL     OW38390   1.116   1.993  11.768
78853SOL    HW138391   1.024   1.977  11.748
78853SOL    HW238392   1.159   1.993  11.682
78854SOL     OW38393   4.045   0.400   3.919
78854SOL    HW138394   3.983   0.328   3.924
78854SOL    HW238395   4.071   0.404   3.827
78855SOL     OW38396   4.273   2.904   9.014
78855SOL    HW138397   4.183   2.924   8.986
78855SOL    HW238398   4.326   2.919   8.936
78856SOL     OW38399   0.238   4.010   6.674
78856SOL    HW138400   0.144   4.016   6.658
78856SOL    HW238401   0.246   3.987   6.767
78857SOL     OW38402   6.038   2.278   9.562
78857SOL    HW138403   5.972   2.250   9.625
78857SOL    HW238404   6.121   2.246   9.598
78858SOL     OW38405  10.979   5.202  10.437
78858SOL    HW138406  10.903   5.145  10.429
78858SOL    HW238407  11.053   5.142  10.442
78859SOL     OW38408   2.711   4.888   7.338
78859SOL    HW138409   2.621   4.915   7.355
78859SOL    HW238410   2.732   4.827   7.409
78860SOL     OW38411   3.287   0.842  10.723
78860SOL    HW138412   3.208   0.882  10.688
78860SOL    HW238413   3.255   0.778  10.787
78861SOL     OW38414   8.131   6.461  11.402
78861SOL    HW138415   8.181   6.413  11.337
78861SOL    HW238416   8.171   6.549  11.402
78862SOL     OW38417   2.337  14.292  12.867
78862SOL    HW138418   2.259  14.334  12.904
78862SOL    HW238419   2.367  14.233  12.936
78863SOL     OW38420   9.545  12.184  11.925
78863SOL    HW138421   9.454  12.167  11.901
78863SOL    HW238422   9.567  12.114  11.987
78864SOL     OW38423   8.140   9.059   1.592
78864SOL    HW138424   8.085   9.069   1.514
78864SOL    HW238425   8.214   9.117   1.576
78865SOL     OW38426  14.627  10.122  11.937
78865SOL    HW138427  14.629  10.214  11.912
78865SOL    HW238428  14.548  10.088  11.894
78866SOL     OW38429  13.618   9.283  11.555
78866SOL    HW138430  13.604   9.354  11.617
78866SOL    HW238431  13.565   9.211  11.589
78867SOL     OW38432   3.596  10.285   6.714
78867SOL    HW138433   3.525  10.227   6.743
78867SOL    HW238434   3.568  10.373   6.739
78868SOL     OW38435  13.403   3.271  14.693
78868SOL    HW138436  13.420   3.352  14.742
78868SOL    HW238437  13.487   3.224  14.696
78869SOL     OW38438  13.992   9.857   5.298
78869SOL    HW138439  14.052   9.931   5.304
78869SOL    HW238440  14.045   9.780   5.320
78870SOL     OW38441   5.344   1.410   5.826
78870SOL    HW138442   5.262   1.363   5.840
78870SOL    HW238443   5.346   1.426   5.732
78871SOL     OW38444   4.410   6.885   5.519
78871SOL    HW138445   4.499   6.886   5.553
78871SOL    HW238446   4.357   6.850   5.590
78872SOL     OW38447  12.664   6.771   1.932
78872SOL    HW138448  12.647   6.865   1.937
78872SOL    HW238449  12.653   6.750   1.839
78873SOL     OW38450  10.680   4.557   4.253
78873SOL    HW138451  10.682   4.469   4.289
78873SOL    HW238452  10.656   4.613   4.327
78874SOL     OW38453  12.604  10.551  13.590
78874SOL    HW138454  12.541  10.518  13.654
78874SOL    HW238455  12.613  10.644  13.612
78875SOL     OW38456   4.329   8.651   3.183
78875SOL    HW138457   4.362   8.652   3.273
78875SOL    HW238458   4.390   8.708   3.135
78876SOL     OW38459   6.998  14.725   6.776
78876SOL    HW138460   6.962  14.773   6.701
78876SOL    HW238461   6.922  14.691   6.822
78877SOL     OW38462   8.395   5.084   4.607
78877SOL    HW138463   8.420   5.118   4.521
78877SOL    HW238464   8.448   5.134   4.669
78878SOL     OW38465   4.216   1.848   5.952
78878SOL    HW138466   4.151   1.903   5.910
78878SOL    HW238467   4.244   1.897   6.029
78879SOL     OW38468   6.907   8.721   5.208
78879SOL    HW138469   6.977   8.698   5.147
78879SOL    HW238470   6.837   8.658   5.189
78880SOL     OW38471   2.501   5.789  12.660
78880SOL    HW138472   2.501   5.885  12.661
78880SOL    HW238473   2.520   5.766  12.569
78881SOL     OW38474  14.069   9.619   7.145
78881SOL    HW138475  14.137   9.552   7.145
78881SOL    HW238476  14.078   9.662   7.060
78882SOL     OW38477   3.286  12.095   8.173
78882SOL    HW138478   3.204  12.141   8.154
78882SOL    HW238479   3.260  12.021   8.228
78883SOL     OW38480   2.673  12.210   5.738
78883SOL    HW138481   2.690  12.303   5.723
78883SOL    HW238482   2.687  12.170   5.653
78884SOL     OW38483   0.948   1.069   2.602
78884SOL    HW138484   1.038   1.063   2.636
78884SOL    HW238485   0.912   1.148   2.642
78885SOL     OW38486   5.826   4.933   2.220
78885SOL    HW138487   5.755   4.962   2.163
78885SOL    HW238488   5.850   4.846   2.188
78886SOL     OW38489  14.506   4.338  14.596
78886SOL    HW138490  14.519   4.429  14.569
78886SOL    HW238491  14.493   4.342  14.690
78887SOL     OW38492  11.808   0.294  13.855
78887SOL    HW138493  11.743   0.237  13.814
78887SOL    HW238494  11.848   0.240  13.923
78888SOL     OW38495  14.780   0.056   4.358
78888SOL    HW138496  14.695   0.065   4.315
78888SOL    HW238497  14.759   0.058   4.451
78889SOL     OW38498   8.834  11.048   5.417
78889SOL    HW138499   8.928  11.056   5.435
78889SOL    HW238500   8.828  11.047   5.321
78890SOL     OW38501   4.783  12.776   4.626
78890SOL    HW138502   4.767  12.780   4.721
78890SOL    HW238503   4.697  12.789   4.587
78891SOL     OW38504   3.297   2.134  11.944
78891SOL    HW138505   3.389   2.159  11.954
78891SOL    HW238506   3.267   2.115  12.032
78892SOL     OW38507  10.651  11.294   8.784
78892SOL    HW138508  10.726  11.235   8.780
78892SOL    HW238509  10.646  11.333   8.697
78893SOL     OW38510   5.523   2.498   4.894
78893SOL    HW138511   5.451   2.531   4.948
78893SOL    HW238512   5.571   2.577   4.869
78894SOL     OW38513   0.383  10.252   4.220
78894SOL    HW138514   0.441  10.183   4.253
78894SOL    HW238515   0.443  10.321   4.192
78895SOL     OW38516  10.836   4.072  12.809
78895SOL    HW138517  10.832   4.040  12.899
78895SOL    HW238518  10.928   4.062  12.784
78896SOL     OW38519  10.716  14.712   8.488
78896SOL    HW138520  10.688  14.758   8.567
78896SOL    HW238521  10.634  14.680   8.449
78897SOL     OW38522   8.885   0.358  12.571
78897SOL    HW138523   8.970   0.396  12.592
78897SOL    HW238524   8.852   0.325  12.655
78898SOL     OW38525   0.091   1.794   9.150
78898SOL    HW138526   0.178   1.824   9.177
78898SOL    HW238527   0.107   1.718   9.095
78899SOL     OW38528  11.942  14.269   3.149
78899SOL    HW138529  11.911  14.215   3.076
78899SOL    HW238530  12.017  14.222   3.183
78900SOL     OW38531   7.802   0.364   5.286
78900SOL    HW138532   7.723   0.410   5.257
78900SOL    HW238533   7.803   0.378   5.381
78901SOL     OW38534  13.008   1.426  11.423
78901SOL    HW138535  13.078   1.380  11.470
78901SOL    HW238536  12.968   1.483  11.488
78902SOL     OW38537   3.035  10.302  13.086
78902SOL    HW138538   3.017  10.356  13.163
78902SOL    HW238539   3.127  10.321  13.065
78903SOL     OW38540  12.340   2.178   3.898
78903SOL    HW138541  12.307   2.092   3.925
78903SOL    HW238542  12.421   2.190   3.949
78904SOL     OW38543   1.440  10.366  14.548
78904SOL    HW138544   1.454  10.427  14.620
78904SOL    HW238545   1.486  10.286  14.575
78905SOL     OW38546   6.846   7.423   8.580
78905SOL    HW138547   6.915   7.366   8.545
78905SOL    HW238548   6.766   7.372   8.570
78906SOL     OW38549   4.400   8.199  13.760
78906SOL    HW138550   4.465   8.187  13.690
78906SOL    HW238551   4.338   8.263  13.724
78907SOL     OW38552   3.732  13.356  12.223
78907SOL    HW138553   3.760  13.269  12.251
78907SOL    HW238554   3.699  13.343  12.134
78908SOL     OW38555  10.175   7.434   2.406
78908SOL    HW138556  10.084   7.457   2.420
78908SOL    HW238557  10.213   7.429   2.493
78909SOL     OW38558   9.986   8.540  13.859
78909SOL    HW138559  10.062   8.598  13.866
78909SOL    HW238560   9.924   8.575  13.923
78910SOL     OW38561   7.968  12.289   3.644
78910SOL    HW138562   7.971  12.346   3.720
78910SOL    HW238563   8.026  12.330   3.580
78911SOL     OW38564   5.068   1.649   4.403
78911SOL    HW138565   5.061   1.567   4.451
78911SOL    HW238566   5.154   1.683   4.427
78912SOL     OW38567  12.643   0.203  14.426
78912SOL    HW138568  12.714   0.200  14.362
78912SOL    HW238569  12.675   0.151  14.500
78913SOL     OW38570   3.510   8.739   0.768
78913SOL    HW138571   3.466   8.683   0.833
78913SOL    HW238572   3.550   8.809   0.821
78914SOL     OW38573   9.632  14.739   6.537
78914SOL    HW138574   9.667  14.691   6.612
78914SOL    HW238575   9.543  14.763   6.562
78915SOL     OW38576   2.358   8.111  11.838
78915SOL    HW138577   2.368   8.194  11.791
78915SOL    HW238578   2.357   8.044  11.769
78916SOL     OW38579   0.028   9.402  11.710
78916SOL    HW138580  14.851   9.375  11.640
78916SOL    HW238581  14.867   9.476  11.751
78917SOL     OW38582  12.374   1.068   0.079
78917SOL    HW138583  12.386   1.161   0.065
78917SOL    HW238584  12.313   1.041   0.010
78918SOL     OW38585   3.973   5.163  11.456
78918SOL    HW138586   4.028   5.141  11.381
78918SOL    HW238587   4.035   5.174  11.528
78919SOL     OW38588   2.105   2.944  13.759
78919SOL    HW138589   2.163   2.942  13.683
78919SOL    HW238590   2.056   2.862  13.754
78920SOL     OW38591  12.173  10.514   6.619
78920SOL    HW138592  12.168  10.419   6.630
78920SOL    HW238593  12.233  10.543   6.688
78921SOL     OW38594   9.432   3.804   2.402
78921SOL    HW138595   9.456   3.809   2.494
78921SOL    HW238596   9.365   3.871   2.390
78922SOL     OW38597   6.091  10.469   0.484
78922SOL    HW138598   6.035  10.479   0.408
78922SOL    HW238599   6.175  10.508   0.457
78923SOL     OW38600  12.930   0.862   7.160
78923SOL    HW138601  12.974   0.943   7.183
78923SOL    HW238602  12.869   0.846   7.232
78924SOL     OW38603  13.205   4.131  12.928
78924SOL    HW138604  13.297   4.107  12.942
78924SOL    HW238605  13.207   4.187  12.851
78925SOL     OW38606   9.600   2.815   8.180
78925SOL    HW138607   9.565   2.884   8.235
78925SOL    HW238608   9.632   2.749   8.241
78926SOL     OW38609  12.557  14.145   5.573
78926SOL    HW138610  12.610  14.202   5.518
78926SOL    HW238611  12.590  14.159   5.662
78927SOL     OW38612   8.989  11.598   4.600
78927SOL    HW138613   8.924  11.668   4.596
78927SOL    HW238614   9.017  11.596   4.692
78928SOL     OW38615   5.031   3.761   9.227
78928SOL    HW138616   5.036   3.807   9.143
78928SOL    HW238617   5.115   3.715   9.234
78929SOL     OW38618  12.231   4.319  12.430
78929SOL    HW138619  12.269   4.258  12.493
78929SOL    HW238620  12.245   4.277  12.345
78930SOL     OW38621   6.331   1.895   9.185
78930SOL    HW138622   6.235   1.898   9.182
78930SOL    HW238623   6.358   1.986   9.174
78931SOL     OW38624  13.954   7.153  12.717
78931SOL    HW138625  13.953   7.214  12.791
78931SOL    HW238626  13.864   7.122  12.710
78932SOL     OW38627   2.202   6.812  10.257
78932SOL    HW138628   2.141   6.880  10.286
78932SOL    HW238629   2.288   6.846  10.282
78933SOL     OW38630   9.143   8.391   3.282
78933SOL    HW138631   9.212   8.342   3.237
78933SOL    HW238632   9.138   8.351   3.369
78934SOL     OW38633   0.817  11.413  14.673
78934SOL    HW138634   0.726  11.431  14.699
78934SOL    HW238635   0.829  11.319  14.691
78935SOL     OW38636   5.871   0.105   6.773
78935SOL    HW138637   5.863   0.091   6.679
78935SOL    HW238638   5.784   0.137   6.800
78936SOL     OW38639   3.992   3.891  10.161
78936SOL    HW138640   3.901   3.894  10.191
78936SOL    HW238641   4.001   3.805  10.120
78937SOL     OW38642   4.300   2.292   5.536
78937SOL    HW138643   4.234   2.234   5.499
78937SOL    HW238644   4.380   2.239   5.540
78938SOL     OW38645  13.427   4.658  10.318
78938SOL    HW138646  13.425   4.711  10.238
78938SOL    HW238647  13.335   4.642  10.339
78939SOL     OW38648  12.928   0.844   5.449
78939SOL    HW138649  12.891   0.820   5.534
78939SOL    HW238650  13.019   0.868   5.468
78940SOL     OW38651   3.704  10.980  13.963
78940SOL    HW138652   3.639  10.909  13.970
78940SOL    HW238653   3.755  10.958  13.885
78941SOL     OW38654  11.725   7.329  12.761
78941SOL    HW138655  11.807   7.377  12.773
78941SOL    HW238656  11.740   7.245  12.803
78942SOL     OW38657  14.453   5.278   5.618
78942SOL    HW138658  14.396   5.347   5.585
78942SOL    HW238659  14.533   5.285   5.565
78943SOL     OW38660   2.016  11.645   7.055
78943SOL    HW138661   2.106  11.618   7.076
78943SOL    HW238662   2.024  11.738   7.035
78944SOL     OW38663  12.879   6.470   8.836
78944SOL    HW138664  12.859   6.509   8.750
78944SOL    HW238665  12.966   6.434   8.826
78945SOL     OW38666   7.779  11.045   8.649
78945SOL    HW138667   7.806  11.137   8.652
78945SOL    HW238668   7.684  11.048   8.639
78946SOL     OW38669   6.858   0.637  12.204
78946SOL    HW138670   6.947   0.672  12.191
78946SOL    HW238671   6.802   0.695  12.153
78947SOL     OW38672   5.947   8.910   3.859
78947SOL    HW138673   5.949   8.965   3.937
78947SOL    HW238674   6.029   8.930   3.814
78948SOL     OW38675   7.947   7.003   4.311
78948SOL    HW138676   7.987   7.089   4.327
78948SOL    HW238677   7.994   6.944   4.371
78949SOL     OW38678  11.655  12.047   6.835
78949SOL    HW138679  11.681  12.053   6.927
78949SOL    HW238680  11.559  12.045   6.838
78950SOL     OW38681   2.286   5.882   2.066
78950SOL    HW138682   2.249   5.802   2.103
78950SOL    HW238683   2.378   5.882   2.094
78951SOL     OW38684  12.345   6.340   1.551
78951SOL    HW138685  12.405   6.348   1.625
78951SOL    HW238686  12.258   6.336   1.591
78952SOL     OW38687  10.071  12.673   8.486
78952SOL    HW138688  10.000  12.617   8.518
78952SOL    HW238689  10.038  12.709   8.404
78953SOL     OW38690   4.151   1.121   2.096
78953SOL    HW138691   4.121   1.101   2.007
78953SOL    HW238692   4.237   1.081   2.102
78954SOL     OW38693   3.527   4.547   4.500
78954SOL    HW138694   3.583   4.508   4.433
78954SOL    HW238695   3.589   4.581   4.565
78955SOL     OW38696   1.203  13.096   9.329
78955SOL    HW138697   1.214  13.141   9.413
78955SOL    HW238698   1.180  13.165   9.267
78956SOL     OW38699  12.379  13.030   0.791
78956SOL    HW138700  12.449  13.066   0.737
78956SOL    HW238701  12.319  12.990   0.728
78957SOL     OW38702   4.318  14.708  11.427
78957SOL    HW138703   4.412  14.701  11.412
78957SOL    HW238704   4.294  14.623  11.465
78958SOL     OW38705  12.529   9.868   1.075
78958SOL    HW138706  12.620   9.849   1.052
78958SOL    HW238707  12.535   9.936   1.142
78959SOL     OW38708   8.453   2.561  10.118
78959SOL    HW138709   8.399   2.512  10.180
78959SOL    HW238710   8.393   2.589  10.050
78960SOL     OW38711  10.435  13.653  10.548
78960SOL    HW138712  10.471  13.656  10.637
78960SOL    HW238713  10.505  13.686  10.493
78961SOL     OW38714  10.480  10.631   3.495
78961SOL    HW138715  10.426  10.628   3.416
78961SOL    HW238716  10.467  10.719   3.530
78962SOL     OW38717   7.576  12.835   1.566
78962SOL    HW138718   7.536  12.876   1.643
78962SOL    HW238719   7.669  12.853   1.574
78963SOL     OW38720   9.157   5.863  10.425
78963SOL    HW138721   9.098   5.919  10.374
78963SOL    HW238722   9.120   5.864  10.513
78964SOL     OW38723  10.547  10.182   9.890
78964SOL    HW138724  10.509  10.194   9.803
78964SOL    HW238725  10.520  10.095   9.916
78965SOL     OW38726   2.825  12.228  12.146
78965SOL    HW138727   2.788  12.190  12.226
78965SOL    HW238728   2.753  12.276  12.106
78966SOL     OW38729   0.404   4.455   2.056
78966SOL    HW138730   0.337   4.465   2.124
78966SOL    HW238731   0.456   4.535   2.061
78967SOL     OW38732  14.018   4.418   9.886
78967SOL    HW138733  13.931   4.407   9.847
78967SOL    HW238734  14.041   4.509   9.867
78968SOL     OW38735   4.927   0.316   9.249
78968SOL    HW138736   4.861   0.277   9.192
78968SOL    HW238737   4.995   0.349   9.190
78969SOL     OW38738   4.998  11.955   1.039
78969SOL    HW138739   5.035  12.043   1.030
78969SOL    HW238740   4.918  11.957   0.988
78970SOL     OW38741   1.341   3.747  12.111
78970SOL    HW138742   1.322   3.655  12.133
78970SOL    HW238743   1.366   3.786  12.195
78971SOL     OW38744   4.562  13.246   9.039
78971SOL    HW138745   4.519  13.166   9.071
78971SOL    HW238746   4.492  13.312   9.039
78972SOL     OW38747   6.194   7.143  13.163
78972SOL    HW138748   6.114   7.097  13.140
78972SOL    HW238749   6.232   7.169  13.079
78973SOL     OW38750   3.883   4.875   8.787
78973SOL    HW138751   3.850   4.942   8.727
78973SOL    HW238752   3.956   4.835   8.740
78974SOL     OW38753  11.955   4.362   6.078
78974SOL    HW138754  11.948   4.352   5.983
78974SOL    HW238755  11.872   4.326   6.112
78975SOL     OW38756  10.700  10.362  12.073
78975SOL    HW138757  10.619  10.317  12.099
78975SOL    HW238758  10.676  10.454  12.070
78976SOL     OW38759   6.802  12.816  10.823
78976SOL    HW138760   6.870  12.880  10.843
78976SOL    HW238761   6.723  12.851  10.864
78977SOL     OW38762  12.733   2.767  14.225
78977SOL    HW138763  12.725   2.839  14.287
78977SOL    HW238764  12.798   2.798  14.161
78978SOL     OW38765  12.899   7.883   0.033
78978SOL    HW138766  12.885   7.800   0.079
78978SOL    HW238767  12.831   7.885  14.848
78979SOL     OW38768  13.473   3.475  10.818
78979SOL    HW138769  13.536   3.412  10.782
78979SOL    HW238770  13.423   3.505  10.742
78980SOL     OW38771  12.336   7.478  13.682
78980SOL    HW138772  12.270   7.486  13.752
78980SOL    HW238773  12.389   7.403  13.708
78981SOL     OW38774  13.225  14.370   5.693
78981SOL    HW138775  13.320  14.379   5.702
78981SOL    HW238776  13.194  14.460   5.682
78982SOL     OW38777   7.255  10.321   8.654
78982SOL    HW138778   7.242  10.238   8.609
78982SOL    HW238779   7.203  10.384   8.604
78983SOL     OW38780   3.598   0.429   9.521
78983SOL    HW138781   3.605   0.345   9.567
78983SOL    HW238782   3.673   0.430   9.461
78984SOL     OW38783  12.009   7.007  14.777
78984SOL    HW138784  11.977   6.995  14.866
78984SOL    HW238785  11.933   7.036  14.727
78985SOL     OW38786   2.667   5.637   9.674
78985SOL    HW138787   2.746   5.666   9.719
78985SOL    HW238788   2.619   5.718   9.656
78986SOL     OW38789   8.462   3.537  12.531
78986SOL    HW138790   8.404   3.578  12.595
78986SOL    HW238791   8.409   3.530  12.452
78987SOL     OW38792   3.719   5.333   5.467
78987SOL    HW138793   3.768   5.412   5.492
78987SOL    HW238794   3.785   5.264   5.462
78988SOL     OW38795  11.568   9.455   5.606
78988SOL    HW138796  11.514   9.414   5.538
78988SOL    HW238797  11.629   9.511   5.558
78989SOL     OW38798   1.229   4.845  12.389
78989SOL    HW138799   1.321   4.870  12.386
78989SOL    HW238800   1.198   4.877  12.473
78990SOL     OW38801  11.554   3.505   2.765
78990SOL    HW138802  11.513   3.576   2.814
78990SOL    HW238803  11.483   3.445   2.744
78991SOL     OW38804  10.623   0.235  10.131
78991SOL    HW138805  10.571   0.212  10.208
78991SOL    HW238806  10.588   0.320  10.103
78992SOL     OW38807   8.122   7.071  11.363
78992SOL    HW138808   8.133   7.067  11.268
78992SOL    HW238809   8.140   7.162  11.385
78993SOL     OW38810   0.047   5.594   3.875
78993SOL    HW138811   0.049   5.676   3.925
78993SOL    HW238812   0.039   5.621   3.784
78994SOL     OW38813   5.513  13.146  14.437
78994SOL    HW138814   5.494  13.239  14.423
78994SOL    HW238815   5.528  13.112  14.349
78995SOL     OW38816   7.664   6.301  13.040
78995SOL    HW138817   7.747   6.257  13.060
78995SOL    HW238818   7.686   6.363  12.970
78996SOL     OW38819   0.410  11.625  13.360
78996SOL    HW138820   0.338  11.563  13.371
78996SOL    HW238821   0.487  11.576  13.388
78997SOL     OW38822   6.190   6.278   8.616
78997SOL    HW138823   6.112   6.227   8.639
78997SOL    HW238824   6.175   6.303   8.525
78998SOL     OW38825   1.987   7.956  10.806
78998SOL    HW138826   1.963   7.902  10.882
78998SOL    HW238827   1.939   7.916  10.734
78999SOL     OW38828   6.845  12.411   4.628
78999SOL    HW138829   6.878  12.375   4.710
78999SOL    HW238830   6.759  12.371   4.616
79000SOL     OW38831   8.893   0.977  12.478
79000SOL    HW138832   8.818   0.981  12.419
79000SOL    HW238833   8.934   1.064  12.471
79001SOL     OW38834   2.007   9.205  10.989
79001SOL    HW138835   2.054   9.196  10.906
79001SOL    HW238836   1.920   9.239  10.964
79002SOL     OW38837   5.586   6.275   9.493
79002SOL    HW138838   5.628   6.317   9.568
79002SOL    HW238839   5.564   6.187   9.524
79003SOL     OW38840   0.975   4.297   1.095
79003SOL    HW138841   1.016   4.294   1.008
79003SOL    HW238842   0.928   4.381   1.096
79004SOL     OW38843   3.632   1.789  10.108
79004SOL    HW138844   3.684   1.859  10.067
79004SOL    HW238845   3.543   1.825  10.112
79005SOL     OW38846   6.085   5.902   9.755
79005SOL    HW138847   6.131   5.922   9.674
79005SOL    HW238848   6.014   5.843   9.728
79006SOL     OW38849  10.531   3.380  14.399
79006SOL    HW138850  10.539   3.413  14.309
79006SOL    HW238851  10.521   3.459  14.452
79007SOL     OW38852   4.713   5.997  10.415
79007SOL    HW138853   4.652   6.069  10.395
79007SOL    HW238854   4.672   5.949  10.486
79008SOL     OW38855   4.146   3.511   2.914
79008SOL    HW138856   4.070   3.519   2.855
79008SOL    HW238857   4.116   3.550   2.996
79009SOL     OW38858   6.780  11.514   0.329
79009SOL    HW138859   6.707  11.493   0.387
79009SOL    HW238860   6.852  11.458   0.359
79010SOL     OW38861   3.444   7.196  11.752
79010SOL    HW138862   3.446   7.107  11.716
79010SOL    HW238863   3.473   7.185  11.842
79011SOL     OW38864   7.492   6.453   0.063
79011SOL    HW138865   7.463   6.419   0.148
79011SOL    HW238866   7.531   6.538   0.083
79012SOL     OW38867   0.374   8.792   1.240
79012SOL    HW138868   0.360   8.726   1.172
79012SOL    HW238869   0.344   8.751   1.321
79013SOL     OW38870   5.092  10.829   9.587
79013SOL    HW138871   5.145  10.908   9.572
79013SOL    HW238872   5.114  10.771   9.514
79014SOL     OW38873   0.200  14.568   5.073
79014SOL    HW138874   0.143  14.496   5.046
79014SOL    HW238875   0.268  14.527   5.126
79015SOL     OW38876  14.426   1.568  14.117
79015SOL    HW138877  14.476   1.650  14.119
79015SOL    HW238878  14.389   1.561  14.205
79016SOL     OW38879  12.544   9.415   8.486
79016SOL    HW138880  12.561   9.441   8.396
79016SOL    HW238881  12.453   9.384   8.486
79017SOL     OW38882   0.516   2.244  13.945
79017SOL    HW138883   0.590   2.303  13.959
79017SOL    HW238884   0.487   2.221  14.033
79018SOL     OW38885  14.412   2.135   8.691
79018SOL    HW138886  14.341   2.097   8.741
79018SOL    HW238887  14.489   2.129   8.748
79019SOL     OW38888   7.480  11.323   0.485
79019SOL    HW138889   7.386  11.309   0.480
79019SOL    HW238890   7.516  11.241   0.517
79020SOL     OW38891   7.516  13.262   1.856
79020SOL    HW138892   7.444  13.211   1.817
79020SOL    HW238893   7.585  13.259   1.790
79021SOL     OW38894   2.867  10.270   0.736
79021SOL    HW138895   2.923  10.343   0.709
79021SOL    HW238896   2.898  10.195   0.685
79022SOL     OW38897   5.156  11.974   2.906
79022SOL    HW138898   5.080  11.928   2.871
79022SOL    HW238899   5.229  11.914   2.892
79023SOL     OW38900   0.516   8.398   6.057
79023SOL    HW138901   0.549   8.390   5.967
79023SOL    HW238902   0.420   8.399   6.047
79024SOL     OW38903  14.188  13.782   4.210
79024SOL    HW138904  14.093  13.777   4.225
79024SOL    HW238905  14.226  13.798   4.296
79025SOL     OW38906  11.566   4.753   5.673
79025SOL    HW138907  11.478   4.765   5.637
79025SOL    HW238908  11.575   4.821   5.739
79026SOL     OW38909   8.086  14.554  10.631
79026SOL    HW138910   8.169  14.531  10.591
79026SOL    HW238911   8.033  14.589  10.558
79027SOL     OW38912   4.023  11.081   2.493
79027SOL    HW138913   3.973  11.108   2.570
79027SOL    HW238914   4.059  10.995   2.517
79028SOL     OW38915  10.232   2.362  11.916
79028SOL    HW138916  10.247   2.450  11.950
79028SOL    HW238917  10.176   2.374  11.840
79029SOL     OW38918   0.250   3.953  14.503
79029SOL    HW138919   0.227   3.869  14.542
79029SOL    HW238920   0.189   4.016  14.542
79030SOL     OW38921   8.155   3.208  12.305
79030SOL    HW138922   8.078   3.204  12.249
79030SOL    HW238923   8.133   3.153  12.380
79031SOL     OW38924   8.310   8.999   8.406
79031SOL    HW138925   8.230   8.948   8.392
79031SOL    HW238926   8.313   9.060   8.332
79032SOL     OW38927   8.660   6.959   5.220
79032SOL    HW138928   8.670   6.974   5.314
79032SOL    HW238929   8.575   6.916   5.212
79033SOL     OW38930   4.958   5.446  11.622
79033SOL    HW138931   4.948   5.351  11.614
79033SOL    HW238932   4.917   5.481  11.542
79034SOL     OW38933  11.539   8.631   1.836
79034SOL    HW138934  11.515   8.708   1.888
79034SOL    HW238935  11.586   8.667   1.761
79035SOL     OW38936   0.146  12.959   8.891
79035SOL    HW138937   0.116  13.019   8.960
79035SOL    HW238938   0.232  12.993   8.866
79036SOL     OW38939  14.502   9.661  14.859
79036SOL    HW138940  14.410   9.686  14.847
79036SOL    HW238941  14.526   9.698   0.062
79037SOL     OW38942  13.164   4.154  12.401
79037SOL    HW138943  13.236   4.094  12.422
79037SOL    HW238944  13.182   4.183  12.312
79038SOL     OW38945   0.790   8.405   5.413
79038SOL    HW138946   0.881   8.380   5.430
79038SOL    HW238947   0.743   8.321   5.410
79039SOL     OW38948   5.243   6.834   7.323
79039SOL    HW138949   5.251   6.927   7.341
79039SOL    HW238950   5.266   6.825   7.230
79040SOL     OW38951   3.555   1.144   8.434
79040SOL    HW138952   3.526   1.053   8.445
79040SOL    HW238953   3.539   1.164   8.343
79041SOL     OW38954   8.245   3.944  10.338
79041SOL    HW138955   8.309   4.015  10.327
79041SOL    HW238956   8.259   3.887  10.262
79042SOL     OW38957  11.416  14.835  11.711
79042SOL    HW138958  11.425  14.745  11.680
79042SOL    HW238959  11.480   0.003  11.659
79043SOL     OW38960   3.400   5.856   5.826
79043SOL    HW138961   3.407   5.781   5.767
79043SOL    HW238962   3.319   5.840   5.875
79044SOL     OW38963   4.666   3.130   6.818
79044SOL    HW138964   4.712   3.052   6.849
79044SOL    HW238965   4.604   3.150   6.888
79045SOL     OW38966   9.269  14.426   5.489
79045SOL    HW138967   9.337  14.375   5.534
79045SOL    HW238968   9.266  14.390   5.401
79046SOL     OW38969   6.739   5.288   9.494
79046SOL    HW138970   6.648   5.298   9.469
79046SOL    HW238971   6.758   5.195   9.480
79047SOL     OW38972   5.212   0.781   5.268
79047SOL    HW138973   5.236   0.772   5.360
79047SOL    HW238974   5.117   0.793   5.268
79048SOL     OW38975   1.291   9.841  13.906
79048SOL    HW138976   1.364   9.782  13.887
79048SOL    HW238977   1.224   9.785  13.946
79049SOL     OW38978  13.151   0.204   8.292
79049SOL    HW138979  13.178   0.216   8.383
79049SOL    HW238980  13.073   0.149   8.297
79050SOL     OW38981   2.602   3.510  13.121
79050SOL    HW138982   2.662   3.563  13.173
79050SOL    HW238983   2.649   3.428  13.106
79051SOL     OW38984   2.982   6.484  13.602
79051SOL    HW138985   2.943   6.459  13.519
79051SOL    HW238986   2.910   6.526  13.650
79052SOL     OW38987   5.346   4.842   2.165
79052SOL    HW138988   5.360   4.748   2.157
79052SOL    HW238989   5.425   4.875   2.207
79053SOL     OW38990   7.140   3.934   4.224
79053SOL    HW138991   7.159   4.028   4.225
79053SOL    HW238992   7.196   3.898   4.155
79054SOL     OW38993  11.177   9.370  14.858
79054SOL    HW138994  11.134   9.440   0.025
79054SOL    HW238995  11.161   9.291   0.027
79055SOL     OW38996   4.376   8.121  10.863
79055SOL    HW138997   4.449   8.147  10.807
79055SOL    HW238998   4.307   8.096  10.802
79056SOL     OW38999   7.683   3.578  10.774
79056SOL    HW139000   7.764   3.557  10.821
79056SOL    HW239001   7.690   3.529  10.691
79057SOL     OW39002   7.162   9.108   3.926
79057SOL    HW139003   7.186   9.020   3.955
79057SOL    HW239004   7.206   9.166   3.988
79058SOL     OW39005   2.588   6.434  13.601
79058SOL    HW139006   2.656   6.497  13.626
79058SOL    HW239007   2.565   6.390  13.682
79059SOL     OW39008  13.846  10.543   1.077
79059SOL    HW139009  13.765  10.497   1.097
79059SOL    HW239010  13.896  10.541   1.159
79060SOL     OW39011   9.661   0.638   3.489
79060SOL    HW139012   9.719   0.577   3.534
79060SOL    HW239013   9.594   0.660   3.554
79061SOL     OW39014   7.071   6.778  11.291
79061SOL    HW139015   7.041   6.867  11.270
79061SOL    HW239016   6.996   6.737  11.333
79062SOL     OW39017   8.004   8.340  14.051
79062SOL    HW139018   7.956   8.352  14.133
79062SOL    HW239019   7.946   8.376  13.983
79063SOL     OW39020  11.109   1.015   1.678
79063SOL    HW139021  11.199   1.004   1.709
79063SOL    HW239022  11.084   0.928   1.646
79064SOL     OW39023  10.654   5.391   2.195
79064SOL    HW139024  10.706   5.329   2.143
79064SOL    HW239025  10.707   5.408   2.273
79065SOL     OW39026   2.346   5.316  13.367
79065SOL    HW139027   2.377   5.227  13.383
79065SOL    HW239028   2.333   5.320  13.272
79066SOL     OW39029  14.530   6.695   8.433
79066SOL    HW139030  14.467   6.695   8.505
79066SOL    HW239031  14.584   6.617   8.448
79067SOL     OW39032  14.316  14.795   7.562
79067SOL    HW139033  14.268  14.732   7.616
79067SOL    HW239034  14.318  14.755   7.475
79068SOL     OW39035   1.356   5.305   1.500
79068SOL    HW139036   1.335   5.212   1.487
79068SOL    HW239037   1.444   5.305   1.538
79069SOL     OW39038   1.058   7.979   6.621
79069SOL    HW139039   1.104   8.037   6.561
79069SOL    HW239040   1.102   7.894   6.613
79070SOL     OW39041   8.547   3.377   6.360
79070SOL    HW139042   8.495   3.412   6.288
79070SOL    HW239043   8.623   3.436   6.365
79071SOL     OW39044   4.682   8.633   7.005
79071SOL    HW139045   4.639   8.718   7.005
79071SOL    HW239046   4.722   8.625   6.918
79072SOL     OW39047  14.022   5.057   7.379
79072SOL    HW139048  14.108   5.095   7.363
79072SOL    HW239049  14.037   4.962   7.377
79073SOL     OW39050   8.360   4.159  11.696
79073SOL    HW139051   8.453   4.152  11.674
79073SOL    HW239052   8.348   4.251  11.718
79074SOL     OW39053   4.594   3.619   8.809
79074SOL    HW139054   4.655   3.679   8.766
79074SOL    HW239055   4.532   3.596   8.740
79075SOL     OW39056   3.778   9.952   7.632
79075SOL    HW139057   3.836   9.988   7.566
79075SOL    HW239058   3.830   9.886   7.678
79076SOL     OW39059   3.379  13.557  13.828
79076SOL    HW139060   3.329  13.637  13.844
79076SOL    HW239061   3.372  13.543  13.733
79077SOL     OW39062   3.217   6.432   0.404
79077SOL    HW139063   3.146   6.477   0.359
79077SOL    HW239064   3.290   6.493   0.401
79078SOL     OW39065  10.396   0.601  14.156
79078SOL    HW139066  10.306   0.633  14.147
79078SOL    HW239067  10.389   0.527  14.217
79079SOL     OW39068   0.250   7.638   1.827
79079SOL    HW139069   0.190   7.629   1.753
79079SOL    HW239070   0.264   7.548   1.857
79080SOL     OW39071   6.167   0.918   4.642
79080SOL    HW139072   6.168   0.990   4.578
79080SOL    HW239073   6.199   0.958   4.723
79081SOL     OW39074   3.515   4.109   2.829
79081SOL    HW139075   3.531   4.084   2.920
79081SOL    HW239076   3.432   4.157   2.831
79082SOL     OW39077  11.156   7.072   1.961
79082SOL    HW139078  11.165   7.166   1.975
79082SOL    HW239079  11.065   7.053   1.982
79083SOL     OW39080   1.362   5.446   9.344
79083SOL    HW139081   1.443   5.420   9.388
79083SOL    HW239082   1.391   5.472   9.256
79084SOL     OW39083  14.730   1.341  10.184
79084SOL    HW139084  14.817   1.302  10.196
79084SOL    HW239085  14.741   1.432  10.209
79085SOL     OW39086   9.643   2.864  14.724
79085SOL    HW139087   9.718   2.848  14.666
79085SOL    HW239088   9.682   2.886  14.808
79086SOL     OW39089   0.257  10.507   7.012
79086SOL    HW139090   0.214  10.445   7.071
79086SOL    HW239091   0.316  10.453   6.959
79087SOL     OW39092   6.922  10.487   1.833
79087SOL    HW139093   6.996  10.481   1.772
79087SOL    HW239094   6.961  10.475   1.919
79088SOL     OW39095   9.066   0.834   7.918
79088SOL    HW139096   9.107   0.763   7.967
79088SOL    HW239097   9.011   0.791   7.853
79089SOL     OW39098  12.249   4.892   9.886
79089SOL    HW139099  12.199   4.913   9.807
79089SOL    HW239100  12.315   4.961   9.892
79090SOL     OW39101  10.334   5.789   5.747
79090SOL    HW139102  10.269   5.839   5.697
79090SOL    HW239103  10.336   5.704   5.704
79091SOL     OW39104  12.631   3.016   1.124
79091SOL    HW139105  12.606   3.034   1.033
79091SOL    HW239106  12.718   2.976   1.118
79092SOL     OW39107  12.383   7.567   6.201
79092SOL    HW139108  12.311   7.584   6.141
79092SOL    HW239109  12.360   7.615   6.281
79093SOL     OW39110   2.473   6.495  10.397
79093SOL    HW139111   2.502   6.541  10.318
79093SOL    HW239112   2.454   6.406  10.367
79094SOL     OW39113   5.299   5.189   2.175
79094SOL    HW139114   5.287   5.134   2.098
79094SOL    HW239115   5.394   5.192   2.188
79095SOL     OW39116   0.463  12.838   2.560
79095SOL    HW139117   0.394  12.772   2.570
79095SOL    HW239118   0.509  12.837   2.643
79096SOL     OW39119   2.358  14.747   6.940
79096SOL    HW139120   2.422  14.774   7.005
79096SOL    HW239121   2.276  14.740   6.988
79097SOL     OW39122  11.385  14.171   5.364
79097SOL    HW139123  11.414  14.215   5.284
79097SOL    HW239124  11.410  14.079   5.351
79098SOL     OW39125  12.457   2.648  12.756
79098SOL    HW139126  12.373   2.694  12.760
79098SOL    HW239127  12.511   2.702  12.699
79099SOL     OW39128   2.704  12.966   6.244
79099SOL    HW139129   2.627  12.908   6.242
79099SOL    HW239130   2.774  12.911   6.280
79100SOL     OW39131   6.868   0.101   4.686
79100SOL    HW139132   6.934   0.157   4.728
79100SOL    HW239133   6.860   0.025   4.744
79101SOL     OW39134  14.358  10.993   4.771
79101SOL    HW139135  14.402  10.948   4.842
79101SOL    HW239136  14.374  11.086   4.787
79102SOL     OW39137   4.275   4.879  13.258
79102SOL    HW139138   4.267   4.811  13.324
79102SOL    HW239139   4.185   4.896  13.229
79103SOL     OW39140  11.659   8.131   8.296
79103SOL    HW139141  11.709   8.198   8.344
79103SOL    HW239142  11.666   8.157   8.204
79104SOL     OW39143   6.400   3.306   9.674
79104SOL    HW139144   6.391   3.349   9.588
79104SOL    HW239145   6.493   3.285   9.681
79105SOL     OW39146   0.146   5.925   4.816
79105SOL    HW139147   0.090   5.977   4.758
79105SOL    HW239148   0.153   5.977   4.896
79106SOL     OW39149  12.791   0.526   9.893
79106SOL    HW139150  12.862   0.474   9.932
79106SOL    HW239151  12.716   0.467   9.892
79107SOL     OW39152  14.048   9.350  13.719
79107SOL    HW139153  14.040   9.377  13.627
79107SOL    HW239154  14.023   9.258  13.720
79108SOL     OW39155   8.794   8.399  11.567
79108SOL    HW139156   8.720   8.420  11.624
79108SOL    HW239157   8.833   8.484  11.547
79109SOL     OW39158   2.519  13.752   2.863
79109SOL    HW139159   2.573  13.808   2.808
79109SOL    HW239160   2.571  13.673   2.877
79110SOL     OW39161  13.420   5.128   7.445
79110SOL    HW139162  13.472   5.200   7.408
79110SOL    HW239163  13.330   5.158   7.440
79111SOL     OW39164   3.894   1.872   5.721
79111SOL    HW139165   3.929   1.956   5.750
79111SOL    HW239166   3.899   1.815   5.798
79112SOL     OW39167   1.446   9.989   7.621
79112SOL    HW139168   1.375   9.926   7.632
79112SOL    HW239169   1.426  10.059   7.683
79113SOL     OW39170   2.901   5.593   2.408
79113SOL    HW139171   2.889   5.506   2.370
79113SOL    HW239172   2.826   5.605   2.466
79114SOL     OW39173   4.588  11.158   3.767
79114SOL    HW139174   4.504  11.121   3.739
79114SOL    HW239175   4.589  11.246   3.730
79115SOL     OW39176  13.294   0.149  10.913
79115SOL    HW139177  13.364   0.184  10.968
79115SOL    HW239178  13.218   0.144  10.971
79116SOL     OW39179   1.610   2.290   9.365
79116SOL    HW139180   1.703   2.281   9.343
79116SOL    HW239181   1.593   2.217   9.425
79117SOL     OW39182   3.880  10.468  11.648
79117SOL    HW139183   3.879  10.439  11.739
79117SOL    HW239184   3.920  10.396  11.600
79118SOL     OW39185   3.396   3.764   2.537
79118SOL    HW139186   3.467   3.814   2.577
79118SOL    HW239187   3.439   3.686   2.501
79119SOL     OW39188   9.822  14.622  12.749
79119SOL    HW139189   9.748  14.680  12.768
79119SOL    HW239190   9.867  14.663  12.675
79120SOL     OW39191  12.902   3.691   8.026
79120SOL    HW139192  12.874   3.715   7.937
79120SOL    HW239193  12.918   3.597   8.021
79121SOL     OW39194  12.217  11.801   9.037
79121SOL    HW139195  12.255  11.731   8.984
79121SOL    HW239196  12.293  11.846   9.074
79122SOL     OW39197  10.344  11.643   4.206
79122SOL    HW139198  10.335  11.737   4.193
79122SOL    HW239199  10.256  11.608   4.192
79123SOL     OW39200  12.303   0.105   3.840
79123SOL    HW139201  12.253   0.024   3.826
79123SOL    HW239202  12.377   0.078   3.894
79124SOL     OW39203   3.963   9.102   0.136
79124SOL    HW139204   4.030   9.042   0.168
79124SOL    HW239205   3.894   9.097   0.202
79125SOL     OW39206   8.905   7.015   5.171
79125SOL    HW139207   8.865   6.978   5.250
79125SOL    HW239208   8.831   7.035   5.114
79126SOL     OW39209   6.513   2.366   2.946
79126SOL    HW139210   6.508   2.458   2.973
79126SOL    HW239211   6.560   2.323   3.018
79127SOL     OW39212   5.853   1.206  10.738
79127SOL    HW139213   5.898   1.244  10.813
79127SOL    HW239214   5.804   1.133  10.774
79128SOL     OW39215   9.552   5.709   2.056
79128SOL    HW139216   9.521   5.765   2.127
79128SOL    HW239217   9.561   5.623   2.095
79129SOL     OW39218  13.493  12.557   6.674
79129SOL    HW139219  13.455  12.542   6.587
79129SOL    HW239220  13.502  12.652   6.679
79130SOL     OW39221   6.547  10.406   6.282
79130SOL    HW139222   6.637  10.429   6.303
79130SOL    HW239223   6.527  10.332   6.339
79131SOL     OW39224   7.918   5.900   7.101
79131SOL    HW139225   7.989   5.849   7.063
79131SOL    HW239226   7.842   5.879   7.047
79132SOL     OW39227   1.247   7.102   9.199
79132SOL    HW139228   1.277   7.163   9.267
79132SOL    HW239229   1.307   7.117   9.126
79133SOL     OW39230  13.769   1.614   7.898
79133SOL    HW139231  13.741   1.618   7.807
79133SOL    HW239232  13.792   1.522   7.912
79134SOL     OW39233  10.610   4.357   5.699
79134SOL    HW139234  10.572   4.341   5.612
79134SOL    HW239235  10.547   4.413   5.743
79135SOL     OW39236  13.415   1.845   2.648
79135SOL    HW139237  13.506   1.859   2.676
79135SOL    HW239238  13.364   1.848   2.729
79136SOL     OW39239   1.491   0.550  11.173
79136SOL    HW139240   1.496   0.586  11.262
79136SOL    HW239241   1.534   0.616  11.118
79137SOL     OW39242  10.922  12.344  10.988
79137SOL    HW139243  10.984  12.298  10.931
79137SOL    HW239244  10.973  12.416  11.025
79138SOL     OW39245   3.898   0.681   9.734
79138SOL    HW139246   3.854   0.709   9.654
79138SOL    HW239247   3.853   0.600   9.759
79139SOL     OW39248  10.364   2.135   5.295
79139SOL    HW139249  10.385   2.114   5.386
79139SOL    HW239250  10.407   2.219   5.279
79140SOL     OW39251  10.861   8.209  10.568
79140SOL    HW139252  10.773   8.230  10.598
79140SOL    HW239253  10.902   8.294  10.553
79141SOL     OW39254  13.759  10.367   4.172
79141SOL    HW139255  13.708  10.336   4.247
79141SOL    HW239256  13.838  10.404   4.211
79142SOL     OW39257  11.553   5.939   2.535
79142SOL    HW139258  11.534   6.011   2.595
79142SOL    HW239259  11.638   5.960   2.497
79143SOL     OW39260   9.768  12.067  13.626
79143SOL    HW139261   9.835  12.134  13.614
79143SOL    HW239262   9.789  12.000  13.561
79144SOL     OW39263  11.329   1.524   1.723
79144SOL    HW139264  11.300   1.434   1.714
79144SOL    HW239265  11.391   1.537   1.650
79145SOL     OW39266  10.129   2.377  13.490
79145SOL    HW139267  10.167   2.299  13.450
79145SOL    HW239268  10.157   2.449  13.433
79146SOL     OW39269  13.765  10.030   9.244
79146SOL    HW139270  13.774  10.112   9.196
79146SOL    HW239271  13.754  10.056   9.335
79147SOL     OW39272   5.339  10.710   0.693
79147SOL    HW139273   5.300  10.782   0.643
79147SOL    HW239274   5.433  10.721   0.679
79148SOL     OW39275   0.989   5.621   3.507
79148SOL    HW139276   0.974   5.716   3.503
79148SOL    HW239277   0.910   5.582   3.471
79149SOL     OW39278  13.449  10.522   6.720
79149SOL    HW139279  13.472  10.589   6.656
79149SOL    HW239280  13.355  10.510   6.709
79150SOL     OW39281  13.462   3.379   9.830
79150SOL    HW139282  13.501   3.326   9.760
79150SOL    HW239283  13.376   3.404   9.796
79151SOL     OW39284  13.883  12.044  12.583
79151SOL    HW139285  13.854  11.984  12.652
79151SOL    HW239286  13.805  12.061  12.531
79152SOL     OW39287   6.371   1.262   0.590
79152SOL    HW139288   6.396   1.316   0.665
79152SOL    HW239289   6.356   1.175   0.626
79153SOL     OW39290   1.850   5.390  14.091
79153SOL    HW139291   1.882   5.331  14.023
79153SOL    HW239292   1.927   5.443  14.115
79154SOL     OW39293   8.019   2.440   5.196
79154SOL    HW139294   8.017   2.522   5.245
79154SOL    HW239295   7.929   2.428   5.166
79155SOL     OW39296   8.372  13.078   5.613
79155SOL    HW139297   8.423  13.037   5.682
79155SOL    HW239298   8.430  13.145   5.577
79156SOL     OW39299  12.663   4.029   4.039
79156SOL    HW139300  12.731   3.967   4.014
79156SOL    HW239301  12.654   4.087   3.963
79157SOL     OW39302   1.244  10.532  10.779
79157SOL    HW139303   1.286  10.479  10.847
79157SOL    HW239304   1.151  10.520  10.792
79158SOL     OW39305   0.758  10.951  13.571
79158SOL    HW139306   0.707  11.002  13.508
79158SOL    HW239307   0.710  10.869  13.581
79159SOL     OW39308   6.089   6.650   2.593
79159SOL    HW139309   6.073   6.657   2.499
79159SOL    HW239310   6.061   6.562   2.616
79160SOL     OW39311   7.569   2.736  14.367
79160SOL    HW139312   7.582   2.800  14.296
79160SOL    HW239313   7.488   2.765  14.410
79161SOL     OW39314   5.121   0.733   5.652
79161SOL    HW139315   5.205   0.734   5.605
79161SOL    HW239316   5.101   0.640   5.662
79162SOL     OW39317   3.148   4.436   1.838
79162SOL    HW139318   3.084   4.416   1.907
79162SOL    HW239319   3.143   4.531   1.827
79163SOL     OW39320   0.578   2.567   0.184
79163SOL    HW139321   0.540   2.501   0.125
79163SOL    HW239322   0.535   2.649   0.159
79164SOL     OW39323   0.115   7.091   4.813
79164SOL    HW139324   0.036   7.145   4.822
79164SOL    HW239325   0.089   7.005   4.844
79165SOL     OW39326   5.662  12.870  14.564
79165SOL    HW139327   5.570  12.846  14.566
79165SOL    HW239328   5.665  12.955  14.609
79166SOL     OW39329   0.108   8.432  10.942
79166SOL    HW139330   0.195   8.441  10.981
79166SOL    HW239331   0.122   8.449  10.849
79167SOL     OW39332   2.243   7.183  14.600
79167SOL    HW139333   2.186   7.106  14.591
79167SOL    HW239334   2.332   7.147  14.603
79168SOL     OW39335   9.470   1.160   8.629
79168SOL    HW139336   9.454   1.088   8.690
79168SOL    HW239337   9.505   1.117   8.550
79169SOL     OW39338  13.855   3.291   1.229
79169SOL    HW139339  13.848   3.299   1.134
79169SOL    HW239340  13.929   3.232   1.243
79170SOL     OW39341   6.039   9.041   8.898
79170SOL    HW139342   5.995   8.956   8.891
79170SOL    HW239343   6.040   9.075   8.809
79171SOL     OW39344   6.117   1.696   1.167
79171SOL    HW139345   6.094   1.728   1.254
79171SOL    HW239346   6.159   1.770   1.124
79172SOL     OW39347   8.007   6.403   0.509
79172SOL    HW139348   8.012   6.402   0.604
79172SOL    HW239349   8.080   6.459   0.481
79173SOL     OW39350   8.368   7.560   9.070
79173SOL    HW139351   8.390   7.635   9.127
79173SOL    HW239352   8.415   7.578   8.988
79174SOL     OW39353   1.838   8.493  11.536
79174SOL    HW139354   1.919   8.460  11.499
79174SOL    HW239355   1.804   8.553  11.471
79175SOL     OW39356   8.807  13.419   1.046
79175SOL    HW139357   8.794  13.382   1.133
79175SOL    HW239358   8.824  13.512   1.062
79176SOL     OW39359   8.714   5.024   6.367
79176SOL    HW139360   8.674   5.096   6.316
79176SOL    HW239361   8.703   4.947   6.311
79177SOL     OW39362  10.192   1.447   2.750
79177SOL    HW139363  10.261   1.492   2.799
79177SOL    HW239364  10.114   1.456   2.805
79178SOL     OW39365  14.774  14.450   5.109
79178SOL    HW139366  14.692  14.499   5.111
79178SOL    HW239367  14.814  14.465   5.194
79179SOL     OW39368  13.220  14.180   2.498
79179SOL    HW139369  13.271  14.113   2.452
79179SOL    HW239370  13.253  14.178   2.587
79180SOL     OW39371  11.554   2.944  12.378
79180SOL    HW139372  11.471   2.942  12.330
79180SOL    HW239373  11.598   2.863  12.352
79181SOL     OW39374   7.019  14.360   4.963
79181SOL    HW139375   6.947  14.297   4.967
79181SOL    HW239376   7.096  14.307   4.940
79182SOL     OW39377  10.026   0.087  11.599
79182SOL    HW139378  10.121   0.083  11.599
79182SOL    HW239379  10.004   0.157  11.538
79183SOL     OW39380   1.445  11.162  14.067
79183SOL    HW139381   1.533  11.143  14.099
79183SOL    HW239382   1.421  11.245  14.109
79184SOL     OW39383   3.544   5.825   9.430
79184SOL    HW139384   3.559   5.739   9.470
79184SOL    HW239385   3.628   5.848   9.392
79185SOL     OW39386  12.661   6.814   2.630
79185SOL    HW139387  12.698   6.814   2.718
79185SOL    HW239388  12.704   6.741   2.586
79186SOL     OW39389   3.865   1.188  13.894
79186SOL    HW139390   3.957   1.207  13.876
79186SOL    HW239391   3.851   1.219  13.984
79187SOL     OW39392   9.444   3.343   1.502
79187SOL    HW139393   9.480   3.289   1.572
79187SOL    HW239394   9.521   3.376   1.455
79188SOL     OW39395   3.675   6.653   5.605
79188SOL    HW139396   3.666   6.577   5.548
79188SOL    HW239397   3.615   6.718   5.569
79189SOL     OW39398   0.557   5.979   8.882
79189SOL    HW139399   0.587   5.891   8.905
79189SOL    HW239400   0.464   5.979   8.903
79190SOL     OW39401  14.049   2.785   3.273
79190SOL    HW139402  14.070   2.711   3.330
79190SOL    HW239403  14.102   2.857   3.306
79191SOL     OW39404   0.422  11.738   4.819
79191SOL    HW139405   0.515  11.729   4.839
79191SOL    HW239406   0.409  11.682   4.742
79192SOL     OW39407   1.093   9.307   9.637
79192SOL    HW139408   1.066   9.371   9.571
79192SOL    HW239409   1.093   9.357   9.719
79193SOL     OW39410   3.439   3.573   8.661
79193SOL    HW139411   3.487   3.620   8.592
79193SOL    HW239412   3.366   3.531   8.615
79194SOL     OW39413   0.883   0.378   6.471
79194SOL    HW139414   0.925   0.367   6.556
79194SOL    HW239415   0.791   0.394   6.490
79195SOL     OW39416   4.330   8.031   0.089
79195SOL    HW139417   4.386   8.081   0.148
79195SOL    HW239418   4.389   7.969   0.046
79196SOL     OW39419   3.608  13.609  12.380
79196SOL    HW139420   3.615  13.609  12.475
79196SOL    HW239421   3.640  13.523  12.353
79197SOL     OW39422   3.300   7.818   6.632
79197SOL    HW139423   3.353   7.828   6.711
79197SOL    HW239424   3.338   7.881   6.570
79198SOL     OW39425   5.148   6.335  11.674
79198SOL    HW139426   5.139   6.405  11.609
79198SOL    HW239427   5.113   6.373  11.755
79199SOL     OW39428   2.227   8.054   2.734
79199SOL    HW139429   2.237   8.106   2.814
79199SOL    HW239430   2.259   7.967   2.758
79200SOL     OW39431   3.468  13.932   2.227
79200SOL    HW139432   3.460  13.988   2.150
79200SOL    HW239433   3.553  13.888   2.216
79201SOL     OW39434  13.449   7.816   3.916
79201SOL    HW139435  13.430   7.874   3.990
79201SOL    HW239436  13.535   7.779   3.935
79202SOL     OW39437  13.543   6.099   4.767
79202SOL    HW139438  13.574   6.009   4.760
79202SOL    HW239439  13.609   6.151   4.720
79203SOL     OW39440   6.990   9.838  10.486
79203SOL    HW139441   7.086   9.837  10.496
79203SOL    HW239442   6.973   9.911  10.426
79204SOL     OW39443   1.510   2.735   8.052
79204SOL    HW139444   1.433   2.690   8.086
79204SOL    HW239445   1.542   2.678   7.981
79205SOL     OW39446  11.499   9.149   4.683
79205SOL    HW139447  11.560   9.183   4.748
79205SOL    HW239448  11.430   9.108   4.735
79206SOL     OW39449   8.422   7.520   7.388
79206SOL    HW139450   8.430   7.566   7.305
79206SOL    HW239451   8.377   7.581   7.446
79207SOL     OW39452  14.327  13.685   7.406
79207SOL    HW139453  14.418  13.704   7.383
79207SOL    HW239454  14.276  13.747   7.354
79208SOL     OW39455  10.650  12.674   3.681
79208SOL    HW139456  10.559  12.701   3.678
79208SOL    HW239457  10.680  12.680   3.590
79209SOL     OW39458   8.846   5.234   5.177
79209SOL    HW139459   8.844   5.313   5.122
79209SOL    HW239460   8.928   5.241   5.226
79210SOL     OW39461  13.499   5.930   0.192
79210SOL    HW139462  13.444   5.923   0.114
79210SOL    HW239463  13.583   5.892   0.166
79211SOL     OW39464   0.444   6.970   7.325
79211SOL    HW139465   0.517   6.912   7.303
79211SOL    HW239466   0.484   7.046   7.365
79212SOL     OW39467  12.663   2.941   2.392
79212SOL    HW139468  12.683   2.968   2.482
79212SOL    HW239469  12.735   2.883   2.367
79213SOL     OW39470   2.797   1.288   4.660
79213SOL    HW139471   2.838   1.244   4.734
79213SOL    HW239472   2.862   1.353   4.633
79214SOL     OW39473  12.101   9.170   5.926
79214SOL    HW139474  12.030   9.229   5.952
79214SOL    HW239475  12.110   9.183   5.832
79215SOL     OW39476  14.629  14.293   8.591
79215SOL    HW139477  14.657  14.310   8.681
79215SOL    HW239478  14.538  14.266   8.599
79216SOL     OW39479  11.771  11.118  13.581
79216SOL    HW139480  11.795  11.040  13.630
79216SOL    HW239481  11.793  11.191  13.639
79217SOL     OW39482   2.133   7.396   6.784
79217SOL    HW139483   2.175   7.376   6.700
79217SOL    HW239484   2.150   7.489   6.798
79218SOL     OW39485   0.708  13.995   8.112
79218SOL    HW139486   0.716  13.940   8.034
79218SOL    HW239487   0.755  13.946   8.180
79219SOL     OW39488  12.064  13.031  14.760
79219SOL    HW139489  12.070  12.969  14.688
79219SOL    HW239490  12.154  13.062  14.773
79220SOL     OW39491   9.970   9.684   1.772
79220SOL    HW139492   9.907   9.675   1.700
79220SOL    HW239493  10.047   9.723   1.731
79221SOL     OW39494  10.841   5.609   4.953
79221SOL    HW139495  10.833   5.614   4.858
79221SOL    HW239496  10.842   5.701   4.982
79222SOL     OW39497   3.221  10.076   3.600
79222SOL    HW139498   3.243  10.168   3.616
79222SOL    HW239499   3.276  10.027   3.661
79223SOL     OW39500   6.774  12.296   2.231
79223SOL    HW139501   6.819  12.275   2.149
79223SOL    HW239502   6.842  12.330   2.288
79224SOL     OW39503   3.997   4.463   6.982
79224SOL    HW139504   3.990   4.399   6.911
79224SOL    HW239505   3.911   4.504   6.984
79225SOL     OW39506  13.664   2.850   1.696
79225SOL    HW139507  13.583   2.808   1.668
79225SOL    HW239508  13.733   2.798   1.654
79226SOL     OW39509   1.429   3.166  13.665
79226SOL    HW139510   1.334   3.176  13.664
79226SOL    HW239511   1.443   3.075  13.640
79227SOL     OW39512  14.060   2.819  11.891
79227SOL    HW139513  14.022   2.787  11.973
79227SOL    HW239514  14.152   2.792  11.895
79228SOL     OW39515   1.892  13.857   2.926
79228SOL    HW139516   1.911  13.910   2.848
79228SOL    HW239517   1.907  13.767   2.897
79229SOL     OW39518   1.880   5.754   3.277
79229SOL    HW139519   1.813   5.751   3.345
79229SOL    HW239520   1.952   5.803   3.317
79230SOL     OW39521   2.179   2.900   1.864
79230SOL    HW139522   2.168   2.970   1.800
79230SOL    HW239523   2.137   2.933   1.943
79231SOL     OW39524   7.069   1.734   3.282
79231SOL    HW139525   7.084   1.827   3.266
79231SOL    HW239526   7.043   1.699   3.197
79232SOL     OW39527   7.873   5.024   1.664
79232SOL    HW139528   7.802   4.969   1.630
79232SOL    HW239529   7.896   4.984   1.747
79233SOL     OW39530  12.718  10.657  14.444
79233SOL    HW139531  12.689  10.646  14.535
79233SOL    HW239532  12.638  10.644  14.392
79234SOL     OW39533  13.441   7.041   2.760
79234SOL    HW139534  13.421   7.117   2.705
79234SOL    HW239535  13.472   7.078   2.843
79235SOL     OW39536   6.972   0.852  11.170
79235SOL    HW139537   6.987   0.759  11.152
79235SOL    HW239538   7.021   0.898  11.101
79236SOL     OW39539   2.095   0.783  12.699
79236SOL    HW139540   2.181   0.791  12.658
79236SOL    HW239541   2.045   0.727  12.640
79237SOL     OW39542   6.559  13.280  12.464
79237SOL    HW139543   6.464  13.279  12.476
79237SOL    HW239544   6.577  13.211  12.401
79238SOL     OW39545   5.816  11.991   6.715
79238SOL    HW139546   5.781  12.064   6.664
79238SOL    HW239547   5.754  11.920   6.701
79239SOL     OW39548   6.891   5.032   4.503
79239SOL    HW139549   6.917   5.093   4.572
79239SOL    HW239550   6.912   5.077   4.421
79240SOL     OW39551   6.387   2.113   8.280
79240SOL    HW139552   6.442   2.047   8.321
79240SOL    HW239553   6.353   2.070   8.202
79241SOL     OW39554   7.246   8.774  14.291
79241SOL    HW139555   7.266   8.745  14.202
79241SOL    HW239556   7.199   8.700  14.329
79242SOL     OW39557   3.811  13.072  11.433
79242SOL    HW139558   3.835  12.996  11.380
79242SOL    HW239559   3.795  13.141  11.369
79243SOL     OW39560  14.604  11.429   9.773
79243SOL    HW139561  14.654  11.437   9.692
79243SOL    HW239562  14.664  11.458   9.842
79244SOL     OW39563   7.538   8.202   1.417
79244SOL    HW139564   7.525   8.291   1.384
79244SOL    HW239565   7.462   8.186   1.473
79245SOL     OW39566  10.453  13.580   5.531
79245SOL    HW139567  10.429  13.519   5.600
79245SOL    HW239568  10.420  13.540   5.450
79246SOL     OW39569   1.451   2.079   1.082
79246SOL    HW139570   1.362   2.069   1.050
79246SOL    HW239571   1.449   2.157   1.137
79247SOL     OW39572  12.622   4.917  10.856
79247SOL    HW139573  12.690   4.874  10.908
79247SOL    HW239574  12.540   4.890  10.897
79248SOL     OW39575   4.185  14.490   5.465
79248SOL    HW139576   4.271  14.471   5.427
79248SOL    HW239577   4.138  14.407   5.460
79249SOL     OW39578   4.964   9.146   0.187
79249SOL    HW139579   4.948   9.217   0.125
79249SOL    HW239580   4.920   9.173   0.267
79250SOL     OW39581  13.194  13.812   0.087
79250SOL    HW139582  13.165  13.810  14.878
79250SOL    HW239583  13.289  13.824   0.082
79251SOL     OW39584  11.266  13.206   1.386
79251SOL    HW139585  11.215  13.207   1.468
79251SOL    HW239586  11.216  13.262   1.327
79252SOL     OW39587   5.107   9.337   7.554
79252SOL    HW139588   5.031   9.336   7.612
79252SOL    HW239589   5.123   9.245   7.533
79253SOL     OW39590  14.510  10.818   4.565
79253SOL    HW139591  14.515  10.727   4.593
79253SOL    HW239592  14.505  10.868   4.647
79254SOL     OW39593   4.368   3.265   8.325
79254SOL    HW139594   4.340   3.202   8.391
79254SOL    HW239595   4.328   3.347   8.353
79255SOL     OW39596   8.474  14.317  11.755
79255SOL    HW139597   8.422  14.240  11.778
79255SOL    HW239598   8.410  14.385  11.735
79256SOL     OW39599   6.228   2.473   2.461
79256SOL    HW139600   6.267   2.523   2.533
79256SOL    HW239601   6.158   2.422   2.503
79257SOL     OW39602   0.246   5.656   4.207
79257SOL    HW139603   0.239   5.703   4.290
79257SOL    HW239604   0.333   5.678   4.174
79258SOL     OW39605  10.014   3.162  13.146
79258SOL    HW139606  10.067   3.114  13.083
79258SOL    HW239607  10.071   3.174  13.221
79259SOL     OW39608  12.542   8.914   2.903
79259SOL    HW139609  12.606   8.893   2.971
79259SOL    HW239610  12.594   8.931   2.825
79260SOL     OW39611   7.327   2.506  14.154
79260SOL    HW139612   7.342   2.536  14.064
79260SOL    HW239613   7.379   2.566  14.207
79261SOL     OW39614  12.861  12.792   2.366
79261SOL    HW139615  12.956  12.791   2.371
79261SOL    HW239616  12.835  12.700   2.380
79262SOL     OW39617   1.947   6.716  13.947
79262SOL    HW139618   1.864   6.670  13.932
79262SOL    HW239619   2.009   6.647  13.968
79263SOL     OW39620  13.979  12.694  13.230
79263SOL    HW139621  13.963  12.651  13.146
79263SOL    HW239622  14.071  12.721  13.227
79264SOL     OW39623   2.288   1.588   2.620
79264SOL    HW139624   2.303   1.496   2.597
79264SOL    HW239625   2.210   1.587   2.675
79265SOL     OW39626   7.714  13.777   7.590
79265SOL    HW139627   7.791  13.737   7.630
79265SOL    HW239628   7.651  13.706   7.581
79266SOL     OW39629   4.981   7.608   6.611
79266SOL    HW139630   4.909   7.651   6.656
79266SOL    HW239631   5.057   7.622   6.668
79267SOL     OW39632  13.291   5.038   4.324
79267SOL    HW139633  13.310   4.963   4.381
79267SOL    HW239634  13.327   5.113   4.370
79268SOL     OW39635   4.069   9.236   4.092
79268SOL    HW139636   3.999   9.267   4.150
79268SOL    HW239637   4.073   9.300   4.021
79269SOL     OW39638   2.943   2.791   6.932
79269SOL    HW139639   2.911   2.779   6.843
79269SOL    HW239640   3.035   2.765   6.927
79270SOL     OW39641  13.193   1.438   9.778
79270SOL    HW139642  13.287   1.448   9.795
79270SOL    HW239643  13.188   1.419   9.685
79271SOL     OW39644  10.394   4.234  10.983
79271SOL    HW139645  10.480   4.207  11.014
79271SOL    HW239646  10.383   4.187  10.900
79272SOL     OW39647   5.596   9.865   1.807
79272SOL    HW139648   5.612   9.771   1.797
79272SOL    HW239649   5.650   9.891   1.882
79273SOL     OW39650   0.984   7.764   9.526
79273SOL    HW139651   0.906   7.713   9.546
79273SOL    HW239652   0.952   7.852   9.506
79274SOL     OW39653   4.642  14.868   8.041
79274SOL    HW139654   4.700  14.793   8.031
79274SOL    HW239655   4.690   0.047   8.097
79275SOL     OW39656   9.198   3.348   7.853
79275SOL    HW139657   9.145   3.424   7.877
79275SOL    HW239658   9.252   3.332   7.930
79276SOL     OW39659  10.928   5.500  12.590
79276SOL    HW139660  10.874   5.437  12.636
79276SOL    HW239661  11.002   5.449  12.558
79277SOL     OW39662   8.285   6.294   0.660
79277SOL    HW139663   8.371   6.317   0.624
79277SOL    HW239664   8.245   6.238   0.593
79278SOL     OW39665   3.885   8.903  14.152
79278SOL    HW139666   3.845   8.830  14.200
79278SOL    HW239667   3.822   8.975  14.162
79279SOL     OW39668  10.464   2.050   9.160
79279SOL    HW139669  10.544   2.058   9.108
79279SOL    HW239670  10.495   2.025   9.247
79280SOL     OW39671   5.543   7.006   4.691
79280SOL    HW139672   5.603   6.948   4.738
79280SOL    HW239673   5.567   6.996   4.599
79281SOL     OW39674   7.206   8.696   0.969
79281SOL    HW139675   7.235   8.733   0.886
79281SOL    HW239676   7.220   8.602   0.959
79282SOL     OW39677   1.182   5.844   7.076
79282SOL    HW139678   1.108   5.816   7.022
79282SOL    HW239679   1.159   5.817   7.164
79283SOL     OW39680   1.717   8.080   9.477
79283SOL    HW139681   1.766   8.101   9.398
79283SOL    HW239682   1.769   8.013   9.521
79284SOL     OW39683   6.016   7.903   7.503
79284SOL    HW139684   5.926   7.934   7.497
79284SOL    HW239685   6.050   7.944   7.582
79285SOL     OW39686   4.533   0.433  10.834
79285SOL    HW139687   4.615   0.482  10.840
79285SOL    HW239688   4.505   0.444  10.743
79286SOL     OW39689   8.401  14.670   9.928
79286SOL    HW139690   8.437  14.660   9.841
79286SOL    HW239691   8.454  14.738   9.969
79287SOL     OW39692   5.093  13.656   7.382
79287SOL    HW139693   5.171  13.638   7.330
79287SOL    HW239694   5.024  13.672   7.318
79288SOL     OW39695   8.254  14.469   1.607
79288SOL    HW139696   8.301  14.503   1.683
79288SOL    HW239697   8.275  14.529   1.536
79289SOL     OW39698   7.524  14.501   0.078
79289SOL    HW139699   7.506  14.588   0.042
79289SOL    HW239700   7.600  14.471   0.029
79290SOL     OW39701  12.791   3.508   1.209
79290SOL    HW139702  12.871   3.455   1.214
79290SOL    HW239703  12.739   3.465   1.140
79291SOL     OW39704   0.845   7.319   2.665
79291SOL    HW139705   0.769   7.331   2.608
79291SOL    HW239706   0.826   7.372   2.742
79292SOL     OW39707   4.932  11.028   2.485
79292SOL    HW139708   4.876  11.082   2.540
79292SOL    HW239709   5.017  11.029   2.529
79293SOL     OW39710  14.830   5.988  13.982
79293SOL    HW139711   0.004   6.029  13.916
79293SOL    HW239712   0.003   5.921  14.022
79294SOL     OW39713   0.040   3.858  14.169
79294SOL    HW139714  14.847   3.877  14.225
79294SOL    HW239715   0.101   3.930  14.184
79295SOL     OW39716   8.842   2.714   4.615
79295SOL    HW139717   8.917   2.773   4.625
79295SOL    HW239718   8.784   2.736   4.687
79296SOL     OW39719   0.325   4.311   5.933
79296SOL    HW139720   0.327   4.239   5.869
79296SOL    HW239721   0.367   4.275   6.011
79297SOL     OW39722   6.882  13.123   8.740
79297SOL    HW139723   6.813  13.162   8.795
79297SOL    HW239724   6.938  13.197   8.715
79298SOL     OW39725   1.420   2.559   2.418
79298SOL    HW139726   1.465   2.549   2.334
79298SOL    HW239727   1.346   2.617   2.398
79299SOL     OW39728   8.392   7.523   6.804
79299SOL    HW139729   8.312   7.564   6.771
79299SOL    HW239730   8.462   7.562   6.752
79300SOL     OW39731   7.798   3.281   0.049
79300SOL    HW139732   7.877   3.239   0.014
79300SOL    HW239733   7.734   3.273  14.860
79301SOL     OW39734   4.339   4.485   2.061
79301SOL    HW139735   4.286   4.411   2.030
79301SOL    HW239736   4.333   4.481   2.156
79302SOL     OW39737   9.190  14.072   6.892
79302SOL    HW139738   9.158  14.143   6.836
79302SOL    HW239739   9.259  14.030   6.840
79303SOL     OW39740   5.962  13.092   8.484
79303SOL    HW139741   5.983  12.999   8.488
79303SOL    HW239742   5.999  13.122   8.402
79304SOL     OW39743   0.380  14.275   4.458
79304SOL    HW139744   0.433  14.349   4.429
79304SOL    HW239745   0.348  14.301   4.544
79305SOL     OW39746   4.318   6.129   3.545
79305SOL    HW139747   4.395   6.157   3.594
79305SOL    HW239748   4.244   6.164   3.596
79306SOL     OW39749   0.005  12.081  11.406
79306SOL    HW139750   0.079  12.028  11.435
79306SOL    HW239751  14.813  12.049  11.459
79307SOL     OW39752  13.620   4.656   9.184
79307SOL    HW139753  13.623   4.717   9.110
79307SOL    HW239754  13.710   4.626   9.195
79308SOL     OW39755  10.230   6.562   2.928
79308SOL    HW139756  10.150   6.518   2.956
79308SOL    HW239757  10.289   6.557   3.004
79309SOL     OW39758   8.292  14.518   1.121
79309SOL    HW139759   8.239  14.450   1.079
79309SOL    HW239760   8.378  14.510   1.081
79310SOL     OW39761   9.142  13.871   8.842
79310SOL    HW139762   9.107  13.831   8.922
79310SOL    HW239763   9.225  13.825   8.827
79311SOL     OW39764  13.896  12.061  14.384
79311SOL    HW139765  13.950  12.091  14.457
79311SOL    HW239766  13.945  12.088  14.306
79312SOL     OW39767   4.413   0.844   8.367
79312SOL    HW139768   4.324   0.829   8.335
79312SOL    HW239769   4.412   0.813   8.458
79313SOL     OW39770   4.026   1.489   2.981
79313SOL    HW139771   3.977   1.426   2.928
79313SOL    HW239772   4.048   1.559   2.920
79314SOL     OW39773   9.080   1.862   6.549
79314SOL    HW139774   9.133   1.787   6.577
79314SOL    HW239775   9.112   1.883   6.462
79315SOL     OW39776  13.897   1.861   0.301
79315SOL    HW139777  13.811   1.820   0.312
79315SOL    HW239778  13.903   1.925   0.371
79316SOL     OW39779   4.661   5.475   4.149
79316SOL    HW139780   4.691   5.435   4.230
79316SOL    HW239781   4.570   5.500   4.166
79317SOL     OW39782   7.418  10.935   9.395
79317SOL    HW139783   7.357  10.863   9.384
79317SOL    HW239784   7.462  10.917   9.478
79318SOL     OW39785   1.726   4.425   8.926
79318SOL    HW139786   1.692   4.352   8.875
79318SOL    HW239787   1.716   4.398   9.017
79319SOL     OW39788   7.913  13.930   3.711
79319SOL    HW139789   7.887  13.838   3.714
79319SOL    HW239790   7.895  13.957   3.621
79320SOL     OW39791   8.732   0.292   4.677
79320SOL    HW139792   8.643   0.265   4.696
79320SOL    HW239793   8.786   0.243   4.738
79321SOL     OW39794   1.394   2.742   4.362
79321SOL    HW139795   1.478   2.754   4.407
79321SOL    HW239796   1.363   2.831   4.345
79322SOL     OW39797   9.095   7.065   4.973
79322SOL    HW139798   9.029   7.038   5.037
79322SOL    HW239799   9.149   6.987   4.960
79323SOL     OW39800  13.637   9.019   2.144
79323SOL    HW139801  13.557   8.987   2.104
79323SOL    HW239802  13.708   8.972   2.100
79324SOL     OW39803  11.362   8.857   7.198
79324SOL    HW139804  11.374   8.949   7.173
79324SOL    HW239805  11.430   8.810   7.151
79325SOL     OW39806   0.151  12.334  11.249
79325SOL    HW139807   0.075  12.292  11.289
79325SOL    HW239808   0.218  12.332  11.317
79326SOL     OW39809  12.307   6.072  11.091
79326SOL    HW139810  12.347   6.159  11.093
79326SOL    HW239811  12.369   6.016  11.139
79327SOL     OW39812   2.210   2.332  12.032
79327SOL    HW139813   2.255   2.345  11.948
79327SOL    HW239814   2.212   2.238  12.046
79328SOL     OW39815   5.975   2.599   8.119
79328SOL    HW139816   6.061   2.599   8.160
79328SOL    HW239817   5.965   2.689   8.085
79329SOL     OW39818   7.717   8.850   8.380
79329SOL    HW139819   7.719   8.876   8.472
79329SOL    HW239820   7.790   8.897   8.341
79330SOL     OW39821   8.629   5.839   3.068
79330SOL    HW139822   8.603   5.751   3.093
79330SOL    HW239823   8.654   5.882   3.150
79331SOL     OW39824   4.953   5.510   5.376
79331SOL    HW139825   4.971   5.550   5.460
79331SOL    HW239826   4.943   5.583   5.316
79332SOL     OW39827   8.404   0.911   1.227
79332SOL    HW139828   8.404   1.002   1.258
79332SOL    HW239829   8.496   0.886   1.226
79333SOL     OW39830   8.774   2.591   1.081
79333SOL    HW139831   8.844   2.530   1.056
79333SOL    HW239832   8.695   2.555   1.040
79334SOL     OW39833   5.461   3.124   9.853
79334SOL    HW139834   5.471   3.030   9.841
79334SOL    HW239835   5.516   3.145   9.929
79335SOL     OW39836   1.267   1.346   9.777
79335SOL    HW139837   1.308   1.431   9.765
79335SOL    HW239838   1.178   1.357   9.745
79336SOL     OW39839   3.944  10.631   0.286
79336SOL    HW139840   3.859  10.604   0.252
79336SOL    HW239841   4.000  10.554   0.274
79337SOL     OW39842   0.025   6.946  14.774
79337SOL    HW139843   0.084   7.021  14.784
79337SOL    HW239844   0.081   6.870  14.792
79338SOL     OW39845   7.574   4.918   6.845
79338SOL    HW139846   7.657   4.937   6.888
79338SOL    HW239847   7.539   4.842   6.891
79339SOL     OW39848   4.465   4.230  11.902
79339SOL    HW139849   4.466   4.251  11.809
79339SOL    HW239850   4.493   4.138  11.905
79340SOL     OW39851   5.552  12.600   8.612
79340SOL    HW139852   5.498  12.633   8.684
79340SOL    HW239853   5.601  12.527   8.650
79341SOL     OW39854  10.123   7.389   5.101
79341SOL    HW139855  10.115   7.455   5.171
79341SOL    HW239856  10.214   7.360   5.105
79342SOL     OW39857   6.162   8.363   2.867
79342SOL    HW139858   6.183   8.283   2.915
79342SOL    HW239859   6.246   8.410   2.861
79343SOL     OW39860   3.377   3.742   6.792
79343SOL    HW139861   3.449   3.779   6.844
79343SOL    HW239862   3.322   3.696   6.855
79344SOL     OW39863  10.587  11.408   5.553
79344SOL    HW139864  10.603  11.408   5.647
79344SOL    HW239865  10.664  11.364   5.516
79345SOL     OW39866   0.837  12.238   8.832
79345SOL    HW139867   0.860  12.151   8.800
79345SOL    HW239868   0.909  12.263   8.889
79346SOL     OW39869   1.837   3.260   2.663
79346SOL    HW139870   1.893   3.252   2.740
79346SOL    HW239871   1.896   3.288   2.593
79347SOL     OW39872  12.968  12.215   2.255
79347SOL    HW139873  12.921  12.294   2.227
79347SOL    HW239874  12.902  12.164   2.302
79348SOL     OW39875   2.234   1.917   5.125
79348SOL    HW139876   2.271   1.992   5.079
79348SOL    HW239877   2.295   1.845   5.108
79349SOL     OW39878   3.312  10.402   5.867
79349SOL    HW139879   3.389  10.447   5.831
79349SOL    HW239880   3.296  10.445   5.950
79350SOL     OW39881   6.124   2.435   6.868
79350SOL    HW139882   6.145   2.391   6.951
79350SOL    HW239883   6.200   2.492   6.852
79351SOL     OW39884  12.139   8.356   2.183
79351SOL    HW139885  12.061   8.411   2.193
79351SOL    HW239886  12.107   8.276   2.143
79352SOL     OW39887  14.725   8.450   0.810
79352SOL    HW139888  14.645   8.448   0.758
79352SOL    HW239889  14.796   8.445   0.746
79353SOL     OW39890   4.307   4.311   4.559
79353SOL    HW139891   4.325   4.386   4.502
79353SOL    HW239892   4.390   4.263   4.561
79354SOL     OW39893  14.824   5.061   2.559
79354SOL    HW139894  14.750   5.052   2.620
79354SOL    HW239895   0.013   5.013   2.601
79355SOL     OW39896  10.311  14.329   0.668
79355SOL    HW139897  10.331  14.338   0.761
79355SOL    HW239898  10.223  14.292   0.665
79356SOL     OW39899   0.915   6.764   8.772
79356SOL    HW139900   0.987   6.705   8.749
79356SOL    HW239901   0.836   6.715   8.751
79357SOL     OW39902   0.540   4.643   4.327
79357SOL    HW139903   0.605   4.687   4.272
79357SOL    HW239904   0.546   4.551   4.302
79358SOL     OW39905  10.132   5.459   7.104
79358SOL    HW139906  10.180   5.511   7.168
79358SOL    HW239907  10.084   5.524   7.052
79359SOL     OW39908  13.414   8.602   2.506
79359SOL    HW139909  13.342   8.539   2.514
79359SOL    HW239910  13.376   8.676   2.458
79360SOL     OW39911   4.351   2.442   0.596
79360SOL    HW139912   4.420   2.377   0.604
79360SOL    HW239913   4.278   2.396   0.554
79361SOL     OW39914   8.756   6.079   4.527
79361SOL    HW139915   8.743   6.150   4.464
79361SOL    HW239916   8.673   6.072   4.574
79362SOL     OW39917   6.827   1.597  10.711
79362SOL    HW139918   6.883   1.651  10.656
79362SOL    HW239919   6.825   1.643  10.796
79363SOL     OW39920   0.773   0.412   9.943
79363SOL    HW139921   0.840   0.467   9.984
79363SOL    HW239922   0.703   0.406  10.008
79364SOL     OW39923   6.684   2.560   4.797
79364SOL    HW139924   6.597   2.522   4.783
79364SOL    HW239925   6.668   2.655   4.800
79365SOL     OW39926   0.125  10.574  12.255
79365SOL    HW139927   0.213  10.579  12.293
79365SOL    HW239928   0.103  10.481  12.259
79366SOL     OW39929   7.498   4.645   0.248
79366SOL    HW139930   7.540   4.575   0.297
79366SOL    HW239931   7.566   4.711   0.237
79367SOL     OW39932   8.749   9.413  12.853
79367SOL    HW139933   8.748   9.348  12.782
79367SOL    HW239934   8.710   9.368  12.927
79368SOL     OW39935   3.081   5.728   8.208
79368SOL    HW139936   3.123   5.789   8.147
79368SOL    HW239937   3.007   5.778   8.243
79369SOL     OW39938  13.720   4.055   8.734
79369SOL    HW139939  13.793   4.040   8.795
79369SOL    HW239940  13.679   3.969   8.724
79370SOL     OW39941   8.966   3.767   1.019
79370SOL    HW139942   8.979   3.821   1.097
79370SOL    HW239943   9.011   3.685   1.038
79371SOL     OW39944  13.665  11.991   8.585
79371SOL    HW139945  13.639  12.065   8.530
79371SOL    HW239946  13.723  11.939   8.529
79372SOL     OW39947   1.798   0.364   1.998
79372SOL    HW139948   1.877   0.411   1.970
79372SOL    HW239949   1.827   0.274   2.014
79373SOL     OW39950   8.533   2.831   1.188
79373SOL    HW139951   8.613   2.828   1.135
79373SOL    HW239952   8.540   2.754   1.245
79374SOL     OW39953  11.189  12.511   0.359
79374SOL    HW139954  11.167  12.540   0.448
79374SOL    HW239955  11.187  12.415   0.364
79375SOL     OW39956  11.721  10.715   8.482
79375SOL    HW139957  11.760  10.781   8.539
79375SOL    HW239958  11.675  10.656   8.541
79376SOL     OW39959  10.037   2.550  12.951
79376SOL    HW139960   9.978   2.625  12.944
79376SOL    HW239961  10.013   2.508  13.034
79377SOL     OW39962  14.301   1.816  11.004
79377SOL    HW139963  14.352   1.893  11.029
79377SOL    HW239964  14.223   1.852  10.962
79378SOL     OW39965   4.461   1.675  12.629
79378SOL    HW139966   4.556   1.666  12.640
79378SOL    HW239967   4.439   1.608  12.564
79379SOL     OW39968   9.401   8.109   1.491
79379SOL    HW139969   9.407   8.157   1.409
79379SOL    HW239970   9.492   8.099   1.520
79380SOL     OW39971   2.722  14.243   0.780
79380SOL    HW139972   2.720  14.284   0.867
79380SOL    HW239973   2.800  14.280   0.738
79381SOL     OW39974   9.935  13.588   5.880
79381SOL    HW139975   9.875  13.609   5.952
79381SOL    HW239976   9.884  13.607   5.801
79382SOL     OW39977   6.796  12.901   1.326
79382SOL    HW139978   6.807  12.936   1.415
79382SOL    HW239979   6.780  12.979   1.272
79383SOL     OW39980   4.962   7.771   3.749
79383SOL    HW139981   4.908   7.707   3.795
79383SOL    HW239982   4.899   7.824   3.700
79384SOL     OW39983   8.775   2.650   6.628
79384SOL    HW139984   8.766   2.589   6.554
79384SOL    HW239985   8.863   2.685   6.619
79385SOL     OW39986   4.470   5.909  10.095
79385SOL    HW139987   4.562   5.919  10.069
79385SOL    HW239988   4.441   5.997  10.116
79386SOL     OW39989   2.576   4.976   9.571
79386SOL    HW139990   2.601   4.887   9.595
79386SOL    HW239991   2.481   4.975   9.571
79387SOL     OW39992  12.749  11.734   5.447
79387SOL    HW139993  12.833  11.748   5.404
79387SOL    HW239994  12.743  11.639   5.455
79388SOL     OW39995   2.887   7.157   4.987
79388SOL    HW139996   2.973   7.175   5.024
79388SOL    HW239997   2.858   7.242   4.952
79389SOL     OW39998  11.832  10.800   6.571
79389SOL    HW139999  11.764  10.793   6.638
79389SOL    HW240000  11.785  10.811   6.489
79390SOL     OW40001   1.958   9.950   9.888
79390SOL    HW140002   1.873   9.926   9.924
79390SOL    HW240003   2.007   9.868   9.883
79391SOL     OW40004  12.202   2.000   9.835
79391SOL    HW140005  12.133   2.015   9.771
79391SOL    HW240006  12.245   2.086   9.844
79392SOL     OW40007  11.553  11.501  12.687
79392SOL    HW140008  11.557  11.591  12.720
79392SOL    HW240009  11.633  11.460  12.720
79393SOL     OW40010   6.789  13.784  10.254
79393SOL    HW140011   6.742  13.701  10.245
79393SOL    HW240012   6.724  13.846  10.286
79394SOL     OW40013  10.014   7.185   7.753
79394SOL    HW140014  10.026   7.279   7.738
79394SOL    HW240015  10.022   7.175   7.848
79395SOL     OW40016  12.963   4.853   1.921
79395SOL    HW140017  13.010   4.844   1.839
79395SOL    HW240018  12.958   4.763   1.956
79396SOL     OW40019  10.442  13.476   7.168
79396SOL    HW140020  10.499  13.409   7.205
79396SOL    HW240021  10.381  13.427   7.112
79397SOL     OW40022   8.148  13.326   9.793
79397SOL    HW140023   8.201  13.366   9.724
79397SOL    HW240024   8.151  13.232   9.774
79398SOL     OW40025   8.608   3.884   1.970
79398SOL    HW140026   8.554   3.874   2.049
79398SOL    HW240027   8.546   3.874   1.898
79399SOL     OW40028  12.283   7.240  11.815
79399SOL    HW140029  12.196   7.279  11.824
79399SOL    HW240030  12.339   7.291  11.874
79400SOL     OW40031   6.820   1.894   2.815
79400SOL    HW140032   6.775   1.965   2.769
79400SOL    HW240033   6.750   1.847   2.860
79401SOL     OW40034   8.183   2.024   2.078
79401SOL    HW140035   8.128   2.039   2.155
79401SOL    HW240036   8.265   1.989   2.114
79402SOL     OW40037  13.324  10.370  10.875
79402SOL    HW140038  13.347  10.277  10.871
79402SOL    HW240039  13.376  10.411  10.806
79403SOL     OW40040   5.673   6.175   1.211
79403SOL    HW140041   5.603   6.119   1.177
79403SOL    HW240042   5.727   6.196   1.135
79404SOL     OW40043   8.439  10.881   0.743
79404SOL    HW140044   8.490  10.898   0.822
79404SOL    HW240045   8.363  10.939   0.750
79405SOL     OW40046  10.406   1.405   1.977
79405SOL    HW140047  10.335   1.442   2.029
79405SOL    HW240048  10.477   1.468   1.984
79406SOL     OW40049  14.621  12.380  12.871
79406SOL    HW140050  14.714  12.395  12.854
79406SOL    HW240051  14.592  12.326  12.798
79407SOL     OW40052  10.006  14.406   7.567
79407SOL    HW140053  10.011  14.347   7.491
79407SOL    HW240054   9.965  14.354   7.635
79408SOL     OW40055  12.306   1.600   8.049
79408SOL    HW140056  12.261   1.664   8.104
79408SOL    HW240057  12.356   1.653   7.986
79409SOL     OW40058   2.873   3.839   8.665
79409SOL    HW140059   2.909   3.852   8.753
79409SOL    HW240060   2.934   3.885   8.607
79410SOL     OW40061   4.914  13.745   1.303
79410SOL    HW140062   4.949  13.676   1.358
79410SOL    HW240063   4.824  13.719   1.286
79411SOL     OW40064  14.165   0.780   1.609
79411SOL    HW140065  14.092   0.830   1.646
79411SOL    HW240066  14.131   0.744   1.527
79412SOL     OW40067   4.024   9.011   0.877
79412SOL    HW140068   4.087   9.081   0.893
79412SOL    HW240069   4.057   8.968   0.798
79413SOL     OW40070  11.404   3.579   2.402
79413SOL    HW140071  11.403   3.644   2.472
79413SOL    HW240072  11.391   3.629   2.322
79414SOL     OW40073   2.983  14.371   1.108
79414SOL    HW140074   3.016  14.342   1.022
79414SOL    HW240075   2.914  14.308   1.129
79415SOL     OW40076   2.456   6.168   7.541
79415SOL    HW140077   2.412   6.124   7.614
79415SOL    HW240078   2.388   6.177   7.474
79416SOL     OW40079   0.287   3.947   4.471
79416SOL    HW140080   0.216   3.962   4.534
79416SOL    HW240081   0.344   3.884   4.514
79417SOL     OW40082   0.029   3.914   3.891
79417SOL    HW140083   0.085   3.837   3.883
79417SOL    HW240084   0.090   3.985   3.914
79418SOL     OW40085   9.114   0.875  14.330
79418SOL    HW140086   9.126   0.826  14.249
79418SOL    HW240087   9.199   0.915  14.347
79419SOL     OW40088   7.454   0.250  12.741
79419SOL    HW140089   7.378   0.222  12.691
79419SOL    HW240090   7.477   0.174  12.794
79420SOL     OW40091   6.756   3.471   1.641
79420SOL    HW140092   6.709   3.549   1.611
79420SOL    HW240093   6.782   3.426   1.561
79421SOL     OW40094   1.606   5.626   4.375
79421SOL    HW140095   1.572   5.536   4.372
79421SOL    HW240096   1.539   5.679   4.334
79422SOL     OW40097   0.835   7.947   6.917
79422SOL    HW140098   0.752   7.929   6.961
79422SOL    HW240099   0.902   7.920   6.980
79423SOL     OW40100   8.042  11.663  12.995
79423SOL    HW140101   8.095  11.662  12.915
79423SOL    HW240102   8.028  11.756  13.013
79424SOL     OW40103   6.933  13.180  11.268
79424SOL    HW140104   6.872  13.243  11.308
79424SOL    HW240105   6.998  13.235  11.224
79425SOL     OW40106  11.613   0.946   5.185
79425SOL    HW140107  11.707   0.943   5.168
79425SOL    HW240108  11.595   1.039   5.200
79426SOL     OW40109   2.978   8.953   2.735
79426SOL    HW140110   2.913   8.896   2.693
79426SOL    HW240111   3.058   8.939   2.685
79427SOL     OW40112   2.410   7.214   9.801
79427SOL    HW140113   2.502   7.209   9.826
79427SOL    HW240114   2.404   7.165   9.719
79428SOL     OW40115   7.386   1.714  14.138
79428SOL    HW140116   7.362   1.738  14.048
79428SOL    HW240117   7.331   1.638  14.157
79429SOL     OW40118   6.797  13.071   6.893
79429SOL    HW140119   6.773  13.149   6.843
79429SOL    HW240120   6.887  13.052   6.867
79430SOL     OW40121  10.227  14.090   0.505
79430SOL    HW140122  10.294  14.149   0.539
79430SOL    HW240123  10.220  14.021   0.571
79431SOL     OW40124   7.515  14.134  13.660
79431SOL    HW140125   7.560  14.093  13.586
79431SOL    HW240126   7.470  14.210  13.623
79432SOL     OW40127  14.265   1.449   7.906
79432SOL    HW140128  14.243   1.542   7.898
79432SOL    HW240129  14.222   1.408   7.831
79433SOL     OW40130  11.429   6.220   8.237
79433SOL    HW140131  11.442   6.308   8.274
79433SOL    HW240132  11.334   6.212   8.228
79434SOL     OW40133   1.760  11.855  12.599
79434SOL    HW140134   1.788  11.942  12.572
79434SOL    HW240135   1.821  11.795  12.556
79435SOL     OW40136   7.354   8.298   4.966
79435SOL    HW140137   7.358   8.382   5.013
79435SOL    HW240138   7.426   8.302   4.904
79436SOL     OW40139  13.957  12.738  14.443
79436SOL    HW140140  13.909  12.777  14.517
79436SOL    HW240141  13.950  12.643  14.458
79437SOL     OW40142   7.263  12.430  12.442
79437SOL    HW140143   7.223  12.484  12.510
79437SOL    HW240144   7.230  12.342  12.459
79438SOL     OW40145   2.525   2.111   9.661
79438SOL    HW140146   2.500   2.138   9.573
79438SOL    HW240147   2.450   2.135   9.715
79439SOL     OW40148  12.274   1.958   0.906
79439SOL    HW140149  12.209   1.972   0.838
79439SOL    HW240150  12.232   1.899   0.968
79440SOL     OW40151   9.227  14.311   0.993
79440SOL    HW140152   9.287  14.254   0.945
79440SOL    HW240153   9.269  14.323   1.078
79441SOL     OW40154  13.206   6.554   5.188
79441SOL    HW140155  13.155   6.609   5.248
79441SOL    HW240156  13.159   6.471   5.186
79442SOL     OW40157   0.765  12.433   7.290
79442SOL    HW140158   0.805  12.398   7.369
79442SOL    HW240159   0.710  12.362   7.256
79443SOL     OW40160   5.358  12.902   2.738
79443SOL    HW140161   5.269  12.870   2.755
79443SOL    HW240162   5.362  12.912   2.643
79444SOL     OW40163   1.369   9.220   9.611
79444SOL    HW140164   1.393   9.168   9.534
79444SOL    HW240165   1.284   9.258   9.589
79445SOL     OW40166   7.165   9.894   6.431
79445SOL    HW140167   7.176   9.873   6.524
79445SOL    HW240168   7.155   9.808   6.389
79446SOL     OW40169   2.052   9.707   8.278
79446SOL    HW140170   2.141   9.740   8.267
79446SOL    HW240171   1.998   9.786   8.281
79447SOL     OW40172   3.909   1.665   0.586
79447SOL    HW140173   3.853   1.689   0.512
79447SOL    HW240174   3.873   1.714   0.660
79448SOL     OW40175   4.721   7.741   7.554
79448SOL    HW140176   4.670   7.717   7.477
79448SOL    HW240177   4.660   7.730   7.627
79449SOL     OW40178   0.388   4.560   9.252
79449SOL    HW140179   0.402   4.517   9.337
79449SOL    HW240180   0.307   4.521   9.219
79450SOL     OW40181   0.738  14.630   0.177
79450SOL    HW140182   0.689  14.704   0.143
79450SOL    HW240183   0.826  14.665   0.195
79451SOL     OW40184  12.076  10.840  11.777
79451SOL    HW140185  12.150  10.829  11.837
79451SOL    HW240186  11.999  10.844  11.833
79452SOL     OW40187   4.848   2.555  10.338
79452SOL    HW140188   4.861   2.598  10.423
79452SOL    HW240189   4.753   2.560  10.324
79453SOL     OW40190   7.078   0.132   5.547
79453SOL    HW140191   7.075   0.040   5.573
79453SOL    HW240192   7.012   0.174   5.602
79454SOL     OW40193   8.732   2.846  12.541
79454SOL    HW140194   8.754   2.773  12.483
79454SOL    HW240195   8.648   2.821  12.580
79455SOL     OW40196  10.825   5.016   2.306
79455SOL    HW140197  10.898   4.955   2.298
79455SOL    HW240198  10.802   5.015   2.399
79456SOL     OW40199   6.730   0.063  10.234
79456SOL    HW140200   6.751   0.130  10.170
79456SOL    HW240201   6.653   0.019  10.199
79457SOL     OW40202   7.118   3.393   2.800
79457SOL    HW140203   7.124   3.315   2.745
79457SOL    HW240204   7.067   3.365   2.877
79458SOL     OW40205  14.864  12.423  14.684
79458SOL    HW140206  14.773  12.419  14.713
79458SOL    HW240207   0.033  12.419  14.764
79459SOL     OW40208   1.711   9.091   8.764
79459SOL    HW140209   1.673   9.167   8.807
79459SOL    HW240210   1.743   9.036   8.836
79460SOL     OW40211   2.978   5.180   2.560
79460SOL    HW140212   2.906   5.197   2.621
79460SOL    HW240213   2.972   5.251   2.496
79461SOL     OW40214   8.594  14.562   8.123
79461SOL    HW140215   8.591  14.656   8.140
79461SOL    HW240216   8.682  14.547   8.089
79462SOL     OW40217   0.576   6.109   5.737
79462SOL    HW140218   0.590   6.154   5.820
79462SOL    HW240219   0.482   6.112   5.723
79463SOL     OW40220   7.427   4.818  10.754
79463SOL    HW140221   7.499   4.759  10.732
79463SOL    HW240222   7.414   4.806  10.848
79464SOL     OW40223   5.239  12.531   7.247
79464SOL    HW140224   5.324  12.491   7.234
79464SOL    HW240225   5.254  12.601   7.310
79465SOL     OW40226   3.039   6.560   0.237
79465SOL    HW140227   3.017   6.640   0.189
79465SOL    HW240228   3.084   6.505   0.172
79466SOL     OW40229   1.660  12.924  12.225
79466SOL    HW140230   1.702  12.867  12.290
79466SOL    HW240231   1.732  12.956  12.171
79467SOL     OW40232   6.488   2.609   9.580
79467SOL    HW140233   6.529   2.665   9.514
79467SOL    HW240234   6.431   2.550   9.531
79468SOL     OW40235  10.056  10.371   1.448
79468SOL    HW140236  10.103  10.433   1.503
79468SOL    HW240237  10.054  10.290   1.499
79469SOL     OW40238   3.615   7.020   1.134
79469SOL    HW140239   3.587   7.037   1.044
79469SOL    HW240240   3.687   6.958   1.126
79470SOL     OW40241   6.108   4.260  11.981
79470SOL    HW140242   6.186   4.287  12.029
79470SOL    HW240243   6.062   4.342  11.963
79471SOL     OW40244  14.224   0.993   8.580
79471SOL    HW140245  14.221   0.901   8.605
79471SOL    HW240246  14.211   0.992   8.485
79472SOL     OW40247  13.046  13.608   3.826
79472SOL    HW140248  13.022  13.547   3.896
79472SOL    HW240249  13.065  13.552   3.751
79473SOL     OW40250   6.602   8.227  12.647
79473SOL    HW140251   6.539   8.268  12.706
79473SOL    HW240252   6.684   8.271  12.666
79474SOL     OW40253  11.271   2.289   7.785
79474SOL    HW140254  11.195   2.281   7.843
79474SOL    HW240255  11.259   2.373   7.741
79475SOL     OW40256   2.648   5.700   1.713
79475SOL    HW140257   2.742   5.714   1.709
79475SOL    HW240258   2.615   5.776   1.762
79476SOL     OW40259  10.417   9.711  10.651
79476SOL    HW140260  10.480   9.772  10.613
79476SOL    HW240261  10.394   9.750  10.736
79477SOL     OW40262   4.663   6.759  12.700
79477SOL    HW140263   4.639   6.680  12.748
79477SOL    HW240264   4.632   6.742  12.610
79478SOL     OW40265   0.282   8.228   1.134
79478SOL    HW140266   0.334   8.189   1.204
79478SOL    HW240267   0.256   8.314   1.168
79479SOL     OW40268   5.692   0.133  13.133
79479SOL    HW140269   5.647   0.215  13.151
79479SOL    HW240270   5.782   0.158  13.113
79480SOL     OW40271  11.378  10.809   4.476
79480SOL    HW140272  11.297  10.781   4.517
79480SOL    HW240273  11.386  10.753   4.398
79481SOL     OW40274   1.765  12.892   0.080
79481SOL    HW140275   1.759  12.869   0.173
79481SOL    HW240276   1.726  12.980   0.075
79482SOL     OW40277  14.872  10.983  10.336
79482SOL    HW140278  14.873  11.024  10.250
79482SOL    HW240279  14.877  10.889  10.319
79483SOL     OW40280   4.500   2.669   4.422
79483SOL    HW140281   4.504   2.609   4.497
79483SOL    HW240282   4.448   2.743   4.454
79484SOL     OW40283   7.131   9.611   9.802
79484SOL    HW140284   7.042   9.588   9.777
79484SOL    HW240285   7.121   9.663   9.882
79485SOL     OW40286   4.653  11.792   6.127
79485SOL    HW140287   4.593  11.758   6.061
79485SOL    HW240288   4.727  11.826   6.077
79486SOL     OW40289   5.148   4.007   7.033
79486SOL    HW140290   5.142   3.912   7.022
79486SOL    HW240291   5.205   4.018   7.109
79487SOL     OW40292  13.872  12.753   2.855
79487SOL    HW140293  13.917  12.712   2.929
79487SOL    HW240294  13.860  12.844   2.882
79488SOL     OW40295  11.351  12.792  13.560
79488SOL    HW140296  11.387  12.785  13.649
79488SOL    HW240297  11.297  12.871  13.563
79489SOL     OW40298  11.278   7.081   2.598
79489SOL    HW140299  11.206   7.112   2.652
79489SOL    HW240300  11.283   7.144   2.526
79490SOL     OW40301  13.223  14.863   7.785
79490SOL    HW140302  13.158   0.005   7.852
79490SOL    HW240303  13.171  14.830   7.712
79491SOL     OW40304   4.437  14.649  13.250
79491SOL    HW140305   4.342  14.647  13.262
79491SOL    HW240306   4.472  14.684  13.332
79492SOL     OW40307   8.699   8.607   6.373
79492SOL    HW140308   8.788   8.586   6.403
79492SOL    HW240309   8.649   8.527   6.387
79493SOL     OW40310  11.287   2.871  12.198
79493SOL    HW140311  11.248   2.788  12.225
79493SOL    HW240312  11.322   2.854  12.111
79494SOL     OW40313   5.009   8.698   1.135
79494SOL    HW140314   5.076   8.651   1.186
79494SOL    HW240315   5.059   8.747   1.069
79495SOL     OW40316   8.472   7.723   3.791
79495SOL    HW140317   8.548   7.666   3.805
79495SOL    HW240318   8.496   7.806   3.832
79496SOL     OW40319  14.080  13.192   3.183
79496SOL    HW140320  14.024  13.118   3.160
79496SOL    HW240321  14.092  13.240   3.101
79497SOL     OW40322   8.742   7.847   6.965
79497SOL    HW140323   8.801   7.916   6.996
79497SOL    HW240324   8.712   7.877   6.879
79498SOL     OW40325   1.624  13.179   6.048
79498SOL    HW140326   1.587  13.202   5.963
79498SOL    HW240327   1.695  13.117   6.028
79499SOL     OW40328   5.762  14.229   9.037
79499SOL    HW140329   5.679  14.234   9.085
79499SOL    HW240330   5.818  14.293   9.080
79500SOL     OW40331   9.468   6.805  11.106
79500SOL    HW140332   9.529   6.830  11.037
79500SOL    HW240333   9.401   6.873  11.105
79501SOL     OW40334   7.537   4.917  12.965
79501SOL    HW140335   7.463   4.968  12.933
79501SOL    HW240336   7.529   4.833  12.921
79502SOL     OW40337  14.593   0.161  11.097
79502SOL    HW140338  14.567   0.187  11.186
79502SOL    HW240339  14.650   0.231  11.066
79503SOL     OW40340  12.634   4.290   0.795
79503SOL    HW140341  12.564   4.305   0.860
79503SOL    HW240342  12.689   4.222   0.834
79504SOL     OW40343   0.322   8.285  13.660
79504SOL    HW140344   0.385   8.295  13.731
79504SOL    HW240345   0.371   8.304  13.581
79505SOL     OW40346   0.540   2.182  14.770
79505SOL    HW140347   0.536   2.274  14.799
79505SOL    HW240348   0.454   2.146  14.791
79506SOL     OW40349   9.730   5.413  10.520
79506SOL    HW140350   9.738   5.366  10.437
79506SOL    HW240351   9.682   5.353  10.577
79507SOL     OW40352   6.317   6.504  12.722
79507SOL    HW140353   6.260   6.578  12.740
79507SOL    HW240354   6.257   6.434  12.696
79508SOL     OW40355  12.173  14.424   5.351
79508SOL    HW140356  12.253  14.379   5.376
79508SOL    HW240357  12.103  14.363   5.375
79509SOL     OW40358   2.352  13.476   3.997
79509SOL    HW140359   2.311  13.539   3.939
79509SOL    HW240360   2.376  13.403   3.941
79510SOL     OW40361   9.995  12.638   0.629
79510SOL    HW140362   9.965  12.724   0.600
79510SOL    HW240363   9.971  12.578   0.559
79511SOL     OW40364  12.313   1.515  10.857
79511SOL    HW140365  12.285   1.455  10.926
79511SOL    HW240366  12.234   1.562  10.832
79512SOL     OW40367   6.878   2.486  10.853
79512SOL    HW140368   6.849   2.510  10.941
79512SOL    HW240369   6.881   2.569  10.805
79513SOL     OW40370   0.583  10.136   9.279
79513SOL    HW140371   0.568  10.175   9.193
79513SOL    HW240372   0.560  10.044   9.268
79514SOL     OW40373   4.783  13.514   8.468
79514SOL    HW140374   4.813  13.488   8.381
79514SOL    HW240375   4.701  13.467   8.480
79515SOL     OW40376   2.022   3.233   5.539
79515SOL    HW140377   2.043   3.158   5.595
79515SOL    HW240378   1.953   3.201   5.481
79516SOL     OW40379   7.627   2.290   2.990
79516SOL    HW140380   7.622   2.340   2.909
79516SOL    HW240381   7.699   2.228   2.976
79517SOL     OW40382  14.511   2.831   0.211
79517SOL    HW140383  14.543   2.746   0.182
79517SOL    HW240384  14.455   2.811   0.286
79518SOL     OW40385   1.544   3.012  10.850
79518SOL    HW140386   1.517   2.995  10.940
79518SOL    HW240387   1.467   2.992  10.798
79519SOL     OW40388   9.345  12.054   9.869
79519SOL    HW140389   9.421  11.999   9.888
79519SOL    HW240390   9.299  12.008   9.798
79520SOL     OW40391   8.386   8.648  14.142
79520SOL    HW140392   8.404   8.736  14.175
79520SOL    HW240393   8.420   8.649  14.052
79521SOL     OW40394   0.943   6.875  14.173
79521SOL    HW140395   1.001   6.921  14.233
79521SOL    HW240396   0.966   6.783  14.182
79522SOL     OW40397  14.422   6.811   4.520
79522SOL    HW140398  14.397   6.723   4.548
79522SOL    HW240399  14.443   6.802   4.427
79523SOL     OW40400   9.646   7.975  14.570
79523SOL    HW140401   9.723   8.032  14.566
79523SOL    HW240402   9.575   8.033  14.596
79524SOL     OW40403   0.263   9.302   4.534
79524SOL    HW140404   0.245   9.233   4.470
79524SOL    HW240405   0.254   9.259   4.619
79525SOL     OW40406   1.221  14.323   1.089
79525SOL    HW140407   1.186  14.271   1.162
79525SOL    HW240408   1.287  14.380   1.130
79526SOL     OW40409  11.042   9.665   4.282
79526SOL    HW140410  11.045   9.592   4.344
79526SOL    HW240411  11.039   9.624   4.196
79527SOL     OW40412  12.745   7.614   6.289
79527SOL    HW140413  12.652   7.590   6.300
79527SOL    HW240414  12.786   7.589   6.371
79528SOL     OW40415  14.610   7.198   1.518
79528SOL    HW140416  14.585   7.215   1.609
79528SOL    HW240417  14.545   7.245   1.466
79529SOL     OW40418  10.435  14.080  13.420
79529SOL    HW140419  10.427  14.137  13.497
79529SOL    HW240420  10.359  14.022  13.425
79530SOL     OW40421   6.977   6.832  13.597
79530SOL    HW140422   7.013   6.744  13.607
79530SOL    HW240423   7.054   6.888  13.581
79531SOL     OW40424   0.037   9.855   0.511
79531SOL    HW140425   0.007   9.828   0.598
79531SOL    HW240426   0.100   9.787   0.486
79532SOL     OW40427   0.148   1.494   9.201
79532SOL    HW140428   0.107   1.516   9.284
79532SOL    HW240429   0.139   1.399   9.195
79533SOL     OW40430   1.538  12.026   1.091
79533SOL    HW140431   1.485  12.042   1.013
79533SOL    HW240432   1.536  12.109   1.139
79534SOL     OW40433  12.623   2.015   9.501
79534SOL    HW140434  12.596   1.925   9.517
79534SOL    HW240435  12.543   2.067   9.511
79535SOL     OW40436   8.459   6.191  12.332
79535SOL    HW140437   8.548   6.167  12.307
79535SOL    HW240438   8.407   6.113  12.314
79536SOL     OW40439   7.656   4.145   7.022
79536SOL    HW140440   7.628   4.064   6.980
79536SOL    HW240441   7.667   4.122   7.114
79537SOL     OW40442  10.380   3.157   7.097
79537SOL    HW140443  10.415   3.115   7.018
79537SOL    HW240444  10.373   3.250   7.075
79538SOL     OW40445  12.713   3.781   0.604
79538SOL    HW140446  12.677   3.699   0.638
79538SOL    HW240447  12.688   3.781   0.511
79539SOL     OW40448   8.838   8.156   3.488
79539SOL    HW140449   8.847   8.147   3.393
79539SOL    HW240450   8.807   8.071   3.518
79540SOL     OW40451  12.385   8.033   3.032
79540SOL    HW140452  12.475   8.053   3.005
79540SOL    HW240453  12.353   8.116   3.068
79541SOL     OW40454   5.581  10.480  12.026
79541SOL    HW140455   5.620  10.468  11.939
79541SOL    HW240456   5.633  10.423  12.082
79542SOL     OW40457  13.410   5.057   9.188
79542SOL    HW140458  13.328   5.007   9.187
79542SOL    HW240459  13.420   5.085   9.279
79543SOL     OW40460   2.757  10.260  10.377
79543SOL    HW140461   2.671  10.292  10.404
79543SOL    HW240462   2.806  10.338  10.353
79544SOL     OW40463   8.307   1.370   2.656
79544SOL    HW140464   8.347   1.290   2.623
79544SOL    HW240465   8.216   1.364   2.629
79545SOL     OW40466   7.098   5.520   9.847
79545SOL    HW140467   7.160   5.542   9.778
79545SOL    HW240468   7.054   5.441   9.816
79546SOL     OW40469   4.064  10.613  14.019
79546SOL    HW140470   4.150  10.619  13.979
79546SOL    HW240471   4.003  10.612  13.945
79547SOL     OW40472   9.931   4.741   2.889
79547SOL    HW140473   9.861   4.676   2.899
79547SOL    HW240474  10.006   4.701   2.933
79548SOL     OW40475   1.369  12.293  10.925
79548SOL    HW140476   1.319  12.373  10.913
79548SOL    HW240477   1.304  12.227  10.949
79549SOL     OW40478   1.885  14.591   9.354
79549SOL    HW140479   1.790  14.591   9.345
79549SOL    HW240480   1.908  14.498   9.355
79550SOL     OW40481   8.382   3.807   0.916
79550SOL    HW140482   8.453   3.871   0.922
79550SOL    HW240483   8.401   3.757   0.837
79551SOL     OW40484  11.073   9.036   2.100
79551SOL    HW140485  11.105   8.965   2.043
79551SOL    HW240486  10.979   9.021   2.105
79552SOL     OW40487  11.685   9.315   5.369
79552SOL    HW140488  11.712   9.224   5.355
79552SOL    HW240489  11.591   9.315   5.352
79553SOL     OW40490   9.864   0.751   6.482
79553SOL    HW140491   9.792   0.759   6.419
79553SOL    HW240492   9.885   0.657   6.481
79554SOL     OW40493   0.715  10.997  12.527
79554SOL    HW140494   0.760  10.958  12.453
79554SOL    HW240495   0.623  10.999  12.501
79555SOL     OW40496  11.287   6.911  10.849
79555SOL    HW140497  11.248   6.869  10.926
79555SOL    HW240498  11.381   6.912  10.868
79556SOL     OW40499  14.171   0.887   7.375
79556SOL    HW140500  14.155   0.949   7.446
79556SOL    HW240501  14.137   0.931   7.297
79557SOL     OW40502   9.656  10.660   7.051
79557SOL    HW140503   9.705  10.738   7.076
79557SOL    HW240504   9.632  10.620   7.135
79558SOL     OW40505  12.673   6.676   0.706
79558SOL    HW140506  12.674   6.675   0.801
79558SOL    HW240507  12.747   6.732   0.682
79559SOL     OW40508  12.332  14.879   4.584
79559SOL    HW140509  12.255  14.832   4.616
79559SOL    HW240510  12.324  14.875   4.488
79560SOL     OW40511  12.193   4.506  14.815
79560SOL    HW140512  12.168   4.556   0.010
79560SOL    HW240513  12.265   4.556  14.776
79561SOL     OW40514  14.559  12.181   8.513
79561SOL    HW140515  14.584  12.257   8.566
79561SOL    HW240516  14.573  12.106   8.572
79562SOL     OW40517   3.961   3.418   2.714
79562SOL    HW140518   3.911   3.345   2.678
79562SOL    HW240519   3.894   3.474   2.754
79563SOL     OW40520   2.165  11.555  12.231
79563SOL    HW140521   2.147  11.627  12.171
79563SOL    HW240522   2.137  11.477  12.183
79564SOL     OW40523   8.463   0.682   8.915
79564SOL    HW140524   8.543   0.636   8.890
79564SOL    HW240525   8.404   0.612   8.945
79565SOL     OW40526   9.509   6.129   4.877
79565SOL    HW140527   9.591   6.119   4.829
79565SOL    HW240528   9.536   6.155   4.965
79566SOL     OW40529   4.356   9.875   3.907
79566SOL    HW140530   4.292   9.814   3.870
79566SOL    HW240531   4.404   9.824   3.971
79567SOL     OW40532  11.937   2.711  13.912
79567SOL    HW140533  11.994   2.761  13.854
79567SOL    HW240534  11.994   2.682  13.983
79568SOL     OW40535  10.771   3.479  13.460
79568SOL    HW140536  10.752   3.501  13.369
79568SOL    HW240537  10.854   3.430  13.456
79569SOL     OW40538  13.601  10.562  12.190
79569SOL    HW140539  13.578  10.470  12.197
79569SOL    HW240540  13.517  10.608  12.199
79570SOL     OW40541   0.382  11.297   1.310
79570SOL    HW140542   0.387  11.376   1.363
79570SOL    HW240543   0.381  11.225   1.373
79571SOL     OW40544   5.615   7.931   4.537
79571SOL    HW140545   5.686   7.990   4.563
79571SOL    HW240546   5.603   7.873   4.611
79572SOL     OW40547   4.029  12.405   1.560
79572SOL    HW140548   3.959  12.440   1.615
79572SOL    HW240549   4.110  12.435   1.602
79573SOL     OW40550  11.543   3.824   3.493
79573SOL    HW140551  11.489   3.804   3.570
79573SOL    HW240552  11.559   3.739   3.453
79574SOL     OW40553  14.242   8.070   2.445
79574SOL    HW140554  14.182   8.077   2.519
79574SOL    HW240555  14.226   7.983   2.409
79575SOL     OW40556  10.495   0.549   3.792
79575SOL    HW140557  10.488   0.471   3.738
79575SOL    HW240558  10.499   0.621   3.730
79576SOL     OW40559   9.718   8.669   7.260
79576SOL    HW140560   9.646   8.729   7.240
79576SOL    HW240561   9.709   8.598   7.196
79577SOL     OW40562   1.376   9.586  10.594
79577SOL    HW140563   1.351   9.495  10.578
79577SOL    HW240564   1.445   9.581  10.660
79578SOL     OW40565   4.995   5.104   1.646
79578SOL    HW140566   4.900   5.114   1.658
79578SOL    HW240567   5.004   5.026   1.591
79579SOL     OW40568  13.111  11.612  13.657
79579SOL    HW140569  13.192  11.656  13.634
79579SOL    HW240570  13.043  11.678  13.643
79580SOL     OW40571   9.953   3.912   2.425
79580SOL    HW140572   9.992   3.931   2.511
79580SOL    HW240573   9.886   3.847   2.444
79581SOL     OW40574  13.046   9.932   7.859
79581SOL    HW140575  13.040   9.927   7.955
79581SOL    HW240576  12.989  10.006   7.836
79582SOL     OW40577   7.175   7.028   9.628
79582SOL    HW140578   7.250   7.074   9.666
79582SOL    HW240579   7.134   7.092   9.570
79583SOL     OW40580   4.518  12.879   9.551
79583SOL    HW140581   4.496  12.814   9.618
79583SOL    HW240582   4.434  12.909   9.518
79584SOL     OW40583   8.521   4.373   0.065
79584SOL    HW140584   8.505   4.429  14.871
79584SOL    HW240585   8.613   4.350   0.059
79585SOL     OW40586  10.961   3.388   3.096
79585SOL    HW140587  10.874   3.350   3.085
79585SOL    HW240588  10.967   3.455   3.028
79586SOL     OW40589  11.924   4.725   8.107
79586SOL    HW140590  11.869   4.678   8.169
79586SOL    HW240591  11.922   4.816   8.136
79587SOL     OW40592   4.934   1.050   0.531
79587SOL    HW140593   4.993   1.048   0.607
79587SOL    HW240594   4.993   1.057   0.456
79588SOL     OW40595   1.672   3.132   8.284
79588SOL    HW140596   1.677   3.105   8.192
79588SOL    HW240597   1.676   3.228   8.281
79589SOL     OW40598   0.976  12.181   2.457
79589SOL    HW140599   0.969  12.276   2.445
79589SOL    HW240600   0.918  12.161   2.530
79590SOL     OW40601   3.827  12.336   0.855
79590SOL    HW140602   3.813  12.274   0.783
79590SOL    HW240603   3.749  12.326   0.910
79591SOL     OW40604   7.873  13.617   2.745
79591SOL    HW140605   7.832  13.631   2.660
79591SOL    HW240606   7.965  13.642   2.731
79592SOL     OW40607   9.191   8.147   4.748
79592SOL    HW140608   9.272   8.175   4.705
79592SOL    HW240609   9.209   8.058   4.778
79593SOL     OW40610  14.083   9.919   8.813
79593SOL    HW140611  14.005   9.892   8.764
79593SOL    HW240612  14.082   9.866   8.892
79594SOL     OW40613  12.232  14.440   6.009
79594SOL    HW140614  12.323  14.427   6.038
79594SOL    HW240615  12.239  14.451   5.914
79595SOL     OW40616  10.960   3.915   4.131
79595SOL    HW140617  10.983   3.924   4.038
79595SOL    HW240618  11.035   3.869   4.170
79596SOL     OW40619   4.364  13.480   2.597
79596SOL    HW140620   4.385  13.527   2.516
79596SOL    HW240621   4.449  13.456   2.633
79597SOL     OW40622   1.180  11.479  14.825
79597SOL    HW140623   1.091  11.476  14.861
79597SOL    HW240624   1.218  11.560  14.860
79598SOL     OW40625  12.899   9.242   2.797
79598SOL    HW140626  12.857   9.273   2.877
79598SOL    HW240627  12.904   9.319   2.741
79599SOL     OW40628   1.505  14.501   4.832
79599SOL    HW140629   1.536  14.449   4.758
79599SOL    HW240630   1.583  14.545   4.864
79600SOL     OW40631  10.267   7.536  14.604
79600SOL    HW140632  10.221   7.616  14.630
79600SOL    HW240633  10.246   7.526  14.511
79601SOL     OW40634  12.340   8.009  13.386
79601SOL    HW140635  12.296   7.928  13.363
79601SOL    HW240636  12.379   7.993  13.472
79602SOL     OW40637  10.414   7.990   1.134
79602SOL    HW140638  10.486   8.014   1.192
79602SOL    HW240639  10.350   7.947   1.192
79603SOL     OW40640   7.349   3.824  14.214
79603SOL    HW140641   7.406   3.805  14.288
79603SOL    HW240642   7.291   3.893  14.245
79604SOL     OW40643   4.909  14.562   9.565
79604SOL    HW140644   4.833  14.537   9.514
79604SOL    HW240645   4.893  14.525   9.652
79605SOL     OW40646  14.731   4.839   9.395
79605SOL    HW140647  14.730   4.766   9.334
79605SOL    HW240648  14.669   4.813   9.464
79606SOL     OW40649  14.856   7.238   7.110
79606SOL    HW140650  14.812   7.173   7.056
79606SOL    HW240651  14.803   7.317   7.100
79607SOL     OW40652  10.224   9.440   9.241
79607SOL    HW140653  10.145   9.388   9.257
79607SOL    HW240654  10.267   9.444   9.327
79608SOL     OW40655  13.518   9.078   8.418
79608SOL    HW140656  13.431   9.115   8.433
79608SOL    HW240657  13.560   9.140   8.359
79609SOL     OW40658   8.038  12.661   9.045
79609SOL    HW140659   8.010  12.647   8.954
79609SOL    HW240660   8.117  12.608   9.054
79610SOL     OW40661  12.702   9.402   5.298
79610SOL    HW140662  12.686   9.443   5.383
79610SOL    HW240663  12.615   9.378   5.266
79611SOL     OW40664   0.416   4.469   2.446
79611SOL    HW140665   0.488   4.460   2.384
79611SOL    HW240666   0.337   4.457   2.393
79612SOL     OW40667  13.312  10.020  12.213
79612SOL    HW140668  13.363   9.974  12.146
79612SOL    HW240669  13.247   9.957  12.242
79613SOL     OW40670   8.383  11.594  10.754
79613SOL    HW140671   8.316  11.623  10.692
79613SOL    HW240672   8.356  11.632  10.838
79614SOL     OW40673  13.009  13.721   4.621
79614SOL    HW140674  13.014  13.807   4.579
79614SOL    HW240675  13.021  13.658   4.549
79615SOL     OW40676  12.477   4.321  13.622
79615SOL    HW140677  12.438   4.261  13.685
79615SOL    HW240678  12.563   4.342  13.659
79616SOL     OW40679   4.144   0.166  13.084
79616SOL    HW140680   4.200   0.100  13.125
79616SOL    HW240681   4.199   0.244  13.078
79617SOL     OW40682  10.277   4.122   7.902
79617SOL    HW140683  10.278   4.158   7.813
79617SOL    HW240684  10.367   4.136   7.933
79618SOL     OW40685   2.873  10.992   8.084
79618SOL    HW140686   2.792  11.042   8.088
79618SOL    HW240687   2.848  10.908   8.045
79619SOL     OW40688   3.169   7.383   7.393
79619SOL    HW140689   3.213   7.347   7.470
79619SOL    HW240690   3.090   7.331   7.383
79620SOL     OW40691  11.948  11.506  14.040
79620SOL    HW140692  12.018  11.452  14.074
79620SOL    HW240693  11.991  11.569  13.983
79621SOL     OW40694   4.020   8.619  12.275
79621SOL    HW140695   4.019   8.651  12.185
79621SOL    HW240696   4.089   8.669  12.318
79622SOL     OW40697   1.116  13.238   3.538
79622SOL    HW140698   1.040  13.233   3.597
79622SOL    HW240699   1.160  13.154   3.548
79623SOL     OW40700   1.579  13.740  11.384
79623SOL    HW140701   1.598  13.770  11.473
79623SOL    HW240702   1.660  13.700  11.354
79624SOL     OW40703   8.316   1.483   3.807
79624SOL    HW140704   8.259   1.471   3.731
79624SOL    HW240705   8.267   1.445   3.879
79625SOL     OW40706   5.081   0.209  14.862
79625SOL    HW140707   5.077   0.285   0.037
79625SOL    HW240708   5.015   0.149   0.015
79626SOL     OW40709   0.408  10.451  10.519
79626SOL    HW140710   0.437  10.360  10.514
79626SOL    HW240711   0.372  10.460  10.607
79627SOL     OW40712  11.745  13.752   8.328
79627SOL    HW140713  11.692  13.709   8.395
79627SOL    HW240714  11.747  13.690   8.255
79628SOL     OW40715  12.396   1.285  12.306
79628SOL    HW140716  12.325   1.222  12.317
79628SOL    HW240717  12.366   1.343  12.236
79629SOL     OW40718   3.247   8.804   3.077
79629SOL    HW140719   3.183   8.809   3.149
79629SOL    HW240720   3.235   8.885   3.028
79630SOL     OW40721  13.142   5.734   9.141
79630SOL    HW140722  13.205   5.675   9.100
79630SOL    HW240723  13.115   5.688   9.220
79631SOL     OW40724  11.316   6.102  11.835
79631SOL    HW140725  11.249   6.114  11.767
79631SOL    HW240726  11.339   6.009  11.831
79632SOL     OW40727   7.122  13.728   4.413
79632SOL    HW140728   7.111  13.795   4.480
79632SOL    HW240729   7.043  13.674   4.419
79633SOL     OW40730  10.639  12.292   7.377
79633SOL    HW140731  10.558  12.289   7.427
79633SOL    HW240732  10.612  12.282   7.286
79634SOL     OW40733   1.534   4.154   8.863
79634SOL    HW140734   1.576   4.073   8.834
79634SOL    HW240735   1.536   4.210   8.785
79635SOL     OW40736   8.605   1.742   4.628
79635SOL    HW140737   8.620   1.835   4.614
79635SOL    HW240738   8.691   1.701   4.612
79636SOL     OW40739   8.664   5.559  10.609
79636SOL    HW140740   8.604   5.621  10.649
79636SOL    HW240741   8.727   5.613  10.562
79637SOL     OW40742   3.123   6.173   1.824
79637SOL    HW140743   3.096   6.111   1.756
79637SOL    HW240744   3.217   6.155   1.836
79638SOL     OW40745   3.944  12.212   9.268
79638SOL    HW140746   3.870  12.201   9.329
79638SOL    HW240747   3.973  12.302   9.283
79639SOL     OW40748   0.460   3.839   0.636
79639SOL    HW140749   0.535   3.882   0.597
79639SOL    HW240750   0.484   3.824   0.727
79640SOL     OW40751  11.057  14.568  11.288
79640SOL    HW140752  11.115  14.583  11.213
79640SOL    HW240753  10.976  14.612  11.265
79641SOL     OW40754   4.267   4.230  13.110
79641SOL    HW140755   4.286   4.274  13.027
79641SOL    HW240756   4.240   4.141  13.084
79642SOL     OW40757  11.831   6.433   1.466
79642SOL    HW140758  11.810   6.469   1.380
79642SOL    HW240759  11.915   6.390   1.454
79643SOL     OW40760   2.038   4.217   7.315
79643SOL    HW140761   1.993   4.142   7.277
79643SOL    HW240762   1.980   4.291   7.298
79644SOL     OW40763   3.771   1.991   6.543
79644SOL    HW140764   3.678   1.971   6.553
79644SOL    HW240765   3.798   1.940   6.466
79645SOL     OW40766   2.788  12.076   4.577
79645SOL    HW140767   2.715  12.028   4.538
79645SOL    HW240768   2.754  12.163   4.593
79646SOL     OW40769   0.819  10.429   8.051
79646SOL    HW140770   0.822  10.509   8.102
79646SOL    HW240771   0.731  10.428   8.013
79647SOL     OW40772   7.986   7.395   7.001
79647SOL    HW140773   8.004   7.437   7.085
79647SOL    HW240774   8.070   7.398   6.954
79648SOL     OW40775   2.275  10.520  12.057
79648SOL    HW140776   2.308  10.451  12.001
79648SOL    HW240777   2.351  10.577  12.072
79649SOL     OW40778   0.245  12.286   1.494
79649SOL    HW140779   0.176  12.338   1.535
79649SOL    HW240780   0.326  12.314   1.538
79650SOL     OW40781   8.609   3.869   8.669
79650SOL    HW140782   8.587   3.962   8.666
79650SOL    HW240783   8.649   3.851   8.584
79651SOL     OW40784   8.062   7.844  14.859
79651SOL    HW140785   8.054   7.926   0.026
79651SOL    HW240786   8.088   7.870  14.771
79652SOL     OW40787   8.664   8.807  13.225
79652SOL    HW140788   8.644   8.729  13.174
79652SOL    HW240789   8.646   8.880  13.166
79653SOL     OW40790  10.120   3.260  13.964
79653SOL    HW140791  10.063   3.218  13.900
79653SOL    HW240792  10.084   3.348  13.975
79654SOL     OW40793   1.841  14.696   9.706
79654SOL    HW140794   1.928  14.659   9.691
79654SOL    HW240795   1.788  14.621   9.733
79655SOL     OW40796  10.069  11.197   1.267
79655SOL    HW140797   9.976  11.220   1.265
79655SOL    HW240798  10.101  11.226   1.181
79656SOL     OW40799   9.963   9.167   0.781
79656SOL    HW140800  10.036   9.121   0.739
79656SOL    HW240801  10.004   9.241   0.827
79657SOL     OW40802   8.430   8.264   8.218
79657SOL    HW140803   8.408   8.214   8.140
79657SOL    HW240804   8.414   8.355   8.194
79658SOL     OW40805   5.410   2.648   8.364
79658SOL    HW140806   5.375   2.714   8.424
79658SOL    HW240807   5.390   2.682   8.277
79659SOL     OW40808  11.097   4.839   5.356
79659SOL    HW140809  11.092   4.916   5.413
79659SOL    HW240810  11.038   4.775   5.395
79660SOL     OW40811  13.980  12.069   4.244
79660SOL    HW140812  13.909  12.004   4.242
79660SOL    HW240813  14.060  12.018   4.233
79661SOL     OW40814  12.241  14.724   1.181
79661SOL    HW140815  12.175  14.723   1.112
79661SOL    HW240816  12.321  14.692   1.139
79662SOL     OW40817  11.639  11.739   7.378
79662SOL    HW140818  11.568  11.723   7.440
79662SOL    HW240819  11.705  11.673   7.400
79663SOL     OW40820   5.494  11.674   0.015
79663SOL    HW140821   5.464  11.764  14.880
79663SOL    HW240822   5.541  11.680   0.098
79664SOL     OW40823  12.231  13.844   6.198
79664SOL    HW140824  12.209  13.928   6.238
79664SOL    HW240825  12.230  13.860   6.104
79665SOL     OW40826  13.930   4.078   6.044
79665SOL    HW140827  13.977   4.036   6.117
79665SOL    HW240828  13.983   4.057   5.967
79666SOL     OW40829   7.186  12.704   4.782
79666SOL    HW140830   7.259  12.667   4.832
79666SOL    HW240831   7.193  12.662   4.696
79667SOL     OW40832   6.167   0.148  11.904
79667SOL    HW140833   6.116   0.146  11.985
79667SOL    HW240834   6.235   0.082  11.917
79668SOL     OW40835   3.376   1.855   8.331
79668SOL    HW140836   3.459   1.901   8.334
79668SOL    HW240837   3.340   1.864   8.419
79669SOL     OW40838   7.924  13.533  10.237
79669SOL    HW140839   7.949  13.518  10.146
79669SOL    HW240840   7.830  13.553  10.234
79670SOL     OW40841   5.321   3.995   0.270
79670SOL    HW140842   5.395   3.992   0.209
79670SOL    HW240843   5.318   4.086   0.299
79671SOL     OW40844   4.943   1.305  12.615
79671SOL    HW140845   4.911   1.276  12.530
79671SOL    HW240846   5.037   1.292  12.611
79672SOL     OW40847   3.215  13.818   9.199
79672SOL    HW140848   3.298  13.778   9.175
79672SOL    HW240849   3.149  13.761   9.159
79673SOL     OW40850   3.940   5.612   8.912
79673SOL    HW140851   4.025   5.600   8.952
79673SOL    HW240852   3.896   5.676   8.968
79674SOL     OW40853   9.540  10.957   8.108
79674SOL    HW140854   9.561  10.978   8.199
79674SOL    HW240855   9.456  10.910   8.113
79675SOL     OW40856   6.177   2.084   4.427
79675SOL    HW140857   6.090   2.047   4.417
79675SOL    HW240858   6.209   2.094   4.337
79676SOL     OW40859   5.099   8.189  10.670
79676SOL    HW140860   5.188   8.210  10.641
79676SOL    HW240861   5.111   8.122  10.737
79677SOL     OW40862   9.411   7.787  11.819
79677SOL    HW140863   9.346   7.726  11.784
79677SOL    HW240864   9.371   7.823  11.898
79678SOL     OW40865  12.876  12.097   4.620
79678SOL    HW140866  12.926  12.031   4.668
79678SOL    HW240867  12.789  12.095   4.659
79679SOL     OW40868   4.648   0.035   5.856
79679SOL    HW140869   4.693   0.110   5.894
79679SOL    HW240870   4.640  14.855   5.929
79680SOL     OW40871  11.751  11.654   4.375
79680SOL    HW140872  11.672  11.614   4.340
79680SOL    HW240873  11.819  11.588   4.361
79681SOL     OW40874   4.236  11.881  13.169
79681SOL    HW140875   4.305  11.819  13.144
79681SOL    HW240876   4.278  11.967  13.160
79682SOL     OW40877   7.961  11.369   9.043
79682SOL    HW140878   7.920  11.308   9.105
79682SOL    HW240879   8.026  11.315   8.997
79683SOL     OW40880   7.105   4.616   8.908
79683SOL    HW140881   7.145   4.644   8.990
79683SOL    HW240882   7.167   4.552   8.872
79684SOL     OW40883  14.019  11.991   5.539
79684SOL    HW140884  14.080  12.047   5.491
79684SOL    HW240885  14.054  11.903   5.530
79685SOL     OW40886   6.664   9.074   0.598
79685SOL    HW140887   6.638   9.117   0.517
79685SOL    HW240888   6.760   9.074   0.595
79686SOL     OW40889  12.325   9.181   6.131
79686SOL    HW140890  12.318   9.097   6.085
79686SOL    HW240891  12.240   9.223   6.116
79687SOL     OW40892   1.913   3.476   5.941
79687SOL    HW140893   1.942   3.389   5.969
79687SOL    HW240894   1.848   3.459   5.873
79688SOL     OW40895  11.946  12.601  14.229
79688SOL    HW140896  11.878  12.668  14.239
79688SOL    HW240897  11.999  12.632  14.155
79689SOL     OW40898   3.681   4.925   0.572
79689SOL    HW140899   3.759   4.908   0.625
79689SOL    HW240900   3.619   4.857   0.598
79690SOL     OW40901  12.517  11.396   8.813
79690SOL    HW140902  12.592  11.354   8.854
79690SOL    HW240903  12.527  11.377   8.720
79691SOL     OW40904  13.537  10.744   5.307
79691SOL    HW140905  13.616  10.762   5.358
79691SOL    HW240906  13.471  10.803   5.342
79692SOL     OW40907   4.029   8.232  10.143
79692SOL    HW140908   4.073   8.282  10.074
79692SOL    HW240909   4.101   8.191  10.192
79693SOL     OW40910   7.980   3.138  14.462
79693SOL    HW140911   8.062   3.122  14.415
79693SOL    HW240912   7.973   3.065  14.523
79694SOL     OW40913   9.737   9.293   9.833
79694SOL    HW140914   9.741   9.387   9.853
79694SOL    HW240915   9.648   9.267   9.857
79695SOL     OW40916   8.329  12.537   7.637
79695SOL    HW140917   8.409  12.500   7.674
79695SOL    HW240918   8.259  12.493   7.684
79696SOL     OW40919  13.368  11.129   8.727
79696SOL    HW140920  13.454  11.092   8.747
79696SOL    HW240921  13.315  11.055   8.699
79697SOL     OW40922   3.782   6.798   8.760
79697SOL    HW140923   3.875   6.777   8.769
79697SOL    HW240924   3.759   6.840   8.843
79698SOL     OW40925   9.787  14.399  10.667
79698SOL    HW140926   9.705  14.392  10.618
79698SOL    HW240927   9.855  14.390  10.600
79699SOL     OW40928   1.640   3.554   4.555
79699SOL    HW140929   1.563   3.508   4.522
79699SOL    HW240930   1.711   3.523   4.499
79700SOL     OW40931   9.595   2.292  12.495
79700SOL    HW140932   9.634   2.380  12.493
79700SOL    HW240933   9.514   2.303  12.545
79701SOL     OW40934   9.143   6.136   5.081
79701SOL    HW140935   9.152   6.231   5.078
79701SOL    HW240936   9.052   6.122   5.109
79702SOL     OW40937   3.803  13.971  11.608
79702SOL    HW140938   3.858  13.976  11.529
79702SOL    HW240939   3.856  14.012  11.676
79703SOL     OW40940  12.602   6.520  10.242
79703SOL    HW140941  12.530   6.490  10.186
79703SOL    HW240942  12.564   6.589  10.296
79704SOL     OW40943   9.588  14.394  10.489
79704SOL    HW140944   9.504  14.395  10.536
79704SOL    HW240945   9.563  14.378  10.398
79705SOL     OW40946  13.777  11.548   0.085
79705SOL    HW140947  13.736  11.570   0.168
79705SOL    HW240948  13.786  11.632   0.039
79706SOL     OW40949  12.160  11.005   1.200
79706SOL    HW140950  12.113  11.086   1.222
79706SOL    HW240951  12.189  10.971   1.285
79707SOL     OW40952   7.540   7.690   5.045
79707SOL    HW140953   7.603   7.637   5.092
79707SOL    HW240954   7.568   7.781   5.059
79708SOL     OW40955   9.383  14.403   8.123
79708SOL    HW140956   9.434  14.481   8.141
79708SOL    HW240957   9.442  14.347   8.071
79709SOL     OW40958  12.126  14.529  12.805
79709SOL    HW140959  12.185  14.468  12.761
79709SOL    HW240960  12.060  14.473  12.845
79710SOL     OW40961   1.904  12.521   8.154
79710SOL    HW140962   1.821  12.507   8.200
79710SOL    HW240963   1.892  12.603   8.106
79711SOL     OW40964   6.705   6.798   3.805
79711SOL    HW140965   6.700   6.885   3.766
79711SOL    HW240966   6.792   6.766   3.781
79712SOL     OW40967  11.495  14.029   8.725
79712SOL    HW140968  11.537  14.059   8.645
79712SOL    HW240969  11.519  13.937   8.732
79713SOL     OW40970   7.419  10.367   8.867
79713SOL    HW140971   7.366  10.347   8.790
79713SOL    HW240972   7.398  10.458   8.887
79714SOL     OW40973   0.497  13.034   6.335
79714SOL    HW140974   0.554  12.957   6.339
79714SOL    HW240975   0.489  13.063   6.426
79715SOL     OW40976   5.520   0.524  14.141
79715SOL    HW140977   5.574   0.447  14.160
79715SOL    HW240978   5.436   0.507  14.183
79716SOL     OW40979  11.045   7.440   9.467
79716SOL    HW140980  11.045   7.347   9.445
79716SOL    HW240981  11.088   7.482   9.393
79717SOL     OW40982  14.791  11.533   9.927
79717SOL    HW140983  14.880  11.520   9.960
79717SOL    HW240984  14.736  11.528  10.004
79718SOL     OW40985   4.551  13.552   3.604
79718SOL    HW140986   4.594  13.485   3.657
79718SOL    HW240987   4.460  13.552   3.635
79719SOL     OW40988  10.419  12.970   3.197
79719SOL    HW140989  10.386  13.010   3.278
79719SOL    HW240990  10.512  12.992   3.195
79720SOL     OW40991   5.182   3.797   8.337
79720SOL    HW140992   5.174   3.887   8.306
79720SOL    HW240993   5.172   3.803   8.432
79721SOL     OW40994   4.802   5.412   1.366
79721SOL    HW140995   4.745   5.486   1.388
79721SOL    HW240996   4.782   5.394   1.274
79722SOL     OW40997  12.543   4.206   0.483
79722SOL    HW140998  12.603   4.139   0.449
79722SOL    HW240999  12.601   4.273   0.519
79723SOL     OW41000   7.395  10.597   8.594
79723SOL    HW141001   7.309  10.556   8.595
79723SOL    HW241002   7.377  10.690   8.578
79724SOL     OW41003  12.934   1.424   3.729
79724SOL    HW141004  12.841   1.429   3.750
79724SOL    HW241005  12.976   1.484   3.791
79725SOL     OW41006   0.618   1.174  11.338
79725SOL    HW141007   0.663   1.130  11.411
79725SOL    HW241008   0.525   1.168  11.360
79726SOL     OW41009   0.598  13.800   5.203
79726SOL    HW141010   0.631  13.714   5.179
79726SOL    HW241011   0.526  13.783   5.263
79727SOL     OW41012   8.428  14.665  12.067
79727SOL    HW141013   8.465  14.701  11.986
79727SOL    HW241014   8.475  14.583  12.080
79728SOL     OW41015   9.210   4.903  10.007
79728SOL    HW141016   9.193   4.968  10.075
79728SOL    HW241017   9.125   4.859   9.994
79729SOL     OW41018  11.972   5.603   8.261
79729SOL    HW141019  12.045   5.640   8.311
79729SOL    HW241020  11.983   5.638   8.173
79730SOL     OW41021   7.596   2.402   0.398
79730SOL    HW141022   7.623   2.394   0.307
79730SOL    HW241023   7.666   2.359   0.448
79731SOL     OW41024   8.006  11.461   7.203
79731SOL    HW141025   8.008  11.552   7.174
79731SOL    HW241026   8.027  11.410   7.125
79732SOL     OW41027   2.299  14.041   3.300
79732SOL    HW141028   2.332  13.958   3.265
79732SOL    HW241029   2.245  14.016   3.375
79733SOL     OW41030   9.585   6.797   8.933
79733SOL    HW141031   9.678   6.809   8.951
79733SOL    HW241032   9.562   6.714   8.975
79734SOL     OW41033  14.608   8.331  12.112
79734SOL    HW141034  14.689   8.280  12.113
79734SOL    HW241035  14.617   8.389  12.036
79735SOL     OW41036   1.705   7.637   1.604
79735SOL    HW141037   1.645   7.670   1.537
79735SOL    HW241038   1.650   7.588   1.665
79736SOL     OW41039   0.569   3.948   5.650
79736SOL    HW141040   0.647   3.894   5.637
79736SOL    HW241041   0.601   4.038   5.642
79737SOL     OW41042  10.930   1.503   5.957
79737SOL    HW141043  11.005   1.451   5.985
79737SOL    HW241044  10.865   1.493   6.026
79738SOL     OW41045  14.226  11.468   7.391
79738SOL    HW141046  14.244  11.543   7.448
79738SOL    HW241047  14.309  11.421   7.388
79739SOL     OW41048   0.112  13.593   6.715
79739SOL    HW141049   0.034  13.578   6.663
79739SOL    HW241050   0.167  13.516   6.699
79740SOL     OW41051   9.529   9.951   1.572
79740SOL    HW141052   9.612   9.930   1.614
79740SOL    HW241053   9.540  10.041   1.542
79741SOL     OW41054   1.602   6.247   4.242
79741SOL    HW141055   1.559   6.162   4.236
79741SOL    HW241056   1.653   6.242   4.323
79742SOL     OW41057   0.657   4.771  10.340
79742SOL    HW141058   0.620   4.737  10.421
79742SOL    HW241059   0.732   4.715  10.321
79743SOL     OW41060  10.599   5.766   5.885
79743SOL    HW141061  10.662   5.708   5.841
79743SOL    HW241062  10.517   5.754   5.837
79744SOL     OW41063  14.327   3.949   3.028
79744SOL    HW141064  14.359   3.884   2.965
79744SOL    HW241065  14.323   4.031   2.978
79745SOL     OW41066   0.985   7.430  13.885
79745SOL    HW141067   0.996   7.374  13.809
79745SOL    HW241068   1.073   7.442  13.920
79746SOL     OW41069  10.918   8.669   5.995
79746SOL    HW141070  10.999   8.630   6.028
79746SOL    HW241071  10.925   8.762   6.018
79747SOL     OW41072   7.587  14.003  12.171
79747SOL    HW141073   7.586  14.053  12.253
79747SOL    HW241074   7.666  13.950  12.176
79748SOL     OW41075   0.091  13.797   4.661
79748SOL    HW141076   0.137  13.802   4.577
79748SOL    HW241077  14.880  13.794   4.638
79749SOL     OW41078   7.249   6.548   9.693
79749SOL    HW141079   7.298   6.492   9.632
79749SOL    HW241080   7.270   6.637   9.664
79750SOL     OW41081   6.013  11.519  10.237
79750SOL    HW141082   5.976  11.608  10.238
79750SOL    HW241083   6.092  11.527  10.183
79751SOL     OW41084   1.725  10.901   3.427
79751SOL    HW141085   1.667  10.972   3.401
79751SOL    HW241086   1.679  10.821   3.402
79752SOL     OW41087   3.082   8.415  12.236
79752SOL    HW141088   3.169   8.446  12.209
79752SOL    HW241089   3.021   8.467  12.183
79753SOL     OW41090  14.231   7.155   2.544
79753SOL    HW141091  14.260   7.192   2.461
79753SOL    HW241092  14.290   7.081   2.560
79754SOL     OW41093   1.403   4.158   2.296
79754SOL    HW141094   1.421   4.193   2.384
79754SOL    HW241095   1.487   4.166   2.250
79755SOL     OW41096   9.512   6.775  11.396
79755SOL    HW141097   9.501   6.774  11.301
79755SOL    HW241098   9.478   6.861  11.423
79756SOL     OW41099   3.027   0.875   2.408
79756SOL    HW141100   3.105   0.930   2.402
79756SOL    HW241101   3.012   0.864   2.501
79757SOL     OW41102   4.316   1.991   2.762
79757SOL    HW141103   4.316   1.901   2.794
79757SOL    HW241104   4.399   2.000   2.715
79758SOL     OW41105   4.305   0.331   9.695
79758SOL    HW141106   4.355   0.404   9.657
79758SOL    HW241107   4.282   0.276   9.620
79759SOL     OW41108  11.313   4.219  11.341
79759SOL    HW141109  11.393   4.265  11.367
79759SOL    HW241110  11.276   4.186  11.423
79760SOL     OW41111   2.413  11.068   6.454
79760SOL    HW141112   2.451  11.136   6.510
79760SOL    HW241113   2.480  11.051   6.388
79761SOL     OW41114  12.579  12.244   3.148
79761SOL    HW141115  12.629  12.184   3.204
79761SOL    HW241116  12.629  12.325   3.149
79762SOL     OW41117   7.442   6.038   0.209
79762SOL    HW141118   7.499   6.099   0.163
79762SOL    HW241119   7.356   6.050   0.168
79763SOL     OW41120   5.739   7.096   2.073
79763SOL    HW141121   5.698   7.011   2.057
79763SOL    HW241122   5.667   7.159   2.063
79764SOL     OW41123   6.182   8.465  12.155
79764SOL    HW141124   6.248   8.534  12.161
79764SOL    HW241125   6.112   8.503  12.102
79765SOL     OW41126  13.087   7.969   8.538
79765SOL    HW141127  13.067   7.878   8.517
79765SOL    HW241128  13.003   8.014   8.535
79766SOL     OW41129   8.566  12.517   7.835
79766SOL    HW141130   8.613  12.600   7.848
79766SOL    HW241131   8.635  12.454   7.814
79767SOL     OW41132  10.697   2.645   4.306
79767SOL    HW141133  10.728   2.638   4.215
79767SOL    HW241134  10.706   2.557   4.341
79768SOL     OW41135   8.355   3.788   6.844
79768SOL    HW141136   8.384   3.759   6.930
79768SOL    HW241137   8.395   3.874   6.833
79769SOL     OW41138   2.845   3.984  13.891
79769SOL    HW141139   2.936   4.008  13.907
79769SOL    HW241140   2.808   4.058  13.844
79770SOL     OW41141   9.037  12.291  13.825
79770SOL    HW141142   9.129  12.266  13.830
79770SOL    HW241143   9.027  12.330  13.738
79771SOL     OW41144  12.319   5.214   8.120
79771SOL    HW141145  12.334   5.228   8.026
79771SOL    HW241146  12.349   5.124   8.135
79772SOL     OW41147   1.394   5.892   0.057
79772SOL    HW141148   1.389   5.797   0.070
79772SOL    HW241149   1.329   5.927   0.118
79773SOL     OW41150   1.716   8.883   3.260
79773SOL    HW141151   1.727   8.835   3.342
79773SOL    HW241152   1.624   8.870   3.237
79774SOL     OW41153   7.307   6.769   8.941
79774SOL    HW141154   7.220   6.782   8.905
79774SOL    HW241155   7.330   6.680   8.915
79775SOL     OW41156  11.427   6.812   0.935
79775SOL    HW141157  11.415   6.777   0.847
79775SOL    HW241158  11.377   6.753   0.991
79776SOL     OW41159   2.667  12.528   2.302
79776SOL    HW141160   2.623  12.576   2.232
79776SOL    HW241161   2.699  12.448   2.260
79777SOL     OW41162   1.586  13.912   7.239
79777SOL    HW141163   1.514  13.849   7.238
79777SOL    HW241164   1.646  13.880   7.306
79778SOL     OW41165  12.831   3.384   8.900
79778SOL    HW141166  12.860   3.475   8.895
79778SOL    HW241167  12.800   3.372   8.989
79779SOL     OW41168   6.351   0.198   7.138
79779SOL    HW141169   6.273   0.153   7.104
79779SOL    HW241170   6.395   0.133   7.192
79780SOL     OW41171   6.071  14.012   0.592
79780SOL    HW141172   6.086  14.097   0.551
79780SOL    HW241173   5.981  14.016   0.624
79781SOL     OW41174   7.767   3.405   9.116
79781SOL    HW141175   7.831   3.353   9.069
79781SOL    HW241176   7.784   3.495   9.090
79782SOL     OW41177  12.502   3.990  12.896
79782SOL    HW141178  12.451   3.933  12.838
79782SOL    HW241179  12.505   4.074  12.850
79783SOL     OW41180  12.183  14.813  14.454
79783SOL    HW141181  12.267  14.845  14.419
79783SOL    HW241182  12.154  14.748  14.390
79784SOL     OW41183   8.901  10.602  13.218
79784SOL    HW141184   8.936  10.514  13.201
79784SOL    HW241185   8.869  10.632  13.133
79785SOL     OW41186   3.915   6.267   2.479
79785SOL    HW141187   3.975   6.240   2.410
79785SOL    HW241188   3.855   6.192   2.489
79786SOL     OW41189   5.084   4.943   6.847
79786SOL    HW141190   5.042   4.956   6.761
79786SOL    HW241191   5.071   5.026   6.893
79787SOL     OW41192   9.060   1.442   4.830
79787SOL    HW141193   9.102   1.485   4.755
79787SOL    HW241194   9.009   1.371   4.791
79788SOL     OW41195   2.566  11.490   9.697
79788SOL    HW141196   2.537  11.466   9.608
79788SOL    HW241197   2.624  11.565   9.683
79789SOL     OW41198   4.696   7.550  13.244
79789SOL    HW141199   4.650   7.476  13.283
79789SOL    HW241200   4.783   7.548  13.283
79790SOL     OW41201   6.160  11.282  10.415
79790SOL    HW141202   6.136  11.196  10.449
79790SOL    HW241203   6.077  11.323  10.393
79791SOL     OW41204  10.611   3.308   9.249
79791SOL    HW141205  10.647   3.332   9.164
79791SOL    HW241206  10.523   3.274   9.229
79792SOL     OW41207   1.587   2.811  13.143
79792SOL    HW141208   1.511   2.838  13.092
79792SOL    HW241209   1.567   2.722  13.173
79793SOL     OW41210   7.473   6.788   7.881
79793SOL    HW141211   7.393   6.838   7.865
79793SOL    HW241212   7.443   6.699   7.895
79794SOL     OW41213   6.527   7.301  13.257
79794SOL    HW141214   6.615   7.302  13.219
79794SOL    HW241215   6.497   7.211  13.246
79795SOL     OW41216   1.272   7.196  10.246
79795SOL    HW141217   1.196   7.145  10.221
79795SOL    HW241218   1.342   7.166  10.188
79796SOL     OW41219   7.426   0.310   4.686
79796SOL    HW141220   7.501   0.348   4.731
79796SOL    HW241221   7.364   0.382   4.675
79797SOL     OW41222   9.568   0.400   2.562
79797SOL    HW141223   9.564   0.495   2.558
79797SOL    HW241224   9.661   0.380   2.569
79798SOL     OW41225  12.041   1.309  11.799
79798SOL    HW141226  12.043   1.387  11.743
79798SOL    HW241227  12.106   1.327  11.867
79799SOL     OW41228   4.158   0.484  11.198
79799SOL    HW141229   4.236   0.482  11.143
79799SOL    HW241230   4.086   0.501  11.137
79800SOL     OW41231  11.305  11.840   1.870
79800SOL    HW141232  11.239  11.773   1.854
79800SOL    HW241233  11.262  11.902   1.930
79801SOL     OW41234   5.877   8.322  10.932
79801SOL    HW141235   5.935   8.266  10.984
79801SOL    HW241236   5.811   8.352  10.994
79802SOL     OW41237  12.753  13.551   2.132
79802SOL    HW141238  12.757  13.644   2.155
79802SOL    HW241239  12.843  13.520   2.143
79803SOL     OW41240   0.678   9.028   1.659
79803SOL    HW141241   0.669   9.097   1.725
79803SOL    HW241242   0.637   9.066   1.581
79804SOL     OW41243   7.286  12.779  12.605
79804SOL    HW141244   7.337  12.722  12.548
79804SOL    HW241245   7.338  12.785  12.685
79805SOL     OW41246   2.290   1.630   2.252
79805SOL    HW141247   2.228   1.669   2.314
79805SOL    HW241248   2.332   1.705   2.210
79806SOL     OW41249   7.918   9.386   5.123
79806SOL    HW141250   7.901   9.477   5.147
79806SOL    HW241251   7.835   9.341   5.137
79807SOL     OW41252   2.767   0.963   3.661
79807SOL    HW141253   2.704   0.966   3.589
79807SOL    HW241254   2.810   1.049   3.658
79808SOL     OW41255  13.125   1.648   3.623
79808SOL    HW141256  13.133   1.647   3.718
79808SOL    HW241257  13.035   1.676   3.607
79809SOL     OW41258   8.159  10.007   8.805
79809SOL    HW141259   8.108  10.088   8.797
79809SOL    HW241260   8.218  10.023   8.878
79810SOL     OW41261   6.460   8.316   2.363
79810SOL    HW141262   6.411   8.386   2.406
79810SOL    HW241263   6.518   8.362   2.302
79811SOL     OW41264   9.076   6.792  13.134
79811SOL    HW141265   9.025   6.835  13.202
79811SOL    HW241266   9.143   6.856  13.110
79812SOL     OW41267  11.240   3.338   5.722
79812SOL    HW141268  11.305   3.383   5.667
79812SOL    HW241269  11.225   3.398   5.795
79813SOL     OW41270   6.842  10.511  11.946
79813SOL    HW141271   6.909  10.446  11.967
79813SOL    HW241272   6.823  10.554  12.030
79814SOL     OW41273  14.772   9.045   4.877
79814SOL    HW141274  14.772   9.062   4.783
79814SOL    HW241275  14.713   8.970   4.887
79815SOL     OW41276   4.060   0.826   8.811
79815SOL    HW141277   4.123   0.881   8.765
79815SOL    HW241278   4.021   0.885   8.876
79816SOL     OW41279   5.185   8.818   3.260
79816SOL    HW141280   5.258   8.794   3.318
79816SOL    HW241281   5.117   8.753   3.280
79817SOL     OW41282   4.542   3.584   6.920
79817SOL    HW141283   4.463   3.529   6.920
79817SOL    HW241284   4.588   3.560   6.839
79818SOL     OW41285   5.411   0.386   3.972
79818SOL    HW141286   5.477   0.409   4.036
79818SOL    HW241287   5.334   0.438   3.997
79819SOL     OW41288  14.766  13.102  12.320
79819SOL    HW141289  14.828  13.169  12.290
79819SOL    HW241290  14.743  13.128  12.409
79820SOL     OW41291  14.318   0.672   6.735
79820SOL    HW141292  14.229   0.663   6.700
79820SOL    HW241293  14.373   0.684   6.657
79821SOL     OW41294   6.313   2.937   1.280
79821SOL    HW141295   6.302   2.947   1.375
79821SOL    HW241296   6.371   3.009   1.255
79822SOL     OW41297   2.572  10.652   8.162
79822SOL    HW141298   2.496  10.611   8.202
79822SOL    HW241299   2.632  10.668   8.236
79823SOL     OW41300   0.835   6.603   9.374
79823SOL    HW141301   0.761   6.542   9.375
79823SOL    HW241302   0.909   6.551   9.346
79824SOL     OW41303   3.654  11.112  13.629
79824SOL    HW141304   3.586  11.151  13.574
79824SOL    HW241305   3.613  11.032  13.663
79825SOL     OW41306  14.345   4.942   2.364
79825SOL    HW141307  14.294   5.019   2.392
79825SOL    HW241308  14.434   4.976   2.351
79826SOL     OW41309   3.896   9.106   5.771
79826SOL    HW141310   3.846   9.137   5.847
79826SOL    HW241311   3.830   9.066   5.714
79827SOL     OW41312   8.344   1.520  13.423
79827SOL    HW141313   8.270   1.497  13.367
79827SOL    HW241314   8.346   1.452  13.489
79828SOL     OW41315  13.215  13.771  14.312
79828SOL    HW141316  13.205  13.680  14.342
79828SOL    HW241317  13.174  13.772  14.225
79829SOL     OW41318   0.002   9.579  10.870
79829SOL    HW141319  14.869   9.674  10.867
79829SOL    HW241320   0.097   9.569  10.863
79830SOL     OW41321   2.630   0.958  10.487
79830SOL    HW141322   2.617   0.982  10.396
79830SOL    HW241323   2.601   1.034  10.537
79831SOL     OW41324   7.239   7.122  10.298
79831SOL    HW141325   7.259   7.101  10.389
79831SOL    HW241326   7.146   7.102  10.289
79832SOL     OW41327  14.657  10.111  14.218
79832SOL    HW141328  14.703  10.098  14.135
79832SOL    HW241329  14.584  10.169  14.197
79833SOL     OW41330   3.128   0.272   0.469
79833SOL    HW141331   3.035   0.265   0.448
79833SOL    HW241332   3.161   0.338   0.407
79834SOL     OW41333  11.568   2.465  13.613
79834SOL    HW141334  11.487   2.480  13.660
79834SOL    HW241335  11.635   2.507  13.666
79835SOL     OW41336  11.164   9.803   8.446
79835SOL    HW141337  11.202   9.722   8.411
79835SOL    HW241338  11.088   9.774   8.496
79836SOL     OW41339   5.274   1.759   9.362
79836SOL    HW141340   5.204   1.693   9.355
79836SOL    HW241341   5.348   1.721   9.315
79837SOL     OW41342  11.029   7.670  10.368
79837SOL    HW141343  10.988   7.717  10.295
79837SOL    HW241344  11.022   7.730  10.442
79838SOL     OW41345   5.320   1.733   4.426
79838SOL    HW141346   5.328   1.826   4.444
79838SOL    HW241347   5.376   1.691   4.492
79839SOL     OW41348   7.998  10.978   8.386
79839SOL    HW141349   8.023  10.886   8.377
79839SOL    HW241350   7.938  10.980   8.460
79840SOL     OW41351  13.381   8.118  14.486
79840SOL    HW141352  13.380   8.113  14.391
79840SOL    HW241353  13.468   8.149  14.509
79841SOL     OW41354   9.421   8.723   6.949
79841SOL    HW141355   9.382   8.652   7.000
79841SOL    HW241356   9.348   8.760   6.900
79842SOL     OW41357   7.799   5.906   0.892
79842SOL    HW141358   7.777   5.997   0.908
79842SOL    HW241359   7.869   5.909   0.827
79843SOL     OW41360   6.577   6.647  12.214
79843SOL    HW141361   6.660   6.685  12.244
79843SOL    HW241362   6.555   6.697  12.135
79844SOL     OW41363   2.163  12.675   2.815
79844SOL    HW141364   2.123  12.762   2.821
79844SOL    HW241365   2.256  12.690   2.833
79845SOL     OW41366   5.876   3.555   1.455
79845SOL    HW141367   5.786   3.585   1.468
79845SOL    HW241368   5.912   3.547   1.544
79846SOL     OW41369   7.793   9.469   1.515
79846SOL    HW141370   7.757   9.538   1.571
79846SOL    HW241371   7.757   9.388   1.550
79847SOL     OW41372   4.943  14.216   5.007
79847SOL    HW141373   4.966  14.247   5.095
79847SOL    HW241374   4.945  14.120   5.015
79848SOL     OW41375  11.940   9.512   1.317
79848SOL    HW141376  11.987   9.483   1.239
79848SOL    HW241377  11.938   9.608   1.310
79849SOL     OW41378   1.398   4.868  11.649
79849SOL    HW141379   1.461   4.828  11.709
79849SOL    HW241380   1.409   4.820  11.567
79850SOL     OW41381   0.459  13.103  10.218
79850SOL    HW141382   0.455  13.120  10.312
79850SOL    HW241383   0.532  13.158  10.187
79851SOL     OW41384  12.752  10.822   2.266
79851SOL    HW141385  12.790  10.828   2.178
79851SOL    HW241386  12.658  10.836   2.252
79852SOL     OW41387   9.915  11.225  14.323
79852SOL    HW141388   9.987  11.192  14.376
79852SOL    HW241389   9.910  11.318  14.343
79853SOL     OW41390   0.655  13.591   4.766
79853SOL    HW141391   0.571  13.611   4.723
79853SOL    HW241392   0.676  13.670   4.815
79854SOL     OW41393   8.504   1.132  13.995
79854SOL    HW141394   8.528   1.224  14.001
79854SOL    HW241395   8.587   1.087  13.979
79855SOL     OW41396   3.257  13.517  13.280
79855SOL    HW141397   3.182  13.512  13.221
79855SOL    HW241398   3.302  13.433  13.269
79856SOL     OW41399   2.690   9.097   4.427
79856SOL    HW141400   2.726   9.096   4.338
79856SOL    HW241401   2.766   9.107   4.484
79857SOL     OW41402  12.512   0.703   8.320
79857SOL    HW141403  12.456   0.696   8.242
79857SOL    HW241404  12.525   0.612   8.348
79858SOL     OW41405   1.916   3.356   4.963
79858SOL    HW141406   1.908   3.313   5.048
79858SOL    HW241407   1.834   3.334   4.918
79859SOL     OW41408  14.372  14.607   7.366
79859SOL    HW141409  14.346  14.579   7.278
79859SOL    HW241410  14.429  14.538   7.398
79860SOL     OW41411  14.232  10.071   9.235
79860SOL    HW141412  14.301  10.024   9.188
79860SOL    HW241413  14.253  10.163   9.222
79861SOL     OW41414   5.911   6.757   7.845
79861SOL    HW141415   5.891   6.663   7.851
79861SOL    HW241416   5.841   6.792   7.790
79862SOL     OW41417   6.050   8.998   8.200
79862SOL    HW141418   5.982   9.065   8.210
79862SOL    HW241419   6.063   8.965   8.289
79863SOL     OW41420   0.047   8.308   4.952
79863SOL    HW141421   0.068   8.327   5.044
79863SOL    HW241422   0.112   8.357   4.902
79864SOL     OW41423   8.618   2.876  10.866
79864SOL    HW141424   8.599   2.835  10.782
79864SOL    HW241425   8.710   2.856  10.883
79865SOL     OW41426  12.206   6.443   6.043
79865SOL    HW141427  12.214   6.537   6.061
79865SOL    HW241428  12.242   6.401   6.122
79866SOL     OW41429   2.184   5.877   2.637
79866SOL    HW141430   2.144   5.845   2.718
79866SOL    HW241431   2.124   5.945   2.607
79867SOL     OW41432  14.857   1.524   2.694
79867SOL    HW141433   0.042   1.521   2.625
79867SOL    HW241434  14.776   1.498   2.650
79868SOL     OW41435   8.315  11.375   1.995
79868SOL    HW141436   8.397  11.339   1.961
79868SOL    HW241437   8.308  11.461   1.953
79869SOL     OW41438   1.255   1.993   2.570
79869SOL    HW141439   1.259   2.040   2.653
79869SOL    HW241440   1.175   2.024   2.528
79870SOL     OW41441   2.584   1.165  13.173
79870SOL    HW141442   2.664   1.194  13.216
79870SOL    HW241443   2.526   1.242  13.174
79871SOL     OW41444  13.781   4.281  14.596
79871SOL    HW141445  13.847   4.317  14.537
79871SOL    HW241446  13.786   4.337  14.674
79872SOL     OW41447  14.820   0.130   4.985
79872SOL    HW141448  14.790   0.041   5.004
79872SOL    HW241449  14.854   0.162   5.069
79873SOL     OW41450  12.052  12.219   1.589
79873SOL    HW141451  11.982  12.259   1.640
79873SOL    HW241452  12.056  12.271   1.509
79874SOL     OW41453  12.420   7.818   0.086
79874SOL    HW141454  12.459   7.818  14.881
79874SOL    HW241455  12.434   7.907   0.119
79875SOL     OW41456   2.535   3.889   8.718
79875SOL    HW141457   2.596   3.958   8.694
79875SOL    HW241458   2.529   3.894   8.813
79876SOL     OW41459  10.993   4.224   1.592
79876SOL    HW141460  11.053   4.187   1.657
79876SOL    HW241461  11.044   4.293   1.550
79877SOL     OW41462   8.308   2.410   9.514
79877SOL    HW141463   8.222   2.407   9.555
79877SOL    HW241464   8.331   2.318   9.500
79878SOL     OW41465   4.943   0.271  12.725
79878SOL    HW141466   4.897   0.340  12.774
79878SOL    HW241467   4.912   0.189  12.763
79879SOL     OW41468   1.440  12.035   4.737
79879SOL    HW141469   1.489  12.056   4.817
79879SOL    HW241470   1.434  12.119   4.690
79880SOL     OW41471   0.154   5.749   2.989
79880SOL    HW141472   0.062   5.727   2.975
79880SOL    HW241473   0.162   5.763   3.083
79881SOL     OW41474   6.074  10.859   8.870
79881SOL    HW141475   6.052  10.886   8.781
79881SOL    HW241476   6.098  10.767   8.862
79882SOL     OW41477  14.013   5.225   4.511
79882SOL    HW141478  13.918   5.220   4.502
79882SOL    HW241479  14.028   5.304   4.563
79883SOL     OW41480   2.611  10.731   0.481
79883SOL    HW141481   2.592  10.814   0.525
79883SOL    HW241482   2.651  10.677   0.549
79884SOL     OW41483   6.332   5.221   2.061
79884SOL    HW141484   6.257   5.271   2.094
79884SOL    HW241485   6.379   5.193   2.139
79885SOL     OW41486   0.895  10.790   8.817
79885SOL    HW141487   0.941  10.711   8.788
79885SOL    HW241488   0.805  10.760   8.832
79886SOL     OW41489   0.790  12.252   7.911
79886SOL    HW141490   0.734  12.292   7.845
79886SOL    HW241491   0.879  12.261   7.875
79887SOL     OW41492   2.366   1.123   9.570
79887SOL    HW141493   2.356   1.125   9.665
79887SOL    HW241494   2.429   1.193   9.551
79888SOL     OW41495   6.002   4.679  12.510
79888SOL    HW141496   5.969   4.635  12.588
79888SOL    HW241497   5.945   4.756  12.500
79889SOL     OW41498   4.381   8.156   6.968
79889SOL    HW141499   4.363   8.155   7.062
79889SOL    HW241500   4.442   8.084   6.954
79890SOL     OW41501  12.531  11.261  13.400
79890SOL    HW141502  12.448  11.295  13.365
79890SOL    HW241503  12.515  11.253  13.494
79891SOL     OW41504  10.323   9.765  12.576
79891SOL    HW141505  10.291   9.814  12.651
79891SOL    HW241506  10.358   9.831  12.517
79892SOL     OW41507   3.707  12.679  10.272
79892SOL    HW141508   3.718  12.652  10.363
79892SOL    HW241509   3.789  12.655  10.229
79893SOL     OW41510   8.409   7.839   6.895
79893SOL    HW141511   8.335   7.899   6.908
79893SOL    HW241512   8.368   7.753   6.886
79894SOL     OW41513   7.648  12.308   4.528
79894SOL    HW141514   7.642  12.215   4.548
79894SOL    HW241515   7.739  12.331   4.548
79895SOL     OW41516   4.232   0.661  10.727
79895SOL    HW141517   4.202   0.571  10.741
79895SOL    HW241518   4.154   0.710  10.703
79896SOL     OW41519   3.525   2.488   5.189
79896SOL    HW141520   3.589   2.535   5.135
79896SOL    HW241521   3.578   2.441   5.253
79897SOL     OW41522   0.598   8.817   3.669
79897SOL    HW141523   0.528   8.881   3.659
79897SOL    HW241524   0.595   8.765   3.590
79898SOL     OW41525  10.861   1.124   1.059
79898SOL    HW141526  10.860   1.124   1.154
79898SOL    HW241527  10.816   1.205   1.034
79899SOL     OW41528  11.033  11.957  10.477
79899SOL    HW141529  10.987  12.038  10.455
79899SOL    HW241530  11.124  11.973  10.452
79900SOL     OW41531   4.993   1.107   6.951
79900SOL    HW141532   4.912   1.142   6.912
79900SOL    HW241533   4.965   1.073   7.036
79901SOL     OW41534   0.375   0.159   4.381
79901SOL    HW141535   0.288   0.155   4.421
79901SOL    HW241536   0.434   0.127   4.449
79902SOL     OW41537  12.628   2.743   0.158
79902SOL    HW141538  12.664   2.655   0.176
79902SOL    HW241539  12.700   2.802   0.178
79903SOL     OW41540   6.674   4.080   6.372
79903SOL    HW141541   6.746   4.032   6.412
79903SOL    HW241542   6.716   4.134   6.305
79904SOL     OW41543   1.542  11.479  14.601
79904SOL    HW141544   1.588  11.415  14.655
79904SOL    HW241545   1.451  11.451  14.601
79905SOL     OW41546   3.139   3.131   3.119
79905SOL    HW141547   3.228   3.096   3.115
79905SOL    HW241548   3.085   3.063   3.079
79906SOL     OW41549   2.587   0.438   0.192
79906SOL    HW141550   2.607   0.472   0.279
79906SOL    HW241551   2.498   0.468   0.175
79907SOL     OW41552   2.880   5.289  10.846
79907SOL    HW141553   2.914   5.232  10.777
79907SOL    HW241554   2.893   5.378  10.812
79908SOL     OW41555   6.762  10.504  10.695
79908SOL    HW141556   6.726  10.512  10.784
79908SOL    HW241557   6.846  10.461  10.708
79909SOL     OW41558   8.853   8.254   1.188
79909SOL    HW141559   8.933   8.294   1.221
79909SOL    HW241560   8.788   8.269   1.256
79910SOL     OW41561  10.546   3.788  10.962
79910SOL    HW141562  10.528   3.696  10.980
79910SOL    HW241563  10.569   3.791  10.869
79911SOL     OW41564  10.149  12.754   9.736
79911SOL    HW141565  10.231  12.732   9.693
79911SOL    HW241566  10.121  12.672   9.778
79912SOL     OW41567   2.983   0.351  10.754
79912SOL    HW141568   2.928   0.383  10.825
79912SOL    HW241569   2.922   0.332  10.683
79913SOL     OW41570   9.808  13.824  13.870
79913SOL    HW141571   9.871  13.752  13.876
79913SOL    HW241572   9.795  13.852  13.960
79914SOL     OW41573  12.714   3.601   4.396
79914SOL    HW141574  12.709   3.693   4.423
79914SOL    HW241575  12.744   3.556   4.475
79915SOL     OW41576   4.222   2.878   5.850
79915SOL    HW141577   4.131   2.895   5.875
79915SOL    HW241578   4.261   2.965   5.844
79916SOL     OW41579   8.965   2.000   3.102
79916SOL    HW141580   8.918   1.936   3.156
79916SOL    HW241581   9.050   1.958   3.085
79917SOL     OW41582  13.485  12.503  11.479
79917SOL    HW141583  13.556  12.443  11.456
79917SOL    HW241584  13.439  12.518  11.396
79918SOL     OW41585   7.136   4.333   6.526
79918SOL    HW141586   7.085   4.387   6.587
79918SOL    HW241587   7.184   4.395   6.472
79919SOL     OW41588   5.668   9.338  10.832
79919SOL    HW141589   5.653   9.276  10.903
79919SOL    HW241590   5.743   9.302  10.784
79920SOL     OW41591   2.355  11.979  12.660
79920SOL    HW141592   2.273  11.932  12.646
79920SOL    HW241593   2.368  11.976  12.755
79921SOL     OW41594  11.440   5.665  12.752
79921SOL    HW141595  11.471   5.634  12.837
79921SOL    HW241596  11.404   5.588  12.709
79922SOL     OW41597  11.967  12.851   6.518
79922SOL    HW141598  11.981  12.794   6.443
79922SOL    HW241599  11.879  12.887   6.506
79923SOL     OW41600   1.657   1.103   1.057
79923SOL    HW141601   1.674   1.013   1.029
79923SOL    HW241602   1.587   1.096   1.121
79924SOL     OW41603   3.197  12.749   8.442
79924SOL    HW141604   3.286  12.780   8.459
79924SOL    HW241605   3.208  12.660   8.410
79925SOL     OW41606  11.846   7.454  14.512
79925SOL    HW141607  11.776   7.501  14.556
79925SOL    HW241608  11.803   7.380  14.470
79926SOL     OW41609  13.320   4.020  13.723
79926SOL    HW141610  13.330   3.931  13.759
79926SOL    HW241611  13.362   4.077  13.787
79927SOL     OW41612   2.564   3.291  11.108
79927SOL    HW141613   2.572   3.387  11.117
79927SOL    HW241614   2.642   3.257  11.152
79928SOL     OW41615   1.505  12.009   5.036
79928SOL    HW141616   1.485  11.957   5.114
79928SOL    HW241617   1.473  12.097   5.058
79929SOL     OW41618  14.283   2.741   6.207
79929SOL    HW141619  14.198   2.704   6.181
79929SOL    HW241620  14.330   2.668   6.247
79930SOL     OW41621   2.999   9.156   5.533
79930SOL    HW141622   3.073   9.173   5.592
79930SOL    HW241623   2.922   9.185   5.583
79931SOL     OW41624  10.145  14.705   5.126
79931SOL    HW141625  10.155  14.699   5.031
79931SOL    HW241626  10.231  14.730   5.158
79932SOL     OW41627  12.512  12.913  14.683
79932SOL    HW141628  12.485  12.840  14.628
79932SOL    HW241629  12.568  12.967  14.627
79933SOL     OW41630  10.314  11.206  12.172
79933SOL    HW141631  10.284  11.296  12.188
79933SOL    HW241632  10.238  11.162  12.133
79934SOL     OW41633   6.042   4.595  10.484
79934SOL    HW141634   5.969   4.547  10.524
79934SOL    HW241635   6.005   4.637  10.407
79935SOL     OW41636   5.405   3.335  12.325
79935SOL    HW141637   5.332   3.300  12.375
79935SOL    HW241638   5.454   3.257  12.297
79936SOL     OW41639  11.317   8.469   1.822
79936SOL    HW141640  11.390   8.530   1.823
79936SOL    HW241641  11.251   8.511   1.766
79937SOL     OW41642   3.339   3.302   5.738
79937SOL    HW141643   3.284   3.348   5.802
79937SOL    HW241644   3.361   3.219   5.780
79938SOL     OW41645   4.560   3.372   6.678
79938SOL    HW141646   4.468   3.372   6.705
79938SOL    HW241647   4.600   3.302   6.731
79939SOL     OW41648   1.722   2.425   4.762
79939SOL    HW141649   1.784   2.459   4.827
79939SOL    HW241650   1.762   2.344   4.731
79940SOL     OW41651   1.090   0.810  13.515
79940SOL    HW141652   1.117   0.753  13.587
79940SOL    HW241653   1.092   0.754  13.438
79941SOL     OW41654  13.199   2.814   1.048
79941SOL    HW141655  13.210   2.723   1.019
79941SOL    HW241656  13.209   2.811   1.143
79942SOL     OW41657   0.077   4.526  12.753
79942SOL    HW141658   0.127   4.563  12.680
79942SOL    HW241659   0.127   4.553  12.831
79943SOL     OW41660   7.928  10.910   2.597
79943SOL    HW141661   7.964  10.991   2.634
79943SOL    HW241662   7.837  10.932   2.576
79944SOL     OW41663   7.154   1.683   7.328
79944SOL    HW141664   7.249   1.676   7.323
79944SOL    HW241665   7.123   1.592   7.325
79945SOL     OW41666   2.239   5.329  14.036
79945SOL    HW141667   2.196   5.413  14.055
79945SOL    HW241668   2.260   5.334  13.943
79946SOL     OW41669   0.775   7.002  10.751
79946SOL    HW141670   0.845   7.063  10.775
79946SOL    HW241671   0.807   6.917  10.780
79947SOL     OW41672  12.353   5.041   6.458
79947SOL    HW141673  12.413   4.995   6.398
79947SOL    HW241674  12.280   5.068   6.403
79948SOL     OW41675  11.759   9.875   9.127
79948SOL    HW141676  11.848   9.898   9.100
79948SOL    HW241677  11.744   9.925   9.207
79949SOL     OW41678  14.421   7.680   6.448
79949SOL    HW141679  14.431   7.754   6.509
79949SOL    HW241680  14.474   7.610   6.486
79950SOL     OW41681   7.335  12.980   6.458
79950SOL    HW141682   7.357  13.014   6.545
79950SOL    HW241683   7.324  13.058   6.404
79951SOL     OW41684   2.218   3.383   2.598
79951SOL    HW141685   2.277   3.428   2.537
79951SOL    HW241686   2.147   3.351   2.543
79952SOL     OW41687   0.725  13.370  14.411
79952SOL    HW141688   0.724  13.325  14.496
79952SOL    HW241689   0.776  13.450  14.428
79953SOL     OW41690   5.153   4.061   8.257
79953SOL    HW141691   5.094   4.119   8.304
79953SOL    HW241692   5.117   4.058   8.168
79954SOL     OW41693  14.148  11.811  13.819
79954SOL    HW141694  14.196  11.736  13.855
79954SOL    HW241695  14.215  11.865  13.778
79955SOL     OW41696   3.015   9.645   0.071
79955SOL    HW141697   2.952   9.629   0.142
79955SOL    HW241698   2.962   9.683   0.001
79956SOL     OW41699   8.355   8.533   8.163
79956SOL    HW141700   8.337   8.614   8.115
79956SOL    HW241701   8.278   8.519   8.217
79957SOL     OW41702   1.004  11.124  14.312
79957SOL    HW141703   1.035  11.204  14.355
79957SOL    HW241704   1.072  11.103  14.248
79958SOL     OW41705   0.762   3.673  14.584
79958SOL    HW141706   0.772   3.578  14.584
79958SOL    HW241707   0.675   3.688  14.546
79959SOL     OW41708   1.233   5.799   6.263
79959SOL    HW141709   1.174   5.875   6.269
79959SOL    HW241710   1.207   5.755   6.182
79960SOL     OW41711   5.037  14.863   2.766
79960SOL    HW141712   5.016  14.775   2.734
79960SOL    HW241713   5.126  14.854   2.801
79961SOL     OW41714  11.730   2.259  13.805
79961SOL    HW141715  11.778   2.197  13.860
79961SOL    HW241716  11.723   2.215  13.720
79962SOL     OW41717  12.084  12.886   5.382
79962SOL    HW141718  12.042  12.968   5.406
79962SOL    HW241719  12.099  12.893   5.288
79963SOL     OW41720  14.844   2.466   5.927
79963SOL    HW141721   0.004   2.539   5.972
79963SOL    HW241722  14.751   2.474   5.949
79964SOL     OW41723  11.345  10.746   7.654
79964SOL    HW141724  11.260  10.791   7.655
79964SOL    HW241725  11.327  10.661   7.614
79965SOL     OW41726   3.915  10.650  11.184
79965SOL    HW141727   3.856  10.607  11.246
79965SOL    HW241728   4.001  10.642  11.225
79966SOL     OW41729  12.482   0.202  10.676
79966SOL    HW141730  12.406   0.226  10.729
79966SOL    HW241731  12.511   0.118  10.711
79967SOL     OW41732   9.219   1.495   2.451
79967SOL    HW141733   9.240   1.585   2.425
79967SOL    HW241734   9.304   1.452   2.458
79968SOL     OW41735   3.246   3.050   8.910
79968SOL    HW141736   3.201   2.980   8.863
79968SOL    HW241737   3.239   3.126   8.852
79969SOL     OW41738   9.339   9.279  10.548
79969SOL    HW141739   9.426   9.243  10.533
79969SOL    HW241740   9.306   9.232  10.625
79970SOL     OW41741   9.870   1.506   3.410
79970SOL    HW141742   9.862   1.412   3.396
79970SOL    HW241743   9.845   1.519   3.501
79971SOL     OW41744  11.987  11.263   0.348
79971SOL    HW141745  11.916  11.199   0.341
79971SOL    HW241746  11.960  11.334   0.290
79972SOL     OW41747   3.941  13.137   5.838
79972SOL    HW141748   4.007  13.197   5.871
79972SOL    HW241749   3.969  13.051   5.868
79973SOL     OW41750  11.017   9.128   3.602
79973SOL    HW141751  11.057   9.046   3.630
79973SOL    HW241752  11.084   9.172   3.551
79974SOL     OW41753  11.920   0.817   0.695
79974SOL    HW141754  11.889   0.731   0.666
79974SOL    HW241755  11.936   0.807   0.789
79975SOL     OW41756   3.525  14.306   0.985
79975SOL    HW141757   3.567  14.388   0.961
79975SOL    HW241758   3.496  14.269   0.902
79976SOL     OW41759  10.257  12.470   5.691
79976SOL    HW141760  10.353  12.466   5.694
79976SOL    HW241761  10.236  12.458   5.598
79977SOL     OW41762  11.129   6.536  12.118
79977SOL    HW141763  11.111   6.464  12.179
79977SOL    HW241764  11.128   6.494  12.032
79978SOL     OW41765   9.930  13.888   3.028
79978SOL    HW141766   9.835  13.881   3.014
79978SOL    HW241767   9.960  13.798   3.035
79979SOL     OW41768   8.752   3.545   8.962
79979SOL    HW141769   8.695   3.561   8.887
79979SOL    HW241770   8.709   3.475   9.011
79980SOL     OW41771   4.543   0.171   9.489
79980SOL    HW141772   4.504   0.258   9.496
79980SOL    HW241773   4.511   0.137   9.406
79981SOL     OW41774  11.321   3.914   7.165
79981SOL    HW141775  11.296   3.903   7.073
79981SOL    HW241776  11.389   3.981   7.163
79982SOL     OW41777   0.781   1.298   3.935
79982SOL    HW141778   0.796   1.301   3.841
79982SOL    HW241779   0.805   1.384   3.967
79983SOL     OW41780  13.460   4.958  11.753
79983SOL    HW141781  13.408   5.036  11.733
79983SOL    HW241782  13.544   4.973  11.710
79984SOL     OW41783  14.500   8.829   1.472
79984SOL    HW141784  14.557   8.753   1.462
79984SOL    HW241785  14.489   8.838   1.566
79985SOL     OW41786   2.643  13.941   2.169
79985SOL    HW141787   2.653  13.947   2.074
79985SOL    HW241788   2.667  13.850   2.190
79986SOL     OW41789   2.462  14.837   4.114
79986SOL    HW141790   2.400   0.003   4.169
79986SOL    HW241791   2.416  14.756   4.091
79987SOL     OW41792  10.193   0.848   9.080
79987SOL    HW141793  10.267   0.797   9.047
79987SOL    HW241794  10.184   0.921   9.018
79988SOL     OW41795   6.603   7.263  11.109
79988SOL    HW141796   6.578   7.310  11.188
79988SOL    HW241797   6.692   7.292  11.090
79989SOL     OW41798  12.314   6.439  11.690
79989SOL    HW141799  12.257   6.364  11.673
79989SOL    HW241800  12.345   6.426  11.779
79990SOL     OW41801   2.263   0.969   8.603
79990SOL    HW141802   2.200   1.001   8.668
79990SOL    HW241803   2.282   0.880   8.630
79991SOL     OW41804   1.289  14.764  12.748
79991SOL    HW141805   1.257  14.784  12.660
79991SOL    HW241806   1.216  14.721  12.792
79992SOL     OW41807   3.936   5.683   1.199
79992SOL    HW141808   3.991   5.705   1.124
79992SOL    HW241809   3.995   5.687   1.274
79993SOL     OW41810   4.211   3.956  13.114
79993SOL    HW141811   4.296   3.935  13.153
79993SOL    HW241812   4.150   3.895  13.156
79994SOL     OW41813  11.919   6.663   0.437
79994SOL    HW141814  12.000   6.707   0.413
79994SOL    HW241815  11.856   6.691   0.370
79995SOL     OW41816  10.733   1.088   6.068
79995SOL    HW141817  10.753   1.024   6.001
79995SOL    HW241818  10.651   1.057   6.107
79996SOL     OW41819   1.059   6.281   1.577
79996SOL    HW141820   1.116   6.357   1.588
79996SOL    HW241821   0.978   6.304   1.622
79997SOL     OW41822   0.101  12.615   7.634
79997SOL    HW141823   0.146  12.566   7.566
79997SOL    HW241824   0.044  12.676   7.586
79998SOL     OW41825   7.749  10.641   9.059
79998SOL    HW141826   7.740  10.586   9.137
79998SOL    HW241827   7.832  10.612   9.019
79999SOL     OW41828  12.530  11.303   9.702
79999SOL    HW141829  12.601  11.247   9.734
79999SOL    HW241830  12.454  11.245   9.700
80000SOL     OW41831   9.508   5.707   5.218
80000SOL    HW141832   9.559   5.788   5.209
80000SOL    HW241833   9.455   5.722   5.297
80001SOL     OW41834   4.158   6.956  11.361
80001SOL    HW141835   4.095   7.028  11.367
80001SOL    HW241836   4.112   6.881  11.398
80002SOL     OW41837   3.562   0.101   2.810
80002SOL    HW141838   3.548   0.169   2.876
80002SOL    HW241839   3.588   0.024   2.861
80003SOL     OW41840   4.417   3.064  10.022
80003SOL    HW141841   4.474   3.008  10.075
80003SOL    HW241842   4.344   3.007   9.996
80004SOL     OW41843   0.647  13.246   4.513
80004SOL    HW141844   0.656  13.299   4.592
80004SOL    HW241845   0.556  13.258   4.486
80005SOL     OW41846   2.883   1.012  11.579
80005SOL    HW141847   2.946   1.058  11.634
80005SOL    HW241848   2.936   0.952  11.526
80006SOL     OW41849   5.355   4.205   3.709
80006SOL    HW141850   5.408   4.256   3.771
80006SOL    HW241851   5.402   4.123   3.698
80007SOL     OW41852  10.012   0.040  14.596
80007SOL    HW141853  10.079   0.106  14.614
80007SOL    HW241854   9.939   0.064  14.654
80008SOL     OW41855   0.111   0.139   4.211
80008SOL    HW141856   0.039   0.101   4.260
80008SOL    HW241857   0.161   0.189   4.276
80009SOL     OW41858   2.249   7.650   5.568
80009SOL    HW141859   2.260   7.686   5.479
80009SOL    HW241860   2.225   7.559   5.553
80010SOL     OW41861   4.263   0.022  14.173
80010SOL    HW141862   4.331  14.869  14.231
80010SOL    HW241863   4.310   0.043  14.092
80011SOL     OW41864   5.699   2.183   8.073
80011SOL    HW141865   5.609   2.159   8.048
80011SOL    HW241866   5.748   2.180   7.991
80012SOL     OW41867   3.164   2.969   3.878
80012SOL    HW141868   3.127   3.048   3.839
80012SOL    HW241869   3.111   2.954   3.957
80013SOL     OW41870   2.156   8.215  10.388
80013SOL    HW141871   2.224   8.200  10.453
80013SOL    HW241872   2.097   8.140  10.397
80014SOL     OW41873  12.133   1.874  13.451
80014SOL    HW141874  12.131   1.864  13.356
80014SOL    HW241875  12.194   1.946  13.466
80015SOL     OW41876   4.568  10.106  12.150
80015SOL    HW141877   4.523  10.187  12.126
80015SOL    HW241878   4.549  10.046  12.077
80016SOL     OW41879   5.440  10.317   8.086
80016SOL    HW141880   5.364  10.287   8.136
80016SOL    HW241881   5.427  10.280   7.999
80017SOL     OW41882  12.760  11.897   7.040
80017SOL    HW141883  12.820  11.828   7.009
80017SOL    HW241884  12.774  11.899   7.135
80018SOL     OW41885   8.086  12.245   1.920
80018SOL    HW141886   8.100  12.178   1.853
80018SOL    HW241887   8.097  12.198   2.003
80019SOL     OW41888   2.652   6.917  10.411
80019SOL    HW141889   2.737   6.878  10.394
80019SOL    HW241890   2.671   7.005  10.443
80020SOL     OW41891   9.174  12.829  14.548
80020SOL    HW141892   9.144  12.796  14.463
80020SOL    HW241893   9.263  12.795  14.557
80021SOL     OW41894  10.564   9.590   1.384
80021SOL    HW141895  10.592   9.503   1.412
80021SOL    HW241896  10.488   9.575   1.328
80022SOL     OW41897   8.440   0.926   8.996
80022SOL    HW141898   8.361   0.931   9.051
80022SOL    HW241899   8.443   0.834   8.968
80023SOL     OW41900   8.972   4.845   9.270
80023SOL    HW141901   8.959   4.767   9.217
80023SOL    HW241902   9.027   4.902   9.215
80024SOL     OW41903   4.328   7.910   2.871
80024SOL    HW141904   4.337   7.988   2.926
80024SOL    HW241905   4.416   7.871   2.869
80025SOL     OW41906   8.618  13.911   8.632
80025SOL    HW141907   8.696  13.857   8.626
80025SOL    HW241908   8.557  13.873   8.569
80026SOL     OW41909   2.535   3.088  14.797
80026SOL    HW141910   2.629   3.106  14.794
80026SOL    HW241911   2.495   3.167  14.761
80027SOL     OW41912   1.198   8.531   0.173
80027SOL    HW141913   1.126   8.505   0.115
80027SOL    HW241914   1.189   8.625   0.182
80028SOL     OW41915   1.345   0.205   1.204
80028SOL    HW141916   1.415   0.163   1.152
80028SOL    HW241917   1.379   0.206   1.293
80029SOL     OW41918  13.010   0.315  13.166
80029SOL    HW141919  13.092   0.285  13.205
80029SOL    HW241920  12.964   0.235  13.141
80030SOL     OW41921   2.747   4.795  10.590
80030SOL    HW141922   2.791   4.710  10.592
80030SOL    HW241923   2.691   4.795  10.667
80031SOL     OW41924  13.207   7.972  10.595
80031SOL    HW141925  13.157   7.902  10.553
80031SOL    HW241926  13.215   8.039  10.527
80032SOL     OW41927   1.174   7.973   6.974
80032SOL    HW141928   1.183   8.010   7.061
80032SOL    HW241929   1.143   7.884   6.989
80033SOL     OW41930   8.052   1.214   7.996
80033SOL    HW141931   8.018   1.278   8.058
80033SOL    HW241932   8.114   1.262   7.942
80034SOL     OW41933   1.745   6.816   2.081
80034SOL    HW141934   1.811   6.749   2.068
80034SOL    HW241935   1.732   6.854   1.995
80035SOL     OW41936   7.008   4.930   3.308
80035SOL    HW141937   7.032   4.883   3.229
80035SOL    HW241938   6.940   4.877   3.349
80036SOL     OW41939   8.110   3.152   8.149
80036SOL    HW141940   8.023   3.180   8.120
80036SOL    HW241941   8.128   3.075   8.095
80037SOL     OW41942   3.545   5.314  13.200
80037SOL    HW141943   3.628   5.280  13.232
80037SOL    HW241944   3.558   5.409  13.198
80038SOL     OW41945   9.863  10.603  13.960
80038SOL    HW141946   9.928  10.540  13.930
80038SOL    HW241947   9.877  10.680  13.904
80039SOL     OW41948   9.056   0.302  11.279
80039SOL    HW141949   8.976   0.249  11.274
80039SOL    HW241950   9.109   0.259  11.346
80040SOL     OW41951  14.408   2.001   9.921
80040SOL    HW141952  14.376   1.913   9.940
80040SOL    HW241953  14.439   2.034  10.005
80041SOL     OW41954   1.613   7.206   5.457
80041SOL    HW141955   1.698   7.244   5.478
80041SOL    HW241956   1.625   7.112   5.469
80042SOL     OW41957   5.161   6.908  10.910
80042SOL    HW141958   5.176   6.998  10.882
80042SOL    HW241959   5.230   6.891  10.975
80043SOL     OW41960   5.855   8.839   4.235
80043SOL    HW141961   5.784   8.869   4.292
80043SOL    HW241962   5.886   8.917   4.191
80044SOL     OW41963   9.491   5.728   3.128
80044SOL    HW141964   9.512   5.766   3.043
80044SOL    HW241965   9.418   5.780   3.160
80045SOL     OW41966   7.564   0.515  11.545
80045SOL    HW141967   7.535   0.556  11.464
80045SOL    HW241968   7.507   0.552  11.613
80046SOL     OW41969   2.695   8.048   4.385
80046SOL    HW141970   2.740   8.092   4.313
80046SOL    HW241971   2.757   8.050   4.458
80047SOL     OW41972   9.160  13.237   7.486
80047SOL    HW141973   9.106  13.302   7.530
80047SOL    HW241974   9.209  13.287   7.420
80048SOL     OW41975  14.562  13.429   5.214
80048SOL    HW141976  14.569  13.382   5.298
80048SOL    HW241977  14.633  13.493   5.217
80049SOL     OW41978   0.380   0.664   8.346
80049SOL    HW141979   0.416   0.708   8.423
80049SOL    HW241980   0.286   0.678   8.351
80050SOL     OW41981  12.971   0.490  11.019
80050SOL    HW141982  12.975   0.504  11.113
80050SOL    HW241983  12.958   0.577  10.982
80051SOL     OW41984   9.194   9.806  12.153
80051SOL    HW141985   9.116   9.847  12.117
80051SOL    HW241986   9.244   9.777  12.076
80052SOL     OW41987  13.495  13.342   1.176
80052SOL    HW141988  13.488  13.249   1.154
80052SOL    HW241989  13.535  13.382   1.099
80053SOL     OW41990   6.210   7.161   8.172
80053SOL    HW141991   6.148   7.127   8.237
80053SOL    HW241992   6.240   7.084   8.125
80054SOL     OW41993  11.892   8.747   1.470
80054SOL    HW141994  11.917   8.747   1.378
80054SOL    HW241995  11.947   8.814   1.510
80055SOL     OW41996   9.078   3.633   6.169
80055SOL    HW141997   9.163   3.591   6.154
80055SOL    HW241998   9.049   3.597   6.252
80056SOL     OW41999   8.706   0.123   1.672
80056SOL    HW142000   8.652   0.133   1.751
80056SOL    HW242001   8.791   0.160   1.696
80057SOL     OW42002   6.718   0.812   5.595
80057SOL    HW142003   6.704   0.893   5.546
80057SOL    HW242004   6.679   0.744   5.540
80058SOL     OW42005   8.122   9.061   5.242
80058SOL    HW142006   8.034   9.023   5.240
80058SOL    HW242007   8.181   8.986   5.236
80059SOL     OW42008   4.242   0.611   0.206
80059SOL    HW142009   4.302   0.586   0.277
80059SOL    HW242010   4.286   0.583   0.126
80060SOL     OW42011   8.490   0.033   0.707
80060SOL    HW142012   8.489  14.822   0.730
80060SOL    HW242013   8.489   0.079   0.791
80061SOL     OW42014   5.845   4.438   2.277
80061SOL    HW142015   5.827   4.396   2.193
80061SOL    HW242016   5.876   4.368   2.333
80062SOL     OW42017   8.958   1.698   9.366
80062SOL    HW142018   8.997   1.611   9.359
80062SOL    HW242019   8.918   1.713   9.280
80063SOL     OW42020  13.868   9.097   5.222
80063SOL    HW142021  13.811   9.021   5.237
80063SOL    HW242022  13.926   9.098   5.298
80064SOL     OW42023  14.555   1.853  12.218
80064SOL    HW142024  14.603   1.776  12.191
80064SOL    HW242025  14.464   1.835  12.192
80065SOL     OW42026   3.564   5.186  12.630
80065SOL    HW142027   3.551   5.106  12.680
80065SOL    HW242028   3.505   5.177  12.555
80066SOL     OW42029   4.718   8.952   5.772
80066SOL    HW142030   4.680   8.968   5.858
80066SOL    HW242031   4.707   8.858   5.758
80067SOL     OW42032  11.360  10.602  14.517
80067SOL    HW142033  11.357  10.511  14.488
80067SOL    HW242034  11.270  10.621  14.543
80068SOL     OW42035   3.112  12.833   5.105
80068SOL    HW142036   3.094  12.764   5.169
80068SOL    HW242037   3.154  12.902   5.156
80069SOL     OW42038   7.965   8.574   3.246
80069SOL    HW142039   8.010   8.640   3.299
80069SOL    HW242040   7.886   8.618   3.213
80070SOL     OW42041   5.562   9.377   5.322
80070SOL    HW142042   5.575   9.467   5.293
80070SOL    HW242043   5.524   9.385   5.409
80071SOL     OW42044   7.092   0.682  10.355
80071SOL    HW142045   7.035   0.680  10.432
80071SOL    HW242046   7.172   0.724  10.385
80072SOL     OW42047  13.568   8.169   1.792
80072SOL    HW142048  13.574   8.220   1.711
80072SOL    HW242049  13.476   8.142   1.797
80073SOL     OW42050  12.455  11.247  10.809
80073SOL    HW142051  12.528  11.187  10.796
80073SOL    HW242052  12.390  11.195  10.856
80074SOL     OW42053   7.674  11.463   2.006
80074SOL    HW142054   7.648  11.375   1.977
80074SOL    HW242055   7.606  11.520   1.971
80075SOL     OW42056   1.901   5.057   6.885
80075SOL    HW142057   1.942   5.083   6.803
80075SOL    HW242058   1.972   5.055   6.949
80076SOL     OW42059   8.355  12.006  11.907
80076SOL    HW142060   8.279  12.062  11.887
80076SOL    HW242061   8.318  11.934  11.958
80077SOL     OW42062   9.278   0.506  11.171
80077SOL    HW142063   9.235   0.587  11.144
80077SOL    HW242064   9.206   0.446  11.189
80078SOL     OW42065   7.675   1.407   8.277
80078SOL    HW142066   7.669   1.459   8.358
80078SOL    HW242067   7.622   1.455   8.214
80079SOL     OW42068   0.456   7.927   8.076
80079SOL    HW142069   0.505   8.007   8.092
80079SOL    HW242070   0.445   7.924   7.981
80080SOL     OW42071   7.493   1.933   7.737
80080SOL    HW142072   7.466   1.969   7.821
80080SOL    HW242073   7.573   1.884   7.757
80081SOL     OW42074   0.598  11.688  12.292
80081SOL    HW142075   0.562  11.698  12.204
80081SOL    HW242076   0.689  11.663  12.278
80082SOL     OW42077   5.024   1.265   1.617
80082SOL    HW142078   4.968   1.190   1.600
80082SOL    HW242079   4.966   1.341   1.608
80083SOL     OW42080   9.090  10.680   2.821
80083SOL    HW142081   9.003  10.701   2.787
80083SOL    HW242082   9.077  10.671   2.916
80084SOL     OW42083   5.295  13.951  13.119
80084SOL    HW142084   5.330  13.898  13.047
80084SOL    HW242085   5.271  13.886  13.186
80085SOL     OW42086   5.559   3.422  13.546
80085SOL    HW142087   5.616   3.493  13.576
80085SOL    HW242088   5.582   3.410  13.454
80086SOL     OW42089   0.663  14.809   8.077
80086SOL    HW142090   0.604  14.836   8.147
80086SOL    HW242091   0.750  14.833   8.108
80087SOL     OW42092   7.999  13.492   0.413
80087SOL    HW142093   8.069  13.427   0.415
80087SOL    HW242094   7.942  13.468   0.486
80088SOL     OW42095  11.608  13.967   0.146
80088SOL    HW142096  11.670  13.965   0.074
80088SOL    HW242097  11.654  13.926   0.219
80089SOL     OW42098  11.189   6.604   6.875
80089SOL    HW142099  11.112   6.569   6.920
80089SOL    HW242100  11.254   6.535   6.880
80090SOL     OW42101   2.436   8.078   5.141
80090SOL    HW142102   2.406   8.044   5.226
80090SOL    HW242103   2.524   8.110   5.158
80091SOL     OW42104   9.531   2.169   2.307
80091SOL    HW142105   9.443   2.149   2.339
80091SOL    HW242106   9.517   2.213   2.223
80092SOL     OW42107   3.505  13.507   1.647
80092SOL    HW142108   3.507  13.483   1.555
80092SOL    HW242109   3.426  13.560   1.657
80093SOL     OW42110   2.224  11.855  10.378
80093SOL    HW142111   2.131  11.876  10.367
80093SOL    HW242112   2.233  11.834  10.471
80094SOL     OW42113   2.539   6.085   5.793
80094SOL    HW142114   2.572   6.174   5.784
80094SOL    HW242115   2.612   6.029   5.766
80095SOL     OW42116  10.743  12.987  11.649
80095SOL    HW142117  10.701  13.058  11.699
80095SOL    HW242118  10.779  12.930  11.716
80096SOL     OW42119   8.012   7.221   7.988
80096SOL    HW142120   8.042   7.288   8.049
80096SOL    HW242121   8.093   7.184   7.951
80097SOL     OW42122   2.250   7.157   3.207
80097SOL    HW142123   2.263   7.152   3.112
80097SOL    HW242124   2.179   7.219   3.219
80098SOL     OW42125   9.615  14.568  12.450
80098SOL    HW142126   9.579  14.536  12.533
80098SOL    HW242127   9.687  14.508  12.431
80099SOL     OW42128   6.758   1.281  10.909
80099SOL    HW142129   6.713   1.204  10.876
80099SOL    HW242130   6.826   1.299  10.844
80100SOL     OW42131   8.321   1.332  11.516
80100SOL    HW142132   8.345   1.271  11.445
80100SOL    HW242133   8.253   1.286  11.565
80101SOL     OW42134  11.350   8.083  14.296
80101SOL    HW142135  11.425   8.049  14.345
80101SOL    HW242136  11.323   8.010  14.240
80102SOL     OW42137   7.373  10.499  13.930
80102SOL    HW142138   7.368  10.491  14.025
80102SOL    HW242139   7.372  10.593  13.914
80103SOL     OW42140   2.283   8.971  10.661
80103SOL    HW142141   2.224   8.968  10.736
80103SOL    HW242142   2.272   8.887  10.618
80104SOL     OW42143   5.127   6.014   9.858
80104SOL    HW142144   5.109   6.021   9.764
80104SOL    HW242145   5.188   5.940   9.864
80105SOL     OW42146   3.555   0.399  14.284
80105SOL    HW142147   3.593   0.422  14.369
80105SOL    HW242148   3.551   0.482  14.237
80106SOL     OW42149  13.409   2.545  12.448
80106SOL    HW142150  13.439   2.470  12.499
80106SOL    HW242151  13.487   2.574  12.400
80107SOL     OW42152   3.038   2.069   4.969
80107SOL    HW142153   3.057   2.146   4.916
80107SOL    HW242154   2.964   2.027   4.924
80108SOL     OW42155  14.859   2.481   7.049
80108SOL    HW142156  14.879   2.492   6.956
80108SOL    HW242157  14.767   2.453   7.051
80109SOL     OW42158   6.344  12.603   5.621
80109SOL    HW142159   6.249  12.597   5.636
80109SOL    HW242160   6.377  12.517   5.645
80110SOL     OW42161   1.742   8.569  10.494
80110SOL    HW142162   1.704   8.594  10.578
80110SOL    HW242163   1.677   8.595  10.429
80111SOL     OW42164   2.066   0.248   8.139
80111SOL    HW142165   2.021   0.311   8.083
80111SOL    HW242166   2.150   0.289   8.159
80112SOL     OW42167   1.644   3.107   0.414
80112SOL    HW142168   1.640   3.014   0.392
80112SOL    HW242169   1.630   3.110   0.508
80113SOL     OW42170  10.953  10.396   8.010
80113SOL    HW142171  11.025  10.392   8.073
80113SOL    HW242172  10.886  10.450   8.053
80114SOL     OW42173  12.183   4.834  12.732
80114SOL    HW142174  12.121   4.898  12.698
80114SOL    HW242175  12.128   4.762  12.764
80115SOL     OW42176  13.665   2.002   8.924
80115SOL    HW142177  13.629   1.987   9.011
80115SOL    HW242178  13.759   2.006   8.938
80116SOL     OW42179   3.832  14.788   5.355
80116SOL    HW142180   3.912  14.772   5.405
80116SOL    HW242181   3.771  14.721   5.385
80117SOL     OW42182   8.490   2.419  11.185
80117SOL    HW142183   8.580   2.384  11.182
80117SOL    HW242184   8.474   2.450  11.096
80118SOL     OW42185   1.898   8.146   3.993
80118SOL    HW142186   1.993   8.143   4.005
80118SOL    HW242187   1.884   8.219   3.933
80119SOL     OW42188  11.999   3.263  10.323
80119SOL    HW142189  12.047   3.242  10.403
80119SOL    HW242190  11.974   3.354  10.334
80120SOL     OW42191   3.966  11.755   8.870
80120SOL    HW142192   3.923  11.789   8.948
80120SOL    HW242193   3.895  11.745   8.806
80121SOL     OW42194  14.046   8.503   3.785
80121SOL    HW142195  14.096   8.546   3.716
80121SOL    HW242196  14.039   8.412   3.756
80122SOL     OW42197   8.115   2.870   6.003
80122SOL    HW142198   8.057   2.931   6.048
80122SOL    HW242199   8.092   2.879   5.911
80123SOL     OW42200   0.184  14.523   5.827
80123SOL    HW142201   0.154  14.504   5.916
80123SOL    HW242202   0.278  14.538   5.836
80124SOL     OW42203   2.632   5.960  12.413
80124SOL    HW142204   2.675   5.878  12.437
80124SOL    HW242205   2.552   5.932  12.369
80125SOL     OW42206   1.506   0.734   1.962
80125SOL    HW142207   1.480   0.807   1.905
80125SOL    HW242208   1.533   0.665   1.901
80126SOL     OW42209   8.914  11.187   3.403
80126SOL    HW142210   8.960  11.131   3.465
80126SOL    HW242211   8.835  11.215   3.450
80127SOL     OW42212   4.132  11.783  13.957
80127SOL    HW142213   4.155  11.843  14.027
80127SOL    HW242214   4.215  11.745  13.930
80128SOL     OW42215  10.949   6.647  12.384
80128SOL    HW142216  10.985   6.713  12.325
80128SOL    HW242217  10.976   6.563  12.346
80129SOL     OW42218   6.740  10.470   5.473
80129SOL    HW142219   6.746  10.374   5.481
80129SOL    HW242220   6.665  10.494   5.528
80130SOL     OW42221  13.716   6.235  11.073
80130SOL    HW142222  13.710   6.236  11.169
80130SOL    HW242223  13.808   6.212  11.055
80131SOL     OW42224  10.690  10.112  10.946
80131SOL    HW142225  10.659  10.043  11.005
80131SOL    HW242226  10.724  10.180  11.004
80132SOL     OW42227  11.849   3.594   9.363
80132SOL    HW142228  11.890   3.651   9.428
80132SOL    HW242229  11.921   3.543   9.327
80133SOL     OW42230   3.399   2.714   6.080
80133SOL    HW142231   3.360   2.740   6.163
80133SOL    HW242232   3.326   2.681   6.027
80134SOL     OW42233   0.094   7.622   2.087
80134SOL    HW142234   0.090   7.715   2.067
80134SOL    HW242235   0.024   7.583   2.035
80135SOL     OW42236  10.138   7.925  10.736
80135SOL    HW142237  10.132   7.963  10.824
80135SOL    HW242238  10.148   8.001  10.678
80136SOL     OW42239   1.906   7.750  13.487
80136SOL    HW142240   1.817   7.729  13.516
80136SOL    HW242241   1.956   7.758  13.569
80137SOL     OW42242   3.381  12.220  10.114
80137SOL    HW142243   3.373  12.190  10.024
80137SOL    HW242244   3.473  12.245  10.123
80138SOL     OW42245  14.683   8.532   9.198
80138SOL    HW142246  14.599   8.530   9.151
80138SOL    HW242247  14.659   8.538   9.290
80139SOL     OW42248   3.789  11.601  10.789
80139SOL    HW142249   3.849  11.646  10.849
80139SOL    HW242250   3.706  11.599  10.836
80140SOL     OW42251   3.513   6.049   0.526
80140SOL    HW142252   3.484   5.992   0.598
80140SOL    HW242253   3.583   6.102   0.564
80141SOL     OW42254   9.659  12.021   4.939
80141SOL    HW142255   9.587  12.079   4.965
80141SOL    HW242256   9.713  12.013   5.017
80142SOL     OW42257  13.714  11.198   5.851
80142SOL    HW142258  13.689  11.107   5.867
80142SOL    HW242259  13.632  11.247   5.861
80143SOL     OW42260  13.555  12.684  14.840
80143SOL    HW142261  13.500  12.605  14.840
80143SOL    HW242262  13.595  12.686  14.753
80144SOL     OW42263   5.954   1.705   7.474
80144SOL    HW142264   5.862   1.727   7.466
80144SOL    HW242265   5.974   1.654   7.396
80145SOL     OW42266  12.680   6.460   2.569
80145SOL    HW142267  12.765   6.419   2.553
80145SOL    HW242268  12.689   6.548   2.531
80146SOL     OW42269   2.905   6.102  14.861
80146SOL    HW142270   2.958   6.026  14.836
80146SOL    HW242271   2.906   6.158  14.784
80147SOL     OW42272   4.936   0.775   0.013
80147SOL    HW142273   4.885   0.856   0.016
80147SOL    HW242274   5.021   0.800  14.861
80148SOL     OW42275   2.755   6.444  11.054
80148SOL    HW142276   2.726   6.370  11.002
80148SOL    HW242277   2.727   6.423  11.143
80149SOL     OW42278   9.868   7.391   9.465
80149SOL    HW142279   9.802   7.438   9.518
80149SOL    HW242280   9.950   7.407   9.511
80150SOL     OW42281   8.282   8.041   1.614
80150SOL    HW142282   8.331   8.005   1.540
80150SOL    HW242283   8.296   7.978   1.685
80151SOL     OW42284  11.270  14.318   0.144
80151SOL    HW142285  11.226  14.322   0.229
80151SOL    HW242286  11.203  14.284   0.084
80152SOL     OW42287  10.914   8.861   7.325
80152SOL    HW142288  11.004   8.892   7.336
80152SOL    HW242289  10.889   8.828   7.412
80153SOL     OW42290   9.048  13.315   9.548
80153SOL    HW142291   9.000  13.246   9.502
80153SOL    HW242292   8.981  13.378   9.574
80154SOL     OW42293   2.754   3.909   4.963
80154SOL    HW142294   2.811   3.906   5.040
80154SOL    HW242295   2.814   3.905   4.888
80155SOL     OW42296   6.668   5.790   7.046
80155SOL    HW142297   6.602   5.725   7.021
80155SOL    HW242298   6.669   5.787   7.142
80156SOL     OW42299   4.483   9.021   5.632
80156SOL    HW142300   4.567   9.018   5.679
80156SOL    HW242301   4.417   9.009   5.701
80157SOL     OW42302   3.684  11.748  12.686
80157SOL    HW142303   3.747  11.774  12.753
80157SOL    HW242304   3.735  11.744  12.605
80158SOL     OW42305   3.430   5.413  13.694
80158SOL    HW142306   3.507   5.468  13.679
80158SOL    HW242307   3.392   5.401  13.607
80159SOL     OW42308   1.569   2.580   3.335
80159SOL    HW142309   1.489   2.593   3.386
80159SOL    HW242310   1.555   2.496   3.291
80160SOL     OW42311   0.556   2.747  13.662
80160SOL    HW142312   0.605   2.825  13.636
80160SOL    HW242313   0.539   2.760  13.756
80161SOL     OW42314  11.244  14.877   3.969
80161SOL    HW142315  11.258  14.831   3.887
80161SOL    HW242316  11.333   0.011   4.002
80162SOL     OW42317  12.019   9.507   1.634
80162SOL    HW142318  12.026   9.440   1.701
80162SOL    HW242319  12.054   9.466   1.555
80163SOL     OW42320  12.191   0.389   9.683
80163SOL    HW142321  12.138   0.310   9.674
80163SOL    HW242322  12.139   0.447   9.738
80164SOL     OW42323   8.156   8.505   4.644
80164SOL    HW142324   8.194   8.529   4.560
80164SOL    HW242325   8.174   8.581   4.701
80165SOL     OW42326  13.479  11.380   5.868
80165SOL    HW142327  13.517  11.439   5.803
80165SOL    HW242328  13.407  11.430   5.906
80166SOL     OW42329  12.778   8.698   6.219
80166SOL    HW142330  12.743   8.758   6.154
80166SOL    HW242331  12.705   8.682   6.279
80167SOL     OW42332  11.803   3.131   4.685
80167SOL    HW142333  11.886   3.173   4.659
80167SOL    HW242334  11.801   3.138   4.780
80168SOL     OW42335   9.280   5.800   2.712
80168SOL    HW142336   9.342   5.772   2.644
80168SOL    HW242337   9.198   5.756   2.689
80169SOL     OW42338   9.943   8.400   3.258
80169SOL    HW142339   9.869   8.461   3.258
80169SOL    HW242340   9.991   8.420   3.178
80170SOL     OW42341   4.871   1.935  10.353
80170SOL    HW142342   4.905   2.006  10.299
80170SOL    HW242343   4.818   1.980  10.420
80171SOL     OW42344   5.079   5.851  10.868
80171SOL    HW142345   5.069   5.934  10.914
80171SOL    HW242346   5.104   5.875  10.779
80172SOL     OW42347  13.596   5.423  12.372
80172SOL    HW142348  13.558   5.337  12.354
80172SOL    HW242349  13.672   5.428  12.314
80173SOL     OW42350   0.776  13.659   1.375
80173SOL    HW142351   0.688  13.681   1.346
80173SOL    HW242352   0.834  13.705   1.315
80174SOL     OW42353  14.578   4.665   9.542
80174SOL    HW142354  14.521   4.690   9.615
80174SOL    HW242355  14.531   4.593   9.499
80175SOL     OW42356   3.722   0.371  11.712
80175SOL    HW142357   3.756   0.441  11.768
80175SOL    HW242358   3.778   0.296  11.732
80176SOL     OW42359  13.161   5.625   4.534
80176SOL    HW142360  13.242   5.673   4.555
80176SOL    HW242361  13.094   5.667   4.587
80177SOL     OW42362  12.286   1.393   5.897
80177SOL    HW142363  12.312   1.481   5.925
80177SOL    HW242364  12.345   1.335   5.944
80178SOL     OW42365  12.345  14.779  10.718
80178SOL    HW142366  12.348  14.683  10.720
80178SOL    HW242367  12.410  14.803  10.652
80179SOL     OW42368   2.443  14.215  13.479
80179SOL    HW142369   2.469  14.169  13.559
80179SOL    HW242370   2.420  14.145  13.417
80180SOL     OW42371  10.493  11.196   8.236
80180SOL    HW142372  10.500  11.259   8.165
80180SOL    HW242373  10.452  11.244   8.308
80181SOL     OW42374  13.289  11.453   7.614
80181SOL    HW142375  13.307  11.543   7.586
80181SOL    HW242376  13.196  11.454   7.638
80182SOL     OW42377   9.030   1.110  14.646
80182SOL    HW142378   9.034   1.145  14.557
80182SOL    HW242379   9.005   1.018  14.634
80183SOL     OW42380   2.598   9.289  10.235
80183SOL    HW142381   2.529   9.266  10.297
80183SOL    HW242382   2.630   9.374  10.265
80184SOL     OW42383   9.781  12.431   1.188
80184SOL    HW142384   9.849  12.465   1.246
80184SOL    HW242385   9.823  12.427   1.102
80185SOL     OW42386   0.815  12.409  13.159
80185SOL    HW142387   0.738  12.427  13.105
80185SOL    HW242388   0.871  12.355  13.102
80186SOL     OW42389   5.418   5.972  11.153
80186SOL    HW142390   5.363   5.958  11.077
80186SOL    HW242391   5.387   5.907  11.217
80187SOL     OW42392  13.490   0.039   7.744
80187SOL    HW142393  13.395   0.049   7.736
80187SOL    HW242394  13.510   0.064   7.834
80188SOL     OW42395   2.830   1.581   7.089
80188SOL    HW142396   2.848   1.541   7.004
80188SOL    HW242397   2.917   1.596   7.127
80189SOL     OW42398   8.204   3.464   9.042
80189SOL    HW142399   8.179   3.494   9.129
80189SOL    HW242400   8.249   3.381   9.056
80190SOL     OW42401   0.418   8.856   4.013
80190SOL    HW142402   0.360   8.911   3.960
80190SOL    HW242403   0.360   8.791   4.052
80191SOL     OW42404  11.230  14.626  12.767
80191SOL    HW142405  11.325  14.613  12.772
80191SOL    HW242406  11.208  14.610  12.675
80192SOL     OW42407  11.896   5.195   7.536
80192SOL    HW142408  11.843   5.269   7.564
80192SOL    HW242409  11.923   5.216   7.447
80193SOL     OW42410   6.270   0.687   3.896
80193SOL    HW142411   6.302   0.751   3.833
80193SOL    HW242412   6.254   0.608   3.845
80194SOL     OW42413   0.359   2.953   1.618
80194SOL    HW142414   0.448   2.960   1.582
80194SOL    HW242415   0.309   3.021   1.573
80195SOL     OW42416   8.142   4.419   2.318
80195SOL    HW142417   8.169   4.368   2.394
80195SOL    HW242418   8.094   4.493   2.355
80196SOL     OW42419  13.351   5.187  11.668
80196SOL    HW142420  13.266   5.209  11.707
80196SOL    HW242421  13.410   5.256  11.699
80197SOL     OW42422   6.515   5.585  12.970
80197SOL    HW142423   6.581   5.605  13.037
80197SOL    HW242424   6.521   5.659  12.909
80198SOL     OW42425   1.997  14.069   9.843
80198SOL    HW142426   1.997  13.980   9.878
80198SOL    HW242427   2.089  14.097   9.848
80199SOL     OW42428   5.196   1.362   3.135
80199SOL    HW142429   5.203   1.282   3.186
80199SOL    HW242430   5.103   1.371   3.116
80200SOL     OW42431   8.145   0.348  11.566
80200SOL    HW142432   8.236   0.344  11.597
80200SOL    HW242433   8.115   0.435  11.593
80201SOL     OW42434  14.837   9.389   9.353
80201SOL    HW142435   0.015   9.448   9.306
80201SOL    HW242436   0.000   9.305   9.356
80202SOL     OW42437  11.215   5.292   2.519
80202SOL    HW142438  11.264   5.374   2.530
80202SOL    HW242439  11.148   5.295   2.587
80203SOL     OW42440   8.004  14.438   6.750
80203SOL    HW142441   8.044  14.353   6.768
80203SOL    HW242442   7.939  14.450   6.819
80204SOL     OW42443   5.821   5.105   8.760
80204SOL    HW142444   5.769   5.183   8.742
80204SOL    HW242445   5.758   5.033   8.761
80205SOL     OW42446  10.431   4.084   0.178
80205SOL    HW142447  10.481   4.100   0.098
80205SOL    HW242448  10.356   4.144   0.171
80206SOL     OW42449   1.436   8.448   3.382
80206SOL    HW142450   1.396   8.469   3.298
80206SOL    HW242451   1.474   8.361   3.370
80207SOL     OW42452   3.310   6.277   7.595
80207SOL    HW142453   3.222   6.292   7.629
80207SOL    HW242454   3.304   6.299   7.502
80208SOL     OW42455   1.575   3.817  13.054
80208SOL    HW142456   1.611   3.888  13.000
80208SOL    HW242457   1.638   3.805  13.124
80209SOL     OW42458   2.202  11.434   7.394
80209SOL    HW142459   2.264  11.407   7.462
80209SOL    HW242460   2.172  11.521   7.421
80210SOL     OW42461   3.209   1.211   8.239
80210SOL    HW142462   3.164   1.140   8.193
80210SOL    HW242463   3.301   1.199   8.216
80211SOL     OW42464   0.423   1.130   2.959
80211SOL    HW142465   0.482   1.140   3.035
80211SOL    HW242466   0.482   1.118   2.885
80212SOL     OW42467   8.929  10.368   0.499
80212SOL    HW142468   9.015  10.326   0.506
80212SOL    HW242469   8.893  10.363   0.588
80213SOL     OW42470   5.643  12.149  12.350
80213SOL    HW142471   5.616  12.058  12.360
80213SOL    HW242472   5.596  12.196  12.419
80214SOL     OW42473   3.747   6.173  12.345
80214SOL    HW142474   3.761   6.152  12.437
80214SOL    HW242475   3.830   6.149  12.302
80215SOL     OW42476  14.840   3.584   6.549
80215SOL    HW142477  14.748   3.593   6.527
80215SOL    HW242478  14.855   3.648   6.619
80216SOL     OW42479   3.144  14.010  12.532
80216SOL    HW142480   3.225  13.974  12.567
80216SOL    HW242481   3.159  14.105  12.531
80217SOL     OW42482  14.126   8.348   0.695
80217SOL    HW142483  14.197   8.342   0.760
80217SOL    HW242484  14.092   8.259   0.688
80218SOL     OW42485   5.722  14.875   9.684
80218SOL    HW142486   5.793  14.845   9.741
80218SOL    HW242487   5.743  14.839   9.598
80219SOL     OW42488  11.023   3.062  13.588
80219SOL    HW142489  10.938   3.037  13.551
80219SOL    HW242490  11.009   3.062  13.683
80220SOL     OW42491   2.156   7.297   0.781
80220SOL    HW142492   2.230   7.291   0.842
80220SOL    HW242493   2.083   7.326   0.836
80221SOL     OW42494   8.473   0.729   5.088
80221SOL    HW142495   8.511   0.643   5.104
80221SOL    HW242496   8.407   0.739   5.156
80222SOL     OW42497   8.697   3.710  13.531
80222SOL    HW142498   8.791   3.698  13.519
80222SOL    HW242499   8.686   3.712  13.627
80223SOL     OW42500   1.310  14.123  11.704
80223SOL    HW142501   1.238  14.183  11.726
80223SOL    HW242502   1.266  14.039  11.691
80224SOL     OW42503  13.881   2.694  14.135
80224SOL    HW142504  13.823   2.745  14.191
80224SOL    HW242505  13.903   2.617  14.187
80225SOL     OW42506   0.345   1.677   1.881
80225SOL    HW142507   0.261   1.719   1.902
80225SOL    HW242508   0.334   1.646   1.791
80226SOL     OW42509   9.511   5.717   9.792
80226SOL    HW142510   9.601   5.745   9.806
80226SOL    HW242511   9.504   5.706   9.697
80227SOL     OW42512   6.405   4.006   7.195
80227SOL    HW142513   6.380   4.066   7.266
80227SOL    HW242514   6.422   3.923   7.238
80228SOL     OW42515   3.235   5.982  12.733
80228SOL    HW142516   3.171   5.958  12.800
80228SOL    HW242517   3.227   5.915  12.666
80229SOL     OW42518  11.136  12.916  13.009
80229SOL    HW142519  11.063  12.877  12.961
80229SOL    HW242520  11.159  12.851  13.075
80230SOL     OW42521  11.704   1.710   6.483
80230SOL    HW142522  11.748   1.784   6.524
80230SOL    HW242523  11.774   1.649   6.463
80231SOL     OW42524   4.027  13.174   6.489
80231SOL    HW142525   4.115  13.191   6.524
80231SOL    HW242526   3.974  13.247   6.521
80232SOL     OW42527   4.227   2.681  12.443
80232SOL    HW142528   4.296   2.715  12.500
80232SOL    HW242529   4.250   2.711  12.355
80233SOL     OW42530  11.641   3.079   8.110
80233SOL    HW142531  11.581   3.106   8.040
80233SOL    HW242532  11.726   3.074   8.067
80234SOL     OW42533   2.090  11.712  14.558
80234SOL    HW142534   2.059  11.622  14.561
80234SOL    HW242535   2.154  11.718  14.629
80235SOL     OW42536   7.718  11.025   6.954
80235SOL    HW142537   7.749  11.108   6.918
80235SOL    HW242538   7.787  10.962   6.932
80236SOL     OW42539   6.166   1.733   7.633
80236SOL    HW142540   6.175   1.639   7.647
80236SOL    HW242541   6.079   1.743   7.594
80237SOL     OW42542  11.462  13.778   6.547
80237SOL    HW142543  11.543  13.794   6.499
80237SOL    HW242544  11.410  13.722   6.489
80238SOL     OW42545  11.374  12.281   6.344
80238SOL    HW142546  11.414  12.194   6.347
80238SOL    HW242547  11.446  12.340   6.321
80239SOL     OW42548  12.151   6.959   4.825
80239SOL    HW142549  12.071   6.914   4.797
80239SOL    HW242550  12.155   6.947   4.919
80240SOL     OW42551   5.859   2.129   6.301
80240SOL    HW142552   5.806   2.145   6.223
80240SOL    HW242553   5.844   2.205   6.357
80241SOL     OW42554   6.794   9.675   4.112
80241SOL    HW142555   6.740   9.748   4.140
80241SOL    HW242556   6.882   9.711   4.104
80242SOL     OW42557  12.987  12.072  13.206
80242SOL    HW142558  12.966  12.122  13.127
80242SOL    HW242559  13.031  12.135  13.263
80243SOL     OW42560   5.565  13.491   8.234
80243SOL    HW142561   5.492  13.433   8.217
80243SOL    HW242562   5.574  13.543   8.154
80244SOL     OW42563  12.973  13.270  10.536
80244SOL    HW142564  12.945  13.181  10.558
80244SOL    HW242565  13.053  13.258  10.485
80245SOL     OW42566   3.134   9.848   0.387
80245SOL    HW142567   3.044   9.815   0.389
80245SOL    HW242568   3.172   9.815   0.468
80246SOL     OW42569   6.875  14.156   2.399
80246SOL    HW142570   6.881  14.238   2.350
80246SOL    HW242571   6.872  14.183   2.491
80247SOL     OW42572  10.416   7.731   2.963
80247SOL    HW142573  10.478   7.803   2.944
80247SOL    HW242574  10.332   7.775   2.973
80248SOL     OW42575   7.924  10.203   8.471
80248SOL    HW142576   7.902  10.251   8.391
80248SOL    HW242577   8.002  10.153   8.449
80249SOL     OW42578   6.333   4.763   0.860
80249SOL    HW142579   6.260   4.796   0.807
80249SOL    HW242580   6.299   4.760   0.949
80250SOL     OW42581   4.569   8.576  14.824
80250SOL    HW142582   4.609   8.559  14.739
80250SOL    HW242583   4.545   8.669  14.821
80251SOL     OW42584  10.207   3.097   0.223
80251SOL    HW142585  10.242   3.172   0.271
80251SOL    HW242586  10.274   3.077   0.158
80252SOL     OW42587   2.669   0.815   0.596
80252SOL    HW142588   2.733   0.765   0.647
80252SOL    HW242589   2.690   0.795   0.505
80253SOL     OW42590  10.687  12.980   1.306
80253SOL    HW142591  10.726  12.981   1.218
80253SOL    HW242592  10.639  12.897   1.310
80254SOL     OW42593   7.324   8.539   0.303
80254SOL    HW142594   7.305   8.548   0.210
80254SOL    HW242595   7.239   8.525   0.344
80255SOL     OW42596   9.038  14.128  14.658
80255SOL    HW142597   9.089  14.199  14.617
80255SOL    HW242598   9.099  14.088  14.720
80256SOL     OW42599  11.645   2.049   7.546
80256SOL    HW142600  11.717   2.030   7.485
80256SOL    HW242601  11.578   1.984   7.523
80257SOL     OW42602   0.933   7.566   4.708
80257SOL    HW142603   0.949   7.480   4.670
80257SOL    HW242604   0.915   7.548   4.800
80258SOL     OW42605   1.852   5.891   6.674
80258SOL    HW142606   1.887   5.804   6.694
80258SOL    HW242607   1.775   5.899   6.731
80259SOL     OW42608   6.004  13.532  12.489
80259SOL    HW142609   6.059  13.514  12.412
80259SOL    HW242610   6.066  13.553  12.559
80260SOL     OW42611   8.243   2.591   5.862
80260SOL    HW142612   8.255   2.682   5.888
80260SOL    HW242613   8.327   2.549   5.881
80261SOL     OW42614   7.394   4.468   5.681
80261SOL    HW142615   7.456   4.528   5.720
80261SOL    HW242616   7.448   4.400   5.640
80262SOL     OW42617   1.009  11.438   8.190
80262SOL    HW142618   1.009  11.342   8.186
80262SOL    HW242619   0.969  11.465   8.108
80263SOL     OW42620  11.762   7.426  13.520
80263SOL    HW142621  11.772   7.341  13.563
80263SOL    HW242622  11.841   7.475  13.545
80264SOL     OW42623   8.389   3.206   6.833
80264SOL    HW142624   8.387   3.251   6.748
80264SOL    HW242625   8.448   3.259   6.887
80265SOL     OW42626   2.565  12.838   1.603
80265SOL    HW142627   2.634  12.795   1.553
80265SOL    HW242628   2.582  12.814   1.694
80266SOL     OW42629  10.931   2.574  10.417
80266SOL    HW142630  10.901   2.635  10.484
80266SOL    HW242631  11.027   2.583  10.419
80267SOL     OW42632  11.119   6.712   7.371
80267SOL    HW142633  11.113   6.642   7.306
80267SOL    HW242634  11.100   6.792   7.322
80268SOL     OW42635   2.339   8.516   7.217
80268SOL    HW142636   2.375   8.592   7.172
80268SOL    HW242637   2.389   8.442   7.183
80269SOL     OW42638  10.586   3.755   5.328
80269SOL    HW142639  10.533   3.701   5.270
80269SOL    HW242640  10.594   3.839   5.281
80270SOL     OW42641   6.507  12.262   5.001
80270SOL    HW142642   6.543  12.310   4.926
80270SOL    HW242643   6.579  12.258   5.063
80271SOL     OW42644  14.317   3.627  10.042
80271SOL    HW142645  14.330   3.718  10.067
80271SOL    HW242646  14.248   3.595  10.101
80272SOL     OW42647   9.073   6.759  10.757
80272SOL    HW142648   9.098   6.726  10.670
80272SOL    HW242649   9.089   6.685  10.816
80273SOL     OW42650   2.326   5.538   2.417
80273SOL    HW142651   2.255   5.477   2.435
80273SOL    HW242652   2.397   5.483   2.384
80274SOL     OW42653  11.053   2.480  10.741
80274SOL    HW142654  11.045   2.496  10.835
80274SOL    HW242655  10.965   2.492  10.706
80275SOL     OW42656  14.302  10.623   4.920
80275SOL    HW142657  14.265  10.711   4.927
80275SOL    HW242658  14.238  10.574   4.867
80276SOL     OW42659   3.510  11.650   5.904
80276SOL    HW142660   3.441  11.685   5.961
80276SOL    HW242661   3.485  11.679   5.816
80277SOL     OW42662   1.035  10.156  10.135
80277SOL    HW142663   1.111  10.138  10.080
80277SOL    HW242664   0.971  10.089  10.110
80278SOL     OW42665   4.185  12.164   6.171
80278SOL    HW142666   4.147  12.226   6.233
80278SOL    HW242667   4.268  12.204   6.145
80279SOL     OW42668  13.116  14.138   2.957
80279SOL    HW142669  13.152  14.215   3.001
80279SOL    HW242670  13.023  14.156   2.948
80280SOL     OW42671   5.954  10.987  14.433
80280SOL    HW142672   6.039  10.942  14.425
80280SOL    HW242673   5.895  10.919  14.468
80281SOL     OW42674   3.616   7.640   1.874
80281SOL    HW142675   3.697   7.622   1.920
80281SOL    HW242676   3.565   7.693   1.935
80282SOL     OW42677  11.081   8.326   5.073
80282SOL    HW142678  11.031   8.313   5.153
80282SOL    HW242679  11.098   8.237   5.041
80283SOL     OW42680   0.893  14.541   2.979
80283SOL    HW142681   0.828  14.565   3.046
80283SOL    HW242682   0.912  14.624   2.934
80284SOL     OW42683   3.314   0.919   0.765
80284SOL    HW142684   3.332   0.932   0.858
80284SOL    HW242685   3.221   0.939   0.755
80285SOL     OW42686   7.495  13.709  13.669
80285SOL    HW142687   7.493  13.631  13.725
80285SOL    HW242688   7.479  13.676  13.581
80286SOL     OW42689   9.551   9.337   1.896
80286SOL    HW142690   9.464   9.372   1.917
80286SOL    HW242691   9.611   9.386   1.953
80287SOL     OW42692   1.561  14.865   7.679
80287SOL    HW142693   1.634  14.811   7.709
80287SOL    HW242694   1.587   0.011   7.591
80288SOL     OW42695   8.073  11.414   0.759
80288SOL    HW142696   8.002  11.359   0.724
80288SOL    HW242697   8.111  11.457   0.683
80289SOL     OW42698   2.984  11.359  10.075
80289SOL    HW142699   2.972  11.451  10.099
80289SOL    HW242700   2.952  11.353   9.985
80290SOL     OW42701   9.213   4.538   2.956
80290SOL    HW142702   9.277   4.471   2.979
80290SOL    HW242703   9.266   4.612   2.925
80291SOL     OW42704   4.001   6.974   9.090
80291SOL    HW142705   4.091   6.997   9.068
80291SOL    HW242706   3.991   6.998   9.182
80292SOL     OW42707  13.530   9.289   9.505
80292SOL    HW142708  13.455   9.301   9.563
80292SOL    HW242709  13.518   9.355   9.437
80293SOL     OW42710   8.198   0.951  14.369
80293SOL    HW142711   8.267   0.963  14.304
80293SOL    HW242712   8.193   1.034  14.416
80294SOL     OW42713  12.752  10.378   0.561
80294SOL    HW142714  12.763  10.294   0.606
80294SOL    HW242715  12.781  10.361   0.471
80295SOL     OW42716  11.325   7.649  12.894
80295SOL    HW142717  11.395   7.641  12.829
80295SOL    HW242718  11.371   7.652  12.978
80296SOL     OW42719   4.764  13.481   9.257
80296SOL    HW142720   4.789  13.393   9.227
80296SOL    HW242721   4.848  13.523   9.278
80297SOL     OW42722  10.630  12.525   0.665
80297SOL    HW142723  10.704  12.481   0.622
80297SOL    HW242724  10.553  12.474   0.638
80298SOL     OW42725  10.476  11.488   1.924
80298SOL    HW142726  10.430  11.500   2.007
80298SOL    HW242727  10.542  11.421   1.943
80299SOL     OW42728   9.550   9.227  13.046
80299SOL    HW142729   9.613   9.297  13.063
80299SOL    HW242730   9.470   9.256  13.090
80300SOL     OW42731   2.875   8.953   6.480
80300SOL    HW142732   2.832   9.010   6.544
80300SOL    HW242733   2.839   8.866   6.498
80301SOL     OW42734  13.010  13.440   2.077
80301SOL    HW142735  13.018  13.514   2.017
80301SOL    HW242736  13.090  13.445   2.130
80302SOL     OW42737   7.413   8.981   4.836
80302SOL    HW142738   7.493   8.941   4.869
80302SOL    HW242739   7.393   9.050   4.898
80303SOL     OW42740   5.302   6.736   7.854
80303SOL    HW142741   5.318   6.742   7.760
80303SOL    HW242742   5.307   6.826   7.885
80304SOL     OW42743  13.434  11.492   3.262
80304SOL    HW142744  13.530  11.496   3.257
80304SOL    HW242745  13.404  11.527   3.179
80305SOL     OW42746  12.175   0.039  12.264
80305SOL    HW142747  12.155   0.131  12.279
80305SOL    HW242748  12.255   0.023  12.315
80306SOL     OW42749   4.986   7.686   7.002
80306SOL    HW142750   4.991   7.593   7.024
80306SOL    HW242751   4.957   7.728   7.083
80307SOL     OW42752   7.963   7.722  11.524
80307SOL    HW142753   7.930   7.784  11.589
80307SOL    HW242754   7.915   7.641  11.542
80308SOL     OW42755  14.321   3.864   3.485
80308SOL    HW142756  14.365   3.866   3.570
80308SOL    HW242757  14.253   3.931   3.492
80309SOL     OW42758   3.161  10.503  13.844
80309SOL    HW142759   3.171  10.507  13.939
80309SOL    HW242760   3.195  10.417  13.820
80310SOL     OW42761   0.415   2.704   3.075
80310SOL    HW142762   0.372   2.759   3.140
80310SOL    HW242763   0.445   2.766   3.008
80311SOL     OW42764   3.189   3.146  12.906
80311SOL    HW142765   3.128   3.188  12.966
80311SOL    HW242766   3.263   3.120  12.961
80312SOL     OW42767  13.219  14.124   8.073
80312SOL    HW142768  13.222  14.214   8.041
80312SOL    HW242769  13.166  14.077   8.009
80313SOL     OW42770   7.750  13.670  13.464
80313SOL    HW142771   7.712  13.728  13.398
80313SOL    HW242772   7.684  13.602  13.476
80314SOL     OW42773  13.686  11.440  13.202
80314SOL    HW142774  13.666  11.373  13.137
80314SOL    HW242775  13.773  11.472  13.177
80315SOL     OW42776   8.691  11.461   2.504
80315SOL    HW142777   8.616  11.502   2.461
80315SOL    HW242778   8.660  11.373   2.528
80316SOL     OW42779   7.472   4.688  12.001
80316SOL    HW142780   7.429   4.736  11.930
80316SOL    HW242781   7.551   4.651  11.960
80317SOL     OW42782  10.027   5.854   4.510
80317SOL    HW142783  10.103   5.912   4.517
80317SOL    HW242784   9.952   5.913   4.506
80318SOL     OW42785  14.164  13.842  12.557
80318SOL    HW142786  14.100  13.851  12.628
80318SOL    HW242787  14.235  13.791  12.595
80319SOL     OW42788   5.109   0.466   3.450
80319SOL    HW142789   5.200   0.482   3.474
80319SOL    HW242790   5.078   0.400   3.511
80320SOL     OW42791  11.013   7.754  14.465
80320SOL    HW142792  11.082   7.786  14.523
80320SOL    HW242793  11.030   7.660  14.457
80321SOL     OW42794   8.797   7.098   4.597
80321SOL    HW142795   8.839   7.151   4.529
80321SOL    HW242796   8.780   7.160   4.668
80322SOL     OW42797  11.662   8.914   7.238
80322SOL    HW142798  11.697   8.830   7.268
80322SOL    HW242799  11.625   8.895   7.152
80323SOL     OW42800  12.236  11.466   6.411
80323SOL    HW142801  12.281  11.492   6.491
80323SOL    HW242802  12.167  11.405   6.440
80324SOL     OW42803   3.781   3.773   1.153
80324SOL    HW142804   3.703   3.746   1.202
80324SOL    HW242805   3.836   3.695   1.150
80325SOL     OW42806   6.473   3.790  10.065
80325SOL    HW142807   6.531   3.752  10.131
80325SOL    HW242808   6.422   3.716  10.033
80326SOL     OW42809  10.583  14.705  10.055
80326SOL    HW142810  10.613  14.784  10.010
80326SOL    HW242811  10.648  14.638  10.032
80327SOL     OW42812   1.524   6.409   9.428
80327SOL    HW142813   1.542   6.355   9.505
80327SOL    HW242814   1.604   6.458   9.413
80328SOL     OW42815   9.960  10.555   5.307
80328SOL    HW142816  10.052  10.531   5.308
80328SOL    HW242817   9.918  10.490   5.250
80329SOL     OW42818   0.252   8.908  10.721
80329SOL    HW142819   0.268   8.974  10.654
80329SOL    HW242820   0.329   8.852  10.719
80330SOL     OW42821  11.339  10.694   0.025
80330SOL    HW142822  11.259  10.645   0.005
80330SOL    HW242823  11.309  10.776   0.064
80331SOL     OW42824  13.696   4.051  12.165
80331SOL    HW142825  13.682   4.138  12.130
80331SOL    HW242826  13.645   4.049  12.246
80332SOL     OW42827   7.194   8.805   9.487
80332SOL    HW142828   7.259   8.826   9.420
80332SOL    HW242829   7.146   8.730   9.452
80333SOL     OW42830   4.311   0.324   4.692
80333SOL    HW142831   4.258   0.270   4.633
80333SOL    HW242832   4.357   0.384   4.635
80334SOL     OW42833  12.384  12.437   0.591
80334SOL    HW142834  12.345  12.368   0.537
80334SOL    HW242835  12.468  12.400   0.620
80335SOL     OW42836   1.954  13.545   8.247
80335SOL    HW142837   2.009  13.466   8.253
80335SOL    HW242838   1.865  13.511   8.240
80336SOL     OW42839   2.684   0.796   0.314
80336SOL    HW142840   2.629   0.740   0.259
80336SOL    HW242841   2.728   0.854   0.253
80337SOL     OW42842   3.443   3.144  14.627
80337SOL    HW142843   3.515   3.164  14.567
80337SOL    HW242844   3.398   3.070  14.586
80338SOL     OW42845   2.633   5.562   1.252
80338SOL    HW142846   2.702   5.554   1.187
80338SOL    HW242847   2.593   5.648   1.235
80339SOL     OW42848   0.486  14.079   4.636
80339SOL    HW142849   0.454  14.123   4.557
80339SOL    HW242850   0.516  14.150   4.692
80340SOL     OW42851   5.644  14.385   7.102
80340SOL    HW142852   5.716  14.430   7.059
80340SOL    HW242853   5.566  14.432   7.071
80341SOL     OW42854  14.770   4.370   6.695
80341SOL    HW142855  14.806   4.298   6.642
80341SOL    HW242856  14.847   4.423   6.717
80342SOL     OW42857   9.227  11.313  10.761
80342SOL    HW142858   9.313  11.316  10.719
80342SOL    HW242859   9.210  11.404  10.786
80343SOL     OW42860   1.004  11.138   5.972
80343SOL    HW142861   1.076  11.162   6.031
80343SOL    HW242862   0.927  11.138   6.028
80344SOL     OW42863  14.672   6.295  14.612
80344SOL    HW142864  14.639   6.232  14.548
80344SOL    HW242865  14.653   6.380  14.574
80345SOL     OW42866  11.004   7.422   3.635
80345SOL    HW142867  10.996   7.376   3.551
80345SOL    HW242868  11.077   7.482   3.621
80346SOL     OW42869   5.752   0.286   5.560
80346SOL    HW142870   5.801   0.246   5.488
80346SOL    HW242871   5.696   0.216   5.593
80347SOL     OW42872  10.147   1.301   9.888
80347SOL    HW142873  10.075   1.320   9.828
80347SOL    HW242874  10.136   1.208   9.910
80348SOL     OW42875   4.997   4.425   5.068
80348SOL    HW142876   4.984   4.332   5.085
80348SOL    HW242877   4.912   4.456   5.037
80349SOL     OW42878  11.602  10.326   5.926
80349SOL    HW142879  11.632  10.415   5.941
80349SOL    HW242880  11.662  10.291   5.860
80350SOL     OW42881   0.186   0.443   3.587
80350SOL    HW142882   0.174   0.352   3.613
80350SOL    HW242883   0.145   0.494   3.657
80351SOL     OW42884   9.052  11.034  14.426
80351SOL    HW142885   9.031  11.126  14.406
80351SOL    HW242886   9.027  11.024  14.518
80352SOL     OW42887   4.175  11.863   9.665
80352SOL    HW142888   4.199  11.849   9.757
80352SOL    HW242889   4.187  11.778   9.623
80353SOL     OW42890   2.258  10.984   8.670
80353SOL    HW142891   2.348  11.011   8.687
80353SOL    HW242892   2.205  11.061   8.692
80354SOL     OW42893   2.234  10.362   1.009
80354SOL    HW142894   2.217  10.438   1.064
80354SOL    HW242895   2.170  10.297   1.037
80355SOL     OW42896  12.478  14.730  12.072
80355SOL    HW142897  12.465  14.635  12.070
80355SOL    HW242898  12.414  14.764  12.009
80356SOL     OW42899   1.614   3.384   1.970
80356SOL    HW142900   1.600   3.290   1.959
80356SOL    HW242901   1.681   3.391   2.037
80357SOL     OW42902   6.425  11.905   8.087
80357SOL    HW142903   6.471  11.821   8.090
80357SOL    HW242904   6.445  11.946   8.171
80358SOL     OW42905   2.313   1.588   7.795
80358SOL    HW142906   2.255   1.520   7.829
80358SOL    HW242907   2.401   1.556   7.814
80359SOL     OW42908   1.363   5.735   9.200
80359SOL    HW142909   1.402   5.651   9.179
80359SOL    HW242910   1.432   5.799   9.183
80360SOL     OW42911  12.650  13.728   4.481
80360SOL    HW142912  12.722  13.682   4.524
80360SOL    HW242913  12.686  13.813   4.456
80361SOL     OW42914  13.061   4.190   3.539
80361SOL    HW142915  12.978   4.197   3.491
80361SOL    HW242916  13.097   4.279   3.537
80362SOL     OW42917   5.445   3.643  13.325
80362SOL    HW142918   5.462   3.716  13.266
80362SOL    HW242919   5.462   3.565  13.273
80363SOL     OW42920   9.623  13.331   6.408
80363SOL    HW142921   9.690  13.336   6.339
80363SOL    HW242922   9.581  13.417   6.406
80364SOL     OW42923   2.105   1.480   7.179
80364SOL    HW142924   2.063   1.415   7.235
80364SOL    HW242925   2.102   1.561   7.230
80365SOL     OW42926  14.128   2.647   7.210
80365SOL    HW142927  14.052   2.611   7.164
80365SOL    HW242928  14.140   2.590   7.286
80366SOL     OW42929  13.702   3.563   0.681
80366SOL    HW142930  13.674   3.471   0.681
80366SOL    HW242931  13.783   3.563   0.732
80367SOL     OW42932   9.531   0.966   2.724
80367SOL    HW142933   9.462   0.975   2.658
80367SOL    HW242934   9.526   1.047   2.775
80368SOL     OW42935   6.396   0.198  11.272
80368SOL    HW142936   6.388   0.288  11.302
80368SOL    HW242937   6.323   0.185  11.212
80369SOL     OW42938   7.862   4.331  13.471
80369SOL    HW142939   7.843   4.258  13.531
80369SOL    HW242940   7.957   4.329  13.461
80370SOL     OW42941  11.861   0.560   4.400
80370SOL    HW142942  11.783   0.585   4.351
80370SOL    HW242943  11.886   0.475   4.364
80371SOL     OW42944  14.314   0.174   0.824
80371SOL    HW142945  14.321   0.232   0.900
80371SOL    HW242946  14.313   0.086   0.862
80372SOL     OW42947  12.570   4.854  13.363
80372SOL    HW142948  12.475   4.860  13.351
80372SOL    HW242949  12.589   4.760  13.354
80373SOL     OW42950  10.573   1.185   3.898
80373SOL    HW142951  10.622   1.112   3.861
80373SOL    HW242952  10.640   1.239   3.941
80374SOL     OW42953   6.627  10.671   9.066
80374SOL    HW142954   6.579  10.635   9.141
80374SOL    HW242955   6.720  10.659   9.089
80375SOL     OW42956   1.582   5.187   5.438
80375SOL    HW142957   1.609   5.122   5.373
80375SOL    HW242958   1.554   5.135   5.514
80376SOL     OW42959  11.591  14.751   5.547
80376SOL    HW142960  11.624  14.794   5.626
80376SOL    HW242961  11.594  14.820   5.480
80377SOL     OW42962  10.888   4.780  14.848
80377SOL    HW142963  10.858   4.726  14.775
80377SOL    HW242964  10.868   4.727   0.044
80378SOL     OW42965   4.552   8.121  13.971
80378SOL    HW142966   4.516   8.171  13.898
80378SOL    HW242967   4.623   8.069  13.932
80379SOL     OW42968  11.719  10.278  12.211
80379SOL    HW142969  11.740  10.185  12.222
80379SOL    HW242970  11.753  10.320  12.291
80380SOL     OW42971  10.165  13.882   2.578
80380SOL    HW142972  10.186  13.789   2.565
80380SOL    HW242973  10.215  13.927   2.510
80381SOL     OW42974  11.804   4.607   3.544
80381SOL    HW142975  11.819   4.656   3.463
80381SOL    HW242976  11.812   4.673   3.613
80382SOL     OW42977   8.171   2.990  13.043
80382SOL    HW142978   8.167   3.084  13.024
80382SOL    HW242979   8.101   2.952  12.992
80383SOL     OW42980   4.742   6.914   5.958
80383SOL    HW142981   4.774   6.970   6.029
80383SOL    HW242982   4.646   6.924   5.962
80384SOL     OW42983  12.999  11.096   2.184
80384SOL    HW142984  12.963  11.156   2.250
80384SOL    HW242985  13.058  11.150   2.132
80385SOL     OW42986   8.769   6.665   2.596
80385SOL    HW142987   8.712   6.596   2.563
80385SOL    HW242988   8.849   6.620   2.623
80386SOL     OW42989   3.328   8.871  13.743
80386SOL    HW142990   3.403   8.884  13.801
80386SOL    HW242991   3.286   8.791  13.775
80387SOL     OW42992   0.064   0.956   5.633
80387SOL    HW142993   0.153   0.944   5.665
80387SOL    HW242994   0.065   0.921   5.544
80388SOL     OW42995  14.324  11.316   7.885
80388SOL    HW142996  14.350  11.326   7.794
80388SOL    HW242997  14.286  11.401   7.909
80389SOL     OW42998   4.845  13.548   8.818
80389SOL    HW142999   4.775  13.579   8.760
80389SOL    HW243000   4.817  13.460   8.844
80390SOL     OW43001   9.570   5.424   1.845
80390SOL    HW143002   9.598   5.437   1.755
80390SOL    HW243003   9.588   5.508   1.889
80391SOL     OW43004  11.043   3.428  13.713
80391SOL    HW143005  11.129   3.392  13.691
80391SOL    HW243006  11.002   3.446  13.628
80392SOL     OW43007   3.524  10.007  13.353
80392SOL    HW143008   3.592  10.020  13.287
80392SOL    HW243009   3.570  10.012  13.437
80393SOL     OW43010   2.092   7.643   2.594
80393SOL    HW143011   2.066   7.701   2.523
80393SOL    HW243012   2.094   7.555   2.555
80394SOL     OW43013   4.227   6.204   5.671
80394SOL    HW143014   4.226   6.239   5.760
80394SOL    HW243015   4.143   6.232   5.633
80395SOL     OW43016   7.764   7.744   6.215
80395SOL    HW143017   7.671   7.764   6.226
80395SOL    HW243018   7.809   7.820   6.251
80396SOL     OW43019   1.143  13.650   3.217
80396SOL    HW143020   1.205  13.718   3.192
80396SOL    HW243021   1.067  13.698   3.250
80397SOL     OW43022  12.695  11.888   5.064
80397SOL    HW143023  12.612  11.854   5.098
80397SOL    HW243024  12.759  11.868   5.132
80398SOL     OW43025  10.134   1.039   8.880
80398SOL    HW143026  10.223   1.064   8.854
80398SOL    HW243027  10.080   1.114   8.855
80399SOL     OW43028   2.947   1.514   4.571
80399SOL    HW143029   2.953   1.516   4.476
80399SOL    HW243030   2.922   1.603   4.596
80400SOL     OW43031  11.871   7.498   3.706
80400SOL    HW143032  11.905   7.448   3.631
80400SOL    HW243033  11.811   7.437   3.750
80401SOL     OW43034   2.760  14.397   2.929
80401SOL    HW143035   2.803  14.480   2.953
80401SOL    HW243036   2.770  14.342   3.007
80402SOL     OW43037  12.827  14.645   1.595
80402SOL    HW143038  12.868  14.622   1.512
80402SOL    HW243039  12.890  14.702   1.638
80403SOL     OW43040  11.933  14.547  14.528
80403SOL    HW143041  11.944  14.590  14.613
80403SOL    HW243042  12.016  14.563  14.482
80404SOL     OW43043   0.850  11.780   0.366
80404SOL    HW143044   0.835  11.735   0.283
80404SOL    HW243045   0.763  11.804   0.397
80405SOL     OW43046  11.364   3.444   9.991
80405SOL    HW143047  11.330   3.386   9.922
80405SOL    HW243048  11.445   3.480   9.954
80406SOL     OW43049   8.555   9.538   4.766
80406SOL    HW143050   8.607   9.573   4.838
80406SOL    HW243051   8.608   9.554   4.688
80407SOL     OW43052   6.212   0.627  13.151
80407SOL    HW143053   6.280   0.671  13.202
80407SOL    HW243054   6.251   0.543  13.126
80408SOL     OW43055   6.602  14.414   3.761
80408SOL    HW143056   6.544  14.457   3.824
80408SOL    HW243057   6.583  14.320   3.770
80409SOL     OW43058   2.489   8.866   2.521
80409SOL    HW143059   2.437   8.910   2.454
80409SOL    HW243060   2.443   8.883   2.603
80410SOL     OW43061   3.574   7.110   8.595
80410SOL    HW143062   3.649   7.097   8.537
80410SOL    HW243063   3.613   7.119   8.682
80411SOL     OW43064   7.486   2.851   4.561
80411SOL    HW143065   7.495   2.854   4.656
80411SOL    HW243066   7.576   2.845   4.529
80412SOL     OW43067   7.597   7.918   9.814
80412SOL    HW143068   7.619   8.000   9.859
80412SOL    HW243069   7.508   7.898   9.843
80413SOL     OW43070   1.462  10.722  11.293
80413SOL    HW143071   1.447  10.721  11.199
80413SOL    HW243072   1.480  10.631  11.316
80414SOL     OW43073  13.196   5.022   3.753
80414SOL    HW143074  13.115   5.023   3.702
80414SOL    HW243075  13.171   5.051   3.840
80415SOL     OW43076   0.766  14.454  13.038
80415SOL    HW143077   0.781  14.364  13.009
80415SOL    HW243078   0.754  14.504  12.958
80416SOL     OW43079   8.305   6.405   8.078
80416SOL    HW143080   8.341   6.401   8.167
80416SOL    HW243081   8.211   6.400   8.090
80417SOL     OW43082   7.510   9.563  14.422
80417SOL    HW143083   7.590   9.516  14.398
80417SOL    HW243084   7.462   9.502  14.479
80418SOL     OW43085   8.764   0.830   1.095
80418SOL    HW143086   8.777   0.897   1.162
80418SOL    HW243087   8.679   0.791   1.117
80419SOL     OW43088  12.300  13.971   5.561
80419SOL    HW143089  12.216  13.977   5.514
80419SOL    HW243090  12.314  14.058   5.597
80420SOL     OW43091   6.346  12.771   4.888
80420SOL    HW143092   6.437  12.759   4.915
80420SOL    HW243093   6.295  12.764   4.969
80421SOL     OW43094   4.019  10.256   9.305
80421SOL    HW143095   4.047  10.338   9.263
80421SOL    HW243096   3.926  10.270   9.325
80422SOL     OW43097   1.062   4.250   1.440
80422SOL    HW143098   1.022   4.197   1.371
80422SOL    HW243099   1.152   4.218   1.446
80423SOL     OW43100   9.009   5.133   9.543
80423SOL    HW143101   9.062   5.053   9.539
80423SOL    HW243102   9.057   5.190   9.604
80424SOL     OW43103   8.161  14.479   8.402
80424SOL    HW143104   8.086  14.535   8.382
80424SOL    HW243105   8.208  14.469   8.319
80425SOL     OW43106   8.094   4.118  13.442
80425SOL    HW143107   8.148   4.107  13.521
80425SOL    HW243108   8.041   4.039  13.438
80426SOL     OW43109   4.527  13.046  10.210
80426SOL    HW143110   4.586  13.066  10.138
80426SOL    HW243111   4.477  12.970  10.180
80427SOL     OW43112  12.792   0.378  12.441
80427SOL    HW143113  12.743   0.416  12.368
80427SOL    HW243114  12.805   0.287  12.416
80428SOL     OW43115  10.688  10.020   3.031
80428SOL    HW143116  10.686   9.928   3.058
80428SOL    HW243117  10.689  10.069   3.113
80429SOL     OW43118  13.087   5.057  11.324
80429SOL    HW143119  13.172   5.031  11.360
80429SOL    HW243120  13.064   5.136  11.374
80430SOL     OW43121  11.336  10.322   3.002
80430SOL    HW143122  11.314  10.289   3.089
80430SOL    HW243123  11.253  10.358   2.969
80431SOL     OW43124  13.441   2.360   5.966
80431SOL    HW143125  13.516   2.338   5.911
80431SOL    HW243126  13.456   2.313   6.048
80432SOL     OW43127  13.503   1.737   5.677
80432SOL    HW143128  13.564   1.668   5.703
80432SOL    HW243129  13.556   1.817   5.675
80433SOL     OW43130   1.518   6.164   5.673
80433SOL    HW143131   1.431   6.204   5.677
80433SOL    HW243132   1.578   6.234   5.697
80434SOL     OW43133   6.780   2.018   6.763
80434SOL    HW143134   6.822   1.932   6.765
80434SOL    HW243135   6.805   2.055   6.678
80435SOL     OW43136   3.247   3.474  13.984
80435SOL    HW143137   3.187   3.490  13.911
80435SOL    HW243138   3.201   3.508  14.060
80436SOL     OW43139  13.275   9.312   4.481
80436SOL    HW143140  13.291   9.405   4.499
80436SOL    HW243141  13.363   9.275   4.469
80437SOL     OW43142   0.285  10.959   6.115
80437SOL    HW143143   0.225  10.885   6.120
80437SOL    HW243144   0.278  10.991   6.025
80438SOL     OW43145   8.809   4.855   4.216
80438SOL    HW143146   8.734   4.903   4.181
80438SOL    HW243147   8.831   4.792   4.148
80439SOL     OW43148   2.496   0.806   7.689
80439SOL    HW143149   2.525   0.897   7.699
80439SOL    HW243150   2.451   0.786   7.771
80440SOL     OW43151   2.614   4.891  11.028
80440SOL    HW143152   2.566   4.810  11.008
80440SOL    HW243153   2.603   4.902  11.123
80441SOL     OW43154   7.932   4.737   6.559
80441SOL    HW143155   7.840   4.761   6.559
80441SOL    HW243156   7.979   4.820   6.559
80442SOL     OW43157   9.747  10.472   3.332
80442SOL    HW143158   9.678  10.434   3.278
80442SOL    HW243159   9.701  10.524   3.397
80443SOL     OW43160   5.814   5.812   7.689
80443SOL    HW143161   5.865   5.888   7.660
80443SOL    HW243162   5.881   5.747   7.711
80444SOL     OW43163   6.401  12.138   6.839
80444SOL    HW143164   6.340  12.096   6.901
80444SOL    HW243165   6.392  12.087   6.759
80445SOL     OW43166  14.334   2.067   7.134
80445SOL    HW143167  14.372   2.073   7.222
80445SOL    HW243168  14.330   1.973   7.116
80446SOL     OW43169   4.089   6.254   2.757
80446SOL    HW143170   4.184   6.249   2.744
80446SOL    HW243171   4.061   6.162   2.759
80447SOL     OW43172  12.714   3.563  12.711
80447SOL    HW143173  12.764   3.584  12.790
80447SOL    HW243174  12.625   3.548  12.742
80448SOL     OW43175   5.597   6.752   6.134
80448SOL    HW143176   5.665   6.807   6.173
80448SOL    HW243177   5.646   6.687   6.083
80449SOL     OW43178   5.685   0.620   7.127
80449SOL    HW143179   5.747   0.580   7.066
80449SOL    HW243180   5.665   0.550   7.189
80450SOL     OW43181   4.407   1.389   6.981
80450SOL    HW143182   4.323   1.431   6.999
80450SOL    HW243183   4.388   1.322   6.915
80451SOL     OW43184   1.306   3.738   6.923
80451SOL    HW143185   1.285   3.650   6.889
80451SOL    HW243186   1.320   3.724   7.017
80452SOL     OW43187  13.273   2.284   9.540
80452SOL    HW143188  13.269   2.212   9.478
80452SOL    HW243189  13.182   2.297   9.567
80453SOL     OW43190   4.609   3.829   6.991
80453SOL    HW143191   4.675   3.839   6.923
80453SOL    HW243192   4.562   3.749   6.968
80454SOL     OW43193   4.112  12.058   6.886
80454SOL    HW143194   4.105  12.074   6.980
80454SOL    HW243195   4.129  12.144   6.848
80455SOL     OW43196   9.105   8.955   4.584
80455SOL    HW143197   9.166   8.894   4.626
80455SOL    HW243198   9.019   8.927   4.617
80456SOL     OW43199   7.510   7.774  12.627
80456SOL    HW143200   7.416   7.761  12.616
80456SOL    HW243201   7.549   7.690  12.601
80457SOL     OW43202  10.419  11.576   8.047
80457SOL    HW143203  10.351  11.639   8.075
80457SOL    HW243204  10.374  11.520   7.983
80458SOL     OW43205   4.474   0.947   4.996
80458SOL    HW143206   4.565   0.950   5.024
80458SOL    HW243207   4.458   1.034   4.959
80459SOL     OW43208   9.816   6.355  14.527
80459SOL    HW143209   9.829   6.261  14.537
80459SOL    HW243210   9.738   6.374  14.579
80460SOL     OW43211   1.923  14.695   4.577
80460SOL    HW143212   2.014  14.712   4.601
80460SOL    HW243213   1.900  14.616   4.626
80461SOL     OW43214   1.008  12.576   6.390
80461SOL    HW143215   0.951  12.630   6.335
80461SOL    HW243216   0.990  12.606   6.479
80462SOL     OW43217  12.661   0.367  13.666
80462SOL    HW143218  12.637   0.413  13.747
80462SOL    HW243219  12.705   0.432  13.613
80463SOL     OW43220  10.101   2.118   5.271
80463SOL    HW143221  10.196   2.106   5.266
80463SOL    HW243222  10.065   2.035   5.238
80464SOL     OW43223   1.692  10.110  12.816
80464SOL    HW143224   1.632  10.034  12.817
80464SOL    HW243225   1.779  10.071  12.818
80465SOL     OW43226  13.877   4.391   3.022
80465SOL    HW143227  13.829   4.370   3.103
80465SOL    HW243228  13.961   4.426   3.053
80466SOL     OW43229   1.607   2.117   9.562
80466SOL    HW143230   1.535   2.054   9.554
80466SOL    HW243231   1.580   2.175   9.634
80467SOL     OW43232  12.180   9.914   9.952
80467SOL    HW143233  12.151   9.986  10.008
80467SOL    HW243234  12.229   9.956   9.882
80468SOL     OW43235   5.839   7.300   8.647
80468SOL    HW143236   5.922   7.309   8.694
80468SOL    HW243237   5.834   7.206   8.626
80469SOL     OW43238   5.381   4.655   6.657
80469SOL    HW143239   5.311   4.648   6.722
80469SOL    HW243240   5.338   4.683   6.577
80470SOL     OW43241   3.075   9.357   9.574
80470SOL    HW143242   3.082   9.262   9.565
80470SOL    HW243243   3.100   9.391   9.488
80471SOL     OW43244  11.373  11.014   6.142
80471SOL    HW143245  11.301  10.978   6.194
80471SOL    HW243246  11.333  11.042   6.060
80472SOL     OW43247   5.214   9.889   3.894
80472SOL    HW143248   5.227   9.810   3.841
80472SOL    HW243249   5.262   9.957   3.848
80473SOL     OW43250   9.287  11.931   6.587
80473SOL    HW143251   9.293  12.026   6.596
80473SOL    HW243252   9.193  11.913   6.586
80474SOL     OW43253   6.224   1.939  11.994
80474SOL    HW143254   6.277   1.899  11.925
80474SOL    HW243255   6.287   1.994  12.042
80475SOL     OW43256   5.633  14.357  10.618
80475SOL    HW143257   5.699  14.292  10.642
80475SOL    HW243258   5.588  14.321  10.542
80476SOL     OW43259   2.152   1.283   2.290
80476SOL    HW143260   2.066   1.268   2.328
80476SOL    HW243261   2.138   1.348   2.222
80477SOL     OW43262   3.911   2.872   1.974
80477SOL    HW143263   4.002   2.895   1.991
80477SOL    HW243264   3.891   2.909   1.888
80478SOL     OW43265   9.200  12.030   4.151
80478SOL    HW143266   9.279  12.041   4.203
80478SOL    HW243267   9.165  12.118   4.140
80479SOL     OW43268   6.087   1.902   3.690
80479SOL    HW143269   6.048   1.825   3.731
80479SOL    HW243270   6.173   1.874   3.661
80480SOL     OW43271   1.098   0.341  10.455
80480SOL    HW143272   1.116   0.435  10.459
80480SOL    HW243273   1.180   0.299  10.478
80481SOL     OW43274   9.037   0.115   4.786
80481SOL    HW143275   9.032   0.206   4.816
80481SOL    HW243276   9.003   0.064   4.859
80482SOL     OW43277   5.081   6.183  13.462
80482SOL    HW143278   5.021   6.191  13.387
80482SOL    HW243279   5.164   6.216  13.429
80483SOL     OW43280  11.700   7.856   8.816
80483SOL    HW143281  11.675   7.835   8.726
80483SOL    HW243282  11.776   7.801   8.834
80484SOL     OW43283  14.190  12.356   0.123
80484SOL    HW143284  14.226  12.419   0.185
80484SOL    HW243285  14.103  12.335   0.158
80485SOL     OW43286   1.310   8.052  10.354
80485SOL    HW143287   1.386   8.037  10.297
80485SOL    HW243288   1.235   8.027  10.301
80486SOL     OW43289   2.515   4.781   9.059
80486SOL    HW143290   2.536   4.874   9.055
80486SOL    HW243291   2.576   4.740   8.997
80487SOL     OW43292  12.232   6.181   9.927
80487SOL    HW143293  12.298   6.123   9.889
80487SOL    HW243294  12.236   6.163  10.021
80488SOL     OW43295   2.059   0.160   1.650
80488SOL    HW143296   2.030   0.069   1.639
80488SOL    HW243297   2.143   0.164   1.603
80489SOL     OW43298   2.125  10.620  14.158
80489SOL    HW143299   2.105  10.686  14.091
80489SOL    HW243300   2.211  10.645  14.191
80490SOL     OW43301  14.255   0.941   2.857
80490SOL    HW143302  14.171   0.902   2.880
80490SOL    HW243303  14.234   1.032   2.837
80491SOL     OW43304   2.946  10.564   4.663
80491SOL    HW143305   3.041  10.561   4.650
80491SOL    HW243306   2.931  10.647   4.709
80492SOL     OW43307   4.742   4.800   8.658
80492SOL    HW143308   4.767   4.855   8.584
80492SOL    HW243309   4.740   4.712   8.622
80493SOL     OW43310   5.815  14.012   1.393
80493SOL    HW143311   5.728  13.992   1.359
80493SOL    HW243312   5.825  14.106   1.378
80494SOL     OW43313   3.271   0.784  14.382
80494SOL    HW143314   3.318   0.814  14.460
80494SOL    HW243315   3.310   0.699  14.362
80495SOL     OW43316   2.636   1.415   4.015
80495SOL    HW143317   2.541   1.429   4.010
80495SOL    HW243318   2.673   1.475   3.950
80496SOL     OW43319  13.818  13.864   6.427
80496SOL    HW143320  13.900  13.908   6.406
80496SOL    HW243321  13.824  13.847   6.521
80497SOL     OW43322  10.257   4.630   8.228
80497SOL    HW143323  10.214   4.707   8.189
80497SOL    HW243324  10.232   4.557   8.172
80498SOL     OW43325  11.393  11.766   8.885
80498SOL    HW143326  11.370  11.679   8.852
80498SOL    HW243327  11.377  11.761   8.980
80499SOL     OW43328   3.905  14.185   5.660
80499SOL    HW143329   3.833  14.221   5.712
80499SOL    HW243330   3.866  14.109   5.615
80500SOL     OW43331   9.588  10.182   4.208
80500SOL    HW143332   9.626  10.106   4.165
80500SOL    HW243333   9.497  10.183   4.179
80501SOL     OW43334  13.936   2.446  14.210
80501SOL    HW143335  14.001   2.435  14.280
80501SOL    HW243336  13.853   2.421  14.251
80502SOL     OW43337   4.053   0.349   1.983
80502SOL    HW143338   4.051   0.429   2.034
80502SOL    HW243339   4.128   0.300   2.016
80503SOL     OW43340   4.116   3.668   5.719
80503SOL    HW143341   4.151   3.579   5.719
80503SOL    HW243342   4.145   3.706   5.636
80504SOL     OW43343   1.353  14.035   5.283
80504SOL    HW143344   1.395  13.955   5.315
80504SOL    HW243345   1.335  14.017   5.191
80505SOL     OW43346  14.134  12.315  11.439
80505SOL    HW143347  14.052  12.271  11.462
80505SOL    HW243348  14.150  12.290  11.348
80506SOL     OW43349  13.656   5.142  10.580
80506SOL    HW143350  13.687   5.230  10.601
80506SOL    HW243351  13.571   5.135  10.622
80507SOL     OW43352   9.222   5.475   5.165
80507SOL    HW143353   9.156   5.408   5.181
80507SOL    HW243354   9.185   5.555   5.202
80508SOL     OW43355   1.791  11.360   1.997
80508SOL    HW143356   1.871  11.358   2.050
80508SOL    HW243357   1.748  11.442   2.022
80509SOL     OW43358   0.498   0.414   4.398
80509SOL    HW143359   0.461   0.326   4.387
80509SOL    HW243360   0.544   0.431   4.316
80510SOL     OW43361   8.858  10.911   3.463
80510SOL    HW143362   8.859  10.956   3.547
80510SOL    HW243363   8.768  10.917   3.433
80511SOL     OW43364   0.561  12.175  11.090
80511SOL    HW143365   0.505  12.199  11.016
80511SOL    HW243366   0.502  12.127  11.150
80512SOL     OW43367  13.180   2.914   5.600
80512SOL    HW143368  13.166   2.907   5.505
80512SOL    HW243369  13.259   2.967   5.608
80513SOL     OW43370   8.825   6.517  10.638
80513SOL    HW143371   8.816   6.427  10.670
80513SOL    HW243372   8.903   6.515  10.583
80514SOL     OW43373   8.769   9.149   2.977
80514SOL    HW143374   8.673   9.148   2.985
80514SOL    HW243375   8.793   9.241   2.988
80515SOL     OW43376   9.642   3.166   0.569
80515SOL    HW143377   9.657   3.088   0.624
80515SOL    HW243378   9.681   3.143   0.485
80516SOL     OW43379  10.893  14.402   4.834
80516SOL    HW143380  10.957  14.338   4.864
80516SOL    HW243381  10.816  14.387   4.890
80517SOL     OW43382  13.977   5.395  14.628
80517SOL    HW143383  14.013   5.469  14.678
80517SOL    HW243384  14.043   5.326  14.638
80518SOL     OW43385   6.080   5.625   1.189
80518SOL    HW143386   6.171   5.596   1.179
80518SOL    HW243387   6.088   5.714   1.224
80519SOL     OW43388   3.579  11.460   9.607
80519SOL    HW143389   3.526  11.527   9.651
80519SOL    HW243390   3.626  11.416   9.678
80520SOL     OW43391   0.069  14.672   9.956
80520SOL    HW143392  14.866  14.696   9.995
80520SOL    HW243393   0.127  14.660  10.031
80521SOL     OW43394   3.411  13.575  13.547
80521SOL    HW143395   3.434  13.532  13.464
80521SOL    HW243396   3.452  13.661  13.541
80522SOL     OW43397   8.734   4.776   4.579
80522SOL    HW143398   8.775   4.704   4.626
80522SOL    HW243399   8.640   4.765   4.594
80523SOL     OW43400   1.595   7.519   4.774
80523SOL    HW143401   1.530   7.473   4.827
80523SOL    HW243402   1.670   7.460   4.770
80524SOL     OW43403  10.551  12.868   5.367
80524SOL    HW143404  10.557  12.856   5.272
80524SOL    HW243405  10.635  12.836   5.400
80525SOL     OW43406  11.602   1.101  14.865
80525SOL    HW143407  11.556   1.160  14.805
80525SOL    HW243408  11.671   1.061  14.813
80526SOL     OW43409  12.694  10.571  10.227
80526SOL    HW143410  12.632  10.576  10.299
80526SOL    HW243411  12.776  10.543  10.269
80527SOL     OW43412   1.590   0.590   2.555
80527SOL    HW143413   1.652   0.560   2.622
80527SOL    HW243414   1.508   0.603   2.602
80528SOL     OW43415   3.176  14.463   1.393
80528SOL    HW143416   3.196  14.552   1.422
80528SOL    HW243417   3.185  14.466   1.298
80529SOL     OW43418   2.271   2.989   5.792
80529SOL    HW143419   2.302   2.947   5.711
80529SOL    HW243420   2.225   2.918   5.839
80530SOL     OW43421   5.614   4.283   1.111
80530SOL    HW143422   5.586   4.355   1.054
80530SOL    HW243423   5.593   4.204   1.060
80531SOL     OW43424   1.192   4.884  14.686
80531SOL    HW143425   1.253   4.946  14.648
80531SOL    HW243426   1.121   4.938  14.722
80532SOL     OW43427   3.306   5.684   2.065
80532SOL    HW143428   3.226   5.726   2.033
80532SOL    HW243429   3.296   5.684   2.161
80533SOL     OW43430   9.803  11.700  12.399
80533SOL    HW143431   9.788  11.628  12.461
80533SOL    HW243432   9.736  11.765  12.421
80534SOL     OW43433   5.310   2.469   3.353
80534SOL    HW143434   5.298   2.398   3.417
80534SOL    HW243435   5.272   2.546   3.396
80535SOL     OW43436   8.989   1.870   5.624
80535SOL    HW143437   8.897   1.885   5.602
80535SOL    HW243438   9.003   1.777   5.604
80536SOL     OW43439   0.524   0.928   5.300
80536SOL    HW143440   0.484   0.908   5.384
80536SOL    HW243441   0.564   1.015   5.312
80537SOL     OW43442   2.491   3.945  14.160
80537SOL    HW143443   2.575   3.936  14.206
80537SOL    HW243444   2.429   3.897  14.215
80538SOL     OW43445   8.444   9.124   9.096
80538SOL    HW143446   8.453   9.198   9.157
80538SOL    HW243447   8.410   9.053   9.150
80539SOL     OW43448   2.113   1.462  10.186
80539SOL    HW143449   2.151   1.399  10.124
80539SOL    HW243450   2.056   1.517  10.132
80540SOL     OW43451  13.167  12.464   6.484
80540SOL    HW143452  13.188  12.405   6.413
80540SOL    HW243453  13.124  12.409   6.550
80541SOL     OW43454  14.481  13.263   7.000
80541SOL    HW143455  14.543  13.230   6.935
80541SOL    HW243456  14.446  13.343   6.962
80542SOL     OW43457  13.926   0.458   9.561
80542SOL    HW143458  13.982   0.417   9.627
80542SOL    HW243459  13.853   0.397   9.550
80543SOL     OW43460  13.826   7.646   8.407
80543SOL    HW143461  13.829   7.609   8.495
80543SOL    HW243462  13.918   7.656   8.382
80544SOL     OW43463  12.284   7.739  13.401
80544SOL    HW143464  12.242   7.751  13.486
80544SOL    HW243465  12.339   7.661  13.412
80545SOL     OW43466  13.880   4.194  10.915
80545SOL    HW143467  13.915   4.163  10.998
80545SOL    HW243468  13.806   4.137  10.897
80546SOL     OW43469  14.654   2.359   6.795
80546SOL    HW143470  14.689   2.296   6.859
80546SOL    HW243471  14.683   2.326   6.710
80547SOL     OW43472   8.030  13.608   8.010
80547SOL    HW143473   8.032  13.621   8.105
80547SOL    HW243474   8.114  13.567   7.990
80548SOL     OW43475   9.620   4.426   1.426
80548SOL    HW143476   9.652   4.385   1.506
80548SOL    HW243477   9.597   4.353   1.369
80549SOL     OW43478   0.692   3.427  14.234
80549SOL    HW143479   0.631   3.439  14.306
80549SOL    HW243480   0.691   3.333  14.216
80550SOL     OW43481  12.059   6.182   1.259
80550SOL    HW143482  12.075   6.093   1.225
80550SOL    HW243483  12.010   6.168   1.340
80551SOL     OW43484  13.788  13.774   6.682
80551SOL    HW143485  13.701  13.746   6.651
80551SOL    HW243486  13.827  13.695   6.719
80552SOL     OW43487   8.258   3.962  13.135
80552SOL    HW143488   8.318   4.003  13.197
80552SOL    HW243489   8.171   3.993  13.161
80553SOL     OW43490   8.698  10.105  13.305
80553SOL    HW143491   8.764  10.105  13.374
80553SOL    HW243492   8.640  10.032  13.328
80554SOL     OW43493   5.680   9.751  12.366
80554SOL    HW143494   5.648   9.806  12.295
80554SOL    HW243495   5.771   9.778  12.378
80555SOL     OW43496   2.238   5.504   0.664
80555SOL    HW143497   2.201   5.459   0.588
80555SOL    HW243498   2.212   5.451   0.739
80556SOL     OW43499   9.505   9.812   3.412
80556SOL    HW143500   9.520   9.793   3.505
80556SOL    HW243501   9.592   9.806   3.372
80557SOL     OW43502   8.835   1.027   6.565
80557SOL    HW143503   8.875   1.100   6.517
80557SOL    HW243504   8.741   1.040   6.554
80558SOL     OW43505  12.336   1.781   7.167
80558SOL    HW143506  12.304   1.690   7.172
80558SOL    HW243507  12.325   1.815   7.256
80559SOL     OW43508  11.696   6.311   6.514
80559SOL    HW143509  11.680   6.401   6.542
80559SOL    HW243510  11.756   6.319   6.439
80560SOL     OW43511   1.283  11.652  14.290
80560SOL    HW143512   1.262  11.661  14.383
80560SOL    HW243513   1.215  11.702  14.245
80561SOL     OW43514  12.368  11.202   9.018
80561SOL    HW143515  12.459  11.198   8.989
80561SOL    HW243516  12.362  11.282   9.070
80562SOL     OW43517   6.525   1.783  11.302
80562SOL    HW143518   6.595   1.807  11.363
80562SOL    HW243519   6.564   1.795  11.215
80563SOL     OW43520  14.827   0.009  12.993
80563SOL    HW143521  14.832  14.880  13.088
80563SOL    HW243522   0.012   0.075  12.973
80564SOL     OW43523  14.874  10.155  13.358
80564SOL    HW143524   0.081  10.174  13.327
80564SOL    HW243525  14.831  10.115  13.283
80565SOL     OW43526  12.724   8.357   9.652
80565SOL    HW143527  12.722   8.265   9.626
80565SOL    HW243528  12.759   8.402   9.576
80566SOL     OW43529  11.881  12.875   0.806
80566SOL    HW143530  11.953  12.878   0.868
80566SOL    HW243531  11.883  12.960   0.761
80567SOL     OW43532   8.260   7.697  12.666
80567SOL    HW143533   8.336   7.675  12.613
80567SOL    HW243534   8.229   7.614  12.700
80568SOL     OW43535  12.310   6.309   6.813
80568SOL    HW143536  12.361   6.236   6.777
80568SOL    HW243537  12.322   6.380   6.750
80569SOL     OW43538   3.763   9.395   9.383
80569SOL    HW143539   3.857   9.392   9.364
80569SOL    HW243540   3.723   9.345   9.312
80570SOL     OW43541  11.233  10.704   8.469
80570SOL    HW143542  11.321  10.726   8.438
80570SOL    HW243543  11.176  10.764   8.421
80571SOL     OW43544   2.855   0.705  11.359
80571SOL    HW143545   2.812   0.754  11.289
80571SOL    HW243546   2.924   0.763  11.391
80572SOL     OW43547   2.405   0.752  10.037
80572SOL    HW143548   2.438   0.699  10.110
80572SOL    HW243549   2.342   0.695   9.994
80573SOL     OW43550  12.650   9.813  10.434
80573SOL    HW143551  12.698   9.770  10.363
80573SOL    HW243552  12.643   9.904  10.407
80574SOL     OW43553   2.501  12.533  10.317
80574SOL    HW143554   2.476  12.460  10.261
80574SOL    HW243555   2.595  12.543  10.303
80575SOL     OW43556   9.138   1.746  10.956
80575SOL    HW143557   9.046   1.767  10.942
80575SOL    HW243558   9.137   1.688  11.032
80576SOL     OW43559   8.129   4.202   7.283
80576SOL    HW143560   8.108   4.295   7.293
80576SOL    HW243561   8.095   4.160   7.362
80577SOL     OW43562   3.458   3.259  10.557
80577SOL    HW143563   3.538   3.294  10.597
80577SOL    HW243564   3.412   3.216  10.629
80578SOL     OW43565  13.458   4.297  10.498
80578SOL    HW143566  13.365   4.288  10.481
80578SOL    HW243567  13.497   4.217  10.462
80579SOL     OW43568  11.508  10.827   2.992
80579SOL    HW143569  11.413  10.818   2.986
80579SOL    HW243570  11.531  10.783   3.074
80580SOL     OW43571   7.689  11.487  14.364
80580SOL    HW143572   7.763  11.444  14.406
80580SOL    HW243573   7.727  11.548  14.302
80581SOL     OW43574  13.564   0.888  14.080
80581SOL    HW143575  13.558   0.833  14.158
80581SOL    HW243576  13.657   0.906  14.070
80582SOL     OW43577   3.873   5.611   0.689
80582SOL    HW143578   3.811   5.611   0.762
80582SOL    HW243579   3.860   5.696   0.647
80583SOL     OW43580   1.601   1.548   7.689
80583SOL    HW143581   1.592   1.483   7.620
80583SOL    HW243582   1.559   1.626   7.654
80584SOL     OW43583   3.728   8.121   1.112
80584SOL    HW143584   3.738   8.026   1.116
80584SOL    HW243585   3.736   8.142   1.019
80585SOL     OW43586  12.713  12.937   1.643
80585SOL    HW143587  12.629  12.898   1.670
80585SOL    HW243588  12.737  12.889   1.564
80586SOL     OW43589   6.435   1.343  10.725
80586SOL    HW143590   6.488   1.263  10.728
80586SOL    HW243591   6.436   1.375  10.815
80587SOL     OW43592   8.357  10.742   5.724
80587SOL    HW143593   8.387  10.734   5.815
80587SOL    HW243594   8.297  10.816   5.725
80588SOL     OW43595   8.232  12.050  13.599
80588SOL    HW143596   8.268  12.125  13.647
80588SOL    HW243597   8.201  11.991  13.667
80589SOL     OW43598  10.106   5.376  11.427
80589SOL    HW143599  10.178   5.387  11.490
80589SOL    HW243600  10.067   5.292  11.450
80590SOL     OW43601  11.320  11.302  11.271
80590SOL    HW143602  11.319  11.298  11.175
80590SOL    HW243603  11.231  11.328  11.296
80591SOL     OW43604  10.801   4.063  10.240
80591SOL    HW143605  10.753   4.138  10.206
80591SOL    HW243606  10.735   4.011  10.285
80592SOL     OW43607   2.216   1.085   0.488
80592SOL    HW143608   2.250   1.149   0.550
80592SOL    HW243609   2.267   1.099   0.408
80593SOL     OW43610  14.781  14.090   9.530
80593SOL    HW143611  14.722  14.144   9.478
80593SOL    HW243612  14.856  14.073   9.473
80594SOL     OW43613  10.094   6.661   4.795
80594SOL    HW143614  10.171   6.686   4.846
80594SOL    HW243615  10.030   6.729   4.814
80595SOL     OW43616  13.678  12.213   8.002
80595SOL    HW143617  13.652  12.282   7.941
80595SOL    HW243618  13.765  12.186   7.973
80596SOL     OW43619   1.523   0.674   8.868
80596SOL    HW143620   1.440   0.716   8.889
80596SOL    HW243621   1.515   0.585   8.902
80597SOL     OW43622   4.932   7.807   1.146
80597SOL    HW143623   4.928   7.888   1.094
80597SOL    HW243624   4.942   7.737   1.081
80598SOL     OW43625   0.670   4.011   2.299
80598SOL    HW143626   0.723   3.945   2.343
80598SOL    HW243627   0.589   4.016   2.350
80599SOL     OW43628  14.023   0.336   5.714
80599SOL    HW143629  13.972   0.313   5.636
80599SOL    HW243630  13.984   0.419   5.744
80600SOL     OW43631   4.801   2.185   7.384
80600SOL    HW143632   4.826   2.096   7.409
80600SOL    HW243633   4.807   2.235   7.465
80601SOL     OW43634   9.307   9.431   9.363
80601SOL    HW143635   9.283   9.340   9.380
80601SOL    HW243636   9.392   9.425   9.317
80602SOL     OW43637  11.020  13.161   7.276
80602SOL    HW143638  10.980  13.141   7.361
80602SOL    HW243639  11.032  13.075   7.235
80603SOL     OW43640   8.432   8.896  10.960
80603SOL    HW143641   8.475   8.979  10.939
80603SOL    HW243642   8.496   8.829  10.936
80604SOL     OW43643   4.095   3.825   7.802
80604SOL    HW143644   4.165   3.885   7.773
80604SOL    HW243645   4.014   3.875   7.789
80605SOL     OW43646   8.565   7.189   5.522
80605SOL    HW143647   8.534   7.210   5.610
80605SOL    HW243648   8.647   7.142   5.536
80606SOL     OW43649   1.087  11.783   0.499
80606SOL    HW143650   1.009  11.776   0.444
80606SOL    HW243651   1.094  11.698   0.541
80607SOL     OW43652  13.452   7.934   3.659
80607SOL    HW143653  13.490   7.880   3.729
80607SOL    HW243654  13.419   8.011   3.705
80608SOL     OW43655   0.088  11.327   8.161
80608SOL    HW143656   0.072  11.344   8.254
80608SOL    HW243657   0.168  11.375   8.141
80609SOL     OW43658   1.864   7.012   0.485
80609SOL    HW143659   1.871   6.961   0.404
80609SOL    HW243660   1.868   7.103   0.456
80610SOL     OW43661   2.131   6.881   6.958
80610SOL    HW143662   2.226   6.892   6.965
80610SOL    HW243663   2.095   6.952   7.011
80611SOL     OW43664   6.494   5.485  11.737
80611SOL    HW143665   6.583   5.499  11.705
80611SOL    HW243666   6.439   5.540  11.682
80612SOL     OW43667  13.421   8.722  13.787
80612SOL    HW143668  13.488   8.665  13.750
80612SOL    HW243669  13.410   8.692  13.877
80613SOL     OW43670   8.593   7.653  13.175
80613SOL    HW143671   8.638   7.608  13.246
80613SOL    HW243672   8.552   7.728  13.216
80614SOL     OW43673  12.751   0.014   7.203
80614SOL    HW143674  12.656   0.008   7.197
80614SOL    HW243675  12.767   0.079   7.272
80615SOL     OW43676   4.034   7.790   1.689
80615SOL    HW143677   3.975   7.800   1.615
80615SOL    HW243678   4.068   7.701   1.681
80616SOL     OW43679   3.257  10.952  14.428
80616SOL    HW143680   3.345  10.980  14.404
80616SOL    HW243681   3.270  10.871  14.477
80617SOL     OW43682   8.244   6.003   5.329
80617SOL    HW143683   8.150   6.024   5.324
80617SOL    HW243684   8.246   5.911   5.358
80618SOL     OW43685   8.383   2.263  12.856
80618SOL    HW143686   8.439   2.233  12.784
80618SOL    HW243687   8.294   2.238  12.830
80619SOL     OW43688  13.692   4.339  12.111
80619SOL    HW143689  13.664   4.326  12.020
80619SOL    HW243690  13.746   4.418  12.108
80620SOL     OW43691   3.001   1.940   5.267
80620SOL    HW143692   3.023   2.030   5.244
80620SOL    HW243693   2.938   1.913   5.200
80621SOL     OW43694   5.666  14.261   5.086
80621SOL    HW143695   5.746  14.244   5.036
80621SOL    HW243696   5.597  14.214   5.038
80622SOL     OW43697  13.193  10.141  10.701
80622SOL    HW143698  13.114  10.141  10.648
80622SOL    HW243699  13.260  10.181  10.646
80623SOL     OW43700   8.155  14.362  10.346
80623SOL    HW143701   8.185  14.380  10.257
80623SOL    HW243702   8.065  14.331  10.335
80624SOL     OW43703   6.725  11.063  14.030
80624SOL    HW143704   6.745  11.147  13.989
80624SOL    HW243705   6.742  10.998  13.962
80625SOL     OW43706  12.910   9.231   3.953
80625SOL    HW143707  12.817   9.251   3.965
80625SOL    HW243708  12.942   9.299   3.894
80626SOL     OW43709  12.796   5.727  12.550
80626SOL    HW143710  12.820   5.773  12.630
80626SOL    HW243711  12.819   5.788  12.480
80627SOL     OW43712   3.286   1.200   2.099
80627SOL    HW143713   3.277   1.205   2.004
80627SOL    HW243714   3.197   1.213   2.133
80628SOL     OW43715   1.065   6.966  10.585
80628SOL    HW143716   1.030   6.915  10.659
80628SOL    HW243717   1.145   7.005  10.619
80629SOL     OW43718   5.356   3.531   3.713
80629SOL    HW143719   5.370   3.622   3.740
80629SOL    HW243720   5.313   3.538   3.628
80630SOL     OW43721   3.569  11.535  10.255
80630SOL    HW143722   3.537  11.529  10.345
80630SOL    HW243723   3.590  11.445  10.230
80631SOL     OW43724   0.471  14.441  11.089
80631SOL    HW143725   0.398  14.500  11.069
80631SOL    HW243726   0.443  14.356  11.057
80632SOL     OW43727   8.132   3.634  11.206
80632SOL    HW143728   8.185   3.659  11.282
80632SOL    HW243729   8.165   3.547  11.182
80633SOL     OW43730   3.425   2.741   4.856
80633SOL    HW143731   3.343   2.781   4.829
80633SOL    HW243732   3.399   2.666   4.909
80634SOL     OW43733   1.317   0.332   9.968
80634SOL    HW143734   1.337   0.366   9.880
80634SOL    HW243735   1.233   0.288   9.958
80635SOL     OW43736  12.330   3.345   5.455
80635SOL    HW143737  12.326   3.414   5.522
80635SOL    HW243738  12.394   3.283   5.488
80636SOL     OW43739   4.901   6.527   6.815
80636SOL    HW143740   4.854   6.567   6.742
80636SOL    HW243741   4.831   6.487   6.868
80637SOL     OW43742   4.213   1.382   2.218
80637SOL    HW143743   4.140   1.386   2.279
80637SOL    HW243744   4.194   1.307   2.162
80638SOL     OW43745  13.817   6.696   4.322
80638SOL    HW143746  13.752   6.631   4.351
80638SOL    HW243747  13.865   6.718   4.402
80639SOL     OW43748   9.609   9.580  13.584
80639SOL    HW143749   9.547   9.520  13.626
80639SOL    HW243750   9.679   9.524  13.551
80640SOL     OW43751   7.612   1.184  12.704
80640SOL    HW143752   7.671   1.260  12.703
80640SOL    HW243753   7.599   1.166  12.797
80641SOL     OW43754  11.474  14.781   6.299
80641SOL    HW143755  11.476  14.747   6.209
80641SOL    HW243756  11.566  14.798   6.320
80642SOL     OW43757  10.044   0.823  11.677
80642SOL    HW143758  10.118   0.790  11.625
80642SOL    HW243759   9.967   0.779  11.641
80643SOL     OW43760   6.931   2.983  11.950
80643SOL    HW143761   6.917   2.983  11.856
80643SOL    HW243762   6.848   3.015  11.986
80644SOL     OW43763  11.093   8.100   4.464
80644SOL    HW143764  11.083   8.078   4.557
80644SOL    HW243765  11.011   8.142   4.440
80645SOL     OW43766   6.671  10.149  11.023
80645SOL    HW143767   6.658  10.055  11.035
80645SOL    HW243768   6.599  10.189  11.072
80646SOL     OW43769   0.068   5.341  13.066
80646SOL    HW143770   0.083   5.263  13.120
80646SOL    HW243771   0.124   5.408  13.105
80647SOL     OW43772   2.153  11.015   5.782
80647SOL    HW143773   2.217  11.049   5.720
80647SOL    HW243774   2.142  11.085   5.847
80648SOL     OW43775   5.948  13.911   1.043
80648SOL    HW143776   5.975  13.998   1.014
80648SOL    HW243777   6.028  13.871   1.078
80649SOL     OW43778   9.460   6.969   3.229
80649SOL    HW143779   9.550   6.975   3.198
80649SOL    HW243780   9.424   7.056   3.215
80650SOL     OW43781   6.055   9.867   7.164
80650SOL    HW143782   6.015   9.932   7.107
80650SOL    HW243783   6.138   9.845   7.121
80651SOL     OW43784   3.231   8.984   2.898
80651SOL    HW143785   3.140   8.962   2.877
80651SOL    HW243786   3.251   9.061   2.845
80652SOL     OW43787   3.316   9.254   8.746
80652SOL    HW143788   3.388   9.315   8.761
80652SOL    HW243789   3.334   9.215   8.661
80653SOL     OW43790   0.111  14.569   3.875
80653SOL    HW143791   0.195  14.554   3.919
80653SOL    HW243792   0.130  14.556   3.782
80654SOL     OW43793   6.350   0.270   7.414
80654SOL    HW143794   6.296   0.319   7.477
80654SOL    HW243795   6.291   0.251   7.341
80655SOL     OW43796   7.528   9.178   3.218
80655SOL    HW143797   7.597   9.214   3.274
80655SOL    HW243798   7.454   9.237   3.230
80656SOL     OW43799   1.386  13.188   6.971
80656SOL    HW143800   1.344  13.199   7.056
80656SOL    HW243801   1.314  13.194   6.908
80657SOL     OW43802  14.547  11.811   7.165
80657SOL    HW143803  14.457  11.798   7.195
80657SOL    HW243804  14.545  11.788   7.072
80658SOL     OW43805  11.577   2.940   7.523
80658SOL    HW143806  11.570   3.032   7.499
80658SOL    HW243807  11.501   2.924   7.579
80659SOL     OW43808   5.343  10.621   2.096
80659SOL    HW143809   5.368  10.537   2.057
80659SOL    HW243810   5.397  10.628   2.174
80660SOL     OW43811   7.023  13.287   5.111
80660SOL    HW143812   7.091  13.282   5.044
80660SOL    HW243813   7.064  13.332   5.185
80661SOL     OW43814   4.277   8.268   0.367
80661SOL    HW143815   4.340   8.195   0.360
80661SOL    HW243816   4.211   8.237   0.429
80662SOL     OW43817   0.327  14.581  12.352
80662SOL    HW143818   0.266  14.517  12.315
80662SOL    HW243819   0.278  14.625  12.421
80663SOL     OW43820   2.069   3.193   5.840
80663SOL    HW143821   1.976   3.171   5.840
80663SOL    HW243822   2.114   3.111   5.862
80664SOL     OW43823   2.635   0.857  13.775
80664SOL    HW143824   2.611   0.906  13.854
80664SOL    HW243825   2.713   0.902  13.742
80665SOL     OW43826  13.826  11.071  13.018
80665SOL    HW143827  13.803  11.034  12.932
80665SOL    HW243828  13.790  11.159  13.016
80666SOL     OW43829   6.028   7.907   8.261
80666SOL    HW143830   6.022   8.000   8.238
80666SOL    HW243831   6.076   7.867   8.189
80667SOL     OW43832   9.008   2.741   0.824
80667SOL    HW143833   9.058   2.716   0.746
80667SOL    HW243834   8.972   2.658   0.856
80668SOL     OW43835  14.574  14.305   1.498
80668SOL    HW143836  14.483  14.323   1.476
80668SOL    HW243837  14.577  14.311   1.593
80669SOL     OW43838   1.433   8.210   8.014
80669SOL    HW143839   1.512   8.263   8.025
80669SOL    HW243840   1.434   8.149   8.088
80670SOL     OW43841   8.056   2.398   9.643
80670SOL    HW143842   8.003   2.475   9.665
80670SOL    HW243843   7.994   2.324   9.648
80671SOL     OW43844  10.504   6.039   9.527
80671SOL    HW143845  10.590   6.003   9.547
80671SOL    HW243846  10.519   6.132   9.511
80672SOL     OW43847  11.011   5.667   1.163
80672SOL    HW143848  10.967   5.667   1.248
80672SOL    HW243849  11.080   5.732   1.172
80673SOL     OW43850   6.845  14.017  13.556
80673SOL    HW143851   6.763  14.049  13.593
80673SOL    HW243852   6.856  13.929  13.593
80674SOL     OW43853   5.425   4.400   7.567
80674SOL    HW143854   5.344   4.355   7.542
80674SOL    HW243855   5.429   4.477   7.511
80675SOL     OW43856   6.018   2.551   3.961
80675SOL    HW143857   6.017   2.645   3.980
80675SOL    HW243858   6.021   2.509   4.047
80676SOL     OW43859  10.950   9.964   1.690
80676SOL    HW143860  10.906   9.969   1.605
80676SOL    HW243861  10.918   9.883   1.729
80677SOL     OW43862   8.335   9.160  14.076
80677SOL    HW143863   8.366   9.168  13.986
80677SOL    HW243864   8.322   9.250  14.106
80678SOL     OW43865   0.192   3.734   1.358
80678SOL    HW143866   0.118   3.695   1.405
80678SOL    HW243867   0.189   3.827   1.383
80679SOL     OW43868   0.183   5.456   7.694
80679SOL    HW143869   0.118   5.458   7.624
80679SOL    HW243870   0.214   5.366   7.696
80680SOL     OW43871   9.412   2.316  12.127
80680SOL    HW143872   9.444   2.258  12.196
80680SOL    HW243873   9.428   2.268  12.046
80681SOL     OW43874   5.602   4.190  11.988
80681SOL    HW143875   5.591   4.236  12.071
80681SOL    HW243876   5.596   4.258  11.921
80682SOL     OW43877   8.420  14.318   3.485
80682SOL    HW143878   8.427  14.334   3.579
80682SOL    HW243879   8.426  14.404   3.446
80683SOL     OW43880  12.131  12.310   6.631
80683SOL    HW143881  12.194  12.364   6.584
80683SOL    HW243882  12.147  12.221   6.598
80684SOL     OW43883   1.361  10.169   4.702
80684SOL    HW143884   1.315  10.242   4.743
80684SOL    HW243885   1.371  10.105   4.772
80685SOL     OW43886   2.247  10.561   5.640
80685SOL    HW143887   2.267  10.641   5.688
80685SOL    HW243888   2.158  10.538   5.668
80686SOL     OW43889  14.291   8.639  11.352
80686SOL    HW143890  14.383   8.648  11.328
80686SOL    HW243891  14.252   8.723  11.330
80687SOL     OW43892   6.760   3.911   0.770
80687SOL    HW143893   6.855   3.912   0.758
80687SOL    HW243894   6.730   3.995   0.734
80688SOL     OW43895  13.729  14.737   5.846
80688SOL    HW143896  13.705  14.709   5.934
80688SOL    HW243897  13.650  14.778   5.811
80689SOL     OW43898   9.440  10.551   8.771
80689SOL    HW143899   9.477  10.466   8.795
80689SOL    HW243900   9.387  10.534   8.694
80690SOL     OW43901  14.241  10.332   8.646
80690SOL    HW143902  14.190  10.255   8.624
80690SOL    HW243903  14.194  10.372   8.719
80691SOL     OW43904  10.910  12.929  10.567
80691SOL    HW143905  10.972  12.973  10.508
80691SOL    HW243906  10.824  12.956  10.534
80692SOL     OW43907   2.123   9.984  11.756
80692SOL    HW143908   2.109  10.075  11.780
80692SOL    HW243909   2.035   9.948  11.747
80693SOL     OW43910   4.521   6.208  12.715
80693SOL    HW143911   4.612   6.206  12.745
80693SOL    HW243912   4.471   6.234  12.793
80694SOL     OW43913   0.074   5.221  14.683
80694SOL    HW143914   0.133   5.240  14.757
80694SOL    HW243915   0.126   5.165  14.625
80695SOL     OW43916  12.864   5.088  14.635
80695SOL    HW143917  12.788   5.118  14.684
80695SOL    HW243918  12.828   5.042  14.559
80696SOL     OW43919   3.831  14.190   3.744
80696SOL    HW143920   3.919  14.164   3.771
80696SOL    HW243921   3.795  14.111   3.702
80697SOL     OW43922  12.554   4.575   1.324
80697SOL    HW143923  12.589   4.608   1.241
80697SOL    HW243924  12.555   4.651   1.382
80698SOL     OW43925  14.085   0.869   0.760
80698SOL    HW143926  14.059   0.958   0.785
80698SOL    HW243927  14.113   0.828   0.841
80699SOL     OW43928   7.240   6.254   4.668
80699SOL    HW143929   7.221   6.334   4.718
80699SOL    HW243930   7.185   6.187   4.707
80700SOL     OW43931   4.891   6.305   8.877
80700SOL    HW143932   4.817   6.250   8.902
80700SOL    HW243933   4.882   6.384   8.930
80701SOL     OW43934  14.761  12.153  11.165
80701SOL    HW143935  14.695  12.202  11.215
80701SOL    HW243936  14.825  12.125  11.230
80702SOL     OW43937   4.969   8.191   2.629
80702SOL    HW143938   4.884   8.147   2.631
80702SOL    HW243939   5.032   8.125   2.658
80703SOL     OW43940  13.684   4.498   3.621
80703SOL    HW143941  13.704   4.543   3.703
80703SOL    HW243942  13.623   4.556   3.576
80704SOL     OW43943   5.348   0.696  14.427
80704SOL    HW143944   5.432   0.733  14.400
80704SOL    HW243945   5.346   0.709  14.522
80705SOL     OW43946  14.835   3.724  11.887
80705SOL    HW143947  14.823   3.796  11.825
80705SOL    HW243948  14.753   3.674  11.883
80706SOL     OW43949   0.757  11.900   8.666
80706SOL    HW143950   0.843  11.941   8.677
80706SOL    HW243951   0.746  11.892   8.571
80707SOL     OW43952   2.176   3.118   2.217
80707SOL    HW143953   2.173   3.084   2.306
80707SOL    HW243954   2.234   3.195   2.223
80708SOL     OW43955   6.704  12.118  12.935
80708SOL    HW143956   6.778  12.157  12.888
80708SOL    HW243957   6.720  12.140  13.027
80709SOL     OW43958   9.816  14.198   7.933
80709SOL    HW143959   9.816  14.294   7.929
80709SOL    HW243960   9.844  14.177   8.022
80710SOL     OW43961   6.804  11.125   7.201
80710SOL    HW143962   6.756  11.060   7.149
80710SOL    HW243963   6.751  11.137   7.280
80711SOL     OW43964  11.564   4.049   0.456
80711SOL    HW143965  11.524   3.993   0.521
80711SOL    HW243966  11.528   4.136   0.473
80712SOL     OW43967   3.206   0.074   4.124
80712SOL    HW143968   3.275   0.115   4.073
80712SOL    HW243969   3.136   0.140   4.127
80713SOL     OW43970   7.794  12.003   3.648
80713SOL    HW143971   7.705  12.035   3.639
80713SOL    HW243972   7.827  11.996   3.559
80714SOL     OW43973   9.716   0.355   7.836
80714SOL    HW143974   9.757   0.441   7.827
80714SOL    HW243975   9.652   0.352   7.765
80715SOL     OW43976  10.215  13.426  12.774
80715SOL    HW143977  10.280  13.488  12.807
80715SOL    HW243978  10.173  13.472  12.702
80716SOL     OW43979   7.632   8.898  14.048
80716SOL    HW143980   7.659   8.808  14.029
80716SOL    HW243981   7.538   8.892  14.064
80717SOL     OW43982  12.696  11.280   9.030
80717SOL    HW143983  12.753  11.209   9.059
80717SOL    HW243984  12.639  11.297   9.105
80718SOL     OW43985  11.528   0.508  13.688
80718SOL    HW143986  11.578   0.588  13.671
80718SOL    HW243987  11.543   0.490  13.781
80719SOL     OW43988   2.711   2.235  10.750
80719SOL    HW143989   2.629   2.186  10.751
80719SOL    HW243990   2.774   2.177  10.793
80720SOL     OW43991   5.035  12.730  14.165
80720SOL    HW143992   4.987  12.648  14.150
80720SOL    HW243993   4.970  12.790  14.201
80721SOL     OW43994   1.252   1.085   9.487
80721SOL    HW143995   1.217   1.030   9.557
80721SOL    HW243996   1.343   1.056   9.479
80722SOL     OW43997  12.074  11.615  11.921
80722SOL    HW143998  12.165  11.601  11.894
80722SOL    HW243999  12.079  11.633  12.015
80723SOL     OW44000   8.986   1.203   6.034
80723SOL    HW144001   8.969   1.109   6.028
80723SOL    HW244002   9.044   1.213   6.110
80724SOL     OW44003   5.391   0.117   6.157
80724SOL    HW144004   5.446   0.192   6.182
80724SOL    HW244005   5.433   0.082   6.079
80725SOL     OW44006   4.289   2.072   4.594
80725SOL    HW144007   4.223   2.140   4.611
80725SOL    HW244008   4.263   2.000   4.651
80726SOL     OW44009   9.948   4.353   8.815
80726SOL    HW144010   9.904   4.436   8.837
80726SOL    HW244011   9.959   4.356   8.720
80727SOL     OW44012   4.916   4.978   4.839
80727SOL    HW144013   4.868   4.902   4.873
80727SOL    HW244014   4.988   4.939   4.790
80728SOL     OW44015   0.717   8.953  11.147
80728SOL    HW144016   0.697   8.930  11.237
80728SOL    HW244017   0.648   9.014  11.122
80729SOL     OW44018   9.295   3.044   4.657
80729SOL    HW144019   9.379   3.042   4.703
80729SOL    HW244020   9.289   3.133   4.622
80730SOL     OW44021   7.725   5.066  14.448
80730SOL    HW144022   7.656   5.052  14.512
80730SOL    HW244023   7.686   5.041  14.364
80731SOL     OW44024  11.985   6.857   6.669
80731SOL    HW144025  11.974   6.842   6.763
80731SOL    HW244026  12.078   6.839   6.653
80732SOL     OW44027   3.202   6.090   7.082
80732SOL    HW144028   3.116   6.063   7.113
80732SOL    HW244029   3.264   6.036   7.130
80733SOL     OW44030  14.166   5.545   2.626
80733SOL    HW144031  14.120   5.520   2.546
80733SOL    HW244032  14.228   5.613   2.598
80734SOL     OW44033   5.996  13.860   8.630
80734SOL    HW144034   5.938  13.784   8.633
80734SOL    HW244035   5.983  13.897   8.543
80735SOL     OW44036  10.267  11.883   2.696
80735SOL    HW144037  10.246  11.974   2.679
80735SOL    HW244038  10.189  11.834   2.670
80736SOL     OW44039  13.885  14.039   8.433
80736SOL    HW144040  13.804  14.089   8.427
80736SOL    HW244041  13.930  14.055   8.350
80737SOL     OW44042  14.671  10.483  14.878
80737SOL    HW144043  14.741  10.466  14.814
80737SOL    HW244044  14.613  10.544  14.833
80738SOL     OW44045  10.074   3.933   2.671
80738SOL    HW144046  10.154   3.884   2.690
80738SOL    HW244047  10.097   4.024   2.688
80739SOL     OW44048  11.692   9.152  12.277
80739SOL    HW144049  11.756   9.217  12.248
80739SOL    HW244050  11.621   9.158  12.212
80740SOL     OW44051   4.802   8.715  12.769
80740SOL    HW144052   4.888   8.730  12.730
80740SOL    HW244053   4.746   8.782  12.730
80741SOL     OW44054   6.142   6.935  13.688
80741SOL    HW144055   6.162   7.020  13.649
80741SOL    HW244056   6.154   6.948  13.782
80742SOL     OW44057   0.320   4.040   1.334
80742SOL    HW144058   0.355   4.086   1.410
80742SOL    HW244059   0.240   3.998   1.366
80743SOL     OW44060   6.436  14.053   9.192
80743SOL    HW144061   6.502  13.991   9.160
80743SOL    HW244062   6.369  13.997   9.231
80744SOL     OW44063  10.647   8.470  10.400
80744SOL    HW144064  10.565   8.503  10.438
80744SOL    HW244065  10.710   8.540  10.415
80745SOL     OW44066   0.295   6.707  13.749
80745SOL    HW144067   0.319   6.732  13.839
80745SOL    HW244068   0.363   6.745  13.694
80746SOL     OW44069  13.255  13.817   7.491
80746SOL    HW144070  13.326  13.813   7.555
80746SOL    HW244071  13.202  13.739   7.510
80747SOL     OW44072   0.524  10.174   7.236
80747SOL    HW144073   0.470  10.228   7.294
80747SOL    HW244074   0.464  10.110   7.200
80748SOL     OW44075   3.969   5.162  12.811
80748SOL    HW144076   4.051   5.113  12.811
80748SOL    HW244077   3.963   5.200  12.724
80749SOL     OW44078  13.593  10.815   8.051
80749SOL    HW144079  13.587  10.882   7.983
80749SOL    HW244080  13.562  10.858   8.131
80750SOL     OW44081  10.892  13.789   2.206
80750SOL    HW144082  10.873  13.761   2.296
80750SOL    HW244083  10.820  13.753   2.154
80751SOL     OW44084   8.936   2.528  11.169
80751SOL    HW144085   9.010   2.501  11.114
80751SOL    HW244086   8.972   2.527  11.258
80752SOL     OW44087   4.995   5.813   8.694
80752SOL    HW144088   4.989   5.723   8.663
80752SOL    HW244089   5.026   5.862   8.618
80753SOL     OW44090   0.861   9.077   7.297
80753SOL    HW144091   0.907   8.994   7.282
80753SOL    HW244092   0.883   9.101   7.386
80754SOL     OW44093   6.448   1.332  14.541
80754SOL    HW144094   6.360   1.307  14.513
80754SOL    HW244095   6.469   1.271  14.611
80755SOL     OW44096   8.788   9.511   0.227
80755SOL    HW144097   8.881   9.527   0.214
80755SOL    HW244098   8.755   9.593   0.265
80756SOL     OW44099  14.225   2.835   8.155
80756SOL    HW144100  14.209   2.830   8.061
80756SOL    HW244101  14.269   2.752   8.176
80757SOL     OW44102  10.329   8.305   3.248
80757SOL    HW144103  10.389   8.323   3.175
80757SOL    HW244104  10.288   8.389   3.266
80758SOL     OW44105  13.794   3.654   8.557
80758SOL    HW144106  13.763   3.601   8.484
80758SOL    HW244107  13.885   3.673   8.535
80759SOL     OW44108   4.516   8.156   9.114
80759SOL    HW144109   4.530   8.231   9.055
80759SOL    HW244110   4.555   8.082   9.067
80760SOL     OW44111   1.189   9.858   7.700
80760SOL    HW144112   1.123   9.811   7.650
80760SOL    HW244113   1.145   9.884   7.780
80761SOL     OW44114   8.008   2.965   1.421
80761SOL    HW144115   8.031   3.044   1.470
80761SOL    HW244116   8.063   2.970   1.342
80762SOL     OW44117   3.936   6.153  14.399
80762SOL    HW144118   3.966   6.223  14.456
80762SOL    HW244119   3.939   6.074  14.453
80763SOL     OW44120   5.907   0.436  12.202
80763SOL    HW144121   5.827   0.432  12.150
80763SOL    HW244122   5.960   0.503  12.159
80764SOL     OW44123   1.767   4.802  14.067
80764SOL    HW144124   1.743   4.776  13.978
80764SOL    HW244125   1.734   4.891  14.076
80765SOL     OW44126   6.006  14.434   1.860
80765SOL    HW144127   6.034  14.390   1.941
80765SOL    HW244128   5.912  14.448   1.872
80766SOL     OW44129  11.272  13.410   6.865
80766SOL    HW144130  11.204  13.450   6.919
80766SOL    HW244131  11.351  13.460   6.885
80767SOL     OW44132   8.910   2.829  14.348
80767SOL    HW144133   8.962   2.895  14.302
80767SOL    HW244134   8.969   2.756  14.362
80768SOL     OW44135  12.966   3.350  14.249
80768SOL    HW144136  12.903   3.401  14.298
80768SOL    HW244137  12.936   3.259  14.257
80769SOL     OW44138  14.615  11.644  12.793
80769SOL    HW144139  14.654  11.706  12.732
80769SOL    HW244140  14.595  11.567  12.740
80770SOL     OW44141   2.192   6.371   3.148
80770SOL    HW144142   2.254   6.307   3.182
80770SOL    HW244143   2.179   6.433   3.220
80771SOL     OW44144   0.983   2.655  14.523
80771SOL    HW144145   1.059   2.607  14.490
80771SOL    HW244146   0.992   2.653  14.618
80772SOL     OW44147   4.947   3.482  11.992
80772SOL    HW144148   4.904   3.445  11.915
80772SOL    HW244149   4.945   3.577  11.976
80773SOL     OW44150  12.099  13.896  10.667
80773SOL    HW144151  12.115  13.888  10.762
80773SOL    HW244152  12.008  13.871  10.656
80774SOL     OW44153   1.976   1.224  11.010
80774SOL    HW144154   1.923   1.230  10.930
80774SOL    HW244155   1.919   1.177  11.072
80775SOL     OW44156  14.375   7.979  11.959
80775SOL    HW144157  14.433   8.038  11.911
80775SOL    HW244158  14.309   7.953  11.895
80776SOL     OW44159   3.238  14.390   2.026
80776SOL    HW144160   3.167  14.355   2.080
80776SOL    HW244161   3.195  14.432   1.952
80777SOL     OW44162   7.346  10.175   5.014
80777SOL    HW144163   7.397  10.096   5.035
80777SOL    HW244164   7.290  10.148   4.941
80778SOL     OW44165  14.620   6.077   2.662
80778SOL    HW144166  14.701   6.099   2.616
80778SOL    HW244167  14.551   6.098   2.600
80779SOL     OW44168  11.283   2.108   7.575
80779SOL    HW144169  11.202   2.058   7.588
80779SOL    HW244170  11.288   2.165   7.652
80780SOL     OW44171  11.534   4.407   8.838
80780SOL    HW144172  11.586   4.329   8.816
80780SOL    HW244173  11.526   4.404   8.933
80781SOL     OW44174   8.881   4.721   9.498
80781SOL    HW144175   8.923   4.767   9.425
80781SOL    HW244176   8.955   4.683   9.547
80782SOL     OW44177  11.396  11.739   6.452
80782SOL    HW144178  11.460  11.736   6.380
80782SOL    HW244179  11.311  11.736   6.409
80783SOL     OW44180   1.589   0.331   4.114
80783SOL    HW144181   1.671   0.335   4.162
80783SOL    HW244182   1.526   0.378   4.169
80784SOL     OW44183   6.918   5.777  13.721
80784SOL    HW144184   6.959   5.692  13.737
80784SOL    HW244185   6.991   5.834  13.694
80785SOL     OW44186   3.656   9.125   8.898
80785SOL    HW144187   3.636   9.194   8.961
80785SOL    HW244188   3.654   9.168   8.813
80786SOL     OW44189  10.141   1.779  12.206
80786SOL    HW144190  10.133   1.835  12.129
80786SOL    HW244191  10.207   1.714  12.182
80787SOL     OW44192   6.969   4.430   2.433
80787SOL    HW144193   6.880   4.443   2.402
80787SOL    HW244194   6.980   4.335   2.436
80788SOL     OW44195   4.406   2.820   9.771
80788SOL    HW144196   4.489   2.856   9.741
80788SOL    HW244197   4.392   2.743   9.716
80789SOL     OW44198   0.535  12.559   4.456
80789SOL    HW144199   0.451  12.599   4.433
80789SOL    HW244200   0.583  12.629   4.501
80790SOL     OW44201  10.791   9.667  13.737
80790SOL    HW144202  10.816   9.649  13.647
80790SOL    HW244203  10.707   9.712  13.729
80791SOL     OW44204   3.413  10.017  12.795
80791SOL    HW144205   3.364  10.031  12.876
80791SOL    HW244206   3.455   9.932  12.808
80792SOL     OW44207   3.184  11.666   9.259
80792SOL    HW144208   3.116  11.631   9.317
80792SOL    HW244209   3.240  11.590   9.241
80793SOL     OW44210   6.469   1.137  11.145
80793SOL    HW144211   6.394   1.139  11.204
80793SOL    HW244212   6.440   1.081  11.072
80794SOL     OW44213  13.356   6.015  11.036
80794SOL    HW144214  13.385   6.080  11.100
80794SOL    HW244215  13.366   6.058  10.951
80795SOL     OW44216   4.355  11.473  13.440
80795SOL    HW144217   4.326  11.545  13.496
80795SOL    HW244218   4.367  11.513  13.354
80796SOL     OW44219   9.224   4.923  12.973
80796SOL    HW144220   9.136   4.900  12.945
80796SOL    HW244221   9.212   4.961  13.060
80797SOL     OW44222   6.213  14.256  12.012
80797SOL    HW144223   6.246  14.285  12.097
80797SOL    HW244224   6.198  14.336  11.963
80798SOL     OW44225  13.846  10.478   8.591
80798SOL    HW144226  13.859  10.570   8.614
80798SOL    HW244227  13.881  10.471   8.502
80799SOL     OW44228   8.385   2.150   2.430
80799SOL    HW144229   8.332   2.071   2.416
80799SOL    HW244230   8.461   2.138   2.373
80800SOL     OW44231  10.420  11.151  11.022
80800SOL    HW144232  10.411  11.109  10.936
80800SOL    HW244233  10.507  11.192  11.020
80801SOL     OW44234  10.816   1.396   1.927
80801SOL    HW144235  10.843   1.485   1.905
80801SOL    HW244236  10.854   1.342   1.858
80802SOL     OW44237   0.582  14.688  12.555
80802SOL    HW144238   0.585  14.751  12.483
80802SOL    HW244239   0.489  14.676  12.572
80803SOL     OW44240  10.457  13.113   0.205
80803SOL    HW144241  10.430  13.202   0.181
80803SOL    HW244242  10.549  13.109   0.179
80804SOL     OW44243   5.160   8.237  12.731
80804SOL    HW144244   5.149   8.301  12.802
80804SOL    HW244245   5.141   8.153  12.772
80805SOL     OW44246   5.437  14.429   2.472
80805SOL    HW144247   5.443  14.367   2.399
80805SOL    HW244248   5.525  14.431   2.510
80806SOL     OW44249   2.511  11.666   7.926
80806SOL    HW144250   2.546  11.631   8.008
80806SOL    HW244251   2.587  11.706   7.883
80807SOL     OW44252  12.872  13.427  13.130
80807SOL    HW144253  12.802  13.460  13.186
80807SOL    HW244254  12.944  13.407  13.190
80808SOL     OW44255   1.844   5.170   9.914
80808SOL    HW144256   1.823   5.259   9.885
80808SOL    HW244257   1.776   5.149   9.978
80809SOL     OW44258  10.410   0.920   5.362
80809SOL    HW144259  10.455   1.003   5.349
80809SOL    HW244260  10.410   0.878   5.276
80810SOL     OW44261  13.724   7.049  12.086
80810SOL    HW144262  13.654   6.994  12.121
80810SOL    HW244263  13.749   7.105  12.160
80811SOL     OW44264   7.803   2.401   0.217
80811SOL    HW144265   7.815   2.328   0.157
80811SOL    HW244266   7.875   2.394   0.279
80812SOL     OW44267   7.308   2.896  10.940
80812SOL    HW144268   7.297   2.980  10.897
80812SOL    HW244269   7.262   2.834  10.884
80813SOL     OW44270  10.394   0.640   7.057
80813SOL    HW144271  10.315   0.649   7.004
80813SOL    HW244272  10.434   0.558   7.026
80814SOL     OW44273  11.598  14.613  11.477
80814SOL    HW144274  11.655  14.673  11.527
80814SOL    HW244275  11.538  14.578  11.542
80815SOL     OW44276   5.661  13.310   6.663
80815SOL    HW144277   5.708  13.264   6.593
80815SOL    HW244278   5.582  13.259   6.677
80816SOL     OW44279   7.248   1.207   3.991
80816SOL    HW144280   7.249   1.303   3.993
80816SOL    HW244281   7.158   1.184   4.013
80817SOL     OW44282  11.726  12.195   9.630
80817SOL    HW144283  11.648  12.173   9.681
80817SOL    HW244284  11.778  12.250   9.688
80818SOL     OW44285   6.031   7.432   9.800
80818SOL    HW144286   6.106   7.389   9.841
80818SOL    HW244287   6.061   7.455   9.712
80819SOL     OW44288  13.030   0.417  11.711
80819SOL    HW144289  13.052   0.381  11.798
80819SOL    HW244290  12.936   0.431  11.714
80820SOL     OW44291   6.531   3.537  14.171
80820SOL    HW144292   6.614   3.536  14.219
80820SOL    HW244293   6.499   3.447  14.177
80821SOL     OW44294  10.956  13.068   4.685
80821SOL    HW144295  10.953  13.163   4.678
80821SOL    HW244296  10.959  13.051   4.779
80822SOL     OW44297  13.574   5.512  11.789
80822SOL    HW144298  13.495   5.483  11.835
80822SOL    HW244299  13.569   5.608  11.791
80823SOL     OW44300   4.721   2.129   2.649
80823SOL    HW144301   4.660   2.056   2.648
80823SOL    HW244302   4.666   2.207   2.656
80824SOL     OW44303   7.278   1.666   3.015
80824SOL    HW144304   7.207   1.728   3.001
80824SOL    HW244305   7.341   1.715   3.069
80825SOL     OW44306  11.847   9.089   9.764
80825SOL    HW144307  11.885   9.032   9.697
80825SOL    HW244308  11.805   9.160   9.714
80826SOL     OW44309   4.268   6.141   4.372
80826SOL    HW144310   4.359   6.133   4.399
80826SOL    HW244311   4.227   6.195   4.439
80827SOL     OW44312  10.644   1.851   5.367
80827SOL    HW144313  10.676   1.930   5.410
80827SOL    HW244314  10.637   1.786   5.437
80828SOL     OW44315  11.024   2.195  13.971
80828SOL    HW144316  11.099   2.240  13.933
80828SOL    HW244317  10.965   2.179  13.897
80829SOL     OW44318  11.246   7.424   3.889
80829SOL    HW144319  11.177   7.360   3.869
80829SOL    HW244320  11.201   7.495   3.935
80830SOL     OW44321   8.166  13.421   8.594
80830SOL    HW144322   8.219  13.481   8.646
80830SOL    HW244323   8.211  13.415   8.510
80831SOL     OW44324  11.282   5.950  10.290
80831SOL    HW144325  11.339   5.910  10.224
80831SOL    HW244326  11.279   6.043  10.265
80832SOL     OW44327   0.045   3.374   4.777
80832SOL    HW144328  14.845   3.329   4.754
80832SOL    HW244329   0.099   3.306   4.816
80833SOL     OW44330  14.289   1.357  12.196
80833SOL    HW144331  14.374   1.342  12.237
80833SOL    HW244332  14.239   1.277  12.216
80834SOL     OW44333   3.224   2.317   6.804
80834SOL    HW144334   3.176   2.275   6.733
80834SOL    HW244335   3.171   2.300   6.882
80835SOL     OW44336  14.547  10.245  10.538
80835SOL    HW144337  14.611  10.316  10.533
80835SOL    HW244338  14.584  10.176  10.483
80836SOL     OW44339   5.252   4.091  12.414
80836SOL    HW144340   5.172   4.115  12.461
80836SOL    HW244341   5.224   4.079  12.323
80837SOL     OW44342  10.412  12.932   4.461
80837SOL    HW144343  10.452  12.975   4.385
80837SOL    HW244344  10.487  12.899   4.511
80838SOL     OW44345  13.583  14.635   6.803
80838SOL    HW144346  13.530  14.678   6.736
80838SOL    HW244347  13.654  14.593   6.754
80839SOL     OW44348   7.223   2.435   6.439
80839SOL    HW144349   7.214   2.491   6.516
80839SOL    HW244350   7.239   2.347   6.475
80840SOL     OW44351  12.069   5.386   4.006
80840SOL    HW144352  12.015   5.372   3.928
80840SOL    HW244353  12.092   5.478   4.003
80841SOL     OW44354   8.901   5.090   8.168
80841SOL    HW144355   8.919   5.066   8.259
80841SOL    HW244356   8.806   5.080   8.159
80842SOL     OW44357   8.072  11.779   7.430
80842SOL    HW144358   8.144  11.800   7.371
80842SOL    HW244359   8.073  11.849   7.495
80843SOL     OW44360   6.800  11.685  11.557
80843SOL    HW144361   6.882  11.637  11.566
80843SOL    HW244362   6.800  11.747  11.630
80844SOL     OW44363  13.526   0.992   6.574
80844SOL    HW144364  13.441   1.028   6.601
80844SOL    HW244365  13.519   0.898   6.591
80845SOL     OW44366   1.104   0.640  14.672
80845SOL    HW144367   1.100   0.713  14.734
80845SOL    HW244368   1.164   0.577  14.713
80846SOL     OW44369  12.692   9.585   5.480
80846SOL    HW144370  12.756   9.604   5.411
80846SOL    HW244371  12.625   9.653   5.471
80847SOL     OW44372   7.309  11.269   6.502
80847SOL    HW144373   7.265  11.306   6.426
80847SOL    HW244374   7.342  11.184   6.472
80848SOL     OW44375   6.560   6.144   3.113
80848SOL    HW144376   6.607   6.061   3.103
80848SOL    HW244377   6.547   6.176   3.024
80849SOL     OW44378   5.426   2.920   1.402
80849SOL    HW144379   5.478   2.887   1.329
80849SOL    HW244380   5.473   2.997   1.432
80850SOL     OW44381   4.342   1.604   8.234
80850SOL    HW144382   4.308   1.683   8.191
80850SOL    HW244383   4.281   1.535   8.208
80851SOL     OW44384   2.997   8.882  14.378
80851SOL    HW144385   2.951   8.959  14.345
80851SOL    HW244386   2.928   8.818  14.395
80852SOL     OW44387   2.193  12.802  12.941
80852SOL    HW144388   2.203  12.891  12.909
80852SOL    HW244389   2.163  12.753  12.864
80853SOL     OW44390   6.700   9.234   2.845
80853SOL    HW144391   6.681   9.300   2.912
80853SOL    HW244392   6.795   9.230   2.841
80854SOL     OW44393  13.476   2.617   6.298
80854SOL    HW144394  13.509   2.633   6.386
80854SOL    HW244395  13.408   2.683   6.285
80855SOL     OW44396   7.670   6.663  13.768
80855SOL    HW144397   7.677   6.692  13.859
80855SOL    HW244398   7.646   6.741  13.719
80856SOL     OW44399   2.255   7.093  13.851
80856SOL    HW144400   2.240   7.115  13.759
80856SOL    HW244401   2.350   7.096  13.861
80857SOL     OW44402  12.825   2.256   4.225
80857SOL    HW144403  12.917   2.236   4.237
80857SOL    HW244404  12.788   2.178   4.184
80858SOL     OW44405   3.025  10.416   9.864
80858SOL    HW144406   2.938  10.390   9.832
80858SOL    HW244407   3.087  10.367   9.810
80859SOL     OW44408   1.604  13.440  10.652
80859SOL    HW144409   1.559  13.399  10.726
80859SOL    HW244410   1.601  13.374  10.582
80860SOL     OW44411   7.019   4.073   6.015
80860SOL    HW144412   7.023   3.980   5.994
80860SOL    HW244413   7.099   4.090   6.066
80861SOL     OW44414   0.687   4.839   5.045
80861SOL    HW144415   0.756   4.898   5.073
80861SOL    HW244416   0.631   4.891   4.988
80862SOL     OW44417   7.819   8.902   9.847
80862SOL    HW144418   7.780   8.938   9.768
80862SOL    HW244419   7.843   8.978   9.899
80863SOL     OW44420   2.155  12.177  12.910
80863SOL    HW144421   2.177  12.093  12.950
80863SOL    HW244422   2.165  12.240  12.980
80864SOL     OW44423   9.992  14.015   9.289
80864SOL    HW144424  10.035  14.053   9.366
80864SOL    HW244425  10.003  13.921   9.300
80865SOL     OW44426   1.502   7.017   7.009
80865SOL    HW144427   1.539   7.065   6.935
80865SOL    HW244428   1.499   6.926   6.979
80866SOL     OW44429   0.159  11.196   6.198
80866SOL    HW144430   0.066  11.178   6.184
80866SOL    HW244431   0.199  11.109   6.207
80867SOL     OW44432   7.234   5.098   8.025
80867SOL    HW144433   7.262   5.009   8.046
80867SOL    HW244434   7.285   5.155   8.083
80868SOL     OW44435   0.018   6.626   6.740
80868SOL    HW144436  14.870   6.652   6.826
80868SOL    HW244437   0.021   6.707   6.689
80869SOL     OW44438  14.832   5.893   2.094
80869SOL    HW144439  14.828   5.803   2.061
80869SOL    HW244440  14.859   5.945   2.018
80870SOL     OW44441   2.635  13.542   4.922
80870SOL    HW144442   2.685  13.562   4.842
80870SOL    HW244443   2.547  13.524   4.891
80871SOL     OW44444  12.934   5.983  13.290
80871SOL    HW144445  12.968   5.895  13.273
80871SOL    HW244446  12.842   5.978  13.265
80872SOL     OW44447   1.045  10.889  13.409
80872SOL    HW144448   1.068  10.813  13.462
80872SOL    HW244449   0.960  10.866  13.371
80873SOL     OW44450   8.761   8.384   6.788
80873SOL    HW144451   8.752   8.378   6.883
80873SOL    HW244452   8.757   8.293   6.757
80874SOL     OW44453   0.483   0.978  10.594
80874SOL    HW144454   0.465   1.044  10.661
80874SOL    HW244455   0.570   0.944  10.618
80875SOL     OW44456   6.103  11.552   1.134
80875SOL    HW144457   6.036  11.620   1.141
80875SOL    HW244458   6.184  11.594   1.164
80876SOL     OW44459   6.395   7.870  14.015
80876SOL    HW144460   6.314   7.911  14.047
80876SOL    HW244461   6.452   7.944  13.995
80877SOL     OW44462   6.049  13.997   7.649
80877SOL    HW144463   6.094  13.914   7.665
80877SOL    HW244464   6.081  14.056   7.717
80878SOL     OW44465  11.848   0.211   2.416
80878SOL    HW144466  11.876   0.286   2.363
80878SOL    HW244467  11.870   0.236   2.506
80879SOL     OW44468   7.611   3.741  14.823
80879SOL    HW144469   7.628   3.832  14.849
80879SOL    HW244470   7.694   3.696  14.837
80880SOL     OW44471   2.457   2.062   8.572
80880SOL    HW144472   2.435   1.988   8.517
80880SOL    HW244473   2.456   2.137   8.513
80881SOL     OW44474  14.034  11.038   6.663
80881SOL    HW144475  13.993  11.067   6.745
80881SOL    HW244476  13.960  11.024   6.604
80882SOL     OW44477   5.636   7.282   0.052
80882SOL    HW144478   5.580   7.351   0.017
80882SOL    HW244479   5.700   7.328   0.106
80883SOL     OW44480   8.484  11.502  14.645
80883SOL    HW144481   8.452  11.529  14.732
80883SOL    HW244482   8.558  11.560  14.629
80884SOL     OW44483   6.954   9.876   2.320
80884SOL    HW144484   6.977   9.960   2.358
80884SOL    HW244485   7.028   9.819   2.341
80885SOL     OW44486   1.319   0.158   4.887
80885SOL    HW144487   1.342   0.065   4.890
80885SOL    HW244488   1.394   0.203   4.925
80886SOL     OW44489   6.597   0.000  12.546
80886SOL    HW144490   6.577  14.801  12.499
80886SOL    HW244491   6.686  14.870  12.578
80887SOL     OW44492   1.614   4.692   8.080
80887SOL    HW144493   1.699   4.661   8.049
80887SOL    HW244494   1.635   4.767   8.136
80888SOL     OW44495   0.735   9.755   8.683
80888SOL    HW144496   0.755   9.794   8.598
80888SOL    HW244497   0.694   9.827   8.732
80889SOL     OW44498   6.951  12.264   5.922
80889SOL    HW144499   7.022  12.319   5.891
80889SOL    HW244500   6.982  12.174   5.907
80890SOL     OW44501  14.836   2.838  11.754
80890SOL    HW144502   0.008   2.909  11.789
80890SOL    HW244503  14.852   2.764  11.814
80891SOL     OW44504   7.543   5.718   4.772
80891SOL    HW144505   7.518   5.626   4.776
80891SOL    HW244506   7.464   5.765   4.799
80892SOL     OW44507   5.912  13.964  11.365
80892SOL    HW144508   5.958  13.932  11.443
80892SOL    HW244509   5.903  14.058  11.380
80893SOL     OW44510  10.173  11.287   6.150
80893SOL    HW144511  10.198  11.363   6.098
80893SOL    HW244512  10.211  11.303   6.237
80894SOL     OW44513  13.832   7.216  13.464
80894SOL    HW144514  13.867   7.221  13.553
80894SOL    HW244515  13.781   7.296  13.454
80895SOL     OW44516  11.490  12.439   4.441
80895SOL    HW144517  11.420  12.374   4.444
80895SOL    HW244518  11.533  12.431   4.526
80896SOL     OW44519   6.897  10.812  10.158
80896SOL    HW144520   6.924  10.726  10.125
80896SOL    HW244521   6.830  10.842  10.097
80897SOL     OW44522  12.583   0.433   7.135
80897SOL    HW144523  12.678   0.438   7.130
80897SOL    HW244524  12.564   0.421   7.228
80898SOL     OW44525   7.763  10.825  14.426
80898SOL    HW144526   7.858  10.831  14.425
80898SOL    HW244527   7.740  10.802  14.336
80899SOL     OW44528  13.218   5.493  11.580
80899SOL    HW144529  13.154   5.544  11.630
80899SOL    HW244530  13.268   5.558  11.532
80900SOL     OW44531  12.679  12.158  10.689
80900SOL    HW144532  12.693  12.097  10.616
80900SOL    HW244533  12.642  12.104  10.759
80901SOL     OW44534   2.728  12.768   1.104
80901SOL    HW144535   2.759  12.699   1.045
80901SOL    HW244536   2.698  12.838   1.045
80902SOL     OW44537   4.795  10.930   7.035
80902SOL    HW144538   4.747  10.847   7.037
80902SOL    HW244539   4.878  10.909   6.992
80903SOL     OW44540   9.240   9.149   6.406
80903SOL    HW144541   9.174   9.140   6.475
80903SOL    HW244542   9.322   9.121   6.447
80904SOL     OW44543   2.876   4.362  11.080
80904SOL    HW144544   2.862   4.305  11.156
80904SOL    HW244545   2.790   4.403  11.066
80905SOL     OW44546  13.470   1.827  11.597
80905SOL    HW144547  13.479   1.743  11.553
80905SOL    HW244548  13.560   1.860  11.604
80906SOL     OW44549   3.370   2.287   0.152
80906SOL    HW144550   3.368   2.209   0.096
80906SOL    HW244551   3.413   2.354   0.098
80907SOL     OW44552   5.070  11.334  12.175
80907SOL    HW144553   4.985  11.375  12.161
80907SOL    HW244554   5.077  11.327  12.270
80908SOL     OW44555  14.286   4.564   5.396
80908SOL    HW144556  14.335   4.579   5.315
80908SOL    HW244557  14.290   4.648   5.442
80909SOL     OW44558   3.019  11.588  14.428
80909SOL    HW144559   2.996  11.524  14.362
80909SOL    HW244560   3.079  11.542  14.487
80910SOL     OW44561  10.274   0.455  14.545
80910SOL    HW144562  10.195   0.433  14.496
80910SOL    HW244563  10.255   0.426  14.634
80911SOL     OW44564  10.837   6.764   0.543
80911SOL    HW144565  10.831   6.806   0.457
80911SOL    HW244566  10.898   6.692   0.530
80912SOL     OW44567   0.640  12.265   7.604
80912SOL    HW144568   0.572  12.323   7.640
80912SOL    HW244569   0.626  12.267   7.510
80913SOL     OW44570  12.418  10.937   1.133
80913SOL    HW144571  12.409  10.900   1.221
80913SOL    HW244572  12.346  11.000   1.126
80914SOL     OW44573  11.291   7.987   4.041
80914SOL    HW144574  11.199   8.007   4.060
80914SOL    HW244575  11.335   8.071   4.049
80915SOL     OW44576   9.235  13.184   0.736
80915SOL    HW144577   9.161  13.133   0.770
80915SOL    HW244578   9.211  13.203   0.645
80916SOL     OW44579   3.652   6.697  14.820
80916SOL    HW144580   3.720   6.631  14.835
80916SOL    HW244581   3.675   6.770  14.878
80917SOL     OW44582  14.605  13.599  10.371
80917SOL    HW144583  14.511  13.612  10.380
80917SOL    HW244584  14.615  13.556  10.286
80918SOL     OW44585  13.162  11.877   0.671
80918SOL    HW144586  13.185  11.924   0.590
80918SOL    HW244587  13.070  11.897   0.685
80919SOL     OW44588   4.711   4.102  11.680
80919SOL    HW144589   4.647   4.169  11.655
80919SOL    HW244590   4.743   4.068  11.596
80920SOL     OW44591   9.841  10.780  10.933
80920SOL    HW144592   9.756  10.773  10.976
80920SOL    HW244593   9.847  10.872  10.908
80921SOL     OW44594   4.623   2.022  13.532
80921SOL    HW144595   4.592   2.092  13.590
80921SOL    HW244596   4.692   2.063  13.479
80922SOL     OW44597  13.573   7.212  14.440
80922SOL    HW144598  13.598   7.304  14.436
80922SOL    HW244599  13.638   7.167  14.385
80923SOL     OW44600  13.081  12.692   2.873
80923SOL    HW144601  13.024  12.661   2.803
80923SOL    HW244602  13.169  12.690   2.835
80924SOL     OW44603   1.634   0.964   1.825
80924SOL    HW144604   1.712   0.913   1.846
80924SOL    HW244605   1.668   1.052   1.807
80925SOL     OW44606  13.439   6.896   3.785
80925SOL    HW144607  13.505   6.870   3.721
80925SOL    HW244608  13.365   6.838   3.769
80926SOL     OW44609   4.636   7.326  12.637
80926SOL    HW144610   4.696   7.306  12.709
80926SOL    HW244611   4.560   7.270  12.652
80927SOL     OW44612   8.898   7.395   4.916
80927SOL    HW144613   8.936   7.436   4.994
80927SOL    HW244614   8.972   7.353   4.872
80928SOL     OW44615   9.901  13.432   2.185
80928SOL    HW144616   9.819  13.383   2.194
80928SOL    HW244617   9.932  13.410   2.097
80929SOL     OW44618   9.515   4.910   0.852
80929SOL    HW144619   9.504   4.911   0.757
80929SOL    HW244620   9.441   4.960   0.885
80930SOL     OW44621   3.076   5.962   0.476
80930SOL    HW144622   3.024   6.002   0.406
80930SOL    HW244623   3.158   6.012   0.476
80931SOL     OW44624   3.361  13.612   4.707
80931SOL    HW144625   3.379  13.701   4.675
80931SOL    HW244626   3.353  13.622   4.801
80932SOL     OW44627   7.181   8.940   0.761
80932SOL    HW144628   7.264   8.904   0.731
80932SOL    HW244629   7.115   8.879   0.729
80933SOL     OW44630   1.584  14.015  13.437
80933SOL    HW144631   1.658  14.074  13.425
80933SOL    HW244632   1.516  14.050  13.378
80934SOL     OW44633   8.319   6.686   9.177
80934SOL    HW144634   8.277   6.625   9.239
80934SOL    HW244635   8.372   6.629   9.121
80935SOL     OW44636   5.212   4.374   0.427
80935SOL    HW144637   5.262   4.327   0.494
80935SOL    HW244638   5.121   4.349   0.443
80936SOL     OW44639   5.248   5.813   0.909
80936SOL    HW144640   5.266   5.720   0.895
80936SOL    HW244641   5.155   5.823   0.886
80937SOL     OW44642   3.561   1.996   5.196
80937SOL    HW144643   3.526   1.916   5.235
80937SOL    HW244644   3.485   2.038   5.156
80938SOL     OW44645   0.958  10.999   2.380
80938SOL    HW144646   1.038  10.988   2.432
80938SOL    HW244647   0.887  10.998   2.444
80939SOL     OW44648   8.767   7.574   1.635
80939SOL    HW144649   8.750   7.558   1.728
80939SOL    HW244650   8.808   7.494   1.604
80940SOL     OW44651  13.464  13.711   1.231
80940SOL    HW144652  13.521  13.688   1.157
80940SOL    HW244653  13.486  13.801   1.252
80941SOL     OW44654   8.867   2.791   6.388
80941SOL    HW144655   8.872   2.696   6.375
80941SOL    HW244656   8.942   2.812   6.443
80942SOL     OW44657   7.925   8.437   5.610
80942SOL    HW144658   7.862   8.425   5.681
80942SOL    HW244659   7.999   8.381   5.634
80943SOL     OW44660   1.960  14.629  11.815
80943SOL    HW144661   1.999  14.567  11.877
80943SOL    HW244662   2.012  14.708  11.825
80944SOL     OW44663  10.946   5.362   1.493
80944SOL    HW144664  10.894   5.407   1.559
80944SOL    HW244665  10.882   5.316   1.438
80945SOL     OW44666  10.287  14.549  11.631
80945SOL    HW144667  10.192  14.540  11.635
80945SOL    HW244668  10.301  14.619  11.567
80946SOL     OW44669  13.707   7.072   5.311
80946SOL    HW144670  13.728   6.997   5.255
80946SOL    HW244671  13.738   7.046   5.398
80947SOL     OW44672  14.618   9.690  10.281
80947SOL    HW144673  14.540   9.724  10.238
80947SOL    HW244674  14.674   9.660  10.210
80948SOL     OW44675   9.131   9.100   8.852
80948SOL    HW144676   9.153   9.008   8.836
80948SOL    HW244677   9.058   9.097   8.914
80949SOL     OW44678  11.790   3.758   3.752
80949SOL    HW144679  11.698   3.771   3.730
80949SOL    HW244680  11.832   3.742   3.668
80950SOL     OW44681  11.447  11.168   2.579
80950SOL    HW144682  11.528  11.168   2.630
80950SOL    HW244683  11.400  11.246   2.608
80951SOL     OW44684   3.053   9.662  10.244
80951SOL    HW144685   3.122   9.604  10.212
80951SOL    HW244686   3.035   9.631  10.333
80952SOL     OW44687   0.111   4.941   2.736
80952SOL    HW144688   0.043   4.928   2.803
80952SOL    HW244689   0.184   4.887   2.766
80953SOL     OW44690  11.922  13.137  11.682
80953SOL    HW144691  11.966  13.208  11.730
80953SOL    HW244692  11.945  13.058  11.730
80954SOL     OW44693  10.390   2.448   4.283
80954SOL    HW144694  10.338   2.401   4.348
80954SOL    HW244695  10.415   2.530   4.326
80955SOL     OW44696  13.273   7.481   4.802
80955SOL    HW144697  13.249   7.571   4.780
80955SOL    HW244698  13.368   7.478   4.788
80956SOL     OW44699   9.975  11.689   4.111
80956SOL    HW144700   9.967  11.766   4.168
80956SOL    HW244701   9.898  11.636   4.133
80957SOL     OW44702   6.405  11.287   5.311
80957SOL    HW144703   6.487  11.246   5.338
80957SOL    HW244704   6.348  11.279   5.387
80958SOL     OW44705   8.631   9.115  10.930
80958SOL    HW144706   8.568   9.143  10.863
80958SOL    HW244707   8.666   9.197  10.966
80959SOL     OW44708   3.299   5.916   8.728
80959SOL    HW144709   3.269   5.888   8.814
80959SOL    HW244710   3.231   5.977   8.698
80960SOL     OW44711  12.207  14.211  11.427
80960SOL    HW144712  12.189  14.300  11.457
80960SOL    HW244713  12.123  14.166  11.434
80961SOL     OW44714  10.395   9.143   9.582
80961SOL    HW144715  10.416   9.114   9.671
80961SOL    HW244716  10.430   9.232   9.577
80962SOL     OW44717   1.428  12.433   8.621
80962SOL    HW144718   1.444  12.353   8.671
80962SOL    HW244719   1.349  12.413   8.570
80963SOL     OW44720   1.193   7.704   1.834
80963SOL    HW144721   1.251   7.750   1.896
80963SOL    HW244722   1.184   7.616   1.870
80964SOL     OW44723   9.312   2.154   8.859
80964SOL    HW144724   9.355   2.073   8.887
80964SOL    HW244725   9.244   2.125   8.798
80965SOL     OW44726   8.049   0.023   0.815
80965SOL    HW144727   8.102   0.103   0.815
80965SOL    HW244728   8.111  14.836   0.837
80966SOL     OW44729  11.617   4.152  13.062
80966SOL    HW144730  11.699   4.170  13.107
80966SOL    HW244731  11.550   4.156  13.130
80967SOL     OW44732   6.393   7.595   8.240
80967SOL    HW144733   6.306   7.616   8.272
80967SOL    HW244734   6.378   7.529   8.172
80968SOL     OW44735   6.100   7.462  14.363
80968SOL    HW144736   6.154   7.535  14.333
80968SOL    HW244737   6.097   7.472  14.458
80969SOL     OW44738   4.933  13.904  13.654
80969SOL    HW144739   4.911  13.978  13.597
80969SOL    HW244740   5.003  13.938  13.710
80970SOL     OW44741   1.417  11.760   8.735
80970SOL    HW144742   1.503  11.791   8.764
80970SOL    HW244743   1.403  11.679   8.784
80971SOL     OW44744  13.397  13.808  10.106
80971SOL    HW144745  13.382  13.745  10.036
80971SOL    HW244746  13.312  13.849  10.122
80972SOL     OW44747   1.146   0.642  13.778
80972SOL    HW144748   1.207   0.674  13.845
80972SOL    HW244749   1.065   0.623  13.826
80973SOL     OW44750   7.898   1.864  12.985
80973SOL    HW144751   7.874   1.870  12.893
80973SOL    HW244752   7.994   1.866  12.985
80974SOL     OW44753   2.540   7.108  13.920
80974SOL    HW144754   2.582   7.149  13.844
80974SOL    HW244755   2.536   7.177  13.986
80975SOL     OW44756  12.764   8.352  14.507
80975SOL    HW144757  12.669   8.367  14.511
80975SOL    HW244758  12.773   8.261  14.478
80976SOL     OW44759   5.553  14.111   5.456
80976SOL    HW144760   5.583  14.145   5.372
80976SOL    HW244761   5.465  14.078   5.438
80977SOL     OW44762   5.155  14.617   8.858
80977SOL    HW144763   5.217  14.545   8.847
80977SOL    HW244764   5.210  14.695   8.865
80978SOL     OW44765   2.829   2.583  14.649
80978SOL    HW144766   2.760   2.649  14.652
80978SOL    HW244767   2.799   2.513  14.706
80979SOL     OW44768   7.675   5.191   5.926
80979SOL    HW144769   7.694   5.116   5.868
80979SOL    HW244770   7.676   5.154   6.014
80980SOL     OW44771   0.970   3.696  13.267
80980SOL    HW144772   1.009   3.700  13.354
80980SOL    HW244773   0.925   3.781  13.257
80981SOL     OW44774  12.412  14.814   0.374
80981SOL    HW144775  12.436  14.876   0.442
80981SOL    HW244776  12.404  14.867   0.294
80982SOL     OW44777   1.556  10.629   7.430
80982SOL    HW144778   1.625  10.571   7.461
80982SOL    HW244779   1.584  10.654   7.341
80983SOL     OW44780  12.120   8.958  11.075
80983SOL    HW144781  12.083   8.941  10.988
80983SOL    HW244782  12.209   8.987  11.058
80984SOL     OW44783   1.370   7.195   7.459
80984SOL    HW144784   1.377   7.204   7.363
80984SOL    HW244785   1.387   7.102   7.475
80985SOL     OW44786   4.781   0.647   7.605
80985SOL    HW144787   4.693   0.610   7.614
80985SOL    HW244788   4.768   0.730   7.559
80986SOL     OW44789  11.269   5.907   8.074
80986SOL    HW144790  11.201   5.857   8.029
80986SOL    HW244791  11.344   5.847   8.078
80987SOL     OW44792  12.333   6.817   9.674
80987SOL    HW144793  12.299   6.847   9.590
80987SOL    HW244794  12.270   6.849   9.738
80988SOL     OW44795  12.717   9.501   4.787
80988SOL    HW144796  12.803   9.461   4.776
80988SOL    HW244797  12.682   9.507   4.698
80989SOL     OW44798   4.576   5.758   0.326
80989SOL    HW144799   4.588   5.739   0.233
80989SOL    HW244800   4.617   5.683   0.370
80990SOL     OW44801  14.484   5.399  13.366
80990SOL    HW144802  14.505   5.393  13.273
80990SOL    HW244803  14.517   5.485  13.393
80991SOL     OW44804  12.247   4.036   9.630
80991SOL    HW144805  12.315   3.984   9.588
80991SOL    HW244806  12.190   3.972   9.673
80992SOL     OW44807   1.847   5.145   0.118
80992SOL    HW144808   1.792   5.126   0.193
80992SOL    HW244809   1.812   5.090   0.048
80993SOL     OW44810   2.640   6.547   6.100
80993SOL    HW144811   2.697   6.617   6.069
80993SOL    HW244812   2.577   6.592   6.157
80994SOL     OW44813   1.131   4.935  11.669
80994SOL    HW144814   1.110   4.954  11.577
80994SOL    HW244815   1.222   4.908  11.668
80995SOL     OW44816   3.401   0.487  10.050
80995SOL    HW144817   3.408   0.561  10.111
80995SOL    HW244818   3.408   0.409  10.105
80996SOL     OW44819   1.422  14.114  12.512
80996SOL    HW144820   1.493  14.078  12.565
80996SOL    HW244821   1.416  14.206  12.540
80997SOL     OW44822   9.956  12.810   4.172
80997SOL    HW144823   9.945  12.715   4.176
80997SOL    HW244824  10.051  12.823   4.168
80998SOL     OW44825   5.888   5.489   5.706
80998SOL    HW144826   5.809   5.525   5.666
80998SOL    HW244827   5.870   5.395   5.714
80999SOL     OW44828  10.475   4.521   3.882
80999SOL    HW144829  10.466   4.545   3.974
80999SOL    HW244830  10.565   4.489   3.873
81000SOL     OW44831   5.984   9.934   1.691
81000SOL    HW144832   6.074   9.926   1.658
81000SOL    HW244833   5.930   9.934   1.611
81001SOL     OW44834   0.920   8.849   4.560
81001SOL    HW144835   0.933   8.775   4.500
81001SOL    HW244836   1.007   8.889   4.567
81002SOL     OW44837  14.670   4.425   8.623
81002SOL    HW144838  14.722   4.371   8.683
81002SOL    HW244839  14.596   4.368   8.599
81003SOL     OW44840  10.111   4.984   8.938
81003SOL    HW144841  10.124   4.951   8.850
81003SOL    HW244842  10.076   4.910   8.987
81004SOL     OW44843  14.587   2.296   2.376
81004SOL    HW144844  14.597   2.202   2.395
81004SOL    HW244845  14.654   2.338   2.431
81005SOL     OW44846   5.800   4.338  13.898
81005SOL    HW144847   5.706   4.350  13.886
81005SOL    HW244848   5.807   4.283  13.976
81006SOL     OW44849  13.722   1.047  10.125
81006SOL    HW144850  13.632   1.077  10.137
81006SOL    HW244851  13.713   0.958  10.091
81007SOL     OW44852   2.438  13.337   3.043
81007SOL    HW144853   2.462  13.262   2.988
81007SOL    HW244854   2.350  13.360   3.016
81008SOL     OW44855   6.508  10.037  14.083
81008SOL    HW144856   6.558  10.041  14.164
81008SOL    HW244857   6.564  10.081  14.018
81009SOL     OW44858  13.115   1.442   5.295
81009SOL    HW144859  13.104   1.537   5.307
81009SOL    HW244860  13.195   1.422   5.344
81010SOL     OW44861   3.250   5.099  13.083
81010SOL    HW144862   3.199   5.104  13.002
81010SOL    HW244863   3.288   5.186  13.093
81011SOL     OW44864  10.178   4.222  11.189
81011SOL    HW144865  10.169   4.155  11.121
81011SOL    HW244866  10.273   4.229  11.202
81012SOL     OW44867   0.469  11.556  10.646
81012SOL    HW144868   0.450  11.571  10.738
81012SOL    HW244869   0.384  11.566  10.602
81013SOL     OW44870  13.519  14.495   3.397
81013SOL    HW144871  13.531  14.572   3.452
81013SOL    HW244872  13.607  14.460   3.385
81014SOL     OW44873   4.572  12.244  13.248
81014SOL    HW144874   4.668  12.242  13.245
81014SOL    HW244875   4.552  12.293  13.329
81015SOL     OW44876   5.841  11.958   0.781
81015SOL    HW144877   5.826  11.919   0.867
81015SOL    HW244878   5.894  12.036   0.800
81016SOL     OW44879   3.051  14.606   4.657
81016SOL    HW144880   3.048  14.632   4.565
81016SOL    HW244881   3.101  14.524   4.658
81017SOL     OW44882   9.916  12.851  11.021
81017SOL    HW144883   9.980  12.808  11.078
81017SOL    HW244884   9.969  12.906  10.963
81018SOL     OW44885   6.506  11.461  10.946
81018SOL    HW144886   6.469  11.484  10.861
81018SOL    HW244887   6.584  11.517  10.954
81019SOL     OW44888   3.238   5.731  12.139
81019SOL    HW144889   3.214   5.671  12.068
81019SOL    HW244890   3.164   5.790  12.148
81020SOL     OW44891  12.110  11.920   4.409
81020SOL    HW144892  12.148  11.834   4.426
81020SOL    HW244893  12.132  11.971   4.487
81021SOL     OW44894   9.556  11.463   0.814
81021SOL    HW144895   9.477  11.432   0.858
81021SOL    HW244896   9.542  11.441   0.722
81022SOL     OW44897   4.145   3.771   1.658
81022SOL    HW144898   4.211   3.837   1.677
81022SOL    HW244899   4.090   3.768   1.736
81023SOL     OW44900  12.590   8.731   5.182
81023SOL    HW144901  12.519   8.726   5.245
81023SOL    HW244902  12.646   8.801   5.214
81024SOL     OW44903  14.074  12.757   5.388
81024SOL    HW144904  14.118  12.692   5.333
81024SOL    HW244905  14.098  12.732   5.478
81025SOL     OW44906  13.259   9.872   4.037
81025SOL    HW144907  13.221   9.936   3.977
81025SOL    HW244908  13.353   9.873   4.016
81026SOL     OW44909   2.316  14.545   3.849
81026SOL    HW144910   2.287  14.566   3.938
81026SOL    HW244911   2.278  14.615   3.795
81027SOL     OW44912  13.812   0.805  12.831
81027SOL    HW144913  13.827   0.899  12.828
81027SOL    HW244914  13.844   0.773  12.747
81028SOL     OW44915  14.724   1.915  14.836
81028SOL    HW144916  14.691   1.827  14.815
81028SOL    HW244917  14.645   1.968  14.844
81029SOL     OW44918   3.751   6.747  11.739
81029SOL    HW144919   3.695   6.800  11.795
81029SOL    HW244920   3.828   6.803  11.722
81030SOL     OW44921   3.692   1.835   8.460
81030SOL    HW144922   3.713   1.765   8.399
81030SOL    HW244923   3.769   1.842   8.517
81031SOL     OW44924   9.799  10.467   0.690
81031SOL    HW144925   9.712  10.473   0.728
81031SOL    HW244926   9.804  10.540   0.629
81032SOL     OW44927  10.718   7.702   8.168
81032SOL    HW144928  10.729   7.793   8.141
81032SOL    HW244929  10.765   7.695   8.251
81033SOL     OW44930  14.611   3.974   2.688
81033SOL    HW144931  14.560   4.035   2.635
81033SOL    HW244932  14.663   3.925   2.625
81034SOL     OW44933   6.817   3.255   5.378
81034SOL    HW144934   6.907   3.265   5.346
81034SOL    HW244935   6.767   3.227   5.302
81035SOL     OW44936   3.582   2.914  12.077
81035SOL    HW144937   3.550   2.825  12.093
81035SOL    HW244938   3.661   2.922  12.131
81036SOL     OW44939   3.283   3.679  10.966
81036SOL    HW144940   3.315   3.686  11.056
81036SOL    HW244941   3.339   3.739  10.916
81037SOL     OW44942  14.057   3.203   8.732
81037SOL    HW144943  14.002   3.131   8.700
81037SOL    HW244944  14.015   3.282   8.697
81038SOL     OW44945   8.940  13.014  12.040
81038SOL    HW144946   8.917  12.926  12.069
81038SOL    HW244947   9.034  13.009  12.022
81039SOL     OW44948   0.062  13.486  13.819
81039SOL    HW144949   0.145  13.438  13.815
81039SOL    HW244950   0.010  13.440  13.884
81040SOL     OW44951  10.578  11.401  10.949
81040SOL    HW144952  10.634  11.324  10.948
81040SOL    HW244953  10.590  11.439  11.036
81041SOL     OW44954  10.344  11.343  11.321
81041SOL    HW144955  10.402  11.268  11.338
81041SOL    HW244956  10.318  11.373  11.408
81042SOL     OW44957   2.170   4.305   8.210
81042SOL    HW144958   2.255   4.294   8.169
81042SOL    HW244959   2.107   4.286   8.141
81043SOL     OW44960  13.856   1.713  10.221
81043SOL    HW144961  13.928   1.673  10.172
81043SOL    HW244962  13.780   1.658  10.201
81044SOL     OW44963  14.738   5.495   0.389
81044SOL    HW144964  14.672   5.545   0.436
81044SOL    HW244965  14.732   5.407   0.427
81045SOL     OW44966   0.928   6.854   2.942
81045SOL    HW144967   0.975   6.778   2.977
81045SOL    HW244968   0.989   6.891   2.877
81046SOL     OW44969  13.882  11.216   2.295
81046SOL    HW144970  13.789  11.227   2.277
81046SOL    HW244971  13.891  11.231   2.389
81047SOL     OW44972  11.192   4.148  10.256
81047SOL    HW144973  11.258   4.215  10.241
81047SOL    HW244974  11.235   4.084  10.313
81048SOL     OW44975   4.022   3.706   1.412
81048SOL    HW144976   4.056   3.753   1.336
81048SOL    HW244977   4.079   3.732   1.484
81049SOL     OW44978   8.526  12.945   5.782
81049SOL    HW144979   8.619  12.935   5.762
81049SOL    HW244980   8.524  12.986   5.868
81050SOL     OW44981   3.050   1.412   0.814
81050SOL    HW144982   3.022   1.496   0.850
81050SOL    HW244983   3.128   1.432   0.764
81051SOL     OW44984   1.022   3.551  13.020
81051SOL    HW144985   0.932   3.525  13.000
81051SOL    HW244986   1.019   3.579  13.112
81052SOL     OW44987  13.132   6.229  12.616
81052SOL    HW144988  13.163   6.285  12.688
81052SOL    HW244989  13.042   6.259  12.601
81053SOL     OW44990   8.385   6.669  14.672
81053SOL    HW144991   8.481   6.675  14.663
81053SOL    HW244992   8.354   6.650  14.584
81054SOL     OW44993   1.620   4.930   4.800
81054SOL    HW144994   1.616   5.003   4.739
81054SOL    HW244995   1.688   4.873   4.765
81055SOL     OW44996  14.120  14.523   8.101
81055SOL    HW144997  14.208  14.534   8.138
81055SOL    HW244998  14.119  14.434   8.066
81056SOL     OW44999   2.464   7.241  10.496
81056SOL    HW145000   2.483   7.226  10.589
81056SOL    HW245001   2.550   7.237  10.453
81057SOL     OW45002  11.102   5.754   7.942
81057SOL    HW145003  11.174   5.701   7.975
81057SOL    HW245004  11.102   5.739   7.847
81058SOL     OW45005   9.851   8.614   5.811
81058SOL    HW145006   9.850   8.676   5.884
81058SOL    HW245007   9.768   8.629   5.766
81059SOL     OW45008   2.842  14.079  12.446
81059SOL    HW145009   2.918  14.028  12.477
81059SOL    HW245010   2.826  14.143  12.515
81060SOL     OW45011  11.228  12.769   9.138
81060SOL    HW145012  11.144  12.743   9.099
81060SOL    HW245013  11.210  12.776   9.231
81061SOL     OW45014  14.419   6.199   5.524
81061SOL    HW145015  14.468   6.277   5.550
81061SOL    HW245016  14.470   6.161   5.452
81062SOL     OW45017  11.475   6.167  11.254
81062SOL    HW145018  11.551   6.221  11.236
81062SOL    HW245019  11.410   6.194  11.190
81063SOL     OW45020  13.950   7.213   7.936
81063SOL    HW145021  13.957   7.299   7.896
81063SOL    HW245022  13.978   7.152   7.867
81064SOL     OW45023  14.351   1.222   7.140
81064SOL    HW145024  14.431   1.177   7.166
81064SOL    HW245025  14.280   1.169   7.176
81065SOL     OW45026   6.813   9.156  14.013
81065SOL    HW145027   6.858   9.090  14.066
81065SOL    HW245028   6.881   9.218  13.987
81066SOL     OW45029   6.649   8.492  10.719
81066SOL    HW145030   6.612   8.415  10.762
81066SOL    HW245031   6.645   8.561  10.785
81067SOL     OW45032   2.015   6.700  12.079
81067SOL    HW145033   1.960   6.766  12.036
81067SOL    HW245034   2.082   6.751  12.124
81068SOL     OW45035  10.385  11.311  14.115
81068SOL    HW145036  10.467  11.347  14.081
81068SOL    HW245037  10.362  11.241  14.054
81069SOL     OW45038  10.272   4.150   3.661
81069SOL    HW145039  10.234   4.233   3.633
81069SOL    HW245040  10.221   4.125   3.738
81070SOL     OW45041   1.535   7.971  13.590
81070SOL    HW145042   1.605   7.989  13.528
81070SOL    HW245043   1.456   8.007  13.549
81071SOL     OW45044   9.762   8.916   2.809
81071SOL    HW145045   9.761   8.820   2.801
81071SOL    HW245046   9.676   8.938   2.844
81072SOL     OW45047  10.270   0.883  14.824
81072SOL    HW145048  10.250   0.910   0.032
81072SOL    HW245049  10.217   0.941  14.769
81073SOL     OW45050  14.272   3.060   4.713
81073SOL    HW145051  14.192   3.016   4.744
81073SOL    HW245052  14.331   2.989   4.690
81074SOL     OW45053   7.355   3.143   2.212
81074SOL    HW145054   7.275   3.160   2.162
81074SOL    HW245055   7.356   3.048   2.224
81075SOL     OW45056   2.287   6.172   2.633
81075SOL    HW145057   2.196   6.166   2.664
81075SOL    HW245058   2.322   6.084   2.646
81076SOL     OW45059  14.251   2.268   5.850
81076SOL    HW145060  14.161   2.268   5.881
81076SOL    HW245061  14.271   2.177   5.831
81077SOL     OW45062   6.028   2.084   6.038
81077SOL    HW145063   5.935   2.062   6.041
81077SOL    HW245064   6.034   2.169   6.080
81078SOL     OW45065   5.863   0.669   0.266
81078SOL    HW145066   5.835   0.635   0.351
81078SOL    HW245067   5.895   0.592   0.218
81079SOL     OW45068   6.679   3.315   9.663
81079SOL    HW145069   6.726   3.398   9.679
81079SOL    HW245070   6.695   3.263   9.741
81080SOL     OW45071   2.128  11.371   3.577
81080SOL    HW145072   2.145  11.294   3.631
81080SOL    HW245073   2.214  11.405   3.557
81081SOL     OW45074   3.107   4.318   9.021
81081SOL    HW145075   3.158   4.397   9.004
81081SOL    HW245076   3.079   4.326   9.112
81082SOL     OW45077   2.732   5.106   0.245
81082SOL    HW145078   2.740   5.196   0.277
81082SOL    HW245079   2.820   5.085   0.213
81083SOL     OW45080  11.182   0.997  12.152
81083SOL    HW145081  11.090   1.023  12.149
81083SOL    HW245082  11.180   0.902  12.142
81084SOL     OW45083   3.714  11.150   3.582
81084SOL    HW145084   3.640  11.141   3.522
81084SOL    HW245085   3.754  11.234   3.560
81085SOL     OW45086  10.985  13.838   5.779
81085SOL    HW145087  11.028  13.915   5.741
81085SOL    HW245088  10.893  13.864   5.787
81086SOL     OW45089  11.152  11.123   3.293
81086SOL    HW145090  11.143  11.177   3.371
81086SOL    HW245091  11.157  11.033   3.326
81087SOL     OW45092   9.362   9.165   8.573
81087SOL    HW145093   9.395   9.078   8.591
81087SOL    HW245094   9.269   9.152   8.553
81088SOL     OW45095   1.011   5.029  14.127
81088SOL    HW145096   1.027   4.979  14.048
81088SOL    HW245097   1.003   4.964  14.196
81089SOL     OW45098   4.106   8.988  10.441
81089SOL    HW145099   4.018   8.987  10.478
81089SOL    HW245100   4.143   8.903  10.463
81090SOL     OW45101  11.332  13.881   7.865
81090SOL    HW145102  11.284  13.963   7.855
81090SOL    HW245103  11.288  13.821   7.805
81091SOL     OW45104  13.277   8.681  12.330
81091SOL    HW145105  13.325   8.761  12.310
81091SOL    HW245106  13.221   8.666  12.253
81092SOL     OW45107  14.419  14.045   6.914
81092SOL    HW145108  14.368  14.118   6.948
81092SOL    HW245109  14.508  14.078   6.905
81093SOL     OW45110   2.451   3.450   6.046
81093SOL    HW145111   2.472   3.432   6.137
81093SOL    HW245112   2.450   3.364   6.003
81094SOL     OW45113   1.905   2.588  14.658
81094SOL    HW145114   1.841   2.653  14.628
81094SOL    HW245115   1.989   2.636  14.659
81095SOL     OW45116  13.527   4.729   4.864
81095SOL    HW145117  13.445   4.770   4.890
81095SOL    HW245118  13.502   4.660   4.803
81096SOL     OW45119  10.581  11.540   0.225
81096SOL    HW145120  10.640  11.555   0.150
81096SOL    HW245121  10.608  11.455   0.260
81097SOL     OW45122   1.826  13.562   7.069
81097SOL    HW145123   1.746  13.511   7.057
81097SOL    HW245124   1.894  13.511   7.024
81098SOL     OW45125   5.722  11.393  13.941
81098SOL    HW145126   5.717  11.427  13.852
81098SOL    HW245127   5.774  11.458  13.989
81099SOL     OW45128   2.410  14.812   8.541
81099SOL    HW145129   2.344  14.824   8.610
81099SOL    HW245130   2.437  14.721   8.550
81100SOL     OW45131   3.586  11.735   9.179
81100SOL    HW145132   3.535  11.683   9.241
81100SOL    HW245133   3.598  11.820   9.222
81101SOL     OW45134  12.508   2.432   8.651
81101SOL    HW145135  12.488   2.409   8.742
81101SOL    HW245136  12.516   2.527   8.651
81102SOL     OW45137  14.083  13.009   3.830
81102SOL    HW145138  14.094  13.020   3.925
81102SOL    HW245139  13.994  12.976   3.820
81103SOL     OW45140  10.915  14.582   3.554
81103SOL    HW145141  10.936  14.500   3.510
81103SOL    HW245142  10.943  14.650   3.492
81104SOL     OW45143   1.518  14.137   0.143
81104SOL    HW145144   1.571  14.058   0.140
81104SOL    HW245145   1.539  14.183   0.061
81105SOL     OW45146   4.762  12.957   5.226
81105SOL    HW145147   4.805  13.026   5.277
81105SOL    HW245148   4.835  12.911   5.183
81106SOL     OW45149  10.673  10.211   2.665
81106SOL    HW145150  10.740  10.145   2.650
81106SOL    HW245151  10.689  10.278   2.599
81107SOL     OW45152  13.168   6.305  10.340
81107SOL    HW145153  13.096   6.344  10.290
81107SOL    HW245154  13.224   6.265  10.274
81108SOL     OW45155   8.723  11.901   0.007
81108SOL    HW145156   8.750  11.811  14.875
81108SOL    HW245157   8.681  11.926  14.807
81109SOL     OW45158   1.662  14.777  13.068
81109SOL    HW145159   1.644  14.698  13.017
81109SOL    HW245160   1.583  14.830  13.061
81110SOL     OW45161  10.564   1.138  12.414
81110SOL    HW145162  10.613   1.057  12.429
81110SOL    HW245163  10.475   1.110  12.394
81111SOL     OW45164   1.221   2.728   5.361
81111SOL    HW145165   1.128   2.735   5.339
81111SOL    HW245166   1.228   2.766   5.448
81112SOL     OW45167   0.093  13.049   2.443
81112SOL    HW145168   0.034  13.102   2.390
81112SOL    HW245169   0.178  13.092   2.433
81113SOL     OW45170  13.740   5.753   6.161
81113SOL    HW145171  13.787   5.820   6.212
81113SOL    HW245172  13.648   5.769   6.180
81114SOL     OW45173   6.798  14.311  12.141
81114SOL    HW145174   6.730  14.249  12.117
81114SOL    HW245175   6.776  14.339  12.230
81115SOL     OW45176  13.681  10.353   0.486
81115SOL    HW145177  13.603  10.400   0.456
81115SOL    HW245178  13.752  10.385   0.429
81116SOL     OW45179   9.465   4.430   3.041
81116SOL    HW145180   9.457   4.440   2.946
81116SOL    HW245181   9.559   4.418   3.055
81117SOL     OW45182  14.067  10.499   3.925
81117SOL    HW145183  14.094  10.494   4.017
81117SOL    HW245184  14.142  10.539   3.881
81118SOL     OW45185   5.049   5.862   0.058
81118SOL    HW145186   5.078   5.867  14.849
81118SOL    HW245187   5.104   5.795   0.097
81119SOL     OW45188   4.434   7.399   0.422
81119SOL    HW145189   4.368   7.341   0.461
81119SOL    HW245190   4.509   7.342   0.407
81120SOL     OW45191   8.393   0.446   9.593
81120SOL    HW145192   8.468   0.501   9.616
81120SOL    HW245193   8.326   0.470   9.657
81121SOL     OW45194  12.855  11.214   1.121
81121SOL    HW145195  12.933  11.253   1.160
81121SOL    HW245196  12.864  11.233   1.027
81122SOL     OW45197  14.037   1.113  10.646
81122SOL    HW145198  13.952   1.072  10.663
81122SOL    HW245199  14.028   1.201  10.682
81123SOL     OW45200   1.499   9.032   5.037
81123SOL    HW145201   1.496   8.986   5.121
81123SOL    HW245202   1.505   9.124   5.060
81124SOL     OW45203   9.364   0.962   1.406
81124SOL    HW145204   9.306   0.885   1.408
81124SOL    HW245205   9.441   0.932   1.359
81125SOL     OW45206  10.572  11.840  10.966
81125SOL    HW145207  10.662  11.808  10.966
81125SOL    HW245208  10.536  11.811  10.883
81126SOL     OW45209   6.412   8.050  13.627
81126SOL    HW145210   6.478   8.102  13.672
81126SOL    HW245211   6.453   8.028  13.543
81127SOL     OW45212   4.672   9.221   1.044
81127SOL    HW145213   4.599   9.187   0.993
81127SOL    HW245214   4.635   9.238   1.131
81128SOL     OW45215   1.925   5.652   4.001
81128SOL    HW145216   1.951   5.584   3.940
81128SOL    HW245217   1.877   5.606   4.070
81129SOL     OW45218   1.149   6.046   8.546
81129SOL    HW145219   1.189   5.964   8.578
81129SOL    HW245220   1.187   6.114   8.601
81130SOL     OW45221   2.251   6.526   9.938
81130SOL    HW145222   2.212   6.467  10.003
81130SOL    HW245223   2.262   6.608   9.986
81131SOL     OW45224   7.834   6.026   2.361
81131SOL    HW145225   7.856   5.939   2.396
81131SOL    HW245226   7.895   6.038   2.288
81132SOL     OW45227   4.687   7.270  12.370
81132SOL    HW145228   4.652   7.181  12.381
81132SOL    HW245229   4.662   7.316  12.450
81133SOL     OW45230  13.903   5.429   3.436
81133SOL    HW145231  13.959   5.483   3.493
81133SOL    HW245232  13.927   5.339   3.457
81134SOL     OW45233   0.014   5.517   0.767
81134SOL    HW145234  14.845   5.482   0.841
81134SOL    HW245235  14.844   5.591   0.736
81135SOL     OW45236  13.670  14.529  12.155
81135SOL    HW145237  13.644  14.444  12.192
81135SOL    HW245238  13.765  14.532  12.167
81136SOL     OW45239   6.058   0.726   6.390
81136SOL    HW145240   5.991   0.673   6.433
81136SOL    HW245241   6.053   0.811   6.435
81137SOL     OW45242   3.343  12.257  12.691
81137SOL    HW145243   3.411  12.322  12.676
81137SOL    HW245244   3.300  12.247  12.607
81138SOL     OW45245   8.710   2.226  11.555
81138SOL    HW145246   8.649   2.198  11.487
81138SOL    HW245247   8.706   2.157  11.621
81139SOL     OW45248  11.056   5.105   0.359
81139SOL    HW145249  11.032   5.140   0.273
81139SOL    HW245250  11.053   5.180   0.417
81140SOL     OW45251   7.347   8.286   9.110
81140SOL    HW145252   7.366   8.314   9.199
81140SOL    HW245253   7.430   8.249   9.078
81141SOL     OW45254  12.314   8.555   7.489
81141SOL    HW145255  12.354   8.483   7.439
81141SOL    HW245256  12.293   8.621   7.423
81142SOL     OW45257   8.877  13.782   3.821
81142SOL    HW145258   8.876  13.693   3.787
81142SOL    HW245259   8.809  13.782   3.889
81143SOL     OW45260   6.607   5.152  10.427
81143SOL    HW145261   6.585   5.063  10.456
81143SOL    HW245262   6.524   5.186  10.391
81144SOL     OW45263   0.363   6.338   2.711
81144SOL    HW145264   0.300   6.343   2.638
81144SOL    HW245265   0.360   6.247   2.739
81145SOL     OW45266   9.643   5.753   7.977
81145SOL    HW145267   9.701   5.681   8.003
81145SOL    HW245268   9.697   5.831   7.984
81146SOL     OW45269   0.900   0.546  13.392
81146SOL    HW145270   0.965   0.540  13.322
81146SOL    HW245271   0.853   0.463  13.389
81147SOL     OW45272  10.751  13.183   0.944
81147SOL    HW145273  10.761  13.129   0.865
81147SOL    HW245274  10.692  13.132   0.999
81148SOL     OW45275   4.635  10.517   2.192
81148SOL    HW145276   4.659  10.569   2.116
81148SOL    HW245277   4.564  10.566   2.234
81149SOL     OW45278   3.610  12.964   6.908
81149SOL    HW145279   3.701  12.994   6.904
81149SOL    HW245280   3.616  12.872   6.932
81150SOL     OW45281   9.581   8.977   0.710
81150SOL    HW145282   9.622   9.041   0.651
81150SOL    HW245283   9.642   8.904   0.713
81151SOL     OW45284  13.258   2.932   8.311
81151SOL    HW145285  13.285   2.861   8.370
81151SOL    HW245286  13.305   3.009   8.343
81152SOL     OW45287  12.594   9.997   4.330
81152SOL    HW145288  12.570   9.951   4.410
81152SOL    HW245289  12.566  10.087   4.345
81153SOL     OW45290   2.434   2.029   0.975
81153SOL    HW145291   2.417   1.937   0.996
81153SOL    HW245292   2.465   2.027   0.884
81154SOL     OW45293  13.474   4.136   7.943
81154SOL    HW145294  13.380   4.119   7.942
81154SOL    HW245295  13.500   4.132   7.851
81155SOL     OW45296   9.016   9.046   2.983
81155SOL    HW145297   8.935   9.084   2.948
81155SOL    HW245298   9.040   9.104   3.056
81156SOL     OW45299   4.688  11.107   0.256
81156SOL    HW145300   4.713  11.172   0.323
81156SOL    HW245301   4.756  11.040   0.261
81157SOL     OW45302  12.658   4.187  12.534
81157SOL    HW145303  12.746   4.205  12.501
81157SOL    HW245304  12.616   4.139  12.462
81158SOL     OW45305   6.859  13.039   8.397
81158SOL    HW145306   6.952  13.031   8.374
81158SOL    HW245307   6.853  13.126   8.438
81159SOL     OW45308   3.042  10.534  12.491
81159SOL    HW145309   3.055  10.490  12.574
81159SOL    HW245310   3.026  10.626  12.515
81160SOL     OW45311   6.699  11.500   5.357
81160SOL    HW145312   6.692  11.577   5.412
81160SOL    HW245313   6.707  11.427   5.418
81161SOL     OW45314   0.826   0.311   4.669
81161SOL    HW145315   0.848   0.283   4.580
81161SOL    HW245316   0.896   0.370   4.694
81162SOL     OW45317   5.113   7.072  11.405
81162SOL    HW145318   5.047   7.039  11.344
81162SOL    HW245319   5.063   7.124  11.469
81163SOL     OW45320  11.576   1.182   6.611
81163SOL    HW145321  11.531   1.240   6.673
81163SOL    HW245322  11.559   1.094   6.645
81164SOL     OW45323  10.675  11.484  14.852
81164SOL    HW145324  10.593  11.447   0.003
81164SOL    HW245325  10.663  11.487  14.757
81165SOL     OW45326   9.806   1.006   1.231
81165SOL    HW145327   9.900   0.997   1.246
81165SOL    HW245328   9.791   0.958   1.149
81166SOL     OW45329   8.917  12.103   4.526
81166SOL    HW145330   8.867  12.153   4.590
81166SOL    HW245331   8.994  12.157   4.508
81167SOL     OW45332   6.657   7.954  10.149
81167SOL    HW145333   6.630   7.891  10.081
81167SOL    HW245334   6.694   8.027  10.100
81168SOL     OW45335   7.564  10.211   9.901
81168SOL    HW145336   7.592  10.160   9.824
81168SOL    HW245337   7.473  10.185   9.915
81169SOL     OW45338  10.383  10.825   9.241
81169SOL    HW145339  10.310  10.824   9.302
81169SOL    HW245340  10.428  10.741   9.255
81170SOL     OW45341   2.703   4.254  14.758
81170SOL    HW145342   2.746   4.336  14.783
81170SOL    HW245343   2.659   4.274  14.676
81171SOL     OW45344  14.697   5.812   4.661
81171SOL    HW145345  14.719   5.724   4.689
81171SOL    HW245346  14.721   5.868   4.735
81172SOL     OW45347   1.408   4.396   1.937
81172SOL    HW145348   1.473   4.402   1.868
81172SOL    HW245349   1.347   4.467   1.919
81173SOL     OW45350   9.005  12.054  14.112
81173SOL    HW145351   9.035  12.003  14.036
81173SOL    HW245352   8.924  12.096  14.082
81174SOL     OW45353  11.007  12.153   9.026
81174SOL    HW145354  10.929  12.106   9.056
81174SOL    HW245355  11.061  12.085   8.984
81175SOL     OW45356  12.602  13.924   4.727
81175SOL    HW145357  12.514  13.920   4.688
81175SOL    HW245358  12.656  13.964   4.659
81176SOL     OW45359   3.075  13.599  12.276
81176SOL    HW145360   3.078  13.510  12.241
81176SOL    HW245361   3.087  13.655  12.199
81177SOL     OW45362   7.819   2.268  13.177
81177SOL    HW145363   7.911   2.239  13.175
81177SOL    HW245364   7.824   2.361  13.201
81178SOL     OW45365  10.728   0.702   7.579
81178SOL    HW145366  10.668   0.777   7.578
81178SOL    HW245367  10.808   0.736   7.619
81179SOL     OW45368  13.753  10.257   9.103
81179SOL    HW145369  13.675  10.295   9.143
81179SOL    HW245370  13.744  10.275   9.009
81180SOL     OW45371   4.683  13.859   2.272
81180SOL    HW145372   4.735  13.919   2.326
81180SOL    HW245373   4.733  13.777   2.272
81181SOL     OW45374  10.395   8.524   1.930
81181SOL    HW145375  10.305   8.546   1.904
81181SOL    HW245376  10.386   8.488   2.018
81182SOL     OW45377  13.360  13.576  14.611
81182SOL    HW145378  13.288  13.578  14.675
81182SOL    HW245379  13.408  13.657  14.627
81183SOL     OW45380   8.553   0.762  14.183
81183SOL    HW145381   8.618   0.728  14.244
81183SOL    HW245382   8.592   0.748  14.096
81184SOL     OW45383   0.139  14.444   0.614
81184SOL    HW145384   0.215  14.410   0.568
81184SOL    HW245385   0.174  14.506   0.678
81185SOL     OW45386   8.706   9.484   7.320
81185SOL    HW145387   8.624   9.479   7.368
81185SOL    HW245388   8.765   9.423   7.365
81186SOL     OW45389   9.312  14.352   1.237
81186SOL    HW145390   9.328  14.267   1.277
81186SOL    HW245391   9.368  14.413   1.285
81187SOL     OW45392   1.321   9.324  12.886
81187SOL    HW145393   1.400   9.278  12.915
81187SOL    HW245394   1.292   9.374  12.963
81188SOL     OW45395   3.214  10.582  11.493
81188SOL    HW145396   3.247  10.550  11.409
81188SOL    HW245397   3.222  10.677  11.487
81189SOL     OW45398  12.539   4.226  10.204
81189SOL    HW145399  12.584   4.160  10.255
81189SOL    HW245400  12.511   4.180  10.125
81190SOL     OW45401  11.875   5.595   7.754
81190SOL    HW145402  11.838   5.679   7.781
81190SOL    HW245403  11.887   5.604   7.659
81191SOL     OW45404   2.452   6.970  10.237
81191SOL    HW145405   2.530   6.969  10.292
81191SOL    HW245406   2.486   6.977  10.147
81192SOL     OW45407   0.167   5.396   5.685
81192SOL    HW145408   0.081   5.405   5.725
81192SOL    HW245409   0.224   5.450   5.740
81193SOL     OW45410  12.961   9.714   7.105
81193SOL    HW145411  12.898   9.645   7.128
81193SOL    HW245412  13.013   9.725   7.184
81194SOL     OW45413   8.889   5.160   7.537
81194SOL    HW145414   8.817   5.224   7.544
81194SOL    HW245415   8.931   5.162   7.623
81195SOL     OW45416   6.549  14.306  13.446
81195SOL    HW145417   6.584  14.222  13.475
81195SOL    HW245418   6.458  14.287  13.424
81196SOL     OW45419  10.756   3.611  13.674
81196SOL    HW145420  10.683   3.567  13.717
81196SOL    HW245421  10.765   3.568  13.590
81197SOL     OW45422   8.843   8.437   3.233
81197SOL    HW145423   8.781   8.365   3.241
81197SOL    HW245424   8.926   8.396   3.211
81198SOL     OW45425   7.764  13.196   8.725
81198SOL    HW145426   7.807  13.178   8.642
81198SOL    HW245427   7.747  13.110   8.763
81199SOL     OW45428  12.418  13.371   4.255
81199SOL    HW145429  12.401  13.375   4.349
81199SOL    HW245430  12.456  13.457   4.234
81200SOL     OW45431  13.347   0.808   6.848
81200SOL    HW145432  13.441   0.800   6.861
81200SOL    HW245433  13.312   0.820   6.937
81201SOL     OW45434   3.210   4.672   8.697
81201SOL    HW145435   3.218   4.668   8.602
81201SOL    HW245436   3.142   4.737   8.713
81202SOL     OW45437   7.851   3.646  12.369
81202SOL    HW145438   7.781   3.612  12.425
81202SOL    HW245439   7.897   3.568  12.339
81203SOL     OW45440  14.200   7.724   8.698
81203SOL    HW145441  14.105   7.739   8.696
81203SOL    HW245442  14.213   7.651   8.637
81204SOL     OW45443   5.737  14.877   3.439
81204SOL    HW145444   5.764   0.078   3.479
81204SOL    HW245445   5.681   0.020   3.366
81205SOL     OW45446   8.263   9.670  10.554
81205SOL    HW145447   8.256   9.688  10.460
81205SOL    HW245448   8.314   9.743  10.589
81206SOL     OW45449   1.725   5.259   6.965
81206SOL    HW145450   1.772   5.180   6.942
81206SOL    HW245451   1.706   5.303   6.882
81207SOL     OW45452   6.405  14.868  12.981
81207SOL    HW145453   6.422   0.076  13.007
81207SOL    HW245454   6.352  14.875  12.902
81208SOL     OW45455   2.233   0.848  14.307
81208SOL    HW145456   2.211   0.924  14.361
81208SOL    HW245457   2.203   0.872  14.219
81209SOL     OW45458   7.542   0.326   5.522
81209SOL    HW145459   7.567   0.234   5.515
81209SOL    HW245460   7.471   0.337   5.459
81210SOL     OW45461   4.290   7.882   4.809
81210SOL    HW145462   4.309   7.840   4.726
81210SOL    HW245463   4.373   7.884   4.855
81211SOL     OW45464   7.980   4.653   0.009
81211SOL    HW145465   8.038   4.674   0.082
81211SOL    HW245466   7.934   4.574   0.036
81212SOL     OW45467   5.075   4.872  10.396
81212SOL    HW145468   4.995   4.899  10.350
81212SOL    HW245469   5.060   4.895  10.487
81213SOL     OW45470   9.478   9.948  12.439
81213SOL    HW145471   9.402  10.000  12.411
81213SOL    HW245472   9.504   9.987  12.523
81214SOL     OW45473  10.941  14.800   1.555
81214SOL    HW145474  10.859  14.846   1.536
81214SOL    HW245475  10.957  14.816   1.648
81215SOL     OW45476   4.143  11.182   3.744
81215SOL    HW145477   4.058  11.145   3.768
81215SOL    HW245478   4.170  11.231   3.822
81216SOL     OW45479  13.556  13.934  10.953
81216SOL    HW145480  13.475  13.901  10.913
81216SOL    HW245481  13.612  13.857  10.959
81217SOL     OW45482   8.626   7.210   7.056
81217SOL    HW145483   8.638   7.117   7.071
81217SOL    HW245484   8.703   7.252   7.096
81218SOL     OW45485   4.448  10.058   6.655
81218SOL    HW145486   4.414  10.092   6.738
81218SOL    HW245487   4.541  10.047   6.670
81219SOL     OW45488   1.047   9.593   4.565
81219SOL    HW145489   1.128   9.559   4.527
81219SOL    HW245490   1.039   9.548   4.649
81220SOL     OW45491   9.491   4.989   1.559
81220SOL    HW145492   9.401   4.981   1.527
81220SOL    HW245493   9.520   5.075   1.530
81221SOL     OW45494   3.874   5.812   2.522
81221SOL    HW145495   3.875   5.759   2.601
81221SOL    HW245496   3.859   5.749   2.451
81222SOL     OW45497   0.424   8.175  12.910
81222SOL    HW145498   0.496   8.213  12.860
81222SOL    HW245499   0.439   8.203  13.000
81223SOL     OW45500   2.437   3.546   4.858
81223SOL    HW145501   2.470   3.603   4.788
81223SOL    HW245502   2.477   3.580   4.938
81224SOL     OW45503   6.443   8.741  11.882
81224SOL    HW145504   6.483   8.798  11.948
81224SOL    HW245505   6.447   8.792  11.801
81225SOL     OW45506  12.950  10.202   5.581
81225SOL    HW145507  12.886  10.270   5.604
81225SOL    HW245508  12.961  10.211   5.486
81226SOL     OW45509   3.885  14.520  13.241
81226SOL    HW145510   3.966  14.476  13.217
81226SOL    HW245511   3.832  14.518  13.162
81227SOL     OW45512   2.061  13.216  11.922
81227SOL    HW145513   2.076  13.174  11.837
81227SOL    HW245514   2.032  13.304  11.900
81228SOL     OW45515  13.581   6.156  11.615
81228SOL    HW145516  13.513   6.187  11.675
81228SOL    HW245517  13.658   6.209  11.634
81229SOL     OW45518   0.293   1.897   9.322
81229SOL    HW145519   0.279   1.992   9.321
81229SOL    HW245520   0.388   1.887   9.335
81230SOL     OW45521   8.232   8.621   6.448
81230SOL    HW145522   8.304   8.684   6.455
81230SOL    HW245523   8.263   8.556   6.385
81231SOL     OW45524  13.603  12.296  13.949
81231SOL    HW145525  13.627  12.382  13.914
81231SOL    HW245526  13.661  12.284  14.024
81232SOL     OW45527   2.519   9.489  10.969
81232SOL    HW145528   2.608   9.495  11.003
81232SOL    HW245529   2.482   9.577  10.982
81233SOL     OW45530   8.600   5.159  11.591
81233SOL    HW145531   8.601   5.254  11.599
81233SOL    HW245532   8.691   5.133  11.602
81234SOL     OW45533   8.564   1.920   6.643
81234SOL    HW145534   8.583   1.905   6.551
81234SOL    HW245535   8.469   1.909   6.650
81235SOL     OW45536   3.758   0.146  11.313
81235SOL    HW145537   3.834   0.135  11.255
81235SOL    HW245538   3.730   0.237  11.299
81236SOL     OW45539   1.032  11.896  12.600
81236SOL    HW145540   1.092  11.866  12.669
81236SOL    HW245541   0.983  11.968  12.641
81237SOL     OW45542   6.047   4.243  13.717
81237SOL    HW145543   6.108   4.194  13.773
81237SOL    HW245544   5.962   4.231  13.759
81238SOL     OW45545  12.500   4.601  13.854
81238SOL    HW145546  12.405   4.615  13.853
81238SOL    HW245547  12.532   4.650  13.779
81239SOL     OW45548   2.060   2.219   7.501
81239SOL    HW145549   2.020   2.150   7.553
81239SOL    HW245550   2.092   2.283   7.565
81240SOL     OW45551  10.593   7.571   2.842
81240SOL    HW145552  10.537   7.641   2.875
81240SOL    HW245553  10.681   7.608   2.841
81241SOL     OW45554   7.572   7.967   5.027
81241SOL    HW145555   7.609   7.968   4.939
81241SOL    HW245556   7.634   8.017   5.079
81242SOL     OW45557   5.373  11.371  13.645
81242SOL    HW145558   5.394  11.459  13.614
81242SOL    HW245559   5.353  11.382  13.738
81243SOL     OW45560  11.090   0.317   4.950
81243SOL    HW145561  11.086   0.226   4.921
81243SOL    HW245562  11.152   0.359   4.890
81244SOL     OW45563   9.945   1.042   2.957
81244SOL    HW145564   9.938   1.010   2.867
81244SOL    HW245565   9.968   1.135   2.947
81245SOL     OW45566   3.769   1.434   0.306
81245SOL    HW145567   3.826   1.371   0.351
81245SOL    HW245568   3.812   1.518   0.317
81246SOL     OW45569   3.188  14.872  12.766
81246SOL    HW145570   3.115   0.051  12.757
81246SOL    HW245571   3.256   0.026  12.709
81247SOL     OW45572   6.737   0.680   5.041
81247SOL    HW145573   6.783   0.636   4.969
81247SOL    HW245574   6.645   0.656   5.028
81248SOL     OW45575   8.578   8.697   0.566
81248SOL    HW145576   8.537   8.677   0.650
81248SOL    HW245577   8.522   8.765   0.528
81249SOL     OW45578   7.939   6.087   9.064
81249SOL    HW145579   7.931   6.109   8.972
81249SOL    HW245580   7.987   6.161   9.102
81250SOL     OW45581   1.276   4.623   2.889
81250SOL    HW145582   1.351   4.570   2.915
81250SOL    HW245583   1.259   4.680   2.964
81251SOL     OW45584  11.587   4.492   1.429
81251SOL    HW145585  11.656   4.485   1.364
81251SOL    HW245586  11.617   4.562   1.488
81252SOL     OW45587   7.129   8.916   6.469
81252SOL    HW145588   7.178   8.866   6.403
81252SOL    HW245589   7.038   8.907   6.442
81253SOL     OW45590   8.124   0.373   6.853
81253SOL    HW145591   8.118   0.448   6.912
81253SOL    HW245592   8.057   0.312   6.886
81254SOL     OW45593  12.909  13.079   7.565
81254SOL    HW145594  12.872  13.164   7.589
81254SOL    HW245595  12.982  13.101   7.506
81255SOL     OW45596  11.141   1.321  13.719
81255SOL    HW145597  11.088   1.249  13.754
81255SOL    HW245598  11.196   1.279  13.653
81256SOL     OW45599   6.634   5.644   2.042
81256SOL    HW145600   6.647   5.559   2.000
81256SOL    HW245601   6.552   5.677   2.007
81257SOL     OW45602   3.213  11.048   9.990
81257SOL    HW145603   3.202  10.964   9.944
81257SOL    HW245604   3.147  11.105   9.951
81258SOL     OW45605   0.518  10.037   3.357
81258SOL    HW145606   0.521  10.050   3.452
81258SOL    HW245607   0.579   9.965   3.341
81259SOL     OW45608  10.382   2.259   6.330
81259SOL    HW145609  10.355   2.199   6.399
81259SOL    HW245610  10.302   2.278   6.281
81260SOL     OW45611  11.997   9.997  12.508
81260SOL    HW145612  12.046   9.925  12.470
81260SOL    HW245613  11.905   9.974  12.496
81261SOL     OW45614  11.851   4.271  10.856
81261SOL    HW145615  11.769   4.296  10.813
81261SOL    HW245616  11.916   4.270  10.785
81262SOL     OW45617  11.303   3.162   4.759
81262SOL    HW145618  11.343   3.196   4.839
81262SOL    HW245619  11.377   3.138   4.703
81263SOL     OW45620   5.147   3.562   8.933
81263SOL    HW145621   5.114   3.519   8.854
81263SOL    HW245622   5.223   3.510   8.959
81264SOL     OW45623  10.254   3.024  12.450
81264SOL    HW145624  10.229   3.024  12.358
81264SOL    HW245625  10.340   3.066  12.452
81265SOL     OW45626  12.244  14.117   9.098
81265SOL    HW145627  12.152  14.129   9.074
81265SOL    HW245628  12.292  14.173   9.037
81266SOL     OW45629   3.980  10.328   2.521
81266SOL    HW145630   4.008  10.407   2.476
81266SOL    HW245631   3.932  10.278   2.455
81267SOL     OW45632  10.364   4.917   9.047
81267SOL    HW145633  10.296   4.981   9.028
81267SOL    HW245634  10.427   4.926   8.975
81268SOL     OW45635  12.902  13.716   2.426
81268SOL    HW145636  12.913  13.779   2.355
81268SOL    HW245637  12.911  13.768   2.506
81269SOL     OW45638  10.280   8.007   6.567
81269SOL    HW145639  10.319   8.073   6.625
81269SOL    HW245640  10.330   7.927   6.585
81270SOL     OW45641   6.886  11.367   9.635
81270SOL    HW145642   6.969  11.322   9.649
81270SOL    HW245643   6.849  11.378   9.723
81271SOL     OW45644  13.771   0.717   1.430
81271SOL    HW145645  13.760   0.626   1.401
81271SOL    HW245646  13.865   0.726   1.446
81272SOL     OW45647   5.340   8.785  12.217
81272SOL    HW145648   5.286   8.803  12.294
81272SOL    HW245649   5.278   8.760  12.149
81273SOL     OW45650   1.537   1.221   4.531
81273SOL    HW145651   1.458   1.192   4.485
81273SOL    HW245652   1.607   1.214   4.466
81274SOL     OW45653  11.069   0.562   6.656
81274SOL    HW145654  11.134   0.599   6.716
81274SOL    HW245655  11.023   0.638   6.621
81275SOL     OW45656   4.954  13.091   5.388
81275SOL    HW145657   4.977  13.008   5.431
81275SOL    HW245658   4.916  13.144   5.458
81276SOL     OW45659  13.875  14.240   9.993
81276SOL    HW145660  13.805  14.305   9.994
81276SOL    HW245661  13.838  14.164  10.038
81277SOL     OW45662   5.712   6.153  10.653
81277SOL    HW145663   5.786   6.094  10.636
81277SOL    HW245664   5.686   6.134  10.743
81278SOL     OW45665   8.518  10.971  13.168
81278SOL    HW145666   8.488  10.977  13.259
81278SOL    HW245667   8.439  10.990  13.116
81279SOL     OW45668   3.918   7.184   5.327
81279SOL    HW145669   3.899   7.240   5.403
81279SOL    HW245670   4.012   7.194   5.314
81280SOL     OW45671   4.580  11.884   9.030
81280SOL    HW145672   4.578  11.868   9.124
81280SOL    HW245673   4.612  11.803   8.991
81281SOL     OW45674   6.917   1.792   5.458
81281SOL    HW145675   6.991   1.742   5.492
81281SOL    HW245676   6.942   1.814   5.368
81282SOL     OW45677   4.145   4.323  10.153
81282SOL    HW145678   4.169   4.235  10.126
81282SOL    HW245679   4.080   4.351  10.088
81283SOL     OW45680  11.440   3.309   8.192
81283SOL    HW145681  11.377   3.374   8.161
81283SOL    HW245682  11.522   3.357   8.200
81284SOL     OW45683   8.284   3.466  14.754
81284SOL    HW145684   8.348   3.520  14.800
81284SOL    HW245685   8.325   3.379  14.749
81285SOL     OW45686   7.617   7.525   3.740
81285SOL    HW145687   7.645   7.584   3.810
81285SOL    HW245688   7.524   7.511   3.755
81286SOL     OW45689   3.157   8.165   6.710
81286SOL    HW145690   3.139   8.188   6.619
81286SOL    HW245691   3.097   8.093   6.729
81287SOL     OW45692  12.573  12.782  13.082
81287SOL    HW145693  12.666  12.763  13.070
81287SOL    HW245694  12.529  12.727  13.016
81288SOL     OW45695  14.685   2.163   5.756
81288SOL    HW145696  14.763   2.182   5.704
81288SOL    HW245697  14.711   2.090   5.812
81289SOL     OW45698   7.765  12.707  10.914
81289SOL    HW145699   7.751  12.640  10.847
81289SOL    HW245700   7.793  12.658  10.992
81290SOL     OW45701   8.083   5.479  14.592
81290SOL    HW145702   8.106   5.407  14.652
81290SOL    HW245703   8.167   5.518  14.569
81291SOL     OW45704   9.128   6.946   7.653
81291SOL    HW145705   9.084   6.867   7.621
81291SOL    HW245706   9.058   6.999   7.691
81292SOL     OW45707   8.724   6.194   5.671
81292SOL    HW145708   8.811   6.161   5.649
81292SOL    HW245709   8.716   6.275   5.622
81293SOL     OW45710   6.761   7.811  12.074
81293SOL    HW145711   6.738   7.867  12.149
81293SOL    HW245712   6.801   7.734  12.113
81294SOL     OW45713   2.314   5.933   4.202
81294SOL    HW145714   2.311   5.897   4.113
81294SOL    HW245715   2.236   5.898   4.245
81295SOL     OW45716  12.011   6.693   0.823
81295SOL    HW145717  12.073   6.721   0.890
81295SOL    HW245718  11.941   6.758   0.825
81296SOL     OW45719   5.039  13.588  12.954
81296SOL    HW145720   5.118  13.582  12.901
81296SOL    HW245721   5.043  13.511  13.012
81297SOL     OW45722   8.861  12.523  14.244
81297SOL    HW145723   8.826  12.577  14.315
81297SOL    HW245724   8.832  12.435  14.265
81298SOL     OW45725   6.650   6.409   9.162
81298SOL    HW145726   6.735   6.365   9.158
81298SOL    HW245727   6.608   6.387   9.079
81299SOL     OW45728   3.023  10.982   6.676
81299SOL    HW145729   3.106  10.940   6.652
81299SOL    HW245730   2.977  10.916   6.729
81300SOL     OW45731  12.831   3.426   6.707
81300SOL    HW145732  12.736   3.430   6.690
81300SOL    HW245733  12.853   3.334   6.698
81301SOL     OW45734  13.602   3.635  10.270
81301SOL    HW145735  13.558   3.705  10.318
81301SOL    HW245736  13.535   3.604  10.208
81302SOL     OW45737  14.476  12.220   4.965
81302SOL    HW145738  14.386  12.191   4.954
81302SOL    HW245739  14.473  12.281   5.039
81303SOL     OW45740   2.765   2.562   5.919
81303SOL    HW145741   2.850   2.526   5.894
81303SOL    HW245742   2.782   2.655   5.934
81304SOL     OW45743  13.375   7.255  10.602
81304SOL    HW145744  13.466   7.286  10.601
81304SOL    HW245745  13.381   7.161  10.619
81305SOL     OW45746   4.435   8.086  11.344
81305SOL    HW145747   4.400   8.163  11.390
81305SOL    HW245748   4.370   8.018  11.359
81306SOL     OW45749  14.213  14.135   4.177
81306SOL    HW145750  14.266  14.069   4.132
81306SOL    HW245751  14.190  14.198   4.109
81307SOL     OW45752   8.387   7.437  13.372
81307SOL    HW145753   8.459   7.499  13.378
81307SOL    HW245754   8.316   7.478  13.422
81308SOL     OW45755   3.890  12.280  13.648
81308SOL    HW145756   3.980  12.276  13.681
81308SOL    HW245757   3.862  12.189  13.640
81309SOL     OW45758   5.805  12.442   4.057
81309SOL    HW145759   5.831  12.515   4.113
81309SOL    HW245760   5.864  12.371   4.081
81310SOL     OW45761  12.872   1.561   8.233
81310SOL    HW145762  12.859   1.643   8.280
81310SOL    HW245763  12.852   1.493   8.297
81311SOL     OW45764   7.853   0.613   6.679
81311SOL    HW145765   7.779   0.666   6.709
81311SOL    HW245766   7.827   0.523   6.697
81312SOL     OW45767  14.688   0.588   6.686
81312SOL    HW145768  14.626   0.615   6.618
81312SOL    HW245769  14.668   0.496   6.702
81313SOL     OW45770   7.043   4.864   0.005
81313SOL    HW145771   7.097   4.793   0.041
81313SOL    HW245772   7.102   4.939  14.882
81314SOL     OW45773   5.805   7.108  13.248
81314SOL    HW145774   5.807   7.133  13.341
81314SOL    HW245775   5.716   7.130  13.220
81315SOL     OW45776   2.139   5.372   9.528
81315SOL    HW145777   2.090   5.454   9.523
81315SOL    HW245778   2.229   5.397   9.507
81316SOL     OW45779   1.936   1.701   3.568
81316SOL    HW145780   1.904   1.742   3.648
81316SOL    HW245781   1.977   1.773   3.519
81317SOL     OW45782   4.682   1.677   3.709
81317SOL    HW145783   4.594   1.642   3.713
81317SOL    HW245784   4.696   1.717   3.795
81318SOL     OW45785   9.705   0.240   0.337
81318SOL    HW145786   9.691   0.224   0.243
81318SOL    HW245787   9.617   0.257   0.371
81319SOL     OW45788   5.530  14.683   7.711
81319SOL    HW145789   5.622  14.654   7.714
81319SOL    HW245790   5.488  14.637   7.783
81320SOL     OW45791  11.914   4.057   6.792
81320SOL    HW145792  11.978   4.008   6.740
81320SOL    HW245793  11.861   4.102   6.727
81321SOL     OW45794   1.541  14.193   8.610
81321SOL    HW145795   1.457  14.235   8.590
81321SOL    HW245796   1.606  14.243   8.561
81322SOL     OW45797  13.634   9.873   5.811
81322SOL    HW145798  13.651   9.965   5.792
81322SOL    HW245799  13.642   9.866   5.907
81323SOL     OW45800  10.009   7.775   5.891
81323SOL    HW145801  10.009   7.695   5.943
81323SOL    HW245802  10.069   7.834   5.936
81324SOL     OW45803  13.246   9.540   8.520
81324SOL    HW145804  13.226   9.595   8.444
81324SOL    HW245805  13.226   9.594   8.596
81325SOL     OW45806  12.236   2.620  14.372
81325SOL    HW145807  12.311   2.602  14.315
81325SOL    HW245808  12.191   2.536  14.379
81326SOL     OW45809   6.698   0.434  14.656
81326SOL    HW145810   6.781   0.387  14.660
81326SOL    HW245811   6.721   0.521  14.623
81327SOL     OW45812   1.061   1.882  12.731
81327SOL    HW145813   1.065   1.854  12.639
81327SOL    HW245814   1.108   1.814  12.779
81328SOL     OW45815   2.698  10.705   2.532
81328SOL    HW145816   2.766  10.772   2.522
81328SOL    HW245817   2.638  10.722   2.459
81329SOL     OW45818   7.732   1.692   6.689
81329SOL    HW145819   7.758   1.784   6.697
81329SOL    HW245820   7.761   1.652   6.770
81330SOL     OW45821   5.856  14.685   4.399
81330SOL    HW145822   5.845  14.659   4.491
81330SOL    HW245823   5.770  14.675   4.360
81331SOL     OW45824   7.710   5.257   6.595
81331SOL    HW145825   7.715   5.313   6.517
81331SOL    HW245826   7.671   5.176   6.563
81332SOL     OW45827   4.220   4.638   9.669
81332SOL    HW145828   4.186   4.548   9.668
81332SOL    HW245829   4.286   4.638   9.738
81333SOL     OW45830  13.122   9.785   7.341
81333SOL    HW145831  13.064   9.747   7.406
81333SOL    HW245832  13.199   9.814   7.391
81334SOL     OW45833   1.431   4.605   2.651
81334SOL    HW145834   1.518   4.586   2.686
81334SOL    HW245835   1.375   4.612   2.729
81335SOL     OW45836   2.765   2.829  11.433
81335SOL    HW145837   2.672   2.850  11.433
81335SOL    HW245838   2.807   2.905  11.474
81336SOL     OW45839   3.595   8.628  12.928
81336SOL    HW145840   3.655   8.599  12.997
81336SOL    HW245841   3.569   8.547  12.885
81337SOL     OW45842   0.455   0.223  11.612
81337SOL    HW145843   0.376   0.264  11.647
81337SOL    HW245844   0.527   0.271  11.653
81338SOL     OW45845  13.197   6.557  14.773
81338SOL    HW145846  13.169   6.473  14.810
81338SOL    HW245847  13.218   6.611  14.848
81339SOL     OW45848   4.114   5.150   5.689
81339SOL    HW145849   4.204   5.147   5.658
81339SOL    HW245850   4.110   5.227   5.745
81340SOL     OW45851  13.871   2.561  14.519
81340SOL    HW145852  13.850   2.468  14.511
81340SOL    HW245853  13.887   2.574  14.613
81341SOL     OW45854   7.419   3.441  10.374
81341SOL    HW145855   7.394   3.523  10.415
81341SOL    HW245856   7.337   3.397  10.355
81342SOL     OW45857  11.153   6.451   4.606
81342SOL    HW145858  11.077   6.435   4.551
81342SOL    HW245859  11.154   6.546   4.618
81343SOL     OW45860   8.139   2.135   8.943
81343SOL    HW145861   8.055   2.173   8.969
81343SOL    HW245862   8.155   2.066   9.007
81344SOL     OW45863   0.074  10.997   4.333
81344SOL    HW145864   0.029  10.917   4.360
81344SOL    HW245865   0.005  11.052   4.297
81345SOL     OW45866   7.313  13.466  11.116
81345SOL    HW145867   7.381  13.505  11.171
81345SOL    HW245868   7.288  13.536  11.056
81346SOL     OW45869  12.396   4.205  12.652
81346SOL    HW145870  12.491   4.190  12.652
81346SOL    HW245871  12.379   4.249  12.735
81347SOL     OW45872   8.437  12.560  10.452
81347SOL    HW145873   8.424  12.543  10.545
81347SOL    HW245874   8.525  12.529  10.434
81348SOL     OW45875   3.753  10.081   5.222
81348SOL    HW145876   3.830  10.080   5.164
81348SOL    HW245877   3.759  10.000   5.272
81349SOL     OW45878   6.428  13.829   7.337
81349SOL    HW145879   6.391  13.764   7.277
81349SOL    HW245880   6.504  13.864   7.291
81350SOL     OW45881  13.446   5.785   6.217
81350SOL    HW145882  13.370   5.808   6.163
81350SOL    HW245883  13.430   5.695   6.244
81351SOL     OW45884   3.121   9.334   6.431
81351SOL    HW145885   3.110   9.244   6.401
81351SOL    HW245886   3.204   9.362   6.391
81352SOL     OW45887  13.652  14.164   8.413
81352SOL    HW145888  13.601  14.216   8.352
81352SOL    HW245889  13.661  14.219   8.491
81353SOL     OW45890   5.854   8.914   1.458
81353SOL    HW145891   5.936   8.958   1.438
81353SOL    HW245892   5.826   8.951   1.541
81354SOL     OW45893   0.610  11.864   1.489
81354SOL    HW145894   0.676  11.812   1.443
81354SOL    HW245895   0.647  11.952   1.491
81355SOL     OW45896   4.183  11.338   1.016
81355SOL    HW145897   4.222  11.340   1.103
81355SOL    HW245898   4.089  11.337   1.032
81356SOL     OW45899  12.029   2.341  14.207
81356SOL    HW145900  12.020   2.311  14.117
81356SOL    HW245901  11.940   2.336  14.243
81357SOL     OW45902  11.319  12.888   5.419
81357SOL    HW145903  11.382  12.845   5.477
81357SOL    HW245904  11.285  12.818   5.363
81358SOL     OW45905  12.129   8.892  14.137
81358SOL    HW145906  12.179   8.814  14.160
81358SOL    HW245907  12.041   8.859  14.118
81359SOL     OW45908   9.714  11.192   2.475
81359SOL    HW145909   9.805  11.198   2.504
81359SOL    HW245910   9.702  11.269   2.419
81360SOL     OW45911   4.732  10.079   6.619
81360SOL    HW145912   4.791  10.129   6.675
81360SOL    HW245913   4.784  10.004   6.590
81361SOL     OW45914   6.583  11.197   0.378
81361SOL    HW145915   6.504  11.151   0.349
81361SOL    HW245916   6.643  11.190   0.303
81362SOL     OW45917   4.815   9.703   4.021
81362SOL    HW145918   4.813   9.631   3.959
81362SOL    HW245919   4.874   9.674   4.090
81363SOL     OW45920   0.441  12.868  14.243
81363SOL    HW145921   0.419  12.844  14.333
81363SOL    HW245922   0.511  12.933  14.252
81364SOL     OW45923  12.292   2.652   1.462
81364SOL    HW145924  12.281   2.558   1.443
81364SOL    HW245925  12.312   2.692   1.378
81365SOL     OW45926  13.647  13.161   1.747
81365SOL    HW145927  13.666  13.241   1.698
81365SOL    HW245928  13.681  13.178   1.835
81366SOL     OW45929  14.557   7.005   9.464
81366SOL    HW145930  14.633   7.012   9.406
81366SOL    HW245931  14.531   6.913   9.458
81367SOL     OW45932   1.678   4.071   2.594
81367SOL    HW145933   1.604   4.132   2.588
81367SOL    HW245934   1.689   4.057   2.689
81368SOL     OW45935   0.077   3.312   7.675
81368SOL    HW145936   0.074   3.375   7.747
81368SOL    HW245937  14.878   3.329   7.626
81369SOL     OW45938   3.839   2.303   5.278
81369SOL    HW145939   3.777   2.292   5.350
81369SOL    HW245940   3.839   2.218   5.233
81370SOL     OW45941   6.821   6.902  12.692
81370SOL    HW145942   6.851   6.856  12.614
81370SOL    HW245943   6.730   6.924  12.673
81371SOL     OW45944   2.566   8.631   6.406
81371SOL    HW145945   2.614   8.552   6.383
81371SOL    HW245946   2.581   8.691   6.333
81372SOL     OW45947   0.095  14.873  10.975
81372SOL    HW145948   0.065  14.842  10.890
81372SOL    HW245949   0.188   0.008  10.964
81373SOL     OW45950  12.517   7.289   3.909
81373SOL    HW145951  12.456   7.299   3.982
81373SOL    HW245952  12.574   7.365   3.914
81374SOL     OW45953   3.065   8.799  10.677
81374SOL    HW145954   3.055   8.854  10.599
81374SOL    HW245955   3.128   8.732  10.650
81375SOL     OW45956   3.208   6.588   9.168
81375SOL    HW145957   3.225   6.649   9.097
81375SOL    HW245958   3.142   6.527   9.133
81376SOL     OW45959  14.096   6.580   5.065
81376SOL    HW145960  14.190   6.565   5.068
81376SOL    HW245961  14.060   6.498   5.031
81377SOL     OW45962   2.433   4.742  13.753
81377SOL    HW145963   2.425   4.649  13.774
81377SOL    HW245964   2.377   4.786  13.817
81378SOL     OW45965   2.439  12.672   0.193
81378SOL    HW145966   2.478  12.649   0.109
81378SOL    HW245967   2.390  12.594   0.219
81379SOL     OW45968   1.511  10.877   3.174
81379SOL    HW145969   1.426  10.918   3.161
81379SOL    HW245970   1.574  10.937   3.133
81380SOL     OW45971   6.369   9.736   6.771
81380SOL    HW145972   6.363   9.647   6.807
81380SOL    HW245973   6.431   9.781   6.829
81381SOL     OW45974   4.406   0.348  12.782
81381SOL    HW145975   4.437   0.308  12.701
81381SOL    HW245976   4.460   0.427  12.792
81382SOL     OW45977  12.768   7.214   3.693
81382SOL    HW145978  12.834   7.183   3.755
81382SOL    HW245979  12.709   7.268   3.746
81383SOL     OW45980   2.161  13.380   6.547
81383SOL    HW145981   2.125  13.318   6.610
81383SOL    HW245982   2.254  13.386   6.571
81384SOL     OW45983   5.796   1.184   9.373
81384SOL    HW145984   5.848   1.263   9.358
81384SOL    HW245985   5.828   1.150   9.456
81385SOL     OW45986  11.597  12.391   8.974
81385SOL    HW145987  11.599  12.475   8.927
81385SOL    HW245988  11.549  12.332   8.916
81386SOL     OW45989   7.390   2.760   1.509
81386SOL    HW145990   7.432   2.729   1.429
81386SOL    HW245991   7.303   2.719   1.509
81387SOL     OW45992   1.444   7.811  14.433
81387SOL    HW145993   1.371   7.855  14.390
81387SOL    HW245994   1.499   7.780  14.361
81388SOL     OW45995   2.412  11.161  11.887
81388SOL    HW145996   2.469  11.087  11.866
81388SOL    HW245997   2.460  11.238  11.858
81389SOL     OW45998  12.586  12.495   0.117
81389SOL    HW145999  12.640  12.569   0.143
81389SOL    HW246000  12.525  12.483   0.189
81390SOL     OW46001  12.359   7.455   0.060
81390SOL    HW146002  12.276   7.502   0.055
81390SOL    HW246003  12.344   7.374   0.012
81391SOL     OW46004   7.555   1.443   4.738
81391SOL    HW146005   7.460   1.429   4.734
81391SOL    HW246006   7.585   1.385   4.808
81392SOL     OW46007   4.214   6.263  12.649
81392SOL    HW146008   4.222   6.217  12.565
81392SOL    HW246009   4.293   6.239  12.697
81393SOL     OW46010   0.775   6.799  13.839
81393SOL    HW146011   0.820   6.760  13.765
81393SOL    HW246012   0.773   6.730  13.905
81394SOL     OW46013  14.124   7.708  10.465
81394SOL    HW146014  14.135   7.634  10.526
81394SOL    HW246015  14.113   7.667  10.380
81395SOL     OW46016   1.474  11.269   2.869
81395SOL    HW146017   1.491  11.361   2.892
81395SOL    HW246018   1.517  11.257   2.785
81396SOL     OW46019  11.480   8.112   3.801
81396SOL    HW146020  11.401   8.126   3.749
81396SOL    HW246021  11.544   8.173   3.764
81397SOL     OW46022   7.955   2.457   2.402
81397SOL    HW146023   7.995   2.422   2.323
81397SOL    HW246024   8.029   2.493   2.452
81398SOL     OW46025   0.633   4.285  12.941
81398SOL    HW146026   0.576   4.222  12.985
81398SOL    HW246027   0.658   4.242  12.859
81399SOL     OW46028   0.035   8.859   4.154
81399SOL    HW146029   0.124   8.870   4.120
81399SOL    HW246030   0.038   8.774   4.199
81400SOL     OW46031  10.725  13.368   6.996
81400SOL    HW146032  10.802  13.402   7.042
81400SOL    HW246033  10.690  13.444   6.948
81401SOL     OW46034   2.884  10.451   5.916
81401SOL    HW146035   2.875  10.356   5.909
81401SOL    HW246036   2.921  10.477   5.832
81402SOL     OW46037   6.289   6.000   3.759
81402SOL    HW146038   6.290   5.986   3.854
81402SOL    HW246039   6.378   6.029   3.739
81403SOL     OW46040   6.744   9.852  13.990
81403SOL    HW146041   6.711   9.941  13.978
81403SOL    HW246042   6.834   9.854  13.959
81404SOL     OW46043   1.776  11.397   5.110
81404SOL    HW146044   1.706  11.444   5.065
81404SOL    HW246045   1.856  11.424   5.064
81405SOL     OW46046   6.909   5.140   5.352
81405SOL    HW146047   6.945   5.210   5.406
81405SOL    HW246048   6.814   5.147   5.363
81406SOL     OW46049   0.447   6.220   3.742
81406SOL    HW146050   0.533   6.216   3.784
81406SOL    HW246051   0.464   6.201   3.650
81407SOL     OW46052   7.845   9.445  10.810
81407SOL    HW146053   7.879   9.390  10.880
81407SOL    HW246054   7.836   9.532  10.849
81408SOL     OW46055  14.100   7.198   8.464
81408SOL    HW146056  14.061   7.121   8.423
81408SOL    HW246057  14.025   7.253   8.487
81409SOL     OW46058   9.160   1.458   8.353
81409SOL    HW146059   9.198   1.490   8.435
81409SOL    HW246060   9.201   1.512   8.286
81410SOL     OW46061   2.526  12.844  10.037
81410SOL    HW146062   2.437  12.867  10.011
81410SOL    HW246063   2.517  12.757  10.077
81411SOL     OW46064  11.557   6.429   6.780
81411SOL    HW146065  11.513   6.463   6.859
81411SOL    HW246066  11.486   6.401   6.723
81412SOL     OW46067  14.827  10.260   4.212
81412SOL    HW146068   0.009  10.189   4.223
81412SOL    HW246069  14.840  10.316   4.288
81413SOL     OW46070   7.430   1.044   5.757
81413SOL    HW146071   7.445   0.972   5.817
81413SOL    HW246072   7.334   1.047   5.746
81414SOL     OW46073   5.601   5.122   6.991
81414SOL    HW146074   5.691   5.153   6.988
81414SOL    HW246075   5.573   5.117   6.900
81415SOL     OW46076   9.414  11.337   6.215
81415SOL    HW146077   9.455  11.297   6.291
81415SOL    HW246078   9.374  11.418   6.249
81416SOL     OW46079   9.980   8.999  11.584
81416SOL    HW146080   9.925   9.077  11.579
81416SOL    HW246081   9.955   8.958  11.666
81417SOL     OW46082  12.865   7.322   0.624
81417SOL    HW146083  12.826   7.405   0.653
81417SOL    HW246084  12.807   7.255   0.659
81418SOL     OW46085   5.186   4.283   5.719
81418SOL    HW146086   5.212   4.373   5.742
81418SOL    HW246087   5.100   4.293   5.678
81419SOL     OW46088  12.069   7.641   7.000
81419SOL    HW146089  12.023   7.557   6.993
81419SOL    HW246090  12.015   7.692   7.060
81420SOL     OW46091   9.768   1.419   9.188
81420SOL    HW146092   9.848   1.365   9.184
81420SOL    HW246093   9.749   1.439   9.097
81421SOL     OW46094  10.694   8.728   1.525
81421SOL    HW146095  10.699   8.779   1.444
81421SOL    HW246096  10.756   8.771   1.584
81422SOL     OW46097   6.981  11.715   0.353
81422SOL    HW146098   7.048  11.665   0.400
81422SOL    HW246099   6.913  11.650   0.333
81423SOL     OW46100   7.993   1.423   8.178
81423SOL    HW146101   7.958   1.368   8.248
81423SOL    HW246102   7.983   1.513   8.211
81424SOL     OW46103   3.640   4.391   7.045
81424SOL    HW146104   3.577   4.371   6.976
81424SOL    HW246105   3.644   4.311   7.098
81425SOL     OW46106   1.809  13.938  12.846
81425SOL    HW146107   1.816  13.858  12.794
81425SOL    HW246108   1.897  13.952  12.881
81426SOL     OW46109   7.973   7.601   6.102
81426SOL    HW146110   7.973   7.633   6.012
81426SOL    HW246111   7.900   7.647   6.144
81427SOL     OW46112  12.067   9.950   5.758
81427SOL    HW146113  12.121  10.013   5.806
81427SOL    HW246114  12.060   9.986   5.670
81428SOL     OW46115   0.545   6.926   5.293
81428SOL    HW146116   0.514   7.013   5.319
81428SOL    HW246117   0.534   6.924   5.197
81429SOL     OW46118   2.293   2.401  10.566
81429SOL    HW146119   2.380   2.381  10.532
81429SOL    HW246120   2.243   2.320  10.555
81430SOL     OW46121   9.220   9.153  14.843
81430SOL    HW146122   9.248   9.173  14.754
81430SOL    HW246123   9.211   9.239   0.003
81431SOL     OW46124   2.053   4.007   4.599
81431SOL    HW146125   2.045   4.102   4.609
81431SOL    HW246126   1.963   3.975   4.607
81432SOL     OW46127   8.917   9.522  12.463
81432SOL    HW146128   8.943   9.515  12.371
81432SOL    HW246129   9.000   9.526  12.511
81433SOL     OW46130  13.678   4.307   2.310
81433SOL    HW146131  13.675   4.212   2.305
81433SOL    HW246132  13.587   4.335   2.301
81434SOL     OW46133   9.955   1.458   5.766
81434SOL    HW146134   9.898   1.382   5.769
81434SOL    HW246135  10.044   1.422   5.763
81435SOL     OW46136   9.065   7.520   8.667
81435SOL    HW146137   8.997   7.454   8.683
81435SOL    HW246138   9.095   7.546   8.754
81436SOL     OW46139   3.120   8.024   3.369
81436SOL    HW146140   3.112   8.032   3.274
81436SOL    HW246141   3.066   7.948   3.391
81437SOL     OW46142  13.997  14.253   3.716
81437SOL    HW146143  13.976  14.198   3.791
81437SOL    HW246144  13.936  14.326   3.722
81438SOL     OW46145   1.511  11.553  11.114
81438SOL    HW146146   1.451  11.499  11.064
81438SOL    HW246147   1.511  11.637  11.069
81439SOL     OW46148   4.052   7.906   7.753
81439SOL    HW146149   4.139   7.911   7.794
81439SOL    HW246150   4.021   7.996   7.752
81440SOL     OW46151  12.766   1.697   0.626
81440SOL    HW146152  12.729   1.784   0.645
81440SOL    HW246153  12.847   1.694   0.677
81441SOL     OW46154   8.491   3.275   8.742
81441SOL    HW146155   8.438   3.303   8.817
81441SOL    HW246156   8.428   3.240   8.679
81442SOL     OW46157   3.042  14.667   4.411
81442SOL    HW146158   3.045  14.763   4.419
81442SOL    HW246159   2.968  14.651   4.354
81443SOL     OW46160  13.957   7.804   1.118
81443SOL    HW146161  13.979   7.896   1.131
81443SOL    HW246162  13.889   7.786   1.183
81444SOL     OW46163   5.535  12.110   8.926
81444SOL    HW146164   5.617  12.148   8.955
81444SOL    HW246165   5.468  12.153   8.980
81445SOL     OW46166   2.953  10.089  10.687
81445SOL    HW146167   3.002  10.158  10.643
81445SOL    HW246168   2.903  10.134  10.755
81446SOL     OW46169  10.295   5.180  12.914
81446SOL    HW146170  10.312   5.194  13.007
81446SOL    HW246171  10.351   5.244  12.869
81447SOL     OW46172   5.122   6.459  11.931
81447SOL    HW146173   5.030   6.464  11.957
81447SOL    HW246174   5.154   6.549  11.938
81448SOL     OW46175  11.704   8.782   0.350
81448SOL    HW146176  11.681   8.803   0.259
81448SOL    HW246177  11.716   8.687   0.350
81449SOL     OW46178   5.965   0.617   8.453
81449SOL    HW146179   5.890   0.674   8.469
81449SOL    HW246180   6.021   0.668   8.394
81450SOL     OW46181   0.432   5.994  13.588
81450SOL    HW146182   0.347   6.034  13.569
81450SOL    HW246183   0.457   6.033  13.672
81451SOL     OW46184   9.446   0.901   7.677
81451SOL    HW146185   9.394   0.956   7.735
81451SOL    HW246186   9.383   0.842   7.636
81452SOL     OW46187   9.915   7.973   2.846
81452SOL    HW146188   9.930   8.039   2.914
81452SOL    HW246189   9.983   7.990   2.780
81453SOL     OW46190   2.046   0.502  13.673
81453SOL    HW146191   2.028   0.443  13.747
81453SOL    HW246192   2.140   0.519  13.678
81454SOL     OW46193   7.950   8.533  11.468
81454SOL    HW146194   7.994   8.500  11.389
81454SOL    HW246195   8.013   8.516  11.538
81455SOL     OW46196   0.465  13.236   8.574
81455SOL    HW146197   0.413  13.310   8.543
81455SOL    HW246198   0.452  13.236   8.669
81456SOL     OW46199   7.039   5.886   9.688
81456SOL    HW146200   7.088   5.814   9.650
81456SOL    HW246201   7.024   5.946   9.615
81457SOL     OW46202  13.139  12.387   6.883
81457SOL    HW146203  13.051  12.421   6.863
81457SOL    HW246204  13.157  12.326   6.812
81458SOL     OW46205   5.996  10.547   4.686
81458SOL    HW146206   5.917  10.494   4.680
81458SOL    HW246207   6.068  10.486   4.668
81459SOL     OW46208  12.734   1.587   8.580
81459SOL    HW146209  12.750   1.529   8.654
81459SOL    HW246210  12.669   1.542   8.527
81460SOL     OW46211   9.143   5.984  13.490
81460SOL    HW146212   9.229   6.026  13.495
81460SOL    HW246213   9.131   5.944  13.575
81461SOL     OW46214  11.862  12.322   8.773
81461SOL    HW146215  11.837  12.381   8.702
81461SOL    HW246216  11.933  12.369   8.818
81462SOL     OW46217   8.215   9.290   4.549
81462SOL    HW146218   8.251   9.240   4.476
81462SOL    HW246219   8.123   9.303   4.525
81463SOL     OW46220   1.279  11.821   2.777
81463SOL    HW146221   1.350  11.850   2.719
81463SOL    HW246222   1.320  11.816   2.863
81464SOL     OW46223   8.866  10.843  10.566
81464SOL    HW146224   8.937  10.906  10.577
81464SOL    HW246225   8.815  10.850  10.647
81465SOL     OW46226  10.882   8.319  11.157
81465SOL    HW146227  10.961   8.348  11.110
81465SOL    HW246228  10.869   8.229  11.129
81466SOL     OW46229   8.176   4.495  12.523
81466SOL    HW146230   8.099   4.538  12.486
81466SOL    HW246231   8.170   4.405  12.490
81467SOL     OW46232   5.876  13.481  14.561
81467SOL    HW146233   5.910  13.394  14.581
81467SOL    HW246234   5.922  13.539  14.621
81468SOL     OW46235   2.383   9.287   8.187
81468SOL    HW146236   2.332   9.313   8.263
81468SOL    HW246237   2.318   9.271   8.118
81469SOL     OW46238   9.680  10.227   6.960
81469SOL    HW146239   9.604  10.285   6.953
81469SOL    HW246240   9.703  10.207   6.869
81470SOL     OW46241   1.543  14.129   9.962
81470SOL    HW146242   1.634  14.154   9.944
81470SOL    HW246243   1.495  14.156   9.884
81471SOL     OW46244   2.048   8.294  13.867
81471SOL    HW146245   2.108   8.246  13.923
81471SOL    HW246246   2.047   8.383  13.904
81472SOL     OW46247   3.372   1.729   9.337
81472SOL    HW146248   3.455   1.731   9.288
81472SOL    HW246249   3.319   1.798   9.298
81473SOL     OW46250   5.742   1.723  13.551
81473SOL    HW146251   5.706   1.810  13.533
81473SOL    HW246252   5.831   1.726  13.516
81474SOL     OW46253  11.593  11.884   1.772
81474SOL    HW146254  11.630  11.890   1.684
81474SOL    HW246255  11.499  11.873   1.757
81475SOL     OW46256  11.709  10.789   9.613
81475SOL    HW146257  11.666  10.874   9.605
81475SOL    HW246258  11.763  10.781   9.535
81476SOL     OW46259  13.224   7.247  12.003
81476SOL    HW146260  13.157   7.268  11.938
81476SOL    HW246261  13.230   7.326  12.057
81477SOL     OW46262   8.929   1.277  14.082
81477SOL    HW146263   8.976   1.342  14.133
81477SOL    HW246264   8.902   1.323  14.002
81478SOL     OW46265   2.518   2.077  10.309
81478SOL    HW146266   2.598   2.028  10.292
81478SOL    HW246267   2.460   2.054  10.237
81479SOL     OW46268  10.250  13.681  11.761
81479SOL    HW146269  10.318  13.671  11.695
81479SOL    HW246270  10.170  13.649  11.720
81480SOL     OW46271   1.350  12.081  11.553
81480SOL    HW146272   1.396  12.150  11.506
81480SOL    HW246273   1.408  12.005  11.545
81481SOL     OW46274   2.345  14.572   6.165
81481SOL    HW146275   2.300  14.520   6.231
81481SOL    HW246276   2.300  14.657   6.165
81482SOL     OW46277   6.962  12.385   9.514
81482SOL    HW146278   7.041  12.397   9.568
81482SOL    HW246279   6.916  12.312   9.555
81483SOL     OW46280   9.084   8.515   7.063
81483SOL    HW146281   9.030   8.594   7.062
81483SOL    HW246282   9.057   8.466   6.985
81484SOL     OW46283   4.523   8.853  14.465
81484SOL    HW146284   4.502   8.759  14.464
81484SOL    HW246285   4.468   8.891  14.396
81485SOL     OW46286  12.656  13.653  13.655
81485SOL    HW146287  12.578  13.696  13.618
81485SOL    HW246288  12.729  13.704  13.622
81486SOL     OW46289   5.417   3.077  14.799
81486SOL    HW146290   5.419   3.172  14.784
81486SOL    HW246291   5.325   3.054  14.795
81487SOL     OW46292   5.553   5.725   3.842
81487SOL    HW146293   5.587   5.786   3.908
81487SOL    HW246294   5.615   5.652   3.843
81488SOL     OW46295   4.378  13.860   9.427
81488SOL    HW146296   4.331  13.846   9.509
81488SOL    HW246297   4.371  13.777   9.381
81489SOL     OW46298   9.062   2.618   4.390
81489SOL    HW146299   8.983   2.669   4.405
81489SOL    HW246300   9.128   2.682   4.363
81490SOL     OW46301   0.653  13.780   6.085
81490SOL    HW146302   0.565  13.744   6.086
81490SOL    HW246303   0.642  13.873   6.107
81491SOL     OW46304   9.028  14.622  14.399
81491SOL    HW146305   8.937  14.603  14.377
81491SOL    HW246306   9.031  14.718  14.406
81492SOL     OW46307   2.772   3.694  10.208
81492SOL    HW146308   2.676   3.692  10.205
81492SOL    HW246309   2.792   3.683  10.301
81493SOL     OW46310   3.390  10.533   6.130
81493SOL    HW146311   3.430  10.598   6.189
81493SOL    HW246312   3.320  10.494   6.182
81494SOL     OW46313  11.016   8.949   6.143
81494SOL    HW146314  11.085   8.950   6.209
81494SOL    HW246315  10.945   8.900   6.184
81495SOL     OW46316   8.737  11.330  13.408
81495SOL    HW146317   8.706  11.274  13.337
81495SOL    HW246318   8.668  11.327  13.474
81496SOL     OW46319   9.159  13.399   0.214
81496SOL    HW146320   9.105  13.327   0.180
81496SOL    HW246321   9.187  13.446   0.136
81497SOL     OW46322   2.815   8.871   0.308
81497SOL    HW146323   2.872   8.947   0.319
81497SOL    HW246324   2.841   8.833   0.224
81498SOL     OW46325  10.272   5.842  13.485
81498SOL    HW146326  10.303   5.869  13.398
81498SOL    HW246327  10.343   5.868  13.544
81499SOL     OW46328   2.351  11.349  13.123
81499SOL    HW146329   2.375  11.442  13.124
81499SOL    HW246330   2.257  11.349  13.102
81500SOL     OW46331   2.823  10.638  12.712
81500SOL    HW146332   2.800  10.629  12.620
81500SOL    HW246333   2.913  10.605  12.717
81501SOL     OW46334   2.269   0.976   1.371
81501SOL    HW146335   2.341   0.953   1.429
81501SOL    HW246336   2.271   0.909   1.302
81502SOL     OW46337   2.624  12.332  10.634
81502SOL    HW146338   2.636  12.426  10.621
81502SOL    HW246339   2.572  12.325  10.714
81503SOL     OW46340  14.673   8.649   5.103
81503SOL    HW146341  14.719   8.719   5.057
81503SOL    HW246342  14.666   8.578   5.039
81504SOL     OW46343   5.996  14.842   8.136
81504SOL    HW146344   5.982  14.812   8.046
81504SOL    HW246345   6.091  14.837   8.149
81505SOL     OW46346   6.008   9.613   7.326
81505SOL    HW146347   6.016   9.578   7.238
81505SOL    HW246348   5.977   9.703   7.314
81506SOL     OW46349   4.783   4.317   2.588
81506SOL    HW146350   4.765   4.378   2.516
81506SOL    HW246351   4.704   4.321   2.643
81507SOL     OW46352   5.115   4.438   6.496
81507SOL    HW146353   5.094   4.527   6.523
81507SOL    HW246354   5.158   4.448   6.411
81508SOL     OW46355   5.037  10.475   4.554
81508SOL    HW146356   5.032  10.391   4.509
81508SOL    HW246357   5.027  10.540   4.485
81509SOL     OW46358   7.100  11.899   4.961
81509SOL    HW146359   7.051  11.893   5.043
81509SOL    HW246360   7.183  11.854   4.980
81510SOL     OW46361  12.747   8.241   8.680
81510SOL    HW146362  12.806   8.232   8.755
81510SOL    HW246363  12.734   8.335   8.670
81511SOL     OW46364  12.150  11.214   3.116
81511SOL    HW146365  12.139  11.233   3.209
81511SOL    HW246366  12.087  11.270   3.072
81512SOL     OW46367   9.467   7.870  12.641
81512SOL    HW146368   9.438   7.779  12.646
81512SOL    HW246369   9.387   7.921  12.650
81513SOL     OW46370   6.546   5.672  11.319
81513SOL    HW146371   6.636   5.680  11.286
81513SOL    HW246372   6.496   5.737  11.269
81514SOL     OW46373  10.671  10.320   3.864
81514SOL    HW146374  10.692  10.252   3.801
81514SOL    HW246375  10.659  10.399   3.812
81515SOL     OW46376  12.637   4.741  11.371
81515SOL    HW146377  12.707   4.807  11.373
81515SOL    HW246378  12.683   4.659  11.354
81516SOL     OW46379   0.827  13.285  14.678
81516SOL    HW146380   0.762  13.331  14.729
81516SOL    HW246381   0.795  13.195  14.673
81517SOL     OW46382   7.397   0.305   1.533
81517SOL    HW146383   7.330   0.257   1.582
81517SOL    HW246384   7.475   0.249   1.539
81518SOL     OW46385  10.900   4.087   8.078
81518SOL    HW146386  10.876   4.119   7.991
81518SOL    HW246387  10.952   4.008   8.061
81519SOL     OW46388   8.417   0.164   9.014
81519SOL    HW146389   8.322   0.170   9.003
81519SOL    HW246390   8.450   0.155   8.924
81520SOL     OW46391   2.926   4.826  11.665
81520SOL    HW146392   2.869   4.901  11.650
81520SOL    HW246393   2.990   4.831  11.594
81521SOL     OW46394  12.927   5.963   5.906
81521SOL    HW146395  12.974   6.027   5.851
81521SOL    HW246396  12.841   6.002   5.919
81522SOL     OW46397   2.609  12.342   0.843
81522SOL    HW146398   2.696  12.350   0.805
81522SOL    HW246399   2.579  12.432   0.858
81523SOL     OW46400   1.774  10.281   4.933
81523SOL    HW146401   1.814  10.246   4.853
81523SOL    HW246402   1.687  10.312   4.906
81524SOL     OW46403   4.269   2.993   0.914
81524SOL    HW146404   4.293   3.055   0.845
81524SOL    HW246405   4.351   2.978   0.961
81525SOL     OW46406  14.517  10.551  11.949
81525SOL    HW146407  14.511  10.488  11.878
81525SOL    HW246408  14.500  10.499  12.028
81526SOL     OW46409  10.574  10.867   7.644
81526SOL    HW146410  10.594  10.915   7.563
81526SOL    HW246411  10.646  10.889   7.703
81527SOL     OW46412   9.431  10.967   1.663
81527SOL    HW146413   9.357  10.928   1.617
81527SOL    HW246414   9.452  11.046   1.612
81528SOL     OW46415  12.401   1.725   1.193
81528SOL    HW146416  12.414   1.813   1.227
81528SOL    HW246417  12.317   1.730   1.147
81529SOL     OW46418   7.655   9.990   8.365
81529SOL    HW146419   7.646   9.909   8.415
81529SOL    HW246420   7.737   9.980   8.317
81530SOL     OW46421   2.545   5.458   5.961
81530SOL    HW146422   2.459   5.475   5.999
81530SOL    HW246423   2.564   5.536   5.909
81531SOL     OW46424   8.275   3.455  11.948
81531SOL    HW146425   8.242   3.374  11.911
81531SOL    HW246426   8.358   3.430  11.990
81532SOL     OW46427   8.687  10.984  12.606
81532SOL    HW146428   8.720  11.049  12.668
81532SOL    HW246429   8.612  10.945  12.651
81533SOL     OW46430  11.949  12.995  13.518
81533SOL    HW146431  12.024  12.967  13.571
81533SOL    HW246432  11.981  13.071  13.469
81534SOL     OW46433   5.204   2.851   4.729
81534SOL    HW146434   5.133   2.847   4.664
81534SOL    HW246435   5.192   2.937   4.771
81535SOL     OW46436   5.594   7.402   0.500
81535SOL    HW146437   5.549   7.464   0.558
81535SOL    HW246438   5.548   7.319   0.513
81536SOL     OW46439   7.703   4.327  10.198
81536SOL    HW146440   7.692   4.400  10.260
81536SOL    HW246441   7.664   4.252  10.244
81537SOL     OW46442   7.279   0.313  10.907
81537SOL    HW146443   7.278   0.314  11.003
81537SOL    HW246444   7.350   0.253  10.884
81538SOL     OW46445   4.946   1.666  10.374
81538SOL    HW146446   4.965   1.640  10.464
81538SOL    HW246447   4.953   1.761  10.374
81539SOL     OW46448   1.694  14.556  10.199
81539SOL    HW146449   1.766  14.496  10.215
81539SOL    HW246450   1.690  14.610  10.278
81540SOL     OW46451   1.314   4.489   4.399
81540SOL    HW146452   1.271   4.404   4.409
81540SOL    HW246453   1.313   4.527   4.487
81541SOL     OW46454  14.023  11.655   9.743
81541SOL    HW146455  13.967  11.581   9.721
81541SOL    HW246456  14.066  11.678   9.660
81542SOL     OW46457   8.233   3.977   9.399
81542SOL    HW146458   8.324   3.961   9.423
81542SOL    HW246459   8.187   3.896   9.424
81543SOL     OW46460  10.109   2.632   6.567
81543SOL    HW146461  10.143   2.543   6.565
81543SOL    HW246462  10.103   2.654   6.660
81544SOL     OW46463   3.681  10.361   9.628
81544SOL    HW146464   3.771  10.347   9.599
81544SOL    HW246465   3.688  10.394   9.717
81545SOL     OW46466   5.774  11.950   6.312
81545SOL    HW146467   5.723  11.908   6.380
81545SOL    HW246468   5.737  11.917   6.230
81546SOL     OW46469   9.423   4.348   9.213
81546SOL    HW146470   9.483   4.363   9.141
81546SOL    HW246471   9.346   4.308   9.173
81547SOL     OW46472   8.204  12.491   2.903
81547SOL    HW146473   8.265  12.430   2.945
81547SOL    HW246474   8.147  12.435   2.850
81548SOL     OW46475   5.919   2.590  11.945
81548SOL    HW146476   5.856   2.658  11.923
81548SOL    HW246477   5.890   2.555  12.029
81549SOL     OW46478  12.580   8.078  10.667
81549SOL    HW146479  12.506   8.030  10.705
81549SOL    HW246480  12.641   8.090  10.740
81550SOL     OW46481  14.241   8.445  10.824
81550SOL    HW146482  14.197   8.376  10.775
81550SOL    HW246483  14.304   8.482  10.762
81551SOL     OW46484  13.302  11.342  14.457
81551SOL    HW146485  13.246  11.279  14.504
81551SOL    HW246486  13.244  11.382  14.393
81552SOL     OW46487   0.319  12.310  11.825
81552SOL    HW146488   0.330  12.404  11.811
81552SOL    HW246489   0.398  12.283  11.872
81553SOL     OW46490  10.274  12.764   6.408
81553SOL    HW146491  10.332  12.689   6.395
81553SOL    HW246492  10.253  12.793   6.319
81554SOL     OW46493   8.470   7.274   9.238
81554SOL    HW146494   8.433   7.361   9.228
81554SOL    HW246495   8.513   7.256   9.155
81555SOL     OW46496   7.018   8.033  12.747
81555SOL    HW146497   6.937   7.983  12.753
81555SOL    HW246498   6.995   8.111  12.697
81556SOL     OW46499   4.458   9.078   0.922
81556SOL    HW146500   4.438   9.002   0.977
81556SOL    HW246501   4.373   9.120   0.907
81557SOL     OW46502   2.948  12.459   1.864
81557SOL    HW146503   2.994  12.543   1.858
81557SOL    HW246504   3.011  12.400   1.905
81558SOL     OW46505   8.483   9.557   5.853
81558SOL    HW146506   8.574   9.530   5.835
81558SOL    HW246507   8.441   9.557   5.767
81559SOL     OW46508  13.600   3.003  12.389
81559SOL    HW146509  13.512   3.020  12.424
81559SOL    HW246510  13.623   3.083  12.342
81560SOL     OW46511  13.277   0.684   8.994
81560SOL    HW146512  13.249   0.687   8.903
81560SOL    HW246513  13.212   0.629   9.037
81561SOL     OW46514   4.171  13.901  12.600
81561SOL    HW146515   4.218  13.980  12.625
81561SOL    HW246516   4.132  13.921  12.515
81562SOL     OW46517   3.811   1.723   4.740
81562SOL    HW146518   3.905   1.708   4.750
81562SOL    HW246519   3.803   1.768   4.656
81563SOL     OW46520  11.853  10.116  13.830
81563SOL    HW146521  11.823  10.178  13.763
81563SOL    HW246522  11.932  10.155  13.866
81564SOL     OW46523  14.372   7.007   3.231
81564SOL    HW146524  14.465   6.989   3.222
81564SOL    HW246525  14.347   6.967   3.314
81565SOL     OW46526   8.669   8.933   1.113
81565SOL    HW146527   8.588   8.887   1.091
81565SOL    HW246528   8.708   8.881   1.183
81566SOL     OW46529  12.500  12.911  12.695
81566SOL    HW146530  12.420  12.958  12.717
81566SOL    HW246531  12.487  12.822  12.729
81567SOL     OW46532   6.781  10.743   4.833
81567SOL    HW146533   6.723  10.729   4.758
81567SOL    HW246534   6.828  10.824   4.812
81568SOL     OW46535  12.700   8.598   8.569
81568SOL    HW146536  12.683   8.556   8.484
81568SOL    HW246537  12.620   8.585   8.619
81569SOL     OW46538   4.602  13.217  13.146
81569SOL    HW146539   4.599  13.304  13.184
81569SOL    HW246540   4.512  13.199  13.118
81570SOL     OW46541   3.528   4.469   1.890
81570SOL    HW146542   3.565   4.405   1.828
81570SOL    HW246543   3.554   4.554   1.855
81571SOL     OW46544  10.204   6.924  10.578
81571SOL    HW146545  10.124   6.874  10.594
81571SOL    HW246546  10.202   6.994  10.643
81572SOL     OW46547   2.000   1.561   8.677
81572SOL    HW146548   2.039   1.550   8.764
81572SOL    HW246549   1.923   1.505   8.678
81573SOL     OW46550  12.634   1.273   2.031
81573SOL    HW146551  12.698   1.211   2.066
81573SOL    HW246552  12.549   1.237   2.058
81574SOL     OW46553   3.780   0.509   5.681
81574SOL    HW146554   3.797   0.601   5.700
81574SOL    HW246555   3.865   0.466   5.688
81575SOL     OW46556   6.904   9.924  13.579
81575SOL    HW146557   6.961   9.990  13.542
81575SOL    HW246558   6.914   9.848  13.521
81576SOL     OW46559   7.937   9.241  12.947
81576SOL    HW146560   7.985   9.311  12.991
81576SOL    HW246561   7.883   9.202  13.016
81577SOL     OW46562   4.057  12.133   8.658
81577SOL    HW146563   4.065  12.078   8.736
81577SOL    HW246564   3.973  12.177   8.668
81578SOL     OW46565  11.299   0.850  13.211
81578SOL    HW146566  11.359   0.914  13.249
81578SOL    HW246567  11.272   0.889  13.128
81579SOL     OW46568  13.994   8.307   1.232
81579SOL    HW146569  14.087   8.328   1.244
81579SOL    HW246570  13.969   8.356   1.153
81580SOL     OW46571   6.200   6.791   7.503
81580SOL    HW146572   6.166   6.731   7.568
81580SOL    HW246573   6.137   6.864   7.501
81581SOL     OW46574  11.715  12.804   1.533
81581SOL    HW146575  11.721  12.742   1.605
81581SOL    HW246576  11.728  12.890   1.575
81582SOL     OW46577   5.729   1.808  14.381
81582SOL    HW146578   5.665   1.787  14.448
81582SOL    HW246579   5.795   1.739  14.388
81583SOL     OW46580   7.480  11.811   4.533
81583SOL    HW146581   7.440  11.882   4.582
81583SOL    HW246582   7.450  11.824   4.443
81584SOL     OW46583   1.947   9.498  12.201
81584SOL    HW146584   1.962   9.541  12.117
81584SOL    HW246585   1.957   9.405  12.183
81585SOL     OW46586   6.217   2.383   0.399
81585SOL    HW146587   6.172   2.341   0.325
81585SOL    HW246588   6.197   2.476   0.389
81586SOL     OW46589   2.973   7.873   5.856
81586SOL    HW146590   2.879   7.868   5.842
81586SOL    HW246591   2.984   7.942   5.922
81587SOL     OW46592   9.722   6.624   6.604
81587SOL    HW146593   9.657   6.691   6.583
81587SOL    HW246594   9.678   6.568   6.668
81588SOL     OW46595   1.638   3.401   3.192
81588SOL    HW146596   1.563   3.453   3.221
81588SOL    HW246597   1.632   3.320   3.242
81589SOL     OW46598   0.560  12.728   9.041
81589SOL    HW146599   0.559  12.736   8.945
81589SOL    HW246600   0.511  12.803   9.072
81590SOL     OW46601   4.942   8.742   0.331
81590SOL    HW146602   4.968   8.802   0.401
81590SOL    HW246603   4.967   8.656   0.363
81591SOL     OW46604   9.228  12.623  11.174
81591SOL    HW146605   9.227  12.612  11.078
81591SOL    HW246606   9.319  12.604  11.198
81592SOL     OW46607  10.633   7.040   5.204
81592SOL    HW146608  10.580   7.035   5.125
81592SOL    HW246609  10.575   7.008   5.274
81593SOL     OW46610  14.653   5.328   4.011
81593SOL    HW146611  14.632   5.246   4.054
81593SOL    HW246612  14.709   5.375   4.073
81594SOL     OW46613  11.596   1.431  11.110
81594SOL    HW146614  11.689   1.413  11.103
81594SOL    HW246615  11.554   1.354  11.071
81595SOL     OW46616   7.624   3.308  12.760
81595SOL    HW146617   7.683   3.238  12.730
81595SOL    HW246618   7.560   3.317  12.689
81596SOL     OW46619   2.860   1.683  10.144
81596SOL    HW146620   2.838   1.634  10.224
81596SOL    HW246621   2.950   1.656  10.123
81597SOL     OW46622   1.864  11.920   2.423
81597SOL    HW146623   1.790  11.907   2.364
81597SOL    HW246624   1.885  11.832   2.454
81598SOL     OW46625   3.122  14.668   9.981
81598SOL    HW146626   3.051  14.663   9.918
81598SOL    HW246627   3.100  14.602  10.047
81599SOL     OW46628   9.362   0.340   9.939
81599SOL    HW146629   9.405   0.367   9.858
81599SOL    HW246630   9.366   0.244   9.937
81600SOL     OW46631  11.295   8.381   3.405
81600SOL    HW146632  11.207   8.387   3.441
81600SOL    HW246633  11.317   8.288   3.411
81601SOL     OW46634   1.074   3.588  10.812
81601SOL    HW146635   1.132   3.566  10.884
81601SOL    HW246636   1.107   3.671  10.778
81602SOL     OW46637  14.083  10.772  14.148
81602SOL    HW146638  14.013  10.818  14.194
81602SOL    HW246639  14.038  10.711  14.090
81603SOL     OW46640   6.368   4.116   6.936
81603SOL    HW146641   6.368   4.060   7.015
81603SOL    HW246642   6.285   4.097   6.893
81604SOL     OW46643   8.999   7.450   0.699
81604SOL    HW146644   8.935   7.380   0.709
81604SOL    HW246645   8.991   7.501   0.780
81605SOL     OW46646  14.598  12.971  10.956
81605SOL    HW146647  14.601  13.006  11.044
81605SOL    HW246648  14.686  12.989  10.920
81606SOL     OW46649   6.206   2.356  11.195
81606SOL    HW146650   6.181   2.444  11.223
81606SOL    HW246651   6.234   2.312  11.276
81607SOL     OW46652   7.759   7.714   9.910
81607SOL    HW146653   7.706   7.791   9.891
81607SOL    HW246654   7.797   7.689   9.826
81608SOL     OW46655   6.333  12.346   1.468
81608SOL    HW146656   6.366  12.261   1.437
81608SOL    HW246657   6.409  12.387   1.509
81609SOL     OW46658   4.640   7.563   7.342
81609SOL    HW146659   4.602   7.480   7.374
81609SOL    HW246660   4.567   7.606   7.298
81610SOL     OW46661  13.733  12.980  14.308
81610SOL    HW146662  13.706  12.965  14.217
81610SOL    HW246663  13.692  13.063  14.332
81611SOL     OW46664   3.376   8.390   8.284
81611SOL    HW146665   3.320   8.313   8.280
81611SOL    HW246666   3.324   8.456   8.330
81612SOL     OW46667   2.062   8.417   4.239
81612SOL    HW146668   2.101   8.404   4.325
81612SOL    HW246669   2.065   8.330   4.198
81613SOL     OW46670   2.102   5.535  14.086
81613SOL    HW146671   2.125   5.591  14.012
81613SOL    HW246672   2.128   5.585  14.163
81614SOL     OW46673  13.794   6.125   5.746
81614SOL    HW146674  13.800   6.039   5.703
81614SOL    HW246675  13.749   6.107   5.828
81615SOL     OW46676   2.190  13.187  11.577
81615SOL    HW146677   2.118  13.128  11.558
81615SOL    HW246678   2.256  13.132  11.618
81616SOL     OW46679   8.870   9.979  13.131
81616SOL    HW146680   8.808   9.968  13.204
81616SOL    HW246681   8.937  10.039  13.166
81617SOL     OW46682   5.661  11.798   4.931
81617SOL    HW146683   5.625  11.842   4.854
81617SOL    HW246684   5.584  11.765   4.978
81618SOL     OW46685   0.236   7.053  14.513
81618SOL    HW146686   0.286   6.972  14.510
81618SOL    HW246687   0.269   7.105  14.439
81619SOL     OW46688  10.233  10.503   5.286
81619SOL    HW146689  10.260  10.412   5.299
81619SOL    HW246690  10.296  10.538   5.223
81620SOL     OW46691   7.591   7.928  13.217
81620SOL    HW146692   7.511   7.970  13.248
81620SOL    HW246693   7.566   7.884  13.136
81621SOL     OW46694   5.267   1.009  11.810
81621SOL    HW146695   5.273   1.104  11.809
81621SOL    HW246696   5.252   0.985  11.719
81622SOL     OW46697   5.081   6.608   9.203
81622SOL    HW146698   5.157   6.662   9.183
81622SOL    HW246699   5.042   6.587   9.118
81623SOL     OW46700   3.230   6.036  14.326
81623SOL    HW146701   3.232   6.112  14.268
81623SOL    HW246702   3.212   5.962  14.269
81624SOL     OW46703   9.529   2.619  14.605
81624SOL    HW146704   9.624   2.612  14.600
81624SOL    HW246705   9.511   2.711  14.587
81625SOL     OW46706   0.773   8.672  13.564
81625SOL    HW146707   0.714   8.663  13.639
81625SOL    HW246708   0.829   8.594  13.568
81626SOL     OW46709   1.875  10.568   6.041
81626SOL    HW146710   1.850  10.653   6.005
81626SOL    HW246711   1.965  10.556   6.014
81627SOL     OW46712  12.775  13.639   7.556
81627SOL    HW146713  12.694  13.629   7.506
81627SOL    HW246714  12.753  13.702   7.625
81628SOL     OW46715  13.695  13.654   7.826
81628SOL    HW146716  13.772  13.711   7.819
81628SOL    HW246717  13.642  13.677   7.750
81629SOL     OW46718   4.088  12.955   7.368
81629SOL    HW146719   4.047  12.990   7.288
81629SOL    HW246720   4.015  12.925   7.421
81630SOL     OW46721   1.958   4.699   1.457
81630SOL    HW146722   2.010   4.779   1.468
81630SOL    HW246723   1.874   4.729   1.423
81631SOL     OW46724   8.434   9.664  12.086
81631SOL    HW146725   8.505   9.604  12.062
81631SOL    HW246726   8.380   9.615  12.148
81632SOL     OW46727   7.152  10.861   4.517
81632SOL    HW146728   7.193  10.853   4.603
81632SOL    HW246729   7.215  10.912   4.466
81633SOL     OW46730   3.316  14.191  14.660
81633SOL    HW146731   3.221  14.194  14.674
81633SOL    HW246732   3.327  14.140  14.580
81634SOL     OW46733   2.176   2.759   8.458
81634SOL    HW146734   2.164   2.744   8.552
81634SOL    HW246735   2.159   2.853   8.447
81635SOL     OW46736   9.277   9.918   8.038
81635SOL    HW146737   9.235   9.991   8.084
81635SOL    HW246738   9.204   9.865   8.005
81636SOL     OW46739  13.188   4.151  11.313
81636SOL    HW146740  13.251   4.176  11.381
81636SOL    HW246741  13.105   4.188  11.344
81637SOL     OW46742   2.256  14.808  13.093
81637SOL    HW146743   2.205  14.778  13.169
81637SOL    HW246744   2.346  14.781  13.113
81638SOL     OW46745   7.239  12.516  10.659
81638SOL    HW146746   7.168  12.542  10.718
81638SOL    HW246747   7.302  12.588  10.663
81639SOL     OW46748   5.843   7.721   7.345
81639SOL    HW146749   5.777   7.669   7.300
81639SOL    HW246750   5.806   7.810   7.349
81640SOL     OW46751  11.501   1.634   6.927
81640SOL    HW146752  11.592   1.648   6.953
81640SOL    HW246753  11.490   1.688   6.849
81641SOL     OW46754   0.618   6.504   9.872
81641SOL    HW146755   0.566   6.577   9.905
81641SOL    HW246756   0.691   6.497   9.933
81642SOL     OW46757   2.808  13.649  11.944
81642SOL    HW146758   2.731  13.592  11.936
81642SOL    HW246759   2.785  13.712  12.012
81643SOL     OW46760   0.913   8.420   9.079
81643SOL    HW146761   0.884   8.501   9.121
81643SOL    HW246762   0.890   8.431   8.987
81644SOL     OW46763   0.936   5.838  11.484
81644SOL    HW146764   0.963   5.833  11.392
81644SOL    HW246765   0.960   5.752  11.520
81645SOL     OW46766   4.197   8.498   6.516
81645SOL    HW146767   4.258   8.449   6.571
81645SOL    HW246768   4.180   8.579   6.564
81646SOL     OW46769   1.551   8.422  12.909
81646SOL    HW146770   1.604   8.457  12.837
81646SOL    HW246771   1.480   8.374  12.866
81647SOL     OW46772  12.181   0.436   6.678
81647SOL    HW146773  12.147   0.382   6.750
81647SOL    HW246774  12.154   0.525   6.700
81648SOL     OW46775   0.801  10.212  11.570
81648SOL    HW146776   0.858  10.154  11.519
81648SOL    HW246777   0.762  10.271  11.506
81649SOL     OW46778  10.494   3.971   5.582
81649SOL    HW146779  10.461   4.025   5.653
81649SOL    HW246780  10.484   3.881   5.612
81650SOL     OW46781   4.432   3.337  12.458
81650SOL    HW146782   4.339   3.315  12.454
81650SOL    HW246783   4.450   3.381  12.375
81651SOL     OW46784   1.961   6.595   7.094
81651SOL    HW146785   1.950   6.589   6.999
81651SOL    HW246786   1.903   6.666   7.121
81652SOL     OW46787  14.822   7.877   7.396
81652SOL    HW146788  14.832   7.843   7.485
81652SOL    HW246789  14.815   7.972   7.407
81653SOL     OW46790   1.847  13.298  11.732
81653SOL    HW146791   1.778  13.263  11.789
81653SOL    HW246792   1.875  13.222  11.680
81654SOL     OW46793   0.571   4.046   0.276
81654SOL    HW146794   0.481   4.019   0.296
81654SOL    HW246795   0.561   4.106   0.202
81655SOL     OW46796   9.526  14.097   8.757
81655SOL    HW146797   9.452  14.105   8.816
81655SOL    HW246798   9.487  14.091   8.669
81656SOL     OW46799  12.317   3.229   8.268
81656SOL    HW146800  12.353   3.313   8.239
81656SOL    HW246801  12.329   3.229   8.362
81657SOL     OW46802   4.580  11.708   4.840
81657SOL    HW146803   4.525  11.787   4.836
81657SOL    HW246804   4.523  11.637   4.810
81658SOL     OW46805   1.903   9.811  14.779
81658SOL    HW146806   1.819   9.829  14.736
81658SOL    HW246807   1.963   9.790  14.708
81659SOL     OW46808  14.151   9.710   6.877
81659SOL    HW146809  14.134   9.794   6.835
81659SOL    HW246810  14.240   9.688   6.850
81660SOL     OW46811   4.645  13.349  10.943
81660SOL    HW146812   4.733  13.384  10.927
81660SOL    HW246813   4.617  13.392  11.024
81661SOL     OW46814   3.049   7.329   0.733
81661SOL    HW146815   3.098   7.348   0.813
81661SOL    HW246816   3.009   7.413   0.709
81662SOL     OW46817   3.427   3.694   9.106
81662SOL    HW146818   3.387   3.664   9.025
81662SOL    HW246819   3.506   3.640   9.115
81663SOL     OW46820   0.992   0.468   5.279
81663SOL    HW146821   1.054   0.539   5.265
81663SOL    HW246822   0.990   0.420   5.196
81664SOL     OW46823   4.021   9.323   9.360
81664SOL    HW146824   4.060   9.369   9.435
81664SOL    HW246825   4.094   9.277   9.320
81665SOL     OW46826   8.214   0.459   5.758
81665SOL    HW146827   8.158   0.397   5.806
81665SOL    HW246828   8.161   0.538   5.751
81666SOL     OW46829  10.846   9.909   0.161
81666SOL    HW146830  10.815   9.993   0.128
81666SOL    HW246831  10.868   9.859   0.083
81667SOL     OW46832   3.771  14.716   2.471
81667SOL    HW146833   3.780  14.690   2.563
81667SOL    HW246834   3.677  14.727   2.458
81668SOL     OW46835   4.821   1.100  12.135
81668SOL    HW146836   4.758   1.168  12.111
81668SOL    HW246837   4.875   1.090  12.057
81669SOL     OW46838   6.970  11.262   6.934
81669SOL    HW146839   6.879  11.234   6.945
81669SOL    HW246840   6.968  11.320   6.858
81670SOL     OW46841   9.652   1.395  10.441
81670SOL    HW146842   9.641   1.359  10.353
81670SOL    HW246843   9.719   1.340  10.481
81671SOL     OW46844  13.030  12.041   0.345
81671SOL    HW146845  13.035  11.997   0.260
81671SOL    HW246846  13.115  12.025   0.386
81672SOL     OW46847   6.294   5.276   0.297
81672SOL    HW146848   6.204   5.247   0.283
81672SOL    HW246849   6.287   5.344   0.364
81673SOL     OW46850   5.272   0.752   7.553
81673SOL    HW146851   5.189   0.705   7.560
81673SOL    HW246852   5.248   0.844   7.564
81674SOL     OW46853  13.443  10.232   0.042
81674SOL    HW146854  13.406  10.146   0.062
81674SOL    HW246855  13.536  10.225   0.065
81675SOL     OW46856   0.442   9.624   9.319
81675SOL    HW146857   0.456   9.529   9.316
81675SOL    HW246858   0.416   9.641   9.410
81676SOL     OW46859  14.629   0.274  12.904
81676SOL    HW146860  14.541   0.298  12.876
81676SOL    HW246861  14.644   0.189  12.862
81677SOL     OW46862   6.707   1.069   0.770
81677SOL    HW146863   6.712   0.990   0.824
81677SOL    HW246864   6.720   1.037   0.680
81678SOL     OW46865   0.574   8.826   6.717
81678SOL    HW146866   0.523   8.870   6.648
81678SOL    HW246867   0.644   8.888   6.738
81679SOL     OW46868   1.660  11.902  10.723
81679SOL    HW146869   1.718  11.909  10.799
81679SOL    HW246870   1.572  11.901  10.760
81680SOL     OW46871   7.142   7.483  12.515
81680SOL    HW146872   7.150   7.558  12.455
81680SOL    HW246873   7.157   7.521  12.601
81681SOL     OW46874   0.881  11.506  11.546
81681SOL    HW146875   0.829  11.450  11.489
81681SOL    HW246876   0.880  11.462  11.631
81682SOL     OW46877   9.640   4.134   3.923
81682SOL    HW146878   9.682   4.136   3.837
81682SOL    HW246879   9.547   4.144   3.904
81683SOL     OW46880  11.371   6.363  14.086
81683SOL    HW146881  11.425   6.419  14.141
81683SOL    HW246882  11.300   6.335  14.143
81684SOL     OW46883   4.835   2.000   1.829
81684SOL    HW146884   4.829   1.907   1.807
81684SOL    HW246885   4.826   2.045   1.744
81685SOL     OW46886   7.145  13.281   6.724
81685SOL    HW146887   7.206  13.209   6.740
81685SOL    HW246888   7.184  13.330   6.652
81686SOL     OW46889  10.131  12.602   3.062
81686SOL    HW146890  10.142  12.606   3.157
81686SOL    HW246891  10.080  12.681   3.041
81687SOL     OW46892   3.179   7.188  11.445
81687SOL    HW146893   3.124   7.138  11.386
81687SOL    HW246894   3.145   7.169  11.532
81688SOL     OW46895  10.804  12.680   0.910
81688SOL    HW146896  10.714  12.648   0.914
81688SOL    HW246897  10.846  12.645   0.989
81689SOL     OW46898  12.349   6.061   0.474
81689SOL    HW146899  12.384   6.148   0.496
81689SOL    HW246900  12.388   6.003   0.539
81690SOL     OW46901   4.051  11.851   2.935
81690SOL    HW146902   3.971  11.902   2.946
81690SOL    HW246903   4.023  11.760   2.941
81691SOL     OW46904   7.781  12.874   7.268
81691SOL    HW146905   7.690  12.852   7.248
81691SOL    HW246906   7.790  12.856   7.361
81692SOL     OW46907  14.192   1.235   3.463
81692SOL    HW146908  14.234   1.216   3.547
81692SOL    HW246909  14.112   1.183   3.463
81693SOL     OW46910  12.019   6.139   3.364
81693SOL    HW146911  12.090   6.167   3.421
81693SOL    HW246912  12.028   6.194   3.286
81694SOL     OW46913  12.635   1.519   7.963
81694SOL    HW146914  12.718   1.534   8.007
81694SOL    HW246915  12.611   1.604   7.927
81695SOL     OW46916  13.751   5.485  11.567
81695SOL    HW146917  13.689   5.497  11.638
81695SOL    HW246918  13.819   5.551  11.582
81696SOL     OW46919   0.844   6.846   2.375
81696SOL    HW146920   0.854   6.938   2.354
81696SOL    HW246921   0.869   6.839   2.467
81697SOL     OW46922   5.967   4.834   0.931
81697SOL    HW146923   5.875   4.835   0.957
81697SOL    HW246924   6.013   4.799   1.007
81698SOL     OW46925   5.908   9.207  12.644
81698SOL    HW146926   5.851   9.140  12.683
81698SOL    HW246927   5.939   9.259  12.718
81699SOL     OW46928   8.001  12.218   6.106
81699SOL    HW146929   7.975  12.258   6.023
81699SOL    HW246930   8.095  12.233   6.112
81700SOL     OW46931   6.972   6.400   7.822
81700SOL    HW146932   6.966   6.346   7.743
81700SOL    HW246933   6.883   6.402   7.856
81701SOL     OW46934   1.612   2.486   6.052
81701SOL    HW146935   1.627   2.396   6.022
81701SOL    HW246936   1.590   2.534   5.972
81702SOL     OW46937   3.055  13.852  10.405
81702SOL    HW146938   3.048  13.822  10.315
81702SOL    HW246939   2.965  13.851  10.438
81703SOL     OW46940  11.439  13.384  11.707
81703SOL    HW146941  11.442  13.442  11.783
81703SOL    HW246942  11.348  13.386  11.679
81704SOL     OW46943   7.034  10.072   0.142
81704SOL    HW146944   6.965  10.028   0.092
81704SOL    HW246945   7.037  10.161   0.107
81705SOL     OW46946   2.046  11.160  11.348
81705SOL    HW146947   1.991  11.220  11.297
81705SOL    HW246948   2.021  11.073  11.317
81706SOL     OW46949  12.290  11.198  11.873
81706SOL    HW146950  12.238  11.155  11.805
81706SOL    HW246951  12.230  11.209  11.946
81707SOL     OW46952  11.082   6.059   9.716
81707SOL    HW146953  11.034   6.014   9.785
81707SOL    HW246954  11.055   6.151   9.723
81708SOL     OW46955   3.705  11.381   1.679
81708SOL    HW146956   3.775  11.328   1.716
81708SOL    HW246957   3.707  11.462   1.730
81709SOL     OW46958  12.456  13.720  12.584
81709SOL    HW146959  12.485  13.658  12.517
81709SOL    HW246960  12.497  13.689  12.665
81710SOL     OW46961  12.150  13.112   8.612
81710SOL    HW146962  12.237  13.151   8.616
81710SOL    HW246963  12.142  13.080   8.523
81711SOL     OW46964   4.715   4.730  10.982
81711SOL    HW146965   4.800   4.687  10.980
81711SOL    HW246966   4.713   4.785  10.904
81712SOL     OW46967  13.970   0.354   0.493
81712SOL    HW146968  14.013   0.295   0.431
81712SOL    HW246969  14.042   0.403   0.534
81713SOL     OW46970   3.019   0.161   7.364
81713SOL    HW146971   3.048   0.169   7.454
81713SOL    HW246972   3.097   0.135   7.315
81714SOL     OW46973   1.429   3.252   7.695
81714SOL    HW146974   1.361   3.265   7.628
81714SOL    HW246975   1.510   3.248   7.645
81715SOL     OW46976   8.593  10.389   5.407
81715SOL    HW146977   8.545  10.460   5.449
81715SOL    HW246978   8.675  10.429   5.378
81716SOL     OW46979  14.119  13.552   8.707
81716SOL    HW146980  14.073  13.635   8.698
81716SOL    HW246981  14.199  13.562   8.655
81717SOL     OW46982   3.011   5.211   2.885
81717SOL    HW146983   3.075   5.228   2.955
81717SOL    HW246984   3.000   5.296   2.841
81718SOL     OW46985   2.980  11.950   3.701
81718SOL    HW146986   2.956  11.882   3.764
81718SOL    HW246987   2.986  12.030   3.753
81719SOL     OW46988   5.779   1.052   7.464
81719SOL    HW146989   5.812   1.141   7.453
81719SOL    HW246990   5.803   1.007   7.383
81720SOL     OW46991   1.862   1.131  12.054
81720SOL    HW146992   1.939   1.157  12.004
81720SOL    HW246993   1.896   1.083  12.129
81721SOL     OW46994   0.279  12.842   4.214
81721SOL    HW146995   0.255  12.918   4.267
81721SOL    HW246996   0.374  12.850   4.201
81722SOL     OW46997   5.410   4.690   8.749
81722SOL    HW146998   5.356   4.735   8.814
81722SOL    HW246999   5.349   4.662   8.681
81723SOL     OW47000   5.462   5.064   0.363
81723SOL    HW147001   5.473   5.044   0.270
81723SOL    HW247002   5.370   5.041   0.381
81724SOL     OW47003   9.437   9.873   9.836
81724SOL    HW147004   9.422   9.891   9.743
81724SOL    HW247005   9.532   9.884   9.848
81725SOL     OW47006   4.352   0.134   5.038
81725SOL    HW147007   4.276   0.086   5.006
81725SOL    HW247008   4.319   0.223   5.054
81726SOL     OW47009  13.485   3.405  13.266
81726SOL    HW147010  13.579   3.398  13.249
81726SOL    HW247011  13.471   3.498  13.285
81727SOL     OW47012  12.826   8.891   4.715
81727SOL    HW147013  12.782   8.835   4.779
81727SOL    HW247014  12.872   8.830   4.658
81728SOL     OW47015  13.617  12.146   1.973
81728SOL    HW147016  13.535  12.159   2.021
81728SOL    HW247017  13.632  12.229   1.928
81729SOL     OW47018   2.644   0.022   1.249
81729SOL    HW147019   2.735   0.034   1.274
81729SOL    HW247020   2.621  14.817   1.283
81730SOL     OW47021   5.537   1.757  10.114
81730SOL    HW147022   5.473   1.694  10.149
81730SOL    HW247023   5.601   1.768  10.184
81731SOL     OW47024  10.048   9.077  14.552
81731SOL    HW147025  10.069   8.992  14.590
81731SOL    HW247026  10.126   9.130  14.569
81732SOL     OW47027   0.637   6.399   5.677
81732SOL    HW147028   0.599   6.449   5.749
81732SOL    HW247029   0.692   6.333   5.720
81733SOL     OW47030   4.785   8.929   5.077
81733SOL    HW147031   4.792   8.888   4.990
81733SOL    HW247032   4.726   8.872   5.126
81734SOL     OW47033   1.077  12.140  10.663
81734SOL    HW147034   1.161  12.112  10.625
81734SOL    HW247035   1.083  12.114  10.755
81735SOL     OW47036  11.349   8.796   4.676
81735SOL    HW147037  11.340   8.860   4.746
81735SOL    HW247038  11.260   8.785   4.643
81736SOL     OW47039   6.305   8.259  12.465
81736SOL    HW147040   6.231   8.318  12.474
81736SOL    HW247041   6.307   8.237  12.372
81737SOL     OW47042   4.883   6.599  13.594
81737SOL    HW147043   4.895   6.683  13.638
81737SOL    HW247044   4.967   6.554  13.604
81738SOL     OW47045   2.478  10.796  13.439
81738SOL    HW147046   2.522  10.840  13.366
81738SOL    HW247047   2.458  10.708  13.406
81739SOL     OW47048   5.683   6.358   7.620
81739SOL    HW147049   5.664   6.265   7.633
81739SOL    HW247050   5.603   6.395   7.583
81740SOL     OW47051  14.066  13.621   3.049
81740SOL    HW147052  14.137  13.666   3.003
81740SOL    HW247053  13.992  13.681   3.045
81741SOL     OW47054   2.030  13.586  14.371
81741SOL    HW147055   2.019  13.569  14.465
81741SOL    HW247056   2.124  13.586  14.357
81742SOL     OW47057   1.607   7.773   5.089
81742SOL    HW147058   1.518   7.741   5.105
81742SOL    HW247059   1.658   7.694   5.071
81743SOL     OW47060   1.227  14.806  12.488
81743SOL    HW147061   1.170  14.774  12.418
81743SOL    HW247062   1.313  14.768  12.467
81744SOL     OW47063   7.779  10.741   3.825
81744SOL    HW147064   7.800  10.673   3.888
81744SOL    HW247065   7.841  10.727   3.753
81745SOL     OW47066   8.674   5.212   0.489
81745SOL    HW147067   8.647   5.121   0.497
81745SOL    HW247068   8.728   5.229   0.566
81746SOL     OW47069   2.457   5.836   8.147
81746SOL    HW147070   2.375   5.880   8.124
81746SOL    HW247071   2.521   5.906   8.152
81747SOL     OW47072  12.845   4.878   4.247
81747SOL    HW147073  12.758   4.844   4.227
81747SOL    HW247074  12.883   4.897   4.161
81748SOL     OW47075   7.890   2.223   3.753
81748SOL    HW147076   7.968   2.207   3.700
81748SOL    HW247077   7.830   2.152   3.730
81749SOL     OW47078   7.650  11.364   5.232
81749SOL    HW147079   7.673  11.370   5.140
81749SOL    HW247080   7.653  11.270   5.252
81750SOL     OW47081   3.189  13.911   7.015
81750SOL    HW147082   3.199  13.990   6.962
81750SOL    HW247083   3.131  13.939   7.087
81751SOL     OW47084   0.142   2.096   3.905
81751SOL    HW147085   0.231   2.090   3.940
81751SOL    HW247086   0.103   2.170   3.950
81752SOL     OW47087   8.964   4.256   6.157
81752SOL    HW147088   8.958   4.231   6.064
81752SOL    HW247089   9.027   4.328   6.159
81753SOL     OW47090  13.788  10.506   3.919
81753SOL    HW147091  13.801  10.482   4.010
81753SOL    HW247092  13.873  10.492   3.877
81754SOL     OW47093   4.863   3.987   1.594
81754SOL    HW147094   4.954   4.009   1.612
81754SOL    HW247095   4.864   3.895   1.570
81755SOL     OW47096  13.098  11.887   1.608
81755SOL    HW147097  13.117  11.910   1.517
81755SOL    HW247098  13.152  11.810   1.625
81756SOL     OW47099   6.525   4.538  12.058
81756SOL    HW147100   6.605   4.508  12.101
81756SOL    HW247101   6.537   4.515  11.966
81757SOL     OW47102  12.482   0.088   1.835
81757SOL    HW147103  12.543   0.148   1.791
81757SOL    HW247104  12.419   0.064   1.768
81758SOL     OW47105   9.167   6.759  12.430
81758SOL    HW147106   9.147   6.736  12.521
81758SOL    HW247107   9.240   6.703  12.406
81759SOL     OW47108   5.921   9.740   8.924
81759SOL    HW147109   5.839   9.772   8.962
81759SOL    HW247110   5.973   9.712   8.999
81760SOL     OW47111   2.493   7.236   7.145
81760SOL    HW147112   2.492   7.158   7.200
81760SOL    HW247113   2.543   7.210   7.067
81761SOL     OW47114   3.496   8.816  11.208
81761SOL    HW147115   3.486   8.855  11.121
81761SOL    HW247116   3.457   8.880  11.268
81762SOL     OW47117   0.493  13.559  14.452
81762SOL    HW147118   0.565  13.497  14.455
81762SOL    HW247119   0.486  13.592  14.542
81763SOL     OW47120   8.195   7.647   9.393
81763SOL    HW147121   8.124   7.602   9.437
81763SOL    HW247122   8.192   7.614   9.303
81764SOL     OW47123   8.831   1.454   2.487
81764SOL    HW147124   8.813   1.361   2.474
81764SOL    HW247125   8.834   1.465   2.582
81765SOL     OW47126   2.186   0.798   4.279
81765SOL    HW147127   2.230   0.821   4.197
81765SOL    HW247128   2.203   0.872   4.337
81766SOL     OW47129   8.701   3.004   0.992
81766SOL    HW147130   8.709   3.085   1.042
81766SOL    HW247131   8.769   2.947   1.028
81767SOL     OW47132  10.309   4.296   8.735
81767SOL    HW147133  10.292   4.385   8.764
81767SOL    HW247134  10.366   4.259   8.802
81768SOL     OW47135   5.256  11.118  12.928
81768SOL    HW147136   5.293  11.039  12.890
81768SOL    HW247137   5.311  11.189  12.895
81769SOL     OW47138   3.821   4.381   9.564
81769SOL    HW147139   3.823   4.359   9.471
81769SOL    HW247140   3.894   4.333   9.602
81770SOL     OW47141   9.595   9.815  12.085
81770SOL    HW147142   9.665   9.869  12.047
81770SOL    HW247143   9.636   9.730  12.099
81771SOL     OW47144   2.468   9.739   2.692
81771SOL    HW147145   2.426   9.816   2.655
81771SOL    HW247146   2.562   9.757   2.685
81772SOL     OW47147   2.069  10.828   2.662
81772SOL    HW147148   2.119  10.747   2.674
81772SOL    HW247149   2.060  10.864   2.750
81773SOL     OW47150  14.511   5.578   0.530
81773SOL    HW147151  14.460   5.620   0.461
81773SOL    HW247152  14.452   5.512   0.567
81774SOL     OW47153  11.307  11.832   0.170
81774SOL    HW147154  11.281  11.902   0.230
81774SOL    HW247155  11.258  11.755   0.199
81775SOL     OW47156  13.764  14.778   3.373
81775SOL    HW147157  13.770  14.727   3.454
81775SOL    HW247158  13.752  14.712   3.304
81776SOL     OW47159   0.193  11.034   0.858
81776SOL    HW147160   0.167  11.114   0.813
81776SOL    HW247161   0.140  11.033   0.938
81777SOL     OW47162  11.738   2.846   4.980
81777SOL    HW147163  11.735   2.940   4.997
81777SOL    HW247164  11.768   2.839   4.889
81778SOL     OW47165  14.628   7.656   2.903
81778SOL    HW147166  14.538   7.622   2.899
81778SOL    HW247167  14.625   7.737   2.852
81779SOL     OW47168   9.739   2.038  10.896
81779SOL    HW147169   9.731   1.949  10.930
81779SOL    HW247170   9.649   2.070  10.889
81780SOL     OW47171  12.930   6.376   9.671
81780SOL    HW147172  12.879   6.306   9.712
81780SOL    HW247173  12.907   6.455   9.720
81781SOL     OW47174  14.206   0.435  14.303
81781SOL    HW147175  14.251   0.421  14.386
81781SOL    HW247176  14.265   0.399  14.237
81782SOL     OW47177  11.602   5.894   1.875
81782SOL    HW147178  11.551   5.953   1.930
81782SOL    HW247179  11.584   5.922   1.785
81783SOL     OW47180   6.131  11.652  13.836
81783SOL    HW147181   6.120  11.657  13.931
81783SOL    HW247182   6.048  11.683  13.800
81784SOL     OW47183  13.316   2.002   7.586
81784SOL    HW147184  13.333   2.021   7.679
81784SOL    HW247185  13.279   2.083   7.552
81785SOL     OW47186  13.433   2.011   8.791
81785SOL    HW147187  13.424   2.104   8.773
81785SOL    HW247188  13.521   2.002   8.828
81786SOL     OW47189   7.448   4.044   2.559
81786SOL    HW147190   7.432   3.951   2.574
81786SOL    HW247191   7.513   4.046   2.489
81787SOL     OW47192  12.532   9.348   2.151
81787SOL    HW147193  12.535   9.389   2.238
81787SOL    HW247194  12.476   9.272   2.164
81788SOL     OW47195   0.342   3.325   3.742
81788SOL    HW147196   0.330   3.282   3.827
81788SOL    HW247197   0.255   3.328   3.703
81789SOL     OW47198  14.433   2.437  11.778
81789SOL    HW147199  14.451   2.413  11.869
81789SOL    HW247200  14.499   2.503  11.757
81790SOL     OW47201  12.104   1.037  11.833
81790SOL    HW147202  12.101   1.119  11.783
81790SOL    HW247203  12.104   0.968  11.766
81791SOL     OW47204   9.443   1.712   5.593
81791SOL    HW147205   9.500   1.674   5.660
81791SOL    HW247206   9.474   1.675   5.511
81792SOL     OW47207   5.995   0.990  12.986
81792SOL    HW147208   5.956   0.997  12.899
81792SOL    HW247209   6.073   1.045  12.982
81793SOL     OW47210   3.634   1.064   5.215
81793SOL    HW147211   3.613   0.990   5.272
81793SOL    HW247212   3.551   1.082   5.169
81794SOL     OW47213  13.113   5.187   1.190
81794SOL    HW147214  13.097   5.121   1.257
81794SOL    HW247215  13.166   5.141   1.124
81795SOL     OW47216   7.911  13.258   1.452
81795SOL    HW147217   7.925  13.346   1.416
81795SOL    HW247218   7.816  13.251   1.463
81796SOL     OW47219   1.557   4.093  14.473
81796SOL    HW147220   1.485   4.043  14.435
81796SOL    HW247221   1.534   4.101  14.566
81797SOL     OW47222   3.088   7.635  14.188
81797SOL    HW147223   3.116   7.544  14.200
81797SOL    HW247224   3.023   7.649  14.257
81798SOL     OW47225   3.488   3.860   3.195
81798SOL    HW147226   3.513   3.803   3.268
81798SOL    HW247227   3.398   3.886   3.214
81799SOL     OW47228   0.190   2.564   0.363
81799SOL    HW147229   0.103   2.588   0.396
81799SOL    HW247230   0.189   2.593   0.271
81800SOL     OW47231  10.097   8.821   4.276
81800SOL    HW147232  10.095   8.897   4.335
81800SOL    HW247233  10.006   8.809   4.250
81801SOL     OW47234   6.064   4.333   1.713
81801SOL    HW147235   6.089   4.241   1.699
81801SOL    HW247236   6.141   4.373   1.754
81802SOL     OW47237  13.750  14.369  12.788
81802SOL    HW147238  13.713  14.302  12.731
81802SOL    HW247239  13.844  14.370  12.767
81803SOL     OW47240   8.862   3.699   3.955
81803SOL    HW147241   8.825   3.624   4.001
81803SOL    HW247242   8.855   3.677   3.862
81804SOL     OW47243   0.623   7.154  10.567
81804SOL    HW147244   0.658   7.105  10.640
81804SOL    HW247245   0.658   7.111  10.489
81805SOL     OW47246   2.443  10.113   4.839
81805SOL    HW147247   2.513  10.050   4.821
81805SOL    HW247248   2.458  10.184   4.777
81806SOL     OW47249   2.556   6.663   3.442
81806SOL    HW147250   2.632   6.637   3.494
81806SOL    HW247251   2.516   6.580   3.416
81807SOL     OW47252   1.471  10.467   7.704
81807SOL    HW147253   1.449  10.376   7.683
81807SOL    HW247254   1.555  10.482   7.662
81808SOL     OW47255   1.925   3.945   8.292
81808SOL    HW147256   1.906   4.017   8.232
81808SOL    HW247257   2.004   3.904   8.257
81809SOL     OW47258   0.219  10.917  12.261
81809SOL    HW147259   0.151  10.877  12.314
81809SOL    HW247260   0.282  10.847  12.245
81810SOL     OW47261   9.193   0.310  13.396
81810SOL    HW147262   9.221   0.249  13.464
81810SOL    HW247263   9.268   0.369  13.386
81811SOL     OW47264   5.411   3.877   1.177
81811SOL    HW147265   5.320   3.877   1.147
81811SOL    HW247266   5.451   3.802   1.133
81812SOL     OW47267  14.737   8.288  13.792
81812SOL    HW147268  14.818   8.338  13.807
81812SOL    HW247269  14.671   8.334  13.844
81813SOL     OW47270   7.087  10.104   2.106
81813SOL    HW147271   7.126  10.173   2.160
81813SOL    HW247272   7.140  10.026   2.123
81814SOL     OW47273  14.268  13.781   2.916
81814SOL    HW147274  14.338  13.809   2.973
81814SOL    HW247275  14.240  13.860   2.870
81815SOL     OW47276   1.730   1.437   5.192
81815SOL    HW147277   1.768   1.468   5.110
81815SOL    HW247278   1.798   1.383   5.232
81816SOL     OW47279  14.611   6.307  10.385
81816SOL    HW147280  14.658   6.329  10.304
81816SOL    HW247281  14.668   6.338  10.455
81817SOL     OW47282   6.860  10.484   0.289
81817SOL    HW147283   6.894  10.560   0.243
81817SOL    HW247284   6.908  10.410   0.252
81818SOL     OW47285   7.309  12.593   8.776
81818SOL    HW147286   7.235  12.580   8.716
81818SOL    HW247287   7.377  12.534   8.743
81819SOL     OW47288   9.508  10.207   9.400
81819SOL    HW147289   9.590  10.233   9.358
81819SOL    HW247290   9.490  10.119   9.367
81820SOL     OW47291   6.388  11.535   3.098
81820SOL    HW147292   6.316  11.590   3.130
81820SOL    HW247293   6.396  11.558   3.005
81821SOL     OW47294   7.273   4.091   8.062
81821SOL    HW147295   7.229   4.174   8.083
81821SOL    HW247296   7.344   4.084   8.126
81822SOL     OW47297   5.452   5.569   9.053
81822SOL    HW147298   5.512   5.637   9.023
81822SOL    HW247299   5.507   5.509   9.103
81823SOL     OW47300  11.078   0.329  10.688
81823SOL    HW147301  11.151   0.285  10.732
81823SOL    HW247302  11.108   0.339  10.598
81824SOL     OW47303   3.549  10.722   6.323
81824SOL    HW147304   3.619  10.679   6.371
81824SOL    HW247305   3.475  10.721   6.384
81825SOL     OW47306   1.459  13.666   4.986
81825SOL    HW147307   1.545  13.669   5.027
81825SOL    HW247308   1.428  13.576   4.999
81826SOL     OW47309   3.274   0.428  14.672
81826SOL    HW147310   3.347   0.466  14.720
81826SOL    HW247311   3.227   0.375  14.736
81827SOL     OW47312   8.172   5.832   2.004
81827SOL    HW147313   8.094   5.819   1.951
81827SOL    HW247314   8.203   5.744   2.025
81828SOL     OW47315   8.570   5.409  10.166
81828SOL    HW147316   8.590   5.420  10.074
81828SOL    HW247317   8.632   5.466  10.212
81829SOL     OW47318   7.688  11.318   7.200
81829SOL    HW147319   7.673  11.226   7.174
81829SOL    HW247320   7.613  11.365   7.163
81830SOL     OW47321  11.747  13.761   9.889
81830SOL    HW147322  11.768  13.706   9.964
81830SOL    HW247323  11.655  13.742   9.870
81831SOL     OW47324   1.067  13.103  14.672
81831SOL    HW147325   0.982  13.073  14.706
81831SOL    HW247326   1.048  13.190  14.636
81832SOL     OW47327   5.858   6.569  13.384
81832SOL    HW147328   5.898   6.653  13.408
81832SOL    HW247329   5.930   6.519  13.346
81833SOL     OW47330   6.701   0.758  10.932
81833SOL    HW147331   6.664   0.779  11.018
81833SOL    HW247332   6.632   0.783  10.870
81834SOL     OW47333  14.749  13.776   1.863
81834SOL    HW147334  14.713  13.841   1.804
81834SOL    HW247335  14.682  13.765   1.931
81835SOL     OW47336  11.490  14.228   5.130
81835SOL    HW147337  11.585  14.236   5.125
81835SOL    HW247338  11.457  14.314   5.105
81836SOL     OW47339   3.398   8.239  11.568
81836SOL    HW147340   3.376   8.316  11.515
81836SOL    HW247341   3.491   8.223  11.549
81837SOL     OW47342   9.420   4.085   4.116
81837SOL    HW147343   9.365   4.163   4.124
81837SOL    HW247344   9.510   4.118   4.121
81838SOL     OW47345  11.888  12.607   0.888
81838SOL    HW147346  11.905  12.701   0.896
81838SOL    HW247347  11.833  12.599   0.810
81839SOL     OW47348  14.689   7.451   7.106
81839SOL    HW147349  14.619   7.476   7.046
81839SOL    HW247350  14.746   7.528   7.110
81840SOL     OW47351   5.102   7.504   0.745
81840SOL    HW147352   5.031   7.565   0.763
81840SOL    HW247353   5.181   7.558   0.740
81841SOL     OW47354   5.237   1.139   2.711
81841SOL    HW147355   5.236   1.044   2.725
81841SOL    HW247356   5.310   1.170   2.765
81842SOL     OW47357   9.654  12.688   7.736
81842SOL    HW147358   9.590  12.719   7.672
81842SOL    HW247359   9.696  12.614   7.694
81843SOL     OW47360   7.738   5.008  13.139
81843SOL    HW147361   7.664   4.955  13.109
81843SOL    HW247362   7.706   5.099  13.134
81844SOL     OW47363   0.950   4.890   8.217
81844SOL    HW147364   0.914   4.823   8.275
81844SOL    HW247365   0.973   4.844   8.137
81845SOL     OW47366   5.410   6.364   3.416
81845SOL    HW147367   5.339   6.327   3.364
81845SOL    HW247368   5.399   6.458   3.410
81846SOL     OW47369   3.743   8.788  11.321
81846SOL    HW147370   3.650   8.809  11.309
81846SOL    HW247371   3.770   8.752  11.236
81847SOL     OW47372   8.774   4.320   3.254
81847SOL    HW147373   8.726   4.403   3.249
81847SOL    HW247374   8.860   4.343   3.288
81848SOL     OW47375   4.063  12.147   2.134
81848SOL    HW147376   4.034  12.126   2.045
81848SOL    HW247377   4.157  12.128   2.134
81849SOL     OW47378   9.405   5.726   3.680
81849SOL    HW147379   9.426   5.817   3.660
81849SOL    HW247380   9.478   5.695   3.733
81850SOL     OW47381   9.064   5.550   8.761
81850SOL    HW147382   8.999   5.508   8.704
81850SOL    HW247383   9.102   5.620   8.708
81851SOL     OW47384   3.994   2.182  14.706
81851SOL    HW147385   4.024   2.127  14.633
81851SOL    HW247386   4.046   2.153  14.780
81852SOL     OW47387   1.847   8.330   9.938
81852SOL    HW147388   1.941   8.342   9.952
81852SOL    HW247389   1.828   8.380   9.858
81853SOL     OW47390   7.364  12.076   4.347
81853SOL    HW147391   7.428  12.086   4.418
81853SOL    HW247392   7.401  12.128   4.276
81854SOL     OW47393   9.720   2.522  10.117
81854SOL    HW147394   9.807   2.562  10.118
81854SOL    HW247395   9.727   2.448  10.177
81855SOL     OW47396   6.392   1.298  12.347
81855SOL    HW147397   6.455   1.338  12.287
81855SOL    HW247398   6.344   1.373  12.383
81856SOL     OW47399   3.331   6.771   3.743
81856SOL    HW147400   3.349   6.857   3.705
81856SOL    HW247401   3.417   6.729   3.749
81857SOL     OW47402   9.913   9.638   2.689
81857SOL    HW147403   9.845   9.615   2.625
81857SOL    HW247404   9.986   9.669   2.636
81858SOL     OW47405  11.958  14.093   6.624
81858SOL    HW147406  12.003  14.034   6.563
81858SOL    HW247407  11.909  14.153   6.569
81859SOL     OW47408   2.595   8.813  11.918
81859SOL    HW147409   2.581   8.861  11.836
81859SOL    HW247410   2.555   8.727  11.902
81860SOL     OW47411   2.699  14.688  10.126
81860SOL    HW147412   2.742  14.686  10.040
81860SOL    HW247413   2.770  14.670  10.188
81861SOL     OW47414   7.003   0.468  14.362
81861SOL    HW147415   6.937   0.399  14.355
81861SOL    HW247416   6.975   0.519  14.439
81862SOL     OW47417  13.698   2.989   0.948
81862SOL    HW147418  13.633   3.059   0.956
81862SOL    HW247419  13.656   2.912   0.987
81863SOL     OW47420   3.252   5.062   0.382
81863SOL    HW147421   3.212   5.081   0.297
81863SOL    HW247422   3.211   4.980   0.410
81864SOL     OW47423  12.894  14.806   5.658
81864SOL    HW147424  12.972  14.861   5.657
81864SOL    HW247425  12.821  14.867   5.651
81865SOL     OW47426   1.831   9.682   2.189
81865SOL    HW147427   1.748   9.646   2.158
81865SOL    HW247428   1.811   9.720   2.274
81866SOL     OW47429   0.291   2.742   9.802
81866SOL    HW147430   0.278   2.821   9.750
81866SOL    HW247431   0.369   2.701   9.765
81867SOL     OW47432  13.771  14.401   3.400
81867SOL    HW147433  13.745  14.312   3.374
81867SOL    HW247434  13.859  14.412   3.364
81868SOL     OW47435  10.934  13.962   6.197
81868SOL    HW147436  10.950  13.868   6.200
81868SOL    HW247437  10.846  13.971   6.160
81869SOL     OW47438   5.640   2.499   2.112
81869SOL    HW147439   5.631   2.405   2.097
81869SOL    HW247440   5.610   2.540   2.031
81870SOL     OW47441  12.804   1.500  13.768
81870SOL    HW147442  12.858   1.473  13.842
81870SOL    HW247443  12.717   1.515  13.806
81871SOL     OW47444  11.896  14.212   7.663
81871SOL    HW147445  11.949  14.232   7.586
81871SOL    HW247446  11.818  14.169   7.628
81872SOL     OW47447   8.096   8.486   7.554
81872SOL    HW147448   8.179   8.444   7.531
81872SOL    HW247449   8.119   8.578   7.568
81873SOL     OW47450   8.158   6.880   5.164
81873SOL    HW147451   8.212   6.868   5.243
81873SOL    HW247452   8.068   6.869   5.195
81874SOL     OW47453   1.097   6.723   0.888
81874SOL    HW147454   1.129   6.813   0.890
81874SOL    HW247455   1.062   6.712   0.799
81875SOL     OW47456  13.959   7.588   8.644
81875SOL    HW147457  13.905   7.562   8.718
81875SOL    HW247458  14.017   7.512   8.629
81876SOL     OW47459   5.248   4.111  14.671
81876SOL    HW147460   5.269   4.187  14.618
81876SOL    HW247461   5.172   4.071  14.628
81877SOL     OW47462   4.155   6.900   3.954
81877SOL    HW147463   4.188   6.959   3.886
81877SOL    HW247464   4.076   6.862   3.917
81878SOL     OW47465   6.867   0.159   8.120
81878SOL    HW147466   6.854   0.145   8.214
81878SOL    HW247467   6.779   0.176   8.086
81879SOL     OW47468  11.224   3.531   5.914
81879SOL    HW147469  11.148   3.571   5.956
81879SOL    HW247470  11.251   3.594   5.848
81880SOL     OW47471   0.037   3.941   7.378
81880SOL    HW147472  14.851   3.957   7.444
81880SOL    HW247473   0.083   3.863   7.410
81881SOL     OW47474   0.474   7.481   0.727
81881SOL    HW147475   0.427   7.556   0.763
81881SOL    HW247476   0.559   7.516   0.700
81882SOL     OW47477  13.588   2.517   8.603
81882SOL    HW147478  13.603   2.536   8.510
81882SOL    HW247479  13.670   2.542   8.646
81883SOL     OW47480   9.126  14.139   5.653
81883SOL    HW147481   9.064  14.164   5.584
81883SOL    HW247482   9.120  14.209   5.718
81884SOL     OW47483  13.487   9.365   0.969
81884SOL    HW147484  13.465   9.447   0.924
81884SOL    HW247485  13.443   9.372   1.054
81885SOL     OW47486   7.725   7.641   0.946
81885SOL    HW147487   7.675   7.723   0.944
81885SOL    HW247488   7.722   7.610   0.855
81886SOL     OW47489   8.948   6.213  13.997
81886SOL    HW147490   8.988   6.126  13.993
81886SOL    HW247491   8.953   6.245  13.907
81887SOL     OW47492   7.356  10.290  13.227
81887SOL    HW147493   7.444  10.290  13.189
81887SOL    HW247494   7.301  10.329  13.159
81888SOL     OW47495   3.446   0.454  13.264
81888SOL    HW147496   3.385   0.507  13.214
81888SOL    HW247497   3.424   0.363  13.241
81889SOL     OW47498  10.761   7.942  12.303
81889SOL    HW147499  10.778   8.034  12.322
81889SOL    HW247500  10.688   7.943  12.241
81890SOL     OW47501   7.112  10.014   8.643
81890SOL    HW147502   7.110  10.053   8.556
81890SOL    HW247503   7.170   9.938   8.633
81891SOL     OW47504   4.349   6.844   7.220
81891SOL    HW147505   4.294   6.899   7.275
81891SOL    HW247506   4.383   6.777   7.280
81892SOL     OW47507   2.290   5.659   9.671
81892SOL    HW147508   2.348   5.729   9.640
81892SOL    HW247509   2.300   5.589   9.606
81893SOL     OW47510   7.811  14.044   1.234
81893SOL    HW147511   7.748  14.068   1.166
81893SOL    HW247512   7.763  14.052   1.316
81894SOL     OW47513   8.724   8.715   3.930
81894SOL    HW147514   8.773   8.687   4.007
81894SOL    HW247515   8.747   8.651   3.862
81895SOL     OW47516   5.403   6.859   0.937
81895SOL    HW147517   5.317   6.832   0.970
81895SOL    HW247518   5.393   6.859   0.842
81896SOL     OW47519  11.717   4.094  10.371
81896SOL    HW147520  11.739   4.131  10.286
81896SOL    HW247521  11.774   4.018  10.381
81897SOL     OW47522   7.034   8.454   4.346
81897SOL    HW147523   7.087   8.530   4.371
81897SOL    HW247524   7.073   8.381   4.393
81898SOL     OW47525  10.591   0.335   5.648
81898SOL    HW147526  10.663   0.351   5.709
81898SOL    HW247527  10.592   0.410   5.589
81899SOL     OW47528   2.465  11.578   1.574
81899SOL    HW147529   2.420  11.531   1.503
81899SOL    HW247530   2.547  11.608   1.535
81900SOL     OW47531  11.971   3.649  13.167
81900SOL    HW147532  11.984   3.554  13.171
81900SOL    HW247533  11.903   3.661  13.101
81901SOL     OW47534   0.574   8.836   9.928
81901SOL    HW147535   0.567   8.801  10.017
81901SOL    HW247536   0.635   8.777   9.883
81902SOL     OW47537   3.592   8.212   2.775
81902SOL    HW147538   3.519   8.239   2.719
81902SOL    HW247539   3.565   8.237   2.863
81903SOL     OW47540   4.494  13.383  13.768
81903SOL    HW147541   4.434  13.422  13.832
81903SOL    HW247542   4.440  13.322  13.718
81904SOL     OW47543   9.481  14.228   7.952
81904SOL    HW147544   9.531  14.146   7.958
81904SOL    HW247545   9.390  14.200   7.947
81905SOL     OW47546   9.011  10.892   4.195
81905SOL    HW147547   9.055  10.843   4.265
81905SOL    HW247548   9.051  10.860   4.114
81906SOL     OW47549  12.852   8.042  11.626
81906SOL    HW147550  12.898   8.096  11.562
81906SOL    HW247551  12.879   8.076  11.711
81907SOL     OW47552   1.333   9.439   3.365
81907SOL    HW147553   1.250   9.411   3.326
81907SOL    HW247554   1.343   9.383   3.442
81908SOL     OW47555   7.134   3.301  13.657
81908SOL    HW147556   7.118   3.238  13.727
81908SOL    HW247557   7.223   3.284  13.628
81909SOL     OW47558   7.478  12.857   7.957
81909SOL    HW147559   7.520  12.792   7.900
81909SOL    HW247560   7.500  12.828   8.045
81910SOL     OW47561  13.454   7.157   5.348
81910SOL    HW147562  13.440   7.235   5.294
81910SOL    HW247563  13.548   7.141   5.343
81911SOL     OW47564   4.688   9.581   4.257
81911SOL    HW147565   4.738   9.660   4.236
81911SOL    HW247566   4.610   9.615   4.301
81912SOL     OW47567   7.062   2.197  11.368
81912SOL    HW147568   7.105   2.154  11.294
81912SOL    HW247569   7.118   2.272  11.389
81913SOL     OW47570   6.232   7.953   4.414
81913SOL    HW147571   6.202   7.863   4.406
81913SOL    HW247572   6.307   7.949   4.473
81914SOL     OW47573   8.342  11.536   1.086
81914SOL    HW147574   8.421  11.529   1.140
81914SOL    HW247575   8.374  11.567   1.001
81915SOL     OW47576   3.583   8.510   5.463
81915SOL    HW147577   3.675   8.526   5.445
81915SOL    HW247578   3.554   8.452   5.393
81916SOL     OW47579   4.626   6.133   7.349
81916SOL    HW147580   4.566   6.067   7.314
81916SOL    HW247581   4.712   6.107   7.315
81917SOL     OW47582  10.139  13.242   8.386
81917SOL    HW147583  10.197  13.172   8.417
81917SOL    HW247584  10.063  13.238   8.444
81918SOL     OW47585   9.344   1.716  13.065
81918SOL    HW147586   9.307   1.643  13.015
81918SOL    HW247587   9.282   1.787  13.053
81919SOL     OW47588  12.332   0.440  12.974
81919SOL    HW147589  12.303   0.497  13.045
81919SOL    HW247590  12.290   0.356  12.992
81920SOL     OW47591  10.000   2.567   3.386
81920SOL    HW147592   9.924   2.557   3.443
81920SOL    HW247593  10.020   2.661   3.389
81921SOL     OW47594  11.439   7.059   2.852
81921SOL    HW147595  11.468   7.040   2.763
81921SOL    HW247596  11.516   7.045   2.906
81922SOL     OW47597   7.708  12.246  13.998
81922SOL    HW147598   7.617  12.267  13.975
81922SOL    HW247599   7.700  12.180  14.066
81923SOL     OW47600   9.831  11.150   4.186
81923SOL    HW147601   9.905  11.203   4.159
81923SOL    HW247602   9.755  11.189   4.142
81924SOL     OW47603  12.907   0.167   5.408
81924SOL    HW147604  12.820   0.160   5.448
81924SOL    HW247605  12.905   0.105   5.336
81925SOL     OW47606  13.436  14.654   4.287
81925SOL    HW147607  13.459  14.639   4.379
81925SOL    HW247608  13.508  14.706   4.252
81926SOL     OW47609   9.925   1.815   7.175
81926SOL    HW147610   9.873   1.853   7.103
81926SOL    HW247611   9.955   1.891   7.225
81927SOL     OW47612   1.811  12.237  11.041
81927SOL    HW147613   1.787  12.247  11.134
81927SOL    HW247614   1.894  12.190  11.043
81928SOL     OW47615  11.844  11.898  10.477
81928SOL    HW147616  11.822  11.806  10.462
81928SOL    HW247617  11.894  11.923  10.400
81929SOL     OW47618  13.997   1.808  14.880
81929SOL    HW147619  13.953   1.853   0.071
81929SOL    HW247620  13.951   1.724  14.874
81930SOL     OW47621   0.816   8.917   7.607
81930SOL    HW147622   0.839   9.007   7.630
81930SOL    HW247623   0.886   8.863   7.646
81931SOL     OW47624   3.922   6.129  11.058
81931SOL    HW147625   3.919   6.056  10.996
81931SOL    HW247626   3.950   6.204  11.005
81932SOL     OW47627   9.656  13.604   1.161
81932SOL    HW147628   9.568  13.613   1.125
81932SOL    HW247629   9.706  13.559   1.093
81933SOL     OW47630   1.553   9.188  11.899
81933SOL    HW147631   1.465   9.200  11.862
81933SOL    HW247632   1.538   9.143  11.981
81934SOL     OW47633   5.498  13.901   4.051
81934SOL    HW147634   5.584  13.918   4.013
81934SOL    HW247635   5.516  13.866   4.138
81935SOL     OW47636   9.765  10.357   1.397
81935SOL    HW147637   9.752  10.391   1.309
81935SOL    HW247638   9.860  10.360   1.411
81936SOL     OW47639  10.487   6.953  11.498
81936SOL    HW147640  10.469   6.888  11.566
81936SOL    HW247641  10.439   6.922  11.421
81937SOL     OW47642   2.683   6.463   2.413
81937SOL    HW147643   2.663   6.458   2.320
81937SOL    HW247644   2.745   6.391   2.429
81938SOL     OW47645  13.920  12.491   6.092
81938SOL    HW147646  13.920  12.486   5.997
81938SOL    HW247647  13.869  12.569   6.113
81939SOL     OW47648   1.053  13.999   8.807
81939SOL    HW147649   0.994  13.975   8.879
81939SOL    HW247650   1.032  13.938   8.737
81940SOL     OW47651   6.075   8.682   4.491
81940SOL    HW147652   6.091   8.675   4.397
81940SOL    HW247653   6.061   8.592   4.520
81941SOL     OW47654  14.606   1.470   3.975
81941SOL    HW147655  14.647   1.384   3.961
81941SOL    HW247656  14.575   1.496   3.889
81942SOL     OW47657  14.578   7.628   6.930
81942SOL    HW147658  14.551   7.669   7.013
81942SOL    HW247659  14.648   7.685   6.897
81943SOL     OW47660  12.383  13.681   6.769
81943SOL    HW147661  12.461  13.626   6.776
81943SOL    HW247662  12.316  13.634   6.818
81944SOL     OW47663   3.846  12.795   7.699
81944SOL    HW147664   3.838  12.816   7.606
81944SOL    HW247665   3.804  12.709   7.707
81945SOL     OW47666   0.626   8.054   1.936
81945SOL    HW147667   0.693   7.986   1.944
81945SOL    HW247668   0.543   8.006   1.938
81946SOL     OW47669   7.720   0.555  13.081
81946SOL    HW147670   7.651   0.495  13.109
81946SOL    HW247671   7.778   0.501  13.027
81947SOL     OW47672   2.200   4.798   2.688
81947SOL    HW147673   2.179   4.784   2.596
81947SOL    HW247674   2.151   4.731   2.735
81948SOL     OW47675   7.753   3.668   1.104
81948SOL    HW147676   7.774   3.575   1.108
81948SOL    HW247677   7.832   3.713   1.135
81949SOL     OW47678   6.317  12.905   1.051
81949SOL    HW147679   6.354  12.951   1.126
81949SOL    HW247680   6.227  12.884   1.076
81950SOL     OW47681   1.199   4.227  12.339
81950SOL    HW147682   1.162   4.185  12.262
81950SOL    HW247683   1.267   4.167  12.369
81951SOL     OW47684   5.325  10.766   2.465
81951SOL    HW147685   5.394  10.716   2.420
81951SOL    HW247686   5.362  10.785   2.551
81952SOL     OW47687   7.247  12.318  12.036
81952SOL    HW147688   7.301  12.313  12.114
81952SOL    HW247689   7.278  12.396  11.990
81953SOL     OW47690  12.704   0.527   3.222
81953SOL    HW147691  12.670   0.438   3.232
81953SOL    HW247692  12.712   0.539   3.128
81954SOL     OW47693  12.050  13.912   7.498
81954SOL    HW147694  12.067  13.998   7.461
81954SOL    HW247695  11.960  13.916   7.530
81955SOL     OW47696   5.430   3.889   8.745
81955SOL    HW147697   5.351   3.842   8.771
81955SOL    HW247698   5.408   3.932   8.663
81956SOL     OW47699  10.337  11.509  12.929
81956SOL    HW147700  10.376  11.555  13.003
81956SOL    HW247701  10.369  11.556  12.852
81957SOL     OW47702   0.948  14.448   0.848
81957SOL    HW147703   0.861  14.419   0.822
81957SOL    HW247704   0.940  14.465   0.942
81958SOL     OW47705  14.343   2.136   9.504
81958SOL    HW147706  14.324   2.061   9.561
81958SOL    HW247707  14.409   2.104   9.442
81959SOL     OW47708   0.735   5.059   2.874
81959SOL    HW147709   0.819   5.052   2.830
81959SOL    HW247710   0.723   4.976   2.918
81960SOL     OW47711   6.898   1.765  12.321
81960SOL    HW147712   6.964   1.703  12.351
81960SOL    HW247713   6.836   1.772  12.394
81961SOL     OW47714   5.357   0.183   7.380
81961SOL    HW147715   5.410   0.152   7.453
81961SOL    HW247716   5.317   0.264   7.411
81962SOL     OW47717   8.425   4.881  14.096
81962SOL    HW147718   8.471   4.961  14.120
81962SOL    HW247719   8.483   4.810  14.123
81963SOL     OW47720  11.710  11.741   8.532
81963SOL    HW147721  11.677  11.791   8.458
81963SOL    HW247722  11.790  11.699   8.498
81964SOL     OW47723   0.585   7.506  11.471
81964SOL    HW147724   0.518   7.575  11.475
81964SOL    HW247725   0.560   7.445  11.540
81965SOL     OW47726  11.279   3.340   1.774
81965SOL    HW147727  11.185   3.343   1.753
81965SOL    HW247728  11.296   3.423   1.819
81966SOL     OW47729  14.733   5.162  10.599
81966SOL    HW147730  14.825   5.157  10.574
81966SOL    HW247731  14.686   5.125  10.524
81967SOL     OW47732   9.617  11.631  13.745
81967SOL    HW147733   9.663  11.599  13.668
81967SOL    HW247734   9.545  11.570  13.758
81968SOL     OW47735  12.315   7.793   0.922
81968SOL    HW147736  12.357   7.803   0.837
81968SOL    HW247737  12.372   7.839   0.983
81969SOL     OW47738   8.076   9.764   3.929
81969SOL    HW147739   8.134   9.689   3.917
81969SOL    HW247740   7.988   9.727   3.924
81970SOL     OW47741  11.807   1.257   0.671
81970SOL    HW147742  11.880   1.202   0.699
81970SOL    HW247743  11.753   1.199   0.618
81971SOL     OW47744   0.222  13.585   5.790
81971SOL    HW147745   0.221  13.623   5.878
81971SOL    HW247746   0.286  13.637   5.742
81972SOL     OW47747   3.057  11.790  13.830
81972SOL    HW147748   3.140  11.759  13.866
81972SOL    HW247749   2.991  11.757  13.892
81973SOL     OW47750   5.677   6.137  11.186
81973SOL    HW147751   5.760   6.179  11.208
81973SOL    HW247752   5.628   6.136  11.269
81974SOL     OW47753  12.239   6.002   8.312
81974SOL    HW147754  12.213   5.911   8.299
81974SOL    HW247755  12.159   6.053   8.300
81975SOL     OW47756   9.785   0.377   8.101
81975SOL    HW147757   9.716   0.383   8.167
81975SOL    HW247758   9.739   0.354   8.020
81976SOL     OW47759   4.812   6.119   7.582
81976SOL    HW147760   4.826   6.026   7.603
81976SOL    HW247761   4.784   6.119   7.491
81977SOL     OW47762  10.065   7.646  13.272
81977SOL    HW147763  10.106   7.717  13.222
81977SOL    HW247764   9.976   7.641  13.238
81978SOL     OW47765   2.235   2.278   8.108
81978SOL    HW147766   2.316   2.328   8.114
81978SOL    HW247767   2.183   2.307   8.183
81979SOL     OW47768  11.048   8.049   5.300
81979SOL    HW147769  11.112   8.095   5.355
81979SOL    HW247770  11.014   7.980   5.356
81980SOL     OW47771   6.423   7.430   3.912
81980SOL    HW147772   6.428   7.397   3.822
81980SOL    HW247773   6.469   7.514   3.909
81981SOL     OW47774   9.594  14.747  12.755
81981SOL    HW147775   9.515  14.754  12.809
81981SOL    HW247776   9.564  14.766  12.666
81982SOL     OW47777   8.405   4.403   1.258
81982SOL    HW147778   8.458   4.324   1.266
81982SOL    HW247779   8.350   4.404   1.336
81983SOL     OW47780   7.110   5.061   6.066
81983SOL    HW147781   7.016   5.050   6.079
81983SOL    HW247782   7.118   5.104   5.981
81984SOL     OW47783   6.440   5.256   8.125
81984SOL    HW147784   6.505   5.197   8.165
81984SOL    HW247785   6.417   5.317   8.196
81985SOL     OW47786   2.109   0.434   0.213
81985SOL    HW147787   2.043   0.386   0.264
81985SOL    HW247788   2.062   0.511   0.180
81986SOL     OW47789  13.317  10.208   9.499
81986SOL    HW147790  13.272  10.155   9.566
81986SOL    HW247791  13.277  10.295   9.507
81987SOL     OW47792  13.946  13.453   7.959
81987SOL    HW147793  13.974  13.365   7.984
81987SOL    HW247794  13.997  13.512   8.015
81988SOL     OW47795  10.146  13.674  14.693
81988SOL    HW147796  10.134  13.662  14.788
81988SOL    HW247797  10.134  13.768  14.679
81989SOL     OW47798   0.956  13.447  12.501
81989SOL    HW147799   1.044  13.432  12.533
81989SOL    HW247800   0.909  13.366  12.520
81990SOL     OW47801   4.297  13.463   1.011
81990SOL    HW147802   4.224  13.418   1.054
81990SOL    HW247803   4.374  13.414   1.040
81991SOL     OW47804   4.227  14.615   8.548
81991SOL    HW147805   4.276  14.593   8.468
81991SOL    HW247806   4.176  14.536   8.567
81992SOL     OW47807   7.664  11.716  13.258
81992SOL    HW147808   7.588  11.738  13.205
81992SOL    HW247809   7.710  11.799  13.269
81993SOL     OW47810   1.805   1.103   8.793
81993SOL    HW147811   1.815   1.037   8.862
81993SOL    HW247812   1.772   1.054   8.718
81994SOL     OW47813   7.874   0.442   4.143
81994SOL    HW147814   7.940   0.496   4.100
81994SOL    HW247815   7.810   0.505   4.178
81995SOL     OW47816  11.749  11.536   5.732
81995SOL    HW147817  11.758  11.528   5.827
81995SOL    HW247818  11.763  11.629   5.715
81996SOL     OW47819  11.909  12.478  12.086
81996SOL    HW147820  11.858  12.426  12.149
81996SOL    HW247821  11.997  12.442  12.091
81997SOL     OW47822   5.217  10.958  10.298
81997SOL    HW147823   5.173  11.037  10.328
81997SOL    HW247824   5.305  10.987  10.273
81998SOL     OW47825   2.742  10.163  13.696
81998SOL    HW147826   2.780  10.171  13.608
81998SOL    HW247827   2.663  10.216  13.693
81999SOL     OW47828   3.354   1.898   3.756
81999SOL    HW147829   3.421   1.933   3.814
81999SOL    HW247830   3.367   1.944   3.673
82000SOL     OW47831   0.992   8.708  11.094
82000SOL    HW147832   1.012   8.743  11.181
82000SOL    HW247833   1.078   8.686  11.057
82001SOL     OW47834   7.799  12.895   8.403
82001SOL    HW147835   7.794  12.837   8.326
82001SOL    HW247836   7.873  12.862   8.453
82002SOL     OW47837   9.274  10.926  14.306
82002SOL    HW147838   9.262  10.832  14.290
82002SOL    HW247839   9.197  10.952  14.357
82003SOL     OW47840  12.670   0.862   5.097
82003SOL    HW147841  12.668   0.838   5.190
82003SOL    HW247842  12.717   0.946   5.095
82004SOL     OW47843   0.926  11.981  10.935
82004SOL    HW147844   0.951  11.907  10.879
82004SOL    HW247845   0.834  11.965  10.956
82005SOL     OW47846   2.842  13.293  14.759
82005SOL    HW147847   2.848  13.346  14.679
82005SOL    HW247848   2.750  13.267  14.763
82006SOL     OW47849   4.689   3.321   9.527
82006SOL    HW147850   4.596   3.307   9.512
82006SOL    HW247851   4.704   3.413   9.505
82007SOL     OW47852  11.273   3.777   8.253
82007SOL    HW147853  11.254   3.796   8.345
82007SOL    HW247854  11.353   3.826   8.234
82008SOL     OW47855  13.502   9.840   7.705
82008SOL    HW147856  13.521   9.836   7.799
82008SOL    HW247857  13.586   9.823   7.663
82009SOL     OW47858  14.261   1.837   9.297
82009SOL    HW147859  14.239   1.929   9.290
82009SOL    HW247860  14.183   1.791   9.266
82010SOL     OW47861   3.019   3.567  13.433
82010SOL    HW147862   3.062   3.603  13.356
82010SOL    HW247863   3.091   3.538  13.489
82011SOL     OW47864   7.038   8.400   7.843
82011SOL    HW147865   7.057   8.395   7.749
82011SOL    HW247866   7.114   8.360   7.885
82012SOL     OW47867   2.142  11.715  13.253
82012SOL    HW147868   2.147  11.782  13.184
82012SOL    HW247869   2.068  11.660  13.227
82013SOL     OW47870  14.776   5.672   9.771
82013SOL    HW147871  14.692   5.671   9.724
82013SOL    HW247872  14.754   5.708   9.857
82014SOL     OW47873   4.398  12.641   8.707
82014SOL    HW147874   4.307  12.662   8.687
82014SOL    HW247875   4.429  12.592   8.631
82015SOL     OW47876   5.447   9.044  12.990
82015SOL    HW147877   5.442   9.106  12.917
82015SOL    HW247878   5.448   8.958  12.949
82016SOL     OW47879   1.157   0.340   4.369
82016SOL    HW147880   1.097   0.355   4.296
82016SOL    HW247881   1.135   0.252   4.401
82017SOL     OW47882   1.875   5.272  10.895
82017SOL    HW147883   1.782   5.271  10.918
82017SOL    HW247884   1.890   5.191  10.848
82018SOL     OW47885   8.090   4.319  14.548
82018SOL    HW147886   8.169   4.284  14.507
82018SOL    HW247887   8.119   4.400  14.591
82019SOL     OW47888   1.971  13.456  12.649
82019SOL    HW147889   1.919  13.417  12.578
82019SOL    HW247890   2.061  13.448  12.619
82020SOL     OW47891  14.597  11.741   6.904
82020SOL    HW147892  14.514  11.717   6.863
82020SOL    HW247893  14.641  11.797   6.840
82021SOL     OW47894   8.881   6.050   2.669
82021SOL    HW147895   8.856   6.045   2.762
82021SOL    HW247896   8.973   6.076   2.670
82022SOL     OW47897  14.288   6.911   1.245
82022SOL    HW147898  14.257   6.821   1.232
82022SOL    HW247899  14.364   6.902   1.303
82023SOL     OW47900   5.221   7.138   0.939
82023SOL    HW147901   5.177   7.190   1.006
82023SOL    HW247902   5.306   7.117   0.977
82024SOL     OW47903  11.100  11.432   2.671
82024SOL    HW147904  11.116  11.526   2.668
82024SOL    HW247905  11.177  11.396   2.716
82025SOL     OW47906  10.894   7.028   2.021
82025SOL    HW147907  10.853   6.951   2.061
82025SOL    HW247908  10.821   7.075   1.981
82026SOL     OW47909   0.292  13.433   8.557
82026SOL    HW147910   0.210  13.396   8.523
82026SOL    HW247911   0.294  13.522   8.523
82027SOL     OW47912  12.439   6.853   0.625
82027SOL    HW147913  12.511   6.790   0.633
82027SOL    HW247914  12.363   6.800   0.604
82028SOL     OW47915  14.662  11.879   2.295
82028SOL    HW147916  14.582  11.915   2.257
82028SOL    HW247917  14.706  11.955   2.334
82029SOL     OW47918   1.251   5.586   4.149
82029SOL    HW147919   1.278   5.648   4.081
82029SOL    HW247920   1.263   5.500   4.108
82030SOL     OW47921   1.499   3.579  10.576
82030SOL    HW147922   1.410   3.613  10.587
82030SOL    HW247923   1.554   3.657  10.570
82031SOL     OW47924  13.280   6.223   3.493
82031SOL    HW147925  13.243   6.283   3.558
82031SOL    HW247926  13.325   6.280   3.431
82032SOL     OW47927   7.418   3.840  11.617
82032SOL    HW147928   7.327   3.828  11.643
82032SOL    HW247929   7.416   3.914  11.556
82033SOL     OW47930  11.676  13.518   4.551
82033SOL    HW147931  11.649  13.607   4.527
82033SOL    HW247932  11.769  13.516   4.532
82034SOL     OW47933   9.962   6.458  11.606
82034SOL    HW147934   9.905   6.522  11.646
82034SOL    HW247935   9.978   6.393  11.674
82035SOL     OW47936   5.557   2.812  11.624
82035SOL    HW147937   5.644   2.827  11.587
82035SOL    HW247938   5.548   2.717  11.629
82036SOL     OW47939  13.185   4.860  10.145
82036SOL    HW147940  13.121   4.914  10.193
82036SOL    HW247941  13.170   4.882  10.053
82037SOL     OW47942  10.193   5.982   9.899
82037SOL    HW147943  10.127   5.943   9.843
82037SOL    HW247944  10.144   6.017   9.973
82038SOL     OW47945   2.234   2.054   4.389
82038SOL    HW147946   2.218   2.140   4.427
82038SOL    HW247947   2.147   2.019   4.371
82039SOL     OW47948  13.948   3.443   9.761
82039SOL    HW147949  14.014   3.374   9.762
82039SOL    HW247950  13.881   3.412   9.822
82040SOL     OW47951   8.910   0.396   4.471
82040SOL    HW147952   8.849   0.377   4.543
82040SOL    HW247953   8.868   0.356   4.395
82041SOL     OW47954   2.139  12.346  12.693
82041SOL    HW147955   2.165  12.282  12.759
82041SOL    HW247956   2.078  12.404  12.740
82042SOL     OW47957   6.054  11.805   4.182
82042SOL    HW147958   6.095  11.742   4.124
82042SOL    HW247959   6.071  11.890   4.141
82043SOL     OW47960   0.813   8.439  12.011
82043SOL    HW147961   0.869   8.444  11.934
82043SOL    HW247962   0.815   8.347  12.036
82044SOL     OW47963  11.679   8.476  11.473
82044SOL    HW147964  11.682   8.385  11.444
82044SOL    HW247965  11.640   8.472  11.561
82045SOL     OW47966  13.749   0.252   4.024
82045SOL    HW147967  13.776   0.162   4.005
82045SOL    HW247968  13.785   0.270   4.111
82046SOL     OW47969   2.731  13.041   3.737
82046SOL    HW147970   2.649  13.003   3.706
82046SOL    HW247971   2.708  13.130   3.763
82047SOL     OW47972   5.638   1.779   2.852
82047SOL    HW147973   5.658   1.746   2.765
82047SOL    HW247974   5.612   1.701   2.902
82048SOL     OW47975   2.678   7.248   9.623
82048SOL    HW147976   2.659   7.156   9.639
82048SOL    HW247977   2.771   7.258   9.643
82049SOL     OW47978   4.544   5.387   0.291
82049SOL    HW147979   4.535   5.302   0.247
82049SOL    HW247980   4.609   5.434   0.238
82050SOL     OW47981   4.658  14.765   3.876
82050SOL    HW147982   4.650  14.709   3.953
82050SOL    HW247983   4.728  14.725   3.824
82051SOL     OW47984   2.795   3.224  12.369
82051SOL    HW147985   2.785   3.129  12.361
82051SOL    HW247986   2.839   3.251  12.288
82052SOL     OW47987   1.329   1.912   6.950
82052SOL    HW147988   1.384   1.988   6.970
82052SOL    HW247989   1.379   1.864   6.884
82053SOL     OW47990   5.446   7.094   1.923
82053SOL    HW147991   5.462   7.025   1.987
82053SOL    HW247992   5.382   7.152   1.965
82054SOL     OW47993   0.675  11.790   8.937
82054SOL    HW147994   0.712  11.784   8.849
82054SOL    HW247995   0.584  11.814   8.924
82055SOL     OW47996  10.036   7.820   9.266
82055SOL    HW147997   9.956   7.804   9.316
82055SOL    HW247998  10.078   7.893   9.312
82056SOL     OW47999   0.869   1.907  14.644
82056SOL    HW148000   0.823   1.836  14.690
82056SOL    HW248001   0.946   1.925  14.699
82057SOL     OW48002   9.508  11.885  11.989
82057SOL    HW148003   9.428  11.856  12.033
82057SOL    HW248004   9.573  11.820  12.014
82058SOL     OW48005  14.851  11.404  11.512
82058SOL    HW148006  14.828  11.380  11.602
82058SOL    HW248007   0.023  11.332  11.481
82059SOL     OW48008   6.712  12.594   6.111
82059SOL    HW148009   6.636  12.610   6.167
82059SOL    HW248010   6.783  12.578   6.173
82060SOL     OW48011   2.442   2.463   7.525
82060SOL    HW148012   2.348   2.449   7.535
82060SOL    HW248013   2.449   2.546   7.478
82061SOL     OW48014  11.657   2.178   8.804
82061SOL    HW148015  11.600   2.174   8.881
82061SOL    HW248016  11.598   2.165   8.730
82062SOL     OW48017   1.159   4.989  10.691
82062SOL    HW148018   1.127   4.899  10.692
82062SOL    HW248019   1.251   4.983  10.718
82063SOL     OW48020   8.204  10.840  13.674
82063SOL    HW148021   8.270  10.797  13.728
82063SOL    HW248022   8.215  10.801  13.587
82064SOL     OW48023   3.394   8.008   5.034
82064SOL    HW148024   3.459   7.997   5.103
82064SOL    HW248025   3.435   7.971   4.956
82065SOL     OW48026   0.748   5.895   0.054
82065SOL    HW148027   0.780   5.809   0.081
82065SOL    HW248028   0.826   5.943   0.026
82066SOL     OW48029   7.275   0.366  13.501
82066SOL    HW148030   7.254   0.458  13.516
82066SOL    HW248031   7.208   0.318  13.550
82067SOL     OW48032   6.084   3.278   7.775
82067SOL    HW148033   6.001   3.259   7.818
82067SOL    HW248034   6.115   3.193   7.744
82068SOL     OW48035  10.261   6.444   6.490
82068SOL    HW148036  10.202   6.439   6.566
82068SOL    HW248037  10.208   6.485   6.421
82069SOL     OW48038   7.452   0.703   2.686
82069SOL    HW148039   7.421   0.656   2.763
82069SOL    HW248040   7.423   0.793   2.699
82070SOL     OW48041  13.851   7.378   1.904
82070SOL    HW148042  13.802   7.433   1.843
82070SOL    HW248043  13.789   7.310   1.929
82071SOL     OW48044   7.917  13.091  12.362
82071SOL    HW148045   7.968  13.012  12.376
82071SOL    HW248046   7.980  13.154  12.328
82072SOL     OW48047   1.082  10.025   4.907
82072SOL    HW148048   1.000   9.988   4.875
82072SOL    HW248049   1.144   9.952   4.903
82073SOL     OW48050   2.625   6.438  13.943
82073SOL    HW148051   2.642   6.409  14.033
82073SOL    HW248052   2.573   6.367  13.905
82074SOL     OW48053  14.777   1.015   1.897
82074SOL    HW148054  14.755   1.101   1.934
82074SOL    HW248055  14.778   0.956   1.973
82075SOL     OW48056  10.693   4.726   4.969
82075SOL    HW148057  10.775   4.736   5.019
82075SOL    HW248058  10.709   4.650   4.912
82076SOL     OW48059  13.896   3.560   6.761
82076SOL    HW148060  13.988   3.588   6.759
82076SOL    HW248061  13.888   3.498   6.689
82077SOL     OW48062  13.056  14.641   9.800
82077SOL    HW148063  13.059  14.703   9.873
82077SOL    HW248064  13.061  14.554   9.842
82078SOL     OW48065  11.999   7.354  10.012
82078SOL    HW148066  11.962   7.441   9.998
82078SOL    HW248067  11.986   7.309   9.928
82079SOL     OW48068  14.197   8.925  11.296
82079SOL    HW148069  14.278   8.958  11.335
82079SOL    HW248070  14.146   9.004  11.276
82080SOL     OW48071   6.289  14.013  13.821
82080SOL    HW148072   6.209  13.987  13.775
82080SOL    HW248073   6.340  13.932  13.828
82081SOL     OW48074   6.289   1.382   8.127
82081SOL    HW148075   6.359   1.357   8.067
82081SOL    HW248076   6.242   1.300   8.145
82082SOL     OW48077   2.938   9.329   3.845
82082SOL    HW148078   2.866   9.345   3.784
82082SOL    HW248079   2.895   9.303   3.926
82083SOL     OW48080   5.224  11.834   7.829
82083SOL    HW148081   5.295  11.782   7.792
82083SOL    HW248082   5.168  11.855   7.755
82084SOL     OW48083   0.512   8.849   1.795
82084SOL    HW148084   0.481   8.786   1.730
82084SOL    HW248085   0.572   8.905   1.748
82085SOL     OW48086  12.936   5.944  13.598
82085SOL    HW148087  12.888   5.967  13.677
82085SOL    HW248088  12.958   6.028  13.558
82086SOL     OW48089  12.304   9.954  10.720
82086SOL    HW148090  12.281   9.891  10.787
82086SOL    HW248091  12.326  10.034  10.768
82087SOL     OW48092   8.229   8.759   8.094
82087SOL    HW148093   8.164   8.826   8.073
82087SOL    HW248094   8.230   8.757   8.190
82088SOL     OW48095   1.681   9.815   4.458
82088SOL    HW148096   1.730   9.799   4.378
82088SOL    HW248097   1.748   9.835   4.524
82089SOL     OW48098   4.661   6.678  14.554
82089SOL    HW148099   4.745   6.647  14.590
82089SOL    HW248100   4.598   6.610  14.580
82090SOL     OW48101  11.226   4.392   9.813
82090SOL    HW148102  11.173   4.382   9.734
82090SOL    HW248103  11.298   4.330   9.802
82091SOL     OW48104   5.625   2.405   5.478
82091SOL    HW148105   5.593   2.358   5.401
82091SOL    HW248106   5.594   2.353   5.553
82092SOL     OW48107  11.706   7.595   5.044
82092SOL    HW148108  11.623   7.569   5.086
82092SOL    HW248109  11.770   7.533   5.078
82093SOL     OW48110  12.373   7.742  10.223
82093SOL    HW148111  12.444   7.786  10.270
82093SOL    HW248112  12.417   7.677  10.169
82094SOL     OW48113   6.037   8.930  12.773
82094SOL    HW148114   5.946   8.954  12.758
82094SOL    HW248115   6.067   8.991  12.840
82095SOL     OW48116   3.900  10.353   7.519
82095SOL    HW148117   3.959  10.421   7.552
82095SOL    HW248118   3.851  10.324   7.596
82096SOL     OW48119   6.698   4.480   8.428
82096SOL    HW148120   6.729   4.512   8.513
82096SOL    HW248121   6.694   4.558   8.373
82097SOL     OW48122   1.625   3.437   7.132
82097SOL    HW148123   1.553   3.379   7.108
82097SOL    HW248124   1.679   3.385   7.191
82098SOL     OW48125  13.677   2.828  12.605
82098SOL    HW148126  13.729   2.896  12.648
82098SOL    HW248127  13.639   2.872  12.529
82099SOL     OW48128  10.661   4.059   6.382
82099SOL    HW148129  10.612   4.092   6.457
82099SOL    HW248130  10.622   3.973   6.364
82100SOL     OW48131   5.341   7.530   7.866
82100SOL    HW148132   5.281   7.566   7.801
82100SOL    HW248133   5.412   7.594   7.872
82101SOL     OW48134  12.180   9.407  12.313
82101SOL    HW148135  12.244   9.338  12.332
82101SOL    HW248136  12.224   9.488  12.339
82102SOL     OW48137   9.326   7.871   7.627
82102SOL    HW148138   9.324   7.953   7.676
82102SOL    HW248139   9.245   7.826   7.652
82103SOL     OW48140   3.843  10.955   9.601
82103SOL    HW148141   3.897  10.894   9.550
82103SOL    HW248142   3.755  10.946   9.564
82104SOL     OW48143   2.215  14.178   6.496
82104SOL    HW148144   2.290  14.127   6.527
82104SOL    HW248145   2.139  14.128   6.523
82105SOL     OW48146  11.002   1.122  13.836
82105SOL    HW148147  11.066   1.054  13.817
82105SOL    HW248148  10.970   1.101  13.924
82106SOL     OW48149   4.726   0.213   0.790
82106SOL    HW148150   4.766   0.262   0.717
82106SOL    HW248151   4.786   0.226   0.863
82107SOL     OW48152   7.248   2.151  13.001
82107SOL    HW148153   7.248   2.115  13.090
82107SOL    HW248154   7.217   2.240  13.012
82108SOL     OW48155   2.836  10.787   4.381
82108SOL    HW148156   2.922  10.811   4.416
82108SOL    HW248157   2.781  10.864   4.397
82109SOL     OW48158  13.238   8.591   5.258
82109SOL    HW148159  13.280   8.657   5.313
82109SOL    HW248160  13.175   8.548   5.316
82110SOL     OW48161   9.706   0.772   6.732
82110SOL    HW148162   9.737   0.683   6.749
82110SOL    HW248163   9.774   0.828   6.768
82111SOL     OW48164   6.771  13.826   5.210
82111SOL    HW148165   6.861  13.800   5.190
82111SOL    HW248166   6.777  13.874   5.292
82112SOL     OW48167   8.338   7.495   7.893
82112SOL    HW148168   8.385   7.549   7.830
82112SOL    HW248169   8.386   7.506   7.975
82113SOL     OW48170   2.040  14.050   1.885
82113SOL    HW148171   1.967  14.103   1.853
82113SOL    HW248172   2.070  14.096   1.963
82114SOL     OW48173   8.243   8.848   6.252
82114SOL    HW148174   8.307   8.799   6.303
82114SOL    HW248175   8.174   8.785   6.231
82115SOL     OW48176   9.521   5.639   4.610
82115SOL    HW148177   9.428   5.659   4.622
82115SOL    HW248178   9.565   5.707   4.662
82116SOL     OW48179  14.511   1.070   8.161
82116SOL    HW148180  14.453   1.017   8.106
82116SOL    HW248181  14.534   1.145   8.106
82117SOL     OW48182   1.528   4.114  14.735
82117SOL    HW148183   1.622   4.131  14.735
82117SOL    HW248184   1.512   4.062  14.813
82118SOL     OW48185   6.424  12.876   4.349
82118SOL    HW148186   6.406  12.970   4.356
82118SOL    HW248187   6.488  12.859   4.418
82119SOL     OW48188   1.259  13.537  11.311
82119SOL    HW148189   1.324  13.591  11.267
82119SOL    HW248190   1.311  13.467  11.352
82120SOL     OW48191   3.692   1.335   9.827
82120SOL    HW148192   3.770   1.388   9.811
82120SOL    HW248193   3.622   1.399   9.840
82121SOL     OW48194   5.416  12.659   4.913
82121SOL    HW148195   5.350  12.596   4.884
82121SOL    HW248196   5.499  12.622   4.885
82122SOL     OW48197   3.143  11.165   9.310
82122SOL    HW148198   3.135  11.127   9.222
82122SOL    HW248199   3.176  11.093   9.364
82123SOL     OW48200   6.799  11.397  10.952
82123SOL    HW148201   6.788  11.486  10.987
82123SOL    HW248202   6.800  11.410  10.857
82124SOL     OW48203   2.574   9.287   2.004
82124SOL    HW148204   2.503   9.315   1.947
82124SOL    HW248205   2.532   9.267   2.088
82125SOL     OW48206   8.062   0.844  11.515
82125SOL    HW148207   7.973   0.818  11.494
82125SOL    HW248208   8.114   0.816  11.439
82126SOL     OW48209   8.421   0.407  11.303
82126SOL    HW148210   8.464   0.491  11.319
82126SOL    HW248211   8.331   0.429  11.281
82127SOL     OW48212   0.094   1.599   4.519
82127SOL    HW148213   0.029   1.644   4.573
82127SOL    HW248214   0.054   1.594   4.432
82128SOL     OW48215  11.363  11.255   0.445
82128SOL    HW148216  11.399  11.325   0.499
82128SOL    HW248217  11.313  11.201   0.506
82129SOL     OW48218   3.591   4.304   9.713
82129SOL    HW148219   3.531   4.282   9.642
82129SOL    HW248220   3.678   4.300   9.673
82130SOL     OW48221   5.948   9.156   6.126
82130SOL    HW148222   5.996   9.135   6.046
82130SOL    HW248223   5.998   9.115   6.196
82131SOL     OW48224   4.202   8.036   2.054
82131SOL    HW148225   4.170   8.120   2.088
82131SOL    HW248226   4.156   8.024   1.971
82132SOL     OW48227   5.841   7.938   1.425
82132SOL    HW148228   5.930   7.943   1.460
82132SOL    HW248229   5.838   8.007   1.358
82133SOL     OW48230  12.744   2.215  13.397
82133SOL    HW148231  12.832   2.250  13.380
82133SOL    HW248232  12.749   2.124  13.368
82134SOL     OW48233  12.252   8.367  12.009
82134SOL    HW148234  12.297   8.337  11.931
82134SOL    HW248235  12.190   8.298  12.030
82135SOL     OW48236   5.615   7.693  13.334
82135SOL    HW148237   5.686   7.754  13.354
82135SOL    HW248238   5.645   7.609  13.368
82136SOL     OW48239   3.463   2.777   1.564
82136SOL    HW148240   3.407   2.808   1.492
82136SOL    HW248241   3.439   2.832   1.638
82137SOL     OW48242  10.013   1.522  12.317
82137SOL    HW148243   9.981   1.612  12.311
82137SOL    HW248244  10.099   1.530  12.358
82138SOL     OW48245   2.285  12.118   6.908
82138SOL    HW148246   2.230  12.135   6.831
82138SOL    HW248247   2.374  12.135   6.878
82139SOL     OW48248  14.312  13.558   4.398
82139SOL    HW148249  14.243  13.492   4.405
82139SOL    HW248250  14.325  13.567   4.303
82140SOL     OW48251   4.667   2.696  11.581
82140SOL    HW148252   4.593   2.635  11.589
82140SOL    HW248253   4.709   2.694  11.667
82141SOL     OW48254  10.151   0.923  13.190
82141SOL    HW148255  10.206   0.855  13.228
82141SOL    HW248256  10.176   0.924  13.097
82142SOL     OW48257  14.190   3.378  14.292
82142SOL    HW148258  14.150   3.293  14.314
82142SOL    HW248259  14.128   3.443  14.326
82143SOL     OW48260   2.289  13.085   1.411
82143SOL    HW148261   2.257  13.154   1.352
82143SOL    HW248262   2.366  13.050   1.366
82144SOL     OW48263  13.764   5.425   8.799
82144SOL    HW148264  13.810   5.391   8.876
82144SOL    HW248265  13.824   5.408   8.727
82145SOL     OW48266   9.669   3.878   5.255
82145SOL    HW148267   9.694   3.941   5.322
82145SOL    HW248268   9.630   3.931   5.185
82146SOL     OW48269   6.721   2.907   7.413
82146SOL    HW148270   6.717   3.002   7.424
82146SOL    HW248271   6.784   2.894   7.341
82147SOL     OW48272  13.625   8.692  14.513
82147SOL    HW148273  13.587   8.750  14.446
82147SOL    HW248274  13.680   8.750  14.566
82148SOL     OW48275   5.753   8.839   9.069
82148SOL    HW148276   5.706   8.922   9.067
82148SOL    HW248277   5.824   8.850   9.005
82149SOL     OW48278  11.414   6.771   3.487
82149SOL    HW148279  11.480   6.765   3.418
82149SOL    HW248280  11.343   6.823   3.448
82150SOL     OW48281   9.131  13.584   1.656
82150SOL    HW148282   9.081  13.549   1.583
82150SOL    HW248283   9.065  13.623   1.714
82151SOL     OW48284  11.013   7.709  14.819
82151SOL    HW148285  10.940   7.653  14.793
82151SOL    HW248286  10.977   7.798  14.817
82152SOL     OW48287   0.921   4.848   1.518
82152SOL    HW148288   0.902   4.790   1.591
82152SOL    HW248289   0.962   4.925   1.558
82153SOL     OW48290  13.403   7.916  10.310
82153SOL    HW148291  13.452   7.970  10.372
82153SOL    HW248292  13.416   7.826  10.342
82154SOL     OW48293   0.588   7.988   8.994
82154SOL    HW148294   0.678   7.961   8.972
82154SOL    HW248295   0.595   8.082   9.009
82155SOL     OW48296   9.042  10.566   1.562
82155SOL    HW148297   9.023  10.609   1.645
82155SOL    HW248298   9.041  10.472   1.583
82156SOL     OW48299   5.245   4.411  10.068
82156SOL    HW148300   5.325   4.359  10.071
82156SOL    HW248301   5.249   4.467  10.145
82157SOL     OW48302   8.527   6.391  10.046
82157SOL    HW148303   8.535   6.447  10.123
82157SOL    HW248304   8.525   6.302  10.081
82158SOL     OW48305   8.039   5.735  10.136
82158SOL    HW148306   7.956   5.772  10.168
82158SOL    HW248307   8.070   5.681  10.208
82159SOL     OW48308  14.791   3.959   7.680
82159SOL    HW148309  14.865   4.017   7.698
82159SOL    HW248310  14.809   3.881   7.733
82160SOL     OW48311   4.408   0.570  14.865
82160SOL    HW148312   4.336   0.521  14.826
82160SOL    HW248313   4.472   0.579  14.795
82161SOL     OW48314   2.899  13.281   8.837
82161SOL    HW148315   2.899  13.352   8.901
82161SOL    HW248316   2.810  13.278   8.803
82162SOL     OW48317   4.136   4.892   4.632
82162SOL    HW148318   4.064   4.914   4.690
82162SOL    HW248319   4.198   4.965   4.642
82163SOL     OW48320   7.251   4.982   4.410
82163SOL    HW148321   7.296   4.925   4.347
82163SOL    HW248322   7.281   5.070   4.388
82164SOL     OW48323  11.516   2.549   7.513
82164SOL    HW148324  11.534   2.468   7.464
82164SOL    HW248325  11.509   2.616   7.445
82165SOL     OW48326   6.430  13.583   4.963
82165SOL    HW148327   6.344  13.550   4.990
82165SOL    HW248328   6.449  13.653   5.025
82166SOL     OW48329   6.194  11.044   7.400
82166SOL    HW148330   6.287  11.023   7.396
82166SOL    HW248331   6.181  11.110   7.332
82167SOL     OW48332   6.832  10.990   7.595
82167SOL    HW148333   6.878  10.949   7.522
82167SOL    HW248334   6.752  10.939   7.605
82168SOL     OW48335   8.034   6.846   9.294
82168SOL    HW148336   8.008   6.850   9.386
82168SOL    HW248337   8.110   6.904   9.287
82169SOL     OW48338   2.211   3.785   1.755
82169SOL    HW148339   2.272   3.858   1.766
82169SOL    HW248340   2.172   3.800   1.669
82170SOL     OW48341   8.870   2.340   7.953
82170SOL    HW148342   8.804   2.384   7.900
82170SOL    HW248343   8.936   2.408   7.971
82171SOL     OW48344   0.052   7.122  14.184
82171SOL    HW148345  14.879   7.068  14.241
82171SOL    HW248346   0.063   7.070  14.105
82172SOL     OW48347  13.126   4.144  13.942
82172SOL    HW148348  13.100   4.119  13.853
82172SOL    HW248349  13.079   4.083  13.999
82173SOL     OW48350   1.504   4.133   9.146
82173SOL    HW148351   1.436   4.067   9.154
82173SOL    HW248352   1.500   4.160   9.054
82174SOL     OW48353  11.731  12.203  12.953
82174SOL    HW148354  11.669  12.270  12.924
82174SOL    HW248355  11.791  12.249  13.012
82175SOL     OW48356  12.594  13.475   1.126
82175SOL    HW148357  12.525  13.533   1.159
82175SOL    HW248358  12.664  13.483   1.191
82176SOL     OW48359  10.976   8.138   6.801
82176SOL    HW148360  10.931   8.148   6.885
82176SOL    HW248361  11.048   8.078   6.820
82177SOL     OW48362   3.999  13.042   9.509
82177SOL    HW148363   4.020  12.950   9.520
82177SOL    HW248364   4.080  13.088   9.529
82178SOL     OW48365  10.832   0.771   0.687
82178SOL    HW148366  10.839   0.859   0.723
82178SOL    HW248367  10.885   0.773   0.607
82179SOL     OW48368   5.148   1.572  12.064
82179SOL    HW148369   5.097   1.653  12.076
82179SOL    HW248370   5.181   1.579  11.974
82180SOL     OW48371   5.370   1.382  12.159
82180SOL    HW148372   5.422   1.448  12.204
82180SOL    HW248373   5.410   1.299  12.184
82181SOL     OW48374   9.227   9.003   5.749
82181SOL    HW148375   9.277   9.078   5.716
82181SOL    HW248376   9.225   8.942   5.676
82182SOL     OW48377   4.796   8.189   6.251
82182SOL    HW148378   4.728   8.166   6.315
82182SOL    HW248379   4.866   8.127   6.267
82183SOL     OW48380  12.358   3.665  11.323
82183SOL    HW148381  12.352   3.760  11.328
82183SOL    HW248382  12.347   3.635  11.413
82184SOL     OW48383   3.305   4.989   2.960
82184SOL    HW148384   3.244   5.022   2.894
82184SOL    HW248385   3.374   4.945   2.909
82185SOL     OW48386   5.049   5.667   6.146
82185SOL    HW148387   4.979   5.721   6.110
82185SOL    HW248388   5.125   5.726   6.149
82186SOL     OW48389   9.393   5.352   9.272
82186SOL    HW148390   9.420   5.417   9.207
82186SOL    HW248391   9.470   5.295   9.282
82187SOL     OW48392   2.854   4.800   6.170
82187SOL    HW148393   2.883   4.789   6.261
82187SOL    HW248394   2.758   4.800   6.175
82188SOL     OW48395  12.367  13.860   2.226
82188SOL    HW148396  12.307  13.786   2.227
82188SOL    HW248397  12.316  13.933   2.261
82189SOL     OW48398  12.521   2.677  11.206
82189SOL    HW148399  12.473   2.684  11.289
82189SOL    HW248400  12.601   2.727  11.220
82190SOL     OW48401   5.328   9.883   6.121
82190SOL    HW148402   5.271   9.911   6.192
82190SOL    HW248403   5.349   9.791   6.141
82191SOL     OW48404   4.802   4.239   2.265
82191SOL    HW148405   4.874   4.275   2.212
82191SOL    HW248406   4.740   4.311   2.274
82192SOL     OW48407  14.407   7.423   7.634
82192SOL    HW148408  14.410   7.364   7.709
82192SOL    HW248409  14.349   7.380   7.571
82193SOL     OW48410  14.241   4.653  12.489
82193SOL    HW148411  14.181   4.580  12.502
82193SOL    HW248412  14.328   4.613  12.484
82194SOL     OW48413  11.877   2.583  14.510
82194SOL    HW148414  11.915   2.565  14.597
82194SOL    HW248415  11.860   2.497  14.473
82195SOL     OW48416  13.271   8.331   5.139
82195SOL    HW148417  13.190   8.357   5.095
82195SOL    HW248418  13.288   8.401   5.202
82196SOL     OW48419   0.566  14.041   5.113
82196SOL    HW148420   0.639  14.091   5.149
82196SOL    HW248421   0.582  13.951   5.142
82197SOL     OW48422  13.566   0.527   7.869
82197SOL    HW148423  13.490   0.479   7.835
82197SOL    HW248424  13.562   0.514   7.964
82198SOL     OW48425   4.951   3.433   6.294
82198SOL    HW148426   5.046   3.436   6.303
82198SOL    HW248427   4.922   3.376   6.366
82199SOL     OW48428  13.488  12.715   4.543
82199SOL    HW148429  13.445  12.638   4.506
82199SOL    HW248430  13.568  12.724   4.491
82200SOL     OW48431   4.666   0.849   1.996
82200SOL    HW148432   4.571   0.853   1.985
82200SOL    HW248433   4.678   0.806   2.081
82201SOL     OW48434   3.372  12.392   6.590
82201SOL    HW148435   3.347  12.390   6.498
82201SOL    HW248436   3.376  12.300   6.616
82202SOL     OW48437  10.871   8.339   8.019
82202SOL    HW148438  10.926   8.320   8.094
82202SOL    HW248439  10.791   8.288   8.034
82203SOL     OW48440   2.666  13.612   6.099
82203SOL    HW148441   2.608  13.686   6.078
82203SOL    HW248442   2.610  13.535   6.093
82204SOL     OW48443  13.502   8.995   1.317
82204SOL    HW148444  13.527   8.928   1.381
82204SOL    HW248445  13.573   9.059   1.321
82205SOL     OW48446   8.431   0.640  10.944
82205SOL    HW148447   8.405   0.732  10.944
82205SOL    HW248448   8.521   0.640  10.911
82206SOL     OW48449  14.251   6.781  14.693
82206SOL    HW148450  14.330   6.830  14.668
82206SOL    HW248451  14.186   6.849  14.710
82207SOL     OW48452  10.054   3.558  11.538
82207SOL    HW148453   9.986   3.583  11.601
82207SOL    HW248454  10.007   3.544  11.456
82208SOL     OW48455   4.492   6.372   8.950
82208SOL    HW148456   4.561   6.433   8.925
82208SOL    HW248457   4.411   6.415   8.923
82209SOL     OW48458   8.465  12.016   4.571
82209SOL    HW148459   8.489  11.957   4.500
82209SOL    HW248460   8.433  12.095   4.527
82210SOL     OW48461   2.563   8.994  11.715
82210SOL    HW148462   2.555   9.010  11.621
82210SOL    HW248463   2.615   9.068  11.748
82211SOL     OW48464   0.012   1.356   9.763
82211SOL    HW148465  14.876   1.397   9.679
82211SOL    HW248466   0.082   1.294   9.745
82212SOL     OW48467  13.223  10.658   6.918
82212SOL    HW148468  13.183  10.610   6.845
82212SOL    HW248469  13.220  10.596   6.991
82213SOL     OW48470   9.772   5.619   1.234
82213SOL    HW148471   9.823   5.583   1.306
82213SOL    HW248472   9.721   5.545   1.201
82214SOL     OW48473  11.717   2.633  10.811
82214SOL    HW148474  11.711   2.543  10.845
82214SOL    HW248475  11.769   2.680  10.876
82215SOL     OW48476   6.735   2.244   3.705
82215SOL    HW148477   6.777   2.172   3.659
82215SOL    HW248478   6.648   2.211   3.728
82216SOL     OW48479   9.692   9.056   5.808
82216SOL    HW148480   9.778   9.014   5.817
82216SOL    HW248481   9.640   8.994   5.758
82217SOL     OW48482   4.075   2.729   3.341
82217SOL    HW148483   4.074   2.749   3.434
82217SOL    HW248484   3.983   2.718   3.318
82218SOL     OW48485  13.811   1.528   2.809
82218SOL    HW148486  13.786   1.552   2.899
82218SOL    HW248487  13.733   1.547   2.757
82219SOL     OW48488   5.937   2.050   8.459
82219SOL    HW148489   5.898   1.962   8.457
82219SOL    HW248490   5.964   2.066   8.369
82220SOL     OW48491   6.824  12.642  13.732
82220SOL    HW148492   6.845  12.627  13.640
82220SOL    HW248493   6.791  12.732  13.735
82221SOL     OW48494   9.864   4.254   2.776
82221SOL    HW148495   9.942   4.274   2.725
82221SOL    HW248496   9.799   4.319   2.748
82222SOL     OW48497   5.817  12.427   4.762
82222SOL    HW148498   5.889  12.483   4.733
82222SOL    HW248499   5.773  12.477   4.831
82223SOL     OW48500  13.332   7.553  12.583
82223SOL    HW148501  13.396   7.611  12.624
82223SOL    HW248502  13.309   7.596  12.501
82224SOL     OW48503   1.515  11.177  10.278
82224SOL    HW148504   1.503  11.226  10.359
82224SOL    HW248505   1.513  11.244  10.209
82225SOL     OW48506  12.255   5.965   1.621
82225SOL    HW148507  12.191   5.937   1.556
82225SOL    HW248508  12.203   5.989   1.697
82226SOL     OW48509  11.264   3.186   8.598
82226SOL    HW148510  11.217   3.236   8.665
82226SOL    HW248511  11.250   3.235   8.517
82227SOL     OW48512   9.215   8.890   2.512
82227SOL    HW148513   9.122   8.884   2.531
82227SOL    HW248514   9.259   8.861   2.592
82228SOL     OW48515   8.489   9.660   1.990
82228SOL    HW148516   8.575   9.684   2.025
82228SOL    HW248517   8.468   9.578   2.034
82229SOL     OW48518  14.833  11.292   3.944
82229SOL    HW148519   0.045  11.291   3.961
82229SOL    HW248520  14.798  11.359   4.002
82230SOL     OW48521   2.736   7.366  10.767
82230SOL    HW148522   2.675   7.312  10.816
82230SOL    HW248523   2.794   7.403  10.834
82231SOL     OW48524   5.133   9.206  13.805
82231SOL    HW148525   5.111   9.240  13.719
82231SOL    HW248526   5.052   9.215  13.856
82232SOL     OW48527  10.253   5.199   2.073
82232SOL    HW148528  10.268   5.210   1.979
82232SOL    HW248529  10.202   5.276   2.098
82233SOL     OW48530   4.858   9.738  11.960
82233SOL    HW148531   4.910   9.763  12.037
82233SOL    HW248532   4.902   9.659  11.927
82234SOL     OW48533   5.149  13.496   2.259
82234SOL    HW148534   5.239  13.523   2.239
82234SOL    HW248535   5.145  13.495   2.354
82235SOL     OW48536   4.886  13.255   3.878
82235SOL    HW148537   4.807  13.220   3.919
82235SOL    HW248538   4.868  13.249   3.784
82236SOL     OW48539   9.334   9.383   3.180
82236SOL    HW148540   9.389   9.322   3.229
82236SOL    HW248541   9.335   9.463   3.232
82237SOL     OW48542  10.433   0.785   5.599
82237SOL    HW148543  10.344   0.781   5.634
82237SOL    HW248544  10.427   0.844   5.524
82238SOL     OW48545   0.773  14.635  14.761
82238SOL    HW148546   0.744  14.725  14.778
82238SOL    HW248547   0.811  14.607  14.845
82239SOL     OW48548   7.891   3.393  12.225
82239SOL    HW148549   7.802   3.368  12.250
82239SOL    HW248550   7.881   3.433  12.139
82240SOL     OW48551   3.833  13.400   6.540
82240SOL    HW148552   3.875  13.463   6.599
82240SOL    HW248553   3.743  13.430   6.532
82241SOL     OW48554   3.111   7.328  13.545
82241SOL    HW148555   3.203   7.310  13.564
82241SOL    HW248556   3.112   7.377  13.463
82242SOL     OW48557   6.285   3.084  11.471
82242SOL    HW148558   6.202   3.052  11.437
82242SOL    HW248559   6.265   3.172  11.505
82243SOL     OW48560  10.756   2.838   1.471
82243SOL    HW148561  10.660   2.830   1.472
82243SOL    HW248562  10.787   2.764   1.523
82244SOL     OW48563   3.608   8.989   8.047
82244SOL    HW148564   3.592   8.976   8.140
82244SOL    HW248565   3.530   8.956   8.003
82245SOL     OW48566   4.257   4.653  12.590
82245SOL    HW148567   4.190   4.587  12.606
82245SOL    HW248568   4.323   4.637  12.658
82246SOL     OW48569  12.269   3.295  10.248
82246SOL    HW148570  12.293   3.385  10.266
82246SOL    HW248571  12.173   3.296  10.242
82247SOL     OW48572  13.881  10.155   2.674
82247SOL    HW148573  13.818  10.190   2.611
82247SOL    HW248574  13.964  10.153   2.626
82248SOL     OW48575   7.891   9.766  14.115
82248SOL    HW148576   7.967   9.765  14.174
82248SOL    HW248577   7.929   9.770  14.027
82249SOL     OW48578  12.598   8.844   8.782
82249SOL    HW148579  12.621   8.859   8.874
82249SOL    HW248580  12.587   8.932   8.745
82250SOL     OW48581   6.611  10.651   0.450
82250SOL    HW148582   6.650  10.720   0.396
82250SOL    HW248583   6.642  10.569   0.410
82251SOL     OW48584   4.126   1.365   1.570
82251SOL    HW148585   4.116   1.458   1.550
82251SOL    HW248586   4.152   1.325   1.487
82252SOL     OW48587   2.000   3.590   2.472
82252SOL    HW148588   2.030   3.629   2.554
82252SOL    HW248589   1.932   3.649   2.441
82253SOL     OW48590   8.934  13.602   7.346
82253SOL    HW148591   8.942  13.518   7.302
82253SOL    HW248592   8.945  13.668   7.277
82254SOL     OW48593  14.673   1.640   0.194
82254SOL    HW148594  14.607   1.574   0.216
82254SOL    HW248595  14.735   1.594   0.138
82255SOL     OW48596   0.598   1.857  10.346
82255SOL    HW148597   0.510   1.819  10.357
82255SOL    HW248598   0.641   1.798  10.284
82256SOL     OW48599  12.828   4.758  10.996
82256SOL    HW148600  12.906   4.745  10.942
82256SOL    HW248601  12.861   4.750  11.086
82257SOL     OW48602   3.455   3.719   3.929
82257SOL    HW148603   3.506   3.799   3.917
82257SOL    HW248604   3.468   3.696   4.021
82258SOL     OW48605   0.915  14.489   4.373
82258SOL    HW148606   0.924  14.538   4.455
82258SOL    HW248607   1.004  14.463   4.350
82259SOL     OW48608   9.532   5.362   6.965
82259SOL    HW148609   9.543   5.342   6.872
82259SOL    HW248610   9.444   5.330   6.986
82260SOL     OW48611   4.144   9.820   6.308
82260SOL    HW148612   4.229   9.844   6.345
82260SOL    HW248613   4.147   9.853   6.218
82261SOL     OW48614   9.809   7.856   7.246
82261SOL    HW148615   9.776   7.786   7.303
82261SOL    HW248616   9.888   7.820   7.206
82262SOL     OW48617   5.105   8.423   0.215
82262SOL    HW148618   5.143   8.485   0.154
82262SOL    HW248619   5.130   8.456   0.302
82263SOL     OW48620   0.346   2.099  13.507
82263SOL    HW148621   0.274   2.039  13.525
82263SOL    HW248622   0.414   2.075  13.571
82264SOL     OW48623   3.092  10.089   3.955
82264SOL    HW148624   3.106  10.002   3.918
82264SOL    HW248625   3.053  10.139   3.883
82265SOL     OW48626   5.454  12.029   5.546
82265SOL    HW148627   5.452  11.934   5.560
82265SOL    HW248628   5.529  12.060   5.597
82266SOL     OW48629   8.842   9.486   2.474
82266SOL    HW148630   8.916   9.441   2.435
82266SOL    HW248631   8.876   9.572   2.499
82267SOL     OW48632   7.371  11.845   8.688
82267SOL    HW148633   7.373  11.829   8.594
82267SOL    HW248634   7.284  11.881   8.704
82268SOL     OW48635   0.813  10.743  13.229
82268SOL    HW148636   0.766  10.662  13.248
82268SOL    HW248637   0.744  10.808  13.215
82269SOL     OW48638  13.317   0.898   4.681
82269SOL    HW148639  13.370   0.825   4.713
82269SOL    HW248640  13.377   0.949   4.626
82270SOL     OW48641  10.212   0.903  10.178
82270SOL    HW148642  10.259   0.938  10.254
82270SOL    HW248643  10.260   0.823  10.156
82271SOL     OW48644   1.668   4.744   2.997
82271SOL    HW148645   1.759   4.720   3.014
82271SOL    HW248646   1.619   4.662   3.009
82272SOL     OW48647  13.316  13.685   9.863
82272SOL    HW148648  13.353  13.744   9.797
82272SOL    HW248649  13.221  13.697   9.855
82273SOL     OW48650  10.736   1.437   6.573
82273SOL    HW148651  10.701   1.351   6.597
82273SOL    HW248652  10.820   1.418   6.531
82274SOL     OW48653   4.750   9.489  12.307
82274SOL    HW148654   4.673   9.535  12.342
82274SOL    HW248655   4.716   9.443  12.230
82275SOL     OW48656   9.081   2.211  10.873
82275SOL    HW148657   9.044   2.233  10.788
82275SOL    HW248658   9.112   2.121  10.863
82276SOL     OW48659   2.576   2.323   8.177
82276SOL    HW148660   2.611   2.309   8.090
82276SOL    HW248661   2.623   2.399   8.211
82277SOL     OW48662  13.715   9.038   1.555
82277SOL    HW148663  13.731   8.952   1.515
82277SOL    HW248664  13.788   9.092   1.524
82278SOL     OW48665   2.666   3.379  11.835
82278SOL    HW148666   2.706   3.458  11.799
82278SOL    HW248667   2.608   3.347  11.766
82279SOL     OW48668   6.278   1.347   4.744
82279SOL    HW148669   6.272   1.421   4.804
82279SOL    HW248670   6.238   1.379   4.663
82280SOL     OW48671   8.254   4.223   0.917
82280SOL    HW148672   8.243   4.312   0.885
82280SOL    HW248673   8.206   4.169   0.854
82281SOL     OW48674   0.782  10.108   8.254
82281SOL    HW148675   0.703  10.096   8.202
82281SOL    HW248676   0.838  10.165   8.200
82282SOL     OW48677   6.339   0.538   1.970
82282SOL    HW148678   6.348   0.611   2.031
82282SOL    HW248679   6.296   0.576   1.893
82283SOL     OW48680   8.523   0.499   7.518
82283SOL    HW148681   8.466   0.546   7.457
82283SOL    HW248682   8.590   0.460   7.463
82284SOL     OW48683   1.566  14.255   3.796
82284SOL    HW148684   1.660  14.258   3.776
82284SOL    HW248685   1.553  14.325   3.860
82285SOL     OW48686   8.754   4.714   6.491
82285SOL    HW148687   8.767   4.620   6.507
82285SOL    HW248688   8.812   4.734   6.419
82286SOL     OW48689   6.825   0.329   5.039
82286SOL    HW148690   6.865   0.247   5.066
82286SOL    HW248691   6.786   0.364   5.118
82287SOL     OW48692   7.429  10.008   1.618
82287SOL    HW148693   7.450   9.962   1.536
82287SOL    HW248694   7.390   9.940   1.674
82288SOL     OW48695   3.803  11.073   9.837
82288SOL    HW148696   3.812  11.028   9.752
82288SOL    HW248697   3.880  11.044   9.887
82289SOL     OW48698  10.303   9.846  14.395
82289SOL    HW148699  10.357   9.790  14.340
82289SOL    HW248700  10.214   9.833  14.363
82290SOL     OW48701   8.258   4.793   4.041
82290SOL    HW148702   8.350   4.791   4.015
82290SOL    HW248703   8.250   4.725   4.108
82291SOL     OW48704  14.690  14.614  12.190
82291SOL    HW148705  14.773  14.624  12.237
82291SOL    HW248706  14.661  14.703  12.172
82292SOL     OW48707  12.521  14.791   2.122
82292SOL    HW148708  12.444  14.761   2.073
82292SOL    HW248709  12.587  14.807   2.055
82293SOL     OW48710   2.183  10.335   8.185
82293SOL    HW148711   2.169  10.338   8.280
82293SOL    HW248712   2.208  10.244   8.167
82294SOL     OW48713   7.543   6.672  10.071
82294SOL    HW148714   7.555   6.602  10.136
82294SOL    HW248715   7.502   6.628   9.997
82295SOL     OW48716  14.219  13.625  13.974
82295SOL    HW148717  14.185  13.541  13.942
82295SOL    HW248718  14.314  13.617  13.965
82296SOL     OW48719  11.053   9.580  12.635
82296SOL    HW148720  10.980   9.566  12.574
82296SOL    HW248721  11.130   9.551  12.587
82297SOL     OW48722   7.804   7.359   0.264
82297SOL    HW148723   7.898   7.357   0.276
82297SOL    HW248724   7.791   7.414   0.186
82298SOL     OW48725   2.640  10.423  13.931
82298SOL    HW148726   2.581  10.459  13.864
82298SOL    HW248727   2.723  10.467  13.914
82299SOL     OW48728   7.022   3.562   3.967
82299SOL    HW148729   6.988   3.650   3.949
82299SOL    HW248730   7.062   3.569   4.054
82300SOL     OW48731   2.093   6.452   5.444
82300SOL    HW148732   2.039   6.374   5.428
82300SOL    HW248733   2.038   6.525   5.417
82301SOL     OW48734   8.615  14.156  12.373
82301SOL    HW148735   8.660  14.072  12.363
82301SOL    HW248736   8.582  14.176  12.286
82302SOL     OW48737   7.094   3.028  10.366
82302SOL    HW148738   7.125   3.045  10.455
82302SOL    HW248739   7.171   2.993  10.321
82303SOL     OW48740   0.406   9.367  13.302
82303SOL    HW148741   0.490   9.382  13.260
82303SOL    HW248742   0.406   9.423  13.379
82304SOL     OW48743   9.396   2.740   3.125
82304SOL    HW148744   9.392   2.644   3.132
82304SOL    HW248745   9.401   2.771   3.216
82305SOL     OW48746  14.667   2.090  10.704
82305SOL    HW148747  14.694   2.040  10.781
82305SOL    HW248748  14.617   2.164  10.739
82306SOL     OW48749  10.011  11.457  11.431
82306SOL    HW148750   9.926  11.429  11.397
82306SOL    HW248751  10.062  11.478  11.353
82307SOL     OW48752   4.719   0.915   6.804
82307SOL    HW148753   4.718   1.008   6.824
82307SOL    HW248754   4.799   0.901   6.755
82308SOL     OW48755   6.703  11.254   4.603
82308SOL    HW148756   6.781  11.303   4.576
82308SOL    HW248757   6.644  11.261   4.528
82309SOL     OW48758   4.970  13.506   4.273
82309SOL    HW148759   4.881  13.503   4.239
82309SOL    HW248760   5.026  13.506   4.196
82310SOL     OW48761  13.456   7.658  10.561
82310SOL    HW148762  13.385   7.600  10.588
82310SOL    HW248763  13.476   7.631  10.472
82311SOL     OW48764  12.207  14.853  13.408
82311SOL    HW148765  12.301  14.866  13.419
82311SOL    HW248766  12.184  14.787  13.473
82312SOL     OW48767  14.227   2.023   3.953
82312SOL    HW148768  14.237   2.079   4.030
82312SOL    HW248769  14.184   1.944   3.987
82313SOL     OW48770   4.884  14.753  14.127
82313SOL    HW148771   4.934  14.827  14.163
82313SOL    HW248772   4.892  14.762  14.032
82314SOL     OW48773   2.878   7.703   9.672
82314SOL    HW148774   2.973   7.704   9.658
82314SOL    HW248775   2.842   7.683   9.585
82315SOL     OW48776   0.881   2.888  14.382
82315SOL    HW148777   0.887   2.841  14.465
82315SOL    HW248778   0.971   2.915  14.364
82316SOL     OW48779   1.070   7.354   2.512
82316SOL    HW148780   1.051   7.446   2.494
82316SOL    HW248781   1.003   7.326   2.573
82317SOL     OW48782  14.291  13.924   0.628
82317SOL    HW148783  14.303  13.971   0.546
82317SOL    HW248784  14.197  13.904   0.631
82318SOL     OW48785   0.778   4.275   2.383
82318SOL    HW148786   0.727   4.194   2.385
82318SOL    HW248787   0.799   4.293   2.474
82319SOL     OW48788  10.696  11.411   3.951
82319SOL    HW148789  10.650  11.426   3.869
82319SOL    HW248790  10.628  11.413   4.018
82320SOL     OW48791   8.509   8.559   3.311
82320SOL    HW148792   8.457   8.639   3.295
82320SOL    HW248793   8.497   8.507   3.232
82321SOL     OW48794  11.163   1.030   7.711
82321SOL    HW148795  11.144   1.060   7.623
82321SOL    HW248796  11.093   0.967   7.731
82322SOL     OW48797  11.372   0.186   5.624
82322SOL    HW148798  11.309   0.251   5.594
82322SOL    HW248799  11.404   0.144   5.545
82323SOL     OW48800  13.728  14.275  11.084
82323SOL    HW148801  13.797  14.228  11.133
82323SOL    HW248802  13.660  14.209  11.071
82324SOL     OW48803  14.111  14.784   3.700
82324SOL    HW148804  14.125  14.856   3.639
82324SOL    HW248805  14.181  14.793   3.765
82325SOL     OW48806   3.713   0.563  10.901
82325SOL    HW148807   3.640   0.618  10.929
82325SOL    HW248808   3.745   0.604  10.820
82326SOL     OW48809  13.031   6.588   9.806
82326SOL    HW148810  13.024   6.605   9.900
82326SOL    HW248811  13.076   6.504   9.800
82327SOL     OW48812   8.637   5.519  14.289
82327SOL    HW148813   8.664   5.492  14.201
82327SOL    HW248814   8.546   5.544  14.279
82328SOL     OW48815   2.184   0.234  13.142
82328SOL    HW148816   2.148   0.295  13.077
82328SOL    HW248817   2.274   0.220  13.114
82329SOL     OW48818   8.261   6.991   9.264
82329SOL    HW148819   8.352   7.014   9.287
82329SOL    HW248820   8.270   6.937   9.185
82330SOL     OW48821   7.612  10.795   2.039
82330SOL    HW148822   7.697  10.838   2.050
82330SOL    HW248823   7.629  10.724   1.977
82331SOL     OW48824   1.825   1.900   8.999
82331SOL    HW148825   1.758   1.968   8.996
82331SOL    HW248826   1.819   1.858   8.913
82332SOL     OW48827   7.788   3.878  12.830
82332SOL    HW148828   7.878   3.846  12.823
82332SOL    HW248829   7.748   3.820  12.895
82333SOL     OW48830   7.800  10.944  11.301
82333SOL    HW148831   7.743  10.907  11.233
82333SOL    HW248832   7.852  11.010  11.254
82334SOL     OW48833   3.849   0.798  14.627
82334SOL    HW148834   3.799   0.722  14.658
82334SOL    HW248835   3.910   0.762  14.563
82335SOL     OW48836   9.562  12.327  13.976
82335SOL    HW148837   9.528  12.238  13.984
82335SOL    HW248838   9.608  12.328  13.892
82336SOL     OW48839  14.863  13.550  11.784
82336SOL    HW148840   0.053  13.596  11.741
82336SOL    HW248841   0.024  13.480  11.834
82337SOL     OW48842  13.379   3.333   2.040
82337SOL    HW148843  13.405   3.374   2.122
82337SOL    HW248844  13.373   3.240   2.060
82338SOL     OW48845   1.658   4.394   0.151
82338SOL    HW148846   1.729   4.410   0.089
82338SOL    HW248847   1.691   4.427   0.235
82339SOL     OW48848   3.976   8.151   4.070
82339SOL    HW148849   4.049   8.111   4.023
82339SOL    HW248850   3.910   8.168   4.003
82340SOL     OW48851   3.428  14.070   4.987
82340SOL    HW148852   3.494  14.139   4.994
82340SOL    HW248853   3.351  14.115   4.951
82341SOL     OW48854  11.840   5.851   8.682
82341SOL    HW148855  11.757   5.875   8.641
82341SOL    HW248856  11.826   5.761   8.712
82342SOL     OW48857  12.560   3.575  14.399
82342SOL    HW148858  12.642   3.618  14.372
82342SOL    HW248859  12.577   3.482  14.385
82343SOL     OW48860   6.529  11.464   1.668
82343SOL    HW148861   6.612  11.429   1.700
82343SOL    HW248862   6.498  11.520   1.739
82344SOL     OW48863  11.651  14.123  12.559
82344SOL    HW148864  11.643  14.083  12.646
82344SOL    HW248865  11.707  14.199  12.573
82345SOL     OW48866   5.187  10.546   1.321
82345SOL    HW148867   5.218  10.581   1.404
82345SOL    HW248868   5.258  10.491   1.289
82346SOL     OW48869   5.564  10.792  14.616
82346SOL    HW148870   5.483  10.799  14.565
82346SOL    HW248871   5.578  10.880  14.651
82347SOL     OW48872   7.095  12.351   4.862
82347SOL    HW148873   7.164  12.341   4.928
82347SOL    HW248874   7.038  12.419   4.897
82348SOL     OW48875   3.819   4.784   6.760
82348SOL    HW148876   3.853   4.867   6.727
82348SOL    HW248877   3.802   4.732   6.681
82349SOL     OW48878   4.933  13.841   9.203
82349SOL    HW148879   4.966  13.930   9.192
82349SOL    HW248880   4.950  13.799   9.119
82350SOL     OW48881  11.719  13.991  11.437
82350SOL    HW148882  11.659  14.010  11.365
82350SOL    HW248883  11.662  13.982  11.514
82351SOL     OW48884  14.019  11.458   3.856
82351SOL    HW148885  14.056  11.541   3.825
82351SOL    HW248886  13.927  11.463   3.834
82352SOL     OW48887  11.728   3.959   8.775
82352SOL    HW148888  11.723   3.890   8.840
82352SOL    HW248889  11.757   3.915   8.695
82353SOL     OW48890  14.181  11.096  12.435
82353SOL    HW148891  14.140  11.013  12.458
82353SOL    HW248892  14.131  11.128  12.360
82354SOL     OW48893  13.972  14.808   2.485
82354SOL    HW148894  14.056  14.764   2.500
82354SOL    HW248895  13.921  14.787   2.564
82355SOL     OW48896   7.036  13.247   2.181
82355SOL    HW148897   7.028  13.177   2.246
82355SOL    HW248898   7.126  13.241   2.150
82356SOL     OW48899   5.897   8.609   7.400
82356SOL    HW148900   5.804   8.594   7.383
82356SOL    HW248901   5.934   8.630   7.314
82357SOL     OW48902   6.106  11.458   5.452
82357SOL    HW148903   6.174  11.391   5.459
82357SOL    HW248904   6.029  11.410   5.420
82358SOL     OW48905  10.664   2.916  10.110
82358SOL    HW148906  10.572   2.925  10.088
82358SOL    HW248907  10.692   2.836  10.066
82359SOL     OW48908  13.763   5.610   4.583
82359SOL    HW148909  13.753   5.547   4.512
82359SOL    HW248910  13.808   5.684   4.543
82360SOL     OW48911   8.561   0.506  13.273
82360SOL    HW148912   8.507   0.585  13.278
82360SOL    HW248913   8.605   0.502  13.358
82361SOL     OW48914   0.804  12.995  14.702
82361SOL    HW148915   0.796  12.933  14.629
82361SOL    HW248916   0.790  12.941  14.780
82362SOL     OW48917   5.835  14.742   6.087
82362SOL    HW148918   5.761  14.686   6.063
82362SOL    HW248919   5.878  14.696   6.160
82363SOL     OW48920   4.531   3.750   9.811
82363SOL    HW148921   4.492   3.784   9.892
82363SOL    HW248922   4.551   3.659   9.831
82364SOL     OW48923   0.728   0.027   1.880
82364SOL    HW148924   0.732  14.823   1.922
82364SOL    HW248925   0.698   0.009   1.791
82365SOL     OW48926  14.844   1.660  14.288
82365SOL    HW148927  14.878   1.652  14.377
82365SOL    HW248928  14.766   1.605  14.287
82366SOL     OW48929   8.126   8.649  14.104
82366SOL    HW148930   8.083   8.734  14.095
82366SOL    HW248931   8.218   8.667  14.088
82367SOL     OW48932  11.220   5.590   8.693
82367SOL    HW148933  11.277   5.533   8.642
82367SOL    HW248934  11.142   5.602   8.638
82368SOL     OW48935   7.127   8.859  10.241
82368SOL    HW148936   7.151   8.815  10.322
82368SOL    HW248937   7.143   8.952  10.258
82369SOL     OW48938   6.865   6.690   6.642
82369SOL    HW148939   6.779   6.717   6.675
82369SOL    HW248940   6.926   6.719   6.710
82370SOL     OW48941   0.688   6.400   7.329
82370SOL    HW148942   0.642   6.412   7.246
82370SOL    HW248943   0.628   6.347   7.382
82371SOL     OW48944  11.809   4.978   5.370
82371SOL    HW148945  11.723   5.018   5.383
82371SOL    HW248946  11.793   4.884   5.371
82372SOL     OW48947   6.976  14.468   4.649
82372SOL    HW148948   6.968  14.469   4.744
82372SOL    HW248949   7.019  14.551   4.628
82373SOL     OW48950  10.003   3.015   2.434
82373SOL    HW148951  10.073   3.023   2.369
82373SOL    HW248952   9.927   3.054   2.391
82374SOL     OW48953  10.179   2.774  10.256
82374SOL    HW148954  10.181   2.684  10.289
82374SOL    HW248955  10.101   2.778  10.202
82375SOL     OW48956  14.501   1.236   9.299
82375SOL    HW148957  14.548   1.153   9.309
82375SOL    HW248958  14.531   1.270   9.214
82376SOL     OW48959   0.417   0.243   3.014
82376SOL    HW148960   0.427   0.238   3.109
82376SOL    HW248961   0.364   0.321   2.999
82377SOL     OW48962   4.746  13.223   4.156
82377SOL    HW148963   4.740  13.318   4.147
82377SOL    HW248964   4.702  13.204   4.239
82378SOL     OW48965  13.833   4.410  11.687
82378SOL    HW148966  13.820   4.505  11.686
82378SOL    HW248967  13.928   4.399  11.698
82379SOL     OW48968  14.136  13.029   8.819
82379SOL    HW148969  14.051  13.015   8.862
82379SOL    HW248970  14.135  13.121   8.795
82380SOL     OW48971  13.101   7.228  12.948
82380SOL    HW148972  13.119   7.169  13.021
82380SOL    HW248973  13.156   7.194  12.877
82381SOL     OW48974   5.473   7.223   0.664
82381SOL    HW148975   5.518   7.270   0.734
82381SOL    HW248976   5.496   7.131   0.678
82382SOL     OW48977   1.940   0.685   3.362
82382SOL    HW148978   1.972   0.768   3.327
82382SOL    HW248979   1.846   0.685   3.341
82383SOL     OW48980   9.072   7.431   3.025
82383SOL    HW148981   9.023   7.511   3.009
82383SOL    HW248982   9.031   7.366   2.968
82384SOL     OW48983   1.772  14.533   3.360
82384SOL    HW148984   1.835  14.496   3.298
82384SOL    HW248985   1.695  14.554   3.307
82385SOL     OW48986   5.035   7.363   3.319
82385SOL    HW148987   5.126   7.339   3.304
82385SOL    HW248988   5.030   7.379   3.414
82386SOL     OW48989   1.764   3.914  10.361
82386SOL    HW148990   1.737   3.869  10.441
82386SOL    HW248991   1.841   3.866  10.331
82387SOL     OW48992  14.546   1.702   8.430
82387SOL    HW148993  14.453   1.720   8.416
82387SOL    HW248994  14.574   1.656   8.351
82388SOL     OW48995  12.536   9.797   5.458
82388SOL    HW148996  12.481   9.802   5.379
82388SOL    HW248997  12.499   9.862   5.517
82389SOL     OW48998   5.818   5.623   6.119
82389SOL    HW148999   5.848   5.688   6.182
82389SOL    HW249000   5.804   5.544   6.171
82390SOL     OW49001  12.146  14.557  12.005
82390SOL    HW149002  12.191  14.519  11.930
82390SOL    HW249003  12.144  14.487  12.071
82391SOL     OW49004  11.476   1.564  11.394
82391SOL    HW149005  11.545   1.612  11.348
82391SOL    HW249006  11.507   1.473  11.394
82392SOL     OW49007   1.197   6.491   8.460
82392SOL    HW149008   1.109   6.498   8.422
82392SOL    HW249009   1.237   6.417   8.414
82393SOL     OW49010   2.574  13.906  12.488
82393SOL    HW149011   2.607  13.941  12.405
82393SOL    HW249012   2.480  13.893  12.473
82394SOL     OW49013  10.133  11.916   6.424
82394SOL    HW149014  10.068  11.884   6.487
82394SOL    HW249015  10.127  12.011   6.430
82395SOL     OW49016   0.572   9.963   4.810
82395SOL    HW149017   0.554  10.008   4.893
82395SOL    HW249018   0.602  10.032   4.751
82396SOL     OW49019   4.975  13.742   8.940
82396SOL    HW149020   5.060  13.730   8.897
82396SOL    HW249021   4.923  13.666   8.912
82397SOL     OW49022   7.283   1.647  10.619
82397SOL    HW149023   7.281   1.555  10.647
82397SOL    HW249024   7.361   1.683  10.660
82398SOL     OW49025   8.029  13.017  13.126
82398SOL    HW149026   7.970  13.068  13.070
82398SOL    HW249027   7.972  12.952  13.167
82399SOL     OW49028  12.065   9.824  14.578
82399SOL    HW149029  12.128   9.786  14.517
82399SOL    HW249030  12.046   9.754  14.640
82400SOL     OW49031  14.281   2.391   9.441
82400SOL    HW149032  14.319   2.442   9.513
82400SOL    HW249033  14.296   2.300   9.466
82401SOL     OW49034   8.848   9.157   3.402
82401SOL    HW149035   8.816   9.106   3.476
82401SOL    HW249036   8.940   9.130   3.393
82402SOL     OW49037   7.585  13.868   7.830
82402SOL    HW149038   7.551  13.806   7.765
82402SOL    HW249039   7.659  13.910   7.786
82403SOL     OW49040   5.516   9.214  13.263
82403SOL    HW149041   5.523   9.148  13.194
82403SOL    HW249042   5.601   9.210  13.307
82404SOL     OW49043   4.328  11.776   8.542
82404SOL    HW149044   4.373  11.798   8.624
82404SOL    HW249045   4.257  11.718   8.568
82405SOL     OW49046  12.456   4.857   4.501
82405SOL    HW149047  12.532   4.908   4.472
82405SOL    HW249048  12.380   4.908   4.474
82406SOL     OW49049  10.977   6.625   8.609
82406SOL    HW149050  10.915   6.696   8.592
82406SOL    HW249051  11.011   6.602   8.522
82407SOL     OW49052  14.796  13.236   6.402
82407SOL    HW149053  14.817  13.171   6.468
82407SOL    HW249054  14.753  13.307   6.451
82408SOL     OW49055   5.780   4.032   6.076
82408SOL    HW149056   5.833   3.995   6.005
82408SOL    HW249057   5.701   4.065   6.032
82409SOL     OW49058   9.156   1.418   0.346
82409SOL    HW149059   9.082   1.359   0.339
82409SOL    HW249060   9.228   1.371   0.304
82410SOL     OW49061   2.474   6.357  14.213
82410SOL    HW149062   2.528   6.326  14.285
82410SOL    HW249063   2.486   6.452  14.214
82411SOL     OW49064   7.358   5.351  13.396
82411SOL    HW149065   7.286   5.353  13.332
82411SOL    HW249066   7.351   5.266  13.438
82412SOL     OW49067   4.714   9.485   0.196
82412SOL    HW149068   4.711   9.580   0.207
82412SOL    HW249069   4.761   9.453   0.272
82413SOL     OW49070   5.441   2.702  13.685
82413SOL    HW149071   5.533   2.711  13.662
82413SOL    HW249072   5.426   2.607  13.687
82414SOL     OW49073  10.161   1.205   7.582
82414SOL    HW149074  10.150   1.294   7.550
82414SOL    HW249075  10.234   1.170   7.531
82415SOL     OW49076  12.843  13.735  13.332
82415SOL    HW149077  12.869  13.766  13.419
82415SOL    HW249078  12.778  13.797  13.302
82416SOL     OW49079   8.144   7.905   8.048
82416SOL    HW149080   8.209   7.892   7.980
82416SOL    HW249081   8.060   7.899   8.003
82417SOL     OW49082  11.892   7.988  12.698
82417SOL    HW149083  11.892   7.963  12.790
82417SOL    HW249084  11.818   7.940  12.660
82418SOL     OW49085  13.584   3.923   7.765
82418SOL    HW149086  13.611   3.881   7.683
82418SOL    HW249087  13.634   3.878   7.833
82419SOL     OW49088   1.553   5.523  14.494
82419SOL    HW149089   1.551   5.585  14.566
82419SOL    HW249090   1.518   5.571  14.419
82420SOL     OW49091   6.146   9.571  14.264
82420SOL    HW149092   6.051   9.573  14.250
82420SOL    HW249093   6.181   9.637  14.204
82421SOL     OW49094   3.613   1.532   8.137
82421SOL    HW149095   3.552   1.561   8.205
82421SOL    HW249096   3.557   1.510   8.063
82422SOL     OW49097  10.325   0.829   3.748
82422SOL    HW149098  10.348   0.777   3.671
82422SOL    HW249099  10.405   0.830   3.800
82423SOL     OW49100   3.665  10.221   6.132
82423SOL    HW149101   3.629  10.308   6.118
82423SOL    HW249102   3.727  10.209   6.060
82424SOL     OW49103   8.397  12.230   5.971
82424SOL    HW149104   8.340  12.161   6.007
82424SOL    HW249105   8.350  12.260   5.893
82425SOL     OW49106   6.633   9.392   2.279
82425SOL    HW149107   6.725   9.416   2.291
82425SOL    HW249108   6.585   9.473   2.296
82426SOL     OW49109   4.058  12.129   1.855
82426SOL    HW149110   4.122  12.094   1.794
82426SOL    HW249111   3.973  12.110   1.816
82427SOL     OW49112   0.630   4.910   9.472
82427SOL    HW149113   0.599   4.880   9.386
82427SOL    HW249114   0.652   5.002   9.459
82428SOL     OW49115  11.135   1.540   2.038
82428SOL    HW149116  11.227   1.546   2.066
82428SOL    HW249117  11.136   1.475   1.968
82429SOL     OW49118  13.520   6.380  10.779
82429SOL    HW149119  13.610   6.411  10.766
82429SOL    HW249120  13.468   6.428  10.714
82430SOL     OW49121   8.517  13.101   3.446
82430SOL    HW149122   8.588  13.041   3.424
82430SOL    HW249123   8.444  13.073   3.391
82431SOL     OW49124   3.061   9.424   0.743
82431SOL    HW149125   3.013   9.501   0.773
82431SOL    HW249126   3.107   9.392   0.821
82432SOL     OW49127  12.697  12.908   2.556
82432SOL    HW149128  12.768  12.895   2.493
82432SOL    HW249129  12.673  12.820   2.584
82433SOL     OW49130   5.938  14.811  11.261
82433SOL    HW149131   5.924  14.805  11.355
82433SOL    HW249132   5.857  14.847  11.226
82434SOL     OW49133  10.020   7.737   7.616
82434SOL    HW149134   9.967   7.659   7.632
82434SOL    HW249135   9.990   7.801   7.681
82435SOL     OW49136   8.339  11.277   6.011
82435SOL    HW149137   8.427  11.286   6.049
82435SOL    HW249138   8.319  11.184   6.018
82436SOL     OW49139  14.251   5.482  13.057
82436SOL    HW149140  14.230   5.393  13.027
82436SOL    HW249141  14.326   5.508  13.004
82437SOL     OW49142   8.722   5.867   4.351
82437SOL    HW149143   8.759   5.803   4.411
82437SOL    HW249144   8.732   5.951   4.396
82438SOL     OW49145   4.066  14.630   5.114
82438SOL    HW149146   4.144  14.579   5.091
82438SOL    HW249147   4.083  14.662   5.202
82439SOL     OW49148  10.428   3.164   0.509
82439SOL    HW149149  10.508   3.114   0.496
82439SOL    HW249150  10.438   3.241   0.453
82440SOL     OW49151  12.551  14.731   8.582
82440SOL    HW149152  12.645  14.715   8.582
82440SOL    HW249153  12.519  14.682   8.658
82441SOL     OW49154  12.269  14.639  14.859
82441SOL    HW149155  12.242  14.705  14.795
82441SOL    HW249156  12.364  14.636  14.851
82442SOL     OW49157   3.702  12.530  11.757
82442SOL    HW149158   3.715  12.583  11.836
82442SOL    HW249159   3.617  12.559  11.723
82443SOL     OW49160   3.800   3.525   0.770
82443SOL    HW149161   3.835   3.495   0.854
82443SOL    HW249162   3.864   3.589   0.739
82444SOL     OW49163   2.545   0.362   4.620
82444SOL    HW149164   2.468   0.369   4.676
82444SOL    HW249165   2.618   0.390   4.676
82445SOL     OW49166  14.854   9.279  14.303
82445SOL    HW149167   0.047   9.336  14.287
82445SOL    HW249168  14.787   9.338  14.340
82446SOL     OW49169   2.111   9.664   6.521
82446SOL    HW149170   2.163   9.701   6.592
82446SOL    HW249171   2.022   9.664   6.554
82447SOL     OW49172  13.539   9.352  12.384
82447SOL    HW149173  13.531   9.262  12.415
82447SOL    HW249174  13.522   9.406  12.461
82448SOL     OW49175  11.220  10.920  11.410
82448SOL    HW149176  11.256  10.851  11.465
82448SOL    HW249177  11.166  10.973  11.469
82449SOL     OW49178  11.540   1.883   8.729
82449SOL    HW149179  11.580   1.946   8.669
82449SOL    HW249180  11.451   1.915   8.742
82450SOL     OW49181  12.987   6.674   0.912
82450SOL    HW149182  12.907   6.630   0.941
82450SOL    HW249183  13.009   6.631   0.830
82451SOL     OW49184  13.817   7.979  10.640
82451SOL    HW149185  13.818   8.010  10.549
82451SOL    HW249186  13.903   7.941  10.654
82452SOL     OW49187   3.579  12.411   8.052
82452SOL    HW149188   3.500  12.360   8.037
82452SOL    HW249189   3.568  12.448   8.139
82453SOL     OW49190   4.726   4.031   2.022
82453SOL    HW149191   4.693   4.117   2.046
82453SOL    HW249192   4.815   4.047   1.992
82454SOL     OW49193  13.576   3.594   2.031
82454SOL    HW149194  13.481   3.588   2.042
82454SOL    HW249195  13.589   3.600   1.936
82455SOL     OW49196  14.739   9.218   5.354
82455SOL    HW149197  14.752   9.312   5.346
82455SOL    HW249198  14.803   9.179   5.295
82456SOL     OW49199   6.548   7.664   3.928
82456SOL    HW149200   6.629   7.696   3.967
82456SOL    HW249201   6.479   7.712   3.973
82457SOL     OW49202   7.530   6.058   6.199
82457SOL    HW149203   7.511   6.018   6.284
82457SOL    HW249204   7.512   6.151   6.212
82458SOL     OW49205  13.453   3.789   4.350
82458SOL    HW149206  13.445   3.770   4.444
82458SOL    HW249207  13.527   3.849   4.344
82459SOL     OW49208  13.510  14.493   2.831
82459SOL    HW149209  13.580  14.434   2.803
82459SOL    HW249210  13.486  14.462   2.918
82460SOL     OW49211  11.160   7.417  10.195
82460SOL    HW149212  11.229   7.369  10.242
82460SOL    HW249213  11.082   7.406  10.251
82461SOL     OW49214  11.328   2.567   1.955
82461SOL    HW149215  11.381   2.506   1.904
82461SOL    HW249216  11.238   2.550   1.927
82462SOL     OW49217  10.576   1.591  10.345
82462SOL    HW149218  10.600   1.637  10.426
82462SOL    HW249219  10.531   1.512  10.375
82463SOL     OW49220   4.311   6.634  10.261
82463SOL    HW149221   4.262   6.713  10.239
82463SOL    HW249222   4.399   6.666  10.283
82464SOL     OW49223   2.612  10.749   9.336
82464SOL    HW149224   2.521  10.749   9.305
82464SOL    HW249225   2.632  10.841   9.350
82465SOL     OW49226  14.019  10.399   3.332
82465SOL    HW149227  14.032  10.324   3.390
82465SOL    HW249228  13.932  10.431   3.354
82466SOL     OW49229   7.284  12.432   6.340
82466SOL    HW149230   7.345  12.427   6.266
82466SOL    HW249231   7.268  12.526   6.350
82467SOL     OW49232   9.398  10.185   6.093
82467SOL    HW149233   9.491  10.191   6.113
82467SOL    HW249234   9.389  10.105   6.041
82468SOL     OW49235  13.249   2.733  12.563
82468SOL    HW149236  13.309   2.704  12.494
82468SOL    HW249237  13.216   2.652  12.602
82469SOL     OW49238   3.471   1.114   8.127
82469SOL    HW149239   3.555   1.072   8.146
82469SOL    HW249240   3.473   1.131   8.033
82470SOL     OW49241  10.158   3.513   7.537
82470SOL    HW149242  10.190   3.460   7.609
82470SOL    HW249243  10.062   3.509   7.545
82471SOL     OW49244  14.315   2.771   1.147
82471SOL    HW149245  14.382   2.719   1.192
82471SOL    HW249246  14.364   2.830   1.090
82472SOL     OW49247   4.799   3.292   2.701
82472SOL    HW149248   4.795   3.254   2.613
82472SOL    HW249249   4.747   3.232   2.755
82473SOL     OW49250   8.857  10.004  10.025
82473SOL    HW149251   8.862   9.933   9.961
82473SOL    HW249252   8.889  10.081   9.978
82474SOL     OW49253   6.194   9.919   9.846
82474SOL    HW149254   6.240  10.002   9.831
82474SOL    HW249255   6.175   9.919   9.940
82475SOL     OW49256  14.371   7.659   2.706
82475SOL    HW149257  14.413   7.712   2.637
82475SOL    HW249258  14.354   7.575   2.665
82476SOL     OW49259   1.134  14.174   5.425
82476SOL    HW149260   1.199  14.119   5.382
82476SOL    HW249261   1.070  14.113   5.462
82477SOL     OW49262   5.072   3.265   2.978
82477SOL    HW149263   5.005   3.318   3.021
82477SOL    HW249264   5.039   3.175   2.984
82478SOL     OW49265   8.677   5.066  11.973
82478SOL    HW149266   8.721   5.141  12.013
82478SOL    HW249267   8.747   5.016  11.933
82479SOL     OW49268   5.635   7.075   0.253
82479SOL    HW149269   5.600   7.118   0.175
82479SOL    HW249270   5.729   7.093   0.250
82480SOL     OW49271  12.122   2.249   2.952
82480SOL    HW149272  12.126   2.343   2.967
82480SOL    HW249273  12.156   2.237   2.863
82481SOL     OW49274   9.144   0.705   9.539
82481SOL    HW149275   9.176   0.795   9.544
82481SOL    HW249276   9.093   0.703   9.458
82482SOL     OW49277  10.367   8.549   8.323
82482SOL    HW149278  10.383   8.564   8.230
82482SOL    HW249279  10.274   8.570   8.335
82483SOL     OW49280   0.528   5.887  13.225
82483SOL    HW149281   0.529   5.861  13.132
82483SOL    HW249282   0.529   5.983  13.223
82484SOL     OW49283  14.820   0.427   4.464
82484SOL    HW149284  14.765   0.380   4.528
82484SOL    HW249285   0.024   0.433   4.506
82485SOL     OW49286   0.507   1.179   1.387
82485SOL    HW149287   0.476   1.108   1.444
82485SOL    HW249288   0.428   1.228   1.364
82486SOL     OW49289  13.235  11.924   7.864
82486SOL    HW149290  13.172  11.922   7.792
82486SOL    HW249291  13.283  12.005   7.850
82487SOL     OW49292  12.261  12.309   2.381
82487SOL    HW149293  12.326  12.245   2.354
82487SOL    HW249294  12.237  12.282   2.470
82488SOL     OW49295   5.211   6.170   4.463
82488SOL    HW149296   5.277   6.184   4.531
82488SOL    HW249297   5.184   6.258   4.438
82489SOL     OW49298  12.862   8.312   4.373
82489SOL    HW149299  12.824   8.288   4.289
82489SOL    HW249300  12.872   8.230   4.420
82490SOL     OW49301  14.199   8.467   8.735
82490SOL    HW149302  14.206   8.422   8.651
82490SOL    HW249303  14.289   8.472   8.768
82491SOL     OW49304   9.006   0.972   4.952
82491SOL    HW149305   8.984   0.892   5.000
82491SOL    HW249306   9.030   1.035   5.020
82492SOL     OW49307  12.597  14.127   6.338
82492SOL    HW149308  12.504  14.148   6.328
82492SOL    HW249309  12.637  14.151   6.255
82493SOL     OW49310  13.266   4.304   5.476
82493SOL    HW149311  13.297   4.395   5.469
82493SOL    HW249312  13.207   4.293   5.403
82494SOL     OW49313   6.052  11.607   5.128
82494SOL    HW149314   6.105  11.621   5.207
82494SOL    HW249315   6.065  11.687   5.077
82495SOL     OW49316  12.028  12.805   5.816
82495SOL    HW149317  11.990  12.888   5.845
82495SOL    HW249318  12.117  12.828   5.786
82496SOL     OW49319  10.919   5.727  10.393
82496SOL    HW149320  10.997   5.723  10.338
82496SOL    HW249321  10.901   5.636  10.415
82497SOL     OW49322   8.791   3.224   7.184
82497SOL    HW149323   8.708   3.225   7.136
82497SOL    HW249324   8.848   3.167   7.133
82498SOL     OW49325   5.676   3.996   4.734
82498SOL    HW149326   5.718   4.010   4.650
82498SOL    HW249327   5.602   4.057   4.735
82499SOL     OW49328   7.278   6.210   1.779
82499SOL    HW149329   7.365   6.250   1.774
82499SOL    HW249330   7.276   6.147   1.707
82500SOL     OW49331  12.527   6.778   6.613
82500SOL    HW149332  12.563   6.704   6.563
82500SOL    HW249333  12.529   6.851   6.552
82501SOL     OW49334  11.105   2.668   0.470
82501SOL    HW149335  11.058   2.585   0.479
82501SOL    HW249336  11.154   2.659   0.389
82502SOL     OW49337   1.083   4.611   1.158
82502SOL    HW149338   1.081   4.690   1.104
82502SOL    HW249339   1.147   4.554   1.115
82503SOL     OW49340   8.263   3.118   7.889
82503SOL    HW149341   8.292   3.094   7.801
82503SOL    HW249342   8.340   3.158   7.930
82504SOL     OW49343   0.524   1.346   0.049
82504SOL    HW149344   0.553   1.382   0.133
82504SOL    HW249345   0.604   1.315   0.007
82505SOL     OW49346   6.354  14.531   3.838
82505SOL    HW149347   6.278  14.472   3.833
82505SOL    HW249348   6.379  14.529   3.930
82506SOL     OW49349   3.565  13.073   7.243
82506SOL    HW149350   3.523  13.138   7.299
82506SOL    HW249351   3.523  13.083   7.158
82507SOL     OW49352  10.553  13.100  11.244
82507SOL    HW149353  10.568  13.047  11.323
82507SOL    HW249354  10.604  13.180  11.259
82508SOL     OW49355   9.494  10.521   3.817
82508SOL    HW149356   9.544  10.587   3.865
82508SOL    HW249357   9.557  10.481   3.758
82509SOL     OW49358   2.936   6.093  12.279
82509SOL    HW149359   2.896   6.067  12.362
82509SOL    HW249360   2.938   6.012  12.228
82510SOL     OW49361   1.911  12.775  10.290
82510SOL    HW149362   1.924  12.755  10.383
82510SOL    HW249363   1.996  12.758  10.250
82511SOL     OW49364   8.224   7.902   0.583
82511SOL    HW149365   8.184   7.929   0.501
82511SOL    HW249366   8.166   7.834   0.616
82512SOL     OW49367   1.098  14.259   9.089
82512SOL    HW149368   1.085  14.282   8.997
82512SOL    HW249369   1.030  14.308   9.135
82513SOL     OW49370   9.138   4.870   2.572
82513SOL    HW149371   9.074   4.848   2.639
82513SOL    HW249372   9.085   4.888   2.494
82514SOL     OW49373   2.995   6.030   4.549
82514SOL    HW149374   3.029   6.100   4.493
82514SOL    HW249375   2.954   6.077   4.623
82515SOL     OW49376   0.825   4.292   5.920
82515SOL    HW149377   0.858   4.203   5.932
82515SOL    HW249378   0.748   4.281   5.863
82516SOL     OW49379   2.935  13.630   4.351
82516SOL    HW149380   2.968  13.718   4.369
82516SOL    HW249381   2.983  13.574   4.412
82517SOL     OW49382   8.419   3.242   9.040
82517SOL    HW149383   8.398   3.240   9.133
82517SOL    HW249384   8.514   3.254   9.037
82518SOL     OW49385   3.855   2.340  12.473
82518SOL    HW149386   3.889   2.322  12.560
82518SOL    HW249387   3.895   2.273  12.417
82519SOL     OW49388  13.044   2.651   0.187
82519SOL    HW149389  13.030   2.708   0.112
82519SOL    HW249390  13.073   2.568   0.150
82520SOL     OW49391   4.817  10.219   2.484
82520SOL    HW149392   4.827  10.308   2.450
82520SOL    HW249393   4.863  10.164   2.421
82521SOL     OW49394   3.253  10.717   6.832
82521SOL    HW149395   3.347  10.715   6.850
82521SOL    HW249396   3.247  10.745   6.740
82522SOL     OW49397   9.461   2.463   7.393
82522SOL    HW149398   9.469   2.397   7.462
82522SOL    HW249399   9.488   2.544   7.434
82523SOL     OW49400   9.613  10.190  12.596
82523SOL    HW149401   9.649  10.126  12.658
82523SOL    HW249402   9.609  10.272  12.646
82524SOL     OW49403  13.228   7.798  13.845
82524SOL    HW149404  13.221   7.706  13.872
82524SOL    HW249405  13.145   7.837  13.870
82525SOL     OW49406  13.378  13.391  14.069
82525SOL    HW149407  13.337  13.427  14.148
82525SOL    HW249408  13.401  13.302  14.093
82526SOL     OW49409  10.544   7.458   2.562
82526SOL    HW149410  10.563   7.487   2.651
82526SOL    HW249411  10.513   7.537   2.517
82527SOL     OW49412   2.057  13.645  13.036
82527SOL    HW149413   2.115  13.715  13.066
82527SOL    HW249414   2.097  13.614  12.955
82528SOL     OW49415   2.237   6.802   4.440
82528SOL    HW149416   2.237   6.815   4.345
82528SOL    HW249417   2.317   6.844   4.470
82529SOL     OW49418   4.044  14.192  10.628
82529SOL    HW149419   3.960  14.147  10.623
82529SOL    HW249420   4.021  14.285  10.632
82530SOL     OW49421  13.075   1.148  12.175
82530SOL    HW149422  13.150   1.102  12.137
82530SOL    HW249423  13.004   1.134  12.114
82531SOL     OW49424   4.917   9.379   1.615
82531SOL    HW149425   4.933   9.325   1.537
82531SOL    HW249426   4.879   9.318   1.679
82532SOL     OW49427   2.285  12.718   5.975
82532SOL    HW149428   2.224  12.646   5.993
82532SOL    HW249429   2.229  12.789   5.944
82533SOL     OW49430   8.506  10.903   1.868
82533SOL    HW149431   8.584  10.923   1.920
82533SOL    HW249432   8.524  10.940   1.782
82534SOL     OW49433  10.383   0.512   6.685
82534SOL    HW149434  10.413   0.499   6.596
82534SOL    HW249435  10.441   0.579   6.722
82535SOL     OW49436  13.715   8.027   0.449
82535SOL    HW149437  13.629   8.063   0.469
82535SOL    HW249438  13.775   8.102   0.458
82536SOL     OW49439   3.679   2.333  11.512
82536SOL    HW149440   3.620   2.395  11.468
82536SOL    HW249441   3.736   2.301  11.443
82537SOL     OW49442   6.704  13.242   9.709
82537SOL    HW149443   6.695  13.331   9.745
82537SOL    HW249444   6.786  13.245   9.660
82538SOL     OW49445   3.749   8.505  13.695
82538SOL    HW149446   3.703   8.468  13.769
82538SOL    HW249447   3.681   8.551  13.645
82539SOL     OW49448  13.612   2.927   4.415
82539SOL    HW149449  13.526   2.924   4.455
82539SOL    HW249450  13.652   3.007   4.448
82540SOL     OW49451   7.938  10.721   1.307
82540SOL    HW149452   7.897  10.790   1.254
82540SOL    HW249453   7.982  10.665   1.243
82541SOL     OW49454  13.391   5.870   4.120
82541SOL    HW149455  13.477   5.830   4.130
82541SOL    HW249456  13.384   5.887   4.026
82542SOL     OW49457  14.462   5.767  13.102
82542SOL    HW149458  14.384   5.786  13.154
82542SOL    HW249459  14.509   5.850  13.099
82543SOL     OW49460   6.223   0.318  13.425
82543SOL    HW149461   6.316   0.311  13.404
82543SOL    HW249462   6.204   0.240  13.478
82544SOL     OW49463   6.612  12.076   2.425
82544SOL    HW149464   6.626  12.046   2.515
82544SOL    HW249465   6.699  12.073   2.385
82545SOL     OW49466   6.421   9.196   3.040
82545SOL    HW149467   6.346   9.244   3.005
82545SOL    HW249468   6.497   9.240   3.002
82546SOL     OW49469  12.479  10.784  11.519
82546SOL    HW149470  12.540  10.806  11.448
82546SOL    HW249471  12.433  10.866  11.536
82547SOL     OW49472  14.556  13.867   2.814
82547SOL    HW149473  14.549  13.928   2.888
82547SOL    HW249474  14.493  13.900   2.750
82548SOL     OW49475  14.801   0.198   9.349
82548SOL    HW149476  14.764   0.199   9.261
82548SOL    HW249477  14.799   0.289   9.377
82549SOL     OW49478  13.009   8.240   6.329
82549SOL    HW149479  13.062   8.172   6.372
82549SOL    HW249480  12.949   8.192   6.273
82550SOL     OW49481   1.139   1.665  10.482
82550SOL    HW149482   1.216   1.611  10.468
82550SOL    HW249483   1.120   1.703  10.396
82551SOL     OW49484   3.251  14.082  12.897
82551SOL    HW149485   3.178  14.133  12.861
82551SOL    HW249486   3.317  14.082  12.827
82552SOL     OW49487  12.259   2.161  11.331
82552SOL    HW149488  12.211   2.114  11.399
82552SOL    HW249489  12.257   2.252  11.359
82553SOL     OW49490  13.427   5.233  13.682
82553SOL    HW149491  13.521   5.232  13.669
82553SOL    HW249492  13.394   5.294  13.616
82554SOL     OW49493   9.522   5.635  10.526
82554SOL    HW149494   9.589   5.572  10.500
82554SOL    HW249495   9.499   5.609  10.615
82555SOL     OW49496   1.576  12.554  11.388
82555SOL    HW149497   1.588  12.632  11.443
82555SOL    HW249498   1.506  12.578  11.327
82556SOL     OW49499   9.232   0.519  13.726
82556SOL    HW149500   9.177   0.569  13.666
82556SOL    HW249501   9.300   0.480  13.669
82557SOL     OW49502  11.073   0.559   6.255
82557SOL    HW149503  11.093   0.651   6.242
82557SOL    HW249504  10.978   0.553   6.245
82558SOL     OW49505   2.564   5.773   5.050
82558SOL    HW149506   2.532   5.770   4.960
82558SOL    HW249507   2.488   5.799   5.102
82559SOL     OW49508   5.550  14.709  14.545
82559SOL    HW149509   5.484  14.646  14.574
82559SOL    HW249510   5.533  14.721  14.451
82560SOL     OW49511   7.636   3.216   9.287
82560SOL    HW149512   7.701   3.184   9.348
82560SOL    HW249513   7.681   3.285   9.238
82561SOL     OW49514   4.284  12.330   0.763
82561SOL    HW149515   4.339  12.281   0.701
82561SOL    HW249516   4.347  12.370   0.823
82562SOL     OW49517  10.580   4.587  11.185
82562SOL    HW149518  10.657   4.621  11.140
82562SOL    HW249519  10.516   4.574  11.116
82563SOL     OW49520   4.410   9.857  13.598
82563SOL    HW149521   4.367   9.846  13.683
82563SOL    HW249522   4.500   9.827  13.612
82564SOL     OW49523  10.272   3.481   2.380
82564SOL    HW149524  10.243   3.500   2.469
82564SOL    HW249525  10.195   3.500   2.326
82565SOL     OW49526   8.573  10.441  10.459
82565SOL    HW149527   8.524  10.522  10.445
82565SOL    HW249528   8.648  10.467  10.512
82566SOL     OW49529   2.564  13.321   4.537
82566SOL    HW149530   2.539  13.344   4.627
82566SOL    HW249531   2.577  13.405   4.493
82567SOL     OW49532   8.947   9.896   0.038
82567SOL    HW149533   8.937   9.814  14.871
82567SOL    HW249534   8.889   9.958  14.875
82568SOL     OW49535  10.379   7.483  12.262
82568SOL    HW149536  10.452   7.540  12.240
82568SOL    HW249537  10.380   7.415  12.195
82569SOL     OW49538   0.477   1.313   7.123
82569SOL    HW149539   0.513   1.397   7.094
82569SOL    HW249540   0.538   1.284   7.192
82570SOL     OW49541   5.661   0.142   9.961
82570SOL    HW149542   5.619   0.177   9.883
82570SOL    HW249543   5.714   0.216   9.994
82571SOL     OW49544   2.614   1.341   7.758
82571SOL    HW149545   2.561   1.362   7.835
82571SOL    HW249546   2.551   1.337   7.686
82572SOL     OW49547   2.902   3.250  10.031
82572SOL    HW149548   2.913   3.249  10.126
82572SOL    HW249549   2.914   3.341  10.006
82573SOL     OW49550  14.625   9.024   1.805
82573SOL    HW149551  14.613   9.054   1.895
82573SOL    HW249552  14.715   9.048   1.783
82574SOL     OW49553   8.515   7.213  13.711
82574SOL    HW149554   8.505   7.233  13.804
82574SOL    HW249555   8.568   7.285  13.677
82575SOL     OW49556   4.609   2.248   4.737
82575SOL    HW149557   4.571   2.214   4.656
82575SOL    HW249558   4.595   2.178   4.801
82576SOL     OW49559   9.256   2.561   7.265
82576SOL    HW149560   9.348   2.541   7.286
82576SOL    HW249561   9.214   2.573   7.350
82577SOL     OW49562   6.521   1.232   9.397
82577SOL    HW149563   6.524   1.163   9.464
82577SOL    HW249564   6.580   1.300   9.431
82578SOL     OW49565  14.695  10.416   5.147
82578SOL    HW149566  14.753  10.385   5.077
82578SOL    HW249567  14.742  10.394   5.228
82579SOL     OW49568   8.686   8.184   1.685
82579SOL    HW149569   8.641   8.117   1.737
82579SOL    HW249570   8.733   8.237   1.749
82580SOL     OW49571  12.090   8.450  12.783
82580SOL    HW149572  12.044   8.383  12.733
82580SOL    HW249573  12.033   8.468  12.858
82581SOL     OW49574   6.928   5.710   9.876
82581SOL    HW149575   6.992   5.639   9.879
82581SOL    HW249576   6.952   5.762   9.799
82582SOL     OW49577  12.525   8.289  10.500
82582SOL    HW149578  12.550   8.226  10.568
82582SOL    HW249579  12.573   8.259  10.422
82583SOL     OW49580  12.409   3.862   9.466
82583SOL    HW149581  12.452   3.866   9.380
82583SOL    HW249582  12.465   3.805   9.518
82584SOL     OW49583   4.003  10.280   4.375
82584SOL    HW149584   4.054  10.239   4.445
82584SOL    HW249585   4.039  10.243   4.294
82585SOL     OW49586   6.530   7.365  11.347
82585SOL    HW149587   6.549   7.433  11.412
82585SOL    HW249588   6.468   7.306  11.391
82586SOL     OW49589  10.946   4.423   2.584
82586SOL    HW149590  11.001   4.427   2.662
82586SOL    HW249591  11.006   4.405   2.512
82587SOL     OW49592   2.294   4.685  11.043
82587SOL    HW149593   2.225   4.619  11.051
82587SOL    HW249594   2.276   4.728  10.960
82588SOL     OW49595   9.372   2.139   0.472
82588SOL    HW149596   9.430   2.144   0.397
82588SOL    HW249597   9.292   2.098   0.439
82589SOL     OW49598  10.760   4.855   0.405
82589SOL    HW149599  10.717   4.882   0.324
82589SOL    HW249600  10.738   4.924   0.468
82590SOL     OW49601   1.885   2.897   2.428
82590SOL    HW149602   1.849   2.834   2.366
82590SOL    HW249603   1.971   2.863   2.451
82591SOL     OW49604   0.150  10.812   7.919
82591SOL    HW149605   0.223  10.871   7.934
82591SOL    HW249606   0.145  10.803   7.824
82592SOL     OW49607   4.263  10.994   7.210
82592SOL    HW149608   4.350  11.034   7.209
82592SOL    HW249609   4.280  10.901   7.224
82593SOL     OW49610  13.291   8.376  13.130
82593SOL    HW149611  13.274   8.434  13.204
82593SOL    HW249612  13.260   8.290  13.159
82594SOL     OW49613   7.226   6.623   8.631
82594SOL    HW149614   7.297   6.592   8.688
82594SOL    HW249615   7.258   6.605   8.542
82595SOL     OW49616  12.186   7.947  10.093
82595SOL    HW149617  12.243   7.891  10.147
82595SOL    HW249618  12.122   7.982  10.155
82596SOL     OW49619   1.858   3.576  13.143
82596SOL    HW149620   1.898   3.612  13.064
82596SOL    HW249621   1.808   3.500  13.112
82597SOL     OW49622   2.493   2.480   2.715
82597SOL    HW149623   2.414   2.529   2.691
82597SOL    HW249624   2.547   2.543   2.762
82598SOL     OW49625   9.929  11.733   5.056
82598SOL    HW149626   9.900  11.706   4.969
82598SOL    HW249627   9.921  11.654   5.110
82599SOL     OW49628   0.891  13.223   4.396
82599SOL    HW149629   0.811  13.216   4.448
82599SOL    HW249630   0.938  13.297   4.435
82600SOL     OW49631   8.790   6.460   5.148
82600SOL    HW149632   8.701   6.446   5.182
82600SOL    HW249633   8.785   6.543   5.100
82601SOL     OW49634   3.333   4.184  13.682
82601SOL    HW149635   3.339   4.273  13.648
82601SOL    HW249636   3.364   4.129  13.609
82602SOL     OW49637  13.307  14.790  12.940
82602SOL    HW149638  13.374  14.725  12.918
82602SOL    HW249639  13.225  14.746  12.920
82603SOL     OW49640  10.365  13.902   3.816
82603SOL    HW149641  10.276  13.868   3.821
82603SOL    HW249642  10.383  13.909   3.722
82604SOL     OW49643  12.927   4.726   3.907
82604SOL    HW149644  12.910   4.650   3.851
82604SOL    HW249645  13.021   4.721   3.927
82605SOL     OW49646   7.331   6.188  10.345
82605SOL    HW149647   7.370   6.190  10.258
82605SOL    HW249648   7.236   6.189  10.328
82606SOL     OW49649   4.968  13.858  10.088
82606SOL    HW149650   5.028  13.839  10.160
82606SOL    HW249651   4.929  13.942  10.110
82607SOL     OW49652   9.159  11.145   2.404
82607SOL    HW149653   9.229  11.081   2.404
82607SOL    HW249654   9.202  11.229   2.386
82608SOL     OW49655   2.848   3.015   6.136
82608SOL    HW149656   2.760   2.994   6.166
82608SOL    HW249657   2.841   3.104   6.102
82609SOL     OW49658  13.902   2.878  13.008
82609SOL    HW149659  13.817   2.888  13.053
82609SOL    HW249660  13.967   2.892  13.077
82610SOL     OW49661  13.929  11.864   3.508
82610SOL    HW149662  13.996  11.931   3.498
82610SOL    HW249663  13.886  11.884   3.591
82611SOL     OW49664   4.399   1.160   3.542
82611SOL    HW149665   4.465   1.197   3.601
82611SOL    HW249666   4.418   1.066   3.542
82612SOL     OW49667  14.181   2.107   1.601
82612SOL    HW149668  14.225   2.123   1.685
82612SOL    HW249669  14.251   2.081   1.542
82613SOL     OW49670   9.524   7.291  12.248
82613SOL    HW149671   9.586   7.250  12.307
82613SOL    HW249672   9.560   7.379  12.233
82614SOL     OW49673  11.339   7.350  10.383
82614SOL    HW149674  11.394   7.359  10.460
82614SOL    HW249675  11.368   7.269  10.341
82615SOL     OW49676   9.383  11.722  10.274
82615SOL    HW149677   9.354  11.813  10.280
82615SOL    HW249678   9.381  11.702  10.180
82616SOL     OW49679   2.969   9.822   1.118
82616SOL    HW149680   2.962   9.912   1.148
82616SOL    HW249681   3.063   9.803   1.120
82617SOL     OW49682  13.708   1.635  12.372
82617SOL    HW149683  13.635   1.683  12.334
82617SOL    HW249684  13.776   1.635  12.305
82618SOL     OW49685   1.062   3.149   7.992
82618SOL    HW149686   1.113   3.189   8.063
82618SOL    HW249687   1.003   3.218   7.963
82619SOL     OW49688   7.975  11.018   0.265
82619SOL    HW149689   7.925  10.937   0.276
82619SOL    HW249690   7.912  11.088   0.278
82620SOL     OW49691   0.929  14.780   7.961
82620SOL    HW149692   0.926  14.872   7.933
82620SOL    HW249693   0.993  14.739   7.903
82621SOL     OW49694   4.063   9.714   5.981
82621SOL    HW149695   4.079   9.666   5.900
82621SOL    HW249696   4.140   9.768   5.993
82622SOL     OW49697  12.552  14.595   0.192
82622SOL    HW149698  12.488  14.638   0.249
82622SOL    HW249699  12.533  14.629   0.105
82623SOL     OW49700   5.536   2.706   0.196
82623SOL    HW149701   5.560   2.662   0.278
82623SOL    HW249702   5.604   2.680   0.134
82624SOL     OW49703  10.122   4.467   6.838
82624SOL    HW149704  10.178   4.485   6.762
82624SOL    HW249705  10.090   4.553   6.865
82625SOL     OW49706   1.936   4.462   9.788
82625SOL    HW149707   1.868   4.397   9.769
82625SOL    HW249708   1.888   4.541   9.811
82626SOL     OW49709  10.969   8.533   5.749
82626SOL    HW149710  10.965   8.565   5.840
82626SOL    HW249711  10.895   8.473   5.742
82627SOL     OW49712   5.477   6.085   2.733
82627SOL    HW149713   5.413   6.039   2.678
82627SOL    HW249714   5.560   6.075   2.687
82628SOL     OW49715  13.692  13.798   5.613
82628SOL    HW149716  13.705  13.868   5.548
82628SOL    HW249717  13.733  13.721   5.573
82629SOL     OW49718   0.144  10.738   4.001
82629SOL    HW149719   0.124  10.673   4.067
82629SOL    HW249720   0.161  10.687   3.921
82630SOL     OW49721   5.726  14.476   3.650
82630SOL    HW149722   5.712  14.546   3.714
82630SOL    HW249723   5.667  14.406   3.677
82631SOL     OW49724  11.444  14.699   3.088
82631SOL    HW149725  11.534  14.668   3.074
82631SOL    HW249726  11.415  14.728   3.002
82632SOL     OW49727   4.187   5.310   7.165
82632SOL    HW149728   4.188   5.361   7.084
82632SOL    HW249729   4.140   5.365   7.227
82633SOL     OW49730   3.116  11.251   2.167
82633SOL    HW149731   3.155  11.169   2.136
82633SOL    HW249732   3.022  11.239   2.157
82634SOL     OW49733  11.004   8.639  13.264
82634SOL    HW149734  10.999   8.614  13.171
82634SOL    HW249735  10.956   8.570  13.310
82635SOL     OW49736  13.332   6.165   6.882
82635SOL    HW149737  13.412   6.166   6.830
82635SOL    HW249738  13.359   6.130   6.967
82636SOL     OW49739   3.746   3.260   8.593
82636SOL    HW149740   3.726   3.307   8.674
82636SOL    HW249741   3.841   3.271   8.581
82637SOL     OW49742  14.179   3.853  13.228
82637SOL    HW149743  14.159   3.892  13.142
82637SOL    HW249744  14.119   3.779  13.235
82638SOL     OW49745   7.696  10.653   1.425
82638SOL    HW149746   7.633  10.709   1.381
82638SOL    HW249747   7.764  10.637   1.359
82639SOL     OW49748  11.043   5.469   3.613
82639SOL    HW149749  11.062   5.431   3.528
82639SOL    HW249750  11.091   5.552   3.614
82640SOL     OW49751   0.090   7.781   6.552
82640SOL    HW149752   0.037   7.731   6.489
82640SOL    HW249753   0.176   7.740   6.548
82641SOL     OW49754  10.825   8.462   7.031
82641SOL    HW149755  10.911   8.430   7.055
82641SOL    HW249756  10.796   8.514   7.106
82642SOL     OW49757   0.129   2.342   8.132
82642SOL    HW149758   0.198   2.375   8.190
82642SOL    HW249759   0.152   2.376   8.045
82643SOL     OW49760  10.410   7.179   1.467
82643SOL    HW149761  10.330   7.227   1.446
82643SOL    HW249762  10.386   7.122   1.540
82644SOL     OW49763   5.912   3.308   2.903
82644SOL    HW149764   5.927   3.321   2.810
82644SOL    HW249765   5.946   3.221   2.921
82645SOL     OW49766   1.614   6.649   7.211
82645SOL    HW149767   1.688   6.676   7.265
82645SOL    HW249768   1.551   6.722   7.218
82646SOL     OW49769   6.168  12.143   8.275
82646SOL    HW149770   6.092  12.146   8.218
82646SOL    HW249771   6.241  12.168   8.219
82647SOL     OW49772   7.123   9.133  10.260
82647SOL    HW149773   7.113   9.185  10.340
82647SOL    HW249774   7.067   9.176  10.196
82648SOL     OW49775   2.798   6.044  10.003
82648SOL    HW149776   2.724   6.093   9.967
82648SOL    HW249777   2.875   6.092   9.972
82649SOL     OW49778  10.600  12.659   2.985
82649SOL    HW149779  10.648  12.580   2.957
82649SOL    HW249780  10.512  12.646   2.950
82650SOL     OW49781  13.871  12.859   6.934
82650SOL    HW149782  13.794  12.912   6.953
82650SOL    HW249783  13.897  12.884   6.846
82651SOL     OW49784  12.226  11.541   0.728
82651SOL    HW149785  12.175  11.531   0.809
82651SOL    HW249786  12.305  11.489   0.743
82652SOL     OW49787   4.637  14.875   9.665
82652SOL    HW149788   4.591   0.046   9.600
82652SOL    HW249789   4.730   0.009   9.647
82653SOL     OW49790  13.998   0.724  12.658
82653SOL    HW149791  14.021   0.631  12.652
82653SOL    HW249792  14.077   0.770  12.631
82654SOL     OW49793  14.360   8.678   8.355
82654SOL    HW149794  14.452   8.700   8.371
82654SOL    HW249795  14.349   8.592   8.396
82655SOL     OW49796   6.907   7.494   1.241
82655SOL    HW149797   6.823   7.497   1.288
82655SOL    HW249798   6.930   7.586   1.229
82656SOL     OW49799   4.931   8.447   7.058
82656SOL    HW149800   4.939   8.355   7.081
82656SOL    HW249801   4.837   8.460   7.041
82657SOL     OW49802   7.617   6.901   9.232
82657SOL    HW149803   7.678   6.973   9.248
82657SOL    HW249804   7.644   6.832   9.292
82658SOL     OW49805   4.062   5.551   4.319
82658SOL    HW149806   4.021   5.635   4.298
82658SOL    HW249807   4.038   5.535   4.411
82659SOL     OW49808   6.013  13.282   0.126
82659SOL    HW149809   5.951  13.223   0.168
82659SOL    HW249810   5.986  13.369   0.154
82660SOL     OW49811  13.366   0.734   4.442
82660SOL    HW149812  13.410   0.793   4.503
82660SOL    HW249813  13.281   0.776   4.424
82661SOL     OW49814  11.564   8.347   8.941
82661SOL    HW149815  11.570   8.372   9.033
82661SOL    HW249816  11.652   8.359   8.907
82662SOL     OW49817  13.180   0.552  12.315
82662SOL    HW149818  13.265   0.514  12.336
82662SOL    HW249819  13.117   0.490  12.351
82663SOL     OW49820  14.183   8.206  10.675
82663SOL    HW149821  14.279   8.209  10.680
82663SOL    HW249822  14.165   8.118  10.640
82664SOL     OW49823   1.990   5.333   8.438
82664SOL    HW149824   1.996   5.419   8.481
82664SOL    HW249825   1.913   5.292   8.479
82665SOL     OW49826  14.775  10.429   8.293
82665SOL    HW149827  14.687  10.440   8.257
82665SOL    HW249828  14.832  10.478   8.234
82666SOL     OW49829   7.115   9.376   3.751
82666SOL    HW149830   7.089   9.305   3.692
82666SOL    HW249831   7.076   9.352   3.836
82667SOL     OW49832  10.079   5.377  11.881
82667SOL    HW149833  10.163   5.423  11.877
82667SOL    HW249834  10.034   5.401  11.801
82668SOL     OW49835   1.962   2.283  10.107
82668SOL    HW149836   1.997   2.351  10.165
82668SOL    HW249837   1.872   2.271  10.135
82669SOL     OW49838   6.776  12.100   4.294
82669SOL    HW149839   6.727  12.142   4.223
82669SOL    HW249840   6.868  12.115   4.271
82670SOL     OW49841   4.167   1.139   4.610
82670SOL    HW149842   4.185   1.183   4.527
82670SOL    HW249843   4.249   1.145   4.659
82671SOL     OW49844   9.186   6.971   4.692
82671SOL    HW149845   9.109   7.000   4.644
82671SOL    HW249846   9.151   6.932   4.772
82672SOL     OW49847   3.092  14.070   6.335
82672SOL    HW149848   3.168  14.076   6.278
82672SOL    HW249849   3.119  14.113   6.416
82673SOL     OW49850  12.448   3.305   9.350
82673SOL    HW149851  12.370   3.326   9.401
82673SOL    HW249852  12.416   3.295   9.261
82674SOL     OW49853   0.938   2.803   3.220
82674SOL    HW149854   1.016   2.822   3.272
82674SOL    HW249855   0.865   2.818   3.280
82675SOL     OW49856  12.718   1.581  14.108
82675SOL    HW149857  12.768   1.572  14.189
82675SOL    HW249858  12.667   1.500  14.101
82676SOL     OW49859   6.551  10.769  10.441
82676SOL    HW149860   6.625  10.715  10.414
82676SOL    HW249861   6.481  10.747  10.379
82677SOL     OW49862   9.626   7.167  12.500
82677SOL    HW149863   9.650   7.113  12.575
82677SOL    HW249864   9.659   7.255  12.521
82678SOL     OW49865  11.062   8.422  10.548
82678SOL    HW149866  11.048   8.438  10.455
82678SOL    HW249867  11.134   8.359  10.552
82679SOL     OW49868  10.398  14.388   1.352
82679SOL    HW149869  10.409  14.349   1.439
82679SOL    HW249870  10.464  14.347   1.298
82680SOL     OW49871  14.748  14.573   9.716
82680SOL    HW149872  14.653  14.578   9.714
82680SOL    HW249873  14.768  14.525   9.796
82681SOL     OW49874   6.481   8.089   5.266
82681SOL    HW149875   6.506   8.180   5.250
82681SOL    HW249876   6.406   8.074   5.209
82682SOL     OW49877  10.016   0.191   4.353
82682SOL    HW149878  10.049   0.214   4.265
82682SOL    HW249879   9.965   0.112   4.339
82683SOL     OW49880   9.919   0.115   3.603
82683SOL    HW149881   9.975   0.143   3.531
82683SOL    HW249882   9.832   0.106   3.564
82684SOL     OW49883   7.505  13.925   2.787
82684SOL    HW149884   7.532  13.915   2.696
82684SOL    HW249885   7.467  14.013   2.791
82685SOL     OW49886  14.836  10.496  11.048
82685SOL    HW149887  14.744  10.520  11.059
82685SOL    HW249888   0.003  10.571  11.083
82686SOL     OW49889  11.716   2.716   8.742
82686SOL    HW149890  11.741   2.644   8.800
82686SOL    HW249891  11.649   2.763   8.791
82687SOL     OW49892  12.430  10.113   3.358
82687SOL    HW149893  12.447  10.061   3.437
82687SOL    HW249894  12.506  10.096   3.301
82688SOL     OW49895  10.745   4.261   2.388
82688SOL    HW149896  10.787   4.207   2.455
82688SOL    HW249897  10.818   4.305   2.344
82689SOL     OW49898   3.038  10.650  14.820
82689SOL    HW149899   3.107  10.603  14.774
82689SOL    HW249900   2.959  10.597  14.807
82690SOL     OW49901  11.918   2.818   2.115
82690SOL    HW149902  11.865   2.894   2.091
82690SOL    HW249903  11.856   2.759   2.157
82691SOL     OW49904   8.955  10.948  13.145
82691SOL    HW149905   8.996  10.946  13.231
82691SOL    HW249906   8.980  11.033  13.108
82692SOL     OW49907   5.749   3.060   1.734
82692SOL    HW149908   5.677   3.013   1.775
82692SOL    HW249909   5.757   3.141   1.785
82693SOL     OW49910   3.432   4.487   8.401
82693SOL    HW149911   3.482   4.479   8.320
82693SOL    HW249912   3.362   4.548   8.381
82694SOL     OW49913   5.642   1.405  10.526
82694SOL    HW149914   5.625   1.427  10.618
82694SOL    HW249915   5.619   1.312  10.519
82695SOL     OW49916   4.688  14.827   6.237
82695SOL    HW149917   4.617  14.870   6.285
82695SOL    HW249918   4.652  14.743   6.211
82696SOL     OW49919   6.301   6.308  13.944
82696SOL    HW149920   6.281   6.392  13.984
82696SOL    HW249921   6.397   6.302  13.946
82697SOL     OW49922   5.551  11.842  10.834
82697SOL    HW149923   5.643  11.817  10.828
82697SOL    HW249924   5.537  11.859  10.927
82698SOL     OW49925  13.760  10.060   8.682
82698SOL    HW149926  13.808   9.979   8.698
82698SOL    HW249927  13.710  10.075   8.762
82699SOL     OW49928   9.962   3.679   2.969
82699SOL    HW149929  10.054   3.675   2.944
82699SOL    HW249930   9.963   3.710   3.060
82700SOL     OW49931   8.099  10.878   9.899
82700SOL    HW149932   8.022  10.820   9.904
82700SOL    HW249933   8.111  10.909   9.988
82701SOL     OW49934  12.452  13.218   2.625
82701SOL    HW149935  12.363  13.253   2.622
82701SOL    HW249936  12.461  13.170   2.543
82702SOL     OW49937  12.297   0.115  14.131
82702SOL    HW149938  12.371   0.101  14.073
82702SOL    HW249939  12.315   0.059  14.207
82703SOL     OW49940   8.355   0.041   7.063
82703SOL    HW149941   8.360   0.105   6.992
82703SOL    HW249942   8.446   0.013   7.077
82704SOL     OW49943   4.988   7.180   9.659
82704SOL    HW149944   4.984   7.256   9.602
82704SOL    HW249945   5.027   7.212   9.740
82705SOL     OW49946   6.848  13.660  13.481
82705SOL    HW149947   6.897  13.581  13.459
82705SOL    HW249948   6.908  13.713  13.533
82706SOL     OW49949   2.655   6.519   1.374
82706SOL    HW149950   2.566   6.532   1.342
82706SOL    HW249951   2.657   6.427   1.400
82707SOL     OW49952   6.098   5.433   0.888
82707SOL    HW149953   6.119   5.340   0.879
82707SOL    HW249954   6.174   5.469   0.935
82708SOL     OW49955  11.098  10.226  12.131
82708SOL    HW149956  11.171  10.288  12.122
82708SOL    HW249957  11.139  10.145  12.161
82709SOL     OW49958  12.671   4.516  10.554
82709SOL    HW149959  12.731   4.447  10.527
82709SOL    HW249960  12.689   4.530  10.647
82710SOL     OW49961  10.318   7.473   0.916
82710SOL    HW149962  10.258   7.399   0.928
82710SOL    HW249963  10.403   7.432   0.903
82711SOL     OW49964   2.099   5.745  13.008
82711SOL    HW149965   2.073   5.759  13.099
82711SOL    HW249966   2.192   5.724  13.012
82712SOL     OW49967  10.669  12.844   0.402
82712SOL    HW149968  10.586  12.800   0.390
82712SOL    HW249969  10.734  12.774   0.401
82713SOL     OW49970  12.118   9.227   1.695
82713SOL    HW149971  12.179   9.227   1.621
82713SOL    HW249972  12.126   9.140   1.733
82714SOL     OW49973   2.702   6.289   6.420
82714SOL    HW149974   2.760   6.232   6.369
82714SOL    HW249975   2.753   6.369   6.432
82715SOL     OW49976   6.832   8.637   8.528
82715SOL    HW149977   6.777   8.713   8.510
82715SOL    HW249978   6.904   8.643   8.465
82716SOL     OW49979   9.413  13.717   9.696
82716SOL    HW149980   9.339  13.777   9.693
82716SOL    HW249981   9.399  13.664   9.775
82717SOL     OW49982  10.421   5.024  13.800
82717SOL    HW149983  10.401   5.108  13.841
82717SOL    HW249984  10.358   5.016  13.729
82718SOL     OW49985   7.779  12.322  12.356
82718SOL    HW149986   7.865  12.285  12.377
82718SOL    HW249987   7.726  12.305  12.434
82719SOL     OW49988   7.375   2.897   7.350
82719SOL    HW149989   7.326   2.964   7.302
82719SOL    HW249990   7.327   2.885   7.432
82720SOL     OW49991   0.038   7.485   0.752
82720SOL    HW149992  14.825   7.499   0.760
82720SOL    HW249993   0.067   7.553   0.691
82721SOL     OW49994  14.498   4.694  14.188
82721SOL    HW149995  14.494   4.681  14.094
82721SOL    HW249996  14.457   4.779  14.203
82722SOL     OW49997  10.008   0.531   9.091
82722SOL    HW149998   9.942   0.596   9.067
82722SOL    HW249999  10.067   0.578   9.149
82723SOL     OW50000   6.700  10.596  12.182
82723SOL    HW150001   6.608  10.587  12.159
82723SOL    HW250002   6.723  10.514  12.227
82724SOL     OW50003  10.057   8.174   9.607
82724SOL    HW150004  10.114   8.149   9.534
82724SOL    HW250005  10.046   8.268   9.597
82725SOL     OW50006  10.167  14.231   8.217
82725SOL    HW150007  10.103  14.162   8.234
82725SOL    HW250008  10.120  14.293   8.160
82726SOL     OW50009  12.369   6.355   0.509
82726SOL    HW150010  12.351   6.440   0.468
82726SOL    HW250011  12.456   6.365   0.546
82727SOL     OW50012   3.968  14.772  13.340
82727SOL    HW150013   3.903  14.795  13.406
82727SOL    HW250014   3.924  14.708  13.283
82728SOL     OW50015   0.993  11.080   7.799
82728SOL    HW150016   1.080  11.041   7.799
82728SOL    HW250017   0.939  11.018   7.749
82729SOL     OW50018  14.073  12.076   1.990
82729SOL    HW150019  14.098  12.059   2.081
82729SOL    HW250020  13.980  12.055   1.986
82730SOL     OW50021   0.802   4.295   4.291
82730SOL    HW150022   0.708   4.305   4.303
82730SOL    HW250023   0.818   4.320   4.200
82731SOL     OW50024  13.647  13.153   3.127
82731SOL    HW150025  13.588  13.212   3.079
82731SOL    HW250026  13.604  13.068   3.124
82732SOL     OW50027   6.199  14.710  12.533
82732SOL    HW150028   6.269  14.646  12.546
82732SOL    HW250029   6.197  14.725  12.439
82733SOL     OW50030   8.997   6.100   1.541
82733SOL    HW150031   9.007   6.187   1.502
82733SOL    HW250032   9.074   6.090   1.597
82734SOL     OW50033  13.769   1.871   0.823
82734SOL    HW150034  13.747   1.792   0.872
82734SOL    HW250035  13.688   1.922   0.823
82735SOL     OW50036   9.253  12.299  10.682
82735SOL    HW150037   9.219  12.337  10.763
82735SOL    HW250038   9.226  12.360  10.613
82736SOL     OW50039   6.057   4.785   5.880
82736SOL    HW150040   6.035   4.877   5.867
82736SOL    HW250041   6.133   4.786   5.938
82737SOL     OW50042   8.031   2.937   4.447
82737SOL    HW150043   8.063   2.951   4.358
82737SOL    HW250044   8.021   2.842   4.454
82738SOL     OW50045   2.740   4.979   0.476
82738SOL    HW150046   2.739   5.005   0.384
82738SOL    HW250047   2.781   4.892   0.476
82739SOL     OW50048   6.493   4.125  10.805
82739SOL    HW150049   6.549   4.175  10.865
82739SOL    HW250050   6.444   4.066  10.863
82740SOL     OW50051   6.658  13.384   4.409
82740SOL    HW150052   6.634  13.421   4.494
82740SOL    HW250053   6.592  13.417   4.349
82741SOL     OW50054   1.778   5.678  10.206
82741SOL    HW150055   1.851   5.616  10.197
82741SOL    HW250056   1.795   5.744  10.139
82742SOL     OW50057   1.262  13.240   6.065
82742SOL    HW150058   1.284  13.207   6.152
82742SOL    HW250059   1.259  13.162   6.010
82743SOL     OW50060  13.129   8.020   3.709
82743SOL    HW150061  13.135   8.115   3.703
82743SOL    HW250062  13.131   8.002   3.803
82744SOL     OW50063  10.847   2.865   5.297
82744SOL    HW150064  10.924   2.901   5.253
82744SOL    HW250065  10.861   2.770   5.295
82745SOL     OW50066   5.771   8.351   4.691
82745SOL    HW150067   5.773   8.347   4.786
82745SOL    HW250068   5.800   8.440   4.670
82746SOL     OW50069   1.270  14.754  11.593
82746SOL    HW150070   1.211  14.812  11.543
82746SOL    HW250071   1.223  14.671  11.599
82747SOL     OW50072  14.213   0.411  12.297
82747SOL    HW150073  14.206   0.496  12.253
82747SOL    HW250074  14.173   0.349  12.237
82748SOL     OW50075   1.063   1.095  11.891
82748SOL    HW150076   1.145   1.134  11.920
82748SOL    HW250077   1.089   1.018  11.840
82749SOL     OW50078   2.560   5.090  12.870
82749SOL    HW150079   2.523   5.177  12.852
82749SOL    HW250080   2.495   5.029  12.835
82750SOL     OW50081   6.625  11.688   6.091
82750SOL    HW150082   6.627  11.784   6.083
82750SOL    HW250083   6.716  11.664   6.108
82751SOL     OW50084   8.445  14.579  14.266
82751SOL    HW150085   8.397  14.648  14.312
82751SOL    HW250086   8.410  14.497  14.302
82752SOL     OW50087  12.972   8.729   4.554
82752SOL    HW150088  13.050   8.674   4.545
82752SOL    HW250089  12.906   8.688   4.499
82753SOL     OW50090   5.153   7.293   4.407
82753SOL    HW150091   5.161   7.377   4.452
82753SOL    HW250092   5.209   7.234   4.459
82754SOL     OW50093  10.797   6.783  13.729
82754SOL    HW150094  10.855   6.830  13.789
82754SOL    HW250095  10.737   6.850  13.696
82755SOL     OW50096   1.531  11.818   0.538
82755SOL    HW150097   1.537  11.723   0.547
82755SOL    HW250098   1.443  11.839   0.568
82756SOL     OW50099   8.547   4.297   9.161
82756SOL    HW150100   8.614   4.235   9.133
82756SOL    HW250101   8.564   4.310   9.255
82757SOL     OW50102   2.103   9.669   5.708
82757SOL    HW150103   2.075   9.725   5.635
82757SOL    HW250104   2.024   9.620   5.732
82758SOL     OW50105   8.011   3.371  10.735
82758SOL    HW150106   8.013   3.454  10.687
82758SOL    HW250107   7.927   3.331  10.709
82759SOL     OW50108   3.192  12.817   7.583
82759SOL    HW150109   3.163  12.859   7.664
82759SOL    HW250110   3.130  12.745   7.570
82760SOL     OW50111  10.011  14.800   0.130
82760SOL    HW150112  10.011   0.012   0.145
82760SOL    HW250113  10.045  14.790   0.041
82761SOL     OW50114   3.296   1.909   2.721
82761SOL    HW150115   3.295   1.837   2.784
82761SOL    HW250116   3.204   1.924   2.701
82762SOL     OW50117  11.068  12.599   2.276
82762SOL    HW150118  11.096  12.687   2.300
82762SOL    HW250119  11.101  12.543   2.346
82763SOL     OW50120   9.553   1.751   8.638
82763SOL    HW150121   9.542   1.709   8.724
82763SOL    HW250122   9.644   1.778   8.636
82764SOL     OW50123   1.600   2.655   1.281
82764SOL    HW150124   1.615   2.667   1.187
82764SOL    HW250125   1.587   2.744   1.315
82765SOL     OW50126  12.185   9.132   1.998
82765SOL    HW150127  12.230   9.071   1.940
82765SOL    HW250128  12.241   9.137   2.076
82766SOL     OW50129   4.915   7.186  12.081
82766SOL    HW150130   4.880   7.270  12.111
82766SOL    HW250131   5.006   7.205  12.059
82767SOL     OW50132   0.668  12.383   3.797
82767SOL    HW150133   0.715  12.303   3.821
82767SOL    HW250134   0.719  12.454   3.834
82768SOL     OW50135  11.484   0.152   3.794
82768SOL    HW150136  11.571   0.190   3.785
82768SOL    HW250137  11.455   0.177   3.881
82769SOL     OW50138  13.073   0.677   0.990
82769SOL    HW150139  13.135   0.733   0.943
82769SOL    HW250140  13.032   0.624   0.922
82770SOL     OW50141   7.856   3.507   6.922
82770SOL    HW150142   7.790   3.530   6.856
82770SOL    HW250143   7.844   3.414   6.937
82771SOL     OW50144   0.505   3.913  12.278
82771SOL    HW150145   0.532   3.829  12.244
82771SOL    HW250146   0.487   3.897  12.371
82772SOL     OW50147   0.709   2.096   6.052
82772SOL    HW150148   0.785   2.109   6.108
82772SOL    HW250149   0.745   2.062   5.970
82773SOL     OW50150  12.059   4.519   3.206
82773SOL    HW150151  11.990   4.585   3.198
82773SOL    HW250152  12.032   4.464   3.279
82774SOL     OW50153   6.314   0.336  10.753
82774SOL    HW150154   6.250   0.345  10.823
82774SOL    HW250155   6.334   0.427  10.728
82775SOL     OW50156  14.538  10.682   8.030
82775SOL    HW150157  14.569  10.764   8.069
82775SOL    HW250158  14.523  10.703   7.938
82776SOL     OW50159   1.395   4.897  10.835
82776SOL    HW150160   1.398   4.944  10.919
82776SOL    HW250161   1.381   4.806  10.860
82777SOL     OW50162   0.876   8.390  13.130
82777SOL    HW150163   0.877   8.485  13.122
82777SOL    HW250164   0.961   8.368  13.168
82778SOL     OW50165   9.066   7.337  12.491
82778SOL    HW150166   9.116   7.269  12.446
82778SOL    HW250167   9.104   7.419  12.460
82779SOL     OW50168  14.245   5.222   8.121
82779SOL    HW150169  14.162   5.245   8.163
82779SOL    HW250170  14.291   5.305   8.113
82780SOL     OW50171   4.742   7.065   9.669
82780SOL    HW150172   4.822   7.117   9.670
82780SOL    HW250173   4.698   7.086   9.752
82781SOL     OW50174   0.966  14.012   5.156
82781SOL    HW150175   0.934  14.094   5.194
82781SOL    HW250176   1.002  14.036   5.071
82782SOL     OW50177   8.425   1.141   4.564
82782SOL    HW150178   8.481   1.114   4.637
82782SOL    HW250179   8.430   1.068   4.502
82783SOL     OW50180  12.847   0.990  12.067
82783SOL    HW150181  12.837   1.018  11.976
82783SOL    HW250182  12.775   1.033  12.113
82784SOL     OW50183   1.822  13.958   6.119
82784SOL    HW150184   1.799  13.913   6.201
82784SOL    HW250185   1.915  13.981   6.130
82785SOL     OW50186   2.496  10.545   0.308
82785SOL    HW150187   2.467  10.467   0.357
82785SOL    HW250188   2.546  10.596   0.372
82786SOL     OW50189   7.410   2.167  11.585
82786SOL    HW150190   7.489   2.136  11.629
82786SOL    HW250191   7.385   2.246  11.633
82787SOL     OW50192  13.160   8.722   5.981
82787SOL    HW150193  13.214   8.644   5.992
82787SOL    HW250194  13.150   8.758   6.069
82788SOL     OW50195   2.838   6.182   0.978
82788SOL    HW150196   2.839   6.241   1.053
82788SOL    HW250197   2.899   6.221   0.915
82789SOL     OW50198   2.588  14.788  14.775
82789SOL    HW150199   2.630  14.730  14.839
82789SOL    HW250200   2.618  14.876  14.800
82790SOL     OW50201   8.558   1.906  11.739
82790SOL    HW150202   8.612   1.831  11.713
82790SOL    HW250203   8.620   1.971  11.770
82791SOL     OW50204   8.008  14.500  12.646
82791SOL    HW150205   7.915  14.524  12.648
82791SOL    HW250206   8.044  14.542  12.724
82792SOL     OW50207   5.674   7.469  13.068
82792SOL    HW150208   5.670   7.524  13.146
82792SOL    HW250209   5.755   7.420  13.078
82793SOL     OW50210  11.436   4.584   0.196
82793SOL    HW150211  11.505   4.520   0.215
82793SOL    HW250212  11.377   4.578   0.271
82794SOL     OW50213   5.089   5.120   8.715
82794SOL    HW150214   5.048   5.177   8.780
82794SOL    HW250215   5.030   5.045   8.709
82795SOL     OW50216  12.506   9.880   2.928
82795SOL    HW150217  12.428   9.919   2.889
82795SOL    HW250218  12.533   9.813   2.864
82796SOL     OW50219  11.902   1.869   0.684
82796SOL    HW150220  11.894   1.913   0.599
82796SOL    HW250221  11.940   1.934   0.742
82797SOL     OW50222   6.256  11.111  10.692
82797SOL    HW150223   6.281  11.051  10.763
82797SOL    HW250224   6.221  11.188  10.736
82798SOL     OW50225   3.949   4.322   1.724
82798SOL    HW150226   4.043   4.336   1.710
82798SOL    HW250227   3.944   4.231   1.755
82799SOL     OW50228  10.142  12.099   3.578
82799SOL    HW150229  10.183  12.083   3.493
82799SOL    HW250230  10.053  12.064   3.569
82800SOL     OW50231  13.920   7.375   0.123
82800SOL    HW150232  14.008   7.411   0.115
82800SOL    HW250233  13.933   7.281   0.134
82801SOL     OW50234   7.830   3.616   3.740
82801SOL    HW150235   7.862   3.557   3.671
82801SOL    HW250236   7.886   3.693   3.733
82802SOL     OW50237  13.832   8.000   7.294
82802SOL    HW150238  13.861   8.089   7.276
82802SOL    HW250239  13.755   8.011   7.350
82803SOL     OW50240   1.682   4.335   8.081
82803SOL    HW150241   1.617   4.361   8.016
82803SOL    HW250242   1.669   4.397   8.153
82804SOL     OW50243   2.866   9.807  11.778
82804SOL    HW150244   2.947   9.854  11.756
82804SOL    HW250245   2.831   9.854  11.854
82805SOL     OW50246  14.797   3.825   4.304
82805SOL    HW150247  14.806   3.913   4.268
82805SOL    HW250248  14.706   3.802   4.287
82806SOL     OW50249   4.331   6.414   9.752
82806SOL    HW150250   4.386   6.359   9.807
82806SOL    HW250251   4.334   6.500   9.794
82807SOL     OW50252  10.321  13.868  14.846
82807SOL    HW150253  10.268  13.933  14.799
82807SOL    HW250254  10.311  13.890   0.056
82808SOL     OW50255   7.914   5.577   0.430
82808SOL    HW150256   7.819   5.571   0.444
82808SOL    HW250257   7.951   5.579   0.518
82809SOL     OW50258   4.096   8.153   0.932
82809SOL    HW150259   4.075   8.243   0.956
82809SOL    HW250260   4.160   8.162   0.862
82810SOL     OW50261  11.926  11.244   5.028
82810SOL    HW150262  11.839  11.264   5.062
82810SOL    HW250263  11.979  11.227   5.105
82811SOL     OW50264   6.471  10.748  10.692
82811SOL    HW150265   6.526  10.743  10.614
82811SOL    HW250266   6.513  10.815  10.746
82812SOL     OW50267   2.186   7.503  14.544
82812SOL    HW150268   2.109   7.453  14.518
82812SOL    HW250269   2.259   7.459  14.500
82813SOL     OW50270   3.815   3.444  12.487
82813SOL    HW150271   3.760   3.502  12.434
82813SOL    HW250272   3.762   3.365  12.499
82814SOL     OW50273   7.535   5.327   2.006
82814SOL    HW150274   7.442   5.338   1.988
82814SOL    HW250275   7.547   5.360   2.095
82815SOL     OW50276  11.368  11.680  12.982
82815SOL    HW150277  11.407  11.747  12.926
82815SOL    HW250278  11.430  11.607  12.978
82816SOL     OW50279   7.562   5.016   1.941
82816SOL    HW150280   7.581   5.096   1.891
82816SOL    HW250281   7.497   4.970   1.889
82817SOL     OW50282  14.444   4.344   2.987
82817SOL    HW150283  14.515   4.334   3.050
82817SOL    HW250284  14.391   4.416   3.022
82818SOL     OW50285   4.205   8.635   8.358
82818SOL    HW150286   4.274   8.601   8.301
82818SOL    HW250287   4.242   8.716   8.394
82819SOL     OW50288   2.298   4.353  10.891
82819SOL    HW150289   2.350   4.357  10.970
82819SOL    HW250290   2.362   4.353  10.819
82820SOL     OW50291   9.778  11.195   6.597
82820SOL    HW150292   9.832  11.237   6.530
82820SOL    HW250293   9.828  11.206   6.678
82821SOL     OW50294  10.692   7.358   5.493
82821SOL    HW150295  10.738   7.301   5.432
82821SOL    HW250296  10.602   7.326   5.494
82822SOL     OW50297   0.293   2.128  14.250
82822SOL    HW150298   0.386   2.145  14.265
82822SOL    HW250299   0.262   2.203  14.199
82823SOL     OW50300  10.852   4.113   4.744
82823SOL    HW150301  10.881   4.022   4.733
82823SOL    HW250302  10.846   4.148   4.655
82824SOL     OW50303  10.324   1.579  12.214
82824SOL    HW150304  10.390   1.546  12.153
82824SOL    HW250305  10.339   1.531  12.295
82825SOL     OW50306   0.054   8.683  10.051
82825SOL    HW150307   0.041   8.600  10.006
82825SOL    HW250308   0.149   8.690  10.063
82826SOL     OW50309   7.304   5.469   2.685
82826SOL    HW150310   7.227   5.451   2.739
82826SOL    HW250311   7.321   5.562   2.699
82827SOL     OW50312   2.520  14.187   9.832
82827SOL    HW150313   2.521  14.202   9.927
82827SOL    HW250314   2.606  14.217   9.803
82828SOL     OW50315   2.313  10.343   2.793
82828SOL    HW150316   2.302  10.331   2.887
82828SOL    HW250317   2.408  10.337   2.778
82829SOL     OW50318   0.461   3.796   9.754
82829SOL    HW150319   0.480   3.715   9.707
82829SOL    HW250320   0.387   3.835   9.706
82830SOL     OW50321  12.215  14.736   3.800
82830SOL    HW150322  12.245  14.741   3.710
82830SOL    HW250323  12.275  14.676   3.843
82831SOL     OW50324   0.603  10.808  11.687
82831SOL    HW150325   0.583  10.894  11.723
82831SOL    HW250326   0.530  10.753  11.716
82832SOL     OW50327  13.025   4.042  11.799
82832SOL    HW150328  13.053   4.130  11.774
82832SOL    HW250329  12.976   4.056  11.880
82833SOL     OW50330  13.959   8.469   9.444
82833SOL    HW150331  14.018   8.523   9.497
82833SOL    HW250332  13.871   8.501   9.465
82834SOL     OW50333   8.247  10.709   0.961
82834SOL    HW150334   8.311  10.745   1.022
82834SOL    HW250335   8.299  10.665   0.894
82835SOL     OW50336   1.646  10.238   3.181
82835SOL    HW150337   1.662  10.296   3.106
82835SOL    HW250338   1.733  10.218   3.215
82836SOL     OW50339   4.364   6.876   5.238
82836SOL    HW150340   4.398   6.791   5.212
82836SOL    HW250341   4.361   6.873   5.334
82837SOL     OW50342   7.493  12.377   7.798
82837SOL    HW150343   7.521  12.348   7.711
82837SOL    HW250344   7.407  12.336   7.810
82838SOL     OW50345   5.468   1.387  12.970
82838SOL    HW150346   5.457   1.294  12.949
82838SOL    HW250347   5.385   1.427  12.944
82839SOL     OW50348   7.759   1.968   2.537
82839SOL    HW150349   7.672   1.965   2.577
82839SOL    HW250350   7.819   1.939   2.605
82840SOL     OW50351   6.830   1.414   6.154
82840SOL    HW150352   6.805   1.400   6.063
82840SOL    HW250353   6.836   1.510   6.163
82841SOL     OW50354   6.632   1.477   9.250
82841SOL    HW150355   6.542   1.456   9.274
82841SOL    HW250356   6.634   1.573   9.245
82842SOL     OW50357   6.540  11.816   5.133
82842SOL    HW150358   6.502  11.748   5.077
82842SOL    HW250359   6.501  11.898   5.102
82843SOL     OW50360   7.236   5.202   1.954
82843SOL    HW150361   7.261   5.120   1.997
82843SOL    HW250362   7.275   5.196   1.867
82844SOL     OW50363   8.602  14.139   3.954
82844SOL    HW150364   8.665  14.204   3.924
82844SOL    HW250365   8.650  14.085   4.017
82845SOL     OW50366   8.303   8.047   5.654
82845SOL    HW150367   8.360   8.037   5.730
82845SOL    HW250368   8.263   7.960   5.642
82846SOL     OW50369  11.240  12.401   8.267
82846SOL    HW150370  11.148  12.416   8.243
82846SOL    HW250371  11.287  12.408   8.184
82847SOL     OW50372  10.637  13.867  13.882
82847SOL    HW150373  10.649  13.857  13.788
82847SOL    HW250374  10.706  13.813  13.921
82848SOL     OW50375   9.560  11.857  10.461
82848SOL    HW150376   9.541  11.941  10.504
82848SOL    HW250377   9.494  11.850  10.392
82849SOL     OW50378   8.116  13.886   6.922
82849SOL    HW150379   8.081  13.949   6.985
82849SOL    HW250380   8.167  13.825   6.975
82850SOL     OW50381   9.652   9.060   6.853
82850SOL    HW150382   9.627   8.990   6.793
82850SOL    HW250383   9.578   9.121   6.851
82851SOL     OW50384   9.829   7.417   7.522
82851SOL    HW150385   9.759   7.474   7.491
82851SOL    HW250386   9.848   7.447   7.611
82852SOL     OW50387  13.751   6.202  12.017
82852SOL    HW150388  13.836   6.159  12.024
82852SOL    HW250389  13.755   6.273  12.081
82853SOL     OW50390   0.022   1.615   1.239
82853SOL    HW150391   0.001   1.586   1.150
82853SOL    HW250392  14.839   1.571   1.294
82854SOL     OW50393  12.732   5.609   6.077
82854SOL    HW150394  12.673   5.679   6.050
82854SOL    HW250395  12.814   5.627   6.030
82855SOL     OW50396  10.262   8.822   7.160
82855SOL    HW150397  10.349   8.783   7.154
82855SOL    HW250398  10.262   8.891   7.093
82856SOL     OW50399   9.479   7.976   9.462
82856SOL    HW150400   9.434   7.924   9.529
82856SOL    HW250401   9.557   8.010   9.507
82857SOL     OW50402  12.720   2.033   9.778
82857SOL    HW150403  12.709   1.952   9.828
82857SOL    HW250404  12.714   2.005   9.686
82858SOL     OW50405   8.893   3.369   8.385
82858SOL    HW150406   8.878   3.300   8.450
82858SOL    HW250407   8.836   3.345   8.311
82859SOL     OW50408  12.452   3.716   1.409
82859SOL    HW150409  12.357   3.710   1.418
82859SOL    HW250410  12.480   3.625   1.399
82860SOL     OW50411   5.172   3.292  10.888
82860SOL    HW150412   5.247   3.302  10.829
82860SOL    HW250413   5.104   3.253  10.833
82861SOL     OW50414   2.412   2.859   4.767
82861SOL    HW150415   2.351   2.852   4.840
82861SOL    HW250416   2.496   2.882   4.808
82862SOL     OW50417  11.174   1.434  11.498
82862SOL    HW150418  11.188   1.372  11.426
82862SOL    HW250419  11.202   1.518  11.464
82863SOL     OW50420   4.391   9.934   2.681
82863SOL    HW150421   4.436   9.936   2.596
82863SOL    HW250422   4.298   9.926   2.659
82864SOL     OW50423  10.587   8.914   1.854
82864SOL    HW150424  10.644   8.842   1.829
82864SOL    HW250425  10.578   8.907   1.949
82865SOL     OW50426   7.798   6.360  10.420
82865SOL    HW150427   7.757   6.276  10.438
82865SOL    HW250428   7.876   6.338  10.369
82866SOL     OW50429   1.417  11.133   4.463
82866SOL    HW150430   1.335  11.179   4.480
82866SOL    HW250431   1.420  11.125   4.368
82867SOL     OW50432   2.697   9.313   7.094
82867SOL    HW150433   2.707   9.396   7.142
82867SOL    HW250434   2.616   9.325   7.044
82868SOL     OW50435   6.923   3.776   2.903
82868SOL    HW150436   6.880   3.861   2.891
82868SOL    HW250437   6.877   3.716   2.845
82869SOL     OW50438  14.161  11.273   4.739
82869SOL    HW150439  14.092  11.337   4.752
82869SOL    HW250440  14.224  11.315   4.680
82870SOL     OW50441   5.294  13.796   8.998
82870SOL    HW150442   5.381  13.795   8.958
82870SOL    HW250443   5.304  13.851   9.076
82871SOL     OW50444   7.299  11.346   4.608
82871SOL    HW150445   7.367  11.408   4.582
82871SOL    HW250446   7.347  11.271   4.642
82872SOL     OW50447   9.478   7.171   5.964
82872SOL    HW150448   9.520   7.199   6.045
82872SOL    HW250449   9.515   7.084   5.947
82873SOL     OW50450   6.683   5.750   9.519
82873SOL    HW150451   6.643   5.720   9.601
82873SOL    HW250452   6.675   5.676   9.460
82874SOL     OW50453   1.567   4.526   1.162
82874SOL    HW150454   1.642   4.560   1.113
82874SOL    HW250455   1.511   4.487   1.095
82875SOL     OW50456   6.435   0.101  10.713
82875SOL    HW150457   6.381   0.056  10.777
82875SOL    HW250458   6.415   0.194  10.725
82876SOL     OW50459   0.728  12.425   6.761
82876SOL    HW150460   0.679  12.418   6.843
82876SOL    HW250461   0.801  12.484   6.782
82877SOL     OW50462  10.696   2.866   7.148
82877SOL    HW150463  10.725   2.944   7.196
82877SOL    HW250464  10.642   2.900   7.077
82878SOL     OW50465   2.450   7.847   6.038
82878SOL    HW150466   2.365   7.807   6.054
82878SOL    HW250467   2.430   7.933   6.003
82879SOL     OW50468  10.441  11.392   4.086
82879SOL    HW150469  10.429  11.477   4.128
82879SOL    HW250470  10.420  11.408   3.994
82880SOL     OW50471   1.603   4.466  14.701
82880SOL    HW150472   1.546   4.443  14.628
82880SOL    HW250473   1.656   4.388  14.716
82881SOL     OW50474   7.403   3.167  11.184
82881SOL    HW150475   7.338   3.236  11.199
82881SOL    HW250476   7.487   3.213  11.183
82882SOL     OW50477  14.821   3.756   7.148
82882SOL    HW150478  14.794   3.845   7.169
82882SOL    HW250479   0.010   3.737   7.211
82883SOL     OW50480  12.022   2.412   2.053
82883SOL    HW150481  12.069   2.458   2.123
82883SOL    HW250482  11.930   2.422   2.076
82884SOL     OW50483   1.090   8.284   2.141
82884SOL    HW150484   1.101   8.331   2.224
82884SOL    HW250485   1.071   8.353   2.077
82885SOL     OW50486   1.309  13.991   8.205
82885SOL    HW150487   1.387  13.945   8.236
82885SOL    HW250488   1.250  13.992   8.280
82886SOL     OW50489   3.407   3.339   3.900
82886SOL    HW150490   3.315   3.337   3.927
82886SOL    HW250491   3.446   3.406   3.956
82887SOL     OW50492  12.211   4.072   1.427
82887SOL    HW150493  12.120   4.056   1.401
82887SOL    HW250494  12.259   4.078   1.344
82888SOL     OW50495   4.013   9.930  12.784
82888SOL    HW150496   4.067   9.865  12.830
82888SOL    HW250497   4.051   9.935  12.696
82889SOL     OW50498   1.625  13.176  11.918
82889SOL    HW150499   1.541  13.191  11.873
82889SOL    HW250500   1.609  13.206  12.008
82890SOL     OW50501   0.578   3.424   7.698
82890SOL    HW150502   0.498   3.396   7.655
82890SOL    HW250503   0.570   3.392   7.788
82891SOL     OW50504   3.533   4.363  14.114
82891SOL    HW150505   3.526   4.276  14.074
82891SOL    HW250506   3.510   4.423  14.044
82892SOL     OW50507   6.857  12.587  10.975
82892SOL    HW150508   6.801  12.611  11.049
82892SOL    HW250509   6.844  12.658  10.912
82893SOL     OW50510   2.537  11.995  11.885
82893SOL    HW150511   2.580  12.031  11.807
82893SOL    HW250512   2.444  11.990  11.861
82894SOL     OW50513  13.174   4.877   7.790
82894SOL    HW150514  13.253   4.889   7.842
82894SOL    HW250515  13.191   4.926   7.710
82895SOL     OW50516   8.536   3.109  12.940
82895SOL    HW150517   8.614   3.056  12.922
82895SOL    HW250518   8.540   3.127  13.034
82896SOL     OW50519   1.360   0.828   6.913
82896SOL    HW150520   1.368   0.739   6.948
82896SOL    HW250521   1.266   0.843   6.905
82897SOL     OW50522   6.434   0.700   3.023
82897SOL    HW150523   6.393   0.614   3.027
82897SOL    HW250524   6.482   0.699   2.940
82898SOL     OW50525   6.520   7.749   7.267
82898SOL    HW150526   6.444   7.755   7.209
82898SOL    HW250527   6.592   7.723   7.209
82899SOL     OW50528  10.213  14.423   4.791
82899SOL    HW150529  10.258  14.343   4.763
82899SOL    HW250530  10.126  14.394   4.816
82900SOL     OW50531   8.826  11.010  14.659
82900SOL    HW150532   8.757  10.966  14.610
82900SOL    HW250533   8.885  10.940  14.687
82901SOL     OW50534   0.679   5.035   5.758
82901SOL    HW150535   0.722   5.116   5.784
82901SOL    HW250536   0.662   5.045   5.664
82902SOL     OW50537  12.047  13.303   6.422
82902SOL    HW150538  12.083  13.239   6.361
82902SOL    HW250539  11.983  13.352   6.371
82903SOL     OW50540   1.970   9.860  13.302
82903SOL    HW150541   2.050   9.866  13.250
82903SOL    HW250542   1.997   9.882  13.391
82904SOL     OW50543   2.817   0.276   1.569
82904SOL    HW150544   2.856   0.189   1.568
82904SOL    HW250545   2.729   0.262   1.603
82905SOL     OW50546   4.361   3.914  14.073
82905SOL    HW150547   4.452   3.889  14.089
82905SOL    HW250548   4.341   3.977  14.142
82906SOL     OW50549   5.439   9.146  12.260
82906SOL    HW150550   5.468   9.065  12.220
82906SOL    HW250551   5.403   9.197  12.187
82907SOL     OW50552  12.514  13.278   7.176
82907SOL    HW150553  12.562  13.195   7.177
82907SOL    HW250554  12.430  13.258   7.217
82908SOL     OW50555   7.138   4.747   8.295
82908SOL    HW150556   7.192   4.784   8.365
82908SOL    HW250557   7.053   4.733   8.335
82909SOL     OW50558   1.304  10.331   9.610
82909SOL    HW150559   1.341  10.417   9.627
82909SOL    HW250560   1.264  10.338   9.523
82910SOL     OW50561  12.043   5.180  13.485
82910SOL    HW150562  12.065   5.187  13.578
82910SOL    HW250563  12.031   5.086  13.471
82911SOL     OW50564  11.479   9.986   4.992
82911SOL    HW150565  11.519  10.054   4.939
82911SOL    HW250566  11.508   9.904   4.952
82912SOL     OW50567   3.146   9.466   6.824
82912SOL    HW150568   3.201   9.502   6.755
82912SOL    HW250569   3.131   9.538   6.884
82913SOL     OW50570  10.562   3.919  14.234
82913SOL    HW150571  10.519   3.949  14.154
82913SOL    HW250572  10.597   3.999  14.274
82914SOL     OW50573  11.003  12.636   5.816
82914SOL    HW150574  10.949  12.575   5.867
82914SOL    HW250575  10.984  12.722   5.853
82915SOL     OW50576  10.689   0.433  12.495
82915SOL    HW150577  10.623   0.444  12.427
82915SOL    HW250578  10.692   0.338  12.510
82916SOL     OW50579   6.140  10.767   2.845
82916SOL    HW150580   6.171  10.759   2.754
82916SOL    HW250581   6.191  10.838   2.882
82917SOL     OW50582   3.795  12.222   8.670
82917SOL    HW150583   3.728  12.291   8.667
82917SOL    HW250584   3.766  12.164   8.740
82918SOL     OW50585  11.809   6.909   0.853
82918SOL    HW150586  11.747   6.902   0.781
82918SOL    HW250587  11.797   6.998   0.886
82919SOL     OW50588  11.177   0.939  13.770
82919SOL    HW150589  11.152   0.846  13.775
82919SOL    HW250590  11.208   0.960  13.858
82920SOL     OW50591   4.412  11.283   5.021
82920SOL    HW150592   4.326  11.252   5.050
82920SOL    HW250593   4.466  11.204   5.017
82921SOL     OW50594   8.797  11.170  11.927
82921SOL    HW150595   8.739  11.140  11.858
82921SOL    HW250596   8.812  11.262  11.907
82922SOL     OW50597   7.021   6.807   9.684
82922SOL    HW150598   7.062   6.891   9.665
82922SOL    HW250599   7.008   6.767   9.598
82923SOL     OW50600   8.082  10.707   5.951
82923SOL    HW150601   8.075  10.617   5.921
82923SOL    HW250602   8.160  10.709   6.006
82924SOL     OW50603  12.220  10.529  11.075
82924SOL    HW150604  12.173  10.483  11.006
82924SOL    HW250605  12.209  10.475  11.153
82925SOL     OW50606   7.289   8.535  12.059
82925SOL    HW150607   7.230   8.491  11.998
82925SOL    HW250608   7.241   8.613  12.087
82926SOL     OW50609   0.546   1.095  12.937
82926SOL    HW150610   0.559   1.183  12.974
82926SOL    HW250611   0.474   1.106  12.874
82927SOL     OW50612  10.556   6.193   4.718
82927SOL    HW150613  10.638   6.156   4.752
82927SOL    HW250614  10.541   6.146   4.636
82928SOL     OW50615   5.691  13.921  11.851
82928SOL    HW150616   5.674  13.886  11.939
82928SOL    HW250617   5.712  14.013  11.866
82929SOL     OW50618  14.058   4.966   3.813
82929SOL    HW150619  14.137   4.925   3.849
82929SOL    HW250620  13.993   4.956   3.883
82930SOL     OW50621   6.604   8.328   3.403
82930SOL    HW150622   6.592   8.240   3.369
82930SOL    HW250623   6.674   8.365   3.350
82931SOL     OW50624   6.090   0.287   7.992
82931SOL    HW150625   6.111   0.380   7.987
82931SOL    HW250626   6.007   0.283   8.039
82932SOL     OW50627  10.900  12.214  13.562
82932SOL    HW150628  10.865  12.275  13.497
82932SOL    HW250629  10.827  12.195  13.620
82933SOL     OW50630  10.753   1.283   9.735
82933SOL    HW150631  10.695   1.354   9.764
82933SOL    HW250632  10.815   1.326   9.676
82934SOL     OW50633   2.981   1.111  14.158
82934SOL    HW150634   3.058   1.096  14.213
82934SOL    HW250635   2.939   1.188  14.196
82935SOL     OW50636   0.036   2.315   0.724
82935SOL    HW150637   0.114   2.320   0.668
82935SOL    HW250638   0.041   2.394   0.778
82936SOL     OW50639  11.514   0.893  13.820
82936SOL    HW150640  11.423   0.905  13.846
82936SOL    HW250641  11.556   0.854  13.896
82937SOL     OW50642  11.933  14.177  13.909
82937SOL    HW150643  11.888  14.103  13.950
82937SOL    HW250644  11.862  14.238  13.886
82938SOL     OW50645   7.318  12.573   9.857
82938SOL    HW150646   7.378  12.638   9.820
82938SOL    HW250647   7.282  12.528   9.780
82939SOL     OW50648   9.288  14.397  10.885
82939SOL    HW150649   9.348  14.370  10.954
82939SOL    HW250650   9.329  14.368  10.804
82940SOL     OW50651   9.649  13.224  12.346
82940SOL    HW150652   9.556  13.247  12.354
82940SOL    HW250653   9.681  13.278  12.273
82941SOL     OW50654   9.788   0.839   8.666
82941SOL    HW150655   9.873   0.846   8.709
82941SOL    HW250656   9.803   0.873   8.578
82942SOL     OW50657   6.991  10.220   7.347
82942SOL    HW150658   7.075  10.228   7.392
82942SOL    HW250659   6.940  10.161   7.402
82943SOL     OW50660   2.624   7.042  13.292
82943SOL    HW150661   2.714   7.026  13.322
82943SOL    HW250662   2.632   7.045  13.196
82944SOL     OW50663   5.840  12.581  14.340
82944SOL    HW150664   5.913  12.561  14.399
82944SOL    HW250665   5.762  12.570  14.394
82945SOL     OW50666   0.232   1.206   0.938
82945SOL    HW150667   0.260   1.129   0.987
82945SOL    HW250668   0.303   1.270   0.950
82946SOL     OW50669   8.218   1.149   9.381
82946SOL    HW150670   8.253   1.160   9.469
82946SOL    HW250671   8.171   1.066   9.384
82947SOL     OW50672  11.863  11.226  14.764
82947SOL    HW150673  11.785  11.229  14.820
82947SOL    HW250674  11.916  11.300  14.794
82948SOL     OW50675  14.187  13.916   7.747
82948SOL    HW150676  14.242  13.987   7.782
82948SOL    HW250677  14.250  13.847   7.722
82949SOL     OW50678   4.171   5.129   2.306
82949SOL    HW150679   4.126   5.191   2.364
82949SOL    HW250680   4.256   5.114   2.347
82950SOL     OW50681   2.838  12.526   2.508
82950SOL    HW150682   2.876  12.609   2.480
82950SOL    HW250683   2.774  12.504   2.440
82951SOL     OW50684   1.985  13.640   3.672
82951SOL    HW150685   1.919  13.655   3.604
82951SOL    HW250686   1.990  13.724   3.719
82952SOL     OW50687   6.209   8.164  13.783
82952SOL    HW150688   6.134   8.109  13.758
82952SOL    HW250689   6.275   8.145  13.716
82953SOL     OW50690   3.975   8.135  10.559
82953SOL    HW150691   3.936   8.108  10.476
82953SOL    HW250692   4.038   8.202  10.535
82954SOL     OW50693  12.108  10.784   7.082
82954SOL    HW150694  12.020  10.779   7.044
82954SOL    HW250695  12.118  10.876   7.105
82955SOL     OW50696   2.502   5.560   1.510
82955SOL    HW150697   2.572   5.604   1.557
82955SOL    HW250698   2.543   5.527   1.430
82956SOL     OW50699   1.798   0.131   2.225
82956SOL    HW150700   1.716   0.127   2.275
82956SOL    HW250701   1.864   0.156   2.289
82957SOL     OW50702   2.999  12.054  11.388
82957SOL    HW150703   3.065  12.074  11.322
82957SOL    HW250704   3.024  11.968  11.421
82958SOL     OW50705   2.413   3.167   2.618
82958SOL    HW150706   2.491   3.199   2.662
82958SOL    HW250707   2.376   3.244   2.575
82959SOL     OW50708   6.011   1.812   8.857
82959SOL    HW150709   6.065   1.862   8.918
82959SOL    HW250710   5.960   1.877   8.810
82960SOL     OW50711   9.276   5.660  12.110
82960SOL    HW150712   9.327   5.716  12.169
82960SOL    HW250713   9.186   5.694  12.118
82961SOL     OW50714  14.054   2.934   4.837
82961SOL    HW150715  14.036   2.952   4.930
82961SOL    HW250716  14.064   2.839   4.832
82962SOL     OW50717  12.734   3.296   7.345
82962SOL    HW150718  12.790   3.262   7.416
82962SOL    HW250719  12.645   3.290   7.380
82963SOL     OW50720   7.374   7.995   7.790
82963SOL    HW150721   7.404   8.083   7.771
82963SOL    HW250722   7.342   7.961   7.706
82964SOL     OW50723  10.621   7.145   9.239
82964SOL    HW150724  10.539   7.103   9.264
82964SOL    HW250725  10.611   7.166   9.147
82965SOL     OW50726  13.800   0.592  10.850
82965SOL    HW150727  13.815   0.649  10.775
82965SOL    HW250728  13.855   0.516  10.835
82966SOL     OW50729  14.608   1.799   0.971
82966SOL    HW150730  14.607   1.710   1.005
82966SOL    HW250731  14.686   1.839   1.011
82967SOL     OW50732   5.683  11.407  11.893
82967SOL    HW150733   5.647  11.459  11.820
82967SOL    HW250734   5.740  11.343  11.850
82968SOL     OW50735  11.347   2.329   0.701
82968SOL    HW150736  11.399   2.250   0.719
82968SOL    HW250737  11.412   2.399   0.691
82969SOL     OW50738   9.636   7.219  12.992
82969SOL    HW150739   9.637   7.124  12.989
82969SOL    HW250740   9.557   7.241  13.041
82970SOL     OW50741   5.050   5.923   4.827
82970SOL    HW150742   5.028   6.003   4.779
82970SOL    HW250743   5.065   5.857   4.759
82971SOL     OW50744   3.101   5.402   5.960
82971SOL    HW150745   3.067   5.321   5.998
82971SOL    HW250746   3.178   5.375   5.910
82972SOL     OW50747   1.433  13.169   2.854
82972SOL    HW150748   1.417  13.175   2.759
82972SOL    HW250749   1.449  13.259   2.882
82973SOL     OW50750   9.290   3.005   9.758
82973SOL    HW150751   9.355   3.072   9.735
82973SOL    HW250752   9.314   2.979   9.847
82974SOL     OW50753   5.518   1.926  12.903
82974SOL    HW150754   5.560   1.890  12.982
82974SOL    HW250755   5.492   2.014  12.928
82975SOL     OW50756   8.480  12.639  14.519
82975SOL    HW150757   8.388  12.655  14.498
82975SOL    HW250758   8.518  12.726  14.532
82976SOL     OW50759  10.595  11.274  14.505
82976SOL    HW150760  10.644  11.235  14.433
82976SOL    HW250761  10.647  11.351  14.531
82977SOL     OW50762   7.052  11.576  11.823
82977SOL    HW150763   7.051  11.578  11.728
82977SOL    HW250764   7.101  11.497  11.845
82978SOL     OW50765  11.394  12.813   2.982
82978SOL    HW150766  11.446  12.887   3.012
82978SOL    HW250767  11.453  12.765   2.923
82979SOL     OW50768  14.847  14.776  10.740
82979SOL    HW150769  14.808  14.709  10.796
82979SOL    HW250770  14.878  14.728  10.663
82980SOL     OW50771  14.578  10.001  12.702
82980SOL    HW150772  14.665  10.037  12.682
82980SOL    HW250773  14.587   9.967  12.792
82981SOL     OW50774   8.901  11.480   3.083
82981SOL    HW150775   8.937  11.535   3.013
82981SOL    HW250776   8.976  11.431   3.116
82982SOL     OW50777   0.550   5.666  10.818
82982SOL    HW150778   0.511   5.675  10.731
82982SOL    HW250779   0.543   5.573  10.838
82983SOL     OW50780  10.747   4.173  11.623
82983SOL    HW150781  10.652   4.180  11.627
82983SOL    HW250782  10.765   4.141  11.535
82984SOL     OW50783   9.031  12.651  14.740
82984SOL    HW150784   9.126  12.649  14.728
82984SOL    HW250785   9.017  12.712  14.813
82985SOL     OW50786   0.040   0.552  10.002
82985SOL    HW150787  14.882   0.562   9.915
82985SOL    HW250788  14.871   0.609  10.059
82986SOL     OW50789  11.637   6.444  12.387
82986SOL    HW150790  11.712   6.388  12.366
82986SOL    HW250791  11.609   6.480  12.303
82987SOL     OW50792  10.635  11.002   5.780
82987SOL    HW150793  10.552  10.981   5.739
82987SOL    HW250794  10.621  10.985   5.874
82988SOL     OW50795  10.321   8.990   6.041
82988SOL    HW150796  10.363   9.075   6.037
82988SOL    HW250797  10.378   8.931   5.992
82989SOL     OW50798   2.415   1.713  11.116
82989SOL    HW150799   2.410   1.708  11.020
82989SOL    HW250800   2.467   1.791  11.133
82990SOL     OW50801   8.486   3.155  11.622
82990SOL    HW150802   8.449   3.220  11.562
82990SOL    HW250803   8.410   3.118  11.667
82991SOL     OW50804   3.725   1.323   6.387
82991SOL    HW150805   3.702   1.415   6.401
82991SOL    HW250806   3.790   1.325   6.317
82992SOL     OW50807  10.165  13.896  10.675
82992SOL    HW150808  10.204  13.983  10.684
82992SOL    HW250809  10.072  13.912  10.661
82993SOL     OW50810   5.432  14.421  13.863
82993SOL    HW150811   5.501  14.426  13.930
82993SOL    HW250812   5.458  14.347  13.808
82994SOL     OW50813  11.563  10.763   6.489
82994SOL    HW150814  11.488  10.764   6.548
82994SOL    HW250815  11.555  10.844   6.439
82995SOL     OW50816   2.956   2.917   3.055
82995SOL    HW150817   2.921   2.934   3.143
82995SOL    HW250818   3.012   2.840   3.066
82996SOL     OW50819   3.103   2.513   5.360
82996SOL    HW150820   3.042   2.569   5.312
82996SOL    HW250821   3.048   2.444   5.397
82997SOL     OW50822   1.968   4.683  14.200
82997SOL    HW150823   1.893   4.734  14.168
82997SOL    HW250824   1.930   4.624  14.266
82998SOL     OW50825   2.230  14.487   4.824
82998SOL    HW150826   2.245  14.442   4.907
82998SOL    HW250827   2.205  14.416   4.764
82999SOL     OW50828   6.726  11.914   3.594
82999SOL    HW150829   6.772  11.951   3.669
82999SOL    HW250830   6.786  11.848   3.559
83000SOL     OW50831   3.755   3.395  13.236
83000SOL    HW150832   3.827   3.344  13.273
83000SOL    HW250833   3.763   3.382  13.141
83001SOL     OW50834   7.272  14.880  12.963
83001SOL    HW150835   7.318   0.019  13.045
83001SOL    HW250836   7.190   0.047  12.969
83002SOL     OW50837   7.774   1.565   1.910
83002SOL    HW150838   7.854   1.535   1.953
83002SOL    HW250839   7.801   1.642   1.861
83003SOL     OW50840   5.355  10.035  10.239
83003SOL    HW150841   5.428  10.000  10.291
83003SOL    HW250842   5.278  10.017  10.292
83004SOL     OW50843   5.869   7.097   1.805
83004SOL    HW150844   5.839   7.138   1.886
83004SOL    HW250845   5.908   7.014   1.833
83005SOL     OW50846   1.690   9.787  14.275
83005SOL    HW150847   1.619   9.726  14.256
83005SOL    HW250848   1.692   9.845  14.199
83006SOL     OW50849   7.748   6.512   6.870
83006SOL    HW150850   7.823   6.476   6.916
83006SOL    HW250851   7.729   6.594   6.915
83007SOL     OW50852   0.287   7.709  12.165
83007SOL    HW150853   0.255   7.793  12.132
83007SOL    HW250854   0.229   7.688  12.238
83008SOL     OW50855   5.880   2.355   7.033
83008SOL    HW150856   5.904   2.395   6.949
83008SOL    HW250857   5.960   2.361   7.085
83009SOL     OW50858   0.017  12.899   1.121
83009SOL    HW150859   0.003  12.992   1.100
83009SOL    HW250860   0.085  12.871   1.060
83010SOL     OW50861   2.677   8.319  13.772
83010SOL    HW150862   2.727   8.299  13.852
83010SOL    HW250863   2.700   8.249  13.711
83011SOL     OW50864   8.978  14.497   5.554
83011SOL    HW150865   9.073  14.481   5.555
83011SOL    HW250866   8.966  14.562   5.485
83012SOL     OW50867   1.279  10.818  10.321
83012SOL    HW150868   1.341  10.750  10.348
83012SOL    HW250869   1.194  10.784  10.350
83013SOL     OW50870  10.883  11.330  12.666
83013SOL    HW150871  10.862  11.237  12.669
83013SOL    HW250872  10.969  11.337  12.707
83014SOL     OW50873  11.111  12.778   3.912
83014SOL    HW150874  11.135  12.742   3.997
83014SOL    HW250875  11.018  12.758   3.903
83015SOL     OW50876  13.205   7.851  10.887
83015SOL    HW150877  13.292   7.834  10.851
83015SOL    HW250878  13.173   7.926  10.838
83016SOL     OW50879   4.169   7.549   1.670
83016SOL    HW150880   4.124   7.477   1.626
83016SOL    HW250881   4.236   7.506   1.723
83017SOL     OW50882   6.178  11.436  14.281
83017SOL    HW150883   6.154  11.518  14.323
83017SOL    HW250884   6.194  11.375  14.353
83018SOL     OW50885  13.166   2.059   0.004
83018SOL    HW150886  13.176   1.977  14.837
83018SOL    HW250887  13.211   2.043   0.086
83019SOL     OW50888   2.200   1.878  11.390
83019SOL    HW150889   2.283   1.873  11.437
83019SOL    HW250890   2.136   1.844  11.452
83020SOL     OW50891   9.846  12.868   1.393
83020SOL    HW150892   9.810  12.837   1.476
83020SOL    HW250893   9.784  12.839   1.327
83021SOL     OW50894   1.814   2.853  14.859
83021SOL    HW150895   1.896   2.883   0.015
83021SOL    HW250896   1.829   2.855  14.765
83022SOL     OW50897   6.156  13.660   4.295
83022SOL    HW150898   6.194  13.615   4.370
83022SOL    HW250899   6.107  13.593   4.248
83023SOL     OW50900   6.400   7.736   7.577
83023SOL    HW150901   6.395   7.719   7.483
83023SOL    HW250902   6.463   7.808   7.585
83024SOL     OW50903   1.391   1.259   6.654
83024SOL    HW150904   1.402   1.199   6.579
83024SOL    HW250905   1.481   1.277   6.682
83025SOL     OW50906   1.250  14.364   2.907
83025SOL    HW150907   1.193  14.350   2.982
83025SOL    HW250908   1.303  14.284   2.901
83026SOL     OW50909  12.023  13.326   3.714
83026SOL    HW150910  12.033  13.420   3.699
83026SOL    HW250911  11.930  13.309   3.701
83027SOL     OW50912   1.672  13.856  11.623
83027SOL    HW150913   1.732  13.918  11.583
83027SOL    HW250914   1.650  13.895  11.708
83028SOL     OW50915  11.647  14.453   2.467
83028SOL    HW150916  11.674  14.367   2.434
83028SOL    HW250917  11.597  14.434   2.546
83029SOL     OW50918   4.614   8.674  11.697
83029SOL    HW150919   4.544   8.643  11.640
83029SOL    HW250920   4.578   8.666  11.785
83030SOL     OW50921   9.874   9.669   5.459
83030SOL    HW150922   9.889   9.739   5.523
83030SOL    HW250923   9.961   9.648   5.425
83031SOL     OW50924  13.321   8.107  11.613
83031SOL    HW150925  13.379   8.134  11.684
83031SOL    HW250926  13.379   8.067  11.549
83032SOL     OW50927  11.767  14.063   0.508
83032SOL    HW150928  11.700  14.023   0.564
83032SOL    HW250929  11.842  14.076   0.565
83033SOL     OW50930   7.668  11.202  11.157
83033SOL    HW150931   7.745  11.183  11.103
83033SOL    HW250932   7.689  11.283  11.202
83034SOL     OW50933  14.108   1.307   8.970
83034SOL    HW150934  14.035   1.300   8.909
83034SOL    HW250935  14.186   1.292   8.916
83035SOL     OW50936  12.189  10.652  12.747
83035SOL    HW150937  12.282  10.672  12.743
83035SOL    HW250938  12.158  10.699  12.824
83036SOL     OW50939   7.840   4.820   6.967
83036SOL    HW150940   7.913   4.857   7.017
83036SOL    HW250941   7.882   4.772   6.896
83037SOL     OW50942   6.677   7.369  14.044
83037SOL    HW150943   6.600   7.420  14.069
83037SOL    HW250944   6.735   7.375  14.121
83038SOL     OW50945  11.944   6.756   8.950
83038SOL    HW150946  12.020   6.812   8.936
83038SOL    HW250947  11.870   6.807   8.916
83039SOL     OW50948  14.399  12.382   0.367
83039SOL    HW150949  14.314  12.403   0.328
83039SOL    HW250950  14.463  12.416   0.304
83040SOL     OW50951   4.218  10.494   0.094
83040SOL    HW150952   4.243  10.503   0.186
83040SOL    HW250953   4.167  10.413   0.091
83041SOL     OW50954  11.732   4.799   8.872
83041SOL    HW150955  11.690   4.872   8.918
83041SOL    HW250956  11.787   4.757   8.939
83042SOL     OW50957   8.743   9.224   3.707
83042SOL    HW150958   8.773   9.166   3.777
83042SOL    HW250959   8.685   9.169   3.654
83043SOL     OW50960   6.904  10.321  14.145
83043SOL    HW150961   6.835  10.386  14.125
83043SOL    HW250962   6.977  10.373  14.178
83044SOL     OW50963   6.738   3.200  11.238
83044SOL    HW150964   6.704   3.117  11.206
83044SOL    HW250965   6.725   3.197  11.333
83045SOL     OW50966   8.460   7.595  10.075
83045SOL    HW150967   8.376   7.640  10.078
83045SOL    HW250968   8.525   7.666  10.078
83046SOL     OW50969   9.986  12.548  14.713
83046SOL    HW150970   9.993  12.600  14.633
83046SOL    HW250971  10.077  12.526  14.735
83047SOL     OW50972  10.835  14.712  11.223
83047SOL    HW150973  10.777  14.636  11.222
83047SOL    HW250974  10.823  14.753  11.137
83048SOL     OW50975   4.550  14.788  14.823
83048SOL    HW150976   4.602  14.800  14.743
83048SOL    HW250977   4.561  14.695  14.844
83049SOL     OW50978  11.788  14.574  10.180
83049SOL    HW150979  11.694  14.584  10.164
83049SOL    HW250980  11.813  14.497  10.129
83050SOL     OW50981   5.214   6.653   1.305
83050SOL    HW150982   5.124   6.626   1.290
83050SOL    HW250983   5.209   6.748   1.316
83051SOL     OW50984   8.548   2.846   0.817
83051SOL    HW150985   8.586   2.886   0.896
83051SOL    HW250986   8.463   2.889   0.807
83052SOL     OW50987  14.546  13.563   3.279
83052SOL    HW150988  14.508  13.511   3.350
83052SOL    HW250989  14.627  13.516   3.256
83053SOL     OW50990   4.486   4.706   3.084
83053SOL    HW150991   4.412   4.651   3.109
83053SOL    HW250992   4.465   4.793   3.118
83054SOL     OW50993   2.262   4.186  14.742
83054SOL    HW150994   2.270   4.193  14.647
83054SOL    HW250995   2.217   4.103  14.757
83055SOL     OW50996   8.740   2.840   4.855
83055SOL    HW150997   8.720   2.776   4.923
83055SOL    HW250998   8.827   2.872   4.877
83056SOL     OW50999   0.167   9.370   0.138
83056SOL    HW151000   0.140   9.278   0.146
83056SOL    HW251001   0.250   9.374   0.185
83057SOL     OW51002   8.449   7.584   8.823
83057SOL    HW151003   8.527   7.580   8.767
83057SOL    HW251004   8.378   7.553   8.767
83058SOL     OW51005   9.424   3.588   6.738
83058SOL    HW151006   9.460   3.558   6.822
83058SOL    HW251007   9.329   3.577   6.747
83059SOL     OW51008   3.936  12.231   2.836
83059SOL    HW151009   4.002  12.297   2.860
83059SOL    HW251010   3.983  12.171   2.778
83060SOL     OW51011   8.937   5.773   6.343
83060SOL    HW151012   8.875   5.706   6.371
83060SOL    HW251013   8.895   5.856   6.365
83061SOL     OW51014   0.525   5.165  11.960
83061SOL    HW151015   0.599   5.105  11.954
83061SOL    HW251016   0.503   5.185  11.869
83062SOL     OW51017   3.132   3.415   5.171
83062SOL    HW151018   3.065   3.476   5.139
83062SOL    HW251019   3.205   3.425   5.109
83063SOL     OW51020  11.543   5.593   7.867
83063SOL    HW151021  11.511   5.624   7.782
83063SOL    HW251022  11.465   5.593   7.922
83064SOL     OW51023   5.830   0.740   5.659
83064SOL    HW151024   5.750   0.725   5.609
83064SOL    HW251025   5.813   0.700   5.744
83065SOL     OW51026   7.447   1.309   0.540
83065SOL    HW151027   7.408   1.251   0.605
83065SOL    HW251028   7.461   1.391   0.587
83066SOL     OW51029  11.271  11.982   9.502
83066SOL    HW151030  11.184  11.986   9.541
83066SOL    HW251031  11.266  12.040   9.426
83067SOL     OW51032  10.508  10.567   9.337
83067SOL    HW151033  10.578  10.622   9.373
83067SOL    HW251034  10.532  10.554   9.245
83068SOL     OW51035   9.428   7.196   0.265
83068SOL    HW151036   9.369   7.270   0.252
83068SOL    HW251037   9.414   7.171   0.357
83069SOL     OW51038   2.783   4.985  12.767
83069SOL    HW151039   2.736   4.927  12.707
83069SOL    HW251040   2.715   5.022  12.823
83070SOL     OW51041  14.765  13.141   7.579
83070SOL    HW151042  14.669  13.134   7.577
83070SOL    HW251043  14.781  13.225   7.621
83071SOL     OW51044  10.847   3.065  11.128
83071SOL    HW151045  10.851   2.980  11.086
83071SOL    HW251046  10.938   3.089  11.144
83072SOL     OW51047   6.091   6.881   9.911
83072SOL    HW151048   6.089   6.959   9.855
83072SOL    HW251049   6.086   6.914  10.000
83073SOL     OW51050   0.321   1.844   6.080
83073SOL    HW151051   0.278   1.866   5.997
83073SOL    HW251052   0.315   1.749   6.086
83074SOL     OW51053  11.265   5.628   1.637
83074SOL    HW151054  11.240   5.703   1.690
83074SOL    HW251055  11.325   5.578   1.693
83075SOL     OW51056   3.203   0.625  13.888
83075SOL    HW151057   3.188   0.542  13.934
83075SOL    HW251058   3.121   0.672  13.897
83076SOL     OW51059  12.453   1.846   7.569
83076SOL    HW151060  12.416   1.898   7.498
83076SOL    HW251061  12.540   1.883   7.582
83077SOL     OW51062   3.512   6.991  13.073
83077SOL    HW151063   3.545   6.901  13.079
83077SOL    HW251064   3.421   6.984  13.102
83078SOL     OW51065   7.700   3.535   6.439
83078SOL    HW151066   7.760   3.572   6.374
83078SOL    HW251067   7.666   3.610   6.487
83079SOL     OW51068  12.824   8.829  13.697
83079SOL    HW151069  12.779   8.901  13.741
83079SOL    HW251070  12.908   8.822  13.742
83080SOL     OW51071   9.319  11.417   8.871
83080SOL    HW151072   9.264  11.492   8.891
83080SOL    HW251073   9.369  11.402   8.951
83081SOL     OW51074   0.128  14.511  11.896
83081SOL    HW151075   0.102  14.422  11.919
83081SOL    HW251076   0.045  14.557  11.882
83082SOL     OW51077   7.456  10.612   5.788
83082SOL    HW151078   7.458  10.643   5.697
83082SOL    HW251079   7.514  10.536   5.789
83083SOL     OW51080   0.452  13.747   7.608
83083SOL    HW151081   0.431  13.714   7.695
83083SOL    HW251082   0.466  13.841   7.621
83084SOL     OW51083  14.762   2.533   1.895
83084SOL    HW151084  14.777   2.542   1.989
83084SOL    HW251085  14.813   2.456   1.870
83085SOL     OW51086  10.971   0.847   6.554
83085SOL    HW151087  10.911   0.881   6.620
83085SOL    HW251088  10.923   0.854   6.472
83086SOL     OW51089  11.370   1.212   0.921
83086SOL    HW151090  11.340   1.126   0.948
83086SOL    HW251091  11.453   1.224   0.966
83087SOL     OW51092  13.639   4.247  11.825
83087SOL    HW151093  13.697   4.311  11.784
83087SOL    HW251094  13.681   4.163  11.810
83088SOL     OW51095   1.232  12.295   2.241
83088SOL    HW151096   1.309  12.300   2.184
83088SOL    HW251097   1.205  12.387   2.251
83089SOL     OW51098   3.966  14.179   5.190
83089SOL    HW151099   3.961  14.246   5.258
83089SOL    HW251100   4.060  14.168   5.174
83090SOL     OW51101   8.128  10.114   2.798
83090SOL    HW151102   8.052  10.133   2.743
83090SOL    HW251103   8.094  10.061   2.870
83091SOL     OW51104   3.244   8.203  11.247
83091SOL    HW151105   3.271   8.144  11.177
83091SOL    HW251106   3.237   8.148  11.325
83092SOL     OW51107   1.312   8.435   6.437
83092SOL    HW151108   1.371   8.511   6.432
83092SOL    HW251109   1.315   8.398   6.349
83093SOL     OW51110   2.700   7.043   8.687
83093SOL    HW151111   2.693   7.138   8.688
83093SOL    HW251112   2.674   7.016   8.775
83094SOL     OW51113   1.082   0.535   8.460
83094SOL    HW151114   0.999   0.489   8.448
83094SOL    HW251115   1.137   0.504   8.388
83095SOL     OW51116   6.810  10.401   7.233
83095SOL    HW151117   6.859  10.468   7.187
83095SOL    HW251118   6.875  10.336   7.258
83096SOL     OW51119   5.280   3.009   7.088
83096SOL    HW151120   5.332   3.078   7.128
83096SOL    HW251121   5.274   2.941   7.156
83097SOL     OW51122  14.207  14.496   7.698
83097SOL    HW151123  14.143  14.438   7.737
83097SOL    HW251124  14.157  14.551   7.638
83098SOL     OW51125   7.048  11.551  11.547
83098SOL    HW151126   7.048  11.456  11.540
83098SOL    HW251127   7.124  11.579  11.495
83099SOL     OW51128  11.137  10.189   0.705
83099SOL    HW151129  11.096  10.163   0.787
83099SOL    HW251130  11.211  10.129   0.696
83100SOL     OW51131   2.737   7.618   5.622
83100SOL    HW151132   2.828   7.607   5.595
83100SOL    HW251133   2.703   7.528   5.629
83101SOL     OW51134   3.115  11.755   5.064
83101SOL    HW151135   3.069  11.782   5.144
83101SOL    HW251136   3.152  11.837   5.030
83102SOL     OW51137   5.047   7.796   5.117
83102SOL    HW151138   5.137   7.774   5.094
83102SOL    HW251139   5.040   7.774   5.210
83103SOL     OW51140  11.713  10.361  11.932
83103SOL    HW151141  11.653  10.435  11.935
83103SOL    HW251142  11.694  10.311  12.012
83104SOL     OW51143   6.201   9.030   4.968
83104SOL    HW151144   6.259   9.037   5.044
83104SOL    HW251145   6.240   8.961   4.915
83105SOL     OW51146  14.776  10.982   5.833
83105SOL    HW151147  14.703  10.927   5.806
83105SOL    HW251148  14.775  11.055   5.771
83106SOL     OW51149  10.398   5.934   1.412
83106SOL    HW151150  10.341   5.920   1.487
83106SOL    HW251151  10.339   5.938   1.337
83107SOL     OW51152   3.024   0.151  11.378
83107SOL    HW151153   2.954   0.212  11.355
83107SOL    HW251154   3.105   0.198  11.358
83108SOL     OW51155   8.843  10.615  13.852
83108SOL    HW151156   8.787  10.644  13.924
83108SOL    HW251157   8.794  10.544  13.810
83109SOL     OW51158   5.676   2.402  10.613
83109SOL    HW151159   5.684   2.311  10.587
83109SOL    HW251160   5.621   2.400  10.692
83110SOL     OW51161  13.087   2.453   5.207
83110SOL    HW151162  13.074   2.426   5.116
83110SOL    HW251163  13.086   2.371   5.257
83111SOL     OW51164   4.606   1.646  14.049
83111SOL    HW151165   4.614   1.653  13.954
83111SOL    HW251166   4.531   1.701  14.071
83112SOL     OW51167   6.068  10.666   4.120
83112SOL    HW151168   6.046  10.579   4.152
83112SOL    HW251169   5.988  10.718   4.130
83113SOL     OW51170   3.610  13.027   7.636
83113SOL    HW151171   3.518  13.052   7.643
83113SOL    HW251172   3.641  13.023   7.726
83114SOL     OW51173   6.787  10.266   8.831
83114SOL    HW151174   6.693  10.281   8.843
83114SOL    HW251175   6.826  10.353   8.838
83115SOL     OW51176  11.518   1.112   5.515
83115SOL    HW151177  11.599   1.130   5.562
83115SOL    HW251178  11.532   1.027   5.474
83116SOL     OW51179   1.453  14.247   6.841
83116SOL    HW151180   1.516  14.190   6.797
83116SOL    HW251181   1.409  14.191   6.904
83117SOL     OW51182   7.587   4.233   7.951
83117SOL    HW151183   7.555   4.218   7.862
83117SOL    HW251184   7.672   4.274   7.939
83118SOL     OW51185   5.009   6.381   3.911
83118SOL    HW151186   5.087   6.337   3.944
83118SOL    HW251187   5.004   6.462   3.962
83119SOL     OW51188  11.619   9.915   7.433
83119SOL    HW151189  11.687   9.981   7.441
83119SOL    HW251190  11.595   9.894   7.523
83120SOL     OW51191   0.641   6.789  14.310
83120SOL    HW151192   0.666   6.709  14.356
83120SOL    HW251193   0.701   6.794  14.235
83121SOL     OW51194   6.152   6.490   1.420
83121SOL    HW151195   6.134   6.568   1.471
83121SOL    HW251196   6.247   6.491   1.407
83122SOL     OW51197   3.626   7.155  14.455
83122SOL    HW151198   3.604   7.186  14.542
83122SOL    HW251199   3.693   7.216  14.423
83123SOL     OW51200   3.252   7.352   1.571
83123SOL    HW151201   3.299   7.398   1.502
83123SOL    HW251202   3.210   7.421   1.622
83124SOL     OW51203   1.507   2.307  12.231
83124SOL    HW151204   1.513   2.378  12.295
83124SOL    HW251205   1.418   2.275  12.239
83125SOL     OW51206   6.204  13.331   6.102
83125SOL    HW151207   6.112  13.351   6.088
83125SOL    HW251208   6.233  13.395   6.167
83126SOL     OW51209  13.604   5.636   1.729
83126SOL    HW151210  13.654   5.622   1.810
83126SOL    HW251211  13.514   5.612   1.752
83127SOL     OW51212   4.863  13.788   4.048
83127SOL    HW151213   4.923  13.816   4.118
83127SOL    HW251214   4.782  13.835   4.068
83128SOL     OW51215   5.934  13.482  10.959
83128SOL    HW151216   5.966  13.451  10.874
83128SOL    HW251217   6.012  13.487  11.014
83129SOL     OW51218   2.690  11.655  10.544
83129SOL    HW151219   2.767  11.702  10.575
83129SOL    HW251220   2.712  11.627  10.456
83130SOL     OW51221  13.617  14.179  10.324
83130SOL    HW151222  13.572  14.111  10.374
83130SOL    HW251223  13.678  14.218  10.386
83131SOL     OW51224   2.536   4.402   3.474
83131SOL    HW151225   2.567   4.312   3.477
83131SOL    HW251226   2.597   4.446   3.415
83132SOL     OW51227   9.292   2.465  12.533
83132SOL    HW151228   9.332   2.534  12.479
83132SOL    HW251229   9.286   2.504  12.620
83133SOL     OW51230  11.652  10.896  12.150
83133SOL    HW151231  11.560  10.919  12.163
83133SOL    HW251232  11.660  10.808  12.186
83134SOL     OW51233   9.102   8.605  13.471
83134SOL    HW151234   9.062   8.658  13.402
83134SOL    HW251235   9.190   8.586  13.438
83135SOL     OW51236   7.525  12.447   5.157
83135SOL    HW151237   7.488  12.365   5.190
83135SOL    HW251238   7.554  12.494   5.235
83136SOL     OW51239   1.027   9.424   3.300
83136SOL    HW151240   1.000   9.473   3.377
83136SOL    HW251241   0.957   9.439   3.236
83137SOL     OW51242   1.485  14.458  11.508
83137SOL    HW151243   1.507  14.364  11.507
83137SOL    HW251244   1.452  14.474  11.596
83138SOL     OW51245   6.272   6.923  12.920
83138SOL    HW151246   6.197   6.983  12.927
83138SOL    HW251247   6.348   6.981  12.910
83139SOL     OW51248  14.685   0.358  10.434
83139SOL    HW151249  14.690   0.453  10.446
83139SOL    HW251250  14.643   0.347  10.349
83140SOL     OW51251   1.823  14.151  11.463
83140SOL    HW151252   1.833  14.225  11.404
83140SOL    HW251253   1.828  14.189  11.551
83141SOL     OW51254  13.599   7.776   3.081
83141SOL    HW151255  13.608   7.717   3.156
83141SOL    HW251256  13.619   7.863   3.116
83142SOL     OW51257  13.312  13.791   8.508
83142SOL    HW151258  13.229  13.814   8.550
83142SOL    HW251259  13.375  13.854   8.542
83143SOL     OW51260   9.272  14.190   7.199
83143SOL    HW151261   9.212  14.117   7.189
83143SOL    HW251262   9.345  14.170   7.141
83144SOL     OW51263  14.177  13.361  13.887
83144SOL    HW151264  14.202  13.328  13.973
83144SOL    HW251265  14.119  13.295  13.851
83145SOL     OW51266   2.211  14.664   5.128
83145SOL    HW151267   2.287  14.711   5.161
83145SOL    HW251268   2.183  14.714   5.052
83146SOL     OW51269  13.716   6.073   0.385
83146SOL    HW151270  13.769   5.993   0.386
83146SOL    HW251271  13.666   6.069   0.467
83147SOL     OW51272   2.585  11.970   4.041
83147SOL    HW151273   2.511  11.981   4.101
83147SOL    HW251274   2.591  12.052   3.994
83148SOL     OW51275  11.478   3.887   3.760
83148SOL    HW151276  11.482   3.942   3.839
83148SOL    HW251277  11.423   3.935   3.699
83149SOL     OW51278  12.271   1.104   9.585
83149SOL    HW151279  12.226   1.104   9.501
83149SOL    HW251280  12.274   1.012   9.611
83150SOL     OW51281  14.574   2.408  13.271
83150SOL    HW151282  14.525   2.479  13.312
83150SOL    HW251283  14.632   2.452  13.208
83151SOL     OW51284   5.671   9.142   6.158
83151SOL    HW151285   5.672   9.145   6.062
83151SOL    HW251286   5.763   9.134   6.183
83152SOL     OW51287  10.772   1.389   3.982
83152SOL    HW151288  10.862   1.365   4.005
83152SOL    HW251289  10.779   1.479   3.950
83153SOL     OW51290   8.590   2.039   4.599
83153SOL    HW151291   8.583   2.110   4.534
83153SOL    HW251292   8.616   2.083   4.680
83154SOL     OW51293   3.320   0.734   5.197
83154SOL    HW151294   3.249   0.674   5.221
83154SOL    HW251295   3.346   0.773   5.281
83155SOL     OW51296  10.151   9.429   2.148
83155SOL    HW151297  10.124   9.355   2.204
83155SOL    HW251298  10.091   9.425   2.074
83156SOL     OW51299  14.079   3.511   1.652
83156SOL    HW151300  14.152   3.573   1.662
83156SOL    HW251301  14.047   3.497   1.741
83157SOL     OW51302   3.303  10.915   1.350
83157SOL    HW151303   3.302  10.917   1.254
83157SOL    HW251304   3.379  10.860   1.372
83158SOL     OW51305   3.758   5.882  14.124
83158SOL    HW151306   3.755   5.801  14.175
83158SOL    HW251307   3.832   5.931  14.161
83159SOL     OW51308   2.803   3.996   9.147
83159SOL    HW151309   2.836   4.045   9.222
83159SOL    HW251310   2.729   3.946   9.182
83160SOL     OW51311   5.687   4.853   8.154
83160SOL    HW151312   5.776   4.854   8.118
83160SOL    HW251313   5.630   4.870   8.079
83161SOL     OW51314   2.263   4.193  11.334
83161SOL    HW151315   2.179   4.173  11.294
83161SOL    HW251316   2.264   4.288  11.342
83162SOL     OW51317  14.861  10.327   3.751
83162SOL    HW151318  14.829  10.237   3.738
83162SOL    HW251319  14.830  10.375   3.675
83163SOL     OW51320   0.105  10.933   7.186
83163SOL    HW151321   0.140  11.010   7.233
83163SOL    HW251322   0.013  10.954   7.172
83164SOL     OW51323   5.412   2.228  13.489
83164SOL    HW151324   5.483   2.238  13.425
83164SOL    HW251325   5.348   2.173  13.445
83165SOL     OW51326   3.843   3.887   0.815
83165SOL    HW151327   3.774   3.897   0.749
83165SOL    HW251328   3.904   3.824   0.777
83166SOL     OW51329   9.446   7.085  13.222
83166SOL    HW151330   9.407   7.165  13.256
83166SOL    HW251331   9.508   7.058  13.290
83167SOL     OW51332  14.012   0.276  12.673
83167SOL    HW151333  14.037   0.347  12.614
83167SOL    HW251334  13.939   0.233  12.629
83168SOL     OW51335  13.857   6.093   4.413
83168SOL    HW151336  13.893   6.118   4.327
83168SOL    HW251337  13.917   6.025   4.444
83169SOL     OW51338  11.005   0.585   0.810
83169SOL    HW151339  10.925   0.615   0.766
83169SOL    HW251340  11.019   0.497   0.776
83170SOL     OW51341   4.258   1.490   0.137
83170SOL    HW151342   4.163   1.475   0.139
83170SOL    HW251343   4.267   1.585   0.124
83171SOL     OW51344   3.070   0.314   3.757
83171SOL    HW151345   3.027   0.276   3.833
83171SOL    HW251346   3.039   0.263   3.683
83172SOL     OW51347  12.811   0.527   8.992
83172SOL    HW151348  12.900   0.543   9.024
83172SOL    HW251349  12.805   0.579   8.912
83173SOL     OW51350   0.322  11.797   4.444
83173SOL    HW151351   0.384  11.734   4.407
83173SOL    HW251352   0.237  11.756   4.434
83174SOL     OW51353  14.706  12.618   2.359
83174SOL    HW151354  14.704  12.529   2.396
83174SOL    HW251355  14.678  12.607   2.268
83175SOL     OW51356   0.720   4.510  12.736
83175SOL    HW151357   0.663   4.492  12.661
83175SOL    HW251358   0.749   4.424  12.765
83176SOL     OW51359   3.300  10.486  12.787
83176SOL    HW151360   3.269  10.575  12.773
83176SOL    HW251361   3.357  10.468  12.712
83177SOL     OW51362  12.432   5.367   4.285
83177SOL    HW151363  12.491   5.404   4.352
83177SOL    HW251364  12.356   5.424   4.287
83178SOL     OW51365   6.409   5.688   3.760
83178SOL    HW151366   6.335   5.631   3.742
83178SOL    HW251367   6.403   5.758   3.695
83179SOL     OW51368  11.708   6.171   4.022
83179SOL    HW151369  11.620   6.191   4.054
83179SOL    HW251370  11.708   6.075   4.011
83180SOL     OW51371   8.847  12.979   7.933
83180SOL    HW151372   8.812  12.968   8.021
83180SOL    HW251373   8.940  12.996   7.946
83181SOL     OW51374  13.995  10.307   0.663
83181SOL    HW151375  13.993  10.310   0.567
83181SOL    HW251376  14.041  10.386   0.689
83182SOL     OW51377  13.317   2.207  11.860
83182SOL    HW151378  13.282   2.147  11.793
83182SOL    HW251379  13.243   2.261  11.885
83183SOL     OW51380  14.856  13.662   6.293
83183SOL    HW151381  14.761  13.665   6.283
83183SOL    HW251382  14.871  13.655   6.387
83184SOL     OW51383  12.625   4.494   0.273
83184SOL    HW151384  12.648   4.536   0.356
83184SOL    HW251385  12.541   4.533   0.249
83185SOL     OW51386   9.219   9.200   0.728
83185SOL    HW151387   9.204   9.110   0.700
83185SOL    HW251388   9.194   9.253   0.652
83186SOL     OW51389   2.849  10.722   7.238
83186SOL    HW151390   2.819  10.631   7.240
83186SOL    HW251391   2.933  10.718   7.193
83187SOL     OW51392   9.891   0.506   8.597
83187SOL    HW151393   9.916   0.512   8.505
83187SOL    HW251394   9.824   0.438   8.600
83188SOL     OW51395   9.099  10.046  14.601
83188SOL    HW151396   9.023  10.016  14.551
83188SOL    HW251397   9.157  10.085  14.535
83189SOL     OW51398  11.648   9.369   3.043
83189SOL    HW151399  11.671   9.422   3.120
83189SOL    HW251400  11.729   9.364   2.993
83190SOL     OW51401   8.894  12.689   4.291
83190SOL    HW151402   8.921  12.628   4.223
83190SOL    HW251403   8.876  12.771   4.245
83191SOL     OW51404   9.076   5.457   1.539
83191SOL    HW151405   9.066   5.549   1.561
83191SOL    HW251406   9.169   5.438   1.555
83192SOL     OW51407   8.268  12.720   2.718
83192SOL    HW151408   8.322  12.642   2.702
83192SOL    HW251409   8.221  12.701   2.799
83193SOL     OW51410   9.039   3.979   5.819
83193SOL    HW151411   8.958   3.955   5.776
83193SOL    HW251412   9.023   3.962   5.912
83194SOL     OW51413  13.135   4.431   6.437
83194SOL    HW151414  13.228   4.448   6.418
83194SOL    HW251415  13.088   4.500   6.391
83195SOL     OW51416  14.414  13.868  13.326
83195SOL    HW151417  14.447  13.958  13.328
83195SOL    HW251418  14.408  13.847  13.233
83196SOL     OW51419   2.226  11.956  10.941
83196SOL    HW151420   2.281  11.902  10.883
83196SOL    HW251421   2.289  12.011  10.988
83197SOL     OW51422   6.301   6.734   9.812
83197SOL    HW151423   6.228   6.774   9.859
83197SOL    HW251424   6.373   6.735   9.875
83198SOL     OW51425   9.370  13.774  13.294
83198SOL    HW151426   9.287  13.736  13.265
83198SOL    HW251427   9.414  13.704  13.341
83199SOL     OW51428  13.710   4.138   5.865
83199SOL    HW151429  13.783   4.133   5.927
83199SOL    HW251430  13.711   4.054   5.820
83200SOL     OW51431  14.511   5.856   3.413
83200SOL    HW151432  14.447   5.787   3.395
83200SOL    HW251433  14.564   5.822   3.485
83201SOL     OW51434   1.631   6.107   3.358
83201SOL    HW151435   1.598   6.160   3.285
83201SOL    HW251436   1.553   6.069   3.397
83202SOL     OW51437   2.891   0.912   7.969
83202SOL    HW151438   2.874   0.818   7.967
83202SOL    HW251439   2.804   0.952   7.970
83203SOL     OW51440   4.913  14.397   5.870
83203SOL    HW151441   4.966  14.401   5.791
83203SOL    HW251442   4.889  14.305   5.879
83204SOL     OW51443   8.042   2.640   9.358
83204SOL    HW151444   8.115   2.685   9.316
83204SOL    HW251445   8.072   2.549   9.366
83205SOL     OW51446   6.067  13.921  11.579
83205SOL    HW151447   6.121  13.844  11.559
83205SOL    HW251448   6.106  13.958  11.659
83206SOL     OW51449   7.466   4.771   7.363
83206SOL    HW151450   7.469   4.697   7.423
83206SOL    HW251451   7.551   4.771   7.319
83207SOL     OW51452   6.063  13.492   1.887
83207SOL    HW151453   6.062  13.566   1.827
83207SOL    HW251454   5.971  13.472   1.903
83208SOL     OW51455   8.426  13.061   8.063
83208SOL    HW151456   8.391  12.986   8.014
83208SOL    HW251457   8.488  13.102   8.002
83209SOL     OW51458  11.648   4.558   0.503
83209SOL    HW151459  11.557   4.538   0.523
83209SOL    HW251460  11.680   4.481   0.454
83210SOL     OW51461   6.783  11.504  13.031
83210SOL    HW151462   6.743  11.571  12.976
83210SOL    HW251463   6.715  11.438  13.043
83211SOL     OW51464  12.522  11.471   7.437
83211SOL    HW151465  12.589  11.410   7.467
83211SOL    HW251466  12.491  11.514   7.517
83212SOL     OW51467   5.643   0.234  11.912
83212SOL    HW151468   5.681   0.320  11.930
83212SOL    HW251469   5.576   0.251  11.846
83213SOL     OW51470  12.008  12.786   2.956
83213SOL    HW151471  12.057  12.707   2.934
83213SOL    HW251472  11.918  12.765   2.934
83214SOL     OW51473   4.919   4.528   1.938
83214SOL    HW151474   4.972   4.600   1.973
83214SOL    HW251475   4.830   4.563   1.936
83215SOL     OW51476   3.201   6.701  10.148
83215SOL    HW151477   3.126   6.675  10.096
83215SOL    HW251478   3.258   6.748  10.087
83216SOL     OW51479   5.405   0.872   4.501
83216SOL    HW151480   5.424   0.800   4.562
83216SOL    HW251481   5.324   0.846   4.457
83217SOL     OW51482  12.569   0.315  14.057
83217SOL    HW151483  12.607   0.374  13.991
83217SOL    HW251484  12.553   0.372  14.133
83218SOL     OW51485   6.362   4.306   9.198
83218SOL    HW151486   6.322   4.384   9.159
83218SOL    HW251487   6.295   4.272   9.258
83219SOL     OW51488   3.544  12.634  11.336
83219SOL    HW151489   3.524  12.540  11.336
83219SOL    HW251490   3.634  12.639  11.368
83220SOL     OW51491  12.705   4.783   9.212
83220SOL    HW151492  12.715   4.860   9.157
83220SOL    HW251493  12.615   4.755   9.199
83221SOL     OW51494  10.837   6.279  14.090
83221SOL    HW151495  10.868   6.229  14.015
83221SOL    HW251496  10.786   6.216  14.142
83222SOL     OW51497  14.603  10.562  11.232
83222SOL    HW151498  14.553  10.539  11.153
83222SOL    HW251499  14.541  10.550  11.304
83223SOL     OW51500   8.046   5.822  12.502
83223SOL    HW151501   8.108   5.886  12.467
83223SOL    HW251502   7.990   5.874  12.560
83224SOL     OW51503  10.367   4.788  11.886
83224SOL    HW151504  10.315   4.862  11.917
83224SOL    HW251505  10.458   4.819  11.892
83225SOL     OW51506   7.003   4.184   1.143
83225SOL    HW151507   7.034   4.094   1.147
83225SOL    HW251508   6.918   4.183   1.187
83226SOL     OW51509  11.465   8.919   4.077
83226SOL    HW151510  11.473   8.872   4.160
83226SOL    HW251511  11.423   9.002   4.100
83227SOL     OW51512   8.134   0.220  11.335
83227SOL    HW151513   8.142   0.259  11.422
83227SOL    HW251514   8.210   0.163  11.327
83228SOL     OW51515   1.628   9.480  12.214
83228SOL    HW151516   1.573   9.473  12.136
83228SOL    HW251517   1.717   9.481  12.179
83229SOL     OW51518   5.870   0.463   4.153
83229SOL    HW151519   5.779   0.458   4.122
83229SOL    HW251520   5.866   0.522   4.228
83230SOL     OW51521   3.139   5.582  11.921
83230SOL    HW151522   3.050   5.548  11.919
83230SOL    HW251523   3.195   5.504  11.924
83231SOL     OW51524  12.749   3.896  13.323
83231SOL    HW151525  12.665   3.928  13.354
83231SOL    HW251526  12.747   3.909  13.228
83232SOL     OW51527   1.802   9.906  10.150
83232SOL    HW151528   1.709   9.897  10.130
83232SOL    HW251529   1.804   9.949  10.236
83233SOL     OW51530   8.509   9.777   1.292
83233SOL    HW151531   8.419   9.763   1.321
83233SOL    HW251532   8.536   9.692   1.257
83234SOL     OW51533  11.114   9.144   0.103
83234SOL    HW151534  11.157   9.059   0.094
83234SOL    HW251535  11.021   9.122   0.112
83235SOL     OW51536   4.061   1.761   3.398
83235SOL    HW151537   4.051   1.805   3.314
83235SOL    HW251538   4.019   1.675   3.386
83236SOL     OW51539  11.826  11.988   6.163
83236SOL    HW151540  11.825  12.015   6.071
83236SOL    HW251541  11.899  11.927   6.169
83237SOL     OW51542   4.085   3.697   0.950
83237SOL    HW151543   4.061   3.605   0.952
83237SOL    HW251544   4.050   3.729   0.867
83238SOL     OW51545   9.412   6.133   1.163
83238SOL    HW151546   9.342   6.105   1.105
83238SOL    HW251547   9.381   6.113   1.251
83239SOL     OW51548   1.651   5.710   9.238
83239SOL    HW151549   1.722   5.760   9.278
83239SOL    HW251550   1.685   5.620   9.232
83240SOL     OW51551   3.319   6.566   5.904
83240SOL    HW151552   3.365   6.567   5.820
83240SOL    HW251553   3.366   6.501   5.956
83241SOL     OW51554   3.409   8.873   9.650
83241SOL    HW151555   3.483   8.832   9.606
83241SOL    HW251556   3.359   8.913   9.579
83242SOL     OW51557   1.100   6.581   4.327
83242SOL    HW151558   1.126   6.608   4.239
83242SOL    HW251559   1.114   6.487   4.329
83243SOL     OW51560   9.038   6.711  14.773
83243SOL    HW151561   8.973   6.643  14.790
83243SOL    HW251562   9.096   6.708  14.848
83244SOL     OW51563  10.495   3.819  10.108
83244SOL    HW151564  10.404   3.831  10.135
83244SOL    HW251565  10.491   3.758  10.034
83245SOL     OW51566   3.741  10.328  14.743
83245SOL    HW151567   3.813  10.359  14.798
83245SOL    HW251568   3.676  10.294  14.804
83246SOL     OW51569  13.101  12.271   7.323
83246SOL    HW151570  13.123  12.363   7.311
83246SOL    HW251571  13.070  12.242   7.237
83247SOL     OW51572  11.181  12.876   1.427
83247SOL    HW151573  11.266  12.880   1.470
83247SOL    HW251574  11.184  12.794   1.377
83248SOL     OW51575   1.077   2.747   3.925
83248SOL    HW151576   1.124   2.821   3.964
83248SOL    HW251577   1.097   2.753   3.831
83249SOL     OW51578   1.200  13.781   9.604
83249SOL    HW151579   1.215  13.688   9.586
83249SOL    HW251580   1.288  13.820   9.605
83250SOL     OW51581   4.195   4.131   3.557
83250SOL    HW151582   4.287   4.126   3.529
83250SOL    HW251583   4.198   4.174   3.642
83251SOL     OW51584  11.312   9.899   5.191
83251SOL    HW151585  11.398   9.902   5.148
83251SOL    HW251586  11.290   9.991   5.206
83252SOL     OW51587   7.619   4.210  13.398
83252SOL    HW151588   7.637   4.280  13.461
83252SOL    HW251589   7.705   4.175  13.376
83253SOL     OW51590   5.722   2.945   7.657
83253SOL    HW151591   5.757   2.983   7.576
83253SOL    HW251592   5.683   2.863   7.630
83254SOL     OW51593  10.524   0.449  11.384
83254SOL    HW151594  10.506   0.502  11.462
83254SOL    HW251595  10.616   0.468  11.364
83255SOL     OW51596   6.041  13.092  11.178
83255SOL    HW151597   6.109  13.034  11.143
83255SOL    HW251598   6.030  13.063  11.269
83256SOL     OW51599  10.080   9.634  12.645
83256SOL    HW151600  10.126   9.602  12.723
83256SOL    HW251601  10.149   9.669  12.589
83257SOL     OW51602   0.079  12.098  11.767
83257SOL    HW151603   0.048  12.185  11.745
83257SOL    HW251604   0.074  12.094  11.863
83258SOL     OW51605  11.660  11.511   1.902
83258SOL    HW151606  11.731  11.449   1.916
83258SOL    HW251607  11.696  11.595   1.929
83259SOL     OW51608  11.054   1.783   1.526
83259SOL    HW151609  10.980   1.730   1.557
83259SOL    HW251610  11.028   1.812   1.439
83260SOL     OW51611   8.637  11.502   3.164
83260SOL    HW151612   8.670  11.553   3.239
83260SOL    HW251613   8.716  11.479   3.115
83261SOL     OW51614   9.374   8.450   9.401
83261SOL    HW151615   9.371   8.354   9.403
83261SOL    HW251616   9.321   8.474   9.325
83262SOL     OW51617  11.991   1.191   2.125
83262SOL    HW151618  12.082   1.165   2.140
83262SOL    HW251619  11.994   1.248   2.048
83263SOL     OW51620   5.016   2.611  14.241
83263SOL    HW151621   5.084   2.563  14.193
83263SOL    HW251622   5.046   2.609  14.332
83264SOL     OW51623   1.064  11.011  14.681
83264SOL    HW151624   1.149  11.033  14.720
83264SOL    HW251625   1.079  10.927  14.638
83265SOL     OW51626   6.328   9.295   0.612
83265SOL    HW151627   6.278   9.353   0.555
83265SOL    HW251628   6.325   9.337   0.698
83266SOL     OW51629  14.686   4.097  14.248
83266SOL    HW151630  14.678   4.192  14.257
83266SOL    HW251631  14.635   4.062  14.320
83267SOL     OW51632  13.571   2.068   6.436
83267SOL    HW151633  13.556   2.082   6.530
83267SOL    HW251634  13.658   2.104   6.421
83268SOL     OW51635  11.021  14.844   0.532
83268SOL    HW151636  11.077  14.818   0.458
83268SOL    HW251637  10.936  14.861   0.492
83269SOL     OW51638   3.203   8.709   1.491
83269SOL    HW151639   3.135   8.718   1.425
83269SOL    HW251640   3.158   8.721   1.574
83270SOL     OW51641   7.075  12.606  12.592
83270SOL    HW151642   7.084  12.530  12.650
83270SOL    HW251643   7.117  12.678  12.639
83271SOL     OW51644  11.407   5.108   2.171
83271SOL    HW151645  11.377   5.163   2.098
83271SOL    HW251646  11.352   5.030   2.166
83272SOL     OW51647  11.420  14.473   3.887
83272SOL    HW151648  11.347  14.453   3.946
83272SOL    HW251649  11.386  14.452   3.800
83273SOL     OW51650   5.612   3.459  10.754
83273SOL    HW151651   5.633   3.549  10.730
83273SOL    HW251652   5.560   3.467  10.834
83274SOL     OW51653   3.248   8.590   8.432
83274SOL    HW151654   3.178   8.650   8.408
83274SOL    HW251655   3.216   8.546   8.511
83275SOL     OW51656  10.601   0.791  11.619
83275SOL    HW151657  10.638   0.823  11.536
83275SOL    HW251658  10.595   0.869  11.674
83276SOL     OW51659   5.291  13.451   9.716
83276SOL    HW151660   5.265  13.537   9.683
83276SOL    HW251661   5.373  13.433   9.670
83277SOL     OW51662  11.322   0.310   1.646
83277SOL    HW151663  11.312   0.361   1.726
83277SOL    HW251664  11.270   0.231   1.661
83278SOL     OW51665   7.781   4.067   7.246
83278SOL    HW151666   7.800   4.140   7.304
83278SOL    HW251667   7.866   4.045   7.206
83279SOL     OW51668   5.782   0.399   7.592
83279SOL    HW151669   5.723   0.474   7.588
83279SOL    HW251670   5.734   0.334   7.643
83280SOL     OW51671  12.332  11.859   3.598
83280SOL    HW151672  12.405  11.878   3.657
83280SOL    HW251673  12.365  11.881   3.511
83281SOL     OW51674   0.103   7.534  12.599
83281SOL    HW151675   0.118   7.610  12.654
83281SOL    HW251676   0.012   7.543  12.569
83282SOL     OW51677   0.257   7.310   8.232
83282SOL    HW151678   0.237   7.402   8.248
83282SOL    HW251679   0.344   7.311   8.192
83283SOL     OW51680   7.518   3.017  13.555
83283SOL    HW151681   7.553   3.102  13.580
83283SOL    HW251682   7.503   3.024  13.461
83284SOL     OW51683   3.363  13.400   7.087
83284SOL    HW151684   3.273  13.433   7.081
83284SOL    HW251685   3.361  13.317   7.040
83285SOL     OW51686   9.227   7.681   2.427
83285SOL    HW151687   9.245   7.755   2.485
83285SOL    HW251688   9.301   7.622   2.439
83286SOL     OW51689   6.286  14.698   8.074
83286SOL    HW151690   6.233  14.656   8.007
83286SOL    HW251691   6.335  14.766   8.027
83287SOL     OW51692   7.387   2.954  12.589
83287SOL    HW151693   7.393   3.001  12.506
83287SOL    HW251694   7.462   2.896  12.589
83288SOL     OW51695  10.748   6.355   6.473
83288SOL    HW151696  10.692   6.430   6.492
83288SOL    HW251697  10.773   6.366   6.382
83289SOL     OW51698   4.153   7.511   4.797
83289SOL    HW151699   4.059   7.510   4.779
83289SOL    HW251700   4.191   7.455   4.729
83290SOL     OW51701   5.854   6.118   5.634
83290SOL    HW151702   5.910   6.057   5.586
83290SOL    HW251703   5.898   6.131   5.718
83291SOL     OW51704   0.175   4.828   5.957
83291SOL    HW151705   0.191   4.864   5.870
83291SOL    HW251706   0.245   4.765   5.971
83292SOL     OW51707   2.864   5.014   4.852
83292SOL    HW151708   2.850   4.922   4.832
83292SOL    HW251709   2.790   5.059   4.811
83293SOL     OW51710  10.449   5.157  14.223
83293SOL    HW151711  10.389   5.161  14.150
83293SOL    HW251712  10.528   5.116  14.187
83294SOL     OW51713   9.078   1.700  13.522
83294SOL    HW151714   9.076   1.669  13.612
83294SOL    HW251715   9.137   1.640  13.477
83295SOL     OW51716  11.361   1.267   9.008
83295SOL    HW151717  11.316   1.248   9.090
83295SOL    HW251718  11.293   1.304   8.952
83296SOL     OW51719  12.849   3.809   2.679
83296SOL    HW151720  12.797   3.757   2.618
83296SOL    HW251721  12.877   3.746   2.746
83297SOL     OW51722   9.544   1.655  10.331
83297SOL    HW151723   9.538   1.619  10.242
83297SOL    HW251724   9.582   1.584  10.382
83298SOL     OW51725   7.406  10.186  12.201
83298SOL    HW151726   7.391  10.252  12.134
83298SOL    HW251727   7.357  10.109  12.172
83299SOL     OW51728   3.540  12.939  12.204
83299SOL    HW151729   3.615  12.918  12.148
83299SOL    HW251730   3.518  13.029  12.181
83300SOL     OW51731   9.957   4.453   5.938
83300SOL    HW151732   9.891   4.413   5.996
83300SOL    HW251733   9.910   4.470   5.857
83301SOL     OW51734   0.541  12.653   5.576
83301SOL    HW151735   0.530  12.704   5.495
83301SOL    HW251736   0.633  12.665   5.600
83302SOL     OW51737  10.086  14.615  10.686
83302SOL    HW151738  10.145  14.665  10.742
83302SOL    HW251739  10.117  14.524  10.693
83303SOL     OW51740  13.070   7.004   0.478
83303SOL    HW151741  12.978   6.980   0.478
83303SOL    HW251742  13.116   6.924   0.452
83304SOL     OW51743   0.253   0.999   1.120
83304SOL    HW151744   0.254   0.953   1.204
83304SOL    HW251745   0.216   0.937   1.058
83305SOL     OW51746  13.896   9.550   1.395
83305SOL    HW151747  13.948   9.519   1.320
83305SOL    HW251748  13.955   9.609   1.442
83306SOL     OW51749   6.899   5.823  12.288
83306SOL    HW151750   6.933   5.750  12.338
83306SOL    HW251751   6.821   5.789  12.244
83307SOL     OW51752   0.667   0.082  11.234
83307SOL    HW151753   0.632   0.164  11.267
83307SOL    HW251754   0.757   0.078  11.267
83308SOL     OW51755   0.902  14.490  12.020
83308SOL    HW151756   0.879  14.412  11.969
83308SOL    HW251757   0.936  14.552  11.956
83309SOL     OW51758   8.679   5.441   9.877
83309SOL    HW151759   8.772   5.429   9.892
83309SOL    HW251760   8.669   5.430   9.782
83310SOL     OW51761   8.021  11.374  12.522
83310SOL    HW151762   8.100  11.356  12.575
83310SOL    HW251763   7.954  11.394  12.587
83311SOL     OW51764   3.683   5.026  14.160
83311SOL    HW151765   3.647   4.962  14.222
83311SOL    HW251766   3.609   5.083  14.139
83312SOL     OW51767  11.356   5.932   3.591
83312SOL    HW151768  11.431   5.876   3.570
83312SOL    HW251769  11.286   5.901   3.532
83313SOL     OW51770   9.424   6.329   0.270
83313SOL    HW151771   9.352   6.291   0.321
83313SOL    HW251772   9.448   6.408   0.318
83314SOL     OW51773   1.526   6.880   2.775
83314SOL    HW151774   1.595   6.839   2.827
83314SOL    HW251775   1.489   6.808   2.724
83315SOL     OW51776   8.582   4.351   4.512
83315SOL    HW151777   8.586   4.282   4.578
83315SOL    HW251778   8.590   4.304   4.428
83316SOL     OW51779   2.264   9.039  11.635
83316SOL    HW151780   2.190   9.093  11.607
83316SOL    HW251781   2.338   9.100  11.642
83317SOL     OW51782   0.847  14.735  13.730
83317SOL    HW151783   0.861  14.719  13.637
83317SOL    HW251784   0.854  14.830  13.739
83318SOL     OW51785  13.412   6.962   0.229
83318SOL    HW151786  13.416   6.867   0.232
83318SOL    HW251787  13.377   6.981   0.142
83319SOL     OW51788  13.223  11.574  13.289
83319SOL    HW151789  13.137  11.598  13.323
83319SOL    HW251790  13.214  11.584  13.194
83320SOL     OW51791  10.565   7.896   2.582
83320SOL    HW151792  10.590   7.921   2.671
83320SOL    HW251793  10.605   7.809   2.570
83321SOL     OW51794  12.238   2.214   2.708
83321SOL    HW151795  12.290   2.294   2.713
83321SOL    HW251796  12.229   2.197   2.614
83322SOL     OW51797   2.339  13.739   3.831
83322SOL    HW151798   2.305  13.818   3.790
83322SOL    HW251799   2.387  13.694   3.761
83323SOL     OW51800   3.694   4.336  11.741
83323SOL    HW151801   3.609   4.301  11.715
83323SOL    HW251802   3.735   4.363  11.659
83324SOL     OW51803  10.303  13.389   4.481
83324SOL    HW151804  10.290  13.466   4.536
83324SOL    HW251805  10.215  13.354   4.469
83325SOL     OW51806   9.782   7.406  14.863
83325SOL    HW151807   9.699   7.406   0.028
83325SOL    HW251808   9.825   7.325   0.007
83326SOL     OW51809   9.440  14.744   2.205
83326SOL    HW151810   9.384  14.677   2.245
83326SOL    HW251811   9.389  14.774   2.129
83327SOL     OW51812   2.916   9.481   1.041
83327SOL    HW151813   2.949   9.568   1.064
83327SOL    HW251814   2.822   9.493   1.030
83328SOL     OW51815   6.417  10.627   9.539
83328SOL    HW151816   6.472  10.592   9.609
83328SOL    HW251817   6.430  10.721   9.542
83329SOL     OW51818  13.515   6.743   4.169
83329SOL    HW151819  13.525   6.691   4.248
83329SOL    HW251820  13.526   6.680   4.097
83330SOL     OW51821   3.632  14.749   2.971
83330SOL    HW151822   3.709  14.717   2.924
83330SOL    HW251823   3.644  14.720   3.061
83331SOL     OW51824   6.723   4.182   2.361
83331SOL    HW151825   6.722   4.119   2.288
83331SOL    HW251826   6.815   4.193   2.382
83332SOL     OW51827  11.035   1.318  14.359
83332SOL    HW151828  10.981   1.258  14.307
83332SOL    HW251829  11.104   1.346  14.300
83333SOL     OW51830   5.505   8.542   6.944
83333SOL    HW151831   5.579   8.599   6.963
83333SOL    HW251832   5.471   8.572   6.860
83334SOL     OW51833  11.880   9.069  10.536
83334SOL    HW151834  11.855   8.992  10.485
83334SOL    HW251835  11.969   9.049  10.567
83335SOL     OW51836   9.180  13.110  14.552
83335SOL    HW151837   9.265  13.127  14.513
83335SOL    HW251838   9.171  13.015  14.550
83336SOL     OW51839  10.342  13.479   6.122
83336SOL    HW151840  10.298  13.511   6.201
83336SOL    HW251841  10.271  13.454   6.063
83337SOL     OW51842   5.591   7.085   9.071
83337SOL    HW151843   5.641   7.162   9.045
83337SOL    HW251844   5.531   7.069   8.999
83338SOL     OW51845  11.151  14.590   1.297
83338SOL    HW151846  11.097  14.601   1.219
83338SOL    HW251847  11.169  14.680   1.326
83339SOL     OW51848   3.359   5.056   6.984
83339SOL    HW151849   3.429   5.079   6.923
83339SOL    HW251850   3.361   5.126   7.050
83340SOL     OW51851   1.517  14.424   4.000
83340SOL    HW151852   1.548  14.482   4.069
83340SOL    HW251853   1.452  14.476   3.952
83341SOL     OW51854   3.967  14.243   7.071
83341SOL    HW151855   3.927  14.245   6.984
83341SOL    HW251856   4.028  14.316   7.072
83342SOL     OW51857   1.243  12.342   0.777
83342SOL    HW151858   1.196  12.394   0.712
83342SOL    HW251859   1.244  12.396   0.855
83343SOL     OW51860   3.341   2.553  10.131
83343SOL    HW151861   3.353   2.645  10.107
83343SOL    HW251862   3.407   2.538  10.199
83344SOL     OW51863  10.980   4.665   9.789
83344SOL    HW151864  10.926   4.588   9.775
83344SOL    HW251865  10.923   4.739   9.769
83345SOL     OW51866  10.657   2.177  14.464
83345SOL    HW151867  10.566   2.199  14.445
83345SOL    HW251868  10.707   2.241  14.413
83346SOL     OW51869   2.388   8.848  14.339
83346SOL    HW151870   2.339   8.847  14.257
83346SOL    HW251871   2.480   8.860  14.313
83347SOL     OW51872   8.678  12.145  13.459
83347SOL    HW151873   8.651  12.054  13.472
83347SOL    HW251874   8.693  12.178  13.547
83348SOL     OW51875  12.140  14.491  11.096
83348SOL    HW151876  12.198  14.566  11.106
83348SOL    HW251877  12.195  14.423  11.057
83349SOL     OW51878   3.158   4.832   8.040
83349SOL    HW151879   3.208   4.914   8.037
83349SOL    HW251880   3.067   4.860   8.028
83350SOL     OW51881   5.099   5.334  14.110
83350SOL    HW151882   5.096   5.248  14.152
83350SOL    HW251883   5.064   5.320  14.022
83351SOL     OW51884   3.460  14.505  11.448
83351SOL    HW151885   3.552  14.482  11.433
83351SOL    HW251886   3.464  14.592  11.488
83352SOL     OW51887   4.736   1.403  14.822
83352SOL    HW151888   4.769   1.389  14.734
83352SOL    HW251889   4.658   1.349  14.828
83353SOL     OW51890   2.634  13.649   5.748
83353SOL    HW151891   2.557  13.676   5.798
83353SOL    HW251892   2.636  13.708   5.673
83354SOL     OW51893   1.844   3.515   0.099
83354SOL    HW151894   1.847   3.466   0.017
83354SOL    HW251895   1.794   3.594   0.078
83355SOL     OW51896   7.118   9.254  11.838
83355SOL    HW151897   7.193   9.202  11.867
83355SOL    HW251898   7.124   9.335  11.888
83356SOL     OW51899   1.506   2.094  11.067
83356SOL    HW151900   1.484   2.002  11.051
83356SOL    HW251901   1.584   2.091  11.122
83357SOL     OW51902  11.480  14.058  10.456
83357SOL    HW151903  11.476  14.144  10.414
83357SOL    HW251904  11.560  14.061  10.509
83358SOL     OW51905  10.646  13.822  13.596
83358SOL    HW151906  10.732  13.830  13.557
83358SOL    HW251907  10.587  13.806  13.523
83359SOL     OW51908   0.510  10.033   4.352
83359SOL    HW151909   0.473   9.953   4.390
83359SOL    HW251910   0.602  10.032   4.380
83360SOL     OW51911   3.723  11.278  10.170
83360SOL    HW151912   3.751  11.224  10.244
83360SOL    HW251913   3.664  11.222  10.120
83361SOL     OW51914  13.950   7.995  12.440
83361SOL    HW151915  13.939   8.044  12.359
83361SOL    HW251916  13.904   8.049  12.506
83362SOL     OW51917   2.580  13.422   1.972
83362SOL    HW151918   2.539  13.372   1.902
83362SOL    HW251919   2.542  13.387   2.052
83363SOL     OW51920   3.840   6.849   1.034
83363SOL    HW151921   3.806   6.766   1.001
83363SOL    HW251922   3.888   6.886   0.960
83364SOL     OW51923   0.197   9.380   2.774
83364SOL    HW151924   0.138   9.340   2.711
83364SOL    HW251925   0.248   9.306   2.808
83365SOL     OW51926   4.651   5.266  13.770
83365SOL    HW151927   4.584   5.330  13.746
83365SOL    HW251928   4.665   5.214  13.691
83366SOL     OW51929  12.251   6.424   7.817
83366SOL    HW151930  12.228   6.349   7.873
83366SOL    HW251931  12.301   6.482   7.874
83367SOL     OW51932   3.359   7.970   0.639
83367SOL    HW151933   3.325   8.055   0.666
83367SOL    HW251934   3.308   7.906   0.688
83368SOL     OW51935   2.596   2.762   0.929
83368SOL    HW151936   2.658   2.712   0.982
83368SOL    HW251937   2.514   2.712   0.935
83369SOL     OW51938   6.924   3.472   9.817
83369SOL    HW151939   6.904   3.443   9.906
83369SOL    HW251940   7.013   3.506   9.822
83370SOL     OW51941  13.402   0.855  12.520
83370SOL    HW151942  13.441   0.779  12.564
83370SOL    HW251943  13.320   0.869  12.567
83371SOL     OW51944   2.128   9.781   1.506
83371SOL    HW151945   2.194   9.843   1.536
83371SOL    HW251946   2.143   9.773   1.412
83372SOL     OW51947   9.703   9.431   6.850
83372SOL    HW151948   9.783   9.384   6.823
83372SOL    HW251949   9.686   9.493   6.779
83373SOL     OW51950   7.078  14.051  14.222
83373SOL    HW151951   7.153  13.996  14.243
83373SOL    HW251952   7.006  13.989  14.207
83374SOL     OW51953  13.676  10.505   0.721
83374SOL    HW151954  13.695  10.570   0.789
83374SOL    HW251955  13.729  10.532   0.646
83375SOL     OW51956   2.248   4.034   5.175
83375SOL    HW151957   2.218   3.944   5.182
83375SOL    HW251958   2.230   4.072   5.261
83376SOL     OW51959   4.720  12.260  10.759
83376SOL    HW151960   4.735  12.166  10.770
83376SOL    HW251961   4.653  12.281  10.825
83377SOL     OW51962  10.616   8.749   8.488
83377SOL    HW151963  10.613   8.655   8.469
83377SOL    HW251964  10.660   8.787   8.412
83378SOL     OW51965  11.071   1.528  10.476
83378SOL    HW151966  11.068   1.610  10.524
83378SOL    HW251967  10.992   1.529  10.422
83379SOL     OW51968   2.126   7.223   1.488
83379SOL    HW151969   2.216   7.251   1.507
83379SOL    HW251970   2.074   7.256   1.562
83380SOL     OW51971   3.283   0.813   4.269
83380SOL    HW151972   3.208   0.832   4.212
83380SOL    HW251973   3.355   0.865   4.233
83381SOL     OW51974  14.536   7.469  14.271
83381SOL    HW151975  14.519   7.410  14.198
83381SOL    HW251976  14.616   7.435  14.312
83382SOL     OW51977  13.138   1.277   6.005
83382SOL    HW151978  13.057   1.244   6.044
83382SOL    HW251979  13.162   1.352   6.059
83383SOL     OW51980  11.698   0.746  14.705
83383SOL    HW151981  11.658   0.669  14.745
83383SOL    HW251982  11.785   0.752  14.745
83384SOL     OW51983   5.905  10.648   2.853
83384SOL    HW151984   5.985  10.697   2.837
83384SOL    HW251985   5.934  10.573   2.906
83385SOL     OW51986  10.107   7.828   0.089
83385SOL    HW151987  10.164   7.780   0.149
83385SOL    HW251988  10.081   7.762   0.024
83386SOL     OW51989   3.949  12.269   8.374
83386SOL    HW151990   3.884  12.339   8.373
83386SOL    HW251991   3.996  12.282   8.457
83387SOL     OW51992  13.936   6.191  12.715
83387SOL    HW151993  13.865   6.240  12.758
83387SOL    HW251994  14.000   6.178  12.785
83388SOL     OW51995   0.909   7.068  10.396
83388SOL    HW151996   0.909   7.159  10.424
83388SOL    HW251997   0.959   7.022  10.463
83389SOL     OW51998   6.746   4.017   2.144
83389SOL    HW151999   6.659   3.981   2.160
83389SOL    HW252000   6.793   3.947   2.100
83390SOL     OW52001  10.366  12.052  11.845
83390SOL    HW152002  10.284  12.059  11.894
83390SOL    HW252003  10.432  12.089  11.903
83391SOL     OW52004   7.438  14.194  11.110
83391SOL    HW152005   7.402  14.282  11.098
83391SOL    HW252006   7.532  14.208  11.120
83392SOL     OW52007   2.762   0.240  11.279
83392SOL    HW152008   2.689   0.192  11.320
83392SOL    HW252009   2.721   0.318  11.242
83393SOL     OW52010   4.492  14.184   3.551
83393SOL    HW152011   4.566  14.218   3.601
83393SOL    HW252012   4.470  14.254   3.490
83394SOL     OW52013  13.247   5.341  14.137
83394SOL    HW152014  13.186   5.362  14.067
83394SOL    HW252015  13.314   5.287  14.094
83395SOL     OW52016   5.086   1.642  14.282
83395SOL    HW152017   5.093   1.626  14.188
83395SOL    HW252018   5.007   1.696  14.291
83396SOL     OW52019  14.818   2.895   8.082
83396SOL    HW152020   0.006   2.918   8.021
83396SOL    HW252021  14.847   2.813   8.122
83397SOL     OW52022   8.058  11.612   1.344
83397SOL    HW152023   7.975  11.566   1.358
83397SOL    HW252024   8.107  11.554   1.286
83398SOL     OW52025   8.044  12.522   9.381
83398SOL    HW152026   8.024  12.484   9.466
83398SOL    HW252027   8.010  12.459   9.318
83399SOL     OW52028   9.643  14.823   4.121
83399SOL    HW152029   9.572  14.855   4.066
83399SOL    HW252030   9.650  14.730   4.100
83400SOL     OW52031   6.356  13.221   5.924
83400SOL    HW152032   6.283  13.236   5.864
83400SOL    HW252033   6.320  13.238   6.011
83401SOL     OW52034   8.839   2.514   1.351
83401SOL    HW152035   8.801   2.431   1.381
83401SOL    HW252036   8.794   2.532   1.269
83402SOL     OW52037   3.703   4.987  11.385
83402SOL    HW152038   3.750   4.978  11.302
83402SOL    HW252039   3.766   4.957  11.451
83403SOL     OW52040   2.460   1.221   1.577
83403SOL    HW152041   2.389   1.185   1.630
83403SOL    HW252042   2.423   1.301   1.539
83404SOL     OW52043   2.633   4.691   4.595
83404SOL    HW152044   2.662   4.754   4.660
83404SOL    HW252045   2.711   4.641   4.573
83405SOL     OW52046   3.149  10.103   4.754
83405SOL    HW152047   3.079  10.156   4.718
83405SOL    HW252048   3.159  10.134   4.844
83406SOL     OW52049  14.037   4.446   4.639
83406SOL    HW152050  14.006   4.490   4.560
83406SOL    HW252051  14.113   4.498   4.667
83407SOL     OW52052  12.180   1.814   3.679
83407SOL    HW152053  12.165   1.906   3.658
83407SOL    HW252054  12.113   1.766   3.630
83408SOL     OW52055  10.951   7.666  11.481
83408SOL    HW152056  10.986   7.603  11.544
83408SOL    HW252057  10.919   7.612  11.409
83409SOL     OW52058  10.643   0.740   6.135
83409SOL    HW152059  10.549   0.738   6.156
83409SOL    HW252060  10.646   0.749   6.040
83410SOL     OW52061   1.592  11.685   9.205
83410SOL    HW152062   1.500  11.663   9.216
83410SOL    HW252063   1.612  11.658   9.115
83411SOL     OW52064  10.245   4.759   7.612
83411SOL    HW152065  10.199   4.705   7.547
83411SOL    HW252066  10.208   4.732   7.696
83412SOL     OW52067  12.001   8.886  13.570
83412SOL    HW152068  11.976   8.796  13.548
83412SOL    HW252069  11.940   8.912  13.639
83413SOL     OW52070  11.258   7.895   0.583
83413SOL    HW152071  11.220   7.826   0.529
83413SOL    HW252072  11.323   7.851   0.636
83414SOL     OW52073   8.375  10.666  10.719
83414SOL    HW152074   8.361  10.588  10.772
83414SOL    HW252075   8.395  10.633  10.632
83415SOL     OW52076   3.056   4.005  12.468
83415SOL    HW152077   3.132   4.043  12.513
83415SOL    HW252078   2.982   4.057  12.497
83416SOL     OW52079  11.735   0.257   3.888
83416SOL    HW152080  11.804   0.223   3.830
83416SOL    HW252081  11.739   0.201   3.965
83417SOL     OW52082   9.732   8.448   8.325
83417SOL    HW152083   9.662   8.512   8.338
83417SOL    HW252084   9.753   8.417   8.413
83418SOL     OW52085   1.506   1.471  14.651
83418SOL    HW152086   1.467   1.406  14.591
83418SOL    HW252087   1.556   1.529  14.593
83419SOL     OW52088   5.901   3.464   0.060
83419SOL    HW152089   5.841   3.520   0.012
83419SOL    HW252090   5.975   3.521   0.082
83420SOL     OW52091   7.750   4.468  11.336
83420SOL    HW152092   7.822   4.406  11.324
83420SOL    HW252093   7.781   4.529  11.402
83421SOL     OW52094   6.059   9.589  13.819
83421SOL    HW152095   6.152   9.612  13.822
83421SOL    HW252096   6.030   9.597  13.910
83422SOL     OW52097   4.504   3.837  12.749
83422SOL    HW152098   4.463   3.922  12.736
83422SOL    HW252099   4.431   3.777  12.763
83423SOL     OW52100  10.222  10.466   7.083
83423SOL    HW152101  10.146  10.520   7.103
83423SOL    HW252102  10.197  10.377   7.111
83424SOL     OW52103  11.581  14.679  11.951
83424SOL    HW152104  11.612  14.673  11.860
83424SOL    HW252105  11.551  14.591  11.972
83425SOL     OW52106   2.613   0.754   2.528
83425SOL    HW152107   2.683   0.719   2.472
83425SOL    HW252108   2.533   0.733   2.481
83426SOL     OW52109  12.565  10.037   7.358
83426SOL    HW152110  12.579  10.051   7.264
83426SOL    HW252111  12.470  10.031   7.367
83427SOL     OW52112   5.609   0.522  10.616
83427SOL    HW152113   5.553   0.445  10.607
83427SOL    HW252114   5.682   0.491  10.671
83428SOL     OW52115   5.188   4.898  13.115
83428SOL    HW152116   5.188   4.866  13.205
83428SOL    HW252117   5.190   4.818  13.062
83429SOL     OW52118   5.108  14.034   6.746
83429SOL    HW152119   5.172  14.020   6.816
83429SOL    HW252120   5.023  14.033   6.790
83430SOL     OW52121   7.471   2.971  10.432
83430SOL    HW152122   7.444   2.886  10.465
83430SOL    HW252123   7.430   2.979  10.346
83431SOL     OW52124  10.831   6.185   4.327
83431SOL    HW152125  10.838   6.142   4.241
83431SOL    HW252126  10.742   6.221   4.328
83432SOL     OW52127   1.575  13.712   5.687
83432SOL    HW152128   1.523  13.658   5.747
83432SOL    HW252129   1.658  13.666   5.679
83433SOL     OW52130  11.373   7.486   8.559
83433SOL    HW152131  11.387   7.553   8.492
83433SOL    HW252132  11.390   7.403   8.514
83434SOL     OW52133   5.960   5.503   2.917
83434SOL    HW152134   5.881   5.556   2.929
83434SOL    HW252135   5.996   5.494   3.005
83435SOL     OW52136  11.903   6.504   1.746
83435SOL    HW152137  11.872   6.466   1.663
83435SOL    HW252138  11.848   6.581   1.759
83436SOL     OW52139   1.055   5.370   4.271
83436SOL    HW152140   1.010   5.452   4.253
83436SOL    HW252141   1.119   5.362   4.201
83437SOL     OW52142   2.809   3.491   4.560
83437SOL    HW152143   2.795   3.416   4.503
83437SOL    HW252144   2.777   3.566   4.509
83438SOL     OW52145  10.994   3.669  11.225
83438SOL    HW152146  10.974   3.581  11.258
83438SOL    HW252147  11.024   3.655  11.135
83439SOL     OW52148   4.173   3.395   2.157
83439SOL    HW152149   4.175   3.348   2.240
83439SOL    HW252150   4.134   3.480   2.179
83440SOL     OW52151   2.206   3.398   7.667
83440SOL    HW152152   2.229   3.316   7.710
83440SOL    HW252153   2.268   3.405   7.594
83441SOL     OW52154  11.951  13.644  12.909
83441SOL    HW152155  11.960  13.557  12.869
83441SOL    HW252156  12.040  13.666  12.938
83442SOL     OW52157  12.096   0.046   5.648
83442SOL    HW152158  12.124   0.071   5.560
83442SOL    HW252159  12.017   0.098   5.664
83443SOL     OW52160   4.998  13.757  11.803
83443SOL    HW152161   5.018  13.674  11.845
83443SOL    HW252162   4.920  13.739  11.749
83444SOL     OW52163   7.075   2.560   3.039
83444SOL    HW152164   7.161   2.520   3.053
83444SOL    HW252165   7.073   2.579   2.945
83445SOL     OW52166   1.982  13.685   1.480
83445SOL    HW152167   1.987  13.772   1.518
83445SOL    HW252168   1.888  13.668   1.471
83446SOL     OW52169   8.843   3.718   9.963
83446SOL    HW152170   8.816   3.774   9.891
83446SOL    HW252171   8.893   3.775  10.022
83447SOL     OW52172  12.734   4.402   2.103
83447SOL    HW152173  12.672   4.336   2.072
83447SOL    HW252174  12.761   4.370   2.189
83448SOL     OW52175   6.180   7.085  13.906
83448SOL    HW152176   6.122   7.065  13.980
83448SOL    HW252177   6.248   7.141  13.944
83449SOL     OW52178   5.680   4.811  12.443
83449SOL    HW152179   5.665   4.904  12.428
83449SOL    HW252180   5.735   4.783  12.370
83450SOL     OW52181  14.797   9.544   2.053
83450SOL    HW152182  14.807   9.449   2.056
83450SOL    HW252183   0.003   9.577   2.036
83451SOL     OW52184   3.159   5.785  11.738
83451SOL    HW152185   3.144   5.726  11.812
83451SOL    HW252186   3.080   5.777  11.685
83452SOL     OW52187   8.941   5.314   1.357
83452SOL    HW152188   9.005   5.273   1.299
83452SOL    HW252189   8.994   5.366   1.418
83453SOL     OW52190  13.204  13.788  11.022
83453SOL    HW152191  13.162  13.730  10.958
83453SOL    HW252192  13.277  13.736  11.056
83454SOL     OW52193   6.108   4.952   3.943
83454SOL    HW152194   6.106   5.044   3.918
83454SOL    HW252195   6.192   4.940   3.987
83455SOL     OW52196   2.451   3.103  13.217
83455SOL    HW152197   2.408   3.064  13.141
83455SOL    HW252198   2.524   3.153  13.181
83456SOL     OW52199   0.926  12.814   9.510
83456SOL    HW152200   0.988  12.754   9.552
83456SOL    HW252201   0.845  12.764   9.502
83457SOL     OW52202  12.642  12.877  12.104
83457SOL    HW152203  12.629  12.956  12.051
83457SOL    HW252204  12.560  12.866  12.151
83458SOL     OW52205  14.697  14.127   8.949
83458SOL    HW152206  14.627  14.100   8.889
83458SOL    HW252207  14.706  14.221   8.933
83459SOL     OW52208  14.364   5.640  12.235
83459SOL    HW152209  14.274   5.610  12.224
83459SOL    HW252210  14.416   5.578  12.185
83460SOL     OW52211   8.069   5.840   7.962
83460SOL    HW152212   8.069   5.831   7.867
83460SOL    HW252213   8.025   5.924   7.978
83461SOL     OW52214  14.570   0.519   4.856
83461SOL    HW152215  14.654   0.528   4.901
83461SOL    HW252216  14.532   0.438   4.892
83462SOL     OW52217  11.031   4.933   0.624
83462SOL    HW152218  10.974   4.954   0.550
83462SOL    HW252219  11.041   5.016   0.670
83463SOL     OW52220  12.566  12.348  10.131
83463SOL    HW152221  12.650  12.390  10.112
83463SOL    HW252222  12.506  12.420  10.149
83464SOL     OW52223  13.228   0.677   8.714
83464SOL    HW152224  13.162   0.607   8.713
83464SOL    HW252225  13.185   0.750   8.669
83465SOL     OW52226   9.645  11.962   6.165
83465SOL    HW152227   9.620  12.003   6.083
83465SOL    HW252228   9.626  11.869   6.153
83466SOL     OW52229   2.650   1.312   2.157
83466SOL    HW152230   2.713   1.264   2.210
83466SOL    HW252231   2.592   1.354   2.220
83467SOL     OW52232   7.308  13.582   9.362
83467SOL    HW152233   7.393  13.615   9.392
83467SOL    HW252234   7.327  13.493   9.331
83468SOL     OW52235   9.823   6.564  10.581
83468SOL    HW152236   9.748   6.524  10.626
83468SOL    HW252237   9.872   6.490  10.545
83469SOL     OW52238   5.191  12.507  13.934
83469SOL    HW152239   5.258  12.567  13.969
83469SOL    HW252240   5.151  12.468  14.012
83470SOL     OW52241   3.262   1.719   7.942
83470SOL    HW152242   3.192   1.732   7.878
83470SOL    HW252243   3.262   1.625   7.960
83471SOL     OW52244  14.105  10.868   7.412
83471SOL    HW152245  14.106  10.864   7.316
83471SOL    HW252246  14.183  10.919   7.434
83472SOL     OW52247   1.424   5.757   3.275
83472SOL    HW152248   1.367   5.738   3.201
83472SOL    HW252249   1.508   5.782   3.236
83473SOL     OW52250   8.737   4.706   9.897
83473SOL    HW152251   8.684   4.778   9.931
83473SOL    HW252252   8.704   4.691   9.809
83474SOL     OW52253   7.769   8.007   9.233
83474SOL    HW152254   7.850   8.048   9.202
83474SOL    HW252255   7.799   7.935   9.288
83475SOL     OW52256   4.497   5.672   3.195
83475SOL    HW152257   4.522   5.708   3.281
83475SOL    HW252258   4.524   5.580   3.199
83476SOL     OW52259   5.018  13.196  12.834
83476SOL    HW152260   5.033  13.101  12.829
83476SOL    HW252261   4.933  13.205  12.876
83477SOL     OW52262   5.382   2.546   1.518
83477SOL    HW152263   5.329   2.615   1.478
83477SOL    HW252264   5.322   2.504   1.580
83478SOL     OW52265   7.780   2.326   0.631
83478SOL    HW152266   7.871   2.313   0.656
83478SOL    HW252267   7.730   2.293   0.705
83479SOL     OW52268   0.639   2.501   6.072
83479SOL    HW152269   0.566   2.480   6.014
83479SOL    HW252270   0.597   2.532   6.152
83480SOL     OW52271   6.159   0.408   8.464
83480SOL    HW152272   6.144   0.344   8.395
83480SOL    HW252273   6.089   0.472   8.454
83481SOL     OW52274   4.187   0.240   7.466
83481SOL    HW152275   4.281   0.249   7.482
83481SOL    HW252276   4.153   0.195   7.544
83482SOL     OW52277   8.678   3.554   8.248
83482SOL    HW152278   8.698   3.470   8.205
83482SOL    HW252279   8.653   3.530   8.337
83483SOL     OW52280   0.294   4.321  10.805
83483SOL    HW152281   0.384   4.351  10.794
83483SOL    HW252282   0.243   4.402  10.807
83484SOL     OW52283   1.849   4.049  12.029
83484SOL    HW152284   1.906   4.059  11.953
83484SOL    HW252285   1.796   3.972  12.008
83485SOL     OW52286  10.557  11.131  12.580
83485SOL    HW152287  10.527  11.041  12.566
83485SOL    HW252288  10.652  11.124  12.585
83486SOL     OW52289  11.017   5.944   1.340
83486SOL    HW152290  11.058   5.867   1.380
83486SOL    HW252291  10.937   5.958   1.391
83487SOL     OW52292   1.269   1.098   9.907
83487SOL    HW152293   1.355   1.058   9.904
83487SOL    HW252294   1.280   1.182   9.862
83488SOL     OW52295  12.286   3.989   5.918
83488SOL    HW152296  12.232   3.922   5.962
83488SOL    HW252297  12.355   3.938   5.875
83489SOL     OW52298  14.058   4.161   1.705
83489SOL    HW152299  14.079   4.096   1.773
83489SOL    HW252300  14.014   4.231   1.752
83490SOL     OW52301   4.892   2.185   0.646
83490SOL    HW152302   4.912   2.098   0.613
83490SOL    HW252303   4.825   2.172   0.713
83491SOL     OW52304   9.366   2.355   0.653
83491SOL    HW152305   9.374   2.423   0.587
83491SOL    HW252306   9.352   2.274   0.603
83492SOL     OW52307   9.147   2.934  10.597
83492SOL    HW152308   9.057   2.923  10.627
83492SOL    HW252309   9.139   2.970  10.509
83493SOL     OW52310  14.861   2.511   2.160
83493SOL    HW152311  14.831   2.577   2.223
83493SOL    HW252312   0.025   2.446   2.214
83494SOL     OW52313  12.838   2.198  13.963
83494SOL    HW152314  12.842   2.257  14.039
83494SOL    HW252315  12.745   2.189  13.944
83495SOL     OW52316   7.149   6.239  12.752
83495SOL    HW152317   7.082   6.285  12.802
83495SOL    HW252318   7.119   6.244  12.661
83496SOL     OW52319   3.786   9.237  10.685
83496SOL    HW152320   3.764   9.236  10.778
83496SOL    HW252321   3.720   9.293  10.645
83497SOL     OW52322   2.660   6.569   7.531
83497SOL    HW152323   2.732   6.558   7.468
83497SOL    HW252324   2.700   6.612   7.606
83498SOL     OW52325   6.663  11.134  11.832
83498SOL    HW152326   6.655  11.074  11.906
83498SOL    HW252327   6.747  11.114  11.793
83499SOL     OW52328   0.878   9.344   1.760
83499SOL    HW152329   0.891   9.439   1.756
83499SOL    HW252330   0.930   9.309   1.687
83500SOL     OW52331   6.051   6.777   1.284
83500SOL    HW152332   6.108   6.763   1.360
83500SOL    HW252333   5.962   6.768   1.320
83501SOL     OW52334   3.771   9.770   8.118
83501SOL    HW152335   3.799   9.804   8.203
83501SOL    HW252336   3.769   9.675   8.130
83502SOL     OW52337  14.183   2.236   7.449
83502SOL    HW152338  14.124   2.194   7.386
83502SOL    HW252339  14.228   2.164   7.492
83503SOL     OW52340   8.454  14.153   2.969
83503SOL    HW152341   8.501  14.072   2.987
83503SOL    HW252342   8.408  14.174   3.050
83504SOL     OW52343  11.860   0.946  14.021
83504SOL    HW152344  11.894   0.943  14.110
83504SOL    HW252345  11.774   0.904  14.027
83505SOL     OW52346   2.573  10.669   8.825
83505SOL    HW152347   2.666  10.648   8.826
83505SOL    HW252348   2.562  10.732   8.896
83506SOL     OW52349   8.116  12.983   3.884
83506SOL    HW152350   8.193  12.952   3.837
83506SOL    HW252351   8.043  12.936   3.843
83507SOL     OW52352   8.546   2.009   5.386
83507SOL    HW152353   8.475   1.946   5.370
83507SOL    HW252354   8.507   2.072   5.446
83508SOL     OW52355   2.108   5.318   5.103
83508SOL    HW152356   2.024   5.276   5.083
83508SOL    HW252357   2.086   5.409   5.122
83509SOL     OW52358   0.831   2.522   1.427
83509SOL    HW152359   0.851   2.470   1.505
83509SOL    HW252360   0.762   2.582   1.456
83510SOL     OW52361  12.441   4.644  12.653
83510SOL    HW152362  12.483   4.724  12.685
83510SOL    HW252363  12.514   4.585  12.636
83511SOL     OW52364  11.655  10.669  13.560
83511SOL    HW152365  11.618  10.601  13.617
83511SOL    HW252366  11.748  10.648  13.554
83512SOL     OW52367  11.596   3.586   9.318
83512SOL    HW152368  11.691   3.584   9.327
83512SOL    HW252369  11.565   3.624   9.400
83513SOL     OW52370  13.948  12.684   8.207
83513SOL    HW152371  13.913  12.744   8.272
83513SOL    HW252372  13.874  12.664   8.150
83514SOL     OW52373  12.514  14.165   0.410
83514SOL    HW152374  12.460  14.193   0.483
83514SOL    HW252375  12.563  14.090   0.443
83515SOL     OW52376   4.658   6.376   1.547
83515SOL    HW152377   4.610   6.400   1.467
83515SOL    HW252378   4.622   6.432   1.615
83516SOL     OW52379   2.201   0.032   2.611
83516SOL    HW152380   2.114   0.044   2.572
83516SOL    HW252381   2.252   0.106   2.578
83517SOL     OW52382  12.165   6.796  12.259
83517SOL    HW152383  12.094   6.733  12.273
83517SOL    HW252384  12.175   6.799  12.163
83518SOL     OW52385   6.226   5.553   6.871
83518SOL    HW152386   6.234   5.562   6.966
83518SOL    HW252387   6.224   5.459   6.856
83519SOL     OW52388   5.911   3.600  13.250
83519SOL    HW152389   5.878   3.677  13.205
83519SOL    HW252390   5.993   3.628  13.290
83520SOL     OW52391   7.577   5.609  12.047
83520SOL    HW152392   7.641   5.600  11.976
83520SOL    HW252393   7.549   5.519  12.066
83521SOL     OW52394   9.472  10.119   6.437
83521SOL    HW152395   9.389  10.161   6.460
83521SOL    HW252396   9.485  10.054   6.506
83522SOL     OW52397  11.838   4.983  14.415
83522SOL    HW152398  11.796   4.941  14.491
83522SOL    HW252399  11.911   5.032  14.452
83523SOL     OW52400   4.091  13.868  12.186
83523SOL    HW152401   4.029  13.847  12.256
83523SOL    HW252402   4.040  13.916  12.122
83524SOL     OW52403   3.157  13.286  10.404
83524SOL    HW152404   3.177  13.364  10.352
83524SOL    HW252405   3.236  13.269  10.454
83525SOL     OW52406  12.433   0.891   7.682
83525SOL    HW152407  12.513   0.843   7.703
83525SOL    HW252408  12.373   0.870   7.753
83526SOL     OW52409   8.476  10.976   6.597
83526SOL    HW152410   8.569  10.993   6.583
83526SOL    HW252411   8.431  11.039   6.541
83527SOL     OW52412  14.227   2.255   0.550
83527SOL    HW152413  14.218   2.163   0.574
83527SOL    HW252414  14.179   2.303   0.617
83528SOL     OW52415   6.578   6.751  10.201
83528SOL    HW152416   6.508   6.752  10.266
83528SOL    HW252417   6.537   6.779  10.120
83529SOL     OW52418  11.861  12.204   3.189
83529SOL    HW152419  11.880  12.297   3.191
83529SOL    HW252420  11.836  12.187   3.098
83530SOL     OW52421   7.932  13.741   5.250
83530SOL    HW152422   7.840  13.755   5.225
83530SOL    HW252423   7.946  13.647   5.239
83531SOL     OW52424  10.131  14.303   7.294
83531SOL    HW152425  10.209  14.338   7.339
83531SOL    HW252426  10.166  14.235   7.236
83532SOL     OW52427   1.675   4.502  13.885
83532SOL    HW152428   1.756   4.452  13.877
83532SOL    HW252429   1.628   4.460  13.957
83533SOL     OW52430  14.301  12.162   8.229
83533SOL    HW152431  14.211  12.173   8.259
83533SOL    HW252432  14.338  12.096   8.287
83534SOL     OW52433   3.534   3.782   7.029
83534SOL    HW152434   3.582   3.745   7.103
83534SOL    HW252435   3.551   3.876   7.036
83535SOL     OW52436   3.615   5.232   9.264
83535SOL    HW152437   3.703   5.194   9.259
83535SOL    HW252438   3.608   5.264   9.354
83536SOL     OW52439  14.322   6.086  12.878
83536SOL    HW152440  14.311   5.993  12.860
83536SOL    HW252441  14.371   6.119  12.802
83537SOL     OW52442   5.191  12.505  11.113
83537SOL    HW152443   5.262  12.568  11.125
83537SOL    HW252444   5.227  12.441  11.051
83538SOL     OW52445  10.470   0.056   5.043
83538SOL    HW152446  10.466  14.856   4.994
83538SOL    HW252447  10.443   0.123   4.980
83539SOL     OW52448  12.253   1.880   3.941
83539SOL    HW152449  12.313   1.810   3.968
83539SOL    HW252450  12.221   1.853   3.856
83540SOL     OW52451   3.478   5.370  14.860
83540SOL    HW152452   3.472   5.385   0.073
83540SOL    HW252453   3.534   5.293  14.851
83541SOL     OW52454   0.206   7.476  11.099
83541SOL    HW152455   0.132   7.444  11.047
83541SOL    HW252456   0.201   7.428  11.181
83542SOL     OW52457   6.319   0.710   6.337
83542SOL    HW152458   6.338   0.632   6.285
83542SOL    HW252459   6.225   0.706   6.354
83543SOL     OW52460   4.517   8.451  10.608
83543SOL    HW152461   4.493   8.510  10.537
83543SOL    HW252462   4.496   8.500  10.688
83544SOL     OW52463   0.851  13.088   5.801
83544SOL    HW152464   0.780  13.153   5.803
83544SOL    HW252465   0.810  13.007   5.772
83545SOL     OW52466   6.913   8.124   7.829
83545SOL    HW152467   6.936   8.114   7.737
83545SOL    HW252468   6.949   8.209   7.854
83546SOL     OW52469   5.440   0.705   3.939
83546SOL    HW152470   5.523   0.735   3.902
83546SOL    HW252471   5.456   0.701   4.033
83547SOL     OW52472   3.404   8.366   5.708
83547SOL    HW152473   3.415   8.435   5.643
83547SOL    HW252474   3.313   8.338   5.699
83548SOL     OW52475   7.288   7.926   2.848
83548SOL    HW152476   7.230   7.854   2.875
83548SOL    HW252477   7.232   7.982   2.794
83549SOL     OW52478   3.938  13.733   8.731
83549SOL    HW152479   3.909  13.651   8.771
83549SOL    HW252480   3.960  13.789   8.806
83550SOL     OW52481   4.843   7.674   8.519
83550SOL    HW152482   4.768   7.628   8.481
83550SOL    HW252483   4.853   7.752   8.465
83551SOL     OW52484   7.908   0.253   3.509
83551SOL    HW152485   7.886   0.168   3.471
83551SOL    HW252486   7.929   0.235   3.600
83552SOL     OW52487   8.545   1.119   2.225
83552SOL    HW152488   8.479   1.081   2.167
83552SOL    HW252489   8.603   1.047   2.245
83553SOL     OW52490   4.105   0.535   8.008
83553SOL    HW152491   4.050   0.572   8.077
83553SOL    HW252492   4.047   0.531   7.931
83554SOL     OW52493   2.022   3.152   0.805
83554SOL    HW152494   2.022   3.132   0.712
83554SOL    HW252495   2.074   3.232   0.812
83555SOL     OW52496   6.546  10.675  11.043
83555SOL    HW152497   6.589  10.633  11.118
83555SOL    HW252498   6.554  10.769  11.061
83556SOL     OW52499  13.723   3.666   0.432
83556SOL    HW152500  13.810   3.700   0.454
83556SOL    HW252501  13.694   3.621   0.511
83557SOL     OW52502   9.805   7.875  13.650
83557SOL    HW152503   9.855   7.814  13.705
83557SOL    HW252504   9.749   7.921  13.712
83558SOL     OW52505   0.376  11.212   5.539
83558SOL    HW152506   0.310  11.261   5.590
83558SOL    HW252507   0.340  11.211   5.450
83559SOL     OW52508   3.231   4.856   3.881
83559SOL    HW152509   3.206   4.946   3.865
83559SOL    HW252510   3.326   4.856   3.878
83560SOL     OW52511   4.407  12.107   6.569
83560SOL    HW152512   4.502  12.098   6.578
83560SOL    HW252513   4.383  12.048   6.498
83561SOL     OW52514  12.774   4.675  13.028
83561SOL    HW152515  12.828   4.604  12.992
83561SOL    HW252516  12.819   4.755  13.001
83562SOL     OW52517  12.557  14.755   5.698
83562SOL    HW152518  12.513  14.790   5.775
83562SOL    HW252519  12.512  14.796   5.624
83563SOL     OW52520   0.817   4.887   4.691
83563SOL    HW152521   0.738   4.840   4.717
83563SOL    HW252522   0.785   4.963   4.642
83564SOL     OW52523  12.550   6.975   6.450
83564SOL    HW152524  12.484   7.030   6.408
83564SOL    HW252525  12.623   6.974   6.389
83565SOL     OW52526   3.914   7.944   2.961
83565SOL    HW152527   3.827   7.947   2.920
83565SOL    HW252528   3.918   8.026   3.011
83566SOL     OW52529   9.909   9.537   8.729
83566SOL    HW152530   9.906   9.530   8.825
83566SOL    HW252531   9.946   9.453   8.701
83567SOL     OW52532  14.101   5.845   9.451
83567SOL    HW152533  14.159   5.896   9.508
83567SOL    HW252534  14.098   5.894   9.369
83568SOL     OW52535   3.006   4.539   9.491
83568SOL    HW152536   3.003   4.634   9.481
83568SOL    HW252537   2.922   4.516   9.530
83569SOL     OW52538   1.462  13.858   4.559
83569SOL    HW152539   1.492  13.836   4.647
83569SOL    HW252540   1.508  13.939   4.538
83570SOL     OW52541   0.302   7.978   5.339
83570SOL    HW152542   0.288   7.971   5.433
83570SOL    HW252543   0.396   7.988   5.328
83571SOL     OW52544   0.167   2.787   5.612
83571SOL    HW152545   0.137   2.699   5.635
83571SOL    HW252546   0.149   2.794   5.518
83572SOL     OW52547  11.298   4.946   8.986
83572SOL    HW152548  11.237   4.897   8.931
83572SOL    HW252549  11.384   4.908   8.967
83573SOL     OW52550  12.885   3.280  12.940
83573SOL    HW152551  12.924   3.365  12.962
83573SOL    HW252552  12.957   3.231  12.899
83574SOL     OW52553  14.031   8.459   5.277
83574SOL    HW152554  13.942   8.479   5.308
83574SOL    HW252555  14.020   8.382   5.221
83575SOL     OW52556  11.008   6.742   5.328
83575SOL    HW152557  11.098   6.755   5.356
83575SOL    HW252558  10.982   6.658   5.366
83576SOL     OW52559  13.351   5.386   7.126
83576SOL    HW152560  13.282   5.450   7.145
83576SOL    HW252561  13.304   5.313   7.085
83577SOL     OW52562   7.165   4.467  12.953
83577SOL    HW152563   7.258   4.448  12.944
83577SOL    HW252564   7.158   4.523  13.030
83578SOL     OW52565   7.913  10.757   2.896
83578SOL    HW152566   7.834  10.788   2.940
83578SOL    HW252567   7.902  10.785   2.805
83579SOL     OW52568   4.127   7.655  11.792
83579SOL    HW152569   4.033   7.636  11.790
83579SOL    HW252570   4.144   7.701  11.709
83580SOL     OW52571  11.478  10.466   8.242
83580SOL    HW152572  11.574  10.459   8.242
83580SOL    HW252573  11.449  10.387   8.288
83581SOL     OW52574  10.321   9.036   4.453
83581SOL    HW152575  10.306   8.988   4.535
83581SOL    HW252576  10.233   9.053   4.419
83582SOL     OW52577  10.336   3.920   3.495
83582SOL    HW152578  10.429   3.941   3.489
83582SOL    HW252579  10.303   3.973   3.568
83583SOL     OW52580   7.430  12.727   0.725
83583SOL    HW152581   7.478  12.754   0.646
83583SOL    HW252582   7.400  12.638   0.704
83584SOL     OW52583  10.915   9.079   9.920
83584SOL    HW152584  10.880   9.067  10.008
83584SOL    HW252585  11.007   9.054   9.926
83585SOL     OW52586   0.217  11.307   2.001
83585SOL    HW152587   0.242  11.268   2.084
83585SOL    HW252588   0.271  11.385   1.993
83586SOL     OW52589  11.581   7.451   5.278
83586SOL    HW152590  11.670   7.485   5.289
83586SOL    HW252591  11.582   7.365   5.319
83587SOL     OW52592   9.309  11.632   1.393
83587SOL    HW152593   9.345  11.681   1.319
83587SOL    HW252594   9.229  11.592   1.359
83588SOL     OW52595  10.003   6.505  12.723
83588SOL    HW152596  10.071   6.573  12.720
83588SOL    HW252597  10.047   6.426  12.691
83589SOL     OW52598  14.441  13.802   0.803
83589SOL    HW152599  14.531  13.831   0.818
83589SOL    HW252600  14.413  13.849   0.725
83590SOL     OW52601  14.413   7.072   4.621
83590SOL    HW152602  14.407   6.982   4.588
83590SOL    HW252603  14.492   7.072   4.675
83591SOL     OW52604  10.353   9.330   2.727
83591SOL    HW152605  10.274   9.365   2.686
83591SOL    HW252606  10.402   9.291   2.654
83592SOL     OW52607  12.441   6.341  11.455
83592SOL    HW152608  12.364   6.326  11.402
83592SOL    HW252609  12.416   6.414  11.513
83593SOL     OW52610   4.236   5.403   0.327
83593SOL    HW152611   4.329   5.399   0.346
83593SOL    HW252612   4.198   5.329   0.375
83594SOL     OW52613  13.578   1.912   8.208
83594SOL    HW152614  13.497   1.955   8.179
83594SOL    HW252615  13.562   1.890   8.300
83595SOL     OW52616   0.283  13.749   9.926
83595SOL    HW152617   0.265  13.656   9.919
83595SOL    HW252618   0.202  13.786   9.962
83596SOL     OW52619   9.816   4.999   4.244
83596SOL    HW152620   9.893   5.056   4.240
83596SOL    HW252621   9.835   4.938   4.315
83597SOL     OW52622   6.089   4.942  10.636
83597SOL    HW152623   6.062   5.034  10.647
83597SOL    HW252624   6.043   4.914  10.556
83598SOL     OW52625  12.341   7.296   0.539
83598SOL    HW152626  12.387   7.298   0.623
83598SOL    HW252627  12.268   7.357   0.551
83599SOL     OW52628   2.222  10.505   9.770
83599SOL    HW152629   2.168  10.474   9.697
83599SOL    HW252630   2.298  10.544   9.727
83600SOL     OW52631   5.949   3.364   2.640
83600SOL    HW152632   6.024   3.371   2.582
83600SOL    HW252633   5.896   3.293   2.603
83601SOL     OW52634  13.881  14.393   3.029
83601SOL    HW152635  13.810  14.457   3.023
83601SOL    HW252636  13.902  14.370   2.939
83602SOL     OW52637   8.532  13.829   3.834
83602SOL    HW152638   8.575  13.891   3.775
83602SOL    HW252639   8.602  13.792   3.887
83603SOL     OW52640  14.860   1.235   9.449
83603SOL    HW152641  14.786   1.188   9.411
83603SOL    HW252642  14.828   1.324   9.464
83604SOL     OW52643  11.615   9.115   9.039
83604SOL    HW152644  11.567   9.115   9.121
83604SOL    HW252645  11.549   9.136   8.972
83605SOL     OW52646  13.230   6.692  13.893
83605SOL    HW152647  13.200   6.617  13.944
83605SOL    HW252648  13.266   6.753  13.958
83606SOL     OW52649  13.520   1.954  14.211
83606SOL    HW152650  13.455   1.981  14.146
83606SOL    HW252651  13.574   2.031  14.225
83607SOL     OW52652   1.416  10.730   5.004
83607SOL    HW152653   1.492  10.735   4.946
83607SOL    HW252654   1.366  10.655   4.970
83608SOL     OW52655   5.706   6.688  12.686
83608SOL    HW152656   5.680   6.732  12.767
83608SOL    HW252657   5.790   6.728  12.663
83609SOL     OW52658   3.114   7.985   9.423
83609SOL    HW152659   3.060   8.007   9.499
83609SOL    HW252660   3.189   7.940   9.459
83610SOL     OW52661   2.239   6.552   2.827
83610SOL    HW152662   2.261   6.620   2.763
83610SOL    HW252663   2.231   6.472   2.774
83611SOL     OW52664   7.959   0.675  12.475
83611SOL    HW152665   7.882   0.654  12.423
83611SOL    HW252666   7.989   0.590  12.509
83612SOL     OW52667  10.297   6.684  10.221
83612SOL    HW152668  10.361   6.622  10.186
83612SOL    HW252669  10.213   6.639  10.214
83613SOL     OW52670   5.572   6.618   0.090
83613SOL    HW152671   5.649   6.561   0.086
83613SOL    HW252672   5.603   6.698   0.131
83614SOL     OW52673  12.740  14.156  11.434
83614SOL    HW152674  12.696  14.078  11.467
83614SOL    HW252675  12.669  14.215  11.410
83615SOL     OW52676   7.495   7.797   9.229
83615SOL    HW152677   7.559   7.805   9.300
83615SOL    HW252678   7.426   7.742   9.266
83616SOL     OW52679  13.815   7.993   5.338
83616SOL    HW152680  13.860   8.042   5.406
83616SOL    HW252681  13.862   7.909   5.333
83617SOL     OW52682   4.242   6.727   5.702
83617SOL    HW152683   4.329   6.689   5.715
83617SOL    HW252684   4.192   6.659   5.658
83618SOL     OW52685  12.835   0.561  10.728
83618SOL    HW152686  12.866   0.476  10.757
83618SOL    HW252687  12.840   0.558  10.633
83619SOL     OW52688   9.120   1.914   9.844
83619SOL    HW152689   9.057   1.983   9.864
83619SOL    HW252690   9.198   1.937   9.895
83620SOL     OW52691  13.548   0.419  13.066
83620SOL    HW152692  13.466   0.382  13.033
83620SOL    HW252693  13.590   0.457  12.990
83621SOL     OW52694   3.902   3.533   1.213
83621SOL    HW152695   3.925   3.586   1.289
83621SOL    HW252696   3.846   3.464   1.249
83622SOL     OW52697   4.568   1.394   8.882
83622SOL    HW152698   4.520   1.458   8.935
83622SOL    HW252699   4.652   1.437   8.864
83623SOL     OW52700  12.297  13.151  14.209
83623SOL    HW152701  12.367  13.091  14.234
83623SOL    HW252702  12.238  13.151  14.283
83624SOL     OW52703   5.417   9.039   1.468
83624SOL    HW152704   5.366   8.995   1.400
83624SOL    HW252705   5.444   9.122   1.428
83625SOL     OW52706  14.718   5.767  10.094
83625SOL    HW152707  14.799   5.715  10.095
83625SOL    HW252708  14.748   5.857  10.102
83626SOL     OW52709   3.156  11.940  14.804
83626SOL    HW152710   3.103  11.949  14.725
83626SOL    HW252711   3.153  11.847  14.825
83627SOL     OW52712  10.571  14.072   6.577
83627SOL    HW152713  10.647  14.081   6.634
83627SOL    HW252714  10.585  13.989   6.531
83628SOL     OW52715  11.465  10.403   9.077
83628SOL    HW152716  11.539  10.461   9.061
83628SOL    HW252717  11.389  10.460   9.077
83629SOL     OW52718  10.159  10.436   4.984
83629SOL    HW152719  10.102  10.513   4.982
83629SOL    HW252720  10.246  10.471   4.999
83630SOL     OW52721   3.611  12.418   8.773
83630SOL    HW152722   3.531  12.465   8.797
83630SOL    HW252723   3.679  12.459   8.826
83631SOL     OW52724   1.520   1.774   7.573
83631SOL    HW152725   1.470   1.800   7.651
83631SOL    HW252726   1.455   1.741   7.512
83632SOL     OW52727   0.052   8.363  10.264
83632SOL    HW152728   0.072   8.393  10.176
83632SOL    HW252729   0.034   8.269  10.255
83633SOL     OW52730  12.272  12.570   8.302
83633SOL    HW152731  12.335  12.633   8.266
83633SOL    HW252732  12.190  12.588   8.255
83634SOL     OW52733   0.079   5.981   0.595
83634SOL    HW152734   0.103   6.019   0.679
83634SOL    HW252735   0.106   5.889   0.602
83635SOL     OW52736  14.074  14.706   6.943
83635SOL    HW152737  14.026  14.647   7.002
83635SOL    HW252738  14.153  14.729   6.992
83636SOL     OW52739   3.490   8.635   6.458
83636SOL    HW152740   3.577   8.595   6.463
83636SOL    HW252741   3.504   8.715   6.408
83637SOL     OW52742   1.494  10.352   6.639
83637SOL    HW152743   1.519  10.383   6.551
83637SOL    HW252744   1.399  10.343   6.635
83638SOL     OW52745  10.609   9.110   8.605
83638SOL    HW152746  10.574   9.033   8.650
83638SOL    HW252747  10.689   9.132   8.652
83639SOL     OW52748   6.415  12.170   3.643
83639SOL    HW152749   6.447  12.260   3.649
83639SOL    HW252750   6.365  12.166   3.562
83640SOL     OW52751   2.340   5.667   1.166
83640SOL    HW152752   2.286   5.686   1.089
83640SOL    HW252753   2.330   5.743   1.222
83641SOL     OW52754   6.950   2.171   4.009
83641SOL    HW152755   7.034   2.162   4.053
83641SOL    HW252756   6.894   2.214   4.072
83642SOL     OW52757   3.062   8.833   4.279
83642SOL    HW152758   3.120   8.853   4.205
83642SOL    HW252759   3.057   8.737   4.279
83643SOL     OW52760  11.914   3.101   7.993
83643SOL    HW152761  11.972   3.171   8.022
83643SOL    HW252762  11.943   3.024   8.041
83644SOL     OW52763   5.456   2.782   6.261
83644SOL    HW152764   5.541   2.784   6.305
83644SOL    HW252765   5.465   2.843   6.188
83645SOL     OW52766   3.765  11.975   4.986
83645SOL    HW152767   3.788  12.067   4.982
83645SOL    HW252768   3.756  11.948   4.894
83646SOL     OW52769   1.976   7.323   8.685
83646SOL    HW152770   2.039   7.275   8.631
83646SOL    HW252771   2.017   7.327   8.772
83647SOL     OW52772   9.605  12.516  12.605
83647SOL    HW152773   9.530  12.483  12.556
83647SOL    HW252774   9.670  12.446  12.599
83648SOL     OW52775  13.926   5.155  11.233
83648SOL    HW152776  13.882   5.231  11.195
83648SOL    HW252777  13.992   5.130  11.169
83649SOL     OW52778   0.685  10.640   8.977
83649SOL    HW152779   0.678  10.570   9.042
83649SOL    HW252780   0.677  10.721   9.029
83650SOL     OW52781  11.582   3.474  10.436
83650SOL    HW152782  11.576   3.505  10.346
83650SOL    HW252783  11.496   3.438  10.456
83651SOL     OW52784  12.969   8.471   8.588
83651SOL    HW152785  12.894   8.512   8.546
83651SOL    HW252786  13.043   8.490   8.529
83652SOL     OW52787   3.650   6.815   0.339
83652SOL    HW152788   3.577   6.849   0.391
83652SOL    HW252789   3.656   6.873   0.264
83653SOL     OW52790   9.824   6.894   4.183
83653SOL    HW152791   9.896   6.887   4.246
83653SOL    HW252792   9.746   6.903   4.238
83654SOL     OW52793   3.779   1.726   2.962
83654SOL    HW152794   3.753   1.661   2.897
83654SOL    HW252795   3.741   1.694   3.044
83655SOL     OW52796  14.643   2.222   3.752
83655SOL    HW152797  14.662   2.194   3.662
83655SOL    HW252798  14.728   2.249   3.786
83656SOL     OW52799  10.684   0.928   4.069
83656SOL    HW152800  10.618   0.966   4.127
83656SOL    HW252801  10.766   0.935   4.118
83657SOL     OW52802   5.287  14.232  14.465
83657SOL    HW152803   5.306  14.233  14.559
83657SOL    HW252804   5.192  14.241  14.460
83658SOL     OW52805  14.663   4.620   3.835
83658SOL    HW152806  14.676   4.682   3.907
83658SOL    HW252807  14.694   4.537   3.870
83659SOL     OW52808   2.137   2.376   9.888
83659SOL    HW152809   2.053   2.394   9.845
83659SOL    HW252810   2.115   2.364   9.980
83660SOL     OW52811   5.405   6.517  12.246
83660SOL    HW152812   5.456   6.470  12.312
83660SOL    HW252813   5.331   6.459  12.227
83661SOL     OW52814   5.567   3.623   8.661
83661SOL    HW152815   5.539   3.552   8.603
83661SOL    HW252816   5.557   3.702   8.608
83662SOL     OW52817  12.878   0.140  10.146
83662SOL    HW152818  12.970   0.159  10.163
83662SOL    HW252819  12.838   0.141  10.233
83663SOL     OW52820  13.427   5.325  12.917
83663SOL    HW152821  13.430   5.230  12.918
83663SOL    HW252822  13.398   5.347  12.828
83664SOL     OW52823  12.835   6.588  11.611
83664SOL    HW152824  12.772   6.565  11.543
83664SOL    HW252825  12.846   6.683  11.603
83665SOL     OW52826  13.689   0.537  12.831
83665SOL    HW152827  13.723   0.622  12.858
83665SOL    HW252828  13.644   0.555  12.748
83666SOL     OW52829   4.961   1.090   8.716
83666SOL    HW152830   4.948   1.146   8.640
83666SOL    HW252831   4.972   1.002   8.680
83667SOL     OW52832  10.057   2.194  12.138
83667SOL    HW152833  10.099   2.266  12.090
83667SOL    HW252834   9.964   2.216  12.136
83668SOL     OW52835  14.633   8.270   4.115
83668SOL    HW152836  14.680   8.345   4.077
83668SOL    HW252837  14.631   8.205   4.044
83669SOL     OW52838   3.339  10.803  10.992
83669SOL    HW152839   3.321  10.712  10.972
83669SOL    HW252840   3.264  10.831  11.046
83670SOL     OW52841  12.128  11.261  12.086
83670SOL    HW152842  12.079  11.216  12.155
83670SOL    HW252843  12.062  11.310  12.037
83671SOL     OW52844   6.708   1.760  12.579
83671SOL    HW152845   6.673   1.690  12.635
83671SOL    HW252846   6.728   1.831  12.639
83672SOL     OW52847   6.078   3.077   0.558
83672SOL    HW152848   5.983   3.086   0.565
83672SOL    HW252849   6.111   3.108   0.643
83673SOL     OW52850   2.847   5.260   3.237
83673SOL    HW152851   2.929   5.253   3.188
83673SOL    HW252852   2.873   5.293   3.323
83674SOL     OW52853   8.545   9.221   4.727
83674SOL    HW152854   8.454   9.206   4.752
83674SOL    HW252855   8.565   9.309   4.759
83675SOL     OW52856   9.437   7.001   9.190
83675SOL    HW152857   9.490   6.953   9.126
83675SOL    HW252858   9.373   7.049   9.136
83676SOL     OW52859   2.977   6.289  11.896
83676SOL    HW152860   3.070   6.299  11.918
83676SOL    HW252861   2.932   6.348  11.957
83677SOL     OW52862   5.918  11.060  12.717
83677SOL    HW152863   5.853  10.996  12.688
83677SOL    HW252864   5.871  11.144  12.714
83678SOL     OW52865   9.818   9.208   8.543
83678SOL    HW152866   9.788   9.255   8.465
83678SOL    HW252867   9.812   9.116   8.519
83679SOL     OW52868   0.678   4.691  11.955
83679SOL    HW152869   0.600   4.636  11.962
83679SOL    HW252870   0.746   4.634  11.919
83680SOL     OW52871   9.489  12.383   1.906
83680SOL    HW152872   9.554  12.444   1.871
83680SOL    HW252873   9.408  12.434   1.908
83681SOL     OW52874   7.753   0.536  10.401
83681SOL    HW152875   7.658   0.542  10.394
83681SOL    HW252876   7.772   0.562  10.491
83682SOL     OW52877   1.834   7.844   0.860
83682SOL    HW152878   1.855   7.898   0.784
83682SOL    HW252879   1.738   7.844   0.863
83683SOL     OW52880   3.670   3.228   5.031
83683SOL    HW152881   3.606   3.156   5.031
83683SOL    HW252882   3.693   3.240   5.123
83684SOL     OW52883  12.982   6.535   6.052
83684SOL    HW152884  12.971   6.605   5.987
83684SOL    HW252885  13.019   6.462   6.002
83685SOL     OW52886  14.874   3.017   3.199
83685SOL    HW152887  14.811   3.054   3.137
83685SOL    HW252888  14.840   3.041   3.285
83686SOL     OW52889   8.791   4.970   1.981
83686SOL    HW152890   8.746   5.043   1.938
83686SOL    HW252891   8.769   4.980   2.074
83687SOL     OW52892   9.492   9.252   3.401
83687SOL    HW152893   9.447   9.249   3.486
83687SOL    HW252894   9.557   9.182   3.407
83688SOL     OW52895  14.567  11.739  13.205
83688SOL    HW152896  14.529  11.651  13.201
83688SOL    HW252897  14.648  11.732  13.156
83689SOL     OW52898   8.486   7.470   4.223
83689SOL    HW152899   8.560   7.414   4.244
83689SOL    HW252900   8.413   7.435   4.273
83690SOL     OW52901   0.271   1.121   3.941
83690SOL    HW152902   0.255   1.151   4.030
83690SOL    HW252903   0.346   1.174   3.911
83691SOL     OW52904   7.335   7.395   0.653
83691SOL    HW152905   7.412   7.377   0.706
83691SOL    HW252906   7.300   7.477   0.688
83692SOL     OW52907   6.076   3.697   4.712
83692SOL    HW152908   6.038   3.716   4.626
83692SOL    HW252909   6.129   3.774   4.733
83693SOL     OW52910  13.133   4.848  10.494
83693SOL    HW152911  13.161   4.760  10.470
83693SOL    HW252912  13.065   4.835  10.559
83694SOL     OW52913   5.913   5.695   0.722
83694SOL    HW152914   5.953   5.672   0.638
83694SOL    HW252915   5.836   5.745   0.699
83695SOL     OW52916   2.343  13.017   9.438
83695SOL    HW152917   2.307  12.945   9.385
83695SOL    HW252918   2.268  13.073   9.456
83696SOL     OW52919  12.538  13.549   2.316
83696SOL    HW152920  12.490  13.466   2.307
83696SOL    HW252921  12.597  13.551   2.241
83697SOL     OW52922   7.345  11.017   3.431
83697SOL    HW152923   7.362  11.086   3.367
83697SOL    HW252924   7.346  10.936   3.380
83698SOL     OW52925   7.780  12.300   4.864
83698SOL    HW152926   7.749  12.376   4.815
83698SOL    HW252927   7.871  12.319   4.883
83699SOL     OW52928   3.979  11.189   2.759
83699SOL    HW152929   3.896  11.172   2.803
83699SOL    HW252930   4.017  11.263   2.805
83700SOL     OW52931   4.042  13.060   7.119
83700SOL    HW152932   4.128  13.071   7.078
83700SOL    HW252933   3.980  13.082   7.050
83701SOL     OW52934  13.935   1.396   2.435
83701SOL    HW152935  13.939   1.356   2.522
83701SOL    HW252936  13.916   1.323   2.376
83702SOL     OW52937   7.528   5.734   3.692
83702SOL    HW152938   7.436   5.725   3.717
83702SOL    HW252939   7.575   5.744   3.775
83703SOL     OW52940   2.719   2.968  14.493
83703SOL    HW152941   2.767   2.890  14.464
83703SOL    HW252942   2.681   3.004  14.413
83704SOL     OW52943   6.843  12.335   7.505
83704SOL    HW152944   6.767  12.283   7.477
83704SOL    HW252945   6.807  12.422   7.520
83705SOL     OW52946   1.582   3.432   6.304
83705SOL    HW152947   1.671   3.397   6.301
83705SOL    HW252948   1.582   3.490   6.380
83706SOL     OW52949   4.415   8.748   5.909
83706SOL    HW152950   4.356   8.673   5.917
83706SOL    HW252951   4.503   8.710   5.907
83707SOL     OW52952   3.870  11.107   3.803
83707SOL    HW152953   3.817  11.130   3.727
83707SOL    HW252954   3.858  11.180   3.864
83708SOL     OW52955  11.440   6.664   8.634
83708SOL    HW152956  11.374   6.729   8.657
83708SOL    HW252957  11.440   6.602   8.707
83709SOL     OW52958  13.322  11.753   9.333
83709SOL    HW152959  13.399  11.779   9.282
83709SOL    HW252960  13.247  11.774   9.277
83710SOL     OW52961  10.753   6.527   8.722
83710SOL    HW152962  10.847   6.536   8.714
83710SOL    HW252963  10.721   6.616   8.738
83711SOL     OW52964   4.295   9.379   0.663
83711SOL    HW152965   4.385   9.413   0.666
83711SOL    HW252966   4.241   9.457   0.649
83712SOL     OW52967  11.004   5.537   9.455
83712SOL    HW152968  10.991   5.516   9.363
83712SOL    HW252969  10.917   5.561   9.488
83713SOL     OW52970   9.808   2.485  13.883
83713SOL    HW152971   9.896   2.477  13.846
83713SOL    HW252972   9.750   2.487  13.806
83714SOL     OW52973  12.017   7.006  12.597
83714SOL    HW152974  11.931   6.964  12.600
83714SOL    HW252975  12.007   7.077  12.534
83715SOL     OW52976   2.075  11.065  13.698
83715SOL    HW152977   1.980  11.065  13.701
83715SOL    HW252978   2.100  10.973  13.707
83716SOL     OW52979  12.554   2.553  13.161
83716SOL    HW152980  12.561   2.502  13.080
83716SOL    HW252981  12.613   2.627  13.148
83717SOL     OW52982   5.298   3.005   2.400
83717SOL    HW152983   5.385   3.012   2.440
83717SOL    HW252984   5.305   2.932   2.338
83718SOL     OW52985   0.369   4.399  11.111
83718SOL    HW152986   0.414   4.335  11.056
83718SOL    HW252987   0.315   4.449  11.050
83719SOL     OW52988  12.015  13.928   1.827
83719SOL    HW152989  11.971  14.013   1.820
83719SOL    HW252990  11.997  13.885   1.743
83720SOL     OW52991   1.434  10.799  13.164
83720SOL    HW152992   1.388  10.866  13.215
83720SOL    HW252993   1.432  10.721  13.220
83721SOL     OW52994   4.238   4.199  14.190
83721SOL    HW152995   4.170   4.234  14.133
83721SOL    HW252996   4.320   4.212  14.142
83722SOL     OW52997   6.914   2.833   7.220
83722SOL    HW152998   6.888   2.823   7.129
83722SOL    HW252999   6.948   2.747   7.245
83723SOL     OW53000   2.380   0.786   8.192
83723SOL    HW153001   2.303   0.818   8.238
83723SOL    HW253002   2.453   0.809   8.250
83724SOL     OW53003  12.366  12.399   6.529
83724SOL    HW153004  12.450  12.403   6.576
83724SOL    HW253005  12.370  12.473   6.468
83725SOL     OW53006  12.633   7.626  12.526
83725SOL    HW153007  12.538   7.637  12.533
83725SOL    HW253008  12.667   7.673  12.602
83726SOL     OW53009   9.428   1.895  11.591
83726SOL    HW153010   9.433   1.818  11.534
83726SOL    HW253011   9.445   1.861  11.679
83727SOL     OW53012   7.958   9.009   7.492
83727SOL    HW153013   7.901   9.076   7.454
83727SOL    HW253014   7.960   8.939   7.428
83728SOL     OW53015   9.449   9.484   7.604
83728SOL    HW153016   9.413   9.438   7.680
83728SOL    HW253017   9.383   9.549   7.582
83729SOL     OW53018   2.353   7.021   2.184
83729SOL    HW153019   2.355   7.107   2.143
83729SOL    HW253020   2.335   6.960   2.112
83730SOL     OW53021   9.728   7.530   4.111
83730SOL    HW153022   9.670   7.564   4.179
83730SOL    HW253023   9.696   7.441   4.094
83731SOL     OW53024   5.997   0.071   9.004
83731SOL    HW153025   6.047  14.871   9.011
83731SOL    HW253026   5.922   0.047   8.950
83732SOL     OW53027   3.179   0.014   3.744
83732SOL    HW153028   3.205  14.804   3.749
83732SOL    HW253029   3.093   0.017   3.785
83733SOL     OW53030   2.854  10.561   1.224
83733SOL    HW153031   2.761  10.572   1.243
83733SOL    HW253032   2.856  10.502   1.149
83734SOL     OW53033   9.829  12.285  11.834
83734SOL    HW153034   9.748  12.237  11.850
83734SOL    HW253035   9.815  12.330  11.751
83735SOL     OW53036   2.307   8.078   1.756
83735SOL    HW153037   2.289   8.001   1.702
83735SOL    HW253038   2.221   8.104   1.790
83736SOL     OW53039   6.257  12.397   2.997
83736SOL    HW153040   6.310  12.403   3.076
83736SOL    HW253041   6.190  12.332   3.017
83737SOL     OW53042   2.986   2.716   0.300
83737SOL    HW153043   3.061   2.763   0.263
83737SOL    HW253044   2.962   2.767   0.377
83738SOL     OW53045   7.260  12.535  11.185
83738SOL    HW153046   7.293  12.527  11.274
83738SOL    HW253047   7.175  12.576  11.194
83739SOL     OW53048   2.105   2.223  10.410
83739SOL    HW153049   2.116   2.130  10.389
83739SOL    HW253050   2.022   2.228  10.457
83740SOL     OW53051   0.156   2.995   8.929
83740SOL    HW153052   0.090   3.064   8.916
83740SOL    HW253053   0.107   2.921   8.964
83741SOL     OW53054   5.584   1.934   1.732
83741SOL    HW153055   5.523   2.007   1.741
83741SOL    HW253056   5.533   1.864   1.692
83742SOL     OW53057   9.646   0.266  11.780
83742SOL    HW153058   9.626   0.354  11.812
83742SOL    HW253059   9.667   0.279  11.687
83743SOL     OW53060   4.322  12.481  11.565
83743SOL    HW153061   4.397  12.528  11.601
83743SOL    HW253062   4.360  12.421  11.500
83744SOL     OW53063  11.950   1.143   2.635
83744SOL    HW153064  11.958   1.082   2.561
83744SOL    HW253065  11.856   1.162   2.640
83745SOL     OW53066   2.890  10.922   7.633
83745SOL    HW153067   2.809  10.959   7.668
83745SOL    HW253068   2.928  10.875   7.707
83746SOL     OW53069   0.592   6.316   1.504
83746SOL    HW153070   0.669   6.364   1.473
83746SOL    HW253071   0.545   6.292   1.425
83747SOL     OW53072   4.529   4.534   1.378
83747SOL    HW153073   4.618   4.565   1.369
83747SOL    HW253074   4.481   4.608   1.415
83748SOL     OW53075  14.684   1.445   1.803
83748SOL    HW153076  14.613   1.510   1.810
83748SOL    HW253077  14.703   1.440   1.710
83749SOL     OW53078   4.294   1.809   3.717
83749SOL    HW153079   4.275   1.789   3.809
83749SOL    HW253080   4.210   1.835   3.680
83750SOL     OW53081   3.792  13.737  12.089
83750SOL    HW153082   3.820  13.650  12.060
83750SOL    HW253083   3.697  13.736  12.080
83751SOL     OW53084  14.735   2.783   5.415
83751SOL    HW153085  14.696   2.711   5.365
83751SOL    HW253086  14.827   2.784   5.387
83752SOL     OW53087   5.528   1.821  11.654
83752SOL    HW153088   5.608   1.874  11.659
83752SOL    HW253089   5.540   1.754  11.721
83753SOL     OW53090   6.343  11.558  13.643
83753SOL    HW153091   6.297  11.614  13.706
83753SOL    HW253092   6.277  11.539  13.576
83754SOL     OW53093  10.873   9.292  12.913
83754SOL    HW153094  10.891   9.272  12.821
83754SOL    HW253095  10.798   9.352  12.910
83755SOL     OW53096   9.370   4.099  10.947
83755SOL    HW153097   9.395   4.175  11.000
83755SOL    HW253098   9.452   4.052  10.932
83756SOL     OW53099   6.722   7.360  11.899
83756SOL    HW153100   6.754   7.380  11.811
83756SOL    HW253101   6.755   7.272  11.917
83757SOL     OW53102   5.585   8.522   7.302
83757SOL    HW153103   5.614   8.546   7.214
83757SOL    HW253104   5.602   8.428   7.308
83758SOL     OW53105   8.135   5.396   4.480
83758SOL    HW153106   8.226   5.374   4.458
83758SOL    HW253107   8.142   5.461   4.550
83759SOL     OW53108   6.151   2.005   9.465
83759SOL    HW153109   6.240   1.987   9.495
83759SOL    HW253110   6.157   2.088   9.418
83760SOL     OW53111   2.092  13.412   6.128
83760SOL    HW153112   2.159  13.396   6.195
83760SOL    HW253113   2.141  13.432   6.049
83761SOL     OW53114   7.677  11.892   7.491
83761SOL    HW153115   7.699  11.902   7.583
83761SOL    HW253116   7.674  11.982   7.457
83762SOL     OW53117  10.507  12.178  11.114
83762SOL    HW153118  10.524  12.157  11.022
83762SOL    HW253119  10.428  12.129  11.136
83763SOL     OW53120   4.467   1.465   2.291
83763SOL    HW153121   4.388   1.441   2.242
83763SOL    HW253122   4.483   1.556   2.266
83764SOL     OW53123   7.131   6.292   0.312
83764SOL    HW153124   7.065   6.266   0.248
83764SOL    HW253125   7.210   6.247   0.286
83765SOL     OW53126   0.858   7.898   8.967
83765SOL    HW153127   0.928   7.841   8.999
83765SOL    HW253128   0.903   7.973   8.929
83766SOL     OW53129   8.552   8.550   2.510
83766SOL    HW153130   8.552   8.574   2.602
83766SOL    HW253131   8.645   8.553   2.485
83767SOL     OW53132  10.056   1.300   9.285
83767SOL    HW153133  10.075   1.354   9.208
83767SOL    HW253134  10.040   1.212   9.249
83768SOL     OW53135   8.520   4.855   8.157
83768SOL    HW153136   8.476   4.854   8.071
83768SOL    HW253137   8.530   4.763   8.180
83769SOL     OW53138   2.952  12.597  12.289
83769SOL    HW153139   3.008  12.668  12.258
83769SOL    HW253140   2.876  12.600  12.231
83770SOL     OW53141   9.135  13.083   3.400
83770SOL    HW153142   9.111  13.053   3.312
83770SOL    HW253143   9.225  13.055   3.412
83771SOL     OW53144   5.873   4.964   0.377
83771SOL    HW153145   5.883   4.967   0.282
83771SOL    HW253146   5.878   5.056   0.404
83772SOL     OW53147  14.104  13.393   4.428
83772SOL    HW153148  14.095  13.388   4.524
83772SOL    HW253149  14.015  13.380   4.396
83773SOL     OW53150  10.765   2.703   6.868
83773SOL    HW153151  10.844   2.648   6.875
83773SOL    HW253152  10.799   2.789   6.843
83774SOL     OW53153   3.977   0.586  13.171
83774SOL    HW153154   3.903   0.627  13.214
83774SOL    HW253155   4.012   0.525  13.236
83775SOL     OW53156  12.054   3.506  12.144
83775SOL    HW153157  11.968   3.471  12.121
83775SOL    HW253158  12.079   3.461  12.224
83776SOL     OW53159   6.735  14.634   2.599
83776SOL    HW153160   6.687  14.712   2.573
83776SOL    HW253161   6.711  14.567   2.535
83777SOL     OW53162   6.193   9.625   1.301
83777SOL    HW153163   6.195   9.536   1.265
83777SOL    HW253164   6.133   9.619   1.375
83778SOL     OW53165   9.374  12.017  10.952
83778SOL    HW153166   9.448  12.077  10.942
83778SOL    HW253167   9.321  12.055  11.021
83779SOL     OW53168  14.532   2.056   6.865
83779SOL    HW153169  14.548   2.140   6.908
83779SOL    HW253170  14.606   2.001   6.892
83780SOL     OW53171  12.417   8.679   3.388
83780SOL    HW153172  12.394   8.598   3.433
83780SOL    HW253173  12.446   8.738   3.457
83781SOL     OW53174   9.740  12.388  11.601
83781SOL    HW153175   9.656  12.384  11.556
83781SOL    HW253176   9.803  12.359  11.535
83782SOL     OW53177   9.803   2.353  10.680
83782SOL    HW153178   9.752   2.435  10.679
83782SOL    HW253179   9.804   2.327  10.772
83783SOL     OW53180  11.616   1.258   5.226
83783SOL    HW153181  11.599   1.329   5.165
83783SOL    HW253182  11.580   1.289   5.309
83784SOL     OW53183  11.173   2.095   1.345
83784SOL    HW153184  11.155   2.187   1.364
83784SOL    HW253185  11.095   2.063   1.300
83785SOL     OW53186   3.617   7.544   9.725
83785SOL    HW153187   3.539   7.535   9.780
83785SOL    HW253188   3.591   7.505   9.641
83786SOL     OW53189   6.402   6.323  13.487
83786SOL    HW153190   6.321   6.358  13.449
83786SOL    HW253191   6.375   6.239  13.527
83787SOL     OW53192   9.606   5.860  13.188
83787SOL    HW153193   9.553   5.940  13.192
83787SOL    HW253194   9.696   5.892  13.174
83788SOL     OW53195  14.754   8.921   1.237
83788SOL    HW153196  14.752   9.014   1.260
83788SOL    HW253197  14.847   8.900   1.230
83789SOL     OW53198   4.985  14.231  11.594
83789SOL    HW153199   5.046  14.270  11.656
83789SOL    HW253200   5.015  14.262  11.508
83790SOL     OW53201   8.394   3.707   4.495
83790SOL    HW153202   8.342   3.631   4.518
83790SOL    HW253203   8.448   3.724   4.572
83791SOL     OW53204   9.537  11.713   4.226
83791SOL    HW153205   9.450  11.679   4.247
83791SOL    HW253206   9.541  11.798   4.269
83792SOL     OW53207   3.562   3.397  11.806
83792SOL    HW153208   3.601   3.311  11.816
83792SOL    HW253209   3.539   3.403  11.713
83793SOL     OW53210   2.416   8.723   3.402
83793SOL    HW153211   2.359   8.794   3.430
83793SOL    HW253212   2.497   8.735   3.451
83794SOL     OW53213  14.444  13.486  12.899
83794SOL    HW153214  14.386  13.410  12.898
83794SOL    HW253215  14.455  13.506  12.992
83795SOL     OW53216   9.721   7.984   3.616
83795SOL    HW153217   9.774   8.058   3.586
83795SOL    HW253218   9.630   8.014   3.603
83796SOL     OW53219  13.972  11.279   9.937
83796SOL    HW153220  14.059  11.266   9.975
83796SOL    HW253221  13.984  11.262   9.844
83797SOL     OW53222   3.198   7.394  14.290
83797SOL    HW153223   3.198   7.299  14.276
83797SOL    HW253224   3.291   7.417  14.294
83798SOL     OW53225   6.401   0.672  11.409
83798SOL    HW153226   6.326   0.720  11.375
83798SOL    HW253227   6.467   0.739  11.424
83799SOL     OW53228   8.419   9.137   3.787
83799SOL    HW153229   8.440   9.052   3.827
83799SOL    HW253230   8.461   9.134   3.701
83800SOL     OW53231   0.168  14.485   8.315
83800SOL    HW153232   0.082  14.465   8.352
83800SOL    HW253233   0.216  14.402   8.321
83801SOL     OW53234   8.947   9.146  10.341
83801SOL    HW153235   9.019   9.162  10.402
83801SOL    HW253236   8.874   9.197  10.376
83802SOL     OW53237  10.177   3.132  13.387
83802SOL    HW153238  10.210   3.083  13.312
83802SOL    HW253239  10.253   3.145  13.444
83803SOL     OW53240   1.841   9.141   0.723
83803SOL    HW153241   1.913   9.089   0.687
83803SOL    HW253242   1.825   9.208   0.657
83804SOL     OW53243  11.223   3.544   0.132
83804SOL    HW153244  11.203   3.451   0.121
83804SOL    HW253245  11.188   3.586   0.053
83805SOL     OW53246  11.243   0.885   6.559
83805SOL    HW153247  11.262   0.919   6.647
83805SOL    HW253248  11.147   0.878   6.557
83806SOL     OW53249   7.460   3.523   6.315
83806SOL    HW153250   7.548   3.507   6.349
83806SOL    HW253251   7.412   3.559   6.389
83807SOL     OW53252   1.089   3.771  12.868
83807SOL    HW153253   1.068   3.702  12.932
83807SOL    HW253254   1.182   3.758  12.849
83808SOL     OW53255   6.027  12.663   6.872
83808SOL    HW153256   6.064  12.752   6.872
83808SOL    HW253257   6.090  12.611   6.922
83809SOL     OW53258   2.143   0.284   4.570
83809SOL    HW153259   2.173   0.335   4.645
83809SOL    HW253260   2.193   0.202   4.575
83810SOL     OW53261   6.170   3.200   0.796
83810SOL    HW153262   6.172   3.155   0.881
83810SOL    HW253263   6.137   3.288   0.817
83811SOL     OW53264   7.624   6.662   0.859
83811SOL    HW153265   7.699   6.606   0.878
83811SOL    HW253266   7.588   6.628   0.777
83812SOL     OW53267   5.721  12.716   8.327
83812SOL    HW153268   5.809  12.699   8.363
83812SOL    HW253269   5.685  12.629   8.312
83813SOL     OW53270  12.511   0.142   8.500
83813SOL    HW153271  12.554   0.080   8.559
83813SOL    HW253272  12.421   0.147   8.532
83814SOL     OW53273  14.666   8.089   1.546
83814SOL    HW153274  14.585   8.130   1.574
83814SOL    HW253275  14.641   8.000   1.522
83815SOL     OW53276   8.280   2.893   4.902
83815SOL    HW153277   8.198   2.935   4.926
83815SOL    HW253278   8.346   2.961   4.916
83816SOL     OW53279   3.988   1.140  14.296
83816SOL    HW153280   3.930   1.064  14.300
83816SOL    HW253281   4.037   1.129  14.215
83817SOL     OW53282  12.234   0.751   3.253
83817SOL    HW153283  12.208   0.688   3.186
83817SOL    HW253284  12.163   0.816   3.255
83818SOL     OW53285  10.730   2.789   1.142
83818SOL    HW153286  10.684   2.848   1.202
83818SOL    HW253287  10.750   2.712   1.195
83819SOL     OW53288   1.251   4.813  11.195
83819SOL    HW153289   1.289   4.878  11.253
83819SOL    HW253290   1.184   4.861  11.145
83820SOL     OW53291   7.113   6.525   3.733
83820SOL    HW153292   7.192   6.561   3.774
83820SOL    HW253293   7.145   6.458   3.673
83821SOL     OW53294   7.685  13.506  13.770
83821SOL    HW153295   7.684  13.526  13.864
83821SOL    HW253296   7.723  13.584  13.730
83822SOL     OW53297  11.702  11.106   9.932
83822SOL    HW153298  11.750  11.050   9.871
83822SOL    HW253299  11.730  11.195   9.910
83823SOL     OW53300   0.560   3.924   6.152
83823SOL    HW153301   0.636   3.896   6.101
83823SOL    HW253302   0.591   3.928   6.242
83824SOL     OW53303   6.448  13.862   4.787
83824SOL    HW153304   6.533  13.902   4.806
83824SOL    HW253305   6.405  13.856   4.872
83825SOL     OW53306  14.654  10.645   7.584
83825SOL    HW153307  14.745  10.627   7.559
83825SOL    HW253308  14.660  10.724   7.638
83826SOL     OW53309   6.682   0.858  12.126
83826SOL    HW153310   6.682   0.853  12.221
83826SOL    HW253311   6.660   0.949  12.107
83827SOL     OW53312   2.238   4.641   6.595
83827SOL    HW153313   2.292   4.631   6.516
83827SOL    HW253314   2.294   4.608   6.665
83828SOL     OW53315   8.945  10.475   5.664
83828SOL    HW153316   9.001  10.412   5.709
83828SOL    HW253317   8.979  10.479   5.575
83829SOL     OW53318  14.879  12.793   2.868
83829SOL    HW153319   0.043  12.875   2.851
83829SOL    HW253320  14.874  12.750   2.783
83830SOL     OW53321   7.703   5.763   0.313
83830SOL    HW153322   7.707   5.829   0.244
83830SOL    HW253323   7.728   5.682   0.269
83831SOL     OW53324  11.393   5.803  10.516
83831SOL    HW153325  11.351   5.858  10.450
83831SOL    HW253326  11.359   5.715  10.498
83832SOL     OW53327  11.652   3.312   6.689
83832SOL    HW153328  11.715   3.379   6.715
83832SOL    HW253329  11.666   3.241   6.751
83833SOL     OW53330   6.740   6.511   3.005
83833SOL    HW153331   6.743   6.492   3.099
83833SOL    HW253332   6.754   6.605   2.999
83834SOL     OW53333   3.047  12.221   6.518
83834SOL    HW153334   3.083  12.302   6.482
83834SOL    HW253335   2.993  12.250   6.592
83835SOL     OW53336   4.381   1.347  14.773
83835SOL    HW153337   4.407   1.342  14.864
83835SOL    HW253338   4.327   1.268  14.759
83836SOL     OW53339   6.819  10.517   4.984
83836SOL    HW153340   6.785  10.442   4.936
83836SOL    HW253341   6.790  10.593   4.933
83837SOL     OW53342   6.551   6.682  11.298
83837SOL    HW153343   6.502   6.749  11.347
83837SOL    HW253344   6.484   6.635  11.249
83838SOL     OW53345  12.622   0.124   3.748
83838SOL    HW153346  12.618   0.159   3.837
83838SOL    HW253347  12.598   0.198   3.692
83839SOL     OW53348   1.822   8.747  12.782
83839SOL    HW153349   1.881   8.698  12.725
83839SOL    HW253350   1.762   8.791  12.722
83840SOL     OW53351  13.693   1.937  11.700
83840SOL    HW153352  13.766   1.877  11.713
83840SOL    HW253353  13.729   2.023  11.723
83841SOL     OW53354   5.807   3.720  14.308
83841SOL    HW153355   5.777   3.764  14.228
83841SOL    HW253356   5.748   3.752  14.376
83842SOL     OW53357   9.971   8.359   6.080
83842SOL    HW153358   9.938   8.286   6.028
83842SOL    HW253359  10.044   8.394   6.030
83843SOL     OW53360  11.457   9.482   6.181
83843SOL    HW153361  11.423   9.547   6.243
83843SOL    HW253362  11.490   9.412   6.236
83844SOL     OW53363  12.794   5.795   5.022
83844SOL    HW153364  12.879   5.830   5.048
83844SOL    HW253365  12.793   5.801   4.927
83845SOL     OW53366   3.390  10.766   1.739
83845SOL    HW153367   3.304  10.800   1.765
83845SOL    HW253368   3.428  10.730   1.819
83846SOL     OW53369  10.010   8.564  10.947
83846SOL    HW153370  10.065   8.498  10.907
83846SOL    HW253371   9.961   8.603  10.875
83847SOL     OW53372   6.918   3.045   8.839
83847SOL    HW153373   6.910   3.129   8.884
83847SOL    HW253374   6.882   2.981   8.900
83848SOL     OW53375   8.270   5.975  13.456
83848SOL    HW153376   8.244   5.885  13.438
83848SOL    HW253377   8.333   5.968  13.528
83849SOL     OW53378   1.701   7.206  10.215
83849SOL    HW153379   1.782   7.220  10.167
83849SOL    HW253380   1.632   7.215  10.149
83850SOL     OW53381   7.344   0.666  13.256
83850SOL    HW153382   7.308   0.689  13.171
83850SOL    HW253383   7.415   0.605  13.237
83851SOL     OW53384   8.296   1.941   7.054
83851SOL    HW153385   8.376   1.904   7.018
83851SOL    HW253386   8.297   2.033   7.027
83852SOL     OW53387   0.942  12.146   5.565
83852SOL    HW153388   0.895  12.114   5.488
83852SOL    HW253389   0.966  12.067   5.613
83853SOL     OW53390   1.087  14.824   1.017
83853SOL    HW153391   1.008  14.828   1.071
83853SOL    HW253392   1.066  14.876   0.939
83854SOL     OW53393  11.775   8.953   4.955
83854SOL    HW153394  11.691   8.985   4.986
83854SOL    HW253395  11.823   9.031   4.928
83855SOL     OW53396  12.313  12.707   9.229
83855SOL    HW153397  12.305  12.699   9.324
83855SOL    HW253398  12.332  12.618   9.198
83856SOL     OW53399  13.568  10.440   4.736
83856SOL    HW153400  13.535  10.446   4.646
83856SOL    HW253401  13.594  10.348   4.746
83857SOL     OW53402  10.618   1.228   2.022
83857SOL    HW153403  10.683   1.281   1.975
83857SOL    HW253404  10.544   1.287   2.035
83858SOL     OW53405   1.763   1.534   3.843
83858SOL    HW153406   1.800   1.494   3.764
83858SOL    HW253407   1.794   1.478   3.914
83859SOL     OW53408  11.020   5.359   8.919
83859SOL    HW153409  11.069   5.298   8.863
83859SOL    HW253410  10.946   5.385   8.865
83860SOL     OW53411   4.495  13.153   3.995
83860SOL    HW153412   4.489  13.059   4.015
83860SOL    HW253413   4.562  13.186   4.054
83861SOL     OW53414   2.674   7.929   1.800
83861SOL    HW153415   2.624   7.998   1.756
83861SOL    HW253416   2.756   7.925   1.751
83862SOL     OW53417   0.809  14.531   8.870
83862SOL    HW153418   0.883  14.564   8.819
83862SOL    HW253419   0.741  14.597   8.857
83863SOL     OW53420  11.960   2.234   0.511
83863SOL    HW153421  12.014   2.225   0.589
83863SOL    HW253422  11.967   2.327   0.488
83864SOL     OW53423   6.683  13.455   3.588
83864SOL    HW153424   6.679  13.458   3.684
83864SOL    HW253425   6.650  13.541   3.561
83865SOL     OW53426   7.073   0.487  11.081
83865SOL    HW153427   7.053   0.434  11.157
83865SOL    HW253428   6.995   0.481  11.026
83866SOL     OW53429  12.568   6.676   5.607
83866SOL    HW153430  12.613   6.754   5.639
83866SOL    HW253431  12.569   6.684   5.512
83867SOL     OW53432   1.141   3.397   3.577
83867SOL    HW153433   1.148   3.485   3.542
83867SOL    HW253434   1.046   3.382   3.583
83868SOL     OW53435   2.285   0.958   4.077
83868SOL    HW153436   2.324   0.881   4.037
83868SOL    HW253437   2.302   1.029   4.015
83869SOL     OW53438   0.441  12.274   3.452
83869SOL    HW153439   0.418  12.363   3.425
83869SOL    HW253440   0.367  12.220   3.424
83870SOL     OW53441  11.367   0.149   2.645
83870SOL    HW153442  11.304   0.189   2.585
83870SOL    HW253443  11.427   0.101   2.588
83871SOL     OW53444   4.469  11.519   3.874
83871SOL    HW153445   4.540  11.497   3.934
83871SOL    HW253446   4.428  11.597   3.912
83872SOL     OW53447   6.889   6.794   1.945
83872SOL    HW153448   6.840   6.867   1.982
83872SOL    HW253449   6.888   6.726   2.013
83873SOL     OW53450  11.988  11.827   1.422
83873SOL    HW153451  12.042  11.904   1.402
83873SOL    HW253452  11.978  11.784   1.337
83874SOL     OW53453   8.151  12.587  11.546
83874SOL    HW153454   8.107  12.628  11.620
83874SOL    HW253455   8.236  12.631  11.541
83875SOL     OW53456  10.122   7.662  10.951
83875SOL    HW153457  10.161   7.582  10.987
83875SOL    HW253458  10.138   7.656  10.857
83876SOL     OW53459   8.585   8.729  12.347
83876SOL    HW153460   8.592   8.805  12.289
83876SOL    HW253461   8.491   8.722  12.366
83877SOL     OW53462   4.808   7.513  14.509
83877SOL    HW153463   4.819   7.473  14.595
83877SOL    HW253464   4.870   7.586  14.508
83878SOL     OW53465   1.705  11.759   1.063
83878SOL    HW153466   1.649  11.832   1.088
83878SOL    HW253467   1.697  11.754   0.968
83879SOL     OW53468   5.781   9.504  13.342
83879SOL    HW153469   5.798   9.520  13.435
83879SOL    HW253470   5.686   9.491  13.338
83880SOL     OW53471   8.160   0.830   4.339
83880SOL    HW153472   8.228   0.896   4.355
83880SOL    HW253473   8.161   0.818   4.244
83881SOL     OW53474  12.403  13.459   8.383
83881SOL    HW153475  12.405  13.513   8.462
83881SOL    HW253476  12.438  13.374   8.411
83882SOL     OW53477  13.851  14.190  11.343
83882SOL    HW153478  13.837  14.162  11.434
83882SOL    HW253479  13.877  14.281  11.349
83883SOL     OW53480  10.074  14.788  14.017
83883SOL    HW153481  10.104  14.861  14.071
83883SOL    HW253482  10.101  14.710  14.065
83884SOL     OW53483   9.084   8.305  10.023
83884SOL    HW153484   8.995   8.296  10.057
83884SOL    HW253485   9.072   8.337   9.933
83885SOL     OW53486   7.251   1.641   2.540
83885SOL    HW153487   7.201   1.614   2.617
83885SOL    HW253488   7.317   1.701   2.573
83886SOL     OW53489   9.677   8.145   0.730
83886SOL    HW153490   9.652   8.235   0.706
83886SOL    HW253491   9.735   8.117   0.659
83887SOL     OW53492   8.803   4.071  12.529
83887SOL    HW153493   8.807   4.087  12.623
83887SOL    HW253494   8.895   4.066  12.502
83888SOL     OW53495   1.470   1.162  13.314
83888SOL    HW153496   1.487   1.222  13.241
83888SOL    HW253497   1.490   1.214  13.392
83889SOL     OW53498   8.783  12.872   5.064
83889SOL    HW153499   8.730  12.933   5.013
83889SOL    HW253500   8.805  12.920   5.144
83890SOL     OW53501   2.061  13.164   9.961
83890SOL    HW153502   2.038  13.071   9.967
83890SOL    HW253503   2.150  13.168   9.997
83891SOL     OW53504  14.850  11.763  12.692
83891SOL    HW153505  14.857  11.675  12.729
83891SOL    HW253506   0.014  11.757  12.608
83892SOL     OW53507   8.924  13.960   0.776
83892SOL    HW153508   8.947  14.037   0.829
83892SOL    HW253509   8.959  13.980   0.689
83893SOL     OW53510   7.413   5.560   8.771
83893SOL    HW153511   7.407   5.552   8.676
83893SOL    HW253512   7.485   5.621   8.786
83894SOL     OW53513   3.515   0.742  10.972
83894SOL    HW153514   3.572   0.756  11.047
83894SOL    HW253515   3.496   0.831  10.940
83895SOL     OW53516   6.233  10.383   6.901
83895SOL    HW153517   6.140  10.380   6.879
83895SOL    HW253518   6.278  10.352   6.823
83896SOL     OW53519   4.611   6.258   6.168
83896SOL    HW153520   4.656   6.197   6.109
83896SOL    HW253521   4.558   6.201   6.224
83897SOL     OW53522  11.124   3.273   0.242
83897SOL    HW153523  11.038   3.306   0.267
83897SOL    HW253524  11.183   3.303   0.311
83898SOL     OW53525  11.554  13.293  11.040
83898SOL    HW153526  11.634  13.302  11.092
83898SOL    HW253527  11.582  13.305  10.950
83899SOL     OW53528  11.780   4.449   2.549
83899SOL    HW153529  11.850   4.490   2.601
83899SOL    HW253530  11.809   4.461   2.458
83900SOL     OW53531   3.205   7.099  13.683
83900SOL    HW153532   3.221   7.177  13.737
83900SOL    HW253533   3.283   7.092  13.628
83901SOL     OW53534   9.391  10.607   8.296
83901SOL    HW153535   9.313  10.622   8.243
83901SOL    HW253536   9.391  10.513   8.313
83902SOL     OW53537  12.311   6.530   9.459
83902SOL    HW153538  12.284   6.599   9.399
83902SOL    HW253539  12.379   6.570   9.514
83903SOL     OW53540   6.327  10.522  13.560
83903SOL    HW153541   6.341  10.518  13.465
83903SOL    HW253542   6.413  10.541  13.596
83904SOL     OW53543   0.338  10.160   2.926
83904SOL    HW153544   0.382  10.180   3.008
83904SOL    HW253545   0.320  10.245   2.886
83905SOL     OW53546  11.450   2.825   5.351
83905SOL    HW153547  11.507   2.762   5.393
83905SOL    HW253548  11.401   2.865   5.423
83906SOL     OW53549   2.867   0.972   2.138
83906SOL    HW153550   2.905   0.936   2.217
83906SOL    HW253551   2.772   0.963   2.151
83907SOL     OW53552  12.284  12.858  12.242
83907SOL    HW153553  12.276  12.789  12.307
83907SOL    HW253554  12.259  12.938  12.289
83908SOL     OW53555   2.106  14.450  12.927
83908SOL    HW153556   2.090  14.476  13.018
83908SOL    HW253557   2.020  14.426  12.893
83909SOL     OW53558  12.894   0.163  14.294
83909SOL    HW153559  12.879   0.108  14.217
83909SOL    HW253560  12.957   0.114  14.346
83910SOL     OW53561   4.118  10.453  14.568
83910SOL    HW153562   4.068  10.419  14.494
83910SOL    HW253563   4.053  10.461  14.638
83911SOL     OW53564  12.310   0.480   4.794
83911SOL    HW153565  12.360   0.476   4.876
83911SOL    HW253566  12.350   0.414   4.738
83912SOL     OW53567   5.251   9.360   9.078
83912SOL    HW153568   5.218   9.449   9.089
83912SOL    HW253569   5.335   9.371   9.033
83913SOL     OW53570  11.914   1.549   1.248
83913SOL    HW153571  11.859   1.620   1.215
83913SOL    HW253572  11.990   1.593   1.286
83914SOL     OW53573   0.778  12.750  14.833
83914SOL    HW153574   0.805  12.704   0.030
83914SOL    HW253575   0.710  12.693  14.795
83915SOL     OW53576   3.283   2.556   9.005
83915SOL    HW153577   3.299   2.462   9.000
83915SOL    HW253578   3.224   2.567   9.079
83916SOL     OW53579   8.190  11.322  10.014
83916SOL    HW153580   8.231  11.312   9.928
83916SOL    HW253581   8.235  11.396  10.055
83917SOL     OW53582   1.729   9.042   0.953
83917SOL    HW153583   1.797   9.042   1.020
83917SOL    HW253584   1.773   9.069   0.873
83918SOL     OW53585  10.656   2.545   5.564
83918SOL    HW153586  10.665   2.509   5.476
83918SOL    HW253587  10.599   2.483   5.610
83919SOL     OW53588   1.053  11.892  13.525
83919SOL    HW153589   1.065  11.799  13.545
83919SOL    HW253590   1.107  11.908  13.448
83920SOL     OW53591  11.491   8.113   6.318
83920SOL    HW153592  11.512   8.205   6.335
83920SOL    HW253593  11.457   8.080   6.401
83921SOL     OW53594   0.256   6.974   2.786
83921SOL    HW153595   0.229   6.891   2.747
83921SOL    HW253596   0.311   6.949   2.861
83922SOL     OW53597   1.469  10.235   7.392
83922SOL    HW153598   1.458  10.162   7.332
83922SOL    HW253599   1.549  10.214   7.441
83923SOL     OW53600   3.988   0.225  11.746
83923SOL    HW153601   4.044   0.247  11.820
83923SOL    HW253602   3.983   0.305  11.694
83924SOL     OW53603  13.161   7.800   3.991
83924SOL    HW153604  13.110   7.723   4.016
83924SOL    HW253605  13.228   7.766   3.931
83925SOL     OW53606  12.715   8.934  14.671
83925SOL    HW153607  12.745   8.992  14.601
83925SOL    HW253608  12.792   8.919  14.725
83926SOL     OW53609  14.020   1.128   0.826
83926SOL    HW153610  13.967   1.111   0.904
83926SOL    HW253611  13.991   1.213   0.795
83927SOL     OW53612  11.285  12.847   4.661
83927SOL    HW153613  11.228  12.862   4.737
83927SOL    HW253614  11.344  12.776   4.689
83928SOL     OW53615   3.969  10.806   1.254
83928SOL    HW153616   4.063  10.787   1.252
83928SOL    HW253617   3.956  10.852   1.336
83929SOL     OW53618  11.548   8.741   2.659
83929SOL    HW153619  11.459   8.766   2.686
83929SOL    HW253620  11.602   8.756   2.736
83930SOL     OW53621   2.920   7.563  11.363
83930SOL    HW153622   2.932   7.658  11.367
83930SOL    HW253623   3.001   7.531  11.323
83931SOL     OW53624  12.971  10.041   5.218
83931SOL    HW153625  12.910  10.013   5.286
83931SOL    HW253626  13.018  10.115   5.257
83932SOL     OW53627   4.432   9.791  10.902
83932SOL    HW153628   4.410   9.726  10.970
83932SOL    HW253629   4.522   9.770  10.877
83933SOL     OW53630   3.661  14.332  11.734
83933SOL    HW153631   3.616  14.309  11.816
83933SOL    HW253632   3.694  14.421  11.750
83934SOL     OW53633   5.439   2.663   4.313
83934SOL    HW153634   5.378   2.631   4.380
83934SOL    HW253635   5.456   2.586   4.258
83935SOL     OW53636  11.969   6.025   5.649
83935SOL    HW153637  12.012   6.109   5.664
83935SOL    HW253638  11.897   6.046   5.589
83936SOL     OW53639   1.036   3.737   8.842
83936SOL    HW153640   1.046   3.674   8.770
83936SOL    HW253641   1.010   3.819   8.798
83937SOL     OW53642   1.957   0.004   8.133
83937SOL    HW153643   1.904   0.011   8.212
83937SOL    HW253644   2.012   0.082   8.135
83938SOL     OW53645   3.288  10.079   7.145
83938SOL    HW153646   3.209  10.093   7.092
83938SOL    HW253647   3.270  10.125   7.227
83939SOL     OW53648   9.873   3.176   0.825
83939SOL    HW153649   9.921   3.259   0.834
83939SOL    HW253650   9.844   3.156   0.914
83940SOL     OW53651  13.019  13.148   6.280
83940SOL    HW153652  12.993  13.201   6.356
83940SOL    HW253653  12.969  13.067   6.289
83941SOL     OW53654  13.259   9.171   8.329
83941SOL    HW153655  13.298   9.221   8.258
83941SOL    HW253656  13.223   9.093   8.287
83942SOL     OW53657   6.179   5.539   5.679
83942SOL    HW153658   6.230   5.532   5.599
83942SOL    HW253659   6.088   5.533   5.650
83943SOL     OW53660   3.890  13.574  14.587
83943SOL    HW153661   3.912  13.638  14.655
83943SOL    HW253662   3.819  13.522  14.625
83944SOL     OW53663   6.421  10.161   5.620
83944SOL    HW153664   6.502  10.110   5.612
83944SOL    HW253665   6.420  10.190   5.711
83945SOL     OW53666   0.012  14.271   8.104
83945SOL    HW153667  14.832  14.224   8.049
83945SOL    HW253668   0.020  14.218   8.183
83946SOL     OW53669  14.787   1.979   6.456
83946SOL    HW153670  14.752   1.909   6.511
83946SOL    HW253671  14.852   1.936   6.401
83947SOL     OW53672   2.760   0.602  11.600
83947SOL    HW153673   2.819   0.635  11.668
83947SOL    HW253674   2.797   0.634  11.518
83948SOL     OW53675  13.782   5.677   2.583
83948SOL    HW153676  13.762   5.649   2.494
83948SOL    HW253677  13.708   5.645   2.635
83949SOL     OW53678  14.453   8.772  10.674
83949SOL    HW153679  14.360   8.766  10.649
83949SOL    HW253680  14.456   8.841  10.740
83950SOL     OW53681  14.235   9.832   1.874
83950SOL    HW153682  14.327   9.846   1.896
83950SOL    HW253683  14.209   9.757   1.926
83951SOL     OW53684   1.548   7.673   6.458
83951SOL    HW153685   1.564   7.655   6.366
83951SOL    HW253686   1.517   7.590   6.494
83952SOL     OW53687   4.255   1.753  10.190
83952SOL    HW153688   4.234   1.845  10.204
83952SOL    HW253689   4.254   1.714  10.277
83953SOL     OW53690   0.130   9.628   3.132
83953SOL    HW153691   0.200   9.692   3.144
83953SOL    HW253692   0.175   9.549   3.103
83954SOL     OW53693   3.992  12.944   0.705
83954SOL    HW153694   4.032  12.884   0.642
83954SOL    HW253695   3.904  12.908   0.718
83955SOL     OW53696   7.679   8.749   2.213
83955SOL    HW153697   7.648   8.760   2.124
83955SOL    HW253698   7.713   8.835   2.238
83956SOL     OW53699   6.102   1.275   0.813
83956SOL    HW153700   6.037   1.320   0.758
83956SOL    HW253701   6.149   1.345   0.857
83957SOL     OW53702   4.275  13.949   7.252
83957SOL    HW153703   4.354  13.981   7.209
83957SOL    HW253704   4.243  13.878   7.195
83958SOL     OW53705   0.277  13.210   9.794
83958SOL    HW153706   0.350  13.252   9.840
83958SOL    HW253707   0.312  13.189   9.708
83959SOL     OW53708   8.580  11.811  10.526
83959SOL    HW153709   8.671  11.801  10.496
83959SOL    HW253710   8.533  11.739  10.484
83960SOL     OW53711   1.844   6.944  12.314
83960SOL    HW153712   1.938   6.957  12.308
83960SOL    HW253713   1.807   6.999  12.245
83961SOL     OW53714  13.701   3.919   1.821
83961SOL    HW153715  13.756   3.879   1.888
83961SOL    HW253716  13.688   4.009   1.851
83962SOL     OW53717   0.022   5.618   7.035
83962SOL    HW153718   0.015   5.713   7.034
83962SOL    HW253719   0.114   5.600   7.014
83963SOL     OW53720   9.291  10.637  10.942
83963SOL    HW153721   9.323  10.575  10.876
83963SOL    HW253722   9.367  10.652  10.999
83964SOL     OW53723   4.880  11.269   1.980
83964SOL    HW153724   4.891  11.354   2.021
83964SOL    HW253725   4.968  11.242   1.954
83965SOL     OW53726   6.095   4.229  14.273
83965SOL    HW153727   6.105   4.260  14.363
83965SOL    HW253728   6.015   4.177  14.274
83966SOL     OW53729   3.261  13.488  10.253
83966SOL    HW153730   3.296  13.567  10.294
83966SOL    HW253731   3.241  13.516  10.163
83967SOL     OW53732  14.832  14.426   6.653
83967SOL    HW153733  14.812  14.336   6.625
83967SOL    HW253734  14.748  14.472   6.646
83968SOL     OW53735  12.573   8.801  14.465
83968SOL    HW153736  12.584   8.859  14.540
83968SOL    HW253737  12.629   8.839  14.397
83969SOL     OW53738   2.508   7.459   5.482
83969SOL    HW153739   2.445   7.525   5.511
83969SOL    HW253740   2.489   7.383   5.536
83970SOL     OW53741   9.980  14.495  13.101
83970SOL    HW153742  10.030  14.576  13.110
83970SOL    HW253743   9.899  14.512  13.149
83971SOL     OW53744   7.890   8.563   7.973
83971SOL    HW153745   7.983   8.564   7.950
83971SOL    HW253746   7.857   8.480   7.939
83972SOL     OW53747  13.965  12.595  11.249
83972SOL    HW153748  14.031  12.656  11.281
83972SOL    HW253749  13.902  12.650  11.202
83973SOL     OW53750   1.555   7.056   0.972
83973SOL    HW153751   1.501   7.002   1.030
83973SOL    HW253752   1.560   7.141   1.015
83974SOL     OW53753   4.905   6.832   2.197
83974SOL    HW153754   4.875   6.745   2.171
83974SOL    HW253755   4.842   6.861   2.262
83975SOL     OW53756   9.796   3.062   5.369
83975SOL    HW153757   9.868   3.091   5.424
83975SOL    HW253758   9.788   3.131   5.302
83976SOL     OW53759   4.840  12.865  11.378
83976SOL    HW153760   4.789  12.787  11.358
83976SOL    HW253761   4.897  12.839  11.450
83977SOL     OW53762  11.164  13.826   8.307
83977SOL    HW153763  11.079  13.783   8.305
83977SOL    HW253764  11.145  13.920   8.305
83978SOL     OW53765   0.125   8.602   8.377
83978SOL    HW153766   0.171   8.578   8.297
83978SOL    HW253767   0.077   8.681   8.355
83979SOL     OW53768  10.575   5.115   4.786
83979SOL    HW153769  10.654   5.166   4.806
83979SOL    HW253770  10.520   5.125   4.863
83980SOL     OW53771  10.073   1.185  14.331
83980SOL    HW153772  10.129   1.117  14.369
83980SOL    HW253773  10.108   1.267  14.366
83981SOL     OW53774  12.207  12.990   7.040
83981SOL    HW153775  12.216  12.898   7.014
83981SOL    HW253776  12.226  13.039   6.960
83982SOL     OW53777  14.590   2.952  12.561
83982SOL    HW153778  14.669   2.906  12.589
83982SOL    HW253779  14.520   2.913  12.612
83983SOL     OW53780  10.796   0.635   9.848
83983SOL    HW153781  10.731   0.670   9.787
83983SOL    HW253782  10.766   0.663   9.934
83984SOL     OW53783   0.643  10.704  13.501
83984SOL    HW153784   0.611  10.666  13.419
83984SOL    HW253785   0.584  10.670  13.568
83985SOL     OW53786  12.057   1.193   3.344
83985SOL    HW153787  12.074   1.100   3.330
83985SOL    HW253788  11.972   1.209   3.304
83986SOL     OW53789   1.850   7.958   6.217
83986SOL    HW153790   1.853   7.949   6.122
83986SOL    HW253791   1.756   7.964   6.238
83987SOL     OW53792   6.494  10.932   6.924
83987SOL    HW153793   6.486  10.883   6.842
83987SOL    HW253794   6.586  10.923   6.949
83988SOL     OW53795   8.290   4.601   5.959
83988SOL    HW153796   8.278   4.507   5.972
83988SOL    HW253797   8.262   4.641   6.041
83989SOL     OW53798   0.541   2.240   9.221
83989SOL    HW153799   0.586   2.253   9.304
83989SOL    HW253800   0.450   2.220   9.246
83990SOL     OW53801  14.635  13.270   8.763
83990SOL    HW153802  14.559  13.212   8.754
83990SOL    HW253803  14.611  13.331   8.833
83991SOL     OW53804   5.060   0.241   6.047
83991SOL    HW153805   5.014   0.325   6.047
83991SOL    HW253806   4.992   0.176   6.068
83992SOL     OW53807  12.258  10.631   7.607
83992SOL    HW153808  12.247  10.539   7.581
83992SOL    HW253809  12.212  10.680   7.539
83993SOL     OW53810   2.727   7.149  11.488
83993SOL    HW153811   2.757   7.060  11.503
83993SOL    HW253812   2.632   7.143  11.490
83994SOL     OW53813   8.269   5.463   2.475
83994SOL    HW153814   8.259   5.558   2.480
83994SOL    HW253815   8.241   5.431   2.561
83995SOL     OW53816   9.855   2.822   2.569
83995SOL    HW153817   9.898   2.899   2.532
83995SOL    HW253818   9.786   2.857   2.624
83996SOL     OW53819   5.034   9.670   3.029
83996SOL    HW153820   4.951   9.713   3.050
83996SOL    HW253821   5.101   9.734   3.053
83997SOL     OW53822   5.854   8.265  13.926
83997SOL    HW153823   5.917   8.213  13.976
83997SOL    HW253824   5.826   8.333  13.987
83998SOL     OW53825   3.959  11.783   3.533
83998SOL    HW153826   3.875  11.823   3.511
83998SOL    HW253827   4.019  11.857   3.546
83999SOL     OW53828   1.001  14.446   8.601
83999SOL    HW153829   1.008  14.454   8.506
83999SOL    HW253830   1.034  14.530   8.634
84000SOL     OW53831   8.885   1.452  11.734
84000SOL    HW153832   8.829   1.508  11.787
84000SOL    HW253833   8.963   1.439  11.788
84001SOL     OW53834   3.778   9.531   6.758
84001SOL    HW153835   3.717   9.582   6.811
84001SOL    HW253836   3.765   9.440   6.787
84002SOL     OW53837   2.790   6.597  13.783
84002SOL    HW153838   2.738   6.564  13.856
84002SOL    HW253839   2.818   6.684  13.811
84003SOL     OW53840   7.675  11.545   4.804
84003SOL    HW153841   7.656  11.469   4.859
84003SOL    HW253842   7.766  11.531   4.775
84004SOL     OW53843   3.872   4.564   1.857
84004SOL    HW153844   3.880   4.654   1.827
84004SOL    HW253845   3.906   4.511   1.784
84005SOL     OW53846  13.527   2.120   3.653
84005SOL    HW153847  13.466   2.170   3.599
84005SOL    HW253848  13.580   2.186   3.697
84006SOL     OW53849  14.809  10.850   9.985
84006SOL    HW153850  14.822  10.937  10.024
84006SOL    HW253851   0.011  10.830   9.944
84007SOL     OW53852   6.428   2.541   5.595
84007SOL    HW153853   6.429   2.576   5.506
84007SOL    HW253854   6.515   2.502   5.606
84008SOL     OW53855   0.274   1.778  11.761
84008SOL    HW153856   0.185   1.813  11.760
84008SOL    HW253857   0.271   1.704  11.699
84009SOL     OW53858  14.630   9.229  10.575
84009SOL    HW153859  14.559   9.169  10.551
84009SOL    HW253860  14.650   9.276  10.495
84010SOL     OW53861   5.921   7.275  13.929
84010SOL    HW153862   5.915   7.256  14.022
84010SOL    HW253863   5.858   7.347  13.916
84011SOL     OW53864   7.519   1.864   2.056
84011SOL    HW153865   7.499   1.956   2.041
84011SOL    HW253866   7.543   1.859   2.149
84012SOL     OW53867   6.640  10.712  13.398
84012SOL    HW153868   6.733  10.703  13.377
84012SOL    HW253869   6.595  10.688  13.317
84013SOL     OW53870   1.261  12.599  11.574
84013SOL    HW153871   1.258  12.565  11.663
84013SOL    HW253872   1.215  12.534  11.522
84014SOL     OW53873   0.242   0.063   1.147
84014SOL    HW153874   0.290   0.032   1.069
84014SOL    HW253875   0.308   0.064   1.216
84015SOL     OW53876  14.302  12.596   3.707
84015SOL    HW153877  14.387  12.551   3.715
84015SOL    HW253878  14.254  12.544   3.643
84016SOL     OW53879  14.331  12.083   6.372
84016SOL    HW153880  14.407  12.105   6.426
84016SOL    HW253881  14.361  12.095   6.282
84017SOL     OW53882   3.142   4.766  11.453
84017SOL    HW153883   3.228   4.807  11.436
84017SOL    HW253884   3.097   4.772  11.369
84018SOL     OW53885   1.714   5.736  14.173
84018SOL    HW153886   1.637   5.753  14.227
84018SOL    HW253887   1.766   5.675  14.225
84019SOL     OW53888   2.042  12.598   0.784
84019SOL    HW153889   1.990  12.531   0.828
84019SOL    HW253890   2.072  12.655   0.854
84020SOL     OW53891   1.661   6.055   0.787
84020SOL    HW153892   1.711   6.114   0.730
84020SOL    HW253893   1.719   6.040   0.862
84021SOL     OW53894  13.041  10.706  11.405
84021SOL    HW153895  13.081  10.775  11.351
84021SOL    HW253896  13.102  10.633  11.399
84022SOL     OW53897   6.581  11.752  12.854
84022SOL    HW153898   6.535  11.824  12.812
84022SOL    HW253899   6.590  11.779  12.945
84023SOL     OW53900   0.830   1.074  10.721
84023SOL    HW153901   0.889   1.094  10.649
84023SOL    HW253902   0.885   1.081  10.800
84024SOL     OW53903   6.923   5.947   7.763
84024SOL    HW153904   6.951   6.000   7.838
84024SOL    HW253905   6.982   5.872   7.763
84025SOL     OW53906   9.644  10.445   6.218
84025SOL    HW153907   9.699  10.409   6.149
84025SOL    HW253908   9.658  10.386   6.293
84026SOL     OW53909   9.131   4.100  14.558
84026SOL    HW153910   9.045   4.093  14.516
84026SOL    HW253911   9.112   4.141  14.642
84027SOL     OW53912   5.236   1.207   3.891
84027SOL    HW153913   5.235   1.112   3.887
84027SOL    HW253914   5.158   1.231   3.940
84028SOL     OW53915   9.494   6.399   9.728
84028SOL    HW153916   9.415   6.446   9.701
84028SOL    HW253917   9.563   6.466   9.730
84029SOL     OW53918  11.577  14.507   0.226
84029SOL    HW153919  11.577  14.524   0.320
84029SOL    HW253920  11.552  14.415   0.218
84030SOL     OW53921  14.539   9.891  11.245
84030SOL    HW153922  14.559   9.854  11.159
84030SOL    HW253923  14.447   9.917  11.239
84031SOL     OW53924   1.914   1.569  10.423
84031SOL    HW153925   1.983   1.510  10.394
84031SOL    HW253926   1.841   1.512  10.447
84032SOL     OW53927   2.146   0.302  12.313
84032SOL    HW153928   2.099   0.379  12.281
84032SOL    HW253929   2.123   0.232  12.252
84033SOL     OW53930   6.938   3.686   5.619
84033SOL    HW153931   6.967   3.762   5.569
84033SOL    HW253932   6.874   3.643   5.563
84034SOL     OW53933   8.022   5.659   2.273
84034SOL    HW153934   8.113   5.634   2.262
84034SOL    HW253935   7.993   5.685   2.186
84035SOL     OW53936  13.637   8.850   4.707
84035SOL    HW153937  13.679   8.935   4.720
84035SOL    HW253938  13.671   8.819   4.624
84036SOL     OW53939   2.332   0.361   1.669
84036SOL    HW153940   2.412   0.392   1.628
84036SOL    HW253941   2.353   0.353   1.761
84037SOL     OW53942   2.141  11.825   8.044
84037SOL    HW153943   2.212  11.885   8.070
84037SOL    HW253944   2.064  11.881   8.036
84038SOL     OW53945  13.418   0.747   9.316
84038SOL    HW153946  13.428   0.752   9.411
84038SOL    HW253947  13.324   0.733   9.303
84039SOL     OW53948  13.850   4.119  13.203
84039SOL    HW153949  13.902   4.187  13.160
84039SOL    HW253950  13.830   4.056  13.133
84040SOL     OW53951  13.821   3.938   2.914
84040SOL    HW153952  13.882   3.943   2.840
84040SOL    HW253953  13.873   3.900   2.985
84041SOL     OW53954   2.932   0.513   2.140
84041SOL    HW153955   2.845   0.473   2.138
84041SOL    HW253956   2.993   0.439   2.149
84042SOL     OW53957   8.276   5.893  14.832
84042SOL    HW153958   8.271   5.889  14.736
84042SOL    HW253959   8.287   5.802  14.860
84043SOL     OW53960   4.184   4.836   1.095
84043SOL    HW153961   4.226   4.753   1.118
84043SOL    HW253962   4.116   4.847   1.161
84044SOL     OW53963   1.644   9.450  12.513
84044SOL    HW153964   1.602   9.468  12.429
84044SOL    HW253965   1.732   9.420  12.490
84045SOL     OW53966   5.463  12.605  14.315
84045SOL    HW153967   5.516  12.586  14.393
84045SOL    HW253968   5.377  12.567  14.334
84046SOL     OW53969   6.689  12.943   2.416
84046SOL    HW153970   6.719  13.004   2.483
84046SOL    HW253971   6.593  12.953   2.416
84047SOL     OW53972   4.007   0.411   6.609
84047SOL    HW153973   4.021   0.400   6.703
84047SOL    HW253974   3.964   0.330   6.581
84048SOL     OW53975  10.745   8.647   4.300
84048SOL    HW153976  10.690   8.641   4.378
84048SOL    HW253977  10.683   8.655   4.227
84049SOL     OW53978  14.560   7.063  11.703
84049SOL    HW153979  14.471   7.043  11.674
84049SOL    HW253980  14.580   7.147  11.660
84050SOL     OW53981   1.010  14.514   7.339
84050SOL    HW153982   0.992  14.473   7.424
84050SOL    HW253983   1.033  14.440   7.282
84051SOL     OW53984   1.477   0.701   5.329
84051SOL    HW153985   1.403   0.699   5.268
84051SOL    HW253986   1.479   0.614   5.368
84052SOL     OW53987   1.040   0.738   3.924
84052SOL    HW153988   1.083   0.816   3.888
84052SOL    HW253989   0.947   0.751   3.905
84053SOL     OW53990   6.764  12.712   1.000
84053SOL    HW153991   6.817  12.730   1.078
84053SOL    HW253992   6.701  12.646   1.029
84054SOL     OW53993   3.617   6.310   2.913
84054SOL    HW153994   3.693   6.261   2.944
84054SOL    HW253995   3.610   6.288   2.820
84055SOL     OW53996   7.986  12.386   9.612
84055SOL    HW153997   7.896  12.363   9.632
84055SOL    HW253998   8.035  12.305   9.626
84056SOL     OW53999   9.596   1.204  10.871
84056SOL    HW154000   9.550   1.283  10.900
84056SOL    HW254001   9.574   1.197  10.778
84057SOL     OW54002   4.481   7.391   0.751
84057SOL    HW154003   4.554   7.389   0.690
84057SOL    HW254004   4.505   7.458   0.815
84058SOL     OW54005   5.593   1.596   6.401
84058SOL    HW154006   5.582   1.529   6.334
84058SOL    HW254007   5.684   1.625   6.392
84059SOL     OW54008  12.653  11.949   5.585
84059SOL    HW154009  12.623  12.025   5.534
84059SOL    HW254010  12.697  11.893   5.521
84060SOL     OW54011  13.544  11.840   2.121
84060SOL    HW154012  13.639  11.838   2.116
84060SOL    HW254013  13.515  11.788   2.046
84061SOL     OW54014  13.079  11.116   4.141
84061SOL    HW154015  12.995  11.079   4.166
84061SOL    HW254016  13.068  11.141   4.049
84062SOL     OW54017  12.766   6.184   4.594
84062SOL    HW154018  12.743   6.170   4.686
84062SOL    HW254019  12.758   6.098   4.554
84063SOL     OW54020   0.082   6.728   4.832
84063SOL    HW154021   0.090   6.650   4.777
84063SOL    HW254022  14.881   6.768   4.807
84064SOL     OW54023   0.323   3.018   8.369
84064SOL    HW154024   0.275   2.966   8.305
84064SOL    HW254025   0.416   2.999   8.352
84065SOL     OW54026   2.228  14.697   6.620
84065SOL    HW154027   2.309  14.647   6.617
84065SOL    HW254028   2.170  14.653   6.559
84066SOL     OW54029   3.852   1.130   0.613
84066SOL    HW154030   3.947   1.135   0.629
84066SOL    HW254031   3.836   1.192   0.543
84067SOL     OW54032   3.086  13.493   7.962
84067SOL    HW154033   3.014  13.529   8.013
84067SOL    HW254034   3.080  13.398   7.975
84068SOL     OW54035   2.643  13.726   6.954
84068SOL    HW154036   2.667  13.730   6.861
84068SOL    HW254037   2.708  13.781   6.998
84069SOL     OW54038   3.032  14.055   9.611
84069SOL    HW154039   3.042  14.032   9.519
84069SOL    HW254040   3.121  14.076   9.640
84070SOL     OW54041   8.856   1.914  13.120
84070SOL    HW154042   8.911   1.915  13.041
84070SOL    HW254043   8.889   1.986  13.173
84071SOL     OW54044  14.343   4.112   5.111
84071SOL    HW154045  14.279   4.067   5.056
84071SOL    HW254046  14.379   4.043   5.168
84072SOL     OW54047   8.569   3.210   1.826
84072SOL    HW154048   8.581   3.236   1.917
84072SOL    HW254049   8.609   3.123   1.821
84073SOL     OW54050   0.537   9.984  12.527
84073SOL    HW154051   0.541   9.889  12.519
84073SOL    HW254052   0.611  10.016  12.476
84074SOL     OW54053   6.148   1.105   2.381
84074SOL    HW154054   6.085   1.069   2.443
84074SOL    HW254055   6.222   1.132   2.434
84075SOL     OW54056  13.180   4.296  10.475
84075SOL    HW154057  13.149   4.357  10.408
84075SOL    HW254058  13.111   4.230  10.483
84076SOL     OW54059   7.512  10.313  13.769
84076SOL    HW154060   7.489  10.376  13.837
84076SOL    HW254061   7.451  10.240  13.781
84077SOL     OW54062   7.829   6.374   3.984
84077SOL    HW154063   7.810   6.437   4.053
84077SOL    HW254064   7.747   6.326   3.972
84078SOL     OW54065  12.495  10.647  10.408
84078SOL    HW154066  12.479  10.738  10.433
84078SOL    HW254067  12.451  10.595  10.476
84079SOL     OW54068  12.733   0.523   0.668
84079SOL    HW154069  12.701   0.497   0.581
84079SOL    HW254070  12.657   0.514   0.725
84080SOL     OW54071   2.213  12.044  14.110
84080SOL    HW154072   2.282  11.980  14.126
84080SOL    HW254073   2.132  11.998  14.130
84081SOL     OW54074   9.939  13.874   1.894
84081SOL    HW154075  10.017  13.864   1.948
84081SOL    HW254076   9.937  13.796   1.838
84082SOL     OW54077   8.127   1.442  10.456
84082SOL    HW154078   8.186   1.382  10.503
84082SOL    HW254079   8.062   1.385  10.416
84083SOL     OW54080  13.378  10.514  12.683
84083SOL    HW154081  13.359  10.576  12.612
84083SOL    HW254082  13.343  10.556  12.762
84084SOL     OW54083   1.173   7.181  14.135
84084SOL    HW154084   1.163   7.224  14.050
84084SOL    HW254085   1.202   7.093  14.114
84085SOL     OW54086  11.523   4.065  10.981
84085SOL    HW154087  11.515   3.974  10.953
84085SOL    HW254088  11.615   4.074  11.008
84086SOL     OW54089   1.361   1.568   3.833
84086SOL    HW154090   1.415   1.599   3.759
84086SOL    HW254091   1.386   1.476   3.843
84087SOL     OW54092  11.436   5.926  12.321
84087SOL    HW154093  11.445   5.887  12.234
84087SOL    HW254094  11.459   5.855  12.381
84088SOL     OW54095   4.666  10.990   8.208
84088SOL    HW154096   4.615  11.069   8.191
84088SOL    HW254097   4.728  11.016   8.276
84089SOL     OW54098  11.817   5.114   4.203
84089SOL    HW154099  11.816   5.209   4.189
84089SOL    HW254100  11.875   5.101   4.278
84090SOL     OW54101  13.997  11.635  12.800
84090SOL    HW154102  14.002  11.587  12.718
84090SOL    HW254103  14.088  11.656  12.821
84091SOL     OW54104  12.582   5.887  11.555
84091SOL    HW154105  12.649   5.909  11.621
84091SOL    HW254106  12.513   5.952  11.568
84092SOL     OW54107   0.112  14.470   7.925
84092SOL    HW154108   0.030  14.516   7.907
84092SOL    HW254109   0.092  14.414   8.000
84093SOL     OW54110   1.149   9.974   4.220
84093SOL    HW154111   1.203   9.935   4.288
84093SOL    HW254112   1.171  10.067   4.221
84094SOL     OW54113  11.304   3.866   0.435
84094SOL    HW154114  11.304   3.770   0.439
84094SOL    HW254115  11.330   3.893   0.523
84095SOL     OW54116  10.077   5.703  14.622
84095SOL    HW154117  10.137   5.630  14.604
84095SOL    HW254118  10.129   5.781  14.602
84096SOL     OW54119   6.838   9.233   6.478
84096SOL    HW154120   6.759   9.246   6.425
84096SOL    HW254121   6.910   9.229   6.415
84097SOL     OW54122  12.022   3.125   0.196
84097SOL    HW154123  12.058   3.067   0.128
84097SOL    HW254124  11.928   3.111   0.192
84098SOL     OW54125   8.980   3.587   9.683
84098SOL    HW154126   8.995   3.615   9.774
84098SOL    HW254127   9.063   3.606   9.639
84099SOL     OW54128   5.128   7.066   6.390
84099SOL    HW154129   5.211   7.028   6.418
84099SOL    HW254130   5.095   7.005   6.323
84100SOL     OW54131   7.033  13.185   1.682
84100SOL    HW154132   7.030  13.262   1.625
84100SOL    HW254133   7.003  13.216   1.767
84101SOL     OW54134  13.068  12.929   5.655
84101SOL    HW154135  13.006  12.871   5.611
84101SOL    HW254136  13.154  12.897   5.629
84102SOL     OW54137   4.935   3.929   5.392
84102SOL    HW154138   4.906   3.890   5.310
84102SOL    HW254139   4.868   3.994   5.413
84103SOL     OW54140  10.759   3.871  13.352
84103SOL    HW154141  10.703   3.932  13.305
84103SOL    HW254142  10.729   3.784  13.325
84104SOL     OW54143   1.159  12.967   1.796
84104SOL    HW154144   1.156  12.949   1.890
84104SOL    HW254145   1.182  12.883   1.756
84105SOL     OW54146  11.131   8.837   2.438
84105SOL    HW154147  11.158   8.919   2.398
84105SOL    HW254148  11.149   8.770   2.372
84106SOL     OW54149   6.436   7.414  12.362
84106SOL    HW154150   6.498   7.402  12.290
84106SOL    HW254151   6.397   7.500  12.347
84107SOL     OW54152  11.303   7.641   9.038
84107SOL    HW154153  11.208   7.651   9.028
84107SOL    HW254154  11.316   7.546   9.038
84108SOL     OW54155   3.021   0.910  10.665
84108SOL    HW154156   2.983   0.996  10.686
84108SOL    HW254157   2.986   0.851  10.732
84109SOL     OW54158   5.812   7.900  10.954
84109SOL    HW154159   5.862   7.827  10.917
84109SOL    HW254160   5.739   7.912  10.894
84110SOL     OW54161  12.814  12.538   8.056
84110SOL    HW154162  12.795  12.623   8.017
84110SOL    HW254163  12.756  12.477   8.011
84111SOL     OW54164   8.934  11.034   7.192
84111SOL    HW154165   8.925  10.962   7.130
84111SOL    HW254166   8.844  11.057   7.216
84112SOL     OW54167   4.696   8.554  14.531
84112SOL    HW154168   4.624   8.576  14.471
84112SOL    HW254169   4.775   8.583  14.486
84113SOL     OW54170   8.731   9.156  13.253
84113SOL    HW154171   8.813   9.199  13.277
84113SOL    HW254172   8.694   9.126  13.336
84114SOL     OW54173   2.696  10.510   0.636
84114SOL    HW154174   2.624  10.462   0.596
84114SOL    HW254175   2.762  10.444   0.654
84115SOL     OW54176  14.130  13.476   0.091
84115SOL    HW154177  14.200  13.479   0.026
84115SOL    HW254178  14.051  13.458   0.039
84116SOL     OW54179   7.490   7.961   7.344
84116SOL    HW154180   7.525   8.049   7.329
84116SOL    HW254181   7.554   7.919   7.401
84117SOL     OW54182   4.898  12.263   3.152
84117SOL    HW154183   4.850  12.208   3.090
84117SOL    HW254184   4.968  12.206   3.184
84118SOL     OW54185   1.586  11.447  13.888
84118SOL    HW154186   1.508  11.434  13.833
84118SOL    HW254187   1.556  11.424  13.976
84119SOL     OW54188   2.167   2.562   9.348
84119SOL    HW154189   2.130   2.648   9.367
84119SOL    HW254190   2.221   2.543   9.425
84120SOL     OW54191   8.533   5.721   2.195
84120SOL    HW154192   8.598   5.790   2.187
84120SOL    HW254193   8.501   5.728   2.285
84121SOL     OW54194   5.061  10.512   3.855
84121SOL    HW154195   5.069  10.479   3.945
84121SOL    HW254196   5.061  10.433   3.801
84122SOL     OW54197  13.530  13.241   3.620
84122SOL    HW154198  13.542  13.222   3.527
84122SOL    HW254199  13.437  13.262   3.628
84123SOL     OW54200   7.458  14.235   0.662
84123SOL    HW154201   7.513  14.222   0.738
84123SOL    HW254202   7.504  14.300   0.609
84124SOL     OW54203  14.533  11.506   3.384
84124SOL    HW154204  14.585  11.440   3.430
84124SOL    HW254205  14.598  11.556   3.334
84125SOL     OW54206  14.213   6.897   6.122
84125SOL    HW154207  14.254   6.895   6.036
84125SOL    HW254208  14.122   6.869   6.106
84126SOL     OW54209   8.848   1.636   4.553
84126SOL    HW154210   8.898   1.691   4.492
84126SOL    HW254211   8.848   1.549   4.513
84127SOL     OW54212   5.379   5.697   5.171
84127SOL    HW154213   5.424   5.772   5.208
84127SOL    HW254214   5.306   5.734   5.122
84128SOL     OW54215   1.756  14.511   0.968
84128SOL    HW154216   1.693  14.465   0.912
84128SOL    HW254217   1.742  14.603   0.949
84129SOL     OW54218   8.247  11.391  14.469
84129SOL    HW154219   8.262  11.403  14.563
84129SOL    HW254220   8.335  11.379  14.433
84130SOL     OW54221   7.451  13.200  12.037
84130SOL    HW154222   7.379  13.252  12.073
84130SOL    HW254223   7.499  13.169  12.113
84131SOL     OW54224   9.938  14.132   2.895
84131SOL    HW154225   9.943  14.041   2.923
84131SOL    HW254226   9.873  14.172   2.954
84132SOL     OW54227   1.019   0.463   5.007
84132SOL    HW154228   1.085   0.528   5.030
84132SOL    HW254229   0.941   0.513   4.985
84133SOL     OW54230   1.766   6.480  12.155
84133SOL    HW154231   1.685   6.428  12.154
84133SOL    HW254232   1.778   6.502  12.248
84134SOL     OW54233   5.694   8.178   8.298
84134SOL    HW154234   5.707   8.239   8.225
84134SOL    HW254235   5.654   8.101   8.257
84135SOL     OW54236  12.464   2.124   1.244
84135SOL    HW154237  12.505   2.207   1.269
84135SOL    HW254238  12.525   2.085   1.180
84136SOL     OW54239   3.274  13.003   5.277
84136SOL    HW154240   3.222  13.067   5.326
84136SOL    HW254241   3.347  12.982   5.336
84137SOL     OW54242   9.028   6.003  10.892
84137SOL    HW154243   9.068   6.055  10.822
84137SOL    HW254244   9.069   5.917  10.884
84138SOL     OW54245  10.593   7.268   5.794
84138SOL    HW154246  10.685   7.289   5.811
84138SOL    HW254247  10.590   7.172   5.795
84139SOL     OW54248   2.078   5.334  14.337
84139SOL    HW154249   2.172   5.346  14.346
84139SOL    HW254250   2.058   5.365  14.249
84140SOL     OW54251   0.942   0.094   5.889
84140SOL    HW154252   0.949   0.129   5.800
84140SOL    HW254253   1.019   0.038   5.899
84141SOL     OW54254   3.692   1.715   5.458
84141SOL    HW154255   3.706   1.723   5.552
84141SOL    HW254256   3.735   1.792   5.421
84142SOL     OW54257  10.108   8.479   1.877
84142SOL    HW154258  10.074   8.529   1.952
84142SOL    HW254259  10.058   8.512   1.802
84143SOL     OW54260   4.573  10.467   4.394
84143SOL    HW154261   4.614  10.393   4.437
84143SOL    HW254262   4.641  10.502   4.336
84144SOL     OW54263   2.087  13.687   7.573
84144SOL    HW154264   2.010  13.640   7.603
84144SOL    HW254265   2.114  13.642   7.493
84145SOL     OW54266   6.863   9.620   1.319
84145SOL    HW154267   6.804   9.564   1.369
84145SOL    HW254268   6.814   9.640   1.239
84146SOL     OW54269   4.721   1.070   4.152
84146SOL    HW154270   4.771   1.009   4.206
84146SOL    HW254271   4.753   1.055   4.063
84147SOL     OW54272   9.269  11.574  12.025
84147SOL    HW154273   9.295  11.651  12.075
84147SOL    HW254274   9.348  11.550  11.976
84148SOL     OW54275   6.214  10.015  10.119
84148SOL    HW154276   6.144   9.981  10.175
84148SOL    HW254277   6.291  10.016  10.176
84149SOL     OW54278  12.488  10.578  14.240
84149SOL    HW154279  12.528  10.615  14.161
84149SOL    HW254280  12.428  10.512  14.207
84150SOL     OW54281   4.017  13.345   4.266
84150SOL    HW154282   4.079  13.303   4.207
84150SOL    HW254283   4.003  13.281   4.336
84151SOL     OW54284   4.704  10.352   6.715
84151SOL    HW154285   4.779  10.382   6.663
84151SOL    HW254286   4.635  10.336   6.651
84152SOL     OW54287   6.243  14.375   0.865
84152SOL    HW154288   6.157  14.341   0.888
84152SOL    HW254289   6.242  14.380   0.770
84153SOL     OW54290   4.219   1.461  14.378
84153SOL    HW154291   4.208   1.367  14.396
84153SOL    HW254292   4.152   1.503  14.431
84154SOL     OW54293  13.248   9.354   6.995
84154SOL    HW154294  13.278   9.305   6.919
84154SOL    HW254295  13.181   9.413   6.961
84155SOL     OW54296  14.439   2.335   9.692
84155SOL    HW154297  14.406   2.272   9.629
84155SOL    HW254298  14.519   2.295   9.727
84156SOL     OW54299  12.391  14.575   9.587
84156SOL    HW154300  12.483  14.582   9.563
84156SOL    HW254301  12.348  14.647   9.542
84157SOL     OW54302   4.107   3.353   6.979
84157SOL    HW154303   4.099   3.258   6.970
84157SOL    HW254304   4.050   3.376   7.052
84158SOL     OW54305   2.228  10.757   2.370
84158SOL    HW154306   2.308  10.794   2.407
84158SOL    HW254307   2.165  10.760   2.441
84159SOL     OW54308   0.781   5.694  14.069
84159SOL    HW154309   0.743   5.776  14.038
84159SOL    HW254310   0.761   5.630  14.000
84160SOL     OW54311   4.797   6.215  12.320
84160SOL    HW154312   4.814   6.242  12.410
84160SOL    HW254313   4.745   6.135  12.328
84161SOL     OW54314  13.526   0.910  10.629
84161SOL    HW154315  13.540   0.850  10.703
84161SOL    HW254316  13.516   0.853  10.553
84162SOL     OW54317   0.260   6.277   8.103
84162SOL    HW154318   0.217   6.293   8.019
84162SOL    HW254319   0.304   6.193   8.091
84163SOL     OW54320  11.623   7.125   3.363
84163SOL    HW154321  11.684   7.057   3.335
84163SOL    HW254322  11.595   7.097   3.450
84164SOL     OW54323  12.944  12.924   7.925
84164SOL    HW154324  13.018  12.863   7.918
84164SOL    HW254325  12.868  12.868   7.937
84165SOL     OW54326   3.618  11.306  10.764
84165SOL    HW154327   3.535  11.261  10.781
84165SOL    HW254328   3.594  11.397  10.747
84166SOL     OW54329   9.273   5.832  13.219
84166SOL    HW154330   9.197   5.887  13.199
84166SOL    HW254331   9.347   5.893  13.219
84167SOL     OW54332  10.303   7.749  11.301
84167SOL    HW154333  10.362   7.767  11.227
84167SOL    HW254334  10.215   7.763  11.265
84168SOL     OW54335   1.569  13.044  10.039
84168SOL    HW154336   1.650  13.050  10.089
84168SOL    HW254337   1.577  13.113   9.973
84169SOL     OW54338   3.165   7.163   4.119
84169SOL    HW154339   3.243   7.218   4.133
84169SOL    HW254340   3.093   7.225   4.114
84170SOL     OW54341  12.478   8.165   8.891
84170SOL    HW154342  12.500   8.194   8.803
84170SOL    HW254343  12.500   8.239   8.947
84171SOL     OW54344  14.635   4.032   2.039
84171SOL    HW154345  14.573   4.086   1.990
84171SOL    HW254346  14.627   4.063   2.129
84172SOL     OW54347   2.121   0.827   0.433
84172SOL    HW154348   2.139   0.782   0.515
84172SOL    HW254349   2.151   0.917   0.447
84173SOL     OW54350   4.062   8.995   1.878
84173SOL    HW154351   4.049   8.921   1.937
84173SOL    HW254352   4.077   8.956   1.792
84174SOL     OW54353  14.357   7.037  14.333
84174SOL    HW154354  14.418   7.094  14.379
84174SOL    HW254355  14.272   7.054  14.374
84175SOL     OW54356   9.346   5.947   6.205
84175SOL    HW154357   9.339   5.944   6.300
84175SOL    HW254358   9.435   5.915   6.187
84176SOL     OW54359   5.374   9.982   6.624
84176SOL    HW154360   5.364  10.074   6.601
84176SOL    HW254361   5.452   9.979   6.679
84177SOL     OW54362   7.293   8.440   4.145
84177SOL    HW154363   7.231   8.468   4.213
84177SOL    HW254364   7.379   8.443   4.188
84178SOL     OW54365   1.160  14.794   4.348
84178SOL    HW154366   1.246  14.770   4.314
84178SOL    HW254367   1.122  14.850   4.280
84179SOL     OW54368   2.104  13.286   4.077
84179SOL    HW154369   2.069  13.370   4.047
84179SOL    HW254370   2.092  13.227   4.002
84180SOL     OW54371  13.511   0.260   8.438
84180SOL    HW154372  13.584   0.293   8.385
84180SOL    HW254373  13.476   0.338   8.481
84181SOL     OW54374   3.130   0.123   8.179
84181SOL    HW154375   3.177   0.204   8.160
84181SOL    HW254376   3.110   0.086   8.092
84182SOL     OW54377  14.273  11.505   0.329
84182SOL    HW154378  14.330  11.492   0.405
84182SOL    HW254379  14.306  11.444   0.264
84183SOL     OW54380   7.749   6.550   8.354
84183SOL    HW154381   7.720   6.636   8.323
84183SOL    HW254382   7.818   6.524   8.293
84184SOL     OW54383  13.407   0.481   5.704
84184SOL    HW154384  13.367   0.488   5.790
84184SOL    HW254385  13.485   0.426   5.717
84185SOL     OW54386   9.885   4.261   2.394
84185SOL    HW154387   9.817   4.196   2.375
84185SOL    HW254388   9.967   4.218   2.370
84186SOL     OW54389  13.161   0.438   5.050
84186SOL    HW154390  13.164   0.534   5.047
84186SOL    HW254391  13.247   0.410   5.019
84187SOL     OW54392   5.080   4.840   4.688
84187SOL    HW154393   5.014   4.808   4.627
84187SOL    HW254394   5.162   4.841   4.638
84188SOL     OW54395  11.090   0.613   1.060
84188SOL    HW154396  11.044   0.601   0.977
84188SOL    HW254397  11.167   0.556   1.053
84189SOL     OW54398   9.587   7.463   8.977
84189SOL    HW154399   9.594   7.371   8.952
84189SOL    HW254400   9.674   7.487   9.007
84190SOL     OW54401  10.839   0.813  13.502
84190SOL    HW154402  10.761   0.836  13.553
84190SOL    HW254403  10.906   0.875  13.530
84191SOL     OW54404   7.508  14.668   4.373
84191SOL    HW154405   7.459  14.625   4.443
84191SOL    HW254406   7.473  14.629   4.293
84192SOL     OW54407   0.282   4.569  10.300
84192SOL    HW154408   0.350   4.501  10.307
84192SOL    HW254409   0.255   4.585  10.390
84193SOL     OW54410   4.092  14.182   1.733
84193SOL    HW154411   4.047  14.098   1.731
84193SOL    HW254412   4.058  14.229   1.657
84194SOL     OW54413  10.603   2.382   6.240
84194SOL    HW154414  10.675   2.351   6.294
84194SOL    HW254415  10.526   2.337   6.275
84195SOL     OW54416   7.569  10.779   4.908
84195SOL    HW154417   7.475  10.783   4.927
84195SOL    HW254418   7.586  10.857   4.855
84196SOL     OW54419   2.697   9.065   4.779
84196SOL    HW154420   2.777   9.020   4.751
84196SOL    HW254421   2.646   8.998   4.823
84197SOL     OW54422  10.989   9.372   0.269
84197SOL    HW154423  10.949   9.442   0.321
84197SOL    HW254424  10.975   9.293   0.321
84198SOL     OW54425   1.698   9.912   9.566
84198SOL    HW154426   1.640   9.838   9.581
84198SOL    HW254427   1.646   9.973   9.513
84199SOL     OW54428   6.833  10.568   4.007
84199SOL    HW154429   6.836  10.536   4.097
84199SOL    HW254430   6.857  10.492   3.954
84200SOL     OW54431   2.147   8.217   4.045
84200SOL    HW154432   2.172   8.303   4.011
84200SOL    HW254433   2.230   8.170   4.055
84201SOL     OW54434   4.722  14.379  14.700
84201SOL    HW154435   4.658  14.310  14.718
84201SOL    HW254436   4.678  14.439  14.640
84202SOL     OW54437  14.032   4.427  10.863
84202SOL    HW154438  13.968   4.356  10.861
84202SOL    HW254439  14.116   4.385  10.844
84203SOL     OW54440   9.588  14.108   1.508
84203SOL    HW154441   9.498  14.102   1.541
84203SOL    HW254442   9.642  14.078   1.581
84204SOL     OW54443   0.754  11.165   6.207
84204SOL    HW154444   0.795  11.136   6.288
84204SOL    HW254445   0.661  11.151   6.220
84205SOL     OW54446  14.027   3.619   7.407
84205SOL    HW154447  14.050   3.549   7.469
84205SOL    HW254448  13.937   3.600   7.382
84206SOL     OW54449   9.797   8.868  11.053
84206SOL    HW154450   9.767   8.958  11.040
84206SOL    HW254451   9.739   8.834  11.121
84207SOL     OW54452  14.713  12.125   1.737
84207SOL    HW154453  14.803  12.142   1.711
84207SOL    HW254454  14.718  12.046   1.790
84208SOL     OW54455   1.744   5.531  12.673
84208SOL    HW154456   1.819   5.556  12.726
84208SOL    HW254457   1.691   5.611  12.667
84209SOL     OW54458   3.023   6.016  10.775
84209SOL    HW154459   3.032   6.111  10.779
84209SOL    HW254460   3.014   5.989  10.866
84210SOL     OW54461   7.033   1.974  10.990
84210SOL    HW154462   7.038   2.043  10.924
84210SOL    HW254463   6.970   2.007  11.055
84211SOL     OW54464  12.161  10.896   0.635
84211SOL    HW154465  12.110  10.854   0.704
84211SOL    HW254466  12.236  10.839   0.623
84212SOL     OW54467   6.479  14.020  12.489
84212SOL    HW154468   6.412  13.957  12.462
84212SOL    HW254469   6.517  13.982  12.568
84213SOL     OW54470  13.547   9.068   0.634
84213SOL    HW154471  13.608   9.112   0.574
84213SOL    HW254472  13.559   8.975   0.616
84214SOL     OW54473  14.376   9.239   1.787
84214SOL    HW154474  14.438   9.173   1.757
84214SOL    HW254475  14.302   9.189   1.822
84215SOL     OW54476   3.808   8.571   2.471
84215SOL    HW154477   3.890   8.587   2.425
84215SOL    HW254478   3.769   8.496   2.425
84216SOL     OW54479   6.155  11.672   3.133
84216SOL    HW154480   6.085  11.684   3.197
84216SOL    HW254481   6.130  11.594   3.084
84217SOL     OW54482  13.041   9.550   2.139
84217SOL    HW154483  13.124   9.503   2.146
84217SOL    HW254484  13.014   9.566   2.229
84218SOL     OW54485  14.816   9.005   3.456
84218SOL    HW154486  14.843   8.985   3.366
84218SOL    HW254487  14.817   9.101   3.461
84219SOL     OW54488  11.741   8.490   7.164
84219SOL    HW154489  11.762   8.540   7.085
84219SOL    HW254490  11.797   8.412   7.159
84220SOL     OW54491   3.310  13.510   2.552
84220SOL    HW154492   3.273  13.557   2.626
84220SOL    HW254493   3.294  13.568   2.477
84221SOL     OW54494   4.028   9.025   7.933
84221SOL    HW154495   3.978   8.959   7.885
84221SOL    HW254496   4.071   9.077   7.865
84222SOL     OW54497   0.968  10.507   2.898
84222SOL    HW154498   0.947  10.518   2.805
84222SOL    HW254499   0.921  10.428   2.924
84223SOL     OW54500   7.923   6.210   6.467
84223SOL    HW154501   7.950   6.268   6.538
84223SOL    HW254502   7.847   6.253   6.428
84224SOL     OW54503   6.012  10.166  13.991
84224SOL    HW154504   6.107  10.165  13.983
84224SOL    HW254505   5.987  10.254  13.962
84225SOL     OW54506   4.548  10.863   0.887
84225SOL    HW154507   4.580  10.797   0.825
84225SOL    HW254508   4.567  10.947   0.845
84226SOL     OW54509   0.490  12.089   0.329
84226SOL    HW154510   0.554  12.160   0.334
84226SOL    HW254511   0.474  12.064   0.420
84227SOL     OW54512   9.983   2.476  13.224
84227SOL    HW154513   9.942   2.443  13.304
84227SOL    HW254514  10.067   2.510  13.253
84228SOL     OW54515  13.315   7.417   9.507
84228SOL    HW154516  13.287   7.467   9.583
84228SOL    HW254517  13.293   7.472   9.432
84229SOL     OW54518  14.442   8.328   9.765
84229SOL    HW154519  14.476   8.306   9.679
84229SOL    HW254520  14.495   8.402   9.793
84230SOL     OW54521   1.358   7.530   9.698
84230SOL    HW154522   1.370   7.551   9.605
84230SOL    HW254523   1.429   7.576   9.742
84231SOL     OW54524   6.834   1.694   9.906
84231SOL    HW154525   6.748   1.703   9.865
84231SOL    HW254526   6.852   1.600   9.903
84232SOL     OW54527   9.255  14.485  13.355
84232SOL    HW154528   9.297  14.569  13.335
84232SOL    HW254529   9.164  14.508  13.376
84233SOL     OW54530   3.114   7.715   9.039
84233SOL    HW154531   3.130   7.672   8.955
84233SOL    HW254532   3.149   7.803   9.028
84234SOL     OW54533   8.695   1.537   0.613
84234SOL    HW154534   8.782   1.504   0.633
84234SOL    HW254535   8.667   1.486   0.537
84235SOL     OW54536   3.460   7.719   2.084
84235SOL    HW154537   3.452   7.772   2.163
84235SOL    HW254538   3.505   7.640   2.112
84236SOL     OW54539  13.947  12.979   1.178
84236SOL    HW154540  13.878  13.028   1.222
84236SOL    HW254541  13.919  12.888   1.183
84237SOL     OW54542  10.102  13.709  12.006
84237SOL    HW154543  10.030  13.758  11.967
84237SOL    HW254544  10.175  13.722  11.945
84238SOL     OW54545  14.292   5.222  12.707
84238SOL    HW154546  14.355   5.149  12.708
84238SOL    HW254547  14.212   5.184  12.672
84239SOL     OW54548   6.912   5.256   6.458
84239SOL    HW154549   6.854   5.240   6.532
84239SOL    HW254550   6.865   5.220   6.383
84240SOL     OW54551  13.568  13.895   8.634
84240SOL    HW154552  13.630  13.846   8.688
84240SOL    HW254553  13.621  13.926   8.560
84241SOL     OW54554  14.874   3.945   0.022
84241SOL    HW154555  14.822   3.873  14.867
84241SOL    HW254556  14.825   3.972   0.100
84242SOL     OW54557  12.708   3.787   4.798
84242SOL    HW154558  12.751   3.830   4.724
84242SOL    HW254559  12.637   3.847   4.821
84243SOL     OW54560  13.934  10.150   9.903
84243SOL    HW154561  13.964  10.228   9.949
84243SOL    HW254562  13.986  10.078   9.940
84244SOL     OW54563  11.456   5.041  11.697
84244SOL    HW154564  11.545   5.047  11.663
84244SOL    HW254565  11.456   5.101  11.772
84245SOL     OW54566  12.342   1.354   6.596
84245SOL    HW154567  12.377   1.277   6.642
84245SOL    HW254568  12.415   1.416   6.596
84246SOL     OW54569  11.589   8.995  13.653
84246SOL    HW154570  11.543   8.933  13.596
84246SOL    HW254571  11.639   9.051  13.592
84247SOL     OW54572   3.270   1.810  11.154
84247SOL    HW154573   3.195   1.796  11.096
84247SOL    HW254574   3.255   1.749  11.226
84248SOL     OW54575  10.048   6.185   9.537
84248SOL    HW154576  10.099   6.111   9.502
84248SOL    HW254577  10.072   6.259   9.481
84249SOL     OW54578   7.941   0.930   4.786
84249SOL    HW154579   8.021   0.920   4.735
84249SOL    HW254580   7.887   0.856   4.761
84250SOL     OW54581  14.556  10.797   0.628
84250SOL    HW154582  14.533  10.808   0.720
84250SOL    HW254583  14.584  10.706   0.621
84251SOL     OW54584   0.883   5.095   1.070
84251SOL    HW154585   0.793   5.125   1.079
84251SOL    HW254586   0.891   5.024   1.133
84252SOL     OW54587   5.413   8.270  14.154
84252SOL    HW154588   5.387   8.181  14.177
84252SOL    HW254589   5.420   8.315  14.239
84253SOL     OW54590  11.690   2.804   5.988
84253SOL    HW154591  11.680   2.716   6.025
84253SOL    HW254592  11.608   2.821   5.943
84254SOL     OW54593  11.934   1.822   4.093
84254SOL    HW154594  11.890   1.865   4.020
84254SOL    HW254595  11.982   1.892   4.137
84255SOL     OW54596   2.236   5.066  11.101
84255SOL    HW154597   2.244   5.040  11.009
84255SOL    HW254598   2.326   5.089  11.126
84256SOL     OW54599   8.499   8.984   4.430
84256SOL    HW154600   8.443   8.930   4.374
84256SOL    HW254601   8.502   9.069   4.386
84257SOL     OW54602   8.979   7.522   6.117
84257SOL    HW154603   8.992   7.449   6.055
84257SOL    HW254604   8.889   7.512   6.147
84258SOL     OW54605  11.392  12.597  14.198
84258SOL    HW154606  11.464  12.620  14.257
84258SOL    HW254607  11.352  12.681  14.175
84259SOL     OW54608   7.382  11.814   1.981
84259SOL    HW154609   7.329  11.739   1.955
84259SOL    HW254610   7.405  11.858   1.899
84260SOL     OW54611   4.947   1.329  13.883
84260SOL    HW154612   4.977   1.413  13.849
84260SOL    HW254613   4.908   1.284  13.808
84261SOL     OW54614   2.586   6.838  13.893
84261SOL    HW154615   2.667   6.830  13.944
84261SOL    HW254616   2.561   6.930  13.902
84262SOL     OW54617   6.022   5.114   6.114
84262SOL    HW154618   5.932   5.111   6.147
84262SOL    HW254619   6.021   5.057   6.037
84263SOL     OW54620  12.995   9.707   3.713
84263SOL    HW154621  13.036   9.660   3.641
84263SOL    HW254622  13.040   9.677   3.792
84264SOL     OW54623   9.160  10.111   6.894
84264SOL    HW154624   9.145  10.205   6.892
84264SOL    HW254625   9.073  10.073   6.877
84265SOL     OW54626   7.096   0.112  14.877
84265SOL    HW154627   7.155   0.055  14.827
84265SOL    HW254628   7.070   0.059   0.070
84266SOL     OW54629  14.282   7.363  11.312
84266SOL    HW154630  14.214   7.423  11.343
84266SOL    HW254631  14.276   7.287  11.370
84267SOL     OW54632   9.821   9.145   1.131
84267SOL    HW154633   9.913   9.171   1.127
84267SOL    HW254634   9.777   9.204   1.069
84268SOL     OW54635   4.111   9.060   9.643
84268SOL    HW154636   4.139   8.979   9.601
84268SOL    HW254637   4.135   9.129   9.581
84269SOL     OW54638   6.173  12.410   9.856
84269SOL    HW154639   6.239  12.344   9.837
84269SOL    HW254640   6.090  12.362   9.858
84270SOL     OW54641   7.576  12.338  14.799
84270SOL    HW154642   7.657  12.358  14.752
84270SOL    HW254643   7.577  12.396  14.875
84271SOL     OW54644   9.974   7.893   4.860
84271SOL    HW154645  10.064   7.919   4.880
84271SOL    HW254646   9.969   7.800   4.884
84272SOL     OW54647  10.461   6.250   4.972
84272SOL    HW154648  10.535   6.259   5.033
84272SOL    HW254649  10.497   6.273   4.887
84273SOL     OW54650  13.342   9.354  10.562
84273SOL    HW154651  13.434   9.352  10.589
84273SOL    HW254652  13.322   9.265  10.536
84274SOL     OW54653   5.514   8.695   6.231
84274SOL    HW154654   5.608   8.680   6.222
84274SOL    HW254655   5.489   8.739   6.150
84275SOL     OW54656   7.104   6.278   0.994
84275SOL    HW154657   7.161   6.346   0.958
84275SOL    HW254658   7.123   6.200   0.942
84276SOL     OW54659  10.774   5.053   6.426
84276SOL    HW154660  10.849   5.047   6.485
84276SOL    HW254661  10.726   4.971   6.439
84277SOL     OW54662   1.472   6.482   8.102
84277SOL    HW154663   1.422   6.458   8.024
84277SOL    HW254664   1.485   6.576   8.095
84278SOL     OW54665  13.513   9.683   8.305
84278SOL    HW154666  13.544   9.614   8.246
84278SOL    HW254667  13.418   9.677   8.301
84279SOL     OW54668   3.400  12.031   8.995
84279SOL    HW154669   3.496  12.026   8.998
84279SOL    HW254670   3.372  11.992   9.078
84280SOL     OW54671   5.674   4.872   1.061
84280SOL    HW154672   5.589   4.875   1.105
84280SOL    HW254673   5.653   4.852   0.970
84281SOL     OW54674   4.385  12.516   3.350
84281SOL    HW154675   4.435  12.446   3.308
84281SOL    HW254676   4.308  12.472   3.385
84282SOL     OW54677   9.854  12.640   8.302
84282SOL    HW154678   9.761  12.644   8.324
84282SOL    HW254679   9.869  12.548   8.279
84283SOL     OW54680   5.489  11.263   9.459
84283SOL    HW154681   5.398  11.287   9.475
84283SOL    HW254682   5.538  11.345   9.465
84284SOL     OW54683   9.465   2.087  10.480
84284SOL    HW154684   9.518   2.121  10.409
84284SOL    HW254685   9.510   2.007  10.508
84285SOL     OW54686   2.416   3.853   5.711
84285SOL    HW154687   2.481   3.813   5.770
84285SOL    HW254688   2.344   3.877   5.769
84286SOL     OW54689   9.226  11.069  10.065
84286SOL    HW154690   9.321  11.072  10.080
84286SOL    HW254691   9.191  11.028  10.144
84287SOL     OW54692  10.362   2.160   3.270
84287SOL    HW154693  10.338   2.252   3.283
84287SOL    HW254694  10.278   2.115   3.261
84288SOL     OW54695   0.515  12.380   2.955
84288SOL    HW154696   0.487  12.418   2.872
84288SOL    HW254697   0.518  12.455   3.016
84289SOL     OW54698   8.693  14.841   6.773
84289SOL    HW154699   8.640  14.765   6.798
84289SOL    HW254700   8.641   0.004   6.707
84290SOL     OW54701  10.813   6.589   5.681
84290SOL    HW154702  10.729   6.581   5.726
84290SOL    HW254703  10.834   6.500   5.654
84291SOL     OW54704   9.509  11.741   5.513
84291SOL    HW154705   9.414  11.727   5.522
84291SOL    HW254706   9.548  11.662   5.551
84292SOL     OW54707  12.606   9.333   4.270
84292SOL    HW154708  12.614   9.391   4.346
84292SOL    HW254709  12.670   9.263   4.286
84293SOL     OW54710  12.510   6.601   9.646
84293SOL    HW154711  12.464   6.684   9.660
84293SOL    HW254712  12.505   6.557   9.731
84294SOL     OW54713  13.017  14.256   2.334
84294SOL    HW154714  13.052  14.310   2.263
84294SOL    HW254715  13.091  14.240   2.392
84295SOL     OW54716  11.670   2.976  13.864
84295SOL    HW154717  11.621   2.906  13.821
84295SOL    HW254718  11.762   2.950  13.857
84296SOL     OW54719   3.443   0.930  11.211
84296SOL    HW154720   3.483   1.002  11.259
84296SOL    HW254721   3.371   0.970  11.163
84297SOL     OW54722  14.011  14.706   9.306
84297SOL    HW154723  14.094  14.690   9.262
84297SOL    HW254724  13.974  14.618   9.320
84298SOL     OW54725  10.273  14.598  14.111
84298SOL    HW154726  10.265  14.503  14.111
84298SOL    HW254727  10.291  14.621  14.020
84299SOL     OW54728  12.712   8.953  10.683
84299SOL    HW154729  12.670   8.938  10.767
84299SOL    HW254730  12.793   8.999  10.704
84300SOL     OW54731  14.401  13.581   6.174
84300SOL    HW154732  14.458  13.644   6.129
84300SOL    HW254733  14.324  13.631   6.199
84301SOL     OW54734   7.693   9.993  10.920
84301SOL    HW154735   7.777  10.011  10.878
84301SOL    HW254736   7.656  10.080  10.938
84302SOL     OW54737   2.869   4.176   7.954
84302SOL    HW154738   2.800   4.242   7.952
84302SOL    HW254739   2.888   4.164   8.047
84303SOL     OW54740   8.662   6.291   2.084
84303SOL    HW154741   8.582   6.293   2.032
84303SOL    HW254742   8.687   6.383   2.094
84304SOL     OW54743   0.479   0.718   4.016
84304SOL    HW154744   0.546   0.782   4.040
84304SOL    HW254745   0.442   0.753   3.935
84305SOL     OW54746  12.325   4.144   3.988
84305SOL    HW154747  12.356   4.207   4.053
84305SOL    HW254748  12.405   4.102   3.956
84306SOL     OW54749   6.268  10.416  11.280
84306SOL    HW154750   6.277  10.327  11.314
84306SOL    HW254751   6.332  10.467  11.330
84307SOL     OW54752   5.540   7.207   4.292
84307SOL    HW154753   5.510   7.126   4.252
84307SOL    HW254754   5.475   7.273   4.266
84308SOL     OW54755   0.419   9.288   1.468
84308SOL    HW154756   0.370   9.268   1.388
84308SOL    HW254757   0.486   9.220   1.473
84309SOL     OW54758  12.030  12.785  10.189
84309SOL    HW154759  12.076  12.711  10.229
84309SOL    HW254760  12.065  12.789  10.100
84310SOL     OW54761   3.498   7.811   5.837
84310SOL    HW154762   3.580   7.850   5.808
84310SOL    HW254763   3.431   7.877   5.819
84311SOL     OW54764   0.427   2.650   4.133
84311SOL    HW154765   0.463   2.696   4.058
84311SOL    HW254766   0.503   2.613   4.178
84312SOL     OW54767   3.851  12.675   3.943
84312SOL    HW154768   3.770  12.624   3.950
84312SOL    HW254769   3.870  12.704   4.033
84313SOL     OW54770   3.183   0.823   4.526
84313SOL    HW154771   3.202   0.817   4.433
84313SOL    HW254772   3.238   0.895   4.557
84314SOL     OW54773   8.416  12.421  14.685
84314SOL    HW154774   8.416  12.504  14.636
84314SOL    HW254775   8.348  12.432  14.751
84315SOL     OW54776   8.071   5.335  11.505
84315SOL    HW154777   8.061   5.388  11.426
84315SOL    HW254778   8.109   5.253  11.474
84316SOL     OW54779   5.775   6.698   7.545
84316SOL    HW154780   5.830   6.762   7.500
84316SOL    HW254781   5.737   6.746   7.618
84317SOL     OW54782   4.686  12.852   4.889
84317SOL    HW154783   4.694  12.944   4.914
84317SOL    HW254784   4.644  12.810   4.964
84318SOL     OW54785   6.792   1.262  13.315
84318SOL    HW154786   6.744   1.194  13.268
84318SOL    HW254787   6.867   1.281  13.259
84319SOL     OW54788  10.176   9.944   9.332
84319SOL    HW154789  10.147   9.947   9.241
84319SOL    HW254790  10.206  10.033   9.351
84320SOL     OW54791   9.597  11.568   3.146
84320SOL    HW154792   9.652  11.498   3.182
84320SOL    HW254793   9.523  11.573   3.206
84321SOL     OW54794   9.614   4.186   1.323
84321SOL    HW154795   9.534   4.181   1.270
84321SOL    HW254796   9.656   4.101   1.310
84322SOL     OW54797   1.735   2.394   0.085
84322SOL    HW154798   1.739   2.468   0.145
84322SOL    HW254799   1.822   2.393   0.043
84323SOL     OW54800  12.410   7.255  13.015
84323SOL    HW154801  12.365   7.295  13.089
84323SOL    HW254802  12.468   7.189  13.054
84324SOL     OW54803   5.722   5.885   7.087
84324SOL    HW154804   5.641   5.837   7.068
84324SOL    HW254805   5.693   5.961   7.137
84325SOL     OW54806   6.916  10.891   5.342
84325SOL    HW154807   6.897  10.798   5.331
84325SOL    HW254808   6.876  10.913   5.427
84326SOL     OW54809  10.568   6.097   0.306
84326SOL    HW154810  10.565   6.020   0.364
84326SOL    HW254811  10.580   6.171   0.365
84327SOL     OW54812   5.269  13.414   6.742
84327SOL    HW154813   5.274  13.369   6.658
84327SOL    HW254814   5.321  13.493   6.731
84328SOL     OW54815  12.915   5.280   8.750
84328SOL    HW154816  12.888   5.308   8.663
84328SOL    HW254817  13.010   5.269   8.743
84329SOL     OW54818   8.503   8.920  13.437
84329SOL    HW154819   8.460   8.952  13.358
84329SOL    HW254820   8.571   8.861  13.405
84330SOL     OW54821   2.489  14.442  11.163
84330SOL    HW154822   2.439  14.511  11.120
84330SOL    HW254823   2.429  14.368  11.166
84331SOL     OW54824  12.019   0.338  11.275
84331SOL    HW154825  12.084   0.404  11.300
84331SOL    HW254826  12.060   0.255  11.298
84332SOL     OW54827  12.815   7.626   6.552
84332SOL    HW154828  12.803   7.712   6.591
84332SOL    HW254829  12.905   7.602   6.574
84333SOL     OW54830   0.042   1.509   0.072
84333SOL    HW154831   0.138   1.513   0.074
84333SOL    HW254832   0.018   1.546  14.869
84334SOL     OW54833  10.686   3.717  11.948
84334SOL    HW154834  10.597   3.744  11.922
84334SOL    HW254835  10.672   3.650  12.015
84335SOL     OW54836   4.649   3.696   3.589
84335SOL    HW154837   4.739   3.681   3.618
84335SOL    HW254838   4.657   3.739   3.504
84336SOL     OW54839   5.027  14.860   3.689
84336SOL    HW154840   5.071  14.804   3.625
84336SOL    HW254841   5.071  14.840   3.772
84337SOL     OW54842  14.575  13.273   5.433
84337SOL    HW154843  14.593  13.183   5.407
84337SOL    HW254844  14.561  13.269   5.527
84338SOL     OW54845  14.049   8.970   1.303
84338SOL    HW154846  13.993   9.014   1.367
84338SOL    HW254847  14.093   9.041   1.257
84339SOL     OW54848   1.800   4.627   0.280
84339SOL    HW154849   1.867   4.567   0.314
84339SOL    HW254850   1.848   4.685   0.221
84340SOL     OW54851   3.701   7.159  10.853
84340SOL    HW154852   3.631   7.180  10.791
84340SOL    HW254853   3.740   7.243  10.875
84341SOL     OW54854  13.331  12.980   2.296
84341SOL    HW154855  13.271  13.053   2.310
84341SOL    HW254856  13.397  13.015   2.236
84342SOL     OW54857  12.169   5.682  12.949
84342SOL    HW154858  12.205   5.605  12.992
84342SOL    HW254859  12.244   5.738  12.932
84343SOL     OW54860   1.106   8.006   5.118
84343SOL    HW154861   1.091   8.026   5.026
84343SOL    HW254862   1.192   8.044   5.137
84344SOL     OW54863   4.628  11.711  12.534
84344SOL    HW154864   4.651  11.619  12.518
84344SOL    HW254865   4.571  11.734  12.460
84345SOL     OW54866   4.328  10.619   8.448
84345SOL    HW154867   4.383  10.650   8.376
84345SOL    HW254868   4.240  10.616   8.410
84346SOL     OW54869  11.568  14.694   3.728
84346SOL    HW154870  11.658  14.727   3.726
84346SOL    HW254871  11.570  14.620   3.789
84347SOL     OW54872   8.060   0.528  13.201
84347SOL    HW154873   8.055   0.509  13.108
84347SOL    HW254874   7.979   0.494  13.238
84348SOL     OW54875   3.506   5.771   8.546
84348SOL    HW154876   3.459   5.838   8.596
84348SOL    HW254877   3.438   5.716   8.508
84349SOL     OW54878   8.605  13.798   5.553
84349SOL    HW154879   8.631  13.839   5.636
84349SOL    HW254880   8.667  13.833   5.489
84350SOL     OW54881   7.597   2.110   2.225
84350SOL    HW154882   7.649   2.038   2.260
84350SOL    HW254883   7.654   2.187   2.231
84351SOL     OW54884  12.722   7.909   2.428
84351SOL    HW154885  12.689   7.828   2.467
84351SOL    HW254886  12.672   7.978   2.470
84352SOL     OW54887   6.580  13.036   4.032
84352SOL    HW154888   6.623  13.072   4.109
84352SOL    HW254889   6.601  13.098   3.962
84353SOL     OW54890  13.901   7.090   7.245
84353SOL    HW154891  13.822   7.055   7.288
84353SOL    HW254892  13.922   7.169   7.296
84354SOL     OW54893   4.779  14.356  10.241
84354SOL    HW154894   4.861  14.396  10.211
84354SOL    HW254895   4.710  14.414  10.205
84355SOL     OW54896   9.513   4.515  14.370
84355SOL    HW154897   9.578   4.451  14.341
84355SOL    HW254898   9.513   4.582  14.302
84356SOL     OW54899   9.178  10.025   1.301
84356SOL    HW154900   9.215  10.009   1.388
84356SOL    HW254901   9.087   9.995   1.307
84357SOL     OW54902   5.739   0.029  12.694
84357SOL    HW154903   5.769   0.118  12.673
84357SOL    HW254904   5.689   0.039  12.775
84358SOL     OW54905   8.381  14.455   3.779
84358SOL    HW154906   8.406  14.472   3.870
84358SOL    HW254907   8.304  14.399   3.785
84359SOL     OW54908   3.203   1.763   6.725
84359SOL    HW154909   3.143   1.691   6.747
84359SOL    HW254910   3.244   1.786   6.809
84360SOL     OW54911   9.687   2.912   4.001
84360SOL    HW154912   9.721   2.851   4.067
84360SOL    HW254913   9.627   2.969   4.050
84361SOL     OW54914  13.632   5.307  13.250
84361SOL    HW154915  13.701   5.373  13.259
84361SOL    HW254916  13.667   5.244  13.188
84362SOL     OW54917   7.285   6.118   6.523
84362SOL    HW154918   7.217   6.186   6.522
84362SOL    HW254919   7.330   6.130   6.606
84363SOL     OW54920   7.010  13.355   6.969
84363SOL    HW154921   7.054  13.385   6.890
84363SOL    HW254922   7.067  13.287   7.004
84364SOL     OW54923  12.222   3.530  13.710
84364SOL    HW154924  12.143   3.486  13.676
84364SOL    HW254925  12.190   3.614  13.743
84365SOL     OW54926  11.708   8.268  13.975
84365SOL    HW154927  11.654   8.295  13.901
84365SOL    HW254928  11.653   8.284  14.052
84366SOL     OW54929  12.275   1.138  12.797
84366SOL    HW154930  12.287   1.047  12.769
84366SOL    HW254931  12.356   1.160  12.843
84367SOL     OW54932   6.171   1.205  14.869
84367SOL    HW154933   6.208   1.136   0.042
84367SOL    HW254934   6.086   1.171  14.841
84368SOL     OW54935  13.673   9.262   2.830
84368SOL    HW154936  13.767   9.273   2.834
84368SOL    HW254937  13.657   9.218   2.746
84369SOL     OW54938  13.959   0.039   6.805
84369SOL    HW154939  13.867   0.023   6.827
84369SOL    HW254940  14.006  14.845   6.839
84370SOL     OW54941   0.659  12.722   3.297
84370SOL    HW154942   0.688  12.695   3.384
84370SOL    HW254943   0.715  12.796   3.274
84371SOL     OW54944   2.812  10.411   3.391
84371SOL    HW154945   2.735  10.356   3.399
84371SOL    HW254946   2.872  10.362   3.334
84372SOL     OW54947   9.215   0.821   5.491
84372SOL    HW154948   9.219   0.726   5.497
84372SOL    HW254949   9.280   0.844   5.425
84373SOL     OW54950  11.664   5.185   3.634
84373SOL    HW154951  11.705   5.100   3.620
84373SOL    HW254952  11.583   5.182   3.582
84374SOL     OW54953   2.658  10.792  10.848
84374SOL    HW154954   2.753  10.805  10.849
84374SOL    HW254955   2.634  10.795  10.756
84375SOL     OW54956   9.431  12.638   3.248
84375SOL    HW154957   9.351  12.625   3.299
84375SOL    HW254958   9.499  12.656   3.313
84376SOL     OW54959   4.641   6.287   4.038
84376SOL    HW154960   4.710   6.236   4.081
84376SOL    HW254961   4.612   6.232   3.965
84377SOL     OW54962  10.440   7.602   2.124
84377SOL    HW154963  10.460   7.645   2.041
84377SOL    HW254964  10.398   7.519   2.099
84378SOL     OW54965  11.366  11.286  12.701
84378SOL    HW154966  11.276  11.314  12.720
84378SOL    HW254967  11.410  11.365  12.668
84379SOL     OW54968   4.102  14.290  14.880
84379SOL    HW154969   4.045  14.300  14.804
84379SOL    HW254970   4.046  14.306   0.074
84380SOL     OW54971   4.474   6.669   1.025
84380SOL    HW154972   4.420   6.668   0.946
84380SOL    HW254973   4.563   6.686   0.993
84381SOL     OW54974  12.393   5.682   0.607
84381SOL    HW154975  12.447   5.761   0.601
84381SOL    HW254976  12.323   5.695   0.542
84382SOL     OW54977   5.680  12.694   3.475
84382SOL    HW154978   5.585  12.700   3.485
84382SOL    HW254979   5.692  12.641   3.396
84383SOL     OW54980  13.628   5.033   0.986
84383SOL    HW154981  13.606   4.944   1.015
84383SOL    HW254982  13.632   5.027   0.891
84384SOL     OW54983  11.338   8.018   4.667
84384SOL    HW154984  11.265   8.054   4.719
84384SOL    HW254985  11.312   8.031   4.576
84385SOL     OW54986   2.517   8.558   2.048
84385SOL    HW154987   2.546   8.519   2.131
84385SOL    HW254988   2.553   8.501   1.981
84386SOL     OW54989   8.884  12.032   1.245
84386SOL    HW154990   8.886  12.079   1.329
84386SOL    HW254991   8.911  12.098   1.180
84387SOL     OW54992  12.863   4.903   3.080
84387SOL    HW154993  12.865   4.992   3.044
84387SOL    HW254994  12.854   4.847   3.003
84388SOL     OW54995   9.465   9.234   9.847
84388SOL    HW154996   9.418   9.242   9.764
84388SOL    HW254997   9.407   9.273   9.912
84389SOL     OW54998   3.860   6.410   3.203
84389SOL    HW154999   3.893   6.383   3.117
84389SOL    HW255000   3.851   6.505   3.197
84390SOL     OW55001   9.997   2.274   6.944
84390SOL    HW155002  10.040   2.292   6.860
84390SOL    HW255003   9.986   2.360   6.984
84391SOL     OW55004   4.107  13.162  10.514
84391SOL    HW155005   4.036  13.099  10.500
84391SOL    HW255006   4.186  13.109  10.512
84392SOL     OW55007   7.788   1.020  11.687
84392SOL    HW155008   7.768   1.014  11.594
84392SOL    HW255009   7.707   0.995  11.731
84393SOL     OW55010   2.480   8.616   0.893
84393SOL    HW155011   2.398   8.575   0.920
84393SOL    HW255012   2.518   8.556   0.829
84394SOL     OW55013   2.203  10.805  13.041
84394SOL    HW155014   2.225  10.817  13.133
84394SOL    HW255015   2.248  10.724  13.016
84395SOL     OW55016   5.752   5.145   6.177
84395SOL    HW155017   5.713   5.058   6.172
84395SOL    HW255018   5.729   5.186   6.093
84396SOL     OW55019   2.472   1.608  12.957
84396SOL    HW155020   2.540   1.620  13.024
84396SOL    HW255021   2.454   1.696  12.925
84397SOL     OW55022  12.040   8.705   5.384
84397SOL    HW155023  12.036   8.750   5.300
84397SOL    HW255024  11.967   8.743   5.434
84398SOL     OW55025   2.453   6.710   9.317
84398SOL    HW155026   2.383   6.729   9.380
84398SOL    HW255027   2.433   6.766   9.242
84399SOL     OW55028  14.141  11.303   4.024
84399SOL    HW155029  14.100  11.355   3.956
84399SOL    HW255030  14.226  11.346   4.039
84400SOL     OW55031   3.087   3.762  11.752
84400SOL    HW155032   3.121   3.824  11.817
84400SOL    HW255033   3.123   3.678  11.778
84401SOL     OW55034  12.148   3.528   8.464
84401SOL    HW155035  12.135   3.554   8.373
84401SOL    HW255036  12.217   3.586   8.496
84402SOL     OW55037   7.565  13.014  10.569
84402SOL    HW155038   7.590  12.924  10.549
84402SOL    HW255039   7.505  13.038  10.498
84403SOL     OW55040  10.352  14.277   1.627
84403SOL    HW155041  10.299  14.323   1.692
84403SOL    HW255042  10.440  14.313   1.638
84404SOL     OW55043   7.128   2.631  11.576
84404SOL    HW155044   7.093   2.592  11.496
84404SOL    HW255045   7.119   2.562  11.642
84405SOL     OW55046   4.174   8.021  10.695
84405SOL    HW155047   4.105   8.068  10.647
84405SOL    HW255048   4.224   7.976  10.627
84406SOL     OW55049   9.719  11.494  12.629
84406SOL    HW155050   9.719  11.448  12.545
84406SOL    HW255051   9.791  11.454  12.678
84407SOL     OW55052  13.152  12.295  12.667
84407SOL    HW155053  13.059  12.320  12.668
84407SOL    HW255054  13.151  12.201  12.651
84408SOL     OW55055   9.563  12.262   2.555
84408SOL    HW155056   9.550  12.357   2.553
84408SOL    HW255057   9.486  12.229   2.601
84409SOL     OW55058   7.229   5.261   8.837
84409SOL    HW155059   7.163   5.215   8.889
84409SOL    HW255060   7.183   5.338   8.804
84410SOL     OW55061   7.590   6.727   0.500
84410SOL    HW155062   7.534   6.656   0.529
84410SOL    HW255063   7.530   6.798   0.478
84411SOL     OW55064  11.559  10.747   8.083
84411SOL    HW155065  11.583  10.764   8.174
84411SOL    HW255066  11.556  10.834   8.043
84412SOL     OW55067   0.335   9.534   5.511
84412SOL    HW155068   0.324   9.594   5.584
84412SOL    HW255069   0.245   9.515   5.482
84413SOL     OW55070  11.701   4.168  14.042
84413SOL    HW155071  11.608   4.163  14.060
84413SOL    HW255072  11.714   4.254  14.003
84414SOL     OW55073  11.095  12.640   0.146
84414SOL    HW155074  11.127  12.595   0.224
84414SOL    HW255075  11.165  12.630   0.082
84415SOL     OW55076   8.399   7.846   0.211
84415SOL    HW155077   8.414   7.858   0.117
84415SOL    HW255078   8.316   7.888   0.229
84416SOL     OW55079   3.039  14.287   5.645
84416SOL    HW155080   3.016  14.351   5.577
84416SOL    HW255081   2.956  14.245   5.668
84417SOL     OW55082   8.488   4.782   6.891
84417SOL    HW155083   8.494   4.859   6.834
84417SOL    HW255084   8.511   4.814   6.978
84418SOL     OW55085   7.109  11.884   6.738
84418SOL    HW155086   7.081  11.853   6.824
84418SOL    HW255087   7.124  11.978   6.751
84419SOL     OW55088  11.856   1.764   3.019
84419SOL    HW155089  11.943   1.801   3.035
84419SOL    HW255090  11.800   1.840   3.005
84420SOL     OW55091   4.339   1.963   6.151
84420SOL    HW155092   4.328   2.058   6.162
84420SOL    HW255093   4.431   1.947   6.173
84421SOL     OW55094  12.469   3.969   1.284
84421SOL    HW155095  12.463   3.887   1.333
84421SOL    HW255096  12.524   3.949   1.209
84422SOL     OW55097   4.827   4.718   5.752
84422SOL    HW155098   4.737   4.728   5.721
84422SOL    HW255099   4.820   4.717   5.847
84423SOL     OW55100  13.944  10.300   9.517
84423SOL    HW155101  13.866  10.343   9.553
84423SOL    HW255102  13.988  10.367   9.466
84424SOL     OW55103  13.023   5.081  11.982
84424SOL    HW155104  13.059   5.015  12.040
84424SOL    HW255105  12.953   5.036  11.934
84425SOL     OW55106   7.738  14.128  10.555
84425SOL    HW155107   7.652  14.164  10.534
84425SOL    HW255108   7.734  14.038  10.523
84426SOL     OW55109   2.258   7.633   2.308
84426SOL    HW155110   2.183   7.648   2.365
84426SOL    HW255111   2.291   7.720   2.287
84427SOL     OW55112  14.416  14.517  14.182
84427SOL    HW155113  14.414  14.588  14.118
84427SOL    HW255114  14.492  14.537  14.237
84428SOL     OW55115   9.625   9.716   8.421
84428SOL    HW155116   9.577   9.796   8.400
84428SOL    HW255117   9.576   9.677   8.493
84429SOL     OW55118   7.279   7.923   1.906
84429SOL    HW155119   7.203   7.952   1.957
84429SOL    HW255120   7.242   7.870   1.836
84430SOL     OW55121   6.042   3.128   0.256
84430SOL    HW155122   6.087   3.125   0.340
84430SOL    HW255123   6.040   3.037   0.226
84431SOL     OW55124  11.588  11.571   0.384
84431SOL    HW155125  11.538  11.542   0.460
84431SOL    HW255126  11.629  11.653   0.411
84432SOL     OW55127  13.750  10.535   3.621
84432SOL    HW155128  13.665  10.578   3.628
84432SOL    HW255129  13.814  10.605   3.629
84433SOL     OW55130   7.493  14.738  12.571
84433SOL    HW155131   7.493  14.829  12.542
84433SOL    HW255132   7.496  14.687  12.490
84434SOL     OW55133  13.434  11.205  10.463
84434SOL    HW155134  13.463  11.241  10.379
84434SOL    HW255135  13.513  11.204  10.518
84435SOL     OW55136   8.930   3.682  12.333
84435SOL    HW155137   9.013   3.727  12.320
84435SOL    HW255138   8.911   3.690  12.426
84436SOL     OW55139   6.400  10.851  11.867
84436SOL    HW155140   6.487  10.854  11.906
84436SOL    HW255141   6.364  10.939  11.883
84437SOL     OW55142   3.844  11.456   0.583
84437SOL    HW155143   3.788  11.530   0.605
84437SOL    HW255144   3.921  11.495   0.541
84438SOL     OW55145   0.936   4.115   2.823
84438SOL    HW155146   0.941   4.038   2.766
84438SOL    HW255147   0.896   4.082   2.904
84439SOL     OW55148   2.339   7.796   7.622
84439SOL    HW155149   2.252   7.824   7.650
84439SOL    HW255150   2.323   7.743   7.544
84440SOL     OW55151  11.573  13.953   7.401
84440SOL    HW155152  11.480  13.943   7.421
84440SOL    HW255153  11.600  13.868   7.367
84441SOL     OW55154   9.962   8.859  13.375
84441SOL    HW155155   9.991   8.920  13.306
84441SOL    HW255156   9.867   8.855  13.366
84442SOL     OW55157  12.227   4.644  13.782
84442SOL    HW155158  12.171   4.573  13.815
84442SOL    HW255159  12.173   4.723  13.791
84443SOL     OW55160  13.525  10.013  13.202
84443SOL    HW155161  13.437  10.036  13.171
84443SOL    HW255162  13.515   9.997  13.296
84444SOL     OW55163  12.005  13.452   2.307
84444SOL    HW155164  12.062  13.474   2.234
84444SOL    HW255165  11.955  13.376   2.277
84445SOL     OW55166  12.357   6.249   8.553
84445SOL    HW155167  12.370   6.250   8.458
84445SOL    HW255168  12.414   6.179   8.584
84446SOL     OW55169   4.596   4.766   3.821
84446SOL    HW155170   4.580   4.779   3.915
84446SOL    HW255171   4.621   4.674   3.814
84447SOL     OW55172   2.159   3.513   4.950
84447SOL    HW155173   2.095   3.452   4.913
84447SOL    HW255174   2.228   3.518   4.885
84448SOL     OW55175   7.410   7.254   2.140
84448SOL    HW155176   7.326   7.228   2.102
84448SOL    HW255177   7.446   7.315   2.075
84449SOL     OW55178   6.472   4.290   2.894
84449SOL    HW155179   6.471   4.279   2.990
84449SOL    HW255180   6.452   4.203   2.860
84450SOL     OW55181  13.005   4.099   4.264
84450SOL    HW155182  12.984   4.188   4.293
84450SOL    HW255183  12.970   4.094   4.175
84451SOL     OW55184   9.523   8.208  12.376
84451SOL    HW155185   9.447   8.251  12.415
84451SOL    HW255186   9.556   8.270  12.311
84452SOL     OW55187  11.319   3.703  14.291
84452SOL    HW155188  11.413   3.696  14.308
84452SOL    HW255189  11.278   3.662  14.367
84453SOL     OW55190   4.613  14.133   8.075
84453SOL    HW155191   4.610  14.151   8.169
84453SOL    HW255192   4.649  14.044   8.069
84454SOL     OW55193   8.245   0.417  12.021
84454SOL    HW155194   8.336   0.403  12.046
84454SOL    HW255195   8.217   0.333  11.985
84455SOL     OW55196   8.532  11.548   9.833
84455SOL    HW155197   8.587  11.482   9.791
84455SOL    HW255198   8.592  11.604   9.882
84456SOL     OW55199  14.381   5.042  12.100
84456SOL    HW155200  14.451   5.023  12.162
84456SOL    HW255201  14.398   4.984  12.025
84457SOL     OW55202   2.209  11.326   4.328
84457SOL    HW155203   2.294  11.327   4.374
84457SOL    HW255204   2.145  11.342   4.397
84458SOL     OW55205   0.174   6.595   2.213
84458SOL    HW155206   0.093   6.617   2.167
84458SOL    HW255207   0.214   6.526   2.160
84459SOL     OW55208   0.606   0.383   6.735
84459SOL    HW155209   0.596   0.293   6.704
84459SOL    HW255210   0.528   0.400   6.787
84460SOL     OW55211  10.694  12.190   3.885
84460SOL    HW155212  10.728  12.103   3.864
84460SOL    HW255213  10.715  12.202   3.978
84461SOL     OW55214   4.233   2.775  10.859
84461SOL    HW155215   4.280   2.705  10.813
84461SOL    HW255216   4.144   2.770  10.826
84462SOL     OW55217   6.896   0.505  11.871
84462SOL    HW155218   6.909   0.419  11.913
84462SOL    HW255219   6.808   0.531  11.897
84463SOL     OW55220   1.074   4.569   9.425
84463SOL    HW155221   1.083   4.503   9.494
84463SOL    HW255222   1.098   4.651   9.468
84464SOL     OW55223   4.547   9.200   3.028
84464SOL    HW155224   4.507   9.163   3.107
84464SOL    HW255225   4.473   9.220   2.971
84465SOL     OW55226  13.057   1.876   7.556
84465SOL    HW155227  13.138   1.925   7.543
84465SOL    HW255228  12.993   1.921   7.501
84466SOL     OW55229  14.786   2.498   7.929
84466SOL    HW155230  14.746   2.502   7.842
84466SOL    HW255231  14.880   2.503   7.913
84467SOL     OW55232   0.096   9.731   0.841
84467SOL    HW155233   0.065   9.658   0.894
84467SOL    HW255234   0.184   9.749   0.874
84468SOL     OW55235   6.989  13.949   8.875
84468SOL    HW155236   6.980  13.864   8.832
84468SOL    HW255237   7.039  14.002   8.813
84469SOL     OW55238   7.806   6.670   1.133
84469SOL    HW155239   7.712   6.665   1.114
84469SOL    HW255240   7.848   6.622   1.063
84470SOL     OW55241  11.972  14.071   0.698
84470SOL    HW155242  11.899  14.118   0.738
84470SOL    HW255243  12.043  14.077   0.762
84471SOL     OW55244   6.793  12.902   9.367
84471SOL    HW155245   6.841  12.845   9.307
84471SOL    HW255246   6.740  12.958   9.311
84472SOL     OW55247   2.946   1.699   8.328
84472SOL    HW155248   2.922   1.651   8.249
84472SOL    HW255249   2.997   1.773   8.296
84473SOL     OW55250  11.311  11.881   3.717
84473SOL    HW155251  11.362  11.854   3.793
84473SOL    HW255252  11.325  11.975   3.711
84474SOL     OW55253   2.866   5.922   0.890
84474SOL    HW155254   2.786   5.891   0.848
84474SOL    HW255255   2.854   6.017   0.897
84475SOL     OW55256  12.778   4.159  13.491
84475SOL    HW155257  12.709   4.195  13.436
84475SOL    HW255258  12.837   4.114  13.430
84476SOL     OW55259   7.178   9.386   9.650
84476SOL    HW155260   7.087   9.391   9.622
84476SOL    HW255261   7.192   9.465   9.702
84477SOL     OW55262   3.610  11.513   7.740
84477SOL    HW155263   3.619  11.446   7.672
84477SOL    HW255264   3.654  11.590   7.702
84478SOL     OW55265  11.824   0.299   8.633
84478SOL    HW155266  11.760   0.295   8.704
84478SOL    HW255267  11.771   0.293   8.553
84479SOL     OW55268   1.194  10.295   5.383
84479SOL    HW155269   1.237  10.377   5.359
84479SOL    HW255270   1.135  10.277   5.310
84480SOL     OW55271   5.780   6.743   1.402
84480SOL    HW155272   5.764   6.700   1.486
84480SOL    HW255273   5.710   6.808   1.394
84481SOL     OW55274  10.903  12.400   1.012
84481SOL    HW155275  10.920  12.320   1.063
84481SOL    HW255276  10.879  12.465   1.077
84482SOL     OW55277  12.719  13.472   6.276
84482SOL    HW155278  12.696  13.525   6.200
84482SOL    HW255279  12.741  13.386   6.240
84483SOL     OW55280   6.740   7.013   8.077
84483SOL    HW155281   6.821   7.061   8.056
84483SOL    HW255282   6.687   7.077   8.124
84484SOL     OW55283  12.840   6.940   0.758
84484SOL    HW155284  12.924   6.967   0.796
84484SOL    HW255285  12.793   6.898   0.830
84485SOL     OW55286   4.533   9.877   5.462
84485SOL    HW155287   4.624   9.904   5.476
84485SOL    HW255288   4.539   9.785   5.437
84486SOL     OW55289   2.714   9.734   1.623
84486SOL    HW155290   2.764   9.688   1.556
84486SOL    HW255291   2.744   9.825   1.617
84487SOL     OW55292   9.797  10.046  14.036
84487SOL    HW155293   9.788  10.118  13.974
84487SOL    HW255294   9.713  10.000  14.033
84488SOL     OW55295   8.796   3.451   7.369
84488SOL    HW155296   8.804   3.391   7.295
84488SOL    HW255297   8.757   3.399   7.439
84489SOL     OW55298   7.277  10.444   9.219
84489SOL    HW155299   7.315  10.380   9.159
84489SOL    HW255300   7.288  10.404   9.306
84490SOL     OW55301   6.659   5.400   7.908
84490SOL    HW155302   6.668   5.492   7.884
84490SOL    HW255303   6.567   5.389   7.929
84491SOL     OW55304   6.437   0.625   8.677
84491SOL    HW155305   6.519   0.609   8.724
84491SOL    HW255306   6.426   0.548   8.622
84492SOL     OW55307   6.842  12.210   5.620
84492SOL    HW155308   6.760  12.171   5.590
84492SOL    HW255309   6.815  12.284   5.673
84493SOL     OW55310   5.010  11.537  13.208
84493SOL    HW155311   5.026  11.606  13.271
84493SOL    HW255312   4.917  11.544  13.186
84494SOL     OW55313  14.576   5.506  13.127
84494SOL    HW155314  14.531   5.590  13.127
84494SOL    HW255315  14.656   5.521  13.078
84495SOL     OW55316   9.507   3.540  13.097
84495SOL    HW155317   9.516   3.465  13.039
84495SOL    HW255318   9.565   3.521  13.170
84496SOL     OW55319  12.948  12.249   3.850
84496SOL    HW155320  12.861  12.284   3.833
84496SOL    HW255321  12.979  12.299   3.926
84497SOL     OW55322  14.556   5.046   2.624
84497SOL    HW155323  14.531   5.060   2.715
84497SOL    HW255324  14.482   5.079   2.573
84498SOL     OW55325   6.631   6.569   7.967
84498SOL    HW155326   6.573   6.595   7.896
84498SOL    HW255327   6.715   6.607   7.944
84499SOL     OW55328   5.820   1.017   5.709
84499SOL    HW155329   5.872   1.034   5.631
84499SOL    HW255330   5.818   0.921   5.717
84500SOL     OW55331   6.433  10.266   1.344
84500SOL    HW155332   6.388  10.329   1.289
84500SOL    HW255333   6.407  10.181   1.310
84501SOL     OW55334   8.841   1.827  10.920
84501SOL    HW155335   8.792   1.834  11.002
84501SOL    HW255336   8.813   1.902  10.868
84502SOL     OW55337  13.877   1.001  14.361
84502SOL    HW155338  13.792   0.956  14.354
84502SOL    HW255339  13.934   0.937  14.404
84503SOL     OW55340   0.258   3.426   4.420
84503SOL    HW155341   0.225   3.515   4.407
84503SOL    HW255342   0.202   3.391   4.489
84504SOL     OW55343   7.363  11.806   7.558
84504SOL    HW155344   7.453  11.775   7.574
84504SOL    HW255345   7.374  11.886   7.508
84505SOL     OW55346   0.347  12.820   7.269
84505SOL    HW155347   0.402  12.742   7.269
84505SOL    HW255348   0.387  12.877   7.335
84506SOL     OW55349   9.185   1.149  13.992
84506SOL    HW155350   9.244   1.186  14.058
84506SOL    HW255351   9.101   1.192  14.009
84507SOL     OW55352   8.311  13.710  11.331
84507SOL    HW155353   8.272  13.692  11.416
84507SOL    HW255354   8.294  13.630  11.280
84508SOL     OW55355   8.786   8.546  14.652
84508SOL    HW155356   8.725   8.567  14.722
84508SOL    HW255357   8.866   8.519  14.696
84509SOL     OW55358  13.954   6.391  12.475
84509SOL    HW155359  13.897   6.462  12.503
84509SOL    HW255360  14.003   6.367  12.554
84510SOL     OW55361   5.912   4.684   2.158
84510SOL    HW155362   5.983   4.700   2.220
84510SOL    HW255363   5.869   4.605   2.190
84511SOL     OW55364  11.108  14.330  12.673
84511SOL    HW155365  11.126  14.413  12.629
84511SOL    HW255366  11.080  14.355  12.761
84512SOL     OW55367  14.674   1.202   1.111
84512SOL    HW155368  14.671   1.133   1.177
84512SOL    HW255369  14.747   1.178   1.055
84513SOL     OW55370  11.103   1.740   6.710
84513SOL    HW155371  11.164   1.687   6.659
84513SOL    HW255372  11.140   1.828   6.707
84514SOL     OW55373   8.035   0.019   9.864
84514SOL    HW155374   8.104   0.037   9.800
84514SOL    HW255375   8.053  14.811   9.894
84515SOL     OW55376  10.696  11.914  12.931
84515SOL    HW155377  10.731  12.002  12.943
84515SOL    HW255378  10.762  11.869  12.878
84516SOL     OW55379   1.906  12.232   0.022
84516SOL    HW155380   1.990  12.199   0.053
84516SOL    HW255381   1.905  12.325   0.048
84517SOL     OW55382  14.661  10.162   2.556
84517SOL    HW155383  14.694  10.072   2.556
84517SOL    HW255384  14.711  10.206   2.486
84518SOL     OW55385  13.539   7.428  12.922
84518SOL    HW155386  13.471   7.382  12.972
84518SOL    HW255387  13.521   7.407  12.831
84519SOL     OW55388   5.076   3.961   6.204
84519SOL    HW155389   5.073   3.882   6.151
84519SOL    HW255390   5.168   3.987   6.203
84520SOL     OW55391   4.528   0.799   9.676
84520SOL    HW155392   4.489   0.826   9.759
84520SOL    HW255393   4.621   0.817   9.686
84521SOL     OW55394  10.624  12.764   7.169
84521SOL    HW155395  10.554  12.704   7.194
84521SOL    HW255396  10.661  12.794   7.252
84522SOL     OW55397   3.377   3.073  12.723
84522SOL    HW155398   3.326   3.049  12.645
84522SOL    HW255399   3.320   3.049  12.797
84523SOL     OW55400   9.090   3.892  11.771
84523SOL    HW155401   9.170   3.881  11.823
84523SOL    HW255402   9.031   3.941  11.828
84524SOL     OW55403  10.165  11.414   4.231
84524SOL    HW155404  10.085  11.406   4.179
84524SOL    HW255405  10.224  11.349   4.193
84525SOL     OW55406  11.383   8.459  13.819
84525SOL    HW155407  11.414   8.459  13.729
84525SOL    HW255408  11.380   8.366  13.843
84526SOL     OW55409   5.493  11.449   9.753
84526SOL    HW155410   5.486  11.359   9.785
84526SOL    HW255411   5.548  11.493   9.817
84527SOL     OW55412  14.053   8.782   4.198
84527SOL    HW155413  14.080   8.754   4.110
84527SOL    HW255414  14.133   8.779   4.249
84528SOL     OW55415   9.022   4.767   8.570
84528SOL    HW155416   8.959   4.816   8.517
84528SOL    HW255417   8.973   4.739   8.647
84529SOL     OW55418  12.937   3.875   5.732
84529SOL    HW155419  12.930   3.849   5.640
84529SOL    HW255420  12.995   3.810   5.771
84530SOL     OW55421  12.866  10.272   3.552
84530SOL    HW155422  12.935  10.324   3.511
84530SOL    HW255423  12.785  10.314   3.522
84531SOL     OW55424   3.115   6.963   4.297
84531SOL    HW155425   3.113   7.031   4.230
84531SOL    HW255426   3.144   6.884   4.250
84532SOL     OW55427   0.639   0.935  10.023
84532SOL    HW155428   0.574   0.879  10.065
84532SOL    HW255429   0.618   1.023  10.054
84533SOL     OW55430   3.407  11.429   8.753
84533SOL    HW155431   3.312  11.445   8.760
84533SOL    HW255432   3.446  11.494   8.812
84534SOL     OW55433   7.220   7.488  13.369
84534SOL    HW155434   7.137   7.442  13.352
84534SOL    HW255435   7.262   7.436  13.438
84535SOL     OW55436  12.715  11.274   9.343
84535SOL    HW155437  12.767  11.213   9.291
84535SOL    HW255438  12.646  11.220   9.382
84536SOL     OW55439  10.653   8.296   6.269
84536SOL    HW155440  10.676   8.218   6.318
84536SOL    HW255441  10.677   8.275   6.178
84537SOL     OW55442   4.745   2.473   3.674
84537SOL    HW155443   4.717   2.564   3.684
84537SOL    HW255444   4.779   2.468   3.585
84538SOL     OW55445   2.052  13.765   4.784
84538SOL    HW155446   2.135  13.729   4.816
84538SOL    HW255447   2.060  13.764   4.689
84539SOL     OW55448  13.230   0.982   6.048
84539SOL    HW155449  13.146   0.939   6.030
84539SOL    HW255450  13.207   1.057   6.104
84540SOL     OW55451  12.542   2.143   4.068
84540SOL    HW155452  12.637   2.139   4.051
84540SOL    HW255453  12.519   2.054   4.094
84541SOL     OW55454  14.796  14.432   2.546
84541SOL    HW155455  14.796  14.527   2.560
84541SOL    HW255456  14.762  14.396   2.629
84542SOL     OW55457   3.477   7.891   4.827
84542SOL    HW155458   3.432   7.819   4.783
84542SOL    HW255459   3.487   7.958   4.760
84543SOL     OW55460   9.851   6.493   3.381
84543SOL    HW155461   9.834   6.558   3.449
84543SOL    HW255462   9.946   6.483   3.380
84544SOL     OW55463   4.289   0.508  13.768
84544SOL    HW155464   4.273   0.421  13.731
84544SOL    HW255465   4.384   0.513  13.775
84545SOL     OW55466  13.112  11.389   4.118
84545SOL    HW155467  13.090  11.296   4.127
84545SOL    HW255468  13.207  11.391   4.113
84546SOL     OW55469   2.425   6.311   8.289
84546SOL    HW155470   2.516   6.326   8.315
84546SOL    HW255471   2.374   6.367   8.347
84547SOL     OW55472   9.676   2.294   5.791
84547SOL    HW155473   9.757   2.294   5.842
84547SOL    HW255474   9.688   2.363   5.726
84548SOL     OW55475   8.844   9.079   3.914
84548SOL    HW155476   8.863   8.988   3.890
84548SOL    HW255477   8.810   9.073   4.003
84549SOL     OW55478  12.680   3.806  12.582
84549SOL    HW155479  12.686   3.716  12.614
84549SOL    HW255480  12.633   3.853  12.651
84550SOL     OW55481   6.970   3.985  13.952
84550SOL    HW155482   6.955   4.026  14.038
84550SOL    HW255483   6.924   3.902  13.957
84551SOL     OW55484   7.692   2.501   3.635
84551SOL    HW155485   7.722   2.592   3.633
84551SOL    HW255486   7.695   2.478   3.728
84552SOL     OW55487  10.155   0.611   1.701
84552SOL    HW155488  10.120   0.557   1.773
84552SOL    HW255489  10.248   0.618   1.719
84553SOL     OW55490   4.150   0.864  10.223
84553SOL    HW155491   4.241   0.867  10.254
84553SOL    HW255492   4.147   0.788  10.166
84554SOL     OW55493   2.189  12.206  13.640
84554SOL    HW155494   2.224  12.262  13.710
84554SOL    HW255495   2.231  12.121  13.655
84555SOL     OW55496   2.477   8.790   0.432
84555SOL    HW155497   2.543   8.768   0.366
84555SOL    HW255498   2.522   8.776   0.516
84556SOL     OW55499  10.395  12.749  12.309
84556SOL    HW155500  10.362  12.833  12.279
84556SOL    HW255501  10.397  12.694  12.231
84557SOL     OW55502  12.419   8.472   0.284
84557SOL    HW155503  12.493   8.429   0.326
84557SOL    HW255504  12.418   8.560   0.320
84558SOL     OW55505   9.694   5.107   5.520
84558SOL    HW155506   9.721   5.197   5.539
84558SOL    HW255507   9.775   5.064   5.491
84559SOL     OW55508   6.910   5.455  11.332
84559SOL    HW155509   6.908   5.437  11.238
84559SOL    HW255510   6.891   5.549  11.339
84560SOL     OW55511  11.776  10.275   7.282
84560SOL    HW155512  11.788  10.211   7.352
84560SOL    HW255513  11.754  10.223   7.205
84561SOL     OW55514   8.870  11.743  14.139
84561SOL    HW155515   8.932  11.802  14.095
84561SOL    HW255516   8.831  11.797  14.207
84562SOL     OW55517   5.382  13.066   4.241
84562SOL    HW155518   5.329  13.036   4.167
84562SOL    HW255519   5.416  12.986   4.280
84563SOL     OW55520   6.950  14.727   8.878
84563SOL    HW155521   6.952  14.737   8.973
84563SOL    HW255522   6.873  14.674   8.861
84564SOL     OW55523   1.390   1.840  12.922
84564SOL    HW155524   1.485   1.853  12.912
84564SOL    HW255525   1.370   1.768  12.862
84565SOL     OW55526   0.115  11.972   3.018
84565SOL    HW155527   0.073  11.954   3.103
84565SOL    HW255528   0.088  11.898   2.963
84566SOL     OW55529  12.233   8.201  11.608
84566SOL    HW155530  12.199   8.226  11.522
84566SOL    HW255531  12.164   8.226  11.669
84567SOL     OW55532  12.749  13.100   0.381
84567SOL    HW155533  12.767  13.014   0.419
84567SOL    HW255534  12.814  13.158   0.421
84568SOL     OW55535   5.121   0.877   2.998
84568SOL    HW155536   5.073   0.891   3.080
84568SOL    HW255537   5.062   0.906   2.930
84569SOL     OW55538   3.525   7.623   0.502
84569SOL    HW155539   3.501   7.536   0.534
84569SOL    HW255540   3.579   7.660   0.573
84570SOL     OW55541   7.363   3.516   3.856
84570SOL    HW155542   7.323   3.603   3.852
84570SOL    HW255543   7.358   3.491   3.948
84571SOL     OW55544   0.442   8.100  13.961
84571SOL    HW155545   0.383   8.162  14.003
84571SOL    HW255546   0.481   8.051  14.034
84572SOL     OW55547  11.229  13.241   8.900
84572SOL    HW155548  11.311  13.193   8.904
84572SOL    HW255549  11.248  13.319   8.849
84573SOL     OW55550  11.568   7.262   5.596
84573SOL    HW155551  11.574   7.322   5.671
84573SOL    HW255552  11.477   7.270   5.567
84574SOL     OW55553   8.386   2.404   1.463
84574SOL    HW155554   8.381   2.315   1.428
84574SOL    HW255555   8.353   2.397   1.552
84575SOL     OW55556   4.243  10.856   3.516
84575SOL    HW155557   4.187  10.802   3.572
84575SOL    HW255558   4.185  10.890   3.448
84576SOL     OW55559   9.782   8.876  10.043
84576SOL    HW155560   9.722   8.911   9.977
84576SOL    HW255561   9.856   8.937  10.044
84577SOL     OW55562  10.088  14.731   3.646
84577SOL    HW155563  10.143  14.807   3.630
84577SOL    HW255564  10.076  14.691   3.560
84578SOL     OW55565  11.835   4.657   9.089
84578SOL    HW155566  11.924   4.670   9.122
84578SOL    HW255567  11.842   4.580   9.033
84579SOL     OW55568  14.880   2.647  12.481
84579SOL    HW155569  14.788   2.618  12.485
84579SOL    HW255570   0.006   2.711  12.552
84580SOL     OW55571   4.539   8.651  10.912
84580SOL    HW155572   4.587   8.682  10.988
84580SOL    HW255573   4.483   8.581  10.947
84581SOL     OW55574   5.209   7.446   1.866
84581SOL    HW155575   5.119   7.476   1.853
84581SOL    HW255576   5.263   7.510   1.818
84582SOL     OW55577   8.543   3.914   4.020
84582SOL    HW155578   8.510   3.858   4.090
84582SOL    HW255579   8.588   3.853   3.961
84583SOL     OW55580   4.413  10.460   9.101
84583SOL    HW155581   4.391  10.371   9.074
84583SOL    HW255582   4.430  10.506   9.018
84584SOL     OW55583   1.515   8.335  11.259
84584SOL    HW155584   1.468   8.368  11.335
84584SOL    HW255585   1.580   8.274  11.296
84585SOL     OW55586   5.452   6.327  13.770
84585SOL    HW155587   5.454   6.394  13.701
84585SOL    HW255588   5.370   6.280  13.756
84586SOL     OW55589   2.910  11.610   8.121
84586SOL    HW155590   2.823  11.577   8.144
84586SOL    HW255591   2.971  11.552   8.167
84587SOL     OW55592   7.981   4.592   4.943
84587SOL    HW155593   8.022   4.506   4.942
84587SOL    HW255594   8.035   4.644   5.002
84588SOL     OW55595   7.980   3.650   9.522
84588SOL    HW155596   7.916   3.704   9.476
84588SOL    HW255597   7.972   3.677   9.614
84589SOL     OW55598   1.251   6.841   8.073
84589SOL    HW155599   1.162   6.875   8.072
84589SOL    HW255600   1.284   6.863   8.160
84590SOL     OW55601   1.002   2.799   8.127
84590SOL    HW155602   0.990   2.824   8.036
84590SOL    HW255603   0.942   2.725   8.140
84591SOL     OW55604   0.805   6.540   1.223
84591SOL    HW155605   0.860   6.611   1.256
84591SOL    HW255606   0.723   6.548   1.272
84592SOL     OW55607  11.895  13.131  14.176
84592SOL    HW155608  11.930  13.218  14.158
84592SOL    HW255609  11.898  13.085  14.092
84593SOL     OW55610   2.978   3.159  13.662
84593SOL    HW155611   3.069   3.182  13.679
84593SOL    HW255612   2.962   3.188  13.572
84594SOL     OW55613   8.833  10.372   3.764
84594SOL    HW155614   8.768  10.354   3.696
84594SOL    HW255615   8.918  10.365   3.720
84595SOL     OW55616  13.965   4.773   0.185
84595SOL    HW155617  13.949   4.689   0.227
84595SOL    HW255618  14.049   4.803   0.221
84596SOL     OW55619  13.897  10.678   6.884
84596SOL    HW155620  13.903  10.638   6.971
84596SOL    HW255621  13.823  10.632   6.842
84597SOL     OW55622  13.713  10.389  14.192
84597SOL    HW155623  13.746  10.478  14.186
84597SOL    HW255624  13.620  10.399  14.214
84598SOL     OW55625   0.051   6.153   4.713
84598SOL    HW155626   0.065   6.220   4.779
84598SOL    HW255627   0.137   6.141   4.672
84599SOL     OW55628   5.301  10.254   3.623
84599SOL    HW155629   5.357  10.186   3.658
84599SOL    HW255630   5.332  10.268   3.534
84600SOL     OW55631   3.620   7.012   2.781
84600SOL    HW155632   3.602   6.950   2.711
84600SOL    HW255633   3.603   6.964   2.862
84601SOL     OW55634   3.998   3.592   3.149
84601SOL    HW155635   3.974   3.681   3.123
84601SOL    HW255636   3.916   3.554   3.179
84602SOL     OW55637  11.656   8.597  13.710
84602SOL    HW155638  11.728   8.534  13.707
84602SOL    HW255639  11.664   8.646  13.629
84603SOL     OW55640   8.144   3.499  12.663
84603SOL    HW155641   8.142   3.416  12.711
84603SOL    HW255642   8.128   3.475  12.572
84604SOL     OW55643  11.670   1.448   6.764
84604SOL    HW155644  11.592   1.451   6.820
84604SOL    HW255645  11.738   1.493   6.814
84605SOL     OW55646   7.260   9.778  13.322
84605SOL    HW155647   7.321   9.844  13.289
84605SOL    HW255648   7.215   9.746  13.244
84606SOL     OW55649   9.510   3.866   6.752
84606SOL    HW155650   9.453   3.790   6.739
84606SOL    HW255651   9.586   3.831   6.800
84607SOL     OW55652   3.628   6.897  11.463
84607SOL    HW155653   3.597   6.827  11.521
84607SOL    HW255654   3.568   6.893  11.388
84608SOL     OW55655  14.480   5.594   4.211
84608SOL    HW155656  14.452   5.600   4.119
84608SOL    HW255657  14.399   5.593   4.261
84609SOL     OW55658   8.608   8.564  11.290
84609SOL    HW155659   8.697   8.535  11.309
84609SOL    HW255660   8.553   8.490  11.314
84610SOL     OW55661  10.438   4.624   0.912
84610SOL    HW155662  10.494   4.564   0.961
84610SOL    HW255663  10.499   4.684   0.868
84611SOL     OW55664   5.621   2.564  12.168
84611SOL    HW155665   5.539   2.607  12.145
84611SOL    HW255666   5.645   2.602  12.253
84612SOL     OW55667  12.695   5.040  14.113
84612SOL    HW155668  12.699   4.957  14.065
84612SOL    HW255669  12.771   5.089  14.082
84613SOL     OW55670  11.555  10.612  11.969
84613SOL    HW155671  11.492  10.563  11.915
84613SOL    HW255672  11.541  10.703  11.945
84614SOL     OW55673   0.884   0.789   5.266
84614SOL    HW155674   0.820   0.748   5.324
84614SOL    HW255675   0.846   0.780   5.179
84615SOL     OW55676   3.795   8.504  10.274
84615SOL    HW155677   3.795   8.441  10.202
84615SOL    HW255678   3.756   8.583  10.237
84616SOL     OW55679   0.983   8.415   1.896
84616SOL    HW155680   1.041   8.444   1.825
84616SOL    HW255681   0.920   8.357   1.853
84617SOL     OW55682   5.305   5.938  13.551
84617SOL    HW155683   5.236   5.915  13.489
84617SOL    HW255684   5.260   5.942  13.636
84618SOL     OW55685   4.505   9.609   1.154
84618SOL    HW155686   4.541   9.670   1.219
84618SOL    HW255687   4.552   9.527   1.170
84619SOL     OW55688   7.352   7.845   5.944
84619SOL    HW155689   7.336   7.937   5.967
84619SOL    HW255690   7.269   7.814   5.908
84620SOL     OW55691   4.762   5.367   4.415
84620SOL    HW155692   4.779   5.288   4.467
84620SOL    HW255693   4.845   5.414   4.414
84621SOL     OW55694  10.472   3.307   4.560
84621SOL    HW155695  10.499   3.392   4.597
84621SOL    HW255696  10.454   3.253   4.637
84622SOL     OW55697   4.135  11.198   8.781
84622SOL    HW155698   4.217  11.237   8.751
84622SOL    HW255699   4.072  11.271   8.782
84623SOL     OW55700   1.145  10.711   5.309
84623SOL    HW155701   1.106  10.796   5.293
84623SOL    HW255702   1.132  10.695   5.403
84624SOL     OW55703   2.732   8.519   2.557
84624SOL    HW155704   2.749   8.610   2.584
84624SOL    HW255705   2.812   8.472   2.580
84625SOL     OW55706   5.267   9.873  14.304
84625SOL    HW155707   5.192   9.851  14.359
84625SOL    HW255708   5.240   9.849  14.215
84626SOL     OW55709  11.049   9.528   4.534
84626SOL    HW155710  11.086   9.450   4.492
84626SOL    HW255711  11.123   9.570   4.577
84627SOL     OW55712  10.550   7.944  12.138
84627SOL    HW155713  10.463   7.927  12.099
84627SOL    HW255714  10.604   7.970  12.064
84628SOL     OW55715   5.424   2.500  14.419
84628SOL    HW155716   5.331   2.494  14.395
84628SOL    HW255717   5.424   2.535  14.508
84629SOL     OW55718   7.347   0.991   4.168
84629SOL    HW155719   7.261   0.966   4.135
84629SOL    HW255720   7.354   1.085   4.150
84630SOL     OW55721   5.720  11.209   3.749
84630SOL    HW155722   5.704  11.302   3.732
84630SOL    HW255723   5.775  11.181   3.676
84631SOL     OW55724  13.913   3.517  13.467
84631SOL    HW155725  13.984   3.556  13.518
84631SOL    HW255726  13.849   3.489  13.532
84632SOL     OW55727   3.717   8.823  12.770
84632SOL    HW155728   3.674   8.741  12.796
84632SOL    HW255729   3.680   8.889  12.829
84633SOL     OW55730   1.957  13.372   2.710
84633SOL    HW155731   1.939  13.412   2.625
84633SOL    HW255732   1.935  13.279   2.698
84634SOL     OW55733   8.405  11.485   7.743
84634SOL    HW155734   8.439  11.527   7.664
84634SOL    HW255735   8.314  11.513   7.748
84635SOL     OW55736   4.480   6.684  14.356
84635SOL    HW155737   4.544   6.696  14.426
84635SOL    HW255738   4.530   6.691  14.275
84636SOL     OW55739  10.964  13.419   9.722
84636SOL    HW155740  11.000  13.488   9.665
84636SOL    HW255741  10.914  13.363   9.663
84637SOL     OW55742  12.622   7.071   7.029
84637SOL    HW155743  12.622   7.038   6.940
84637SOL    HW255744  12.560   7.015   7.076
84638SOL     OW55745   0.609   9.512   5.630
84638SOL    HW155746   0.648   9.564   5.700
84638SOL    HW255747   0.554   9.574   5.581
84639SOL     OW55748   5.726   8.697  12.578
84639SOL    HW155749   5.685   8.687  12.492
84639SOL    HW255750   5.666   8.754  12.626
84640SOL     OW55751  12.009   0.633   6.729
84640SOL    HW155752  11.998   0.698   6.659
84640SOL    HW255753  11.920   0.615   6.758
84641SOL     OW55754   7.356   5.287   8.222
84641SOL    HW155755   7.371   5.378   8.250
84641SOL    HW255756   7.442   5.246   8.225
84642SOL     OW55757   2.491  12.160  13.117
84642SOL    HW155758   2.447  12.236  13.079
84642SOL    HW255759   2.496  12.179  13.211
84643SOL     OW55760   4.154   1.142   3.699
84643SOL    HW155761   4.237   1.130   3.652
84643SOL    HW255762   4.144   1.237   3.705
84644SOL     OW55763   7.190  12.441   2.888
84644SOL    HW155764   7.210  12.519   2.939
84644SOL    HW255765   7.256  12.441   2.818
84645SOL     OW55766  14.088   1.555  12.340
84645SOL    HW155767  14.051   1.591  12.421
84645SOL    HW255768  14.091   1.461  12.356
84646SOL     OW55769   3.879  10.993  11.547
84646SOL    HW155770   3.858  10.904  11.576
84646SOL    HW255771   3.921  11.033  11.623
84647SOL     OW55772  11.212  13.453  13.856
84647SOL    HW155773  11.253  13.529  13.898
84647SOL    HW255774  11.131  13.439  13.906
84648SOL     OW55775  14.837   7.731   3.859
84648SOL    HW155776  14.847   7.763   3.949
84648SOL    HW255777  14.790   7.648   3.869
84649SOL     OW55778   2.469   8.926  10.377
84649SOL    HW155779   2.507   8.909  10.291
84649SOL    HW255780   2.517   8.869  10.436
84650SOL     OW55781  12.015   9.689   8.496
84650SOL    HW155782  11.956   9.651   8.561
84650SOL    HW255783  11.970   9.675   8.412
84651SOL     OW55784  12.976  12.268   6.388
84651SOL    HW155785  12.919  12.344   6.374
84651SOL    HW255786  12.933  12.197   6.340
84652SOL     OW55787   8.901   4.485  13.675
84652SOL    HW155788   8.967   4.434  13.627
84652SOL    HW255789   8.946   4.567  13.696
84653SOL     OW55790   9.263   3.683  13.015
84653SOL    HW155791   9.325   3.611  13.024
84653SOL    HW255792   9.181   3.648  13.051
84654SOL     OW55793  13.347   9.723  10.402
84654SOL    HW155794  13.271   9.777  10.382
84654SOL    HW255795  13.409   9.742  10.331
84655SOL     OW55796   5.477  13.670   7.004
84655SOL    HW155797   5.470  13.663   6.908
84655SOL    HW255798   5.446  13.759   7.023
84656SOL     OW55799   3.355   0.651  11.742
84656SOL    HW155800   3.399   0.576  11.781
84656SOL    HW255801   3.289   0.612  11.684
84657SOL     OW55802  13.984  11.080   8.329
84657SOL    HW155803  13.947  11.086   8.418
84657SOL    HW255804  14.002  11.171   8.305
84658SOL     OW55805  11.449  12.519   5.754
84658SOL    HW155806  11.514  12.466   5.707
84658SOL    HW255807  11.444  12.478   5.841
84659SOL     OW55808  11.273  14.364  10.030
84659SOL    HW155809  11.237  14.346  10.116
84659SOL    HW255810  11.233  14.447  10.004
84660SOL     OW55811  13.328   0.470  11.646
84660SOL    HW155812  13.258   0.534  11.660
84660SOL    HW255813  13.394   0.491  11.712
84661SOL     OW55814  11.477   6.261   9.650
84661SOL    HW155815  11.495   6.168   9.661
84661SOL    HW255816  11.510   6.302   9.730
84662SOL     OW55817   2.335   2.919   3.380
84662SOL    HW155818   2.320   2.996   3.326
84662SOL    HW255819   2.303   2.846   3.328
84663SOL     OW55820  11.279  13.683   0.474
84663SOL    HW155821  11.321  13.623   0.412
84663SOL    HW255822  11.334  13.679   0.552
84664SOL     OW55823   3.854   4.002  12.839
84664SOL    HW155824   3.820   4.024  12.926
84664SOL    HW255825   3.835   3.909  12.829
84665SOL     OW55826   0.801   8.038  11.248
84665SOL    HW155827   0.745   7.985  11.190
84665SOL    HW255828   0.800   8.125  11.208
84666SOL     OW55829   8.223   7.825  12.918
84666SOL    HW155830   8.187   7.765  12.984
84666SOL    HW255831   8.211   7.779  12.835
84667SOL     OW55832   3.384  13.577   6.303
84667SOL    HW155833   3.340  13.598   6.220
84667SOL    HW255834   3.316  13.588   6.369
84668SOL     OW55835   7.705   8.835  12.441
84668SOL    HW155836   7.778   8.773  12.447
84668SOL    HW255837   7.707   8.883  12.523
84669SOL     OW55838   4.925   4.944   6.623
84669SOL    HW155839   4.913   4.979   6.535
84669SOL    HW255840   4.859   4.988   6.676
84670SOL     OW55841  11.084  11.655   6.399
84670SOL    HW155842  11.054  11.734   6.444
84670SOL    HW255843  11.114  11.687   6.314
84671SOL     OW55844   3.219   1.926   7.223
84671SOL    HW155845   3.144   1.900   7.169
84671SOL    HW255846   3.237   2.016   7.197
84672SOL     OW55847   7.999   1.848   6.632
84672SOL    HW155848   8.006   1.902   6.711
84672SOL    HW255849   7.917   1.876   6.591
84673SOL     OW55850   8.923   4.443   5.645
84673SOL    HW155851   8.847   4.499   5.659
84673SOL    HW255852   8.967   4.441   5.730
84674SOL     OW55853   8.636  14.185  12.789
84674SOL    HW155854   8.593  14.144  12.715
84674SOL    HW255855   8.575  14.254  12.817
84675SOL     OW55856   2.391  10.315  11.882
84675SOL    HW155857   2.419  10.224  11.881
84675SOL    HW255858   2.305  10.314  11.839
84676SOL     OW55859   4.873   3.462  14.429
84676SOL    HW155860   4.901   3.450  14.339
84676SOL    HW255861   4.924   3.399  14.479
84677SOL     OW55862  12.908   3.646   2.883
84677SOL    HW155863  12.968   3.711   2.920
84677SOL    HW255864  12.896   3.582   2.953
84678SOL     OW55865   1.319  13.602  11.943
84678SOL    HW155866   1.263  13.675  11.969
84678SOL    HW255867   1.323  13.607  11.847
84679SOL     OW55868   3.590   7.972   5.233
84679SOL    HW155869   3.638   8.033   5.289
84679SOL    HW255870   3.575   7.895   5.288
84680SOL     OW55871   5.500   4.050  14.158
84680SOL    HW155872   5.442   4.078  14.229
84680SOL    HW255873   5.459   4.085  14.079
84681SOL     OW55874  14.330   5.734   0.372
84681SOL    HW155875  14.364   5.816   0.409
84681SOL    HW255876  14.341   5.744   0.278
84682SOL     OW55877   6.764   4.873   1.036
84682SOL    HW155878   6.732   4.925   0.962
84682SOL    HW255879   6.705   4.798   1.040
84683SOL     OW55880  10.695   7.748   6.399
84683SOL    HW155881  10.759   7.806   6.358
84683SOL    HW255882  10.711   7.756   6.493
84684SOL     OW55883   3.560   2.378   0.358
84684SOL    HW155884   3.588   2.458   0.314
84684SOL    HW255885   3.496   2.339   0.299
84685SOL     OW55886   7.889  14.114  13.742
84685SOL    HW155887   7.947  14.086  13.814
84685SOL    HW255888   7.824  14.045  13.735
84686SOL     OW55889   3.990  11.707   0.705
84686SOL    HW155890   4.002  11.799   0.725
84686SOL    HW255891   3.897  11.690   0.722
84687SOL     OW55892   8.511   1.532   5.136
84687SOL    HW155893   8.431   1.582   5.155
84687SOL    HW255894   8.534   1.556   5.047
84688SOL     OW55895  10.507   1.485  12.042
84688SOL    HW155896  10.552   1.568  12.027
84688SOL    HW255897  10.455   1.471  11.963
84689SOL     OW55898   2.304   6.374   4.869
84689SOL    HW155899   2.214   6.405   4.879
84689SOL    HW255900   2.329   6.398   4.780
84690SOL     OW55901   9.656   4.324  11.837
84690SOL    HW155902   9.695   4.303  11.753
84690SOL    HW255903   9.715   4.285  11.902
84691SOL     OW55904   9.897   7.843   5.316
84691SOL    HW155905   9.868   7.833   5.407
84691SOL    HW255906   9.852   7.774   5.268
84692SOL     OW55907   1.006   8.121   8.841
84692SOL    HW155908   0.933   8.151   8.786
84692SOL    HW255909   1.071   8.190   8.835
84693SOL     OW55910   6.000   9.790  13.208
84693SOL    HW155911   5.921   9.843  13.205
84693SOL    HW255912   6.031   9.797  13.298
84694SOL     OW55913  12.691   1.574   2.478
84694SOL    HW155914  12.610   1.565   2.529
84694SOL    HW255915  12.736   1.491   2.490
84695SOL     OW55916   9.931  12.710   1.835
84695SOL    HW155917  10.000  12.770   1.861
84695SOL    HW255918   9.965  12.623   1.856
84696SOL     OW55919  14.035   5.616   3.991
84696SOL    HW155920  13.953   5.614   3.942
84696SOL    HW255921  14.080   5.695   3.960
84697SOL     OW55922   0.367   9.394   7.315
84697SOL    HW155923   0.328   9.351   7.239
84697SOL    HW255924   0.447   9.346   7.332
84698SOL     OW55925   8.223  12.644  10.916
84698SOL    HW155926   8.313  12.673  10.899
84698SOL    HW255927   8.223  12.552  10.890
84699SOL     OW55928  14.730  12.033  12.665
84699SOL    HW155929  14.780  11.962  12.707
84699SOL    HW255930  14.796  12.094  12.634
84700SOL     OW55931  14.335   3.149   1.715
84700SOL    HW155932  14.274   3.193   1.656
84700SOL    HW255933  14.349   3.063   1.675
84701SOL     OW55934   3.439   0.196  14.662
84701SOL    HW155935   3.407   0.283  14.684
84701SOL    HW255936   3.367   0.154  14.616
84702SOL     OW55937   7.299  10.765   2.942
84702SOL    HW155938   7.381  10.715   2.951
84702SOL    HW255939   7.262  10.734   2.860
84703SOL     OW55940   1.875  11.771  10.545
84703SOL    HW155941   1.809  11.783  10.613
84703SOL    HW255942   1.944  11.834  10.567
84704SOL     OW55943   3.451  13.883  13.371
84704SOL    HW155944   3.416  13.899  13.283
84704SOL    HW255945   3.373  13.871  13.426
84705SOL     OW55946   6.016   2.835   2.143
84705SOL    HW155947   6.060   2.819   2.226
84705SOL    HW255948   6.049   2.766   2.085
84706SOL     OW55949   1.409   5.882  12.042
84706SOL    HW155950   1.358   5.809  12.077
84706SOL    HW255951   1.456   5.844  11.967
84707SOL     OW55952   4.268  11.398   2.463
84707SOL    HW155953   4.177  11.411   2.437
84707SOL    HW255954   4.290  11.310   2.434
84708SOL     OW55955   6.954  14.274   6.055
84708SOL    HW155956   7.023  14.274   6.121
84708SOL    HW255957   6.901  14.197   6.074
84709SOL     OW55958   1.452   1.781   2.544
84709SOL    HW155959   1.388   1.831   2.593
84709SOL    HW255960   1.457   1.825   2.459
84710SOL     OW55961   1.967  13.862   8.727
84710SOL    HW155962   1.919  13.879   8.646
84710SOL    HW255963   1.995  13.771   8.719
84711SOL     OW55964  14.219   9.420   5.292
84711SOL    HW155965  14.264   9.496   5.329
84711SOL    HW255966  14.132   9.422   5.333
84712SOL     OW55967  10.068  14.571   2.410
84712SOL    HW155968   9.988  14.520   2.423
84712SOL    HW255969  10.063  14.601   2.319
84713SOL     OW55970  12.524   2.416   6.474
84713SOL    HW155971  12.511   2.421   6.379
84713SOL    HW255972  12.591   2.349   6.485
84714SOL     OW55973  12.068   6.661   2.436
84714SOL    HW155974  12.132   6.698   2.497
84714SOL    HW255975  11.983   6.687   2.471
84715SOL     OW55976   7.181  11.453  13.006
84715SOL    HW155977   7.242  11.442  12.933
84715SOL    HW255978   7.114  11.386  12.990
84716SOL     OW55979   7.084  10.649   6.163
84716SOL    HW155980   7.083  10.668   6.257
84716SOL    HW255981   7.164  10.691   6.132
84717SOL     OW55982   1.286   6.446   7.472
84717SOL    HW155983   1.369   6.400   7.460
84717SOL    HW255984   1.222   6.389   7.428
84718SOL     OW55985  12.267  10.321   4.545
84718SOL    HW155986  12.276  10.338   4.639
84718SOL    HW255987  12.357  10.325   4.512
84719SOL     OW55988   6.290  12.887   8.633
84719SOL    HW155989   6.262  12.966   8.680
84719SOL    HW255990   6.212  12.858   8.586
84720SOL     OW55991  11.201   1.048   3.013
84720SOL    HW155992  11.164   0.962   2.997
84720SOL    HW255993  11.239   1.042   3.101
84721SOL     OW55994   9.563   3.063   4.672
84721SOL    HW155995   9.593   3.139   4.722
84721SOL    HW255996   9.617   2.991   4.704
84722SOL     OW55997   1.127  14.480   9.498
84722SOL    HW155998   1.192  14.478   9.428
84722SOL    HW255999   1.170  14.436   9.572
84723SOL     OW56000  11.563   8.403   2.737
84723SOL    HW156001  11.632   8.337   2.741
84723SOL    HW256002  11.542   8.422   2.828
84724SOL     OW56003  11.786  10.229   7.866
84724SOL    HW156004  11.761  10.289   7.796
84724SOL    HW256005  11.735  10.258   7.941
84725SOL     OW56006  11.755  11.820   5.693
84725SOL    HW156007  11.792  11.904   5.719
84725SOL    HW256008  11.752  11.823   5.598
84726SOL     OW56009   1.010  11.374   0.167
84726SOL    HW156010   0.953  11.320   0.220
84726SOL    HW256011   0.965  11.458   0.159
84727SOL     OW56012   8.032   0.458   1.219
84727SOL    HW156013   7.994   0.486   1.135
84727SOL    HW256014   7.993   0.372   1.235
84728SOL     OW56015   3.418   2.320   7.441
84728SOL    HW156016   3.341   2.358   7.398
84728SOL    HW256017   3.431   2.375   7.518
84729SOL     OW56018   0.977   2.177   5.674
84729SOL    HW156019   0.966   2.214   5.761
84729SOL    HW256020   1.057   2.126   5.679
84730SOL     OW56021   5.402  10.146   1.472
84730SOL    HW156022   5.407  10.132   1.567
84730SOL    HW256023   5.444  10.231   1.458
84731SOL     OW56024   2.059  14.420   3.842
84731SOL    HW156025   2.147  14.445   3.815
84731SOL    HW256026   2.026  14.496   3.890
84732SOL     OW56027   9.564   7.983   0.401
84732SOL    HW156028   9.657   7.971   0.421
84732SOL    HW256029   9.562   8.013   0.310
84733SOL     OW56030  14.723  11.015  13.365
84733SOL    HW156031  14.767  11.097  13.343
84733SOL    HW256032  14.714  10.969  13.281
84734SOL     OW56033   2.157  11.465  11.047
84734SOL    HW156034   2.222  11.449  11.116
84734SOL    HW256035   2.193  11.424  10.969
84735SOL     OW56036   7.165   9.936  14.630
84735SOL    HW156037   7.073   9.923  14.606
84735SOL    HW256038   7.213   9.928  14.548
84736SOL     OW56039   9.838   6.780   4.685
84736SOL    HW156040   9.860   6.771   4.592
84736SOL    HW256041   9.803   6.695   4.710
84737SOL     OW56042   8.153   2.338   4.982
84737SOL    HW156043   8.120   2.321   5.071
84737SOL    HW256044   8.148   2.433   4.972
84738SOL     OW56045   2.966   9.001   4.762
84738SOL    HW156046   3.020   8.991   4.840
84738SOL    HW256047   2.960   8.913   4.725
84739SOL     OW56048  12.067   4.838   3.176
84739SOL    HW156049  12.065   4.813   3.083
84739SOL    HW256050  11.986   4.803   3.212
84740SOL     OW56051   2.314   2.942  14.620
84740SOL    HW156052   2.385   2.969  14.678
84740SOL    HW256053   2.353   2.939  14.533
84741SOL     OW56054   7.370   5.719   2.593
84741SOL    HW156055   7.352   5.776   2.667
84741SOL    HW256056   7.401   5.777   2.524
84742SOL     OW56057   3.588   1.174   3.374
84742SOL    HW156058   3.610   1.217   3.457
84742SOL    HW256059   3.672   1.164   3.330
84743SOL     OW56060   5.386   4.265   8.041
84743SOL    HW156061   5.390   4.215   8.122
84743SOL    HW256062   5.455   4.331   8.050
84744SOL     OW56063   8.235   9.879  13.658
84744SOL    HW156064   8.325   9.859  13.630
84744SOL    HW256065   8.243   9.965  13.700
84745SOL     OW56066   0.601   5.591   9.836
84745SOL    HW156067   0.518   5.639   9.829
84745SOL    HW256068   0.667   5.660   9.848
84746SOL     OW56069  12.181   9.779  12.410
84746SOL    HW156070  12.261   9.729  12.398
84746SOL    HW256071  12.174   9.834  12.332
84747SOL     OW56072   3.949   1.426   7.089
84747SOL    HW156073   3.963   1.359   7.022
84747SOL    HW256074   3.880   1.390   7.145
84748SOL     OW56075  13.530  11.869   4.532
84748SOL    HW156076  13.483  11.803   4.482
84748SOL    HW256077  13.621  11.861   4.503
84749SOL     OW56078   4.847   4.404  13.294
84749SOL    HW156079   4.809   4.453  13.367
84749SOL    HW256080   4.937   4.436  13.287
84750SOL     OW56081   0.045   3.024   0.655
84750SOL    HW156082   0.060   2.951   0.594
84750SOL    HW256083   0.133   3.052   0.680
84751SOL     OW56084  10.737   3.922   0.604
84751SOL    HW156085  10.737   3.875   0.687
84751SOL    HW256086  10.828   3.917   0.574
84752SOL     OW56087   1.134  13.942   1.189
84752SOL    HW156088   1.220  13.925   1.150
84752SOL    HW256089   1.085  13.860   1.177
84753SOL     OW56090   5.232   3.277   5.764
84753SOL    HW156091   5.188   3.302   5.846
84753SOL    HW256092   5.325   3.285   5.784
84754SOL     OW56093   4.550   0.063  11.721
84754SOL    HW156094   4.552   0.158  11.722
84754SOL    HW256095   4.505   0.041  11.640
84755SOL     OW56096  12.035   3.704   4.412
84755SOL    HW156097  11.941   3.698   4.429
84755SOL    HW256098  12.053   3.798   4.406
84756SOL     OW56099   8.345  12.185   9.726
84756SOL    HW156100   8.420  12.195   9.667
84756SOL    HW256101   8.383  12.154   9.808
84757SOL     OW56102   9.371   5.073   9.063
84757SOL    HW156103   9.443   5.104   9.118
84757SOL    HW256104   9.298   5.060   9.123
84758SOL     OW56105   9.095  11.073   4.526
84758SOL    HW156106   9.059  11.027   4.602
84758SOL    HW256107   9.177  11.028   4.507
84759SOL     OW56108   2.771   8.500   1.845
84759SOL    HW156109   2.724   8.567   1.796
84759SOL    HW256110   2.829   8.550   1.903
84760SOL     OW56111   8.099  11.406   9.332
84760SOL    HW156112   8.139  11.332   9.288
84760SOL    HW256113   8.007  11.403   9.306
84761SOL     OW56114   1.119  12.558  14.247
84761SOL    HW156115   1.084  12.612  14.176
84761SOL    HW256116   1.206  12.593  14.263
84762SOL     OW56117   5.498  10.725  12.369
84762SOL    HW156118   5.441  10.739  12.445
84762SOL    HW256119   5.534  10.637  12.382
84763SOL     OW56120  12.012  13.107   6.629
84763SOL    HW156121  12.035  13.166   6.558
84763SOL    HW256122  12.017  13.019   6.591
84764SOL     OW56123   4.818   9.020   8.572
84764SOL    HW156124   4.877   9.093   8.592
84764SOL    HW256125   4.730   9.057   8.580
84765SOL     OW56126   1.201  13.653  14.813
84765SOL    HW156127   1.203  13.557  14.806
84765SOL    HW256128   1.240  13.671   0.016
84766SOL     OW56129   6.896  11.196  12.491
84766SOL    HW156130   6.857  11.246  12.563
84766SOL    HW256131   6.882  11.250  12.413
84767SOL     OW56132  11.172   6.097   4.429
84767SOL    HW156133  11.098   6.058   4.476
84767SOL    HW256134  11.250   6.063   4.474
84768SOL     OW56135   1.300   4.217   7.653
84768SOL    HW156136   1.308   4.258   7.567
84768SOL    HW256137   1.292   4.290   7.714
84769SOL     OW56138   7.114  14.500   8.872
84769SOL    HW156139   7.050  14.569   8.886
84769SOL    HW256140   7.094  14.434   8.940
84770SOL     OW56141  10.739  10.766   8.837
84770SOL    HW156142  10.722  10.847   8.886
84770SOL    HW256143  10.655  10.743   8.797
84771SOL     OW56144  12.066  14.782   4.705
84771SOL    HW156145  12.087  14.811   4.793
84771SOL    HW256146  12.015  14.854   4.667
84772SOL     OW56147  10.019   4.102   1.595
84772SOL    HW156148  10.093   4.148   1.635
84772SOL    HW256149   9.943   4.130   1.645
84773SOL     OW56150  12.347   4.051   8.464
84773SOL    HW156151  12.405   4.035   8.539
84773SOL    HW256152  12.373   4.137   8.431
84774SOL     OW56153   4.262   8.152   6.727
84774SOL    HW156154   4.335   8.170   6.668
84774SOL    HW256155   4.298   8.166   6.815
84775SOL     OW56156  13.135   6.274   5.483
84775SOL    HW156157  13.084   6.203   5.523
84775SOL    HW256158  13.093   6.289   5.399
84776SOL     OW56159  12.438  14.405  10.959
84776SOL    HW156160  12.484  14.323  10.943
84776SOL    HW256161  12.496  14.455  11.016
84777SOL     OW56162   5.548  13.325   9.059
84777SOL    HW156163   5.528  13.337   9.152
84777SOL    HW256164   5.483  13.262   9.029
84778SOL     OW56165   5.330   8.321   1.870
84778SOL    HW156166   5.306   8.406   1.906
84778SOL    HW256167   5.423   8.328   1.850
84779SOL     OW56168   5.267   3.287   3.254
84779SOL    HW156169   5.319   3.364   3.231
84779SOL    HW256170   5.191   3.323   3.300
84780SOL     OW56171  10.097   8.041   5.197
84780SOL    HW156172  10.041   7.981   5.247
84780SOL    HW256173  10.129   8.103   5.263
84781SOL     OW56174  10.503  14.740   5.726
84781SOL    HW156175  10.428  14.785   5.687
84781SOL    HW256176  10.532  14.679   5.658
84782SOL     OW56177  13.345   2.718   8.031
84782SOL    HW156178  13.276   2.768   7.988
84782SOL    HW256179  13.333   2.735   8.125
84783SOL     OW56180   3.974   2.537   5.324
84783SOL    HW156181   3.928   2.454   5.315
84783SOL    HW256182   3.945   2.590   5.250
84784SOL     OW56183   5.187   8.281   9.967
84784SOL    HW156184   5.274   8.275   9.927
84784SOL    HW256185   5.189   8.219  10.040
84785SOL     OW56186   8.491   5.936   1.429
84785SOL    HW156187   8.581   5.962   1.447
84785SOL    HW256188   8.475   5.863   1.489
84786SOL     OW56189   1.255  10.389   0.568
84786SOL    HW156190   1.223  10.402   0.657
84786SOL    HW256191   1.189  10.333   0.527
84787SOL     OW56192   5.976   3.011  13.216
84787SOL    HW156193   5.922   3.090  13.216
84787SOL    HW256194   5.978   2.982  13.125
84788SOL     OW56195   4.265   5.853  12.891
84788SOL    HW156196   4.341   5.808  12.926
84788SOL    HW256197   4.207   5.866  12.966
84789SOL     OW56198   3.667   4.570  10.504
84789SOL    HW156199   3.640   4.604  10.589
84789SOL    HW256200   3.684   4.477  10.520
84790SOL     OW56201   3.250   2.268   3.726
84790SOL    HW156202   3.188   2.215   3.675
84790SOL    HW256203   3.224   2.359   3.707
84791SOL     OW56204  10.570   1.458  13.049
84791SOL    HW156205  10.575   1.398  12.974
84791SOL    HW256206  10.488   1.434  13.093
84792SOL     OW56207   8.276  14.486   0.196
84792SOL    HW156208   8.260  14.544   0.122
84792SOL    HW256209   8.372  14.487   0.207
84793SOL     OW56210   9.960  14.585   1.133
84793SOL    HW156211  10.044  14.606   1.091
84793SOL    HW256212   9.971  14.613   1.224
84794SOL     OW56213   6.689   1.502   3.461
84794SOL    HW156214   6.657   1.515   3.372
84794SOL    HW256215   6.768   1.555   3.466
84795SOL     OW56216  10.035   6.905   2.618
84795SOL    HW156217  10.009   6.990   2.581
84795SOL    HW256218  10.129   6.913   2.633
84796SOL     OW56219   7.190   8.286   0.409
84796SOL    HW156220   7.131   8.286   0.484
84796SOL    HW256221   7.275   8.311   0.446
84797SOL     OW56222  10.569   9.146   3.917
84797SOL    HW156223  10.540   9.209   3.983
84797SOL    HW256224  10.659   9.172   3.897
84798SOL     OW56225   5.872   6.327  11.228
84798SOL    HW156226   5.913   6.310  11.313
84798SOL    HW256227   5.830   6.412  11.239
84799SOL     OW56228  11.240  10.603   6.092
84799SOL    HW156229  11.204  10.515   6.105
84799SOL    HW256230  11.276  10.626   6.178
84800SOL     OW56231   0.868   0.283   1.683
84800SOL    HW156232   0.949   0.332   1.699
84800SOL    HW256233   0.826   0.278   1.768
84801SOL     OW56234   3.089   1.145  11.712
84801SOL    HW156235   3.046   1.188  11.786
84801SOL    HW256236   3.183   1.160  11.728
84802SOL     OW56237   4.238   7.571  14.226
84802SOL    HW156238   4.275   7.490  14.260
84802SOL    HW256239   4.188   7.544  14.149
84803SOL     OW56240   6.768   2.427   9.551
84803SOL    HW156241   6.808   2.365   9.490
84803SOL    HW256242   6.841   2.479   9.584
84804SOL     OW56243   8.375  13.264   1.894
84804SOL    HW156244   8.375  13.217   1.811
84804SOL    HW256245   8.315  13.337   1.880
84805SOL     OW56246   5.336   9.254  11.997
84805SOL    HW156247   5.304   9.324  11.940
84805SOL    HW256248   5.370   9.187  11.937
84806SOL     OW56249  14.479   6.242   6.572
84806SOL    HW156250  14.494   6.254   6.479
84806SOL    HW256251  14.522   6.316   6.614
84807SOL     OW56252  12.021   5.383   4.274
84807SOL    HW156253  12.049   5.391   4.183
84807SOL    HW256254  12.034   5.291   4.295
84808SOL     OW56255  11.465   0.635  11.110
84808SOL    HW156256  11.495   0.714  11.157
84808SOL    HW256257  11.379   0.616  11.148
84809SOL     OW56258   8.794   9.638   9.351
84809SOL    HW156259   8.782   9.544   9.336
84809SOL    HW256260   8.759   9.654   9.438
84810SOL     OW56261  12.006  12.742  12.491
84810SOL    HW156262  12.097  12.712  12.497
84810SOL    HW256263  11.993  12.760  12.398
84811SOL     OW56264   4.381   0.456   8.522
84811SOL    HW156265   4.344   0.473   8.435
84811SOL    HW256266   4.312   0.482   8.583
84812SOL     OW56267   0.242   5.455   2.994
84812SOL    HW156268   0.168   5.396   3.012
84812SOL    HW256269   0.201   5.540   2.977
84813SOL     OW56270   4.118   8.974   3.959
84813SOL    HW156271   4.077   9.049   4.001
84813SOL    HW256272   4.166   9.012   3.885
84814SOL     OW56273   8.983  13.222   6.397
84814SOL    HW156274   9.047  13.290   6.376
84814SOL    HW256275   8.899  13.268   6.398
84815SOL     OW56276   8.817   2.774   9.014
84815SOL    HW156277   8.788   2.848   9.067
84815SOL    HW256278   8.742   2.714   9.013
84816SOL     OW56279   3.271  12.424   0.299
84816SOL    HW156280   3.182  12.415   0.333
84816SOL    HW256281   3.262  12.482   0.223
84817SOL     OW56282  12.451   4.481   9.067
84817SOL    HW156283  12.451   4.419   9.139
84817SOL    HW256284  12.373   4.459   9.016
84818SOL     OW56285   4.905  10.351  12.691
84818SOL    HW156286   4.875  10.375  12.779
84818SOL    HW256287   4.854  10.407  12.632
84819SOL     OW56288  10.102   6.282  12.579
84819SOL    HW156289  10.127   6.227  12.654
84819SOL    HW256290  10.182   6.330  12.557
84820SOL     OW56291   0.920  14.721   4.103
84820SOL    HW156292   0.848  14.736   4.164
84820SOL    HW256293   0.982  14.792   4.121
84821SOL     OW56294   9.735   5.714  14.110
84821SOL    HW156295   9.652   5.687  14.150
84821SOL    HW256296   9.783   5.632  14.097
84822SOL     OW56297   9.099   6.172  13.277
84822SOL    HW156298   9.080   6.093  13.328
84822SOL    HW256299   9.012   6.210  13.259
84823SOL     OW56300  10.743   9.715   2.392
84823SOL    HW156301  10.713   9.637   2.345
84823SOL    HW256302  10.786   9.680   2.470
84824SOL     OW56303   7.009   3.434   9.160
84824SOL    HW156304   6.942   3.376   9.124
84824SOL    HW256305   7.001   3.515   9.110
84825SOL     OW56306   2.453   6.987   0.704
84825SOL    HW156307   2.401   7.009   0.627
84825SOL    HW256308   2.406   7.026   0.777
84826SOL     OW56309  14.720   3.590   3.966
84826SOL    HW156310  14.798   3.571   3.912
84826SOL    HW256311  14.706   3.510   4.016
84827SOL     OW56312   9.017  10.824   2.350
84827SOL    HW156313   9.039  10.825   2.257
84827SOL    HW256314   9.042  10.737   2.381
84828SOL     OW56315   9.416   8.703  14.354
84828SOL    HW156316   9.509   8.698  14.335
84828SOL    HW256317   9.392   8.615  14.383
84829SOL     OW56318  12.130   2.176  14.643
84829SOL    HW156319  12.210   2.132  14.672
84829SOL    HW256320  12.159   2.230  14.569
84830SOL     OW56321   0.983  13.873  10.460
84830SOL    HW156322   1.031  13.868  10.543
84830SOL    HW256323   1.051  13.862  10.393
84831SOL     OW56324   4.823  12.160   1.315
84831SOL    HW156325   4.839  12.067   1.305
84831SOL    HW256326   4.809  12.173   1.409
84832SOL     OW56327   1.619  14.637   9.217
84832SOL    HW156328   1.618  14.682   9.302
84832SOL    HW256329   1.529  14.609   9.203
84833SOL     OW56330   6.731   6.628  11.654
84833SOL    HW156331   6.733   6.533  11.645
84833SOL    HW256332   6.800   6.648  11.718
84834SOL     OW56333   0.369   0.861   3.836
84834SOL    HW156334   0.431   0.914   3.785
84834SOL    HW256335   0.315   0.926   3.882
84835SOL     OW56336   0.716  14.373   7.497
84835SOL    HW156337   0.737  14.319   7.421
84835SOL    HW256338   0.709  14.310   7.569
84836SOL     OW56339  12.307  11.576  13.695
84836SOL    HW156340  12.328  11.669  13.703
84836SOL    HW256341  12.281  11.565  13.604
84837SOL     OW56342   3.270   4.805   2.334
84837SOL    HW156343   3.303   4.837   2.250
84837SOL    HW256344   3.197   4.864   2.355
84838SOL     OW56345   4.421   1.685  14.410
84838SOL    HW156346   4.330   1.689  14.379
84838SOL    HW256347   4.421   1.736  14.491
84839SOL     OW56348  11.800   7.797   5.918
84839SOL    HW156349  11.793   7.782   5.824
84839SOL    HW256350  11.741   7.870   5.935
84840SOL     OW56351  10.416  10.667   5.783
84840SOL    HW156352  10.385  10.682   5.694
84840SOL    HW256353  10.506  10.701   5.783
84841SOL     OW56354   5.797   5.181  14.778
84841SOL    HW156355   5.889   5.156  14.776
84841SOL    HW256356   5.789   5.236  14.857
84842SOL     OW56357  11.954   1.840   7.544
84842SOL    HW156358  12.010   1.811   7.616
84842SOL    HW256359  11.900   1.909   7.583
84843SOL     OW56360   1.978   5.417   7.529
84843SOL    HW156361   2.064   5.423   7.569
84843SOL    HW256362   1.924   5.372   7.594
84844SOL     OW56363   2.950   9.148  12.593
84844SOL    HW156364   2.916   9.229  12.554
84844SOL    HW256365   2.930   9.080  12.529
84845SOL     OW56366   3.626  13.661  13.116
84845SOL    HW156367   3.624  13.593  13.184
84845SOL    HW256368   3.535  13.692  13.111
84846SOL     OW56369   8.748   7.728   6.411
84846SOL    HW156370   8.785   7.801   6.461
84846SOL    HW256371   8.796   7.651   6.442
84847SOL     OW56372   1.038   8.577  10.217
84847SOL    HW156373   1.026   8.532  10.300
84847SOL    HW256374   0.961   8.633  10.209
84848SOL     OW56375   2.810   4.481   7.771
84848SOL    HW156376   2.772   4.446   7.852
84848SOL    HW256377   2.737   4.485   7.710
84849SOL     OW56378   1.273   1.116  12.200
84849SOL    HW156379   1.357   1.077  12.223
84849SOL    HW256380   1.290   1.161  12.117
84850SOL     OW56381   6.598   5.766   1.091
84850SOL    HW156382   6.630   5.848   1.054
84850SOL    HW256383   6.677   5.715   1.110
84851SOL     OW56384  11.443  11.511  11.759
84851SOL    HW156385  11.366  11.463  11.730
84851SOL    HW256386  11.421  11.603  11.743
84852SOL     OW56387   8.190   5.074  11.788
84852SOL    HW156388   8.264   5.136  11.790
84852SOL    HW256389   8.175   5.052  11.879
84853SOL     OW56390   7.645  11.807   4.802
84853SOL    HW156391   7.654  11.712   4.793
84853SOL    HW256392   7.607  11.836   4.720
84854SOL     OW56393   6.327   2.779  11.534
84854SOL    HW156394   6.245   2.827  11.524
84854SOL    HW256395   6.351   2.754  11.445
84855SOL     OW56396  10.416   4.265   5.141
84855SOL    HW156397  10.453   4.225   5.062
84855SOL    HW256398  10.368   4.194   5.184
84856SOL     OW56399   6.249  13.906   8.872
84856SOL    HW156400   6.199  13.856   8.936
84856SOL    HW256401   6.200  13.988   8.862
84857SOL     OW56402   6.310  11.369   0.943
84857SOL    HW156403   6.349  11.382   1.029
84857SOL    HW256404   6.223  11.333   0.961
84858SOL     OW56405   5.974   6.069   0.670
84858SOL    HW156406   5.943   6.013   0.742
84858SOL    HW256407   6.058   6.030   0.645
84859SOL     OW56408  10.258   2.311  14.154
84859SOL    HW156409  10.325   2.306  14.085
84859SOL    HW256410  10.261   2.402  14.183
84860SOL     OW56411  14.039   6.049   5.343
84860SOL    HW156412  14.084   6.037   5.426
84860SOL    HW256413  14.092   6.113   5.296
84861SOL     OW56414   0.614  10.368   4.173
84861SOL    HW156415   0.629  10.315   4.095
84861SOL    HW256416   0.627  10.458   4.145
84862SOL     OW56417   9.128  13.611   9.752
84862SOL    HW156418   9.057  13.565   9.798
84862SOL    HW256419   9.191  13.542   9.730
84863SOL     OW56420  10.302  11.660   3.394
84863SOL    HW156421  10.215  11.698   3.380
84863SOL    HW256422  10.362  11.723   3.353
84864SOL     OW56423  14.832   0.239  11.410
84864SOL    HW156424  14.775   0.301  11.456
84864SOL    HW256425  14.776   0.165  11.387
84865SOL     OW56426   1.967  13.376  12.356
84865SOL    HW156427   2.060  13.355  12.361
84865SOL    HW256428   1.931  13.312  12.294
84866SOL     OW56429   9.112   9.107  13.728
84866SOL    HW156430   9.111   9.021  13.685
84866SOL    HW256431   9.055   9.096  13.804
84867SOL     OW56432  12.843  10.091  11.449
84867SOL    HW156433  12.835  10.131  11.536
84867SOL    HW256434  12.777  10.137  11.396
84868SOL     OW56435   6.337  12.953   0.402
84868SOL    HW156436   6.243  12.969   0.412
84868SOL    HW256437   6.359  12.897   0.476
84869SOL     OW56438   9.889  13.359   5.190
84869SOL    HW156439   9.855  13.290   5.246
84869SOL    HW256440   9.825  13.430   5.197
84870SOL     OW56441   6.450   0.806   3.676
84870SOL    HW156442   6.544   0.792   3.690
84870SOL    HW256443   6.434   0.775   3.587
84871SOL     OW56444   9.002   6.553   2.651
84871SOL    HW156445   9.073   6.618   2.649
84871SOL    HW256446   9.026   6.491   2.582
84872SOL     OW56447   8.440   6.706  13.640
84872SOL    HW156448   8.386   6.678  13.714
84872SOL    HW256449   8.480   6.625  13.608
84873SOL     OW56450   9.026   8.005   4.485
84873SOL    HW156451   8.935   7.997   4.455
84873SOL    HW256452   9.019   8.045   4.572
84874SOL     OW56453  11.074   7.035  11.053
84874SOL    HW156454  10.993   7.045  11.103
84874SOL    HW256455  11.054   7.069  10.966
84875SOL     OW56456  11.495  13.315   7.076
84875SOL    HW156457  11.580  13.342   7.041
84875SOL    HW256458  11.510  13.227   7.109
84876SOL     OW56459   2.484   8.017   9.805
84876SOL    HW156460   2.538   7.939   9.787
84876SOL    HW256461   2.428   8.025   9.727
84877SOL     OW56462   3.714  10.314  12.459
84877SOL    HW156463   3.669  10.234  12.487
84877SOL    HW256464   3.806  10.290  12.454
84878SOL     OW56465   6.570  13.251   0.493
84878SOL    HW156466   6.480  13.284   0.482
84878SOL    HW256467   6.588  13.203   0.412
84879SOL     OW56468  11.292   2.963  11.488
84879SOL    HW156469  11.345   3.001  11.418
84879SOL    HW256470  11.222   3.027  11.504
84880SOL     OW56471  13.817   0.258   5.506
84880SOL    HW156472  13.760   0.216   5.441
84880SOL    HW256473  13.775   0.238   5.590
84881SOL     OW56474   1.114   0.080   4.109
84881SOL    HW156475   1.101   0.175   4.118
84881SOL    HW256476   1.193   0.072   4.056
84882SOL     OW56477   2.288   8.400   0.563
84882SOL    HW156478   2.242   8.483   0.572
84882SOL    HW256479   2.245   8.342   0.626
84883SOL     OW56480  14.788   6.807   2.398
84883SOL    HW156481  14.789   6.896   2.433
84883SOL    HW256482  14.880   6.784   2.388
84884SOL     OW56483  13.002   4.060   7.563
84884SOL    HW156484  13.020   4.115   7.488
84884SOL    HW256485  12.943   3.992   7.530
84885SOL     OW56486  13.632  10.898   5.570
84885SOL    HW156487  13.584  10.830   5.617
84885SOL    HW256488  13.600  10.980   5.607
84886SOL     OW56489   0.604   8.196  10.838
84886SOL    HW156490   0.699   8.194  10.826
84886SOL    HW256491   0.572   8.248  10.765
84887SOL     OW56492   2.819   5.536   6.107
84887SOL    HW156493   2.877   5.549   6.033
84887SOL    HW256494   2.814   5.621   6.150
84888SOL     OW56495   5.019   4.816   1.808
84888SOL    HW156496   4.935   4.835   1.767
84888SOL    HW256497   5.080   4.807   1.734
84889SOL     OW56498   4.542   3.880   5.103
84889SOL    HW156499   4.465   3.894   5.158
84889SOL    HW256500   4.510   3.824   5.031
84890SOL     OW56501  12.409   0.496   2.375
84890SOL    HW156502  12.437   0.515   2.464
84890SOL    HW256503  12.474   0.539   2.320
84891SOL     OW56504   8.256   4.622  14.483
84891SOL    HW156505   8.348   4.596  14.473
84891SOL    HW256506   8.255   4.716  14.464
84892SOL     OW56507   8.802   4.799   1.580
84892SOL    HW156508   8.846   4.758   1.505
84892SOL    HW256509   8.872   4.816   1.643
84893SOL     OW56510  12.745  13.085   2.213
84893SOL    HW156511  12.780  13.112   2.297
84893SOL    HW256512  12.766  12.991   2.207
84894SOL     OW56513  12.338  12.201   1.657
84894SOL    HW156514  12.258  12.164   1.694
84894SOL    HW256515  12.321  12.295   1.652
84895SOL     OW56516   2.206   1.089   6.445
84895SOL    HW156517   2.174   1.168   6.403
84895SOL    HW256518   2.297   1.107   6.466
84896SOL     OW56519   1.355   0.207   3.171
84896SOL    HW156520   1.296   0.167   3.235
84896SOL    HW256521   1.396   0.133   3.126
84897SOL     OW56522  12.744   9.790   1.669
84897SOL    HW156523  12.672   9.766   1.728
84897SOL    HW256524  12.770   9.707   1.629
84898SOL     OW56525   5.402  11.756   8.662
84898SOL    HW156526   5.418  11.711   8.579
84898SOL    HW256527   5.308  11.748   8.676
84899SOL     OW56528   8.116   5.692   7.054
84899SOL    HW156529   8.144   5.603   7.073
84899SOL    HW256530   8.148   5.743   7.128
84900SOL     OW56531   6.489  14.147   8.220
84900SOL    HW156532   6.488  14.171   8.312
84900SOL    HW256533   6.488  14.231   8.173
84901SOL     OW56534  12.508  10.478   1.266
84901SOL    HW156535  12.423  10.488   1.223
84901SOL    HW256536  12.571  10.484   1.194
84902SOL     OW56537  11.580   9.871   0.139
84902SOL    HW156538  11.605   9.954   0.181
84902SOL    HW256539  11.639   9.806   0.177
84903SOL     OW56540   9.411   8.321   6.849
84903SOL    HW156541   9.506   8.315   6.855
84903SOL    HW256542   9.392   8.316   6.756
84904SOL     OW56543   5.882  14.146   6.645
84904SOL    HW156544   5.963  14.193   6.667
84904SOL    HW256545   5.844  14.195   6.572
84905SOL     OW56546   2.842  12.217   8.880
84905SOL    HW156547   2.861  12.270   8.803
84905SOL    HW256548   2.927  12.179   8.905
84906SOL     OW56549   9.024  10.168   4.840
84906SOL    HW156550   9.014  10.261   4.861
84906SOL    HW256551   9.118  10.153   4.841
84907SOL     OW56552   1.777   3.925   9.242
84907SOL    HW156553   1.805   3.997   9.185
84907SOL    HW256554   1.697   3.892   9.202
84908SOL     OW56555   7.870   3.033   8.256
84908SOL    HW156556   7.822   3.113   8.278
84908SOL    HW256557   7.947   3.035   8.313
84909SOL     OW56558   2.717   4.912  12.235
84909SOL    HW156559   2.750   4.822  12.234
84909SOL    HW256560   2.795   4.966  12.248
84910SOL     OW56561   5.184  13.692   2.798
84910SOL    HW156562   5.239  13.614   2.802
84910SOL    HW256563   5.240  13.762   2.833
84911SOL     OW56564  14.313   3.382   2.351
84911SOL    HW156565  14.241   3.373   2.414
84911SOL    HW256566  14.335   3.292   2.326
84912SOL     OW56567   1.913   4.812   0.076
84912SOL    HW156568   1.836   4.802   0.021
84912SOL    HW256569   1.986   4.816   0.015
84913SOL     OW56570  13.399   0.328   3.589
84913SOL    HW156571  13.479   0.374   3.615
84913SOL    HW256572  13.330   0.395   3.593
84914SOL     OW56573  14.726  10.500   1.562
84914SOL    HW156574  14.655  10.437   1.548
84914SOL    HW256575  14.690  10.584   1.532
84915SOL     OW56576   5.168  12.867  14.372
84915SOL    HW156577   5.151  12.806  14.300
84915SOL    HW256578   5.219  12.938  14.331
84916SOL     OW56579   8.276   4.570   0.512
84916SOL    HW156580   8.255   4.635   0.579
84916SOL    HW256581   8.318   4.621   0.442
84917SOL     OW56582   3.747   4.065   3.349
84917SOL    HW156583   3.744   4.159   3.331
84917SOL    HW256584   3.677   4.050   3.413
84918SOL     OW56585   5.098  12.079   0.059
84918SOL    HW156586   5.088  11.985   0.074
84918SOL    HW256587   5.166  12.106   0.121
84919SOL     OW56588   6.878  14.761   2.091
84919SOL    HW156589   6.912  14.719   2.013
84919SOL    HW256590   6.920  14.715   2.164
84920SOL     OW56591   5.275   6.816  14.243
84920SOL    HW156592   5.238   6.815  14.155
84920SOL    HW256593   5.204   6.846  14.299
84921SOL     OW56594  11.274   5.785   9.821
84921SOL    HW156595  11.351   5.789   9.877
84921SOL    HW256596  11.232   5.870   9.832
84922SOL     OW56597  10.941  12.226   4.857
84922SOL    HW156598  10.907  12.215   4.946
84922SOL    HW256599  11.007  12.157   4.848
84923SOL     OW56600   5.941  13.020   5.548
84923SOL    HW156601   5.936  13.113   5.568
84923SOL    HW256602   5.866  12.982   5.594
84924SOL     OW56603  12.393   1.213   6.080
84924SOL    HW156604  12.318   1.161   6.050
84924SOL    HW256605  12.387   1.209   6.176
84925SOL     OW56606   6.207   3.599   1.146
84925SOL    HW156607   6.224   3.514   1.187
84925SOL    HW256608   6.274   3.607   1.079
84926SOL     OW56609  12.028  10.583   3.702
84926SOL    HW156610  11.936  10.609   3.693
84926SOL    HW256611  12.070  10.615   3.622
84927SOL     OW56612   3.911   5.839   1.764
84927SOL    HW156613   3.874   5.774   1.824
84927SOL    HW256614   4.002   5.811   1.750
84928SOL     OW56615   4.915   7.182   8.145
84928SOL    HW156616   5.005   7.211   8.126
84928SOL    HW256617   4.873   7.179   8.059
84929SOL     OW56618  10.019   2.738   9.843
84929SOL    HW156619   9.998   2.831   9.832
84929SOL    HW256620  10.040   2.708   9.755
84930SOL     OW56621   3.119  11.105   7.178
84930SOL    HW156622   3.183  11.139   7.115
84930SOL    HW256623   3.144  11.013   7.190
84931SOL     OW56624   7.599  13.575   5.572
84931SOL    HW156625   7.566  13.547   5.658
84931SOL    HW256626   7.624  13.494   5.528
84932SOL     OW56627   0.111  14.611  11.412
84932SOL    HW156628   0.169  14.636  11.340
84932SOL    HW256629   0.083  14.693  11.451
84933SOL     OW56630  12.307   8.940   6.338
84933SOL    HW156631  12.303   8.968   6.247
84933SOL    HW256632  12.257   9.006   6.386
84934SOL     OW56633  11.700   4.957   0.925
84934SOL    HW156634  11.658   5.012   0.991
84934SOL    HW256635  11.766   5.013   0.885
84935SOL     OW56636  10.342   4.807  11.143
84935SOL    HW156637  10.436   4.790  11.131
84935SOL    HW256638  10.309   4.728  11.186
84936SOL     OW56639   2.849   7.991   4.620
84936SOL    HW156640   2.870   7.924   4.685
84936SOL    HW256641   2.932   8.034   4.602
84937SOL     OW56642  14.421   0.371   3.064
84937SOL    HW156643  14.458   0.389   3.151
84937SOL    HW256644  14.447   0.282   3.044
84938SOL     OW56645   8.436   3.919   2.562
84938SOL    HW156646   8.362   3.953   2.612
84938SOL    HW256647   8.510   3.925   2.622
84939SOL     OW56648  10.107   2.012  12.715
84939SOL    HW156649  10.016   2.036  12.728
84939SOL    HW256650  10.112   1.922  12.747
84940SOL     OW56651  10.476   1.069  13.389
84940SOL    HW156652  10.489   0.985  13.434
84940SOL    HW256653  10.559   1.116  13.403
84941SOL     OW56654   0.382   7.628   2.510
84941SOL    HW156655   0.299   7.633   2.464
84941SOL    HW256656   0.440   7.581   2.450
84942SOL     OW56657  11.506   0.392  11.699
84942SOL    HW156658  11.556   0.320  11.659
84942SOL    HW256659  11.522   0.383  11.793
84943SOL     OW56660  12.691   1.462   6.831
84943SOL    HW156661  12.621   1.441   6.893
84943SOL    HW256662  12.653   1.526   6.771
84944SOL     OW56663   5.322   9.113  12.601
84944SOL    HW156664   5.415   9.117  12.576
84944SOL    HW256665   5.295   9.205  12.602
84945SOL     OW56666   3.232   7.353   0.965
84945SOL    HW156667   3.281   7.415   1.019
84945SOL    HW256668   3.163   7.320   1.022
84946SOL     OW56669   8.884   5.720  10.537
84946SOL    HW156670   8.882   5.811  10.566
84946SOL    HW256671   8.900   5.670  10.617
84947SOL     OW56672   8.004   6.656   3.262
84947SOL    HW156673   7.977   6.567   3.281
84947SOL    HW256674   8.002   6.701   3.346
84948SOL     OW56675   2.529   7.420   0.043
84948SOL    HW156676   2.478   7.442  14.847
84948SOL    HW256677   2.600   7.484   0.044
84949SOL     OW56678   2.965  10.054   7.158
84949SOL    HW156679   2.944   9.972   7.114
84949SOL    HW256680   2.956  10.121   7.091
84950SOL     OW56681   8.800   2.995   9.199
84950SOL    HW156682   8.796   3.087   9.175
84950SOL    HW256683   8.868   2.990   9.266
84951SOL     OW56684   7.746  11.148   6.542
84951SOL    HW156685   7.833  11.167   6.574
84951SOL    HW256686   7.729  11.057   6.569
84952SOL     OW56687   1.587   8.524   7.638
84952SOL    HW156688   1.548   8.582   7.572
84952SOL    HW256689   1.674   8.560   7.652
84953SOL     OW56690  14.138  14.173  12.843
84953SOL    HW156691  14.097  14.258  12.857
84953SOL    HW256692  14.076  14.125  12.788
84954SOL     OW56693  13.435   4.775  11.960
84954SOL    HW156694  13.422   4.842  11.892
84954SOL    HW256695  13.417   4.692  11.915
84955SOL     OW56696   4.715   0.565   6.397
84955SOL    HW156697   4.753   0.542   6.482
84955SOL    HW256698   4.644   0.501   6.385
84956SOL     OW56699   4.795   6.265   5.606
84956SOL    HW156700   4.752   6.327   5.665
84956SOL    HW256701   4.889   6.281   5.620
84957SOL     OW56702   3.020  10.895   5.431
84957SOL    HW156703   3.068  10.836   5.489
84957SOL    HW256704   2.929  10.890   5.462
84958SOL     OW56705  13.408   6.973  13.246
84958SOL    HW156706  13.344   6.903  13.231
84958SOL    HW256707  13.459   6.943  13.321
84959SOL     OW56708   6.339   5.591  14.236
84959SOL    HW156709   6.271   5.595  14.169
84959SOL    HW256710   6.378   5.504  14.225
84960SOL     OW56711   1.900  11.609   7.416
84960SOL    HW156712   1.893  11.531   7.361
84960SOL    HW256713   1.993  11.619   7.433
84961SOL     OW56714   7.269  11.709   1.121
84961SOL    HW156715   7.356  11.690   1.087
84961SOL    HW256716   7.209  11.664   1.062
84962SOL     OW56717   9.225   1.644  11.762
84962SOL    HW156718   9.154   1.671  11.820
84962SOL    HW256719   9.234   1.550  11.777
84963SOL     OW56720   3.966   3.473   5.499
84963SOL    HW156721   4.026   3.398   5.492
84963SOL    HW256722   3.899   3.444   5.561
84964SOL     OW56723   3.674   8.753   7.396
84964SOL    HW156724   3.675   8.716   7.308
84964SOL    HW256725   3.602   8.816   7.394
84965SOL     OW56726   5.811   2.262   2.811
84965SOL    HW156727   5.866   2.186   2.829
84965SOL    HW256728   5.743   2.228   2.752
84966SOL     OW56729   9.574  12.049   9.335
84966SOL    HW156730   9.500  12.051   9.275
84966SOL    HW256731   9.634  12.116   9.302
84967SOL     OW56732   5.535   2.542   7.976
84967SOL    HW156733   5.610   2.539   8.034
84967SOL    HW256734   5.464   2.501   8.025
84968SOL     OW56735  10.141   2.758   0.773
84968SOL    HW156736  10.121   2.851   0.783
84968SOL    HW256737  10.166   2.729   0.861
84969SOL     OW56738   9.155   6.372   7.222
84969SOL    HW156739   9.181   6.322   7.299
84969SOL    HW256740   9.224   6.438   7.212
84970SOL     OW56741  13.780   5.845   9.635
84970SOL    HW156742  13.689   5.852   9.664
84970SOL    HW256743  13.784   5.761   9.590
84971SOL     OW56744   0.477   3.456   4.187
84971SOL    HW156745   0.496   3.420   4.274
84971SOL    HW256746   0.385   3.434   4.172
84972SOL     OW56747   3.024  14.312  10.684
84972SOL    HW156748   3.116  14.311  10.711
84972SOL    HW256749   2.975  14.313  10.767
84973SOL     OW56750  13.788   6.928   5.072
84973SOL    HW156751  13.766   7.001   5.013
84973SOL    HW256752  13.742   6.853   5.036
84974SOL     OW56753  11.335  10.575   9.540
84974SOL    HW156754  11.415  10.612   9.501
84974SOL    HW256755  11.355  10.483   9.554
84975SOL     OW56756  11.081   9.007  10.513
84975SOL    HW156757  11.025   8.933  10.536
84975SOL    HW256758  11.105   9.046  10.598
84976SOL     OW56759   8.744   0.069   4.071
84976SOL    HW156760   8.824   0.022   4.095
84976SOL    HW256761   8.750   0.079   3.976
84977SOL     OW56762   4.803   8.849  10.528
84977SOL    HW156763   4.716   8.867  10.493
84977SOL    HW256764   4.795   8.763  10.570
84978SOL     OW56765   8.763  11.306   2.900
84978SOL    HW156766   8.772  11.246   2.973
84978SOL    HW256767   8.784  11.392   2.936
84979SOL     OW56768   0.419   2.795   4.946
84979SOL    HW156769   0.445   2.791   4.854
84979SOL    HW256770   0.393   2.886   4.960
84980SOL     OW56771   8.850  10.417   0.124
84980SOL    HW156772   8.820  10.351   0.187
84980SOL    HW256773   8.925  10.377   0.081
84981SOL     OW56774   4.435   5.591   3.760
84981SOL    HW156775   4.377   5.515   3.763
84981SOL    HW256776   4.520   5.556   3.734
84982SOL     OW56777  10.669   8.272   2.244
84982SOL    HW156778  10.658   8.256   2.150
84982SOL    HW256779  10.588   8.240   2.283
84983SOL     OW56780  14.079  13.358   2.965
84983SOL    HW156781  14.054  13.451   2.972
84983SOL    HW256782  14.174  13.358   2.971
84984SOL     OW56783   6.845   2.063  11.169
84984SOL    HW156784   6.782   2.011  11.119
84984SOL    HW256785   6.800   2.081  11.252
84985SOL     OW56786   0.811   9.009  14.728
84985SOL    HW156787   0.791   8.919  14.704
84985SOL    HW256788   0.784   9.061  14.652
84986SOL     OW56789   2.095   5.495   8.783
84986SOL    HW156790   2.041   5.526   8.856
84986SOL    HW256791   2.049   5.523   8.705
84987SOL     OW56792   0.286   2.151  14.831
84987SOL    HW156793   0.254   2.238  14.807
84987SOL    HW256794   0.220   2.090  14.799
84988SOL     OW56795   1.494   5.172  13.920
84988SOL    HW156796   1.529   5.182  13.832
84988SOL    HW256797   1.462   5.259  13.943
84989SOL     OW56798   3.508  14.602   3.617
84989SOL    HW156799   3.601  14.627   3.618
84989SOL    HW256800   3.467  14.663   3.556
84990SOL     OW56801   2.352  14.136   0.668
84990SOL    HW156802   2.443  14.109   0.675
84990SOL    HW256803   2.311  14.070   0.612
84991SOL     OW56804   7.134   9.560  10.724
84991SOL    HW156805   7.074   9.623  10.764
84991SOL    HW256806   7.081   9.513  10.660
84992SOL     OW56807  11.450  14.041   4.334
84992SOL    HW156808  11.528  14.093   4.317
84992SOL    HW256809  11.384  14.104   4.362
84993SOL     OW56810   6.408   3.420   9.407
84993SOL    HW156811   6.449   3.506   9.398
84993SOL    HW256812   6.329   3.425   9.354
84994SOL     OW56813   2.575  12.657   4.642
84994SOL    HW156814   2.652  12.601   4.646
84994SOL    HW256815   2.568  12.683   4.550
84995SOL     OW56816   9.697   5.680   4.417
84995SOL    HW156817   9.679   5.774   4.408
84995SOL    HW256818   9.645   5.654   4.493
84996SOL     OW56819  12.494   9.150  13.461
84996SOL    HW156820  12.406   9.114  13.469
84996SOL    HW256821  12.548   9.075  13.434
84997SOL     OW56822   9.652  14.028   7.728
84997SOL    HW156823   9.623  13.996   7.814
84997SOL    HW256824   9.724  13.971   7.704
84998SOL     OW56825   4.308  11.137   5.259
84998SOL    HW156826   4.226  11.089   5.260
84998SOL    HW256827   4.310  11.183   5.343
84999SOL     OW56828   7.467  10.762  13.114
84999SOL    HW156829   7.557  10.735  13.135
84999SOL    HW256830   7.479  10.842  13.061
85000SOL     OW56831   9.922  12.700   4.498
85000SOL    HW156832   9.935  12.609   4.469
85000SOL    HW256833  10.000  12.746   4.468
85001SOL     OW56834   8.185   5.982  10.077
85001SOL    HW156835   8.251   5.937  10.025
85001SOL    HW256836   8.131   5.912  10.114
85002SOL     OW56837   4.673   0.068  10.720
85002SOL    HW156838   4.606   0.111  10.666
85002SOL    HW256839   4.742   0.134  10.730
85003SOL     OW56840   0.022   5.267  12.127
85003SOL    HW156841   0.104   5.263  12.176
85003SOL    HW256842  14.835   5.259  12.194
85004SOL     OW56843   4.490  12.617  11.732
85004SOL    HW156844   4.485  12.711  11.712
85004SOL    HW256845   4.423  12.603  11.799
85005SOL     OW56846   7.464   9.309   1.597
85005SOL    HW156847   7.489   9.245   1.531
85005SOL    HW256848   7.408   9.371   1.549
85006SOL     OW56849  14.455   5.172   6.837
85006SOL    HW156850  14.367   5.203   6.817
85006SOL    HW256851  14.498   5.246   6.880
85007SOL     OW56852  13.112   2.901   2.106
85007SOL    HW156853  13.181   2.967   2.108
85007SOL    HW256854  13.051   2.933   2.040
85008SOL     OW56855  10.483   2.820  12.304
85008SOL    HW156856  10.445   2.857  12.225
85008SOL    HW256857  10.409   2.815  12.366
85009SOL     OW56858   3.962  13.871   2.961
85009SOL    HW156859   3.999  13.958   2.948
85009SOL    HW256860   3.913  13.853   2.881
85010SOL     OW56861   6.498   7.924  11.059
85010SOL    HW156862   6.436   7.995  11.078
85010SOL    HW256863   6.579   7.950  11.105
85011SOL     OW56864   7.400   3.187   4.858
85011SOL    HW156865   7.413   3.280   4.874
85011SOL    HW256866   7.380   3.151   4.944
85012SOL     OW56867  14.456  12.914   8.344
85012SOL    HW156868  14.415  12.837   8.304
85012SOL    HW256869  14.382  12.965   8.377
85013SOL     OW56870  11.405   9.880  12.520
85013SOL    HW156871  11.339   9.949  12.519
85013SOL    HW256872  11.359   9.802  12.487
85014SOL     OW56873   5.420   2.642   1.010
85014SOL    HW156874   5.431   2.604   0.923
85014SOL    HW256875   5.498   2.615   1.058
85015SOL     OW56876   0.582  12.750  11.181
85015SOL    HW156877   0.634  12.695  11.240
85015SOL    HW256878   0.646  12.808  11.139
85016SOL     OW56879   7.300  12.451   0.205
85016SOL    HW156880   7.228  12.393   0.230
85016SOL    HW256881   7.292  12.527   0.263
85017SOL     OW56882   3.522   8.909  11.772
85017SOL    HW156883   3.428   8.926  11.774
85017SOL    HW256884   3.538   8.856  11.851
85018SOL     OW56885  13.449   5.055  12.872
85018SOL    HW156886  13.461   5.008  12.955
85018SOL    HW256887  13.356   5.048  12.853
85019SOL     OW56888  14.791   9.239   7.096
85019SOL    HW156889  14.806   9.144   7.087
85019SOL    HW256890  14.872   9.279   7.063
85020SOL     OW56891  13.026  11.699  14.240
85020SOL    HW156892  12.959  11.726  14.303
85020SOL    HW256893  12.977  11.653  14.172
85021SOL     OW56894  13.976   2.336   5.656
85021SOL    HW156895  14.067   2.363   5.645
85021SOL    HW256896  13.956   2.286   5.577
85022SOL     OW56897   4.344   4.338   3.722
85022SOL    HW156898   4.344   4.253   3.764
85022SOL    HW256899   4.437   4.358   3.709
85023SOL     OW56900   1.331  10.957  11.399
85023SOL    HW156901   1.375  10.979  11.481
85023SOL    HW256902   1.360  10.867  11.381
85024SOL     OW56903   4.803  13.805   4.327
85024SOL    HW156904   4.799  13.710   4.337
85024SOL    HW256905   4.802  13.838   4.417
85025SOL     OW56906   3.116   1.937  12.800
85025SOL    HW156907   3.027   1.970  12.783
85025SOL    HW256908   3.172   1.989  12.741
85026SOL     OW56909   9.061   9.434   3.944
85026SOL    HW156910   9.037   9.523   3.972
85026SOL    HW256911   9.013   9.422   3.862
85027SOL     OW56912  11.698   5.550   4.604
85027SOL    HW156913  11.727   5.459   4.602
85027SOL    HW256914  11.740   5.590   4.528
85028SOL     OW56915  10.207   6.758   8.604
85028SOL    HW156916  10.230   6.719   8.520
85028SOL    HW256917  10.198   6.852   8.584
85029SOL     OW56918   5.966   1.343  11.610
85029SOL    HW156919   6.000   1.265  11.656
85029SOL    HW256920   5.881   1.360  11.652
85030SOL     OW56921   7.115  10.941  14.148
85030SOL    HW156922   7.125  11.033  14.124
85030SOL    HW256923   7.201  10.916  14.183
85031SOL     OW56924  12.602   1.627   3.567
85031SOL    HW156925  12.677   1.685   3.554
85031SOL    HW256926  12.590   1.584   3.482
85032SOL     OW56927  12.635   6.425   0.599
85032SOL    HW156928  12.712   6.378   0.632
85032SOL    HW256929  12.638   6.510   0.643
85033SOL     OW56930  14.857  11.688   0.664
85033SOL    HW156931   0.057  11.723   0.628
85033SOL    HW256932  14.791  11.752   0.639
85034SOL     OW56933  13.160   2.855   4.747
85034SOL    HW156934  13.221   2.794   4.790
85034SOL    HW256935  13.131   2.808   4.669
85035SOL     OW56936  11.061  13.523  12.171
85035SOL    HW156937  10.973  13.547  12.142
85035SOL    HW256938  11.074  13.435  12.137
85036SOL     OW56939  12.227  11.398  14.597
85036SOL    HW156940  12.280  11.457  14.649
85036SOL    HW256941  12.143  11.443  14.586
85037SOL     OW56942  13.914   1.280   1.998
85037SOL    HW156943  13.939   1.300   1.908
85037SOL    HW256944  13.886   1.364   2.034
85038SOL     OW56945  11.853   3.962   8.478
85038SOL    HW156946  11.784   4.026   8.463
85038SOL    HW256947  11.920   4.010   8.528
85039SOL     OW56948   9.921   7.081  12.819
85039SOL    HW156949  10.009   7.114  12.804
85039SOL    HW256950   9.897   7.114  12.905
85040SOL     OW56951   6.689  13.354  12.700
85040SOL    HW156952   6.639  13.325  12.623
85040SOL    HW256953   6.766  13.398  12.663
85041SOL     OW56954   6.237   5.753   0.767
85041SOL    HW156955   6.148   5.716   0.766
85041SOL    HW256956   6.229   5.835   0.718
85042SOL     OW56957   6.903   1.344  13.751
85042SOL    HW156958   6.846   1.271  13.772
85042SOL    HW256959   6.849   1.422  13.762
85043SOL     OW56960   8.603   8.598   5.961
85043SOL    HW156961   8.555   8.560   5.888
85043SOL    HW256962   8.588   8.692   5.953
85044SOL     OW56963   4.046   7.636   2.567
85044SOL    HW156964   4.027   7.725   2.596
85044SOL    HW256965   4.076   7.647   2.477
85045SOL     OW56966   3.819  14.249  13.008
85045SOL    HW156967   3.724  14.253  13.001
85045SOL    HW256968   3.838  14.155  13.017
85046SOL     OW56969   3.941   8.236  10.959
85046SOL    HW156970   3.855   8.197  10.938
85046SOL    HW256971   3.935   8.259  11.052
85047SOL     OW56972   5.752  10.887  11.055
85047SOL    HW156973   5.759  10.940  10.976
85047SOL    HW256974   5.739  10.798  11.023
85048SOL     OW56975   3.127   8.889   0.974
85048SOL    HW156976   3.100   8.803   1.003
85048SOL    HW256977   3.090   8.950   1.037
85049SOL     OW56978   3.733   1.561   7.364
85049SOL    HW156979   3.734   1.487   7.425
85049SOL    HW256980   3.644   1.595   7.369
85050SOL     OW56981  14.587   2.176   7.649
85050SOL    HW156982  14.551   2.246   7.594
85050SOL    HW256983  14.513   2.148   7.703
85051SOL     OW56984   8.855  12.817   2.892
85051SOL    HW156985   8.871  12.911   2.902
85051SOL    HW256986   8.899  12.777   2.966
85052SOL     OW56987  11.453   5.959   5.660
85052SOL    HW156988  11.410   6.026   5.606
85052SOL    HW256989  11.498   6.009   5.728
85053SOL     OW56990  10.729  14.492   7.328
85053SOL    HW156991  10.786  14.495   7.252
85053SOL    HW256992  10.686  14.578   7.329
85054SOL     OW56993  12.726   1.256   1.534
85054SOL    HW156994  12.674   1.238   1.456
85054SOL    HW256995  12.670   1.311   1.589
85055SOL     OW56996   3.734   2.403   3.031
85055SOL    HW156997   3.681   2.448   3.097
85055SOL    HW256998   3.699   2.314   3.028
85056SOL     OW56999   4.860   4.214   9.568
85056SOL    HW157000   4.830   4.302   9.592
85056SOL    HW257001   4.782   4.169   9.536
85057SOL     OW57002   0.173   6.036  13.503
85057SOL    HW157003   0.172   5.963  13.441
85057SOL    HW257004   0.100   6.092  13.475
85058SOL     OW57005  13.270   0.901   0.861
85058SOL    HW157006  13.327   0.830   0.830
85058SOL    HW257007  13.213   0.919   0.787
85059SOL     OW57008   5.847  11.052   9.091
85059SOL    HW157009   5.860  10.958   9.079
85059SOL    HW257010   5.852  11.088   9.003
85060SOL     OW57011   5.033   3.025  14.597
85060SOL    HW157012   5.091   2.994  14.666
85060SOL    HW257013   4.949   2.984  14.616
85061SOL     OW57014  14.541  12.428   3.403
85061SOL    HW157015  14.574  12.413   3.491
85061SOL    HW257016  14.561  12.348   3.355
85062SOL     OW57017   2.499  11.738   5.159
85062SOL    HW157018   2.514  11.806   5.093
85062SOL    HW257019   2.410  11.753   5.189
85063SOL     OW57020   9.449   7.528   2.470
85063SOL    HW157021   9.498   7.510   2.551
85063SOL    HW257022   9.420   7.442   2.441
85064SOL     OW57023   9.376   2.438   4.996
85064SOL    HW157024   9.317   2.363   5.006
85064SOL    HW257025   9.415   2.426   4.909
85065SOL     OW57026   0.261  10.257   3.429
85065SOL    HW157027   0.263  10.183   3.490
85065SOL    HW257028   0.207  10.227   3.357
85066SOL     OW57029  14.824   0.442  14.604
85066SOL    HW157030  14.875   0.396  14.538
85066SOL    HW257031  14.830   0.387  14.683
85067SOL     OW57032  11.154   5.121  12.670
85067SOL    HW157033  11.140   5.178  12.595
85067SOL    HW257034  11.249   5.108  12.673
85068SOL     OW57035   4.827   6.079   8.693
85068SOL    HW157036   4.853   6.003   8.744
85068SOL    HW257037   4.740   6.102   8.726
85069SOL     OW57038   1.458  10.675  10.656
85069SOL    HW157039   1.393  10.606  10.670
85069SOL    HW257040   1.407  10.754  10.645
85070SOL     OW57041   4.759   0.804   3.238
85070SOL    HW157042   4.788   0.713   3.235
85070SOL    HW257043   4.709   0.816   3.158
85071SOL     OW57044   9.705   3.439  14.514
85071SOL    HW157045   9.659   3.366  14.554
85071SOL    HW257046   9.647   3.514  14.525
85072SOL     OW57047   6.826   3.142   3.684
85072SOL    HW157048   6.910   3.100   3.700
85072SOL    HW257049   6.802   3.180   3.768
85073SOL     OW57050   4.854   7.372   6.528
85073SOL    HW157051   4.882   7.369   6.437
85073SOL    HW257052   4.909   7.438   6.569
85074SOL     OW57053   7.154   2.668  12.662
85074SOL    HW157054   7.166   2.763  12.661
85074SOL    HW257055   7.148   2.643  12.570
85075SOL     OW57056   0.823  13.751  10.102
85075SOL    HW157057   0.855  13.827  10.055
85075SOL    HW257058   0.900  13.717  10.148
85076SOL     OW57059   3.664  14.875  14.254
85076SOL    HW157060   3.646  14.785  14.283
85076SOL    HW257061   3.595   0.046  14.294
85077SOL     OW57062   2.112   9.554  11.542
85077SOL    HW157063   2.116   9.610  11.464
85077SOL    HW257064   2.198   9.513  11.545
85078SOL     OW57065   9.270   7.222  12.331
85078SOL    HW157066   9.213   7.218  12.254
85078SOL    HW257067   9.352   7.257  12.298
85079SOL     OW57068   4.883   1.499  11.852
85079SOL    HW157069   4.962   1.553  11.845
85079SOL    HW257070   4.819   1.556  11.894
85080SOL     OW57071   6.736   3.466  12.344
85080SOL    HW157072   6.777   3.550  12.365
85080SOL    HW257073   6.659   3.463  12.399
85081SOL     OW57074   0.662   9.308   4.187
85081SOL    HW157075   0.681   9.361   4.264
85081SOL    HW257076   0.669   9.218   4.217
85082SOL     OW57077   9.580   5.499   2.571
85082SOL    HW157078   9.540   5.490   2.657
85082SOL    HW257079   9.640   5.573   2.579
85083SOL     OW57080   3.239   1.360   1.339
85083SOL    HW157081   3.272   1.272   1.318
85083SOL    HW257082   3.317   1.416   1.332
85084SOL     OW57083   2.632   5.115   6.692
85084SOL    HW157084   2.559   5.167   6.657
85084SOL    HW257085   2.707   5.139   6.638
85085SOL     OW57086  12.835  14.570   6.707
85085SOL    HW157087  12.806  14.504   6.643
85085SOL    HW257088  12.828  14.527   6.791
85086SOL     OW57089  12.876  13.874   4.428
85086SOL    HW157090  12.927  13.835   4.358
85086SOL    HW257091  12.848  13.959   4.393
85087SOL     OW57092  14.879   9.505   4.516
85087SOL    HW157093  14.831   9.440   4.464
85087SOL    HW257094   0.040   9.560   4.451
85088SOL     OW57095   2.535  11.704   0.122
85088SOL    HW157096   2.506  11.795   0.123
85088SOL    HW257097   2.460  11.654   0.154
85089SOL     OW57098   9.895   5.795   7.803
85089SOL    HW157099   9.977   5.816   7.849
85089SOL    HW257100   9.895   5.700   7.797
85090SOL     OW57101  11.950   7.552   9.824
85090SOL    HW157102  11.881   7.505   9.777
85090SOL    HW257103  11.904   7.621   9.872
85091SOL     OW57104   6.618  10.372   0.395
85091SOL    HW157105   6.713  10.362   0.394
85091SOL    HW257106   6.596  10.397   0.305
85092SOL     OW57107   3.549   9.415  12.667
85092SOL    HW157108   3.521   9.352  12.600
85092SOL    HW257109   3.468   9.442  12.710
85093SOL     OW57110  14.186   0.497   3.615
85093SOL    HW157111  14.198   0.541   3.530
85093SOL    HW257112  14.094   0.513   3.637
85094SOL     OW57113   9.705   7.729   4.883
85094SOL    HW157114   9.609   7.738   4.883
85094SOL    HW257115   9.726   7.702   4.794
85095SOL     OW57116   0.734  12.114   1.490
85095SOL    HW157117   0.811  12.086   1.441
85095SOL    HW257118   0.752  12.205   1.514
85096SOL     OW57119   4.832  14.129  14.024
85096SOL    HW157120   4.891  14.072  14.074
85096SOL    HW257121   4.866  14.128  13.935
85097SOL     OW57122   6.372  12.680   6.059
85097SOL    HW157123   6.380  12.584   6.061
85097SOL    HW257124   6.327  12.702   6.141
85098SOL     OW57125  12.782  11.272   5.024
85098SOL    HW157126  12.756  11.181   5.012
85098SOL    HW257127  12.719  11.322   4.973
85099SOL     OW57128  13.372   0.322  12.329
85099SOL    HW157129  13.360   0.321  12.234
85099SOL    HW257130  13.424   0.244  12.347
85100SOL     OW57131   5.009   5.997   4.426
85100SOL    HW157132   5.073   6.067   4.439
85100SOL    HW257133   4.989   6.000   4.333
85101SOL     OW57134   4.030   6.237   6.503
85101SOL    HW157135   4.063   6.161   6.456
85101SOL    HW257136   4.086   6.244   6.580
85102SOL     OW57137  12.646   0.079  13.724
85102SOL    HW157138  12.679   0.143  13.661
85102SOL    HW257139  12.721   0.022  13.742
85103SOL     OW57140   0.995   6.285   9.820
85103SOL    HW157141   0.976   6.268   9.912
85103SOL    HW257142   1.026   6.201   9.786
85104SOL     OW57143  14.872   6.203   7.589
85104SOL    HW157144   0.021   6.117   7.560
85104SOL    HW257145  14.793   6.184   7.640
85105SOL     OW57146   1.346  13.040  10.227
85105SOL    HW157147   1.370  13.116  10.281
85105SOL    HW257148   1.407  13.044  10.153
85106SOL     OW57149   1.361   4.236   3.744
85106SOL    HW157150   1.296   4.260   3.678
85106SOL    HW257151   1.406   4.318   3.763
85107SOL     OW57152  10.610   7.046  12.929
85107SOL    HW157153  10.700   7.074  12.911
85107SOL    HW257154  10.620   6.963  12.975
85108SOL     OW57155   8.969  11.529  11.530
85108SOL    HW157156   9.035  11.461  11.546
85108SOL    HW257157   9.013  11.610  11.554
85109SOL     OW57158   9.593   9.142   8.126
85109SOL    HW157159   9.682   9.112   8.141
85109SOL    HW257160   9.580   9.130   8.032
85110SOL     OW57161  11.831   8.261   1.836
85110SOL    HW157162  11.912   8.292   1.796
85110SOL    HW257163  11.783   8.221   1.765
85111SOL     OW57164  14.851   6.955   0.304
85111SOL    HW157165  14.863   6.860   0.303
85111SOL    HW257166  14.839   6.977   0.397
85112SOL     OW57167   5.084   8.164   4.608
85112SOL    HW157168   5.062   8.155   4.515
85112SOL    HW257169   5.090   8.074   4.641
85113SOL     OW57170   8.430  12.488  10.723
85113SOL    HW157171   8.338  12.463  10.731
85113SOL    HW257172   8.478  12.415  10.762
85114SOL     OW57173   3.678   1.053  11.443
85114SOL    HW157174   3.640   0.965  11.445
85114SOL    HW257175   3.772   1.039  11.454
85115SOL     OW57176   0.954   5.010   6.485
85115SOL    HW157177   0.957   4.990   6.392
85115SOL    HW257178   0.938   5.105   6.489
85116SOL     OW57179   9.449  11.497   3.746
85116SOL    HW157180   9.527  11.526   3.698
85116SOL    HW257181   9.429  11.569   3.805
85117SOL     OW57182   1.596  11.134   3.372
85117SOL    HW157183   1.656  11.202   3.341
85117SOL    HW257184   1.517  11.146   3.320
85118SOL     OW57185   6.231  14.105   9.501
85118SOL    HW157186   6.214  14.198   9.481
85118SOL    HW257187   6.226  14.061   9.416
85119SOL     OW57188  11.667   8.404   5.516
85119SOL    HW157189  11.634   8.469   5.578
85119SOL    HW257190  11.761   8.418   5.514
85120SOL     OW57191  14.628   7.659   8.945
85120SOL    HW157192  14.652   7.607   9.022
85120SOL    HW257193  14.708   7.662   8.893
85121SOL     OW57194   9.164   6.783   2.617
85121SOL    HW157195   9.109   6.860   2.605
85121SOL    HW257196   9.203   6.767   2.531
85122SOL     OW57197   1.366  11.515   0.813
85122SOL    HW157198   1.404  11.452   0.875
85122SOL    HW257199   1.272  11.502   0.822
85123SOL     OW57200  13.894   2.495  12.133
85123SOL    HW157201  13.907   2.586  12.161
85123SOL    HW257202  13.914   2.443  12.211
85124SOL     OW57203   3.494   3.607  14.213
85124SOL    HW157204   3.499   3.560  14.130
85124SOL    HW257205   3.475   3.698  14.189
85125SOL     OW57206   9.306   3.905  11.954
85125SOL    HW157207   9.280   3.956  12.031
85125SOL    HW257208   9.387   3.947  11.924
85126SOL     OW57209   8.185   8.322   6.416
85126SOL    HW157210   8.184   8.353   6.326
85126SOL    HW257211   8.101   8.350   6.453
85127SOL     OW57212  13.817   3.874  12.975
85127SOL    HW157213  13.814   3.803  13.039
85127SOL    HW257214  13.750   3.851  12.911
85128SOL     OW57215   1.797   1.198   6.939
85128SOL    HW157216   1.841   1.232   6.862
85128SOL    HW257217   1.803   1.268   7.004
85129SOL     OW57218   2.259   7.986   1.099
85129SOL    HW157219   2.197   7.919   1.072
85129SOL    HW257220   2.237   8.004   1.191
85130SOL     OW57221   0.484   8.782  14.764
85130SOL    HW157222   0.521   8.869  14.780
85130SOL    HW257223   0.551   8.737  14.713
85131SOL     OW57224  10.387   0.010   7.487
85131SOL    HW157225  10.348  14.835   7.421
85131SOL    HW257226  10.425   0.082   7.437
85132SOL     OW57227  11.160   9.581  14.149
85132SOL    HW157228  11.199   9.497  14.126
85132SOL    HW257229  11.143   9.623  14.065
85133SOL     OW57230  14.162   0.880   3.596
85133SOL    HW157231  14.084   0.928   3.568
85133SOL    HW257232  14.233   0.919   3.545
85134SOL     OW57233   8.264   0.345   2.090
85134SOL    HW157234   8.248   0.251   2.081
85134SOL    HW257235   8.356   0.351   2.117
85135SOL     OW57236   9.124   8.286   9.741
85135SOL    HW157237   9.186   8.355   9.721
85135SOL    HW257238   9.075   8.273   9.661
85136SOL     OW57239   7.610   7.856   1.663
85136SOL    HW157240   7.665   7.868   1.586
85136SOL    HW257241   7.635   7.769   1.697
85137SOL     OW57242   7.716   9.257   5.267
85137SOL    HW157243   7.637   9.286   5.312
85137SOL    HW257244   7.783   9.252   5.335
85138SOL     OW57245   4.019   7.239   4.609
85138SOL    HW157246   3.967   7.311   4.645
85138SOL    HW257247   3.995   7.236   4.516
85139SOL     OW57248   8.156   9.521  13.558
85139SOL    HW157249   8.178   9.432  13.531
85139SOL    HW257250   8.065   9.532  13.531
85140SOL     OW57251  10.564   1.270   3.362
85140SOL    HW157252  10.618   1.295   3.437
85140SOL    HW257253  10.474   1.278   3.394
85141SOL     OW57254   2.580   4.764   4.953
85141SOL    HW157255   2.583   4.805   5.040
85141SOL    HW257256   2.507   4.702   4.960
85142SOL     OW57257  13.666  14.391  13.072
85142SOL    HW157258  13.701  14.309  13.107
85142SOL    HW257259  13.718  14.407  12.993
85143SOL     OW57260   1.888   9.388  13.468
85143SOL    HW157261   1.922   9.442  13.538
85143SOL    HW257262   1.965   9.357  13.421
85144SOL     OW57263  11.112   9.477   3.118
85144SOL    HW157264  11.141   9.544   3.180
85144SOL    HW257265  11.154   9.501   3.035
85145SOL     OW57266   5.504  13.417  10.971
85145SOL    HW157267   5.552  13.496  10.946
85145SOL    HW257268   5.429  13.449  11.020
85146SOL     OW57269   5.114   8.329  14.636
85146SOL    HW157270   5.124   8.405  14.578
85146SOL    HW257271   5.056   8.360  14.706
85147SOL     OW57272  10.824   6.135  12.062
85147SOL    HW157273  10.916   6.160  12.071
85147SOL    HW257274  10.808   6.137  11.967
85148SOL     OW57275   0.009   5.452   0.059
85148SOL    HW157276   0.074   5.520   0.077
85148SOL    HW257277  14.808   5.499   0.056
85149SOL     OW57278   6.580   5.211   8.518
85149SOL    HW157279   6.625   5.157   8.453
85149SOL    HW257280   6.649   5.237   8.580
85150SOL     OW57281   4.718  13.471   3.213
85150SOL    HW157282   4.643  13.432   3.258
85150SOL    HW257283   4.744  13.544   3.270
85151SOL     OW57284  14.028  13.056   0.310
85151SOL    HW157285  14.119  13.026   0.315
85151SOL    HW257286  14.035  13.152   0.310
85152SOL     OW57287   1.649   5.083   4.047
85152SOL    HW157288   1.716   5.051   3.987
85152SOL    HW257289   1.681   5.060   4.134
85153SOL     OW57290   4.853   9.751  10.165
85153SOL    HW157291   4.892   9.833  10.196
85153SOL    HW257292   4.902   9.729  10.086
85154SOL     OW57293  12.762  10.000   2.848
85154SOL    HW157294  12.690   9.964   2.900
85154SOL    HW257295  12.723  10.072   2.799
85155SOL     OW57296   2.099   1.171   0.935
85155SOL    HW157297   2.040   1.138   1.002
85155SOL    HW257298   2.043   1.222   0.876
85156SOL     OW57299   5.924  10.593   0.684
85156SOL    HW157300   5.960  10.527   0.625
85156SOL    HW257301   5.890  10.543   0.758
85157SOL     OW57302   3.595   6.677   8.110
85157SOL    HW157303   3.562   6.714   8.028
85157SOL    HW257304   3.607   6.584   8.091
85158SOL     OW57305  10.136   8.609   7.938
85158SOL    HW157306  10.112   8.680   7.878
85158SOL    HW257307  10.146   8.533   7.882
85159SOL     OW57308   3.786   6.269   1.196
85159SOL    HW157309   3.781   6.364   1.185
85159SOL    HW257310   3.763   6.253   1.287
85160SOL     OW57311   3.614  14.070   0.359
85160SOL    HW157312   3.620  13.978   0.385
85160SOL    HW257313   3.690  14.083   0.302
85161SOL     OW57314   9.239   8.146  14.752
85161SOL    HW157315   9.217   8.189  14.835
85161SOL    HW257316   9.172   8.176  14.691
85162SOL     OW57317   4.053   9.407  12.589
85162SOL    HW157318   4.026   9.322  12.625
85162SOL    HW257319   3.974   9.461  12.594
85163SOL     OW57320  13.060   2.466  12.344
85163SOL    HW157321  13.059   2.517  12.426
85163SOL    HW257322  13.128   2.400  12.358
85164SOL     OW57323  11.763  14.745  10.769
85164SOL    HW157324  11.707  14.785  10.702
85164SOL    HW257325  11.786  14.659  10.734
85165SOL     OW57326   0.793   5.941   5.141
85165SOL    HW157327   0.869   5.896   5.103
85165SOL    HW257328   0.818   5.958   5.231
85166SOL     OW57329   5.282  13.911   9.532
85166SOL    HW157330   5.210  13.849   9.528
85166SOL    HW257331   5.356  13.860   9.565
85167SOL     OW57332   6.902   0.759   2.142
85167SOL    HW157333   6.956   0.838   2.142
85167SOL    HW257334   6.959   0.691   2.103
85168SOL     OW57335  13.772   7.458   2.360
85168SOL    HW157336  13.742   7.370   2.382
85168SOL    HW257337  13.850   7.471   2.414
85169SOL     OW57338   6.439   9.588   8.627
85169SOL    HW157339   6.483   9.672   8.614
85169SOL    HW257340   6.502   9.535   8.676
85170SOL     OW57341   6.432  13.464   0.769
85170SOL    HW157342   6.355  13.496   0.722
85170SOL    HW257343   6.502  13.524   0.744
85171SOL     OW57344  10.488   5.190  11.403
85171SOL    HW157345  10.512   5.108  11.445
85171SOL    HW257346  10.426   5.231  11.463
85172SOL     OW57347   8.709   7.333   9.830
85172SOL    HW157348   8.743   7.419   9.852
85172SOL    HW257349   8.629   7.325   9.882
85173SOL     OW57350   2.292   8.990   3.745
85173SOL    HW157351   2.214   9.014   3.794
85173SOL    HW257352   2.263   8.989   3.653
85174SOL     OW57353   4.663   2.169   0.808
85174SOL    HW157354   4.670   2.241   0.872
85174SOL    HW257355   4.618   2.209   0.733
85175SOL     OW57356   1.025  10.806   5.006
85175SOL    HW157357   1.012  10.716   4.974
85175SOL    HW257358   0.946  10.852   4.979
85176SOL     OW57359   1.226  13.463   3.418
85176SOL    HW157360   1.173  13.392   3.452
85176SOL    HW257361   1.164  13.521   3.374
85177SOL     OW57362  10.800   4.157  13.926
85177SOL    HW157363  10.712   4.119  13.914
85177SOL    HW257364  10.820   4.198  13.842
85178SOL     OW57365   4.123  12.723  10.998
85178SOL    HW157366   4.092  12.651  11.053
85178SOL    HW257367   4.171  12.680  10.927
85179SOL     OW57368   0.434   6.952   7.749
85179SOL    HW157369   0.478   6.899   7.683
85179SOL    HW257370   0.369   7.003   7.701
85180SOL     OW57371   8.664   1.803  12.095
85180SOL    HW157372   8.600   1.824  12.163
85180SOL    HW257373   8.729   1.873  12.099
85181SOL     OW57374   8.117   4.399  11.574
85181SOL    HW157375   8.198   4.367  11.614
85181SOL    HW257376   8.071   4.443  11.646
85182SOL     OW57377   8.063   7.897  12.629
85182SOL    HW157378   8.129   7.832  12.652
85182SOL    HW257379   7.998   7.893  12.700
85183SOL     OW57380   3.931   9.016   4.653
85183SOL    HW157381   3.878   9.080   4.701
85183SOL    HW257382   3.942   8.943   4.714
85184SOL     OW57383   4.669  10.125  10.047
85184SOL    HW157384   4.745  10.141   9.990
85184SOL    HW257385   4.620  10.207  10.043
85185SOL     OW57386   4.145  14.112   3.261
85185SOL    HW157387   4.182  14.109   3.173
85185SOL    HW257388   4.113  14.202   3.270
85186SOL     OW57389   5.426  12.081   6.204
85186SOL    HW157390   5.341  12.037   6.202
85186SOL    HW257391   5.489  12.014   6.177
85187SOL     OW57392  11.095   9.459   5.167
85187SOL    HW157393  11.040   9.536   5.152
85187SOL    HW257394  11.034   9.389   5.188
85188SOL     OW57395  10.149  13.239   0.393
85188SOL    HW157396  10.150  13.334   0.382
85188SOL    HW257397  10.165  13.205   0.305
85189SOL     OW57398   9.443  11.580  12.651
85189SOL    HW157399   9.529  11.554  12.618
85189SOL    HW257400   9.419  11.511  12.713
85190SOL     OW57401   7.709   7.571  11.565
85190SOL    HW157402   7.631   7.609  11.606
85190SOL    HW257403   7.682   7.482  11.541
85191SOL     OW57404   4.900   2.372   2.198
85191SOL    HW157405   4.818   2.361   2.246
85191SOL    HW257406   4.923   2.464   2.211
85192SOL     OW57407   0.424  11.823   2.089
85192SOL    HW157408   0.364  11.875   2.143
85192SOL    HW257409   0.504  11.876   2.085
85193SOL     OW57410  10.976   4.406   5.866
85193SOL    HW157411  10.899   4.353   5.887
85193SOL    HW257412  11.035   4.346   5.820
85194SOL     OW57413   8.155   7.327  11.916
85194SOL    HW157414   8.250   7.319  11.911
85194SOL    HW257415   8.137   7.420  11.901
85195SOL     OW57416   5.341   6.699  12.462
85195SOL    HW157417   5.246   6.697  12.460
85195SOL    HW257418   5.368   6.633  12.397
85196SOL     OW57419   6.485  12.380   5.680
85196SOL    HW157420   6.512  12.324   5.607
85196SOL    HW257421   6.555  12.371   5.744
85197SOL     OW57422   8.224  13.474   1.755
85197SOL    HW157423   8.134  13.462   1.724
85197SOL    HW257424   8.269  13.517   1.682
85198SOL     OW57425   0.564  10.609   8.716
85198SOL    HW157426   0.621  10.540   8.682
85198SOL    HW257427   0.597  10.626   8.804
85199SOL     OW57428   8.896   0.292   0.355
85199SOL    HW157429   8.863   0.371   0.312
85199SOL    HW257430   8.830   0.225   0.336
85200SOL     OW57431  10.540   2.929  14.082
85200SOL    HW157432  10.513   2.860  14.142
85200SOL    HW257433  10.587   2.992  14.137
85201SOL     OW57434   3.347  13.724  13.122
85201SOL    HW157435   3.325  13.663  13.192
85201SOL    HW257436   3.302  13.690  13.045
85202SOL     OW57437   3.217   7.073  10.667
85202SOL    HW157438   3.270   7.002  10.704
85202SOL    HW257439   3.171   7.111  10.742
85203SOL     OW57440   5.298   4.567   3.626
85203SOL    HW157441   5.330   4.651   3.594
85203SOL    HW257442   5.360   4.502   3.592
85204SOL     OW57443   0.916   8.319   1.600
85204SOL    HW157444   0.849   8.312   1.667
85204SOL    HW257445   0.927   8.414   1.587
85205SOL     OW57446   4.066  11.498   8.287
85205SOL    HW157447   4.050  11.547   8.368
85205SOL    HW257448   4.059  11.406   8.313
85206SOL     OW57449   2.943   3.754   9.387
85206SOL    HW157450   2.860   3.737   9.432
85206SOL    HW257451   2.952   3.682   9.324
85207SOL     OW57452  13.801  14.024  10.202
85207SOL    HW157453  13.735  14.071  10.253
85207SOL    HW257454  13.753  13.950  10.165
85208SOL     OW57455  13.810   1.701   5.698
85208SOL    HW157456  13.821   1.757   5.775
85208SOL    HW257457  13.858   1.621   5.718
85209SOL     OW57458   2.377   8.187  12.213
85209SOL    HW157459   2.314   8.168  12.143
85209SOL    HW257460   2.447   8.123  12.198
85210SOL     OW57461   4.666  10.731  12.758
85210SOL    HW157462   4.728  10.780  12.704
85210SOL    HW257463   4.600  10.796  12.783
85211SOL     OW57464   9.437  12.726  13.705
85211SOL    HW157465   9.404  12.652  13.654
85211SOL    HW257466   9.487  12.685  13.776
85212SOL     OW57467   5.971  11.938  14.676
85212SOL    HW157468   5.932  11.855  14.649
85212SOL    HW257469   5.896  11.998  14.685
85213SOL     OW57470   2.304   7.847  12.308
85213SOL    HW157471   2.394   7.841  12.277
85213SOL    HW257472   2.262   7.908  12.247
85214SOL     OW57473   6.621   1.097   8.488
85214SOL    HW157474   6.599   1.160   8.420
85214SOL    HW257475   6.575   1.128   8.566
85215SOL     OW57476   4.092   3.923   8.524
85215SOL    HW157477   4.132   3.981   8.459
85215SOL    HW257478   4.101   3.836   8.487
85216SOL     OW57479  11.714   0.756   6.269
85216SOL    HW157480  11.692   0.666   6.292
85216SOL    HW257481  11.630   0.801   6.261
85217SOL     OW57482   3.848  10.566   1.158
85217SOL    HW157483   3.887  10.497   1.213
85217SOL    HW257484   3.877  10.648   1.199
85218SOL     OW57485  14.409   4.354   1.298
85218SOL    HW157486  14.475   4.295   1.262
85218SOL    HW257487  14.354   4.299   1.353
85219SOL     OW57488   0.769   4.074   3.043
85219SOL    HW157489   0.770   4.023   3.124
85219SOL    HW257490   0.693   4.042   2.995
85220SOL     OW57491  11.950   0.714   6.137
85220SOL    HW157492  11.952   0.619   6.133
85220SOL    HW257493  11.871   0.735   6.186
85221SOL     OW57494  12.766   9.827   6.413
85221SOL    HW157495  12.730   9.892   6.472
85221SOL    HW257496  12.756   9.865   6.326
85222SOL     OW57497  11.677   7.877   9.146
85222SOL    HW157498  11.681   7.865   9.051
85222SOL    HW257499  11.585   7.862   9.168
85223SOL     OW57500  14.401  11.763   3.354
85223SOL    HW157501  14.398  11.814   3.273
85223SOL    HW257502  14.437  11.678   3.329
85224SOL     OW57503  14.100   4.090  10.222
85224SOL    HW157504  14.183   4.136  10.234
85224SOL    HW257505  14.053   4.142  10.157
85225SOL     OW57506   7.433   1.740   5.841
85225SOL    HW157507   7.442   1.805   5.772
85225SOL    HW257508   7.385   1.785   5.911
85226SOL     OW57509  10.024  12.354   2.984
85226SOL    HW157510  10.071  12.437   2.995
85226SOL    HW257511  10.093  12.288   2.977
85227SOL     OW57512   5.648  13.956   2.190
85227SOL    HW157513   5.651  13.949   2.285
85227SOL    HW257514   5.729  13.915   2.160
85228SOL     OW57515   1.515  13.578  14.490
85228SOL    HW157516   1.591  13.637  14.481
85228SOL    HW257517   1.538  13.502  14.437
85229SOL     OW57518   6.627   2.873   2.409
85229SOL    HW157519   6.708   2.890   2.458
85229SOL    HW257520   6.629   2.938   2.338
85230SOL     OW57521   3.717   2.037  14.597
85230SOL    HW157522   3.756   2.098  14.534
85230SOL    HW257523   3.672   2.094  14.660
85231SOL     OW57524   9.692   6.906   5.195
85231SOL    HW157525   9.622   6.842   5.211
85231SOL    HW257526   9.732   6.920   5.281
85232SOL     OW57527   5.516  13.130   1.893
85232SOL    HW157528   5.559  13.113   1.977
85232SOL    HW257529   5.509  13.044   1.852
85233SOL     OW57530  12.114   0.764   4.996
85233SOL    HW157531  12.202   0.796   4.974
85233SOL    HW257532  12.093   0.807   5.078
85234SOL     OW57533  13.309   1.992  14.040
85234SOL    HW157534  13.233   1.933  14.038
85234SOL    HW257535  13.315   2.026  13.951
85235SOL     OW57536  13.155   1.223  10.467
85235SOL    HW157537  13.129   1.304  10.423
85235SOL    HW257538  13.159   1.246  10.560
85236SOL     OW57539   2.732   1.585  10.998
85236SOL    HW157540   2.738   1.679  11.018
85236SOL    HW257541   2.791   1.573  10.924
85237SOL     OW57542   8.156   1.202   1.040
85237SOL    HW157543   8.111   1.121   1.066
85237SOL    HW257544   8.145   1.205   0.945
85238SOL     OW57545   5.862  13.970  10.005
85238SOL    HW157546   5.829  13.992  10.093
85238SOL    HW257547   5.842  14.047   9.952
85239SOL     OW57548   0.125  14.568   2.362
85239SOL    HW157549   0.177  14.488   2.368
85239SOL    HW257550   0.039  14.538   2.332
85240SOL     OW57551   9.953   0.878   2.169
85240SOL    HW157552  10.019   0.847   2.231
85240SOL    HW257553   9.953   0.973   2.179
85241SOL     OW57554  14.419   5.677  13.404
85241SOL    HW157555  14.339   5.697  13.355
85241SOL    HW257556  14.470   5.758  13.400
85242SOL     OW57557   7.397   9.426   5.249
85242SOL    HW157558   7.310   9.385   5.245
85242SOL    HW257559   7.441   9.381   5.322
85243SOL     OW57560   7.258   5.593   5.384
85243SOL    HW157561   7.245   5.521   5.322
85243SOL    HW257562   7.353   5.604   5.389
85244SOL     OW57563  10.025   1.802   4.369
85244SOL    HW157564  10.008   1.743   4.443
85244SOL    HW257565   9.954   1.866   4.372
85245SOL     OW57566   2.257  12.911   0.377
85245SOL    HW157567   2.311  12.927   0.299
85245SOL    HW257568   2.204  12.835   0.354
85246SOL     OW57569   7.414   6.010  13.732
85246SOL    HW157570   7.432   5.917  13.718
85246SOL    HW257571   7.377   6.040  13.648
85247SOL     OW57572   6.544   6.187  11.537
85247SOL    HW157573   6.597   6.109  11.520
85247SOL    HW257574   6.587   6.256  11.486
85248SOL     OW57575  14.218   1.403   1.217
85248SOL    HW157576  14.285   1.355   1.169
85248SOL    HW257577  14.239   1.495   1.201
85249SOL     OW57578  10.004   2.791  13.273
85249SOL    HW157579   9.991   2.816  13.365
85249SOL    HW257580  10.058   2.712  13.277
85250SOL     OW57581   3.202   6.748  11.368
85250SOL    HW157582   3.296   6.745  11.354
85250SOL    HW257583   3.188   6.701  11.450
85251SOL     OW57584   3.807  12.005   6.684
85251SOL    HW157585   3.888  12.011   6.634
85251SOL    HW257586   3.746  12.062   6.638
85252SOL     OW57587   9.391   8.792  11.025
85252SOL    HW157588   9.419   8.808  11.115
85252SOL    HW257589   9.468   8.758  10.981
85253SOL     OW57590   1.558   2.931   9.550
85253SOL    HW157591   1.478   2.898   9.593
85253SOL    HW257592   1.543   3.024   9.539
85254SOL     OW57593  10.035   2.835   5.231
85254SOL    HW157594   9.999   2.759   5.186
85254SOL    HW257595  10.054   2.898   5.161
85255SOL     OW57596   3.073  10.065   3.036
85255SOL    HW157597   3.135  10.121   2.990
85255SOL    HW257598   3.102  10.066   3.127
85256SOL     OW57599   2.686   2.243  13.997
85256SOL    HW157600   2.745   2.311  14.030
85256SOL    HW257601   2.650   2.279  13.916
85257SOL     OW57602   1.897  11.394   5.349
85257SOL    HW157603   1.834  11.376   5.279
85257SOL    HW257604   1.868  11.339   5.422
85258SOL     OW57605  12.168   4.178   0.216
85258SOL    HW157606  12.199   4.183   0.306
85258SOL    HW257607  12.224   4.240   0.168
85259SOL     OW57608   5.995  10.703   4.445
85259SOL    HW157609   6.005  10.691   4.539
85259SOL    HW257610   5.917  10.652   4.422
85260SOL     OW57611  12.897   9.074  14.504
85260SOL    HW157612  12.920   9.117  14.421
85260SOL    HW257613  12.965   9.008  14.516
85261SOL     OW57614  12.131   6.861   4.470
85261SOL    HW157615  12.117   6.768   4.489
85261SOL    HW257616  12.224   6.875   4.488
85262SOL     OW57617  11.971   9.150   1.269
85262SOL    HW157618  11.925   9.201   1.336
85262SOL    HW257619  11.926   9.171   1.187
85263SOL     OW57620   6.020   0.055  12.484
85263SOL    HW157621   6.082  14.867  12.503
85263SOL    HW257622   5.986   0.081  12.570
85264SOL     OW57623  11.492  12.984  11.497
85264SOL    HW157624  11.473  13.062  11.445
85264SOL    HW257625  11.487  13.014  11.588
85265SOL     OW57626   8.737  10.981   4.827
85265SOL    HW157627   8.714  10.946   4.913
85265SOL    HW257628   8.724  11.075   4.834
85266SOL     OW57629   9.846  10.203  11.475
85266SOL    HW157630   9.835  10.184  11.382
85266SOL    HW257631   9.913  10.272  11.477
85267SOL     OW57632  10.224  13.269   7.578
85267SOL    HW157633  10.170  13.342   7.610
85267SOL    HW257634  10.265  13.303   7.499
85268SOL     OW57635  13.558   0.770   4.712
85268SOL    HW157636  13.545   0.686   4.668
85268SOL    HW257637  13.598   0.747   4.795
85269SOL     OW57638   9.961  13.303  13.091
85269SOL    HW157639   9.963  13.361  13.167
85269SOL    HW257640   9.906  13.348  13.027
85270SOL     OW57641   5.117   6.144  11.090
85270SOL    HW157642   5.029   6.108  11.102
85270SOL    HW257643   5.116   6.185  11.003
85271SOL     OW57644   1.441   9.984   3.445
85271SOL    HW157645   1.353   9.947   3.437
85271SOL    HW257646   1.480   9.937   3.518
85272SOL     OW57647   2.398  12.552   1.777
85272SOL    HW157648   2.459  12.626   1.785
85272SOL    HW257649   2.418  12.496   1.852
85273SOL     OW57650   5.183   2.148  13.664
85273SOL    HW157651   5.131   2.207  13.718
85273SOL    HW257652   5.267   2.193  13.653
85274SOL     OW57653  11.083   7.958   3.273
85274SOL    HW157654  11.129   7.968   3.189
85274SOL    HW257655  11.047   7.870   3.271
85275SOL     OW57656  14.503  10.355  14.055
85275SOL    HW157657  14.465  10.434  14.094
85275SOL    HW257658  14.542  10.386  13.973
85276SOL     OW57659   1.260   7.932  14.284
85276SOL    HW157660   1.294   7.960  14.199
85276SOL    HW257661   1.226   8.012  14.324
85277SOL     OW57662  13.748   4.605   6.621
85277SOL    HW157663  13.665   4.561   6.637
85277SOL    HW257664  13.796   4.544   6.564
85278SOL     OW57665   4.241   8.911   1.320
85278SOL    HW157666   4.293   8.921   1.400
85278SOL    HW257667   4.209   8.821   1.324
85279SOL     OW57668   5.623   0.847   6.633
85279SOL    HW157669   5.669   0.807   6.707
85279SOL    HW257670   5.531   0.826   6.649
85280SOL     OW57671  12.160  11.710   4.780
85280SOL    HW157672  12.076  11.751   4.801
85280SOL    HW257673  12.137  11.622   4.753
85281SOL     OW57674   6.105   1.094   3.931
85281SOL    HW157675   6.189   1.052   3.912
85281SOL    HW257676   6.042   1.050   3.874
85282SOL     OW57677  11.138   3.046  12.310
85282SOL    HW157678  11.080   2.981  12.350
85282SOL    HW257679  11.209   2.995  12.271
85283SOL     OW57680  11.971   6.569  14.027
85283SOL    HW157681  11.911   6.642  14.010
85283SOL    HW257682  12.026   6.599  14.099
85284SOL     OW57683  12.091   4.311   8.996
85284SOL    HW157684  12.107   4.344   9.085
85284SOL    HW257685  11.997   4.324   8.983
85285SOL     OW57686   5.561  13.902  13.476
85285SOL    HW157687   5.593  13.882  13.388
85285SOL    HW257688   5.615  13.976  13.505
85286SOL     OW57689   8.658  12.520   4.007
85286SOL    HW157690   8.725  12.546   3.943
85286SOL    HW257691   8.597  12.594   4.009
85287SOL     OW57692   6.580   1.970   5.693
85287SOL    HW157693   6.497   2.017   5.686
85287SOL    HW257694   6.556   1.878   5.683
85288SOL     OW57695   6.132   2.300   8.397
85288SOL    HW157696   6.097   2.241   8.329
85288SOL    HW257697   6.160   2.378   8.349
85289SOL     OW57698  10.430   1.804   7.470
85289SOL    HW157699  10.501   1.751   7.435
85289SOL    HW257700  10.350   1.758   7.445
85290SOL     OW57701   3.472   8.309   3.017
85290SOL    HW157702   3.490   8.401   3.037
85290SOL    HW257703   3.380   8.297   3.041
85291SOL     OW57704   0.088  14.083   1.691
85291SOL    HW157705   0.159  14.144   1.711
85291SOL    HW257706   0.021  14.103   1.757
85292SOL     OW57707   2.282   5.254   2.912
85292SOL    HW157708   2.321   5.177   2.871
85292SOL    HW257709   2.195   5.261   2.872
85293SOL     OW57710  13.667   7.381   8.697
85293SOL    HW157711  13.724   7.314   8.660
85293SOL    HW257712  13.717   7.419   8.769
85294SOL     OW57713  12.288   8.826   0.586
85294SOL    HW157714  12.221   8.893   0.567
85294SOL    HW257715  12.301   8.782   0.502
85295SOL     OW57716   9.350   1.333  11.759
85295SOL    HW157717   9.438   1.303  11.739
85295SOL    HW257718   9.336   1.307  11.851
85296SOL     OW57719   4.027  11.028   7.055
85296SOL    HW157720   4.111  11.017   7.100
85296SOL    HW257721   3.999  10.939   7.033
85297SOL     OW57722   7.833   8.447   8.234
85297SOL    HW157723   7.829   8.518   8.170
85297SOL    HW257724   7.748   8.404   8.228
85298SOL     OW57725  13.154  11.429  12.027
85298SOL    HW157726  13.198  11.382  11.956
85298SOL    HW257727  13.061  11.405  12.019
85299SOL     OW57728  10.281   3.277   3.858
85299SOL    HW157729  10.367   3.317   3.869
85299SOL    HW257730  10.241   3.323   3.785
85300SOL     OW57731  10.223   2.713  12.501
85300SOL    HW157732  10.147   2.656  12.490
85300SOL    HW257733  10.188   2.801  12.493
85301SOL     OW57734  13.656   2.903   2.576
85301SOL    HW157735  13.743   2.933   2.601
85301SOL    HW257736  13.658   2.809   2.590
85302SOL     OW57737  13.799  11.038  12.348
85302SOL    HW157738  13.880  11.047  12.297
85302SOL    HW257739  13.821  10.976  12.418
85303SOL     OW57740   3.902   7.497   4.683
85303SOL    HW157741   3.822   7.486   4.734
85303SOL    HW257742   3.883   7.569   4.623
85304SOL     OW57743   9.028  13.738   2.963
85304SOL    HW157744   8.946  13.691   2.974
85304SOL    HW257745   9.013  13.823   3.004
85305SOL     OW57746  12.874   5.318   3.527
85305SOL    HW157747  12.833   5.391   3.573
85305SOL    HW257748  12.812   5.245   3.537
85306SOL     OW57749   7.649   6.190   2.467
85306SOL    HW157750   7.724   6.138   2.437
85306SOL    HW257751   7.577   6.128   2.470
85307SOL     OW57752   7.732   8.079  11.621
85307SOL    HW157753   7.805   8.141  11.630
85307SOL    HW257754   7.733   8.054  11.529
85308SOL     OW57755  12.233   1.444  12.853
85308SOL    HW157756  12.295   1.421  12.922
85308SOL    HW257757  12.263   1.395  12.776
85309SOL     OW57758   4.268   9.100  11.121
85309SOL    HW157759   4.237   9.155  11.192
85309SOL    HW257760   4.268   9.157  11.044
85310SOL     OW57761  11.769   0.635   5.342
85310SOL    HW157762  11.738   0.626   5.252
85310SOL    HW257763  11.696   0.604   5.396
85311SOL     OW57764   2.237   1.803   8.774
85311SOL    HW157765   2.164   1.814   8.713
85311SOL    HW257766   2.213   1.855   8.850
85312SOL     OW57767   7.910   6.314   9.232
85312SOL    HW157768   7.896   6.276   9.319
85312SOL    HW257769   7.928   6.407   9.249
85313SOL     OW57770  11.364   4.524   3.466
85313SOL    HW157771  11.318   4.469   3.529
85313SOL    HW257772  11.427   4.466   3.425
85314SOL     OW57773   3.751  11.919  12.048
85314SOL    HW157774   3.820  11.900  11.985
85314SOL    HW257775   3.699  11.988  12.007
85315SOL     OW57776  10.973   8.058   3.678
85315SOL    HW157777  10.913   8.026   3.611
85315SOL    HW257778  11.035   7.986   3.691
85316SOL     OW57779  14.654  12.724  10.337
85316SOL    HW157780  14.624  12.693  10.252
85316SOL    HW257781  14.745  12.696  10.343
85317SOL     OW57782  12.129  11.527   2.609
85317SOL    HW157783  12.166  11.570   2.686
85317SOL    HW257784  12.197  11.466   2.580
85318SOL     OW57785   7.863   9.100  12.110
85318SOL    HW157786   7.843   9.011  12.079
85318SOL    HW257787   7.778   9.143  12.116
85319SOL     OW57788   5.149  13.678   9.609
85319SOL    HW157789   5.116  13.730   9.682
85319SOL    HW257790   5.077  13.676   9.546
85320SOL     OW57791   1.222  10.290   6.649
85320SOL    HW157792   1.148  10.314   6.704
85320SOL    HW257793   1.207  10.197   6.628
85321SOL     OW57794   4.163   1.092  13.157
85321SOL    HW157795   4.093   1.028  13.174
85321SOL    HW257796   4.130   1.143  13.082
85322SOL     OW57797   3.432   5.787   1.127
85322SOL    HW157798   3.469   5.733   1.196
85322SOL    HW257799   3.442   5.736   1.048
85323SOL     OW57800  13.289   3.158   8.004
85323SOL    HW157801  13.283   3.085   8.065
85323SOL    HW257802  13.262   3.234   8.055
85324SOL     OW57803   3.703   5.037  13.396
85324SOL    HW157804   3.772   4.982  13.359
85324SOL    HW257805   3.739   5.068  13.479
85325SOL     OW57806   7.609   2.629   0.143
85325SOL    HW157807   7.662   2.550   0.147
85325SOL    HW257808   7.592   2.651   0.235
85326SOL     OW57809   8.744   9.336   1.742
85326SOL    HW157810   8.775   9.257   1.698
85326SOL    HW257811   8.823   9.376   1.777
85327SOL     OW57812   5.374   9.965  11.145
85327SOL    HW157813   5.342  10.017  11.072
85327SOL    HW257814   5.420   9.891  11.105
85328SOL     OW57815   5.150   7.036   6.857
85328SOL    HW157816   5.107   7.086   6.788
85328SOL    HW257817   5.129   6.945   6.836
85329SOL     OW57818   8.886   6.217   5.190
85329SOL    HW157819   8.849   6.304   5.180
85329SOL    HW257820   8.832   6.161   5.134
85330SOL     OW57821   2.449   1.289   3.557
85330SOL    HW157822   2.533   1.251   3.533
85330SOL    HW257823   2.442   1.368   3.504
85331SOL     OW57824   8.898  12.858  11.462
85331SOL    HW157825   8.863  12.834  11.548
85331SOL    HW257826   8.891  12.953  11.459
85332SOL     OW57827   3.490   8.963   7.453
85332SOL    HW157828   3.415   8.906   7.469
85332SOL    HW257829   3.459   9.051   7.477
85333SOL     OW57830  10.192   8.809   4.967
85333SOL    HW157831  10.165   8.721   4.994
85333SOL    HW257832  10.127   8.835   4.902
85334SOL     OW57833   8.258   3.627   1.694
85334SOL    HW157834   8.192   3.604   1.628
85334SOL    HW257835   8.289   3.542   1.727
85335SOL     OW57836  13.479   0.139  11.134
85335SOL    HW157837  13.484   0.202  11.205
85335SOL    HW257838  13.425   0.068  11.169
85336SOL     OW57839  11.821   3.710   5.707
85336SOL    HW157840  11.913   3.694   5.685
85336SOL    HW257841  11.804   3.799   5.675
85337SOL     OW57842   0.894  10.134   3.907
85337SOL    HW157843   0.897  10.067   3.975
85337SOL    HW257844   0.802  10.162   3.905
85338SOL     OW57845   9.959  13.969   0.558
85338SOL    HW157846  10.023  13.908   0.592
85338SOL    HW257847   9.971  13.966   0.463
85339SOL     OW57848   2.710  14.029  13.232
85339SOL    HW157849   2.667  14.091  13.172
85339SOL    HW257850   2.785  13.996  13.182
85340SOL     OW57851   4.497   7.115   0.641
85340SOL    HW157852   4.541   7.178   0.698
85340SOL    HW257853   4.445   7.061   0.701
85341SOL     OW57854  11.581   2.344  10.909
85341SOL    HW157855  11.647   2.280  10.884
85341SOL    HW257856  11.498   2.305  10.881
85342SOL     OW57857   7.468   6.756   6.900
85342SOL    HW157858   7.539   6.791   6.846
85342SOL    HW257859   7.512   6.713   6.973
85343SOL     OW57860   5.792   9.501   1.223
85343SOL    HW157861   5.703   9.522   1.253
85343SOL    HW257862   5.790   9.518   1.129
85344SOL     OW57863   2.492  12.534  14.197
85344SOL    HW157864   2.576  12.576  14.217
85344SOL    HW257865   2.452  12.519  14.283
85345SOL     OW57866  14.851   8.866   8.364
85345SOL    HW157867   0.027   8.873   8.439
85345SOL    HW257868   0.001   8.932   8.303
85346SOL     OW57869   8.102   2.250   7.993
85346SOL    HW157870   8.036   2.197   8.036
85346SOL    HW257871   8.129   2.199   7.917
85347SOL     OW57872   3.411  10.891  12.939
85347SOL    HW157873   3.373  10.861  12.856
85347SOL    HW257874   3.451  10.812  12.977
85348SOL     OW57875   7.669   6.997   3.082
85348SOL    HW157876   7.608   6.923   3.080
85348SOL    HW257877   7.756   6.956   3.080
85349SOL     OW57878   4.883   9.371   8.389
85349SOL    HW157879   4.812   9.317   8.354
85349SOL    HW257880   4.923   9.412   8.312
85350SOL     OW57881   1.744   0.034   3.716
85350SOL    HW157882   1.772   0.098   3.650
85350SOL    HW257883   1.823   0.018   3.769
85351SOL     OW57884  11.832   5.974   3.731
85351SOL    HW157885  11.771   5.933   3.793
85351SOL    HW257886  11.911   5.990   3.782
85352SOL     OW57887  10.463   0.121   9.123
85352SOL    HW157888  10.444   0.071   9.044
85352SOL    HW257889  10.382   0.169   9.142
85353SOL     OW57890  10.773   3.587   9.641
85353SOL    HW157891  10.847   3.623   9.591
85353SOL    HW257892  10.775   3.635   9.724
85354SOL     OW57893   1.247   2.760   2.826
85354SOL    HW157894   1.183   2.816   2.870
85354SOL    HW257895   1.256   2.797   2.738
85355SOL     OW57896   5.793   5.000   9.729
85355SOL    HW157897   5.817   5.081   9.774
85355SOL    HW257898   5.842   5.004   9.646
85356SOL     OW57899  11.153  14.240  11.117
85356SOL    HW157900  11.125  14.198  11.035
85356SOL    HW257901  11.086  14.216  11.181
85357SOL     OW57902   9.013   4.335  13.422
85357SOL    HW157903   9.079   4.404  13.434
85357SOL    HW257904   9.033   4.299  13.335
85358SOL     OW57905  10.547   1.984  11.722
85358SOL    HW157906  10.497   2.041  11.780
85358SOL    HW257907  10.622   1.956  11.775
85359SOL     OW57908   2.263   7.408   7.223
85359SOL    HW157909   2.271   7.465   7.146
85359SOL    HW257910   2.333   7.343   7.213
85360SOL     OW57911   2.687   7.924  11.404
85360SOL    HW157912   2.705   8.005  11.357
85360SOL    HW257913   2.592   7.914  11.399
85361SOL     OW57914   9.945   4.703  14.162
85361SOL    HW157915  10.024   4.756  14.173
85361SOL    HW257916   9.932   4.663  14.247
85362SOL     OW57917   1.011   3.767   3.773
85362SOL    HW157918   0.975   3.704   3.711
85362SOL    HW257919   1.064   3.826   3.719
85363SOL     OW57920   5.910   9.519   8.181
85363SOL    HW157921   5.954   9.466   8.248
85363SOL    HW257922   5.829   9.472   8.162
85364SOL     OW57923   1.463  12.305   9.386
85364SOL    HW157924   1.462  12.361   9.308
85364SOL    HW257925   1.383  12.253   9.380
85365SOL     OW57926   1.272  11.320   9.339
85365SOL    HW157927   1.221  11.246   9.372
85365SOL    HW257928   1.255  11.321   9.245
85366SOL     OW57929   2.811   8.705  14.352
85366SOL    HW157930   2.741   8.640  14.368
85366SOL    HW257931   2.765   8.781  14.317
85367SOL     OW57932   4.189   9.062   6.782
85367SOL    HW157933   4.259   8.998   6.773
85367SOL    HW257934   4.227   9.131   6.837
85368SOL     OW57935  13.418   9.113   5.218
85368SOL    HW157936  13.428   9.168   5.140
85368SOL    HW257937  13.442   9.171   5.291
85369SOL     OW57938   4.802   4.988   8.471
85369SOL    HW157939   4.748   5.049   8.521
85369SOL    HW257940   4.852   5.044   8.411
85370SOL     OW57941   1.002   2.922  10.190
85370SOL    HW157942   0.962   3.008  10.173
85370SOL    HW257943   1.024   2.888  10.103
85371SOL     OW57944   7.485   6.962   7.494
85371SOL    HW157945   7.435   7.033   7.533
85371SOL    HW257946   7.440   6.943   7.412
85372SOL     OW57947   8.662  14.036  11.873
85372SOL    HW157948   8.732  14.084  11.828
85372SOL    HW257949   8.688  13.944  11.867
85373SOL     OW57950   1.332   0.941   3.263
85373SOL    HW157951   1.386   1.016   3.237
85373SOL    HW257952   1.245   0.978   3.274
85374SOL     OW57953   4.665   9.310   5.559
85374SOL    HW157954   4.739   9.255   5.588
85374SOL    HW257955   4.669   9.387   5.616
85375SOL     OW57956   2.014   6.160   9.432
85375SOL    HW157957   2.019   6.115   9.517
85375SOL    HW257958   2.052   6.098   9.370
85376SOL     OW57959   5.805   1.105  11.067
85376SOL    HW157960   5.778   1.054  10.991
85376SOL    HW257961   5.762   1.062  11.141
85377SOL     OW57962  13.906   6.109   2.126
85377SOL    HW157963  13.850   6.109   2.204
85377SOL    HW257964  13.970   6.179   2.143
85378SOL     OW57965   2.599   7.087   3.771
85378SOL    HW157966   2.628   7.178   3.759
85378SOL    HW257967   2.578   7.057   3.682
85379SOL     OW57968   4.166   1.236   5.841
85379SOL    HW157969   4.106   1.304   5.811
85379SOL    HW257970   4.216   1.278   5.911
85380SOL     OW57971  13.214   4.277   1.080
85380SOL    HW157972  13.176   4.361   1.107
85380SOL    HW257973  13.305   4.281   1.110
85381SOL     OW57974   5.193  13.989   8.458
85381SOL    HW157975   5.108  13.965   8.496
85381SOL    HW257976   5.247  14.015   8.532
85382SOL     OW57977  14.693   4.784   1.026
85382SOL    HW157978  14.717   4.843   0.954
85382SOL    HW257979  14.599   4.797   1.037
85383SOL     OW57980  12.600  10.550   5.219
85383SOL    HW157981  12.587  10.510   5.305
85383SOL    HW257982  12.549  10.495   5.159
85384SOL     OW57983   1.225  12.395   8.029
85384SOL    HW157984   1.193  12.484   8.041
85384SOL    HW257985   1.301  12.389   8.087
85385SOL     OW57986   4.955  10.663   9.745
85385SOL    HW157987   5.009  10.720   9.690
85385SOL    HW257988   4.994  10.576   9.735
85386SOL     OW57989   1.112   3.602   4.346
85386SOL    HW157990   1.201   3.630   4.324
85386SOL    HW257991   1.061   3.619   4.267
85387SOL     OW57992   4.274  14.639   6.190
85387SOL    HW157993   4.185  14.612   6.165
85387SOL    HW257994   4.286  14.724   6.148
85388SOL     OW57995   0.546  10.170   2.110
85388SOL    HW157996   0.501  10.223   2.044
85388SOL    HW257997   0.490  10.093   2.120
85389SOL     OW57998   7.679  11.000   4.799
85389SOL    HW157999   7.714  11.064   4.861
85389SOL    HW258000   7.755  10.963   4.755
85390SOL     OW58001   3.029  14.527   7.847
85390SOL    HW158002   3.076  14.444   7.839
85390SOL    HW258003   3.078  14.587   7.791
85391SOL     OW58004   7.060  12.713   5.521
85391SOL    HW158005   7.129  12.669   5.471
85391SOL    HW258006   7.105  12.785   5.565
85392SOL     OW58007   8.608   3.584   9.463
85392SOL    HW158008   8.557   3.613   9.388
85392SOL    HW258009   8.546   3.586   9.536
85393SOL     OW58010   5.893   5.114   0.990
85393SOL    HW158011   5.905   5.020   0.992
85393SOL    HW258012   5.949   5.147   1.060
85394SOL     OW58013  11.779  12.511   8.438
85394SOL    HW158014  11.767  12.516   8.343
85394SOL    HW258015  11.701  12.465   8.469
85395SOL     OW58016   4.499   3.126  13.047
85395SOL    HW158017   4.405   3.124  13.026
85395SOL    HW258018   4.516   3.217  13.072
85396SOL     OW58019   4.844   8.660   2.311
85396SOL    HW158020   4.868   8.714   2.387
85396SOL    HW258021   4.895   8.698   2.239
85397SOL     OW58022  13.294   6.863  12.205
85397SOL    HW158023  13.276   6.828  12.292
85397SOL    HW258024  13.243   6.808  12.146
85398SOL     OW58025   5.853  12.493  11.522
85398SOL    HW158026   5.827  12.402  11.538
85398SOL    HW258027   5.848  12.503  11.427
85399SOL     OW58028   7.542  12.005  10.938
85399SOL    HW158029   7.460  12.044  10.968
85399SOL    HW258030   7.609  12.071  10.957
85400SOL     OW58031   0.408   0.816   2.522
85400SOL    HW158032   0.348   0.811   2.596
85400SOL    HW258033   0.351   0.805   2.445
85401SOL     OW58034  13.404   6.591  11.697
85401SOL    HW158035  13.384   6.685  11.697
85401SOL    HW258036  13.438   6.574  11.785
85402SOL     OW58037   2.829   1.210   3.309
85402SOL    HW158038   2.737   1.183   3.309
85402SOL    HW258039   2.850   1.224   3.401
85403SOL     OW58040  10.960  10.910  10.638
85403SOL    HW158041  10.924  10.994  10.610
85403SOL    HW258042  10.953  10.854  10.560
85404SOL     OW58043   7.766  11.991  13.327
85404SOL    HW158044   7.804  11.999  13.239
85404SOL    HW258045   7.842  11.984  13.385
85405SOL     OW58046  12.150   1.507   7.197
85405SOL    HW158047  12.091   1.571   7.236
85405SOL    HW258048  12.092   1.442   7.156
85406SOL     OW58049   6.282   6.484  14.458
85406SOL    HW158050   6.340   6.410  14.476
85406SOL    HW258051   6.240   6.502  14.543
85407SOL     OW58052   6.508  12.315   2.287
85407SOL    HW158053   6.593  12.321   2.244
85407SOL    HW258054   6.505  12.227   2.323
85408SOL     OW58055   9.212   2.326   1.053
85408SOL    HW158056   9.288   2.298   1.001
85408SOL    HW258057   9.136   2.304   0.999
85409SOL     OW58058   5.204   2.832   9.823
85409SOL    HW158059   5.167   2.882   9.895
85409SOL    HW258060   5.130   2.813   9.766
85410SOL     OW58061  14.060   0.021   6.015
85410SOL    HW158062  13.993  14.839   6.036
85410SOL    HW258063  14.130   0.005   6.078
85411SOL     OW58064   1.609   8.799  14.846
85411SOL    HW158065   1.686   8.764  14.801
85411SOL    HW258066   1.635   8.887  14.874
85412SOL     OW58067  12.642   4.532   6.023
85412SOL    HW158068  12.652   4.608   5.966
85412SOL    HW258069  12.720   4.479   6.006
85413SOL     OW58070  13.486   6.139   6.276
85413SOL    HW158071  13.412   6.123   6.333
85413SOL    HW258072  13.453   6.123   6.188
85414SOL     OW58073   9.648   2.102   6.106
85414SOL    HW158074   9.558   2.132   6.115
85414SOL    HW258075   9.666   2.058   6.189
85415SOL     OW58076   4.480   4.013   1.374
85415SOL    HW158077   4.515   4.097   1.346
85415SOL    HW258078   4.386   4.027   1.382
85416SOL     OW58079   0.883   2.655   6.983
85416SOL    HW158080   0.915   2.716   6.915
85416SOL    HW258081   0.867   2.574   6.935
85417SOL     OW58082   4.428   6.721  10.585
85417SOL    HW158083   4.491   6.716  10.513
85417SOL    HW258084   4.368   6.792  10.560
85418SOL     OW58085  13.875   3.642   3.086
85418SOL    HW158086  13.941   3.705   3.056
85418SOL    HW258087  13.811   3.696   3.132
85419SOL     OW58088  10.493   7.927   6.270
85419SOL    HW158089  10.416   7.984   6.274
85419SOL    HW258090  10.545   7.951   6.346
85420SOL     OW58091   7.143  10.223  10.217
85420SOL    HW158092   7.117  10.253  10.304
85420SOL    HW258093   7.234  10.197  10.227
85421SOL     OW58094  12.319   2.928   6.938
85421SOL    HW158095  12.229   2.946   6.966
85421SOL    HW258096  12.374   2.970   7.004
85422SOL     OW58097   8.111   9.402   8.572
85422SOL    HW158098   8.026   9.432   8.604
85422SOL    HW258099   8.156   9.369   8.650
85423SOL     OW58100   3.886   4.118   0.492
85423SOL    HW158101   3.842   4.113   0.407
85423SOL    HW258102   3.930   4.034   0.501
85424SOL     OW58103   4.265   8.863  12.636
85424SOL    HW158104   4.170   8.855  12.642
85424SOL    HW258105   4.284   8.856  12.543
85425SOL     OW58106   1.676   9.624   9.817
85425SOL    HW158107   1.668   9.719   9.831
85425SOL    HW258108   1.764   9.613   9.781
85426SOL     OW58109   5.613  14.559   9.678
85426SOL    HW158110   5.599  14.464   9.683
85426SOL    HW258111   5.556  14.594   9.747
85427SOL     OW58112   4.545   1.178   4.333
85427SOL    HW158113   4.598   1.218   4.402
85427SOL    HW258114   4.609   1.141   4.273
85428SOL     OW58115   4.793   3.832   4.152
85428SOL    HW158116   4.862   3.852   4.216
85428SOL    HW258117   4.782   3.912   4.102
85429SOL     OW58118  13.609   2.006   9.680
85429SOL    HW158119  13.609   2.070   9.751
85429SOL    HW258120  13.551   1.936   9.711
85430SOL     OW58121  13.400   3.939  11.740
85430SOL    HW158122  13.319   3.890  11.727
85430SOL    HW258123  13.394   4.012  11.679
85431SOL     OW58124  13.285   3.995   2.761
85431SOL    HW158125  13.259   3.996   2.669
85431SOL    HW258126  13.377   3.968   2.759
85432SOL     OW58127   4.443   1.751   5.111
85432SOL    HW158128   4.452   1.656   5.110
85432SOL    HW258129   4.526   1.783   5.077
85433SOL     OW58130  14.375   5.891   6.108
85433SOL    HW158131  14.405   5.805   6.138
85433SOL    HW258132  14.280   5.889   6.123
85434SOL     OW58133   9.890  10.758  12.224
85434SOL    HW158134   9.898  10.777  12.318
85434SOL    HW258135   9.798  10.775  12.204
85435SOL     OW58136  12.327   2.275   7.482
85435SOL    HW158137  12.337   2.192   7.435
85435SOL    HW258138  12.379   2.264   7.561
85436SOL     OW58139   0.274   6.989   3.582
85436SOL    HW158140   0.301   7.081   3.588
85436SOL    HW258141   0.350   6.941   3.614
85437SOL     OW58142   5.497   8.412   3.352
85437SOL    HW158143   5.518   8.482   3.290
85437SOL    HW258144   5.581   8.367   3.366
85438SOL     OW58145   1.439   4.275   2.545
85438SOL    HW158146   1.393   4.215   2.603
85438SOL    HW258147   1.407   4.362   2.570
85439SOL     OW58148   0.849   2.593   0.745
85439SOL    HW158149   0.944   2.578   0.750
85439SOL    HW258150   0.832   2.659   0.813
85440SOL     OW58151   5.978   3.578  14.069
85440SOL    HW158152   5.895   3.534  14.088
85440SOL    HW258153   6.014   3.598  14.155
85441SOL     OW58154  12.124   9.020   3.329
85441SOL    HW158155  12.199   8.965   3.310
85441SOL    HW258156  12.161   9.100   3.365
85442SOL     OW58157   9.143   7.055  10.806
85442SOL    HW158158   9.124   6.961  10.804
85442SOL    HW258159   9.220   7.065  10.750
85443SOL     OW58160   4.088   0.032   7.099
85443SOL    HW158161   4.065   0.074   7.182
85443SOL    HW258162   4.004   0.013   7.058
85444SOL     OW58163   4.617   4.740  13.151
85444SOL    HW158164   4.627   4.725  13.246
85444SOL    HW258165   4.546   4.682  13.125
85445SOL     OW58166  13.307   5.438  10.214
85445SOL    HW158167  13.343   5.512  10.261
85445SOL    HW258168  13.288   5.373  10.281
85446SOL     OW58169   4.055   1.146   0.305
85446SOL    HW158170   4.113   1.076   0.336
85446SOL    HW258171   4.045   1.204   0.380
85447SOL     OW58172   3.331   7.552  10.654
85447SOL    HW158173   3.311   7.513  10.569
85447SOL    HW258174   3.246   7.562  10.696
85448SOL     OW58175   0.673   0.048   2.804
85448SOL    HW158176   0.584   0.083   2.818
85448SOL    HW258177   0.705   0.031   2.892
85449SOL     OW58178   9.913   2.615  13.598
85449SOL    HW158179   9.861   2.630  13.519
85449SOL    HW258180   9.952   2.529  13.584
85450SOL     OW58181  14.177  14.253   0.682
85450SOL    HW158182  14.170  14.171   0.730
85450SOL    HW258183  14.111  14.247   0.613
85451SOL     OW58184  13.924   2.323   2.061
85451SOL    HW158185  13.886   2.392   2.007
85451SOL    HW258186  13.984   2.368   2.119
85452SOL     OW58187   6.132   1.549  10.091
85452SOL    HW158188   6.153   1.623  10.034
85452SOL    HW258189   6.091   1.589  10.168
85453SOL     OW58190  14.638  10.634   5.568
85453SOL    HW158191  14.603  10.623   5.479
85453SOL    HW258192  14.670  10.724   5.570
85454SOL     OW58193   2.165   4.027  11.862
85454SOL    HW158194   2.237   4.014  11.924
85454SOL    HW258195   2.193   3.979  11.783
85455SOL     OW58196  12.570  14.102   1.869
85455SOL    HW158197  12.507  14.070   1.933
85455SOL    HW258198  12.622  14.024   1.846
85456SOL     OW58199   5.635  12.919  10.881
85456SOL    HW158200   5.710  12.951  10.832
85456SOL    HW258201   5.589  12.998  10.910
85457SOL     OW58202   3.470   2.768   8.157
85457SOL    HW158203   3.421   2.701   8.110
85457SOL    HW258204   3.430   2.851   8.130
85458SOL     OW58205  10.416   8.023  13.108
85458SOL    HW158206  10.380   8.023  13.019
85458SOL    HW258207  10.395   7.935  13.142
85459SOL     OW58208   7.629   7.435   7.417
85459SOL    HW158209   7.620   7.389   7.500
85459SOL    HW258210   7.549   7.487   7.409
85460SOL     OW58211   7.658  12.711   6.081
85460SOL    HW158212   7.646  12.796   6.124
85460SOL    HW258213   7.748  12.686   6.101
85461SOL     OW58214   2.475   5.586   3.210
85461SOL    HW158215   2.443   5.590   3.300
85461SOL    HW258216   2.486   5.492   3.193
85462SOL     OW58217   8.516   0.114   2.119
85462SOL    HW158218   8.470   0.155   2.192
85462SOL    HW258219   8.539   0.186   2.061
85463SOL     OW58220   5.121  11.460  11.067
85463SOL    HW158221   5.194  11.423  11.117
85463SOL    HW258222   5.132  11.426  10.979
85464SOL     OW58223   3.659   4.170   1.273
85464SOL    HW158224   3.723   4.145   1.341
85464SOL    HW258225   3.697   4.138   1.192
85465SOL     OW58226  12.142   5.261   9.872
85465SOL    HW158227  12.174   5.217   9.793
85465SOL    HW258228  12.053   5.288   9.850
85466SOL     OW58229   3.127   5.277   3.152
85466SOL    HW158230   3.177   5.323   3.085
85466SOL    HW258231   3.188   5.269   3.226
85467SOL     OW58232  11.526   4.041   4.691
85467SOL    HW158233  11.586   4.048   4.617
85467SOL    HW258234  11.551   4.113   4.749
85468SOL     OW58235   9.338   3.380   7.014
85468SOL    HW158236   9.281   3.367   7.090
85468SOL    HW258237   9.300   3.323   6.946
85469SOL     OW58238   5.298   8.190  11.719
85469SOL    HW158239   5.264   8.148  11.798
85469SOL    HW258240   5.365   8.129  11.687
85470SOL     OW58241  14.212   2.197   9.963
85470SOL    HW158242  14.275   2.269   9.973
85470SOL    HW258243  14.265   2.122   9.938
85471SOL     OW58244   8.075  14.413   4.616
85471SOL    HW158245   8.140  14.450   4.557
85471SOL    HW258246   8.007  14.378   4.559
85472SOL     OW58247   3.202  12.159   9.812
85472SOL    HW158248   3.225  12.084   9.756
85472SOL    HW258249   3.164  12.120   9.891
85473SOL     OW58250   9.286  10.637  14.478
85473SOL    HW158251   9.377  10.611  14.493
85473SOL    HW258252   9.282  10.661  14.385
85474SOL     OW58253   3.164   8.815   1.980
85474SOL    HW158254   3.258   8.807   1.963
85474SOL    HW258255   3.127   8.847   1.898
85475SOL     OW58256   1.433   8.173   9.528
85475SOL    HW158257   1.525   8.191   9.509
85475SOL    HW258258   1.435   8.122   9.610
85476SOL     OW58259   7.196  12.099  13.312
85476SOL    HW158260   7.241  12.174  13.349
85476SOL    HW258261   7.220  12.026  13.369
85477SOL     OW58262  12.957   3.835   3.276
85477SOL    HW158263  12.889   3.799   3.333
85477SOL    HW258264  12.931   3.926   3.262
85478SOL     OW58265   8.033  11.030   5.570
85478SOL    HW158266   7.954  10.978   5.586
85478SOL    HW258267   8.091  11.009   5.643
85479SOL     OW58268   1.797  10.426  13.247
85479SOL    HW158269   1.856  10.476  13.304
85479SOL    HW258270   1.742  10.492  13.205
85480SOL     OW58271   3.512  10.993   8.389
85480SOL    HW158272   3.549  10.970   8.474
85480SOL    HW258273   3.584  10.983   8.328
85481SOL     OW58274   7.506   0.279   9.489
85481SOL    HW158275   7.465   0.240   9.567
85481SOL    HW258276   7.531   0.367   9.517
85482SOL     OW58277   3.466  11.157  10.088
85482SOL    HW158278   3.394  11.096  10.102
85482SOL    HW258279   3.463  11.177   9.994
85483SOL     OW58280   5.770   0.942   4.887
85483SOL    HW158281   5.713   0.985   4.950
85483SOL    HW258282   5.780   0.853   4.922
85484SOL     OW58283   4.355   4.099   9.580
85484SOL    HW158284   4.293   4.052   9.635
85484SOL    HW258285   4.426   4.123   9.639
85485SOL     OW58286   2.766   4.773   1.684
85485SOL    HW158287   2.754   4.678   1.679
85485SOL    HW258288   2.788   4.790   1.775
85486SOL     OW58289  10.636  11.266   5.100
85486SOL    HW158290  10.621  11.358   5.124
85486SOL    HW258291  10.590  11.255   5.017
85487SOL     OW58292   0.584   4.741   1.746
85487SOL    HW158293   0.649   4.671   1.747
85487SOL    HW258294   0.578   4.766   1.654
85488SOL     OW58295  12.180  11.879   6.399
85488SOL    HW158296  12.261  11.929   6.385
85488SOL    HW258297  12.147  11.911   6.483
85489SOL     OW58298   9.473   6.027   7.926
85489SOL    HW158299   9.452   5.975   7.849
85489SOL    HW258300   9.443   6.115   7.904
85490SOL     OW58301  12.344   1.854  13.225
85490SOL    HW158302  12.388   1.890  13.302
85490SOL    HW258303  12.390   1.772  13.207
85491SOL     OW58304   0.223  11.694   7.055
85491SOL    HW158305   0.138  11.672   7.018
85491SOL    HW258306   0.217  11.787   7.076
85492SOL     OW58307   6.445  11.803   1.755
85492SOL    HW158308   6.483  11.809   1.843
85492SOL    HW258309   6.516  11.831   1.697
85493SOL     OW58310   2.217   6.100  13.207
85493SOL    HW158311   2.136   6.095  13.259
85493SOL    HW258312   2.231   6.194  13.193
85494SOL     OW58313   3.986   5.099   1.876
85494SOL    HW158314   4.011   5.080   1.967
85494SOL    HW258315   4.058   5.063   1.824
85495SOL     OW58316   8.526   9.658  12.679
85495SOL    HW158317   8.566   9.573  12.699
85495SOL    HW258318   8.598   9.721  12.688
85496SOL     OW58319   3.296  14.406   3.310
85496SOL    HW158320   3.363  14.443   3.368
85496SOL    HW258321   3.346  14.365   3.239
85497SOL     OW58322  12.267  10.467  10.667
85497SOL    HW158323  12.246  10.549  10.624
85497SOL    HW258324  12.202  10.405  10.632
85498SOL     OW58325   2.793   9.436   4.568
85498SOL    HW158326   2.878   9.480   4.569
85498SOL    HW258327   2.814   9.343   4.571
85499SOL     OW58328   2.959   9.789   7.640
85499SOL    HW158329   3.051   9.765   7.638
85499SOL    HW258330   2.919   9.736   7.571
85500SOL     OW58331   2.851  13.692  10.219
85500SOL    HW158332   2.820  13.620  10.273
85500SOL    HW258333   2.799  13.688  10.139
85501SOL     OW58334   5.858  13.182  11.000
85501SOL    HW158335   5.919  13.162  11.072
85501SOL    HW258336   5.915  13.211  10.928
85502SOL     OW58337  12.669   5.827   0.867
85502SOL    HW158338  12.656   5.734   0.851
85502SOL    HW258339  12.758   5.844   0.836
85503SOL     OW58340  12.456   5.905  14.760
85503SOL    HW158341  12.494   5.979  14.807
85503SOL    HW258342  12.459   5.930  14.668
85504SOL     OW58343   8.314   9.218   1.464
85504SOL    HW158344   8.345   9.153   1.401
85504SOL    HW258345   8.394   9.262   1.495
85505SOL     OW58346   7.530   4.577  11.603
85505SOL    HW158347   7.531   4.513  11.673
85505SOL    HW258348   7.446   4.563  11.559
85506SOL     OW58349   6.627   4.516  13.152
85506SOL    HW158350   6.543   4.561  13.150
85506SOL    HW258351   6.686   4.574  13.102
85507SOL     OW58352  14.716   3.930   8.160
85507SOL    HW158353  14.685   3.965   8.076
85507SOL    HW258354  14.661   3.974   8.225
85508SOL     OW58355  11.503   6.074   2.031
85508SOL    HW158356  11.422   6.106   2.071
85508SOL    HW258357  11.570   6.136   2.061
85509SOL     OW58358  10.264  13.246  13.559
85509SOL    HW158359  10.195  13.238  13.493
85509SOL    HW258360  10.262  13.339  13.584
85510SOL     OW58361   5.316   1.381  10.394
85510SOL    HW158362   5.326   1.318  10.322
85510SOL    HW258363   5.328   1.330  10.473
85511SOL     OW58364   8.496   7.599  12.549
85511SOL    HW158365   8.451   7.540  12.609
85511SOL    HW258366   8.537   7.541  12.485
85512SOL     OW58367   2.706   9.449   3.763
85512SOL    HW158368   2.614   9.477   3.754
85512SOL    HW258369   2.747   9.477   3.682
85513SOL     OW58370   9.922  12.467   8.601
85513SOL    HW158371   9.933  12.420   8.683
85513SOL    HW258372   9.837  12.439   8.568
85514SOL     OW58373   8.911  13.132   2.420
85514SOL    HW158374   8.992  13.128   2.369
85514SOL    HW258375   8.899  13.225   2.438
85515SOL     OW58376   6.962   0.314   1.632
85515SOL    HW158377   6.946   0.228   1.591
85515SOL    HW258378   6.972   0.294   1.725
85516SOL     OW58379  12.738   9.426   2.345
85516SOL    HW158380  12.809   9.478   2.381
85516SOL    HW258381  12.670   9.428   2.413
85517SOL     OW58382   2.471  13.595   2.412
85517SOL    HW158383   2.561  13.590   2.379
85517SOL    HW258384   2.465  13.683   2.449
85518SOL     OW58385  11.934   7.748   8.508
85518SOL    HW158386  11.946   7.665   8.552
85518SOL    HW258387  11.960   7.814   8.573
85519SOL     OW58388   1.308  11.157  10.743
85519SOL    HW158389   1.237  11.096  10.720
85519SOL    HW258390   1.360  11.109  10.808
85520SOL     OW58391   1.875   2.587   6.018
85520SOL    HW158392   1.797   2.558   6.064
85520SOL    HW258393   1.842   2.623   5.935
85521SOL     OW58394   9.279  12.153   0.838
85521SOL    HW158395   9.318  12.106   0.765
85521SOL    HW258396   9.186  12.127   0.836
85522SOL     OW58397   9.546  14.766  10.812
85522SOL    HW158398   9.505  14.830  10.753
85522SOL    HW258399   9.473  14.715  10.847
85523SOL     OW58400   7.605   8.952   7.383
85523SOL    HW158401   7.606   9.047   7.391
85523SOL    HW258402   7.688   8.929   7.342
85524SOL     OW58403   7.701  11.308   2.681
85524SOL    HW158404   7.780  11.304   2.627
85524SOL    HW258405   7.634  11.343   2.622
85525SOL     OW58406   3.101  11.610  12.866
85525SOL    HW158407   3.011  11.642  12.854
85525SOL    HW258408   3.135  11.663  12.939
85526SOL     OW58409  11.203  12.320  13.626
85526SOL    HW158410  11.121  12.294  13.669
85526SOL    HW258411  11.191  12.293  13.535
85527SOL     OW58412  10.261   5.041   6.524
85527SOL    HW158413  10.325   5.103   6.560
85527SOL    HW258414  10.176   5.075   6.551
85528SOL     OW58415   0.432  12.338  12.605
85528SOL    HW158416   0.417  12.362  12.513
85528SOL    HW258417   0.423  12.243  12.607
85529SOL     OW58418   0.911   4.025   4.301
85529SOL    HW158419   0.870   4.109   4.281
85529SOL    HW258420   0.976   4.012   4.231
85530SOL     OW58421   8.537   0.530   2.674
85530SOL    HW158422   8.492   0.472   2.735
85530SOL    HW258423   8.575   0.598   2.731
85531SOL     OW58424   2.031   9.772  14.561
85531SOL    HW158425   1.972   9.738  14.493
85531SOL    HW258426   2.114   9.728  14.545
85532SOL     OW58427   9.171   3.526   6.792
85532SOL    HW158428   9.107   3.567   6.733
85532SOL    HW258429   9.122   3.512   6.873
85533SOL     OW58430  14.353   8.823   5.711
85533SOL    HW158431  14.327   8.731   5.709
85533SOL    HW258432  14.448   8.821   5.700
85534SOL     OW58433  12.247   4.148  11.743
85534SOL    HW158434  12.199   4.231  11.740
85534SOL    HW258435  12.327   4.168  11.791
85535SOL     OW58436  12.759   0.222  12.860
85535SOL    HW158437  12.737   0.283  12.790
85535SOL    HW258438  12.703   0.249  12.933
85536SOL     OW58439   1.475   4.935  12.384
85536SOL    HW158440   1.518   4.975  12.308
85536SOL    HW258441   1.540   4.941  12.454
85537SOL     OW58442   6.180   9.295  13.939
85537SOL    HW158443   6.118   9.244  13.887
85537SOL    HW258444   6.176   9.255  14.026
85538SOL     OW58445   1.676  13.130   1.208
85538SOL    HW158446   1.639  13.199   1.154
85538SOL    HW258447   1.753  13.170   1.248
85539SOL     OW58448   9.458  14.844  12.525
85539SOL    HW158449   9.383   0.019  12.544
85539SOL    HW258450   9.422  14.778  12.466
85540SOL     OW58451   2.922   0.979  10.419
85540SOL    HW158452   2.962   0.924  10.486
85540SOL    HW258453   2.829   0.982  10.443
85541SOL     OW58454  12.404  13.402   0.776
85541SOL    HW158455  12.491  13.401   0.817
85541SOL    HW258456  12.422  13.396   0.682
85542SOL     OW58457   3.147  14.727  12.204
85542SOL    HW158458   3.144  14.760  12.293
85542SOL    HW258459   3.094  14.647  12.206
85543SOL     OW58460  14.686  11.320   2.155
85543SOL    HW158461  14.661  11.263   2.082
85543SOL    HW258462  14.755  11.272   2.200
85544SOL     OW58463   6.440   8.693   9.684
85544SOL    HW158464   6.393   8.647   9.615
85544SOL    HW258465   6.472   8.624   9.742
85545SOL     OW58466  13.544   1.824  10.384
85545SOL    HW158467  13.537   1.770  10.305
85545SOL    HW258468  13.520   1.912  10.354
85546SOL     OW58469   9.429   0.576  11.781
85546SOL    HW158470   9.493   0.643  11.805
85546SOL    HW258471   9.349   0.601  11.827
85547SOL     OW58472   6.475   3.387   6.560
85547SOL    HW158473   6.505   3.431   6.639
85547SOL    HW258474   6.410   3.446   6.522
85548SOL     OW58475   4.245   3.745   8.316
85548SOL    HW158476   4.326   3.780   8.351
85548SOL    HW258477   4.234   3.789   8.231
85549SOL     OW58478  10.803   2.270   0.772
85549SOL    HW158479  10.785   2.239   0.861
85549SOL    HW258480  10.717   2.283   0.733
85550SOL     OW58481   1.642  11.655   5.745
85550SOL    HW158482   1.676  11.577   5.702
85550SOL    HW258483   1.698  11.727   5.715
85551SOL     OW58484   2.477   6.706   4.958
85551SOL    HW158485   2.442   6.733   5.043
85551SOL    HW258486   2.483   6.611   4.963
85552SOL     OW58487  14.021  14.649   0.490
85552SOL    HW158488  14.075  14.586   0.441
85552SOL    HW258489  13.942  14.600   0.512
85553SOL     OW58490   4.668  10.240   3.478
85553SOL    HW158491   4.683  10.153   3.442
85553SOL    HW258492   4.593  10.274   3.429
85554SOL     OW58493  10.917   9.450   6.659
85554SOL    HW158494  10.950   9.536   6.685
85554SOL    HW258495  10.842   9.469   6.602
85555SOL     OW58496  11.057   8.128  10.023
85555SOL    HW158497  11.065   8.040   9.985
85555SOL    HW258498  11.034   8.184   9.948
85556SOL     OW58499  14.125   9.343   3.596
85556SOL    HW158500  14.203   9.306   3.556
85556SOL    HW258501  14.154   9.426   3.634
85557SOL     OW58502   8.603  12.735  13.602
85557SOL    HW158503   8.576  12.756  13.513
85557SOL    HW258504   8.606  12.820  13.647
85558SOL     OW58505   9.463   1.330   7.633
85558SOL    HW158506   9.488   1.247   7.672
85558SOL    HW258507   9.524   1.342   7.560
85559SOL     OW58508   4.257   3.950  12.085
85559SOL    HW158509   4.305   3.937  12.003
85559SOL    HW258510   4.166   3.960  12.058
85560SOL     OW58511   4.066  11.957   1.180
85560SOL    HW158512   4.011  11.903   1.124
85560SOL    HW258513   4.133  11.993   1.121
85561SOL     OW58514   6.632   0.108   1.188
85561SOL    HW158515   6.710   0.107   1.244
85561SOL    HW258516   6.648   0.179   1.127
85562SOL     OW58517   1.363   3.771  11.687
85562SOL    HW158518   1.300   3.841  11.671
85562SOL    HW258519   1.384   3.737  11.601
85563SOL     OW58520   1.436   2.876   7.509
85563SOL    HW158521   1.343   2.895   7.496
85563SOL    HW258522   1.443   2.857   7.603
85564SOL     OW58523   2.367   0.318   3.057
85564SOL    HW158524   2.400   0.235   3.091
85564SOL    HW258525   2.440   0.351   3.003
85565SOL     OW58526   5.437   1.632   1.090
85565SOL    HW158527   5.357   1.589   1.120
85565SOL    HW258528   5.414   1.724   1.082
85566SOL     OW58529   6.088  14.443   3.870
85566SOL    HW158530   6.096  14.534   3.842
85566SOL    HW258531   5.994  14.428   3.878
85567SOL     OW58532   0.505   0.947   0.922
85567SOL    HW158533   0.522   0.888   0.996
85567SOL    HW258534   0.470   1.026   0.962
85568SOL     OW58535   2.874   4.100  14.380
85568SOL    HW158536   2.964   4.120  14.352
85568SOL    HW258537   2.819   4.158  14.328
85569SOL     OW58538  12.262  12.298   0.157
85569SOL    HW158539  12.178  12.253   0.153
85569SOL    HW258540  12.241  12.390   0.140
85570SOL     OW58541  10.747   1.796  11.439
85570SOL    HW158542  10.728   1.889  11.454
85570SOL    HW258543  10.667   1.762  11.399
85571SOL     OW58544  11.865   4.679   8.616
85571SOL    HW158545  11.916   4.667   8.696
85571SOL    HW258546  11.775   4.687   8.646
85572SOL     OW58547  13.715   4.788   3.310
85572SOL    HW158548  13.762   4.734   3.373
85572SOL    HW258549  13.647   4.731   3.275
85573SOL     OW58550   9.142   0.736   6.545
85573SOL    HW158551   9.226   0.779   6.559
85573SOL    HW258552   9.095   0.795   6.486
85574SOL     OW58553  13.451  11.090   0.178
85574SOL    HW158554  13.430  11.053   0.264
85574SOL    HW258555  13.368  11.085   0.130
85575SOL     OW58556   2.090  10.112   8.585
85575SOL    HW158557   2.014  10.147   8.538
85575SOL    HW258558   2.109  10.029   8.541
85576SOL     OW58559   3.446   6.536   0.867
85576SOL    HW158560   3.460   6.609   0.807
85576SOL    HW258561   3.360   6.552   0.906
85577SOL     OW58562   5.925   9.548  10.576
85577SOL    HW158563   5.998   9.504  10.620
85577SOL    HW258564   5.908   9.626  10.630
85578SOL     OW58565   2.628  11.552   6.860
85578SOL    HW158566   2.660  11.470   6.900
85578SOL    HW258567   2.646  11.541   6.767
85579SOL     OW58568   2.873   7.706   2.184
85579SOL    HW158569   2.842   7.753   2.261
85579SOL    HW258570   2.812   7.634   2.173
85580SOL     OW58571   2.937   5.275   4.781
85580SOL    HW158572   2.911   5.194   4.824
85580SOL    HW258573   2.899   5.269   4.693
85581SOL     OW58574   3.467   9.534   1.360
85581SOL    HW158575   3.526   9.592   1.408
85581SOL    HW258576   3.525   9.468   1.321
85582SOL     OW58577   6.778  13.975   8.432
85582SOL    HW158578   6.735  13.963   8.516
85582SOL    HW258579   6.781  14.070   8.420
85583SOL     OW58580   3.196  14.700   7.709
85583SOL    HW158581   3.220  14.656   7.627
85583SOL    HW258582   3.280  14.724   7.749
85584SOL     OW58583   8.593  13.328  12.453
85584SOL    HW158584   8.551  13.281  12.380
85584SOL    HW258585   8.562  13.418  12.444
85585SOL     OW58586  11.966  12.766  13.793
85585SOL    HW158587  11.898  12.733  13.734
85585SOL    HW258588  12.040  12.785  13.735
85586SOL     OW58589  13.304   4.571  10.795
85586SOL    HW158590  13.358   4.564  10.717
85586SOL    HW258591  13.283   4.481  10.818
85587SOL     OW58592   0.554   0.370   7.853
85587SOL    HW158593   0.587   0.283   7.829
85587SOL    HW258594   0.564   0.374   7.948
85588SOL     OW58595  10.754  12.287   2.294
85588SOL    HW158596  10.797  12.313   2.376
85588SOL    HW258597  10.680  12.233   2.322
85589SOL     OW58598   2.055   2.458  11.692
85589SOL    HW158599   2.021   2.458  11.781
85589SOL    HW258600   2.038   2.546  11.659
85590SOL     OW58601   2.385   3.385   7.454
85590SOL    HW158602   2.472   3.360   7.485
85590SOL    HW258603   2.343   3.302   7.430
85591SOL     OW58604  11.681   7.493   0.172
85591SOL    HW158605  11.680   7.415   0.229
85591SOL    HW258606  11.645   7.463   0.089
85592SOL     OW58607   5.414   2.512   2.418
85592SOL    HW158608   5.353   2.461   2.471
85592SOL    HW258609   5.370   2.596   2.404
85593SOL     OW58610  13.651   5.807   5.480
85593SOL    HW158611  13.638   5.851   5.395
85593SOL    HW258612  13.633   5.715   5.462
85594SOL     OW58613   3.070  13.657   0.990
85594SOL    HW158614   3.018  13.609   1.054
85594SOL    HW258615   3.088  13.594   0.920
85595SOL     OW58616  13.150   5.922  13.761
85595SOL    HW158617  13.079   5.912  13.697
85595SOL    HW258618  13.122   5.869  13.836
85596SOL     OW58619   0.450   8.557   7.169
85596SOL    HW158620   0.508   8.551   7.094
85596SOL    HW258621   0.458   8.472   7.212
85597SOL     OW58622   3.191   4.040  13.882
85597SOL    HW158623   3.178   4.096  13.958
85597SOL    HW258624   3.230   4.098  13.816
85598SOL     OW58625   2.400  12.729   1.068
85598SOL    HW158626   2.477  12.775   1.033
85598SOL    HW258627   2.429  12.638   1.076
85599SOL     OW58628   4.895   2.098  13.802
85599SOL    HW158629   4.902   2.006  13.777
85599SOL    HW258630   4.802   2.111  13.818
85600SOL     OW58631   8.063  12.093   9.066
85600SOL    HW158632   8.133  12.028   9.066
85600SOL    HW258633   8.042  12.105   8.973
85601SOL     OW58634   2.064  13.396   1.467
85601SOL    HW158635   2.017  13.479   1.476
85601SOL    HW258636   2.155  13.418   1.483
85602SOL     OW58637   7.358   6.980  13.123
85602SOL    HW158638   7.275   6.937  13.144
85602SOL    HW258639   7.425   6.924  13.162
85603SOL     OW58640  10.613   8.585  11.372
85603SOL    HW158641  10.533   8.534  11.381
85603SOL    HW258642  10.658   8.546  11.297
85604SOL     OW58643   9.870   9.254   7.356
85604SOL    HW158644   9.918   9.182   7.316
85604SOL    HW258645   9.781   9.246   7.321
85605SOL     OW58646   5.220   6.737  13.327
85605SOL    HW158647   5.159   6.664  13.325
85605SOL    HW258648   5.170   6.812  13.296
85606SOL     OW58649   9.579   0.893   6.531
85606SOL    HW158650   9.539   0.810   6.506
85606SOL    HW258651   9.650   0.868   6.591
85607SOL     OW58652   7.868   4.634   0.289
85607SOL    HW158653   7.822   4.704   0.243
85607SOL    HW258654   7.855   4.556   0.234
85608SOL     OW58655   3.154  11.133   1.380
85608SOL    HW158656   3.071  11.119   1.335
85608SOL    HW258657   3.214  11.070   1.340
85609SOL     OW58658   2.133  13.928  12.244
85609SOL    HW158659   2.067  13.858  12.248
85609SOL    HW258660   2.116  13.972  12.161
85610SOL     OW58661   5.921   1.970  14.440
85610SOL    HW158662   5.980   1.923  14.498
85610SOL    HW258663   5.864   1.902  14.403
85611SOL     OW58664   0.149   6.742   6.486
85611SOL    HW158665   0.207   6.770   6.416
85611SOL    HW258666   0.150   6.815   6.548
85612SOL     OW58667   2.262   6.261   7.051
85612SOL    HW158668   2.196   6.227   6.992
85612SOL    HW258669   2.291   6.343   7.011
85613SOL     OW58670   0.944   9.226   0.735
85613SOL    HW158671   0.946   9.310   0.781
85613SOL    HW258672   0.917   9.248   0.646
85614SOL     OW58673   2.534   2.469  12.075
85614SOL    HW158674   2.452   2.518  12.072
85614SOL    HW258675   2.539   2.437  12.165
85615SOL     OW58676   7.426   6.063   4.653
85615SOL    HW158677   7.348   6.115   4.672
85615SOL    HW258678   7.397   5.972   4.662
85616SOL     OW58679   6.843  14.715  11.997
85616SOL    HW158680   6.778  14.731  11.928
85616SOL    HW258681   6.870  14.625  11.985
85617SOL     OW58682   3.918   2.896   2.365
85617SOL    HW158683   3.886   2.880   2.453
85617SOL    HW258684   3.878   2.828   2.311
85618SOL     OW58685  13.155   4.458   3.589
85618SOL    HW158686  13.168   4.480   3.497
85618SOL    HW258687  13.243   4.442   3.623
85619SOL     OW58688   1.192  12.097  10.989
85619SOL    HW158689   1.223  12.007  10.994
85619SOL    HW258690   1.097  12.090  11.001
85620SOL     OW58691   7.859  14.376   8.745
85620SOL    HW158692   7.789  14.374   8.680
85620SOL    HW258693   7.822  14.426   8.818
85621SOL     OW58694   4.830   0.825   9.621
85621SOL    HW158695   4.852   0.851   9.532
85621SOL    HW258696   4.879   0.886   9.677
85622SOL     OW58697   0.404   0.709   7.460
85622SOL    HW158698   0.339   0.641   7.476
85622SOL    HW258699   0.483   0.660   7.435
85623SOL     OW58700   0.245   0.611   6.461
85623SOL    HW158701   0.262   0.624   6.554
85623SOL    HW258702   0.246   0.516   6.449
85624SOL     OW58703  14.420   1.779   6.845
85624SOL    HW158704  14.376   1.761   6.928
85624SOL    HW258705  14.452   1.869   6.855
85625SOL     OW58706   7.242   1.407   4.419
85625SOL    HW158707   7.281   1.492   4.440
85625SOL    HW258708   7.317   1.349   4.406
85626SOL     OW58709   6.990   6.872  11.880
85626SOL    HW158710   7.049   6.882  11.806
85626SOL    HW258711   6.977   6.778  11.889
85627SOL     OW58712  13.378   3.540   9.378
85627SOL    HW158713  13.292   3.556   9.415
85627SOL    HW258714  13.408   3.626   9.349
85628SOL     OW58715  14.250  14.427  12.301
85628SOL    HW158716  14.248  14.481  12.379
85628SOL    HW258717  14.288  14.483  12.233
85629SOL     OW58718  12.793   5.661  14.637
85629SOL    HW158719  12.745   5.692  14.714
85629SOL    HW258720  12.784   5.731  14.572
85630SOL     OW58721  14.872   0.021  14.579
85630SOL    HW158722  14.848  14.826  14.632
85630SOL    HW258723   0.021  14.866  14.496
85631SOL     OW58724   8.405  13.456   3.305
85631SOL    HW158725   8.483  13.409   3.336
85631SOL    HW258726   8.395  13.528   3.367
85632SOL     OW58727  13.422   0.254  10.363
85632SOL    HW158728  13.504   0.295  10.389
85632SOL    HW258729  13.406   0.287  10.274
85633SOL     OW58730   9.567   7.759   1.985
85633SOL    HW158731   9.622   7.828   2.022
85633SOL    HW258732   9.596   7.752   1.893
85634SOL     OW58733   7.890   5.699   2.505
85634SOL    HW158734   7.922   5.694   2.415
85634SOL    HW258735   7.930   5.624   2.550
85635SOL     OW58736  10.128  10.096  14.169
85635SOL    HW158737  10.139  10.185  14.204
85635SOL    HW258738  10.052  10.061  14.217
85636SOL     OW58739   6.611  12.557   0.060
85636SOL    HW158740   6.677  12.488   0.058
85636SOL    HW258741   6.559  12.543  14.863
85637SOL     OW58742   9.727   2.952  12.215
85637SOL    HW158743   9.654   2.997  12.257
85637SOL    HW258744   9.730   2.866  12.256
85638SOL     OW58745  12.073  11.389  12.612
85638SOL    HW158746  12.026  11.330  12.553
85638SOL    HW258747  12.076  11.472  12.565
85639SOL     OW58748   1.502   9.355  10.863
85639SOL    HW158749   1.436   9.353  10.932
85639SOL    HW258750   1.562   9.284  10.885
85640SOL     OW58751   5.363   5.360   4.902
85640SOL    HW158752   5.425   5.433   4.901
85640SOL    HW258753   5.294   5.388   4.962
85641SOL     OW58754  11.669   9.041   5.270
85641SOL    HW158755  11.719   8.972   5.314
85641SOL    HW258756  11.599   9.063   5.331
85642SOL     OW58757   4.808  14.150  10.903
85642SOL    HW158758   4.809  14.058  10.930
85642SOL    HW258759   4.797  14.147  10.808
85643SOL     OW58760   5.857   6.106   7.490
85643SOL    HW158761   5.910   6.035   7.453
85643SOL    HW258762   5.768   6.088   7.459
85644SOL     OW58763   4.104   8.943   6.467
85644SOL    HW158764   4.103   8.914   6.376
85644SOL    HW258765   4.104   8.863   6.518
85645SOL     OW58766   7.040   8.263   0.617
85645SOL    HW158767   7.095   8.247   0.694
85645SOL    HW258768   6.954   8.231   0.642
85646SOL     OW58769   8.387  10.790   0.475
85646SOL    HW158770   8.395  10.793   0.570
85646SOL    HW258771   8.295  10.809   0.458
85647SOL     OW58772  14.321  13.700   7.677
85647SOL    HW158773  14.272  13.625   7.710
85647SOL    HW258774  14.313  13.694   7.581
85648SOL     OW58775   8.879  11.834   1.583
85648SOL    HW158776   8.862  11.741   1.598
85648SOL    HW258777   8.974  11.842   1.582
85649SOL     OW58778   4.986  10.245   4.424
85649SOL    HW158779   4.937  10.300   4.363
85649SOL    HW258780   4.938  10.162   4.426
85650SOL     OW58781   2.017   2.859   8.039
85650SOL    HW158782   2.040   2.950   8.019
85650SOL    HW258783   1.922   2.859   8.046
85651SOL     OW58784   7.764  14.274   0.190
85651SOL    HW158785   7.739  14.263   0.099
85651SOL    HW258786   7.858  14.255   0.191
85652SOL     OW58787   9.632   2.178  13.309
85652SOL    HW158788   9.595   2.121  13.242
85652SOL    HW258789   9.575   2.255  13.309
85653SOL     OW58790   8.498   4.113  10.293
85653SOL    HW158791   8.497   4.036  10.349
85653SOL    HW258792   8.570   4.167  10.327
85654SOL     OW58793   0.556   6.367   3.286
85654SOL    HW158794   0.462   6.349   3.294
85654SOL    HW258795   0.566   6.404   3.199
85655SOL     OW58796   0.236  13.560   1.368
85655SOL    HW158797   0.244  13.488   1.305
85655SOL    HW258798   0.144  13.585   1.364
85656SOL     OW58799  14.689  14.715   2.599
85656SOL    HW158800  14.742  14.789   2.627
85656SOL    HW258801  14.675  14.730   2.505
85657SOL     OW58802   4.467  11.931  12.791
85657SOL    HW158803   4.537  11.995  12.785
85657SOL    HW258804   4.390  11.976  12.757
85658SOL     OW58805  11.520   0.287   1.062
85658SOL    HW158806  11.556   0.252   0.980
85658SOL    HW258807  11.592   0.336   1.100
85659SOL     OW58808   2.627   1.064   1.964
85659SOL    HW158809   2.686   1.097   1.896
85659SOL    HW258810   2.623   1.135   2.028
85660SOL     OW58811   6.294   6.794  13.173
85660SOL    HW158812   6.268   6.798  13.081
85660SOL    HW258813   6.339   6.877  13.188
85661SOL     OW58814  10.248  13.452   8.560
85661SOL    HW158815  10.190  13.421   8.490
85661SOL    HW258816  10.227  13.545   8.569
85662SOL     OW58817  10.012   0.182   4.086
85662SOL    HW158818   9.925   0.191   4.047
85662SOL    HW258819  10.064   0.136   4.020
85663SOL     OW58820   3.665  14.346   8.738
85663SOL    HW158821   3.730  14.408   8.772
85663SOL    HW258822   3.591  14.401   8.711
85664SOL     OW58823   5.444   7.067   5.115
85664SOL    HW158824   5.536   7.091   5.113
85664SOL    HW258825   5.402   7.135   5.168
85665SOL     OW58826   6.560   1.067  11.636
85665SOL    HW158827   6.597   0.984  11.667
85665SOL    HW258828   6.612   1.134  11.678
85666SOL     OW58829  12.831   3.621  10.883
85666SOL    HW158830  12.792   3.675  10.952
85666SOL    HW258831  12.924   3.617  10.906
85667SOL     OW58832  12.331   2.928   4.929
85667SOL    HW158833  12.391   2.952   4.999
85667SOL    HW258834  12.379   2.949   4.849
85668SOL     OW58835  13.429   7.245   7.535
85668SOL    HW158836  13.413   7.283   7.622
85668SOL    HW258837  13.356   7.186   7.521
85669SOL     OW58838  11.018   8.759  13.951
85669SOL    HW158839  10.991   8.686  13.896
85669SOL    HW258840  10.945   8.821  13.945
85670SOL     OW58841   9.274  12.379  12.113
85670SOL    HW158842   9.327  12.385  12.035
85670SOL    HW258843   9.323  12.426  12.180
85671SOL     OW58844   9.672   5.116   4.487
85671SOL    HW158845   9.749   5.116   4.430
85671SOL    HW258846   9.651   5.024   4.500
85672SOL     OW58847   2.091   3.257   4.166
85672SOL    HW158848   2.068   3.164   4.164
85672SOL    HW258849   2.047   3.291   4.243
85673SOL     OW58850  10.585   7.283  14.328
85673SOL    HW158851  10.560   7.213  14.268
85673SOL    HW258852  10.513   7.287  14.392
85674SOL     OW58853  14.091   4.817   2.438
85674SOL    HW158854  14.183   4.838   2.421
85674SOL    HW258855  14.049   4.901   2.452
85675SOL     OW58856   4.929  13.675   9.422
85675SOL    HW158857   4.905  13.731   9.348
85675SOL    HW258858   4.845  13.639   9.452
85676SOL     OW58859  13.666   5.392   2.719
85676SOL    HW158860  13.719   5.408   2.797
85676SOL    HW258861  13.590   5.344   2.750
85677SOL     OW58862   2.650   2.980   5.547
85677SOL    HW158863   2.675   2.973   5.639
85677SOL    HW258864   2.646   3.075   5.530
85678SOL     OW58865  11.217   2.139   1.965
85678SOL    HW158866  11.207   2.200   2.039
85678SOL    HW258867  11.244   2.194   1.892
85679SOL     OW58868   0.981  12.956  10.943
85679SOL    HW158869   1.045  12.939  10.874
85679SOL    HW258870   0.906  12.993  10.897
85680SOL     OW58871   9.817  14.176  14.041
85680SOL    HW158872   9.910  14.184  14.019
85680SOL    HW258873   9.803  14.082  14.055
85681SOL     OW58874   6.458   3.762   7.366
85681SOL    HW158875   6.411   3.680   7.383
85681SOL    HW258876   6.473   3.799   7.453
85682SOL     OW58877  10.001   8.306   4.727
85682SOL    HW158878   9.990   8.251   4.804
85682SOL    HW258879   9.976   8.251   4.653
85683SOL     OW58880  10.904   1.027   0.801
85683SOL    HW158881  10.992   1.058   0.781
85683SOL    HW258882  10.883   1.068   0.885
85684SOL     OW58883  13.109   9.592   6.618
85684SOL    HW158884  13.014   9.600   6.612
85684SOL    HW258885  13.124   9.541   6.698
85685SOL     OW58886   6.015   8.084   2.636
85685SOL    HW158887   5.924   8.068   2.662
85685SOL    HW258888   6.018   8.177   2.617
85686SOL     OW58889   7.346   7.378  11.620
85686SOL    HW158890   7.401   7.304  11.647
85686SOL    HW258891   7.258   7.355  11.649
85687SOL     OW58892  11.559   6.722  12.008
85687SOL    HW158893  11.637   6.694  12.056
85687SOL    HW258894  11.487   6.705  12.069
85688SOL     OW58895   9.093   7.001  12.818
85688SOL    HW158896   9.146   6.965  12.889
85688SOL    HW258897   9.101   7.096  12.827
85689SOL     OW58898   0.465  14.432   7.537
85689SOL    HW158899   0.551  14.409   7.503
85689SOL    HW258900   0.452  14.373   7.612
85690SOL     OW58901   0.931  14.376   3.845
85690SOL    HW158902   0.971  14.404   3.927
85690SOL    HW258903   0.936  14.280   3.848
85691SOL     OW58904   1.076  11.664   8.536
85691SOL    HW158905   1.027  11.712   8.469
85691SOL    HW258906   1.157  11.713   8.547
85692SOL     OW58907   7.012   3.960   6.959
85692SOL    HW158908   7.047   3.993   6.876
85692SOL    HW258909   6.919   3.945   6.942
85693SOL     OW58910   0.068   5.951   3.453
85693SOL    HW158911   0.106   6.032   3.487
85693SOL    HW258912  14.863   5.976   3.423
85694SOL     OW58913  10.307  10.936   7.264
85694SOL    HW158914  10.328  10.863   7.206
85694SOL    HW258915  10.335  10.906   7.351
85695SOL     OW58916   8.115  10.501   1.920
85695SOL    HW158917   8.154  10.488   2.006
85695SOL    HW258918   8.189  10.507   1.860
85696SOL     OW58919   5.496  12.589  14.853
85696SOL    HW158920   5.423  12.528  14.854
85696SOL    HW258921   5.457  12.674  14.831
85697SOL     OW58922   6.652   0.720   7.774
85697SOL    HW158923   6.672   0.691   7.684
85697SOL    HW258924   6.566   0.760   7.767
85698SOL     OW58925  14.804   7.874   3.367
85698SOL    HW158926  14.736   7.903   3.306
85698SOL    HW258927  14.774   7.905   3.453
85699SOL     OW58928  13.748  14.723   4.519
85699SOL    HW158929  13.667  14.675   4.505
85699SOL    HW258930  13.817  14.657   4.510
85700SOL     OW58931   0.967   7.217   5.592
85700SOL    HW158932   0.999   7.307   5.596
85700SOL    HW258933   0.940   7.205   5.501
85701SOL     OW58934   1.266   0.076   3.392
85701SOL    HW158935   1.355   0.048   3.411
85701SOL    HW258936   1.227   0.003   3.344
85702SOL     OW58937  10.285  10.295   5.801
85702SOL    HW158938  10.258  10.203   5.793
85702SOL    HW258939  10.207  10.345   5.776
85703SOL     OW58940   3.386   0.689   0.305
85703SOL    HW158941   3.348   0.764   0.350
85703SOL    HW258942   3.436   0.727   0.233
85704SOL     OW58943   5.505   2.552  11.662
85704SOL    HW158944   5.423   2.542  11.710
85704SOL    HW258945   5.548   2.466  11.668
85705SOL     OW58946   8.630   2.691  11.683
85705SOL    HW158947   8.611   2.713  11.592
85705SOL    HW258948   8.696   2.755  11.710
85706SOL     OW58949  12.531  12.646   0.717
85706SOL    HW158950  12.480  12.587   0.661
85706SOL    HW258951  12.616  12.603   0.726
85707SOL     OW58952   3.455   8.276   8.578
85707SOL    HW158953   3.445   8.369   8.556
85707SOL    HW258954   3.425   8.269   8.669
85708SOL     OW58955   5.273   2.745  12.062
85708SOL    HW158956   5.331   2.772  11.991
85708SOL    HW258957   5.282   2.815  12.128
85709SOL     OW58958   6.314   8.845  14.265
85709SOL    HW158959   6.293   8.908  14.196
85709SOL    HW258960   6.389   8.883  14.310
85710SOL     OW58961  14.276   6.019   1.436
85710SOL    HW158962  14.274   5.957   1.510
85710SOL    HW258963  14.281   5.963   1.359
85711SOL     OW58964   5.659  13.886  13.984
85711SOL    HW158965   5.685  13.833  13.909
85711SOL    HW258966   5.575  13.848  14.012
85712SOL     OW58967   1.235  11.891   3.556
85712SOL    HW158968   1.204  11.900   3.646
85712SOL    HW258969   1.182  11.820   3.519
85713SOL     OW58970   0.058   1.503   5.503
85713SOL    HW158971  14.877   1.534   5.568
85713SOL    HW258972   0.102   1.429   5.545
85714SOL     OW58973  10.654   9.543   0.238
85714SOL    HW158974  10.635   9.534   0.145
85714SOL    HW258975  10.629   9.633   0.259
85715SOL     OW58976  14.665   1.441   0.870
85715SOL    HW158977  14.735   1.464   0.930
85715SOL    HW258978  14.705   1.379   0.809
85716SOL     OW58979   0.687  12.268   5.614
85716SOL    HW158980   0.773  12.224   5.610
85716SOL    HW258981   0.700  12.339   5.677
85717SOL     OW58982  14.680  10.899   7.032
85717SOL    HW158983  14.681  10.949   7.113
85717SOL    HW258984  14.681  10.807   7.061
85718SOL     OW58985   6.680   5.592   6.745
85718SOL    HW158986   6.741   5.665   6.740
85718SOL    HW258987   6.603   5.621   6.696
85719SOL     OW58988   5.157   8.802  14.231
85719SOL    HW158989   5.121   8.877  14.278
85719SOL    HW258990   5.139   8.820  14.138
85720SOL     OW58991   7.769   5.914   3.512
85720SOL    HW158992   7.770   5.969   3.433
85720SOL    HW258993   7.725   5.968   3.578
85721SOL     OW58994   5.218   6.845   2.257
85721SOL    HW158995   5.263   6.763   2.234
85721SOL    HW258996   5.137   6.843   2.207
85722SOL     OW58997  11.062   3.203  14.881
85722SOL    HW158998  11.063   3.231   0.090
85722SOL    HW258999  11.018   3.274  14.834
85723SOL     OW59000  11.237  12.940  14.076
85723SOL    HW159001  11.212  13.004  14.009
85723SOL    HW259002  11.282  12.993  14.143
85724SOL     OW59003   7.645   2.984   0.738
85724SOL    HW159004   7.575   3.016   0.796
85724SOL    HW259005   7.601   2.967   0.655
85725SOL     OW59006   9.775  12.234   3.086
85725SOL    HW159007   9.700  12.174   3.077
85725SOL    HW259008   9.805  12.247   2.996
85726SOL     OW59009   7.025   0.769   1.095
85726SOL    HW159010   7.108   0.817   1.094
85726SOL    HW259011   6.993   0.780   1.185
85727SOL     OW59012   3.908   2.261   8.590
85727SOL    HW159013   3.904   2.357   8.592
85727SOL    HW259014   3.851   2.236   8.517
85728SOL     OW59015  13.552   3.052   2.959
85728SOL    HW159016  13.562   3.147   2.952
85728SOL    HW259017  13.633   3.017   2.922
85729SOL     OW59018   9.031   3.816   0.533
85729SOL    HW159019   9.008   3.723   0.528
85729SOL    HW259020   9.021   3.839   0.625
85730SOL     OW59021  10.175   8.652   7.367
85730SOL    HW159022  10.190   8.709   7.292
85730SOL    HW259023  10.197   8.564   7.336
85731SOL     OW59024   6.667  13.438   1.992
85731SOL    HW159025   6.658  13.459   1.899
85731SOL    HW259026   6.667  13.342   1.996
85732SOL     OW59027   9.727  11.955   7.947
85732SOL    HW159028   9.642  11.997   7.928
85732SOL    HW259029   9.788  11.996   7.886
85733SOL     OW59030   8.791  13.864   2.387
85733SOL    HW159031   8.869  13.905   2.350
85733SOL    HW259032   8.723  13.877   2.320
85734SOL     OW59033  13.671  12.881  14.069
85734SOL    HW159034  13.699  12.863  13.980
85734SOL    HW259035  13.576  12.870  14.067
85735SOL     OW59036  14.798   0.756   1.242
85735SOL    HW159037  14.762   0.668   1.253
85735SOL    HW259038  14.864   0.763   1.310
85736SOL     OW59039   4.887   4.865   3.348
85736SOL    HW159040   4.975   4.828   3.345
85736SOL    HW259041   4.850   4.831   3.429
85737SOL     OW59042  10.899  12.563   5.299
85737SOL    HW159043  10.895  12.657   5.280
85737SOL    HW259044  10.991  12.548   5.321
85738SOL     OW59045   7.224   9.051   1.014
85738SOL    HW159046   7.214   9.019   0.924
85738SOL    HW259047   7.299   9.002   1.049
85739SOL     OW59048   0.252   1.553   8.059
85739SOL    HW159049   0.302   1.620   8.013
85739SOL    HW259050   0.166   1.593   8.074
85740SOL     OW59051  14.740  11.577  14.363
85740SOL    HW159052  14.782  11.662  14.351
85740SOL    HW259053  14.812  11.514  14.359
85741SOL     OW59054   2.304  10.885   5.475
85741SOL    HW159055   2.297  10.841   5.560
85741SOL    HW259056   2.356  10.963   5.493
85742SOL     OW59057   9.379   4.799   4.249
85742SOL    HW159058   9.377   4.892   4.269
85742SOL    HW259059   9.375   4.756   4.334
85743SOL     OW59060  10.885   5.460  10.445
85743SOL    HW159061  10.913   5.374  10.413
85743SOL    HW259062  10.901   5.457  10.539
85744SOL     OW59063  10.277  12.657  13.931
85744SOL    HW159064  10.281  12.724  14.000
85744SOL    HW259065  10.221  12.696  13.864
85745SOL     OW59066  11.586  13.294  14.506
85745SOL    HW159067  11.551  13.375  14.469
85745SOL    HW259068  11.676  13.289  14.474
85746SOL     OW59069  12.176   0.071   2.187
85746SOL    HW159070  12.141   0.111   2.267
85746SOL    HW259071  12.118  14.879   2.170
85747SOL     OW59072  12.021   7.142   3.973
85747SOL    HW159073  12.106   7.135   4.017
85747SOL    HW259074  11.987   7.227   3.999
85748SOL     OW59075  13.823  11.835   9.956
85748SOL    HW159076  13.880  11.786   9.897
85748SOL    HW259077  13.864  11.826  10.042
85749SOL     OW59078   6.902  13.801  14.094
85749SOL    HW159079   6.856  13.718  14.092
85749SOL    HW259080   6.866  13.847  14.170
85750SOL     OW59081  12.241  12.391   3.640
85750SOL    HW159082  12.216  12.357   3.554
85750SOL    HW259083  12.263  12.483   3.623
85751SOL     OW59084  12.758   3.041   2.073
85751SOL    HW159085  12.767   2.962   2.127
85751SOL    HW259086  12.829   3.034   2.009
85752SOL     OW59087   7.867   9.351   0.458
85752SOL    HW159088   7.914   9.361   0.541
85752SOL    HW259089   7.795   9.414   0.464
85753SOL     OW59090  14.371   3.928   5.607
85753SOL    HW159091  14.365   3.977   5.689
85753SOL    HW259092  14.347   3.838   5.631
85754SOL     OW59093   9.626  14.456   2.395
85754SOL    HW159094   9.710  14.431   2.433
85754SOL    HW259095   9.648  14.520   2.327
85755SOL     OW59096  12.295   8.724  14.406
85755SOL    HW159097  12.355   8.774  14.461
85755SOL    HW259098  12.333   8.728  14.319
85756SOL     OW59099   8.202   8.957   1.168
85756SOL    HW159100   8.189   8.882   1.227
85756SOL    HW259101   8.126   8.954   1.109
85757SOL     OW59102   7.883   9.518   9.399
85757SOL    HW159103   7.855   9.434   9.363
85757SOL    HW259104   7.844   9.583   9.342
85758SOL     OW59105   7.252   8.911   2.398
85758SOL    HW159106   7.284   8.822   2.381
85758SOL    HW259107   7.241   8.914   2.493
85759SOL     OW59108  12.705   6.508   6.182
85759SOL    HW159109  12.792   6.511   6.141
85759SOL    HW259110  12.651   6.458   6.120
85760SOL     OW59111   1.857   2.193   9.530
85760SOL    HW159112   1.773   2.152   9.550
85760SOL    HW259113   1.897   2.136   9.465
85761SOL     OW59114   7.100   3.044  14.841
85761SOL    HW159115   7.061   2.965  14.879
85761SOL    HW259116   7.154   3.080   0.030
85762SOL     OW59117  11.555   5.230   3.864
85762SOL    HW159118  11.600   5.208   3.783
85762SOL    HW259119  11.476   5.277   3.836
85763SOL     OW59120   8.077   1.954  14.809
85763SOL    HW159121   8.062   2.019  14.878
85763SOL    HW259122   8.138   1.997  14.749
85764SOL     OW59123   2.669  12.770   0.309
85764SOL    HW159124   2.591  12.727   0.273
85764SOL    HW259125   2.653  12.864   0.294
85765SOL     OW59126   6.023   1.729   2.944
85765SOL    HW159127   6.077   1.701   3.017
85765SOL    HW259128   5.973   1.803   2.978
85766SOL     OW59129   3.380   8.708   5.259
85766SOL    HW159130   3.387   8.802   5.247
85766SOL    HW259131   3.466   8.681   5.292
85767SOL     OW59132  13.161  10.045  10.143
85767SOL    HW159133  13.182  10.113  10.206
85767SOL    HW259134  13.244  10.027  10.097
85768SOL     OW59135   8.214   3.568  14.105
85768SOL    HW159136   8.165   3.495  14.141
85768SOL    HW259137   8.302   3.534  14.091
85769SOL     OW59138  11.322  10.687   2.551
85769SOL    HW159139  11.415  10.703   2.533
85769SOL    HW259140  11.291  10.636   2.476
85770SOL     OW59141  14.325   0.958   6.066
85770SOL    HW159142  14.340   1.016   5.991
85770SOL    HW259143  14.230   0.947   6.069
85771SOL     OW59144   9.654  10.591   8.357
85771SOL    HW159145   9.644  10.496   8.352
85771SOL    HW259146   9.568  10.625   8.332
85772SOL     OW59147   6.566   3.933   9.838
85772SOL    HW159148   6.652   3.974   9.834
85772SOL    HW259149   6.570   3.876   9.915
85773SOL     OW59150   1.193   9.742   9.988
85773SOL    HW159151   1.200   9.699   9.903
85773SOL    HW259152   1.148   9.679  10.043
85774SOL     OW59153   3.530   6.471  10.536
85774SOL    HW159154   3.626   6.466  10.544
85774SOL    HW259155   3.504   6.381  10.515
85775SOL     OW59156  13.054   0.683  14.859
85775SOL    HW159157  13.016   0.629  14.789
85775SOL    HW259158  13.135   0.638   0.002
85776SOL     OW59159  10.217   1.515   3.852
85776SOL    HW159160  10.157   1.564   3.910
85776SOL    HW259161  10.159   1.467   3.794
85777SOL     OW59162   7.299   4.468   8.763
85777SOL    HW159163   7.276   4.464   8.671
85777SOL    HW259164   7.363   4.540   8.769
85778SOL     OW59165   2.275   1.695  10.016
85778SOL    HW159166   2.366   1.670  10.030
85778SOL    HW259167   2.261   1.770  10.075
85779SOL     OW59168   9.997   4.801   0.299
85779SOL    HW159169  10.015   4.835   0.212
85779SOL    HW259170   9.971   4.879   0.349
85780SOL     OW59171   8.277   8.230  14.039
85780SOL    HW159172   8.207   8.295  14.044
85780SOL    HW259173   8.255   8.178  13.961
85781SOL     OW59174   1.803  14.718   2.460
85781SOL    HW159175   1.748  14.724   2.539
85781SOL    HW259176   1.813  14.624   2.445
85782SOL     OW59177   8.020   6.669  13.019
85782SOL    HW159178   7.937   6.644  13.059
85782SOL    HW259179   8.037   6.757  13.052
85783SOL     OW59180  10.147   9.618  11.390
85783SOL    HW159181  10.236   9.620  11.427
85783SOL    HW259182  10.134   9.705  11.354
85784SOL     OW59183  11.222   6.533   2.298
85784SOL    HW159184  11.177   6.448   2.292
85784SOL    HW259185  11.233   6.547   2.392
85785SOL     OW59186  10.174  11.788  12.027
85785SOL    HW159187  10.206  11.879  12.026
85785SOL    HW259188  10.108  11.787  12.097
85786SOL     OW59189   5.004   7.955   0.285
85786SOL    HW159190   5.078   8.010   0.258
85786SOL    HW259191   5.040   7.896   0.351
85787SOL     OW59192  10.647   9.361   2.016
85787SOL    HW159193  10.685   9.432   2.067
85787SOL    HW259194  10.608   9.302   2.081
85788SOL     OW59195   2.234  11.901   8.662
85788SOL    HW159196   2.142  11.878   8.670
85788SOL    HW259197   2.258  11.877   8.573
85789SOL     OW59198   3.100  14.382  14.403
85789SOL    HW159199   3.054  14.387  14.319
85789SOL    HW259200   3.087  14.292  14.433
85790SOL     OW59201   7.173   5.999   0.531
85790SOL    HW159202   7.224   5.988   0.450
85790SOL    HW259203   7.085   5.970   0.508
85791SOL     OW59204   6.262   2.488   4.889
85791SOL    HW159205   6.214   2.500   4.970
85791SOL    HW259206   6.223   2.410   4.849
85792SOL     OW59207  14.054  10.243  12.450
85792SOL    HW159208  13.994  10.244  12.376
85792SOL    HW259209  14.136  10.208  12.414
85793SOL     OW59210   8.628  11.878   4.801
85793SOL    HW159211   8.556  11.899   4.742
85793SOL    HW259212   8.616  11.937   4.875
85794SOL     OW59213  12.958   4.432   7.222
85794SOL    HW159214  12.984   4.524   7.219
85794SOL    HW259215  13.003   4.391   7.148
85795SOL     OW59216   3.199  13.382  10.958
85795SOL    HW159217   3.134  13.422  11.015
85795SOL    HW259218   3.161  13.298  10.933
85796SOL     OW59219   5.848   9.921   1.446
85796SOL    HW159220   5.758   9.951   1.430
85796SOL    HW259221   5.864   9.855   1.378
85797SOL     OW59222   0.077   7.406  10.248
85797SOL    HW159223   0.041   7.492  10.225
85797SOL    HW259224   0.166   7.424  10.278
85798SOL     OW59225  11.532  12.699   8.644
85798SOL    HW159226  11.472  12.773   8.632
85798SOL    HW259227  11.495  12.630   8.589
85799SOL     OW59228   3.444  10.372   1.585
85799SOL    HW159229   3.416  10.308   1.519
85799SOL    HW259230   3.366  10.425   1.602
85800SOL     OW59231   1.521  13.136  11.218
85800SOL    HW159232   1.540  13.133  11.124
85800SOL    HW259233   1.606  13.157  11.258
85801SOL     OW59234   6.857   8.340   4.672
85801SOL    HW159235   6.887   8.351   4.762
85801SOL    HW259236   6.898   8.413   4.625
85802SOL     OW59237  12.213  10.469   9.382
85802SOL    HW159238  12.287  10.501   9.433
85802SOL    HW259239  12.180  10.395   9.432
85803SOL     OW59240  11.365   4.577   4.082
85803SOL    HW159241  11.279   4.595   4.044
85803SOL    HW259242  11.345   4.540   4.168
85804SOL     OW59243  12.631  14.492  12.429
85804SOL    HW159244  12.545  14.508  12.466
85804SOL    HW259245  12.686  14.563  12.462
85805SOL     OW59246   0.993  13.893  14.843
85805SOL    HW159247   1.060  13.825  14.833
85805SOL    HW259248   1.036  13.961   0.013
85806SOL     OW59249  11.213  12.082   7.320
85806SOL    HW159250  11.251  12.159   7.362
85806SOL    HW259251  11.119  12.090   7.337
85807SOL     OW59252   8.716   7.835  11.671
85807SOL    HW159253   8.683   7.818  11.759
85807SOL    HW259254   8.754   7.923  11.676
85808SOL     OW59255   1.406  14.282  13.126
85808SOL    HW159256   1.462  14.229  13.184
85808SOL    HW259257   1.458  14.293  13.047
85809SOL     OW59258  11.184   6.902   6.134
85809SOL    HW159259  11.214   6.864   6.217
85809SOL    HW259260  11.200   6.833   6.070
85810SOL     OW59261  13.139   2.941  14.317
85810SOL    HW159262  13.113   3.029  14.343
85810SOL    HW259263  13.175   2.952  14.229
85811SOL     OW59264  12.835   8.587  14.637
85811SOL    HW159265  12.791   8.516  14.591
85811SOL    HW259266  12.923   8.590  14.598
85812SOL     OW59267   2.586  13.058   8.378
85812SOL    HW159268   2.678  13.064   8.354
85812SOL    HW259269   2.559  12.971   8.350
85813SOL     OW59270  11.808   7.144  11.492
85813SOL    HW159271  11.753   7.160  11.568
85813SOL    HW259272  11.797   7.221  11.437
85814SOL     OW59273   0.389   8.270   4.448
85814SOL    HW159274   0.298   8.238   4.444
85814SOL    HW259275   0.441   8.199   4.411
85815SOL     OW59276   2.856   6.221   3.423
85815SOL    HW159277   2.845   6.149   3.485
85815SOL    HW259278   2.926   6.274   3.461
85816SOL     OW59279   9.806  13.012  10.773
85816SOL    HW159280   9.748  12.943  10.806
85816SOL    HW259281   9.869  13.026  10.844
85817SOL     OW59282  13.411   0.601   3.973
85817SOL    HW159283  13.506   0.597   3.987
85817SOL    HW259284  13.389   0.514   3.939
85818SOL     OW59285   8.939   1.471   1.374
85818SOL    HW159286   8.947   1.382   1.409
85818SOL    HW259287   8.945   1.528   1.452
85819SOL     OW59288   2.497   0.660  13.641
85819SOL    HW159289   2.556   0.718  13.690
85819SOL    HW259290   2.505   0.690  13.550
85820SOL     OW59291   7.701   9.318   4.940
85820SOL    HW159292   7.667   9.402   4.970
85820SOL    HW259293   7.649   9.295   4.864
85821SOL     OW59294   8.252  10.937   2.661
85821SOL    HW159295   8.251  10.862   2.719
85821SOL    HW259296   8.235  10.901   2.574
85822SOL     OW59297   5.177   0.329  12.974
85822SOL    HW159298   5.179   0.378  12.893
85822SOL    HW259299   5.149   0.392  13.041
85823SOL     OW59300   4.464   4.334   6.947
85823SOL    HW159301   4.552   4.320   6.912
85823SOL    HW259302   4.405   4.324   6.873
85824SOL     OW59303   4.311   8.357   2.966
85824SOL    HW159304   4.240   8.422   2.965
85824SOL    HW259305   4.282   8.291   3.029
85825SOL     OW59306   6.168   9.775   8.509
85825SOL    HW159307   6.232   9.833   8.551
85825SOL    HW259308   6.142   9.822   8.430
85826SOL     OW59309   8.874   2.251  14.114
85826SOL    HW159310   8.781   2.232  14.102
85826SOL    HW259311   8.907   2.270  14.027
85827SOL     OW59312   6.376   9.162  12.336
85827SOL    HW159313   6.370   9.175  12.431
85827SOL    HW259314   6.467   9.134  12.322
85828SOL     OW59315  11.128   1.176   5.490
85828SOL    HW159316  11.124   1.271   5.504
85828SOL    HW259317  11.143   1.167   5.395
85829SOL     OW59318   1.204   2.000   3.520
85829SOL    HW159319   1.118   1.997   3.563
85829SOL    HW259320   1.190   1.962   3.434
85830SOL     OW59321   3.540   6.255  14.090
85830SOL    HW159322   3.470   6.190  14.083
85830SOL    HW259323   3.607   6.211  14.143
85831SOL     OW59324  11.105   4.713  10.895
85831SOL    HW159325  11.175   4.649  10.906
85831SOL    HW259326  11.029   4.660  10.869
85832SOL     OW59327  12.748  11.820  10.664
85832SOL    HW159328  12.656  11.830  10.640
85832SOL    HW259329  12.752  11.738  10.713
85833SOL     OW59330  11.028   6.759   4.955
85833SOL    HW159331  11.074   6.764   5.039
85833SOL    HW259332  11.089   6.712   4.897
85834SOL     OW59333   5.282  11.245   2.407
85834SOL    HW159334   5.252  11.163   2.367
85834SOL    HW259335   5.213  11.308   2.386
85835SOL     OW59336   1.939  13.476   3.929
85835SOL    HW159337   1.943  13.509   3.840
85835SOL    HW259338   1.893  13.544   3.978
85836SOL     OW59339   1.690   1.292   1.857
85836SOL    HW159340   1.753   1.258   1.794
85836SOL    HW259341   1.613   1.314   1.804
85837SOL     OW59342   4.425   2.192  10.484
85837SOL    HW159343   4.440   2.286  10.478
85837SOL    HW259344   4.351   2.176  10.425
85838SOL     OW59345   9.526   6.367  13.265
85838SOL    HW159346   9.529   6.425  13.189
85838SOL    HW259347   9.484   6.419  13.333
85839SOL     OW59348   3.558  13.515   1.336
85839SOL    HW159349   3.569  13.521   1.241
85839SOL    HW259350   3.518  13.430   1.351
85840SOL     OW59351   9.965  14.294   4.874
85840SOL    HW159352   9.947  14.200   4.873
85840SOL    HW259353   9.940  14.325   4.787
85841SOL     OW59354   4.503   2.247   6.512
85841SOL    HW159355   4.575   2.275   6.569
85841SOL    HW259356   4.445   2.198   6.570
85842SOL     OW59357   7.768   0.377   6.044
85842SOL    HW159358   7.818   0.389   5.963
85842SOL    HW259359   7.833   0.374   6.113
85843SOL     OW59360  11.870   2.154   0.206
85843SOL    HW159361  11.862   2.080   0.147
85843SOL    HW259362  11.946   2.203   0.174
85844SOL     OW59363   0.319   3.173   2.923
85844SOL    HW159364   0.300   3.128   2.841
85844SOL    HW259365   0.414   3.164   2.934
85845SOL     OW59366   6.745   2.630   0.350
85845SOL    HW159367   6.767   2.712   0.305
85845SOL    HW259368   6.654   2.642   0.378
85846SOL     OW59369   7.209  13.799   1.079
85846SOL    HW159370   7.242  13.731   1.020
85846SOL    HW259371   7.125  13.765   1.110
85847SOL     OW59372  10.865   2.578   0.643
85847SOL    HW159373  10.806   2.526   0.589
85847SOL    HW259374  10.807   2.635   0.694
85848SOL     OW59375  10.124   0.003   0.526
85848SOL    HW159376  10.118   0.084   0.475
85848SOL    HW259377  10.035  14.867   0.555
85849SOL     OW59378  13.031  12.321   4.686
85849SOL    HW159379  12.953  12.358   4.645
85849SOL    HW259380  13.001  12.239   4.725
85850SOL     OW59381  11.903   6.996   2.487
85850SOL    HW159382  11.870   6.909   2.508
85850SOL    HW259383  11.855   7.021   2.408
85851SOL     OW59384   5.287   4.212  13.459
85851SOL    HW159385   5.203   4.256  13.456
85851SOL    HW259386   5.309   4.195  13.367
85852SOL     OW59387  14.403   9.543  10.690
85852SOL    HW159388  14.316   9.504  10.684
85852SOL    HW259389  14.451   9.504  10.617
85853SOL     OW59390  14.561  10.098   8.669
85853SOL    HW159391  14.491  10.038   8.643
85853SOL    HW259392  14.558  10.168   8.603
85854SOL     OW59393   4.862   4.004   8.477
85854SOL    HW159394   4.892   4.052   8.400
85854SOL    HW259395   4.937   3.950   8.503
85855SOL     OW59396   7.819   3.262  13.986
85855SOL    HW159397   7.808   3.183  13.933
85855SOL    HW259398   7.806   3.232  14.076
85856SOL     OW59399  12.313  12.532   0.315
85856SOL    HW159400  12.275  12.613   0.349
85856SOL    HW259401  12.313  12.472   0.390
85857SOL     OW59402   0.953   7.900   0.483
85857SOL    HW159403   0.943   7.905   0.578
85857SOL    HW259404   1.047   7.908   0.468
85858SOL     OW59405  11.653   6.568   6.535
85858SOL    HW159406  11.644   6.595   6.443
85858SOL    HW259407  11.632   6.647   6.585
85859SOL     OW59408   8.245   0.326   6.418
85859SOL    HW159409   8.335   0.344   6.391
85859SOL    HW259410   8.231   0.380   6.496
85860SOL     OW59411  13.345   0.273  12.960
85860SOL    HW159412  13.253   0.270  12.989
85860SOL    HW259413  13.340   0.297  12.867
85861SOL     OW59414  11.520   5.143   9.652
85861SOL    HW159415  11.447   5.154   9.712
85861SOL    HW259416  11.483   5.160   9.565
85862SOL     OW59417  13.437   8.508   5.650
85862SOL    HW159418  13.383   8.550   5.584
85862SOL    HW259419  13.374   8.470   5.712
85863SOL     OW59420   8.392   3.018   8.296
85863SOL    HW159421   8.308   2.993   8.257
85863SOL    HW259422   8.437   2.934   8.310
85864SOL     OW59423  11.116  10.962   9.450
85864SOL    HW159424  11.081  11.024   9.514
85864SOL    HW259425  11.136  11.015   9.373
85865SOL     OW59426   6.059  13.750   8.032
85865SOL    HW159427   5.975  13.720   7.997
85865SOL    HW259428   6.105  13.669   8.056
85866SOL     OW59429  13.291   9.267  13.268
85866SOL    HW159430  13.288   9.172  13.278
85866SOL    HW259431  13.379   9.285  13.235
85867SOL     OW59432  10.466  11.472   7.641
85867SOL    HW159433  10.453  11.411   7.568
85867SOL    HW259434  10.427  11.554   7.610
85868SOL     OW59435   0.717   7.516   7.348
85868SOL    HW159436   0.668   7.574   7.407
85868SOL    HW259437   0.775   7.467   7.407
85869SOL     OW59438   1.474  11.005  10.952
85869SOL    HW159439   1.458  10.911  10.958
85869SOL    HW259440   1.456  11.039  11.040
85870SOL     OW59441   4.120  10.987   1.688
85870SOL    HW159442   4.181  10.948   1.625
85870SOL    HW259443   4.148  10.951   1.773
85871SOL     OW59444  14.521   4.066  14.491
85871SOL    HW159445  14.472   4.021  14.560
85871SOL    HW259446  14.533   4.155  14.524
85872SOL     OW59447   9.545  12.123  11.201
85872SOL    HW159448   9.627  12.170  11.184
85872SOL    HW259449   9.569  12.030  11.195
85873SOL     OW59450   2.067   5.787   4.275
85873SOL    HW159451   2.006   5.741   4.332
85873SOL    HW259452   2.065   5.738   4.193
85874SOL     OW59453   3.089  11.566   3.619
85874SOL    HW159454   3.168  11.611   3.591
85874SOL    HW259455   3.120  11.486   3.662
85875SOL     OW59456  10.109  11.915  10.741
85875SOL    HW159457  10.173  11.984  10.721
85875SOL    HW259458  10.043  11.925  10.672
85876SOL     OW59459  14.062   1.159   9.210
85876SOL    HW159460  14.101   1.193   9.129
85876SOL    HW259461  13.990   1.103   9.181
85877SOL     OW59462   4.455   2.761   5.926
85877SOL    HW159463   4.374   2.784   5.881
85877SOL    HW259464   4.428   2.737   6.015
85878SOL     OW59465   6.270   1.486   7.706
85878SOL    HW159466   6.263   1.400   7.663
85878SOL    HW259467   6.346   1.477   7.764
85879SOL     OW59468   3.647  10.012  13.594
85879SOL    HW159469   3.728   9.965  13.611
85879SOL    HW259470   3.592   9.995  13.671
85880SOL     OW59471   9.408   2.889   6.966
85880SOL    HW159472   9.472   2.819   6.952
85880SOL    HW259473   9.419   2.947   6.891
85881SOL     OW59474   7.367   7.040   9.289
85881SOL    HW159475   7.425   6.972   9.255
85881SOL    HW259476   7.425   7.115   9.304
85882SOL     OW59477   1.364   9.817   4.647
85882SOL    HW159478   1.428   9.850   4.710
85882SOL    HW259479   1.279   9.839   4.685
85883SOL     OW59480   5.734  14.842  14.666
85883SOL    HW159481   5.804  14.784  14.695
85883SOL    HW259482   5.675  14.785  14.616
85884SOL     OW59483  11.311   4.661  10.036
85884SOL    HW159484  11.301   4.589   9.973
85884SOL    HW259485  11.394   4.643  10.080
85885SOL     OW59486   0.320   9.917   1.773
85885SOL    HW159487   0.234   9.946   1.804
85885SOL    HW259488   0.324   9.949   1.683
85886SOL     OW59489  12.154   8.014   0.806
85886SOL    HW159490  12.085   8.022   0.740
85886SOL    HW259491  12.176   7.920   0.805
85887SOL     OW59492  12.108   7.836   0.321
85887SOL    HW159493  12.047   7.776   0.363
85887SOL    HW259494  12.055   7.881   0.255
85888SOL     OW59495   2.029  11.313  12.124
85888SOL    HW159496   1.981  11.274  12.050
85888SOL    HW259497   2.106  11.257  12.134
85889SOL     OW59498  12.105  12.824   3.721
85889SOL    HW159499  12.033  12.765   3.743
85889SOL    HW259500  12.064  12.895   3.672
85890SOL     OW59501   0.997   1.745  11.151
85890SOL    HW159502   0.936   1.818  11.144
85890SOL    HW259503   1.083   1.784  11.138
85891SOL     OW59504   5.426   4.500   4.745
85891SOL    HW159505   5.521   4.508   4.736
85891SOL    HW259506   5.394   4.487   4.655
85892SOL     OW59507   2.829  14.254  11.329
85892SOL    HW159508   2.777  14.242  11.409
85892SOL    HW259509   2.876  14.171  11.319
85893SOL     OW59510   8.614  11.211   4.965
85893SOL    HW159511   8.545  11.146   4.976
85893SOL    HW259512   8.605  11.268   5.041
85894SOL     OW59513   3.371   0.141   7.814
85894SOL    HW159514   3.401   0.050   7.818
85894SOL    HW259515   3.443   0.189   7.775
85895SOL     OW59516  10.333   1.533   2.487
85895SOL    HW159517  10.336   1.592   2.562
85895SOL    HW259518  10.295   1.586   2.417
85896SOL     OW59519   2.862  11.932   0.925
85896SOL    HW159520   2.801  11.885   0.868
85896SOL    HW259521   2.880  11.872   0.997
85897SOL     OW59522   1.931  11.408  13.893
85897SOL    HW159523   1.879  11.383  13.970
85897SOL    HW259524   2.021  11.388  13.919
85898SOL     OW59525  12.208   8.042  11.286
85898SOL    HW159526  12.117   8.027  11.315
85898SOL    HW259527  12.238   7.956  11.257
85899SOL     OW59528  12.293   1.758  11.028
85899SOL    HW159529  12.258   1.716  10.949
85899SOL    HW259530  12.353   1.693  11.065
85900SOL     OW59531  12.022  10.580   0.564
85900SOL    HW159532  11.993  10.641   0.632
85900SOL    HW259533  12.115  10.568   0.582
85901SOL     OW59534   1.297   3.573   9.368
85901SOL    HW159535   1.304   3.518   9.446
85901SOL    HW259536   1.254   3.653   9.399
85902SOL     OW59537   3.650   1.121   3.952
85902SOL    HW159538   3.587   1.183   3.914
85902SOL    HW259539   3.731   1.170   3.960
85903SOL     OW59540  13.593  13.068  12.697
85903SOL    HW159541  13.580  13.050  12.790
85903SOL    HW259542  13.599  12.982  12.655
85904SOL     OW59543   7.282   6.901  11.987
85904SOL    HW159544   7.219   6.831  12.005
85904SOL    HW259545   7.341   6.900  12.063
85905SOL     OW59546  10.898  13.739  12.707
85905SOL    HW159547  10.833  13.686  12.662
85905SOL    HW259548  10.944  13.678  12.764
85906SOL     OW59549   9.840   1.071  10.243
85906SOL    HW159550   9.772   1.136  10.225
85906SOL    HW259551   9.865   1.037  10.157
85907SOL     OW59552  13.855   5.416  12.907
85907SOL    HW159553  13.831   5.466  12.830
85907SOL    HW259554  13.867   5.326  12.875
85908SOL     OW59555   6.925   5.730   9.196
85908SOL    HW159556   6.931   5.775   9.280
85908SOL    HW259557   7.011   5.688   9.185
85909SOL     OW59558  12.229  11.623   3.882
85909SOL    HW159559  12.208  11.562   3.953
85909SOL    HW259560  12.317  11.597   3.854
85910SOL     OW59561   9.943  11.125   3.704
85910SOL    HW159562   9.998  11.053   3.674
85910SOL    HW259563   9.892  11.088   3.776
85911SOL     OW59564  11.542  11.171  11.318
85911SOL    HW159565  11.537  11.106  11.247
85911SOL    HW259566  11.461  11.222  11.309
85912SOL     OW59567  14.289   8.149   7.672
85912SOL    HW159568  14.310   8.078   7.733
85912SOL    HW259569  14.216   8.115   7.620
85913SOL     OW59570   9.740   0.187  10.507
85913SOL    HW159571   9.684   0.115  10.476
85913SOL    HW259572   9.829   0.158  10.486
85914SOL     OW59573   7.982   2.772  14.071
85914SOL    HW159574   7.992   2.693  14.018
85914SOL    HW259575   7.920   2.826  14.021
85915SOL     OW59576  14.303   9.036  11.998
85915SOL    HW159577  14.330   8.947  12.019
85915SOL    HW259578  14.321   9.046  11.905
85916SOL     OW59579  11.971  10.327   2.967
85916SOL    HW159580  11.930  10.347   2.883
85916SOL    HW259581  11.915  10.260   3.006
85917SOL     OW59582   0.573  10.893   0.023
85917SOL    HW159583   0.510  10.830  14.869
85917SOL    HW259584   0.520  10.953   0.075
85918SOL     OW59585   2.737   9.693   8.436
85918SOL    HW159586   2.818   9.677   8.390
85918SOL    HW259587   2.679   9.620   8.410
85919SOL     OW59588   7.887   4.239   0.642
85919SOL    HW159589   7.893   4.326   0.604
85919SOL    HW259590   7.802   4.238   0.686
85920SOL     OW59591  11.452   5.067   6.420
85920SOL    HW159592  11.482   5.144   6.468
85920SOL    HW259593  11.458   4.996   6.484
85921SOL     OW59594   9.872  11.509   6.850
85921SOL    HW159595   9.833  11.595   6.833
85921SOL    HW259596   9.868  11.463   6.767
85922SOL     OW59597   4.715   0.186   3.939
85922SOL    HW159598   4.804   0.190   3.906
85922SOL    HW259599   4.695   0.092   3.942
85923SOL     OW59600  10.640   2.733  11.943
85923SOL    HW159601  10.723   2.765  11.980
85923SOL    HW259602  10.587   2.811  11.930
85924SOL     OW59603   7.593  14.467   0.593
85924SOL    HW159604   7.536  14.528   0.639
85924SOL    HW259605   7.593  14.497   0.502
85925SOL     OW59606   5.074   6.166  14.572
85925SOL    HW159607   5.133   6.184  14.646
85925SOL    HW259608   5.027   6.248  14.560
85926SOL     OW59609  10.133   2.361   2.448
85926SOL    HW159610  10.110   2.431   2.510
85926SOL    HW259611  10.127   2.281   2.499
85927SOL     OW59612  14.366  14.786   7.019
85927SOL    HW159613  14.305  14.815   7.087
85927SOL    HW259614  14.450  14.822   7.045
85928SOL     OW59615  10.390  13.380   3.027
85928SOL    HW159616  10.431  13.457   3.067
85928SOL    HW259617  10.327  13.350   3.092
85929SOL     OW59618   9.085   8.262   5.772
85929SOL    HW159619   9.172   8.289   5.744
85929SOL    HW259620   9.096   8.238   5.864
85930SOL     OW59621   8.377   8.913   9.472
85930SOL    HW159622   8.455   8.946   9.516
85930SOL    HW259623   8.305   8.963   9.511
85931SOL     OW59624   4.161   4.585  13.304
85931SOL    HW159625   4.068   4.568  13.317
85931SOL    HW259626   4.190   4.627  13.385
85932SOL     OW59627  11.359   3.641   2.054
85932SOL    HW159628  11.387   3.731   2.067
85932SOL    HW259629  11.309   3.643   1.973
85933SOL     OW59630  12.044   6.419   0.055
85933SOL    HW159631  12.102   6.380   0.119
85933SOL    HW259632  11.983   6.349   0.031
85934SOL     OW59633  13.634   8.372   7.536
85934SOL    HW159634  13.624   8.361   7.631
85934SOL    HW259635  13.689   8.450   7.527
85935SOL     OW59636   2.363   1.706  14.112
85935SOL    HW159637   2.452   1.679  14.092
85935SOL    HW259638   2.331   1.747  14.032
85936SOL     OW59639   4.704   3.332   3.530
85936SOL    HW159640   4.773   3.369   3.584
85936SOL    HW259641   4.632   3.395   3.537
85937SOL     OW59642   4.545  14.648   0.318
85937SOL    HW159643   4.567  14.642   0.411
85937SOL    HW259644   4.450  14.646   0.316
85938SOL     OW59645   9.724  11.919   2.895
85938SOL    HW159646   9.672  11.951   2.969
85938SOL    HW259647   9.658  11.885   2.834
85939SOL     OW59648   0.583   8.972  13.838
85939SOL    HW159649   0.594   8.981  13.743
85939SOL    HW259650   0.632   8.894  13.861
85940SOL     OW59651  12.536  11.539   0.581
85940SOL    HW159652  12.514  11.461   0.632
85940SOL    HW259653  12.454  11.585   0.569
85941SOL     OW59654   9.930   0.365   6.109
85941SOL    HW159655   9.990   0.406   6.171
85941SOL    HW259656   9.965   0.277   6.097
85942SOL     OW59657  11.791   6.138  11.442
85942SOL    HW159658  11.859   6.077  11.469
85942SOL    HW259659  11.718   6.122  11.501
85943SOL     OW59660  13.008   9.089   5.125
85943SOL    HW159661  13.085   9.050   5.167
85943SOL    HW259662  12.951   9.114   5.198
85944SOL     OW59663  11.234   3.199  12.514
85944SOL    HW159664  11.315   3.149  12.527
85944SOL    HW259665  11.188   3.152  12.444
85945SOL     OW59666  10.518  10.456   0.948
85945SOL    HW159667  10.460  10.418   0.882
85945SOL    HW259668  10.465  10.525   0.989
85946SOL     OW59669   6.187   5.481   2.261
85946SOL    HW159670   6.172   5.398   2.306
85946SOL    HW259671   6.136   5.474   2.180
85947SOL     OW59672   8.108   2.220  12.501
85947SOL    HW159673   8.033   2.259  12.457
85947SOL    HW259674   8.180   2.228  12.438
85948SOL     OW59675   4.748   6.618  10.136
85948SOL    HW159676   4.769   6.668  10.057
85948SOL    HW259677   4.833   6.595  10.173
85949SOL     OW59678   5.416  13.202  10.441
85949SOL    HW159679   5.329  13.214  10.480
85949SOL    HW259680   5.460  13.286  10.455
85950SOL     OW59681   4.071   0.098   3.491
85950SOL    HW159682   4.148   0.042   3.480
85950SOL    HW259683   4.083   0.167   3.426
85951SOL     OW59684   5.086  12.314   7.184
85951SOL    HW159685   5.022  12.361   7.131
85951SOL    HW259686   5.156  12.377   7.200
85952SOL     OW59687  13.454  14.448   8.034
85952SOL    HW159688  13.524  14.463   7.970
85952SOL    HW259689  13.416  14.535   8.047
85953SOL     OW59690   3.446  11.778  11.993
85953SOL    HW159691   3.542  11.780  11.986
85953SOL    HW259692   3.420  11.701  11.943
85954SOL     OW59693   1.359  14.396  11.060
85954SOL    HW159694   1.274  14.409  11.101
85954SOL    HW259695   1.366  14.301  11.050
85955SOL     OW59696  14.025   3.073   9.467
85955SOL    HW159697  13.975   3.059   9.386
85955SOL    HW259698  14.095   3.134   9.442
85956SOL     OW59699   1.425   9.604  13.872
85956SOL    HW159700   1.384   9.521  13.897
85956SOL    HW259701   1.514   9.598  13.908
85957SOL     OW59702   3.988  13.432  11.596
85957SOL    HW159703   3.898  13.461  11.611
85957SOL    HW259704   3.994  13.420  11.501
85958SOL     OW59705   7.071   6.063  11.560
85958SOL    HW159706   7.010   6.116  11.612
85958SOL    HW259707   7.157   6.101  11.578
85959SOL     OW59708   7.638   8.379  11.520
85959SOL    HW159709   7.705   8.321  11.557
85959SOL    HW259710   7.656   8.379  11.426
85960SOL     OW59711   5.744   4.773   0.490
85960SOL    HW159712   5.788   4.842   0.440
85960SOL    HW259713   5.675   4.741   0.431
85961SOL     OW59714  13.540   5.948   8.355
85961SOL    HW159715  13.466   6.004   8.336
85961SOL    HW259716  13.544   5.943   8.451
85962SOL     OW59717  13.122   4.249   1.422
85962SOL    HW159718  13.048   4.245   1.361
85962SOL    HW259719  13.083   4.276   1.505
85963SOL     OW59720   0.440  14.748   8.558
85963SOL    HW159721   0.356  14.783   8.525
85963SOL    HW259722   0.415  14.672   8.611
85964SOL     OW59723   1.234  10.284   9.343
85964SOL    HW159724   1.148  10.321   9.323
85964SOL    HW259725   1.270  10.259   9.259
85965SOL     OW59726   2.367   9.451  12.996
85965SOL    HW159727   2.347   9.533  12.952
85965SOL    HW259728   2.289   9.431  13.047
85966SOL     OW59729   4.245   5.846  13.916
85966SOL    HW159730   4.161   5.885  13.891
85966SOL    HW259731   4.279   5.904  13.984
85967SOL     OW59732   6.232   8.752   5.504
85967SOL    HW159733   6.180   8.672   5.508
85967SOL    HW259734   6.285   8.742   5.424
85968SOL     OW59735  10.991  10.309   9.996
85968SOL    HW159736  11.002  10.258   9.916
85968SOL    HW259737  10.901  10.340   9.993
85969SOL     OW59738   8.527   0.750  13.706
85969SOL    HW159739   8.569   0.673  13.666
85969SOL    HW259740   8.435   0.725  13.715
85970SOL     OW59741  10.812   0.261   6.852
85970SOL    HW159742  10.834   0.246   6.761
85970SOL    HW259743  10.733   0.208   6.866
85971SOL     OW59744  12.470  12.520   4.155
85971SOL    HW159745  12.448  12.461   4.083
85971SOL    HW259746  12.565  12.524   4.154
85972SOL     OW59747   7.397   0.689  11.952
85972SOL    HW159748   7.325   0.627  11.955
85972SOL    HW259749   7.384   0.746  12.028
85973SOL     OW59750  10.107   3.118   2.960
85973SOL    HW159751  10.116   3.214   2.964
85973SOL    HW259752  10.051   3.096   3.034
85974SOL     OW59753  11.211  11.145   6.421
85974SOL    HW159754  11.145  11.201   6.461
85974SOL    HW259755  11.166  11.062   6.405
85975SOL     OW59756   0.036   9.220   5.798
85975SOL    HW159757  14.873   9.300   5.771
85975SOL    HW259758  14.848   9.161   5.825
85976SOL     OW59759   6.644  10.646   8.743
85976SOL    HW159760   6.597  10.681   8.819
85976SOL    HW259761   6.731  10.623   8.777
85977SOL     OW59762  13.187   8.527  13.661
85977SOL    HW159763  13.099   8.501  13.687
85977SOL    HW259764  13.245   8.484  13.724
85978SOL     OW59765   6.938   4.588  12.595
85978SOL    HW159766   6.924   4.525  12.524
85978SOL    HW259767   7.031   4.578  12.618
85979SOL     OW59768   4.546   0.622   8.921
85979SOL    HW159769   4.511   0.709   8.938
85979SOL    HW259770   4.641   0.634   8.920
85980SOL     OW59771  11.836  14.591   6.086
85980SOL    HW159772  11.867  14.500   6.084
85980SOL    HW259773  11.856  14.625   5.999
85981SOL     OW59774   9.244  11.606  10.868
85981SOL    HW159775   9.333  11.630  10.842
85981SOL    HW259776   9.198  11.690  10.876
85982SOL     OW59777  14.098  13.306  10.791
85982SOL    HW159778  14.093  13.242  10.720
85982SOL    HW259779  14.139  13.258  10.863
85983SOL     OW59780   5.865   7.114  10.034
85983SOL    HW159781   5.937   7.147  10.087
85983SOL    HW259782   5.877   7.156   9.948
85984SOL     OW59783  12.327   5.095   7.139
85984SOL    HW159784  12.362   5.009   7.162
85984SOL    HW259785  12.232   5.086   7.152
85985SOL     OW59786   5.799   4.512   3.758
85985SOL    HW159787   5.729   4.521   3.823
85985SOL    HW259788   5.808   4.600   3.720
85986SOL     OW59789   3.096   5.828  10.143
85986SOL    HW159790   3.041   5.835  10.220
85986SOL    HW259791   3.179   5.869  10.169
85987SOL     OW59792   2.718  12.962   5.192
85987SOL    HW159793   2.800  12.971   5.142
85987SOL    HW259794   2.681  12.880   5.162
85988SOL     OW59795   3.422  13.174   6.117
85988SOL    HW159796   3.475  13.238   6.070
85988SOL    HW259797   3.459  13.173   6.205
85989SOL     OW59798   5.109  11.653  10.455
85989SOL    HW159799   5.034  11.692  10.409
85989SOL    HW259800   5.186  11.691  10.412
85990SOL     OW59801   1.904   8.098  11.545
85990SOL    HW159802   1.984   8.057  11.513
85990SOL    HW259803   1.934   8.170  11.601
85991SOL     OW59804  14.676   0.146   5.752
85991SOL    HW159805  14.770   0.143   5.734
85991SOL    HW259806  14.638   0.080   5.694
85992SOL     OW59807  12.144   6.331  10.492
85992SOL    HW159808  12.073   6.308  10.552
85992SOL    HW259809  12.103   6.331  10.406
85993SOL     OW59810   7.067   7.274   9.682
85993SOL    HW159811   6.983   7.311   9.655
85993SOL    HW259812   7.043   7.198   9.736
85994SOL     OW59813  10.522   4.861   9.886
85994SOL    HW159814  10.488   4.951   9.888
85994SOL    HW259815  10.501   4.826   9.973
85995SOL     OW59816   8.280  14.005   4.565
85995SOL    HW159817   8.230  14.055   4.630
85995SOL    HW259818   8.360  14.056   4.552
85996SOL     OW59819   9.470   1.979  11.116
85996SOL    HW159820   9.528   1.914  11.156
85996SOL    HW259821   9.382   1.948  11.137
85997SOL     OW59822   6.190   1.543   5.767
85997SOL    HW159823   6.218   1.580   5.684
85997SOL    HW259824   6.134   1.609   5.806
85998SOL     OW59825  12.195  10.083   6.569
85998SOL    HW159826  12.205  10.138   6.647
85998SOL    HW259827  12.207  10.143   6.496
85999SOL     OW59828   9.485   5.973  10.124
85999SOL    HW159829   9.413   5.914  10.145
85999SOL    HW259830   9.473   5.991  10.030
86000SOL     OW59831   6.396  13.591   6.887
86000SOL    HW159832   6.367  13.660   6.827
86000SOL    HW259833   6.355  13.511   6.854
86001SOL     OW59834  12.340   0.576   2.873
86001SOL    HW159835  12.320   0.553   2.964
86001SOL    HW259836  12.346   0.671   2.873
86002SOL     OW59837  14.054   9.968   1.703
86002SOL    HW159838  14.095  10.041   1.657
86002SOL    HW259839  14.128   9.919   1.740
86003SOL     OW59840   5.800   8.977   8.410
86003SOL    HW159841   5.883   8.929   8.415
86003SOL    HW259842   5.827   9.067   8.391
86004SOL     OW59843  14.822   6.578   9.242
86004SOL    HW159844  14.833   6.498   9.292
86004SOL    HW259845   0.019   6.629   9.261
86005SOL     OW59846   9.276  10.751   1.824
86005SOL    HW159847   9.243  10.765   1.735
86005SOL    HW259848   9.285  10.656   1.833
86006SOL     OW59849  13.262   5.964  14.108
86006SOL    HW159850  13.301   5.993  14.025
86006SOL    HW259851  13.337   5.933  14.159
86007SOL     OW59852  12.681   7.784  10.555
86007SOL    HW159853  12.769   7.822  10.565
86007SOL    HW259854  12.685   7.736  10.473
86008SOL     OW59855   5.516   9.407   5.603
86008SOL    HW159856   5.523   9.499   5.631
86008SOL    HW259857   5.498   9.360   5.684
86009SOL     OW59858   2.351   6.815   6.677
86009SOL    HW159859   2.419   6.806   6.744
86009SOL    HW259860   2.400   6.832   6.596
86010SOL     OW59861   6.585   6.346  11.907
86010SOL    HW159862   6.665   6.340  11.855
86010SOL    HW259863   6.608   6.309  11.992
86011SOL     OW59864   0.082   7.726  14.788
86011SOL    HW159865   0.052   7.765  14.870
86011SOL    HW259866   0.148   7.662  14.814
86012SOL     OW59867   9.171  14.857  13.788
86012SOL    HW159868   9.173  14.790  13.856
86012SOL    HW259869   9.164   0.058  13.836
86013SOL     OW59870   3.771   4.353   5.354
86013SOL    HW159871   3.725   4.270   5.342
86013SOL    HW259872   3.790   4.356   5.448
86014SOL     OW59873   5.800   7.908   1.015
86014SOL    HW159874   5.887   7.948   1.006
86014SOL    HW259875   5.815   7.814   1.007
86015SOL     OW59876  10.790   1.170  11.710
86015SOL    HW159877  10.778   1.194  11.618
86015SOL    HW259878  10.826   1.249  11.751
86016SOL     OW59879   7.614  14.540   2.793
86016SOL    HW159880   7.687  14.580   2.840
86016SOL    HW259881   7.545  14.530   2.858
86017SOL     OW59882   1.051   5.983   6.221
86017SOL    HW159883   1.016   5.990   6.311
86017SOL    HW259884   1.071   6.074   6.197
86018SOL     OW59885  13.965   8.561   9.126
86018SOL    HW159886  13.992   8.501   9.056
86018SOL    HW259887  13.964   8.506   9.205
86019SOL     OW59888   3.939  11.889   2.601
86019SOL    HW159889   3.943  11.801   2.640
86019SOL    HW259890   3.862  11.887   2.545
86020SOL     OW59891   6.423   3.298   2.430
86020SOL    HW159892   6.461   3.241   2.497
86020SOL    HW259893   6.461   3.384   2.447
86021SOL     OW59894   9.722  11.859   9.577
86021SOL    HW159895   9.749  11.796   9.510
86021SOL    HW259896   9.627  11.865   9.567
86022SOL     OW59897   0.922   5.025  14.703
86022SOL    HW159898   0.936   5.114  14.736
86022SOL    HW259899   0.844   4.994  14.749
86023SOL     OW59900   0.546   3.559  13.605
86023SOL    HW159901   0.480   3.628  13.601
86023SOL    HW259902   0.593   3.567  13.522
86024SOL     OW59903  11.902   3.981   4.538
86024SOL    HW159904  11.949   3.993   4.455
86024SOL    HW259905  11.952   3.915   4.585
86025SOL     OW59906   1.702   2.667  14.101
86025SOL    HW159907   1.644   2.591  14.108
86025SOL    HW259908   1.654   2.738  14.144
86026SOL     OW59909   7.537   3.348   8.199
86026SOL    HW159910   7.592   3.290   8.251
86026SOL    HW259911   7.592   3.374   8.125
86027SOL     OW59912  12.947   1.584   5.945
86027SOL    HW159913  12.929   1.545   5.860
86027SOL    HW259914  12.901   1.527   6.007
86028SOL     OW59915  12.815  13.191  14.300
86028SOL    HW159916  12.786  13.281  14.288
86028SOL    HW259917  12.844  13.163  14.213
86029SOL     OW59918   0.868   7.520   5.259
86029SOL    HW159919   0.955   7.550   5.236
86029SOL    HW259920   0.810   7.591   5.231
86030SOL     OW59921  11.880   7.668   0.979
86030SOL    HW159922  11.966   7.632   0.960
86030SOL    HW259923  11.875   7.671   1.074
86031SOL     OW59924   1.884  10.872   5.002
86031SOL    HW159925   1.852  10.953   5.040
86031SOL    HW259926   1.952  10.842   5.063
86032SOL     OW59927  10.007   0.051   9.399
86032SOL    HW159928  10.100   0.034   9.392
86032SOL    HW259929   9.995   0.080   9.489
86033SOL     OW59930   1.608  14.553   6.789
86033SOL    HW159931   1.606  14.519   6.700
86033SOL    HW259932   1.698  14.583   6.801
86034SOL     OW59933   0.300   1.989   1.253
86034SOL    HW159934   0.358   2.064   1.233
86034SOL    HW259935   0.331   1.920   1.194
86035SOL     OW59936   4.588  14.677  12.933
86035SOL    HW159937   4.611  14.740  13.001
86035SOL    HW259938   4.654  14.609  12.939
86036SOL     OW59939  14.302   9.162   6.577
86036SOL    HW159940  14.387   9.194   6.607
86036SOL    HW259941  14.323   9.093   6.514
86037SOL     OW59942   8.390   1.918   4.450
86037SOL    HW159943   8.440   1.970   4.512
86037SOL    HW259944   8.368   1.838   4.498
86038SOL     OW59945   3.861   9.794   1.002
86038SOL    HW159946   3.791   9.769   1.061
86038SOL    HW259947   3.941   9.765   1.046
86039SOL     OW59948   8.490   7.538   5.029
86039SOL    HW159949   8.507   7.470   5.094
86039SOL    HW259950   8.533   7.506   4.949
86040SOL     OW59951  14.166   2.543  12.763
86040SOL    HW159952  14.106   2.577  12.830
86040SOL    HW259953  14.246   2.524  12.811
86041SOL     OW59954   5.524  10.208   8.595
86041SOL    HW159955   5.563  10.242   8.515
86041SOL    HW259956   5.458  10.146   8.564
86042SOL     OW59957  13.631   3.025   4.013
86042SOL    HW159958  13.547   3.072   4.011
86042SOL    HW259959  13.656   3.015   3.922
86043SOL     OW59960   5.405  10.668   2.806
86043SOL    HW159961   5.339  10.603   2.781
86043SOL    HW259962   5.481  10.616   2.832
86044SOL     OW59963   0.904  11.047  10.998
86044SOL    HW159964   0.913  10.974  10.937
86044SOL    HW259965   0.987  11.049  11.046
86045SOL     OW59966  11.679   5.912  14.203
86045SOL    HW159967  11.610   5.920  14.268
86045SOL    HW259968  11.646   5.961  14.127
86046SOL     OW59969   9.368  14.195   3.939
86046SOL    HW159970   9.430  14.215   3.869
86046SOL    HW259971   9.341  14.105   3.923
86047SOL     OW59972  11.601   0.624   3.701
86047SOL    HW159973  11.620   0.694   3.764
86047SOL    HW259974  11.522   0.582   3.735
86048SOL     OW59975   9.642  10.185   2.036
86048SOL    HW159976   9.723  10.230   2.059
86048SOL    HW259977   9.606  10.156   2.120
86049SOL     OW59978  10.689   5.309   4.302
86049SOL    HW159979  10.628   5.383   4.303
86049SOL    HW259980  10.735   5.315   4.386
86050SOL     OW59981  13.992   2.375   0.743
86050SOL    HW159982  14.041   2.313   0.797
86050SOL    HW259983  13.941   2.426   0.805
86051SOL     OW59984   6.993   4.722   0.981
86051SOL    HW159985   7.072   4.715   1.035
86051SOL    HW259986   6.925   4.751   1.042
86052SOL     OW59987  13.256   1.646   1.422
86052SOL    HW159988  13.200   1.578   1.384
86052SOL    HW259989  13.343   1.628   1.385
86053SOL     OW59990  11.107   9.399   7.254
86053SOL    HW159991  11.177   9.350   7.297
86053SOL    HW259992  11.030   9.343   7.262
86054SOL     OW59993   5.886  14.798   7.123
86054SOL    HW159994   5.970  14.816   7.166
86054SOL    HW259995   5.827  14.865   7.157
86055SOL     OW59996   6.896   7.643   6.573
86055SOL    HW159997   6.991   7.632   6.580
86055SOL    HW259998   6.884   7.696   6.494
86056SOL     OW59999   2.280  11.548  13.616
86056SOL    HW160000   2.261  11.547  13.709
86056SOL    HW260001   2.225  11.479  13.579
86057SOL     OW60002  14.200   4.042  14.160
86057SOL    HW160003  14.154   4.119  14.126
86057SOL    HW260004  14.280   4.036  14.108
86058SOL     OW60005  10.824  11.846  10.588
86058SOL    HW160006  10.859  11.894  10.664
86058SOL    HW260007  10.892  11.855  10.522
86059SOL     OW60008   4.920  14.193   1.772
86059SOL    HW160009   4.919  14.120   1.835
86059SOL    HW260010   4.839  14.241   1.791
86060SOL     OW60011   5.263  10.214   4.203
86060SOL    HW160012   5.186  10.199   4.149
86060SOL    HW260013   5.275  10.309   4.201
86061SOL     OW60014  11.100   1.628   2.564
86061SOL    HW160015  11.037   1.564   2.598
86061SOL    HW260016  11.167   1.576   2.520
86062SOL     OW60017   5.919   1.079  14.805
86062SOL    HW160018   5.867   1.082   0.004
86062SOL    HW260019   5.866   1.027  14.745
86063SOL     OW60020   0.180   7.992   2.672
86063SOL    HW160021   0.196   8.083   2.697
86063SOL    HW260022   0.255   7.944   2.707
86064SOL     OW60023  14.019   5.580   9.381
86064SOL    HW160024  14.047   5.671   9.393
86064SOL    HW260025  14.075   5.530   9.441
86065SOL     OW60026   9.932   7.367   9.939
86065SOL    HW160027   9.975   7.436   9.890
86065SOL    HW260028   9.935   7.290   9.882
86066SOL     OW60029   5.116   0.793  14.343
86066SOL    HW160030   5.039   0.786  14.399
86066SOL    HW260031   5.181   0.736  14.385
86067SOL     OW60032   4.685   3.769   0.749
86067SOL    HW160033   4.675   3.770   0.844
86067SOL    HW260034   4.628   3.698   0.719
86068SOL     OW60035   2.059   1.933   4.906
86068SOL    HW160036   1.979   1.974   4.940
86068SOL    HW260037   2.111   1.914   4.984
86069SOL     OW60038   1.464   7.585  13.520
86069SOL    HW160039   1.374   7.553  13.526
86069SOL    HW260040   1.458   7.663  13.464
86070SOL     OW60041   3.391   9.549   7.920
86070SOL    HW160042   3.375   9.639   7.891
86070SOL    HW260043   3.334   9.538   7.996
86071SOL     OW60044   4.918   7.208  12.692
86071SOL    HW160045   4.898   7.117  12.672
86071SOL    HW260046   4.954   7.244  12.611
86072SOL     OW60047   6.079  11.640   1.863
86072SOL    HW160048   6.129  11.590   1.926
86072SOL    HW260049   6.139  11.652   1.789
86073SOL     OW60050  13.189  13.811   4.150
86073SOL    HW160051  13.240  13.735   4.123
86073SOL    HW260052  13.103  13.775   4.173
86074SOL     OW60053  13.109   4.558  12.813
86074SOL    HW160054  13.099   4.654  12.809
86074SOL    HW260055  13.170   4.543  12.885
86075SOL     OW60056   4.180   2.974  13.007
86075SOL    HW160057   4.216   3.036  13.070
86075SOL    HW260058   4.122   2.918  13.059
86076SOL     OW60059   6.510  14.880  14.166
86076SOL    HW160060   6.598  14.880  14.130
86076SOL    HW260061   6.476  14.792  14.148
86077SOL     OW60062  13.889   8.889   3.603
86077SOL    HW160063  13.882   8.807   3.555
86077SOL    HW260064  13.813   8.940   3.573
86078SOL     OW60065   5.303   1.321   8.296
86078SOL    HW160066   5.259   1.385   8.240
86078SOL    HW260067   5.258   1.238   8.278
86079SOL     OW60068  10.267   1.101  11.995
86079SOL    HW160069  10.312   1.136  11.918
86079SOL    HW260070  10.326   1.034  12.029
86080SOL     OW60071  12.130  13.388   7.141
86080SOL    HW160072  12.120  13.348   7.228
86080SOL    HW260073  12.080  13.469   7.146
86081SOL     OW60074  10.808  13.114   7.535
86081SOL    HW160075  10.722  13.129   7.496
86081SOL    HW260076  10.808  13.020   7.556
86082SOL     OW60077  14.351   2.851  10.015
86082SOL    HW160078  14.318   2.883  10.099
86082SOL    HW260079  14.338   2.756  10.019
86083SOL     OW60080   2.949   5.109  12.567
86083SOL    HW160081   2.892   5.065  12.629
86083SOL    HW260082   3.026   5.052  12.561
86084SOL     OW60083   4.022   6.562  10.533
86084SOL    HW160084   4.083   6.498  10.497
86084SOL    HW260085   3.986   6.607  10.456
86085SOL     OW60086  14.151   9.995   0.547
86085SOL    HW160087  14.246   9.997   0.536
86085SOL    HW260088  14.137   9.957   0.633
86086SOL     OW60089   0.968   2.523   1.181
86086SOL    HW160090   0.921   2.441   1.171
86086SOL    HW260091   0.923   2.567   1.254
86087SOL     OW60092  10.352  11.972   8.517
86087SOL    HW160093  10.286  11.932   8.573
86087SOL    HW260094  10.424  11.909   8.516
86088SOL     OW60095  11.547  14.710   5.087
86088SOL    HW160096  11.549  14.720   5.183
86088SOL    HW260097  11.591  14.627   5.071
86089SOL     OW60098   8.124   6.823  14.468
86089SOL    HW160099   8.135   6.911  14.502
86089SOL    HW260100   8.211   6.796  14.439
86090SOL     OW60101   4.680   8.056  12.092
86090SOL    HW160102   4.730   8.128  12.130
86090SOL    HW260103   4.633   8.095  12.019
86091SOL     OW60104   3.669   4.052   9.549
86091SOL    HW160105   3.628   3.981   9.599
86091SOL    HW260106   3.638   4.040   9.460
86092SOL     OW60107  10.557  11.386   7.154
86092SOL    HW160108  10.573  11.479   7.173
86092SOL    HW260109  10.464  11.374   7.172
86093SOL     OW60110   0.216  14.810   4.969
86093SOL    HW160111   0.146  14.864   5.006
86093SOL    HW260112   0.213  14.729   5.020
86094SOL     OW60113   0.881  11.806   2.300
86094SOL    HW160114   0.876  11.891   2.256
86094SOL    HW260115   0.827  11.816   2.378
86095SOL     OW60116   3.394  11.560  14.641
86095SOL    HW160117   3.462  11.498  14.667
86095SOL    HW260118   3.441  11.626  14.589
86096SOL     OW60119   0.911   1.085   9.008
86096SOL    HW160120   0.939   1.135   9.085
86096SOL    HW260121   0.929   0.994   9.031
86097SOL     OW60122   8.493   5.756   3.434
86097SOL    HW160123   8.442   5.737   3.512
86097SOL    HW260124   8.455   5.699   3.366
86098SOL     OW60125   7.093  10.104   2.944
86098SOL    HW160126   7.045  10.024   2.963
86098SOL    HW260127   7.026  10.167   2.919
86099SOL     OW60128   2.870   7.578   3.990
86099SOL    HW160129   2.788   7.600   4.034
86099SOL    HW260130   2.926   7.654   4.004
86100SOL     OW60131  13.793  13.205   1.997
86100SOL    HW160132  13.841  13.198   2.080
86100SOL    HW260133  13.858  13.182   1.930
86101SOL     OW60134  10.952   5.369   5.195
86101SOL    HW160135  10.990   5.440   5.144
86101SOL    HW260136  10.961   5.397   5.286
86102SOL     OW60137  13.260   5.115   6.295
86102SOL    HW160138  13.186   5.096   6.353
86102SOL    HW260139  13.335   5.125   6.355
86103SOL     OW60140   7.017  12.497   6.224
86103SOL    HW160141   7.065  12.504   6.141
86103SOL    HW260142   7.085  12.477   6.289
86104SOL     OW60143   6.548   0.082   6.567
86104SOL    HW160144   6.624   0.083   6.510
86104SOL    HW260145   6.574   0.134   6.643
86105SOL     OW60146   2.453   8.053   6.879
86105SOL    HW160147   2.479   8.113   6.809
86105SOL    HW260148   2.458   7.966   6.839
86106SOL     OW60149  13.249  12.032  12.396
86106SOL    HW160150  13.273  11.996  12.311
86106SOL    HW260151  13.212  11.958  12.444
86107SOL     OW60152  12.144   1.609  11.395
86107SOL    HW160153  12.238   1.595  11.394
86107SOL    HW260154  12.114   1.575  11.310
86108SOL     OW60155  13.296   2.848   3.757
86108SOL    HW160156  13.231   2.915   3.736
86108SOL    HW260157  13.251   2.765   3.742
86109SOL     OW60158   8.925   5.063  12.410
86109SOL    HW160159   8.863   5.131  12.437
86109SOL    HW260160   9.011   5.099  12.434
86110SOL     OW60161  13.270  11.098   4.576
86110SOL    HW160162  13.318  11.139   4.648
86110SOL    HW260163  13.255  11.169   4.513
86111SOL     OW60164  10.431   2.394  11.405
86111SOL    HW160165  10.436   2.456  11.333
86111SOL    HW260166  10.516   2.349  11.404
86112SOL     OW60167   0.220   3.067   9.841
86112SOL    HW160168   0.153   3.018   9.793
86112SOL    HW260169   0.198   3.053   9.933
86113SOL     OW60170  13.742  12.247  12.372
86113SOL    HW160171  13.794  12.261  12.292
86113SOL    HW260172  13.710  12.157  12.365
86114SOL     OW60173  10.177  11.580   9.042
86114SOL    HW160174  10.248  11.587   8.977
86114SOL    HW260175  10.221  11.590   9.126
86115SOL     OW60176  13.773   5.290  12.196
86115SOL    HW160177  13.758   5.315  12.105
86115SOL    HW260178  13.755   5.196  12.198
86116SOL     OW60179  10.274   4.279   9.091
86116SOL    HW160180  10.341   4.239   9.036
86116SOL    HW260181  10.322   4.320   9.162
86117SOL     OW60182   0.164  12.559  11.488
86117SOL    HW160183   0.151  12.652  11.507
86117SOL    HW260184   0.258  12.549  11.476
86118SOL     OW60185  12.713  14.015   1.412
86118SOL    HW160186  12.732  14.048   1.324
86118SOL    HW260187  12.675  14.091   1.457
86119SOL     OW60188   9.577   5.317   5.134
86119SOL    HW160189   9.599   5.392   5.080
86119SOL    HW260190   9.659   5.269   5.145
86120SOL     OW60191   5.281   5.536   9.656
86120SOL    HW160192   5.198   5.578   9.631
86120SOL    HW260193   5.258   5.483   9.732
86121SOL     OW60194   4.276  13.157   9.577
86121SOL    HW160195   4.347  13.200   9.529
86121SOL    HW260196   4.273  13.201   9.661
86122SOL     OW60197   0.131   7.624   7.809
86122SOL    HW160198   0.220   7.638   7.840
86122SOL    HW260199   0.085   7.587   7.885
86123SOL     OW60200   7.695   2.965  10.143
86123SOL    HW160201   7.607   3.002  10.146
86123SOL    HW260202   7.752   3.041  10.129
86124SOL     OW60203   6.412   2.311   7.779
86124SOL    HW160204   6.372   2.225   7.792
86124SOL    HW260205   6.476   2.298   7.709
86125SOL     OW60206   2.246   2.602   4.348
86125SOL    HW160207   2.187   2.554   4.289
86125SOL    HW260208   2.302   2.653   4.289
86126SOL     OW60209   2.636  11.427   3.931
86126SOL    HW160210   2.633  11.508   3.880
86126SOL    HW260211   2.565  11.374   3.896
86127SOL     OW60212  14.188  11.566   4.604
86127SOL    HW160213  14.105  11.518   4.607
86127SOL    HW260214  14.198  11.602   4.692
86128SOL     OW60215   0.972  14.764   3.581
86128SOL    HW160216   0.949  14.737   3.669
86128SOL    HW260217   0.903  14.728   3.525
86129SOL     OW60218  11.481   3.414   5.582
86129SOL    HW160219  11.505   3.497   5.623
86129SOL    HW260220  11.548   3.352   5.611
86130SOL     OW60221   8.091  11.829   4.200
86130SOL    HW160222   8.100  11.751   4.255
86130SOL    HW260223   8.143  11.809   4.122
86131SOL     OW60224  11.876   3.880  12.141
86131SOL    HW160225  11.869   3.973  12.160
86131SOL    HW260226  11.924   3.844  12.215
86132SOL     OW60227   1.756   4.765  13.171
86132SOL    HW160228   1.773   4.852  13.135
86132SOL    HW260229   1.843   4.729  13.189
86133SOL     OW60230   5.972   7.598   0.114
86133SOL    HW160231   6.025   7.538   0.062
86133SOL    HW260232   5.893   7.548   0.134
86134SOL     OW60233  10.138   3.629  12.496
86134SOL    HW160234  10.156   3.635  12.590
86134SOL    HW260235  10.224   3.639  12.455
86135SOL     OW60236   6.444   1.224  14.783
86135SOL    HW160237   6.475   1.227  14.874
86135SOL    HW260238   6.350   1.210  14.790
86136SOL     OW60239  10.016  13.825  11.020
86136SOL    HW160240  10.064  13.778  11.088
86136SOL    HW260241  10.032  13.917  11.039
86137SOL     OW60242  11.374  14.033   6.132
86137SOL    HW160243  11.288  14.057   6.096
86137SOL    HW260244  11.397  14.105   6.190
86138SOL     OW60245   1.740   0.881   7.930
86138SOL    HW160246   1.766   0.855   7.842
86138SOL    HW260247   1.647   0.902   7.922
86139SOL     OW60248  13.773  13.366  14.055
86139SOL    HW160249  13.701  13.424  14.078
86139SOL    HW260250  13.767  13.357  13.960
86140SOL     OW60251  13.851   1.139   2.339
86140SOL    HW160252  13.931   1.103   2.301
86140SOL    HW260253  13.795   1.063   2.353
86141SOL     OW60254   1.487  12.152   5.434
86141SOL    HW160255   1.561  12.117   5.384
86141SOL    HW260256   1.471  12.238   5.396
86142SOL     OW60257   5.167   8.547   7.842
86142SOL    HW160258   5.217   8.627   7.826
86142SOL    HW260259   5.161   8.541   7.937
86143SOL     OW60260   4.752   0.185   8.242
86143SOL    HW160261   4.834   0.231   8.225
86143SOL    HW260262   4.734   0.202   8.334
86144SOL     OW60263   8.872   6.883  14.032
86144SOL    HW160264   8.883   6.851  13.943
86144SOL    HW260265   8.949   6.850  14.080
86145SOL     OW60266   1.605  14.337   0.720
86145SOL    HW160267   1.513  14.328   0.693
86145SOL    HW260268   1.647  14.380   0.646
86146SOL     OW60269   4.546   8.102   1.502
86146SOL    HW160270   4.561   8.035   1.435
86146SOL    HW260271   4.526   8.053   1.581
86147SOL     OW60272   7.037  14.263   9.595
86147SOL    HW160273   6.977  14.210   9.544
86147SOL    HW260274   7.109  14.283   9.535
86148SOL     OW60275   9.830   6.593   5.760
86148SOL    HW160276   9.745   6.602   5.719
86148SOL    HW260277   9.891   6.581   5.687
86149SOL     OW60278   7.216   9.474  11.170
86149SOL    HW160279   7.173   9.466  11.255
86149SOL    HW260280   7.210   9.567  11.149
86150SOL     OW60281  13.957  10.132   0.377
86150SOL    HW160282  13.994  10.089   0.454
86150SOL    HW260283  14.011  10.210   0.364
86151SOL     OW60284   8.927   7.223   0.463
86151SOL    HW160285   8.969   7.178   0.537
86151SOL    HW260286   8.847   7.261   0.500
86152SOL     OW60287   1.009   1.561   9.015
86152SOL    HW160288   0.969   1.515   8.942
86152SOL    HW260289   1.011   1.497   9.086
86153SOL     OW60290   8.338   4.112   8.746
86153SOL    HW160291   8.285   4.159   8.811
86153SOL    HW260292   8.283   4.110   8.668
86154SOL     OW60293  12.614   1.925   2.749
86154SOL    HW160294  12.649   1.926   2.659
86154SOL    HW260295  12.556   1.849   2.751
86155SOL     OW60296   5.211   0.583   6.166
86155SOL    HW160297   5.235   0.507   6.113
86155SOL    HW260298   5.288   0.641   6.161
86156SOL     OW60299   5.708  13.217   8.543
86156SOL    HW160300   5.663  13.138   8.512
86156SOL    HW260301   5.800  13.203   8.519
86157SOL     OW60302  14.648   8.717  13.180
86157SOL    HW160303  14.683   8.751  13.263
86157SOL    HW260304  14.713   8.652  13.152
86158SOL     OW60305  14.297  13.068   9.104
86158SOL    HW160306  14.349  12.988   9.100
86158SOL    HW260307  14.242  13.057   9.182
86159SOL     OW60308  11.906  11.052   4.838
86159SOL    HW160309  11.878  10.992   4.908
86159SOL    HW260310  11.860  11.133   4.855
86160SOL     OW60311   3.327   9.504   2.100
86160SOL    HW160312   3.309   9.424   2.149
86160SOL    HW260313   3.244   9.551   2.098
86161SOL     OW60314   5.658   8.971  10.936
86161SOL    HW160315   5.582   8.971  10.878
86161SOL    HW260316   5.700   9.056  10.920
86162SOL     OW60317   5.692   8.131   6.117
86162SOL    HW160318   5.667   8.094   6.032
86162SOL    HW260319   5.782   8.102   6.130
86163SOL     OW60320   8.194   6.888   1.486
86163SOL    HW160321   8.181   6.925   1.398
86163SOL    HW260322   8.106   6.885   1.524
86164SOL     OW60323   7.571   2.278  14.742
86164SOL    HW160324   7.494   2.227  14.718
86164SOL    HW260325   7.537   2.365  14.762
86165SOL     OW60326  14.407   2.499   4.505
86165SOL    HW160327  14.400   2.409   4.473
86165SOL    HW260328  14.318   2.534   4.499
86166SOL     OW60329   8.860   0.816   4.033
86166SOL    HW160330   8.832   0.725   4.029
86166SOL    HW260331   8.832   0.854   3.950
86167SOL     OW60332   5.209   6.937   1.851
86167SOL    HW160333   5.157   6.953   1.773
86167SOL    HW260334   5.281   7.000   1.845
86168SOL     OW60335  10.942   2.973  14.798
86168SOL    HW160336  11.006   2.904  14.780
86168SOL    HW260337  10.994   3.053  14.803
86169SOL     OW60338  12.123  11.013   2.913
86169SOL    HW160339  12.160  11.088   2.959
86169SOL    HW260340  12.188  10.944   2.924
86170SOL     OW60341   9.074  13.639  12.497
86170SOL    HW160342   9.131  13.658  12.572
86170SOL    HW260343   9.080  13.717  12.442
86171SOL     OW60344   4.463   0.227   2.304
86171SOL    HW160345   4.558   0.221   2.318
86171SOL    HW260346   4.435   0.299   2.360
86172SOL     OW60347  11.123  10.014   2.204
86172SOL    HW160348  11.188  10.075   2.237
86172SOL    HW260349  11.081   9.979   2.283
86173SOL     OW60350  13.166  14.427   9.036
86173SOL    HW160351  13.168  14.520   9.010
86173SOL    HW260352  13.215  14.425   9.118
86174SOL     OW60353   3.994   1.559   9.326
86174SOL    HW160354   4.046   1.533   9.402
86174SOL    HW260355   3.906   1.571   9.359
86175SOL     OW60356   9.632  12.711  14.211
86175SOL    HW160357   9.599  12.657  14.139
86175SOL    HW260358   9.718  12.741  14.182
86176SOL     OW60359   6.873  13.126   3.557
86176SOL    HW160360   6.827  13.046   3.584
86176SOL    HW260361   6.904  13.107   3.469
86177SOL     OW60362   7.888   7.442   7.334
86177SOL    HW160363   7.913   7.534   7.341
86177SOL    HW260364   7.793   7.444   7.325
86178SOL     OW60365  11.184   1.465   8.073
86178SOL    HW160366  11.106   1.443   8.124
86178SOL    HW260367  11.242   1.510   8.135
86179SOL     OW60368  11.158   1.359   0.153
86179SOL    HW160369  11.141   1.452   0.166
86179SOL    HW260370  11.143   1.320   0.239
86180SOL     OW60371  13.027   5.940   7.215
86180SOL    HW160372  12.980   5.920   7.296
86180SOL    HW260373  13.111   5.973   7.243
86181SOL     OW60374   9.345   9.981   7.053
86181SOL    HW160375   9.292   9.901   7.059
86181SOL    HW260376   9.302  10.034   6.986
86182SOL     OW60377   5.159   1.912   5.511
86182SOL    HW160378   5.137   1.949   5.596
86182SOL    HW260379   5.198   1.985   5.463
86183SOL     OW60380   9.886   0.465  10.919
86183SOL    HW160381   9.974   0.496  10.941
86183SOL    HW260382   9.884   0.462  10.824
86184SOL     OW60383  14.124   9.478  10.805
86184SOL    HW160384  14.125   9.457  10.898
86184SOL    HW260385  14.071   9.558  10.799
86185SOL     OW60386  11.392  14.305   9.396
86185SOL    HW160387  11.444  14.370   9.349
86185SOL    HW260388  11.406  14.224   9.347
86186SOL     OW60389   8.453   7.146  10.359
86186SOL    HW160390   8.485   7.162  10.448
86186SOL    HW260391   8.397   7.220  10.339
86187SOL     OW60392   4.335   7.785   7.361
86187SOL    HW160393   4.339   7.746   7.449
86187SOL    HW260394   4.291   7.869   7.375
86188SOL     OW60395  14.279  11.913   6.800
86188SOL    HW160396  14.222  11.963   6.742
86188SOL    HW260397  14.313  11.842   6.746
86189SOL     OW60398   3.477  13.035   8.598
86189SOL    HW160399   3.482  13.092   8.675
86189SOL    HW260400   3.418  12.964   8.624
86190SOL     OW60401   8.851   3.540  14.418
86190SOL    HW160402   8.778   3.484  14.445
86190SOL    HW260403   8.810   3.608  14.364
86191SOL     OW60404   8.682   2.525   3.481
86191SOL    HW160405   8.598   2.514   3.437
86191SOL    HW260406   8.698   2.619   3.480
86192SOL     OW60407  12.075   3.337   3.338
86192SOL    HW160408  12.148   3.277   3.350
86192SOL    HW260409  12.106   3.401   3.274
86193SOL     OW60410  11.470  12.233   5.375
86193SOL    HW160411  11.440  12.247   5.285
86193SOL    HW260412  11.391  12.207   5.422
86194SOL     OW60413   6.448   4.315   4.529
86194SOL    HW160414   6.403   4.329   4.445
86194SOL    HW260415   6.501   4.394   4.541
86195SOL     OW60416  12.464   9.640   8.869
86195SOL    HW160417  12.390   9.683   8.911
86195SOL    HW260418  12.541   9.679   8.910
86196SOL     OW60419   7.361  14.196   1.421
86196SOL    HW160420   7.300  14.125   1.441
86196SOL    HW260421   7.305  14.274   1.415
86197SOL     OW60422   9.305   7.368   5.324
86197SOL    HW160423   9.228   7.317   5.297
86197SOL    HW260424   9.380   7.316   5.294
86198SOL     OW60425   3.074   2.447   0.120
86198SOL    HW160426   3.011   2.417   0.054
86198SOL    HW260427   3.094   2.369   0.172
86199SOL     OW60428   9.924   2.494   9.855
86199SOL    HW160429   9.944   2.588   9.858
86199SOL    HW260430   9.889   2.480   9.766
86200SOL     OW60431  12.362   9.589  14.179
86200SOL    HW160432  12.356   9.506  14.132
86200SOL    HW260433  12.375   9.655  14.110
86201SOL     OW60434   5.016   9.107  12.403
86201SOL    HW160435   4.928   9.071  12.391
86201SOL    HW260436   5.001   9.198  12.429
86202SOL     OW60437  11.821   4.992   7.014
86202SOL    HW160438  11.745   5.025   7.061
86202SOL    HW260439  11.787   4.919   6.962
86203SOL     OW60440   8.114   7.007   1.796
86203SOL    HW160441   8.088   7.051   1.876
86203SOL    HW260442   8.083   7.063   1.725
86204SOL     OW60443   1.093   9.273   4.007
86204SOL    HW160444   1.068   9.340   4.071
86204SOL    HW260445   1.043   9.196   4.033
86205SOL     OW60446   3.439  11.812   8.579
86205SOL    HW160447   3.374  11.793   8.647
86205SOL    HW260448   3.494  11.880   8.617
86206SOL     OW60449   8.709   7.574   8.806
86206SOL    HW160450   8.769   7.499   8.808
86206SOL    HW260451   8.754   7.642   8.857
86207SOL     OW60452   9.874   8.994  10.812
86207SOL    HW160453   9.945   9.047  10.849
86207SOL    HW260454   9.863   8.922  10.874
86208SOL     OW60455   3.469  11.347  12.801
86208SOL    HW160456   3.514  11.263  12.808
86208SOL    HW260457   3.461  11.363  12.707
86209SOL     OW60458   1.118   9.072   2.847
86209SOL    HW160459   1.203   9.029   2.853
86209SOL    HW260460   1.096   9.096   2.937
86210SOL     OW60461   4.655  10.084   7.094
86210SOL    HW160462   4.675  10.151   7.028
86210SOL    HW260463   4.727  10.090   7.157
86211SOL     OW60464  13.633   6.868  14.406
86211SOL    HW160465  13.555   6.904  14.449
86211SOL    HW260466  13.668   6.942  14.355
86212SOL     OW60467   7.247   3.942  13.855
86212SOL    HW160468   7.272   4.026  13.893
86212SOL    HW260469   7.191   3.901  13.921
86213SOL     OW60470   0.004  10.468   7.594
86213SOL    HW160471   0.044  10.451   7.508
86213SOL    HW260472   0.073  10.513   7.643
86214SOL     OW60473  14.449  14.037  10.475
86214SOL    HW160474  14.502  13.972  10.430
86214SOL    HW260475  14.511  14.085  10.530
86215SOL     OW60476   8.777   3.068   0.316
86215SOL    HW160477   8.694   3.100   0.280
86215SOL    HW260478   8.760   2.975   0.334
86216SOL     OW60479  12.318  12.570  13.721
86216SOL    HW160480  12.275  12.651  13.693
86216SOL    HW260481  12.246  12.511  13.744
86217SOL     OW60482   2.573   0.207   4.411
86217SOL    HW160483   2.481   0.190   4.391
86217SOL    HW260484   2.571   0.279   4.473
86218SOL     OW60485  14.761  12.132  10.201
86218SOL    HW160486  14.769  12.083  10.283
86218SOL    HW260487  14.851  12.150  10.174
86219SOL     OW60488  11.945   4.968   8.547
86219SOL    HW160489  11.908   4.886   8.577
86219SOL    HW260490  11.983   4.948   8.461
86220SOL     OW60491   6.979  10.168  13.128
86220SOL    HW160492   7.071  10.165  13.102
86220SOL    HW260493   6.932  10.187  13.047
86221SOL     OW60494  12.841   8.547   5.348
86221SOL    HW160495  12.823   8.633   5.310
86221SOL    HW260496  12.766   8.494   5.323
86222SOL     OW60497  14.474  14.047   9.699
86222SOL    HW160498  14.466  14.142   9.694
86222SOL    HW260499  14.386  14.017   9.722
86223SOL     OW60500  10.887   4.272   8.272
86223SOL    HW160501  10.878   4.193   8.219
86223SOL    HW260502  10.798   4.295   8.297
86224SOL     OW60503   4.192  14.517  11.197
86224SOL    HW160504   4.149  14.476  11.122
86224SOL    HW260505   4.173  14.611  11.188
86225SOL     OW60506  13.404  13.451   0.924
86225SOL    HW160507  13.321  13.455   0.877
86225SOL    HW260508  13.442  13.539   0.912
86226SOL     OW60509   0.453  11.032   9.665
86226SOL    HW160510   0.415  11.009   9.580
86226SOL    HW260511   0.398  10.987   9.729
86227SOL     OW60512   7.906   2.835  11.721
86227SOL    HW160513   7.944   2.788  11.646
86227SOL    HW260514   7.945   2.794  11.798
86228SOL     OW60515   8.766   8.767   6.170
86228SOL    HW160516   8.729   8.696   6.223
86228SOL    HW260517   8.794   8.724   6.089
86229SOL     OW60518   2.188  11.376   2.635
86229SOL    HW160519   2.264  11.322   2.656
86229SOL    HW260520   2.225  11.462   2.615
86230SOL     OW60521   3.350   2.286   0.967
86230SOL    HW160522   3.273   2.279   1.023
86230SOL    HW260523   3.362   2.198   0.931
86231SOL     OW60524   1.847  13.588  14.173
86231SOL    HW160525   1.913  13.582  14.242
86231SOL    HW260526   1.808  13.501  14.169
86232SOL     OW60527   5.635   3.836   5.451
86232SOL    HW160528   5.584   3.761   5.421
86232SOL    HW260529   5.625   3.901   5.382
86233SOL     OW60530   6.561   9.653   2.316
86233SOL    HW160531   6.478   9.690   2.284
86233SOL    HW260532   6.627   9.716   2.288
86234SOL     OW60533   8.708   7.823   1.325
86234SOL    HW160534   8.701   7.908   1.370
86234SOL    HW260535   8.648   7.766   1.372
86235SOL     OW60536   3.138   4.158  11.262
86235SOL    HW160537   3.181   4.074  11.245
86235SOL    HW260538   3.178   4.218  11.199
86236SOL     OW60539   4.640   0.454  12.024
86236SOL    HW160540   4.569   0.518  12.017
86236SOL    HW260541   4.620   0.405  12.104
86237SOL     OW60542   9.879   1.765  12.281
86237SOL    HW160543   9.954   1.772  12.222
86237SOL    HW260544   9.889   1.838  12.342
86238SOL     OW60545   4.407   6.040  11.178
86238SOL    HW160546   4.354   6.036  11.099
86238SOL    HW260547   4.417   5.949  11.206
86239SOL     OW60548   6.515   9.615  12.346
86239SOL    HW160549   6.518   9.711  12.344
86239SOL    HW260550   6.429   9.594  12.381
86240SOL     OW60551   5.548   6.455  10.726
86240SOL    HW160552   5.506   6.374  10.699
86240SOL    HW260553   5.535   6.458  10.821
86241SOL     OW60554   7.254   9.184   9.813
86241SOL    HW160555   7.213   9.253   9.761
86241SOL    HW260556   7.202   9.105   9.794
86242SOL     OW60557  12.107   2.803  11.204
86242SOL    HW160558  12.081   2.733  11.265
86242SOL    HW260559  12.129   2.877  11.260
86243SOL     OW60560  14.514  11.323   2.373
86243SOL    HW160561  14.583  11.324   2.306
86243SOL    HW260562  14.561  11.319   2.456
86244SOL     OW60563   1.333  14.505  13.885
86244SOL    HW160564   1.238  14.504  13.895
86244SOL    HW260565   1.347  14.526  13.792
86245SOL     OW60566  14.137  11.629   0.130
86245SOL    HW160567  14.050  11.605   0.161
86245SOL    HW260568  14.193  11.622   0.207
86246SOL     OW60569   1.195  13.714   3.847
86246SOL    HW160570   1.129  13.748   3.907
86246SOL    HW260571   1.251  13.659   3.901
86247SOL     OW60572   2.471   2.234   7.666
86247SOL    HW160573   2.391   2.183   7.654
86247SOL    HW260574   2.458   2.312   7.613
86248SOL     OW60575   5.716   6.820   4.836
86248SOL    HW160576   5.802   6.821   4.794
86248SOL    HW260577   5.671   6.744   4.797
86249SOL     OW60578   6.404  13.882   8.221
86249SOL    HW160579   6.453  13.807   8.189
86249SOL    HW260580   6.471  13.946   8.244
86250SOL     OW60581  11.539  11.008   4.217
86250SOL    HW160582  11.603  11.027   4.148
86250SOL    HW260583  11.514  10.917   4.201
86251SOL     OW60584   0.454  14.131  14.876
86251SOL    HW160585   0.438  14.053  14.823
86251SOL    HW260586   0.368  14.154   0.030
86252SOL     OW60587   1.375   0.723  11.699
86252SOL    HW160588   1.445   0.787  11.692
86252SOL    HW260589   1.413   0.642  11.664
86253SOL     OW60590   1.817  10.267   9.405
86253SOL    HW160591   1.729  10.231   9.417
86253SOL    HW260592   1.868  10.194   9.369
86254SOL     OW60593  14.287   4.125  13.327
86254SOL    HW160594  14.368   4.145  13.280
86254SOL    HW260595  14.239   4.066  13.269
86255SOL     OW60596  13.814  13.619  12.037
86255SOL    HW160597  13.780  13.587  11.954
86255SOL    HW260598  13.905  13.587  12.039
86256SOL     OW60599   1.107   4.806   6.082
86256SOL    HW160600   1.172   4.757   6.133
86256SOL    HW260601   1.078   4.744   6.015
86257SOL     OW60602  13.796   4.131   6.768
86257SOL    HW160603  13.843   4.164   6.844
86257SOL    HW260604  13.809   4.036   6.771
86258SOL     OW60605  12.834  11.949  12.033
86258SOL    HW160606  12.772  11.920  11.966
86258SOL    HW260607  12.783  12.008  12.089
86259SOL     OW60608  11.189   3.965   0.158
86259SOL    HW160609  11.098   3.971   0.187
86259SOL    HW260610  11.235   3.921   0.229
86260SOL     OW60611   2.321   9.018   0.858
86260SOL    HW160612   2.265   8.968   0.799
86260SOL    HW260613   2.407   8.978   0.850
86261SOL     OW60614  14.161   4.183  10.712
86261SOL    HW160615  14.087   4.172  10.652
86261SOL    HW260616  14.145   4.120  10.781
86262SOL     OW60617   3.470  10.170   3.322
86262SOL    HW160618   3.455  10.196   3.413
86262SOL    HW260619   3.538  10.231   3.291
86263SOL     OW60620   9.107  14.673  10.716
86263SOL    HW160621   9.154  14.658  10.798
86263SOL    HW260622   9.134  14.600  10.659
86264SOL     OW60623   8.567  12.001  10.903
86264SOL    HW160624   8.493  11.979  10.847
86264SOL    HW260625   8.643  11.965  10.857
86265SOL     OW60626   0.593   5.269  13.454
86265SOL    HW160627   0.654   5.217  13.401
86265SOL    HW260628   0.621   5.359  13.440
86266SOL     OW60629  10.298   0.681  10.032
86266SOL    HW160630  10.298   0.673   9.936
86266SOL    HW260631  10.336   0.598  10.062
86267SOL     OW60632   2.840   9.083   1.228
86267SOL    HW160633   2.852   9.003   1.176
86267SOL    HW260634   2.830   9.152   1.162
86268SOL     OW60635   1.262  14.429   4.290
86268SOL    HW160636   1.249  14.368   4.362
86268SOL    HW260637   1.340  14.396   4.245
86269SOL     OW60638  12.849   6.829   6.741
86269SOL    HW160639  12.842   6.803   6.649
86269SOL    HW260640  12.929   6.788   6.772
86270SOL     OW60641   9.372  13.847   6.470
86270SOL    HW160642   9.356  13.902   6.547
86270SOL    HW260643   9.311  13.775   6.478
86271SOL     OW60644   1.612  11.392   6.258
86271SOL    HW160645   1.693  11.397   6.308
86271SOL    HW260646   1.600  11.480   6.223
86272SOL     OW60647   4.218  14.727  10.394
86272SOL    HW160648   4.232  14.792  10.326
86272SOL    HW260649   4.306  14.705  10.425
86273SOL     OW60650   7.083  10.422   9.814
86273SOL    HW160651   7.157  10.391   9.760
86273SOL    HW260652   7.061  10.347   9.869
86274SOL     OW60653  14.657   4.582   3.056
86274SOL    HW160654  14.574   4.628   3.061
86274SOL    HW260655  14.714   4.640   3.006
86275SOL     OW60656  10.479  14.174   5.512
86275SOL    HW160657  10.402  14.210   5.469
86275SOL    HW260658  10.443  14.111   5.575
86276SOL     OW60659   6.032   9.948   8.739
86276SOL    HW160660   5.976   9.899   8.799
86276SOL    HW260661   6.101   9.886   8.714
86277SOL     OW60662  14.380  14.340   0.863
86277SOL    HW160663  14.349  14.305   0.947
86277SOL    HW260664  14.313  14.314   0.800
86278SOL     OW60665  11.217   1.980   7.078
86278SOL    HW160666  11.202   2.016   7.166
86278SOL    HW260667  11.152   1.910   7.069
86279SOL     OW60668  14.512   3.286   1.947
86279SOL    HW160669  14.502   3.254   2.036
86279SOL    HW260670  14.439   3.247   1.899
86280SOL     OW60671   8.779   5.779   8.480
86280SOL    HW160672   8.840   5.795   8.552
86280SOL    HW260673   8.729   5.860   8.474
86281SOL     OW60674   7.055  12.990   6.250
86281SOL    HW160675   7.133  12.981   6.195
86281SOL    HW260676   7.019  13.076   6.229
86282SOL     OW60677   2.299   4.711   1.205
86282SOL    HW160678   2.251   4.793   1.199
86282SOL    HW260679   2.353   4.721   1.283
86283SOL     OW60680   7.077   2.996   3.671
86283SOL    HW160681   7.142   2.956   3.614
86283SOL    HW260682   7.119   3.000   3.757
86284SOL     OW60683   2.792   7.607   8.194
86284SOL    HW160684   2.851   7.535   8.217
86284SOL    HW260685   2.752   7.580   8.112
86285SOL     OW60686   8.270   6.772   4.047
86285SOL    HW160687   8.272   6.749   3.954
86285SOL    HW260688   8.183   6.744   4.076
86286SOL     OW60689   8.332  13.144   0.584
86286SOL    HW160690   8.422  13.154   0.554
86286SOL    HW260691   8.336  13.160   0.678
86287SOL     OW60692   5.644   9.867   8.517
86287SOL    HW160693   5.644   9.932   8.446
86287SOL    HW260694   5.722   9.815   8.502
86288SOL     OW60695   8.066   7.291   4.438
86288SOL    HW160696   8.102   7.225   4.379
86288SOL    HW260697   8.052   7.244   4.520
86289SOL     OW60698   2.222  11.126  12.093
86289SOL    HW160699   2.243  11.033  12.094
86289SOL    HW260700   2.289  11.165  12.037
86290SOL     OW60701  13.459   4.048  12.938
86290SOL    HW160702  13.508   4.116  12.891
86290SOL    HW260703  13.507   3.967  12.919
86291SOL     OW60704  11.111   2.746   0.168
86291SOL    HW160705  11.070   2.661   0.188
86291SOL    HW260706  11.087   2.763   0.077
86292SOL     OW60707  10.059   0.648   6.197
86292SOL    HW160708  10.109   0.704   6.256
86292SOL    HW260709   9.967   0.666   6.219
86293SOL     OW60710   9.416   5.967   6.502
86293SOL    HW160711   9.364   5.889   6.483
86293SOL    HW260712   9.400   5.986   6.594
86294SOL     OW60713   8.090   7.215   7.305
86294SOL    HW160714   8.086   7.162   7.384
86294SOL    HW260715   8.021   7.280   7.316
86295SOL     OW60716   7.091   4.441  10.382
86295SOL    HW160717   7.118   4.532  10.397
86295SOL    HW260718   7.092   4.431  10.287
86296SOL     OW60719   1.902   9.913  10.542
86296SOL    HW160720   1.870   9.999  10.516
86296SOL    HW260721   1.829   9.854  10.525
86297SOL     OW60722   3.102   4.670   1.414
86297SOL    HW160723   3.119   4.659   1.507
86297SOL    HW260724   3.040   4.742   1.409
86298SOL     OW60725   1.832   5.479   0.799
86298SOL    HW160726   1.902   5.470   0.863
86298SOL    HW260727   1.819   5.574   0.791
86299SOL     OW60728   3.644   8.141   6.003
86299SOL    HW160729   3.678   8.052   5.992
86299SOL    HW260730   3.679   8.170   6.088
86300SOL     OW60731   5.169   8.904   8.488
86300SOL    HW160732   5.123   8.820   8.494
86300SOL    HW260733   5.105   8.964   8.450
86301SOL     OW60734   8.472   9.148   5.377
86301SOL    HW160735   8.482   9.141   5.282
86301SOL    HW260736   8.404   9.084   5.399
86302SOL     OW60737  11.848  13.359  11.993
86302SOL    HW160738  11.840  13.442  12.041
86302SOL    HW260739  11.768  13.311  12.014
86303SOL     OW60740   6.571  11.262  10.682
86303SOL    HW160741   6.521  11.190  10.644
86303SOL    HW260742   6.663  11.235  10.673
86304SOL     OW60743   7.654   2.595  10.636
86304SOL    HW160744   7.589   2.635  10.693
86304SOL    HW260745   7.738   2.627  10.669
86305SOL     OW60746   3.258   3.111   4.790
86305SOL    HW160747   3.311   3.106   4.869
86305SOL    HW260748   3.275   3.198   4.754
86306SOL     OW60749  12.409  13.093  11.763
86306SOL    HW160750  12.340  13.085  11.829
86306SOL    HW260751  12.427  13.003  11.736
86307SOL     OW60752   5.933   0.488   9.934
86307SOL    HW160753   5.926   0.556   9.867
86307SOL    HW260754   6.020   0.501   9.972
86308SOL     OW60755  11.075   9.476   9.700
86308SOL    HW160756  10.981   9.483   9.718
86308SOL    HW260757  11.101   9.394   9.742
86309SOL     OW60758   3.314   5.240   2.024
86309SOL    HW160759   3.335   5.318   1.974
86309SOL    HW260760   3.351   5.256   2.111
86310SOL     OW60761   9.419   6.934   2.454
86310SOL    HW160762   9.464   6.855   2.424
86310SOL    HW260763   9.330   6.925   2.420
86311SOL     OW60764   1.894  12.921   3.240
86311SOL    HW160765   1.914  12.983   3.311
86311SOL    HW260766   1.962  12.937   3.175
86312SOL     OW60767   1.468  10.400   0.838
86312SOL    HW160768   1.465  10.305   0.825
86312SOL    HW260769   1.506  10.433   0.757
86313SOL     OW60770  12.624   9.797  14.667
86313SOL    HW160771  12.563   9.734  14.630
86313SOL    HW260772  12.597   9.881  14.631
86314SOL     OW60773   3.921  14.049   2.624
86314SOL    HW160774   4.011  14.073   2.601
86314SOL    HW260775   3.899  14.106   2.697
86315SOL     OW60776   6.947   2.328   9.328
86315SOL    HW160777   7.036   2.361   9.337
86315SOL    HW260778   6.901   2.395   9.278
86316SOL     OW60779   8.651   5.396   1.412
86316SOL    HW160780   8.599   5.320   1.437
86316SOL    HW260781   8.741   5.371   1.433
86317SOL     OW60782  10.308   4.530   5.229
86317SOL    HW160783  10.381   4.478   5.196
86317SOL    HW260784  10.280   4.484   5.308
86318SOL     OW60785  13.496   3.209   5.805
86318SOL    HW160786  13.429   3.270   5.773
86318SOL    HW260787  13.463   3.179   5.889
86319SOL     OW60788  12.641  13.625  10.112
86319SOL    HW160789  12.569  13.663  10.161
86319SOL    HW260790  12.713  13.687  10.124
86320SOL     OW60791  11.607   0.076   0.554
86320SOL    HW160792  11.639   0.163   0.527
86320SOL    HW260793  11.605   0.026   0.473
86321SOL     OW60794   9.458   0.762   6.787
86321SOL    HW160795   9.440   0.674   6.755
86321SOL    HW260796   9.554   0.769   6.786
86322SOL     OW60797  14.814   2.380   9.616
86322SOL    HW160798  14.873   2.406   9.687
86322SOL    HW260799  14.754   2.318   9.657
86323SOL     OW60800   2.894   0.570   7.001
86323SOL    HW160801   2.877   0.630   6.929
86323SOL    HW260802   2.981   0.534   6.984
86324SOL     OW60803   5.777  11.560   5.004
86324SOL    HW160804   5.860  11.602   5.026
86324SOL    HW260805   5.720  11.632   4.977
86325SOL     OW60806  10.212   7.818   3.554
86325SOL    HW160807  10.270   7.847   3.484
86325SOL    HW260808  10.254   7.739   3.588
86326SOL     OW60809   0.924   5.227   8.914
86326SOL    HW160810   0.844   5.198   8.870
86326SOL    HW260811   0.994   5.207   8.852
86327SOL     OW60812  11.722   8.438  10.562
86327SOL    HW160813  11.645   8.487  10.532
86327SOL    HW260814  11.717   8.355  10.515
86328SOL     OW60815   0.619   5.029  14.365
86328SOL    HW160816   0.665   5.068  14.291
86328SOL    HW260817   0.685   4.975  14.408
86329SOL     OW60818   6.774  11.984   6.196
86329SOL    HW160819   6.851  11.934   6.168
86329SOL    HW260820   6.804  12.035   6.271
86330SOL     OW60821   9.740   9.460   2.046
86330SOL    HW160822   9.711   9.548   2.019
86330SOL    HW260823   9.836   9.463   2.038
86331SOL     OW60824  13.281   3.877   3.665
86331SOL    HW160825  13.301   3.970   3.656
86331SOL    HW260826  13.185   3.873   3.662
86332SOL     OW60827  11.917  12.072  10.977
86332SOL    HW160828  11.890  12.148  10.925
86332SOL    HW260829  11.874  12.084  11.061
86333SOL     OW60830   5.741   8.186   7.584
86333SOL    HW160831   5.699   8.258   7.633
86333SOL    HW260832   5.833   8.211   7.580
86334SOL     OW60833   4.675  13.682   1.721
86334SOL    HW160834   4.628  13.692   1.804
86334SOL    HW260835   4.695  13.588   1.716
86335SOL     OW60836   6.990   1.937   2.422
86335SOL    HW160837   6.913   1.978   2.383
86335SOL    HW260838   7.060   1.951   2.359
86336SOL     OW60839  14.612   9.904   5.542
86336SOL    HW160840  14.529   9.934   5.579
86336SOL    HW260841  14.594   9.887   5.450
86337SOL     OW60842  14.678  12.813   0.023
86337SOL    HW160843  14.637  12.798   0.108
86337SOL    HW260844  14.605  12.808  14.843
86338SOL     OW60845  12.392  13.597   8.601
86338SOL    HW160846  12.447  13.675   8.606
86338SOL    HW260847  12.348  13.594   8.686
86339SOL     OW60848  13.376  13.110   9.874
86339SOL    HW160849  13.357  13.167   9.949
86339SOL    HW260850  13.454  13.149   9.834
86340SOL     OW60851  11.704  14.792   0.788
86340SOL    HW160852  11.678  14.699   0.784
86340SOL    HW260853  11.646  14.835   0.724
86341SOL     OW60854  13.286  10.464  11.887
86341SOL    HW160855  13.287  10.516  11.967
86341SOL    HW260856  13.194  10.460  11.862
86342SOL     OW60857   1.867  10.179   8.774
86342SOL    HW160858   1.959  10.158   8.788
86342SOL    HW260859   1.820  10.101   8.804
86343SOL     OW60860  12.650   4.732  14.608
86343SOL    HW160861  12.628   4.817  14.645
86343SOL    HW260862  12.689   4.753  14.523
86344SOL     OW60863   6.993   8.779   8.125
86344SOL    HW160864   6.926   8.756   8.188
86344SOL    HW260865   7.042   8.850   8.166
86345SOL     OW60866  10.514   9.942   2.850
86345SOL    HW160867  10.538   9.855   2.820
86345SOL    HW260868  10.592   9.974   2.897
86346SOL     OW60869  11.508   6.980   6.156
86346SOL    HW160870  11.507   6.937   6.241
86346SOL    HW260871  11.515   6.909   6.093
86347SOL     OW60872   7.579   8.337  12.572
86347SOL    HW160873   7.673   8.354  12.574
86347SOL    HW260874   7.539   8.424  12.574
86348SOL     OW60875   8.576  13.260   6.197
86348SOL    HW160876   8.641  13.251   6.266
86348SOL    HW260877   8.500  13.298   6.240
86349SOL     OW60878   4.221  10.318   6.541
86349SOL    HW160879   4.289  10.295   6.604
86349SOL    HW260880   4.177  10.235   6.521
86350SOL     OW60881   6.656   5.499   1.372
86350SOL    HW160882   6.583   5.521   1.313
86350SOL    HW260883   6.656   5.403   1.374
86351SOL     OW60884   8.180   5.994  13.827
86351SOL    HW160885   8.197   5.954  13.912
86351SOL    HW260886   8.236   6.072  13.826
86352SOL     OW60887   1.589   3.111   1.914
86352SOL    HW160888   1.656   3.072   1.858
86352SOL    HW260889   1.617   3.091   2.003
86353SOL     OW60890  14.570   8.551  12.909
86353SOL    HW160891  14.587   8.553  13.003
86353SOL    HW260892  14.654   8.524  12.870
86354SOL     OW60893  10.809   5.791  14.383
86354SOL    HW160894  10.895   5.774  14.344
86354SOL    HW260895  10.762   5.708  14.375
86355SOL     OW60896   7.632   4.673   9.635
86355SOL    HW160897   7.594   4.749   9.678
86355SOL    HW260898   7.701   4.644   9.694
86356SOL     OW60899   6.859  14.111  10.107
86356SOL    HW160900   6.945  14.133  10.143
86356SOL    HW260901   6.878  14.081  10.018
86357SOL     OW60902  12.821   7.243   8.536
86357SOL    HW160903  12.892   7.194   8.496
86357SOL    HW260904  12.857   7.272   8.621
86358SOL     OW60905   2.402   1.286   4.777
86358SOL    HW160906   2.429   1.359   4.722
86358SOL    HW260907   2.474   1.273   4.838
86359SOL     OW60908   3.707   2.121   8.423
86359SOL    HW160909   3.681   2.036   8.458
86359SOL    HW260910   3.667   2.123   8.336
86360SOL     OW60911  13.137   5.807   8.742
86360SOL    HW160912  13.172   5.827   8.655
86360SOL    HW260913  13.197   5.743   8.779
86361SOL     OW60914   1.523   9.302   0.458
86361SOL    HW160915   1.617   9.287   0.466
86361SOL    HW260916   1.505   9.374   0.518
86362SOL     OW60917   8.412  14.277   1.873
86362SOL    HW160918   8.333  14.258   1.822
86362SOL    HW260919   8.400  14.367   1.901
86363SOL     OW60920   1.604   3.923   7.100
86363SOL    HW160921   1.531   3.862   7.093
86363SOL    HW260922   1.563   4.007   7.121
86364SOL     OW60923  10.534   8.432   8.778
86364SOL    HW160924  10.470   8.483   8.729
86364SOL    HW260925  10.525   8.463   8.868
86365SOL     OW60926   9.867   1.983   3.666
86365SOL    HW160927   9.835   2.062   3.710
86365SOL    HW260928   9.857   1.914   3.732
86366SOL     OW60929   5.559   7.236   3.341
86366SOL    HW160930   5.636   7.222   3.286
86366SOL    HW260931   5.587   7.212   3.429
86367SOL     OW60932  12.718   1.056   8.560
86367SOL    HW160933  12.779   1.014   8.500
86367SOL    HW260934  12.723   1.004   8.640
86368SOL     OW60935   4.204   8.031   7.335
86368SOL    HW160936   4.284   8.064   7.293
86368SOL    HW260937   4.169   8.108   7.381
86369SOL     OW60938   0.404  13.717  13.979
86369SOL    HW160939   0.378  13.660  13.907
86369SOL    HW260940   0.467  13.666  14.029
86370SOL     OW60941   1.888   1.209   6.672
86370SOL    HW160942   1.897   1.174   6.584
86370SOL    HW260943   1.977   1.206   6.709
86371SOL     OW60944   8.219  12.841  12.098
86371SOL    HW160945   8.307  12.877  12.100
86371SOL    HW260946   8.230  12.753  12.063
86372SOL     OW60947   3.729  11.777   0.536
86372SOL    HW160948   3.774  11.852   0.497
86372SOL    HW260949   3.701  11.724   0.462
86373SOL     OW60950  10.037  12.578  11.027
86373SOL    HW160951  10.124  12.564  11.065
86373SOL    HW260952   9.981  12.516  11.075
86374SOL     OW60953  14.378   7.031  13.291
86374SOL    HW160954  14.375   7.110  13.236
86374SOL    HW260955  14.427   6.967  13.238
86375SOL     OW60956   2.446   8.532   2.443
86375SOL    HW160957   2.536   8.525   2.473
86375SOL    HW260958   2.393   8.516   2.521
86376SOL     OW60959   1.432  12.898   8.341
86376SOL    HW160960   1.402  12.822   8.391
86376SOL    HW260961   1.427  12.870   8.249
86377SOL     OW60962   6.489   6.740   7.788
86377SOL    HW160963   6.442   6.822   7.803
86377SOL    HW260964   6.542   6.757   7.710
86378SOL     OW60965   5.737  14.606   9.196
86378SOL    HW160966   5.659  14.580   9.246
86378SOL    HW260967   5.792  14.528   9.195
86379SOL     OW60968   5.274   2.288   1.942
86379SOL    HW160969   5.215   2.237   1.998
86379SOL    HW260970   5.301   2.361   1.997
86380SOL     OW60971   5.208   8.060   7.407
86380SOL    HW160972   5.300   8.042   7.387
86380SOL    HW260973   5.202   8.156   7.408
86381SOL     OW60974   4.266  11.372  12.504
86381SOL    HW160975   4.290  11.283  12.530
86381SOL    HW260976   4.299  11.380  12.414
86382SOL     OW60977   6.056   5.344  11.420
86382SOL    HW160978   5.981   5.341  11.361
86382SOL    HW260979   6.029   5.291  11.496
86383SOL     OW60980  10.311   9.096   2.919
86383SOL    HW160981  10.324   9.158   2.848
86383SOL    HW260982  10.387   9.039   2.916
86384SOL     OW60983   2.590   7.808   2.968
86384SOL    HW160984   2.625   7.733   3.016
86384SOL    HW260985   2.603   7.882   3.026
86385SOL     OW60986  14.086   9.436   1.230
86385SOL    HW160987  14.072   9.405   1.140
86385SOL    HW260988  14.180   9.425   1.245
86386SOL     OW60989  14.572   5.770  11.160
86386SOL    HW160990  14.505   5.788  11.093
86386SOL    HW260991  14.574   5.848  11.214
86387SOL     OW60992   5.663   8.197   5.285
86387SOL    HW160993   5.600   8.152   5.228
86387SOL    HW260994   5.748   8.165   5.257
86388SOL     OW60995  10.355   5.766   9.847
86388SOL    HW160996  10.300   5.688   9.846
86388SOL    HW260997  10.295   5.838   9.865
86389SOL     OW60998  10.488  13.102   9.295
86389SOL    HW160999  10.480  13.023   9.240
86389SOL    HW261000  10.439  13.169   9.247
86390SOL     OW61001  14.773   8.193   9.336
86390SOL    HW161002  14.767   8.140   9.416
86390SOL    HW261003  14.860   8.234   9.340
86391SOL     OW61004  11.067   2.330   1.701
86391SOL    HW161005  11.004   2.311   1.631
86391SOL    HW261006  11.036   2.276   1.775
86392SOL     OW61007   4.081   2.286   9.669
86392SOL    HW161008   4.110   2.247   9.751
86392SOL    HW261009   3.997   2.328   9.690
86393SOL     OW61010   7.845   8.821   7.333
86393SOL    HW161011   7.807   8.795   7.249
86393SOL    HW261012   7.873   8.739   7.373
86394SOL     OW61013  12.818   2.812  13.533
86394SOL    HW161014  12.872   2.856  13.598
86394SOL    HW261015  12.848   2.846  13.449
86395SOL     OW61016   9.982  10.613   7.099
86395SOL    HW161017   9.991  10.572   7.013
86395SOL    HW261018   9.919  10.557   7.145
86396SOL     OW61019   3.489   4.544  12.153
86396SOL    HW161020   3.552   4.542  12.225
86396SOL    HW261021   3.542   4.530  12.074
86397SOL     OW61022   6.018   4.650   7.843
86397SOL    HW161023   6.109   4.629   7.865
86397SOL    HW261024   6.006   4.612   7.756
86398SOL     OW61025  14.442   6.173  12.648
86398SOL    HW161026  14.523   6.176  12.597
86398SOL    HW261027  14.382   6.231  12.600
86399SOL     OW61028   7.297  11.479  13.882
86399SOL    HW161029   7.284  11.455  13.974
86399SOL    HW261030   7.253  11.409  13.833
86400SOL     OW61031   8.893   4.981  14.438
86400SOL    HW161032   8.980   4.976  14.398
86400SOL    HW261033   8.908   5.020  14.524
86401SOL     OW61034   4.544   0.140  14.559
86401SOL    HW161035   4.504   0.187  14.632
86401SOL    HW261036   4.622   0.099  14.597
86402SOL     OW61037   0.724   3.836   2.818
86402SOL    HW161038   0.705   3.762   2.760
86402SOL    HW261039   0.640   3.878   2.831
86403SOL     OW61040   9.767  11.184   1.785
86403SOL    HW161041   9.762  11.208   1.692
86403SOL    HW261042   9.846  11.131   1.792
86404SOL     OW61043   3.788   4.627   4.655
86404SOL    HW161044   3.803   4.694   4.588
86404SOL    HW261045   3.775   4.677   4.736
86405SOL     OW61046  11.856   0.592   7.320
86405SOL    HW161047  11.842   0.498   7.317
86405SOL    HW261048  11.788   0.625   7.379
86406SOL     OW61049   3.296   2.106   9.362
86406SOL    HW161050   3.290   2.035   9.298
86406SOL    HW261051   3.249   2.072   9.439
86407SOL     OW61052   2.065  12.430   2.766
86407SOL    HW161053   1.978  12.436   2.807
86407SOL    HW261054   2.099  12.519   2.771
86408SOL     OW61055   6.329   4.596   5.498
86408SOL    HW161056   6.248   4.643   5.481
86408SOL    HW261057   6.365   4.637   5.576
86409SOL     OW61058  11.926  14.178  13.404
86409SOL    HW161059  11.875  14.247  13.362
86409SOL    HW261060  12.016  14.194  13.375
86410SOL     OW61061   8.768   7.589   0.398
86410SOL    HW161062   8.738   7.569   0.487
86410SOL    HW261063   8.827   7.517   0.376
86411SOL     OW61064   6.312   1.734   1.620
86411SOL    HW161065   6.250   1.804   1.638
86411SOL    HW261066   6.392   1.779   1.592
86412SOL     OW61067  13.862   8.710   7.127
86412SOL    HW161068  13.846   8.799   7.095
86412SOL    HW261069  13.946   8.685   7.088
86413SOL     OW61070   0.612   3.878   7.605
86413SOL    HW161071   0.586   3.833   7.685
86413SOL    HW261072   0.543   3.944   7.592
86414SOL     OW61073   4.748   5.623   0.965
86414SOL    HW161074   4.809   5.691   0.937
86414SOL    HW261075   4.702   5.661   1.040
86415SOL     OW61076   4.538   8.261   9.672
86415SOL    HW161077   4.506   8.253   9.582
86415SOL    HW261078   4.484   8.330   9.710
86416SOL     OW61079   7.091   3.359   0.630
86416SOL    HW161080   7.100   3.282   0.686
86416SOL    HW261081   7.145   3.339   0.553
86417SOL     OW61082   3.653   7.982  14.130
86417SOL    HW161083   3.629   7.919  14.062
86417SOL    HW261084   3.711   7.933  14.189
86418SOL     OW61085   9.120   4.050  13.712
86418SOL    HW161086   9.189   4.005  13.662
86418SOL    HW261087   9.048   4.060  13.650
86419SOL     OW61088   4.869  12.488  14.074
86419SOL    HW161089   4.932  12.420  14.099
86419SOL    HW261090   4.791  12.469  14.126
86420SOL     OW61091  14.283  10.199   1.679
86420SOL    HW161092  14.281  10.216   1.773
86420SOL    HW261093  14.371  10.166   1.662
86421SOL     OW61094   0.326   8.013  13.515
86421SOL    HW161095   0.339   8.065  13.594
86421SOL    HW261096   0.236   8.032  13.488
86422SOL     OW61097  12.433   2.373   4.256
86422SOL    HW161098  12.514   2.399   4.211
86422SOL    HW261099  12.411   2.449   4.310
86423SOL     OW61100   3.908   3.606  12.692
86423SOL    HW161101   3.870   3.567  12.613
86423SOL    HW261102   3.999   3.576  12.693
86424SOL     OW61103   2.953   5.754   6.200
86424SOL    HW161104   3.035   5.798   6.223
86424SOL    HW261105   2.887   5.824   6.202
86425SOL     OW61106   7.105   5.009   3.712
86425SOL    HW161107   7.120   4.936   3.772
86425SOL    HW261108   7.141   5.085   3.757
86426SOL     OW61109  14.161   8.264   8.506
86426SOL    HW161110  14.140   8.247   8.415
86426SOL    HW261111  14.117   8.194   8.555
86427SOL     OW61112   8.552  10.575   2.251
86427SOL    HW161113   8.599  10.543   2.173
86427SOL    HW261114   8.603  10.651   2.279
86428SOL     OW61115   0.856   9.607  11.114
86428SOL    HW161116   0.762   9.605  11.132
86428SOL    HW261117   0.870   9.533  11.053
86429SOL     OW61118   0.587  10.113   7.605
86429SOL    HW161119   0.584  10.018   7.596
86429SOL    HW261120   0.678  10.132   7.631
86430SOL     OW61121   0.661   6.100  12.500
86430SOL    HW161122   0.731   6.164  12.514
86430SOL    HW261123   0.593   6.148  12.453
86431SOL     OW61124   3.962   6.969  12.935
86431SOL    HW161125   3.965   7.053  12.890
86431SOL    HW261126   4.002   6.987  13.021
86432SOL     OW61127  11.404   3.706   2.876
86432SOL    HW161128  11.493   3.738   2.890
86432SOL    HW261129  11.365   3.705   2.964
86433SOL     OW61130   0.241   1.312   3.101
86433SOL    HW161131   0.217   1.371   3.029
86433SOL    HW261132   0.316   1.262   3.067
86434SOL     OW61133   8.993   7.647   2.308
86434SOL    HW161134   8.968   7.555   2.303
86434SOL    HW261135   9.088   7.647   2.320
86435SOL     OW61136  10.487   7.134  12.313
86435SOL    HW161137  10.397   7.103  12.315
86435SOL    HW261138  10.532   7.080  12.379
86436SOL     OW61139  12.755   4.129   5.262
86436SOL    HW161140  12.691   4.156   5.327
86436SOL    HW261141  12.828   4.094   5.313
86437SOL     OW61142   0.015   5.239  13.748
86437SOL    HW161143  14.848   5.166  13.785
86437SOL    HW261144   0.033   5.297  13.822
86438SOL     OW61145   9.203   6.203   0.412
86438SOL    HW161146   9.200   6.121   0.363
86438SOL    HW261147   9.243   6.180   0.496
86439SOL     OW61148   7.286   0.238   4.112
86439SOL    HW161149   7.273   0.249   4.017
86439SOL    HW261150   7.382   0.241   4.123
86440SOL     OW61151   0.792   9.968   3.124
86440SOL    HW161152   0.738   9.906   3.172
86440SOL    HW261153   0.874   9.920   3.107
86441SOL     OW61154   0.099  10.354   2.594
86441SOL    HW161155   0.011  10.391   2.585
86441SOL    HW261156   0.136  10.359   2.506
86442SOL     OW61157  11.107   2.729   4.821
86442SOL    HW161158  11.068   2.816   4.812
86442SOL    HW261159  11.094   2.688   4.735
86443SOL     OW61160   1.088  11.472  11.365
86443SOL    HW161161   1.033  11.486  11.442
86443SOL    HW261162   1.146  11.400  11.390
86444SOL     OW61163   7.957   9.925   9.485
86444SOL    HW161164   8.022   9.992   9.465
86444SOL    HW261165   7.873   9.971   9.485
86445SOL     OW61166  12.252  12.502   7.265
86445SOL    HW161167  12.243  12.540   7.352
86445SOL    HW261168  12.286  12.414   7.281
86446SOL     OW61169   6.725   2.523  11.118
86446SOL    HW161170   6.715   2.500  11.211
86446SOL    HW261171   6.635   2.526  11.085
86447SOL     OW61172  14.427   9.335   2.527
86447SOL    HW161173  14.343   9.304   2.492
86447SOL    HW261174  14.439   9.284   2.607
86448SOL     OW61175  14.112  10.360   6.205
86448SOL    HW161176  14.112  10.316   6.290
86448SOL    HW261177  14.169  10.306   6.150
86449SOL     OW61178  11.516   0.875  13.397
86449SOL    HW161179  11.513   0.780  13.406
86449SOL    HW261180  11.528   0.907  13.487
86450SOL     OW61181  13.493  10.925  13.403
86450SOL    HW161182  13.403  10.956  13.411
86450SOL    HW261183  13.532  10.943  13.489
86451SOL     OW61184  11.350  13.498   3.669
86451SOL    HW161185  11.435  13.521   3.706
86451SOL    HW261186  11.291  13.494   3.745
86452SOL     OW61187   9.962  10.879   5.240
86452SOL    HW161188   9.883  10.930   5.259
86452SOL    HW261189  10.032  10.944   5.242
86453SOL     OW61190   3.603  14.713   7.060
86453SOL    HW161191   3.686  14.682   7.023
86453SOL    HW261192   3.570  14.638   7.110
86454SOL     OW61193   1.071   7.216   8.246
86454SOL    HW161194   1.091   7.210   8.340
86454SOL    HW261195   0.981   7.248   8.244
86455SOL     OW61196   2.611   0.945   0.855
86455SOL    HW161197   2.647   0.970   0.770
86455SOL    HW261198   2.623   1.022   0.910
86456SOL     OW61199  10.512   0.526   9.480
86456SOL    HW161200  10.603   0.498   9.482
86456SOL    HW261201  10.489   0.525   9.387
86457SOL     OW61202   4.801  11.180   2.665
86457SOL    HW161203   4.714  11.206   2.695
86457SOL    HW261204   4.862  11.225   2.724
86458SOL     OW61205   2.282   7.570   4.353
86458SOL    HW161206   2.348   7.589   4.419
86458SOL    HW261207   2.287   7.475   4.341
86459SOL     OW61208   3.048   4.496  10.732
86459SOL    HW161209   3.065   4.458  10.819
86459SOL    HW261210   3.043   4.590  10.748
86460SOL     OW61211   6.644   0.296   3.494
86460SOL    HW161212   6.590   0.376   3.494
86460SOL    HW261213   6.620   0.251   3.576
86461SOL     OW61214   7.906  10.124   9.848
86461SOL    HW161215   7.820  10.144   9.886
86461SOL    HW261216   7.921  10.193   9.784
86462SOL     OW61217   0.248   8.257   8.930
86462SOL    HW161218   0.311   8.314   8.974
86462SOL    HW261219   0.227   8.190   8.995
86463SOL     OW61220   6.979   3.251   1.690
86463SOL    HW161221   6.934   3.273   1.608
86463SOL    HW261222   6.909   3.243   1.754
86464SOL     OW61223  11.345   5.063   8.447
86464SOL    HW161224  11.343   4.968   8.433
86464SOL    HW261225  11.258   5.083   8.482
86465SOL     OW61226  10.519   9.219   4.357
86465SOL    HW161227  10.471   9.149   4.400
86465SOL    HW261228  10.537   9.282   4.427
86466SOL     OW61229   4.745  12.706   6.272
86466SOL    HW161230   4.730  12.789   6.227
86466SOL    HW261231   4.840  12.699   6.279
86467SOL     OW61232  13.323  13.464   5.620
86467SOL    HW161233  13.288  13.531   5.679
86467SOL    HW261234  13.374  13.406   5.675
86468SOL     OW61235   8.934   5.088   8.945
86468SOL    HW161236   8.865   5.073   8.880
86468SOL    HW261237   8.997   5.146   8.900
86469SOL     OW61238  13.075  11.303  14.877
86469SOL    HW161239  13.011  11.236   0.018
86469SOL    HW261240  13.079  11.301  14.781
86470SOL     OW61241  10.068  14.561  10.054
86470SOL    HW161242  10.150  14.605  10.029
86470SOL    HW261243  10.094  14.471  10.072
86471SOL     OW61244   8.921   7.195  10.243
86471SOL    HW161245   8.986   7.225  10.306
86471SOL    HW261246   8.949   7.107  10.218
86472SOL     OW61247  14.169   6.298   2.442
86472SOL    HW161248  14.112   6.343   2.503
86472SOL    HW261249  14.258   6.312   2.476
86473SOL     OW61250   3.050  10.817  11.921
86473SOL    HW161251   3.137  10.809  11.959
86473SOL    HW261252   3.000  10.745  11.960
86474SOL     OW61253   7.089  14.152   5.248
86474SOL    HW161254   6.996  14.147   5.270
86474SOL    HW261255   7.117  14.238   5.281
86475SOL     OW61256  12.485   3.482   9.740
86475SOL    HW161257  12.524   3.470   9.653
86475SOL    HW261258  12.534   3.423   9.797
86476SOL     OW61259   1.944   3.837   4.955
86476SOL    HW161260   1.970   3.778   5.025
86476SOL    HW261261   1.895   3.783   4.894
86477SOL     OW61262   0.407   4.835   6.923
86477SOL    HW161263   0.386   4.870   7.010
86477SOL    HW261264   0.388   4.741   6.930
86478SOL     OW61265  12.256  11.163  13.577
86478SOL    HW161266  12.331  11.217  13.602
86478SOL    HW261267  12.210  11.147  13.659
86479SOL     OW61268   7.806  12.568   5.041
86479SOL    HW161269   7.775  12.564   4.950
86479SOL    HW261270   7.762  12.496   5.085
86480SOL     OW61271   9.277   7.082   1.515
86480SOL    HW161272   9.289   7.051   1.605
86480SOL    HW261273   9.193   7.046   1.488
86481SOL     OW61274   2.105  11.284  10.367
86481SOL    HW161275   2.118  11.347  10.438
86481SOL    HW261276   2.017  11.300  10.335
86482SOL     OW61277   9.042   8.656   9.799
86482SOL    HW161278   9.052   8.751   9.795
86482SOL    HW261279   9.091   8.623   9.723
86483SOL     OW61280  12.331   0.660   1.466
86483SOL    HW161281  12.390   0.700   1.530
86483SOL    HW261282  12.387   0.606   1.411
86484SOL     OW61283   4.689   8.661   6.725
86484SOL    HW161284   4.697   8.690   6.634
86484SOL    HW261285   4.603   8.692   6.753
86485SOL     OW61286   9.851   5.098   4.772
86485SOL    HW161287   9.866   5.008   4.801
86485SOL    HW261288   9.778   5.129   4.825
86486SOL     OW61289   3.018  11.219   8.687
86486SOL    HW161290   2.969  11.153   8.638
86486SOL    HW261291   3.108  11.185   8.688
86487SOL     OW61292   2.429   8.597   1.638
86487SOL    HW161293   2.427   8.619   1.731
86487SOL    HW261294   2.358   8.649   1.599
86488SOL     OW61295  14.644  12.234   9.936
86488SOL    HW161296  14.633  12.185  10.017
86488SOL    HW261297  14.739  12.247   9.928
86489SOL     OW61298   5.182   1.910   1.345
86489SOL    HW161299   5.250   1.965   1.385
86489SOL    HW261300   5.230   1.837   1.307
86490SOL     OW61301  10.933   0.683  10.407
86490SOL    HW161302  10.859   0.624  10.419
86490SOL    HW261303  10.923   0.748  10.476
86491SOL     OW61304  13.340   2.408   1.793
86491SOL    HW161305  13.417   2.391   1.739
86491SOL    HW261306  13.270   2.356   1.753
86492SOL     OW61307  12.053   4.143   8.149
86492SOL    HW161308  12.128   4.126   8.092
86492SOL    HW261309  12.049   4.239   8.155
86493SOL     OW61310   1.822   8.227   3.246
86493SOL    HW161311   1.876   8.275   3.183
86493SOL    HW261312   1.846   8.264   3.331
86494SOL     OW61313   2.716  13.909   0.102
86494SOL    HW161314   2.731  13.967   0.027
86494SOL    HW261315   2.801  13.870   0.120
86495SOL     OW61316  11.056   2.570   3.214
86495SOL    HW161317  11.060   2.520   3.295
86495SOL    HW261318  10.971   2.547   3.175
86496SOL     OW61319   6.660   4.099   0.220
86496SOL    HW161320   6.748   4.068   0.197
86496SOL    HW261321   6.627   4.141   0.141
86497SOL     OW61322   5.532  11.160   8.221
86497SOL    HW161323   5.546  11.070   8.193
86497SOL    HW261324   5.614  11.184   8.264
86498SOL     OW61325   6.541  10.056   7.530
86498SOL    HW161326   6.553  10.110   7.607
86498SOL    HW261327   6.480  10.106   7.475
86499SOL     OW61328  12.845   9.798   2.669
86499SOL    HW161329  12.922   9.825   2.620
86499SOL    HW261330  12.833   9.866   2.735
86500SOL     OW61331  11.370   8.955  12.360
86500SOL    HW161332  11.444   8.928  12.306
86500SOL    HW261333  11.323   9.019  12.307
86501SOL     OW61334   8.076  14.256  11.719
86501SOL    HW161335   7.993  14.209  11.708
86501SOL    HW261336   8.069  14.296  11.806
86502SOL     OW61337  12.349   2.673   9.670
86502SOL    HW161338  12.291   2.748   9.657
86502SOL    HW261339  12.300   2.615   9.729
86503SOL     OW61340   7.591  14.647  10.930
86503SOL    HW161341   7.554  14.630  10.843
86503SOL    HW261342   7.681  14.616  10.924
86504SOL     OW61343  13.830  12.523   5.842
86504SOL    HW161344  13.824  12.569   5.759
86504SOL    HW261345  13.739  12.514   5.871
86505SOL     OW61346  10.622  10.146   4.728
86505SOL    HW161347  10.548  10.117   4.781
86505SOL    HW261348  10.698  10.138   4.786
86506SOL     OW61349   1.379  10.162   8.112
86506SOL    HW161350   1.314  10.093   8.095
86506SOL    HW261351   1.439  10.157   8.038
86507SOL     OW61352   9.086   5.226   8.772
86507SOL    HW161353   9.179   5.247   8.758
86507SOL    HW261354   9.039   5.288   8.717
86508SOL     OW61355  12.599   1.003   4.631
86508SOL    HW161356  12.580   1.022   4.539
86508SOL    HW261357  12.515   0.975   4.667
86509SOL     OW61358   8.242   0.043   4.806
86509SOL    HW161359   8.174   0.037   4.739
86509SOL    HW261360   8.200   0.012   4.886
86510SOL     OW61361  13.606  14.699   2.499
86510SOL    HW161362  13.608  14.746   2.416
86510SOL    HW261363  13.562  14.616   2.479
86511SOL     OW61364   2.621   1.286   4.948
86511SOL    HW161365   2.567   1.335   5.010
86511SOL    HW261366   2.707   1.327   4.953
86512SOL     OW61367   1.330   6.468  11.357
86512SOL    HW161368   1.426   6.468  11.360
86512SOL    HW261369   1.307   6.380  11.326
86513SOL     OW61370  14.289   5.285   4.744
86513SOL    HW161371  14.290   5.304   4.650
86513SOL    HW261372  14.271   5.369   4.785
86514SOL     OW61373   3.023   1.963   6.702
86514SOL    HW161374   3.084   1.890   6.713
86514SOL    HW261375   3.023   1.981   6.608
86515SOL     OW61376   0.263   1.570  14.122
86515SOL    HW161377   0.186   1.626  14.136
86515SOL    HW261378   0.281   1.532  14.208
86516SOL     OW61379   8.459   7.158  12.773
86516SOL    HW161380   8.481   7.071  12.806
86516SOL    HW261381   8.382   7.143  12.717
86517SOL     OW61382  13.059  13.502   4.454
86517SOL    HW161383  13.110  13.464   4.525
86517SOL    HW261384  12.973  13.460   4.461
86518SOL     OW61385   0.275   3.349   6.928
86518SOL    HW161386   0.299   3.441   6.917
86518SOL    HW261387   0.186   3.343   6.893
86519SOL     OW61388  11.053   4.031  10.048
86519SOL    HW161389  11.086   4.066  10.130
86519SOL    HW261390  10.994   3.960  10.074
86520SOL     OW61391  11.480  12.640  12.939
86520SOL    HW161392  11.565  12.637  12.983
86520SOL    HW261393  11.462  12.733  12.926
86521SOL     OW61394   4.505   4.465   5.876
86521SOL    HW161395   4.443   4.536   5.857
86521SOL    HW261396   4.470   4.425   5.956
86522SOL     OW61397   7.489   8.213  12.339
86522SOL    HW161398   7.526   8.238  12.423
86522SOL    HW261399   7.436   8.135  12.358
86523SOL     OW61400  10.726   2.013  13.034
86523SOL    HW161401  10.753   2.059  13.113
86523SOL    HW261402  10.730   1.920  13.057
86524SOL     OW61403   2.185  13.527   6.899
86524SOL    HW161404   2.272  13.491   6.882
86524SOL    HW261405   2.150  13.474   6.971
86525SOL     OW61406   0.343   7.756   0.504
86525SOL    HW161407   0.358   7.840   0.461
86525SOL    HW261408   0.391   7.763   0.587
86526SOL     OW61409  10.519   7.958   2.103
86526SOL    HW161410  10.485   8.002   2.182
86526SOL    HW261411  10.597   7.913   2.133
86527SOL     OW61412   8.337  12.306   6.708
86527SOL    HW161413   8.365  12.268   6.791
86527SOL    HW261414   8.376  12.250   6.641
86528SOL     OW61415   1.929   3.598  13.593
86528SOL    HW161416   2.006   3.569  13.641
86528SOL    HW261417   1.913   3.528  13.529
86529SOL     OW61418   0.881   8.177  10.860
86529SOL    HW161419   0.930   8.210  10.936
86529SOL    HW261420   0.928   8.097  10.835
86530SOL     OW61421   3.464   9.397   6.866
86530SOL    HW161422   3.448   9.322   6.809
86530SOL    HW261423   3.376   9.430   6.887
86531SOL     OW61424   7.555   2.624   5.543
86531SOL    HW161425   7.556   2.566   5.467
86531SOL    HW261426   7.600   2.703   5.513
86532SOL     OW61427  11.298  10.616   9.924
86532SOL    HW161428  11.307  10.702   9.881
86532SOL    HW261429  11.270  10.557   9.853
86533SOL     OW61430  11.489   3.282   8.801
86533SOL    HW161431  11.472   3.231   8.722
86533SOL    HW261432  11.532   3.361   8.770
86534SOL     OW61433   0.537   8.765   7.972
86534SOL    HW161434   0.470   8.808   7.919
86534SOL    HW261435   0.552   8.682   7.927
86535SOL     OW61436   4.973   6.529   6.269
86535SOL    HW161437   4.951   6.462   6.334
86535SOL    HW261438   5.049   6.574   6.306
86536SOL     OW61439   3.307  12.311  13.787
86536SOL    HW161440   3.347  12.272  13.710
86536SOL    HW261441   3.215  12.287  13.781
86537SOL     OW61442   4.616   3.788   5.505
86537SOL    HW161443   4.666   3.856   5.461
86537SOL    HW261444   4.682   3.723   5.530
86538SOL     OW61445   3.190   7.107   2.040
86538SOL    HW161446   3.286   7.105   2.039
86538SOL    HW261447   3.166   7.033   2.097
86539SOL     OW61448  14.001   6.745   6.996
86539SOL    HW161449  14.063   6.691   6.947
86539SOL    HW261450  14.008   6.713   7.086
86540SOL     OW61451   7.287  11.093  11.293
86540SOL    HW161452   7.318  11.048  11.215
86540SOL    HW261453   7.281  11.024  11.359
86541SOL     OW61454   7.712  10.382  11.960
86541SOL    HW161455   7.798  10.379  12.000
86541SOL    HW261456   7.726  10.349  11.871
86542SOL     OW61457   8.037  12.663  11.778
86542SOL    HW161458   7.949  12.651  11.742
86542SOL    HW261459   8.028  12.738  11.837
86543SOL     OW61460  11.600   2.310   6.952
86543SOL    HW161461  11.576   2.261   6.873
86543SOL    HW261462  11.563   2.258   7.024
86544SOL     OW61463  12.225   9.199  12.567
86544SOL    HW161464  12.311   9.237  12.581
86544SOL    HW261465  12.218   9.130  12.633
86545SOL     OW61466   3.099   1.468  14.511
86545SOL    HW161467   3.126   1.419  14.589
86545SOL    HW261468   3.159   1.439  14.443
86546SOL     OW61469   1.980  12.144   4.349
86546SOL    HW161470   2.063  12.127   4.305
86546SOL    HW261471   2.005  12.190   4.430
86547SOL     OW61472   0.714  13.222  11.753
86547SOL    HW161473   0.743  13.313  11.762
86547SOL    HW261474   0.788  13.170  11.786
86548SOL     OW61475   7.758   2.438   5.140
86548SOL    HW161476   7.741   2.367   5.202
86548SOL    HW261477   7.761   2.517   5.194
86549SOL     OW61478   4.932  13.655   5.748
86549SOL    HW161479   4.927  13.616   5.835
86549SOL    HW261480   5.016  13.702   5.748
86550SOL     OW61481   4.971   5.328   5.680
86550SOL    HW161482   4.919   5.257   5.642
86550SOL    HW261483   5.061   5.309   5.653
86551SOL     OW61484   3.926   0.854   7.096
86551SOL    HW161485   3.919   0.826   7.187
86551SOL    HW261486   4.019   0.851   7.077
86552SOL     OW61487  12.454   7.854   8.124
86552SOL    HW161488  12.369   7.821   8.155
86552SOL    HW261489  12.432   7.916   8.055
86553SOL     OW61490   1.686   6.656  14.690
86553SOL    HW161491   1.740   6.606  14.630
86553SOL    HW261492   1.647   6.591  14.748
86554SOL     OW61493   8.743   1.507  13.536
86554SOL    HW161494   8.713   1.456  13.610
86554SOL    HW261495   8.801   1.448  13.487
86555SOL     OW61496   0.861   6.355  13.052
86555SOL    HW161497   0.877   6.416  12.980
86555SOL    HW261498   0.913   6.389  13.125
86556SOL     OW61499  13.783   6.442  10.439
86556SOL    HW161500  13.697   6.479  10.457
86556SOL    HW261501  13.800   6.384  10.513
86557SOL     OW61502   5.543   8.659  13.710
86557SOL    HW161503   5.608   8.591  13.726
86557SOL    HW261504   5.518   8.690  13.797
86558SOL     OW61505   5.265  10.328   5.772
86558SOL    HW161506   5.284  10.241   5.735
86558SOL    HW261507   5.301  10.389   5.707
86559SOL     OW61508   5.638   3.740  10.652
86559SOL    HW161509   5.560   3.767  10.605
86559SOL    HW261510   5.708   3.795  10.616
86560SOL     OW61511  13.642   6.636  12.171
86560SOL    HW161512  13.642   6.721  12.217
86560SOL    HW261513  13.618   6.573  12.239
86561SOL     OW61514   3.118   4.395   8.248
86561SOL    HW161515   3.171   4.439   8.181
86561SOL    HW261516   3.176   4.328   8.285
86562SOL     OW61517  12.100  11.579  12.416
86562SOL    HW161518  12.010  11.608  12.424
86562SOL    HW261519  12.118  11.581  12.322
86563SOL     OW61520   5.344  11.060  13.954
86563SOL    HW161521   5.295  11.015  14.023
86563SOL    HW261522   5.349  10.996  13.883
86564SOL     OW61523   7.430   3.422   0.720
86564SOL    HW161524   7.487   3.372   0.778
86564SOL    HW261525   7.424   3.368   0.641
86565SOL     OW61526   2.143   4.543   5.802
86565SOL    HW161527   2.113   4.485   5.732
86565SOL    HW261528   2.143   4.631   5.763
86566SOL     OW61529   4.413   4.216   5.441
86566SOL    HW161530   4.369   4.237   5.523
86566SOL    HW261531   4.441   4.300   5.406
86567SOL     OW61532   3.545   0.430   3.759
86567SOL    HW161533   3.620   0.477   3.722
86567SOL    HW261534   3.491   0.409   3.683
86568SOL     OW61535  11.531  12.718  14.385
86568SOL    HW161536  11.608  12.689  14.434
86568SOL    HW261537  11.489  12.782  14.442
86569SOL     OW61538   4.973   6.398  14.470
86569SOL    HW161539   4.927   6.443  14.540
86569SOL    HW261540   5.040   6.460  14.442
86570SOL     OW61541  14.550  14.240  10.109
86570SOL    HW161542  14.607  14.164  10.104
86570SOL    HW261543  14.463  14.204  10.129
86571SOL     OW61544   0.482  13.935  14.678
86571SOL    HW161545   0.390  13.910  14.694
86571SOL    HW261546   0.530  13.852  14.684
86572SOL     OW61547  13.014   5.638  10.101
86572SOL    HW161548  13.028   5.558  10.051
86572SOL    HW261549  12.937   5.620  10.155
86573SOL     OW61550   4.931   6.325   4.307
86573SOL    HW161551   5.002   6.306   4.368
86573SOL    HW261552   4.955   6.409   4.267
86574SOL     OW61553   4.576   9.818   4.395
86574SOL    HW161554   4.551   9.753   4.460
86574SOL    HW261555   4.664   9.844   4.420
86575SOL     OW61556   4.493   4.057   3.513
86575SOL    HW161557   4.494   4.141   3.467
86575SOL    HW261558   4.585   4.038   3.529
86576SOL     OW61559   5.338   8.418   5.194
86576SOL    HW161560   5.279   8.412   5.119
86576SOL    HW261561   5.400   8.486   5.170
86577SOL     OW61562   5.414  13.761  12.985
86577SOL    HW161563   5.451  13.801  12.906
86577SOL    HW261564   5.393  13.671  12.959
86578SOL     OW61565   4.349   9.658   2.692
86578SOL    HW161566   4.390   9.742   2.716
86578SOL    HW261567   4.387   9.595   2.753
86579SOL     OW61568   7.362   7.647   3.596
86579SOL    HW161569   7.360   7.668   3.690
86579SOL    HW261570   7.300   7.575   3.586
86580SOL     OW61571  11.605   2.695  11.511
86580SOL    HW161572  11.667   2.687  11.439
86580SOL    HW261573  11.567   2.607  11.520
86581SOL     OW61574   7.237   4.868  13.802
86581SOL    HW161575   7.144   4.891  13.810
86581SOL    HW261576   7.246   4.832  13.714
86582SOL     OW61577   6.618  14.317   9.597
86582SOL    HW161578   6.658  14.305   9.683
86582SOL    HW261579   6.675  14.379   9.552
86583SOL     OW61580   7.582  12.299   0.754
86583SOL    HW161581   7.624  12.385   0.744
86583SOL    HW261582   7.654  12.239   0.774
86584SOL     OW61583   7.210  12.609  13.676
86584SOL    HW161584   7.229  12.654  13.758
86584SOL    HW261585   7.155  12.535  13.701
86585SOL     OW61586  13.600   7.636   6.249
86585SOL    HW161587  13.593   7.559   6.193
86585SOL    HW261588  13.618   7.601   6.336
86586SOL     OW61589   0.341   1.029  14.371
86586SOL    HW161590   0.405   1.083  14.325
86586SOL    HW261591   0.261   1.082  14.370
86587SOL     OW61592  11.899   3.424  12.427
86587SOL    HW161593  11.947   3.356  12.474
86587SOL    HW261594  11.926   3.506  12.468
86588SOL     OW61595   7.442   3.269  13.662
86588SOL    HW161596   7.448   3.301  13.752
86588SOL    HW261597   7.483   3.338  13.610
86589SOL     OW61598   7.264   7.384   2.744
86589SOL    HW161599   7.182   7.416   2.708
86589SOL    HW261600   7.299   7.459   2.793
86590SOL     OW61601   1.597   7.944   6.283
86590SOL    HW161602   1.597   7.853   6.254
86590SOL    HW261603   1.514   7.979   6.252
86591SOL     OW61604  10.207   7.557  13.930
86591SOL    HW161605  10.159   7.505  13.866
86591SOL    HW261606  10.227   7.495  14.001
86592SOL     OW61607  11.149   6.101   5.859
86592SOL    HW161608  11.084   6.092   5.929
86592SOL    HW261609  11.232   6.115   5.904
86593SOL     OW61610   4.341   3.557   9.492
86593SOL    HW161611   4.398   3.630   9.516
86593SOL    HW261612   4.356   3.544   9.399
86594SOL     OW61613  11.030   0.552   8.935
86594SOL    HW161614  11.046   0.485   8.869
86594SOL    HW261615  11.071   0.518   9.015
86595SOL     OW61616   3.593   0.533   3.409
86595SOL    HW161617   3.545   0.451   3.417
86595SOL    HW261618   3.526   0.601   3.407
86596SOL     OW61619   1.854  13.980   4.309
86596SOL    HW161620   1.759  13.978   4.295
86596SOL    HW261621   1.891  13.977   4.221
86597SOL     OW61622   3.834   3.488   6.657
86597SOL    HW161623   3.800   3.571   6.691
86597SOL    HW261624   3.919   3.511   6.618
86598SOL     OW61625   7.256  12.722   6.389
86598SOL    HW161626   7.188  12.717   6.456
86598SOL    HW261627   7.287  12.813   6.393
86599SOL     OW61628   0.272   5.209  11.650
86599SOL    HW161629   0.189   5.252  11.671
86599SOL    HW261630   0.320   5.273  11.598
86600SOL     OW61631  14.048  10.644   3.497
86600SOL    HW161632  13.998  10.722   3.473
86600SOL    HW261633  14.039  10.585   3.423
86601SOL     OW61634  12.180   9.861   6.420
86601SOL    HW161635  12.194   9.949   6.454
86601SOL    HW261636  12.166   9.873   6.327
86602SOL     OW61637   2.934   4.240  11.899
86602SOL    HW161638   2.851   4.279  11.927
86602SOL    HW261639   2.987   4.314  11.871
86603SOL     OW61640  10.485   7.927   4.847
86603SOL    HW161641  10.522   7.884   4.924
86603SOL    HW261642  10.400   7.961   4.877
86604SOL     OW61643   8.195   5.062   8.780
86604SOL    HW161644   8.116   5.045   8.832
86604SOL    HW261645   8.180   5.147   8.740
86605SOL     OW61646   6.976   1.675  11.756
86605SOL    HW161647   7.068   1.685  11.730
86605SOL    HW261648   6.975   1.597  11.812
86606SOL     OW61649   7.050   8.094  14.213
86606SOL    HW161650   7.085   8.044  14.139
86606SOL    HW261651   7.125   8.110  14.269
86607SOL     OW61652   5.687   6.903   6.474
86607SOL    HW161653   5.620   6.960   6.437
86607SOL    HW261654   5.734   6.869   6.398
86608SOL     OW61655  14.464   8.215  10.642
86608SOL    HW161656  14.513   8.279  10.590
86608SOL    HW261657  14.518   8.200  10.719
86609SOL     OW61658  13.409  14.348   8.715
86609SOL    HW161659  13.373  14.259   8.715
86609SOL    HW261660  13.429  14.366   8.807
86610SOL     OW61661   0.435   7.258   0.533
86610SOL    HW161662   0.433   7.339   0.483
86610SOL    HW261663   0.430   7.286   0.625
86611SOL     OW61664  14.869   4.398   5.968
86611SOL    HW161665   0.062   4.402   5.909
86611SOL    HW261666   0.025   4.395   6.056
86612SOL     OW61667  13.062  12.302  13.339
86612SOL    HW161668  12.967  12.293  13.344
86612SOL    HW261669  13.085  12.357  13.414
86613SOL     OW61670   3.965   3.862  11.617
86613SOL    HW161671   3.982   3.772  11.591
86613SOL    HW261672   3.894   3.891  11.560
86614SOL     OW61673   6.301   1.738   8.951
86614SOL    HW161674   6.334   1.815   8.997
86614SOL    HW261675   6.293   1.766   8.860
86615SOL     OW61676   4.793   2.424   1.291
86615SOL    HW161677   4.795   2.441   1.385
86615SOL    HW261678   4.878   2.454   1.259
86616SOL     OW61679   5.997   2.710  11.565
86616SOL    HW161680   6.034   2.624  11.583
86616SOL    HW261681   5.910   2.693  11.529
86617SOL     OW61682  10.595   9.127   2.183
86617SOL    HW161683  10.581   9.033   2.172
86617SOL    HW261684  10.539   9.152   2.256
86618SOL     OW61685   3.450   8.361  12.313
86618SOL    HW161686   3.390   8.370  12.239
86618SOL    HW261687   3.396   8.380  12.390
86619SOL     OW61688  11.488  10.269  12.520
86619SOL    HW161689  11.503  10.363  12.506
86619SOL    HW261690  11.518  10.254  12.610
86620SOL     OW61691   8.361   3.339   5.706
86620SOL    HW161692   8.400   3.293   5.780
86620SOL    HW261693   8.270   3.354   5.732
86621SOL     OW61694  12.321   0.501  10.392
86621SOL    HW161695  12.346   0.410  10.405
86621SOL    HW261696  12.230   0.497  10.361
86622SOL     OW61697   4.729   1.133   3.451
86622SOL    HW161698   4.701   1.183   3.528
86622SOL    HW261699   4.686   1.048   3.461
86623SOL     OW61700   2.929   5.095  12.300
86623SOL    HW161701   2.993   5.024  12.295
86623SOL    HW261702   2.917   5.109  12.394
86624SOL     OW61703   9.118   2.446  10.416
86624SOL    HW161704   9.048   2.442  10.350
86624SOL    HW261705   9.089   2.388  10.486
86625SOL     OW61706   0.759   1.928  13.796
86625SOL    HW161707   0.724   1.847  13.832
86625SOL    HW261708   0.834   1.900  13.743
86626SOL     OW61709  10.043   6.748   1.916
86626SOL    HW161710  10.015   6.800   1.841
86626SOL    HW261711  10.134   6.773   1.930
86627SOL     OW61712  14.847   7.464   8.638
86627SOL    HW161713  14.770   7.417   8.605
86627SOL    HW261714   0.034   7.398   8.638
86628SOL     OW61715  12.474   7.560   1.550
86628SOL    HW161716  12.449   7.601   1.467
86628SOL    HW261717  12.490   7.468   1.527
86629SOL     OW61718  10.773  10.019  10.232
86629SOL    HW161719  10.848   9.962  10.249
86629SOL    HW261720  10.709   9.962  10.189
86630SOL     OW61721   8.202  11.540   3.198
86630SOL    HW161722   8.281  11.569   3.153
86630SOL    HW261723   8.222  11.551   3.291
86631SOL     OW61724   0.887   2.594  11.717
86631SOL    HW161725   0.912   2.596  11.625
86631SOL    HW261726   0.957   2.544  11.759
86632SOL     OW61727   9.207  10.020   2.712
86632SOL    HW161728   9.205  10.034   2.618
86632SOL    HW261729   9.175  10.102   2.749
86633SOL     OW61730  14.300  11.689   7.536
86633SOL    HW161731  14.276  11.653   7.621
86633SOL    HW261732  14.387  11.726   7.549
86634SOL     OW61733  13.854  13.012   3.223
86634SOL    HW161734  13.821  12.937   3.271
86634SOL    HW261735  13.776  13.063   3.200
86635SOL     OW61736   3.432   0.767   2.977
86635SOL    HW161737   3.445   0.679   2.941
86635SOL    HW261738   3.499   0.820   2.934
86636SOL     OW61739   8.232   7.294   6.870
86636SOL    HW161740   8.309   7.341   6.841
86636SOL    HW261741   8.249   7.272   6.961
86637SOL     OW61742  11.719   6.418  11.983
86637SOL    HW161743  11.642   6.363  11.994
86637SOL    HW261744  11.770   6.374  11.914
86638SOL     OW61745  10.288   2.533  10.959
86638SOL    HW161746  10.221   2.470  10.932
86638SOL    HW261747  10.251   2.618  10.935
86639SOL     OW61748  12.122  11.962   4.126
86639SOL    HW161749  12.164  11.885   4.088
86639SOL    HW261750  12.124  11.947   4.220
86640SOL     OW61751  12.597  13.436  13.838
86640SOL    HW161752  12.604  13.495  13.763
86640SOL    HW261753  12.603  13.494  13.914
86641SOL     OW61754   8.484   6.887  12.826
86641SOL    HW161755   8.460   6.830  12.899
86641SOL    HW261756   8.414   6.874  12.762
86642SOL     OW61757   4.843  13.098   9.408
86642SOL    HW161758   4.905  13.116   9.337
86642SOL    HW261759   4.772  13.049   9.367
86643SOL     OW61760  11.669   7.852   4.222
86643SOL    HW161761  11.662   7.893   4.136
86643SOL    HW261762  11.595   7.886   4.272
86644SOL     OW61763  14.462   8.571  13.609
86644SOL    HW161764  14.473   8.662  13.583
86644SOL    HW261765  14.441   8.575  13.702
86645SOL     OW61766   5.337   3.848   9.601
86645SOL    HW161767   5.288   3.769   9.626
86645SOL    HW261768   5.428   3.826   9.620
86646SOL     OW61769   4.204  12.762  13.569
86646SOL    HW161770   4.297  12.782  13.556
86646SOL    HW261771   4.177  12.722  13.486
86647SOL     OW61772   5.507   9.669   3.734
86647SOL    HW161773   5.434   9.719   3.698
86647SOL    HW261774   5.516   9.593   3.677
86648SOL     OW61775   3.022   3.730  10.877
86648SOL    HW161776   3.041   3.748  10.785
86648SOL    HW261777   3.109   3.727  10.918
86649SOL     OW61778  13.675   1.067   4.284
86649SOL    HW161779  13.666   1.029   4.196
86649SOL    HW261780  13.756   1.029   4.318
86650SOL     OW61781  11.553   2.605   9.621
86650SOL    HW161782  11.616   2.537   9.643
86650SOL    HW261783  11.568   2.621   9.527
86651SOL     OW61784  10.864   6.018   5.622
86651SOL    HW161785  10.861   5.923   5.618
86651SOL    HW261786  10.955   6.038   5.644
86652SOL     OW61787   9.960   6.371  10.835
86652SOL    HW161788  10.037   6.314  10.836
86652SOL    HW261789   9.933   6.373  10.743
86653SOL     OW61790   0.310  11.030  11.976
86653SOL    HW161791   0.310  10.947  11.927
86653SOL    HW261792   0.277  11.006  12.062
86654SOL     OW61793  11.522   3.667   5.673
86654SOL    HW161794  11.467   3.740   5.701
86654SOL    HW261795  11.608   3.686   5.711
86655SOL     OW61796  13.937   9.279  14.363
86655SOL    HW161797  13.899   9.316  14.284
86655SOL    HW261798  13.917   9.185  14.358
86656SOL     OW61799  11.135  12.328  12.444
86656SOL    HW161800  11.133  12.235  12.466
86656SOL    HW261801  11.118  12.373  12.526
86657SOL     OW61802   4.134  12.970   6.153
86657SOL    HW161803   4.147  13.057   6.190
86657SOL    HW261804   4.147  12.910   6.226
86658SOL     OW61805   8.954   4.590  14.034
86658SOL    HW161806   8.897   4.522  14.000
86658SOL    HW261807   9.041   4.568  14.001
86659SOL     OW61808  10.695  13.596   8.587
86659SOL    HW161809  10.710  13.530   8.519
86659SOL    HW261810  10.773  13.650   8.586
86660SOL     OW61811   0.690   1.028   0.298
86660SOL    HW161812   0.602   1.065   0.306
86660SOL    HW261813   0.741   1.097   0.254
86661SOL     OW61814   8.070  14.216   0.419
86661SOL    HW161815   8.115  14.131   0.421
86661SOL    HW261816   8.062  14.236   0.325
86662SOL     OW61817   5.545  14.126  13.070
86662SOL    HW161818   5.500  14.147  12.988
86662SOL    HW261819   5.478  14.084  13.124
86663SOL     OW61820   0.760   4.762   9.676
86663SOL    HW161821   0.689   4.709   9.714
86663SOL    HW261822   0.716   4.837   9.637
86664SOL     OW61823  14.014   1.809   7.174
86664SOL    HW161824  13.942   1.769   7.222
86664SOL    HW261825  13.999   1.782   7.083
86665SOL     OW61826   3.459   0.275   9.843
86665SOL    HW161827   3.437   0.274   9.936
86665SOL    HW261828   3.375   0.285   9.798
86666SOL     OW61829  10.061  10.201   7.131
86666SOL    HW161830  10.068  10.111   7.165
86666SOL    HW261831  10.097  10.195   7.042
86667SOL     OW61832   4.516   6.679   7.760
86667SOL    HW161833   4.587   6.672   7.696
86667SOL    HW261834   4.436   6.663   7.710
86668SOL     OW61835   4.382  14.604   8.336
86668SOL    HW161836   4.461  14.561   8.304
86668SOL    HW261837   4.395  14.696   8.314
86669SOL     OW61838   2.394   4.229   4.532
86669SOL    HW161839   2.471   4.193   4.490
86669SOL    HW261840   2.373   4.167   4.602
86670SOL     OW61841   6.713   0.837  11.677
86670SOL    HW161842   6.753   0.883  11.604
86670SOL    HW261843   6.734   0.745  11.662
86671SOL     OW61844   4.585  10.544  14.482
86671SOL    HW161845   4.493  10.551  14.505
86671SOL    HW261846   4.626  10.618  14.528
86672SOL     OW61847   5.502  13.879   1.117
86672SOL    HW161848   5.591  13.850   1.094
86672SOL    HW261849   5.448  13.854   1.042
86673SOL     OW61850   6.004   9.970   7.904
86673SOL    HW161851   6.067  10.022   7.854
86673SOL    HW261852   6.006   9.884   7.862
86674SOL     OW61853   8.367   6.174   7.927
86674SOL    HW161854   8.321   6.255   7.949
86674SOL    HW261855   8.325   6.143   7.847
86675SOL     OW61856  10.206   9.371   8.166
86675SOL    HW161857  10.256   9.334   8.239
86675SOL    HW261858  10.151   9.300   8.136
86676SOL     OW61859   2.558  11.149   4.084
86676SOL    HW161860   2.543  11.073   4.029
86676SOL    HW261861   2.504  11.218   4.047
86677SOL     OW61862   9.054  12.706   2.284
86677SOL    HW161863   9.058  12.762   2.361
86677SOL    HW261864   9.001  12.755   2.221
86678SOL     OW61865   6.498  11.291   2.904
86678SOL    HW161866   6.536  11.308   2.991
86678SOL    HW261867   6.462  11.375   2.877
86679SOL     OW61868  13.732   4.364   0.246
86679SOL    HW161869  13.762   4.320   0.326
86679SOL    HW261870  13.802   4.349   0.183
86680SOL     OW61871   1.689   5.408   8.415
86680SOL    HW161872   1.625   5.448   8.475
86680SOL    HW261873   1.743   5.482   8.386
86681SOL     OW61874   7.514   6.269   5.603
86681SOL    HW161875   7.430   6.298   5.568
86681SOL    HW261876   7.491   6.206   5.671
86682SOL     OW61877  14.551  10.190   4.923
86682SOL    HW161878  14.504  10.253   4.869
86682SOL    HW261879  14.534  10.105   4.882
86683SOL     OW61880   6.968  12.069  13.187
86683SOL    HW161881   6.929  12.152  13.161
86683SOL    HW261882   7.047  12.094  13.236
86684SOL     OW61883   1.627   2.567   3.733
86684SOL    HW161884   1.594   2.657   3.741
86684SOL    HW261885   1.677   2.568   3.651
86685SOL     OW61886   5.311   0.969   8.259
86685SOL    HW161887   5.230   1.021   8.250
86685SOL    HW261888   5.286   0.881   8.230
86686SOL     OW61889   1.672   7.512  11.420
86686SOL    HW161890   1.595   7.458  11.402
86686SOL    HW261891   1.642   7.574  11.487
86687SOL     OW61892   1.659  11.060   3.032
86687SOL    HW161893   1.583  11.115   3.015
86687SOL    HW261894   1.720  11.079   2.961
86688SOL     OW61895   3.607  13.056   2.970
86688SOL    HW161896   3.580  12.967   2.948
86688SOL    HW261897   3.526  13.102   2.990
86689SOL     OW61898   8.757   1.506   5.656
86689SOL    HW161899   8.769   1.550   5.571
86689SOL    HW261900   8.740   1.415   5.634
86690SOL     OW61901   9.356  10.279  11.698
86690SOL    HW161902   9.379  10.229  11.619
86690SOL    HW261903   9.382  10.222  11.771
86691SOL     OW61904   5.941   3.784  11.698
86691SOL    HW161905   5.969   3.829  11.777
86691SOL    HW261906   5.859   3.741  11.722
86692SOL     OW61907   3.089   1.912  10.013
86692SOL    HW161908   3.122   1.911   9.923
86692SOL    HW261909   3.100   1.821  10.043
86693SOL     OW61910  13.688  13.389   1.598
86693SOL    HW161911  13.774  13.407   1.560
86693SOL    HW261912  13.627  13.431   1.537
86694SOL     OW61913   0.900   3.506   1.319
86694SOL    HW161914   0.822   3.498   1.375
86694SOL    HW261915   0.896   3.596   1.286
86695SOL     OW61916   6.663   1.803   6.007
86695SOL    HW161917   6.687   1.887   5.968
86695SOL    HW261918   6.647   1.745   5.932
86696SOL     OW61919   8.469   2.884  12.634
86696SOL    HW161920   8.494   2.976  12.637
86696SOL    HW261921   8.420   2.870  12.715
86697SOL     OW61922  13.650   3.462  13.553
86697SOL    HW161923  13.572   3.416  13.522
86697SOL    HW261924  13.617   3.523  13.619
86698SOL     OW61925   7.580   7.507   6.118
86698SOL    HW161926   7.619   7.421   6.105
86698SOL    HW261927   7.617   7.538   6.201
86699SOL     OW61928   0.011   6.234  13.407
86699SOL    HW161929  14.849   6.248  13.491
86699SOL    HW261930   0.050   6.319  13.385
86700SOL     OW61931   7.927   8.934   2.671
86700SOL    HW161932   7.870   8.931   2.595
86700SOL    HW261933   8.016   8.935   2.635
86701SOL     OW61934   6.602   1.485   5.250
86701SOL    HW161935   6.617   1.507   5.342
86701SOL    HW261936   6.688   1.492   5.209
86702SOL     OW61937   1.112  12.385   7.014
86702SOL    HW161938   1.194  12.354   6.976
86702SOL    HW261939   1.100  12.332   7.093
86703SOL     OW61940   3.899  11.755  10.983
86703SOL    HW161941   3.867  11.843  10.996
86703SOL    HW261942   3.982  11.752  11.031
86704SOL     OW61943   3.059   9.542   0.344
86704SOL    HW161944   3.122   9.497   0.401
86704SOL    HW261945   3.113   9.584   0.278
86705SOL     OW61946   2.792   8.046   3.004
86705SOL    HW161947   2.851   8.019   2.934
86705SOL    HW261948   2.843   8.107   3.056
86706SOL     OW61949   9.194   4.732   9.661
86706SOL    HW161950   9.156   4.703   9.743
86706SOL    HW261951   9.288   4.712   9.669
86707SOL     OW61952   4.182   1.190  13.534
86707SOL    HW161953   4.162   1.239  13.455
86707SOL    HW261954   4.196   1.100  13.504
86708SOL     OW61955  12.519  12.793   9.911
86708SOL    HW161956  12.489  12.705   9.889
86708SOL    HW261957  12.440  12.843   9.929
86709SOL     OW61958   4.780   9.525   1.410
86709SOL    HW161959   4.729   9.453   1.448
86709SOL    HW261960   4.835   9.557   1.482
86710SOL     OW61961   8.180  10.795  11.025
86710SOL    HW161962   8.124  10.767  10.952
86710SOL    HW261963   8.202  10.886  11.005
86711SOL     OW61964   0.227   8.565   2.633
86711SOL    HW161965   0.276   8.527   2.560
86711SOL    HW261966   0.139   8.580   2.598
86712SOL     OW61967   2.742   7.915  11.930
86712SOL    HW161968   2.786   7.834  11.956
86712SOL    HW261969   2.746   7.914  11.834
86713SOL     OW61970   6.939  13.363   3.165
86713SOL    HW161971   6.861  13.400   3.125
86713SOL    HW261972   6.914  13.272   3.185
86714SOL     OW61973   6.760  14.166   6.950
86714SOL    HW161974   6.683  14.191   6.899
86714SOL    HW261975   6.775  14.074   6.927
86715SOL     OW61976  12.106  10.821   0.323
86715SOL    HW161977  12.059  10.831   0.240
86715SOL    HW261978  12.041  10.836   0.390
86716SOL     OW61979  13.966   7.963  13.119
86716SOL    HW161980  14.033   7.924  13.175
86716SOL    HW261981  14.005   8.045  13.088
86717SOL     OW61982  13.520   5.079   3.014
86717SOL    HW161983  13.528   4.983   3.014
86717SOL    HW261984  13.565   5.106   3.094
86718SOL     OW61985   7.296   4.944  12.003
86718SOL    HW161986   7.365   4.985  11.950
86718SOL    HW261987   7.297   4.993  12.085
86719SOL     OW61988  11.593   5.888  11.249
86719SOL    HW161989  11.539   5.962  11.223
86719SOL    HW261990  11.662   5.926  11.303
86720SOL     OW61991   6.985   3.433   2.436
86720SOL    HW161992   6.985   3.514   2.488
86720SOL    HW261993   7.078   3.415   2.421
86721SOL     OW61994   3.986   6.592  10.248
86721SOL    HW161995   4.061   6.534  10.252
86721SOL    HW261996   3.950   6.579  10.160
86722SOL     OW61997   4.013   6.981   8.815
86722SOL    HW161998   4.035   6.921   8.887
86722SOL    HW261999   3.974   7.057   8.858
86723SOL     OW62000   2.031  13.565   0.227
86723SOL    HW162001   2.070  13.641   0.185
86723SOL    HW262002   2.103  13.522   0.272
86724SOL     OW62003   0.763   5.082  12.274
86724SOL    HW162004   0.702   5.042  12.211
86724SOL    HW262005   0.840   5.025  12.271
86725SOL     OW62006   5.965  12.912   7.781
86725SOL    HW162007   6.001  13.001   7.775
86725SOL    HW262008   5.874  12.925   7.808
86726SOL     OW62009   0.251   8.819   8.250
86726SOL    HW162010   0.316   8.853   8.311
86726SOL    HW262011   0.237   8.891   8.188
86727SOL     OW62012   5.104  10.769   3.825
86727SOL    HW162013   5.196  10.782   3.845
86727SOL    HW262014   5.090  10.674   3.834
86728SOL     OW62015  12.989   6.103  11.543
86728SOL    HW162016  12.954   6.118  11.455
86728SOL    HW262017  13.041   6.181  11.561
86729SOL     OW62018   5.011  13.678  14.489
86729SOL    HW162019   5.068  13.754  14.489
86729SOL    HW262020   4.923  13.713  14.478
86730SOL     OW62021   5.386   9.570   8.470
86730SOL    HW162022   5.464   9.615   8.503
86730SOL    HW262023   5.366   9.614   8.387
86731SOL     OW62024   5.393  13.845   4.723
86731SOL    HW162025   5.407  13.897   4.644
86731SOL    HW262026   5.313  13.881   4.762
86732SOL     OW62027   9.617  10.962  11.810
86732SOL    HW162028   9.534  10.919  11.832
86732SOL    HW262029   9.596  11.055  11.811
86733SOL     OW62030   6.034   4.247  12.976
86733SOL    HW162031   6.043   4.306  12.902
86733SOL    HW262032   6.104   4.183  12.965
86734SOL     OW62033   5.727   7.261   6.598
86734SOL    HW162034   5.791   7.191   6.610
86734SOL    HW262035   5.779   7.338   6.573
86735SOL     OW62036   0.562   3.937   6.424
86735SOL    HW162037   0.492   3.881   6.458
86735SOL    HW262038   0.575   4.003   6.492
86736SOL     OW62039   1.890   1.700  12.332
86736SOL    HW162040   1.857   1.615  12.361
86736SOL    HW262041   1.817   1.739  12.284
86737SOL     OW62042  12.050   0.050  11.642
86737SOL    HW162043  12.001   0.037  11.560
86737SOL    HW262044  11.983   0.058  11.709
86738SOL     OW62045   0.614  12.991   9.767
86738SOL    HW162046   0.600  13.066   9.709
86738SOL    HW262047   0.629  13.030   9.853
86739SOL     OW62048  10.977   7.708   3.298
86739SOL    HW162049  10.914   7.679   3.232
86739SOL    HW262050  11.000   7.627   3.345
86740SOL     OW62051   5.900  13.473   1.341
86740SOL    HW162052   5.849  13.426   1.275
86740SOL    HW262053   5.950  13.538   1.292
86741SOL     OW62054  11.383   0.997   9.575
86741SOL    HW162055  11.323   1.071   9.572
86741SOL    HW262056  11.468   1.035   9.599
86742SOL     OW62057   7.103  13.710   9.686
86742SOL    HW162058   7.056  13.719   9.769
86742SOL    HW262059   7.190  13.745   9.704
86743SOL     OW62060   1.695  10.950  10.721
86743SOL    HW162061   1.649  10.977  10.641
86743SOL    HW262062   1.701  10.855  10.714
86744SOL     OW62063   3.173   7.215   9.702
86744SOL    HW162064   3.147   7.240   9.791
86744SOL    HW262065   3.110   7.148   9.676
86745SOL     OW62066   3.351   5.614   7.788
86745SOL    HW162067   3.353   5.551   7.716
86745SOL    HW262068   3.380   5.564   7.865
86746SOL     OW62069  10.940  11.787   9.012
86746SOL    HW162070  10.891  11.816   9.089
86746SOL    HW262071  10.876  11.790   8.941
86747SOL     OW62072  11.585   7.311   1.418
86747SOL    HW162073  11.511   7.365   1.391
86747SOL    HW262074  11.599   7.332   1.510
86748SOL     OW62075   9.912   1.216   3.348
86748SOL    HW162076   9.989   1.206   3.292
86748SOL    HW262077   9.931   1.161   3.424
86749SOL     OW62078   1.975  14.344   0.712
86749SOL    HW162079   2.061  14.304   0.725
86749SOL    HW262080   1.913  14.278   0.743
86750SOL     OW62081   3.896   6.747  14.398
86750SOL    HW162082   3.916   6.690  14.473
86750SOL    HW262083   3.973   6.740  14.342
86751SOL     OW62084   0.044   7.137   0.726
86751SOL    HW162085   0.135   7.114   0.710
86751SOL    HW262086   0.048   7.206   0.793
86752SOL     OW62087   8.808   1.778  14.091
86752SOL    HW162088   8.754   1.763  14.168
86752SOL    HW262089   8.753   1.752  14.017
86753SOL     OW62090   2.613  14.831   3.880
86753SOL    HW162091   2.621   0.038   3.846
86753SOL    HW262092   2.566  14.841   3.963
86754SOL     OW62093  10.274   9.364   6.200
86754SOL    HW162094  10.272   9.357   6.295
86754SOL    HW262095  10.189   9.402   6.177
86755SOL     OW62096   1.826  11.151   2.833
86755SOL    HW162097   1.903  11.095   2.836
86755SOL    HW262098   1.830  11.194   2.748
86756SOL     OW62099   1.688  12.829  14.619
86756SOL    HW162100   1.613  12.777  14.647
86756SOL    HW262101   1.650  12.905  14.575
86757SOL     OW62102  10.750  12.089  13.290
86757SOL    HW162103  10.672  12.118  13.244
86757SOL    HW262104  10.807  12.166  13.294
86758SOL     OW62105   4.167   8.344  13.654
86758SOL    HW162106   4.125   8.421  13.616
86758SOL    HW262107   4.119   8.328  13.735
86759SOL     OW62108   2.944  12.105   2.394
86759SOL    HW162109   2.933  12.068   2.307
86759SOL    HW262110   2.930  12.030   2.453
86760SOL     OW62111  12.426   9.978   2.641
86760SOL    HW162112  12.355   9.981   2.705
86760SOL    HW262113  12.400   9.910   2.579
86761SOL     OW62114  12.080   7.920   7.383
86761SOL    HW162115  12.070   7.889   7.293
86761SOL    HW262116  12.031   7.856   7.436
86762SOL     OW62117  12.443  12.341  12.497
86762SOL    HW162118  12.382  12.330  12.425
86762SOL    HW262119  12.512  12.398  12.462
86763SOL     OW62120   3.562   3.785  14.568
86763SOL    HW162121   3.485   3.740  14.533
86763SOL    HW262122   3.595   3.727  14.637
86764SOL     OW62123  11.888   0.324   1.873
86764SOL    HW162124  11.954   0.256   1.887
86764SOL    HW262125  11.837   0.325   1.954
86765SOL     OW62126   9.710   5.422  13.922
86765SOL    HW162127   9.794   5.461  13.947
86765SOL    HW262128   9.678   5.480  13.852
86766SOL     OW62129   4.477   2.559   1.239
86766SOL    HW162130   4.448   2.548   1.330
86766SOL    HW262131   4.448   2.479   1.195
86767SOL     OW62132   7.173  10.737   5.571
86767SOL    HW162133   7.238  10.684   5.526
86767SOL    HW262134   7.089  10.694   5.552
86768SOL     OW62135   5.784  13.148   0.220
86768SOL    HW162136   5.739  13.122   0.301
86768SOL    HW262137   5.717  13.194   0.169
86769SOL     OW62138  14.335   9.389   0.800
86769SOL    HW162139  14.400   9.320   0.817
86769SOL    HW262140  14.252   9.341   0.792
86770SOL     OW62141   3.108  10.844   1.520
86770SOL    HW162142   3.018  10.876   1.518
86770SOL    HW262143   3.155  10.902   1.460
86771SOL     OW62144   0.528   9.364   9.322
86771SOL    HW162145   0.456   9.301   9.311
86771SOL    HW262146   0.574   9.335   9.400
86772SOL     OW62147   5.670   5.359   9.778
86772SOL    HW162148   5.633   5.334   9.693
86772SOL    HW262149   5.756   5.317   9.781
86773SOL     OW62150  12.512  11.205  13.662
86773SOL    HW162151  12.597  11.161  13.660
86773SOL    HW262152  12.496  11.222  13.755
86774SOL     OW62153   6.437   1.702  13.892
86774SOL    HW162154   6.367   1.722  13.953
86774SOL    HW262155   6.401   1.634  13.834
86775SOL     OW62156   1.263  12.459  10.439
86775SOL    HW162157   1.294  12.546  10.414
86775SOL    HW262158   1.201  12.434  10.371
86776SOL     OW62159   7.607  12.378   7.528
86776SOL    HW162160   7.641  12.290   7.509
86776SOL    HW262161   7.683  12.428   7.556
86777SOL     OW62162  14.325   9.963   5.985
86777SOL    HW162163  14.275   9.906   6.043
86777SOL    HW262164  14.416   9.935   5.995
86778SOL     OW62165  10.862  13.276  14.212
86778SOL    HW162166  10.876  13.213  14.282
86778SOL    HW262167  10.882  13.228  14.132
86779SOL     OW62168  11.344   5.742  14.607
86779SOL    HW162169  11.285   5.692  14.664
86779SOL    HW262170  11.432   5.723  14.640
86780SOL     OW62171   3.522   6.406   6.312
86780SOL    HW162172   3.612   6.382   6.335
86780SOL    HW262173   3.517   6.393   6.217
86781SOL     OW62174   4.157   9.631  10.623
86781SOL    HW162175   4.122   9.550  10.583
86781SOL    HW262176   4.147   9.697  10.554
86782SOL     OW62177   8.371   0.487  12.423
86782SOL    HW162178   8.401   0.451  12.339
86782SOL    HW262179   8.283   0.452  12.434
86783SOL     OW62180   8.378  13.294  10.611
86783SOL    HW162181   8.423  13.268  10.530
86783SOL    HW262182   8.430  13.368  10.644
86784SOL     OW62183   2.144   0.720   5.272
86784SOL    HW162184   2.202   0.689   5.342
86784SOL    HW262185   2.098   0.794   5.311
86785SOL     OW62186  12.063   6.568   7.526
86785SOL    HW162187  12.157   6.577   7.541
86785SOL    HW262188  12.057   6.501   7.457
86786SOL     OW62189  13.476   7.081   3.993
86786SOL    HW162190  13.558   7.090   4.042
86786SOL    HW262191  13.500   7.026   3.918
86787SOL     OW62192   5.947   5.671   9.692
86787SOL    HW162193   5.856   5.641   9.686
86787SOL    HW262194   5.996   5.608   9.639
86788SOL     OW62195   2.866   5.714   7.477
86788SOL    HW162196   2.808   5.660   7.530
86788SOL    HW262197   2.954   5.683   7.497
86789SOL     OW62198  12.399   9.303   3.177
86789SOL    HW162199  12.316   9.319   3.131
86789SOL    HW262200  12.465   9.348   3.124
86790SOL     OW62201  10.543   9.884   4.590
86790SOL    HW162202  10.456   9.899   4.627
86790SOL    HW262203  10.591   9.966   4.607
86791SOL     OW62204  10.332  14.372  11.075
86791SOL    HW162205  10.326  14.277  11.065
86791SOL    HW262206  10.352  14.404  10.987
86792SOL     OW62207  11.643  11.139   8.551
86792SOL    HW162208  11.576  11.150   8.483
86792SOL    HW262209  11.694  11.220   8.547
86793SOL     OW62210   8.397  13.494   3.050
86793SOL    HW162211   8.409  13.482   3.145
86793SOL    HW262212   8.414  13.587   3.035
86794SOL     OW62213   3.046   3.868   2.309
86794SOL    HW162214   3.061   3.776   2.287
86794SOL    HW262215   2.956   3.885   2.279
86795SOL     OW62216   0.013   8.988   3.201
86795SOL    HW162217   0.007   9.070   3.151
86795SOL    HW262218  14.869   8.920   3.139
86796SOL     OW62219   3.693  11.160  14.804
86796SOL    HW162220   3.639  11.084  14.826
86796SOL    HW262221   3.778  11.142  14.844
86797SOL     OW62222   6.317  12.201   3.990
86797SOL    HW162223   6.366  12.254   4.052
86797SOL    HW262224   6.382  12.143   3.951
86798SOL     OW62225  13.510   9.745  14.681
86798SOL    HW162226  13.472   9.832  14.698
86798SOL    HW262227  13.554   9.754  14.596
86799SOL     OW62228   0.223  14.171  14.433
86799SOL    HW162229   0.272  14.107  14.382
86799SOL    HW262230   0.270  14.253  14.418
86800SOL     OW62231   8.259   3.281   1.135
86800SOL    HW162232   8.232   3.358   1.184
86800SOL    HW262233   8.339   3.307   1.090
86801SOL     OW62234   0.765  13.744   2.465
86801SOL    HW162235   0.712  13.749   2.544
86801SOL    HW262236   0.713  13.692   2.404
86802SOL     OW62237   5.861   6.211   5.178
86802SOL    HW162238   5.828   6.277   5.117
86802SOL    HW262239   5.813   6.227   5.260
86803SOL     OW62240  10.583  10.884  11.972
86803SOL    HW162241  10.627  10.864  11.889
86803SOL    HW262242  10.550  10.973  11.960
86804SOL     OW62243   2.719   1.302   0.267
86804SOL    HW162244   2.764   1.381   0.296
86804SOL    HW262245   2.638   1.334   0.227
86805SOL     OW62246  12.509  10.431  10.020
86805SOL    HW162247  12.578  10.479  10.065
86805SOL    HW262248  12.432  10.487  10.029
86806SOL     OW62249  14.378   8.388   7.767
86806SOL    HW162250  14.341   8.316   7.716
86806SOL    HW262251  14.468   8.362   7.785
86807SOL     OW62252   7.593   3.735  10.341
86807SOL    HW162253   7.654   3.799  10.378
86807SOL    HW262254   7.644   3.655  10.331
86808SOL     OW62255  11.981   1.728  12.094
86808SOL    HW162256  12.026   1.795  12.043
86808SOL    HW262257  12.034   1.719  12.174
86809SOL     OW62258   9.054   6.806   8.026
86809SOL    HW162259   8.979   6.845   8.072
86809SOL    HW262260   9.015   6.749   7.960
86810SOL     OW62261   9.807  12.251   7.070
86810SOL    HW162262   9.791  12.342   7.094
86810SOL    HW262263   9.764  12.200   7.139
86811SOL     OW62264   8.032   5.803  14.243
86811SOL    HW162265   8.008   5.719  14.204
86811SOL    HW262266   8.077   5.779  14.324
86812SOL     OW62267   4.400  14.071   4.702
86812SOL    HW162268   4.338  14.021   4.755
86812SOL    HW262269   4.373  14.054   4.611
86813SOL     OW62270   3.423  10.655   1.973
86813SOL    HW162271   3.360  10.683   2.040
86813SOL    HW262272   3.499  10.625   2.023
86814SOL     OW62273  11.702  12.942   0.293
86814SOL    HW162274  11.660  12.938   0.379
86814SOL    HW262275  11.704  12.851   0.263
86815SOL     OW62276   9.081   9.251   3.190
86815SOL    HW162277   9.160   9.304   3.180
86815SOL    HW262278   9.110   9.175   3.240
86816SOL     OW62279   6.236   0.334  10.482
86816SOL    HW162280   6.297   0.262  10.465
86816SOL    HW262281   6.224   0.334  10.577
86817SOL     OW62282   3.664   2.092  13.596
86817SOL    HW162283   3.651   2.180  13.562
86817SOL    HW262284   3.579   2.049  13.586
86818SOL     OW62285   8.109   6.191  11.127
86818SOL    HW162286   8.169   6.224  11.194
86818SOL    HW262287   8.156   6.203  11.044
86819SOL     OW62288  13.094   7.843   1.880
86819SOL    HW162289  13.022   7.781   1.873
86819SOL    HW262290  13.055   7.929   1.863
86820SOL     OW62291   6.980   3.141   4.116
86820SOL    HW162292   6.974   3.222   4.166
86820SOL    HW262293   6.891   3.124   4.086
86821SOL     OW62294   2.711   3.237   5.885
86821SOL    HW162295   2.705   3.228   5.980
86821SOL    HW262296   2.714   3.146   5.853
86822SOL     OW62297  12.706   7.480   2.098
86822SOL    HW162298  12.667   7.553   2.147
86822SOL    HW262299  12.797   7.478   2.126
86823SOL     OW62300   8.242  11.574  10.369
86823SOL    HW162301   8.277  11.546  10.284
86823SOL    HW262302   8.151  11.547  10.368
86824SOL     OW62303  11.783   4.577  10.629
86824SOL    HW162304  11.696   4.615  10.619
86824SOL    HW262305  11.786   4.506  10.566
86825SOL     OW62306   9.014   8.054   1.042
86825SOL    HW162307   9.030   8.115   0.969
86825SOL    HW262308   8.942   8.094   1.091
86826SOL     OW62309  11.681  12.874   6.426
86826SOL    HW162310  11.593  12.865   6.461
86826SOL    HW262311  11.675  12.840   6.336
86827SOL     OW62312   0.357  10.087  12.676
86827SOL    HW162313   0.321  10.127  12.598
86827SOL    HW262314   0.443  10.053  12.649
86828SOL     OW62315   3.359   0.474   6.497
86828SOL    HW162316   3.355   0.530   6.419
86828SOL    HW262317   3.267   0.460   6.521
86829SOL     OW62318  14.075   1.296  12.409
86829SOL    HW162319  14.128   1.254  12.477
86829SOL    HW262320  13.986   1.265  12.425
86830SOL     OW62321   3.563   2.857   0.866
86830SOL    HW162322   3.583   2.764   0.849
86830SOL    HW262323   3.638   2.889   0.917
86831SOL     OW62324   9.218   5.912  14.072
86831SOL    HW162325   9.131   5.885  14.042
86831SOL    HW262326   9.274   5.903  13.995
86832SOL     OW62327   5.340   1.728   5.479
86832SOL    HW162328   5.284   1.794   5.521
86832SOL    HW262329   5.351   1.760   5.390
86833SOL     OW62330   2.826   7.925  13.995
86833SOL    HW162331   2.807   8.015  14.022
86833SOL    HW262332   2.854   7.933  13.903
86834SOL     OW62333   6.103   3.762  12.393
86834SOL    HW162334   6.072   3.828  12.331
86834SOL    HW262335   6.046   3.772  12.469
86835SOL     OW62336  14.485  11.872  12.572
86835SOL    HW162337  14.533  11.943  12.615
86835SOL    HW262338  14.428  11.836  12.640
86836SOL     OW62339  13.061   3.959   9.767
86836SOL    HW162340  13.031   3.877   9.728
86836SOL    HW262341  13.055   4.023   9.696
86837SOL     OW62342  11.639  10.820   6.777
86837SOL    HW162343  11.582  10.757   6.821
86837SOL    HW262344  11.592  10.903   6.784
86838SOL     OW62345  13.660  14.787  12.346
86838SOL    HW162346  13.706  14.709  12.375
86838SOL    HW262347  13.725  14.839  12.299
86839SOL     OW62348   2.138   2.787  11.098
86839SOL    HW162349   2.212   2.729  11.116
86839SOL    HW262350   2.117   2.771  11.006
86840SOL     OW62351  12.411   9.538   0.555
86840SOL    HW162352  12.379   9.617   0.511
86840SOL    HW262353  12.460   9.491   0.487
86841SOL     OW62354   8.994   0.679   2.763
86841SOL    HW162355   8.917   0.643   2.807
86841SOL    HW262356   8.995   0.772   2.787
86842SOL     OW62357   8.798  10.944   9.300
86842SOL    HW162358   8.801  10.869   9.359
86842SOL    HW262359   8.878  10.993   9.319
86843SOL     OW62360   1.366   0.697   8.403
86843SOL    HW162361   1.396   0.747   8.479
86843SOL    HW262362   1.313   0.627   8.441
86844SOL     OW62363   1.983   0.004  10.286
86844SOL    HW162364   1.929   0.081  10.268
86844SOL    HW262365   1.920  14.818  10.311
86845SOL     OW62366   6.394   0.050   5.879
86845SOL    HW162367   6.382   0.119   5.814
86845SOL    HW262368   6.352  14.855   5.839
86846SOL     OW62369   0.337   9.780   4.029
86846SOL    HW162370   0.329   9.695   4.073
86846SOL    HW262371   0.333   9.759   3.936
86847SOL     OW62372   9.364  13.661   8.288
86847SOL    HW162373   9.428  13.661   8.359
86847SOL    HW262374   9.362  13.570   8.259
86848SOL     OW62375   8.545   3.844   7.556
86848SOL    HW162376   8.541   3.932   7.518
86848SOL    HW262377   8.625   3.843   7.607
86849SOL     OW62378   2.936   9.439  10.862
86849SOL    HW162379   2.894   9.494  10.796
86849SOL    HW262380   2.882   9.360  10.865
86850SOL     OW62381  12.176   7.422   5.601
86850SOL    HW162382  12.218   7.374   5.673
86850SOL    HW262383  12.089   7.382   5.594
86851SOL     OW62384   2.592   4.261   9.459
86851SOL    HW162385   2.643   4.294   9.385
86851SOL    HW262386   2.609   4.167   9.459
86852SOL     OW62387   8.036   2.201   6.422
86852SOL    HW162388   8.108   2.162   6.372
86852SOL    HW262389   7.965   2.136   6.417
86853SOL     OW62390   9.001  11.978  10.634
86853SOL    HW162391   8.917  11.947  10.598
86853SOL    HW262392   8.978  12.010  10.721
86854SOL     OW62393  11.004   1.725   9.941
86854SOL    HW162394  10.992   1.759  10.030
86854SOL    HW262395  11.093   1.692   9.939
86855SOL     OW62396   7.282   9.894   2.145
86855SOL    HW162397   7.274   9.920   2.237
86855SOL    HW262398   7.376   9.878   2.133
86856SOL     OW62399   3.937   4.001   9.851
86856SOL    HW162400   3.886   4.070   9.893
86856SOL    HW262401   3.886   3.921   9.865
86857SOL     OW62402   5.220   0.180  14.631
86857SOL    HW162403   5.157   0.205  14.699
86857SOL    HW262404   5.244   0.090  14.654
86858SOL     OW62405   8.657   5.227   7.113
86858SOL    HW162406   8.613   5.279   7.046
86858SOL    HW262407   8.741   5.203   7.073
86859SOL     OW62408  11.441  13.091   8.098
86859SOL    HW162409  11.377  13.021   8.085
86859SOL    HW262410  11.499  13.083   8.022
86860SOL     OW62411  12.593   5.106  13.481
86860SOL    HW162412  12.558   5.024  13.445
86860SOL    HW262413  12.631   5.150  13.405
86861SOL     OW62414  10.639   3.368  11.959
86861SOL    HW162415  10.719   3.352  12.009
86861SOL    HW262416  10.589   3.287  11.967
86862SOL     OW62417  11.551  13.337   7.924
86862SOL    HW162418  11.505  13.317   7.842
86862SOL    HW262419  11.503  13.290   7.991
86863SOL     OW62420   0.339   3.726  13.571
86863SOL    HW162421   0.266   3.757  13.516
86863SOL    HW262422   0.300   3.713  13.657
86864SOL     OW62423   8.486   9.324   9.554
86864SOL    HW162424   8.391   9.324   9.539
86864SOL    HW262425   8.500   9.393   9.618
86865SOL     OW62426   8.064   2.260  14.598
86865SOL    HW162427   8.080   2.275  14.691
86865SOL    HW262428   8.020   2.339  14.568
86866SOL     OW62429   5.563  14.241   3.678
86866SOL    HW162430   5.527  14.164   3.723
86866SOL    HW262431   5.561  14.218   3.585
86867SOL     OW62432   2.214  12.701   3.645
86867SOL    HW162433   2.225  12.792   3.674
86867SOL    HW262434   2.134  12.672   3.689
86868SOL     OW62435  11.495  11.711   3.876
86868SOL    HW162436  11.567  11.725   3.938
86868SOL    HW262437  11.428  11.664   3.926
86869SOL     OW62438  13.101   7.202   5.383
86869SOL    HW162439  13.081   7.296   5.378
86869SOL    HW262440  13.138   7.181   5.297
86870SOL     OW62441   8.965  14.259   6.140
86870SOL    HW162442   8.953  14.167   6.164
86870SOL    HW262443   8.979  14.258   6.045
86871SOL     OW62444  11.883   2.813  10.977
86871SOL    HW162445  11.967   2.789  11.016
86871SOL    HW262446  11.838   2.862  11.046
86872SOL     OW62447  10.534  12.381  10.284
86872SOL    HW162448  10.446  12.362  10.315
86872SOL    HW262449  10.527  12.382  10.189
86873SOL     OW62450   6.585   8.613   7.529
86873SOL    HW162451   6.670   8.580   7.500
86873SOL    HW262452   6.590   8.614   7.625
86874SOL     OW62453  14.385  13.050  14.653
86874SOL    HW162454  14.418  13.084  14.570
86874SOL    HW262455  14.298  13.017  14.632
86875SOL     OW62456  10.727   9.786  14.459
86875SOL    HW162457  10.712   9.855  14.394
86875SOL    HW262458  10.733   9.833  14.543
86876SOL     OW62459   2.260   3.262   8.979
86876SOL    HW162460   2.167   3.247   8.965
86876SOL    HW262461   2.264   3.317   9.057
86877SOL     OW62462   6.688   6.020  14.081
86877SOL    HW162463   6.724   5.967  14.010
86877SOL    HW262464   6.620   5.964  14.119
86878SOL     OW62465  11.315   7.066   3.218
86878SOL    HW162466  11.268   7.123   3.157
86878SOL    HW262467  11.400   7.110   3.231
86879SOL     OW62468  12.841   3.719   7.667
86879SOL    HW162469  12.829   3.636   7.621
86879SOL    HW262470  12.932   3.717   7.697
86880SOL     OW62471  13.592  10.504   7.249
86880SOL    HW162472  13.652  10.432   7.233
86880SOL    HW262473  13.561  10.530   7.163
86881SOL     OW62474  13.969  12.053   4.514
86881SOL    HW162475  14.046  12.078   4.464
86881SOL    HW262476  13.898  12.050   4.450
86882SOL     OW62477   0.270   7.522  14.832
86882SOL    HW162478   0.291   7.480   0.033
86882SOL    HW262479   0.353   7.526  14.785
86883SOL     OW62480   1.898   1.684  11.264
86883SOL    HW162481   1.910   1.691  11.359
86883SOL    HW262482   1.987   1.676  11.229
86884SOL     OW62483   6.670  11.949   9.709
86884SOL    HW162484   6.762  11.944   9.738
86884SOL    HW262485   6.624  11.886   9.765
86885SOL     OW62486   1.187   2.062   8.368
86885SOL    HW162487   1.186   2.015   8.451
86885SOL    HW262488   1.185   2.154   8.392
86886SOL     OW62489   3.217   8.655  12.900
86886SOL    HW162490   3.133   8.661  12.854
86886SOL    HW262491   3.256   8.742  12.889
86887SOL     OW62492   8.208  14.046   6.005
86887SOL    HW162493   8.200  14.086   6.091
86887SOL    HW262494   8.171  14.110   5.945
86888SOL     OW62495   3.079  12.169  13.818
86888SOL    HW162496   3.137  12.100  13.849
86888SOL    HW262497   3.002  12.162  13.875
86889SOL     OW62498  11.936   9.585   5.177
86889SOL    HW162499  11.939   9.675   5.144
86889SOL    HW262500  12.007   9.581   5.241
86890SOL     OW62501   0.236   3.383   5.558
86890SOL    HW162502   0.305   3.448   5.573
86890SOL    HW262503   0.263   3.307   5.610
86891SOL     OW62504   0.549   4.998  10.920
86891SOL    HW162505   0.578   4.918  10.963
86891SOL    HW262506   0.460   4.979  10.889
86892SOL     OW62507  11.090  11.070  11.600
86892SOL    HW162508  11.006  11.028  11.616
86892SOL    HW262509  11.069  11.155  11.562
86893SOL     OW62510   3.172   9.552   7.682
86893SOL    HW162511   3.153   9.490   7.611
86893SOL    HW262512   3.142   9.508   7.761
86894SOL     OW62513   1.230   6.926  14.032
86894SOL    HW162514   1.309   6.874  14.016
86894SOL    HW262515   1.163   6.861  14.054
86895SOL     OW62516   6.034  14.556   1.602
86895SOL    HW162517   6.019  14.489   1.669
86895SOL    HW262518   6.124  14.541   1.573
86896SOL     OW62519   3.962   7.231   8.589
86896SOL    HW162520   4.008   7.271   8.515
86896SOL    HW262521   3.911   7.160   8.549
86897SOL     OW62522  11.762   2.879   1.696
86897SOL    HW162523  11.676   2.905   1.664
86897SOL    HW262524  11.789   2.808   1.637
86898SOL     OW62525   4.945   8.449   6.594
86898SOL    HW162526   5.007   8.446   6.521
86898SOL    HW262527   4.993   8.493   6.664
86899SOL     OW62528   2.317   8.741   2.305
86899SOL    HW162529   2.383   8.809   2.288
86899SOL    HW262530   2.363   8.674   2.354
86900SOL     OW62531  13.219   6.249  14.846
86900SOL    HW162532  13.312   6.244  14.870
86900SOL    HW262533  13.215   6.204  14.761
86901SOL     OW62534   7.942   4.933  14.214
86901SOL    HW162535   7.850   4.956  14.199
86901SOL    HW262536   7.946   4.913  14.308
86902SOL     OW62537   5.222  13.603   8.820
86902SOL    HW162538   5.232  13.669   8.889
86902SOL    HW262539   5.311  13.591   8.786
86903SOL     OW62540   8.566  12.063   2.047
86903SOL    HW162541   8.581  11.979   2.089
86903SOL    HW262542   8.519  12.115   2.113
86904SOL     OW62543  13.310   5.991   4.923
86904SOL    HW162544  13.374   5.923   4.903
86904SOL    HW262545  13.310   6.048   4.846
86905SOL     OW62546   5.847   0.293   2.826
86905SOL    HW162547   5.879   0.216   2.781
86905SOL    HW262548   5.803   0.259   2.904
86906SOL     OW62549   6.803  10.271  13.316
86906SOL    HW162550   6.887  10.240  13.281
86906SOL    HW262551   6.742  10.200  13.298
86907SOL     OW62552   5.599  14.568   6.116
86907SOL    HW162553   5.621  14.560   6.209
86907SOL    HW262554   5.647  14.497   6.074
86908SOL     OW62555   9.232  10.626   3.367
86908SOL    HW162556   9.199  10.702   3.320
86908SOL    HW262557   9.191  10.631   3.454
86909SOL     OW62558  13.443  12.217   9.918
86909SOL    HW162559  13.492  12.277   9.863
86909SOL    HW262560  13.510  12.164   9.961
86910SOL     OW62561   7.879   1.468  12.942
86910SOL    HW162562   7.876   1.372  12.948
86910SOL    HW262563   7.822   1.490  12.869
86911SOL     OW62564   0.746   3.334   8.232
86911SOL    HW162565   0.787   3.251   8.257
86911SOL    HW262566   0.659   3.332   8.274
86912SOL     OW62567  12.206   6.487   1.972
86912SOL    HW162568  12.293   6.525   1.967
86912SOL    HW262569  12.153   6.554   2.016
86913SOL     OW62570  13.020   7.798  12.402
86913SOL    HW162571  12.971   7.718  12.422
86913SOL    HW262572  12.979   7.866  12.455
86914SOL     OW62573   8.391  14.105   3.726
86914SOL    HW162574   8.428  14.105   3.814
86914SOL    HW262575   8.466  14.095   3.668
86915SOL     OW62576  10.148   7.745   8.213
86915SOL    HW162577  10.123   7.802   8.285
86915SOL    HW262578  10.227   7.701   8.244
86916SOL     OW62579   8.176   4.997  14.091
86916SOL    HW162580   8.107   4.956  14.144
86916SOL    HW262581   8.254   4.946  14.110
86917SOL     OW62582   1.571   5.227   6.664
86917SOL    HW162583   1.598   5.318   6.651
86917SOL    HW262584   1.488   5.233   6.712
86918SOL     OW62585   0.787  12.200  10.747
86918SOL    HW162586   0.859  12.143  10.774
86918SOL    HW262587   0.728  12.143  10.699
86919SOL     OW62588   2.350   3.579   7.244
86919SOL    HW162589   2.281   3.634   7.283
86919SOL    HW262590   2.388   3.532   7.318
86920SOL     OW62591  13.897   4.841   4.505
86920SOL    HW162592  13.865   4.848   4.595
86920SOL    HW262593  13.971   4.901   4.502
86921SOL     OW62594   2.194   2.730   8.178
86921SOL    HW162595   2.120   2.772   8.133
86921SOL    HW262596   2.185   2.758   8.269
86922SOL     OW62597   9.507   0.254  13.171
86922SOL    HW162598   9.579   0.224  13.116
86922SOL    HW262599   9.536   0.238  13.260
86923SOL     OW62600   0.716  13.477   7.364
86923SOL    HW162601   0.644  13.482   7.427
86923SOL    HW262602   0.705  13.393   7.321
86924SOL     OW62603   2.394   9.399   5.309
86924SOL    HW162604   2.447   9.454   5.367
86924SOL    HW262605   2.409   9.436   5.222
86925SOL     OW62606   1.194  12.440   3.896
86925SOL    HW162607   1.180  12.389   3.976
86925SOL    HW262608   1.202  12.374   3.827
86926SOL     OW62609   4.592   0.527   4.396
86926SOL    HW162610   4.554   0.442   4.374
86926SOL    HW262611   4.662   0.539   4.331
86927SOL     OW62612   6.271   1.035   9.906
86927SOL    HW162613   6.249   1.063   9.817
86927SOL    HW262614   6.249   1.110   9.961
86928SOL     OW62615  10.569   9.803  11.807
86928SOL    HW162616  10.495   9.835  11.859
86928SOL    HW262617  10.538   9.803  11.717
86929SOL     OW62618   7.121   5.733  14.036
86929SOL    HW162619   7.090   5.696  13.953
86929SOL    HW262620   7.215   5.713  14.037
86930SOL     OW62621   6.347   0.050  12.303
86930SOL    HW162622   6.374   0.062  12.394
86930SOL    HW262623   6.389   0.122  12.255
86931SOL     OW62624   9.690   3.421  10.529
86931SOL    HW162625   9.742   3.430  10.448
86931SOL    HW262626   9.734   3.478  10.592
86932SOL     OW62627   1.064   3.328  12.088
86932SOL    HW162628   1.037   3.340  11.997
86932SOL    HW262629   0.999   3.267  12.124
86933SOL     OW62630  10.119  11.282   0.109
86933SOL    HW162631  10.031  11.245   0.110
86933SOL    HW262632  10.156  11.256   0.025
86934SOL     OW62633   3.788  14.137   0.173
86934SOL    HW162634   3.823  14.220   0.207
86934SOL    HW262635   3.735  14.164   0.098
86935SOL     OW62636   6.592  14.150  10.184
86935SOL    HW162637   6.582  14.086  10.254
86935SOL    HW262638   6.684  14.141  10.156
86936SOL     OW62639   1.140  11.083  12.466
86936SOL    HW162640   1.106  11.156  12.518
86936SOL    HW262641   1.218  11.054  12.513
86937SOL     OW62642   4.918  13.170   0.662
86937SOL    HW162643   4.963  13.224   0.597
86937SOL    HW262644   4.890  13.232   0.729
86938SOL     OW62645   3.419   1.917  14.724
86938SOL    HW162646   3.422   1.898  14.630
86938SOL    HW262647   3.476   1.852  14.764
86939SOL     OW62648   7.892  10.013   9.024
86939SOL    HW162649   7.961  10.078   9.042
86939SOL    HW262650   7.824  10.064   8.979
86940SOL     OW62651   6.047   5.631  14.112
86940SOL    HW162652   5.962   5.622  14.156
86940SOL    HW262653   6.074   5.721  14.130
86941SOL     OW62654   7.949   6.560   2.334
86941SOL    HW162655   7.886   6.500   2.293
86941SOL    HW262656   7.894   6.620   2.384
86942SOL     OW62657   9.526  12.365  13.314
86942SOL    HW162658   9.566  12.299  13.257
86942SOL    HW262659   9.468  12.314  13.371
86943SOL     OW62660   5.265   1.191   0.623
86943SOL    HW162661   5.303   1.135   0.554
86943SOL    HW262662   5.196   1.137   0.662
86944SOL     OW62663   6.942   5.166   0.558
86944SOL    HW162664   6.884   5.121   0.620
86944SOL    HW262665   6.933   5.259   0.581
86945SOL     OW62666  10.359   3.432   0.995
86945SOL    HW162667  10.296   3.364   0.972
86945SOL    HW262668  10.413   3.443   0.917
86946SOL     OW62669   8.402  13.551   2.550
86946SOL    HW162670   8.380  13.475   2.496
86946SOL    HW262671   8.434  13.616   2.488
86947SOL     OW62672  11.144   9.119   7.018
86947SOL    HW162673  11.220   9.070   7.048
86947SOL    HW262674  11.105   9.155   7.097
86948SOL     OW62675  10.757  13.775  14.160
86948SOL    HW162676  10.844  13.766  14.123
86948SOL    HW262677  10.753  13.708  14.229
86949SOL     OW62678  12.489  13.465  14.358
86949SOL    HW162679  12.424  13.533  14.339
86949SOL    HW262680  12.548  13.467  14.283
86950SOL     OW62681   4.984   6.506   8.697
86950SOL    HW162682   4.943   6.430   8.738
86950SOL    HW262683   4.921   6.536   8.632
86951SOL     OW62684  10.825  10.310  11.590
86951SOL    HW162685  10.837  10.367  11.666
86951SOL    HW262686  10.760  10.245  11.618
86952SOL     OW62687   8.521   6.433   6.348
86952SOL    HW162688   8.575   6.411   6.272
86952SOL    HW262689   8.442   6.472   6.312
86953SOL     OW62690   3.206  14.361   6.294
86953SOL    HW162691   3.256  14.420   6.351
86953SOL    HW262692   3.166  14.419   6.229
86954SOL     OW62693   5.339   7.187   9.175
86954SOL    HW162694   5.431   7.196   9.202
86954SOL    HW262695   5.314   7.099   9.204
86955SOL     OW62696  10.512   9.590   5.564
86955SOL    HW162697  10.586   9.577   5.624
86955SOL    HW262698  10.450   9.643   5.613
86956SOL     OW62699   9.697   9.855   7.720
86956SOL    HW162700   9.709   9.780   7.778
86956SOL    HW262701   9.685   9.816   7.633
86957SOL     OW62702  10.379   1.187   8.379
86957SOL    HW162703  10.455   1.216   8.429
86957SOL    HW262704  10.378   1.092   8.390
86958SOL     OW62705  14.350   3.587  13.868
86958SOL    HW162706  14.417   3.518  13.862
86958SOL    HW262707  14.284   3.551  13.927
86959SOL     OW62708   2.787   1.126   2.770
86959SOL    HW162709   2.704   1.158   2.735
86959SOL    HW262710   2.784   1.150   2.863
86960SOL     OW62711   8.175   6.860   2.617
86960SOL    HW162712   8.192   6.786   2.559
86960SOL    HW262713   8.247   6.859   2.680
86961SOL     OW62714  14.790  12.035   3.660
86961SOL    HW162715  14.718  12.055   3.601
86961SOL    HW262716  14.863  12.011   3.602
86962SOL     OW62717   6.245   1.237   0.324
86962SOL    HW162718   6.277   1.229   0.414
86962SOL    HW262719   6.315   1.282   0.277
86963SOL     OW62720   8.152  12.165   0.345
86963SOL    HW162721   8.234  12.146   0.298
86963SOL    HW262722   8.119  12.244   0.302
86964SOL     OW62723  14.823   1.482   8.718
86964SOL    HW162724  14.823   1.489   8.814
86964SOL    HW262725  14.752   1.539   8.689
86965SOL     OW62726  12.915   5.109   3.973
86965SOL    HW162727  12.892   5.192   3.933
86965SOL    HW262728  12.966   5.132   4.051
86966SOL     OW62729  11.695   9.777  14.750
86966SOL    HW162730  11.651   9.795  14.834
86966SOL    HW262731  11.704   9.681  14.749
86967SOL     OW62732   8.560   5.679   2.824
86967SOL    HW162733   8.642   5.716   2.857
86967SOL    HW262734   8.574   5.670   2.730
86968SOL     OW62735  12.237   5.037   3.784
86968SOL    HW162736  12.316   5.092   3.790
86968SOL    HW262737  12.235   5.008   3.693
86969SOL     OW62738   8.472  12.730  10.827
86969SOL    HW162739   8.433  12.786  10.759
86969SOL    HW262740   8.496  12.650  10.780
86970SOL     OW62741   1.071   7.390  10.653
86970SOL    HW162742   1.076   7.298  10.680
86970SOL    HW262743   1.149   7.430  10.690
86971SOL     OW62744   8.758  12.185   6.829
86971SOL    HW162745   8.854  12.180   6.836
86971SOL    HW262746   8.742  12.265   6.778
86972SOL     OW62747  13.362   2.628   4.369
86972SOL    HW162748  13.300   2.626   4.296
86972SOL    HW262749  13.379   2.721   4.383
86973SOL     OW62750   7.839   5.242   4.763
86973SOL    HW162751   7.912   5.206   4.712
86973SOL    HW262752   7.796   5.303   4.702
86974SOL     OW62753   1.319   5.202   8.021
86974SOL    HW162754   1.287   5.116   8.046
86974SOL    HW262755   1.241   5.250   7.994
86975SOL     OW62756  14.349  12.975   1.621
86975SOL    HW162757  14.288  13.036   1.579
86975SOL    HW262758  14.299  12.938   1.693
86976SOL     OW62759   1.492   6.609   6.395
86976SOL    HW162760   1.457   6.603   6.306
86976SOL    HW262761   1.572   6.660   6.387
86977SOL     OW62762   8.609   9.914   3.729
86977SOL    HW162763   8.537   9.853   3.714
86977SOL    HW262764   8.594   9.948   3.817
86978SOL     OW62765   7.030   9.444   4.936
86978SOL    HW162766   7.069   9.408   5.016
86978SOL    HW262767   6.963   9.380   4.912
86979SOL     OW62768   6.270   2.367   3.950
86979SOL    HW162769   6.189   2.416   3.959
86979SOL    HW262770   6.336   2.433   3.930
86980SOL     OW62771   2.609   5.042   7.637
86980SOL    HW162772   2.629   4.949   7.627
86980SOL    HW262773   2.661   5.069   7.712
86981SOL     OW62774   7.571   8.244   7.734
86981SOL    HW162775   7.605   8.256   7.822
86981SOL    HW262776   7.633   8.290   7.677
86982SOL     OW62777   1.827  11.373   7.299
86982SOL    HW162778   1.734  11.392   7.305
86982SOL    HW262779   1.839  11.296   7.355
86983SOL     OW62780   7.083   6.855   8.571
86983SOL    HW162781   7.124   6.780   8.526
86983SOL    HW262782   7.090   6.833   8.664
86984SOL     OW62783  10.445   1.466  11.752
86984SOL    HW162784  10.427   1.554  11.784
86984SOL    HW262785  10.506   1.479  11.679
86985SOL     OW62786  11.066   5.724   6.957
86985SOL    HW162787  11.151   5.683   6.946
86985SOL    HW262788  11.049   5.718   7.051
86986SOL     OW62789  10.331  11.525  14.634
86986SOL    HW162790  10.274  11.464  14.588
86986SOL    HW262791  10.383  11.470  14.693
86987SOL     OW62792   5.631  14.043   0.839
86987SOL    HW162793   5.582  13.962   0.826
86987SOL    HW262794   5.634  14.055   0.934
86988SOL     OW62795   9.206   6.035  13.023
86988SOL    HW162796   9.296   6.066  13.017
86988SOL    HW262797   9.164   6.067  12.944
86989SOL     OW62798  11.442  10.722   7.235
86989SOL    HW162799  11.350  10.748   7.232
86989SOL    HW262800  11.476  10.763   7.314
86990SOL     OW62801   6.343   0.986   3.862
86990SOL    HW162802   6.414   1.030   3.909
86990SOL    HW262803   6.386   0.920   3.809
86991SOL     OW62804   4.071  12.336   7.204
86991SOL    HW162805   4.040  12.246   7.200
86991SOL    HW262806   4.107  12.345   7.292
86992SOL     OW62807  12.315  12.035   6.177
86992SOL    HW162808  12.245  12.058   6.237
86992SOL    HW262809  12.283  12.061   6.091
86993SOL     OW62810   6.957  11.430   6.700
86993SOL    HW162811   6.978  11.401   6.611
86993SOL    HW262812   6.866  11.404   6.713
86994SOL     OW62813   4.166   2.343  11.074
86994SOL    HW162814   4.094   2.317  11.017
86994SOL    HW262815   4.128   2.349  11.161
86995SOL     OW62816   0.090   8.673   3.443
86995SOL    HW162817   0.017   8.642   3.497
86995SOL    HW262818   0.113   8.597   3.389
86996SOL     OW62819   7.173   6.888   2.176
86996SOL    HW162820   7.161   6.877   2.271
86996SOL    HW262821   7.250   6.834   2.156
86997SOL     OW62822   5.365   1.362   3.445
86997SOL    HW162823   5.310   1.301   3.397
86997SOL    HW262824   5.401   1.422   3.379
86998SOL     OW62825   1.715   4.519   1.758
86998SOL    HW162826   1.703   4.495   1.666
86998SOL    HW262827   1.760   4.443   1.797
86999SOL     OW62828   6.424  13.045   6.865
86999SOL    HW162829   6.432  13.123   6.920
86999SOL    HW262830   6.464  12.975   6.917
87000SOL     OW62831   6.843   5.708  11.357
87000SOL    HW162832   6.906   5.760  11.407
87000SOL    HW262833   6.832   5.757  11.275
87001SOL     OW62834   3.972   0.443   2.990
87001SOL    HW162835   3.930   0.430   3.075
87001SOL    HW262836   4.062   0.414   3.003
87002SOL     OW62837   7.561   3.702   2.077
87002SOL    HW162838   7.650   3.678   2.049
87002SOL    HW262839   7.508   3.626   2.052
87003SOL     OW62840   6.493   2.716   1.425
87003SOL    HW162841   6.570   2.768   1.403
87003SOL    HW262842   6.423   2.780   1.433
87004SOL     OW62843  12.850   9.635   8.103
87004SOL    HW162844  12.805   9.683   8.034
87004SOL    HW262845  12.938   9.618   8.067
87005SOL     OW62846   2.339   1.708   5.751
87005SOL    HW162847   2.429   1.739   5.757
87005SOL    HW262848   2.289   1.785   5.726
87006SOL     OW62849   3.701   5.970   8.591
87006SOL    HW162850   3.652   5.893   8.563
87006SOL    HW262851   3.728   6.012   8.510
87007SOL     OW62852  10.992   8.328   9.798
87007SOL    HW162853  10.907   8.370   9.790
87007SOL    HW262854  11.055   8.398   9.781
87008SOL     OW62855   5.317  12.629   3.261
87008SOL    HW162856   5.289  12.635   3.353
87008SOL    HW262857   5.318  12.719   3.230
87009SOL     OW62858   9.870  10.940  11.788
87009SOL    HW162859   9.918  10.941  11.871
87009SOL    HW262860   9.778  10.935  11.813
87010SOL     OW62861   6.893   5.256  10.168
87010SOL    HW162862   6.863   5.188  10.108
87010SOL    HW262863   6.841   5.333  10.144
87011SOL     OW62864  10.457  10.709  13.578
87011SOL    HW162865  10.546  10.741  13.591
87011SOL    HW262866  10.404  10.763  13.637
87012SOL     OW62867   1.049  11.500  14.012
87012SOL    HW162868   1.042  11.594  14.028
87012SOL    HW262869   1.066  11.492  13.919
87013SOL     OW62870   2.606  11.820   6.137
87013SOL    HW162871   2.678  11.772   6.096
87013SOL    HW262872   2.631  11.826   6.229
87014SOL     OW62873   5.138  11.491   7.895
87014SOL    HW162874   5.095  11.560   7.945
87014SOL    HW262875   5.078  11.473   7.823
87015SOL     OW62876  11.602   5.051  14.252
87015SOL    HW162877  11.655   5.086  14.324
87015SOL    HW262878  11.666   5.025  14.186
87016SOL     OW62879  13.478   9.804  11.401
87016SOL    HW162880  13.436   9.725  11.434
87016SOL    HW262881  13.572   9.790  11.415
87017SOL     OW62882   0.066   5.275   7.224
87017SOL    HW162883   0.125   5.218   7.273
87017SOL    HW262884   0.038   5.223   7.149
87018SOL     OW62885  14.667   0.778  12.519
87018SOL    HW162886  14.746   0.784  12.572
87018SOL    HW262887  14.615   0.709  12.561
87019SOL     OW62888   6.721  13.615   9.149
87019SOL    HW162889   6.752  13.573   9.229
87019SOL    HW262890   6.661  13.551   9.110
87020SOL     OW62891   3.613  11.470   0.399
87020SOL    HW162892   3.624  11.453   0.493
87020SOL    HW262893   3.564  11.394   0.367
87021SOL     OW62894  10.733   8.334  10.198
87021SOL    HW162895  10.709   8.369  10.284
87021SOL    HW262896  10.790   8.259  10.218
87022SOL     OW62897   8.647   0.294   8.580
87022SOL    HW162898   8.633   0.290   8.674
87022SOL    HW262899   8.560   0.306   8.543
87023SOL     OW62900   8.630  12.620   2.953
87023SOL    HW162901   8.647  12.674   3.030
87023SOL    HW262902   8.647  12.678   2.879
87024SOL     OW62903  10.372   0.747   4.273
87024SOL    HW162904  10.397   0.656   4.290
87024SOL    HW262905  10.355   0.750   4.179
87025SOL     OW62906   0.921   6.699   9.776
87025SOL    HW162907   0.909   6.657   9.861
87025SOL    HW262908   0.995   6.653   9.736
87026SOL     OW62909   6.012  11.467   7.044
87026SOL    HW162910   6.018  11.374   7.018
87026SOL    HW262911   6.103  11.492   7.061
87027SOL     OW62912  13.325   4.177   6.220
87027SOL    HW162913  13.410   4.188   6.176
87027SOL    HW262914  13.261   4.203   6.154
87028SOL     OW62915   3.159   1.146  10.879
87028SOL    HW162916   3.175   1.113  10.967
87028SOL    HW262917   3.091   1.212  10.890
87029SOL     OW62918   4.836   8.311   8.202
87029SOL    HW162919   4.880   8.355   8.274
87029SOL    HW262920   4.857   8.363   8.125
87030SOL     OW62921   3.924   9.964   4.641
87030SOL    HW162922   3.922   9.900   4.569
87030SOL    HW262923   3.922   9.910   4.720
87031SOL     OW62924  12.475  12.928  13.267
87031SOL    HW162925  12.389  12.887  13.259
87031SOL    HW262926  12.528  12.888  13.197
87032SOL     OW62927  13.308   8.112   5.395
87032SOL    HW162928  13.243   8.043   5.384
87032SOL    HW262929  13.324   8.145   5.307
87033SOL     OW62930  10.386   6.632   7.826
87033SOL    HW162931  10.325   6.704   7.842
87033SOL    HW262932  10.464   6.655   7.876
87034SOL     OW62933   9.774   9.740  12.909
87034SOL    HW162934   9.710   9.738  12.837
87034SOL    HW262935   9.855   9.769  12.867
87035SOL     OW62936   7.063  13.627   9.211
87035SOL    HW162937   7.064  13.710   9.162
87035SOL    HW262938   7.142  13.631   9.265
87036SOL     OW62939   3.671   4.694  14.289
87036SOL    HW162940   3.712   4.741  14.217
87036SOL    HW262941   3.581   4.726  14.290
87037SOL     OW62942  14.091   5.140  10.719
87037SOL    HW162943  14.182   5.108  10.713
87037SOL    HW262944  14.041   5.075  10.669
87038SOL     OW62945   0.731   7.545   9.215
87038SOL    HW162946   0.639   7.571   9.214
87038SOL    HW262947   0.728   7.450   9.226
87039SOL     OW62948   9.725  11.052   5.018
87039SOL    HW162949   9.812  11.017   4.998
87039SOL    HW262950   9.725  11.140   4.981
87040SOL     OW62951   9.658   0.346   6.526
87040SOL    HW162952   9.580   0.318   6.477
87040SOL    HW262953   9.659   0.289   6.603
87041SOL     OW62954   5.500   2.805   4.917
87041SOL    HW162955   5.474   2.853   4.838
87041SOL    HW262956   5.559   2.864   4.963
87042SOL     OW62957   3.587   0.822   5.369
87042SOL    HW162958   3.541   0.739   5.381
87042SOL    HW262959   3.614   0.848   5.457
87043SOL     OW62960   7.806  13.320  11.967
87043SOL    HW162961   7.796  13.334  11.873
87043SOL    HW262962   7.900  13.326  11.983
87044SOL     OW62963   7.812   8.709   1.612
87044SOL    HW162964   7.775   8.626   1.584
87044SOL    HW262965   7.810   8.706   1.707
87045SOL     OW62966   5.052  13.850   1.105
87045SOL    HW162967   5.069  13.945   1.111
87045SOL    HW262968   5.001  13.830   1.183
87046SOL     OW62969   3.656   1.033  10.520
87046SOL    HW162970   3.572   1.033  10.475
87046SOL    HW262971   3.718   1.068  10.456
87047SOL     OW62972   0.355   7.529  14.057
87047SOL    HW162973   0.283   7.553  14.116
87047SOL    HW262974   0.328   7.446  14.018
87048SOL     OW62975  13.369   2.141   4.885
87048SOL    HW162976  13.353   2.095   4.967
87048SOL    HW262977  13.400   2.228   4.912
87049SOL     OW62978   6.879   0.635   0.040
87049SOL    HW162979   6.950   0.685   0.001
87049SOL    HW262980   6.807   0.698   0.049
87050SOL     OW62981   8.629   3.446  11.796
87050SOL    HW162982   8.638   3.509  11.724
87050SOL    HW262983   8.655   3.362  11.759
87051SOL     OW62984   3.873   5.402   1.106
87051SOL    HW162985   3.955   5.401   1.057
87051SOL    HW262986   3.868   5.490   1.143
87052SOL     OW62987   3.356   4.998   1.557
87052SOL    HW162988   3.329   4.947   1.481
87052SOL    HW262989   3.383   5.082   1.521
87053SOL     OW62990   2.563  12.510   5.983
87053SOL    HW162991   2.506  12.553   5.920
87053SOL    HW262992   2.625  12.579   6.010
87054SOL     OW62993  10.099   2.216   7.650
87054SOL    HW162994  10.052   2.276   7.707
87054SOL    HW262995  10.144   2.156   7.711
87055SOL     OW62996   7.595   9.396   1.868
87055SOL    HW162997   7.516   9.392   1.814
87055SOL    HW262998   7.656   9.335   1.825
87056SOL     OW62999   0.819   9.688   4.276
87056SOL    HW163000   0.806   9.645   4.192
87056SOL    HW263001   0.768   9.635   4.338
87057SOL     OW63002   4.927  12.380  10.150
87057SOL    HW163003   4.853  12.430  10.115
87057SOL    HW263004   4.997  12.445  10.159
87058SOL     OW63005   6.029   9.146   9.550
87058SOL    HW163006   6.053   9.235   9.526
87058SOL    HW263007   5.934   9.144   9.539
87059SOL     OW63008   5.117   4.769   9.560
87059SOL    HW163009   5.149   4.816   9.483
87059SOL    HW263010   5.139   4.677   9.543
87060SOL     OW63011   0.175   7.988  10.488
87060SOL    HW163012   0.140   8.059  10.434
87060SOL    HW263013   0.199   8.030  10.571
87061SOL     OW63014  14.812  13.317  11.296
87061SOL    HW163015  14.759  13.367  11.357
87061SOL    HW263016  14.749  13.273  11.239
87062SOL     OW63017   1.841   6.749   7.701
87062SOL    HW163018   1.935   6.769   7.704
87062SOL    HW263019   1.811   6.791   7.621
87063SOL     OW63020  10.245   4.078  10.004
87063SOL    HW163021  10.287   4.080  10.090
87063SOL    HW263022  10.192   3.998  10.004
87064SOL     OW63023   9.891   6.024   1.065
87064SOL    HW163024   9.900   6.089   1.134
87064SOL    HW263025   9.797   6.023   1.044
87065SOL     OW63026  10.884  10.173  11.980
87065SOL    HW163027  10.963  10.185  12.032
87065SOL    HW263028  10.830  10.250  12.000
87066SOL     OW63029   0.653   5.679   6.998
87066SOL    HW163030   0.629   5.587   7.005
87066SOL    HW263031   0.714   5.682   6.924
87067SOL     OW63032   5.173   3.622  14.548
87067SOL    HW163033   5.103   3.578  14.597
87067SOL    HW263034   5.227   3.664  14.616
87068SOL     OW63035   4.338   9.587   1.508
87068SOL    HW163036   4.415   9.608   1.454
87068SOL    HW263037   4.360   9.620   1.595
87069SOL     OW63038   0.565   8.873  13.257
87069SOL    HW163039   0.644   8.926  13.248
87069SOL    HW263040   0.497   8.936  13.281
87070SOL     OW63041   3.180   4.144  14.132
87070SOL    HW163042   3.231   4.080  14.183
87070SOL    HW263043   3.135   4.197  14.198
87071SOL     OW63044  14.286   6.374  13.202
87071SOL    HW163045  14.363   6.373  13.259
87071SOL    HW263046  14.321   6.369  13.113
87072SOL     OW63047   1.041   0.792   2.779
87072SOL    HW163048   1.075   0.778   2.867
87072SOL    HW263049   1.088   0.869   2.747
87073SOL     OW63050   5.933   4.993   8.085
87073SOL    HW163051   5.940   5.036   7.999
87073SOL    HW263052   6.011   4.937   8.090
87074SOL     OW63053   6.555  10.087  12.068
87074SOL    HW163054   6.588  10.000  12.092
87074SOL    HW263055   6.490  10.107  12.135
87075SOL     OW63056   6.505  10.234  14.780
87075SOL    HW163057   6.577  10.291  14.808
87075SOL    HW263058   6.506  10.240  14.684
87076SOL     OW63059   8.367   4.421  12.283
87076SOL    HW163060   8.381   4.335  12.322
87076SOL    HW263061   8.452   4.465  12.292
87077SOL     OW63062  13.338  14.228  11.539
87077SOL    HW163063  13.352  14.293  11.469
87077SOL    HW263064  13.424  14.216  11.578
87078SOL     OW63065   8.490   5.044  13.822
87078SOL    HW163066   8.441   4.981  13.876
87078SOL    HW263067   8.505   4.999  13.739
87079SOL     OW63068   0.651  12.905  12.788
87079SOL    HW163069   0.574  12.925  12.841
87079SOL    HW263070   0.701  12.844  12.841
87080SOL     OW63071   6.192   3.444   8.307
87080SOL    HW163072   6.158   3.522   8.263
87080SOL    HW263073   6.187   3.465   8.400
87081SOL     OW63074   5.219   9.375  10.460
87081SOL    HW163075   5.132   9.339  10.447
87081SOL    HW263076   5.256   9.325  10.533
87082SOL     OW63077   6.579   5.918   2.762
87082SOL    HW163078   6.583   5.850   2.829
87082SOL    HW263079   6.655   5.973   2.780
87083SOL     OW63080  10.477   1.993   3.049
87083SOL    HW163081  10.567   2.020   3.029
87083SOL    HW263082  10.463   2.022   3.139
87084SOL     OW63083   8.959   5.219   6.500
87084SOL    HW163084   8.863   5.222   6.499
87084SOL    HW263085   8.980   5.154   6.568
87085SOL     OW63086   9.712  10.772   6.115
87085SOL    HW163087   9.716  10.861   6.150
87085SOL    HW263088   9.619  10.759   6.094
87086SOL     OW63089   8.011   9.427  14.611
87086SOL    HW163090   7.939   9.427  14.548
87086SOL    HW263091   8.086   9.391  14.562
87087SOL     OW63092   1.609   7.852  13.105
87087SOL    HW163093   1.640   7.939  13.131
87087SOL    HW263094   1.566   7.818  13.184
87088SOL     OW63095   4.299   9.278   7.451
87088SOL    HW163096   4.310   9.347   7.385
87088SOL    HW263097   4.331   9.318   7.532
87089SOL     OW63098  13.098   1.166   8.423
87089SOL    HW163099  13.182   1.149   8.379
87089SOL    HW263100  13.036   1.180   8.352
87090SOL     OW63101   3.789  13.364   6.841
87090SOL    HW163102   3.713  13.410   6.875
87090SOL    HW263103   3.780  13.371   6.746
87091SOL     OW63104   0.811   4.616  14.874
87091SOL    HW163105   0.813   4.588  14.783
87091SOL    HW263106   0.894   4.585   0.028
87092SOL     OW63107  14.048   7.505   6.256
87092SOL    HW163108  14.035   7.424   6.206
87092SOL    HW263109  13.977   7.563   6.227
87093SOL     OW63110  13.468  10.340   8.022
87093SOL    HW163111  13.416  10.322   8.100
87093SOL    HW263112  13.528  10.410   8.048
87094SOL     OW63113  12.777   7.996  14.429
87094SOL    HW163114  12.853   8.054  14.422
87094SOL    HW263115  12.805   7.915  14.388
87095SOL     OW63116  12.832  14.514   5.708
87095SOL    HW163117  12.797  14.490   5.622
87095SOL    HW263118  12.841  14.609   5.704
87096SOL     OW63119   5.904  14.810   1.161
87096SOL    HW163120   5.829  14.774   1.209
87096SOL    HW263121   5.878  14.805   1.069
87097SOL     OW63122   8.227  11.120  11.472
87097SOL    HW163123   8.315  11.081  11.474
87097SOL    HW263124   8.186  11.091  11.554
87098SOL     OW63125  12.373   7.208  14.516
87098SOL    HW163126  12.425   7.289  14.522
87098SOL    HW263127  12.284   7.239  14.500
87099SOL     OW63128  11.710   4.685  14.478
87099SOL    HW163129  11.624   4.642  14.484
87099SOL    HW263130  11.771   4.621  14.515
87100SOL     OW63131  14.853   6.679   1.672
87100SOL    HW163132  14.801   6.697   1.594
87100SOL    HW263133  14.794   6.699   1.745
87101SOL     OW63134   2.484  12.576   9.433
87101SOL    HW163135   2.567  12.554   9.390
87101SOL    HW263136   2.503  12.655   9.483
87102SOL     OW63137   5.003  13.369   7.453
87102SOL    HW163138   5.027  13.450   7.498
87102SOL    HW263139   4.920  13.390   7.410
87103SOL     OW63140  11.994   9.994   1.746
87103SOL    HW163141  11.971   9.909   1.709
87103SOL    HW263142  11.973  10.057   1.677
87104SOL     OW63143   3.745  12.790  13.687
87104SOL    HW163144   3.791  12.732  13.626
87104SOL    HW263145   3.770  12.878  13.661
87105SOL     OW63146   1.591   2.460   4.206
87105SOL    HW163147   1.530   2.433   4.274
87105SOL    HW263148   1.670   2.487   4.253
87106SOL     OW63149   8.675   6.621   8.807
87106SOL    HW163150   8.625   6.698   8.778
87106SOL    HW263151   8.763   6.635   8.773
87107SOL     OW63152   0.122   7.710   6.235
87107SOL    HW163153   0.122   7.790   6.183
87107SOL    HW263154   0.202   7.714   6.286
87108SOL     OW63155   5.858  11.049   3.135
87108SOL    HW163156   5.762  11.056   3.136
87108SOL    HW263157   5.887  11.114   3.072
87109SOL     OW63158   8.678   5.618   2.543
87109SOL    HW163159   8.704   5.710   2.550
87109SOL    HW263160   8.676   5.601   2.449
87110SOL     OW63161   3.385   0.700   3.396
87110SOL    HW163162   3.397   0.752   3.475
87110SOL    HW263163   3.290   0.687   3.391
87111SOL     OW63164   7.855   9.061  14.576
87111SOL    HW163165   7.867   9.135  14.517
87111SOL    HW263166   7.941   9.050  14.618
87112SOL     OW63167   3.513  12.942   1.056
87112SOL    HW163168   3.591  12.959   1.109
87112SOL    HW263169   3.517  12.849   1.036
87113SOL     OW63170   0.263   4.805   1.484
87113SOL    HW163171   0.239   4.721   1.522
87113SOL    HW263172   0.359   4.804   1.483
87114SOL     OW63173   8.021   3.745  14.154
87114SOL    HW163174   7.945   3.703  14.113
87114SOL    HW263175   8.094   3.684  14.138
87115SOL     OW63176  11.327   0.240  12.550
87115SOL    HW163177  11.238   0.204  12.544
87115SOL    HW263178  11.333   0.276  12.638
87116SOL     OW63179  14.693  14.141  13.558
87116SOL    HW163180  14.782  14.116  13.581
87116SOL    HW263181  14.689  14.131  13.463
87117SOL     OW63182   7.319   4.549   4.907
87117SOL    HW163183   7.276   4.577   4.988
87117SOL    HW263184   7.285   4.460   4.892
87118SOL     OW63185  12.400   5.255  10.170
87118SOL    HW163186  12.483   5.230  10.211
87118SOL    HW263187  12.334   5.208  10.221
87119SOL     OW63188   0.018  11.206   1.546
87119SOL    HW163189   0.002  11.120   1.506
87119SOL    HW263190  14.813  11.236   1.574
87120SOL     OW63191   0.868   4.424   5.142
87120SOL    HW163192   0.904   4.448   5.056
87120SOL    HW263193   0.786   4.473   5.149
87121SOL     OW63194  14.341  14.113   7.824
87121SOL    HW163195  14.411  14.173   7.799
87121SOL    HW263196  14.281  14.166   7.876
87122SOL     OW63197   1.768   1.452   7.146
87122SOL    HW163198   1.692   1.451   7.087
87122SOL    HW263199   1.789   1.544   7.158
87123SOL     OW63200   7.639  10.247   2.566
87123SOL    HW163201   7.558  10.197   2.554
87123SOL    HW263202   7.669  10.266   2.477
87124SOL     OW63203  11.074   0.196   7.664
87124SOL    HW163204  11.142   0.233   7.720
87124SOL    HW263205  10.996   0.193   7.720
87125SOL     OW63206   4.596  10.865   7.976
87125SOL    HW163207   4.598  10.936   7.912
87125SOL    HW263208   4.645  10.898   8.051
87126SOL     OW63209   4.646   7.424   2.013
87126SOL    HW163210   4.656   7.369   2.091
87126SOL    HW263211   4.581   7.490   2.039
87127SOL     OW63212  11.216   8.542   0.034
87127SOL    HW163213  11.199   8.556   0.127
87127SOL    HW263214  11.294   8.594   0.016
87128SOL     OW63215   3.043   7.591   0.328
87128SOL    HW163216   2.960   7.544   0.322
87128SOL    HW263217   3.109   7.523   0.339
87129SOL     OW63218   2.262   4.848   6.817
87129SOL    HW163219   2.265   4.785   6.745
87129SOL    HW263220   2.234   4.930   6.777
87130SOL     OW63221  12.398   7.519   1.255
87130SOL    HW163222  12.431   7.602   1.219
87130SOL    HW263223  12.317   7.503   1.207
87131SOL     OW63224   9.622   1.866  12.424
87131SOL    HW163225   9.646   1.776  12.400
87131SOL    HW263226   9.699   1.901  12.468
87132SOL     OW63227   9.645   4.730   4.198
87132SOL    HW163228   9.690   4.788   4.259
87132SOL    HW263229   9.555   4.726   4.230
87133SOL     OW63230   1.086   0.785  11.272
87133SOL    HW163231   1.069   0.788  11.366
87133SOL    HW263232   1.181   0.794  11.264
87134SOL     OW63233  12.693   6.141   5.880
87134SOL    HW163234  12.653   6.085   5.813
87134SOL    HW263235  12.711   6.223   5.834
87135SOL     OW63236   2.370  10.659  14.258
87135SOL    HW163237   2.408  10.694  14.339
87135SOL    HW263238   2.428  10.691  14.189
87136SOL     OW63239   5.794  14.680   1.547
87136SOL    HW163240   5.764  14.670   1.637
87136SOL    HW263241   5.885  14.651   1.549
87137SOL     OW63242   4.392   5.653   5.296
87137SOL    HW163243   4.484   5.658   5.321
87137SOL    HW263244   4.394   5.645   5.200
87138SOL     OW63245  11.542  14.004   2.124
87138SOL    HW163246  11.563  13.914   2.148
87138SOL    HW263247  11.546  14.052   2.207
87139SOL     OW63248  10.315  14.310   0.952
87139SOL    HW163249  10.251  14.246   0.984
87139SOL    HW263250  10.278  14.394   0.977
87140SOL     OW63251  13.887   8.625   7.767
87140SOL    HW163252  13.878   8.706   7.718
87140SOL    HW263253  13.966   8.584   7.732
87141SOL     OW63254  11.778   0.741  12.258
87141SOL    HW163255  11.723   0.679  12.211
87141SOL    HW263256  11.744   0.827  12.234
87142SOL     OW63257   5.722   0.396   5.823
87142SOL    HW163258   5.730   0.366   5.732
87142SOL    HW263259   5.798   0.453   5.836
87143SOL     OW63260   9.499   7.437   7.254
87143SOL    HW163261   9.426   7.424   7.314
87143SOL    HW263262   9.551   7.357   7.262
87144SOL     OW63263   7.803  10.057   5.209
87144SOL    HW163264   7.763  10.012   5.283
87144SOL    HW263265   7.822  10.145   5.241
87145SOL     OW63266   5.994   8.524  12.909
87145SOL    HW163267   5.957   8.436  12.905
87145SOL    HW263268   6.084   8.514  12.877
87146SOL     OW63269   6.160   2.267   1.814
87146SOL    HW163270   6.167   2.226   1.728
87146SOL    HW263271   6.138   2.358   1.796
87147SOL     OW63272   1.514  13.178   3.939
87147SOL    HW163273   1.501  13.085   3.925
87147SOL    HW263274   1.607  13.187   3.959
87148SOL     OW63275  13.692  14.023  14.566
87148SOL    HW163276  13.779  13.983  14.569
87148SOL    HW263277  13.673  14.033  14.473
87149SOL     OW63278   5.225   6.174   6.256
87149SOL    HW163279   5.271   6.225   6.189
87149SOL    HW263280   5.222   6.231   6.332
87150SOL     OW63281   3.503   4.583   6.501
87150SOL    HW163282   3.549   4.590   6.585
87150SOL    HW263283   3.560   4.629   6.439
87151SOL     OW63284   2.487   1.639   3.959
87151SOL    HW163285   2.425   1.712   3.956
87151SOL    HW263286   2.444   1.570   3.908
87152SOL     OW63287   3.187   4.541   6.811
87152SOL    HW163288   3.170   4.458   6.767
87152SOL    HW263289   3.185   4.607   6.742
87153SOL     OW63290   7.018   1.268   9.030
87153SOL    HW163291   6.966   1.243   8.953
87153SOL    HW263292   6.955   1.268   9.102
87154SOL     OW63293   9.491  10.710  13.166
87154SOL    HW163294   9.396  10.715  13.177
87154SOL    HW263295   9.512  10.618  13.186
87155SOL     OW63296  12.799   8.007   0.959
87155SOL    HW163297  12.760   8.030   0.875
87155SOL    HW263298  12.764   8.072   1.020
87156SOL     OW63299   9.811   3.286   5.193
87156SOL    HW163300   9.851   3.371   5.210
87156SOL    HW263301   9.865   3.248   5.123
87157SOL     OW63302  12.320   8.044   1.849
87157SOL    HW163303  12.310   8.134   1.816
87157SOL    HW263304  12.330   7.991   1.770
87158SOL     OW63305   2.801   4.640  12.275
87158SOL    HW163306   2.706   4.631  12.288
87158SOL    HW263307   2.839   4.570  12.328
87159SOL     OW63308  14.673   5.132   5.112
87159SOL    HW163309  14.605   5.197   5.092
87159SOL    HW263310  14.706   5.104   5.027
87160SOL     OW63311   7.908   4.351   3.419
87160SOL    HW163312   7.975   4.282   3.420
87160SOL    HW263313   7.895   4.370   3.327
87161SOL     OW63314   9.490  12.054  10.636
87161SOL    HW163315   9.455  12.126  10.584
87161SOL    HW263316   9.543  12.096  10.703
87162SOL     OW63317  10.007   7.490  11.606
87162SOL    HW163318   9.992   7.407  11.562
87162SOL    HW263319  10.007   7.555  11.535
87163SOL     OW63320  12.534   7.753   1.158
87163SOL    HW163321  12.520   7.848   1.162
87163SOL    HW263322  12.620   7.743   1.118
87164SOL     OW63323   3.798   0.543  13.934
87164SOL    HW163324   3.738   0.487  13.885
87164SOL    HW263325   3.836   0.486  14.001
87165SOL     OW63326   4.134   9.330   2.267
87165SOL    HW163327   4.126   9.344   2.172
87165SOL    HW263328   4.056   9.371   2.304
87166SOL     OW63329   2.414  14.145   7.364
87166SOL    HW163330   2.493  14.091   7.364
87166SOL    HW263331   2.446  14.235   7.362
87167SOL     OW63332   5.314  10.472   7.260
87167SOL    HW163333   5.405  10.466   7.232
87167SOL    HW263334   5.307  10.560   7.299
87168SOL     OW63335   5.388   3.159   7.953
87168SOL    HW163336   5.415   3.223   8.018
87168SOL    HW263337   5.394   3.205   7.869
87169SOL     OW63338  10.158   6.074  12.135
87169SOL    HW163339  10.149   6.079  12.230
87169SOL    HW263340  10.236   6.125  12.116
87170SOL     OW63341   5.432  11.026   3.679
87170SOL    HW163342   5.517  11.030   3.636
87170SOL    HW263343   5.370  11.055   3.613
87171SOL     OW63344   5.638   1.820   0.305
87171SOL    HW163345   5.550   1.813   0.267
87171SOL    HW263346   5.654   1.914   0.312
87172SOL     OW63347   5.939   0.473   0.711
87172SOL    HW163348   5.876   0.472   0.783
87172SOL    HW263349   6.016   0.517   0.746
87173SOL     OW63350   8.632  14.267   7.373
87173SOL    HW163351   8.580  14.219   7.308
87173SOL    HW263352   8.636  14.208   7.448
87174SOL     OW63353   6.317   3.009  13.602
87174SOL    HW163354   6.406   2.974  13.603
87174SOL    HW263355   6.272   2.956  13.536
87175SOL     OW63356  10.905   7.657   8.678
87175SOL    HW163357  10.956   7.598   8.734
87175SOL    HW263358  10.846   7.702   8.739
87176SOL     OW63359   9.049   1.447   9.332
87176SOL    HW163360   9.101   1.373   9.300
87176SOL    HW263361   8.993   1.409   9.400
87177SOL     OW63362   7.577   3.888   6.881
87177SOL    HW163363   7.490   3.897   6.920
87177SOL    HW263364   7.595   3.794   6.884
87178SOL     OW63365   3.513   9.489   3.622
87178SOL    HW163366   3.485   9.567   3.575
87178SOL    HW263367   3.518   9.517   3.714
87179SOL     OW63368   5.261   7.736   0.696
87179SOL    HW163369   5.349   7.708   0.669
87179SOL    HW263370   5.276   7.783   0.778
87180SOL     OW63371  10.820  14.035   7.488
87180SOL    HW163372  10.844  14.072   7.403
87180SOL    HW263373  10.765  14.102   7.529
87181SOL     OW63374   3.853   7.043  10.449
87181SOL    HW163375   3.908   6.982  10.402
87181SOL    HW263376   3.765   7.005  10.444
87182SOL     OW63377   3.129   3.259   8.357
87182SOL    HW163378   3.072   3.240   8.432
87182SOL    HW263379   3.167   3.175   8.334
87183SOL     OW63380   3.498  14.740   4.634
87183SOL    HW163381   3.515  14.666   4.693
87183SOL    HW263382   3.531  14.816   4.681
87184SOL     OW63383   9.882  11.739  14.308
87184SOL    HW163384   9.977  11.748  14.305
87184SOL    HW263385   9.852  11.768  14.221
87185SOL     OW63386   7.002  14.413   3.201
87185SOL    HW163387   7.028  14.331   3.242
87185SOL    HW263388   7.033  14.406   3.111
87186SOL     OW63389  11.356  13.304   0.690
87186SOL    HW163390  11.332  13.382   0.741
87186SOL    HW263391  11.424  13.262   0.742
87187SOL     OW63392   7.205  11.928   7.751
87187SOL    HW163393   7.223  11.892   7.838
87187SOL    HW263394   7.269  11.885   7.694
87188SOL     OW63395  10.826   7.477  13.765
87188SOL    HW163396  10.853   7.547  13.825
87188SOL    HW263397  10.816   7.520  13.680
87189SOL     OW63398   7.486  10.711  11.299
87189SOL    HW163399   7.460  10.641  11.238
87189SOL    HW263400   7.439  10.690  11.380
87190SOL     OW63401   5.165  14.088   1.107
87190SOL    HW163402   5.102  14.158   1.122
87190SOL    HW263403   5.234  14.128   1.054
87191SOL     OW63404  14.070   2.081   9.325
87191SOL    HW163405  13.980   2.048   9.316
87191SOL    HW263406  14.094   2.058   9.415
87192SOL     OW63407  11.990  14.775  10.046
87192SOL    HW163408  12.065  14.721  10.020
87192SOL    HW263409  12.027  14.840  10.105
87193SOL     OW63410   2.593   9.601   9.240
87193SOL    HW163411   2.605   9.643   9.155
87193SOL    HW263412   2.678   9.564   9.262
87194SOL     OW63413   2.905   2.796  14.099
87194SOL    HW163414   2.911   2.727  14.032
87194SOL    HW263415   2.929   2.876  14.052
87195SOL     OW63416   8.830  14.691  13.977
87195SOL    HW163417   8.897  14.628  13.950
87195SOL    HW263418   8.786  14.716  13.896
87196SOL     OW63419  14.753   8.166   3.612
87196SOL    HW163420  14.674   8.176   3.559
87196SOL    HW263421  14.721   8.164   3.702
87197SOL     OW63422   7.836  13.249   1.131
87197SOL    HW163423   7.746  13.263   1.099
87197SOL    HW263424   7.838  13.157   1.156
87198SOL     OW63425  14.864  13.025   9.290
87198SOL    HW163426   0.057  13.080   9.265
87198SOL    HW263427   0.020  12.938   9.304
87199SOL     OW63428  10.361   2.346   9.921
87199SOL    HW163429  10.364   2.351   9.826
87199SOL    HW263430  10.298   2.413   9.947
87200SOL     OW63431  11.906  10.880   0.483
87200SOL    HW163432  11.828  10.844   0.525
87200SOL    HW263433  11.961  10.910   0.555
87201SOL     OW63434  12.809  12.461  10.025
87201SOL    HW163435  12.803  12.508   9.942
87201SOL    HW263436  12.865  12.517  10.080
87202SOL     OW63437   1.854  12.402   0.903
87202SOL    HW163438   1.840  12.308   0.918
87202SOL    HW263439   1.854  12.440   0.991
87203SOL     OW63440   2.227   8.700   8.877
87203SOL    HW163441   2.158   8.752   8.917
87203SOL    HW263442   2.230   8.620   8.929
87204SOL     OW63443   0.710   5.852   2.532
87204SOL    HW163444   0.724   5.931   2.480
87204SOL    HW263445   0.764   5.786   2.491
87205SOL     OW63446  10.251   4.115   0.540
87205SOL    HW163447  10.288   4.170   0.609
87205SOL    HW263448  10.219   4.177   0.474
87206SOL     OW63449  12.924   5.826   9.436
87206SOL    HW163450  12.927   5.745   9.487
87206SOL    HW263451  12.852   5.812   9.374
87207SOL     OW63452   3.479  10.567  13.735
87207SOL    HW163453   3.414  10.499  13.719
87207SOL    HW263454   3.495  10.605  13.648
87208SOL     OW63455  12.839   6.626   4.150
87208SOL    HW163456  12.902   6.694   4.127
87208SOL    HW263457  12.780   6.668   4.212
87209SOL     OW63458  12.680  13.693  13.042
87209SOL    HW163459  12.734  13.616  13.024
87209SOL    HW263460  12.739  13.767  13.029
87210SOL     OW63461   6.572  11.881   4.835
87210SOL    HW163462   6.644  11.944   4.847
87210SOL    HW263463   6.616  11.797   4.819
87211SOL     OW63464  10.554  10.156   0.981
87211SOL    HW163465  10.552  10.071   0.938
87211SOL    HW263466  10.603  10.212   0.921
87212SOL     OW63467   3.139   2.868   0.141
87212SOL    HW163468   3.202   2.923   0.188
87212SOL    HW263469   3.190   2.823   0.074
87213SOL     OW63470  10.649   6.090  14.839
87213SOL    HW163471  10.562   6.067  14.872
87213SOL    HW263472  10.701   6.011  14.851
87214SOL     OW63473  11.721  11.342   6.134
87214SOL    HW163474  11.717  11.262   6.187
87214SOL    HW263475  11.696  11.313   6.046
87215SOL     OW63476   8.984  11.169  14.154
87215SOL    HW163477   8.899  11.199  14.186
87215SOL    HW263478   9.046  11.237  14.182
87216SOL     OW63479   4.154  13.837   7.469
87216SOL    HW163480   4.171  13.902   7.400
87216SOL    HW263481   4.216  13.767   7.450
87217SOL     OW63482  13.323   6.719  12.971
87217SOL    HW163483  13.293   6.764  13.050
87217SOL    HW263484  13.418   6.715  12.981
87218SOL     OW63485  14.696  14.769   1.737
87218SOL    HW163486  14.603  14.759   1.716
87218SOL    HW263487  14.700  14.854   1.782
87219SOL     OW63488   1.886  14.628   4.859
87219SOL    HW163489   1.889  14.549   4.804
87219SOL    HW263490   1.810  14.676   4.826
87220SOL     OW63491   3.514   2.355   6.532
87220SOL    HW163492   3.512   2.264   6.560
87220SOL    HW263493   3.445   2.362   6.467
87221SOL     OW63494   0.638   7.197   7.301
87221SOL    HW163495   0.699   7.258   7.344
87221SOL    HW263496   0.683   7.172   7.220
87222SOL     OW63497  13.594   5.492   9.717
87222SOL    HW163498  13.529   5.436   9.760
87222SOL    HW263499  13.663   5.503   9.783
87223SOL     OW63500  13.514   7.164   3.057
87223SOL    HW163501  13.608   7.144   3.060
87223SOL    HW263502  13.506   7.234   2.993
87224SOL     OW63503  13.590  10.785  11.106
87224SOL    HW163504  13.686  10.786  11.104
87224SOL    HW263505  13.564  10.772  11.015
87225SOL     OW63506  10.963   1.487   4.210
87225SOL    HW163507  11.021   1.412   4.224
87225SOL    HW263508  10.885   1.467   4.262
87226SOL     OW63509   6.320  11.926   8.405
87226SOL    HW163510   6.264  11.997   8.373
87226SOL    HW263511   6.310  11.929   8.500
87227SOL     OW63512  14.615   4.697   7.304
87227SOL    HW163513  14.598   4.725   7.394
87227SOL    HW263514  14.586   4.770   7.250
87228SOL     OW63515   2.830   0.735   8.992
87228SOL    HW163516   2.861   0.771   9.075
87228SOL    HW263517   2.863   0.646   8.990
87229SOL     OW63518   7.398   7.741  12.032
87229SOL    HW163519   7.445   7.787  11.963
87229SOL    HW263520   7.452   7.752  12.110
87230SOL     OW63521  13.374   4.558   6.338
87230SOL    HW163522  13.440   4.505   6.382
87230SOL    HW263523  13.369   4.522   6.250
87231SOL     OW63524  10.314   2.615   1.271
87231SOL    HW163525  10.334   2.644   1.182
87231SOL    HW263526  10.239   2.556   1.262
87232SOL     OW63527   8.947   5.616   1.328
87232SOL    HW163528   8.944   5.525   1.358
87232SOL    HW263529   9.032   5.648   1.360
87233SOL     OW63530  12.562   8.136  11.016
87233SOL    HW163531  12.567   8.047  11.051
87233SOL    HW263532  12.618   8.133  10.938
87234SOL     OW63533   7.161  11.808  13.957
87234SOL    HW163534   7.144  11.725  14.003
87234SOL    HW263535   7.128  11.793  13.869
87235SOL     OW63536   9.790   9.016   0.499
87235SOL    HW163537   9.855   9.085   0.490
87235SOL    HW263538   9.719   9.041   0.440
87236SOL     OW63539   8.200  11.691   8.402
87236SOL    HW163540   8.221  11.784   8.414
87236SOL    HW263541   8.247  11.666   8.323
87237SOL     OW63542   3.815   3.229   7.017
87237SOL    HW163543   3.860   3.241   6.934
87237SOL    HW263544   3.815   3.134   7.030
87238SOL     OW63545   8.681  14.787   8.761
87238SOL    HW163546   8.765  14.767   8.803
87238SOL    HW263547   8.666  14.714   8.701
87239SOL     OW63548   2.268  14.578  10.219
87239SOL    HW163549   2.305  14.657  10.257
87239SOL    HW263550   2.176  14.579  10.246
87240SOL     OW63551   8.481  11.639  11.159
87240SOL    HW163552   8.401  11.652  11.108
87240SOL    HW263553   8.547  11.614  11.095
87241SOL     OW63554   6.976  11.096   3.616
87241SOL    HW163555   6.927  11.113   3.697
87241SOL    HW263556   7.055  11.052   3.646
87242SOL     OW63557  12.487   6.736   7.715
87242SOL    HW163558  12.535   6.817   7.733
87242SOL    HW263559  12.548   6.682   7.665
87243SOL     OW63560   7.296   4.008  14.400
87243SOL    HW163561   7.324   4.091  14.438
87243SOL    HW263562   7.267   3.956  14.475
87244SOL     OW63563   0.988  13.219  14.034
87244SOL    HW163564   1.082  13.238  14.033
87244SOL    HW263565   0.965  13.208  13.941
87245SOL     OW63566  11.152   7.272   7.768
87245SOL    HW163567  11.205   7.300   7.843
87245SOL    HW263568  11.069   7.317   7.779
87246SOL     OW63569   5.474   4.219   7.028
87246SOL    HW163570   5.387   4.234   6.991
87246SOL    HW263571   5.534   4.261   6.965
87247SOL     OW63572   3.378   2.826   2.254
87247SOL    HW163573   3.367   2.882   2.177
87247SOL    HW263574   3.345   2.880   2.327
87248SOL     OW63575   1.337   3.220  12.967
87248SOL    HW163576   1.305   3.277  13.037
87248SOL    HW263577   1.258   3.192  12.921
87249SOL     OW63578   4.372   8.320  14.354
87249SOL    HW163579   4.326   8.323  14.438
87249SOL    HW263580   4.391   8.227  14.340
87250SOL     OW63581   2.465   2.759  12.765
87250SOL    HW163582   2.492   2.678  12.808
87250SOL    HW263583   2.375   2.742  12.737
87251SOL     OW63584   0.837   0.651  14.576
87251SOL    HW163585   0.916   0.640  14.628
87251SOL    HW263586   0.767   0.663  14.641
87252SOL     OW63587   9.239  10.465   9.525
87252SOL    HW163588   9.243  10.403   9.452
87252SOL    HW263589   9.329  10.466   9.559
87253SOL     OW63590   7.967  13.699  12.199
87253SOL    HW163591   8.059  13.688  12.172
87253SOL    HW263592   7.924  13.732  12.120
87254SOL     OW63593   3.576  10.694  11.712
87254SOL    HW163594   3.573  10.598  11.717
87254SOL    HW263595   3.485  10.721  11.729
87255SOL     OW63596   0.688   9.204   8.450
87255SOL    HW163597   0.659   9.254   8.373
87255SOL    HW263598   0.621   9.137   8.461
87256SOL     OW63599  13.635  14.599   5.517
87256SOL    HW163600  13.595  14.686   5.515
87256SOL    HW263601  13.729  14.614   5.512
87257SOL     OW63602  14.164   6.743  11.656
87257SOL    HW163603  14.111   6.676  11.612
87257SOL    HW263604  14.230   6.693  11.703
87258SOL     OW63605   7.998  11.231  12.062
87258SOL    HW163606   8.047  11.163  12.015
87258SOL    HW263607   7.953  11.279  11.992
87259SOL     OW63608  10.411   7.298  12.551
87259SOL    HW163609  10.455   7.267  12.472
87259SOL    HW263610  10.482   7.304  12.616
87260SOL     OW63611   0.395   1.066   9.465
87260SOL    HW163612   0.414   1.139   9.407
87260SOL    HW263613   0.306   1.039   9.442
87261SOL     OW63614   0.983   5.539   6.644
87261SOL    HW163615   0.976   5.452   6.605
87261SOL    HW263616   1.022   5.593   6.576
87262SOL     OW63617   5.090   0.759  10.469
87262SOL    HW163618   5.166   0.758  10.527
87262SOL    HW263619   5.108   0.830  10.407
87263SOL     OW63620  10.403   2.468  13.757
87263SOL    HW163621  10.334   2.529  13.782
87263SOL    HW263622  10.474   2.523  13.725
87264SOL     OW63623   6.824   4.333   3.484
87264SOL    HW163624   6.777   4.256   3.451
87264SOL    HW263625   6.758   4.381   3.535
87265SOL     OW63626   5.647  12.300   1.395
87265SOL    HW163627   5.584  12.245   1.441
87265SOL    HW263628   5.732  12.260   1.415
87266SOL     OW63629  13.066   3.628   3.122
87266SOL    HW163630  13.053   3.557   3.185
87266SOL    HW263631  13.024   3.704   3.162
87267SOL     OW63632   6.162  14.685  10.134
87267SOL    HW163633   6.073  14.656  10.111
87267SOL    HW263634   6.218  14.640  10.071
87268SOL     OW63635  14.480   7.360  10.587
87268SOL    HW163636  14.572   7.334  10.597
87268SOL    HW263637  14.449   7.372  10.676
87269SOL     OW63638  12.030   2.039   0.853
87269SOL    HW163639  12.045   2.051   0.947
87269SOL    HW263640  11.987   2.119   0.825
87270SOL     OW63641  12.273   6.872   8.262
87270SOL    HW163642  12.325   6.811   8.315
87270SOL    HW263643  12.278   6.955   8.309
87271SOL     OW63644   0.342  13.396  13.836
87271SOL    HW163645   0.418  13.369  13.887
87271SOL    HW263646   0.374  13.397  13.745
87272SOL     OW63647   6.739   8.228   1.852
87272SOL    HW163648   6.725   8.313   1.894
87272SOL    HW263649   6.822   8.238   1.806
87273SOL     OW63650   7.836   3.618  14.010
87273SOL    HW163651   7.758   3.628  13.956
87273SOL    HW263652   7.865   3.528  13.993
87274SOL     OW63653   0.272  13.140   2.037
87274SOL    HW163654   0.304  13.175   1.954
87274SOL    HW263655   0.340  13.165   2.100
87275SOL     OW63656  10.781   8.212   4.137
87275SOL    HW163657  10.694   8.243   4.163
87275SOL    HW263658  10.765   8.152   4.064
87276SOL     OW63659   8.702   0.313   0.756
87276SOL    HW163660   8.743   0.364   0.826
87276SOL    HW263661   8.721   0.222   0.777
87277SOL     OW63662  10.305   3.901   8.530
87277SOL    HW163663  10.325   3.926   8.440
87277SOL    HW263664  10.369   3.834   8.551
87278SOL     OW63665  14.247   3.242  14.788
87278SOL    HW163666  14.193   3.230  14.867
87278SOL    HW263667  14.222   3.169  14.731
87279SOL     OW63668   2.948   6.278   0.192
87279SOL    HW163669   3.036   6.254   0.221
87279SOL    HW263670   2.937   6.231   0.109
87280SOL     OW63671   8.942   7.008  13.285
87280SOL    HW163672   8.911   6.945  13.350
87280SOL    HW263673   8.867   7.021  13.227
87281SOL     OW63674   1.458   1.917   3.432
87281SOL    HW163675   1.535   1.936   3.487
87281SOL    HW263676   1.390   1.975   3.465
87282SOL     OW63677   5.719   7.763   0.665
87282SOL    HW163678   5.731   7.858   0.668
87282SOL    HW263679   5.806   7.728   0.649
87283SOL     OW63680   9.443   1.591   3.126
87283SOL    HW163681   9.513   1.601   3.189
87283SOL    HW263682   9.487   1.586   3.041
87284SOL     OW63683   8.123   8.010  14.642
87284SOL    HW163684   8.068   8.089  14.640
87284SOL    HW263685   8.118   7.975  14.553
87285SOL     OW63686   5.466   7.857   3.454
87285SOL    HW163687   5.461   7.951   3.437
87285SOL    HW263688   5.560   7.839   3.461
87286SOL     OW63689  12.600  12.313   6.027
87286SOL    HW163690  12.597  12.240   5.965
87286SOL    HW263691  12.579  12.273   6.112
87287SOL     OW63692   2.182   4.013   5.451
87287SOL    HW163693   2.094   4.019   5.488
87287SOL    HW263694   2.203   3.919   5.453
87288SOL     OW63695  10.483   7.044   3.220
87288SOL    HW163696  10.431   6.991   3.160
87288SOL    HW263697  10.493   6.988   3.297
87289SOL     OW63698   8.886  11.216  11.001
87289SOL    HW163699   8.830  11.138  11.002
87289SOL    HW263700   8.973  11.182  10.978
87290SOL     OW63701   9.959   7.822   4.590
87290SOL    HW163702   9.956   7.869   4.673
87290SOL    HW263703  10.045   7.843   4.554
87291SOL     OW63704   4.469   1.759   4.718
87291SOL    HW163705   4.460   1.682   4.661
87291SOL    HW263706   4.379   1.786   4.737
87292SOL     OW63707   8.386   4.173   9.786
87292SOL    HW163708   8.295   4.149   9.806
87292SOL    HW263709   8.425   4.193   9.871
87293SOL     OW63710   9.178   5.244  10.854
87293SOL    HW163711   9.181   5.209  10.765
87293SOL    HW263712   9.246   5.196  10.901
87294SOL     OW63713   0.351   7.478  10.882
87294SOL    HW163714   0.328   7.473  10.975
87294SOL    HW263715   0.300   7.552  10.849
87295SOL     OW63716   2.281   8.710  12.536
87295SOL    HW163717   2.213   8.711  12.604
87295SOL    HW263718   2.242   8.659  12.464
87296SOL     OW63719  12.163   1.958   4.829
87296SOL    HW163720  12.195   1.913   4.751
87296SOL    HW263721  12.163   1.891   4.897
87297SOL     OW63722   0.609  10.829   2.212
87297SOL    HW163723   0.560  10.882   2.149
87297SOL    HW263724   0.542  10.793   2.270
87298SOL     OW63725   1.521  12.213  13.865
87298SOL    HW163726   1.460  12.161  13.918
87298SOL    HW263727   1.569  12.148  13.814
87299SOL     OW63728   7.717  12.949   0.155
87299SOL    HW163729   7.742  13.039   0.133
87299SOL    HW263730   7.800  12.905   0.170
87300SOL     OW63731  14.797  13.325   9.604
87300SOL    HW163732  14.819  13.232   9.604
87300SOL    HW263733  14.704  13.327   9.583
87301SOL     OW63734   5.317   4.898  12.034
87301SOL    HW163735   5.365   4.980  12.025
87301SOL    HW263736   5.235   4.913  11.987
87302SOL     OW63737   5.648   4.494   0.939
87302SOL    HW163738   5.714   4.543   0.890
87302SOL    HW263739   5.564   4.524   0.904
87303SOL     OW63740  10.398   3.145  13.831
87303SOL    HW163741  10.478   3.097  13.811
87303SOL    HW263742  10.411   3.177  13.921
87304SOL     OW63743   3.148   5.195  13.466
87304SOL    HW163744   3.103   5.148  13.395
87304SOL    HW263745   3.085   5.193  13.539
87305SOL     OW63746   0.287   7.207  11.332
87305SOL    HW163747   0.372   7.193  11.291
87305SOL    HW263748   0.253   7.118  11.347
87306SOL     OW63749   7.264   7.121   3.680
87306SOL    HW163750   7.315   7.152   3.606
87306SOL    HW263751   7.233   7.200   3.724
87307SOL     OW63752   1.349  11.935   4.368
87307SOL    HW163753   1.305  11.851   4.355
87307SOL    HW263754   1.429  11.912   4.417
87308SOL     OW63755   4.148   9.293   8.317
87308SOL    HW163756   4.160   9.222   8.254
87308SOL    HW263757   4.171   9.253   8.401
87309SOL     OW63758  12.524   4.038   7.954
87309SOL    HW163759  12.598   4.031   8.013
87309SOL    HW263760  12.525   3.957   7.903
87310SOL     OW63761   9.170   6.531   9.066
87310SOL    HW163762   9.185   6.478   9.145
87310SOL    HW263763   9.082   6.567   9.079
87311SOL     OW63764  12.270  11.953   4.805
87311SOL    HW163765  12.216  12.001   4.742
87311SOL    HW263766  12.234  11.864   4.804
87312SOL     OW63767   7.530  10.824   0.419
87312SOL    HW163768   7.597  10.876   0.463
87312SOL    HW263769   7.563  10.810   0.331
87313SOL     OW63770  13.618  12.552   3.920
87313SOL    HW163771  13.694  12.510   3.879
87313SOL    HW263772  13.615  12.516   4.008
87314SOL     OW63773   3.362   5.160  10.786
87314SOL    HW163774   3.310   5.111  10.851
87314SOL    HW263775   3.298   5.187  10.721
87315SOL     OW63776   8.058   9.546   6.526
87315SOL    HW163777   8.075   9.558   6.620
87315SOL    HW263778   8.040   9.452   6.518
87316SOL     OW63779   6.464  13.241  11.844
87316SOL    HW163780   6.371  13.240  11.864
87316SOL    HW263781   6.496  13.322  11.883
87317SOL     OW63782   8.550  12.699   0.359
87317SOL    HW163783   8.489  12.645   0.311
87317SOL    HW263784   8.528  12.684   0.451
87318SOL     OW63785   6.932  13.301   1.935
87318SOL    HW163786   6.913  13.392   1.909
87318SOL    HW263787   6.934  13.304   2.031
87319SOL     OW63788   6.132  11.628  14.095
87319SOL    HW163789   6.084  11.562  14.146
87319SOL    HW263790   6.197  11.662  14.156
87320SOL     OW63791   1.275   6.472  14.500
87320SOL    HW163792   1.216   6.503  14.569
87320SOL    HW263793   1.317   6.552  14.467
87321SOL     OW63794  14.482   9.512   2.875
87321SOL    HW163795  14.515   9.513   2.965
87321SOL    HW263796  14.549   9.557   2.824
87322SOL     OW63797  14.002   2.981  14.784
87322SOL    HW163798  13.948   2.906  14.807
87322SOL    HW263799  14.050   3.003  14.864
87323SOL     OW63800  12.731   8.679  12.990
87323SOL    HW163801  12.644   8.646  13.013
87323SOL    HW263802  12.761   8.618  12.922
87324SOL     OW63803  10.521   9.397   8.641
87324SOL    HW163804  10.427   9.418   8.638
87324SOL    HW263805  10.524   9.302   8.628
87325SOL     OW63806  10.631   9.620   7.264
87325SOL    HW163807  10.578   9.575   7.330
87325SOL    HW263808  10.678   9.688   7.313
87326SOL     OW63809   0.981  12.939   9.944
87326SOL    HW163810   0.944  13.027   9.933
87326SOL    HW263811   0.917  12.881   9.903
87327SOL     OW63812   0.221  10.029   5.995
87327SOL    HW163813   0.243  10.088   6.067
87327SOL    HW263814   0.140  10.064   5.958
87328SOL     OW63815   5.005  13.049  13.701
87328SOL    HW163816   4.970  13.076  13.786
87328SOL    HW263817   5.093  13.018  13.721
87329SOL     OW63818   1.685   6.396   7.967
87329SOL    HW163819   1.772   6.390   8.006
87329SOL    HW263820   1.629   6.428   8.038
87330SOL     OW63821  10.643   1.663   7.436
87330SOL    HW163822  10.696   1.698   7.508
87330SOL    HW263823  10.706   1.618   7.380
87331SOL     OW63824   9.599   4.076   9.546
87331SOL    HW163825   9.595   3.984   9.569
87331SOL    HW263826   9.578   4.122   9.627
87332SOL     OW63827   7.135  12.520   0.783
87332SOL    HW163828   7.160  12.551   0.870
87332SOL    HW263829   7.051  12.564   0.765
87333SOL     OW63830   7.895   7.262  10.919
87333SOL    HW163831   7.958   7.250  10.990
87333SOL    HW263832   7.870   7.173  10.895
87334SOL     OW63833   6.581   3.574  11.083
87334SOL    HW163834   6.671   3.541  11.073
87334SOL    HW263835   6.585   3.665  11.054
87335SOL     OW63836   2.262   7.378   5.950
87335SOL    HW163837   2.306   7.451   5.906
87335SOL    HW263838   2.214   7.419   6.022
87336SOL     OW63839  12.947  11.006  14.865
87336SOL    HW163840  12.884  10.973   0.047
87336SOL    HW263841  12.927  10.960  14.784
87337SOL     OW63842   7.022   5.951   6.624
87337SOL    HW163843   6.969   5.996   6.558
87337SOL    HW263844   7.104   6.000   6.627
87338SOL     OW63845   3.974   4.566  14.198
87338SOL    HW163846   3.910   4.631  14.170
87338SOL    HW263847   3.998   4.592  14.287
87339SOL     OW63848   4.632   6.060   5.014
87339SOL    HW163849   4.576   6.089   5.086
87339SOL    HW263850   4.710   6.115   5.021
87340SOL     OW63851   6.440   8.461   5.484
87340SOL    HW163852   6.478   8.517   5.552
87340SOL    HW263853   6.479   8.375   5.499
87341SOL     OW63854   4.548   3.950  14.506
87341SOL    HW163855   4.481   3.891  14.540
87341SOL    HW263856   4.501   4.033  14.492
87342SOL     OW63857   0.316  12.348  10.316
87342SOL    HW163858   0.396  12.309  10.350
87342SOL    HW263859   0.255  12.349  10.390
87343SOL     OW63860   1.864   1.609   8.070
87343SOL    HW163861   1.779   1.653   8.072
87343SOL    HW263862   1.860   1.554   7.991
87344SOL     OW63863   6.365   2.235   8.524
87344SOL    HW163864   6.270   2.243   8.511
87344SOL    HW263865   6.397   2.194   8.444
87345SOL     OW63866  14.559   2.533   8.480
87345SOL    HW163867  14.487   2.507   8.537
87345SOL    HW263868  14.530   2.615   8.440
87346SOL     OW63869   9.371  12.361  12.536
87346SOL    HW163870   9.298  12.422  12.547
87346SOL    HW263871   9.345  12.304  12.464
87347SOL     OW63872   9.130   0.243   2.494
87347SOL    HW163873   9.114   0.293   2.575
87347SOL    HW263874   9.226   0.236   2.489
87348SOL     OW63875   6.037  11.199   4.523
87348SOL    HW163876   5.998  11.122   4.482
87348SOL    HW263877   6.105  11.164   4.581
87349SOL     OW63878   3.909  14.501  12.916
87349SOL    HW163879   3.961  14.492  12.836
87349SOL    HW263880   3.875  14.413  12.932
87350SOL     OW63881   8.194  10.815   0.080
87350SOL    HW163882   8.285  10.816   0.108
87350SOL    HW263883   8.184  10.895   0.027
87351SOL     OW63884  14.512   4.274  13.146
87351SOL    HW163885  14.578   4.334  13.113
87351SOL    HW263886  14.520   4.279  13.241
87352SOL     OW63887   9.446   7.897   1.234
87352SOL    HW163888   9.412   7.823   1.284
87352SOL    HW263889   9.498   7.946   1.297
87353SOL     OW63890   9.752   6.202  13.070
87353SOL    HW163891   9.795   6.286  13.085
87353SOL    HW263892   9.799   6.164  12.996
87354SOL     OW63893  10.722   2.119   9.063
87354SOL    HW163894  10.802   2.069   9.044
87354SOL    HW263895  10.683   2.135   8.977
87355SOL     OW63896   4.422   2.209  11.432
87355SOL    HW163897   4.364   2.259  11.375
87355SOL    HW263898   4.364   2.152  11.483
87356SOL     OW63899  11.484   5.971   4.031
87356SOL    HW163900  11.448   6.047   4.078
87356SOL    HW263901  11.413   5.906   4.033
87357SOL     OW63902   8.862  13.271   0.262
87357SOL    HW163903   8.881  13.300   0.173
87357SOL    HW263904   8.804  13.338   0.297
87358SOL     OW63905   0.558   7.764   3.461
87358SOL    HW163906   0.471   7.779   3.498
87358SOL    HW263907   0.618   7.800   3.526
87359SOL     OW63908   4.608   9.104  13.621
87359SOL    HW163909   4.560   9.186  13.636
87359SOL    HW263910   4.549   9.052  13.566
87360SOL     OW63911  12.388  11.405   6.898
87360SOL    HW163912  12.317  11.396   6.835
87360SOL    HW263913  12.393  11.321   6.942
87361SOL     OW63914   6.112   7.348   6.790
87361SOL    HW163915   6.062   7.293   6.850
87361SOL    HW263916   6.200   7.310   6.790
87362SOL     OW63917  13.218   7.171   8.321
87362SOL    HW163918  13.271   7.249   8.306
87362SOL    HW263919  13.171   7.157   8.238
87363SOL     OW63920   4.393   9.836  11.699
87363SOL    HW163921   4.488   9.832  11.706
87363SOL    HW263922   4.367   9.747  11.674
87364SOL     OW63923   1.534   4.702  12.863
87364SOL    HW163924   1.494   4.620  12.836
87364SOL    HW263925   1.501   4.716  12.952
87365SOL     OW63926  14.013   9.239  13.056
87365SOL    HW163927  14.059   9.315  13.092
87365SOL    HW263928  13.921   9.265  13.055
87366SOL     OW63929   3.364   8.489   7.345
87366SOL    HW163930   3.405   8.406   7.369
87366SOL    HW263931   3.350   8.533   7.429
87367SOL     OW63932   6.885   3.306  10.687
87367SOL    HW163933   6.979   3.301  10.666
87367SOL    HW263934   6.880   3.368  10.760
87368SOL     OW63935  11.016  14.046   5.078
87368SOL    HW163936  11.030  14.132   5.039
87368SOL    HW263937  10.927  14.049   5.114
87369SOL     OW63938   6.068   3.596  11.248
87369SOL    HW163939   6.052   3.505  11.222
87369SOL    HW263940   6.077   3.592  11.344
87370SOL     OW63941   0.646   4.732  14.566
87370SOL    HW163942   0.689   4.780  14.496
87370SOL    HW263943   0.667   4.640  14.549
87371SOL     OW63944  10.709   4.160  12.175
87371SOL    HW163945  10.675   4.243  12.142
87371SOL    HW263946  10.760   4.124  12.102
87372SOL     OW63947   7.429   1.630  11.103
87372SOL    HW163948   7.345   1.586  11.118
87372SOL    HW263949   7.406   1.710  11.056
87373SOL     OW63950  10.907  11.020   5.697
87373SOL    HW163951  10.948  10.958   5.758
87373SOL    HW263952  10.814  11.018   5.719
87374SOL     OW63953  12.024   9.487   5.730
87374SOL    HW163954  12.114   9.466   5.753
87374SOL    HW263955  12.006   9.570   5.774
87375SOL     OW63956   7.211   0.248   6.914
87375SOL    HW163957   7.243   0.336   6.896
87375SOL    HW263958   7.203   0.207   6.828
87376SOL     OW63959  13.253  12.335   3.382
87376SOL    HW163960  13.202  12.361   3.459
87376SOL    HW263961  13.196  12.272   3.336
87377SOL     OW63962   8.282   9.896   8.605
87377SOL    HW163963   8.221   9.946   8.660
87377SOL    HW263964   8.364   9.897   8.653
87378SOL     OW63965   3.764   2.829   5.894
87378SOL    HW163966   3.766   2.734   5.897
87378SOL    HW263967   3.684   2.853   5.941
87379SOL     OW63968   5.004   3.184   7.051
87379SOL    HW163969   4.982   3.091   7.063
87379SOL    HW263970   5.096   3.190   7.077
87380SOL     OW63971   6.925  13.530   4.484
87380SOL    HW163972   6.974  13.451   4.461
87380SOL    HW263973   6.837  13.513   4.451
87381SOL     OW63974  11.365   7.757   1.940
87381SOL    HW163975  11.296   7.822   1.956
87381SOL    HW263976  11.441   7.809   1.912
87382SOL     OW63977   2.702   7.931  12.412
87382SOL    HW163978   2.706   7.901  12.503
87382SOL    HW263979   2.687   7.851  12.361
87383SOL     OW63980   8.195   1.299   4.640
87383SOL    HW163981   8.226   1.294   4.730
87383SOL    HW263982   8.260   1.250   4.590
87384SOL     OW63983   2.257   7.865   0.506
87384SOL    HW163984   2.216   7.833   0.426
87384SOL    HW263985   2.250   7.792   0.567
87385SOL     OW63986  13.122   3.520  14.551
87385SOL    HW163987  13.164   3.473  14.479
87385SOL    HW263988  13.191   3.577  14.585
87386SOL     OW63989   6.143   3.022   5.139
87386SOL    HW163990   6.174   3.109   5.161
87386SOL    HW263991   6.124   2.981   5.224
87387SOL     OW63992   4.355  10.287   5.385
87387SOL    HW163993   4.405  10.369   5.391
87387SOL    HW263994   4.318  10.275   5.472
87388SOL     OW63995   8.009   0.285   7.665
87388SOL    HW163996   8.054   0.206   7.633
87388SOL    HW263997   7.981   0.262   7.754
87389SOL     OW63998   4.338  12.421   1.608
87389SOL    HW163999   4.424  12.452   1.639
87389SOL    HW264000   4.342  12.326   1.619
87390SOL     OW64001   6.576   7.291   2.725
87390SOL    HW164002   6.496   7.239   2.723
87390SOL    HW264003   6.643   7.235   2.688
87391SOL     OW64004   3.603  13.963  13.665
87391SOL    HW164005   3.517  13.926  13.686
87391SOL    HW264006   3.648  13.893  13.616
87392SOL     OW64007   3.552  10.014  14.607
87392SOL    HW164008   3.509  10.026  14.522
87392SOL    HW264009   3.482  10.025  14.671
87393SOL     OW64010  14.402   3.506  11.320
87393SOL    HW164011  14.396   3.418  11.358
87393SOL    HW264012  14.489   3.537  11.346
87394SOL     OW64013  14.214  12.750   8.880
87394SOL    HW164014  14.304  12.761   8.851
87394SOL    HW264015  14.175  12.837   8.870
87395SOL     OW64016  12.898   2.785  12.747
87395SOL    HW164017  12.839   2.750  12.680
87395SOL    HW264018  12.871   2.876  12.757
87396SOL     OW64019  11.938  11.174   1.324
87396SOL    HW164020  11.854  11.130   1.339
87396SOL    HW264021  11.933  11.253   1.378
87397SOL     OW64022   3.668  13.746  11.588
87397SOL    HW164023   3.655  13.715  11.498
87397SOL    HW264024   3.709  13.832  11.577
87398SOL     OW64025  14.737  10.828   1.672
87398SOL    HW164026  14.804  10.764   1.649
87398SOL    HW264027  14.709  10.803   1.760
87399SOL     OW64028   3.060  11.007  13.953
87399SOL    HW164029   3.006  10.928  13.951
87399SOL    HW264030   2.997  11.079  13.965
87400SOL     OW64031   6.855  13.691  11.783
87400SOL    HW164032   6.859  13.602  11.817
87400SOL    HW264033   6.826  13.743  11.858
87401SOL     OW64034   6.160   5.988  12.509
87401SOL    HW164035   6.065   5.993  12.515
87401SOL    HW264036   6.177   5.960  12.419
87402SOL     OW64037   0.779   4.626   6.182
87402SOL    HW164038   0.757   4.626   6.089
87402SOL    HW264039   0.848   4.560   6.190
87403SOL     OW64040   5.585   6.023   5.550
87403SOL    HW164041   5.661   6.079   5.568
87403SOL    HW264042   5.599   5.947   5.606
87404SOL     OW64043   9.059   7.382   9.421
87404SOL    HW164044   9.144   7.365   9.380
87404SOL    HW264045   9.043   7.305   9.475
87405SOL     OW64046  12.098   4.091   0.818
87405SOL    HW164047  12.081   4.003   0.785
87405SOL    HW264048  12.190   4.108   0.795
87406SOL     OW64049   1.604   8.962   5.747
87406SOL    HW164050   1.573   8.910   5.821
87406SOL    HW264051   1.558   9.045   5.756
87407SOL     OW64052  13.822   0.169   5.883
87407SOL    HW164053  13.851   0.189   5.972
87407SOL    HW264054  13.836   0.074   5.874
87408SOL     OW64055   4.178   6.705   2.494
87408SOL    HW164056   4.100   6.650   2.484
87408SOL    HW264057   4.211   6.685   2.581
87409SOL     OW64058   9.035   4.943   3.623
87409SOL    HW164059   9.048   4.897   3.540
87409SOL    HW264060   8.946   4.919   3.650
87410SOL     OW64061   1.223   2.743   7.853
87410SOL    HW164062   1.132   2.768   7.840
87410SOL    HW264063   1.271   2.826   7.854
87411SOL     OW64064   7.039   4.521   3.523
87411SOL    HW164065   6.977   4.451   3.545
87411SOL    HW264066   6.985   4.600   3.520
87412SOL     OW64067  11.164  13.488   7.418
87412SOL    HW164068  11.219  13.452   7.487
87412SOL    HW264069  11.121  13.413   7.379
87413SOL     OW64070   8.475   6.452  13.525
87413SOL    HW164071   8.394   6.405  13.544
87413SOL    HW264072   8.463   6.487  13.437
87414SOL     OW64073  12.132   9.367   8.683
87414SOL    HW164074  12.196   9.341   8.618
87414SOL    HW264075  12.169   9.338   8.766
87415SOL     OW64076   3.752  10.759  13.739
87415SOL    HW164077   3.780  10.690  13.800
87415SOL    HW264078   3.657  10.749  13.734
87416SOL     OW64079   6.056   3.272  12.380
87416SOL    HW164080   5.985   3.300  12.322
87416SOL    HW264081   6.013   3.259  12.465
87417SOL     OW64082   2.160  10.394   3.278
87417SOL    HW164083   2.192  10.484   3.282
87417SOL    HW264084   2.195  10.352   3.357
87418SOL     OW64085  13.648   3.027  13.117
87418SOL    HW164086  13.660   3.090  13.188
87418SOL    HW264087  13.629   3.080  13.040
87419SOL     OW64088   0.530  13.281   1.713
87419SOL    HW164089   0.496  13.351   1.657
87419SOL    HW264090   0.545  13.208   1.653
87420SOL     OW64091   2.212  10.519   8.491
87420SOL    HW164092   2.293  10.545   8.535
87420SOL    HW264093   2.159  10.479   8.561
87421SOL     OW64094   5.095   2.583   2.706
87421SOL    HW164095   5.079   2.529   2.629
87421SOL    HW264096   5.189   2.578   2.720
87422SOL     OW64097  11.487   8.747  11.040
87422SOL    HW164098  11.555   8.707  10.985
87422SOL    HW264099  11.515   8.838  11.048
87423SOL     OW64100   3.764   8.848   3.345
87423SOL    HW164101   3.858   8.832   3.342
87423SOL    HW264102   3.753   8.935   3.308
87424SOL     OW64103   4.907  13.739   5.289
87424SOL    HW164104   4.835  13.690   5.328
87424SOL    HW264105   4.883  13.748   5.196
87425SOL     OW64106   1.106   6.653   3.079
87425SOL    HW164107   1.182   6.659   3.021
87425SOL    HW264108   1.111   6.731   3.134
87426SOL     OW64109   1.664  14.670   1.764
87426SOL    HW164110   1.684  14.740   1.826
87426SOL    HW264111   1.577  14.640   1.789
87427SOL     OW64112   6.152  12.346   6.102
87427SOL    HW164113   6.238  12.384   6.083
87427SOL    HW264114   6.119  12.397   6.176
87428SOL     OW64115   3.901   4.548   8.867
87428SOL    HW164116   3.909   4.637   8.902
87428SOL    HW264117   3.810   4.524   8.883
87429SOL     OW64118  10.054  11.081   2.182
87429SOL    HW164119   9.964  11.108   2.164
87429SOL    HW264120  10.056  11.067   2.277
87430SOL     OW64121   7.661   1.847   8.724
87430SOL    HW164122   7.732   1.845   8.789
87430SOL    HW264123   7.583   1.825   8.774
87431SOL     OW64124   7.787  13.321  13.221
87431SOL    HW164125   7.739  13.268  13.158
87431SOL    HW264126   7.870  13.341  13.178
87432SOL     OW64127  10.774   1.946  11.913
87432SOL    HW164128  10.733   2.025  11.949
87432SOL    HW264129  10.865   1.971  11.899
87433SOL     OW64130   5.599   3.857   5.046
87433SOL    HW164131   5.556   3.827   4.966
87433SOL    HW264132   5.670   3.914   5.016
87434SOL     OW64133  13.427   9.692  14.399
87434SOL    HW164134  13.395   9.720  14.314
87434SOL    HW264135  13.509   9.738  14.411
87435SOL     OW64136   7.283  14.445  11.196
87435SOL    HW164137   7.291  14.503  11.272
87435SOL    HW264138   7.202  14.397  11.211
87436SOL     OW64139  11.291   6.114   4.969
87436SOL    HW164140  11.259   6.105   4.879
87436SOL    HW264141  11.386   6.119   4.960
87437SOL     OW64142   5.012   6.590  12.983
87437SOL    HW164143   4.943   6.525  12.975
87437SOL    HW264144   4.994   6.653  12.913
87438SOL     OW64145   2.668  12.201   2.493
87438SOL    HW164146   2.730  12.221   2.563
87438SOL    HW264147   2.722  12.194   2.415
87439SOL     OW64148  12.183   1.499   9.512
87439SOL    HW164149  12.250   1.471   9.450
87439SOL    HW264150  12.126   1.557   9.461
87440SOL     OW64151  13.488  11.806   9.124
87440SOL    HW164152  13.577  11.771   9.128
87440SOL    HW264153  13.500  11.901   9.125
87441SOL     OW64154   9.216   2.015   0.148
87441SOL    HW164155   9.144   1.959   0.121
87441SOL    HW264156   9.229   1.994   0.240
87442SOL     OW64157   1.696   0.831   5.389
87442SOL    HW164158   1.666   0.856   5.477
87442SOL    HW264159   1.629   0.770   5.358
87443SOL     OW64160   1.020   9.507  12.472
87443SOL    HW164161   1.029   9.596  12.505
87443SOL    HW264162   1.023   9.452  12.551
87444SOL     OW64163  14.474  10.114   1.350
87444SOL    HW164164  14.425  10.033   1.339
87444SOL    HW264165  14.490  10.144   1.260
87445SOL     OW64166   5.482   8.591  11.890
87445SOL    HW164167   5.419   8.661  11.875
87445SOL    HW264168   5.491   8.548  11.806
87446SOL     OW64169  10.694   9.208   0.812
87446SOL    HW164170  10.748   9.203   0.733
87446SOL    HW264171  10.755   9.235   0.881
87447SOL     OW64172  13.554   7.705   1.216
87447SOL    HW164173  13.531   7.755   1.294
87447SOL    HW264174  13.649   7.693   1.223
87448SOL     OW64175  10.766   9.078   5.237
87448SOL    HW164176  10.686   9.075   5.290
87448SOL    HW264177  10.768   9.168   5.203
87449SOL     OW64178   5.967  12.534  10.032
87449SOL    HW164179   6.053  12.556   9.996
87449SOL    HW264180   5.950  12.445  10.001
87450SOL     OW64181   9.480  11.788   4.875
87450SOL    HW164182   9.543  11.859   4.884
87450SOL    HW264183   9.411  11.824   4.820
87451SOL     OW64184   5.080  12.923   6.673
87451SOL    HW164185   5.172  12.939   6.696
87451SOL    HW264186   5.038  12.903   6.757
87452SOL     OW64187  11.241  11.032   2.440
87452SOL    HW164188  11.236  11.107   2.379
87452SOL    HW264189  11.304  11.060   2.507
87453SOL     OW64190  11.263   6.111   2.194
87453SOL    HW164191  11.238   6.031   2.148
87453SOL    HW264192  11.302   6.081   2.276
87454SOL     OW64193   4.705  11.828  11.937
87454SOL    HW164194   4.757  11.881  11.875
87454SOL    HW264195   4.761  11.820  12.014
87455SOL     OW64196  10.308   1.246   1.440
87455SOL    HW164197  10.283   1.337   1.459
87455SOL    HW264198  10.395   1.253   1.401
87456SOL     OW64199  14.622   5.412   9.787
87456SOL    HW164200  14.650   5.320   9.788
87456SOL    HW264201  14.661   5.450   9.866
87457SOL     OW64202   1.244   8.981   8.004
87457SOL    HW164203   1.306   9.031   8.056
87457SOL    HW264204   1.176   8.955   8.067
87458SOL     OW64205  12.485  13.879   2.953
87458SOL    HW164206  12.483  13.785   2.971
87458SOL    HW264207  12.443  13.888   2.867
87459SOL     OW64208   0.444  13.238   3.880
87459SOL    HW164209   0.461  13.158   3.930
87459SOL    HW264210   0.465  13.309   3.941
87460SOL     OW64211   8.355   1.718   8.094
87460SOL    HW164212   8.307   1.664   8.157
87460SOL    HW264213   8.446   1.693   8.105
87461SOL     OW64214   8.441   7.779  13.825
87461SOL    HW164215   8.419   7.735  13.743
87461SOL    HW264216   8.536   7.781  13.827
87462SOL     OW64217   6.601   4.863   6.041
87462SOL    HW164218   6.689   4.876   6.076
87462SOL    HW264219   6.590   4.933   5.976
87463SOL     OW64220  12.531   0.760  10.435
87463SOL    HW164221  12.480   0.832  10.472
87463SOL    HW264222  12.480   0.682  10.454
87464SOL     OW64223   2.584  12.474   1.561
87464SOL    HW164224   2.514  12.465   1.625
87464SOL    HW264225   2.662  12.495   1.613
87465SOL     OW64226   5.937  13.291  14.751
87465SOL    HW164227   5.890  13.208  14.762
87465SOL    HW264228   5.987  13.301  14.831
87466SOL     OW64229   8.332  11.236   3.965
87466SOL    HW164230   8.424  11.232   3.991
87466SOL    HW264231   8.304  11.145   3.960
87467SOL     OW64232  14.799  12.164  13.759
87467SOL    HW164233  14.848  12.147  13.679
87467SOL    HW264234  14.838  12.243  13.796
87468SOL     OW64235   3.597   4.285   7.940
87468SOL    HW164236   3.638   4.322   7.863
87468SOL    HW264237   3.645   4.322   8.014
87469SOL     OW64238   1.419  13.356   4.320
87469SOL    HW164239   1.514  13.366   4.311
87469SOL    HW264240   1.395  13.294   4.251
87470SOL     OW64241   7.294   7.523   0.245
87470SOL    HW164242   7.326   7.600   0.199
87470SOL    HW264243   7.372   7.483   0.284
87471SOL     OW64244   9.143   7.047  13.761
87471SOL    HW164245   9.208   7.004  13.817
87471SOL    HW264246   9.098   6.975  13.717
87472SOL     OW64247   1.788  10.677   6.561
87472SOL    HW164248   1.764  10.629   6.640
87472SOL    HW264249   1.792  10.611   6.492
87473SOL     OW64250   8.718  13.622  14.546
87473SOL    HW164251   8.763  13.540  14.526
87473SOL    HW264252   8.787  13.680  14.577
87474SOL     OW64253   4.184  10.080   2.228
87474SOL    HW164254   4.168  10.018   2.298
87474SOL    HW264255   4.253  10.040   2.175
87475SOL     OW64256  12.647  13.087   1.287
87475SOL    HW164257  12.692  13.157   1.333
87475SOL    HW264258  12.579  13.058   1.348
87476SOL     OW64259   9.950   9.247   5.802
87476SOL    HW164260   9.906   9.181   5.856
87476SOL    HW264261   9.886   9.270   5.735
87477SOL     OW64262   3.988   2.032  11.158
87477SOL    HW164263   4.027   2.031  11.071
87477SOL    HW264264   4.023   2.111  11.199
87478SOL     OW64265   8.160   8.239   8.067
87478SOL    HW164266   8.104   8.228   7.990
87478SOL    HW264267   8.155   8.155   8.113
87479SOL     OW64268   9.836  10.552   4.903
87479SOL    HW164269   9.756  10.605   4.908
87479SOL    HW264270   9.901  10.611   4.864
87480SOL     OW64271  10.436   1.673   6.034
87480SOL    HW164272  10.387   1.752   6.055
87480SOL    HW264273  10.425   1.662   5.939
87481SOL     OW64274   8.127   3.313   7.534
87481SOL    HW164275   8.072   3.389   7.517
87481SOL    HW264276   8.173   3.335   7.615
87482SOL     OW64277   9.849  14.743  12.988
87482SOL    HW164278   9.931  14.790  12.996
87482SOL    HW264279   9.858  14.691  12.908
87483SOL     OW64280   9.352   5.294  13.829
87483SOL    HW164281   9.375   5.301  13.922
87483SOL    HW264282   9.435   5.273  13.786
87484SOL     OW64283   2.711  11.465   5.856
87484SOL    HW164284   2.731  11.552   5.889
87484SOL    HW264285   2.620  11.470   5.828
87485SOL     OW64286   6.234   6.629  13.510
87485SOL    HW164287   6.158   6.678  13.478
87485SOL    HW264288   6.252   6.664  13.597
87486SOL     OW64289   3.269   7.032   5.167
87486SOL    HW164290   3.351   7.046   5.118
87486SOL    HW264291   3.220   6.969   5.115
87487SOL     OW64292  12.778  11.577   3.113
87487SOL    HW164293  12.741  11.640   3.175
87487SOL    HW264294  12.723  11.499   3.123
87488SOL     OW64295   4.934   8.392   2.811
87488SOL    HW164296   4.925   8.345   2.727
87488SOL    HW264297   4.994   8.463   2.792
87489SOL     OW64298   8.675  14.460   5.202
87489SOL    HW164299   8.666  14.414   5.286
87489SOL    HW264300   8.767  14.484   5.198
87490SOL     OW64301  10.623  13.189  12.948
87490SOL    HW164302  10.571  13.255  12.993
87490SOL    HW264303  10.631  13.222  12.859
87491SOL     OW64304   3.926   4.656  13.724
87491SOL    HW164305   3.994   4.722  13.733
87491SOL    HW264306   3.957   4.600  13.652
87492SOL     OW64307  10.141   8.115   3.252
87492SOL    HW164308  10.210   8.175   3.277
87492SOL    HW264309  10.079   8.168   3.203
87493SOL     OW64310  14.151  14.408   0.337
87493SOL    HW164311  14.081  14.347   0.362
87493SOL    HW264312  14.219  14.396   0.404
87494SOL     OW64313  11.749   9.081   6.950
87494SOL    HW164314  11.728   9.020   6.880
87494SOL    HW264315  11.794   9.027   7.015
87495SOL     OW64316   7.349   5.901   5.322
87495SOL    HW164317   7.443   5.918   5.335
87495SOL    HW264318   7.326   5.952   5.245
87496SOL     OW64319  12.774  10.759  11.408
87496SOL    HW164320  12.863  10.725  11.405
87496SOL    HW264321  12.784  10.848  11.442
87497SOL     OW64322  11.706  14.538   7.439
87497SOL    HW164323  11.661  14.457   7.466
87497SOL    HW264324  11.699  14.596   7.515
87498SOL     OW64325  12.228   3.399   9.551
87498SOL    HW164326  12.177   3.318   9.542
87498SOL    HW264327  12.235   3.412   9.646
87499SOL     OW64328  12.814   2.989   3.451
87499SOL    HW164329  12.814   2.952   3.363
87499SOL    HW264330  12.837   2.915   3.507
87500SOL     OW64331   9.678  10.426   2.987
87500SOL    HW164332   9.754  10.463   3.032
87500SOL    HW264333   9.637  10.368   3.051
87501SOL     OW64334   3.199   3.350  10.572
87501SOL    HW164335   3.203   3.430  10.623
87501SOL    HW264336   3.290   3.333  10.546
87502SOL     OW64337   4.933   6.086   4.662
87502SOL    HW164338   4.956   6.177   4.647
87502SOL    HW264339   4.938   6.045   4.576
87503SOL     OW64340  13.719  12.881  13.811
87503SOL    HW164341  13.655  12.869  13.741
87503SOL    HW264342  13.741  12.974  13.808
87504SOL     OW64343   5.787   9.977   9.643
87504SOL    HW164344   5.716  10.031   9.609
87504SOL    HW264345   5.780   9.895   9.595
87505SOL     OW64346   1.077  13.887   9.367
87505SOL    HW164347   1.083  13.803   9.323
87505SOL    HW264348   1.094  13.868   9.459
87506SOL     OW64349   7.648   1.810   7.990
87506SOL    HW164350   7.662   1.870   8.064
87506SOL    HW264351   7.731   1.763   7.981
87507SOL     OW64352   4.293   5.355   3.791
87507SOL    HW164353   4.370   5.299   3.781
87507SOL    HW264354   4.220   5.293   3.801
87508SOL     OW64355  13.353   0.690  12.945
87508SOL    HW164356  13.286   0.699  13.013
87508SOL    HW264357  13.421   0.752  12.971
87509SOL     OW64358  13.661  13.846  10.034
87509SOL    HW164359  13.643  13.918   9.974
87509SOL    HW264360  13.577  13.826  10.074
87510SOL     OW64361  11.094   0.526   7.641
87510SOL    HW164362  11.153   0.467   7.686
87510SOL    HW264363  11.012   0.522   7.691
87511SOL     OW64364  10.297   6.556   5.228
87511SOL    HW164365  10.284   6.646   5.258
87511SOL    HW264366  10.354   6.564   5.151
87512SOL     OW64367   4.034   0.903   3.049
87512SOL    HW164368   3.993   0.920   3.134
87512SOL    HW264369   4.059   0.989   3.017
87513SOL     OW64370   0.051   4.633   8.929
87513SOL    HW164371   0.064   4.593   9.015
87513SOL    HW264372   0.050   4.727   8.946
87514SOL     OW64373   0.508   6.882  13.653
87514SOL    HW164374   0.454   6.944  13.605
87514SOL    HW264375   0.595   6.888  13.612
87515SOL     OW64376  11.500  12.258  13.349
87515SOL    HW164377  11.519  12.263  13.256
87515SOL    HW264378  11.409  12.227  13.354
87516SOL     OW64379   2.506  14.334  13.200
87516SOL    HW164380   2.470  14.280  13.130
87516SOL    HW264381   2.517  14.274  13.274
87517SOL     OW64382  12.318   3.539  14.128
87517SOL    HW164383  12.367   3.560  14.207
87517SOL    HW264384  12.333   3.613  14.069
87518SOL     OW64385  12.297   6.681   4.226
87518SOL    HW164386  12.304   6.613   4.160
87518SOL    HW264387  12.229   6.740   4.193
87519SOL     OW64388   5.032   0.366  13.988
87519SOL    HW164389   4.956   0.339  14.040
87519SOL    HW264390   5.097   0.298  14.003
87520SOL     OW64391   9.828  10.736   1.632
87520SOL    HW164392   9.853  10.713   1.542
87520SOL    HW264393   9.907  10.719   1.684
87521SOL     OW64394   0.512   2.126   9.799
87521SOL    HW164395   0.584   2.176   9.838
87521SOL    HW264396   0.553   2.042   9.774
87522SOL     OW64397   8.302   6.554  10.736
87522SOL    HW164398   8.232   6.528  10.676
87522SOL    HW264399   8.382   6.538  10.687
87523SOL     OW64400   2.432  14.566   9.237
87523SOL    HW164401   2.363  14.519   9.191
87523SOL    HW264402   2.505  14.505   9.240
87524SOL     OW64403   9.046  10.746   2.085
87524SOL    HW164404   8.971  10.799   2.057
87524SOL    HW264405   9.107  10.749   2.011
87525SOL     OW64406   8.694   2.440  13.142
87525SOL    HW164407   8.611   2.439  13.094
87525SOL    HW264408   8.668   2.449  13.234
87526SOL     OW64409  13.596  14.136   7.786
87526SOL    HW164410  13.601  14.231   7.790
87526SOL    HW264411  13.558  14.110   7.870
87527SOL     OW64412  11.438   3.592   0.921
87527SOL    HW164413  11.382   3.543   0.860
87527SOL    HW264414  11.514   3.617   0.868
87528SOL     OW64415  11.754  11.552   5.376
87528SOL    HW164416  11.735  11.646   5.375
87528SOL    HW264417  11.679  11.513   5.420
87529SOL     OW64418  14.057   5.629   8.675
87529SOL    HW164419  14.021   5.554   8.627
87529SOL    HW264420  14.152   5.616   8.670
87530SOL     OW64421  14.625   1.900   7.524
87530SOL    HW164422  14.614   1.992   7.546
87530SOL    HW264423  14.555   1.855   7.572
87531SOL     OW64424  11.663   1.298  12.132
87531SOL    HW164425  11.644   1.250  12.052
87531SOL    HW264426  11.696   1.383  12.102
87532SOL     OW64427   2.044  11.099   3.448
87532SOL    HW164428   2.048  11.172   3.386
87532SOL    HW264429   2.032  11.141   3.534
87533SOL     OW64430   3.953   0.050  14.245
87533SOL    HW164431   3.874   0.050  14.191
87533SOL    HW264432   4.019   0.005  14.193
87534SOL     OW64433  14.569   1.173   2.143
87534SOL    HW164434  14.638   1.200   2.083
87534SOL    HW264435  14.489   1.207   2.104
87535SOL     OW64436   2.503   2.420   5.188
87535SOL    HW164437   2.432   2.439   5.127
87535SOL    HW264438   2.579   2.404   5.132
87536SOL     OW64439   9.465   8.264  11.458
87536SOL    HW164440   9.542   8.318  11.438
87536SOL    HW264441   9.476   8.238  11.549
87537SOL     OW64442  13.737   6.177   9.135
87537SOL    HW164443  13.672   6.148   9.200
87537SOL    HW264444  13.735   6.272   9.139
87538SOL     OW64445   7.303   6.751  12.717
87538SOL    HW164446   7.213   6.782  12.726
87538SOL    HW264447   7.333   6.787  12.633
87539SOL     OW64448   9.843  14.520   4.281
87539SOL    HW164449   9.873  14.593   4.226
87539SOL    HW264450   9.915  14.458   4.280
87540SOL     OW64451   7.572  14.796   3.888
87540SOL    HW164452   7.518  14.787   3.810
87540SOL    HW264453   7.658  14.821   3.855
87541SOL     OW64454   3.440   0.688  10.260
87541SOL    HW164455   3.450   0.770  10.211
87541SOL    HW264456   3.371   0.706  10.324
87542SOL     OW64457   9.747   7.995   4.431
87542SOL    HW164458   9.781   7.908   4.454
87542SOL    HW264459   9.664   7.977   4.388
87543SOL     OW64460   5.764   9.258   0.593
87543SOL    HW164461   5.817   9.179   0.599
87543SOL    HW264462   5.825   9.326   0.567
87544SOL     OW64463  12.990  14.800   0.529
87544SOL    HW164464  12.910  14.748   0.539
87544SOL    HW264465  12.989  14.828   0.438
87545SOL     OW64466  10.472   8.349   3.025
87545SOL    HW164467  10.557   8.321   2.990
87545SOL    HW264468  10.491   8.431   3.070
87546SOL     OW64469   4.375   7.997   6.311
87546SOL    HW164470   4.308   8.065   6.319
87546SOL    HW264471   4.415   8.014   6.225
87547SOL     OW64472   9.967  14.796   6.489
87547SOL    HW164473  10.023  14.824   6.562
87547SOL    HW264474   9.880  14.784   6.528
87548SOL     OW64475  12.072   9.006   2.832
87548SOL    HW164476  12.022   9.015   2.913
87548SOL    HW264477  12.008   8.974   2.768
87549SOL     OW64478  11.049  10.582  12.305
87549SOL    HW164479  11.039  10.520  12.377
87549SOL    HW264480  11.111  10.540  12.245
87550SOL     OW64481  13.666   7.136   3.633
87550SOL    HW164482  13.727   7.129   3.707
87550SOL    HW264483  13.719   7.172   3.562
87551SOL     OW64484   0.501   0.588   6.014
87551SOL    HW164485   0.462   0.667   5.976
87551SOL    HW264486   0.574   0.620   6.066
87552SOL     OW64487   2.982   0.032   1.546
87552SOL    HW164488   3.024   0.024   1.632
87552SOL    HW264489   3.049   0.003   1.484
87553SOL     OW64490   4.640   7.192   7.634
87553SOL    HW164491   4.670   7.106   7.606
87553SOL    HW264492   4.603   7.176   7.721
87554SOL     OW64493   6.136  12.392   4.492
87554SOL    HW164494   6.159  12.332   4.563
87554SOL    HW264495   6.213  12.448   4.483
87555SOL     OW64496   4.313   4.737  10.789
87555SOL    HW164497   4.268   4.716  10.706
87555SOL    HW264498   4.291   4.828  10.806
87556SOL     OW64499   7.122   6.364   1.257
87556SOL    HW164500   7.118   6.338   1.165
87556SOL    HW264501   7.031   6.367   1.285
87557SOL     OW64502   3.380   7.182   9.524
87557SOL    HW164503   3.399   7.091   9.549
87557SOL    HW264504   3.297   7.202   9.567
87558SOL     OW64505  10.152   8.892  12.024
87558SOL    HW164506  10.201   8.812  12.043
87558SOL    HW264507  10.220   8.959  12.014
87559SOL     OW64508  10.883  14.788   7.196
87559SOL    HW164509  10.952  14.724   7.213
87559SOL    HW264510  10.894  14.855   7.263
87560SOL     OW64511  12.269   2.094  13.153
87560SOL    HW164512  12.190   2.081  13.100
87560SOL    HW264513  12.297   2.005  13.175
87561SOL     OW64514   5.947  12.531   1.171
87561SOL    HW164515   5.967  12.456   1.116
87561SOL    HW264516   5.972  12.503   1.259
87562SOL     OW64517   6.935   4.075   7.471
87562SOL    HW164518   7.003   4.017   7.437
87562SOL    HW264519   6.982   4.139   7.524
87563SOL     OW64520   2.351   2.380   3.035
87563SOL    HW164521   2.354   2.352   2.944
87563SOL    HW264522   2.365   2.300   3.085
87564SOL     OW64523   8.799  10.332   3.197
87564SOL    HW164524   8.735  10.404   3.189
87564SOL    HW264525   8.822  10.310   3.107
87565SOL     OW64526  14.379  10.961   7.432
87565SOL    HW164527  14.442  10.910   7.483
87565SOL    HW264528  14.410  10.953   7.341
87566SOL     OW64529  11.802  10.547   6.320
87566SOL    HW164530  11.720  10.500   6.335
87566SOL    HW264531  11.778  10.640   6.325
87567SOL     OW64532   7.946   4.629  12.377
87567SOL    HW164533   7.979   4.715  12.401
87567SOL    HW264534   7.859   4.625  12.417
87568SOL     OW64535   0.777   2.479   5.012
87568SOL    HW164536   0.712   2.529   4.962
87568SOL    HW264537   0.756   2.388   4.995
87569SOL     OW64538   3.511  11.136   3.769
87569SOL    HW164539   3.440  11.178   3.719
87569SOL    HW264540   3.587  11.140   3.711
87570SOL     OW64541   1.256  14.267   2.532
87570SOL    HW164542   1.295  14.180   2.533
87570SOL    HW264543   1.286  14.306   2.450
87571SOL     OW64544   0.376  12.283  11.385
87571SOL    HW164545   0.423  12.365  11.400
87571SOL    HW264546   0.440  12.215  11.407
87572SOL     OW64547  13.770   5.795   4.793
87572SOL    HW164548  13.815   5.752   4.720
87572SOL    HW264549  13.819   5.768   4.871
87573SOL     OW64550   6.297   3.719  13.476
87573SOL    HW164551   6.289   3.747  13.567
87573SOL    HW264552   6.237   3.645  13.468
87574SOL     OW64553  11.716   0.177   2.062
87574SOL    HW164554  11.686   0.237   2.131
87574SOL    HW264555  11.637   0.158   2.011
87575SOL     OW64556   0.205   4.888   9.524
87575SOL    HW164557   0.229   4.870   9.433
87575SOL    HW264558   0.182   4.981   9.525
87576SOL     OW64559   9.216   9.275  12.753
87576SOL    HW164560   9.271   9.352  12.764
87576SOL    HW264561   9.225   9.252  12.660
87577SOL     OW64562  14.209   5.057   5.799
87577SOL    HW164563  14.149   5.042   5.872
87577SOL    HW264564  14.156   5.099   5.732
87578SOL     OW64565   9.050   1.376   7.123
87578SOL    HW164566   9.090   1.296   7.156
87578SOL    HW264567   9.046   1.435   7.199
87579SOL     OW64568  13.591   1.780  11.252
87579SOL    HW164569  13.531   1.823  11.192
87579SOL    HW264570  13.619   1.701  11.206
87580SOL     OW64571   1.564   5.729  12.683
87580SOL    HW164572   1.543   5.796  12.749
87580SOL    HW264573   1.479   5.691  12.661
87581SOL     OW64574   1.748  12.818   4.770
87581SOL    HW164575   1.779  12.761   4.700
87581SOL    HW264576   1.736  12.904   4.729
87582SOL     OW64577   4.573  13.943   5.115
87582SOL    HW164578   4.575  13.859   5.161
87582SOL    HW264579   4.632  14.000   5.165
87583SOL     OW64580  10.960   3.098   7.557
87583SOL    HW164581  10.952   3.109   7.652
87583SOL    HW264582  10.971   3.004   7.545
87584SOL     OW64583  12.177  10.356  11.647
87584SOL    HW164584  12.090  10.384  11.677
87584SOL    HW264585  12.218  10.437  11.618
87585SOL     OW64586  13.493   4.009   9.470
87585SOL    HW164587  13.580   4.033   9.437
87585SOL    HW264588  13.432   4.052   9.409
87586SOL     OW64589  14.248  11.721   1.573
87586SOL    HW164590  14.338  11.714   1.541
87586SOL    HW264591  14.223  11.632   1.596
87587SOL     OW64592   9.492   0.193   0.142
87587SOL    HW164593   9.433   0.253   0.096
87587SOL    HW264594   9.433   0.140   0.197
87588SOL     OW64595  10.182  10.176   8.003
87588SOL    HW164596  10.149  10.266   8.005
87588SOL    HW264597  10.135  10.135   7.931
87589SOL     OW64598   3.932   4.824   3.351
87589SOL    HW164599   3.936   4.919   3.367
87589SOL    HW264600   3.888   4.789   3.429
87590SOL     OW64601  14.033   7.537   9.395
87590SOL    HW164602  14.112   7.509   9.441
87590SOL    HW264603  13.970   7.556   9.464
87591SOL     OW64604   0.014   2.278   5.198
87591SOL    HW164605   0.056   2.330   5.266
87591SOL    HW264606  14.828   2.228   5.243
87592SOL     OW64607   3.063   7.563   7.209
87592SOL    HW164608   3.062   7.641   7.264
87592SOL    HW264609   3.095   7.493   7.266
87593SOL     OW64610  12.800  12.028   3.183
87593SOL    HW164611  12.841  12.055   3.265
87593SOL    HW264612  12.870  12.036   3.118
87594SOL     OW64613   7.139  14.171   1.689
87594SOL    HW164614   7.181  14.238   1.742
87594SOL    HW264615   7.056  14.154   1.734
87595SOL     OW64616   9.023   7.399   7.627
87595SOL    HW164617   8.952   7.368   7.684
87595SOL    HW264618   9.011   7.350   7.546
87596SOL     OW64619  14.268   9.798   3.026
87596SOL    HW164620  14.253   9.885   2.990
87596SOL    HW264621  14.185   9.751   3.013
87597SOL     OW64622   0.915  12.558   6.916
87597SOL    HW164623   0.907  12.641   6.963
87597SOL    HW264624   0.965  12.502   6.976
87598SOL     OW64625   1.282   2.351  13.570
87598SOL    HW164626   1.377   2.353  13.560
87598SOL    HW264627   1.262   2.426  13.625
87599SOL     OW64628   0.564  13.025   1.621
87599SOL    HW164629   0.587  12.952   1.563
87599SOL    HW264630   0.520  12.984   1.695
87600SOL     OW64631   8.216   3.883   6.626
87600SOL    HW164632   8.221   3.953   6.691
87600SOL    HW264633   8.204   3.803   6.677
87601SOL     OW64634  14.157   8.030   3.872
87601SOL    HW164635  14.118   7.996   3.953
87601SOL    HW264636  14.190   7.953   3.826
87602SOL     OW64637   7.643  10.314   9.614
87602SOL    HW164638   7.660  10.376   9.684
87602SOL    HW264639   7.573  10.258   9.647
87603SOL     OW64640   4.335   5.903   0.847
87603SOL    HW164641   4.410   5.847   0.829
87603SOL    HW264642   4.371   5.975   0.900
87604SOL     OW64643   4.301   3.514  10.339
87604SOL    HW164644   4.208   3.530  10.352
87604SOL    HW264645   4.305   3.440  10.277
87605SOL     OW64646   6.053   3.659   7.581
87605SOL    HW164647   6.061   3.694   7.493
87605SOL    HW264648   6.081   3.730   7.638
87606SOL     OW64649   6.857   5.423   0.580
87606SOL    HW164650   6.872   5.444   0.488
87606SOL    HW264651   6.770   5.458   0.599
87607SOL     OW64652  10.080  14.291  14.417
87607SOL    HW164653  10.007  14.233  14.395
87607SOL    HW264654  10.157  14.247  14.381
87608SOL     OW64655  12.263   5.779   4.529
87608SOL    HW164656  12.289   5.868   4.552
87608SOL    HW264657  12.320   5.722   4.580
87609SOL     OW64658   3.486   8.522   9.654
87609SOL    HW164659   3.435   8.550   9.577
87609SOL    HW264660   3.576   8.517   9.622
87610SOL     OW64661   7.240  11.046   6.017
87610SOL    HW164662   7.206  11.002   5.940
87610SOL    HW264663   7.172  11.034   6.084
87611SOL     OW64664   3.189   6.333   6.907
87611SOL    HW164665   3.100   6.319   6.877
87611SOL    HW264666   3.214   6.250   6.949
87612SOL     OW64667   8.454   6.480   4.336
87612SOL    HW164668   8.360   6.463   4.338
87612SOL    HW264669   8.465   6.559   4.388
87613SOL     OW64670  11.398   7.985   5.058
87613SOL    HW164671  11.449   7.951   4.984
87613SOL    HW264672  11.452   7.964   5.135
87614SOL     OW64673   4.327  13.926   4.963
87614SOL    HW164674   4.259  13.949   5.026
87614SOL    HW264675   4.408  13.958   5.003
87615SOL     OW64676   5.394  13.311   7.342
87615SOL    HW164677   5.418  13.335   7.431
87615SOL    HW264678   5.461  13.353   7.287
87616SOL     OW64679   5.345   8.681  11.109
87616SOL    HW164680   5.380   8.645  11.028
87616SOL    HW264681   5.391   8.764  11.120
87617SOL     OW64682   7.702   5.456   5.180
87617SOL    HW164683   7.670   5.398   5.111
87617SOL    HW264684   7.791   5.425   5.198
87618SOL     OW64685  10.239   6.907   2.330
87618SOL    HW164686  10.279   6.990   2.355
87618SOL    HW264687  10.303   6.865   2.273
87619SOL     OW64688  10.653   3.165   3.722
87619SOL    HW164689  10.616   3.250   3.746
87619SOL    HW264690  10.580   3.103   3.731
87620SOL     OW64691   1.606  11.029   9.916
87620SOL    HW164692   1.572  11.106   9.961
87620SOL    HW264693   1.593  11.049   9.823
87621SOL     OW64694   2.404   6.332   1.206
87621SOL    HW164695   2.488   6.298   1.239
87621SOL    HW264696   2.393   6.291   1.121
87622SOL     OW64697   3.074   3.773   1.192
87622SOL    HW164698   3.073   3.738   1.281
87622SOL    HW264699   3.035   3.860   1.200
87623SOL     OW64700  12.527   5.691  12.522
87623SOL    HW164701  12.619   5.716  12.519
87623SOL    HW264702  12.483   5.755  12.465
87624SOL     OW64703   7.381   8.647   1.641
87624SOL    HW164704   7.337   8.589   1.704
87624SOL    HW264705   7.462   8.602   1.619
87625SOL     OW64706  10.174  13.287   3.162
87625SOL    HW164707  10.158  13.224   3.092
87625SOL    HW264708  10.091  13.334   3.172
87626SOL     OW64709   7.282  12.648   5.368
87626SOL    HW164710   7.258  12.573   5.314
87626SOL    HW264711   7.370  12.627   5.401
87627SOL     OW64712  11.421   2.383   3.176
87627SOL    HW164713  11.496   2.433   3.206
87627SOL    HW264714  11.443   2.359   3.086
87628SOL     OW64715   3.642   3.540  12.032
87628SOL    HW164716   3.622   3.489  11.953
87628SOL    HW264717   3.570   3.603  12.038
87629SOL     OW64718   3.399   7.196   1.828
87629SOL    HW164719   3.463   7.132   1.858
87629SOL    HW264720   3.338   7.146   1.774
87630SOL     OW64721  14.219   6.930   9.342
87630SOL    HW164722  14.126   6.920   9.363
87630SOL    HW264723  14.263   6.937   9.427
87631SOL     OW64724   8.422   5.282   9.695
87631SOL    HW164725   8.378   5.326   9.623
87631SOL    HW264726   8.515   5.296   9.680
87632SOL     OW64727  13.562   2.470   0.548
87632SOL    HW164728  13.577   2.398   0.610
87632SOL    HW264729  13.633   2.463   0.485
87633SOL     OW64730   5.923  13.317  13.930
87633SOL    HW164731   5.973  13.327  14.011
87633SOL    HW264732   5.896  13.406  13.908
87634SOL     OW64733  13.966  11.824   4.665
87634SOL    HW164734  13.977  11.911   4.626
87634SOL    HW264735  13.906  11.778   4.605
87635SOL     OW64736   0.517  10.949  11.036
87635SOL    HW164737   0.566  10.867  11.029
87635SOL    HW264738   0.507  10.978  10.945
87636SOL     OW64739   7.643   4.026   3.549
87636SOL    HW164740   7.608   4.023   3.638
87636SOL    HW264741   7.570   4.056   3.496
87637SOL     OW64742  11.636  12.202   6.489
87637SOL    HW164743  11.610  12.275   6.546
87637SOL    HW264744  11.731  12.198   6.497
87638SOL     OW64745   3.970  10.961   9.201
87638SOL    HW164746   3.888  10.962   9.152
87638SOL    HW264747   4.020  11.035   9.166
87639SOL     OW64748   3.150   1.064   7.472
87639SOL    HW164749   3.110   1.007   7.538
87639SOL    HW264750   3.192   1.003   7.411
87640SOL     OW64751   3.060   2.565   8.666
87640SOL    HW164752   3.122   2.600   8.730
87640SOL    HW264753   3.107   2.491   8.626
87641SOL     OW64754   1.485   2.032  13.800
87641SOL    HW164755   1.500   2.083  13.879
87641SOL    HW264756   1.564   2.045  13.747
87642SOL     OW64757   6.349  11.611   9.054
87642SOL    HW164758   6.411  11.620   9.127
87642SOL    HW264759   6.277  11.559   9.090
87643SOL     OW64760   7.408   2.176   1.299
87643SOL    HW164761   7.432   2.121   1.374
87643SOL    HW264762   7.395   2.113   1.227
87644SOL     OW64763   7.517   1.580   5.303
87644SOL    HW164764   7.544   1.654   5.356
87644SOL    HW264765   7.599   1.543   5.269
87645SOL     OW64766   0.369   4.248   7.786
87645SOL    HW164767   0.376   4.255   7.881
87645SOL    HW264768   0.327   4.330   7.758
87646SOL     OW64769   4.988   8.825   7.245
87646SOL    HW164770   5.014   8.799   7.334
87646SOL    HW264771   5.026   8.758   7.189
87647SOL     OW64772   0.327   0.149   2.127
87647SOL    HW164773   0.298   0.070   2.172
87647SOL    HW264774   0.405   0.122   2.079
87648SOL     OW64775   5.267   9.872  13.097
87648SOL    HW164776   5.290   9.809  13.029
87648SOL    HW264777   5.225   9.820  13.165
87649SOL     OW64778   5.099  10.555  12.435
87649SOL    HW164779   5.160  10.584  12.503
87649SOL    HW264780   5.107  10.460  12.435
87650SOL     OW64781   9.366   4.822   0.079
87650SOL    HW164782   9.373   4.884   0.006
87650SOL    HW264783   9.444   4.768   0.073
87651SOL     OW64784   2.988  14.086   6.084
87651SOL    HW164785   2.902  14.054   6.054
87651SOL    HW264786   2.987  14.071   6.178
87652SOL     OW64787   6.292   2.702  14.823
87652SOL    HW164788   6.272   2.783  14.776
87652SOL    HW264789   6.324   2.642  14.755
87653SOL     OW64790  14.531   9.609   2.500
87653SOL    HW164791  14.537   9.620   2.406
87653SOL    HW264792  14.482   9.527   2.512
87654SOL     OW64793   4.511  13.379   4.748
87654SOL    HW164794   4.429  13.362   4.701
87654SOL    HW264795   4.579  13.341   4.693
87655SOL     OW64796   7.929  10.179   3.036
87655SOL    HW164797   7.881  10.221   3.107
87655SOL    HW264798   7.952  10.250   2.977
87656SOL     OW64799   5.058   4.895  11.907
87656SOL    HW164800   4.990   4.853  11.855
87656SOL    HW264801   5.043   4.989  11.893
87657SOL     OW64802  13.138  11.108   9.252
87657SOL    HW164803  13.200  11.071   9.189
87657SOL    HW264804  13.118  11.037   9.312
87658SOL     OW64805   3.739  11.744   7.618
87658SOL    HW164806   3.704  11.827   7.651
87658SOL    HW264807   3.706  11.738   7.528
87659SOL     OW64808   5.497  12.353  10.791
87659SOL    HW164809   5.423  12.336  10.733
87659SOL    HW264810   5.549  12.420  10.746
87660SOL     OW64811  13.994   2.966   5.586
87660SOL    HW164812  13.938   2.903   5.631
87660SOL    HW264813  14.061   2.989   5.651
87661SOL     OW64814   8.831  14.629   9.166
87661SOL    HW164815   8.846  14.719   9.135
87661SOL    HW264816   8.866  14.628   9.255
87662SOL     OW64817   3.730   2.642   6.730
87662SOL    HW164818   3.761   2.713   6.673
87662SOL    HW264819   3.636   2.661   6.741
87663SOL     OW64820   5.969   2.698  13.551
87663SOL    HW164821   6.042   2.740  13.505
87663SOL    HW264822   5.968   2.609  13.518
87664SOL     OW64823   6.088   9.308   3.079
87664SOL    HW164824   6.014   9.318   3.139
87664SOL    HW264825   6.070   9.227   3.032
87665SOL     OW64826  13.696  14.467   9.678
87665SOL    HW164827  13.698  14.527   9.753
87665SOL    HW264828  13.788  14.442   9.666
87666SOL     OW64829   0.719   2.890   4.329
87666SOL    HW164830   0.731   2.899   4.424
87666SOL    HW264831   0.636   2.934   4.311
87667SOL     OW64832   2.245   3.169   4.952
87667SOL    HW164833   2.308   3.208   5.012
87667SOL    HW264834   2.253   3.075   4.966
87668SOL     OW64835   0.242   5.144   0.771
87668SOL    HW164836   0.314   5.150   0.834
87668SOL    HW264837   0.257   5.062   0.725
87669SOL     OW64838   1.027   1.848   9.080
87669SOL    HW164839   0.983   1.773   9.040
87669SOL    HW264840   1.115   1.847   9.044
87670SOL     OW64841   0.246   2.779   8.203
87670SOL    HW164842   0.169   2.751   8.252
87670SOL    HW264843   0.222   2.769   8.111
87671SOL     OW64844   0.833   1.561   1.519
87671SOL    HW164845   0.843   1.584   1.427
87671SOL    HW264846   0.807   1.468   1.518
87672SOL     OW64847   5.887  11.888  13.855
87672SOL    HW164848   5.905  11.860  13.765
87672SOL    HW264849   5.835  11.968  13.846
87673SOL     OW64850   9.667   9.656   7.526
87673SOL    HW164851   9.620   9.590   7.577
87673SOL    HW264852   9.738   9.607   7.484
87674SOL     OW64853   4.659  11.910  14.066
87674SOL    HW164854   4.564  11.908  14.082
87674SOL    HW264855   4.691  11.830  14.107
87675SOL     OW64856  10.840   8.045  12.749
87675SOL    HW164857  10.934   8.064  12.746
87675SOL    HW264858  10.801   8.103  12.684
87676SOL     OW64859   7.715   7.274   3.112
87676SOL    HW164860   7.662   7.195   3.118
87676SOL    HW264861   7.771   7.260   3.036
87677SOL     OW64862  12.124  11.259  10.176
87677SOL    HW164863  12.211  11.254  10.217
87677SOL    HW264864  12.142  11.254  10.082
87678SOL     OW64865   8.260   9.766   1.454
87678SOL    HW164866   8.274   9.844   1.508
87678SOL    HW264867   8.289   9.693   1.508
87679SOL     OW64868   6.415   1.899   4.981
87679SOL    HW164869   6.462   1.915   4.899
87679SOL    HW264870   6.435   1.808   5.003
87680SOL     OW64871  13.354   2.498   5.625
87680SOL    HW164872  13.390   2.583   5.652
87680SOL    HW264873  13.351   2.502   5.530
87681SOL     OW64874  13.512   1.340   2.088
87681SOL    HW164875  13.447   1.286   2.043
87681SOL    HW264876  13.516   1.420   2.037
87682SOL     OW64877   6.538   2.383  12.025
87682SOL    HW164878   6.566   2.326  12.096
87682SOL    HW264879   6.607   2.374  11.959
87683SOL     OW64880   8.124   2.207   3.583
87683SOL    HW164881   8.159   2.261   3.512
87683SOL    HW264882   8.142   2.117   3.555
87684SOL     OW64883  11.601   8.220  13.050
87684SOL    HW164884  11.533   8.168  13.092
87684SOL    HW264885  11.591   8.202  12.957
87685SOL     OW64886   5.709   2.286  10.121
87685SOL    HW164887   5.793   2.324  10.098
87685SOL    HW264888   5.694   2.217  10.056
87686SOL     OW64889  10.918   6.956   5.432
87686SOL    HW164890  10.936   6.870   5.394
87686SOL    HW264891  10.890   6.938   5.521
87687SOL     OW64892   5.100   2.689  14.494
87687SOL    HW164893   5.055   2.757  14.544
87687SOL    HW264894   5.104   2.614  14.554
87688SOL     OW64895   6.445   9.007  13.838
87688SOL    HW164896   6.440   8.922  13.882
87688SOL    HW264897   6.501   9.060  13.895
87689SOL     OW64898  10.261   6.168  10.244
87689SOL    HW164899  10.204   6.095  10.265
87689SOL    HW264900  10.211   6.219  10.180
87690SOL     OW64901   9.488   1.791   9.870
87690SOL    HW164902   9.516   1.703   9.894
87690SOL    HW264903   9.474   1.787   9.775
87691SOL     OW64904   8.406   4.168  12.179
87691SOL    HW164905   8.476   4.162  12.245
87691SOL    HW264906   8.357   4.086  12.190
87692SOL     OW64907   9.922   6.957   9.816
87692SOL    HW164908   9.978   7.029   9.787
87692SOL    HW264909   9.842   6.966   9.765
87693SOL     OW64910  13.439  14.592  13.393
87693SOL    HW164911  13.475  14.538  13.322
87693SOL    HW264912  13.516  14.619  13.443
87694SOL     OW64913   3.167   9.240   0.289
87694SOL    HW164914   3.179   9.233   0.383
87694SOL    HW264915   3.168   9.149   0.257
87695SOL     OW64916   0.224   3.615   8.162
87695SOL    HW164917   0.136   3.646   8.138
87695SOL    HW264918   0.209   3.557   8.237
87696SOL     OW64919  13.235  11.612  12.246
87696SOL    HW164920  13.207  11.531  12.204
87696SOL    HW264921  13.155  11.663  12.256
87697SOL     OW64922   5.562   4.246  14.755
87697SOL    HW164923   5.495   4.255  14.823
87697SOL    HW264924   5.517   4.268  14.674
87698SOL     OW64925   2.001   0.583   9.186
87698SOL    HW164926   1.933   0.578   9.119
87698SOL    HW264927   1.984   0.508   9.243
87699SOL     OW64928   2.499   3.810   0.259
87699SOL    HW164929   2.552   3.872   0.309
87699SOL    HW264930   2.409   3.839   0.273
87700SOL     OW64931  13.030   7.395   1.536
87700SOL    HW164932  12.936   7.398   1.552
87700SOL    HW264933  13.070   7.399   1.623
87701SOL     OW64934   2.281  12.352   5.234
87701SOL    HW164935   2.203  12.319   5.191
87701SOL    HW264936   2.250  12.421   5.292
87702SOL     OW64937   8.053   3.094   1.168
87702SOL    HW164938   8.045   3.074   1.075
87702SOL    HW264939   8.129   3.152   1.174
87703SOL     OW64940   0.903   5.905   3.506
87703SOL    HW164941   0.954   5.987   3.506
87703SOL    HW264942   0.916   5.869   3.418
87704SOL     OW64943   9.080   4.693   5.515
87704SOL    HW164944   9.053   4.698   5.607
87704SOL    HW264945   8.998   4.684   5.466
87705SOL     OW64946  10.797  11.816  14.064
87705SOL    HW164947  10.832  11.867  14.137
87705SOL    HW264948  10.825  11.726  14.083
87706SOL     OW64949   3.572  10.884   9.561
87706SOL    HW164950   3.515  10.961   9.571
87706SOL    HW264951   3.552  10.830   9.637
87707SOL     OW64952  13.332   1.175   7.983
87707SOL    HW164953  13.393   1.120   7.935
87707SOL    HW264954  13.292   1.231   7.916
87708SOL     OW64955  14.553   7.292  10.326
87708SOL    HW164956  14.492   7.314  10.396
87708SOL    HW264957  14.534   7.355  10.257
87709SOL     OW64958   7.560  10.208   3.205
87709SOL    HW164959   7.562  10.164   3.120
87709SOL    HW264960   7.647  10.248   3.213
87710SOL     OW64961  11.812   4.814  12.840
87710SOL    HW164962  11.802   4.740  12.780
87710SOL    HW264963  11.906   4.833  12.840
87711SOL     OW64964   6.590  13.888   7.864
87711SOL    HW164965   6.566  13.903   7.773
87711SOL    HW264966   6.686  13.885   7.863
87712SOL     OW64967  11.270   7.837   8.445
87712SOL    HW164968  11.268   7.905   8.377
87712SOL    HW264969  11.333   7.773   8.413
87713SOL     OW64970  10.489  10.464  12.793
87713SOL    HW164971  10.467  10.397  12.858
87713SOL    HW264972  10.492  10.416  12.710
87714SOL     OW64973   0.526   0.137  14.107
87714SOL    HW164974   0.591   0.067  14.095
87714SOL    HW264975   0.567   0.215  14.068
87715SOL     OW64976   6.444   0.896   5.402
87715SOL    HW164977   6.496   0.901   5.322
87715SOL    HW264978   6.353   0.892   5.371
87716SOL     OW64979   9.216   0.326   7.384
87716SOL    HW164980   9.181   0.250   7.337
87716SOL    HW264981   9.298   0.346   7.339
87717SOL     OW64982  14.872   6.157   3.809
87717SOL    HW164983  14.799   6.217   3.827
87717SOL    HW264984   0.011   6.118   3.894
87718SOL     OW64985  10.977  10.112  14.194
87718SOL    HW164986  11.005  10.024  14.218
87718SOL    HW264987  11.055  10.153  14.157
87719SOL     OW64988   3.081  14.415   2.781
87719SOL    HW164989   3.070  14.407   2.876
87719SOL    HW264990   3.108  14.328   2.753
87720SOL     OW64991   3.142  11.842   7.363
87720SOL    HW164992   3.081  11.769   7.370
87720SOL    HW264993   3.103  11.911   7.417
87721SOL     OW64994   2.308  14.155  12.231
87721SOL    HW164995   2.252  14.077  12.234
87721SOL    HW264996   2.259  14.218  12.178
87722SOL     OW64997   3.796   1.038   1.539
87722SOL    HW164998   3.825   1.096   1.609
87722SOL    HW264999   3.736   1.091   1.486
87723SOL     OW65000   7.226  14.632  14.712
87723SOL    HW165001   7.293  14.685  14.757
87723SOL    HW265002   7.245  14.542  14.737
87724SOL     OW65003  10.048   3.607   6.190
87724SOL    HW165004  10.084   3.688   6.154
87724SOL    HW265005   9.968   3.592   6.140
87725SOL     OW65006   2.454   5.409   5.045
87725SOL    HW165007   2.412   5.444   4.967
87725SOL    HW265008   2.386   5.411   5.112
87726SOL     OW65009  11.526   6.572  13.275
87726SOL    HW165010  11.574   6.501  13.317
87726SOL    HW265011  11.476   6.613  13.346
87727SOL     OW65012   6.355  12.209  13.564
87727SOL    HW165013   6.290  12.142  13.582
87727SOL    HW265014   6.429  12.187  13.621
87728SOL     OW65015   8.612  13.060   6.677
87728SOL    HW165016   8.706  13.040   6.679
87728SOL    HW265017   8.590  13.076   6.768
87729SOL     OW65018   8.385   4.696   9.545
87729SOL    HW165019   8.330   4.772   9.525
87729SOL    HW265020   8.412   4.664   9.459
87730SOL     OW65021   9.275   0.706  12.203
87730SOL    HW165022   9.341   0.650  12.162
87730SOL    HW265023   9.324   0.757  12.267
87731SOL     OW65024  10.639  12.208   7.944
87731SOL    HW165025  10.634  12.144   8.015
87731SOL    HW265026  10.548  12.225   7.920
87732SOL     OW65027  11.951   6.540   8.447
87732SOL    HW165028  11.958   6.621   8.396
87732SOL    HW265029  12.039   6.525   8.482
87733SOL     OW65030   7.290   8.750   3.391
87733SOL    HW165031   7.299   8.672   3.446
87733SOL    HW265032   7.380   8.778   3.375
87734SOL     OW65033  11.727   7.861  11.085
87734SOL    HW165034  11.733   7.854  11.180
87734SOL    HW265035  11.729   7.770  11.054
87735SOL     OW65036   0.902   7.155   1.256
87735SOL    HW165037   0.997   7.151   1.265
87735SOL    HW265038   0.887   7.221   1.188
87736SOL     OW65039  14.292   6.031   4.105
87736SOL    HW165040  14.352   6.016   4.032
87736SOL    HW265041  14.206   6.035   4.064
87737SOL     OW65042   6.053   2.692   5.522
87737SOL    HW165043   6.105   2.737   5.589
87737SOL    HW265044   6.068   2.599   5.539
87738SOL     OW65045  13.217  11.852   2.024
87738SOL    HW165046  13.221  11.916   1.953
87738SOL    HW265047  13.218  11.904   2.104
87739SOL     OW65048   0.473   9.620   6.519
87739SOL    HW165049   0.391   9.652   6.557
87739SOL    HW265050   0.484   9.533   6.557
87740SOL     OW65051  11.306   8.231   7.342
87740SOL    HW165052  11.230   8.248   7.397
87740SOL    HW265053  11.314   8.310   7.288
87741SOL     OW65054   6.869   1.740   4.906
87741SOL    HW165055   6.809   1.725   4.834
87741SOL    HW265056   6.949   1.694   4.880
87742SOL     OW65057  14.175   9.238  14.269
87742SOL    HW165058  14.101   9.276  14.317
87742SOL    HW265059  14.138   9.161  14.226
87743SOL     OW65060   0.971   0.407  12.906
87743SOL    HW165061   1.051   0.460  12.909
87743SOL    HW265062   0.900   0.471  12.906
87744SOL     OW65063   1.022   2.585   2.828
87744SOL    HW165064   1.086   2.651   2.801
87744SOL    HW265065   1.057   2.503   2.792
87745SOL     OW65066   1.649   2.347  10.272
87745SOL    HW165067   1.707   2.314  10.341
87745SOL    HW265068   1.640   2.441  10.291
87746SOL     OW65069   8.267  13.394  13.516
87746SOL    HW165070   8.175  13.374  13.533
87746SOL    HW265071   8.296  13.323  13.459
87747SOL     OW65072   2.199   0.968   2.448
87747SOL    HW165073   2.113   0.937   2.417
87747SOL    HW265074   2.182   1.002   2.536
87748SOL     OW65075  13.197   3.635   3.457
87748SOL    HW165076  13.269   3.583   3.421
87748SOL    HW265077  13.207   3.721   3.417
87749SOL     OW65078   2.291   5.025   4.121
87749SOL    HW165079   2.316   5.044   4.031
87749SOL    HW265080   2.373   5.006   4.166
87750SOL     OW65081   3.554  13.671  10.041
87750SOL    HW165082   3.572  13.692  10.133
87750SOL    HW265083   3.472  13.715  10.023
87751SOL     OW65084  14.358  12.229   8.780
87751SOL    HW165085  14.450  12.247   8.762
87751SOL    HW265086  14.316  12.315   8.783
87752SOL     OW65087   8.875   0.787   2.135
87752SOL    HW165088   8.879   0.760   2.043
87752SOL    HW265089   8.966   0.789   2.163
87753SOL     OW65090   9.055   2.255   0.122
87753SOL    HW165091   9.124   2.198   0.155
87753SOL    HW265092   9.100   2.314   0.062
87754SOL     OW65093   2.271  14.467  12.004
87754SOL    HW165094   2.179  14.439  11.999
87754SOL    HW265095   2.281  14.498  12.094
87755SOL     OW65096  10.570   7.025   0.151
87755SOL    HW165097  10.637   6.964   0.181
87755SOL    HW265098  10.489   6.973   0.149
87756SOL     OW65099   5.514   0.147   5.657
87756SOL    HW165100   5.437   0.180   5.612
87756SOL    HW265101   5.520   0.055   5.631
87757SOL     OW65102   8.709   3.628  11.257
87757SOL    HW165103   8.757   3.547  11.276
87757SOL    HW265104   8.764   3.697  11.294
87758SOL     OW65105   5.125  10.352  10.892
87758SOL    HW165106   5.139  10.371  10.800
87758SOL    HW265107   5.048  10.295  10.893
87759SOL     OW65108   4.273   0.245   2.763
87759SOL    HW165109   4.211   0.188   2.718
87759SOL    HW265110   4.310   0.300   2.693
87760SOL     OW65111   2.865   4.968  10.421
87760SOL    HW165112   2.808   4.908  10.469
87760SOL    HW265113   2.906   4.913  10.354
87761SOL     OW65114   8.949   6.728   3.879
87761SOL    HW165115   8.946   6.671   3.956
87761SOL    HW265116   9.017   6.688   3.824
87762SOL     OW65117   1.810  10.338   0.136
87762SOL    HW165118   1.720  10.314   0.113
87762SOL    HW265119   1.838  10.396   0.066
87763SOL     OW65120   8.252   0.682   0.115
87763SOL    HW165121   8.191   0.692   0.189
87763SOL    HW265122   8.337   0.705   0.152
87764SOL     OW65123   3.421  10.708   9.826
87764SOL    HW165124   3.462  10.765   9.890
87764SOL    HW265125   3.404  10.626   9.874
87765SOL     OW65126  10.428   1.304   0.017
87765SOL    HW165127  10.504   1.247   0.010
87765SOL    HW265128  10.385   1.298  14.813
87766SOL     OW65129  11.336   3.964  13.911
87766SOL    HW165130  11.280   4.026  13.866
87766SOL    HW265131  11.290   3.880  13.905
87767SOL     OW65132   5.111  13.186   4.315
87767SOL    HW165133   5.198  13.196   4.276
87767SOL    HW265134   5.061  13.135   4.251
87768SOL     OW65135   0.434   4.861   6.149
87768SOL    HW165136   0.439   4.787   6.089
87768SOL    HW265137   0.351   4.849   6.195
87769SOL     OW65138  10.519   4.111   1.906
87769SOL    HW165139  10.428   4.142   1.912
87769SOL    HW265140  10.513   4.029   1.856
87770SOL     OW65141   1.857   9.619  10.750
87770SOL    HW165142   1.948   9.647  10.760
87770SOL    HW265143   1.806   9.700  10.756
87771SOL     OW65144   0.010   8.669  10.674
87771SOL    HW165145  14.855   8.686  10.760
87771SOL    HW265146   0.097   8.631  10.691
87772SOL     OW65147   1.499   7.694   3.760
87772SOL    HW165148   1.458   7.675   3.845
87772SOL    HW265149   1.587   7.657   3.767
87773SOL     OW65150   8.858  12.679  13.395
87773SOL    HW165151   8.775  12.724  13.382
87773SOL    HW265152   8.842  12.589  13.366
87774SOL     OW65153   9.785  13.905  11.972
87774SOL    HW165154   9.835  13.931  11.895
87774SOL    HW265155   9.778  13.985  12.024
87775SOL     OW65156   8.417   4.526   7.615
87775SOL    HW165157   8.352   4.590   7.643
87775SOL    HW265158   8.477   4.519   7.689
87776SOL     OW65159   0.029  14.630  12.358
87776SOL    HW165160   0.016  14.725  12.353
87776SOL    HW265161   0.005  14.608  12.448
87777SOL     OW65162   3.221   9.853  10.325
87777SOL    HW165163   3.186   9.942  10.321
87777SOL    HW265164   3.148   9.797  10.296
87778SOL     OW65165  14.177  10.890   1.045
87778SOL    HW165166  14.135  10.974   1.062
87778SOL    HW265167  14.107  10.825   1.054
87779SOL     OW65168   8.672   7.054  10.564
87779SOL    HW165169   8.754   7.054  10.612
87779SOL    HW265170   8.685   7.118  10.494
87780SOL     OW65171  12.708   8.810   3.112
87780SOL    HW165172  12.790   8.836   3.070
87780SOL    HW265173  12.686   8.884   3.168
87781SOL     OW65174   0.569   8.755   5.060
87781SOL    HW165175   0.605   8.693   5.124
87781SOL    HW265176   0.640   8.816   5.043
87782SOL     OW65177  11.215   0.930   0.974
87782SOL    HW165178  11.127   0.920   1.010
87782SOL    HW265179  11.221   0.863   0.906
87783SOL     OW65180   9.405   4.723   3.871
87783SOL    HW165181   9.442   4.708   3.958
87783SOL    HW265182   9.405   4.818   3.860
87784SOL     OW65183  11.048  11.187   2.165
87784SOL    HW165184  11.019  11.099   2.143
87784SOL    HW265185  11.126  11.200   2.111
87785SOL     OW65186  13.027   7.599  10.358
87785SOL    HW165187  13.027   7.529  10.422
87785SOL    HW265188  13.060   7.558  10.278
87786SOL     OW65189   9.394   9.119  11.318
87786SOL    HW165190   9.425   9.176  11.248
87786SOL    HW265191   9.320   9.167  11.357
87787SOL     OW65192   0.492   2.336   4.938
87787SOL    HW165193   0.533   2.261   4.895
87787SOL    HW265194   0.434   2.373   4.872
87788SOL     OW65195  12.604   1.337  14.068
87788SOL    HW165196  12.525   1.284  14.078
87788SOL    HW265197  12.676   1.275  14.082
87789SOL     OW65198   5.363   9.329   2.714
87789SOL    HW165199   5.370   9.354   2.806
87789SOL    HW265200   5.353   9.234   2.716
87790SOL     OW65201   3.202   3.875   3.239
87790SOL    HW165202   3.137   3.835   3.297
87790SOL    HW265203   3.181   3.968   3.241
87791SOL     OW65204   9.733   6.557   5.319
87791SOL    HW165205   9.702   6.540   5.408
87791SOL    HW265206   9.760   6.471   5.286
87792SOL     OW65207   8.240  10.672   1.618
87792SOL    HW165208   8.153  10.639   1.592
87792SOL    HW265209   8.221  10.740   1.683
87793SOL     OW65210   8.354  11.169   2.362
87793SOL    HW165211   8.282  11.140   2.306
87793SOL    HW265212   8.322  11.250   2.401
87794SOL     OW65213   6.396   7.130   6.546
87794SOL    HW165214   6.432   7.202   6.494
87794SOL    HW265215   6.321   7.099   6.495
87795SOL     OW65216   5.783   7.065   0.491
87795SOL    HW165217   5.796   7.149   0.448
87795SOL    HW265218   5.699   7.034   0.458
87796SOL     OW65219   4.303   6.089  13.142
87796SOL    HW165220   4.385   6.095  13.190
87796SOL    HW265221   4.286   5.995  13.136
87797SOL     OW65222   5.192   7.737   3.923
87797SOL    HW165223   5.129   7.735   3.996
87797SOL    HW265224   5.139   7.764   3.848
87798SOL     OW65225   3.347   6.524   4.823
87798SOL    HW165226   3.260   6.483   4.820
87798SOL    HW265227   3.384   6.496   4.906
87799SOL     OW65228   0.624   3.493   2.048
87799SOL    HW165229   0.642   3.531   1.962
87799SOL    HW265230   0.604   3.569   2.103
87800SOL     OW65231   9.513   2.967   4.428
87800SOL    HW165232   9.571   2.900   4.463
87800SOL    HW265233   9.499   3.027   4.501
87801SOL     OW65234  14.121   0.788   9.196
87801SOL    HW165235  14.060   0.763   9.266
87801SOL    HW265236  14.142   0.879   9.215
87802SOL     OW65237   6.007  10.837  12.447
87802SOL    HW165238   5.975  10.748  12.440
87802SOL    HW265239   5.966  10.883  12.374
87803SOL     OW65240   2.908  10.269   3.177
87803SOL    HW165241   2.906  10.248   3.083
87803SOL    HW265242   2.990  10.316   3.190
87804SOL     OW65243   8.474   6.268  11.646
87804SOL    HW165244   8.529   6.269  11.567
87804SOL    HW265245   8.450   6.360  11.659
87805SOL     OW65246   5.695   3.898   1.374
87805SOL    HW165247   5.610   3.934   1.349
87805SOL    HW265248   5.759   3.957   1.334
87806SOL     OW65249   4.915   2.005  13.238
87806SOL    HW165250   4.970   2.004  13.317
87806SOL    HW265251   4.928   2.093  13.201
87807SOL     OW65252   4.874   2.918   7.095
87807SOL    HW165253   4.793   2.967   7.111
87807SOL    HW265254   4.877   2.854   7.166
87808SOL     OW65255   4.935   7.861   1.778
87808SOL    HW165256   4.904   7.866   1.687
87808SOL    HW265257   4.931   7.951   1.809
87809SOL     OW65258  14.354   7.260  12.875
87809SOL    HW165259  14.410   7.257  12.953
87809SOL    HW265260  14.270   7.291  12.908
87810SOL     OW65261  11.925   5.495   6.203
87810SOL    HW165262  11.905   5.584   6.233
87810SOL    HW265263  11.908   5.440   6.279
87811SOL     OW65264  10.364  10.137  10.409
87811SOL    HW165265  10.270  10.120  10.418
87811SOL    HW265266  10.375  10.229  10.433
87812SOL     OW65267   5.107   1.596   2.351
87812SOL    HW165268   5.099   1.580   2.257
87812SOL    HW265269   5.102   1.509   2.391
87813SOL     OW65270   7.682  13.251   0.107
87813SOL    HW165271   7.687  13.345   0.086
87813SOL    HW265272   7.717  13.207   0.030
87814SOL     OW65273   0.461   0.827  14.488
87814SOL    HW165274   0.416   0.901  14.446
87814SOL    HW265275   0.536   0.810  14.431
87815SOL     OW65276   7.835  12.289   8.503
87815SOL    HW165277   7.926  12.317   8.492
87815SOL    HW265278   7.802  12.278   8.414
87816SOL     OW65279   2.584   4.806   6.652
87816SOL    HW165280   2.541   4.838   6.731
87816SOL    HW265281   2.568   4.874   6.587
87817SOL     OW65282   1.737   1.917   5.456
87817SOL    HW165283   1.771   1.827   5.455
87817SOL    HW265284   1.642   1.907   5.451
87818SOL     OW65285  13.049  10.407   7.872
87818SOL    HW165286  12.959  10.387   7.846
87818SOL    HW265287  13.103  10.365   7.805
87819SOL     OW65288  11.043  12.332   7.572
87819SOL    HW165289  11.042  12.373   7.486
87819SOL    HW265290  10.950  12.322   7.595
87820SOL     OW65291   1.781   2.201  14.332
87820SOL    HW165292   1.735   2.215  14.415
87820SOL    HW265293   1.848   2.136  14.352
87821SOL     OW65294  12.330  13.557   1.925
87821SOL    HW165295  12.418  13.581   1.894
87821SOL    HW265296  12.332  13.461   1.927
87822SOL     OW65297   9.956  13.544   2.426
87822SOL    HW165298   9.911  13.519   2.345
87822SOL    HW265299   9.886  13.557   2.490
87823SOL     OW65300  13.195   1.239  10.001
87823SOL    HW165301  13.123   1.233   9.938
87823SOL    HW265302  13.265   1.187   9.963
87824SOL     OW65303   5.632   9.668   1.513
87824SOL    HW165304   5.639   9.755   1.474
87824SOL    HW265305   5.675   9.676   1.598
87825SOL     OW65306   0.212  11.847  11.358
87825SOL    HW165307   0.128  11.819  11.395
87825SOL    HW265308   0.208  11.819  11.267
87826SOL     OW65309   4.224   3.802   3.062
87826SOL    HW165310   4.159   3.859   3.022
87826SOL    HW265311   4.184   3.773   3.144
87827SOL     OW65312  13.724  12.027   5.751
87827SOL    HW165313  13.786  11.956   5.764
87827SOL    HW265314  13.749  12.067   5.668
87828SOL     OW65315   8.634   9.742   2.920
87828SOL    HW165316   8.703   9.786   2.870
87828SOL    HW265317   8.610   9.805   2.988
87829SOL     OW65318   5.485  14.850  11.084
87829SOL    HW165319   5.425   0.025  11.132
87829SOL    HW265320   5.451  14.848  10.995
87830SOL     OW65321  13.379   0.722   6.595
87830SOL    HW165322  13.390   0.628   6.582
87830SOL    HW265323  13.370   0.733   6.689
87831SOL     OW65324   0.881   8.906   9.615
87831SOL    HW165325   0.930   8.959   9.551
87831SOL    HW265326   0.806   8.961   9.637
87832SOL     OW65327   5.144  11.548   6.503
87832SOL    HW165328   5.072  11.609   6.519
87832SOL    HW265329   5.125  11.511   6.417
87833SOL     OW65330   3.726   7.450   9.434
87833SOL    HW165331   3.700   7.504   9.360
87833SOL    HW265332   3.643   7.429   9.478
87834SOL     OW65333   6.011   8.398  13.715
87834SOL    HW165334   6.041   8.321  13.667
87834SOL    HW265335   5.944   8.364  13.775
87835SOL     OW65336   9.888   8.782   3.108
87835SOL    HW165337   9.823   8.788   3.037
87835SOL    HW265338   9.960   8.838   3.079
87836SOL     OW65339   7.202  12.166  12.561
87836SOL    HW165340   7.124  12.123  12.595
87836SOL    HW265341   7.216  12.125  12.475
87837SOL     OW65342   0.203   1.703   3.463
87837SOL    HW165343   0.191   1.618   3.419
87837SOL    HW265344   0.210   1.681   3.556
87838SOL     OW65345   0.102   7.567   7.049
87838SOL    HW165346   0.145   7.482   7.052
87838SOL    HW265347   0.065   7.572   6.961
87839SOL     OW65348   4.179   1.266   1.268
87839SOL    HW165349   4.220   1.180   1.270
87839SOL    HW265350   4.158   1.281   1.176
87840SOL     OW65351  10.755   4.262   1.683
87840SOL    HW165352  10.832   4.225   1.639
87840SOL    HW265353  10.706   4.185   1.712
87841SOL     OW65354  10.657  11.892   7.737
87841SOL    HW165355  10.667  11.872   7.830
87841SOL    HW265356  10.565  11.919   7.728
87842SOL     OW65357  11.120   5.527   5.675
87842SOL    HW165358  11.091   5.507   5.765
87842SOL    HW265359  11.191   5.465   5.658
87843SOL     OW65360   0.309   2.821   2.767
87843SOL    HW165361   0.335   2.767   2.693
87843SOL    HW265362   0.288   2.906   2.729
87844SOL     OW65363   8.924   5.160  11.813
87844SOL    HW165364   8.891   5.247  11.839
87844SOL    HW265365   8.900   5.153  11.721
87845SOL     OW65366  10.518   3.525  12.361
87845SOL    HW165367  10.485   3.594  12.419
87845SOL    HW265368  10.574   3.570  12.298
87846SOL     OW65369  10.651   5.989   2.012
87846SOL    HW165370  10.645   6.025   1.924
87846SOL    HW265371  10.574   6.023   2.057
87847SOL     OW65372   5.247   4.530  12.335
87847SOL    HW165373   5.209   4.487  12.259
87847SOL    HW265374   5.273   4.458  12.393
87848SOL     OW65375   2.453   8.014   6.518
87848SOL    HW165376   2.495   8.082   6.465
87848SOL    HW265377   2.501   8.014   6.601
87849SOL     OW65378   6.839   2.392   3.295
87849SOL    HW165379   6.847   2.378   3.201
87849SOL    HW265380   6.845   2.487   3.306
87850SOL     OW65381  13.114   2.500   9.834
87850SOL    HW165382  13.105   2.411   9.802
87850SOL    HW265383  13.066   2.554   9.771
87851SOL     OW65384  14.599   9.311   2.241
87851SOL    HW165385  14.680   9.353   2.268
87851SOL    HW265386  14.544   9.311   2.319
87852SOL     OW65387  10.831  14.107  11.626
87852SOL    HW165388  10.762  14.114  11.692
87852SOL    HW265389  10.867  14.196  11.619
87853SOL     OW65390  12.928   8.992  11.956
87853SOL    HW165391  12.847   8.947  11.931
87853SOL    HW265392  12.898   9.069  12.005
87854SOL     OW65393   1.784   3.628  12.848
87854SOL    HW165394   1.695   3.600  12.871
87854SOL    HW265395   1.816   3.561  12.788
87855SOL     OW65396   2.896  10.050   2.619
87855SOL    HW165397   2.922   9.978   2.562
87855SOL    HW265398   2.877  10.009   2.703
87856SOL     OW65399   7.766  13.111  14.779
87856SOL    HW165400   7.696  13.053  14.751
87856SOL    HW265401   7.809  13.137  14.697
87857SOL     OW65402   8.222  12.654  10.126
87857SOL    HW165403   8.230  12.663  10.031
87857SOL    HW265404   8.286  12.586  10.148
87858SOL     OW65405   6.484   0.361   2.283
87858SOL    HW165406   6.399   0.404   2.289
87858SOL    HW265407   6.464   0.268   2.271
87859SOL     OW65408   1.226   7.856   0.484
87859SOL    HW165409   1.264   7.885   0.401
87859SOL    HW265410   1.260   7.919   0.548
87860SOL     OW65411   9.889   9.767   9.928
87860SOL    HW165412   9.919   9.832   9.990
87860SOL    HW265413   9.826   9.814   9.872
87861SOL     OW65414   3.194   0.179  14.394
87861SOL    HW165415   3.138   0.156  14.468
87861SOL    HW265416   3.134   0.197  14.323
87862SOL     OW65417  11.555   4.550  11.790
87862SOL    HW165418  11.628   4.612  11.792
87862SOL    HW265419  11.506   4.567  11.871
87863SOL     OW65420   8.537   0.343  13.060
87863SOL    HW165421   8.573   0.398  13.129
87863SOL    HW265422   8.606   0.278  13.044
87864SOL     OW65423   1.724   8.543   3.134
87864SOL    HW165424   1.733   8.544   3.229
87864SOL    HW265425   1.807   8.507   3.102
87865SOL     OW65426   9.753   6.936  10.330
87865SOL    HW165427   9.739   6.975  10.244
87865SOL    HW265428   9.705   6.853  10.327
87866SOL     OW65429   6.133  10.222   2.806
87866SOL    HW165430   6.168  10.310   2.823
87866SOL    HW265431   6.042  10.226   2.837
87867SOL     OW65432  14.728   2.902   7.177
87867SOL    HW165433  14.694   2.992   7.177
87867SOL    HW265434  14.823   2.913   7.182
87868SOL     OW65435  11.621   2.760  13.535
87868SOL    HW165436  11.589   2.846  13.564
87868SOL    HW265437  11.711   2.756  13.565
87869SOL     OW65438   1.513  14.298   6.134
87869SOL    HW165439   1.575  14.246   6.186
87869SOL    HW265440   1.520  14.262   6.046
87870SOL     OW65441   1.947  11.372  10.036
87870SOL    HW165442   1.893  11.307   9.992
87870SOL    HW265443   2.037  11.352  10.009
87871SOL     OW65444   7.974   4.169   2.818
87871SOL    HW165445   7.911   4.149   2.749
87871SOL    HW265446   7.935   4.242   2.866
87872SOL     OW65447   8.583  14.823   8.095
87872SOL    HW165448   8.667  14.869   8.093
87872SOL    HW265449   8.522  14.881   8.049
87873SOL     OW65450  12.022   0.430   6.123
87873SOL    HW165451  11.941   0.387   6.151
87873SOL    HW265452  12.072   0.361   6.080
87874SOL     OW65453  10.119   5.808  14.195
87874SOL    HW165454  10.040   5.834  14.242
87874SOL    HW265455  10.098   5.819  14.102
87875SOL     OW65456  14.093   0.168   3.577
87875SOL    HW165457  14.176   0.204   3.609
87875SOL    HW265458  14.030   0.188   3.646
87876SOL     OW65459  11.479  14.076   2.988
87876SOL    HW165460  11.532  14.001   3.014
87876SOL    HW265461  11.396  14.038   2.959
87877SOL     OW65462   8.833   5.792   5.250
87877SOL    HW165463   8.795   5.767   5.334
87877SOL    HW265464   8.758   5.819   5.197
87878SOL     OW65465   1.401   3.635   5.117
87878SOL    HW165466   1.342   3.577   5.069
87878SOL    HW265467   1.343   3.699   5.159
87879SOL     OW65468   1.921   5.934   5.032
87879SOL    HW165469   1.837   5.978   5.021
87879SOL    HW265470   1.968   5.951   4.950
87880SOL     OW65471   6.848   1.883  12.772
87880SOL    HW165472   6.924   1.827  12.754
87880SOL    HW265473   6.875   1.935  12.848
87881SOL     OW65474  13.340   5.522  12.340
87881SOL    HW165475  13.291   5.451  12.300
87881SOL    HW265476  13.430   5.490  12.348
87882SOL     OW65477   3.775  13.833   8.129
87882SOL    HW165478   3.727  13.824   8.210
87882SOL    HW265479   3.848  13.892   8.151
87883SOL     OW65480   9.212  12.725   6.510
87883SOL    HW165481   9.217  12.681   6.595
87883SOL    HW265482   9.241  12.815   6.527
87884SOL     OW65483   7.418  11.817  13.857
87884SOL    HW165484   7.460  11.812  13.943
87884SOL    HW265485   7.328  11.842  13.876
87885SOL     OW65486   3.834   8.335   8.430
87885SOL    HW165487   3.880   8.402   8.379
87885SOL    HW265488   3.780   8.290   8.366
87886SOL     OW65489  13.754   7.064  14.259
87886SOL    HW165490  13.840   7.088  14.295
87886SOL    HW265491  13.766   7.069  14.164
87887SOL     OW65492  11.897   1.320  14.341
87887SOL    HW165493  11.850   1.368  14.273
87887SOL    HW265494  11.971   1.280  14.295
87888SOL     OW65495  11.740   9.186   7.246
87888SOL    HW165496  11.729   9.152   7.334
87888SOL    HW265497  11.714   9.114   7.188
87889SOL     OW65498   8.585   3.309   4.205
87889SOL    HW165499   8.563   3.233   4.151
87889SOL    HW265500   8.558   3.284   4.293
87890SOL     OW65501  11.114   0.043   4.829
87890SOL    HW165502  11.188  14.882   4.871
87890SOL    HW265503  11.058  14.854   4.798
87891SOL     OW65504   7.868   8.194  12.762
87891SOL    HW165505   7.949   8.157  12.798
87891SOL    HW265506   7.801   8.172  12.827
87892SOL     OW65507   9.157   4.292   0.245
87892SOL    HW165508   9.206   4.242   0.310
87892SOL    HW265509   9.077   4.318   0.289
87893SOL     OW65510   1.141   2.932  12.232
87893SOL    HW165511   1.101   2.846  12.221
87893SOL    HW265512   1.067   2.993  12.232
87894SOL     OW65513  14.553  12.001   2.952
87894SOL    HW165514  14.491  12.064   2.913
87894SOL    HW265515  14.539  11.921   2.902
87895SOL     OW65516  10.310   9.735   5.650
87895SOL    HW165517  10.235   9.679   5.669
87895SOL    HW265518  10.283   9.785   5.573
87896SOL     OW65519  13.433   1.418  11.813
87896SOL    HW165520  13.375   1.398  11.739
87896SOL    HW265521  13.415   1.348  11.877
87897SOL     OW65522   8.097   8.212  10.832
87897SOL    HW165523   8.140   8.201  10.917
87897SOL    HW265524   8.010   8.246  10.855
87898SOL     OW65525   1.045  11.911  10.327
87898SOL    HW165526   1.007  11.940  10.244
87898SOL    HW265527   1.041  11.988  10.384
87899SOL     OW65528   7.009   7.350   4.373
87899SOL    HW165529   7.046   7.401   4.444
87899SOL    HW265530   6.997   7.262   4.410
87900SOL     OW65531  12.522   9.639   9.563
87900SOL    HW165532  12.543   9.600   9.648
87900SOL    HW265533  12.604   9.680   9.535
87901SOL     OW65534   7.091   2.637   7.238
87901SOL    HW165535   7.067   2.622   7.330
87901SOL    HW265536   7.172   2.587   7.226
87902SOL     OW65537  12.044   8.150   4.500
87902SOL    HW165538  11.995   8.229   4.476
87902SOL    HW265539  12.044   8.150   4.596
87903SOL     OW65540   1.642   0.034   5.104
87903SOL    HW165541   1.574   0.101   5.109
87903SOL    HW265542   1.698   0.061   5.031
87904SOL     OW65543   8.170  14.282   3.758
87904SOL    HW165544   8.081  14.251   3.775
87904SOL    HW265545   8.224  14.203   3.761
87905SOL     OW65546   1.666  13.572  12.095
87905SOL    HW165547   1.599  13.504  12.083
87905SOL    HW265548   1.637  13.620  12.173
87906SOL     OW65549   9.198  13.406   7.244
87906SOL    HW165550   9.199  13.487   7.193
87906SOL    HW265551   9.132  13.351   7.202
87907SOL     OW65552   5.617   7.635   7.225
87907SOL    HW165553   5.533   7.618   7.266
87907SOL    HW265554   5.597   7.641   7.131
87908SOL     OW65555  10.305  10.838  11.679
87908SOL    HW165556  10.249  10.888  11.620
87908SOL    HW265557  10.349  10.904  11.733
87909SOL     OW65558   2.970   5.919   2.753
87909SOL    HW165559   3.003   5.850   2.695
87909SOL    HW265560   3.047   5.955   2.795
87910SOL     OW65561  13.741  11.999  10.846
87910SOL    HW165562  13.817  11.985  10.902
87910SOL    HW265563  13.705  11.911  10.833
87911SOL     OW65564   3.954   9.692  10.430
87911SOL    HW165565   4.007   9.691  10.350
87911SOL    HW265566   3.917   9.780  10.433
87912SOL     OW65567   6.675   1.132   1.840
87912SOL    HW165568   6.586   1.112   1.809
87912SOL    HW265569   6.671   1.119   1.934
87913SOL     OW65570   5.146   9.787  14.014
87913SOL    HW165571   5.156   9.752  13.925
87913SOL    HW265572   5.171   9.879  14.006
87914SOL     OW65573   2.815   0.362  10.515
87914SOL    HW165574   2.763   0.363  10.596
87914SOL    HW265575   2.761   0.314  10.452
87915SOL     OW65576  12.870  14.550  11.705
87915SOL    HW165577  12.858  14.472  11.651
87915SOL    HW265578  12.912  14.614  11.647
87916SOL     OW65579   3.431   2.793  10.233
87916SOL    HW165580   3.469   2.825  10.151
87916SOL    HW265581   3.467   2.850  10.300
87917SOL     OW65582   8.064  14.463  11.940
87917SOL    HW165583   8.097  14.515  11.867
87917SOL    HW265584   8.140  14.448  11.995
87918SOL     OW65585   0.540   6.613   1.631
87918SOL    HW165586   0.490   6.546   1.677
87918SOL    HW265587   0.628   6.608   1.669
87919SOL     OW65588   6.361  12.767   8.965
87919SOL    HW165589   6.283  12.819   8.983
87919SOL    HW265590   6.370  12.709   9.041
87920SOL     OW65591   7.966   2.405  10.658
87920SOL    HW165592   7.933   2.414  10.569
87920SOL    HW265593   7.888   2.412  10.713
87921SOL     OW65594   0.129   9.901   1.273
87921SOL    HW165595   0.111   9.988   1.238
87921SOL    HW265596   0.046   9.873   1.313
87922SOL     OW65597   1.394  13.198  12.984
87922SOL    HW165598   1.315  13.145  12.990
87922SOL    HW265599   1.426  13.206  13.074
87923SOL     OW65600   7.407  10.465   9.764
87923SOL    HW165601   7.362  10.542   9.798
87923SOL    HW265602   7.445  10.423   9.842
87924SOL     OW65603  13.916   8.095   9.809
87924SOL    HW165604  13.999   8.048   9.805
87924SOL    HW265605  13.940   8.185   9.831
87925SOL     OW65606  12.453   6.892   3.734
87925SOL    HW165607  12.541   6.886   3.698
87925SOL    HW265608  12.421   6.978   3.707
87926SOL     OW65609   8.113   2.594   7.298
87926SOL    HW165610   8.089   2.638   7.216
87926SOL    HW265611   8.095   2.659   7.366
87927SOL     OW65612  13.645  10.522  11.311
87927SOL    HW165613  13.584  10.522  11.385
87927SOL    HW265614  13.588  10.517  11.234
87928SOL     OW65615   2.435   5.798   3.713
87928SOL    HW165616   2.400   5.734   3.650
87928SOL    HW265617   2.496   5.851   3.662
87929SOL     OW65618   7.917   4.186   1.900
87929SOL    HW165619   7.849   4.177   1.966
87929SOL    HW265620   7.914   4.278   1.874
87930SOL     OW65621  12.152  13.560  12.573
87930SOL    HW165622  12.131  13.584  12.663
87930SOL    HW265623  12.148  13.641  12.524
87931SOL     OW65624   6.245   0.517   8.942
87931SOL    HW165625   6.277   0.512   9.032
87931SOL    HW265626   6.292   0.592   8.905
87932SOL     OW65627   7.758  14.126   9.388
87932SOL    HW165628   7.737  14.183   9.462
87932SOL    HW265629   7.822  14.175   9.337
87933SOL     OW65630   1.655   9.306   6.113
87933SOL    HW165631   1.645   9.350   6.198
87933SOL    HW265632   1.570   9.315   6.071
87934SOL     OW65633  12.392  10.713   5.031
87934SOL    HW165634  12.374  10.683   5.120
87934SOL    HW265635  12.478  10.754   5.037
87935SOL     OW65636   0.190   3.832   3.297
87935SOL    HW165637   0.195   3.793   3.385
87935SOL    HW265638   0.213   3.760   3.238
87936SOL     OW65639  11.836   2.995   4.351
87936SOL    HW165640  11.920   2.968   4.387
87936SOL    HW265641  11.856   3.070   4.295
87937SOL     OW65642  14.175   1.195   4.435
87937SOL    HW165643  14.151   1.137   4.507
87937SOL    HW265644  14.233   1.260   4.475
87938SOL     OW65645   8.457  11.333  12.227
87938SOL    HW165646   8.492  11.248  12.203
87938SOL    HW265647   8.363  11.317  12.239
87939SOL     OW65648  10.080   1.212  13.104
87939SOL    HW165649  10.090   1.117  13.114
87939SOL    HW265650  10.064   1.225  13.011
87940SOL     OW65651  13.129   0.237  11.508
87940SOL    HW165652  13.143   0.315  11.561
87940SOL    HW265653  13.052   0.195  11.546
87941SOL     OW65654   0.469   2.048   3.957
87941SOL    HW165655   0.408   1.975   3.969
87941SOL    HW265656   0.523   2.022   3.883
87942SOL     OW65657  11.905   4.829   4.000
87942SOL    HW165658  11.853   4.882   3.939
87942SOL    HW265659  11.874   4.739   3.985
87943SOL     OW65660   8.244  14.423   0.474
87943SOL    HW165661   8.194  14.341   0.471
87943SOL    HW265662   8.269  14.438   0.383
87944SOL     OW65663  11.014  10.674   4.823
87944SOL    HW165664  10.973  10.589   4.813
87944SOL    HW265665  10.942  10.737   4.817
87945SOL     OW65666  11.570  14.608   0.563
87945SOL    HW165667  11.660  14.636   0.550
87945SOL    HW265668  11.574  14.512   0.557
87946SOL     OW65669  12.665   9.627  14.074
87946SOL    HW165670  12.619   9.544  14.074
87946SOL    HW265671  12.693   9.639  13.983
87947SOL     OW65672  12.727   6.259   1.876
87947SOL    HW165673  12.781   6.274   1.954
87947SOL    HW265674  12.781   6.203   1.820
87948SOL     OW65675   5.150   9.234   8.825
87948SOL    HW165676   5.181   9.303   8.767
87948SOL    HW265677   5.172   9.264   8.913
87949SOL     OW65678   8.961   4.696   6.284
87949SOL    HW165679   8.975   4.615   6.332
87949SOL    HW265680   9.000   4.680   6.198
87950SOL     OW65681   2.157   7.643   1.332
87950SOL    HW165682   2.081   7.641   1.391
87950SOL    HW265683   2.199   7.727   1.349
87951SOL     OW65684  13.474   1.568   0.004
87951SOL    HW165685  13.538   1.636  14.867
87951SOL    HW265686  13.392   1.615   0.020
87952SOL     OW65687   8.313   9.869   3.692
87952SOL    HW165688   8.236   9.818   3.716
87952SOL    HW265689   8.328   9.927   3.766
87953SOL     OW65690  11.747   4.835  13.233
87953SOL    HW165691  11.758   4.876  13.319
87953SOL    HW265692  11.836   4.811  13.207
87954SOL     OW65693  11.738   5.946  10.115
87954SOL    HW165694  11.832   5.961  10.100
87954SOL    HW265695  11.721   5.986  10.201
87955SOL     OW65696   8.019   4.641  10.263
87955SOL    HW165697   8.033   4.730  10.231
87955SOL    HW265698   8.001   4.652  10.356
87956SOL     OW65699   1.191   0.479   6.278
87956SOL    HW165700   1.164   0.566   6.248
87956SOL    HW265701   1.161   0.474   6.368
87957SOL     OW65702   4.004   6.551   8.129
87957SOL    HW165703   4.093   6.562   8.094
87957SOL    HW265704   4.014   6.485   8.197
87958SOL     OW65705   2.501  14.115   6.290
87958SOL    HW165706   2.537  14.066   6.364
87958SOL    HW265707   2.494  14.205   6.322
87959SOL     OW65708   1.492   5.985   7.488
87959SOL    HW165709   1.424   5.962   7.551
87959SOL    HW265710   1.448   5.989   7.404
87960SOL     OW65711  11.627   6.656  14.337
87960SOL    HW165712  11.627   6.562  14.355
87960SOL    HW265713  11.716   6.675  14.307
87961SOL     OW65714   4.270   6.886  11.655
87961SOL    HW165715   4.331   6.852  11.721
87961SOL    HW265716   4.318   6.880  11.572
87962SOL     OW65717  11.685  13.827   1.079
87962SOL    HW165718  11.764  13.844   1.027
87962SOL    HW265719  11.716  13.779   1.156
87963SOL     OW65720   5.461  11.632  13.589
87963SOL    HW165721   5.424  11.720  13.589
87963SOL    HW265722   5.552  11.644  13.616
87964SOL     OW65723   3.725   6.857   0.632
87964SOL    HW165724   3.631   6.837   0.635
87964SOL    HW265725   3.767   6.783   0.675
87965SOL     OW65726   0.175   8.480   4.768
87965SOL    HW165727   0.152   8.571   4.785
87965SOL    HW265728   0.123   8.455   4.692
87966SOL     OW65729   6.649   3.667   6.493
87966SOL    HW165730   6.616   3.662   6.583
87966SOL    HW265731   6.581   3.716   6.445
87967SOL     OW65732  13.244   7.174   7.160
87967SOL    HW165733  13.188   7.251   7.159
87967SOL    HW265734  13.232   7.137   7.248
87968SOL     OW65735   1.141  14.533   8.935
87968SOL    HW165736   1.123  14.596   8.864
87968SOL    HW265737   1.113  14.449   8.900
87969SOL     OW65738  14.121  10.893   3.239
87969SOL    HW165739  14.068  10.824   3.280
87969SOL    HW265740  14.120  10.872   3.146
87970SOL     OW65741   0.944   0.135   4.411
87970SOL    HW165742   0.916   0.071   4.477
87970SOL    HW265743   0.864   0.156   4.363
87971SOL     OW65744   7.387   8.411   3.738
87971SOL    HW165745   7.399   8.354   3.814
87971SOL    HW265746   7.396   8.353   3.663
87972SOL     OW65747  11.361  10.929  14.742
87972SOL    HW165748  11.373  10.942  14.836
87972SOL    HW265749  11.422  10.858  14.720
87973SOL     OW65750   4.048   0.149   3.760
87973SOL    HW165751   4.140   0.148   3.788
87973SOL    HW265752   4.050   0.106   3.674
87974SOL     OW65753   4.717  13.339   5.854
87974SOL    HW165754   4.625  13.356   5.834
87974SOL    HW265755   4.729  13.373   5.942
87975SOL     OW65756  10.265  13.057  11.668
87975SOL    HW165757  10.204  13.011  11.725
87975SOL    HW265758  10.236  13.148  11.671
87976SOL     OW65759   1.802  13.772   2.612
87976SOL    HW165760   1.838  13.762   2.524
87976SOL    HW265761   1.850  13.846   2.649
87977SOL     OW65762  11.472  12.767   5.633
87977SOL    HW165763  11.548  12.809   5.674
87977SOL    HW265764  11.456  12.689   5.687
87978SOL     OW65765   1.069  10.917   7.236
87978SOL    HW165766   1.069  10.942   7.329
87978SOL    HW265767   1.041  10.825   7.236
87979SOL     OW65768  13.618   4.667  14.391
87979SOL    HW165769  13.564   4.621  14.455
87979SOL    HW265770  13.559   4.688  14.319
87980SOL     OW65771   5.211  14.340   7.940
87980SOL    HW165772   5.190  14.351   8.033
87980SOL    HW265773   5.128  14.357   7.895
87981SOL     OW65774  12.309   6.403   7.059
87981SOL    HW165775  12.299   6.366   6.971
87981SOL    HW265776  12.392   6.369   7.091
87982SOL     OW65777   5.699   8.481   1.898
87982SOL    HW165778   5.661   8.427   1.829
87982SOL    HW265779   5.640   8.556   1.906
87983SOL     OW65780   0.778  14.717  12.157
87983SOL    HW165781   0.687  14.724  12.129
87983SOL    HW265782   0.810  14.636  12.117
87984SOL     OW65783   7.469   0.089  11.543
87984SOL    HW165784   7.388   0.138  11.559
87984SOL    HW265785   7.465   0.067  11.450
87985SOL     OW65786  13.737   3.474   9.160
87985SOL    HW165787  13.825   3.458   9.195
87985SOL    HW265788  13.713   3.560   9.195
87986SOL     OW65789  12.727   5.132   2.581
87986SOL    HW165790  12.648   5.170   2.544
87986SOL    HW265791  12.797   5.160   2.521
87987SOL     OW65792   3.710   2.251   4.104
87987SOL    HW165793   3.671   2.192   4.168
87987SOL    HW265794   3.710   2.337   4.147
87988SOL     OW65795  10.848   7.187   7.304
87988SOL    HW165796  10.884   7.232   7.227
87988SOL    HW265797  10.792   7.119   7.268
87989SOL     OW65798   4.543  11.327   2.841
87989SOL    HW165799   4.598  11.378   2.781
87989SOL    HW265800   4.454  11.356   2.822
87990SOL     OW65801   5.627  12.575  12.054
87990SOL    HW165802   5.556  12.598  12.115
87990SOL    HW265803   5.681  12.514  12.103
87991SOL     OW65804  14.878   3.380   5.675
87991SOL    HW165805  14.836   3.300   5.644
87991SOL    HW265806   0.072   3.391   5.617
87992SOL     OW65807  10.581   8.028   0.296
87992SOL    HW165808  10.585   7.961   0.227
87992SOL    HW265809  10.673   8.050   0.312
87993SOL     OW65810   7.225   3.475   8.584
87993SOL    HW165811   7.238   3.559   8.627
87993SOL    HW265812   7.211   3.413   8.655
87994SOL     OW65813   2.774   1.624   4.932
87994SOL    HW165814   2.794   1.543   4.979
87994SOL    HW265815   2.860   1.663   4.913
87995SOL     OW65816   4.576  11.407   3.632
87995SOL    HW165817   4.530  11.454   3.701
87995SOL    HW265818   4.529  11.430   3.552
87996SOL     OW65819  11.856   2.939   9.354
87996SOL    HW165820  11.776   2.991   9.354
87996SOL    HW265821  11.857   2.897   9.268
87997SOL     OW65822  14.597   8.260  12.707
87997SOL    HW165823  14.561   8.173  12.723
87997SOL    HW265824  14.662   8.247  12.638
87998SOL     OW65825  13.533   4.973  14.513
87998SOL    HW165826  13.489   4.889  14.526
87998SOL    HW265827  13.624   4.956  14.537
87999SOL     OW65828   0.053  14.414   7.547
87999SOL    HW165829  14.847  14.449   7.537
87999SOL    HW265830   0.042  14.334   7.598
88000SOL     OW65831  13.512   2.169   9.883
88000SOL    HW165832  13.418   2.153   9.872
88000SOL    HW265833  13.516   2.253   9.929
88001SOL     OW65834   0.836  11.583  12.231
88001SOL    HW165835   0.830  11.589  12.136
88001SOL    HW265836   0.845  11.490  12.250
88002SOL     OW65837  10.403   8.207   9.204
88002SOL    HW165838  10.394   8.285   9.259
88002SOL    HW265839  10.448   8.239   9.125
88003SOL     OW65840  13.604   1.223   6.714
88003SOL    HW165841  13.580   1.163   6.644
88003SOL    HW265842  13.582   1.310   6.680
88004SOL     OW65843   6.930   5.571   6.994
88004SOL    HW165844   6.865   5.505   7.017
88004SOL    HW265845   6.891   5.619   6.921
88005SOL     OW65846   4.289   9.774   9.426
88005SOL    HW165847   4.362   9.822   9.389
88005SOL    HW265848   4.326   9.689   9.451
88006SOL     OW65849   8.191  14.781  13.521
88006SOL    HW165850   8.258  14.734  13.570
88006SOL    HW265851   8.240  14.841  13.465
88007SOL     OW65852   2.221   1.609   6.436
88007SOL    HW165853   2.306   1.638   6.469
88007SOL    HW265854   2.169   1.590   6.514
88008SOL     OW65855   9.818   4.047   7.930
88008SOL    HW165856   9.733   4.022   7.894
88008SOL    HW265857   9.832   4.136   7.898
88009SOL     OW65858   1.972  10.859   9.682
88009SOL    HW165859   1.971  10.912   9.603
88009SOL    HW265860   1.924  10.780   9.660
88010SOL     OW65861  12.001   9.760   8.029
88010SOL    HW165862  12.068   9.748   8.096
88010SOL    HW265863  11.993   9.855   8.020
88011SOL     OW65864   7.208  11.915   1.302
88011SOL    HW165865   7.229  11.852   1.233
88011SOL    HW265866   7.143  11.871   1.357
88012SOL     OW65867  10.470   9.952   3.853
88012SOL    HW165868  10.420   9.872   3.867
88012SOL    HW265869  10.532   9.954   3.926
88013SOL     OW65870  11.704   0.175  11.289
88013SOL    HW165871  11.684   0.267  11.271
88013SOL    HW265872  11.777   0.155  11.230
88014SOL     OW65873   9.549  10.694   6.361
88014SOL    HW165874   9.567  10.654   6.446
88014SOL    HW265875   9.570  10.625   6.298
88015SOL     OW65876   9.166   1.152   4.600
88015SOL    HW165877   9.087   1.165   4.652
88015SOL    HW265878   9.139   1.174   4.510
88016SOL     OW65879   4.389   7.124  10.523
88016SOL    HW165880   4.340   7.046  10.498
88016SOL    HW265881   4.355   7.148  10.609
88017SOL     OW65882   0.268  14.354   6.609
88017SOL    HW165883   0.194  14.372   6.552
88017SOL    HW265884   0.241  14.388   6.695
88018SOL     OW65885   7.054  12.357   4.463
88018SOL    HW165886   7.063  12.262   4.458
88018SOL    HW265887   6.970  12.371   4.508
88019SOL     OW65888   8.704  13.390  11.963
88019SOL    HW165889   8.706  13.474  11.917
88019SOL    HW265890   8.750  13.330  11.904
88020SOL     OW65891  11.668   2.204   8.068
88020SOL    HW165892  11.637   2.247   7.988
88020SOL    HW265893  11.763   2.201   8.058
88021SOL     OW65894  13.552   4.845   6.486
88021SOL    HW165895  13.626   4.906   6.488
88021SOL    HW265896  13.545   4.814   6.576
88022SOL     OW65897  12.744  12.685   0.204
88022SOL    HW165898  12.724  12.620   0.271
88022SOL    HW265899  12.840  12.690   0.203
88023SOL     OW65900  11.987  11.396   3.011
88023SOL    HW165901  11.989  11.437   2.924
88023SOL    HW265902  11.895  11.396   3.035
88024SOL     OW65903   2.374   2.027   8.093
88024SOL    HW165904   2.310   2.098   8.083
88024SOL    HW265905   2.323   1.954   8.129
88025SOL     OW65906  10.761   3.683   4.801
88025SOL    HW165907  10.815   3.616   4.842
88025SOL    HW265908  10.822   3.734   4.747
88026SOL     OW65909   1.527  13.389  14.289
88026SOL    HW165910   1.535  13.447  14.213
88026SOL    HW265911   1.442  13.346  14.278
88027SOL     OW65912   2.789   2.384   8.544
88027SOL    HW165913   2.864   2.424   8.588
88027SOL    HW265914   2.719   2.450   8.551
88028SOL     OW65915   2.254  10.993   0.588
88028SOL    HW165916   2.237  10.915   0.534
88028SOL    HW265917   2.348  11.008   0.579
88029SOL     OW65918  12.716  14.636   6.416
88029SOL    HW165919  12.803  14.617   6.380
88029SOL    HW265920  12.731  14.702   6.484
88030SOL     OW65921  13.386   9.560   9.618
88030SOL    HW165922  13.302   9.515   9.633
88030SOL    HW265923  13.447   9.519   9.679
88031SOL     OW65924   7.606  10.493   5.294
88031SOL    HW165925   7.580  10.530   5.210
88031SOL    HW265926   7.557  10.411   5.300
88032SOL     OW65927   5.031   6.210   8.579
88032SOL    HW165928   4.991   6.291   8.547
88032SOL    HW265929   4.958   6.151   8.592
88033SOL     OW65930  14.237   5.496  14.135
88033SOL    HW165931  14.221   5.479  14.227
88033SOL    HW265932  14.183   5.573  14.115
88034SOL     OW65933  12.053   0.566   7.547
88034SOL    HW165934  11.969   0.588   7.507
88034SOL    HW265935  12.092   0.502   7.488
88035SOL     OW65936  13.911   6.934   0.437
88035SOL    HW165937  13.975   6.894   0.495
88035SOL    HW265938  13.947   7.021   0.419
88036SOL     OW65939   1.862  10.253  11.875
88036SOL    HW165940   1.819  10.320  11.822
88036SOL    HW265941   1.794  10.187  11.889
88037SOL     OW65942   4.952   5.833   2.774
88037SOL    HW165943   4.882   5.883   2.817
88037SOL    HW265944   5.026   5.840   2.834
88038SOL     OW65945   2.800  10.554  12.979
88038SOL    HW165946   2.799  10.599  12.895
88038SOL    HW265947   2.810  10.461  12.957
88039SOL     OW65948  10.458   6.479  12.736
88039SOL    HW165949  10.452   6.485  12.831
88039SOL    HW265950  10.505   6.398  12.720
88040SOL     OW65951  14.477  14.258   9.113
88040SOL    HW165952  14.408  14.193   9.100
88040SOL    HW265953  14.551  14.224   9.063
88041SOL     OW65954  12.896   0.759   6.493
88041SOL    HW165955  12.900   0.668   6.522
88041SOL    HW265956  12.803   0.782   6.496
88042SOL     OW65957   0.498   6.017  14.362
88042SOL    HW165958   0.452   5.938  14.333
88042SOL    HW265959   0.439   6.089  14.340
88043SOL     OW65960   6.052   8.186   7.577
88043SOL    HW165961   6.021   8.224   7.495
88043SOL    HW265962   6.147   8.182   7.568
88044SOL     OW65963  12.983   9.836   2.380
88044SOL    HW165964  12.943   9.909   2.426
88044SOL    HW265965  12.976   9.859   2.287
88045SOL     OW65966  13.234   9.682   8.768
88045SOL    HW165967  13.173   9.648   8.833
88045SOL    HW265968  13.318   9.687   8.814
88046SOL     OW65969   4.522   9.562  12.707
88046SOL    HW165970   4.547   9.633  12.766
88046SOL    HW265971   4.537   9.597  12.619
88047SOL     OW65972  13.369   9.384   0.153
88047SOL    HW165973  13.377   9.440   0.076
88047SOL    HW265974  13.456   9.347   0.165
88048SOL     OW65975   0.533  14.153  10.075
88048SOL    HW165976   0.445  14.152  10.113
88048SOL    HW265977   0.548  14.063  10.046
88049SOL     OW65978  12.357   0.700  12.473
88049SOL    HW165979  12.385   0.613  12.503
88049SOL    HW265980  12.308   0.682  12.392
88050SOL     OW65981   2.476   7.398   5.021
88050SOL    HW165982   2.507   7.464   4.959
88050SOL    HW265983   2.548   7.386   5.083
88051SOL     OW65984   5.030   1.195   9.203
88051SOL    HW165985   5.121   1.192   9.233
88051SOL    HW265986   5.022   1.120   9.144
88052SOL     OW65987   2.174  10.422  11.507
88052SOL    HW165988   2.117  10.493  11.477
88052SOL    HW265989   2.256  10.465  11.530
88053SOL     OW65990   8.066   5.752   3.030
88053SOL    HW165991   8.152   5.745   2.990
88053SOL    HW265992   8.047   5.663   3.062
88054SOL     OW65993   1.427  10.571   2.968
88054SOL    HW165994   1.396  10.662   2.959
88054SOL    HW265995   1.349  10.518   2.950
88055SOL     OW65996  13.146   9.740  12.000
88055SOL    HW165997  13.228   9.787  12.018
88055SOL    HW265998  13.083   9.778  12.061
88056SOL     OW65999  14.206   9.913  10.608
88056SOL    HW166000  14.284   9.923  10.553
88056SOL    HW266001  14.185  10.003  10.635
88057SOL     OW66002   3.512   0.440   0.230
88057SOL    HW166003   3.592   0.393   0.256
88057SOL    HW266004   3.521   0.526   0.270
88058SOL     OW66005   1.713  12.309  12.325
88058SOL    HW166006   1.728  12.261  12.406
88058SOL    HW266007   1.621  12.337  12.330
88059SOL     OW66008   3.975   8.708   5.804
88059SOL    HW166009   3.892   8.712   5.850
88059SOL    HW266010   3.993   8.615   5.794
88060SOL     OW66011   8.176   2.249  10.245
88060SOL    HW166012   8.161   2.229  10.153
88060SOL    HW266013   8.200   2.165  10.284
88061SOL     OW66014   9.854   8.139   5.977
88061SOL    HW166015   9.944   8.124   5.946
88061SOL    HW266016   9.799   8.108   5.905
88062SOL     OW66017  10.750   8.149   8.271
88062SOL    HW166018  10.667   8.187   8.242
88062SOL    HW266019  10.777   8.203   8.345
88063SOL     OW66020   4.003   0.621  14.256
88063SOL    HW166021   4.089   0.658  14.234
88063SOL    HW266022   3.996   0.542  14.202
88064SOL     OW66023  12.468   5.383   4.550
88064SOL    HW166024  12.519   5.328   4.609
88064SOL    HW266025  12.447   5.461   4.601
88065SOL     OW66026   2.154   5.056  13.307
88065SOL    HW166027   2.083   5.119  13.319
88065SOL    HW266028   2.200   5.085  13.229
88066SOL     OW66029   4.452   1.422  11.134
88066SOL    HW166030   4.380   1.479  11.108
88066SOL    HW266031   4.482   1.382  11.052
88067SOL     OW66032  10.519  13.045   0.783
88067SOL    HW166033  10.591  12.987   0.761
88067SOL    HW266034  10.441  13.001   0.748
88068SOL     OW66035   9.435   4.058  14.456
88068SOL    HW166036   9.369   4.029  14.519
88068SOL    HW266037   9.384   4.084  14.379
88069SOL     OW66038  12.148   7.214   2.823
88069SOL    HW166039  12.167   7.180   2.910
88069SOL    HW266040  12.087   7.151   2.784
88070SOL     OW66041   1.580  10.313   2.359
88070SOL    HW166042   1.522  10.241   2.335
88070SOL    HW266043   1.521  10.380   2.394
88071SOL     OW66044  12.601   1.264   9.935
88071SOL    HW166045  12.641   1.193   9.884
88071SOL    HW266046  12.583   1.226  10.020
88072SOL     OW66047   1.782   0.464   0.984
88072SOL    HW166048   1.777   0.386   0.928
88072SOL    HW266049   1.846   0.440   1.051
88073SOL     OW66050   2.849  12.700   0.741
88073SOL    HW166051   2.806  12.785   0.756
88073SOL    HW266052   2.784  12.649   0.694
88074SOL     OW66053   9.360  10.585  11.989
88074SOL    HW166054   9.424  10.644  11.950
88074SOL    HW266055   9.395  10.497  11.973
88075SOL     OW66056   1.231   3.398  13.139
88075SOL    HW166057   1.161   3.449  13.099
88075SOL    HW266058   1.289   3.463  13.178
88076SOL     OW66059   8.232  12.534   4.874
88076SOL    HW166060   8.304  12.577   4.922
88076SOL    HW266061   8.176  12.499   4.943
88077SOL     OW66062  14.394   4.717   0.940
88077SOL    HW166063  14.301   4.742   0.937
88077SOL    HW266064  14.395   4.632   0.984
88078SOL     OW66065   0.308  13.418  14.774
88078SOL    HW166066   0.229  13.465  14.800
88078SOL    HW266067   0.283  13.369  14.696
88079SOL     OW66068   1.842   0.650   1.518
88079SOL    HW166069   1.864   0.563   1.552
88079SOL    HW266070   1.914   0.671   1.458
88080SOL     OW66071  14.065  12.875   8.611
88080SOL    HW166072  14.102  12.787   8.621
88080SOL    HW266073  14.098  12.925   8.685
88081SOL     OW66074  11.441   2.181  13.734
88081SOL    HW166075  11.439   2.197  13.640
88081SOL    HW266076  11.513   2.236  13.766
88082SOL     OW66077   6.715   3.480   1.915
88082SOL    HW166078   6.722   3.487   1.820
88082SOL    HW266079   6.781   3.541   1.949
88083SOL     OW66080  10.702  13.806   7.558
88083SOL    HW166081  10.747  13.883   7.523
88083SOL    HW266082  10.768  13.737   7.560
88084SOL     OW66083  12.966   4.290   3.873
88084SOL    HW166084  12.947   4.364   3.815
88084SOL    HW266085  13.061   4.291   3.884
88085SOL     OW66086   8.586  10.323   5.997
88085SOL    HW166087   8.659  10.330   5.936
88085SOL    HW266088   8.575  10.411   6.032
88086SOL     OW66089   4.583  11.428  12.498
88086SOL    HW166090   4.563  11.412  12.591
88086SOL    HW266091   4.596  11.340  12.462
88087SOL     OW66092   4.256   8.368   8.783
88087SOL    HW166093   4.199   8.378   8.707
88087SOL    HW266094   4.198   8.334   8.852
88088SOL     OW66095  13.296  13.069   3.404
88088SOL    HW166096  13.340  13.115   3.332
88088SOL    HW266097  13.228  13.016   3.362
88089SOL     OW66098  13.528   5.032   8.500
88089SOL    HW166099  13.502   4.950   8.460
88089SOL    HW266100  13.446   5.080   8.513
88090SOL     OW66101  12.068   9.768  12.685
88090SOL    HW166102  12.027   9.693  12.729
88090SOL    HW266103  12.093   9.735  12.599
88091SOL     OW66104  14.120   6.470  12.778
88091SOL    HW166105  14.031   6.450  12.807
88091SOL    HW266106  14.134   6.560  12.807
88092SOL     OW66107   4.044   4.024   6.300
88092SOL    HW166108   3.990   3.952   6.334
88092SOL    HW266109   4.133   3.989   6.300
88093SOL     OW66110   3.555   8.806   4.581
88093SOL    HW166111   3.633   8.814   4.527
88093SOL    HW266112   3.581   8.750   4.654
88094SOL     OW66113   9.975   6.063  10.627
88094SOL    HW166114  10.006   5.977  10.597
88094SOL    HW266115  10.036   6.087  10.697
88095SOL     OW66116  10.671   7.095   3.908
88095SOL    HW166117  10.680   7.069   3.817
88095SOL    HW266118  10.694   7.017   3.959
88096SOL     OW66119  14.539   6.221   3.525
88096SOL    HW166120  14.528   6.127   3.539
88096SOL    HW266121  14.604   6.228   3.455
88097SOL     OW66122  12.198   2.877  12.361
88097SOL    HW166123  12.150   2.900  12.440
88097SOL    HW266124  12.132   2.840  12.302
88098SOL     OW66125   4.015   9.851  11.049
88098SOL    HW166126   4.020   9.761  11.017
88098SOL    HW266127   3.947   9.848  11.116
88099SOL     OW66128   8.537  13.193   1.084
88099SOL    HW166129   8.533  13.106   1.124
88099SOL    HW266130   8.550  13.253   1.157
88100SOL     OW66131  14.837  10.437  13.056
88100SOL    HW166132  14.860  10.530  13.054
88100SOL    HW266133   0.010  10.401  13.125
88101SOL     OW66134   7.713   7.244   4.482
88101SOL    HW166135   7.659   7.167   4.499
88101SOL    HW266136   7.655   7.318   4.497
88102SOL     OW66137   8.074  10.250   7.831
88102SOL    HW166138   8.169  10.242   7.821
88102SOL    HW266139   8.053  10.336   7.795
88103SOL     OW66140   5.066   7.435  11.773
88103SOL    HW166141   5.142   7.485  11.744
88103SOL    HW266142   5.102   7.364  11.826
88104SOL     OW66143  10.778   8.499  12.714
88104SOL    HW166144  10.870   8.485  12.690
88104SOL    HW266145  10.771   8.465  12.804
88105SOL     OW66146  13.883  11.925   3.193
88105SOL    HW166147  13.856  11.923   3.285
88105SOL    HW266148  13.932  11.844   3.180
88106SOL     OW66149   4.553   2.774   7.247
88106SOL    HW166150   4.488   2.743   7.183
88106SOL    HW266151   4.635   2.736   7.218
88107SOL     OW66152   5.422   5.337   7.136
88107SOL    HW166153   5.409   5.291   7.219
88107SOL    HW266154   5.425   5.267   7.071
88108SOL     OW66155  10.334   9.706   3.919
88108SOL    HW166156  10.251   9.713   3.965
88108SOL    HW266157  10.333   9.620   3.878
88109SOL     OW66158   2.791   8.298   0.550
88109SOL    HW166159   2.845   8.369   0.515
88109SOL    HW266160   2.776   8.240   0.475
88110SOL     OW66161   0.184   0.129  13.131
88110SOL    HW166162   0.254   0.188  13.101
88110SOL    HW266163   0.151   0.169  13.211
88111SOL     OW66164  10.422  10.675  12.645
88111SOL    HW166165  10.429  10.603  12.708
88111SOL    HW266166  10.408  10.753  12.699
88112SOL     OW66167   1.232   9.511   8.863
88112SOL    HW166168   1.233   9.506   8.768
88112SOL    HW266169   1.240   9.604   8.883
88113SOL     OW66170   0.578   2.813   2.104
88113SOL    HW166171   0.571   2.738   2.044
88113SOL    HW266172   0.530   2.786   2.182
88114SOL     OW66173   0.353   6.751  13.419
88114SOL    HW166174   0.313   6.734  13.334
88114SOL    HW266175   0.292   6.811  13.463
88115SOL     OW66176   0.080   1.095  13.726
88115SOL    HW166177   0.108   1.127  13.811
88115SOL    HW266178   0.047   1.007  13.743
88116SOL     OW66179  11.204   1.124  13.272
88116SOL    HW166180  11.165   1.057  13.217
88116SOL    HW266181  11.219   1.198  13.213
88117SOL     OW66182   4.303   8.508   5.238
88117SOL    HW166183   4.373   8.525   5.175
88117SOL    HW266184   4.264   8.593   5.255
88118SOL     OW66185  14.833  14.010  13.306
88118SOL    HW166186  14.844  13.945  13.236
88118SOL    HW266187  14.879  14.087  13.274
88119SOL     OW66188   5.797   7.871   2.327
88119SOL    HW166189   5.845   7.804   2.376
88119SOL    HW266190   5.769   7.828   2.247
88120SOL     OW66191   1.812   6.299   9.743
88120SOL    HW166192   1.856   6.244   9.677
88120SOL    HW266193   1.810   6.386   9.704
88121SOL     OW66194   8.395   4.064   4.695
88121SOL    HW166195   8.396   4.051   4.789
88121SOL    HW266196   8.478   4.028   4.664
88122SOL     OW66197   7.456  12.142   8.079
88122SOL    HW166198   7.380  12.088   8.056
88122SOL    HW266199   7.523  12.079   8.106
88123SOL     OW66200   8.724   2.809   7.262
88123SOL    HW166201   8.629   2.805   7.255
88123SOL    HW266202   8.751   2.872   7.195
88124SOL     OW66203   4.937  12.887   8.013
88124SOL    HW166204   4.884  12.842   7.947
88124SOL    HW266205   4.947  12.976   7.978
88125SOL     OW66206   3.883   4.055   2.626
88125SOL    HW166207   3.886   4.111   2.703
88125SOL    HW266208   3.895   4.114   2.552
88126SOL     OW66209   6.337   5.693   7.188
88126SOL    HW166210   6.286   5.760   7.142
88126SOL    HW266211   6.402   5.665   7.124
88127SOL     OW66212  14.845   3.333   2.514
88127SOL    HW166213   0.014   3.383   2.578
88127SOL    HW266214  14.822   3.397   2.446
88128SOL     OW66215   2.978   0.633   1.182
88128SOL    HW166216   2.936   0.677   1.108
88128SOL    HW266217   2.914   0.641   1.253
88129SOL     OW66218   5.595  14.354   9.918
88129SOL    HW166219   5.531  14.298   9.874
88129SOL    HW266220   5.551  14.439   9.925
88130SOL     OW66221   1.304   8.997   6.755
88130SOL    HW166222   1.346   9.035   6.677
88130SOL    HW266223   1.260   9.071   6.796
88131SOL     OW66224   0.442  10.717   7.453
88131SOL    HW166225   0.497  10.644   7.424
88131SOL    HW266226   0.364  10.711   7.398
88132SOL     OW66227  13.223   0.230   8.557
88132SOL    HW166228  13.257   0.318   8.541
88132SOL    HW266229  13.158   0.241   8.626
88133SOL     OW66230   0.762   8.661   8.558
88133SOL    HW166231   0.830   8.716   8.519
88133SOL    HW266232   0.691   8.721   8.579
88134SOL     OW66233  10.210   8.972   4.673
88134SOL    HW166234  10.223   9.009   4.761
88134SOL    HW266235  10.116   8.953   4.669
88135SOL     OW66236   0.385   1.698  10.347
88135SOL    HW166237   0.303   1.742  10.325
88135SOL    HW266238   0.388   1.622  10.289
88136SOL     OW66239   7.707  14.767  14.638
88136SOL    HW166240   7.706  14.696  14.574
88136SOL    HW266241   7.686  14.846  14.587
88137SOL     OW66242  10.146  10.089  11.224
88137SOL    HW166243  10.147  10.002  11.263
88137SOL    HW266244  10.226  10.093  11.172
88138SOL     OW66245   8.183   3.287  13.057
88138SOL    HW166246   8.235   3.311  13.135
88138SOL    HW266247   8.106   3.343  13.063
88139SOL     OW66248  12.379  13.704   4.566
88139SOL    HW166249  12.358  13.677   4.656
88139SOL    HW266250  12.474  13.705   4.563
88140SOL     OW66251   6.955   7.890   2.760
88140SOL    HW166252   6.922   7.941   2.686
88140SOL    HW266253   6.916   7.932   2.837
88141SOL     OW66254  12.973  13.947  11.946
88141SOL    HW166255  13.033  13.873  11.949
88141SOL    HW266256  12.987  13.987  11.860
88142SOL     OW66257   5.656  14.560  11.180
88142SOL    HW166258   5.668  14.466  11.162
88142SOL    HW266259   5.603  14.562  11.260
88143SOL     OW66260   4.468  10.453  10.217
88143SOL    HW166261   4.506  10.451  10.305
88143SOL    HW266262   4.390  10.398  10.223
88144SOL     OW66263  13.437   5.108  14.758
88144SOL    HW166264  13.467   5.088  14.669
88144SOL    HW266265  13.484   5.046  14.813
88145SOL     OW66266   7.213   5.070  14.489
88145SOL    HW166267   7.169   5.128  14.552
88145SOL    HW266268   7.234   5.127  14.415
88146SOL     OW66269   6.674   5.756  13.548
88146SOL    HW166270   6.656   5.671  13.509
88146SOL    HW266271   6.751   5.742  13.602
88147SOL     OW66272  12.988   7.946   9.604
88147SOL    HW166273  12.916   7.909   9.553
88147SOL    HW266274  12.981   7.904   9.690
88148SOL     OW66275  11.989   5.971  12.875
88148SOL    HW166276  12.018   6.023  12.950
88148SOL    HW266277  12.045   6.000  12.803
88149SOL     OW66278   0.866   9.637   3.400
88149SOL    HW166279   0.927   9.617   3.471
88149SOL    HW266280   0.867   9.733   3.393
88150SOL     OW66281  10.407   7.412  13.585
88150SOL    HW166282  10.478   7.365  13.542
88150SOL    HW266283  10.347   7.436  13.515
88151SOL     OW66284   6.627  11.589   4.567
88151SOL    HW166285   6.668  11.569   4.652
88151SOL    HW266286   6.548  11.536   4.566
88152SOL     OW66287   1.590   3.751   9.118
88152SOL    HW166288   1.654   3.737   9.049
88152SOL    HW266289   1.587   3.668   9.165
88153SOL     OW66290  10.467  11.197   5.438
88153SOL    HW166291  10.436  11.202   5.347
88153SOL    HW266292  10.464  11.287   5.469
88154SOL     OW66293   4.289   0.318   8.938
88154SOL    HW166294   4.318   0.263   8.865
88154SOL    HW266295   4.254   0.397   8.895
88155SOL     OW66296   2.822  11.388   1.274
88155SOL    HW166297   2.738  11.345   1.259
88155SOL    HW266298   2.802  11.458   1.337
88156SOL     OW66299   6.775   4.186   6.128
88156SOL    HW166300   6.830   4.264   6.126
88156SOL    HW266301   6.833   4.115   6.098
88157SOL     OW66302  13.376   1.487  12.408
88157SOL    HW166303  13.322   1.559  12.441
88157SOL    HW266304  13.435   1.529  12.346
88158SOL     OW66305   6.241   9.107  14.750
88158SOL    HW166306   6.231   9.076  14.660
88158SOL    HW266307   6.238   9.202  14.744
88159SOL     OW66308   8.385  14.264   7.876
88159SOL    HW166309   8.451  14.314   7.827
88159SOL    HW266310   8.348  14.204   7.811
88160SOL     OW66311  12.117   7.159   3.711
88160SOL    HW166312  12.059   7.162   3.787
88160SOL    HW266313  12.059   7.145   3.637
88161SOL     OW66314   4.042  11.080  13.584
88161SOL    HW166315   3.998  11.120  13.509
88161SOL    HW266316   4.135  11.081  13.561
88162SOL     OW66317   9.997  10.144  13.553
88162SOL    HW166318   9.972  10.132  13.462
88162SOL    HW266319  10.048  10.066  13.575
88163SOL     OW66320  14.792   0.538   7.189
88163SOL    HW166321  14.847   0.466   7.220
88163SOL    HW266322  14.818   0.613   7.242
88164SOL     OW66323   8.643   8.095   0.588
88164SOL    HW166324   8.619   8.004   0.606
88164SOL    HW266325   8.561   8.144   0.601
88165SOL     OW66326   2.750  13.264   0.394
88165SOL    HW166327   2.722  13.354   0.408
88165SOL    HW266328   2.698  13.213   0.457
88166SOL     OW66329   1.495   5.950   9.940
88166SOL    HW166330   1.541   6.008  10.002
88166SOL    HW266331   1.565   5.901   9.897
88167SOL     OW66332  12.459  14.273  12.499
88167SOL    HW166333  12.400  14.283  12.424
88167SOL    HW266334  12.538  14.234  12.462
88168SOL     OW66335   0.001   8.069  14.460
88168SOL    HW166336   0.053   8.050  14.381
88168SOL    HW266337  14.823   8.139  14.433
88169SOL     OW66338   1.933  12.770  13.620
88169SOL    HW166339   1.842  12.796  13.637
88169SOL    HW266340   1.929  12.725  13.535
88170SOL     OW66341  11.093   2.174  13.580
88170SOL    HW166342  11.030   2.168  13.652
88170SOL    HW266343  11.140   2.256  13.596
88171SOL     OW66344   4.283   3.940  11.818
88171SOL    HW166345   4.270   3.933  11.723
88171SOL    HW266346   4.376   3.957  11.828
88172SOL     OW66347   1.073   0.837   6.956
88172SOL    HW166348   0.983   0.810   6.938
88172SOL    HW266349   1.092   0.804   7.043
88173SOL     OW66350  13.524   5.134   5.207
88173SOL    HW166351  13.506   5.156   5.115
88173SOL    HW266352  13.446   5.086   5.235
88174SOL     OW66353   3.602   1.903   7.306
88174SOL    HW166354   3.583   1.817   7.344
88174SOL    HW266355   3.521   1.927   7.261
88175SOL     OW66356   4.458  14.679   1.423
88175SOL    HW166357   4.536  14.627   1.442
88175SOL    HW266358   4.392  14.645   1.483
88176SOL     OW66359   0.106   0.525  13.139
88176SOL    HW166360   0.044   0.460  13.171
88176SOL    HW266361   0.110   0.511  13.045
88177SOL     OW66362   7.179   8.339  12.263
88177SOL    HW166363   7.203   8.333  12.170
88177SOL    HW266364   7.179   8.433  12.281
88178SOL     OW66365   7.655   0.663   2.101
88178SOL    HW166366   7.653   0.589   2.040
88178SOL    HW266367   7.581   0.646   2.160
88179SOL     OW66368  13.027   8.607   6.256
88179SOL    HW166369  12.935   8.619   6.235
88179SOL    HW266370  13.066   8.694   6.247
88180SOL     OW66371  14.279  10.710  11.666
88180SOL    HW166372  14.210  10.699  11.731
88180SOL    HW266373  14.350  10.754  11.712
88181SOL     OW66374   1.713   4.719   1.953
88181SOL    HW166375   1.635   4.714   2.008
88181SOL    HW266376   1.692   4.667   1.875
88182SOL     OW66377  11.450   2.070   0.372
88182SOL    HW166378  11.387   2.135   0.405
88182SOL    HW266379  11.454   2.086   0.278
88183SOL     OW66380   9.968   1.889   2.461
88183SOL    HW166381   9.935   1.800   2.459
88183SOL    HW266382   9.897   1.943   2.428
88184SOL     OW66383   5.561   3.800   7.176
88184SOL    HW166384   5.612   3.859   7.120
88184SOL    HW266385   5.534   3.853   7.250
88185SOL     OW66386  10.239  10.011  12.764
88185SOL    HW166387  10.330  10.032  12.744
88185SOL    HW266388  10.188  10.075  12.716
88186SOL     OW66389   1.790  10.202   5.193
88186SOL    HW166390   1.800  10.236   5.104
88186SOL    HW266391   1.775  10.279   5.247
88187SOL     OW66392   8.696   5.265   8.586
88187SOL    HW166393   8.674   5.281   8.494
88187SOL    HW266394   8.620   5.217   8.621
88188SOL     OW66395   4.626   1.662  11.549
88188SOL    HW166396   4.645   1.721  11.621
88188SOL    HW266397   4.538   1.687  11.520
88189SOL     OW66398   2.094   8.565   7.381
88189SOL    HW166399   2.170   8.542   7.328
88189SOL    HW266400   2.131   8.611   7.457
88190SOL     OW66401   6.877   7.859  10.523
88190SOL    HW166402   6.928   7.914  10.582
88190SOL    HW266403   6.825   7.921  10.471
88191SOL     OW66404  13.014   8.992  10.313
88191SOL    HW166405  12.929   8.951  10.295
88191SOL    HW266406  13.005   9.082  10.281
88192SOL     OW66407   6.890   0.526   0.696
88192SOL    HW166408   6.908   0.457   0.761
88192SOL    HW266409   6.803   0.559   0.720
88193SOL     OW66410   6.726   1.720   3.947
88193SOL    HW166411   6.818   1.744   3.948
88193SOL    HW266412   6.680   1.803   3.933
88194SOL     OW66413  10.364   2.015  14.426
88194SOL    HW166414  10.381   2.107  14.446
88194SOL    HW266415  10.315   2.017  14.343
88195SOL     OW66416   0.484   1.261   9.309
88195SOL    HW166417   0.426   1.337   9.309
88195SOL    HW266418   0.572   1.299   9.316
88196SOL     OW66419  12.361   4.864  12.945
88196SOL    HW166420  12.309   4.860  12.865
88196SOL    HW266421  12.343   4.951  12.982
88197SOL     OW66422  11.247  12.792   0.881
88197SOL    HW166423  11.168  12.833   0.846
88197SOL    HW266424  11.252  12.823   0.972
88198SOL     OW66425   9.150   3.938   5.300
88198SOL    HW166426   9.227   3.990   5.321
88198SOL    HW266427   9.106   3.987   5.230
88199SOL     OW66428  10.632   8.285   5.217
88199SOL    HW166429  10.663   8.330   5.138
88199SOL    HW266430  10.605   8.355   5.276
88200SOL     OW66431   7.322  13.146  12.755
88200SOL    HW166432   7.267  13.124  12.830
88200SOL    HW266433   7.277  13.219  12.713
88201SOL     OW66434   1.750   1.964   7.017
88201SOL    HW166435   1.668   2.012   7.004
88201SOL    HW266436   1.787   2.002   7.097
88202SOL     OW66437  14.795   9.300   4.985
88202SOL    HW166438  14.846   9.350   4.922
88202SOL    HW266439  14.793   9.211   4.949
88203SOL     OW66440   3.856   5.376   1.534
88203SOL    HW166441   3.809   5.458   1.519
88203SOL    HW266442   3.930   5.400   1.591
88204SOL     OW66443  14.510   0.198  13.803
88204SOL    HW166444  14.576   0.147  13.756
88204SOL    HW266445  14.536   0.289  13.790
88205SOL     OW66446   5.978  14.817  10.539
88205SOL    HW166447   5.925  14.742  10.566
88205SOL    HW266448   6.059  14.779  10.507
88206SOL     OW66449  11.242  11.331   6.056
88206SOL    HW166450  11.241  11.363   6.146
88206SOL    HW266451  11.229  11.236   6.064
88207SOL     OW66452   1.451   9.176   7.591
88207SOL    HW166453   1.423   9.199   7.503
88207SOL    HW266454   1.387   9.111   7.620
88208SOL     OW66455   3.496   5.970  14.076
88208SOL    HW166456   3.591   5.970  14.087
88208SOL    HW266457   3.461   5.952  14.164
88209SOL     OW66458   8.570   2.216  11.906
88209SOL    HW166459   8.641   2.159  11.877
88209SOL    HW266460   8.589   2.301  11.865
88210SOL     OW66461  14.018  11.128   7.881
88210SOL    HW166462  14.024  11.193   7.811
88210SOL    HW266463  14.090  11.067   7.863
88211SOL     OW66464  11.083   8.188  12.146
88211SOL    HW166465  11.167   8.144  12.145
88211SOL    HW266466  11.093   8.260  12.083
88212SOL     OW66467   9.188   5.966   9.684
88212SOL    HW166468   9.157   5.917   9.607
88212SOL    HW266469   9.283   5.972   9.670
88213SOL     OW66470  14.599   5.024   9.230
88213SOL    HW166471  14.614   4.950   9.289
88213SOL    HW266472  14.504   5.029   9.222
88214SOL     OW66473  13.291   6.762   3.385
88214SOL    HW166474  13.264   6.753   3.294
88214SOL    HW266475  13.358   6.830   3.384
88215SOL     OW66476  14.071   4.327  11.821
88215SOL    HW166477  14.155   4.347  11.780
88215SOL    HW266478  14.086   4.342  11.914
88216SOL     OW66479  11.368  12.194   4.500
88216SOL    HW166480  11.344  12.108   4.534
88216SOL    HW266481  11.289  12.247   4.512
88217SOL     OW66482   0.486  10.201  10.561
88217SOL    HW166483   0.552  10.179  10.627
88217SOL    HW266484   0.402  10.178  10.602
88218SOL     OW66485  14.775  10.230   9.160
88218SOL    HW166486  14.753  10.305   9.105
88218SOL    HW266487  14.857  10.256   9.203
88219SOL     OW66488   4.210   8.848   4.517
88219SOL    HW166489   4.211   8.939   4.486
88219SOL    HW266490   4.195   8.855   4.611
88220SOL     OW66491   5.850  13.283   0.761
88220SOL    HW166492   5.818  13.281   0.671
88220SOL    HW266493   5.889  13.196   0.774
88221SOL     OW66494  11.904  10.447   2.730
88221SOL    HW166495  11.992  10.428   2.696
88221SOL    HW266496  11.855  10.477   2.654
88222SOL     OW66497  12.391   2.456  14.626
88222SOL    HW166498  12.325   2.412  14.573
88222SOL    HW266499  12.350   2.539  14.651
88223SOL     OW66500   6.780  12.749  11.171
88223SOL    HW166501   6.745  12.750  11.260
88223SOL    HW266502   6.743  12.826  11.130
88224SOL     OW66503  14.616   1.140   0.333
88224SOL    HW166504  14.660   1.204   0.389
88224SOL    HW266505  14.681   1.070   0.321
88225SOL     OW66506   9.019   6.123  12.800
88225SOL    HW166507   8.954   6.103  12.733
88225SOL    HW266508   9.102   6.095  12.762
88226SOL     OW66509   7.362   3.325   9.763
88226SOL    HW166510   7.293   3.293   9.705
88226SOL    HW266511   7.316   3.377   9.829
88227SOL     OW66512   2.240   0.184  11.737
88227SOL    HW166513   2.164   0.227  11.697
88227SOL    HW266514   2.293   0.255  11.772
88228SOL     OW66515   2.248   9.497  12.253
88228SOL    HW166516   2.155   9.515  12.240
88228SOL    HW266517   2.278   9.566  12.312
88229SOL     OW66518   3.765  10.442   4.137
88229SOL    HW166519   3.731  10.501   4.205
88229SOL    HW266520   3.718  10.360   4.151
88230SOL     OW66521   6.555   8.459  14.569
88230SOL    HW166522   6.553   8.553  14.553
88230SOL    HW266523   6.495   8.446  14.642
88231SOL     OW66524  14.066   9.332   3.322
88231SOL    HW166525  14.146   9.332   3.268
88231SOL    HW266526  14.098   9.338   3.412
88232SOL     OW66527   8.986   1.160   2.030
88232SOL    HW166528   8.974   1.079   1.980
88232SOL    HW266529   8.898   1.192   2.047
88233SOL     OW66530  12.709   7.661  14.461
88233SOL    HW166531  12.725   7.580  14.412
88233SOL    HW266532  12.779   7.663  14.527
88234SOL     OW66533   9.343   5.030   2.164
88234SOL    HW166534   9.327   4.970   2.092
88234SOL    HW266535   9.323   5.117   2.128
88235SOL     OW66536  10.560   6.340   2.063
88235SOL    HW166537  10.610   6.316   2.141
88235SOL    HW266538  10.534   6.431   2.079
88236SOL     OW66539  11.062  13.049  12.507
88236SOL    HW166540  10.981  13.041  12.557
88236SOL    HW266541  11.122  13.096  12.566
88237SOL     OW66542  13.865  13.269   8.859
88237SOL    HW166543  13.783  13.233   8.894
88237SOL    HW266544  13.870  13.236   8.770
88238SOL     OW66545   3.925   6.417   8.806
88238SOL    HW166546   3.927   6.427   8.711
88238SOL    HW266547   4.017   6.403   8.829
88239SOL     OW66548  11.286  10.807   2.267
88239SOL    HW166549  11.366  10.806   2.215
88239SOL    HW266550  11.312  10.851   2.349
88240SOL     OW66551   8.816   0.204  11.647
88240SOL    HW166552   8.778   0.154  11.575
88240SOL    HW266553   8.741   0.251  11.684
88241SOL     OW66554   1.046   2.613   6.561
88241SOL    HW166555   1.067   2.557   6.486
88241SOL    HW266556   0.950   2.620   6.559
88242SOL     OW66557   3.244   1.344  14.717
88242SOL    HW166558   3.314   1.279  14.713
88242SOL    HW266559   3.266   1.399  14.792
88243SOL     OW66560   1.651   1.196   8.227
88243SOL    HW166561   1.597   1.252   8.283
88243SOL    HW266562   1.735   1.241   8.220
88244SOL     OW66563   8.377   7.173   9.663
88244SOL    HW166564   8.337   7.205   9.582
88244SOL    HW266565   8.461   7.219   9.667
88245SOL     OW66566   3.550   2.143  10.308
88245SOL    HW166567   3.513   2.098  10.233
88245SOL    HW266568   3.474   2.176  10.356
88246SOL     OW66569  14.134  13.304   9.093
88246SOL    HW166570  14.161  13.214   9.076
88246SOL    HW266571  14.045  13.298   9.127
88247SOL     OW66572   4.113   5.964   4.598
88247SOL    HW166573   4.162   6.036   4.636
88247SOL    HW266574   4.179   5.899   4.574
88248SOL     OW66575   0.103  12.088   1.735
88248SOL    HW166576   0.085  12.013   1.678
88248SOL    HW266577   0.196  12.081   1.755
88249SOL     OW66578   7.722   7.961   2.418
88249SOL    HW166579   7.779   7.952   2.342
88249SOL    HW266580   7.639   7.993   2.382
88250SOL     OW66581  14.492   7.580   5.016
88250SOL    HW166582  14.550   7.519   4.971
88250SOL    HW266583  14.436   7.525   5.071
88251SOL     OW66584   6.982   3.118   0.741
88251SOL    HW166585   6.904   3.127   0.685
88251SOL    HW266586   6.963   3.043   0.796
88252SOL     OW66587   4.231  13.709  11.373
88252SOL    HW166588   4.325  13.710  11.393
88252SOL    HW266589   4.193  13.769  11.437
88253SOL     OW66590   2.015  13.024  14.055
88253SOL    HW166591   2.011  12.990  14.144
88253SOL    HW266592   1.925  13.018  14.023
88254SOL     OW66593   1.631  10.750   7.988
88254SOL    HW166594   1.662  10.836   8.016
88254SOL    HW266595   1.671  10.738   7.902
88255SOL     OW66596   6.723   2.614  12.247
88255SOL    HW166597   6.631   2.628  12.225
88255SOL    HW266598   6.770   2.635  12.167
88256SOL     OW66599   7.313   2.025   2.396
88256SOL    HW166600   7.266   2.004   2.315
88256SOL    HW266601   7.358   2.107   2.377
88257SOL     OW66602   0.737  10.154   8.716
88257SOL    HW166603   0.778  10.070   8.698
88257SOL    HW266604   0.646  10.133   8.736
88258SOL     OW66605  10.732  10.459   6.056
88258SOL    HW166606  10.668  10.428   5.993
88258SOL    HW266607  10.805  10.398   6.049
88259SOL     OW66608   1.642  11.530  10.741
88259SOL    HW166609   1.648  11.588  10.817
88259SOL    HW266610   1.648  11.442  10.778
88260SOL     OW66611   9.308   9.596   5.306
88260SOL    HW166612   9.220   9.619   5.336
88260SOL    HW266613   9.365   9.662   5.346
88261SOL     OW66614  14.304   1.344  14.691
88261SOL    HW166615  14.245   1.268  14.691
88261SOL    HW266616  14.321   1.361  14.783
88262SOL     OW66617  10.504  14.787   4.716
88262SOL    HW166618  10.428  14.807   4.661
88262SOL    HW266619  10.578  14.789   4.656
88263SOL     OW66620   5.528  12.600   4.331
88263SOL    HW166621   5.559  12.518   4.368
88263SOL    HW266622   5.482  12.574   4.251
88264SOL     OW66623   2.791  10.284   6.903
88264SOL    HW166624   2.853  10.355   6.888
88264SOL    HW266625   2.748  10.306   6.986
88265SOL     OW66626  11.800   5.475   6.932
88265SOL    HW166627  11.838   5.389   6.917
88265SOL    HW266628  11.748   5.493   6.854
88266SOL     OW66629  10.828  13.368   7.277
88266SOL    HW166630  10.739  13.378   7.311
88266SOL    HW266631  10.832  13.278   7.245
88267SOL     OW66632   2.802  14.427   4.773
88267SOL    HW166633   2.830  14.343   4.735
88267SOL    HW266634   2.787  14.483   4.697
88268SOL     OW66635   4.656   5.493   3.625
88268SOL    HW166636   4.745   5.498   3.662
88268SOL    HW266637   4.662   5.539   3.542
88269SOL     OW66638  11.723  14.373   7.070
88269SOL    HW166639  11.640  14.412   7.096
88269SOL    HW266640  11.789  14.433   7.104
88270SOL     OW66641  13.775  14.014   8.013
88270SOL    HW166642  13.773  13.963   7.932
88270SOL    HW266643  13.683  14.031   8.033
88271SOL     OW66644   8.750   1.506  10.082
88271SOL    HW166645   8.760   1.439  10.015
88271SOL    HW266646   8.788   1.585  10.043
88272SOL     OW66647  13.012  10.303   0.881
88272SOL    HW166648  13.074  10.348   0.824
88272SOL    HW266649  12.929  10.305   0.832
88273SOL     OW66650   4.645   6.275  12.078
88273SOL    HW166651   4.695   6.266  12.159
88273SOL    HW266652   4.691   6.218  12.015
88274SOL     OW66653   1.574   2.480   9.541
88274SOL    HW166654   1.490   2.515   9.512
88274SOL    HW266655   1.595   2.412   9.477
88275SOL     OW66656   0.693  12.489   9.114
88275SOL    HW166657   0.663  12.580   9.113
88275SOL    HW266658   0.663  12.452   9.031
88276SOL     OW66659   1.086  12.115   0.800
88276SOL    HW166660   1.164  12.170   0.805
88276SOL    HW266661   1.013  12.176   0.801
88277SOL     OW66662   4.945  14.796   5.164
88277SOL    HW166663   4.875  14.860   5.152
88277SOL    HW266664   4.905  14.727   5.217
88278SOL     OW66665  14.232  11.304   8.610
88278SOL    HW166666  14.292  11.230   8.615
88278SOL    HW266667  14.165  11.286   8.676
88279SOL     OW66668   0.380   5.130   5.567
88279SOL    HW166669   0.376   5.218   5.529
88279SOL    HW266670   0.330   5.137   5.648
88280SOL     OW66671   7.423  12.097  14.077
88280SOL    HW166672   7.460  12.176  14.116
88280SOL    HW266673   7.336  12.124  14.047
88281SOL     OW66674   9.396   9.727  13.906
88281SOL    HW166675   9.420   9.642  13.944
88281SOL    HW266676   9.464   9.787  13.935
88282SOL     OW66677  12.948   0.196   8.599
88282SOL    HW166678  12.958   0.291   8.594
88282SOL    HW266679  12.860   0.183   8.634
88283SOL     OW66680  13.975   8.444   1.002
88283SOL    HW166681  13.906   8.494   0.958
88283SOL    HW266682  14.023   8.401   0.931
88284SOL     OW66683   2.014   1.957   7.409
88284SOL    HW166684   1.949   1.963   7.479
88284SOL    HW266685   1.967   1.986   7.331
88285SOL     OW66686   9.195   9.319   9.998
88285SOL    HW166687   9.123   9.343   9.940
88285SOL    HW266688   9.163   9.338  10.086
88286SOL     OW66689   6.705   1.477  14.459
88286SOL    HW166690   6.718   1.448  14.550
88286SOL    HW266691   6.611   1.464  14.443
88287SOL     OW66692   3.395   0.908  10.072
88287SOL    HW166693   3.342   0.953  10.007
88287SOL    HW266694   3.486   0.925  10.045
88288SOL     OW66695   5.841  10.780  11.979
88288SOL    HW166696   5.755  10.810  11.950
88288SOL    HW266697   5.903  10.823  11.920
88289SOL     OW66698   7.677   7.112   0.328
88289SOL    HW166699   7.719   7.158   0.256
88289SOL    HW266700   7.587   7.098   0.299
88290SOL     OW66701   1.023   7.544   3.588
88290SOL    HW166702   1.012   7.485   3.663
88290SOL    HW266703   1.041   7.629   3.626
88291SOL     OW66704   3.724   0.739   1.813
88291SOL    HW166705   3.734   0.659   1.864
88291SOL    HW266706   3.635   0.769   1.832
88292SOL     OW66707   4.005   8.077  13.091
88292SOL    HW166708   4.062   8.083  13.015
88292SOL    HW266709   3.949   8.155  13.085
88293SOL     OW66710  12.836  12.538   5.562
88293SOL    HW166711  12.846  12.489   5.480
88293SOL    HW266712  12.867  12.626   5.541
88294SOL     OW66713  11.930   7.457  11.464
88294SOL    HW166714  11.979   7.540  11.462
88294SOL    HW266715  11.921   7.437  11.557
88295SOL     OW66716  10.650   7.588   0.413
88295SOL    HW166717  10.670   7.502   0.449
88295SOL    HW266718  10.705   7.594   0.335
88296SOL     OW66719   8.221  11.112   9.342
88296SOL    HW166720   8.252  11.023   9.355
88296SOL    HW266721   8.170  11.132   9.420
88297SOL     OW66722   2.208   1.831   0.304
88297SOL    HW166723   2.183   1.739   0.297
88297SOL    HW266724   2.289   1.831   0.354
88298SOL     OW66725  13.474   5.045   7.031
88298SOL    HW166726  13.435   4.959   7.043
88298SOL    HW266727  13.480   5.056   6.936
88299SOL     OW66728  12.469   3.833   8.982
88299SOL    HW166729  12.430   3.766   8.927
88299SOL    HW266730  12.467   3.912   8.929
88300SOL     OW66731   0.163   6.402  14.463
88300SOL    HW166732   0.122   6.338  14.405
88300SOL    HW266733   0.231   6.443  14.409
88301SOL     OW66734   8.395   2.351   2.632
88301SOL    HW166735   8.466   2.333   2.693
88301SOL    HW266736   8.390   2.273   2.577
88302SOL     OW66737  11.610  10.343   8.680
88302SOL    HW166738  11.529  10.309   8.643
88302SOL    HW266739  11.636  10.276   8.744
88303SOL     OW66740   7.989   0.130   1.841
88303SOL    HW166741   8.059   0.114   1.904
88303SOL    HW266742   8.006   0.218   1.808
88304SOL     OW66743   3.167   6.819   9.685
88304SOL    HW166744   3.092   6.876   9.701
88304SOL    HW266745   3.153   6.784   9.597
88305SOL     OW66746   9.472   0.834   8.306
88305SOL    HW166747   9.391   0.878   8.281
88305SOL    HW266748   9.461   0.745   8.274
88306SOL     OW66749  14.340   7.500   6.738
88306SOL    HW166750  14.277   7.452   6.685
88306SOL    HW266751  14.424   7.487   6.695
88307SOL     OW66752   2.263  12.578   7.364
88307SOL    HW166753   2.284  12.520   7.291
88307SOL    HW266754   2.335  12.641   7.366
88308SOL     OW66755   8.394   0.819   3.652
88308SOL    HW166756   8.344   0.886   3.607
88308SOL    HW266757   8.450   0.781   3.585
88309SOL     OW66758   6.482   7.974   1.151
88309SOL    HW166759   6.445   8.017   1.073
88309SOL    HW266760   6.411   7.918   1.183
88310SOL     OW66761  14.742   1.447   3.274
88310SOL    HW166762  14.783   1.440   3.188
88310SOL    HW266763  14.806   1.409   3.334
88311SOL     OW66764   5.208  14.231   4.840
88311SOL    HW166765   5.237  14.266   4.756
88311SOL    HW266766   5.130  14.282   4.861
88312SOL     OW66767   9.297   5.211   2.890
88312SOL    HW166768   9.274   5.170   2.806
88312SOL    HW266769   9.219   5.260   2.915
88313SOL     OW66770   3.008   2.521   4.521
88313SOL    HW166771   3.049   2.435   4.508
88313SOL    HW266772   3.075   2.584   4.498
88314SOL     OW66773   5.497   4.333  12.226
88314SOL    HW166774   5.552   4.408  12.249
88314SOL    HW266775   5.426   4.370  12.174
88315SOL     OW66776   3.811   4.566   8.593
88315SOL    HW166777   3.717   4.552   8.605
88315SOL    HW266778   3.846   4.568   8.682
88316SOL     OW66779   2.608  12.926   0.928
88316SOL    HW166780   2.518  12.949   0.908
88316SOL    HW266781   2.660  12.987   0.876
88317SOL     OW66782   5.132   6.936   8.151
88317SOL    HW166783   5.131   7.013   8.207
88317SOL    HW266784   5.182   6.871   8.200
88318SOL     OW66785   3.592   2.021   1.148
88318SOL    HW166786   3.580   2.111   1.179
88318SOL    HW266787   3.532   2.013   1.074
88319SOL     OW66788   7.338   8.147   3.042
88319SOL    HW166789   7.353   8.201   2.965
88319SOL    HW266790   7.350   8.057   3.011
88320SOL     OW66791   4.753  10.225   7.498
88320SOL    HW166792   4.782  10.243   7.409
88320SOL    HW266793   4.660  10.203   7.489
88321SOL     OW66794   5.920  14.587   4.951
88321SOL    HW166795   6.005  14.591   4.995
88321SOL    HW266796   5.856  14.587   5.022
88322SOL     OW66797   9.602   3.513  11.991
88322SOL    HW166798   9.687   3.468  11.992
88322SOL    HW266799   9.624   3.603  11.965
88323SOL     OW66800   9.704   6.049   8.065
88323SOL    HW166801   9.677   6.033   8.155
88323SOL    HW266802   9.623   6.043   8.014
88324SOL     OW66803   3.073  12.511  14.134
88324SOL    HW166804   3.151  12.456  14.142
88324SOL    HW266805   3.095  12.576  14.068
88325SOL     OW66806  12.459   7.878  11.132
88325SOL    HW166807  12.479   7.881  11.226
88325SOL    HW266808  12.388   7.815  11.125
88326SOL     OW66809  13.309   0.440   6.206
88326SOL    HW166810  13.388   0.490   6.185
88326SOL    HW266811  13.338   0.369   6.263
88327SOL     OW66812   5.671   2.220   2.074
88327SOL    HW166813   5.675   2.203   2.168
88327SOL    HW266814   5.635   2.141   2.036
88328SOL     OW66815  13.825   1.579  13.066
88328SOL    HW166816  13.894   1.615  13.121
88328SOL    HW266817  13.766   1.652  13.049
88329SOL     OW66818   5.394   1.746  13.630
88329SOL    HW166819   5.445   1.818  13.593
88329SOL    HW266820   5.321   1.735  13.569
88330SOL     OW66821  12.643   5.566   8.980
88330SOL    HW166822  12.580   5.635   8.963
88330SOL    HW266823  12.727   5.602   8.951
88331SOL     OW66824   6.563   6.883   1.333
88331SOL    HW166825   6.554   6.942   1.407
88331SOL    HW266826   6.579   6.941   1.258
88332SOL     OW66827   7.519   3.945   9.599
88332SOL    HW166828   7.538   4.003   9.673
88332SOL    HW266829   7.429   3.968   9.573
88333SOL     OW66830  11.588  12.057  12.136
88333SOL    HW166831  11.631  12.137  12.105
88333SOL    HW266832  11.503  12.056  12.092
88334SOL     OW66833   4.285  13.104   5.747
88334SOL    HW166834   4.336  13.113   5.666
88334SOL    HW266835   4.246  13.190   5.760
88335SOL     OW66836  14.775   5.442   2.573
88335SOL    HW166837  14.865   5.473   2.570
88335SOL    HW266838  14.766   5.399   2.658
88336SOL     OW66839   9.706   4.562  10.661
88336SOL    HW166840   9.727   4.482  10.612
88336SOL    HW266841   9.629   4.539  10.713
88337SOL     OW66842  13.296   9.236   6.416
88337SOL    HW166843  13.273   9.329   6.406
88337SOL    HW266844  13.213   9.190   6.401
88338SOL     OW66845   9.817  14.497   2.827
88338SOL    HW166846   9.774  14.580   2.847
88338SOL    HW266847   9.745  14.435   2.814
88339SOL     OW66848   1.842  13.906   5.740
88339SOL    HW166849   1.897  13.960   5.685
88339SOL    HW266850   1.765  13.960   5.758
88340SOL     OW66851  10.100   7.362   7.050
88340SOL    HW166852  10.083   7.369   7.144
88340SOL    HW266853  10.032   7.417   7.009
88341SOL     OW66854   1.122  11.492   7.824
88341SOL    HW166855   1.186  11.421   7.827
88341SOL    HW266856   1.149  11.546   7.750
88342SOL     OW66857  12.978   3.112   6.361
88342SOL    HW166858  12.961   3.073   6.275
88342SOL    HW266859  12.895   3.107   6.407
88343SOL     OW66860   2.921   1.740   6.103
88343SOL    HW166861   2.895   1.815   6.048
88343SOL    HW266862   2.903   1.663   6.049
88344SOL     OW66863  13.225   0.159   4.096
88344SOL    HW166864  13.291   0.128   4.033
88344SOL    HW266865  13.223   0.254   4.083
88345SOL     OW66866  11.795  10.680   3.171
88345SOL    HW166867  11.748  10.642   3.096
88345SOL    HW266868  11.885  10.690   3.140
88346SOL     OW66869  13.023  10.808   5.818
88346SOL    HW166870  12.950  10.867   5.841
88346SOL    HW266871  13.093  10.831   5.879
88347SOL     OW66872   9.423   4.419   2.047
88347SOL    HW166873   9.435   4.325   2.055
88347SOL    HW266874   9.372   4.443   2.124
88348SOL     OW66875   3.554   2.817  13.723
88348SOL    HW166876   3.643   2.828  13.757
88348SOL    HW266877   3.546   2.723  13.707
88349SOL     OW66878   0.932   4.810   0.972
88349SOL    HW166879   0.857   4.760   0.941
88349SOL    HW266880   0.903   4.848   1.055
88350SOL     OW66881   4.969   0.322   1.804
88350SOL    HW166882   4.915   0.243   1.799
88350SOL    HW266883   4.961   0.361   1.716
88351SOL     OW66884  14.840   1.874   1.143
88351SOL    HW166885  14.857   1.946   1.203
88351SOL    HW266886  14.877   1.797   1.187
88352SOL     OW66887  13.652   0.184  10.934
88352SOL    HW166888  13.602   0.137  11.001
88352SOL    HW266889  13.740   0.191  10.970
88353SOL     OW66890   1.198   3.542   0.816
88353SOL    HW166891   1.277   3.507   0.858
88353SOL    HW266892   1.130   3.479   0.837
88354SOL     OW66893   2.862   3.912  13.217
88354SOL    HW166894   2.816   3.869  13.290
88354SOL    HW266895   2.930   3.964  13.260
88355SOL     OW66896   3.685   4.528  12.377
88355SOL    HW166897   3.767   4.576  12.372
88355SOL    HW266898   3.646   4.555  12.460
88356SOL     OW66899   4.966   8.611   0.749
88356SOL    HW166900   5.017   8.682   0.789
88356SOL    HW266901   5.012   8.590   0.668
88357SOL     OW66902   5.724   7.489   2.202
88357SOL    HW166903   5.659   7.419   2.189
88357SOL    HW266904   5.708   7.550   2.131
88358SOL     OW66905  10.814  11.413   7.476
88358SOL    HW166906  10.779  11.324   7.478
88358SOL    HW266907  10.815  11.440   7.568
88359SOL     OW66908   3.297   5.941   4.776
88359SOL    HW166909   3.321   5.994   4.700
88359SOL    HW266910   3.212   5.975   4.803
88360SOL     OW66911   9.742   9.826  14.299
88360SOL    HW166912   9.728   9.739  14.263
88360SOL    HW266913   9.654   9.860  14.314
88361SOL     OW66914   2.382   4.433   6.163
88361SOL    HW166915   2.296   4.448   6.124
88361SOL    HW266916   2.435   4.398   6.092
88362SOL     OW66917  14.258   6.007  10.933
88362SOL    HW166918  14.235   5.949  10.860
88362SOL    HW266919  14.316   6.073  10.895
88363SOL     OW66920   1.523  10.978  12.093
88363SOL    HW166921   1.538  10.950  12.183
88363SOL    HW266922   1.568  11.062  12.085
88364SOL     OW66923   8.188   7.151   2.735
88364SOL    HW166924   8.164   7.074   2.682
88364SOL    HW266925   8.274   7.176   2.702
88365SOL     OW66926   0.944   2.803   9.057
88365SOL    HW166927   0.945   2.869   9.127
88365SOL    HW266928   0.953   2.854   8.977
88366SOL     OW66929   0.888   5.111  10.915
88366SOL    HW166930   0.859   5.172  10.847
88366SOL    HW266931   0.809   5.090  10.965
88367SOL     OW66932   4.550   1.126   1.383
88367SOL    HW166933   4.612   1.055   1.399
88367SOL    HW266934   4.592   1.204   1.418
88368SOL     OW66935   2.896   9.386   6.593
88368SOL    HW166936   2.963   9.390   6.524
88368SOL    HW266937   2.939   9.341   6.666
88369SOL     OW66938   1.946   0.385   9.357
88369SOL    HW166939   1.984   0.307   9.317
88369SOL    HW266940   1.948   0.367   9.451
88370SOL     OW66941   2.877   4.174   7.288
88370SOL    HW166942   2.873   4.137   7.200
88370SOL    HW266943   2.848   4.264   7.278
88371SOL     OW66944   4.721  14.539   1.195
88371SOL    HW166945   4.703  14.460   1.247
88371SOL    HW266946   4.715  14.510   1.104
88372SOL     OW66947   3.251   3.158   6.280
88372SOL    HW166948   3.229   3.228   6.218
88372SOL    HW266949   3.316   3.197   6.339
88373SOL     OW66950   3.876   3.739   8.725
88373SOL    HW166951   3.829   3.822   8.733
88373SOL    HW266952   3.875   3.719   8.631
88374SOL     OW66953  13.152   9.657   0.696
88374SOL    HW166954  13.155   9.728   0.632
88374SOL    HW266955  13.175   9.578   0.646
88375SOL     OW66956  13.933   5.826   8.838
88375SOL    HW166957  13.940   5.731   8.828
88375SOL    HW266958  13.960   5.861   8.753
88376SOL     OW66959   9.317   9.513   4.093
88376SOL    HW166960   9.308   9.517   3.998
88376SOL    HW266961   9.316   9.419   4.113
88377SOL     OW66962   0.446  13.134   5.912
88377SOL    HW166963   0.424  13.125   5.820
88377SOL    HW266964   0.363  13.124   5.959
88378SOL     OW66965   2.411   9.017  13.524
88378SOL    HW166966   2.506   9.022  13.529
88378SOL    HW266967   2.380   9.105  13.546
88379SOL     OW66968   3.774  13.246  11.224
88379SOL    HW166969   3.827  13.319  11.191
88379SOL    HW266970   3.772  13.183  11.152
88380SOL     OW66971  13.125   4.443   2.559
88380SOL    HW166972  13.040   4.463   2.598
88380SOL    HW266973  13.184   4.432   2.633
88381SOL     OW66974  11.101  12.065   8.665
88381SOL    HW166975  11.178  12.046   8.610
88381SOL    HW266976  11.107  12.001   8.737
88382SOL     OW66977   4.186   9.505   5.844
88382SOL    HW166978   4.255   9.444   5.869
88382SOL    HW266979   4.138   9.460   5.775
88383SOL     OW66980   7.920   7.004   6.647
88383SOL    HW166981   7.971   6.926   6.622
88383SOL    HW266982   7.838   6.996   6.599
88384SOL     OW66983  10.697   0.474   0.329
88384SOL    HW166984  10.638   0.529   0.381
88384SOL    HW266985  10.739   0.417   0.393
88385SOL     OW66986  11.327   1.922  13.276
88385SOL    HW166987  11.340   1.850  13.338
88385SOL    HW266988  11.410   1.969  13.276
88386SOL     OW66989   6.436   3.738  11.294
88386SOL    HW166990   6.451   3.649  11.326
88386SOL    HW266991   6.524   3.769  11.271
88387SOL     OW66992   9.000   5.716   1.615
88387SOL    HW166993   8.992   5.804   1.580
88387SOL    HW266994   8.910   5.691   1.638
88388SOL     OW66995  13.977   3.153   1.895
88388SOL    HW166996  14.055   3.143   1.840
88388SOL    HW266997  13.910   3.183   1.835
88389SOL     OW66998   9.892   6.514   1.973
88389SOL    HW166999   9.928   6.590   1.928
88389SOL    HW267000   9.799   6.534   1.985
88390SOL     OW67001  10.224   1.724   4.151
88390SOL    HW167002  10.182   1.742   4.236
88390SOL    HW267003  10.156   1.745   4.087
88391SOL     OW67004   2.903   3.086   5.433
88391SOL    HW167005   2.839   3.066   5.365
88391SOL    HW267006   2.858   3.148   5.491
88392SOL     OW67007   3.314  10.437   8.667
88392SOL    HW167008   3.225  10.465   8.650
88392SOL    HW267009   3.329  10.365   8.606
88393SOL     OW67010   0.088   9.292  10.118
88393SOL    HW167011   0.054   9.204  10.100
88393SOL    HW267012   0.119   9.288  10.209
88394SOL     OW67013  10.344   3.539   9.344
88394SOL    HW167014  10.350   3.454   9.389
88394SOL    HW267015  10.292   3.521   9.266
88395SOL     OW67016  13.369  11.032   9.827
88395SOL    HW167017  13.303  10.964   9.817
88395SOL    HW267018  13.451  10.984   9.842
88396SOL     OW67019   2.031   4.686  13.020
88396SOL    HW167020   1.989   4.648  12.942
88396SOL    HW267021   1.998   4.776  13.023
88397SOL     OW67022   8.870  14.659   9.698
88397SOL    HW167023   8.840  14.739   9.653
88397SOL    HW267024   8.854  14.676   9.791
88398SOL     OW67025   0.006   9.112   9.306
88398SOL    HW167026  14.829   9.057   9.357
88398SOL    HW267027  14.867   9.092   9.214
88399SOL     OW67028   8.390  10.516  14.300
88399SOL    HW167029   8.307  10.469  14.293
88399SOL    HW267030   8.409  10.544  14.211
88400SOL     OW67031   8.755   7.741   2.408
88400SOL    HW167032   8.849   7.725   2.417
88400SOL    HW267033   8.737   7.727   2.315
88401SOL     OW67034   5.754   0.585   0.512
88401SOL    HW167035   5.685   0.518   0.507
88401SOL    HW267036   5.823   0.545   0.565
88402SOL     OW67037   8.705   2.291   1.711
88402SOL    HW167038   8.654   2.348   1.769
88402SOL    HW267039   8.792   2.331   1.708
88403SOL     OW67040   9.859  13.752  12.659
88403SOL    HW167041   9.772  13.725  12.690
88403SOL    HW267042   9.847  13.842  12.631
88404SOL     OW67043   3.652   0.734  12.068
88404SOL    HW167044   3.560   0.749  12.088
88404SOL    HW267045   3.659   0.639  12.059
88405SOL     OW67046  14.369   9.453   7.561
88405SOL    HW167047  14.392   9.423   7.649
88405SOL    HW267048  14.445   9.505   7.533
88406SOL     OW67049   2.040   6.461   6.635
88406SOL    HW167050   1.967   6.435   6.690
88406SOL    HW267051   2.083   6.532   6.683
88407SOL     OW67052  10.474   9.045   7.076
88407SOL    HW167053  10.436   9.022   6.991
88407SOL    HW267054  10.549   8.987   7.085
88408SOL     OW67055   0.685   4.127   5.154
88408SOL    HW167056   0.697   4.143   5.247
88408SOL    HW267057   0.773   4.123   5.118
88409SOL     OW67058   4.570   4.552  11.144
88409SOL    HW167059   4.553   4.628  11.089
88409SOL    HW267060   4.550   4.476  11.089
88410SOL     OW67061  11.303   9.146   5.110
88410SOL    HW167062  11.210   9.164   5.103
88410SOL    HW267063  11.309   9.064   5.159
88411SOL     OW67064   2.530   1.624   4.372
88411SOL    HW167065   2.531   1.528   4.368
88411SOL    HW267066   2.540   1.652   4.281
88412SOL     OW67067  10.315   5.134   0.831
88412SOL    HW167068  10.348   5.192   0.899
88412SOL    HW267069  10.393   5.087   0.800
88413SOL     OW67070   3.518   7.395  14.295
88413SOL    HW167071   3.525   7.375  14.202
88413SOL    HW267072   3.598   7.359  14.334
88414SOL     OW67073  10.660   1.540   9.827
88414SOL    HW167074  10.637   1.630   9.803
88414SOL    HW267075  10.749   1.546   9.860
88415SOL     OW67076   3.306   4.541   8.048
88415SOL    HW167077   3.270   4.630   8.050
88415SOL    HW267078   3.291   4.511   7.959
88416SOL     OW67079   1.410  14.199   3.570
88416SOL    HW167080   1.395  14.123   3.513
88416SOL    HW267081   1.503  14.194   3.591
88417SOL     OW67082   6.764  12.626   0.512
88417SOL    HW167083   6.682  12.634   0.463
88417SOL    HW267084   6.826  12.680   0.464
88418SOL     OW67085   3.306   1.592   0.981
88418SOL    HW167086   3.379   1.593   1.043
88418SOL    HW267087   3.252   1.517   1.009
88419SOL     OW67088  14.322   7.759   0.915
88419SOL    HW167089  14.276   7.840   0.937
88419SOL    HW267090  14.280   7.729   0.834
88420SOL     OW67091  14.280   5.528   8.200
88420SOL    HW167092  14.301   5.511   8.292
88420SOL    HW267093  14.280   5.624   8.193
88421SOL     OW67094   6.339  11.250   7.625
88421SOL    HW167095   6.420  11.203   7.602
88421SOL    HW267096   6.313  11.294   7.545
88422SOL     OW67097  11.389  12.256   1.918
88422SOL    HW167098  11.395  12.350   1.940
88422SOL    HW267099  11.335  12.253   1.840
88423SOL     OW67100   0.685   4.552   5.012
88423SOL    HW167101   0.600   4.510   5.015
88423SOL    HW267102   0.666   4.646   5.018
88424SOL     OW67103   8.277   8.455   9.791
88424SOL    HW167104   8.236   8.430   9.708
88424SOL    HW267105   8.274   8.550   9.791
88425SOL     OW67106   9.527  14.772  14.771
88425SOL    HW167107   9.535  14.743  14.862
88425SOL    HW267108   9.569  14.704  14.720
88426SOL     OW67109   6.565  12.865  10.213
88426SOL    HW167110   6.487  12.872  10.157
88426SOL    HW267111   6.532  12.872  10.302
88427SOL     OW67112   7.264  12.635   3.048
88427SOL    HW167113   7.234  12.683   3.125
88427SOL    HW267114   7.352  12.605   3.071
88428SOL     OW67115   6.610   4.207  12.163
88428SOL    HW167116   6.521   4.198  12.199
88428SOL    HW267117   6.624   4.302  12.157
88429SOL     OW67118   9.599   3.109  11.170
88429SOL    HW167119   9.519   3.057  11.179
88429SOL    HW267120   9.614   3.112  11.076
88430SOL     OW67121  14.318  11.599   6.949
88430SOL    HW167122  14.304  11.622   7.041
88430SOL    HW267123  14.233  11.611   6.907
88431SOL     OW67124   2.249  13.011  11.035
88431SOL    HW167125   2.312  12.994  10.965
88431SOL    HW267126   2.303  13.029  11.112
88432SOL     OW67127   8.269   2.601  12.148
88432SOL    HW167128   8.204   2.544  12.190
88432SOL    HW267129   8.307   2.547  12.079
88433SOL     OW67130   4.224   9.390  12.104
88433SOL    HW167131   4.188   9.371  12.017
88433SOL    HW267132   4.190   9.320  12.160
88434SOL     OW67133   5.484  11.116   1.941
88434SOL    HW167134   5.424  11.188   1.921
88434SOL    HW267135   5.571  11.155   1.938
88435SOL     OW67136  10.196   9.273  13.428
88435SOL    HW167137  10.274   9.314  13.464
88435SOL    HW267138  10.228   9.217  13.358
88436SOL     OW67139   3.248   9.574   1.555
88436SOL    HW167140   3.253   9.534   1.642
88436SOL    HW267141   3.299   9.517   1.499
88437SOL     OW67142  12.296  11.501  13.988
88437SOL    HW167143  12.230  11.569  14.001
88437SOL    HW267144  12.309  11.499  13.893
88438SOL     OW67145   6.281  10.398   2.388
88438SOL    HW167146   6.256  10.478   2.342
88438SOL    HW267147   6.202  10.344   2.387
88439SOL     OW67148   1.815   4.604  12.865
88439SOL    HW167149   1.729   4.635  12.891
88439SOL    HW267150   1.841   4.661  12.792
88440SOL     OW67151  10.040   8.361   4.206
88440SOL    HW167152  10.041   8.450   4.171
88440SOL    HW267153   9.947   8.337   4.210
88441SOL     OW67154   7.636   3.038   6.134
88441SOL    HW167155   7.589   3.021   6.216
88441SOL    HW267156   7.571   3.024   6.065
88442SOL     OW67157   1.174   9.030   5.685
88442SOL    HW167158   1.150   9.106   5.632
88442SOL    HW267159   1.260   9.052   5.722
88443SOL     OW67160  10.586   6.307   9.492
88443SOL    HW167161  10.578   6.362   9.414
88443SOL    HW267162  10.680   6.292   9.501
88444SOL     OW67163   3.998   5.939  13.879
88444SOL    HW167164   3.920   5.923  13.827
88444SOL    HW267165   3.970   5.925  13.970
88445SOL     OW67166   1.546  11.346   8.006
88445SOL    HW167167   1.503  11.409   7.949
88445SOL    HW267168   1.636  11.340   7.973
88446SOL     OW67169   3.985   7.310   1.538
88446SOL    HW167170   3.954   7.276   1.454
88446SOL    HW267171   3.935   7.260   1.603
88447SOL     OW67172  14.825   0.466   7.920
88447SOL    HW167173  14.788   0.513   7.844
88447SOL    HW267174   0.032   0.499   7.928
88448SOL     OW67175   4.662   4.783   9.738
88448SOL    HW167176   4.639   4.874   9.722
88448SOL    HW267177   4.666   4.777   9.834
88449SOL     OW67178   7.153  10.514   1.673
88449SOL    HW167179   7.209  10.521   1.596
88449SOL    HW267180   7.167  10.425   1.705
88450SOL     OW67181   2.114   8.192   3.203
88450SOL    HW167182   2.115   8.253   3.129
88450SOL    HW267183   2.172   8.121   3.175
88451SOL     OW67184   1.388   3.729   7.192
88451SOL    HW167185   1.353   3.815   7.216
88451SOL    HW267186   1.464   3.718   7.249
88452SOL     OW67187   8.168  13.921   4.998
88452SOL    HW167188   8.193  13.863   5.069
88452SOL    HW267189   8.242  13.981   4.988
88453SOL     OW67190   9.741  12.277   3.517
88453SOL    HW167191   9.793  12.272   3.437
88453SOL    HW267192   9.804  12.302   3.585
88454SOL     OW67193   3.387   0.419   3.175
88454SOL    HW167194   3.324   0.366   3.223
88454SOL    HW267195   3.348   0.506   3.171
88455SOL     OW67196   3.058  14.601   0.060
88455SOL    HW167197   3.146  14.625   0.088
88455SOL    HW267198   3.060  14.610  14.846
88456SOL     OW67199  11.642   1.840   4.209
88456SOL    HW167200  11.573   1.859   4.273
88456SOL    HW267201  11.596   1.829   4.126
88457SOL     OW67202  12.300  13.103   3.032
88457SOL    HW167203  12.246  13.167   3.077
88457SOL    HW267204  12.389  13.140   3.035
88458SOL     OW67205  11.578   8.615   5.670
88458SOL    HW167206  11.576   8.711   5.660
88458SOL    HW267207  11.553   8.601   5.761
88459SOL     OW67208   8.714   9.363  10.991
88459SOL    HW167209   8.696   9.438  10.936
88459SOL    HW267210   8.685   9.390  11.079
88460SOL     OW67211  10.473   8.256  13.219
88460SOL    HW167212  10.466   8.181  13.161
88460SOL    HW267213  10.399   8.246  13.280
88461SOL     OW67214   8.911   3.875   4.164
88461SOL    HW167215   8.862   3.837   4.090
88461SOL    HW267216   8.978   3.929   4.122
88462SOL     OW67217  10.236   1.638   7.068
88462SOL    HW167218  10.174   1.708   7.050
88462SOL    HW267219  10.309   1.654   7.008
88463SOL     OW67220  14.243   1.754   8.975
88463SOL    HW167221  14.283   1.707   9.048
88463SOL    HW267222  14.184   1.689   8.936
88464SOL     OW67223   9.555   4.726   1.692
88464SOL    HW167224   9.611   4.671   1.637
88464SOL    HW267225   9.511   4.784   1.630
88465SOL     OW67226  14.148   5.015   5.332
88465SOL    HW167227  14.139   5.080   5.262
88465SOL    HW267228  14.236   5.031   5.368
88466SOL     OW67229  12.323   3.930  10.034
88466SOL    HW167230  12.345   3.845   9.997
88466SOL    HW267231  12.363   3.993   9.974
88467SOL     OW67232  12.534   6.256   1.109
88467SOL    HW167233  12.537   6.217   1.022
88467SOL    HW267234  12.442   6.272   1.126
88468SOL     OW67235   7.112   6.583   0.333
88468SOL    HW167236   7.028   6.588   0.380
88468SOL    HW267237   7.111   6.496   0.293
88469SOL     OW67238  11.928  14.439   2.113
88469SOL    HW167239  11.929  14.370   2.179
88469SOL    HW267240  11.975  14.401   2.038
88470SOL     OW67241  14.406  11.408   8.973
88470SOL    HW167242  14.487  11.445   9.008
88470SOL    HW267243  14.431  11.319   8.946
88471SOL     OW67244   4.736  13.082  12.006
88471SOL    HW167245   4.654  13.125  12.028
88471SOL    HW267246   4.799  13.116  12.069
88472SOL     OW67247  13.625  13.270   3.363
88472SOL    HW167248  13.637  13.244   3.272
88472SOL    HW267249  13.710  13.307   3.388
88473SOL     OW67250   5.997  10.883   2.174
88473SOL    HW167251   5.991  10.973   2.142
88473SOL    HW267252   5.999  10.891   2.269
88474SOL     OW67253   2.611   2.673  14.333
88474SOL    HW167254   2.596   2.700  14.242
88474SOL    HW267255   2.700   2.702  14.352
88475SOL     OW67256  11.876  13.654  11.271
88475SOL    HW167257  11.847  13.704  11.348
88475SOL    HW267258  11.796  13.627  11.228
88476SOL     OW67259   1.102   1.119   6.991
88476SOL    HW167260   1.045   1.158   6.925
88476SOL    HW267261   1.110   1.027   6.966
88477SOL     OW67262   8.749   6.815  12.692
88477SOL    HW167263   8.660   6.819  12.727
88477SOL    HW267264   8.805   6.802  12.769
88478SOL     OW67265   0.223   3.648   6.925
88478SOL    HW167266   0.269   3.732   6.923
88478SOL    HW267267   0.257   3.604   7.003
88479SOL     OW67268  12.578   7.749   9.706
88479SOL    HW167269  12.486   7.730   9.683
88479SOL    HW267270  12.574   7.830   9.756
88480SOL     OW67271  14.818   6.969  11.689
88480SOL    HW167272  14.723   6.975  11.694
88480SOL    HW267273  14.849   7.054  11.719
88481SOL     OW67274  11.739  10.128   9.764
88481SOL    HW167275  11.746  10.129   9.859
88481SOL    HW267276  11.699  10.043   9.743
88482SOL     OW67277   2.684  10.929  14.057
88482SOL    HW167278   2.603  10.916  14.008
88482SOL    HW267279   2.690  10.853  14.115
88483SOL     OW67280  12.783   8.209   0.256
88483SOL    HW167281  12.744   8.275   0.199
88483SOL    HW267282  12.751   8.230   0.343
88484SOL     OW67283   3.754  12.233  14.534
88484SOL    HW167284   3.747  12.173  14.460
88484SOL    HW267285   3.667  12.233  14.573
88485SOL     OW67286  13.644   4.436  10.978
88485SOL    HW167287  13.565   4.468  11.022
88485SOL    HW267288  13.615   4.360  10.929
88486SOL     OW67289   8.864   5.835  14.428
88486SOL    HW167290   8.817   5.834  14.344
88486SOL    HW267291   8.820   5.768  14.481
88487SOL     OW67292   5.282  12.122  14.687
88487SOL    HW167293   5.190  12.113  14.710
88487SOL    HW267294   5.283  12.136  14.593
88488SOL     OW67295   4.460   3.789   1.579
88488SOL    HW167296   4.510   3.832   1.648
88488SOL    HW267297   4.485   3.835   1.499
88489SOL     OW67298   0.168   4.663   2.937
88489SOL    HW167299   0.119   4.688   3.016
88489SOL    HW267300   0.259   4.658   2.966
88490SOL     OW67301   0.606   7.533  10.753
88490SOL    HW167302   0.518   7.516  10.787
88490SOL    HW267303   0.616   7.471  10.681
88491SOL     OW67304   2.269   3.587   8.014
88491SOL    HW167305   2.357   3.625   8.003
88491SOL    HW267306   2.281   3.519   8.080
88492SOL     OW67307   8.476   5.790   4.748
88492SOL    HW167308   8.565   5.784   4.712
88492SOL    HW267309   8.442   5.873   4.714
88493SOL     OW67310  10.237   2.995   2.212
88493SOL    HW167311  10.317   3.045   2.196
88493SOL    HW267312  10.266   2.904   2.220
88494SOL     OW67313   4.388   5.235  12.893
88494SOL    HW167314   4.306   5.205  12.933
88494SOL    HW267315   4.456   5.207  12.955
88495SOL     OW67316   8.297   3.658  13.525
88495SOL    HW167317   8.325   3.747  13.503
88495SOL    HW267318   8.215   3.670  13.572
88496SOL     OW67319   6.656  10.154   1.212
88496SOL    HW167320   6.590  10.214   1.244
88496SOL    HW267321   6.722  10.210   1.171
88497SOL     OW67322  14.862  11.875   5.528
88497SOL    HW167323   0.066  11.835   5.540
88497SOL    HW267324  14.860  11.946   5.592
88498SOL     OW67325   8.812   0.997   5.665
88498SOL    HW167326   8.726   0.992   5.625
88498SOL    HW267327   8.798   0.976   5.758
88499SOL     OW67328  10.048   4.466   9.052
88499SOL    HW167329  10.120   4.432   9.104
88499SOL    HW267330  10.037   4.402   8.981
88500SOL     OW67331   6.564  11.201  11.586
88500SOL    HW167332   6.588  11.293  11.578
88500SOL    HW267333   6.593  11.176  11.674
88501SOL     OW67334   2.882  12.049   0.256
88501SOL    HW167335   2.901  12.138   0.226
88501SOL    HW267336   2.829  12.011   0.187
88502SOL     OW67337   1.870   0.722  12.860
88502SOL    HW167338   1.865   0.626  12.862
88502SOL    HW267339   1.955   0.740  12.821
88503SOL     OW67340   3.314   4.463  11.657
88503SOL    HW167341   3.240   4.471  11.717
88503SOL    HW267342   3.277   4.477  11.570
88504SOL     OW67343  10.121  12.131   2.442
88504SOL    HW167344  10.119  12.226   2.430
88504SOL    HW267345  10.032  12.109   2.470
88505SOL     OW67346  13.105  11.241  11.288
88505SOL    HW167347  13.127  11.267  11.198
88505SOL    HW267348  13.040  11.305  11.316
88506SOL     OW67349  13.180   1.333   7.353
88506SOL    HW167350  13.256   1.367   7.400
88506SOL    HW267351  13.118   1.406   7.352
88507SOL     OW67352   1.598  13.846   8.771
88507SOL    HW167353   1.621  13.769   8.823
88507SOL    HW267354   1.547  13.901   8.830
88508SOL     OW67355   7.650   4.755  10.146
88508SOL    HW167356   7.640   4.839  10.102
88508SOL    HW267357   7.742   4.731  10.133
88509SOL     OW67358  13.834  13.138  13.781
88509SOL    HW167359  13.862  13.105  13.696
88509SOL    HW267360  13.800  13.226  13.763
88510SOL     OW67361   5.942   2.908  10.691
88510SOL    HW167362   6.023   2.884  10.646
88510SOL    HW267363   5.899   2.825  10.709
88511SOL     OW67364   8.259   2.246   8.213
88511SOL    HW167365   8.217   2.250   8.127
88511SOL    HW267366   8.244   2.156   8.242
88512SOL     OW67367   5.271  14.704   3.558
88512SOL    HW167368   5.280  14.614   3.590
88512SOL    HW267369   5.292  14.699   3.465
88513SOL     OW67370   2.131  11.865  13.029
88513SOL    HW167371   2.066  11.930  13.055
88513SOL    HW267372   2.096  11.826  12.949
88514SOL     OW67373   0.588  12.926   4.825
88514SOL    HW167374   0.624  13.013   4.812
88514SOL    HW267375   0.501  12.930   4.785
88515SOL     OW67376   7.139   2.286   8.151
88515SOL    HW167377   7.166   2.220   8.214
88515SOL    HW267378   7.122   2.237   8.070
88516SOL     OW67379  12.585   1.144   3.389
88516SOL    HW167380  12.649   1.196   3.438
88516SOL    HW267381  12.511   1.204   3.375
88517SOL     OW67382   9.450   2.933  12.119
88517SOL    HW167383   9.507   3.007  12.100
88517SOL    HW267384   9.479   2.902  12.205
88518SOL     OW67385   3.712   5.255   0.871
88518SOL    HW167386   3.652   5.259   0.945
88518SOL    HW267387   3.656   5.239   0.795
88519SOL     OW67388  10.963  12.213   3.593
88519SOL    HW167389  10.870  12.222   3.573
88519SOL    HW267390  10.976  12.119   3.607
88520SOL     OW67391  14.194   9.695   5.431
88520SOL    HW167392  14.228   9.782   5.452
88520SOL    HW267393  14.201   9.647   5.514
88521SOL     OW67394   0.156  12.356  10.525
88521SOL    HW167395   0.167  12.423  10.592
88521SOL    HW267396   0.065  12.365  10.496
88522SOL     OW67397   5.046  10.136   5.272
88522SOL    HW167398   5.015  10.136   5.182
88522SOL    HW267399   5.120  10.076   5.272
88523SOL     OW67400  10.497   6.472  10.142
88523SOL    HW167401  10.539   6.455  10.226
88523SOL    HW267402  10.559   6.438  10.077
88524SOL     OW67403  10.116   1.573   6.019
88524SOL    HW167404  10.179   1.616   5.959
88524SOL    HW267405  10.034   1.571   5.969
88525SOL     OW67406  12.249  13.464  10.800
88525SOL    HW167407  12.296  13.457  10.716
88525SOL    HW267408  12.318  13.457  10.866
88526SOL     OW67409  10.028  12.531   6.070
88526SOL    HW167410   9.983  12.471   6.011
88526SOL    HW267411   9.963  12.549   6.139
88527SOL     OW67412   4.427  14.734   0.861
88527SOL    HW167413   4.381  14.715   0.943
88527SOL    HW267414   4.516  14.755   0.888
88528SOL     OW67415  12.182   3.038  12.619
88528SOL    HW167416  12.096   2.999  12.627
88528SOL    HW267417  12.234   2.997  12.689
88529SOL     OW67418  12.926   1.714   6.953
88529SOL    HW167419  12.860   1.746   6.892
88529SOL    HW267420  12.959   1.634   6.913
88530SOL     OW67421   4.515  12.522   4.775
88530SOL    HW167422   4.473  12.485   4.852
88530SOL    HW267423   4.605  12.537   4.801
88531SOL     OW67424  10.533   4.996   7.924
88531SOL    HW167425  10.625   4.997   7.950
88531SOL    HW267426  10.508   4.903   7.931
88532SOL     OW67427   9.183   1.904   0.432
88532SOL    HW167428   9.158   1.875   0.520
88532SOL    HW267429   9.232   1.831   0.395
88533SOL     OW67430   3.262   5.759   5.002
88533SOL    HW167431   3.226   5.807   4.928
88533SOL    HW267432   3.345   5.803   5.022
88534SOL     OW67433   5.010   5.477  11.197
88534SOL    HW167434   4.988   5.506  11.108
88534SOL    HW267435   4.960   5.535  11.254
88535SOL     OW67436   6.778  13.616   6.328
88535SOL    HW167437   6.735  13.542   6.285
88535SOL    HW267438   6.818  13.665   6.256
88536SOL     OW67439   9.545   5.820   1.246
88536SOL    HW167440   9.596   5.900   1.258
88536SOL    HW267441   9.608   5.749   1.258
88537SOL     OW67442   6.737  10.425   3.638
88537SOL    HW167443   6.733  10.396   3.547
88537SOL    HW267444   6.670  10.373   3.682
88538SOL     OW67445   0.441   4.630  13.640
88538SOL    HW167446   0.491   4.551  13.661
88538SOL    HW267447   0.507   4.695  13.617
88539SOL     OW67448   2.535   8.437   9.047
88539SOL    HW167449   2.611   8.494   9.057
88539SOL    HW267450   2.536   8.382   9.126
88540SOL     OW67451   8.629   0.353  14.663
88540SOL    HW167452   8.720   0.323  14.661
88540SOL    HW267453   8.590   0.308  14.737
88541SOL     OW67454   5.038  11.876  10.070
88541SOL    HW167455   4.945  11.864  10.087
88541SOL    HW267456   5.044  11.891   9.976
88542SOL     OW67457   7.752   0.395  11.981
88542SOL    HW167458   7.724   0.325  11.922
88542SOL    HW267459   7.744   0.356  12.068
88543SOL     OW67460   1.092  10.905   1.818
88543SOL    HW167461   1.152  10.935   1.886
88543SOL    HW267462   1.071  10.984   1.768
88544SOL     OW67463   3.693   6.639   3.362
88544SOL    HW167464   3.767   6.670   3.309
88544SOL    HW267465   3.616   6.667   3.313
88545SOL     OW67466  10.765  11.574   9.405
88545SOL    HW167467  10.677  11.547   9.381
88545SOL    HW267468  10.759  11.670   9.413
88546SOL     OW67469   0.557   4.409  10.837
88546SOL    HW167470   0.605   4.448  10.911
88546SOL    HW267471   0.615   4.339  10.806
88547SOL     OW67472   4.816   6.496  12.217
88547SOL    HW167473   4.821   6.425  12.282
88547SOL    HW267474   4.776   6.569  12.263
88548SOL     OW67475   1.967   4.616   7.150
88548SOL    HW167476   2.062   4.624   7.154
88548SOL    HW267477   1.949   4.531   7.189
88549SOL     OW67478  14.800   1.936   7.340
88549SOL    HW167479  14.748   1.933   7.259
88549SOL    HW267480  14.737   1.917   7.410
88550SOL     OW67481   3.528   9.945  10.097
88550SOL    HW167482   3.510   9.900  10.015
88550SOL    HW267483   3.616   9.981  10.085
88551SOL     OW67484   5.082  10.197   4.010
88551SOL    HW167485   5.071  10.233   3.922
88551SOL    HW267486   5.057  10.106   4.001
88552SOL     OW67487  12.205   9.178  10.856
88552SOL    HW167488  12.120   9.133  10.858
88552SOL    HW267489  12.198   9.238  10.781
88553SOL     OW67490  10.065   4.650   5.378
88553SOL    HW167491  10.127   4.591   5.335
88553SOL    HW267492   9.984   4.600   5.384
88554SOL     OW67493   9.068   2.571   2.624
88554SOL    HW167494   8.999   2.538   2.682
88554SOL    HW267495   9.130   2.499   2.617
88555SOL     OW67496   0.846  11.225   1.940
88555SOL    HW167497   0.913  11.212   2.008
88555SOL    HW267498   0.895  11.223   1.858
88556SOL     OW67499  10.585   0.668   5.843
88556SOL    HW167500  10.509   0.713   5.806
88556SOL    HW267501  10.657   0.692   5.785
88557SOL     OW67502   6.750   6.437  10.511
88557SOL    HW167503   6.839   6.437  10.476
88557SOL    HW267504   6.702   6.375  10.455
88558SOL     OW67505  12.955  12.604   4.369
88558SOL    HW167506  13.036  12.607   4.420
88558SOL    HW267507  12.924  12.513   4.378
88559SOL     OW67508  14.178  12.718   1.467
88559SOL    HW167509  14.185  12.681   1.380
88559SOL    HW267510  14.171  12.813   1.453
88560SOL     OW67511   4.268   2.117   9.558
88560SOL    HW167512   4.240   2.118   9.466
88560SOL    HW267513   4.191   2.088   9.606
88561SOL     OW67514   4.211   0.086   1.686
88561SOL    HW167515   4.152   0.013   1.706
88561SOL    HW267516   4.168   0.132   1.614
88562SOL     OW67517   2.397   4.792   7.866
88562SOL    HW167518   2.395   4.883   7.897
88562SOL    HW267519   2.309   4.778   7.830
88563SOL     OW67520  10.783   3.935   1.089
88563SOL    HW167521  10.795   3.881   1.167
88563SOL    HW267522  10.842   3.898   1.024
88564SOL     OW67523  13.635  11.909  14.236
88564SOL    HW167524  13.715  11.902  14.184
88564SOL    HW267525  13.649  11.987  14.290
88565SOL     OW67526  10.234   8.997   0.725
88565SOL    HW167527  10.287   9.074   0.743
88565SOL    HW267528  10.280   8.952   0.654
88566SOL     OW67529  10.113   9.403   0.842
88566SOL    HW167530  10.144   9.481   0.888
88566SOL    HW267531  10.141   9.416   0.752
88567SOL     OW67532   3.189   6.017   2.882
88567SOL    HW167533   3.276   6.055   2.877
88567SOL    HW267534   3.163   6.029   2.973
88568SOL     OW67535   7.967   9.686   9.598
88568SOL    HW167536   7.992   9.611   9.544
88568SOL    HW267537   7.970   9.760   9.538
88569SOL     OW67538   4.663  12.861   9.886
88569SOL    HW167539   4.575  12.887   9.860
88569SOL    HW267540   4.694  12.932   9.943
88570SOL     OW67541   7.573   5.479   2.749
88570SOL    HW167542   7.481   5.503   2.742
88570SOL    HW267543   7.611   5.544   2.809
88571SOL     OW67544   2.792   2.972  13.306
88571SOL    HW167545   2.705   2.944  13.334
88571SOL    HW267546   2.781   2.998  13.215
88572SOL     OW67547  14.186   8.746   2.057
88572SOL    HW167548  14.151   8.772   1.972
88572SOL    HW267549  14.208   8.653   2.047
88573SOL     OW67550  13.453   8.872   6.807
88573SOL    HW167551  13.529   8.929   6.821
88573SOL    HW267552  13.492   8.788   6.782
88574SOL     OW67553   3.068  11.452   2.382
88574SOL    HW167554   3.108  11.379   2.334
88574SOL    HW267555   3.002  11.486   2.322
88575SOL     OW67556   4.178   9.721  12.891
88575SOL    HW167557   4.196   9.635  12.854
88575SOL    HW267558   4.260   9.747  12.933
88576SOL     OW67559   8.737   0.073   7.372
88576SOL    HW167560   8.729   0.048   7.280
88576SOL    HW267561   8.831   0.087   7.385
88577SOL     OW67562  12.788   5.628   1.689
88577SOL    HW167563  12.753   5.688   1.753
88577SOL    HW267564  12.755   5.660   1.605
88578SOL     OW67565  11.723   3.676   6.161
88578SOL    HW167566  11.786   3.668   6.089
88578SOL    HW267567  11.774   3.711   6.234
88579SOL     OW67568  11.893  12.221   7.599
88579SOL    HW167569  11.952  12.239   7.673
88579SOL    HW267570  11.851  12.305   7.581
88580SOL     OW67571  11.438   6.509   2.895
88580SOL    HW167572  11.497   6.585   2.897
88580SOL    HW267573  11.353   6.544   2.869
88581SOL     OW67574   2.690   4.768   7.620
88581SOL    HW167575   2.666   4.713   7.694
88581SOL    HW267576   2.784   4.751   7.608
88582SOL     OW67577   1.375   8.956   1.285
88582SOL    HW167578   1.433   8.886   1.256
88582SOL    HW267579   1.315   8.914   1.347
88583SOL     OW67580  14.265  12.088   9.635
88583SOL    HW167581  14.247  12.168   9.585
88583SOL    HW267582  14.217  12.098   9.717
88584SOL     OW67583   1.870  12.454   6.775
88584SOL    HW167584   1.851  12.494   6.860
88584SOL    HW267585   1.855  12.360   6.789
88585SOL     OW67586   0.149  14.858  13.473
88585SOL    HW167587   0.156  14.802  13.550
88585SOL    HW267588   0.240  14.879  13.450
88586SOL     OW67589   4.185   2.592   5.816
88586SOL    HW167590   4.123   2.563   5.883
88586SOL    HW267591   4.194   2.686   5.830
88587SOL     OW67592   7.564  11.736   1.691
88587SOL    HW167593   7.628  11.705   1.754
88587SOL    HW267594   7.562  11.831   1.703
88588SOL     OW67595   8.452   9.325   5.568
88588SOL    HW167596   8.455   9.266   5.493
88588SOL    HW267597   8.364   9.361   5.568
88589SOL     OW67598   4.915   4.623   2.956
88589SOL    HW167599   4.943   4.595   2.869
88589SOL    HW267600   4.828   4.584   2.967
88590SOL     OW67601  11.644  14.759  10.404
88590SOL    HW167602  11.733  14.762  10.367
88590SOL    HW267603  11.587  14.743  10.328
88591SOL     OW67604   7.752  11.034  12.420
88591SOL    HW167605   7.822  11.089  12.455
88591SOL    HW267606   7.774  11.022  12.328
88592SOL     OW67607  10.855   9.864  10.510
88592SOL    HW167608  10.858   9.903  10.598
88592SOL    HW267609  10.936   9.893  10.468
88593SOL     OW67610  11.247  12.005   2.065
88593SOL    HW167611  11.286  12.088   2.037
88593SOL    HW267612  11.212  12.023   2.152
88594SOL     OW67613   4.167   6.201  11.203
88594SOL    HW167614   4.092   6.189  11.145
88594SOL    HW267615   4.208   6.115  11.208
88595SOL     OW67616   4.021  11.687   7.706
88595SOL    HW167617   4.056  11.738   7.633
88595SOL    HW267618   3.927  11.705   7.706
88596SOL     OW67619   6.719  13.990  11.868
88596SOL    HW167620   6.785  13.958  11.806
88596SOL    HW267621   6.636  13.959  11.832
88597SOL     OW67622   8.249   9.793  11.336
88597SOL    HW167623   8.158   9.802  11.366
88597SOL    HW267624   8.242   9.770  11.243
88598SOL     OW67625  10.875   9.195   7.931
88598SOL    HW167626  10.952   9.200   7.874
88598SOL    HW267627  10.803   9.227   7.877
88599SOL     OW67628   1.035  13.952  14.533
88599SOL    HW167629   1.022  13.860  14.557
88599SOL    HW267630   1.092  13.987  14.601
88600SOL     OW67631   5.375  11.841   5.323
88600SOL    HW167632   5.435  11.768   5.335
88600SOL    HW267633   5.352  11.869   5.411
88601SOL     OW67634   7.137   8.029   2.391
88601SOL    HW167635   7.056   7.990   2.357
88601SOL    HW267636   7.109   8.114   2.425
88602SOL     OW67637   4.883  11.824   6.997
88602SOL    HW167638   4.941  11.849   7.069
88602SOL    HW267639   4.795  11.847   7.028
88603SOL     OW67640   7.723   5.500   4.873
88603SOL    HW167641   7.664   5.428   4.896
88603SOL    HW267642   7.668   5.578   4.874
88604SOL     OW67643   0.943  14.004   2.191
88604SOL    HW167644   1.021  14.051   2.164
88604SOL    HW267645   0.937  14.018   2.286
88605SOL     OW67646   4.552  12.227   7.743
88605SOL    HW167647   4.540  12.271   7.828
88605SOL    HW267648   4.614  12.157   7.762
88606SOL     OW67649   8.795   7.879   4.002
88606SOL    HW167650   8.759   7.967   3.992
88606SOL    HW267651   8.729   7.832   4.053
88607SOL     OW67652  14.357   4.381  11.736
88607SOL    HW167653  14.365   4.310  11.672
88607SOL    HW267654  14.439   4.430  11.728
88608SOL     OW67655   3.732   1.040  14.608
88608SOL    HW167656   3.763   1.081  14.688
88608SOL    HW267657   3.770   0.952  14.610
88609SOL     OW67658   8.837   0.321  10.167
88609SOL    HW167659   8.930   0.315  10.146
88609SOL    HW267660   8.801   0.380  10.101
88610SOL     OW67661   8.579   4.611   5.936
88610SOL    HW167662   8.484   4.599   5.939
88610SOL    HW267663   8.600   4.617   5.843
88611SOL     OW67664   2.860  11.751   1.160
88611SOL    HW167665   2.884  11.811   1.231
88611SOL    HW267666   2.901  11.668   1.183
88612SOL     OW67667   4.391  14.398   7.327
88612SOL    HW167668   4.328  14.381   7.258
88612SOL    HW267669   4.373  14.330   7.393
88613SOL     OW67670   0.244   0.175  13.766
88613SOL    HW167671   0.290   0.226  13.833
88613SOL    HW267672   0.226   0.238  13.696
88614SOL     OW67673   6.062   8.263  10.278
88614SOL    HW167674   5.998   8.332  10.262
88614SOL    HW267675   6.147   8.306  10.268
88615SOL     OW67676   5.861   5.117   8.380
88615SOL    HW167677   5.864   5.170   8.300
88615SOL    HW267678   5.950   5.122   8.415
88616SOL     OW67679   3.301   0.338   5.800
88616SOL    HW167680   3.389   0.332   5.763
88616SOL    HW267681   3.313   0.385   5.883
88617SOL     OW67682  13.157   2.037   6.324
88617SOL    HW167683  13.227   1.972   6.325
88617SOL    HW267684  13.151   2.064   6.233
88618SOL     OW67685   4.829   8.563  10.351
88618SOL    HW167686   4.808   8.653  10.378
88618SOL    HW267687   4.922   8.567  10.329
88619SOL     OW67688  11.007   0.441   8.345
88619SOL    HW167689  11.067   0.513   8.361
88619SOL    HW267690  11.039   0.370   8.401
88620SOL     OW67691   8.411  12.062   9.317
88620SOL    HW167692   8.475  12.013   9.264
88620SOL    HW267693   8.393  12.141   9.266
88621SOL     OW67694   3.026   0.982   8.633
88621SOL    HW167695   3.104   1.034   8.614
88621SOL    HW267696   2.972   1.040   8.687
88622SOL     OW67697  14.441   1.784   2.591
88622SOL    HW167698  14.425   1.697   2.555
88622SOL    HW267699  14.427   1.774   2.685
88623SOL     OW67700   0.493   1.916  10.913
88623SOL    HW167701   0.526   1.826  10.911
88623SOL    HW267702   0.534   1.954  10.991
88624SOL     OW67703   6.288   9.744   8.111
88624SOL    HW167704   6.246   9.777   8.191
88624SOL    HW267705   6.223   9.686   8.072
88625SOL     OW67706   8.193   7.608  14.587
88625SOL    HW167707   8.224   7.567  14.507
88625SOL    HW267708   8.250   7.573  14.656
88626SOL     OW67709   9.258  11.390   9.530
88626SOL    HW167710   9.297  11.395   9.443
88626SOL    HW267711   9.329  11.411   9.590
88627SOL     OW67712   4.951   3.594   2.588
88627SOL    HW167713   4.944   3.526   2.521
88627SOL    HW267714   4.935   3.549   2.671
88628SOL     OW67715   5.290  13.064  14.236
88628SOL    HW167716   5.385  13.063  14.223
88628SOL    HW267717   5.274  13.143  14.288
88629SOL     OW67718  11.288   4.680   7.920
88629SOL    HW167719  11.342   4.746   7.965
88629SOL    HW267720  11.315   4.686   7.829
88630SOL     OW67721  14.205   2.962  10.206
88630SOL    HW167722  14.217   3.049  10.245
88630SOL    HW267723  14.216   2.901  10.280
88631SOL     OW67724   0.025   4.866  13.554
88631SOL    HW167725   0.119   4.855  13.567
88631SOL    HW267726   0.001   4.798  13.492
88632SOL     OW67727  13.177   8.261   0.088
88632SOL    HW167728  13.175   8.202   0.012
88632SOL    HW267729  13.270   8.277   0.104
88633SOL     OW67730  11.132   2.960   6.651
88633SOL    HW167731  11.150   3.013   6.729
88633SOL    HW267732  11.063   2.900   6.678
88634SOL     OW67733  10.305   1.961  12.951
88634SOL    HW167734  10.247   2.010  12.892
88634SOL    HW267735  10.347   1.896  12.894
88635SOL     OW67736   8.599   2.026   7.622
88635SOL    HW167737   8.519   1.994   7.582
88635SOL    HW267738   8.613   2.112   7.582
88636SOL     OW67739   7.557   1.595  13.893
88636SOL    HW167740   7.496   1.562  13.960
88636SOL    HW267741   7.635   1.541  13.903
88637SOL     OW67742  10.287   1.860   8.974
88637SOL    HW167743  10.322   1.937   9.019
88637SOL    HW267744  10.350   1.790   8.996
88638SOL     OW67745   5.295  12.098   4.319
88638SOL    HW167746   5.312  12.137   4.405
88638SOL    HW267747   5.369  12.127   4.265
88639SOL     OW67748   6.451   7.323   3.673
88639SOL    HW167749   6.545   7.338   3.665
88639SOL    HW267750   6.442   7.228   3.681
88640SOL     OW67751  12.087  14.050   5.991
88640SOL    HW167752  12.056  14.104   5.918
88640SOL    HW267753  12.150  13.990   5.951
88641SOL     OW67754  12.893   8.413   3.970
88641SOL    HW167755  12.798   8.426   3.976
88641SOL    HW267756  12.925   8.431   4.059
88642SOL     OW67757   5.528   8.317  12.486
88642SOL    HW167758   5.615   8.282  12.505
88642SOL    HW267759   5.506   8.280  12.401
88643SOL     OW67760  12.891  11.442  13.582
88643SOL    HW167761  12.973  11.488  13.599
88643SOL    HW267762  12.874  11.392  13.661
88644SOL     OW67763  14.506  12.729   0.487
88644SOL    HW167764  14.481  12.708   0.576
88644SOL    HW267765  14.506  12.645   0.441
88645SOL     OW67766  11.900   0.174   5.839
88645SOL    HW167767  11.887   0.268   5.844
88645SOL    HW267768  11.955   0.153   5.915
88646SOL     OW67769  14.249   5.737  14.360
88646SOL    HW167770  14.229   5.644  14.373
88646SOL    HW267771  14.225   5.778  14.443
88647SOL     OW67772  12.546  10.406   0.266
88647SOL    HW167773  12.557  10.313   0.286
88647SOL    HW267774  12.461  10.410   0.221
88648SOL     OW67775  10.612   2.292   6.949
88648SOL    HW167776  10.702   2.261   6.948
88648SOL    HW267777  10.591   2.303   7.042
88649SOL     OW67778  13.848   8.576  10.614
88649SOL    HW167779  13.830   8.668  10.635
88649SOL    HW267780  13.944   8.572  10.608
88650SOL     OW67781   1.892  12.047   4.706
88650SOL    HW167782   1.848  12.038   4.791
88650SOL    HW267783   1.826  12.019   4.642
88651SOL     OW67784  13.111   9.456   3.482
88651SOL    HW167785  13.155   9.399   3.545
88651SOL    HW267786  13.182   9.486   3.424
88652SOL     OW67787  11.408   4.734   9.362
88652SOL    HW167788  11.444   4.816   9.397
88652SOL    HW267789  11.480   4.697   9.310
88653SOL     OW67790   7.596   6.447   5.790
88653SOL    HW167791   7.553   6.375   5.743
88653SOL    HW267792   7.673   6.406   5.830
88654SOL     OW67793   8.581   0.039  12.706
88654SOL    HW167794   8.661  14.872  12.725
88654SOL    HW267795   8.539   0.051  12.791
88655SOL     OW67796  10.352   5.840  10.922
88655SOL    HW167797  10.445   5.840  10.944
88655SOL    HW267798  10.351   5.830  10.826
88656SOL     OW67799  14.584   9.006  14.383
88656SOL    HW167800  14.662   9.008  14.328
88656SOL    HW267801  14.524   9.068  14.342
88657SOL     OW67802   0.447  13.044  12.057
88657SOL    HW167803   0.451  13.095  12.137
88657SOL    HW267804   0.413  13.104  11.991
88658SOL     OW67805  12.576   7.509   3.415
88658SOL    HW167806  12.670   7.524   3.402
88658SOL    HW267807  12.568   7.414   3.421
88659SOL     OW67808  13.635   1.707   0.264
88659SOL    HW167809  13.551   1.681   0.227
88659SOL    HW267810  13.614   1.742   0.351
88660SOL     OW67811   7.796  10.378   8.859
88660SOL    HW167812   7.852  10.446   8.896
88660SOL    HW267813   7.732  10.359   8.928
88661SOL     OW67814   6.282   4.509   2.911
88661SOL    HW167815   6.357   4.452   2.925
88661SOL    HW267816   6.282   4.525   2.816
88662SOL     OW67817  10.610  12.616  13.060
88662SOL    HW167818  10.550  12.562  13.110
88662SOL    HW267819  10.652  12.673  13.125
88663SOL     OW67820  11.276  12.174   3.505
88663SOL    HW167821  11.237  12.261   3.505
88663SOL    HW267822  11.305  12.160   3.595
88664SOL     OW67823   2.552  14.012  12.219
88664SOL    HW167824   2.595  14.041  12.138
88664SOL    HW267825   2.471  14.063  12.222
88665SOL     OW67826   9.386   4.918   8.046
88665SOL    HW167827   9.394   4.919   8.142
88665SOL    HW267828   9.443   4.989   8.017
88666SOL     OW67829   1.208   5.707   7.324
88666SOL    HW167830   1.151   5.652   7.270
88666SOL    HW267831   1.294   5.668   7.314
88667SOL     OW67832   3.590   4.863   0.086
88667SOL    HW167833   3.657   4.795   0.079
88667SOL    HW267834   3.574   4.872   0.180
88668SOL     OW67835   5.111   1.251  12.126
88668SOL    HW167836   5.090   1.248  12.033
88668SOL    HW267837   5.168   1.328  12.135
88669SOL     OW67838   4.722   3.369   3.264
88669SOL    HW167839   4.679   3.381   3.348
88669SOL    HW267840   4.685   3.288   3.229
88670SOL     OW67841   0.150   8.255   9.360
88670SOL    HW167842   0.215   8.275   9.427
88670SOL    HW267843   0.144   8.335   9.308
88671SOL     OW67844   2.439   2.028  14.843
88671SOL    HW167845   2.449   2.006  14.751
88671SOL    HW267846   2.349   2.004  14.864
88672SOL     OW67847  14.363  13.915  12.234
88672SOL    HW167848  14.411  13.915  12.316
88672SOL    HW267849  14.272  13.901  12.259
88673SOL     OW67850  12.561   0.406   3.856
88673SOL    HW167851  12.473   0.397   3.818
88673SOL    HW267852  12.606   0.466   3.797
88674SOL     OW67853  14.099   9.719   8.152
88674SOL    HW167854  14.187   9.755   8.160
88674SOL    HW267855  14.072   9.738   8.063
88675SOL     OW67856   9.398   5.196  12.530
88675SOL    HW167857   9.489   5.175  12.511
88675SOL    HW267858   9.400   5.237  12.617
88676SOL     OW67859   9.336  10.750   4.985
88676SOL    HW167860   9.294  10.706   5.059
88676SOL    HW267861   9.341  10.842   5.010
88677SOL     OW67862   2.237  12.501  10.088
88677SOL    HW167863   2.293  12.431  10.121
88677SOL    HW267864   2.282  12.532  10.009
88678SOL     OW67865   0.294   8.028   0.422
88678SOL    HW167866   0.200   8.041   0.404
88678SOL    HW267867   0.338   8.068   0.347
88679SOL     OW67868   0.077   6.766  11.792
88679SOL    HW167869   0.022   6.838  11.762
88679SOL    HW267870   0.127   6.803  11.864
88680SOL     OW67871   3.140  11.480  10.925
88680SOL    HW167872   3.218  11.454  10.973
88680SOL    HW267873   3.102  11.397  10.895
88681SOL     OW67874   5.228  14.466   3.641
88681SOL    HW167875   5.205  14.476   3.734
88681SOL    HW267876   5.237  14.371   3.629
88682SOL     OW67877  11.972   1.661   5.608
88682SOL    HW167878  11.913   1.618   5.546
88682SOL    HW267879  11.952   1.755   5.598
88683SOL     OW67880   1.966  10.210  10.820
88683SOL    HW167881   1.986  10.301  10.796
88683SOL    HW267882   1.901  10.181  10.756
88684SOL     OW67883   0.525   3.831  11.424
88684SOL    HW167884   0.515   3.823  11.519
88684SOL    HW267885   0.603   3.886  11.413
88685SOL     OW67886   2.629   6.277   3.666
88685SOL    HW167887   2.713   6.277   3.712
88685SOL    HW267888   2.592   6.364   3.682
88686SOL     OW67889   6.007  13.383  14.168
88686SOL    HW167890   6.060  13.344  14.237
88686SOL    HW267891   6.033  13.475  14.167
88687SOL     OW67892   9.167   1.610   7.828
88687SOL    HW167893   9.227   1.637   7.759
88687SOL    HW267894   9.201   1.526   7.858
88688SOL     OW67895   8.403  10.350  14.711
88688SOL    HW167896   8.482  10.374  14.663
88688SOL    HW267897   8.359  10.434  14.728
88689SOL     OW67898   9.682   7.467  10.010
88689SOL    HW167899   9.756   7.414   9.981
88689SOL    HW267900   9.700   7.555   9.977
88690SOL     OW67901   4.666  13.917   6.777
88690SOL    HW167902   4.736  13.861   6.741
88690SOL    HW267903   4.618  13.947   6.700
88691SOL     OW67904   9.000  14.673   3.883
88691SOL    HW167905   9.041  14.610   3.942
88691SOL    HW267906   8.996  14.754   3.934
88692SOL     OW67907  10.509  13.032   4.215
88692SOL    HW167908  10.521  13.127   4.215
88692SOL    HW267909  10.571  13.000   4.151
88693SOL     OW67910   7.032   4.123   8.622
88693SOL    HW167911   7.032   4.143   8.716
88693SOL    HW267912   7.041   4.208   8.580
88694SOL     OW67913   9.968  10.657   6.209
88694SOL    HW167914   9.873  10.667   6.198
88694SOL    HW267915   9.989  10.576   6.163
88695SOL     OW67916  12.933  12.720  11.421
88695SOL    HW167917  12.995  12.785  11.454
88695SOL    HW267918  12.988  12.657  11.373
88696SOL     OW67919   2.254   7.636   0.696
88696SOL    HW167920   2.170   7.655   0.738
88696SOL    HW267921   2.241   7.551   0.655
88697SOL     OW67922   6.658  13.887   6.887
88697SOL    HW167923   6.632  13.816   6.946
88697SOL    HW267924   6.618  13.864   6.803
88698SOL     OW67925  13.605   8.394  11.706
88698SOL    HW167926  13.529   8.451  11.718
88698SOL    HW267927  13.678   8.442  11.744
88699SOL     OW67928  13.849   2.460   0.531
88699SOL    HW167929  13.890   2.411   0.603
88699SOL    HW267930  13.880   2.550   0.542
88700SOL     OW67931  12.131   4.377  11.660
88700SOL    HW167932  12.110   4.451  11.604
88700SOL    HW267933  12.064   4.311  11.640
88701SOL     OW67934   8.343   5.411   9.445
88701SOL    HW167935   8.427   5.370   9.424
88701SOL    HW267936   8.332   5.480   9.380
88702SOL     OW67937   7.200  13.544   6.227
88702SOL    HW167938   7.270  13.579   6.282
88702SOL    HW267939   7.234  13.460   6.196
88703SOL     OW67940   7.959   9.096   9.160
88703SOL    HW167941   8.003   9.011   9.151
88703SOL    HW267942   7.868   9.073   9.181
88704SOL     OW67943   2.963   5.872   6.848
88704SOL    HW167944   2.898   5.805   6.822
88704SOL    HW267945   2.991   5.844   6.935
88705SOL     OW67946  12.250   0.308  10.792
88705SOL    HW167947  12.166   0.352  10.785
88705SOL    HW267948  12.258   0.286  10.885
88706SOL     OW67949   0.965   7.857   2.267
88706SOL    HW167950   0.905   7.803   2.214
88706SOL    HW267951   1.052   7.825   2.244
88707SOL     OW67952   7.264   2.754   5.036
88707SOL    HW167953   7.259   2.736   5.130
88707SOL    HW267954   7.186   2.807   5.018
88708SOL     OW67955   3.064   8.273   9.597
88708SOL    HW167956   2.978   8.303   9.566
88708SOL    HW267957   3.053   8.261   9.691
88709SOL     OW67958   7.446   9.642   2.418
88709SOL    HW167959   7.510   9.639   2.489
88709SOL    HW267960   7.423   9.550   2.404
88710SOL     OW67961   0.664  11.791  10.713
88710SOL    HW167962   0.607  11.861  10.682
88710SOL    HW267963   0.679  11.812  10.805
88711SOL     OW67964   0.377  10.324  13.777
88711SOL    HW167965   0.349  10.233  13.765
88711SOL    HW267966   0.327  10.354  13.853
88712SOL     OW67967   7.530   4.056  12.307
88712SOL    HW167968   7.435   4.063  12.312
88712SOL    HW267969   7.550   3.969  12.341
88713SOL     OW67970   4.738  11.527  10.953
88713SOL    HW167971   4.800  11.461  10.984
88713SOL    HW267972   4.663  11.518  11.011
88714SOL     OW67973  14.232   6.767   1.883
88714SOL    HW167974  14.181   6.736   1.958
88714SOL    HW267975  14.305   6.816   1.922
88715SOL     OW67976   8.467  13.041   6.036
88715SOL    HW167977   8.388  13.090   6.012
88715SOL    HW267978   8.512  13.097   6.099
88716SOL     OW67979   5.615  13.891   6.221
88716SOL    HW167980   5.623  13.869   6.314
88716SOL    HW267981   5.705  13.897   6.189
88717SOL     OW67982  14.557   8.111  11.309
88717SOL    HW167983  14.564   8.168  11.386
88717SOL    HW267984  14.531   8.169  11.238
88718SOL     OW67985   6.354   3.158   8.667
88718SOL    HW167986   6.311   3.076   8.693
88718SOL    HW267987   6.326   3.222   8.733
88719SOL     OW67988   3.801   8.532   9.928
88719SOL    HW167989   3.769   8.447   9.958
88719SOL    HW267990   3.725   8.589   9.929
88720SOL     OW67991  14.659  14.630  14.793
88720SOL    HW167992  14.735  14.630  14.736
88720SOL    HW267993  14.682  14.689  14.865
88721SOL     OW67994   6.530  13.330   4.999
88721SOL    HW167995   6.512  13.302   4.910
88721SOL    HW267996   6.485  13.415   5.007
88722SOL     OW67997  14.717   3.680  11.006
88722SOL    HW167998  14.787   3.742  10.985
88722SOL    HW267999  14.661   3.679  10.929
88723SOL     OW68000  12.719   3.946   7.148
88723SOL    HW168001  12.717   4.042   7.143
88723SOL    HW268002  12.710   3.927   7.241
88724SOL     OW68003   7.671  13.409   7.729
88724SOL    HW168004   7.672  13.480   7.664
88724SOL    HW268005   7.684  13.453   7.813
88725SOL     OW68006   8.475  10.440   7.738
88725SOL    HW168007   8.562  10.472   7.761
88725SOL    HW268008   8.425  10.519   7.719
88726SOL     OW68009   8.982  12.833  12.262
88726SOL    HW168010   9.032  12.872  12.334
88726SOL    HW268011   9.001  12.739  12.269
88727SOL     OW68012   8.465   3.336  11.392
88727SOL    HW168013   8.503   3.309  11.309
88727SOL    HW268014   8.376   3.362  11.371
88728SOL     OW68015   9.342   3.698   3.224
88728SOL    HW168016   9.297   3.768   3.271
88728SOL    HW268017   9.434   3.724   3.224
88729SOL     OW68018   6.370   0.309   7.992
88729SOL    HW168019   6.404   0.367   7.924
88729SOL    HW268020   6.277   0.299   7.970
88730SOL     OW68021  13.219  10.248  10.317
88730SOL    HW168022  13.276  10.225  10.390
88730SOL    HW268023  13.259  10.326  10.279
88731SOL     OW68024   5.156   0.913  11.553
88731SOL    HW168025   5.104   0.838  11.582
88731SOL    HW268026   5.095   0.986  11.553
88732SOL     OW68027   5.592   7.961  13.648
88732SOL    HW168028   5.534   7.943  13.574
88732SOL    HW268029   5.603   8.056  13.647
88733SOL     OW68030  14.149   8.118  14.848
88733SOL    HW168031  14.056   8.099  14.860
88733SOL    HW268032  14.186   8.112   0.054
88734SOL     OW68033   6.326   2.471  11.890
88734SOL    HW168034   6.295   2.530  11.959
88734SOL    HW268035   6.401   2.426  11.929
88735SOL     OW68036  11.280  13.513   0.879
88735SOL    HW168037  11.294  13.524   0.973
88735SOL    HW268038  11.323  13.588   0.839
88736SOL     OW68039   3.008   0.113  13.087
88736SOL    HW168040   3.007   0.094  12.993
88736SOL    HW268041   3.016   0.027  13.129
88737SOL     OW68042  13.291   9.985   8.352
88737SOL    HW168043  13.304  10.080   8.352
88737SOL    HW268044  13.333   9.955   8.432
88738SOL     OW68045  13.048   4.680   7.150
88738SOL    HW168046  12.955   4.690   7.171
88738SOL    HW268047  13.058   4.719   7.064
88739SOL     OW68048  11.135   7.758  10.994
88739SOL    HW168049  11.178   7.694  11.051
88739SOL    HW268050  11.052   7.777  11.038
88740SOL     OW68051  12.303  13.031   6.527
88740SOL    HW168052  12.381  13.083   6.507
88740SOL    HW268053  12.336  12.958   6.581
88741SOL     OW68054   7.277   7.144  13.361
88741SOL    HW168055   7.298   7.113  13.273
88741SOL    HW268056   7.359   7.134  13.409
88742SOL     OW68057   6.178   9.682   0.258
88742SOL    HW168058   6.219   9.768   0.249
88742SOL    HW268059   6.084   9.699   0.248
88743SOL     OW68060   8.382  13.888   6.774
88743SOL    HW168061   8.415  13.937   6.698
88743SOL    HW268062   8.448  13.902   6.842
88744SOL     OW68063   0.194   1.345   0.638
88744SOL    HW168064   0.159   1.430   0.613
88744SOL    HW268065   0.218   1.356   0.731
88745SOL     OW68066  13.776   7.666   5.818
88745SOL    HW168067  13.805   7.726   5.750
88745SOL    HW268068  13.718   7.719   5.873
88746SOL     OW68069   8.793   4.038   8.256
88746SOL    HW168070   8.733   3.973   8.293
88746SOL    HW268071   8.829   4.084   8.332
88747SOL     OW68072   3.216   1.147  13.802
88747SOL    HW168073   3.256   1.129  13.888
88747SOL    HW268074   3.126   1.115  13.810
88748SOL     OW68075   2.056  11.774   3.753
88748SOL    HW168076   2.113  11.770   3.676
88748SOL    HW268077   2.026  11.684   3.766
88749SOL     OW68078   8.787  12.244   3.809
88749SOL    HW168079   8.844  12.176   3.846
88749SOL    HW268080   8.846  12.317   3.791
88750SOL     OW68081   2.169   6.473  11.918
88750SOL    HW168082   2.140   6.405  11.978
88750SOL    HW268083   2.098   6.537  11.918
88751SOL     OW68084  11.286   6.938   2.195
88751SOL    HW168085  11.234   6.973   2.123
88751SOL    HW268086  11.354   7.005   2.210
88752SOL     OW68087   7.727   5.063  11.986
88752SOL    HW168088   7.798   5.007  12.017
88752SOL    HW268089   7.711   5.124  12.058
88753SOL     OW68090   9.296  13.785   8.060
88753SOL    HW168091   9.303  13.759   8.152
88753SOL    HW268092   9.323  13.707   8.011
88754SOL     OW68093   2.097   6.835   7.729
88754SOL    HW168094   2.128   6.812   7.816
88754SOL    HW268095   2.168   6.809   7.671
88755SOL     OW68096   5.510   0.238   7.136
88755SOL    HW168097   5.446   0.240   7.207
88755SOL    HW268098   5.457   0.241   7.056
88756SOL     OW68099   9.071  11.275   4.340
88756SOL    HW168100   9.127  11.341   4.381
88756SOL    HW268101   9.073  11.201   4.401
88757SOL     OW68102   6.615   1.646   4.477
88757SOL    HW168103   6.676   1.639   4.403
88757SOL    HW268104   6.559   1.569   4.468
88758SOL     OW68105   7.283   5.178   5.044
88758SOL    HW168106   7.301   5.122   4.968
88758SOL    HW268107   7.334   5.139   5.115
88759SOL     OW68108  11.071  13.146   4.413
88759SOL    HW168109  11.045  13.100   4.492
88759SOL    HW268110  10.997  13.134   4.353
88760SOL     OW68111  14.489   2.150   7.343
88760SOL    HW168112  14.442   2.221   7.386
88760SOL    HW268113  14.579   2.182   7.333
88761SOL     OW68114   0.037   2.193  12.000
88761SOL    HW168115  14.872   2.136  12.060
88761SOL    HW268116   0.115   2.144  11.976
88762SOL     OW68117   3.474   1.849   8.612
88762SOL    HW168118   3.476   1.936   8.651
88762SOL    HW268119   3.554   1.844   8.559
88763SOL     OW68120   0.375   9.200   7.093
88763SOL    HW168121   0.452   9.144   7.101
88763SOL    HW268122   0.315   9.152   7.036
88764SOL     OW68123   8.108   3.153   6.964
88764SOL    HW168124   8.191   3.188   6.931
88764SOL    HW268125   8.077   3.095   6.895
88765SOL     OW68126  12.016   4.327   6.839
88765SOL    HW168127  12.094   4.354   6.792
88765SOL    HW268128  11.979   4.256   6.787
88766SOL     OW68129   1.560   7.929  11.807
88766SOL    HW168130   1.564   8.021  11.830
88766SOL    HW268131   1.566   7.883  11.890
88767SOL     OW68132   5.785  12.996   1.422
88767SOL    HW168133   5.714  13.040   1.468
88767SOL    HW268134   5.826  13.066   1.370
88768SOL     OW68135  12.434   0.733  11.332
88768SOL    HW168136  12.508   0.782  11.366
88768SOL    HW268137  12.473   0.661  11.283
88769SOL     OW68138  11.290  14.678  11.169
88769SOL    HW168139  11.264  14.755  11.219
88769SOL    HW268140  11.386  14.679  11.172
88770SOL     OW68141   6.740   1.867  10.439
88770SOL    HW168142   6.833   1.886  10.442
88770SOL    HW268143   6.734   1.783  10.393
88771SOL     OW68144   8.021   2.014  12.311
88771SOL    HW168145   7.970   1.949  12.358
88771SOL    HW268146   8.111   2.003  12.343
88772SOL     OW68147   3.636   3.829  11.698
88772SOL    HW168148   3.666   3.895  11.761
88772SOL    HW268149   3.640   3.873  11.613
88773SOL     OW68150   5.371   5.507   9.385
88773SOL    HW168151   5.388   5.518   9.479
88773SOL    HW268152   5.418   5.579   9.344
88774SOL     OW68153   0.340  10.334   0.023
88774SOL    HW168154   0.285  10.364   0.096
88774SOL    HW268155   0.304  10.379  14.828
88775SOL     OW68156   1.611  12.017   0.212
88775SOL    HW168157   1.648  12.089   0.263
88775SOL    HW268158   1.517  12.021   0.231
88776SOL     OW68159  13.268  10.700  13.245
88776SOL    HW168160  13.268  10.683  13.339
88776SOL    HW268161  13.227  10.786  13.236
88777SOL     OW68162   0.380   8.631   6.255
88777SOL    HW168163   0.367   8.717   6.214
88777SOL    HW268164   0.448   8.589   6.202
88778SOL     OW68165   8.818   4.646   7.376
88778SOL    HW168166   8.898   4.640   7.325
88778SOL    HW268167   8.847   4.677   7.462
88779SOL     OW68168   5.894   2.283  11.901
88779SOL    HW168169   5.867   2.357  11.955
88779SOL    HW268170   5.942   2.226  11.962
88780SOL     OW68171   4.577  12.232   3.204
88780SOL    HW168172   4.514  12.177   3.249
88780SOL    HW268173   4.527  12.274   3.134
88781SOL     OW68174   5.716  14.315   7.711
88781SOL    HW168175   5.661  14.313   7.633
88781SOL    HW268176   5.674  14.254   7.772
88782SOL     OW68177  13.673   4.522   1.664
88782SOL    HW168178  13.631   4.597   1.706
88782SOL    HW268179  13.610   4.451   1.673
88783SOL     OW68180   4.842   9.618  12.707
88783SOL    HW168181   4.880   9.611  12.795
88783SOL    HW268182   4.830   9.528  12.678
88784SOL     OW68183   5.043   6.049   9.545
88784SOL    HW168184   5.064   6.142   9.556
88784SOL    HW268185   4.948   6.048   9.531
88785SOL     OW68186  11.716   6.705   1.016
88785SOL    HW168187  11.639   6.729   0.963
88785SOL    HW268188  11.779   6.775   0.999
88786SOL     OW68189  13.569   1.539   2.677
88786SOL    HW168190  13.499   1.582   2.725
88786SOL    HW268191  13.533   1.452   2.656
88787SOL     OW68192  11.657   9.132  13.426
88787SOL    HW168193  11.713   9.198  13.385
88787SOL    HW268194  11.569   9.168  13.420
88788SOL     OW68195  12.522  12.217   3.521
88788SOL    HW168196  12.546  12.310   3.531
88788SOL    HW268197  12.481  12.194   3.604
88789SOL     OW68198   5.051  10.966   9.019
88789SOL    HW168199   5.041  10.899   9.087
88789SOL    HW268200   5.032  10.919   8.937
88790SOL     OW68201   3.031  14.356   6.012
88790SOL    HW168202   3.027  14.261   6.021
88790SOL    HW268203   2.940  14.382   5.994
88791SOL     OW68204   7.415   4.443   9.805
88791SOL    HW168205   7.495   4.419   9.758
88791SOL    HW268206   7.444   4.511   9.866
88792SOL     OW68207  11.085  13.101   2.769
88792SOL    HW168208  11.091  13.126   2.677
88792SOL    HW268209  10.995  13.071   2.781
88793SOL     OW68210   5.519   8.596   5.658
88793SOL    HW168211   5.597   8.576   5.607
88793SOL    HW268212   5.484   8.510   5.684
88794SOL     OW68213   1.799  12.663   4.515
88794SOL    HW168214   1.813  12.702   4.429
88794SOL    HW268215   1.706  12.677   4.533
88795SOL     OW68216   9.434  10.195   7.771
88795SOL    HW168217   9.461  10.279   7.735
88795SOL    HW268218   9.514  10.158   7.808
88796SOL     OW68219   8.682  14.225   5.042
88796SOL    HW168220   8.735  14.158   5.086
88796SOL    HW268221   8.677  14.297   5.105
88797SOL     OW68222   0.050  14.760   9.614
88797SOL    HW168223   0.136  14.761   9.656
88797SOL    HW268224  14.875  14.713   9.676
88798SOL     OW68225  14.520   2.893  14.128
88798SOL    HW168226  14.473   2.820  14.168
88798SOL    HW268227  14.586   2.917  14.193
88799SOL     OW68228   8.970  10.084   3.598
88799SOL    HW168229   9.044  10.144   3.594
88799SOL    HW268230   8.895  10.137   3.572
88800SOL     OW68231  13.277   2.703   3.088
88800SOL    HW168232  13.311   2.698   2.999
88800SOL    HW268233  13.273   2.613   3.118
88801SOL     OW68234   9.764   8.647   6.882
88801SOL    HW168235   9.713   8.611   6.955
88801SOL    HW268236   9.844   8.679   6.922
88802SOL     OW68237   2.734  11.294   6.752
88802SOL    HW168238   2.762  11.239   6.679
88802SOL    HW268239   2.707  11.232   6.820
88803SOL     OW68240   8.779   7.031   2.294
88803SOL    HW168241   8.753   7.095   2.227
88803SOL    HW268242   8.698   6.986   2.317
88804SOL     OW68243   0.948   9.717   2.596
88804SOL    HW168244   1.041   9.722   2.615
88804SOL    HW268245   0.908   9.787   2.648
88805SOL     OW68246   8.536   0.253  10.304
88805SOL    HW168247   8.603   0.186  10.314
88805SOL    HW268248   8.460   0.205  10.271
88806SOL     OW68249  12.539   0.181   1.296
88806SOL    HW168250  12.513   0.192   1.205
88806SOL    HW268251  12.457   0.163   1.343
88807SOL     OW68252  10.872  12.985  12.002
88807SOL    HW168253  10.951  13.006  12.052
88807SOL    HW268254  10.904  12.938  11.925
88808SOL     OW68255  11.446   1.772   3.925
88808SOL    HW168256  11.416   1.858   3.955
88808SOL    HW268257  11.401   1.759   3.842
88809SOL     OW68258   4.245  10.934   0.199
88809SOL    HW168259   4.324  10.952   0.148
88809SOL    HW268260   4.246  10.999   0.268
88810SOL     OW68261  14.634   9.905   2.926
88810SOL    HW168262  14.724   9.937   2.931
88810SOL    HW268263  14.643   9.811   2.911
88811SOL     OW68264   3.304   4.796   3.450
88811SOL    HW168265   3.325   4.772   3.360
88811SOL    HW268266   3.363   4.870   3.469
88812SOL     OW68267  12.739   7.219   7.424
88812SOL    HW168268  12.770   7.293   7.372
88812SOL    HW268269  12.710   7.258   7.507
88813SOL     OW68270   0.660  14.254  14.741
88813SOL    HW168271   0.715  14.184  14.706
88813SOL    HW268272   0.605  14.210  14.807
88814SOL     OW68273   8.243   7.156   6.351
88814SOL    HW168274   8.180   7.112   6.294
88814SOL    HW268275   8.229   7.117   6.437
88815SOL     OW68276   4.665   2.965   8.560
88815SOL    HW168277   4.647   3.059   8.570
88815SOL    HW268278   4.674   2.953   8.465
88816SOL     OW68279  13.038  12.656   4.063
88816SOL    HW168280  12.949  12.689   4.070
88816SOL    HW268281  13.075  12.667   4.151
88817SOL     OW68282  13.776  13.810  12.837
88817SOL    HW168283  13.733  13.728  12.863
88817SOL    HW268284  13.708  13.859  12.791
88818SOL     OW68285   5.745   6.359   8.304
88818SOL    HW168286   5.695   6.353   8.222
88818SOL    HW268287   5.754   6.268   8.333
88819SOL     OW68288   9.526  10.821  12.923
88819SOL    HW168289   9.437  10.848  12.900
88819SOL    HW268290   9.516  10.773  13.005
88820SOL     OW68291   5.774   2.561   9.955
88820SOL    HW168292   5.824   2.635   9.921
88820SOL    HW268293   5.837   2.512  10.008
88821SOL     OW68294   3.207   5.946   1.095
88821SOL    HW168295   3.227   6.032   1.059
88821SOL    HW268296   3.292   5.908   1.117
88822SOL     OW68297  12.904   9.985  12.214
88822SOL    HW168298  12.918   9.927  12.289
88822SOL    HW268299  12.849  10.056  12.249
88823SOL     OW68300   2.999   4.310  10.324
88823SOL    HW168301   3.061   4.361  10.272
88823SOL    HW268302   2.939   4.273  10.260
88824SOL     OW68303   5.362   2.910   1.706
88824SOL    HW168304   5.368   2.934   1.799
88824SOL    HW268305   5.454   2.901   1.679
88825SOL     OW68306  12.186   2.683   3.157
88825SOL    HW168307  12.216   2.604   3.112
88825SOL    HW268308  12.125   2.651   3.224
88826SOL     OW68309   9.422   6.673   6.816
88826SOL    HW168310   9.402   6.607   6.882
88826SOL    HW268311   9.430   6.755   6.865
88827SOL     OW68312   7.695  14.470   1.994
88827SOL    HW168313   7.649  14.506   2.070
88827SOL    HW268314   7.764  14.415   2.031
88828SOL     OW68315   8.357   6.819   7.914
88828SOL    HW168316   8.373   6.733   7.877
88828SOL    HW268317   8.376   6.880   7.843
88829SOL     OW68318   7.709   4.903   0.423
88829SOL    HW168319   7.678   4.885   0.512
88829SOL    HW268320   7.651   4.973   0.392
88830SOL     OW68321  13.852   5.170  13.898
88830SOL    HW168322  13.932   5.117  13.896
88830SOL    HW268323  13.883   5.259  13.916
88831SOL     OW68324  14.482   3.513  10.850
88831SOL    HW168325  14.404   3.549  10.807
88831SOL    HW268326  14.453   3.494  10.940
88832SOL     OW68327  12.216  13.107  10.462
88832SOL    HW168328  12.200  13.183  10.406
88832SOL    HW268329  12.175  13.130  10.545
88833SOL     OW68330   0.240  11.314   2.881
88833SOL    HW168331   0.246  11.286   2.790
88833SOL    HW268332   0.163  11.371   2.884
88834SOL     OW68333   6.819  10.532   8.257
88834SOL    HW168334   6.868  10.453   8.280
88834SOL    HW268335   6.865  10.603   8.302
88835SOL     OW68336   6.836   0.281  12.072
88835SOL    HW168337   6.803   0.209  12.125
88835SOL    HW268338   6.790   0.358  12.105
88836SOL     OW68339   5.152   2.515  13.631
88836SOL    HW168340   5.167   2.549  13.719
88836SOL    HW268341   5.080   2.454  13.640
88837SOL     OW68342  10.989   9.605  10.759
88837SOL    HW168343  10.967   9.681  10.706
88837SOL    HW268344  10.957   9.626  10.846
88838SOL     OW68345   9.365   9.976   0.223
88838SOL    HW168346   9.301   9.906   0.238
88838SOL    HW268347   9.316  10.057   0.237
88839SOL     OW68348   7.370   1.159   5.318
88839SOL    HW168349   7.428   1.214   5.266
88839SOL    HW268350   7.388   1.069   5.288
88840SOL     OW68351   8.546   2.162  10.622
88840SOL    HW168352   8.547   2.067  10.619
88840SOL    HW268353   8.511   2.183  10.709
88841SOL     OW68354  10.536  13.225   5.141
88841SOL    HW168355  10.591  13.302   5.158
88841SOL    HW268356  10.478  13.252   5.071
88842SOL     OW68357   1.244   3.877   3.349
88842SOL    HW168358   1.301   3.857   3.275
88842SOL    HW268359   1.189   3.949   3.317
88843SOL     OW68360   2.969   2.840   0.995
88843SOL    HW168361   2.925   2.923   0.974
88843SOL    HW268362   3.062   2.859   0.986
88844SOL     OW68363  12.063   1.658   2.732
88844SOL    HW168364  12.075   1.734   2.789
88844SOL    HW268365  11.992   1.683   2.673
88845SOL     OW68366   1.082   0.561   9.740
88845SOL    HW168367   1.041   0.612   9.670
88845SOL    HW268368   1.011   0.506   9.773
88846SOL     OW68369   7.825  10.732   3.242
88846SOL    HW168370   7.877  10.696   3.170
88846SOL    HW268371   7.847  10.825   3.244
88847SOL     OW68372   5.074   9.681   8.619
88847SOL    HW168373   5.098   9.610   8.678
88847SOL    HW268374   5.155   9.729   8.604
88848SOL     OW68375   3.735  11.021   7.350
88848SOL    HW168376   3.673  11.021   7.423
88848SOL    HW268377   3.807  11.077   7.379
88849SOL     OW68378   3.797  13.972  13.886
88849SOL    HW168379   3.745  13.962  13.807
88849SOL    HW268380   3.828  14.062  13.883
88850SOL     OW68381  13.373   3.691   5.577
88850SOL    HW168382  13.379   3.784   5.599
88850SOL    HW268383  13.462   3.666   5.554
88851SOL     OW68384  13.859   3.723   5.544
88851SOL    HW168385  13.950   3.738   5.568
88851SOL    HW268386  13.852   3.760   5.455
88852SOL     OW68387   8.099   7.735  12.153
88852SOL    HW168388   8.039   7.779  12.213
88852SOL    HW268389   8.162   7.803  12.129
88853SOL     OW68390   3.188   0.421   5.537
88853SOL    HW168391   3.237   0.338   5.540
88853SOL    HW268392   3.165   0.439   5.628
88854SOL     OW68393  13.964   1.205  11.401
88854SOL    HW168394  13.873   1.178  11.414
88854SOL    HW268395  13.973   1.283  11.457
88855SOL     OW68396   7.706   6.432   2.033
88855SOL    HW168397   7.780   6.373   2.019
88855SOL    HW268398   7.692   6.431   2.127
88856SOL     OW68399  14.437  11.484   4.455
88856SOL    HW168400  14.355  11.505   4.500
88856SOL    HW268401  14.453  11.392   4.476
88857SOL     OW68402   2.311  12.452   3.625
88857SOL    HW168403   2.405  12.470   3.625
88857SOL    HW268404   2.273  12.522   3.678
88858SOL     OW68405  10.724   1.050  13.757
88858SOL    HW168406  10.785   1.072  13.687
88858SOL    HW268407  10.724   1.127  13.814
88859SOL     OW68408   5.077   9.737  12.559
88859SOL    HW168409   5.034   9.652  12.565
88859SOL    HW268410   5.008   9.796  12.528
88860SOL     OW68411   6.018   2.952  13.755
88860SOL    HW168412   5.982   2.956  13.666
88860SOL    HW268413   5.951   2.906  13.806
88861SOL     OW68414   4.876   9.408   4.581
88861SOL    HW168415   4.971   9.398   4.581
88861SOL    HW268416   4.860   9.497   4.550
88862SOL     OW68417   9.085  12.955   7.369
88862SOL    HW168418   9.154  12.888   7.375
88862SOL    HW268419   9.124  13.034   7.406
88863SOL     OW68420   1.037  13.497   6.287
88863SOL    HW168421   1.035  13.592   6.281
88863SOL    HW268422   0.948  13.473   6.314
88864SOL     OW68423   2.438   4.252   9.118
88864SOL    HW168424   2.402   4.202   9.190
88864SOL    HW268425   2.389   4.335   9.119
88865SOL     OW68426   9.634   7.891   0.805
88865SOL    HW168427   9.623   7.853   0.717
88865SOL    HW268428   9.660   7.981   0.789
88866SOL     OW68429   2.846   3.088   0.938
88866SOL    HW168430   2.765   3.122   0.974
88866SOL    HW268431   2.869   3.150   0.868
88867SOL     OW68432  10.537   1.521  13.744
88867SOL    HW168433  10.444   1.513  13.721
88867SOL    HW268434  10.558   1.437  13.785
88868SOL     OW68435   6.258   3.133  10.019
88868SOL    HW168436   6.194   3.179  10.074
88868SOL    HW268437   6.212   3.120   9.936
88869SOL     OW68438   1.077  12.546  13.573
88869SOL    HW168439   1.118  12.623  13.612
88869SOL    HW268440   1.132  12.525  13.497
88870SOL     OW68441  12.647   7.144  14.261
88870SOL    HW168442  12.713   7.137  14.192
88870SOL    HW268443  12.684   7.097  14.335
88871SOL     OW68444  12.483   3.135  13.631
88871SOL    HW168445  12.564   3.165  13.672
88871SOL    HW268446  12.505   3.121  13.539
88872SOL     OW68447   6.419   3.367  13.798
88872SOL    HW168448   6.383   3.329  13.718
88872SOL    HW268449   6.488   3.426  13.768
88873SOL     OW68450  10.565   2.691   5.903
88873SOL    HW168451  10.530   2.721   5.987
88873SOL    HW268452  10.570   2.596   5.912
88874SOL     OW68453  10.463   5.216  12.114
88874SOL    HW168454  10.547   5.261  12.104
88874SOL    HW268455  10.402   5.286  12.137
88875SOL     OW68456  13.700  14.833  10.782
88875SOL    HW168457  13.709   0.040  10.816
88875SOL    HW268458  13.705  14.843  10.687
88876SOL     OW68459   2.847   1.981   5.945
88876SOL    HW168460   2.878   2.058   5.992
88876SOL    HW268461   2.917   1.960   5.884
88877SOL     OW68462   2.560   6.965   6.529
88877SOL    HW168463   2.586   7.048   6.570
88877SOL    HW268464   2.614   6.961   6.450
88878SOL     OW68465   1.628   6.952  11.574
88878SOL    HW168466   1.549   6.899  11.562
88878SOL    HW268467   1.696   6.889  11.596
88879SOL     OW68468   1.897   4.229   3.140
88879SOL    HW168469   1.971   4.250   3.196
88879SOL    HW268470   1.936   4.216   3.053
88880SOL     OW68471   7.716   6.291   8.064
88880SOL    HW168472   7.643   6.232   8.084
88880SOL    HW268473   7.683   6.346   7.993
88881SOL     OW68474   0.260   8.026   6.379
88881SOL    HW168475   0.297   7.948   6.338
88881SOL    HW268476   0.193   8.057   6.318
88882SOL     OW68477   0.776   7.401   1.646
88882SOL    HW168478   0.769   7.377   1.553
88882SOL    HW268479   0.854   7.457   1.649
88883SOL     OW68480   9.659   9.378  12.673
88883SOL    HW168481   9.578   9.408  12.632
88883SOL    HW268482   9.729   9.414  12.618
88884SOL     OW68483  13.947   6.968   8.786
88884SOL    HW168484  13.991   6.992   8.868
88884SOL    HW268485  13.996   6.892   8.755
88885SOL     OW68486   1.060   8.571   8.419
88885SOL    HW168487   1.136   8.620   8.388
88885SOL    HW268488   1.098   8.495   8.463
88886SOL     OW68489   4.061   7.202   5.955
88886SOL    HW168490   4.133   7.213   6.016
88886SOL    HW268491   4.053   7.286   5.911
88887SOL     OW68492  10.292  11.221  10.099
88887SOL    HW168493  10.370  11.190  10.145
88887SOL    HW268494  10.270  11.150  10.038
88888SOL     OW68495   3.378   4.961   2.040
88888SOL    HW168496   3.345   4.929   1.956
88888SOL    HW268497   3.330   5.043   2.054
88889SOL     OW68498  13.027   5.309  10.349
88889SOL    HW168499  12.980   5.390  10.368
88889SOL    HW268500  13.031   5.306  10.253
88890SOL     OW68501   3.849   5.915  13.418
88890SOL    HW168502   3.853   5.890  13.325
88890SOL    HW268503   3.777   5.864  13.454
88891SOL     OW68504   6.794  13.854  11.290
88891SOL    HW168505   6.774  13.908  11.213
88891SOL    HW268506   6.888  13.841  11.286
88892SOL     OW68507  12.397  12.418   2.118
88892SOL    HW168508  12.421  12.329   2.142
88892SOL    HW268509  12.426  12.472   2.192
88893SOL     OW68510  10.617   6.390  13.841
88893SOL    HW168511  10.617   6.453  13.769
88893SOL    HW268512  10.649   6.309  13.800
88894SOL     OW68513   1.924   3.978   9.540
88894SOL    HW168514   1.885   3.913   9.482
88894SOL    HW268515   1.923   4.059   9.490
88895SOL     OW68516   6.372  14.434  13.067
88895SOL    HW168517   6.425  14.504  13.029
88895SOL    HW268518   6.366  14.456  13.159
88896SOL     OW68519   6.616   1.521  14.099
88896SOL    HW168520   6.613   1.571  14.017
88896SOL    HW268521   6.602   1.585  14.168
88897SOL     OW68522  13.275   0.381   4.685
88897SOL    HW168523  13.187   0.418   4.679
88897SOL    HW268524  13.293   0.378   4.779
88898SOL     OW68525   4.015  12.869   8.805
88898SOL    HW168526   3.936  12.921   8.792
88898SOL    HW268527   4.087  12.928   8.782
88899SOL     OW68528  12.049  13.017   4.695
88899SOL    HW168529  12.063  13.076   4.621
88899SOL    HW268530  12.120  12.953   4.689
88900SOL     OW68531   1.782   6.075   8.384
88900SOL    HW168532   1.734   6.106   8.307
88900SOL    HW268533   1.722   6.089   8.457
88901SOL     OW68534  12.235   0.482  11.343
88901SOL    HW168535  12.290   0.527  11.278
88901SOL    HW268536  12.296   0.460  11.414
88902SOL     OW68537  14.745   3.229  14.618
88902SOL    HW168538  14.664   3.280  14.611
88902SOL    HW268539  14.716   3.138  14.619
88903SOL     OW68540   8.704  10.287   1.484
88903SOL    HW168541   8.761  10.211   1.491
88903SOL    HW268542   8.640  10.263   1.416
88904SOL     OW68543   8.674   2.255  12.381
88904SOL    HW168544   8.677   2.329  12.321
88904SOL    HW268545   8.722   2.185  12.336
88905SOL     OW68546  10.544   0.861  14.253
88905SOL    HW168547  10.600   0.926  14.210
88905SOL    HW268548  10.494   0.821  14.182
88906SOL     OW68549  10.150  12.215  10.947
88906SOL    HW168550  10.170  12.277  11.017
88906SOL    HW268551  10.229  12.162  10.938
88907SOL     OW68552   8.522   5.064   2.920
88907SOL    HW168553   8.492   5.092   2.834
88907SOL    HW268554   8.561   4.978   2.905
88908SOL     OW68555   5.484  13.095   0.915
88908SOL    HW168556   5.567  13.056   0.943
88908SOL    HW268557   5.507  13.184   0.890
88909SOL     OW68558   8.386   4.638   8.279
88909SOL    HW168559   8.313   4.699   8.270
88909SOL    HW268560   8.354   4.555   8.243
88910SOL     OW68561  13.890   7.562   6.900
88910SOL    HW168562  13.806   7.597   6.930
88910SOL    HW268563  13.869   7.473   6.871
88911SOL     OW68564   5.517   8.082  13.194
88911SOL    HW168565   5.503   8.022  13.267
88911SOL    HW268566   5.432   8.127  13.183
88912SOL     OW68567  11.194   6.774   0.266
88912SOL    HW168568  11.133   6.707   0.297
88912SOL    HW268569  11.176   6.781   0.172
88913SOL     OW68570  10.636  14.217   0.695
88913SOL    HW168571  10.650  14.311   0.709
88913SOL    HW268572  10.686  14.197   0.616
88914SOL     OW68573   4.985   2.468   3.062
88914SOL    HW168574   5.006   2.389   3.012
88914SOL    HW268575   4.906   2.502   3.020
88915SOL     OW68576  10.077   6.254  11.779
88915SOL    HW168577  10.060   6.162  11.801
88915SOL    HW268578  10.145   6.281  11.839
88916SOL     OW68579  14.623   5.076   2.317
88916SOL    HW168580  14.641   5.170   2.311
88916SOL    HW268581  14.656   5.051   2.403
88917SOL     OW68582  11.384   2.669   6.904
88917SOL    HW168583  11.467   2.714   6.918
88917SOL    HW268584  11.374   2.664   6.809
88918SOL     OW68585   8.451   7.885   8.155
88918SOL    HW168586   8.546   7.883   8.168
88918SOL    HW268587   8.437   7.959   8.096
88919SOL     OW68588   4.972  14.192   8.333
88919SOL    HW168589   5.051  14.162   8.378
88919SOL    HW268590   4.925  14.245   8.398
88920SOL     OW68591   4.735   6.001   1.664
88920SOL    HW168592   4.652   6.023   1.621
88920SOL    HW268593   4.724   6.033   1.754
88921SOL     OW68594   8.980   1.222  13.704
88921SOL    HW168595   9.044   1.284  13.740
88921SOL    HW268596   9.019   1.192  13.622
88922SOL     OW68597   3.246  12.653   4.593
88922SOL    HW168598   3.314  12.706   4.636
88922SOL    HW268599   3.294  12.583   4.550
88923SOL     OW68600   9.766  12.546   7.381
88923SOL    HW168601   9.692  12.604   7.401
88923SOL    HW268602   9.793  12.512   7.466
88924SOL     OW68603   3.748  13.938   3.623
88924SOL    HW168604   3.695  13.858   3.616
88924SOL    HW268605   3.814  13.929   3.554
88925SOL     OW68606   9.833  10.257  12.432
88925SOL    HW168607   9.890  10.301  12.494
88925SOL    HW268608   9.759  10.226  12.485
88926SOL     OW68609   1.610   2.482   5.379
88926SOL    HW168610   1.692   2.480   5.428
88926SOL    HW268611   1.600   2.392   5.347
88927SOL     OW68612   8.965   1.587   0.164
88927SOL    HW168613   8.871   1.581   0.146
88927SOL    HW268614   8.988   1.676   0.136
88928SOL     OW68615  10.896   6.172   2.556
88928SOL    HW168616  10.878   6.230   2.630
88928SOL    HW268617  10.903   6.230   2.480
88929SOL     OW68618   4.969   9.358   7.296
88929SOL    HW168619   4.874   9.358   7.306
88929SOL    HW268620   5.003   9.359   7.386
88930SOL     OW68621  10.303   5.095   2.608
88930SOL    HW168622  10.300   5.017   2.552
88930SOL    HW268623  10.229   5.148   2.578
88931SOL     OW68624  12.971  10.507   9.436
88931SOL    HW168625  13.009  10.577   9.383
88931SOL    HW268626  12.877  10.515   9.423
88932SOL     OW68627   2.856   6.053   6.704
88932SOL    HW168628   2.894   5.977   6.748
88932SOL    HW268629   2.868   6.035   6.611
88933SOL     OW68630  12.430   2.392   0.706
88933SOL    HW168631  12.505   2.341   0.736
88933SOL    HW268632  12.435   2.388   0.610
88934SOL     OW68633   2.562  13.011  14.750
88934SOL    HW168634   2.550  13.094  14.795
88934SOL    HW268635   2.654  12.988  14.766
88935SOL     OW68636   5.060  12.596  13.715
88935SOL    HW168637   5.129  12.602  13.780
88935SOL    HW268638   5.008  12.520  13.741
88936SOL     OW68639  11.770  10.384   3.920
88936SOL    HW168640  11.776  10.459   3.861
88936SOL    HW268641  11.860  10.352   3.929
88937SOL     OW68642   0.561  13.399  14.772
88937SOL    HW168643   0.466  13.409  14.765
88937SOL    HW268644   0.573  13.336  14.843
88938SOL     OW68645   2.112   0.971   0.136
88938SOL    HW168646   2.141   0.922   0.213
88938SOL    HW268647   2.163   0.936   0.063
88939SOL     OW68648   2.246   1.259   2.908
88939SOL    HW168649   2.324   1.208   2.931
88939SOL    HW268650   2.277   1.349   2.902
88940SOL     OW68651   5.470   5.239   0.706
88940SOL    HW168652   5.418   5.221   0.785
88940SOL    HW268653   5.560   5.221   0.732
88941SOL     OW68654   3.137   5.792  11.156
88941SOL    HW168655   3.192   5.755  11.088
88941SOL    HW268656   3.152   5.736  11.233
88942SOL     OW68657   7.381   5.554   7.198
88942SOL    HW168658   7.420   5.544   7.111
88942SOL    HW268659   7.295   5.593   7.181
88943SOL     OW68660  12.197   4.563  12.481
88943SOL    HW168661  12.273   4.593  12.531
88943SOL    HW268662  12.213   4.470  12.465
88944SOL     OW68663   4.687  11.828  10.981
88944SOL    HW168664   4.719  11.738  10.971
88944SOL    HW268665   4.610  11.821  11.036
88945SOL     OW68666   3.636  10.720   3.153
88945SOL    HW168667   3.700  10.774   3.107
88945SOL    HW268668   3.607  10.774   3.226
88946SOL     OW68669   9.619  12.060   3.599
88946SOL    HW168670   9.575  12.020   3.524
88946SOL    HW268671   9.650  12.145   3.566
88947SOL     OW68672   2.010  10.115   5.949
88947SOL    HW168673   2.090  10.147   5.909
88947SOL    HW268674   2.026  10.021   5.963
88948SOL     OW68675   0.815   8.168   3.380
88948SOL    HW168676   0.791   8.258   3.402
88948SOL    HW268677   0.775   8.153   3.294
88949SOL     OW68678  13.499   0.756   1.353
88949SOL    HW168679  13.483   0.844   1.387
88949SOL    HW268680  13.570   0.722   1.407
88950SOL     OW68681  10.477  11.392   6.895
88950SOL    HW168682  10.481  11.484   6.872
88950SOL    HW268683  10.529  11.385   6.975
88951SOL     OW68684   0.212   4.473   1.269
88951SOL    HW168685   0.211   4.566   1.247
88951SOL    HW268686   0.141   4.435   1.217
88952SOL     OW68687   2.617   9.426  13.954
88952SOL    HW168688   2.534   9.455  13.915
88952SOL    HW268689   2.679   9.496  13.931
88953SOL     OW68690   6.395   4.957   1.100
88953SOL    HW168691   6.334   5.024   1.131
88953SOL    HW268692   6.445   5.001   1.031
88954SOL     OW68693   3.514  11.439   8.490
88954SOL    HW168694   3.489  11.482   8.572
88954SOL    HW268695   3.573  11.501   8.447
88955SOL     OW68696   9.138  13.743  11.085
88955SOL    HW168697   9.098  13.784  11.008
88955SOL    HW268698   9.066  13.735  11.148
88956SOL     OW68699   8.155  13.927   3.806
88956SOL    HW168700   8.208  13.868   3.753
88956SOL    HW268701   8.068  13.923   3.766
88957SOL     OW68702  14.576  10.640   5.298
88957SOL    HW168703  14.520  10.608   5.227
88957SOL    HW268704  14.644  10.690   5.254
88958SOL     OW68705   7.886   3.479   3.514
88958SOL    HW168706   7.806   3.426   3.519
88958SOL    HW268707   7.874   3.534   3.437
88959SOL     OW68708  12.241  10.748   1.427
88959SOL    HW168709  12.229  10.825   1.482
88959SOL    HW268710  12.334  10.729   1.433
88960SOL     OW68711   6.780   1.133   3.819
88960SOL    HW168712   6.808   1.048   3.853
88960SOL    HW268713   6.852   1.193   3.841
88961SOL     OW68714   8.346   8.487   1.161
88961SOL    HW168715   8.360   8.578   1.134
88961SOL    HW268716   8.433   8.447   1.157
88962SOL     OW68717   3.378   8.250   1.527
88962SOL    HW168718   3.322   8.235   1.603
88962SOL    HW268719   3.328   8.216   1.453
88963SOL     OW68720   6.567   6.216  13.932
88963SOL    HW168721   6.590   6.214  13.839
88963SOL    HW268722   6.625   6.151  13.972
88964SOL     OW68723  10.515   6.183   7.644
88964SOL    HW168724  10.487   6.157   7.732
88964SOL    HW268725  10.536   6.276   7.652
88965SOL     OW68726  14.124  11.788   2.746
88965SOL    HW168727  14.045  11.786   2.799
88965SOL    HW268728  14.165  11.703   2.760
88966SOL     OW68729   3.516   0.166   8.869
88966SOL    HW168730   3.537   0.108   8.942
88966SOL    HW268731   3.558   0.125   8.793
88967SOL     OW68732  12.198   4.415  10.115
88967SOL    HW168733  12.184   4.353  10.186
88967SOL    HW268734  12.193   4.362  10.036
88968SOL     OW68735  13.787  12.988   6.052
88968SOL    HW168736  13.777  13.054   6.120
88968SOL    HW268737  13.723  13.012   5.985
88969SOL     OW68738   0.377   5.867   5.908
88969SOL    HW168739   0.361   5.959   5.926
88969SOL    HW268740   0.290   5.828   5.900
88970SOL     OW68741   6.790   3.686   9.926
88970SOL    HW168742   6.702   3.675   9.889
88970SOL    HW268743   6.837   3.607   9.901
88971SOL     OW68744  11.103   0.703   7.207
88971SOL    HW168745  11.150   0.627   7.174
88971SOL    HW268746  11.025   0.667   7.248
88972SOL     OW68747   6.783   4.747  11.509
88972SOL    HW168748   6.796   4.750  11.604
88972SOL    HW268749   6.851   4.805  11.474
88973SOL     OW68750   8.777  14.194   4.423
88973SOL    HW168751   8.806  14.271   4.374
88973SOL    HW268752   8.855  14.138   4.426
88974SOL     OW68753   6.692  13.810   3.586
88974SOL    HW168754   6.775  13.777   3.552
88974SOL    HW268755   6.625  13.760   3.539
88975SOL     OW68756   0.632   3.315  14.851
88975SOL    HW168757   0.636   3.363   0.051
88975SOL    HW268758   0.563   3.358  14.801
88976SOL     OW68759  10.380   8.191   5.097
88976SOL    HW168760  10.461   8.196   5.147
88976SOL    HW268761  10.375   8.276   5.052
88977SOL     OW68762  12.763   9.514  11.791
88977SOL    HW168763  12.789   9.445  11.730
88977SOL    HW268764  12.698   9.565  11.743
88978SOL     OW68765   8.866   0.378   8.833
88978SOL    HW168766   8.959   0.389   8.853
88978SOL    HW268767   8.835   0.466   8.812
88979SOL     OW68768   3.890   9.499   0.005
88979SOL    HW168769   3.941   9.579   0.009
88979SOL    HW268770   3.833   9.502   0.083
88980SOL     OW68771   6.504  10.468  14.354
88980SOL    HW168772   6.521  10.450  14.262
88980SOL    HW268773   6.469  10.558  14.354
88981SOL     OW68774   2.349   8.453   9.837
88981SOL    HW168775   2.355   8.385   9.771
88981SOL    HW268776   2.411   8.520   9.809
88982SOL     OW68777  11.861  14.708  14.804
88982SOL    HW168778  11.803  14.778  14.775
88982SOL    HW268779  11.916  14.749  14.872
88983SOL     OW68780   7.465   6.005   9.502
88983SOL    HW168781   7.557   6.010   9.528
88983SOL    HW268782   7.416   6.034   9.579
88984SOL     OW68783   7.658   8.998   9.027
88984SOL    HW168784   7.687   8.936   9.094
88984SOL    HW268785   7.563   9.003   9.038
88985SOL     OW68786  13.505   3.742   0.748
88985SOL    HW168787  13.563   3.674   0.714
88985SOL    HW268788  13.502   3.726   0.842
88986SOL     OW68789   7.159   0.318   8.666
88986SOL    HW168790   7.249   0.343   8.643
88986SOL    HW268791   7.108   0.340   8.588
88987SOL     OW68792   5.527  14.534   5.730
88987SOL    HW168793   5.466  14.483   5.783
88987SOL    HW268794   5.566  14.469   5.671
88988SOL     OW68795  13.085   5.345   6.812
88988SOL    HW168796  13.107   5.302   6.894
88988SOL    HW268797  13.120   5.434   6.821
88989SOL     OW68798  10.772   3.270   5.586
88989SOL    HW168799  10.761   3.175   5.573
88989SOL    HW268800  10.788   3.304   5.498
88990SOL     OW68801   6.551  11.851  14.210
88990SOL    HW168802   6.617  11.811  14.265
88990SOL    HW268803   6.597  11.921  14.164
88991SOL     OW68804  14.080  12.159  13.480
88991SOL    HW168805  14.122  12.213  13.413
88991SOL    HW268806  14.141  12.087  13.494
88992SOL     OW68807   9.165   3.887   9.772
88992SOL    HW168808   9.182   3.950   9.843
88992SOL    HW268809   9.114   3.937   9.708
88993SOL     OW68810   8.376   9.062   5.756
88993SOL    HW168811   8.384   9.070   5.661
88993SOL    HW268812   8.344   8.972   5.770
88994SOL     OW68813   3.139   5.636  11.378
88994SOL    HW168814   3.185   5.566  11.426
88994SOL    HW268815   3.110   5.696  11.446
88995SOL     OW68816  14.461  11.266   8.304
88995SOL    HW168817  14.368  11.284   8.306
88995SOL    HW268818  14.499  11.336   8.251
88996SOL     OW68819   5.901  13.002   0.819
88996SOL    HW168820   5.984  12.967   0.851
88996SOL    HW268821   5.889  12.963   0.733
88997SOL     OW68822   4.617   6.356   9.395
88997SOL    HW168823   4.531   6.360   9.436
88997SOL    HW268824   4.629   6.263   9.374
88998SOL     OW68825  10.793  10.337   9.326
88998SOL    HW168826  10.759  10.308   9.241
88998SOL    HW268827  10.722  10.390   9.363
88999SOL     OW68828   6.373  11.095  12.912
88999SOL    HW168829   6.372  11.062  13.002
88999SOL    HW268830   6.435  11.038  12.866
89000SOL     OW68831   0.630   0.374   0.497
89000SOL    HW168832   0.570   0.436   0.457
89000SOL    HW268833   0.596   0.288   0.471
89001SOL     OW68834   8.203   5.627  13.280
89001SOL    HW168835   8.159   5.664  13.204
89001SOL    HW268836   8.136   5.578  13.327
89002SOL     OW68837   7.815   0.695  13.509
89002SOL    HW168838   7.811   0.610  13.554
89002SOL    HW268839   7.733   0.701  13.461
89003SOL     OW68840   6.575   0.231   4.612
89003SOL    HW168841   6.502   0.175   4.588
89003SOL    HW268842   6.625   0.180   4.676
89004SOL     OW68843   2.993   4.197   5.824
89004SOL    HW168844   3.054   4.214   5.752
89004SOL    HW268845   2.961   4.108   5.808
89005SOL     OW68846   8.458  10.612   0.767
89005SOL    HW168847   8.549  10.595   0.742
89005SOL    HW268848   8.447  10.707   0.757
89006SOL     OW68849  13.087   9.119  12.260
89006SOL    HW168850  13.058   9.194  12.208
89006SOL    HW268851  13.006   9.080  12.293
89007SOL     OW68852   2.403   2.232   6.080
89007SOL    HW168853   2.327   2.261   6.029
89007SOL    HW268854   2.477   2.238   6.019
89008SOL     OW68855   0.877   3.013   8.526
89008SOL    HW168856   0.828   2.938   8.560
89008SOL    HW268857   0.855   3.085   8.584
89009SOL     OW68858   1.279  12.807   2.695
89009SOL    HW168859   1.342  12.793   2.624
89009SOL    HW268860   1.333  12.825   2.772
89010SOL     OW68861   9.877   5.917  13.147
89010SOL    HW168862   9.943   5.921  13.217
89010SOL    HW268863   9.902   5.988  13.088
89011SOL     OW68864   3.313  10.460  14.596
89011SOL    HW168865   3.328  10.381  14.543
89011SOL    HW268866   3.259  10.430  14.669
89012SOL     OW68867   5.855   7.654   0.934
89012SOL    HW168868   5.853   7.676   0.840
89012SOL    HW268869   5.806   7.571   0.939
89013SOL     OW68870   1.712   2.570   9.082
89013SOL    HW168871   1.759   2.639   9.035
89013SOL    HW268872   1.781   2.515   9.119
89014SOL     OW68873   7.623   6.192  14.302
89014SOL    HW168874   7.624   6.245  14.382
89014SOL    HW268875   7.609   6.255  14.232
89015SOL     OW68876  14.447   0.308   6.442
89015SOL    HW168877  14.393   0.383   6.467
89015SOL    HW268878  14.485   0.276   6.523
89016SOL     OW68879   9.806   4.529   5.399
89016SOL    HW168880   9.716   4.538   5.431
89016SOL    HW268881   9.800   4.458   5.334
89017SOL     OW68882   2.359   2.923   5.497
89017SOL    HW168883   2.321   2.970   5.422
89017SOL    HW268884   2.453   2.937   5.488
89018SOL     OW68885  10.399  11.600  13.226
89018SOL    HW168886  10.316  11.639  13.254
89018SOL    HW268887  10.448  11.673  13.188
89019SOL     OW68888  10.700   5.998  13.458
89019SOL    HW168889  10.751   6.076  13.478
89019SOL    HW268890  10.722   5.936  13.528
89020SOL     OW68891   6.944   7.681   8.425
89020SOL    HW168892   7.004   7.606   8.423
89020SOL    HW268893   6.862   7.646   8.459
89021SOL     OW68894   9.003  11.449   9.655
89021SOL    HW168895   9.047  11.408   9.730
89021SOL    HW268896   9.036  11.400   9.579
89022SOL     OW68897  10.944   2.801   8.981
89022SOL    HW168898  10.937   2.710   8.951
89022SOL    HW268899  10.908   2.853   8.909
89023SOL     OW68900   0.864   2.710  13.842
89023SOL    HW168901   0.860   2.697  13.747
89023SOL    HW268902   0.775   2.737  13.866
89024SOL     OW68903   3.012   6.032  10.313
89024SOL    HW168904   2.957   6.102  10.277
89024SOL    HW268905   2.980   6.021  10.403
89025SOL     OW68906   1.520   3.015   8.919
89025SOL    HW168907   1.465   2.959   8.865
89025SOL    HW268908   1.609   3.002   8.885
89026SOL     OW68909   6.087  13.874   4.681
89026SOL    HW168910   6.066  13.874   4.775
89026SOL    HW268911   6.006  13.902   4.639
89027SOL     OW68912   3.530   2.246   3.649
89027SOL    HW168913   3.434   2.245   3.656
89027SOL    HW268914   3.559   2.295   3.726
89028SOL     OW68915   0.094  14.221  13.219
89028SOL    HW168916   0.134  14.230  13.305
89028SOL    HW268917   0.156  14.169  13.168
89029SOL     OW68918   3.417  11.614   1.924
89029SOL    HW168919   3.365  11.539   1.952
89029SOL    HW268920   3.501  11.603   1.968
89030SOL     OW68921   6.694   0.725   9.309
89030SOL    HW168922   6.670   0.734   9.216
89030SOL    HW268923   6.778   0.769   9.316
89031SOL     OW68924   3.205   8.866  11.038
89031SOL    HW168925   3.288   8.890  10.996
89031SOL    HW268926   3.143   8.932  11.007
89032SOL     OW68927   4.747   8.767   8.710
89032SOL    HW168928   4.757   8.862   8.697
89032SOL    HW268929   4.836   8.733   8.707
89033SOL     OW68930  11.283   8.245  10.566
89033SOL    HW168931  11.291   8.220  10.474
89033SOL    HW268932  11.372   8.242  10.600
89034SOL     OW68933   6.862   0.532  10.866
89034SOL    HW168934   6.794   0.478  10.825
89034SOL    HW268935   6.815   0.612  10.892
89035SOL     OW68936   6.346   8.731  13.928
89035SOL    HW168937   6.291   8.674  13.982
89035SOL    HW268938   6.370   8.677  13.853
89036SOL     OW68939   0.066   1.574   8.966
89036SOL    HW168940   0.116   1.540   8.892
89036SOL    HW268941   0.091   1.518   9.040
89037SOL     OW68942   5.959  11.969   2.348
89037SOL    HW168943   5.932  12.027   2.419
89037SOL    HW268944   6.046  11.999   2.324
89038SOL     OW68945  13.658   7.011   9.863
89038SOL    HW168946  13.673   7.003   9.769
89038SOL    HW268947  13.564   7.026   9.871
89039SOL     OW68948   2.037   7.755  10.229
89039SOL    HW168949   2.115   7.700  10.230
89039SOL    HW268950   2.035   7.792  10.141
89040SOL     OW68951  14.024   4.512  13.265
89040SOL    HW168952  13.950   4.467  13.306
89040SOL    HW268953  14.053   4.453  13.197
89041SOL     OW68954   4.355   3.621   1.339
89041SOL    HW168955   4.352   3.601   1.433
89041SOL    HW268956   4.272   3.665   1.320
89042SOL     OW68957  12.723  14.302   5.431
89042SOL    HW168958  12.703  14.290   5.338
89042SOL    HW268959  12.816  14.325   5.433
89043SOL     OW68960   9.558  10.674   1.668
89043SOL    HW168961   9.513  10.740   1.720
89043SOL    HW268962   9.648  10.706   1.661
89044SOL     OW68963  10.107   9.692  11.932
89044SOL    HW168964  10.186   9.642  11.913
89044SOL    HW268965  10.060   9.639  11.996
89045SOL     OW68966   6.795   6.589  13.894
89045SOL    HW168967   6.832   6.526  13.956
89045SOL    HW268968   6.702   6.593  13.917
89046SOL     OW68969   1.864   3.954  11.345
89046SOL    HW168970   1.821   4.034  11.315
89046SOL    HW268971   1.926   3.932  11.276
89047SOL     OW68972   0.015  11.903   4.719
89047SOL    HW168973  14.824  11.928   4.661
89047SOL    HW268974   0.093  11.918   4.666
89048SOL     OW68975   4.441   7.909  10.222
89048SOL    HW168976   4.519   7.855  10.236
89048SOL    HW268977   4.415   7.890  10.132
89049SOL     OW68978   3.551   0.772  11.592
89049SOL    HW168979   3.501   0.743  11.668
89049SOL    HW268980   3.487   0.811  11.534
89050SOL     OW68981   2.948   5.541   7.139
89050SOL    HW168982   2.874   5.594   7.111
89050SOL    HW268983   3.023   5.600   7.132
89051SOL     OW68984   0.396   0.853   6.343
89051SOL    HW168985   0.335   0.779   6.343
89051SOL    HW268986   0.348   0.924   6.301
89052SOL     OW68987   7.353  14.374  13.622
89052SOL    HW168988   7.368  14.457  13.577
89052SOL    HW268989   7.259  14.359  13.615
89053SOL     OW68990   2.901   9.520   9.705
89053SOL    HW168991   2.950   9.448   9.667
89053SOL    HW268992   2.928   9.597   9.655
89054SOL     OW68993   0.223   3.729  11.910
89054SOL    HW168994   0.258   3.794  11.971
89054SOL    HW268995   0.128   3.745  11.910
89055SOL     OW68996  12.257   0.881  10.739
89055SOL    HW168997  12.258   0.789  10.710
89055SOL    HW268998  12.243   0.876  10.834
89056SOL     OW68999   6.827   3.135  14.807
89056SOL    HW169000   6.826   3.192   0.002
89056SOL    HW269001   6.920   3.117  14.791
89057SOL     OW69002   5.480   7.645   1.322
89057SOL    HW169003   5.523   7.592   1.390
89057SOL    HW269004   5.549   7.703   1.289
89058SOL     OW69005   9.629   9.667  10.370
89058SOL    HW169006   9.685   9.602  10.413
89058SOL    HW269007   9.646   9.748  10.417
89059SOL     OW69008  10.600   0.535  12.943
89059SOL    HW169009  10.588   0.454  12.993
89059SOL    HW269010  10.695   0.549  12.945
89060SOL     OW69011   7.147  13.600   2.768
89060SOL    HW169012   7.097  13.681   2.778
89060SOL    HW269013   7.162  13.591   2.674
89061SOL     OW69014  11.851   9.827  11.487
89061SOL    HW169015  11.944   9.821  11.508
89061SOL    HW269016  11.822   9.907  11.530
89062SOL     OW69017  12.632   5.437   3.647
89062SOL    HW169018  12.564   5.415   3.584
89062SOL    HW269019  12.613   5.382   3.723
89063SOL     OW69020   7.586   8.340   8.362
89063SOL    HW169021   7.593   8.436   8.364
89063SOL    HW269022   7.507   8.322   8.312
89064SOL     OW69023   2.142  13.652   1.875
89064SOL    HW169024   2.132  13.557   1.884
89064SOL    HW269025   2.236  13.667   1.877
89065SOL     OW69026   1.750  13.641   0.117
89065SOL    HW169027   1.820  13.576   0.127
89065SOL    HW269028   1.779  13.696   0.044
89066SOL     OW69029   0.937   2.037   8.923
89066SOL    HW169030   0.856   2.082   8.948
89066SOL    HW269031   0.951   1.972   8.992
89067SOL     OW69032   1.122   0.147   2.114
89067SOL    HW169033   1.066   0.088   2.063
89067SOL    HW269034   1.065   0.219   2.139
89068SOL     OW69035   1.627  11.967  11.210
89068SOL    HW169036   1.546  11.949  11.257
89068SOL    HW269037   1.693  11.976  11.278
89069SOL     OW69038   1.123  10.735   8.480
89069SOL    HW169039   1.204  10.702   8.441
89069SOL    HW269040   1.068  10.658   8.490
89070SOL     OW69041   8.501  11.359  10.750
89070SOL    HW169042   8.496  11.332  10.841
89070SOL    HW269043   8.469  11.449  10.749
89071SOL     OW69044   1.167  13.678  14.540
89071SOL    HW169045   1.204  13.756  14.498
89071SOL    HW269046   1.198  13.682  14.630
89072SOL     OW69047   0.841   4.910  14.460
89072SOL    HW169048   0.923   4.873  14.429
89072SOL    HW269049   0.863   4.951  14.544
89073SOL     OW69050   0.792   2.051   4.972
89073SOL    HW169051   0.754   2.040   4.885
89073SOL    HW269052   0.884   2.072   4.955
89074SOL     OW69053   1.246   0.189  12.555
89074SOL    HW169054   1.332   0.199  12.596
89074SOL    HW269055   1.244   0.099  12.523
89075SOL     OW69056   8.954   0.698  13.916
89075SOL    HW169057   8.971   0.732  13.828
89075SOL    HW269058   8.859   0.704  13.926
89076SOL     OW69059   6.107   8.438   9.887
89076SOL    HW169060   6.034   8.484   9.929
89076SOL    HW269061   6.088   8.345   9.899
89077SOL     OW69062  11.410   2.601   8.117
89077SOL    HW169063  11.393   2.571   8.206
89077SOL    HW269064  11.460   2.682   8.129
89078SOL     OW69065   9.073  11.832   4.904
89078SOL    HW169066   9.161  11.838   4.940
89078SOL    HW269067   9.035  11.918   4.918
89079SOL     OW69068   5.681  13.269  10.649
89079SOL    HW169069   5.715  13.305  10.730
89079SOL    HW269070   5.604  13.218  10.675
89080SOL     OW69071   8.255  10.612  10.067
89080SOL    HW169072   8.281  10.526  10.033
89080SOL    HW269073   8.335  10.665  10.063
89081SOL     OW69074   0.864   1.274   0.208
89081SOL    HW169075   0.857   1.223   0.127
89081SOL    HW269076   0.937   1.234   0.256
89082SOL     OW69077   2.493   1.806   1.806
89082SOL    HW169078   2.512   1.751   1.882
89082SOL    HW269079   2.482   1.894   1.841
89083SOL     OW69080   3.928  10.173   8.026
89083SOL    HW169081   3.872  10.144   8.097
89083SOL    HW269082   4.010  10.126   8.039
89084SOL     OW69083   6.244  10.768  13.661
89084SOL    HW169084   6.217  10.823  13.587
89084SOL    HW269085   6.248  10.679  13.624
89085SOL     OW69086  13.722  13.290  10.559
89085SOL    HW169087  13.789  13.345  10.518
89085SOL    HW269088  13.683  13.346  10.626
89086SOL     OW69089   6.020   0.731  12.920
89086SOL    HW169090   6.090   0.682  12.963
89086SOL    HW269091   6.022   0.817  12.962
89087SOL     OW69092   9.409   4.706  13.616
89087SOL    HW169093   9.409   4.802  13.608
89087SOL    HW269094   9.500   4.681  13.596
89088SOL     OW69095  10.827   2.113   2.762
89088SOL    HW169096  10.833   2.019   2.779
89088SOL    HW269097  10.747   2.123   2.711
89089SOL     OW69098  10.982   4.302   0.889
89089SOL    HW169099  10.947   4.269   0.972
89089SOL    HW269100  10.910   4.290   0.827
89090SOL     OW69101   2.466  14.279   4.821
89090SOL    HW169102   2.521  14.243   4.751
89090SOL    HW269103   2.525  14.288   4.896
89091SOL     OW69104  11.337   4.375   8.312
89091SOL    HW169105  11.318   4.281   8.321
89091SOL    HW269106  11.251   4.416   8.306
89092SOL     OW69107   7.577   0.091  10.938
89092SOL    HW169108   7.553   0.115  10.849
89092SOL    HW269109   7.517   0.020  10.961
89093SOL     OW69110   4.371   6.311   9.176
89093SOL    HW169111   4.435   6.327   9.106
89093SOL    HW269112   4.324   6.232   9.148
89094SOL     OW69113   6.513   8.333   6.767
89094SOL    HW169114   6.506   8.238   6.780
89094SOL    HW269115   6.594   8.357   6.812
89095SOL     OW69116   2.761   3.491   4.847
89095SOL    HW169117   2.799   3.493   4.759
89095SOL    HW269118   2.668   3.504   4.833
89096SOL     OW69119  13.225   2.435   8.349
89096SOL    HW169120  13.294   2.427   8.284
89096SOL    HW269121  13.200   2.345   8.370
89097SOL     OW69122   8.526   1.451   6.428
89097SOL    HW169123   8.442   1.476   6.467
89097SOL    HW269124   8.538   1.511   6.355
89098SOL     OW69125  10.306   4.785   1.402
89098SOL    HW169126  10.384   4.736   1.428
89098SOL    HW269127  10.334   4.876   1.402
89099SOL     OW69128  14.627   7.145   3.399
89099SOL    HW169129  14.714   7.109   3.380
89099SOL    HW269130  14.612   7.207   3.328
89100SOL     OW69131   5.015   8.874   7.640
89100SOL    HW169132   5.052   8.794   7.603
89100SOL    HW269133   5.025   8.940   7.570
89101SOL     OW69134   2.986   7.573  11.068
89101SOL    HW169135   3.067   7.620  11.048
89101SOL    HW269136   3.003   7.530  11.152
89102SOL     OW69137   3.244  14.116   8.691
89102SOL    HW169138   3.194  14.155   8.619
89102SOL    HW269139   3.178  14.069   8.742
89103SOL     OW69140   9.990   8.110   4.525
89103SOL    HW169141  10.066   8.063   4.491
89103SOL    HW269142   9.920   8.092   4.463
89104SOL     OW69143   4.495   1.423  13.294
89104SOL    HW169144   4.554   1.419  13.369
89104SOL    HW269145   4.428   1.486  13.319
89105SOL     OW69146   1.251   1.798  14.030
89105SOL    HW169147   1.342   1.769  14.022
89105SOL    HW269148   1.249   1.850  14.111
89106SOL     OW69149  12.786  10.986   5.173
89106SOL    HW169150  12.738  10.983   5.256
89106SOL    HW269151  12.718  10.990   5.106
89107SOL     OW69152  11.653   5.236  12.550
89107SOL    HW169153  11.730   5.293  12.557
89107SOL    HW269154  11.688   5.152  12.519
89108SOL     OW69155  13.436   3.193   5.348
89108SOL    HW169156  13.385   3.149   5.417
89108SOL    HW269157  13.492   3.125   5.312
89109SOL     OW69158   1.052   4.512   8.694
89109SOL    HW169159   1.142   4.538   8.674
89109SOL    HW269160   1.056   4.477   8.782
89110SOL     OW69161  11.306   8.609  11.712
89110SOL    HW169162  11.299   8.672  11.640
89110SOL    HW269163  11.311   8.664  11.790
89111SOL     OW69164   9.635   2.444  13.677
89111SOL    HW169165   9.704   2.435  13.612
89111SOL    HW269166   9.562   2.482  13.630
89112SOL     OW69167  13.104   9.731   4.292
89112SOL    HW169168  13.145   9.646   4.308
89112SOL    HW269169  13.163   9.775   4.232
89113SOL     OW69170  13.515   6.652  12.661
89113SOL    HW169171  13.475   6.694  12.737
89113SOL    HW269172  13.493   6.559  12.671
89114SOL     OW69173  10.187  10.512  13.008
89114SOL    HW169174  10.143  10.560  12.938
89114SOL    HW269175  10.233  10.578  13.058
89115SOL     OW69176  13.665  14.579   6.139
89115SOL    HW169177  13.631  14.531   6.063
89115SOL    HW269178  13.633  14.530   6.215
89116SOL     OW69179  13.990   1.812  11.545
89116SOL    HW169180  13.910   1.798  11.493
89116SOL    HW269181  13.976   1.760  11.625
89117SOL     OW69182   4.844  14.730  14.466
89117SOL    HW169183   4.916  14.782  14.504
89117SOL    HW269184   4.815  14.782  14.390
89118SOL     OW69185  10.139  10.168   2.979
89118SOL    HW169186  10.162  10.228   2.908
89118SOL    HW269187  10.147  10.221   3.058
89119SOL     OW69188   0.340   7.047  13.813
89119SOL    HW169189   0.351   7.039  13.718
89119SOL    HW269190   0.385   6.971  13.849
89120SOL     OW69191  11.454  10.695   6.925
89120SOL    HW169192  11.439  10.670   7.017
89120SOL    HW269193  11.419  10.622   6.875
89121SOL     OW69194   6.379  12.637  13.632
89121SOL    HW169195   6.422  12.661  13.714
89121SOL    HW269196   6.345  12.549  13.647
89122SOL     OW69197   3.709  13.230   9.196
89122SOL    HW169198   3.721  13.302   9.258
89122SOL    HW269199   3.639  13.177   9.233
89123SOL     OW69200   6.422   2.926   2.638
89123SOL    HW169201   6.482   2.896   2.570
89123SOL    HW269202   6.336   2.893   2.609
89124SOL     OW69203   9.649   4.846   2.136
89124SOL    HW169204   9.626   4.877   2.048
89124SOL    HW269205   9.712   4.776   2.121
89125SOL     OW69206   7.150  14.453   4.013
89125SOL    HW169207   7.079  14.505   3.976
89125SOL    HW269208   7.230  14.493   3.978
89126SOL     OW69209   1.621   2.086  11.524
89126SOL    HW169210   1.635   1.992  11.516
89126SOL    HW269211   1.688   2.125  11.467
89127SOL     OW69212   3.591  12.114  10.452
89127SOL    HW169213   3.542  12.051  10.400
89127SOL    HW269214   3.677  12.074  10.465
89128SOL     OW69215   0.242   5.978   9.630
89128SOL    HW169216   0.330   5.966   9.665
89128SOL    HW269217   0.223   5.898   9.582
89129SOL     OW69218  12.348  13.042   3.528
89129SOL    HW169219  12.264  13.083   3.509
89129SOL    HW269220  12.357  12.975   3.460
89130SOL     OW69221   4.943   6.007  14.166
89130SOL    HW169222   4.974   5.950  14.236
89130SOL    HW269223   4.891   6.074  14.211
89131SOL     OW69224  11.450   5.251   8.895
89131SOL    HW169225  11.419   5.168   8.858
89131SOL    HW269226  11.511   5.285   8.829
89132SOL     OW69227   9.925   9.763   3.476
89132SOL    HW169228   9.936   9.719   3.392
89132SOL    HW269229   9.966   9.849   3.464
89133SOL     OW69230  12.077  13.600   7.640
89133SOL    HW169231  12.089  13.571   7.731
89133SOL    HW269232  11.989  13.637   7.638
89134SOL     OW69233   2.108   2.370   7.719
89134SOL    HW169234   2.138   2.428   7.788
89134SOL    HW269235   2.107   2.283   7.759
89135SOL     OW69236  12.939  10.494   1.094
89135SOL    HW169237  12.965  10.422   1.037
89135SOL    HW269238  12.843  10.489   1.097
89136SOL     OW69239   3.857   5.140   7.686
89136SOL    HW169240   3.924   5.193   7.642
89136SOL    HW269241   3.832   5.074   7.622
89137SOL     OW69242   3.091   8.412  14.156
89137SOL    HW169243   3.159   8.459  14.107
89137SOL    HW269244   3.127   8.325  14.169
89138SOL     OW69245   9.298   1.582  14.170
89138SOL    HW169246   9.222   1.629  14.206
89138SOL    HW269247   9.372   1.613  14.221
89139SOL     OW69248  11.858   4.280   7.852
89139SOL    HW169249  11.867   4.186   7.869
89139SOL    HW269250  11.933   4.320   7.895
89140SOL     OW69251   1.525  14.614   0.284
89140SOL    HW169252   1.498  14.635   0.195
89140SOL    HW269253   1.617  14.642   0.289
89141SOL     OW69254   9.066  12.888  13.842
89141SOL    HW169255   9.070  12.984  13.845
89141SOL    HW269256   9.038  12.868  13.753
89142SOL     OW69257  12.274   7.749  12.166
89142SOL    HW169258  12.348   7.690  12.182
89142SOL    HW269259  12.222   7.705  12.099
89143SOL     OW69260   7.556  13.355  14.548
89143SOL    HW169261   7.511  13.425  14.500
89143SOL    HW269262   7.498  13.280  14.540
89144SOL     OW69263  11.717   1.077  14.295
89144SOL    HW169264  11.776   1.141  14.334
89144SOL    HW269265  11.641   1.128  14.266
89145SOL     OW69266   9.631   2.996  10.863
89145SOL    HW169267   9.558   2.938  10.882
89145SOL    HW269268   9.591   3.083  10.859
89146SOL     OW69269   7.208  10.419  13.441
89146SOL    HW169270   7.261  10.498  13.447
89146SOL    HW269271   7.243  10.372  13.365
89147SOL     OW69272  10.121   8.160   5.442
89147SOL    HW169273  10.034   8.129   5.466
89147SOL    HW269274  10.112   8.256   5.436
89148SOL     OW69275   1.368  10.307   2.617
89148SOL    HW169276   1.460  10.304   2.643
89148SOL    HW269277   1.328  10.370   2.677
89149SOL     OW69278   2.035  11.853  13.911
89149SOL    HW169279   2.097  11.924  13.892
89149SOL    HW269280   2.003  11.872  13.999
89150SOL     OW69281   4.089   9.101  13.534
89150SOL    HW169282   4.139   9.114  13.615
89150SOL    HW269283   4.105   9.009  13.512
89151SOL     OW69284   8.117  11.583   4.323
89151SOL    HW169285   8.153  11.504   4.282
89151SOL    HW269286   8.083  11.552   4.407
89152SOL     OW69287  14.560  12.817   1.542
89152SOL    HW169288  14.468  12.840   1.554
89152SOL    HW269289  14.603  12.899   1.520
89153SOL     OW69290   0.323   7.180  14.263
89153SOL    HW169291   0.376   7.210  14.189
89153SOL    HW269292   0.236   7.167  14.227
89154SOL     OW69293   4.428   6.695   7.441
89154SOL    HW169294   4.407   6.647   7.521
89154SOL    HW269295   4.518   6.670   7.421
89155SOL     OW69296   0.007  11.966   9.413
89155SOL    HW169297  14.795  11.953   9.417
89155SOL    HW269298   0.029  12.011   9.495
89156SOL     OW69299  14.135   1.382  10.706
89156SOL    HW169300  14.145   1.354  10.615
89156SOL    HW269301  14.224   1.405  10.733
89157SOL     OW69302   3.236  14.090   4.297
89157SOL    HW169303   3.290  14.167   4.316
89157SOL    HW269304   3.179  14.118   4.226
89158SOL     OW69305   2.248   8.841  13.776
89158SOL    HW169306   2.270   8.902  13.846
89158SOL    HW269307   2.215   8.897  13.705
89159SOL     OW69308   8.242  14.374  12.124
89159SOL    HW169309   8.229  14.288  12.084
89159SOL    HW269310   8.333  14.373  12.154
89160SOL     OW69311   6.445  10.296   0.581
89160SOL    HW169312   6.490  10.213   0.600
89160SOL    HW269313   6.496  10.334   0.509
89161SOL     OW69314  11.901  11.148   8.859
89161SOL    HW169315  11.861  11.229   8.828
89161SOL    HW269316  11.940  11.171   8.943
89162SOL     OW69317  13.967   2.319   6.681
89162SOL    HW169318  14.031   2.355   6.742
89162SOL    HW269319  13.950   2.230   6.713
89163SOL     OW69320   8.498   7.145  11.095
89163SOL    HW169321   8.532   7.136  11.007
89163SOL    HW269322   8.494   7.239  11.110
89164SOL     OW69323   8.181   3.948   0.175
89164SOL    HW169324   8.224   3.943   0.260
89164SOL    HW269325   8.226   4.019   0.129
89165SOL     OW69326   6.120   6.337   6.674
89165SOL    HW169327   6.194   6.367   6.727
89165SOL    HW269328   6.060   6.411   6.672
89166SOL     OW69329   5.761  10.841  11.509
89166SOL    HW169330   5.732  10.863  11.597
89166SOL    HW269331   5.830  10.904  11.489
89167SOL     OW69332   4.183  14.527   2.353
89167SOL    HW169333   4.109  14.571   2.312
89167SOL    HW269334   4.259  14.581   2.329
89168SOL     OW69335   9.324  10.978   5.133
89168SOL    HW169336   9.364  10.967   5.219
89168SOL    HW269337   9.324  11.073   5.119
89169SOL     OW69338   4.478   5.813   5.050
89169SOL    HW169339   4.540   5.880   5.023
89169SOL    HW269340   4.400   5.861   5.076
89170SOL     OW69341  10.316   4.349   3.178
89170SOL    HW169342  10.320   4.434   3.220
89170SOL    HW269343  10.381   4.296   3.224
89171SOL     OW69344  13.154  10.071   1.616
89171SOL    HW169345  13.146  10.062   1.711
89171SOL    HW269346  13.080  10.022   1.580
89172SOL     OW69347  14.127  12.504  14.696
89172SOL    HW169348  14.035  12.527  14.710
89172SOL    HW269349  14.154  12.464  14.779
89173SOL     OW69350   7.196  11.313  11.502
89173SOL    HW169351   7.283  11.349  11.515
89173SOL    HW269352   7.209  11.240  11.441
89174SOL     OW69353   7.675   7.834   1.391
89174SOL    HW169354   7.688   7.916   1.344
89174SOL    HW269355   7.714   7.768   1.335
89175SOL     OW69356  14.130   1.716  11.201
89175SOL    HW169357  14.165   1.746  11.117
89175SOL    HW269358  14.128   1.795  11.255
89176SOL     OW69359   3.995   4.958   1.289
89176SOL    HW169360   3.991   5.035   1.346
89176SOL    HW269361   3.913   4.959   1.241
89177SOL     OW69362   6.565  11.667   7.862
89177SOL    HW169363   6.529  11.584   7.895
89177SOL    HW269364   6.563  11.726   7.937
89178SOL     OW69365  11.758  11.883  10.756
89178SOL    HW169366  11.843  11.886  10.800
89178SOL    HW269367  11.780  11.868  10.664
89179SOL     OW69368   0.119  12.496   9.246
89179SOL    HW169369   0.112  12.400   9.239
89179SOL    HW269370   0.203  12.510   9.289
89180SOL     OW69371   1.491  12.557   0.467
89180SOL    HW169372   1.536  12.540   0.384
89180SOL    HW269373   1.554  12.530   0.534
89181SOL     OW69374  10.932  11.611   3.154
89181SOL    HW169375  10.993  11.684   3.159
89181SOL    HW269376  10.915  11.586   3.245
89182SOL     OW69377   8.370   0.973  14.171
89182SOL    HW169378   8.416   1.027  14.107
89182SOL    HW269379   8.417   0.890  14.170
89183SOL     OW69380   5.734   9.228   8.600
89183SOL    HW169381   5.658   9.195   8.553
89183SOL    HW269382   5.748   9.316   8.565
89184SOL     OW69383  14.630   7.201   9.837
89184SOL    HW169384  14.557   7.260   9.854
89184SOL    HW269385  14.652   7.164   9.923
89185SOL     OW69386  14.466   5.338   5.054
89185SOL    HW169387  14.468   5.376   5.142
89185SOL    HW269388  14.502   5.407   4.997
89186SOL     OW69389   0.282   1.029   4.576
89186SOL    HW169390   0.312   1.050   4.488
89186SOL    HW269391   0.329   0.949   4.599
89187SOL     OW69392  14.750  10.706   6.728
89187SOL    HW169393  14.756  10.791   6.771
89187SOL    HW269394  14.682  10.659   6.777
89188SOL     OW69395   4.937   5.650   1.833
89188SOL    HW169396   4.938   5.728   1.889
89188SOL    HW269397   4.978   5.582   1.885
89189SOL     OW69398   3.823   9.710   1.862
89189SOL    HW169399   3.900   9.719   1.918
89189SOL    HW269400   3.773   9.640   1.902
89190SOL     OW69401   8.228  13.409   8.063
89190SOL    HW169402   8.290  13.414   7.991
89190SOL    HW269403   8.280  13.428   8.141
89191SOL     OW69404   3.047   1.702   4.971
89191SOL    HW169405   3.093   1.654   5.040
89191SOL    HW269406   3.081   1.666   4.889
89192SOL     OW69407   3.937  11.249  13.967
89192SOL    HW169408   3.996  11.192  13.917
89192SOL    HW269409   3.851  11.233  13.929
89193SOL     OW69410   2.911  10.453  14.590
89193SOL    HW169411   2.977  10.436  14.522
89193SOL    HW269412   2.886  10.544  14.576
89194SOL     OW69413  10.557   2.851   0.664
89194SOL    HW169414  10.634   2.823   0.712
89194SOL    HW269415  10.588   2.920   0.606
89195SOL     OW69416   4.207   8.730  13.210
89195SOL    HW169417   4.177   8.748  13.121
89195SOL    HW269418   4.293   8.691  13.198
89196SOL     OW69419   8.147  13.469   8.963
89196SOL    HW169420   8.056  13.479   8.934
89196SOL    HW269421   8.157  13.534   9.033
89197SOL     OW69422   7.608   4.055   9.832
89197SOL    HW169423   7.552   4.061   9.910
89197SOL    HW269424   7.662   4.134   9.835
89198SOL     OW69425   3.820  10.176  11.743
89198SOL    HW169426   3.885  10.118  11.784
89198SOL    HW269427   3.785  10.228  11.815
89199SOL     OW69428   8.202  12.374   4.041
89199SOL    HW169429   8.188  12.281   4.025
89199SOL    HW269430   8.168  12.417   3.962
89200SOL     OW69431   7.169   2.964  13.529
89200SOL    HW169432   7.122   2.997  13.605
89200SOL    HW269433   7.242   3.025  13.517
89201SOL     OW69434   4.771   8.582   1.055
89201SOL    HW169435   4.762   8.662   1.003
89201SOL    HW269436   4.853   8.595   1.104
89202SOL     OW69437   0.574   4.133   1.756
89202SOL    HW169438   0.512   4.153   1.826
89202SOL    HW269439   0.555   4.198   1.689
89203SOL     OW69440   5.952   9.932   6.260
89203SOL    HW169441   5.892   9.864   6.230
89203SOL    HW269442   5.895  10.007   6.280
89204SOL     OW69443   3.822   8.868   4.879
89204SOL    HW169444   3.898   8.859   4.935
89204SOL    HW269445   3.754   8.904   4.937
89205SOL     OW69446   6.033   5.708   8.473
89205SOL    HW169447   5.993   5.627   8.505
89205SOL    HW269448   5.962   5.771   8.474
89206SOL     OW69449   0.924  11.883   5.659
89206SOL    HW169450   0.925  11.863   5.753
89206SOL    HW269451   0.832  11.872   5.633
89207SOL     OW69452   1.936  12.071  13.657
89207SOL    HW169453   1.949  12.003  13.591
89207SOL    HW269454   2.018  12.120  13.659
89208SOL     OW69455   8.912  13.858   1.292
89208SOL    HW169456   8.920  13.939   1.241
89208SOL    HW269457   8.850  13.880   1.362
89209SOL     OW69458   7.097   2.014   7.496
89209SOL    HW169459   7.103   2.022   7.400
89209SOL    HW269460   7.171   2.065   7.528
89210SOL     OW69461  12.760  10.966   7.406
89210SOL    HW169462  12.683  10.999   7.360
89210SOL    HW269463  12.832  10.979   7.344
89211SOL     OW69464   4.837  13.030   7.025
89211SOL    HW169465   4.923  13.058   7.056
89211SOL    HW269466   4.778  13.051   7.098
89212SOL     OW69467   2.660   1.764   8.032
89212SOL    HW169468   2.659   1.834   8.097
89212SOL    HW269469   2.703   1.691   8.077
89213SOL     OW69470  13.459   9.691   5.135
89213SOL    HW169471  13.407   9.713   5.058
89213SOL    HW269472  13.528   9.634   5.102
89214SOL     OW69473   5.422  11.561   4.663
89214SOL    HW169474   5.478  11.600   4.730
89214SOL    HW269475   5.482  11.533   4.594
89215SOL     OW69476   4.370   4.171  11.021
89215SOL    HW169477   4.425   4.212  10.954
89215SOL    HW269478   4.428   4.108  11.063
89216SOL     OW69479   6.878   2.167   6.538
89216SOL    HW169480   6.877   2.105   6.465
89216SOL    HW269481   6.840   2.247   6.502
89217SOL     OW69482   5.617   7.153  12.558
89217SOL    HW169483   5.561   7.075  12.550
89217SOL    HW269484   5.618   7.191  12.470
89218SOL     OW69485   7.260   1.855   4.125
89218SOL    HW169486   7.326   1.892   4.184
89218SOL    HW269487   7.216   1.931   4.087
89219SOL     OW69488  14.489   4.872  12.380
89219SOL    HW169489  14.423   4.814  12.419
89219SOL    HW269490  14.551   4.812  12.338
89220SOL     OW69491   1.341   3.312   2.290
89220SOL    HW169492   1.433   3.337   2.295
89220SOL    HW269493   1.303   3.375   2.229
89221SOL     OW69494   5.265   9.128   4.901
89221SOL    HW169495   5.291   9.074   4.975
89221SOL    HW269496   5.345   9.140   4.850
89222SOL     OW69497   5.436  12.107  14.110
89222SOL    HW169498   5.489  12.182  14.136
89222SOL    HW269499   5.383  12.139  14.037
89223SOL     OW69500  10.429  11.688   6.900
89223SOL    HW169501  10.521  11.710   6.915
89223SOL    HW269502  10.392  11.766   6.857
89224SOL     OW69503   2.348  10.494   8.825
89224SOL    HW169504   2.386  10.427   8.769
89224SOL    HW269505   2.421  10.552   8.847
89225SOL     OW69506   2.617   8.117   5.576
89225SOL    HW169507   2.566   8.158   5.646
89225SOL    HW269508   2.600   8.024   5.585
89226SOL     OW69509   2.952   4.898   4.169
89226SOL    HW169510   2.920   4.810   4.189
89226SOL    HW269511   2.879   4.955   4.194
89227SOL     OW69512  11.496  14.717   4.681
89227SOL    HW169513  11.567  14.763   4.725
89227SOL    HW269514  11.534  14.634   4.653
89228SOL     OW69515  12.537   0.906   3.797
89228SOL    HW169516  12.617   0.896   3.745
89228SOL    HW269517  12.479   0.836   3.766
89229SOL     OW69518   9.001   2.051  13.880
89229SOL    HW169519   9.042   2.137  13.872
89229SOL    HW269520   9.048   2.008  13.952
89230SOL     OW69521   3.058  12.743   0.945
89230SOL    HW169522   3.015  12.738   0.859
89230SOL    HW269523   3.064  12.836   0.963
89231SOL     OW69524   8.766  11.400   4.625
89231SOL    HW169525   8.845  11.453   4.619
89231SOL    HW269526   8.695  11.463   4.633
89232SOL     OW69527   8.663   6.759   6.971
89232SOL    HW169528   8.591   6.822   6.964
89232SOL    HW269529   8.679   6.731   6.881
89233SOL     OW69530   3.730   4.602   0.072
89233SOL    HW169531   3.815   4.612   0.029
89233SOL    HW269532   3.749   4.557   0.154
89234SOL     OW69533   9.567   3.523   8.887
89234SOL    HW169534   9.490   3.471   8.908
89234SOL    HW269535   9.611   3.474   8.817
89235SOL     OW69536   5.100   1.298   1.313
89235SOL    HW169537   5.101   1.281   1.408
89235SOL    HW269538   5.152   1.227   1.275
89236SOL     OW69539   9.607  13.650  11.920
89236SOL    HW169540   9.637  13.722  11.977
89236SOL    HW269541   9.570  13.694  11.843
89237SOL     OW69542   2.823   0.031   4.561
89237SOL    HW169543   2.879   0.094   4.514
89237SOL    HW269544   2.753   0.010   4.498
89238SOL     OW69545   3.266   9.977  10.575
89238SOL    HW169546   3.263   9.928  10.493
89238SOL    HW269547   3.191  10.036  10.570
89239SOL     OW69548   7.663   7.631  10.707
89239SOL    HW169549   7.661   7.637  10.612
89239SOL    HW269550   7.602   7.699  10.736
89240SOL     OW69551   2.128  10.828  11.122
89240SOL    HW169552   2.157  10.768  11.053
89240SOL    HW269553   2.164  10.913  11.096
89241SOL     OW69554   4.274   2.965   9.408
89241SOL    HW169555   4.328   3.034   9.369
89241SOL    HW269556   4.332   2.889   9.413
89242SOL     OW69557   7.218  12.826  10.032
89242SOL    HW169558   7.209  12.910   9.987
89242SOL    HW269559   7.163  12.767   9.981
89243SOL     OW69560   0.381  10.531  12.430
89243SOL    HW169561   0.405  10.451  12.384
89243SOL    HW269562   0.462  10.582  12.434
89244SOL     OW69563  14.825  12.802  14.653
89244SOL    HW169564   0.032  12.833  14.638
89244SOL    HW269565  14.815  12.803  14.749
89245SOL     OW69566  14.091  13.480   2.497
89245SOL    HW169567  14.095  13.385   2.515
89245SOL    HW269568  14.123  13.520   2.578
89246SOL     OW69569   2.246   0.193   1.477
89246SOL    HW169570   2.272   0.272   1.525
89246SOL    HW269571   2.281   0.207   1.389
89247SOL     OW69572   7.813   0.202   1.479
89247SOL    HW169573   7.829   0.273   1.540
89247SOL    HW269574   7.744   0.150   1.520
89248SOL     OW69575   1.751   4.450   2.759
89248SOL    HW169576   1.753   4.537   2.719
89248SOL    HW269577   1.801   4.395   2.699
89249SOL     OW69578  12.249  13.506   2.476
89249SOL    HW169579  12.253  13.442   2.546
89249SOL    HW269580  12.197  13.464   2.408
89250SOL     OW69581  13.778   6.647   3.107
89250SOL    HW169582  13.785   6.571   3.166
89250SOL    HW269583  13.866   6.683   3.103
89251SOL     OW69584   8.850   3.420  11.350
89251SOL    HW169585   8.860   3.368  11.271
89251SOL    HW269586   8.937   3.424  11.388
89252SOL     OW69587   3.694   5.615  10.347
89252SOL    HW169588   3.643   5.637  10.425
89252SOL    HW269589   3.724   5.525  10.362
89253SOL     OW69590  14.286  12.323   1.784
89253SOL    HW169591  14.291  12.238   1.827
89253SOL    HW269592  14.324  12.384   1.847
89254SOL     OW69593   7.903   9.235   9.475
89254SOL    HW169594   7.963   9.304   9.502
89254SOL    HW269595   7.955   9.155   9.480
89255SOL     OW69596  10.985   9.848   2.395
89255SOL    HW169597  11.010   9.756   2.408
89255SOL    HW269598  10.889   9.845   2.389
89256SOL     OW69599   0.927   0.821  12.389
89256SOL    HW169600   1.008   0.821  12.338
89256SOL    HW269601   0.938   0.893  12.451
89257SOL     OW69602   1.041  10.158   4.538
89257SOL    HW169603   1.129  10.190   4.520
89257SOL    HW269604   1.040  10.068   4.503
89258SOL     OW69605   9.891   9.530   3.214
89258SOL    HW169606   9.815   9.515   3.158
89258SOL    HW269607   9.932   9.443   3.222
89259SOL     OW69608   3.251   3.697   8.809
89259SOL    HW169609   3.228   3.765   8.745
89259SOL    HW269610   3.335   3.664   8.779
89260SOL     OW69611   1.146   6.597   8.718
89260SOL    HW169612   1.134   6.557   8.632
89260SOL    HW269613   1.240   6.614   8.724
89261SOL     OW69614  14.457  12.755  13.068
89261SOL    HW169615  14.528  12.700  13.101
89261SOL    HW269616  14.496  12.841  13.057
89262SOL     OW69617   5.931   6.919  11.476
89262SOL    HW169618   5.959   6.947  11.389
89262SOL    HW269619   5.836   6.933  11.477
89263SOL     OW69620  13.769   1.599   2.452
89263SOL    HW169621  13.830   1.528   2.433
89263SOL    HW269622  13.702   1.559   2.507
89264SOL     OW69623   6.993  12.241   1.260
89264SOL    HW169624   7.026  12.331   1.268
89264SOL    HW269625   6.967  12.233   1.168
89265SOL     OW69626   3.565   4.270   3.798
89265SOL    HW169627   3.495   4.212   3.829
89265SOL    HW269628   3.547   4.355   3.838
89266SOL     OW69629   7.936   1.700   5.468
89266SOL    HW169630   7.919   1.647   5.546
89266SOL    HW269631   7.991   1.772   5.499
89267SOL     OW69632   4.674   5.452   1.757
89267SOL    HW169633   4.609   5.509   1.797
89267SOL    HW269634   4.624   5.397   1.697
89268SOL     OW69635   6.497   1.393  10.991
89268SOL    HW169636   6.581   1.410  10.948
89268SOL    HW269637   6.515   1.319  11.049
89269SOL     OW69638   8.787  13.472  12.210
89269SOL    HW169639   8.820  13.412  12.277
89269SOL    HW269640   8.771  13.416  12.134
89270SOL     OW69641   5.991  12.304   7.122
89270SOL    HW169642   5.915  12.281   7.068
89270SOL    HW269643   6.053  12.343   7.061
89271SOL     OW69644   0.986   4.042  14.872
89271SOL    HW169645   0.969   4.004   0.077
89271SOL    HW269646   0.949   3.978  14.811
89272SOL     OW69647  14.476  14.043   3.004
89272SOL    HW169648  14.426  14.122   3.024
89272SOL    HW269649  14.542  14.039   3.073
89273SOL     OW69650  11.078  10.319   2.420
89273SOL    HW169651  11.004  10.363   2.379
89273SOL    HW269652  11.044  10.232   2.441
89274SOL     OW69653  12.905  11.176  10.445
89274SOL    HW169654  12.888  11.084  10.468
89274SOL    HW269655  12.831  11.201  10.391
89275SOL     OW69656   3.848   8.324  13.491
89275SOL    HW169657   3.811   8.401  13.535
89275SOL    HW269658   3.782   8.301  13.426
89276SOL     OW69659   3.253   4.944   7.244
89276SOL    HW169660   3.205   4.887   7.183
89276SOL    HW269661   3.340   4.951   7.207
89277SOL     OW69662  14.270  10.066   7.603
89277SOL    HW169663  14.280  10.021   7.687
89277SOL    HW269664  14.222  10.146   7.625
89278SOL     OW69665  14.311   0.030  12.161
89278SOL    HW169666  14.241  14.869  12.111
89278SOL    HW269667  14.335  14.849  12.228
89279SOL     OW69668   0.331   9.266   6.691
89279SOL    HW169669   0.323   9.175   6.662
89279SOL    HW269670   0.417   9.294   6.661
89280SOL     OW69671  11.609  11.905   7.993
89280SOL    HW169672  11.644  11.827   8.037
89280SOL    HW269673  11.687  11.953   7.964
89281SOL     OW69674   8.764   7.509  11.122
89281SOL    HW169675   8.836   7.449  11.100
89281SOL    HW269676   8.759   7.569  11.047
89282SOL     OW69677   1.252  13.797   8.008
89282SOL    HW169678   1.262  13.841   8.092
89282SOL    HW269679   1.158  13.783   7.998
89283SOL     OW69680   0.755   4.648   6.450
89283SOL    HW169681   0.736   4.657   6.357
89283SOL    HW269682   0.848   4.668   6.458
89284SOL     OW69683   1.927   7.729   9.063
89284SOL    HW169684   1.902   7.712   8.972
89284SOL    HW269685   1.904   7.649   9.110
89285SOL     OW69686   2.451  13.972  11.321
89285SOL    HW169687   2.436  14.017  11.404
89285SOL    HW269688   2.408  14.028  11.256
89286SOL     OW69689   3.029  11.320   8.031
89286SOL    HW169690   3.083  11.241   8.028
89286SOL    HW269691   3.073  11.376   8.095
89287SOL     OW69692   6.296  11.903   0.153
89287SOL    HW169693   6.231  11.862   0.096
89287SOL    HW269694   6.300  11.994   0.124
89288SOL     OW69695   6.794   4.841   1.871
89288SOL    HW169696   6.789   4.775   1.941
89288SOL    HW269697   6.870   4.814   1.819
89289SOL     OW69698  14.663  14.389   8.858
89289SOL    HW169699  14.569  14.403   8.870
89289SOL    HW269700  14.703  14.474   8.873
89290SOL     OW69701   3.001   9.058   9.767
89290SOL    HW169702   3.095   9.077   9.769
89290SOL    HW269703   2.982   9.044   9.674
89291SOL     OW69704  13.998   9.848  11.609
89291SOL    HW169705  14.055   9.804  11.546
89291SOL    HW269706  14.002   9.940  11.583
89292SOL     OW69707   3.594  12.867   8.963
89292SOL    HW169708   3.562  12.956   8.948
89292SOL    HW269709   3.580  12.851   9.056
89293SOL     OW69710   4.971   2.046  14.169
89293SOL    HW169711   4.947   1.965  14.123
89293SOL    HW269712   5.040   2.084  14.115
89294SOL     OW69713   1.980   7.026   9.886
89294SOL    HW169714   2.032   6.963   9.935
89294SOL    HW269715   1.988   6.998   9.794
89295SOL     OW69716   5.721  14.326  13.344
89295SOL    HW169717   5.777  14.397  13.313
89295SOL    HW269718   5.642  14.333  13.290
89296SOL     OW69719   4.168   0.630   4.024
89296SOL    HW169720   4.252   0.612   3.981
89296SOL    HW269721   4.115   0.553   4.005
89297SOL     OW69722   9.002  12.904   1.082
89297SOL    HW169723   9.071  12.844   1.110
89297SOL    HW269724   8.921  12.859   1.103
89298SOL     OW69725  11.708   9.004   0.915
89298SOL    HW169726  11.782   8.942   0.910
89298SOL    HW269727  11.743   9.078   0.964
89299SOL     OW69728   9.380   5.619   5.922
89299SOL    HW169729   9.427   5.551   5.873
89299SOL    HW269730   9.298   5.578   5.948
89300SOL     OW69731  13.316  13.396   5.091
89300SOL    HW169732  13.230  13.401   5.133
89300SOL    HW269733  13.375  13.440   5.153
89301SOL     OW69734  14.330  10.387   3.308
89301SOL    HW169735  14.395  10.455   3.327
89301SOL    HW269736  14.248  10.435   3.301
89302SOL     OW69737   2.970   2.936   4.095
89302SOL    HW169738   2.892   2.959   4.045
89302SOL    HW269739   3.013   3.020   4.112
89303SOL     OW69740   0.025  12.298   6.988
89303SOL    HW169741   0.029  12.393   6.994
89303SOL    HW269742   0.113  12.268   7.008
89304SOL     OW69743   2.828  10.930   9.794
89304SOL    HW169744   2.857  10.934   9.885
89304SOL    HW269745   2.783  11.013   9.779
89305SOL     OW69746  12.845   8.677   9.237
89305SOL    HW169747  12.823   8.747   9.174
89305SOL    HW269748  12.917   8.630   9.195
89306SOL     OW69749   5.648   3.632   9.224
89306SOL    HW169750   5.598   3.646   9.144
89306SOL    HW269751   5.703   3.710   9.232
89307SOL     OW69752  10.934   9.758   9.378
89307SOL    HW169753  10.868   9.805   9.427
89307SOL    HW269754  10.985   9.826   9.334
89308SOL     OW69755   1.644   0.937  12.056
89308SOL    HW169756   1.704   0.874  12.097
89308SOL    HW269757   1.696   1.017  12.048
89309SOL     OW69758  14.504   2.160   4.761
89309SOL    HW169759  14.559   2.203   4.696
89309SOL    HW269760  14.564   2.105   4.812
89310SOL     OW69761   7.033  12.281   7.324
89310SOL    HW169762   7.117  12.294   7.366
89310SOL    HW269763   6.970  12.326   7.380
89311SOL     OW69764  10.656   1.067   6.959
89311SOL    HW169765  10.618   0.989   7.000
89311SOL    HW269766  10.580   1.121   6.935
89312SOL     OW69767   5.248   6.562   0.887
89312SOL    HW169768   5.210   6.636   0.935
89312SOL    HW269769   5.221   6.577   0.796
89313SOL     OW69770   9.760   4.837  11.448
89313SOL    HW169771   9.746   4.897  11.375
89313SOL    HW269772   9.771   4.893  11.524
89314SOL     OW69773  10.967   7.001  13.852
89314SOL    HW169774  11.057   7.004  13.818
89314SOL    HW269775  10.935   7.091  13.843
89315SOL     OW69776   1.558  11.407   7.367
89315SOL    HW169777   1.477  11.366   7.399
89315SOL    HW269778   1.536  11.499   7.357
89316SOL     OW69779   0.054  11.130   7.761
89316SOL    HW169780   0.127  11.101   7.706
89316SOL    HW269781   0.091  11.134   7.849
89317SOL     OW69782  10.449  10.470   4.444
89317SOL    HW169783  10.530  10.433   4.480
89317SOL    HW269784  10.388  10.472   4.518
89318SOL     OW69785  13.851  10.830  14.416
89318SOL    HW169786  13.846  10.874  14.501
89318SOL    HW269787  13.811  10.890  14.354
89319SOL     OW69788   9.084   7.019   4.278
89319SOL    HW169789   9.129   7.103   4.288
89319SOL    HW269790   9.148   6.963   4.234
89320SOL     OW69791   6.299   2.164  10.307
89320SOL    HW169792   6.234   2.234  10.295
89320SOL    HW269793   6.372   2.189  10.250
89321SOL     OW69794   9.250   6.581  11.171
89321SOL    HW169795   9.222   6.495  11.203
89321SOL    HW269796   9.343   6.586  11.196
89322SOL     OW69797   7.028   8.952  13.642
89322SOL    HW169798   7.061   8.925  13.727
89322SOL    HW269799   7.106   8.984  13.596
89323SOL     OW69800   0.049  13.820   8.539
89323SOL    HW169801  14.877  13.874   8.596
89323SOL    HW269802   0.067  13.876   8.464
89324SOL     OW69803   9.489   4.871   4.781
89324SOL    HW169804   9.406   4.903   4.747
89324SOL    HW269805   9.533   4.950   4.814
89325SOL     OW69806  10.420   4.949   4.362
89325SOL    HW169807  10.466   4.974   4.282
89325SOL    HW269808  10.460   5.002   4.431
89326SOL     OW69809   1.872   6.366  13.168
89326SOL    HW169810   1.882   6.414  13.251
89326SOL    HW269811   1.932   6.410  13.108
89327SOL     OW69812   4.308   7.904   5.864
89327SOL    HW169813   4.383   7.894   5.805
89327SOL    HW269814   4.339   7.964   5.932
89328SOL     OW69815   3.754   2.482   1.496
89328SOL    HW169816   3.848   2.467   1.504
89328SOL    HW269817   3.741   2.568   1.537
89329SOL     OW69818   6.127   0.092   6.959
89329SOL    HW169819   6.198   0.113   6.897
89329SOL    HW269820   6.064   0.043   6.907
89330SOL     OW69821  10.875  14.321   4.043
89330SOL    HW169822  10.817  14.378   4.093
89330SOL    HW269823  10.924  14.272   4.109
89331SOL     OW69824   0.641   2.020   7.680
89331SOL    HW169825   0.668   2.039   7.590
89331SOL    HW269826   0.546   2.012   7.675
89332SOL     OW69827  14.270   3.559   9.686
89332SOL    HW169828  14.182   3.597   9.679
89332SOL    HW269829  14.264   3.499   9.760
89333SOL     OW69830   1.307   7.238  11.698
89333SOL    HW169831   1.262   7.173  11.644
89333SOL    HW269832   1.243   7.262  11.765
89334SOL     OW69833   0.650  14.172  11.122
89334SOL    HW169834   0.565  14.149  11.160
89334SOL    HW269835   0.631  14.197  11.032
89335SOL     OW69836   1.451   4.557   9.525
89335SOL    HW169837   1.428   4.622   9.591
89335SOL    HW269838   1.480   4.608   9.449
89336SOL     OW69839   4.296  14.109   8.102
89336SOL    HW169840   4.327  14.137   8.016
89336SOL    HW269841   4.360  14.044   8.131
89337SOL     OW69842  14.530   5.007   6.090
89337SOL    HW169843  14.525   5.048   6.004
89337SOL    HW269844  14.591   5.061   6.139
89338SOL     OW69845   9.106   3.158   8.814
89338SOL    HW169846   9.097   3.190   8.724
89338SOL    HW269847   9.126   3.065   8.805
89339SOL     OW69848   2.202   1.919  10.130
89339SOL    HW169849   2.273   1.983  10.124
89339SOL    HW269850   2.122   1.971  10.128
89340SOL     OW69851  13.333   7.626  14.614
89340SOL    HW169852  13.412   7.583  14.648
89340SOL    HW269853  13.302   7.566  14.546
89341SOL     OW69854   0.967   9.574   8.680
89341SOL    HW169855   0.926   9.642   8.733
89341SOL    HW269856   0.893   9.522   8.647
89342SOL     OW69857   7.417  13.863   2.502
89342SOL    HW169858   7.432  13.777   2.540
89342SOL    HW269859   7.471  13.864   2.423
89343SOL     OW69860   1.818   3.044  12.440
89343SOL    HW169861   1.906   3.077  12.458
89343SOL    HW269862   1.798   2.988  12.516
89344SOL     OW69863  10.422  12.308   7.570
89344SOL    HW169864  10.358  12.241   7.545
89344SOL    HW269865  10.395  12.337   7.657
89345SOL     OW69866   9.502   8.508   8.746
89345SOL    HW169867   9.515   8.435   8.686
89345SOL    HW269868   9.584   8.557   8.742
89346SOL     OW69869   3.743   6.555  11.278
89346SOL    HW169870   3.720   6.599  11.360
89346SOL    HW269871   3.720   6.618  11.209
89347SOL     OW69872   2.563   9.413   5.557
89347SOL    HW169873   2.557   9.507   5.576
89347SOL    HW269874   2.625   9.408   5.484
89348SOL     OW69875  10.419   1.414   0.884
89348SOL    HW169876  10.387   1.427   0.974
89348SOL    HW269877  10.405   1.321   0.867
89349SOL     OW69878   3.512  13.182   6.411
89349SOL    HW169879   3.568  13.105   6.404
89349SOL    HW269880   3.458  13.165   6.488
89350SOL     OW69881   7.499   2.755  13.692
89350SOL    HW169882   7.463   2.782  13.607
89350SOL    HW269883   7.525   2.837  13.734
89351SOL     OW69884   9.252   7.291  13.792
89351SOL    HW169885   9.262   7.327  13.704
89351SOL    HW269886   9.209   7.207  13.778
89352SOL     OW69887   6.163  13.905   7.082
89352SOL    HW169888   6.178  13.845   7.156
89352SOL    HW269889   6.249  13.916   7.042
89353SOL     OW69890   5.128   9.800   2.176
89353SOL    HW169891   5.128   9.745   2.098
89353SOL    HW269892   5.106   9.740   2.247
89354SOL     OW69893   6.461   8.505   2.831
89354SOL    HW169894   6.522   8.566   2.872
89354SOL    HW269895   6.443   8.544   2.745
89355SOL     OW69896  10.096   4.637   7.430
89355SOL    HW169897  10.117   4.595   7.347
89355SOL    HW269898  10.003   4.662   7.422
89356SOL     OW69899   8.872   1.919   7.474
89356SOL    HW169900   8.801   1.965   7.519
89356SOL    HW269901   8.872   1.832   7.514
89357SOL     OW69902  11.098   0.404   3.915
89357SOL    HW169903  11.087   0.317   3.877
89357SOL    HW269904  11.036   0.459   3.867
89358SOL     OW69905  13.750   6.833   7.097
89358SOL    HW169906  13.726   6.924   7.111
89358SOL    HW269907  13.843   6.835   7.076
89359SOL     OW69908   1.832   9.746   4.873
89359SOL    HW169909   1.816   9.679   4.806
89359SOL    HW269910   1.870   9.697   4.946
89360SOL     OW69911  13.083   1.994   9.346
89360SOL    HW169912  13.002   1.998   9.397
89360SOL    HW269913  13.060   2.033   9.262
89361SOL     OW69914  11.680  12.503   7.202
89361SOL    HW169915  11.774  12.517   7.197
89361SOL    HW269916  11.649  12.566   7.267
89362SOL     OW69917  13.944   9.183   1.777
89362SOL    HW169918  13.925   9.268   1.816
89362SOL    HW269919  13.940   9.199   1.683
89363SOL     OW69920   0.582  10.801   0.547
89363SOL    HW169921   0.536  10.880   0.575
89363SOL    HW269922   0.674  10.828   0.540
89364SOL     OW69923   5.618   9.400   3.656
89364SOL    HW169924   5.528   9.378   3.633
89364SOL    HW269925   5.658   9.428   3.573
89365SOL     OW69926  10.330   4.558   6.616
89365SOL    HW169927  10.369   4.601   6.691
89365SOL    HW269928  10.272   4.623   6.577
89366SOL     OW69929   1.061  11.264   7.539
89366SOL    HW169930   0.973  11.278   7.502
89366SOL    HW269931   1.046  11.214   7.619
89367SOL     OW69932  14.664   8.203   5.433
89367SOL    HW169933  14.584   8.158   5.459
89367SOL    HW269934  14.734   8.151   5.472
89368SOL     OW69935   0.655   8.263  14.147
89368SOL    HW169936   0.560   8.257  14.155
89368SOL    HW269937   0.677   8.199  14.079
89369SOL     OW69938  12.264   4.531   4.427
89369SOL    HW169939  12.213   4.596   4.379
89369SOL    HW269940  12.355   4.553   4.409
89370SOL     OW69941   3.323   3.368  12.686
89370SOL    HW169942   3.369   3.361  12.602
89370SOL    HW269943   3.308   3.278  12.712
89371SOL     OW69944   8.276   3.491   2.063
89371SOL    HW169945   8.282   3.475   1.969
89371SOL    HW269946   8.183   3.483   2.084
89372SOL     OW69947   0.865   6.196   0.198
89372SOL    HW169948   0.918   6.130   0.242
89372SOL    HW269949   0.904   6.206   0.111
89373SOL     OW69950   2.266   3.387   8.494
89373SOL    HW169951   2.300   3.363   8.580
89373SOL    HW269952   2.172   3.398   8.507
89374SOL     OW69953  12.081  11.483   0.954
89374SOL    HW169954  12.000  11.433   0.965
89374SOL    HW269955  12.113  11.497   1.044
89375SOL     OW69956  13.204   7.870   4.928
89375SOL    HW169957  13.257   7.812   4.872
89375SOL    HW269958  13.234   7.958   4.906
89376SOL     OW69959  12.484  12.955   6.912
89376SOL    HW169960  12.443  13.041   6.909
89376SOL    HW269961  12.423  12.898   6.866
89377SOL     OW69962   5.689  13.163   5.900
89377SOL    HW169963   5.641  13.205   5.972
89377SOL    HW269964   5.780  13.161   5.931
89378SOL     OW69965   9.343   4.622   7.843
89378SOL    HW169966   9.359   4.530   7.866
89378SOL    HW269967   9.275   4.649   7.905
89379SOL     OW69968   2.339   7.979   4.862
89379SOL    HW169969   2.407   7.941   4.919
89379SOL    HW269970   2.345   8.073   4.876
89380SOL     OW69971   9.973  13.485   6.537
89380SOL    HW169972  10.023  13.566   6.537
89380SOL    HW269973   9.990  13.447   6.623
89381SOL     OW69974   7.923   5.251   1.532
89381SOL    HW169975   7.842   5.281   1.490
89381SOL    HW269976   7.896   5.178   1.588
89382SOL     OW69977  13.368   4.949   1.946
89382SOL    HW169978  13.292   4.954   2.003
89382SOL    HW269979  13.443   4.956   2.006
89383SOL     OW69980   1.040  11.088   9.982
89383SOL    HW169981   1.114  11.028   9.987
89383SOL    HW269982   0.964  11.031   9.968
89384SOL     OW69983   1.265   0.410  14.772
89384SOL    HW169984   1.343   0.376  14.729
89384SOL    HW269985   1.285   0.406  14.866
89385SOL     OW69986  11.617  11.024   4.530
89385SOL    HW169987  11.571  11.025   4.614
89385SOL    HW269988  11.591  10.942   4.489
89386SOL     OW69989   1.915   9.391   4.984
89386SOL    HW169990   1.828   9.373   4.947
89386SOL    HW269991   1.910   9.481   5.015
89387SOL     OW69992  14.401  10.828   1.763
89387SOL    HW169993  14.474  10.786   1.810
89387SOL    HW269994  14.361  10.886   1.828
89388SOL     OW69995  14.344  10.532   9.338
89388SOL    HW169996  14.373  10.607   9.285
89388SOL    HW269997  14.320  10.465   9.274
89389SOL     OW69998   6.778   3.865   2.504
89389SOL    HW169999   6.726   3.871   2.425
89389SOL    HW270000   6.745   3.934   2.561
89390SOL     OW70001  13.578   8.678   4.915
89390SOL    HW170002  13.585   8.590   4.879
89390SOL    HW270003  13.596   8.736   4.840
89391SOL     OW70004   9.771  11.256   6.036
89391SOL    HW170005   9.772  11.351   6.048
89391SOL    HW270006   9.679  11.236   6.017
89392SOL     OW70007  11.413   4.630   5.187
89392SOL    HW170008  11.464   4.614   5.108
89392SOL    HW270009  11.459   4.702   5.231
89393SOL     OW70010   4.224   6.731   6.300
89393SOL    HW170011   4.257   6.820   6.310
89393SOL    HW270012   4.284   6.690   6.237
89394SOL     OW70013   2.225  11.560   8.151
89394SOL    HW170014   2.310  11.535   8.186
89394SOL    HW270015   2.232  11.654   8.135
89395SOL     OW70016   6.578   4.251  13.699
89395SOL    HW170017   6.563   4.225  13.790
89395SOL    HW270018   6.523   4.328  13.686
89396SOL     OW70019   3.541   3.531   1.608
89396SOL    HW170020   3.608   3.567   1.550
89396SOL    HW270021   3.503   3.608   1.650
89397SOL     OW70022   4.728   9.027   2.947
89397SOL    HW170023   4.672   9.084   3.000
89397SOL    HW270024   4.758   9.083   2.876
89398SOL     OW70025  11.126  14.858  12.049
89398SOL    HW170026  11.112  14.773  12.007
89398SOL    HW270027  11.221  14.869  12.051
89399SOL     OW70028   1.921   8.611   4.086
89399SOL    HW170029   1.990   8.558   4.125
89399SOL    HW270030   1.919   8.585   3.994
89400SOL     OW70031   9.265  11.981   3.890
89400SOL    HW170032   9.313  11.900   3.905
89400SOL    HW270033   9.198  11.983   3.959
89401SOL     OW70034   9.492   5.814   2.526
89401SOL    HW170035   9.585   5.794   2.526
89401SOL    HW270036   9.455   5.761   2.455
89402SOL     OW70037  10.378   4.684  13.549
89402SOL    HW170038  10.326   4.758  13.580
89402SOL    HW270039  10.437   4.663  13.621
89403SOL     OW70040   8.158  11.212   0.178
89403SOL    HW170041   8.109  11.131   0.195
89403SOL    HW270042   8.095  11.268   0.132
89404SOL     OW70043   1.089   4.343   9.595
89404SOL    HW170044   1.062   4.251   9.602
89404SOL    HW270045   1.177   4.340   9.558
89405SOL     OW70046   3.941   1.107   3.538
89405SOL    HW170047   3.917   1.015   3.547
89405SOL    HW270048   4.000   1.124   3.611
89406SOL     OW70049  11.410   8.611   3.360
89406SOL    HW170050  11.368   8.528   3.381
89406SOL    HW270051  11.359   8.646   3.287
89407SOL     OW70052  11.864   4.589   2.884
89407SOL    HW170053  11.934   4.624   2.939
89407SOL    HW270054  11.898   4.506   2.852
89408SOL     OW70055   1.425  14.785   4.254
89408SOL    HW170056   1.475  14.849   4.203
89408SOL    HW270057   1.449  14.803   4.345
89409SOL     OW70058  13.697  10.487   1.669
89409SOL    HW170059  13.755  10.497   1.744
89409SOL    HW270060  13.611  10.516   1.701
89410SOL     OW70061   8.375   7.625   0.593
89410SOL    HW170062   8.281   7.635   0.582
89410SOL    HW270063   8.412   7.704   0.554
89411SOL     OW70064   9.296   4.468   2.329
89411SOL    HW170065   9.236   4.399   2.356
89411SOL    HW270066   9.351   4.484   2.405
89412SOL     OW70067   8.623   3.696   0.287
89412SOL    HW170068   8.662   3.631   0.229
89412SOL    HW270069   8.542   3.656   0.317
89413SOL     OW70070  10.102   9.986   3.560
89413SOL    HW170071  10.161   9.912   3.551
89413SOL    HW270072  10.157  10.057   3.592
89414SOL     OW70073  10.794   6.847   2.884
89414SOL    HW170074  10.834   6.842   2.797
89414SOL    HW270075  10.792   6.940   2.904
89415SOL     OW70076   1.892   9.401   7.480
89415SOL    HW170077   1.806   9.442   7.485
89415SOL    HW270078   1.885   9.340   7.407
89416SOL     OW70079   5.429   1.259  13.207
89416SOL    HW170080   5.456   1.286  13.119
89416SOL    HW270081   5.477   1.318  13.266
89417SOL     OW70082   6.308  13.588  10.061
89417SOL    HW170083   6.298  13.524  10.132
89417SOL    HW270084   6.240  13.653  10.077
89418SOL     OW70085  13.741   4.195  10.233
89418SOL    HW170086  13.676   4.157  10.292
89418SOL    HW270087  13.795   4.250  10.289
89419SOL     OW70088  13.964  13.210   8.403
89419SOL    HW170089  13.961  13.294   8.358
89419SOL    HW270090  13.896  13.216   8.471
89420SOL     OW70091  14.088   4.015   6.255
89420SOL    HW170092  14.079   4.082   6.322
89420SOL    HW270093  14.177   4.026   6.222
89421SOL     OW70094  10.915   8.189   8.938
89421SOL    HW170095  10.829   8.201   8.899
89421SOL    HW270096  10.973   8.169   8.865
89422SOL     OW70097   2.661   0.940   9.481
89422SOL    HW170098   2.728   0.902   9.537
89422SOL    HW270099   2.585   0.949   9.538
89423SOL     OW70100   8.246   3.375  10.912
89423SOL    HW170101   8.194   3.321  10.853
89423SOL    HW270102   8.255   3.459  10.867
89424SOL     OW70103   1.550   0.294  13.554
89424SOL    HW170104   1.515   0.356  13.490
89424SOL    HW270105   1.583   0.349  13.625
89425SOL     OW70106   4.121   7.199   0.980
89425SOL    HW170107   4.122   7.125   0.919
89425SOL    HW270108   4.129   7.157   1.067
89426SOL     OW70109   2.898   1.232   8.804
89426SOL    HW170110   2.802   1.232   8.794
89426SOL    HW270111   2.917   1.318   8.841
89427SOL     OW70112   2.074   0.772   8.052
89427SOL    HW170113   2.086   0.858   8.012
89427SOL    HW270114   2.163   0.740   8.067
89428SOL     OW70115   8.286  13.930   7.222
89428SOL    HW170116   8.215  13.962   7.167
89428SOL    HW270117   8.263  13.838   7.240
89429SOL     OW70118   4.357   1.229   9.716
89429SOL    HW170119   4.334   1.139   9.738
89429SOL    HW270120   4.370   1.272   9.801
89430SOL     OW70121   1.514  13.593   1.803
89430SOL    HW170122   1.593  13.544   1.781
89430SOL    HW270123   1.442  13.535   1.778
89431SOL     OW70124   8.928   3.741  12.025
89431SOL    HW170125   8.895   3.750  12.115
89431SOL    HW270126   8.904   3.823  11.982
89432SOL     OW70127   3.234  10.793   6.569
89432SOL    HW170128   3.202  10.837   6.490
89432SOL    HW270129   3.258  10.706   6.539
89433SOL     OW70130  13.101  10.314   9.847
89433SOL    HW170131  13.102  10.236   9.792
89433SOL    HW270132  13.085  10.387   9.787
89434SOL     OW70133   2.288   4.240   1.684
89434SOL    HW170134   2.315   4.266   1.595
89434SOL    HW270135   2.200   4.205   1.673
89435SOL     OW70136   9.056   1.021   7.625
89435SOL    HW170137   8.977   0.989   7.668
89435SOL    HW270138   9.128   0.988   7.678
89436SOL     OW70139  11.163  12.203  13.224
89436SOL    HW170140  11.164  12.147  13.301
89436SOL    HW270141  11.236  12.172  13.170
89437SOL     OW70142   2.810  11.888   8.696
89437SOL    HW170143   2.822  11.845   8.780
89437SOL    HW270144   2.753  11.963   8.714
89438SOL     OW70145   6.962   0.094  12.892
89438SOL    HW170146   6.903   0.019  12.906
89438SOL    HW270147   7.039   0.056  12.849
89439SOL     OW70148   9.438  10.588   1.238
89439SOL    HW170149   9.383  10.511   1.248
89439SOL    HW270150   9.513  10.558   1.187
89440SOL     OW70151   6.588   7.832   3.576
89440SOL    HW170152   6.625   7.911   3.614
89440SOL    HW270153   6.602   7.841   3.482
89441SOL     OW70154   7.653   5.241   4.997
89441SOL    HW170155   7.599   5.190   4.937
89441SOL    HW270156   7.743   5.219   4.974
89442SOL     OW70157  14.839  11.474   1.113
89442SOL    HW170158   0.013  11.407   1.153
89442SOL    HW270159   0.015  11.522   1.054
89443SOL     OW70160   3.317  13.415   1.084
89443SOL    HW170161   3.295  13.355   1.014
89443SOL    HW270162   3.267  13.383   1.160
89444SOL     OW70163   2.572  10.688  14.612
89444SOL    HW170164   2.529  10.605  14.635
89444SOL    HW270165   2.628  10.708  14.687
89445SOL     OW70166   4.929  13.566  13.780
89445SOL    HW170167   4.916  13.493  13.841
89445SOL    HW270168   4.854  13.623  13.795
89446SOL     OW70169  14.231  14.653   0.921
89446SOL    HW170170  14.279  14.618   0.846
89446SOL    HW270171  14.281  14.730   0.948
89447SOL     OW70172  11.909  11.477   6.850
89447SOL    HW170173  11.894  11.562   6.891
89447SOL    HW270174  11.860  11.481   6.768
89448SOL     OW70175   5.499   5.934   5.292
89448SOL    HW170176   5.581   5.909   5.249
89448SOL    HW270177   5.526   5.963   5.379
89449SOL     OW70178   2.408  14.689  11.021
89449SOL    HW170179   2.383  14.700  10.929
89449SOL    HW270180   2.392  14.774  11.061
89450SOL     OW70181   1.323  10.300  10.256
89450SOL    HW170182   1.264  10.287  10.182
89450SOL    HW270183   1.397  10.242  10.238
89451SOL     OW70184   3.327   7.580   8.367
89451SOL    HW170185   3.291   7.633   8.296
89451SOL    HW270186   3.361   7.502   8.323
89452SOL     OW70187   9.306   1.462  12.957
89452SOL    HW170188   9.372   1.396  12.979
89452SOL    HW270189   9.253   1.421  12.889
89453SOL     OW70190   6.320   7.080  10.102
89453SOL    HW170191   6.242   7.055  10.151
89453SOL    HW270192   6.389   7.085  10.167
89454SOL     OW70193   6.478  14.281   0.388
89454SOL    HW170194   6.551  14.341   0.370
89454SOL    HW270195   6.485  14.263   0.482
89455SOL     OW70196   7.554  10.233   1.756
89455SOL    HW170197   7.555  10.317   1.710
89455SOL    HW270198   7.498  10.177   1.701
89456SOL     OW70199   5.968  10.507   8.263
89456SOL    HW170200   5.938  10.461   8.342
89456SOL    HW270201   5.997  10.437   8.204
89457SOL     OW70202  10.949  11.157   3.060
89457SOL    HW170203  11.013  11.154   3.131
89457SOL    HW270204  10.962  11.243   3.021
89458SOL     OW70205   1.719  11.964   8.961
89458SOL    HW170206   1.810  11.973   8.933
89458SOL    HW270207   1.672  11.938   8.883
89459SOL     OW70208  10.384   4.748  14.723
89459SOL    HW170209  10.312   4.768  14.782
89459SOL    HW270210  10.463   4.755  14.778
89460SOL     OW70211  10.099  12.873  13.611
89460SOL    HW170212  10.006  12.885  13.594
89460SOL    HW270213  10.114  12.911  13.697
89461SOL     OW70214  14.114   4.397  10.383
89461SOL    HW170215  14.174   4.465  10.354
89461SOL    HW270216  14.165   4.316  10.377
89462SOL     OW70217  10.614   9.014   5.946
89462SOL    HW170218  10.560   9.088   5.972
89462SOL    HW270219  10.696   9.026   5.994
89463SOL     OW70220   5.061   7.058   2.400
89463SOL    HW170221   5.062   6.967   2.367
89463SOL    HW270222   5.078   7.050   2.493
89464SOL     OW70223  13.342  13.507   2.839
89464SOL    HW170224  13.251  13.495   2.811
89464SOL    HW270225  13.389  13.532   2.760
89465SOL     OW70226   4.890   5.770   9.388
89465SOL    HW170227   4.877   5.707   9.318
89465SOL    HW270228   4.929   5.846   9.345
89466SOL     OW70229   5.497   5.664   4.153
89466SOL    HW170230   5.497   5.651   4.247
89466SOL    HW270231   5.470   5.755   4.141
89467SOL     OW70232   8.094   7.057  14.719
89467SOL    HW170233   8.073   7.143  14.755
89467SOL    HW270234   8.190   7.053  14.721
89468SOL     OW70235   8.092   0.095  13.707
89468SOL    HW170236   8.103   0.057  13.620
89468SOL    HW270237   8.168   0.151  13.719
89469SOL     OW70238   8.848  10.152  10.272
89469SOL    HW170239   8.853  10.093  10.197
89469SOL    HW270240   8.875  10.098  10.347
89470SOL     OW70241   5.847  13.789   9.252
89470SOL    HW170242   5.858  13.721   9.185
89470SOL    HW270243   5.799  13.746   9.323
89471SOL     OW70244   1.582   6.155   2.797
89471SOL    HW170245   1.502   6.156   2.744
89471SOL    HW270246   1.610   6.063   2.796
89472SOL     OW70247  11.206  12.475  12.682
89472SOL    HW170248  11.145  12.420  12.730
89472SOL    HW270249  11.169  12.563  12.688
89473SOL     OW70250  14.481   5.027   4.454
89473SOL    HW170251  14.495   5.094   4.520
89473SOL    HW270252  14.446   4.952   4.502
89474SOL     OW70253   2.733   1.561  10.419
89474SOL    HW170254   2.643   1.591  10.408
89474SOL    HW270255   2.726   1.466  10.432
89475SOL     OW70256  13.172   0.827   5.789
89475SOL    HW170257  13.208   0.745   5.823
89475SOL    HW270258  13.163   0.813   5.695
89476SOL     OW70259  10.948   5.907  13.607
89476SOL    HW170260  10.952   5.939  13.697
89476SOL    HW270261  10.953   5.986  13.553
89477SOL     OW70262   9.103   3.050   9.287
89477SOL    HW170263   9.184   3.097   9.270
89477SOL    HW270264   9.098   2.985   9.217
89478SOL     OW70265   6.994   1.853   8.514
89478SOL    HW170266   6.984   1.778   8.455
89478SOL    HW270267   7.015   1.926   8.456
89479SOL     OW70268   1.724  12.079   4.923
89479SOL    HW170269   1.735  12.163   4.966
89479SOL    HW270270   1.651  12.038   4.969
89480SOL     OW70271  10.950   2.145   4.177
89480SOL    HW170272  10.988   2.219   4.224
89480SOL    HW270273  11.025   2.091   4.153
89481SOL     OW70274   3.135   6.121   8.640
89481SOL    HW170275   3.047   6.133   8.602
89481SOL    HW270276   3.193   6.123   8.564
89482SOL     OW70277   2.763   9.633   1.322
89482SOL    HW170278   2.834   9.575   1.351
89482SOL    HW270279   2.775   9.638   1.227
89483SOL     OW70280   1.423   8.513   6.857
89483SOL    HW170281   1.420   8.577   6.786
89483SOL    HW270282   1.383   8.434   6.820
89484SOL     OW70283  11.091  11.841   1.176
89484SOL    HW170284  11.059  11.785   1.247
89484SOL    HW270285  11.186  11.828   1.176
89485SOL     OW70286   8.799  11.601   8.955
89485SOL    HW170287   8.858  11.612   9.029
89485SOL    HW270288   8.856  11.610   8.878
89486SOL     OW70289   4.649  13.476   2.170
89486SOL    HW170290   4.677  13.439   2.086
89486SOL    HW270291   4.729  13.514   2.207
89487SOL     OW70292   6.127   7.072  11.911
89487SOL    HW170293   6.095   7.161  11.923
89487SOL    HW270294   6.051   7.023  11.880
89488SOL     OW70295   8.941   4.161   0.841
89488SOL    HW170296   8.967   4.167   0.932
89488SOL    HW270297   8.867   4.221   0.833
89489SOL     OW70298   5.094   9.885   2.443
89489SOL    HW170299   5.123   9.904   2.354
89489SOL    HW270300   5.005   9.850   2.433
89490SOL     OW70301  10.875  10.679   8.403
89490SOL    HW170302  10.921  10.760   8.428
89490SOL    HW270303  10.803  10.709   8.347
89491SOL     OW70304  10.314   1.663  10.575
89491SOL    HW170305  10.358   1.578  10.586
89491SOL    HW270306  10.326   1.684  10.483
89492SOL     OW70307  13.027  13.607   0.999
89492SOL    HW170308  13.100  13.559   1.037
89492SOL    HW270309  12.993  13.660   1.071
89493SOL     OW70310  11.801   1.410   7.634
89493SOL    HW170311  11.857   1.334   7.617
89493SOL    HW270312  11.784   1.447   7.547
89494SOL     OW70313   1.997   3.647   0.507
89494SOL    HW170314   1.962   3.732   0.482
89494SOL    HW270315   1.938   3.583   0.468
89495SOL     OW70316   8.735   8.605   2.947
89495SOL    HW170317   8.810   8.548   2.963
89495SOL    HW270318   8.755   8.685   2.994
89496SOL     OW70319   0.394   1.393   2.613
89496SOL    HW170320   0.412   1.351   2.529
89496SOL    HW270321   0.300   1.412   2.612
89497SOL     OW70322  10.476   9.896   1.340
89497SOL    HW170323  10.476   9.811   1.385
89497SOL    HW270324  10.446   9.877   1.252
89498SOL     OW70325  11.605   6.841   5.164
89498SOL    HW170326  11.602   6.893   5.245
89498SOL    HW270327  11.696   6.850   5.134
89499SOL     OW70328   1.228   3.038   7.772
89499SOL    HW170329   1.189   3.068   7.854
89499SOL    HW270330   1.322   3.050   7.784
89500SOL     OW70331  11.659   1.659  12.508
89500SOL    HW170332  11.740   1.668  12.559
89500SOL    HW270333  11.608   1.594  12.555
89501SOL     OW70334  12.010   2.960   5.716
89501SOL    HW170335  12.104   2.970   5.701
89501SOL    HW270336  12.003   2.923   5.804
89502SOL     OW70337   0.237   0.719  10.152
89502SOL    HW170338   0.244   0.652  10.220
89502SOL    HW270339   0.192   0.675  10.080
89503SOL     OW70340   3.871   1.837  14.470
89503SOL    HW170341   3.805   1.773  14.444
89503SOL    HW270342   3.825   1.897  14.528
89504SOL     OW70343  12.252   4.630   4.690
89504SOL    HW170344  12.207   4.708   4.657
89504SOL    HW270345  12.263   4.574   4.614
89505SOL     OW70346   8.260  11.490   8.779
89505SOL    HW170347   8.293  11.455   8.695
89505SOL    HW270348   8.303  11.575   8.787
89506SOL     OW70349   8.156   4.903   6.977
89506SOL    HW170350   8.152   4.951   7.060
89506SOL    HW270351   8.159   4.971   6.910
89507SOL     OW70352   2.382   2.256   0.241
89507SOL    HW170353   2.291   2.246   0.214
89507SOL    HW270354   2.432   2.258   0.159
89508SOL     OW70355   0.212   6.823   5.048
89508SOL    HW170356   0.249   6.739   5.074
89508SOL    HW270357   0.142   6.801   4.987
89509SOL     OW70358  12.445   5.604  12.036
89509SOL    HW170359  12.510   5.673  12.027
89509SOL    HW270360  12.466   5.560  12.118
89510SOL     OW70361   0.050   7.028   1.159
89510SOL    HW170362   0.050   6.947   1.210
89510SOL    HW270363  14.842   7.037   1.127
89511SOL     OW70364   2.771   1.532   0.370
89511SOL    HW170365   2.731   1.610   0.409
89511SOL    HW270366   2.840   1.567   0.313
89512SOL     OW70367   7.663   3.045   3.969
89512SOL    HW170368   7.679   3.089   4.052
89512SOL    HW270369   7.650   2.953   3.993
89513SOL     OW70370   6.376  14.034   7.968
89513SOL    HW170371   6.408  13.958   7.920
89513SOL    HW270372   6.420  14.029   8.053
89514SOL     OW70373   1.911  14.611   0.712
89514SOL    HW170374   1.929  14.541   0.775
89514SOL    HW270375   1.834  14.581   0.664
89515SOL     OW70376  12.437  10.973   6.208
89515SOL    HW170377  12.430  11.060   6.247
89515SOL    HW270378  12.370  10.921   6.252
89516SOL     OW70379  11.539   1.513   5.632
89516SOL    HW170380  11.497   1.452   5.572
89516SOL    HW270381  11.543   1.465   5.715
89517SOL     OW70382   1.141  14.527  10.363
89517SOL    HW170383   1.148  14.484  10.448
89517SOL    HW270384   1.223  14.575  10.353
89518SOL     OW70385  10.939   3.290  14.008
89518SOL    HW170386  10.872   3.228  14.037
89518SOL    HW270387  10.891   3.372  13.994
89519SOL     OW70388   8.952   6.810   2.233
89519SOL    HW170389   8.908   6.880   2.282
89519SOL    HW270390   8.913   6.730   2.267
89520SOL     OW70391  13.878  14.838   8.677
89520SOL    HW170392  13.808   0.022   8.687
89520SOL    HW270393  13.932  14.872   8.606
89521SOL     OW70394   5.551   2.293   5.717
89521SOL    HW170395   5.571   2.221   5.777
89521SOL    HW270396   5.461   2.277   5.688
89522SOL     OW70397   1.547   9.598   3.453
89522SOL    HW170398   1.475   9.555   3.407
89522SOL    HW270399   1.506   9.640   3.529
89523SOL     OW70400   4.583   0.239   1.507
89523SOL    HW170401   4.529   0.179   1.457
89523SOL    HW270402   4.591   0.317   1.451
89524SOL     OW70403   9.869  12.624   2.358
89524SOL    HW170404   9.833  12.710   2.335
89524SOL    HW270405   9.826  12.602   2.441
89525SOL     OW70406   1.399  10.409   7.182
89525SOL    HW170407   1.464  10.422   7.113
89525SOL    HW270408   1.451  10.386   7.259
89526SOL     OW70409   6.428  10.709   1.304
89526SOL    HW170410   6.341  10.673   1.289
89526SOL    HW270411   6.474  10.698   1.221
89527SOL     OW70412   9.700  14.799   5.605
89527SOL    HW170413   9.637  14.748   5.555
89527SOL    HW270414   9.701   0.003   5.563
89528SOL     OW70415   0.962   7.334   9.372
89528SOL    HW170416   0.946   7.313   9.465
89528SOL    HW270417   0.892   7.288   9.325
89529SOL     OW70418   9.672   7.632   7.426
89529SOL    HW170419   9.631   7.718   7.425
89529SOL    HW270420   9.622   7.581   7.362
89530SOL     OW70421   4.359   8.901   9.848
89530SOL    HW170422   4.312   8.835   9.797
89530SOL    HW270423   4.291   8.953   9.891
89531SOL     OW70424   2.542   9.470   7.735
89531SOL    HW170425   2.542   9.502   7.826
89531SOL    HW270426   2.459   9.424   7.726
89532SOL     OW70427   4.221   7.557   4.322
89532SOL    HW170428   4.148   7.502   4.352
89532SOL    HW270429   4.179   7.638   4.293
89533SOL     OW70430  13.274  12.511  11.667
89533SOL    HW170431  13.353  12.524  11.614
89533SOL    HW270432  13.248  12.600  11.692
89534SOL     OW70433   9.768   5.335   7.794
89534SOL    HW170434   9.678   5.306   7.807
89534SOL    HW270435   9.813   5.258   7.757
89535SOL     OW70436   5.788  10.464  12.919
89535SOL    HW170437   5.751  10.439  13.003
89535SOL    HW270438   5.806  10.557  12.926
89536SOL     OW70439  12.319   5.787   5.019
89536SOL    HW170440  12.363   5.752   5.096
89536SOL    HW270441  12.274   5.712   4.980
89537SOL     OW70442   1.201   7.305   7.064
89537SOL    HW170443   1.172   7.319   6.974
89537SOL    HW270444   1.126   7.329   7.118
89538SOL     OW70445  12.718  12.884  10.815
89538SOL    HW170446  12.751  12.971  10.837
89538SOL    HW270447  12.784  12.824  10.851
89539SOL     OW70448   6.552  10.912   6.366
89539SOL    HW170449   6.522  11.001   6.348
89539SOL    HW270450   6.473  10.858   6.363
89540SOL     OW70451  13.778   7.913   1.653
89540SOL    HW170452  13.846   7.980   1.643
89540SOL    HW270453  13.696   7.963   1.653
89541SOL     OW70454   0.411  13.604   4.337
89541SOL    HW170455   0.429  13.605   4.243
89541SOL    HW270456   0.496  13.623   4.377
89542SOL     OW70457   2.827   9.986   1.588
89542SOL    HW170458   2.895  10.021   1.530
89542SOL    HW270459   2.750  10.041   1.571
89543SOL     OW70460  12.310  10.030  14.581
89543SOL    HW170461  12.271   9.997  14.662
89543SOL    HW270462  12.304   9.956  14.520
89544SOL     OW70463   5.161   7.488   6.139
89544SOL    HW170464   5.224   7.473   6.209
89544SOL    HW270465   5.082   7.443   6.168
89545SOL     OW70466   8.358   3.132  14.097
89545SOL    HW170467   8.392   3.044  14.115
89545SOL    HW270468   8.270   3.131  14.134
89546SOL     OW70469  13.805  14.200   5.538
89546SOL    HW170470  13.797  14.113   5.498
89546SOL    HW270471  13.737  14.252   5.494
89547SOL     OW70472  11.487  13.028  10.730
89547SOL    HW170473  11.453  13.113  10.702
89547SOL    HW270474  11.571  13.049  10.771
89548SOL     OW70475  13.012   2.123   9.077
89548SOL    HW170476  13.084   2.074   9.038
89548SOL    HW270477  12.954   2.142   9.003
89549SOL     OW70478  14.541  12.811   4.327
89549SOL    HW170479  14.452  12.846   4.327
89549SOL    HW270480  14.595  12.881   4.290
89550SOL     OW70481   1.023   1.993  14.087
89550SOL    HW170482   1.083   2.064  14.063
89550SOL    HW270483   1.060   1.915  14.046
89551SOL     OW70484   7.715   8.366  13.678
89551SOL    HW170485   7.727   8.436  13.614
89551SOL    HW270486   7.635   8.321  13.650
89552SOL     OW70487   4.797  10.997  11.992
89552SOL    HW170488   4.883  11.002  11.950
89552SOL    HW270489   4.811  11.031  12.080
89553SOL     OW70490   9.614   5.627  14.662
89553SOL    HW170491   9.538   5.685  14.662
89553SOL    HW270492   9.676   5.668  14.601
89554SOL     OW70493  14.364   7.601  12.312
89554SOL    HW170494  14.302   7.592  12.240
89554SOL    HW270495  14.438   7.545  12.287
89555SOL     OW70496   7.168   4.494   1.961
89555SOL    HW170497   7.117   4.446   1.896
89555SOL    HW270498   7.180   4.432   2.033
89556SOL     OW70499   8.640   3.264   9.340
89556SOL    HW170500   8.662   3.262   9.433
89556SOL    HW270501   8.545   3.249   9.338
89557SOL     OW70502  11.699   5.833   3.955
89557SOL    HW170503  11.631   5.895   3.982
89557SOL    HW270504  11.651   5.761   3.915
89558SOL     OW70505   1.532   5.711  10.269
89558SOL    HW170506   1.514   5.805  10.265
89558SOL    HW270507   1.620   5.701  10.234
89559SOL     OW70508   9.403  13.501  12.822
89559SOL    HW170509   9.366  13.447  12.892
89559SOL    HW270510   9.358  13.585  12.830
89560SOL     OW70511   2.572  13.249   8.121
89560SOL    HW170512   2.515  13.221   8.050
89560SOL    HW270513   2.512  13.286   8.187
89561SOL     OW70514   3.524   1.739   7.048
89561SOL    HW170515   3.463   1.811   7.031
89561SOL    HW270516   3.608   1.782   7.063
89562SOL     OW70517  11.450   1.451  12.920
89562SOL    HW170518  11.369   1.401  12.921
89562SOL    HW270519  11.434   1.524  12.980
89563SOL     OW70520   8.034   8.520   5.204
89563SOL    HW170521   8.000   8.439   5.244
89563SOL    HW270522   8.128   8.504   5.195
89564SOL     OW70523   7.384   6.311   7.701
89564SOL    HW170524   7.315   6.351   7.648
89564SOL    HW270525   7.432   6.255   7.641
89565SOL     OW70526   0.504   9.115  11.088
89565SOL    HW170527   0.469   9.203  11.104
89565SOL    HW270528   0.470   9.091  11.002
89566SOL     OW70529   8.938   2.102  13.274
89566SOL    HW170530   8.980   2.187  13.278
89566SOL    HW270531   8.983   2.050  13.341
89567SOL     OW70532   2.330   5.136   2.231
89567SOL    HW170533   2.400   5.075   2.207
89567SOL    HW270534   2.375   5.209   2.273
89568SOL     OW70535   4.755   7.023   3.303
89568SOL    HW170536   4.702   7.095   3.336
89568SOL    HW270537   4.819   7.065   3.245
89569SOL     OW70538   2.243   3.214   3.690
89569SOL    HW170539   2.322   3.205   3.744
89569SOL    HW270540   2.180   3.258   3.747
89570SOL     OW70541   0.101   1.479   1.626
89570SOL    HW170542   0.010   1.502   1.610
89570SOL    HW270543   0.148   1.511   1.549
89571SOL     OW70544  13.229   8.125  14.718
89571SOL    HW170545  13.294   8.110  14.650
89571SOL    HW270546  13.170   8.191  14.681
89572SOL     OW70547   7.165   2.379  13.067
89572SOL    HW170548   7.133   2.444  13.005
89572SOL    HW270549   7.149   2.418  13.153
89573SOL     OW70550   7.680  14.293   4.645
89573SOL    HW170551   7.718  14.378   4.622
89573SOL    HW270552   7.644  14.260   4.563
89574SOL     OW70553   1.539   8.602  10.674
89574SOL    HW170554   1.458   8.596  10.622
89574SOL    HW270555   1.525   8.542  10.747
89575SOL     OW70556  13.058  12.843   6.161
89575SOL    HW170557  13.039  12.804   6.247
89575SOL    HW270558  12.986  12.813   6.105
89576SOL     OW70559   6.430  10.966  14.120
89576SOL    HW170560   6.431  10.926  14.033
89576SOL    HW270561   6.354  11.025  14.118
89577SOL     OW70562   8.735   7.104  13.105
89577SOL    HW170563   8.726   7.154  13.024
89577SOL    HW270564   8.658   7.127  13.156
89578SOL     OW70565  11.166  12.042  11.465
89578SOL    HW170566  11.163  12.001  11.379
89578SOL    HW270567  11.171  12.136  11.447
89579SOL     OW70568   5.186   6.355  12.263
89579SOL    HW170569   5.162   6.263  12.275
89579SOL    HW270570   5.133   6.403  12.327
89580SOL     OW70571   8.550   6.923  12.480
89580SOL    HW170572   8.605   6.848  12.457
89580SOL    HW270573   8.595   6.964  12.553
89581SOL     OW70574   6.158  13.535   3.676
89581SOL    HW170575   6.113  13.454   3.700
89581SOL    HW270576   6.210  13.557   3.754
89582SOL     OW70577   6.894  12.785   6.397
89582SOL    HW170578   6.943  12.830   6.328
89582SOL    HW270579   6.950  12.712   6.422
89583SOL     OW70580   1.820   2.370   5.023
89583SOL    HW170581   1.904   2.385   5.066
89583SOL    HW270582   1.764   2.440   5.056
89584SOL     OW70583  10.377   3.784   4.063
89584SOL    HW170584  10.371   3.763   3.970
89584SOL    HW270585  10.304   3.844   4.079
89585SOL     OW70586  13.141   4.392   4.391
89585SOL    HW170587  13.103   4.365   4.474
89585SOL    HW270588  13.233   4.368   4.397
89586SOL     OW70589  12.605   1.415   6.409
89586SOL    HW170590  12.604   1.446   6.499
89586SOL    HW270591  12.664   1.475   6.364
89587SOL     OW70592   3.385   0.228  10.159
89587SOL    HW170593   3.291   0.219  10.144
89587SOL    HW270594   3.412   0.143  10.193
89588SOL     OW70595   7.013   9.892   2.726
89588SOL    HW170596   7.017   9.873   2.819
89588SOL    HW270597   6.920   9.884   2.703
89589SOL     OW70598   5.717   0.181   4.036
89589SOL    HW170599   5.692   0.188   4.128
89589SOL    HW270600   5.742   0.089   4.025
89590SOL     OW70601  13.726   2.243   1.364
89590SOL    HW170602  13.785   2.173   1.392
89590SOL    HW270603  13.758   2.321   1.411
89591SOL     OW70604  12.256  10.665   5.259
89591SOL    HW170605  12.213  10.595   5.308
89591SOL    HW270606  12.184  10.720   5.228
89592SOL     OW70607   2.754   8.756  12.640
89592SOL    HW170608   2.717   8.832  12.593
89592SOL    HW270609   2.701   8.750  12.720
89593SOL     OW70610  13.456   1.522   5.226
89593SOL    HW170611  13.399   1.563   5.291
89593SOL    HW270612  13.521   1.474   5.277
89594SOL     OW70613  11.489   5.407   3.404
89594SOL    HW170614  11.562   5.348   3.384
89594SOL    HW270615  11.444   5.364   3.477
89595SOL     OW70616   0.780  11.683   4.093
89595SOL    HW170617   0.845  11.753   4.082
89595SOL    HW270618   0.747  11.667   4.004
89596SOL     OW70619   0.740  11.867   3.577
89596SOL    HW170620   0.819  11.814   3.569
89596SOL    HW270621   0.761  11.933   3.642
89597SOL     OW70622   3.035   1.244   2.173
89597SOL    HW170623   2.974   1.258   2.101
89597SOL    HW270624   2.983   1.198   2.240
89598SOL     OW70625  13.364  13.651   4.519
89598SOL    HW170626  13.336  13.738   4.491
89598SOL    HW270627  13.457  13.660   4.536
89599SOL     OW70628   3.228   0.864   4.988
89599SOL    HW170629   3.216   0.791   4.928
89599SOL    HW270630   3.273   0.827   5.064
89600SOL     OW70631   6.351   5.325   1.493
89600SOL    HW170632   6.424   5.358   1.545
89600SOL    HW270633   6.273   5.361   1.536
89601SOL     OW70634  13.301   4.870   7.370
89601SOL    HW170635  13.372   4.933   7.384
89601SOL    HW270636  13.315   4.839   7.281
89602SOL     OW70637   7.451  12.130   2.048
89602SOL    HW170638   7.449  12.060   1.983
89602SOL    HW270639   7.470  12.209   1.998
89603SOL     OW70640  12.488   1.977   6.573
89603SOL    HW170641  12.423   2.044   6.593
89603SOL    HW270642  12.489   1.973   6.478
89604SOL     OW70643   0.318   4.007  12.800
89604SOL    HW170644   0.399   3.992  12.848
89604SOL    HW270645   0.302   4.101  12.809
89605SOL     OW70646   7.667   3.564  14.563
89605SOL    HW170647   7.739   3.504  14.543
89605SOL    HW270648   7.686   3.595  14.652
89606SOL     OW70649   9.279   2.381   1.761
89606SOL    HW170650   9.310   2.309   1.817
89606SOL    HW270651   9.359   2.423   1.730
89607SOL     OW70652  11.408   2.357  11.301
89607SOL    HW170653  11.343   2.337  11.234
89607SOL    HW270654  11.436   2.447  11.281
89608SOL     OW70655  10.257  10.527   2.822
89608SOL    HW170656  10.257  10.618   2.849
89608SOL    HW270657  10.297  10.528   2.735
89609SOL     OW70658   1.612  10.158   4.321
89609SOL    HW170659   1.630  10.121   4.407
89609SOL    HW270660   1.559  10.236   4.338
89610SOL     OW70661  10.401  10.940  14.251
89610SOL    HW170662  10.425  11.006  14.187
89610SOL    HW270663  10.309  10.957  14.271
89611SOL     OW70664   1.934  10.288   8.083
89611SOL    HW170665   2.012  10.298   8.137
89611SOL    HW270666   1.951  10.343   8.006
89612SOL     OW70667  14.546   5.561  14.634
89612SOL    HW170668  14.629   5.515  14.642
89612SOL    HW270669  14.562   5.628  14.567
89613SOL     OW70670   7.498   7.377   0.383
89613SOL    HW170671   7.587   7.347   0.366
89613SOL    HW270672   7.475   7.337   0.467
89614SOL     OW70673   5.542   4.437   8.870
89614SOL    HW170674   5.475   4.504   8.853
89614SOL    HW270675   5.608   4.451   8.802
89615SOL     OW70676   0.473   7.722   8.254
89615SOL    HW170677   0.491   7.787   8.321
89615SOL    HW270678   0.450   7.774   8.176
89616SOL     OW70679   7.173  10.310  13.841
89616SOL    HW170680   7.255  10.351  13.871
89616SOL    HW270681   7.149  10.360  13.763
89617SOL     OW70682   1.802   2.443   3.008
89617SOL    HW170683   1.735   2.443   3.077
89617SOL    HW270684   1.763   2.494   2.937
89618SOL     OW70685   9.090   2.047  12.248
89618SOL    HW170686   9.143   2.008  12.178
89618SOL    HW270687   9.114   2.140  12.247
89619SOL     OW70688   1.758   7.883   6.532
89619SOL    HW170689   1.735   7.925   6.448
89619SOL    HW270690   1.688   7.820   6.547
89620SOL     OW70691   8.497   4.420   4.081
89620SOL    HW170692   8.587   4.404   4.111
89620SOL    HW270693   8.472   4.339   4.036
89621SOL     OW70694  10.827  13.523   3.654
89621SOL    HW170695  10.739  13.491   3.674
89621SOL    HW270696  10.838  13.599   3.711
89622SOL     OW70697  12.717   4.012   0.355
89622SOL    HW170698  12.746   4.043   0.270
89622SOL    HW270699  12.670   3.931   0.336
89623SOL     OW70700   6.008   1.666   6.901
89623SOL    HW170701   5.973   1.596   6.957
89623SOL    HW270702   6.101   1.646   6.893
89624SOL     OW70703  10.350   8.859   9.816
89624SOL    HW170704  10.287   8.897   9.878
89624SOL    HW270705  10.351   8.766   9.838
89625SOL     OW70706   3.226   9.655   6.629
89625SOL    HW170707   3.194   9.670   6.540
89625SOL    HW270708   3.239   9.743   6.665
89626SOL     OW70709   8.109   4.218   9.464
89626SOL    HW170710   8.024   4.184   9.436
89626SOL    HW270711   8.168   4.142   9.458
89627SOL     OW70712  13.808   2.206   6.395
89627SOL    HW170713  13.854   2.240   6.318
89627SOL    HW270714  13.848   2.252   6.469
89628SOL     OW70715   5.026   7.013   0.253
89628SOL    HW170716   5.044   7.041   0.343
89628SOL    HW270717   5.106   7.033   0.205
89629SOL     OW70718  12.082   1.911  13.752
89629SOL    HW170719  12.062   1.819  13.765
89629SOL    HW270720  12.089   1.921  13.657
89630SOL     OW70721   3.455   7.432   9.527
89630SOL    HW170722   3.434   7.341   9.548
89630SOL    HW270723   3.386   7.460   9.468
89631SOL     OW70724  10.889   7.089   2.650
89631SOL    HW170725  10.833   7.140   2.592
89631SOL    HW270726  10.917   7.014   2.597
89632SOL     OW70727  10.078   7.957  10.210
89632SOL    HW170728  10.102   8.048  10.194
89632SOL    HW270729  10.023   7.960  10.289
89633SOL     OW70730   6.404   5.688   7.448
89633SOL    HW170731   6.418   5.782   7.460
89633SOL    HW270732   6.364   5.680   7.361
89634SOL     OW70733   1.843  13.678   6.502
89634SOL    HW170734   1.842  13.733   6.580
89634SOL    HW270735   1.841  13.588   6.536
89635SOL     OW70736  13.276   2.445   2.879
89635SOL    HW170737  13.189   2.425   2.845
89635SOL    HW270738  13.272   2.424   2.972
89636SOL     OW70739   8.838  13.161   6.108
89636SOL    HW170740   8.795  13.244   6.128
89636SOL    HW270741   8.923  13.185   6.073
89637SOL     OW70742   4.304   2.378   3.675
89637SOL    HW170743   4.379   2.398   3.731
89637SOL    HW270744   4.342   2.355   3.591
89638SOL     OW70745   2.364   1.402   6.186
89638SOL    HW170746   2.312   1.358   6.253
89638SOL    HW270747   2.299   1.436   6.124
89639SOL     OW70748   0.364  11.890  12.866
89639SOL    HW170749   0.390  11.867  12.956
89639SOL    HW270750   0.397  11.819  12.812
89640SOL     OW70751  13.144   7.710   3.642
89640SOL    HW170752  13.141   7.800   3.674
89640SOL    HW270753  13.219   7.671   3.688
89641SOL     OW70754  11.460   1.975   6.939
89641SOL    HW170755  11.372   1.968   6.975
89641SOL    HW270756  11.454   2.044   6.873
89642SOL     OW70757   6.466   2.352   4.766
89642SOL    HW170758   6.503   2.295   4.833
89642SOL    HW270759   6.407   2.411   4.814
89643SOL     OW70760   3.330   4.239   4.960
89643SOL    HW170761   3.282   4.199   4.888
89643SOL    HW270762   3.410   4.273   4.920
89644SOL     OW70763  13.760  10.877  11.573
89644SOL    HW170764  13.825  10.948  11.572
89644SOL    HW270765  13.719  10.881  11.487
89645SOL     OW70766   0.617   4.035  10.129
89645SOL    HW170767   0.681   4.003  10.066
89645SOL    HW270768   0.653   4.119  10.159
89646SOL     OW70769   9.482   9.483  12.509
89646SOL    HW170770   9.443   9.424  12.445
89646SOL    HW270771   9.417   9.553  12.520
89647SOL     OW70772  12.810   8.609  12.521
89647SOL    HW170773  12.905   8.607  12.527
89647SOL    HW270774  12.792   8.623  12.427
89648SOL     OW70775  12.874  13.101  14.039
89648SOL    HW170776  12.782  13.118  14.019
89648SOL    HW270777  12.921  13.175  14.002
89649SOL     OW70778   0.843   4.345  10.654
89649SOL    HW170779   0.920   4.304  10.615
89649SOL    HW270780   0.874   4.429  10.687
89650SOL     OW70781  12.279   1.141   4.245
89650SOL    HW170782  12.258   1.050   4.268
89650SOL    HW270783  12.278   1.142   4.150
89651SOL     OW70784   3.426   3.842  13.138
89651SOL    HW170785   3.381   3.872  13.059
89651SOL    HW270786   3.485   3.914  13.160
89652SOL     OW70787   9.953  10.113   8.555
89652SOL    HW170788  10.025  10.113   8.493
89652SOL    HW270789   9.887  10.169   8.515
89653SOL     OW70790  14.817   2.564  11.281
89653SOL    HW170791  14.835   2.607  11.364
89653SOL    HW270792  14.728   2.593  11.258
89654SOL     OW70793   6.359   9.573   4.174
89654SOL    HW170794   6.323   9.624   4.101
89654SOL    HW270795   6.444   9.544   4.143
89655SOL     OW70796   3.859   6.432   4.711
89655SOL    HW170797   3.781   6.467   4.753
89655SOL    HW270798   3.926   6.434   4.780
89656SOL     OW70799   0.131  12.377  13.702
89656SOL    HW170800   0.146  12.359  13.795
89656SOL    HW270801   0.206  12.336  13.658
89657SOL     OW70802   5.507  13.794  11.121
89657SOL    HW170803   5.594  13.759  11.101
89657SOL    HW270804   5.500  13.872  11.066
89658SOL     OW70805   7.255   9.671   3.647
89658SOL    HW170806   7.326   9.732   3.669
89658SOL    HW270807   7.202   9.720   3.584
89659SOL     OW70808   6.676  13.564  11.465
89659SOL    HW170809   6.725  13.647  11.460
89659SOL    HW270810   6.586  13.588  11.445
89660SOL     OW70811   5.756   9.933  13.238
89660SOL    HW170812   5.709   9.894  13.312
89660SOL    HW270813   5.687   9.967  13.181
89661SOL     OW70814   1.597  12.371  12.094
89661SOL    HW170815   1.542  12.293  12.094
89661SOL    HW270816   1.671  12.349  12.151
89662SOL     OW70817   6.621   9.213   1.382
89662SOL    HW170818   6.541   9.178   1.421
89662SOL    HW270819   6.607   9.206   1.288
89663SOL     OW70820   8.017   0.987   1.126
89663SOL    HW170821   7.932   0.980   1.083
89663SOL    HW270822   8.062   0.906   1.103
89664SOL     OW70823   0.099   7.725   0.610
89664SOL    HW170824   0.074   7.811   0.643
89664SOL    HW270825   0.177   7.742   0.557
89665SOL     OW70826   4.981  14.795  11.216
89665SOL    HW170827   4.993  14.701  11.225
89665SOL    HW270828   4.911  14.805  11.152
89666SOL     OW70829   6.057   1.755   1.420
89666SOL    HW170830   5.963   1.740   1.427
89666SOL    HW270831   6.091   1.732   1.506
89667SOL     OW70832   4.068   5.364   4.844
89667SOL    HW170833   4.074   5.448   4.889
89667SOL    HW270834   3.974   5.350   4.834
89668SOL     OW70835   7.227   0.926  13.538
89668SOL    HW170836   7.220   0.929  13.633
89668SOL    HW270837   7.227   1.017  13.510
89669SOL     OW70838   2.338   2.829   9.416
89669SOL    HW170839   2.244   2.841   9.403
89669SOL    HW270840   2.348   2.813   9.510
89670SOL     OW70841   0.096   1.151   6.341
89670SOL    HW170842   0.101   1.179   6.432
89670SOL    HW270843   0.041   1.073   6.342
89671SOL     OW70844   6.950   0.757  14.088
89671SOL    HW170845   6.879   0.820  14.098
89671SOL    HW270846   7.001   0.763  14.169
89672SOL     OW70847   4.763  12.559  10.492
89672SOL    HW170848   4.786  12.467  10.480
89672SOL    HW270849   4.736  12.588  10.405
89673SOL     OW70850  12.316   9.047   8.055
89673SOL    HW170851  12.329   9.065   7.962
89673SOL    HW270852  12.340   9.129   8.098
89674SOL     OW70853   2.493  13.955  13.345
89674SOL    HW170854   2.574  13.977  13.299
89674SOL    HW270855   2.508  13.867  13.380
89675SOL     OW70856   1.292  14.446   3.529
89675SOL    HW170857   1.339  14.375   3.572
89675SOL    HW270858   1.332  14.452   3.442
89676SOL     OW70859   5.155   0.612  11.456
89676SOL    HW170860   5.098   0.609  11.380
89676SOL    HW270861   5.099   0.647  11.526
89677SOL     OW70862  13.757   5.447   6.965
89677SOL    HW170863  13.805   5.438   7.047
89677SOL    HW270864  13.808   5.398   6.901
89678SOL     OW70865  12.656   0.425   4.952
89678SOL    HW170866  12.726   0.478   4.915
89678SOL    HW270867  12.688   0.335   4.944
89679SOL     OW70868   8.155   5.055   0.063
89679SOL    HW170869   8.086   5.104   0.109
89679SOL    HW270870   8.169   4.977   0.116
89680SOL     OW70871  12.705   9.013   9.513
89680SOL    HW170872  12.700   9.019   9.608
89680SOL    HW270873  12.793   8.981   9.495
89681SOL     OW70874  10.691   3.383  12.523
89681SOL    HW170875  10.697   3.291  12.496
89681SOL    HW270876  10.645   3.426  12.451
89682SOL     OW70877   6.407  11.586  12.580
89682SOL    HW170878   6.439  11.608  12.492
89682SOL    HW270879   6.313  11.605  12.577
89683SOL     OW70880   5.654  13.825   4.806
89683SOL    HW170881   5.696  13.798   4.724
89683SOL    HW270882   5.565  13.850   4.780
89684SOL     OW70883   7.752   1.476   5.181
89684SOL    HW170884   7.795   1.460   5.097
89684SOL    HW270885   7.821   1.462   5.246
89685SOL     OW70886  11.538  11.475  14.024
89685SOL    HW170887  11.585  11.413  14.080
89685SOL    HW270888  11.591  11.481  13.944
89686SOL     OW70889   1.587   7.009   4.859
89686SOL    HW170890   1.644   7.044   4.927
89686SOL    HW270891   1.647   6.977   4.791
89687SOL     OW70892   9.242   2.745  10.792
89687SOL    HW170893   9.222   2.812  10.726
89687SOL    HW270894   9.257   2.665  10.741
89688SOL     OW70895   6.585   3.267  13.485
89688SOL    HW170896   6.589   3.275  13.389
89688SOL    HW270897   6.544   3.348  13.514
89689SOL     OW70898  10.437  13.900   7.576
89689SOL    HW170899  10.455  13.969   7.513
89689SOL    HW270900  10.510  13.838   7.564
89690SOL     OW70901  11.023   1.739  10.652
89690SOL    HW170902  10.971   1.808  10.612
89690SOL    HW270903  11.001   1.744  10.745
89691SOL     OW70904  10.722  13.692   8.883
89691SOL    HW170905  10.758  13.748   8.815
89691SOL    HW270906  10.743  13.738   8.965
89692SOL     OW70907   4.431  10.428   8.614
89692SOL    HW170908   4.490  10.376   8.560
89692SOL    HW270909   4.401  10.498   8.556
89693SOL     OW70910   2.338   7.843   4.601
89693SOL    HW170911   2.369   7.917   4.548
89693SOL    HW270912   2.353   7.870   4.691
89694SOL     OW70913  11.235   1.766   0.466
89694SOL    HW170914  11.204   1.848   0.505
89694SOL    HW270915  11.325   1.785   0.439
89695SOL     OW70916   3.617  11.340  11.299
89695SOL    HW170917   3.659  11.406  11.244
89695SOL    HW270918   3.689  11.296  11.343
89696SOL     OW70919   9.586   6.270   4.530
89696SOL    HW170920   9.661   6.255   4.588
89696SOL    HW270921   9.561   6.183   4.500
89697SOL     OW70922   8.654   2.489   1.876
89697SOL    HW170923   8.693   2.573   1.902
89697SOL    HW270924   8.560   2.503   1.880
89698SOL     OW70925  11.971   7.326  14.742
89698SOL    HW170926  11.977   7.366  14.829
89698SOL    HW270927  11.940   7.397  14.686
89699SOL     OW70928   2.473   8.138   8.598
89699SOL    HW170929   2.379   8.153   8.593
89699SOL    HW270930   2.489   8.123   8.692
89700SOL     OW70931   5.562  11.008  12.092
89700SOL    HW170932   5.533  10.917  12.097
89700SOL    HW270933   5.528  11.040  12.009
89701SOL     OW70934   9.326   6.724  13.660
89701SOL    HW170935   9.278   6.721  13.743
89701SOL    HW270936   9.312   6.813  13.628
89702SOL     OW70937   5.209   4.823  12.274
89702SOL    HW170938   5.222   4.728  12.278
89702SOL    HW270939   5.244   4.848  12.188
89703SOL     OW70940   2.293   1.311   5.263
89703SOL    HW170941   2.259   1.384   5.316
89703SOL    HW270942   2.378   1.342   5.232
89704SOL     OW70943   4.310  13.776   8.714
89704SOL    HW170944   4.273  13.768   8.626
89704SOL    HW270945   4.234  13.779   8.772
89705SOL     OW70946   5.173   7.068   4.188
89705SOL    HW170947   5.128   7.095   4.268
89705SOL    HW270948   5.219   6.987   4.212
89706SOL     OW70949  12.507  11.918   4.024
89706SOL    HW170950  12.593  11.950   4.053
89706SOL    HW270951  12.525  11.828   3.996
89707SOL     OW70952  14.579  10.536   8.997
89707SOL    HW170953  14.657  10.588   8.979
89707SOL    HW270954  14.583  10.463   8.936
89708SOL     OW70955  10.241   3.596  13.152
89708SOL    HW170956  10.190   3.530  13.199
89708SOL    HW270957  10.318   3.549  13.121
89709SOL     OW70958  13.317   0.448   7.825
89709SOL    HW170959  13.292   0.389   7.896
89709SOL    HW270960  13.248   0.514   7.823
89710SOL     OW70961   6.703   9.384   7.196
89710SOL    HW170962   6.695   9.424   7.109
89710SOL    HW270963   6.699   9.458   7.257
89711SOL     OW70964   5.047   4.780   9.824
89711SOL    HW170965   5.072   4.754   9.736
89711SOL    HW270966   5.052   4.876   9.823
89712SOL     OW70967  10.769   6.245   1.408
89712SOL    HW170968  10.842   6.262   1.468
89712SOL    HW270969  10.709   6.190   1.458
89713SOL     OW70970  13.971   5.071   2.516
89713SOL    HW170971  13.944   5.055   2.607
89713SOL    HW270972  13.917   5.145   2.488
89714SOL     OW70973   0.173   2.880  13.782
89714SOL    HW170974   0.262   2.914  13.794
89714SOL    HW270975   0.117   2.943  13.827
89715SOL     OW70976   3.823   0.995  12.681
89715SOL    HW170977   3.755   1.049  12.721
89715SOL    HW270978   3.870   1.054  12.623
89716SOL     OW70979   7.715  12.633  14.749
89716SOL    HW170980   7.755  12.718  14.765
89716SOL    HW270981   7.649  12.624  14.818
89717SOL     OW70982   9.690   4.298   6.601
89717SOL    HW170983   9.711   4.206   6.615
89717SOL    HW270984   9.727   4.344   6.677
89718SOL     OW70985   2.673   5.669   5.821
89718SOL    HW170986   2.763   5.636   5.826
89718SOL    HW270987   2.682   5.758   5.786
89719SOL     OW70988   4.078   2.193   4.781
89719SOL    HW170989   4.096   2.281   4.750
89719SOL    HW270990   4.119   2.189   4.867
89720SOL     OW70991  11.188  10.279  14.079
89720SOL    HW170992  11.224  10.347  14.135
89720SOL    HW270993  11.164  10.324  13.998
89721SOL     OW70994   1.658  14.856   6.775
89721SOL    HW170995   1.748  14.872   6.748
89721SOL    HW270996   1.660  14.860   6.871
89722SOL     OW70997   5.521   6.360  14.451
89722SOL    HW170998   5.616   6.352  14.459
89722SOL    HW270999   5.501   6.444  14.493
89723SOL     OW71000   2.842   2.647  11.201
89723SOL    HW171001   2.792   2.633  11.281
89723SOL    HW271002   2.894   2.726  11.218
89724SOL     OW71003  12.010  12.356   8.385
89724SOL    HW171004  11.921  12.390   8.398
89724SOL    HW271005  12.062  12.433   8.367
89725SOL     OW71006   8.350   8.909   3.521
89725SOL    HW171007   8.255   8.908   3.531
89725SOL    HW271008   8.366   8.868   3.436
89726SOL     OW71009  13.473  13.145  13.244
89726SOL    HW171010  13.494  13.071  13.300
89726SOL    HW271011  13.498  13.116  13.156
89727SOL     OW71012   5.040  12.667  10.925
89727SOL    HW171013   5.102  12.639  10.993
89727SOL    HW271014   4.972  12.600  10.927
89728SOL     OW71015   0.298  12.454   0.209
89728SOL    HW171016   0.323  12.543   0.235
89728SOL    HW271017   0.282  12.409   0.292
89729SOL     OW71018   2.988   2.809   4.423
89729SOL    HW171019   3.084   2.809   4.421
89729SOL    HW271020   2.963   2.773   4.338
89730SOL     OW71021   1.697   8.958  12.266
89730SOL    HW171022   1.625   9.004  12.223
89730SOL    HW271023   1.747   9.027  12.310
89731SOL     OW71024   9.847   8.178  14.803
89731SOL    HW171025   9.870   8.155  14.713
89731SOL    HW271026   9.916   8.137  14.856
89732SOL     OW71027   0.222   6.602  12.557
89732SOL    HW171028   0.206   6.627  12.466
89732SOL    HW271029   0.141   6.560  12.585
89733SOL     OW71030   3.868  10.489  12.258
89733SOL    HW171031   3.798  10.425  12.247
89733SOL    HW271032   3.941  10.454  12.207
89734SOL     OW71033   9.135   5.674   3.821
89734SOL    HW171034   9.138   5.582   3.846
89734SOL    HW271035   9.223   5.693   3.788
89735SOL     OW71036  10.706   1.737  13.167
89735SOL    HW171037  10.718   1.706  13.077
89735SOL    HW271038  10.764   1.682  13.220
89736SOL     OW71039   1.421   6.341   8.841
89736SOL    HW171040   1.439   6.383   8.925
89736SOL    HW271041   1.487   6.377   8.782
89737SOL     OW71042  14.102  11.204  11.289
89737SOL    HW171043  14.180  11.153  11.270
89737SOL    HW271044  14.038  11.176  11.223
89738SOL     OW71045   4.400   5.110   6.696
89738SOL    HW171046   4.465   5.174   6.668
89738SOL    HW271047   4.342   5.100   6.620
89739SOL     OW71048  13.247   5.885   1.130
89739SOL    HW171049  13.239   5.958   1.192
89739SOL    HW271050  13.159   5.878   1.091
89740SOL     OW71051   6.685  14.711   6.664
89740SOL    HW171052   6.598  14.752   6.661
89740SOL    HW271053   6.745  14.781   6.637
89741SOL     OW71054   0.594   1.570   2.510
89741SOL    HW171055   0.535   1.642   2.489
89741SOL    HW271056   0.540   1.509   2.560
89742SOL     OW71057  12.256   3.603   5.860
89742SOL    HW171058  12.284   3.529   5.807
89742SOL    HW271059  12.169   3.625   5.826
89743SOL     OW71060   9.646   3.007   2.589
89743SOL    HW171061   9.689   3.052   2.516
89743SOL    HW271062   9.650   3.069   2.661
89744SOL     OW71063   2.362  13.389  13.876
89744SOL    HW171064   2.307  13.316  13.906
89744SOL    HW271065   2.315  13.467  13.904
89745SOL     OW71066   8.631   6.819   1.746
89745SOL    HW171067   8.550   6.801   1.794
89745SOL    HW271068   8.688   6.860   1.810
89746SOL     OW71069  13.114   7.784  11.137
89746SOL    HW171070  13.145   7.807  11.050
89746SOL    HW271071  13.093   7.691  11.132
89747SOL     OW71072   8.032   7.195  14.018
89747SOL    HW171073   8.021   7.108  14.057
89747SOL    HW271074   7.975   7.252  14.069
89748SOL     OW71075   3.840  14.406   8.308
89748SOL    HW171076   3.791  14.485   8.331
89748SOL    HW271077   3.781  14.357   8.251
89749SOL     OW71078  14.343   2.330   7.052
89749SOL    HW171079  14.410   2.382   7.096
89749SOL    HW271080  14.346   2.245   7.096
89750SOL     OW71081  11.603   2.796   8.180
89750SOL    HW171082  11.636   2.880   8.148
89750SOL    HW271083  11.642   2.787   8.267
89751SOL     OW71084   8.475   2.812   6.366
89751SOL    HW171085   8.485   2.717   6.358
89751SOL    HW271086   8.380   2.826   6.366
89752SOL     OW71087  12.806   9.654  10.833
89752SOL    HW171088  12.827   9.729  10.777
89752SOL    HW271089  12.888   9.633  10.877
89753SOL     OW71090   1.511   0.687  14.288
89753SOL    HW171091   1.441   0.624  14.306
89753SOL    HW271092   1.493   0.760  14.348
89754SOL     OW71093  14.872   9.951  10.445
89754SOL    HW171094   0.042  10.026  10.473
89754SOL    HW271095   0.041   9.875  10.472
89755SOL     OW71096   9.154  14.838   5.447
89755SOL    HW171097   9.074  14.787   5.435
89755SOL    HW271098   9.125   0.047   5.444
89756SOL     OW71099   4.080   8.541   0.946
89756SOL    HW171100   4.018   8.614   0.940
89756SOL    HW271101   4.164   8.578   0.921
89757SOL     OW71102  10.910   7.819   5.589
89757SOL    HW171103  10.964   7.771   5.526
89757SOL    HW271104  10.953   7.804   5.673
89758SOL     OW71105  12.753  11.056  10.019
89758SOL    HW171106  12.758  11.012  10.103
89758SOL    HW271107  12.827  11.022   9.969
89759SOL     OW71108   1.997  11.578   7.767
89759SOL    HW171109   2.012  11.486   7.789
89759SOL    HW271110   2.084  11.617   7.765
89760SOL     OW71111   9.175   2.697   1.936
89760SOL    HW171112   9.141   2.693   1.846
89760SOL    HW271113   9.128   2.769   1.977
89761SOL     OW71114  13.893  13.896  13.832
89761SOL    HW171115  13.987  13.892  13.851
89761SOL    HW271116  13.889  13.915  13.739
89762SOL     OW71117  12.812   4.320   3.552
89762SOL    HW171118  12.851   4.381   3.614
89762SOL    HW271119  12.741   4.370   3.511
89763SOL     OW71120   8.546   1.300   3.573
89763SOL    HW171121   8.489   1.254   3.512
89763SOL    HW271122   8.487   1.338   3.638
89764SOL     OW71123  12.446   1.231  11.979
89764SOL    HW171124  12.485   1.318  11.978
89764SOL    HW271125  12.504   1.179  12.034
89765SOL     OW71126  14.850   5.773  10.470
89765SOL    HW171127  14.763   5.812  10.469
89765SOL    HW271128  14.850   5.715  10.546
89766SOL     OW71129   0.104   5.123  13.250
89766SOL    HW171130   0.053   5.145  13.327
89766SOL    HW271131   0.195   5.125  13.280
89767SOL     OW71132   0.327   7.186   2.116
89767SOL    HW171133   0.344   7.225   2.031
89767SOL    HW271134   0.276   7.251   2.163
89768SOL     OW71135   5.909   5.261   9.590
89768SOL    HW171136   5.981   5.209   9.555
89768SOL    HW271137   5.951   5.331   9.639
89769SOL     OW71138   9.782   8.621   5.293
89769SOL    HW171139   9.839   8.648   5.221
89769SOL    HW271140   9.777   8.526   5.284
89770SOL     OW71141   1.205  13.338   1.522
89770SOL    HW171142   1.118  13.376   1.507
89770SOL    HW271143   1.197  13.247   1.492
89771SOL     OW71144  11.746   7.269   9.021
89771SOL    HW171145  11.709   7.335   9.079
89771SOL    HW271146  11.726   7.186   9.064
89772SOL     OW71147   9.791   1.973   5.895
89772SOL    HW171148   9.727   1.925   5.843
89772SOL    HW271149   9.741   2.012   5.966
89773SOL     OW71150  13.966   5.980   2.862
89773SOL    HW171151  13.905   6.054   2.869
89773SOL    HW271152  13.917   5.906   2.896
89774SOL     OW71153  11.538  11.142   9.296
89774SOL    HW171154  11.559  11.060   9.252
89774SOL    HW271155  11.587  11.209   9.248
89775SOL     OW71156  12.612  14.216  13.837
89775SOL    HW171157  12.535  14.263  13.870
89775SOL    HW271158  12.683  14.281  13.841
89776SOL     OW71159   3.262  13.039  11.390
89776SOL    HW171160   3.268  12.944  11.387
89776SOL    HW271161   3.340  13.066  11.439
89777SOL     OW71162  11.757   7.872  11.886
89777SOL    HW171163  11.743   7.828  11.971
89777SOL    HW271164  11.842   7.914  11.895
89778SOL     OW71165  13.535   6.969   0.722
89778SOL    HW171166  13.531   7.017   0.639
89778SOL    HW271167  13.538   6.877   0.696
89779SOL     OW71168  11.706  11.834   2.337
89779SOL    HW171169  11.713  11.799   2.249
89779SOL    HW271170  11.788  11.883   2.349
89780SOL     OW71171   5.122   3.319  11.656
89780SOL    HW171172   5.081   3.264  11.723
89780SOL    HW271173   5.192   3.265  11.620
89781SOL     OW71174  13.259   7.822   6.921
89781SOL    HW171175  13.300   7.754   6.868
89781SOL    HW271176  13.166   7.802   6.918
89782SOL     OW71177   6.050   2.527  13.782
89782SOL    HW171178   6.102   2.462  13.829
89782SOL    HW271179   6.061   2.608  13.831
89783SOL     OW71180   1.529  10.617   0.222
89783SOL    HW171181   1.606  10.610   0.278
89783SOL    HW271182   1.523  10.532   0.179
89784SOL     OW71183   3.272   6.613   7.731
89784SOL    HW171184   3.274   6.694   7.783
89784SOL    HW271185   3.364   6.589   7.720
89785SOL     OW71186   6.790   3.839   0.186
89785SOL    HW171187   6.737   3.830   0.107
89785SOL    HW271188   6.877   3.864   0.155
89786SOL     OW71189   7.902   2.401   9.308
89786SOL    HW171190   7.871   2.465   9.372
89786SOL    HW271191   7.930   2.326   9.360
89787SOL     OW71192   8.040  13.682   4.000
89787SOL    HW171193   8.073  13.596   4.027
89787SOL    HW271194   8.116  13.726   3.962
89788SOL     OW71195   8.551  13.483   0.918
89788SOL    HW171196   8.627  13.453   0.968
89788SOL    HW271197   8.587  13.508   0.833
89789SOL     OW71198   5.934   5.389  10.973
89789SOL    HW171199   5.958   5.481  10.968
89789SOL    HW271200   6.014   5.342  10.946
89790SOL     OW71201  12.180   5.455  10.275
89790SOL    HW171202  12.111   5.389  10.267
89790SOL    HW271203  12.262   5.406  10.271
89791SOL     OW71204   8.431   1.973   2.787
89791SOL    HW171205   8.413   1.935   2.701
89791SOL    HW271206   8.344   1.986   2.826
89792SOL     OW71207   2.256   6.637   1.573
89792SOL    HW171208   2.245   6.731   1.585
89792SOL    HW271209   2.265   6.626   1.478
89793SOL     OW71210   3.901  12.096  13.946
89793SOL    HW171211   3.970  12.093  14.013
89793SOL    HW271212   3.925  12.026  13.885
89794SOL     OW71213  13.883   0.300  10.271
89794SOL    HW171214  13.806   0.349  10.242
89794SOL    HW271215  13.948   0.367  10.292
89795SOL     OW71216   8.881  11.971   2.453
89795SOL    HW171217   8.834  11.894   2.484
89795SOL    HW271218   8.827  12.006   2.382
89796SOL     OW71219   5.681  14.621   3.889
89796SOL    HW171220   5.727  14.693   3.932
89796SOL    HW271221   5.589  14.647   3.889
89797SOL     OW71222  10.841  10.192   1.829
89797SOL    HW171223  10.785  10.242   1.770
89797SOL    HW271224  10.876  10.121   1.775
89798SOL     OW71225  11.822   0.891  10.751
89798SOL    HW171226  11.814   0.798  10.770
89798SOL    HW271227  11.740   0.929  10.782
89799SOL     OW71228  12.400   2.501   7.358
89799SOL    HW171229  12.390   2.568   7.425
89799SOL    HW271230  12.366   2.421   7.399
89800SOL     OW71231   0.587   4.159  12.380
89800SOL    HW171232   0.558   4.082  12.332
89800SOL    HW271233   0.682   4.148  12.388
89801SOL     OW71234   9.793   0.649   4.464
89801SOL    HW171235   9.802   0.600   4.383
89801SOL    HW271236   9.793   0.582   4.533
89802SOL     OW71237   9.420   3.446  10.268
89802SOL    HW171238   9.368   3.377  10.308
89802SOL    HW271239   9.477   3.401  10.206
89803SOL     OW71240   1.137   4.742   6.509
89803SOL    HW171241   1.227   4.750   6.479
89803SOL    HW271242   1.092   4.817   6.471
89804SOL     OW71243   3.513  11.637   8.912
89804SOL    HW171244   3.546  11.682   8.990
89804SOL    HW271245   3.441  11.693   8.882
89805SOL     OW71246  13.317  14.171  13.666
89805SOL    HW171247  13.302  14.248  13.611
89805SOL    HW271248  13.321  14.204  13.755
89806SOL     OW71249  13.190   6.712   5.589
89806SOL    HW171250  13.139   6.714   5.508
89806SOL    HW271251  13.265   6.770   5.572
89807SOL     OW71252   2.321   0.260  11.347
89807SOL    HW171253   2.376   0.338  11.352
89807SOL    HW271254   2.338   0.214  11.430
89808SOL     OW71255  13.933  13.864  10.926
89808SOL    HW171256  13.971  13.899  11.007
89808SOL    HW271257  13.912  13.773  10.946
89809SOL     OW71258   0.746  13.265   1.483
89809SOL    HW171259   0.745  13.170   1.494
89809SOL    HW271260   0.665  13.285   1.436
89810SOL     OW71261   8.907  12.097  10.875
89810SOL    HW171262   9.001  12.112  10.886
89810SOL    HW271263   8.880  12.050  10.954
89811SOL     OW71264   0.192  10.698   7.630
89811SOL    HW171265   0.193  10.697   7.534
89811SOL    HW271266   0.283  10.687   7.655
89812SOL     OW71267  10.236  14.341   0.004
89812SOL    HW171268  10.213  14.385   0.086
89812SOL    HW271269  10.332  14.342   0.004
89813SOL     OW71270  10.821   9.683   3.908
89813SOL    HW171271  10.753   9.717   3.965
89813SOL    HW271272  10.777   9.670   3.823
89814SOL     OW71273   9.239  10.546  10.124
89814SOL    HW171274   9.300  10.523  10.055
89814SOL    HW271275   9.261  10.487  10.197
89815SOL     OW71276   3.101  14.218   3.461
89815SOL    HW171277   3.154  14.149   3.501
89815SOL    HW271278   3.158  14.258   3.396
89816SOL     OW71279   3.442   7.807   9.729
89816SOL    HW171280   3.530   7.824   9.763
89816SOL    HW271281   3.423   7.717   9.755
89817SOL     OW71282  13.618  10.091  14.577
89817SOL    HW171283  13.588  10.170  14.533
89817SOL    HW271284  13.699  10.116  14.620
89818SOL     OW71285   7.435  11.124   8.073
89818SOL    HW171286   7.395  11.180   8.007
89818SOL    HW271287   7.441  11.038   8.030
89819SOL     OW71288   0.471  11.445   0.141
89819SOL    HW171289   0.497  11.462   0.232
89819SOL    HW271290   0.382  11.410   0.148
89820SOL     OW71291   0.109  13.587  11.352
89820SOL    HW171292   0.150  13.583  11.439
89820SOL    HW271293   0.019  13.557  11.367
89821SOL     OW71294   3.675   4.698   0.953
89821SOL    HW171295   3.753   4.658   0.990
89821SOL    HW271296   3.689   4.696   0.858
89822SOL     OW71297  14.345   6.336   9.672
89822SOL    HW171298  14.338   6.271   9.742
89822SOL    HW271299  14.267   6.391   9.681
89823SOL     OW71300  13.930  12.151   5.272
89823SOL    HW171301  13.883  12.208   5.211
89823SOL    HW271302  14.022  12.156   5.245
89824SOL     OW71303   2.366   9.831   3.129
89824SOL    HW171304   2.276   9.858   3.146
89824SOL    HW271305   2.364   9.736   3.133
89825SOL     OW71306  11.470   2.335  12.443
89825SOL    HW171307  11.406   2.267  12.460
89825SOL    HW271308  11.479   2.336  12.347
89826SOL     OW71309   3.603   9.950   4.401
89826SOL    HW171310   3.616   9.917   4.489
89826SOL    HW271311   3.643   9.885   4.344
89827SOL     OW71312   4.486   2.331  14.566
89827SOL    HW171313   4.442   2.268  14.622
89827SOL    HW271314   4.536   2.278  14.504
89828SOL     OW71315   4.219  13.537   6.593
89828SOL    HW171316   4.260  13.570   6.674
89828SOL    HW271317   4.140  13.590   6.583
89829SOL     OW71318   9.495  10.248  14.371
89829SOL    HW171319   9.549  10.310  14.323
89829SOL    HW271320   9.540  10.238  14.455
89830SOL     OW71321   8.582   1.669   3.481
89830SOL    HW171322   8.635   1.610   3.535
89830SOL    HW271323   8.577   1.750   3.532
89831SOL     OW71324   5.373  11.714   9.991
89831SOL    HW171325   5.419  11.706   9.907
89831SOL    HW271326   5.332  11.628  10.003
89832SOL     OW71327  12.707   3.016   6.417
89832SOL    HW171328  12.658   2.969   6.484
89832SOL    HW271329  12.743   2.947   6.361
89833SOL     OW71330   4.434   1.281  10.420
89833SOL    HW171331   4.375   1.329  10.479
89833SOL    HW271332   4.497   1.239  10.479
89834SOL     OW71333  10.832   4.684  11.053
89834SOL    HW171334  10.909   4.632  11.077
89834SOL    HW271335  10.859   4.775  11.066
89835SOL     OW71336   8.073  14.252  12.506
89835SOL    HW171337   8.062  14.332  12.558
89835SOL    HW271338   8.034  14.273  12.422
89836SOL     OW71339   4.232   1.620  14.700
89836SOL    HW171340   4.260   1.530  14.718
89836SOL    HW271341   4.314   1.669  14.690
89837SOL     OW71342  10.759   8.767   1.037
89837SOL    HW171343  10.855   8.766   1.036
89837SOL    HW271344  10.735   8.753   0.945
89838SOL     OW71345  11.670  13.028   1.131
89838SOL    HW171346  11.745  13.067   1.174
89838SOL    HW271347  11.595  13.078   1.162
89839SOL     OW71348   5.622  10.334   8.300
89839SOL    HW171349   5.569  10.324   8.220
89839SOL    HW271350   5.684  10.262   8.297
89840SOL     OW71351  11.047  13.915   2.633
89840SOL    HW171352  11.007  13.874   2.710
89840SOL    HW271353  11.141  13.912   2.651
89841SOL     OW71354   0.905  10.174   1.615
89841SOL    HW171355   0.910  10.203   1.707
89841SOL    HW271356   0.816  10.197   1.588
89842SOL     OW71357   4.443   4.193   5.874
89842SOL    HW171358   4.446   4.288   5.865
89842SOL    HW271359   4.411   4.162   5.789
89843SOL     OW71360  10.301  13.696  12.770
89843SOL    HW171361  10.317  13.720  12.678
89843SOL    HW271362  10.236  13.760  12.800
89844SOL     OW71363  10.872  11.971   3.808
89844SOL    HW171364  10.865  11.887   3.854
89844SOL    HW271365  10.929  11.953   3.734
89845SOL     OW71366   1.397  14.560  13.633
89845SOL    HW171367   1.462  14.616  13.591
89845SOL    HW271368   1.352  14.516  13.560
89846SOL     OW71369   0.295  14.012  13.429
89846SOL    HW171370   0.378  13.986  13.471
89846SOL    HW271371   0.257  13.930  13.399
89847SOL     OW71372   5.995   9.319   4.397
89847SOL    HW171373   5.998   9.398   4.343
89847SOL    HW271374   5.974   9.249   4.336
89848SOL     OW71375   9.074   1.363   3.079
89848SOL    HW171376   9.034   1.284   3.043
89848SOL    HW271377   9.143   1.386   3.016
89849SOL     OW71378   9.044   2.139   8.383
89849SOL    HW171379   8.978   2.156   8.315
89849SOL    HW271380   9.121   2.108   8.334
89850SOL     OW71381  12.643  10.671  12.600
89850SOL    HW171382  12.564  10.695  12.552
89850SOL    HW271383  12.714  10.684  12.538
89851SOL     OW71384   8.888  14.790  12.960
89851SOL    HW171385   8.885  14.781  12.865
89851SOL    HW271386   8.953  14.726  12.988
89852SOL     OW71387   6.383   2.601   2.990
89852SOL    HW171388   6.296   2.639   3.003
89852SOL    HW271389   6.441   2.677   2.982
89853SOL     OW71390   1.657   7.521   1.025
89853SOL    HW171391   1.724   7.480   1.080
89853SOL    HW271392   1.698   7.527   0.938
89854SOL     OW71393   1.527   5.080  11.966
89854SOL    HW171394   1.539   5.154  11.907
89854SOL    HW271395   1.560   5.005  11.916
89855SOL     OW71396   5.269   6.179   7.688
89855SOL    HW171397   5.272   6.085   7.671
89855SOL    HW271398   5.360   6.208   7.677
89856SOL     OW71399  11.258  10.829   0.431
89856SOL    HW171400  11.178  10.788   0.462
89856SOL    HW271401  11.328  10.786   0.480
89857SOL     OW71402   1.237  12.512   6.060
89857SOL    HW171403   1.209  12.452   6.129
89857SOL    HW271404   1.293  12.459   6.004
89858SOL     OW71405   0.831   3.619   0.386
89858SOL    HW171406   0.765   3.627   0.455
89858SOL    HW271407   0.915   3.631   0.432
89859SOL     OW71408  11.302   7.037  14.205
89859SOL    HW171409  11.213   7.055  14.173
89859SOL    HW271410  11.333   6.966  14.148
89860SOL     OW71411   0.641   4.579   9.893
89860SOL    HW171412   0.574   4.546   9.832
89860SOL    HW271413   0.591   4.626   9.959
89861SOL     OW71414   0.682   3.395  12.021
89861SOL    HW171415   0.703   3.380  11.929
89861SOL    HW271416   0.591   3.367  12.030
89862SOL     OW71417  13.085   2.051  13.666
89862SOL    HW171418  12.998   2.084  13.684
89862SOL    HW271419  13.106   2.081  13.578
89863SOL     OW71420   6.330   0.603  10.740
89863SOL    HW171421   6.240   0.634  10.750
89863SOL    HW271422   6.363   0.649  10.662
89864SOL     OW71423   8.666   5.802   4.989
89864SOL    HW171424   8.590   5.799   4.931
89864SOL    HW271425   8.668   5.717   5.032
89865SOL     OW71426   4.146  10.301   0.981
89865SOL    HW171427   4.225  10.253   0.956
89865SOL    HW271428   4.083  10.280   0.912
89866SOL     OW71429  10.492   9.139   5.346
89866SOL    HW171430  10.466   9.227   5.372
89866SOL    HW271431  10.411   9.097   5.319
89867SOL     OW71432  14.604   3.884   0.972
89867SOL    HW171433  14.530   3.900   1.031
89867SOL    HW271434  14.605   3.960   0.914
89868SOL     OW71435   9.270   6.296   6.186
89868SOL    HW171436   9.300   6.383   6.162
89868SOL    HW271437   9.310   6.279   6.271
89869SOL     OW71438  10.119  13.449  11.923
89869SOL    HW171439  10.090  13.397  11.998
89869SOL    HW271440  10.123  13.538  11.956
89870SOL     OW71441   8.627  10.767  11.277
89870SOL    HW171442   8.698  10.725  11.230
89870SOL    HW271443   8.667  10.799  11.358
89871SOL     OW71444  14.084   6.477   4.479
89871SOL    HW171445  14.131   6.413   4.425
89871SOL    HW271446  14.022   6.518   4.418
89872SOL     OW71447   2.683   7.816   5.430
89872SOL    HW171448   2.763   7.868   5.417
89872SOL    HW271449   2.714   7.734   5.468
89873SOL     OW71450   2.915   6.367  14.060
89873SOL    HW171451   2.841   6.407  14.106
89873SOL    HW271452   2.964   6.441  14.025
89874SOL     OW71453   6.117   0.473   4.745
89874SOL    HW171454   6.184   0.536   4.718
89874SOL    HW271455   6.166   0.394   4.768
89875SOL     OW71456   2.666  13.279  13.441
89875SOL    HW171457   2.626  13.302  13.524
89875SOL    HW271458   2.745  13.231  13.464
89876SOL     OW71459   4.471   5.083   1.427
89876SOL    HW171460   4.501   5.124   1.345
89876SOL    HW271461   4.502   4.992   1.421
89877SOL     OW71462  13.186   6.826  10.681
89877SOL    HW171463  13.176   6.799  10.772
89877SOL    HW271464  13.102   6.804  10.640
89878SOL     OW71465   7.733   7.928   8.724
89878SOL    HW171466   7.767   8.017   8.729
89878SOL    HW271467   7.810   7.872   8.735
89879SOL     OW71468   2.116   7.471   8.906
89879SOL    HW171469   2.074   7.474   8.992
89879SOL    HW271470   2.078   7.545   8.858
89880SOL     OW71471  11.243   0.865  12.488
89880SOL    HW171472  11.309   0.923  12.448
89880SOL    HW271473  11.289   0.781  12.498
89881SOL     OW71474   3.944  10.136  13.541
89881SOL    HW171475   4.026  10.183  13.525
89881SOL    HW271476   3.917  10.106  13.454
89882SOL     OW71477   9.252  11.587  14.587
89882SOL    HW171478   9.184  11.651  14.567
89882SOL    HW271479   9.323  11.607  14.526
89883SOL     OW71480   5.931  11.995   0.381
89883SOL    HW171481   5.860  11.960   0.436
89883SOL    HW271482   5.889  12.061   0.326
89884SOL     OW71483   2.137   8.301   0.789
89884SOL    HW171484   2.064   8.251   0.752
89884SOL    HW271485   2.096   8.366   0.845
89885SOL     OW71486   3.320   2.111   5.716
89885SOL    HW171487   3.300   2.020   5.742
89885SOL    HW271488   3.243   2.161   5.742
89886SOL     OW71489   2.771  14.435   8.305
89886SOL    HW171490   2.866  14.430   8.310
89886SOL    HW271491   2.752  14.528   8.291
89887SOL     OW71492   6.678   5.590   2.557
89887SOL    HW171493   6.640   5.650   2.494
89887SOL    HW271494   6.614   5.586   2.629
89888SOL     OW71495   7.237   1.792  10.976
89888SOL    HW171496   7.178   1.724  10.945
89888SOL    HW271497   7.187   1.873  10.970
89889SOL     OW71498   1.341  10.408  14.029
89889SOL    HW171499   1.280  10.468  14.073
89889SOL    HW271500   1.289  10.371  13.958
89890SOL     OW71501  12.400   3.104   8.856
89890SOL    HW171502  12.401   3.122   8.762
89890SOL    HW271503  12.322   3.050   8.869
89891SOL     OW71504   9.750   9.676   4.690
89891SOL    HW171505   9.790   9.761   4.705
89891SOL    HW271506   9.655   9.693   4.692
89892SOL     OW71507   5.328   9.651  13.301
89892SOL    HW171508   5.317   9.562  13.266
89892SOL    HW271509   5.395   9.642  13.369
89893SOL     OW71510  11.245  14.503   4.460
89893SOL    HW171511  11.260  14.483   4.553
89893SOL    HW271512  11.271  14.424   4.414
89894SOL     OW71513   5.492   0.719   6.135
89894SOL    HW171514   5.463   0.762   6.054
89894SOL    HW271515   5.471   0.782   6.204
89895SOL     OW71516  10.526   0.811   0.345
89895SOL    HW171517  10.569   0.784   0.426
89895SOL    HW271518  10.539   0.738   0.285
89896SOL     OW71519   5.533   4.455   2.921
89896SOL    HW171520   5.556   4.540   2.882
89896SOL    HW271521   5.454   4.474   2.973
89897SOL     OW71522   9.757  14.212  12.675
89897SOL    HW171523   9.807  14.136  12.705
89897SOL    HW271524   9.711  14.181  12.597
89898SOL     OW71525   5.241   8.912   0.592
89898SOL    HW171526   5.149   8.899   0.568
89898SOL    HW271527   5.279   8.957   0.517
89899SOL     OW71528   9.270  10.309   8.315
89899SOL    HW171529   9.233  10.336   8.231
89899SOL    HW271530   9.254  10.215   8.318
89900SOL     OW71531   8.823  10.931   1.421
89900SOL    HW171532   8.830  10.908   1.328
89900SOL    HW271533   8.757  10.872   1.456
89901SOL     OW71534  10.820  12.507   6.239
89901SOL    HW171535  10.767  12.472   6.310
89901SOL    HW271536  10.806  12.446   6.166
89902SOL     OW71537   2.669   0.927   5.926
89902SOL    HW171538   2.589   0.901   5.971
89902SOL    HW271539   2.646   0.928   5.833
89903SOL     OW71540   8.189  11.876   8.695
89903SOL    HW171541   8.214  11.925   8.617
89903SOL    HW271542   8.271  11.837   8.726
89904SOL     OW71543   1.306  11.421  13.834
89904SOL    HW171544   1.302  11.406  13.929
89904SOL    HW271545   1.258  11.348  13.796
89905SOL     OW71546  14.584   7.528  11.230
89905SOL    HW171547  14.580   7.505  11.137
89905SOL    HW271548  14.533   7.460  11.274
89906SOL     OW71549   2.223   0.929  12.094
89906SOL    HW171550   2.184   0.915  12.180
89906SOL    HW271551   2.256   0.842  12.068
89907SOL     OW71552   6.079  13.065   4.772
89907SOL    HW171553   6.070  13.046   4.865
89907SOL    HW271554   6.147  13.005   4.741
89908SOL     OW71555   8.654  12.340   1.732
89908SOL    HW171556   8.748  12.359   1.735
89908SOL    HW271557   8.612  12.426   1.728
89909SOL     OW71558   9.815  10.657   0.146
89909SOL    HW171559   9.907  10.673   0.169
89909SOL    HW271560   9.786  10.592   0.210
89910SOL     OW71561  11.172   9.655   8.843
89910SOL    HW171562  11.098   9.647   8.783
89910SOL    HW271563  11.229   9.720   8.802
89911SOL     OW71564   7.680  12.821   6.886
89911SOL    HW171565   7.773  12.840   6.875
89911SOL    HW271566   7.655  12.868   6.966
89912SOL     OW71567   5.853   0.930   2.190
89912SOL    HW171568   5.944   0.929   2.161
89912SOL    HW271569   5.826   1.021   2.180
89913SOL     OW71570   7.595   2.962   0.462
89913SOL    HW171571   7.653   3.016   0.408
89913SOL    HW271572   7.592   2.877   0.418
89914SOL     OW71573   3.020  11.812   9.614
89914SOL    HW171574   2.988  11.878   9.552
89914SOL    HW271575   3.111  11.837   9.631
89915SOL     OW71576  11.984   1.789  10.024
89915SOL    HW171577  11.975   1.726   9.952
89915SOL    HW271578  12.008   1.734  10.099
89916SOL     OW71579   5.077  14.606  13.244
89916SOL    HW171580   5.162  14.647  13.229
89916SOL    HW271581   5.069  14.540  13.176
89917SOL     OW71582   4.896  11.830   3.648
89917SOL    HW171583   4.851  11.897   3.596
89917SOL    HW271584   4.881  11.749   3.600
89918SOL     OW71585   5.056   6.403   7.553
89918SOL    HW171586   5.144   6.369   7.536
89918SOL    HW271587   5.021   6.344   7.620
89919SOL     OW71588   0.902   8.816  11.827
89919SOL    HW171589   0.937   8.752  11.889
89919SOL    HW271590   0.823   8.774  11.792
89920SOL     OW71591  11.285  13.550  12.336
89920SOL    HW171592  11.262  13.609  12.408
89920SOL    HW271593  11.204  13.541  12.286
89921SOL     OW71594  13.765   6.351  11.757
89921SOL    HW171595  13.756   6.307  11.842
89921SOL    HW271596  13.710   6.429  11.764
89922SOL     OW71597   6.122  14.112  14.066
89922SOL    HW171598   6.186  14.072  14.007
89922SOL    HW271599   6.037  14.097  14.023
89923SOL     OW71600  10.155  11.007  11.154
89923SOL    HW171601  10.206  11.076  11.111
89923SOL    HW271602  10.164  11.026  11.248
89924SOL     OW71603   6.629   4.041   5.342
89924SOL    HW171604   6.661   4.016   5.429
89924SOL    HW271605   6.699   4.095   5.305
89925SOL     OW71606   5.571   8.712  12.342
89925SOL    HW171607   5.480   8.705  12.314
89925SOL    HW271608   5.621   8.666  12.274
89926SOL     OW71609  12.425   6.224   8.055
89926SOL    HW171610  12.459   6.135   8.062
89926SOL    HW271611  12.484   6.277   8.109
89927SOL     OW71612   6.326  11.429   8.655
89927SOL    HW171613   6.246  11.377   8.645
89927SOL    HW271614   6.367  11.395   8.734
89928SOL     OW71615  13.860   7.913  12.822
89928SOL    HW171616  13.806   7.842  12.786
89928SOL    HW271617  13.930   7.868  12.868
89929SOL     OW71618  13.567   5.048   6.084
89929SOL    HW171619  13.634   4.980   6.078
89929SOL    HW271620  13.494   5.015   6.032
89930SOL     OW71621   9.868   6.622  14.645
89930SOL    HW171622   9.867   6.526  14.638
89930SOL    HW271623   9.957   6.643  14.673
89931SOL     OW71624   6.187   5.982   9.522
89931SOL    HW171625   6.274   5.970   9.559
89931SOL    HW271626   6.197   5.959   9.430
89932SOL     OW71627   3.874  14.518  14.865
89932SOL    HW171628   3.917  14.474  14.792
89932SOL    HW271629   3.889  14.462   0.059
89933SOL     OW71630  14.242   5.918   2.186
89933SOL    HW171631  14.221   5.828   2.212
89933SOL    HW271632  14.203   5.972   2.255
89934SOL     OW71633  14.315  11.240  13.743
89934SOL    HW171634  14.361  11.172  13.693
89934SOL    HW271635  14.361  11.244  13.826
89935SOL     OW71636   1.447   4.247   8.610
89935SOL    HW171637   1.524   4.199   8.580
89935SOL    HW271638   1.375   4.212   8.558
89936SOL     OW71639  11.020   3.204   1.762
89936SOL    HW171640  11.036   3.219   1.855
89936SOL    HW271641  10.953   3.268   1.738
89937SOL     OW71642   3.272   7.811  11.459
89937SOL    HW171643   3.230   7.854  11.534
89937SOL    HW271644   3.355   7.857  11.449
89938SOL     OW71645   2.471  14.879   9.701
89938SOL    HW171646   2.463  14.800   9.755
89938SOL    HW271647   2.547   0.043   9.737
89939SOL     OW71648   6.022   8.422   4.538
89939SOL    HW171649   5.942   8.371   4.543
89939SOL    HW271650   6.092   8.357   4.550
89940SOL     OW71651   2.246   2.532   3.514
89940SOL    HW171652   2.291   2.560   3.434
89940SOL    HW271653   2.311   2.482   3.562
89941SOL     OW71654   3.028   4.276   3.126
89941SOL    HW171655   3.083   4.211   3.082
89941SOL    HW271656   3.048   4.264   3.219
89942SOL     OW71657   3.403   0.769   9.318
89942SOL    HW171658   3.357   0.707   9.375
89942SOL    HW271659   3.334   0.813   9.270
89943SOL     OW71660   9.515  14.186   2.553
89943SOL    HW171661   9.514  14.146   2.466
89943SOL    HW271662   9.525  14.280   2.535
89944SOL     OW71663  14.717   8.964   7.030
89944SOL    HW171664  14.686   8.986   6.942
89944SOL    HW271665  14.793   8.907   7.015
89945SOL     OW71666  14.054  13.727   9.894
89945SOL    HW171667  13.968  13.686   9.891
89945SOL    HW271668  14.077  13.727   9.987
89946SOL     OW71669   7.863  12.561   2.981
89946SOL    HW171670   7.865  12.499   2.908
89946SOL    HW271671   7.809  12.518   3.048
89947SOL     OW71672   3.845   4.123   4.070
89947SOL    HW171673   3.847   4.056   4.139
89947SOL    HW271674   3.907   4.189   4.101
89948SOL     OW71675  11.478   2.664  12.836
89948SOL    HW171676  11.406   2.601  12.831
89948SOL    HW271677  11.517   2.663  12.748
89949SOL     OW71678  13.436   0.639   0.266
89949SOL    HW171679  13.352   0.650   0.310
89949SOL    HW271680  13.415   0.637   0.173
89950SOL     OW71681  13.749   5.238   4.564
89950SOL    HW171682  13.694   5.313   4.584
89950SOL    HW271683  13.702   5.163   4.601
89951SOL     OW71684   2.969   9.829  13.467
89951SOL    HW171685   3.060   9.826  13.437
89951SOL    HW271686   2.953   9.922  13.483
89952SOL     OW71687  12.166  14.157  10.966
89952SOL    HW171688  12.122  14.080  11.001
89952SOL    HW271689  12.222  14.124  10.896
89953SOL     OW71690  11.566   6.761   9.934
89953SOL    HW171691  11.611   6.832   9.888
89953SOL    HW271692  11.486   6.801   9.968
89954SOL     OW71693  10.148   3.926   7.005
89954SOL    HW171694  10.116   3.929   7.095
89954SOL    HW271695  10.143   4.016   6.975
89955SOL     OW71696  13.162   4.027   0.647
89955SOL    HW171697  13.090   4.082   0.616
89955SOL    HW271698  13.131   3.937   0.634
89956SOL     OW71699   4.710   6.098   6.980
89956SOL    HW171700   4.617   6.082   6.989
89956SOL    HW271701   4.745   6.087   7.068
89957SOL     OW71702  13.381   7.517   4.383
89957SOL    HW171703  13.374   7.559   4.468
89957SOL    HW271704  13.357   7.584   4.319
89958SOL     OW71705   1.034   0.536   7.424
89958SOL    HW171706   1.043   0.507   7.515
89958SOL    HW271707   1.039   0.456   7.373
89959SOL     OW71708   8.215   7.421   9.936
89959SOL    HW171709   8.193   7.498   9.988
89959SOL    HW271710   8.159   7.351   9.969
89960SOL     OW71711   3.499   6.373   6.012
89960SOL    HW171712   3.468   6.296   5.966
89960SOL    HW271713   3.594   6.366   6.010
89961SOL     OW71714   5.294  10.412   0.948
89961SOL    HW171715   5.377  10.459   0.958
89961SOL    HW271716   5.230  10.481   0.927
89962SOL     OW71717  13.050   0.823   8.164
89962SOL    HW171718  13.087   0.738   8.189
89962SOL    HW271719  13.093   0.844   8.081
89963SOL     OW71720  11.889   0.032  12.627
89963SOL    HW171721  11.930  14.880  12.707
89963SOL    HW271722  11.865   0.122  12.648
89964SOL     OW71723   3.302   3.036   1.686
89964SOL    HW171724   3.246   3.089   1.743
89964SOL    HW271725   3.355   3.100   1.638
89965SOL     OW71726   4.510   6.817   0.295
89965SOL    HW171727   4.517   6.724   0.317
89965SOL    HW271728   4.572   6.829   0.223
89966SOL     OW71729  13.407  14.278   1.488
89966SOL    HW171730  13.384  14.345   1.424
89966SOL    HW271731  13.360  14.200   1.459
89967SOL     OW71732   6.022   9.893   0.882
89967SOL    HW171733   6.059   9.884   0.970
89967SOL    HW271734   5.944   9.948   0.895
89968SOL     OW71735  14.385   0.068   1.493
89968SOL    HW171736  14.402   0.043   1.584
89968SOL    HW271737  14.413   0.159   1.486
89969SOL     OW71738  12.488  11.168  12.652
89969SOL    HW171739  12.578  11.197  12.671
89969SOL    HW271740  12.439  11.249  12.639
89970SOL     OW71741  14.359   3.454  12.700
89970SOL    HW171742  14.435   3.402  12.725
89970SOL    HW271743  14.291   3.428  12.761
89971SOL     OW71744  13.325   7.125   3.261
89971SOL    HW171745  13.357   7.208   3.297
89971SOL    HW271746  13.372   7.115   3.178
89972SOL     OW71747  11.855   1.863   4.400
89972SOL    HW171748  11.925   1.800   4.382
89972SOL    HW271749  11.807   1.869   4.317
89973SOL     OW71750   7.323   5.500  11.524
89973SOL    HW171751   7.292   5.475  11.437
89973SOL    HW271752   7.397   5.442  11.541
89974SOL     OW71753   7.108   7.681   4.122
89974SOL    HW171754   7.043   7.698   4.054
89974SOL    HW271755   7.157   7.762   4.130
89975SOL     OW71756   5.993   9.658  11.460
89975SOL    HW171757   5.933   9.700  11.522
89975SOL    HW271758   5.950   9.576  11.436
89976SOL     OW71759   8.462  13.132  13.969
89976SOL    HW171760   8.396  13.108  14.034
89976SOL    HW271761   8.534  13.072  13.985
89977SOL     OW71762   9.207   4.352   8.656
89977SOL    HW171763   9.217   4.447   8.643
89977SOL    HW271764   9.295   4.317   8.649
89978SOL     OW71765  12.676  12.677   1.334
89978SOL    HW171766  12.643  12.641   1.416
89978SOL    HW271767  12.748  12.734   1.359
89979SOL     OW71768   0.186  14.761   0.395
89979SOL    HW171769   0.263  14.802   0.357
89979SOL    HW271770   0.217  14.676   0.428
89980SOL     OW71771   1.236   7.448  10.238
89980SOL    HW171772   1.268   7.359  10.253
89980SOL    HW271773   1.304   7.504  10.276
89981SOL     OW71774   1.796   7.312   8.482
89981SOL    HW171775   1.840   7.347   8.559
89981SOL    HW271776   1.704   7.304   8.508
89982SOL     OW71777   9.683   8.754   4.818
89982SOL    HW171778   9.651   8.692   4.883
89982SOL    HW271779   9.750   8.805   4.863
89983SOL     OW71780  12.649   3.776   5.365
89983SOL    HW171781  12.558   3.751   5.385
89983SOL    HW271782  12.667   3.733   5.281
89984SOL     OW71783   5.222   9.908   0.559
89984SOL    HW171784   5.183   9.909   0.472
89984SOL    HW271785   5.193   9.989   0.600
89985SOL     OW71786   2.257   4.624   4.523
89985SOL    HW171787   2.273   4.548   4.580
89985SOL    HW271788   2.196   4.679   4.573
89986SOL     OW71789  14.826   5.023   0.951
89986SOL    HW171790  14.755   5.086   0.964
89986SOL    HW271791  14.841   5.023   0.857
89987SOL     OW71792   6.881   4.439   9.743
89987SOL    HW171793   6.947   4.506   9.724
89987SOL    HW271794   6.836   4.425   9.660
89988SOL     OW71795   9.346   6.495   7.409
89988SOL    HW171796   9.393   6.512   7.491
89988SOL    HW271797   9.279   6.564   7.406
89989SOL     OW71798  14.697   6.037   4.191
89989SOL    HW171799  14.627   6.077   4.242
89989SOL    HW271800  14.751   5.992   4.255
89990SOL     OW71801   6.180   9.387   5.941
89990SOL    HW171802   6.156   9.387   5.849
89990SOL    HW271803   6.208   9.476   5.959
89991SOL     OW71804  12.161   6.042   7.827
89991SOL    HW171805  12.074   6.013   7.798
89991SOL    HW271806  12.143   6.117   7.884
89992SOL     OW71807   5.808  10.988   0.787
89992SOL    HW171808   5.863  11.022   0.858
89992SOL    HW271809   5.737  10.941   0.832
89993SOL     OW71810   0.769  14.616   0.674
89993SOL    HW171811   0.862  14.599   0.690
89993SOL    HW271812   0.745  14.681   0.740
89994SOL     OW71813   7.538   4.344   2.445
89994SOL    HW171814   7.533   4.352   2.350
89994SOL    HW271815   7.447   4.352   2.474
89995SOL     OW71816   5.784   5.918  13.799
89995SOL    HW171817   5.751   5.830  13.782
89995SOL    HW271818   5.708   5.975  13.784
89996SOL     OW71819   5.047   3.218   1.473
89996SOL    HW171820   5.073   3.305   1.441
89996SOL    HW271821   5.102   3.205   1.551
89997SOL     OW71822  13.649   3.732  12.235
89997SOL    HW171823  13.599   3.766  12.161
89997SOL    HW271824  13.583   3.699  12.296
89998SOL     OW71825   5.613   4.747   1.352
89998SOL    HW171826   5.563   4.789   1.282
89998SOL    HW271827   5.607   4.653   1.333
89999SOL     OW71828   5.708   4.320  10.070
89999SOL    HW171829   5.687   4.361   9.986
89999SOL    HW271830   5.631   4.268  10.092
90000SOL     OW71831   5.798  14.409  10.396
90000SOL    HW171832   5.759  14.408  10.484
90000SOL    HW271833   5.723  14.412  10.337
90001SOL     OW71834   7.746  11.925   0.581
90001SOL    HW171835   7.825  11.960   0.540
90001SOL    HW271836   7.766  11.832   0.596
90002SOL     OW71837   5.753   0.783  12.760
90002SOL    HW171838   5.785   0.721  12.826
90002SOL    HW271839   5.821   0.851  12.756
90003SOL     OW71840   7.183  12.623  12.265
90003SOL    HW171841   7.219  12.547  12.311
90003SOL    HW271842   7.243  12.636  12.191
90004SOL     OW71843   9.062   8.646   0.373
90004SOL    HW171844   8.973   8.615   0.390
90004SOL    HW271845   9.113   8.614   0.448
90005SOL     OW71846  14.054  14.335   7.383
90005SOL    HW171847  14.036  14.344   7.477
90005SOL    HW271848  13.969  14.315   7.344
90006SOL     OW71849   9.782   3.164   0.059
90006SOL    HW171850   9.797   3.256   0.077
90006SOL    HW271851   9.866   3.131   0.027
90007SOL     OW71852   3.673   3.954  13.210
90007SOL    HW171853   3.655   3.865  13.180
90007SOL    HW271854   3.763   3.971  13.180
90008SOL     OW71855   9.972   2.147   1.489
90008SOL    HW171856   9.929   2.069   1.454
90008SOL    HW271857   9.927   2.220   1.445
90009SOL     OW71858   8.177  10.286   3.191
90009SOL    HW171859   8.115  10.276   3.264
90009SOL    HW271860   8.198  10.197   3.164
90010SOL     OW71861   5.840  11.691  14.071
90010SOL    HW171862   5.849  11.761  14.006
90010SOL    HW271863   5.922  11.695  14.121
90011SOL     OW71864   3.148   3.494   9.143
90011SOL    HW171865   3.113   3.411   9.111
90011SOL    HW271866   3.243   3.482   9.140
90012SOL     OW71867   1.595   7.331   5.204
90012SOL    HW171868   1.609   7.303   5.294
90012SOL    HW271869   1.509   7.295   5.181
90013SOL     OW71870   0.815   9.255   2.552
90013SOL    HW171871   0.888   9.222   2.604
90013SOL    HW271872   0.855   9.307   2.484
90014SOL     OW71873   1.432  10.460   2.093
90014SOL    HW171874   1.459  10.497   2.177
90014SOL    HW271875   1.467  10.371   2.094
90015SOL     OW71876   2.912   4.598  10.523
90015SOL    HW171877   2.969   4.620  10.449
90015SOL    HW271878   2.969   4.554  10.585
90016SOL     OW71879   2.614   0.534  10.643
90016SOL    HW171880   2.585   0.575  10.561
90016SOL    HW271881   2.625   0.606  10.704
90017SOL     OW71882  14.851   2.037  12.260
90017SOL    HW171883  14.812   2.025  12.347
90017SOL    HW271884   0.063   2.030  12.274
90018SOL     OW71885   2.159   3.598   4.010
90018SOL    HW171886   2.182   3.606   4.103
90018SOL    HW271887   2.242   3.582   3.966
90019SOL     OW71888  10.492  10.853   6.259
90019SOL    HW171889  10.530  10.786   6.316
90019SOL    HW271890  10.407  10.818   6.234
90020SOL     OW71891   4.444   3.468  14.386
90020SOL    HW171892   4.529   3.507  14.408
90020SOL    HW271893   4.395   3.540  14.345
90021SOL     OW71894   6.657   7.326   1.501
90021SOL    HW171895   6.700   7.241   1.508
90021SOL    HW271896   6.627   7.345   1.590
90022SOL     OW71897  12.148   4.011  13.496
90022SOL    HW171898  12.066   4.003  13.544
90022SOL    HW271899  12.158   3.929  13.449
90023SOL     OW71900   2.100  13.109   0.089
90023SOL    HW171901   2.113  13.023   0.050
90023SOL    HW271902   2.080  13.090   0.181
90024SOL     OW71903   1.467  10.986   2.763
90024SOL    HW171904   1.417  11.068   2.764
90024SOL    HW271905   1.416  10.926   2.816
90025SOL     OW71906   5.819   4.169  10.732
90025SOL    HW171907   5.858   4.116  10.801
90025SOL    HW271908   5.757   4.111  10.688
90026SOL     OW71909   4.529  10.851   0.412
90026SOL    HW171910   4.473  10.904   0.467
90026SOL    HW271911   4.498  10.867   0.323
90027SOL     OW71912   2.019   3.024  13.449
90027SOL    HW171913   2.036   2.934  13.422
90027SOL    HW271914   1.994   3.069  13.368
90028SOL     OW71915   6.258   1.599   3.958
90028SOL    HW171916   6.288   1.508   3.953
90028SOL    HW271917   6.175   1.599   3.910
90029SOL     OW71918   3.678   7.243  12.608
90029SOL    HW171919   3.710   7.281  12.690
90029SOL    HW271920   3.719   7.296  12.539
90030SOL     OW71921  10.367   5.176   8.875
90030SOL    HW171922  10.347   5.142   8.788
90030SOL    HW271923  10.281   5.192   8.914
90031SOL     OW71924   9.863   1.969  13.861
90031SOL    HW171925   9.774   1.995  13.838
90031SOL    HW271926   9.913   1.978  13.780
90032SOL     OW71927   9.448  11.161   9.163
90032SOL    HW171928   9.420  11.238   9.213
90032SOL    HW271929   9.370  11.106   9.157
90033SOL     OW71930   4.400   4.420   2.347
90033SOL    HW171931   4.346   4.499   2.344
90033SOL    HW271932   4.351   4.359   2.402
90034SOL     OW71933  14.179   9.221   0.108
90034SOL    HW171934  14.237   9.295   0.091
90034SOL    HW271935  14.166   9.181   0.022
90035SOL     OW71936  10.824   0.088  11.530
90035SOL    HW171937  10.781   0.157  11.580
90035SOL    HW271938  10.910   0.077  11.572
90036SOL     OW71939   7.720  14.861   9.944
90036SOL    HW171940   7.632  14.872   9.909
90036SOL    HW271941   7.778  14.874   9.868
90037SOL     OW71942   7.352   2.530  14.503
90037SOL    HW171943   7.438   2.487  14.499
90037SOL    HW271944   7.294   2.472  14.453
90038SOL     OW71945   3.996   2.855   3.623
90038SOL    HW171946   3.985   2.870   3.717
90038SOL    HW271947   3.912   2.879   3.585
90039SOL     OW71948  12.146  11.073   6.306
90039SOL    HW171949  12.229  11.117   6.325
90039SOL    HW271950  12.165  11.016   6.231
90040SOL     OW71951  11.173   4.526   1.771
90040SOL    HW171952  11.112   4.452   1.768
90040SOL    HW271953  11.246   4.499   1.716
90041SOL     OW71954   9.829  11.228   8.616
90041SOL    HW171955   9.768  11.298   8.641
90041SOL    HW271956   9.772  11.152   8.601
90042SOL     OW71957   6.910  12.781   5.244
90042SOL    HW171958   6.926  12.811   5.334
90042SOL    HW271959   6.855  12.849   5.206
90043SOL     OW71960   5.861   0.804  11.778
90043SOL    HW171961   5.927   0.739  11.803
90043SOL    HW271962   5.778   0.765  11.804
90044SOL     OW71963  13.190  10.706   1.997
90044SOL    HW171964  13.279  10.736   1.977
90044SOL    HW271965  13.146  10.784   2.030
90045SOL     OW71966   8.093   7.386  10.206
90045SOL    HW171967   8.164   7.385  10.270
90045SOL    HW271968   8.085   7.478  10.181
90046SOL     OW71969   8.499  12.595   5.273
90046SOL    HW171970   8.580  12.554   5.244
90046SOL    HW271971   8.470  12.646   5.198
90047SOL     OW71972  13.714   6.090   2.615
90047SOL    HW171973  13.632   6.042   2.604
90047SOL    HW271974  13.728   6.093   2.709
90048SOL     OW71975   4.318  10.422  12.852
90048SOL    HW171976   4.236  10.428  12.902
90048SOL    HW271977   4.376  10.484  12.895
90049SOL     OW71978  14.599   5.252  10.230
90049SOL    HW171979  14.635   5.235  10.143
90049SOL    HW271980  14.510   5.283  10.212
90050SOL     OW71981   3.327  11.307  13.889
90050SOL    HW171982   3.285  11.253  13.822
90050SOL    HW271983   3.410  11.263  13.906
90051SOL     OW71984   9.493   4.973   2.867
90051SOL    HW171985   9.483   4.972   2.772
90051SOL    HW271986   9.489   5.065   2.891
90052SOL     OW71987  13.588   1.334   7.883
90052SOL    HW171988  13.586   1.243   7.853
90052SOL    HW271989  13.544   1.383   7.814
90053SOL     OW71990   3.858   2.806   6.555
90053SOL    HW171991   3.817   2.755   6.485
90053SOL    HW271992   3.818   2.892   6.549
90054SOL     OW71993  14.548   4.416   7.224
90054SOL    HW171994  14.632   4.419   7.180
90054SOL    HW271995  14.519   4.508   7.227
90055SOL     OW71996   3.800   0.254  10.449
90055SOL    HW171997   3.800   0.179  10.391
90055SOL    HW271998   3.725   0.307  10.421
90056SOL     OW71999   9.816   8.109   3.231
90056SOL    HW172000   9.827   8.138   3.322
90056SOL    HW272001   9.841   8.016   3.233
90057SOL     OW72002   4.756  11.280   3.953
90057SOL    HW172003   4.830  11.241   3.905
90057SOL    HW272004   4.685  11.217   3.942
90058SOL     OW72005  12.987   0.880   2.228
90058SOL    HW172006  13.038   0.960   2.245
90058SOL    HW272007  12.932   0.871   2.306
90059SOL     OW72008  13.359   1.852   6.044
90059SOL    HW172009  13.298   1.793   5.998
90059SOL    HW272010  13.325   1.940   6.026
90060SOL     OW72011   9.320   1.950   1.399
90060SOL    HW172012   9.334   2.044   1.413
90060SOL    HW272013   9.406   1.910   1.408
90061SOL     OW72014  13.299   5.973   3.422
90061SOL    HW172015  13.306   6.066   3.446
90061SOL    HW272016  13.376   5.932   3.462
90062SOL     OW72017   3.292   3.632   7.366
90062SOL    HW172018   3.348   3.710   7.367
90062SOL    HW272019   3.241   3.638   7.448
90063SOL     OW72020   2.254   6.867  12.995
90063SOL    HW172021   2.265   6.957  13.023
90063SOL    HW272022   2.294   6.815  13.065
90064SOL     OW72023   6.865   6.389   1.366
90064SOL    HW172024   6.883   6.312   1.420
90064SOL    HW272025   6.821   6.450   1.425
90065SOL     OW72026  11.444  10.601   1.794
90065SOL    HW172027  11.525  10.566   1.831
90065SOL    HW272028  11.388  10.524   1.781
90066SOL     OW72029  14.533   2.778   8.328
90066SOL    HW172030  14.607   2.747   8.276
90066SOL    HW272031  14.456   2.757   8.276
90067SOL     OW72032   6.190  12.023  13.684
90067SOL    HW172033   6.195  11.977  13.768
90067SOL    HW272034   6.139  12.102  13.703
90068SOL     OW72035  12.055   9.213   4.446
90068SOL    HW172036  12.007   9.177   4.521
90068SOL    HW272037  12.054   9.141   4.382
90069SOL     OW72038  12.006   8.178   4.767
90069SOL    HW172039  11.995   8.269   4.797
90069SOL    HW272040  11.965   8.125   4.836
90070SOL     OW72041   1.425  14.192   4.428
90070SOL    HW172042   1.492  14.217   4.365
90070SOL    HW272043   1.380  14.118   4.389
90071SOL     OW72044  12.914  14.251   9.039
90071SOL    HW172045  13.005  14.277   9.053
90071SOL    HW272046  12.866  14.295   9.110
90072SOL     OW72047   0.077   6.118  13.786
90072SOL    HW172048   0.053   6.195  13.735
90072SOL    HW272049   0.125   6.063  13.725
90073SOL     OW72050   4.483   0.585   2.734
90073SOL    HW172051   4.458   0.527   2.805
90073SOL    HW272052   4.410   0.646   2.726
90074SOL     OW72053   7.553   9.834  14.504
90074SOL    HW172054   7.561   9.740  14.487
90074SOL    HW272055   7.619   9.874  14.447
90075SOL     OW72056  11.537   3.335   2.161
90075SOL    HW172057  11.483   3.382   2.224
90075SOL    HW272058  11.610   3.394   2.143
90076SOL     OW72059  13.308   2.649   8.810
90076SOL    HW172060  13.351   2.578   8.856
90076SOL    HW272061  13.214   2.631   8.821
90077SOL     OW72062   9.846   8.330   8.552
90077SOL    HW172063   9.822   8.345   8.643
90077SOL    HW272064   9.935   8.365   8.544
90078SOL     OW72065  10.777   6.691   7.308
90078SOL    HW172066  10.826   6.615   7.278
90078SOL    HW272067  10.686   6.664   7.306
90079SOL     OW72068  11.681   4.934   5.903
90079SOL    HW172069  11.762   4.928   5.853
90079SOL    HW272070  11.674   5.027   5.927
90080SOL     OW72071  13.952  11.207  12.164
90080SOL    HW172072  13.902  11.244  12.090
90080SOL    HW272073  14.008  11.141  12.124
90081SOL     OW72074   7.890   4.832   6.156
90081SOL    HW172075   7.967   4.882   6.130
90081SOL    HW272076   7.881   4.765   6.088
90082SOL     OW72077   8.321   0.161   7.299
90082SOL    HW172078   8.344   0.108   7.223
90082SOL    HW272079   8.375   0.125   7.370
90083SOL     OW72080   5.154   4.653  11.211
90083SOL    HW172081   5.122   4.568  11.183
90083SOL    HW272082   5.240   4.636  11.249
90084SOL     OW72083   1.884   8.368   1.812
90084SOL    HW172084   1.893   8.366   1.907
90084SOL    HW272085   1.848   8.454   1.793
90085SOL     OW72086  12.647   5.437   1.851
90085SOL    HW172087  12.674   5.491   1.777
90085SOL    HW272088  12.629   5.351   1.813
90086SOL     OW72089   0.128  11.944   6.781
90086SOL    HW172090   0.072  11.964   6.857
90086SOL    HW272091   0.120  11.849   6.770
90087SOL     OW72092  11.849   0.482   3.603
90087SOL    HW172093  11.789   0.551   3.633
90087SOL    HW272094  11.792   0.410   3.577
90088SOL     OW72095  14.154   1.493  12.891
90088SOL    HW172096  14.224   1.469  12.951
90088SOL    HW272097  14.075   1.497  12.946
90089SOL     OW72098  13.396   4.335   8.236
90089SOL    HW172099  13.445   4.254   8.218
90089SOL    HW272100  13.314   4.325   8.187
90090SOL     OW72101  13.674   2.525   2.195
90090SOL    HW172102  13.601   2.526   2.132
90090SOL    HW272103  13.659   2.447   2.247
90091SOL     OW72104   4.282   4.111  10.344
90091SOL    HW172105   4.324   4.174  10.403
90091SOL    HW272106   4.354   4.078  10.290
90092SOL     OW72107   0.524  14.805  11.562
90092SOL    HW172108   0.520   0.016  11.582
90092SOL    HW272109   0.527  14.762  11.648
90093SOL     OW72110   4.215   4.056  12.329
90093SOL    HW172111   4.241   4.012  12.248
90093SOL    HW272112   4.288   4.115  12.349
90094SOL     OW72113   4.483  10.191   1.020
90094SOL    HW172114   4.458  10.100   1.040
90094SOL    HW272115   4.551  10.211   1.083
90095SOL     OW72116   0.720   9.704   1.474
90095SOL    HW172117   0.793   9.656   1.515
90095SOL    HW272118   0.684   9.643   1.410
90096SOL     OW72119   4.240   5.879   0.224
90096SOL    HW172120   4.178   5.855   0.293
90096SOL    HW272121   4.261   5.796   0.181
90097SOL     OW72122  12.752   7.974   7.526
90097SOL    HW172123  12.721   8.016   7.606
90097SOL    HW272124  12.830   8.023   7.501
90098SOL     OW72125   5.045  12.176   1.960
90098SOL    HW172126   4.965  12.138   1.923
90098SOL    HW272127   5.062  12.253   1.906
90099SOL     OW72128   5.600  10.919   4.926
90099SOL    HW172129   5.662  10.972   4.875
90099SOL    HW272130   5.656  10.871   4.987
90100SOL     OW72131   7.097   8.318   7.370
90100SOL    HW172132   7.032   8.318   7.300
90100SOL    HW272133   7.173   8.363   7.333
90101SOL     OW72134  10.579  12.698  12.768
90101SOL    HW172135  10.580  12.708  12.673
90101SOL    HW272136  10.613  12.781  12.801
90102SOL     OW72137   8.918   2.409   3.347
90102SOL    HW172138   8.907   2.375   3.258
90102SOL    HW272139   8.837   2.456   3.365
90103SOL     OW72140  13.495   3.847   8.042
90103SOL    HW172141  13.461   3.882   7.960
90103SOL    HW272142  13.431   3.873   8.108
90104SOL     OW72143   5.677  11.509  13.048
90104SOL    HW172144   5.596  11.545  13.087
90104SOL    HW272145   5.722  11.469  13.122
90105SOL     OW72146   7.227  12.935   7.624
90105SOL    HW172147   7.277  12.858   7.652
90105SOL    HW272148   7.136  12.912   7.640
90106SOL     OW72149   7.159   4.908   1.628
90106SOL    HW172150   7.135   5.000   1.626
90106SOL    HW272151   7.250   4.906   1.599
90107SOL     OW72152   7.492   8.191   6.984
90107SOL    HW172153   7.402   8.192   7.016
90107SOL    HW272154   7.497   8.265   6.924
90108SOL     OW72155  14.824  14.119  10.043
90108SOL    HW172156   0.036  14.118  10.022
90108SOL    HW272157  14.781  14.114   9.958
90109SOL     OW72158   0.032  14.167  11.481
90109SOL    HW172159   0.016  14.215  11.563
90109SOL    HW272160   0.126  14.173  11.467
90110SOL     OW72161   1.037   3.493   9.213
90110SOL    HW172162   1.131   3.499   9.227
90110SOL    HW272163   1.016   3.401   9.229
90111SOL     OW72164   9.730  13.865   8.172
90111SOL    HW172165   9.691  13.782   8.144
90111SOL    HW272166   9.672  13.896   8.242
90112SOL     OW72167   2.081   6.088  14.280
90112SOL    HW172168   2.064   6.094  14.186
90112SOL    HW272169   2.059   6.174  14.314
90113SOL     OW72170   2.560  10.503   1.208
90113SOL    HW172171   2.579  10.409   1.213
90113SOL    HW272172   2.505  10.520   1.285
90114SOL     OW72173  10.727  11.476  11.854
90114SOL    HW172174  10.714  11.534  11.929
90114SOL    HW272175  10.732  11.388  11.893
90115SOL     OW72176   8.341   9.653  13.981
90115SOL    HW172177   8.331   9.562  13.951
90115SOL    HW272178   8.290   9.657  14.062
90116SOL     OW72179   2.259  14.804   6.274
90116SOL    HW172180   2.291  14.832   6.360
90116SOL    HW272181   2.254   0.002   6.223
90117SOL     OW72182   9.232   5.440  14.736
90117SOL    HW172183   9.191   5.489  14.665
90117SOL    HW272184   9.296   5.384  14.693
90118SOL     OW72185  10.343   0.974   0.611
90118SOL    HW172186  10.267   1.013   0.655
90118SOL    HW272187  10.326   0.880   0.613
90119SOL     OW72188  10.241   0.188  14.618
90119SOL    HW172189  10.267   0.233  14.698
90119SOL    HW272190  10.318   0.193  14.561
90120SOL     OW72191   3.993  11.106   8.083
90120SOL    HW172192   3.925  11.166   8.113
90120SOL    HW272193   4.029  11.068   8.163
90121SOL     OW72194   5.957   9.902   1.955
90121SOL    HW172195   5.966   9.928   1.863
90121SOL    HW272196   5.871   9.860   1.961
90122SOL     OW72197  14.109   3.285   5.441
90122SOL    HW172198  14.018   3.301   5.414
90122SOL    HW272199  14.156   3.364   5.415
90123SOL     OW72200   9.780   3.885   2.862
90123SOL    HW172201   9.823   3.971   2.860
90123SOL    HW272202   9.844   3.828   2.905
90124SOL     OW72203  11.816   2.835   4.687
90124SOL    HW172204  11.811   2.929   4.669
90124SOL    HW272205  11.734   2.800   4.652
90125SOL     OW72206   3.657   5.045   7.087
90125SOL    HW172207   3.653   5.118   7.149
90125SOL    HW272208   3.714   5.077   7.017
90126SOL     OW72209  14.140  10.118   2.851
90126SOL    HW172210  14.048  10.142   2.843
90126SOL    HW272211  14.158  10.064   2.774
90127SOL     OW72212   5.441  13.157  10.732
90127SOL    HW172213   5.449  13.129  10.823
90127SOL    HW272214   5.347  13.159  10.715
90128SOL     OW72215   4.031   8.496   4.826
90128SOL    HW172216   4.100   8.465   4.885
90128SOL    HW272217   4.004   8.419   4.777
90129SOL     OW72218   4.179   3.137   3.348
90129SOL    HW172219   4.184   3.227   3.317
90129SOL    HW272220   4.087   3.124   3.370
90130SOL     OW72221   3.608   1.219  11.727
90130SOL    HW172222   3.624   1.154  11.658
90130SOL    HW272223   3.516   1.242  11.718
90131SOL     OW72224   0.794  10.335  14.714
90131SOL    HW172225   0.734  10.299  14.779
90131SOL    HW272226   0.866  10.272  14.711
90132SOL     OW72227   7.666   1.537  11.182
90132SOL    HW172228   7.704   1.615  11.141
90132SOL    HW272229   7.573   1.542  11.160
90133SOL     OW72230  14.593  11.936  10.419
90133SOL    HW172231  14.528  11.866  10.417
90133SOL    HW272232  14.542  12.016  10.431
90134SOL     OW72233  13.047   6.310   5.149
90134SOL    HW172234  13.031   6.294   5.057
90134SOL    HW272235  13.005   6.237   5.194
90135SOL     OW72236   6.722   8.857  11.434
90135SOL    HW172237   6.679   8.942  11.441
90135SOL    HW272238   6.656   8.799  11.397
90136SOL     OW72239   8.693  13.377   5.682
90136SOL    HW172240   8.652  13.392   5.768
90136SOL    HW272241   8.782  13.348   5.703
90137SOL     OW72242   1.271   7.211   0.712
90137SOL    HW172243   1.263   7.243   0.802
90137SOL    HW272244   1.334   7.269   0.671
90138SOL     OW72245   2.959  12.037   9.466
90138SOL    HW172246   2.871  12.024   9.431
90138SOL    HW272247   2.950  12.111   9.526
90139SOL     OW72248  12.551  10.787   3.444
90139SOL    HW172249  12.528  10.708   3.493
90139SOL    HW272250  12.559  10.758   3.353
90140SOL     OW72251  13.391   5.896  10.019
90140SOL    HW172252  13.322   5.894   9.953
90140SOL    HW272253  13.397   5.805  10.050
90141SOL     OW72254   4.038   8.266  12.846
90141SOL    HW172255   4.117   8.305  12.884
90141SOL    HW272256   3.983   8.341  12.823
90142SOL     OW72257   1.277  12.771   5.645
90142SOL    HW172258   1.252  12.861   5.620
90142SOL    HW272259   1.315  12.780   5.732
90143SOL     OW72260   4.459   4.958   1.999
90143SOL    HW172261   4.495   5.046   2.002
90143SOL    HW272262   4.527   4.903   2.038
90144SOL     OW72263   8.850  11.859  11.011
90144SOL    HW172264   8.774  11.832  11.063
90144SOL    HW272265   8.824  11.841  10.921
90145SOL     OW72266   5.821  11.592  12.031
90145SOL    HW172267   5.909  11.565  12.058
90145SOL    HW272268   5.782  11.514  11.993
90146SOL     OW72269   0.658   9.013   7.930
90146SOL    HW172270   0.671   8.919   7.914
90146SOL    HW272271   0.568   9.020   7.959
90147SOL     OW72272  12.357   8.583  13.009
90147SOL    HW172273  12.282   8.575  13.067
90147SOL    HW272274  12.338   8.523  12.937
90148SOL     OW72275   3.145  12.194   3.821
90148SOL    HW172276   3.180  12.146   3.745
90148SOL    HW272277   3.217  12.197   3.883
90149SOL     OW72278   2.794  10.248   7.876
90149SOL    HW172279   2.832  10.201   7.802
90149SOL    HW272280   2.700  10.233   7.869
90150SOL     OW72281   2.252   1.730   3.423
90150SOL    HW172282   2.345   1.748   3.414
90150SOL    HW272283   2.246   1.636   3.441
90151SOL     OW72284   5.522   3.610   1.081
90151SOL    HW172285   5.607   3.615   1.037
90151SOL    HW272286   5.539   3.555   1.158
90152SOL     OW72287   4.357  14.130   6.160
90152SOL    HW172288   4.394  14.124   6.072
90152SOL    HW272289   4.371  14.043   6.198
90153SOL     OW72290   9.051  12.746   3.749
90153SOL    HW172291   9.009  12.831   3.755
90153SOL    HW272292   9.124  12.750   3.811
90154SOL     OW72293   7.540   4.030   4.269
90154SOL    HW172294   7.492   4.012   4.350
90154SOL    HW272295   7.625   3.989   4.282
90155SOL     OW72296   2.376   5.516  13.546
90155SOL    HW172297   2.376   5.444  13.484
90155SOL    HW272298   2.347   5.592  13.496
90156SOL     OW72299   0.333   4.977   7.141
90156SOL    HW172300   0.336   4.960   7.236
90156SOL    HW272301   0.240   4.972   7.119
90157SOL     OW72302   0.496   4.812   9.259
90157SOL    HW172303   0.449   4.732   9.284
90157SOL    HW272304   0.484   4.817   9.164
90158SOL     OW72305   2.807   4.882  13.626
90158SOL    HW172306   2.791   4.801  13.674
90158SOL    HW272307   2.834   4.854  13.539
90159SOL     OW72308   9.703  11.278   8.159
90159SOL    HW172309   9.680  11.195   8.202
90159SOL    HW272310   9.739  11.251   8.074
90160SOL     OW72311  13.169  11.243  11.019
90160SOL    HW172312  13.211  11.329  11.020
90160SOL    HW272313  13.128  11.238  10.933
90161SOL     OW72314  14.433   3.993   3.285
90161SOL    HW172315  14.365   3.951   3.337
90161SOL    HW272316  14.412   3.971   3.195
90162SOL     OW72317   3.385  10.179   1.393
90162SOL    HW172318   3.336  10.252   1.354
90162SOL    HW272319   3.412  10.126   1.318
90163SOL     OW72320   3.758   3.561   5.287
90163SOL    HW172321   3.798   3.580   5.202
90163SOL    HW272322   3.831   3.530   5.341
90164SOL     OW72323   4.962   5.126   7.536
90164SOL    HW172324   5.041   5.164   7.575
90164SOL    HW272325   4.962   5.035   7.566
90165SOL     OW72326  10.636  10.637  12.083
90165SOL    HW172327  10.588  10.716  12.059
90165SOL    HW272328  10.728  10.661  12.074
90166SOL     OW72329  10.105   5.888   0.972
90166SOL    HW172330  10.166   5.953   1.006
90166SOL    HW272331  10.022   5.908   1.014
90167SOL     OW72332   2.654   6.804   6.728
90167SOL    HW172333   2.747   6.798   6.708
90167SOL    HW272334   2.618   6.861   6.660
90168SOL     OW72335   5.775  12.029   5.622
90168SOL    HW172336   5.859  12.007   5.662
90168SOL    HW272337   5.749  11.949   5.576
90169SOL     OW72338   5.063  13.920   1.895
90169SOL    HW172339   5.112  13.921   1.813
90169SOL    HW272340   5.116  13.972   1.955
90170SOL     OW72341   9.766  10.715   0.554
90170SOL    HW172342   9.777  10.777   0.625
90170SOL    HW272343   9.690  10.747   0.505
90171SOL     OW72344   7.484   0.932   6.052
90171SOL    HW172345   7.400   0.972   6.074
90171SOL    HW272346   7.465   0.874   5.978
90172SOL     OW72347   4.609  14.084  12.048
90172SOL    HW172348   4.568  14.168  12.070
90172SOL    HW272349   4.535  14.024  12.036
90173SOL     OW72350   2.544   0.344   5.486
90173SOL    HW172351   2.604   0.277   5.517
90173SOL    HW272352   2.528   0.399   5.563
90174SOL     OW72353  11.278  14.722   1.820
90174SOL    HW172354  11.373  14.720   1.811
90174SOL    HW272355  11.256  14.640   1.865
90175SOL     OW72356   5.585   4.195   8.607
90175SOL    HW172357   5.548   4.281   8.587
90175SOL    HW272358   5.563   4.180   8.699
90176SOL     OW72359   3.761   2.882  11.108
90176SOL    HW172360   3.814   2.827  11.166
90176SOL    HW272361   3.817   2.898  11.032
90177SOL     OW72362   1.544  14.672   5.326
90177SOL    HW172363   1.464  14.696   5.280
90177SOL    HW272364   1.615  14.701   5.268
90178SOL     OW72365  12.415   8.676   1.763
90178SOL    HW172366  12.360   8.600   1.741
90178SOL    HW272367  12.442   8.660   1.853
90179SOL     OW72368  14.657   9.689   0.943
90179SOL    HW172369  14.745   9.652   0.945
90179SOL    HW272370  14.627   9.671   0.853
90180SOL     OW72371   8.006   2.662  10.426
90180SOL    HW172372   8.081   2.701  10.472
90180SOL    HW272373   8.026   2.675  10.333
90181SOL     OW72374   3.350  11.223   8.458
90181SOL    HW172375   3.409  11.148   8.447
90181SOL    HW272376   3.408  11.297   8.473
90182SOL     OW72377   0.167   4.096  13.290
90182SOL    HW172378   0.200   4.184  13.272
90182SOL    HW272379   0.241   4.050  13.329
90183SOL     OW72380   5.073   0.736  13.805
90183SOL    HW172381   5.033   0.822  13.793
90183SOL    HW272382   5.105   0.737  13.895
90184SOL     OW72383   4.410   3.677   3.316
90184SOL    HW172384   4.450   3.614   3.257
90184SOL    HW272385   4.366   3.624   3.382
90185SOL     OW72386  14.830   7.762   7.132
90185SOL    HW172387   0.020   7.698   7.136
90185SOL    HW272388  14.838   7.812   7.214
90186SOL     OW72389   6.726   1.232   6.411
90186SOL    HW172390   6.787   1.175   6.364
90186SOL    HW272391   6.731   1.201   6.502
90187SOL     OW72392   7.142   7.907   1.646
90187SOL    HW172393   7.086   7.859   1.585
90187SOL    HW272394   7.231   7.897   1.611
90188SOL     OW72395   8.264   0.443   3.900
90188SOL    HW172396   8.326   0.372   3.885
90188SOL    HW272397   8.180   0.399   3.913
90189SOL     OW72398   8.087   1.617  11.940
90189SOL    HW172399   8.041   1.565  11.874
90189SOL    HW272400   8.061   1.707  11.921
90190SOL     OW72401   0.625   6.656  13.163
90190SOL    HW172402   0.713   6.673  13.197
90190SOL    HW272403   0.604   6.733  13.110
90191SOL     OW72404   1.593   6.453  13.500
90191SOL    HW172405   1.565   6.424  13.586
90191SOL    HW272406   1.580   6.377  13.443
90192SOL     OW72407   2.557  10.303   3.413
90192SOL    HW172408   2.581  10.255   3.492
90192SOL    HW272409   2.561  10.238   3.343
90193SOL     OW72410   2.371   3.847   2.555
90193SOL    HW172411   2.305   3.912   2.577
90193SOL    HW272412   2.428   3.891   2.492
90194SOL     OW72413   2.580   4.173   6.935
90194SOL    HW172414   2.525   4.140   7.006
90194SOL    HW272415   2.528   4.160   6.856
90195SOL     OW72416   1.188  11.010   2.061
90195SOL    HW172417   1.113  11.048   2.107
90195SOL    HW272418   1.184  10.917   2.083
90196SOL     OW72419  13.499  10.075   3.678
90196SOL    HW172420  13.450  10.157   3.678
90196SOL    HW272421  13.513  10.055   3.771
90197SOL     OW72422  14.845   9.385  13.405
90197SOL    HW172423   0.039   9.438  13.382
90197SOL    HW272424  14.881   9.307  13.447
90198SOL     OW72425   0.679   8.633  11.741
90198SOL    HW172426   0.602   8.622  11.685
90198SOL    HW272427   0.651   8.602  11.827
90199SOL     OW72428  14.807   0.931  14.272
90199SOL    HW172429  14.864   0.875  14.220
90199SOL    HW272430  14.864   0.964  14.342
90200SOL     OW72431   6.572   0.198   4.956
90200SOL    HW172432   6.582   0.173   5.048
90200SOL    HW272433   6.654   0.242   4.934
90201SOL     OW72434   8.692  14.505  13.376
90201SOL    HW172435   8.681  14.426  13.324
90201SOL    HW272436   8.700  14.576  13.312
90202SOL     OW72437  11.691   6.214  10.028
90202SOL    HW172438  11.719   6.300  10.059
90202SOL    HW272439  11.757   6.153  10.063
90203SOL     OW72440   5.037   4.891   1.437
90203SOL    HW172441   5.035   4.863   1.345
90203SOL    HW272442   5.095   4.967   1.438
90204SOL     OW72443   4.343   6.948   0.839
90204SOL    HW172444   4.283   6.903   0.779
90204SOL    HW272445   4.305   6.935   0.925
90205SOL     OW72446   6.345   5.339   9.100
90205SOL    HW172447   6.396   5.335   9.019
90205SOL    HW272448   6.274   5.277   9.086
90206SOL     OW72449  14.508   4.814   7.922
90206SOL    HW172450  14.567   4.748   7.958
90206SOL    HW272451  14.428   4.808   7.975
90207SOL     OW72452  14.645   9.266   8.774
90207SOL    HW172453  14.561   9.246   8.731
90207SOL    HW272454  14.711   9.230   8.714
90208SOL     OW72455   9.255   8.934   6.014
90208SOL    HW172456   9.235   8.951   5.922
90208SOL    HW272457   9.250   9.021   6.055
90209SOL     OW72458   5.201   5.890   4.181
90209SOL    HW172459   5.215   5.985   4.177
90209SOL    HW272460   5.225   5.859   4.094
90210SOL     OW72461  11.621  11.222   5.919
90210SOL    HW172462  11.540  11.192   5.961
90210SOL    HW272463  11.595  11.246   5.831
90211SOL     OW72464  10.590  12.225   7.129
90211SOL    HW172465  10.503  12.197   7.098
90211SOL    HW272466  10.650  12.189   7.064
90212SOL     OW72467  14.467   3.572   5.893
90212SOL    HW172468  14.506   3.571   5.981
90212SOL    HW272469  14.543   3.571   5.834
90213SOL     OW72470  13.461  12.023   6.821
90213SOL    HW172471  13.516  11.946   6.810
90213SOL    HW272472  13.375  11.988   6.844
90214SOL     OW72473   6.111   7.474  14.636
90214SOL    HW172474   6.126   7.403  14.698
90214SOL    HW272475   6.180   7.537  14.655
90215SOL     OW72476   2.036   6.490  12.987
90215SOL    HW172477   1.996   6.574  12.961
90215SOL    HW272478   2.050   6.444  12.905
90216SOL     OW72479   9.382   8.547   3.001
90216SOL    HW172480   9.372   8.459   3.039
90216SOL    HW272481   9.337   8.541   2.916
90217SOL     OW72482   8.083   8.096   3.171
90217SOL    HW172483   7.994   8.094   3.134
90217SOL    HW272484   8.078   8.160   3.242
90218SOL     OW72485   4.381   8.461  12.359
90218SOL    HW172486   4.434   8.488  12.284
90218SOL    HW272487   4.313   8.404  12.322
90219SOL     OW72488   9.680  14.748   3.473
90219SOL    HW172489   9.644  14.666   3.438
90219SOL    HW272490   9.764  14.723   3.511
90220SOL     OW72491   0.182  14.548  13.365
90220SOL    HW172492   0.112  14.592  13.414
90220SOL    HW272493   0.208  14.475  13.421
90221SOL     OW72494   3.418   7.156   7.125
90221SOL    HW172495   3.494   7.209   7.146
90221SOL    HW272496   3.453   7.070   7.104
90222SOL     OW72497   4.328   1.304   8.060
90222SOL    HW172498   4.419   1.298   8.090
90222SOL    HW272499   4.329   1.376   7.997
90223SOL     OW72500   0.925   5.009   2.472
90223SOL    HW172501   0.849   5.050   2.513
90223SOL    HW272502   0.900   4.917   2.462
90224SOL     OW72503  11.383  13.110  12.521
90224SOL    HW172504  11.332  13.130  12.600
90224SOL    HW272505  11.349  13.171  12.455
90225SOL     OW72506   0.962   8.762  13.365
90225SOL    HW172507   1.018   8.790  13.438
90225SOL    HW272508   0.889   8.718  13.407
90226SOL     OW72509  14.723   1.699   2.896
90226SOL    HW172510  14.687   1.666   2.979
90226SOL    HW272511  14.750   1.620   2.849
90227SOL     OW72512   4.343  10.865  10.685
90227SOL    HW172513   4.419  10.922  10.691
90227SOL    HW272514   4.268  10.923  10.699
90228SOL     OW72515  10.678   5.512   1.245
90228SOL    HW172516  10.636   5.579   1.299
90228SOL    HW272517  10.698   5.556   1.163
90229SOL     OW72518   2.375   4.811   1.683
90229SOL    HW172519   2.331   4.895   1.667
90229SOL    HW272520   2.419   4.823   1.767
90230SOL     OW72521  12.671   4.278   3.864
90230SOL    HW172522  12.764   4.280   3.843
90230SOL    HW272523  12.662   4.332   3.943
90231SOL     OW72524   3.626   1.520  13.380
90231SOL    HW172525   3.582   1.460  13.440
90231SOL    HW272526   3.708   1.477  13.357
90232SOL     OW72527  13.787  14.475   0.201
90232SOL    HW172528  13.851  14.429   0.146
90232SOL    HW272529  13.718  14.502   0.140
90233SOL     OW72530   1.477   1.964  11.759
90233SOL    HW172531   1.414   1.896  11.783
90233SOL    HW272532   1.491   1.950  11.665
90234SOL     OW72533  13.345   4.718   1.752
90234SOL    HW172534  13.378   4.788   1.809
90234SOL    HW272535  13.319   4.648   1.811
90235SOL     OW72536   2.229  11.195  13.891
90235SOL    HW172537   2.196  11.156  13.810
90235SOL    HW272538   2.304  11.247  13.864
90236SOL     OW72539  11.145  10.725   9.657
90236SOL    HW172540  11.212  10.675   9.611
90236SOL    HW272541  11.076  10.736   9.592
90237SOL     OW72542   3.478  11.707   5.617
90237SOL    HW172543   3.386  11.717   5.643
90237SOL    HW272544   3.504  11.793   5.585
90238SOL     OW72545   4.226  12.765   9.054
90238SOL    HW172546   4.161  12.833   9.072
90238SOL    HW272547   4.303  12.812   9.022
90239SOL     OW72548   6.705   3.457   4.545
90239SOL    HW172549   6.720   3.517   4.619
90239SOL    HW272550   6.633   3.401   4.574
90240SOL     OW72551   6.807   7.189   0.955
90240SOL    HW172552   6.860   7.137   1.015
90240SOL    HW272553   6.858   7.190   0.873
90241SOL     OW72554   8.291   6.015   9.006
90241SOL    HW172555   8.335   5.997   9.089
90241SOL    HW272556   8.280   6.110   9.005
90242SOL     OW72557   1.693   3.516   7.658
90242SOL    HW172558   1.758   3.447   7.663
90242SOL    HW272559   1.696   3.559   7.743
90243SOL     OW72560   6.732  10.077   4.275
90243SOL    HW172561   6.727  10.161   4.319
90243SOL    HW272562   6.816  10.079   4.229
90244SOL     OW72563   1.692   6.086   4.971
90244SOL    HW172564   1.730   6.067   4.885
90244SOL    HW272565   1.610   6.130   4.951
90245SOL     OW72566   6.638   8.757  12.365
90245SOL    HW172567   6.588   8.827  12.406
90245SOL    HW272568   6.575   8.686  12.352
90246SOL     OW72569   1.669   2.965  10.148
90246SOL    HW172570   1.673   2.982  10.054
90246SOL    HW272571   1.657   3.052  10.188
90247SOL     OW72572   1.867   7.136  13.697
90247SOL    HW172573   1.871   7.165  13.605
90247SOL    HW272574   1.941   7.076  13.705
90248SOL     OW72575   3.695   1.371   8.378
90248SOL    HW172576   3.641   1.376   8.299
90248SOL    HW272577   3.638   1.335   8.445
90249SOL     OW72578   5.356  13.585   1.576
90249SOL    HW172579   5.391  13.628   1.653
90249SOL    HW272580   5.399  13.629   1.502
90250SOL     OW72581   4.442   4.348  12.145
90250SOL    HW172582   4.454   4.299  12.064
90250SOL    HW272583   4.363   4.399  12.132
90251SOL     OW72584   5.189   0.738  14.081
90251SOL    HW172585   5.253   0.671  14.107
90251SOL    HW272586   5.165   0.781  14.163
90252SOL     OW72587   4.887   7.329   1.129
90252SOL    HW172588   4.855   7.293   1.211
90252SOL    HW272589   4.824   7.301   1.063
90253SOL     OW72590   6.375   5.433   7.797
90253SOL    HW172591   6.296   5.465   7.755
90253SOL    HW272592   6.445   5.447   7.733
90254SOL     OW72593   2.747  12.360   8.613
90254SOL    HW172594   2.658  12.391   8.630
90254SOL    HW272595   2.748  12.341   8.519
90255SOL     OW72596   4.425  11.382   9.867
90255SOL    HW172597   4.455  11.466   9.902
90255SOL    HW272598   4.459  11.317   9.929
90256SOL     OW72599   0.413   9.413   0.289
90256SOL    HW172600   0.472   9.478   0.326
90256SOL    HW272601   0.469   9.360   0.232
90257SOL     OW72602   4.070   2.684   8.051
90257SOL    HW172603   4.076   2.597   8.010
90257SOL    HW272604   4.141   2.734   8.012
90258SOL     OW72605  14.211  10.314   3.025
90258SOL    HW172606  14.207  10.238   2.967
90258SOL    HW272607  14.303  10.323   3.047
90259SOL     OW72608   7.118   3.923   1.159
90259SOL    HW172609   7.055   3.877   1.214
90259SOL    HW272610   7.161   3.854   1.108
90260SOL     OW72611   4.027   4.195  12.185
90260SOL    HW172612   4.086   4.148  12.243
90260SOL    HW272613   3.949   4.212  12.238
90261SOL     OW72614   4.796   3.880   0.512
90261SOL    HW172615   4.793   3.840   0.599
90261SOL    HW272616   4.866   3.946   0.519
90262SOL     OW72617   2.047  13.009  12.299
90262SOL    HW172618   1.992  13.026  12.223
90262SOL    HW272619   2.021  13.075  12.363
90263SOL     OW72620   1.704   7.586   0.437
90263SOL    HW172621   1.633   7.549   0.383
90263SOL    HW272622   1.784   7.556   0.394
90264SOL     OW72623   8.701   5.621   1.570
90264SOL    HW172624   8.638   5.605   1.640
90264SOL    HW272625   8.688   5.550   1.508
90265SOL     OW72626   8.665  11.625   8.391
90265SOL    HW172627   8.729  11.558   8.366
90265SOL    HW272628   8.678  11.696   8.328
90266SOL     OW72629   4.118  13.832   3.941
90266SOL    HW172630   4.160  13.746   3.942
90266SOL    HW272631   4.091  13.845   3.850
90267SOL     OW72632   6.323  10.648   5.652
90267SOL    HW172633   6.353  10.727   5.606
90267SOL    HW272634   6.244  10.675   5.697
90268SOL     OW72635   5.659   8.135   1.096
90268SOL    HW172636   5.667   8.053   1.047
90268SOL    HW272637   5.592   8.118   1.162
90269SOL     OW72638   3.939  12.283   4.601
90269SOL    HW172639   3.909  12.197   4.573
90269SOL    HW272640   4.025  12.267   4.639
90270SOL     OW72641   5.043   2.770  13.205
90270SOL    HW172642   5.081   2.773  13.293
90270SOL    HW272643   4.979   2.841  13.204
90271SOL     OW72644  11.489  13.995  12.218
90271SOL    HW172645  11.470  13.971  12.308
90271SOL    HW272646  11.423  13.948  12.166
90272SOL     OW72647  11.500   2.598  11.234
90272SOL    HW172648  11.482   2.686  11.200
90272SOL    HW272649  11.579   2.570  11.187
90273SOL     OW72650   7.327   5.486   8.485
90273SOL    HW172651   7.347   5.539   8.408
90273SOL    HW272652   7.231   5.492   8.494
90274SOL     OW72653   2.347   0.013  14.329
90274SOL    HW172654   2.315   0.101  14.309
90274SOL    HW272655   2.295  14.867  14.404
90275SOL     OW72656   7.898   4.245  12.268
90275SOL    HW172657   7.852   4.325  12.242
90275SOL    HW272658   7.883   4.183  12.197
90276SOL     OW72659   5.551  14.679  11.437
90276SOL    HW172660   5.520  14.615  11.501
90276SOL    HW272661   5.487  14.750  11.442
90277SOL     OW72662   6.405   1.461   4.458
90277SOL    HW172663   6.319   1.497   4.478
90277SOL    HW272664   6.414   1.470   4.363
90278SOL     OW72665  10.401   3.121  14.723
90278SOL    HW172666  10.352   3.197  14.754
90278SOL    HW272667  10.388   3.055  14.790
90279SOL     OW72668  13.650   8.269   9.462
90279SOL    HW172669  13.735   8.243   9.498
90279SOL    HW272670  13.593   8.194   9.476
90280SOL     OW72671   3.010   3.236  13.085
90280SOL    HW172672   2.946   3.273  13.024
90280SOL    HW272673   2.963   3.230  13.169
90281SOL     OW72674   5.564   5.811   8.122
90281SOL    HW172675   5.523   5.819   8.036
90281SOL    HW272676   5.532   5.887   8.170
90282SOL     OW72677   4.597   3.399  11.646
90282SOL    HW172678   4.546   3.478  11.666
90282SOL    HW272679   4.542   3.350  11.584
90283SOL     OW72680  10.662   1.090  14.070
90283SOL    HW172681  10.588   1.060  14.017
90283SOL    HW272682  10.622   1.137  14.143
90284SOL     OW72683   2.012  11.408   4.509
90284SOL    HW172684   1.926  11.385   4.545
90284SOL    HW272685   2.059  11.448   4.582
90285SOL     OW72686  14.215   5.406   3.918
90285SOL    HW172687  14.138   5.461   3.934
90285SOL    HW272688  14.190   5.352   3.843
90286SOL     OW72689   4.993   2.832  12.669
90286SOL    HW172690   4.906   2.803  12.642
90286SOL    HW272691   4.980   2.921  12.701
90287SOL     OW72692  11.235  11.540   2.952
90287SOL    HW172693  11.307  11.585   2.907
90287SOL    HW272694  11.264  11.531   3.042
90288SOL     OW72695   2.330   9.141  13.080
90288SOL    HW172696   2.362   9.171  12.995
90288SOL    HW272697   2.236   9.125  13.066
90289SOL     OW72698  12.255   1.228   2.998
90289SOL    HW172699  12.177   1.283   2.997
90289SOL    HW272700  12.230   1.149   2.949
90290SOL     OW72701   3.238  13.036   9.440
90290SOL    HW172702   3.260  12.975   9.371
90290SOL    HW272703   3.172  12.990   9.492
90291SOL     OW72704   9.203   8.646   1.284
90291SOL    HW172705   9.264   8.685   1.222
90291SOL    HW272706   9.259   8.599   1.346
90292SOL     OW72707  11.128   6.285   2.372
90292SOL    HW172708  11.118   6.217   2.306
90292SOL    HW272709  11.223   6.290   2.387
90293SOL     OW72710   8.566   1.306   5.339
90293SOL    HW172711   8.553   1.398   5.315
90293SOL    HW272712   8.485   1.263   5.311
90294SOL     OW72713  11.757  14.279   0.349
90294SOL    HW172714  11.750  14.206   0.411
90294SOL    HW272715  11.670  14.285   0.309
90295SOL     OW72716   6.941  13.500  13.064
90295SOL    HW172717   6.886  13.571  13.031
90295SOL    HW272718   6.961  13.525  13.154
90296SOL     OW72719  13.603   6.698   2.105
90296SOL    HW172720  13.653   6.643   2.045
90296SOL    HW272721  13.597   6.646   2.185
90297SOL     OW72722   8.444  11.435  11.487
90297SOL    HW172723   8.362  11.473  11.455
90297SOL    HW272724   8.511  11.499  11.464
90298SOL     OW72725   6.718   2.478   5.524
90298SOL    HW172726   6.768   2.513   5.597
90298SOL    HW272727   6.724   2.383   5.534
90299SOL     OW72728  11.534   8.511   9.169
90299SOL    HW172729  11.598   8.574   9.203
90299SOL    HW272730  11.449   8.552   9.187
90300SOL     OW72731  12.129   9.014   9.023
90300SOL    HW172732  12.222   9.010   9.047
90300SOL    HW272733  12.115   9.104   8.997
90301SOL     OW72734  10.390   3.077   3.636
90301SOL    HW172735  10.313   3.027   3.663
90301SOL    HW272736  10.355   3.151   3.586
90302SOL     OW72737  10.770  10.341  12.556
90302SOL    HW172738  10.675  10.338  12.543
90302SOL    HW272739  10.806  10.324  12.469
90303SOL     OW72740   6.887   7.733  14.075
90303SOL    HW172741   6.962   7.680  14.102
90303SOL    HW272742   6.879   7.718  13.981
90304SOL     OW72743  10.491   4.644   7.125
90304SOL    HW172744  10.415   4.595   7.157
90304SOL    HW272745  10.559   4.578   7.113
90305SOL     OW72746  12.605  14.109   4.904
90305SOL    HW172747  12.610  14.042   4.836
90305SOL    HW272748  12.511  14.123   4.917
90306SOL     OW72749   5.348   8.979   5.103
90306SOL    HW172750   5.390   9.010   5.183
90306SOL    HW272751   5.266   8.939   5.132
90307SOL     OW72752   5.193  14.717  10.852
90307SOL    HW172753   5.283  14.703  10.882
90307SOL    HW272754   5.163  14.794  10.901
90308SOL     OW72755  13.427   9.460   2.814
90308SOL    HW172756  13.416   9.473   2.720
90308SOL    HW272757  13.521   9.463   2.829
90309SOL     OW72758   2.859   4.487   3.099
90309SOL    HW172759   2.897   4.504   3.013
90309SOL    HW272760   2.875   4.394   3.115
90310SOL     OW72761   7.253  14.630   7.195
90310SOL    HW172762   7.330  14.593   7.237
90310SOL    HW272763   7.258  14.599   7.104
90311SOL     OW72764   2.660   3.006   9.058
90311SOL    HW172765   2.641   3.031   9.149
90311SOL    HW272766   2.725   3.070   9.029
90312SOL     OW72767  10.588   8.353   8.152
90312SOL    HW172768  10.497   8.369   8.179
90312SOL    HW272769  10.634   8.433   8.176
90313SOL     OW72770  14.564   5.063  14.026
90313SOL    HW172771  14.499   5.029  14.087
90313SOL    HW272772  14.516   5.128  13.974
90314SOL     OW72773   5.144   3.738  14.314
90314SOL    HW172774   5.143   3.709  14.405
90314SOL    HW272775   5.234   3.727  14.286
90315SOL     OW72776  14.523   7.449   6.538
90315SOL    HW172777  14.497   7.371   6.489
90315SOL    HW272778  14.619   7.448   6.538
90316SOL     OW72779   8.137   8.301   5.710
90316SOL    HW172780   8.155   8.327   5.800
90316SOL    HW272781   8.199   8.231   5.692
90317SOL     OW72782  13.972   9.871   2.501
90317SOL    HW172783  14.020   9.797   2.538
90317SOL    HW272784  13.908   9.894   2.569
90318SOL     OW72785  13.602   1.667   9.477
90318SOL    HW172786  13.656   1.722   9.533
90318SOL    HW272787  13.582   1.722   9.401
90319SOL     OW72788   0.429  10.631   3.564
90319SOL    HW172789   0.346  10.668   3.535
90319SOL    HW272790   0.414  10.536   3.566
90320SOL     OW72791   5.675  13.473   8.471
90320SOL    HW172792   5.622  13.465   8.392
90320SOL    HW272793   5.692  13.383   8.498
90321SOL     OW72794  10.543   8.125  11.549
90321SOL    HW172795  10.510   8.048  11.595
90321SOL    HW272796  10.488   8.197  11.580
90322SOL     OW72797   4.568  11.280  13.815
90322SOL    HW172798   4.489  11.297  13.765
90322SOL    HW272799   4.563  11.187  13.838
90323SOL     OW72800   5.559  10.910   8.101
90323SOL    HW172801   5.515  10.925   8.018
90323SOL    HW272802   5.602  10.825   8.091
90324SOL     OW72803   5.017   7.294  13.560
90324SOL    HW172804   4.971   7.290  13.476
90324SOL    HW272805   5.086   7.228  13.553
90325SOL     OW72806   4.227  14.288   2.218
90325SOL    HW172807   4.178  14.338   2.283
90325SOL    HW272808   4.244  14.350   2.147
90326SOL     OW72809  12.694   4.719  14.326
90326SOL    HW172810  12.625   4.653  14.328
90326SOL    HW272811  12.689   4.757  14.238
90327SOL     OW72812  11.803   9.127   5.595
90327SOL    HW172813  11.742   9.201   5.605
90327SOL    HW272814  11.797   9.080   5.678
90328SOL     OW72815   9.847  10.911   0.714
90328SOL    HW172816   9.918  10.961   0.672
90328SOL    HW272817   9.787  10.978   0.747
90329SOL     OW72818   8.986   3.138   5.528
90329SOL    HW172819   9.023   3.155   5.615
90329SOL    HW272820   8.899   3.178   5.531
90330SOL     OW72821   8.715  10.417  13.354
90330SOL    HW172822   8.706  10.352  13.284
90330SOL    HW272823   8.749  10.495  13.311
90331SOL     OW72824  13.893   4.061  11.167
90331SOL    HW172825  13.875   3.967  11.169
90331SOL    HW272826  13.842   4.097  11.240
90332SOL     OW72827   9.175   9.197   9.369
90332SOL    HW172828   9.182   9.108   9.404
90332SOL    HW272829   9.087   9.225   9.393
90333SOL     OW72830   2.538   1.175   1.318
90333SOL    HW172831   2.472   1.170   1.386
90333SOL    HW272832   2.613   1.217   1.360
90334SOL     OW72833   1.801   1.862   0.630
90334SOL    HW172834   1.847   1.884   0.548
90334SOL    HW272835   1.740   1.934   0.644
90335SOL     OW72836  14.002  10.926  12.122
90335SOL    HW172837  13.979  10.851  12.178
90335SOL    HW272838  13.928  10.935  12.062
90336SOL     OW72839  11.322   6.268  11.058
90336SOL    HW172840  11.356   6.296  10.973
90336SOL    HW272841  11.236   6.230  11.039
90337SOL     OW72842  12.098   2.018   5.899
90337SOL    HW172843  12.038   2.062   5.960
90337SOL    HW272844  12.106   1.929   5.933
90338SOL     OW72845   8.843   7.065   4.156
90338SOL    HW172846   8.852   7.096   4.066
90338SOL    HW272847   8.930   7.078   4.194
90339SOL     OW72848   4.399   0.583   0.439
90339SOL    HW172849   4.373   0.675   0.436
90339SOL    HW272850   4.336   0.542   0.498
90340SOL     OW72851   3.197   6.424   9.412
90340SOL    HW172852   3.227   6.462   9.329
90340SOL    HW272853   3.156   6.341   9.387
90341SOL     OW72854   1.745   3.567  10.146
90341SOL    HW172855   1.785   3.481  10.143
90341SOL    HW272856   1.802   3.618  10.204
90342SOL     OW72857   2.232   1.736   4.437
90342SOL    HW172858   2.181   1.762   4.514
90342SOL    HW272859   2.270   1.818   4.406
90343SOL     OW72860  10.983   0.278   1.491
90343SOL    HW172861  11.055   0.241   1.438
90343SOL    HW272862  10.904   0.258   1.441
90344SOL     OW72863  10.276  10.559  11.602
90344SOL    HW172864  10.267  10.647  11.638
90344SOL    HW272865  10.288  10.573  11.508
90345SOL     OW72866   5.636  14.763   2.055
90345SOL    HW172867   5.729  14.776   2.039
90345SOL    HW272868   5.592  14.819   1.990
90346SOL     OW72869   8.847   1.705   0.774
90346SOL    HW172870   8.791   1.673   0.703
90346SOL    HW272871   8.924   1.740   0.730
90347SOL     OW72872   6.687   8.097   5.020
90347SOL    HW172873   6.630   8.170   5.045
90347SOL    HW272874   6.764   8.107   5.076
90348SOL     OW72875   9.022   0.344   0.599
90348SOL    HW172876   8.973   0.317   0.521
90348SOL    HW272877   8.980   0.424   0.628
90349SOL     OW72878  10.543   3.861   1.775
90349SOL    HW172879  10.452   3.833   1.779
90349SOL    HW272880  10.585   3.816   1.848
90350SOL     OW72881  10.883  13.526   1.407
90350SOL    HW172882  10.946  13.560   1.344
90350SOL    HW272883  10.797  13.551   1.373
90351SOL     OW72884   5.032  14.048  12.303
90351SOL    HW172885   4.953  14.008  12.264
90351SOL    HW272886   5.082  14.079  12.228
90352SOL     OW72887   0.686  14.586  12.818
90352SOL    HW172888   0.695  14.667  12.868
90352SOL    HW272889   0.662  14.616  12.730
90353SOL     OW72890  14.516   0.358   4.206
90353SOL    HW172891  14.436   0.321   4.243
90353SOL    HW272892  14.488   0.400   4.125
90354SOL     OW72893  13.504  13.808  14.687
90354SOL    HW172894  13.482  13.864  14.762
90354SOL    HW272895  13.519  13.869  14.615
90355SOL     OW72896  14.704   0.503  13.924
90355SOL    HW172897  14.723   0.540  14.011
90355SOL    HW272898  14.688   0.580  13.869
90356SOL     OW72899  13.141   3.050   3.747
90356SOL    HW172900  13.067   3.028   3.804
90356SOL    HW272901  13.104   3.051   3.658
90357SOL     OW72902   5.089  11.771   4.408
90357SOL    HW172903   5.045  11.715   4.472
90357SOL    HW272904   5.046  11.857   4.418
90358SOL     OW72905   2.300   0.693  10.404
90358SOL    HW172906   2.310   0.603  10.373
90358SOL    HW272907   2.223   0.726  10.357
90359SOL     OW72908  10.326   4.089   6.332
90359SOL    HW172909  10.362   4.035   6.402
90359SOL    HW272910  10.399   4.145   6.306
90360SOL     OW72911  12.683   8.936  13.482
90360SOL    HW172912  12.746   8.993  13.437
90360SOL    HW272913  12.735   8.890  13.548
90361SOL     OW72914   3.307   8.502  13.990
90361SOL    HW172915   3.296   8.414  13.954
90361SOL    HW272916   3.346   8.553  13.918
90362SOL     OW72917   5.430  12.764  12.165
90362SOL    HW172918   5.485  12.799  12.234
90362SOL    HW272919   5.342  12.794  12.187
90363SOL     OW72920  11.838   6.757   2.594
90363SOL    HW172921  11.744   6.739   2.595
90363SOL    HW272922  11.869   6.724   2.679
90364SOL     OW72923  13.354  12.701  10.511
90364SOL    HW172924  13.291  12.746  10.454
90364SOL    HW272925  13.426  12.764  10.521
90365SOL     OW72926   0.620  10.065   8.006
90365SOL    HW172927   0.636  10.076   7.912
90365SOL    HW272928   0.573  10.143   8.033
90366SOL     OW72929   0.020   7.126   1.496
90366SOL    HW172930   0.010   7.045   1.446
90366SOL    HW272931  14.815   7.166   1.493
90367SOL     OW72932  13.750   7.769   5.132
90367SOL    HW172933  13.777   7.678   5.142
90367SOL    HW272934  13.783   7.795   5.046
90368SOL     OW72935  14.561  14.572   0.828
90368SOL    HW172936  14.569  14.629   0.905
90368SOL    HW272937  14.501  14.503   0.855
90369SOL     OW72938   5.960   9.574  11.867
90369SOL    HW172939   5.997   9.487  11.851
90369SOL    HW272940   5.925   9.569  11.955
90370SOL     OW72941   2.167   3.409  12.196
90370SOL    HW172942   2.191   3.498  12.221
90370SOL    HW272943   2.209   3.396  12.111
90371SOL     OW72944  11.278   5.021   4.335
90371SOL    HW172945  11.183   5.031   4.344
90371SOL    HW272946  11.292   4.998   4.243
90372SOL     OW72947   2.569  12.985  10.262
90372SOL    HW172948   2.660  13.015  10.261
90372SOL    HW272949   2.563  12.928  10.185
90373SOL     OW72950  13.200  11.162   7.789
90373SOL    HW172951  13.251  11.237   7.819
90373SOL    HW272952  13.109  11.186   7.806
90374SOL     OW72953  12.519  10.885   0.444
90374SOL    HW172954  12.521  10.922   0.356
90374SOL    HW272955  12.594  10.826   0.448
90375SOL     OW72956   7.775  14.251   4.088
90375SOL    HW172957   7.789  14.334   4.132
90375SOL    HW272958   7.813  14.185   4.146
90376SOL     OW72959  10.105  13.079   7.912
90376SOL    HW172960  10.127  13.152   7.971
90376SOL    HW272961  10.021  13.104   7.874
90377SOL     OW72962  10.806   0.238   3.661
90377SOL    HW172963  10.884   0.211   3.613
90377SOL    HW272964  10.839   0.259   3.749
90378SOL     OW72965  12.492   6.413  14.849
90378SOL    HW172966  12.451   6.336   0.007
90378SOL    HW272967  12.477   6.403  14.755
90379SOL     OW72968  12.074   2.281  13.491
90379SOL    HW172969  12.034   2.230  13.421
90379SOL    HW272970  12.153   2.233  13.514
90380SOL     OW72971   6.241   5.230   7.920
90380SOL    HW172972   6.270   5.292   7.854
90380SOL    HW272973   6.310   5.232   7.986
90381SOL     OW72974   0.175  12.795  14.277
90381SOL    HW172975   0.219  12.732  14.221
90381SOL    HW272976   0.157  12.869  14.220
90382SOL     OW72977   3.867   2.291  12.912
90382SOL    HW172978   3.939   2.279  12.851
90382SOL    HW272979   3.805   2.348  12.867
90383SOL     OW72980   0.459  13.340   7.899
90383SOL    HW172981   0.540  13.297   7.925
90383SOL    HW272982   0.389  13.286   7.935
90384SOL     OW72983  10.087   2.173   4.287
90384SOL    HW172984  10.108   2.216   4.370
90384SOL    HW272985  10.170   2.171   4.240
90385SOL     OW72986   7.192   2.433  11.361
90385SOL    HW172987   7.189   2.502  11.295
90385SOL    HW272988   7.283   2.404  11.362
90386SOL     OW72989  11.534  10.200   1.796
90386SOL    HW172990  11.599  10.254   1.840
90386SOL    HW272991  11.469  10.262   1.762
90387SOL     OW72992   5.209   4.297  13.125
90387SOL    HW172993   5.125   4.257  13.102
90387SOL    HW272994   5.274   4.231  13.101
90388SOL     OW72995  10.319   2.788  13.763
90388SOL    HW172996  10.297   2.867  13.713
90388SOL    HW272997  10.409   2.767  13.736
90389SOL     OW72998   3.652  14.185   4.504
90389SOL    HW172999   3.711  14.138   4.445
90389SOL    HW273000   3.685  14.165   4.591
90390SOL     OW73001  12.119  11.932  14.340
90390SOL    HW173002  12.128  11.984  14.420
90390SOL    HW273003  12.026  11.908  14.338
90391SOL     OW73004  13.879   4.911   5.375
90391SOL    HW173005  13.880   4.823   5.337
90391SOL    HW273006  13.969   4.942   5.364
90392SOL     OW73007   0.700   5.551  14.789
90392SOL    HW173008   0.639   5.561  14.715
90392SOL    HW273009   0.643   5.543  14.866
90393SOL     OW73010   6.873   4.908   4.821
90393SOL    HW173011   6.921   4.990   4.808
90393SOL    HW273012   6.804   4.930   4.884
90394SOL     OW73013  11.926   7.774   9.492
90394SOL    HW173014  11.970   7.832   9.554
90394SOL    HW273015  11.944   7.813   9.406
90395SOL     OW73016   2.301   0.372   8.133
90395SOL    HW173017   2.272   0.422   8.057
90395SOL    HW273018   2.344   0.294   8.097
90396SOL     OW73019   6.838   4.282  13.620
90396SOL    HW173020   6.747   4.259  13.642
90396SOL    HW273021   6.831   4.331  13.538
90397SOL     OW73022   3.867   1.021  13.442
90397SOL    HW173023   3.902   1.107  13.419
90397SOL    HW273024   3.938   0.960  13.425
90398SOL     OW73025   1.365   2.800   9.787
90398SOL    HW173026   1.423   2.815   9.861
90398SOL    HW273027   1.365   2.705   9.776
90399SOL     OW73028   5.624   2.139   9.415
90399SOL    HW173029   5.588   2.069   9.470
90399SOL    HW273030   5.719   2.128   9.422
90400SOL     OW73031   8.687   6.393   7.580
90400SOL    HW173032   8.748   6.403   7.506
90400SOL    HW273033   8.717   6.314   7.625
90401SOL     OW73034  10.329   1.507   3.263
90401SOL    HW173035  10.233   1.512   3.267
90401SOL    HW273036  10.355   1.476   3.349
90402SOL     OW73037   3.536   7.966   3.087
90402SOL    HW173038   3.514   8.047   3.134
90402SOL    HW273039   3.452   7.923   3.073
90403SOL     OW73040   1.439   1.886  12.062
90403SOL    HW173041   1.380   1.959  12.042
90403SOL    HW273042   1.386   1.808  12.047
90404SOL     OW73043   5.247  12.971   1.330
90404SOL    HW173044   5.323  12.915   1.343
90404SOL    HW273045   5.231  12.969   1.236
90405SOL     OW73046   0.806  10.322   7.597
90405SOL    HW173047   0.857  10.401   7.579
90405SOL    HW273048   0.805  10.274   7.514
90406SOL     OW73049   0.185   8.108  14.665
90406SOL    HW173050   0.124   8.081  14.596
90406SOL    HW273051   0.149   8.068  14.745
90407SOL     OW73052   0.786  11.699  13.804
90407SOL    HW173053   0.727  11.649  13.860
90407SOL    HW273054   0.818  11.770  13.860
90408SOL     OW73055   8.175  11.653   3.897
90408SOL    HW173056   8.128  11.571   3.879
90408SOL    HW273057   8.267  11.631   3.880
90409SOL     OW73058  10.985   3.223  14.524
90409SOL    HW173059  10.970   3.281  14.599
90409SOL    HW273060  11.079   3.204  14.528
90410SOL     OW73061   2.389   1.642  14.547
90410SOL    HW173062   2.484   1.644  14.538
90410SOL    HW273063   2.370   1.560  14.593
90411SOL     OW73064  12.322   5.399   8.494
90411SOL    HW173065  12.362   5.484   8.476
90411SOL    HW273066  12.372   5.364   8.567
90412SOL     OW73067   6.887  11.145  11.258
90412SOL    HW173068   6.808  11.092  11.265
90412SOL    HW273069   6.926  11.119  11.174
90413SOL     OW73070  10.822  10.794  12.695
90413SOL    HW173071  10.823  10.704  12.728
90413SOL    HW273072  10.740  10.799  12.645
90414SOL     OW73073   6.080  10.416   2.072
90414SOL    HW173074   6.111  10.329   2.100
90414SOL    HW273075   6.150  10.475   2.096
90415SOL     OW73076   4.261  14.093   0.975
90415SOL    HW173077   4.341  14.081   0.923
90415SOL    HW273078   4.242  14.187   0.967
90416SOL     OW73079  14.142   2.820  13.681
90416SOL    HW173080  14.203   2.809  13.754
90416SOL    HW273081  14.074   2.755  13.697
90417SOL     OW73082  10.262  12.546   6.695
90417SOL    HW173083  10.246  12.572   6.786
90417SOL    HW273084  10.340  12.596   6.670
90418SOL     OW73085  13.098   0.295   0.451
90418SOL    HW173086  13.071   0.242   0.376
90418SOL    HW273087  13.153   0.236   0.504
90419SOL     OW73088   4.134  12.023  13.593
90419SOL    HW173089   4.194  11.949  13.583
90419SOL    HW273090   4.066  11.991  13.652
90420SOL     OW73091   9.928   1.899  10.197
90420SOL    HW173092   9.871   1.920  10.123
90420SOL    HW273093   9.973   1.981  10.218
90421SOL     OW73094   3.579  12.805   2.889
90421SOL    HW173095   3.576  12.831   2.797
90421SOL    HW273096   3.623  12.720   2.888
90422SOL     OW73097   1.515   9.190  10.338
90422SOL    HW173098   1.606   9.160  10.337
90422SOL    HW273099   1.516   9.268  10.392
90423SOL     OW73100   0.385   5.459   4.368
90423SOL    HW173101   0.381   5.552   4.388
90423SOL    HW273102   0.418   5.418   4.448
90424SOL     OW73103   8.344   4.131  10.722
90424SOL    HW173104   8.324   4.220  10.696
90424SOL    HW273105   8.289   4.114  10.799
90425SOL     OW73106  10.350   8.270  11.194
90425SOL    HW173107  10.378   8.360  11.181
90425SOL    HW273108  10.279   8.275  11.257
90426SOL     OW73109  10.642  10.132  10.434
90426SOL    HW173110  10.553  10.116  10.402
90426SOL    HW273111  10.698  10.084  10.373
90427SOL     OW73112   6.086  12.926   9.870
90427SOL    HW173113   6.029  12.877   9.810
90427SOL    HW273114   6.175  12.905   9.841
90428SOL     OW73115   1.123   1.579   0.092
90428SOL    HW173116   1.214   1.569   0.063
90428SOL    HW273117   1.124   1.552   0.184
90429SOL     OW73118   9.065   9.973  11.922
90429SOL    HW173119   8.996  10.016  11.971
90429SOL    HW273120   9.096  10.039  11.860
90430SOL     OW73121  11.563  14.569   8.518
90430SOL    HW173122  11.470  14.544   8.525
90430SOL    HW273123  11.609  14.486   8.511
90431SOL     OW73124   2.251  12.160   3.055
90431SOL    HW173125   2.287  12.231   3.001
90431SOL    HW273126   2.244  12.198   3.143
90432SOL     OW73127  10.930  13.835   1.504
90432SOL    HW173128  10.992  13.780   1.552
90432SOL    HW273129  10.845  13.792   1.516
90433SOL     OW73130  12.305   6.233   2.110
90433SOL    HW173131  12.363   6.218   2.184
90433SOL    HW273132  12.282   6.325   2.116
90434SOL     OW73133  14.034  13.375   7.024
90434SOL    HW173134  14.060  13.394   7.114
90434SOL    HW273135  14.070  13.289   7.005
90435SOL     OW73136  10.859   5.661  14.075
90435SOL    HW173137  10.848   5.615  14.158
90435SOL    HW273138  10.897   5.596  14.016
90436SOL     OW73139   2.932   8.525   1.402
90436SOL    HW173140   2.838   8.513   1.418
90436SOL    HW273141   2.967   8.550   1.487
90437SOL     OW73142  13.246  13.125   1.580
90437SOL    HW173143  13.242  13.029   1.578
90437SOL    HW273144  13.328  13.146   1.536
90438SOL     OW73145  12.895   6.814   6.468
90438SOL    HW173146  12.876   6.826   6.375
90438SOL    HW273147  12.907   6.720   6.478
90439SOL     OW73148   3.539   7.010   2.473
90439SOL    HW173149   3.631   7.022   2.447
90439SOL    HW273150   3.510   7.097   2.499
90440SOL     OW73151   8.317   9.008  10.570
90440SOL    HW173152   8.248   9.062  10.531
90440SOL    HW273153   8.280   8.920  10.572
90441SOL     OW73154  11.543   2.452   4.545
90441SOL    HW173155  11.540   2.402   4.464
90441SOL    HW273156  11.575   2.389   4.611
90442SOL     OW73157  12.702  14.848   8.822
90442SOL    HW173158  12.620  14.801   8.839
90442SOL    HW273159  12.752  14.789   8.766
90443SOL     OW73160  14.285   1.725   0.412
90443SOL    HW173161  14.238   1.734   0.329
90443SOL    HW273162  14.373   1.759   0.394
90444SOL     OW73163   2.169   1.973  11.033
90444SOL    HW173164   2.193   1.977  10.941
90444SOL    HW273165   2.178   1.880  11.056
90445SOL     OW73166   7.351   6.784   6.350
90445SOL    HW173167   7.322   6.733   6.274
90445SOL    HW273168   7.359   6.873   6.316
90446SOL     OW73169   7.925   4.661   7.720
90446SOL    HW173170   7.966   4.655   7.806
90446SOL    HW273171   7.962   4.589   7.670
90447SOL     OW73172   5.865  13.771   9.831
90447SOL    HW173173   5.856  13.842   9.894
90447SOL    HW273174   5.956  13.774   9.804
90448SOL     OW73175   4.889   6.998   1.462
90448SOL    HW173176   4.937   7.076   1.490
90448SOL    HW273177   4.956   6.931   1.450
90449SOL     OW73178  12.849   2.007   0.237
90449SOL    HW173179  12.859   1.990   0.330
90449SOL    HW273180  12.892   2.092   0.224
90450SOL     OW73181   2.459  12.808   9.584
90450SOL    HW173182   2.455  12.884   9.525
90450SOL    HW273183   2.372  12.805   9.625
90451SOL     OW73184   3.213  13.691   1.251
90451SOL    HW173185   3.268  13.633   1.198
90451SOL    HW273186   3.125  13.680   1.216
90452SOL     OW73187   2.833   7.550  10.045
90452SOL    HW173188   2.847   7.639  10.076
90452SOL    HW273189   2.755   7.556   9.990
90453SOL     OW73190  14.721   1.068   7.381
90453SOL    HW173191  14.702   1.074   7.475
90453SOL    HW273192  14.817   1.067   7.376
90454SOL     OW73193   8.396   9.916  12.479
90454SOL    HW173194   8.389   9.838  12.534
90454SOL    HW273195   8.463   9.893  12.415
90455SOL     OW73196   2.822   8.412  13.475
90455SOL    HW173197   2.854   8.503  13.477
90455SOL    HW273198   2.746   8.415  13.416
90456SOL     OW73199   6.921   5.391   5.660
90456SOL    HW173200   6.868   5.469   5.675
90456SOL    HW273201   6.916   5.377   5.566
90457SOL     OW73202   8.041  10.882   7.126
90457SOL    HW173203   8.116  10.925   7.165
90457SOL    HW273204   8.039  10.795   7.166
90458SOL     OW73205   4.281  13.501  12.194
90458SOL    HW173206   4.298  13.406  12.197
90458SOL    HW273207   4.199  13.512  12.241
90459SOL     OW73208  14.172   6.992   4.270
90459SOL    HW173209  14.219   7.038   4.201
90459SOL    HW273210  14.118   7.059   4.312
90460SOL     OW73211   4.030  12.522   2.524
90460SOL    HW173212   3.962  12.497   2.586
90460SOL    HW273213   4.026  12.455   2.456
90461SOL     OW73214   9.251   3.855  13.557
90461SOL    HW173215   9.346   3.857  13.573
90461SOL    HW273216   9.243   3.827  13.466
90462SOL     OW73217   4.379   1.732   7.784
90462SOL    HW173218   4.324   1.802   7.819
90462SOL    HW273219   4.465   1.747   7.823
90463SOL     OW73220   3.546   7.330   4.336
90463SOL    HW173221   3.537   7.367   4.248
90463SOL    HW273222   3.467   7.278   4.348
90464SOL     OW73223  11.598   3.852   2.302
90464SOL    HW173224  11.526   3.888   2.354
90464SOL    HW273225  11.603   3.910   2.225
90465SOL     OW73226   4.040  10.076  11.882
90465SOL    HW173227   4.063  10.092  11.973
90465SOL    HW273228   4.042   9.981  11.872
90466SOL     OW73229  11.168   1.353  10.713
90466SOL    HW173230  11.262   1.344  10.697
90466SOL    HW273231  11.136   1.407  10.640
90467SOL     OW73232  14.458  13.298   4.592
90467SOL    HW173233  14.367  13.325   4.604
90467SOL    HW273234  14.470  13.227   4.656
90468SOL     OW73235   4.119   4.611   0.372
90468SOL    HW173236   4.148   4.535   0.422
90468SOL    HW273237   4.071   4.574   0.298
90469SOL     OW73238  10.350  11.881   2.968
90469SOL    HW173239  10.284  11.898   3.034
90469SOL    HW273240  10.316  11.922   2.888
90470SOL     OW73241   3.416  12.239  11.829
90470SOL    HW173242   3.358  12.166  11.854
90470SOL    HW273243   3.359  12.316  11.831
90471SOL     OW73244   4.667   1.769   6.850
90471SOL    HW173245   4.649   1.861   6.833
90471SOL    HW273246   4.706   1.736   6.769
90472SOL     OW73247   3.093   6.489   0.657
90472SOL    HW173248   3.005   6.510   0.626
90472SOL    HW273249   3.144   6.474   0.577
90473SOL     OW73250   3.132   5.207   9.885
90473SOL    HW173251   3.181   5.195   9.803
90473SOL    HW273252   3.053   5.253   9.859
90474SOL     OW73253   4.996   3.767  11.591
90474SOL    HW173254   5.044   3.849  11.584
90474SOL    HW273255   5.046   3.715  11.654
90475SOL     OW73256   1.601   6.617   0.827
90475SOL    HW173257   1.647   6.700   0.837
90475SOL    HW273258   1.526   6.624   0.887
90476SOL     OW73259   0.246   1.909   5.803
90476SOL    HW173260   0.294   1.909   5.721
90476SOL    HW273261   0.163   1.866   5.783
90477SOL     OW73262   6.761  14.539   8.926
90477SOL    HW173263   6.740  14.471   8.863
90477SOL    HW273264   6.761  14.494   9.011
90478SOL     OW73265   2.979   7.453   6.491
90478SOL    HW173266   3.013   7.488   6.408
90478SOL    HW273267   3.053   7.458   6.551
90479SOL     OW73268  13.203   3.681   6.654
90479SOL    HW173269  13.252   3.603   6.678
90479SOL    HW273270  13.138   3.651   6.592
90480SOL     OW73271  14.354  12.996   3.843
90480SOL    HW173272  14.261  13.018   3.838
90480SOL    HW273273  14.378  12.974   3.753
90481SOL     OW73274   9.218   4.004   2.475
90481SOL    HW173275   9.192   4.094   2.492
90481SOL    HW273276   9.159   3.975   2.405
90482SOL     OW73277  12.640  11.512  12.129
90482SOL    HW173278  12.607  11.424  12.108
90482SOL    HW273279  12.627  11.519  12.224
90483SOL     OW73280  10.039  10.451   2.621
90483SOL    HW173281  10.012  10.379   2.678
90483SOL    HW273282  10.134  10.447   2.620
90484SOL     OW73283   4.385  11.942   3.578
90484SOL    HW173284   4.396  11.854   3.542
90484SOL    HW273285   4.294  11.944   3.607
90485SOL     OW73286   6.788   9.357   4.686
90485SOL    HW173287   6.802   9.302   4.763
90485SOL    HW273288   6.858   9.332   4.626
90486SOL     OW73289   7.875  10.720  10.220
90486SOL    HW173290   7.858  10.806  10.182
90486SOL    HW273291   7.856  10.659  10.149
90487SOL     OW73292   6.031  12.663  13.873
90487SOL    HW173293   5.946  12.700  13.895
90487SOL    HW273294   6.055  12.611  13.950
90488SOL     OW73295  12.079  12.714   0.260
90488SOL    HW173296  12.020  12.740   0.189
90488SOL    HW273297  12.036  12.640   0.302
90489SOL     OW73298  14.668  11.826   9.087
90489SOL    HW173299  14.655  11.786   9.173
90489SOL    HW273300  14.752  11.792   9.057
90490SOL     OW73301   4.148   5.515  12.792
90490SOL    HW173302   4.242   5.513  12.812
90490SOL    HW273303   4.144   5.519  12.696
90491SOL     OW73304   5.319   5.180  12.268
90491SOL    HW173305   5.225   5.191  12.254
90491SOL    HW273306   5.360   5.241  12.206
90492SOL     OW73307  13.275   0.835   3.368
90492SOL    HW173308  13.236   0.809   3.284
90492SOL    HW273309  13.336   0.904   3.345
90493SOL     OW73310   4.453   7.695   0.753
90493SOL    HW173311   4.512   7.664   0.684
90493SOL    HW273312   4.365   7.682   0.717
90494SOL     OW73313   5.416   2.599   6.071
90494SOL    HW173314   5.494   2.616   6.018
90494SOL    HW273315   5.408   2.675   6.128
90495SOL     OW73316   7.573  12.667   8.961
90495SOL    HW173317   7.642  12.653   9.026
90495SOL    HW273318   7.529  12.747   8.989
90496SOL     OW73319   6.978  11.542  12.503
90496SOL    HW173320   6.890  11.563  12.535
90496SOL    HW273321   7.008  11.622  12.460
90497SOL     OW73322   6.495   3.902   3.574
90497SOL    HW173323   6.590   3.899   3.588
90497SOL    HW273324   6.459   3.927   3.659
90498SOL     OW73325  11.978   4.652  13.175
90498SOL    HW173326  12.070   4.648  13.200
90498SOL    HW273327  11.978   4.653  13.080
90499SOL     OW73328   0.976  10.052  11.362
90499SOL    HW173329   1.017   9.978  11.317
90499SOL    HW273330   1.015  10.052  11.449
90500SOL     OW73331   3.316   3.199  13.959
90500SOL    HW173332   3.247   3.150  14.004
90500SOL    HW273333   3.293   3.291  13.971
90501SOL     OW73334   9.653   9.921   5.548
90501SOL    HW173335   9.661  10.004   5.503
90501SOL    HW273336   9.698   9.858   5.492
90502SOL     OW73337   4.381  10.721   7.316
90502SOL    HW173338   4.388  10.724   7.221
90502SOL    HW273339   4.459  10.675   7.345
90503SOL     OW73340  11.029  14.072   3.973
90503SOL    HW173341  11.060  14.147   3.922
90503SOL    HW273342  11.084  13.999   3.944
90504SOL     OW73343  10.921   7.838  11.162
90504SOL    HW173344  10.928   7.830  11.257
90504SOL    HW273345  10.852   7.776  11.137
90505SOL     OW73346  12.294   5.034  10.334
90505SOL    HW173347  12.240   4.976  10.280
90505SOL    HW273348  12.380   4.992  10.335
90506SOL     OW73349   0.969   1.789  10.655
90506SOL    HW173350   1.043   1.770  10.596
90506SOL    HW273351   0.995   1.751  10.739
90507SOL     OW73352   9.923  14.518  14.437
90507SOL    HW173353   9.994  14.455  14.445
90507SOL    HW273354   9.885  14.500  14.350
90508SOL     OW73355   4.006   1.436   4.148
90508SOL    HW173356   4.072   1.371   4.173
90508SOL    HW273357   3.926   1.385   4.136
90509SOL     OW73358   0.889   6.837   3.801
90509SOL    HW173359   0.974   6.870   3.772
90509SOL    HW273360   0.827   6.868   3.734
90510SOL     OW73361  11.364   2.744   2.867
90510SOL    HW173362  11.320   2.666   2.834
90510SOL    HW273363  11.344   2.746   2.961
90511SOL     OW73364   5.156   7.547   4.521
90511SOL    HW173365   5.062   7.565   4.516
90511SOL    HW273366   5.195   7.629   4.552
90512SOL     OW73367   1.688   8.742   5.580
90512SOL    HW173368   1.636   8.750   5.501
90512SOL    HW273369   1.651   8.808   5.640
90513SOL     OW73370  10.857   3.026  10.256
90513SOL    HW173371  10.905   2.955  10.297
90513SOL    HW273372  10.786   2.983  10.208
90514SOL     OW73373  12.012  10.646   9.341
90514SOL    HW173374  12.064  10.700   9.282
90514SOL    HW273375  12.064  10.567   9.354
90515SOL     OW73376  14.528   9.880   7.410
90515SOL    HW173377  14.606   9.933   7.428
90515SOL    HW273378  14.459   9.919   7.464
90516SOL     OW73379   4.482   1.508  13.043
90516SOL    HW173380   4.503   1.487  13.134
90516SOL    HW273381   4.387   1.496  13.038
90517SOL     OW73382   4.000   7.123  14.798
90517SOL    HW173383   4.066   7.057  14.818
90517SOL    HW273384   3.994   7.175  14.878
90518SOL     OW73385   8.066   5.575   7.454
90518SOL    HW173386   8.082   5.518   7.530
90518SOL    HW273387   8.136   5.554   7.393
90519SOL     OW73388   9.515   5.025  13.787
90519SOL    HW173389   9.587   5.003  13.728
90519SOL    HW273390   9.544   4.993  13.873
90520SOL     OW73391   5.787   3.408   9.231
90520SOL    HW173392   5.737   3.490   9.230
90520SOL    HW273393   5.874   3.432   9.198
90521SOL     OW73394  10.962  12.059   7.890
90521SOL    HW173395  10.958  12.042   7.796
90521SOL    HW273396  10.871  12.049   7.919
90522SOL     OW73397   3.238   4.632  14.097
90522SOL    HW173398   3.270   4.578  14.169
90522SOL    HW273399   3.291   4.605  14.021
90523SOL     OW73400   2.289   4.104   2.706
90523SOL    HW173401   2.377   4.112   2.670
90523SOL    HW273402   2.237   4.169   2.659
90524SOL     OW73403   3.790   7.066  11.587
90524SOL    HW173404   3.729   7.014  11.535
90524SOL    HW273405   3.861   7.005  11.608
90525SOL     OW73406   8.775  13.038  10.452
90525SOL    HW173407   8.720  13.112  10.427
90525SOL    HW273408   8.733  12.962  10.412
90526SOL     OW73409  10.988  13.695   6.647
90526SOL    HW173410  11.026  13.620   6.601
90526SOL    HW273411  11.063  13.742   6.682
90527SOL     OW73412   9.091  11.591  13.762
90527SOL    HW173413   9.027  11.607  13.693
90527SOL    HW273414   9.086  11.496  13.778
90528SOL     OW73415  14.785   6.986   9.277
90528SOL    HW173416  14.792   7.081   9.266
90528SOL    HW273417  14.871   6.952   9.253
90529SOL     OW73418   1.368   6.559   3.402
90529SOL    HW173419   1.275   6.541   3.415
90529SOL    HW273420   1.400   6.581   3.489
90530SOL     OW73421   6.192  10.190   0.341
90530SOL    HW173422   6.252  10.122   0.371
90530SOL    HW273423   6.179  10.245   0.418
90531SOL     OW73424  13.175  14.524   6.607
90531SOL    HW173425  13.143  14.609   6.636
90531SOL    HW273426  13.095  14.472   6.592
90532SOL     OW73427  11.448   3.581   5.021
90532SOL    HW173428  11.515   3.620   5.078
90532SOL    HW273429  11.421   3.652   4.964
90533SOL     OW73430   7.940   5.396   2.282
90533SOL    HW173431   7.906   5.368   2.366
90533SOL    HW273432   7.973   5.485   2.298
90534SOL     OW73433   9.430   2.744   0.863
90534SOL    HW173434   9.452   2.743   0.956
90534SOL    HW273435   9.410   2.836   0.844
90535SOL     OW73436   6.977   6.939  13.158
90535SOL    HW173437   6.904   6.936  13.220
90535SOL    HW273438   7.041   6.877  13.194
90536SOL     OW73439  10.618   9.666   7.012
90536SOL    HW173440  10.636   9.585   6.965
90536SOL    HW273441  10.612   9.639   7.104
90537SOL     OW73442   1.584   7.184   3.728
90537SOL    HW173443   1.611   7.106   3.681
90537SOL    HW273444   1.557   7.152   3.814
90538SOL     OW73445   3.327  11.938   5.278
90538SOL    HW173446   3.389  11.937   5.351
90538SOL    HW273447   3.311  11.845   5.260
90539SOL     OW73448   1.707  12.766  11.543
90539SOL    HW173449   1.691  12.835  11.608
90539SOL    HW273450   1.779  12.800  11.489
90540SOL     OW73451   0.094   1.881  12.708
90540SOL    HW173452   0.026   1.942  12.737
90540SOL    HW273453   0.132   1.849  12.790
90541SOL     OW73454  13.546   8.615   6.735
90541SOL    HW173455  13.505   8.534   6.705
90541SOL    HW273456  13.569   8.599   6.826
90542SOL     OW73457   3.355  11.884   1.808
90542SOL    HW173458   3.396  11.813   1.757
90542SOL    HW273459   3.283  11.841   1.854
90543SOL     OW73460   5.377   2.326   9.153
90543SOL    HW173461   5.382   2.322   9.248
90543SOL    HW273462   5.469   2.326   9.125
90544SOL     OW73463  10.557   7.373   3.835
90544SOL    HW173464  10.562   7.278   3.841
90544SOL    HW273465  10.464   7.393   3.843
90545SOL     OW73466  10.767   3.054   4.833
90545SOL    HW173467  10.755   2.967   4.871
90545SOL    HW273468  10.757   3.114   4.907
90546SOL     OW73469  14.017   2.632  12.986
90546SOL    HW173470  13.935   2.588  13.009
90546SOL    HW273471  13.993   2.724  12.973
90547SOL     OW73472   0.504   0.126   6.672
90547SOL    HW173473   0.409   0.125   6.683
90547SOL    HW273474   0.522   0.055   6.611
90548SOL     OW73475   7.562   6.302   3.989
90548SOL    HW173476   7.495   6.321   3.923
90548SOL    HW273477   7.515   6.303   4.072
90549SOL     OW73478   5.719   8.252  10.677
90549SOL    HW173479   5.774   8.300  10.616
90549SOL    HW273480   5.743   8.286  10.763
90550SOL     OW73481  11.598   7.975  13.731
90550SOL    HW173482  11.686   8.013  13.732
90550SOL    HW273483  11.544   8.039  13.776
90551SOL     OW73484   0.919   7.040   1.875
90551SOL    HW173485   0.853   7.094   1.832
90551SOL    HW273486   0.870   6.993   1.943
90552SOL     OW73487  11.321  13.035  13.663
90552SOL    HW173488  11.380  13.106  13.690
90552SOL    HW273489  11.322  12.974  13.737
90553SOL     OW73490  10.138   0.771  12.691
90553SOL    HW173491  10.146   0.781  12.596
90553SOL    HW273492  10.048   0.744  12.704
90554SOL     OW73493   4.995   9.651   5.139
90554SOL    HW173494   4.993   9.584   5.071
90554SOL    HW273495   5.007   9.602   5.220
90555SOL     OW73496   3.815  11.783   8.647
90555SOL    HW173497   3.725  11.787   8.614
90555SOL    HW273498   3.860  11.856   8.603
90556SOL     OW73499   2.810  14.144   9.739
90556SOL    HW173500   2.766  14.172   9.658
90556SOL    HW273501   2.894  14.109   9.710
90557SOL     OW73502   1.713   6.326   5.804
90557SOL    HW173503   1.733   6.319   5.897
90557SOL    HW273504   1.784   6.378   5.767
90558SOL     OW73505   7.825   7.505   8.564
90558SOL    HW173506   7.784   7.469   8.642
90558SOL    HW273507   7.824   7.434   8.501
90559SOL     OW73508   6.320   9.953   3.797
90559SOL    HW173509   6.335   9.859   3.792
90559SOL    HW273510   6.344   9.976   3.886
90560SOL     OW73511   6.620   9.024   5.844
90560SOL    HW173512   6.655   8.945   5.805
90560SOL    HW273513   6.673   9.039   5.922
90561SOL     OW73514   8.761   5.854   2.496
90561SOL    HW173515   8.778   5.881   2.406
90561SOL    HW273516   8.789   5.928   2.549
90562SOL     OW73517   3.491   1.128   2.517
90562SOL    HW173518   3.582   1.118   2.488
90562SOL    HW273519   3.477   1.223   2.521
90563SOL     OW73520  14.784   9.331   4.296
90563SOL    HW173521  14.750   9.350   4.208
90563SOL    HW273522  14.816   9.241   4.290
90564SOL     OW73523   2.923  13.227   2.240
90564SOL    HW173524   2.924  13.132   2.243
90564SOL    HW273525   2.881  13.248   2.157
90565SOL     OW73526   9.730   9.854   9.674
90565SOL    HW173527   9.803   9.900   9.633
90565SOL    HW273528   9.694   9.917   9.736
90566SOL     OW73529  10.423   1.204   7.721
90566SOL    HW173530  10.370   1.144   7.772
90566SOL    HW273531  10.360   1.257   7.673
90567SOL     OW73532   6.308  10.154  11.342
90567SOL    HW173533   6.223  10.116  11.367
90567SOL    HW273534   6.371  10.113  11.401
90568SOL     OW73535   9.084   9.627  14.192
90568SOL    HW173536   8.988   9.627  14.195
90568SOL    HW273537   9.105   9.628  14.099
90569SOL     OW73538   6.744   6.809  10.968
90569SOL    HW173539   6.752   6.720  11.002
90569SOL    HW273540   6.650   6.822  10.959
90570SOL     OW73541   9.713   5.138  14.587
90570SOL    HW173542   9.692   5.155  14.496
90570SOL    HW273543   9.759   5.054  14.586
90571SOL     OW73544  12.851   4.799   0.934
90571SOL    HW173545  12.799   4.852   0.873
90571SOL    HW273546  12.939   4.836   0.930
90572SOL     OW73547   4.598  14.133   1.544
90572SOL    HW173548   4.569  14.210   1.593
90572SOL    HW273549   4.537  14.064   1.570
90573SOL     OW73550   2.089   1.502   3.654
90573SOL    HW173551   2.032   1.575   3.629
90573SOL    HW273552   2.029   1.433   3.683
90574SOL     OW73553   0.437   7.761  10.294
90574SOL    HW173554   0.513   7.713  10.329
90574SOL    HW273555   0.438   7.844  10.341
90575SOL     OW73556   8.913   5.536  12.602
90575SOL    HW173557   8.891   5.601  12.669
90575SOL    HW273558   8.830   5.516  12.560
90576SOL     OW73559  13.555   1.098   7.794
90576SOL    HW173560  13.602   1.016   7.809
90576SOL    HW273561  13.520   1.089   7.705
90577SOL     OW73562   8.925   1.255   7.421
90577SOL    HW173563   8.991   1.188   7.440
90577SOL    HW273564   8.841   1.209   7.425
90578SOL     OW73565   2.718   7.634   3.100
90578SOL    HW173566   2.795   7.588   3.065
90578SOL    HW273567   2.736   7.642   3.193
90579SOL     OW73568   6.419   1.735   6.118
90579SOL    HW173569   6.414   1.641   6.100
90579SOL    HW273570   6.505   1.761   6.084
90580SOL     OW73571  12.610   8.787  11.376
90580SOL    HW173572  12.686   8.793  11.318
90580SOL    HW273573  12.550   8.856  11.345
90581SOL     OW73574   4.856  12.842   3.388
90581SOL    HW173575   4.850  12.885   3.473
90581SOL    HW273576   4.803  12.896   3.329
90582SOL     OW73577   6.193   7.181   0.518
90582SOL    HW173578   6.263   7.116   0.513
90582SOL    HW273579   6.171   7.185   0.611
90583SOL     OW73580   8.842  12.672  11.696
90583SOL    HW173581   8.925  12.708  11.726
90583SOL    HW273582   8.849  12.578  11.712
90584SOL     OW73583   7.467  13.320  13.762
90584SOL    HW173584   7.475  13.263  13.685
90584SOL    HW273585   7.552  13.363  13.768
90585SOL     OW73586  12.220  12.693  13.026
90585SOL    HW173587  12.147  12.740  12.986
90585SOL    HW273588  12.222  12.723  13.117
90586SOL     OW73589   9.466  10.768   8.577
90586SOL    HW173590   9.474  10.699   8.643
90586SOL    HW273591   9.408  10.732   8.511
90587SOL     OW73592  11.557   2.314   9.274
90587SOL    HW173593  11.541   2.233   9.321
90587SOL    HW273594  11.469   2.350   9.258
90588SOL     OW73595   1.261   1.015  11.536
90588SOL    HW173596   1.293   1.101  11.562
90588SOL    HW273597   1.206   0.987  11.609
90589SOL     OW73598   9.124  10.938  10.309
90589SOL    HW173599   9.105  10.990  10.387
90589SOL    HW273600   9.038  10.910  10.277
90590SOL     OW73601  13.307   2.440   3.893
90590SOL    HW173602  13.318   2.347   3.875
90590SOL    HW273603  13.247   2.471   3.826
90591SOL     OW73604  12.708  12.927  10.048
90591SOL    HW173605  12.722  13.014  10.013
90591SOL    HW273606  12.635  12.891   9.996
90592SOL     OW73607  12.429   2.719  12.235
90592SOL    HW173608  12.393   2.755  12.154
90592SOL    HW273609  12.362   2.739  12.301
90593SOL     OW73610   7.019   5.982   3.552
90593SOL    HW173611   7.064   5.989   3.636
90593SOL    HW273612   6.930   5.955   3.574
90594SOL     OW73613   7.230   7.687   8.198
90594SOL    HW173614   7.275   7.685   8.114
90594SOL    HW273615   7.297   7.710   8.262
90595SOL     OW73616   6.485   0.928   4.896
90595SOL    HW173617   6.393   0.953   4.887
90595SOL    HW273618   6.534   1.008   4.879
90596SOL     OW73619   0.798   1.125   6.307
90596SOL    HW173620   0.860   1.054   6.321
90596SOL    HW273621   0.725   1.085   6.261
90597SOL     OW73622  10.697   8.539   1.161
90597SOL    HW173623  10.727   8.623   1.126
90597SOL    HW273624  10.611   8.526   1.120
90598SOL     OW73625   5.711   8.505   8.777
90598SOL    HW173626   5.725   8.417   8.741
90598SOL    HW273627   5.753   8.563   8.714
90599SOL     OW73628  12.017  13.575  13.666
90599SOL    HW173629  12.075  13.637  13.711
90599SOL    HW273630  11.994  13.617  13.584
90600SOL     OW73631   5.420  10.197   4.921
90600SOL    HW173632   5.392  10.142   4.847
90600SOL    HW273633   5.487  10.254   4.884
90601SOL     OW73634   8.448   4.323   2.044
90601SOL    HW173635   8.381   4.260   2.019
90601SOL    HW273636   8.509   4.325   1.970
90602SOL     OW73637   3.162  12.641   3.218
90602SOL    HW173638   3.195  12.631   3.307
90602SOL    HW273639   3.239  12.628   3.163
90603SOL     OW73640   2.206   7.592  12.277
90603SOL    HW173641   2.273   7.557  12.335
90603SOL    HW273642   2.216   7.687  12.283
90604SOL     OW73643  13.736   3.688  11.579
90604SOL    HW173644  13.798   3.624  11.544
90604SOL    HW273645  13.747   3.765  11.523
90605SOL     OW73646  12.347   0.743   9.902
90605SOL    HW173647  12.266   0.694   9.912
90605SOL    HW273648  12.364   0.780   9.989
90606SOL     OW73649   1.458   9.684  10.369
90606SOL    HW173650   1.380   9.647  10.327
90606SOL    HW273651   1.443   9.674  10.463
90607SOL     OW73652   4.130   5.049  14.312
90607SOL    HW173653   4.199   5.109  14.341
90607SOL    HW273654   4.065   5.106  14.271
90608SOL     OW73655   2.659   6.787  11.497
90608SOL    HW173656   2.619   6.707  11.530
90608SOL    HW273657   2.652   6.780  11.402
90609SOL     OW73658   0.545   2.719   6.447
90609SOL    HW173659   0.495   2.653   6.398
90609SOL    HW273660   0.512   2.803   6.414
90610SOL     OW73661   9.947   8.419   0.795
90610SOL    HW173662   9.981   8.504   0.821
90610SOL    HW273663   9.869   8.438   0.743
90611SOL     OW73664  14.048  10.723   0.165
90611SOL    HW173665  14.066  10.806   0.122
90611SOL    HW273666  14.017  10.747   0.253
90612SOL     OW73667  11.402  12.875  13.860
90612SOL    HW173668  11.398  12.779  13.852
90612SOL    HW273669  11.367  12.893  13.947
90613SOL     OW73670   8.248  11.118  13.285
90613SOL    HW173671   8.163  11.088  13.318
90613SOL    HW273672   8.312  11.079  13.344
90614SOL     OW73673   0.248  10.471   1.427
90614SOL    HW173674   0.329  10.521   1.438
90614SOL    HW273675   0.275  10.379   1.428
90615SOL     OW73676   6.438   2.815   9.229
90615SOL    HW173677   6.479   2.881   9.172
90615SOL    HW273678   6.418   2.742   9.169
90616SOL     OW73679   5.213   7.778   6.894
90616SOL    HW173680   5.145   7.744   6.952
90616SOL    HW273681   5.225   7.708   6.829
90617SOL     OW73682  10.685   3.457   4.399
90617SOL    HW173683  10.615   3.469   4.335
90617SOL    HW273684  10.647   3.486   4.482
90618SOL     OW73685   7.879   7.909   3.395
90618SOL    HW173686   7.949   7.945   3.448
90618SOL    HW273687   7.864   7.821   3.430
90619SOL     OW73688  14.045   4.872  10.952
90619SOL    HW173689  14.119   4.928  10.978
90619SOL    HW273690  13.968   4.928  10.963
90620SOL     OW73691   6.982   4.418  12.391
90620SOL    HW173692   7.053   4.478  12.369
90620SOL    HW273693   7.022   4.331  12.388
90621SOL     OW73694  12.076  10.563   5.772
90621SOL    HW173695  12.012  10.596   5.708
90621SOL    HW273696  12.140  10.517   5.719
90622SOL     OW73697   4.198   1.869  10.475
90622SOL    HW173698   4.236   1.937  10.419
90622SOL    HW273699   4.104   1.874  10.457
90623SOL     OW73700   8.341  14.654   2.469
90623SOL    HW173701   8.420  14.634   2.418
90623SOL    HW273702   8.319  14.572   2.513
90624SOL     OW73703   0.003  10.250   7.831
90624SOL    HW173704  14.845  10.256   7.744
90624SOL    HW273705  14.821  10.292   7.889
90625SOL     OW73706   8.258   1.858   0.133
90625SOL    HW173707   8.198   1.876   0.061
90625SOL    HW273708   8.271   1.763   0.131
90626SOL     OW73709   9.412  13.256  11.915
90626SOL    HW173710   9.423  13.229  11.824
90626SOL    HW273711   9.463  13.192  11.966
90627SOL     OW73712  10.656  11.560   1.099
90627SOL    HW173713  10.567  11.576   1.130
90627SOL    HW273714  10.651  11.474   1.057
90628SOL     OW73715   9.656  14.750   7.830
90628SOL    HW173716   9.730  14.798   7.866
90628SOL    HW273717   9.581  14.808   7.843
90629SOL     OW73718   0.292  11.796   5.038
90629SOL    HW173719   0.230  11.863   5.007
90629SOL    HW273720   0.332  11.762   4.957
90630SOL     OW73721   7.178   1.314  10.529
90630SOL    HW173722   7.238   1.344  10.597
90630SOL    HW273723   7.197   1.221  10.519
90631SOL     OW73724   1.082   2.444   7.258
90631SOL    HW173725   0.998   2.491   7.258
90631SOL    HW273726   1.145   2.508   7.292
90632SOL     OW73727  10.078  11.920   0.907
90632SOL    HW173728  10.082  11.979   0.832
90632SOL    HW273729  10.092  11.977   0.983
90633SOL     OW73730  12.743   5.263   1.446
90633SOL    HW173731  12.759   5.305   1.362
90633SOL    HW273732  12.662   5.302   1.478
90634SOL     OW73733   1.311   6.504   5.332
90634SOL    HW173734   1.330   6.415   5.301
90634SOL    HW273735   1.225   6.524   5.297
90635SOL     OW73736   7.135   9.925  11.179
90635SOL    HW173737   7.165  10.016  11.180
90635SOL    HW273738   7.076   9.920  11.103
90636SOL     OW73739  14.642  10.550  12.877
90636SOL    HW173740  14.566  10.512  12.921
90636SOL    HW273741  14.715  10.494  12.903
90637SOL     OW73742   4.743   4.034   3.598
90637SOL    HW173743   4.811   4.021   3.532
90637SOL    HW273744   4.786   4.083   3.667
90638SOL     OW73745  14.223   3.746   3.963
90638SOL    HW173746  14.196   3.818   4.020
90638SOL    HW273747  14.283   3.786   3.900
90639SOL     OW73748   5.168  13.878  10.255
90639SOL    HW173749   5.239  13.816  10.240
90639SOL    HW273750   5.183  13.949  10.193
90640SOL     OW73751   9.186   4.575  13.448
90640SOL    HW173752   9.273   4.547  13.476
90640SOL    HW273753   9.156   4.635  13.516
90641SOL     OW73754  13.869   7.180  11.625
90641SOL    HW173755  13.813   7.171  11.702
90641SOL    HW273756  13.905   7.092  11.611
90642SOL     OW73757  11.200  12.692   9.429
90642SOL    HW173758  11.124  12.636   9.412
90642SOL    HW273759  11.176  12.739   9.510
90643SOL     OW73760   4.127  11.017  10.673
90643SOL    HW173761   4.116  11.012  10.768
90643SOL    HW273762   4.135  11.111  10.654
90644SOL     OW73763   2.846   7.031   7.741
90644SOL    HW173764   2.878   7.116   7.710
90644SOL    HW273765   2.778   7.007   7.678
90645SOL     OW73766  10.947  12.936  11.233
90645SOL    HW173767  10.927  13.029  11.243
90645SOL    HW273768  11.042  12.933  11.226
90646SOL     OW73769   4.271   1.792   4.351
90646SOL    HW173770   4.224   1.839   4.283
90646SOL    HW273771   4.252   1.839   4.431
90647SOL     OW73772   2.487  10.025   2.956
90647SOL    HW173773   2.440   9.960   3.008
90647SOL    HW273774   2.422  10.059   2.895
90648SOL     OW73775   8.831   5.438   7.819
90648SOL    HW173776   8.865   5.511   7.870
90648SOL    HW273777   8.771   5.479   7.756
90649SOL     OW73778   0.478  11.063  10.769
90649SOL    HW173779   0.509  10.982  10.727
90649SOL    HW273780   0.471  11.126  10.697
90650SOL     OW73781  10.051   9.105  13.584
90650SOL    HW173782  10.053   9.065  13.497
90650SOL    HW273783  10.095   9.189  13.573
90651SOL     OW73784   0.934  14.878   7.140
90651SOL    HW173785   0.936   0.086   7.105
90651SOL    HW273786   0.954  14.823   7.064
90652SOL     OW73787   7.283   1.520  12.612
90652SOL    HW173788   7.335   1.533  12.691
90652SOL    HW273789   7.265   1.426  12.610
90653SOL     OW73790   8.777   0.556   4.735
90653SOL    HW173791   8.737   0.627   4.684
90653SOL    HW273792   8.724   0.479   4.716
90654SOL     OW73793  14.718  10.920   5.478
90654SOL    HW173794  14.794  10.866   5.500
90654SOL    HW273795  14.754  11.008   5.467
90655SOL     OW73796   2.908   8.197  13.083
90655SOL    HW173797   2.911   8.152  12.998
90655SOL    HW273798   2.971   8.149  13.138
90656SOL     OW73799  10.747   9.886   7.143
90656SOL    HW173800  10.712   9.823   7.079
90656SOL    HW273801  10.676   9.898   7.206
90657SOL     OW73802   2.184   3.566   7.010
90657SOL    HW173803   2.256   3.579   7.071
90657SOL    HW273804   2.140   3.487   7.040
90658SOL     OW73805   5.524   2.264   7.665
90658SOL    HW173806   5.548   2.262   7.573
90658SOL    HW273807   5.608   2.271   7.712
90659SOL     OW73808   7.474   1.913  10.949
90659SOL    HW173809   7.388   1.873  10.952
90659SOL    HW273810   7.510   1.886  10.864
90660SOL     OW73811  11.864   6.240  11.210
90660SOL    HW173812  11.841   6.202  11.294
90660SOL    HW273813  11.785   6.286  11.181
90661SOL     OW73814   9.753  11.991   0.463
90661SOL    HW173815   9.823  12.001   0.527
90661SOL    HW273816   9.765  12.066   0.403
90662SOL     OW73817   0.937   4.664   2.210
90662SOL    HW173818   0.905   4.574   2.201
90662SOL    HW273819   0.912   4.690   2.298
90663SOL     OW73820   0.814  11.281   7.450
90663SOL    HW173821   0.758  11.207   7.428
90663SOL    HW273822   0.785  11.306   7.538
90664SOL     OW73823  11.100   5.397   4.906
90664SOL    HW173824  11.149   5.322   4.942
90664SOL    HW273825  11.165   5.445   4.854
90665SOL     OW73826   9.860   7.731   9.688
90665SOL    HW173827   9.930   7.665   9.697
90665SOL    HW273828   9.902   7.814   9.712
90666SOL     OW73829   5.681   4.513  12.632
90666SOL    HW173830   5.693   4.423  12.661
90666SOL    HW273831   5.741   4.564  12.686
90667SOL     OW73832   0.468   2.067   4.553
90667SOL    HW173833   0.410   2.019   4.494
90667SOL    HW273834   0.554   2.025   4.542
90668SOL     OW73835   5.865   9.734  11.058
90668SOL    HW173836   5.891   9.800  11.122
90668SOL    HW273837   5.784   9.697  11.094
90669SOL     OW73838   3.455  13.834   8.791
90669SOL    HW173839   3.516  13.761   8.783
90669SOL    HW273840   3.444  13.866   8.702
90670SOL     OW73841   9.749  14.448   9.122
90670SOL    HW173842   9.739  14.402   9.205
90670SOL    HW273843   9.670  14.425   9.072
90671SOL     OW73844  12.197   7.806   2.515
90671SOL    HW173845  12.144   7.885   2.531
90671SOL    HW273846  12.223   7.777   2.602
90672SOL     OW73847   2.248  12.896  14.278
90672SOL    HW173848   2.214  12.891  14.367
90672SOL    HW273849   2.191  12.960  14.234
90673SOL     OW73850   8.427  13.748   4.458
90673SOL    HW173851   8.483  13.683   4.500
90673SOL    HW273852   8.355  13.762   4.519
90674SOL     OW73853  10.262  10.775   2.885
90674SOL    HW173854  10.302  10.851   2.927
90674SOL    HW273855  10.184  10.810   2.842
90675SOL     OW73856  12.893   0.365   7.819
90675SOL    HW173857  12.844   0.422   7.878
90675SOL    HW273858  12.961   0.421   7.782
90676SOL     OW73859  14.028   8.200   3.441
90676SOL    HW173860  14.053   8.233   3.528
90676SOL    HW273861  13.933   8.196   3.443
90677SOL     OW73862  12.995  14.328   2.000
90677SOL    HW173863  13.014  14.400   1.940
90677SOL    HW273864  12.908  14.348   2.035
90678SOL     OW73865   8.613   6.693   0.727
90678SOL    HW173866   8.633   6.673   0.636
90678SOL    HW273867   8.519   6.707   0.728
90679SOL     OW73868   0.486   3.936   7.882
90679SOL    HW173869   0.468   3.884   7.960
90679SOL    HW273870   0.459   4.025   7.906
90680SOL     OW73871   3.523  10.960   0.698
90680SOL    HW173872   3.548  10.883   0.647
90680SOL    HW273873   3.523  10.930   0.789
90681SOL     OW73874   5.696   8.030   8.555
90681SOL    HW173875   5.613   7.986   8.575
90681SOL    HW273876   5.693   8.042   8.460
90682SOL     OW73877  10.901  14.561   8.875
90682SOL    HW173878  10.863  14.612   8.947
90682SOL    HW273879  10.826  14.525   8.829
90683SOL     OW73880   5.749   6.103   9.728
90683SOL    HW173881   5.738   6.017   9.769
90683SOL    HW273882   5.801   6.085   9.649
90684SOL     OW73883   7.988   1.691   0.206
90684SOL    HW173884   7.942   1.711   0.124
90684SOL    HW273885   8.076   1.666   0.179
90685SOL     OW73886  12.923   1.057   7.524
90685SOL    HW173887  12.855   1.117   7.492
90685SOL    HW273888  12.873   0.986   7.566
90686SOL     OW73889  14.042  10.537   5.167
90686SOL    HW173890  13.963  10.559   5.118
90686SOL    HW273891  14.038  10.592   5.245
90687SOL     OW73892   9.414   3.660   7.071
90687SOL    HW173893   9.398   3.578   7.025
90687SOL    HW273894   9.489   3.642   7.129
90688SOL     OW73895   1.947   7.095   7.677
90688SOL    HW173896   2.000   7.020   7.704
90688SOL    HW273897   2.001   7.139   7.611
90689SOL     OW73898   7.471   0.820  13.421
90689SOL    HW173899   7.455   0.746  13.362
90689SOL    HW273900   7.384   0.842  13.455
90690SOL     OW73901   4.714  13.085   6.095
90690SOL    HW173902   4.693  13.178   6.104
90690SOL    HW273903   4.737  13.056   6.183
90691SOL     OW73904   4.669   2.104   8.000
90691SOL    HW173905   4.744   2.086   8.057
90691SOL    HW273906   4.594   2.067   8.048
90692SOL     OW73907  12.127   7.002   7.902
90692SOL    HW173908  12.061   6.987   7.970
90692SOL    HW273909  12.151   6.914   7.872
90693SOL     OW73910   2.966   8.787   6.987
90693SOL    HW173911   2.970   8.764   7.080
90693SOL    HW273912   2.905   8.860   6.982
90694SOL     OW73913   0.634  14.719   8.775
90694SOL    HW173914   0.634  14.703   8.681
90694SOL    HW273915   0.557  14.774   8.790
90695SOL     OW73916  11.536   7.062  13.047
90695SOL    HW173917  11.533   7.080  12.953
90695SOL    HW273918  11.445   7.054  13.073
90696SOL     OW73919   9.594  11.813   5.855
90696SOL    HW173920   9.612  11.769   5.938
90696SOL    HW273921   9.499  11.820   5.851
90697SOL     OW73922   3.308  13.647   6.869
90697SOL    HW173923   3.300  13.721   6.929
90697SOL    HW273924   3.219  13.627   6.843
90698SOL     OW73925  14.503   1.791   8.847
90698SOL    HW173926  14.424   1.776   8.898
90698SOL    HW273927  14.563   1.721   8.872
90699SOL     OW73928   2.721   9.251  10.920
90699SOL    HW173929   2.742   9.158  10.933
90699SOL    HW273930   2.731   9.290  11.006
90700SOL     OW73931   8.342  12.965   2.612
90700SOL    HW173932   8.301  12.883   2.642
90700SOL    HW273933   8.378  12.944   2.526
90701SOL     OW73934  13.924   3.434  14.661
90701SOL    HW173935  14.018   3.451  14.654
90701SOL    HW273936  13.916   3.340  14.644
90702SOL     OW73937   0.714  13.772   8.763
90702SOL    HW173938   0.705  13.866   8.746
90702SOL    HW273939   0.806  13.761   8.789
90703SOL     OW73940  12.874  13.733  14.251
90703SOL    HW173941  12.945  13.781  14.210
90703SOL    HW273942  12.816  13.801  14.287
90704SOL     OW73943   1.014  12.668  12.941
90704SOL    HW173944   0.983  12.652  13.030
90704SOL    HW273945   0.996  12.587  12.894
90705SOL     OW73946  11.240   9.299   3.445
90705SOL    HW173947  11.335   9.288   3.448
90705SOL    HW273948  11.224   9.384   3.486
90706SOL     OW73949  11.710   1.699  11.304
90706SOL    HW173950  11.745   1.707  11.215
90706SOL    HW273951  11.708   1.788  11.338
90707SOL     OW73952  14.214   7.671   4.729
90707SOL    HW173953  14.187   7.710   4.812
90707SOL    HW273954  14.307   7.652   4.740
90708SOL     OW73955   9.434   2.309  13.202
90708SOL    HW173956   9.420   2.296  13.108
90708SOL    HW273957   9.417   2.402  13.215
90709SOL     OW73958  12.842   4.941  11.374
90709SOL    HW173959  12.926   4.969  11.337
90709SOL    HW273960  12.863   4.910  11.462
90710SOL     OW73961   0.216  11.709   9.242
90710SOL    HW173962   0.214  11.797   9.279
90710SOL    HW273963   0.185  11.652   9.312
90711SOL     OW73964   1.439  11.495   2.537
90711SOL    HW173965   1.511  11.475   2.597
90711SOL    HW273966   1.475  11.478   2.450
90712SOL     OW73967  10.127   4.877   8.700
90712SOL    HW173968  10.081   4.874   8.616
90712SOL    HW273969  10.220   4.868   8.677
90713SOL     OW73970   5.119   7.130  14.674
90713SOL    HW173971   5.192   7.145  14.733
90713SOL    HW273972   5.103   7.216  14.634
90714SOL     OW73973  13.926   3.382   8.504
90714SOL    HW173974  13.870   3.409   8.432
90714SOL    HW273975  13.867   3.335   8.564
90715SOL     OW73976  13.390  10.500   0.115
90715SOL    HW173977  13.439  10.432   0.068
90715SOL    HW273978  13.392  10.472   0.207
90716SOL     OW73979   4.996   9.671   4.493
90716SOL    HW173980   5.091   9.669   4.498
90716SOL    HW273981   4.977   9.732   4.422
90717SOL     OW73982   9.566  13.989   7.336
90717SOL    HW173983   9.643  13.935   7.352
90717SOL    HW273984   9.525  13.951   7.258
90718SOL     OW73985  13.263   2.163  10.146
90718SOL    HW173986  13.233   2.243  10.189
90718SOL    HW273987  13.239   2.175  10.054
90719SOL     OW73988  13.082  12.631   2.595
90719SOL    HW173989  13.106  12.683   2.518
90719SOL    HW273990  13.011  12.575   2.564
90720SOL     OW73991  10.486   2.644   3.630
90720SOL    HW173992  10.397   2.649   3.594
90720SOL    HW273993  10.518   2.734   3.627
90721SOL     OW73994  10.727   8.861   3.881
90721SOL    HW173995  10.675   8.798   3.930
90721SOL    HW273996  10.676   8.942   3.883
90722SOL     OW73997   7.741   3.478   9.486
90722SOL    HW173998   7.670   3.531   9.450
90722SOL    HW273999   7.819   3.510   9.441
90723SOL     OW74000   4.358  10.655   4.137
90723SOL    HW174001   4.374  10.604   4.057
90723SOL    HW274002   4.398  10.740   4.119
90724SOL     OW74003   7.901   8.103   0.612
90724SOL    HW174004   7.951   8.160   0.671
90724SOL    HW274005   7.964   8.079   0.543
90725SOL     OW74006   3.027  10.625   0.900
90725SOL    HW174007   3.058  10.661   0.983
90725SOL    HW274008   2.971  10.693   0.863
90726SOL     OW74009   1.493  14.756   8.479
90726SOL    HW174010   1.581  14.765   8.442
90726SOL    HW274011   1.437  14.811   8.425
90727SOL     OW74012  13.288   8.570   4.248
90727SOL    HW174013  13.361   8.535   4.197
90727SOL    HW274014  13.323   8.649   4.288
90728SOL     OW74015   5.913   9.210  10.741
90728SOL    HW174016   5.935   9.167  10.824
90728SOL    HW274017   5.972   9.171  10.677
90729SOL     OW74018   1.074   4.481   1.581
90729SOL    HW174019   1.074   4.415   1.512
90729SOL    HW274020   1.126   4.553   1.545
90730SOL     OW74021   3.526  10.447   9.122
90730SOL    HW174022   3.543  10.387   9.195
90730SOL    HW274023   3.430  10.455   9.120
90731SOL     OW74024   5.456   3.523   7.226
90731SOL    HW174025   5.471   3.613   7.199
90731SOL    HW274026   5.362   3.518   7.243
90732SOL     OW74027   7.631   9.694  12.375
90732SOL    HW174028   7.576   9.707  12.298
90732SOL    HW274029   7.629   9.779  12.421
90733SOL     OW74030   8.136   7.378  11.076
90733SOL    HW174031   8.199   7.385  11.148
90733SOL    HW274032   8.187   7.396  10.997
90734SOL     OW74033  13.021  14.802   1.199
90734SOL    HW174034  13.035  14.762   1.285
90734SOL    HW274035  13.057   0.008   1.207
90735SOL     OW74036   1.737   2.166   1.895
90735SOL    HW174037   1.741   2.087   1.840
90735SOL    HW274038   1.818   2.164   1.946
90736SOL     OW74039   2.531   5.668   6.300
90736SOL    HW174040   2.563   5.693   6.213
90736SOL    HW274041   2.527   5.750   6.349
90737SOL     OW74042   0.860   4.139   8.886
90737SOL    HW174043   0.882   4.103   8.972
90737SOL    HW274044   0.769   4.169   8.895
90738SOL     OW74045   8.730   5.565  13.538
90738SOL    HW174046   8.696   5.500  13.477
90738SOL    HW274047   8.811   5.527  13.572
90739SOL     OW74048   4.171   0.090   9.019
90739SOL    HW174049   4.130   0.046   8.945
90739SOL    HW274050   4.186   0.180   8.988
90740SOL     OW74051  13.603   2.196  13.489
90740SOL    HW174052  13.685   2.179  13.441
90740SOL    HW274053  13.568   2.109  13.507
90741SOL     OW74054  14.749  13.388  11.972
90741SOL    HW174055  14.684  13.423  12.033
90741SOL    HW274056  14.732  13.434  11.890
90742SOL     OW74057   7.749   4.427   4.631
90742SOL    HW174058   7.705   4.509   4.654
90742SOL    HW274059   7.765   4.384   4.715
90743SOL     OW74060   7.711   3.121  10.873
90743SOL    HW174061   7.698   3.123  10.779
90743SOL    HW274062   7.681   3.207  10.904
90744SOL     OW74063   1.470   7.849   3.515
90744SOL    HW174064   1.525   7.794   3.459
90744SOL    HW274065   1.465   7.802   3.598
90745SOL     OW74066   8.060   5.874   1.202
90745SOL    HW174067   8.030   5.801   1.148
90745SOL    HW274068   8.082   5.943   1.139
90746SOL     OW74069   2.503   7.779   6.850
90746SOL    HW174070   2.573   7.768   6.914
90746SOL    HW274071   2.538   7.743   6.769
90747SOL     OW74072   7.588   7.087   7.793
90747SOL    HW174073   7.535   7.040   7.729
90747SOL    HW274074   7.526   7.114   7.861
90748SOL     OW74075   9.624   0.823   2.387
90748SOL    HW174076   9.664   0.756   2.331
90748SOL    HW274077   9.576   0.773   2.454
90749SOL     OW74078  14.028   1.887   0.778
90749SOL    HW174079  13.937   1.891   0.810
90749SOL    HW274080  14.029   1.812   0.719
90750SOL     OW74081  13.291   2.452   0.533
90750SOL    HW174082  13.385   2.451   0.547
90750SOL    HW274083  13.275   2.385   0.467
90751SOL     OW74084  10.972   0.717   8.180
90751SOL    HW174085  10.974   0.630   8.139
90751SOL    HW274086  11.048   0.717   8.239
90752SOL     OW74087   4.553  13.491  12.842
90752SOL    HW174088   4.492  13.472  12.770
90752SOL    HW274089   4.639  13.493  12.800
90753SOL     OW74090   5.478   4.774   1.575
90753SOL    HW174091   5.524   4.708   1.626
90753SOL    HW274092   5.535   4.789   1.499
90754SOL     OW74093   1.886   4.877  10.031
90754SOL    HW174094   1.850   4.841  10.112
90754SOL    HW274095   1.886   4.972  10.045
90755SOL     OW74096  12.363   9.835   8.142
90755SOL    HW174097  12.429   9.900   8.164
90755SOL    HW274098  12.284   9.865   8.188
90756SOL     OW74099  13.432   1.312  11.528
90756SOL    HW174100  13.347   1.295  11.567
90756SOL    HW274101  13.494   1.261  11.581
90757SOL     OW74102  13.893   9.942   3.325
90757SOL    HW174103  13.869   9.851   3.305
90757SOL    HW274104  13.967   9.960   3.267
90758SOL     OW74105  10.415  10.397   5.565
90758SOL    HW174106  10.376  10.352   5.489
90758SOL    HW274107  10.390  10.343   5.640
90759SOL     OW74108  11.840   7.528   5.388
90759SOL    HW174109  11.903   7.600   5.392
90759SOL    HW274110  11.794   7.531   5.472
90760SOL     OW74111   3.795  12.368   3.038
90760SOL    HW174112   3.722  12.408   2.992
90760SOL    HW274113   3.832  12.306   2.976
90761SOL     OW74114  12.907   2.568  14.069
90761SOL    HW174115  12.869   2.648  14.108
90761SOL    HW274116  12.853   2.497  14.103
90762SOL     OW74117   1.891  12.488   9.501
90762SOL    HW174118   1.952  12.501   9.573
90762SOL    HW274119   1.821  12.435   9.538
90763SOL     OW74120   1.300   4.080   5.043
90763SOL    HW174121   1.303   4.171   5.014
90763SOL    HW274122   1.279   4.030   4.964
90764SOL     OW74123   7.818  10.757  12.776
90764SOL    HW174124   7.858  10.844  12.776
90764SOL    HW274125   7.826  10.727  12.867
90765SOL     OW74126  10.987  11.179   1.339
90765SOL    HW174127  11.026  11.253   1.386
90765SOL    HW274128  11.050  11.158   1.270
90766SOL     OW74129   1.104  13.333   4.697
90766SOL    HW174130   1.071  13.418   4.725
90766SOL    HW274131   1.126  13.346   4.604
90767SOL     OW74132  12.546   4.124   2.711
90767SOL    HW174133  12.526   4.030   2.712
90767SOL    HW274134  12.501   4.159   2.788
90768SOL     OW74135   5.552   6.801   9.444
90768SOL    HW174136   5.644   6.778   9.458
90768SOL    HW274137   5.555   6.889   9.408
90769SOL     OW74138   9.514   1.775   7.026
90769SOL    HW174139   9.442   1.752   6.968
90769SOL    HW274140   9.511   1.709   7.095
90770SOL     OW74141  10.644   1.691  10.576
90770SOL    HW174142  10.718   1.749  10.593
90770SOL    HW274143  10.650   1.624  10.643
90771SOL     OW74144  12.518   9.689  10.654
90771SOL    HW174145  12.511   9.760  10.717
90771SOL    HW274146  12.551   9.730  10.575
90772SOL     OW74147   0.020   1.065   1.413
90772SOL    HW174148   0.034   1.041   1.505
90772SOL    HW274149   0.100   1.034   1.369
90773SOL     OW74150  12.919   1.596   4.151
90773SOL    HW174151  12.852   1.637   4.206
90773SOL    HW274152  13.002   1.620   4.194
90774SOL     OW74153  14.691   7.704  10.864
90774SOL    HW174154  14.626   7.726  10.797
90774SOL    HW274155  14.660   7.622  10.902
90775SOL     OW74156   7.839   1.833   7.720
90775SOL    HW174157   7.908   1.772   7.694
90775SOL    HW274158   7.814   1.877   7.639
90776SOL     OW74159   2.526   1.905  10.910
90776SOL    HW174160   2.551   1.944  10.994
90776SOL    HW274161   2.445   1.949  10.886
90777SOL     OW74162  14.268  10.986   5.076
90777SOL    HW174163  14.361  10.974   5.056
90777SOL    HW274164  14.253  10.935   5.155
90778SOL     OW74165   4.694   8.005   6.759
90778SOL    HW174166   4.720   8.095   6.772
90778SOL    HW274167   4.631   8.008   6.687
90779SOL     OW74168  11.494   8.303   4.822
90779SOL    HW174169  11.535   8.224   4.788
90779SOL    HW274170  11.562   8.370   4.813
90780SOL     OW74171  13.238  14.624   6.020
90780SOL    HW174172  13.267  14.551   6.074
90780SOL    HW274173  13.143  14.625   6.029
90781SOL     OW74174   9.908   9.369  13.818
90781SOL    HW174175   9.968   9.422  13.767
90781SOL    HW274176   9.845   9.335  13.753
90782SOL     OW74177   2.714  14.410   7.966
90782SOL    HW174178   2.628  14.369   7.955
90782SOL    HW274179   2.720  14.472   7.893
90783SOL     OW74180   9.234  14.769   3.650
90783SOL    HW174181   9.224  14.739   3.740
90783SOL    HW274182   9.234  14.689   3.598
90784SOL     OW74183   9.667   0.074   9.069
90784SOL    HW174184   9.729   0.129   9.117
90784SOL    HW274185   9.711  14.872   9.061
90785SOL     OW74186   2.177  10.777   0.189
90785SOL    HW174187   2.209  10.844   0.250
90785SOL    HW274188   2.161  10.700   0.244
90786SOL     OW74189   1.593   7.824  14.094
90786SOL    HW174190   1.561   7.743  14.053
90786SOL    HW274191   1.681   7.801  14.125
90787SOL     OW74192   2.433   9.607   3.749
90787SOL    HW174193   2.425   9.675   3.816
90787SOL    HW274194   2.395   9.648   3.670
90788SOL     OW74195   9.269  11.284   1.669
90788SOL    HW174196   9.313  11.367   1.655
90788SOL    HW274197   9.257  11.278   1.764
90789SOL     OW74198   2.745   7.794   6.452
90789SOL    HW174199   2.694   7.845   6.389
90789SOL    HW274200   2.754   7.852   6.528
90790SOL     OW74201  11.852   3.676  12.895
90790SOL    HW174202  11.918   3.609  12.880
90790SOL    HW274203  11.790   3.666  12.823
90791SOL     OW74204   1.105   7.505   5.933
90791SOL    HW174205   1.061   7.445   5.873
90791SOL    HW274206   1.180   7.537   5.883
90792SOL     OW74207  14.296   7.557  13.094
90792SOL    HW174208  14.287   7.647  13.127
90792SOL    HW274209  14.385   7.532  13.118
90793SOL     OW74210   2.467   3.416  13.384
90793SOL    HW174211   2.488   3.462  13.302
90793SOL    HW274212   2.379   3.448  13.407
90794SOL     OW74213   4.280  13.143   6.586
90794SOL    HW174214   4.334  13.175   6.658
90794SOL    HW274215   4.323  13.061   6.559
90795SOL     OW74216   6.050   0.674   1.315
90795SOL    HW174217   5.991   0.603   1.293
90795SOL    HW274218   6.097   0.693   1.233
90796SOL     OW74219   4.987  13.046  11.236
90796SOL    HW174220   4.947  13.056  11.150
90796SOL    HW274221   4.942  12.971  11.274
90797SOL     OW74222  14.697   5.009   8.054
90797SOL    HW174223  14.695   4.920   8.017
90797SOL    HW274224  14.605   5.034   8.060
90798SOL     OW74225   7.985  13.697  11.171
90798SOL    HW174226   7.980  13.787  11.204
90798SOL    HW274227   7.966  13.706  11.077
90799SOL     OW74228   6.916  11.476  12.022
90799SOL    HW174229   6.836  11.439  11.985
90799SOL    HW274230   6.973  11.489  11.947
90800SOL     OW74231   2.535  13.153   1.196
90800SOL    HW174232   2.514  13.095   1.269
90800SOL    HW274233   2.450  13.190   1.171
90801SOL     OW74234   4.031   5.417   8.653
90801SOL    HW174235   3.951   5.363   8.647
90801SOL    HW274236   4.006   5.490   8.709
90802SOL     OW74237   0.964  14.137   1.042
90802SOL    HW174238   1.032  14.188   0.999
90802SOL    HW274239   1.010  14.085   1.107
90803SOL     OW74240   8.523  10.068   5.203
90803SOL    HW174241   8.506   9.990   5.150
90803SOL    HW274242   8.592  10.115   5.156
90804SOL     OW74243   6.258   7.311   9.526
90804SOL    HW174244   6.318   7.373   9.485
90804SOL    HW274245   6.305   7.228   9.525
90805SOL     OW74246   7.463   7.493  12.772
90805SOL    HW174247   7.425   7.408  12.749
90805SOL    HW274248   7.557   7.478  12.772
90806SOL     OW74249   4.705   1.868   5.072
90806SOL    HW174250   4.709   1.918   5.154
90806SOL    HW274251   4.781   1.810   5.076
90807SOL     OW74252   6.616   7.447   1.278
90807SOL    HW174253   6.579   7.532   1.303
90807SOL    HW274254   6.630   7.402   1.361
90808SOL     OW74255   5.375   8.301   1.388
90808SOL    HW174256   5.460   8.331   1.358
90808SOL    HW274257   5.352   8.229   1.329
90809SOL     OW74258   1.893  11.881  14.516
90809SOL    HW174259   1.838  11.841  14.583
90809SOL    HW274260   1.961  11.816  14.499
90810SOL     OW74261   4.106   6.509  12.757
90810SOL    HW174262   4.099   6.562  12.678
90810SOL    HW274263   4.108   6.419  12.726
90811SOL     OW74264   3.198   3.210   2.435
90811SOL    HW174265   3.246   3.274   2.383
90811SOL    HW274266   3.262   3.178   2.499
90812SOL     OW74267   0.106   8.563   6.301
90812SOL    HW174268   0.142   8.498   6.362
90812SOL    HW274269   0.182   8.595   6.252
90813SOL     OW74270   0.087  13.923   7.809
90813SOL    HW174271   0.075  13.933   7.715
90813SOL    HW274272   0.064  13.832   7.827
90814SOL     OW74273   7.198  14.750   0.334
90814SOL    HW174274   7.228  14.741   0.424
90814SOL    HW274275   7.203  14.662   0.298
90815SOL     OW74276  10.600  14.324   9.446
90815SOL    HW174277  10.527  14.386   9.436
90815SOL    HW274278  10.649  14.332   9.364
90816SOL     OW74279   8.500   5.570   3.221
90816SOL    HW174280   8.581   5.525   3.247
90816SOL    HW274281   8.435   5.500   3.217
90817SOL     OW74282   6.737  14.310   9.850
90817SOL    HW174283   6.780  14.225   9.847
90817SOL    HW274284   6.808  14.374   9.844
90818SOL     OW74285   9.865  14.131   5.646
90818SOL    HW174286   9.845  14.075   5.721
90818SOL    HW274287   9.959  14.147   5.652
90819SOL     OW74288  13.119  12.433   7.736
90819SOL    HW174289  13.087  12.426   7.826
90819SOL    HW274290  13.178  12.508   7.737
90820SOL     OW74291   7.818   3.034   6.791
90820SOL    HW174292   7.798   3.110   6.846
90820SOL    HW274293   7.913   3.024   6.798
90821SOL     OW74294   0.167  14.688   8.799
90821SOL    HW174295   0.108  14.629   8.752
90821SOL    HW274296   0.113  14.723   8.870
90822SOL     OW74297   4.351  13.397  14.367
90822SOL    HW174298   4.340  13.372  14.458
90822SOL    HW274299   4.323  13.488  14.363
90823SOL     OW74300   4.378  13.482  14.015
90823SOL    HW174301   4.303  13.537  13.994
90823SOL    HW274302   4.444  13.544  14.048
90824SOL     OW74303  10.115   3.932   4.850
90824SOL    HW174304  10.147   4.001   4.907
90824SOL    HW274305  10.056   3.880   4.905
90825SOL     OW74306  11.416   8.783  13.021
90825SOL    HW174307  11.480   8.721  13.055
90825SOL    HW274308  11.462   8.829  12.951
90826SOL     OW74309   1.781   7.137   7.951
90826SOL    HW174310   1.808   7.213   8.002
90826SOL    HW274311   1.845   7.132   7.880
90827SOL     OW74312   8.706   6.567   0.480
90827SOL    HW174313   8.700   6.662   0.469
90827SOL    HW274314   8.779   6.541   0.424
90828SOL     OW74315  10.167   4.685   1.009
90828SOL    HW174316  10.165   4.755   1.074
90828SOL    HW274317  10.261   4.668   0.995
90829SOL     OW74318   0.339   3.366   7.588
90829SOL    HW174319   0.260   3.343   7.636
90829SOL    HW274320   0.309   3.423   7.517
90830SOL     OW74321   5.807   0.766   6.821
90830SOL    HW174322   5.888   0.807   6.853
90830SOL    HW274323   5.830   0.674   6.810
90831SOL     OW74324  11.223  13.748  10.794
90831SOL    HW174325  11.145  13.788  10.755
90831SOL    HW274326  11.189  13.675  10.845
90832SOL     OW74327   3.104   4.047   5.284
90832SOL    HW174328   3.189   4.027   5.245
90832SOL    HW274329   3.080   4.132   5.248
90833SOL     OW74330   8.116   6.709  10.856
90833SOL    HW174331   8.185   6.656  10.815
90833SOL    HW274332   8.163   6.779  10.902
90834SOL     OW74333   6.528   5.211  12.993
90834SOL    HW174334   6.535   5.291  12.942
90834SOL    HW274335   6.606   5.211  13.049
90835SOL     OW74336  12.088   4.969  11.101
90835SOL    HW174337  12.040   5.018  11.034
90835SOL    HW274338  12.083   5.024  11.179
90836SOL     OW74339  12.114   2.029  10.195
90836SOL    HW174340  12.087   1.956  10.139
90836SOL    HW274341  12.036   2.083  10.204
90837SOL     OW74342   7.590   4.510   5.050
90837SOL    HW174343   7.550   4.576   4.993
90837SOL    HW274344   7.517   4.469   5.094
90838SOL     OW74345  14.676  11.626   4.448
90838SOL    HW174346  14.599  11.569   4.442
90838SOL    HW274347  14.676  11.656   4.538
90839SOL     OW74348   9.420   3.735   8.803
90839SOL    HW174349   9.448   3.661   8.856
90839SOL    HW274350   9.364   3.697   8.736
90840SOL     OW74351  12.243   2.331   7.186
90840SOL    HW174352  12.316   2.290   7.140
90840SOL    HW274353  12.282   2.403   7.235
90841SOL     OW74354   5.818   0.261   9.691
90841SOL    HW174355   5.763   0.300   9.758
90841SOL    HW274356   5.773   0.180   9.667
90842SOL     OW74357  10.773   3.027   6.493
90842SOL    HW174358  10.683   3.052   6.471
90842SOL    HW274359  10.794   2.955   6.433
90843SOL     OW74360  11.743   3.778   8.966
90843SOL    HW174361  11.702   3.696   8.936
90843SOL    HW274362  11.837   3.763   8.956
90844SOL     OW74363   2.567   2.334  10.468
90844SOL    HW174364   2.630   2.287  10.522
90844SOL    HW274365   2.542   2.271  10.399
90845SOL     OW74366   6.941   3.803   3.813
90845SOL    HW174367   7.027   3.826   3.778
90845SOL    HW274368   6.899   3.887   3.830
90846SOL     OW74369  14.309  13.855   9.801
90846SOL    HW174370  14.384  13.797   9.813
90846SOL    HW274371  14.250  13.833   9.874
90847SOL     OW74372   7.779   2.935  12.026
90847SOL    HW174373   7.806   2.843  12.023
90847SOL    HW274374   7.734   2.944  12.109
90848SOL     OW74375   9.743   1.914   7.019
90848SOL    HW174376   9.656   1.874   7.011
90848SOL    HW274377   9.739   1.992   6.963
90849SOL     OW74378   3.554   0.318  10.334
90849SOL    HW174379   3.504   0.367  10.400
90849SOL    HW274380   3.487   0.280  10.277
90850SOL     OW74381   7.638   1.098  13.747
90850SOL    HW174382   7.704   1.036  13.716
90850SOL    HW274383   7.622   1.073  13.838
90851SOL     OW74384   2.485   9.964   5.559
90851SOL    HW174385   2.395   9.950   5.588
90851SOL    HW274386   2.478  10.031   5.491
90852SOL     OW74387  11.151   2.558   5.057
90852SOL    HW174388  11.146   2.623   4.988
90852SOL    HW274389  11.063   2.520   5.062
90853SOL     OW74390   3.216   7.084  11.121
90853SOL    HW174391   3.254   7.061  11.206
90853SOL    HW274392   3.206   7.001  11.075
90854SOL     OW74393   3.601   9.109   5.439
90854SOL    HW174394   3.523   9.074   5.397
90854SOL    HW274395   3.583   9.203   5.449
90855SOL     OW74396   8.749   2.716  13.736
90855SOL    HW174397   8.672   2.772  13.744
90855SOL    HW274398   8.717   2.629  13.761
90856SOL     OW74399   3.330   4.635   0.040
90856SOL    HW174400   3.325   4.685   0.122
90856SOL    HW274401   3.355   4.699  14.856
90857SOL     OW74402   1.111   7.121   5.232
90857SOL    HW174403   1.145   7.201   5.273
90857SOL    HW274404   1.186   7.063   5.226
90858SOL     OW74405  12.925   9.578  11.102
90858SOL    HW174406  12.864   9.510  11.073
90858SOL    HW274407  13.009   9.534  11.108
90859SOL     OW74408   0.878   8.030  12.299
90859SOL    HW174409   0.819   7.956  12.285
90859SOL    HW274410   0.858   8.060  12.387
90860SOL     OW74411   3.542  14.498   7.370
90860SOL    HW174412   3.619  14.456   7.331
90860SOL    HW274413   3.566  14.591   7.374
90861SOL     OW74414  11.791  14.829   2.750
90861SOL    HW174415  11.747  14.844   2.666
90861SOL    HW274416  11.837  14.746   2.739
90862SOL     OW74417  14.212  13.327   8.829
90862SOL    HW174418  14.172  13.338   8.915
90862SOL    HW274419  14.175  13.399   8.777
90863SOL     OW74420   9.838   8.706  14.366
90863SOL    HW174421   9.823   8.794  14.398
90863SOL    HW274422   9.780   8.651  14.419
90864SOL     OW74423  10.902   5.307  12.056
90864SOL    HW174424  10.813   5.330  12.027
90864SOL    HW274425  10.888   5.234  12.116
90865SOL     OW74426   7.778  10.889  14.116
90865SOL    HW174427   7.872  10.872  14.110
90865SOL    HW274428   7.738  10.802  14.117
90866SOL     OW74429  11.568   8.717   5.296
90866SOL    HW174430  11.634   8.774   5.336
90866SOL    HW274431  11.498   8.712   5.361
90867SOL     OW74432   2.351   3.461   8.233
90867SOL    HW174433   2.430   3.411   8.211
90867SOL    HW274434   2.321   3.422   8.315
90868SOL     OW74435  10.301   4.854  13.983
90868SOL    HW174436  10.380   4.802  13.999
90868SOL    HW274437  10.330   4.926  13.927
90869SOL     OW74438   6.451   0.425   3.931
90869SOL    HW174439   6.397   0.441   3.853
90869SOL    HW274440   6.390   0.436   4.004
90870SOL     OW74441   7.543   4.741   1.697
90870SOL    HW174442   7.525   4.668   1.637
90870SOL    HW274443   7.531   4.703   1.784
90871SOL     OW74444  12.659  10.156   0.269
90871SOL    HW174445  12.630  10.128   0.182
90871SOL    HW274446  12.648  10.079   0.324
90872SOL     OW74447   1.755   8.998   0.346
90872SOL    HW174448   1.713   9.055   0.282
90872SOL    HW274449   1.697   9.001   0.423
90873SOL     OW74450  11.951   9.820  10.683
90873SOL    HW174451  11.975   9.779  10.600
90873SOL    HW274452  11.983   9.910  10.676
90874SOL     OW74453   6.593  10.541   8.512
90874SOL    HW174454   6.511  10.493   8.498
90874SOL    HW274455   6.588  10.572   8.602
90875SOL     OW74456  11.587   1.791  12.088
90875SOL    HW174457  11.508   1.741  12.109
90875SOL    HW274458  11.573   1.823  11.999
90876SOL     OW74459   6.712   5.249  12.566
90876SOL    HW174460   6.732   5.304  12.491
90876SOL    HW274461   6.617   5.256  12.577
90877SOL     OW74462   2.305  13.940   1.332
90877SOL    HW174463   2.385  13.900   1.296
90877SOL    HW274464   2.235  13.882   1.301
90878SOL     OW74465  14.074  13.414   5.414
90878SOL    HW174466  14.057  13.341   5.473
90878SOL    HW274467  14.066  13.376   5.326
90879SOL     OW74468   6.615   1.446  11.825
90879SOL    HW174469   6.647   1.512  11.763
90879SOL    HW274470   6.629   1.484  11.911
90880SOL     OW74471   5.539   4.903   7.473
90880SOL    HW174472   5.631   4.919   7.492
90880SOL    HW274473   5.527   4.809   7.485
90881SOL     OW74474  12.492  10.701  13.819
90881SOL    HW174475  12.561  10.766  13.825
90881SOL    HW274476  12.435  10.718  13.893
90882SOL     OW74477   2.187  12.633   8.067
90882SOL    HW174478   2.250  12.675   8.125
90882SOL    HW274479   2.106  12.630   8.119
90883SOL     OW74480   0.810   4.264   0.154
90883SOL    HW174481   0.758   4.290   0.077
90883SOL    HW274482   0.782   4.174   0.172
90884SOL     OW74483   4.487   9.028  11.790
90884SOL    HW174484   4.526   9.051  11.875
90884SOL    HW274485   4.560   9.033  11.729
90885SOL     OW74486   7.312   9.971   1.067
90885SOL    HW174487   7.389   9.977   1.010
90885SOL    HW274488   7.240  10.005   1.014
90886SOL     OW74489  13.749   4.666   2.944
90886SOL    HW174490  13.742   4.592   3.004
90886SOL    HW274491  13.671   4.661   2.889
90887SOL     OW74492  11.394   9.780   4.459
90887SOL    HW174493  11.482   9.757   4.489
90887SOL    HW274494  11.338   9.711   4.493
90888SOL     OW74495   4.690  13.692   3.405
90888SOL    HW174496   4.649  13.629   3.465
90888SOL    HW274497   4.662  13.777   3.437
90889SOL     OW74498   6.050  12.634   0.421
90889SOL    HW174499   6.076  12.573   0.352
90889SOL    HW274500   6.043  12.719   0.377
90890SOL     OW74501  14.260   1.862   5.371
90890SOL    HW174502  14.347   1.862   5.412
90890SOL    HW274503  14.279   1.851   5.278
90891SOL     OW74504   7.605   1.914   0.808
90891SOL    HW174505   7.679   1.854   0.812
90891SOL    HW274506   7.645   2.001   0.809
90892SOL     OW74507   3.718   8.311  12.527
90892SOL    HW174508   3.772   8.263  12.465
90892SOL    HW274509   3.724   8.402  12.497
90893SOL     OW74510   3.729   9.939   7.020
90893SOL    HW174511   3.782   9.988   6.957
90893SOL    HW274512   3.760   9.969   7.106
90894SOL     OW74513   8.155  12.519   9.788
90894SOL    HW174514   8.121  12.510   9.699
90894SOL    HW274515   8.242  12.479   9.784
90895SOL     OW74516   6.149  12.450  12.916
90895SOL    HW174517   6.242  12.434  12.927
90895SOL    HW274518   6.140  12.546  12.918
90896SOL     OW74519   4.649  12.508   1.662
90896SOL    HW174520   4.685  12.594   1.640
90896SOL    HW274521   4.688  12.487   1.747
90897SOL     OW74522   5.738  14.537   2.288
90897SOL    HW174523   5.728  14.464   2.349
90897SOL    HW274524   5.825  14.573   2.307
90898SOL     OW74525   9.984   2.318   5.100
90898SOL    HW174526  10.026   2.245   5.145
90898SOL    HW274527   9.972   2.286   5.010
90899SOL     OW74528   5.879   2.530  12.778
90899SOL    HW174529   5.917   2.528  12.690
90899SOL    HW274530   5.795   2.487  12.769
90900SOL     OW74531   5.422  11.339   7.353
90900SOL    HW174532   5.353  11.361   7.290
90900SOL    HW274533   5.411  11.245   7.367
90901SOL     OW74534   4.225  13.464   6.329
90901SOL    HW174535   4.147  13.519   6.331
90901SOL    HW274536   4.243  13.444   6.421
90902SOL     OW74537   0.465   4.060  14.352
90902SOL    HW174538   0.413   3.984  14.323
90902SOL    HW274539   0.400   4.126  14.376
90903SOL     OW74540   5.709   9.247  12.235
90903SOL    HW174541   5.762   9.193  12.294
90903SOL    HW274542   5.625   9.202  12.230
90904SOL     OW74543   8.213   7.467   5.697
90904SOL    HW174544   8.147   7.415   5.650
90904SOL    HW274545   8.210   7.553   5.655
90905SOL     OW74546   5.394   3.869  10.005
90905SOL    HW174547   5.299   3.855  10.005
90905SOL    HW274548   5.428   3.802  10.065
90906SOL     OW74549   8.697   7.251  12.863
90906SOL    HW174550   8.736   7.312  12.801
90906SOL    HW274551   8.610   7.233  12.827
90907SOL     OW74552   8.640  10.004   1.198
90907SOL    HW174553   8.605   9.923   1.235
90907SOL    HW274554   8.634   9.991   1.103
90908SOL     OW74555  11.524   9.959   5.743
90908SOL    HW174556  11.491   9.870   5.758
90908SOL    HW274557  11.619   9.949   5.745
90909SOL     OW74558  14.419   6.819   0.149
90909SOL    HW174559  14.485   6.830   0.080
90909SOL    HW274560  14.469   6.806   0.229
90910SOL     OW74561   3.326  14.174   2.479
90910SOL    HW174562   3.355  14.258   2.442
90910SOL    HW274563   3.374  14.167   2.561
90911SOL     OW74564   6.396   0.053   4.467
90911SOL    HW174565   6.423  14.860   4.414
90911SOL    HW274566   6.353   0.112   4.404
90912SOL     OW74567  12.802  11.875   1.415
90912SOL    HW174568  12.825  11.783   1.408
90912SOL    HW274569  12.833  11.914   1.333
90913SOL     OW74570   1.211  11.222   3.586
90913SOL    HW174571   1.149  11.269   3.531
90913SOL    HW274572   1.164  11.144   3.616
90914SOL     OW74573  14.506  10.870  11.743
90914SOL    HW174574  14.532  10.960  11.721
90914SOL    HW274575  14.541  10.856  11.831
90915SOL     OW74576  13.966  11.557   8.707
90915SOL    HW174577  13.920  11.493   8.762
90915SOL    HW274578  13.936  11.642   8.739
90916SOL     OW74579   9.656   9.531   3.841
90916SOL    HW174580   9.616   9.449   3.811
90916SOL    HW274581   9.586   9.577   3.886
90917SOL     OW74582   8.609   7.934  10.560
90917SOL    HW174583   8.584   7.942  10.652
90917SOL    HW274584   8.686   7.989  10.551
90918SOL     OW74585   6.204  10.512  12.563
90918SOL    HW174586   6.187  10.428  12.607
90918SOL    HW274587   6.139  10.572  12.599
90919SOL     OW74588   0.079   5.723   0.018
90919SOL    HW174589   0.113   5.744  14.813
90919SOL    HW274590  14.866   5.726   0.008
90920SOL     OW74591   8.170   8.394   3.846
90920SOL    HW174592   8.174   8.348   3.930
90920SOL    HW274593   8.174   8.487   3.869
90921SOL     OW74594  14.227  13.857   1.785
90921SOL    HW174595  14.202  13.893   1.700
90921SOL    HW274596  14.158  13.886   1.844
90922SOL     OW74597   8.030  13.703   4.876
90922SOL    HW174598   8.065  13.785   4.910
90922SOL    HW274599   7.936  13.719   4.865
90923SOL     OW74600   5.867   3.134  10.565
90923SOL    HW174601   5.867   3.040  10.585
90923SOL    HW274602   5.932   3.171  10.624
90924SOL     OW74603   9.773   5.679   6.405
90924SOL    HW174604   9.758   5.750   6.467
90924SOL    HW274605   9.857   5.699   6.365
90925SOL     OW74606   6.309  13.446  13.815
90925SOL    HW174607   6.216  13.463  13.830
90925SOL    HW274608   6.319  13.456  13.720
90926SOL     OW74609  14.364   2.285   0.127
90926SOL    HW174610  14.417   2.306   0.203
90926SOL    HW274611  14.423   2.298   0.052
90927SOL     OW74612  14.574   4.780  13.301
90927SOL    HW174613  14.669   4.778  13.306
90927SOL    HW274614  14.546   4.805  13.389
90928SOL     OW74615   9.359   0.897   3.070
90928SOL    HW174616   9.353   0.809   3.033
90928SOL    HW274617   9.401   0.885   3.155
90929SOL     OW74618  14.334   5.754  11.516
90929SOL    HW174619  14.411   5.701  11.496
90929SOL    HW274620  14.371   5.834  11.556
90930SOL     OW74621  14.350   0.030   9.218
90930SOL    HW174622  14.428   0.069   9.258
90930SOL    HW274623  14.300   0.104   9.185
90931SOL     OW74624   8.166  13.638   1.119
90931SOL    HW174625   8.228  13.571   1.089
90931SOL    HW274626   8.084  13.589   1.133
90932SOL     OW74627   3.479   9.818  11.869
90932SOL    HW174628   3.515   9.871  11.939
90932SOL    HW274629   3.550   9.757  11.846
90933SOL     OW74630   7.975   0.563  11.990
90933SOL    HW174631   7.904   0.502  11.974
90933SOL    HW274632   8.053   0.508  12.000
90934SOL     OW74633   7.853  10.703  11.996
90934SOL    HW174634   7.912  10.640  12.037
90934SOL    HW274635   7.801  10.738  12.068
90935SOL     OW74636   2.420   4.530   7.981
90935SOL    HW174637   2.350   4.498   8.037
90935SOL    HW274638   2.398   4.621   7.963
90936SOL     OW74639  14.358   2.218   1.872
90936SOL    HW174640  14.386   2.240   1.783
90936SOL    HW274641  14.293   2.284   1.894
90937SOL     OW74642   5.872   4.036  10.983
90937SOL    HW174643   5.823   4.073  11.057
90937SOL    HW274644   5.859   3.941  10.991
90938SOL     OW74645   7.373   2.017  13.763
90938SOL    HW174646   7.339   1.927  13.764
90938SOL    HW274647   7.467   2.007  13.755
90939SOL     OW74648  10.438   0.105   1.007
90939SOL    HW174649  10.420   0.044   0.934
90939SOL    HW274650  10.352   0.134   1.035
90940SOL     OW74651   9.304   9.097  10.247
90940SOL    HW174652   9.394   9.105  10.215
90940SOL    HW274653   9.261   9.177  10.219
90941SOL     OW74654  12.039   1.288   1.088
90941SOL    HW174655  11.972   1.224   1.065
90941SOL    HW274656  12.029   1.301   1.183
90942SOL     OW74657   0.486   6.998   3.839
90942SOL    HW174658   0.539   6.945   3.898
90942SOL    HW274659   0.547   7.061   3.801
90943SOL     OW74660  11.183   4.075   0.991
90943SOL    HW174661  11.260   4.124   0.963
90943SOL    HW274662  11.110   4.135   0.977
90944SOL     OW74663   8.306  14.403   2.530
90944SOL    HW174664   8.222  14.358   2.530
90944SOL    HW274665   8.354  14.364   2.456
90945SOL     OW74666   2.964   8.516   9.228
90945SOL    HW174667   3.057   8.537   9.217
90945SOL    HW274668   2.961   8.420   9.223
90946SOL     OW74669   2.180  12.991   7.123
90946SOL    HW174670   2.271  12.979   7.096
90946SOL    HW274671   2.184  13.030   7.210
90947SOL     OW74672   5.316  14.633   9.674
90947SOL    HW174673   5.361  14.715   9.694
90947SOL    HW274674   5.248  14.658   9.612
90948SOL     OW74675   2.879   2.106   5.590
90948SOL    HW174676   2.930   2.047   5.646
90948SOL    HW274677   2.851   2.051   5.517
90949SOL     OW74678   5.848   5.604   1.987
90949SOL    HW174679   5.769   5.556   1.962
90949SOL    HW274680   5.918   5.539   1.980
90950SOL     OW74681  10.749  10.731   3.944
90950SOL    HW174682  10.797  10.785   4.007
90950SOL    HW274683  10.670  10.781   3.925
90951SOL     OW74684   3.706   4.416   1.049
90951SOL    HW174685   3.623   4.438   1.092
90951SOL    HW274686   3.683   4.410   0.956
90952SOL     OW74687   9.522   9.342  10.858
90952SOL    HW174688   9.558   9.261  10.821
90952SOL    HW274689   9.427   9.332  10.848
90953SOL     OW74690  10.707   3.793   2.499
90953SOL    HW174691  10.672   3.822   2.415
90953SOL    HW274692  10.647   3.724   2.529
90954SOL     OW74693  11.314   4.417   4.349
90954SOL    HW174694  11.380   4.380   4.407
90954SOL    HW274695  11.243   4.443   4.408
90955SOL     OW74696  14.199   5.717   7.456
90955SOL    HW174697  14.133   5.743   7.392
90955SOL    HW274698  14.236   5.636   7.421
90956SOL     OW74699   7.686   9.563   8.132
90956SOL    HW174700   7.622   9.542   8.200
90956SOL    HW274701   7.742   9.485   8.127
90957SOL     OW74702   5.680   4.291   4.119
90957SOL    HW174703   5.762   4.250   4.144
90957SOL    HW274704   5.684   4.379   4.156
90958SOL     OW74705   8.625   6.445   2.806
90958SOL    HW174706   8.533   6.450   2.830
90958SOL    HW274707   8.627   6.390   2.728
90959SOL     OW74708  12.035   9.236   7.819
90959SOL    HW174709  11.975   9.184   7.872
90959SOL    HW274710  12.088   9.172   7.771
90960SOL     OW74711   9.939   7.220   0.265
90960SOL    HW174712  10.029   7.188   0.264
90960SOL    HW274713   9.945   7.309   0.299
90961SOL     OW74714   3.239   9.347   9.174
90961SOL    HW174715   3.288   9.315   9.099
90961SOL    HW274716   3.167   9.284   9.184
90962SOL     OW74717   2.884   6.288   2.417
90962SOL    HW174718   2.959   6.272   2.359
90962SOL    HW274719   2.917   6.270   2.505
90963SOL     OW74720   8.783  10.547   7.583
90963SOL    HW174721   8.845  10.514   7.649
90963SOL    HW274722   8.754  10.631   7.618
90964SOL     OW74723  12.356   8.342   5.414
90964SOL    HW174724  12.302   8.393   5.353
90964SOL    HW274725  12.319   8.361   5.500
90965SOL     OW74726  13.850  11.165   8.574
90965SOL    HW174727  13.933  11.206   8.599
90965SOL    HW274728  13.787  11.201   8.636
90966SOL     OW74729   1.523  10.265   3.514
90966SOL    HW174730   1.469  10.275   3.592
90966SOL    HW274731   1.495  10.182   3.476
90967SOL     OW74732   3.844  13.262   1.616
90967SOL    HW174733   3.938  13.276   1.607
90967SOL    HW274734   3.826  13.277   1.709
90968SOL     OW74735   0.813   5.089  11.358
90968SOL    HW174736   0.789   5.055  11.444
90968SOL    HW274737   0.796   5.183  11.363
90969SOL     OW74738   4.010  10.848   7.770
90969SOL    HW174739   3.950  10.878   7.702
90969SOL    HW274740   4.063  10.925   7.791
90970SOL     OW74741   9.011   6.058  10.277
90970SOL    HW174742   9.035   6.127  10.215
90970SOL    HW274743   8.970   5.991  10.222
90971SOL     OW74744   0.779   6.716   0.649
90971SOL    HW174745   0.860   6.667   0.639
90971SOL    HW274746   0.740   6.717   0.561
90972SOL     OW74747   0.434  13.706   8.867
90972SOL    HW174748   0.525  13.713   8.893
90972SOL    HW274749   0.431  13.747   8.780
90973SOL     OW74750   9.411   4.481  12.705
90973SOL    HW174751   9.379   4.564  12.740
90973SOL    HW274752   9.502   4.476  12.735
90974SOL     OW74753  10.277  13.540  13.972
90974SOL    HW174754  10.280  13.546  13.877
90974SOL    HW274755  10.345  13.476  13.995
90975SOL     OW74756   2.578   9.493  11.786
90975SOL    HW174757   2.652   9.550  11.766
90975SOL    HW274758   2.503   9.537  11.746
90976SOL     OW74759   2.860   6.665   6.309
90976SOL    HW174760   2.861   6.699   6.219
90976SOL    HW274761   2.883   6.740   6.363
90977SOL     OW74762   4.455   8.332   4.725
90977SOL    HW174763   4.435   8.423   4.703
90977SOL    HW274764   4.502   8.298   4.649
90978SOL     OW74765   1.894   0.309   0.334
90978SOL    HW174766   1.829   0.379   0.325
90978SOL    HW274767   1.858   0.236   0.285
90979SOL     OW74768   3.584   2.047   4.265
90979SOL    HW174769   3.634   2.086   4.337
90979SOL    HW274770   3.521   1.990   4.308
90980SOL     OW74771  11.901   0.497   3.226
90980SOL    HW174772  11.890   0.560   3.155
90980SOL    HW274773  11.826   0.437   3.217
90981SOL     OW74774   4.276  14.562   4.084
90981SOL    HW174775   4.247  14.512   4.160
90981SOL    HW274776   4.270  14.653   4.110
90982SOL     OW74777   7.002   4.185   8.891
90982SOL    HW174778   7.068   4.163   8.957
90982SOL    HW274779   6.949   4.253   8.931
90983SOL     OW74780   1.519   0.003  11.577
90983SOL    HW174781   1.494   0.092  11.600
90983SOL    HW274782   1.440  14.833  11.590
90984SOL     OW74783   2.795   1.550   9.662
90984SOL    HW174784   2.747   1.567   9.744
90984SOL    HW274785   2.775   1.458   9.642
90985SOL     OW74786   6.261   1.572   4.912
90985SOL    HW174787   6.244   1.643   4.850
90985SOL    HW274788   6.322   1.611   4.976
90986SOL     OW74789   7.416   2.200   9.395
90986SOL    HW174790   7.337   2.149   9.412
90986SOL    HW274791   7.468   2.146   9.336
90987SOL     OW74792  10.377  10.415   3.025
90987SOL    HW174793  10.350  10.445   2.938
90987SOL    HW274794  10.471  10.396   3.015
90988SOL     OW74795  14.518  10.813  11.437
90988SOL    HW174796  14.518  10.859  11.520
90988SOL    HW274797  14.572  10.736  11.452
90989SOL     OW74798   0.608  13.434   8.958
90989SOL    HW174799   0.550  13.435   8.882
90989SOL    HW274800   0.646  13.521   8.960
90990SOL     OW74801   7.411   7.744  10.175
90990SOL    HW174802   7.466   7.673  10.208
90990SOL    HW274803   7.341   7.754  10.240
90991SOL     OW74804   1.131   5.140   8.711
90991SOL    HW174805   1.185   5.073   8.753
90991SOL    HW274806   1.043   5.101   8.709
90992SOL     OW74807   5.371   5.085   0.070
90992SOL    HW174808   5.456   5.048   0.045
90992SOL    HW274809   5.392   5.175   0.096
90993SOL     OW74810   6.240   4.745  12.717
90993SOL    HW174811   6.184   4.803  12.769
90993SOL    HW274812   6.194   4.737  12.634
90994SOL     OW74813   1.882   5.362   5.597
90994SOL    HW174814   1.944   5.433   5.616
90994SOL    HW274815   1.816   5.369   5.666
90995SOL     OW74816   8.513   0.817   4.080
90995SOL    HW174817   8.575   0.871   4.032
90995SOL    HW274818   8.476   0.758   4.015
90996SOL     OW74819   5.996   0.270  10.758
90996SOL    HW174820   5.956   0.347  10.717
90996SOL    HW274821   5.922   0.217  10.787
90997SOL     OW74822   2.540   6.575  11.613
90997SOL    HW174823   2.592   6.499  11.638
90997SOL    HW274824   2.450   6.552  11.638
90998SOL     OW74825   3.490   0.508  12.346
90998SOL    HW174826   3.513   0.428  12.392
90998SOL    HW274827   3.554   0.573  12.377
90999SOL     OW74828   2.739   2.644  11.994
90999SOL    HW174829   2.799   2.635  12.069
90999SOL    HW274830   2.663   2.592  12.018
91000SOL     OW74831  13.800  13.157   5.396
91000SOL    HW174832  13.890  13.175   5.424
91000SOL    HW274833  13.775  13.080   5.446
91001SOL     OW74834   8.327  12.686   7.047
91001SOL    HW174835   8.402  12.709   6.993
91001SOL    HW274836   8.359  12.616   7.104
91002SOL     OW74837   5.361   2.818   8.113
91002SOL    HW174838   5.295   2.818   8.044
91002SOL    HW274839   5.389   2.909   8.120
91003SOL     OW74840   8.199  10.038   7.490
91003SOL    HW174841   8.294  10.032   7.488
91003SOL    HW274842   8.175  10.071   7.403
91004SOL     OW74843   5.854  10.851  13.668
91004SOL    HW174844   5.829  10.760  13.681
91004SOL    HW274845   5.782  10.889  13.617
91005SOL     OW74846  11.955   5.153  11.273
91005SOL    HW174847  11.989   5.110  11.351
91005SOL    HW274848  12.014   5.227  11.258
91006SOL     OW74849   1.840   4.782  11.170
91006SOL    HW174850   1.769   4.718  11.170
91006SOL    HW274851   1.919   4.731  11.155
91007SOL     OW74852   7.863   2.869   0.079
91007SOL    HW174853   7.792   2.865   0.014
91007SOL    HW274854   7.893   2.960   0.075
91008SOL     OW74855   9.616   8.550  13.020
91008SOL    HW174856   9.552   8.506  13.075
91008SOL    HW274857   9.606   8.509  12.934
91009SOL     OW74858   0.946   7.608  13.039
91009SOL    HW174859   0.941   7.540  13.106
91009SOL    HW274860   0.861   7.605  12.996
91010SOL     OW74861   3.814   6.781  12.550
91010SOL    HW174862   3.815   6.876  12.559
91010SOL    HW274863   3.744   6.764  12.487
91011SOL     OW74864   3.581   3.339   6.740
91011SOL    HW174865   3.657   3.283   6.724
91011SOL    HW274866   3.618   3.424   6.764
91012SOL     OW74867   9.332   7.721  13.733
91012SOL    HW174868   9.412   7.693  13.778
91012SOL    HW274869   9.262   7.703  13.795
91013SOL     OW74870   2.048   3.793   9.222
91013SOL    HW174871   2.101   3.774   9.299
91013SOL    HW274872   1.980   3.852   9.253
91014SOL     OW74873   4.099  12.787   9.534
91014SOL    HW174874   4.136  12.700   9.519
91014SOL    HW274875   4.100  12.797   9.630
91015SOL     OW74876  10.711   0.490   7.990
91015SOL    HW174877  10.636   0.431   8.000
91015SOL    HW274878  10.678   0.576   8.017
91016SOL     OW74879   7.622   5.451  13.428
91016SOL    HW174880   7.652   5.496  13.350
91016SOL    HW274881   7.533   5.422  13.406
91017SOL     OW74882   1.309   9.566  12.582
91017SOL    HW174883   1.236   9.624  12.603
91017SOL    HW274884   1.279   9.479  12.607
91018SOL     OW74885  12.914   9.049   1.341
91018SOL    HW174886  12.953   8.965   1.363
91018SOL    HW274887  12.954   9.073   1.257
91019SOL     OW74888   3.501  11.890   1.504
91019SOL    HW174889   3.480  11.822   1.440
91019SOL    HW274890   3.444  11.963   1.481
91020SOL     OW74891  11.975   7.146  13.893
91020SOL    HW174892  11.938   7.083  13.956
91020SOL    HW274893  12.047   7.187  13.941
91021SOL     OW74894   5.146   5.914  14.664
91021SOL    HW174895   5.126   5.963  14.584
91021SOL    HW274896   5.208   5.970  14.711
91022SOL     OW74897   3.879   9.070   9.437
91022SOL    HW174898   3.908   9.140   9.379
91022SOL    HW274899   3.907   8.989   9.394
91023SOL     OW74900   8.584   9.370   0.045
91023SOL    HW174901   8.615   9.280   0.033
91023SOL    HW274902   8.635   9.402   0.119
91024SOL     OW74903  13.742  10.842   2.428
91024SOL    HW174904  13.779  10.862   2.342
91024SOL    HW274905  13.752  10.923   2.478
91025SOL     OW74906  10.805  12.327   2.614
91025SOL    HW174907  10.808  12.422   2.623
91025SOL    HW274908  10.886  12.296   2.654
91026SOL     OW74909   6.228   2.275  10.926
91026SOL    HW174910   6.202   2.310  11.011
91026SOL    HW274911   6.298   2.213  10.946
91027SOL     OW74912  10.335  14.180   7.852
91027SOL    HW174913  10.250  14.147   7.882
91027SOL    HW274914  10.348  14.261   7.901
91028SOL     OW74915   1.208  10.176   0.141
91028SOL    HW174916   1.228  10.247   0.079
91028SOL    HW274917   1.160  10.219   0.211
91029SOL     OW74918   6.036   2.103   2.892
91029SOL    HW174919   6.104   2.045   2.857
91029SOL    HW274920   6.024   2.075   2.982
91030SOL     OW74921   5.022   9.241   9.222
91030SOL    HW174922   5.068   9.315   9.183
91030SOL    HW274923   5.020   9.260   9.316
91031SOL     OW74924   5.597   1.981  14.209
91031SOL    HW174925   5.674   1.938  14.245
91031SOL    HW274926   5.534   1.910  14.196
91032SOL     OW74927  13.540   7.398   4.178
91032SOL    HW174928  13.488   7.443   4.245
91032SOL    HW274929  13.617   7.454   4.166
91033SOL     OW74930   3.646   7.196   2.133
91033SOL    HW174931   3.662   7.176   2.040
91033SOL    HW274932   3.565   7.149   2.154
91034SOL     OW74933   4.841   1.837   9.624
91034SOL    HW174934   4.909   1.904   9.631
91034SOL    HW274935   4.880   1.758   9.662
91035SOL     OW74936   5.865  13.660   8.260
91035SOL    HW174937   5.835  13.605   8.187
91035SOL    HW274938   5.960  13.668   8.245
91036SOL     OW74939   6.357   9.113  14.126
91036SOL    HW174940   6.415   9.167  14.071
91036SOL    HW274941   6.320   9.175  14.189
91037SOL     OW74942   4.939   9.520  11.838
91037SOL    HW174943   4.949   9.425  11.837
91037SOL    HW274944   4.920   9.544  11.747
91038SOL     OW74945  11.542   0.867   2.054
91038SOL    HW174946  11.609   0.934   2.063
91038SOL    HW274947  11.585   0.794   2.010
91039SOL     OW74948  14.251   1.046   6.689
91039SOL    HW174949  14.261   1.135   6.724
91039SOL    HW274950  14.231   0.992   6.765
91040SOL     OW74951  12.292   5.056  12.127
91040SOL    HW174952  12.377   5.082  12.091
91040SOL    HW274953  12.310   4.974  12.174
91041SOL     OW74954   1.063  14.085  10.119
91041SOL    HW174955   1.060  14.149  10.047
91041SOL    HW274956   1.131  14.023  10.092
91042SOL     OW74957   1.006  14.825  10.061
91042SOL    HW174958   0.911  14.813  10.073
91042SOL    HW274959   1.040  14.830  10.150
91043SOL     OW74960  11.609  13.229  13.264
91043SOL    HW174961  11.623  13.201  13.174
91043SOL    HW274962  11.545  13.168  13.299
91044SOL     OW74963   1.704   5.364   4.050
91044SOL    HW174964   1.658   5.282   4.030
91044SOL    HW274965   1.679   5.422   3.978
91045SOL     OW74966   7.066   4.475   1.125
91045SOL    HW174967   7.073   4.381   1.142
91045SOL    HW274968   6.981   4.500   1.162
91046SOL     OW74969   7.749  11.941  10.684
91046SOL    HW174970   7.770  12.018  10.632
91046SOL    HW274971   7.662  11.960  10.719
91047SOL     OW74972   4.654   2.934  10.519
91047SOL    HW174973   4.570   2.915  10.477
91047SOL    HW274974   4.712   2.959  10.447
91048SOL     OW74975   2.661   7.187  13.683
91048SOL    HW174976   2.675   7.229  13.598
91048SOL    HW274977   2.686   7.096  13.669
91049SOL     OW74978   0.595   0.133   0.312
91049SOL    HW174979   0.675   0.105   0.357
91049SOL    HW274980   0.627   0.188   0.240
91050SOL     OW74981   6.644  13.756   2.210
91050SOL    HW174982   6.701  13.721   2.142
91050SOL    HW274983   6.700  13.813   2.262
91051SOL     OW74984   4.489  10.141   4.160
91051SOL    HW174985   4.525  10.103   4.240
91051SOL    HW274986   4.440  10.218   4.190
91052SOL     OW74987   5.918  12.416  13.117
91052SOL    HW174988   5.974  12.406  13.040
91052SOL    HW274989   5.968  12.475  13.175
91053SOL     OW74990   9.513   0.398   9.716
91053SOL    HW174991   9.477   0.484   9.692
91053SOL    HW274992   9.543   0.360   9.633
91054SOL     OW74993   7.604   6.540  12.217
91054SOL    HW174994   7.666   6.584  12.158
91054SOL    HW274995   7.572   6.610  12.274
91055SOL     OW74996   8.724   8.908   9.949
91055SOL    HW174997   8.680   8.847   9.890
91055SOL    HW274998   8.680   8.895  10.033
91056SOL     OW74999   6.266   0.534  11.911
91056SOL    HW175000   6.277   0.449  11.954
91056SOL    HW275001   6.352   0.552  11.873
91057SOL     OW75002  10.625   9.053   8.088
91057SOL    HW175003  10.646   9.094   8.173
91057SOL    HW275004  10.612   9.127   8.029
91058SOL     OW75005   1.485  12.298  11.433
91058SOL    HW175006   1.425  12.278  11.360
91058SOL    HW275007   1.527  12.380  11.407
91059SOL     OW75008   6.570   5.117  13.390
91059SOL    HW175009   6.664   5.136  13.382
91059SOL    HW275010   6.562   5.026  13.361
91060SOL     OW75011   1.300  10.162   4.450
91060SOL    HW175012   1.333  10.168   4.540
91060SOL    HW275013   1.344  10.086   4.413
91061SOL     OW75014  13.808   5.323  12.541
91061SOL    HW175015  13.772   5.407  12.568
91061SOL    HW275016  13.772   5.260  12.603
91062SOL     OW75017   5.343  13.110   8.842
91062SOL    HW175018   5.298  13.194   8.848
91062SOL    HW275019   5.290  13.049   8.894
91063SOL     OW75020   2.399   5.229   6.330
91063SOL    HW175021   2.407   5.320   6.358
91063SOL    HW275022   2.478   5.213   6.278
91064SOL     OW75023   6.908   4.202   2.038
91064SOL    HW175024   6.971   4.235   2.103
91064SOL    HW275025   6.851   4.143   2.088
91065SOL     OW75026   0.720   8.947  14.124
91065SOL    HW175027   0.707   8.854  14.106
91065SOL    HW275028   0.722   8.987  14.037
91066SOL     OW75029   6.814   3.353  12.647
91066SOL    HW175030   6.823   3.405  12.727
91066SOL    HW275031   6.731   3.381  12.610
91067SOL     OW75032   1.372   9.186   8.159
91067SOL    HW175033   1.462   9.199   8.188
91067SOL    HW275034   1.344   9.271   8.126
91068SOL     OW75035  11.429   0.116  11.310
91068SOL    HW175036  11.355   0.062  11.337
91068SOL    HW275037  11.502   0.055  11.305
91069SOL     OW75038   8.150   7.099  11.773
91069SOL    HW175039   8.120   7.175  11.822
91069SOL    HW275040   8.071   7.047  11.757
91070SOL     OW75041   9.505   4.178   7.050
91070SOL    HW175042   9.481   4.164   6.958
91070SOL    HW275043   9.575   4.244   7.047
91071SOL     OW75044   1.352  12.975  14.804
91071SOL    HW175045   1.334  13.046  14.866
91071SOL    HW275046   1.331  13.013  14.719
91072SOL     OW75047  11.634  10.599  12.247
91072SOL    HW175048  11.591  10.585  12.162
91072SOL    HW275049  11.686  10.520  12.261
91073SOL     OW75050   3.328  14.259   9.335
91073SOL    HW175051   3.286  14.225   9.414
91073SOL    HW275052   3.300  14.200   9.265
91074SOL     OW75053  11.182   7.546   7.407
91074SOL    HW175054  11.193   7.588   7.493
91074SOL    HW275055  11.104   7.587   7.370
91075SOL     OW75056   0.085  11.700   1.226
91075SOL    HW175057   0.070  11.606   1.221
91075SOL    HW275058   0.171  11.709   1.268
91076SOL     OW75059   3.868   1.221  12.552
91076SOL    HW175060   3.831   1.296  12.507
91076SOL    HW275061   3.962   1.229  12.540
91077SOL     OW75062   6.610   8.316  10.921
91077SOL    HW175063   6.524   8.274  10.910
91077SOL    HW275064   6.662   8.251  10.967
91078SOL     OW75065   5.988   7.027   2.536
91078SOL    HW175066   5.944   7.024   2.451
91078SOL    HW275067   5.931   6.976   2.594
91079SOL     OW75068   0.222   6.763   6.206
91079SOL    HW175069   0.187   6.848   6.234
91079SOL    HW275070   0.301   6.785   6.157
91080SOL     OW75071   1.731   6.157   1.246
91080SOL    HW175072   1.778   6.074   1.247
91080SOL    HW275073   1.674   6.151   1.169
91081SOL     OW75074  14.752  12.249   7.279
91081SOL    HW175075  14.795  12.274   7.197
91081SOL    HW275076  14.685  12.186   7.253
91082SOL     OW75077   9.561  10.737   4.289
91082SOL    HW175078   9.642  10.786   4.305
91082SOL    HW275079   9.545  10.746   4.195
91083SOL     OW75080   1.871   9.756   2.803
91083SOL    HW175081   1.925   9.831   2.779
91083SOL    HW275082   1.837   9.723   2.720
91084SOL     OW75083   5.908  14.239  14.647
91084SOL    HW175084   5.867  14.158  14.617
91084SOL    HW275085   5.860  14.262  14.727
91085SOL     OW75086   6.700   6.631   0.339
91085SOL    HW175087   6.658   6.700   0.390
91085SOL    HW275088   6.764   6.591   0.399
91086SOL     OW75089   3.176  12.552   9.391
91086SOL    HW175090   3.247  12.493   9.417
91086SOL    HW275091   3.102  12.494   9.372
91087SOL     OW75092   1.610   6.665   2.926
91087SOL    HW175093   1.594   6.686   3.018
91087SOL    HW275094   1.660   6.584   2.929
91088SOL     OW75095  11.832   7.753  13.452
91088SOL    HW175096  11.831   7.832  13.399
91088SOL    HW275097  11.843   7.682  13.389
91089SOL     OW75098   6.050   8.428   7.927
91089SOL    HW175099   6.068   8.522   7.936
91089SOL    HW275100   6.022   8.417   7.836
91090SOL     OW75101   5.562   4.252   7.277
91090SOL    HW175102   5.521   4.256   7.190
91090SOL    HW275103   5.620   4.329   7.280
91091SOL     OW75104   5.453  12.862   1.771
91091SOL    HW175105   5.422  12.858   1.861
91091SOL    HW275106   5.480  12.773   1.751
91092SOL     OW75107   0.145   2.906  10.749
91092SOL    HW175108   0.235   2.897  10.718
91092SOL    HW275109   0.112   2.984  10.704
91093SOL     OW75110  10.116  11.925  14.560
91093SOL    HW175111  10.094  12.018  14.568
91093SOL    HW275112  10.188  11.912  14.623
91094SOL     OW75113  12.066   9.953   8.612
91094SOL    HW175114  12.018   9.933   8.691
91094SOL    HW275115  12.063   9.873   8.560
91095SOL     OW75116  12.507   9.498   7.020
91095SOL    HW175117  12.601   9.507   7.036
91095SOL    HW275118  12.485   9.413   7.059
91096SOL     OW75119   1.310   8.539   3.632
91096SOL    HW175120   1.306   8.529   3.537
91096SOL    HW275121   1.248   8.473   3.665
91097SOL     OW75122   9.246  11.073  12.086
91097SOL    HW175123   9.169  11.127  12.101
91097SOL    HW275124   9.213  10.983  12.084
91098SOL     OW75125   6.707  11.044   4.138
91098SOL    HW175126   6.612  11.034   4.130
91098SOL    HW275127   6.743  10.978   4.078
91099SOL     OW75128   8.688   1.104   3.327
91099SOL    HW175129   8.602   1.108   3.285
91099SOL    HW275130   8.729   1.188   3.305
91100SOL     OW75131   4.056   5.741   9.242
91100SOL    HW175132   4.007   5.695   9.310
91100SOL    HW275133   4.104   5.673   9.196
91101SOL     OW75134   9.488   4.458  12.454
91101SOL    HW175135   9.567   4.408  12.475
91101SOL    HW275136   9.460   4.495  12.538
91102SOL     OW75137  14.173  10.834  13.179
91102SOL    HW175138  14.254  10.838  13.129
91102SOL    HW275139  14.154  10.740  13.187
91103SOL     OW75140  10.411   5.927   6.434
91103SOL    HW175141  10.484   5.981   6.463
91103SOL    HW275142  10.403   5.945   6.341
91104SOL     OW75143   5.708  11.773   5.830
91104SOL    HW175144   5.703  11.684   5.864
91104SOL    HW275145   5.707  11.763   5.735
91105SOL     OW75146   1.079  14.803  12.166
91105SOL    HW175147   0.989  14.775  12.181
91105SOL    HW275148   1.072  14.878  12.107
91106SOL     OW75149   8.527  10.663   9.429
91106SOL    HW175150   8.616  10.657   9.462
91106SOL    HW275151   8.532  10.631   9.339
91107SOL     OW75152  10.426  14.568   3.489
91107SOL    HW175153  10.498  14.557   3.427
91107SOL    HW275154  10.351  14.527   3.447
91108SOL     OW75155   0.676   5.356   7.356
91108SOL    HW175156   0.710   5.287   7.298
91108SOL    HW275157   0.721   5.435   7.327
91109SOL     OW75158  11.371   8.850   5.995
91109SOL    HW175159  11.304   8.898   5.947
91109SOL    HW275160  11.384   8.769   5.946
91110SOL     OW75161  12.243   4.060   7.994
91110SOL    HW175162  12.332   4.093   7.991
91110SOL    HW275163  12.228   4.022   7.907
91111SOL     OW75164   0.511  13.073  10.744
91111SOL    HW175165   0.474  13.151  10.784
91111SOL    HW275166   0.463  13.000  10.785
91112SOL     OW75167   2.215   0.061  12.625
91112SOL    HW175168   2.309   0.060  12.609
91112SOL    HW275169   2.205   0.025  12.713
91113SOL     OW75170   6.656   6.907   4.061
91113SOL    HW175171   6.563   6.926   4.075
91113SOL    HW275172   6.657   6.836   3.998
91114SOL     OW75173   1.814  12.397   8.509
91114SOL    HW175174   1.775  12.313   8.532
91114SOL    HW275175   1.822  12.444   8.592
91115SOL     OW75176   5.196   9.656   5.648
91115SOL    HW175177   5.125   9.602   5.615
91115SOL    HW275178   5.153   9.734   5.684
91116SOL     OW75179  14.663   6.986   6.314
91116SOL    HW175180  14.699   6.989   6.226
91116SOL    HW275181  14.629   6.898   6.324
91117SOL     OW75182   0.479   0.715   4.925
91117SOL    HW175183   0.521   0.653   4.866
91117SOL    HW275184   0.449   0.662   4.999
91118SOL     OW75185   9.745   6.843   7.296
91118SOL    HW175186   9.704   6.882   7.373
91118SOL    HW275187   9.705   6.756   7.288
91119SOL     OW75188   6.711   4.929   2.810
91119SOL    HW175189   6.775   4.999   2.814
91119SOL    HW275190   6.734   4.880   2.731
91120SOL     OW75191   5.144   1.386   8.746
91120SOL    HW175192   5.111   1.344   8.667
91120SOL    HW275193   5.093   1.467   8.753
91121SOL     OW75194  10.273   9.463  14.711
91121SOL    HW175195  10.200   9.509  14.670
91121SOL    HW275196  10.351   9.511  14.681
91122SOL     OW75197   9.072   0.573  13.484
91122SOL    HW175198   9.161   0.559  13.452
91122SOL    HW275199   9.016   0.535  13.416
91123SOL     OW75200  11.794   9.905   5.731
91123SOL    HW175201  11.778   9.828   5.784
91123SOL    HW275202  11.884   9.930   5.752
91124SOL     OW75203  13.518   5.917  14.211
91124SOL    HW175204  13.596   5.911  14.265
91124SOL    HW275205  13.539   5.866  14.133
91125SOL     OW75206   1.129  14.194   9.391
91125SOL    HW175207   1.041  14.225   9.372
91125SOL    HW275208   1.137  14.201   9.486
91126SOL     OW75209  12.862  11.469   2.749
91126SOL    HW175210  12.820  11.556   2.751
91126SOL    HW275211  12.955  11.488   2.759
91127SOL     OW75212   7.666  11.075  14.419
91127SOL    HW175213   7.702  10.987  14.416
91127SOL    HW275214   7.659  11.095  14.513
91128SOL     OW75215  13.751  12.845  13.315
91128SOL    HW175216  13.721  12.841  13.225
91128SOL    HW275217  13.835  12.798  13.314
91129SOL     OW75218   1.132   6.158   5.396
91129SOL    HW175219   1.080   6.177   5.474
91129SOL    HW275220   1.147   6.244   5.357
91130SOL     OW75221   9.620  13.151  12.052
91130SOL    HW175222   9.650  13.242  12.052
91130SOL    HW275223   9.676  13.108  11.987
91131SOL     OW75224  12.207  14.522  13.969
91131SOL    HW175225  12.184  14.547  14.059
91131SOL    HW275226  12.290  14.567  13.953
91132SOL     OW75227   8.730  13.792   4.035
91132SOL    HW175228   8.818  13.755   4.047
91132SOL    HW275229   8.691  13.786   4.122
91133SOL     OW75230  11.858   7.963   0.934
91133SOL    HW175231  11.924   7.945   0.867
91133SOL    HW275232  11.836   7.877   0.969
91134SOL     OW75233  13.361   9.963   8.090
91134SOL    HW175234  13.327  10.038   8.041
91134SOL    HW275235  13.325   9.973   8.178
91135SOL     OW75236  11.293   2.410   9.271
91135SOL    HW175237  11.301   2.464   9.192
91135SOL    HW275238  11.210   2.439   9.311
91136SOL     OW75239   7.780   0.123  14.853
91136SOL    HW175240   7.744   0.211  14.840
91136SOL    HW275241   7.721   0.082   0.034
91137SOL     OW75242   9.762   6.359   7.172
91137SOL    HW175243   9.692   6.303   7.202
91137SOL    HW275244   9.729   6.448   7.185
91138SOL     OW75245   9.013   4.019   4.843
91138SOL    HW175246   9.061   4.098   4.820
91138SOL    HW275247   9.081   3.952   4.854
91139SOL     OW75248   0.318  12.686  11.180
91139SOL    HW175249   0.404  12.717  11.208
91139SOL    HW275250   0.272  12.665  11.262
91140SOL     OW75251   3.915   7.230   8.932
91140SOL    HW175252   4.002   7.257   8.962
91140SOL    HW275253   3.859   7.239   9.010
91141SOL     OW75254   5.825  12.039   5.067
91141SOL    HW175255   5.784  12.108   5.119
91141SOL    HW275256   5.756  11.975   5.053
91142SOL     OW75257  14.781  14.391   3.886
91142SOL    HW175258  14.696  14.432   3.905
91142SOL    HW275259  14.842  14.465   3.881
91143SOL     OW75260   7.957   4.166   8.228
91143SOL    HW175261   7.877   4.185   8.279
91143SOL    HW275262   7.963   4.071   8.230
91144SOL     OW75263  14.110   2.175   9.067
91144SOL    HW175264  14.196   2.216   9.063
91144SOL    HW275265  14.109   2.129   9.151
91145SOL     OW75266   9.151  10.230   0.528
91145SOL    HW175267   9.243  10.216   0.504
91145SOL    HW275268   9.114  10.141   0.532
91146SOL     OW75269   5.388  13.616   5.880
91146SOL    HW175270   5.420  13.628   5.969
91146SOL    HW275271   5.442  13.674   5.827
91147SOL     OW75272   7.555  11.376  12.085
91147SOL    HW175273   7.558  11.405  12.176
91147SOL    HW275274   7.476  11.417  12.050
91148SOL     OW75275  11.053   5.492  13.948
91148SOL    HW175276  11.087   5.467  14.034
91148SOL    HW275277  11.123   5.472  13.887
91149SOL     OW75278  11.583   6.818   6.803
91149SOL    HW175279  11.524   6.820   6.879
91149SOL    HW275280  11.671   6.816   6.841
91150SOL     OW75281   3.919   9.932  12.364
91150SOL    HW175282   3.942   9.848  12.404
91150SOL    HW275283   3.959   9.929  12.277
91151SOL     OW75284   4.300   8.230   2.336
91151SOL    HW175285   4.214   8.196   2.312
91151SOL    HW275286   4.325   8.182   2.415
91152SOL     OW75287   5.910  11.489  12.394
91152SOL    HW175288   5.867  11.558  12.343
91152SOL    HW275289   5.839  11.433  12.424
91153SOL     OW75290   8.996   2.740   1.399
91153SOL    HW175291   8.928   2.673   1.386
91153SOL    HW275292   8.997   2.790   1.317
91154SOL     OW75293   0.334   1.428   6.516
91154SOL    HW175294   0.290   1.476   6.446
91154SOL    HW275295   0.276   1.354   6.535
91155SOL     OW75296   3.859   6.091   5.457
91155SOL    HW175297   3.919   6.023   5.486
91155SOL    HW275298   3.779   6.077   5.508
91156SOL     OW75299   8.213   2.858   3.945
91156SOL    HW175300   8.303   2.837   3.919
91156SOL    HW275301   8.186   2.926   3.883
91157SOL     OW75302   8.612   7.006   7.377
91157SOL    HW175303   8.680   6.999   7.310
91157SOL    HW275304   8.589   7.099   7.378
91158SOL     OW75305  14.691  12.098  10.707
91158SOL    HW175306  14.627  12.044  10.660
91158SOL    HW275307  14.697  12.178  10.656
91159SOL     OW75308  13.179  11.988   6.281
91159SOL    HW175309  13.206  11.925   6.347
91159SOL    HW275310  13.218  11.955   6.200
91160SOL     OW75311   3.266  11.563  13.550
91160SOL    HW175312   3.285  11.632  13.486
91160SOL    HW275313   3.265  11.482  13.499
91161SOL     OW75314  11.491   3.464   3.184
91161SOL    HW175315  11.453   3.405   3.249
91161SOL    HW275316  11.510   3.409   3.109
91162SOL     OW75317   8.704  13.101   8.566
91162SOL    HW175318   8.698  13.024   8.623
91162SOL    HW275319   8.792  13.135   8.580
91163SOL     OW75320   2.974   2.896   7.736
91163SOL    HW175321   3.053   2.926   7.780
91163SOL    HW275322   2.991   2.914   7.643
91164SOL     OW75323   1.253   4.989   0.302
91164SOL    HW175324   1.210   4.952   0.379
91164SOL    HW275325   1.216   4.941   0.228
91165SOL     OW75326  12.675   7.637   8.372
91165SOL    HW175327  12.698   7.717   8.324
91165SOL    HW275328  12.599   7.602   8.325
91166SOL     OW75329   5.588   7.607   3.188
91166SOL    HW175330   5.593   7.702   3.178
91166SOL    HW275331   5.525   7.593   3.258
91167SOL     OW75332   5.582   1.513   9.549
91167SOL    HW175333   5.633   1.522   9.468
91167SOL    HW275334   5.497   1.481   9.519
91168SOL     OW75335   8.361   9.503   6.109
91168SOL    HW175336   8.444   9.455   6.106
91168SOL    HW275337   8.343   9.527   6.018
91169SOL     OW75338   1.181  10.325  12.004
91169SOL    HW175339   1.246  10.279  12.056
91169SOL    HW275340   1.206  10.306  11.913
91170SOL     OW75341  14.051   7.354  12.064
91170SOL    HW175342  14.085   7.270  12.094
91170SOL    HW275343  14.127   7.411  12.060
91171SOL     OW75344   7.393  11.207   8.697
91171SOL    HW175345   7.311  11.255   8.683
91171SOL    HW275346   7.441  11.259   8.761
91172SOL     OW75347   6.768   2.440   8.372
91172SOL    HW175348   6.700   2.397   8.322
91172SOL    HW275349   6.811   2.370   8.421
91173SOL     OW75350   8.487  14.770   4.309
91173SOL    HW175351   8.430  14.830   4.358
91173SOL    HW275352   8.573  14.783   4.348
91174SOL     OW75353  11.289   9.360  13.966
91174SOL    HW175354  11.295   9.450  13.934
91174SOL    HW275355  11.284   9.306  13.886
91175SOL     OW75356  10.397   2.846   5.384
91175SOL    HW175357  10.449   2.774   5.349
91175SOL    HW275358  10.441   2.925   5.352
91176SOL     OW75359   5.098   5.076   0.104
91176SOL    HW175360   5.124   5.010   0.168
91176SOL    HW275361   5.179   5.102   0.062
91177SOL     OW75362   3.938   9.168  12.694
91177SOL    HW175363   3.982   9.178  12.778
91177SOL    HW275364   3.845   9.172  12.715
91178SOL     OW75365  14.592  11.461   6.409
91178SOL    HW175366  14.675  11.465   6.360
91178SOL    HW275367  14.538  11.401   6.358
91179SOL     OW75368   9.889  10.216   7.809
91179SOL    HW175369   9.804  10.176   7.826
91179SOL    HW275370   9.949  10.142   7.801
91180SOL     OW75371   2.588   1.513   1.592
91180SOL    HW175372   2.501   1.475   1.584
91180SOL    HW275373   2.614   1.494   1.682
91181SOL     OW75374   7.120   7.925   9.749
91181SOL    HW175375   7.045   7.955   9.697
91181SOL    HW275376   7.167   8.006   9.771
91182SOL     OW75377   9.279   8.239   2.435
91182SOL    HW175378   9.238   8.247   2.349
91182SOL    HW275379   9.220   8.287   2.494
91183SOL     OW75380   1.647   6.034   9.464
91183SOL    HW175381   1.628   5.944   9.491
91183SOL    HW275382   1.634   6.086   9.543
91184SOL     OW75383   3.821  10.213   7.756
91184SOL    HW175384   3.841  10.222   7.849
91184SOL    HW275385   3.798  10.121   7.745
91185SOL     OW75386   7.364   2.820   6.852
91185SOL    HW175387   7.318   2.903   6.867
91185SOL    HW275388   7.302   2.753   6.878
91186SOL     OW75389   3.311  12.689   2.021
91186SOL    HW175390   3.342  12.724   1.938
91186SOL    HW275391   3.389  12.655   2.064
91187SOL     OW75392   6.713  12.509   4.043
91187SOL    HW175393   6.711  12.529   4.136
91187SOL    HW275394   6.754  12.586   4.003
91188SOL     OW75395   3.642  11.304   6.916
91188SOL    HW175396   3.556  11.316   6.956
91188SOL    HW275397   3.675  11.392   6.900
91189SOL     OW75398   1.170   7.177  14.546
91189SOL    HW175399   1.250   7.224  14.522
91189SOL    HW275400   1.139   7.138  14.464
91190SOL     OW75401  12.926   3.298   9.776
91190SOL    HW175402  12.988   3.224   9.779
91190SOL    HW275403  12.928   3.333   9.865
91191SOL     OW75404   5.032   6.350   4.592
91191SOL    HW175405   5.095   6.399   4.539
91191SOL    HW275406   5.037   6.389   4.679
91192SOL     OW75407   6.255   2.006   7.057
91192SOL    HW175408   6.189   2.041   6.996
91192SOL    HW275409   6.298   1.937   7.007
91193SOL     OW75410   2.732  14.420   7.079
91193SOL    HW175411   2.758  14.345   7.132
91193SOL    HW275412   2.637  14.423   7.086
91194SOL     OW75413   7.637  13.597   3.808
91194SOL    HW175414   7.636  13.548   3.725
91194SOL    HW275415   7.545  13.601   3.834
91195SOL     OW75416   8.907  12.247   9.748
91195SOL    HW175417   8.953  12.326   9.718
91195SOL    HW275418   8.945  12.176   9.697
91196SOL     OW75419   4.912  12.192   4.630
91196SOL    HW175420   4.820  12.220   4.630
91196SOL    HW275421   4.946  12.219   4.715
91197SOL     OW75422   1.865   9.788   1.292
91197SOL    HW175423   1.957   9.763   1.293
91197SOL    HW275424   1.827   9.742   1.367
91198SOL     OW75425   1.558  13.413  13.628
91198SOL    HW175426   1.602  13.343  13.677
91198SOL    HW275427   1.584  13.399  13.537
91199SOL     OW75428  12.217   2.951   9.831
91199SOL    HW175429  12.294   2.982   9.783
91199SOL    HW275430  12.252   2.890   9.896
91200SOL     OW75431   5.380  13.752   6.744
91200SOL    HW175432   5.320  13.741   6.671
91200SOL    HW275433   5.404  13.844   6.742
91201SOL     OW75434  12.422  11.654   3.182
91201SOL    HW175435  12.349  11.639   3.242
91201SOL    HW275436  12.473  11.724   3.224
91202SOL     OW75437   5.158  12.178   9.857
91202SOL    HW175438   5.183  12.235   9.784
91202SOL    HW275439   5.130  12.238   9.926
91203SOL     OW75440   9.783   5.532   8.006
91203SOL    HW175441   9.795   5.484   8.087
91203SOL    HW275442   9.775   5.464   7.939
91204SOL     OW75443   1.396   1.084  14.100
91204SOL    HW175444   1.384   1.130  14.183
91204SOL    HW275445   1.322   1.023  14.095
91205SOL     OW75446   8.518   8.002   4.863
91205SOL    HW175447   8.424   8.001   4.845
91205SOL    HW275448   8.525   8.036   4.953
91206SOL     OW75449  12.811   0.827  11.607
91206SOL    HW175450  12.750   0.836  11.534
91206SOL    HW275451  12.817   0.732  11.622
91207SOL     OW75452   0.201   4.928  14.112
91207SOL    HW175453   0.144   5.001  14.090
91207SOL    HW275454   0.288   4.968  14.121
91208SOL     OW75455   5.219   2.713   1.397
91208SOL    HW175456   5.127   2.733   1.417
91208SOL    HW275457   5.262   2.798   1.395
91209SOL     OW75458   0.481   4.821   3.396
91209SOL    HW175459   0.454   4.866   3.316
91209SOL    HW275460   0.453   4.879   3.467
91210SOL     OW75461   8.561   1.937   4.086
91210SOL    HW175462   8.491   1.988   4.127
91210SOL    HW275463   8.611   2.001   4.035
91211SOL     OW75464  13.396   9.597   0.859
91211SOL    HW175465  13.325   9.628   0.803
91211SOL    HW275466  13.415   9.672   0.916
91212SOL     OW75467   3.867   8.746  11.841
91212SOL    HW175468   3.786   8.707  11.873
91212SOL    HW275469   3.853   8.757  11.746
91213SOL     OW75470   0.703  12.605  10.561
91213SOL    HW175471   0.720  12.535  10.499
91213SOL    HW275472   0.608  12.616  10.560
91214SOL     OW75473  10.057   0.268   7.099
91214SOL    HW175474   9.987   0.334   7.099
91214SOL    HW275475  10.130   0.311   7.054
91215SOL     OW75476   0.667  10.646  11.230
91215SOL    HW175477   0.586  10.635  11.181
91215SOL    HW275478   0.646  10.711  11.297
91216SOL     OW75479   5.550   3.781  10.916
91216SOL    HW175480   5.561   3.689  10.942
91216SOL    HW275481   5.561   3.780  10.821
91217SOL     OW75482   7.220  10.037   8.889
91217SOL    HW175483   7.178  10.002   8.967
91217SOL    HW275484   7.160  10.017   8.817
91218SOL     OW75485   8.137  12.114   3.992
91218SOL    HW175486   8.048  12.102   3.959
91218SOL    HW275487   8.187  12.041   3.955
91219SOL     OW75488   4.120   7.455  12.300
91219SOL    HW175489   4.170   7.516  12.356
91219SOL    HW275490   4.181   7.431  12.230
91220SOL     OW75491   7.589   7.499   3.473
91220SOL    HW175492   7.509   7.525   3.519
91220SOL    HW275493   7.637   7.446   3.536
91221SOL     OW75494   6.289   2.601  12.591
91221SOL    HW175495   6.316   2.663  12.658
91221SOL    HW275496   6.209   2.638  12.555
91222SOL     OW75497  13.995   4.390   1.402
91222SOL    HW175498  14.029   4.444   1.474
91222SOL    HW275499  13.900   4.403   1.406
91223SOL     OW75500   2.365  13.021  11.721
91223SOL    HW175501   2.381  13.014  11.816
91223SOL    HW275502   2.367  12.930  11.691
91224SOL     OW75503   7.661  14.144   8.136
91224SOL    HW175504   7.566  14.151   8.143
91224SOL    HW275505   7.683  14.193   8.056
91225SOL     OW75506  11.362   3.123   2.188
91225SOL    HW175507  11.431   3.182   2.157
91225SOL    HW275508  11.363   3.132   2.283
91226SOL     OW75509   2.779   4.472   6.241
91226SOL    HW175510   2.692   4.455   6.205
91226SOL    HW275511   2.839   4.454   6.168
91227SOL     OW75512  13.725   8.118  11.174
91227SOL    HW175513  13.647   8.095  11.226
91227SOL    HW275514  13.737   8.044  11.114
91228SOL     OW75515   5.535  12.100   1.550
91228SOL    HW175516   5.478  12.076   1.623
91228SOL    HW275517   5.621  12.111   1.590
91229SOL     OW75518  12.831   4.219   1.344
91229SOL    HW175519  12.769   4.246   1.411
91229SOL    HW275520  12.798   4.136   1.311
91230SOL     OW75521   7.593   2.291  13.037
91230SOL    HW175522   7.516   2.298  13.093
91230SOL    HW275523   7.666   2.273  13.097
91231SOL     OW75524  14.108   8.363   8.087
91231SOL    HW175525  14.161   8.333   8.161
91231SOL    HW275526  14.122   8.457   8.083
91232SOL     OW75527   7.175   1.042  10.325
91232SOL    HW175528   7.097   1.051  10.381
91232SOL    HW275529   7.166   1.112  10.261
91233SOL     OW75530  14.774   4.939  10.140
91233SOL    HW175531  14.780   4.844  10.128
91233SOL    HW275532  14.858   4.963  10.179
91234SOL     OW75533  11.264   7.928   5.976
91234SOL    HW175534  11.307   7.881   6.048
91234SOL    HW275535  11.316   8.007   5.965
91235SOL     OW75536   1.301  10.650   7.571
91235SOL    HW175537   1.327  10.600   7.649
91235SOL    HW275538   1.377  10.646   7.513
91236SOL     OW75539  11.435   9.146   0.166
91236SOL    HW175540  11.429   9.225   0.112
91236SOL    HW275541  11.459   9.179   0.253
91237SOL     OW75542   7.506  11.924  12.530
91237SOL    HW175543   7.516  11.830  12.513
91237SOL    HW275544   7.468  11.959  12.448
91238SOL     OW75545   3.283  12.382   6.314
91238SOL    HW175546   3.236  12.347   6.238
91238SOL    HW275547   3.372  12.397   6.282
91239SOL     OW75548   5.570  10.685  11.628
91239SOL    HW175549   5.504  10.753  11.634
91239SOL    HW275550   5.637  10.721  11.570
91240SOL     OW75551  12.511   4.937   1.639
91240SOL    HW175552  12.568   4.892   1.702
91240SOL    HW275553  12.427   4.947   1.684
91241SOL     OW75554   1.483   1.727   3.237
91241SOL    HW175555   1.467   1.796   3.302
91241SOL    HW275556   1.579   1.717   3.236
91242SOL     OW75557   6.316   5.433   6.063
91242SOL    HW175558   6.311   5.389   5.978
91242SOL    HW275559   6.409   5.428   6.087
91243SOL     OW75560   2.281   7.421  14.042
91243SOL    HW175561   2.197   7.377  14.027
91243SOL    HW275562   2.264   7.479  14.116
91244SOL     OW75563   3.057   4.087  14.657
91244SOL    HW175564   3.083   4.056  14.571
91244SOL    HW275565   3.101   4.172  14.667
91245SOL     OW75566   1.581   2.434   6.315
91245SOL    HW175567   1.597   2.443   6.221
91245SOL    HW275568   1.669   2.427   6.353
91246SOL     OW75569  14.072  10.134   4.225
91246SOL    HW175570  14.138  10.126   4.156
91246SOL    HW275571  14.111  10.192   4.289
91247SOL     OW75572   6.474  11.953  10.518
91247SOL    HW175573   6.556  11.951  10.566
91247SOL    HW275574   6.458  12.046  10.501
91248SOL     OW75575   0.146   6.717   0.008
91248SOL    HW175576   0.125   6.650  14.826
91248SOL    HW275577   0.234   6.695   0.038
91249SOL     OW75578   4.457   5.968   7.206
91249SOL    HW175579   4.368   6.003   7.206
91249SOL    HW275580   4.446   5.873   7.211
91250SOL     OW75581   3.738   8.471  13.986
91250SOL    HW175582   3.702   8.498  14.071
91250SOL    HW275583   3.738   8.376  13.989
91251SOL     OW75584   9.069   3.273   1.801
91251SOL    HW175585   9.040   3.339   1.738
91251SOL    HW275586   9.007   3.280   1.874
91252SOL     OW75587   9.846   5.109   3.915
91252SOL    HW175588   9.865   5.116   4.009
91252SOL    HW275589   9.873   5.193   3.878
91253SOL     OW75590   5.471   7.007  11.163
91253SOL    HW175591   5.433   7.012  11.251
91253SOL    HW275592   5.482   6.913  11.147
91254SOL     OW75593   7.252   1.619   3.735
91254SOL    HW175594   7.158   1.602   3.741
91254SOL    HW275595   7.278   1.584   3.650
91255SOL     OW75596   2.618  14.123   0.383
91255SOL    HW175597   2.570  14.040   0.374
91255SOL    HW275598   2.556  14.189   0.351
91256SOL     OW75599   6.134   7.440  11.130
91256SOL    HW175600   6.130   7.450  11.225
91256SOL    HW275601   6.210   7.384  11.115
91257SOL     OW75602  10.080   5.769   0.708
91257SOL    HW175603  10.114   5.774   0.797
91257SOL    HW275604  10.039   5.854   0.693
91258SOL     OW75605   7.639  11.113   5.290
91258SOL    HW175606   7.573  11.091   5.356
91258SOL    HW275607   7.638  11.039   5.230
91259SOL     OW75608   0.730   4.599   8.079
91259SOL    HW175609   0.800   4.646   8.035
91259SOL    HW275610   0.755   4.599   8.171
91260SOL     OW75611  10.674   4.265   9.299
91260SOL    HW175612  10.584   4.258   9.330
91260SOL    HW275613  10.728   4.247   9.376
91261SOL     OW75614  13.568  14.100  11.254
91261SOL    HW175615  13.646  14.150  11.276
91261SOL    HW275616  13.596  14.008  11.262
91262SOL     OW75617   2.337   5.368  14.362
91262SOL    HW175618   2.359   5.279  14.389
91262SOL    HW275619   2.419   5.417  14.373
91263SOL     OW75620  14.770  11.650  13.019
91263SOL    HW175621  14.724  11.659  12.935
91263SOL    HW275622  14.850  11.603  12.998
91264SOL     OW75623  12.335  13.507  13.276
91264SOL    HW175624  12.337  13.495  13.371
91264SOL    HW275625  12.362  13.422  13.241
91265SOL     OW75626   2.304   6.877  11.312
91265SOL    HW175627   2.230   6.847  11.260
91265SOL    HW275628   2.325   6.964  11.278
91266SOL     OW75629   5.268   5.522   0.846
91266SOL    HW175630   5.301   5.445   0.892
91266SOL    HW275631   5.174   5.507   0.837
91267SOL     OW75632   6.177  12.412   6.958
91267SOL    HW175633   6.268  12.441   6.959
91267SOL    HW275634   6.167  12.366   6.875
91268SOL     OW75635   2.662  13.938   3.157
91268SOL    HW175636   2.752  13.964   3.136
91268SOL    HW275637   2.661  13.843   3.145
91269SOL     OW75638   0.411  10.062   0.703
91269SOL    HW175639   0.335  10.098   0.658
91269SOL    HW275640   0.460  10.139   0.733
91270SOL     OW75641  10.758   6.882   5.626
91270SOL    HW175642  10.687   6.917   5.680
91270SOL    HW275643  10.782   6.800   5.668
91271SOL     OW75644   0.815   0.854   2.688
91271SOL    HW175645   0.887   0.818   2.740
91271SOL    HW275646   0.851   0.933   2.648
91272SOL     OW75647   3.828   1.168   5.463
91272SOL    HW175648   3.765   1.229   5.423
91272SOL    HW275649   3.775   1.115   5.523
91273SOL     OW75650   0.997   4.753  13.062
91273SOL    HW175651   1.077   4.704  13.083
91273SOL    HW275652   0.967   4.716  12.979
91274SOL     OW75653  10.844  10.714   6.134
91274SOL    HW175654  10.784  10.645   6.105
91274SOL    HW275655  10.812  10.739   6.221
91275SOL     OW75656   6.746   7.312   2.459
91275SOL    HW175657   6.759   7.308   2.364
91275SOL    HW275658   6.692   7.235   2.479
91276SOL     OW75659   7.258  13.276  10.443
91276SOL    HW175660   7.340  13.325  10.444
91276SOL    HW275661   7.273  13.207  10.378
91277SOL     OW75662  10.888   3.658   4.028
91277SOL    HW175663  10.870   3.689   4.117
91277SOL    HW275664  10.949   3.585   4.039
91278SOL     OW75665  14.659   2.505  10.000
91278SOL    HW175666  14.742   2.552   9.999
91278SOL    HW275667  14.681   2.417  10.030
91279SOL     OW75668  11.486  13.215   5.676
91279SOL    HW175669  11.464  13.142   5.734
91279SOL    HW275670  11.515  13.284   5.735
91280SOL     OW75671   4.258   9.719   0.742
91280SOL    HW175672   4.240   9.675   0.660
91280SOL    HW275673   4.183   9.777   0.756
91281SOL     OW75674   5.694   8.872   8.631
91281SOL    HW175675   5.603   8.848   8.616
91281SOL    HW275676   5.717   8.926   8.556
91282SOL     OW75677   3.339  11.651   8.090
91282SOL    HW175678   3.427  11.670   8.122
91282SOL    HW275679   3.352  11.615   8.002
91283SOL     OW75680   6.718   4.442  12.235
91283SOL    HW175681   6.695   4.454  12.327
91283SOL    HW275682   6.812   4.462  12.232
91284SOL     OW75683  12.301   0.252  13.484
91284SOL    HW175684  12.300   0.226  13.576
91284SOL    HW275685  12.256   0.181  13.439
91285SOL     OW75686   5.444   0.266  11.722
91285SOL    HW175687   5.355   0.298  11.730
91285SOL    HW275688   5.477   0.307  11.642
91286SOL     OW75689   4.526   9.201  14.486
91286SOL    HW175690   4.520   9.205  14.581
91286SOL    HW275691   4.445   9.158  14.458
91287SOL     OW75692  13.210   6.297   7.392
91287SOL    HW175693  13.168   6.273   7.309
91287SOL    HW275694  13.213   6.393   7.390
91288SOL     OW75695  10.321   7.462   8.096
91288SOL    HW175696  10.351   7.534   8.151
91288SOL    HW275697  10.366   7.473   8.013
91289SOL     OW75698  14.691  10.945   1.278
91289SOL    HW175699  14.691  11.014   1.212
91289SOL    HW275700  14.709  10.865   1.229
91290SOL     OW75701   0.451  10.191  13.409
91290SOL    HW175702   0.513  10.257  13.378
91290SOL    HW275703   0.424  10.144  13.330
91291SOL     OW75704   8.678   2.624   6.894
91291SOL    HW175705   8.641   2.653   6.978
91291SOL    HW275706   8.669   2.700   6.837
91292SOL     OW75707   5.812  14.834   2.915
91292SOL    HW175708   5.897  14.849   2.874
91292SOL    HW275709   5.828  14.846   3.009
91293SOL     OW75710   2.040   4.502   2.403
91293SOL    HW175711   2.093   4.524   2.326
91293SOL    HW275712   2.009   4.586   2.436
91294SOL     OW75713   8.038   2.420  14.859
91294SOL    HW175714   8.016   2.482   0.047
91294SOL    HW275715   8.131   2.434  14.842
91295SOL     OW75716   4.365   3.237   3.594
91295SOL    HW175717   4.400   3.186   3.521
91295SOL    HW275718   4.413   3.320   3.591
91296SOL     OW75719   2.893   1.343   7.758
91296SOL    HW175720   2.799   1.330   7.746
91296SOL    HW275721   2.902   1.434   7.785
91297SOL     OW75722  11.983   4.199   1.133
91297SOL    HW175723  12.067   4.213   1.088
91297SOL    HW275724  11.958   4.286   1.164
91298SOL     OW75725   2.047   1.114   6.070
91298SOL    HW175726   2.034   1.097   5.977
91298SOL    HW275727   2.138   1.088   6.086
91299SOL     OW75728   7.428   1.928   0.607
91299SOL    HW175729   7.420   1.841   0.569
91299SOL    HW275730   7.458   1.913   0.696
91300SOL     OW75731   8.449  10.522   1.565
91300SOL    HW175732   8.374  10.581   1.558
91300SOL    HW275733   8.495  10.532   1.481
91301SOL     OW75734   6.318   1.573  13.431
91301SOL    HW175735   6.225   1.548  13.426
91301SOL    HW275736   6.349   1.568  13.340
91302SOL     OW75737   8.650  12.832  10.360
91302SOL    HW175738   8.679  12.748  10.395
91302SOL    HW275739   8.556  12.820  10.344
91303SOL     OW75740   3.008  14.465   7.156
91303SOL    HW175741   2.923  14.436   7.123
91303SOL    HW275742   3.006  14.443   7.249
91304SOL     OW75743   4.795  10.635   4.190
91304SOL    HW175744   4.744  10.692   4.133
91304SOL    HW275745   4.846  10.695   4.245
91305SOL     OW75746   8.971   0.316   6.036
91305SOL    HW175747   8.974   0.221   6.040
91305SOL    HW275748   8.881   0.336   6.008
91306SOL     OW75749  13.469   4.514  12.960
91306SOL    HW175750  13.400   4.580  12.966
91306SOL    HW275751  13.537   4.555  12.907
91307SOL     OW75752  14.372  11.545   2.748
91307SOL    HW175753  14.337  11.459   2.770
91307SOL    HW275754  14.389  11.541   2.654
91308SOL     OW75755   8.375   6.556   7.850
91308SOL    HW175756   8.354   6.513   7.933
91308SOL    HW275757   8.325   6.507   7.785
91309SOL     OW75758   4.412   1.119  13.964
91309SOL    HW175759   4.463   1.200  13.968
91309SOL    HW275760   4.365   1.124  13.881
91310SOL     OW75761   8.516  10.981   5.229
91310SOL    HW175762   8.446  10.965   5.293
91310SOL    HW275763   8.486  11.057   5.180
91311SOL     OW75764  13.885  12.625   9.381
91311SOL    HW175765  13.815  12.679   9.417
91311SOL    HW275766  13.966  12.663   9.416
91312SOL     OW75767   3.300   8.016   8.421
91312SOL    HW175768   3.303   7.991   8.514
91312SOL    HW275769   3.236   8.087   8.418
91313SOL     OW75770   9.869   9.097   1.931
91313SOL    HW175771   9.790   9.104   1.985
91313SOL    HW275772   9.859   9.165   1.865
91314SOL     OW75773   0.454   9.022   6.517
91314SOL    HW175774   0.548   9.040   6.525
91314SOL    HW275775   0.422   9.087   6.454
91315SOL     OW75776   2.601   5.872   7.796
91315SOL    HW175777   2.627   5.957   7.833
91315SOL    HW275778   2.611   5.883   7.702
91316SOL     OW75779   7.351   1.107  12.605
91316SOL    HW175780   7.353   1.093  12.510
91316SOL    HW275781   7.443   1.117  12.630
91317SOL     OW75782   1.799  14.794   4.090
91317SOL    HW175783   1.714  14.838   4.086
91317SOL    HW275784   1.832  14.814   4.177
91318SOL     OW75785   3.138  13.877   3.338
91318SOL    HW175786   3.183  13.882   3.422
91318SOL    HW275787   3.066  13.816   3.353
91319SOL     OW75788   6.702   9.083   8.156
91319SOL    HW175789   6.736   9.105   8.242
91319SOL    HW275790   6.655   9.161   8.128
91320SOL     OW75791   8.734   9.167   7.589
91320SOL    HW175792   8.758   9.243   7.536
91320SOL    HW275793   8.642   9.152   7.570
91321SOL     OW75794   8.753   1.679   6.774
91321SOL    HW175795   8.726   1.697   6.864
91321SOL    HW275796   8.675   1.695   6.722
91322SOL     OW75797  12.021  12.099   9.091
91322SOL    HW175798  11.973  12.016   9.095
91322SOL    HW275799  11.954  12.165   9.075
91323SOL     OW75800   1.118   8.474  11.304
91323SOL    HW175801   1.076   8.430  11.230
91323SOL    HW275802   1.135   8.404  11.367
91324SOL     OW75803   7.928  11.350   3.349
91324SOL    HW175804   7.978  11.335   3.268
91324SOL    HW275805   7.985  11.318   3.418
91325SOL     OW75806   7.995   7.588   3.202
91325SOL    HW175807   8.034   7.622   3.122
91325SOL    HW275808   7.901   7.588   3.185
91326SOL     OW75809  13.237  11.070   8.283
91326SOL    HW175810  13.145  11.065   8.258
91326SOL    HW275811  13.284  11.071   8.199
91327SOL     OW75812  10.777  11.193   4.656
91327SOL    HW175813  10.724  11.136   4.601
91327SOL    HW275814  10.753  11.282   4.630
91328SOL     OW75815   7.093  10.875   3.185
91328SOL    HW175816   7.103  10.944   3.119
91328SOL    HW275817   7.042  10.915   3.255
91329SOL     OW75818   1.706   4.122  13.297
91329SOL    HW175819   1.766   4.103  13.224
91329SOL    HW275820   1.749   4.087  13.374
91330SOL     OW75821   4.800   3.991   8.063
91330SOL    HW175822   4.766   4.039   7.987
91330SOL    HW275823   4.847   3.917   8.026
91331SOL     OW75824   9.929   3.595  12.324
91331SOL    HW175825   9.862   3.654  12.359
91331SOL    HW275826  10.004   3.605  12.382
91332SOL     OW75827  13.375   6.929   9.618
91332SOL    HW175828  13.369   6.856   9.679
91332SOL    HW275829  13.469   6.942   9.605
91333SOL     OW75830   5.219   9.735   3.659
91333SOL    HW175831   5.221   9.640   3.673
91333SOL    HW275832   5.213   9.745   3.564
91334SOL     OW75833   4.760   3.624  14.673
91334SOL    HW175834   4.801   3.567  14.738
91334SOL    HW275835   4.771   3.577  14.590
91335SOL     OW75836  13.920   0.902  11.701
91335SOL    HW175837  13.939   0.865  11.788
91335SOL    HW275838  14.006   0.923  11.665
91336SOL     OW75839   5.853   2.964  14.746
91336SOL    HW175840   5.827   2.882  14.787
91336SOL    HW275841   5.799   3.030  14.788
91337SOL     OW75842  13.651   0.781   6.797
91337SOL    HW175843  13.681   0.764   6.708
91337SOL    HW275844  13.703   0.856   6.826
91338SOL     OW75845   0.559  12.249   2.646
91338SOL    HW175846   0.628  12.315   2.642
91338SOL    HW275847   0.478  12.299   2.638
91339SOL     OW75848   1.399  12.538   1.346
91339SOL    HW175849   1.434  12.552   1.258
91339SOL    HW275850   1.448  12.599   1.402
91340SOL     OW75851  13.538   7.890   5.271
91340SOL    HW175852  13.618   7.857   5.228
91340SOL    HW275853  13.537   7.984   5.251
91341SOL     OW75854   8.253   0.661  12.131
91341SOL    HW175855   8.241   0.572  12.100
91341SOL    HW275856   8.189   0.713  12.083
91342SOL     OW75857   2.727  11.577  13.728
91342SOL    HW175858   2.664  11.567  13.657
91342SOL    HW275859   2.808  11.602  13.684
91343SOL     OW75860  12.304   2.454   3.073
91343SOL    HW175861  12.360   2.389   3.114
91343SOL    HW275862  12.333   2.456   2.981
91344SOL     OW75863   9.960  14.240   2.267
91344SOL    HW175864   9.987  14.219   2.357
91344SOL    HW275865   9.947  14.155   2.225
91345SOL     OW75866  10.486  13.029  12.017
91345SOL    HW175867  10.546  12.976  12.069
91345SOL    HW275868  10.399  13.003  12.045
91346SOL     OW75869   9.389   8.265   9.971
91346SOL    HW175870   9.306   8.298   9.937
91346SOL    HW275871   9.401   8.311  10.054
91347SOL     OW75872   5.774   8.956   3.658
91347SOL    HW175873   5.821   8.947   3.741
91347SOL    HW275874   5.765   8.867   3.625
91348SOL     OW75875   6.009  10.910   4.917
91348SOL    HW175876   6.009  10.990   4.971
91348SOL    HW275877   5.932  10.862   4.946
91349SOL     OW75878   6.496  11.340  14.529
91349SOL    HW175879   6.588  11.362  14.517
91349SOL    HW275880   6.485  11.257  14.482
91350SOL     OW75881   2.906   3.039  12.845
91350SOL    HW175882   2.984   3.094  12.856
91350SOL    HW275883   2.940   2.953  12.822
91351SOL     OW75884   2.453   3.576   1.206
91351SOL    HW175885   2.405   3.494   1.213
91351SOL    HW275886   2.545   3.550   1.202
91352SOL     OW75887  12.513  11.483   5.295
91352SOL    HW175888  12.600  11.482   5.334
91352SOL    HW275889  12.527  11.458   5.204
91353SOL     OW75890   2.631  11.015   9.232
91353SOL    HW175891   2.582  11.020   9.314
91353SOL    HW275892   2.721  11.001   9.259
91354SOL     OW75893   8.654   4.355   9.725
91354SOL    HW175894   8.626   4.442   9.699
91354SOL    HW275895   8.574   4.302   9.727
91355SOL     OW75896   2.034   5.763   5.597
91355SOL    HW175897   1.957   5.735   5.549
91355SOL    HW275898   2.029   5.858   5.599
91356SOL     OW75899  13.670  13.047   5.169
91356SOL    HW175900  13.719  13.102   5.230
91356SOL    HW275901  13.736  13.010   5.111
91357SOL     OW75902  13.331  11.479   2.197
91357SOL    HW175903  13.319  11.523   2.282
91357SOL    HW275904  13.246  11.487   2.154
91358SOL     OW75905  13.396  10.534   8.345
91358SOL    HW175906  13.379  10.628   8.348
91358SOL    HW275907  13.367  10.502   8.430
91359SOL     OW75908   4.591   5.401   5.222
91359SOL    HW175909   4.591   5.428   5.130
91359SOL    HW275910   4.522   5.335   5.228
91360SOL     OW75911   9.341   4.066   3.642
91360SOL    HW175912   9.387   4.079   3.559
91360SOL    HW275913   9.382   4.128   3.702
91361SOL     OW75914   6.721  13.238  13.546
91361SOL    HW175915   6.816  13.241  13.536
91361SOL    HW275916   6.688  13.301  13.481
91362SOL     OW75917  11.241   0.642   2.010
91362SOL    HW175918  11.247   0.718   2.069
91362SOL    HW275919  11.205   0.678   1.929
91363SOL     OW75920  10.467   6.498   3.669
91363SOL    HW175921  10.406   6.488   3.743
91363SOL    HW275922  10.517   6.577   3.689
91364SOL     OW75923   8.473   5.245  14.598
91364SOL    HW175924   8.535   5.179  14.567
91364SOL    HW275925   8.387   5.206  14.583
91365SOL     OW75926   5.152   3.455   0.296
91365SOL    HW175927   5.140   3.446   0.201
91365SOL    HW275928   5.065   3.478   0.328
91366SOL     OW75929   2.524   5.352  13.105
91366SOL    HW175930   2.539   5.436  13.150
91366SOL    HW275931   2.595   5.347  13.041
91367SOL     OW75932   9.563  11.676  14.186
91367SOL    HW175933   9.634  11.647  14.128
91367SOL    HW275934   9.548  11.768  14.162
91368SOL     OW75935  13.393  10.421   5.551
91368SOL    HW175936  13.426  10.380   5.630
91368SOL    HW275937  13.448  10.386   5.481
91369SOL     OW75938   0.937   3.060  13.635
91369SOL    HW175939   0.966   3.018  13.554
91369SOL    HW275940   0.853   3.100  13.612
91370SOL     OW75941  12.836  11.486  10.457
91370SOL    HW175942  12.754  11.444  10.434
91370SOL    HW275943  12.900  11.415  10.458
91371SOL     OW75944   0.810  13.316   0.851
91371SOL    HW175945   0.819  13.270   0.934
91371SOL    HW275946   0.897  13.351   0.832
91372SOL     OW75947   1.869   1.059   0.211
91372SOL    HW175948   1.960   1.048   0.182
91372SOL    HW275949   1.850   1.152   0.199
91373SOL     OW75950   1.890   8.800  14.018
91373SOL    HW175951   1.894   8.751  14.100
91373SOL    HW275952   1.909   8.735  13.951
91374SOL     OW75953  10.879   9.821  11.733
91374SOL    HW175954  10.784   9.812  11.738
91374SOL    HW275955  10.911   9.731  11.724
91375SOL     OW75956   0.138   9.116   2.425
91375SOL    HW175957   0.228   9.103   2.456
91375SOL    HW275958   0.083   9.092   2.499
91376SOL     OW75959  12.264   2.384  13.740
91376SOL    HW175960  12.244   2.300  13.781
91376SOL    HW275961  12.291   2.440  13.812
91377SOL     OW75962  10.484  10.105  14.384
91377SOL    HW175963  10.406  10.054  14.365
91377SOL    HW275964  10.554  10.060  14.336
91378SOL     OW75965   2.544   7.266   5.920
91378SOL    HW175966   2.571   7.209   5.992
91378SOL    HW275967   2.475   7.321   5.956
91379SOL     OW75968   1.112  12.449  13.944
91379SOL    HW175969   1.168  12.466  14.021
91379SOL    HW275970   1.174  12.440  13.872
91380SOL     OW75971  11.922   3.764   3.439
91380SOL    HW175972  11.904   3.680   3.397
91380SOL    HW275973  11.852   3.822   3.408
91381SOL     OW75974   8.771   8.554   8.941
91381SOL    HW175975   8.830   8.621   8.975
91381SOL    HW275976   8.697   8.602   8.905
91382SOL     OW75977  14.352   1.583  12.065
91382SOL    HW175978  14.344   1.495  12.102
91382SOL    HW275979  14.401   1.570  11.984
91383SOL     OW75980  13.528   1.383  11.202
91383SOL    HW175981  13.472   1.349  11.132
91383SOL    HW275982  13.481   1.362  11.283
91384SOL     OW75983  11.947   3.150   9.858
91384SOL    HW175984  11.924   3.128   9.948
91384SOL    HW275985  12.005   3.226   9.866
91385SOL     OW75986  12.274   4.799   1.173
91385SOL    HW175987  12.213   4.840   1.112
91385SOL    HW275988  12.361   4.822   1.141
91386SOL     OW75989   1.030  12.726  14.686
91386SOL    HW175990   0.960  12.775  14.729
91386SOL    HW275991   1.027  12.639  14.725
91387SOL     OW75992   8.688   9.737  14.148
91387SOL    HW175993   8.620   9.792  14.186
91387SOL    HW275994   8.697   9.768  14.058
91388SOL     OW75995   2.234  11.519  13.883
91388SOL    HW175996   2.301  11.452  13.868
91388SOL    HW275997   2.243  11.542  13.975
91389SOL     OW75998  10.853   3.015  13.077
91389SOL    HW175999  10.857   3.068  12.998
91389SOL    HW276000  10.942   3.014  13.111
91390SOL     OW76001   2.917   8.608   2.069
91390SOL    HW176002   2.950   8.575   2.153
91390SOL    HW276003   2.990   8.658   2.033
91391SOL     OW76004   8.283  10.764  14.380
91391SOL    HW176005   8.332  10.689  14.413
91391SOL    HW276006   8.351  10.823  14.346
91392SOL     OW76007   7.950   1.164   7.746
91392SOL    HW176008   7.864   1.122   7.741
91392SOL    HW276009   7.947   1.212   7.829
91393SOL     OW76010   6.848  13.602   7.300
91393SOL    HW176011   6.862  13.696   7.313
91393SOL    HW276012   6.771  13.581   7.353
91394SOL     OW76013   2.201   1.119  10.515
91394SOL    HW176014   2.187   1.074  10.433
91394SOL    HW276015   2.262   1.063  10.563
91395SOL     OW76016   0.626   7.926  11.417
91395SOL    HW176017   0.707   7.972  11.394
91395SOL    HW276018   0.620   7.855  11.353
91396SOL     OW76019   6.432  12.431  12.996
91396SOL    HW176020   6.512  12.441  12.944
91396SOL    HW276021   6.423  12.515  13.042
91397SOL     OW76022   4.554   4.975  10.836
91397SOL    HW176023   4.538   4.966  10.930
91397SOL    HW276024   4.466   4.982  10.798
91398SOL     OW76025   3.292  13.615  11.382
91398SOL    HW176026   3.202  13.596  11.355
91398SOL    HW276027   3.289  13.707  11.411
91399SOL     OW76028   4.137   3.109   8.574
91399SOL    HW176029   4.125   3.171   8.646
91399SOL    HW276030   4.060   3.121   8.518
91400SOL     OW76031   4.636  11.965  14.747
91400SOL    HW176032   4.660  11.937  14.835
91400SOL    HW276033   4.542  11.983  14.752
91401SOL     OW76034   7.586   0.282   9.232
91401SOL    HW176035   7.556   0.265   9.322
91401SOL    HW276036   7.506   0.287   9.181
91402SOL     OW76037   4.151   3.504  14.569
91402SOL    HW176038   4.143   3.445  14.494
91402SOL    HW276039   4.061   3.527  14.590
91403SOL     OW76040   3.019   4.373   4.583
91403SOL    HW176041   2.973   4.392   4.664
91403SOL    HW276042   3.108   4.404   4.598
91404SOL     OW76043  10.405   1.555  14.520
91404SOL    HW176044  10.445   1.501  14.589
91404SOL    HW276045  10.438   1.644  14.538
91405SOL     OW76046   2.714   9.859   5.699
91405SOL    HW176047   2.758   9.806   5.633
91405SOL    HW276048   2.638   9.897   5.654
91406SOL     OW76049   1.181   4.278   3.101
91406SOL    HW176050   1.135   4.262   3.018
91406SOL    HW276051   1.167   4.198   3.152
91407SOL     OW76052   2.691   5.001   1.921
91407SOL    HW176053   2.599   4.986   1.944
91407SOL    HW276054   2.687   5.066   1.850
91408SOL     OW76055   9.324  10.935  11.448
91408SOL    HW176056   9.273  10.958  11.370
91408SOL    HW276057   9.385  11.007  11.458
91409SOL     OW76058   3.653  12.745   8.718
91409SOL    HW176059   3.647  12.778   8.808
91409SOL    HW276060   3.693  12.658   8.727
91410SOL     OW76061  11.783   2.646   2.562
91410SOL    HW176062  11.864   2.685   2.594
91410SOL    HW276063  11.740   2.716   2.513
91411SOL     OW76064  14.256   2.596   2.896
91411SOL    HW176065  14.188   2.623   2.834
91411SOL    HW276066  14.285   2.678   2.937
91412SOL     OW76067  10.056  12.567   6.512
91412SOL    HW176068  10.091  12.500   6.454
91412SOL    HW276069  10.109  12.560   6.591
91413SOL     OW76070  11.824   0.921   7.413
91413SOL    HW176071  11.887   0.992   7.399
91413SOL    HW276072  11.753   0.939   7.352
91414SOL     OW76073   5.256   7.772   8.614
91414SOL    HW176074   5.212   7.761   8.698
91414SOL    HW276075   5.209   7.714   8.554
91415SOL     OW76076   1.250  12.935  11.602
91415SOL    HW176077   1.179  12.935  11.537
91415SOL    HW276078   1.286  13.024  11.599
91416SOL     OW76079   3.919   0.349   5.982
91416SOL    HW176080   3.938   0.369   5.890
91416SOL    HW276081   3.921   0.434   6.026
91417SOL     OW76082   6.597   2.162   3.107
91417SOL    HW176083   6.535   2.098   3.141
91417SOL    HW276084   6.682   2.136   3.143
91418SOL     OW76085   8.581  12.489  12.611
91418SOL    HW176086   8.515  12.513  12.546
91418SOL    HW276087   8.660  12.472  12.560
91419SOL     OW76088   2.237   7.779   5.309
91419SOL    HW176089   2.225   7.806   5.218
91419SOL    HW276090   2.152   7.745   5.335
91420SOL     OW76091   3.273  11.095   3.941
91420SOL    HW176092   3.360  11.123   3.911
91420SOL    HW276093   3.290  11.039   4.017
91421SOL     OW76094  13.245   5.140  12.472
91421SOL    HW176095  13.186   5.204  12.433
91421SOL    HW276096  13.309   5.193  12.520
91422SOL     OW76097  10.970   3.347  10.039
91422SOL    HW176098  10.941   3.318   9.952
91422SOL    HW276099  11.005   3.435  10.024
91423SOL     OW76100   4.824   6.818   0.205
91423SOL    HW176101   4.884   6.891   0.222
91423SOL    HW276102   4.856   6.747   0.260
91424SOL     OW76103   2.506   9.903   7.772
91424SOL    HW176104   2.500   9.998   7.763
91424SOL    HW276105   2.571   9.889   7.840
91425SOL     OW76106   7.200  11.124   1.722
91425SOL    HW176107   7.183  11.095   1.633
91425SOL    HW276108   7.247  11.050   1.762
91426SOL     OW76109  10.817  10.946   9.123
91426SOL    HW176110  10.829  10.895   9.203
91426SOL    HW276111  10.732  10.987   9.133
91427SOL     OW76112  10.124  14.223  12.239
91427SOL    HW176113  10.191  14.256  12.299
91427SOL    HW276114  10.170  14.213  12.155
91428SOL     OW76115   6.197   7.731   2.965
91428SOL    HW176116   6.205   7.823   2.938
91428SOL    HW276117   6.104   7.720   2.985
91429SOL     OW76118   6.200   7.995   2.819
91429SOL    HW176119   6.145   8.010   2.741
91429SOL    HW276120   6.288   7.983   2.784
91430SOL     OW76121   2.678  14.470  11.907
91430SOL    HW176122   2.681  14.378  11.934
91430SOL    HW276123   2.750  14.478  11.844
91431SOL     OW76124   5.233  14.693   2.323
91431SOL    HW176125   5.328  14.704   2.332
91431SOL    HW276126   5.196  14.740   2.397
91432SOL     OW76127  12.763   9.350   8.019
91432SOL    HW176128  12.730   9.430   8.061
91432SOL    HW276129  12.828   9.316   8.080
91433SOL     OW76130   1.511   4.168  13.631
91433SOL    HW176131   1.507   4.190  13.724
91433SOL    HW276132   1.427   4.199  13.596
91434SOL     OW76133   2.350   4.440   4.710
91434SOL    HW176134   2.268   4.415   4.753
91434SOL    HW276135   2.367   4.368   4.649
91435SOL     OW76136   0.314   5.559   5.021
91435SOL    HW176137   0.248   5.617   5.058
91435SOL    HW276138   0.355   5.517   5.096
91436SOL     OW76139  13.101  10.832   1.185
91436SOL    HW176140  13.009  10.806   1.188
91436SOL    HW276141  13.140  10.775   1.119
91437SOL     OW76142  13.652   9.909   6.396
91437SOL    HW176143  13.565   9.908   6.436
91437SOL    HW276144  13.708   9.861   6.457
91438SOL     OW76145   4.397   3.386   8.714
91438SOL    HW176146   4.332   3.429   8.770
91438SOL    HW276147   4.412   3.448   8.643
91439SOL     OW76148   5.405  11.554  14.193
91439SOL    HW176149   5.365  11.542  14.107
91439SOL    HW276150   5.339  11.522  14.255
91440SOL     OW76151   7.153   5.605   3.611
91440SOL    HW176152   7.066   5.572   3.588
91440SOL    HW276153   7.169   5.570   3.698
91441SOL     OW76154   4.773   8.984   3.743
91441SOL    HW176155   4.846   8.972   3.804
91441SOL    HW276156   4.811   9.033   3.670
91442SOL     OW76157   9.572   1.296   9.354
91442SOL    HW176158   9.641   1.254   9.405
91442SOL    HW276159   9.619   1.347   9.287
91443SOL     OW76160  11.869  13.035   3.216
91443SOL    HW176161  11.937  12.970   3.204
91443SOL    HW276162  11.904  13.115   3.176
91444SOL     OW76163   0.480  12.012  11.370
91444SOL    HW176164   0.517  11.954  11.436
91444SOL    HW276165   0.387  11.989  11.366
91445SOL     OW76166  13.976  12.252   6.527
91445SOL    HW176167  13.921  12.247   6.449
91445SOL    HW276168  13.947  12.332   6.572
91446SOL     OW76169   6.888   2.306   5.877
91446SOL    HW176170   6.860   2.230   5.928
91446SOL    HW276171   6.978   2.285   5.852
91447SOL     OW76172   6.403  13.578   2.160
91447SOL    HW176173   6.462  13.570   2.234
91447SOL    HW276174   6.451  13.542   2.086
91448SOL     OW76175  10.703   7.564  10.867
91448SOL    HW176176  10.745   7.554  10.782
91448SOL    HW276177  10.613   7.592  10.846
91449SOL     OW76178  11.414   7.160   5.175
91449SOL    HW176179  11.391   7.101   5.247
91449SOL    HW276180  11.446   7.102   5.106
91450SOL     OW76181   3.985   8.987   1.220
91450SOL    HW176182   3.979   9.054   1.152
91450SOL    HW276183   4.078   8.983   1.242
91451SOL     OW76184  14.048   0.782  10.043
91451SOL    HW176185  14.020   0.860   9.995
91451SOL    HW276186  14.075   0.720   9.976
91452SOL     OW76187  13.208   2.260   6.485
91452SOL    HW176188  13.233   2.248   6.576
91452SOL    HW276189  13.193   2.171   6.452
91453SOL     OW76190  14.380   4.170  12.760
91453SOL    HW176191  14.375   4.093  12.703
91453SOL    HW276192  14.325   4.235  12.716
91454SOL     OW76193  10.812   9.515   9.440
91454SOL    HW176194  10.859   9.594   9.413
91454SOL    HW276195  10.784   9.475   9.357
91455SOL     OW76196   4.707   4.410  12.120
91455SOL    HW176197   4.712   4.506  12.117
91455SOL    HW276198   4.614   4.391  12.130
91456SOL     OW76199  13.237   1.718  12.963
91456SOL    HW176200  13.171   1.699  12.897
91456SOL    HW276201  13.268   1.806  12.943
91457SOL     OW76202   0.527  11.419   2.288
91457SOL    HW176203   0.549  11.331   2.259
91457SOL    HW276204   0.467  11.452   2.221
91458SOL     OW76205  14.678   0.360   5.914
91458SOL    HW176206  14.662   0.281   5.862
91458SOL    HW276207  14.601   0.414   5.900
91459SOL     OW76208   5.023  11.790   6.565
91459SOL    HW176209   5.022  11.745   6.650
91459SOL    HW276210   5.031  11.883   6.588
91460SOL     OW76211   7.247  11.849   5.447
91460SOL    HW176212   7.204  11.840   5.362
91460SOL    HW276213   7.198  11.919   5.490
91461SOL     OW76214   2.395   4.630   3.864
91461SOL    HW176215   2.425   4.543   3.835
91461SOL    HW276216   2.467   4.688   3.840
91462SOL     OW76217   4.496   9.318   3.291
91462SOL    HW176218   4.526   9.331   3.201
91462SOL    HW276219   4.567   9.270   3.333
91463SOL     OW76220   0.852   5.699   5.764
91463SOL    HW176221   0.761   5.706   5.793
91463SOL    HW276222   0.871   5.605   5.764
91464SOL     OW76223   1.155   0.045  10.278
91464SOL    HW176224   1.091   0.114  10.261
91464SOL    HW276225   1.153   0.034  10.373
91465SOL     OW76226  11.560  12.369   6.698
91465SOL    HW176227  11.477  12.412   6.716
91465SOL    HW276228  11.580  12.320   6.777
91466SOL     OW76229   1.514   8.423   5.539
91466SOL    HW176230   1.547   8.467   5.617
91466SOL    HW276231   1.507   8.492   5.474
91467SOL     OW76232   2.125  14.811   4.193
91467SOL    HW176233   2.120   0.018   4.158
91467SOL    HW276234   2.046  14.802   4.246
91468SOL     OW76235   1.857  13.323   8.683
91468SOL    HW176236   1.778  13.268   8.683
91468SOL    HW276237   1.828  13.405   8.644
91469SOL     OW76238  12.353   5.656   0.000
91469SOL    HW176239  12.392   5.726  14.830
91469SOL    HW276240  12.283   5.698   0.049
91470SOL     OW76241   1.588   3.306  12.905
91470SOL    HW176242   1.495   3.287  12.918
91470SOL    HW276243   1.592   3.401  12.895
91471SOL     OW76244   7.391   2.606  12.197
91471SOL    HW176245   7.369   2.643  12.112
91471SOL    HW276246   7.351   2.520  12.197
91472SOL     OW76247  12.571  11.219   7.168
91472SOL    HW176248  12.531  11.188   7.087
91472SOL    HW276249  12.497  11.237   7.227
91473SOL     OW76250  10.557  13.392  13.844
91473SOL    HW176251  10.562  13.437  13.928
91473SOL    HW276252  10.498  13.446  13.791
91474SOL     OW76253   6.295   2.029   8.683
91474SOL    HW176254   6.282   1.980   8.602
91474SOL    HW276255   6.296   2.121   8.655
91475SOL     OW76256  11.654   6.977  10.546
91475SOL    HW176257  11.709   6.960  10.622
91475SOL    HW276258  11.639   7.071  10.546
91476SOL     OW76259  10.941   3.919  14.003
91476SOL    HW176260  10.893   4.002  14.002
91476SOL    HW276261  10.996   3.925  14.081
91477SOL     OW76262   4.610   4.739   6.012
91477SOL    HW176263   4.599   4.668   5.949
91477SOL    HW276264   4.607   4.695   6.098
91478SOL     OW76265   8.414   2.244   5.535
91478SOL    HW176266   8.353   2.286   5.475
91478SOL    HW276267   8.475   2.314   5.560
91479SOL     OW76268   1.082  13.964  13.955
91479SOL    HW176269   1.152  13.979  14.019
91479SOL    HW276270   1.009  13.930  14.008
91480SOL     OW76271  13.836   8.576  12.161
91480SOL    HW176272  13.837   8.603  12.070
91480SOL    HW276273  13.837   8.658  12.211
91481SOL     OW76274  10.459  10.885   8.493
91481SOL    HW176275  10.426  10.964   8.535
91481SOL    HW276276  10.381  10.839   8.462
91482SOL     OW76277   4.111   8.885  11.186
91482SOL    HW176278   4.185   8.944  11.180
91482SOL    HW276279   4.131   8.814  11.125
91483SOL     OW76280  13.666   1.448   9.670
91483SOL    HW176281  13.643   1.499   9.747
91483SOL    HW276282  13.645   1.506   9.596
91484SOL     OW76283   5.432   0.091   9.275
91484SOL    HW176284   5.518   0.072   9.312
91484SOL    HW276285   5.447   0.165   9.216
91485SOL     OW76286   5.587   5.528   0.658
91485SOL    HW176287   5.508   5.548   0.609
91485SOL    HW276288   5.591   5.433   0.661
91486SOL     OW76289   3.132   1.504  14.062
91486SOL    HW176290   3.218   1.462  14.052
91486SOL    HW276291   3.152   1.596  14.075
91487SOL     OW76292   7.560   4.987   7.176
91487SOL    HW176293   7.495   4.925   7.209
91487SOL    HW276294   7.509   5.055   7.133
91488SOL     OW76295   6.570   3.213  14.708
91488SOL    HW176296   6.597   3.230  14.618
91488SOL    HW276297   6.646   3.170  14.748
91489SOL     OW76298   8.630  10.344   9.474
91489SOL    HW176299   8.573  10.406   9.520
91489SOL    HW276300   8.704  10.331   9.533
91490SOL     OW76301  10.738  11.144   1.453
91490SOL    HW176302  10.722  11.199   1.530
91490SOL    HW276303  10.810  11.187   1.407
91491SOL     OW76304   2.940   7.227   7.411
91491SOL    HW176305   2.850   7.247   7.385
91491SOL    HW276306   2.939   7.228   7.506
91492SOL     OW76307  13.210   3.735   4.256
91492SOL    HW176308  13.298   3.764   4.280
91492SOL    HW276309  13.206   3.745   4.161
91493SOL     OW76310  13.366   3.159  13.942
91493SOL    HW176311  13.318   3.241  13.932
91493SOL    HW276312  13.446   3.171  13.891
91494SOL     OW76313  11.275   5.493  12.259
91494SOL    HW176314  11.252   5.492  12.166
91494SOL    HW276315  11.347   5.431  12.267
91495SOL     OW76316  12.989   4.840   6.918
91495SOL    HW176317  12.914   4.891   6.887
91495SOL    HW276318  13.021   4.888   6.995
91496SOL     OW76319   5.366   6.979  11.451
91496SOL    HW176320   5.280   7.018  11.437
91496SOL    HW276321   5.365   6.949  11.541
91497SOL     OW76322   8.024   0.997   6.298
91497SOL    HW176323   7.942   0.964   6.259
91497SOL    HW276324   8.013   1.092   6.301
91498SOL     OW76325   3.978   9.443   5.314
91498SOL    HW176326   4.022   9.513   5.363
91498SOL    HW276327   4.045   9.375   5.305
91499SOL     OW76328  13.286   1.303  11.086
91499SOL    HW176329  13.293   1.389  11.044
91499SOL    HW276330  13.202   1.269  11.054
91500SOL     OW76331   7.860   1.016  12.552
91500SOL    HW176332   7.873   1.089  12.492
91500SOL    HW276333   7.828   0.945  12.496
91501SOL     OW76334  10.382   7.652  13.748
91501SOL    HW176335  10.377   7.588  13.677
91501SOL    HW276336  10.309   7.629  13.806
91502SOL     OW76337  12.587  13.291  11.752
91502SOL    HW176338  12.672  13.265  11.786
91502SOL    HW276339  12.532  13.213  11.760
91503SOL     OW76340   3.132   0.621   8.281
91503SOL    HW176341   3.047   0.584   8.304
91503SOL    HW276342   3.196   0.563   8.322
91504SOL     OW76343   4.862   8.771  14.735
91504SOL    HW176344   4.949   8.778  14.696
91504SOL    HW276345   4.866   8.823  14.815
91505SOL     OW76346   1.803   1.188  11.275
91505SOL    HW176347   1.732   1.204  11.212
91505SOL    HW276348   1.853   1.116  11.236
91506SOL     OW76349   8.919  14.019   2.164
91506SOL    HW176350   8.918  14.088   2.230
91506SOL    HW276351   8.857  14.049   2.097
91507SOL     OW76352  11.330   7.681  10.314
91507SOL    HW176353  11.272   7.606  10.306
91507SOL    HW276354  11.272   7.757  10.310
91508SOL     OW76355   6.006   7.752   0.611
91508SOL    HW176356   6.058   7.690   0.662
91508SOL    HW276357   6.038   7.742   0.521
91509SOL     OW76358   6.489   1.651   9.877
91509SOL    HW176359   6.521   1.739   9.896
91509SOL    HW276360   6.427   1.662   9.805
91510SOL     OW76361  14.722  14.719   8.863
91510SOL    HW176362  14.662  14.757   8.927
91510SOL    HW276363  14.740  14.791   8.802
91511SOL     OW76364   9.444   8.488   8.107
91511SOL    HW176365   9.394   8.445   8.176
91511SOL    HW276366   9.494   8.556   8.152
91512SOL     OW76367   7.496   6.724  12.401
91512SOL    HW176368   7.439   6.793  12.436
91512SOL    HW276369   7.535   6.683  12.478
91513SOL     OW76370   4.968   2.942   6.592
91513SOL    HW176371   5.029   2.874   6.562
91513SOL    HW276372   4.882   2.912   6.563
91514SOL     OW76373  10.096   1.622   9.448
91514SOL    HW176374  10.074   1.665   9.365
91514SOL    HW276375  10.167   1.562   9.426
91515SOL     OW76376   8.506   6.020   0.681
91515SOL    HW176377   8.566   5.947   0.666
91515SOL    HW276378   8.457   5.994   0.759
91516SOL     OW76379   3.739   6.944   8.418
91516SOL    HW176380   3.696   6.985   8.343
91516SOL    HW276381   3.755   6.854   8.391
91517SOL     OW76382   3.926  10.834  12.915
91517SOL    HW176383   3.988  10.794  12.977
91517SOL    HW276384   3.896  10.913  12.958
91518SOL     OW76385   8.548   6.687   9.817
91518SOL    HW176386   8.607   6.748   9.774
91518SOL    HW276387   8.597   6.605   9.820
91519SOL     OW76388  13.927   0.966   3.499
91519SOL    HW176389  13.894   0.973   3.589
91519SOL    HW276390  13.876   1.030   3.450
91520SOL     OW76391   6.691  13.025   7.452
91520SOL    HW176392   6.692  12.930   7.466
91520SOL    HW276393   6.607  13.053   7.488
91521SOL     OW76394   7.403   4.397   7.588
91521SOL    HW176395   7.375   4.350   7.509
91521SOL    HW276396   7.364   4.484   7.578
91522SOL     OW76397   6.332   2.603   2.677
91522SOL    HW176398   6.401   2.605   2.742
91522SOL    HW276399   6.251   2.609   2.727
91523SOL     OW76400  12.902  11.024   9.633
91523SOL    HW176401  12.853  11.102   9.661
91523SOL    HW276402  12.940  10.990   9.714
91524SOL     OW76403   6.595   5.720  11.939
91524SOL    HW176404   6.529   5.750  11.877
91524SOL    HW276405   6.674   5.770  11.917
91525SOL     OW76406   7.779  14.720  10.172
91525SOL    HW176407   7.841  14.649  10.157
91525SOL    HW276408   7.763  14.757  10.085
91526SOL     OW76409   4.034   7.885   4.528
91526SOL    HW176410   4.089   7.959   4.501
91526SOL    HW276411   4.015   7.902   4.620
91527SOL     OW76412   7.968  10.988  12.806
91527SOL    HW176413   7.990  11.081  12.797
91527SOL    HW276414   8.012  10.961  12.886
91528SOL     OW76415  12.706   5.362   5.304
91528SOL    HW176416  12.675   5.439   5.255
91528SOL    HW276417  12.663   5.370   5.389
91529SOL     OW76418   6.432   4.702  14.099
91529SOL    HW176419   6.517   4.694  14.141
91529SOL    HW276420   6.372   4.727  14.170
91530SOL     OW76421   7.040   4.546   9.358
91530SOL    HW176422   6.978   4.592   9.301
91530SOL    HW276423   7.120   4.541   9.306
91531SOL     OW76424   0.422   9.032   8.728
91531SOL    HW176425   0.363   9.046   8.802
91531SOL    HW276426   0.456   9.119   8.708
91532SOL     OW76427   0.385   9.626   2.244
91532SOL    HW176428   0.385   9.638   2.339
91532SOL    HW276429   0.418   9.537   2.231
91533SOL     OW76430  13.290   8.606   7.818
91533SOL    HW176431  13.377   8.613   7.779
91533SOL    HW276432  13.286   8.518   7.854
91534SOL     OW76433  11.058   1.443  12.631
91534SOL    HW176434  11.128   1.456  12.567
91534SOL    HW276435  10.977   1.456  12.580
91535SOL     OW76436  12.914  11.623  11.729
91535SOL    HW176437  12.977  11.614  11.657
91535SOL    HW276438  12.962  11.668  11.798
91536SOL     OW76439   5.863  10.831  12.983
91536SOL    HW176440   5.884  10.787  12.901
91536SOL    HW276441   5.922  10.905  12.987
91537SOL     OW76442   4.923   5.519   2.573
91537SOL    HW176443   4.995   5.583   2.572
91537SOL    HW276444   4.913   5.496   2.665
91538SOL     OW76445  11.890   2.741   6.229
91538SOL    HW176446  11.923   2.670   6.284
91538SOL    HW276447  11.801   2.757   6.261
91539SOL     OW76448  11.892  10.085   3.261
91539SOL    HW176449  11.862  10.161   3.311
91539SOL    HW276450  11.959  10.045   3.315
91540SOL     OW76451   4.109  11.725  11.749
91540SOL    HW176452   4.047  11.756  11.816
91540SOL    HW276453   4.110  11.795  11.683
91541SOL     OW76454   2.801  10.124   2.332
91541SOL    HW176455   2.789  10.147   2.240
91541SOL    HW276456   2.820  10.207   2.376
91542SOL     OW76457   4.082   0.892   4.947
91542SOL    HW176458   4.162   0.839   4.945
91542SOL    HW276459   4.020   0.842   4.895
91543SOL     OW76460  10.755   9.422   4.251
91543SOL    HW176461  10.746   9.329   4.232
91543SOL    HW276462  10.802   9.459   4.176
91544SOL     OW76463   7.848  13.820  12.673
91544SOL    HW176464   7.924  13.866  12.637
91544SOL    HW276465   7.819  13.876  12.745
91545SOL     OW76466   9.344  14.727  13.270
91545SOL    HW176467   9.431  14.724  13.310
91545SOL    HW276468   9.334  14.818  13.242
91546SOL     OW76469  11.774  13.259   0.990
91546SOL    HW176470  11.733  13.174   1.003
91546SOL    HW276471  11.867  13.240   0.979
91547SOL     OW76472   1.593  11.889  10.436
91547SOL    HW176473   1.504  11.864  10.459
91547SOL    HW276474   1.626  11.936  10.512
91548SOL     OW76475   2.348  14.830   9.274
91548SOL    HW176476   2.372  14.737   9.265
91548SOL    HW276477   2.272  14.829   9.333
91549SOL     OW76478   7.166   5.916   4.164
91549SOL    HW176479   7.175   6.007   4.136
91549SOL    HW276480   7.200   5.914   4.254
91550SOL     OW76481  14.261   8.705  12.303
91550SOL    HW176482  14.256   8.733  12.395
91550SOL    HW276483  14.275   8.611  12.307
91551SOL     OW76484   2.871   1.192  13.666
91551SOL    HW176485   2.897   1.155  13.750
91551SOL    HW276486   2.946   1.247  13.641
91552SOL     OW76487   7.414  14.643   0.721
91552SOL    HW176488   7.429  14.664   0.813
91552SOL    HW276489   7.319  14.644   0.710
91553SOL     OW76490  13.698   9.004   4.304
91553SOL    HW176491  13.733   9.073   4.360
91553SOL    HW276492  13.732   9.024   4.216
91554SOL     OW76493   9.254   5.555  14.067
91554SOL    HW176494   9.211   5.579  13.984
91554SOL    HW276495   9.189   5.574  14.134
91555SOL     OW76496   9.096   3.591   7.983
91555SOL    HW176497   9.184   3.626   7.979
91555SOL    HW276498   9.063   3.619   8.069
91556SOL     OW76499   7.602   6.050  12.605
91556SOL    HW176500   7.613   6.144  12.596
91556SOL    HW276501   7.508   6.037  12.615
91557SOL     OW76502   0.003   3.113   5.118
91557SOL    HW176503   0.003   3.089   5.211
91557SOL    HW276504  14.809   3.068   5.081
91558SOL     OW76505   4.130   9.209  11.886
91558SOL    HW176506   4.109   9.124  11.924
91558SOL    HW276507   4.072   9.217  11.810
91559SOL     OW76508  10.149   1.009  11.364
91559SOL    HW176509  10.091   0.933  11.358
91559SOL    HW276510  10.237   0.972  11.370
91560SOL     OW76511   2.899   3.525   9.996
91560SOL    HW176512   2.845   3.576  10.056
91560SOL    HW276513   2.987   3.530  10.033
91561SOL     OW76514   9.153   7.488  10.789
91561SOL    HW176515   9.237   7.455  10.819
91561SOL    HW276516   9.164   7.583  10.789
91562SOL     OW76517   5.105   0.397   3.132
91562SOL    HW176518   5.160   0.474   3.146
91562SOL    HW276519   5.130   0.366   3.044
91563SOL     OW76520   5.760   0.204   1.003
91563SOL    HW176521   5.842   0.208   1.053
91563SOL    HW276522   5.693   0.232   1.066
91564SOL     OW76523   9.922   7.932  13.374
91564SOL    HW176524   9.917   8.026  13.395
91564SOL    HW276525   9.921   7.889  13.460
91565SOL     OW76526   6.470   8.061  11.413
91565SOL    HW176527   6.404   7.998  11.442
91565SOL    HW276528   6.515   8.087  11.493
91566SOL     OW76529  14.201  11.478  10.397
91566SOL    HW176530  14.211  11.465  10.492
91566SOL    HW276531  14.262  11.416  10.357
91567SOL     OW76532   7.554   6.478   6.647
91567SOL    HW176533   7.616   6.504   6.715
91567SOL    HW276534   7.468   6.488   6.689
91568SOL     OW76535  11.397  12.172   8.334
91568SOL    HW176536  11.344  12.248   8.310
91568SOL    HW276537  11.401  12.119   8.254
91569SOL     OW76538   4.802   2.779   6.169
91569SOL    HW176539   4.739   2.848   6.149
91569SOL    HW276540   4.853   2.770   6.088
91570SOL     OW76541   0.030  11.725  13.292
91570SOL    HW176542   0.038  11.796  13.227
91570SOL    HW276543  14.876  11.768  13.370
91571SOL     OW76544   3.158   2.791   1.719
91571SOL    HW176545   3.221   2.860   1.699
91571SOL    HW276546   3.084   2.837   1.758
91572SOL     OW76547   7.674   8.251   1.749
91572SOL    HW176548   7.751   8.231   1.802
91572SOL    HW276549   7.624   8.169   1.747
91573SOL     OW76550   9.477   2.486   4.730
91573SOL    HW176551   9.443   2.572   4.757
91573SOL    HW276552   9.445   2.475   4.640
91574SOL     OW76553   6.757   4.932   7.448
91574SOL    HW176554   6.752   4.935   7.544
91574SOL    HW276555   6.710   4.853   7.424
91575SOL     OW76556  10.399   0.298   8.654
91575SOL    HW176557  10.337   0.264   8.590
91575SOL    HW276558  10.396   0.235   8.726
91576SOL     OW76559  13.587  14.810   3.006
91576SOL    HW176560  13.592   0.022   2.988
91576SOL    HW276561  13.605  14.768   2.922
91577SOL     OW76562  13.951   2.163   4.804
91577SOL    HW176563  13.985   2.110   4.732
91577SOL    HW276564  13.860   2.135   4.814
91578SOL     OW76565   7.989   0.966  13.090
91578SOL    HW176566   7.912   0.909  13.085
91578SOL    HW276567   8.056   0.921  13.038
91579SOL     OW76568  10.263  13.025   3.580
91579SOL    HW176569  10.259  13.038   3.674
91579SOL    HW276570  10.194  12.962   3.561
91580SOL     OW76571   4.906   1.100  14.698
91580SOL    HW176572   4.993   1.139  14.705
91580SOL    HW276573   4.855   1.165  14.650
91581SOL     OW76574   9.614   4.845   4.545
91581SOL    HW176575   9.652   4.757   4.538
91581SOL    HW276576   9.589   4.853   4.637
91582SOL     OW76577   9.210   0.438   1.862
91582SOL    HW176578   9.176   0.413   1.776
91582SOL    HW276579   9.304   0.453   1.847
91583SOL     OW76580   6.426  13.470   7.646
91583SOL    HW176581   6.515  13.441   7.666
91583SOL    HW276582   6.405  13.531   7.717
91584SOL     OW76583   8.217   0.893   5.184
91584SOL    HW176584   8.121   0.892   5.184
91584SOL    HW276585   8.241   0.807   5.219
91585SOL     OW76586   7.122  13.247  10.691
91585SOL    HW176587   7.165  13.254  10.606
91585SOL    HW276588   7.184  13.198  10.745
91586SOL     OW76589  11.615  13.062   3.272
91586SOL    HW176590  11.605  13.081   3.365
91586SOL    HW276591  11.709  13.069   3.256
91587SOL     OW76592   3.306   0.848   8.886
91587SOL    HW176593   3.216   0.869   8.862
91587SOL    HW276594   3.332   0.919   8.944
91588SOL     OW76595   9.051  11.693  10.321
91588SOL    HW176596   9.123  11.724  10.375
91588SOL    HW276597   9.091  11.665  10.239
91589SOL     OW76598   5.201  12.299   6.315
91589SOL    HW176599   5.292  12.313   6.288
91589SOL    HW276600   5.165  12.241   6.247
91590SOL     OW76601   5.850   7.381   0.678
91590SOL    HW176602   5.834   7.334   0.596
91590SOL    HW276603   5.763   7.400   0.712
91591SOL     OW76604   7.385   0.518   9.307
91591SOL    HW176605   7.437   0.588   9.345
91591SOL    HW276606   7.350   0.470   9.382
91592SOL     OW76607   6.014   2.299   3.569
91592SOL    HW176608   5.927   2.313   3.532
91592SOL    HW276609   6.064   2.376   3.543
91593SOL     OW76610  13.098   9.442   7.238
91593SOL    HW176611  13.118   9.379   7.169
91593SOL    HW276612  13.162   9.423   7.307
91594SOL     OW76613   6.196   3.706  10.948
91594SOL    HW176614   6.154   3.697  11.034
91594SOL    HW276615   6.124   3.717  10.887
91595SOL     OW76616   0.847   6.934   1.078
91595SOL    HW176617   0.867   7.002   1.142
91595SOL    HW276618   0.880   6.967   0.995
91596SOL     OW76619   3.907  10.344   3.124
91596SOL    HW176620   3.942  10.299   3.201
91596SOL    HW276621   3.906  10.278   3.055
91597SOL     OW76622  11.299  13.200   9.651
91597SOL    HW176623  11.389  13.182   9.624
91597SOL    HW276624  11.245  13.175   9.577
91598SOL     OW76625  13.028   6.555   0.658
91598SOL    HW176626  12.984   6.590   0.581
91598SOL    HW276627  13.043   6.463   0.636
91599SOL     OW76628   1.752   5.322   2.474
91599SOL    HW176629   1.675   5.279   2.512
91599SOL    HW276630   1.789   5.257   2.414
91600SOL     OW76631   8.758   1.493   7.936
91600SOL    HW176632   8.706   1.480   7.856
91600SOL    HW276633   8.848   1.480   7.909
91601SOL     OW76634   5.033  11.393   2.569
91601SOL    HW176635   4.984  11.356   2.496
91601SOL    HW276636   5.035  11.487   2.553
91602SOL     OW76637   9.018   9.334  14.407
91602SOL    HW176638   8.947   9.375  14.456
91602SOL    HW276639   9.030   9.391  14.331
91603SOL     OW76640   1.567  13.852   6.924
91603SOL    HW176641   1.552  13.940   6.957
91603SOL    HW276642   1.652  13.826   6.959
91604SOL     OW76643   2.993   9.276   2.254
91604SOL    HW176644   3.040   9.199   2.222
91604SOL    HW276645   2.919   9.285   2.194
91605SOL     OW76646  11.457  13.076   8.839
91605SOL    HW176647  11.552  13.080   8.827
91605SOL    HW276648  11.424  13.032   8.760
91606SOL     OW76649   3.634   1.482   2.814
91606SOL    HW176650   3.552   1.515   2.779
91606SOL    HW276651   3.608   1.423   2.885
91607SOL     OW76652  12.821   7.910   6.222
91607SOL    HW176653  12.915   7.925   6.219
91607SOL    HW276654  12.807   7.860   6.302
91608SOL     OW76655  13.961   6.437   1.181
91608SOL    HW176656  14.020   6.366   1.156
91608SOL    HW276657  13.938   6.479   1.098
91609SOL     OW76658   2.307   9.300  13.995
91609SOL    HW176659   2.316   9.369  13.929
91609SOL    HW276660   2.355   9.333  14.071
91610SOL     OW76661   1.398  13.249  10.413
91610SOL    HW176662   1.492  13.267  10.402
91610SOL    HW276663   1.384  13.258  10.507
91611SOL     OW76664   9.751   5.383  14.741
91611SOL    HW176665   9.704   5.462  14.714
91611SOL    HW276666   9.720   5.315  14.681
91612SOL     OW76667   1.967   4.261   2.847
91612SOL    HW176668   1.957   4.280   2.754
91612SOL    HW276669   1.934   4.339   2.891
91613SOL     OW76670   4.025  12.433  13.098
91613SOL    HW176671   3.950  12.476  13.058
91613SOL    HW276672   4.087  12.504  13.117
91614SOL     OW76673   0.774  13.976   6.492
91614SOL    HW176674   0.762  14.015   6.405
91614SOL    HW276675   0.746  13.885   6.481
91615SOL     OW76676   0.426   4.999   2.533
91615SOL    HW176677   0.459   4.911   2.552
91615SOL    HW276678   0.479   5.029   2.459
91616SOL     OW76679   8.837  10.562   5.335
91616SOL    HW176680   8.809  10.601   5.418
91616SOL    HW276681   8.873  10.635   5.285
91617SOL     OW76682   1.221  13.807   2.381
91617SOL    HW176683   1.128  13.808   2.358
91617SOL    HW276684   1.224  13.767   2.468
91618SOL     OW76685   8.731  12.256  10.736
91618SOL    HW176686   8.747  12.230  10.645
91618SOL    HW276687   8.766  12.184  10.788
91619SOL     OW76688   2.011   6.216  11.920
91619SOL    HW176689   2.085   6.164  11.888
91619SOL    HW276690   1.947   6.151  11.949
91620SOL     OW76691  11.494   9.268  10.903
91620SOL    HW176692  11.445   9.273  10.821
91620SOL    HW276693  11.581   9.298  10.881
91621SOL     OW76694   9.373   6.933   2.843
91621SOL    HW176695   9.449   6.876   2.850
91621SOL    HW276696   9.395   7.008   2.898
91622SOL     OW76697   1.103   4.449   1.972
91622SOL    HW176698   1.129   4.540   1.983
91622SOL    HW276699   1.147   4.403   2.043
91623SOL     OW76700   1.534   7.755   0.994
91623SOL    HW176701   1.493   7.781   1.076
91623SOL    HW276702   1.577   7.672   1.013
91624SOL     OW76703   8.514   1.266   8.256
91624SOL    HW176704   8.604   1.246   8.280
91624SOL    HW276705   8.512   1.257   8.160
91625SOL     OW76706   0.800  10.895  12.263
91625SOL    HW176707   0.791  10.885  12.168
91625SOL    HW276708   0.894  10.892  12.278
91626SOL     OW76709   9.895   8.748  12.342
91626SOL    HW176710   9.966   8.706  12.293
91626SOL    HW276711   9.941   8.809  12.400
91627SOL     OW76712   8.047  13.061   7.591
91627SOL    HW176713   7.979  13.123   7.564
91627SOL    HW276714   7.998  12.988   7.629
91628SOL     OW76715  11.264   1.595   9.881
91628SOL    HW176716  11.278   1.540   9.958
91628SOL    HW276717  11.334   1.661   9.886
91629SOL     OW76718   0.479   9.671   4.837
91629SOL    HW176719   0.498   9.765   4.833
91629SOL    HW276720   0.559   9.631   4.869
91630SOL     OW76721   3.931   2.806  10.897
91630SOL    HW176722   3.902   2.808  10.806
91630SOL    HW276723   3.893   2.726  10.932
91631SOL     OW76724  13.103  11.515  11.125
91631SOL    HW176725  13.169  11.582  11.141
91631SOL    HW276726  13.048  11.517  11.203
91632SOL     OW76727  13.755   7.734  14.396
91632SOL    HW176728  13.804   7.798  14.448
91632SOL    HW276729  13.666   7.736  14.433
91633SOL     OW76730   4.841  11.441   1.635
91633SOL    HW176731   4.841  11.375   1.566
91633SOL    HW276732   4.756  11.430   1.678
91634SOL     OW76733   9.672  10.752   4.947
91634SOL    HW176734   9.731  10.756   5.022
91634SOL    HW276735   9.626  10.836   4.948
91635SOL     OW76736  14.271  13.141   5.562
91635SOL    HW176737  14.317  13.218   5.596
91635SOL    HW276738  14.305  13.068   5.613
91636SOL     OW76739  11.657   0.091   2.956
91636SOL    HW176740  11.663   0.036   3.034
91636SOL    HW276741  11.706   0.043   2.889
91637SOL     OW76742   2.960   7.001  14.734
91637SOL    HW176743   2.935   7.026  14.823
91637SOL    HW276744   2.880   7.007  14.683
91638SOL     OW76745  12.998  13.771   1.203
91638SOL    HW176746  13.001  13.867   1.204
91638SOL    HW276747  13.051  13.744   1.278
91639SOL     OW76748   9.379   4.949   0.614
91639SOL    HW176749   9.431   4.934   0.535
91639SOL    HW276750   9.326   4.870   0.623
91640SOL     OW76751   1.006  11.881  13.069
91640SOL    HW176752   1.034  11.811  13.009
91640SOL    HW276753   0.923  11.911  13.033
91641SOL     OW76754   8.357  10.287  14.077
91641SOL    HW176755   8.300  10.350  14.034
91641SOL    HW276756   8.302  10.244  14.143
91642SOL     OW76757  10.214   6.451   0.028
91642SOL    HW176758  10.224   6.369  14.862
91642SOL    HW276759  10.141   6.435   0.088
91643SOL     OW76760   2.925   3.982  11.155
91643SOL    HW176761   2.952   4.060  11.203
91643SOL    HW276762   2.968   3.909  11.201
91644SOL     OW76763   7.795   8.350   0.954
91644SOL    HW176764   7.881   8.321   0.985
91644SOL    HW276765   7.795   8.332   0.860
91645SOL     OW76766  14.798  13.213  12.925
91645SOL    HW176767  14.875  13.167  12.891
91645SOL    HW276768  14.812  13.304  12.900
91646SOL     OW76769  12.082  11.012  12.838
91646SOL    HW176770  12.085  10.955  12.914
91646SOL    HW276771  12.056  10.955  12.766
91647SOL     OW76772   9.412  14.451   2.062
91647SOL    HW176773   9.404  14.418   1.973
91647SOL    HW276774   9.373  14.538   2.059
91648SOL     OW76775   3.096   4.746   1.696
91648SOL    HW176776   3.024   4.777   1.751
91648SOL    HW276777   3.175   4.778   1.739
91649SOL     OW76778   6.400   7.690   9.999
91649SOL    HW176779   6.409   7.623   9.931
91649SOL    HW276780   6.321   7.739   9.973
91650SOL     OW76781   3.685  12.709   1.899
91650SOL    HW176782   3.733  12.638   1.942
91650SOL    HW276783   3.747  12.782   1.897
91651SOL     OW76784   3.053   1.053  12.834
91651SOL    HW176785   3.086   1.087  12.917
91651SOL    HW276786   3.075   0.960  12.836
91652SOL     OW76787   5.751   8.509   4.116
91652SOL    HW176788   5.815   8.447   4.150
91652SOL    HW276789   5.794   8.550   4.041
91653SOL     OW76790  11.782   2.275   3.695
91653SOL    HW176791  11.726   2.352   3.687
91653SOL    HW276792  11.868   2.305   3.665
91654SOL     OW76793   3.842  12.325   9.694
91654SOL    HW176794   3.914  12.354   9.749
91654SOL    HW276795   3.765  12.371   9.727
91655SOL     OW76796   8.428  12.194   5.395
91655SOL    HW176797   8.416  12.282   5.431
91655SOL    HW276798   8.381  12.195   5.312
91656SOL     OW76799  12.788  12.945   5.801
91656SOL    HW176800  12.855  12.963   5.736
91656SOL    HW276801  12.793  13.019   5.862
91657SOL     OW76802   3.811  12.580   4.220
91657SOL    HW176803   3.827  12.672   4.237
91657SOL    HW276804   3.869  12.534   4.280
91658SOL     OW76805   2.017   1.796  12.815
91658SOL    HW176806   2.043   1.878  12.857
91658SOL    HW276807   2.099   1.759  12.781
91659SOL     OW76808   1.465   5.196   9.038
91659SOL    HW176809   1.510   5.208   9.121
91659SOL    HW276810   1.380   5.239   9.051
91660SOL     OW76811   9.342   0.550   1.184
91660SOL    HW176812   9.379   0.463   1.198
91660SOL    HW276813   9.334   0.587   1.271
91661SOL     OW76814  12.542  14.013   6.580
91661SOL    HW176815  12.493  14.085   6.621
91661SOL    HW276816  12.556  14.041   6.490
91662SOL     OW76817  13.906  13.032   5.035
91662SOL    HW176818  13.964  13.090   5.084
91662SOL    HW276819  13.966  12.970   4.993
91663SOL     OW76820  11.264   2.203   8.876
91663SOL    HW176821  11.304   2.207   8.789
91663SOL    HW276822  11.302   2.126   8.917
91664SOL     OW76823   0.673   2.141  10.733
91664SOL    HW176824   0.641   2.057  10.701
91664SOL    HW276825   0.727   2.175  10.661
91665SOL     OW76826  14.844  12.559   4.141
91665SOL    HW176827  14.758  12.577   4.104
91665SOL    HW276828   0.022  12.617   4.093
91666SOL     OW76829  11.232   2.097   2.962
91666SOL    HW176830  11.149   2.083   2.917
91666SOL    HW276831  11.211   2.155   3.035
91667SOL     OW76832   1.626  12.921   3.119
91667SOL    HW176833   1.702  12.885   3.166
91667SOL    HW276834   1.660  12.999   3.074
91668SOL     OW76835  14.681  11.496  10.388
91668SOL    HW176836  14.720  11.541  10.463
91668SOL    HW276837  14.642  11.417  10.425
91669SOL     OW76838   7.238   9.602  14.314
91669SOL    HW176839   7.154   9.576  14.276
91669SOL    HW276840   7.265   9.526  14.366
91670SOL     OW76841  12.000  10.493  12.973
91670SOL    HW176842  11.945  10.418  12.995
91670SOL    HW276843  12.050  10.464  12.896
91671SOL     OW76844   3.296  13.667   3.245
91671SOL    HW176845   3.237  13.739   3.269
91671SOL    HW276846   3.284  13.655   3.151
91672SOL     OW76847  10.243   2.960   2.626
91672SOL    HW176848  10.300   2.955   2.549
91672SOL    HW276849  10.155   2.943   2.591
91673SOL     OW76850  10.183   1.784   1.418
91673SOL    HW176851  10.255   1.815   1.473
91673SOL    HW276852  10.205   1.814   1.330
91674SOL     OW76853   3.508   0.787   0.047
91674SOL    HW176854   3.601   0.769   0.063
91674SOL    HW276855   3.493   0.754  14.840
91675SOL     OW76856   6.074  11.207  10.015
91675SOL    HW176857   6.109  11.130   9.970
91675SOL    HW276858   6.148  11.241  10.064
91676SOL     OW76859  11.830   3.333   1.497
91676SOL    HW176860  11.811   3.424   1.519
91676SOL    HW276861  11.771   3.282   1.554
91677SOL     OW76862   0.689  11.739  10.040
91677SOL    HW176863   0.650  11.813   9.995
91677SOL    HW276864   0.619  11.705  10.097
91678SOL     OW76865   1.394  13.980   2.179
91678SOL    HW176866   1.360  14.069   2.169
91678SOL    HW276867   1.338  13.940   2.246
91679SOL     OW76868   5.842  11.483   6.707
91679SOL    HW176869   5.921  11.442   6.742
91679SOL    HW276870   5.787  11.501   6.784
91680SOL     OW76871   6.271   1.106   4.860
91680SOL    HW176872   6.214   1.111   4.937
91680SOL    HW276873   6.258   1.189   4.815
91681SOL     OW76874   4.652   7.806   1.855
91681SOL    HW176875   4.633   7.720   1.818
91681SOL    HW276876   4.734   7.833   1.814
91682SOL     OW76877   7.003   7.542   9.395
91682SOL    HW176878   6.978   7.562   9.485
91682SOL    HW276879   7.085   7.590   9.382
91683SOL     OW76880   6.635  13.713   8.392
91683SOL    HW176881   6.731  13.715   8.401
91683SOL    HW276882   6.608  13.803   8.410
91684SOL     OW76883   5.399   6.601  12.749
91684SOL    HW176884   5.489   6.609  12.716
91684SOL    HW276885   5.348   6.659  12.693
91685SOL     OW76886  11.253  10.443   8.420
91685SOL    HW176887  11.230  10.530   8.453
91685SOL    HW276888  11.289  10.397   8.496
91686SOL     OW76889   4.186   9.013   8.900
91686SOL    HW176890   4.157   9.104   8.896
91686SOL    HW276891   4.151   8.980   8.982
91687SOL     OW76892   8.926   6.944  10.186
91687SOL    HW176893   8.981   6.889  10.242
91687SOL    HW276894   8.836   6.923  10.211
91688SOL     OW76895   8.411  12.771   2.108
91688SOL    HW176896   8.467  12.828   2.056
91688SOL    HW276897   8.402  12.692   2.055
91689SOL     OW76898   3.351  11.894   7.836
91689SOL    HW176899   3.416  11.884   7.766
91689SOL    HW276900   3.350  11.809   7.880
91690SOL     OW76901   3.772   2.545   5.933
91690SOL    HW176902   3.699   2.539   5.871
91690SOL    HW276903   3.731   2.528   6.018
91691SOL     OW76904  14.026  14.328  13.939
91691SOL    HW176905  14.002  14.293  13.853
91691SOL    HW276906  14.055  14.252  13.989
91692SOL     OW76907   7.144   3.596   0.431
91692SOL    HW176908   7.170   3.528   0.370
91692SOL    HW276909   7.224   3.613   0.482
91693SOL     OW76910   4.477   8.496   8.700
91693SOL    HW176911   4.446   8.587   8.707
91693SOL    HW276912   4.410   8.445   8.745
91694SOL     OW76913  12.898   9.326   9.720
91694SOL    HW176914  12.937   9.241   9.701
91694SOL    HW276915  12.911   9.377   9.640
91695SOL     OW76916  11.523  13.043   3.781
91695SOL    HW176917  11.465  12.970   3.800
91695SOL    HW276918  11.510  13.104   3.853
91696SOL     OW76919   2.515  11.185   0.965
91696SOL    HW176920   2.508  11.280   0.958
91696SOL    HW276921   2.424  11.155   0.967
91697SOL     OW76922   7.169  14.178   2.918
91697SOL    HW176923   7.166  14.112   2.987
91697SOL    HW276924   7.245  14.153   2.864
91698SOL     OW76925  11.654   8.682  12.728
91698SOL    HW176926  11.582   8.702  12.789
91698SOL    HW276927  11.627   8.720  12.645
91699SOL     OW76928   9.481   3.459   4.679
91699SOL    HW176929   9.528   3.537   4.648
91699SOL    HW276930   9.545   3.413   4.734
91700SOL     OW76931  13.061  11.557   3.921
91700SOL    HW176932  13.070  11.498   3.996
91700SOL    HW276933  13.098  11.640   3.951
91701SOL     OW76934  13.716   6.964   7.410
91701SOL    HW176935  13.715   6.967   7.505
91701SOL    HW276936  13.623   6.957   7.385
91702SOL     OW76937   6.095   4.099  13.946
91702SOL    HW176938   6.180   4.062  13.922
91702SOL    HW276939   6.059   4.036  14.009
91703SOL     OW76940   4.879   9.089   4.704
91703SOL    HW176941   4.888   9.165   4.646
91703SOL    HW276942   4.881   9.125   4.792
91704SOL     OW76943   7.953   2.511  12.947
91704SOL    HW176944   7.865   2.543  12.928
91704SOL    HW276945   7.991   2.492  12.861
91705SOL     OW76946  11.850   9.789   1.300
91705SOL    HW176947  11.935   9.828   1.318
91705SOL    HW276948  11.805   9.791   1.385
91706SOL     OW76949   9.094   3.371  11.473
91706SOL    HW176950   9.024   3.307  11.471
91706SOL    HW276951   9.174   3.319  11.465
91707SOL     OW76952   6.757   5.610   5.665
91707SOL    HW176953   6.718   5.691   5.699
91707SOL    HW276954   6.718   5.598   5.579
91708SOL     OW76955   3.372   9.230   9.620
91708SOL    HW176956   3.334   9.301   9.568
91708SOL    HW276957   3.464   9.252   9.628
91709SOL     OW76958   0.016   1.881  11.740
91709SOL    HW176959   0.057   1.967  11.730
91709SOL    HW276960  14.869   1.880  11.831
91710SOL     OW76961  10.744   2.144  12.112
91710SOL    HW176962  10.695   2.179  12.186
91710SOL    HW276963  10.825   2.110  12.150
91711SOL     OW76964  13.310   5.234  10.928
91711SOL    HW176965  13.218   5.210  10.943
91711SOL    HW276966  13.342   5.169  10.865
91712SOL     OW76967  13.873  10.974   9.046
91712SOL    HW176968  13.921  11.029   9.108
91712SOL    HW276969  13.781  10.995   9.062
91713SOL     OW76970   7.221   2.492   0.253
91713SOL    HW176971   7.248   2.416   0.201
91713SOL    HW276972   7.128   2.503   0.232
91714SOL     OW76973  14.179   1.730   7.879
91714SOL    HW176974  14.163   1.822   7.857
91714SOL    HW276975  14.098   1.700   7.920
91715SOL     OW76976   5.129   1.921   8.605
91715SOL    HW176977   5.076   1.997   8.580
91715SOL    HW276978   5.164   1.887   8.523
91716SOL     OW76979   8.768   6.806   9.459
91716SOL    HW176980   8.773   6.902   9.456
91716SOL    HW276981   8.696   6.784   9.401
91717SOL     OW76982   5.550   3.045  13.395
91717SOL    HW176983   5.561   2.953  13.419
91717SOL    HW276984   5.577   3.094  13.473
91718SOL     OW76985   8.559   9.504   8.593
91718SOL    HW176986   8.521   9.586   8.561
91718SOL    HW276987   8.586   9.458   8.513
91719SOL     OW76988   0.086   6.210   6.923
91719SOL    HW176989   0.031   6.190   6.847
91719SOL    HW276990   0.080   6.132   6.978
91720SOL     OW76991  10.859   4.975   7.175
91720SOL    HW176992  10.933   5.034   7.162
91720SOL    HW276993  10.849   4.969   7.271
91721SOL     OW76994   8.057   1.620  12.216
91721SOL    HW176995   8.136   1.604  12.266
91721SOL    HW276996   8.085   1.614  12.124
91722SOL     OW76997   0.911  12.524   0.973
91722SOL    HW176998   0.965  12.578   0.916
91722SOL    HW276999   0.833  12.578   0.989
91723SOL     OW77000   0.729  10.774   5.107
91723SOL    HW177001   0.706  10.681   5.109
91723SOL    HW277002   0.773  10.790   5.191
91724SOL     OW77003   0.349   0.077  11.354
91724SOL    HW177004   0.392   0.040  11.431
91724SOL    HW277005   0.421   0.105  11.297
91725SOL     OW77006   0.977  11.635   8.802
91725SOL    HW177007   0.941  11.547   8.808
91725SOL    HW277008   1.004  11.645   8.711
91726SOL     OW77009  13.319  13.442  12.291
91726SOL    HW177010  13.394  13.386  12.276
91726SOL    HW277011  13.256  13.387  12.338
91727SOL     OW77012   1.581   5.354  14.803
91727SOL    HW177013   1.491   5.319  14.803
91727SOL    HW277014   1.628   5.299  14.741
91728SOL     OW77015  11.536   0.622   2.565
91728SOL    HW177016  11.517   0.530   2.546
91728SOL    HW277017  11.630   0.625   2.580
91729SOL     OW77018   1.039  13.644   2.935
91729SOL    HW177019   0.999  13.558   2.921
91729SOL    HW277020   1.095  13.632   3.012
91730SOL     OW77021   5.320   0.747   1.021
91730SOL    HW177022   5.397   0.719   0.972
91730SOL    HW277023   5.313   0.840   1.004
91731SOL     OW77024  12.749   1.330  14.504
91731SOL    HW177025  12.747   1.380  14.586
91731SOL    HW277026  12.658   1.307  14.488
91732SOL     OW77027  13.143  11.006   3.300
91732SOL    HW177028  13.135  10.960   3.217
91732SOL    HW277029  13.053  11.024   3.327
91733SOL     OW77030  13.562  13.517   5.973
91733SOL    HW177031  13.498  13.575   5.932
91733SOL    HW277032  13.645  13.538   5.930
91734SOL     OW77033   7.824   8.531  11.992
91734SOL    HW177034   7.784   8.587  12.058
91734SOL    HW277035   7.751   8.503  11.936
91735SOL     OW77036   8.859   5.382   4.090
91735SOL    HW177037   8.834   5.317   4.024
91735SOL    HW277038   8.898   5.453   4.039
91736SOL     OW77039   1.301   9.226  11.845
91736SOL    HW177040   1.241   9.207  11.774
91736SOL    HW277041   1.247   9.224  11.924
91737SOL     OW77042   5.641   4.588   6.085
91737SOL    HW177043   5.651   4.666   6.030
91737SOL    HW277044   5.730   4.561   6.104
91738SOL     OW77045   6.203   5.999  13.254
91738SOL    HW177046   6.175   6.023  13.166
91738SOL    HW277047   6.292   5.965  13.242
91739SOL     OW77048  13.640  14.697  13.869
91739SOL    HW177049  13.685  14.638  13.930
91739SOL    HW277050  13.639  14.781  13.914
91740SOL     OW77051   8.716   0.389   5.977
91740SOL    HW177052   8.652   0.461   5.986
91740SOL    HW277053   8.673   0.326   5.920
91741SOL     OW77054  12.906   4.677  13.365
91741SOL    HW177055  12.909   4.743  13.434
91741SOL    HW277056  12.813   4.664  13.348
91742SOL     OW77057   5.315  10.679   1.547
91742SOL    HW177058   5.407  10.701   1.565
91742SOL    HW277059   5.284  10.641   1.629
91743SOL     OW77060  11.323   7.252   5.488
91743SOL    HW177061  11.298   7.256   5.395
91743SOL    HW277062  11.245   7.217   5.531
91744SOL     OW77063   2.911  14.620   5.706
91744SOL    HW177064   2.842  14.561   5.739
91744SOL    HW277065   2.898  14.622   5.612
91745SOL     OW77066   2.093  13.038   0.871
91745SOL    HW177067   2.037  13.111   0.897
91745SOL    HW277068   2.070  13.021   0.780
91746SOL     OW77069   9.794  12.675   0.239
91746SOL    HW177070   9.700  12.686   0.223
91746SOL    HW277071   9.835  12.750   0.195
91747SOL     OW77072  10.193  11.466   2.891
91747SOL    HW177073  10.104  11.489   2.918
91747SOL    HW277074  10.250  11.524   2.943
91748SOL     OW77075   8.151   0.987   4.617
91748SOL    HW177076   8.102   1.044   4.558
91748SOL    HW277077   8.230   1.036   4.638
91749SOL     OW77078  14.596  12.823   2.977
91749SOL    HW177079  14.577  12.749   2.920
91749SOL    HW277080  14.691  12.832   2.976
91750SOL     OW77081   1.903  10.344   1.813
91750SOL    HW177082   1.887  10.435   1.837
91750SOL    HW277083   1.823  10.316   1.769
91751SOL     OW77084   3.479   8.097   7.971
91751SOL    HW177085   3.477   8.006   7.940
91751SOL    HW277086   3.558   8.134   7.930
91752SOL     OW77087  13.690   0.545  14.203
91752SOL    HW177088  13.688   0.467  14.149
91752SOL    HW277089  13.783   0.561  14.219
91753SOL     OW77090   5.476   3.686   1.744
91753SOL    HW177091   5.416   3.612   1.744
91753SOL    HW277092   5.419   3.763   1.738
91754SOL     OW77093  14.004   9.712  12.476
91754SOL    HW177094  14.026   9.700  12.383
91754SOL    HW277095  14.022   9.804  12.493
91755SOL     OW77096   7.208   0.769   1.974
91755SOL    HW177097   7.155   0.835   1.929
91755SOL    HW277098   7.245   0.716   1.904
91756SOL     OW77099   2.635   8.869  14.218
91756SOL    HW177100   2.586   8.830  14.145
91756SOL    HW277101   2.669   8.951  14.182
91757SOL     OW77102  11.243   0.929   8.067
91757SOL    HW177103  11.156   0.900   8.041
91757SOL    HW277104  11.294   0.927   7.986
91758SOL     OW77105   8.280   0.049   0.072
91758SOL    HW177106   8.204   0.106   0.061
91758SOL    HW277107   8.243  14.843   0.081
91759SOL     OW77108   1.794   6.856   7.958
91759SOL    HW177109   1.773   6.820   7.872
91759SOL    HW277110   1.780   6.950   7.948
91760SOL     OW77111  14.107   9.108   9.804
91760SOL    HW177112  14.077   9.037   9.862
91760SOL    HW277113  14.074   9.083   9.718
91761SOL     OW77114   3.636   2.879   9.135
91761SOL    HW177115   3.589   2.930   9.070
91761SOL    HW277116   3.622   2.788   9.109
91762SOL     OW77117  10.351  13.728   1.600
91762SOL    HW177118  10.437  13.743   1.560
91762SOL    HW277119  10.357  13.768   1.687
91763SOL     OW77120  12.555   8.056   9.229
91763SOL    HW177121  12.625   7.995   9.207
91763SOL    HW277122  12.481   8.000   9.253
91764SOL     OW77123   8.357  10.555  13.182
91764SOL    HW177124   8.276  10.515  13.152
91764SOL    HW277125   8.390  10.602  13.105
91765SOL     OW77126  13.613  14.362   5.382
91765SOL    HW177127  13.520  14.349   5.364
91765SOL    HW277128  13.616  14.443   5.432
91766SOL     OW77129  10.214   3.324  14.859
91766SOL    HW177130  10.228   3.380   0.053
91766SOL    HW277131  10.171   3.381  14.795
91767SOL     OW77132  13.927  14.473   9.371
91767SOL    HW177133  13.890  14.407   9.430
91767SOL    HW277134  13.992  14.424   9.320
91768SOL     OW77135   5.646   3.461   2.245
91768SOL    HW177136   5.557   3.433   2.267
91768SOL    HW277137   5.703   3.404   2.296
91769SOL     OW77138  11.063   4.733   1.865
91769SOL    HW177139  10.990   4.722   1.803
91769SOL    HW277140  11.125   4.665   1.841
91770SOL     OW77141   0.563  12.658  14.656
91770SOL    HW177142   0.505  12.592  14.695
91770SOL    HW277143   0.547  12.737  14.706
91771SOL     OW77144   9.229   2.356   2.639
91771SOL    HW177145   9.275   2.374   2.721
91771SOL    HW277146   9.160   2.294   2.663
91772SOL     OW77147   9.038   5.979   1.042
91772SOL    HW177148   9.121   5.933   1.029
91772SOL    HW277149   9.017   5.966   1.134
91773SOL     OW77150   1.358   1.055   4.357
91773SOL    HW177151   1.420   0.998   4.310
91773SOL    HW277152   1.274   1.037   4.316
91774SOL     OW77153   0.880  10.030   9.206
91774SOL    HW177154   0.875  10.013   9.300
91774SOL    HW277155   0.795  10.002   9.172
91775SOL     OW77156   1.720  12.687  13.820
91775SOL    HW177157   1.664  12.613  13.843
91775SOL    HW277158   1.799  12.646  13.784
91776SOL     OW77159   9.829   6.447   0.477
91776SOL    HW177160   9.827   6.541   0.459
91776SOL    HW277161   9.910   6.433   0.525
91777SOL     OW77162  10.098   4.228  13.957
91777SOL    HW177163  10.168   4.193  13.901
91777SOL    HW277164  10.049   4.286  13.899
91778SOL     OW77165   4.165  14.389   1.889
91778SOL    HW177166   4.096  14.455   1.884
91778SOL    HW277167   4.120  14.306   1.875
91779SOL     OW77168   2.798   4.258   1.649
91779SOL    HW177169   2.881   4.210   1.642
91779SOL    HW277170   2.735   4.204   1.602
91780SOL     OW77171   2.714   6.440  14.837
91780SOL    HW177172   2.675   6.437  14.750
91780SOL    HW277173   2.808   6.450  14.822
91781SOL     OW77174   1.268   0.421   2.847
91781SOL    HW177175   1.231   0.368   2.918
91781SOL    HW277176   1.303   0.357   2.785
91782SOL     OW77177  14.733   1.794   8.623
91782SOL    HW177178  14.685   1.755   8.695
91782SOL    HW277179  14.679   1.777   8.546
91783SOL     OW77180   6.590   2.172  13.769
91783SOL    HW177181   6.651   2.181  13.696
91783SOL    HW277182   6.646   2.161  13.846
91784SOL     OW77183   3.937   3.767   2.475
91784SOL    HW177184   3.911   3.818   2.398
91784SOL    HW277185   3.940   3.831   2.546
91785SOL     OW77186   0.651   0.355  11.757
91785SOL    HW177187   0.621   0.406  11.832
91785SOL    HW277188   0.738   0.324  11.782
91786SOL     OW77189   6.551   8.034   0.633
91786SOL    HW177190   6.558   7.943   0.606
91786SOL    HW277191   6.576   8.034   0.725
91787SOL     OW77192   0.226   0.044  12.387
91787SOL    HW177193   0.134   0.023  12.369
91787SOL    HW277194   0.261   0.071  12.302
91788SOL     OW77195  13.188  13.050  10.545
91788SOL    HW177196  13.176  13.100  10.464
91788SOL    HW277197  13.105  13.004  10.557
91789SOL     OW77198   5.116   2.355   2.393
91789SOL    HW177199   5.046   2.364   2.457
91789SOL    HW277200   5.072   2.340   2.310
91790SOL     OW77201   2.344   2.077   0.575
91790SOL    HW177202   2.421   2.030   0.606
91790SOL    HW277203   2.379   2.159   0.540
91791SOL     OW77204   3.636  12.616  12.647
91791SOL    HW177205   3.545  12.644  12.648
91791SOL    HW277206   3.636  12.530  12.689
91792SOL     OW77207   5.750   3.146   6.621
91792SOL    HW177208   5.805   3.146   6.543
91792SOL    HW277209   5.771   3.229   6.664
91793SOL     OW77210   0.704   9.743   2.186
91793SOL    HW177211   0.710   9.654   2.222
91793SOL    HW277212   0.737   9.799   2.257
91794SOL     OW77213   9.853  13.992  12.368
91794SOL    HW177214   9.867  14.087  12.371
91794SOL    HW277215   9.772  13.979  12.418
91795SOL     OW77216   6.097   8.776   6.060
91795SOL    HW177217   6.180   8.816   6.033
91795SOL    HW277218   6.112   8.682   6.052
91796SOL     OW77219   8.852   5.408  12.896
91796SOL    HW177220   8.911   5.391  12.822
91796SOL    HW277221   8.779   5.457  12.859
91797SOL     OW77222   4.524   7.737   3.848
91797SOL    HW177223   4.471   7.738   3.768
91797SOL    HW277224   4.584   7.663   3.835
91798SOL     OW77225  10.705   9.651   3.663
91798SOL    HW177226  10.687   9.567   3.621
91798SOL    HW277227  10.655   9.714   3.612
91799SOL     OW77228  13.573   6.626   9.926
91799SOL    HW177229  13.640   6.626   9.995
91799SOL    HW277230  13.620   6.603   9.846
91800SOL     OW77231   2.609   1.269   2.603
91800SOL    HW177232   2.528   1.261   2.553
91800SOL    HW277233   2.604   1.356   2.643
91801SOL     OW77234   3.646   6.971   9.927
91801SOL    HW177235   3.665   6.880   9.949
91801SOL    HW277236   3.642   6.972   9.831
91802SOL     OW77237   9.304  14.665  12.990
91802SOL    HW177238   9.343  14.581  13.013
91802SOL    HW277239   9.341  14.726  13.055
91803SOL     OW77240  12.349   3.030  14.636
91803SOL    HW177241  12.337   3.053  14.729
91803SOL    HW277242  12.264   3.047  14.596
91804SOL     OW77243   9.792   1.137   1.966
91804SOL    HW177244   9.765   1.045   1.972
91804SOL    HW277245   9.844   1.151   2.045
91805SOL     OW77246   7.892   9.198   4.447
91805SOL    HW177247   7.901   9.263   4.516
91805SOL    HW277248   7.949   9.126   4.473
91806SOL     OW77249   8.895   0.776   6.441
91806SOL    HW177250   8.865   0.711   6.504
91806SOL    HW277251   8.875   0.861   6.482
91807SOL     OW77252  10.382   5.450   5.920
91807SOL    HW177253  10.440   5.386   5.960
91807SOL    HW277254  10.393   5.437   5.826
91808SOL     OW77255   0.736  14.585  10.348
91808SOL    HW177256   0.691  14.632  10.278
91808SOL    HW277257   0.754  14.498  10.312
91809SOL     OW77258   4.386   5.042  12.146
91809SOL    HW177259   4.299   5.026  12.184
91809SOL    HW277260   4.382   5.132  12.112
91810SOL     OW77261   6.797   1.773   4.636
91810SOL    HW177262   6.876   1.725   4.609
91810SOL    HW277263   6.727   1.736   4.582
91811SOL     OW77264  14.445  12.342   0.833
91811SOL    HW177265  14.369  12.393   0.804
91811SOL    HW277266  14.486  12.311   0.752
91812SOL     OW77267   5.703  11.397  12.529
91812SOL    HW177268   5.654  11.479  12.538
91812SOL    HW277269   5.718  11.367  12.618
91813SOL     OW77270   3.183   1.617  11.843
91813SOL    HW177271   3.183   1.709  11.816
91813SOL    HW277272   3.209   1.619  11.935
91814SOL     OW77273   3.217   7.714  11.016
91814SOL    HW177274   3.230   7.806  11.038
91814SOL    HW277275   3.294   7.669  11.051
91815SOL     OW77276   4.819   1.505   5.080
91815SOL    HW177277   4.766   1.523   5.003
91815SOL    HW277278   4.873   1.584   5.091
91816SOL     OW77279   9.171   4.134  10.484
91816SOL    HW177280   9.259   4.133  10.447
91816SOL    HW277281   9.171   4.063  10.549
91817SOL     OW77282   6.813   7.864   0.524
91817SOL    HW177283   6.832   7.949   0.562
91817SOL    HW277284   6.810   7.804   0.599
91818SOL     OW77285   9.893   5.712   2.119
91818SOL    HW177286   9.833   5.774   2.076
91818SOL    HW277287   9.845   5.629   2.120
91819SOL     OW77288   8.243   8.000  14.229
91819SOL    HW177289   8.210   8.012  14.140
91819SOL    HW277290   8.235   8.087  14.269
91820SOL     OW77291   8.999   0.207  13.159
91820SOL    HW177292   9.035   0.290  13.126
91820SOL    HW277293   9.021   0.206  13.252
91821SOL     OW77294   8.025   0.216  14.409
91821SOL    HW177295   8.093   0.211  14.476
91821SOL    HW277296   7.944   0.197  14.457
91822SOL     OW77297   1.949   0.377   1.241
91822SOL    HW177298   2.001   0.328   1.304
91822SOL    HW277299   1.999   0.458   1.227
91823SOL     OW77300   5.459   2.488  11.375
91823SOL    HW177301   5.499   2.415  11.422
91823SOL    HW277302   5.365   2.471  11.382
91824SOL     OW77303   8.466   5.159   8.748
91824SOL    HW177304   8.387   5.105   8.740
91824SOL    HW277305   8.446   5.238   8.698
91825SOL     OW77306   3.818   0.470   1.266
91825SOL    HW177307   3.901   0.443   1.306
91825SOL    HW277308   3.762   0.494   1.340
91826SOL     OW77309   6.348   4.197  11.408
91826SOL    HW177310   6.407   4.172  11.478
91826SOL    HW277311   6.261   4.172  11.440
91827SOL     OW77312   3.191   7.287   5.924
91827SOL    HW177313   3.100   7.255   5.924
91827SOL    HW277314   3.183   7.381   5.909
91828SOL     OW77315   7.578   9.407   0.730
91828SOL    HW177316   7.602   9.350   0.657
91828SOL    HW277317   7.608   9.494   0.703
91829SOL     OW77318  13.907  10.719  10.064
91829SOL    HW177319  13.975  10.751  10.123
91829SOL    HW277320  13.912  10.777   9.988
91830SOL     OW77321  13.883  13.281   5.903
91830SOL    HW177322  13.813  13.222   5.874
91830SOL    HW277323  13.851  13.368   5.881
91831SOL     OW77324   5.112  14.043   7.317
91831SOL    HW177325   5.093  14.036   7.411
91831SOL    HW277326   5.199  14.083   7.313
91832SOL     OW77327   8.132   9.917   4.732
91832SOL    HW177328   8.044   9.949   4.709
91832SOL    HW277329   8.186   9.996   4.736
91833SOL     OW77330  13.331   7.953  12.431
91833SOL    HW177331  13.351   8.028  12.488
91833SOL    HW277332  13.372   7.976  12.347
91834SOL     OW77333   3.248   1.040   2.398
91834SOL    HW177334   3.307   1.061   2.470
91834SOL    HW277335   3.298   1.060   2.319
91835SOL     OW77336  13.877   7.812   5.614
91835SOL    HW177337  13.936   7.785   5.544
91835SOL    HW277338  13.864   7.905   5.600
91836SOL     OW77339  10.937   9.650   5.074
91836SOL    HW177340  11.020   9.691   5.048
91836SOL    HW277341  10.901   9.615   4.992
91837SOL     OW77342  12.670   9.503   4.492
91837SOL    HW177343  12.704   9.538   4.410
91837SOL    HW277344  12.591   9.555   4.509
91838SOL     OW77345   4.063   4.123   5.519
91838SOL    HW177346   3.971   4.133   5.494
91838SOL    HW277347   4.081   4.030   5.503
91839SOL     OW77348  11.574   5.979   9.848
91839SOL    HW177349  11.499   5.983   9.907
91839SOL    HW277350  11.648   6.009   9.900
91840SOL     OW77351   7.734   9.242   1.657
91840SOL    HW177352   7.701   9.208   1.574
91840SOL    HW277353   7.818   9.198   1.671
91841SOL     OW77354   5.451  14.126   4.969
91841SOL    HW177355   5.372  14.175   4.948
91841SOL    HW277356   5.418  14.042   5.002
91842SOL     OW77357  10.331   0.912  11.013
91842SOL    HW177358  10.374   0.915  11.098
91842SOL    HW277359  10.400   0.891  10.951
91843SOL     OW77360   5.428   1.305   2.945
91843SOL    HW177361   5.470   1.229   2.983
91843SOL    HW277362   5.356   1.326   3.004
91844SOL     OW77363   4.708  12.335   2.446
91844SOL    HW177364   4.716  12.294   2.361
91844SOL    HW277365   4.752  12.276   2.506
91845SOL     OW77366   5.288  11.406   8.814
91845SOL    HW177367   5.235  11.452   8.879
91845SOL    HW277368   5.377  11.412   8.848
91846SOL     OW77369   6.524  13.892   1.293
91846SOL    HW177370   6.440  13.889   1.248
91846SOL    HW277371   6.513  13.834   1.368
91847SOL     OW77372   1.220   9.678   7.349
91847SOL    HW177373   1.310   9.670   7.380
91847SOL    HW277374   1.178   9.596   7.375
91848SOL     OW77375   7.441   7.911   3.566
91848SOL    HW177376   7.529   7.932   3.596
91848SOL    HW277377   7.439   7.815   3.564
91849SOL     OW77378  14.001   2.173   5.370
91849SOL    HW177379  14.069   2.125   5.322
91849SOL    HW277380  13.940   2.202   5.302
91850SOL     OW77381   8.704   3.962   7.940
91850SOL    HW177382   8.674   3.899   8.005
91850SOL    HW277383   8.736   3.909   7.867
91851SOL     OW77384   7.873   9.840   1.943
91851SOL    HW177385   7.800   9.897   1.919
91851SOL    HW277386   7.928   9.836   1.864
91852SOL     OW77387   6.685  10.140  13.921
91852SOL    HW177388   6.618  10.176  13.863
91852SOL    HW277389   6.768  10.171  13.885
91853SOL     OW77390  11.437   9.054   1.954
91853SOL    HW177391  11.425   9.061   1.860
91853SOL    HW277392  11.485   9.134   1.979
91854SOL     OW77393   5.176   2.434   0.942
91854SOL    HW177394   5.160   2.394   0.857
91854SOL    HW277395   5.194   2.526   0.922
91855SOL     OW77396  13.491   1.611  12.924
91855SOL    HW177397  13.398   1.635  12.919
91855SOL    HW277398  13.507   1.562  12.844
91856SOL     OW77399  10.861   5.473   6.179
91856SOL    HW177400  10.776   5.430   6.168
91856SOL    HW277401  10.856   5.550   6.121
91857SOL     OW77402  12.498  12.409   1.260
91857SOL    HW177403  12.479  12.324   1.219
91857SOL    HW277404  12.539  12.461   1.191
91858SOL     OW77405   2.711   3.147  11.325
91858SOL    HW177406   2.648   3.156  11.396
91858SOL    HW277407   2.774   3.082  11.355
91859SOL     OW77408   6.071  10.572   8.684
91859SOL    HW177409   6.112  10.608   8.606
91859SOL    HW277410   6.141  10.568   8.749
91860SOL     OW77411  10.447   7.898  14.218
91860SOL    HW177412  10.508   7.972  14.225
91860SOL    HW277413  10.494   7.834  14.164
91861SOL     OW77414   4.424  10.125   0.608
91861SOL    HW177415   4.419  10.074   0.689
91861SOL    HW277416   4.491  10.191   0.625
91862SOL     OW77417  14.868   4.448   0.292
91862SOL    HW177418  14.815   4.520   0.257
91862SOL    HW277419  14.820   4.369   0.268
91863SOL     OW77420  13.111  13.166   2.311
91863SOL    HW177421  13.032  13.172   2.365
91863SOL    HW277422  13.080  13.177   2.222
91864SOL     OW77423  13.828  14.075   6.749
91864SOL    HW177424  13.864  13.993   6.715
91864SOL    HW277425  13.744  14.051   6.787
91865SOL     OW77426  11.234   5.446   2.140
91865SOL    HW177427  11.236   5.360   2.183
91865SOL    HW277428  11.150   5.483   2.166
91866SOL     OW77429   5.427  11.878   9.117
91866SOL    HW177430   5.424  11.932   9.039
91866SOL    HW277431   5.368  11.921   9.179
91867SOL     OW77432  13.302   2.181  11.575
91867SOL    HW177433  13.333   2.119  11.509
91867SOL    HW277434  13.369   2.250  11.576
91868SOL     OW77435   1.546   5.355  12.862
91868SOL    HW177436   1.578   5.319  12.780
91868SOL    HW277437   1.536   5.449  12.845
91869SOL     OW77438   6.057   5.394   9.796
91869SOL    HW177439   6.067   5.302   9.820
91869SOL    HW277440   6.021   5.436   9.874
91870SOL     OW77441  11.143  12.825   8.772
91870SOL    HW177442  11.203  12.839   8.699
91870SOL    HW277443  11.192  12.769   8.832
91871SOL     OW77444   8.927   2.646   7.351
91871SOL    HW177445   8.993   2.715   7.347
91871SOL    HW277446   8.846   2.689   7.324
91872SOL     OW77447   9.351   0.085  11.901
91872SOL    HW177448   9.292   0.062  11.973
91872SOL    HW277449   9.433   0.109  11.945
91873SOL     OW77450   0.864   7.763   8.643
91873SOL    HW177451   0.777   7.757   8.603
91873SOL    HW277452   0.857   7.707   8.721
91874SOL     OW77453   1.912   6.256   8.797
91874SOL    HW177454   1.892   6.294   8.711
91874SOL    HW277455   1.882   6.321   8.860
91875SOL     OW77456   9.007   3.596  13.066
91875SOL    HW177457   8.957   3.613  13.146
91875SOL    HW277458   8.960   3.644  12.998
91876SOL     OW77459  12.229  10.917   6.787
91876SOL    HW177460  12.184  10.992   6.826
91876SOL    HW277461  12.201  10.918   6.696
91877SOL     OW77462  13.641   1.496  10.690
91877SOL    HW177463  13.613   1.415  10.732
91877SOL    HW277464  13.679   1.548  10.761
91878SOL     OW77465  10.742   7.934  10.835
91878SOL    HW177466  10.753   7.957  10.927
91878SOL    HW277467  10.647   7.926  10.823
91879SOL     OW77468  14.264   1.925   3.439
91879SOL    HW177469  14.218   1.845   3.464
91879SOL    HW277470  14.354   1.897   3.423
91880SOL     OW77471   9.666   3.661   1.985
91880SOL    HW177472   9.581   3.638   1.949
91880SOL    HW277473   9.659   3.755   2.004
91881SOL     OW77474   0.814   4.222  10.989
91881SOL    HW177475   0.776   4.205  11.075
91881SOL    HW277476   0.753   4.182  10.927
91882SOL     OW77477   2.129   9.540   9.363
91882SOL    HW177478   2.153   9.570   9.450
91882SOL    HW277479   2.207   9.495   9.331
91883SOL     OW77480  13.291  10.696  10.458
91883SOL    HW177481  13.381  10.705  10.425
91883SOL    HW277482  13.294  10.619  10.515
91884SOL     OW77483   1.239  11.249  13.029
91884SOL    HW177484   1.164  11.268  12.972
91884SOL    HW277485   1.260  11.334  13.068
91885SOL     OW77486   4.763  11.590   9.185
91885SOL    HW177487   4.839  11.568   9.239
91885SOL    HW277488   4.692  11.607   9.247
91886SOL     OW77489   3.582   0.257   6.186
91886SOL    HW177490   3.541   0.186   6.136
91886SOL    HW277491   3.582   0.332   6.126
91887SOL     OW77492   8.654  10.353   6.688
91887SOL    HW177493   8.618  10.394   6.609
91887SOL    HW277494   8.748  10.372   6.684
91888SOL     OW77495   7.000   5.793  14.588
91888SOL    HW177496   7.092   5.796  14.614
91888SOL    HW277497   6.961   5.868  14.633
91889SOL     OW77498   6.361   7.713  12.039
91889SOL    HW177499   6.411   7.639  12.006
91889SOL    HW277500   6.392   7.725  12.128
91890SOL     OW77501  13.772   9.747  10.656
91890SOL    HW177502  13.710   9.714  10.591
91890SOL    HW277503  13.727   9.736  10.740
91891SOL     OW77504   6.243   7.674   2.230
91891SOL    HW177505   6.236   7.719   2.314
91891SOL    HW277506   6.188   7.596   2.240
91892SOL     OW77507  12.252   6.919   9.433
91892SOL    HW177508  12.211   6.998   9.396
91892SOL    HW277509  12.260   6.859   9.359
91893SOL     OW77510  11.464   2.130   5.734
91893SOL    HW177511  11.377   2.122   5.694
91893SOL    HW277512  11.453   2.096   5.823
91894SOL     OW77513  13.723  10.778   3.990
91894SOL    HW177514  13.636  10.806   4.017
91894SOL    HW277515  13.720  10.682   3.994
91895SOL     OW77516   4.980   4.780   0.408
91895SOL    HW177517   4.901   4.776   0.460
91895SOL    HW277518   4.967   4.714   0.339
91896SOL     OW77519   6.086  11.918   6.742
91896SOL    HW177520   5.991  11.930   6.741
91896SOL    HW277521   6.118  11.962   6.663
91897SOL     OW77522   5.747   1.553   7.030
91897SOL    HW177523   5.746   1.623   7.096
91897SOL    HW277524   5.708   1.594   6.953
91898SOL     OW77525   0.171  14.199   0.097
91898SOL    HW177526   0.133  14.118   0.131
91898SOL    HW277527   0.153  14.195   0.003
91899SOL     OW77528   6.847   1.164   3.518
91899SOL    HW177529   6.849   1.174   3.613
91899SOL    HW277530   6.784   1.093   3.503
91900SOL     OW77531   6.725  13.294  11.395
91900SOL    HW177532   6.733  13.380  11.436
91900SOL    HW277533   6.645  13.257  11.433
91901SOL     OW77534  10.046   3.924   0.587
91901SOL    HW177535  10.122   3.982   0.587
91901SOL    HW277536   9.983   3.967   0.530
91902SOL     OW77537  14.262   7.477   8.549
91902SOL    HW177538  14.292   7.386   8.544
91902SOL    HW277539  14.298   7.519   8.472
91903SOL     OW77540   1.492  12.974   5.029
91903SOL    HW177541   1.522  13.064   5.016
91903SOL    HW277542   1.400  12.975   5.002
91904SOL     OW77543  14.408  11.719  10.737
91904SOL    HW177544  14.327  11.696  10.781
91904SOL    HW277545  14.463  11.757  10.805
91905SOL     OW77546  14.228   9.021   3.658
91905SOL    HW177547  14.180   9.103   3.643
91905SOL    HW277548  14.179   8.977   3.727
91906SOL     OW77549   7.569  14.130   6.397
91906SOL    HW177550   7.475  14.146   6.407
91906SOL    HW277551   7.575  14.043   6.359
91907SOL     OW77552   8.632   2.293   6.785
91907SOL    HW177553   8.696   2.352   6.825
91907SOL    HW277554   8.681   2.213   6.766
91908SOL     OW77555  13.528  13.698   6.593
91908SOL    HW177556  13.441  13.714   6.556
91908SOL    HW277557  13.544  13.605   6.579
91909SOL     OW77558   4.620   2.576  14.608
91909SOL    HW177559   4.660   2.518  14.542
91909SOL    HW277560   4.527   2.573  14.588
91910SOL     OW77561  14.630   0.212   1.067
91910SOL    HW177562  14.589   0.145   1.123
91910SOL    HW277563  14.714   0.230   1.110
91911SOL     OW77564  10.295  14.170  14.279
91911SOL    HW177565  10.353  14.163  14.203
91911SOL    HW277566  10.244  14.089  14.277
91912SOL     OW77567   0.585   3.877   1.761
91912SOL    HW177568   0.611   3.880   1.853
91912SOL    HW277569   0.569   3.969   1.738
91913SOL     OW77570  10.599   8.442  12.231
91913SOL    HW177571  10.605   8.534  12.254
91913SOL    HW277572  10.689   8.410  12.236
91914SOL     OW77573   9.450   4.143   6.782
91914SOL    HW177574   9.422   4.157   6.692
91914SOL    HW277575   9.488   4.055   6.782
91915SOL     OW77576   3.961   0.146   9.182
91915SOL    HW177577   4.040   0.124   9.132
91915SOL    HW277578   3.947   0.071   9.240
91916SOL     OW77579   3.990   9.400  10.733
91916SOL    HW177580   3.924   9.336  10.704
91916SOL    HW277581   4.031   9.431  10.653
91917SOL     OW77582  13.817   2.767   9.560
91917SOL    HW177583  13.747   2.722   9.608
91917SOL    HW277584  13.898   2.735   9.599
91918SOL     OW77585   4.065   5.485  10.056
91918SOL    HW177586   4.015   5.540  10.117
91918SOL    HW277587   3.999   5.430  10.015
91919SOL     OW77588   6.099   8.685   8.078
91919SOL    HW177589   6.103   8.778   8.100
91919SOL    HW277590   6.028   8.650   8.132
91920SOL     OW77591  11.843   0.372  11.491
91920SOL    HW177592  11.760   0.396  11.449
91920SOL    HW277593  11.894   0.331  11.421
91921SOL     OW77594   7.579  10.032   9.674
91921SOL    HW177595   7.635   9.996   9.606
91921SOL    HW277596   7.496  10.049   9.631
91922SOL     OW77597   5.163   8.040   9.601
91922SOL    HW177598   5.235   8.068   9.658
91922SOL    HW277599   5.126   7.964   9.645
91923SOL     OW77600   6.040   3.613  10.166
91923SOL    HW177601   6.068   3.611  10.257
91923SOL    HW277602   6.019   3.522  10.145
91924SOL     OW77603   5.775   1.894  10.166
91924SOL    HW177604   5.727   1.966  10.126
91924SOL    HW277605   5.864   1.927  10.176
91925SOL     OW77606   8.016  13.847  13.695
91925SOL    HW177607   8.048  13.805  13.775
91925SOL    HW277608   7.922  13.832  13.696
91926SOL     OW77609   0.356  12.155   5.959
91926SOL    HW177610   0.419  12.147   6.030
91926SOL    HW277611   0.386  12.231   5.909
91927SOL     OW77612   7.288   2.352   5.222
91927SOL    HW177613   7.304   2.258   5.212
91927SOL    HW277614   7.254   2.379   5.137
91928SOL     OW77615   0.440  12.544  10.575
91928SOL    HW177616   0.460  12.494  10.654
91928SOL    HW277617   0.345  12.551  10.574
91929SOL     OW77618  13.566  14.382   4.180
91929SOL    HW177619  13.612  14.458   4.142
91929SOL    HW277620  13.577  14.313   4.115
91930SOL     OW77621   0.547  14.372   7.799
91930SOL    HW177622   0.599  14.449   7.820
91930SOL    HW277623   0.606  14.298   7.814
91931SOL     OW77624   2.956   7.041  12.475
91931SOL    HW177625   2.931   7.109  12.536
91931SOL    HW277626   3.041   7.011  12.507
91932SOL     OW77627  10.782   3.725  11.643
91932SOL    HW177628  10.717   3.704  11.711
91932SOL    HW277629  10.805   3.640  11.606
91933SOL     OW77630   1.515   5.999  10.563
91933SOL    HW177631   1.602   6.035  10.545
91933SOL    HW277632   1.526   5.904  10.556
91934SOL     OW77633   2.691   7.968   1.216
91934SOL    HW177634   2.635   7.946   1.142
91934SOL    HW277635   2.777   7.936   1.192
91935SOL     OW77636   4.949   6.593   1.343
91935SOL    HW177637   4.947   6.501   1.315
91935SOL    HW277638   4.865   6.629   1.315
91936SOL     OW77639   2.159   8.386  14.745
91936SOL    HW177640   2.228   8.323  14.724
91936SOL    HW277641   2.160   8.393  14.840
91937SOL     OW77642  10.784  10.213   6.199
91937SOL    HW177643  10.773  10.118   6.194
91937SOL    HW277644  10.798  10.231   6.292
91938SOL     OW77645  14.157  10.990   2.176
91938SOL    HW177646  14.218  11.064   2.178
91938SOL    HW277647  14.115  10.996   2.090
91939SOL     OW77648   5.567  13.629   3.433
91939SOL    HW177649   5.513  13.550   3.425
91939SOL    HW277650   5.568  13.648   3.527
91940SOL     OW77651  14.389  10.077  10.033
91940SOL    HW177652  14.337  10.097   9.955
91940SOL    HW277653  14.476  10.111  10.012
91941SOL     OW77654  12.534   8.421  14.051
91941SOL    HW177655  12.461   8.374  14.092
91941SOL    HW277656  12.611   8.368  14.070
91942SOL     OW77657   1.191   6.374   2.991
91942SOL    HW177658   1.191   6.466   3.018
91942SOL    HW277659   1.159   6.327   3.068
91943SOL     OW77660   3.982   2.027   2.318
91943SOL    HW177661   3.930   2.025   2.237
91943SOL    HW277662   3.986   1.936   2.346
91944SOL     OW77663   5.786   9.205   7.391
91944SOL    HW177664   5.724   9.185   7.462
91944SOL    HW277665   5.836   9.124   7.380
91945SOL     OW77666   3.676   7.376   5.663
91945SOL    HW177667   3.611   7.331   5.718
91945SOL    HW277668   3.629   7.394   5.582
91946SOL     OW77669   6.311  10.923  10.897
91946SOL    HW177670   6.257  10.864  10.949
91946SOL    HW277671   6.401  10.900  10.921
91947SOL     OW77672  10.483  13.080  12.537
91947SOL    HW177673  10.425  13.100  12.464
91947SOL    HW277674  10.425  13.071  12.613
91948SOL     OW77675   3.915   5.940   7.629
91948SOL    HW177676   3.851   5.982   7.572
91948SOL    HW277677   3.886   5.849   7.635
91949SOL     OW77678  10.424   3.012   1.935
91949SOL    HW177679  10.510   3.044   1.961
91949SOL    HW277680  10.362   3.067   1.982
91950SOL     OW77681  14.763   7.573   0.481
91950SOL    HW177682  14.802   7.492   0.446
91950SOL    HW277683  14.837   7.620   0.520
91951SOL     OW77684  10.388   3.848   2.364
91951SOL    HW177685  10.330   3.872   2.291
91951SOL    HW277686  10.475   3.844   2.325
91952SOL     OW77687  13.167   5.398  13.250
91952SOL    HW177688  13.263   5.391  13.255
91952SOL    HW277689  13.146   5.369  13.161
91953SOL     OW77690   9.833  12.008   1.731
91953SOL    HW177691   9.925  11.985   1.743
91953SOL    HW277692   9.787  11.960   1.799
91954SOL     OW77693  11.485   3.722   9.099
91954SOL    HW177694  11.559   3.758   9.050
91954SOL    HW277695  11.524   3.686   9.179
91955SOL     OW77696   6.157   4.895   6.301
91955SOL    HW177697   6.063   4.881   6.288
91955SOL    HW277698   6.175   4.977   6.256
91956SOL     OW77699   7.096   2.205  14.175
91956SOL    HW177700   7.101   2.113  14.199
91956SOL    HW277701   7.178   2.223  14.128
91957SOL     OW77702   3.661  11.297  13.295
91957SOL    HW177703   3.721  11.233  13.332
91957SOL    HW277704   3.717  11.370  13.270
91958SOL     OW77705  11.318   9.061   7.964
91958SOL    HW177706  11.413   9.071   7.951
91958SOL    HW277707  11.302   8.968   7.954
91959SOL     OW77708   6.319  12.950  12.770
91959SOL    HW177709   6.289  12.929  12.682
91959SOL    HW277710   6.414  12.957  12.762
91960SOL     OW77711   7.750  12.029   7.041
91960SOL    HW177712   7.752  11.952   7.097
91960SOL    HW277713   7.837  12.068   7.051
91961SOL     OW77714   3.880  12.737   3.382
91961SOL    HW177715   3.797  12.784   3.391
91961SOL    HW277716   3.884  12.713   3.289
91962SOL     OW77717  11.181   4.093  14.396
91962SOL    HW177718  11.276   4.084  14.392
91962SOL    HW277719  11.147   4.014  14.354
91963SOL     OW77720  13.424   5.699  11.463
91963SOL    HW177721  13.490   5.760  11.496
91963SOL    HW277722  13.459   5.667  11.380
91964SOL     OW77723   9.410   1.857   4.100
91964SOL    HW177724   9.370   1.773   4.079
91964SOL    HW277725   9.460   1.841   4.180
91965SOL     OW77726   8.568   7.676   5.280
91965SOL    HW177727   8.649   7.635   5.250
91965SOL    HW277728   8.518   7.690   5.200
91966SOL     OW77729  13.342   6.658   9.507
91966SOL    HW177730  13.341   6.751   9.482
91966SOL    HW277731  13.369   6.659   9.599
91967SOL     OW77732  13.289   1.324   2.288
91967SOL    HW177733  13.270   1.408   2.247
91967SOL    HW277734  13.376   1.301   2.257
91968SOL     OW77735  14.674   5.739  13.780
91968SOL    HW177736  14.755   5.698  13.811
91968SOL    HW277737  14.623   5.666  13.745
91969SOL     OW77738  12.754   8.208  10.362
91969SOL    HW177739  12.807   8.140  10.404
91969SOL    HW277740  12.760   8.188  10.268
91970SOL     OW77741  13.717   8.902   8.329
91970SOL    HW177742  13.642   8.935   8.379
91970SOL    HW277743  13.747   8.826   8.379
91971SOL     OW77744   4.658   9.486  11.528
91971SOL    HW177745   4.629   9.432  11.601
91971SOL    HW277746   4.596   9.466  11.457
91972SOL     OW77747   4.959   7.610  13.335
91972SOL    HW177748   4.962   7.580  13.426
91972SOL    HW277749   5.046   7.647  13.319
91973SOL     OW77750   4.277  10.349   4.610
91973SOL    HW177751   4.350  10.329   4.667
91973SOL    HW277752   4.204  10.297   4.644
91974SOL     OW77753   2.515  11.560  11.483
91974SOL    HW177754   2.476  11.605  11.558
91974SOL    HW277755   2.504  11.622  11.410
91975SOL     OW77756   8.312   5.916   8.091
91975SOL    HW177757   8.339   5.994   8.043
91975SOL    HW277758   8.237   5.882   8.042
91976SOL     OW77759   9.361   7.951   7.984
91976SOL    HW177760   9.358   7.912   8.071
91976SOL    HW277761   9.294   8.020   7.986
91977SOL     OW77762   3.008  11.612  12.048
91977SOL    HW177763   3.024  11.706  12.050
91977SOL    HW277764   3.030  11.586  11.958
91978SOL     OW77765  12.832   2.626   4.346
91978SOL    HW177766  12.923   2.608   4.322
91978SOL    HW277767  12.830   2.620   4.441
91979SOL     OW77768   6.862  10.780   0.687
91979SOL    HW177769   6.777  10.818   0.664
91979SOL    HW277770   6.865  10.697   0.638
91980SOL     OW77771   7.037  13.266   4.483
91980SOL    HW177772   6.996  13.218   4.554
91980SOL    HW277773   7.127  13.234   4.481
91981SOL     OW77774   6.544   7.975   8.196
91981SOL    HW177775   6.570   7.952   8.107
91981SOL    HW277776   6.613   8.033   8.227
91982SOL     OW77777  12.374  13.627   5.863
91982SOL    HW177778  12.339  13.567   5.928
91982SOL    HW277779  12.446  13.579   5.822
91983SOL     OW77780   4.013  11.964  13.040
91983SOL    HW177781   4.071  11.930  13.108
91983SOL    HW277782   3.995  12.054  13.067
91984SOL     OW77783   8.047   3.936   2.085
91984SOL    HW177784   8.005   3.985   2.013
91984SOL    HW277785   8.128   3.984   2.102
91985SOL     OW77786   0.261   8.240  11.712
91985SOL    HW177787   0.188   8.288  11.671
91985SOL    HW277788   0.319   8.218  11.639
91986SOL     OW77789   2.850   0.091   1.830
91986SOL    HW177790   2.815   0.002   1.833
91986SOL    HW277791   2.945   0.080   1.828
91987SOL     OW77792   8.643  11.484   1.537
91987SOL    HW177793   8.710  11.525   1.592
91987SOL    HW277794   8.579  11.553   1.521
91988SOL     OW77795   4.621  12.782  10.945
91988SOL    HW177796   4.604  12.724  10.871
91988SOL    HW277797   4.536  12.791  10.989
91989SOL     OW77798   7.708  12.883  12.492
91989SOL    HW177799   7.621  12.884  12.452
91989SOL    HW277800   7.760  12.940  12.436
91990SOL     OW77801  10.497  11.647   0.470
91990SOL    HW177802  10.530  11.609   0.388
91990SOL    HW277803  10.438  11.580   0.505
91991SOL     OW77804   7.735  12.994   1.849
91991SOL    HW177805   7.727  12.920   1.909
91991SOL    HW277806   7.818  13.036   1.874
91992SOL     OW77807  13.718  14.556  14.082
91992SOL    HW177808  13.641  14.593  14.125
91992SOL    HW277809  13.697  14.464  14.069
91993SOL     OW77810   1.999  10.023   3.018
91993SOL    HW177811   2.026   9.963   3.088
91993SOL    HW277812   1.943   9.970   2.961
91994SOL     OW77813   1.642  14.012  12.636
91994SOL    HW177814   1.671  14.034  12.724
91994SOL    HW277815   1.723  14.001  12.586
91995SOL     OW77816  13.475   1.771  12.333
91995SOL    HW177817  13.506   1.860  12.317
91995SOL    HW277818  13.414   1.781  12.407
91996SOL     OW77819   1.567   3.739   0.202
91996SOL    HW177820   1.560   3.833   0.219
91996SOL    HW277821   1.520   3.698   0.274
91997SOL     OW77822  14.458   4.578   8.748
91997SOL    HW177823  14.537   4.542   8.710
91997SOL    HW277824  14.489   4.637   8.817
91998SOL     OW77825   5.227   1.906  13.081
91998SOL    HW177826   5.317   1.916  13.050
91998SOL    HW277827   5.228   1.827  13.135
91999SOL     OW77828   3.228   1.017   3.910
91999SOL    HW177829   3.146   1.017   3.959
91999SOL    HW277830   3.278   0.943   3.944
92000SOL     OW77831  10.812   7.747  13.634
92000SOL    HW177832  10.850   7.765  13.720
92000SOL    HW277833  10.737   7.807  13.628
92001SOL     OW77834  14.858  13.125   5.073
92001SOL    HW177835  14.832  13.217   5.078
92001SOL    HW277836   0.072  13.126   5.076
92002SOL     OW77837   9.181   2.926  12.163
92002SOL    HW177838   9.150   2.874  12.089
92002SOL    HW277839   9.269   2.954  12.138
92003SOL     OW77840  11.401   3.805   9.689
92003SOL    HW177841  11.422   3.760   9.607
92003SOL    HW277842  11.478   3.793   9.744
92004SOL     OW77843   8.516  13.277  12.710
92004SOL    HW177844   8.549  13.279  12.620
92004SOL    HW277845   8.491  13.367  12.729
92005SOL     OW77846  10.022   7.594   9.854
92005SOL    HW177847   9.997   7.660   9.918
92005SOL    HW277848  10.118   7.592   9.858
92006SOL     OW77849   8.384   2.109  11.605
92006SOL    HW177850   8.441   2.103  11.529
92006SOL    HW277851   8.399   2.027  11.652
92007SOL     OW77852  12.278   6.190   5.970
92007SOL    HW177853  12.288   6.283   5.947
92007SOL    HW277854  12.236   6.191   6.056
92008SOL     OW77855  10.757   2.629   2.047
92008SOL    HW177856  10.788   2.559   2.105
92008SOL    HW277857  10.825   2.696   2.054
92009SOL     OW77858  11.346  13.513   0.259
92009SOL    HW177859  11.377  13.589   0.210
92009SOL    HW277860  11.418  13.450   0.255
92010SOL     OW77861   6.590  13.715   7.072
92010SOL    HW177862   6.507  13.680   7.040
92010SOL    HW277863   6.639  13.638   7.102
92011SOL     OW77864  11.157   4.261   7.289
92011SOL    HW177865  11.190   4.173   7.274
92011SOL    HW277866  11.231   4.310   7.324
92012SOL     OW77867   2.404  14.189   1.355
92012SOL    HW177868   2.468  14.190   1.426
92012SOL    HW277869   2.373  14.099   1.351
92013SOL     OW77870   1.525   8.389   3.023
92013SOL    HW177871   1.592   8.457   3.037
92013SOL    HW277872   1.569   8.307   3.046
92014SOL     OW77873   4.141  11.610   1.880
92014SOL    HW177874   4.108  11.583   1.795
92014SOL    HW277875   4.171  11.700   1.867
92015SOL     OW77876   0.175  12.147   8.481
92015SOL    HW177877   0.262  12.120   8.508
92015SOL    HW277878   0.120  12.070   8.494
92016SOL     OW77879   3.755   2.273   7.426
92016SOL    HW177880   3.782   2.183   7.406
92016SOL    HW277881   3.664   2.264   7.455
92017SOL     OW77882   0.204   3.402   4.110
92017SOL    HW177883   0.173   3.481   4.154
92017SOL    HW277884   0.126   3.347   4.102
92018SOL     OW77885   7.940  12.982   5.864
92018SOL    HW177886   7.966  12.900   5.907
92018SOL    HW277887   8.014  13.005   5.809
92019SOL     OW77888   3.514   5.526   9.149
92019SOL    HW177889   3.568   5.450   9.169
92019SOL    HW277890   3.572   5.601   9.165
92020SOL     OW77891   9.882   3.653   6.665
92020SOL    HW177892   9.934   3.602   6.604
92020SOL    HW277893   9.945   3.686   6.730
92021SOL     OW77894   4.216   6.899  10.491
92021SOL    HW177895   4.166   6.927  10.568
92021SOL    HW277896   4.152   6.898  10.420
92022SOL     OW77897   8.946   9.154   6.018
92022SOL    HW177898   9.034   9.123   5.996
92022SOL    HW277899   8.922   9.105   6.096
92023SOL     OW77900   1.360   8.220   1.386
92023SOL    HW177901   1.302   8.247   1.315
92023SOL    HW277902   1.302   8.173   1.447
92024SOL     OW77903   9.455   1.574   0.572
92024SOL    HW177904   9.446   1.613   0.485
92024SOL    HW277905   9.365   1.566   0.604
92025SOL     OW77906   3.693  10.814  10.575
92025SOL    HW177907   3.776  10.860  10.560
92025SOL    HW277908   3.684  10.812  10.670
92026SOL     OW77909  14.331  10.822  13.882
92026SOL    HW177910  14.391  10.831  13.956
92026SOL    HW277911  14.351  10.895  13.825
92027SOL     OW77912   6.983  14.684  14.077
92027SOL    HW177913   7.039  14.716  14.006
92027SOL    HW277914   6.948  14.601  14.046
92028SOL     OW77915   0.599   7.327   2.523
92028SOL    HW177916   0.545   7.350   2.599
92028SOL    HW277917   0.543   7.347   2.447
92029SOL     OW77918   8.393   3.810   4.934
92029SOL    HW177919   8.400   3.721   4.898
92029SOL    HW277920   8.450   3.809   5.011
92030SOL     OW77921   7.025  14.090   0.632
92030SOL    HW177922   6.953  14.066   0.574
92030SOL    HW277923   7.042  14.011   0.683
92031SOL     OW77924   5.862  13.309   4.714
92031SOL    HW177925   5.918  13.386   4.719
92031SOL    HW277926   5.922  13.235   4.728
92032SOL     OW77927   8.465   9.812  10.670
92032SOL    HW177928   8.490   9.891  10.623
92032SOL    HW277929   8.463   9.838  10.762
92033SOL     OW77930  13.489   4.946  13.132
92033SOL    HW177931  13.570   4.992  13.109
92033SOL    HW277932  13.430   5.016  13.163
92034SOL     OW77933   0.250   0.939  10.468
92034SOL    HW177934   0.249   0.845  10.482
92034SOL    HW277935   0.336   0.968  10.500
92035SOL     OW77936  11.304   7.745  13.750
92035SOL    HW177937  11.288   7.657  13.783
92035SOL    HW277938  11.324   7.732  13.657
92036SOL     OW77939  14.570   9.863   4.572
92036SOL    HW177940  14.513   9.867   4.496
92036SOL    HW277941  14.650   9.907   4.544
92037SOL     OW77942   2.960   9.663  12.070
92037SOL    HW177943   3.041   9.675  12.119
92037SOL    HW277944   2.975   9.706  11.986
92038SOL     OW77945   3.118   6.753   0.415
92038SOL    HW177946   3.046   6.801   0.456
92038SOL    HW277947   3.076   6.674   0.380
92039SOL     OW77948   6.161  11.004   8.485
92039SOL    HW177949   6.094  10.941   8.511
92039SOL    HW277950   6.240  10.952   8.472
92040SOL     OW77951   5.231  13.219   5.920
92040SOL    HW177952   5.138  13.197   5.911
92040SOL    HW277953   5.274  13.134   5.932
92041SOL     OW77954   6.731   3.554  14.618
92041SOL    HW177955   6.792   3.603  14.563
92041SOL    HW277956   6.774   3.549  14.703
92042SOL     OW77957  13.875   4.488   8.750
92042SOL    HW177958  13.878   4.579   8.722
92042SOL    HW277959  13.853   4.439   8.671
92043SOL     OW77960   1.665   4.374  14.207
92043SOL    HW177961   1.606   4.448  14.194
92043SOL    HW277962   1.612   4.297  14.184
92044SOL     OW77963  10.892   2.787  14.195
92044SOL    HW177964  10.927   2.725  14.130
92044SOL    HW277965  10.968   2.813  14.246
92045SOL     OW77966   8.106   3.060   9.290
92045SOL    HW177967   8.084   2.996   9.222
92045SOL    HW277968   8.163   3.012   9.350
92046SOL     OW77969  11.128   7.546   8.156
92046SOL    HW177970  11.156   7.455   8.166
92046SOL    HW277971  11.076   7.564   8.234
92047SOL     OW77972   7.549   1.626   7.043
92047SOL    HW177973   7.626   1.663   6.999
92047SOL    HW277974   7.584   1.549   7.089
92048SOL     OW77975   3.564   3.981   5.808
92048SOL    HW177976   3.545   3.983   5.714
92048SOL    HW277977   3.489   4.026   5.848
92049SOL     OW77978  11.213   4.662   8.913
92049SOL    HW177979  11.294   4.635   8.871
92049SOL    HW277980  11.144   4.614   8.868
92050SOL     OW77981   8.888  12.362   2.874
92050SOL    HW177982   8.871  12.434   2.812
92050SOL    HW277983   8.802  12.326   2.892
92051SOL     OW77984   9.059   2.786  14.721
92051SOL    HW177985   9.018   2.706  14.753
92051SOL    HW277986   8.987   2.836  14.682
92052SOL     OW77987  12.041   9.636  13.950
92052SOL    HW177988  12.013   9.605  13.864
92052SOL    HW277989  12.062   9.557  13.999
92053SOL     OW77990  11.579   6.457   8.764
92053SOL    HW177991  11.665   6.499   8.762
92053SOL    HW277992  11.588   6.381   8.707
92054SOL     OW77993  11.456  12.544   0.227
92054SOL    HW177994  11.386  12.570   0.287
92054SOL    HW277995  11.474  12.453   0.250
92055SOL     OW77996  14.367   6.315   0.167
92055SOL    HW177997  14.330   6.401   0.184
92055SOL    HW277998  14.460   6.331   0.150
92056SOL     OW77999   3.663   5.181   5.242
92056SOL    HW178000   3.688   5.231   5.319
92056SOL    HW278001   3.674   5.089   5.268
92057SOL     OW78002   5.431   9.586  11.613
92057SOL    HW178003   5.451   9.652  11.679
92057SOL    HW278004   5.513   9.537  11.602
92058SOL     OW78005   1.131   4.582  11.088
92058SOL    HW178006   1.053   4.611  11.041
92058SOL    HW278007   1.154   4.655  11.145
92059SOL     OW78008   0.234   4.690   6.265
92059SOL    HW178009   0.314   4.641   6.245
92059SOL    HW278010   0.163   4.630   6.242
92060SOL     OW78011   8.366   0.964   2.078
92060SOL    HW178012   8.272   0.972   2.063
92060SOL    HW278013   8.374   0.907   2.155
92061SOL     OW78014   3.302  10.411   9.407
92061SOL    HW178015   3.376  10.469   9.427
92061SOL    HW278016   3.344  10.328   9.382
92062SOL     OW78017  14.797   0.329   8.182
92062SOL    HW178018  14.703   0.330   8.201
92062SOL    HW278019  14.804   0.367   8.094
92063SOL     OW78020   2.454   8.767  14.010
92063SOL    HW178021   2.464   8.672  14.003
92063SOL    HW278022   2.384   8.788  13.948
92064SOL     OW78023   8.868   7.915  14.664
92064SOL    HW178024   8.826   8.000  14.674
92064SOL    HW278025   8.937   7.929  14.599
92065SOL     OW78026   6.572  14.124   1.460
92065SOL    HW178027   6.580  14.180   1.383
92065SOL    HW278028   6.568  14.035   1.425
92066SOL     OW78029   8.446  14.304   9.148
92066SOL    HW178030   8.481  14.392   9.164
92066SOL    HW278031   8.362  14.319   9.104
92067SOL     OW78032   1.542   5.225   4.848
92067SOL    HW178033   1.462   5.176   4.828
92067SOL    HW278034   1.574   5.186   4.929
92068SOL     OW78035   0.156  11.300  13.828
92068SOL    HW178036   0.175  11.364  13.760
92068SOL    HW278037   0.095  11.345  13.887
92069SOL     OW78038  10.912   2.298  14.633
92069SOL    HW178039  10.936   2.210  14.607
92069SOL    HW278040  10.841   2.286  14.697
92070SOL     OW78041   5.694   9.890   5.445
92070SOL    HW178042   5.704   9.956   5.515
92070SOL    HW278043   5.777   9.893   5.398
92071SOL     OW78044  10.563   6.801   0.998
92071SOL    HW178045  10.632   6.791   0.933
92071SOL    HW278046  10.587   6.740   1.068
92072SOL     OW78047   1.267   6.853   8.930
92072SOL    HW178048   1.233   6.765   8.912
92072SOL    HW278049   1.192   6.911   8.913
92073SOL     OW78050   4.992   2.064  11.544
92073SOL    HW178051   4.971   2.158  11.542
92073SOL    HW278052   4.968   2.033  11.457
92074SOL     OW78053   4.906   4.537   9.787
92074SOL    HW178054   4.970   4.518   9.718
92074SOL    HW278055   4.926   4.626   9.815
92075SOL     OW78056   3.592   3.073   3.978
92075SOL    HW178057   3.529   3.108   3.914
92075SOL    HW278058   3.665   3.043   3.925
92076SOL     OW78059   1.954  14.681   3.494
92076SOL    HW178060   1.897  14.621   3.445
92076SOL    HW278061   1.993  14.736   3.426
92077SOL     OW78062   4.096  11.399   2.880
92077SOL    HW178063   4.172  11.418   2.825
92077SOL    HW278064   4.116  11.440   2.964
92078SOL     OW78065  10.253   0.157   3.073
92078SOL    HW178066  10.240   0.238   3.123
92078SOL    HW278067  10.339   0.167   3.033
92079SOL     OW78068   6.321  14.161  10.425
92079SOL    HW178069   6.246  14.102  10.414
92079SOL    HW278070   6.395  14.102  10.442
92080SOL     OW78071  13.538   3.456   5.307
92080SOL    HW178072  13.542   3.474   5.401
92080SOL    HW278073  13.508   3.366   5.301
92081SOL     OW78074   9.947  14.629   0.643
92081SOL    HW178075   9.955  14.537   0.666
92081SOL    HW278076   9.877  14.632   0.577
92082SOL     OW78077   2.669   4.440   0.308
92082SOL    HW178078   2.751   4.392   0.304
92082SOL    HW278079   2.671   4.499   0.234
92083SOL     OW78080  10.509   6.984   6.205
92083SOL    HW178081  10.480   7.062   6.252
92083SOL    HW278082  10.437   6.964   6.145
92084SOL     OW78083   1.064   8.908   0.451
92084SOL    HW178084   1.002   8.877   0.518
92084SOL    HW278085   1.021   8.887   0.368
92085SOL     OW78086   7.278   7.618  13.709
92085SOL    HW178087   7.285   7.664  13.625
92085SOL    HW278088   7.184   7.603  13.720
92086SOL     OW78089   3.327  14.397   2.296
92086SOL    HW178090   3.309  14.407   2.203
92086SOL    HW278091   3.418  14.425   2.306
92087SOL     OW78092   0.306   3.786  11.207
92087SOL    HW178093   0.302   3.725  11.133
92087SOL    HW278094   0.374   3.750  11.264
92088SOL     OW78095  14.463  14.543   9.691
92088SOL    HW178096  14.467  14.590   9.608
92088SOL    HW278097  14.422  14.459   9.668
92089SOL     OW78098   2.420  12.429   5.552
92089SOL    HW178099   2.341  12.449   5.502
92089SOL    HW278100   2.409  12.478   5.634
92090SOL     OW78101   9.134   8.163  10.654
92090SOL    HW178102   9.067   8.146  10.720
92090SOL    HW278103   9.188   8.232  10.691
92091SOL     OW78104  13.880   3.870   6.767
92091SOL    HW178105  13.942   3.886   6.696
92091SOL    HW278106  13.878   3.775   6.775
92092SOL     OW78107  10.764   9.778   1.297
92092SOL    HW178108  10.818   9.757   1.373
92092SOL    HW278109  10.674   9.765   1.327
92093SOL     OW78110   2.487  13.882   4.031
92093SOL    HW178111   2.506  13.805   4.084
92093SOL    HW278112   2.414  13.856   3.975
92094SOL     OW78113  12.372   4.072   7.492
92094SOL    HW178114  12.313   4.006   7.456
92094SOL    HW278115  12.406   4.119   7.416
92095SOL     OW78116   6.436   7.628  10.257
92095SOL    HW178117   6.433   7.654  10.165
92095SOL    HW278118   6.344   7.627  10.285
92096SOL     OW78119   7.336  11.615  12.779
92096SOL    HW178120   7.426  11.604  12.810
92096SOL    HW278121   7.312  11.704  12.806
92097SOL     OW78122  11.020   5.161  12.953
92097SOL    HW178123  11.065   5.187  12.872
92097SOL    HW278124  10.930   5.191  12.940
92098SOL     OW78125  12.882   0.453   9.615
92098SOL    HW178126  12.796   0.441   9.575
92098SOL    HW278127  12.864   0.462   9.709
92099SOL     OW78128   3.245   3.525  11.803
92099SOL    HW178129   3.316   3.516  11.740
92099SOL    HW278130   3.287   3.558  11.883
92100SOL     OW78131  11.767  10.689   3.645
92100SOL    HW178132  11.781  10.744   3.568
92100SOL    HW278133  11.754  10.601   3.611
92101SOL     OW78134  10.630  10.567   9.116
92101SOL    HW178135  10.686  10.625   9.064
92101SOL    HW278136  10.625  10.486   9.064
92102SOL     OW78137  10.312  13.382  10.902
92102SOL    HW178138  10.267  13.331  10.834
92102SOL    HW278139  10.289  13.473  10.882
92103SOL     OW78140   8.603   1.509   2.106
92103SOL    HW178141   8.653   1.571   2.159
92103SOL    HW278142   8.546   1.465   2.170
92104SOL     OW78143  13.441  14.412   7.226
92104SOL    HW178144  13.426  14.328   7.183
92104SOL    HW278145  13.356  14.456   7.221
92105SOL     OW78146  10.565  11.484  10.388
92105SOL    HW178147  10.614  11.550  10.436
92105SOL    HW278148  10.589  11.498  10.296
92106SOL     OW78149   3.060   0.923   4.143
92106SOL    HW178150   3.028   0.862   4.210
92106SOL    HW278151   2.990   0.987   4.132
92107SOL     OW78152  11.884   6.754   6.432
92107SOL    HW178153  11.942   6.803   6.492
92107SOL    HW278154  11.896   6.663   6.458
92108SOL     OW78155   8.847  11.297   4.861
92108SOL    HW178156   8.780  11.253   4.912
92108SOL    HW278157   8.801  11.331   4.784
92109SOL     OW78158  13.828   2.339   0.189
92109SOL    HW178159  13.897   2.349   0.255
92109SOL    HW278160  13.872   2.302   0.113
92110SOL     OW78161  14.101   6.632   0.286
92110SOL    HW178162  14.161   6.602   0.355
92110SOL    HW278163  14.015   6.602   0.316
92111SOL     OW78164   0.738   2.921  10.596
92111SOL    HW178165   0.787   2.842  10.572
92111SOL    HW278166   0.769   2.943  10.684
92112SOL     OW78167   6.494   4.498   8.148
92112SOL    HW178168   6.526   4.549   8.073
92112SOL    HW278169   6.563   4.505   8.213
92113SOL     OW78170   3.513   4.953   6.433
92113SOL    HW178171   3.451   4.882   6.416
92113SOL    HW278172   3.597   4.908   6.445
92114SOL     OW78173  10.065   4.073   2.258
92114SOL    HW178174  10.152   4.034   2.267
92114SOL    HW278175  10.006   4.010   2.300
92115SOL     OW78176   7.394  14.752   1.681
92115SOL    HW178177   7.353  14.761   1.767
92115SOL    HW278178   7.335  14.798   1.622
92116SOL     OW78179   3.919  10.020   3.301
92116SOL    HW178180   3.947  10.108   3.325
92116SOL    HW278181   3.939   9.966   3.377
92117SOL     OW78182   0.508  14.677   4.437
92117SOL    HW178183   0.584  14.683   4.495
92117SOL    HW278184   0.439  14.725   4.483
92118SOL     OW78185  12.582   6.903   8.663
92118SOL    HW178186  12.574   6.968   8.733
92118SOL    HW278187  12.674   6.878   8.664
92119SOL     OW78188   1.249   6.787   1.634
92119SOL    HW178189   1.261   6.760   1.725
92119SOL    HW278190   1.181   6.854   1.637
92120SOL     OW78191   2.664   2.873   4.851
92120SOL    HW178192   2.656   2.828   4.935
92120SOL    HW278193   2.739   2.831   4.808
92121SOL     OW78194  12.010   3.795   7.637
92121SOL    HW178195  11.943   3.846   7.591
92121SOL    HW278196  11.967   3.767   7.718
92122SOL     OW78197   7.772   0.469   5.548
92122SOL    HW178198   7.781   0.560   5.517
92122SOL    HW278199   7.677   0.457   5.557
92123SOL     OW78200  13.474   5.206  11.138
92123SOL    HW178201  13.433   5.209  11.051
92123SOL    HW278202  13.412   5.251  11.195
92124SOL     OW78203  11.383   8.140   3.098
92124SOL    HW178204  11.453   8.181   3.048
92124SOL    HW278205  11.411   8.049   3.107
92125SOL     OW78206   5.019   6.870   6.180
92125SOL    HW178207   5.036   6.791   6.233
92125SOL    HW278208   4.933   6.854   6.141
92126SOL     OW78209   5.342  12.886  10.348
92126SOL    HW178210   5.404  12.935  10.294
92126SOL    HW278211   5.389  12.807  10.374
92127SOL     OW78212   1.265   2.592  12.184
92127SOL    HW178213   1.306   2.611  12.269
92127SOL    HW278214   1.253   2.497  12.184
92128SOL     OW78215   0.800  12.304   9.792
92128SOL    HW178216   0.840  12.295   9.879
92128SOL    HW278217   0.874  12.299   9.732
92129SOL     OW78218   8.861   2.568   8.682
92129SOL    HW178219   8.922   2.497   8.662
92129SOL    HW278220   8.793   2.526   8.736
92130SOL     OW78221  13.219  12.861   8.362
92130SOL    HW178222  13.136  12.902   8.386
92130SOL    HW278223  13.197  12.803   8.289
92131SOL     OW78224   8.691  10.231   9.035
92131SOL    HW178225   8.707  10.277   9.117
92131SOL    HW278226   8.755  10.269   8.974
92132SOL     OW78227  10.745   4.296  14.832
92132SOL    HW178228  10.703   4.377  14.802
92132SOL    HW278229  10.839   4.315  14.827
92133SOL     OW78230  13.092   0.251  10.319
92133SOL    HW178231  13.184   0.244  10.346
92133SOL    HW278232  13.094   0.317  10.249
92134SOL     OW78233  13.647   1.132   5.153
92134SOL    HW178234  13.711   1.062   5.155
92134SOL    HW278235  13.699   1.212   5.153
92135SOL     OW78236   4.536   3.508   5.216
92135SOL    HW178237   4.474   3.490   5.287
92135SOL    HW278238   4.490   3.570   5.160
92136SOL     OW78239   0.240  13.823  14.773
92136SOL    HW178240   0.251  13.794  14.864
92136SOL    HW278241   0.147  13.847  14.767
92137SOL     OW78242   4.183  12.684  11.360
92137SOL    HW178243   4.273  12.652  11.363
92137SOL    HW278244   4.139  12.629  11.295
92138SOL     OW78245  13.955   6.890   6.116
92138SOL    HW178246  13.879   6.913   6.169
92138SOL    HW278247  13.950   6.949   6.041
92139SOL     OW78248  11.875  13.033   5.864
92139SOL    HW178249  11.899  13.032   5.956
92139SOL    HW278250  11.840  13.121   5.849
92140SOL     OW78251   5.865   9.567  14.231
92140SOL    HW178252   5.825   9.507  14.294
92140SOL    HW278253   5.821   9.650  14.245
92141SOL     OW78254  12.150   6.908   1.009
92141SOL    HW178255  12.112   6.995   1.019
92141SOL    HW278256  12.207   6.915   0.933
92142SOL     OW78257   5.982  14.426   5.990
92142SOL    HW178258   6.074  14.411   5.968
92142SOL    HW278259   5.984  14.498   6.054
92143SOL     OW78260   1.011   7.480   6.485
92143SOL    HW178261   1.023   7.478   6.580
92143SOL    HW278262   1.052   7.563   6.458
92144SOL     OW78263   3.469   8.314   5.286
92144SOL    HW178264   3.408   8.245   5.314
92144SOL    HW278265   3.501   8.285   5.201
92145SOL     OW78266   1.372   6.404   6.751
92145SOL    HW178267   1.331   6.458   6.683
92145SOL    HW278268   1.399   6.467   6.818
92146SOL     OW78269   9.820   7.749   1.200
92146SOL    HW178270   9.878   7.768   1.126
92146SOL    HW278271   9.732   7.752   1.163
92147SOL     OW78272   4.934   3.494   7.281
92147SOL    HW178273   4.851   3.538   7.260
92147SOL    HW278274   4.912   3.401   7.280
92148SOL     OW78275   6.081   6.632   7.283
92148SOL    HW178276   6.024   6.695   7.238
92148SOL    HW278277   6.148   6.686   7.325
92149SOL     OW78278   7.513  11.388  12.648
92149SOL    HW178279   7.517  11.447  12.723
92149SOL    HW278280   7.427  11.346  12.655
92150SOL     OW78281   8.410   0.883   9.756
92150SOL    HW178282   8.361   0.817   9.806
92150SOL    HW278283   8.499   0.877   9.790
92151SOL     OW78284  12.968   9.667   6.297
92151SOL    HW178285  12.916   9.731   6.345
92151SOL    HW278286  12.924   9.657   6.213
92152SOL     OW78287  14.554  12.583   4.041
92152SOL    HW178288  14.470  12.626   4.024
92152SOL    HW278289  14.575  12.536   3.961
92153SOL     OW78290   7.282   8.803  13.153
92153SOL    HW178291   7.304   8.863  13.082
92153SOL    HW278292   7.313   8.718  13.123
92154SOL     OW78293   6.759  12.995  11.397
92154SOL    HW178294   6.776  13.009  11.490
92154SOL    HW278295   6.804  13.067  11.353
92155SOL     OW78296   6.716  14.201  13.788
92155SOL    HW178297   6.784  14.267  13.774
92155SOL    HW278298   6.761  14.129  13.833
92156SOL     OW78299  14.100   6.034   2.389
92156SOL    HW178300  14.073   6.125   2.388
92156SOL    HW278301  14.018   5.984   2.389
92157SOL     OW78302   2.117   2.257   4.793
92157SOL    HW178303   2.146   2.210   4.715
92157SOL    HW278304   2.027   2.228   4.807
92158SOL     OW78305   4.300  14.881  13.602
92158SOL    HW178306   4.276  14.844  13.686
92158SOL    HW278307   4.362  14.818  13.564
92159SOL     OW78308   0.732   0.638   3.904
92159SOL    HW178309   0.644   0.664   3.929
92159SOL    HW278310   0.719   0.577   3.831
92160SOL     OW78311  13.516  11.891   5.366
92160SOL    HW178312  13.507  11.825   5.297
92160SOL    HW278313  13.609  11.913   5.366
92161SOL     OW78314   7.052   0.522  13.013
92161SOL    HW178315   7.083   0.602  13.054
92161SOL    HW278316   7.102   0.515  12.932
92162SOL     OW78317  11.728  12.766  10.817
92162SOL    HW178318  11.739  12.860  10.831
92162SOL    HW278319  11.815  12.734  10.795
92163SOL     OW78320  10.599   6.005   5.583
92163SOL    HW178321  10.686   6.025   5.618
92163SOL    HW278322  10.604   5.913   5.558
92164SOL     OW78323   3.997  13.653   9.404
92164SOL    HW178324   4.034  13.565   9.413
92164SOL    HW278325   3.952  13.668   9.487
92165SOL     OW78326  13.783   2.458   4.985
92165SOL    HW178327  13.813   2.525   5.046
92165SOL    HW278328  13.800   2.495   4.898
92166SOL     OW78329   8.290   1.088  10.820
92166SOL    HW178330   8.270   1.163  10.765
92166SOL    HW278331   8.211   1.035  10.819
92167SOL     OW78332   9.158   8.409   7.548
92167SOL    HW178333   9.085   8.438   7.603
92167SOL    HW278334   9.180   8.322   7.583
92168SOL     OW78335   2.786   3.705   0.502
92168SOL    HW178336   2.714   3.682   0.443
92168SOL    HW278337   2.847   3.755   0.449
92169SOL     OW78338   5.776   2.270   8.477
92169SOL    HW178339   5.839   2.198   8.482
92169SOL    HW278340   5.795   2.313   8.393
92170SOL     OW78341   1.659   3.110  14.480
92170SOL    HW178342   1.707   3.093  14.561
92170SOL    HW278343   1.593   3.175  14.504
92171SOL     OW78344  11.784  13.096   4.073
92171SOL    HW178345  11.834  13.096   4.155
92171SOL    HW278346  11.693  13.110   4.100
92172SOL     OW78347   3.372  12.826   4.344
92172SOL    HW178348   3.327  12.812   4.428
92172SOL    HW278349   3.302  12.852   4.284
92173SOL     OW78350  10.589  10.620  14.570
92173SOL    HW178351  10.646  10.555  14.611
92173SOL    HW278352  10.542  10.570  14.503
92174SOL     OW78353  12.550  10.571   3.866
92174SOL    HW178354  12.624  10.558   3.925
92174SOL    HW278355  12.505  10.648   3.900
92175SOL     OW78356   6.981   1.566   2.191
92175SOL    HW178357   7.022   1.484   2.221
92175SOL    HW278358   6.943   1.604   2.271
92176SOL     OW78359   5.603  12.668  12.709
92176SOL    HW178360   5.683  12.639  12.666
92176SOL    HW278361   5.563  12.588  12.742
92177SOL     OW78362  11.597   0.965   2.683
92177SOL    HW178363  11.546   0.897   2.640
92177SOL    HW278364  11.536   1.038   2.693
92178SOL     OW78365   4.547   5.443  14.034
92178SOL    HW178366   4.493   5.469  14.108
92178SOL    HW278367   4.635   5.435  14.070
92179SOL     OW78368   2.563  14.811   4.485
92179SOL    HW178369   2.539   0.021   4.496
92179SOL    HW278370   2.494  14.775   4.429
92180SOL     OW78371   5.470   2.766  14.192
92180SOL    HW178372   5.479   2.672  14.203
92180SOL    HW278373   5.435   2.797  14.276
92181SOL     OW78374   0.961  14.674  12.445
92181SOL    HW178375   0.885  14.730  12.462
92181SOL    HW278376   1.002  14.662  12.530
92182SOL     OW78377   5.257   6.743   6.600
92182SOL    HW178378   5.330   6.709   6.652
92182SOL    HW278379   5.196   6.778   6.665
92183SOL     OW78380  10.504   8.956  14.126
92183SOL    HW178381  10.552   8.999  14.197
92183SOL    HW278382  10.484   9.026  14.064
92184SOL     OW78383   0.504   7.413  13.211
92184SOL    HW178384   0.577   7.395  13.270
92184SOL    HW278385   0.428   7.424  13.268
92185SOL     OW78386  10.461   1.405  10.576
92185SOL    HW178387  10.396   1.337  10.560
92185SOL    HW278388  10.532   1.360  10.623
92186SOL     OW78389   2.537  10.536   2.639
92186SOL    HW178390   2.518  10.488   2.558
92186SOL    HW278391   2.619  10.581   2.621
92187SOL     OW78392   2.438   6.808  14.774
92187SOL    HW178393   2.484   6.748  14.832
92187SOL    HW278394   2.345   6.790  14.789
92188SOL     OW78395   1.115  12.579   5.490
92188SOL    HW178396   1.165  12.625   5.558
92188SOL    HW278397   1.179  12.559   5.422
92189SOL     OW78398   1.091  12.538   1.995
92189SOL    HW178399   1.112  12.449   1.969
92189SOL    HW278400   1.126  12.547   2.084
92190SOL     OW78401   9.130  12.924  12.456
92190SOL    HW178402   9.225  12.930  12.463
92190SOL    HW278403   9.097  12.948  12.542
92191SOL     OW78404   1.536   0.690   3.040
92191SOL    HW178405   1.444   0.671   3.058
92191SOL    HW278406   1.549   0.780   3.070
92192SOL     OW78407  10.985   0.805   1.467
92192SOL    HW178408  10.898   0.782   1.500
92192SOL    HW278409  11.030   0.721   1.459
92193SOL     OW78410  10.139   8.922   8.354
92193SOL    HW178411  10.111   9.006   8.392
92193SOL    HW278412  10.235   8.924   8.361
92194SOL     OW78413  10.667   2.559   5.009
92194SOL    HW178414  10.749   2.508   5.013
92194SOL    HW278415  10.631   2.538   4.923
92195SOL     OW78416   9.652   4.868   5.418
92195SOL    HW178417   9.660   4.951   5.466
92195SOL    HW278418   9.672   4.801   5.484
92196SOL     OW78419   9.805   8.662   2.601
92196SOL    HW178420   9.745   8.684   2.672
92196SOL    HW278421   9.775   8.713   2.527
92197SOL     OW78422   4.879  14.139   2.159
92197SOL    HW178423   4.881  14.100   2.072
92197SOL    HW278424   4.970  14.167   2.175
92198SOL     OW78425   8.752  13.591   3.476
92198SOL    HW178426   8.708  13.627   3.399
92198SOL    HW278427   8.705  13.509   3.495
92199SOL     OW78428   5.543  13.929  12.822
92199SOL    HW178429   5.589  13.993  12.876
92199SOL    HW278430   5.526  13.976  12.740
92200SOL     OW78431   5.029   9.484  10.163
92200SOL    HW178432   5.027   9.510  10.071
92200SOL    HW278433   4.996   9.561  10.210
92201SOL     OW78434  13.532   5.080   9.444
92201SOL    HW178435  13.592   5.147   9.410
92201SOL    HW278436  13.515   5.107   9.534
92202SOL     OW78437  10.807   5.344  10.951
92202SOL    HW178438  10.761   5.266  10.983
92202SOL    HW278439  10.878   5.357  11.014
92203SOL     OW78440   0.512  12.860   2.852
92203SOL    HW178441   0.581  12.793   2.853
92203SOL    HW278442   0.452  12.834   2.921
92204SOL     OW78443   6.210   4.716   3.361
92204SOL    HW178444   6.268   4.787   3.389
92204SOL    HW278445   6.127   4.760   3.343
92205SOL     OW78446   5.377  11.772   2.873
92205SOL    HW178447   5.435  11.818   2.812
92205SOL    HW278448   5.433  11.747   2.946
92206SOL     OW78449  14.377   5.115  10.682
92206SOL    HW178450  14.448   5.065  10.642
92206SOL    HW278451  14.404   5.206  10.673
92207SOL     OW78452  12.536   1.668  10.113
92207SOL    HW178453  12.615   1.640  10.159
92207SOL    HW278454  12.472   1.600  10.132
92208SOL     OW78455   0.262   5.641   2.316
92208SOL    HW178456   0.278   5.606   2.404
92208SOL    HW278457   0.254   5.735   2.329
92209SOL     OW78458   3.661  11.993   6.937
92209SOL    HW178459   3.719  11.983   6.862
92209SOL    HW278460   3.693  12.071   6.982
92210SOL     OW78461   2.290   2.820   0.757
92210SOL    HW178462   2.314   2.860   0.841
92210SOL    HW278463   2.226   2.753   0.780
92211SOL     OW78464   9.742   9.578  12.098
92211SOL    HW178465   9.719   9.488  12.123
92211SOL    HW278466   9.838   9.579  12.101
92212SOL     OW78467  13.480   4.801   9.363
92212SOL    HW178468  13.522   4.885   9.382
92212SOL    HW278469  13.546   4.753   9.312
92213SOL     OW78470   1.160   1.608  13.214
92213SOL    HW178471   1.224   1.676  13.193
92213SOL    HW278472   1.117   1.639  13.293
92214SOL     OW78473  12.527   8.104  11.495
92214SOL    HW178474  12.491   8.118  11.583
92214SOL    HW278475  12.472   8.159  11.438
92215SOL     OW78476   7.204   2.055  13.254
92215SOL    HW178477   7.110   2.070  13.242
92215SOL    HW278478   7.215   2.049  13.349
92216SOL     OW78479   0.904  12.088  12.752
92216SOL    HW178480   0.858  12.047  12.825
92216SOL    HW278481   0.863  12.174  12.743
92217SOL     OW78482   5.999   6.564   9.706
92217SOL    HW178483   6.058   6.609   9.767
92217SOL    HW278484   5.994   6.623   9.630
92218SOL     OW78485  12.205   6.104   5.379
92218SOL    HW178486  12.198   6.100   5.283
92218SOL    HW278487  12.174   6.191   5.401
92219SOL     OW78488  13.985   7.593  14.475
92219SOL    HW178489  13.993   7.541  14.555
92219SOL    HW278490  13.895   7.579  14.446
92220SOL     OW78491   5.030   0.497   3.784
92220SOL    HW178492   5.115   0.541   3.791
92220SOL    HW278493   4.991   0.533   3.704
92221SOL     OW78494  12.093  13.348   0.479
92221SOL    HW178495  12.059  13.437   0.474
92221SOL    HW278496  12.015  13.293   0.487
92222SOL     OW78497   6.329  13.357  13.563
92222SOL    HW178498   6.391  13.411  13.513
92222SOL    HW278499   6.347  13.267  13.535
92223SOL     OW78500   7.076   1.197   4.486
92223SOL    HW178501   7.119   1.274   4.449
92223SOL    HW278502   7.041   1.228   4.570
92224SOL     OW78503   9.620   1.959  14.617
92224SOL    HW178504   9.541   1.967  14.671
92224SOL    HW278505   9.637   2.049  14.588
92225SOL     OW78506   9.320   9.568   6.995
92225SOL    HW178507   9.257   9.632   7.027
92225SOL    HW278508   9.406   9.603   7.019
92226SOL     OW78509   9.681   6.622   7.025
92226SOL    HW178510   9.615   6.624   7.094
92226SOL    HW278511   9.759   6.661   7.065
92227SOL     OW78512   9.195   9.600   9.075
92227SOL    HW178513   9.201   9.692   9.048
92227SOL    HW278514   9.284   9.566   9.066
92228SOL     OW78515   3.417   6.096   4.553
92228SOL    HW178516   3.391   6.125   4.465
92228SOL    HW278517   3.509   6.074   4.544
92229SOL     OW78518  12.606   3.989   1.053
92229SOL    HW178519  12.699   3.974   1.068
92229SOL    HW278520  12.590   3.957   0.964
92230SOL     OW78521   6.017   2.963   3.773
92230SOL    HW178522   6.088   3.022   3.749
92230SOL    HW278523   5.948   2.981   3.709
92231SOL     OW78524   0.989  12.722  12.137
92231SOL    HW178525   1.005  12.784  12.209
92231SOL    HW278526   1.028  12.640  12.168
92232SOL     OW78527   6.324   9.150   9.298
92232SOL    HW178528   6.251   9.158   9.359
92232SOL    HW278529   6.284   9.152   9.212
92233SOL     OW78530   0.026   1.685   7.975
92233SOL    HW178531   0.000   1.754   8.037
92233SOL    HW278532   0.037   1.731   7.892
92234SOL     OW78533  13.562   7.592  10.020
92234SOL    HW178534  13.566   7.607   9.926
92234SOL    HW278535  13.548   7.498  10.029
92235SOL     OW78536   5.793   4.072  12.244
92235SOL    HW178537   5.841   4.138  12.294
92235SOL    HW278538   5.701   4.088  12.264
92236SOL     OW78539   0.462  14.448   9.304
92236SOL    HW178540   0.473  14.542   9.312
92236SOL    HW278541   0.516  14.411   9.374
92237SOL     OW78542   1.946  11.348   4.132
92237SOL    HW178543   1.885  11.409   4.174
92237SOL    HW278544   1.965  11.282   4.199
92238SOL     OW78545   7.651   0.499   3.557
92238SOL    HW178546   7.585   0.555   3.517
92238SOL    HW278547   7.602   0.445   3.620
92239SOL     OW78548  14.842   8.375   6.181
92239SOL    HW178549  14.753   8.397   6.154
92239SOL    HW278550  14.871   8.452   6.230
92240SOL     OW78551   6.992   8.221  12.553
92240SOL    HW178552   6.984   8.149  12.490
92240SOL    HW278553   7.077   8.260  12.533
92241SOL     OW78554   0.091   4.295   1.463
92241SOL    HW178555   0.139   4.369   1.425
92241SOL    HW278556   0.000   4.309   1.434
92242SOL     OW78557   5.767   6.544   2.656
92242SOL    HW178558   5.821   6.514   2.583
92242SOL    HW278559   5.760   6.468   2.713
92243SOL     OW78560  10.846   1.608   3.772
92243SOL    HW178561  10.916   1.623   3.835
92243SOL    HW278562  10.863   1.520   3.738
92244SOL     OW78563   2.767   5.353  11.087
92244SOL    HW178564   2.797   5.333  10.998
92244SOL    HW278565   2.805   5.438  11.106
92245SOL     OW78566  11.309  11.939   3.034
92245SOL    HW178567  11.380  11.875   3.037
92245SOL    HW278568  11.314  11.985   3.118
92246SOL     OW78569   4.502   2.481  11.717
92246SOL    HW178570   4.500   2.548  11.785
92246SOL    HW278571   4.410   2.459  11.703
92247SOL     OW78572   2.411   2.838  11.951
92247SOL    HW178573   2.371   2.762  11.993
92247SOL    HW278574   2.486   2.803  11.903
92248SOL     OW78575   0.893   1.118  11.557
92248SOL    HW178576   0.943   1.198  11.573
92248SOL    HW278577   0.899   1.070  11.640
92249SOL     OW78578  13.961   6.266   0.111
92249SOL    HW178579  13.996   6.349   0.079
92249SOL    HW278580  13.990   6.260   0.202
92250SOL     OW78581  13.120   3.695   7.740
92250SOL    HW178582  13.151   3.642   7.814
92250SOL    HW278583  13.199   3.738   7.707
92251SOL     OW78584   4.672   4.443   4.731
92251SOL    HW178585   4.607   4.487   4.675
92251SOL    HW278586   4.624   4.372   4.772
92252SOL     OW78587   2.909   7.884   4.005
92252SOL    HW178588   2.820   7.852   4.020
92252SOL    HW278589   2.921   7.952   4.072
92253SOL     OW78590   9.720  13.122   2.075
92253SOL    HW178591   9.791  13.139   2.013
92253SOL    HW278592   9.682  13.209   2.091
92254SOL     OW78593  13.789  11.221   6.922
92254SOL    HW178594  13.783  11.132   6.890
92254SOL    HW278595  13.713  11.231   6.980
92255SOL     OW78596   1.257   7.787  14.834
92255SOL    HW178597   1.258   7.750  14.745
92255SOL    HW278598   1.184   7.849  14.833
92256SOL     OW78599   8.005  14.802  11.279
92256SOL    HW178600   7.983  14.713  11.254
92256SOL    HW278601   7.993  14.804  11.374
92257SOL     OW78602   1.486   3.340  13.977
92257SOL    HW178603   1.559   3.307  13.925
92257SOL    HW278604   1.477   3.432  13.950
92258SOL     OW78605   0.312   0.725  11.814
92258SOL    HW178606   0.278   0.798  11.866
92258SOL    HW278607   0.267   0.648  11.847
92259SOL     OW78608   1.292   5.170  12.579
92259SOL    HW178609   1.382   5.189  12.602
92259SOL    HW278610   1.276   5.221  12.500
92260SOL     OW78611  14.312   1.500   2.787
92260SOL    HW178612  14.277   1.547   2.711
92260SOL    HW278613  14.277   1.412   2.779
92261SOL     OW78614   1.564   2.865   0.876
92261SOL    HW178615   1.620   2.937   0.848
92261SOL    HW278616   1.475   2.895   0.856
92262SOL     OW78617  14.543   8.022   2.949
92262SOL    HW178618  14.497   7.970   2.884
92262SOL    HW278619  14.634   8.021   2.921
92263SOL     OW78620   3.081   6.896  12.046
92263SOL    HW178621   3.162   6.868  12.003
92263SOL    HW278622   3.021   6.914  11.974
92264SOL     OW78623   2.814   7.166   1.770
92264SOL    HW178624   2.813   7.137   1.678
92264SOL    HW278625   2.875   7.107   1.813
92265SOL     OW78626  10.407  11.792   2.361
92265SOL    HW178627  10.320  11.828   2.381
92265SOL    HW278628  10.426  11.734   2.434
92266SOL     OW78629   4.699   1.558   7.377
92266SOL    HW178630   4.626   1.559   7.439
92266SOL    HW278631   4.666   1.606   7.300
92267SOL     OW78632   0.661  11.341   9.882
92267SOL    HW178633   0.731  11.406   9.875
92267SOL    HW278634   0.587  11.379   9.835
92268SOL     OW78635   6.248   2.774  13.026
92268SOL    HW178636   6.260   2.829  13.104
92268SOL    HW278637   6.159   2.742  13.034
92269SOL     OW78638  13.999  14.415  10.648
92269SOL    HW178639  14.052  14.374  10.580
92269SOL    HW278640  14.044  14.395  10.730
92270SOL     OW78641   4.012  14.816   1.461
92270SOL    HW178642   3.961  14.768   1.527
92270SOL    HW278643   4.041  14.749   1.399
92271SOL     OW78644  13.615   7.859  14.188
92271SOL    HW178645  13.677   7.815  14.247
92271SOL    HW278646  13.529   7.842  14.227
92272SOL     OW78647   2.196   6.360   8.669
92272SOL    HW178648   2.152   6.399   8.745
92272SOL    HW278649   2.206   6.432   8.607
92273SOL     OW78650  13.291  14.396   4.420
92273SOL    HW178651  13.256  14.457   4.354
92273SOL    HW278652  13.241  14.316   4.407
92274SOL     OW78653  12.086   2.197   4.715
92274SOL    HW178654  12.068   2.168   4.625
92274SOL    HW278655  12.106   2.117   4.763
92275SOL     OW78656   3.344   4.528  13.131
92275SOL    HW178657   3.265   4.561  13.174
92275SOL    HW278658   3.416   4.559  13.186
92276SOL     OW78659   7.082   9.514  11.428
92276SOL    HW178660   7.082   9.595  11.478
92276SOL    HW278661   7.022   9.456  11.476
92277SOL     OW78662  10.776  12.423   4.062
92277SOL    HW178663  10.755  12.513   4.084
92277SOL    HW278664  10.818  12.428   3.976
92278SOL     OW78665  10.076   6.075   2.008
92278SOL    HW178666  10.046   6.148   2.062
92278SOL    HW278667  10.060   6.105   1.918
92279SOL     OW78668   2.044   6.744  12.674
92279SOL    HW178669   2.119   6.690  12.703
92279SOL    HW278670   2.084   6.821  12.634
92280SOL     OW78671   8.148  11.042   5.117
92280SOL    HW178672   8.183  11.092   5.190
92280SOL    HW278673   8.054  11.054   5.122
92281SOL     OW78674   6.350   4.167   0.877
92281SOL    HW178675   6.421   4.202   0.822
92281SOL    HW278676   6.304   4.245   0.908
92282SOL     OW78677   9.967   9.851   5.660
92282SOL    HW178678   9.969   9.893   5.746
92282SOL    HW278679  10.011   9.767   5.673
92283SOL     OW78680   5.982  14.451   4.681
92283SOL    HW178681   5.894  14.475   4.708
92283SOL    HW278682   6.035  14.464   4.760
92284SOL     OW78683   3.413   7.281  14.836
92284SOL    HW178684   3.397   7.221  14.762
92284SOL    HW278685   3.470   7.349  14.800
92285SOL     OW78686  14.383  14.336   3.115
92285SOL    HW178687  14.398  14.430   3.105
92285SOL    HW278688  14.293  14.323   3.085
92286SOL     OW78689   0.741  10.545   3.973
92286SOL    HW178690   0.704  10.553   3.885
92286SOL    HW278691   0.738  10.635   4.008
92287SOL     OW78692   7.767  13.866   8.194
92287SOL    HW178693   7.692  13.808   8.187
92287SOL    HW278694   7.741  13.945   8.145
92288SOL     OW78695   0.992  11.170  13.426
92288SOL    HW178696   1.076  11.185  13.469
92288SOL    HW278697   0.937  11.132  13.494
92289SOL     OW78698   8.589   6.251   8.514
92289SOL    HW178699   8.582   6.156   8.524
92289SOL    HW278700   8.642   6.279   8.588
92290SOL     OW78701  12.813   9.180   2.097
92290SOL    HW178702  12.898   9.196   2.137
92290SOL    HW278703  12.764   9.262   2.110
92291SOL     OW78704   8.090   7.285   4.924
92291SOL    HW178705   8.069   7.269   4.833
92291SOL    HW278706   8.005   7.289   4.968
92292SOL     OW78707  13.816   0.713   4.217
92292SOL    HW178708  13.779   0.761   4.292
92292SOL    HW278709  13.743   0.663   4.183
92293SOL     OW78710   5.908   1.709   7.769
92293SOL    HW178711   5.993   1.743   7.742
92293SOL    HW278712   5.881   1.651   7.697
92294SOL     OW78713   2.476   7.673  14.319
92294SOL    HW178714   2.490   7.707  14.230
92294SOL    HW278715   2.529   7.729  14.375
92295SOL     OW78716   6.994   4.494   1.582
92295SOL    HW178717   6.985   4.436   1.658
92295SOL    HW278718   7.081   4.531   1.591
92296SOL     OW78719   2.292   0.996   6.018
92296SOL    HW178720   2.302   0.902   6.010
92296SOL    HW278721   2.302   1.028   5.928
92297SOL     OW78722  11.295   5.923   0.203
92297SOL    HW178723  11.244   5.903   0.124
92297SOL    HW278724  11.229   5.951   0.267
92298SOL     OW78725   0.595  12.308  11.603
92298SOL    HW178726   0.606  12.388  11.655
92298SOL    HW278727   0.566  12.242  11.665
92299SOL     OW78728   7.026  11.518   0.685
92299SOL    HW178729   7.102  11.541   0.739
92299SOL    HW278730   6.980  11.601   0.672
92300SOL     OW78731   7.157  14.452   8.075
92300SOL    HW178732   7.242  14.439   8.033
92300SOL    HW278733   7.164  14.538   8.118
92301SOL     OW78734   3.411  12.561   7.242
92301SOL    HW178735   3.363  12.499   7.187
92301SOL    HW278736   3.417  12.518   7.327
92302SOL     OW78737  11.768  13.350  10.839
92302SOL    HW178738  11.854  13.391  10.851
92302SOL    HW278739  11.787  13.270  10.790
92303SOL     OW78740  12.473   7.486  13.997
92303SOL    HW178741  12.493   7.393  14.009
92303SOL    HW278742  12.381   7.488  13.970
92304SOL     OW78743   3.026   9.233   9.989
92304SOL    HW178744   3.089   9.292   9.948
92304SOL    HW278745   3.006   9.168   9.922
92305SOL     OW78746   7.808   1.648   6.949
92305SOL    HW178747   7.799   1.555   6.928
92305SOL    HW278748   7.898   1.656   6.981
92306SOL     OW78749  12.447  12.698  12.843
92306SOL    HW178750  12.369  12.698  12.898
92306SOL    HW278751  12.424  12.641  12.770
92307SOL     OW78752   2.188   6.802   0.557
92307SOL    HW178753   2.129   6.876   0.544
92307SOL    HW278754   2.208   6.804   0.651
92308SOL     OW78755   0.889  11.574   2.530
92308SOL    HW178756   0.937  11.491   2.535
92308SOL    HW278757   0.930  11.621   2.456
92309SOL     OW78758  10.271   2.275   8.087
92309SOL    HW178759  10.308   2.230   8.163
92309SOL    HW278760  10.347   2.301   8.035
92310SOL     OW78761   4.074   2.824  13.259
92310SOL    HW178762   4.067   2.753  13.323
92310SOL    HW278763   4.152   2.873  13.286
92311SOL     OW78764   7.918   5.528  10.650
92311SOL    HW178765   7.938   5.551  10.740
92311SOL    HW278766   7.893   5.436  10.653
92312SOL     OW78767  13.220   5.555   6.315
92312SOL    HW178768  13.244   5.543   6.223
92312SOL    HW278769  13.157   5.485   6.332
92313SOL     OW78770   0.662  11.495  10.452
92313SOL    HW178771   0.742  11.467  10.496
92313SOL    HW278772   0.613  11.542  10.519
92314SOL     OW78773   4.956   4.433  10.678
92314SOL    HW178774   4.971   4.478  10.595
92314SOL    HW278775   4.992   4.492  10.744
92315SOL     OW78776  11.303  14.750   3.739
92315SOL    HW178777  11.300  14.823   3.676
92315SOL    HW278778  11.392  14.716   3.732
92316SOL     OW78779   8.353   3.925   7.731
92316SOL    HW178780   8.377   4.015   7.750
92316SOL    HW278781   8.417   3.896   7.666
92317SOL     OW78782   8.765   4.278   2.561
92317SOL    HW178783   8.842   4.324   2.594
92317SOL    HW278784   8.742   4.324   2.480
92318SOL     OW78785   2.476  10.021   6.823
92318SOL    HW178786   2.567  10.024   6.794
92318SOL    HW278787   2.445  10.112   6.814
92319SOL     OW78788   5.763   9.693   5.815
92319SOL    HW178789   5.669   9.705   5.827
92319SOL    HW278790   5.798   9.783   5.811
92320SOL     OW78791   0.556   0.969  13.453
92320SOL    HW178792   0.589   1.005  13.371
92320SOL    HW278793   0.551   0.874  13.437
92321SOL     OW78794  14.701   1.336  12.046
92321SOL    HW178795  14.785   1.291  12.034
92321SOL    HW278796  14.686   1.381  11.963
92322SOL     OW78797   9.055   1.837   1.397
92322SOL    HW178798   9.073   1.773   1.328
92322SOL    HW278799   9.138   1.884   1.408
92323SOL     OW78800   0.611   9.462  12.469
92323SOL    HW178801   0.609   9.421  12.556
92323SOL    HW278802   0.633   9.391  12.409
92324SOL     OW78803   1.330   2.662  10.186
92324SOL    HW178804   1.311   2.657  10.280
92324SOL    HW278805   1.303   2.750  10.161
92325SOL     OW78806   7.470   1.557   9.519
92325SOL    HW178807   7.518   1.571   9.601
92325SOL    HW278808   7.500   1.471   9.489
92326SOL     OW78809   6.341  11.610   6.332
92326SOL    HW178810   6.333  11.645   6.243
92326SOL    HW278811   6.312  11.682   6.388
92327SOL     OW78812  14.847   7.543   2.733
92327SOL    HW178813   0.045   7.531   2.681
92327SOL    HW278814  14.832   7.458   2.773
92328SOL     OW78815   6.828   8.211   2.271
92328SOL    HW178816   6.841   8.121   2.242
92328SOL    HW278817   6.912   8.237   2.309
92329SOL     OW78818   8.676  12.245  12.142
92329SOL    HW178819   8.589  12.209  12.161
92329SOL    HW278820   8.665  12.289  12.058
92330SOL     OW78821   9.852   8.248  10.056
92330SOL    HW178822   9.817   8.160  10.067
92330SOL    HW278823   9.932   8.236  10.005
92331SOL     OW78824  12.026   6.707   4.177
92331SOL    HW178825  12.018   6.726   4.083
92331SOL    HW278826  11.973   6.774   4.220
92332SOL     OW78827  13.461  12.758   3.819
92332SOL    HW178828  13.503  12.675   3.842
92332SOL    HW278829  13.377  12.733   3.781
92333SOL     OW78830  13.750   6.279  12.292
92333SOL    HW178831  13.799   6.335  12.352
92333SOL    HW278832  13.659   6.290  12.318
92334SOL     OW78833   9.996   9.451  11.531
92334SOL    HW178834  10.034   9.527  11.485
92334SOL    HW278835   9.917   9.486  11.572
92335SOL     OW78836  10.735  11.632   1.378
92335SOL    HW178837  10.680  11.611   1.302
92335SOL    HW278838  10.682  11.692   1.430
92336SOL     OW78839   6.018   1.768   5.032
92336SOL    HW178840   5.939   1.742   5.079
92336SOL    HW278841   5.995   1.760   4.940
92337SOL     OW78842  10.331  10.638   1.039
92337SOL    HW178843  10.388  10.688   1.097
92337SOL    HW278844  10.283  10.704   0.990
92338SOL     OW78845   0.826  13.358  13.258
92338SOL    HW178846   0.880  13.295  13.307
92338SOL    HW278847   0.785  13.305  13.189
92339SOL     OW78848   1.668   2.109   8.948
92339SOL    HW178849   1.698   2.190   8.989
92339SOL    HW278850   1.615   2.138   8.874
92340SOL     OW78851  12.160  14.308   1.595
92340SOL    HW178852  12.211  14.240   1.552
92340SOL    HW278853  12.101  14.342   1.527
92341SOL     OW78854   3.999   2.607   8.360
92341SOL    HW178855   4.000   2.612   8.264
92341SOL    HW278856   3.985   2.698   8.388
92342SOL     OW78857  11.610   9.578  10.114
92342SOL    HW178858  11.539   9.538  10.166
92342SOL    HW278859  11.663   9.504  10.087
92343SOL     OW78860   5.047   4.455   6.820
92343SOL    HW178861   5.015   4.380   6.770
92343SOL    HW278862   4.976   4.520   6.812
92344SOL     OW78863  12.155   3.313   4.362
92344SOL    HW178864  12.193   3.295   4.276
92344SOL    HW278865  12.179   3.403   4.380
92345SOL     OW78866   1.957   3.439  13.369
92345SOL    HW178867   1.918   3.473  13.289
92345SOL    HW278868   1.955   3.344  13.358
92346SOL     OW78869   7.508   1.289  10.435
92346SOL    HW178870   7.575   1.307  10.501
92346SOL    HW278871   7.469   1.375  10.417
92347SOL     OW78872   8.436  11.606   3.833
92347SOL    HW178873   8.461  11.636   3.745
92347SOL    HW278874   8.516  11.610   3.884
92348SOL     OW78875  14.650   8.303   7.093
92348SOL    HW178876  14.715   8.244   7.131
92348SOL    HW278877  14.569   8.282   7.140
92349SOL     OW78878   0.830   1.347   6.493
92349SOL    HW178879   0.831   1.259   6.454
92349SOL    HW278880   0.890   1.341   6.567
92350SOL     OW78881   2.175   5.370  11.883
92350SOL    HW178882   2.124   5.328  11.814
92350SOL    HW278883   2.242   5.420  11.837
92351SOL     OW78884   1.446   6.558   3.679
92351SOL    HW178885   1.402   6.521   3.756
92351SOL    HW278886   1.440   6.653   3.692
92352SOL     OW78887   0.954   0.043   0.674
92352SOL    HW178888   0.968   0.089   0.757
92352SOL    HW278889   1.037  14.879   0.659
92353SOL     OW78890  11.544   7.587   9.650
92353SOL    HW178891  11.596   7.663   9.625
92353SOL    HW278892  11.456   7.605   9.616
92354SOL     OW78893   8.747   3.816   6.082
92354SOL    HW178894   8.704   3.900   6.072
92354SOL    HW278895   8.676   3.754   6.097
92355SOL     OW78896   1.852   5.003   7.670
92355SOL    HW178897   1.898   5.047   7.741
92355SOL    HW278898   1.796   4.939   7.713
92356SOL     OW78899  14.604  10.720   9.850
92356SOL    HW178900  14.632  10.734   9.759
92356SOL    HW278901  14.668  10.767   9.903
92357SOL     OW78902   3.667   8.052  10.117
92357SOL    HW178903   3.600   7.985  10.130
92357SOL    HW278904   3.717   8.022  10.041
92358SOL     OW78905   1.713   4.586   4.158
92358SOL    HW178906   1.649   4.657   4.151
92358SOL    HW278907   1.679   4.529   4.226
92359SOL     OW78908  10.409   5.462  12.982
92359SOL    HW178909  10.452   5.473  13.066
92359SOL    HW278910  10.318   5.441  13.004
92360SOL     OW78911   2.007   6.604   1.763
92360SOL    HW178912   2.092   6.594   1.721
92360SOL    HW278913   1.947   6.552   1.709
92361SOL     OW78914   5.178   9.296   4.572
92361SOL    HW178915   5.259   9.338   4.544
92361SOL    HW278916   5.206   9.218   4.620
92362SOL     OW78917  13.966   9.702  13.335
92362SOL    HW178918  14.018   9.768  13.381
92362SOL    HW278919  13.976   9.622  13.386
92363SOL     OW78920   6.849  12.688   9.818
92363SOL    HW178921   6.798  12.683   9.738
92363SOL    HW278922   6.837  12.778   9.848
92364SOL     OW78923   4.627   2.189   5.922
92364SOL    HW178924   4.535   2.214   5.913
92364SOL    HW278925   4.667   2.262   5.969
92365SOL     OW78926  10.965   7.441  11.640
92365SOL    HW178927  10.975   7.354  11.602
92365SOL    HW278928  10.873   7.444  11.669
92366SOL     OW78929  10.268  12.918  14.128
92366SOL    HW178930  10.258  12.871  14.211
92366SOL    HW278931  10.349  12.968  14.138
92367SOL     OW78932  14.046   5.107   0.136
92367SOL    HW178933  13.955   5.082   0.118
92367SOL    HW278934  14.067   5.065   0.219
92368SOL     OW78935   8.888   3.188  13.607
92368SOL    HW178936   8.805   3.194  13.560
92368SOL    HW278937   8.912   3.279  13.623
92369SOL     OW78938   0.175  13.703   9.008
92369SOL    HW178939   0.112  13.688   8.938
92369SOL    HW278940   0.260  13.678   8.971
92370SOL     OW78941  14.283   5.081   8.583
92370SOL    HW178942  14.256   5.038   8.502
92370SOL    HW278943  14.333   5.157   8.554
92371SOL     OW78944  10.630  12.865  13.983
92371SOL    HW178945  10.614  12.917  13.904
92371SOL    HW278946  10.584  12.783  13.968
92372SOL     OW78947  13.075  13.992   7.861
92372SOL    HW178948  13.069  14.005   7.767
92372SOL    HW278949  13.108  13.903   7.872
92373SOL     OW78950   8.026  12.124   5.276
92373SOL    HW178951   7.995  12.050   5.224
92373SOL    HW278952   7.967  12.127   5.351
92374SOL     OW78953   2.733   9.155   9.355
92374SOL    HW178954   2.707   9.234   9.402
92374SOL    HW278955   2.663   9.092   9.375
92375SOL     OW78956   6.661   2.002   1.733
92375SOL    HW178957   6.645   1.910   1.752
92375SOL    HW278958   6.725   2.030   1.799
92376SOL     OW78959   6.714   7.993   1.981
92376SOL    HW178960   6.719   8.077   1.935
92376SOL    HW278961   6.630   7.996   2.027
92377SOL     OW78962   4.064   1.904  14.089
92377SOL    HW178963   4.074   1.888  13.995
92377SOL    HW278964   3.969   1.912  14.101
92378SOL     OW78965   1.818   2.964   6.716
92378SOL    HW178966   1.787   3.047   6.679
92378SOL    HW278967   1.909   2.958   6.687
92379SOL     OW78968   3.316   0.246   1.413
92379SOL    HW178969   3.402   0.223   1.377
92379SOL    HW278970   3.255   0.228   1.341
92380SOL     OW78971   4.832  10.998   6.575
92380SOL    HW178972   4.745  10.977   6.541
92380SOL    HW278973   4.874  11.048   6.505
92381SOL     OW78974   6.178   0.407  12.700
92381SOL    HW178975   6.217   0.478  12.649
92381SOL    HW278976   6.084   0.421  12.694
92382SOL     OW78977   1.775   8.877   7.175
92382SOL    HW178978   1.853   8.932   7.172
92382SOL    HW278979   1.808   8.788   7.171
92383SOL     OW78980  10.510   8.790  11.508
92383SOL    HW178981  10.572   8.721  11.483
92383SOL    HW278982  10.427   8.744  11.521
92384SOL     OW78983  14.550   3.702   0.641
92384SOL    HW178984  14.617   3.770   0.643
92384SOL    HW278985  14.557   3.659   0.726
92385SOL     OW78986   6.905  14.349   1.192
92385SOL    HW178987   6.903  14.331   1.098
92385SOL    HW278988   6.973  14.414   1.203
92386SOL     OW78989   7.651   0.296   1.768
92386SOL    HW178990   7.680   0.207   1.787
92386SOL    HW278991   7.558   0.288   1.746
92387SOL     OW78992   8.814   6.279   9.017
92387SOL    HW178993   8.899   6.250   9.051
92387SOL    HW278994   8.750   6.241   9.077
92388SOL     OW78995  11.236   6.416   1.836
92388SOL    HW178996  11.143   6.419   1.858
92388SOL    HW278997  11.280   6.389   1.916
92389SOL     OW78998   5.418  13.238  14.014
92389SOL    HW178999   5.436  13.148  13.988
92389SOL    HW279000   5.504  13.279  14.020
92390SOL     OW79001  13.604   9.053   7.564
92390SOL    HW179002  13.677   9.028   7.620
92390SOL    HW279003  13.532   8.996   7.592
92391SOL     OW79004   6.630  10.370   9.453
92391SOL    HW179005   6.697  10.373   9.522
92391SOL    HW279006   6.614  10.276   9.441
92392SOL     OW79007   1.652   7.429   3.628
92392SOL    HW179008   1.692   7.432   3.715
92392SOL    HW279009   1.592   7.354   3.632
92393SOL     OW79010   5.185  10.483   2.688
92393SOL    HW179011   5.119  10.414   2.688
92393SOL    HW279012   5.257  10.448   2.635
92394SOL     OW79013  14.243   4.498   2.234
92394SOL    HW179014  14.272   4.563   2.170
92394SOL    HW279015  14.257   4.540   2.319
92395SOL     OW79016  14.027   8.059   8.626
92395SOL    HW179017  14.086   8.010   8.683
92395SOL    HW279018  13.957   8.089   8.684
92396SOL     OW79019  14.762   3.004  10.496
92396SOL    HW179020  14.791   3.093  10.515
92396SOL    HW279021  14.814   2.949  10.555
92397SOL     OW79022   2.377   5.254   9.369
92397SOL    HW179023   2.425   5.258   9.287
92397SOL    HW279024   2.291   5.219   9.345
92398SOL     OW79025   5.979   4.204   4.091
92398SOL    HW179026   5.965   4.213   3.997
92398SOL    HW279027   6.065   4.162   4.098
92399SOL     OW79028   7.303  13.929   6.335
92399SOL    HW179029   7.337  13.877   6.408
92399SOL    HW279030   7.365  13.912   6.263
92400SOL     OW79031  12.000  14.821  12.879
92400SOL    HW179032  12.044  14.750  12.926
92400SOL    HW279033  11.956  14.871  12.948
92401SOL     OW79034   5.035   1.869  12.892
92401SOL    HW179035   5.104   1.867  12.959
92401SOL    HW279036   4.976   1.798  12.917
92402SOL     OW79037   9.509   9.067  12.526
92402SOL    HW179038   9.559   9.095  12.602
92402SOL    HW279039   9.417   9.080  12.552
92403SOL     OW79040  12.388   3.050  12.428
92403SOL    HW179041  12.334   3.093  12.495
92403SOL    HW279042  12.335   2.975  12.400
92404SOL     OW79043   4.568   7.499  12.972
92404SOL    HW179044   4.619   7.440  12.916
92404SOL    HW279045   4.631   7.529  13.038
92405SOL     OW79046   8.923   8.772  13.282
92405SOL    HW179047   8.977   8.776  13.203
92405SOL    HW279048   8.834   8.791  13.252
92406SOL     OW79049   8.569   8.083  13.174
92406SOL    HW179050   8.578   8.160  13.119
92406SOL    HW279051   8.508   8.026  13.126
92407SOL     OW79052   8.897  13.460   4.962
92407SOL    HW179053   8.943  13.400   4.903
92407SOL    HW279054   8.827  13.408   4.999
92408SOL     OW79055  11.593   9.242   1.165
92408SOL    HW179056  11.613   9.214   1.255
92408SOL    HW279057  11.499   9.230   1.156
92409SOL     OW79058   4.559  13.283   3.713
92409SOL    HW179059   4.554  13.212   3.650
92409SOL    HW279060   4.540  13.242   3.797
92410SOL     OW79061  11.722   4.649   6.266
92410SOL    HW179062  11.816   4.636   6.255
92410SOL    HW279063  11.688   4.662   6.177
92411SOL     OW79064  12.405  10.952  13.019
92411SOL    HW179065  12.334  11.010  13.050
92411SOL    HW279066  12.379  10.929  12.930
92412SOL     OW79067   8.123   5.129   9.913
92412SOL    HW179068   8.055   5.192   9.893
92412SOL    HW279069   8.122   5.067   9.841
92413SOL     OW79070  13.733   5.766   7.369
92413SOL    HW179071  13.828   5.766   7.364
92413SOL    HW279072  13.704   5.719   7.291
92414SOL     OW79073   5.580   3.859   2.088
92414SOL    HW179074   5.638   3.861   2.164
92414SOL    HW279075   5.634   3.822   2.018
92415SOL     OW79076   7.231   6.401  13.012
92415SOL    HW179077   7.241   6.334  12.944
92415SOL    HW279078   7.139   6.427  13.007
92416SOL     OW79079   2.823   3.430   1.926
92416SOL    HW179080   2.834   3.505   1.868
92416SOL    HW279081   2.863   3.458   2.009
92417SOL     OW79082   3.868   3.886  13.794
92417SOL    HW179083   3.840   3.801  13.758
92417SOL    HW279084   3.824   3.890  13.879
92418SOL     OW79085   4.983   6.103   3.633
92418SOL    HW179086   5.073   6.133   3.630
92418SOL    HW279087   4.932   6.180   3.657
92419SOL     OW79088  14.147  10.173  11.757
92419SOL    HW179089  14.156  10.255  11.807
92419SOL    HW279090  14.054  10.167  11.737
92420SOL     OW79091   0.419   8.879   9.717
92420SOL    HW179092   0.353   8.927   9.769
92420SOL    HW279093   0.481   8.846   9.782
92421SOL     OW79094   5.441   5.600   7.623
92421SOL    HW179095   5.413   5.535   7.558
92421SOL    HW279096   5.406   5.568   7.706
92422SOL     OW79097  12.515   6.278   2.659
92422SOL    HW179098  12.587   6.340   2.642
92422SOL    HW279099  12.524   6.257   2.752
92423SOL     OW79100   2.579  14.010   0.722
92423SOL    HW179101   2.635  13.977   0.651
92423SOL    HW279102   2.622  14.090   0.751
92424SOL     OW79103  11.785   8.403   8.356
92424SOL    HW179104  11.849   8.411   8.285
92424SOL    HW279105  11.831   8.433   8.434
92425SOL     OW79106   3.324   4.003   3.676
92425SOL    HW179107   3.268   3.927   3.688
92425SOL    HW279108   3.281   4.056   3.609
92426SOL     OW79109   3.940   5.379   2.301
92426SOL    HW179110   3.957   5.336   2.385
92426SOL    HW279111   4.021   5.426   2.282
92427SOL     OW79112  11.285  11.757   7.754
92427SOL    HW179113  11.376  11.729   7.747
92427SOL    HW279114  11.237  11.678   7.776
92428SOL     OW79115   1.856  12.480   0.488
92428SOL    HW179116   1.806  12.496   0.568
92428SOL    HW279117   1.888  12.567   0.462
92429SOL     OW79118   8.280   4.715   2.471
92429SOL    HW179119   8.340   4.641   2.478
92429SOL    HW279120   8.193   4.674   2.471
92430SOL     OW79121   4.846   9.225   3.519
92430SOL    HW179122   4.831   9.315   3.548
92430SOL    HW279123   4.935   9.225   3.484
92431SOL     OW79124   7.925  14.631   1.416
92431SOL    HW179125   7.900  14.540   1.401
92431SOL    HW279126   7.903  14.676   1.334
92432SOL     OW79127   6.222   5.101  13.902
92432SOL    HW179128   6.278   5.090  13.825
92432SOL    HW279129   6.146   5.047  13.884
92433SOL     OW79130   6.120  12.226  12.437
92433SOL    HW179131   6.052  12.175  12.394
92433SOL    HW279132   6.196  12.168  12.440
92434SOL     OW79133   1.850   4.070   7.643
92434SOL    HW179134   1.805   4.004   7.591
92434SOL    HW279135   1.797   4.078   7.723
92435SOL     OW79136   3.963   3.735   1.869
92435SOL    HW179137   3.889   3.792   1.848
92435SOL    HW279138   3.927   3.647   1.865
92436SOL     OW79139  10.932   9.097   2.554
92436SOL    HW179140  11.025   9.118   2.562
92436SOL    HW279141  10.897   9.109   2.642
92437SOL     OW79142  12.593   5.158   6.823
92437SOL    HW179143  12.583   5.208   6.742
92437SOL    HW279144  12.503   5.146   6.854
92438SOL     OW79145  10.323   9.507   9.481
92438SOL    HW179146  10.260   9.491   9.551
92438SOL    HW279147  10.321   9.602   9.469
92439SOL     OW79148   9.637   6.102  14.656
92439SOL    HW179149   9.660   6.193  14.678
92439SOL    HW279150   9.567   6.110  14.592
92440SOL     OW79151   7.417   8.436   7.439
92440SOL    HW179152   7.443   8.522   7.471
92440SOL    HW279153   7.358   8.454   7.367
92441SOL     OW79154  14.270  11.871  14.475
92441SOL    HW179155  14.285  11.931  14.548
92441SOL    HW279156  14.355  11.829  14.461
92442SOL     OW79157  12.316   7.276   6.574
92442SOL    HW179158  12.297   7.292   6.482
92442SOL    HW279159  12.364   7.192   6.575
92443SOL     OW79160   6.500  13.820  13.841
92443SOL    HW179161   6.554  13.740  13.837
92443SOL    HW279162   6.518  13.856  13.928
92444SOL     OW79163  14.260   1.416   1.836
92444SOL    HW179164  14.304   1.496   1.864
92444SOL    HW279165  14.308   1.389   1.757
92445SOL     OW79166   8.923  12.749   5.791
92445SOL    HW179167   8.955  12.835   5.819
92445SOL    HW279168   8.846  12.734   5.846
92446SOL     OW79169   4.990  10.329   6.971
92446SOL    HW179170   5.029  10.295   7.051
92446SOL    HW279171   5.037  10.410   6.953
92447SOL     OW79172  10.222  13.431   7.346
92447SOL    HW179173  10.160  13.501   7.365
92447SOL    HW279174  10.281  13.468   7.280
92448SOL     OW79175  11.533   5.628   4.811
92448SOL    HW179176  11.584   5.608   4.732
92448SOL    HW279177  11.586   5.593   4.883
92449SOL     OW79178   0.770  13.075  10.807
92449SOL    HW179179   0.681  13.046  10.783
92449SOL    HW279180   0.772  13.167  10.782
92450SOL     OW79181   7.638  11.775   5.479
92450SOL    HW179182   7.565  11.752   5.536
92450SOL    HW279183   7.715  11.769   5.535
92451SOL     OW79184  12.587   3.426   3.013
92451SOL    HW179185  12.670   3.473   3.023
92451SOL    HW279186  12.522   3.495   2.997
92452SOL     OW79187  10.506   3.319   6.785
92452SOL    HW179188  10.520   3.317   6.691
92452SOL    HW279189  10.544   3.238   6.817
92453SOL     OW79190  11.468   1.473  14.362
92453SOL    HW179191  11.508   1.527  14.431
92453SOL    HW279192  11.526   1.484  14.287
92454SOL     OW79193  13.288   9.968  12.558
92454SOL    HW179194  13.375   9.937  12.536
92454SOL    HW279195  13.257   9.908  12.626
92455SOL     OW79196   8.929   8.476   1.582
92455SOL    HW179197   8.866   8.465   1.512
92455SOL    HW279198   8.946   8.570   1.585
92456SOL     OW79199  13.037   2.825  14.845
92456SOL    HW179200  13.095   2.884  14.796
92456SOL    HW279201  12.962   2.814  14.787
92457SOL     OW79202  13.363  14.040   0.826
92457SOL    HW179203  13.417  14.012   0.752
92457SOL    HW279204  13.423  14.041   0.900
92458SOL     OW79205  14.724   1.988   1.878
92458SOL    HW179206  14.782   1.972   1.804
92458SOL    HW279207  14.706   1.901   1.915
92459SOL     OW79208   9.294  14.735   8.364
92459SOL    HW179209   9.333  14.664   8.313
92459SOL    HW279210   9.369  14.783   8.398
92460SOL     OW79211  12.562   0.570   9.092
92460SOL    HW179212  12.596   0.578   9.181
92460SOL    HW279213  12.638   0.544   9.040
92461SOL     OW79214  12.324   1.750   8.681
92461SOL    HW179215  12.234   1.716   8.677
92461SOL    HW279216  12.332   1.788   8.768
92462SOL     OW79217   6.399   3.620   3.817
92462SOL    HW179218   6.488   3.639   3.846
92462SOL    HW279219   6.361   3.705   3.799
92463SOL     OW79220   0.945   6.705   2.000
92463SOL    HW179221   0.933   6.799   2.005
92463SOL    HW279222   1.033   6.690   2.034
92464SOL     OW79223  12.948   1.137  11.376
92464SOL    HW179224  12.954   1.221  11.330
92464SOL    HW279225  12.937   1.073  11.305
92465SOL     OW79226  13.840   9.238  11.188
92465SOL    HW179227  13.852   9.155  11.235
92465SOL    HW279228  13.851   9.215  11.096
92466SOL     OW79229   8.515   8.378   5.268
92466SOL    HW179230   8.510   8.320   5.344
92466SOL    HW279231   8.588   8.437   5.287
92467SOL     OW79232  11.266   8.108  14.575
92467SOL    HW179233  11.254   8.135  14.484
92467SOL    HW279234  11.191   8.147  14.622
92468SOL     OW79235  14.209   0.490   8.831
92468SOL    HW179236  14.140   0.528   8.884
92468SOL    HW279237  14.254   0.429   8.890
92469SOL     OW79238   1.769   6.758  10.425
92469SOL    HW179239   1.787   6.749  10.518
92469SOL    HW279240   1.746   6.850  10.414
92470SOL     OW79241   1.757  13.701   4.538
92470SOL    HW179242   1.823  13.761   4.573
92470SOL    HW279243   1.690  13.696   4.606
92471SOL     OW79244   3.561  10.899   2.203
92471SOL    HW179245   3.535  10.964   2.138
92471SOL    HW279246   3.622  10.945   2.261
92472SOL     OW79247   2.013   2.656  11.501
92472SOL    HW179248   2.072   2.725  11.470
92472SOL    HW279249   1.935   2.703  11.530
92473SOL     OW79250   5.786   4.409  11.196
92473SOL    HW179251   5.806   4.452  11.279
92473SOL    HW279252   5.869   4.409  11.148
92474SOL     OW79253   2.207   2.314  13.760
92474SOL    HW179254   2.241   2.234  13.721
92474SOL    HW279255   2.245   2.317  13.848
92475SOL     OW79256   1.138  11.884   2.520
92475SOL    HW179257   1.085  11.866   2.598
92475SOL    HW279258   1.145  11.980   2.518
92476SOL     OW79259  12.393   1.165   6.362
92476SOL    HW179260  12.347   1.242   6.398
92476SOL    HW279261  12.463   1.148   6.424
92477SOL     OW79262   2.180   0.437   2.703
92477SOL    HW179263   2.169   0.530   2.721
92477SOL    HW279264   2.130   0.392   2.771
92478SOL     OW79265   0.028   6.703   8.094
92478SOL    HW179266   0.115   6.717   8.133
92478SOL    HW279267  14.872   6.791   8.088
92479SOL     OW79268   5.051  12.120  10.251
92479SOL    HW179269   5.048  12.047  10.189
92479SOL    HW279270   4.960  12.149  10.258
92480SOL     OW79271   7.490   5.923   9.848
92480SOL    HW179272   7.545   5.911   9.926
92480SOL    HW279273   7.469   5.834   9.819
92481SOL     OW79274   8.935  11.847  11.394
92481SOL    HW179275   8.873  11.818  11.461
92481SOL    HW279276   8.937  11.942  11.401
92482SOL     OW79277   9.614   8.775   3.085
92482SOL    HW179278   9.589   8.868   3.088
92482SOL    HW279279   9.538   8.729   3.122
92483SOL     OW79280   1.508  13.203  14.590
92483SOL    HW179281   1.443  13.270  14.569
92483SOL    HW279282   1.574  13.249  14.641
92484SOL     OW79283   5.191   8.732   6.505
92484SOL    HW179284   5.101   8.741   6.534
92484SOL    HW279285   5.193   8.646   6.461
92485SOL     OW79286   9.633   4.283  14.846
92485SOL    HW179287   9.567   4.285  14.776
92485SOL    HW279288   9.582   4.281   0.045
92486SOL     OW79289   7.145   2.060   8.406
92486SOL    HW179290   7.132   2.145   8.448
92486SOL    HW279291   7.215   2.019   8.458
92487SOL     OW79292   7.773  13.183   0.383
92487SOL    HW179293   7.745  13.200   0.293
92487SOL    HW279294   7.729  13.250   0.435
92488SOL     OW79295  10.733   2.261  11.575
92488SOL    HW179296  10.789   2.339  11.573
92488SOL    HW279297  10.655   2.289  11.624
92489SOL     OW79298  12.421   1.463   4.232
92489SOL    HW179299  12.348   1.406   4.205
92489SOL    HW279300  12.491   1.403   4.256
92490SOL     OW79301   9.289  11.107  14.807
92490SOL    HW179302   9.251  11.195  14.805
92490SOL    HW279303   9.310  11.088  14.715
92491SOL     OW79304  10.173   2.162   1.258
92491SOL    HW179305  10.137   2.210   1.184
92491SOL    HW279306  10.109   2.175   1.328
92492SOL     OW79307  10.511   2.538   2.483
92492SOL    HW179308  10.599   2.555   2.517
92492SOL    HW279309  10.520   2.547   2.388
92493SOL     OW79310   0.874  14.267  11.264
92493SOL    HW179311   0.828  14.292  11.344
92493SOL    HW279312   0.806  14.230  11.207
92494SOL     OW79313   4.190   2.982  14.030
92494SOL    HW179314   4.162   2.890  14.030
92494SOL    HW279315   4.286   2.977  14.036
92495SOL     OW79316   6.393   0.482   6.225
92495SOL    HW179317   6.479   0.499   6.185
92495SOL    HW279318   6.397   0.389   6.250
92496SOL     OW79319   1.242   1.650  11.710
92496SOL    HW179320   1.300   1.599  11.653
92496SOL    HW279321   1.166   1.670  11.655
92497SOL     OW79322   0.265   9.244  10.866
92497SOL    HW179323   0.295   9.335  10.859
92497SOL    HW279324   0.235   9.221  10.778
92498SOL     OW79325   2.237   4.266   1.123
92498SOL    HW179326   2.329   4.291   1.126
92498SOL    HW279327   2.191   4.337   1.167
92499SOL     OW79328   4.995   9.836  12.925
92499SOL    HW179329   4.931   9.907  12.913
92499SOL    HW279330   5.053   9.842  12.849
92500SOL     OW79331   8.951   5.225   3.628
92500SOL    HW179332   8.995   5.141   3.614
92500SOL    HW279333   8.995   5.286   3.569
92501SOL     OW79334   6.055   8.764   9.062
92501SOL    HW179335   6.055   8.757   8.966
92501SOL    HW279336   6.070   8.857   9.079
92502SOL     OW79337   9.840  13.105   9.625
92502SOL    HW179338   9.826  13.017   9.661
92502SOL    HW279339   9.830  13.094   9.531
92503SOL     OW79340  11.442   1.767  13.880
92503SOL    HW179341  11.530   1.804  13.869
92503SOL    HW279342  11.385   1.842  13.894
92504SOL     OW79343  14.085   4.479   5.235
92504SOL    HW179344  14.140   4.436   5.170
92504SOL    HW279345  14.142   4.491   5.311
92505SOL     OW79346  11.301   6.755  13.203
92505SOL    HW179347  11.280   6.776  13.112
92505SOL    HW279348  11.390   6.719  13.200
92506SOL     OW79349  11.015   6.144  13.405
92506SOL    HW179350  11.072   6.126  13.331
92506SOL    HW279351  11.038   6.234  13.432
92507SOL     OW79352   5.789   4.780   6.969
92507SOL    HW179353   5.755   4.782   6.879
92507SOL    HW279354   5.718   4.816   7.022
92508SOL     OW79355   5.051   0.834   3.574
92508SOL    HW179356   4.974   0.799   3.618
92508SOL    HW279357   5.069   0.916   3.621
92509SOL     OW79358   4.001   5.173   7.994
92509SOL    HW179359   3.928   5.137   7.944
92509SOL    HW279360   4.075   5.114   7.975
92510SOL     OW79361   4.300   6.456  11.427
92510SOL    HW179362   4.231   6.389  11.429
92510SOL    HW279363   4.266   6.523  11.367
92511SOL     OW79364  13.862   8.155  14.096
92511SOL    HW179365  13.924   8.082  14.106
92511SOL    HW279366  13.842   8.156  14.003
92512SOL     OW79367   2.042   2.994   4.249
92512SOL    HW179368   1.957   2.986   4.291
92512SOL    HW279369   2.051   2.916   4.195
92513SOL     OW79370  13.466   2.594   5.166
92513SOL    HW179371  13.479   2.550   5.082
92513SOL    HW279372  13.489   2.686   5.149
92514SOL     OW79373  11.814   9.148   3.556
92514SOL    HW179374  11.810   9.243   3.561
92514SOL    HW279375  11.831   9.129   3.464
92515SOL     OW79376  10.372   5.313  12.558
92515SOL    HW179377  10.304   5.327  12.492
92515SOL    HW279378  10.394   5.400  12.589
92516SOL     OW79379   5.750   3.011   6.178
92516SOL    HW179380   5.671   2.969   6.143
92516SOL    HW279381   5.722   3.050   6.260
92517SOL     OW79382   2.012  12.890   9.989
92517SOL    HW179383   2.080  12.870  10.053
92517SOL    HW279384   1.935  12.909  10.041
92518SOL     OW79385   8.595  13.595   6.316
92518SOL    HW179386   8.501  13.595   6.334
92518SOL    HW279387   8.634  13.552   6.391
92519SOL     OW79388   3.613   0.151   9.614
92519SOL    HW179389   3.579   0.063   9.598
92519SOL    HW279390   3.580   0.175   9.701
92520SOL     OW79391   9.441   5.027  10.760
92520SOL    HW179392   9.410   5.054  10.847
92520SOL    HW279393   9.522   4.980  10.778
92521SOL     OW79394   6.690  11.332   6.192
92521SOL    HW179395   6.768  11.383   6.174
92521SOL    HW279396   6.664  11.358   6.280
92522SOL     OW79397   5.021   2.685   0.951
92522SOL    HW179398   5.095   2.742   0.930
92522SOL    HW279399   4.971   2.733   1.016
92523SOL     OW79400  10.589   2.891   3.584
92523SOL    HW179401  10.640   2.921   3.660
92523SOL    HW279402  10.521   2.958   3.574
92524SOL     OW79403   4.832   1.337   3.294
92524SOL    HW179404   4.816   1.259   3.347
92524SOL    HW279405   4.747   1.382   3.292
92525SOL     OW79406   7.421   7.914   4.723
92525SOL    HW179407   7.362   7.890   4.794
92525SOL    HW279408   7.504   7.872   4.745
92526SOL     OW79409  12.528  10.449   6.521
92526SOL    HW179410  12.512  10.543   6.520
92526SOL    HW279411  12.612  10.440   6.567
92527SOL     OW79412   5.066   8.802  10.605
92527SOL    HW179413   5.018   8.771  10.681
92527SOL    HW279414   5.000   8.815  10.537
92528SOL     OW79415  13.258   1.569   2.169
92528SOL    HW179416  13.290   1.567   2.079
92528SOL    HW279417  13.247   1.662   2.189
92529SOL     OW79418   9.237  11.384   5.148
92529SOL    HW179419   9.169  11.377   5.081
92529SOL    HW279420   9.239  11.477   5.171
92530SOL     OW79421  12.289   2.736   1.000
92530SOL    HW179422  12.357   2.731   1.068
92530SOL    HW279423  12.265   2.828   0.996
92531SOL     OW79424   6.015   5.007  13.780
92531SOL    HW179425   6.022   4.964  13.695
92531SOL    HW279426   5.928   4.983  13.812
92532SOL     OW79427   8.458   7.133   0.124
92532SOL    HW179428   8.467   7.228   0.134
92532SOL    HW279429   8.379   7.111   0.173
92533SOL     OW79430   9.091  13.980   7.170
92533SOL    HW179431   9.067  13.888   7.165
92533SOL    HW279432   9.079  14.013   7.081
92534SOL     OW79433  12.829   8.788   2.693
92534SOL    HW179434  12.762   8.727   2.662
92534SOL    HW279435  12.910   8.758   2.650
92535SOL     OW79436   0.116   4.494   9.726
92535SOL    HW179437   0.189   4.468   9.781
92535SOL    HW279438   0.100   4.586   9.749
92536SOL     OW79439   9.708  12.123  14.251
92536SOL    HW179440   9.742  12.089  14.334
92536SOL    HW279441   9.636  12.181  14.276
92537SOL     OW79442  10.254   0.853  14.136
92537SOL    HW179443  10.228   0.939  14.102
92537SOL    HW279444  10.288   0.806  14.060
92538SOL     OW79445   1.549   2.820   5.315
92538SOL    HW179446   1.510   2.792   5.232
92538SOL    HW279447   1.484   2.798   5.381
92539SOL     OW79448   6.028   2.037   2.088
92539SOL    HW179449   5.947   1.986   2.087
92539SOL    HW279450   6.015   2.103   2.155
92540SOL     OW79451  11.492   3.177  13.855
92540SOL    HW179452  11.567   3.123  13.879
92540SOL    HW279453  11.528   3.242  13.794
92541SOL     OW79454  14.776   5.577  11.451
92541SOL    HW179455  14.814   5.573  11.363
92541SOL    HW279456  14.723   5.498  11.457
92542SOL     OW79457   6.264  11.879   1.452
92542SOL    HW179458   6.274  11.959   1.502
92542SOL    HW279459   6.189  11.895   1.395
92543SOL     OW79460   9.666  14.569   4.026
92543SOL    HW179461   9.735  14.555   3.962
92543SOL    HW279462   9.641  14.481   4.054
92544SOL     OW79463   2.074   8.403  14.264
92544SOL    HW179464   2.110   8.454  14.336
92544SOL    HW279465   2.027   8.331  14.306
92545SOL     OW79466  14.210   9.452  13.157
92545SOL    HW179467  14.225   9.360  13.180
92545SOL    HW279468  14.274   9.470  13.088
92546SOL     OW79469  14.503  11.339   6.921
92546SOL    HW179470  14.466  11.422   6.950
92546SOL    HW279471  14.469  11.327   6.832
92547SOL     OW79472  10.018  14.805   8.332
92547SOL    HW179473  10.095  14.803   8.390
92547SOL    HW279474  10.027   0.005   8.284
92548SOL     OW79475   3.170  10.347   1.328
92548SOL    HW179476   3.114  10.290   1.276
92548SOL    HW279477   3.114  10.377   1.400
92549SOL     OW79478   9.276   8.778  11.360
92549SOL    HW179479   9.198   8.814  11.318
92549SOL    HW279480   9.271   8.810  11.450
92550SOL     OW79481   1.310   5.514   7.550
92550SOL    HW179482   1.331   5.421   7.558
92550SOL    HW279483   1.375   5.547   7.487
92551SOL     OW79484  10.627   6.877   1.535
92551SOL    HW179485  10.673   6.867   1.452
92551SOL    HW279486  10.534   6.871   1.512
92552SOL     OW79487  14.512   4.326   7.550
92552SOL    HW179488  14.446   4.368   7.495
92552SOL    HW279489  14.464   4.258   7.598
92553SOL     OW79490  10.289   2.048   7.471
92553SOL    HW179491  10.327   1.960   7.479
92553SOL    HW279492  10.326   2.098   7.543
92554SOL     OW79493  12.536  11.338   6.608
92554SOL    HW179494  12.533  11.391   6.687
92554SOL    HW279495  12.517  11.249   6.637
92555SOL     OW79496  10.039  11.269   0.727
92555SOL    HW179497   9.995  11.299   0.806
92555SOL    HW279498  10.015  11.334   0.660
92556SOL     OW79499  11.571  10.836   6.027
92556SOL    HW179500  11.602  10.876   5.946
92556SOL    HW279501  11.539  10.909   6.080
92557SOL     OW79502  13.518  12.018   1.320
92557SOL    HW179503  13.554  12.098   1.282
92557SOL    HW279504  13.588  11.953   1.309
92558SOL     OW79505  14.122   9.266   2.987
92558SOL    HW179506  14.178   9.224   3.052
92558SOL    HW279507  14.051   9.203   2.973
92559SOL     OW79508   7.322   5.582   0.459
92559SOL    HW179509   7.305   5.666   0.417
92559SOL    HW279510   7.373   5.603   0.537
92560SOL     OW79511  14.612   9.842   3.645
92560SOL    HW179512  14.637   9.876   3.559
92560SOL    HW279513  14.536   9.786   3.628
92561SOL     OW79514   4.266   3.237  14.184
92561SOL    HW179515   4.354   3.223  14.218
92561SOL    HW279516   4.240   3.152  14.148
92562SOL     OW79517  12.378  14.338   4.272
92562SOL    HW179518  12.381  14.416   4.327
92562SOL    HW279519  12.469  14.324   4.245
92563SOL     OW79520  14.349  11.749   8.922
92563SOL    HW179521  14.362  11.751   9.016
92563SOL    HW279522  14.375  11.661   8.895
92564SOL     OW79523  14.240   1.053   1.473
92564SOL    HW179524  14.149   1.060   1.501
92564SOL    HW279525  14.234   1.034   1.379
92565SOL     OW79526   4.310   0.403  13.055
92565SOL    HW179527   4.253   0.469  13.017
92565SOL    HW279528   4.374   0.384  12.987
92566SOL     OW79529   0.340  12.961   1.223
92566SOL    HW179530   0.312  12.995   1.138
92566SOL    HW279531   0.409  12.898   1.203
92567SOL     OW79532   7.063   1.186   4.844
92567SOL    HW179533   6.981   1.220   4.879
92567SOL    HW279534   7.074   1.101   4.887
92568SOL     OW79535   5.635   2.547  11.184
92568SOL    HW179536   5.677   2.465  11.157
92568SOL    HW279537   5.558   2.518  11.234
92569SOL     OW79538   6.863   3.584  10.346
92569SOL    HW179539   6.864   3.494  10.378
92569SOL    HW279540   6.867   3.638  10.424
92570SOL     OW79541   6.864   7.284  10.124
92570SOL    HW179542   6.848   7.204  10.174
92570SOL    HW279543   6.785   7.336  10.135
92571SOL     OW79544   2.863   0.638   5.654
92571SOL    HW179545   2.921   0.564   5.669
92571SOL    HW279546   2.914   0.714   5.681
92572SOL     OW79547  10.446   6.312   6.642
92572SOL    HW179548  10.519   6.371   6.623
92572SOL    HW279549  10.369   6.356   6.607
92573SOL     OW79550   0.953  13.426   1.293
92573SOL    HW179551   0.891  13.444   1.223
92573SOL    HW279552   0.898  13.406   1.369
92574SOL     OW79553   3.581   2.711   0.519
92574SOL    HW179554   3.593   2.690   0.427
92574SOL    HW279555   3.579   2.807   0.521
92575SOL     OW79556  11.276  11.160  12.360
92575SOL    HW179557  11.273  11.248  12.323
92575SOL    HW279558  11.326  11.169  12.441
92576SOL     OW79559   3.514   4.002   7.567
92576SOL    HW179560   3.446   4.054   7.610
92576SOL    HW279561   3.513   3.918   7.613
92577SOL     OW79562   9.392   4.175   1.140
92577SOL    HW179563   9.327   4.230   1.185
92577SOL    HW279564   9.360   4.085   1.152
92578SOL     OW79565  11.431   0.831   0.310
92578SOL    HW179566  11.505   0.884   0.282
92578SOL    HW279567  11.357   0.864   0.260
92579SOL     OW79568   6.222  10.647   8.427
92579SOL    HW179569   6.266  10.732   8.438
92579SOL    HW279570   6.168  10.657   8.349
92580SOL     OW79571   1.954  14.213   4.453
92580SOL    HW179572   1.863  14.214   4.421
92580SOL    HW279573   2.007  14.216   4.374
92581SOL     OW79574  10.945   2.989   8.402
92581SOL    HW179575  10.941   3.051   8.475
92581SOL    HW279576  10.865   3.005   8.352
92582SOL     OW79577   6.926  13.271   6.523
92582SOL    HW179578   6.897  13.274   6.614
92582SOL    HW279579   6.995  13.205   6.522
92583SOL     OW79580   6.103   7.762  13.286
92583SOL    HW179581   6.191   7.796  13.276
92583SOL    HW279582   6.095   7.740  13.379
92584SOL     OW79583  11.100   4.198   4.565
92584SOL    HW179584  11.131   4.283   4.597
92584SOL    HW279585  11.014   4.216   4.528
92585SOL     OW79586   6.352   6.268   8.904
92585SOL    HW179587   6.323   6.211   8.975
92585SOL    HW279588   6.330   6.220   8.824
92586SOL     OW79589   4.832  13.119   1.496
92586SOL    HW179590   4.835  13.065   1.417
92586SOL    HW279591   4.849  13.208   1.466
92587SOL     OW79592   9.801   5.737   8.776
92587SOL    HW179593   9.776   5.755   8.685
92587SOL    HW279594   9.877   5.679   8.769
92588SOL     OW79595   1.340   6.568  13.835
92588SOL    HW179596   1.352   6.604  13.923
92588SOL    HW279597   1.345   6.643  13.777
92589SOL     OW79598   0.548   5.514   2.362
92589SOL    HW179599   0.491   5.488   2.434
92589SOL    HW279600   0.494   5.571   2.307
92590SOL     OW79601  12.147   8.691  11.333
92590SOL    HW179602  12.135   8.646  11.250
92590SOL    HW279603  12.062   8.686  11.376
92591SOL     OW79604  11.715   1.026  12.254
92591SOL    HW179605  11.747   1.101  12.205
92591SOL    HW279606  11.625   1.014  12.222
92592SOL     OW79607   2.452  10.070   3.957
92592SOL    HW179608   2.541  10.102   3.965
92592SOL    HW279609   2.402  10.143   3.921
92593SOL     OW79610   9.289  10.938  12.547
92593SOL    HW179611   9.201  10.946  12.510
92593SOL    HW279612   9.343  10.909  12.473
92594SOL     OW79613   8.109  12.943   1.599
92594SOL    HW179614   8.177  12.884   1.634
92594SOL    HW279615   8.142  12.968   1.513
92595SOL     OW79616   1.610   1.849   1.730
92595SOL    HW179617   1.688   1.904   1.722
92595SOL    HW279618   1.624   1.779   1.667
92596SOL     OW79619  13.136  13.351   7.678
92596SOL    HW179620  13.182  13.293   7.738
92596SOL    HW279621  13.044  13.325   7.684
92597SOL     OW79622  12.609   5.271  11.127
92597SOL    HW179623  12.676   5.321  11.174
92597SOL    HW279624  12.616   5.183  11.163
92598SOL     OW79625   3.271   6.386  14.628
92598SOL    HW179626   3.298   6.343  14.709
92598SOL    HW279627   3.305   6.329  14.559
92599SOL     OW79628   2.684  11.538   7.649
92599SOL    HW179629   2.693  11.460   7.595
92599SOL    HW279630   2.738  11.521   7.726
92600SOL     OW79631  10.076   6.787  12.559
92600SOL    HW179632  10.153   6.762  12.611
92600SOL    HW279633  10.110   6.794  12.470
92601SOL     OW79634   9.682   3.052   1.531
92601SOL    HW179635   9.712   3.122   1.473
92601SOL    HW279636   9.623   3.095   1.593
92602SOL     OW79637  11.116   4.576  12.640
92602SOL    HW179638  11.193   4.523  12.661
92602SOL    HW279639  11.072   4.588  12.724
92603SOL     OW79640  12.702   3.364   8.264
92603SOL    HW179641  12.647   3.299   8.220
92603SOL    HW279642  12.695   3.442   8.209
92604SOL     OW79643  13.791   3.181  12.274
92604SOL    HW179644  13.871   3.132  12.254
92604SOL    HW279645  13.782   3.243  12.202
92605SOL     OW79646   5.185  13.803   5.842
92605SOL    HW179647   5.247  13.733   5.863
92605SOL    HW279648   5.129  13.810   5.919
92606SOL     OW79649  14.209   3.259   9.387
92606SOL    HW179650  14.269   3.242   9.314
92606SOL    HW279651  14.263   3.303   9.453
92607SOL     OW79652  11.669   6.865   9.661
92607SOL    HW179653  11.600   6.885   9.723
92607SOL    HW279654  11.666   6.770   9.651
92608SOL     OW79655  12.617   7.821  13.003
92608SOL    HW179656  12.537   7.795  13.049
92608SOL    HW279657  12.688   7.789  13.058
92609SOL     OW79658   0.535  10.410   6.442
92609SOL    HW179659   0.496  10.494   6.465
92609SOL    HW279660   0.481  10.377   6.370
92610SOL     OW79661  12.049   6.971  11.490
92610SOL    HW179662  12.088   6.994  11.406
92610SOL    HW279663  11.975   7.032  11.499
92611SOL     OW79664  14.369   3.679   8.336
92611SOL    HW179665  14.450   3.677   8.387
92611SOL    HW279666  14.348   3.586   8.321
92612SOL     OW79667   6.590  12.342   6.458
92612SOL    HW179668   6.630  12.380   6.380
92612SOL    HW279669   6.580  12.416   6.518
92613SOL     OW79670   0.697   9.212  14.536
92613SOL    HW179671   0.664   9.272  14.603
92613SOL    HW279672   0.643   9.230  14.459
92614SOL     OW79673  11.364  11.658   6.919
92614SOL    HW179674  11.401  11.702   6.996
92614SOL    HW279675  11.347  11.729   6.857
92615SOL     OW79676   0.456   0.521  11.254
92615SOL    HW179677   0.414   0.605  11.232
92615SOL    HW279678   0.519   0.507  11.183
92616SOL     OW79679  13.049   2.397  13.142
92616SOL    HW179680  12.984   2.328  13.136
92616SOL    HW279681  13.075   2.398  13.234
92617SOL     OW79682   6.681   0.099  14.520
92617SOL    HW179683   6.750   0.153  14.559
92617SOL    HW279684   6.620   0.083  14.592
92618SOL     OW79685   6.021   4.469  11.567
92618SOL    HW179686   5.950   4.412  11.597
92618SOL    HW279687   6.094   4.449  11.627
92619SOL     OW79688   8.134  14.779   0.270
92619SOL    HW179689   8.113  14.867   0.301
92619SOL    HW279690   8.222  14.762   0.304
92620SOL     OW79691  14.341  10.114   8.962
92620SOL    HW179692  14.253  10.080   8.977
92620SOL    HW279693  14.399  10.040   8.980
92621SOL     OW79694   4.459   9.331   1.511
92621SOL    HW179695   4.427   9.245   1.539
92621SOL    HW279696   4.397   9.393   1.548
92622SOL     OW79697   5.610   1.836   4.475
92622SOL    HW179698   5.652   1.779   4.410
92622SOL    HW279699   5.554   1.777   4.525
92623SOL     OW79700   5.083   8.965   5.179
92623SOL    HW179701   5.079   9.060   5.192
92623SOL    HW279702   4.992   8.939   5.167
92624SOL     OW79703  13.899   0.156  11.932
92624SOL    HW179704  13.826   0.217  11.921
92624SOL    HW279705  13.858   0.069  11.930
92625SOL     OW79706   8.480  11.451   6.192
92625SOL    HW179707   8.443  11.539   6.196
92625SOL    HW279708   8.573  11.465   6.172
92626SOL     OW79709   5.041   3.717   7.044
92626SOL    HW179710   5.016   3.634   7.004
92626SOL    HW279711   5.113   3.694   7.104
92627SOL     OW79712   1.681  10.793  13.454
92627SOL    HW179713   1.623  10.824  13.523
92627SOL    HW279714   1.631  10.724  13.409
92628SOL     OW79715   1.445  13.010   1.333
92628SOL    HW179716   1.436  13.040   1.423
92628SOL    HW279717   1.512  13.067   1.295
92629SOL     OW79718   4.507   6.778   2.765
92629SOL    HW179719   4.588   6.827   2.781
92629SOL    HW279720   4.439   6.830   2.809
92630SOL     OW79721   8.211  13.494   6.492
92630SOL    HW179722   8.224  13.520   6.583
92630SOL    HW279723   8.122  13.459   6.490
92631SOL     OW79724   5.333  10.503  13.883
92631SOL    HW179725   5.412  10.475  13.929
92631SOL    HW279726   5.288  10.561  13.944
92632SOL     OW79727   2.686   6.976   8.281
92632SOL    HW179728   2.649   6.888   8.277
92632SOL    HW279729   2.780   6.963   8.290
92633SOL     OW79730  10.663   3.635  14.395
92633SOL    HW179731  10.737   3.664  14.341
92633SOL    HW279732  10.586   3.667  14.348
92634SOL     OW79733   2.542   1.339  12.892
92634SOL    HW179734   2.634   1.318  12.906
92634SOL    HW279735   2.536   1.433  12.908
92635SOL     OW79736   2.149  13.452   4.765
92635SOL    HW179737   2.164  13.368   4.808
92635SOL    HW279738   2.054  13.459   4.758
92636SOL     OW79739  12.765  13.535  11.891
92636SOL    HW179740  12.820  13.555  11.816
92636SOL    HW279741  12.826  13.498  11.956
92637SOL     OW79742   8.878  14.442   8.410
92637SOL    HW179743   8.927  14.362   8.392
92637SOL    HW279744   8.789  14.413   8.426
92638SOL     OW79745   6.213   0.126   6.443
92638SOL    HW179746   6.237   0.154   6.531
92638SOL    HW279747   6.145   0.188   6.416
92639SOL     OW79748  13.482   5.940   5.297
92639SOL    HW179749  13.436   6.017   5.262
92639SOL    HW279750  13.414   5.890   5.342
92640SOL     OW79751   6.974   1.859   9.407
92640SOL    HW179752   6.890   1.902   9.388
92640SOL    HW279753   7.039   1.929   9.402
92641SOL     OW79754   4.256   9.256   3.409
92641SOL    HW179755   4.350   9.256   3.391
92641SOL    HW279756   4.216   9.292   3.330
92642SOL     OW79757   1.656   5.815   6.901
92642SOL    HW179758   1.576   5.763   6.908
92642SOL    HW279759   1.629   5.904   6.925
92643SOL     OW79760  14.059   2.972   6.063
92643SOL    HW179761  14.038   2.926   6.144
92643SOL    HW279762  14.080   2.903   6.001
92644SOL     OW79763   2.507  12.787   6.210
92644SOL    HW179764   2.506  12.708   6.264
92644SOL    HW279765   2.424  12.784   6.162
92645SOL     OW79766   7.345   8.090  13.496
92645SOL    HW179767   7.285   8.159  13.527
92645SOL    HW279768   7.332   8.088  13.402
92646SOL     OW79769   4.412  10.022  10.501
92646SOL    HW179770   4.436   9.952  10.562
92646SOL    HW279771   4.320  10.040  10.521
92647SOL     OW79772   4.878   9.771   0.490
92647SOL    HW179773   4.926   9.796   0.568
92647SOL    HW279774   4.795   9.735   0.523
92648SOL     OW79775   4.529   6.444   7.542
92648SOL    HW179776   4.613   6.443   7.496
92648SOL    HW279777   4.533   6.368   7.600
92649SOL     OW79778  13.030   0.474   8.645
92649SOL    HW179779  13.010   0.431   8.729
92649SOL    HW279780  12.957   0.535   8.632
92650SOL     OW79781   5.425   8.794   7.029
92650SOL    HW179782   5.372   8.726   6.986
92650SOL    HW279783   5.414   8.871   6.972
92651SOL     OW79784   4.022   7.893   6.149
92651SOL    HW179785   4.026   7.934   6.062
92651SOL    HW279786   3.929   7.896   6.172
92652SOL     OW79787   4.210   2.392   9.475
92652SOL    HW179788   4.184   2.337   9.549
92652SOL    HW279789   4.199   2.336   9.398
92653SOL     OW79790   2.152   1.744   7.319
92653SOL    HW179791   2.205   1.706   7.389
92653SOL    HW279792   2.113   1.822   7.359
92654SOL     OW79793  12.492  10.842   2.209
92654SOL    HW179794  12.441  10.910   2.254
92654SOL    HW279795  12.442  10.762   2.222
92655SOL     OW79796   8.778   4.341   8.316
92655SOL    HW179797   8.841   4.397   8.362
92655SOL    HW279798   8.819   4.326   8.230
92656SOL     OW79799   2.358  10.589   6.804
92656SOL    HW179800   2.351  10.577   6.899
92656SOL    HW279801   2.422  10.659   6.794
92657SOL     OW79802   8.508   1.283  12.269
92657SOL    HW179803   8.547   1.215  12.215
92657SOL    HW279804   8.445   1.237  12.324
92658SOL     OW79805   8.125  10.038   8.406
92658SOL    HW179806   8.195   9.999   8.459
92658SOL    HW279807   8.167  10.113   8.362
92659SOL     OW79808   6.807   8.607   0.994
92659SOL    HW179809   6.869   8.598   0.922
92659SOL    HW279810   6.856   8.652   1.063
92660SOL     OW79811   9.381   4.676  12.049
92660SOL    HW179812   9.293   4.688  12.085
92660SOL    HW279813   9.407   4.764  12.022
92661SOL     OW79814   3.519   1.251  14.694
92661SOL    HW179815   3.526   1.250  14.790
92661SOL    HW279816   3.584   1.186  14.665
92662SOL     OW79817  12.967   7.661  10.774
92662SOL    HW179818  12.923   7.716  10.839
92662SOL    HW279819  12.971   7.715  10.696
92663SOL     OW79820   8.670   6.109   5.953
92663SOL    HW179821   8.763   6.087   5.959
92663SOL    HW279822   8.656   6.127   5.860
92664SOL     OW79823  13.153  10.681   1.732
92664SOL    HW179824  13.067  10.714   1.705
92664SOL    HW279825  13.155  10.696   1.826
92665SOL     OW79826   9.845   2.810   9.036
92665SOL    HW179827   9.763   2.825   9.082
92665SOL    HW279828   9.823   2.748   8.966
92666SOL     OW79829   0.258   3.271  11.123
92666SOL    HW179830   0.287   3.186  11.091
92666SOL    HW279831   0.173   3.285  11.080
92667SOL     OW79832   7.928   7.785   9.637
92667SOL    HW179833   7.951   7.753   9.550
92667SOL    HW279834   7.990   7.855   9.655
92668SOL     OW79835   6.043  10.826   6.474
92668SOL    HW179836   5.951  10.854   6.475
92668SOL    HW279837   6.041  10.737   6.508
92669SOL     OW79838   0.137   4.302   2.511
92669SOL    HW179839   0.184   4.317   2.429
92669SOL    HW279840   0.105   4.389   2.536
92670SOL     OW79841   0.473   5.731  12.924
92670SOL    HW179842   0.549   5.721  12.867
92670SOL    HW279843   0.398   5.729  12.865
92671SOL     OW79844  10.897  10.708  12.984
92671SOL    HW179845  10.846  10.789  12.996
92671SOL    HW279846  10.832  10.644  12.955
92672SOL     OW79847  11.860  14.173   4.002
92672SOL    HW179848  11.884  14.245   3.943
92672SOL    HW279849  11.904  14.193   4.084
92673SOL     OW79850  12.663   8.567  11.979
92673SOL    HW179851  12.627   8.533  12.061
92673SOL    HW279852  12.588   8.606  11.934
92674SOL     OW79853   5.840   8.676  11.129
92674SOL    HW179854   5.792   8.605  11.171
92674SOL    HW279855   5.932   8.649  11.136
92675SOL     OW79856   8.301  13.366   7.299
92675SOL    HW179857   8.207  13.372   7.317
92675SOL    HW279858   8.341  13.368   7.386
92676SOL     OW79859  12.908   8.323   6.562
92676SOL    HW179860  12.823   8.357   6.535
92676SOL    HW279861  12.956   8.311   6.481
92677SOL     OW79862   3.156  12.674   8.752
92677SOL    HW179863   3.104  12.691   8.830
92677SOL    HW279864   3.097  12.694   8.679
92678SOL     OW79865  13.104  11.003   5.977
92678SOL    HW179866  13.055  11.085   5.970
92678SOL    HW279867  13.196  11.029   5.968
92679SOL     OW79868   0.277   4.261  14.789
92679SOL    HW179869   0.273   4.166  14.787
92679SOL    HW279870   0.306   4.286  14.701
92680SOL     OW79871   2.839   7.487   5.034
92680SOL    HW179872   2.779   7.466   5.105
92680SOL    HW279873   2.805   7.569   4.997
92681SOL     OW79874   0.056   7.468   7.560
92681SOL    HW179875   0.102   7.495   7.639
92681SOL    HW279876  14.881   7.542   7.539
92682SOL     OW79877  12.395   8.075   7.566
92682SOL    HW179878  12.304   8.098   7.549
92682SOL    HW279879  12.407   8.092   7.659
92683SOL     OW79880   6.146  10.041   2.591
92683SOL    HW179881   6.095   9.971   2.630
92683SOL    HW279882   6.149  10.110   2.657
92684SOL     OW79883   9.195   4.945  10.688
92684SOL    HW179884   9.150   4.996  10.621
92684SOL    HW279885   9.282   4.985  10.694
92685SOL     OW79886   9.615  13.198   1.182
92685SOL    HW179887   9.710  13.190   1.186
92685SOL    HW279888   9.595  13.191   1.088
92686SOL     OW79889   3.037  11.476   8.711
92686SOL    HW179890   3.084  11.492   8.792
92686SOL    HW279891   3.020  11.382   8.711
92687SOL     OW79892   0.337   0.649  12.304
92687SOL    HW179893   0.299   0.671  12.219
92687SOL    HW279894   0.369   0.733  12.338
92688SOL     OW79895  12.830  13.858   2.181
92688SOL    HW179896  12.777  13.874   2.259
92688SOL    HW279897  12.836  13.943   2.137
92689SOL     OW79898   1.835   1.152   7.489
92689SOL    HW179899   1.743   1.134   7.469
92689SOL    HW279900   1.879   1.067   7.481
92690SOL     OW79901   5.952   3.329   5.779
92690SOL    HW179902   5.918   3.332   5.868
92690SOL    HW279903   5.983   3.418   5.762
92691SOL     OW79904  13.273   4.101   8.839
92691SOL    HW179905  13.334   4.069   8.773
92691SOL    HW279906  13.209   4.153   8.790
92692SOL     OW79907   6.247   5.057  11.112
92692SOL    HW179908   6.331   5.101  11.123
92692SOL    HW279909   6.269   4.972  11.075
92693SOL     OW79910   5.137  12.344  12.467
92693SOL    HW179911   5.208  12.347  12.531
92693SOL    HW279912   5.149  12.423  12.414
92694SOL     OW79913   9.277  13.817   5.851
92694SOL    HW179914   9.307  13.882   5.788
92694SOL    HW279915   9.202  13.775   5.809
92695SOL     OW79916   3.054   2.079   8.330
92695SOL    HW179917   3.101   2.060   8.411
92695SOL    HW279918   3.070   2.002   8.275
92696SOL     OW79919   2.397   9.644  11.600
92696SOL    HW179920   2.467   9.709  11.608
92696SOL    HW279921   2.334   9.683  11.540
92697SOL     OW79922   8.951  11.047   5.139
92697SOL    HW179923   8.984  11.047   5.049
92697SOL    HW279924   8.943  11.140   5.161
92698SOL     OW79925  12.910   2.363   0.551
92698SOL    HW179926  12.974   2.408   0.606
92698SOL    HW279927  12.834   2.351   0.607
92699SOL     OW79928   3.730  11.994   8.265
92699SOL    HW179929   3.798  11.997   8.332
92699SOL    HW279930   3.661  12.052   8.298
92700SOL     OW79931   1.915  12.335   4.147
92700SOL    HW179932   1.953  12.403   4.202
92700SOL    HW279933   1.913  12.257   4.203
92701SOL     OW79934   8.386  12.842   3.216
92701SOL    HW179935   8.364  12.930   3.184
92701SOL    HW279936   8.309  12.789   3.197
92702SOL     OW79937  14.439  11.089   8.023
92702SOL    HW179938  14.401  11.077   8.111
92702SOL    HW279939  14.426  11.182   8.004
92703SOL     OW79940   5.682   8.079   4.850
92703SOL    HW179941   5.591   8.049   4.857
92703SOL    HW279942   5.732   8.016   4.901
92704SOL     OW79943   8.701  13.295   5.031
92704SOL    HW179944   8.685  13.276   5.124
92704SOL    HW279945   8.661  13.222   4.984
92705SOL     OW79946   1.392  14.038   2.471
92705SOL    HW179947   1.372  13.945   2.458
92705SOL    HW279948   1.465  14.039   2.532
92706SOL     OW79949   4.765   5.001   6.868
92706SOL    HW179950   4.763   5.076   6.927
92706SOL    HW279951   4.681   4.958   6.880
92707SOL     OW79952   3.211   3.493   2.039
92707SOL    HW179953   3.182   3.401   2.040
92707SOL    HW279954   3.152   3.536   2.101
92708SOL     OW79955  11.981  14.700  10.396
92708SOL    HW179956  12.071  14.670  10.390
92708SOL    HW279957  11.936  14.657  10.323
92709SOL     OW79958  13.039  10.294   5.348
92709SOL    HW179959  13.094  10.371   5.360
92709SOL    HW279960  12.978  10.318   5.278
92710SOL     OW79961   1.360   7.870   8.904
92710SOL    HW179962   1.414   7.945   8.877
92710SOL    HW279963   1.318   7.899   8.986
92711SOL     OW79964   1.835   7.324   2.911
92711SOL    HW179965   1.781   7.261   2.959
92711SOL    HW279966   1.772   7.382   2.868
92712SOL     OW79967   0.348  12.735   5.800
92712SOL    HW179968   0.391  12.701   5.722
92712SOL    HW279969   0.418  12.775   5.851
92713SOL     OW79970  13.258   9.743   6.256
92713SOL    HW179971  13.290   9.761   6.167
92713SOL    HW279972  13.168   9.714   6.244
92714SOL     OW79973   5.817   8.595   5.827
92714SOL    HW179974   5.829   8.654   5.752
92714SOL    HW279975   5.735   8.550   5.808
92715SOL     OW79976   1.860  11.120  12.771
92715SOL    HW179977   1.806  11.173  12.712
92715SOL    HW279978   1.797  11.080  12.831
92716SOL     OW79979   3.726   2.178   2.869
92716SOL    HW179980   3.651   2.228   2.835
92716SOL    HW279981   3.793   2.188   2.802
92717SOL     OW79982   9.622   2.192   9.786
92717SOL    HW179983   9.699   2.197   9.729
92717SOL    HW279984   9.601   2.283   9.806
92718SOL     OW79985  13.412   3.981  12.208
92718SOL    HW179986  13.489   3.970  12.153
92718SOL    HW279987  13.344   3.929  12.166
92719SOL     OW79988   2.674   9.594   7.180
92719SOL    HW179989   2.642   9.647   7.107
92719SOL    HW279990   2.744   9.647   7.219
92720SOL     OW79991   7.590   2.278   1.145
92720SOL    HW179992   7.517   2.246   1.198
92720SOL    HW279993   7.630   2.348   1.197
92721SOL     OW79994  11.830   6.540   8.821
92721SOL    HW179995  11.876   6.457   8.805
92721SOL    HW279996  11.879   6.581   8.892
92722SOL     OW79997  11.915  12.811  12.202
92722SOL    HW179998  11.891  12.745  12.137
92722SOL    HW279999  11.846  12.878  12.193
92723SOL     OW80000  12.842   4.394   8.681
92723SOL    HW180001  12.870   4.458   8.747
92723SOL    HW280002  12.749   4.383   8.697
92724SOL     OW80003   3.018   1.863  11.471
92724SOL    HW180004   3.048   1.917  11.544
92724SOL    HW280005   3.042   1.913  11.393
92725SOL     OW80006  12.630   1.629  12.521
92725SOL    HW180007  12.536   1.649  12.521
92725SOL    HW280008  12.646   1.590  12.435
92726SOL     OW80009   4.058  11.830  14.293
92726SOL    HW180010   4.137  11.808  14.341
92726SOL    HW280011   4.007  11.749  14.291
92727SOL     OW80012   3.597  13.464   6.402
92727SOL    HW180013   3.532  13.497   6.339
92727SOL    HW280014   3.569  13.374   6.419
92728SOL     OW80015  11.725   6.096  10.351
92728SOL    HW180016  11.725   6.024  10.415
92728SOL    HW280017  11.668   6.162  10.389
92729SOL     OW80018  10.293   8.339  12.159
92729SOL    HW180019  10.386   8.323  12.177
92729SOL    HW280020  10.251   8.253  12.168
92730SOL     OW80021   0.869   7.694  11.042
92730SOL    HW180022   0.798   7.686  11.105
92730SOL    HW280023   0.834   7.752  10.974
92731SOL     OW80024   4.940   8.510   5.177
92731SOL    HW180025   4.858   8.511   5.127
92731SOL    HW280026   4.955   8.417   5.197
92732SOL     OW80027   6.217  13.715   5.241
92732SOL    HW180028   6.254  13.627   5.233
92732SOL    HW280029   6.259  13.765   5.171
92733SOL     OW80030  11.006   2.942   5.067
92733SOL    HW180031  11.084   2.897   5.101
92733SOL    HW280032  11.034   2.979   4.984
92734SOL     OW80033   4.322   3.600  10.028
92734SOL    HW180034   4.379   3.647  10.089
92734SOL    HW280035   4.325   3.509  10.057
92735SOL     OW80036   1.953  10.074  14.045
92735SOL    HW180037   2.019  10.041  14.107
92735SOL    HW280038   1.947  10.168  14.065
92736SOL     OW80039   6.983  11.133   6.138
92736SOL    HW180040   7.029  11.124   6.222
92736SOL    HW280041   6.907  11.076   6.146
92737SOL     OW80042   6.405   6.166  14.227
92737SOL    HW180043   6.440   6.086  14.188
92737SOL    HW280044   6.333   6.191  14.168
92738SOL     OW80045  13.556   6.891  10.772
92738SOL    HW180046  13.509   6.951  10.713
92738SOL    HW280047  13.638   6.935  10.791
92739SOL     OW80048   1.729   3.098  14.050
92739SOL    HW180049   1.648   3.049  14.035
92739SOL    HW280050   1.730   3.165  13.982
92740SOL     OW80051  12.842   4.946   2.142
92740SOL    HW180052  12.886   4.911   2.065
92740SOL    HW280053  12.749   4.931   2.125
92741SOL     OW80054   7.717   5.952  10.019
92741SOL    HW180055   7.734   6.045  10.007
92741SOL    HW280056   7.732   5.936  10.112
92742SOL     OW80057   9.546   0.071  11.343
92742SOL    HW180058   9.494   0.054  11.265
92742SOL    HW280059   9.483   0.068  11.415
92743SOL     OW80060  10.691  12.697   2.232
92743SOL    HW180061  10.612  12.751   2.240
92743SOL    HW280062  10.729  12.698   2.320
92744SOL     OW80063  13.327   6.169  11.294
92744SOL    HW180064  13.346   6.094  11.351
92744SOL    HW280065  13.323   6.244  11.353
92745SOL     OW80066   5.986   4.526  13.650
92745SOL    HW180067   5.907   4.545  13.702
92745SOL    HW280068   6.004   4.434  13.668
92746SOL     OW80069   9.619  11.230   9.400
92746SOL    HW180070   9.675  11.229   9.322
92746SOL    HW280071   9.647  11.307   9.449
92747SOL     OW80072   9.737   8.018   5.771
92747SOL    HW180073   9.644   8.003   5.788
92747SOL    HW280074   9.763   7.946   5.714
92748SOL     OW80075  11.423   6.378   7.594
92748SOL    HW180076  11.500   6.326   7.618
92748SOL    HW280077  11.402   6.427   7.674
92749SOL     OW80078  13.416   0.741   7.270
92749SOL    HW180079  13.419   0.651   7.239
92749SOL    HW280080  13.468   0.740   7.351
92750SOL     OW80081   4.951   1.652   3.321
92750SOL    HW180082   4.905   1.586   3.373
92750SOL    HW280083   4.895   1.729   3.324
92751SOL     OW80084   1.254  14.800   6.964
92751SOL    HW180085   1.209  14.800   6.879
92751SOL    HW280086   1.196  14.749   7.021
92752SOL     OW80087   2.053  10.089   7.055
92752SOL    HW180088   1.965  10.128   7.053
92752SOL    HW280089   2.105  10.146   6.998
92753SOL     OW80090  12.664   5.505  11.802
92753SOL    HW180091  12.570   5.495  11.791
92753SOL    HW280092  12.693   5.424  11.844
92754SOL     OW80093   9.738   2.231   9.124
92754SOL    HW180094   9.675   2.180   9.175
92754SOL    HW280095   9.823   2.193   9.147
92755SOL     OW80096   1.905  13.736   9.627
92755SOL    HW180097   1.817  13.771   9.637
92755SOL    HW280098   1.892  13.647   9.595
92756SOL     OW80099   2.440  13.609  13.338
92756SOL    HW180100   2.513  13.608  13.276
92756SOL    HW280101   2.481  13.609  13.424
92757SOL     OW80102  14.345  13.000  14.019
92757SOL    HW180103  14.279  12.983  14.086
92757SOL    HW280104  14.403  12.924  14.023
92758SOL     OW80105   6.673   3.049   8.170
92758SOL    HW180106   6.671   3.040   8.074
92758SOL    HW280107   6.632   3.134   8.186
92759SOL     OW80108   1.801   2.194   7.588
92759SOL    HW180109   1.708   2.210   7.605
92759SOL    HW280110   1.805   2.103   7.558
92760SOL     OW80111   3.966   6.369  13.939
92760SOL    HW180112   3.879   6.343  13.970
92760SOL    HW280113   4.016   6.386  14.019
92761SOL     OW80114  10.281   3.758   1.762
92761SOL    HW180115  10.234   3.788   1.684
92761SOL    HW280116  10.221   3.776   1.835
92762SOL     OW80117   6.032   1.786  13.102
92762SOL    HW180118   6.117   1.742  13.092
92762SOL    HW280119   6.045   1.871  13.060
92763SOL     OW80120   3.900   2.408  14.797
92763SOL    HW180121   3.827   2.449  14.751
92763SOL    HW280122   3.903   2.319  14.763
92764SOL     OW80123  10.544   4.396  12.850
92764SOL    HW180124  10.635   4.415  12.829
92764SOL    HW280125  10.530   4.308  12.815
92765SOL     OW80126   2.059  13.277   7.955
92765SOL    HW180127   1.969  13.311   7.956
92765SOL    HW280128   2.079  13.259   8.047
92766SOL     OW80129   0.888  14.061   8.446
92766SOL    HW180130   0.932  14.109   8.376
92766SOL    HW280131   0.867  13.976   8.408
92767SOL     OW80132   6.983   6.877  10.868
92767SOL    HW180133   6.967   6.869  10.774
92767SOL    HW280134   6.903   6.843  10.910
92768SOL     OW80135  13.671  10.639   3.038
92768SOL    HW180136  13.584  10.600   3.049
92768SOL    HW280137  13.710  10.589   2.966
92769SOL     OW80138   3.745   6.770   4.699
92769SOL    HW180139   3.672   6.830   4.713
92769SOL    HW280140   3.815   6.824   4.662
92770SOL     OW80141   0.678   9.217  12.305
92770SOL    HW180142   0.721   9.174  12.379
92770SOL    HW280143   0.623   9.149  12.266
92771SOL     OW80144   2.853   4.185   7.008
92771SOL    HW180145   2.897   4.252   6.956
92771SOL    HW280146   2.764   4.181   6.971
92772SOL     OW80147  11.820   9.413   2.735
92772SOL    HW180148  11.905   9.424   2.692
92772SOL    HW280149  11.838   9.355   2.809
92773SOL     OW80150   8.503  10.508   9.188
92773SOL    HW180151   8.455  10.492   9.107
92773SOL    HW280152   8.586  10.547   9.161
92774SOL     OW80153  14.527   9.528   5.252
92774SOL    HW180154  14.486   9.448   5.221
92774SOL    HW280155  14.557   9.573   5.173
92775SOL     OW80156   0.517   9.417   4.626
92775SOL    HW180157   0.498   9.499   4.671
92775SOL    HW280158   0.433   9.389   4.591
92776SOL     OW80159   0.062  14.532   4.400
92776SOL    HW180160  14.870  14.581   4.364
92776SOL    HW280161   0.075  14.569   4.487
92777SOL     OW80162   2.412   4.063   6.538
92777SOL    HW180163   2.404   4.158   6.529
92777SOL    HW280164   2.481   4.039   6.476
92778SOL     OW80165   3.103   7.436   3.519
92778SOL    HW180166   3.073   7.355   3.560
92778SOL    HW280167   3.073   7.430   3.428
92779SOL     OW80168   4.184   6.740   3.526
92779SOL    HW180169   4.107   6.691   3.556
92779SOL    HW280170   4.148   6.803   3.462
92780SOL     OW80171  12.472  11.998  14.069
92780SOL    HW180172  12.386  12.031  14.097
92780SOL    HW280173  12.518  11.979  14.151
92781SOL     OW80174  11.128   9.478   8.034
92781SOL    HW180175  11.221   9.461   8.051
92781SOL    HW280176  11.120   9.573   8.038
92782SOL     OW80177  11.131   7.124  10.334
92782SOL    HW180178  11.210   7.071  10.346
92782SOL    HW280179  11.084   7.082  10.262
92783SOL     OW80180   1.085  12.099   8.054
92783SOL    HW180181   1.077  12.159   7.979
92783SOL    HW280182   1.161  12.044   8.033
92784SOL     OW80183   0.514   5.074  11.339
92784SOL    HW180184   0.423   5.053  11.356
92784SOL    HW280185   0.564   5.022  11.401
92785SOL     OW80186   1.933   0.918   4.708
92785SOL    HW180187   1.949   0.879   4.794
92785SOL    HW280188   1.971   1.006   4.714
92786SOL     OW80189   4.589  13.009   5.870
92786SOL    HW180190   4.641  13.021   5.950
92786SOL    HW280191   4.538  12.930   5.886
92787SOL     OW80192  11.334  14.231   4.861
92787SOL    HW180193  11.355  14.145   4.898
92787SOL    HW280194  11.300  14.212   4.774
92788SOL     OW80195   1.715   1.447   0.362
92788SOL    HW180196   1.691   1.489   0.445
92788SOL    HW280197   1.713   1.353   0.382
92789SOL     OW80198   4.218  10.408  10.367
92789SOL    HW180199   4.274  10.360  10.428
92789SOL    HW280200   4.163  10.464  10.423
92790SOL     OW80201  12.757  14.511   7.883
92790SOL    HW180202  12.697  14.444   7.916
92790SOL    HW280203  12.828  14.513   7.947
92791SOL     OW80204   0.770   8.344   3.110
92791SOL    HW180205   0.716   8.276   3.149
92791SOL    HW280206   0.823   8.298   3.044
92792SOL     OW80207   7.900   4.088   6.899
92792SOL    HW180208   7.963   4.062   6.967
92792SOL    HW280209   7.822   4.115   6.948
92793SOL     OW80210   4.781   7.883   8.731
92793SOL    HW180211   4.769   7.805   8.676
92793SOL    HW280212   4.748   7.955   8.677
92794SOL     OW80213  13.833   2.737  13.352
92794SOL    HW180214  13.809   2.724  13.444
92794SOL    HW280215  13.835   2.648  13.316
92795SOL     OW80216   8.421   6.016   3.338
92795SOL    HW180217   8.482   5.961   3.388
92795SOL    HW280218   8.369   5.954   3.287
92796SOL     OW80219  13.935  13.335  14.297
92796SOL    HW180220  13.889  13.356  14.216
92796SOL    HW280221  13.969  13.419  14.328
92797SOL     OW80222   0.409   7.732  11.487
92797SOL    HW180223   0.360   7.789  11.428
92797SOL    HW280224   0.455   7.793  11.546
92798SOL     OW80225  11.120   0.233   2.843
92798SOL    HW180226  11.112   0.234   2.939
92798SOL    HW280227  11.194   0.291   2.825
92799SOL     OW80228   2.934  10.993   8.556
92799SOL    HW180229   2.974  10.982   8.470
92799SOL    HW280230   2.881  10.914   8.568
92800SOL     OW80231   7.937   4.463   5.402
92800SOL    HW180232   7.847   4.451   5.369
92800SOL    HW280233   7.975   4.527   5.342
92801SOL     OW80234   6.504  12.308   7.711
92801SOL    HW180235   6.478  12.221   7.681
92801SOL    HW280236   6.431  12.337   7.766
92802SOL     OW80237   9.300   9.459   6.356
92802SOL    HW180238   9.316   9.385   6.414
92802SOL    HW280239   9.222   9.434   6.306
92803SOL     OW80240   7.624  11.462   9.799
92803SOL    HW180241   7.668  11.545   9.783
92803SOL    HW280242   7.588  11.437   9.714
92804SOL     OW80243  11.262  12.227   6.775
92804SOL    HW180244  11.314  12.179   6.839
92804SOL    HW280245  11.276  12.319   6.797
92805SOL     OW80246   0.111   0.116  10.123
92805SOL    HW180247   0.018   0.139  10.125
92805SOL    HW280248   0.117   0.049  10.055
92806SOL     OW80249  14.398   3.329  13.365
92806SOL    HW180250  14.384   3.402  13.305
92806SOL    HW280251  14.458   3.362  13.431
92807SOL     OW80252  14.860   6.107   2.478
92807SOL    HW180253  14.822   6.024   2.452
92807SOL    HW280254   0.061   6.113   2.431
92808SOL     OW80255   6.476   5.158   9.946
92808SOL    HW180256   6.488   5.168   9.852
92808SOL    HW280257   6.459   5.247   9.977
92809SOL     OW80258  11.082   9.800  12.798
92809SOL    HW180259  11.077   9.715  12.754
92809SOL    HW280260  10.996   9.840  12.782
92810SOL     OW80261   9.077  13.041  14.264
92810SOL    HW180262   8.998  13.063  14.214
92810SOL    HW280263   9.140  13.108  14.238
92811SOL     OW80264   3.752  11.962  10.275
92811SOL    HW180265   3.754  11.867  10.275
92811SOL    HW280266   3.718  11.986  10.189
92812SOL     OW80267   8.849  13.547   8.167
92812SOL    HW180268   8.907  13.590   8.231
92812SOL    HW280269   8.868  13.454   8.176
92813SOL     OW80270   3.715   3.942  14.013
92813SOL    HW180271   3.635   3.937  14.065
92813SOL    HW280272   3.774   3.997  14.065
92814SOL     OW80273   0.543  10.332  13.025
92814SOL    HW180274   0.454  10.360  13.001
92814SOL    HW280275   0.599  10.369  12.957
92815SOL     OW80276  14.796  11.015   2.136
92815SOL    HW180277  14.793  10.932   2.184
92815SOL    HW280278  14.856  11.070   2.187
92816SOL     OW80279   7.744   5.926   7.634
92816SOL    HW180280   7.696   5.855   7.592
92816SOL    HW280281   7.795   5.967   7.563
92817SOL     OW80282   5.771   9.131   6.924
92817SOL    HW180283   5.747   9.152   6.834
92817SOL    HW280284   5.707   9.177   6.977
92818SOL     OW80285  11.510   7.991   1.888
92818SOL    HW180286  11.573   7.936   1.842
92818SOL    HW280287  11.506   8.072   1.837
92819SOL     OW80288   2.445  13.284   2.174
92819SOL    HW180289   2.352  13.263   2.181
92819SOL    HW280290   2.490  13.206   2.207
92820SOL     OW80291   6.846   4.869   8.473
92820SOL    HW180292   6.876   4.945   8.423
92820SOL    HW280293   6.878   4.885   8.562
92821SOL     OW80294   3.956   7.461   4.355
92821SOL    HW180295   3.921   7.517   4.286
92821SOL    HW280296   3.885   7.401   4.376
92822SOL     OW80297  10.609   5.110   8.393
92822SOL    HW180298  10.681   5.132   8.453
92822SOL    HW280299  10.624   5.165   8.316
92823SOL     OW80300  14.862   3.887  13.215
92823SOL    HW180301  14.813   3.937  13.149
92823SOL    HW280302   0.052   3.945  13.240
92824SOL     OW80303   5.576  13.048   0.385
92824SOL    HW180304   5.554  12.985   0.317
92824SOL    HW280305   5.497  13.101   0.395
92825SOL     OW80306   2.070   3.955  12.607
92825SOL    HW180307   2.012   3.893  12.562
92825SOL    HW280308   2.152   3.952  12.558
92826SOL     OW80309  10.951   4.474  10.833
92826SOL    HW180310  10.873   4.442  10.878
92826SOL    HW280311  11.021   4.414  10.859
92827SOL     OW80312   4.411   6.620   4.415
92827SOL    HW180313   4.317   6.603   4.420
92827SOL    HW280314   4.446   6.543   4.370
92828SOL     OW80315  13.456  10.044   1.138
92828SOL    HW180316  13.456  10.124   1.087
92828SOL    HW280317  13.466  10.073   1.229
92829SOL     OW80318  12.907  11.960   0.641
92829SOL    HW180319  12.860  11.902   0.700
92829SOL    HW280320  12.854  11.962   0.562
92830SOL     OW80321  12.307  14.865  10.355
92830SOL    HW180322  12.369  14.850  10.284
92830SOL    HW280323  12.309  14.784  10.406
92831SOL     OW80324   0.383   5.011  14.787
92831SOL    HW180325   0.362   5.100  14.814
92831SOL    HW280326   0.478   5.011  14.775
92832SOL     OW80327   8.759  10.212   6.396
92832SOL    HW180328   8.712  10.150   6.340
92832SOL    HW280329   8.705  10.291   6.395
92833SOL     OW80330  11.068   3.130  11.511
92833SOL    HW180331  10.983   3.115  11.471
92833SOL    HW280332  11.049   3.151  11.602
92834SOL     OW80333   9.773   2.216   2.004
92834SOL    HW180334   9.819   2.300   2.000
92834SOL    HW280335   9.692   2.236   2.051
92835SOL     OW80336   9.479   9.952  14.276
92835SOL    HW180337   9.402   9.905  14.307
92835SOL    HW280338   9.472  10.038  14.319
92836SOL     OW80339   1.649   3.607  12.186
92836SOL    HW180340   1.586   3.654  12.240
92836SOL    HW280341   1.605   3.526  12.162
92837SOL     OW80342   2.119   9.020   1.370
92837SOL    HW180343   2.166   9.026   1.286
92837SOL    HW280344   2.185   9.042   1.436
92838SOL     OW80345  14.800   8.029   8.139
92838SOL    HW180346  14.861   8.103   8.141
92838SOL    HW280347  14.801   7.999   8.048
92839SOL     OW80348  10.337   4.621   4.365
92839SOL    HW180349  10.323   4.695   4.423
92839SOL    HW280350  10.283   4.640   4.288
92840SOL     OW80351  11.064   3.050   5.377
92840SOL    HW180352  11.117   3.104   5.436
92840SOL    HW280353  10.976   3.052   5.416
92841SOL     OW80354   7.009  13.097   3.954
92841SOL    HW180355   7.102  13.078   3.965
92841SOL    HW280356   7.007  13.163   3.885
92842SOL     OW80357   5.803   7.195   5.735
92842SOL    HW180358   5.803   7.157   5.647
92842SOL    HW280359   5.895   7.217   5.752
92843SOL     OW80360   5.289  14.048   2.904
92843SOL    HW180361   5.282  14.090   2.991
92843SOL    HW280362   5.208  14.073   2.860
92844SOL     OW80363  11.324   8.487   5.198
92844SOL    HW180364  11.332   8.399   5.162
92844SOL    HW280365  11.380   8.541   5.142
92845SOL     OW80366   4.410  13.676  14.450
92845SOL    HW180367   4.400  13.736  14.376
92845SOL    HW280368   4.472  13.610  14.419
92846SOL     OW80369   1.473   8.969   1.018
92846SOL    HW180370   1.481   8.881   1.055
92846SOL    HW280371   1.560   8.988   0.983
92847SOL     OW80372   2.280   8.503   0.233
92847SOL    HW180373   2.194   8.482   0.196
92847SOL    HW280374   2.326   8.549   0.163
92848SOL     OW80375  10.470   8.756   7.613
92848SOL    HW180376  10.506   8.833   7.569
92848SOL    HW280377  10.513   8.681   7.572
92849SOL     OW80378   2.799   2.316   8.934
92849SOL    HW180379   2.757   2.239   8.972
92849SOL    HW280380   2.840   2.285   8.853
92850SOL     OW80381   5.449   5.332  11.005
92850SOL    HW180382   5.539   5.339  10.973
92850SOL    HW280383   5.421   5.244  10.977
92851SOL     OW80384   3.467  11.981   9.358
92851SOL    HW180385   3.526  11.935   9.418
92851SOL    HW280386   3.472  12.073   9.386
92852SOL     OW80387   9.616   8.469   7.049
92852SOL    HW180388   9.530   8.470   7.092
92852SOL    HW280389   9.600   8.428   6.964
92853SOL     OW80390   1.028  12.428  10.649
92853SOL    HW180391   1.117  12.455  10.624
92853SOL    HW280392   1.040  12.341  10.688
92854SOL     OW80393   0.530   6.552   4.054
92854SOL    HW180394   0.482   6.469   4.052
92854SOL    HW280395   0.582   6.551   3.973
92855SOL     OW80396  12.663   7.961   0.252
92855SOL    HW180397  12.586   8.003   0.214
92855SOL    HW280398  12.734   8.025   0.238
92856SOL     OW80399  10.570   5.848  10.577
92856SOL    HW180400  10.613   5.763  10.583
92856SOL    HW280401  10.641   5.911  10.574
92857SOL     OW80402  12.226  11.945  13.588
92857SOL    HW180403  12.205  12.035  13.562
92857SOL    HW280404  12.300  11.954  13.648
92858SOL     OW80405   7.129  11.778   8.450
92858SOL    HW180406   7.041  11.811   8.429
92858SOL    HW280407   7.187  11.846   8.417
92859SOL     OW80408  12.770   6.126   1.565
92859SOL    HW180409  12.678   6.109   1.583
92859SOL    HW280410  12.774   6.220   1.545
92860SOL     OW80411   4.180   2.039   1.948
92860SOL    HW180412   4.098   2.084   1.966
92860SOL    HW280413   4.207   2.070   1.862
92861SOL     OW80414   2.867   3.853  12.069
92861SOL    HW180415   2.933   3.836  12.136
92861SOL    HW280416   2.915   3.901  12.000
92862SOL     OW80417  10.071   6.529   5.628
92862SOL    HW180418  10.050   6.476   5.705
92862SOL    HW280419  10.077   6.466   5.557
92863SOL     OW80420  11.322   9.292   9.836
92863SOL    HW180421  11.253   9.234   9.806
92863SOL    HW280422  11.367   9.242   9.904
92864SOL     OW80423   9.751  10.953   4.351
92864SOL    HW180424   9.818  10.970   4.417
92864SOL    HW280425   9.782  10.997   4.272
92865SOL     OW80426  10.960   7.551   7.600
92865SOL    HW180427  10.914   7.598   7.669
92865SOL    HW280428  11.052   7.577   7.610
92866SOL     OW80429   5.365  11.379   6.539
92866SOL    HW180430   5.342  11.286   6.539
92866SOL    HW280431   5.307  11.418   6.603
92867SOL     OW80432   0.780  11.046  11.486
92867SOL    HW180433   0.833  11.010  11.415
92867SOL    HW280434   0.747  11.129  11.452
92868SOL     OW80435  12.954   1.693   9.524
92868SOL    HW180436  12.878   1.687   9.581
92868SOL    HW280437  13.009   1.761   9.564
92869SOL     OW80438   7.241  14.184   4.894
92869SOL    HW180439   7.289  14.199   4.975
92869SOL    HW280440   7.302  14.136   4.838
92870SOL     OW80441   9.369   0.479   5.197
92870SOL    HW180442   9.437   0.447   5.256
92870SOL    HW280443   9.287   0.447   5.236
92871SOL     OW80444   5.813  13.337  12.249
92871SOL    HW180445   5.739  13.309  12.303
92871SOL    HW280446   5.803  13.432  12.242
92872SOL     OW80447   5.981   0.702   7.392
92872SOL    HW180448   5.938   0.774   7.345
92872SOL    HW280449   5.936   0.699   7.477
92873SOL     OW80450   2.777   7.402  11.065
92873SOL    HW180451   2.845   7.469  11.074
92873SOL    HW280452   2.825   7.319  11.064
92874SOL     OW80453  12.909   4.521   0.837
92874SOL    HW180454  12.935   4.559   0.753
92874SOL    HW280455  12.814   4.529   0.839
92875SOL     OW80456  12.152   6.237   3.748
92875SOL    HW180457  12.082   6.268   3.690
92875SOL    HW280458  12.125   6.267   3.835
92876SOL     OW80459   7.329   6.536   7.857
92876SOL    HW180460   7.415   6.493   7.849
92876SOL    HW280461   7.290   6.529   7.770
92877SOL     OW80462   1.954   8.474  11.893
92877SOL    HW180463   1.873   8.521  11.914
92877SOL    HW280464   2.003   8.536  11.839
92878SOL     OW80465   8.466  11.871   3.139
92878SOL    HW180466   8.537  11.921   3.178
92878SOL    HW280467   8.504  11.834   3.059
92879SOL     OW80468  13.705   6.196   0.135
92879SOL    HW180469  13.697   6.164   0.225
92879SOL    HW280470  13.796   6.222   0.127
92880SOL     OW80471  12.286   2.602  10.344
92880SOL    HW180472  12.247   2.543  10.410
92880SOL    HW280473  12.354   2.649  10.392
92881SOL     OW80474   9.056  13.863  14.023
92881SOL    HW180475   9.080  13.934  13.964
92881SOL    HW280476   9.130  13.856  14.084
92882SOL     OW80477   3.707   0.236  14.590
92882SOL    HW180478   3.738   0.153  14.554
92882SOL    HW280479   3.612   0.231  14.585
92883SOL     OW80480   6.712  11.639   1.533
92883SOL    HW180481   6.678  11.622   1.445
92883SOL    HW280482   6.657  11.586   1.591
92884SOL     OW80483   1.113   2.619   0.774
92884SOL    HW180484   1.170   2.599   0.848
92884SOL    HW280485   1.114   2.714   0.767
92885SOL     OW80486   8.258  13.978   8.359
92885SOL    HW180487   8.205  13.974   8.438
92885SOL    HW280488   8.211  14.039   8.302
92886SOL     OW80489   4.358   2.330   5.872
92886SOL    HW180490   4.347   2.422   5.898
92886SOL    HW280491   4.349   2.331   5.777
92887SOL     OW80492   4.417   1.560   3.663
92887SOL    HW180493   4.345   1.503   3.691
92887SOL    HW280494   4.377   1.647   3.657
92888SOL     OW80495   7.729   0.910  14.576
92888SOL    HW180496   7.659   0.864  14.531
92888SOL    HW280497   7.791   0.841  14.602
92889SOL     OW80498  12.814   4.585   9.390
92889SOL    HW180499  12.752   4.625   9.329
92889SOL    HW280500  12.770   4.588   9.475
92890SOL     OW80501   0.712   9.983  14.814
92890SOL    HW180502   0.746  10.046  14.878
92890SOL    HW280503   0.685   9.908  14.866
92891SOL     OW80504   8.827  14.031   5.184
92891SOL    HW180505   8.830  13.968   5.256
92891SOL    HW280506   8.908  14.014   5.134
92892SOL     OW80507   3.134   0.681   6.763
92892SOL    HW180508   3.067   0.726   6.813
92892SOL    HW280509   3.122   0.712   6.673
92893SOL     OW80510  12.040   4.234   9.889
92893SOL    HW180511  12.053   4.316   9.840
92893SOL    HW280512  11.953   4.204   9.862
92894SOL     OW80513   1.832  10.644  11.884
92894SOL    HW180514   1.811  10.583  11.813
92894SOL    HW280515   1.794  10.604  11.962
92895SOL     OW80516  11.029  13.876  10.635
92895SOL    HW180517  10.964  13.810  10.610
92895SOL    HW280518  10.986  13.929  10.702
92896SOL     OW80519   7.422  12.475  12.832
92896SOL    HW180520   7.488  12.443  12.770
92896SOL    HW280521   7.465  12.471  12.917
92897SOL     OW80522   6.606   9.446   3.018
92897SOL    HW180523   6.546   9.519   2.999
92897SOL    HW280524   6.599   9.434   3.113
92898SOL     OW80525   0.570  14.866  11.017
92898SOL    HW180526   0.587  14.772  11.016
92898SOL    HW280527   0.618   0.016  11.094
92899SOL     OW80528   1.304   3.131   1.043
92899SOL    HW180529   1.327   3.154   1.133
92899SOL    HW280530   1.260   3.046   1.050
92900SOL     OW80531  13.392  12.508   1.007
92900SOL    HW180532  13.390  12.542   1.096
92900SOL    HW280533  13.463  12.557   0.965
92901SOL     OW80534  14.069   0.657   6.617
92901SOL    HW180535  14.051   0.600   6.543
92901SOL    HW280536  14.034   0.742   6.592
92902SOL     OW80537   0.394   9.777  10.239
92902SOL    HW180538   0.426   9.855  10.285
92902SOL    HW280539   0.471   9.721  10.231
92903SOL     OW80540   1.686   5.873   8.643
92903SOL    HW180541   1.782   5.872   8.632
92903SOL    HW280542   1.672   5.918   8.726
92904SOL     OW80543  13.441   3.288   0.338
92904SOL    HW180544  13.415   3.231   0.265
92904SOL    HW280545  13.486   3.229   0.399
92905SOL     OW80546   3.759  13.194   8.290
92905SOL    HW180547   3.669  13.166   8.272
92905SOL    HW280548   3.793  13.129   8.351
92906SOL     OW80549   7.524  12.628  14.533
92906SOL    HW180550   7.618  12.628  14.550
92906SOL    HW280551   7.499  12.536  14.541
92907SOL     OW80552   3.502  12.622   6.691
92907SOL    HW180553   3.430  12.566   6.662
92907SOL    HW280554   3.569  12.561   6.720
92908SOL     OW80555   0.128   2.435  11.970
92908SOL    HW180556   0.092   2.475  12.048
92908SOL    HW280557   0.083   2.350  11.963
92909SOL     OW80558   4.123   1.213   6.534
92909SOL    HW180559   4.193   1.148   6.538
92909SOL    HW280560   4.160   1.286   6.484
92910SOL     OW80561  11.618   4.134   8.478
92910SOL    HW180562  11.571   4.054   8.454
92910SOL    HW280563  11.570   4.167   8.555
92911SOL     OW80564   6.998   3.579   4.909
92911SOL    HW180565   6.966   3.501   4.865
92911SOL    HW280566   7.055   3.545   4.979
92912SOL     OW80567   4.483   3.219  13.502
92912SOL    HW180568   4.428   3.148  13.536
92912SOL    HW280569   4.421   3.288  13.478
92913SOL     OW80570   7.873   1.012   7.409
92913SOL    HW180571   7.817   0.944   7.371
92913SOL    HW280572   7.835   1.028   7.495
92914SOL     OW80573   8.017  13.300   2.295
92914SOL    HW180574   8.021  13.205   2.280
92914SOL    HW280575   7.936  13.313   2.343
92915SOL     OW80576   6.713  12.477   7.693
92915SOL    HW180577   6.638  12.535   7.703
92915SOL    HW280578   6.675  12.393   7.666
92916SOL     OW80579  11.832   6.240  11.789
92916SOL    HW180580  11.750   6.243  11.740
92916SOL    HW280581  11.854   6.147  11.795
92917SOL     OW80582   7.062   3.231   1.040
92917SOL    HW180583   7.000   3.278   1.096
92917SOL    HW280584   7.017   3.223   0.956
92918SOL     OW80585  13.710   5.445  14.600
92918SOL    HW180586  13.802   5.421  14.604
92918SOL    HW280587  13.696   5.499  14.678
92919SOL     OW80588   9.104   9.864   8.652
92919SOL    HW180589   9.065   9.951   8.653
92919SOL    HW280590   9.045   9.810   8.704
92920SOL     OW80591  12.177   9.019  12.968
92920SOL    HW180592  12.176   9.012  12.872
92920SOL    HW280593  12.265   9.052  12.988
92921SOL     OW80594   5.582   4.433   9.868
92921SOL    HW180595   5.545   4.472   9.789
92921SOL    HW280596   5.562   4.495   9.938
92922SOL     OW80597  14.614   1.717   8.140
92922SOL    HW180598  14.698   1.762   8.149
92922SOL    HW280599  14.575   1.755   8.062
92923SOL     OW80600  13.024   3.033   9.830
92923SOL    HW180601  13.041   2.954   9.779
92923SOL    HW280602  13.089   3.031   9.900
92924SOL     OW80603   3.660   5.931  13.066
92924SOL    HW180604   3.594   5.935  12.997
92924SOL    HW280605   3.629   5.991  13.134
92925SOL     OW80606  10.281  13.649   1.938
92925SOL    HW180607  10.346  13.579   1.943
92925SOL    HW280608  10.332  13.729   1.926
92926SOL     OW80609  13.440   9.529   4.185
92926SOL    HW180610  13.480   9.602   4.234
92926SOL    HW280611  13.492   9.522   4.105
92927SOL     OW80612   2.511   5.893   2.221
92927SOL    HW180613   2.571   5.820   2.209
92927SOL    HW280614   2.542   5.938   2.299
92928SOL     OW80615   4.328   2.132   1.725
92928SOL    HW180616   4.414   2.092   1.731
92928SOL    HW280617   4.334   2.193   1.652
92929SOL     OW80618   5.695   1.793   8.314
92929SOL    HW180619   5.735   1.760   8.394
92929SOL    HW280620   5.653   1.875   8.339
92930SOL     OW80621   2.496   5.402   2.743
92930SOL    HW180622   2.448   5.333   2.790
92930SOL    HW280623   2.439   5.479   2.748
92931SOL     OW80624  14.655  13.951   6.026
92931SOL    HW180625  14.621  14.024   5.975
92931SOL    HW280626  14.619  13.964   6.114
92932SOL     OW80627   5.585   9.495  12.337
92932SOL    HW180628   5.630   9.460  12.260
92932SOL    HW280629   5.614   9.585  12.344
92933SOL     OW80630  12.870  10.830  11.845
92933SOL    HW180631  12.812  10.758  11.822
92933SOL    HW280632  12.827  10.908  11.810
92934SOL     OW80633   0.393  14.670   6.047
92934SOL    HW180634   0.403  14.579   6.020
92934SOL    HW280635   0.300  14.679   6.068
92935SOL     OW80636   4.708  12.692  10.233
92935SOL    HW180637   4.655  12.622  10.194
92935SOL    HW280638   4.766  12.720  10.162
92936SOL     OW80639   7.926  12.965  12.788
92936SOL    HW180640   8.010  13.005  12.808
92936SOL    HW280641   7.865  13.038  12.779
92937SOL     OW80642   6.045   2.910  10.940
92937SOL    HW180643   6.014   2.934  10.852
92937SOL    HW280644   6.069   2.994  10.980
92938SOL     OW80645   3.871  13.421   4.053
92938SOL    HW180646   3.911  13.396   4.136
92938SOL    HW280647   3.923  13.375   3.987
92939SOL     OW80648   7.605   2.150  14.478
92939SOL    HW180649   7.628   2.203  14.554
92939SOL    HW280650   7.572   2.212  14.414
92940SOL     OW80651  10.005   3.891   1.140
92940SOL    HW180652  10.089   3.851   1.118
92940SOL    HW280653  10.027   3.969   1.191
92941SOL     OW80654  12.056   7.360  11.909
92941SOL    HW180655  12.001   7.320  11.976
92941SOL    HW280656  12.000   7.366  11.832
92942SOL     OW80657  12.545  10.302  13.200
92942SOL    HW180658  12.567  10.357  13.276
92942SOL    HW280659  12.609  10.326  13.133
92943SOL     OW80660   7.623  10.913   5.850
92943SOL    HW180661   7.553  10.854   5.877
92943SOL    HW280662   7.700  10.883   5.897
92944SOL     OW80663  11.926  13.738   9.694
92944SOL    HW180664  11.871  13.764   9.768
92944SOL    HW280665  12.012  13.774   9.713
92945SOL     OW80666   4.449   7.789  14.278
92945SOL    HW180667   4.433   7.737  14.199
92945SOL    HW280668   4.484   7.726  14.342
92946SOL     OW80669  13.174   0.087   6.578
92946SOL    HW180670  13.126   0.004   6.580
92946SOL    HW280671  13.112   0.152   6.612
92947SOL     OW80672   0.604   2.351   8.245
92947SOL    HW180673   0.679   2.318   8.295
92947SOL    HW280674   0.642   2.415   8.185
92948SOL     OW80675   0.961   2.702   3.529
92948SOL    HW180676   0.994   2.748   3.607
92948SOL    HW280677   1.032   2.707   3.466
92949SOL     OW80678  12.247  14.091   2.264
92949SOL    HW180679  12.217  14.094   2.355
92949SOL    HW280680  12.231  14.179   2.231
92950SOL     OW80681  10.286  13.055   2.453
92950SOL    HW180682  10.248  12.967   2.462
92950SOL    HW280683  10.215  13.109   2.421
92951SOL     OW80684  10.670   9.505  12.065
92951SOL    HW180685  10.738   9.555  12.110
92951SOL    HW280686  10.637   9.444  12.131
92952SOL     OW80687  10.978   3.879   7.535
92952SOL    HW180688  11.048   3.868   7.471
92952SOL    HW280689  10.927   3.798   7.528
92953SOL     OW80690   5.658  10.241   5.931
92953SOL    HW180691   5.672  10.146   5.925
92953SOL    HW280692   5.604  10.252   6.009
92954SOL     OW80693  10.347  10.352   0.749
92954SOL    HW180694  10.320  10.412   0.679
92954SOL    HW280695  10.303  10.270   0.729
92955SOL     OW80696   7.263  12.891   3.347
92955SOL    HW180697   7.258  12.892   3.443
92955SOL    HW280698   7.356  12.879   3.328
92956SOL     OW80699   4.205  12.986  12.618
92956SOL    HW180700   4.206  12.891  12.609
92956SOL    HW280701   4.215  13.002  12.712
92957SOL     OW80702   5.078   6.575  13.867
92957SOL    HW180703   5.037   6.495  13.899
92957SOL    HW280704   5.092   6.559  13.774
92958SOL     OW80705   6.625   5.826   0.455
92958SOL    HW180706   6.701   5.884   0.464
92958SOL    HW280707   6.586   5.822   0.542
92959SOL     OW80708  12.397   2.166   4.425
92959SOL    HW180709  12.359   2.213   4.499
92959SOL    HW280710  12.413   2.234   4.359
92960SOL     OW80711  12.381   1.767   5.020
92960SOL    HW180712  12.342   1.711   5.087
92960SOL    HW280713  12.403   1.848   5.066
92961SOL     OW80714   0.794   7.621  13.982
92961SOL    HW180715   0.861   7.555  13.964
92961SOL    HW280716   0.833   7.703  13.949
92962SOL     OW80717  11.240   9.455   4.916
92962SOL    HW180718  11.165   9.491   4.963
92962SOL    HW280719  11.217   9.363   4.901
92963SOL     OW80720   7.518   9.998   4.672
92963SOL    HW180721   7.428   9.965   4.672
92963SOL    HW280722   7.564   9.942   4.734
92964SOL     OW80723   9.453  12.786  14.421
92964SOL    HW180724   9.491  12.729  14.354
92964SOL    HW280725   9.527  12.810  14.477
92965SOL     OW80726   4.592   3.311   5.892
92965SOL    HW180727   4.679   3.312   5.932
92965SOL    HW280728   4.571   3.218   5.883
92966SOL     OW80729   0.194  13.657  14.498
92966SOL    HW180730   0.281  13.619  14.486
92966SOL    HW280731   0.208  13.726  14.563
92967SOL     OW80732  14.587  12.297   6.135
92967SOL    HW180733  14.601  12.391   6.144
92967SOL    HW280734  14.644  12.257   6.201
92968SOL     OW80735   4.359   5.858   4.555
92968SOL    HW180736   4.408   5.928   4.512
92968SOL    HW280737   4.396   5.778   4.517
92969SOL     OW80738  12.167  10.474   2.627
92969SOL    HW180739  12.203  10.405   2.683
92969SOL    HW280740  12.211  10.462   2.543
92970SOL     OW80741  13.845  12.118  11.165
92970SOL    HW180742  13.898  12.090  11.091
92970SOL    HW280743  13.810  12.203  11.138
92971SOL     OW80744  11.197   8.761  12.120
92971SOL    HW180745  11.209   8.784  12.212
92971SOL    HW280746  11.112   8.716  12.117
92972SOL     OW80747   8.572   6.077  12.616
92972SOL    HW180748   8.666   6.098  12.608
92972SOL    HW280749   8.552   6.029  12.536
92973SOL     OW80750  10.060   5.894  13.934
92973SOL    HW180751  10.037   5.965  13.994
92973SOL    HW280752  10.025   5.922  13.849
92974SOL     OW80753  11.294  12.595  13.386
92974SOL    HW180754  11.216  12.544  13.407
92974SOL    HW280755  11.294  12.667  13.450
92975SOL     OW80756  14.088  11.079  12.913
92975SOL    HW180757  14.057  11.153  12.861
92975SOL    HW280758  14.015  11.057  12.970
92976SOL     OW80759  14.232   0.695  11.838
92976SOL    HW180760  14.226   0.639  11.760
92976SOL    HW280761  14.317   0.739  11.829
92977SOL     OW80762   4.284   8.400  12.888
92977SOL    HW180763   4.292   8.399  12.792
92977SOL    HW280764   4.367   8.435  12.919
92978SOL     OW80765   9.643   4.229   7.558
92978SOL    HW180766   9.645   4.147   7.508
92978SOL    HW280767   9.554   4.234   7.593
92979SOL     OW80768   4.362   2.262   3.054
92979SOL    HW180769   4.450   2.234   3.032
92979SOL    HW280770   4.360   2.262   3.150
92980SOL     OW80771   2.177   4.511   9.927
92980SOL    HW180772   2.151   4.601   9.943
92980SOL    HW280773   2.095   4.465   9.909
92981SOL     OW80774   4.861  14.225   4.425
92981SOL    HW180775   4.843  14.305   4.375
92981SOL    HW280776   4.936  14.185   4.382
92982SOL     OW80777  13.124   6.664  12.759
92982SOL    HW180778  13.054   6.724  12.785
92982SOL    HW280779  13.204   6.704  12.794
92983SOL     OW80780  10.939   9.249  12.638
92983SOL    HW180781  10.885   9.322  12.609
92983SOL    HW280782  10.927   9.182  12.570
92984SOL     OW80783   0.200   7.286  12.633
92984SOL    HW180784   0.154   7.370  12.631
92984SOL    HW280785   0.169   7.239  12.556
92985SOL     OW80786  12.283  13.025  13.496
92985SOL    HW180787  12.325  12.995  13.416
92985SOL    HW280788  12.267  13.118  13.482
92986SOL     OW80789   3.544  13.760   0.620
92986SOL    HW180790   3.590  13.830   0.664
92986SOL    HW280791   3.475  13.803   0.570
92987SOL     OW80792   9.249  14.624  11.376
92987SOL    HW180793   9.247  14.681  11.453
92987SOL    HW280794   9.177  14.563  11.389
92988SOL     OW80795   7.290  10.235  10.657
92988SOL    HW180796   7.314  10.314  10.705
92988SOL    HW280797   7.369  10.210  10.610
92989SOL     OW80798  13.291   7.829   3.425
92989SOL    HW180799  13.346   7.888   3.476
92989SOL    HW280800  13.222   7.801   3.486
92990SOL     OW80801   3.411   9.706   4.284
92990SOL    HW180802   3.504   9.708   4.265
92990SOL    HW280803   3.379   9.626   4.242
92991SOL     OW80804   8.524  12.750   9.036
92991SOL    HW180805   8.555  12.732   9.125
92991SOL    HW280806   8.574  12.827   9.008
92992SOL     OW80807   6.350   8.711   3.093
92992SOL    HW180808   6.403   8.632   3.083
92992SOL    HW280809   6.409   8.783   3.071
92993SOL     OW80810  11.541   9.390   8.111
92993SOL    HW180811  11.505   9.376   8.023
92993SOL    HW280812  11.497   9.469   8.143
92994SOL     OW80813   2.001  12.401   6.421
92994SOL    HW180814   2.016  12.363   6.508
92994SOL    HW280815   1.909  12.429   6.423
92995SOL     OW80816   0.448  13.114  13.359
92995SOL    HW180817   0.475  13.205  13.374
92995SOL    HW280818   0.498  13.086  13.282
92996SOL     OW80819   4.398  11.516   4.777
92996SOL    HW180820   4.348  11.554   4.705
92996SOL    HW280821   4.366  11.426   4.784
92997SOL     OW80822  11.285   9.162   2.851
92997SOL    HW180823  11.351   9.176   2.919
92997SOL    HW280824  11.203   9.189   2.892
92998SOL     OW80825   1.105   6.047   9.695
92998SOL    HW180826   1.195   6.075   9.711
92998SOL    HW280827   1.088   6.072   9.604
92999SOL     OW80828   2.018  14.386  12.001
92999SOL    HW180829   1.988  14.365  12.089
92999SOL    HW280830   2.050  14.303  11.965
93000SOL     OW80831  12.101   6.273  14.607
93000SOL    HW180832  12.105   6.211  14.680
93000SOL    HW280833  12.008   6.283  14.589
93001SOL     OW80834   3.299   6.765   6.149
93001SOL    HW180835   3.239   6.834   6.122
93001SOL    HW280836   3.316   6.715   6.069
93002SOL     OW80837   6.039  12.516   6.298
93002SOL    HW180838   5.946  12.495   6.308
93002SOL    HW280839   6.082  12.470   6.370
93003SOL     OW80840  11.370   5.763   2.633
93003SOL    HW180841  11.456   5.803   2.617
93003SOL    HW280842  11.308   5.835   2.623
93004SOL     OW80843   0.143   1.790   0.894
93004SOL    HW180844   0.092   1.851   0.947
93004SOL    HW280845   0.127   1.817   0.804
93005SOL     OW80846   5.848   1.724   6.406
93005SOL    HW180847   5.873   1.677   6.486
93005SOL    HW280848   5.930   1.763   6.375
93006SOL     OW80849   2.922   5.521   5.169
93006SOL    HW180850   2.879   5.460   5.228
93006SOL    HW280851   2.859   5.533   5.097
93007SOL     OW80852   5.938   8.510   6.834
93007SOL    HW180853   5.962   8.432   6.884
93007SOL    HW280854   6.014   8.527   6.778
93008SOL     OW80855  11.280   3.170   9.388
93008SOL    HW180856  11.304   3.263   9.389
93008SOL    HW280857  11.273   3.149   9.295
93009SOL     OW80858   5.737   2.899  10.138
93009SOL    HW180859   5.731   2.865  10.227
93009SOL    HW280860   5.702   2.828  10.084
93010SOL     OW80861  14.845   8.901   1.475
93010SOL    HW180862  14.876   8.991   1.477
93010SOL    HW280863  14.803   8.891   1.390
93011SOL     OW80864  10.771   5.091  12.161
93011SOL    HW180865  10.718   5.098  12.081
93011SOL    HW280866  10.804   5.001  12.160
93012SOL     OW80867   6.472  12.254   0.804
93012SOL    HW180868   6.494  12.161   0.795
93012SOL    HW280869   6.557  12.298   0.806
93013SOL     OW80870  11.471   1.223   1.292
93013SOL    HW180871  11.378   1.210   1.275
93013SOL    HW280872  11.477   1.307   1.336
93014SOL     OW80873   8.860   0.633   7.486
93014SOL    HW180874   8.941   0.582   7.496
93014SOL    HW280875   8.790   0.567   7.491
93015SOL     OW80876   1.534   7.494  12.526
93015SOL    HW180877   1.502   7.524  12.441
93015SOL    HW280878   1.467   7.522  12.588
93016SOL     OW80879   3.759  14.191  10.258
93016SOL    HW180880   3.677  14.170  10.304
93016SOL    HW280881   3.771  14.285  10.272
93017SOL     OW80882  11.467  14.215   4.072
93017SOL    HW180883  11.541  14.234   4.129
93017SOL    HW280884  11.486  14.261   3.991
93018SOL     OW80885  14.209   4.269   4.393
93018SOL    HW180886  14.144   4.245   4.459
93018SOL    HW280887  14.158   4.315   4.326
93019SOL     OW80888   0.971   5.725   2.613
93019SOL    HW180889   0.986   5.810   2.654
93019SOL    HW280890   1.048   5.710   2.559
93020SOL     OW80891   3.680   9.666   1.148
93020SOL    HW180892   3.667   9.577   1.179
93020SOL    HW280893   3.624   9.720   1.203
93021SOL     OW80894   1.213  12.958   9.785
93021SOL    HW180895   1.142  12.949   9.850
93021SOL    HW280896   1.254  12.872   9.783
93022SOL     OW80897  14.397   5.480   7.923
93022SOL    HW180898  14.353   5.557   7.887
93022SOL    HW280899  14.372   5.480   8.016
93023SOL     OW80900   7.899   5.268   9.251
93023SOL    HW180901   7.982   5.306   9.223
93023SOL    HW280902   7.914   5.243   9.342
93024SOL     OW80903  13.825  11.034  13.477
93024SOL    HW180904  13.755  11.001  13.534
93024SOL    HW280905  13.799  11.006  13.389
93025SOL     OW80906  10.468  14.235  14.067
93025SOL    HW180907  10.516  14.152  14.061
93025SOL    HW280908  10.532  14.298  14.100
93026SOL     OW80909  14.421   5.224   2.100
93026SOL    HW180910  14.513   5.236   2.123
93026SOL    HW280911  14.391   5.312   2.077
93027SOL     OW80912  10.008   4.813   5.744
93027SOL    HW180913   9.966   4.837   5.827
93027SOL    HW280914   9.936   4.805   5.682
93028SOL     OW80915  12.112   4.808  12.371
93028SOL    HW180916  12.102   4.715  12.392
93028SOL    HW280917  12.178   4.810  12.302
93029SOL     OW80918   1.794   0.087   5.875
93029SOL    HW180919   1.782   0.136   5.956
93029SOL    HW280920   1.746   0.005   5.889
93030SOL     OW80921   7.001   1.722  13.374
93030SOL    HW180922   7.071   1.721  13.439
93030SOL    HW280923   6.920   1.720  13.424
93031SOL     OW80924   1.765   1.729  12.715
93031SOL    HW180925   1.754   1.818  12.682
93031SOL    HW280926   1.851   1.729  12.757
93032SOL     OW80927  11.026  11.509   6.656
93032SOL    HW180928  10.934  11.518   6.630
93032SOL    HW280929  11.073  11.569   6.598
93033SOL     OW80930   9.286  13.462   0.726
93033SOL    HW180931   9.280  13.555   0.748
93033SOL    HW280932   9.196  13.432   0.722
93034SOL     OW80933  12.596  10.276   9.816
93034SOL    HW180934  12.578  10.337   9.887
93034SOL    HW280935  12.540  10.305   9.744
93035SOL     OW80936   3.432   9.229  14.111
93035SOL    HW180937   3.354   9.274  14.078
93035SOL    HW280938   3.430   9.143  14.069
93036SOL     OW80939   2.703   7.307   8.104
93036SOL    HW180940   2.779   7.262   8.069
93036SOL    HW280941   2.723   7.320   8.197
93037SOL     OW80942   1.607   5.029  10.343
93037SOL    HW180943   1.606   5.062  10.433
93037SOL    HW280944   1.690   4.984  10.335
93038SOL     OW80945  11.199   9.041  11.814
93038SOL    HW180946  11.255   8.968  11.839
93038SOL    HW280947  11.227   9.063  11.725
93039SOL     OW80948   9.901   6.753   1.614
93039SOL    HW180949   9.825   6.697   1.626
93039SOL    HW280950   9.867   6.842   1.621
93040SOL     OW80951   4.488   0.190   4.338
93040SOL    HW180952   4.472   0.105   4.296
93040SOL    HW280953   4.565   0.176   4.392
93041SOL     OW80954  13.433   1.976   7.133
93041SOL    HW180955  13.432   1.971   7.038
93041SOL    HW280956  13.345   1.949   7.160
93042SOL     OW80957   2.273   6.493   6.264
93042SOL    HW180958   2.190   6.462   6.300
93042SOL    HW280959   2.340   6.444   6.311
93043SOL     OW80960   0.487   3.124  12.635
93043SOL    HW180961   0.571   3.095  12.599
93043SOL    HW280962   0.478   3.214  12.604
93044SOL     OW80963   5.802   7.837  11.245
93044SOL    HW180964   5.824   7.866  11.157
93044SOL    HW280965   5.774   7.916  11.291
93045SOL     OW80966   1.715  12.078  14.412
93045SOL    HW180967   1.786  12.031  14.454
93045SOL    HW280968   1.665  12.116  14.484
93046SOL     OW80969   6.224   9.251  12.586
93046SOL    HW180970   6.131   9.256  12.566
93046SOL    HW280971   6.253   9.342  12.589
93047SOL     OW80972   3.908   8.291   9.238
93047SOL    HW180973   3.877   8.261   9.324
93047SOL    HW280974   3.874   8.226   9.176
93048SOL     OW80975   7.790  11.835  14.564
93048SOL    HW180976   7.777  11.754  14.613
93048SOL    HW280977   7.781  11.905  14.629
93049SOL     OW80978   1.133   5.270  10.702
93049SOL    HW180979   1.081   5.281  10.782
93049SOL    HW280980   1.152   5.176  10.699
93050SOL     OW80981   2.612   5.043   6.133
93050SOL    HW180982   2.582   5.083   6.051
93050SOL    HW280983   2.658   5.113   6.179
93051SOL     OW80984   6.634   4.229   6.969
93051SOL    HW180985   6.651   4.150   6.919
93051SOL    HW280986   6.563   4.206   7.028
93052SOL     OW80987   8.744   5.132  14.066
93052SOL    HW180988   8.746   5.046  14.024
93052SOL    HW280989   8.668   5.128  14.123
93053SOL     OW80990   6.274   8.179  14.543
93053SOL    HW180991   6.363   8.145  14.534
93053SOL    HW280992   6.218   8.102  14.529
93054SOL     OW80993  13.369   8.991   9.224
93054SOL    HW180994  13.402   9.022   9.139
93054SOL    HW280995  13.332   8.905   9.205
93055SOL     OW80996   6.368   1.960  13.073
93055SOL    HW180997   6.407   2.027  13.129
93055SOL    HW280998   6.281   1.995  13.053
93056SOL     OW80999   2.491  14.763  10.275
93056SOL    HW181000   2.433  14.817  10.220
93056SOL    HW281001   2.560  14.734  10.215
93057SOL     OW81002   4.287   6.643   0.829
93057SOL    HW181003   4.214   6.580   0.830
93057SOL    HW281004   4.342   6.613   0.756
93058SOL     OW81005   3.002  14.630  13.807
93058SOL    HW181006   2.929  14.595  13.859
93058SOL    HW281007   2.961  14.693  13.747
93059SOL     OW81008   3.269   5.510   0.948
93059SOL    HW181009   3.207   5.476   0.883
93059SOL    HW281010   3.349   5.525   0.898
93060SOL     OW81011   3.000   4.333   0.819
93060SOL    HW181012   2.944   4.257   0.829
93060SOL    HW281013   3.002   4.374   0.905
93061SOL     OW81014   1.043  11.317   6.424
93061SOL    HW181015   1.115  11.371   6.391
93061SOL    HW281016   1.086  11.235   6.452
93062SOL     OW81017   5.567   3.544   9.907
93062SOL    HW181018   5.482   3.542   9.862
93062SOL    HW281019   5.555   3.485   9.982
93063SOL     OW81020  10.410  13.622   0.126
93063SOL    HW181021  10.383  13.704   0.086
93063SOL    HW281022  10.425  13.643   0.218
93064SOL     OW81023   2.155   1.077   5.300
93064SOL    HW181024   2.135   1.055   5.209
93064SOL    HW281025   2.204   1.159   5.294
93065SOL     OW81026  11.224  13.648   4.152
93065SOL    HW181027  11.302  13.649   4.208
93065SOL    HW281028  11.160  13.702   4.199
93066SOL     OW81029   4.278  11.165  13.067
93066SOL    HW181030   4.245  11.252  13.044
93066SOL    HW281031   4.259  11.110  12.992
93067SOL     OW81032   9.034   9.999   0.571
93067SOL    HW181033   8.968   9.999   0.501
93067SOL    HW281034   8.986   9.975   0.650
93068SOL     OW81035  12.667   8.451   0.140
93068SOL    HW181036  12.585   8.410   0.112
93068SOL    HW281037  12.644   8.543   0.155
93069SOL     OW81038   3.022   4.000   0.770
93069SOL    HW181039   3.043   3.909   0.749
93069SOL    HW281040   2.964   4.028   0.699
93070SOL     OW81041  14.836   7.549   4.437
93070SOL    HW181042   0.042   7.516   4.418
93070SOL    HW281043  14.799   7.483   4.497
93071SOL     OW81044   4.446  11.648   5.825
93071SOL    HW181045   4.482  11.626   5.739
93071SOL    HW281046   4.468  11.572   5.879
93072SOL     OW81047   0.234  13.079   5.023
93072SOL    HW181048   0.196  13.116   4.944
93072SOL    HW281049   0.289  13.007   4.992
93073SOL     OW81050   8.413   1.892   2.227
93073SOL    HW181051   8.380   1.802   2.225
93073SOL    HW281052   8.489   1.891   2.168
93074SOL     OW81053   9.206   9.042   1.057
93074SOL    HW181054   9.113   9.062   1.055
93074SOL    HW281055   9.241   9.081   0.977
93075SOL     OW81056   1.412   3.782  10.851
93075SOL    HW181057   1.363   3.720  10.905
93075SOL    HW281058   1.365   3.784  10.767
93076SOL     OW81059   3.564   9.731   2.306
93076SOL    HW181060   3.565   9.712   2.212
93076SOL    HW281061   3.477   9.706   2.335
93077SOL     OW81062   7.009   5.664   1.662
93077SOL    HW181063   6.933   5.716   1.687
93077SOL    HW281064   7.022   5.604   1.735
93078SOL     OW81065   4.387   2.362   1.847
93078SOL    HW181066   4.369   2.269   1.833
93078SOL    HW281067   4.448   2.386   1.777
93079SOL     OW81068   5.807   5.057  13.445
93079SOL    HW181069   5.800   4.961  13.440
93079SOL    HW281070   5.866   5.072  13.519
93080SOL     OW81071  11.694  10.523  13.310
93080SOL    HW181072  11.748  10.576  13.252
93080SOL    HW281073  11.686  10.576  13.390
93081SOL     OW81074   1.817  11.836   9.212
93081SOL    HW181075   1.806  11.885   9.131
93081SOL    HW281076   1.737  11.785   9.220
93082SOL     OW81077   4.279   3.120  13.234
93082SOL    HW181078   4.319   3.084  13.314
93082SOL    HW281079   4.340   3.189  13.206
93083SOL     OW81080  11.589  10.005  14.549
93083SOL    HW181081  11.589  10.075  14.614
93083SOL    HW281082  11.680   9.975  14.546
93084SOL     OW81083  12.536   9.721   4.681
93084SOL    HW181084  12.614   9.711   4.735
93084SOL    HW281085  12.538   9.813   4.654
93085SOL     OW81086   4.943   1.189  13.282
93085SOL    HW181087   5.035   1.197  13.308
93085SOL    HW281088   4.906   1.124  13.342
93086SOL     OW81089  14.431  12.436   2.037
93086SOL    HW181090  14.349  12.463   2.080
93086SOL    HW281091  14.491  12.509   2.053
93087SOL     OW81092   8.434   9.048   1.274
93087SOL    HW181093   8.490   9.017   1.202
93087SOL    HW281094   8.348   9.012   1.255
93088SOL     OW81095  14.401   5.365  12.120
93088SOL    HW181096  14.410   5.284  12.069
93088SOL    HW281097  14.358   5.338  12.201
93089SOL     OW81098   9.753   7.710  11.231
93089SOL    HW181099   9.780   7.802  11.234
93089SOL    HW281100   9.828   7.661  11.264
93090SOL     OW81101   7.501  10.838  12.800
93090SOL    HW181102   7.489  10.930  12.776
93090SOL    HW281103   7.590  10.817  12.773
93091SOL     OW81104   1.291   1.561   5.331
93091SOL    HW181105   1.353   1.601   5.270
93091SOL    HW281106   1.233   1.509   5.276
93092SOL     OW81107   6.816   9.223   4.921
93092SOL    HW181108   6.737   9.171   4.933
93092SOL    HW281109   6.875   9.195   4.992
93093SOL     OW81110   8.388   6.441   5.979
93093SOL    HW181111   8.476   6.414   6.006
93093SOL    HW281112   8.348   6.360   5.947
93094SOL     OW81113   9.784  13.737  12.294
93094SOL    HW181114   9.830  13.821  12.288
93094SOL    HW281115   9.839  13.684  12.352
93095SOL     OW81116  11.846   4.377  10.188
93095SOL    HW181117  11.851   4.310  10.120
93095SOL    HW281118  11.840   4.460  10.139
93096SOL     OW81119   6.368   9.928   6.253
93096SOL    HW181120   6.442   9.881   6.216
93096SOL    HW281121   6.355   9.890   6.339
93097SOL     OW81122  12.415  13.673  11.536
93097SOL    HW181123  12.327  13.699  11.563
93097SOL    HW281124  12.455  13.637  11.616
93098SOL     OW81125   7.709   4.655  13.257
93098SOL    HW181126   7.783   4.687  13.309
93098SOL    HW281127   7.745   4.641  13.169
93099SOL     OW81128   4.802   5.386  14.127
93099SOL    HW181129   4.814   5.312  14.187
93099SOL    HW281130   4.839   5.356  14.044
93100SOL     OW81131  11.979   0.469   3.901
93100SOL    HW181132  11.924   0.547   3.893
93100SOL    HW281133  11.953   0.413   3.828
93101SOL     OW81134  13.970   3.735   4.156
93101SOL    HW181135  13.935   3.791   4.086
93101SOL    HW281136  13.892   3.706   4.203
93102SOL     OW81137   8.481  13.283  10.019
93102SOL    HW181138   8.559  13.298   9.966
93102SOL    HW281139   8.494  13.196  10.057
93103SOL     OW81140   9.912   3.060   3.153
93103SOL    HW181141   9.899   3.151   3.178
93103SOL    HW281142   9.829   3.034   3.113
93104SOL     OW81143   1.337   6.953   6.175
93104SOL    HW181144   1.301   6.929   6.260
93104SOL    HW281145   1.432   6.944   6.185
93105SOL     OW81146   9.526  11.890  12.743
93105SOL    HW181147   9.539  11.858  12.654
93105SOL    HW281148   9.492  11.979  12.732
93106SOL     OW81149   8.941   4.526   2.994
93106SOL    HW181150   8.898   4.589   2.935
93106SOL    HW281151   9.034   4.534   2.974
93107SOL     OW81152   8.086   1.826   0.440
93107SOL    HW181153   8.109   1.902   0.386
93107SOL    HW281154   8.030   1.773   0.383
93108SOL     OW81155  14.398  11.243   0.308
93108SOL    HW181156  14.408  11.204   0.395
93108SOL    HW281157  14.341  11.182   0.261
93109SOL     OW81158   8.219   0.303  10.198
93109SOL    HW181159   8.138   0.329  10.242
93109SOL    HW281160   8.235   0.213  10.228
93110SOL     OW81161   9.721   2.211   6.895
93110SOL    HW181162   9.798   2.259   6.925
93110SOL    HW281163   9.675   2.271   6.836
93111SOL     OW81164   5.263   7.234  11.648
93111SOL    HW181165   5.324   7.222  11.721
93111SOL    HW281166   5.315   7.277  11.581
93112SOL     OW81167   6.858   3.573  14.842
93112SOL    HW181168   6.893   3.651   0.004
93112SOL    HW281169   6.860   3.505   0.028
93113SOL     OW81170  13.381   5.909   3.837
93113SOL    HW181171  13.328   5.852   3.781
93113SOL    HW281172  13.359   5.998   3.810
93114SOL     OW81173  13.860   8.828   9.457
93114SOL    HW181174  13.784   8.788   9.414
93114SOL    HW281175  13.932   8.815   9.395
93115SOL     OW81176  13.780   9.952  14.210
93115SOL    HW181177  13.805   9.901  14.133
93115SOL    HW281178  13.775  10.042  14.178
93116SOL     OW81179  13.241   1.203  12.397
93116SOL    HW181180  13.192   1.199  12.315
93116SOL    HW281181  13.268   1.294  12.405
93117SOL     OW81182   6.115   1.538   3.169
93117SOL    HW181183   6.191   1.553   3.226
93117SOL    HW281184   6.152   1.501   3.089
93118SOL     OW81185   3.666   7.955   9.323
93118SOL    HW181186   3.737   7.911   9.370
93118SOL    HW281187   3.604   7.885   9.303
93119SOL     OW81188  14.395   1.925   2.856
93119SOL    HW181189  14.330   1.980   2.812
93119SOL    HW281190  14.356   1.906   2.941
93120SOL     OW81191  13.868   0.939  12.157
93120SOL    HW181192  13.922   0.977  12.227
93120SOL    HW281193  13.929   0.921  12.086
93121SOL     OW81194   1.041   9.176   3.461
93121SOL    HW181195   1.087   9.202   3.541
93121SOL    HW281196   0.996   9.255   3.433
93122SOL     OW81197  11.409   2.711   0.101
93122SOL    HW181198  11.315   2.716   0.086
93122SOL    HW281199  11.418   2.652   0.176
93123SOL     OW81200   5.017   1.966   1.082
93123SOL    HW181201   5.016   2.057   1.112
93123SOL    HW281202   5.085   1.924   1.133
93124SOL     OW81203   6.429  13.643   7.855
93124SOL    HW181204   6.452  13.603   7.939
93124SOL    HW281205   6.496  13.711   7.842
93125SOL     OW81206   2.993   6.240   2.671
93125SOL    HW181207   2.974   6.241   2.765
93125SOL    HW281208   3.066   6.301   2.661
93126SOL     OW81209  10.091  13.806   3.847
93126SOL    HW181210  10.089  13.749   3.924
93126SOL    HW281211  10.002  13.802   3.811
93127SOL     OW81212   5.215   9.739   0.989
93127SOL    HW181213   5.218   9.646   0.965
93127SOL    HW281214   5.299   9.774   0.960
93128SOL     OW81215   4.038   2.015   8.638
93128SOL    HW181216   3.971   1.960   8.678
93128SOL    HW281217   3.997   2.101   8.631
93129SOL     OW81218   0.420   5.359   7.451
93129SOL    HW181219   0.388   5.283   7.499
93129SOL    HW281220   0.507   5.334   7.420
93130SOL     OW81221  10.844  10.317  12.300
93130SOL    HW181222  10.793  10.316  12.219
93130SOL    HW281223  10.932  10.292  12.272
93131SOL     OW81224   5.544   9.638  13.501
93131SOL    HW181225   5.529   9.617  13.593
93131SOL    HW281226   5.564   9.732  13.501
93132SOL     OW81227   2.939  10.134   8.786
93132SOL    HW181228   2.983  10.052   8.810
93132SOL    HW281229   2.992  10.170   8.715
93133SOL     OW81230   6.688   4.550   9.525
93133SOL    HW181231   6.672   4.537   9.432
93133SOL    HW281232   6.673   4.463   9.564
93134SOL     OW81233   3.063   4.542   7.327
93134SOL    HW181234   2.979   4.500   7.309
93134SOL    HW281235   3.049   4.590   7.409
93135SOL     OW81236  13.373  12.294   2.050
93135SOL    HW181237  13.279  12.296   2.032
93135SOL    HW281238  13.406  12.375   2.013
93136SOL     OW81239   9.897   7.467   8.949
93136SOL    HW181240   9.892   7.493   9.041
93136SOL    HW281241   9.913   7.373   8.952
93137SOL     OW81242   3.864   9.431  14.123
93137SOL    HW181243   3.921   9.356  14.137
93137SOL    HW281244   3.829   9.418  14.035
93138SOL     OW81245   0.100   6.452  10.332
93138SOL    HW181246   0.144   6.379  10.289
93138SOL    HW281247   0.111   6.526  10.272
93139SOL     OW81248  12.130   3.849  13.017
93139SOL    HW181249  12.053   3.808  13.056
93139SOL    HW281250  12.102   3.939  13.000
93140SOL     OW81251   6.778   2.992   0.598
93140SOL    HW181252   6.739   3.057   0.538
93140SOL    HW281253   6.847   2.950   0.547
93141SOL     OW81254   3.108   0.108  13.842
93141SOL    HW181255   3.014   0.118  13.827
93141SOL    HW281256   3.115   0.087  13.935
93142SOL     OW81257  13.227   7.686   7.178
93142SOL    HW181258  13.319   7.658   7.175
93142SOL    HW281259  13.178   7.608   7.153
93143SOL     OW81260  14.168   5.540  10.656
93143SOL    HW181261  14.092   5.593  10.629
93143SOL    HW281262  14.132   5.473  10.713
93144SOL     OW81263   2.662  14.056  12.724
93144SOL    HW181264   2.578  14.068  12.769
93144SOL    HW281265   2.638  14.011  12.642
93145SOL     OW81266  13.517   6.781  14.690
93145SOL    HW181267  13.495   6.740  14.606
93145SOL    HW281268  13.609   6.758  14.704
93146SOL     OW81269   0.881  14.429   0.303
93146SOL    HW181270   0.856  14.498   0.242
93146SOL    HW281271   0.832  14.352   0.274
93147SOL     OW81272  11.952   0.020   1.253
93147SOL    HW181273  11.885   0.078   1.288
93147SOL    HW281274  12.025   0.078   1.231
93148SOL     OW81275   9.616   0.065   1.690
93148SOL    HW181276   9.628   0.123   1.765
93148SOL    HW281277   9.612  14.859   1.728
93149SOL     OW81278  14.684   7.957   0.159
93149SOL    HW181279  14.647   7.875   0.125
93149SOL    HW281280  14.778   7.939   0.167
93150SOL     OW81281   2.182   4.077   9.027
93150SOL    HW181282   2.191   4.147   9.092
93150SOL    HW281283   2.158   4.000   9.077
93151SOL     OW81284  14.336   3.451   8.025
93151SOL    HW181285  14.325   3.384   8.092
93151SOL    HW281286  14.280   3.523   8.053
93152SOL     OW81287  11.599  13.844  13.093
93152SOL    HW181288  11.610  13.843  12.998
93152SOL    HW281289  11.679  13.802  13.126
93153SOL     OW81290  10.131   6.931  13.369
93153SOL    HW181291  10.178   6.897  13.445
93153SOL    HW281292  10.116   7.023  13.388
93154SOL     OW81293  10.599   2.169   4.142
93154SOL    HW181294  10.692   2.145   4.135
93154SOL    HW281295  10.565   2.160   4.053
93155SOL     OW81296   3.477   5.354   5.589
93155SOL    HW181297   3.571   5.351   5.571
93155SOL    HW281298   3.441   5.409   5.520
93156SOL     OW81299   1.078   9.045   7.789
93156SOL    HW181300   1.030   8.962   7.785
93156SOL    HW281301   1.136   9.036   7.864
93157SOL     OW81302  14.308  13.075  13.765
93157SOL    HW181303  14.314  13.051  13.857
93157SOL    HW281304  14.399  13.077  13.735
93158SOL     OW81305   7.493   9.025   1.829
93158SOL    HW181306   7.403   8.991   1.828
93158SOL    HW281307   7.501   9.074   1.748
93159SOL     OW81308  11.496   7.458   8.179
93159SOL    HW181309  11.447   7.398   8.236
93159SOL    HW281310  11.475   7.428   8.090
93160SOL     OW81311   9.499   9.143   5.098
93160SOL    HW181312   9.448   9.070   5.133
93160SOL    HW281313   9.445   9.176   5.026
93161SOL     OW81314   6.122   9.825   9.590
93161SOL    HW181315   6.057   9.755   9.582
93161SOL    HW281316   6.114   9.855   9.681
93162SOL     OW81317  12.454   7.746  14.413
93162SOL    HW181318  12.416   7.689  14.346
93162SOL    HW281319  12.547   7.723  14.415
93163SOL     OW81320   4.474   2.394   8.976
93163SOL    HW181321   4.470   2.485   9.006
93163SOL    HW281322   4.440   2.397   8.887
93164SOL     OW81323   3.408  10.929   5.198
93164SOL    HW181324   3.490  10.906   5.243
93164SOL    HW281325   3.364  10.989   5.258
93165SOL     OW81326  11.666   8.146   6.757
93165SOL    HW181327  11.632   8.059   6.776
93165SOL    HW281328  11.743   8.131   6.702
93166SOL     OW81329   4.158   0.843   9.357
93166SOL    HW181330   4.209   0.909   9.311
93166SOL    HW281331   4.221   0.775   9.381
93167SOL     OW81332   7.762  14.369  12.306
93167SOL    HW181333   7.828  14.313  12.266
93167SOL    HW281334   7.683  14.354  12.253
93168SOL     OW81335  12.595   0.999  13.943
93168SOL    HW181336  12.586   1.010  14.038
93168SOL    HW281337  12.685   1.025  13.925
93169SOL     OW81338   8.235  12.685  13.783
93169SOL    HW181339   8.279  12.763  13.817
93169SOL    HW281340   8.253  12.686  13.689
93170SOL     OW81341  14.191   6.374   5.975
93170SOL    HW181342  14.159   6.337   5.892
93170SOL    HW281343  14.286   6.377   5.964
93171SOL     OW81344  11.878   5.633   2.480
93171SOL    HW181345  11.855   5.686   2.403
93171SOL    HW281346  11.969   5.656   2.499
93172SOL     OW81347   9.719  13.987   9.102
93172SOL    HW181348   9.674  13.931   9.165
93172SOL    HW281349   9.683  14.074   9.118
93173SOL     OW81350   7.694   3.330  11.877
93173SOL    HW181351   7.659   3.352  11.791
93173SOL    HW281352   7.748   3.252  11.862
93174SOL     OW81353   0.225  13.933   3.909
93174SOL    HW181354   0.244  13.950   4.001
93174SOL    HW281355   0.279  13.857   3.886
93175SOL     OW81356   9.262  11.389   3.586
93175SOL    HW181357   9.321  11.424   3.653
93175SOL    HW281358   9.320  11.352   3.520
93176SOL     OW81359  14.047   5.360   2.151
93176SOL    HW181360  14.093   5.287   2.192
93176SOL    HW281361  14.078   5.360   2.060
93177SOL     OW81362   6.006   8.685   7.156
93177SOL    HW181363   6.078   8.635   7.118
93177SOL    HW281364   6.003   8.766   7.106
93178SOL     OW81365  13.626  12.152   4.851
93178SOL    HW181366  13.535  12.145   4.823
93178SOL    HW281367  13.629  12.108   4.936
93179SOL     OW81368   9.533   6.564  12.001
93179SOL    HW181369   9.454   6.618  12.011
93179SOL    HW281370   9.592   6.619  11.950
93180SOL     OW81371   0.528  13.466  12.436
93180SOL    HW181372   0.551  13.457  12.343
93180SOL    HW281373   0.452  13.524  12.436
93181SOL     OW81374   1.441  13.797  12.600
93181SOL    HW181375   1.488  13.854  12.662
93181SOL    HW281376   1.447  13.843  12.516
93182SOL     OW81377  10.505   3.187  10.629
93182SOL    HW181378  10.510   3.125  10.701
93182SOL    HW281379  10.544   3.140  10.555
93183SOL     OW81380  12.036   6.645  10.090
93183SOL    HW181381  12.047   6.554  10.063
93183SOL    HW281382  12.021   6.693  10.008
93184SOL     OW81383  12.521   6.071   1.627
93184SOL    HW181384  12.439   6.037   1.592
93184SOL    HW281385  12.494   6.141   1.687
93185SOL     OW81386   3.165   6.880   2.250
93185SOL    HW181387   3.113   6.946   2.296
93185SOL    HW281388   3.135   6.797   2.287
93186SOL     OW81389  12.744   1.279   5.824
93186SOL    HW181390  12.671   1.324   5.783
93186SOL    HW281391  12.773   1.215   5.758
93187SOL     OW81392   5.973   2.663   1.092
93187SOL    HW181393   5.969   2.686   1.000
93187SOL    HW281394   6.062   2.685   1.119
93188SOL     OW81395  12.641   8.311   1.745
93188SOL    HW181396  12.664   8.301   1.837
93188SOL    HW281397  12.709   8.264   1.697
93189SOL     OW81398   7.671  11.155   8.231
93189SOL    HW181399   7.612  11.127   8.161
93189SOL    HW281400   7.707  11.074   8.266
93190SOL     OW81401  12.113   2.919   9.441
93190SOL    HW181402  12.105   2.956   9.529
93190SOL    HW281403  12.023   2.914   9.409
93191SOL     OW81404  10.900   8.346   5.342
93191SOL    HW181405  10.987   8.321   5.373
93191SOL    HW281406  10.840   8.314   5.409
93192SOL     OW81407   5.797   4.445   7.263
93192SOL    HW181408   5.723   4.496   7.230
93192SOL    HW281409   5.869   4.509   7.269
93193SOL     OW81410   3.107  13.200  12.927
93193SOL    HW181411   3.148  13.232  13.007
93193SOL    HW281412   3.134  13.108  12.922
93194SOL     OW81413   3.671   7.158   0.387
93194SOL    HW181414   3.631   7.121   0.308
93194SOL    HW281415   3.694   7.081   0.440
93195SOL     OW81416   2.694   5.879   2.892
93195SOL    HW181417   2.664   5.790   2.911
93195SOL    HW281418   2.780   5.868   2.852
93196SOL     OW81419   6.961   4.786  13.532
93196SOL    HW181420   6.886   4.789  13.472
93196SOL    HW281421   7.038   4.791  13.475
93197SOL     OW81422  13.209  14.305  13.894
93197SOL    HW181423  13.194  14.363  13.969
93197SOL    HW281424  13.175  14.220  13.922
93198SOL     OW81425   1.442   9.071   4.336
93198SOL    HW181426   1.475   9.039   4.420
93198SOL    HW281427   1.421   8.992   4.286
93199SOL     OW81428   9.417   8.216   1.227
93199SOL    HW181429   9.489   8.161   1.195
93199SOL    HW281430   9.379   8.255   1.148
93200SOL     OW81431   4.133   5.002  12.237
93200SOL    HW181432   4.096   4.922  12.200
93200SOL    HW281433   4.072   5.026  12.307
93201SOL     OW81434   9.635   8.389   5.748
93201SOL    HW181435   9.692   8.313   5.754
93201SOL    HW281436   9.576   8.369   5.676
93202SOL     OW81437  14.722  12.957  11.215
93202SOL    HW181438  14.677  12.875  11.234
93202SOL    HW281439  14.658  13.026  11.236
93203SOL     OW81440   3.214   6.044   6.438
93203SOL    HW181441   3.222   6.140   6.435
93203SOL    HW281442   3.197   6.025   6.530
93204SOL     OW81443   8.486   0.145   4.136
93204SOL    HW181444   8.575   0.124   4.163
93204SOL    HW281445   8.431   0.120   4.210
93205SOL     OW81446   6.569  10.318   9.167
93205SOL    HW181447   6.657  10.280   9.181
93205SOL    HW281448   6.562  10.386   9.234
93206SOL     OW81449   6.985   5.859   0.975
93206SOL    HW181450   6.978   5.764   0.984
93206SOL    HW281451   7.034   5.887   1.053
93207SOL     OW81452   4.747   7.973   0.225
93207SOL    HW181453   4.764   8.011   0.139
93207SOL    HW281454   4.823   7.916   0.242
93208SOL     OW81455   2.051  11.474   8.338
93208SOL    HW181456   2.100  11.391   8.337
93208SOL    HW281457   2.089  11.525   8.267
93209SOL     OW81458  13.340   6.922   5.470
93209SOL    HW181459  13.338   6.975   5.391
93209SOL    HW281460  13.357   6.984   5.541
93210SOL     OW81461  11.921   3.238   0.435
93210SOL    HW181462  11.947   3.184   0.360
93210SOL    HW281463  11.989   3.305   0.441
93211SOL     OW81464   3.404  12.933  13.910
93211SOL    HW181465   3.446  13.019  13.905
93211SOL    HW281466   3.472  12.875  13.943
93212SOL     OW81467  11.342  11.899   7.170
93212SOL    HW181468  11.285  11.944   7.233
93212SOL    HW281469  11.342  11.808   7.199
93213SOL     OW81470   3.823  13.115  12.308
93213SOL    HW181471   3.810  13.021  12.294
93213SOL    HW281472   3.913  13.122  12.342
93214SOL     OW81473   5.372  14.816   0.086
93214SOL    HW181474   5.377  14.820  14.873
93214SOL    HW281475   5.357   0.025   0.113
93215SOL     OW81476   7.224  13.456   1.326
93215SOL    HW181477   7.180  13.463   1.241
93215SOL    HW281478   7.294  13.521   1.323
93216SOL     OW81479   1.346   7.965   0.266
93216SOL    HW181480   1.310   8.054   0.270
93216SOL    HW281481   1.439   7.977   0.248
93217SOL     OW81482  13.170   9.828   3.016
93217SOL    HW181483  13.261   9.813   3.042
93217SOL    HW281484  13.128   9.863   3.095
93218SOL     OW81485   1.030  14.161  10.373
93218SOL    HW181486   1.044  14.098  10.302
93218SOL    HW281487   1.116  14.199  10.389
93219SOL     OW81488   5.202   7.303   0.553
93219SOL    HW181489   5.157   7.329   0.633
93219SOL    HW281490   5.290   7.278   0.581
93220SOL     OW81491   9.345   6.179   3.039
93220SOL    HW181492   9.358   6.273   3.044
93220SOL    HW281493   9.348   6.149   3.130
93221SOL     OW81494   0.535   8.097   6.198
93221SOL    HW181495   0.540   8.174   6.256
93221SOL    HW281496   0.626   8.067   6.190
93222SOL     OW81497   3.436  14.646  14.828
93222SOL    HW181498   3.363  14.588  14.805
93222SOL    HW281499   3.481  14.601   0.017
93223SOL     OW81500   8.235   1.349   8.571
93223SOL    HW181501   8.323   1.370   8.604
93223SOL    HW281502   8.250   1.278   8.508
93224SOL     OW81503   3.422   0.340   3.535
93224SOL    HW181504   3.336   0.359   3.497
93224SOL    HW281505   3.429   0.245   3.531
93225SOL     OW81506   4.109  14.438  13.129
93225SOL    HW181507   4.181  14.488  13.167
93225SOL    HW281508   4.083  14.487  13.052
93226SOL     OW81509   8.499   4.675   6.393
93226SOL    HW181510   8.426   4.735   6.407
93226SOL    HW281511   8.561   4.695   6.463
93227SOL     OW81512  11.324   2.410  12.099
93227SOL    HW181513  11.365   2.331  12.134
93227SOL    HW281514  11.252   2.378  12.045
93228SOL     OW81515   6.603   6.596   1.131
93228SOL    HW181516   6.635   6.581   1.220
93228SOL    HW281517   6.509   6.612   1.141
93229SOL     OW81518   3.387   4.353  14.676
93229SOL    HW181519   3.466   4.313  14.711
93229SOL    HW281520   3.382   4.323  14.586
93230SOL     OW81521   0.977   0.575   2.351
93230SOL    HW181522   1.031   0.609   2.422
93230SOL    HW281523   1.008   0.621   2.273
93231SOL     OW81524  10.170   1.245  10.673
93231SOL    HW181525  10.143   1.154  10.658
93231SOL    HW281526  10.172   1.284  10.585
93232SOL     OW81527  10.331   5.254   7.029
93232SOL    HW181528  10.246   5.291   7.003
93232SOL    HW281529  10.352   5.299   7.111
93233SOL     OW81530   7.312   4.614   4.529
93233SOL    HW181531   7.315   4.518   4.523
93233SOL    HW281532   7.227   4.633   4.569
93234SOL     OW81533   0.330   7.089  13.538
93234SOL    HW181534   0.244   7.090  13.497
93234SOL    HW281535   0.391   7.078  13.465
93235SOL     OW81536   2.257  13.539   0.603
93235SOL    HW181537   2.348  13.569   0.596
93235SOL    HW281538   2.206  13.619   0.611
93236SOL     OW81539   6.420   4.437   6.569
93236SOL    HW181540   6.338   4.406   6.531
93236SOL    HW281541   6.393   4.483   6.649
93237SOL     OW81542   0.317  10.903   3.497
93237SOL    HW181543   0.277  10.968   3.439
93237SOL    HW281544   0.260  10.903   3.574
93238SOL     OW81545   4.076   2.038   6.747
93238SOL    HW181546   4.049   1.975   6.680
93238SOL    HW281547   3.995   2.062   6.792
93239SOL     OW81548  12.408  14.813  12.366
93239SOL    HW181549  12.385  14.740  12.423
93239SOL    HW281550  12.442  14.772  12.287
93240SOL     OW81551   2.032  11.332   6.526
93240SOL    HW181552   2.073  11.258   6.480
93240SOL    HW281553   2.076  11.335   6.611
93241SOL     OW81554  12.781   0.970   2.686
93241SOL    HW181555  12.741   1.044   2.641
93241SOL    HW281556  12.832   1.010   2.757
93242SOL     OW81557  10.249  14.552   1.037
93242SOL    HW181558  10.255  14.584   1.127
93242SOL    HW281559  10.269  14.628   0.983
93243SOL     OW81560   2.830   2.667   6.726
93243SOL    HW181561   2.801   2.652   6.636
93243SOL    HW281562   2.832   2.579   6.765
93244SOL     OW81563   2.194   6.789   0.846
93244SOL    HW181564   2.105   6.791   0.880
93244SOL    HW281565   2.245   6.843   0.907
93245SOL     OW81566  14.074   9.662   8.936
93245SOL    HW181567  14.079   9.709   9.019
93245SOL    HW281568  13.993   9.611   8.942
93246SOL     OW81569  12.297   8.740   8.565
93246SOL    HW181570  12.344   8.657   8.557
93246SOL    HW281571  12.346   8.789   8.631
93247SOL     OW81572   5.268   9.607   4.362
93247SOL    HW181573   5.311   9.522   4.353
93247SOL    HW281574   5.334   9.671   4.333
93248SOL     OW81575  11.894  10.047   6.435
93248SOL    HW181576  11.875  10.134   6.470
93248SOL    HW281577  11.902   9.991   6.512
93249SOL     OW81578   4.680   8.418   4.025
93249SOL    HW181579   4.665   8.379   3.939
93249SOL    HW281580   4.718   8.347   4.078
93250SOL     OW81581   0.075   5.821   4.028
93250SOL    HW181582   0.090   5.786   4.116
93250SOL    HW281583   0.162   5.843   3.996
93251SOL     OW81584   6.275   8.522   5.137
93251SOL    HW181585   6.180   8.521   5.135
93251SOL    HW281586   6.298   8.608   5.174
93252SOL     OW81587   2.665   8.976  12.546
93252SOL    HW181588   2.580   8.946  12.578
93252SOL    HW281589   2.656   8.980  12.451
93253SOL     OW81590   2.800   1.880   1.917
93253SOL    HW181591   2.874   1.868   1.857
93253SOL    HW281592   2.836   1.861   2.004
93254SOL     OW81593  12.090  13.152  12.396
93254SOL    HW181594  11.996  13.143  12.409
93254SOL    HW281595  12.101  13.156  12.301
93255SOL     OW81596   8.850   0.896  13.008
93255SOL    HW181597   8.904   0.817  13.016
93255SOL    HW281598   8.870   0.929  12.921
93256SOL     OW81599  10.605   0.586  13.583
93256SOL    HW181600  10.581   0.668  13.626
93256SOL    HW281601  10.614   0.523  13.655
93257SOL     OW81602  13.304   2.018   0.641
93257SOL    HW181603  13.340   2.083   0.581
93257SOL    HW281604  13.245   1.965   0.586
93258SOL     OW81605   4.433   5.290   7.775
93258SOL    HW181606   4.518   5.279   7.733
93258SOL    HW281607   4.424   5.385   7.784
93259SOL     OW81608   2.209   0.720  10.899
93259SOL    HW181609   2.265   0.697  10.824
93259SOL    HW281610   2.269   0.762  10.961
93260SOL     OW81611   6.846   5.101   0.288
93260SOL    HW181612   6.866   5.133   0.376
93260SOL    HW281613   6.767   5.149   0.262
93261SOL     OW81614   8.624   7.806  10.121
93261SOL    HW181615   8.713   7.828  10.093
93261SOL    HW281616   8.584   7.889  10.144
93262SOL     OW81617  10.881   3.972  13.073
93262SOL    HW181618  10.946   4.035  13.104
93262SOL    HW281619  10.810   3.978  13.136
93263SOL     OW81620  10.074   9.745   4.651
93263SOL    HW181621  10.044   9.771   4.738
93263SOL    HW281622   9.996   9.711   4.607
93264SOL     OW81623   8.719   1.887   5.554
93264SOL    HW181624   8.698   1.939   5.476
93264SOL    HW281625   8.685   1.800   5.535
93265SOL     OW81626   6.511   8.595   8.337
93265SOL    HW181627   6.434   8.557   8.293
93265SOL    HW281628   6.507   8.559   8.426
93266SOL     OW81629  10.793  12.812   3.130
93266SOL    HW181630  10.764  12.898   3.159
93266SOL    HW281631  10.726  12.783   3.069
93267SOL     OW81632   3.269   9.882  11.202
93267SOL    HW181633   3.268   9.810  11.140
93267SOL    HW281634   3.274   9.961  11.148
93268SOL     OW81635   1.606   9.874   7.912
93268SOL    HW181636   1.631   9.907   7.998
93268SOL    HW281637   1.659   9.795   7.900
93269SOL     OW81638   4.162   3.320   9.443
93269SOL    HW181639   4.165   3.342   9.350
93269SOL    HW281640   4.180   3.403   9.488
93270SOL     OW81641   6.009  11.179   8.871
93270SOL    HW181642   5.996  11.270   8.845
93270SOL    HW281643   6.095  11.178   8.913
93271SOL     OW81644   8.737   4.722  14.779
93271SOL    HW181645   8.783   4.653  14.730
93271SOL    HW281646   8.793   4.799  14.771
93272SOL     OW81647  14.374  12.222   9.983
93272SOL    HW181648  14.343  12.312   9.981
93272SOL    HW281649  14.465  12.227   9.955
93273SOL     OW81650   0.306   9.352   1.737
93273SOL    HW181651   0.342   9.334   1.650
93273SOL    HW281652   0.303   9.448   1.742
93274SOL     OW81653   4.634  12.553   6.488
93274SOL    HW181654   4.665  12.568   6.398
93274SOL    HW281655   4.603  12.638   6.517
93275SOL     OW81656  10.684   4.373   2.694
93275SOL    HW181657  10.772   4.378   2.657
93275SOL    HW281658  10.693   4.409   2.783
93276SOL     OW81659  12.882  10.296  11.801
93276SOL    HW181660  12.820  10.278  11.729
93276SOL    HW281661  12.913  10.210  11.827
93277SOL     OW81662  14.587   7.832   1.485
93277SOL    HW181663  14.673   7.797   1.461
93277SOL    HW281664  14.525   7.773   1.442
93278SOL     OW81665  14.795  11.393   9.578
93278SOL    HW181666  14.794  11.297   9.576
93278SOL    HW281667  14.870  11.415   9.632
93279SOL     OW81668   2.589   1.417   0.044
93279SOL    HW181669   2.606   1.508   0.023
93279SOL    HW281670   2.663   1.369   0.009
93280SOL     OW81671   6.229   2.518   8.259
93280SOL    HW181672   6.284   2.524   8.337
93280SOL    HW281673   6.289   2.493   8.189
93281SOL     OW81674   9.683  13.583  13.247
93281SOL    HW181675   9.646  13.515  13.191
93281SOL    HW281676   9.614  13.600  13.313
93282SOL     OW81677   9.177   7.713   3.687
93282SOL    HW181678   9.176   7.786   3.626
93282SOL    HW281679   9.240   7.650   3.650
93283SOL     OW81680   7.126  10.829   8.663
93283SOL    HW181681   7.091  10.741   8.674
93283SOL    HW281682   7.154  10.832   8.571
93284SOL     OW81683   7.376  11.053   8.325
93284SOL    HW181684   7.356  11.138   8.364
93284SOL    HW281685   7.382  11.071   8.231
93285SOL     OW81686   6.854  10.528   6.081
93285SOL    HW181687   6.910  10.552   6.154
93285SOL    HW281688   6.841  10.609   6.032
93286SOL     OW81689   3.677  10.949  11.828
93286SOL    HW181690   3.663  10.886  11.757
93286SOL    HW281691   3.597  10.945  11.880
93287SOL     OW81692   4.537   7.136   8.644
93287SOL    HW181693   4.442   7.128   8.653
93287SOL    HW281694   4.560   7.069   8.579
93288SOL     OW81695  12.594   1.911   5.908
93288SOL    HW181696  12.619   1.865   5.828
93288SOL    HW281697  12.669   1.966   5.929
93289SOL     OW81698   1.655  10.891  11.671
93289SOL    HW181699   1.645  10.946  11.594
93289SOL    HW281700   1.743  10.910  11.703
93290SOL     OW81701  11.617  12.371   5.578
93290SOL    HW181702  11.546  12.326   5.532
93290SOL    HW281703  11.650  12.435   5.515
93291SOL     OW81704  13.851  13.724  13.418
93291SOL    HW181705  13.920  13.780  13.383
93291SOL    HW281706  13.858  13.642  13.369
93292SOL     OW81707  14.155   4.815  12.890
93292SOL    HW181708  14.187   4.824  12.980
93292SOL    HW281709  14.231   4.832  12.836
93293SOL     OW81710   7.123  11.059   7.156
93293SOL    HW181711   7.083  10.992   7.100
93293SOL    HW281712   7.202  11.085   7.110
93294SOL     OW81713   5.698   7.976  10.512
93294SOL    HW181714   5.641   7.924  10.568
93294SOL    HW281715   5.687   8.066  10.544
93295SOL     OW81716   2.410  14.121  10.312
93295SOL    HW181717   2.378  14.053  10.371
93295SOL    HW281718   2.378  14.203  10.349
93296SOL     OW81719   7.542  14.003  14.223
93296SOL    HW181720   7.552  14.031  14.132
93296SOL    HW281721   7.452  13.970  14.228
93297SOL     OW81722   1.482   2.367   4.916
93297SOL    HW181723   1.429   2.426   4.863
93297SOL    HW281724   1.570   2.375   4.880
93298SOL     OW81725   2.962   5.448   8.878
93298SOL    HW181726   2.891   5.428   8.939
93298SOL    HW281727   3.013   5.368   8.874
93299SOL     OW81728   5.020   6.822   7.660
93299SOL    HW181729   5.083   6.758   7.629
93299SOL    HW281730   5.036   6.829   7.754
93300SOL     OW81731   7.125   6.341   2.790
93300SOL    HW181732   7.051   6.315   2.844
93300SOL    HW281733   7.121   6.283   2.714
93301SOL     OW81734   7.668   2.792  12.687
93301SOL    HW181735   7.734   2.726  12.667
93301SOL    HW281736   7.591   2.741  12.713
93302SOL     OW81737   7.532   1.332  11.734
93302SOL    HW181738   7.466   1.401  11.738
93302SOL    HW281739   7.545   1.305  11.825
93303SOL     OW81740  11.000  14.002   0.778
93303SOL    HW181741  10.979  13.972   0.690
93303SOL    HW281742  11.070  13.944   0.807
93304SOL     OW81743   5.362   0.506   3.544
93304SOL    HW181744   5.433   0.451   3.576
93304SOL    HW281745   5.338   0.561   3.618
93305SOL     OW81746   3.069   8.870   3.349
93305SOL    HW181747   3.018   8.950   3.332
93305SOL    HW281748   3.143   8.900   3.402
93306SOL     OW81749   6.149  13.905   9.291
93306SOL    HW181750   6.093  13.944   9.224
93306SOL    HW281751   6.087  13.872   9.356
93307SOL     OW81752  14.345   1.520  13.103
93307SOL    HW181753  14.325   1.545  13.193
93307SOL    HW281754  14.379   1.599  13.063
93308SOL     OW81755  10.315   2.152   4.151
93308SOL    HW181756  10.397   2.201   4.153
93308SOL    HW281757  10.334   2.075   4.098
93309SOL     OW81758   0.066   2.184   7.430
93309SOL    HW181759   0.052   2.172   7.523
93309SOL    HW281760   0.050   2.097   7.392
93310SOL     OW81761  11.217   5.056   8.108
93310SOL    HW181762  11.162   5.074   8.184
93310SOL    HW281763  11.161   5.009   8.047
93311SOL     OW81764  11.122  12.265  14.655
93311SOL    HW181765  11.089  12.182  14.689
93311SOL    HW281766  11.070  12.282  14.577
93312SOL     OW81767   3.439  13.375   9.709
93312SOL    HW181768   3.392  13.453   9.679
93312SOL    HW281769   3.458  13.393   9.801
93313SOL     OW81770   6.567  11.663   3.294
93313SOL    HW181771   6.537  11.614   3.217
93313SOL    HW281772   6.660  11.641   3.301
93314SOL     OW81773  14.146  10.743  11.250
93314SOL    HW181774  14.105  10.781  11.328
93314SOL    HW281775  14.239  10.764  11.259
93315SOL     OW81776   1.929   2.434  13.972
93315SOL    HW181777   1.963   2.516  14.007
93315SOL    HW281778   1.896   2.456  13.885
93316SOL     OW81779   6.227   6.880   3.213
93316SOL    HW181780   6.250   6.788   3.228
93316SOL    HW281781   6.297   6.929   3.256
93317SOL     OW81782  11.811  14.833  13.148
93317SOL    HW181783  11.796   0.046  13.150
93317SOL    HW281784  11.858  14.815  13.230
93318SOL     OW81785   8.080  11.439   9.607
93318SOL    HW181786   8.176  11.442   9.606
93318SOL    HW281787   8.055  11.437   9.515
93319SOL     OW81788   7.790  12.395  14.650
93319SOL    HW181789   7.882  12.381  14.674
93319SOL    HW281790   7.773  12.486  14.674
93320SOL     OW81791   7.604   7.169   1.775
93320SOL    HW181792   7.597   7.192   1.682
93320SOL    HW281793   7.541   7.099   1.787
93321SOL     OW81794   9.161   7.930  14.025
93321SOL    HW181795   9.108   7.993  13.976
93321SOL    HW281796   9.247   7.972  14.033
93322SOL     OW81797   1.912   9.273   0.256
93322SOL    HW181798   1.918   9.184   0.222
93322SOL    HW281799   1.999   9.310   0.242
93323SOL     OW81800   7.607   6.164  10.216
93323SOL    HW181801   7.537   6.126  10.163
93323SOL    HW281802   7.592   6.130  10.304
93324SOL     OW81803  14.193  11.432   9.411
93324SOL    HW181804  14.250  11.483   9.470
93324SOL    HW281805  14.112  11.484   9.406
93325SOL     OW81806   9.115  10.439   9.039
93325SOL    HW181807   9.133  10.372   9.105
93325SOL    HW281808   9.078  10.512   9.089
93326SOL     OW81809   3.045   1.400  13.526
93326SOL    HW181810   3.113   1.405  13.593
93326SOL    HW281811   3.049   1.485  13.482
93327SOL     OW81812   9.891   6.083  11.970
93327SOL    HW181813   9.952   6.138  12.018
93327SOL    HW281814   9.935   5.998  11.963
93328SOL     OW81815   8.620   5.788   9.956
93328SOL    HW181816   8.620   5.874   9.914
93328SOL    HW281817   8.645   5.805  10.047
93329SOL     OW81818   2.542   3.238   3.256
93329SOL    HW181819   2.585   3.188   3.187
93329SOL    HW281820   2.524   3.323   3.216
93330SOL     OW81821   0.060   0.051   5.480
93330SOL    HW181822   0.131  14.869   5.489
93330SOL    HW281823   0.068   0.106   5.558
93331SOL     OW81824   8.850   4.025   6.809
93331SOL    HW181825   8.877   3.941   6.772
93331SOL    HW281826   8.903   4.034   6.889
93332SOL     OW81827   3.503  14.237  13.000
93332SOL    HW181828   3.495  14.147  12.967
93332SOL    HW281829   3.503  14.227  13.095
93333SOL     OW81830  10.542   6.921   7.596
93333SOL    HW181831  10.577   6.944   7.682
93333SOL    HW281832  10.486   6.995   7.573
93334SOL     OW81833   0.351  11.526   4.650
93334SOL    HW181834   0.326  11.513   4.558
93334SOL    HW281835   0.278  11.490   4.700
93335SOL     OW81836  14.274   4.441  13.856
93335SOL    HW181837  14.212   4.381  13.815
93335SOL    HW281838  14.276   4.414  13.948
93336SOL     OW81839   1.331   6.027   1.309
93336SOL    HW181840   1.290   5.979   1.380
93336SOL    HW281841   1.394   6.084   1.352
93337SOL     OW81842   8.548   7.364  13.077
93337SOL    HW181843   8.608   7.351  13.003
93337SOL    HW281844   8.550   7.458  13.093
93338SOL     OW81845   1.427   8.954   6.192
93338SOL    HW181846   1.455   9.032   6.241
93338SOL    HW281847   1.348   8.924   6.238
93339SOL     OW81848   3.967  14.720  13.741
93339SOL    HW181849   3.899  14.685  13.684
93339SOL    HW281850   4.045  14.669  13.720
93340SOL     OW81851   0.102   9.621   0.050
93340SOL    HW181852   0.182   9.663   0.082
93340SOL    HW281853   0.114   9.528   0.068
93341SOL     OW81854  12.722  13.971   3.087
93341SOL    HW181855  12.780  13.896   3.099
93341SOL    HW281856  12.642  13.933   3.050
93342SOL     OW81857   7.785  14.678  12.677
93342SOL    HW181858   7.703  14.723  12.655
93342SOL    HW281859   7.830  14.738  12.736
93343SOL     OW81860   4.442   5.572  14.571
93343SOL    HW181861   4.518   5.571  14.513
93343SOL    HW281862   4.454   5.496  14.628
93344SOL     OW81863  10.959   2.769   2.278
93344SOL    HW181864  10.972   2.857   2.243
93344SOL    HW281865  11.043   2.726   2.266
93345SOL     OW81866   2.676  14.197   2.386
93345SOL    HW181867   2.665  14.292   2.377
93345SOL    HW281868   2.588  14.161   2.378
93346SOL     OW81869  12.433   8.561   6.449
93346SOL    HW181870  12.387   8.572   6.365
93346SOL    HW281871  12.374   8.508   6.502
93347SOL     OW81872   6.498   2.694  12.990
93347SOL    HW181873   6.410   2.729  13.002
93347SOL    HW281874   6.503   2.620  13.051
93348SOL     OW81875   9.891  11.638   1.660
93348SOL    HW181876   9.847  11.693   1.726
93348SOL    HW281877   9.925  11.701   1.596
93349SOL     OW81878  11.056   4.492   8.271
93349SOL    HW181879  11.096   4.470   8.187
93349SOL    HW281880  10.989   4.425   8.283
93350SOL     OW81881   6.193   2.843   6.007
93350SOL    HW181882   6.113   2.880   6.045
93350SOL    HW281883   6.264   2.894   6.047
93351SOL     OW81884   6.955  10.711  10.872
93351SOL    HW181885   6.887  10.704  10.939
93351SOL    HW281886   7.030  10.663  10.909
93352SOL     OW81887   6.759   7.116  10.591
93352SOL    HW181888   6.733   7.025  10.574
93352SOL    HW281889   6.854   7.117  10.579
93353SOL     OW81890   4.604   7.336   3.917
93353SOL    HW181891   4.672   7.290   3.866
93353SOL    HW281892   4.528   7.278   3.912
93354SOL     OW81893   5.049   0.520  10.313
93354SOL    HW181894   5.074   0.494  10.401
93354SOL    HW281895   5.047   0.616  10.316
93355SOL     OW81896   1.175   1.031   2.724
93355SOL    HW181897   1.209   1.033   2.813
93355SOL    HW281898   1.250   1.009   2.670
93356SOL     OW81899   3.338   0.452   8.339
93356SOL    HW181900   3.388   0.388   8.287
93356SOL    HW281901   3.331   0.412   8.425
93357SOL     OW81902  13.542  12.115   4.219
93357SOL    HW181903  13.554  12.156   4.134
93357SOL    HW281904  13.458  12.150   4.251
93358SOL     OW81905   6.838  11.628   2.382
93358SOL    HW181906   6.767  11.588   2.332
93358SOL    HW281907   6.843  11.717   2.348
93359SOL     OW81908  10.695   1.336   9.337
93359SOL    HW181909  10.749   1.396   9.285
93359SOL    HW281910  10.663   1.390   9.409
93360SOL     OW81911  12.941  12.151   7.845
93360SOL    HW181912  12.990  12.186   7.919
93360SOL    HW281913  12.895  12.227   7.810
93361SOL     OW81914   3.779   4.515   0.364
93361SOL    HW181915   3.860   4.474   0.393
93361SOL    HW281916   3.777   4.599   0.410
93362SOL     OW81917   5.004  13.807   2.633
93362SOL    HW181918   5.073  13.772   2.690
93362SOL    HW281919   5.050  13.839   2.556
93363SOL     OW81920  13.338   8.322   1.635
93363SOL    HW181921  13.322   8.245   1.690
93363SOL    HW281922  13.266   8.321   1.572
93364SOL     OW81923  11.609   9.549   2.107
93364SOL    HW181924  11.689   9.505   2.136
93364SOL    HW281925  11.619   9.640   2.137
93365SOL     OW81926  11.570  11.906  10.952
93365SOL    HW181927  11.600  11.834  11.007
93365SOL    HW281928  11.634  11.910  10.881
93366SOL     OW81929  11.394  12.054   8.078
93366SOL    HW181930  11.311  12.017   8.047
93366SOL    HW281931  11.460  11.988   8.055
93367SOL     OW81932   3.900  10.248   2.230
93367SOL    HW181933   3.989  10.228   2.202
93367SOL    HW281934   3.844  10.214   2.161
93368SOL     OW81935   9.939   5.089   1.381
93368SOL    HW181936   9.884   5.029   1.431
93368SOL    HW281937  10.002   5.122   1.445
93369SOL     OW81938  13.579  13.445  10.216
93369SOL    HW181939  13.484  13.450  10.202
93369SOL    HW281940  13.602  13.529  10.254
93370SOL     OW81941   7.014   5.524   6.506
93370SOL    HW181942   7.001   5.435   6.475
93370SOL    HW281943   7.056   5.569   6.432
93371SOL     OW81944   3.054   8.211   7.432
93371SOL    HW181945   3.010   8.258   7.361
93371SOL    HW281946   3.074   8.278   7.497
93372SOL     OW81947  11.939   8.648   2.631
93372SOL    HW181948  11.879   8.604   2.571
93372SOL    HW281949  11.919   8.611   2.717
93373SOL     OW81950  14.135   1.440  14.063
93373SOL    HW181951  14.226   1.437  14.034
93373SOL    HW281952  14.093   1.503  14.005
93374SOL     OW81953   4.814   9.388  10.978
93374SOL    HW181954   4.887   9.375  11.038
93374SOL    HW281955   4.842   9.347  10.896
93375SOL     OW81956   8.352   4.395   7.912
93375SOL    HW181957   8.371   4.404   8.005
93375SOL    HW281958   8.281   4.456   7.896
93376SOL     OW81959  11.267   7.292   4.487
93376SOL    HW181960  11.195   7.354   4.499
93376SOL    HW281961  11.339   7.345   4.455
93377SOL     OW81962   0.452   1.867  13.366
93377SOL    HW181963   0.442   1.845  13.458
93377SOL    HW281964   0.536   1.913  13.361
93378SOL     OW81965  14.036   7.736  11.999
93378SOL    HW181966  13.943   7.745  11.982
93378SOL    HW281967  14.076   7.812  11.956
93379SOL     OW81968   2.640  14.048   4.741
93379SOL    HW181969   2.639  13.953   4.732
93379SOL    HW281970   2.689  14.079   4.665
93380SOL     OW81971   4.478  14.880   8.583
93380SOL    HW181972   4.557  14.829   8.599
93380SOL    HW281973   4.410  14.835   8.632
93381SOL     OW81974   9.630  11.089  13.495
93381SOL    HW181975   9.598  11.032  13.426
93381SOL    HW281976   9.551  11.132  13.529
93382SOL     OW81977   5.143  12.438   3.572
93382SOL    HW181978   5.062  12.388   3.580
93382SOL    HW281979   5.125  12.500   3.501
93383SOL     OW81980   6.431   4.590   0.230
93383SOL    HW181981   6.457   4.531   0.301
93383SOL    HW281982   6.346   4.557   0.201
93384SOL     OW81983   3.687  13.742  10.267
93384SOL    HW181984   3.771  13.709  10.234
93384SOL    HW281985   3.692  13.730  10.362
93385SOL     OW81986  11.848   1.088   1.054
93385SOL    HW181987  11.838   0.993   1.051
93385SOL    HW281988  11.761   1.121   1.030
93386SOL     OW81989   5.807   3.655   5.017
93386SOL    HW181990   5.807   3.650   4.921
93386SOL    HW281991   5.734   3.713   5.038
93387SOL     OW81992   4.029   2.102  10.901
93387SOL    HW181993   3.978   2.126  10.824
93387SOL    HW281994   4.118   2.089  10.868
93388SOL     OW81995  11.802  14.660   1.892
93388SOL    HW181996  11.754  14.604   1.954
93388SOL    HW281997  11.734  14.693   1.833
93389SOL     OW81998   9.363   2.566   0.424
93389SOL    HW181999   9.344   2.606   0.339
93389SOL    HW282000   9.457   2.575   0.434
93390SOL     OW82001   0.819  13.925   7.576
93390SOL    HW182002   0.866  13.878   7.508
93390SOL    HW282003   0.874  13.917   7.654
93391SOL     OW82004   2.151  13.721   1.228
93391SOL    HW182005   2.136  13.697   1.319
93391SOL    HW282006   2.195  13.645   1.190
93392SOL     OW82007   1.357  11.231   3.986
93392SOL    HW182008   1.420  11.228   3.914
93392SOL    HW282009   1.369  11.148   4.032
93393SOL     OW82010   2.953   7.012   9.697
93393SOL    HW182011   2.894   6.943   9.727
93393SOL    HW282012   2.924   7.030   9.607
93394SOL     OW82013   2.145  11.368   3.951
93394SOL    HW182014   2.086  11.362   4.026
93394SOL    HW282015   2.088  11.371   3.875
93395SOL     OW82016  12.013   6.058   2.922
93395SOL    HW182017  12.078   6.107   2.871
93395SOL    HW282018  12.004   5.975   2.876
93396SOL     OW82019   2.750   8.772   4.685
93396SOL    HW182020   2.732   8.771   4.591
93396SOL    HW282021   2.762   8.680   4.708
93397SOL     OW82022   0.697   0.888   2.242
93397SOL    HW182023   0.783   0.923   2.264
93397SOL    HW282024   0.635   0.947   2.286
93398SOL     OW82025   0.642  12.291   9.333
93398SOL    HW182026   0.672  12.235   9.262
93398SOL    HW282027   0.631  12.377   9.293
93399SOL     OW82028  13.364   6.068  13.811
93399SOL    HW182029  13.299   6.139  13.806
93399SOL    HW282030  13.318   5.991  13.779
93400SOL     OW82031   6.617   6.333  10.746
93400SOL    HW182032   6.694   6.317  10.801
93400SOL    HW282033   6.649   6.388  10.675
93401SOL     OW82034  12.412  10.530   4.811
93401SOL    HW182035  12.335  10.473   4.804
93401SOL    HW282036  12.393  10.587   4.885
93402SOL     OW82037  10.285   6.053   8.112
93402SOL    HW182038  10.235   6.017   8.185
93402SOL    HW282039  10.325   6.133   8.147
93403SOL     OW82040   4.016  13.457  13.223
93403SOL    HW182041   4.014  13.368  13.189
93403SOL    HW282042   3.932  13.467  13.270
93404SOL     OW82043  12.472   3.611  12.882
93404SOL    HW182044  12.468   3.688  12.939
93404SOL    HW282045  12.488   3.538  12.941
93405SOL     OW82046  12.745   5.704  11.947
93405SOL    HW182047  12.718   5.624  11.902
93405SOL    HW282048  12.832   5.723  11.914
93406SOL     OW82049   6.030  11.587   7.826
93406SOL    HW182050   6.008  11.668   7.871
93406SOL    HW282051   6.027  11.520   7.894
93407SOL     OW82052   4.170   9.154   1.587
93407SOL    HW182053   4.174   9.060   1.605
93407SOL    HW282054   4.084   9.167   1.546
93408SOL     OW82055   7.280   1.464   9.212
93408SOL    HW182056   7.192   1.447   9.246
93408SOL    HW282057   7.312   1.378   9.184
93409SOL     OW82058   9.955   7.883  11.998
93409SOL    HW182059   9.968   7.920  11.910
93409SOL    HW282060   9.883   7.820  11.987
93410SOL     OW82061   9.996   5.470   6.119
93410SOL    HW182062  10.088   5.480   6.143
93410SOL    HW282063   9.955   5.432   6.197
93411SOL     OW82064   7.377   5.790   7.643
93411SOL    HW182065   7.447   5.766   7.582
93411SOL    HW282066   7.423   5.818   7.722
93412SOL     OW82067  11.673  13.885   3.074
93412SOL    HW182068  11.761  13.897   3.108
93412SOL    HW282069  11.681  13.814   3.010
93413SOL     OW82070   0.851   7.029  13.112
93413SOL    HW182071   0.909   6.953  13.118
93413SOL    HW282072   0.858   7.071  13.197
93414SOL     OW82073   7.485   3.287  12.992
93414SOL    HW182074   7.544   3.277  13.066
93414SOL    HW282075   7.542   3.289  12.915
93415SOL     OW82076  13.128  10.332   4.682
93415SOL    HW182077  13.185  10.331   4.759
93415SOL    HW282078  13.119  10.425   4.660
93416SOL     OW82079   3.752   9.210   4.793
93416SOL    HW182080   3.672   9.181   4.837
93416SOL    HW282081   3.813   9.230   4.864
93417SOL     OW82082   0.597  14.412   3.375
93417SOL    HW182083   0.670  14.354   3.354
93417SOL    HW282084   0.520  14.367   3.342
93418SOL     OW82085  13.529   9.020  12.295
93418SOL    HW182086  13.622   9.031  12.274
93418SOL    HW282087  13.498   8.954  12.233
93419SOL     OW82088   9.702  13.159   4.357
93419SOL    HW182089   9.714  13.080   4.410
93419SOL    HW282090   9.775  13.158   4.295
93420SOL     OW82091   5.247   3.878   3.508
93420SOL    HW182092   5.274   3.910   3.423
93420SOL    HW282093   5.205   3.953   3.550
93421SOL     OW82094  14.019  13.835   3.456
93421SOL    HW182095  14.073  13.885   3.517
93421SOL    HW282096  13.939  13.887   3.447
93422SOL     OW82097   7.927  10.978   4.678
93422SOL    HW182098   7.930  11.057   4.625
93422SOL    HW282099   7.928  10.906   4.615
93423SOL     OW82100   6.556  11.326   2.391
93423SOL    HW182101   6.571  11.296   2.480
93423SOL    HW282102   6.537  11.420   2.400
93424SOL     OW82103  14.196  14.196   8.224
93424SOL    HW182104  14.203  14.101   8.212
93424SOL    HW282105  14.209  14.209   8.318
93425SOL     OW82106  13.185   5.224   8.688
93425SOL    HW182107  13.195   5.187   8.600
93425SOL    HW282108  13.255   5.289   8.694
93426SOL     OW82109  13.047   9.559   4.626
93426SOL    HW182110  13.023   9.532   4.715
93426SOL    HW282111  13.031   9.482   4.572
93427SOL     OW82112  12.383   8.022   7.870
93427SOL    HW182113  12.348   8.101   7.909
93427SOL    HW282114  12.477   8.025   7.888
93428SOL     OW82115   0.860   6.018  11.990
93428SOL    HW182116   0.825   5.929  11.983
93428SOL    HW282117   0.947   6.006  12.029
93429SOL     OW82118   2.390  11.356   2.987
93429SOL    HW182119   2.397  11.310   2.903
93429SOL    HW282120   2.429  11.295   3.051
93430SOL     OW82121   7.904  12.353   6.918
93430SOL    HW182122   7.967  12.421   6.893
93430SOL    HW282123   7.946  12.271   6.891
93431SOL     OW82124   9.882  13.353   3.873
93431SOL    HW182125   9.867  13.397   3.957
93431SOL    HW282126   9.967  13.385   3.844
93432SOL     OW82127   0.435  14.002   2.267
93432SOL    HW182128   0.525  14.013   2.238
93432SOL    HW282129   0.394  14.087   2.251
93433SOL     OW82130   2.365  10.942   7.203
93433SOL    HW182131   2.387  10.849   7.199
93433SOL    HW282132   2.376  10.974   7.113
93434SOL     OW82133   7.623   3.188   4.641
93434SOL    HW182134   7.610   3.276   4.607
93434SOL    HW282135   7.547   3.172   4.697
93435SOL     OW82136   0.482   2.668  12.436
93435SOL    HW182137   0.540   2.642  12.364
93435SOL    HW282138   0.539   2.673  12.512
93436SOL     OW82139   8.915  14.092   8.858
93436SOL    HW182140   8.824  14.121   8.856
93436SOL    HW282141   8.936  14.074   8.766
93437SOL     OW82142  12.646  12.423  12.726
93437SOL    HW182143  12.590  12.367  12.673
93437SOL    HW282144  12.652  12.378  12.811
93438SOL     OW82145   4.442   1.765   5.824
93438SOL    HW182146   4.367   1.773   5.882
93438SOL    HW282147   4.426   1.686   5.773
93439SOL     OW82148  14.053   9.034   2.439
93439SOL    HW182149  13.994   8.971   2.397
93439SOL    HW282150  14.135   9.026   2.392
93440SOL     OW82151   2.258   8.687  10.573
93440SOL    HW182152   2.252   8.610  10.630
93440SOL    HW282153   2.179   8.682  10.519
93441SOL     OW82154  10.752   4.413   0.287
93441SOL    HW182155  10.694   4.392   0.359
93441SOL    HW282156  10.698   4.401   0.208
93442SOL     OW82157   8.147  13.535   6.066
93442SOL    HW182158   8.105  13.621   6.067
93442SOL    HW282159   8.090  13.481   6.121
93443SOL     OW82160  10.168   2.414   4.522
93443SOL    HW182161  10.240   2.470   4.552
93443SOL    HW282162  10.150   2.355   4.595
93444SOL     OW82163  13.683   0.963   8.209
93444SOL    HW182164  13.626   1.037   8.189
93444SOL    HW282165  13.625   0.887   8.207
93445SOL     OW82166   3.599  11.334   2.887
93445SOL    HW182167   3.614  11.250   2.930
93445SOL    HW282168   3.573  11.311   2.797
93446SOL     OW82169   9.375   0.598  10.519
93446SOL    HW182170   9.419   0.616  10.602
93446SOL    HW282171   9.283   0.616  10.536
93447SOL     OW82172  12.084  14.667   7.587
93447SOL    HW182173  12.058  14.605   7.655
93447SOL    HW282174  12.005  14.718   7.570
93448SOL     OW82175   0.688  14.080   4.318
93448SOL    HW182176   0.637  14.093   4.238
93448SOL    HW282177   0.669  14.157   4.372
93449SOL     OW82178   3.883   6.093   9.244
93449SOL    HW182179   3.976   6.072   9.256
93449SOL    HW282180   3.879   6.189   9.252
93450SOL     OW82181   5.738  12.708  10.339
93450SOL    HW182182   5.746  12.701  10.243
93450SOL    HW282183   5.647  12.730  10.354
93451SOL     OW82184   1.400   8.199   9.254
93451SOL    HW182185   1.360   8.285   9.239
93451SOL    HW282186   1.407   8.193   9.349
93452SOL     OW82187   2.864   0.663  12.751
93452SOL    HW182188   2.883   0.590  12.810
93452SOL    HW282189   2.942   0.718  12.755
93453SOL     OW82190   7.504   1.135   7.599
93453SOL    HW182191   7.488   1.188   7.521
93453SOL    HW282192   7.488   1.045   7.572
93454SOL     OW82193   9.497   5.513  10.772
93454SOL    HW182194   9.572   5.470  10.814
93454SOL    HW282195   9.423   5.495  10.831
93455SOL     OW82196   6.018   1.744  13.540
93455SOL    HW182197   6.084   1.774  13.603
93455SOL    HW282198   6.054   1.663  13.505
93456SOL     OW82199   4.627   9.967   3.478
93456SOL    HW182200   4.571   9.899   3.516
93456SOL    HW282201   4.682   9.920   3.415
93457SOL     OW82202   8.777  12.816   0.260
93457SOL    HW182203   8.764  12.905   0.292
93457SOL    HW282204   8.691  12.775   0.267
93458SOL     OW82205  11.861   5.691   7.249
93458SOL    HW182206  11.897   5.754   7.186
93458SOL    HW282207  11.921   5.694   7.324
93459SOL     OW82208  10.408  14.351   7.369
93459SOL    HW182209  10.411  14.257   7.351
93459SOL    HW282210  10.482  14.387   7.320
93460SOL     OW82211   1.539   1.958   0.246
93460SOL    HW182212   1.521   2.027   0.182
93460SOL    HW282213   1.634   1.950   0.246
93461SOL     OW82214   7.338  10.502  12.334
93461SOL    HW182215   7.304  10.455  12.258
93461SOL    HW282216   7.411  10.448  12.365
93462SOL     OW82217   6.202   1.845  13.761
93462SOL    HW182218   6.119   1.870  13.802
93462SOL    HW282219   6.269   1.872  13.824
93463SOL     OW82220   7.976   3.669   4.985
93463SOL    HW182221   8.039   3.601   5.009
93463SOL    HW282222   8.025   3.751   4.995
93464SOL     OW82223  10.238   0.268  13.738
93464SOL    HW182224  10.166   0.251  13.798
93464SOL    HW282225  10.277   0.181  13.723
93465SOL     OW82226  11.148   5.469  13.061
93465SOL    HW182227  11.128   5.400  13.125
93465SOL    HW282228  11.141   5.551  13.111
93466SOL     OW82229   1.363   6.968   9.807
93466SOL    HW182230   1.275   6.982   9.771
93466SOL    HW282231   1.400   6.898   9.753
93467SOL     OW82232   3.531   6.819   5.408
93467SOL    HW182233   3.584   6.882   5.360
93467SOL    HW282234   3.508   6.752   5.344
93468SOL     OW82235   9.618   3.702  10.657
93468SOL    HW182236   9.568   3.624  10.683
93468SOL    HW282237   9.702   3.691  10.700
93469SOL     OW82238   2.891  13.253   6.909
93469SOL    HW182239   2.884  13.168   6.953
93469SOL    HW282240   2.891  13.317   6.980
93470SOL     OW82241   9.750   0.837   6.015
93470SOL    HW182242   9.711   0.794   5.939
93470SOL    HW282243   9.844   0.829   6.001
93471SOL     OW82244  13.695   9.429   7.177
93471SOL    HW182245  13.677   9.492   7.107
93471SOL    HW282246  13.624   9.443   7.240
93472SOL     OW82247   1.869   1.941   3.723
93472SOL    HW182248   1.955   1.981   3.713
93472SOL    HW282249   1.856   1.936   3.818
93473SOL     OW82250   7.956   2.738   4.753
93473SOL    HW182251   7.893   2.672   4.781
93473SOL    HW282252   7.905   2.818   4.743
93474SOL     OW82253   6.671  12.508  13.901
93474SOL    HW182254   6.717  12.569  13.842
93474SOL    HW282255   6.584  12.546  13.912
93475SOL     OW82256   5.841   7.184   9.319
93475SOL    HW182257   5.929   7.179   9.358
93475SOL    HW282258   5.853   7.238   9.241
93476SOL     OW82259   2.003   3.133  13.158
93476SOL    HW182260   2.085   3.162  13.119
93476SOL    HW282261   1.947   3.112  13.084
93477SOL     OW82262   5.544   7.461   3.913
93477SOL    HW182263   5.516   7.533   3.856
93477SOL    HW282264   5.537   7.495   4.002
93478SOL     OW82265   9.609   5.336   5.781
93478SOL    HW182266   9.677   5.294   5.730
93478SOL    HW282267   9.656   5.396   5.840
93479SOL     OW82268   1.881   2.706   3.897
93479SOL    HW182269   1.821   2.632   3.910
93479SOL    HW282270   1.955   2.669   3.850
93480SOL     OW82271  11.291   7.493   2.520
93480SOL    HW182272  11.266   7.535   2.602
93480SOL    HW282273  11.311   7.565   2.460
93481SOL     OW82274   1.469   6.752  13.130
93481SOL    HW182275   1.413   6.746  13.052
93481SOL    HW282276   1.552   6.714  13.103
93482SOL     OW82277  12.722   4.872   3.755
93482SOL    HW182278  12.808   4.887   3.795
93482SOL    HW282279  12.696   4.785   3.785
93483SOL     OW82280   4.982  13.460   8.206
93483SOL    HW182281   5.049  13.525   8.226
93483SOL    HW282282   5.002  13.431   8.117
93484SOL     OW82283   9.471   4.079  11.303
93484SOL    HW182284   9.558   4.039  11.313
93484SOL    HW282285   9.411   4.013  11.338
93485SOL     OW82286  13.653   9.395  11.261
93485SOL    HW182287  13.714   9.328  11.232
93485SOL    HW282288  13.599   9.351  11.327
93486SOL     OW82289  13.479   8.122   0.556
93486SOL    HW182290  13.434   8.038   0.558
93486SOL    HW282291  13.525   8.127   0.640
93487SOL     OW82292  12.859   2.555  14.482
93487SOL    HW182293  12.952   2.574  14.493
93487SOL    HW282294  12.832   2.612  14.409
93488SOL     OW82295   8.259  14.603  14.811
93488SOL    HW182296   8.251  14.683  14.759
93488SOL    HW282297   8.196  14.543  14.772
93489SOL     OW82298   5.762   2.385   5.839
93489SOL    HW182299   5.696   2.335   5.792
93489SOL    HW282300   5.838   2.327   5.844
93490SOL     OW82301  12.427   3.548  10.628
93490SOL    HW182302  12.436   3.520  10.719
93490SOL    HW282303  12.479   3.628  10.622
93491SOL     OW82304   7.505   4.428   7.239
93491SOL    HW182305   7.461   4.502   7.198
93491SOL    HW282306   7.435   4.370   7.268
93492SOL     OW82307  13.663  11.635   1.122
93492SOL    HW182308  13.628  11.558   1.077
93492SOL    HW282309  13.670  11.702   1.054
93493SOL     OW82310  12.220   1.142  13.349
93493SOL    HW182311  12.211   1.176  13.438
93493SOL    HW282312  12.157   1.070  13.344
93494SOL     OW82313   6.325  11.039   9.314
93494SOL    HW182314   6.385  11.110   9.338
93494SOL    HW282315   6.249  11.083   9.276
93495SOL     OW82316  10.242   9.460   5.157
93495SOL    HW182317  10.285   9.375   5.164
93495SOL    HW282318  10.194   9.456   5.074
93496SOL     OW82319  14.673   3.843   4.037
93496SOL    HW182320  14.714   3.762   4.008
93496SOL    HW282321  14.741   3.910   4.028
93497SOL     OW82322   1.999   0.001   7.646
93497SOL    HW182323   1.923  14.851   7.695
93497SOL    HW282324   2.049  14.804   7.625
93498SOL     OW82325  13.276   4.010  10.257
93498SOL    HW182326  13.245   3.999  10.167
93498SOL    HW282327  13.211   3.965  10.311
93499SOL     OW82328  11.411   7.964   4.308
93499SOL    HW182329  11.428   8.056   4.327
93499SOL    HW282330  11.362   7.966   4.226
93500SOL     OW82331  13.612   9.596   5.966
93500SOL    HW182332  13.562   9.648   5.902
93500SOL    HW282333  13.597   9.505   5.940
93501SOL     OW82334   9.300  10.913   4.479
93501SOL    HW182335   9.395  10.920   4.493
93501SOL    HW282336   9.286  10.822   4.454
93502SOL     OW82337   0.059  12.982  12.054
93502SOL    HW182338   0.063  13.038  11.976
93502SOL    HW282339  14.850  12.955  12.060
93503SOL     OW82340   9.981   6.708   7.809
93503SOL    HW182341   9.902   6.740   7.765
93503SOL    HW282342   9.954   6.697   7.900
93504SOL     OW82343   7.281  14.479   0.241
93504SOL    HW182344   7.342  14.515   0.177
93504SOL    HW282345   7.267  14.388   0.213
93505SOL     OW82346  10.054   3.474   8.883
93505SOL    HW182347  10.072   3.517   8.966
93505SOL    HW282348   9.959   3.478   8.873
93506SOL     OW82349   8.522  14.668   3.017
93506SOL    HW182350   8.566  14.701   2.938
93506SOL    HW282351   8.517  14.573   3.005
93507SOL     OW82352   5.887  11.898   5.993
93507SOL    HW182353   5.974  11.869   5.964
93507SOL    HW282354   5.826  11.854   5.934
93508SOL     OW82355   8.261   7.606   3.891
93508SOL    HW182356   8.204   7.683   3.891
93508SOL    HW282357   8.347   7.639   3.866
93509SOL     OW82358  10.112   2.203   1.701
93509SOL    HW182359  10.069   2.170   1.623
93509SOL    HW282360  10.061   2.168   1.774
93510SOL     OW82361  12.172  12.420  14.272
93510SOL    HW182362  12.177  12.358  14.199
93510SOL    HW282363  12.126  12.496  14.236
93511SOL     OW82364   5.687  10.251   7.014
93511SOL    HW182365   5.640  10.313   7.070
93511SOL    HW282366   5.668  10.165   7.051
93512SOL     OW82367   8.319   5.800   2.921
93512SOL    HW182368   8.408   5.764   2.913
93512SOL    HW282369   8.332   5.895   2.914
93513SOL     OW82370  14.068  10.088   4.851
93513SOL    HW182371  13.985  10.136   4.852
93513SOL    HW282372  14.122  10.134   4.915
93514SOL     OW82373   3.459  12.651  11.721
93514SOL    HW182374   3.381  12.610  11.683
93514SOL    HW282375   3.425  12.705  11.793
93515SOL     OW82376  14.502   8.228  13.344
93515SOL    HW182377  14.413   8.260  13.339
93515SOL    HW282378  14.548   8.293  13.397
93516SOL     OW82379   5.828   5.774   9.411
93516SOL    HW182380   5.889   5.715   9.365
93516SOL    HW282381   5.826   5.741   9.500
93517SOL     OW82382   6.260   4.271  13.515
93517SOL    HW182383   6.197   4.259  13.586
93517SOL    HW282384   6.214   4.240  13.437
93518SOL     OW82385  11.850   4.009   5.640
93518SOL    HW182386  11.903   4.014   5.719
93518SOL    HW282387  11.872   4.087   5.591
93519SOL     OW82388   8.781   1.635   6.038
93519SOL    HW182389   8.869   1.666   6.059
93519SOL    HW282390   8.794   1.557   5.985
93520SOL     OW82391   3.842   5.756  13.185
93520SOL    HW182392   3.778   5.823  13.159
93520SOL    HW282393   3.877   5.724  13.102
93521SOL     OW82394   1.232   2.322   4.220
93521SOL    HW182395   1.297   2.359   4.280
93521SOL    HW282396   1.201   2.397   4.169
93522SOL     OW82397   8.633   8.270   3.274
93522SOL    HW182398   8.555   8.273   3.330
93522SOL    HW282399   8.599   8.275   3.185
93523SOL     OW82400   5.544  13.220  13.713
93523SOL    HW182401   5.568  13.149  13.654
93523SOL    HW282402   5.590  13.296  13.678
93524SOL     OW82403   0.042   1.767  10.433
93524SOL    HW182404   0.083   1.853  10.443
93524SOL    HW282405   0.028   1.736  10.522
93525SOL     OW82406   2.007   7.789   4.817
93525SOL    HW182407   1.966   7.870   4.787
93525SOL    HW282408   2.052   7.754   4.740
93526SOL     OW82409   5.449  12.897  10.611
93526SOL    HW182410   5.436  12.905  10.517
93526SOL    HW282411   5.429  12.984  10.646
93527SOL     OW82412   6.104   2.221  12.789
93527SOL    HW182413   6.122   2.245  12.698
93527SOL    HW282414   6.115   2.303  12.838
93528SOL     OW82415  10.169   2.379  11.458
93528SOL    HW182416  10.261   2.360  11.439
93528SOL    HW282417  10.135   2.417  11.377
93529SOL     OW82418  12.785   3.804   3.491
93529SOL    HW182419  12.764   3.868   3.559
93529SOL    HW282420  12.706   3.801   3.436
93530SOL     OW82421   8.394  14.064  11.817
93530SOL    HW182422   8.484  14.033  11.829
93530SOL    HW282423   8.346  13.987  11.787
93531SOL     OW82424   4.551  14.087   0.929
93531SOL    HW182425   4.572  14.169   0.887
93531SOL    HW282426   4.579  14.098   1.020
93532SOL     OW82427   3.739   6.637   2.527
93532SOL    HW182428   3.780   6.723   2.533
93532SOL    HW282429   3.812   6.577   2.513
93533SOL     OW82430  13.632  10.076   9.504
93533SOL    HW182431  13.548  10.093   9.461
93533SOL    HW282432  13.638  10.143   9.572
93534SOL     OW82433   4.937  12.141   9.666
93534SOL    HW182434   5.005  12.126   9.732
93534SOL    HW282435   4.913  12.053   9.637
93535SOL     OW82436   0.068   4.887   8.962
93535SOL    HW182437   0.007   4.961   8.968
93535SOL    HW282438   0.130   4.901   9.033
93536SOL     OW82439   4.388   0.821  10.981
93536SOL    HW182440   4.409   0.730  11.000
93536SOL    HW282441   4.293   0.823  10.973
93537SOL     OW82442  14.501   0.382  14.679
93537SOL    HW182443  14.488   0.474  14.700
93537SOL    HW282444  14.550   0.348  14.754
93538SOL     OW82445   1.985  12.622  13.389
93538SOL    HW182446   2.027  12.543  13.423
93538SOL    HW282447   2.053  12.665  13.338
93539SOL     OW82448   9.050   6.457  11.375
93539SOL    HW182449   9.019   6.510  11.448
93539SOL    HW282450   9.145   6.467  11.377
93540SOL     OW82451   8.321   0.019  11.302
93540SOL    HW182452   8.339  14.825  11.246
93540SOL    HW282453   8.287  14.863  11.384
93541SOL     OW82454   0.956  14.529  10.754
93541SOL    HW182455   0.871  14.484  10.752
93541SOL    HW282456   1.015  14.468  10.710
93542SOL     OW82457   3.822  14.247   7.826
93542SOL    HW182458   3.890  14.290   7.878
93542SOL    HW282459   3.869  14.182   7.774
93543SOL     OW82460   0.919   2.673   9.851
93543SOL    HW182461   0.840   2.663   9.903
93543SOL    HW282462   0.963   2.588   9.857
93544SOL     OW82463   0.036  14.185   5.983
93544SOL    HW182464  14.843  14.127   5.971
93544SOL    HW282465   0.052  14.223   5.897
93545SOL     OW82466   9.226   0.969   8.940
93545SOL    HW182467   9.153   1.011   8.894
93545SOL    HW282468   9.294   0.961   8.873
93546SOL     OW82469   6.919  12.438   6.637
93546SOL    HW182470   6.996  12.385   6.617
93546SOL    HW282471   6.845  12.379   6.623
93547SOL     OW82472   6.673   1.294   7.498
93547SOL    HW182473   6.670   1.333   7.585
93547SOL    HW282474   6.726   1.215   7.508
93548SOL     OW82475  13.864   5.213  11.677
93548SOL    HW182476  13.852   5.140  11.616
93548SOL    HW282477  13.836   5.290  11.628
93549SOL     OW82478  11.798   4.829  12.263
93549SOL    HW182479  11.890   4.804  12.263
93549SOL    HW282480  11.750   4.748  12.247
93550SOL     OW82481  13.599   6.701  13.031
93550SOL    HW182482  13.685   6.658  13.029
93550SOL    HW282483  13.619   6.794  13.046
93551SOL     OW82484  11.491   4.230   1.175
93551SOL    HW182485  11.432   4.225   1.100
93551SOL    HW282486  11.577   4.248   1.137
93552SOL     OW82487  11.613  10.961   5.087
93552SOL    HW182488  11.573  11.031   5.139
93552SOL    HW282489  11.660  10.908   5.151
93553SOL     OW82490   0.796  12.796  12.999
93553SOL    HW182491   0.751  12.756  13.074
93553SOL    HW282492   0.876  12.745  12.989
93554SOL     OW82493   4.619  10.183   2.666
93554SOL    HW182494   4.686  10.207   2.602
93554SOL    HW282495   4.664  10.190   2.751
93555SOL     OW82496  11.923   5.262   3.136
93555SOL    HW182497  11.897   5.209   3.061
93555SOL    HW282498  11.856   5.246   3.202
93556SOL     OW82499  12.424   7.190   9.255
93556SOL    HW182500  12.422   7.218   9.164
93556SOL    HW282501  12.517   7.182   9.276
93557SOL     OW82502  11.382   7.901  11.969
93557SOL    HW182503  11.300   7.856  11.951
93557SOL    HW282504  11.415   7.926  11.883
93558SOL     OW82505  11.018   9.900   3.855
93558SOL    HW182506  10.953   9.830   3.849
93558SOL    HW282507  11.097   9.857   3.888
93559SOL     OW82508  11.365   7.276  11.887
93559SOL    HW182509  11.366   7.315  11.974
93559SOL    HW282510  11.299   7.207  11.892
93560SOL     OW82511   7.772   7.609   1.649
93560SOL    HW182512   7.836   7.600   1.578
93560SOL    HW282513   7.792   7.537   1.709
93561SOL     OW82514   1.465   9.480  14.520
93561SOL    HW182515   1.392   9.539  14.500
93561SOL    HW282516   1.452   9.406  14.460
93562SOL     OW82517   5.192   2.153   5.326
93562SOL    HW182518   5.208   2.241   5.360
93562SOL    HW282519   5.245   2.149   5.246
93563SOL     OW82520   9.476   0.039   3.943
93563SOL    HW182521   9.506   0.101   3.877
93563SOL    HW282522   9.431  14.852   3.893
93564SOL     OW82523   8.447   0.143   7.910
93564SOL    HW182524   8.382   0.189   7.962
93564SOL    HW282525   8.470   0.205   7.840
93565SOL     OW82526  12.270  10.085   2.232
93565SOL    HW182527  12.315  10.132   2.161
93565SOL    HW282528  12.318  10.002   2.239
93566SOL     OW82529   3.126   8.329  14.755
93566SOL    HW182530   3.169   8.247  14.730
93566SOL    HW282531   3.086   8.311  14.840
93567SOL     OW82532  11.002  14.224   9.964
93567SOL    HW182533  11.056  14.176  10.027
93567SOL    HW282534  11.008  14.173   9.884
93568SOL     OW82535  12.923   5.166  14.042
93568SOL    HW182536  12.970   5.248  14.058
93568SOL    HW282537  12.968   5.101  14.095
93569SOL     OW82538   1.854   2.685  14.344
93569SOL    HW182539   1.805   2.706  14.265
93569SOL    HW282540   1.860   2.589  14.344
93570SOL     OW82541   6.925  13.135   5.721
93570SOL    HW182542   6.934  13.167   5.811
93570SOL    HW282543   7.005  13.084   5.706
93571SOL     OW82544  10.596  12.663   8.858
93571SOL    HW182545  10.529  12.686   8.794
93571SOL    HW282546  10.675  12.708   8.828
93572SOL     OW82547   2.409   0.739  10.663
93572SOL    HW182548   2.411   0.824  10.707
93572SOL    HW282549   2.351   0.753  10.588
93573SOL     OW82550  14.835   8.150   7.348
93573SOL    HW182551  14.754   8.193   7.375
93573SOL    HW282552   0.019   8.182   7.409
93574SOL     OW82553  11.741   7.928  14.626
93574SOL    HW182554  11.662   7.955  14.672
93574SOL    HW282555  11.797   8.006  14.627
93575SOL     OW82556  10.667   9.480  12.894
93575SOL    HW182557  10.630   9.554  12.847
93575SOL    HW282558  10.592   9.424  12.913
93576SOL     OW82559   1.486   0.494   0.630
93576SOL    HW182560   1.470   0.557   0.559
93576SOL    HW282561   1.536   0.543   0.695
93577SOL     OW82562   9.655   9.220  12.120
93577SOL    HW182563   9.664   9.258  12.208
93577SOL    HW282564   9.727   9.157  12.114
93578SOL     OW82565  14.707  14.613   0.298
93578SOL    HW182566  14.767  14.595   0.226
93578SOL    HW282567  14.730  14.548   0.365
93579SOL     OW82568  10.943   4.060   7.214
93579SOL    HW182569  10.894   4.056   7.132
93579SOL    HW282570  10.879   4.091   7.278
93580SOL     OW82571   9.411  10.678   6.845
93580SOL    HW182572   9.370  10.759   6.875
93580SOL    HW282573   9.496  10.706   6.810
93581SOL     OW82574  11.546   8.607  13.207
93581SOL    HW182575  11.460   8.618  13.246
93581SOL    HW282576  11.606   8.600  13.282
93582SOL     OW82577   2.784   4.464   1.468
93582SOL    HW182578   2.860   4.515   1.441
93582SOL    HW282579   2.816   4.409   1.540
93583SOL     OW82580   0.762   9.126  12.575
93583SOL    HW182581   0.718   9.167  12.649
93583SOL    HW282582   0.843   9.090  12.613
93584SOL     OW82583  13.843   5.478   6.126
93584SOL    HW182584  13.822   5.571   6.141
93584SOL    HW282585  13.761   5.439   6.097
93585SOL     OW82586   0.453   4.668  11.733
93585SOL    HW182587   0.488   4.621  11.808
93585SOL    HW282588   0.513   4.742  11.721
93586SOL     OW82589   4.930   9.480   8.924
93586SOL    HW182590   4.966   9.500   9.010
93586SOL    HW282591   4.884   9.559   8.898
93587SOL     OW82592   0.206   8.582  11.292
93587SOL    HW182593   0.296   8.572  11.261
93587SOL    HW282594   0.214   8.610  11.383
93588SOL     OW82595   5.956   1.375   4.746
93588SOL    HW182596   5.904   1.324   4.808
93588SOL    HW282597   5.987   1.450   4.797
93589SOL     OW82598   9.009  11.567   1.598
93589SOL    HW182599   8.976  11.478   1.583
93589SOL    HW282600   9.065  11.586   1.523
93590SOL     OW82601   7.252   3.851   5.399
93590SOL    HW182602   7.269   3.853   5.493
93590SOL    HW282603   7.320   3.907   5.361
93591SOL     OW82604   5.323  13.718   0.067
93591SOL    HW182605   5.325  13.745  14.857
93591SOL    HW282606   5.269  13.784   0.110
93592SOL     OW82607   0.022  12.027   5.738
93592SOL    HW182608   0.102  12.075   5.717
93592SOL    HW282609   0.035  11.996   5.828
93593SOL     OW82610   1.438  12.189   8.380
93593SOL    HW182611   1.386  12.244   8.438
93593SOL    HW282612   1.441  12.238   8.297
93594SOL     OW82613  12.718  11.487   1.183
93594SOL    HW182614  12.732  11.392   1.175
93594SOL    HW282615  12.726  11.505   1.276
93595SOL     OW82616   1.511  10.395   6.313
93595SOL    HW182617   1.495  10.369   6.222
93595SOL    HW282618   1.425  10.422   6.345
93596SOL     OW82619   7.923   6.882   1.580
93596SOL    HW182620   7.896   6.917   1.664
93596SOL    HW282621   7.887   6.793   1.577
93597SOL     OW82622   1.853   8.440  12.295
93597SOL    HW182623   1.823   8.434  12.205
93597SOL    HW282624   1.821   8.525  12.326
93598SOL     OW82625   1.797  12.615   1.588
93598SOL    HW182626   1.836  12.654   1.509
93598SOL    HW282627   1.824  12.673   1.659
93599SOL     OW82628   5.110   9.596   9.142
93599SOL    HW182629   5.066   9.678   9.117
93599SOL    HW282630   5.110   9.597   9.237
93600SOL     OW82631  14.150   8.611   6.928
93600SOL    HW182632  14.112   8.527   6.954
93600SOL    HW282633  14.206   8.636   7.001
93601SOL     OW82634  12.413   2.508   0.422
93601SOL    HW182635  12.465   2.581   0.455
93601SOL    HW282636  12.473   2.461   0.364
93602SOL     OW82637   2.077   0.072   6.057
93602SOL    HW182638   2.077  14.860   6.039
93602SOL    HW282639   2.006   0.085   6.119
93603SOL     OW82640   2.857   3.937   4.519
93603SOL    HW182641   2.941   3.982   4.513
93603SOL    HW282642   2.795   4.006   4.542
93604SOL     OW82643  10.802   1.104  14.508
93604SOL    HW182644  10.728   1.120  14.450
93604SOL    HW282645  10.879   1.114  14.453
93605SOL     OW82646   6.736   6.156   6.724
93605SOL    HW182647   6.736   6.251   6.738
93605SOL    HW282648   6.695   6.120   6.803
93606SOL     OW82649   4.621   5.858   5.848
93606SOL    HW182650   4.620   5.908   5.930
93606SOL    HW282651   4.712   5.828   5.840
93607SOL     OW82652   5.133   9.549   1.688
93607SOL    HW182653   5.128   9.607   1.612
93607SOL    HW282654   5.077   9.475   1.666
93608SOL     OW82655  10.300  11.532   3.867
93608SOL    HW182656  10.275  11.624   3.872
93608SOL    HW282657  10.231  11.492   3.813
93609SOL     OW82658   1.951  13.752  13.943
93609SOL    HW182659   2.035  13.727  13.982
93609SOL    HW282660   1.886  13.714  14.001
93610SOL     OW82661   5.829  10.533  14.085
93610SOL    HW182662   5.825  10.623  14.117
93610SOL    HW282663   5.768  10.485  14.141
93611SOL     OW82664   2.667   2.195   5.906
93611SOL    HW182665   2.599   2.188   5.839
93611SOL    HW282666   2.696   2.105   5.919
93612SOL     OW82667   7.539  10.365   9.346
93612SOL    HW182668   7.545  10.326   9.433
93612SOL    HW282669   7.530  10.459   9.363
93613SOL     OW82670   6.246   3.499   8.559
93613SOL    HW182671   6.225   3.447   8.637
93613SOL    HW282672   6.242   3.589   8.589
93614SOL     OW82673  12.997   1.476   1.503
93614SOL    HW182674  12.966   1.386   1.516
93614SOL    HW282675  12.944   1.510   1.432
93615SOL     OW82676   5.442   6.503   8.627
93615SOL    HW182677   5.451   6.512   8.722
93615SOL    HW282678   5.526   6.534   8.592
93616SOL     OW82679  10.081   2.122  11.547
93616SOL    HW182680  10.123   2.208  11.547
93616SOL    HW282681  10.089   2.091  11.457
93617SOL     OW82682  10.085   3.365   4.548
93617SOL    HW182683  10.006   3.418   4.543
93617SOL    HW282684  10.138   3.393   4.473
93618SOL     OW82685   0.430   3.740   2.096
93618SOL    HW182686   0.495   3.810   2.090
93618SOL    HW282687   0.402   3.726   2.005
93619SOL     OW82688  11.363   3.826   4.857
93619SOL    HW182689  11.313   3.807   4.778
93619SOL    HW282690  11.349   3.919   4.873
93620SOL     OW82691   7.878   4.680  14.070
93620SOL    HW182692   7.954   4.728  14.104
93620SOL    HW282693   7.866   4.713  13.981
93621SOL     OW82694  11.623   5.029   4.551
93621SOL    HW182695  11.689   4.994   4.610
93621SOL    HW282696  11.567   4.954   4.530
93622SOL     OW82697  11.496  10.252   7.995
93622SOL    HW182698  11.442  10.322   7.960
93622SOL    HW282699  11.438  10.204   8.054
93623SOL     OW82700   1.887   8.219   8.646
93623SOL    HW182701   1.792   8.223   8.645
93623SOL    HW282702   1.914   8.310   8.659
93624SOL     OW82703   5.320   4.955   1.417
93624SOL    HW182704   5.338   5.046   1.439
93624SOL    HW282705   5.382   4.904   1.470
93625SOL     OW82706   8.038   6.144   0.028
93625SOL    HW182707   7.965   6.158  14.849
93625SOL    HW282708   8.116   6.140  14.854
93626SOL     OW82709  13.627  11.593   7.155
93626SOL    HW182710  13.538  11.601   7.121
93626SOL    HW282711  13.623  11.518   7.215
93627SOL     OW82712   8.088  11.230   4.834
93627SOL    HW182713   8.164  11.274   4.873
93627SOL    HW282714   8.117  11.206   4.746
93628SOL     OW82715   8.100  10.176   0.279
93628SOL    HW182716   8.147  10.230   0.216
93628SOL    HW282717   8.145  10.192   0.362
93629SOL     OW82718  12.083   6.367  10.080
93629SOL    HW182719  12.032   6.307  10.135
93629SOL    HW282720  12.125   6.310  10.016
93630SOL     OW82721   6.676  14.836   5.890
93630SOL    HW182722   6.632  14.754   5.868
93630SOL    HW282723   6.605   0.017   5.904
93631SOL     OW82724  13.343   2.019   9.417
93631SOL    HW182725  13.250   2.014   9.395
93631SOL    HW282726  13.352   1.968   9.497
93632SOL     OW82727   0.464   9.184  13.618
93632SOL    HW182728   0.533   9.244  13.589
93632SOL    HW282729   0.511   9.114  13.662
93633SOL     OW82730   5.406  11.255  13.340
93633SOL    HW182731   5.367  11.297  13.416
93633SOL    HW282732   5.385  11.313  13.267
93634SOL     OW82733   4.409   4.724   8.574
93634SOL    HW182734   4.421   4.796   8.635
93634SOL    HW282735   4.468   4.744   8.501
93635SOL     OW82736   1.987  12.468   4.385
93635SOL    HW182737   1.947  12.536   4.439
93635SOL    HW282738   2.059  12.434   4.438
93636SOL     OW82739   2.879  14.627   3.243
93636SOL    HW182740   2.942  14.694   3.272
93636SOL    HW282741   2.875  14.565   3.315
93637SOL     OW82742   3.295   5.720   0.103
93637SOL    HW182743   3.298   5.760   0.190
93637SOL    HW282744   3.332   5.787   0.045
93638SOL     OW82745   5.707   9.611  10.854
93638SOL    HW182746   5.731   9.633  10.944
93638SOL    HW282747   5.700   9.515  10.853
93639SOL     OW82748  11.263   2.239  10.475
93639SOL    HW182749  11.270   2.305  10.545
93639SOL    HW282750  11.284   2.287  10.395
93640SOL     OW82751   6.847   2.955  10.966
93640SOL    HW182752   6.822   3.021  10.901
93640SOL    HW282753   6.771   2.948  11.024
93641SOL     OW82754   0.983   2.373   8.775
93641SOL    HW182755   1.045   2.301   8.785
93641SOL    HW282756   1.027   2.435   8.716
93642SOL     OW82757   0.703  14.577   4.645
93642SOL    HW182758   0.714  14.670   4.666
93642SOL    HW282759   0.673  14.537   4.727
93643SOL     OW82760   0.780   1.342  11.172
93643SOL    HW182761   0.768   1.355  11.077
93643SOL    HW282762   0.692   1.321  11.204
93644SOL     OW82763   3.673  14.040  14.268
93644SOL    HW182764   3.631  13.976  14.211
93644SOL    HW282765   3.638  14.124  14.239
93645SOL     OW82766   6.837   3.242  12.225
93645SOL    HW182767   6.805   3.329  12.250
93645SOL    HW282768   6.799   3.183  12.289
93646SOL     OW82769   2.055   7.512   9.968
93646SOL    HW182770   2.096   7.431   9.938
93646SOL    HW282771   1.978   7.482  10.016
93647SOL     OW82772  14.691   3.582  14.550
93647SOL    HW182773  14.609   3.544  14.518
93647SOL    HW282774  14.730   3.625  14.473
93648SOL     OW82775   2.729   9.955   8.480
93648SOL    HW182776   2.738   9.860   8.495
93648SOL    HW282777   2.726   9.964   8.385
93649SOL     OW82778  13.558  13.976  10.511
93649SOL    HW182779  13.511  13.896  10.488
93649SOL    HW282780  13.513  14.009  10.589
93650SOL     OW82781  13.795   3.078   7.108
93650SOL    HW182782  13.706   3.091   7.076
93650SOL    HW282783  13.808   3.146   7.174
93651SOL     OW82784   6.742   4.213   1.209
93651SOL    HW182785   6.655   4.206   1.249
93651SOL    HW282786   6.734   4.286   1.147
93652SOL     OW82787  10.364   5.964  14.819
93652SOL    HW182788  10.272   5.980  14.796
93652SOL    HW282789  10.408   5.952  14.735
93653SOL     OW82790  12.172   4.727   6.536
93653SOL    HW182791  12.171   4.822   6.531
93653SOL    HW282792  12.155   4.707   6.628
93654SOL     OW82793  12.370   6.639   3.069
93654SOL    HW182794  12.452   6.683   3.047
93654SOL    HW282795  12.394   6.547   3.078
93655SOL     OW82796  13.688   8.110   2.745
93655SOL    HW182797  13.605   8.139   2.782
93655SOL    HW282798  13.668   8.089   2.654
93656SOL     OW82799   6.720   5.920  10.253
93656SOL    HW182800   6.789   5.934  10.188
93656SOL    HW282801   6.648   5.975  10.224
93657SOL     OW82802   3.803  12.426   6.605
93657SOL    HW182803   3.804  12.379   6.688
93657SOL    HW282804   3.891  12.461   6.596
93658SOL     OW82805   7.978   2.660   9.772
93658SOL    HW182806   8.046   2.717   9.736
93658SOL    HW282807   7.924   2.719   9.825
93659SOL     OW82808  10.694   5.421  14.011
93659SOL    HW182809  10.737   5.404  14.095
93659SOL    HW282810  10.629   5.488  14.031
93660SOL     OW82811  12.520   0.502  10.181
93660SOL    HW182812  12.539   0.584  10.136
93660SOL    HW282813  12.458   0.527  10.250
93661SOL     OW82814   5.639   8.433  12.902
93661SOL    HW182815   5.693   8.385  12.839
93661SOL    HW282816   5.695   8.503  12.933
93662SOL     OW82817   1.523  14.269   9.430
93662SOL    HW182818   1.452  14.329   9.408
93662SOL    HW282819   1.552  14.235   9.345
93663SOL     OW82820   5.582   5.764   0.522
93663SOL    HW182821   5.493   5.796   0.537
93663SOL    HW282822   5.586   5.681   0.571
93664SOL     OW82823   0.146   3.851   2.437
93664SOL    HW182824   0.065   3.836   2.388
93664SOL    HW282825   0.199   3.906   2.379
93665SOL     OW82826  12.593   9.355  13.073
93665SOL    HW182827  12.643   9.350  13.155
93665SOL    HW282828  12.554   9.442  13.074
93666SOL     OW82829   5.444  11.878  13.114
93666SOL    HW182830   5.513  11.890  13.049
93666SOL    HW282831   5.454  11.787  13.142
93667SOL     OW82832   3.427   3.258   4.414
93667SOL    HW182833   3.382   3.272   4.497
93667SOL    HW282834   3.515   3.293   4.429
93668SOL     OW82835   4.844   4.033   6.003
93668SOL    HW182836   4.912   4.018   6.068
93668SOL    HW282837   4.864   4.118   5.965
93669SOL     OW82838   7.535   6.310   3.475
93669SOL    HW182839   7.515   6.301   3.382
93669SOL    HW282840   7.454   6.287   3.520
93670SOL     OW82841  10.697   3.689   3.679
93670SOL    HW182842  10.759   3.618   3.664
93670SOL    HW282843  10.645   3.694   3.599
93671SOL     OW82844   8.950   0.641  14.460
93671SOL    HW182845   8.854   0.644  14.454
93671SOL    HW282846   8.979   0.705  14.395
93672SOL     OW82847   4.330   1.887  10.925
93672SOL    HW182848   4.279   1.930  10.856
93672SOL    HW282849   4.399   1.950  10.946
93673SOL     OW82850   1.431   9.916   4.393
93673SOL    HW182851   1.503   9.876   4.345
93673SOL    HW282852   1.396   9.845   4.447
93674SOL     OW82853  10.116   5.586  12.849
93674SOL    HW182854  10.024   5.605  12.831
93674SOL    HW282855  10.114   5.506  12.902
93675SOL     OW82856   1.852  12.682  14.809
93675SOL    HW182857   1.839  12.755  14.869
93675SOL    HW282858   1.808  12.708  14.728
93676SOL     OW82859   7.526  13.681  12.181
93676SOL    HW182860   7.588  13.608  12.176
93676SOL    HW282861   7.550  13.726  12.262
93677SOL     OW82862   3.894   3.817  11.301
93677SOL    HW182863   3.875   3.835  11.209
93677SOL    HW282864   3.988   3.802  11.304
93678SOL     OW82865   8.144   1.572   5.886
93678SOL    HW182866   8.208   1.641   5.866
93678SOL    HW282867   8.096   1.605   5.962
93679SOL     OW82868  11.359  14.456  13.582
93679SOL    HW182869  11.428  14.391  13.595
93679SOL    HW282870  11.400  14.523  13.528
93680SOL     OW82871   0.300   4.382   9.900
93680SOL    HW182872   0.309   4.290   9.923
93680SOL    HW282873   0.351   4.392   9.819
93681SOL     OW82874  13.994   6.177  14.351
93681SOL    HW182875  13.958   6.163  14.263
93681SOL    HW282876  13.942   6.249  14.387
93682SOL     OW82877   2.780  12.329   0.148
93682SOL    HW182878   2.757  12.418   0.120
93682SOL    HW282879   2.790  12.280   0.067
93683SOL     OW82880   6.721   2.453   6.063
93683SOL    HW182881   6.754   2.390   5.999
93683SOL    HW282882   6.626   2.444   6.060
93684SOL     OW82883  12.598  10.587   0.455
93684SOL    HW182884  12.551  10.540   0.524
93684SOL    HW282885  12.606  10.523   0.384
93685SOL     OW82886   1.332   6.025  10.326
93685SOL    HW182887   1.271   6.029  10.399
93685SOL    HW282888   1.414   6.060  10.360
93686SOL     OW82889   7.530   6.669   4.795
93686SOL    HW182890   7.486   6.754   4.790
93686SOL    HW282891   7.507   6.625   4.713
93687SOL     OW82892   2.741   2.026   6.303
93687SOL    HW182893   2.760   2.104   6.251
93687SOL    HW282894   2.650   2.005   6.282
93688SOL     OW82895  14.001   8.173   1.626
93688SOL    HW182896  14.025   8.218   1.706
93688SOL    HW282897  13.977   8.243   1.565
93689SOL     OW82898  11.740   3.110   2.582
93689SOL    HW182899  11.818   3.136   2.630
93689SOL    HW282900  11.705   3.192   2.547
93690SOL     OW82901   0.751  14.200  14.048
93690SOL    HW182902   0.764  14.131  13.982
93690SOL    HW282903   0.732  14.279  13.997
93691SOL     OW82904   3.443   0.871   1.448
93691SOL    HW182905   3.380   0.834   1.387
93691SOL    HW282906   3.526   0.872   1.400
93692SOL     OW82907   3.973  10.501  14.837
93692SOL    HW182908   4.067  10.512  14.856
93692SOL    HW282909   3.930  10.531   0.035
93693SOL     OW82910  13.089   7.185   8.719
93693SOL    HW182911  13.165   7.142   8.679
93693SOL    HW282912  13.097   7.277   8.694
93694SOL     OW82913   3.483   8.434   9.046
93694SOL    HW182914   3.482   8.493   8.971
93694SOL    HW282915   3.512   8.350   9.010
93695SOL     OW82916  11.487   3.735  11.593
93695SOL    HW182917  11.491   3.820  11.549
93695SOL    HW282918  11.578   3.712  11.610
93696SOL     OW82919  10.755  12.193  12.970
93696SOL    HW182920  10.761  12.285  12.944
93696SOL    HW282921  10.670  12.185  13.014
93697SOL     OW82922   1.617  13.291   8.965
93697SOL    HW182923   1.636  13.206   9.006
93697SOL    HW282924   1.582  13.268   8.879
93698SOL     OW82925   6.828   9.498   4.348
93698SOL    HW182926   6.794   9.409   4.360
93698SOL    HW282927   6.911   9.486   4.302
93699SOL     OW82928   7.846  13.439   8.341
93699SOL    HW182929   7.791  13.418   8.265
93699SOL    HW282930   7.826  13.371   8.405
93700SOL     OW82931   3.255   5.325   9.050
93700SOL    HW182932   3.332   5.284   9.009
93700SOL    HW282933   3.291   5.392   9.107
93701SOL     OW82934   9.794   8.713   2.121
93701SOL    HW182935   9.773   8.621   2.133
93701SOL    HW282936   9.725   8.746   2.062
93702SOL     OW82937   9.619   6.868   4.361
93702SOL    HW182938   9.602   6.774   4.369
93702SOL    HW282939   9.609   6.903   4.449
93703SOL     OW82940   7.200   6.200  12.125
93703SOL    HW182941   7.243   6.250  12.195
93703SOL    HW282942   7.124   6.160  12.168
93704SOL     OW82943  12.145   9.476   7.580
93704SOL    HW182944  12.101   9.513   7.503
93704SOL    HW282945  12.089   9.498   7.654
93705SOL     OW82946  11.479  11.896  12.596
93705SOL    HW182947  11.517  11.983  12.582
93705SOL    HW282948  11.421  11.882  12.521
93706SOL     OW82949  10.818   7.420   3.324
93706SOL    HW182950  10.778   7.477   3.389
93706SOL    HW282951  10.796   7.459   3.240
93707SOL     OW82952   3.244   2.992   9.238
93707SOL    HW182953   3.154   2.960   9.241
93707SOL    HW282954   3.282   2.953   9.159
93708SOL     OW82955   3.831  12.298  12.021
93708SOL    HW182956   3.774  12.244  11.967
93708SOL    HW282957   3.812  12.270  12.111
93709SOL     OW82958  14.136   5.704  14.021
93709SOL    HW182959  14.124   5.723  13.928
93709SOL    HW282960  14.173   5.784  14.058
93710SOL     OW82961  10.288  13.853  13.465
93710SOL    HW182962  10.300  13.758  13.468
93710SOL    HW282963  10.197  13.867  13.494
93711SOL     OW82964  13.857  12.989  10.952
93711SOL    HW182965  13.862  13.064  11.012
93711SOL    HW282966  13.862  13.028  10.865
93712SOL     OW82967   4.443   3.857  10.450
93712SOL    HW182968   4.375   3.832  10.512
93712SOL    HW282969   4.458   3.950  10.467
93713SOL     OW82970  11.501   6.794   5.952
93713SOL    HW182971  11.412   6.815   5.924
93713SOL    HW282972  11.555   6.814   5.876
93714SOL     OW82973   2.677   5.541   0.594
93714SOL    HW182974   2.730   5.603   0.645
93714SOL    HW282975   2.663   5.467   0.654
93715SOL     OW82976   3.361   2.204   3.965
93715SOL    HW182977   3.368   2.292   4.001
93715SOL    HW282978   3.322   2.217   3.878
93716SOL     OW82979   1.264   9.494   4.402
93716SOL    HW182980   1.270   9.402   4.429
93716SOL    HW282981   1.355   9.519   4.384
93717SOL     OW82982  13.730   5.044   0.719
93717SOL    HW182983  13.664   5.100   0.677
93717SOL    HW282984  13.812   5.066   0.675
93718SOL     OW82985  14.481   5.506   3.102
93718SOL    HW182986  14.488   5.599   3.121
93718SOL    HW282987  14.387   5.490   3.094
93719SOL     OW82988  14.722   6.528  13.454
93719SOL    HW182989  14.714   6.589  13.528
93719SOL    HW282990  14.816   6.524  13.437
93720SOL     OW82991  12.268   3.546   2.490
93720SOL    HW182992  12.236   3.533   2.401
93720SOL    HW282993  12.198   3.513   2.546
93721SOL     OW82994   2.662   3.948   0.646
93721SOL    HW182995   2.573   3.914   0.644
93721SOL    HW282996   2.715   3.876   0.680
93722SOL     OW82997   2.045  14.666  10.463
93722SOL    HW182998   2.023  14.758  10.451
93722SOL    HW282999   2.022  14.647  10.554
93723SOL     OW83000   2.369   2.575  10.178
93723SOL    HW183001   2.290   2.612  10.139
93723SOL    HW283002   2.412   2.529  10.107
93724SOL     OW83003   0.839   0.157   6.167
93724SOL    HW183004   0.902   0.100   6.212
93724SOL    HW283005   0.860   0.146   6.074
93725SOL     OW83006  10.097   1.003  10.615
93725SOL    HW183007  10.023   1.006  10.675
93725SOL    HW283008  10.062   0.965  10.535
93726SOL     OW83009  11.118   1.717   5.893
93726SOL    HW183010  11.046   1.654   5.896
93726SOL    HW283011  11.181   1.685   5.957
93727SOL     OW83012   2.315   1.555   6.842
93727SOL    HW183013   2.303   1.632   6.897
93727SOL    HW283014   2.406   1.560   6.813
93728SOL     OW83015  13.543   7.322  13.595
93728SOL    HW183016  13.622   7.305  13.647
93728SOL    HW283017  13.574   7.376  13.522
93729SOL     OW83018   2.576   3.256  14.002
93729SOL    HW183019   2.584   3.349  14.023
93729SOL    HW283020   2.635   3.242  13.928
93730SOL     OW83021   6.117   9.835   4.169
93730SOL    HW183022   6.097   9.775   4.241
93730SOL    HW283023   6.113   9.922   4.208
93731SOL     OW83024  14.602   8.070   3.927
93731SOL    HW183025  14.528   8.103   3.875
93731SOL    HW283026  14.561   8.013   3.993
93732SOL     OW83027   8.889  11.333  13.826
93732SOL    HW183028   8.974  11.297  13.849
93732SOL    HW283029   8.869  11.294  13.740
93733SOL     OW83030   5.202  13.193   7.497
93733SOL    HW183031   5.122  13.239   7.472
93733SOL    HW283032   5.264  13.212   7.427
93734SOL     OW83033  11.931   3.197   2.759
93734SOL    HW183034  11.896   3.224   2.844
93734SOL    HW283035  11.987   3.122   2.778
93735SOL     OW83036  10.131   2.798  12.765
93735SOL    HW183037  10.191   2.873  12.762
93735SOL    HW283038  10.189   2.722  12.767
93736SOL     OW83039  10.099   3.422   0.788
93736SOL    HW183040  10.051   3.492   0.746
93736SOL    HW283041  10.182   3.417   0.740
93737SOL     OW83042   8.898  10.627   7.329
93737SOL    HW183043   8.825  10.667   7.282
93737SOL    HW283044   8.857  10.567   7.391
93738SOL     OW83045  12.217   0.213   8.278
93738SOL    HW183046  12.298   0.203   8.228
93738SOL    HW283047  12.150   0.227   8.211
93739SOL     OW83048   2.712   0.551  13.902
93739SOL    HW183049   2.651   0.623  13.889
93739SOL    HW283050   2.670   0.476  13.860
93740SOL     OW83051   0.690  11.413   4.834
93740SOL    HW183052   0.763  11.353   4.826
93740SOL    HW283053   0.650  11.414   4.746
93741SOL     OW83054   9.645  10.370  11.487
93741SOL    HW183055   9.555  10.348  11.461
93741SOL    HW283056   9.691  10.286  11.490
93742SOL     OW83057   8.409   0.276  13.338
93742SOL    HW183058   8.428   0.347  13.400
93742SOL    HW283059   8.432   0.312  13.253
93743SOL     OW83060   5.063   0.480   4.358
93743SOL    HW183061   5.006   0.418   4.311
93743SOL    HW283062   5.034   0.475   4.449
93744SOL     OW83063   0.636   0.187   4.507
93744SOL    HW183064   0.644   0.220   4.417
93744SOL    HW283065   0.635   0.265   4.562
93745SOL     OW83066  12.015   9.352  10.047
93745SOL    HW183067  11.941   9.401  10.009
93745SOL    HW283068  12.070   9.419  10.087
93746SOL     OW83069   8.271   8.608  13.049
93746SOL    HW183070   8.261   8.556  12.968
93746SOL    HW283071   8.356   8.581  13.083
93747SOL     OW83072   2.734   5.708   2.169
93747SOL    HW183073   2.792   5.691   2.095
93747SOL    HW283074   2.777   5.664   2.243
93748SOL     OW83075   2.279   6.800   8.820
93748SOL    HW183076   2.237   6.856   8.755
93748SOL    HW283077   2.358   6.768   8.776
93749SOL     OW83078   0.853   1.862   4.250
93749SOL    HW183079   0.841   1.938   4.193
93749SOL    HW283080   0.823   1.788   4.197
93750SOL     OW83081   6.497   1.725  10.579
93750SOL    HW183082   6.469   1.802  10.530
93750SOL    HW283083   6.573   1.692  10.532
93751SOL     OW83084   4.718   9.985   2.255
93751SOL    HW183085   4.666  10.056   2.217
93751SOL    HW283086   4.756   9.940   2.179
93752SOL     OW83087  10.921  14.024   1.331
93752SOL    HW183088  10.933  13.945   1.383
93752SOL    HW283089  10.842  14.009   1.280
93753SOL     OW83090   4.453   9.232   5.987
93753SOL    HW183091   4.381   9.245   6.048
93753SOL    HW283092   4.412   9.230   5.900
93754SOL     OW83093   5.714   7.670  14.282
93754SOL    HW183094   5.647   7.605  14.257
93754SOL    HW283095   5.670   7.755  14.271
93755SOL     OW83096   4.803   2.903   0.005
93755SOL    HW183097   4.808   2.993  14.855
93755SOL    HW283098   4.808   2.849  14.808
93756SOL     OW83099   5.917  12.662  11.102
93756SOL    HW183100   5.886  12.663  11.012
93756SOL    HW283101   5.881  12.742  11.140
93757SOL     OW83102   3.868  10.733   6.372
93757SOL    HW183103   3.875  10.685   6.454
93757SOL    HW283104   3.858  10.665   6.305
93758SOL     OW83105  11.131   4.076   1.748
93758SOL    HW183106  11.109   3.986   1.771
93758SOL    HW283107  11.219   4.069   1.709
93759SOL     OW83108   3.086   8.867  11.627
93759SOL    HW183109   3.164   8.837  11.582
93759SOL    HW283110   3.030   8.789  11.633
93760SOL     OW83111   5.684  10.118   4.059
93760SOL    HW183112   5.679  10.198   4.111
93760SOL    HW283113   5.612  10.126   3.996
93761SOL     OW83114   0.583   3.174  13.150
93761SOL    HW183115   0.510   3.183  13.089
93761SOL    HW283116   0.589   3.259  13.194
93762SOL     OW83117   4.157   0.523   7.457
93762SOL    HW183118   4.116   0.546   7.373
93762SOL    HW283119   4.178   0.430   7.449
93763SOL     OW83120  11.633   8.044   0.780
93763SOL    HW183121  11.670   7.958   0.761
93763SOL    HW283122  11.555   8.026   0.833
93764SOL     OW83123   2.851  14.577   0.641
93764SOL    HW183124   2.763  14.601   0.670
93764SOL    HW283125   2.867  14.633   0.565
93765SOL     OW83126   9.863   3.148   3.928
93765SOL    HW183127   9.810   3.071   3.908
93765SOL    HW283128   9.951   3.114   3.941
93766SOL     OW83129  14.234   3.136  12.627
93766SOL    HW183130  14.270   3.168  12.544
93766SOL    HW283131  14.286   3.180  12.695
93767SOL     OW83132   4.208   6.862   8.235
93767SOL    HW183133   4.181   6.874   8.144
93767SOL    HW283134   4.148   6.917   8.285
93768SOL     OW83135   3.840  11.588  13.404
93768SOL    HW183136   3.921  11.639  13.396
93768SOL    HW283137   3.821  11.559  13.315
93769SOL     OW83138   8.460   0.176   4.653
93769SOL    HW183139   8.417   0.258   4.628
93769SOL    HW283140   8.396   0.132   4.709
93770SOL     OW83141  12.491   2.556  10.051
93770SOL    HW183142  12.476   2.469  10.089
93770SOL    HW283143  12.585   2.560  10.035
93771SOL     OW83144  14.725   4.724  13.798
93771SOL    HW183145  14.764   4.657  13.741
93771SOL    HW283146  14.785   4.729  13.873
93772SOL     OW83147   5.569   0.899   7.351
93772SOL    HW183148   5.653   0.860   7.329
93772SOL    HW283149   5.504   0.836   7.320
93773SOL     OW83150   2.917   3.368  12.621
93773SOL    HW183151   2.824   3.365  12.643
93773SOL    HW283152   2.923   3.325  12.536
93774SOL     OW83153   2.788  11.098   3.545
93774SOL    HW183154   2.831  11.172   3.588
93774SOL    HW283155   2.843  11.022   3.566
93775SOL     OW83156   6.640   3.704  13.679
93775SOL    HW183157   6.719   3.674  13.635
93775SOL    HW283158   6.641   3.799  13.667
93776SOL     OW83159   2.265   4.865   8.377
93776SOL    HW183160   2.238   4.948   8.337
93776SOL    HW283161   2.256   4.880   8.471
93777SOL     OW83162   2.236   3.614   6.057
93777SOL    HW183163   2.178   3.575   6.122
93777SOL    HW283164   2.299   3.544   6.036
93778SOL     OW83165   6.096   3.916   9.899
93778SOL    HW183166   6.014   3.891   9.942
93778SOL    HW283167   6.086   3.883   9.809
93779SOL     OW83168   3.802   6.689   6.461
93779SOL    HW183169   3.785   6.600   6.491
93779SOL    HW283170   3.716   6.723   6.438
93780SOL     OW83171   9.388  13.120   2.987
93780SOL    HW183172   9.450  13.053   2.957
93780SOL    HW283173   9.416  13.141   3.076
93781SOL     OW83174   5.840   0.488   6.952
93781SOL    HW183175   5.851   0.466   6.860
93781SOL    HW283176   5.914   0.446   6.996
93782SOL     OW83177  12.688   0.955  14.558
93782SOL    HW183178  12.755   1.012  14.520
93782SOL    HW283179  12.669   0.891  14.489
93783SOL     OW83180  12.998  10.126   2.892
93783SOL    HW183181  13.071  10.067   2.871
93783SOL    HW283182  12.921  10.070   2.887
93784SOL     OW83183   2.236  11.675   9.214
93784SOL    HW183184   2.229  11.587   9.252
93784SOL    HW283185   2.195  11.732   9.279
93785SOL     OW83186   2.236   3.353   9.242
93785SOL    HW183187   2.163   3.314   9.291
93785SOL    HW283188   2.254   3.435   9.288
93786SOL     OW83189   0.980   2.754   8.458
93786SOL    HW183190   1.057   2.761   8.402
93786SOL    HW283191   0.960   2.844   8.485
93787SOL     OW83192  10.523   5.145   4.166
93787SOL    HW183193  10.592   5.179   4.223
93787SOL    HW283194  10.452   5.209   4.173
93788SOL     OW83195   9.439  14.148   9.805
93788SOL    HW183196   9.481  14.146   9.719
93788SOL    HW283197   9.418  14.241   9.819
93789SOL     OW83198  11.631   2.758  10.273
93789SOL    HW183199  11.592   2.841  10.302
93789SOL    HW283200  11.608   2.751  10.181
93790SOL     OW83201   3.468  10.276   5.540
93790SOL    HW183202   3.381  10.277   5.580
93790SOL    HW283203   3.465  10.346   5.475
93791SOL     OW83204   0.704  10.796   9.203
93791SOL    HW183205   0.641  10.756   9.262
93791SOL    HW283206   0.765  10.842   9.260
93792SOL     OW83207   7.942   8.128  13.817
93792SOL    HW183208   7.967   8.063  13.751
93792SOL    HW283209   8.019   8.183  13.827
93793SOL     OW83210  14.645  12.746   1.099
93793SOL    HW183211  14.732  12.785   1.098
93793SOL    HW283212  14.659  12.656   1.128
93794SOL     OW83213   8.147  10.996   4.314
93794SOL    HW183214   8.166  11.060   4.383
93794SOL    HW283215   8.165  10.911   4.354
93795SOL     OW83216   3.921  13.310  10.855
93795SOL    HW183217   3.939  13.382  10.794
93795SOL    HW283218   3.826  13.297  10.848
93796SOL     OW83219  10.528   0.469   8.957
93796SOL    HW183220  10.445   0.426   8.934
93796SOL    HW283221  10.516   0.560   8.928
93797SOL     OW83222   7.168  12.258   8.865
93797SOL    HW183223   7.263  12.247   8.872
93797SOL    HW283224   7.142  12.203   8.791
93798SOL     OW83225   9.646   6.309  12.446
93798SOL    HW183226   9.713   6.372  12.471
93798SOL    HW283227   9.622   6.333  12.357
93799SOL     OW83228   2.688  14.537  14.044
93799SOL    HW183229   2.638  14.554  14.124
93799SOL    HW283230   2.703  14.624  14.007
93800SOL     OW83231   3.033  12.401   4.817
93800SOL    HW183232   3.025  12.348   4.737
93800SOL    HW283233   2.983  12.354   4.883
93801SOL     OW83234  13.571   8.735   7.424
93801SOL    HW183235  13.590   8.822   7.389
93801SOL    HW283236  13.516   8.693   7.357
93802SOL     OW83237   5.058   5.176  11.914
93802SOL    HW183238   5.136   5.199  11.964
93802SOL    HW283239   4.985   5.204  11.969
93803SOL     OW83240   4.313  10.716   7.055
93803SOL    HW183241   4.284  10.778   6.988
93803SOL    HW283242   4.257  10.639   7.042
93804SOL     OW83243  14.252  11.009   7.840
93804SOL    HW183244  14.298  11.066   7.778
93804SOL    HW283245  14.298  11.022   7.923
93805SOL     OW83246   9.940   8.985   6.606
93805SOL    HW183247   9.980   8.935   6.678
93805SOL    HW283248  10.010   8.996   6.543
93806SOL     OW83249   6.463   3.880   9.040
93806SOL    HW183250   6.489   3.971   9.027
93806SOL    HW283251   6.391   3.884   9.102
93807SOL     OW83252  13.406   4.251   9.048
93807SOL    HW183253  13.335   4.214   8.996
93807SOL    HW283254  13.472   4.276   8.983
93808SOL     OW83255   5.703   2.709   1.168
93808SOL    HW183256   5.686   2.775   1.101
93808SOL    HW283257   5.791   2.676   1.148
93809SOL     OW83258   6.298   8.923   8.656
93809SOL    HW183259   6.320   8.840   8.614
93809SOL    HW283260   6.353   8.926   8.734
93810SOL     OW83261   6.694   9.200   7.394
93810SOL    HW183262   6.698   9.261   7.320
93810SOL    HW283263   6.730   9.249   7.468
93811SOL     OW83264   9.201   5.690   8.543
93811SOL    HW183265   9.254   5.618   8.510
93811SOL    HW283266   9.167   5.733   8.465
93812SOL     OW83267   3.725   1.459  11.831
93812SOL    HW183268   3.661   1.531  11.838
93812SOL    HW283269   3.672   1.380  11.826
93813SOL     OW83270  11.005   4.402   6.765
93813SOL    HW183271  10.977   4.489   6.794
93813SOL    HW283272  11.094   4.393   6.800
93814SOL     OW83273   0.882  11.969   9.810
93814SOL    HW183274   0.929  11.988   9.729
93814SOL    HW283275   0.950  11.961   9.877
93815SOL     OW83276   8.194   1.441  14.293
93815SOL    HW183277   8.156   1.482  14.215
93815SOL    HW283278   8.124   1.444  14.358
93816SOL     OW83279   8.561   6.056   9.903
93816SOL    HW183280   8.480   6.033   9.857
93816SOL    HW283281   8.603   6.121   9.847
93817SOL     OW83282  12.695  10.644   9.126
93817SOL    HW183283  12.716  10.720   9.072
93817SOL    HW283284  12.618  10.605   9.085
93818SOL     OW83285   6.035   3.820   2.063
93818SOL    HW183286   6.057   3.849   2.152
93818SOL    HW283287   5.985   3.740   2.075
93819SOL     OW83288  12.904  10.480  12.074
93819SOL    HW183289  12.830  10.476  12.135
93819SOL    HW283290  12.880  10.420  12.003
93820SOL     OW83291   7.097   5.479   8.734
93820SOL    HW183292   7.085   5.532   8.655
93820SOL    HW283293   7.136   5.539   8.798
93821SOL     OW83294   1.705  11.678   2.777
93821SOL    HW183295   1.750  11.705   2.857
93821SOL    HW283296   1.775  11.651   2.717
93822SOL     OW83297   7.697   7.994  10.406
93822SOL    HW183298   7.723   7.904  10.424
93822SOL    HW283299   7.758   8.047  10.457
93823SOL     OW83300   1.625  10.384  10.766
93823SOL    HW183301   1.676  10.443  10.710
93823SOL    HW283302   1.668  10.299  10.758
93824SOL     OW83303   6.149   7.977   6.856
93824SOL    HW183304   6.222   7.997   6.798
93824SOL    HW283305   6.180   8.003   6.943
93825SOL     OW83306   2.552   4.481   1.338
93825SOL    HW183307   2.629   4.493   1.394
93825SOL    HW283308   2.588   4.467   1.250
93826SOL     OW83309   0.281  12.844  11.950
93826SOL    HW183310   0.187  12.853  11.969
93826SOL    HW283311   0.320  12.925  11.981
93827SOL     OW83312   0.366   3.871   9.503
93827SOL    HW183313   0.378   3.966   9.499
93827SOL    HW283314   0.434   3.835   9.446
93828SOL     OW83315   9.544   2.393   9.066
93828SOL    HW183316   9.624   2.350   9.096
93828SOL    HW283317   9.475   2.328   9.081
93829SOL     OW83318   0.586  14.225   0.878
93829SOL    HW183319   0.614  14.265   0.961
93829SOL    HW283320   0.625  14.138   0.879
93830SOL     OW83321   3.511   9.077   0.444
93830SOL    HW183322   3.561   9.080   0.526
93830SOL    HW283323   3.467   8.992   0.446
93831SOL     OW83324   9.450   2.712   0.196
93831SOL    HW183325   9.465   2.629   0.150
93831SOL    HW283326   9.538   2.747   0.212
93832SOL     OW83327  12.571   9.868  10.878
93832SOL    HW183328  12.618   9.920  10.813
93832SOL    HW283329  12.640   9.830  10.933
93833SOL     OW83330   8.572  14.546   9.201
93833SOL    HW183331   8.544  14.637   9.194
93833SOL    HW283332   8.666  14.549   9.184
93834SOL     OW83333   2.946  11.453   5.163
93834SOL    HW183334   2.898  11.535   5.155
93834SOL    HW283335   2.889  11.396   5.214
93835SOL     OW83336   1.161   2.543   7.647
93835SOL    HW183337   1.181   2.591   7.727
93835SOL    HW283338   1.081   2.493   7.669
93836SOL     OW83339  14.247   3.700   6.464
93836SOL    HW183340  14.285   3.615   6.444
93836SOL    HW283341  14.302   3.763   6.417
93837SOL     OW83342   6.523  12.756  13.850
93837SOL    HW183343   6.458  12.813  13.891
93837SOL    HW283344   6.580  12.816  13.801
93838SOL     OW83345  11.022  10.102   8.744
93838SOL    HW183346  11.097  10.070   8.694
93838SOL    HW283347  11.048  10.190   8.771
93839SOL     OW83348   3.383  11.169   3.144
93839SOL    HW183349   3.296  11.128   3.137
93839SOL    HW283350   3.367  11.262   3.133
93840SOL     OW83351   2.223  13.417   3.650
93840SOL    HW183352   2.209  13.510   3.666
93840SOL    HW283353   2.297  13.393   3.705
93841SOL     OW83354  11.181   0.503   3.128
93841SOL    HW183355  11.250   0.437   3.133
93841SOL    HW283356  11.118   0.477   3.196
93842SOL     OW83357  13.679   1.830   2.773
93842SOL    HW183358  13.662   1.742   2.805
93842SOL    HW283359  13.771   1.846   2.795
93843SOL     OW83360   3.915  13.357   5.177
93843SOL    HW183361   4.005  13.390   5.170
93843SOL    HW283362   3.864  13.433   5.204
93844SOL     OW83363  14.383  14.745  10.617
93844SOL    HW183364  14.424  14.812  10.563
93844SOL    HW283365  14.296  14.779  10.637
93845SOL     OW83366   6.004   3.270   4.636
93845SOL    HW183367   6.037   3.195   4.686
93845SOL    HW283368   6.025   3.346   4.689
93846SOL     OW83369  14.228   6.262   2.847
93846SOL    HW183370  14.298   6.322   2.820
93846SOL    HW283371  14.214   6.206   2.771
93847SOL     OW83372  12.225   4.266  11.135
93847SOL    HW183373  12.218   4.295  11.044
93847SOL    HW283374  12.172   4.186  11.138
93848SOL     OW83375   0.928  13.570  14.424
93848SOL    HW183376   0.928  13.567  14.328
93848SOL    HW283377   1.016  13.598  14.447
93849SOL     OW83378  12.096  11.006   2.151
93849SOL    HW183379  12.110  10.977   2.241
93849SOL    HW283380  12.082  10.926   2.102
93850SOL     OW83381   5.224   7.679  10.026
93850SOL    HW183382   5.220   7.672  10.122
93850SOL    HW283383   5.235   7.772  10.010
93851SOL     OW83384   6.542   3.604  11.919
93851SOL    HW183385   6.573   3.622  12.007
93851SOL    HW283386   6.506   3.515  11.924
93852SOL     OW83387   4.874   1.494   8.203
93852SOL    HW183388   4.857   1.422   8.263
93852SOL    HW283389   4.788   1.531   8.184
93853SOL     OW83390  10.517  13.836   3.005
93853SOL    HW183391  10.580  13.906   2.987
93853SOL    HW283392  10.444  13.854   2.946
93854SOL     OW83393  11.235  10.904   3.522
93854SOL    HW183394  11.173  10.950   3.578
93854SOL    HW283395  11.215  10.811   3.534
93855SOL     OW83396   7.254   7.011  10.054
93855SOL    HW183397   7.335   7.031  10.008
93855SOL    HW283398   7.259   7.060  10.136
93856SOL     OW83399   2.136   7.287   9.834
93856SOL    HW183400   2.097   7.220   9.889
93856SOL    HW283401   2.227   7.258   9.822
93857SOL     OW83402  12.204   3.735  12.014
93857SOL    HW183403  12.144   3.663  12.036
93857SOL    HW283404  12.183   3.757  11.923
93858SOL     OW83405   9.100   9.405  11.754
93858SOL    HW183406   9.099   9.314  11.786
93858SOL    HW283407   9.022   9.412  11.700
93859SOL     OW83408   3.820   8.933   9.799
93859SOL    HW183409   3.734   8.950   9.837
93859SOL    HW283410   3.834   9.006   9.739
93860SOL     OW83411   5.149   1.679   6.012
93860SOL    HW183412   5.086   1.620   5.971
93860SOL    HW283413   5.116   1.767   5.994
93861SOL     OW83414  12.182   6.280  14.212
93861SOL    HW183415  12.218   6.209  14.265
93861SOL    HW283416  12.251   6.347  14.212
93862SOL     OW83417   7.762  10.157  14.114
93862SOL    HW183418   7.851  10.125  14.100
93862SOL    HW283419   7.725  10.163  14.025
93863SOL     OW83420  10.457  12.415   4.350
93863SOL    HW183421  10.493  12.487   4.297
93863SOL    HW283422  10.416  12.459   4.425
93864SOL     OW83423  11.974   9.702   2.114
93864SOL    HW183424  11.969   9.796   2.133
93864SOL    HW283425  11.994   9.698   2.021
93865SOL     OW83426  13.388   4.800   5.972
93865SOL    HW183427  13.381   4.814   6.066
93865SOL    HW283428  13.298   4.791   5.942
93866SOL     OW83429   2.319   2.174  11.218
93866SOL    HW183430   2.283   2.262  11.209
93866SOL    HW283431   2.250   2.116  11.186
93867SOL     OW83432   8.767  10.524   0.969
93867SOL    HW183433   8.703  10.454   0.953
93867SOL    HW283434   8.811  10.498   1.050
93868SOL     OW83435  11.769  12.533   7.511
93868SOL    HW183436  11.792  12.539   7.604
93868SOL    HW283437  11.852  12.517   7.467
93869SOL     OW83438   2.407   9.696   1.200
93869SOL    HW183439   2.409   9.671   1.108
93869SOL    HW283440   2.408   9.791   1.200
93870SOL     OW83441   2.982   4.614  13.363
93870SOL    HW183442   2.917   4.647  13.301
93870SOL    HW283443   3.065   4.654  13.335
93871SOL     OW83444  13.965   5.731  12.833
93871SOL    HW183445  14.027   5.740  12.905
93871SOL    HW283446  13.879   5.730  12.875
93872SOL     OW83447   0.583   9.008  14.879
93872SOL    HW183448   0.584   9.006   0.093
93872SOL    HW283449   0.672   9.031  14.854
93873SOL     OW83450   7.484   7.847   8.785
93873SOL    HW183451   7.449   7.870   8.871
93873SOL    HW283452   7.568   7.892   8.781
93874SOL     OW83453   2.806   4.634   3.623
93874SOL    HW183454   2.888   4.681   3.643
93874SOL    HW283455   2.749   4.701   3.587
93875SOL     OW83456   1.246   4.763   3.139
93875SOL    HW183457   1.155   4.759   3.108
93875SOL    HW283458   1.239   4.775   3.233
93876SOL     OW83459  12.647  14.211  10.938
93876SOL    HW183460  12.689  14.129  10.966
93876SOL    HW283461  12.595  14.186  10.862
93877SOL     OW83462   2.176  13.281   0.637
93877SOL    HW183463   2.081  13.292   0.633
93877SOL    HW283464   2.210  13.370   0.628
93878SOL     OW83465  10.304   1.935   4.976
93878SOL    HW183466  10.235   1.893   5.027
93878SOL    HW283467  10.370   1.960   5.041
93879SOL     OW83468  13.607   8.808   8.005
93879SOL    HW183469  13.588   8.714   8.010
93879SOL    HW283470  13.598   8.839   8.095
93880SOL     OW83471  12.947   1.826  13.472
93880SOL    HW183472  12.921   1.734  13.476
93880SOL    HW283473  13.034   1.827  13.514
93881SOL     OW83474   3.860   5.603  14.163
93881SOL    HW183475   3.875   5.559  14.080
93881SOL    HW283476   3.814   5.539  14.217
93882SOL     OW83477   0.446   3.767  10.079
93882SOL    HW183478   0.366   3.817  10.097
93882SOL    HW283479   0.440   3.744   9.987
93883SOL     OW83480   8.460   9.089   4.122
93883SOL    HW183481   8.451   9.020   4.055
93883SOL    HW283482   8.549   9.122   4.110
93884SOL     OW83483  13.073   1.757   8.703
93884SOL    HW183484  13.169   1.756   8.708
93884SOL    HW283485  13.051   1.682   8.649
93885SOL     OW83486   4.975   5.201   2.477
93885SOL    HW183487   4.992   5.295   2.473
93885SOL    HW283488   5.058   5.162   2.503
93886SOL     OW83489   9.880   3.924  14.615
93886SOL    HW183490   9.964   3.954  14.578
93886SOL    HW283491   9.888   3.829  14.615
93887SOL     OW83492  11.614   6.857   2.087
93887SOL    HW183493  11.526   6.866   2.048
93887SOL    HW283494  11.620   6.763   2.108
93888SOL     OW83495   4.953  14.435  13.854
93888SOL    HW183496   4.943  14.340  13.863
93888SOL    HW283497   5.040  14.447  13.817
93889SOL     OW83498  11.249  10.271   2.652
93889SOL    HW183499  11.195  10.233   2.720
93889SOL    HW283500  11.188  10.315   2.594
93890SOL     OW83501   2.069   1.894   2.189
93890SOL    HW183502   2.147   1.910   2.242
93890SOL    HW283503   2.036   1.809   2.218
93891SOL     OW83504  12.031  11.951  10.271
93891SOL    HW183505  12.092  11.904  10.327
93891SOL    HW283506  12.078  12.028  10.242
93892SOL     OW83507   5.258  14.203  13.170
93892SOL    HW183508   5.282  14.118  13.133
93892SOL    HW283509   5.248  14.261  13.095
93893SOL     OW83510  10.383   1.328  14.123
93893SOL    HW183511  10.385   1.330  14.028
93893SOL    HW283512  10.383   1.420  14.149
93894SOL     OW83513   4.241   2.508   0.836
93894SOL    HW183514   4.304   2.558   0.887
93894SOL    HW283515   4.276   2.510   0.747
93895SOL     OW83516   4.093   0.119  11.505
93895SOL    HW183517   4.073   0.143  11.596
93895SOL    HW283518   4.183   0.149  11.491
93896SOL     OW83519   5.095   5.920  13.764
93896SOL    HW183520   5.063   5.830  13.778
93896SOL    HW283521   5.154   5.935  13.838
93897SOL     OW83522   6.965   5.798   5.324
93897SOL    HW183523   6.911   5.729   5.285
93897SOL    HW283524   6.943   5.876   5.274
93898SOL     OW83525   8.993   8.094  13.491
93898SOL    HW183526   8.988   8.177  13.442
93898SOL    HW283527   9.087   8.073  13.491
93899SOL     OW83528  13.536   9.300   8.194
93899SOL    HW183529  13.500   9.234   8.135
93899SOL    HW283530  13.558   9.373   8.137
93900SOL     OW83531  13.183   7.907   1.544
93900SOL    HW183532  13.187   7.812   1.559
93900SOL    HW283533  13.100   7.934   1.582
93901SOL     OW83534   1.184   3.965  11.945
93901SOL    HW183535   1.241   3.910  11.998
93901SOL    HW283536   1.096   3.950  11.980
93902SOL     OW83537   0.709   2.411  10.339
93902SOL    HW183538   0.776   2.478  10.328
93902SOL    HW283539   0.753   2.340  10.384
93903SOL     OW83540   9.035   1.164   8.838
93903SOL    HW183541   9.036   1.204   8.751
93903SOL    HW283542   8.994   1.229   8.894
93904SOL     OW83543  11.422   4.683   7.053
93904SOL    HW183544  11.442   4.623   6.982
93904SOL    HW283545  11.342   4.727   7.026
93905SOL     OW83546   6.982  10.847   2.725
93905SOL    HW183547   6.943  10.774   2.773
93905SOL    HW283548   7.076  10.828   2.723
93906SOL     OW83549  10.161   7.663  10.665
93906SOL    HW183550  10.138   7.750  10.697
93906SOL    HW283551  10.078   7.628  10.631
93907SOL     OW83552   1.640   0.938  11.203
93907SOL    HW183553   1.695   0.931  11.281
93907SOL    HW283554   1.652   0.855  11.157
93908SOL     OW83555  12.141   1.423   8.620
93908SOL    HW183556  12.172   1.399   8.707
93908SOL    HW283557  12.173   1.353   8.563
93909SOL     OW83558   8.309   6.151  10.949
93909SOL    HW183559   8.338   6.179  11.036
93909SOL    HW283560   8.369   6.194  10.889
93910SOL     OW83561   7.692  11.739   8.372
93910SOL    HW183562   7.610  11.741   8.323
93910SOL    HW283563   7.731  11.654   8.351
93911SOL     OW83564   9.185   0.015  12.097
93911SOL    HW183565   9.099   0.041  12.128
93911SOL    HW283566   9.217  14.835  12.162
93912SOL     OW83567   9.207   8.237  13.236
93912SOL    HW183568   9.221   8.146  13.212
93912SOL    HW283569   9.224   8.240  13.330
93913SOL     OW83570  14.009   8.286   7.748
93913SOL    HW183571  14.025   8.304   7.655
93913SOL    HW283572  14.091   8.247   7.778
93914SOL     OW83573   9.245  10.830  12.982
93914SOL    HW183574   9.251  10.925  12.992
93914SOL    HW283575   9.193  10.802  13.057
93915SOL     OW83576  12.754  12.118  11.168
93915SOL    HW183577  12.727  12.101  11.077
93915SOL    HW283578  12.795  12.204  11.165
93916SOL     OW83579  14.297  12.658   5.531
93916SOL    HW183580  14.340  12.739   5.504
93916SOL    HW283581  14.289  12.665   5.626
93917SOL     OW83582  12.053   1.842  12.930
93917SOL    HW183583  11.968   1.797  12.931
93917SOL    HW283584  12.110   1.786  12.878
93918SOL     OW83585  14.456   1.366   4.188
93918SOL    HW183586  14.398   1.442   4.199
93918SOL    HW283587  14.520   1.393   4.124
93919SOL     OW83588  14.105  11.085  13.258
93919SOL    HW183589  14.051  11.085  13.337
93919SOL    HW283590  14.098  10.996  13.224
93920SOL     OW83591   9.680  13.379   0.361
93920SOL    HW183592   9.765  13.422   0.350
93920SOL    HW283593   9.619  13.451   0.376
93921SOL     OW83594  12.864   8.422   9.424
93921SOL    HW183595  12.952   8.418   9.463
93921SOL    HW283596  12.870   8.493   9.360
93922SOL     OW83597   6.719   0.945   1.503
93922SOL    HW183598   6.763   0.936   1.588
93922SOL    HW283599   6.667   0.865   1.495
93923SOL     OW83600   1.390  14.348   1.407
93923SOL    HW183601   1.361  14.394   1.486
93923SOL    HW283602   1.311  14.305   1.374
93924SOL     OW83603   5.483   2.450   4.164
93924SOL    HW183604   5.567   2.471   4.123
93924SOL    HW283605   5.438   2.395   4.101
93925SOL     OW83606  11.549   3.921   6.175
93925SOL    HW183607  11.537   3.933   6.269
93925SOL    HW283608  11.569   3.828   6.165
93926SOL     OW83609   3.457   0.794   6.469
93926SOL    HW183610   3.513   0.755   6.536
93926SOL    HW283611   3.492   0.761   6.386
93927SOL     OW83612  14.319  11.232   1.681
93927SOL    HW183613  14.403  11.236   1.726
93927SOL    HW283614  14.323  11.153   1.627
93928SOL     OW83615  13.186  12.734   9.609
93928SOL    HW183616  13.276  12.710   9.632
93928SOL    HW283617  13.176  12.823   9.644
93929SOL     OW83618   1.374  14.442   0.041
93929SOL    HW183619   1.336  14.391   0.113
93929SOL    HW283620   1.410  14.376  14.864
93930SOL     OW83621   7.480   4.177   0.077
93930SOL    HW183622   7.502   4.211   0.164
93930SOL    HW283623   7.560   4.134   0.047
93931SOL     OW83624   1.665  12.405   4.912
93931SOL    HW183625   1.611  12.484   4.909
93931SOL    HW283626   1.687  12.388   4.821
93932SOL     OW83627   0.351   5.724   0.090
93932SOL    HW183628   0.356   5.794   0.154
93932SOL    HW283629   0.258   5.703   0.083
93933SOL     OW83630  13.597  11.073   6.680
93933SOL    HW183631  13.632  11.048   6.765
93933SOL    HW283632  13.519  11.018   6.669
93934SOL     OW83633  13.834   0.723   8.853
93934SOL    HW183634  13.873   0.752   8.770
93934SOL    HW283635  13.751   0.770   8.858
93935SOL     OW83636   6.186   7.833   7.754
93935SOL    HW183637   6.124   7.760   7.755
93935SOL    HW283638   6.248   7.810   7.684
93936SOL     OW83639   8.040   9.755   1.268
93936SOL    HW183640   7.974   9.786   1.329
93936SOL    HW283641   8.122   9.761   1.317
93937SOL     OW83642   6.377   4.331  12.930
93937SOL    HW183643   6.398   4.310  13.021
93937SOL    HW283644   6.364   4.246  12.888
93938SOL     OW83645   7.027  14.090   4.222
93938SOL    HW183646   7.017  14.032   4.147
93938SOL    HW283647   6.982  14.171   4.196
93939SOL     OW83648   9.967  11.418   9.906
93939SOL    HW183649   9.937  11.506   9.884
93939SOL    HW283650  10.060  11.428   9.925
93940SOL     OW83651  11.469   6.543  11.808
93940SOL    HW183652  11.505   6.610  11.866
93940SOL    HW283653  11.515   6.463  11.833
93941SOL     OW83654   4.363   3.368   4.005
93941SOL    HW183655   4.299   3.397   3.940
93941SOL    HW283656   4.393   3.450   4.047
93942SOL     OW83657   8.244   2.535   7.611
93942SOL    HW183658   8.161   2.498   7.581
93942SOL    HW283659   8.223   2.625   7.635
93943SOL     OW83660   2.490   3.463   7.859
93943SOL    HW183661   2.494   3.520   7.782
93943SOL    HW283662   2.401   3.476   7.894
93944SOL     OW83663   5.735   0.798  10.626
93944SOL    HW183664   5.811   0.775  10.572
93944SOL    HW283665   5.688   0.715  10.636
93945SOL     OW83666   3.482   4.803   8.160
93945SOL    HW183667   3.439   4.717   8.161
93945SOL    HW283668   3.518   4.810   8.071
93946SOL     OW83669   3.244  11.103   8.760
93946SOL    HW183670   3.338  11.114   8.745
93946SOL    HW283671   3.230  11.009   8.760
93947SOL     OW83672   2.179   8.498  14.009
93947SOL    HW183673   2.259   8.454  13.982
93947SOL    HW283674   2.172   8.478  14.103
93948SOL     OW83675  11.549  11.395   6.459
93948SOL    HW183676  11.545  11.300   6.451
93948SOL    HW283677  11.599  11.424   6.382
93949SOL     OW83678   2.791   0.474   1.366
93949SOL    HW183679   2.799   0.440   1.277
93949SOL    HW283680   2.777   0.397   1.421
93950SOL     OW83681   5.326   4.246   8.737
93950SOL    HW183682   5.407   4.234   8.788
93950SOL    HW283683   5.272   4.304   8.790
93951SOL     OW83684   6.123   1.917  13.362
93951SOL    HW183685   6.097   1.896  13.272
93951SOL    HW283686   6.065   1.863  13.417
93952SOL     OW83687   6.361   2.120  13.917
93952SOL    HW183688   6.415   2.125  13.838
93952SOL    HW283689   6.293   2.186  13.904
93953SOL     OW83690  11.824   4.007   5.991
93953SOL    HW183691  11.796   4.094   5.964
93953SOL    HW283692  11.751   3.972   6.042
93954SOL     OW83693   6.284  10.283  10.376
93954SOL    HW183694   6.271  10.316  10.287
93954SOL    HW283695   6.316  10.359  10.425
93955SOL     OW83696  10.350   2.685   1.014
93955SOL    HW183697  10.358   2.634   0.934
93955SOL    HW283698  10.389   2.769   0.993
93956SOL     OW83699   7.815   7.053  12.860
93956SOL    HW183700   7.852   7.137  12.886
93956SOL    HW283701   7.817   7.054  12.764
93957SOL     OW83702  13.462   9.945   0.293
93957SOL    HW183703  13.532  10.002   0.326
93957SOL    HW283704  13.506   9.863   0.271
93958SOL     OW83705   4.673  14.493  12.521
93958SOL    HW183706   4.649  14.415  12.472
93958SOL    HW283707   4.679  14.562  12.455
93959SOL     OW83708   8.569   0.772  12.764
93959SOL    HW183709   8.524   0.737  12.686
93959SOL    HW283710   8.516   0.847  12.790
93960SOL     OW83711   5.991  13.543   4.717
93960SOL    HW183712   5.957  13.544   4.627
93960SOL    HW283713   6.073  13.593   4.712
93961SOL     OW83714   0.810  10.596   1.664
93961SOL    HW183715   0.828  10.668   1.725
93961SOL    HW283716   0.895  10.556   1.649
93962SOL     OW83717   7.632   4.805  11.484
93962SOL    HW183718   7.715   4.769  11.452
93962SOL    HW283719   7.589   4.731  11.526
93963SOL     OW83720  14.344   5.649   0.866
93963SOL    HW183721  14.356   5.738   0.834
93963SOL    HW283722  14.304   5.602   0.793
93964SOL     OW83723  11.882  10.670   5.246
93964SOL    HW183724  11.884  10.669   5.151
93964SOL    HW283725  11.830  10.747   5.269
93965SOL     OW83726  10.307  14.470   5.749
93965SOL    HW183727  10.278  14.529   5.679
93965SOL    HW283728  10.244  14.397   5.746
93966SOL     OW83729  10.795  10.131   0.833
93966SOL    HW183730  10.846  10.108   0.910
93966SOL    HW283731  10.774  10.047   0.792
93967SOL     OW83732  14.393  10.855   7.161
93967SOL    HW183733  14.299  10.838   7.161
93967SOL    HW283734  14.433  10.768   7.160
93968SOL     OW83735   5.428   1.171   4.978
93968SOL    HW183736   5.393   1.092   5.018
93968SOL    HW283737   5.352   1.228   4.968
93969SOL     OW83738   0.536   3.300   6.254
93969SOL    HW183739   0.471   3.315   6.186
93969SOL    HW283740   0.486   3.274   6.331
93970SOL     OW83741   9.614  12.022   7.027
93970SOL    HW183742   9.681  11.958   7.052
93970SOL    HW283743   9.615  12.086   7.098
93971SOL     OW83744  12.467  14.716   1.481
93971SOL    HW183745  12.449  14.780   1.549
93971SOL    HW283746  12.382  14.676   1.462
93972SOL     OW83747  11.596  11.262   7.386
93972SOL    HW183748  11.628  11.320   7.316
93972SOL    HW283749  11.583  11.177   7.343
93973SOL     OW83750  10.879  10.707   2.947
93973SOL    HW183751  10.926  10.735   3.026
93973SOL    HW283752  10.829  10.630   2.975
93974SOL     OW83753  13.466   4.695   4.261
93974SOL    HW183754  13.446   4.683   4.168
93974SOL    HW283755  13.381   4.695   4.305
93975SOL     OW83756  11.327   5.306   8.079
93975SOL    HW183757  11.413   5.319   8.039
93975SOL    HW283758  11.303   5.217   8.054
93976SOL     OW83759   4.881  10.458   1.956
93976SOL    HW183760   4.967  10.478   1.991
93976SOL    HW283761   4.822  10.520   1.999
93977SOL     OW83762   1.623   9.250   9.776
93977SOL    HW183763   1.592   9.218   9.861
93977SOL    HW283764   1.553   9.226   9.715
93978SOL     OW83765  11.334   7.174   4.102
93978SOL    HW183766  11.320   7.208   4.014
93978SOL    HW283767  11.246   7.154   4.134
93979SOL     OW83768  11.381  13.099   4.744
93979SOL    HW183769  11.395  13.177   4.690
93979SOL    HW283770  11.343  13.035   4.683
93980SOL     OW83771  12.959  13.259   1.741
93980SOL    HW183772  12.968  13.174   1.698
93980SOL    HW283773  12.918  13.239   1.825
93981SOL     OW83774   7.083   2.970   9.493
93981SOL    HW183775   7.009   2.959   9.434
93981SOL    HW283776   7.111   2.880   9.513
93982SOL     OW83777   0.874  10.635  11.074
93982SOL    HW183778   0.795  10.633  11.129
93982SOL    HW283779   0.947  10.627  11.136
93983SOL     OW83780  14.844   3.612  10.166
93983SOL    HW183781   0.021   3.560  10.111
93983SOL    HW283782  14.758   3.600  10.127
93984SOL     OW83783   0.664   7.932  11.038
93984SOL    HW183784   0.583   7.982  11.040
93984SOL    HW283785   0.694   7.937  10.947
93985SOL     OW83786   6.823  10.767   6.383
93985SOL    HW183787   6.740  10.815   6.389
93985SOL    HW283788   6.797  10.678   6.359
93986SOL     OW83789   4.773   2.354   4.449
93986SOL    HW183790   4.796   2.384   4.537
93986SOL    HW283791   4.682   2.324   4.457
93987SOL     OW83792  12.732   4.444   1.824
93987SOL    HW183793  12.781   4.378   1.774
93987SOL    HW283794  12.743   4.417   1.915
93988SOL     OW83795   6.779   8.594   9.660
93988SOL    HW183796   6.695   8.600   9.705
93988SOL    HW283797   6.834   8.660   9.702
93989SOL     OW83798  14.097  11.197   6.363
93989SOL    HW183799  14.004  11.185   6.379
93989SOL    HW283800  14.140  11.154   6.437
93990SOL     OW83801  14.002   4.276  13.066
93990SOL    HW183802  14.097   4.264  13.066
93990SOL    HW283803  13.984   4.323  12.984
93991SOL     OW83804   1.206  12.114   1.505
93991SOL    HW183805   1.161  12.085   1.584
93991SOL    HW283806   1.226  12.206   1.521
93992SOL     OW83807   9.911  14.050  14.772
93992SOL    HW183808   9.990  14.039  14.719
93992SOL    HW283809   9.943  14.049  14.862
93993SOL     OW83810  12.060  13.259   8.007
93993SOL    HW183811  11.979  13.272   8.057
93993SOL    HW283812  12.127  13.304   8.058
93994SOL     OW83813   0.592   9.069   9.642
93994SOL    HW183814   0.519   9.011   9.663
93994SOL    HW283815   0.638   9.025   9.571
93995SOL     OW83816  10.988   3.478   3.443
93995SOL    HW183817  11.041   3.403   3.418
93995SOL    HW283818  10.953   3.456   3.529
93996SOL     OW83819   0.394   3.360  12.005
93996SOL    HW183820   0.392   3.265  12.011
93996SOL    HW283821   0.301   3.386  12.004
93997SOL     OW83822   2.448  11.662   7.560
93997SOL    HW183823   2.521  11.618   7.603
93997SOL    HW283824   2.418  11.727   7.623
93998SOL     OW83825  12.062   4.980   7.791
93998SOL    HW183826  11.982   4.971   7.739
93998SOL    HW283827  12.054   5.066   7.832
93999SOL     OW83828   4.460   5.781   7.669
93999SOL    HW183829   4.534   5.747   7.618
93999SOL    HW283830   4.422   5.849   7.613
94000SOL     OW83831  11.169   1.314   8.457
94000SOL    HW183832  11.252   1.331   8.503
94000SOL    HW283833  11.193   1.252   8.388
94001SOL     OW83834  10.126  10.772   6.819
94001SOL    HW183835  10.175  10.840   6.866
94001SOL    HW283836  10.036  10.804   6.819
94002SOL     OW83837   2.710   6.886   9.199
94002SOL    HW183838   2.633   6.858   9.247
94002SOL    HW283839   2.780   6.828   9.228
94003SOL     OW83840  11.549   6.101   1.034
94003SOL    HW183841  11.623   6.043   1.017
94003SOL    HW283842  11.472   6.044   1.031
94004SOL     OW83843   2.956   6.139   2.094
94004SOL    HW183844   3.002   6.206   2.144
94004SOL    HW283845   2.967   6.166   2.003
94005SOL     OW83846  11.831   0.551  13.930
94005SOL    HW183847  11.913   0.578  13.889
94005SOL    HW283848  11.823   0.458  13.909
94006SOL     OW83849  11.555   1.406   8.329
94006SOL    HW183850  11.501   1.459   8.271
94006SOL    HW283851  11.618   1.364   8.270
94007SOL     OW83852   8.948   8.607   5.174
94007SOL    HW183853   8.863   8.615   5.131
94007SOL    HW283854   8.967   8.696   5.204
94008SOL     OW83855   5.144   5.683   5.868
94008SOL    HW183856   5.115   5.630   5.942
94008SOL    HW283857   5.222   5.728   5.900
94009SOL     OW83858  14.231   0.028   7.897
94009SOL    HW183859  14.322   0.016   7.926
94009SOL    HW283860  14.226   0.120   7.871
94010SOL     OW83861   3.497  13.199   6.743
94010SOL    HW183862   3.454  13.202   6.828
94010SOL    HW283863   3.547  13.117   6.744
94011SOL     OW83864   1.181  12.831   9.214
94011SOL    HW183865   1.175  12.923   9.240
94011SOL    HW283866   1.094  12.796   9.231
94012SOL     OW83867   8.146  11.310   7.817
94012SOL    HW183868   8.061  11.353   7.825
94012SOL    HW283869   8.133  11.222   7.853
94013SOL     OW83870   5.653   9.998   7.580
94013SOL    HW183871   5.595  10.061   7.539
94013SOL    HW283872   5.600   9.957   7.649
94014SOL     OW83873  10.207   4.466   4.040
94014SOL    HW183874  10.254   4.431   3.964
94014SOL    HW283875  10.164   4.390   4.079
94015SOL     OW83876   9.160   1.342  10.737
94015SOL    HW183877   9.115   1.336  10.653
94015SOL    HW283878   9.226   1.272  10.734
94016SOL     OW83879   3.910   9.737   0.331
94016SOL    HW183880   3.909   9.784   0.247
94016SOL    HW283881   3.839   9.673   0.324
94017SOL     OW83882  14.224  11.900  14.863
94017SOL    HW183883  14.200  11.811   0.004
94017SOL    HW283884  14.153  11.955   0.014
94018SOL     OW83885   3.399  13.377   5.255
94018SOL    HW183886   3.357  13.320   5.191
94018SOL    HW283887   3.371  13.343   5.340
94019SOL     OW83888   7.402   1.770  10.234
94019SOL    HW183889   7.481   1.815  10.265
94019SOL    HW283890   7.383   1.809  10.149
94020SOL     OW83891  13.824  13.789   2.307
94020SOL    HW183892  13.833  13.703   2.347
94020SOL    HW283893  13.743  13.783   2.255
94021SOL     OW83894  13.428   1.278  12.939
94021SOL    HW183895  13.519   1.307  12.937
94021SOL    HW283896  13.402   1.271  12.847
94022SOL     OW83897  10.208   2.579   3.126
94022SOL    HW183898  10.249   2.571   3.039
94022SOL    HW283899  10.199   2.673   3.140
94023SOL     OW83900   1.904  13.202   5.041
94023SOL    HW183901   1.979  13.244   4.998
94023SOL    HW283902   1.932  13.191   5.132
94024SOL     OW83903  11.574   8.210  12.774
94024SOL    HW183904  11.518   8.219  12.697
94024SOL    HW283905  11.607   8.120  12.770
94025SOL     OW83906   4.220   0.735  13.237
94025SOL    HW183907   4.276   0.677  13.289
94025SOL    HW283908   4.189   0.680  13.165
94026SOL     OW83909   7.575   3.650  13.926
94026SOL    HW183910   7.538   3.576  13.880
94026SOL    HW283911   7.579   3.720  13.860
94027SOL     OW83912  11.647  14.176  11.858
94027SOL    HW183913  11.597  14.213  11.931
94027SOL    HW283914  11.682  14.094  11.893
94028SOL     OW83915   1.116   7.341  11.906
94028SOL    HW183916   1.094   7.431  11.881
94028SOL    HW283917   1.039   7.309  11.952
94029SOL     OW83918   2.423   6.159   3.557
94029SOL    HW183919   2.398   6.132   3.646
94029SOL    HW283920   2.503   6.208   3.569
94030SOL     OW83921   1.657   4.621   0.724
94030SOL    HW183922   1.688   4.706   0.755
94030SOL    HW283923   1.649   4.567   0.803
94031SOL     OW83924   4.010   4.260   6.466
94031SOL    HW183925   4.042   4.207   6.393
94031SOL    HW283926   4.064   4.339   6.464
94032SOL     OW83927   5.108  10.536   8.272
94032SOL    HW183928   5.058  10.549   8.191
94032SOL    HW283929   5.120  10.625   8.307
94033SOL     OW83930  14.470   4.937   4.737
94033SOL    HW183931  14.526   5.015   4.746
94033SOL    HW283932  14.382   4.970   4.752
94034SOL     OW83933   5.058   0.407   4.622
94034SOL    HW183934   5.013   0.330   4.656
94034SOL    HW283935   5.140   0.410   4.671
94035SOL     OW83936   1.361  14.036  10.364
94035SOL    HW183937   1.378  14.115  10.313
94035SOL    HW283938   1.330  13.972  10.300
94036SOL     OW83939  14.317   1.269   6.829
94036SOL    HW183940  14.365   1.255   6.911
94036SOL    HW283941  14.300   1.363   6.828
94037SOL     OW83942   7.098   1.615   6.276
94037SOL    HW183943   7.012   1.649   6.250
94037SOL    HW283944   7.144   1.602   6.194
94038SOL     OW83945   1.772   0.492  10.927
94038SOL    HW183946   1.841   0.538  10.974
94038SOL    HW283947   1.783   0.520  10.836
94039SOL     OW83948  11.940   6.359   4.789
94039SOL    HW183949  12.033   6.342   4.777
94039SOL    HW283950  11.898   6.322   4.711
94040SOL     OW83951  11.422  11.789  11.932
94040SOL    HW183952  11.334  11.751  11.936
94040SOL    HW283953  11.450  11.795  12.024
94041SOL     OW83954  13.339   7.596   6.808
94041SOL    HW183955  13.349   7.512   6.853
94041SOL    HW283956  13.377   7.582   6.721
94042SOL     OW83957  10.438  13.558  11.591
94042SOL    HW183958  10.519  13.607  11.600
94042SOL    HW283959  10.388  13.605  11.524
94043SOL     OW83960   7.424   4.858   9.731
94043SOL    HW183961   7.400   4.927   9.670
94043SOL    HW283962   7.349   4.798   9.731
94044SOL     OW83963   5.859  12.140  13.605
94044SOL    HW183964   5.783  12.196  13.591
94044SOL    HW283965   5.857  12.078  13.532
94045SOL     OW83966   3.971   6.524   2.440
94045SOL    HW183967   3.960   6.429   2.444
94045SOL    HW283968   3.985   6.542   2.347
94046SOL     OW83969   5.026   5.184  12.206
94046SOL    HW183970   4.960   5.251  12.188
94046SOL    HW283971   4.982   5.102  12.186
94047SOL     OW83972   0.638  13.221   5.535
94047SOL    HW183973   0.635  13.230   5.631
94047SOL    HW283974   0.731  13.228   5.514
94048SOL     OW83975  11.164  10.831  14.314
94048SOL    HW183976  11.163  10.775  14.391
94048SOL    HW283977  11.166  10.771  14.240
94049SOL     OW83978   1.705  10.830   5.209
94049SOL    HW183979   1.714  10.922   5.186
94049SOL    HW283980   1.755  10.821   5.290
94050SOL     OW83981   7.962   2.086  13.530
94050SOL    HW183982   8.033   2.043  13.578
94050SOL    HW283983   7.983   2.179  13.534
94051SOL     OW83984  13.034   8.884  13.100
94051SOL    HW183985  13.059   8.798  13.132
94051SOL    HW283986  12.982   8.867  13.022
94052SOL     OW83987   2.208   2.247   5.368
94052SOL    HW183988   2.211   2.289   5.282
94052SOL    HW283989   2.117   2.257   5.396
94053SOL     OW83990   1.620   9.265   4.214
94053SOL    HW183991   1.550   9.233   4.270
94053SOL    HW283992   1.637   9.193   4.153
94054SOL     OW83993   1.631   6.105  13.751
94054SOL    HW183994   1.622   6.011  13.766
94054SOL    HW283995   1.561   6.126  13.690
94055SOL     OW83996   4.615  11.942  11.471
94055SOL    HW183997   4.679  12.013  11.468
94055SOL    HW283998   4.574  11.949  11.558
94056SOL     OW83999   2.297   6.806   4.184
94056SOL    HW184000   2.244   6.865   4.131
94056SOL    HW284001   2.261   6.719   4.168
94057SOL     OW84002   7.403   6.205   3.728
94057SOL    HW184003   7.372   6.139   3.789
94057SOL    HW284004   7.324   6.237   3.685
94058SOL     OW84005   8.495   2.138   3.519
94058SOL    HW184006   8.482   2.053   3.561
94058SOL    HW284007   8.557   2.183   3.577
94059SOL     OW84008   4.403  12.709  12.439
94059SOL    HW184009   4.308  12.699  12.448
94059SOL    HW284010   4.435  12.717  12.529
94060SOL     OW84011  14.809   7.582   6.435
94060SOL    HW184012  14.732   7.607   6.385
94060SOL    HW284013  14.857   7.522   6.378
94061SOL     OW84014   7.730   3.389   7.577
94061SOL    HW184015   7.635   3.398   7.581
94061SOL    HW284016   7.760   3.407   7.666
94062SOL     OW84017  11.582   7.310  14.874
94062SOL    HW184018  11.522   7.250  14.831
94062SOL    HW284019  11.627   7.257   0.058
94063SOL     OW84020   8.142  10.535   3.876
94063SOL    HW184021   8.072  10.516   3.938
94063SOL    HW284022   8.132  10.469   3.807
94064SOL     OW84023  14.533   4.015   8.409
94064SOL    HW184024  14.599   4.005   8.478
94064SOL    HW284025  14.478   3.938   8.417
94065SOL     OW84026   3.993   1.275  14.530
94065SOL    HW184027   3.951   1.358  14.510
94065SOL    HW284028   3.989   1.225  14.448
94066SOL     OW84029   5.268   2.075  12.014
94066SOL    HW184030   5.210   2.075  12.090
94066SOL    HW284031   5.298   1.984  12.007
94067SOL     OW84032  12.003   8.895   6.695
94067SOL    HW184033  12.041   8.960   6.753
94067SOL    HW284034  12.078   8.850   6.656
94068SOL     OW84035   9.682   1.969   2.082
94068SOL    HW184036   9.716   2.039   2.026
94068SOL    HW284037   9.587   1.973   2.072
94069SOL     OW84038   3.151   8.790  14.588
94069SOL    HW184039   3.103   8.748  14.659
94069SOL    HW284040   3.083   8.823  14.529
94070SOL     OW84041   3.607   8.169   7.064
94070SOL    HW184042   3.587   8.077   7.048
94070SOL    HW284043   3.695   8.169   7.101
94071SOL     OW84044   0.312  10.879   4.190
94071SOL    HW184045   0.252  10.870   4.116
94071SOL    HW284046   0.256  10.875   4.267
94072SOL     OW84047   4.651   1.525  10.400
94072SOL    HW184048   4.612   1.593  10.345
94072SOL    HW284049   4.739   1.514  10.365
94073SOL     OW84050  13.177   3.412   2.500
94073SOL    HW184051  13.104   3.469   2.526
94073SOL    HW284052  13.135   3.329   2.475
94074SOL     OW84053  10.029   8.501   3.020
94074SOL    HW184054   9.970   8.484   2.947
94074SOL    HW284055  10.040   8.597   3.020
94075SOL     OW84056   8.099   8.160   5.131
94075SOL    HW184057   8.168   8.225   5.137
94075SOL    HW284058   8.075   8.142   5.222
94076SOL     OW84059   4.054   7.175   6.389
94076SOL    HW184060   4.047   7.108   6.457
94076SOL    HW284061   4.077   7.255   6.436
94077SOL     OW84062   0.847  14.827   1.108
94077SOL    HW184063   0.831   0.003   1.182
94077SOL    HW284064   0.768  14.773   1.103
94078SOL     OW84065  14.659   7.003  12.656
94078SOL    HW184066  14.664   6.944  12.581
94078SOL    HW284067  14.592   7.067  12.633
94079SOL     OW84068   8.959   5.526  10.776
94079SOL    HW184069   9.028   5.548  10.838
94079SOL    HW284070   9.004   5.518  10.692
94080SOL     OW84071  12.490   4.121  10.895
94080SOL    HW184072  12.537   4.180  10.953
94080SOL    HW284073  12.470   4.174  10.818
94081SOL     OW84074  11.434  14.237   3.421
94081SOL    HW184075  11.393  14.318   3.391
94081SOL    HW284076  11.434  14.245   3.517
94082SOL     OW84077  13.769   3.202   8.673
94082SOL    HW184078  13.710   3.143   8.626
94082SOL    HW284079  13.768   3.170   8.763
94083SOL     OW84080   4.803   4.190  14.748
94083SOL    HW184081   4.861   4.117  14.727
94083SOL    HW284082   4.861   4.258  14.782
94084SOL     OW84083   1.201   7.165  14.814
94084SOL    HW184084   1.192   7.192  14.722
94084SOL    HW284085   1.295   7.172  14.831
94085SOL     OW84086   0.843   6.888   0.146
94085SOL    HW184087   0.829   6.980   0.170
94085SOL    HW284088   0.906   6.892   0.074
94086SOL     OW84089   0.160   8.624   3.900
94086SOL    HW184090   0.132   8.715   3.909
94086SOL    HW284091   0.197   8.619   3.812
94087SOL     OW84092   5.968   8.429   4.244
94087SOL    HW184093   6.040   8.383   4.202
94087SOL    HW284094   5.976   8.406   4.337
94088SOL     OW84095   8.566   7.431  14.367
94088SOL    HW184096   8.566   7.526  14.355
94088SOL    HW284097   8.547   7.419  14.460
94089SOL     OW84098  12.761   5.520   9.699
94089SOL    HW184099  12.771   5.427   9.717
94089SOL    HW284100  12.694   5.524   9.631
94090SOL     OW84101   4.636   0.915   1.700
94090SOL    HW184102   4.686   0.945   1.776
94090SOL    HW284103   4.552   0.961   1.707
94091SOL     OW84104  11.019  11.691   2.259
94091SOL    HW184105  11.089  11.727   2.312
94091SOL    HW284106  11.062  11.628   2.201
94092SOL     OW84107   3.517   8.963   8.620
94092SOL    HW184108   3.538   9.048   8.580
94092SOL    HW284109   3.483   8.911   8.547
94093SOL     OW84110   9.571  13.019   0.666
94093SOL    HW184111   9.548  13.111   0.659
94093SOL    HW284112   9.635  13.015   0.738
94094SOL     OW84113   6.056   3.013   1.857
94094SOL    HW184114   5.963   3.037   1.848
94094SOL    HW284115   6.069   3.006   1.951
94095SOL     OW84116   6.434   4.612   4.282
94095SOL    HW184117   6.504   4.645   4.226
94095SOL    HW284118   6.478   4.586   4.363
94096SOL     OW84119   4.685   9.852   1.167
94096SOL    HW184120   4.721   9.920   1.224
94096SOL    HW284121   4.747   9.780   1.173
94097SOL     OW84122   7.970   9.068   1.030
94097SOL    HW184123   7.975   9.059   0.935
94097SOL    HW284124   7.879   9.089   1.048
94098SOL     OW84125  12.659  13.094  11.113
94098SOL    HW184126  12.637  13.153  11.185
94098SOL    HW284127  12.608  13.125  11.039
94099SOL     OW84128   5.223   8.469   9.697
94099SOL    HW184129   5.299   8.416   9.720
94099SOL    HW284130   5.251   8.519   9.621
94100SOL     OW84131   8.691   9.906   0.250
94100SOL    HW184132   8.650   9.862   0.325
94100SOL    HW284133   8.778   9.930   0.281
94101SOL     OW84134   2.312   2.307  10.239
94101SOL    HW184135   2.237   2.298  10.298
94101SOL    HW284136   2.316   2.401  10.220
94102SOL     OW84137  14.815  11.126  13.611
94102SOL    HW184138  14.791  11.074  13.534
94102SOL    HW284139  14.732  11.165  13.640
94103SOL     OW84140  14.381   1.401   4.716
94103SOL    HW184141  14.413   1.329   4.769
94103SOL    HW284142  14.422   1.389   4.631
94104SOL     OW84143   3.775  14.359   7.287
94104SOL    HW184144   3.807  14.280   7.330
94104SOL    HW284145   3.851  14.418   7.286
94105SOL     OW84146   5.765   0.276   3.238
94105SOL    HW184147   5.709   0.293   3.162
94105SOL    HW284148   5.848   0.247   3.200
94106SOL     OW84149   0.866   4.512   2.660
94106SOL    HW184150   0.961   4.510   2.668
94106SOL    HW284151   0.834   4.508   2.750
94107SOL     OW84152  10.309   5.433  12.126
94107SOL    HW184153  10.330   5.519  12.163
94107SOL    HW284154  10.305   5.449  12.031
94108SOL     OW84155   3.883   6.305   9.761
94108SOL    HW184156   3.978   6.299   9.745
94108SOL    HW284157   3.857   6.384   9.714
94109SOL     OW84158   2.636   0.134   5.062
94109SOL    HW184159   2.713   0.179   5.027
94109SOL    HW284160   2.661   0.042   5.067
94110SOL     OW84161   8.143   5.530   6.300
94110SOL    HW184162   8.207   5.601   6.304
94110SOL    HW284163   8.144   5.502   6.208
94111SOL     OW84164   4.575   3.721  14.288
94111SOL    HW184165   4.666   3.703  14.314
94111SOL    HW284166   4.553   3.803  14.331
94112SOL     OW84167   6.263  10.417  12.311
94112SOL    HW184168   6.179  10.419  12.265
94112SOL    HW284169   6.247  10.467  12.391
94113SOL     OW84170  10.145   0.490   7.879
94113SOL    HW184171  10.181   0.558   7.823
94113SOL    HW284172  10.200   0.492   7.958
94114SOL     OW84173  11.078  12.813   6.604
94114SOL    HW184174  11.123  12.730   6.619
94114SOL    HW284175  10.987  12.788   6.585
94115SOL     OW84176  13.612   8.606  12.703
94115SOL    HW184177  13.615   8.682  12.644
94115SOL    HW284178  13.542   8.627  12.765
94116SOL     OW84179   4.145  11.154   1.443
94116SOL    HW184180   4.068  11.116   1.401
94116SOL    HW284181   4.211  11.084   1.441
94117SOL     OW84182   4.663  11.740   8.241
94117SOL    HW184183   4.710  11.752   8.324
94117SOL    HW284184   4.579  11.785   8.255
94118SOL     OW84185   5.689  10.680   3.133
94118SOL    HW184186   5.704  10.593   3.095
94118SOL    HW284187   5.766  10.697   3.186
94119SOL     OW84188  12.417   8.376   6.775
94119SOL    HW184189  12.480   8.447   6.787
94119SOL    HW284190  12.459   8.300   6.816
94120SOL     OW84191  10.193   1.454  10.140
94120SOL    HW184192  10.122   1.518  10.147
94120SOL    HW284193  10.176   1.409  10.057
94121SOL     OW84194   4.026  11.322   4.440
94121SOL    HW184195   3.993  11.268   4.368
94121SOL    HW284196   4.110  11.282   4.464
94122SOL     OW84197  10.247   2.075  13.893
94122SOL    HW184198  10.173   2.111  13.942
94122SOL    HW284199  10.324   2.120  13.928
94123SOL     OW84200  12.681   3.399   6.353
94123SOL    HW184201  12.666   3.370   6.443
94123SOL    HW284202  12.653   3.491   6.352
94124SOL     OW84203   2.975  12.480  11.273
94124SOL    HW184204   2.992  12.399  11.321
94124SOL    HW284205   2.881  12.495  11.282
94125SOL     OW84206   1.113   0.611  11.492
94125SOL    HW184207   1.111   0.573  11.405
94125SOL    HW284208   1.205   0.628  11.509
94126SOL     OW84209   5.934   8.125   7.003
94126SOL    HW184210   5.992   8.194   6.971
94126SOL    HW284211   5.968   8.105   7.091
94127SOL     OW84212   2.284  13.303   0.033
94127SOL    HW184213   2.317  13.320   0.121
94127SOL    HW284214   2.224  13.230   0.044
94128SOL     OW84215   9.770   4.866   8.335
94128SOL    HW184216   9.755   4.960   8.334
94128SOL    HW284217   9.853   4.855   8.382
94129SOL     OW84218   3.414   7.858   0.405
94129SOL    HW184219   3.448   7.773   0.435
94129SOL    HW284220   3.395   7.906   0.485
94130SOL     OW84221  14.002   9.719   3.102
94130SOL    HW184222  13.969   9.807   3.079
94130SOL    HW284223  13.968   9.663   3.032
94131SOL     OW84224   9.512   0.009   7.122
94131SOL    HW184225   9.527  14.834   7.198
94131SOL    HW284226   9.535   0.096   7.153
94132SOL     OW84227  10.998   1.248   3.989
94132SOL    HW184228  11.017   1.192   4.064
94132SOL    HW284229  11.026   1.197   3.913
94133SOL     OW84230   8.688  11.166  13.069
94133SOL    HW184231   8.638  11.247  13.081
94133SOL    HW284232   8.634  11.098  13.111
94134SOL     OW84233   9.905   0.173   1.182
94134SOL    HW184234   9.814   0.148   1.162
94134SOL    HW284235   9.915   0.154   1.275
94135SOL     OW84236   2.350   5.179   0.297
94135SOL    HW184237   2.280   5.135   0.249
94135SOL    HW284238   2.417   5.195   0.231
94136SOL     OW84239   7.812  10.271  10.521
94136SOL    HW184240   7.833  10.337  10.587
94136SOL    HW284241   7.867  10.293  10.447
94137SOL     OW84242  12.800   7.030   1.446
94137SOL    HW184243  12.762   7.067   1.526
94137SOL    HW284244  12.894   7.038   1.459
94138SOL     OW84245   8.209  11.347   4.224
94138SOL    HW184246   8.262  11.283   4.271
94138SOL    HW284247   8.178  11.300   4.147
94139SOL     OW84248   5.683   4.024   3.739
94139SOL    HW184249   5.764   4.025   3.791
94139SOL    HW284250   5.710   4.060   3.654
94140SOL     OW84251  12.924  10.357   3.809
94140SOL    HW184252  13.015  10.348   3.840
94140SOL    HW284253  12.929  10.335   3.716
94141SOL     OW84254  12.140  11.971   2.133
94141SOL    HW184255  12.195  11.953   2.057
94141SOL    HW284256  12.179  11.918   2.203
94142SOL     OW84257   9.544  11.576   7.066
94142SOL    HW184258   9.534  11.530   6.983
94142SOL    HW284259   9.455  11.597   7.094
94143SOL     OW84260  12.741   9.418  11.267
94143SOL    HW184261  12.811   9.463  11.314
94143SOL    HW284262  12.661   9.463  11.293
94144SOL     OW84263   2.131   1.563   8.046
94144SOL    HW184264   2.162   1.479   8.011
94144SOL    HW284265   2.038   1.548   8.064
94145SOL     OW84266   8.357   7.149   1.385
94145SOL    HW184267   8.301   7.226   1.393
94145SOL    HW284268   8.296   7.076   1.375
94146SOL     OW84269   0.786   1.936   1.784
94146SOL    HW184270   0.809   2.010   1.728
94146SOL    HW284271   0.785   1.972   1.873
94147SOL     OW84272   8.370   6.611   7.130
94147SOL    HW184273   8.328   6.691   7.099
94147SOL    HW284274   8.445   6.642   7.182
94148SOL     OW84275   5.387   2.197   0.974
94148SOL    HW184276   5.402   2.220   0.882
94148SOL    HW284277   5.360   2.279   1.015
94149SOL     OW84278  11.230  14.475   2.402
94149SOL    HW184279  11.155  14.506   2.453
94149SOL    HW284280  11.264  14.401   2.451
94150SOL     OW84281   3.077  10.112  10.255
94150SOL    HW184282   3.051  10.127  10.164
94150SOL    HW284283   3.018  10.167  10.307
94151SOL     OW84284   4.618   7.162   0.123
94151SOL    HW184285   4.649   7.252   0.115
94151SOL    HW284286   4.626   7.142   0.216
94152SOL     OW84287   5.528   2.460  10.897
94152SOL    HW184288   5.583   2.521  10.946
94152SOL    HW284289   5.450   2.510  10.874
94153SOL     OW84290  10.374  11.189   2.427
94153SOL    HW184291  10.300  11.249   2.442
94153SOL    HW284292  10.437  11.210   2.495
94154SOL     OW84293   9.104   4.123  12.906
94154SOL    HW184294   9.111   4.049  12.847
94154SOL    HW284295   9.168   4.104  12.975
94155SOL     OW84296  13.132   0.659   2.376
94155SOL    HW184297  13.125   0.717   2.300
94155SOL    HW284298  13.192   0.590   2.348
94156SOL     OW84299   3.081   5.901  14.852
94156SOL    HW184300   3.092   5.816   0.013
94156SOL    HW284301   3.107   5.886  14.761
94157SOL     OW84302   9.330  10.354   1.311
94157SOL    HW184303   9.374  10.314   1.386
94157SOL    HW284304   9.309  10.281   1.253
94158SOL     OW84305  13.975   9.241   1.468
94158SOL    HW184306  14.061   9.241   1.510
94158SOL    HW284307  13.969   9.326   1.426
94159SOL     OW84308   9.736   5.390   0.153
94159SOL    HW184309   9.726   5.393   0.057
94159SOL    HW284310   9.659   5.342   0.184
94160SOL     OW84311   2.280  12.057  13.365
94160SOL    HW184312   2.304  12.147  13.387
94160SOL    HW284313   2.251  12.062  13.274
94161SOL     OW84314  11.338   9.726   9.110
94161SOL    HW184315  11.274   9.750   9.044
94161SOL    HW284316  11.314   9.636   9.135
94162SOL     OW84317   4.064  13.079  13.987
94162SOL    HW184318   4.081  12.987  13.966
94162SOL    HW284319   4.132  13.102  14.050
94163SOL     OW84320   1.688   0.408   8.090
94163SOL    HW184321   1.649   0.455   8.016
94163SOL    HW284322   1.668   0.462   8.166
94164SOL     OW84323   2.600  12.604  11.036
94164SOL    HW184324   2.621  12.695  11.016
94164SOL    HW284325   2.566  12.606  11.125
94165SOL     OW84326  13.869  14.420   3.955
94165SOL    HW184327  13.821  14.450   3.877
94165SOL    HW284328  13.846  14.328   3.963
94166SOL     OW84329  11.245  10.819  10.226
94166SOL    HW184330  11.213  10.730  10.215
94166SOL    HW284331  11.170  10.874  10.202
94167SOL     OW84332   8.253  13.142   5.946
94167SOL    HW184333   8.202  13.099   5.877
94167SOL    HW284334   8.201  13.129   6.025
94168SOL     OW84335   9.921   1.457   4.262
94168SOL    HW184336   9.866   1.381   4.245
94168SOL    HW284337   9.874   1.531   4.223
94169SOL     OW84338   8.120   1.367  13.791
94169SOL    HW184339   8.033   1.347  13.756
94169SOL    HW284340   8.177   1.366  13.714
94170SOL     OW84341  11.233   7.838  14.610
94170SOL    HW184342  11.267   7.927  14.597
94170SOL    HW284343  11.204   7.837  14.701
94171SOL     OW84344   2.031   7.325   2.605
94171SOL    HW184345   2.046   7.320   2.700
94171SOL    HW284346   1.970   7.253   2.587
94172SOL     OW84347   6.573  14.554   4.595
94172SOL    HW184348   6.616  14.473   4.569
94172SOL    HW284349   6.486  14.526   4.624
94173SOL     OW84350   3.544   9.659   6.357
94173SOL    HW184351   3.562   9.693   6.269
94173SOL    HW284352   3.581   9.725   6.416
94174SOL     OW84353  11.581   0.813   2.362
94174SOL    HW184354  11.651   0.789   2.301
94174SOL    HW284355  11.578   0.739   2.424
94175SOL     OW84356   7.547   0.437   6.230
94175SOL    HW184357   7.593   0.461   6.310
94175SOL    HW284358   7.614   0.440   6.162
94176SOL     OW84359  12.647  10.659  14.704
94176SOL    HW184360  12.567  10.675  14.755
94176SOL    HW284361  12.706  10.616  14.766
94177SOL     OW84362   4.024   8.929   2.145
94177SOL    HW184363   3.957   8.988   2.181
94177SOL    HW284364   4.103   8.949   2.195
94178SOL     OW84365   8.132   2.200  12.779
94178SOL    HW184366   8.087   2.284  12.767
94178SOL    HW284367   8.134   2.161  12.692
94179SOL     OW84368   2.890  12.194   3.946
94179SOL    HW184369   2.895  12.128   4.014
94179SOL    HW284370   2.981  12.207   3.919
94180SOL     OW84371   7.320   2.398  10.879
94180SOL    HW184372   7.369   2.320  10.855
94180SOL    HW284373   7.270   2.372  10.957
94181SOL     OW84374   4.095   6.845   4.854
94181SOL    HW184375   4.059   6.762   4.886
94181SOL    HW284376   4.189   6.831   4.851
94182SOL     OW84377  10.065   6.642  13.028
94182SOL    HW184378  10.102   6.582  12.963
94182SOL    HW284379  10.030   6.714  12.977
94183SOL     OW84380  12.855   6.846   5.536
94183SOL    HW184381  12.884   6.863   5.625
94183SOL    HW284382  12.935   6.825   5.488
94184SOL     OW84383   2.562   7.140   2.811
94184SOL    HW184384   2.512   7.211   2.852
94184SOL    HW284385   2.601   7.092   2.885
94185SOL     OW84386  10.743   1.915  14.409
94185SOL    HW184387  10.805   1.955  14.348
94185SOL    HW284388  10.669   1.975  14.412
94186SOL     OW84389   9.899  11.972   4.823
94186SOL    HW184390   9.804  11.983   4.826
94186SOL    HW284391   9.934  12.061   4.822
94187SOL     OW84392   8.359  14.535   1.947
94187SOL    HW184393   8.391  14.576   1.866
94187SOL    HW284394   8.393  14.591   2.017
94188SOL     OW84395   2.713   1.005  14.325
94188SOL    HW184396   2.746   1.083  14.369
94188SOL    HW284397   2.739   0.932  14.382
94189SOL     OW84398  10.678  13.410   9.986
94189SOL    HW184399  10.631  13.381   9.908
94189SOL    HW284400  10.660  13.504   9.992
94190SOL     OW84401   8.206   1.413   5.438
94190SOL    HW184402   8.196   1.492   5.491
94190SOL    HW284403   8.124   1.406   5.390
94191SOL     OW84404  10.836   7.923   8.083
94191SOL    HW184405  10.771   7.976   8.037
94191SOL    HW284406  10.870   7.981   8.151
94192SOL     OW84407   7.256  10.685   5.946
94192SOL    HW184408   7.182  10.626   5.932
94192SOL    HW284409   7.323  10.655   5.885
94193SOL     OW84410   7.918   0.940   8.814
94193SOL    HW184411   7.982   0.879   8.777
94193SOL    HW284412   7.836   0.891   8.814
94194SOL     OW84413  14.379  12.108  10.445
94194SOL    HW184414  14.340  12.128  10.359
94194SOL    HW284415  14.310  12.131  10.508
94195SOL     OW84416  13.058  13.589   9.637
94195SOL    HW184417  13.015  13.623   9.559
94195SOL    HW284418  13.064  13.495   9.622
94196SOL     OW84419   3.678   3.149  14.482
94196SOL    HW184420   3.733   3.174  14.408
94196SOL    HW284421   3.723   3.074  14.520
94197SOL     OW84422   3.748   0.423   2.853
94197SOL    HW184423   3.749   0.360   2.781
94197SOL    HW284424   3.837   0.420   2.889
94198SOL     OW84425   8.061   2.686  10.901
94198SOL    HW184426   8.092   2.602  10.935
94198SOL    HW284427   7.966   2.682  10.909
94199SOL     OW84428   6.767   4.504   7.690
94199SOL    HW184429   6.725   4.433   7.739
94199SOL    HW284430   6.815   4.458   7.620
94200SOL     OW84431  11.729   8.901   6.755
94200SOL    HW184432  11.684   8.833   6.705
94200SOL    HW284433  11.821   8.876   6.752
94201SOL     OW84434   0.324  13.890  12.580
94201SOL    HW184435   0.393  13.833  12.614
94201SOL    HW284436   0.366  13.976  12.572
94202SOL     OW84437   4.748   0.822  11.558
94202SOL    HW184438   4.683   0.785  11.617
94202SOL    HW284439   4.697   0.863  11.488
94203SOL     OW84440   2.990  10.794  12.954
94203SOL    HW184441   2.916  10.787  13.015
94203SOL    HW284442   3.063  10.823  13.009
94204SOL     OW84443   4.827   5.140   9.549
94204SOL    HW184444   4.850   5.139   9.642
94204SOL    HW284445   4.733   5.124   9.547
94205SOL     OW84446  12.803   0.409   1.745
94205SOL    HW184447  12.866   0.476   1.718
94205SOL    HW284448  12.815   0.338   1.681
94206SOL     OW84449  10.286   2.996  13.186
94206SOL    HW184450  10.362   3.002  13.127
94206SOL    HW284451  10.256   2.906  13.176
94207SOL     OW84452   3.547   0.341   5.669
94207SOL    HW184453   3.615   0.408   5.668
94207SOL    HW284454   3.595   0.258   5.671
94208SOL     OW84455   4.146  11.058   4.721
94208SOL    HW184456   4.138  10.963   4.735
94208SOL    HW284457   4.173  11.093   4.805
94209SOL     OW84458   7.736  13.977  14.784
94209SOL    HW184459   7.705  14.067  14.797
94209SOL    HW284460   7.707  13.954  14.695
94210SOL     OW84461   4.689  11.120   4.967
94210SOL    HW184462   4.678  11.187   4.900
94210SOL    HW284463   4.607  11.071   4.966
94211SOL     OW84464   6.060  12.352   3.862
94211SOL    HW184465   6.069  12.257   3.852
94211SOL    HW284466   6.141  12.380   3.904
94212SOL     OW84467   8.491   6.797  10.985
94212SOL    HW184468   8.571   6.773  10.937
94212SOL    HW284469   8.433   6.831  10.917
94213SOL     OW84470   0.560   6.882  13.060
94213SOL    HW184471   0.652   6.907  13.067
94213SOL    HW284472   0.516   6.961  13.026
94214SOL     OW84473   7.845  14.867  12.863
94214SOL    HW184474   7.780   0.052  12.842
94214SOL    HW284475   7.823  14.838  12.951
94215SOL     OW84476   0.106   5.329   4.763
94215SOL    HW184477   0.022   5.372   4.776
94215SOL    HW284478   0.131   5.351   4.673
94216SOL     OW84479   8.990  12.465   9.614
94216SOL    HW184480   8.977  12.484   9.520
94216SOL    HW284481   8.967  12.547   9.658
94217SOL     OW84482   7.673   6.187   7.733
94217SOL    HW184483   7.605   6.141   7.684
94217SOL    HW284484   7.725   6.117   7.773
94218SOL     OW84485   6.131  12.854   7.351
94218SOL    HW184486   6.170  12.933   7.314
94218SOL    HW284487   6.056  12.835   7.294
94219SOL     OW84488  12.538   8.849   8.300
94219SOL    HW184489  12.558   8.938   8.270
94219SOL    HW284490  12.595   8.836   8.375
94220SOL     OW84491   7.711   6.143   3.356
94220SOL    HW184492   7.650   6.131   3.283
94220SOL    HW284493   7.664   6.201   3.416
94221SOL     OW84494  14.128  11.596   3.472
94221SOL    HW184495  14.195  11.595   3.541
94221SOL    HW284496  14.072  11.670   3.494
94222SOL     OW84497  11.591   5.389  13.488
94222SOL    HW184498  11.608   5.305  13.531
94222SOL    HW284499  11.678   5.427  13.474
94223SOL     OW84500   1.682   5.393   9.617
94223SOL    HW184501   1.695   5.411   9.711
94223SOL    HW284502   1.630   5.312   9.615
94224SOL     OW84503  10.532   4.082   0.730
94224SOL    HW184504  10.445   4.120   0.721
94224SOL    HW284505  10.534   4.011   0.665
94225SOL     OW84506   9.129   8.030   9.850
94225SOL    HW184507   9.096   8.099   9.793
94225SOL    HW284508   9.224   8.040   9.847
94226SOL     OW84509   3.995   7.613   5.231
94226SOL    HW184510   4.045   7.694   5.218
94226SOL    HW284511   4.037   7.549   5.174
94227SOL     OW84512   3.729  11.357   9.815
94227SOL    HW184513   3.759  11.401   9.895
94227SOL    HW284514   3.730  11.264   9.837
94228SOL     OW84515   8.107  11.317  10.514
94228SOL    HW184516   8.160  11.339  10.591
94228SOL    HW284517   8.067  11.400  10.489
94229SOL     OW84518   6.534  10.003  11.786
94229SOL    HW184519   6.439   9.997  11.781
94229SOL    HW284520   6.550  10.052  11.867
94230SOL     OW84521   4.872  11.967   0.301
94230SOL    HW184522   4.797  11.958   0.243
94230SOL    HW284523   4.939  12.009   0.247
94231SOL     OW84524   9.873   0.182   2.701
94231SOL    HW184525   9.911   0.206   2.785
94231SOL    HW284526   9.784   0.153   2.722
94232SOL     OW84527  13.722   0.303   1.987
94232SOL    HW184528  13.803   0.272   1.946
94232SOL    HW284529  13.746   0.387   2.026
94233SOL     OW84530   8.411   5.641   6.202
94233SOL    HW184531   8.494   5.607   6.169
94233SOL    HW284532   8.369   5.680   6.125
94234SOL     OW84533   6.271   9.177  10.359
94234SOL    HW184534   6.317   9.107  10.313
94234SOL    HW284535   6.207   9.132  10.414
94235SOL     OW84536  12.884   4.924  10.020
94235SOL    HW184537  12.821   4.853  10.032
94235SOL    HW284538  12.902   4.956  10.108
94236SOL     OW84539  14.070   8.273   6.137
94236SOL    HW184540  14.128   8.282   6.213
94236SOL    HW284541  14.052   8.363   6.109
94237SOL     OW84542   4.425   7.886   2.087
94237SOL    HW184543   4.473   7.968   2.099
94237SOL    HW284544   4.333   7.913   2.083
94238SOL     OW84545   8.935  11.721   6.417
94238SOL    HW184546   8.906  11.731   6.507
94238SOL    HW284547   8.872  11.660   6.378
94239SOL     OW84548  12.568   3.111  12.654
94239SOL    HW184549  12.550   3.187  12.600
94239SOL    HW284550  12.601   3.045  12.593
94240SOL     OW84551   7.613  11.907   0.093
94240SOL    HW184552   7.531  11.922   0.139
94240SOL    HW284553   7.597  11.936   0.004
94241SOL     OW84554   8.794  14.630   4.366
94241SOL    HW184555   8.886  14.606   4.373
94241SOL    HW284556   8.750  14.551   4.335
94242SOL     OW84557   6.059   1.055  12.198
94242SOL    HW184558   5.978   1.009  12.175
94242SOL    HW284559   6.092   1.089  12.115
94243SOL     OW84560  10.891   6.938   9.262
94243SOL    HW184561  10.887   6.946   9.167
94243SOL    HW284562  10.913   7.026   9.293
94244SOL     OW84563   2.393  10.992  10.645
94244SOL    HW184564   2.332  10.922  10.620
94244SOL    HW284565   2.375  11.063  10.584
94245SOL     OW84566  10.620   8.116   1.784
94245SOL    HW184567  10.642   8.130   1.692
94245SOL    HW284568  10.545   8.057   1.783
94246SOL     OW84569   9.627   1.780  11.228
94246SOL    HW184570   9.701   1.834  11.254
94246SOL    HW284571   9.664   1.692  11.219
94247SOL     OW84572   6.875   4.718   6.540
94247SOL    HW184573   6.871   4.636   6.490
94247SOL    HW284574   6.932   4.697   6.614
94248SOL     OW84575  13.501  12.908   3.082
94248SOL    HW184576  13.431  12.845   3.095
94248SOL    HW284577  13.565  12.862   3.028
94249SOL     OW84578   2.614  10.008   9.143
94249SOL    HW184579   2.688   9.973   9.093
94249SOL    HW284580   2.537   9.970   9.100
94250SOL     OW84581   6.926   5.577  12.464
94250SOL    HW184582   6.949   5.494  12.422
94250SOL    HW284583   6.957   5.569  12.554
94251SOL     OW84584   7.053   5.346  12.404
94251SOL    HW184585   7.144   5.343  12.432
94251SOL    HW284586   7.025   5.254  12.401
94252SOL     OW84587   8.352  13.766   9.849
94252SOL    HW184588   8.391  13.693   9.800
94252SOL    HW284589   8.262  13.772   9.815
94253SOL     OW84590  10.011   8.918   0.026
94253SOL    HW184591  10.028   8.869  14.827
94253SOL    HW284592   9.916   8.924   0.031
94254SOL     OW84593   8.625   3.588   3.500
94254SOL    HW184594   8.674   3.649   3.446
94254SOL    HW284595   8.541   3.630   3.515
94255SOL     OW84596   2.858  14.259  10.455
94255SOL    HW184597   2.920  14.249  10.527
94255SOL    HW284598   2.912  14.268  10.377
94256SOL     OW84599  12.618   9.686   2.751
94256SOL    HW184600  12.686   9.706   2.687
94256SOL    HW284601  12.617   9.590   2.756
94257SOL     OW84602   5.233  14.302   5.598
94257SOL    HW184603   5.228  14.246   5.676
94257SOL    HW284604   5.166  14.370   5.613
94258SOL     OW84605   5.823   0.211   0.362
94258SOL    HW184606   5.832   0.126   0.318
94258SOL    HW284607   5.881   0.205   0.438
94259SOL     OW84608   0.675   2.292   5.828
94259SOL    HW184609   0.650   2.241   5.906
94259SOL    HW284610   0.770   2.298   5.833
94260SOL     OW84611  14.055   4.999   1.764
94260SOL    HW184612  14.001   4.949   1.704
94260SOL    HW284613  14.072   4.939   1.837
94261SOL     OW84614   6.671   9.407   2.629
94261SOL    HW184615   6.707   9.333   2.679
94261SOL    HW284616   6.715   9.402   2.544
94262SOL     OW84617  12.482   2.409  11.708
94262SOL    HW184618  12.529   2.476  11.757
94262SOL    HW284619  12.482   2.332  11.766
94263SOL     OW84620   1.876   2.290  12.369
94263SOL    HW184621   1.957   2.251  12.335
94263SOL    HW284622   1.836   2.333  12.294
94264SOL     OW84623   3.981   2.988   0.995
94264SOL    HW184624   3.955   2.947   0.912
94264SOL    HW284625   4.072   3.012   0.982
94265SOL     OW84626  10.953  10.051   4.090
94265SOL    HW184627  10.940   9.980   4.153
94265SOL    HW284628  10.984  10.006   4.011
94266SOL     OW84629   3.880   2.591   3.859
94266SOL    HW184630   3.946   2.580   3.791
94266SOL    HW284631   3.812   2.527   3.837
94267SOL     OW84632   5.477   3.465  11.567
94267SOL    HW184633   5.448   3.460  11.659
94267SOL    HW284634   5.571   3.451  11.571
94268SOL     OW84635  10.381   2.194   1.689
94268SOL    HW184636  10.286   2.195   1.701
94268SOL    HW284637  10.393   2.205   1.595
94269SOL     OW84638   1.034   1.339  13.891
94269SOL    HW184639   1.062   1.318  13.980
94269SOL    HW284640   0.992   1.424  13.898
94270SOL     OW84641   0.549   1.821  14.645
94270SOL    HW184642   0.607   1.796  14.717
94270SOL    HW284643   0.544   1.916  14.650
94271SOL     OW84644   7.396   6.690   2.078
94271SOL    HW184645   7.425   6.722   2.164
94271SOL    HW284646   7.407   6.595   2.083
94272SOL     OW84647   1.663  10.874   6.431
94272SOL    HW184648   1.755  10.900   6.423
94272SOL    HW284649   1.666  10.790   6.477
94273SOL     OW84650   0.285  13.809   7.323
94273SOL    HW184651   0.274  13.722   7.361
94273SOL    HW284652   0.230  13.866   7.377
94274SOL     OW84653   4.093   1.674   1.865
94274SOL    HW184654   4.098   1.579   1.869
94274SOL    HW284655   4.175   1.703   1.906
94275SOL     OW84656   4.969   9.560   2.788
94275SOL    HW184657   4.874   9.554   2.790
94275SOL    HW284658   4.994   9.581   2.878
94276SOL     OW84659  12.661  12.963   8.183
94276SOL    HW184660  12.654  13.056   8.161
94276SOL    HW284661  12.629  12.957   8.273
94277SOL     OW84662   8.057  13.126   4.523
94277SOL    HW184663   7.983  13.119   4.583
94277SOL    HW284664   8.107  13.201   4.554
94278SOL     OW84665   1.213   0.868  14.100
94278SOL    HW184666   1.263   0.811  14.042
94278SOL    HW284667   1.179   0.937  14.043
94279SOL     OW84668   6.264   1.458   1.543
94279SOL    HW184669   6.280   1.540   1.589
94279SOL    HW284670   6.168   1.452   1.537
94280SOL     OW84671  12.852  13.367   7.603
94280SOL    HW184672  12.867  13.360   7.509
94280SOL    HW284673  12.797  13.445   7.613
94281SOL     OW84674  10.607  12.114  14.696
94281SOL    HW184675  10.517  12.146  14.697
94281SOL    HW284676  10.658  12.186  14.660
94282SOL     OW84677   0.867  12.201   0.162
94282SOL    HW184678   0.824  12.131   0.113
94282SOL    HW284679   0.924  12.155   0.224
94283SOL     OW84680   6.939   0.309   1.931
94283SOL    HW184681   6.868   0.304   1.995
94283SOL    HW284682   6.963   0.401   1.928
94284SOL     OW84683  14.496  13.002   9.489
94284SOL    HW184684  14.413  12.973   9.527
94284SOL    HW284685  14.496  12.965   9.401
94285SOL     OW84686   5.327  10.067  11.966
94285SOL    HW184687   5.275  10.019  12.030
94285SOL    HW284688   5.262  10.104  11.906
94286SOL     OW84689  14.314   8.095  11.553
94286SOL    HW184690  14.367   8.132  11.624
94286SOL    HW284691  14.228   8.133  11.565
94287SOL     OW84692   3.270  11.747   2.630
94287SOL    HW184693   3.188  11.705   2.605
94287SOL    HW284694   3.282  11.818   2.567
94288SOL     OW84695   6.868   8.756  12.216
94288SOL    HW184696   6.807   8.810  12.266
94288SOL    HW284697   6.823   8.673  12.205
94289SOL     OW84698  12.615   4.027  11.942
94289SOL    HW184699  12.532   4.071  11.960
94289SOL    HW284700  12.590   3.938  11.919
94290SOL     OW84701   5.031  12.805   6.119
94290SOL    HW184702   5.048  12.713   6.097
94290SOL    HW284703   4.984  12.839   6.043
94291SOL     OW84704   6.159   4.025   8.973
94291SOL    HW184705   6.203   4.013   9.057
94291SOL    HW284706   6.192   4.108   8.940
94292SOL     OW84707   3.180  14.670   2.132
94292SOL    HW184708   3.096  14.681   2.088
94292SOL    HW284709   3.170  14.720   2.213
94293SOL     OW84710   3.107   7.811  13.983
94293SOL    HW184711   3.023   7.855  13.994
94293SOL    HW284712   3.106   7.739  14.046
94294SOL     OW84713  13.234  14.805  11.298
94294SOL    HW184714  13.196  14.731  11.346
94294SOL    HW284715  13.327  14.783  11.291
94295SOL     OW84716  11.635  11.420   2.504
94295SOL    HW184717  11.718  11.468   2.508
94295SOL    HW284718  11.646  11.348   2.567
94296SOL     OW84719   9.285  10.140  14.765
94296SOL    HW184720   9.263  10.233  14.756
94296SOL    HW284721   9.210  10.094  14.727
94297SOL     OW84722   4.162   4.731  10.021
94297SOL    HW184723   4.247   4.694  10.000
94297SOL    HW284724   4.147   4.797   9.954
94298SOL     OW84725   8.538   4.151   8.037
94298SOL    HW184726   8.464   4.091   8.027
94298SOL    HW284727   8.614   4.101   8.007
94299SOL     OW84728   3.462   3.493   5.587
94299SOL    HW184729   3.442   3.424   5.650
94299SOL    HW284730   3.543   3.533   5.621
94300SOL     OW84731  11.934   8.160   8.137
94300SOL    HW184732  11.968   8.136   8.224
94300SOL    HW284733  11.971   8.094   8.078
94301SOL     OW84734  13.867   6.477   3.329
94301SOL    HW184735  13.910   6.474   3.414
94301SOL    HW284736  13.901   6.400   3.282
94302SOL     OW84737   3.221   3.628   5.641
94302SOL    HW184738   3.213   3.723   5.648
94302SOL    HW284739   3.310   3.614   5.608
94303SOL     OW84740  11.797   6.633   4.380
94303SOL    HW184741  11.846   6.706   4.344
94303SOL    HW284742  11.708   6.666   4.391
94304SOL     OW84743  10.475   1.377  10.018
94304SOL    HW184744  10.439   1.348   9.934
94304SOL    HW284745  10.536   1.447   9.996
94305SOL     OW84746  14.605   6.341   8.242
94305SOL    HW184747  14.667   6.413   8.232
94305SOL    HW284748  14.655   6.263   8.215
94306SOL     OW84749  13.775   4.374  13.350
94306SOL    HW184750  13.773   4.285  13.316
94306SOL    HW284751  13.682   4.399  13.356
94307SOL     OW84752  12.343   3.914  11.094
94307SOL    HW184753  12.342   3.953  11.007
94307SOL    HW284754  12.259   3.870  11.102
94308SOL     OW84755   7.265   2.266  10.202
94308SOL    HW184756   7.196   2.320  10.241
94308SOL    HW284757   7.247   2.177  10.233
94309SOL     OW84758   3.679  12.697  14.525
94309SOL    HW184759   3.638  12.653  14.600
94309SOL    HW284760   3.725  12.627  14.478
94310SOL     OW84761   9.590   7.386   3.227
94310SOL    HW184762   9.554   7.439   3.298
94310SOL    HW284763   9.515   7.368   3.170
94311SOL     OW84764   2.681   0.278   4.131
94311SOL    HW184765   2.718   0.342   4.192
94311SOL    HW284766   2.730   0.197   4.149
94312SOL     OW84767  14.267  10.858   5.593
94312SOL    HW184768  14.183  10.904   5.590
94312SOL    HW284769  14.332  10.928   5.588
94313SOL     OW84770  10.558  10.018   4.105
94313SOL    HW184771  10.626  10.055   4.161
94313SOL    HW284772  10.479  10.066   4.128
94314SOL     OW84773   8.725  12.048   5.301
94314SOL    HW184774   8.647  12.045   5.358
94314SOL    HW284775   8.780  12.115   5.340
94315SOL     OW84776   5.492   4.660  12.235
94315SOL    HW184777   5.485   4.673  12.140
94315SOL    HW284778   5.408   4.620  12.259
94316SOL     OW84779   8.452  14.568   9.687
94316SOL    HW184780   8.465  14.596   9.596
94316SOL    HW284781   8.381  14.504   9.683
94317SOL     OW84782   4.780  14.810   3.532
94317SOL    HW184783   4.813  14.818   3.621
94317SOL    HW284784   4.828  14.737   3.494
94318SOL     OW84785   2.136   3.837   5.890
94318SOL    HW184786   2.138   3.901   5.962
94318SOL    HW284787   2.186   3.762   5.923
94319SOL     OW84788   2.924   0.065   2.326
94319SOL    HW184789   2.853   0.107   2.277
94319SOL    HW284790   2.899  14.855   2.330
94320SOL     OW84791   1.099   8.044  14.567
94320SOL    HW184792   1.028   8.097  14.604
94320SOL    HW284793   1.175   8.102  14.568
94321SOL     OW84794   2.604   8.493   5.077
94321SOL    HW184795   2.629   8.580   5.109
94321SOL    HW284796   2.535   8.510   5.013
94322SOL     OW84797   2.470  11.945  14.475
94322SOL    HW184798   2.463  12.036  14.446
94322SOL    HW284799   2.459  11.894  14.395
94323SOL     OW84800   1.546   1.583  11.599
94323SOL    HW184801   1.550   1.488  11.593
94323SOL    HW284802   1.585   1.604  11.684
94324SOL     OW84803  12.288   4.647   8.482
94324SOL    HW184804  12.370   4.682   8.447
94324SOL    HW284805  12.229   4.642   8.407
94325SOL     OW84806   0.642  13.985  14.456
94325SOL    HW184807   0.620  14.000  14.548
94325SOL    HW284808   0.558  13.973  14.413
94326SOL     OW84809   9.131   6.861   7.210
94326SOL    HW184810   9.107   6.934   7.154
94326SOL    HW284811   9.140   6.787   7.150
94327SOL     OW84812   3.512  14.025   6.834
94327SOL    HW184813   3.433  14.074   6.858
94327SOL    HW284814   3.509  14.019   6.739
94328SOL     OW84815  11.692   4.977  13.009
94328SOL    HW184816  11.729   4.946  13.092
94328SOL    HW284817  11.729   4.918  12.943
94329SOL     OW84818   7.315   1.317  13.865
94329SOL    HW184819   7.276   1.248  13.811
94329SOL    HW284820   7.404   1.327  13.829
94330SOL     OW84821   7.829   0.404   9.323
94330SOL    HW184822   7.780   0.336   9.276
94330SOL    HW284823   7.770   0.431   9.393
94331SOL     OW84824   9.491   5.218   7.605
94331SOL    HW184825   9.471   5.198   7.697
94331SOL    HW284826   9.549   5.294   7.610
94332SOL     OW84827  10.786   5.022   7.449
94332SOL    HW184828  10.780   5.118   7.446
94332SOL    HW284829  10.723   4.997   7.518
94333SOL     OW84830   8.695   6.576  14.260
94333SOL    HW184831   8.699   6.505  14.324
94333SOL    HW284832   8.758   6.552  14.192
94334SOL     OW84833   3.060   3.200   3.751
94334SOL    HW184834   3.050   3.289   3.714
94334SOL    HW284835   2.976   3.183   3.794
94335SOL     OW84836   7.074   2.159  10.764
94335SOL    HW184837   7.110   2.098  10.699
94335SOL    HW284838   7.151   2.196  10.807
94336SOL     OW84839  10.372   5.440   2.744
94336SOL    HW184840  10.295   5.387   2.765
94336SOL    HW284841  10.436   5.376   2.713
94337SOL     OW84842   0.423   0.010   1.811
94337SOL    HW184843   0.436  14.871   1.903
94337SOL    HW284844   0.413   0.105   1.808
94338SOL     OW84845   4.598   2.517   2.318
94338SOL    HW184846   4.537   2.572   2.269
94338SOL    HW284847   4.547   2.439   2.340
94339SOL     OW84848   0.312   7.976   6.957
94339SOL    HW184849   0.363   7.972   6.876
94339SOL    HW284850   0.224   7.946   6.931
94340SOL     OW84851   8.386   5.216  11.094
94340SOL    HW184852   8.293   5.236  11.088
94340SOL    HW284853   8.430   5.301  11.080
94341SOL     OW84854   5.769   2.227   4.158
94341SOL    HW184855   5.729   2.190   4.237
94341SOL    HW284856   5.727   2.180   4.086
94342SOL     OW84857   5.213  13.953   0.163
94342SOL    HW184858   5.271  13.999   0.224
94342SOL    HW284859   5.198  14.016   0.092
94343SOL     OW84860  11.256   2.491   2.774
94343SOL    HW184861  11.306   2.476   2.694
94343SOL    HW284862  11.264   2.409   2.823
94344SOL     OW84863   8.262  13.333   7.703
94344SOL    HW184864   8.303  13.251   7.676
94344SOL    HW284865   8.330  13.379   7.752
94345SOL     OW84866   4.203   3.096  11.687
94345SOL    HW184867   4.178   3.183  11.655
94345SOL    HW284868   4.187   3.038  11.612
94346SOL     OW84869   4.732   5.741  11.752
94346SOL    HW184870   4.803   5.746  11.816
94346SOL    HW284871   4.712   5.832  11.732
94347SOL     OW84872   8.349  11.776  14.789
94347SOL    HW184873   8.272  11.734  14.749
94347SOL    HW284874   8.335  11.870  14.774
94348SOL     OW84875   6.445   9.981   4.799
94348SOL    HW184876   6.502  10.040   4.849
94348SOL    HW284877   6.493   9.966   4.717
94349SOL     OW84878  10.633  14.405   6.965
94349SOL    HW184879  10.654  14.494   6.995
94349SOL    HW284880  10.695  14.390   6.893
94350SOL     OW84881   4.314   2.387   0.066
94350SOL    HW184882   4.386   2.451   0.064
94350SOL    HW284883   4.242   2.434   0.108
94351SOL     OW84884   3.000  13.273   4.959
94351SOL    HW184885   2.939  13.209   4.923
94351SOL    HW284886   3.065  13.287   4.890
94352SOL     OW84887  14.629   4.703   6.698
94352SOL    HW184888  14.589   4.790   6.698
94352SOL    HW284889  14.677   4.699   6.615
94353SOL     OW84890  13.632  10.840  14.780
94353SOL    HW184891  13.613  10.840  14.686
94353SOL    HW284892  13.665  10.927  14.799
94354SOL     OW84893  11.860   3.124  13.373
94354SOL    HW184894  11.917   3.054  13.342
94354SOL    HW284895  11.818   3.087  13.451
94355SOL     OW84896   4.266   3.047  10.904
94355SOL    HW184897   4.328   3.105  10.861
94355SOL    HW284898   4.291   2.960  10.876
94356SOL     OW84899  10.575   4.973   7.633
94356SOL    HW184900  10.547   4.882   7.643
94356SOL    HW284901  10.512   5.022   7.686
94357SOL     OW84902  13.373   7.517   7.693
94357SOL    HW184903  13.325   7.564   7.626
94357SOL    HW284904  13.306   7.470   7.742
94358SOL     OW84905   6.058   9.436   4.707
94358SOL    HW184906   6.089   9.357   4.662
94358SOL    HW284907   6.137   9.488   4.720
94359SOL     OW84908   0.686  14.219  13.265
94359SOL    HW184909   0.757  14.202  13.203
94359SOL    HW284910   0.609  14.234  13.210
94360SOL     OW84911  12.969   3.833   4.943
94360SOL    HW184912  12.879   3.863   4.958
94360SOL    HW284913  12.959   3.742   4.913
94361SOL     OW84914   8.153  14.192   6.826
94361SOL    HW184915   8.076  14.175   6.879
94361SOL    HW284916   8.146  14.130   6.753
94362SOL     OW84917   1.361  11.589  13.385
94362SOL    HW184918   1.434  11.572  13.445
94362SOL    HW284919   1.284  11.593  13.441
94363SOL     OW84920  14.455   9.031   0.092
94363SOL    HW184921  14.416   8.996   0.011
94363SOL    HW284922  14.547   9.046   0.070
94364SOL     OW84923  11.983   6.734   9.349
94364SOL    HW184924  12.062   6.749   9.297
94364SOL    HW284925  11.994   6.645   9.383
94365SOL     OW84926   2.543  10.923   3.226
94365SOL    HW184927   2.548  10.844   3.171
94365SOL    HW284928   2.520  10.891   3.313
94366SOL     OW84929   2.082   9.953  10.202
94366SOL    HW184930   2.002   9.962  10.150
94366SOL    HW284931   2.153   9.952  10.137
94367SOL     OW84932  11.072   9.310  11.791
94367SOL    HW184933  11.092   9.219  11.812
94367SOL    HW284934  11.156   9.356  11.796
94368SOL     OW84935  12.797   6.997  11.068
94368SOL    HW184936  12.872   7.040  11.109
94368SOL    HW284937  12.802   6.906  11.098
94369SOL     OW84938  14.309  11.941   4.942
94369SOL    HW184939  14.345  11.941   5.030
94369SOL    HW284940  14.256  12.020   4.939
94370SOL     OW84941  12.069   1.543   9.914
94370SOL    HW184942  12.156   1.565   9.945
94370SOL    HW284943  12.083   1.486   9.838
94371SOL     OW84944   7.233   2.093   0.392
94371SOL    HW184945   7.312   2.047   0.365
94371SOL    HW284946   7.186   2.030   0.447
94372SOL     OW84947  11.520   5.169   0.545
94372SOL    HW184948  11.541   5.078   0.562
94372SOL    HW284949  11.425   5.174   0.554
94373SOL     OW84950   8.961   0.880   9.829
94373SOL    HW184951   9.010   0.903   9.750
94373SOL    HW284952   8.959   0.961   9.880
94374SOL     OW84953  10.802   1.609  11.778
94374SOL    HW184954  10.738   1.648  11.838
94374SOL    HW284955  10.750   1.575  11.705
94375SOL     OW84956   5.917  10.504   7.713
94375SOL    HW184957   5.916  10.410   7.700
94375SOL    HW284958   5.967  10.538   7.639
94376SOL     OW84959   9.016   9.906  12.562
94376SOL    HW184960   9.051   9.961  12.492
94376SOL    HW284961   9.045   9.947  12.643
94377SOL     OW84962  10.525   5.386  10.150
94377SOL    HW184963  10.525   5.449  10.223
94377SOL    HW284964  10.511   5.440  10.072
94378SOL     OW84965   5.348   2.991   0.719
94378SOL    HW184966   5.439   2.969   0.696
94378SOL    HW284967   5.295   2.934   0.663
94379SOL     OW84968  10.207   7.145   6.948
94379SOL    HW184969  10.169   7.225   6.984
94379SOL    HW284970  10.131   7.092   6.924
94380SOL     OW84971   6.112   3.485   2.192
94380SOL    HW184972   6.131   3.397   2.159
94380SOL    HW284973   6.043   3.518   2.135
94381SOL     OW84974   1.236   8.993  10.053
94381SOL    HW184975   1.231   8.898  10.046
94381SOL    HW284976   1.256   9.023   9.964
94382SOL     OW84977   1.739   5.126   0.385
94382SOL    HW184978   1.646   5.106   0.388
94382SOL    HW284979   1.748   5.208   0.434
94383SOL     OW84980  13.093   0.293  12.407
94383SOL    HW184981  13.188   0.282  12.403
94383SOL    HW284982  13.058   0.212  12.371
94384SOL     OW84983  10.124  14.738  14.754
94384SOL    HW184984  10.058  14.773  14.694
94384SOL    HW284985  10.130  14.645  14.733
94385SOL     OW84986  12.954  13.615  10.595
94385SOL    HW184987  12.903  13.684  10.638
94385SOL    HW284988  12.890  13.568  10.542
94386SOL     OW84989   3.391  14.374  13.634
94386SOL    HW184990   3.470  14.363  13.686
94386SOL    HW284991   3.408  14.324  13.554
94387SOL     OW84992   2.395   9.867   9.057
94387SOL    HW184993   2.451   9.803   9.012
94387SOL    HW284994   2.309   9.826   9.059
94388SOL     OW84995   5.513   0.064  10.555
94388SOL    HW184996   5.609   0.065  10.552
94388SOL    HW284997   5.492  14.871  10.610
94389SOL     OW84998  14.516   2.208   0.779
94389SOL    HW184999  14.564   2.189   0.860
94389SOL    HW285000  14.554   2.149   0.714
94390SOL     OW85001   6.596  14.327   7.410
94390SOL    HW185002   6.531  14.333   7.340
94390SOL    HW285003   6.558  14.264   7.472
94391SOL     OW85004  14.156  10.127   2.116
94391SOL    HW185005  14.089  10.196   2.120
94391SOL    HW285006  14.111  10.049   2.150
94392SOL     OW85007   4.482   4.921   4.888
94392SOL    HW185008   4.480   4.834   4.928
94392SOL    HW285009   4.391   4.951   4.893
94393SOL     OW85010   0.906  11.577   3.620
94393SOL    HW185011   0.848  11.541   3.554
94393SOL    HW285012   0.912  11.509   3.687
94394SOL     OW85013  14.571   0.816   7.046
94394SOL    HW185014  14.658   0.816   7.006
94394SOL    HW285015  14.528   0.739   7.008
94395SOL     OW85016   0.157   3.243   8.221
94395SOL    HW185017   0.069   3.277   8.239
94395SOL    HW285018   0.167   3.168   8.279
94396SOL     OW85019  14.050   9.729  10.915
94396SOL    HW185020  14.105   9.766  10.984
94396SOL    HW285021  14.021   9.805  10.864
94397SOL     OW85022   6.131   8.602  11.111
94397SOL    HW185023   6.128   8.680  11.167
94397SOL    HW285024   6.219   8.603  11.074
94398SOL     OW85025   0.547   2.186   5.345
94398SOL    HW185026   0.509   2.254   5.289
94398SOL    HW285027   0.564   2.231   5.428
94399SOL     OW85028  10.686   9.673   7.953
94399SOL    HW185029  10.759   9.686   8.014
94399SOL    HW285030  10.653   9.585   7.972
94400SOL     OW85031  13.280   7.208   2.181
94400SOL    HW185032  13.185   7.201   2.173
94400SOL    HW285033  13.311   7.205   2.091
94401SOL     OW85034   6.723  14.788  11.751
94401SOL    HW185035   6.799  14.833  11.712
94401SOL    HW285036   6.655  14.796  11.685
94402SOL     OW85037   1.641   0.244   1.669
94402SOL    HW185038   1.661   0.321   1.722
94402SOL    HW285039   1.598   0.183   1.729
94403SOL     OW85040   0.590  14.862   2.337
94403SOL    HW185041   0.671   0.005   2.382
94403SOL    HW285042   0.521   0.005   2.398
94404SOL     OW85043  13.633  12.384   1.831
94404SOL    HW185044  13.618  12.452   1.766
94404SOL    HW285045  13.726  12.363   1.823
94405SOL     OW85046  14.863   7.579  11.980
94405SOL    HW185047   0.048   7.537  12.034
94405SOL    HW285048  14.864   7.530  11.898
94406SOL     OW85049   8.543   8.991   7.363
94406SOL    HW185050   8.506   9.078   7.379
94406SOL    HW285051   8.517   8.940   7.439
94407SOL     OW85052   9.777   8.678   8.050
94407SOL    HW185053   9.845   8.728   8.096
94407SOL    HW285054   9.805   8.586   8.060
94408SOL     OW85055   2.485  12.304  10.170
94408SOL    HW185056   2.473  12.222  10.217
94408SOL    HW285057   2.568  12.293  10.123
94409SOL     OW85058   3.444   5.568   7.049
94409SOL    HW185059   3.458   5.522   6.966
94409SOL    HW285060   3.456   5.660   7.028
94410SOL     OW85061   5.400  14.015   3.813
94410SOL    HW185062   5.440  13.982   3.893
94410SOL    HW285063   5.307  14.018   3.832
94411SOL     OW85064  14.251   6.804   6.728
94411SOL    HW185065  14.305   6.805   6.648
94411SOL    HW285066  14.223   6.895   6.739
94412SOL     OW85067   6.908   6.018  12.939
94412SOL    HW185068   6.884   6.095  12.990
94412SOL    HW285069   6.837   6.009  12.875
94413SOL     OW85070  11.569   5.887   0.112
94413SOL    HW185071  11.486   5.914   0.153
94413SOL    HW285072  11.615   5.840   0.181
94414SOL     OW85073   8.822  11.439  11.923
94414SOL    HW185074   8.800  11.443  12.016
94414SOL    HW285075   8.893  11.503  11.913
94415SOL     OW85076  13.070  11.914  12.882
94415SOL    HW185077  13.104  11.858  12.813
94415SOL    HW285078  13.144  11.969  12.907
94416SOL     OW85079   8.442   7.010   1.007
94416SOL    HW185080   8.441   7.098   0.971
94416SOL    HW285081   8.501   7.015   1.082
94417SOL     OW85082   5.000  10.047   4.633
94417SOL    HW185083   5.024  10.137   4.656
94417SOL    HW285084   5.032   9.994   4.706
94418SOL     OW85085  14.111  11.492   5.899
94418SOL    HW185086  14.163  11.558   5.946
94418SOL    HW285087  14.112  11.416   5.957
94419SOL     OW85088   6.711  10.824  14.310
94419SOL    HW185089   6.671  10.740  14.288
94419SOL    HW285090   6.701  10.878  14.232
94420SOL     OW85091   2.210  12.536   5.406
94420SOL    HW185092   2.181  12.621   5.373
94420SOL    HW285093   2.129  12.489   5.426
94421SOL     OW85094  10.620  10.441   9.832
94421SOL    HW185095  10.537  10.484   9.810
94421SOL    HW285096  10.595  10.354   9.860
94422SOL     OW85097  13.730   8.446  14.725
94422SOL    HW185098  13.704   8.357  14.747
94422SOL    HW285099  13.791   8.436  14.652
94423SOL     OW85100   2.992   4.398   9.260
94423SOL    HW185101   2.900   4.371   9.258
94423SOL    HW285102   3.004   4.434   9.348
94424SOL     OW85103   7.524   4.535   6.966
94424SOL    HW185104   7.599   4.490   7.004
94424SOL    HW285105   7.488   4.472   6.903
94425SOL     OW85106   7.325   1.760   4.795
94425SOL    HW185107   7.238   1.727   4.774
94425SOL    HW285108   7.328   1.757   4.891
94426SOL     OW85109   8.304  12.848  13.543
94426SOL    HW185110   8.259  12.856  13.459
94426SOL    HW285111   8.337  12.936  13.562
94427SOL     OW85112   6.846   5.040  13.380
94427SOL    HW185113   6.799   4.973  13.332
94427SOL    HW285114   6.874   5.103  13.314
94428SOL     OW85115   2.392   4.536   1.643
94428SOL    HW185116   2.359   4.618   1.678
94428SOL    HW285117   2.314   4.481   1.633
94429SOL     OW85118   4.686   1.830  11.752
94429SOL    HW185119   4.769   1.877  11.761
94429SOL    HW285120   4.674   1.785  11.835
94430SOL     OW85121   4.496  11.804   3.902
94430SOL    HW185122   4.545  11.877   3.864
94430SOL    HW285123   4.404  11.825   3.887
94431SOL     OW85124   5.422  14.611   8.426
94431SOL    HW185125   5.412  14.547   8.356
94431SOL    HW285126   5.493  14.577   8.480
94432SOL     OW85127   0.947   5.616  14.724
94432SOL    HW185128   0.862   5.595  14.762
94432SOL    HW285129   1.004   5.631  14.800
94433SOL     OW85130   8.155   1.735   0.813
94433SOL    HW185131   8.071   1.734   0.767
94433SOL    HW285132   8.153   1.658   0.870
94434SOL     OW85133   5.169  11.734   7.380
94434SOL    HW185134   5.258  11.736   7.415
94434SOL    HW285135   5.175  11.781   7.297
94435SOL     OW85136  11.375  12.936   4.344
94435SOL    HW185137  11.422  12.876   4.402
94435SOL    HW285138  11.333  12.998   4.404
94436SOL     OW85139   7.023  10.061   9.484
94436SOL    HW185140   7.032  10.147   9.443
94436SOL    HW285141   7.058  10.073   9.572
94437SOL     OW85142  14.420   7.794  10.416
94437SOL    HW185143  14.328   7.771  10.402
94437SOL    HW285144  14.462   7.775  10.332
94438SOL     OW85145  10.730   2.970  14.607
94438SOL    HW185146  10.692   3.057  14.622
94438SOL    HW285147  10.796   2.961  14.676
94439SOL     OW85148  10.230   1.518   2.129
94439SOL    HW185149  10.176   1.560   2.062
94439SOL    HW285150  10.245   1.588   2.194
94440SOL     OW85151  10.724   3.371   8.961
94440SOL    HW185152  10.710   3.373   8.866
94440SOL    HW285153  10.734   3.463   8.985
94441SOL     OW85154   6.776   0.040   8.425
94441SOL    HW185155   6.778  14.849   8.487
94441SOL    HW285156   6.688   0.039   8.389
94442SOL     OW85157   7.749   1.859   3.924
94442SOL    HW185158   7.714   1.906   4.000
94442SOL    HW285159   7.750   1.923   3.854
94443SOL     OW85160  10.168  12.673  10.741
94443SOL    HW185161  10.240  12.727  10.774
94443SOL    HW285162  10.118  12.649  10.820
94444SOL     OW85163  13.311   1.953   8.422
94444SOL    HW185164  13.300   1.864   8.390
94444SOL    HW285165  13.270   1.952   8.509
94445SOL     OW85166   5.742   3.771   1.881
94445SOL    HW185167   5.770   3.847   1.830
94445SOL    HW285168   5.706   3.710   1.816
94446SOL     OW85169  10.586   6.024   4.097
94446SOL    HW185170  10.608   5.931   4.100
94446SOL    HW285171  10.657   6.064   4.047
94447SOL     OW85172   8.881   2.073   0.022
94447SOL    HW185173   8.907   2.164   0.040
94447SOL    HW285174   8.890   2.064  14.810
94448SOL     OW85175   9.791   5.844   0.662
94448SOL    HW185176   9.826   5.916   0.714
94448SOL    HW285177   9.709   5.820   0.706
94449SOL     OW85178  11.348   5.092  14.429
94449SOL    HW185179  11.381   5.036  14.499
94449SOL    HW285180  11.422   5.102  14.369
94450SOL     OW85181  10.626  12.852   6.916
94450SOL    HW185182  10.676  12.932   6.929
94450SOL    HW285183  10.623  12.811   7.003
94451SOL     OW85184   7.496  12.583  11.032
94451SOL    HW185185   7.541  12.501  11.010
94451SOL    HW285186   7.411  12.556  11.068
94452SOL     OW85187   2.445   6.366   5.643
94452SOL    HW185188   2.465   6.451   5.682
94452SOL    HW285189   2.508   6.306   5.682
94453SOL     OW85190  12.724   9.823   1.985
94453SOL    HW185191  12.731   9.734   2.020
94453SOL    HW285192  12.661   9.816   1.913
94454SOL     OW85193  13.646  10.279   6.362
94454SOL    HW185194  13.696  10.256   6.284
94454SOL    HW285195  13.572  10.329   6.329
94455SOL     OW85196   8.918   5.681   6.035
94455SOL    HW185197   8.851   5.669   6.102
94455SOL    HW285198   8.980   5.743   6.074
94456SOL     OW85199   7.630   7.367  10.433
94456SOL    HW185200   7.583   7.397  10.355
94456SOL    HW285201   7.681   7.292  10.403
94457SOL     OW85202   1.427   5.482  11.979
94457SOL    HW185203   1.502   5.487  12.038
94457SOL    HW285204   1.448   5.409  11.920
94458SOL     OW85205   1.587   9.819   5.949
94458SOL    HW185206   1.582   9.740   6.003
94458SOL    HW285207   1.680   9.840   5.947
94459SOL     OW85208   7.856   3.901   3.451
94459SOL    HW185209   7.763   3.923   3.459
94459SOL    HW285210   7.889   3.903   3.541
94460SOL     OW85211  11.239   7.335  14.841
94460SOL    HW185212  11.238   7.331   0.055
94460SOL    HW285213  11.262   7.426  14.822
94461SOL     OW85214   1.068   8.515   2.794
94461SOL    HW185215   1.094   8.563   2.873
94461SOL    HW285216   1.076   8.423   2.818
94462SOL     OW85217  10.586   0.623  14.707
94462SOL    HW185218  10.600   0.717  14.703
94462SOL    HW285219  10.589   0.601  14.800
94463SOL     OW85220   9.549  11.097  11.315
94463SOL    HW185221   9.605  11.065  11.386
94463SOL    HW285222   9.553  11.192  11.322
94464SOL     OW85223  14.834   5.457  13.595
94464SOL    HW185224  14.810   5.366  13.609
94464SOL    HW285225  14.869   5.486  13.679
94465SOL     OW85226   4.225   3.339   1.072
94465SOL    HW185227   4.304   3.368   1.026
94465SOL    HW285228   4.258   3.276   1.137
94466SOL     OW85229   6.034  13.696   5.439
94466SOL    HW185230   5.951  13.732   5.408
94466SOL    HW285231   6.094  13.708   5.366
94467SOL     OW85232   8.423  10.409   5.181
94467SOL    HW185233   8.354  10.433   5.243
94467SOL    HW285234   8.500  10.392   5.236
94468SOL     OW85235   1.599  11.087  13.615
94468SOL    HW185236   1.521  11.054  13.659
94468SOL    HW285237   1.669  11.077  13.680
94469SOL     OW85238   7.171   3.819  10.307
94469SOL    HW185239   7.210   3.816  10.220
94469SOL    HW285240   7.098   3.881  10.298
94470SOL     OW85241   3.043   7.287   8.187
94470SOL    HW185242   2.997   7.204   8.175
94470SOL    HW285243   3.064   7.315   8.098
94471SOL     OW85244   9.270  13.025  14.812
94471SOL    HW185245   9.282  12.930  14.809
94471SOL    HW285246   9.235  13.047  14.725
94472SOL     OW85247   8.260   1.034   6.746
94472SOL    HW185248   8.341   1.043   6.696
94472SOL    HW285249   8.283   0.977   6.819
94473SOL     OW85250   1.974   7.676   7.557
94473SOL    HW185251   1.940   7.606   7.612
94473SOL    HW285252   2.003   7.743   7.618
94474SOL     OW85253   4.922   1.275  12.325
94474SOL    HW185254   4.989   1.300  12.262
94474SOL    HW285255   4.873   1.206  12.282
94475SOL     OW85256   7.047   2.327   6.278
94475SOL    HW185257   6.965   2.358   6.317
94475SOL    HW285258   7.115   2.361   6.337
94476SOL     OW85259   2.489  11.515   8.616
94476SOL    HW185260   2.454  11.571   8.686
94476SOL    HW285261   2.583  11.529   8.618
94477SOL     OW85262  12.823   7.439  10.729
94477SOL    HW185263  12.849   7.528  10.754
94477SOL    HW285264  12.849   7.385  10.803
94478SOL     OW85265  10.157   0.180   2.260
94478SOL    HW185266  10.085   0.172   2.323
94478SOL    HW285267  10.221   0.235   2.305
94479SOL     OW85268   9.870   6.860  14.363
94479SOL    HW185269   9.822   6.861  14.280
94479SOL    HW285270   9.802   6.864  14.430
94480SOL     OW85271   1.523   0.980  12.982
94480SOL    HW185272   1.438   0.950  13.013
94480SOL    HW285273   1.515   1.075  12.979
94481SOL     OW85274   5.143  14.880   4.557
94481SOL    HW185275   5.101  14.794   4.567
94481SOL    HW285276   5.086   0.046   4.497
94482SOL     OW85277   0.399  11.742  13.105
94482SOL    HW185278   0.375  11.698  13.186
94482SOL    HW285279   0.438  11.825  13.133
94483SOL     OW85280   8.459  11.110   1.386
94483SOL    HW185281   8.477  11.111   1.292
94483SOL    HW285282   8.460  11.018   1.411
94484SOL     OW85283   9.229   2.203   5.266
94484SOL    HW185284   9.217   2.195   5.171
94484SOL    HW285285   9.183   2.284   5.289
94485SOL     OW85286   4.218   1.900   5.037
94485SOL    HW185287   4.256   1.977   5.081
94485SOL    HW285288   4.288   1.835   5.038
94486SOL     OW85289  10.615  11.518  14.304
94486SOL    HW185290  10.601  11.595  14.359
94486SOL    HW285291  10.709  11.521  14.283
94487SOL     OW85292   5.416   2.208   7.918
94487SOL    HW185293   5.457   2.228   7.834
94487SOL    HW285294   5.351   2.140   7.897
94488SOL     OW85295  11.808   7.256  10.958
94488SOL    HW185296  11.903   7.244  10.955
94488SOL    HW285297  11.795   7.350  10.948
94489SOL     OW85298   0.195  11.550  10.522
94489SOL    HW185299   0.201  11.491  10.597
94489SOL    HW285300   0.101  11.558  10.505
94490SOL     OW85301  10.229  13.618   6.321
94490SOL    HW185302  10.250  13.707   6.291
94490SOL    HW285303  10.194  13.630   6.409
94491SOL     OW85304   2.390   6.573  11.341
94491SOL    HW185305   2.424   6.573  11.431
94491SOL    HW285306   2.372   6.665  11.323
94492SOL     OW85307  13.542  13.878   5.862
94492SOL    HW185308  13.579  13.918   5.940
94492SOL    HW285309  13.616  13.838   5.817
94493SOL     OW85310   9.812  11.578   7.104
94493SOL    HW185311   9.718  11.561   7.097
94493SOL    HW285312   9.846  11.557   7.018
94494SOL     OW85313   8.282   4.336   9.086
94494SOL    HW185314   8.370   4.306   9.110
94494SOL    HW285315   8.249   4.378   9.166
94495SOL     OW85316   9.885   7.398  14.519
94495SOL    HW185317   9.961   7.445  14.485
94495SOL    HW285318   9.816   7.464  14.524
94496SOL     OW85319  10.437   2.940   4.128
94496SOL    HW185320  10.510   3.002   4.133
94496SOL    HW285321  10.463   2.878   4.060
94497SOL     OW85322  13.949  10.068  11.473
94497SOL    HW185323  13.921  10.021  11.394
94497SOL    HW285324  13.898  10.149  11.471
94498SOL     OW85325   3.952   0.647   4.227
94498SOL    HW185326   4.021   0.639   4.160
94498SOL    HW285327   3.880   0.595   4.193
94499SOL     OW85328   7.313  10.042   7.762
94499SOL    HW185329   7.372  10.075   7.830
94499SOL    HW285330   7.252   9.984   7.807
94500SOL     OW85331  11.527   8.984   8.662
94500SOL    HW185332  11.593   8.918   8.684
94500SOL    HW285333  11.504   9.024   8.747
94501SOL     OW85334  13.096   5.619   5.537
94501SOL    HW185335  13.155   5.660   5.600
94501SOL    HW285336  13.109   5.525   5.550
94502SOL     OW85337   8.167   7.973   9.143
94502SOL    HW185338   8.112   8.051   9.146
94502SOL    HW285339   8.201   7.964   9.232
94503SOL     OW85340   8.124   1.989   4.631
94503SOL    HW185341   8.189   2.044   4.675
94503SOL    HW285342   8.101   2.038   4.552
94504SOL     OW85343  12.091  10.230  14.172
94504SOL    HW185344  11.997  10.220  14.186
94504SOL    HW285345  12.111  10.316  14.209
94505SOL     OW85346   3.681   0.472  13.662
94505SOL    HW185347   3.657   0.565  13.656
94505SOL    HW285348   3.775   0.471  13.645
94506SOL     OW85349   5.842   9.995   3.528
94506SOL    HW185350   5.930  10.006   3.564
94506SOL    HW285351   5.842   9.908   3.489
94507SOL     OW85352   6.906   1.301  11.534
94507SOL    HW185353   6.825   1.349  11.514
94507SOL    HW285354   6.940   1.276  11.449
94508SOL     OW85355   1.960   4.688   3.073
94508SOL    HW185356   1.966   4.780   3.097
94508SOL    HW285357   1.990   4.640   3.150
94509SOL     OW85358   9.667  12.549  12.894
94509SOL    HW185359   9.669  12.534  12.799
94509SOL    HW285360   9.624  12.472  12.930
94510SOL     OW85361   3.123  10.741   5.612
94510SOL    HW185362   3.072  10.660   5.612
94510SOL    HW285363   3.107  10.779   5.698
94511SOL     OW85364   1.041   9.799   2.220
94511SOL    HW185365   1.079   9.883   2.195
94511SOL    HW285366   1.098   9.766   2.290
94512SOL     OW85367   4.279   7.143   7.697
94512SOL    HW185368   4.274   7.143   7.793
94512SOL    HW285369   4.329   7.064   7.676
94513SOL     OW85370   5.034   5.219   3.872
94513SOL    HW185371   5.076   5.253   3.793
94513SOL    HW285372   4.964   5.281   3.891
94514SOL     OW85373   3.572  14.503  12.413
94514SOL    HW185374   3.657  14.515  12.370
94514SOL    HW285375   3.591  14.514  12.506
94515SOL     OW85376   2.621   6.290  10.850
94515SOL    HW185377   2.639   6.264  10.760
94515SOL    HW285378   2.530   6.320  10.849
94516SOL     OW85379   6.098   5.356  10.357
94516SOL    HW185380   6.105   5.437  10.306
94516SOL    HW285381   6.179   5.309  10.338
94517SOL     OW85382   1.113  10.262   0.931
94517SOL    HW185383   1.156  10.205   0.868
94517SOL    HW285384   1.138  10.226   1.016
94518SOL     OW85385  10.845   3.808   1.561
94518SOL    HW185386  10.863   3.845   1.474
94518SOL    HW285387  10.770   3.750   1.546
94519SOL     OW85388   3.733   8.526  13.123
94519SOL    HW185389   3.777   8.453  13.080
94519SOL    HW285390   3.799   8.561  13.183
94520SOL     OW85391   5.382   8.864   1.191
94520SOL    HW185392   5.358   8.779   1.153
94520SOL    HW285393   5.449   8.843   1.256
94521SOL     OW85394   8.412  10.063  12.801
94521SOL    HW185395   8.413  10.128  12.731
94521SOL    HW285396   8.490  10.010  12.786
94522SOL     OW85397  12.138  10.868   8.420
94522SOL    HW185398  12.130  10.845   8.513
94522SOL    HW285399  12.169  10.959   8.421
94523SOL     OW85400  12.433  10.319  14.087
94523SOL    HW185401  12.410  10.232  14.120
94523SOL    HW285402  12.511  10.304  14.034
94524SOL     OW85403  11.154   1.995   7.997
94524SOL    HW185404  11.158   1.902   7.975
94524SOL    HW285405  11.210   2.037   7.932
94525SOL     OW85406   8.827   7.826   0.288
94525SOL    HW185407   8.785   7.752   0.332
94525SOL    HW285408   8.921   7.810   0.297
94526SOL     OW85409   8.887   3.441   4.690
94526SOL    HW185410   8.811   3.389   4.716
94526SOL    HW285411   8.953   3.377   4.665
94527SOL     OW85412   3.692   9.216  12.804
94527SOL    HW185413   3.633   9.277  12.760
94527SOL    HW285414   3.716   9.260  12.886
94528SOL     OW85415  14.804   8.261  10.560
94528SOL    HW185416  14.774   8.170  10.554
94528SOL    HW285417  14.834   8.283  10.472
94529SOL     OW85418  12.956  13.872   0.895
94529SOL    HW185419  12.984  13.783   0.915
94529SOL    HW285420  12.873  13.862   0.850
94530SOL     OW85421  12.717   1.261   2.895
94530SOL    HW185422  12.658   1.234   2.966
94530SOL    HW285423  12.682   1.346   2.866
94531SOL     OW85424   8.295   7.328   9.468
94531SOL    HW185425   8.213   7.278   9.464
94531SOL    HW285426   8.346   7.297   9.393
94532SOL     OW85427  14.558   1.475   2.143
94532SOL    HW185428  14.604   1.449   2.222
94532SOL    HW285429  14.481   1.418   2.140
94533SOL     OW85430  11.478   4.727   8.815
94533SOL    HW185431  11.480   4.635   8.788
94533SOL    HW285432  11.570   4.751   8.826
94534SOL     OW85433   8.461  13.297   1.371
94534SOL    HW185434   8.368  13.287   1.393
94534SOL    HW285435   8.467  13.386   1.336
94535SOL     OW85436  11.443  11.734   4.840
94535SOL    HW185437  11.476  11.695   4.759
94535SOL    HW285438  11.469  11.826   4.834
94536SOL     OW85439   6.730   6.185   8.644
94536SOL    HW185440   6.646   6.222   8.668
94536SOL    HW285441   6.714   6.140   8.561
94537SOL     OW85442   2.602  13.250  11.798
94537SOL    HW185443   2.670  13.185  11.819
94537SOL    HW285444   2.543  13.203  11.738
94538SOL     OW85445   4.624   9.418   1.872
94538SOL    HW185446   4.651   9.450   1.958
94538SOL    HW285447   4.676   9.340   1.857
94539SOL     OW85448  10.939   8.958   8.120
94539SOL    HW185449  10.970   8.911   8.043
94539SOL    HW285450  10.896   9.036   8.084
94540SOL     OW85451   3.907   5.443   3.985
94540SOL    HW185452   3.835   5.389   4.019
94540SOL    HW285453   3.938   5.491   4.062
94541SOL     OW85454   5.442   8.415  11.672
94541SOL    HW185455   5.404   8.328  11.688
94541SOL    HW285456   5.385   8.454  11.605
94542SOL     OW85457  12.672  11.947  14.738
94542SOL    HW185458  12.713  11.985  14.660
94542SOL    HW285459  12.736  11.962  14.807
94543SOL     OW85460  13.713   7.106   4.172
94543SOL    HW185461  13.674   7.144   4.251
94543SOL    HW285462  13.790   7.160   4.154
94544SOL     OW85463   8.045   2.941   7.163
94544SOL    HW185464   8.033   2.851   7.135
94544SOL    HW285465   8.067   2.989   7.083
94545SOL     OW85466  14.014   3.148   2.186
94545SOL    HW185467  14.090   3.206   2.195
94545SOL    HW285468  13.991   3.155   2.093
94546SOL     OW85469   1.927   1.353   0.806
94546SOL    HW185470   1.927   1.441   0.844
94546SOL    HW285471   1.835   1.335   0.787
94547SOL     OW85472  13.980   6.244   6.460
94547SOL    HW185473  14.043   6.236   6.388
94547SOL    HW285474  13.895   6.246   6.417
94548SOL     OW85475  13.103   8.897  14.446
94548SOL    HW185476  13.163   8.887  14.372
94548SOL    HW285477  13.155   8.868  14.522
94549SOL     OW85478  11.545  11.054  10.131
94549SOL    HW185479  11.608  11.076  10.063
94549SOL    HW285480  11.471  11.015  10.084
94550SOL     OW85481   2.556  13.000   3.417
94550SOL    HW185482   2.499  13.032   3.347
94550SOL    HW285483   2.640  13.042   3.400
94551SOL     OW85484   7.069   4.435   0.774
94551SOL    HW185485   7.065   4.340   0.788
94551SOL    HW285486   7.140   4.464   0.832
94552SOL     OW85487  14.512  11.205   7.153
94552SOL    HW185488  14.419  11.181   7.150
94552SOL    HW285489  14.529  11.246   7.068
94553SOL     OW85490   9.469   7.200   1.360
94553SOL    HW185491   9.548   7.163   1.400
94553SOL    HW285492   9.397   7.153   1.402
94554SOL     OW85493   3.830   6.834  13.964
94554SOL    HW185494   3.870   6.833  13.877
94554SOL    HW285495   3.903   6.845  14.024
94555SOL     OW85496   2.684  10.992   8.794
94555SOL    HW185497   2.727  10.918   8.750
94555SOL    HW285498   2.755  11.038   8.839
94556SOL     OW85499   6.723   7.110   0.345
94556SOL    HW185500   6.769   7.059   0.279
94556SOL    HW285501   6.758   7.078   0.429
94557SOL     OW85502   6.380   3.628   0.961
94557SOL    HW185503   6.413   3.714   0.933
94557SOL    HW285504   6.454   3.586   1.004
94558SOL     OW85505   0.113   3.072   4.460
94558SOL    HW185506   0.038   3.066   4.401
94558SOL    HW285507   0.079   3.043   4.545
94559SOL     OW85508   6.179   2.188   9.274
94559SOL    HW185509   6.245   2.180   9.205
94559SOL    HW285510   6.168   2.283   9.285
94560SOL     OW85511  10.404   3.600   4.317
94560SOL    HW185512  10.432   3.528   4.261
94560SOL    HW285513  10.400   3.676   4.259
94561SOL     OW85514   1.456  10.032   6.738
94561SOL    HW185515   1.386   9.998   6.682
94561SOL    HW285516   1.452  10.127   6.727
94562SOL     OW85517   6.566   6.700   9.081
94562SOL    HW185518   6.558   6.708   9.176
94562SOL    HW285519   6.533   6.612   9.061
94563SOL     OW85520  10.143  13.966   1.514
94563SOL    HW185521  10.109  13.918   1.590
94563SOL    HW285522  10.166  13.897   1.451
94564SOL     OW85523  12.321   8.487   9.280
94564SOL    HW185524  12.406   8.457   9.248
94564SOL    HW285525  12.326   8.582   9.276
94565SOL     OW85526  10.761   9.070  11.872
94565SOL    HW185527  10.717   9.055  11.788
94565SOL    HW285528  10.780   9.163  11.873
94566SOL     OW85529   4.238   4.909  11.368
94566SOL    HW185530   4.327   4.905  11.335
94566SOL    HW285531   4.245   4.884  11.460
94567SOL     OW85532  12.724   3.247  13.737
94567SOL    HW185533  12.782   3.292  13.675
94567SOL    HW285534  12.727   3.300  13.816
94568SOL     OW85535  13.405  14.152   4.658
94568SOL    HW185536  13.315  14.119   4.660
94568SOL    HW285537  13.424  14.167   4.566
94569SOL     OW85538  12.233  14.543   7.200
94569SOL    HW185539  12.315  14.534   7.151
94569SOL    HW285540  12.254  14.511   7.287
94570SOL     OW85541   2.830  11.475   7.855
94570SOL    HW185542   2.847  11.388   7.891
94570SOL    HW285543   2.890  11.533   7.902
94571SOL     OW85544   8.019  10.397   4.539
94571SOL    HW185545   7.951  10.421   4.477
94571SOL    HW285546   7.972  10.364   4.616
94572SOL     OW85547   8.730   2.992  10.170
94572SOL    HW185548   8.753   2.899  10.167
94572SOL    HW285549   8.777   3.031  10.097
94573SOL     OW85550   1.849  14.432  14.860
94573SOL    HW185551   1.868  14.389  14.776
94573SOL    HW285552   1.760  14.464  14.850
94574SOL     OW85553  11.189   2.735   3.615
94574SOL    HW185554  11.266   2.756   3.562
94574SOL    HW285555  11.185   2.640   3.614
94575SOL     OW85556   4.366   6.323  11.041
94575SOL    HW185557   4.309   6.270  11.097
94575SOL    HW285558   4.443   6.269  11.026
94576SOL     OW85559   1.270  11.371   0.450
94576SOL    HW185560   1.342  11.432   0.434
94576SOL    HW285561   1.218  11.374   0.369
94577SOL     OW85562  14.516   2.048   4.227
94577SOL    HW185563  14.564   2.004   4.157
94577SOL    HW285564  14.532   1.994   4.305
94578SOL     OW85565   7.169   1.830   9.030
94578SOL    HW185566   7.248   1.779   9.048
94578SOL    HW285567   7.099   1.784   9.075
94579SOL     OW85568  10.137  12.706   0.105
94579SOL    HW185569  10.214  12.758   0.127
94579SOL    HW285570  10.063  12.762   0.128
94580SOL     OW85571   2.062  10.468  10.781
94580SOL    HW185572   2.035  10.480  10.690
94580SOL    HW285573   2.146  10.515  10.787
94581SOL     OW85574  13.879   5.764  12.576
94581SOL    HW185575  13.929   5.743  12.655
94581SOL    HW285576  13.942   5.755  12.505
94582SOL     OW85577   1.451   9.230   1.984
94582SOL    HW185578   1.499   9.272   1.913
94582SOL    HW285579   1.423   9.146   1.948
94583SOL     OW85580   0.755  10.850   0.195
94583SOL    HW185581   0.708  10.855   0.112
94583SOL    HW285582   0.735  10.762   0.228
94584SOL     OW85583   9.783  10.331   8.490
94584SOL    HW185584   9.842  10.395   8.451
94584SOL    HW285585   9.709  10.326   8.429
94585SOL     OW85586   0.582  12.883   0.509
94585SOL    HW185587   0.670  12.892   0.471
94585SOL    HW285588   0.523  12.903   0.437
94586SOL     OW85589   8.885   0.076   6.948
94586SOL    HW185590   8.872   0.013   7.020
94586SOL    HW285591   8.839   0.037   6.874
94587SOL     OW85592   1.865   9.208   3.954
94587SOL    HW185593   1.856   9.263   4.032
94587SOL    HW285594   1.802   9.137   3.967
94588SOL     OW85595   5.800   1.441   0.827
94588SOL    HW185596   5.733   1.382   0.791
94588SOL    HW285597   5.840   1.480   0.749
94589SOL     OW85598  13.407  11.496   9.283
94589SOL    HW185599  13.319  11.492   9.246
94589SOL    HW285600  13.407  11.577   9.335
94590SOL     OW85601   0.432   3.504  14.751
94590SOL    HW185602   0.423   3.484  14.658
94590SOL    HW285603   0.438   3.599  14.755
94591SOL     OW85604   4.636  14.118   9.302
94591SOL    HW185605   4.713  14.171   9.322
94591SOL    HW285606   4.580  14.176   9.251
94592SOL     OW85607   0.959  13.061   7.930
94592SOL    HW185608   0.939  13.154   7.935
94592SOL    HW285609   0.899  13.020   7.992
94593SOL     OW85610  12.016   9.440  13.384
94593SOL    HW185611  12.023   9.369  13.448
94593SOL    HW285612  12.088   9.424  13.323
94594SOL     OW85613  11.648   3.339  10.095
94594SOL    HW185614  11.567   3.355  10.143
94594SOL    HW285615  11.705   3.413  10.116
94595SOL     OW85616   1.122   2.943   6.911
94595SOL    HW185617   1.051   2.930   6.848
94595SOL    HW285618   1.165   2.858   6.915
94596SOL     OW85619  10.639   7.026   0.524
94596SOL    HW185620  10.676   7.053   0.608
94596SOL    HW285621  10.712   6.988   0.477
94597SOL     OW85622  10.629  10.599   0.337
94597SOL    HW185623  10.701  10.638   0.287
94597SOL    HW285624  10.666  10.519   0.374
94598SOL     OW85625  10.688  12.397   2.943
94598SOL    HW185626  10.670  12.320   2.890
94598SOL    HW285627  10.764  12.373   2.996
94599SOL     OW85628   6.063   2.584  10.655
94599SOL    HW185629   6.008   2.559  10.581
94599SOL    HW285630   6.131   2.517  10.658
94600SOL     OW85631   5.899  12.964   6.385
94600SOL    HW185632   5.893  12.898   6.453
94600SOL    HW285633   5.969  13.022   6.413
94601SOL     OW85634   5.975  14.324   5.550
94601SOL    HW185635   6.043  14.389   5.573
94601SOL    HW285636   5.937  14.358   5.469
94602SOL     OW85637   0.028   3.640  14.011
94602SOL    HW185638   0.120   3.632  14.033
94602SOL    HW285639  14.881   3.720  14.056
94603SOL     OW85640   7.377   4.103   2.806
94603SOL    HW185641   7.434   4.040   2.850
94603SOL    HW285642   7.401   4.098   2.714
94604SOL     OW85643   2.052   2.831   4.027
94604SOL    HW185644   2.063   2.900   3.962
94604SOL    HW285645   1.973   2.784   3.999
94605SOL     OW85646   9.950   6.333   3.715
94605SOL    HW185647  10.001   6.408   3.745
94605SOL    HW285648   9.961   6.267   3.783
94606SOL     OW85649   9.905   7.155   9.295
94606SOL    HW185650   9.936   7.222   9.357
94606SOL    HW285651   9.819   7.187   9.267
94607SOL     OW85652   1.729   7.211  13.048
94607SOL    HW185653   1.704   7.187  12.959
94607SOL    HW285654   1.665   7.166  13.104
94608SOL     OW85655   4.918  11.448   7.638
94608SOL    HW185656   4.868  11.491   7.707
94608SOL    HW285657   4.854  11.393   7.593
94609SOL     OW85658   7.417   4.976  14.155
94609SOL    HW185659   7.362   5.034  14.208
94609SOL    HW285660   7.359   4.904  14.130
94610SOL     OW85661   8.709   5.489  10.919
94610SOL    HW185662   8.786   5.510  10.865
94610SOL    HW285663   8.672   5.411  10.877
94611SOL     OW85664   1.236   1.302  12.019
94611SOL    HW185665   1.152   1.343  12.001
94611SOL    HW285666   1.283   1.306  11.935
94612SOL     OW85667   8.925   3.397  12.241
94612SOL    HW185668   8.898   3.486  12.264
94612SOL    HW285669   8.965   3.405  12.155
94613SOL     OW85670   8.738  10.829   2.095
94613SOL    HW185671   8.708  10.919   2.079
94613SOL    HW285672   8.747  10.823   2.190
94614SOL     OW85673   7.273  14.011  10.999
94614SOL    HW185674   7.340  14.067  11.038
94614SOL    HW285675   7.282  14.024  10.904
94615SOL     OW85676   1.792   7.122  10.662
94615SOL    HW185677   1.704   7.159  10.673
94615SOL    HW285678   1.847   7.198  10.644
94616SOL     OW85679   4.638  14.396   3.713
94616SOL    HW185680   4.561  14.426   3.761
94616SOL    HW285681   4.654  14.308   3.747
94617SOL     OW85682  11.948   1.220   4.575
94617SOL    HW185683  12.037   1.190   4.592
94617SOL    HW285684  11.895   1.141   4.572
94618SOL     OW85685  14.221  11.921   5.707
94618SOL    HW185686  14.267  11.999   5.676
94618SOL    HW285687  14.288  11.870   5.752
94619SOL     OW85688   6.708   3.188   7.521
94619SOL    HW185689   6.782   3.225   7.569
94619SOL    HW285690   6.631   3.211   7.574
94620SOL     OW85691  13.615  11.540   5.693
94620SOL    HW185692  13.710  11.531   5.702
94620SOL    HW285693  13.596  11.631   5.715
94621SOL     OW85694   0.926   7.630   6.088
94621SOL    HW185695   1.006   7.580   6.068
94621SOL    HW285696   0.958   7.711   6.127
94622SOL     OW85697   3.062   0.577   3.798
94622SOL    HW185698   3.059   0.486   3.769
94622SOL    HW285699   2.983   0.587   3.852
94623SOL     OW85700   7.032  14.160   3.320
94623SOL    HW185701   7.000  14.189   3.405
94623SOL    HW285702   7.127  14.159   3.329
94624SOL     OW85703  10.026  11.558   7.306
94624SOL    HW185704   9.947  11.574   7.255
94624SOL    HW285705   9.995  11.511   7.384
94625SOL     OW85706   2.390  12.236   1.656
94625SOL    HW185707   2.477  12.202   1.634
94625SOL    HW285708   2.371  12.300   1.587
94626SOL     OW85709   4.303  14.189   6.667
94626SOL    HW185710   4.335  14.203   6.756
94626SOL    HW285711   4.379  14.208   6.611
94627SOL     OW85712   4.176   5.637  13.730
94627SOL    HW185713   4.226   5.691  13.791
94627SOL    HW285714   4.148   5.698  13.661
94628SOL     OW85715  12.000   0.729   8.139
94628SOL    HW185716  11.981   0.784   8.063
94628SOL    HW285717  11.989   0.787   8.214
94629SOL     OW85718   8.922   6.334   6.234
94629SOL    HW185719   8.964   6.327   6.319
94629SOL    HW285720   8.911   6.244   6.205
94630SOL     OW85721  11.608  12.491   5.073
94630SOL    HW185722  11.620  12.475   4.980
94630SOL    HW285723  11.696  12.490   5.110
94631SOL     OW85724  13.343   6.633   1.717
94631SOL    HW185725  13.338   6.693   1.643
94631SOL    HW285726  13.325   6.547   1.680
94632SOL     OW85727   8.555   1.432   4.451
94632SOL    HW185728   8.615   1.452   4.524
94632SOL    HW285729   8.536   1.339   4.461
94633SOL     OW85730   4.346   5.573   4.250
94633SOL    HW185731   4.263   5.581   4.297
94633SOL    HW285732   4.410   5.555   4.319
94634SOL     OW85733  10.856   6.174  12.596
94634SOL    HW185734  10.813   6.153  12.512
94634SOL    HW285735  10.792   6.229  12.641
94635SOL     OW85736   3.505  11.643  10.933
94635SOL    HW185737   3.420  11.659  10.973
94635SOL    HW285738   3.568  11.671  11.000
94636SOL     OW85739  14.364   5.353   9.720
94636SOL    HW185740  14.447   5.377   9.763
94636SOL    HW285741  14.357   5.258   9.732
94637SOL     OW85742  11.339  11.776  10.214
94637SOL    HW185743  11.403  11.816  10.156
94637SOL    HW285744  11.365  11.804  10.302
94638SOL     OW85745   2.357   9.283  11.518
94638SOL    HW185746   2.332   9.212  11.460
94638SOL    HW285747   2.436   9.320  11.478
94639SOL     OW85748   7.341  12.161  11.124
94639SOL    HW185749   7.284  12.084  11.134
94639SOL    HW285750   7.407  12.152  11.192
94640SOL     OW85751   2.896   6.979  11.837
94640SOL    HW185752   2.873   6.905  11.781
94640SOL    HW285753   2.822   6.988  11.897
94641SOL     OW85754   2.674   6.523   1.712
94641SOL    HW185755   2.735   6.454   1.739
94641SOL    HW285756   2.729   6.585   1.664
94642SOL     OW85757   7.731   6.521   4.901
94642SOL    HW185758   7.718   6.440   4.852
94642SOL    HW285759   7.655   6.575   4.877
94643SOL     OW85760  11.521  10.767   2.113
94643SOL    HW185761  11.549  10.828   2.044
94643SOL    HW285762  11.582  10.783   2.185
94644SOL     OW85763   3.607   1.178   1.370
94644SOL    HW185764   3.635   1.258   1.325
94644SOL    HW285765   3.515   1.168   1.344
94645SOL     OW85766   3.398   0.473  10.515
94645SOL    HW185767   3.358   0.518  10.590
94645SOL    HW285768   3.343   0.496  10.441
94646SOL     OW85769   4.801  11.634   2.598
94646SOL    HW185770   4.889  11.637   2.561
94646SOL    HW285771   4.760  11.558   2.556
94647SOL     OW85772   6.352  11.153  13.805
94647SOL    HW185773   6.426  11.194  13.760
94647SOL    HW285774   6.322  11.220  13.867
94648SOL     OW85775   8.373   1.630  14.789
94648SOL    HW185776   8.411   1.550  14.753
94648SOL    HW285777   8.339   1.604  14.875
94649SOL     OW85778   3.797  14.858  12.134
94649SOL    HW185779   3.813  14.828  12.223
94649SOL    HW285780   3.747  14.788  12.092
94650SOL     OW85781   5.354   7.353   6.856
94650SOL    HW185782   5.307   7.311   6.929
94650SOL    HW285783   5.444   7.322   6.865
94651SOL     OW85784   4.174   3.169   5.677
94651SOL    HW185785   4.240   3.107   5.647
94651SOL    HW285786   4.112   3.176   5.605
94652SOL     OW85787  11.135  12.490  14.059
94652SOL    HW185788  11.128  12.502  14.154
94652SOL    HW285789  11.093  12.568  14.022
94653SOL     OW85790   3.893  12.964   6.605
94653SOL    HW185791   3.954  13.029   6.572
94653SOL    HW285792   3.942  12.882   6.604
94654SOL     OW85793   7.922   9.864   3.457
94654SOL    HW185794   7.996   9.921   3.437
94654SOL    HW285795   7.959   9.776   3.456
94655SOL     OW85796   3.758  10.659   4.396
94655SOL    HW185797   3.749  10.680   4.303
94655SOL    HW285798   3.852  10.668   4.414
94656SOL     OW85799   1.709  11.627   8.277
94656SOL    HW185800   1.618  11.599   8.272
94656SOL    HW285801   1.706  11.721   8.262
94657SOL     OW85802   5.220   4.797   6.434
94657SOL    HW185803   5.133   4.757   6.442
94657SOL    HW285804   5.218   4.843   6.350
94658SOL     OW85805   2.248  11.426   1.469
94658SOL    HW185806   2.158  11.410   1.441
94658SOL    HW285807   2.246  11.417   1.564
94659SOL     OW85808   8.008  13.619  11.735
94659SOL    HW185809   7.951  13.544  11.718
94659SOL    HW285810   7.947  13.691  11.754
94660SOL     OW85811   5.099   9.713   8.200
94660SOL    HW185812   5.051   9.768   8.138
94660SOL    HW285813   5.071   9.624   8.180
94661SOL     OW85814   6.400  11.632   0.146
94661SOL    HW185815   6.481  11.593   0.112
94661SOL    HW285816   6.418  11.726   0.147
94662SOL     OW85817  12.981   1.021   6.586
94662SOL    HW185818  12.945   0.936   6.560
94662SOL    HW285819  12.933   1.045   6.665
94663SOL     OW85820  10.055   5.610   8.824
94663SOL    HW185821  10.109   5.542   8.783
94663SOL    HW285822  10.065   5.594   8.918
94664SOL     OW85823   1.947   2.654   1.287
94664SOL    HW185824   1.863   2.609   1.288
94664SOL    HW285825   1.928   2.742   1.319
94665SOL     OW85826  14.082   2.018   8.405
94665SOL    HW185827  14.153   2.035   8.344
94665SOL    HW285828  14.072   2.099   8.454
94666SOL     OW85829   5.104   4.812   2.944
94666SOL    HW185830   5.043   4.885   2.950
94666SOL    HW285831   5.050   4.734   2.954
94667SOL     OW85832  11.627  12.517  14.058
94667SOL    HW185833  11.675  12.599  14.055
94667SOL    HW285834  11.679  12.462  14.117
94668SOL     OW85835  12.547  14.738  14.849
94668SOL    HW185836  12.508  14.818  14.814
94668SOL    HW285837  12.611  14.711  14.783
94669SOL     OW85838   1.046   7.811   4.605
94669SOL    HW185839   0.994   7.733   4.627
94669SOL    HW285840   1.104   7.822   4.680
94670SOL     OW85841   5.673   1.016   8.097
94670SOL    HW185842   5.751   1.058   8.133
94670SOL    HW285843   5.618   1.089   8.066
94671SOL     OW85844   2.429   1.426  11.632
94671SOL    HW185845   2.427   1.494  11.564
94671SOL    HW285846   2.517   1.430  11.668
94672SOL     OW85847  12.914   4.535   3.719
94672SOL    HW185848  12.992   4.518   3.666
94672SOL    HW285849  12.856   4.585   3.661
94673SOL     OW85850   5.635   8.032   5.877
94673SOL    HW185851   5.703   7.992   5.822
94673SOL    HW285852   5.561   8.044   5.818
94674SOL     OW85853  13.600  11.568  14.738
94674SOL    HW185854  13.516  11.522  14.738
94674SOL    HW285855  13.657  11.515  14.794
94675SOL     OW85856   3.948   5.831   9.968
94675SOL    HW185857   3.869   5.780   9.985
94675SOL    HW285858   3.916   5.920   9.953
94676SOL     OW85859  14.109  13.545  10.569
94676SOL    HW185860  14.091  13.487  10.644
94676SOL    HW285861  14.127  13.630  10.609
94677SOL     OW85862   9.069   2.620  13.702
94677SOL    HW185863   9.081   2.671  13.782
94677SOL    HW285864   9.032   2.537  13.732
94678SOL     OW85865  12.248   5.045   3.178
94678SOL    HW185866  12.303   4.976   3.141
94678SOL    HW285867  12.159   5.010   3.171
94679SOL     OW85868  12.431   0.661   8.010
94679SOL    HW185869  12.357   0.715   7.983
94679SOL    HW285870  12.392   0.582   8.046
94680SOL     OW85871  12.374  10.090   9.877
94680SOL    HW185872  12.400  10.117   9.965
94680SOL    HW285873  12.452  10.104   9.823
94681SOL     OW85874   9.944   2.073   1.852
94681SOL    HW185875   9.914   1.989   1.817
94681SOL    HW285876   9.873   2.101   1.910
94682SOL     OW85877  14.423   5.905  14.759
94682SOL    HW185878  14.461   5.896  14.672
94682SOL    HW285879  14.422   5.999  14.775
94683SOL     OW85880  12.349  14.253   8.378
94683SOL    HW185881  12.363  14.336   8.334
94683SOL    HW285882  12.436  14.215   8.387
94684SOL     OW85883   0.343   9.579   0.732
94684SOL    HW185884   0.415   9.546   0.679
94684SOL    HW285885   0.350   9.674   0.726
94685SOL     OW85886  10.953  10.313   6.905
94685SOL    HW185887  10.986  10.226   6.929
94685SOL    HW285888  10.925  10.303   6.814
94686SOL     OW85889   9.562  10.205   0.391
94686SOL    HW185890   9.505  10.136   0.423
94686SOL    HW285891   9.531  10.284   0.435
94687SOL     OW85892  12.440   3.271   1.241
94687SOL    HW185893  12.457   3.179   1.221
94687SOL    HW285894  12.491   3.320   1.176
94688SOL     OW85895   3.694   1.223   0.134
94688SOL    HW185896   3.626   1.282   0.167
94688SOL    HW285897   3.764   1.281   0.103
94689SOL     OW85898   7.111   9.140   8.489
94689SOL    HW185899   7.124   9.211   8.552
94689SOL    HW285900   7.199   9.113   8.465
94690SOL     OW85901  10.005   0.338   5.093
94690SOL    HW185902  10.030   0.356   5.002
94690SOL    HW285903  10.080   0.369   5.144
94691SOL     OW85904   2.897   9.936   6.526
94691SOL    HW185905   2.848   9.875   6.470
94691SOL    HW285906   2.830   9.983   6.575
94692SOL     OW85907   3.850  12.601  12.980
94692SOL    HW185908   3.827  12.681  12.933
94692SOL    HW285909   3.844  12.624  13.072
94693SOL     OW85910   0.495  13.764   6.810
94693SOL    HW185911   0.478  13.705   6.884
94693SOL    HW285912   0.408  13.794   6.783
94694SOL     OW85913  12.869   9.368   7.517
94694SOL    HW185914  12.864   9.370   7.613
94694SOL    HW285915  12.939   9.430   7.496
94695SOL     OW85916   6.920   5.845   5.964
94695SOL    HW185917   6.994   5.795   5.931
94695SOL    HW285918   6.878   5.786   6.028
94696SOL     OW85919   3.610   9.868   1.980
94696SOL    HW185920   3.602   9.962   1.966
94696SOL    HW285921   3.690   9.844   1.933
94697SOL     OW85922  12.384   7.856   9.290
94697SOL    HW185923  12.356   7.810   9.370
94697SOL    HW285924  12.356   7.799   9.218
94698SOL     OW85925   0.998  13.673  12.302
94698SOL    HW185926   1.052  13.631  12.369
94698SOL    HW285927   1.041  13.756  12.284
94699SOL     OW85928  14.516  12.797   6.416
94699SOL    HW185929  14.493  12.802   6.323
94699SOL    HW285930  14.444  12.840   6.462
94700SOL     OW85931   3.212   7.531   6.609
94700SOL    HW185932   3.230   7.625   6.601
94700SOL    HW285933   3.269   7.501   6.679
94701SOL     OW85934   9.478  11.791   6.742
94701SOL    HW185935   9.420  11.827   6.809
94701SOL    HW285936   9.459  11.841   6.663
94702SOL     OW85937  12.403   8.675   8.884
94702SOL    HW185938  12.423   8.695   8.976
94702SOL    HW285939  12.477   8.711   8.835
94703SOL     OW85940   9.779   1.488  10.715
94703SOL    HW185941   9.689   1.507  10.743
94703SOL    HW285942   9.800   1.559  10.655
94704SOL     OW85943   8.538   3.432   8.441
94704SOL    HW185944   8.467   3.451   8.502
94704SOL    HW285945   8.494   3.395   8.364
94705SOL     OW85946   2.650   0.279  10.760
94705SOL    HW185947   2.690   0.360  10.793
94705SOL    HW285948   2.577   0.309  10.706
94706SOL     OW85949   3.177   9.853  12.123
94706SOL    HW185950   3.214   9.919  12.063
94706SOL    HW285951   3.190   9.890  12.210
94707SOL     OW85952   7.417  13.494   2.327
94707SOL    HW185953   7.415  13.577   2.280
94707SOL    HW285954   7.405  13.428   2.260
94708SOL     OW85955   0.488   4.696   4.595
94708SOL    HW185956   0.470   4.691   4.501
94708SOL    HW285957   0.576   4.660   4.605
94709SOL     OW85958   3.074   6.342   8.042
94709SOL    HW185959   3.093   6.422   8.090
94709SOL    HW285960   3.017   6.370   7.971
94710SOL     OW85961  12.770  12.818   2.105
94710SOL    HW185962  12.678  12.795   2.110
94710SOL    HW285963  12.810  12.779   2.183
94711SOL     OW85964  11.049  14.063   8.260
94711SOL    HW185965  10.996  14.085   8.337
94711SOL    HW285966  10.985  14.056   8.188
94712SOL     OW85967   2.227   3.859   0.364
94712SOL    HW185968   2.208   3.766   0.372
94712SOL    HW285969   2.142   3.898   0.342
94713SOL     OW85970   2.147   1.125   4.803
94713SOL    HW185971   2.216   1.191   4.794
94713SOL    HW285972   2.191   1.049   4.840
94714SOL     OW85973   4.358   0.766   1.120
94714SOL    HW185974   4.432   0.732   1.171
94714SOL    HW285975   4.382   0.749   1.029
94715SOL     OW85976   5.926   2.756   2.754
94715SOL    HW185977   5.910   2.847   2.778
94715SOL    HW285978   5.840   2.713   2.763
94716SOL     OW85979  13.238  10.754  12.565
94716SOL    HW185980  13.321  10.789  12.531
94716SOL    HW285981  13.196  10.829  12.607
94717SOL     OW85982  12.934  11.724   6.944
94717SOL    HW185983  13.025  11.706   6.967
94717SOL    HW285984  12.917  11.668   6.868
94718SOL     OW85985  13.558   0.991  14.400
94718SOL    HW185986  13.550   0.896  14.388
94718SOL    HW285987  13.512   1.029  14.325
94719SOL     OW85988   3.066  10.256  13.390
94719SOL    HW185989   3.144  10.217  13.350
94719SOL    HW285990   3.087  10.349  13.398
94720SOL     OW85991   5.482  11.155   7.745
94720SOL    HW185992   5.528  11.126   7.666
94720SOL    HW285993   5.415  11.215   7.714
94721SOL     OW85994   3.411  13.708   6.015
94721SOL    HW185995   3.403  13.619   5.981
94721SOL    HW285996   3.504  13.718   6.035
94722SOL     OW85997  13.707  12.945   7.970
94722SOL    HW185998  13.726  12.860   8.010
94722SOL    HW285999  13.737  13.009   8.034
94723SOL     OW86000   0.977   3.119   9.709
94723SOL    HW186001   0.948   3.043   9.658
94723SOL    HW286002   0.897   3.171   9.721
94724SOL     OW86003   2.217  10.534  12.718
94724SOL    HW186004   2.311  10.544  12.735
94724SOL    HW286005   2.195  10.609  12.662
94725SOL     OW86006   2.894  11.713  14.038
94725SOL    HW186007   2.935  11.628  14.051
94725SOL    HW286008   2.854  11.734  14.122
94726SOL     OW86009   4.206   3.724   6.579
94726SOL    HW186010   4.143   3.735   6.651
94726SOL    HW286011   4.290   3.746   6.618
94727SOL     OW86012  13.335   4.750  13.037
94727SOL    HW186013  13.259   4.778  13.089
94727SOL    HW286014  13.407   4.804  13.070
94728SOL     OW86015  10.973  10.378   3.723
94728SOL    HW186016  11.062  10.411   3.709
94728SOL    HW286017  10.928  10.395   3.640
94729SOL     OW86018  14.048  10.056   5.704
94729SOL    HW186019  14.095  10.138   5.722
94729SOL    HW286020  14.016  10.027   5.789
94730SOL     OW86021   9.461   8.521   9.848
94730SOL    HW186022   9.509   8.520   9.931
94730SOL    HW286023   9.518   8.568   9.787
94731SOL     OW86024  11.437  13.547   8.695
94731SOL    HW186025  11.403  13.571   8.781
94731SOL    HW286026  11.497  13.474   8.712
94732SOL     OW86027   0.068   7.767  10.590
94732SOL    HW186028   0.092   7.856  10.565
94732SOL    HW286029  14.864   7.776  10.631
94733SOL     OW86030   6.231  14.740   9.413
94733SOL    HW186031   6.178  14.761   9.490
94733SOL    HW286032   6.288  14.669   9.442
94734SOL     OW86033  13.718   2.906   6.363
94734SOL    HW186034  13.670   2.867   6.290
94734SOL    HW286035  13.744   2.831   6.417
94735SOL     OW86036   0.124   7.060   8.048
94735SOL    HW186037   0.188   6.988   8.047
94735SOL    HW286038   0.164   7.126   8.104
94736SOL     OW86039   4.851   7.684  11.824
94736SOL    HW186040   4.818   7.742  11.893
94736SOL    HW286041   4.876   7.604  11.870
94737SOL     OW86042  11.697   0.629  14.467
94737SOL    HW186043  11.673   0.667  14.552
94737SOL    HW286044  11.780   0.584  14.484
94738SOL     OW86045   7.262   9.387  14.583
94738SOL    HW186046   7.249   9.465  14.635
94738SOL    HW286047   7.356   9.369  14.588
94739SOL     OW86048   4.208   7.772  11.549
94739SOL    HW186049   4.253   7.856  11.541
94739SOL    HW286050   4.162   7.761  11.466
94740SOL     OW86051  10.085   6.891   1.275
94740SOL    HW186052  10.102   6.915   1.184
94740SOL    HW286053  10.029   6.961   1.309
94741SOL     OW86054   4.457  13.804   1.579
94741SOL    HW186055   4.538  13.762   1.607
94741SOL    HW286056   4.428  13.852   1.656
94742SOL     OW86057  11.879   8.282   3.986
94742SOL    HW186058  11.821   8.346   3.945
94742SOL    HW286059  11.929   8.244   3.914
94743SOL     OW86060   2.336  12.400   9.591
94743SOL    HW186061   2.264  12.426   9.534
94743SOL    HW286062   2.415  12.422   9.541
94744SOL     OW86063   4.779   2.901   9.367
94744SOL    HW186064   4.781   2.927   9.459
94744SOL    HW286065   4.829   2.968   9.322
94745SOL     OW86066  10.728   2.261  12.562
94745SOL    HW186067  10.691   2.339  12.603
94745SOL    HW286068  10.769   2.213  12.634
94746SOL     OW86069   1.250  12.588   6.625
94746SOL    HW186070   1.248  12.577   6.720
94746SOL    HW286071   1.278  12.679   6.612
94747SOL     OW86072  12.290   9.676   1.167
94747SOL    HW186073  12.356   9.615   1.200
94747SOL    HW286074  12.341   9.750   1.134
94748SOL     OW86075  14.317   8.118   5.174
94748SOL    HW186076  14.370   8.133   5.096
94748SOL    HW286077  14.346   8.033   5.207
94749SOL     OW86078  14.280   4.930   2.028
94749SOL    HW186079  14.203   4.973   2.066
94749SOL    HW286080  14.351   4.994   2.039
94750SOL     OW86081  10.416  11.468   4.494
94750SOL    HW186082  10.395  11.536   4.430
94750SOL    HW286083  10.462  11.401   4.444
94751SOL     OW86084  10.860   2.783   3.161
94751SOL    HW186085  10.827   2.735   3.236
94751SOL    HW286086  10.956   2.778   3.170
94752SOL     OW86087   4.245   1.208   2.900
94752SOL    HW186088   4.153   1.185   2.913
94752SOL    HW286089   4.243   1.284   2.842
94753SOL     OW86090  10.560   5.845  12.424
94753SOL    HW186091  10.634   5.904  12.439
94753SOL    HW286092  10.596   5.757  12.435
94754SOL     OW86093  13.717  13.695   8.732
94754SOL    HW186094  13.672  13.640   8.668
94754SOL    HW286095  13.750  13.634   8.798
94755SOL     OW86096   4.761  13.411  11.903
94755SOL    HW186097   4.724  13.358  11.832
94755SOL    HW286098   4.724  13.372  11.982
94756SOL     OW86099   7.577   7.515   1.468
94756SOL    HW186100   7.632   7.566   1.528
94756SOL    HW286101   7.512   7.578   1.436
94757SOL     OW86102   9.786  11.389   0.180
94757SOL    HW186103   9.762  11.307   0.137
94757SOL    HW286104   9.842  11.434   0.117
94758SOL     OW86105   5.614   1.395  13.900
94758SOL    HW186106   5.625   1.304  13.871
94758SOL    HW286107   5.613   1.446  13.819
94759SOL     OW86108   5.607   8.854   2.639
94759SOL    HW186109   5.543   8.921   2.663
94759SOL    HW286110   5.568   8.808   2.565
94760SOL     OW86111   3.087  11.016   2.780
94760SOL    HW186112   3.115  10.926   2.794
94760SOL    HW286113   3.009  11.025   2.836
94761SOL     OW86114  10.808   4.717  13.793
94761SOL    HW186115  10.890   4.703  13.745
94761SOL    HW286116  10.780   4.805  13.768
94762SOL     OW86117  14.282   9.649   4.586
94762SOL    HW186118  14.262   9.730   4.633
94762SOL    HW286119  14.246   9.579   4.641
94763SOL     OW86120  13.831   5.159   7.737
94763SOL    HW186121  13.878   5.075   7.738
94763SOL    HW286122  13.743   5.136   7.706
94764SOL     OW86123   7.205   0.515  14.175
94764SOL    HW186124   7.259   0.479  14.245
94764SOL    HW286125   7.115   0.499  14.204
94765SOL     OW86126   2.668   5.471   4.725
94765SOL    HW186127   2.595   5.410   4.714
94765SOL    HW286128   2.688   5.467   4.818
94766SOL     OW86129   6.109   3.610   0.119
94766SOL    HW186130   6.197   3.617   0.155
94766SOL    HW286131   6.122   3.606   0.024
94767SOL     OW86132   7.000   5.546  13.867
94767SOL    HW186133   7.078   5.493  13.886
94767SOL    HW286134   6.936   5.483  13.833
94768SOL     OW86135   3.083   5.795  12.497
94768SOL    HW186136   3.034   5.742  12.560
94768SOL    HW286137   3.051   5.884  12.511
94769SOL     OW86138  10.893   3.818  10.157
94769SOL    HW186139  10.887   3.747  10.221
94769SOL    HW286140  10.870   3.897  10.205
94770SOL     OW86141   2.768  12.440   6.171
94770SOL    HW186142   2.805  12.523   6.200
94770SOL    HW286143   2.687  12.464   6.127
94771SOL     OW86144   7.684  11.245   7.493
94771SOL    HW186145   7.672  11.210   7.581
94771SOL    HW286146   7.609  11.212   7.443
94772SOL     OW86147  14.501   1.524   1.571
94772SOL    HW186148  14.453   1.442   1.585
94772SOL    HW286149  14.453   1.567   1.500
94773SOL     OW86150  13.494   6.189  14.268
94773SOL    HW186151  13.534   6.104  14.289
94773SOL    HW286152  13.514   6.244  14.344
94774SOL     OW86153   3.716   9.320  12.075
94774SOL    HW186154   3.727   9.306  11.981
94774SOL    HW286155   3.624   9.348  12.084
94775SOL     OW86156   6.387   0.910   4.427
94775SOL    HW186157   6.382   0.895   4.332
94775SOL    HW286158   6.329   0.984   4.443
94776SOL     OW86159   0.019   6.751  10.568
94776SOL    HW186160  14.875   6.703  10.646
94776SOL    HW286161   0.103   6.712  10.543
94777SOL     OW86162   6.042   1.055  13.439
94777SOL    HW186163   6.116   1.008  13.476
94777SOL    HW286164   6.060   1.147  13.458
94778SOL     OW86165  13.858   7.749   6.125
94778SOL    HW186166  13.889   7.797   6.201
94778SOL    HW286167  13.772   7.715   6.152
94779SOL     OW86168   2.271  10.176   5.831
94779SOL    HW186169   2.279  10.226   5.912
94779SOL    HW286170   2.307  10.090   5.852
94780SOL     OW86171   9.535   4.544   5.450
94780SOL    HW186172   9.512   4.584   5.534
94780SOL    HW286173   9.481   4.589   5.385
94781SOL     OW86174  14.639   5.539   0.062
94781SOL    HW186175  14.624   5.617   0.009
94781SOL    HW286176  14.595   5.558   0.145
94782SOL     OW86177   1.000   8.770   7.758
94782SOL    HW186178   1.050   8.710   7.813
94782SOL    HW286179   0.935   8.715   7.715
94783SOL     OW86180  14.481   3.149   8.128
94783SOL    HW186181  14.509   3.093   8.200
94783SOL    HW286182  14.560   3.162   8.076
94784SOL     OW86183   9.551   3.002   6.403
94784SOL    HW186184   9.609   2.990   6.327
94784SOL    HW286185   9.609   3.031   6.473
94785SOL     OW86186  13.397   2.319  14.441
94785SOL    HW186187  13.356   2.313  14.355
94785SOL    HW286188  13.373   2.237  14.484
94786SOL     OW86189   8.129  13.212  10.074
94786SOL    HW186190   8.148  13.272  10.002
94786SOL    HW286191   8.186  13.137  10.057
94787SOL     OW86192  11.630   4.950   3.306
94787SOL    HW186193  11.619   4.917   3.217
94787SOL    HW286194  11.561   4.907   3.357
94788SOL     OW86195   2.444  13.504  11.300
94788SOL    HW186196   2.429  13.599  11.304
94788SOL    HW286197   2.365  13.466  11.337
94789SOL     OW86198   0.319   6.024  12.567
94789SOL    HW186199   0.240   6.024  12.514
94789SOL    HW286200   0.338   6.117  12.582
94790SOL     OW86201   5.220   7.079  12.551
94790SOL    HW186202   5.248   7.110  12.637
94790SOL    HW286203   5.292   7.023  12.522
94791SOL     OW86204   5.503   4.397   2.641
94791SOL    HW186205   5.487   4.408   2.735
94791SOL    HW286206   5.434   4.337   2.612
94792SOL     OW86207   0.457  10.067   5.042
94792SOL    HW186208   0.366  10.067   5.012
94792SOL    HW286209   0.455  10.023   5.127
94793SOL     OW86210  13.762   2.104  14.333
94793SOL    HW186211  13.806   2.019  14.344
94793SOL    HW286212  13.765   2.120  14.239
94794SOL     OW86213  10.905   7.232   7.015
94794SOL    HW186214  10.898   7.205   6.924
94794SOL    HW286215  10.983   7.288   7.018
94795SOL     OW86216  11.148   1.062  10.655
94795SOL    HW186217  11.114   0.990  10.708
94795SOL    HW286218  11.141   1.138  10.713
94796SOL     OW86219   2.298   2.954  10.083
94796SOL    HW186220   2.376   2.940  10.030
94796SOL    HW286221   2.315   3.037  10.129
94797SOL     OW86222   9.986  14.672   4.096
94797SOL    HW186223   9.939  14.728   4.034
94797SOL    HW286224  10.069  14.653   4.053
94798SOL     OW86225   9.704   4.272  12.264
94798SOL    HW186226   9.644   4.340  12.233
94798SOL    HW286227   9.691   4.270  12.359
94799SOL     OW86228   7.901  14.322   2.097
94799SOL    HW186229   7.918  14.228   2.108
94799SOL    HW286230   7.877  14.352   2.184
94800SOL     OW86231   3.231   0.283  13.021
94800SOL    HW186232   3.292   0.267  13.093
94800SOL    HW286233   3.160   0.220  13.034
94801SOL     OW86234   1.676   3.341  13.186
94801SOL    HW186235   1.624   3.265  13.213
94801SOL    HW286236   1.632   3.416  13.227
94802SOL     OW86237   0.673  12.502  11.775
94802SOL    HW186238   0.680  12.596  11.793
94802SOL    HW286239   0.665  12.461  11.861
94803SOL     OW86240   5.241   4.478   9.296
94803SOL    HW186241   5.194   4.404   9.335
94803SOL    HW286242   5.184   4.506   9.224
94804SOL     OW86243  11.022  12.935   9.261
94804SOL    HW186244  10.970  12.901   9.334
94804SOL    HW286245  10.991  12.887   9.184
94805SOL     OW86246   0.961  12.661   6.652
94805SOL    HW186247   0.954  12.631   6.743
94805SOL    HW286248   0.986  12.753   6.660
94806SOL     OW86249  12.540   7.540   5.880
94806SOL    HW186250  12.581   7.531   5.794
94806SOL    HW286251  12.459   7.489   5.874
94807SOL     OW86252  10.457   9.814   7.919
94807SOL    HW186253  10.530   9.755   7.940
94807SOL    HW286254  10.497   9.901   7.912
94808SOL     OW86255   6.577   0.722   6.432
94808SOL    HW186256   6.613   0.722   6.343
94808SOL    HW286257   6.485   0.699   6.420
94809SOL     OW86258   4.539   6.475  14.732
94809SOL    HW186259   4.525   6.383  14.756
94809SOL    HW286260   4.452   6.509  14.713
94810SOL     OW86261   1.290   6.726   1.371
94810SOL    HW186262   1.374   6.680   1.372
94810SOL    HW286263   1.271   6.744   1.463
94811SOL     OW86264   2.454   6.586   0.729
94811SOL    HW186265   2.408   6.526   0.670
94811SOL    HW286266   2.492   6.529   0.797
94812SOL     OW86267   1.352   9.330  10.169
94812SOL    HW186268   1.428   9.287  10.207
94812SOL    HW286269   1.347   9.299  10.079
94813SOL     OW86270  10.765  11.473  14.594
94813SOL    HW186271  10.838  11.412  14.609
94813SOL    HW286272  10.805  11.560  14.598
94814SOL     OW86273   6.719   8.750   5.974
94814SOL    HW186274   6.812   8.747   5.954
94814SOL    HW286275   6.687   8.662   5.952
94815SOL     OW86276   6.930   6.036  14.713
94815SOL    HW186277   6.920   6.019  14.807
94815SOL    HW286278   6.988   6.112  14.709
94816SOL     OW86279  14.675  13.704   1.338
94816SOL    HW186280  14.722  13.769   1.286
94816SOL    HW286281  14.737  13.678   1.406
94817SOL     OW86282   3.739  12.030  11.665
94817SOL    HW186283   3.759  12.100  11.603
94817SOL    HW286284   3.663  11.985  11.627
94818SOL     OW86285   6.927   0.637   3.341
94818SOL    HW186286   6.979   0.598   3.271
94818SOL    HW286287   6.933   0.732   3.324
94819SOL     OW86288   4.057   0.692   2.866
94819SOL    HW186289   4.036   0.748   2.941
94819SOL    HW286290   4.049   0.603   2.901
94820SOL     OW86291   1.743   0.325   7.785
94820SOL    HW186292   1.780   0.328   7.697
94820SOL    HW286293   1.709   0.413   7.800
94821SOL     OW86294   9.794  14.877   4.400
94821SOL    HW186295   9.736   0.004   4.476
94821SOL    HW286296   9.738  14.843   4.331
94822SOL     OW86297  14.347   0.383  12.843
94822SOL    HW186298  14.345   0.391  12.938
94822SOL    HW286299  14.276   0.440  12.812
94823SOL     OW86300   9.350  13.554  11.104
94823SOL    HW186301   9.268  13.602  11.117
94823SOL    HW286302   9.390  13.596  11.028
94824SOL     OW86303   0.635  13.336  10.181
94824SOL    HW186304   0.658  13.421  10.144
94824SOL    HW286305   0.685  13.331  10.262
94825SOL     OW86306   0.593   8.228   9.175
94825SOL    HW186307   0.545   8.148   9.195
94825SOL    HW286308   0.673   8.223   9.227
94826SOL     OW86309   8.605  10.274   7.561
94826SOL    HW186310   8.551  10.305   7.489
94826SOL    HW286311   8.582  10.332   7.634
94827SOL     OW86312   1.575   0.397   2.962
94827SOL    HW186313   1.597   0.483   2.999
94827SOL    HW286314   1.488   0.378   2.997
94828SOL     OW86315  12.441   8.505   8.635
94828SOL    HW186316  12.377   8.489   8.704
94828SOL    HW286317  12.429   8.433   8.573
94829SOL     OW86318  14.162   3.556   8.838
94829SOL    HW186319  14.078   3.538   8.880
94829SOL    HW286320  14.142   3.617   8.768
94830SOL     OW86321   5.154   2.651   3.497
94830SOL    HW186322   5.099   2.672   3.422
94830SOL    HW286323   5.094   2.613   3.561
94831SOL     OW86324   0.853   3.966   7.575
94831SOL    HW186325   0.760   3.943   7.579
94831SOL    HW286326   0.890   3.905   7.512
94832SOL     OW86327   0.083   7.367   0.986
94832SOL    HW186328   0.069   7.432   0.918
94832SOL    HW286329  14.880   7.360   1.030
94833SOL     OW86330  12.515   5.470   9.214
94833SOL    HW186331  12.558   5.494   9.132
94833SOL    HW286332  12.426   5.444   9.188
94834SOL     OW86333   5.493   0.667   8.981
94834SOL    HW186334   5.414   0.695   9.027
94834SOL    HW286335   5.561   0.665   9.049
94835SOL     OW86336   7.389   9.508  10.558
94835SOL    HW186337   7.333   9.447  10.509
94835SOL    HW286338   7.349   9.512  10.645
94836SOL     OW86339  10.318  13.914  11.164
94836SOL    HW186340  10.265  13.955  11.233
94836SOL    HW286341  10.294  13.822  11.167
94837SOL     OW86342  12.086  10.538   4.136
94837SOL    HW186343  12.152  10.536   4.205
94837SOL    HW286344  12.002  10.542   4.182
94838SOL     OW86345   8.435   7.430   2.074
94838SOL    HW186346   8.340   7.445   2.071
94838SOL    HW286347   8.445   7.348   2.123
94839SOL     OW86348  11.350   7.787   6.900
94839SOL    HW186349  11.302   7.764   6.820
94839SOL    HW286350  11.398   7.708   6.922
94840SOL     OW86351  12.931   4.288  12.442
94840SOL    HW186352  12.984   4.368  12.451
94840SOL    HW286353  12.992   4.222  12.410
94841SOL     OW86354   9.072  11.529   1.305
94841SOL    HW186355   9.000  11.478   1.267
94841SOL    HW286356   9.052  11.620   1.282
94842SOL     OW86357   6.946   2.568  14.287
94842SOL    HW186358   6.868   2.616  14.315
94842SOL    HW286359   6.917   2.514  14.214
94843SOL     OW86360   9.907   9.913  13.208
94843SOL    HW186361   9.906   9.916  13.113
94843SOL    HW286362   9.952   9.993  13.235
94844SOL     OW86363   9.710   9.772   3.248
94844SOL    HW186364   9.780   9.707   3.249
94844SOL    HW286365   9.687   9.781   3.156
94845SOL     OW86366   0.512   5.886   9.704
94845SOL    HW186367   0.457   5.823   9.750
94845SOL    HW286368   0.554   5.836   9.634
94846SOL     OW86369   4.060   3.101  14.437
94846SOL    HW186370   4.101   3.183  14.411
94846SOL    HW286371   4.021   3.067  14.356
94847SOL     OW86372   9.002   2.894   2.013
94847SOL    HW186373   8.988   2.908   1.919
94847SOL    HW286374   9.064   2.963   2.038
94848SOL     OW86375   1.720  10.117  10.721
94848SOL    HW186376   1.727  10.103  10.627
94848SOL    HW286377   1.741  10.032  10.760
94849SOL     OW86378   6.533  12.911  13.208
94849SOL    HW186379   6.470  12.856  13.163
94849SOL    HW286380   6.612  12.858  13.215
94850SOL     OW86381  12.106   0.551  11.015
94850SOL    HW186382  12.107   0.639  11.052
94850SOL    HW286383  12.014   0.532  10.998
94851SOL     OW86384   0.191   6.405   6.722
94851SOL    HW186385   0.168   6.354   6.799
94851SOL    HW286386   0.146   6.489   6.735
94852SOL     OW86387  10.665  10.964   9.815
94852SOL    HW186388  10.716  11.022   9.870
94852SOL    HW286389  10.699  10.978   9.727
94853SOL     OW86390  12.842   5.202   7.633
94853SOL    HW186391  12.857   5.115   7.596
94853SOL    HW286392  12.755   5.196   7.673
94854SOL     OW86393   2.777   6.484   8.994
94854SOL    HW186394   2.728   6.438   8.926
94854SOL    HW286395   2.756   6.576   8.981
94855SOL     OW86396   7.322   6.253   8.234
94855SOL    HW186397   7.271   6.300   8.168
94855SOL    HW286398   7.400   6.307   8.248
94856SOL     OW86399  13.512   6.912   3.340
94856SOL    HW186400  13.502   7.007   3.330
94856SOL    HW286401  13.601   6.895   3.309
94857SOL     OW86402  11.369   5.025   4.047
94857SOL    HW186403  11.438   5.087   4.072
94857SOL    HW286404  11.416   4.952   4.008
94858SOL     OW86405   4.747  11.997   0.593
94858SOL    HW186406   4.753  11.965   0.503
94858SOL    HW286407   4.769  12.090   0.587
94859SOL     OW86408   6.355  11.811  13.942
94859SOL    HW186409   6.286  11.873  13.968
94859SOL    HW286410   6.315  11.725  13.954
94860SOL     OW86411  14.689  13.906   1.100
94860SOL    HW186412  14.770  13.948   1.128
94860SOL    HW286413  14.702  13.885   1.008
94861SOL     OW86414   4.731   0.726   7.329
94861SOL    HW186415   4.709   0.633   7.321
94861SOL    HW286416   4.760   0.752   7.242
94862SOL     OW86417   4.371  12.161  13.065
94862SOL    HW186418   4.445  12.215  13.092
94862SOL    HW286419   4.312  12.222  13.020
94863SOL     OW86420   4.219  10.457   6.939
94863SOL    HW186421   4.255  10.423   7.021
94863SOL    HW286422   4.182  10.380   6.897
94864SOL     OW86423   1.200  13.670   2.100
94864SOL    HW186424   1.204  13.737   2.032
94864SOL    HW286425   1.265  13.697   2.165
94865SOL     OW86426   3.482   1.009   2.214
94865SOL    HW186427   3.440   1.069   2.152
94865SOL    HW286428   3.538   1.065   2.268
94866SOL     OW86429   3.589   1.485   5.347
94866SOL    HW186430   3.662   1.432   5.317
94866SOL    HW286431   3.629   1.567   5.377
94867SOL     OW86432  10.285  10.756  11.971
94867SOL    HW186433  10.348  10.756  11.900
94867SOL    HW286434  10.223  10.686  11.949
94868SOL     OW86435  12.897   3.845   9.090
94868SOL    HW186436  12.851   3.922   9.122
94868SOL    HW286437  12.848   3.818   9.012
94869SOL     OW86438   3.383  11.216   9.061
94869SOL    HW186439   3.399  11.235   8.968
94869SOL    HW286440   3.463  11.173   9.091
94870SOL     OW86441  11.645   6.305  13.153
94870SOL    HW186442  11.577   6.263  13.207
94870SOL    HW286443  11.639   6.261  13.069
94871SOL     OW86444  12.837   7.938   0.649
94871SOL    HW186445  12.916   7.885   0.637
94871SOL    HW286446  12.770   7.894   0.597
94872SOL     OW86447   7.631   1.587  10.812
94872SOL    HW186448   7.716   1.607  10.851
94872SOL    HW286449   7.615   1.495  10.835
94873SOL     OW86450  12.885  13.674  12.800
94873SOL    HW186451  12.945  13.632  12.862
94873SOL    HW286452  12.885  13.766  12.826
94874SOL     OW86453   9.565   5.337  11.557
94874SOL    HW186454   9.551   5.242  11.556
94874SOL    HW286455   9.563   5.361  11.649
94875SOL     OW86456  11.140   4.159  12.865
94875SOL    HW186457  11.182   4.083  12.827
94875SOL    HW286458  11.136   4.140  12.959
94876SOL     OW86459   5.639  11.378   3.308
94876SOL    HW186460   5.599  11.316   3.247
94876SOL    HW286461   5.571  11.443   3.325
94877SOL     OW86462   4.400  12.265   1.870
94877SOL    HW186463   4.463  12.200   1.838
94877SOL    HW286464   4.449  12.317   1.933
94878SOL     OW86465  10.721   1.905  10.113
94878SOL    HW186466  10.802   1.878  10.156
94878SOL    HW286467  10.663   1.932  10.185
94879SOL     OW86468   6.004   6.431   7.978
94879SOL    HW186469   5.957   6.486   8.042
94879SOL    HW286470   5.961   6.450   7.895
94880SOL     OW86471  14.094   7.738   8.320
94880SOL    HW186472  14.035   7.813   8.333
94880SOL    HW286473  14.179   7.777   8.300
94881SOL     OW86474   9.238   0.207   0.561
94881SOL    HW186475   9.208   0.124   0.523
94881SOL    HW286476   9.158   0.259   0.570
94882SOL     OW86477   4.043   5.268  14.795
94882SOL    HW186478   4.115   5.204  14.794
94882SOL    HW286479   3.974   5.225  14.845
94883SOL     OW86480  14.828   5.194   0.205
94883SOL    HW186481  14.875   5.217   0.285
94883SOL    HW286482  14.849   5.264   0.143
94884SOL     OW86483   7.388   2.445   9.533
94884SOL    HW186484   7.409   2.371   9.477
94884SOL    HW286485   7.359   2.514   9.473
94885SOL     OW86486  14.242   9.246  11.153
94885SOL    HW186487  14.248   9.337  11.123
94885SOL    HW286488  14.327   9.228  11.193
94886SOL     OW86489   2.450   1.391  10.223
94886SOL    HW186490   2.362   1.354  10.237
94886SOL    HW286491   2.452   1.470  10.277
94887SOL     OW86492  13.170   9.456  11.976
94887SOL    HW186493  13.172   9.552  11.973
94887SOL    HW286494  13.241   9.433  12.035
94888SOL     OW86495   3.948   7.582  14.088
94888SOL    HW186496   3.854   7.599  14.089
94888SOL    HW286497   3.987   7.658  14.131
94889SOL     OW86498   1.188  14.060   5.806
94889SOL    HW186499   1.107  14.086   5.852
94889SOL    HW286500   1.158  14.031   5.720
94890SOL     OW86501   7.489   5.437  13.796
94890SOL    HW186502   7.541   5.514  13.820
94890SOL    HW286503   7.547   5.384  13.743
94891SOL     OW86504   2.134   1.480   3.388
94891SOL    HW186505   2.146   1.488   3.483
94891SOL    HW286506   2.066   1.414   3.378
94892SOL     OW86507   5.870  10.685   6.073
94892SOL    HW186508   5.962  10.667   6.051
94892SOL    HW286509   5.832  10.599   6.091
94893SOL     OW86510   7.100   7.581   0.436
94893SOL    HW186511   7.163   7.624   0.495
94893SOL    HW286512   7.155   7.528   0.378
94894SOL     OW86513  13.418   7.574  12.134
94894SOL    HW186514  13.382   7.610  12.053
94894SOL    HW286515  13.369   7.618  12.204
94895SOL     OW86516   1.558  13.815   2.468
94895SOL    HW186517   1.581  13.867   2.391
94895SOL    HW286518   1.638  13.813   2.521
94896SOL     OW86519  14.209   1.713   7.360
94896SOL    HW186520  14.170   1.698   7.446
94896SOL    HW286521  14.148   1.771   7.316
94897SOL     OW86522   8.043  10.094   8.039
94897SOL    HW186523   8.125  10.104   8.088
94897SOL    HW286524   8.047  10.162   7.972
94898SOL     OW86525  10.141   6.555  11.361
94898SOL    HW186526  10.131   6.577  11.269
94898SOL    HW286527  10.053   6.566  11.398
94899SOL     OW86528  13.924   2.608   5.170
94899SOL    HW186529  13.990   2.586   5.236
94899SOL    HW286530  13.974   2.634   5.093
94900SOL     OW86531  11.623   4.404   7.963
94900SOL    HW186532  11.646   4.497   7.954
94900SOL    HW286533  11.705   4.357   7.948
94901SOL     OW86534   2.920   4.311   0.484
94901SOL    HW186535   2.896   4.219   0.489
94901SOL    HW286536   2.875   4.352   0.558
94902SOL     OW86537  13.447   0.404   4.926
94902SOL    HW186538  13.456   0.314   4.957
94902SOL    HW286539  13.536   0.431   4.904
94903SOL     OW86540   5.364   8.641   7.428
94903SOL    HW186541   5.375   8.571   7.492
94903SOL    HW286542   5.431   8.624   7.362
94904SOL     OW86543  11.242   9.528   8.355
94904SOL    HW186544  11.272   9.465   8.420
94904SOL    HW286545  11.178   9.479   8.303
94905SOL     OW86546   0.679   8.480   7.012
94905SOL    HW186547   0.737   8.478   6.936
94905SOL    HW286548   0.719   8.420   7.075
94906SOL     OW86549   2.288   5.731   5.429
94906SOL    HW186550   2.325   5.733   5.517
94906SOL    HW286551   2.194   5.742   5.443
94907SOL     OW86552  12.291  12.981   4.971
94907SOL    HW186553  12.272  13.072   4.948
94907SOL    HW286554  12.387  12.974   4.964
94908SOL     OW86555  12.217  13.787  13.559
94908SOL    HW186556  12.123  13.779  13.538
94908SOL    HW286557  12.221  13.860  13.621
94909SOL     OW86558   2.978   6.018  12.561
94909SOL    HW186559   3.038   6.090  12.582
94909SOL    HW286560   2.906   6.028  12.623
94910SOL     OW86561   2.754   7.367   2.755
94910SOL    HW186562   2.710   7.446   2.724
94910SOL    HW286563   2.717   7.296   2.702
94911SOL     OW86564   2.167   9.230   2.557
94911SOL    HW186565   2.146   9.202   2.647
94911SOL    HW286566   2.113   9.174   2.502
94912SOL     OW86567  12.671  11.950   6.055
94912SOL    HW186568  12.629  11.939   5.970
94912SOL    HW286569  12.661  11.865   6.098
94913SOL     OW86570  10.913   9.580   0.382
94913SOL    HW186571  10.951   9.666   0.365
94913SOL    HW286572  10.836   9.576   0.326
94914SOL     OW86573   0.661  12.253  13.585
94914SOL    HW186574   0.646  12.233  13.678
94914SOL    HW286575   0.756  12.245  13.574
94915SOL     OW86576   4.759   5.632   0.492
94915SOL    HW186577   4.781   5.543   0.465
94915SOL    HW286578   4.840   5.665   0.531
94916SOL     OW86579  11.842  14.624   4.805
94916SOL    HW186580  11.821  14.680   4.880
94916SOL    HW286581  11.908  14.672   4.756
94917SOL     OW86582   7.614  10.226   8.175
94917SOL    HW186583   7.582  10.188   8.093
94917SOL    HW286584   7.680  10.290   8.147
94918SOL     OW86585   0.387  10.655   3.234
94918SOL    HW186586   0.453  10.633   3.169
94918SOL    HW286587   0.401  10.747   3.254
94919SOL     OW86588  14.507   4.297  11.295
94919SOL    HW186589  14.579   4.268  11.239
94919SOL    HW286590  14.447   4.222  11.298
94920SOL     OW86591   1.393  11.017  11.699
94920SOL    HW186592   1.464  11.081  11.708
94920SOL    HW286593   1.436  10.933  11.711
94921SOL     OW86594   1.920   7.747   5.068
94921SOL    HW186595   1.933   7.766   4.975
94921SOL    HW286596   1.853   7.679   5.070
94922SOL     OW86597   9.760  13.345   7.615
94922SOL    HW186598   9.799  13.261   7.640
94922SOL    HW286599   9.691  13.358   7.680
94923SOL     OW86600  11.487  11.273   9.623
94923SOL    HW186601  11.402  11.306   9.592
94923SOL    HW286602  11.552  11.326   9.577
94924SOL     OW86603  13.592  10.471  13.871
94924SOL    HW186604  13.498  10.458  13.882
94924SOL    HW286605  13.608  10.559  13.904
94925SOL     OW86606   1.360   7.592  12.707
94925SOL    HW186607   1.304   7.568  12.781
94925SOL    HW286608   1.438   7.630  12.748
94926SOL     OW86609  12.725   2.670  12.272
94926SOL    HW186610  12.715   2.605  12.203
94926SOL    HW286611  12.662   2.739  12.250
94927SOL     OW86612  14.861  10.498   4.050
94927SOL    HW186613  14.776  10.538   4.068
94927SOL    HW286614  14.847  10.404   4.061
94928SOL     OW86615   7.944   5.921   0.399
94928SOL    HW186616   7.912   5.950   0.313
94928SOL    HW286617   7.899   5.838   0.415
94929SOL     OW86618   5.811  13.613   4.937
94929SOL    HW186619   5.854  13.547   4.882
94929SOL    HW286620   5.755  13.661   4.877
94930SOL     OW86621  14.302   9.009   5.494
94930SOL    HW186622  14.377   9.069   5.498
94930SOL    HW286623  14.335   8.927   5.531
94931SOL     OW86624   4.853   1.711   1.099
94931SOL    HW186625   4.901   1.794   1.102
94931SOL    HW286626   4.794   1.720   1.024
94932SOL     OW86627  12.976  13.042   1.554
94932SOL    HW186628  13.051  13.101   1.546
94932SOL    HW286629  12.991  12.994   1.636
94933SOL     OW86630   5.956   6.582   8.219
94933SOL    HW186631   5.918   6.510   8.269
94933SOL    HW286632   5.998   6.638   8.284
94934SOL     OW86633   1.278  11.372  14.603
94934SOL    HW186634   1.230  11.414  14.675
94934SOL    HW286635   1.213  11.362  14.534
94935SOL     OW86636   3.410   5.898   1.572
94935SOL    HW186637   3.380   5.920   1.484
94935SOL    HW286638   3.333   5.861   1.615
94936SOL     OW86639   5.960  12.335   5.201
94936SOL    HW186640   5.873  12.313   5.168
94936SOL    HW286641   5.980  12.419   5.160
94937SOL     OW86642   3.883   6.624   5.810
94937SOL    HW186643   3.816   6.645   5.745
94937SOL    HW286644   3.884   6.699   5.869
94938SOL     OW86645   4.122   3.158   4.994
94938SOL    HW186646   4.200   3.176   4.942
94938SOL    HW286647   4.057   3.221   4.964
94939SOL     OW86648  11.099   7.096  10.778
94939SOL    HW186649  11.173   7.045  10.809
94939SOL    HW286650  11.137   7.180  10.753
94940SOL     OW86651  14.672   3.338  13.043
94940SOL    HW186652  14.617   3.336  12.964
94940SOL    HW286653  14.616   3.379  13.110
94941SOL     OW86654   5.817   6.192   3.527
94941SOL    HW186655   5.765   6.128   3.576
94941SOL    HW286656   5.906   6.182   3.560
94942SOL     OW86657   0.584   8.678   9.134
94942SOL    HW186658   0.570   8.748   9.198
94942SOL    HW286659   0.561   8.718   9.050
94943SOL     OW86660   1.233   7.434   1.971
94943SOL    HW186661   1.297   7.371   2.004
94943SOL    HW286662   1.164   7.435   2.038
94944SOL     OW86663  10.953   3.216   5.137
94944SOL    HW186664  10.959   3.260   5.222
94944SOL    HW286665  10.961   3.123   5.158
94945SOL     OW86666   4.650   7.213  14.736
94945SOL    HW186667   4.653   7.168  14.821
94945SOL    HW286668   4.740   7.243  14.721
94946SOL     OW86669   4.893  13.795   6.656
94946SOL    HW186670   4.959  13.863   6.670
94946SOL    HW286671   4.944  13.717   6.632
94947SOL     OW86672   3.282   1.512   9.481
94947SOL    HW186673   3.337   1.556   9.416
94947SOL    HW286674   3.241   1.583   9.529
94948SOL     OW86675   0.032   4.193  11.388
94948SOL    HW186676   0.114   4.172  11.433
94948SOL    HW286677   0.037   4.287  11.372
94949SOL     OW86678   8.304  12.970  12.481
94949SOL    HW186679   8.282  13.034  12.549
94949SOL    HW286680   8.242  12.987  12.411
94950SOL     OW86681   9.175  12.545  13.628
94950SOL    HW186682   9.147  12.460  13.595
94950SOL    HW286683   9.194  12.597  13.550
94951SOL     OW86684   9.114   1.496  14.798
94951SOL    HW186685   9.073   1.410  14.809
94951SOL    HW286686   9.087   1.545  14.875
94952SOL     OW86687   8.012   9.075   1.865
94952SOL    HW186688   8.026   8.987   1.902
94952SOL    HW286689   8.061   9.074   1.783
94953SOL     OW86690   4.907   8.571   8.953
94953SOL    HW186691   4.928   8.654   8.995
94953SOL    HW286692   4.974   8.560   8.886
94954SOL     OW86693   4.877   0.534   0.215
94954SOL    HW186694   4.884   0.609   0.156
94954SOL    HW286695   4.819   0.563   0.285
94955SOL     OW86696   6.969   3.969   9.513
94955SOL    HW186697   6.989   4.039   9.575
94955SOL    HW286698   6.938   3.896   9.567
94956SOL     OW86699   0.359  14.754   2.799
94956SOL    HW186700   0.393  14.737   2.711
94956SOL    HW286701   0.290  14.688   2.811
94957SOL     OW86702  11.847  12.956   4.923
94957SOL    HW186703  11.775  13.018   4.932
94957SOL    HW286704  11.861  12.948   4.828
94958SOL     OW86705   2.079   8.664  11.753
94958SOL    HW186706   2.039   8.751  11.759
94958SOL    HW286707   2.137   8.669  11.677
94959SOL     OW86708   5.334   3.296   0.131
94959SOL    HW186709   5.354   3.385   0.159
94959SOL    HW286710   5.320   3.247   0.212
94960SOL     OW86711  11.187   1.397   8.827
94960SOL    HW186712  11.254   1.420   8.762
94960SOL    HW286713  11.139   1.478   8.842
94961SOL     OW86714  10.720  10.030  14.307
94961SOL    HW186715  10.735  10.028  14.212
94961SOL    HW286716  10.805  10.057  14.343
94962SOL     OW86717   6.862   3.935  10.778
94962SOL    HW186718   6.901   4.014  10.815
94962SOL    HW286719   6.852   3.955  10.684
94963SOL     OW86720  11.611   9.583   4.023
94963SOL    HW186721  11.602   9.669   3.982
94963SOL    HW286722  11.521   9.550   4.028
94964SOL     OW86723  13.957   3.707   6.243
94964SOL    HW186724  13.915   3.791   6.263
94964SOL    HW286725  14.047   3.730   6.220
94965SOL     OW86726   9.760  10.346   1.726
94965SOL    HW186727   9.718  10.390   1.652
94965SOL    HW286728   9.757  10.410   1.797
94966SOL     OW86729   6.815   3.603   7.940
94966SOL    HW186730   6.814   3.602   8.036
94966SOL    HW286731   6.907   3.589   7.917
94967SOL     OW86732   9.385   5.406   2.432
94967SOL    HW186733   9.394   5.311   2.424
94967SOL    HW286734   9.459   5.433   2.486
94968SOL     OW86735   6.955   4.408   4.456
94968SOL    HW186736   6.906   4.460   4.520
94968SOL    HW286737   6.906   4.327   4.449
94969SOL     OW86738   7.184  10.650   2.732
94969SOL    HW186739   7.255  10.656   2.668
94969SOL    HW286740   7.166  10.556   2.740
94970SOL     OW86741   6.470   3.884   2.002
94970SOL    HW186742   6.466   3.804   2.054
94970SOL    HW286743   6.493   3.854   1.914
94971SOL     OW86744  10.418   2.346   1.945
94971SOL    HW186745  10.367   2.309   1.873
94971SOL    HW286746  10.416   2.440   1.929
94972SOL     OW86747   0.119  12.278   1.062
94972SOL    HW186748   0.093  12.206   1.005
94972SOL    HW286749   0.132  12.353   1.003
94973SOL     OW86750   4.380   5.309  12.057
94973SOL    HW186751   4.434   5.366  12.112
94973SOL    HW286752   4.391   5.344  11.968
94974SOL     OW86753   3.849   4.416   6.756
94974SOL    HW186754   3.823   4.330   6.790
94974SOL    HW286755   3.769   4.469   6.764
94975SOL     OW86756  11.921   8.528   2.292
94975SOL    HW186757  11.867   8.577   2.231
94975SOL    HW286758  11.888   8.552   2.379
94976SOL     OW86759   1.457   9.132   9.374
94976SOL    HW186760   1.488   9.216   9.339
94976SOL    HW286761   1.494   9.067   9.315
94977SOL     OW86762  13.013   8.604   8.153
94977SOL    HW186763  13.087   8.657   8.122
94977SOL    HW286764  12.936   8.660   8.139
94978SOL     OW86765   4.618   3.035   7.158
94978SOL    HW186766   4.591   2.993   7.240
94978SOL    HW286767   4.537   3.066   7.119
94979SOL     OW86768  10.425   9.244  10.055
94979SOL    HW186769  10.501   9.233  10.113
94979SOL    HW286770  10.411   9.339  10.053
94980SOL     OW86771   3.827  12.618   5.604
94980SOL    HW186772   3.879  12.542   5.634
94980SOL    HW286773   3.808  12.598   5.512
94981SOL     OW86774   6.519   6.025   2.003
94981SOL    HW186775   6.540   6.054   2.092
94981SOL    HW286776   6.556   5.937   1.997
94982SOL     OW86777  10.770   3.749  12.968
94982SOL    HW186778  10.824   3.824  12.994
94982SOL    HW286779  10.802   3.724  12.882
94983SOL     OW86780   4.142   4.537   2.575
94983SOL    HW186781   4.049   4.513   2.573
94983SOL    HW286782   4.188   4.456   2.551
94984SOL     OW86783   1.345   7.312  12.106
94984SOL    HW186784   1.279   7.332  12.040
94984SOL    HW286785   1.404   7.250  12.064
94985SOL     OW86786   5.248   2.287   8.602
94985SOL    HW186787   5.292   2.312   8.682
94985SOL    HW286788   5.155   2.282   8.625
94986SOL     OW86789   4.062   2.894   1.346
94986SOL    HW186790   4.082   2.986   1.328
94986SOL    HW286791   4.090   2.848   1.267
94987SOL     OW86792   4.972  12.754   9.388
94987SOL    HW186793   4.909  12.823   9.410
94987SOL    HW286794   4.974  12.697   9.465
94988SOL     OW86795  12.065  12.282   4.321
94988SOL    HW186796  12.082  12.248   4.233
94988SOL    HW286797  12.126  12.355   4.331
94989SOL     OW86798   7.825   6.528  14.051
94989SOL    HW186799   7.849   6.507  14.141
94989SOL    HW286800   7.756   6.465  14.029
94990SOL     OW86801   0.056   1.138  14.446
94990SOL    HW186802   0.073   1.204  14.513
94990SOL    HW286803  14.857   1.095  14.474
94991SOL     OW86804   6.725   2.744   6.092
94991SOL    HW186805   6.748   2.651   6.089
94991SOL    HW286806   6.706   2.761   6.184
94992SOL     OW86807  11.935   2.046   3.654
94992SOL    HW186808  11.898   2.134   3.667
94992SOL    HW286809  12.018   2.061   3.609
94993SOL     OW86810   1.180  13.988   6.739
94993SOL    HW186811   1.262  13.939   6.730
94993SOL    HW286812   1.123  13.950   6.671
94994SOL     OW86813  12.924  13.119  11.494
94994SOL    HW186814  12.939  13.095  11.402
94994SOL    HW286815  12.851  13.064  11.522
94995SOL     OW86816  14.084  10.523  10.474
94995SOL    HW186817  14.115  10.449  10.421
94995SOL    HW286818  14.146  10.593  10.454
94996SOL     OW86819  12.356   4.925   0.561
94996SOL    HW186820  12.289   4.856   0.559
94996SOL    HW286821  12.392   4.921   0.649
94997SOL     OW86822   9.304   5.477  10.948
94997SOL    HW186823   9.325   5.463  11.040
94997SOL    HW286824   9.248   5.402  10.925
94998SOL     OW86825   3.303  10.125  10.824
94998SOL    HW186826   3.296  10.056  10.758
94998SOL    HW286827   3.388  10.166  10.808
94999SOL     OW86828   1.050   9.632  11.322
94999SOL    HW186829   0.994   9.622  11.245
94999SOL    HW286830   1.103   9.709  11.304
95000SOL     OW86831   3.658  12.139  11.891
95000SOL    HW186832   3.577  12.184  11.867
95000SOL    HW286833   3.687  12.099  11.809
95001SOL     OW86834  12.056  12.952  12.980
95001SOL    HW186835  12.053  12.961  12.885
95001SOL    HW286836  11.964  12.940  13.006
95002SOL     OW86837   6.876   3.852   6.622
95002SOL    HW186838   6.920   3.895   6.548
95002SOL    HW286839   6.863   3.762   6.593
95003SOL     OW86840  12.997  10.144   4.537
95003SOL    HW186841  13.039  10.060   4.516
95003SOL    HW286842  13.068  10.198   4.572
95004SOL     OW86843   7.567  10.830  13.753
95004SOL    HW186844   7.597  10.835  13.662
95004SOL    HW286845   7.577  10.919  13.787
95005SOL     OW86846   0.170   0.800   7.286
95005SOL    HW186847   0.162   0.827   7.377
95005SOL    HW286848   0.263   0.810   7.266
95006SOL     OW86849   4.476   7.002   5.937
95006SOL    HW186850   4.459   7.059   5.862
95006SOL    HW286851   4.489   7.062   6.010
95007SOL     OW86852   1.603   9.758   9.365
95007SOL    HW186853   1.532   9.704   9.398
95007SOL    HW286854   1.681   9.704   9.373
95008SOL     OW86855   8.262   6.332   1.822
95008SOL    HW186856   8.209   6.291   1.753
95008SOL    HW286857   8.268   6.424   1.795
95009SOL     OW86858   5.964   8.125   3.844
95009SOL    HW186859   5.975   8.194   3.779
95009SOL    HW286860   5.871   8.106   3.844
95010SOL     OW86861   7.701   1.992  10.729
95010SOL    HW186862   7.776   2.011  10.786
95010SOL    HW286863   7.735   2.006  10.641
95011SOL     OW86864   5.990   0.839   5.155
95011SOL    HW186865   5.914   0.781   5.151
95011SOL    HW286866   6.051   0.803   5.092
95012SOL     OW86867   5.521   8.400  14.624
95012SOL    HW186868   5.581   8.332  14.653
95012SOL    HW286869   5.476   8.428  14.703
95013SOL     OW86870   7.602  14.604  12.360
95013SOL    HW186871   7.518  14.589  12.316
95013SOL    HW286872   7.658  14.533  12.329
95014SOL     OW86873  13.765  11.031   3.390
95014SOL    HW186874  13.706  11.018   3.316
95014SOL    HW286875  13.708  11.058   3.462
95015SOL     OW86876   7.580   4.826   0.710
95015SOL    HW186877   7.639   4.753   0.726
95015SOL    HW286878   7.521   4.796   0.641
95016SOL     OW86879   8.772   5.690  12.011
95016SOL    HW186880   8.752   5.775  11.972
95016SOL    HW286881   8.743   5.626  11.946
95017SOL     OW86882  14.800   7.836   1.774
95017SOL    HW186883  14.786   7.855   1.867
95017SOL    HW286884  14.776   7.918   1.730
95018SOL     OW86885  10.357   8.740  14.269
95018SOL    HW186886  10.431   8.795  14.243
95018SOL    HW286887  10.309   8.792  14.333
95019SOL     OW86888   5.785  14.792   4.064
95019SOL    HW186889   5.874  14.805   4.096
95019SOL    HW286890   5.740  14.744   4.134
95020SOL     OW86891   1.730   9.114   4.884
95020SOL    HW186892   1.658   9.079   4.936
95020SOL    HW286893   1.695   9.191   4.841
95021SOL     OW86894   7.724  11.449   2.279
95021SOL    HW186895   7.704  11.472   2.188
95021SOL    HW286896   7.713  11.531   2.327
95022SOL     OW86897   0.541  12.206   9.837
95022SOL    HW186898   0.542  12.269   9.909
95022SOL    HW286899   0.634  12.195   9.814
95023SOL     OW86900  14.049   7.976  14.154
95023SOL    HW186901  14.109   8.006  14.086
95023SOL    HW286902  14.065   7.882  14.161
95024SOL     OW86903   0.800   0.606   4.943
95024SOL    HW186904   0.750   0.580   4.866
95024SOL    HW286905   0.803   0.701   4.939
95025SOL     OW86906  13.641   1.915   5.247
95025SOL    HW186907  13.689   1.948   5.170
95025SOL    HW286908  13.569   1.977   5.259
95026SOL     OW86909   5.520   7.715   7.691
95026SOL    HW186910   5.584   7.782   7.716
95026SOL    HW286911   5.442   7.764   7.667
95027SOL     OW86912   5.693   4.987  14.634
95027SOL    HW186913   5.683   4.914  14.695
95027SOL    HW286914   5.735   5.055  14.686
95028SOL     OW86915   6.500  14.143   5.061
95028SOL    HW186916   6.574  14.169   5.007
95028SOL    HW286917   6.524  14.058   5.097
95029SOL     OW86918   6.673   0.197   1.566
95029SOL    HW186919   6.711   0.170   1.650
95029SOL    HW286920   6.583   0.222   1.587
95030SOL     OW86921  12.290   7.565   8.698
95030SOL    HW186922  12.305   7.657   8.678
95030SOL    HW286923  12.378   7.529   8.712
95031SOL     OW86924   9.629   4.296   6.111
95031SOL    HW186925   9.626   4.217   6.166
95031SOL    HW286926   9.622   4.263   6.022
95032SOL     OW86927   9.522   7.800   7.821
95032SOL    HW186928   9.456   7.799   7.752
95032SOL    HW286929   9.484   7.854   7.890
95033SOL     OW86930   2.336   9.129   1.488
95033SOL    HW186931   2.321   9.223   1.499
95033SOL    HW286932   2.414   9.123   1.434
95034SOL     OW86933   5.135   6.136   2.408
95034SOL    HW186934   5.184   6.132   2.490
95034SOL    HW286935   5.061   6.194   2.428
95035SOL     OW86936   2.428   0.426   4.175
95035SOL    HW186937   2.477   0.451   4.253
95035SOL    HW286938   2.480   0.355   4.137
95036SOL     OW86939   2.869  13.882  12.842
95036SOL    HW186940   2.802  13.942  12.812
95036SOL    HW286941   2.852  13.801  12.793
95037SOL     OW86942  13.708   3.896   4.322
95037SOL    HW186943  13.677   3.951   4.394
95037SOL    HW286944  13.794   3.932   4.300
95038SOL     OW86945   4.006  10.387   7.175
95038SOL    HW186946   3.940  10.442   7.132
95038SOL    HW286947   4.064  10.448   7.220
95039SOL     OW86948   9.406   0.668   7.857
95039SOL    HW186949   9.334   0.628   7.807
95039SOL    HW286950   9.451   0.723   7.793
95040SOL     OW86951   3.367   6.389   6.671
95040SOL    HW186952   3.355   6.326   6.742
95040SOL    HW286953   3.309   6.357   6.602
95041SOL     OW86954   4.582  11.081   1.293
95041SOL    HW186955   4.588  11.003   1.237
95041SOL    HW286956   4.493  11.114   1.278
95042SOL     OW86957  14.013   5.959   5.996
95042SOL    HW186958  14.049   5.911   5.921
95042SOL    HW286959  13.963   6.030   5.957
95043SOL     OW86960   1.112  10.966   3.649
95043SOL    HW186961   1.094  10.885   3.600
95043SOL    HW286962   1.112  10.938   3.740
95044SOL     OW86963  10.690   6.695   5.261
95044SOL    HW186964  10.644   6.728   5.183
95044SOL    HW286965  10.761   6.758   5.276
95045SOL     OW86966   5.969   8.255  13.053
95045SOL    HW186967   6.002   8.166  13.064
95045SOL    HW286968   5.895   8.261  13.113
95046SOL     OW86969   3.323   2.263   5.231
95046SOL    HW186970   3.356   2.227   5.313
95046SOL    HW286971   3.363   2.349   5.224
95047SOL     OW86972   9.887   3.992   9.843
95047SOL    HW186973   9.886   4.005   9.937
95047SOL    HW286974   9.839   3.910   9.829
95048SOL     OW86975  12.240  11.294  12.340
95048SOL    HW186976  12.203  11.369  12.294
95048SOL    HW286977  12.304  11.331  12.400
95049SOL     OW86978   6.498   5.004   5.819
95049SOL    HW186979   6.545   5.060   5.757
95049SOL    HW286980   6.415   5.050   5.835
95050SOL     OW86981   4.424   6.400   5.926
95050SOL    HW186982   4.333   6.377   5.946
95050SOL    HW286983   4.470   6.316   5.927
95051SOL     OW86984   8.136   8.958   0.210
95051SOL    HW186985   8.220   9.003   0.215
95051SOL    HW286986   8.106   8.952   0.301
95052SOL     OW86987   2.670   9.121   2.300
95052SOL    HW186988   2.618   9.099   2.378
95052SOL    HW286989   2.684   9.215   2.307
95053SOL     OW86990   9.755   9.900   2.757
95053SOL    HW186991   9.676   9.918   2.706
95053SOL    HW286992   9.794   9.823   2.716
95054SOL     OW86993   3.489  13.916   9.600
95054SOL    HW186994   3.578  13.948   9.614
95054SOL    HW286995   3.494  13.864   9.520
95055SOL     OW86996  10.647   7.840   6.996
95055SOL    HW186997  10.554   7.849   6.977
95055SOL    HW286998  10.665   7.906   7.063
95056SOL     OW86999   5.994   0.996   6.831
95056SOL    HW187000   6.080   0.974   6.796
95056SOL    HW287001   5.943   1.023   6.755
95057SOL     OW87002   3.153   7.413  14.571
95057SOL    HW187003   3.218   7.483  14.576
95057SOL    HW287004   3.147   7.392  14.478
95058SOL     OW87005   0.899   1.256   1.127
95058SOL    HW187006   0.983   1.261   1.173
95058SOL    HW287007   0.873   1.165   1.135
95059SOL     OW87008   8.251  11.925   9.546
95059SOL    HW187009   8.301  11.859   9.594
95059SOL    HW287010   8.313  11.958   9.480
95060SOL     OW87011   3.956  12.636  13.923
95060SOL    HW187012   3.894  12.587  13.869
95060SOL    HW287013   3.978  12.713  13.870
95061SOL     OW87014   5.324  12.875   5.479
95061SOL    HW187015   5.306  12.781   5.479
95061SOL    HW287016   5.309  12.903   5.389
95062SOL     OW87017  14.068  11.771  11.125
95062SOL    HW187018  14.132  11.810  11.184
95062SOL    HW287019  14.034  11.696  11.172
95063SOL     OW87020   7.517   6.430   5.163
95063SOL    HW187021   7.516   6.479   5.246
95063SOL    HW287022   7.609   6.429   5.138
95064SOL     OW87023   6.065  12.773   1.159
95064SOL    HW187024   6.026  12.687   1.142
95064SOL    HW287025   5.996  12.822   1.203
95065SOL     OW87026   0.152  11.627   4.018
95065SOL    HW187027   0.158  11.584   3.933
95065SOL    HW287028   0.226  11.593   4.067
95066SOL     OW87029  10.382  13.350  10.554
95066SOL    HW187030  10.385  13.317  10.464
95066SOL    HW287031  10.398  13.444  10.546
95067SOL     OW87032  10.823   9.763   1.860
95067SOL    HW187033  10.891   9.796   1.919
95067SOL    HW287034  10.744   9.811   1.885
95068SOL     OW87035   0.538   3.593  11.289
95068SOL    HW187036   0.538   3.675  11.340
95068SOL    HW287037   0.581   3.616  11.207
95069SOL     OW87038   1.053   0.704   4.206
95069SOL    HW187039   1.079   0.709   4.114
95069SOL    HW287040   0.962   0.674   4.205
95070SOL     OW87041   0.843  10.606  11.663
95070SOL    HW187042   0.777  10.672  11.643
95070SOL    HW287043   0.799  10.544  11.721
95071SOL     OW87044   3.363  14.517  10.980
95071SOL    HW187045   3.353  14.612  10.972
95071SOL    HW287046   3.350  14.500  11.073
95072SOL     OW87047   5.848  12.522  12.604
95072SOL    HW187048   5.910  12.510  12.533
95072SOL    HW287049   5.836  12.434  12.640
95073SOL     OW87050   4.728  12.109   6.595
95073SOL    HW187051   4.721  12.177   6.662
95073SOL    HW287052   4.798  12.140   6.537
95074SOL     OW87053  10.112  11.488   1.628
95074SOL    HW187054  10.119  11.474   1.533
95074SOL    HW287055  10.037  11.545   1.638
95075SOL     OW87056  13.790   3.257  11.069
95075SOL    HW187057  13.834   3.278  11.152
95075SOL    HW287058  13.731   3.185  11.091
95076SOL     OW87059  13.819   1.001   6.987
95076SOL    HW187060  13.889   1.065   7.001
95076SOL    HW287061  13.863   0.917   6.981
95077SOL     OW87062   9.416  10.522   2.026
95077SOL    HW187063   9.408  10.446   2.083
95077SOL    HW287064   9.381  10.493   1.942
95078SOL     OW87065  13.453   6.510   8.585
95078SOL    HW187066  13.363   6.538   8.568
95078SOL    HW287067  13.505   6.590   8.582
95079SOL     OW87068   3.487   7.413   4.009
95079SOL    HW187069   3.582   7.425   4.010
95079SOL    HW287070   3.452   7.502   4.013
95080SOL     OW87071   5.556   5.206   2.130
95080SOL    HW187072   5.578   5.119   2.099
95080SOL    HW287073   5.608   5.265   2.076
95081SOL     OW87074   7.277  10.449   5.450
95081SOL    HW187075   7.310  10.381   5.392
95081SOL    HW287076   7.253  10.403   5.530
95082SOL     OW87077   2.707   2.590   2.336
95082SOL    HW187078   2.664   2.612   2.254
95082SOL    HW287079   2.674   2.654   2.399
95083SOL     OW87080  10.352   8.299  10.455
95083SOL    HW187081  10.354   8.351  10.535
95083SOL    HW287082  10.405   8.349  10.393
95084SOL     OW87083   6.933   7.034   9.334
95084SOL    HW187084   6.986   6.959   9.360
95084SOL    HW287085   6.979   7.110   9.371
95085SOL     OW87086   9.073   9.531   2.166
95085SOL    HW187087   9.091   9.486   2.249
95085SOL    HW287088   9.078   9.624   2.188
95086SOL     OW87089   8.101   1.158  12.244
95086SOL    HW187090   8.113   1.065  12.266
95086SOL    HW287091   8.157   1.171  12.168
95087SOL     OW87092  10.530  12.436   6.939
95087SOL    HW187093  10.439  12.433   6.969
95087SOL    HW287094  10.570  12.356   6.974
95088SOL     OW87095  11.560   9.902   1.754
95088SOL    HW187096  11.514   9.984   1.775
95088SOL    HW287097  11.629   9.896   1.820
95089SOL     OW87098   4.324  12.003  11.580
95089SOL    HW187099   4.248  12.033  11.631
95089SOL    HW287100   4.380  11.960  11.644
95090SOL     OW87101   2.986   1.271   5.305
95090SOL    HW187102   2.939   1.191   5.329
95090SOL    HW287103   3.075   1.241   5.286
95091SOL     OW87104   2.061   0.154   5.273
95091SOL    HW187105   2.134   0.209   5.301
95091SOL    HW287106   2.040   0.101   5.350
95092SOL     OW87107   4.916   4.003   0.937
95092SOL    HW187108   4.932   4.017   1.030
95092SOL    HW287109   4.926   3.909   0.925
95093SOL     OW87110   7.315  11.510  12.241
95093SOL    HW187111   7.286  11.419  12.230
95093SOL    HW287112   7.264  11.559  12.177
95094SOL     OW87113   2.500   0.451   5.997
95094SOL    HW187114   2.425   0.394   6.012
95094SOL    HW287115   2.531   0.474   6.085
95095SOL     OW87116  11.081  11.588  13.627
95095SOL    HW187117  11.105  11.624  13.541
95095SOL    HW287118  11.013  11.647  13.660
95096SOL     OW87119   3.590   2.718   4.604
95096SOL    HW187120   3.542   2.763   4.674
95096SOL    HW287121   3.611   2.786   4.541
95097SOL     OW87122   8.816  13.126   9.684
95097SOL    HW187123   8.778  13.082   9.607
95097SOL    HW287124   8.856  13.055   9.734
95098SOL     OW87125   3.887   0.225  13.044
95098SOL    HW187126   3.886   0.216  12.949
95098SOL    HW287127   3.979   0.218  13.068
95099SOL     OW87128   0.629   7.888   5.493
95099SOL    HW187129   0.578   7.911   5.571
95099SOL    HW287130   0.628   7.968   5.440
95100SOL     OW87131   3.118   8.647   7.253
95100SOL    HW187132   3.079   8.582   7.196
95100SOL    HW287133   3.188   8.600   7.299
95101SOL     OW87134  14.206   8.262   5.629
95101SOL    HW187135  14.158   8.242   5.710
95101SOL    HW287136  14.256   8.341   5.650
95102SOL     OW87137  11.965  13.788   5.424
95102SOL    HW187138  11.872  13.788   5.447
95102SOL    HW287139  11.988  13.696   5.414
95103SOL     OW87140   0.971   6.092   4.431
95103SOL    HW187141   0.881   6.121   4.420
95103SOL    HW287142   1.019   6.171   4.457
95104SOL     OW87143   0.895  14.231   4.657
95104SOL    HW187144   0.831  14.245   4.587
95104SOL    HW287145   0.973  14.200   4.612
95105SOL     OW87146   8.333   4.017   7.169
95105SOL    HW187147   8.417   4.062   7.168
95105SOL    HW287148   8.281   4.064   7.234
95106SOL     OW87149   8.607   9.216   0.864
95106SOL    HW187150   8.536   9.166   0.905
95106SOL    HW287151   8.640   9.273   0.933
95107SOL     OW87152   1.369   9.331  14.319
95107SOL    HW187153   1.316   9.397  14.274
95107SOL    HW287154   1.382   9.262  14.254
95108SOL     OW87155  10.653  10.205   5.562
95108SOL    HW187156  10.682  10.161   5.641
95108SOL    HW287157  10.616  10.288   5.593
95109SOL     OW87158   0.834   1.232  11.992
95109SOL    HW187159   0.901   1.164  11.993
95109SOL    HW287160   0.839   1.271  12.080
95110SOL     OW87161  13.505   8.065   9.667
95110SOL    HW187162  13.450   7.988   9.682
95110SOL    HW287163  13.520   8.101   9.754
95111SOL     OW87164  10.578   3.163  13.318
95111SOL    HW187165  10.570   3.110  13.239
95111SOL    HW287166  10.665   3.141  13.353
95112SOL     OW87167  11.276   9.987  11.690
95112SOL    HW187168  11.335  10.051  11.730
95112SOL    HW287169  11.189  10.012  11.722
95113SOL     OW87170   1.191   7.101  12.209
95113SOL    HW187171   1.186   7.196  12.211
95113SOL    HW287172   1.139   7.073  12.284
95114SOL     OW87173   2.437   4.012   9.757
95114SOL    HW187174   2.355   3.970   9.729
95114SOL    HW287175   2.426   4.104   9.733
95115SOL     OW87176  13.811   0.937   6.083
95115SOL    HW187177  13.734   0.939   6.139
95115SOL    HW287178  13.776   0.949   5.994
95116SOL     OW87179  11.049   0.387   8.718
95116SOL    HW187180  10.983   0.398   8.650
95116SOL    HW287181  11.041   0.295   8.745
95117SOL     OW87182   2.210   3.072   5.241
95117SOL    HW187183   2.150   3.146   5.247
95117SOL    HW287184   2.288   3.107   5.198
95118SOL     OW87185   7.976   5.646   8.304
95118SOL    HW187186   7.937   5.583   8.364
95118SOL    HW287187   8.010   5.715   8.361
95119SOL     OW87188   7.140   4.164  13.427
95119SOL    HW187189   7.071   4.151  13.491
95119SOL    HW287190   7.210   4.104  13.455
95120SOL     OW87191  13.664   1.802  13.049
95120SOL    HW187192  13.614   1.736  13.002
95120SOL    HW287193  13.599   1.865  13.080
95121SOL     OW87194  11.502   0.425  11.422
95121SOL    HW187195  11.494   0.413  11.516
95121SOL    HW287196  11.439   0.494  11.401
95122SOL     OW87197  11.714  12.224  11.963
95122SOL    HW187198  11.702  12.315  11.991
95122SOL    HW287199  11.809  12.210  11.966
95123SOL     OW87200   1.828   8.667   1.767
95123SOL    HW187201   1.824   8.734   1.835
95123SOL    HW287202   1.920   8.664   1.741
95124SOL     OW87203  13.566  13.410   8.980
95124SOL    HW187204  13.653  13.446   8.968
95124SOL    HW287205  13.507  13.474   8.938
95125SOL     OW87206   5.470  11.201   5.758
95125SOL    HW187207   5.388  11.241   5.730
95125SOL    HW287208   5.444  11.117   5.796
95126SOL     OW87209   4.516  14.633  10.766
95126SOL    HW187210   4.553  14.546  10.777
95126SOL    HW287211   4.438  14.634  10.822
95127SOL     OW87212  10.549  13.223   5.725
95127SOL    HW187213  10.534  13.293   5.788
95127SOL    HW287214  10.481  13.234   5.659
95128SOL     OW87215  14.561   9.993  13.630
95128SOL    HW187216  14.538   9.971  13.540
95128SOL    HW287217  14.559   9.909  13.676
95129SOL     OW87218   3.151   9.291   4.746
95129SOL    HW187219   3.188   9.205   4.724
95129SOL    HW287220   3.166   9.343   4.667
95130SOL     OW87221   8.213   4.972   0.531
95130SOL    HW187222   8.130   4.926   0.541
95130SOL    HW287223   8.267   4.940   0.603
95131SOL     OW87224   9.070   7.201  14.251
95131SOL    HW187225   9.153   7.175  14.212
95131SOL    HW287226   9.005   7.179  14.185
95132SOL     OW87227   6.684   4.949   6.549
95132SOL    HW187228   6.704   5.038   6.576
95132SOL    HW287229   6.763   4.899   6.570
95133SOL     OW87230   9.200  10.415  12.772
95133SOL    HW187231   9.256  10.343  12.799
95133SOL    HW287232   9.234  10.442  12.687
95134SOL     OW87233   0.967  10.245   6.091
95134SOL    HW187234   0.969  10.249   5.995
95134SOL    HW287235   0.930  10.330   6.117
95135SOL     OW87236  11.144   5.699  10.234
95135SOL    HW187237  11.156   5.646  10.155
95135SOL    HW287238  11.165   5.788  10.206
95136SOL     OW87239   4.397   6.195  12.047
95136SOL    HW187240   4.481   6.235  12.068
95136SOL    HW287241   4.411   6.101  12.059
95137SOL     OW87242  12.668   9.906  14.161
95137SOL    HW187243  12.635   9.834  14.108
95137SOL    HW287244  12.651   9.985  14.110
95138SOL     OW87245  13.601   9.596   3.945
95138SOL    HW187246  13.627   9.535   3.876
95138SOL    HW287247  13.684   9.629   3.980
95139SOL     OW87248   4.615  13.766  12.309
95139SOL    HW187249   4.664  13.774  12.391
95139SOL    HW287250   4.603  13.672  12.298
95140SOL     OW87251  14.435   7.340   2.669
95140SOL    HW187252  14.368   7.274   2.651
95140SOL    HW287253  14.482   7.349   2.586
95141SOL     OW87254   1.583   9.113   6.710
95141SOL    HW187255   1.570   9.051   6.782
95141SOL    HW287256   1.658   9.078   6.662
95142SOL     OW87257   9.351   0.057   2.807
95142SOL    HW187258   9.319   0.017   2.726
95142SOL    HW287259   9.349   0.151   2.788
95143SOL     OW87260   5.172   0.609   6.414
95143SOL    HW187261   5.139   0.698   6.404
95143SOL    HW287262   5.201   0.583   6.326
95144SOL     OW87263   8.280  13.633   1.406
95144SOL    HW187264   8.341  13.670   1.470
95144SOL    HW287265   8.320  13.650   1.321
95145SOL     OW87266   5.049   5.890   7.885
95145SOL    HW187267   4.960   5.916   7.910
95145SOL    HW287268   5.089   5.971   7.852
95146SOL     OW87269  14.235   9.837   7.233
95146SOL    HW187270  14.214   9.762   7.177
95146SOL    HW287271  14.318   9.814   7.274
95147SOL     OW87272   3.623   5.481   3.028
95147SOL    HW187273   3.541   5.454   3.069
95147SOL    HW287274   3.626   5.431   2.946
95148SOL     OW87275   2.924  14.375   0.073
95148SOL    HW187276   2.976  14.455   0.068
95148SOL    HW287277   2.897  14.369   0.165
95149SOL     OW87278   7.235   8.560   3.590
95149SOL    HW187279   7.299   8.528   3.654
95149SOL    HW287280   7.180   8.484   3.572
95150SOL     OW87281   2.025   7.418   0.983
95150SOL    HW187282   1.962   7.351   1.010
95150SOL    HW287283   2.084   7.426   1.058
95151SOL     OW87284   0.720  12.773  11.853
95151SOL    HW187285   0.807  12.802  11.880
95151SOL    HW287286   0.664  12.798  11.927
95152SOL     OW87287   1.716   9.547   8.215
95152SOL    HW187288   1.734   9.600   8.136
95152SOL    HW287289   1.634   9.582   8.248
95153SOL     OW87290   7.721   3.567   5.797
95153SOL    HW187291   7.762   3.651   5.775
95153SOL    HW287292   7.662   3.587   5.869
95154SOL     OW87293   4.756   4.856   7.381
95154SOL    HW187294   4.775   4.768   7.347
95154SOL    HW287295   4.834   4.880   7.431
95155SOL     OW87296   0.870   8.355   1.068
95155SOL    HW187297   0.883   8.372   1.161
95155SOL    HW287298   0.885   8.439   1.026
95156SOL     OW87299  11.451   1.436   3.766
95156SOL    HW187300  11.488   1.435   3.678
95156SOL    HW287301  11.369   1.483   3.757
95157SOL     OW87302   4.146   7.474   9.730
95157SOL    HW187303   4.218   7.416   9.752
95157SOL    HW287304   4.183   7.562   9.737
95158SOL     OW87305   0.447  11.649   6.738
95158SOL    HW187306   0.492  11.591   6.800
95158SOL    HW287307   0.432  11.595   6.661
95159SOL     OW87308   0.487  10.671   7.011
95159SOL    HW187309   0.529  10.614   7.075
95159SOL    HW287310   0.406  10.625   6.988
95160SOL     OW87311  14.863   0.597  11.452
95160SOL    HW187312   0.015   0.662  11.513
95160SOL    HW287313  14.806   0.541  11.504
95161SOL     OW87314  14.837  13.479  12.997
95161SOL    HW187315  14.865  13.559  12.954
95161SOL    HW287316   0.000  13.479  13.081
95162SOL     OW87317  12.995   0.946   3.734
95162SOL    HW187318  12.934   0.945   3.661
95162SOL    HW287319  12.943   0.922   3.810
95163SOL     OW87320   7.583   8.816   3.527
95163SOL    HW187321   7.642   8.869   3.580
95163SOL    HW287322   7.626   8.730   3.522
95164SOL     OW87323   3.989  13.626   4.280
95164SOL    HW187324   3.953  13.636   4.191
95164SOL    HW287325   4.023  13.536   4.282
95165SOL     OW87326   4.580   0.168   2.009
95165SOL    HW187327   4.603   0.209   2.092
95165SOL    HW287328   4.615   0.227   1.943
95166SOL     OW87329   2.511  13.932   9.703
95166SOL    HW187330   2.493  13.938   9.610
95166SOL    HW287331   2.512  14.023   9.734
95167SOL     OW87332  13.818   1.880   4.664
95167SOL    HW187333  13.777   1.902   4.580
95167SOL    HW287334  13.909   1.906   4.653
95168SOL     OW87335  11.457   5.734   8.200
95168SOL    HW187336  11.543   5.692   8.212
95168SOL    HW287337  11.464   5.816   8.249
95169SOL     OW87338   1.448   8.919   3.234
95169SOL    HW187339   1.421   9.008   3.211
95169SOL    HW287340   1.369   8.877   3.268
95170SOL     OW87341   8.015   7.550   5.361
95170SOL    HW187342   8.066   7.570   5.440
95170SOL    HW287343   8.081   7.530   5.295
95171SOL     OW87344   0.396  14.388   0.762
95171SOL    HW187345   0.314  14.363   0.806
95171SOL    HW287346   0.465  14.345   0.814
95172SOL     OW87347  10.600   9.814  10.160
95172SOL    HW187348  10.521   9.828  10.211
95172SOL    HW287349  10.570   9.808  10.069
95173SOL     OW87350   2.236   3.383   3.468
95173SOL    HW187351   2.241   3.319   3.539
95173SOL    HW287352   2.174   3.449   3.499
95174SOL     OW87353   2.065   4.602   8.737
95174SOL    HW187354   2.045   4.530   8.798
95174SOL    HW287355   1.996   4.596   8.671
95175SOL     OW87356   2.057   7.262  14.019
95175SOL    HW187357   2.113   7.185  14.032
95175SOL    HW287358   1.968   7.229  14.034
95176SOL     OW87359   9.158  11.354   7.446
95176SOL    HW187360   9.188  11.392   7.529
95176SOL    HW287361   9.134  11.264   7.468
95177SOL     OW87362  13.047  11.684   6.659
95177SOL    HW187363  12.998  11.606   6.634
95177SOL    HW287364  13.003  11.756   6.612
95178SOL     OW87365  10.849   3.819   2.786
95178SOL    HW187366  10.942   3.836   2.768
95178SOL    HW287367  10.818   3.899   2.827
95179SOL     OW87368   7.511   9.317   9.010
95179SOL    HW187369   7.593   9.333   8.964
95179SOL    HW287370   7.538   9.276   9.092
95180SOL     OW87371   0.060   7.920   4.277
95180SOL    HW187372   0.145   7.914   4.320
95180SOL    HW287373   0.021   7.999   4.312
95181SOL     OW87374  14.750   6.649  11.094
95181SOL    HW187375  14.709   6.569  11.126
95181SOL    HW287376  14.814   6.671  11.162
95182SOL     OW87377   1.283   7.566  13.239
95182SOL    HW187378   1.363   7.581  13.289
95182SOL    HW287379   1.222   7.632  13.271
95183SOL     OW87380   9.506   3.858   3.957
95183SOL    HW187381   9.457   3.937   3.978
95183SOL    HW287382   9.527   3.867   3.864
95184SOL     OW87383  11.888   5.284  11.595
95184SOL    HW187384  11.901   5.373  11.562
95184SOL    HW287385  11.974   5.243  11.588
95185SOL     OW87386   9.195   0.131   4.316
95185SOL    HW187387   9.120   0.105   4.369
95185SOL    HW287388   9.251   0.053   4.313
95186SOL     OW87389   4.572   0.832   7.901
95186SOL    HW187390   4.609   0.909   7.856
95186SOL    HW287391   4.477   0.846   7.898
95187SOL     OW87392  11.043   2.249  12.936
95187SOL    HW187393  11.088   2.257  12.852
95187SOL    HW287394  11.101   2.192  12.988
95188SOL     OW87395   9.807   4.945   5.131
95188SOL    HW187396   9.882   4.912   5.182
95188SOL    HW287397   9.797   5.035   5.159
95189SOL     OW87398   0.234   5.808   1.160
95189SOL    HW187399   0.176   5.745   1.203
95189SOL    HW287400   0.246   5.773   1.072
95190SOL     OW87401   3.619  12.204   5.956
95190SOL    HW187402   3.667  12.216   6.037
95190SOL    HW287403   3.590  12.113   5.958
95191SOL     OW87404  10.391   1.950   5.891
95191SOL    HW187405  10.465   1.893   5.870
95191SOL    HW287406  10.374   1.933   5.983
95192SOL     OW87407  10.359   6.814  11.305
95192SOL    HW187408  10.364   6.727  11.345
95192SOL    HW287409  10.266   6.837  11.312
95193SOL     OW87410   9.178   0.529   2.125
95193SOL    HW187411   9.214   0.510   2.038
95193SOL    HW287412   9.211   0.616   2.146
95194SOL     OW87413   8.389   6.220   0.912
95194SOL    HW187414   8.435   6.136   0.910
95194SOL    HW287415   8.369   6.239   0.821
95195SOL     OW87416   9.486   0.220   3.726
95195SOL    HW187417   9.517   0.303   3.761
95195SOL    HW287418   9.391   0.224   3.733
95196SOL     OW87419  14.598  13.109   3.039
95196SOL    HW187420  14.583  13.026   2.993
95196SOL    HW287421  14.550  13.174   2.988
95197SOL     OW87422   4.240   2.085  14.220
95197SOL    HW187423   4.185   2.044  14.154
95197SOL    HW287424   4.187   2.156  14.255
95198SOL     OW87425   2.078  10.072   4.693
95198SOL    HW187426   2.148  10.034   4.640
95198SOL    HW287427   2.080  10.166   4.672
95199SOL     OW87428  13.423   5.176   6.593
95199SOL    HW187429  13.385   5.262   6.573
95199SOL    HW287430  13.472   5.153   6.514
95200SOL     OW87431   5.365   3.941   0.772
95200SOL    HW187432   5.295   3.876   0.768
95200SOL    HW287433   5.417   3.925   0.693
95201SOL     OW87434   4.659   4.682   9.041
95201SOL    HW187435   4.673   4.629   8.962
95201SOL    HW287436   4.725   4.651   9.103
95202SOL     OW87437  13.633   8.337   6.369
95202SOL    HW187438  13.565   8.325   6.302
95202SOL    HW287439  13.589   8.387   6.439
95203SOL     OW87440  13.010   5.296  11.452
95203SOL    HW187441  13.011   5.366  11.386
95203SOL    HW287442  13.035   5.339  11.533
95204SOL     OW87443   2.308   9.861   0.467
95204SOL    HW187444   2.262   9.781   0.442
95204SOL    HW287445   2.370   9.832   0.535
95205SOL     OW87446  14.765   3.106   2.629
95205SOL    HW187447  14.678   3.124   2.665
95205SOL    HW287448  14.780   3.178   2.567
95206SOL     OW87449  12.669  14.758   1.882
95206SOL    HW187450  12.648  14.665   1.875
95206SOL    HW287451  12.590  14.803   1.849
95207SOL     OW87452   7.651   6.574  11.538
95207SOL    HW187453   7.705   6.647  11.509
95207SOL    HW287454   7.696   6.541  11.616
95208SOL     OW87455   0.935   8.399  12.777
95208SOL    HW187456   0.947   8.492  12.798
95208SOL    HW287457   1.002   8.354  12.826
95209SOL     OW87458   7.751   0.744   1.699
95209SOL    HW187459   7.738   0.776   1.610
95209SOL    HW287460   7.794   0.816   1.745
95210SOL     OW87461  14.858   5.119   0.678
95210SOL    HW187462  14.816   5.195   0.637
95210SOL    HW287463   0.062   5.151   0.706
95211SOL     OW87464   0.623  12.066   1.752
95211SOL    HW187465   0.621  12.091   1.660
95211SOL    HW287466   0.695  12.118   1.789
95212SOL     OW87467   0.690   9.873   3.929
95212SOL    HW187468   0.625   9.921   3.980
95212SOL    HW287469   0.770   9.879   3.981
95213SOL     OW87470  14.759   0.285   1.867
95213SOL    HW187471  14.748   0.218   1.934
95213SOL    HW287472  14.854   0.301   1.864
95214SOL     OW87473  10.940  14.207  13.631
95214SOL    HW187474  10.980  14.292  13.617
95214SOL    HW287475  10.865  14.204  13.572
95215SOL     OW87476   6.759  13.542   1.418
95215SOL    HW187477   6.755  13.524   1.324
95215SOL    HW287478   6.670  13.568   1.441
95216SOL     OW87479   0.186   8.751  12.069
95216SOL    HW187480   0.196   8.811  12.143
95216SOL    HW287481   0.091   8.743  12.058
95217SOL     OW87482   2.114   5.828   2.878
95217SOL    HW187483   2.028   5.831   2.920
95217SOL    HW287484   2.175   5.818   2.950
95218SOL     OW87485   5.722   5.677  12.360
95218SOL    HW187486   5.729   5.587  12.329
95218SOL    HW287487   5.707   5.729  12.281
95219SOL     OW87488  14.221   7.980   3.461
95219SOL    HW187489  14.161   7.906   3.451
95219SOL    HW287490  14.167   8.057   3.442
95220SOL     OW87491   4.889   8.921   0.092
95220SOL    HW187492   4.912   9.011   0.114
95220SOL    HW287493   4.903   8.872   0.173
95221SOL     OW87494  10.307  12.008  12.969
95221SOL    HW187495  10.245  12.075  12.941
95221SOL    HW287496  10.346  12.043  13.049
95222SOL     OW87497   9.533  11.994   2.683
95222SOL    HW187498   9.580  12.055   2.627
95222SOL    HW287499   9.449  12.037   2.700
95223SOL     OW87500   0.325   4.428   8.926
95223SOL    HW187501   0.316   4.423   8.831
95223SOL    HW287502   0.245   4.390   8.960
95224SOL     OW87503   2.030   3.386  10.462
95224SOL    HW187504   1.936   3.371  10.457
95224SOL    HW287505   2.041   3.447  10.535
95225SOL     OW87506   2.434   5.457  12.365
95225SOL    HW187507   2.517   5.480  12.323
95225SOL    HW287508   2.453   5.377  12.414
95226SOL     OW87509   4.956   7.304   0.283
95226SOL    HW187510   4.926   7.213   0.286
95226SOL    HW287511   4.921   7.343   0.363
95227SOL     OW87512   1.115  13.345  11.149
95227SOL    HW187513   1.158  13.409  11.207
95227SOL    HW287514   1.057  13.398  11.094
95228SOL     OW87515  11.809   5.597   8.770
95228SOL    HW187516  11.903   5.583   8.780
95228SOL    HW287517  11.776   5.603   8.859
95229SOL     OW87518   4.186  14.230   7.229
95229SOL    HW187519   4.091  14.222   7.216
95229SOL    HW287520   4.216  14.140   7.239
95230SOL     OW87521   3.347   3.690  11.242
95230SOL    HW187522   3.440   3.709  11.242
95230SOL    HW287523   3.340   3.602  11.280
95231SOL     OW87524  12.297  10.628   9.624
95231SOL    HW187525  12.232  10.594   9.685
95231SOL    HW287526  12.374  10.574   9.638
95232SOL     OW87527  11.338   6.467   7.269
95232SOL    HW187528  11.254   6.449   7.311
95232SOL    HW287529  11.373   6.542   7.317
95233SOL     OW87530   1.956   3.239  12.214
95233SOL    HW187531   1.941   3.197  12.299
95233SOL    HW287532   2.035   3.292  12.226
95234SOL     OW87533   4.166   6.254   1.375
95234SOL    HW187534   4.120   6.171   1.388
95234SOL    HW287535   4.106   6.321   1.407
95235SOL     OW87536  14.021   5.553   9.771
95235SOL    HW187537  14.064   5.478   9.729
95235SOL    HW287538  14.073   5.569   9.850
95236SOL     OW87539   7.270   9.836  10.521
95236SOL    HW187540   7.342   9.879  10.474
95236SOL    HW287541   7.312   9.799  10.599
95237SOL     OW87542  10.009   7.982   3.446
95237SOL    HW187543  10.073   7.922   3.482
95237SOL    HW287544  10.061   8.048   3.399
95238SOL     OW87545  13.417  12.769   1.792
95238SOL    HW187546  13.480  12.778   1.720
95238SOL    HW287547  13.394  12.676   1.792
95239SOL     OW87548   7.128   6.592  13.889
95239SOL    HW187549   7.116   6.637  13.805
95239SOL    HW287550   7.050   6.537  13.897
95240SOL     OW87551  12.381   2.285   3.416
95240SOL    HW187552  12.429   2.261   3.337
95240SOL    HW287553  12.345   2.371   3.397
95241SOL     OW87554   9.636   9.956   7.034
95241SOL    HW187555   9.543   9.977   7.038
95241SOL    HW287556   9.680  10.041   7.037
95242SOL     OW87557   5.283   6.851   4.295
95242SOL    HW187558   5.242   6.855   4.381
95242SOL    HW287559   5.295   6.757   4.279
95243SOL     OW87560   2.932   3.546   6.062
95243SOL    HW187561   2.925   3.463   6.110
95243SOL    HW287562   2.921   3.522   5.970
95244SOL     OW87563  13.390   6.302  11.723
95244SOL    HW187564  13.349   6.275  11.640
95244SOL    HW287565  13.401   6.396  11.714
95245SOL     OW87566   2.226   0.934   5.549
95245SOL    HW187567   2.133   0.918   5.535
95245SOL    HW287568   2.253   0.987   5.474
95246SOL     OW87569   5.791  10.972   9.714
95246SOL    HW187570   5.774  11.011   9.629
95246SOL    HW287571   5.759  11.036   9.777
95247SOL     OW87572   5.306   4.032   6.525
95247SOL    HW187573   5.307   4.093   6.599
95247SOL    HW287574   5.377   4.062   6.468
95248SOL     OW87575   5.411   6.649  12.029
95248SOL    HW187576   5.317   6.668  12.033
95248SOL    HW287577   5.426   6.591  12.104
95249SOL     OW87578  12.544   6.393   8.240
95249SOL    HW187579  12.523   6.480   8.272
95249SOL    HW287580  12.582   6.347   8.315
95250SOL     OW87581  11.624  12.989   2.555
95250SOL    HW187582  11.647  13.000   2.647
95250SOL    HW287583  11.640  12.897   2.536
95251SOL     OW87584   2.251  13.454  13.500
95251SOL    HW187585   2.225  13.504  13.578
95251SOL    HW287586   2.326  13.502  13.465
95252SOL     OW87587   2.018  12.523   4.887
95252SOL    HW187588   1.931  12.532   4.926
95252SOL    HW287589   2.048  12.437   4.916
95253SOL     OW87590  12.823   7.321   8.788
95253SOL    HW187591  12.883   7.269   8.842
95253SOL    HW287592  12.773   7.372   8.852
95254SOL     OW87593   9.307   8.548   7.386
95254SOL    HW187594   9.236   8.507   7.436
95254SOL    HW287595   9.338   8.619   7.443
95255SOL     OW87596  14.744   8.954  12.960
95255SOL    HW187597  14.769   9.041  12.992
95255SOL    HW287598  14.664   8.934  13.008
95256SOL     OW87599  11.849   2.445  11.903
95256SOL    HW187600  11.802   2.368  11.871
95256SOL    HW287601  11.800   2.519  11.868
95257SOL     OW87602   9.137   7.229   8.768
95257SOL    HW187603   9.097   7.167   8.829
95257SOL    HW287604   9.127   7.314   8.811
95258SOL     OW87605  14.346  11.390  10.940
95258SOL    HW187606  14.283  11.449  10.898
95258SOL    HW287607  14.428  11.407  10.894
95259SOL     OW87608   2.290  12.358  11.597
95259SOL    HW187609   2.269  12.400  11.513
95259SOL    HW287610   2.273  12.265  11.582
95260SOL     OW87611   9.997  11.100  13.914
95260SOL    HW187612   9.988  11.195  13.903
95260SOL    HW287613   9.939  11.079  13.987
95261SOL     OW87614   6.540   4.069   8.138
95261SOL    HW187615   6.564   4.047   8.048
95261SOL    HW287616   6.623   4.074   8.185
95262SOL     OW87617   1.471   2.931   2.478
95262SOL    HW187618   1.448   2.913   2.387
95262SOL    HW287619   1.545   2.991   2.473
95263SOL     OW87620   6.266   7.228   1.658
95263SOL    HW187621   6.361   7.229   1.662
95263SOL    HW287622   6.239   7.312   1.696
95264SOL     OW87623   1.893   0.780   0.276
95264SOL    HW187624   1.873   0.862   0.229
95264SOL    HW287625   1.964   0.803   0.335
95265SOL     OW87626   5.180   2.413   4.267
95265SOL    HW187627   5.117   2.482   4.287
95265SOL    HW287628   5.179   2.405   4.172
95266SOL     OW87629  12.703   4.991   7.051
95266SOL    HW187630  12.613   4.967   7.029
95266SOL    HW287631  12.725   5.060   6.987
95267SOL     OW87632  12.410   0.126   2.518
95267SOL    HW187633  12.370   0.042   2.541
95267SOL    HW287634  12.492   0.102   2.475
95268SOL     OW87635  13.543   8.694   9.754
95268SOL    HW187636  13.626   8.664   9.790
95268SOL    HW287637  13.541   8.658   9.665
95269SOL     OW87638   3.567   4.127   3.116
95269SOL    HW187639   3.658   4.150   3.100
95269SOL    HW287640   3.572   4.049   3.173
95270SOL     OW87641   1.941   3.062   8.893
95270SOL    HW187642   1.972   3.145   8.858
95270SOL    HW287643   2.015   3.002   8.885
95271SOL     OW87644   9.866   8.480  10.530
95271SOL    HW187645   9.874   8.505  10.438
95271SOL    HW287646   9.889   8.560  10.579
95272SOL     OW87647  10.918   1.408   1.084
95272SOL    HW187648  10.992   1.432   1.029
95272SOL    HW287649  10.851   1.376   1.023
95273SOL     OW87650   3.649  13.948   7.550
95273SOL    HW187651   3.648  13.853   7.544
95273SOL    HW287652   3.638  13.966   7.643
95274SOL     OW87653   4.374   1.789  12.978
95274SOL    HW187654   4.431   1.715  13.000
95274SOL    HW287655   4.394   1.856  13.044
95275SOL     OW87656  10.510   6.242   1.201
95275SOL    HW187657  10.594   6.268   1.237
95275SOL    HW287658  10.522   6.150   1.176
95276SOL     OW87659  10.379   8.996   3.809
95276SOL    HW187660  10.295   9.024   3.847
95276SOL    HW287661  10.445   9.045   3.857
95277SOL     OW87662   1.993   4.515  11.400
95277SOL    HW187663   1.953   4.583  11.455
95277SOL    HW287664   1.961   4.433  11.436
95278SOL     OW87665   3.180   2.222  13.316
95278SOL    HW187666   3.092   2.228  13.355
95278SOL    HW287667   3.173   2.270  13.234
95279SOL     OW87668   7.649   0.231   2.448
95279SOL    HW187669   7.630   0.232   2.542
95279SOL    HW287670   7.593   0.161   2.414
95280SOL     OW87671  11.432  14.278  14.268
95280SOL    HW187672  11.498  14.345  14.289
95280SOL    HW287673  11.456  14.203  14.323
95281SOL     OW87674  11.828   9.944  14.604
95281SOL    HW187675  11.919   9.913  14.602
95281SOL    HW287676  11.784   9.883  14.663
95282SOL     OW87677   0.591   0.501  14.294
95282SOL    HW187678   0.614   0.466  14.208
95282SOL    HW287679   0.509   0.458  14.316
95283SOL     OW87680   1.582  12.352  13.174
95283SOL    HW187681   1.516  12.412  13.139
95283SOL    HW287682   1.645  12.409  13.218
95284SOL     OW87683   8.701   7.318   4.755
95284SOL    HW187684   8.644   7.266   4.811
95284SOL    HW287685   8.772   7.346   4.813
95285SOL     OW87686   6.630   6.817  12.971
95285SOL    HW187687   6.605   6.740  12.919
95285SOL    HW287688   6.684   6.781  13.041
95286SOL     OW87689  11.195   4.832  12.325
95286SOL    HW187690  11.137   4.763  12.357
95286SOL    HW287691  11.185   4.831  12.230
95287SOL     OW87692   3.871   0.498   0.509
95287SOL    HW187693   3.778   0.519   0.514
95287SOL    HW287694   3.916   0.577   0.540
95288SOL     OW87695  11.054   0.946   8.857
95288SOL    HW187696  10.981   0.900   8.897
95288SOL    HW287697  11.033   0.949   8.763
95289SOL     OW87698   4.425   5.384  11.657
95289SOL    HW187699   4.403   5.295  11.685
95289SOL    HW287700   4.391   5.440  11.727
95290SOL     OW87701  11.690  12.774   6.739
95290SOL    HW187702  11.600  12.757   6.711
95290SOL    HW287703  11.703  12.868   6.724
95291SOL     OW87704   1.545   2.201   2.069
95291SOL    HW187705   1.620   2.192   2.009
95291SOL    HW287706   1.473   2.157   2.024
95292SOL     OW87707   8.624  13.648   9.908
95292SOL    HW187708   8.562  13.717   9.929
95292SOL    HW287709   8.570  13.576   9.875
95293SOL     OW87710  10.600   8.293   6.870
95293SOL    HW187711  10.543   8.350   6.921
95293SOL    HW287712  10.684   8.339   6.867
95294SOL     OW87713   6.974   2.488   2.438
95294SOL    HW187714   6.944   2.416   2.493
95294SOL    HW287715   7.056   2.456   2.399
95295SOL     OW87716   5.148   6.506  13.611
95295SOL    HW187717   5.228   6.556  13.627
95295SOL    HW287718   5.176   6.415  13.611
95296SOL     OW87719   4.551   0.704  11.729
95296SOL    HW187720   4.604   0.721  11.807
95296SOL    HW287721   4.487   0.775  11.728
95297SOL     OW87722   0.878  12.799   9.243
95297SOL    HW187723   0.798  12.747   9.244
95297SOL    HW287724   0.898  12.815   9.335
95298SOL     OW87725   5.276   5.112   9.860
95298SOL    HW187726   5.184   5.134   9.868
95298SOL    HW287727   5.302   5.146   9.774
95299SOL     OW87728  14.115   8.031   9.501
95299SOL    HW187729  14.141   7.954   9.451
95299SOL    HW287730  14.137   8.010   9.592
95300SOL     OW87731   9.074  10.702   4.407
95300SOL    HW187732   9.143  10.658   4.458
95300SOL    HW287733   9.034  10.763   4.468
95301SOL     OW87734   1.497   6.631   4.254
95301SOL    HW187735   1.589   6.639   4.279
95301SOL    HW287736   1.468   6.721   4.238
95302SOL     OW87737   8.256  12.791   6.507
95302SOL    HW187738   8.337  12.750   6.478
95302SOL    HW287739   8.228  12.740   6.583
95303SOL     OW87740  12.161  10.184  11.877
95303SOL    HW187741  12.156  10.227  11.791
95303SOL    HW287742  12.210  10.104  11.860
95304SOL     OW87743   2.766  13.914  10.390
95304SOL    HW187744   2.793  14.000  10.358
95304SOL    HW287745   2.756  13.861  10.311
95305SOL     OW87746   8.517  10.483  11.629
95305SOL    HW187747   8.453  10.460  11.696
95305SOL    HW287748   8.583  10.535  11.675
95306SOL     OW87749   9.961  11.838   8.061
95306SOL    HW187750   9.870  11.830   8.088
95306SOL    HW287751   9.962  11.807   7.970
95307SOL     OW87752   9.556   0.141   8.806
95307SOL    HW187753   9.510   0.058   8.820
95307SOL    HW287754   9.593   0.162   8.892
95308SOL     OW87755   2.505   1.306   9.343
95308SOL    HW187756   2.569   1.372   9.316
95308SOL    HW287757   2.430   1.320   9.285
95309SOL     OW87758  11.612   5.743  14.752
95309SOL    HW187759  11.707   5.757  14.755
95309SOL    HW287760  11.579   5.792  14.828
95310SOL     OW87761   7.185   5.889   1.211
95310SOL    HW187762   7.240   5.967   1.218
95310SOL    HW287763   7.154   5.874   1.300
95311SOL     OW87764   9.445  10.814   1.421
95311SOL    HW187765   9.437  10.748   1.353
95311SOL    HW287766   9.507  10.777   1.484
95312SOL     OW87767  14.007   1.537   4.891
95312SOL    HW187768  14.023   1.629   4.873
95312SOL    HW287769  13.913   1.525   4.875
95313SOL     OW87770   7.174   9.644   9.107
95313SOL    HW187771   7.151   9.627   9.199
95313SOL    HW287772   7.244   9.710   9.113
95314SOL     OW87773   3.590   9.757   8.519
95314SOL    HW187774   3.627   9.737   8.433
95314SOL    HW287775   3.551   9.675   8.548
95315SOL     OW87776   9.011  11.847   0.483
95315SOL    HW187777   9.044  11.930   0.450
95315SOL    HW287778   9.070  11.781   0.448
95316SOL     OW87779   1.578   8.883   7.489
95316SOL    HW187780   1.509   8.818   7.476
95316SOL    HW287781   1.573   8.939   7.411
95317SOL     OW87782  14.298   1.158   4.184
95317SOL    HW187783  14.263   1.180   4.270
95317SOL    HW287784  14.350   1.234   4.159
95318SOL     OW87785  11.186   3.261   3.538
95318SOL    HW187786  11.250   3.192   3.550
95318SOL    HW287787  11.147   3.244   3.452
95319SOL     OW87788   0.748   9.402   4.441
95319SOL    HW187789   0.824   9.354   4.472
95319SOL    HW287790   0.683   9.392   4.512
95320SOL     OW87791   5.880  13.962   6.176
95320SOL    HW187792   5.887  14.051   6.210
95320SOL    HW287793   5.957  13.950   6.121
95321SOL     OW87794   9.041  14.785   5.766
95321SOL    HW187795   9.102  14.728   5.718
95321SOL    HW287796   9.069  14.874   5.744
95322SOL     OW87797  11.037   8.681  11.454
95322SOL    HW187798  11.117   8.728  11.478
95322SOL    HW287799  11.058   8.589  11.468
95323SOL     OW87800   7.286  12.694   7.746
95323SOL    HW187801   7.379  12.671   7.743
95323SOL    HW287802   7.259  12.675   7.836
95324SOL     OW87803   9.937   1.786   8.332
95324SOL    HW187804   9.986   1.713   8.297
95324SOL    HW287805   9.846   1.755   8.334
95325SOL     OW87806  14.363   0.724   9.088
95325SOL    HW187807  14.271   0.746   9.104
95325SOL    HW287808  14.395   0.796   9.033
95326SOL     OW87809   8.005  11.340  13.408
95326SOL    HW187810   8.041  11.352  13.496
95326SOL    HW287811   7.965  11.424  13.387
95327SOL     OW87812  11.648   0.270  14.829
95327SOL    HW187813  11.717   0.306  14.774
95327SOL    HW287814  11.647   0.177  14.808
95328SOL     OW87815   9.543   1.326   0.423
95328SOL    HW187816   9.536   1.402   0.481
95328SOL    HW287817   9.621   1.345   0.369
95329SOL     OW87818  14.191  14.683  14.654
95329SOL    HW187819  14.208  14.647  14.567
95329SOL    HW287820  14.266  14.656  14.707
95330SOL     OW87821  14.721   7.956   0.984
95330SOL    HW187822  14.643   8.006   1.009
95330SOL    HW287823  14.688   7.868   0.968
95331SOL     OW87824  10.459  12.606   5.851
95331SOL    HW187825  10.452  12.697   5.821
95331SOL    HW287826  10.489  12.558   5.774
95332SOL     OW87827  11.202   1.158  11.078
95332SOL    HW187828  11.140   1.224  11.046
95332SOL    HW287829  11.236   1.194  11.159
95333SOL     OW87830   5.053  11.822   0.112
95333SOL    HW187831   5.067  11.788   0.201
95333SOL    HW287832   5.119  11.779   0.059
95334SOL     OW87833   6.232   0.414   0.579
95334SOL    HW187834   6.222   0.461   0.662
95334SOL    HW287835   6.327   0.417   0.562
95335SOL     OW87836  10.028   4.277   6.587
95335SOL    HW187837   9.983   4.361   6.586
95335SOL    HW287838  10.018   4.242   6.498
95336SOL     OW87839   2.583   3.966  10.203
95336SOL    HW187840   2.606   3.887  10.251
95336SOL    HW287841   2.530   3.936  10.129
95337SOL     OW87842  13.996   6.139   7.239
95337SOL    HW187843  14.075   6.155   7.188
95337SOL    HW287844  13.925   6.139   7.175
95338SOL     OW87845   1.231   5.337   9.003
95338SOL    HW187846   1.216   5.337   8.909
95338SOL    HW287847   1.156   5.383   9.039
95339SOL     OW87848  13.788   7.475  12.528
95339SOL    HW187849  13.749   7.390  12.512
95339SOL    HW287850  13.858   7.482  12.462
95340SOL     OW87851   9.564   0.153  12.055
95340SOL    HW187852   9.652   0.181  12.030
95340SOL    HW287853   9.556   0.181  12.146
95341SOL     OW87854   5.727  13.085   2.939
95341SOL    HW187855   5.797  13.072   3.003
95341SOL    HW287856   5.648  13.101   2.991
95342SOL     OW87857   1.112  11.166  12.183
95342SOL    HW187858   1.099  11.130  12.271
95342SOL    HW287859   1.167  11.101  12.139
95343SOL     OW87860  11.536  14.856   5.930
95343SOL    HW187861  11.589  14.882   6.006
95343SOL    HW287862  11.599  14.845   5.859
95344SOL     OW87863  13.712  14.608   3.124
95344SOL    HW187864  13.697  14.702   3.110
95344SOL    HW287865  13.624  14.570   3.123
95345SOL     OW87866   1.627  14.107   5.032
95345SOL    HW187867   1.694  14.093   5.099
95345SOL    HW287868   1.659  14.061   4.955
95346SOL     OW87869   3.548  10.322  10.831
95346SOL    HW187870   3.541  10.343  10.738
95346SOL    HW287871   3.634  10.356  10.857
95347SOL     OW87872  12.936   2.358   8.746
95347SOL    HW187873  12.926   2.267   8.775
95347SOL    HW287874  12.881   2.364   8.668
95348SOL     OW87875  11.289   2.562   2.439
95348SOL    HW187876  11.358   2.496   2.435
95348SOL    HW287877  11.336   2.646   2.445
95349SOL     OW87878  11.209   1.841  14.516
95349SOL    HW187879  11.213   1.817  14.423
95349SOL    HW287880  11.297   1.873  14.536
95350SOL     OW87881   5.120  11.940  13.539
95350SOL    HW187882   5.108  12.025  13.581
95350SOL    HW287883   5.167  11.888  13.606
95351SOL     OW87884   3.540   7.509   9.199
95351SOL    HW187885   3.483   7.503   9.123
95351SOL    HW287886   3.494   7.460   9.267
95352SOL     OW87887   4.329   3.923  13.796
95352SOL    HW187888   4.387   3.864  13.749
95352SOL    HW287889   4.359   3.919  13.887
95353SOL     OW87890   7.640   2.148  14.067
95353SOL    HW187891   7.628   2.056  14.091
95353SOL    HW287892   7.713   2.147  14.004
95354SOL     OW87893   8.075  14.695  11.764
95354SOL    HW187894   7.988  14.679  11.800
95354SOL    HW287895   8.099  14.782  11.796
95355SOL     OW87896   0.269  10.673  13.588
95355SOL    HW187897   0.267  10.765  13.561
95355SOL    HW287898   0.335  10.670  13.658
95356SOL     OW87899   0.398   9.873  13.444
95356SOL    HW187900   0.424   9.924  13.521
95356SOL    HW287901   0.441   9.916  13.371
95357SOL     OW87902   6.353   3.997  10.203
95357SOL    HW187903   6.290   4.046  10.150
95357SOL    HW287904   6.380   3.925  10.146
95358SOL     OW87905   6.829  13.228   7.307
95358SOL    HW187906   6.766  13.284   7.262
95358SOL    HW287907   6.776  13.173   7.365
95359SOL     OW87908   6.785  10.806   6.057
95359SOL    HW187909   6.757  10.886   6.102
95359SOL    HW287910   6.871  10.786   6.095
95360SOL     OW87911  13.879   3.402   8.201
95360SOL    HW187912  13.883   3.312   8.232
95360SOL    HW287913  13.789   3.413   8.170
95361SOL     OW87914   7.972   1.803  10.195
95361SOL    HW187915   8.011   1.858  10.264
95361SOL    HW287916   8.044   1.746  10.167
95362SOL     OW87917   4.992  14.324  14.731
95362SOL    HW187918   5.004  14.302  14.638
95362SOL    HW287919   4.897  14.326  14.743
95363SOL     OW87920  10.305  13.257  12.969
95363SOL    HW187921  10.262  13.315  12.906
95363SOL    HW287922  10.354  13.316  13.027
95364SOL     OW87923   0.913  11.630   0.123
95364SOL    HW187924   0.985  11.682   0.157
95364SOL    HW287925   0.915  11.644   0.029
95365SOL     OW87926   5.557  12.781   9.579
95365SOL    HW187927   5.484  12.797   9.520
95365SOL    HW287928   5.525  12.715   9.640
95366SOL     OW87929   9.739  10.848   9.157
95366SOL    HW187930   9.737  10.885   9.245
95366SOL    HW287931   9.649  10.818   9.142
95367SOL     OW87932  11.775   5.087   2.914
95367SOL    HW187933  11.683   5.093   2.941
95367SOL    HW287934  11.788   5.163   2.858
95368SOL     OW87935  14.174   0.628   7.497
95368SOL    HW187936  14.115   0.598   7.566
95368SOL    HW287937  14.136   0.710   7.467
95369SOL     OW87938  10.748  10.379  14.240
95369SOL    HW187939  10.729  10.292  14.276
95369SOL    HW287940  10.662  10.419  14.228
95370SOL     OW87941   8.821   0.656   9.753
95370SOL    HW187942   8.878   0.732   9.766
95370SOL    HW287943   8.810   0.650   9.658
95371SOL     OW87944  11.356   2.939   2.631
95371SOL    HW187945  11.266   2.972   2.630
95371SOL    HW287946  11.361   2.886   2.711
95372SOL     OW87947  12.957  13.957  10.295
95372SOL    HW187948  12.969  13.958  10.390
95372SOL    HW287949  13.046  13.957  10.260
95373SOL     OW87950   6.840   0.675  10.514
95373SOL    HW187951   6.804   0.642  10.432
95373SOL    HW287952   6.875   0.598  10.558
95374SOL     OW87953  12.848   6.931   8.698
95374SOL    HW187954  12.906   6.954   8.625
95374SOL    HW287955  12.856   7.004   8.759
95375SOL     OW87956   0.573   9.589   7.656
95375SOL    HW187957   0.656   9.600   7.703
95375SOL    HW287958   0.573   9.497   7.628
95376SOL     OW87959   7.423  14.391   8.755
95376SOL    HW187960   7.425  14.425   8.845
95376SOL    HW287961   7.394  14.465   8.702
95377SOL     OW87962  10.171   9.682   6.995
95377SOL    HW187963  10.220   9.608   7.030
95377SOL    HW287964  10.128   9.649   6.917
95378SOL     OW87965  13.724  11.369  14.099
95378SOL    HW187966  13.762  11.298  14.049
95378SOL    HW287967  13.730  11.445  14.041
95379SOL     OW87968   8.925   2.387   7.600
95379SOL    HW187969   8.971   2.317   7.648
95379SOL    HW287970   8.985   2.462   7.603
95380SOL     OW87971   3.083  11.300  12.534
95380SOL    HW187972   3.082  11.338  12.622
95380SOL    HW287973   3.024  11.355  12.483
95381SOL     OW87974  13.311   3.144  10.837
95381SOL    HW187975  13.383   3.146  10.901
95381SOL    HW287976  13.282   3.053  10.837
95382SOL     OW87977  11.745   3.641  11.639
95382SOL    HW187978  11.779   3.551  11.645
95382SOL    HW287979  11.777   3.684  11.718
95383SOL     OW87980  10.837   0.748  11.162
95383SOL    HW187981  10.920   0.795  11.161
95383SOL    HW287982  10.824   0.720  11.071
95384SOL     OW87983  14.433  10.127   5.643
95384SOL    HW187984  14.374  10.203   5.644
95384SOL    HW287985  14.466  10.122   5.733
95385SOL     OW87986   1.805   7.324   0.693
95385SOL    HW187987   1.824   7.324   0.600
95385SOL    HW287988   1.861   7.393   0.729
95386SOL     OW87989   2.718   1.677   7.630
95386SOL    HW187990   2.731   1.771   7.621
95386SOL    HW287991   2.635   1.660   7.585
95387SOL     OW87992   8.604   2.740  10.256
95387SOL    HW187993   8.570   2.657  10.223
95387SOL    HW287994   8.682   2.758  10.203
95388SOL     OW87995   5.183   9.945   9.091
95388SOL    HW187996   5.139   9.964   9.174
95388SOL    HW287997   5.124   9.885   9.046
95389SOL     OW87998   8.866   6.552   3.635
95389SOL    HW187999   8.898   6.638   3.609
95389SOL    HW288000   8.775   6.566   3.660
95390SOL     OW88001   5.128  11.644  11.260
95390SOL    HW188002   5.101  11.581  11.193
95390SOL    HW288003   5.178  11.593  11.323
95391SOL     OW88004   4.534   9.767   2.931
95391SOL    HW188005   4.496   9.725   3.008
95391SOL    HW288006   4.462   9.816   2.892
95392SOL     OW88007   0.887   3.084  12.245
95392SOL    HW188008   0.828   3.152  12.277
95392SOL    HW288009   0.840   3.045  12.171
95393SOL     OW88010   3.094   4.793   6.072
95393SOL    HW188011   3.009   4.766   6.108
95393SOL    HW288012   3.080   4.795   5.977
95394SOL     OW88013  14.623  11.858   8.064
95394SOL    HW188014  14.549  11.865   8.004
95394SOL    HW288015  14.592  11.800   8.133
95395SOL     OW88016   8.852  14.030  13.619
95395SOL    HW188017   8.889  14.075  13.695
95395SOL    HW288018   8.771  14.078  13.601
95396SOL     OW88019  13.158   3.480   4.509
95396SOL    HW188020  13.248   3.448   4.521
95396SOL    HW288021  13.159   3.569   4.546
95397SOL     OW88022   2.668  13.447   5.584
95397SOL    HW188023   2.659  13.385   5.657
95397SOL    HW288024   2.636  13.531   5.620
95398SOL     OW88025   6.234   1.778   2.086
95398SOL    HW188026   6.235   1.870   2.058
95398SOL    HW288027   6.166   1.773   2.152
95399SOL     OW88028   9.534  11.256   3.918
95399SOL    HW188029   9.538  11.265   4.013
95399SOL    HW288030   9.490  11.336   3.888
95400SOL     OW88031   2.974  14.553  14.651
95400SOL    HW188032   2.893  14.502  14.655
95400SOL    HW288033   2.977  14.585  14.561
95401SOL     OW88034   5.320  14.770  12.839
95401SOL    HW188035   5.250  14.835  12.846
95401SOL    HW288036   5.400  14.819  12.858
95402SOL     OW88037   9.572   3.333   3.739
95402SOL    HW188038   9.603   3.283   3.665
95402SOL    HW288039   9.587   3.425   3.714
95403SOL     OW88040   6.773   4.566  10.643
95403SOL    HW188041   6.790   4.510  10.567
95403SOL    HW288042   6.757   4.653  10.606
95404SOL     OW88043   1.654  12.823   5.200
95404SOL    HW188044   1.611  12.857   5.121
95404SOL    HW288045   1.594  12.845   5.271
95405SOL     OW88046   8.294   5.628  14.462
95405SOL    HW188047   8.291   5.721  14.482
95405SOL    HW288048   8.357   5.592  14.524
95406SOL     OW88049   7.255   2.138  11.170
95406SOL    HW188050   7.222   2.177  11.089
95406SOL    HW288051   7.311   2.207  11.208
95407SOL     OW88052   5.240   8.668   4.508
95407SOL    HW188053   5.243   8.575   4.530
95407SOL    HW288054   5.172   8.704   4.565
95408SOL     OW88055  13.967   7.415  12.333
95408SOL    HW188056  13.981   7.508  12.316
95408SOL    HW288057  14.018   7.370  12.266
95409SOL     OW88058   5.181  13.238  12.623
95409SOL    HW188059   5.239  13.163  12.625
95409SOL    HW288060   5.121  13.225  12.698
95410SOL     OW88061   4.105  14.539  12.625
95410SOL    HW188062   4.198  14.519  12.628
95410SOL    HW288063   4.101  14.631  12.597
95411SOL     OW88064   1.887   3.305  10.098
95411SOL    HW188065   1.964   3.263  10.136
95411SOL    HW288066   1.914   3.330  10.009
95412SOL     OW88067   8.076  11.882   7.862
95412SOL    HW188068   8.105  11.914   7.777
95412SOL    HW288069   8.058  11.961   7.912
95413SOL     OW88070   0.594   9.540  14.135
95413SOL    HW188071   0.634   9.589  14.207
95413SOL    HW288072   0.564   9.606  14.073
95414SOL     OW88073   9.994  10.357  13.726
95414SOL    HW188074  10.025  10.323  13.810
95414SOL    HW288075   9.992  10.281  13.668
95415SOL     OW88076  11.170  11.651   5.449
95415SOL    HW188077  11.106  11.720   5.464
95415SOL    HW288078  11.222  11.648   5.529
95416SOL     OW88079  13.892   9.443   1.825
95416SOL    HW188080  13.962   9.490   1.780
95416SOL    HW288081  13.820   9.506   1.829
95417SOL     OW88082   4.494   6.525   2.945
95417SOL    HW188083   4.480   6.449   2.889
95417SOL    HW288084   4.526   6.593   2.887
95418SOL     OW88085  13.448   3.973  14.585
95418SOL    HW188086  13.427   3.937  14.671
95418SOL    HW288087  13.374   3.947  14.530
95419SOL     OW88088   6.970  10.497   0.776
95419SOL    HW188089   6.935  10.420   0.730
95419SOL    HW288090   6.979  10.469   0.867
95420SOL     OW88091  12.090  10.599   6.371
95420SOL    HW188092  12.111  10.566   6.459
95420SOL    HW288093  11.994  10.604   6.370
95421SOL     OW88094  10.215   5.285   7.814
95421SOL    HW188095  10.254   5.226   7.749
95421SOL    HW288096  10.150   5.231   7.859
95422SOL     OW88097   2.802  14.073   6.807
95422SOL    HW188098   2.864  14.142   6.831
95422SOL    HW288099   2.718  14.102   6.844
95423SOL     OW88100   9.205   7.571  14.643
95423SOL    HW188101   9.191   7.519  14.564
95423SOL    HW288102   9.188   7.661  14.616
95424SOL     OW88103  10.622   9.417   2.778
95424SOL    HW188104  10.539   9.415   2.730
95424SOL    HW288105  10.678   9.355   2.732
95425SOL     OW88106   5.287   8.654   0.997
95425SOL    HW188107   5.240   8.686   0.920
95425SOL    HW288108   5.370   8.621   0.963
95426SOL     OW88109  10.348  12.949   8.055
95426SOL    HW188110  10.357  12.923   8.147
95426SOL    HW288111  10.274  12.898   8.023
95427SOL     OW88112   4.940   3.634   1.167
95427SOL    HW188113   4.936   3.695   1.241
95427SOL    HW288114   4.997   3.564   1.198
95428SOL     OW88115   4.101   4.229  13.743
95428SOL    HW188116   4.011   4.247  13.771
95428SOL    HW288117   4.106   4.133  13.740
95429SOL     OW88118   0.241   1.494   3.304
95429SOL    HW188119   0.243   1.422   3.240
95429SOL    HW288120   0.292   1.564   3.263
95430SOL     OW88121  10.285   3.823  14.509
95430SOL    HW188122  10.255   3.781  14.590
95430SOL    HW288123  10.225   3.896  14.497
95431SOL     OW88124   6.007  13.433   8.419
95431SOL    HW188125   5.939  13.500   8.419
95431SOL    HW288126   6.022  13.414   8.511
95432SOL     OW88127  12.293   0.166  11.588
95432SOL    HW188128  12.348   0.138  11.661
95432SOL    HW288129  12.215   0.111  11.595
95433SOL     OW88130   2.487   3.200  10.027
95433SOL    HW188131   2.528   3.245  10.101
95433SOL    HW288132   2.557   3.144   9.992
95434SOL     OW88133   6.105   5.374  14.823
95434SOL    HW188134   6.090   5.380  14.729
95434SOL    HW288135   6.057   5.296  14.850
95435SOL     OW88136   2.208  13.827   5.638
95435SOL    HW188137   2.129  13.871   5.609
95435SOL    HW288138   2.260  13.895   5.681
95436SOL     OW88139   5.214   6.340   7.906
95436SOL    HW188140   5.205   6.288   7.826
95436SOL    HW288141   5.281   6.405   7.885
95437SOL     OW88142   1.143   0.662  11.962
95437SOL    HW188143   1.090   0.669  11.882
95437SOL    HW288144   1.173   0.751  11.979
95438SOL     OW88145   8.803  10.476   1.236
95438SOL    HW188146   8.870  10.482   1.304
95438SOL    HW288147   8.796  10.382   1.218
95439SOL     OW88148   2.706   5.088   7.896
95439SOL    HW188149   2.795   5.069   7.866
95439SOL    HW288150   2.715   5.097   7.991
95440SOL     OW88151  10.193  10.934  12.183
95440SOL    HW188152  10.098  10.924  12.179
95440SOL    HW288153  10.226  10.876  12.115
95441SOL     OW88154   6.155   3.067   3.353
95441SOL    HW188155   6.241   3.101   3.330
95441SOL    HW288156   6.110   3.054   3.269
95442SOL     OW88157   2.631  14.433  13.794
95442SOL    HW188158   2.612  14.514  13.748
95442SOL    HW288159   2.646  14.459  13.885
95443SOL     OW88160  11.523   8.293   6.581
95443SOL    HW188161  11.584   8.264   6.648
95443SOL    HW288162  11.438   8.261   6.611
95444SOL     OW88163   5.869   9.076  10.153
95444SOL    HW188164   5.943   9.048  10.099
95444SOL    HW288165   5.881   9.031  10.237
95445SOL     OW88166   9.985   3.052  12.002
95445SOL    HW188167   9.891   3.065  11.989
95445SOL    HW288168  10.026   3.100  11.930
95446SOL     OW88169   3.582  13.625  14.242
95446SOL    HW188170   3.676  13.639  14.231
95446SOL    HW288171   3.541  13.699  14.198
95447SOL     OW88172   8.188  10.427  11.510
95447SOL    HW188173   8.262  10.477  11.476
95447SOL    HW288174   8.198  10.430  11.605
95448SOL     OW88175   3.809   2.619   3.281
95448SOL    HW188176   3.804   2.599   3.188
95448SOL    HW288177   3.718   2.631   3.308
95449SOL     OW88178  11.787   6.250   7.388
95449SOL    HW188179  11.878   6.256   7.358
95449SOL    HW288180  11.739   6.310   7.331
95450SOL     OW88181   0.326   8.084   0.688
95450SOL    HW188182   0.310   8.059   0.597
95450SOL    HW288183   0.381   8.014   0.723
95451SOL     OW88184   6.934   3.344   0.398
95451SOL    HW188185   6.896   3.390   0.473
95451SOL    HW288186   7.028   3.356   0.407
95452SOL     OW88187  11.603   4.620  13.128
95452SOL    HW188188  11.667   4.690  13.116
95452SOL    HW288189  11.541   4.632  13.056
95453SOL     OW88190   8.935  14.331  11.124
95453SOL    HW188191   8.899  14.261  11.069
95453SOL    HW288192   8.886  14.409  11.099
95454SOL     OW88193   2.546   8.455  13.381
95454SOL    HW188194   2.553   8.466  13.286
95454SOL    HW288195   2.568   8.541  13.417
95455SOL     OW88196   8.943   7.730   9.619
95455SOL    HW188197   8.915   7.676   9.545
95455SOL    HW288198   8.884   7.805   9.618
95456SOL     OW88199  10.241   3.678   2.939
95456SOL    HW188200  10.290   3.661   2.859
95456SOL    HW288201  10.307   3.707   3.002
95457SOL     OW88202   3.943   0.399   9.198
95457SOL    HW188203   3.940   0.304   9.203
95457SOL    HW288204   4.036   0.420   9.192
95458SOL     OW88205   5.659  12.414   8.308
95458SOL    HW188206   5.674  12.425   8.401
95458SOL    HW288207   5.665  12.319   8.294
95459SOL     OW88208  13.162  12.122   3.252
95459SOL    HW188209  13.097  12.131   3.182
95459SOL    HW288210  13.225  12.058   3.217
95460SOL     OW88211   1.055  12.706   8.968
95460SOL    HW188212   1.109  12.707   8.888
95460SOL    HW288213   1.113  12.741   9.035
95461SOL     OW88214   4.172  14.571  13.676
95461SOL    HW188215   4.231  14.519  13.731
95461SOL    HW288216   4.141  14.510  13.610
95462SOL     OW88217   4.906  11.287  12.977
95462SOL    HW188218   4.848  11.333  13.039
95462SOL    HW288219   4.956  11.357  12.935
95463SOL     OW88220   4.256  13.019  12.890
95463SOL    HW188221   4.188  13.022  12.957
95463SOL    HW288222   4.315  13.090  12.913
95464SOL     OW88223   4.991  13.507   0.261
95464SOL    HW188224   4.913  13.486   0.208
95464SOL    HW288225   4.968  13.588   0.307
95465SOL     OW88226   5.767  12.193  13.053
95465SOL    HW188227   5.806  12.238  13.128
95465SOL    HW288228   5.674  12.216  13.056
95466SOL     OW88229  12.088  13.208   4.499
95466SOL    HW188230  12.143  13.138   4.466
95466SOL    HW288231  12.148  13.282   4.511
95467SOL     OW88232   4.883  11.880   3.039
95467SOL    HW188233   4.942  11.846   3.106
95467SOL    HW288234   4.887  11.815   2.968
95468SOL     OW88235  12.762   7.130   9.709
95468SOL    HW188236  12.762   7.122   9.804
95468SOL    HW288237  12.824   7.201   9.691
95469SOL     OW88238  13.132   3.524   9.774
95469SOL    HW188239  13.139   3.431   9.754
95469SOL    HW288240  13.093   3.528   9.861
95470SOL     OW88241  11.471  13.251  10.331
95470SOL    HW188242  11.419  13.260  10.251
95470SOL    HW288243  11.509  13.163  10.325
95471SOL     OW88244   7.625   6.167  10.530
95471SOL    HW188245   7.696   6.140  10.588
95471SOL    HW288246   7.563   6.212  10.587
95472SOL     OW88247   5.436   9.044  11.852
95472SOL    HW188248   5.480   8.994  11.920
95472SOL    HW288249   5.503   9.053  11.783
95473SOL     OW88250  11.667   8.350   7.777
95473SOL    HW188251  11.593   8.370   7.834
95473SOL    HW288252  11.713   8.433   7.766
95474SOL     OW88253   4.452   9.227   9.388
95474SOL    HW188254   4.433   9.213   9.480
95474SOL    HW288255   4.370   9.204   9.343
95475SOL     OW88256  13.802   0.260  12.480
95475SOL    HW188257  13.816   0.184  12.423
95475SOL    HW288258  13.769   0.328  12.421
95476SOL     OW88259   1.712  12.716   9.352
95476SOL    HW188260   1.658  12.740   9.276
95476SOL    HW288261   1.741  12.627   9.334
95477SOL     OW88262  13.351   6.649   0.252
95477SOL    HW188263  13.407   6.643   0.329
95477SOL    HW288264  13.398   6.600   0.184
95478SOL     OW88265  11.027   8.120   6.035
95478SOL    HW188266  11.026   8.150   5.944
95478SOL    HW288267  11.116   8.087   6.048
95479SOL     OW88268  13.794   4.363   8.199
95479SOL    HW188269  13.749   4.371   8.115
95479SOL    HW288270  13.885   4.349   8.176
95480SOL     OW88271  13.629   3.313   2.849
95480SOL    HW188272  13.551   3.368   2.856
95480SOL    HW288273  13.702   3.372   2.867
95481SOL     OW88274  14.523   0.152  14.274
95481SOL    HW188275  14.505   0.214  14.204
95481SOL    HW288276  14.618   0.136  14.268
95482SOL     OW88277   8.220   0.388   0.086
95482SOL    HW188278   8.261   0.474   0.078
95482SOL    HW288279   8.127   0.407   0.098
95483SOL     OW88280  14.249   1.547  13.379
95483SOL    HW188281  14.258   1.452  13.369
95483SOL    HW288282  14.267   1.564  13.472
95484SOL     OW88283   8.647  10.237   8.590
95484SOL    HW188284   8.632  10.226   8.496
95484SOL    HW288285   8.667  10.149   8.622
95485SOL     OW88286  14.645   5.771  11.645
95485SOL    HW188287  14.673   5.720  11.570
95485SOL    HW288288  14.724   5.782  11.698
95486SOL     OW88289   3.452  11.091   3.463
95486SOL    HW188290   3.378  11.049   3.507
95486SOL    HW288291   3.424  11.102   3.372
95487SOL     OW88292   3.303  14.534   5.101
95487SOL    HW188293   3.266  14.615   5.066
95487SOL    HW288294   3.286  14.468   5.033
95488SOL     OW88295   7.319   0.008   5.244
95488SOL    HW188296   7.301  14.873   5.152
95488SOL    HW288297   7.391  14.831   5.266
95489SOL     OW88298   8.917  10.311   8.881
95489SOL    HW188299   8.984  10.353   8.935
95489SOL    HW288300   8.913  10.365   8.802
95490SOL     OW88301   3.756   2.655   0.757
95490SOL    HW188302   3.736   2.649   0.663
95490SOL    HW288303   3.818   2.727   0.763
95491SOL     OW88304   8.123   5.153  10.550
95491SOL    HW188305   8.216   5.148  10.574
95491SOL    HW288306   8.124   5.190  10.462
95492SOL     OW88307  12.848   2.260   5.334
95492SOL    HW188308  12.784   2.196   5.304
95492SOL    HW288309  12.822   2.278   5.425
95493SOL     OW88310   4.041   8.399   5.675
95493SOL    HW188311   4.031   8.372   5.766
95493SOL    HW288312   4.071   8.320   5.630
95494SOL     OW88313  10.938   0.330  12.335
95494SOL    HW188314  10.859   0.372  12.368
95494SOL    HW288315  10.908   0.267  12.271
95495SOL     OW88316  13.366   0.462   8.538
95495SOL    HW188317  13.398   0.475   8.627
95495SOL    HW288318  13.298   0.529   8.527
95496SOL     OW88319   3.306  12.042   1.385
95496SOL    HW188320   3.246  12.029   1.311
95496SOL    HW288321   3.383  12.082   1.346
95497SOL     OW88322   4.251   0.274  13.605
95497SOL    HW188323   4.248   0.291  13.511
95497SOL    HW288324   4.257   0.179  13.612
95498SOL     OW88325  11.028   8.780   0.968
95498SOL    HW188326  11.103   8.831   0.998
95498SOL    HW288327  11.010   8.813   0.880
95499SOL     OW88328   6.631   8.769   5.378
95499SOL    HW188329   6.626   8.689   5.325
95499SOL    HW288330   6.712   8.811   5.351
95500SOL     OW88331   4.772  14.150  10.594
95500SOL    HW188332   4.820  14.145  10.511
95500SOL    HW288333   4.703  14.085  10.587
95501SOL     OW88334   0.961   8.788  14.314
95501SOL    HW188335   0.977   8.694  14.301
95501SOL    HW288336   0.887   8.807  14.256
95502SOL     OW88337   4.324   9.065   3.807
95502SOL    HW188338   4.360   9.142   3.850
95502SOL    HW288339   4.252   9.099   3.753
95503SOL     OW88340   9.004  10.753   6.037
95503SOL    HW188341   8.997  10.701   6.117
95503SOL    HW288342   8.942  10.824   6.049
95504SOL     OW88343   2.397  12.471   9.139
95504SOL    HW188344   2.491  12.489   9.149
95504SOL    HW288345   2.394  12.389   9.090
95505SOL     OW88346  14.648   9.344  12.203
95505SOL    HW188347  14.724   9.294  12.172
95505SOL    HW288348  14.656   9.341  12.298
95506SOL     OW88349   9.219   6.589  12.999
95506SOL    HW188350   9.180   6.503  13.016
95506SOL    HW288351   9.178   6.647  13.064
95507SOL     OW88352  13.023   1.265   8.672
95507SOL    HW188353  13.075   1.227   8.743
95507SOL    HW288354  13.062   1.229   8.592
95508SOL     OW88355   4.332   1.482   1.308
95508SOL    HW188356   4.296   1.571   1.300
95508SOL    HW288357   4.259   1.424   1.286
95509SOL     OW88358  11.487  12.407  12.378
95509SOL    HW188359  11.496  12.496  12.411
95509SOL    HW288360  11.412  12.410  12.319
95510SOL     OW88361   5.945   0.875  11.481
95510SOL    HW188362   5.939   0.846  11.572
95510SOL    HW288363   5.953   0.971  11.487
95511SOL     OW88364   5.679   8.253   9.092
95511SOL    HW188365   5.636   8.178   9.133
95511SOL    HW288366   5.627   8.329   9.119
95512SOL     OW88367   7.754   4.997   9.644
95512SOL    HW188368   7.809   4.932   9.686
95512SOL    HW288369   7.815   5.052   9.595
95513SOL     OW88370  13.875   3.691   7.018
95513SOL    HW188371  13.966   3.722   7.016
95513SOL    HW288372  13.867   3.639   6.938
95514SOL     OW88373   9.372  12.455   2.304
95514SOL    HW188374   9.307  12.397   2.344
95514SOL    HW288375   9.441  12.395   2.274
95515SOL     OW88376  11.536   4.729   2.611
95515SOL    HW188377  11.608   4.786   2.638
95515SOL    HW288378  11.563   4.696   2.525
95516SOL     OW88379  10.363   2.503  13.119
95516SOL    HW188380  10.446   2.532  13.080
95516SOL    HW288381  10.388   2.432  13.178
95517SOL     OW88382  12.535  11.065  12.291
95517SOL    HW188383  12.565  10.974  12.297
95517SOL    HW288384  12.611  11.118  12.313
95518SOL     OW88385   9.234   3.426  11.074
95518SOL    HW188386   9.235   3.451  10.982
95518SOL    HW288387   9.217   3.332  11.074
95519SOL     OW88388  14.748   0.822   8.552
95519SOL    HW188389  14.731   0.911   8.521
95519SOL    HW288390  14.688   0.810   8.625
95520SOL     OW88391   1.867   9.524  12.689
95520SOL    HW188392   1.868   9.581  12.612
95520SOL    HW288393   1.874   9.584  12.763
95521SOL     OW88394   5.467   7.480   6.469
95521SOL    HW188395   5.392   7.438   6.428
95521SOL    HW288396   5.499   7.543   6.403
95522SOL     OW88397   7.926   8.025   3.762
95522SOL    HW188398   7.897   8.116   3.751
95522SOL    HW288399   7.994   8.013   3.696
95523SOL     OW88400  14.506  10.203   9.235
95523SOL    HW188401  14.588  10.235   9.198
95523SOL    HW288402  14.531  10.129   9.290
95524SOL     OW88403   2.845   4.579  11.694
95524SOL    HW188404   2.797   4.562  11.775
95524SOL    HW288405   2.889   4.662  11.708
95525SOL     OW88406   1.767  12.144   1.420
95525SOL    HW188407   1.705  12.204   1.461
95525SOL    HW288408   1.782  12.076   1.486
95526SOL     OW88409   3.407   5.254   1.499
95526SOL    HW188410   3.351   5.305   1.558
95526SOL    HW288411   3.474   5.315   1.470
95527SOL     OW88412   1.698  11.841   8.687
95527SOL    HW188413   1.677  11.773   8.623
95527SOL    HW288414   1.793  11.847   8.685
95528SOL     OW88415   6.258   4.276   8.842
95528SOL    HW188416   6.340   4.257   8.797
95528SOL    HW288417   6.256   4.372   8.850
95529SOL     OW88418   7.370   0.765   1.347
95529SOL    HW188419   7.412   0.691   1.390
95529SOL    HW288420   7.303   0.795   1.410
95530SOL     OW88421  14.054   2.124   9.645
95530SOL    HW188422  13.982   2.124   9.708
95530SOL    HW288423  14.092   2.036   9.653
95531SOL     OW88424  10.164  10.755  13.469
95531SOL    HW188425  10.225  10.699  13.420
95531SOL    HW288426  10.088  10.699  13.485
95532SOL     OW88427   7.015   7.077   8.207
95532SOL    HW188428   7.031   7.111   8.119
95532SOL    HW288429   7.095   7.099   8.255
95533SOL     OW88430  10.185   7.776   9.024
95533SOL    HW188431  10.141   7.769   9.109
95533SOL    HW288432  10.219   7.866   9.021
95534SOL     OW88433  12.151   0.504   8.009
95534SOL    HW188434  12.127   0.536   7.922
95534SOL    HW288435  12.097   0.557   8.069
95535SOL     OW88436   8.726  13.997   3.204
95535SOL    HW188437   8.678  14.077   3.225
95535SOL    HW288438   8.736  13.999   3.109
95536SOL     OW88439   1.015  11.644  12.479
95536SOL    HW188440   0.960  11.661  12.403
95536SOL    HW288441   0.999  11.719  12.537
95537SOL     OW88442   6.380  13.524   7.300
95537SOL    HW188443   6.312  13.483   7.247
95537SOL    HW288444   6.333  13.568   7.371
95538SOL     OW88445  12.045   2.963   6.304
95538SOL    HW188446  12.134   2.930   6.314
95538SOL    HW288447  11.991   2.885   6.289
95539SOL     OW88448   6.159  12.669  11.483
95539SOL    HW188449   6.066  12.691  11.487
95539SOL    HW288450   6.168  12.592  11.538
95540SOL     OW88451   9.576  13.982   4.745
95540SOL    HW188452   9.486  14.016   4.749
95540SOL    HW288453   9.606  14.003   4.657
95541SOL     OW88454  13.234   6.526   4.583
95541SOL    HW188455  13.284   6.479   4.515
95541SOL    HW288456  13.246   6.619   4.560
95542SOL     OW88457   5.882  11.929   4.760
95542SOL    HW188458   5.814  11.946   4.825
95542SOL    HW288459   5.907  12.016   4.728
95543SOL     OW88460   4.086   4.766   1.442
95543SOL    HW188461   4.045   4.840   1.396
95543SOL    HW288462   4.062   4.778   1.533
95544SOL     OW88463  13.450   2.496  10.609
95544SOL    HW188464  13.528   2.461  10.566
95544SOL    HW288465  13.481   2.574  10.655
95545SOL     OW88466  12.026  10.559  11.912
95545SOL    HW188467  12.089  10.515  11.969
95545SOL    HW288468  12.021  10.648  11.945
95546SOL     OW88469   7.641   1.736  12.336
95546SOL    HW188470   7.705   1.683  12.384
95546SOL    HW288471   7.561   1.730  12.388
95547SOL     OW88472   3.891  12.570   0.785
95547SOL    HW188473   3.985  12.552   0.777
95547SOL    HW288474   3.852  12.485   0.808
95548SOL     OW88475   5.558   8.868   4.814
95548SOL    HW188476   5.601   8.846   4.897
95548SOL    HW288477   5.601   8.948   4.785
95549SOL     OW88478  11.047   2.810   1.977
95549SOL    HW188479  11.061   2.724   2.019
95549SOL    HW288480  11.128   2.858   1.993
95550SOL     OW88481   5.409  14.092  14.268
95550SOL    HW188482   5.382  14.134  14.350
95550SOL    HW288483   5.353  14.132  14.201
95551SOL     OW88484  10.145   1.570  11.596
95551SOL    HW188485  10.153   1.496  11.657
95551SOL    HW288486  10.184   1.538  11.515
95552SOL     OW88487   3.632   1.742  14.172
95552SOL    HW188488   3.647   1.689  14.094
95552SOL    HW288489   3.568   1.808  14.144
95553SOL     OW88490   3.733  12.793   0.801
95553SOL    HW188491   3.781  12.712   0.817
95553SOL    HW288492   3.643  12.765   0.785
95554SOL     OW88493   2.877   9.553  12.850
95554SOL    HW188494   2.824   9.486  12.807
95554SOL    HW288495   2.817   9.595  12.912
95555SOL     OW88496  12.484   3.952  13.500
95555SOL    HW188497  12.395   3.974  13.473
95555SOL    HW288498  12.535   4.031  13.482
95556SOL     OW88499   6.741   3.747   1.288
95556SOL    HW188500   6.831   3.762   1.316
95556SOL    HW288501   6.746   3.737   1.193
95557SOL     OW88502   4.233   6.495  10.889
95557SOL    HW188503   4.194   6.561  10.946
95557SOL    HW288504   4.289   6.443  10.947
95558SOL     OW88505   7.240   9.837   7.936
95558SOL    HW188506   7.158   9.797   7.965
95558SOL    HW288507   7.297   9.763   7.918
95559SOL     OW88508   0.097   0.784  14.121
95559SOL    HW188509   0.120   0.711  14.064
95559SOL    HW288510   0.182   0.824  14.143
95560SOL     OW88511   2.122  11.847  12.632
95560SOL    HW188512   2.059  11.785  12.669
95560SOL    HW288513   2.094  11.859  12.541
95561SOL     OW88514   2.119  14.063   7.316
95561SOL    HW188515   2.120  14.103   7.229
95561SOL    HW288516   2.209  14.074   7.348
95562SOL     OW88517   9.010  13.519   0.515
95562SOL    HW188518   9.003  13.468   0.434
95562SOL    HW288519   8.938  13.486   0.570
95563SOL     OW88520   5.549   3.136   1.531
95563SOL    HW188521   5.638   3.136   1.565
95563SOL    HW288522   5.502   3.197   1.588
95564SOL     OW88523   8.871   7.910  10.037
95564SOL    HW188524   8.962   7.915  10.008
95564SOL    HW288525   8.825   7.974   9.983
95565SOL     OW88526   3.821  11.849   6.154
95565SOL    HW188527   3.910  11.847   6.191
95565SOL    HW288528   3.771  11.790   6.209
95566SOL     OW88529  11.649   1.156  12.625
95566SOL    HW188530  11.606   1.229  12.581
95566SOL    HW288531  11.742   1.171  12.612
95567SOL     OW88532  10.601  10.884   0.577
95567SOL    HW188533  10.605  10.792   0.550
95567SOL    HW288534  10.569  10.930   0.499
95568SOL     OW88535   4.908   2.625   4.298
95568SOL    HW188536   4.840   2.560   4.316
95568SOL    HW288537   4.891   2.654   4.208
95569SOL     OW88538   0.776   4.697   9.142
95569SOL    HW188539   0.695   4.647   9.130
95569SOL    HW288540   0.794   4.691   9.235
95570SOL     OW88541   8.443   5.633   5.567
95570SOL    HW188542   8.471   5.662   5.480
95570SOL    HW288543   8.406   5.712   5.607
95571SOL     OW88544   0.002  11.053   8.123
95571SOL    HW188545   0.056  11.008   8.188
95571SOL    HW288546   0.051  11.132   8.101
95572SOL     OW88547  10.826   0.683   3.186
95572SOL    HW188548  10.853   0.773   3.169
95572SOL    HW288549  10.825   0.641   3.100
95573SOL     OW88550   1.198   4.158  14.310
95573SOL    HW188551   1.246   4.081  14.340
95573SOL    HW288552   1.250   4.233  14.339
95574SOL     OW88553  11.082  12.333   0.756
95574SOL    HW188554  11.008  12.292   0.711
95574SOL    HW288555  11.054  12.340   0.847
95575SOL     OW88556  12.587   9.416   6.053
95575SOL    HW188557  12.574   9.368   6.135
95575SOL    HW288558  12.567   9.353   5.984
95576SOL     OW88559   0.668   2.628   3.146
95576SOL    HW188560   0.666   2.595   3.236
95576SOL    HW288561   0.576   2.647   3.125
95577SOL     OW88562   5.918  14.086   5.324
95577SOL    HW188563   5.990  14.098   5.386
95577SOL    HW288564   5.934  14.151   5.256
95578SOL     OW88565   8.666  11.090  11.189
95578SOL    HW188566   8.655  11.181  11.217
95578SOL    HW288567   8.581  11.066  11.152
95579SOL     OW88568   5.108   1.792  12.609
95579SOL    HW188569   5.201   1.808  12.627
95579SOL    HW288570   5.063   1.823  12.687
95580SOL     OW88571   1.415  13.609  13.750
95580SOL    HW188572   1.422  13.691  13.702
95580SOL    HW288573   1.480  13.551  13.708
95581SOL     OW88574   2.468  13.038   3.657
95581SOL    HW188575   2.497  13.029   3.566
95581SOL    HW288576   2.379  13.003   3.657
95582SOL     OW88577   7.336   5.128  10.252
95582SOL    HW188578   7.373   5.199  10.305
95582SOL    HW288579   7.257   5.101  10.299
95583SOL     OW88580   8.611   4.783   6.157
95583SOL    HW188581   8.603   4.717   6.088
95583SOL    HW288582   8.566   4.745   6.233
95584SOL     OW88583   9.514  13.770  12.252
95584SOL    HW188584   9.498  13.682  12.219
95584SOL    HW288585   9.601  13.765  12.291
95585SOL     OW88586   9.384   3.622   1.964
95585SOL    HW188587   9.409   3.544   2.013
95585SOL    HW288588   9.298   3.600   1.927
95586SOL     OW88589  10.094   8.938   1.932
95586SOL    HW188590  10.025   8.997   1.904
95586SOL    HW288591  10.164   8.949   1.868
95587SOL     OW88592   7.584   9.664   0.590
95587SOL    HW188593   7.657   9.689   0.533
95587SOL    HW288594   7.513   9.643   0.530
95588SOL     OW88595   4.808  14.053   1.081
95588SOL    HW188596   4.869  14.122   1.106
95588SOL    HW288597   4.731  14.068   1.136
95589SOL     OW88598   8.348   8.076   2.248
95589SOL    HW188599   8.304   8.031   2.320
95589SOL    HW288600   8.348   8.169   2.273
95590SOL     OW88601  13.793   8.977  12.227
95590SOL    HW188602  13.859   8.920  12.268
95590SOL    HW288603  13.818   8.978  12.134
95591SOL     OW88604   1.733   2.912   8.074
95591SOL    HW188605   1.737   2.947   7.986
95591SOL    HW288606   1.661   2.848   8.072
95592SOL     OW88607   7.652   5.688   8.325
95592SOL    HW188608   7.729   5.683   8.269
95592SOL    HW288609   7.676   5.635   8.402
95593SOL     OW88610   5.321   3.227   6.289
95593SOL    HW188611   5.331   3.153   6.348
95593SOL    HW288612   5.306   3.188   6.203
95594SOL     OW88613   7.464   6.054   7.578
95594SOL    HW188614   7.409   5.976   7.578
95594SOL    HW288615   7.480   6.072   7.486
95595SOL     OW88616   6.849  10.864  12.750
95595SOL    HW188617   6.773  10.813  12.778
95595SOL    HW288618   6.893  10.809  12.685
95596SOL     OW88619   6.611   6.299  12.638
95596SOL    HW188620   6.581   6.319  12.726
95596SOL    HW288621   6.556   6.226  12.609
95597SOL     OW88622   6.858  13.542   6.585
95597SOL    HW188623   6.948  13.511   6.575
95597SOL    HW288624   6.833  13.572   6.498
95598SOL     OW88625  13.748   3.088   8.914
95598SOL    HW188626  13.737   3.008   8.862
95598SOL    HW288627  13.671   3.090   8.971
95599SOL     OW88628   7.928   6.271   0.895
95599SOL    HW188629   7.870   6.231   0.831
95599SOL    HW288630   7.911   6.224   0.977
95600SOL     OW88631   8.125   0.578   2.091
95600SOL    HW188632   8.160   0.489   2.086
95600SOL    HW288633   8.197   0.630   2.124
95601SOL     OW88634   3.039  12.387   8.097
95601SOL    HW188635   3.069  12.424   8.014
95601SOL    HW288636   2.945  12.399   8.096
95602SOL     OW88637   8.407  12.500   0.721
95602SOL    HW188638   8.421  12.594   0.719
95602SOL    HW288639   8.390  12.476   0.629
95603SOL     OW88640   7.542   3.294  11.610
95603SOL    HW188641   7.613   3.339  11.566
95603SOL    HW288642   7.471   3.358  11.614
95604SOL     OW88643   9.614   6.551  14.419
95604SOL    HW188644   9.641   6.636  14.454
95604SOL    HW288645   9.690   6.495  14.431
95605SOL     OW88646   2.617   2.233  12.647
95605SOL    HW188647   2.684   2.236  12.716
95605SOL    HW288648   2.640   2.304  12.587
95606SOL     OW88649  12.420  10.567   3.593
95606SOL    HW188650  12.371  10.485   3.594
95606SOL    HW288651  12.480  10.560   3.668
95607SOL     OW88652   2.673   5.049   3.153
95607SOL    HW188653   2.696   4.963   3.189
95607SOL    HW288654   2.743   5.107   3.181
95608SOL     OW88655   2.000   9.433   2.152
95608SOL    HW188656   1.932   9.494   2.181
95608SOL    HW288657   1.981   9.419   2.059
95609SOL     OW88658   1.457   4.817   1.210
95609SOL    HW188659   1.488   4.808   1.120
95609SOL    HW288660   1.537   4.817   1.263
95610SOL     OW88661   8.476   5.518   8.799
95610SOL    HW188662   8.569   5.511   8.778
95610SOL    HW288663   8.468   5.597   8.852
95611SOL     OW88664   2.254   8.034  14.732
95611SOL    HW188665   2.318   8.063  14.667
95611SOL    HW288666   2.265   7.939  14.735
95612SOL     OW88667  13.267  13.447  14.345
95612SOL    HW188668  13.298  13.484  14.427
95612SOL    HW288669  13.228  13.363  14.369
95613SOL     OW88670   9.961   6.741   5.229
95613SOL    HW188671   9.983   6.701   5.145
95613SOL    HW288672   9.871   6.713   5.245
95614SOL     OW88673  11.241   6.320  13.311
95614SOL    HW188674  11.231   6.375  13.233
95614SOL    HW288675  11.271   6.236  13.277
95615SOL     OW88676   1.931   5.455   7.026
95615SOL    HW188677   1.887   5.472   7.109
95615SOL    HW288678   1.871   5.398   6.978
95616SOL     OW88679   6.622   6.765   0.566
95616SOL    HW188680   6.693   6.798   0.622
95616SOL    HW288681   6.544   6.769   0.621
95617SOL     OW88682  13.869  10.491  12.844
95617SOL    HW188683  13.806  10.461  12.909
95617SOL    HW288684  13.881  10.416  12.785
95618SOL     OW88685  12.319   5.817  10.491
95618SOL    HW188686  12.229   5.799  10.518
95618SOL    HW288687  12.346   5.891  10.545
95619SOL     OW88688   6.826  14.010   0.465
95619SOL    HW188689   6.870  13.935   0.425
95619SOL    HW288690   6.762  14.038   0.399
95620SOL     OW88691   3.613   8.574   1.030
95620SOL    HW188692   3.686   8.584   0.969
95620SOL    HW288693   3.626   8.645   1.093
95621SOL     OW88694  10.317  12.073  10.624
95621SOL    HW188695  10.392  12.020  10.600
95621SOL    HW288696  10.280  12.103  10.541
95622SOL     OW88697  12.177   9.344  12.915
95622SOL    HW188698  12.217   9.416  12.865
95622SOL    HW288699  12.130   9.293  12.849
95623SOL     OW88700   1.219   0.702   6.538
95623SOL    HW188701   1.314   0.710   6.529
95623SOL    HW288702   1.207   0.633   6.604
95624SOL     OW88703  14.786  10.727   9.017
95624SOL    HW188704  14.775  10.771   9.101
95624SOL    HW288705  14.781  10.797   8.952
95625SOL     OW88706   1.598   7.391   9.378
95625SOL    HW188707   1.548   7.471   9.369
95625SOL    HW288708   1.599   7.353   9.291
95626SOL     OW88709   3.374   1.804   1.501
95626SOL    HW188710   3.376   1.709   1.493
95626SOL    HW288711   3.446   1.834   1.445
95627SOL     OW88712  12.563   1.959   9.203
95627SOL    HW188713  12.548   1.919   9.288
95627SOL    HW288714  12.641   1.914   9.169
95628SOL     OW88715  13.539   3.025  14.641
95628SOL    HW188716  13.518   2.951  14.584
95628SOL    HW288717  13.580   2.986  14.718
95629SOL     OW88718   5.042  11.957  13.875
95629SOL    HW188719   5.105  11.891  13.844
95629SOL    HW288720   5.039  11.944  13.969
95630SOL     OW88721   2.900   5.477   2.819
95630SOL    HW188722   2.904   5.548   2.755
95630SOL    HW288723   2.955   5.507   2.891
95631SOL     OW88724   8.550   5.819  13.356
95631SOL    HW188725   8.466   5.824  13.402
95631SOL    HW288726   8.541   5.880  13.283
95632SOL     OW88727   6.896   6.040   5.187
95632SOL    HW188728   6.803   6.048   5.206
95632SOL    HW288729   6.939   6.087   5.258
95633SOL     OW88730   5.870   5.013   4.068
95633SOL    HW188731   5.945   4.984   4.017
95633SOL    HW288732   5.878   4.967   4.152
95634SOL     OW88733   1.863   8.491   9.685
95634SOL    HW188734   1.866   8.511   9.592
95634SOL    HW288735   1.904   8.567   9.727
95635SOL     OW88736   4.699  12.463  14.733
95635SOL    HW188737   4.784  12.464  14.778
95635SOL    HW288738   4.638  12.501  14.797
95636SOL     OW88739   4.483   0.786   6.853
95636SOL    HW188740   4.462   0.739   6.772
95636SOL    HW288741   4.567   0.828   6.836
95637SOL     OW88742  14.095   8.642   4.852
95637SOL    HW188743  14.118   8.566   4.905
95637SOL    HW288744  14.014   8.676   4.891
95638SOL     OW88745   1.165   9.100   1.738
95638SOL    HW188746   1.201   9.172   1.790
95638SOL    HW288747   1.111   9.051   1.800
95639SOL     OW88748   4.474   7.792  11.914
95639SOL    HW188749   4.443   7.718  11.862
95639SOL    HW288750   4.541   7.754  11.971
95640SOL     OW88751  11.669  10.179   6.169
95640SOL    HW188752  11.662  10.196   6.075
95640SOL    HW288753  11.686  10.085   6.174
95641SOL     OW88754   8.493   7.609   8.373
95641SOL    HW188755   8.577   7.650   8.351
95641SOL    HW288756   8.449   7.674   8.427
95642SOL     OW88757  11.238   4.141   7.667
95642SOL    HW188758  11.292   4.131   7.745
95642SOL    HW288759  11.151   4.165   7.701
95643SOL     OW88760  11.345  13.378  13.362
95643SOL    HW188761  11.436  13.372  13.333
95643SOL    HW288762  11.350  13.408  13.452
95644SOL     OW88763  14.590  12.478  11.550
95644SOL    HW188764  14.532  12.516  11.617
95644SOL    HW288765  14.663  12.539  11.544
95645SOL     OW88766  12.317   9.267  10.596
95645SOL    HW188767  12.260   9.223  10.533
95645SOL    HW288768  12.362   9.335  10.545
95646SOL     OW88769  12.908   2.996   3.901
95646SOL    HW188770  12.867   3.075   3.936
95646SOL    HW288771  12.835   2.948   3.860
95647SOL     OW88772   9.167   6.192  11.572
95647SOL    HW188773   9.100   6.260  11.560
95647SOL    HW288774   9.174   6.150  11.486
95648SOL     OW88775   7.938   5.442   4.304
95648SOL    HW188776   8.014   5.432   4.362
95648SOL    HW288777   7.864   5.451   4.364
95649SOL     OW88778  13.336   6.083   8.239
95649SOL    HW188779  13.323   6.067   8.145
95649SOL    HW288780  13.360   6.176   8.244
95650SOL     OW88781   6.405   3.376   0.726
95650SOL    HW188782   6.370   3.289   0.749
95650SOL    HW288783   6.407   3.423   0.809
95651SOL     OW88784   2.197   7.502  11.718
95651SOL    HW188785   2.287   7.480  11.692
95651SOL    HW288786   2.151   7.514  11.635
95652SOL     OW88787  11.101   8.175   8.719
95652SOL    HW188788  11.082   8.131   8.636
95652SOL    HW288789  11.196   8.179   8.723
95653SOL     OW88790   4.123   0.912  10.917
95653SOL    HW188791   4.123   0.878  10.827
95653SOL    HW288792   4.197   0.973  10.919
95654SOL     OW88793  12.840   7.849   5.850
95654SOL    HW188794  12.919   7.903   5.855
95654SOL    HW288795  12.867   7.764   5.884
95655SOL     OW88796   9.493   1.679   1.929
95655SOL    HW188797   9.454   1.604   1.884
95655SOL    HW288798   9.490   1.656   2.022
95656SOL     OW88799   1.515   0.710   0.140
95656SOL    HW188800   1.519   0.622   0.104
95656SOL    HW288801   1.485   0.764   0.067
95657SOL     OW88802   0.199   7.122   6.751
95657SOL    HW188803   0.185   7.202   6.700
95657SOL    HW288804   0.234   7.154   6.835
95658SOL     OW88805   6.372  14.271   1.555
95658SOL    HW188806   6.445  14.213   1.537
95658SOL    HW288807   6.306  14.215   1.596
95659SOL     OW88808   8.407   5.093   5.674
95659SOL    HW188809   8.319   5.108   5.641
95659SOL    HW288810   8.443   5.026   5.615
95660SOL     OW88811   4.881   0.290  11.016
95660SOL    HW188812   4.877   0.245  10.932
95660SOL    HW288813   4.961   0.343  11.011
95661SOL     OW88814  10.946  10.093   2.534
95661SOL    HW188815  10.963  10.014   2.482
95661SOL    HW288816  10.960  10.065   2.624
95662SOL     OW88817  11.448   7.347   9.793
95662SOL    HW188818  11.479   7.278   9.734
95662SOL    HW288819  11.482   7.428   9.755
95663SOL     OW88820   2.074   8.629   3.643
95663SOL    HW188821   2.101   8.551   3.595
95663SOL    HW288822   2.065   8.697   3.576
95664SOL     OW88823  12.234   9.058  13.515
95664SOL    HW188824  12.176   9.001  13.566
95664SOL    HW288825  12.194   9.061  13.428
95665SOL     OW88826  12.697  13.248   0.976
95665SOL    HW188827  12.673  13.170   1.025
95665SOL    HW288828  12.634  13.314   1.003
95666SOL     OW88829   2.460   9.244   4.629
95666SOL    HW188830   2.470   9.330   4.669
95666SOL    HW288831   2.540   9.231   4.578
95667SOL     OW88832   7.037  13.809   1.731
95667SOL    HW188833   7.121  13.768   1.754
95667SOL    HW288834   7.024  13.787   1.639
95668SOL     OW88835   4.601   9.613  14.536
95668SOL    HW188836   4.521   9.574  14.502
95668SOL    HW288837   4.579   9.642  14.624
95669SOL     OW88838   2.399   5.872  11.796
95669SOL    HW188839   2.475   5.823  11.766
95669SOL    HW288840   2.329   5.847  11.735
95670SOL     OW88841  13.786   2.347   6.090
95670SOL    HW188842  13.878   2.353   6.113
95670SOL    HW288843  13.760   2.438   6.073
95671SOL     OW88844   8.890   1.968  10.233
95671SOL    HW188845   8.888   2.037  10.167
95671SOL    HW288846   8.802   1.968  10.271
95672SOL     OW88847   2.729  11.100   3.876
95672SOL    HW188848   2.823  11.088   3.868
95672SOL    HW288849   2.719  11.186   3.918
95673SOL     OW88850  10.661   4.837   8.308
95673SOL    HW188851  10.692   4.812   8.395
95673SOL    HW288852  10.628   4.926   8.318
95674SOL     OW88853  11.969  14.704   5.519
95674SOL    HW188854  11.912  14.775   5.489
95674SOL    HW288855  12.057  14.741   5.518
95675SOL     OW88856  12.487   9.402   0.337
95675SOL    HW188857  12.511   9.318   0.377
95675SOL    HW288858  12.464   9.380   0.247
95676SOL     OW88859   5.582  14.866   2.462
95676SOL    HW188860   5.547  14.801   2.401
95676SOL    HW288861   5.510   0.046   2.474
95677SOL     OW88862   7.140  13.353  12.720
95677SOL    HW188863   7.125  13.334  12.813
95677SOL    HW288864   7.056  13.386  12.688
95678SOL     OW88865   5.377   2.731   5.641
95678SOL    HW188866   5.429   2.777   5.574
95678SOL    HW288867   5.309   2.686   5.591
95679SOL     OW88868   4.619  11.421   5.302
95679SOL    HW188869   4.599  11.331   5.330
95679SOL    HW288870   4.633  11.413   5.208
95680SOL     OW88871   8.617   9.140   7.854
95680SOL    HW188872   8.712   9.149   7.845
95680SOL    HW288873   8.581   9.203   7.791
95681SOL     OW88874   4.619  10.813  11.944
95681SOL    HW188875   4.681  10.884  11.955
95681SOL    HW288876   4.566  10.838  11.868
95682SOL     OW88877   2.165   5.038  10.798
95682SOL    HW188878   2.071   5.033  10.784
95682SOL    HW288879   2.196   5.103  10.736
95683SOL     OW88880  11.161   6.083   4.161
95683SOL    HW188881  11.156   6.097   4.256
95683SOL    HW288882  11.135   5.991   4.150
95684SOL     OW88883  10.279  14.111   8.782
95684SOL    HW188884  10.300  14.137   8.872
95684SOL    HW288885  10.308  14.020   8.776
95685SOL     OW88886   6.230   4.504  13.786
95685SOL    HW188887   6.138   4.501  13.763
95685SOL    HW288888   6.247   4.596  13.806
95686SOL     OW88889   0.821  11.720  14.737
95686SOL    HW188890   0.846  11.756  14.652
95686SOL    HW288891   0.747  11.662  14.719
95687SOL     OW88892   0.676   4.073  11.510
95687SOL    HW188893   0.694   4.165  11.527
95687SOL    HW288894   0.667   4.034  11.597
95688SOL     OW88895  11.702  11.253   2.715
95688SOL    HW188896  11.674  11.229   2.803
95688SOL    HW288897  11.794  11.278   2.723
95689SOL     OW88898   2.152  10.493   2.291
95689SOL    HW188899   2.066  10.495   2.333
95689SOL    HW288900   2.194  10.575   2.317
95690SOL     OW88901   3.919   7.131  11.331
95690SOL    HW188902   3.843   7.107  11.278
95690SOL    HW288903   3.883   7.159  11.415
95691SOL     OW88904   2.164  12.884  11.987
95691SOL    HW188905   2.201  12.969  11.962
95691SOL    HW288906   2.240  12.829  12.004
95692SOL     OW88907   0.861  10.992   5.490
95692SOL    HW188908   0.778  11.038   5.478
95692SOL    HW288909   0.863  10.971   5.584
95693SOL     OW88910   6.516   0.926   7.911
95693SOL    HW188911   6.489   0.948   7.822
95693SOL    HW288912   6.435   0.897   7.954
95694SOL     OW88913   4.688  11.186   8.591
95694SOL    HW188914   4.736  11.269   8.596
95694SOL    HW288915   4.729  11.139   8.518
95695SOL     OW88916  12.602   1.991  11.541
95695SOL    HW188917  12.645   2.019  11.622
95695SOL    HW288918  12.664   1.931  11.501
95696SOL     OW88919  14.340  13.476  14.392
95696SOL    HW188920  14.276  13.543  14.415
95696SOL    HW288921  14.323  13.404  14.453
95697SOL     OW88922  11.481   6.473  10.522
95697SOL    HW188923  11.569   6.462  10.486
95697SOL    HW288924  11.476   6.565  10.547
95698SOL     OW88925   9.786  13.389  11.548
95698SOL    HW188926   9.786  13.485  11.554
95698SOL    HW288927   9.694  13.365  11.555
95699SOL     OW88928  13.735  14.355  11.831
95699SOL    HW188929  13.703  14.371  11.920
95699SOL    HW288930  13.733  14.440  11.788
95700SOL     OW88931   5.006  11.115  13.371
95700SOL    HW188932   5.055  11.117  13.289
95700SOL    HW288933   4.917  11.092  13.345
95701SOL     OW88934   3.630   1.181   5.728
95701SOL    HW188935   3.681   1.232   5.790
95701SOL    HW288936   3.596   1.245   5.666
95702SOL     OW88937   1.505   2.516  13.832
95702SOL    HW188938   1.501   2.523  13.737
95702SOL    HW288939   1.598   2.529  13.853
95703SOL     OW88940   0.137   8.205   8.117
95703SOL    HW188941   0.191   8.179   8.191
95703SOL    HW288942   0.197   8.203   8.042
95704SOL     OW88943   5.892  11.061  14.194
95704SOL    HW188944   5.846  10.984  14.162
95704SOL    HW288945   5.902  11.046  14.288
95705SOL     OW88946   8.630   6.051   5.280
95705SOL    HW188947   8.710   6.043   5.333
95705SOL    HW288948   8.562   6.074   5.343
95706SOL     OW88949  12.449   4.057   8.733
95706SOL    HW188950  12.542   4.079   8.734
95706SOL    HW288951  12.407   4.127   8.784
95707SOL     OW88952   9.390   0.136   4.751
95707SOL    HW188953   9.365   0.202   4.816
95707SOL    HW288954   9.325   0.145   4.681
95708SOL     OW88955  13.778  13.815   9.171
95708SOL    HW188956  13.871  13.833   9.185
95708SOL    HW288957  13.767  13.723   9.196
95709SOL     OW88958  12.783   9.359   3.005
95709SOL    HW188959  12.804   9.452   3.018
95709SOL    HW288960  12.787   9.321   3.093
95710SOL     OW88961   2.483  13.497   3.261
95710SOL    HW188962   2.420  13.446   3.313
95710SOL    HW288963   2.495  13.446   3.181
95711SOL     OW88964  14.755   1.341   3.652
95711SOL    HW188965  14.820   1.335   3.582
95711SOL    HW288966  14.713   1.426   3.638
95712SOL     OW88967  12.805   7.603   0.056
95712SOL    HW188968  12.816   7.525   0.001
95712SOL    HW288969  12.779   7.569   0.141
95713SOL     OW88970   1.415  11.379   3.653
95713SOL    HW188971   1.347  11.323   3.616
95713SOL    HW288972   1.473  11.319   3.699
95714SOL     OW88973   0.150   8.461   9.195
95714SOL    HW188974   0.104   8.544   9.200
95714SOL    HW288975   0.242   8.485   9.187
95715SOL     OW88976   6.844   5.049   9.490
95715SOL    HW188977   6.920   5.006   9.529
95715SOL    HW288978   6.794   4.977   9.450
95716SOL     OW88979   2.631   7.871   3.871
95716SOL    HW188980   2.594   7.833   3.792
95716SOL    HW288981   2.658   7.959   3.845
95717SOL     OW88982  13.362  14.085   5.015
95717SOL    HW188983  13.298  14.070   5.084
95717SOL    HW288984  13.430  14.139   5.056
95718SOL     OW88985   7.895  14.026   4.753
95718SOL    HW188986   7.973  14.081   4.747
95718SOL    HW288987   7.860  14.025   4.664
95719SOL     OW88988  14.482   5.423   0.960
95719SOL    HW188989  14.542   5.397   0.890
95719SOL    HW288990  14.438   5.501   0.926
95720SOL     OW88991   8.573   7.736  11.892
95720SOL    HW188992   8.599   7.778  11.974
95720SOL    HW288993   8.479   7.724  11.900
95721SOL     OW88994   9.056  11.927  14.845
95721SOL    HW188995   9.066  11.936   0.058
95721SOL    HW288996   9.017  12.009  14.816
95722SOL     OW88997   8.223   4.382   4.455
95722SOL    HW188998   8.138   4.420   4.434
95722SOL    HW288999   8.242   4.322   4.383
95723SOL     OW89000   2.046   4.235   0.921
95723SOL    HW189001   2.117   4.252   0.983
95723SOL    HW289002   2.085   4.250   0.835
95724SOL     OW89003   3.180  14.376   0.491
95724SOL    HW189004   3.256  14.326   0.462
95724SOL    HW289005   3.217  14.452   0.537
95725SOL     OW89006  10.744   7.145   6.077
95725SOL    HW189007  10.683   7.090   6.126
95725SOL    HW289008  10.718   7.235   6.097
95726SOL     OW89009   2.907   5.327   2.298
95726SOL    HW189010   2.980   5.341   2.238
95726SOL    HW289011   2.860   5.252   2.261
95727SOL     OW89012   9.313   3.364   3.800
95727SOL    HW189013   9.296   3.431   3.866
95727SOL    HW289014   9.408   3.350   3.804
95728SOL     OW89015  10.922   3.751  14.618
95728SOL    HW189016  10.994   3.734  14.557
95728SOL    HW289017  10.876   3.826  14.580
95729SOL     OW89018   0.978   6.946   8.564
95729SOL    HW189019   0.926   6.898   8.499
95729SOL    HW289020   0.983   6.887   8.639
95730SOL     OW89021   3.732   2.722  13.428
95730SOL    HW189022   3.820   2.690  13.444
95730SOL    HW289023   3.730   2.809  13.468
95731SOL     OW89024   7.690   8.216   2.166
95731SOL    HW189025   7.664   8.298   2.123
95731SOL    HW289026   7.770   8.190   2.120
95732SOL     OW89027   7.713   3.446   2.769
95732SOL    HW189028   7.775   3.379   2.743
95732SOL    HW289029   7.638   3.397   2.803
95733SOL     OW89030   1.564   3.909   4.342
95733SOL    HW189031   1.643   3.915   4.396
95733SOL    HW289032   1.582   3.839   4.280
95734SOL     OW89033  14.473   5.533   6.579
95734SOL    HW189034  14.426   5.560   6.658
95734SOL    HW289035  14.542   5.474   6.611
95735SOL     OW89036   1.325   5.161  10.497
95735SOL    HW189037   1.296   5.227  10.560
95735SOL    HW289038   1.293   5.078  10.533
95736SOL     OW89039   7.777   4.643   3.959
95736SOL    HW189040   7.784   4.658   3.864
95736SOL    HW289041   7.685   4.621   3.973
95737SOL     OW89042   6.404   6.959   3.991
95737SOL    HW189043   6.310   6.941   3.991
95737SOL    HW289044   6.413   7.040   4.042
95738SOL     OW89045   7.493  14.628   1.272
95738SOL    HW189046   7.507  14.550   1.218
95738SOL    HW289047   7.439  14.598   1.345
95739SOL     OW89048   2.100   2.500   4.118
95739SOL    HW189049   2.082   2.589   4.087
95739SOL    HW289050   2.088   2.444   4.042
95740SOL     OW89051   4.643   4.428   9.672
95740SOL    HW189052   4.585   4.495   9.636
95740SOL    HW289053   4.704   4.476   9.727
95741SOL     OW89054   4.659   7.278  11.743
95741SOL    HW189055   4.676   7.369  11.718
95741SOL    HW289056   4.579   7.255  11.696
95742SOL     OW89057   1.713   3.760  11.168
95742SOL    HW189058   1.772   3.685  11.161
95742SOL    HW289059   1.738   3.802  11.251
95743SOL     OW89060  14.140   1.533   0.781
95743SOL    HW189061  14.235   1.522   0.774
95743SOL    HW289062  14.117   1.597   0.714
95744SOL     OW89063  10.469  14.743  10.839
95744SOL    HW189064  10.492  14.662  10.792
95744SOL    HW289065  10.374  14.741  10.843
95745SOL     OW89066   7.125  13.075   4.299
95745SOL    HW189067   7.032  13.098   4.299
95745SOL    HW289068   7.128  12.985   4.267
95746SOL     OW89069   9.799   1.159   9.418
95746SOL    HW189070   9.884   1.202   9.409
95746SOL    HW289071   9.795   1.129   9.509
95747SOL     OW89072  12.700   8.145   6.684
95747SOL    HW189073  12.659   8.151   6.771
95747SOL    HW289074  12.770   8.210   6.686
95748SOL     OW89075  14.805   5.636   2.057
95748SOL    HW189076  14.797   5.645   2.152
95748SOL    HW289077  14.855   5.556   2.045
95749SOL     OW89078   2.793   7.873  11.664
95749SOL    HW189079   2.875   7.921  11.662
95749SOL    HW289080   2.760   7.878  11.574
95750SOL     OW89081   1.277  13.868   1.907
95750SOL    HW189082   1.251  13.942   1.962
95750SOL    HW289083   1.368  13.887   1.884
95751SOL     OW89084   4.242   0.990   9.810
95751SOL    HW189085   4.153   0.960   9.796
95751SOL    HW289086   4.245   1.017   9.902
95752SOL     OW89087   7.166   9.040   0.018
95752SOL    HW189088   7.118   8.960   0.037
95752SOL    HW289089   7.123   9.075  14.822
95753SOL     OW89090   2.976   5.460   4.384
95753SOL    HW189091   3.007   5.486   4.297
95753SOL    HW289092   3.016   5.375   4.400
95754SOL     OW89093   6.517   8.450  12.810
95754SOL    HW189094   6.542   8.513  12.743
95754SOL    HW289095   6.540   8.491  12.893
95755SOL     OW89096   0.952   9.570   0.656
95755SOL    HW189097   0.931   9.528   0.739
95755SOL    HW289098   0.985   9.656   0.680
95756SOL     OW89099   2.577   1.601   7.837
95756SOL    HW189100   2.636   1.619   7.764
95756SOL    HW289101   2.606   1.660   7.907
95757SOL     OW89102   7.859  14.699   9.603
95757SOL    HW189103   7.815  14.630   9.653
95757SOL    HW289104   7.828  14.781   9.641
95758SOL     OW89105   0.284   9.224   5.952
95758SOL    HW189106   0.202   9.218   5.904
95758SOL    HW289107   0.266   9.181   6.036
95759SOL     OW89108   3.006   4.774  10.773
95759SOL    HW189109   2.953   4.836  10.722
95759SOL    HW289110   2.982   4.792  10.864
95760SOL     OW89111  10.428   0.532   9.231
95760SOL    HW189112  10.515   0.540   9.192
95760SOL    HW289113  10.400   0.443   9.212
95761SOL     OW89114   3.391   8.141   3.243
95761SOL    HW189115   3.340   8.079   3.295
95761SOL    HW289116   3.376   8.226   3.285
95762SOL     OW89117  14.791   0.254  10.940
95762SOL    HW189118  14.765   0.206  10.862
95762SOL    HW289119  14.871   0.211  10.970
95763SOL     OW89120   6.701   9.173   3.504
95763SOL    HW189121   6.774   9.144   3.559
95763SOL    HW289122   6.687   9.101   3.442
95764SOL     OW89123   9.277  12.460   2.833
95764SOL    HW189124   9.205  12.425   2.780
95764SOL    HW289125   9.329  12.383   2.855
95765SOL     OW89126  14.789   7.294   6.469
95765SOL    HW189127  14.881   7.321   6.478
95765SOL    HW289128  14.791   7.199   6.476
95766SOL     OW89129   8.031   4.238   1.288
95766SOL    HW189130   8.113   4.204   1.325
95766SOL    HW289131   7.971   4.164   1.288
95767SOL     OW89132   0.446   5.420   5.231
95767SOL    HW189133   0.380   5.412   5.300
95767SOL    HW289134   0.525   5.448   5.276
95768SOL     OW89135   3.417   6.403   3.253
95768SOL    HW189136   3.391   6.371   3.167
95768SOL    HW289137   3.499   6.358   3.272
95769SOL     OW89138   8.323   8.703   9.686
95769SOL    HW189139   8.339   8.782   9.634
95769SOL    HW289140   8.268   8.732   9.759
95770SOL     OW89141   9.132   2.291   4.625
95770SOL    HW189142   9.140   2.196   4.640
95770SOL    HW289143   9.221   2.318   4.600
95771SOL     OW89144   7.087   3.498   7.832
95771SOL    HW189145   7.130   3.451   7.903
95771SOL    HW289146   7.158   3.543   7.786
95772SOL     OW89147   4.265   3.071   9.743
95772SOL    HW189148   4.314   2.997   9.782
95772SOL    HW289149   4.205   3.029   9.682
95773SOL     OW89150   4.105  14.798   8.230
95773SOL    HW189151   4.131  14.707   8.242
95773SOL    HW289152   4.181  14.840   8.190
95774SOL     OW89153  12.640   2.605   6.684
95774SOL    HW189154  12.559   2.654   6.704
95774SOL    HW289155  12.609   2.524   6.644
95775SOL     OW89156   7.545  14.489   8.239
95775SOL    HW189157   7.525  14.553   8.170
95775SOL    HW289158   7.511  14.529   8.319
95776SOL     OW89159   3.591   7.183  13.793
95776SOL    HW189160   3.545   7.099  13.789
95776SOL    HW289161   3.663   7.175  13.731
95777SOL     OW89162  14.264  14.459   2.731
95777SOL    HW189163  14.287  14.366   2.719
95777SOL    HW289164  14.348  14.503   2.743
95778SOL     OW89165   4.613  12.978   7.995
95778SOL    HW189166   4.522  12.961   7.970
95778SOL    HW289167   4.664  12.916   7.942
95779SOL     OW89168   9.591  13.657   8.023
95779SOL    HW189169   9.589  13.562   8.037
95779SOL    HW289170   9.628  13.667   7.935
95780SOL     OW89171   2.419   1.705   0.457
95780SOL    HW189172   2.391   1.614   0.463
95780SOL    HW289173   2.492   1.712   0.519
95781SOL     OW89174   5.360  11.217  11.758
95781SOL    HW189175   5.273  11.180  11.745
95781SOL    HW289176   5.343  11.310  11.776
95782SOL     OW89177  11.923  11.627   8.876
95782SOL    HW189178  11.964  11.712   8.867
95782SOL    HW289179  11.829  11.645   8.870
95783SOL     OW89180   9.289   6.947  13.034
95783SOL    HW189181   9.339   6.996  13.100
95783SOL    HW289182   9.352   6.885  12.998
95784SOL     OW89183   8.528   9.969   4.618
95784SOL    HW189184   8.562  10.031   4.682
95784SOL    HW289185   8.495  10.024   4.547
95785SOL     OW89186   8.203   4.011  14.709
95785SOL    HW189187   8.174   4.052  14.628
95785SOL    HW289188   8.285   4.056  14.730
95786SOL     OW89189   7.356   6.346   7.130
95786SOL    HW189190   7.282   6.352   7.069
95786SOL    HW289191   7.322   6.385   7.211
95787SOL     OW89192   8.342   6.884   1.729
95787SOL    HW189193   8.323   6.868   1.637
95787SOL    HW289194   8.264   6.929   1.762
95788SOL     OW89195   5.884  10.247   2.907
95788SOL    HW189196   5.879  10.320   2.968
95788SOL    HW289197   5.822  10.183   2.941
95789SOL     OW89198   1.405   7.014   1.828
95789SOL    HW189199   1.461   7.088   1.854
95789SOL    HW289200   1.361   7.044   1.748
95790SOL     OW89201   9.149   2.558   9.179
95790SOL    HW189202   9.117   2.493   9.243
95790SOL    HW289203   9.244   2.553   9.187
95791SOL     OW89204  13.682   1.298  13.377
95791SOL    HW189205  13.757   1.354  13.358
95791SOL    HW289206  13.721   1.217  13.411
95792SOL     OW89207  11.158   4.090   0.435
95792SOL    HW189208  11.123   4.105   0.348
95792SOL    HW289209  11.222   4.020   0.424
95793SOL     OW89210   2.946   9.707   2.232
95793SOL    HW189211   2.851   9.690   2.231
95793SOL    HW289212   2.959   9.776   2.167
95794SOL     OW89213   2.161   7.821   9.499
95794SOL    HW189214   2.245   7.834   9.542
95794SOL    HW289215   2.178   7.754   9.432
95795SOL     OW89216  10.544   6.376   4.057
95795SOL    HW189217  10.623   6.430   4.060
95795SOL    HW289218  10.565   6.300   4.113
95796SOL     OW89219   3.868   1.404   8.126
95796SOL    HW189220   3.783   1.439   8.150
95796SOL    HW289221   3.874   1.417   8.031
95797SOL     OW89222   5.941   0.957  10.316
95797SOL    HW189223   5.895   0.987  10.394
95797SOL    HW289224   5.936   1.030  10.255
95798SOL     OW89225  12.309   0.615   1.959
95798SOL    HW189226  12.270   0.555   2.023
95798SOL    HW289227  12.333   0.559   1.885
95799SOL     OW89228   0.809   5.374  11.442
95799SOL    HW189229   0.873   5.328  11.496
95799SOL    HW289230   0.790   5.454  11.489
95800SOL     OW89231  10.543  11.922   2.598
95800SOL    HW189232  10.566  11.848   2.654
95800SOL    HW289233  10.450  11.910   2.579
95801SOL     OW89234   1.168   9.933   2.956
95801SOL    HW189235   1.146   9.881   3.034
95801SOL    HW289236   1.165  10.024   2.987
95802SOL     OW89237   7.985   4.453   9.156
95802SOL    HW189238   7.923   4.436   9.085
95802SOL    HW289239   7.984   4.373   9.208
95803SOL     OW89240   8.331   3.355   1.771
95803SOL    HW189241   8.262   3.289   1.779
95803SOL    HW289242   8.411   3.305   1.757
95804SOL     OW89243  10.608  10.902   1.382
95804SOL    HW189244  10.647  10.988   1.401
95804SOL    HW289245  10.672  10.858   1.327
95805SOL     OW89246   8.204   7.938   7.260
95805SOL    HW189247   8.254   8.001   7.208
95805SOL    HW289248   8.177   7.987   7.337
95806SOL     OW89249  14.857   4.088   4.236
95806SOL    HW189250   0.053   4.144   4.231
95806SOL    HW289251  14.789   4.138   4.190
95807SOL     OW89252   6.641   7.421  10.206
95807SOL    HW189253   6.603   7.500  10.243
95807SOL    HW289254   6.590   7.350  10.245
95808SOL     OW89255   3.472   6.008  12.898
95808SOL    HW189256   3.538   6.050  12.843
95808SOL    HW289257   3.399   5.988  12.839
95809SOL     OW89258   7.230  12.247   9.766
95809SOL    HW189259   7.242  12.317   9.701
95809SOL    HW289260   7.145  12.265   9.805
95810SOL     OW89261   3.212  13.043   5.688
95810SOL    HW189262   3.182  12.954   5.673
95810SOL    HW289263   3.201  13.057   5.782
95811SOL     OW89264   6.789   4.633   2.072
95811SOL    HW189265   6.839   4.604   2.148
95811SOL    HW289266   6.725   4.563   2.057
95812SOL     OW89267   0.048   0.833   1.015
95812SOL    HW189268   0.047   0.748   0.971
95812SOL    HW289269  14.875   0.821   1.092
95813SOL     OW89270   2.505   3.713   2.749
95813SOL    HW189271   2.459   3.754   2.676
95813SOL    HW289272   2.569   3.654   2.707
95814SOL     OW89273  14.273   0.972   8.034
95814SOL    HW189274  14.306   0.949   7.947
95814SOL    HW289275  14.179   0.983   8.022
95815SOL     OW89276   3.835   0.078  10.044
95815SOL    HW189277   3.821   0.018   9.971
95815SOL    HW289278   3.872   0.157  10.003
95816SOL     OW89279   1.318  11.646   9.199
95816SOL    HW189280   1.267  11.634   9.279
95816SOL    HW289281   1.260  11.617   9.128
95817SOL     OW89282   1.366   4.517  13.771
95817SOL    HW189283   1.399   4.555  13.690
95817SOL    HW289284   1.420   4.557  13.840
95818SOL     OW89285  14.513   6.416  13.674
95818SOL    HW189286  14.427   6.395  13.712
95818SOL    HW289287  14.545   6.489  13.727
95819SOL     OW89288  10.420   6.672   5.977
95819SOL    HW189289  10.364   6.667   5.900
95819SOL    HW289290  10.381   6.609   6.039
95820SOL     OW89291  13.080   5.026  13.419
95820SOL    HW189292  13.022   4.974  13.474
95820SOL    HW289293  13.168   5.000  13.446
95821SOL     OW89294   8.063   5.379   7.927
95821SOL    HW189295   8.112   5.437   7.986
95821SOL    HW289296   8.048   5.432   7.849
95822SOL     OW89297   0.056   9.743   9.355
95822SOL    HW189298   0.009   9.664   9.380
95822SOL    HW289299  14.870   9.801   9.320
95823SOL     OW89300  13.823   1.043   5.415
95823SOL    HW189301  13.742   1.050   5.465
95823SOL    HW289302  13.885   1.003   5.476
95824SOL     OW89303   2.851  11.170   2.052
95824SOL    HW189304   2.840  11.148   1.959
95824SOL    HW289305   2.839  11.087   2.098
95825SOL     OW89306   3.961   5.094   3.350
95825SOL    HW189307   4.026   5.159   3.376
95825SOL    HW289308   3.879   5.125   3.388
95826SOL     OW89309  10.062   9.257   3.278
95826SOL    HW189310  10.151   9.280   3.306
95826SOL    HW289311  10.070   9.243   3.183
95827SOL     OW89312  13.197  13.435  12.046
95827SOL    HW189313  13.239  13.460  12.129
95827SOL    HW289314  13.153  13.353  12.065
95828SOL     OW89315   6.130   5.364   8.814
95828SOL    HW189316   6.053   5.405   8.853
95828SOL    HW289317   6.178   5.437   8.774
95829SOL     OW89318  13.636   3.494   8.384
95829SOL    HW189319  13.607   3.466   8.298
95829SOL    HW289320  13.564   3.471   8.443
95830SOL     OW89321   6.581   6.522   5.283
95830SOL    HW189322   6.568   6.574   5.362
95830SOL    HW289323   6.507   6.545   5.227
95831SOL     OW89324   2.779  14.314   7.571
95831SOL    HW189325   2.735  14.229   7.573
95831SOL    HW289326   2.715  14.375   7.608
95832SOL     OW89327  10.425  12.032   1.105
95832SOL    HW189328  10.412  11.993   1.019
95832SOL    HW289329  10.498  12.093   1.093
95833SOL     OW89330   6.924   7.305  10.862
95833SOL    HW189331   6.865   7.365  10.815
95833SOL    HW289332   6.947   7.239  10.797
95834SOL     OW89333   4.287   9.882   1.731
95834SOL    HW189334   4.316   9.790   1.736
95834SOL    HW289335   4.284   9.910   1.823
95835SOL     OW89336  14.804  14.220  10.899
95835SOL    HW189337  14.787  14.126  10.892
95835SOL    HW289338  14.723  14.261  10.869
95836SOL     OW89339   7.021  12.169   3.460
95836SOL    HW189340   6.977  12.183   3.543
95836SOL    HW289341   7.001  12.247   3.408
95837SOL     OW89342  11.464  14.819   9.295
95837SOL    HW189343  11.557  14.803   9.276
95837SOL    HW289344  11.464   0.015   9.350
95838SOL     OW89345  12.767   9.399   1.821
95838SOL    HW189346  12.744   9.451   1.899
95838SOL    HW289347  12.722   9.316   1.834
95839SOL     OW89348   3.473   3.343  14.315
95839SOL    HW189349   3.481   3.437  14.301
95839SOL    HW289350   3.553   3.319  14.362
95840SOL     OW89351  10.545   1.676  11.063
95840SOL    HW189352  10.465   1.695  11.014
95840SOL    HW289353  10.611   1.735  11.026
95841SOL     OW89354   7.517  12.477   8.051
95841SOL    HW189355   7.537  12.407   7.989
95841SOL    HW289356   7.422  12.481   8.054
95842SOL     OW89357   1.166   8.587   8.769
95842SOL    HW189358   1.176   8.666   8.716
95842SOL    HW289359   1.085   8.547   8.738
95843SOL     OW89360   0.814  11.964   2.882
95843SOL    HW189361   0.816  11.870   2.864
95843SOL    HW289362   0.874  11.976   2.956
95844SOL     OW89363   0.378   0.442   0.773
95844SOL    HW189364   0.308   0.486   0.724
95844SOL    HW289365   0.437   0.409   0.705
95845SOL     OW89366  10.501  11.710   2.777
95845SOL    HW189367  10.576  11.687   2.831
95845SOL    HW289368  10.454  11.777   2.828
95846SOL     OW89369   2.265  12.699  10.478
95846SOL    HW189370   2.268  12.794  10.489
95846SOL    HW289371   2.298  12.664  10.561
95847SOL     OW89372   7.308   7.342   6.653
95847SOL    HW189373   7.284   7.254   6.625
95847SOL    HW289374   7.278   7.347   6.743
95848SOL     OW89375   9.573   1.023   7.110
95848SOL    HW189376   9.550   1.112   7.084
95848SOL    HW289377   9.532   0.967   7.044
95849SOL     OW89378   6.370  12.646   4.218
95849SOL    HW189379   6.440  12.599   4.263
95849SOL    HW289380   6.387  12.738   4.236
95850SOL     OW89381  11.669   8.225   0.575
95850SOL    HW189382  11.734   8.284   0.614
95850SOL    HW289383  11.667   8.150   0.633
95851SOL     OW89384   5.396   0.019  11.477
95851SOL    HW189385   5.372   0.112  11.477
95851SOL    HW289386   5.322  14.858  11.434
95852SOL     OW89387   1.972  12.992  14.332
95852SOL    HW189388   2.005  13.051  14.399
95852SOL    HW289389   1.916  12.931  14.379
95853SOL     OW89390  12.949  12.149   9.745
95853SOL    HW189391  13.040  12.133   9.721
95853SOL    HW289392  12.907  12.179   9.664
95854SOL     OW89393   8.832  14.766  12.661
95854SOL    HW189394   8.805  14.758  12.569
95854SOL    HW289395   8.927  14.774  12.657
95855SOL     OW89396  11.187   4.274   5.701
95855SOL    HW189397  11.163   4.202   5.642
95855SOL    HW289398  11.282   4.273   5.702
95856SOL     OW89399  12.063  13.858   8.291
95856SOL    HW189400  12.096  13.798   8.358
95856SOL    HW289401  12.047  13.940   8.338
95857SOL     OW89402  13.026   9.781   8.637
95857SOL    HW189403  13.107   9.777   8.686
95857SOL    HW289404  12.973   9.709   8.672
95858SOL     OW89405   1.185   8.049   2.360
95858SOL    HW189406   1.115   8.107   2.391
95858SOL    HW289407   1.160   7.962   2.392
95859SOL     OW89408   6.183   1.111   8.345
95859SOL    HW189409   6.189   1.064   8.428
95859SOL    HW289410   6.130   1.189   8.365
95860SOL     OW89411   8.689  11.203   8.319
95860SOL    HW189412   8.736  11.121   8.335
95860SOL    HW289413   8.756  11.271   8.331
95861SOL     OW89414   2.894   0.002   5.239
95861SOL    HW189415   2.832  14.833   5.187
95861SOL    HW289416   2.952  14.819   5.279
95862SOL     OW89417   6.287   4.336   7.754
95862SOL    HW189418   6.211   4.285   7.724
95862SOL    HW289419   6.349   4.331   7.681
95863SOL     OW89420   8.273   7.090   5.024
95863SOL    HW189421   8.221   7.017   5.057
95863SOL    HW289422   8.209   7.152   4.990
95864SOL     OW89423  10.230   2.450   7.145
95864SOL    HW189424  10.303   2.509   7.129
95864SOL    HW289425  10.209   2.413   7.059
95865SOL     OW89426   6.553  14.291   5.849
95865SOL    HW189427   6.534  14.199   5.863
95865SOL    HW289428   6.520  14.310   5.761
95866SOL     OW89429  11.059   5.099  14.619
95866SOL    HW189430  11.129   5.111  14.684
95866SOL    HW289431  10.978   5.102  14.670
95867SOL     OW89432  13.975   1.665   5.360
95867SOL    HW189433  13.993   1.755   5.388
95867SOL    HW289434  13.879   1.659   5.360
95868SOL     OW89435  11.975   0.619  11.437
95868SOL    HW189436  11.943   0.530  11.424
95868SOL    HW289437  11.897   0.674  11.435
95869SOL     OW89438  12.656  12.197   4.311
95869SOL    HW189439  12.568  12.165   4.290
95869SOL    HW289440  12.649  12.226   4.402
95870SOL     OW89441  13.872   9.150  11.502
95870SOL    HW189442  13.798   9.208  11.518
95870SOL    HW289443  13.840   9.086  11.438
95871SOL     OW89444  11.944   6.894   2.982
95871SOL    HW189445  11.995   6.814   2.973
95871SOL    HW289446  11.969   6.947   2.907
95872SOL     OW89447   2.106   2.190   1.387
95872SOL    HW189448   2.121   2.189   1.481
95872SOL    HW289449   2.185   2.153   1.348
95873SOL     OW89450   5.628   4.499   1.767
95873SOL    HW189451   5.569   4.465   1.835
95873SOL    HW289452   5.619   4.437   1.695
95874SOL     OW89453   7.532   3.220   7.356
95874SOL    HW189454   7.561   3.140   7.399
95874SOL    HW289455   7.559   3.209   7.265
95875SOL     OW89456  10.815  12.490  12.924
95875SOL    HW189457  10.735  12.534  12.953
95875SOL    HW289458  10.886  12.537  12.969
95876SOL     OW89459  13.650   9.817   4.788
95876SOL    HW189460  13.613   9.850   4.870
95876SOL    HW289461  13.744   9.813   4.804
95877SOL     OW89462   4.189  12.207  11.832
95877SOL    HW189463   4.099  12.184  11.855
95877SOL    HW289464   4.182  12.296  11.796
95878SOL     OW89465   9.851   2.740   6.928
95878SOL    HW189466   9.855   2.821   6.979
95878SOL    HW289467   9.869   2.670   6.991
95879SOL     OW89468   1.906   9.340   0.945
95879SOL    HW189469   1.869   9.298   0.867
95879SOL    HW289470   1.992   9.300   0.956
95880SOL     OW89471  11.984  14.212  12.503
95880SOL    HW189472  11.968  14.118  12.513
95880SOL    HW289473  12.049  14.217  12.433
95881SOL     OW89474   7.577   3.357  10.973
95881SOL    HW189475   7.610   3.441  10.941
95881SOL    HW289476   7.621   3.344  11.057
95882SOL     OW89477   7.033   7.066   4.449
95882SOL    HW189478   7.019   6.995   4.386
95882SOL    HW289479   7.045   7.021   4.533
95883SOL     OW89480  10.782  14.031   5.701
95883SOL    HW189481  10.769  13.999   5.612
95883SOL    HW289482  10.870  14.068   5.700
95884SOL     OW89483  10.498  13.122   1.472
95884SOL    HW189484  10.429  13.182   1.443
95884SOL    HW289485  10.542  13.095   1.391
95885SOL     OW89486  12.321   1.180   1.365
95885SOL    HW189487  12.290   1.124   1.293
95885SOL    HW289488  12.266   1.258   1.360
95886SOL     OW89489  12.012   4.213   5.795
95886SOL    HW189490  12.076   4.182   5.859
95886SOL    HW289491  12.045   4.298   5.767
95887SOL     OW89492   3.592   7.012  11.067
95887SOL    HW189493   3.628   7.056  10.990
95887SOL    HW289494   3.579   7.082  11.131
95888SOL     OW89495  10.854  10.611   5.110
95888SOL    HW189496  10.775  10.566   5.139
95888SOL    HW289497  10.916  10.540   5.091
95889SOL     OW89498   0.527   5.559  14.546
95889SOL    HW189499   0.582   5.590  14.475
95889SOL    HW289500   0.442   5.544  14.506
95890SOL     OW89501  14.050  13.229  12.623
95890SOL    HW189502  14.098  13.166  12.569
95890SOL    HW289503  13.976  13.180  12.659
95891SOL     OW89504  10.827   2.436   0.035
95891SOL    HW189505  10.874   2.488  14.851
95891SOL    HW289506  10.877   2.355   0.041
95892SOL     OW89507   7.273  14.637   8.711
95892SOL    HW189508   7.206  14.643   8.643
95892SOL    HW289509   7.229  14.592   8.784
95893SOL     OW89510  10.844  14.795   1.116
95893SOL    HW189511  10.812  14.799   1.025
95893SOL    HW289512  10.767  14.808   1.170
95894SOL     OW89513   3.656   3.759   6.454
95894SOL    HW189514   3.622   3.836   6.407
95894SOL    HW289515   3.581   3.726   6.503
95895SOL     OW89516  11.618   1.389   9.814
95895SOL    HW189517  11.637   1.444   9.738
95895SOL    HW289518  11.674   1.425   9.883
95896SOL     OW89519   1.494   2.101   7.038
95896SOL    HW189520   1.512   2.136   7.125
95896SOL    HW289521   1.487   2.179   6.983
95897SOL     OW89522   4.224   4.498   4.134
95897SOL    HW189523   4.220   4.410   4.096
95897SOL    HW289524   4.169   4.551   4.076
95898SOL     OW89525   6.421  12.221   4.486
95898SOL    HW189526   6.454  12.245   4.399
95898SOL    HW289527   6.332  12.190   4.470
95899SOL     OW89528   9.619   8.866   1.694
95899SOL    HW189529   9.612   8.962   1.687
95899SOL    HW289530   9.601   8.848   1.786
95900SOL     OW89531   2.481  13.534   7.833
95900SOL    HW189532   2.543  13.599   7.799
95900SOL    HW289533   2.395  13.566   7.806
95901SOL     OW89534  10.729   3.269   7.707
95901SOL    HW189535  10.651   3.214   7.697
95901SOL    HW289536  10.730   3.324   7.628
95902SOL     OW89537   7.689   4.997  14.184
95902SOL    HW189538   7.600   4.962  14.194
95902SOL    HW289539   7.680   5.067  14.119
95903SOL     OW89540  12.081  12.388   6.133
95903SOL    HW189541  12.152  12.374   6.070
95903SOL    HW289542  12.090  12.319   6.198
95904SOL     OW89543  11.833  12.736   1.300
95904SOL    HW189544  11.794  12.784   1.373
95904SOL    HW289545  11.927  12.737   1.318
95905SOL     OW89546   4.362   9.973   5.654
95905SOL    HW189547   4.423   9.931   5.594
95905SOL    HW289548   4.415   9.994   5.731
95906SOL     OW89549   6.529   6.684  10.628
95906SOL    HW189550   6.623   6.666  10.634
95906SOL    HW289551   6.514   6.701  10.535
95907SOL     OW89552   7.415   7.257   1.067
95907SOL    HW189553   7.390   7.183   1.013
95907SOL    HW289554   7.510   7.263   1.058
95908SOL     OW89555   3.783   3.196  10.430
95908SOL    HW189556   3.734   3.232  10.504
95908SOL    HW289557   3.770   3.260  10.359
95909SOL     OW89558   9.576  14.809   0.184
95909SOL    HW189559   9.590   0.007   0.134
95909SOL    HW289560   9.506  14.832   0.246
95910SOL     OW89561  14.439  10.838  11.179
95910SOL    HW189562  14.502  10.910  11.166
95910SOL    HW289563  14.472  10.791  11.256
95911SOL     OW89564   8.264  11.689  10.987
95911SOL    HW189565   8.196  11.633  11.022
95911SOL    HW289566   8.230  11.778  10.997
95912SOL     OW89567  14.099   2.385  12.308
95912SOL    HW189568  14.147   2.302  12.312
95912SOL    HW289569  14.161   2.447  12.269
95913SOL     OW89570   5.169   1.167   3.299
95913SOL    HW189571   5.113   1.173   3.377
95913SOL    HW289572   5.149   1.081   3.262
95914SOL     OW89573   0.399   7.907   1.993
95914SOL    HW189574   0.408   7.873   2.082
95914SOL    HW289575   0.360   7.836   1.944
95915SOL     OW89576  14.379   7.351  11.815
95915SOL    HW189577  14.367   7.403  11.895
95915SOL    HW289578  14.459   7.386  11.775
95916SOL     OW89579   7.465   6.720   3.566
95916SOL    HW189580   7.407   6.724   3.642
95916SOL    HW289581   7.537   6.663   3.594
95917SOL     OW89582   9.148   2.621  11.340
95917SOL    HW189583   9.197   2.568  11.403
95917SOL    HW289584   9.211   2.641  11.271
95918SOL     OW89585   5.803   6.426  11.572
95918SOL    HW189586   5.851   6.497  11.614
95918SOL    HW289587   5.728   6.411  11.630
95919SOL     OW89588   0.672   9.067   0.263
95919SOL    HW189589   0.642   9.044   0.351
95919SOL    HW289590   0.768   9.067   0.270
95920SOL     OW89591   3.828   2.902   8.727
95920SOL    HW189592   3.917   2.866   8.737
95920SOL    HW289593   3.826   2.978   8.785
95921SOL     OW89594  14.618  13.100  14.831
95921SOL    HW189595  14.676  13.105  14.755
95921SOL    HW289596  14.532  13.081  14.794
95922SOL     OW89597   4.698   1.903   5.876
95922SOL    HW189598   4.618   1.872   5.834
95922SOL    HW289599   4.679   1.993   5.901
95923SOL     OW89600   1.029   6.303   4.599
95923SOL    HW189601   0.958   6.363   4.575
95923SOL    HW289602   1.001   6.266   4.683
95924SOL     OW89603   6.409   2.867   6.237
95924SOL    HW189604   6.324   2.833   6.266
95924SOL    HW289605   6.469   2.793   6.247
95925SOL     OW89606   0.732  13.939  13.088
95925SOL    HW189607   0.823  13.938  13.059
95925SOL    HW289608   0.737  13.928  13.183
95926SOL     OW89609   6.485   5.571   4.338
95926SOL    HW189610   6.405   5.535   4.299
95926SOL    HW289611   6.455   5.616   4.418
95927SOL     OW89612   2.725   2.947  13.011
95927SOL    HW189613   2.769   2.995  12.941
95927SOL    HW289614   2.637   2.985  13.014
95928SOL     OW89615  12.597   3.122   7.608
95928SOL    HW189616  12.578   3.033   7.639
95928SOL    HW289617  12.692   3.124   7.596
95929SOL     OW89618   1.514  13.567   8.828
95929SOL    HW189619   1.455  13.523   8.889
95929SOL    HW289620   1.459  13.589   8.753
95930SOL     OW89621   0.507  10.847   5.749
95930SOL    HW189622   0.551  10.847   5.834
95930SOL    HW289623   0.417  10.874   5.768
95931SOL     OW89624   0.921  12.739   7.986
95931SOL    HW189625   0.885  12.696   7.908
95931SOL    HW289626   0.869  12.819   7.995
95932SOL     OW89627  13.442   8.000  11.188
95932SOL    HW189628  13.377   7.933  11.211
95932SOL    HW289629  13.458   8.047  11.270
95933SOL     OW89630  10.668   9.754   5.392
95933SOL    HW189631  10.664   9.765   5.297
95933SOL    HW289632  10.596   9.694   5.411
95934SOL     OW89633   4.066   6.190   8.670
95934SOL    HW189634   4.042   6.122   8.733
95934SOL    HW289635   4.084   6.268   8.724
95935SOL     OW89636   0.556  14.512   5.084
95935SOL    HW189637   0.569  14.436   5.140
95935SOL    HW289638   0.541  14.585   5.146
95936SOL     OW89639  10.382   9.561   4.883
95936SOL    HW189640  10.376   9.477   4.838
95936SOL    HW289641  10.291   9.585   4.901
95937SOL     OW89642   2.192   0.047   9.625
95937SOL    HW189643   2.288   0.040   9.627
95937SOL    HW289644   2.166  14.881   9.547
95938SOL     OW89645   6.617  12.491   4.848
95938SOL    HW189646   6.582  12.464   4.763
95938SOL    HW289647   6.604  12.586   4.849
95939SOL     OW89648   7.206   8.657  11.347
95939SOL    HW189649   7.179   8.594  11.281
95939SOL    HW289650   7.281   8.616  11.391
95940SOL     OW89651  14.395  10.490  10.495
95940SOL    HW189652  14.380  10.471  10.402
95940SOL    HW289653  14.444  10.414  10.527
95941SOL     OW89654  13.072   3.127   5.185
95941SOL    HW189655  13.083   3.096   5.095
95941SOL    HW289656  13.126   3.206   5.190
95942SOL     OW89657   8.231   1.837   1.605
95942SOL    HW189658   8.220   1.840   1.510
95942SOL    HW289659   8.313   1.884   1.622
95943SOL     OW89660   7.068   0.031  12.153
95943SOL    HW189661   6.973   0.034  12.170
95943SOL    HW289662   7.075   0.041  12.058
95944SOL     OW89663   2.369   9.959   1.290
95944SOL    HW189664   2.390   9.950   1.382
95944SOL    HW289665   2.276   9.980   1.288
95945SOL     OW89666   8.424  13.731   9.106
95945SOL    HW189667   8.463  13.764   9.026
95945SOL    HW289668   8.483  13.661   9.135
95946SOL     OW89669   1.721   5.533   3.788
95946SOL    HW189670   1.711   5.464   3.721
95946SOL    HW289671   1.815   5.544   3.798
95947SOL     OW89672   7.891   8.034   4.300
95947SOL    HW189673   7.840   8.089   4.241
95947SOL    HW289674   7.936   8.095   4.358
95948SOL     OW89675   3.048  13.694   6.671
95948SOL    HW189676   2.969  13.747   6.682
95948SOL    HW289677   3.026  13.610   6.712
95949SOL     OW89678   9.163   8.230   2.199
95949SOL    HW189679   9.219   8.157   2.171
95949SOL    HW289680   9.081   8.216   2.151
95950SOL     OW89681   4.835  14.609   3.739
95950SOL    HW189682   4.917  14.574   3.774
95950SOL    HW289683   4.784  14.531   3.717
95951SOL     OW89684   6.490   1.497   4.210
95951SOL    HW189685   6.434   1.514   4.134
95951SOL    HW289686   6.579   1.497   4.174
95952SOL     OW89687   0.303   7.254   5.802
95952SOL    HW189688   0.338   7.342   5.789
95952SOL    HW289689   0.381   7.199   5.812
95953SOL     OW89690   1.907   7.278   6.127
95953SOL    HW189691   1.884   7.296   6.036
95953SOL    HW289692   1.960   7.352   6.154
95954SOL     OW89693  14.746  12.892   6.022
95954SOL    HW189694  14.811  12.827   6.050
95954SOL    HW289695  14.782  12.929   5.942
95955SOL     OW89696   4.222   3.971   7.540
95955SOL    HW189697   4.225   3.896   7.482
95955SOL    HW289698   4.270   4.039   7.494
95956SOL     OW89699   8.952   9.527   5.943
95956SOL    HW189700   8.870   9.568   5.918
95956SOL    HW289701   8.964   9.455   5.881
95957SOL     OW89702   0.890   4.604  14.246
95957SOL    HW189703   0.974   4.588  14.203
95957SOL    HW289704   0.843   4.662  14.185
95958SOL     OW89705   7.773   3.111   9.508
95958SOL    HW189706   7.816   3.026   9.521
95958SOL    HW289707   7.742   3.136   9.595
95959SOL     OW89708   2.989   1.409  10.523
95959SOL    HW189709   3.037   1.477  10.476
95959SOL    HW289710   2.962   1.347  10.455
95960SOL     OW89711   0.275   7.149   4.221
95960SOL    HW189712   0.204   7.143   4.157
95960SOL    HW289713   0.337   7.211   4.183
95961SOL     OW89714   6.125   4.084  13.289
95961SOL    HW189715   6.041   4.103  13.248
95961SOL    HW289716   6.102   4.049  13.375
95962SOL     OW89717  12.406   2.066   1.997
95962SOL    HW189718  12.476   2.060   1.932
95962SOL    HW289719  12.326   2.079   1.945
95963SOL     OW89720   5.586  14.758  13.953
95963SOL    HW189721   5.611  14.825  14.017
95963SOL    HW289722   5.668  14.712  13.934
95964SOL     OW89723   8.999   8.711   9.329
95964SOL    HW189724   9.067   8.738   9.267
95964SOL    HW289725   8.984   8.618   9.310
95965SOL     OW89726   8.078  11.744  12.024
95965SOL    HW189727   8.140  11.705  12.086
95965SOL    HW289728   8.025  11.670  11.994
95966SOL     OW89729  10.761   5.612  12.371
95966SOL    HW189730  10.847   5.623  12.412
95966SOL    HW289731  10.725   5.534  12.413
95967SOL     OW89732   3.509   5.945  11.172
95967SOL    HW189733   3.543   5.859  11.148
95967SOL    HW289734   3.579   5.984  11.224
95968SOL     OW89735  14.076  11.045   2.447
95968SOL    HW189736  14.079  11.046   2.351
95968SOL    HW289737  14.161  11.079   2.474
95969SOL     OW89738  11.666  12.296   7.825
95969SOL    HW189739  11.715  12.377   7.813
95969SOL    HW289740  11.730  12.226   7.812
95970SOL     OW89741   8.252   2.194   0.849
95970SOL    HW189742   8.284   2.176   0.937
95970SOL    HW289743   8.326   2.174   0.792
95971SOL     OW89744  10.272  14.685   5.954
95971SOL    HW189745  10.308  14.631   6.025
95971SOL    HW289746  10.270  14.628   5.878
95972SOL     OW89747  12.601   7.018   8.927
95972SOL    HW189748  12.600   7.112   8.947
95972SOL    HW289749  12.576   6.975   9.008
95973SOL     OW89750  12.877   3.788   5.483
95973SOL    HW189751  12.794   3.805   5.438
95973SOL    HW289752  12.895   3.696   5.465
95974SOL     OW89753  10.690   1.832   8.404
95974SOL    HW189754  10.720   1.843   8.314
95974SOL    HW289755  10.684   1.921   8.439
95975SOL     OW89756   9.251   1.621  10.759
95975SOL    HW189757   9.238   1.669  10.841
95975SOL    HW289758   9.193   1.546  10.765
95976SOL     OW89759   1.737  10.545   4.405
95976SOL    HW189760   1.800  10.604   4.448
95976SOL    HW289761   1.789  10.470   4.377
95977SOL     OW89762   8.058  11.285  13.681
95977SOL    HW189763   8.109  11.205  13.689
95977SOL    HW289764   7.969  11.260  13.708
95978SOL     OW89765   7.745  12.231   9.710
95978SOL    HW189766   7.739  12.145   9.668
95978SOL    HW289767   7.673  12.232   9.773
95979SOL     OW89768  14.042  14.010   6.397
95979SOL    HW189769  14.089  14.067   6.336
95979SOL    HW289770  14.027  14.064   6.474
95980SOL     OW89771   4.569   6.185   5.882
95980SOL    HW189772   4.636   6.132   5.926
95980SOL    HW289773   4.541   6.132   5.808
95981SOL     OW89774  14.509  10.612   6.859
95981SOL    HW189775  14.458  10.538   6.894
95981SOL    HW289776  14.533  10.663   6.936
95982SOL     OW89777  13.834   7.173  12.322
95982SOL    HW189778  13.918   7.132  12.339
95982SOL    HW289779  13.853   7.267  12.323
95983SOL     OW89780  14.711   2.957  13.752
95983SOL    HW189781  14.677   3.002  13.829
95983SOL    HW289782  14.726   2.867  13.781
95984SOL     OW89783   3.707   0.481  12.020
95984SOL    HW189784   3.705   0.391  12.054
95984SOL    HW289785   3.797   0.491  11.987
95985SOL     OW89786   0.186   2.140  11.152
95985SOL    HW189787   0.164   2.084  11.078
95985SOL    HW289788   0.150   2.226  11.128
95986SOL     OW89789  11.395   0.731  12.796
95986SOL    HW189790  11.451   0.744  12.719
95986SOL    HW289791  11.390   0.818  12.837
95987SOL     OW89792   2.737  10.616   4.993
95987SOL    HW189793   2.707  10.667   5.068
95987SOL    HW289794   2.740  10.526   5.026
95988SOL     OW89795   4.445   5.255   7.040
95988SOL    HW189796   4.381   5.242   7.110
95988SOL    HW289797   4.393   5.289   6.966
95989SOL     OW89798   7.749   7.451   5.760
95989SOL    HW189799   7.687   7.518   5.787
95989SOL    HW289800   7.722   7.427   5.671
95990SOL     OW89801   5.701  12.988   1.024
95990SOL    HW189802   5.731  12.913   1.075
95990SOL    HW289803   5.773  13.005   0.963
95991SOL     OW89804   3.023   3.062   0.011
95991SOL    HW189805   3.014   2.974   0.048
95991SOL    HW289806   3.117   3.075  14.881
95992SOL     OW89807   3.103   2.903   8.755
95992SOL    HW189808   3.024   2.890   8.703
95992SOL    HW289809   3.162   2.833   8.727
95993SOL     OW89810   8.134   7.408   6.589
95993SOL    HW189811   8.138   7.487   6.644
95993SOL    HW289812   8.048   7.370   6.608
95994SOL     OW89813  10.959   6.567   9.073
95994SOL    HW189814  11.018   6.494   9.052
95994SOL    HW289815  10.983   6.591   9.163
95995SOL     OW89816  11.851  12.459  10.255
95995SOL    HW189817  11.938  12.482  10.287
95995SOL    HW289818  11.843  12.365  10.272
95996SOL     OW89819   9.636   0.785  13.083
95996SOL    HW189820   9.657   0.758  12.994
95996SOL    HW289821   9.645   0.881  13.081
95997SOL     OW89822  12.460   9.915  13.357
95997SOL    HW189823  12.410   9.992  13.330
95997SOL    HW289824  12.510   9.944  13.433
95998SOL     OW89825   5.570   2.236  14.444
95998SOL    HW189826   5.509   2.310  14.444
95998SOL    HW289827   5.588   2.220  14.352
95999SOL     OW89828  11.920   0.096   8.800
95999SOL    HW189829  11.985   0.039   8.760
95999SOL    HW289830  11.894   0.156   8.730
96000SOL     OW89831   3.511  13.120  11.744
96000SOL    HW189832   3.602  13.148  11.732
96000SOL    HW289833   3.474  13.121  11.656
96001SOL     OW89834  11.275  11.799   5.248
96001SOL    HW189835  11.349  11.828   5.302
96001SOL    HW289836  11.228  11.736   5.303
96002SOL     OW89837   0.741   8.558   7.662
96002SOL    HW189838   0.703   8.531   7.745
96002SOL    HW289839   0.669   8.597   7.613
96003SOL     OW89840   6.818   8.380  11.454
96003SOL    HW189841   6.905   8.372  11.415
96003SOL    HW289842   6.818   8.466  11.496
96004SOL     OW89843  14.538   4.511   4.182
96004SOL    HW189844  14.495   4.587   4.144
96004SOL    HW289845  14.499   4.503   4.269
96005SOL     OW89846  10.334  14.666  10.333
96005SOL    HW189847  10.249  14.644  10.372
96005SOL    HW289848  10.397  14.613  10.383
96006SOL     OW89849   9.428   2.488   3.471
96006SOL    HW189850   9.334   2.499   3.482
96006SOL    HW289851   9.441   2.485   3.376
96007SOL     OW89852   4.007   5.683  11.667
96007SOL    HW189853   4.036   5.663  11.756
96007SOL    HW289854   3.915   5.655  11.665
96008SOL     OW89855   5.110  12.868  12.197
96008SOL    HW189856   5.036  12.820  12.158
96008SOL    HW289857   5.075  12.900  12.281
96009SOL     OW89858   9.818  12.562   9.643
96009SOL    HW189859   9.754  12.515   9.591
96009SOL    HW289860   9.825  12.512   9.724
96010SOL     OW89861   2.423  10.182   5.405
96010SOL    HW189862   2.332  10.155   5.393
96010SOL    HW289863   2.420  10.245   5.477
96011SOL     OW89864  14.701  12.507   1.379
96011SOL    HW189865  14.666  12.426   1.415
96011SOL    HW289866  14.625  12.551   1.339
96012SOL     OW89867  10.851   2.585   1.567
96012SOL    HW189868  10.823   2.499   1.597
96012SOL    HW289869  10.939   2.595   1.602
96013SOL     OW89870  10.022   7.137   8.713
96013SOL    HW189871  10.105   7.095   8.690
96013SOL    HW289872  10.003   7.195   8.640
96014SOL     OW89873  14.717   0.504   8.821
96014SOL    HW189874  14.685   0.414   8.827
96014SOL    HW289875  14.639   0.556   8.801
96015SOL     OW89876   1.139  11.337   2.590
96015SOL    HW189877   1.168  11.320   2.501
96015SOL    HW289878   1.161  11.429   2.605
96016SOL     OW89879   3.223   2.557   9.884
96016SOL    HW189880   3.275   2.506   9.947
96016SOL    HW289881   3.187   2.629   9.935
96017SOL     OW89882  14.652   2.265  11.188
96017SOL    HW189883  14.632   2.317  11.266
96017SOL    HW289884  14.747   2.272  11.178
96018SOL     OW89885   5.309   5.075   6.530
96018SOL    HW189886   5.246   5.132   6.574
96018SOL    HW289887   5.261   4.995   6.512
96019SOL     OW89888  11.326  13.433   8.103
96019SOL    HW189889  11.273  13.364   8.064
96019SOL    HW289890  11.289  13.446   8.190
96020SOL     OW89891   6.253   5.866   8.551
96020SOL    HW189892   6.304   5.801   8.600
96020SOL    HW289893   6.184   5.814   8.509
96021SOL     OW89894   3.821   8.614   1.652
96021SOL    HW189895   3.836   8.526   1.618
96021SOL    HW289896   3.849   8.672   1.582
96022SOL     OW89897   6.027   7.276   4.429
96022SOL    HW189898   6.081   7.344   4.469
96022SOL    HW289899   5.938   7.293   4.461
96023SOL     OW89900   6.411   0.943  12.887
96023SOL    HW189901   6.439   0.860  12.926
96023SOL    HW289902   6.325   0.959  12.924
96024SOL     OW89903   7.087   7.284  11.627
96024SOL    HW189904   6.996   7.313  11.634
96024SOL    HW289905   7.082   7.188  11.629
96025SOL     OW89906  11.695   9.385   0.534
96025SOL    HW189907  11.716   9.307   0.586
96025SOL    HW289908  11.651   9.444   0.595
96026SOL     OW89909   1.709   3.582   8.481
96026SOL    HW189910   1.735   3.663   8.437
96026SOL    HW289911   1.648   3.611   8.549
96027SOL     OW89912   6.104   5.211   9.158
96027SOL    HW189913   6.040   5.146   9.186
96027SOL    HW289914   6.056   5.268   9.098
96028SOL     OW89915   5.771   3.216  14.829
96028SOL    HW189916   5.840   3.276  14.801
96028SOL    HW289917   5.693   3.245  14.782
96029SOL     OW89918   5.784   3.554   7.634
96029SOL    HW189919   5.871   3.584   7.607
96029SOL    HW289920   5.741   3.633   7.667
96030SOL     OW89921  13.529   8.112  11.418
96030SOL    HW189922  13.616   8.123  11.457
96030SOL    HW289923  13.497   8.202  11.405
96031SOL     OW89924   4.116  12.736   1.760
96031SOL    HW189925   4.178  12.715   1.690
96031SOL    HW289926   4.171  12.748   1.838
96032SOL     OW89927   9.930  11.490  12.170
96032SOL    HW189928   9.843  11.449  12.168
96032SOL    HW289929   9.915  11.576  12.208
96033SOL     OW89930   5.744   3.888  12.819
96033SOL    HW189931   5.662   3.926  12.789
96033SOL    HW289932   5.780   3.954  12.879
96034SOL     OW89933   3.167  14.534   2.575
96034SOL    HW189934   3.127  14.499   2.654
96034SOL    HW289935   3.254  14.493   2.572
96035SOL     OW89936   3.739   7.978   0.330
96035SOL    HW189937   3.694   7.990   0.413
96035SOL    HW289938   3.802   8.050   0.326
96036SOL     OW89939  13.071  13.130   7.182
96036SOL    HW189940  13.109  13.042   7.176
96036SOL    HW289941  12.987  13.123   7.138
96037SOL     OW89942   7.149  12.420   1.498
96037SOL    HW189943   7.167  12.431   1.592
96037SOL    HW289944   7.234  12.405   1.458
96038SOL     OW89945   2.137   6.105   1.970
96038SOL    HW189946   2.198   6.031   1.978
96038SOL    HW289947   2.171   6.171   2.030
96039SOL     OW89948  13.493   1.050   4.480
96039SOL    HW189949  13.406   1.089   4.474
96039SOL    HW289950  13.547   1.102   4.420
96040SOL     OW89951   2.919  12.235  12.744
96040SOL    HW189952   2.994  12.261  12.797
96040SOL    HW289953   2.958  12.186  12.671
96041SOL     OW89954   5.089   7.694   6.367
96041SOL    HW189955   5.030   7.645   6.309
96041SOL    HW289956   5.063   7.666   6.455
96042SOL     OW89957  11.562   9.181  11.831
96042SOL    HW189958  11.565   9.092  11.796
96042SOL    HW289959  11.643   9.222  11.801
96043SOL     OW89960   8.284   1.589  11.532
96043SOL    HW189961   8.212   1.589  11.468
96043SOL    HW289962   8.325   1.503  11.522
96044SOL     OW89963   2.281  10.785   9.526
96044SOL    HW189964   2.185  10.779   9.530
96044SOL    HW289965   2.310  10.755   9.612
96045SOL     OW89966   7.228  10.253   3.844
96045SOL    HW189967   7.191  10.241   3.931
96045SOL    HW289968   7.160  10.299   3.795
96046SOL     OW89969   5.363  14.195   7.324
96046SOL    HW189970   5.320  14.257   7.265
96046SOL    HW289971   5.445  14.238   7.348
96047SOL     OW89972   1.596   2.914  14.260
96047SOL    HW189973   1.507   2.935  14.231
96047SOL    HW289974   1.612   2.973  14.334
96048SOL     OW89975   6.219  14.042   6.338
96048SOL    HW189976   6.271  14.095   6.279
96048SOL    HW289977   6.140  14.093   6.354
96049SOL     OW89978   4.853  10.269  10.893
96049SOL    HW189979   4.819  10.218  10.966
96049SOL    HW289980   4.804  10.351  10.896
96050SOL     OW89981   8.989   8.356  14.302
96050SOL    HW189982   8.989   8.301  14.380
96050SOL    HW289983   8.935   8.432  14.326
96051SOL     OW89984   2.859   9.983  12.409
96051SOL    HW189985   2.808   9.936  12.343
96051SOL    HW289986   2.811   9.967  12.491
96052SOL     OW89987   0.115   2.642  13.057
96052SOL    HW189988   0.199   2.688  13.054
96052SOL    HW289989   0.100   2.613  12.968
96053SOL     OW89990   3.464   8.543  11.233
96053SOL    HW189991   3.467   8.636  11.208
96053SOL    HW289992   3.461   8.496  11.150
96054SOL     OW89993   2.605  11.286   9.867
96054SOL    HW189994   2.544  11.337   9.815
96054SOL    HW289995   2.689  11.332   9.859
96055SOL     OW89996  14.545   8.255   9.521
96055SOL    HW189997  14.485   8.197   9.475
96055SOL    HW289998  14.626   8.252   9.471
96056SOL     OW89999   4.372  14.022   3.865
96056SOL    HW190000   4.298  13.964   3.879
96056SOL    HW290001   4.437  13.969   3.818
96057SOL     OW90002   5.193  14.299   6.234
96057SOL    HW190003   5.253  14.242   6.282
96057SOL    HW290004   5.243  14.326   6.157
96058SOL     OW90005  10.466  11.886  11.641
96058SOL    HW190006  10.428  11.959  11.689
96058SOL    HW290007  10.519  11.839  11.706
96059SOL     OW90008  14.155  14.256   7.968
96059SOL    HW190009  14.176  14.230   8.057
96059SOL    HW290010  14.061  14.239   7.959
96060SOL     OW90011   6.973   8.530   0.777
96060SOL    HW190012   7.012   8.469   0.840
96060SOL    HW290013   7.017   8.510   0.694
96061SOL     OW90014  11.885  13.697  11.721
96061SOL    HW190015  11.845  13.641  11.654
96061SOL    HW290016  11.813  13.717  11.781
96062SOL     OW90017   4.470   7.570   9.445
96062SOL    HW190018   4.521   7.643   9.411
96062SOL    HW290019   4.454   7.514   9.370
96063SOL     OW90020   0.232   2.100   3.629
96063SOL    HW190021   0.268   2.022   3.672
96063SOL    HW290022   0.188   2.148   3.699
96064SOL     OW90023   1.209   5.679   7.788
96064SOL    HW190024   1.222   5.616   7.717
96064SOL    HW290025   1.153   5.747   7.750
96065SOL     OW90026   1.295   0.130  13.599
96065SOL    HW190027   1.253   0.206  13.641
96065SOL    HW290028   1.385   0.132  13.630
96066SOL     OW90029   8.537   2.266   8.141
96066SOL    HW190030   8.547   2.224   8.056
96066SOL    HW290031   8.443   2.258   8.160
96067SOL     OW90032  11.687   9.282  11.190
96067SOL    HW190033  11.689   9.371  11.156
96067SOL    HW290034  11.743   9.232  11.131
96068SOL     OW90035   5.145  10.288  12.562
96068SOL    HW190036   5.075  10.320  12.620
96068SOL    HW290037   5.199  10.232  12.618
96069SOL     OW90038   5.767  11.371  14.348
96069SOL    HW190039   5.840  11.364  14.287
96069SOL    HW290040   5.731  11.458  14.332
96070SOL     OW90041  14.745  14.009  10.291
96070SOL    HW190042  14.799  14.041  10.219
96070SOL    HW290043  14.787  13.929  10.320
96071SOL     OW90044   4.981   7.702  11.574
96071SOL    HW190045   4.989   7.677  11.666
96071SOL    HW290046   4.917   7.640  11.538
96072SOL     OW90047  10.747   2.337   1.606
96072SOL    HW190048  10.665   2.299   1.637
96072SOL    HW290049  10.772   2.282   1.532
96073SOL     OW90050   0.771  14.874   8.463
96073SOL    HW190051   0.813   0.041   8.534
96073SOL    HW290052   0.838  14.867   8.395
96074SOL     OW90053   0.051   1.581  13.222
96074SOL    HW190054   0.098   1.499  13.239
96074SOL    HW290055   0.103   1.647  13.268
96075SOL     OW90056  13.666   9.762   2.186
96075SOL    HW190057  13.598   9.828   2.174
96075SOL    HW290058  13.728   9.778   2.115
96076SOL     OW90059   3.045   9.193   3.208
96076SOL    HW190060   3.005   9.196   3.121
96076SOL    HW290061   3.134   9.161   3.192
96077SOL     OW90062   0.556   3.274   8.648
96077SOL    HW190063   0.523   3.356   8.611
96077SOL    HW290064   0.485   3.211   8.635
96078SOL     OW90065   7.589   5.795   2.287
96078SOL    HW190066   7.657   5.728   2.281
96078SOL    HW290067   7.561   5.809   2.196
96079SOL     OW90068   5.070   6.789   6.765
96079SOL    HW190069   4.995   6.821   6.715
96079SOL    HW290070   5.033   6.753   6.845
96080SOL     OW90071  13.699   2.877   0.576
96080SOL    HW190072  13.779   2.829   0.553
96080SOL    HW290073  13.651   2.817   0.634
96081SOL     OW90074   2.993  12.806  13.393
96081SOL    HW190075   3.019  12.732  13.448
96081SOL    HW290076   3.065  12.814  13.330
96082SOL     OW90077   4.015   9.474   0.990
96082SOL    HW190078   4.021   9.395   1.042
96082SOL    HW290079   4.048   9.544   1.047
96083SOL     OW90080   1.614   1.095   2.301
96083SOL    HW190081   1.664   1.150   2.241
96083SOL    HW290082   1.600   1.014   2.252
96084SOL     OW90083  10.812  13.443  13.755
96084SOL    HW190084  10.868  13.452  13.832
96084SOL    HW290085  10.725  13.425  13.789
96085SOL     OW90086   2.277  12.263  14.368
96085SOL    HW190087   2.241  12.175  14.373
96085SOL    HW290088   2.241  12.300  14.287
96086SOL     OW90089   2.321  13.141   3.324
96086SOL    HW190090   2.256  13.177   3.264
96086SOL    HW290091   2.314  13.196   3.402
96087SOL     OW90092   0.244   4.205   4.142
96087SOL    HW190093   0.193   4.249   4.210
96087SOL    HW290094   0.217   4.248   4.061
96088SOL     OW90095  12.668  11.730   2.034
96088SOL    HW190096  12.653  11.823   2.051
96088SOL    HW290097  12.678  11.691   2.121
96089SOL     OW90098   0.457   4.069   4.297
96089SOL    HW190099   0.397   4.026   4.358
96089SOL    HW290100   0.405   4.084   4.218
96090SOL     OW90101   1.770   1.178  12.743
96090SOL    HW190102   1.782   1.262  12.788
96090SOL    HW290103   1.848   1.127  12.767
96091SOL     OW90104  13.018   6.775   5.331
96091SOL    HW190105  13.092   6.800   5.276
96091SOL    HW290106  12.941   6.805   5.283
96092SOL     OW90107  12.771   0.572  13.544
96092SOL    HW190108  12.793   0.551  13.454
96092SOL    HW290109  12.793   0.665  13.553
96093SOL     OW90110   1.446   3.911   0.377
96093SOL    HW190111   1.377   3.936   0.439
96093SOL    HW290112   1.517   3.879   0.433
96094SOL     OW90113   0.097  12.701   0.929
96094SOL    HW190114   0.041  12.646   0.984
96094SOL    HW290115   0.038  12.736   0.862
96095SOL     OW90116  12.404   5.812  11.213
96095SOL    HW190117  12.432   5.758  11.140
96095SOL    HW290118  12.364   5.750  11.275
96096SOL     OW90119   5.022   5.896   9.134
96096SOL    HW190120   4.944   5.863   9.089
96096SOL    HW290121   5.095   5.867   9.080
96097SOL     OW90122   9.676   9.953   4.095
96097SOL    HW190123   9.631   9.963   4.011
96097SOL    HW290124   9.706   9.862   4.095
96098SOL     OW90125   6.747  12.226   2.873
96098SOL    HW190126   6.821  12.263   2.922
96098SOL    HW290127   6.744  12.134   2.899
96099SOL     OW90128  11.275   6.640   3.236
96099SOL    HW190129  11.300   6.547   3.240
96099SOL    HW290130  11.359   6.686   3.229
96100SOL     OW90131   0.249   9.040   8.974
96100SOL    HW190132   0.227   8.946   8.975
96100SOL    HW290133   0.164   9.084   8.970
96101SOL     OW90134   0.979   5.857   8.672
96101SOL    HW190135   0.982   5.939   8.623
96101SOL    HW290136   0.999   5.790   8.607
96102SOL     OW90137   3.369   2.937   7.024
96102SOL    HW190138   3.377   2.950   7.118
96102SOL    HW290139   3.309   3.007   6.995
96103SOL     OW90140   3.005  13.586  11.423
96103SOL    HW190141   3.005  13.491  11.434
96103SOL    HW290142   2.951  13.601  11.345
96104SOL     OW90143   0.972   4.736  10.835
96104SOL    HW190144   0.938   4.653  10.869
96104SOL    HW290145   0.901   4.770  10.780
96105SOL     OW90146   6.398   7.733   0.051
96105SOL    HW190147   6.341   7.660   0.078
96105SOL    HW290148   6.443   7.759   0.131
96106SOL     OW90149   1.869  12.372   5.999
96106SOL    HW190150   1.781  12.374   6.038
96106SOL    HW290151   1.890  12.278   5.992
96107SOL     OW90152  11.115  13.887  12.783
96107SOL    HW190153  11.022  13.910  12.787
96107SOL    HW290154  11.135  13.854  12.870
96108SOL     OW90155   8.739   6.789   4.110
96108SOL    HW190156   8.817   6.838   4.140
96108SOL    HW290157   8.760   6.763   4.021
96109SOL     OW90158   7.982   0.573   3.906
96109SOL    HW190159   8.051   0.596   3.844
96109SOL    HW290160   7.901   0.604   3.865
96110SOL     OW90161  10.240  12.086   1.304
96110SOL    HW190162  10.291  12.046   1.233
96110SOL    HW290163  10.278  12.050   1.384
96111SOL     OW90164   7.505   9.055  13.204
96111SOL    HW190165   7.545   8.980  13.158
96111SOL    HW290166   7.559   9.066  13.282
96112SOL     OW90167   2.178   0.919   9.041
96112SOL    HW190168   2.257   0.963   9.070
96112SOL    HW290169   2.208   0.833   9.012
96113SOL     OW90170   5.427   9.866  13.727
96113SOL    HW190171   5.521   9.878  13.716
96113SOL    HW290172   5.404   9.924  13.799
96114SOL     OW90173  13.415  14.435  10.366
96114SOL    HW190174  13.473  14.358  10.368
96114SOL    HW290175  13.465  14.503  10.411
96115SOL     OW90176   4.267   4.220   4.056
96115SOL    HW190177   4.283   4.194   3.965
96115SOL    HW290178   4.341   4.184   4.105
96116SOL     OW90179   8.594   0.637   1.215
96116SOL    HW190180   8.504   0.623   1.187
96116SOL    HW290181   8.635   0.551   1.207
96117SOL     OW90182   9.752   7.745   2.480
96117SOL    HW190183   9.793   7.831   2.474
96117SOL    HW290184   9.675   7.759   2.535
96118SOL     OW90185  12.473   7.487   5.399
96118SOL    HW190186  12.389   7.533   5.398
96118SOL    HW290187  12.531   7.542   5.346
96119SOL     OW90188   0.963   4.878  10.192
96119SOL    HW190189   1.005   4.793  10.185
96119SOL    HW290190   0.883   4.870  10.140
96120SOL     OW90191  10.828   3.450   7.183
96120SOL    HW190192  10.761   3.423   7.119
96120SOL    HW290193  10.841   3.372   7.237
96121SOL     OW90194   7.211  10.965   3.663
96121SOL    HW190195   7.261  11.016   3.599
96121SOL    HW290196   7.204  10.878   3.624
96122SOL     OW90197  14.425  13.426  11.497
96122SOL    HW190198  14.331  13.426  11.478
96122SOL    HW290199  14.453  13.515  11.477
96123SOL     OW90200   6.627   5.063   1.410
96123SOL    HW190201   6.672   4.989   1.370
96123SOL    HW290202   6.536   5.053   1.383
96124SOL     OW90203   6.583  13.882   6.125
96124SOL    HW190204   6.634  13.920   6.197
96124SOL    HW290205   6.507  13.841   6.169
96125SOL     OW90206   9.183   6.106   8.618
96125SOL    HW190207   9.209   6.042   8.685
96125SOL    HW290208   9.091   6.124   8.637
96126SOL     OW90209   5.854   1.583   2.443
96126SOL    HW190210   5.906   1.549   2.516
96126SOL    HW290211   5.918   1.600   2.374
96127SOL     OW90212  12.663   6.995  12.372
96127SOL    HW190213  12.615   6.967  12.294
96127SOL    HW290214  12.755   6.985  12.349
96128SOL     OW90215   9.643   3.394   9.621
96128SOL    HW190216   9.720   3.412   9.568
96128SOL    HW290217   9.579   3.460   9.595
96129SOL     OW90218   0.093   4.976   8.078
96129SOL    HW190219   0.068   4.945   8.165
96129SOL    HW290220   0.012   5.006   8.039
96130SOL     OW90221   5.729  11.513  12.809
96130SOL    HW190222   5.686  11.595  12.784
96130SOL    HW290223   5.730  11.515  12.905
96131SOL     OW90224   7.233   9.596  12.249
96131SOL    HW190225   7.188   9.540  12.313
96131SOL    HW290226   7.199   9.684  12.265
96132SOL     OW90227   2.041   1.126  13.814
96132SOL    HW190228   2.013   1.062  13.880
96132SOL    HW290229   1.959   1.162  13.780
96133SOL     OW90230   6.711   6.528  12.554
96133SOL    HW190231   6.658   6.448  12.546
96133SOL    HW290232   6.655   6.590  12.600
96134SOL     OW90233   0.531   3.067   7.943
96134SOL    HW190234   0.604   3.056   7.882
96134SOL    HW290235   0.472   2.995   7.923
96135SOL     OW90236  10.089   1.002  13.427
96135SOL    HW190237  10.113   0.964  13.343
96135SOL    HW290238  10.014   1.058  13.408
96136SOL     OW90239   8.177   2.522   2.537
96136SOL    HW190240   8.226   2.439   2.539
96136SOL    HW290241   8.245   2.589   2.531
96137SOL     OW90242   2.397   1.213   8.480
96137SOL    HW190243   2.379   1.132   8.528
96137SOL    HW290244   2.311   1.240   8.446
96138SOL     OW90245   9.995  12.570   7.006
96138SOL    HW190246   9.907  12.544   7.034
96138SOL    HW290247   9.980  12.636   6.938
96139SOL     OW90248   7.433  11.024  13.018
96139SOL    HW190249   7.483  11.037  12.937
96139SOL    HW290250   7.341  11.022  12.989
96140SOL     OW90251  14.618   8.482  10.603
96140SOL    HW190252  14.645   8.571  10.624
96140SOL    HW290253  14.694   8.443  10.562
96141SOL     OW90254   4.447   0.838  10.717
96141SOL    HW190255   4.467   0.867  10.806
96141SOL    HW290256   4.360   0.799  10.722
96142SOL     OW90257   0.305   0.670   6.732
96142SOL    HW190258   0.251   0.737   6.773
96142SOL    HW290259   0.376   0.655   6.794
96143SOL     OW90260   5.164   4.258   3.332
96143SOL    HW190261   5.111   4.258   3.412
96143SOL    HW290262   5.157   4.347   3.299
96144SOL     OW90263  14.525  14.274   7.065
96144SOL    HW190264  14.554  14.208   7.002
96144SOL    HW290265  14.532  14.357   7.018
96145SOL     OW90266  10.882   2.152   7.814
96145SOL    HW190267  10.799   2.166   7.859
96145SOL    HW290268  10.918   2.240   7.803
96146SOL     OW90269   1.165  11.379   7.243
96146SOL    HW190270   1.145  11.290   7.214
96146SOL    HW290271   1.080  11.423   7.247
96147SOL     OW90272  11.717  11.311   3.617
96147SOL    HW190273  11.638  11.298   3.564
96147SOL    HW290274  11.683  11.342   3.702
96148SOL     OW90275  10.236   5.916  14.509
96148SOL    HW190276  10.316   5.961  14.538
96148SOL    HW290277  10.184   5.984  14.467
96149SOL     OW90278   8.143   4.626   0.734
96149SOL    HW190279   8.061   4.609   0.686
96149SOL    HW290280   8.121   4.694   0.797
96150SOL     OW90281   4.548   7.483   2.635
96150SOL    HW190282   4.455   7.464   2.628
96150SOL    HW290283   4.584   7.411   2.687
96151SOL     OW90284   8.240  14.070   3.473
96151SOL    HW190285   8.284  14.155   3.467
96151SOL    HW290286   8.265  14.037   3.560
96152SOL     OW90287   7.078  14.193  11.781
96152SOL    HW190288   7.005  14.256  11.780
96152SOL    HW290289   7.054  14.130  11.849
96153SOL     OW90290   3.991   9.340  13.458
96153SOL    HW190291   4.074   9.389  13.452
96153SOL    HW290292   4.019   9.249  13.469
96154SOL     OW90293   8.986   4.391   2.692
96154SOL    HW190294   9.063   4.448   2.684
96154SOL    HW290295   8.954   4.407   2.780
96155SOL     OW90296   5.537  13.026  11.488
96155SOL    HW190297   5.523  13.048  11.580
96155SOL    HW290298   5.553  12.932  11.488
96156SOL     OW90299   1.244   9.644  14.501
96156SOL    HW190300   1.169   9.671  14.555
96156SOL    HW290301   1.205   9.594  14.430
96157SOL     OW90302   4.493  10.212   7.441
96157SOL    HW190303   4.437  10.222   7.518
96157SOL    HW290304   4.491  10.298   7.399
96158SOL     OW90305   6.787  10.423   6.643
96158SOL    HW190306   6.791  10.502   6.698
96158SOL    HW290307   6.785  10.350   6.705
96159SOL     OW90308   1.750   8.855   5.193
96159SOL    HW190309   1.816   8.882   5.257
96159SOL    HW290310   1.694   8.931   5.181
96160SOL     OW90311  10.943  10.695   0.819
96160SOL    HW190312  10.929  10.610   0.861
96160SOL    HW290313  10.863  10.745   0.840
96161SOL     OW90314  10.548   3.782   2.780
96161SOL    HW190315  10.515   3.708   2.728
96161SOL    HW290316  10.643   3.771   2.779
96162SOL     OW90317  11.351  11.525   6.659
96162SOL    HW190318  11.354  11.606   6.607
96162SOL    HW290319  11.349  11.555   6.750
96163SOL     OW90320   0.202   7.158  14.764
96163SOL    HW190321   0.209   7.253  14.769
96163SOL    HW290322   0.234   7.136  14.677
96164SOL     OW90323   2.194   4.022   4.038
96164SOL    HW190324   2.237   4.065   4.111
96164SOL    HW290325   2.187   4.090   3.970
96165SOL     OW90326  12.433  11.955  13.788
96165SOL    HW190327  12.509  11.897  13.779
96165SOL    HW290328  12.410  11.949  13.881
96166SOL     OW90329   3.372  13.860  12.611
96166SOL    HW190330   3.408  13.827  12.693
96166SOL    HW290331   3.448  13.892  12.563
96167SOL     OW90332   9.243   6.503  10.844
96167SOL    HW190333   9.311   6.545  10.896
96167SOL    HW290334   9.179   6.472  10.908
96168SOL     OW90335   8.508   5.869   9.636
96168SOL    HW190336   8.447   5.882   9.708
96168SOL    HW290337   8.452   5.858   9.559
96169SOL     OW90338   4.792  10.982   8.443
96169SOL    HW190339   4.774  10.890   8.420
96169SOL    HW290340   4.886  10.992   8.426
96170SOL     OW90341  10.950   7.450   0.547
96170SOL    HW190342  10.960   7.467   0.454
96170SOL    HW290343  10.862   7.414   0.556
96171SOL     OW90344   7.670  13.168   9.862
96171SOL    HW190345   7.743  13.205   9.813
96171SOL    HW290346   7.628  13.108   9.800
96172SOL     OW90347   3.723  11.290   6.334
96172SOL    HW190348   3.806  11.330   6.357
96172SOL    HW290349   3.721  11.208   6.384
96173SOL     OW90350   1.292  11.932   0.633
96173SOL    HW190351   1.218  11.975   0.675
96173SOL    HW290352   1.252  11.868   0.573
96174SOL     OW90353   1.267   5.702   5.363
96174SOL    HW190354   1.276   5.655   5.280
96174SOL    HW290355   1.207   5.774   5.344
96175SOL     OW90356   7.697   4.891  12.644
96175SOL    HW190357   7.767   4.947  12.613
96175SOL    HW290358   7.638   4.950  12.690
96176SOL     OW90359   9.312   3.014  13.236
96176SOL    HW190360   9.289   2.970  13.154
96176SOL    HW290361   9.405   3.031  13.228
96177SOL     OW90362  12.256  11.005   9.399
96177SOL    HW190363  12.171  11.005   9.444
96177SOL    HW290364  12.320  10.998   9.469
96178SOL     OW90365   9.801   6.290   5.317
96178SOL    HW190366   9.894   6.304   5.335
96178SOL    HW290367   9.774   6.222   5.378
96179SOL     OW90368   0.202  10.468  14.700
96179SOL    HW190369   0.120  10.456  14.654
96179SOL    HW290370   0.193  10.553  14.744
96180SOL     OW90371  14.620  14.799   5.148
96180SOL    HW190372  14.630  14.854   5.225
96180SOL    HW290373  14.527  14.775   5.148
96181SOL     OW90374  13.100  14.872   7.191
96181SOL    HW190375  13.053   0.058   7.239
96181SOL    HW290376  13.145  14.821   7.259
96182SOL     OW90377   2.962   3.313   6.277
96182SOL    HW190378   3.054   3.313   6.302
96182SOL    HW290379   2.915   3.324   6.360
96183SOL     OW90380  11.194   2.040   5.275
96183SOL    HW190381  11.247   1.960   5.280
96183SOL    HW290382  11.207   2.071   5.185
96184SOL     OW90383   4.656  13.926   0.238
96184SOL    HW190384   4.749  13.931   0.216
96184SOL    HW290385   4.611  13.927   0.153
96185SOL     OW90386   0.066  14.768   7.580
96185SOL    HW190387   0.127  14.695   7.581
96185SOL    HW290388   0.007  14.751   7.653
96186SOL     OW90389  11.689  11.170  13.333
96186SOL    HW190390  11.636  11.247  13.356
96186SOL    HW290391  11.710  11.130  13.418
96187SOL     OW90392  12.880   1.168  14.175
96187SOL    HW190393  12.967   1.161  14.214
96187SOL    HW290394  12.820   1.151  14.247
96188SOL     OW90395   2.956   0.032   9.642
96188SOL    HW190396   3.028   0.064   9.696
96188SOL    HW290397   2.995  14.844   9.590
96189SOL     OW90398  12.266  12.733  11.993
96189SOL    HW190399  12.285  12.806  12.053
96189SOL    HW290400  12.189  12.690  12.031
96190SOL     OW90401   0.725   1.314   7.774
96190SOL    HW190402   0.761   1.399   7.747
96190SOL    HW290403   0.631   1.331   7.785
96191SOL     OW90404  12.706  11.499  13.405
96191SOL    HW190405  12.655  11.420  13.426
96191SOL    HW290406  12.776  11.500  13.471
96192SOL     OW90407   2.603   2.955  13.907
96192SOL    HW190408   2.516   2.964  13.868
96192SOL    HW290409   2.632   3.045  13.922
96193SOL     OW90410   9.349  11.032   4.222
96193SOL    HW190411   9.339  10.983   4.303
96193SOL    HW290412   9.385  10.969   4.159
96194SOL     OW90413   2.514  10.179   7.880
96194SOL    HW190414   2.545  10.219   7.961
96194SOL    HW290415   2.423  10.209   7.872
96195SOL     OW90416   5.547  11.054  13.240
96195SOL    HW190417   5.478  10.989  13.226
96195SOL    HW290418   5.500  11.131  13.273
96196SOL     OW90419   5.738   6.316   8.995
96196SOL    HW190420   5.790   6.332   9.073
96196SOL    HW290421   5.679   6.390   8.990
96197SOL     OW90422   9.494   5.168   3.140
96197SOL    HW190423   9.436   5.120   3.198
96197SOL    HW290424   9.442   5.241   3.108
96198SOL     OW90425  13.110   9.166  11.003
96198SOL    HW190426  13.142   9.255  10.989
96198SOL    HW290427  13.149   9.139  11.086
96199SOL     OW90428  11.771   3.555   6.908
96199SOL    HW190429  11.757   3.650   6.912
96199SOL    HW290430  11.737   3.522   6.992
96200SOL     OW90431   5.835   4.386   8.193
96200SOL    HW190432   5.905   4.443   8.226
96200SOL    HW290433   5.816   4.327   8.266
96201SOL     OW90434  10.430  11.119  14.654
96201SOL    HW190435  10.484  11.159  14.585
96201SOL    HW290436  10.453  11.026  14.652
96202SOL     OW90437   2.923   4.500   6.838
96202SOL    HW190438   2.886   4.578   6.798
96202SOL    HW290439   3.018   4.514   6.835
96203SOL     OW90440  13.471  13.907   9.747
96203SOL    HW190441  13.542  13.953   9.791
96203SOL    HW290442  13.472  13.940   9.657
96204SOL     OW90443  12.464  11.291   4.099
96204SOL    HW190444  12.417  11.213   4.129
96204SOL    HW290445  12.520  11.316   4.173
96205SOL     OW90446   1.394  10.768   6.368
96205SOL    HW190447   1.374  10.733   6.281
96205SOL    HW290448   1.490  10.777   6.369
96206SOL     OW90449   5.192   5.602  11.497
96206SOL    HW190450   5.132   5.583  11.424
96206SOL    HW290451   5.189   5.524  11.551
96207SOL     OW90452   2.935   3.876   8.935
96207SOL    HW190453   3.027   3.872   8.960
96207SOL    HW290454   2.894   3.930   9.002
96208SOL     OW90455   9.033  12.143   2.638
96208SOL    HW190456   8.987  12.123   2.719
96208SOL    HW290457   8.994  12.084   2.573
96209SOL     OW90458   3.040   6.085   9.110
96209SOL    HW190459   3.019   6.097   9.017
96209SOL    HW290460   3.079   5.998   9.115
96210SOL     OW90461   5.019   3.917  11.182
96210SOL    HW190462   5.039   3.824  11.189
96210SOL    HW290463   5.021   3.935  11.088
96211SOL     OW90464   1.940  14.731   2.754
96211SOL    HW190465   1.968  14.683   2.676
96211SOL    HW290466   1.972  14.678   2.828
96212SOL     OW90467   5.461  13.076  11.734
96212SOL    HW190468   5.370  13.064  11.705
96212SOL    HW290469   5.474  13.010  11.802
96213SOL     OW90470   3.864   4.858   3.074
96213SOL    HW190471   3.859   4.950   3.048
96213SOL    HW290472   3.893   4.859   3.165
96214SOL     OW90473   0.000   1.591  14.585
96214SOL    HW190474   0.053   1.659  14.627
96214SOL    HW290475  14.793   1.609  14.613
96215SOL     OW90476   3.343   6.923  11.751
96215SOL    HW190477   3.401   6.913  11.827
96215SOL    HW290478   3.362   6.846  11.696
96216SOL     OW90479   1.793   6.353   4.971
96216SOL    HW190480   1.828   6.269   5.001
96216SOL    HW290481   1.699   6.337   4.962
96217SOL     OW90482   4.818   5.741  13.656
96217SOL    HW190483   4.756   5.687  13.607
96217SOL    HW290484   4.830   5.819  13.602
96218SOL     OW90485   8.940   0.051  12.433
96218SOL    HW190486   8.930   0.125  12.372
96218SOL    HW290487   8.912  14.857  12.382
96219SOL     OW90488   8.190   8.035   5.364
96219SOL    HW190489   8.225   8.057   5.450
96219SOL    HW290490   8.096   8.027   5.377
96220SOL     OW90491   8.733   4.345   8.924
96220SOL    HW190492   8.777   4.311   8.846
96220SOL    HW290493   8.720   4.268   8.979
96221SOL     OW90494  13.820   2.495   5.790
96221SOL    HW190495  13.884   2.440   5.744
96221SOL    HW290496  13.743   2.439   5.799
96222SOL     OW90497  10.296   7.217   3.451
96222SOL    HW190498  10.238   7.149   3.415
96222SOL    HW290499  10.330   7.178   3.532
96223SOL     OW90500   0.908   8.323  14.449
96223SOL    HW190501   0.853   8.344  14.373
96223SOL    HW290502   0.850   8.277  14.509
96224SOL     OW90503   7.130  11.214  14.110
96224SOL    HW190504   7.210  11.180  14.069
96224SOL    HW290505   7.088  11.263  14.040
96225SOL     OW90506  12.611   1.148  11.334
96225SOL    HW190507  12.632   1.216  11.269
96225SOL    HW290508  12.516   1.151  11.341
96226SOL     OW90509   0.766   5.237   8.223
96226SOL    HW190510   0.850   5.201   8.251
96226SOL    HW290511   0.732   5.281   8.301
96227SOL     OW90512   9.601  13.528   1.423
96227SOL    HW190513   9.506  13.537   1.427
96227SOL    HW290514   9.626  13.573   1.342
96228SOL     OW90515   1.067  11.142   8.227
96228SOL    HW190516   1.059  11.162   8.320
96228SOL    HW290517   1.134  11.074   8.223
96229SOL     OW90518  11.259   5.895  12.729
96229SOL    HW190519  11.271   5.801  12.715
96229SOL    HW290520  11.231   5.902  12.821
96230SOL     OW90521   5.161   9.550  14.466
96230SOL    HW190522   5.151   9.599  14.548
96230SOL    HW290523   5.255   9.535  14.459
96231SOL     OW90524  13.928   4.883   3.520
96231SOL    HW190525  13.998   4.894   3.584
96231SOL    HW290526  13.969   4.836   3.448
96232SOL     OW90527   2.266  11.038   3.062
96232SOL    HW190528   2.338  11.010   3.006
96232SOL    HW290529   2.280  10.991   3.144
96233SOL     OW90530   8.062   6.107  10.796
96233SOL    HW190531   8.106   6.170  10.739
96233SOL    HW290532   8.113   6.107  10.877
96234SOL     OW90533   9.575  13.382   8.149
96234SOL    HW190534   9.496  13.332   8.129
96234SOL    HW290535   9.608  13.343   8.230
96235SOL     OW90536  13.451   4.861   1.498
96235SOL    HW190537  13.511   4.936   1.500
96235SOL    HW290538  13.444   4.833   1.589
96236SOL     OW90539   1.725  13.092   4.694
96236SOL    HW190540   1.684  13.165   4.741
96236SOL    HW290541   1.663  13.072   4.624
96237SOL     OW90542  12.159   3.071   3.714
96237SOL    HW190543  12.103   3.092   3.788
96237SOL    HW290544  12.207   2.992   3.741
96238SOL     OW90545   8.269   9.023   2.879
96238SOL    HW190546   8.243   9.071   2.800
96238SOL    HW290547   8.360   8.998   2.862
96239SOL     OW90548   7.239  13.756   5.247
96239SOL    HW190549   7.274  13.836   5.208
96239SOL    HW290550   7.316  13.708   5.278
96240SOL     OW90551   6.338   9.348   5.643
96240SOL    HW190552   6.387   9.414   5.692
96240SOL    HW290553   6.253   9.390   5.626
96241SOL     OW90554   0.345  10.417   9.944
96241SOL    HW190555   0.330  10.444   9.853
96241SOL    HW290556   0.410  10.348   9.939
96242SOL     OW90557  10.925  14.790   9.916
96242SOL    HW190558  10.921  14.880   9.947
96242SOL    HW290559  10.895  14.794   9.825
96243SOL     OW90560   8.447   2.313   6.574
96243SOL    HW190561   8.514   2.296   6.640
96243SOL    HW290562   8.384   2.370   6.618
96244SOL     OW90563   1.877   1.753   6.113
96244SOL    HW190564   1.972   1.741   6.117
96244SOL    HW290565   1.847   1.683   6.054
96245SOL     OW90566  10.175  11.671  14.773
96245SOL    HW190567  10.246  11.616  14.740
96245SOL    HW290568  10.205  11.761  14.759
96246SOL     OW90569  10.126   0.800   5.111
96246SOL    HW190570  10.176   0.810   5.030
96246SOL    HW290571  10.173   0.854   5.175
96247SOL     OW90572   7.127  11.636   7.517
96247SOL    HW190573   7.089  11.678   7.440
96247SOL    HW290574   7.200  11.693   7.541
96248SOL     OW90575  13.497  14.877   5.716
96248SOL    HW190576  13.487  14.880   5.621
96248SOL    HW290577  13.420   0.041   5.750
96249SOL     OW90578   5.140   5.469   3.182
96249SOL    HW190579   5.207   5.412   3.221
96249SOL    HW290580   5.057   5.433   3.214
96250SOL     OW90581  11.075   4.262  12.614
96250SOL    HW190582  11.100   4.232  12.702
96250SOL    HW290583  11.158   4.279  12.570
96251SOL     OW90584   8.887   1.315   9.054
96251SOL    HW190585   8.807   1.294   9.006
96251SOL    HW290586   8.898   1.242   9.114
96252SOL     OW90587   3.020  14.469   5.419
96252SOL    HW190588   3.080  14.544   5.418
96252SOL    HW290589   2.936  14.506   5.392
96253SOL     OW90590  14.869   4.563  14.155
96253SOL    HW190591   0.019   4.527  14.073
96253SOL    HW290592  14.826   4.645  14.131
96254SOL     OW90593  13.977   5.634  11.609
96254SOL    HW190594  14.066   5.609  11.584
96254SOL    HW290595  13.981   5.647  11.704
96255SOL     OW90596   1.615   3.169   6.021
96255SOL    HW190597   1.671   3.196   6.094
96255SOL    HW290598   1.676   3.148   5.950
96256SOL     OW90599   1.735   7.530   5.051
96256SOL    HW190600   1.803   7.478   5.009
96256SOL    HW290601   1.698   7.473   5.118
96257SOL     OW90602  12.151   3.382   0.203
96257SOL    HW190603  12.123   3.293   0.184
96257SOL    HW290604  12.074   3.436   0.187
96258SOL     OW90605   5.081   5.140   8.399
96258SOL    HW190606   5.169   5.138   8.360
96258SOL    HW290607   5.084   5.213   8.460
96259SOL     OW90608   0.923  10.549   2.609
96259SOL    HW190609   0.844  10.498   2.592
96259SOL    HW290610   0.892  10.628   2.654
96260SOL     OW90611   0.266   3.623  13.818
96260SOL    HW190612   0.321   3.551  13.789
96260SOL    HW290613   0.259   3.611  13.913
96261SOL     OW90614  11.601   9.560   8.463
96261SOL    HW190615  11.537   9.508   8.414
96261SOL    HW290616  11.676   9.566   8.405
96262SOL     OW90617   1.977   1.643  14.796
96262SOL    HW190618   2.065   1.679  14.795
96262SOL    HW290619   1.923   1.712  14.834
96263SOL     OW90620   8.645  13.449  11.094
96263SOL    HW190621   8.736  13.426  11.116
96263SOL    HW290622   8.649  13.483  11.005
96264SOL     OW90623  11.996   9.900   3.735
96264SOL    HW190624  11.989   9.906   3.830
96264SOL    HW290625  11.994   9.806   3.717
96265SOL     OW90626   2.289   7.036   7.459
96265SOL    HW190627   2.334   6.977   7.519
96265SOL    HW290628   2.321   7.123   7.483
96266SOL     OW90629   4.533   0.879  14.725
96266SOL    HW190630   4.524   0.865  14.631
96266SOL    HW290631   4.453   0.842  14.763
96267SOL     OW90632   5.600   0.684  14.765
96267SOL    HW190633   5.668   0.725  14.818
96267SOL    HW290634   5.624   0.592  14.763
96268SOL     OW90635  10.143   4.842  10.463
96268SOL    HW190636  10.093   4.856  10.544
96268SOL    HW290637  10.231   4.875  10.484
96269SOL     OW90638  14.365   6.796  12.490
96269SOL    HW190639  14.302   6.861  12.521
96269SOL    HW290640  14.389   6.746  12.568
96270SOL     OW90641   6.754   0.127   0.010
96270SOL    HW190642   6.784   0.211   0.044
96270SOL    HW290643   6.672   0.148  14.845
96271SOL     OW90644   6.859  13.982   0.045
96271SOL    HW190645   6.940  13.934   0.058
96271SOL    HW290646   6.797  13.916   0.012
96272SOL     OW90647   5.266   3.714   6.382
96272SOL    HW190648   5.191   3.767   6.410
96272SOL    HW290649   5.339   3.745   6.435
96273SOL     OW90650  10.932   6.015   6.534
96273SOL    HW190651  10.953   6.090   6.590
96273SOL    HW290652  10.957   5.938   6.586
96274SOL     OW90653   3.040  13.973   7.217
96274SOL    HW190654   3.100  13.915   7.263
96274SOL    HW290655   3.076  14.061   7.231
96275SOL     OW90656   5.157   2.891   7.897
96275SOL    HW190657   5.121   2.971   7.933
96275SOL    HW290658   5.196   2.917   7.813
96276SOL     OW90659   9.549   2.084  12.720
96276SOL    HW190660   9.633   2.067  12.679
96276SOL    HW290661   9.548   2.179  12.735
96277SOL     OW90662   2.892   3.309   8.225
96277SOL    HW190663   2.958   3.336   8.290
96277SOL    HW290664   2.836   3.387   8.214
96278SOL     OW90665  13.620  12.801   6.376
96278SOL    HW190666  13.593  12.738   6.443
96278SOL    HW290667  13.677  12.863   6.422
96279SOL     OW90668   6.343   5.698   2.465
96279SOL    HW190669   6.383   5.656   2.541
96279SOL    HW290670   6.335   5.627   2.401
96280SOL     OW90671   1.993   7.206   3.851
96280SOL    HW190672   2.038   7.247   3.777
96280SOL    HW290673   2.043   7.233   3.928
96281SOL     OW90674   4.722   3.878  10.704
96281SOL    HW190675   4.743   3.963  10.665
96281SOL    HW290676   4.682   3.900  10.788
96282SOL     OW90677   4.848   8.440  10.875
96282SOL    HW190678   4.782   8.447  10.944
96282SOL    HW290679   4.919   8.496  10.904
96283SOL     OW90680   8.350   0.430   4.181
96283SOL    HW190681   8.317   0.489   4.113
96283SOL    HW290682   8.406   0.368   4.134
96284SOL     OW90683  14.092  12.634   3.034
96284SOL    HW190684  14.181  12.652   3.004
96284SOL    HW290685  14.101  12.554   3.086
96285SOL     OW90686   3.278   1.316  14.375
96285SOL    HW190687   3.296   1.338  14.284
96285SOL    HW290688   3.253   1.223  14.373
96286SOL     OW90689   0.517   8.937   4.417
96286SOL    HW190690   0.573   8.957   4.491
96286SOL    HW290691   0.438   8.989   4.431
96287SOL     OW90692   9.268   2.684   9.697
96287SOL    HW190693   9.175   2.677   9.677
96287SOL    HW290694   9.292   2.772   9.670
96288SOL     OW90695   8.754   1.587  11.942
96288SOL    HW190696   8.729   1.664  11.994
96288SOL    HW290697   8.671   1.543  11.923
96289SOL     OW90698   4.209   5.243   6.854
96289SOL    HW190699   4.279   5.188   6.820
96289SOL    HW290700   4.131   5.213   6.809
96290SOL     OW90701   7.150  13.812   8.629
96290SOL    HW190702   7.227  13.796   8.684
96290SOL    HW290703   7.167  13.896   8.587
96291SOL     OW90704   5.745   0.507   3.393
96291SOL    HW190705   5.786   0.427   3.360
96291SOL    HW290706   5.678   0.528   3.327
96292SOL     OW90707  14.621   8.841  10.086
96292SOL    HW190708  14.671   8.777  10.136
96292SOL    HW290709  14.661   8.925  10.107
96293SOL     OW90710   4.129   6.791  12.153
96293SOL    HW190711   4.132   6.791  12.249
96293SOL    HW290712   4.205   6.843  12.127
96294SOL     OW90713   8.586  13.471  13.972
96294SOL    HW190714   8.612  13.556  14.007
96294SOL    HW290715   8.509  13.446  14.023
96295SOL     OW90716  11.177   0.301  11.219
96295SOL    HW190717  11.106   0.238  11.231
96295SOL    HW290718  11.257   0.250  11.234
96296SOL     OW90719   5.249  12.700   0.754
96296SOL    HW190720   5.325  12.740   0.797
96296SOL    HW290721   5.207  12.772   0.708
96297SOL     OW90722  12.034   5.547  10.693
96297SOL    HW190723  11.971   5.490  10.649
96297SOL    HW290724  12.099   5.488  10.730
96298SOL     OW90725  10.693   5.205   8.130
96298SOL    HW190726  10.738   5.127   8.095
96298SOL    HW290727  10.763   5.255   8.172
96299SOL     OW90728  12.529  10.942   4.397
96299SOL    HW190729  12.530  11.036   4.412
96299SOL    HW290730  12.620  10.914   4.411
96300SOL     OW90731   5.186  13.309  10.928
96300SOL    HW190732   5.214  13.280  10.842
96300SOL    HW290733   5.219  13.242  10.988
96301SOL     OW90734   3.936   5.569  12.128
96301SOL    HW190735   3.888   5.489  12.107
96301SOL    HW290736   3.990   5.546  12.204
96302SOL     OW90737   8.286  14.160  13.577
96302SOL    HW190738   8.220  14.229  13.581
96302SOL    HW290739   8.324  14.158  13.665
96303SOL     OW90740  13.587  14.215   5.123
96303SOL    HW190741  13.605  14.298   5.166
96303SOL    HW290742  13.650  14.211   5.051
96304SOL     OW90743   6.941   0.414  12.343
96304SOL    HW190744   6.883   0.366  12.402
96304SOL    HW290745   6.898   0.499  12.331
96305SOL     OW90746  13.686   6.303   9.463
96305SOL    HW190747  13.616   6.343   9.411
96305SOL    HW290748  13.664   6.210   9.464
96306SOL     OW90749  14.730  11.628   8.239
96306SOL    HW190750  14.690  11.594   8.319
96306SOL    HW290751  14.689  11.577   8.169
96307SOL     OW90752   9.081   7.421   3.878
96307SOL    HW190753   9.074   7.472   3.798
96307SOL    HW290754   9.011   7.454   3.934
96308SOL     OW90755  10.706   0.742   5.310
96308SOL    HW190756  10.635   0.796   5.276
96308SOL    HW290757  10.767   0.735   5.237
96309SOL     OW90758   1.462  14.548  11.811
96309SOL    HW190759   1.474  14.618  11.876
96309SOL    HW290760   1.549  14.536  11.773
96310SOL     OW90761  12.509  10.288  11.883
96310SOL    HW190762  12.505  10.240  11.800
96310SOL    HW290763  12.489  10.223  11.950
96311SOL     OW90764   6.573   5.058   0.905
96311SOL    HW190765   6.581   5.152   0.916
96311SOL    HW290766   6.567   5.044   0.810
96312SOL     OW90767  14.432   9.642  11.712
96312SOL    HW190768  14.479   9.714  11.671
96312SOL    HW290769  14.399   9.679  11.794
96313SOL     OW90770   3.757   7.219   8.337
96313SOL    HW190771   3.814   7.208   8.261
96313SOL    HW290772   3.786   7.301   8.377
96314SOL     OW90773   9.617  12.065  12.304
96314SOL    HW190774   9.665  12.022  12.233
96314SOL    HW290775   9.640  12.158  12.294
96315SOL     OW90776  10.565   6.091   1.541
96315SOL    HW190777  10.496   6.144   1.580
96315SOL    HW290778  10.519   6.020   1.497
96316SOL     OW90779  14.082  14.216  12.312
96316SOL    HW190780  14.115  14.305  12.300
96316SOL    HW290781  14.160  14.162  12.325
96317SOL     OW90782   1.385   2.187  14.023
96317SOL    HW190783   1.345   2.242  14.091
96317SOL    HW290784   1.310   2.151  13.975
96318SOL     OW90785  14.004   2.362   8.823
96318SOL    HW190786  13.995   2.286   8.881
96318SOL    HW290787  14.062   2.421   8.871
96319SOL     OW90788   3.012   2.385   0.682
96319SOL    HW190789   3.056   2.446   0.623
96319SOL    HW290790   2.952   2.336   0.626
96320SOL     OW90791  13.282  11.127   3.780
96320SOL    HW190792  13.212  11.158   3.837
96320SOL    HW290793  13.266  11.170   3.696
96321SOL     OW90794  12.759  11.635   8.418
96321SOL    HW190795  12.752  11.680   8.502
96321SOL    HW290796  12.775  11.705   8.355
96322SOL     OW90797   7.593  13.983   1.056
96322SOL    HW190798   7.644  13.907   1.031
96322SOL    HW290799   7.540  13.953   1.130
96323SOL     OW90800   4.025   5.606   3.807
96323SOL    HW190801   3.976   5.558   3.874
96323SOL    HW290802   4.077   5.669   3.857
96324SOL     OW90803   5.441  13.679   1.817
96324SOL    HW190804   5.367  13.684   1.877
96324SOL    HW290805   5.502  13.746   1.849
96325SOL     OW90806   0.203   4.350  14.206
96325SOL    HW190807   0.195   4.438  14.244
96325SOL    HW290808   0.207   4.365  14.112
96326SOL     OW90809   8.137   5.594   8.081
96326SOL    HW190810   8.082   5.599   8.159
96326SOL    HW290811   8.118   5.675   8.033
96327SOL     OW90812   2.076   2.856   5.342
96327SOL    HW190813   2.124   2.930   5.304
96327SOL    HW290814   2.100   2.781   5.288
96328SOL     OW90815   8.594   0.981  14.697
96328SOL    HW190816   8.592   1.054  14.636
96328SOL    HW290817   8.503   0.972  14.726
96329SOL     OW90818  14.239   0.473   5.914
96329SOL    HW190819  14.205   0.407   5.854
96329SOL    HW290820  14.175   0.543   5.912
96330SOL     OW90821  13.848   4.397  13.618
96330SOL    HW190822  13.778   4.370  13.678
96330SOL    HW290823  13.810   4.385  13.531
96331SOL     OW90824   1.110  12.108  14.598
96331SOL    HW190825   1.192  12.134  14.641
96331SOL    HW290826   1.073  12.041  14.655
96332SOL     OW90827   2.525  10.719  10.594
96332SOL    HW190828   2.467  10.718  10.517
96332SOL    HW290829   2.611  10.742  10.558
96333SOL     OW90830   0.906  12.998   2.951
96333SOL    HW190831   0.995  13.027   2.969
96333SOL    HW290832   0.866  13.070   2.902
96334SOL     OW90833   9.248   8.723   8.184
96334SOL    HW190834   9.266   8.785   8.113
96334SOL    HW290835   9.276   8.638   8.150
96335SOL     OW90836   3.721   9.922  11.411
96335SOL    HW190837   3.794   9.966  11.368
96335SOL    HW290838   3.696   9.853  11.350
96336SOL     OW90839   3.227   9.379   4.410
96336SOL    HW190840   3.192   9.294   4.387
96336SOL    HW290841   3.173   9.442   4.361
96337SOL     OW90842  10.887   2.586   5.288
96337SOL    HW190843  10.872   2.496   5.318
96337SOL    HW290844  10.982   2.595   5.284
96338SOL     OW90845  13.120   6.382   6.376
96338SOL    HW190846  13.203   6.384   6.328
96338SOL    HW290847  13.063   6.325   6.324
96339SOL     OW90848  13.852   2.166  11.668
96339SOL    HW190849  13.819   2.216  11.593
96339SOL    HW290850  13.946   2.161  11.654
96340SOL     OW90851   7.966   4.443   2.657
96340SOL    HW190852   7.900   4.381   2.628
96340SOL    HW290853   7.958   4.444   2.753
96341SOL     OW90854  14.877  13.865   9.892
96341SOL    HW190855   0.012  13.797   9.826
96341SOL    HW290856  14.814  13.924   9.851
96342SOL     OW90857   8.175   5.722   6.002
96342SOL    HW190858   8.134   5.639   6.023
96342SOL    HW290859   8.105   5.787   6.010
96343SOL     OW90860   3.286   5.033  12.051
96343SOL    HW190861   3.280   4.941  12.078
96343SOL    HW290862   3.368   5.038  12.002
96344SOL     OW90863  10.671   1.298   8.390
96344SOL    HW190864  10.645   1.390   8.399
96344SOL    HW290865  10.748   1.289   8.446
96345SOL     OW90866   6.272   6.363   7.983
96345SOL    HW190867   6.189   6.408   7.998
96345SOL    HW290868   6.316   6.364   8.068
96346SOL     OW90869   8.449  13.530  12.724
96346SOL    HW190870   8.401  13.543  12.806
96346SOL    HW290871   8.389  13.560  12.656
96347SOL     OW90872   0.510   5.156  12.718
96347SOL    HW190873   0.516   5.217  12.791
96347SOL    HW290874   0.558   5.199  12.647
96348SOL     OW90875   0.191  14.331  10.248
96348SOL    HW190876   0.104  14.369  10.260
96348SOL    HW290877   0.188  14.248  10.296
96349SOL     OW90878  12.063  14.597   2.925
96349SOL    HW190879  12.087  14.689   2.941
96349SOL    HW290880  12.001  14.601   2.852
96350SOL     OW90881   3.201   8.072  10.569
96350SOL    HW190882   3.226   8.086  10.661
96350SOL    HW290883   3.145   8.147  10.548
96351SOL     OW90884   8.890   2.603  11.934
96351SOL    HW190885   8.837   2.646  12.001
96351SOL    HW290886   8.834   2.535  11.897
96352SOL     OW90887   4.444  10.440   1.650
96352SOL    HW190888   4.436  10.418   1.557
96352SOL    HW290889   4.441  10.356   1.695
96353SOL     OW90890   0.235  11.329   0.220
96353SOL    HW190891   0.167  11.296   0.161
96353SOL    HW290892   0.206  11.302   0.307
96354SOL     OW90893  14.844   5.875  12.156
96354SOL    HW190894  14.769   5.916  12.114
96354SOL    HW290895  14.807   5.799  12.201
96355SOL     OW90896   5.157  11.982   0.752
96355SOL    HW190897   5.212  11.908   0.778
96355SOL    HW290898   5.140  12.028   0.834
96356SOL     OW90899   2.029   6.277   3.767
96356SOL    HW190900   1.968   6.206   3.749
96356SOL    HW290901   1.998   6.350   3.714
96357SOL     OW90902   9.689   0.697   6.270
96357SOL    HW190903   9.672   0.616   6.223
96357SOL    HW290904   9.695   0.764   6.202
96358SOL     OW90905   2.099   0.311   7.064
96358SOL    HW190906   2.127   0.396   7.031
96358SOL    HW290907   2.175   0.254   7.054
96359SOL     OW90908  11.897  10.523   7.265
96359SOL    HW190909  11.856  10.437   7.269
96359SOL    HW290910  11.874  10.556   7.178
96360SOL     OW90911   0.736  14.053   8.706
96360SOL    HW190912   0.770  14.091   8.625
96360SOL    HW290913   0.732  14.126   8.767
96361SOL     OW90914  11.503   6.430   4.510
96361SOL    HW190915  11.482   6.499   4.572
96361SOL    HW290916  11.429   6.430   4.448
96362SOL     OW90917   8.934   7.972  12.792
96362SOL    HW190918   8.841   7.988  12.807
96362SOL    HW290919   8.970   7.957  12.880
96363SOL     OW90920   8.580   1.068   6.100
96363SOL    HW190921   8.595   1.005   6.171
96363SOL    HW290922   8.622   1.148   6.131
96364SOL     OW90923   4.909   6.933  11.287
96364SOL    HW190924   4.903   6.884  11.205
96364SOL    HW290925   4.822   6.926  11.326
96365SOL     OW90926   1.055  13.620  10.758
96365SOL    HW190927   0.986  13.642  10.696
96365SOL    HW290928   1.127  13.680  10.737
96366SOL     OW90929   1.301   6.658  12.206
96366SOL    HW190930   1.383   6.701  12.178
96366SOL    HW290931   1.256   6.636  12.125
96367SOL     OW90932  10.393   1.639   5.770
96367SOL    HW190933  10.337   1.638   5.692
96367SOL    HW290934  10.448   1.561   5.760
96368SOL     OW90935   2.310   9.021   4.753
96368SOL    HW190936   2.253   9.089   4.789
96368SOL    HW290937   2.352   9.062   4.677
96369SOL     OW90938   2.331   8.191   2.545
96369SOL    HW190939   2.288   8.147   2.618
96369SOL    HW290940   2.273   8.263   2.522
96370SOL     OW90941   4.669   5.564   2.484
96370SOL    HW190942   4.657   5.524   2.398
96370SOL    HW290943   4.758   5.537   2.509
96371SOL     OW90944  14.253   8.696   4.633
96371SOL    HW190945  14.219   8.785   4.643
96371SOL    HW290946  14.190   8.641   4.680
96372SOL     OW90947   1.430   3.546  13.258
96372SOL    HW190948   1.413   3.482  13.327
96372SOL    HW290949   1.469   3.621  13.304
96373SOL     OW90950  10.707   0.950   3.796
96373SOL    HW190951  10.685   0.924   3.885
96373SOL    HW290952  10.674   0.879   3.741
96374SOL     OW90953   4.788   5.765  12.578
96374SOL    HW190954   4.871   5.719  12.567
96374SOL    HW290955   4.782   5.822  12.501
96375SOL     OW90956  13.210   7.078   7.455
96375SOL    HW190957  13.145   7.146   7.473
96375SOL    HW290958  13.174   6.999   7.496
96376SOL     OW90959   6.092  14.241  10.010
96376SOL    HW190960   6.114  14.332   9.990
96376SOL    HW290961   6.101  14.235  10.105
96377SOL     OW90962   4.907  12.322   2.794
96377SOL    HW190963   4.871  12.252   2.849
96377SOL    HW290964   4.893  12.402   2.845
96378SOL     OW90965   8.291   9.926   2.710
96378SOL    HW190966   8.380   9.948   2.684
96378SOL    HW290967   8.245  10.009   2.713
96379SOL     OW90968   5.881   5.963  10.375
96379SOL    HW190969   5.915   5.945  10.462
96379SOL    HW290970   5.959   5.978  10.321
96380SOL     OW90971   6.488  12.474  11.354
96380SOL    HW190972   6.527  12.425  11.427
96380SOL    HW290973   6.550  12.461  11.282
96381SOL     OW90974   5.279   1.265  11.397
96381SOL    HW190975   5.333   1.192  11.430
96381SOL    HW290976   5.330   1.301  11.325
96382SOL     OW90977   2.889  13.402   1.417
96382SOL    HW190978   2.844  13.318   1.429
96382SOL    HW290979   2.929  13.419   1.502
96383SOL     OW90980  14.756   8.122   2.456
96383SOL    HW190981  14.806   8.199   2.425
96383SOL    HW290982  14.667   8.155   2.468
96384SOL     OW90983   6.551   2.493   0.937
96384SOL    HW190984   6.563   2.511   0.844
96384SOL    HW290985   6.539   2.578   0.977
96385SOL     OW90986   5.561   8.340   8.511
96385SOL    HW190987   5.562   8.315   8.419
96385SOL    HW290988   5.635   8.293   8.549
96386SOL     OW90989  12.199  13.402   4.086
96386SOL    HW190990  12.172  13.311   4.071
96386SOL    HW290991  12.267  13.395   4.153
96387SOL     OW90992   5.316  13.344  11.355
96387SOL    HW190993   5.311  13.424  11.303
96387SOL    HW290994   5.369  13.284  11.302
96388SOL     OW90995  13.861   3.537   2.591
96388SOL    HW190996  13.778   3.494   2.570
96388SOL    HW290997  13.872   3.523   2.685
96389SOL     OW90998   3.934   5.936   0.174
96389SOL    HW190999   3.899   6.010   0.123
96389SOL    HW291000   3.976   5.977   0.250
96390SOL     OW91001   8.208  14.689   8.826
96390SOL    HW191002   8.161  14.605   8.822
96390SOL    HW291003   8.206  14.712   8.919
96391SOL     OW91004  13.096   3.948   0.271
96391SOL    HW191005  13.070   3.874   0.217
96391SOL    HW291006  13.189   3.933   0.289
96392SOL     OW91007  13.298   1.973  12.909
96392SOL    HW191008  13.264   2.055  12.872
96392SOL    HW291009  13.388   1.995  12.936
96393SOL     OW91010   1.676  11.213   9.594
96393SOL    HW191011   1.624  11.274   9.542
96393SOL    HW291012   1.652  11.127   9.560
96394SOL     OW91013   8.847  13.339  14.882
96394SOL    HW191014   8.898  13.315  14.804
96394SOL    HW291015   8.838  13.434  14.876
96395SOL     OW91016   4.411   7.225  11.958
96395SOL    HW191017   4.492   7.268  11.986
96395SOL    HW291018   4.361   7.294  11.915
96396SOL     OW91019   8.035  14.060   0.936
96396SOL    HW191020   7.959  14.042   0.881
96396SOL    HW291021   8.022  14.150   0.966
96397SOL     OW91022   9.951   4.048   2.985
96397SOL    HW191023  10.044   4.052   3.009
96397SOL    HW291024   9.937   4.128   2.934
96398SOL     OW91025  12.220   8.579   4.714
96398SOL    HW191026  12.200   8.571   4.620
96398SOL    HW291027  12.312   8.605   4.717
96399SOL     OW91028  10.701   2.804  11.422
96399SOL    HW191029  10.778   2.795  11.477
96399SOL    HW291030  10.627   2.784  11.480
96400SOL     OW91031  11.572   5.118   7.099
96400SOL    HW191032  11.552   5.185   7.165
96400SOL    HW291033  11.545   5.035   7.140
96401SOL     OW91034   0.426   2.625   2.591
96401SOL    HW191035   0.501   2.677   2.620
96401SOL    HW291036   0.410   2.563   2.662
96402SOL     OW91037   8.564  11.040   5.611
96402SOL    HW191038   8.615  11.015   5.533
96402SOL    HW291039   8.579  10.968   5.673
96403SOL     OW91040  12.215  12.849  13.247
96403SOL    HW191041  12.164  12.917  13.203
96403SOL    HW291042  12.150  12.800  13.298
96404SOL     OW91043  11.454   7.338   6.214
96404SOL    HW191044  11.537   7.326   6.260
96404SOL    HW291045  11.468   7.296   6.129
96405SOL     OW91046  13.097  10.626  13.963
96405SOL    HW191047  13.112  10.532  13.973
96405SOL    HW291048  13.123  10.663  14.048
96406SOL     OW91049   8.435  11.157   3.597
96406SOL    HW191050   8.369  11.089   3.609
96406SOL    HW291051   8.409  11.226   3.659
96407SOL     OW91052   4.700  14.182   4.041
96407SOL    HW191053   4.696  14.272   4.073
96407SOL    HW291054   4.785  14.150   4.071
96408SOL     OW91055   9.612  10.172   8.982
96408SOL    HW191056   9.536  10.226   8.961
96408SOL    HW291057   9.659  10.162   8.899
96409SOL     OW91058  10.206   5.247   9.276
96409SOL    HW191059  10.299   5.261   9.298
96409SOL    HW291060  10.176   5.184   9.342
96410SOL     OW91061   1.659   2.608   1.977
96410SOL    HW191062   1.749   2.614   1.945
96410SOL    HW291063   1.605   2.623   1.899
96411SOL     OW91064  10.828   9.655  11.476
96411SOL    HW191065  10.882   9.585  11.439
96411SOL    HW291066  10.879   9.734  11.463
96412SOL     OW91067  11.745   9.106   7.502
96412SOL    HW191068  11.806   9.033   7.503
96412SOL    HW291069  11.787   9.174   7.554
96413SOL     OW91070   9.875   4.193  14.861
96413SOL    HW191071   9.785   4.220  14.845
96413SOL    HW291072   9.878   4.172   0.073
96414SOL     OW91073   7.475  11.903   1.442
96414SOL    HW191074   7.466  11.874   1.351
96414SOL    HW291075   7.404  11.966   1.453
96415SOL     OW91076   3.044   0.266   5.253
96415SOL    HW191077   3.131   0.252   5.215
96415SOL    HW291078   3.005   0.179   5.257
96416SOL     OW91079   3.817   2.054   6.004
96416SOL    HW191080   3.798   2.103   6.084
96416SOL    HW291081   3.738   2.065   5.950
96417SOL     OW91082  14.336  11.129   1.189
96417SOL    HW191083  14.335  11.225   1.191
96417SOL    HW291084  14.281  11.103   1.263
96418SOL     OW91085   8.166   7.964   6.857
96418SOL    HW191086   8.120   8.037   6.816
96418SOL    HW291087   8.099   7.897   6.867
96419SOL     OW91088   0.837   4.573  10.234
96419SOL    HW191089   0.777   4.505  10.204
96419SOL    HW291090   0.907   4.573  10.169
96420SOL     OW91091   0.185   8.601  14.614
96420SOL    HW191092   0.161   8.562  14.530
96420SOL    HW291093   0.153   8.539  14.679
96421SOL     OW91094   8.642   5.010   4.451
96421SOL    HW191095   8.668   5.085   4.398
96421SOL    HW291096   8.724   4.967   4.474
96422SOL     OW91097   9.092   6.694   9.877
96422SOL    HW191098   8.999   6.714   9.876
96422SOL    HW291099   9.117   6.700   9.969
96423SOL     OW91100   9.501  10.772   8.954
96423SOL    HW191101   9.433  10.784   9.021
96423SOL    HW291102   9.473  10.695   8.906
96424SOL     OW91103   9.037   4.071   1.449
96424SOL    HW191104   8.996   4.156   1.429
96424SOL    HW291105   8.970   4.023   1.497
96425SOL     OW91106   1.815   1.400   8.237
96425SOL    HW191107   1.853   1.481   8.203
96425SOL    HW291108   1.878   1.369   8.301
96426SOL     OW91109   3.061  10.264   8.577
96426SOL    HW191110   3.008  10.282   8.499
96426SOL    HW291111   3.144  10.232   8.542
96427SOL     OW91112   8.634  12.122   4.019
96427SOL    HW191113   8.683  12.185   3.966
96427SOL    HW291114   8.682  12.119   4.102
96428SOL     OW91115   6.683   2.386  14.847
96428SOL    HW191116   6.729   2.337   0.033
96428SOL    HW291117   6.592   2.387  14.875
96429SOL     OW91118   9.320   3.910   1.167
96429SOL    HW191119   9.382   3.856   1.216
96429SOL    HW291120   9.353   3.908   1.077
96430SOL     OW91121  13.366   3.126   8.491
96430SOL    HW191122  13.317   3.086   8.563
96430SOL    HW291123  13.353   3.220   8.503
96431SOL     OW91124   0.656   0.203   1.021
96431SOL    HW191125   0.691   0.291   1.029
96431SOL    HW291126   0.663   0.166   1.109
96432SOL     OW91127  10.498  13.490  11.320
96432SOL    HW191128  10.410  13.465  11.292
96432SOL    HW291129  10.487  13.522  11.409
96433SOL     OW91130   9.517   9.667   1.482
96433SOL    HW191131   9.604   9.638   1.509
96433SOL    HW291132   9.503   9.749   1.530
96434SOL     OW91133   4.603   0.957  11.380
96434SOL    HW191134   4.545   0.935  11.306
96434SOL    HW291135   4.680   0.995  11.338
96435SOL     OW91136   8.008   3.434   1.988
96435SOL    HW191137   7.944   3.398   2.050
96435SOL    HW291138   7.984   3.395   1.904
96436SOL     OW91139  10.836   8.801   6.295
96436SOL    HW191140  10.756   8.850   6.315
96436SOL    HW291141  10.808   8.709   6.295
96437SOL     OW91142   4.704   6.503   1.844
96437SOL    HW191143   4.687   6.583   1.794
96437SOL    HW291144   4.639   6.505   1.914
96438SOL     OW91145  11.514   4.408   2.663
96438SOL    HW191146  11.461   4.460   2.602
96438SOL    HW291147  11.604   4.419   2.632
96439SOL     OW91148  13.909   5.541   8.025
96439SOL    HW191149  13.970   5.614   8.018
96439SOL    HW291150  13.859   5.543   7.944
96440SOL     OW91151  13.352  14.809   9.195
96440SOL    HW191152  13.272  14.764   9.218
96440SOL    HW291153  13.371  14.865   9.271
96441SOL     OW91154   6.506   5.082  11.041
96441SOL    HW191155   6.582   5.024  11.048
96441SOL    HW291156   6.511   5.116  10.951
96442SOL     OW91157   5.397   2.159   0.701
96442SOL    HW191158   5.341   2.200   0.635
96442SOL    HW291159   5.466   2.116   0.650
96443SOL     OW91160  14.080  14.678  11.407
96443SOL    HW191161  14.051  14.650  11.320
96443SOL    HW291162  14.171  14.703  11.395
96444SOL     OW91163   6.315   0.650   9.542
96444SOL    HW191164   6.237   0.701   9.566
96444SOL    HW291165   6.297   0.562   9.576
96445SOL     OW91166   8.641   7.651   0.694
96445SOL    HW191167   8.551   7.623   0.708
96445SOL    HW291168   8.681   7.647   0.781
96446SOL     OW91169   1.116   0.125   9.672
96446SOL    HW191170   1.205   0.092   9.660
96446SOL    HW291171   1.107   0.137   9.766
96447SOL     OW91172   8.033   0.825   6.807
96447SOL    HW191173   7.969   0.766   6.767
96447SOL    HW291174   8.091   0.849   6.736
96448SOL     OW91175   5.580   2.105   3.925
96448SOL    HW191176   5.509   2.044   3.946
96448SOL    HW291177   5.550   2.189   3.959
96449SOL     OW91178  10.227  10.668   1.945
96449SOL    HW191179  10.240  10.647   2.037
96449SOL    HW291180  10.311  10.705   1.917
96450SOL     OW91181   8.115   4.149   3.483
96450SOL    HW191182   8.103   4.091   3.558
96450SOL    HW291183   8.148   4.231   3.520
96451SOL     OW91184  12.681   0.026  11.858
96451SOL    HW191185  12.670  14.813  11.856
96451SOL    HW291186  12.593   0.061  11.843
96452SOL     OW91187   7.074  14.150  12.490
96452SOL    HW191188   7.085  14.219  12.425
96452SOL    HW291189   7.029  14.193  12.563
96453SOL     OW91190   2.584   0.682  12.324
96453SOL    HW191191   2.641   0.685  12.401
96453SOL    HW291192   2.591   0.770  12.287
96454SOL     OW91193   7.851   0.533  11.481
96454SOL    HW191194   7.887   0.460  11.430
96454SOL    HW291195   7.767   0.501  11.514
96455SOL     OW91196   2.525   5.254   8.779
96455SOL    HW191197   2.495   5.250   8.870
96455SOL    HW291198   2.601   5.197   8.776
96456SOL     OW91199   7.017   8.670  11.565
96456SOL    HW191200   6.996   8.763  11.566
96456SOL    HW291201   7.086   8.661  11.499
96457SOL     OW91202   5.973   1.430   0.574
96457SOL    HW191203   5.964   1.397   0.484
96457SOL    HW291204   5.997   1.522   0.563
96458SOL     OW91205   9.788   6.918  12.047
96458SOL    HW191206   9.837   6.850  12.093
96458SOL    HW291207   9.707   6.928  12.097
96459SOL     OW91208  11.816   0.334   7.397
96459SOL    HW191209  11.857   0.250   7.380
96459SOL    HW291210  11.806   0.337   7.492
96460SOL     OW91211   8.347  12.442  13.199
96460SOL    HW191212   8.442  12.451  13.210
96460SOL    HW291213   8.324  12.366  13.253
96461SOL     OW91214   9.331  10.735   2.317
96461SOL    HW191215   9.262  10.801   2.316
96461SOL    HW291216   9.292  10.659   2.361
96462SOL     OW91217   5.700  14.734  13.550
96462SOL    HW191218   5.619  14.717  13.599
96462SOL    HW291219   5.683  14.818  13.507
96463SOL     OW91220   6.486   3.755  14.446
96463SOL    HW191221   6.483   3.840  14.403
96463SOL    HW291222   6.569   3.717  14.419
96464SOL     OW91223   8.793   1.188   8.018
96464SOL    HW191224   8.726   1.256   8.005
96464SOL    HW291225   8.865   1.215   7.960
96465SOL     OW91226   5.971   8.116   0.471
96465SOL    HW191227   5.912   8.085   0.539
96465SOL    HW291228   5.927   8.096   0.388
96466SOL     OW91229  10.395   6.251  12.083
96466SOL    HW191230  10.429   6.190  12.018
96466SOL    HW291231  10.469   6.270  12.141
96467SOL     OW91232  13.804   6.038  12.546
96467SOL    HW191233  13.853   6.101  12.598
96467SOL    HW291234  13.824   5.953  12.585
96468SOL     OW91235   2.597   0.868   1.242
96468SOL    HW191236   2.571   0.959   1.254
96468SOL    HW291237   2.520   0.825   1.205
96469SOL     OW91238  10.618   1.555   2.624
96469SOL    HW191239  10.537   1.603   2.605
96469SOL    HW291240  10.598   1.507   2.705
96470SOL     OW91241   7.695   0.618   7.111
96470SOL    HW191242   7.752   0.692   7.132
96470SOL    HW291243   7.619   0.658   7.070
96471SOL     OW91244   4.861   5.950  12.771
96471SOL    HW191245   4.845   5.867  12.725
96471SOL    HW291246   4.895   6.009  12.704
96472SOL     OW91247  12.643   8.614   0.926
96472SOL    HW191248  12.590   8.554   0.978
96472SOL    HW291249  12.582   8.682   0.897
96473SOL     OW91250  13.600   1.731  13.826
96473SOL    HW191251  13.694   1.740  13.810
96473SOL    HW291252  13.594   1.710  13.919
96474SOL     OW91253  14.112   1.268   5.590
96474SOL    HW191254  14.052   1.317   5.533
96474SOL    HW291255  14.173   1.226   5.529
96475SOL     OW91256   2.042  12.610   7.112
96475SOL    HW191257   1.953  12.617   7.077
96475SOL    HW291258   2.089  12.556   7.048
96476SOL     OW91259  11.455   0.309   4.365
96476SOL    HW191260  11.443   0.377   4.433
96476SOL    HW291261  11.366   0.294   4.332
96477SOL     OW91262   9.730   3.766  11.927
96477SOL    HW191263   9.810   3.762  11.979
96477SOL    HW291264   9.713   3.860  11.916
96478SOL     OW91265   6.060  14.871  14.396
96478SOL    HW191266   6.120  14.796  14.393
96478SOL    HW291267   5.992  14.851  14.333
96479SOL     OW91268  13.557   6.165   2.003
96479SOL    HW191269  13.614   6.200   2.071
96479SOL    HW291270  13.545   6.073   2.027
96480SOL     OW91271  12.854  10.175   1.138
96480SOL    HW191272  12.938  10.215   1.161
96480SOL    HW291273  12.869  10.081   1.143
96481SOL     OW91274   2.072  11.515   0.260
96481SOL    HW191275   2.017  11.459   0.316
96481SOL    HW291276   2.108  11.580   0.320
96482SOL     OW91277  13.470   9.628   8.923
96482SOL    HW191278  13.410   9.637   8.996
96482SOL    HW291279  13.539   9.692   8.940
96483SOL     OW91280   0.238   7.055   1.646
96483SOL    HW191281   0.165   7.099   1.602
96483SOL    HW291282   0.204   6.970   1.672
96484SOL     OW91283  13.961   5.853   1.983
96484SOL    HW191284  13.868   5.831   1.987
96484SOL    HW291285  13.966   5.942   2.016
96485SOL     OW91286   5.557   7.192   5.875
96485SOL    HW191287   5.509   7.127   5.824
96485SOL    HW291288   5.630   7.217   5.819
96486SOL     OW91289   3.811   7.949  10.714
96486SOL    HW191290   3.850   8.007  10.649
96486SOL    HW291291   3.717   7.947  10.692
96487SOL     OW91292   2.379   3.929   0.587
96487SOL    HW191293   2.317   3.950   0.657
96487SOL    HW291294   2.325   3.917   0.509
96488SOL     OW91295   0.045   8.497   1.740
96488SOL    HW191296   0.068   8.469   1.651
96488SOL    HW291297   0.038   8.592   1.734
96489SOL     OW91298   8.766   4.016   5.216
96489SOL    HW191299   8.831   4.022   5.147
96489SOL    HW291300   8.807   4.058   5.292
96490SOL     OW91301   1.788  14.259  11.761
96490SOL    HW191302   1.707  14.220  11.794
96490SOL    HW291303   1.852  14.243  11.829
96491SOL     OW91304   8.111   8.548  14.719
96491SOL    HW191305   8.097   8.513  14.807
96491SOL    HW291306   8.198   8.515  14.694
96492SOL     OW91307   0.888  10.938   7.570
96492SOL    HW191308   0.976  10.902   7.564
96492SOL    HW291309   0.847  10.915   7.487
96493SOL     OW91310  11.742  12.388  13.448
96493SOL    HW191311  11.653  12.357  13.433
96493SOL    HW291312  11.797  12.312  13.429
96494SOL     OW91313   9.699  13.984   1.744
96494SOL    HW191314   9.760  13.971   1.816
96494SOL    HW291315   9.695  13.899   1.700
96495SOL     OW91316  10.228   7.686   9.639
96495SOL    HW191317  10.202   7.631   9.713
96495SOL    HW291318  10.244   7.624   9.568
96496SOL     OW91319  12.284   9.049   7.037
96496SOL    HW191320  12.360   9.084   7.084
96496SOL    HW291321  12.217   9.118   7.044
96497SOL     OW91322  12.368   4.498   6.952
96497SOL    HW191323  12.353   4.416   6.998
96497SOL    HW291324  12.461   4.495   6.928
96498SOL     OW91325  11.481   7.180   5.982
96498SOL    HW191326  11.487   7.109   6.047
96498SOL    HW291327  11.525   7.145   5.905
96499SOL     OW91328   1.833   0.469   7.562
96499SOL    HW191329   1.853   0.388   7.516
96499SOL    HW291330   1.919   0.508   7.579
96500SOL     OW91331  12.651   8.234  10.026
96500SOL    HW191332  12.575   8.246  10.083
96500SOL    HW291333  12.655   8.313   9.974
96501SOL     OW91334  10.252   5.753   7.725
96501SOL    HW191335  10.227   5.802   7.647
96501SOL    HW291336  10.207   5.796   7.797
96502SOL     OW91337   9.847   2.125  10.520
96502SOL    HW191338   9.890   2.073  10.588
96502SOL    HW291339   9.803   2.196  10.568
96503SOL     OW91340   3.525   6.156   3.679
96503SOL    HW191341   3.500   6.235   3.631
96503SOL    HW291342   3.444   6.126   3.720
96504SOL     OW91343  12.749   1.774  13.929
96504SOL    HW191344  12.703   1.698  13.961
96504SOL    HW291345  12.841   1.747  13.925
96505SOL     OW91346   4.873  10.920  13.963
96505SOL    HW191347   4.785  10.918  14.002
96505SOL    HW291348   4.904  11.009  13.979
96506SOL     OW91349  10.535   3.394   5.737
96506SOL    HW191350  10.549   3.347   5.820
96506SOL    HW291351  10.613   3.374   5.685
96507SOL     OW91352   6.803  14.534   3.333
96507SOL    HW191353   6.778  14.486   3.412
96507SOL    HW291354   6.866  14.477   3.289
96508SOL     OW91355   4.653   4.513   2.993
96508SOL    HW191356   4.648   4.454   3.068
96508SOL    HW291357   4.588   4.580   3.011
96509SOL     OW91358  10.125  11.892   3.101
96509SOL    HW191359  10.099  11.843   3.179
96509SOL    HW291360  10.055  11.876   3.038
96510SOL     OW91361  14.470  14.152   0.426
96510SOL    HW191362  14.541  14.149   0.491
96510SOL    HW291363  14.463  14.062   0.394
96511SOL     OW91364  13.160   2.422  10.114
96511SOL    HW191365  13.171   2.501  10.166
96511SOL    HW291366  13.170   2.451  10.024
96512SOL     OW91367   2.783   2.133   8.392
96512SOL    HW191368   2.789   2.226   8.411
96512SOL    HW291369   2.865   2.112   8.346
96513SOL     OW91370  13.823  12.503   3.751
96513SOL    HW191371  13.889  12.541   3.810
96513SOL    HW291372  13.812  12.569   3.683
96514SOL     OW91373  12.108   5.799  10.662
96514SOL    HW191374  12.036   5.863  10.661
96514SOL    HW291375  12.064   5.714  10.668
96515SOL     OW91376  11.288   2.473   3.662
96515SOL    HW191377  11.299   2.420   3.583
96515SOL    HW291378  11.197   2.458   3.688
96516SOL     OW91379   5.096  10.114  14.590
96516SOL    HW191380   5.171  10.136  14.645
96516SOL    HW291381   5.020  10.145  14.639
96517SOL     OW91382  11.713   8.892  11.220
96517SOL    HW191383  11.712   8.797  11.209
96517SOL    HW291384  11.673   8.926  11.140
96518SOL     OW91385  11.570   9.465  14.252
96518SOL    HW191386  11.506   9.520  14.298
96518SOL    HW291387  11.596   9.516  14.176
96519SOL     OW91388   3.188   2.440  10.951
96519SOL    HW191389   3.261   2.488  10.911
96519SOL    HW291390   3.159   2.497  11.022
96520SOL     OW91391   6.245   4.427   0.951
96520SOL    HW191392   6.318   4.468   0.997
96520SOL    HW291393   6.175   4.423   1.017
96521SOL     OW91394   1.413   7.351  10.923
96521SOL    HW191395   1.428   7.367  11.016
96521SOL    HW291396   1.402   7.439  10.885
96522SOL     OW91397   3.232   2.032   7.486
96522SOL    HW191398   3.304   2.096   7.489
96522SOL    HW291399   3.250   1.980   7.408
96523SOL     OW91400  10.629   1.790   7.721
96523SOL    HW191401  10.539   1.791   7.687
96523SOL    HW291402  10.618   1.786   7.816
96524SOL     OW91403   4.499   0.514   9.630
96524SOL    HW191404   4.587   0.477   9.634
96524SOL    HW291405   4.512   0.608   9.641
96525SOL     OW91406   5.890  10.881   4.138
96525SOL    HW191407   5.859  10.919   4.220
96525SOL    HW291408   5.851  10.935   4.070
96526SOL     OW91409   8.111   7.222  10.526
96526SOL    HW191410   8.093   7.210  10.433
96526SOL    HW291411   8.032   7.264  10.560
96527SOL     OW91412   3.226   8.022   7.187
96527SOL    HW191413   3.188   8.102   7.221
96527SOL    HW291414   3.252   8.043   7.098
96528SOL     OW91415   3.654   2.366   8.161
96528SOL    HW191416   3.573   2.394   8.117
96528SOL    HW291417   3.656   2.271   8.149
96529SOL     OW91418   3.006   1.433   1.456
96529SOL    HW191419   3.078   1.407   1.399
96529SOL    HW291420   3.042   1.502   1.512
96530SOL     OW91421   3.269  11.139   8.162
96530SOL    HW191422   3.197  11.106   8.215
96530SOL    HW291423   3.346  11.131   8.219
96531SOL     OW91424   8.439   6.646   3.150
96531SOL    HW191425   8.488   6.673   3.227
96531SOL    HW291426   8.498   6.660   3.077
96532SOL     OW91427   4.982   2.121  10.151
96532SOL    HW191428   5.029   2.170  10.084
96532SOL    HW291429   4.969   2.184  10.222
96533SOL     OW91430  13.810   4.794  14.486
96533SOL    HW191431  13.841   4.845  14.410
96533SOL    HW291432  13.734   4.746  14.453
96534SOL     OW91433   2.158   4.399  14.856
96534SOL    HW191434   2.196   4.318  14.820
96534SOL    HW291435   2.231   4.442   0.018
96535SOL     OW91436   4.148  13.573   9.059
96535SOL    HW191437   4.066  13.527   9.080
96535SOL    HW291438   4.120  13.663   9.040
96536SOL     OW91439   7.523   9.663   9.032
96536SOL    HW191440   7.589   9.596   9.050
96536SOL    HW291441   7.457   9.618   8.979
96537SOL     OW91442   8.937   5.413   6.715
96537SOL    HW191443   8.854   5.392   6.759
96537SOL    HW291444   8.962   5.333   6.670
96538SOL     OW91445   5.394  14.130   6.291
96538SOL    HW191446   5.382  14.043   6.330
96538SOL    HW291447   5.489  14.138   6.280
96539SOL     OW91448   8.829   8.451   0.734
96539SOL    HW191449   8.741   8.423   0.707
96539SOL    HW291450   8.814   8.532   0.783
96540SOL     OW91451   9.477   8.567   5.351
96540SOL    HW191452   9.457   8.602   5.264
96540SOL    HW291453   9.560   8.607   5.375
96541SOL     OW91454  13.775  11.250  11.936
96541SOL    HW191455  13.737  11.172  11.896
96541SOL    HW291456  13.701  11.310  11.947
96542SOL     OW91457   6.637   4.592  13.489
96542SOL    HW191458   6.713   4.537  13.470
96542SOL    HW291459   6.568   4.530  13.512
96543SOL     OW91460   2.497   4.070   6.258
96543SOL    HW191461   2.455   3.992   6.222
96543SOL    HW291462   2.425   4.131   6.273
96544SOL     OW91463  13.837   1.827   3.557
96544SOL    HW191464  13.848   1.919   3.581
96544SOL    HW291465  13.759   1.826   3.500
96545SOL     OW91466   8.932   9.821  11.132
96545SOL    HW191467   8.938   9.770  11.052
96545SOL    HW291468   8.935   9.912  11.103
96546SOL     OW91469   8.505  10.591  13.421
96546SOL    HW191470   8.464  10.602  13.335
96546SOL    HW291471   8.569  10.521  13.409
96547SOL     OW91472   7.313  10.203   5.992
96547SOL    HW191473   7.292  10.142   6.062
96547SOL    HW291474   7.409  10.210   5.994
96548SOL     OW91475  11.523   9.772   4.824
96548SOL    HW191476  11.529   9.738   4.735
96548SOL    HW291477  11.555   9.700   4.880
96549SOL     OW91478  12.573   3.895   9.208
96549SOL    HW191479  12.527   3.882   9.125
96549SOL    HW291480  12.625   3.974   9.194
96550SOL     OW91481   6.261   1.064   0.744
96550SOL    HW191482   6.208   1.137   0.775
96550SOL    HW291483   6.204   0.988   0.754
96551SOL     OW91484   9.438   3.951   8.130
96551SOL    HW191485   9.508   3.953   8.195
96551SOL    HW291486   9.393   4.034   8.140
96552SOL     OW91487   6.995   9.003  14.173
96552SOL    HW191488   6.975   8.919  14.215
96552SOL    HW291489   7.064   9.041  14.227
96553SOL     OW91490   1.402   2.940  12.998
96553SOL    HW191491   1.416   3.034  13.002
96553SOL    HW291492   1.342   2.927  12.925
96554SOL     OW91493   0.405   8.867  11.145
96554SOL    HW191494   0.434   8.958  11.146
96554SOL    HW291495   0.313   8.871  11.122
96555SOL     OW91496   5.457  14.182   7.060
96555SOL    HW191497   5.533  14.240   7.063
96555SOL    HW291498   5.449  14.147   7.148
96556SOL     OW91499  11.560  13.886   2.634
96556SOL    HW191500  11.631  13.901   2.572
96556SOL    HW291501  11.602  13.840   2.707
96557SOL     OW91502   1.403   5.183   4.201
96557SOL    HW191503   1.334   5.142   4.254
96557SOL    HW291504   1.474   5.119   4.202
96558SOL     OW91505   1.226   8.985  11.169
96558SOL    HW191506   1.135   9.005  11.191
96558SOL    HW291507   1.247   9.043  11.097
96559SOL     OW91508  12.407   0.394  11.580
96559SOL    HW191509  12.470   0.372  11.649
96559SOL    HW291510  12.341   0.325  11.585
96560SOL     OW91511   0.341   0.601   2.740
96560SOL    HW191512   0.315   0.546   2.666
96560SOL    HW291513   0.286   0.571   2.812
96561SOL     OW91514   7.317   2.292   2.204
96561SOL    HW191515   7.249   2.269   2.141
96561SOL    HW291516   7.388   2.232   2.186
96562SOL     OW91517   3.688   9.727  11.199
96562SOL    HW191518   3.670   9.633  11.196
96562SOL    HW291519   3.726   9.747  11.114
96563SOL     OW91520   9.111   2.151   6.089
96563SOL    HW191521   9.107   2.107   6.004
96563SOL    HW291522   9.075   2.239   6.073
96564SOL     OW91523  10.074  12.173  14.546
96564SOL    HW191524   9.993  12.194  14.593
96564SOL    HW291525  10.069  12.224  14.465
96565SOL     OW91526   6.845   5.632   3.674
96565SOL    HW191527   6.874   5.541   3.677
96565SOL    HW291528   6.887   5.674   3.749
96566SOL     OW91529   7.633   0.055  13.030
96566SOL    HW191530   7.585  14.875  13.085
96566SOL    HW291531   7.646   0.132  13.087
96567SOL     OW91532  11.878  12.630   7.039
96567SOL    HW191533  11.894  12.719   7.007
96567SOL    HW291534  11.868  12.578   6.959
96568SOL     OW91535   0.281  14.047   7.932
96568SOL    HW191536   0.211  13.994   7.894
96568SOL    HW291537   0.284  14.126   7.877
96569SOL     OW91538  13.933   2.200   3.535
96569SOL    HW191539  13.919   2.285   3.577
96569SOL    HW291540  13.946   2.140   3.608
96570SOL     OW91541   0.489  11.506   9.742
96570SOL    HW191542   0.465  11.447   9.671
96570SOL    HW291543   0.503  11.591   9.700
96571SOL     OW91544  11.264   6.608   0.563
96571SOL    HW191545  11.331   6.541   0.554
96571SOL    HW291546  11.312   6.688   0.586
96572SOL     OW91547   3.813   6.461   3.830
96572SOL    HW191548   3.823   6.442   3.736
96572SOL    HW291549   3.780   6.379   3.867
96573SOL     OW91550   8.581   6.220   9.189
96573SOL    HW191551   8.505   6.209   9.247
96573SOL    HW291552   8.544   6.235   9.102
96574SOL     OW91553  10.223   6.669   4.083
96574SOL    HW191554  10.189   6.654   4.171
96574SOL    HW291555  10.147   6.663   4.026
96575SOL     OW91556   7.620   9.591  10.134
96575SOL    HW191557   7.526   9.586  10.151
96575SOL    HW291558   7.627   9.623  10.044
96576SOL     OW91559   9.411   5.534   8.409
96576SOL    HW191560   9.452   5.448   8.396
96576SOL    HW291561   9.398   5.568   8.320
96577SOL     OW91562   3.092   7.799   0.471
96577SOL    HW191563   3.102   7.724   0.413
96577SOL    HW291564   3.149   7.866   0.433
96578SOL     OW91565   7.805   7.246   2.020
96578SOL    HW191566   7.735   7.188   1.990
96578SOL    HW291567   7.768   7.290   2.096
96579SOL     OW91568   0.964   9.961   0.923
96579SOL    HW191569   0.896   9.971   0.990
96579SOL    HW291570   1.020   9.891   0.956
96580SOL     OW91571   9.598  14.071  12.490
96580SOL    HW191572   9.540  13.995  12.490
96580SOL    HW291573   9.557  14.132  12.429
96581SOL     OW91574   1.912  13.302  10.934
96581SOL    HW191575   1.828  13.317  10.976
96581SOL    HW291576   1.942  13.389  10.907
96582SOL     OW91577   7.900   0.349  11.268
96582SOL    HW191578   7.839   0.290  11.224
96582SOL    HW291579   7.970   0.292  11.299
96583SOL     OW91580   0.347   2.404   8.261
96583SOL    HW191581   0.347   2.418   8.356
96583SOL    HW291582   0.439   2.401   8.237
96584SOL     OW91583  12.424   5.640   6.180
96584SOL    HW191584  12.491   5.663   6.244
96584SOL    HW291585  12.406   5.722   6.134
96585SOL     OW91586   4.063   2.744   8.768
96585SOL    HW191587   4.158   2.730   8.776
96585SOL    HW291588   4.033   2.671   8.714
96586SOL     OW91589  12.000   8.571  10.030
96586SOL    HW191590  11.960   8.657  10.014
96586SOL    HW291591  12.067   8.563   9.963
96587SOL     OW91592  14.358   2.493   6.324
96587SOL    HW191593  14.406   2.416   6.355
96587SOL    HW291594  14.267   2.476   6.349
96588SOL     OW91595   9.084   2.799   3.420
96588SOL    HW191596   9.097   2.711   3.454
96588SOL    HW291597   9.054   2.786   3.330
96589SOL     OW91598   2.091   8.625  10.928
96589SOL    HW191599   2.100   8.584  10.842
96589SOL    HW291600   2.104   8.719  10.912
96590SOL     OW91601   1.554   1.557  10.225
96590SOL    HW191602   1.489   1.536  10.158
96590SOL    HW291603   1.563   1.652  10.220
96591SOL     OW91604   2.548   6.033   7.194
96591SOL    HW191605   2.604   6.111   7.200
96591SOL    HW291606   2.514   6.034   7.105
96592SOL     OW91607   5.381  12.971   6.698
96592SOL    HW191608   5.407  12.882   6.723
96592SOL    HW291609   5.409  12.979   6.607
96593SOL     OW91610  12.982   0.463   9.367
96593SOL    HW191611  12.978   0.410   9.446
96593SOL    HW291612  12.970   0.401   9.295
96594SOL     OW91613   0.871   5.641  12.424
96594SOL    HW191614   0.945   5.684  12.380
96594SOL    HW291615   0.843   5.705  12.490
96595SOL     OW91616   3.315   2.172  10.501
96595SOL    HW191617   3.293   2.079  10.511
96595SOL    HW291618   3.393   2.184  10.556
96596SOL     OW91619  11.404   5.180   3.582
96596SOL    HW191620  11.373   5.151   3.668
96596SOL    HW291621  11.338   5.147   3.521
96597SOL     OW91622   8.248   8.810   1.410
96597SOL    HW191623   8.186   8.738   1.420
96597SOL    HW291624   8.219   8.875   1.474
96598SOL     OW91625   8.256  13.879  10.941
96598SOL    HW191626   8.231  13.795  10.901
96598SOL    HW291627   8.323  13.856  11.005
96599SOL     OW91628   4.038   5.957   5.600
96599SOL    HW191629   4.016   5.878   5.651
96599SOL    HW291630   4.076   6.017   5.665
96600SOL     OW91631  14.265   4.588  11.176
96600SOL    HW191632  14.303   4.664  11.220
96600SOL    HW291633  14.265   4.612  11.083
96601SOL     OW91634   2.376  14.664   9.856
96601SOL    HW191635   2.408  14.585   9.899
96601SOL    HW291636   2.369  14.728   9.927
96602SOL     OW91637   4.063   8.753   4.981
96602SOL    HW191638   4.121   8.805   4.926
96602SOL    HW291639   4.042   8.676   4.929
96603SOL     OW91640   9.828   2.795   8.645
96603SOL    HW191641   9.759   2.861   8.634
96603SOL    HW291642   9.786   2.725   8.695
96604SOL     OW91643  12.857  12.430   6.003
96604SOL    HW191644  12.764  12.410   6.011
96604SOL    HW291645  12.897  12.347   5.976
96605SOL     OW91646  12.898   9.275   3.241
96605SOL    HW191647  12.982   9.299   3.201
96605SOL    HW291648  12.907   9.302   3.332
96606SOL     OW91649   1.638   0.617  10.079
96606SOL    HW191650   1.709   0.584  10.134
96606SOL    HW291651   1.667   0.598   9.989
96607SOL     OW91652  14.440  13.976   0.103
96607SOL    HW191653  14.509  13.992   0.038
96607SOL    HW291654  14.362  13.958   0.050
96608SOL     OW91655   0.670   6.846   8.149
96608SOL    HW191656   0.729   6.772   8.132
96608SOL    HW291657   0.585   6.805   8.169
96609SOL     OW91658  11.525   1.793   0.145
96609SOL    HW191659  11.544   1.739   0.068
96609SOL    HW291660  11.458   1.854   0.115
96610SOL     OW91661  11.909   2.494   2.969
96610SOL    HW191662  11.924   2.457   3.057
96610SOL    HW291663  11.822   2.533   2.974
96611SOL     OW91664   7.486  10.530  11.922
96611SOL    HW191665   7.557  10.502  11.979
96611SOL    HW291666   7.495  10.625  11.916
96612SOL     OW91667   3.420   7.229   6.088
96612SOL    HW191668   3.498   7.284   6.096
96612SOL    HW291669   3.357   7.284   6.042
96613SOL     OW91670   6.769  11.271   4.949
96613SOL    HW191671   6.717  11.339   4.993
96613SOL    HW291672   6.780  11.203   5.015
96614SOL     OW91673   1.694  13.276  12.215
96614SOL    HW191674   1.628  13.346  12.215
96614SOL    HW291675   1.662  13.213  12.280
96615SOL     OW91676   2.172   3.040   8.620
96615SOL    HW191677   2.151   3.119   8.668
96615SOL    HW291678   2.258   3.013   8.654
96616SOL     OW91679  11.405  14.145   9.193
96616SOL    HW191680  11.497  14.144   9.167
96616SOL    HW291681  11.358  14.180   9.117
96617SOL     OW91682   3.847   6.095  10.241
96617SOL    HW191683   3.913   6.026  10.237
96617SOL    HW291684   3.765   6.048  10.257
96618SOL     OW91685  13.927   3.075   4.074
96618SOL    HW191686  13.897   3.004   4.017
96618SOL    HW291687  13.847   3.111   4.112
96619SOL     OW91688   6.163   3.128   8.980
96619SOL    HW191689   6.077   3.110   9.018
96619SOL    HW291690   6.190   3.045   8.941
96620SOL     OW91691   8.309   5.892   5.077
96620SOL    HW191692   8.290   5.949   5.151
96620SOL    HW291693   8.306   5.950   5.001
96621SOL     OW91694   3.950   6.687   3.257
96621SOL    HW191695   4.024   6.633   3.230
96621SOL    HW291696   3.979   6.730   3.337
96622SOL     OW91697   5.774   8.593   5.539
96622SOL    HW191698   5.786   8.687   5.549
96622SOL    HW291699   5.756   8.581   5.445
96623SOL     OW91700   5.954   8.938   5.352
96623SOL    HW191701   5.931   8.895   5.435
96623SOL    HW291702   5.978   8.866   5.294
96624SOL     OW91703   2.213  12.467  11.348
96624SOL    HW191704   2.242  12.539  11.291
96624SOL    HW291705   2.120  12.486  11.365
96625SOL     OW91706   0.167  11.866  14.052
96625SOL    HW191707   0.242  11.807  14.042
96625SOL    HW291708   0.139  11.885  13.963
96626SOL     OW91709  11.130   2.708   4.545
96626SOL    HW191710  11.062   2.742   4.487
96626SOL    HW291711  11.204   2.768   4.533
96627SOL     OW91712  11.945  12.442   3.729
96627SOL    HW191713  11.878  12.389   3.773
96627SOL    HW291714  12.000  12.379   3.684
96628SOL     OW91715  10.837   5.648   9.054
96628SOL    HW191716  10.837   5.564   9.101
96628SOL    HW291717  10.856   5.624   8.963
96629SOL     OW91718   1.075   3.300  14.122
96629SOL    HW191719   1.086   3.274  14.214
96629SOL    HW291720   1.142   3.250  14.075
96630SOL     OW91721  11.066   4.701   3.541
96630SOL    HW191722  11.094   4.781   3.584
96630SOL    HW291723  11.107   4.631   3.591
96631SOL     OW91724   2.605   9.475  12.060
96631SOL    HW191725   2.548   9.401  12.081
96631SOL    HW291726   2.589   9.492  11.967
96632SOL     OW91727   5.520   7.048   6.731
96632SOL    HW191728   5.582   7.072   6.662
96632SOL    HW291729   5.442   7.100   6.712
96633SOL     OW91730   7.696   4.821   0.162
96633SOL    HW191731   7.706   4.889   0.228
96633SOL    HW291732   7.706   4.867   0.079
96634SOL     OW91733   5.369  10.609  10.821
96634SOL    HW191734   5.392  10.520  10.847
96634SOL    HW291735   5.411  10.664  10.888
96635SOL     OW91736   3.337   8.564  13.702
96635SOL    HW191737   3.409   8.604  13.654
96635SOL    HW291738   3.339   8.472  13.675
96636SOL     OW91739  11.358  14.443   2.156
96636SOL    HW191740  11.362  14.349   2.138
96636SOL    HW291741  11.338  14.448   2.249
96637SOL     OW91742   2.387   8.505   4.882
96637SOL    HW191743   2.366   8.503   4.788
96637SOL    HW291744   2.352   8.422   4.915
96638SOL     OW91745  14.132   9.267   4.209
96638SOL    HW191746  14.094   9.185   4.240
96638SOL    HW291747  14.138   9.257   4.114
96639SOL     OW91748   8.605   2.250   9.259
96639SOL    HW191749   8.533   2.190   9.240
96639SOL    HW291750   8.620   2.240   9.353
96640SOL     OW91751   3.599  13.959   3.385
96640SOL    HW191752   3.528  13.904   3.419
96640SOL    HW291753   3.587  14.044   3.427
96641SOL     OW91754   5.218   8.727   3.927
96641SOL    HW191755   5.308   8.754   3.907
96641SOL    HW291756   5.208   8.643   3.884
96642SOL     OW91757   2.058   9.158   9.258
96642SOL    HW191758   2.152   9.178   9.259
96642SOL    HW291759   2.034   9.150   9.350
96643SOL     OW91760  12.339   1.401   7.363
96643SOL    HW191761  12.260   1.429   7.315
96643SOL    HW291762  12.317   1.415   7.455
96644SOL     OW91763  13.403   5.396   4.211
96644SOL    HW191764  13.358   5.479   4.224
96644SOL    HW291765  13.408   5.357   4.298
96645SOL     OW91766   1.033  11.948  10.011
96645SOL    HW191767   1.116  11.996  10.022
96645SOL    HW291768   1.054  11.859  10.038
96646SOL     OW91769  10.602   5.170   0.799
96646SOL    HW191770  10.534   5.237   0.806
96646SOL    HW291771  10.683   5.214   0.826
96647SOL     OW91772   2.389  14.266   6.711
96647SOL    HW191773   2.297  14.266   6.685
96647SOL    HW291774   2.397  14.343   6.767
96648SOL     OW91775   8.402   3.071   7.239
96648SOL    HW191776   8.309   3.093   7.237
96648SOL    HW291777   8.404   2.975   7.244
96649SOL     OW91778   8.370   0.291  11.702
96649SOL    HW191779   8.423   0.367  11.726
96649SOL    HW291780   8.425   0.241  11.642
96650SOL     OW91781  11.776   0.970   5.852
96650SOL    HW191782  11.806   1.052   5.813
96650SOL    HW291783  11.768   0.911   5.777
96651SOL     OW91784   0.134   2.235   9.048
96651SOL    HW191785   0.216   2.189   9.032
96651SOL    HW291786   0.118   2.285   8.967
96652SOL     OW91787   2.649  13.848   8.774
96652SOL    HW191788   2.711  13.815   8.839
96652SOL    HW291789   2.563  13.835   8.813
96653SOL     OW91790  12.154   2.251   9.271
96653SOL    HW191791  12.147   2.168   9.224
96653SOL    HW291792  12.194   2.312   9.208
96654SOL     OW91793   7.231   3.282   6.065
96654SOL    HW191794   7.175   3.269   5.988
96654SOL    HW291795   7.170   3.291   6.138
96655SOL     OW91796  11.565   9.553   8.898
96655SOL    HW191797  11.507   9.627   8.914
96655SOL    HW291798  11.654   9.589   8.908
96656SOL     OW91799   3.899   7.229   1.251
96656SOL    HW191800   3.978   7.182   1.225
96656SOL    HW291801   3.860   7.175   1.320
96657SOL     OW91802  11.434  12.137  14.848
96657SOL    HW191803  11.400  12.104  14.765
96657SOL    HW291804  11.357  12.158   0.018
96658SOL     OW91805   2.312   8.972   6.858
96658SOL    HW191806   2.260   8.982   6.938
96658SOL    HW291807   2.273   8.897   6.813
96659SOL     OW91808   1.499  10.316  13.737
96659SOL    HW191809   1.495  10.233  13.691
96659SOL    HW291810   1.426  10.367  13.702
96660SOL     OW91811  10.446   5.463   4.696
96660SOL    HW191812  10.457   5.456   4.791
96660SOL    HW291813  10.371   5.408   4.676
96661SOL     OW91814  14.639   2.691   7.717
96661SOL    HW191815  14.589   2.742   7.781
96661SOL    HW291816  14.722   2.736   7.709
96662SOL     OW91817  11.488   7.153  14.356
96662SOL    HW191818  11.410   7.128  14.307
96662SOL    HW291819  11.458   7.221  14.416
96663SOL     OW91820   3.548   3.050   1.157
96663SOL    HW191821   3.523   3.142   1.165
96663SOL    HW291822   3.637   3.047   1.192
96664SOL     OW91823   1.387   5.074   1.287
96664SOL    HW191824   1.342   5.031   1.359
96664SOL    HW291825   1.447   5.009   1.252
96665SOL     OW91826   7.029  12.374  14.837
96665SOL    HW191827   7.059  12.464  14.835
96665SOL    HW291828   6.940  12.379  14.870
96666SOL     OW91829  13.808   5.480   5.798
96666SOL    HW191830  13.783   5.415   5.864
96666SOL    HW291831  13.780   5.564   5.836
96667SOL     OW91832   6.795   7.548  11.257
96667SOL    HW191833   6.723   7.515  11.311
96667SOL    HW291834   6.754   7.570  11.173
96668SOL     OW91835  11.953   5.979   6.294
96668SOL    HW191836  11.905   5.983   6.377
96668SOL    HW291837  11.988   6.067   6.283
96669SOL     OW91838   9.533   8.853  11.274
96669SOL    HW191839   9.514   8.942  11.301
96669SOL    HW291840   9.459   8.801  11.307
96670SOL     OW91841   4.703   5.284   7.695
96670SOL    HW191842   4.711   5.311   7.786
96670SOL    HW291843   4.749   5.201   7.690
96671SOL     OW91844  12.416   7.028   4.544
96671SOL    HW191845  12.482   7.019   4.475
96671SOL    HW291846  12.374   7.113   4.526
96672SOL     OW91847   1.614   6.889  12.478
96672SOL    HW191848   1.707   6.909  12.467
96672SOL    HW291849   1.586   6.856  12.393
96673SOL     OW91850   8.876  11.229   1.411
96673SOL    HW191851   8.851  11.247   1.502
96673SOL    HW291852   8.859  11.136   1.400
96674SOL     OW91853   2.673  13.691   9.686
96674SOL    HW191854   2.597  13.636   9.669
96674SOL    HW291855   2.637  13.778   9.704
96675SOL     OW91856   7.620   5.418   9.342
96675SOL    HW191857   7.545   5.362   9.358
96675SOL    HW291858   7.690   5.359   9.316
96676SOL     OW91859  14.778   9.969   1.625
96676SOL    HW191860  14.690   9.959   1.661
96676SOL    HW291861  14.766   9.958   1.530
96677SOL     OW91862   5.199   6.784  12.746
96677SOL    HW191863   5.231   6.734  12.821
96677SOL    HW291864   5.105   6.795  12.763
96678SOL     OW91865   9.105   9.397   6.166
96678SOL    HW191866   9.125   9.428   6.078
96678SOL    HW291867   9.012   9.416   6.178
96679SOL     OW91868   2.644   8.789   3.660
96679SOL    HW191869   2.605   8.835   3.734
96679SOL    HW291870   2.718   8.844   3.634
96680SOL     OW91871   6.254  11.364  12.343
96680SOL    HW191872   6.229  11.282  12.385
96680SOL    HW291873   6.201  11.369  12.264
96681SOL     OW91874  11.872  11.160   4.099
96681SOL    HW191875  11.928  11.101   4.150
96681SOL    HW291876  11.809  11.103   4.056
96682SOL     OW91877   3.959  11.340   4.890
96682SOL    HW191878   3.910  11.417   4.916
96682SOL    HW291879   3.966  11.347   4.795
96683SOL     OW91880   2.519   1.289  11.301
96683SOL    HW191881   2.609   1.268  11.326
96683SOL    HW291882   2.514   1.385  11.308
96684SOL     OW91883  14.377   3.117  13.185
96684SOL    HW191884  14.462   3.079  13.206
96684SOL    HW291885  14.368   3.192  13.244
96685SOL     OW91886   1.104  10.009  14.828
96685SOL    HW191887   1.026  10.047  14.787
96685SOL    HW291888   1.119  10.063   0.024
96686SOL     OW91889  11.022   6.681   9.358
96686SOL    HW191890  11.009   6.696   9.452
96686SOL    HW291891  11.006   6.767   9.318
96687SOL     OW91892  11.404   4.787  11.648
96687SOL    HW191893  11.428   4.877  11.669
96687SOL    HW291894  11.461   4.733  11.703
96688SOL     OW91895   2.000   0.850   0.848
96688SOL    HW191896   1.930   0.908   0.817
96688SOL    HW291897   2.075   0.907   0.860
96689SOL     OW91898   2.240   1.844   3.159
96689SOL    HW191899   2.206   1.934   3.160
96689SOL    HW291900   2.335   1.855   3.149
96690SOL     OW91901  14.059   4.870  13.578
96690SOL    HW191902  13.969   4.871  13.611
96690SOL    HW291903  14.108   4.821  13.643
96691SOL     OW91904  14.235  14.335  12.624
96691SOL    HW191905  14.265  14.246  12.605
96691SOL    HW291906  14.288  14.362  12.699
96692SOL     OW91907   6.738   4.311   4.678
96692SOL    HW191908   6.651   4.287   4.708
96692SOL    HW291909   6.736   4.406   4.672
96693SOL     OW91910  10.572  14.125   7.740
96693SOL    HW191911  10.621  14.052   7.777
96693SOL    HW291912  10.480  14.101   7.752
96694SOL     OW91913   9.335  10.645   4.480
96694SOL    HW191914   9.337  10.646   4.575
96694SOL    HW291915   9.424  10.668   4.454
96695SOL     OW91916   8.590   9.084   9.573
96695SOL    HW191917   8.678   9.118   9.558
96695SOL    HW291918   8.532   9.157   9.551
96696SOL     OW91919   4.961  13.800   0.350
96696SOL    HW191920   4.916  13.844   0.423
96696SOL    HW291921   4.938  13.852   0.273
96697SOL     OW91922   6.082   0.390   4.414
96697SOL    HW191923   6.097   0.470   4.364
96697SOL    HW291924   6.161   0.339   4.401
96698SOL     OW91925   1.538   1.544  12.149
96698SOL    HW191926   1.604   1.478  12.168
96698SOL    HW291927   1.456   1.506  12.180
96699SOL     OW91928   1.794   6.491   8.970
96699SOL    HW191929   1.740   6.536   8.906
96699SOL    HW291930   1.733   6.434   9.018
96700SOL     OW91931   7.912   8.825  11.964
96700SOL    HW191932   8.002   8.792  11.963
96700SOL    HW291933   7.859   8.751  11.934
96701SOL     OW91934   6.354   7.471   1.999
96701SOL    HW191935   6.385   7.386   2.031
96701SOL    HW291936   6.412   7.535   2.040
96702SOL     OW91937  12.534  12.517  12.030
96702SOL    HW191938  12.574  12.526  11.943
96702SOL    HW291939  12.455  12.570  12.025
96703SOL     OW91940   7.289   2.722  13.484
96703SOL    HW191941   7.276   2.674  13.566
96703SOL    HW291942   7.238   2.802  13.495
96704SOL     OW91943   9.945   4.433   3.424
96704SOL    HW191944   9.981   4.374   3.357
96704SOL    HW291945   9.943   4.519   3.381
96705SOL     OW91946   0.361  10.649   6.092
96705SOL    HW191947   0.371  10.571   6.038
96705SOL    HW291948   0.268  10.672   6.083
96706SOL     OW91949  13.247  12.032   4.558
96706SOL    HW191950  13.321  11.979   4.528
96706SOL    HW291951  13.179  11.968   4.581
96707SOL     OW91952  12.965   7.267  12.384
96707SOL    HW191953  12.898   7.236  12.446
96707SOL    HW291954  12.935   7.236  12.299
96708SOL     OW91955   7.362   0.679   6.188
96708SOL    HW191956   7.411   0.598   6.203
96708SOL    HW291957   7.427   0.749   6.202
96709SOL     OW91958   5.593   5.244  13.469
96709SOL    HW191959   5.542   5.202  13.539
96709SOL    HW291960   5.662   5.182  13.448
96710SOL     OW91961  11.764  14.125   2.943
96710SOL    HW191962  11.721  14.045   2.973
96710SOL    HW291963  11.695  14.190   2.942
96711SOL     OW91964   8.283  13.845  10.291
96711SOL    HW191965   8.300  13.859  10.384
96711SOL    HW291966   8.225  13.769  10.288
96712SOL     OW91967  14.628  12.588   8.082
96712SOL    HW191968  14.581  12.596   8.166
96712SOL    HW291969  14.639  12.494   8.070
96713SOL     OW91970   8.736   5.276   3.868
96713SOL    HW191971   8.695   5.362   3.863
96713SOL    HW291972   8.772   5.262   3.780
96714SOL     OW91973   0.216   0.497   0.311
96714SOL    HW191974   0.165   0.427   0.272
96714SOL    HW291975   0.152   0.563   0.337
96715SOL     OW91976   8.738  13.992   7.305
96715SOL    HW191977   8.714  14.045   7.381
96715SOL    HW291978   8.760  14.055   7.237
96716SOL     OW91979   7.705   1.195   4.374
96716SOL    HW191980   7.693   1.132   4.446
96716SOL    HW291981   7.757   1.265   4.413
96717SOL     OW91982  10.041   5.190   2.533
96717SOL    HW191983  10.059   5.243   2.611
96717SOL    HW291984   9.946   5.190   2.526
96718SOL     OW91985   4.624   7.829   3.129
96718SOL    HW191986   4.625   7.915   3.086
96718SOL    HW291987   4.597   7.769   3.060
96719SOL     OW91988   6.022   6.228  13.865
96719SOL    HW191989   6.019   6.261  13.775
96719SOL    HW291990   6.106   6.258  13.899
96720SOL     OW91991   4.021   2.151   3.522
96720SOL    HW191992   3.981   2.236   3.539
96720SOL    HW291993   4.042   2.153   3.429
96721SOL     OW91994   3.273   2.586   3.238
96721SOL    HW191995   3.252   2.645   3.310
96721SOL    HW291996   3.220   2.617   3.165
96722SOL     OW91997  14.019   2.498   3.868
96722SOL    HW191998  14.105   2.495   3.827
96722SOL    HW291999  14.030   2.451   3.951
96723SOL     OW92000   5.308  10.663  12.564
96723SOL    HW192001   5.377  10.634  12.624
96723SOL    HW292002   5.252  10.718  12.617
96724SOL     OW92003  12.191  12.082   7.715
96724SOL    HW192004  12.192  11.988   7.730
96724SOL    HW292005  12.281  12.110   7.730
96725SOL     OW92006  14.591  14.187   2.490
96725SOL    HW192007  14.591  14.253   2.421
96725SOL    HW292008  14.683  14.164   2.501
96726SOL     OW92009   2.868   0.840   9.659
96726SOL    HW192010   2.810   0.809   9.729
96726SOL    HW292011   2.935   0.772   9.651
96727SOL     OW92012   2.058   6.153  12.625
96727SOL    HW192013   2.140   6.171  12.670
96727SOL    HW292014   2.085   6.130  12.536
96728SOL     OW92015   7.410   9.646   2.789
96728SOL    HW192016   7.443   9.645   2.879
96728SOL    HW292017   7.372   9.733   2.779
96729SOL     OW92018   7.832   1.332   2.209
96729SOL    HW192019   7.771   1.339   2.135
96729SOL    HW292020   7.802   1.254   2.256
96730SOL     OW92021  13.230   9.709   8.313
96730SOL    HW192022  13.135   9.712   8.304
96730SOL    HW292023  13.258   9.798   8.291
96731SOL     OW92024   9.177   8.579   5.642
96731SOL    HW192025   9.223   8.659   5.616
96731SOL    HW292026   9.087   8.592   5.613
96732SOL     OW92027   2.303   2.170   9.791
96732SOL    HW192028   2.238   2.230   9.830
96732SOL    HW292029   2.265   2.083   9.803
96733SOL     OW92030   0.951  14.199   4.156
96733SOL    HW192031   0.941  14.294   4.147
96733SOL    HW292032   0.867  14.169   4.190
96734SOL     OW92033  13.123  11.014  11.729
96734SOL    HW192034  13.032  11.015  11.698
96734SOL    HW292035  13.157  10.929  11.701
96735SOL     OW92036  13.485   4.483   6.975
96735SOL    HW192037  13.488   4.389   6.992
96735SOL    HW292038  13.478   4.490   6.880
96736SOL     OW92039   6.566   8.913   6.140
96736SOL    HW192040   6.571   9.006   6.117
96736SOL    HW292041   6.636   8.872   6.090
96737SOL     OW92042   6.028   5.122  11.645
96737SOL    HW192043   5.978   5.138  11.725
96737SOL    HW292044   5.973   5.062  11.595
96738SOL     OW92045   9.665   6.462   6.816
96738SOL    HW192046   9.580   6.429   6.845
96738SOL    HW292047   9.690   6.526   6.884
96739SOL     OW92048   6.885  12.160  10.648
96739SOL    HW192049   6.913  12.212  10.723
96739SOL    HW292050   6.796  12.188  10.630
96740SOL     OW92051   9.654  14.758  10.428
96740SOL    HW192052   9.703  14.786  10.351
96740SOL    HW292053   9.717  14.764  10.500
96741SOL     OW92054   9.594  14.101   0.525
96741SOL    HW192055   9.505  14.066   0.526
96741SOL    HW292056   9.646  14.037   0.573
96742SOL     OW92057   4.101   0.662   1.184
96742SOL    HW192058   4.183   0.710   1.173
96742SOL    HW292059   4.111   0.618   1.269
96743SOL     OW92060  13.277   8.343   7.927
96743SOL    HW192061  13.211   8.275   7.919
96743SOL    HW292062  13.348   8.302   7.977
96744SOL     OW92063   9.134   0.646   8.560
96744SOL    HW192064   9.087   0.593   8.625
96744SOL    HW292065   9.223   0.611   8.559
96745SOL     OW92066  10.199   7.781   2.436
96745SOL    HW192067  10.216   7.733   2.355
96745SOL    HW292068  10.165   7.714   2.496
96746SOL     OW92069  12.071   2.618  14.122
96746SOL    HW192070  12.043   2.534  14.157
96746SOL    HW292071  12.062   2.678  14.196
96747SOL     OW92072  13.076   5.441   3.672
96747SOL    HW192073  13.019   5.476   3.740
96747SOL    HW292074  13.016   5.397   3.611
96748SOL     OW92075   4.882   5.843   0.850
96748SOL    HW192076   4.922   5.924   0.880
96748SOL    HW292077   4.789   5.864   0.841
96749SOL     OW92078   9.273   8.758   0.877
96749SOL    HW192079   9.186   8.789   0.853
96749SOL    HW292080   9.284   8.787   0.968
96750SOL     OW92081   8.778   8.886   3.525
96750SOL    HW192082   8.767   8.801   3.483
96750SOL    HW292083   8.713   8.942   3.483
96751SOL     OW92084   2.922   4.750   8.908
96751SOL    HW192085   2.950   4.724   8.995
96751SOL    HW292086   2.826   4.746   8.912
96752SOL     OW92087   6.460   0.607   6.820
96752SOL    HW192088   6.385   0.549   6.815
96752SOL    HW292089   6.500   0.602   6.733
96753SOL     OW92090  13.785  13.100  14.644
96753SOL    HW192091  13.711  13.042  14.627
96753SOL    HW292092  13.832  13.105  14.561
96754SOL     OW92093   1.008   8.695   9.874
96754SOL    HW192094   0.980   8.692   9.965
96754SOL    HW292095   0.938   8.742   9.829
96755SOL     OW92096   2.308   6.260   2.114
96755SOL    HW192097   2.372   6.239   2.182
96755SOL    HW292098   2.360   6.277   2.036
96756SOL     OW92099  12.038  13.030   1.702
96756SOL    HW192100  11.984  13.056   1.627
96756SOL    HW292101  12.050  12.936   1.692
96757SOL     OW92102  12.550  13.616  12.797
96757SOL    HW192103  12.572  13.661  12.879
96757SOL    HW292104  12.579  13.526  12.810
96758SOL     OW92105   6.812   0.141   7.688
96758SOL    HW192106   6.750   0.069   7.678
96758SOL    HW292107   6.873   0.111   7.755
96759SOL     OW92108   3.016   1.048   9.088
96759SOL    HW192109   3.072   1.121   9.060
96759SOL    HW292110   2.930   1.069   9.052
96760SOL     OW92111   3.951  10.890  10.537
96760SOL    HW192112   3.969  10.937  10.455
96760SOL    HW292113   4.016  10.925  10.599
96761SOL     OW92114   5.309  14.370  10.969
96761SOL    HW192115   5.323  14.456  11.008
96761SOL    HW292116   5.315  14.309  11.042
96762SOL     OW92117   4.922  12.811   5.833
96762SOL    HW192118   4.963  12.890   5.798
96762SOL    HW292119   4.879  12.771   5.758
96763SOL     OW92120  14.253   3.899   4.297
96763SOL    HW192121  14.261   3.809   4.329
96763SOL    HW292122  14.289   3.952   4.368
96764SOL     OW92123  12.098  13.908  14.345
96764SOL    HW192124  12.112  14.003  14.345
96764SOL    HW292125  12.129  13.880  14.431
96765SOL     OW92126  11.669   7.037   9.175
96765SOL    HW192127  11.705   6.976   9.239
96765SOL    HW292128  11.588   7.068   9.215
96766SOL     OW92129   7.105   4.108   2.955
96766SOL    HW192130   7.158   4.053   2.897
96766SOL    HW292131   7.169   4.150   3.013
96767SOL     OW92132  13.005   1.036   1.006
96767SOL    HW192133  13.005   1.108   1.069
96767SOL    HW292134  13.097   1.018   0.989
96768SOL     OW92135  14.224   9.360  11.782
96768SOL    HW192136  14.141   9.393  11.819
96768SOL    HW292137  14.291   9.417  11.820
96769SOL     OW92138   3.021  12.302  10.749
96769SOL    HW192139   3.070  12.383  10.758
96769SOL    HW292140   2.937  12.319  10.793
96770SOL     OW92141  13.053  14.752   6.686
96770SOL    HW192142  12.981  14.692   6.705
96770SOL    HW292143  13.088  14.775   6.772
96771SOL     OW92144  13.088  11.696   8.090
96771SOL    HW192145  13.182  11.684   8.103
96771SOL    HW292146  13.053  11.607   8.086
96772SOL     OW92147   8.308   0.955  10.529
96772SOL    HW192148   8.227   0.946  10.478
96772SOL    HW292149   8.297   0.893  10.601
96773SOL     OW92150  13.525  11.700  14.345
96773SOL    HW192151  13.555  11.750  14.270
96773SOL    HW292152  13.603  11.657  14.378
96774SOL     OW92153   6.449   9.404  10.102
96774SOL    HW192154   6.459   9.491  10.140
96774SOL    HW292155   6.379   9.413  10.037
96775SOL     OW92156  12.354  12.656   2.786
96775SOL    HW192157  12.323  12.741   2.818
96775SOL    HW292158  12.417  12.678   2.717
96776SOL     OW92159   4.486   3.412   2.823
96776SOL    HW192160   4.462   3.504   2.808
96776SOL    HW292161   4.581   3.410   2.812
96777SOL     OW92162   4.876   6.022   1.416
96777SOL    HW192163   4.846   6.010   1.506
96777SOL    HW292164   4.956   6.074   1.424
96778SOL     OW92165   1.200   0.412   8.210
96778SOL    HW192166   1.270   0.384   8.151
96778SOL    HW292167   1.142   0.465   8.156
96779SOL     OW92168   7.828   0.921  12.281
96779SOL    HW192169   7.814   0.989  12.216
96779SOL    HW292170   7.917   0.890  12.266
96780SOL     OW92171   6.161   9.831   6.104
96780SOL    HW192172   6.227   9.859   6.168
96780SOL    HW292173   6.091   9.896   6.112
96781SOL     OW92174   4.668  13.727   1.232
96781SOL    HW192175   4.595  13.783   1.260
96781SOL    HW292176   4.695  13.764   1.147
96782SOL     OW92177   8.648  11.888  10.229
96782SOL    HW192178   8.706  11.964  10.228
96782SOL    HW292179   8.579  11.910  10.292
96783SOL     OW92180   9.597   4.504   7.818
96783SOL    HW192181   9.577   4.538   7.905
96783SOL    HW292182   9.599   4.581   7.762
96784SOL     OW92183  13.683   1.487  11.830
96784SOL    HW192184  13.589   1.473  11.820
96784SOL    HW292185  13.722   1.447  11.751
96785SOL     OW92186  14.732  12.355   1.858
96785SOL    HW192187  14.686  12.285   1.812
96785SOL    HW292188  14.692  12.436   1.825
96786SOL     OW92189   8.612  11.454   5.113
96786SOL    HW192190   8.620  11.483   5.022
96786SOL    HW292191   8.556  11.521   5.154
96787SOL     OW92192   3.260  11.512   7.504
96787SOL    HW192193   3.227  11.471   7.425
96787SOL    HW292194   3.207  11.475   7.575
96788SOL     OW92195   2.008   9.289  13.233
96788SOL    HW192196   2.086   9.339  13.257
96788SOL    HW292197   1.964   9.343  13.168
96789SOL     OW92198   6.248   7.270  14.214
96789SOL    HW192199   6.208   7.184  14.227
96789SOL    HW292200   6.185   7.331  14.254
96790SOL     OW92201  11.438   0.275   4.034
96790SOL    HW192202  11.517   0.294   4.085
96790SOL    HW292203  11.366   0.286   4.096
96791SOL     OW92204   7.632   6.144   2.139
96791SOL    HW192205   7.681   6.110   2.214
96791SOL    HW292206   7.694   6.142   2.066
96792SOL     OW92207  11.258   6.801  12.560
96792SOL    HW192208  11.244   6.820  12.467
96792SOL    HW292209  11.343   6.840  12.580
96793SOL     OW92210  14.104   3.737   2.125
96793SOL    HW192211  14.093   3.718   2.218
96793SOL    HW292212  14.130   3.653   2.086
96794SOL     OW92213   0.243   7.825   5.102
96794SOL    HW192214   0.324   7.842   5.054
96794SOL    HW292215   0.258   7.862   5.189
96795SOL     OW92216   3.421  13.065  13.523
96795SOL    HW192217   3.360  12.993  13.509
96795SOL    HW292218   3.397  13.102  13.608
96796SOL     OW92219  11.339  14.585  13.835
96796SOL    HW192220  11.354  14.595  13.741
96796SOL    HW292221  11.409  14.526  13.864
96797SOL     OW92222   1.500  11.290   1.707
96797SOL    HW192223   1.506  11.227   1.779
96797SOL    HW292224   1.481  11.237   1.630
96798SOL     OW92225   4.352  11.280  13.634
96798SOL    HW192226   4.348  11.341  13.560
96798SOL    HW292227   4.335  11.194  13.595
96799SOL     OW92228  13.146  13.033   9.728
96799SOL    HW192229  13.228  13.080   9.714
96799SOL    HW292230  13.111  13.069   9.809
96800SOL     OW92231   4.455   7.512   1.513
96800SOL    HW192232   4.495   7.484   1.431
96800SOL    HW292233   4.403   7.589   1.489
96801SOL     OW92234  12.336   5.868  12.116
96801SOL    HW192235  12.387   5.895  12.041
96801SOL    HW292236  12.271   5.807  12.081
96802SOL     OW92237  12.165   8.841   9.787
96802SOL    HW192238  12.219   8.910   9.748
96802SOL    HW292239  12.079   8.854   9.747
96803SOL     OW92240   7.353   7.434   1.681
96803SOL    HW192241   7.315   7.430   1.593
96803SOL    HW292242   7.443   7.403   1.669
96804SOL     OW92243   7.309   1.009   2.401
96804SOL    HW192244   7.277   0.933   2.352
96804SOL    HW292245   7.373   1.050   2.343
96805SOL     OW92246   1.140   1.243   4.958
96805SOL    HW192247   1.210   1.182   4.937
96805SOL    HW292248   1.066   1.214   4.905
96806SOL     OW92249   1.284   5.656   8.042
96806SOL    HW192250   1.219   5.681   7.976
96806SOL    HW292251   1.363   5.637   7.991
96807SOL     OW92252  14.067   1.319  11.121
96807SOL    HW192253  14.020   1.356  11.046
96807SOL    HW292254  14.008   1.332  11.195
96808SOL     OW92255  12.232   1.058   3.981
96808SOL    HW192256  12.321   1.025   3.985
96808SOL    HW292257  12.177   0.980   3.987
96809SOL     OW92258   9.066   9.187   4.092
96809SOL    HW192259   9.006   9.135   4.039
96809SOL    HW292260   9.101   9.253   4.032
96810SOL     OW92261   9.129   2.089   3.625
96810SOL    HW192262   9.148   2.168   3.675
96810SOL    HW292263   9.076   2.118   3.551
96811SOL     OW92264   2.907  10.386   0.352
96811SOL    HW192265   2.921  10.390   0.447
96811SOL    HW292266   2.949  10.304   0.325
96812SOL     OW92267   8.073  12.567   6.866
96812SOL    HW192268   8.148  12.590   6.811
96812SOL    HW292269   8.100  12.591   6.955
96813SOL     OW92270  12.685   7.890   1.760
96813SOL    HW192271  12.648   7.802   1.766
96813SOL    HW292272  12.620   7.940   1.711
96814SOL     OW92273   8.609  11.819   2.201
96814SOL    HW192274   8.609  11.754   2.131
96814SOL    HW292275   8.694  11.808   2.244
96815SOL     OW92276  12.056   9.511   1.075
96815SOL    HW192277  12.084   9.598   1.104
96815SOL    HW292278  12.134   9.473   1.034
96816SOL     OW92279   1.770  14.210   1.809
96816SOL    HW192280   1.677  14.233   1.812
96816SOL    HW292281   1.797  14.226   1.719
96817SOL     OW92282   2.656   5.162  11.497
96817SOL    HW192283   2.578   5.206  11.530
96817SOL    HW292284   2.695   5.120  11.574
96818SOL     OW92285  10.533   4.358   1.007
96818SOL    HW192286  10.601   4.382   1.070
96818SOL    HW292287  10.538   4.263   1.000
96819SOL     OW92288   3.245   4.336   6.992
96819SOL    HW192289   3.232   4.427   6.965
96819SOL    HW292290   3.191   4.326   7.070
96820SOL     OW92291   1.475   8.743  13.130
96820SOL    HW192292   1.500   8.763  13.221
96820SOL    HW292293   1.557   8.722  13.086
96821SOL     OW92294  13.406   9.130  13.606
96821SOL    HW192295  13.405   9.225  13.614
96821SOL    HW292296  13.374   9.112  13.518
96822SOL     OW92297   1.271   7.472  14.266
96822SOL    HW192298   1.302   7.411  14.333
96822SOL    HW292299   1.176   7.471  14.275
96823SOL     OW92300   3.584  13.163   2.349
96823SOL    HW192301   3.656  13.196   2.403
96823SOL    HW292302   3.626  13.128   2.271
96824SOL     OW92303  14.858   0.590   6.148
96824SOL    HW192304   0.042   0.554   6.089
96824SOL    HW292305  14.856   0.683   6.127
96825SOL     OW92306  12.573   5.082  12.056
96825SOL    HW192307  12.564   5.132  11.975
96825SOL    HW292308  12.603   4.996  12.026
96826SOL     OW92309   1.565  12.773   1.793
96826SOL    HW192310   1.563  12.748   1.701
96826SOL    HW292311   1.605  12.860   1.794
96827SOL     OW92312  12.096   3.999   2.026
96827SOL    HW192313  12.105   3.953   2.109
96827SOL    HW292314  12.179   4.045   2.014
96828SOL     OW92315   4.087   1.515  10.311
96828SOL    HW192316   4.107   1.511  10.404
96828SOL    HW292317   4.005   1.564  10.307
96829SOL     OW92318   9.881  14.202   3.203
96829SOL    HW192319   9.952  14.177   3.263
96829SOL    HW292320   9.848  14.119   3.170
96830SOL     OW92321   5.805  10.319   2.292
96830SOL    HW192322   5.896  10.295   2.306
96830SOL    HW292323   5.808  10.405   2.251
96831SOL     OW92324  12.123   0.039  10.753
96831SOL    HW192325  12.148   0.130  10.743
96831SOL    HW292326  12.201  14.871  10.725
96832SOL     OW92327   1.879   1.204   2.399
96832SOL    HW192328   1.926   1.129   2.363
96832SOL    HW292329   1.795   1.204   2.353
96833SOL     OW92330  12.623   5.350   6.082
96833SOL    HW192331  12.545   5.351   6.138
96833SOL    HW292332  12.656   5.440   6.085
96834SOL     OW92333   3.986   4.240   2.117
96834SOL    HW192334   4.048   4.239   2.044
96834SOL    HW292335   3.910   4.287   2.082
96835SOL     OW92336  12.410   8.330   9.735
96835SOL    HW192337  12.491   8.373   9.762
96835SOL    HW292338  12.370   8.300   9.816
96836SOL     OW92339   2.616   0.225   1.774
96836SOL    HW192340   2.697   0.174   1.779
96836SOL    HW292341   2.556   0.169   1.725
96837SOL     OW92342   2.878   9.103  14.239
96837SOL    HW192343   2.834   9.116  14.155
96837SOL    HW292344   2.964   9.145  14.227
96838SOL     OW92345   2.314   0.674  12.351
96838SOL    HW192346   2.331   0.668  12.445
96838SOL    HW292347   2.401   0.675  12.311
96839SOL     OW92348   3.180   8.723   4.585
96839SOL    HW192349   3.245   8.687   4.525
96839SOL    HW292350   3.149   8.803   4.542
96840SOL     OW92351  13.128   3.972   2.299
96840SOL    HW192352  13.081   4.054   2.319
96840SOL    HW292353  13.123   3.964   2.204
96841SOL     OW92354  11.070   6.311   4.975
96841SOL    HW192355  11.160   6.290   4.950
96841SOL    HW292356  11.078   6.389   5.030
96842SOL     OW92357   3.058   2.354   7.011
96842SOL    HW192358   3.044   2.337   7.104
96842SOL    HW292359   3.121   2.426   7.008
96843SOL     OW92360   2.302   9.104   0.030
96843SOL    HW192361   2.389   9.140   0.014
96843SOL    HW292362   2.245   9.156  14.856
96844SOL     OW92363   8.042  10.478  11.048
96844SOL    HW192364   7.969  10.432  11.006
96844SOL    HW292365   8.002  10.554  11.089
96845SOL     OW92366   7.235   9.906   4.447
96845SOL    HW192367   7.142   9.888   4.432
96845SOL    HW292368   7.259   9.848   4.519
96846SOL     OW92369   3.312  11.222   6.393
96846SOL    HW192370   3.232  11.220   6.340
96846SOL    HW292371   3.363  11.146   6.364
96847SOL     OW92372   2.139   4.357   6.454
96847SOL    HW192373   2.226   4.374   6.489
96847SOL    HW292374   2.088   4.435   6.479
96848SOL     OW92375  10.232   1.057   6.293
96848SOL    HW192376  10.178   1.048   6.214
96848SOL    HW292377  10.188   1.125   6.344
96849SOL     OW92378   9.688   7.160   1.505
96849SOL    HW192379   9.714   7.232   1.561
96849SOL    HW292380   9.645   7.097   1.564
96850SOL     OW92381  13.536  14.310   0.262
96850SOL    HW192382  13.588  14.362   0.202
96850SOL    HW292383  13.447  14.314   0.227
96851SOL     OW92384  13.982   1.050   3.825
96851SOL    HW192385  13.980   0.978   3.888
96851SOL    HW292386  14.037   1.117   3.866
96852SOL     OW92387   5.864   3.972   5.615
96852SOL    HW192388   5.781   3.939   5.581
96852SOL    HW292389   5.912   3.895   5.643
96853SOL     OW92390   4.624   6.683  10.915
96853SOL    HW192391   4.612   6.747  10.845
96853SOL    HW292392   4.714   6.697  10.945
96854SOL     OW92393  10.905   0.656   1.906
96854SOL    HW192394  10.993   0.619   1.899
96854SOL    HW292395  10.851   0.600   1.850
96855SOL     OW92396  11.997  14.249   5.472
96855SOL    HW192397  12.034  14.169   5.435
96855SOL    HW292398  11.911  14.224   5.503
96856SOL     OW92399   3.455  10.083   1.107
96856SOL    HW192400   3.496  10.117   1.028
96856SOL    HW292401   3.363  10.074   1.085
96857SOL     OW92402   2.820  13.349  11.575
96857SOL    HW192403   2.770  13.286  11.523
96857SOL    HW292404   2.821  13.312  11.663
96858SOL     OW92405  14.740   6.104   6.739
96858SOL    HW192406  14.735   6.155   6.658
96858SOL    HW292407  14.682   6.030   6.725
96859SOL     OW92408  11.990  14.003  13.172
96859SOL    HW192409  11.987  14.067  13.243
96859SOL    HW292410  12.067  14.028  13.120
96860SOL     OW92411   2.933  14.478  13.274
96860SOL    HW192412   2.925  14.445  13.184
96860SOL    HW292413   2.975  14.406  13.322
96861SOL     OW92414   2.470   5.579   6.782
96861SOL    HW192415   2.544   5.556   6.838
96861SOL    HW292416   2.405   5.510   6.798
96862SOL     OW92417  14.019   9.966   7.429
96862SOL    HW192418  14.097   9.925   7.391
96862SOL    HW292419  14.028   9.949   7.523
96863SOL     OW92420  12.313   4.219   2.029
96863SOL    HW192421  12.301   4.301   1.982
96863SOL    HW292422  12.393   4.181   1.992
96864SOL     OW92423   1.892   9.688  11.945
96864SOL    HW192424   1.973   9.647  11.915
96864SOL    HW292425   1.823   9.648  11.892
96865SOL     OW92426   3.276   4.517   7.552
96865SOL    HW192427   3.229   4.466   7.486
96865SOL    HW292428   3.234   4.603   7.550
96866SOL     OW92429   1.649  13.348   2.405
96866SOL    HW192430   1.589  13.328   2.333
96866SOL    HW292431   1.597  13.335   2.484
96867SOL     OW92432   3.798   1.606   3.877
96867SOL    HW192433   3.769   1.619   3.968
96867SOL    HW292434   3.866   1.671   3.864
96868SOL     OW92435  14.065   5.658  12.365
96868SOL    HW192436  14.076   5.726  12.299
96868SOL    HW292437  14.029   5.583  12.317
96869SOL     OW92438  14.673   2.585   6.563
96869SOL    HW192439  14.622   2.597   6.643
96869SOL    HW292440  14.629   2.514   6.516
96870SOL     OW92441   9.173  11.674  13.099
96870SOL    HW192442   9.145  11.589  13.134
96870SOL    HW292443   9.104  11.735  13.126
96871SOL     OW92444   8.339   1.733  12.072
96871SOL    HW192445   8.360   1.642  12.093
96871SOL    HW292446   8.328   1.734  11.977
96872SOL     OW92447   9.450  12.740   3.569
96872SOL    HW192448   9.503  12.660   3.576
96872SOL    HW292449   9.500  12.797   3.511
96873SOL     OW92450  14.436  13.510  13.165
96873SOL    HW192451  14.469  13.514  13.254
96873SOL    HW292452  14.341  13.522  13.174
96874SOL     OW92453  13.802   8.579  12.901
96874SOL    HW192454  13.734   8.557  12.837
96874SOL    HW292455  13.878   8.527  12.873
96875SOL     OW92456   2.266   2.236   4.051
96875SOL    HW192457   2.254   2.299   4.122
96875SOL    HW292458   2.207   2.164   4.072
96876SOL     OW92459  13.964   5.303   7.521
96876SOL    HW192460  13.968   5.220   7.473
96876SOL    HW292461  13.926   5.280   7.606
96877SOL     OW92462   3.721  13.704   5.456
96877SOL    HW192463   3.651  13.762   5.423
96877SOL    HW292464   3.708  13.703   5.551
96878SOL     OW92465   8.483   4.592  14.772
96878SOL    HW192466   8.563   4.643  14.777
96878SOL    HW292467   8.467   4.579  14.679
96879SOL     OW92468   2.825   3.757  12.997
96879SOL    HW192469   2.799   3.675  13.038
96879SOL    HW292470   2.846   3.816  13.070
96880SOL     OW92471  12.695   7.640   7.752
96880SOL    HW192472  12.617   7.695   7.740
96880SOL    HW292473  12.757   7.697   7.799
96881SOL     OW92474   4.592  13.701   0.398
96881SOL    HW192475   4.654  13.685   0.469
96881SOL    HW292476   4.638  13.760   0.339
96882SOL     OW92477  10.716   3.171  11.632
96882SOL    HW192478  10.622   3.183  11.613
96882SOL    HW292479  10.743   3.101  11.573
96883SOL     OW92480   7.065   4.824  12.941
96883SOL    HW192481   7.149   4.787  12.969
96883SOL    HW292482   7.025   4.855  13.022
96884SOL     OW92483   2.159   0.989   6.956
96884SOL    HW192484   2.114   1.071   6.976
96884SOL    HW292485   2.251   1.008   6.971
96885SOL     OW92486   8.456   0.718  11.960
96885SOL    HW192487   8.404   0.714  11.880
96885SOL    HW292488   8.393   0.705  12.031
96886SOL     OW92489   0.236  12.568   4.783
96886SOL    HW192490   0.327  12.578   4.810
96886SOL    HW292491   0.185  12.604   4.857
96887SOL     OW92492   9.957   3.731  12.072
96887SOL    HW192493   9.936   3.710  12.162
96887SOL    HW292494  10.053   3.730  12.069
96888SOL     OW92495  13.716   0.028  10.516
96888SOL    HW192496  13.690   0.059  10.429
96888SOL    HW292497  13.807   0.058  10.526
96889SOL     OW92498   4.833   4.415   3.304
96889SOL    HW192499   4.791   4.501   3.305
96889SOL    HW292500   4.784   4.365   3.239
96890SOL     OW92501   8.997   3.193   7.521
96890SOL    HW192502   9.023   3.283   7.543
96890SOL    HW292503   9.000   3.146   7.604
96891SOL     OW92504  11.355   1.312   9.368
96891SOL    HW192505  11.310   1.249   9.312
96891SOL    HW292506  11.441   1.274   9.385
96892SOL     OW92507   3.198   3.024   7.816
96892SOL    HW192508   3.255   3.094   7.849
96892SOL    HW292509   3.210   3.027   7.721
96893SOL     OW92510   2.114   4.898   3.562
96893SOL    HW192511   2.140   4.836   3.495
96893SOL    HW292512   2.113   4.847   3.643
96894SOL     OW92513  11.901   4.990   5.679
96894SOL    HW192514  11.959   5.023   5.610
96894SOL    HW292515  11.832   4.944   5.631
96895SOL     OW92516   7.997   0.594   9.638
96895SOL    HW192517   8.003   0.550   9.723
96895SOL    HW292518   8.083   0.635   9.627
96896SOL     OW92519   5.118   8.044   3.980
96896SOL    HW192520   5.193   8.103   3.992
96896SOL    HW292521   5.090   8.024   4.069
96897SOL     OW92522   1.304   7.936  12.028
96897SOL    HW192523   1.218   7.961  11.993
96897SOL    HW292524   1.353   8.018  12.032
96898SOL     OW92525   5.542  13.335   2.437
96898SOL    HW192526   5.509  13.246   2.444
96898SOL    HW292527   5.470  13.390   2.470
96899SOL     OW92528   8.512  12.813  14.189
96899SOL    HW192529   8.442  12.747  14.188
96899SOL    HW292530   8.468  12.894  14.216
96900SOL     OW92531   3.236   9.346   2.999
96900SOL    HW192532   3.147   9.381   3.001
96900SOL    HW292533   3.245   9.307   2.912
96901SOL     OW92534  10.029   8.902  13.970
96901SOL    HW192535  10.044   8.953  14.049
96901SOL    HW292536  10.091   8.829  13.975
96902SOL     OW92537   6.465   8.532  12.040
96902SOL    HW192538   6.439   8.599  11.977
96902SOL    HW292539   6.462   8.450  11.990
96903SOL     OW92540  11.952  13.612   3.668
96903SOL    HW192541  11.902  13.591   3.590
96903SOL    HW292542  11.926  13.701   3.690
96904SOL     OW92543   1.847  13.769   1.066
96904SOL    HW192544   1.892  13.809   1.140
96904SOL    HW292545   1.827  13.680   1.094
96905SOL     OW92546  12.459   6.522   0.225
96905SOL    HW192547  12.470   6.486   0.137
96905SOL    HW292548  12.541   6.499   0.270
96906SOL     OW92549  14.870   2.751   2.341
96906SOL    HW192550  14.807   2.816   2.308
96906SOL    HW292551   0.071   2.775   2.298
96907SOL     OW92552   0.301   6.257   4.377
96907SOL    HW192553   0.252   6.339   4.372
96907SOL    HW292554   0.280   6.221   4.464
96908SOL     OW92555  13.062   1.932  13.125
96908SOL    HW192556  13.090   1.885  13.204
96908SOL    HW292557  13.140   1.935  13.070
96909SOL     OW92558  12.186   4.799   3.910
96909SOL    HW192559  12.184   4.891   3.881
96909SOL    HW292560  12.098   4.784   3.945
96910SOL     OW92561  13.545   6.900   7.854
96910SOL    HW192562  13.529   6.992   7.872
96910SOL    HW292563  13.574   6.863   7.937
96911SOL     OW92564   7.315   6.923   1.569
96911SOL    HW192565   7.375   6.889   1.635
96911SOL    HW292566   7.293   7.011   1.599
96912SOL     OW92567   3.885  12.225   6.806
96912SOL    HW192568   3.908  12.138   6.774
96912SOL    HW292569   3.869  12.213   6.900
96913SOL     OW92570   3.095   6.562   8.185
96913SOL    HW192571   3.158   6.615   8.137
96913SOL    HW292572   3.125   6.566   8.276
96914SOL     OW92573   0.247   1.309   1.221
96914SOL    HW192574   0.259   1.378   1.155
96914SOL    HW292575   0.254   1.228   1.171
96915SOL     OW92576   2.462  12.872  12.761
96915SOL    HW192577   2.507  12.882  12.845
96915SOL    HW292578   2.512  12.928  12.701
96916SOL     OW92579   0.120   6.078   4.252
96916SOL    HW192580   0.201   6.127   4.263
96916SOL    HW292581   0.123   6.047   4.161
96917SOL     OW92582   3.940   6.218   4.215
96917SOL    HW192583   4.005   6.149   4.234
96917SOL    HW292584   3.879   6.214   4.288
96918SOL     OW92585   2.800   8.168  11.743
96918SOL    HW192586   2.880   8.174  11.795
96918SOL    HW292587   2.730   8.195  11.803
96919SOL     OW92588  10.589  13.670  10.780
96919SOL    HW192589  10.584  13.596  10.841
96919SOL    HW292590  10.581  13.748  10.836
96920SOL     OW92591   3.751  11.677   0.804
96920SOL    HW192592   3.714  11.723   0.729
96920SOL    HW292593   3.675  11.654   0.858
96921SOL     OW92594   8.966  13.245   7.121
96921SOL    HW192595   8.984  13.163   7.076
96921SOL    HW292596   8.901  13.222   7.188
96922SOL     OW92597   9.494   2.165   4.074
96922SOL    HW192598   9.435   2.213   4.134
96922SOL    HW292599   9.464   2.074   4.080
96923SOL     OW92600   2.506   0.574   4.418
96923SOL    HW192601   2.524   0.524   4.498
96923SOL    HW292602   2.417   0.606   4.429
96924SOL     OW92603  10.147   5.140   4.409
96924SOL    HW192604  10.167   5.201   4.338
96924SOL    HW292605  10.209   5.069   4.398
96925SOL     OW92606   8.846   7.976   7.617
96925SOL    HW192607   8.863   8.017   7.533
96925SOL    HW292608   8.786   7.904   7.597
96926SOL     OW92609  10.445   2.609   7.132
96926SOL    HW192610  10.525   2.562   7.156
96926SOL    HW292611  10.475   2.696   7.106
96927SOL     OW92612  13.352   8.045   6.045
96927SOL    HW192613  13.351   8.096   6.126
96927SOL    HW292614  13.433   8.069   6.002
96928SOL     OW92615   7.036  12.267  11.184
96928SOL    HW192616   7.020  12.351  11.227
96928SOL    HW292617   7.129  12.268  11.161
96929SOL     OW92618   8.182   0.870   9.140
96929SOL    HW192619   8.139   0.893   9.223
96929SOL    HW292620   8.145   0.931   9.076
96930SOL     OW92621   2.171   5.635   6.415
96930SOL    HW192622   2.128   5.602   6.336
96930SOL    HW292623   2.199   5.723   6.391
96931SOL     OW92624   1.782   2.938   1.808
96931SOL    HW192625   1.873   2.962   1.797
96931SOL    HW292626   1.784   2.845   1.831
96932SOL     OW92627  14.464   1.308   4.466
96932SOL    HW192628  14.541   1.257   4.490
96932SOL    HW292629  14.470   1.318   4.371
96933SOL     OW92630   4.472   9.688   7.642
96933SOL    HW192631   4.509   9.776   7.634
96933SOL    HW292632   4.419   9.691   7.721
96934SOL     OW92633   8.476  12.124   0.321
96934SOL    HW192634   8.563  12.104   0.354
96934SOL    HW292635   8.436  12.038   0.306
96935SOL     OW92636   7.475  12.865   4.215
96935SOL    HW192637   7.553  12.893   4.167
96935SOL    HW292638   7.503  12.859   4.306
96936SOL     OW92639  14.177  13.102   7.473
96936SOL    HW192640  14.100  13.095   7.416
96936SOL    HW292641  14.240  13.041   7.436
96937SOL     OW92642   4.235   0.161   5.358
96937SOL    HW192643   4.278   0.245   5.368
96937SOL    HW292644   4.182   0.151   5.436
96938SOL     OW92645   6.291   4.789   7.862
96938SOL    HW192646   6.305   4.858   7.796
96938SOL    HW292647   6.285   4.709   7.810
96939SOL     OW92648   0.983   3.651  12.632
96939SOL    HW192649   1.028   3.666  12.715
96939SOL    HW292650   1.036   3.698  12.567
96940SOL     OW92651   3.481   1.200   0.360
96940SOL    HW192652   3.488   1.122   0.305
96940SOL    HW292653   3.471   1.167   0.449
96941SOL     OW92654   6.349   3.438   7.346
96941SOL    HW192655   6.408   3.363   7.356
96941SOL    HW292656   6.351   3.482   7.431
96942SOL     OW92657   7.721  10.140  10.125
96942SOL    HW192658   7.742  10.047  10.117
96942SOL    HW292659   7.631  10.147  10.092
96943SOL     OW92660  11.138   9.898   6.581
96943SOL    HW192661  11.228   9.905   6.550
96943SOL    HW292662  11.105   9.988   6.579
96944SOL     OW92663   9.118  12.561   7.263
96944SOL    HW192664   9.177  12.552   7.188
96944SOL    HW292665   9.175  12.583   7.336
96945SOL     OW92666   3.299   8.002  13.958
96945SOL    HW192667   3.225   7.945  13.979
96945SOL    HW292668   3.374   7.943  13.952
96946SOL     OW92669   4.076   5.252  10.844
96946SOL    HW192670   4.003   5.230  10.786
96946SOL    HW292671   4.038   5.312  10.908
96947SOL     OW92672   3.498   6.691  10.363
96947SOL    HW192673   3.478   6.631  10.435
96947SOL    HW292674   3.530   6.635  10.293
96948SOL     OW92675   0.971   3.917   2.588
96948SOL    HW192676   0.884   3.904   2.552
96948SOL    HW292677   1.016   3.971   2.523
96949SOL     OW92678   1.824   0.829  11.426
96949SOL    HW192679   1.868   0.882  11.492
96949SOL    HW292680   1.894   0.804  11.365
96950SOL     OW92681   4.241   2.931   6.891
96950SOL    HW192682   4.172   2.993   6.916
96950SOL    HW292683   4.194   2.851   6.869
96951SOL     OW92684   6.424   2.458   5.848
96951SOL    HW192685   6.422   2.540   5.897
96951SOL    HW292686   6.398   2.482   5.759
96952SOL     OW92687   3.018   0.825  11.119
96952SOL    HW192688   3.093   0.770  11.140
96952SOL    HW292689   2.973   0.778  11.048
96953SOL     OW92690   6.922   6.415  12.107
96953SOL    HW192691   6.835   6.387  12.080
96953SOL    HW292692   6.928   6.390  12.200
96954SOL     OW92693  13.821   9.350   9.576
96954SOL    HW192694  13.731   9.317   9.573
96954SOL    HW292695  13.830   9.386   9.664
96955SOL     OW92696   5.751   0.502  13.671
96955SOL    HW192697   5.737   0.515  13.577
96955SOL    HW292698   5.663   0.485  13.706
96956SOL     OW92699   4.079   0.368   6.872
96956SOL    HW192700   4.148   0.315   6.913
96956SOL    HW292701   3.999   0.317   6.886
96957SOL     OW92702   8.660   9.032   3.247
96957SOL    HW192703   8.729   9.096   3.266
96957SOL    HW292704   8.596   9.081   3.195
96958SOL     OW92705   2.330  14.201   7.653
96958SOL    HW192706   2.339  14.204   7.558
96958SOL    HW292707   2.353  14.111   7.677
96959SOL     OW92708   7.007   2.848   0.124
96959SOL    HW192709   6.916   2.876   0.132
96959SOL    HW292710   7.005   2.754   0.142
96960SOL     OW92711   6.191  12.780  14.136
96960SOL    HW192712   6.178  12.687  14.114
96960SOL    HW292713   6.234  12.817  14.058
96961SOL     OW92714   6.067   7.037   1.474
96961SOL    HW192715   6.096   7.056   1.384
96961SOL    HW292716   6.106   6.951   1.493
96962SOL     OW92717  10.498   1.656   3.853
96962SOL    HW192718  10.537   1.569   3.844
96962SOL    HW292719  10.404   1.641   3.845
96963SOL     OW92720   7.364   1.594   0.196
96963SOL    HW192721   7.350   1.687   0.178
96963SOL    HW292722   7.405   1.561   0.116
96964SOL     OW92723   1.102  13.375  13.091
96964SOL    HW192724   1.135  13.435  13.024
96964SOL    HW292725   1.009  13.397  13.099
96965SOL     OW92726  11.911   3.259   4.246
96965SOL    HW192727  11.991   3.261   4.299
96965SOL    HW292728  11.866   3.341   4.267
96966SOL     OW92729   1.703   4.873   7.393
96966SOL    HW192730   1.640   4.849   7.326
96966SOL    HW292731   1.788   4.846   7.357
96967SOL     OW92732   6.760  12.500  14.157
96967SOL    HW192733   6.690  12.521  14.218
96967SOL    HW292734   6.719  12.504  14.070
96968SOL     OW92735   3.115  11.147  11.814
96968SOL    HW192736   3.039  11.204  11.813
96968SOL    HW292737   3.108  11.097  11.895
96969SOL     OW92738   3.987   3.129   8.289
96969SOL    HW192739   3.965   3.212   8.246
96969SOL    HW292740   3.999   3.067   8.217
96970SOL     OW92741   9.924  11.914   3.569
96970SOL    HW192742   9.833  11.943   3.566
96970SOL    HW292743   9.934  11.874   3.655
96971SOL     OW92744   5.863   3.278   1.007
96971SOL    HW192745   5.891   3.348   0.948
96971SOL    HW292746   5.844   3.322   1.090
96972SOL     OW92747   5.090   8.253  10.981
96972SOL    HW192748   5.005   8.297  10.972
96972SOL    HW292749   5.078   8.193  11.055
96973SOL     OW92750   4.296   3.255   0.357
96973SOL    HW192751   4.258   3.311   0.290
96973SOL    HW292752   4.286   3.166   0.323
96974SOL     OW92753  11.463   9.082   5.482
96974SOL    HW192754  11.425   9.168   5.496
96974SOL    HW292755  11.388   9.024   5.468
96975SOL     OW92756   1.348   3.233   2.954
96975SOL    HW192757   1.415   3.183   3.001
96975SOL    HW292758   1.396   3.283   2.888
96976SOL     OW92759  14.658   3.229   4.886
96976SOL    HW192760  14.564   3.218   4.874
96976SOL    HW292761  14.667   3.259   4.977
96977SOL     OW92762  10.074   1.501   0.643
96977SOL    HW192763  10.074   1.510   0.738
96977SOL    HW292764  10.137   1.566   0.612
96978SOL     OW92765   0.576   3.220   5.827
96978SOL    HW192766   0.619   3.176   5.900
96978SOL    HW292767   0.603   3.311   5.834
96979SOL     OW92768   9.274   3.269   3.015
96979SOL    HW192769   9.263   3.295   3.106
96979SOL    HW292770   9.341   3.201   3.017
96980SOL     OW92771  14.825  10.204   0.678
96980SOL    HW192772  14.855  10.118   0.707
96980SOL    HW292773  14.813  10.253   0.759
96981SOL     OW92774   6.244   8.464  12.807
96981SOL    HW192775   6.221   8.555  12.786
96981SOL    HW292776   6.339   8.462  12.804
96982SOL     OW92777   8.556   7.644  14.680
96982SOL    HW192778   8.554   7.549  14.675
96982SOL    HW292779   8.619   7.664  14.749
96983SOL     OW92780  10.204   4.880   8.129
96983SOL    HW192781  10.119   4.923   8.134
96983SOL    HW292782  10.265   4.943   8.167
96984SOL     OW92783   9.906   8.601   1.733
96984SOL    HW192784   9.894   8.626   1.642
96984SOL    HW292785   9.908   8.684   1.781
96985SOL     OW92786   3.944   5.921   7.065
96985SOL    HW192787   3.965   5.852   7.002
96985SOL    HW292788   3.869   5.965   7.028
96986SOL     OW92789  12.391   7.101  14.264
96986SOL    HW192790  12.369   7.138  14.349
96986SOL    HW292791  12.485   7.112  14.256
96987SOL     OW92792   6.457  14.696   2.714
96987SOL    HW192793   6.472  14.666   2.804
96987SOL    HW292794   6.480  14.620   2.660
96988SOL     OW92795   3.679   2.893   9.808
96988SOL    HW192796   3.745   2.955   9.778
96988SOL    HW292797   3.691   2.816   9.753
96989SOL     OW92798  14.825   7.786   5.177
96989SOL    HW192799   0.016   7.775   5.116
96989SOL    HW292800  14.865   7.776   5.264
96990SOL     OW92801   1.412  12.518  13.058
96990SOL    HW192802   1.490  12.569  13.034
96990SOL    HW292803   1.354  12.581  13.100
96991SOL     OW92804   4.541   8.954   7.694
96991SOL    HW192805   4.635   8.970   7.704
96991SOL    HW292806   4.523   8.970   7.602
96992SOL     OW92807  12.631  12.121   0.796
96992SOL    HW192808  12.578  12.062   0.742
96992SOL    HW292809  12.636  12.078   0.881
96993SOL     OW92810   9.293   7.698   9.990
96993SOL    HW192811   9.245   7.709   9.907
96993SOL    HW292812   9.300   7.603  10.001
96994SOL     OW92813   9.187  13.297   2.949
96994SOL    HW192814   9.241  13.354   3.004
96994SOL    HW292815   9.235  13.215   2.944
96995SOL     OW92816  10.055  13.628   3.631
96995SOL    HW192817  10.103  13.698   3.676
96995SOL    HW292818  10.040  13.662   3.543
96996SOL     OW92819  14.054   6.801  10.171
96996SOL    HW192820  13.983   6.844  10.122
96996SOL    HW292821  14.013   6.721  10.205
96997SOL     OW92822   8.895  10.565  12.093
96997SOL    HW192823   8.972  10.561  12.150
96997SOL    HW292824   8.841  10.492  12.121
96998SOL     OW92825   4.242  10.140   3.076
96998SOL    HW192826   4.220  10.233   3.071
96998SOL    HW292827   4.330  10.135   3.040
96999SOL     OW92828   9.028   5.855   0.162
96999SOL    HW192829   9.070   5.901   0.235
96999SOL    HW292830   9.014   5.766   0.195
97000SOL     OW92831   4.672   5.472  11.767
97000SOL    HW192832   4.596   5.463  11.710
97000SOL    HW292833   4.674   5.565  11.791
97001SOL     OW92834   4.683  10.509   9.748
97001SOL    HW192835   4.730  10.590   9.767
97001SOL    HW292836   4.645  10.523   9.661
97002SOL     OW92837   6.669   9.684   3.870
97002SOL    HW192838   6.642   9.680   3.962
97002SOL    HW292839   6.757   9.721   3.872
97003SOL     OW92840   0.374   5.629  11.242
97003SOL    HW192841   0.414   5.546  11.267
97003SOL    HW292842   0.446   5.681  11.206
97004SOL     OW92843  12.613   8.474  13.576
97004SOL    HW192844  12.647   8.456  13.664
97004SOL    HW292845  12.565   8.556  13.586
97005SOL     OW92846  10.865   0.507  12.962
97005SOL    HW192847  10.920   0.579  12.995
97005SOL    HW292848  10.863   0.444  13.034
97006SOL     OW92849   4.412  14.662  11.075
97006SOL    HW192850   4.356  14.649  11.152
97006SOL    HW292851   4.352  14.650  11.001
97007SOL     OW92852  14.138  13.606   2.246
97007SOL    HW192853  14.119  13.572   2.333
97007SOL    HW292854  14.094  13.544   2.187
97008SOL     OW92855   9.750   2.215  12.143
97008SOL    HW192856   9.742   2.272  12.220
97008SOL    HW292857   9.664   2.220  12.101
97009SOL     OW92858   9.411  11.444  10.075
97009SOL    HW192859   9.409  11.442  10.171
97009SOL    HW292860   9.364  11.523  10.052
97010SOL     OW92861   1.577   0.370   2.142
97010SOL    HW192862   1.542   0.283   2.123
97010SOL    HW292863   1.665   0.368   2.105
97011SOL     OW92864  14.148   2.936  12.825
97011SOL    HW192865  14.075   2.892  12.782
97011SOL    HW292866  14.174   3.006  12.764
97012SOL     OW92867   6.505  12.515   9.716
97012SOL    HW192868   6.422  12.555   9.690
97012SOL    HW292869   6.498  12.508   9.811
97013SOL     OW92870  13.722   8.839  14.740
97013SOL    HW192871  13.723   8.860  14.833
97013SOL    HW292872  13.629   8.838  14.717
97014SOL     OW92873   4.412   0.364   3.973
97014SOL    HW192874   4.484   0.324   4.021
97014SOL    HW292875   4.333   0.330   4.015
97015SOL     OW92876  11.920   8.510  10.747
97015SOL    HW192877  11.991   8.447  10.732
97015SOL    HW292878  11.853   8.487  10.683
97016SOL     OW92879  12.450   7.524  12.243
97016SOL    HW192880  12.518   7.456  12.254
97016SOL    HW292881  12.439   7.561  12.331
97017SOL     OW92882   6.244   7.659  14.244
97017SOL    HW192883   6.303   7.729  14.216
97017SOL    HW292884   6.156   7.690  14.219
97018SOL     OW92885   8.190  14.128  12.009
97018SOL    HW192886   8.272  14.118  11.960
97018SOL    HW292887   8.157  14.038  12.018
97019SOL     OW92888   6.384   5.311   6.993
97019SOL    HW192889   6.458   5.254   7.014
97019SOL    HW292890   6.372   5.302   6.899
97020SOL     OW92891  12.818  14.297   1.031
97020SOL    HW192892  12.863  14.381   1.024
97020SOL    HW292893  12.861  14.241   0.967
97021SOL     OW92894  13.557   2.217   5.482
97021SOL    HW192895  13.479   2.237   5.430
97021SOL    HW292896  13.628   2.262   5.436
97022SOL     OW92897   0.341   5.428   3.807
97022SOL    HW192898   0.434   5.433   3.784
97022SOL    HW292899   0.339   5.447   3.901
97023SOL     OW92900   2.609   5.921   0.669
97023SOL    HW192901   2.559   5.907   0.589
97023SOL    HW292902   2.597   6.014   0.689
97024SOL     OW92903   4.920  13.084   8.622
97024SOL    HW192904   4.922  13.099   8.528
97024SOL    HW292905   4.957  13.163   8.660
97025SOL     OW92906  13.281   6.683   0.636
97025SOL    HW192907  13.324   6.600   0.618
97025SOL    HW292908  13.207   6.661   0.692
97026SOL     OW92909   4.412  13.149   6.279
97026SOL    HW192910   4.434  13.173   6.189
97026SOL    HW292911   4.426  13.229   6.329
97027SOL     OW92912   7.540   2.465   8.138
97027SOL    HW192913   7.592   2.483   8.059
97027SOL    HW292914   7.451   2.451   8.104
97028SOL     OW92915   3.844  13.366   3.578
97028SOL    HW192916   3.862  13.460   3.585
97028SOL    HW292917   3.875  13.342   3.491
97029SOL     OW92918   9.212  13.000  12.922
97029SOL    HW192919   9.153  13.025  12.993
97029SOL    HW292920   9.219  13.078  12.868
97030SOL     OW92921   9.699   7.773   8.565
97030SOL    HW192922   9.771   7.751   8.505
97030SOL    HW292923   9.642   7.696   8.562
97031SOL     OW92924  13.501   9.748  14.055
97031SOL    HW192925  13.421   9.696  14.068
97031SOL    HW292926  13.470   9.839  14.056
97032SOL     OW92927  14.009   8.197   5.880
97032SOL    HW192928  14.038   8.211   5.970
97032SOL    HW292929  14.002   8.102   5.871
97033SOL     OW92930   5.812  14.723   7.436
97033SOL    HW192931   5.748  14.668   7.392
97033SOL    HW292932   5.761  14.794   7.475
97034SOL     OW92933   2.734  12.259   6.390
97034SOL    HW192934   2.740  12.317   6.315
97034SOL    HW292935   2.716  12.317   6.464
97035SOL     OW92936   3.987  14.528   7.233
97035SOL    HW192937   3.924  14.553   7.165
97035SOL    HW292938   4.073  14.543   7.193
97036SOL     OW92939   1.652   9.971  14.844
97036SOL    HW192940   1.638  10.010  14.758
97036SOL    HW292941   1.565   9.941  14.871
97037SOL     OW92942  12.741   5.969  10.507
97037SOL    HW192943  12.807   6.037  10.499
97037SOL    HW292944  12.698   5.987  10.590
97038SOL     OW92945  12.225  14.420   0.415
97038SOL    HW192946  12.226  14.489   0.348
97038SOL    HW292947  12.200  14.341   0.367
97039SOL     OW92948   3.632  12.705   6.245
97039SOL    HW192949   3.607  12.679   6.333
97039SOL    HW292950   3.694  12.638   6.216
97040SOL     OW92951   4.651  13.609   4.694
97040SOL    HW192952   4.593  13.542   4.729
97040SOL    HW292953   4.737  13.589   4.731
97041SOL     OW92954   5.594   7.609  11.709
97041SOL    HW192955   5.593   7.651  11.623
97041SOL    HW292956   5.611   7.680  11.770
97042SOL     OW92957   9.808  13.871   6.519
97042SOL    HW192958   9.733  13.902   6.470
97042SOL    HW292959   9.798  13.908   6.607
97043SOL     OW92960   4.782   0.204   3.473
97043SOL    HW192961   4.873   0.224   3.455
97043SOL    HW292962   4.780   0.110   3.487
97044SOL     OW92963  10.957   2.007   4.958
97044SOL    HW192964  10.880   1.968   4.999
97044SOL    HW292965  11.031   1.974   5.009
97045SOL     OW92966  10.833   8.667   9.793
97045SOL    HW192967  10.779   8.745   9.779
97045SOL    HW292968  10.773   8.601   9.825
97046SOL     OW92969   5.761   7.470   3.054
97046SOL    HW192970   5.757   7.396   3.115
97046SOL    HW292971   5.700   7.534   3.092
97047SOL     OW92972  13.938   7.764   9.116
97047SOL    HW192973  14.017   7.800   9.158
97047SOL    HW292974  13.869   7.776   9.180
97048SOL     OW92975   0.298   4.153   1.574
97048SOL    HW192976   0.227   4.199   1.528
97048SOL    HW292977   0.259   4.071   1.602
97049SOL     OW92978   4.679   1.863   5.399
97049SOL    HW192979   4.747   1.928   5.416
97049SOL    HW292980   4.687   1.801   5.472
97050SOL     OW92981  11.428  10.393  12.829
97050SOL    HW192982  11.444  10.301  12.812
97050SOL    HW292983  11.511  10.426  12.864
97051SOL     OW92984   8.821  13.599  12.566
97051SOL    HW192985   8.906  13.637  12.544
97051SOL    HW292986   8.827  13.508  12.538
97052SOL     OW92987  12.995   9.520   0.864
97052SOL    HW192988  13.046   9.580   0.809
97052SOL    HW292989  13.029   9.532   0.952
97053SOL     OW92990   7.310  13.743   7.613
97053SOL    HW192991   7.269  13.727   7.698
97053SOL    HW292992   7.283  13.669   7.559
97054SOL     OW92993   1.498   3.109   5.675
97054SOL    HW192994   1.567   3.135   5.615
97054SOL    HW292995   1.459   3.192   5.704
97055SOL     OW92996  12.052  14.072   4.356
97055SOL    HW192997  12.000  13.991   4.346
97055SOL    HW292998  11.992  14.142   4.329
97056SOL     OW92999   9.851  12.135   1.020
97056SOL    HW193000   9.894  12.079   1.085
97056SOL    HW293001   9.774  12.085   0.993
97057SOL     OW93002   5.051   7.404   3.588
97057SOL    HW193003   5.112   7.385   3.660
97057SOL    HW293004   4.966   7.376   3.622
97058SOL     OW93005   9.913   0.961   6.841
97058SOL    HW193006   9.919   1.056   6.850
97058SOL    HW293007   9.963   0.941   6.762
97059SOL     OW93008  12.065   8.482   6.364
97059SOL    HW193009  12.134   8.511   6.303
97059SOL    HW293010  12.109   8.479   6.449
97060SOL     OW93011   4.488   9.400   8.218
97060SOL    HW193012   4.416   9.428   8.162
97060SOL    HW293013   4.547   9.475   8.221
97061SOL     OW93014  14.839  11.117   8.578
97061SOL    HW193015  14.756  11.129   8.623
97061SOL    HW293016  14.817  11.076   8.494
97062SOL     OW93017   8.890  11.869   5.933
97062SOL    HW193018   8.841  11.817   5.997
97062SOL    HW293019   8.822  11.906   5.876
97063SOL     OW93020  13.366  12.052  10.283
97063SOL    HW193021  13.292  12.037  10.225
97063SOL    HW293022  13.429  11.984  10.258
97064SOL     OW93023   9.274   2.547  14.011
97064SOL    HW193024   9.269   2.483  13.940
97064SOL    HW293025   9.367   2.551  14.033
97065SOL     OW93026   4.524   4.709   1.012
97065SOL    HW193027   4.506   4.799   0.984
97065SOL    HW293028   4.453   4.688   1.073
97066SOL     OW93029   3.250   9.663   8.824
97066SOL    HW193030   3.333   9.623   8.849
97066SOL    HW293031   3.271   9.755   8.811
97067SOL     OW93032  12.340  10.834  13.561
97067SOL    HW193033  12.366  10.926  13.566
97067SOL    HW293034  12.326  10.808  13.652
97068SOL     OW93035   5.755   7.355   7.516
97068SOL    HW193036   5.740   7.272   7.471
97068SOL    HW293037   5.670   7.399   7.514
97069SOL     OW93038   5.448   5.803  10.430
97069SOL    HW193039   5.364   5.797  10.475
97069SOL    HW293040   5.451   5.724  10.376
97070SOL     OW93041   9.448   2.280   0.034
97070SOL    HW193042   9.368   2.330   0.050
97070SOL    HW293043   9.452   2.218   0.107
97071SOL     OW93044   7.720  11.827   7.232
97071SOL    HW193045   7.682  11.832   7.319
97071SOL    HW293046   7.644  11.820   7.173
97072SOL     OW93047   0.180   5.792   1.885
97072SOL    HW193048   0.153   5.750   1.804
97072SOL    HW293049   0.159   5.885   1.872
97073SOL     OW93050   7.221   7.880   8.634
97073SOL    HW193051   7.172   7.821   8.692
97073SOL    HW293052   7.307   7.888   8.676
97074SOL     OW93053   7.600   1.988  13.462
97074SOL    HW193054   7.669   1.963  13.523
97074SOL    HW293055   7.644   1.996  13.378
97075SOL     OW93056   1.910   6.509   5.722
97075SOL    HW193057   1.938   6.572   5.789
97075SOL    HW293058   1.982   6.446   5.716
97076SOL     OW93059  12.258   9.301   9.587
97076SOL    HW193060  12.247   9.358   9.663
97076SOL    HW293061  12.280   9.215   9.624
97077SOL     OW93062   8.964   4.109   4.401
97077SOL    HW193063   8.985   4.116   4.494
97077SOL    HW293064   8.927   4.022   4.391
97078SOL     OW93065  10.276   5.747   0.523
97078SOL    HW193066  10.208   5.750   0.590
97078SOL    HW293067  10.306   5.837   0.515
97079SOL     OW93068   2.275   3.012   0.093
97079SOL    HW193069   2.296   2.953   0.165
97079SOL    HW293070   2.359   3.050   0.067
97080SOL     OW93071   5.213  14.805   1.517
97080SOL    HW193072   5.213   0.019   1.526
97080SOL    HW293073   5.130  14.786   1.475
97081SOL     OW93074  14.087   9.612   0.502
97081SOL    HW193075  14.066   9.526   0.466
97081SOL    HW293076  14.028   9.622   0.576
97082SOL     OW93077  13.949   0.839   6.312
97082SOL    HW193078  13.884   0.873   6.251
97082SOL    HW293079  14.020   0.903   6.310
97083SOL     OW93080  12.184  10.942   4.065
97083SOL    HW193081  12.146  10.856   4.046
97083SOL    HW293082  12.136  11.002   4.008
97084SOL     OW93083   4.603   2.579  10.547
97084SOL    HW193084   4.655   2.503  10.574
97084SOL    HW293085   4.645   2.654  10.588
97085SOL     OW93086   2.050   7.900  14.504
97085SOL    HW193087   1.982   7.833  14.507
97085SOL    HW293088   2.102   7.886  14.584
97086SOL     OW93089   0.790   9.764   8.005
97086SOL    HW193090   0.698   9.738   8.004
97086SOL    HW293091   0.817   9.754   8.097
97087SOL     OW93092  11.851  11.593  12.318
97087SOL    HW193093  11.759  11.583  12.343
97087SOL    HW293094  11.848  11.643  12.236
97088SOL     OW93095  12.311   1.743   0.167
97088SOL    HW193096  12.313   1.788   0.252
97088SOL    HW293097  12.218   1.735   0.146
97089SOL     OW93098   3.015   2.406  14.548
97089SOL    HW193099   2.988   2.392  14.457
97089SOL    HW293100   2.960   2.478  14.579
97090SOL     OW93101  10.514  12.774   1.291
97090SOL    HW193102  10.495  12.809   1.204
97090SOL    HW293103  10.428  12.754   1.328
97091SOL     OW93104   2.414  11.465   8.993
97091SOL    HW193105   2.458  11.512   9.063
97091SOL    HW293106   2.460  11.381   8.989
97092SOL     OW93107  10.085   5.288   9.764
97092SOL    HW193108  10.009   5.230   9.767
97092SOL    HW293109  10.113   5.295   9.855
97093SOL     OW93110   4.977   3.051   5.965
97093SOL    HW193111   4.993   3.032   6.058
97093SOL    HW293112   4.956   3.145   5.964
97094SOL     OW93113  13.555   4.699  12.488
97094SOL    HW193114  13.588   4.712  12.399
97094SOL    HW293115  13.536   4.787  12.520
97095SOL     OW93116   7.242  10.162   0.649
97095SOL    HW193117   7.229  10.221   0.576
97095SOL    HW293118   7.324  10.116   0.629
97096SOL     OW93119   6.073   6.470  13.238
97096SOL    HW193120   6.151   6.525  13.230
97096SOL    HW293121   6.101   6.396  13.291
97097SOL     OW93122   5.012   8.799  10.287
97097SOL    HW193123   5.047   8.882  10.319
97097SOL    HW293124   5.076   8.768  10.223
97098SOL     OW93125   6.974   7.139  14.846
97098SOL    HW193126   6.894   7.184  14.818
97098SOL    HW293127   6.944   7.054  14.878
97099SOL     OW93128   7.136  11.145   9.477
97099SOL    HW193129   7.087  11.077   9.431
97099SOL    HW293130   7.206  11.170   9.417
97100SOL     OW93131   0.384   2.770  14.383
97100SOL    HW193132   0.421   2.842  14.434
97100SOL    HW293133   0.367   2.807  14.296
97101SOL     OW93134   6.911  12.507   7.906
97101SOL    HW193135   6.851  12.500   7.832
97101SOL    HW293136   6.882  12.584   7.954
97102SOL     OW93137   7.989  10.300  13.626
97102SOL    HW193138   7.924  10.353  13.579
97102SOL    HW293139   7.937  10.231  13.668
97103SOL     OW93140   8.970   5.703   7.599
97103SOL    HW193141   9.027   5.629   7.620
97103SOL    HW293142   8.984   5.718   7.506
97104SOL     OW93143  12.716   3.265   0.371
97104SOL    HW193144  12.802   3.243   0.334
97104SOL    HW293145  12.699   3.354   0.339
97105SOL     OW93146  12.076   5.971   9.357
97105SOL    HW193147  12.121   5.899   9.400
97105SOL    HW293148  12.106   5.966   9.266
97106SOL     OW93149   1.125   9.193  12.041
97106SOL    HW193150   1.111   9.220  12.131
97106SOL    HW293151   1.047   9.142  12.018
97107SOL     OW93152   0.353   9.713  11.074
97107SOL    HW193153   0.291   9.642  11.055
97107SOL    HW293154   0.309   9.765  11.141
97108SOL     OW93155   2.170  10.734   9.007
97108SOL    HW193156   2.114  10.811   8.998
97108SOL    HW293157   2.111  10.659   8.998
97109SOL     OW93158  11.495   1.654   2.791
97109SOL    HW193159  11.463   1.727   2.845
97109SOL    HW293160  11.468   1.677   2.702
97110SOL     OW93161  11.973   6.288  13.995
97110SOL    HW193162  12.037   6.254  14.057
97110SOL    HW293163  11.982   6.383  14.001
97111SOL     OW93164   8.351   8.429   6.621
97111SOL    HW193165   8.284   8.399   6.559
97111SOL    HW293166   8.314   8.509   6.659
97112SOL     OW93167   6.471  10.225  10.096
97112SOL    HW193168   6.397  10.281  10.120
97112SOL    HW293169   6.526  10.223  10.174
97113SOL     OW93170   5.756   0.400   2.086
97113SOL    HW193171   5.709   0.336   2.141
97113SOL    HW293172   5.842   0.361   2.072
97114SOL     OW93173  14.378   4.299  14.164
97114SOL    HW193174  14.444   4.316  14.097
97114SOL    HW293175  14.410   4.346  14.242
97115SOL     OW93176   2.248   3.711   8.396
97115SOL    HW193177   2.277   3.631   8.352
97115SOL    HW293178   2.182   3.682   8.458
97116SOL     OW93179   3.451   2.531   0.910
97116SOL    HW193180   3.486   2.550   0.997
97116SOL    HW293181   3.429   2.438   0.913
97117SOL     OW93182   8.007  10.098  14.028
97117SOL    HW193183   8.043  10.027  13.974
97117SOL    HW293184   8.063  10.099  14.106
97118SOL     OW93185  11.034   8.943   7.646
97118SOL    HW193186  11.081   8.908   7.721
97118SOL    HW293187  11.099   8.944   7.575
97119SOL     OW93188  14.501   9.411  14.654
97119SOL    HW193189  14.432   9.373  14.599
97119SOL    HW293190  14.525   9.493  14.609
97120SOL     OW93191   2.590   1.306   0.668
97120SOL    HW193192   2.621   1.240   0.605
97120SOL    HW293193   2.633   1.387   0.641
97121SOL     OW93194  13.782   1.822   8.728
97121SOL    HW193195  13.736   1.863   8.801
97121SOL    HW293196  13.843   1.889   8.697
97122SOL     OW93197  14.381  14.599   3.131
97122SOL    HW193198  14.298  14.613   3.086
97122SOL    HW293199  14.368  14.638   3.218
97123SOL     OW93200   1.476   5.637   7.344
97123SOL    HW193201   1.537   5.589   7.287
97123SOL    HW293202   1.526   5.713   7.374
97124SOL     OW93203  10.277  14.807  12.754
97124SOL    HW193204  10.197  14.784  12.801
97124SOL    HW293205  10.258   0.009  12.712
97125SOL     OW93206   9.280   3.194  11.836
97125SOL    HW193207   9.301   3.278  11.877
97125SOL    HW293208   9.188   3.180  11.857
97126SOL     OW93209   0.336   2.058  10.055
97126SOL    HW193210   0.400   2.094  10.116
97126SOL    HW293211   0.381   1.986  10.012
97127SOL     OW93212   8.338  10.511  13.803
97127SOL    HW193213   8.260  10.508  13.748
97127SOL    HW293214   8.398  10.448  13.764
97128SOL     OW93215   9.263   8.058  13.474
97128SOL    HW193216   9.308   7.973  13.476
97128SOL    HW293217   9.282   8.097  13.559
97129SOL     OW93218   5.897  14.530  14.514
97129SOL    HW193219   5.974  14.581  14.538
97129SOL    HW293220   5.915  14.443  14.550
97130SOL     OW93221   5.683  14.468   8.206
97130SOL    HW193222   5.757  14.475   8.146
97130SOL    HW293223   5.722  14.442   8.290
97131SOL     OW93224  10.321   0.400   1.139
97131SOL    HW193225  10.287   0.313   1.157
97131SOL    HW293226  10.413   0.397   1.166
97132SOL     OW93227   6.255  12.068   7.052
97132SOL    HW193228   6.203  12.132   7.101
97132SOL    HW293229   6.224  11.983   7.083
97133SOL     OW93230  14.383   1.009  14.530
97133SOL    HW193231  14.438   1.087  14.525
97133SOL    HW293232  14.365   0.999  14.624
97134SOL     OW93233   0.861   8.215  13.428
97134SOL    HW193234   0.787   8.158  13.407
97134SOL    HW293235   0.934   8.178  13.377
97135SOL     OW93236   1.459   7.086  14.731
97135SOL    HW193237   1.534   7.139  14.703
97135SOL    HW293238   1.480   7.062  14.822
97136SOL     OW93239  14.414   0.078  14.523
97136SOL    HW193240  14.332   0.056  14.479
97136SOL    HW293241  14.473   0.104  14.452
97137SOL     OW93242   6.084   2.547   5.070
97137SOL    HW193243   6.051   2.632   5.041
97137SOL    HW293244   6.005   2.494   5.081
97138SOL     OW93245   4.080  10.420  13.019
97138SOL    HW193246   4.011  10.476  13.055
97138SOL    HW293247   4.036  10.338  12.998
97139SOL     OW93248  11.764   3.073   5.237
97139SOL    HW193249  11.736   3.057   5.327
97139SOL    HW293250  11.822   3.000   5.216
97140SOL     OW93251  10.666   6.819   6.361
97140SOL    HW193252  10.619   6.870   6.296
97140SOL    HW293253  10.755   6.812   6.326
97141SOL     OW93254   3.302  12.688   3.820
97141SOL    HW193255   3.234  12.740   3.778
97141SOL    HW293256   3.256  12.640   3.889
97142SOL     OW93257   4.965   6.817  13.123
97142SOL    HW193258   4.996   6.732  13.090
97142SOL    HW293259   4.967   6.808  13.218
97143SOL     OW93260   6.384   4.477  10.387
97143SOL    HW193261   6.403   4.406  10.449
97143SOL    HW293262   6.317   4.529  10.431
97144SOL     OW93263  12.701   2.908   1.608
97144SOL    HW193264  12.609   2.936   1.600
97144SOL    HW293265  12.696   2.822   1.649
97145SOL     OW93266   0.105   9.954   7.185
97145SOL    HW193267   0.058   9.901   7.121
97145SOL    HW293268   0.075  10.044   7.169
97146SOL     OW93269   1.786   9.813  12.789
97146SOL    HW193270   1.705   9.763  12.776
97146SOL    HW293271   1.828   9.815  12.702
97147SOL     OW93272   2.355   6.459  10.833
97147SOL    HW193273   2.292   6.485  10.901
97147SOL    HW293274   2.305   6.406  10.772
97148SOL     OW93275   4.364  13.288   0.177
97148SOL    HW193276   4.421  13.218   0.208
97148SOL    HW293277   4.401  13.368   0.214
97149SOL     OW93278   8.308   0.610   1.116
97149SOL    HW193279   8.321   0.701   1.141
97149SOL    HW293280   8.215   0.604   1.094
97150SOL     OW93281   8.807   4.188   5.487
97150SOL    HW193282   8.885   4.243   5.498
97150SOL    HW293283   8.745   4.244   5.440
97151SOL     OW93284   7.679  10.033  13.883
97151SOL    HW193285   7.656   9.956  13.830
97151SOL    HW293286   7.624  10.026  13.960
97152SOL     OW93287  11.154   7.362   1.926
97152SOL    HW193288  11.211   7.354   1.850
97152SOL    HW293289  11.208   7.403   1.993
97153SOL     OW93290  13.918   3.997   7.698
97153SOL    HW193291  13.992   4.043   7.738
97153SOL    HW293292  13.870   3.960   7.772
97154SOL     OW93293  14.665   3.595   5.701
97154SOL    HW193294  14.738   3.538   5.725
97154SOL    HW293295  14.702   3.684   5.701
97155SOL     OW93296   8.406   3.712   2.147
97155SOL    HW193297   8.360   3.636   2.110
97155SOL    HW293298   8.346   3.746   2.214
97156SOL     OW93299  14.279  10.947   0.750
97156SOL    HW193300  14.298  10.986   0.836
97156SOL    HW293301  14.254  10.857   0.770
97157SOL     OW93302  10.902  10.404  14.817
97157SOL    HW193303  10.882  10.378  14.728
97157SOL    HW293304  10.858  10.488  14.829
97158SOL     OW93305  10.373   9.264   8.362
97158SOL    HW193306  10.461   9.229   8.348
97158SOL    HW293307  10.346   9.228   8.447
97159SOL     OW93308   4.614   8.675  11.330
97159SOL    HW193309   4.604   8.591  11.374
97159SOL    HW293310   4.526   8.696  11.298
97160SOL     OW93311  11.028   8.820   0.322
97160SOL    HW193312  11.066   8.901   0.355
97160SOL    HW293313  10.940   8.844   0.294
97161SOL     OW93314   2.365   9.089  11.915
97161SOL    HW193315   2.415   9.053  11.842
97161SOL    HW293316   2.358   9.016  11.977
97162SOL     OW93317  10.484   0.962  14.726
97162SOL    HW193318  10.403   0.928  14.764
97162SOL    HW293319  10.494   0.915  14.644
97163SOL     OW93320   5.205   0.394  10.540
97163SOL    HW193321   5.286   0.359  10.504
97163SOL    HW293322   5.167   0.321  10.590
97164SOL     OW93323  14.018  14.048   1.651
97164SOL    HW193324  13.993  14.116   1.589
97164SOL    HW293325  14.034  14.095   1.733
97165SOL     OW93326  11.360  12.855   6.799
97165SOL    HW193327  11.355  12.803   6.719
97165SOL    HW293328  11.356  12.946   6.769
97166SOL     OW93329  11.378   7.368  14.495
97166SOL    HW193330  11.384   7.464  14.492
97166SOL    HW293331  11.362   7.348  14.587
97167SOL     OW93332  10.993  11.013   0.400
97167SOL    HW193333  11.004  10.927   0.441
97167SOL    HW293334  10.966  10.994   0.310
97168SOL     OW93335   4.800   5.208   8.832
97168SOL    HW193336   4.755   5.196   8.748
97168SOL    HW293337   4.794   5.302   8.849
97169SOL     OW93338   5.410   8.675  13.457
97169SOL    HW193339   5.463   8.753  13.440
97169SOL    HW293340   5.436   8.646  13.544
97170SOL     OW93341   5.882  13.810  10.313
97170SOL    HW193342   5.852  13.774  10.396
97170SOL    HW293343   5.803  13.823  10.261
97171SOL     OW93344   6.908   5.237  12.764
97171SOL    HW193345   6.957   5.156  12.751
97171SOL    HW293346   6.840   5.235  12.696
97172SOL     OW93347   7.783  11.985   2.951
97172SOL    HW193348   7.811  11.994   2.860
97172SOL    HW293349   7.747  11.896   2.956
97173SOL     OW93350   1.725   8.273   1.055
97173SOL    HW193351   1.735   8.310   0.968
97173SOL    HW293352   1.657   8.206   1.045
97174SOL     OW93353   2.547   6.857   1.397
97174SOL    HW193354   2.460   6.872   1.361
97174SOL    HW293355   2.593   6.807   1.329
97175SOL     OW93356   1.799   4.047   9.783
97175SOL    HW193357   1.870   4.051   9.719
97175SOL    HW293358   1.747   4.126   9.766
97176SOL     OW93359   6.839   1.642  13.581
97176SOL    HW193360   6.788   1.626  13.502
97176SOL    HW293361   6.784   1.607  13.652
97177SOL     OW93362  14.140   7.998   6.142
97177SOL    HW193363  14.082   7.951   6.201
97177SOL    HW293364  14.108   8.088   6.144
97178SOL     OW93365   6.016  13.892   6.699
97178SOL    HW193366   5.948  13.951   6.665
97178SOL    HW293367   6.066  13.945   6.760
97179SOL     OW93368   0.745   3.255   9.682
97179SOL    HW193369   0.702   3.269   9.766
97179SOL    HW293370   0.682   3.286   9.617
97180SOL     OW93371  14.163   1.189   5.857
97180SOL    HW193372  14.239   1.238   5.888
97180SOL    HW293373  14.162   1.204   5.763
97181SOL     OW93374   4.294   1.326   6.353
97181SOL    HW193375   4.368   1.386   6.338
97181SOL    HW293376   4.334   1.239   6.357
97182SOL     OW93377   0.012   2.678   8.264
97182SOL    HW193378   0.040   2.640   8.347
97182SOL    HW293379  14.807   2.642   8.248
97183SOL     OW93380  12.731   8.478   5.964
97183SOL    HW193381  12.765   8.555   5.918
97183SOL    HW293382  12.740   8.407   5.900
97184SOL     OW93383   4.357   5.826   3.054
97184SOL    HW193384   4.381   5.823   2.961
97184SOL    HW293385   4.428   5.778   3.098
97185SOL     OW93386   4.427   2.888  10.405
97185SOL    HW193387   4.381   2.972  10.411
97185SOL    HW293388   4.360   2.826  10.376
97186SOL     OW93389  11.567   3.451   7.974
97186SOL    HW193390  11.544   3.364   7.942
97186SOL    HW293391  11.502   3.509   7.934
97187SOL     OW93392   0.651   0.582   7.997
97187SOL    HW193393   0.671   0.673   7.974
97187SOL    HW293394   0.565   0.586   8.038
97188SOL     OW93395  11.591   3.312   5.972
97188SOL    HW193396  11.620   3.303   5.881
97188SOL    HW293397  11.620   3.399   5.998
97189SOL     OW93398  10.543  12.844   5.086
97189SOL    HW193399  10.550  12.877   4.996
97189SOL    HW293400  10.454  12.810   5.092
97190SOL     OW93401   8.397  11.742   8.794
97190SOL    HW193402   8.451  11.753   8.872
97190SOL    HW293403   8.458  11.711   8.727
97191SOL     OW93404  14.855  12.815   2.036
97191SOL    HW193405   0.001  12.764   1.959
97191SOL    HW293406  14.880  12.905   2.014
97192SOL     OW93407   1.791  14.081   2.070
97192SOL    HW193408   1.759  14.125   1.991
97192SOL    HW293409   1.792  14.150   2.136
97193SOL     OW93410   0.131   4.779  12.566
97193SOL    HW193411   0.069   4.830  12.515
97193SOL    HW293412   0.208   4.835  12.574
97194SOL     OW93413  11.920  13.848   4.432
97194SOL    HW193414  11.979  13.790   4.385
97194SOL    HW293415  11.965  13.866   4.515
97195SOL     OW93416  13.928  13.890   7.793
97195SOL    HW193417  14.021  13.911   7.794
97195SOL    HW293418  13.912  13.855   7.705
97196SOL     OW93419  12.295   6.872   5.445
97196SOL    HW193420  12.296   6.966   5.459
97196SOL    HW293421  12.387   6.849   5.427
97197SOL     OW93422   6.481   7.121   0.193
97197SOL    HW193423   6.432   7.203   0.190
97197SOL    HW293424   6.539   7.129   0.269
97198SOL     OW93425  12.841  14.116   2.106
97198SOL    HW193426  12.838  14.193   2.163
97198SOL    HW293427  12.908  14.137   2.042
97199SOL     OW93428  14.824   8.341   9.042
97199SOL    HW193429   0.011   8.321   9.105
97199SOL    HW293430  14.778   8.416   9.080
97200SOL     OW93431   4.514  12.722  12.693
97200SOL    HW193432   4.470  12.686  12.770
97200SOL    HW293433   4.528  12.814  12.716
97201SOL     OW93434   2.890   3.658  14.852
97201SOL    HW193435   2.910   3.751  14.842
97201SOL    HW293436   2.927   3.617  14.775
97202SOL     OW93437  14.206   2.675  10.855
97202SOL    HW193438  14.180   2.764  10.832
97202SOL    HW293439  14.140   2.619  10.815
97203SOL     OW93440   5.481   6.910  12.555
97203SOL    HW193441   5.466   6.926  12.648
97203SOL    HW293442   5.436   6.827  12.538
97204SOL     OW93443   0.656   5.678   7.633
97204SOL    HW193444   0.656   5.617   7.559
97204SOL    HW293445   0.569   5.670   7.671
97205SOL     OW93446  12.037   2.390  11.008
97205SOL    HW193447  12.117   2.425  10.967
97205SOL    HW293448  11.971   2.395  10.939
97206SOL     OW93449   7.610   6.208   4.479
97206SOL    HW193450   7.542   6.149   4.513
97206SOL    HW293451   7.692   6.172   4.511
97207SOL     OW93452   4.409   7.987   9.812
97207SOL    HW193453   4.467   8.017   9.743
97207SOL    HW293454   4.324   8.024   9.790
97208SOL     OW93455  11.194   1.635   9.141
97208SOL    HW193456  11.201   1.612   9.233
97208SOL    HW293457  11.284   1.630   9.108
97209SOL     OW93458   7.129   1.398   2.843
97209SOL    HW193459   7.052   1.447   2.816
97209SOL    HW293460   7.098   1.307   2.850
97210SOL     OW93461  14.024  10.937  13.867
97210SOL    HW193462  13.956  10.870  13.857
97210SOL    HW293463  14.087  10.898  13.928
97211SOL     OW93464   5.580   0.998   0.287
97211SOL    HW193465   5.578   0.993   0.191
97211SOL    HW293466   5.520   0.929   0.316
97212SOL     OW93467   4.927   6.280   7.777
97212SOL    HW193468   4.915   6.222   7.853
97212SOL    HW293469   4.901   6.227   7.702
97213SOL     OW93470   0.857   4.489  11.854
97213SOL    HW193471   0.880   4.450  11.939
97213SOL    HW293472   0.871   4.418  11.791
97214SOL     OW93473   6.234   1.177  12.958
97214SOL    HW193474   6.256   1.267  12.935
97214SOL    HW293475   6.303   1.150  13.018
97215SOL     OW93476  12.912   2.637   7.761
97215SOL    HW193477  12.968   2.578   7.711
97215SOL    HW293478  12.875   2.582   7.830
97216SOL     OW93479  13.962   1.401  13.319
97216SOL    HW193480  14.011   1.347  13.381
97216SOL    HW293481  13.944   1.343  13.245
97217SOL     OW93482   2.717   1.344  12.409
97217SOL    HW193483   2.656   1.418  12.406
97217SOL    HW293484   2.796   1.377  12.367
97218SOL     OW93485   5.021  12.556   8.883
97218SOL    HW193486   5.074  12.553   8.963
97218SOL    HW293487   5.052  12.481   8.832
97219SOL     OW93488   3.900   1.790  11.062
97219SOL    HW193489   3.941   1.858  11.116
97219SOL    HW293490   3.883   1.833  10.978
97220SOL     OW93491   8.398   7.319   2.978
97220SOL    HW193492   8.307   7.327   2.950
97220SOL    HW293493   8.425   7.408   2.999
97221SOL     OW93494   0.609  10.786   6.803
97221SOL    HW193495   0.533  10.830   6.765
97221SOL    HW293496   0.576  10.750   6.885
97222SOL     OW93497   8.578   8.683   4.170
97222SOL    HW193498   8.672   8.692   4.186
97222SOL    HW293499   8.571   8.673   4.075
97223SOL     OW93500  14.866   2.559  14.424
97223SOL    HW193501  14.875   2.575  14.518
97223SOL    HW293502   0.033   2.630  14.382
97224SOL     OW93503   8.033  14.550   7.217
97224SOL    HW193504   8.036  14.458   7.191
97224SOL    HW293505   8.084  14.596   7.151
97225SOL     OW93506   2.598   5.863  10.707
97225SOL    HW193507   2.618   5.919  10.782
97225SOL    HW293508   2.656   5.894  10.637
97226SOL     OW93509   8.370   7.567   0.880
97226SOL    HW193510   8.362   7.576   0.785
97226SOL    HW293511   8.321   7.642   0.915
97227SOL     OW93512  13.390   9.654  13.070
97227SOL    HW193513  13.419   9.566  13.092
97227SOL    HW293514  13.326   9.641  13.000
97228SOL     OW93515  10.444  11.875   3.326
97228SOL    HW193516  10.513  11.896   3.263
97228SOL    HW293517  10.448  11.946   3.390
97229SOL     OW93518   9.235  12.461   4.313
97229SOL    HW193519   9.230  12.535   4.375
97229SOL    HW293520   9.293  12.492   4.244
97230SOL     OW93521   1.922  13.179  10.459
97230SOL    HW193522   1.987  13.175  10.530
97230SOL    HW293523   1.964  13.133  10.386
97231SOL     OW93524   8.756   9.887   6.170
97231SOL    HW193525   8.684   9.830   6.141
97231SOL    HW293526   8.723   9.976   6.155
97232SOL     OW93527  12.944   4.192  12.931
97232SOL    HW193528  12.916   4.101  12.938
97232SOL    HW293529  13.036   4.188  12.906
97233SOL     OW93530  13.923   9.965  10.807
97233SOL    HW193531  13.879  10.040  10.846
97233SOL    HW293532  13.858   9.929  10.746
97234SOL     OW93533  10.661  10.751   9.492
97234SOL    HW193534  10.744  10.767   9.448
97234SOL    HW293535  10.620  10.837   9.500
97235SOL     OW93536  10.174   0.854   5.669
97235SOL    HW193537  10.204   0.820   5.754
97235SOL    HW293538  10.114   0.924   5.692
97236SOL     OW93539   6.300   5.140  11.589
97236SOL    HW193540   6.335   5.076  11.651
97236SOL    HW293541   6.209   5.154  11.616
97237SOL     OW93542  13.645  11.304  10.923
97237SOL    HW193543  13.643  11.209  10.937
97237SOL    HW293544  13.559  11.324  10.886
97238SOL     OW93545  12.430   5.765   5.545
97238SOL    HW193546  12.396   5.692   5.596
97238SOL    HW293547  12.353   5.801   5.500
97239SOL     OW93548   7.384   0.842  10.651
97239SOL    HW193549   7.313   0.783  10.627
97239SOL    HW293550   7.384   0.908  10.581
97240SOL     OW93551   6.787   2.582   9.232
97240SOL    HW193552   6.805   2.629   9.151
97240SOL    HW293553   6.736   2.643   9.285
97241SOL     OW93554   6.845   8.909  12.588
97241SOL    HW193555   6.750   8.923  12.592
97241SOL    HW293556   6.856   8.815  12.603
97242SOL     OW93557   2.079   2.093  12.709
97242SOL    HW193558   2.171   2.088  12.683
97242SOL    HW293559   2.033   2.034  12.649
97243SOL     OW93560   7.895  10.791   0.522
97243SOL    HW193561   7.858  10.733   0.587
97243SOL    HW293562   7.986  10.763   0.513
97244SOL     OW93563   3.299   4.775   6.271
97244SOL    HW193564   3.233   4.776   6.202
97244SOL    HW293565   3.362   4.708   6.244
97245SOL     OW93566   9.221  12.787  10.679
97245SOL    HW193567   9.159  12.771  10.608
97245SOL    HW293568   9.306  12.797  10.635
97246SOL     OW93569   5.947   0.930  13.781
97246SOL    HW193570   5.992   0.892  13.706
97246SOL    HW293571   5.931   0.856  13.840
97247SOL     OW93572   9.839  12.080   9.678
97247SOL    HW193573   9.933  12.063   9.666
97247SOL    HW293574   9.797  12.004   9.638
97248SOL     OW93575   4.978  11.645   1.399
97248SOL    HW193576   5.057  11.598   1.424
97248SOL    HW293577   4.923  11.579   1.356
97249SOL     OW93578   1.988   6.965   8.731
97249SOL    HW193579   2.055   6.931   8.671
97249SOL    HW293580   1.909   6.916   8.710
97250SOL     OW93581  13.380  12.891  10.055
97250SOL    HW193582  13.373  12.947   9.978
97250SOL    HW293583  13.356  12.804  10.023
97251SOL     OW93584  12.680  10.213  11.251
97251SOL    HW193585  12.589  10.240  11.237
97251SOL    HW293586  12.697  10.149  11.182
97252SOL     OW93587   7.710   5.040   6.134
97252SOL    HW193588   7.763   4.965   6.163
97252SOL    HW293589   7.638   5.002   6.084
97253SOL     OW93590   5.177   3.402   1.275
97253SOL    HW193591   5.193   3.441   1.190
97253SOL    HW293592   5.263   3.400   1.318
97254SOL     OW93593  14.682   2.158   3.486
97254SOL    HW193594  14.609   2.096   3.480
97254SOL    HW293595  14.718   2.161   3.397
97255SOL     OW93596   4.669  11.360  10.581
97255SOL    HW193597   4.725  11.426  10.621
97255SOL    HW293598   4.581  11.380  10.613
97256SOL     OW93599  12.429   6.688   5.866
97256SOL    HW193600  12.458   6.700   5.775
97256SOL    HW293601  12.359   6.752   5.878
97257SOL     OW93602   6.670   5.994   9.718
97257SOL    HW193603   6.728   5.921   9.695
97257SOL    HW293604   6.730   6.064   9.743
97258SOL     OW93605   0.448  13.116  10.479
97258SOL    HW193606   0.373  13.168  10.509
97258SOL    HW293607   0.492  13.089  10.560
97259SOL     OW93608   3.910  14.376   3.961
97259SOL    HW193609   3.897  14.332   4.045
97259SOL    HW293610   3.904  14.306   3.896
97260SOL     OW93611   5.894   7.419  13.598
97260SOL    HW193612   5.943   7.445  13.520
97260SOL    HW293613   5.961   7.395  13.662
97261SOL     OW93614  10.640   7.316   1.605
97261SOL    HW193615  10.667   7.256   1.674
97261SOL    HW293616  10.565   7.273   1.564
97262SOL     OW93617   2.163   4.399  14.334
97262SOL    HW193618   2.228   4.459  14.298
97262SOL    HW293619   2.088   4.456  14.356
97263SOL     OW93620   3.330   6.197   7.982
97263SOL    HW193621   3.264   6.266   7.975
97263SOL    HW293622   3.296   6.125   7.928
97264SOL     OW93623   4.203   9.328   9.960
97264SOL    HW193624   4.172   9.239   9.940
97264SOL    HW293625   4.248   9.319  10.044
97265SOL     OW93626   6.882   7.791   6.346
97265SOL    HW193627   6.823   7.807   6.272
97265SOL    HW293628   6.970   7.804   6.311
97266SOL     OW93629   4.405   1.890   9.418
97266SOL    HW193630   4.411   1.946   9.495
97266SOL    HW293631   4.456   1.812   9.440
97267SOL     OW93632   0.895  12.912   3.828
97267SOL    HW193633   0.844  12.834   3.846
97267SOL    HW293634   0.976  12.900   3.879
97268SOL     OW93635   2.630   4.409   4.183
97268SOL    HW193636   2.570   4.430   4.254
97268SOL    HW293637   2.625   4.485   4.124
97269SOL     OW93638  13.687   5.250  13.684
97269SOL    HW193639  13.709   5.341  13.666
97269SOL    HW293640  13.746   5.224  13.755
97270SOL     OW93641   1.184  10.159  13.314
97270SOL    HW193642   1.133  10.204  13.381
97270SOL    HW293643   1.275  10.177  13.338
97271SOL     OW93644   7.980   3.767   8.827
97271SOL    HW193645   7.945   3.847   8.788
97271SOL    HW293646   8.061   3.795   8.870
97272SOL     OW93647  13.994   6.365   8.207
97272SOL    HW193648  13.907   6.394   8.179
97272SOL    HW293649  13.977   6.294   8.269
97273SOL     OW93650  11.743   5.254   2.462
97273SOL    HW193651  11.678   5.202   2.510
97273SOL    HW293652  11.822   5.246   2.515
97274SOL     OW93653   7.211   3.934   6.379
97274SOL    HW193654   7.127   3.969   6.410
97274SOL    HW293655   7.200   3.839   6.379
97275SOL     OW93656   1.213   2.017   4.732
97275SOL    HW193657   1.127   2.024   4.774
97275SOL    HW293658   1.259   1.951   4.784
97276SOL     OW93659  13.746   6.177   1.089
97276SOL    HW193660  13.835   6.153   1.115
97276SOL    HW293661  13.710   6.098   1.050
97277SOL     OW93662   8.701  12.674  11.432
97277SOL    HW193663   8.732  12.586  11.453
97277SOL    HW293664   8.773  12.713  11.381
97278SOL     OW93665   4.792  14.475   6.311
97278SOL    HW193666   4.844  14.512   6.240
97278SOL    HW293667   4.703  14.507   6.295
97279SOL     OW93668  14.565   1.614  12.520
97279SOL    HW193669  14.554   1.642  12.611
97279SOL    HW293670  14.495   1.550  12.506
97280SOL     OW93671   2.911   5.679   0.252
97280SOL    HW193672   2.913   5.679   0.156
97280SOL    HW293673   2.823   5.707   0.274
97281SOL     OW93674  12.425   2.779   3.507
97281SOL    HW193675  12.405   2.823   3.590
97281SOL    HW293676  12.401   2.843   3.440
97282SOL     OW93677   5.545   6.928   2.941
97282SOL    HW193678   5.508   6.975   2.866
97282SOL    HW293679   5.636   6.958   2.945
97283SOL     OW93680   1.688   1.303  12.200
97283SOL    HW193681   1.648   1.230  12.248
97283SOL    HW293682   1.749   1.261  12.139
97284SOL     OW93683  12.817  14.748   2.939
97284SOL    HW193684  12.910  14.735   2.919
97284SOL    HW293685  12.772  14.681   2.888
97285SOL     OW93686  10.930   4.902   5.777
97285SOL    HW193687  10.958   4.843   5.847
97285SOL    HW293688  10.850   4.942   5.809
97286SOL     OW93689   8.984   0.688   8.307
97286SOL    HW193690   8.946   0.763   8.353
97286SOL    HW293691   9.045   0.649   8.370
97287SOL     OW93692  11.908  12.547   2.361
97287SOL    HW193693  11.870  12.515   2.280
97287SOL    HW293694  11.888  12.641   2.361
97288SOL     OW93695   9.915   7.942  10.441
97288SOL    HW193696   9.898   8.033  10.417
97288SOL    HW293697   9.873   7.931  10.526
97289SOL     OW93698   3.275   5.180   4.870
97289SOL    HW193699   3.297   5.258   4.819
97289SOL    HW293700   3.210   5.210   4.934
97290SOL     OW93701   3.104   4.118   1.982
97290SOL    HW193702   3.121   4.159   2.067
97290SOL    HW293703   3.009   4.104   1.980
97291SOL     OW93704   5.577  14.144   2.967
97291SOL    HW193705   5.554  14.088   3.041
97291SOL    HW293706   5.547  14.231   2.992
97292SOL     OW93707   9.703   4.351   1.676
97292SOL    HW193708   9.640   4.282   1.694
97292SOL    HW293709   9.695   4.412   1.749
97293SOL     OW93710   0.416   0.678   5.180
97293SOL    HW193711   0.405   0.766   5.216
97293SOL    HW293712   0.470   0.633   5.245
97294SOL     OW93713   4.372  13.150   4.898
97294SOL    HW193714   4.465  13.173   4.905
97294SOL    HW293715   4.364  13.065   4.940
97295SOL     OW93716   7.591   8.212   4.652
97295SOL    HW193717   7.617   8.259   4.730
97295SOL    HW293718   7.540   8.137   4.685
97296SOL     OW93719  10.933   5.707   8.145
97296SOL    HW193720  10.935   5.612   8.131
97296SOL    HW293721  10.982   5.744   8.072
97297SOL     OW93722   5.788  10.222  12.390
97297SOL    HW193723   5.738  10.172  12.454
97297SOL    HW293724   5.880  10.198  12.406
97298SOL     OW93725  13.108  11.769   2.522
97298SOL    HW193726  13.138  11.858   2.540
97298SOL    HW293727  13.100  11.729   2.609
97299SOL     OW93728   3.002   4.547  13.849
97299SOL    HW193729   3.050   4.464  13.854
97299SOL    HW293730   3.037   4.599  13.921
97300SOL     OW93731   0.909   9.831   5.130
97300SOL    HW193732   0.829   9.854   5.177
97300SOL    HW293733   0.966   9.794   5.197
97301SOL     OW93734   2.951  12.558  12.880
97301SOL    HW193735   3.021  12.513  12.927
97301SOL    HW293736   2.926  12.630  12.938
97302SOL     OW93737  13.968   0.454  13.639
97302SOL    HW193738  13.969   0.371  13.591
97302SOL    HW293739  13.899   0.506  13.597
97303SOL     OW93740   7.872   9.521  13.791
97303SOL    HW193741   7.931   9.470  13.735
97303SOL    HW293742   7.802   9.461  13.814
97304SOL     OW93743   2.990   5.624  10.422
97304SOL    HW193744   2.916   5.636  10.362
97304SOL    HW293745   3.047   5.561  10.378
97305SOL     OW93746   1.419   0.137  12.769
97305SOL    HW193747   1.362   0.060  12.767
97305SOL    HW293748   1.480   0.124  12.698
97306SOL     OW93749  12.788   6.186   0.821
97306SOL    HW193750  12.864   6.204   0.876
97306SOL    HW293751  12.818   6.205   0.732
97307SOL     OW93752  13.205  10.072   2.606
97307SOL    HW193753  13.109  10.073   2.600
97307SOL    HW293754  13.227  10.154   2.651
97308SOL     OW93755  14.069  13.157  14.750
97308SOL    HW193756  13.974  13.167  14.748
97308SOL    HW293757  14.090  13.157  14.844
97309SOL     OW93758   3.795   0.860   4.176
97309SOL    HW193759   3.746   0.799   4.121
97309SOL    HW293760   3.862   0.806   4.218
97310SOL     OW93761   5.300   9.568   2.521
97310SOL    HW193762   5.241   9.629   2.566
97310SOL    HW293763   5.342   9.519   2.592
97311SOL     OW93764  10.298   2.333   8.713
97311SOL    HW193765  10.301   2.238   8.707
97311SOL    HW293766  10.324   2.364   8.626
97312SOL     OW93767   3.035   9.515   4.265
97312SOL    HW193768   2.948   9.481   4.243
97312SOL    HW293769   3.037   9.602   4.225
97313SOL     OW93770   9.421   3.283   0.656
97313SOL    HW193771   9.466   3.297   0.739
97313SOL    HW293772   9.491   3.262   0.594
97314SOL     OW93773   3.786   4.461  14.393
97314SOL    HW193774   3.864   4.460  14.338
97314SOL    HW293775   3.735   4.536  14.361
97315SOL     OW93776   6.900   7.311  11.135
97315SOL    HW193777   6.880   7.399  11.166
97315SOL    HW293778   6.914   7.321  11.040
97316SOL     OW93779   4.695   5.234   1.537
97316SOL    HW193780   4.606   5.224   1.504
97316SOL    HW293781   4.737   5.296   1.478
97317SOL     OW93782   8.950   7.504   4.122
97317SOL    HW193783   8.929   7.586   4.166
97317SOL    HW293784   8.868   7.454   4.126
97318SOL     OW93785   0.742   8.415   8.450
97318SOL    HW193786   0.830   8.380   8.456
97318SOL    HW293787   0.748   8.503   8.489
97319SOL     OW93788   5.172   5.484   1.786
97319SOL    HW193789   5.238   5.549   1.761
97319SOL    HW293790   5.111   5.482   1.712
97320SOL     OW93791   0.783  12.180   1.107
97320SOL    HW193792   0.857  12.173   1.167
97320SOL    HW293793   0.710  12.207   1.163
97321SOL     OW93794   4.302  10.211   9.076
97321SOL    HW193795   4.209  10.211   9.055
97321SOL    HW293796   4.335  10.128   9.042
97322SOL     OW93797   5.716   2.572  13.404
97322SOL    HW193798   5.664   2.651  13.393
97322SOL    HW293799   5.796   2.602  13.447
97323SOL     OW93800   4.351   7.674   1.024
97323SOL    HW193801   4.399   7.671   0.942
97323SOL    HW293802   4.411   7.713   1.087
97324SOL     OW93803   0.728   0.701   0.897
97324SOL    HW193804   0.750   0.681   0.806
97324SOL    HW293805   0.647   0.752   0.891
97325SOL     OW93806   7.113   7.706   2.903
97325SOL    HW193807   7.052   7.654   2.955
97325SOL    HW293808   7.059   7.777   2.867
97326SOL     OW93809   3.858   4.131   1.487
97326SOL    HW193810   3.883   4.094   1.572
97326SOL    HW293811   3.884   4.064   1.424
97327SOL     OW93812   8.375  11.060   4.941
97327SOL    HW193813   8.349  11.029   4.854
97327SOL    HW293814   8.292  11.063   4.990
97328SOL     OW93815   4.923   1.079   2.884
97328SOL    HW193816   4.901   1.138   2.956
97328SOL    HW293817   4.974   1.132   2.823
97329SOL     OW93818  14.588  12.314   5.664
97329SOL    HW193819  14.653  12.373   5.701
97329SOL    HW293820  14.510  12.327   5.718
97330SOL     OW93821  11.682   9.862  10.161
97330SOL    HW193822  11.662   9.770  10.145
97330SOL    HW293823  11.598   9.900  10.188
97331SOL     OW93824   1.359   5.714   2.682
97331SOL    HW193825   1.305   5.708   2.603
97331SOL    HW293826   1.383   5.806   2.688
97332SOL     OW93827  13.261   3.817  12.552
97332SOL    HW193828  13.176   3.861  12.551
97332SOL    HW293829  13.325   3.888  12.553
97333SOL     OW93830   9.456   8.912   8.578
97333SOL    HW193831   9.465   8.941   8.487
97333SOL    HW293832   9.382   8.851   8.576
97334SOL     OW93833   2.147   3.813  12.962
97334SOL    HW193834   2.218   3.856  12.914
97334SOL    HW293835   2.166   3.830  13.054
97335SOL     OW93836   3.495   2.780   0.206
97335SOL    HW193837   3.435   2.707   0.222
97335SOL    HW293838   3.440   2.858   0.211
97336SOL     OW93839  14.706  10.045   4.096
97336SOL    HW193840  14.783   9.994   4.069
97336SOL    HW293841  14.742  10.126   4.131
97337SOL     OW93842   4.102   3.963  13.653
97337SOL    HW193843   4.024   3.930  13.699
97337SOL    HW293844   4.173   3.953  13.716
97338SOL     OW93845  11.768   0.604  10.736
97338SOL    HW193846  11.851   0.571  10.770
97338SOL    HW293847  11.703   0.578  10.801
97339SOL     OW93848   7.599  12.173   3.209
97339SOL    HW193849   7.691  12.150   3.204
97339SOL    HW293850   7.560  12.105   3.264
97340SOL     OW93851  14.128  10.259   2.572
97340SOL    HW193852  14.162  10.261   2.483
97340SOL    HW293853  14.192  10.209   2.622
97341SOL     OW93854  13.112   4.573  12.015
97341SOL    HW193855  13.041   4.510  12.025
97341SOL    HW293856  13.152   4.579  12.102
97342SOL     OW93857   2.702   7.936   7.850
97342SOL    HW193858   2.608   7.946   7.868
97342SOL    HW293859   2.736   7.886   7.924
97343SOL     OW93860   6.588  12.563  14.362
97343SOL    HW193861   6.551  12.476  14.372
97343SOL    HW293862   6.653  12.570  14.432
97344SOL     OW93863   1.151   4.610  12.672
97344SOL    HW193864   1.214   4.681  12.668
97344SOL    HW293865   1.074   4.649  12.714
97345SOL     OW93866   4.114  12.023   5.951
97345SOL    HW193867   4.135  12.057   6.038
97345SOL    HW293868   4.182  11.958   5.934
97346SOL     OW93869  10.213   3.119   0.973
97346SOL    HW193870  10.179   3.101   0.885
97346SOL    HW293871  10.212   3.034   1.017
97347SOL     OW93872  12.521   2.091   5.585
97347SOL    HW193873  12.455   2.027   5.556
97347SOL    HW293874  12.591   2.038   5.622
97348SOL     OW93875   6.222  12.201   9.009
97348SOL    HW193876   6.275  12.236   8.938
97348SOL    HW293877   6.276  12.210   9.087
97349SOL     OW93878   5.926   6.191  13.598
97349SOL    HW193879   5.883   6.177  13.514
97349SOL    HW293880   5.890   6.123  13.655
97350SOL     OW93881   9.723   5.526  11.420
97350SOL    HW193882   9.645   5.561  11.463
97350SOL    HW293883   9.723   5.433  11.443
97351SOL     OW93884   8.845   6.561   1.199
97351SOL    HW193885   8.795   6.600   1.271
97351SOL    HW293886   8.801   6.592   1.120
97352SOL     OW93887  12.794   8.460   1.106
97352SOL    HW193888  12.774   8.475   1.014
97352SOL    HW293889  12.848   8.535   1.131
97353SOL     OW93890   8.592  11.791   1.686
97353SOL    HW193891   8.507  11.757   1.657
97353SOL    HW293892   8.643  11.798   1.605
97354SOL     OW93893  10.036   0.491  10.087
97354SOL    HW193894   9.954   0.451  10.117
97354SOL    HW293895  10.063   0.548  10.159
97355SOL     OW93896   8.858  13.260   8.154
97355SOL    HW193897   8.812  13.179   8.173
97355SOL    HW293898   8.925  13.236   8.090
97356SOL     OW93899   4.593   4.669  14.746
97356SOL    HW193900   4.555   4.756  14.734
97356SOL    HW293901   4.548   4.614  14.682
97357SOL     OW93902   6.480   0.680   0.124
97357SOL    HW193903   6.399   0.631   0.107
97357SOL    HW293904   6.505   0.716   0.040
97358SOL     OW93905  12.823   9.626   4.231
97358SOL    HW193906  12.913   9.653   4.246
97358SOL    HW293907  12.775   9.707   4.214
97359SOL     OW93908   9.015   2.860   9.968
97359SOL    HW193909   9.099   2.884   9.931
97359SOL    HW293910   8.951   2.912   9.918
97360SOL     OW93911   3.430  14.180  11.160
97360SOL    HW193912   3.491  14.162  11.232
97360SOL    HW293913   3.484  14.220  11.092
97361SOL     OW93914  14.579   5.871  10.423
97361SOL    HW193915  14.495   5.895  10.386
97361SOL    HW293916  14.632   5.951  10.416
97362SOL     OW93917  12.288   0.359   3.816
97362SOL    HW193918  12.305   0.267   3.838
97362SOL    HW293919  12.199   0.375   3.847
97363SOL     OW93920   3.993   9.335   2.637
97363SOL    HW193921   3.917   9.311   2.583
97363SOL    HW293922   4.067   9.292   2.594
97364SOL     OW93923  12.630   8.113   6.415
97364SOL    HW193924  12.640   8.198   6.372
97364SOL    HW293925  12.678   8.122   6.497
97365SOL     OW93926  10.883   8.402   6.764
97365SOL    HW193927  10.895   8.440   6.851
97365SOL    HW293928  10.941   8.326   6.763
97366SOL     OW93929   6.087   8.888  13.619
97366SOL    HW193930   6.031   8.834  13.562
97366SOL    HW293931   6.080   8.846  13.705
97367SOL     OW93932  10.764  14.023  13.044
97367SOL    HW193933  10.673  14.042  13.069
97367SOL    HW293934  10.816  14.058  13.116
97368SOL     OW93935  11.394   2.078   8.433
97368SOL    HW193936  11.319   2.020   8.450
97368SOL    HW293937  11.405   2.075   8.338
97369SOL     OW93938  10.671   6.960   2.397
97369SOL    HW193939  10.737   6.917   2.451
97369SOL    HW293940  10.632   6.888   2.346
97370SOL     OW93941  13.668   6.794   5.776
97370SOL    HW193942  13.621   6.713   5.797
97370SOL    HW293943  13.758   6.767   5.758
97371SOL     OW93944   6.008   8.077   7.240
97371SOL    HW193945   5.944   8.023   7.286
97371SOL    HW293946   5.989   8.166   7.268
97372SOL     OW93947  13.912   1.283   2.706
97372SOL    HW193948  13.894   1.356   2.765
97372SOL    HW293949  13.831   1.233   2.704
97373SOL     OW93950  14.088   9.294   0.699
97373SOL    HW193951  14.107   9.234   0.628
97373SOL    HW293952  14.036   9.364   0.659
97374SOL     OW93953  12.374  11.435  12.543
97374SOL    HW193954  12.420  11.463  12.622
97374SOL    HW293955  12.282  11.434  12.569
97375SOL     OW93956   7.936   1.671   3.462
97375SOL    HW193957   7.955   1.609   3.391
97375SOL    HW293958   7.986   1.749   3.439
97376SOL     OW93959   0.707   4.713  13.482
97376SOL    HW193960   0.773   4.684  13.418
97376SOL    HW293961   0.669   4.792  13.443
97377SOL     OW93962   3.059  14.371   9.393
97377SOL    HW193963   3.050  14.399   9.484
97377SOL    HW293964   3.105  14.443   9.350
97378SOL     OW93965   4.159   3.518   7.533
97378SOL    HW193966   4.071   3.480   7.540
97378SOL    HW293967   4.145   3.608   7.506
97379SOL     OW93968  10.251   1.805   6.652
97379SOL    HW193969  10.157   1.803   6.669
97379SOL    HW293970  10.291   1.793   6.738
97380SOL     OW93971   5.704  10.864   7.199
97380SOL    HW193972   5.662  10.948   7.183
97380SOL    HW293973   5.785  10.886   7.246
97381SOL     OW93974   7.505   3.274   3.331
97381SOL    HW193975   7.547   3.297   3.248
97381SOL    HW293976   7.431   3.218   3.306
97382SOL     OW93977  13.518   9.213   1.561
97382SOL    HW193978  13.546   9.259   1.482
97382SOL    HW293979  13.586   9.147   1.576
97383SOL     OW93980   5.187   3.115   4.802
97383SOL    HW193981   5.107   3.131   4.753
97383SOL    HW293982   5.161   3.121   4.894
97384SOL     OW93983   2.583  13.629  13.545
97384SOL    HW193984   2.674  13.599  13.539
97384SOL    HW293985   2.577  13.671  13.630
97385SOL     OW93986  11.707  13.365   9.812
97385SOL    HW193987  11.612  13.372   9.804
97385SOL    HW293988  11.721  13.356   9.907
97386SOL     OW93989   8.540  14.637   6.874
97386SOL    HW193990   8.449  14.608   6.874
97386SOL    HW293991   8.591  14.558   6.856
97387SOL     OW93992   9.624   1.618   3.366
97387SOL    HW193993   9.716   1.591   3.357
97387SOL    HW293994   9.628   1.700   3.415
97388SOL     OW93995  13.908  12.484   2.289
97388SOL    HW193996  13.921  12.579   2.300
97388SOL    HW293997  13.938  12.447   2.372
97389SOL     OW93998   7.118   0.249   8.125
97389SOL    HW193999   7.136   0.324   8.181
97389SOL    HW294000   7.026   0.230   8.139
97390SOL     OW94001   7.694  11.314   3.507
97390SOL    HW194002   7.688  11.220   3.521
97390SOL    HW294003   7.772  11.325   3.452
97391SOL     OW94004  11.548   0.476  10.542
97391SOL    HW194005  11.529   0.406  10.605
97391SOL    HW294006  11.640   0.498  10.558
97392SOL     OW94007  10.219   8.582  12.549
97392SOL    HW194008  10.191   8.562  12.638
97392SOL    HW294009  10.304   8.537  12.541
97393SOL     OW94010  14.650  11.347   2.612
97393SOL    HW194011  14.740  11.342   2.583
97393SOL    HW294012  14.653  11.322   2.705
97394SOL     OW94013   3.317   8.107   1.269
97394SOL    HW194014   3.313   8.041   1.200
97394SOL    HW294015   3.310   8.191   1.223
97395SOL     OW94016   0.293   5.258  10.644
97395SOL    HW194017   0.244   5.337  10.668
97395SOL    HW294018   0.248   5.224  10.567
97396SOL     OW94019   9.905   4.645   2.073
97396SOL    HW194020   9.985   4.695   2.055
97396SOL    HW294021   9.918   4.610   2.161
97397SOL     OW94022   6.217   1.791   4.731
97397SOL    HW194023   6.233   1.886   4.729
97397SOL    HW294024   6.259   1.758   4.652
97398SOL     OW94025   5.172  14.632   8.133
97398SOL    HW194026   5.090  14.584   8.118
97398SOL    HW294027   5.233  14.565   8.162
97399SOL     OW94028   3.610   5.308  10.830
97399SOL    HW194029   3.659   5.268  10.758
97399SOL    HW294030   3.518   5.295  10.806
97400SOL     OW94031   0.262   0.656   4.184
97400SOL    HW194032   0.346   0.693   4.159
97400SOL    HW294033   0.260   0.569   4.144
97401SOL     OW94034   8.443  12.681  11.551
97401SOL    HW194035   8.455  12.625  11.628
97401SOL    HW294036   8.528  12.682  11.508
97402SOL     OW94037   2.775   1.910   4.355
97402SOL    HW194038   2.779   1.853   4.278
97402SOL    HW294039   2.841   1.977   4.338
97403SOL     OW94040   4.387   8.233   1.337
97403SOL    HW194041   4.441   8.310   1.321
97403SOL    HW294042   4.420   8.197   1.420
97404SOL     OW94043   5.488   1.176   6.142
97404SOL    HW194044   5.533   1.183   6.227
97404SOL    HW294045   5.539   1.111   6.094
97405SOL     OW94046   4.545   6.858   4.513
97405SOL    HW194047   4.633   6.825   4.534
97405SOL    HW294048   4.496   6.780   4.486
97406SOL     OW94049   4.098   1.554   3.837
97406SOL    HW194050   4.061   1.630   3.883
97406SOL    HW294051   4.141   1.503   3.905
97407SOL     OW94052   1.592   4.028   5.708
97407SOL    HW194053   1.530   3.987   5.769
97407SOL    HW294054   1.678   4.013   5.748
97408SOL     OW94055  11.994   8.020  10.273
97408SOL    HW194056  11.978   8.051  10.362
97408SOL    HW294057  11.918   7.965  10.253
97409SOL     OW94058  13.822  10.059  10.239
97409SOL    HW194059  13.795   9.967  10.234
97409SOL    HW294060  13.896  10.059  10.300
97410SOL     OW94061  10.193  13.187  14.413
97410SOL    HW194062  10.178  13.279  14.434
97410SOL    HW294063  10.242  13.188  14.331
97411SOL     OW94064  12.293  10.305   6.449
97411SOL    HW194065  12.354  10.369   6.485
97411SOL    HW294066  12.243  10.353   6.384
97412SOL     OW94067   1.726  10.440   5.340
97412SOL    HW194068   1.644  10.488   5.350
97412SOL    HW294069   1.787  10.485   5.399
97413SOL     OW94070   0.291   8.310   2.707
97413SOL    HW194071   0.332   8.295   2.622
97413SOL    HW294072   0.262   8.402   2.703
97414SOL     OW94073   8.978   4.884   0.659
97414SOL    HW194074   8.895   4.835   0.662
97414SOL    HW294075   9.045   4.816   0.651
97415SOL     OW94076  10.552  11.368   6.093
97415SOL    HW194077  10.577  11.300   6.156
97415SOL    HW294078  10.530  11.444   6.147
97416SOL     OW94079   7.338   6.407  12.342
97416SOL    HW194080   7.366   6.494  12.315
97416SOL    HW294081   7.412   6.351  12.322
97417SOL     OW94082   9.389   8.244   9.104
97417SOL    HW194083   9.354   8.236   9.192
97417SOL    HW294084   9.423   8.157   9.083
97418SOL     OW94085  14.499   0.961   4.380
97418SOL    HW194086  14.584   0.946   4.338
97418SOL    HW294087  14.522   0.978   4.472
97419SOL     OW94088   2.670   6.594   2.712
97419SOL    HW194089   2.760   6.619   2.729
97419SOL    HW294090   2.634   6.573   2.799
97420SOL     OW94091  12.268   9.794  13.166
97420SOL    HW194092  12.298   9.810  13.256
97420SOL    HW294093  12.310   9.864  13.115
97421SOL     OW94094   5.623  12.738   3.983
97421SOL    HW194095   5.687  12.773   3.921
97421SOL    HW294096   5.669  12.738   4.067
97422SOL     OW94097   7.287  11.208   7.657
97422SOL    HW194098   7.299  11.221   7.751
97422SOL    HW294099   7.262  11.116   7.649
97423SOL     OW94100  12.378  14.283   6.413
97423SOL    HW194101  12.418  14.370   6.411
97423SOL    HW294102  12.390  14.253   6.503
97424SOL     OW94103   0.636  12.905   5.718
97424SOL    HW194104   0.550  12.942   5.697
97424SOL    HW294105   0.626  12.873   5.808
97425SOL     OW94106   4.131   8.885   0.655
97425SOL    HW194107   4.162   8.797   0.674
97425SOL    HW294108   4.193   8.918   0.590
97426SOL     OW94109   4.156  13.918  13.825
97426SOL    HW194110   4.079  13.965  13.793
97426SOL    HW294111   4.209  13.903  13.747
97427SOL     OW94112  14.700   8.066  14.060
97427SOL    HW194113  14.752   8.102  13.988
97427SOL    HW294114  14.752   8.083  14.138
97428SOL     OW94115   8.860   4.646   8.864
97428SOL    HW194116   8.778   4.674   8.823
97428SOL    HW294117   8.838   4.565   8.909
97429SOL     OW94118   7.893  14.777   0.560
97429SOL    HW194119   7.941  14.696   0.538
97429SOL    HW294120   7.948  14.820   0.625
97430SOL     OW94121   3.269   8.188   6.970
97430SOL    HW194122   3.327   8.263   6.981
97430SOL    HW294123   3.240   8.193   6.879
97431SOL     OW94124   5.362   9.007   6.879
97431SOL    HW194125   5.304   9.071   6.839
97431SOL    HW294126   5.381   8.945   6.809
97432SOL     OW94127   5.619   9.316   2.288
97432SOL    HW194128   5.628   9.328   2.194
97432SOL    HW294129   5.642   9.401   2.326
97433SOL     OW94130  11.678  10.517  10.580
97433SOL    HW194131  11.768  10.541  10.557
97433SOL    HW294132  11.680  10.505  10.675
97434SOL     OW94133   1.201   3.471   2.920
97434SOL    HW194134   1.235   3.383   2.935
97434SOL    HW294135   1.180   3.474   2.827
97435SOL     OW94136   1.317   2.531   5.192
97435SOL    HW194137   1.284   2.601   5.248
97435SOL    HW294138   1.239   2.493   5.152
97436SOL     OW94139   2.682  11.939  11.267
97436SOL    HW194140   2.722  11.961  11.182
97436SOL    HW294141   2.743  11.975  11.332
97437SOL     OW94142   1.538   0.101  12.524
97437SOL    HW194143   1.631   0.087  12.542
97437SOL    HW294144   1.536   0.165  12.453
97438SOL     OW94145   9.883   5.111   3.522
97438SOL    HW194146   9.969   5.106   3.481
97438SOL    HW294147   9.831   5.163   3.460
97439SOL     OW94148   0.558  10.576  14.763
97439SOL    HW194149   0.594  10.651  14.715
97439SOL    HW294150   0.520  10.520  14.695
97440SOL     OW94151   3.902   9.019   7.523
97440SOL    HW194152   3.940   9.107   7.515
97440SOL    HW294153   3.821   9.023   7.472
97441SOL     OW94154   7.037  12.626  11.759
97441SOL    HW194155   6.958  12.680  11.750
97441SOL    HW294156   7.109  12.686  11.737
97442SOL     OW94157  10.275   4.188  12.291
97442SOL    HW194158  10.214   4.114  12.291
97442SOL    HW294159  10.271   4.223  12.202
97443SOL     OW94160  11.589   5.841  13.740
97443SOL    HW194161  11.544   5.902  13.798
97443SOL    HW294162  11.682   5.863  13.750
97444SOL     OW94163   2.831   0.467   8.970
97444SOL    HW194164   2.751   0.488   9.019
97444SOL    HW294165   2.850   0.376   8.993
97445SOL     OW94166   4.402   4.954  10.080
97445SOL    HW194167   4.310   4.940  10.106
97445SOL    HW294168   4.417   5.047  10.093
97446SOL     OW94169   6.799  14.029   5.975
97446SOL    HW194170   6.793  13.944   5.931
97446SOL    HW294171   6.749  14.018   6.055
97447SOL     OW94172  13.834   7.400   9.876
97447SOL    HW194173  13.877   7.477   9.912
97447SOL    HW294174  13.906   7.338   9.860
97448SOL     OW94175   3.059   5.797   4.428
97448SOL    HW194176   3.050   5.881   4.473
97448SOL    HW294177   3.029   5.733   4.491
97449SOL     OW94178   7.056  10.516   2.397
97449SOL    HW194179   7.120  10.544   2.463
97449SOL    HW294180   6.980  10.488   2.448
97450SOL     OW94181   3.116  11.146  12.984
97450SOL    HW194182   3.020  11.146  12.987
97450SOL    HW294183   3.138  11.223  12.932
97451SOL     OW94184  14.685  11.130  10.869
97451SOL    HW194185  14.665  11.223  10.856
97451SOL    HW294186  14.775  11.120  10.838
97452SOL     OW94187  13.328  14.880  12.662
97452SOL    HW194188  13.323   0.002  12.758
97452SOL    HW294189  13.363  14.793  12.644
97453SOL     OW94190  10.388   6.956   9.976
97453SOL    HW194191  10.314   6.897   9.963
97453SOL    HW294192  10.451   6.904  10.028
97454SOL     OW94193  14.095   1.955  11.340
97454SOL    HW194194  14.047   1.918  11.414
97454SOL    HW294195  14.148   2.025  11.378
97455SOL     OW94196   2.982  14.306   1.518
97455SOL    HW194197   3.051  14.369   1.497
97455SOL    HW294198   3.016  14.222   1.487
97456SOL     OW94199  14.585   0.067   7.080
97456SOL    HW194200  14.579   0.131   7.152
97456SOL    HW294201  14.670   0.083   7.041
97457SOL     OW94202   3.623  14.181  13.484
97457SOL    HW194203   3.613  14.101  13.535
97457SOL    HW294204   3.578  14.164  13.402
97458SOL     OW94205  14.876   4.675  13.359
97458SOL    HW194206   0.070   4.679  13.302
97458SOL    HW294207  14.830   4.595  13.333
97459SOL     OW94208   8.530   3.437   6.879
97459SOL    HW194209   8.590   3.497   6.836
97459SOL    HW294210   8.518   3.474   6.967
97460SOL     OW94211   2.933   3.629  12.486
97460SOL    HW194212   2.868   3.687  12.525
97460SOL    HW294213   2.936   3.554  12.545
97461SOL     OW94214   9.046   8.743   3.128
97461SOL    HW194215   9.032   8.729   3.221
97461SOL    HW294216   8.968   8.789   3.098
97462SOL     OW94217   0.101  13.276   0.303
97462SOL    HW194218   0.099  13.307   0.394
97462SOL    HW294219   0.045  13.199   0.303
97463SOL     OW94220  10.831   5.267  12.716
97463SOL    HW194221  10.769   5.266  12.790
97463SOL    HW294222  10.780   5.233  12.642
97464SOL     OW94223  13.351   7.134  14.212
97464SOL    HW194224  13.345   7.149  14.306
97464SOL    HW294225  13.400   7.210  14.179
97465SOL     OW94226  10.647   3.306   7.058
97465SOL    HW194227  10.613   3.263   7.137
97465SOL    HW294228  10.583   3.375   7.039
97466SOL     OW94229   7.596   4.032  12.679
97466SOL    HW194230   7.667   4.081  12.637
97466SOL    HW294231   7.640   3.980  12.746
97467SOL     OW94232   2.981   9.190   9.267
97467SOL    HW194233   2.893   9.176   9.303
97467SOL    HW294234   2.966   9.213   9.176
97468SOL     OW94235  13.292   2.821   5.963
97468SOL    HW194236  13.289   2.728   5.985
97468SOL    HW294237  13.202   2.843   5.940
97469SOL     OW94238   0.354   6.768   4.740
97469SOL    HW194239   0.366   6.860   4.717
97469SOL    HW294240   0.278   6.768   4.799
97470SOL     OW94241  12.412  14.861   5.476
97470SOL    HW194242  12.348  14.790   5.463
97470SOL    HW294243  12.408   0.030   5.395
97471SOL     OW94244  14.484   1.068   2.666
97471SOL    HW194245  14.398   1.072   2.708
97471SOL    HW294246  14.499   1.156   2.633
97472SOL     OW94247   4.488   0.044   7.824
97472SOL    HW194248   4.548   0.042   7.898
97472SOL    HW294249   4.421  14.861   7.846
97473SOL     OW94250  13.622   4.916   9.058
97473SOL    HW194251  13.655   4.967   8.984
97473SOL    HW294252  13.536   4.954   9.078
97474SOL     OW94253   6.440  13.761  11.676
97474SOL    HW194254   6.521  13.781  11.629
97474SOL    HW294255   6.390  13.704  11.617
97475SOL     OW94256   8.356   3.070   3.371
97475SOL    HW194257   8.360   3.156   3.412
97475SOL    HW294258   8.268   3.064   3.334
97476SOL     OW94259   1.993   2.737  10.838
97476SOL    HW194260   2.015   2.695  10.754
97476SOL    HW294261   1.913   2.785  10.820
97477SOL     OW94262  13.502   5.080   0.514
97477SOL    HW194263  13.562   5.036   0.453
97477SOL    HW294264  13.428   5.020   0.522
97478SOL     OW94265  14.094   4.145   8.870
97478SOL    HW194266  14.058   4.226   8.834
97478SOL    HW294267  14.018   4.088   8.881
97479SOL     OW94268  14.163   1.781   8.530
97479SOL    HW194269  14.196   1.726   8.459
97479SOL    HW294270  14.139   1.864   8.488
97480SOL     OW94271  14.368   3.261  11.492
97480SOL    HW194272  14.308   3.188  11.501
97480SOL    HW294273  14.448   3.233  11.537
97481SOL     OW94274  12.643  13.289   3.372
97481SOL    HW194275  12.635  13.199   3.403
97481SOL    HW294276  12.702  13.331   3.435
97482SOL     OW94277   8.946   0.326   7.269
97482SOL    HW194278   9.003   0.251   7.251
97482SOL    HW294279   8.944   0.375   7.187
97483SOL     OW94280  10.808  11.012  11.647
97483SOL    HW194281  10.741  11.081  11.637
97483SOL    HW294282  10.758  10.931  11.655
97484SOL     OW94283   6.032  12.694   4.706
97484SOL    HW194284   6.042  12.721   4.615
97484SOL    HW294285   6.112  12.646   4.726
97485SOL     OW94286   9.291   8.981   6.792
97485SOL    HW194287   9.296   9.026   6.877
97485SOL    HW294288   9.200   8.995   6.764
97486SOL     OW94289  10.128  10.122   2.446
97486SOL    HW194290  10.194  10.115   2.377
97486SOL    HW294291  10.177  10.119   2.528
97487SOL     OW94292  13.731   1.875   2.482
97487SOL    HW194293  13.756   1.783   2.485
97487SOL    HW294294  13.724   1.901   2.574
97488SOL     OW94295   2.470   3.593  10.978
97488SOL    HW194296   2.471   3.517  10.920
97488SOL    HW294297   2.530   3.655  10.938
97489SOL     OW94298  11.799  10.935  12.754
97489SOL    HW194299  11.798  10.858  12.812
97489SOL    HW294300  11.857  10.910  12.682
97490SOL     OW94301   6.376  11.065   1.755
97490SOL    HW194302   6.415  11.042   1.840
97490SOL    HW294303   6.339  10.983   1.723
97491SOL     OW94304   8.547   2.376   5.164
97491SOL    HW194305   8.614   2.399   5.228
97491SOL    HW294306   8.595   2.358   5.084
97492SOL     OW94307  11.928   5.151  10.954
97492SOL    HW194308  11.914   5.153  11.049
97492SOL    HW294309  11.869   5.217  10.920
97493SOL     OW94310   1.409  12.222  13.513
97493SOL    HW194311   1.499  12.196  13.533
97493SOL    HW294312   1.392  12.185  13.426
97494SOL     OW94313   0.756  11.899   4.868
97494SOL    HW194314   0.695  11.945   4.926
97494SOL    HW294315   0.808  11.968   4.828
97495SOL     OW94316   5.516   1.979   7.399
97495SOL    HW194317   5.423   1.963   7.382
97495SOL    HW294318   5.541   2.047   7.336
97496SOL     OW94319   1.123   1.168   0.340
97496SOL    HW194320   1.210   1.202   0.364
97496SOL    HW294321   1.126   1.075   0.365
97497SOL     OW94322   7.088   1.411   5.814
97497SOL    HW194323   7.164   1.428   5.758
97497SOL    HW294324   7.105   1.324   5.850
97498SOL     OW94325   7.213  13.516  13.499
97498SOL    HW194326   7.301  13.548  13.480
97498SOL    HW294327   7.162  13.595  13.521
97499SOL     OW94328   4.285   3.120  10.381
97499SOL    HW194329   4.313   3.168  10.459
97499SOL    HW294330   4.193   3.143  10.369
97500SOL     OW94331   2.704   4.665   5.738
97500SOL    HW194332   2.718   4.752   5.702
97500SOL    HW294333   2.641   4.678   5.810
97501SOL     OW94334  13.397   1.765   5.387
97501SOL    HW194335  13.430   1.840   5.338
97501SOL    HW294336  13.452   1.761   5.465
97502SOL     OW94337   1.401   9.434   7.056
97502SOL    HW194338   1.418   9.351   7.011
97502SOL    HW294339   1.486   9.462   7.088
97503SOL     OW94340   4.474  14.653   5.303
97503SOL    HW194341   4.561  14.691   5.298
97503SOL    HW294342   4.486  14.571   5.351
97504SOL     OW94343   2.259   5.079   6.653
97504SOL    HW194344   2.318   5.153   6.638
97504SOL    HW294345   2.232   5.052   6.565
97505SOL     OW94346   8.159   0.404   2.340
97505SOL    HW194347   8.072   0.366   2.343
97505SOL    HW294348   8.197   0.371   2.258
97506SOL     OW94349   9.796   5.354   5.573
97506SOL    HW194350   9.777   5.434   5.524
97506SOL    HW294351   9.876   5.374   5.621
97507SOL     OW94352  10.813   1.437   8.684
97507SOL    HW194353  10.757   1.504   8.723
97507SOL    HW294354  10.805   1.362   8.744
97508SOL     OW94355   6.436  11.430   3.384
97508SOL    HW194356   6.476  11.377   3.315
97508SOL    HW294357   6.485  11.512   3.382
97509SOL     OW94358   1.997   6.401  12.721
97509SOL    HW194359   1.970   6.309  12.716
97509SOL    HW294360   2.039   6.418  12.637
97510SOL     OW94361   6.132   8.397   1.089
97510SOL    HW194362   6.082   8.369   1.012
97510SOL    HW294363   6.215   8.352   1.082
97511SOL     OW94364   1.085  12.854   4.011
97511SOL    HW194365   1.057  12.766   4.037
97511SOL    HW294366   1.180  12.852   4.020
97512SOL     OW94367  12.467  11.750  14.543
97512SOL    HW194368  12.410  11.776  14.615
97512SOL    HW294369  12.538  11.701  14.584
97513SOL     OW94370  12.060  10.359   3.909
97513SOL    HW194371  12.075  10.418   3.835
97513SOL    HW294372  12.088  10.408   3.986
97514SOL     OW94373   9.346  14.776   4.381
97514SOL    HW194374   9.340  14.729   4.298
97514SOL    HW294375   9.430  14.748   4.418
97515SOL     OW94376   5.213   8.046  14.185
97515SOL    HW194377   5.222   8.127  14.235
97515SOL    HW294378   5.222   7.976  14.250
97516SOL     OW94379   8.939   9.114   9.063
97516SOL    HW194380   8.854   9.110   9.018
97516SOL    HW294381   8.932   9.191   9.120
97517SOL     OW94382  11.452  14.058   8.160
97517SOL    HW194383  11.366  14.100   8.162
97517SOL    HW294384  11.504  14.110   8.221
97518SOL     OW94385  11.945   7.713   3.847
97518SOL    HW194386  11.924   7.708   3.940
97518SOL    HW294387  11.911   7.632   3.810
97519SOL     OW94388   2.035   6.402  14.269
97519SOL    HW194389   2.074   6.439  14.348
97519SOL    HW294390   2.084   6.441  14.197
97520SOL     OW94391   6.030   8.956  14.400
97520SOL    HW194392   5.976   8.935  14.324
97520SOL    HW294393   5.967   8.984  14.467
97521SOL     OW94394   8.908   3.351   6.797
97521SOL    HW194395   8.957   3.356   6.879
97521SOL    HW294396   8.856   3.431   6.795
97522SOL     OW94397   3.085   1.673   7.133
97522SOL    HW194398   3.166   1.722   7.118
97522SOL    HW294399   3.103   1.620   7.211
97523SOL     OW94400   3.499   9.464   9.091
97523SOL    HW194401   3.414   9.505   9.104
97523SOL    HW294402   3.502   9.394   9.156
97524SOL     OW94403  11.803   7.035   1.690
97524SOL    HW194404  11.845   7.081   1.617
97524SOL    HW294405  11.720   7.005   1.656
97525SOL     OW94406   3.804   6.720   8.265
97525SOL    HW194407   3.867   6.651   8.245
97525SOL    HW294408   3.745   6.721   8.190
97526SOL     OW94409   5.575   3.261   0.994
97526SOL    HW194410   5.648   3.238   0.937
97526SOL    HW294411   5.515   3.310   0.937
97527SOL     OW94412  12.132   5.153  11.744
97527SOL    HW194413  12.179   5.071  11.729
97527SOL    HW294414  12.169   5.213  11.679
97528SOL     OW94415  12.398  11.022   7.700
97528SOL    HW194416  12.342  11.032   7.623
97528SOL    HW294417  12.420  10.929   7.702
97529SOL     OW94418   2.276   1.468   4.990
97529SOL    HW194419   2.276   1.431   5.078
97529SOL    HW294420   2.305   1.397   4.933
97530SOL     OW94421   2.115   5.102   8.328
97530SOL    HW194422   2.079   5.094   8.239
97530SOL    HW294423   2.075   5.182   8.363
97531SOL     OW94424   8.011   8.525   8.969
97531SOL    HW194425   8.066   8.548   9.044
97531SOL    HW294426   8.070   8.479   8.909
97532SOL     OW94427   3.449  11.380   7.156
97532SOL    HW194428   3.472  11.454   7.213
97532SOL    HW294429   3.362  11.401   7.124
97533SOL     OW94430   0.469   9.885  14.503
97533SOL    HW194431   0.515   9.891  14.587
97533SOL    HW294432   0.396   9.825  14.519
97534SOL     OW94433  11.344   9.281  14.230
97534SOL    HW194434  11.432   9.317  14.246
97534SOL    HW294435  11.323   9.308  14.141
97535SOL     OW94436   8.813   5.431  12.305
97535SOL    HW194437   8.791   5.365  12.371
97535SOL    HW294438   8.732   5.442  12.255
97536SOL     OW94439   9.385  10.779   9.712
97536SOL    HW194440   9.372  10.824   9.629
97536SOL    HW294441   9.322  10.820   9.771
97537SOL     OW94442   2.385  12.406  12.170
97537SOL    HW194443   2.451  12.441  12.230
97537SOL    HW294444   2.431  12.340  12.119
97538SOL     OW94445  14.075  12.502  11.015
97538SOL    HW194446  14.043  12.573  10.959
97538SOL    HW294447  14.043  12.525  11.102
97539SOL     OW94448  14.474   5.515   1.758
97539SOL    HW194449  14.394   5.552   1.719
97539SOL    HW294450  14.533   5.589   1.766
97540SOL     OW94451   2.521  12.979   2.174
97540SOL    HW194452   2.608  12.959   2.208
97540SOL    HW294453   2.462  12.923   2.224
97541SOL     OW94454  13.443   3.032   1.792
97541SOL    HW194455  13.480   3.016   1.705
97541SOL    HW294456  13.389   3.110   1.780
97542SOL     OW94457  12.665   1.613   3.285
97542SOL    HW194458  12.709   1.649   3.207
97542SOL    HW294459  12.736   1.576   3.337
97543SOL     OW94460  12.478  12.334   4.797
97543SOL    HW194461  12.412  12.374   4.853
97543SOL    HW294462  12.556  12.388   4.809
97544SOL     OW94463   8.266   0.699   1.586
97544SOL    HW194464   8.278   0.627   1.524
97544SOL    HW294465   8.213   0.763   1.538
97545SOL     OW94466   1.992   8.628  10.386
97545SOL    HW194467   1.973   8.661  10.298
97545SOL    HW294468   1.908   8.599  10.420
97546SOL     OW94469   0.280   8.621   8.648
97546SOL    HW194470   0.244   8.572   8.574
97546SOL    HW294471   0.251   8.572   8.726
97547SOL     OW94472  11.087   3.182  11.092
97547SOL    HW194473  11.178   3.213  11.097
97547SOL    HW294474  11.055   3.213  11.007
97548SOL     OW94475   3.782   6.024  13.715
97548SOL    HW194476   3.732   5.952  13.752
97548SOL    HW294477   3.716   6.087  13.685
97549SOL     OW94478  11.813   6.653  14.872
97549SOL    HW194479  11.858   6.582  14.827
97549SOL    HW294480  11.760   6.695  14.804
97550SOL     OW94481  14.361  10.110   3.254
97550SOL    HW194482  14.329  10.065   3.332
97550SOL    HW294483  14.332  10.201   3.265
97551SOL     OW94484  13.212   8.116   6.472
97551SOL    HW194485  13.202   8.128   6.567
97551SOL    HW294486  13.270   8.040   6.464
97552SOL     OW94487   5.417  10.391  14.851
97552SOL    HW194488   5.425  10.387   0.064
97552SOL    HW294489   5.480  10.458  14.824
97553SOL     OW94490   7.411  13.035   8.989
97553SOL    HW194491   7.409  13.050   8.895
97553SOL    HW294492   7.494  13.072   9.018
97554SOL     OW94493   5.781   7.492  12.220
97554SOL    HW194494   5.834   7.436  12.278
97554SOL    HW294495   5.836   7.506  12.143
97555SOL     OW94496  10.581  12.586  10.858
97555SOL    HW194497  10.539  12.508  10.825
97555SOL    HW294498  10.567  12.583  10.953
97556SOL     OW94499   6.554  10.519   6.910
97556SOL    HW194500   6.548  10.425   6.895
97556SOL    HW294501   6.507  10.559   6.837
97557SOL     OW94502   7.724  12.162   1.708
97557SOL    HW194503   7.776  12.238   1.682
97557SOL    HW294504   7.775  12.087   1.677
97558SOL     OW94505  12.195   7.457  13.427
97558SOL    HW194506  12.273   7.437  13.375
97558SOL    HW294507  12.228   7.510  13.500
97559SOL     OW94508  14.557  13.006   0.452
97559SOL    HW194509  14.544  12.912   0.458
97559SOL    HW294510  14.468  13.042   0.457
97560SOL     OW94511   7.145  10.242   2.366
97560SOL    HW194512   7.117  10.333   2.375
97560SOL    HW294513   7.118  10.200   2.447
97561SOL     OW94514   2.211  10.082   4.964
97561SOL    HW194515   2.303  10.073   4.939
97561SOL    HW294516   2.165  10.091   4.881
97562SOL     OW94517  12.704   2.188   7.454
97562SOL    HW194518  12.722   2.214   7.363
97562SOL    HW294519  12.731   2.264   7.506
97563SOL     OW94520  11.558   6.065  14.802
97563SOL    HW194521  11.640   6.051  14.754
97563SOL    HW294522  11.567   6.012  14.881
97564SOL     OW94523  13.921  11.845   7.827
97564SOL    HW194524  13.875  11.820   7.907
97564SOL    HW294525  13.945  11.936   7.841
97565SOL     OW94526   6.826  12.853  14.372
97565SOL    HW194527   6.821  12.923  14.437
97565SOL    HW294528   6.835  12.773  14.423
97566SOL     OW94529  11.569  10.231   6.420
97566SOL    HW194530  11.599  10.220   6.330
97566SOL    HW294531  11.512  10.308   6.416
97567SOL     OW94532   7.662   5.645  13.845
97567SOL    HW194533   7.697   5.685  13.765
97567SOL    HW294534   7.722   5.673  13.914
97568SOL     OW94535  12.113   6.582  14.565
97568SOL    HW194536  12.188   6.632  14.599
97568SOL    HW294537  12.126   6.494  14.599
97569SOL     OW94538   2.468   1.888   8.890
97569SOL    HW194539   2.496   1.807   8.932
97569SOL    HW294540   2.392   1.863   8.838
97570SOL     OW94541   8.161   1.138   3.094
97570SOL    HW194542   8.171   1.132   2.999
97570SOL    HW294543   8.067   1.149   3.107
97571SOL     OW94544   4.246   9.475  12.779
97571SOL    HW194545   4.223   9.471  12.687
97571SOL    HW294546   4.342   9.479  12.779
97572SOL     OW94547   3.425   7.825  12.784
97572SOL    HW194548   3.517   7.803  12.770
97572SOL    HW294549   3.386   7.819  12.697
97573SOL     OW94550   5.976  14.729   6.458
97573SOL    HW194551   6.065  14.761   6.474
97573SOL    HW294552   5.935  14.729   6.545
97574SOL     OW94553   0.278  13.110   0.091
97574SOL    HW194554   0.202  13.131   0.146
97574SOL    HW294555   0.240  13.066   0.014
97575SOL     OW94556   6.025   7.656   1.148
97575SOL    HW194557   5.962   7.664   1.076
97575SOL    HW294558   5.986   7.593   1.208
97576SOL     OW94559   8.230   4.419   0.159
97576SOL    HW194560   8.312   4.387   0.122
97576SOL    HW294561   8.231   4.513   0.142
97577SOL     OW94562   3.516  12.005  12.680
97577SOL    HW194563   3.489  11.935  12.739
97577SOL    HW294564   3.471  12.083  12.713
97578SOL     OW94565   1.562  13.688  10.146
97578SOL    HW194566   1.472  13.719  10.154
97578SOL    HW294567   1.612  13.765  10.120
97579SOL     OW94568   3.143   0.917   7.813
97579SOL    HW194569   3.089   0.841   7.836
97579SOL    HW294570   3.209   0.921   7.881
97580SOL     OW94571  10.512   9.179   3.439
97580SOL    HW194572  10.477   9.173   3.350
97580SOL    HW294573  10.443   9.225   3.488
97581SOL     OW94574  13.453   6.937   7.370
97581SOL    HW194575  13.395   6.965   7.441
97581SOL    HW294576  13.398   6.883   7.313
97582SOL     OW94577   3.426  11.871   6.520
97582SOL    HW194578   3.391  11.960   6.512
97582SOL    HW294579   3.360  11.824   6.572
97583SOL     OW94580   1.805  11.651  12.258
97583SOL    HW194581   1.833  11.595  12.330
97583SOL    HW294582   1.803  11.594  12.181
97584SOL     OW94583   6.998  13.214  10.015
97584SOL    HW194584   7.071  13.156  10.035
97584SOL    HW294585   7.021  13.252   9.930
97585SOL     OW94586  10.314   4.427  14.759
97585SOL    HW194587  10.226   4.464  14.768
97585SOL    HW294588  10.329   4.424  14.664
97586SOL     OW94589   6.321   0.118   9.303
97586SOL    HW194590   6.307   0.041   9.358
97586SOL    HW294591   6.325   0.083   9.214
97587SOL     OW94592   1.425  11.143   0.850
97587SOL    HW194593   1.470  11.211   0.902
97587SOL    HW294594   1.490  11.074   0.840
97588SOL     OW94595   1.570   4.934  12.676
97588SOL    HW194596   1.652   4.963  12.714
97588SOL    HW294597   1.532   4.876  12.742
97589SOL     OW94598  12.184   3.681   1.386
97589SOL    HW194599  12.181   3.585   1.391
97589SOL    HW294600  12.104   3.705   1.339
97590SOL     OW94601   5.078   6.322   5.662
97590SOL    HW194602   5.098   6.365   5.745
97590SOL    HW294603   5.141   6.358   5.601
97591SOL     OW94604  12.799  13.499   1.704
97591SOL    HW194605  12.859  13.432   1.736
97591SOL    HW294606  12.853  13.552   1.645
97592SOL     OW94607  10.020   5.049   2.274
97592SOL    HW194608  10.080   4.984   2.310
97592SOL    HW294609  10.036   5.128   2.326
97593SOL     OW94610  14.441   7.189   5.248
97593SOL    HW194611  14.414   7.139   5.325
97593SOL    HW294612  14.468   7.274   5.282
97594SOL     OW94613   0.458   5.321   6.240
97594SOL    HW194614   0.433   5.272   6.318
97594SOL    HW294615   0.380   5.371   6.217
97595SOL     OW94616  11.518   6.248   7.980
97595SOL    HW194617  11.593   6.307   7.971
97595SOL    HW294618  11.501   6.246   8.074
97596SOL     OW94619  14.670   6.545  13.851
97596SOL    HW194620  14.660   6.639  13.834
97596SOL    HW294621  14.751   6.521  13.806
97597SOL     OW94622   2.766   8.790   4.415
97597SOL    HW194623   2.824   8.718   4.392
97597SOL    HW294624   2.742   8.829   4.331
97598SOL     OW94625   5.746   7.215   0.968
97598SOL    HW194626   5.824   7.214   1.022
97598SOL    HW294627   5.757   7.142   0.907
97599SOL     OW94628   1.792  12.893   0.736
97599SOL    HW194629   1.844  12.832   0.789
97599SOL    HW294630   1.813  12.870   0.646
97600SOL     OW94631   1.893   4.562   3.354
97600SOL    HW194632   1.820   4.512   3.318
97600SOL    HW294633   1.853   4.640   3.391
97601SOL     OW94634   4.164  13.507   3.685
97601SOL    HW194635   4.155  13.422   3.642
97601SOL    HW294636   4.209  13.561   3.620
97602SOL     OW94637  13.797  14.611   7.536
97602SOL    HW194638  13.777  14.702   7.516
97602SOL    HW294639  13.753  14.561   7.467
97603SOL     OW94640  12.633   1.892   4.872
97603SOL    HW194641  12.582   1.813   4.884
97603SOL    HW294642  12.574   1.963   4.896
97604SOL     OW94643   4.127   1.433   8.218
97604SOL    HW194644   4.177   1.369   8.169
97604SOL    HW294645   4.036   1.403   8.211
97605SOL     OW94646   6.075   4.653  12.965
97605SOL    HW194647   6.068   4.733  13.017
97605SOL    HW294648   6.153   4.609  12.998
97606SOL     OW94649   1.250   1.851  10.066
97606SOL    HW194650   1.340   1.821  10.080
97606SOL    HW294651   1.256   1.911   9.992
97607SOL     OW94652   3.627  10.961   8.642
97607SOL    HW194653   3.600  11.043   8.682
97607SOL    HW294654   3.703  10.934   8.693
97608SOL     OW94655   7.381   4.141   2.223
97608SOL    HW194656   7.452   4.197   2.192
97608SOL    HW294657   7.422   4.055   2.235
97609SOL     OW94658   3.942  14.741   6.060
97609SOL    HW194659   3.861  14.751   6.110
97609SOL    HW294660   3.987  14.667   6.101
97610SOL     OW94661   4.296   6.378   7.776
97610SOL    HW194662   4.368   6.395   7.837
97610SOL    HW294663   4.295   6.283   7.766
97611SOL     OW94664  10.257   0.533  13.753
97611SOL    HW194665  10.209   0.574  13.681
97611SOL    HW294666  10.248   0.439  13.737
97612SOL     OW94667   6.367  14.245   9.766
97612SOL    HW194668   6.436  14.258   9.701
97612SOL    HW294669   6.406  14.188   9.833
97613SOL     OW94670  10.705  14.210  13.469
97613SOL    HW194671  10.671  14.295  13.497
97613SOL    HW294672  10.627  14.157  13.452
97614SOL     OW94673   0.946  11.309  13.777
97614SOL    HW194674   1.032  11.267  13.781
97614SOL    HW294675   0.887  11.240  13.747
97615SOL     OW94676   3.229   5.296  12.050
97615SOL    HW194677   3.280   5.332  11.977
97615SOL    HW294678   3.251   5.203  12.050
97616SOL     OW94679   3.532  11.501  12.204
97616SOL    HW194680   3.582  11.507  12.286
97616SOL    HW294681   3.596  11.523  12.136
97617SOL     OW94682   7.980   9.807   2.568
97617SOL    HW194683   8.059   9.762   2.596
97617SOL    HW294684   8.011   9.888   2.528
97618SOL     OW94685   3.696  13.247  14.409
97618SOL    HW194686   3.662  13.192  14.339
97618SOL    HW294687   3.791  13.242  14.399
97619SOL     OW94688   4.436  11.690   2.665
97619SOL    HW194689   4.351  11.733   2.657
97619SOL    HW294690   4.494  11.738   2.607
97620SOL     OW94691   1.841   3.866   4.378
97620SOL    HW194692   1.933   3.856   4.404
97620SOL    HW294693   1.843   3.867   4.283
97621SOL     OW94694   7.693  14.166   0.840
97621SOL    HW194695   7.654  14.106   0.904
97621SOL    HW294696   7.738  14.109   0.778
97622SOL     OW94697  13.863  14.591   9.935
97622SOL    HW194698  13.935  14.533   9.911
97622SOL    HW294699  13.890  14.677   9.901
97623SOL     OW94700  14.180  12.286   5.200
97623SOL    HW194701  14.183  12.372   5.242
97623SOL    HW294702  14.201  12.224   5.270
97624SOL     OW94703  11.675  13.840  10.294
97624SOL    HW194704  11.622  13.887  10.358
97624SOL    HW294705  11.695  13.905  10.226
97625SOL     OW94706   2.250   1.295   0.693
97625SOL    HW194707   2.183   1.256   0.749
97625SOL    HW294708   2.331   1.285   0.743
97626SOL     OW94709  13.898   7.321   4.132
97626SOL    HW194710  13.960   7.348   4.200
97626SOL    HW294711  13.950   7.267   4.072
97627SOL     OW94712   7.894  12.773   8.762
97627SOL    HW194713   7.865  12.776   8.671
97627SOL    HW294714   7.907  12.679   8.779
97628SOL     OW94715   8.329   2.748  14.877
97628SOL    HW194716   8.301   2.669  14.830
97628SOL    HW294717   8.270   2.753   0.070
97629SOL     OW94718   2.551   9.656   8.923
97629SOL    HW194719   2.587   9.668   8.836
97629SOL    HW294720   2.546   9.561   8.935
97630SOL     OW94721  12.212   6.037  11.769
97630SOL    HW194722  12.169   5.955  11.793
97630SOL    HW294723  12.302   6.012  11.750
97631SOL     OW94724   1.523   7.258   8.552
97631SOL    HW194725   1.490   7.346   8.573
97631SOL    HW294726   1.513   7.209   8.634
97632SOL     OW94727   3.870  11.240  12.368
97632SOL    HW194728   3.936  11.278  12.309
97632SOL    HW294729   3.819  11.182  12.312
97633SOL     OW94730  13.552   0.540  12.302
97633SOL    HW194731  13.505   0.461  12.329
97633SOL    HW294732  13.623   0.509  12.246
97634SOL     OW94733   9.593  11.638   2.856
97634SOL    HW194734   9.596  11.646   2.951
97634SOL    HW294735   9.647  11.561   2.837
97635SOL     OW94736   5.684   3.879  12.512
97635SOL    HW194737   5.617   3.872  12.579
97635SOL    HW294738   5.648   3.941  12.448
97636SOL     OW94739  10.298   1.319   3.040
97636SOL    HW194740  10.307   1.390   3.104
97636SOL    HW294741  10.388   1.303   3.010
97637SOL     OW94742   0.928  14.809   2.837
97637SOL    HW194743   0.855  14.857   2.799
97637SOL    HW294744   0.988  14.797   2.763
97638SOL     OW94745  13.571  14.186  11.654
97638SOL    HW194746  13.665  14.184  11.672
97638SOL    HW294747  13.535  14.240  11.725
97639SOL     OW94748   2.954  14.584  10.547
97639SOL    HW194749   2.918  14.621  10.627
97639SOL    HW294750   2.987  14.498  10.573
97640SOL     OW94751   7.730  11.405   2.964
97640SOL    HW194752   7.732  11.347   2.888
97640SOL    HW294753   7.784  11.480   2.938
97641SOL     OW94754   6.190   6.564   8.744
97641SOL    HW194755   6.125   6.505   8.784
97641SOL    HW294756   6.139   6.643   8.722
97642SOL     OW94757   0.057   5.778  14.636
97642SOL    HW194758   0.103   5.859  14.613
97642SOL    HW294759  14.848   5.794  14.611
97643SOL     OW94760  13.690   2.411   8.150
97643SOL    HW194761  13.720   2.324   8.122
97643SOL    HW294762  13.731   2.471   8.089
97644SOL     OW94763   9.161   4.450   4.690
97644SOL    HW194764   9.154   4.439   4.595
97644SOL    HW294765   9.222   4.523   4.701
97645SOL     OW94766   0.028   0.198   1.116
97645SOL    HW194767   0.095   0.131   1.112
97645SOL    HW294768   0.061   0.261   1.180
97646SOL     OW94769  13.182   5.069  12.829
97646SOL    HW194770  13.131   5.116  12.762
97646SOL    HW294771  13.150   4.978  12.824
97647SOL     OW94772  12.910   4.931   0.529
97647SOL    HW194773  12.966   4.997   0.569
97647SOL    HW294774  12.918   4.946   0.435
97648SOL     OW94775   3.753  10.632  11.956
97648SOL    HW194776   3.727  10.677  12.037
97648SOL    HW294777   3.699  10.672  11.888
97649SOL     OW94778   8.724   6.343   6.522
97649SOL    HW194779   8.663   6.315   6.591
97649SOL    HW294780   8.668   6.362   6.447
97650SOL     OW94781  10.354   7.177  11.742
97650SOL    HW194782  10.284   7.238  11.764
97650SOL    HW294783  10.433   7.232  11.737
97651SOL     OW94784  14.491   2.571  14.704
97651SOL    HW194785  14.456   2.483  14.715
97651SOL    HW294786  14.534   2.570  14.619
97652SOL     OW94787  12.955   3.216  10.695
97652SOL    HW194788  12.963   3.128  10.731
97652SOL    HW294789  12.897   3.206  10.619
97653SOL     OW94790  14.188  13.813  14.455
97653SOL    HW194791  14.210  13.866  14.379
97653SOL    HW294792  14.271  13.775  14.483
97654SOL     OW94793   0.369  11.361   0.843
97654SOL    HW194794   0.424  11.334   0.769
97654SOL    HW294795   0.282  11.374   0.805
97655SOL     OW94796   1.293   6.038   2.351
97655SOL    HW194797   1.312   6.047   2.258
97655SOL    HW294798   1.266   6.125   2.379
97656SOL     OW94799  14.152   5.606   4.435
97656SOL    HW194800  14.105   5.585   4.354
97656SOL    HW294801  14.197   5.689   4.417
97657SOL     OW94802   7.745  11.752  10.917
97657SOL    HW194803   7.751  11.845  10.939
97657SOL    HW294804   7.799  11.742  10.839
97658SOL     OW94805   2.672   4.577   8.523
97658SOL    HW194806   2.704   4.663   8.549
97658SOL    HW294807   2.745   4.518   8.539
97659SOL     OW94808   7.924   7.258   5.900
97659SOL    HW194809   7.982   7.308   5.958
97659SOL    HW294810   7.915   7.312   5.822
97660SOL     OW94811   4.512  10.900   4.133
97660SOL    HW194812   4.486  10.986   4.099
97660SOL    HW294813   4.605  10.893   4.113
97661SOL     OW94814   2.487  14.745   1.820
97661SOL    HW194815   2.466  14.823   1.768
97661SOL    HW294816   2.433  14.676   1.781
97662SOL     OW94817  14.741   0.663   8.318
97662SOL    HW194818  14.750   0.568   8.316
97662SOL    HW294819  14.724   0.684   8.409
97663SOL     OW94820  13.522   5.815   9.407
97663SOL    HW194821  13.438   5.833   9.366
97663SOL    HW294822  13.501   5.796   9.499
97664SOL     OW94823   6.500   8.762  14.629
97664SOL    HW194824   6.529   8.847  14.663
97664SOL    HW294825   6.505   8.704  14.705
97665SOL     OW94826  10.264   4.682   8.506
97665SOL    HW194827  10.357   4.676   8.528
97665SOL    HW294828  10.261   4.663   8.412
97666SOL     OW94829   9.417  11.239   5.462
97666SOL    HW194830   9.458  11.153   5.464
97666SOL    HW294831   9.324  11.221   5.446
97667SOL     OW94832   6.530  12.785   8.302
97667SOL    HW194833   6.522  12.709   8.360
97667SOL    HW294834   6.530  12.861   8.361
97668SOL     OW94835   9.088   7.671   0.569
97668SOL    HW194836   9.058   7.591   0.613
97668SOL    HW294837   9.015   7.732   0.579
97669SOL     OW94838   2.805   5.107   4.262
97669SOL    HW194839   2.713   5.081   4.253
97669SOL    HW294840   2.816   5.179   4.200
97670SOL     OW94841   4.137   4.158   4.772
97670SOL    HW194842   4.159   4.222   4.705
97670SOL    HW294843   4.197   4.177   4.844
97671SOL     OW94844   0.239   8.753   8.974
97671SOL    HW194845   0.203   8.672   8.937
97671SOL    HW294846   0.207   8.754   9.064
97672SOL     OW94847   8.699   8.715   8.389
97672SOL    HW194848   8.768   8.781   8.392
97672SOL    HW294849   8.742   8.637   8.354
97673SOL     OW94850  11.208  10.727   9.333
97673SOL    HW194851  11.192  10.813   9.371
97673SOL    HW294852  11.201  10.666   9.406
97674SOL     OW94853   6.602   7.178   9.953
97674SOL    HW194854   6.616   7.267   9.919
97674SOL    HW294855   6.577   7.191  10.044
97675SOL     OW94856   3.019   3.263   9.084
97675SOL    HW194857   2.941   3.233   9.037
97675SOL    HW294858   3.084   3.195   9.068
97676SOL     OW94859   6.199   1.744  12.184
97676SOL    HW194860   6.104   1.739  12.184
97676SOL    HW294861   6.220   1.812  12.120
97677SOL     OW94862   3.875   5.237   6.528
97677SOL    HW194863   3.859   5.255   6.436
97677SOL    HW294864   3.929   5.311   6.557
97678SOL     OW94865   0.632   8.741   7.278
97678SOL    HW194866   0.590   8.671   7.229
97678SOL    HW294867   0.724   8.716   7.282
97679SOL     OW94868  12.025   5.776   2.791
97679SOL    HW194869  12.065   5.712   2.850
97679SOL    HW294870  12.020   5.730   2.706
97680SOL     OW94871  12.196  12.787  10.885
97680SOL    HW194872  12.247  12.732  10.824
97680SOL    HW294873  12.259  12.853  10.914
97681SOL     OW94874  10.500   0.522  14.449
97681SOL    HW194875  10.526   0.528  14.541
97681SOL    HW294876  10.410   0.490  14.451
97682SOL     OW94877   2.536   8.029   0.686
97682SOL    HW194878   2.485   8.037   0.606
97682SOL    HW294879   2.625   8.055   0.662
97683SOL     OW94880   2.531  14.418   7.389
97683SOL    HW194881   2.554  14.504   7.354
97683SOL    HW294882   2.511  14.434   7.481
97684SOL     OW94883  13.548   5.478   6.151
97684SOL    HW194884  13.464   5.433   6.140
97684SOL    HW294885  13.537   5.529   6.231
97685SOL     OW94886   6.078   7.924   1.578
97685SOL    HW194887   6.122   7.867   1.641
97685SOL    HW294888   6.104   8.012   1.603
97686SOL     OW94889   8.431  13.618  10.894
97686SOL    HW194890   8.457  13.529  10.871
97686SOL    HW294891   8.362  13.640  10.832
97687SOL     OW94892   6.793   8.548   1.869
97687SOL    HW194893   6.719   8.602   1.896
97687SOL    HW294894   6.803   8.567   1.775
97688SOL     OW94895  13.195   9.701   5.415
97688SOL    HW194896  13.180   9.738   5.502
97688SOL    HW294897  13.253   9.627   5.430
97689SOL     OW94898   8.782   1.971  10.578
97689SOL    HW194899   8.870   1.933  10.571
97689SOL    HW294900   8.781   2.015  10.663
97690SOL     OW94901  13.274   2.088   5.967
97690SOL    HW194902  13.226   2.158   6.011
97690SOL    HW294903  13.281   2.118   5.876
97691SOL     OW94904  13.140   9.517   7.733
97691SOL    HW194905  13.180   9.602   7.754
97691SOL    HW294906  13.210   9.467   7.691
97692SOL     OW94907   6.451  13.505   5.379
97692SOL    HW194908   6.526  13.519   5.322
97692SOL    HW294909   6.455  13.413   5.404
97693SOL     OW94910  12.657   7.742   3.889
97693SOL    HW194911  12.653   7.721   3.796
97693SOL    HW294912  12.653   7.658   3.934
97694SOL     OW94913   0.977   2.315   5.901
97694SOL    HW194914   0.944   2.404   5.917
97694SOL    HW294915   1.069   2.318   5.929
97695SOL     OW94916  11.188   4.030   9.746
97695SOL    HW194917  11.183   3.934   9.748
97695SOL    HW294918  11.228   4.055   9.829
97696SOL     OW94919   0.448   2.990   9.438
97696SOL    HW194920   0.526   2.939   9.415
97696SOL    HW294921   0.426   2.961   9.527
97697SOL     OW94922  10.069   1.325   7.843
97697SOL    HW194923  10.090   1.249   7.790
97697SOL    HW294924   9.980   1.350   7.816
97698SOL     OW94925  13.233  13.557   6.292
97698SOL    HW194926  13.251  13.463   6.297
97698SOL    HW294927  13.148  13.563   6.249
97699SOL     OW94928   9.885   6.147   5.079
97699SOL    HW194929   9.978   6.149   5.058
97699SOL    HW294930   9.865   6.234   5.112
97700SOL     OW94931   3.181   8.682  11.248
97700SOL    HW194932   3.216   8.737  11.178
97700SOL    HW294933   3.148   8.604  11.203
97701SOL     OW94934   9.003   6.183  10.010
97701SOL    HW194935   9.073   6.241   9.980
97701SOL    HW294936   8.979   6.132   9.932
97702SOL     OW94937  14.808   8.790   3.026
97702SOL    HW194938  14.772   8.838   2.951
97702SOL    HW294939  14.873   8.732   2.987
97703SOL     OW94940   7.143   5.655   0.170
97703SOL    HW194941   7.234   5.648   0.199
97703SOL    HW294942   7.128   5.575   0.119
97704SOL     OW94943  12.327   3.754   8.478
97704SOL    HW194944  12.311   3.847   8.466
97704SOL    HW294945  12.410   3.737   8.433
97705SOL     OW94946   1.980   4.666   2.046
97705SOL    HW194947   2.023   4.716   1.976
97705SOL    HW294948   1.887   4.669   2.025
97706SOL     OW94949  11.339  11.074   7.394
97706SOL    HW194950  11.411  11.047   7.337
97706SOL    HW294951  11.282  10.997   7.398
97707SOL     OW94952   4.149   2.966  12.530
97707SOL    HW194953   4.207   2.895  12.503
97707SOL    HW294954   4.104   2.931  12.608
97708SOL     OW94955   2.451  10.656  10.335
97708SOL    HW194956   2.535  10.687  10.301
97708SOL    HW294957   2.430  10.579  10.282
97709SOL     OW94958  11.629   6.737   2.859
97709SOL    HW194959  11.720   6.759   2.877
97709SOL    HW294960  11.582   6.820   2.869
97710SOL     OW94961  10.540   6.940  13.694
97710SOL    HW194962  10.612   6.970  13.638
97710SOL    HW294963  10.551   6.989  13.775
97711SOL     OW94964   2.705   8.012   6.986
97711SOL    HW194965   2.730   7.921   6.970
97711SOL    HW294966   2.612   8.015   6.965
97712SOL     OW94967   5.465   8.119   7.326
97712SOL    HW194968   5.524   8.117   7.251
97712SOL    HW294969   5.471   8.209   7.359
97713SOL     OW94970  13.163   8.664  12.068
97713SOL    HW194971  13.087   8.613  12.096
97713SOL    HW294972  13.132   8.714  11.993
97714SOL     OW94973  10.801   6.800   2.134
97714SOL    HW194974  10.881   6.752   2.111
97714SOL    HW294975  10.760   6.747   2.202
97715SOL     OW94976  10.916   9.733  14.823
97715SOL    HW194977  10.993   9.770  14.779
97715SOL    HW294978  10.951   9.665  14.880
97716SOL     OW94979   2.466   1.158  11.824
97716SOL    HW194980   2.560   1.171  11.811
97716SOL    HW294981   2.425   1.234  11.782
97717SOL     OW94982   0.653  11.804   3.196
97717SOL    HW194983   0.657  11.752   3.116
97717SOL    HW294984   0.598  11.879   3.174
97718SOL     OW94985  13.564   2.402  14.195
97718SOL    HW194986  13.519   2.485  14.207
97718SOL    HW294987  13.495   2.339  14.174
97719SOL     OW94988  13.216   2.863  13.443
97719SOL    HW194989  13.286   2.902  13.392
97719SOL    HW294990  13.169   2.807  13.381
97720SOL     OW94991  11.626   4.681   7.975
97720SOL    HW194992  11.562   4.707   8.042
97720SOL    HW294993  11.707   4.725   8.001
97721SOL     OW94994   3.262   2.525  12.547
97721SOL    HW194995   3.254   2.466  12.622
97721SOL    HW294996   3.308   2.602  12.581
97722SOL     OW94997   1.342  14.378   7.185
97722SOL    HW194998   1.263  14.341   7.145
97722SOL    HW294999   1.372  14.309   7.245
97723SOL     OW95000   9.486   0.679  14.029
97723SOL    HW195001   9.395   0.660  14.007
97723SOL    HW295002   9.495   0.773  14.010
97724SOL     OW95003   1.400  10.318  10.906
97724SOL    HW195004   1.482  10.358  10.878
97724SOL    HW295005   1.406  10.227  10.876
97725SOL     OW95006  13.774  11.252   8.825
97725SOL    HW195007  13.706  11.186   8.834
97725SOL    HW295008  13.735  11.331   8.862
97726SOL     OW95009  12.064   0.499   5.126
97726SOL    HW195010  12.072   0.406   5.108
97726SOL    HW295011  12.094   0.542   5.046
97727SOL     OW95012   1.888   3.568   2.805
97727SOL    HW195013   1.819   3.577   2.738
97727SOL    HW295014   1.879   3.478   2.837
97728SOL     OW95015  10.044  12.992  11.796
97728SOL    HW195016  10.044  12.974  11.890
97728SOL    HW295017   9.962  13.038  11.781
97729SOL     OW95018  11.703  11.050   2.060
97729SOL    HW195019  11.698  10.988   2.133
97729SOL    HW295020  11.689  11.136   2.100
97730SOL     OW95021   5.912   6.444   1.919
97730SOL    HW195022   5.838   6.383   1.918
97730SOL    HW295023   5.989   6.388   1.911
97731SOL     OW95024  11.406  12.828   6.535
97731SOL    HW195025  11.342  12.889   6.498
97731SOL    HW295026  11.395  12.748   6.484
97732SOL     OW95027   6.337   7.218  11.463
97732SOL    HW195028   6.273   7.232  11.533
97732SOL    HW295029   6.296   7.154  11.405
97733SOL     OW95030   9.569   3.266   8.381
97733SOL    HW195031   9.503   3.281   8.449
97733SOL    HW295032   9.589   3.354   8.348
97734SOL     OW95033   9.616   3.732  11.641
97734SOL    HW195034   9.548   3.678  11.682
97734SOL    HW295035   9.649   3.787  11.712
97735SOL     OW95036   0.791  10.018  12.812
97735SOL    HW195037   0.805   9.928  12.784
97735SOL    HW295038   0.870  10.040  12.862
97736SOL     OW95039   4.090   5.677  11.914
97736SOL    HW195040   4.037   5.656  11.992
97736SOL    HW295041   4.112   5.769  11.924
97737SOL     OW95042  13.595   5.200   4.207
97737SOL    HW195043  13.532   5.272   4.212
97737SOL    HW295044  13.572   5.154   4.126
97738SOL     OW95045  10.959  10.049   5.807
97738SOL    HW195046  10.964  10.026   5.714
97738SOL    HW295047  10.866  10.068   5.822
97739SOL     OW95048   1.989  12.583   3.729
97739SOL    HW195049   1.948  12.546   3.651
97739SOL    HW295050   1.970  12.520   3.798
97740SOL     OW95051   1.810  13.823   7.027
97740SOL    HW195052   1.815  13.838   7.121
97740SOL    HW295053   1.819  13.728   7.018
97741SOL     OW95054  11.034   5.356   0.578
97741SOL    HW195055  11.097   5.356   0.506
97741SOL    HW295056  10.996   5.443   0.577
97742SOL     OW95057  13.187   5.239   2.159
97742SOL    HW195058  13.153   5.318   2.116
97742SOL    HW295059  13.191   5.263   2.252
97743SOL     OW95060  14.386   0.861   2.470
97743SOL    HW195061  14.437   0.880   2.391
97743SOL    HW295062  14.430   0.908   2.540
97744SOL     OW95063   9.593   0.003   0.764
97744SOL    HW195064   9.547   0.075   0.806
97744SOL    HW295065   9.683   0.010   0.793
97745SOL     OW95066  12.463   5.673   8.805
97745SOL    HW195067  12.422   5.595   8.768
97745SOL    HW295068  12.395   5.710   8.862
97746SOL     OW95069   0.149   5.588   8.531
97746SOL    HW195070   0.126   5.674   8.496
97746SOL    HW295071   0.108   5.526   8.472
97747SOL     OW95072   9.517  13.867   9.286
97747SOL    HW195073   9.431  13.893   9.253
97747SOL    HW295074   9.506  13.777   9.317
97748SOL     OW95075   2.506   3.504   3.175
97748SOL    HW195076   2.528   3.568   3.107
97748SOL    HW295077   2.578   3.511   3.238
97749SOL     OW95078   0.128   0.301   1.718
97749SOL    HW195079   0.193   0.312   1.787
97749SOL    HW295080   0.178   0.266   1.644
97750SOL     OW95081  13.865   9.112   8.817
97750SOL    HW195082  13.893   9.198   8.785
97750SOL    HW295083  13.776   9.101   8.782
97751SOL     OW95084  11.596  13.503   1.056
97751SOL    HW195085  11.640  13.544   1.131
97751SOL    HW295086  11.634  13.415   1.051
97752SOL     OW95087   9.199  10.257  12.193
97752SOL    HW195088   9.149  10.257  12.111
97752SOL    HW295089   9.246  10.173  12.192
97753SOL     OW95090   5.232   4.485   7.932
97753SOL    HW195091   5.157   4.488   7.992
97753SOL    HW295092   5.278   4.404   7.956
97754SOL     OW95093   7.230   2.161   7.694
97754SOL    HW195094   7.270   2.238   7.653
97754SOL    HW295095   7.291   2.137   7.764
97755SOL     OW95096   4.899   2.004   9.275
97755SOL    HW195097   4.922   2.016   9.183
97755SOL    HW295098   4.973   2.041   9.323
97756SOL     OW95099   6.095  12.885  13.702
97756SOL    HW195100   6.044  12.827  13.759
97756SOL    HW295101   6.150  12.825  13.651
97757SOL     OW95102  10.147  12.347   3.666
97757SOL    HW195103  10.151  12.254   3.644
97757SOL    HW295104  10.159  12.392   3.582
97758SOL     OW95105   5.816   9.729  11.680
97758SOL    HW195106   5.851   9.680  11.755
97758SOL    HW295107   5.746   9.673  11.646
97759SOL     OW95108  14.638   1.677  14.737
97759SOL    HW195109  14.588   1.621  14.797
97759SOL    HW295110  14.574   1.703  14.671
97760SOL     OW95111   6.508  11.399   8.013
97760SOL    HW195112   6.439  11.446   8.061
97760SOL    HW295113   6.532  11.326   8.070
97761SOL     OW95114  12.500  10.222   4.854
97761SOL    HW195115  12.580  10.168   4.858
97761SOL    HW295116  12.430  10.163   4.882
97762SOL     OW95117  10.164  13.258   8.118
97762SOL    HW195118  10.255  13.285   8.109
97762SOL    HW295119  10.146  13.263   8.211
97763SOL     OW95120   9.815   7.901   2.198
97763SOL    HW195121   9.741   7.945   2.240
97763SOL    HW295122   9.891   7.954   2.222
97764SOL     OW95123   6.593   4.776  13.684
97764SOL    HW195124   6.517   4.831  13.666
97764SOL    HW295125   6.591   4.709  13.616
97765SOL     OW95126   3.040   4.477  12.267
97765SOL    HW195127   2.981   4.530  12.214
97765SOL    HW295128   3.116   4.462  12.211
97766SOL     OW95129   5.765   9.993   0.926
97766SOL    HW195130   5.704  10.065   0.916
97766SOL    HW295131   5.710   9.917   0.947
97767SOL     OW95132   8.802  12.546   3.533
97767SOL    HW195133   8.817  12.639   3.516
97767SOL    HW295134   8.871  12.501   3.484
97768SOL     OW95135   7.504  11.902   3.850
97768SOL    HW195136   7.446  11.865   3.783
97768SOL    HW295137   7.519  11.992   3.822
97769SOL     OW95138   9.917   0.774   3.381
97769SOL    HW195139  10.004   0.790   3.344
97769SOL    HW295140   9.863   0.752   3.306
97770SOL     OW95141   3.889   3.194   3.168
97770SOL    HW195142   3.865   3.104   3.145
97770SOL    HW295143   3.970   3.210   3.120
97771SOL     OW95144  12.876  11.822   7.950
97771SOL    HW195145  12.852  11.914   7.956
97771SOL    HW295146  12.960  11.816   7.996
97772SOL     OW95147  11.833   8.608   6.907
97772SOL    HW195148  11.922   8.631   6.934
97772SOL    HW295149  11.845   8.542   6.839
97773SOL     OW95150   9.814   5.018   9.250
97773SOL    HW195151   9.856   4.964   9.184
97773SOL    HW295152   9.860   4.999   9.331
97774SOL     OW95153  13.568   1.561   3.801
97774SOL    HW195154  13.637   1.527   3.744
97774SOL    HW295155  13.569   1.655   3.786
97775SOL     OW95156   9.240  13.885  10.487
97775SOL    HW195157   9.283  13.950  10.432
97775SOL    HW295158   9.309  13.850  10.542
97776SOL     OW95159   9.631   4.605  13.494
97776SOL    HW195160   9.724   4.621  13.505
97776SOL    HW295161   9.618   4.603  13.399
97777SOL     OW95162  14.143  13.578   5.772
97777SOL    HW195163  14.054  13.582   5.808
97777SOL    HW295164  14.157  13.665   5.735
97778SOL     OW95165   9.268   1.645  10.479
97778SOL    HW195166   9.351   1.685  10.454
97778SOL    HW295167   9.264   1.653  10.574
97779SOL     OW95168   4.808   4.705   9.500
97779SOL    HW195169   4.756   4.716   9.580
97779SOL    HW295170   4.897   4.731   9.525
97780SOL     OW95171   8.557   9.073   3.555
97780SOL    HW195172   8.479   9.018   3.548
97780SOL    HW295173   8.551   9.133   3.480
97781SOL     OW95174  14.503   1.576   9.874
97781SOL    HW195175  14.472   1.583   9.964
97781SOL    HW295176  14.519   1.482   9.861
97782SOL     OW95177  11.382  11.475   0.574
97782SOL    HW195178  11.370  11.569   0.561
97782SOL    HW295179  11.318  11.451   0.641
97783SOL     OW95180   9.935   2.960   1.634
97783SOL    HW195181   9.986   3.003   1.566
97783SOL    HW295182   9.845   2.989   1.620
97784SOL     OW95183   8.752   2.357   9.861
97784SOL    HW195184   8.683   2.350   9.796
97784SOL    HW295185   8.780   2.449   9.857
97785SOL     OW95186   9.050   9.651   5.326
97785SOL    HW195187   9.040   9.716   5.257
97785SOL    HW295188   8.991   9.580   5.301
97786SOL     OW95189   6.240   7.650   6.835
97786SOL    HW195190   6.218   7.743   6.834
97786SOL    HW295191   6.204   7.617   6.753
97787SOL     OW95192   1.164   6.653   4.063
97787SOL    HW195193   1.168   6.749   4.061
97787SOL    HW295194   1.248   6.625   4.029
97788SOL     OW95195   1.081   1.264  14.634
97788SOL    HW195196   1.000   1.213  14.635
97788SOL    HW295197   1.053   1.353  14.609
97789SOL     OW95198   9.465   7.944   5.632
97789SOL    HW195199   9.380   7.987   5.629
97789SOL    HW295200   9.478   7.911   5.543
97790SOL     OW95201   9.030  13.296   5.968
97790SOL    HW195202   9.025  13.304   5.873
97790SOL    HW295203   9.113  13.338   5.991
97791SOL     OW95204   2.548   1.998  11.159
97791SOL    HW195205   2.641   2.018  11.159
97791SOL    HW295206   2.504   2.083  11.160
97792SOL     OW95207   8.011   8.880   7.979
97792SOL    HW195208   7.928   8.895   8.025
97792SOL    HW295209   8.009   8.788   7.953
97793SOL     OW95210   7.831   8.197   5.007
97793SOL    HW195211   7.813   8.154   5.091
97793SOL    HW295212   7.927   8.194   4.999
97794SOL     OW95213   8.965  12.955   7.104
97794SOL    HW195214   8.981  12.956   7.199
97794SOL    HW295215   8.990  12.867   7.077
97795SOL     OW95216   9.997   7.897   8.617
97795SOL    HW195217   9.992   7.846   8.698
97795SOL    HW295218  10.081   7.941   8.620
97796SOL     OW95219   2.684   6.354  11.706
97796SOL    HW195220   2.753   6.370  11.641
97796SOL    HW295221   2.668   6.260  11.700
97797SOL     OW95222  11.057   4.822   3.194
97797SOL    HW195223  11.083   4.802   3.284
97797SOL    HW295224  11.065   4.917   3.187
97798SOL     OW95225   6.125  13.701   0.858
97798SOL    HW195226   6.106  13.614   0.822
97798SOL    HW295227   6.189  13.738   0.798
97799SOL     OW95228  12.434   8.371  12.418
97799SOL    HW195229  12.372   8.417  12.475
97799SOL    HW295230  12.426   8.415  12.334
97800SOL     OW95231   4.138   7.754   9.853
97800SOL    HW195232   4.049   7.720   9.856
97800SOL    HW295233   4.149   7.784   9.762
97801SOL     OW95234   1.758   8.259   5.408
97801SOL    HW195235   1.731   8.326   5.471
97801SOL    HW295236   1.852   8.250   5.420
97802SOL     OW95237   2.967   2.745  12.498
97802SOL    HW195238   2.975   2.801  12.575
97802SOL    HW295239   3.013   2.664  12.523
97803SOL     OW95240   2.733  13.183   1.466
97803SOL    HW195241   2.657  13.130   1.490
97803SOL    HW295242   2.792  13.122   1.422
97804SOL     OW95243   6.154   4.973  12.857
97804SOL    HW195244   6.095   4.947  12.928
97804SOL    HW295245   6.126   5.061  12.833
97805SOL     OW95246   7.641   3.543  14.191
97805SOL    HW195247   7.574   3.536  14.123
97805SOL    HW295248   7.719   3.573  14.144
97806SOL     OW95249  11.195   6.683  13.804
97806SOL    HW195250  11.200   6.604  13.858
97806SOL    HW295251  11.124   6.665  13.742
97807SOL     OW95252  11.702   7.299  12.267
97807SOL    HW195253  11.684   7.250  12.347
97807SOL    HW295254  11.725   7.386  12.297
97808SOL     OW95255  11.413   3.290   6.367
97808SOL    HW195256  11.323   3.265   6.391
97808SOL    HW295257  11.405   3.327   6.279
97809SOL     OW95258  13.896   9.975  13.065
97809SOL    HW195259  13.933  10.014  13.144
97809SOL    HW295260  13.948   9.895  13.052
97810SOL     OW95261   7.148  12.027   0.817
97810SOL    HW195262   7.192  12.112   0.828
97810SOL    HW295263   7.085  12.042   0.746
97811SOL     OW95264   0.655  11.507  13.411
97811SOL    HW195265   0.649  11.446  13.484
97811SOL    HW295266   0.703  11.582  13.445
97812SOL     OW95267  14.124   1.413  13.695
97812SOL    HW195268  14.123   1.328  13.652
97812SOL    HW295269  14.204   1.412  13.749
97813SOL     OW95270   2.344   1.089   2.245
97813SOL    HW195271   2.285   1.164   2.242
97813SOL    HW295272   2.300   1.026   2.302
97814SOL     OW95273  14.447   4.885  10.086
97814SOL    HW195274  14.477   4.849  10.003
97814SOL    HW295275  14.511   4.854  10.150
97815SOL     OW95276   9.556   8.827  12.795
97815SOL    HW195277   9.523   8.739  12.816
97815SOL    HW295278   9.479   8.875  12.764
97816SOL     OW95279   1.472   2.956   7.867
97816SOL    HW195280   1.458   2.901   7.944
97816SOL    HW295281   1.567   2.956   7.855
97817SOL     OW95282   6.115   2.357   7.700
97817SOL    HW195283   6.207   2.385   7.699
97817SOL    HW295284   6.067   2.432   7.735
97818SOL     OW95285   2.615   9.662   8.666
97818SOL    HW195286   2.658   9.661   8.580
97818SOL    HW295287   2.545   9.598   8.658
97819SOL     OW95288  14.013   5.365  10.838
97819SOL    HW195289  13.999   5.357  10.932
97819SOL    HW295290  14.066   5.288  10.815
97820SOL     OW95291   1.047   9.268   1.549
97820SOL    HW195292   1.061   9.188   1.600
97820SOL    HW295293   1.131   9.313   1.552
97821SOL     OW95294   6.693  13.973   4.913
97821SOL    HW195295   6.717  14.064   4.900
97821SOL    HW295296   6.713  13.956   5.005
97822SOL     OW95297   3.809  14.055   6.813
97822SOL    HW195298   3.776  14.139   6.782
97822SOL    HW295299   3.758  14.037   6.893
97823SOL     OW95300   0.254   3.924  10.167
97823SOL    HW195301   0.246   3.923  10.263
97823SOL    HW295302   0.164   3.920  10.136
97824SOL     OW95303   0.584   0.859   6.820
97824SOL    HW195304   0.521   0.803   6.864
97824SOL    HW295305   0.611   0.922   6.887
97825SOL     OW95306   2.504  11.575   3.276
97825SOL    HW195307   2.543  11.626   3.205
97825SOL    HW295308   2.563  11.500   3.286
97826SOL     OW95309   1.819   8.191   6.968
97826SOL    HW195310   1.857   8.221   7.050
97826SOL    HW295311   1.844   8.099   6.961
97827SOL     OW95312   5.468   9.854   4.920
97827SOL    HW195313   5.534   9.803   4.966
97827SOL    HW295314   5.519   9.915   4.865
97828SOL     OW95315   1.967  14.309   9.381
97828SOL    HW195316   1.959  14.232   9.324
97828SOL    HW295317   1.936  14.278   9.466
97829SOL     OW95318  11.870  12.006   7.949
97829SOL    HW195319  11.905  11.931   7.902
97829SOL    HW295320  11.908  12.083   7.906
97830SOL     OW95321   3.822   7.335   2.900
97830SOL    HW195322   3.867   7.253   2.921
97830SOL    HW295323   3.843   7.352   2.808
97831SOL     OW95324  12.007  13.992   0.043
97831SOL    HW195325  12.034  14.063  14.868
97831SOL    HW295326  11.966  14.035   0.118
97832SOL     OW95327  10.135   4.592   3.013
97832SOL    HW195328  10.189   4.642   3.074
97832SOL    HW295329  10.186   4.591   2.932
97833SOL     OW95330  11.371   9.959   6.484
97833SOL    HW195331  11.403   9.993   6.401
97833SOL    HW295332  11.439   9.899   6.514
97834SOL     OW95333   8.596  12.984   1.996
97834SOL    HW195334   8.650  12.968   2.073
97834SOL    HW295335   8.573  13.077   2.002
97835SOL     OW95336  12.949   6.378   4.193
97835SOL    HW195337  12.885   6.449   4.188
97835SOL    HW295338  13.018   6.413   4.250
97836SOL     OW95339   4.501  11.016   6.603
97836SOL    HW195340   4.452  10.957   6.546
97836SOL    HW295341   4.520  10.963   6.681
97837SOL     OW95342   4.217   3.807   8.764
97837SOL    HW195343   4.153   3.812   8.835
97837SOL    HW295344   4.188   3.872   8.700
97838SOL     OW95345   5.656   9.637   5.311
97838SOL    HW195346   5.651   9.725   5.350
97838SOL    HW295347   5.729   9.595   5.357
97839SOL     OW95348   7.606  12.038   5.685
97839SOL    HW195349   7.577  12.091   5.611
97839SOL    HW295350   7.701  12.029   5.673
97840SOL     OW95351   8.928   8.096   8.256
97840SOL    HW195352   8.926   8.121   8.164
97840SOL    HW295353   8.861   8.150   8.297
97841SOL     OW95354  11.604  10.929   1.629
97841SOL    HW195355  11.673  10.874   1.667
97841SOL    HW295356  11.577  10.986   1.701
97842SOL     OW95357   4.305  11.780  11.408
97842SOL    HW195358   4.360  11.720  11.457
97842SOL    HW295359   4.319  11.865  11.449
97843SOL     OW95360   9.457   3.909  12.302
97843SOL    HW195361   9.464   3.978  12.368
97843SOL    HW295362   9.520   3.934  12.234
97844SOL     OW95363  14.272  11.124   9.034
97844SOL    HW195364  14.230  11.054   8.984
97844SOL    HW295365  14.205  11.153   9.096
97845SOL     OW95366  10.590  13.315  11.602
97845SOL    HW195367  10.551  13.251  11.660
97845SOL    HW295368  10.529  13.389  11.601
97846SOL     OW95369   1.193  11.133   0.993
97846SOL    HW195370   1.248  11.155   0.918
97846SOL    HW295371   1.192  11.213   1.046
97847SOL     OW95372  11.588   9.062   9.999
97847SOL    HW195373  11.572   9.126  10.069
97847SOL    HW295374  11.677   9.080   9.970
97848SOL     OW95375  14.589   2.285  13.795
97848SOL    HW195376  14.526   2.236  13.848
97848SOL    HW295377  14.565   2.377  13.808
97849SOL     OW95378   6.938   7.643   2.275
97849SOL    HW195379   6.979   7.666   2.359
97849SOL    HW295380   7.010   7.615   2.220
97850SOL     OW95381  10.046   1.332   4.663
97850SOL    HW195382   9.981   1.261   4.663
97850SOL    HW295383  10.128   1.290   4.686
97851SOL     OW95384   0.505  12.880  14.836
97851SOL    HW195385   0.562  12.955  14.855
97851SOL    HW295386   0.416  12.917  14.837
97852SOL     OW95387  10.544  14.336   6.129
97852SOL    HW195388  10.567  14.308   6.218
97852SOL    HW295389  10.628  14.347   6.084
97853SOL     OW95390   4.105   8.711   6.681
97853SOL    HW195391   4.146   8.714   6.768
97853SOL    HW295392   4.011   8.706   6.700
97854SOL     OW95393   9.848  11.270  12.737
97854SOL    HW195394   9.937  11.244  12.758
97854SOL    HW295395   9.808  11.290  12.821
97855SOL     OW95396   5.351  12.362   1.537
97855SOL    HW195397   5.360  12.443   1.487
97855SOL    HW295398   5.397  12.297   1.485
97856SOL     OW95399   0.015  14.604  10.529
97856SOL    HW195400   0.013  14.509  10.526
97856SOL    HW295401  14.851  14.632  10.450
97857SOL     OW95402   5.783   8.899   0.410
97857SOL    HW195403   5.796   8.815   0.452
97857SOL    HW295404   5.871   8.935   0.398
97858SOL     OW95405  10.809  10.650   7.585
97858SOL    HW195406  10.788  10.595   7.509
97858SOL    HW295407  10.724  10.682   7.615
97859SOL     OW95408  12.959  14.211  13.562
97859SOL    HW195409  13.012  14.145  13.607
97859SOL    HW295410  12.950  14.178  13.473
97860SOL     OW95411  12.984  14.639  11.318
97860SOL    HW195412  13.014  14.550  11.298
97860SOL    HW295413  12.911  14.653  11.258
97861SOL     OW95414  13.651   1.945   8.514
97861SOL    HW195415  13.621   2.036   8.511
97861SOL    HW295416  13.623   1.913   8.600
97862SOL     OW95417   1.009   7.567   1.645
97862SOL    HW195418   1.011   7.657   1.612
97862SOL    HW295419   1.085   7.561   1.703
97863SOL     OW95420  10.004  11.103   6.021
97863SOL    HW195421  10.070  11.166   6.051
97863SOL    HW295422   9.921  11.150   6.026
97864SOL     OW95423  12.345   2.811  10.022
97864SOL    HW195424  12.394   2.729  10.022
97864SOL    HW295425  12.373   2.856  10.102
97865SOL     OW95426   6.408   7.603  13.953
97865SOL    HW195427   6.437   7.617  13.863
97865SOL    HW295428   6.405   7.691  13.991
97866SOL     OW95429  13.640   9.801  13.766
97866SOL    HW195430  13.576   9.794  13.837
97866SOL    HW295431  13.621   9.886  13.726
97867SOL     OW95432   4.760   7.521   5.412
97867SOL    HW195433   4.793   7.562   5.331
97867SOL    HW295434   4.756   7.428   5.391
97868SOL     OW95435   4.725  10.010   9.683
97868SOL    HW195436   4.728  10.103   9.663
97868SOL    HW295437   4.773  10.001   9.765
97869SOL     OW95438   2.809   8.153   2.425
97869SOL    HW195439   2.793   8.060   2.406
97869SOL    HW295440   2.738   8.178   2.483
97870SOL     OW95441  10.451  10.848  14.626
97870SOL    HW195442  10.499  10.766  14.613
97870SOL    HW295443  10.409  10.865  14.541
97871SOL     OW95444  13.110  11.730   4.417
97871SOL    HW195445  13.205  11.716   4.417
97871SOL    HW295446  13.079  11.684   4.495
97872SOL     OW95447  12.385   5.408  13.949
97872SOL    HW195448  12.329   5.457  13.889
97872SOL    HW295449  12.444   5.358  13.892
97873SOL     OW95450   6.714  13.797  14.805
97873SOL    HW195451   6.727  13.708  14.773
97873SOL    HW295452   6.621  13.802  14.826
97874SOL     OW95453  10.627   7.791   0.617
97874SOL    HW195454  10.591   7.706   0.592
97874SOL    HW295455  10.643   7.835   0.534
97875SOL     OW95456  14.830  13.968   2.282
97875SOL    HW195457  14.855  14.038   2.343
97875SOL    HW295458   0.013  13.973   2.212
97876SOL     OW95459   6.326   0.028   2.959
97876SOL    HW195460   6.327   0.039   2.864
97876SOL    HW295461   6.396  14.846   2.977
97877SOL     OW95462  14.485   4.584   0.689
97877SOL    HW195463  14.434   4.535   0.753
97877SOL    HW295464  14.560   4.617   0.739
97878SOL     OW95465   2.717  14.281  12.174
97878SOL    HW195466   2.671  14.220  12.116
97878SOL    HW295467   2.799  14.236  12.194
97879SOL     OW95468   9.817   7.397  12.054
97879SOL    HW195469   9.874   7.454  12.004
97879SOL    HW295470   9.842   7.308  12.029
97880SOL     OW95471   8.529  10.384   6.346
97880SOL    HW195472   8.556  10.476   6.354
97880SOL    HW295473   8.445  10.387   6.301
97881SOL     OW95474  13.510   2.436   4.942
97881SOL    HW195475  13.510   2.468   4.852
97881SOL    HW295476  13.601   2.411   4.958
97882SOL     OW95477   3.914   2.148   2.680
97882SOL    HW195478   4.006   2.128   2.666
97882SOL    HW295479   3.903   2.236   2.642
97883SOL     OW95480   7.406  14.551   2.971
97883SOL    HW195481   7.349  14.579   2.900
97883SOL    HW295482   7.384  14.609   3.043
97884SOL     OW95483  13.237  13.809   3.751
97884SOL    HW195484  13.280  13.763   3.679
97884SOL    HW295485  13.179  13.744   3.790
97885SOL     OW95486  12.213   6.843  10.587
97885SOL    HW195487  12.304   6.841  10.618
97885SOL    HW295488  12.198   6.757  10.549
97886SOL     OW95489   0.734  13.621  12.494
97886SOL    HW195490   0.815  13.571  12.504
97886SOL    HW295491   0.669  13.556  12.468
97887SOL     OW95492  10.061  10.378   6.504
97887SOL    HW195493  10.081  10.353   6.594
97887SOL    HW295494   9.995  10.447   6.512
97888SOL     OW95495   6.155   3.245   2.045
97888SOL    HW195496   6.224   3.284   1.991
97888SOL    HW295497   6.199   3.174   2.092
97889SOL     OW95498  11.226  13.877   3.623
97889SOL    HW195499  11.185  13.819   3.558
97889SOL    HW295500  11.218  13.964   3.584
97890SOL     OW95501   8.600  10.230  13.982
97890SOL    HW195502   8.513  10.265  14.000
97890SOL    HW295503   8.659  10.282  14.038
97891SOL     OW95504  10.933   2.379  10.203
97891SOL    HW195505  11.027   2.369  10.190
97891SOL    HW295506  10.924   2.460  10.253
97892SOL     OW95507  13.533   0.254   1.489
97892SOL    HW195508  13.514   0.160   1.493
97892SOL    HW295509  13.522   0.284   1.580
97893SOL     OW95510  11.791   3.135  12.655
97893SOL    HW195511  11.751   3.068  12.711
97893SOL    HW295512  11.720   3.168  12.601
97894SOL     OW95513  12.134  11.722  13.997
97894SOL    HW195514  12.204  11.786  13.988
97894SOL    HW295515  12.053  11.773  13.996
97895SOL     OW95516   1.417   2.011   1.694
97895SOL    HW195517   1.464   1.930   1.714
97895SOL    HW295518   1.361   1.989   1.620
97896SOL     OW95519   7.348  10.077  14.788
97896SOL    HW195520   7.414  10.009  14.801
97896SOL    HW295521   7.276  10.033  14.743
97897SOL     OW95522   1.997   8.005   7.458
97897SOL    HW195523   1.922   7.997   7.517
97897SOL    HW295524   2.070   8.030   7.514
97898SOL     OW95525  12.583   4.302   6.637
97898SOL    HW195526  12.554   4.394   6.637
97898SOL    HW295527  12.557   4.269   6.551
97899SOL     OW95528   0.064  13.483   6.965
97899SOL    HW195529   0.077  13.389   6.952
97899SOL    HW295530   0.083  13.522   6.879
97900SOL     OW95531  12.609  10.362   3.448
97900SOL    HW195532  12.553  10.405   3.384
97900SOL    HW295533  12.552  10.298   3.491
97901SOL     OW95534   9.471  10.455   0.509
97901SOL    HW195535   9.381  10.442   0.538
97901SOL    HW295536   9.515  10.493   0.584
97902SOL     OW95537   2.078  12.536   6.066
97902SOL    HW195538   1.989  12.508   6.047
97902SOL    HW295539   2.128  12.455   6.072
97903SOL     OW95540   5.455   2.849   2.218
97903SOL    HW195541   5.501   2.929   2.193
97903SOL    HW295542   5.520   2.779   2.206
97904SOL     OW95543  11.763   3.561   1.150
97904SOL    HW195544  11.686   3.564   1.207
97904SOL    HW295545  11.810   3.643   1.168
97905SOL     OW95546  10.444   0.250   4.035
97905SOL    HW195547  10.496   0.320   4.076
97905SOL    HW295548  10.369   0.296   3.997
97906SOL     OW95549   4.997   7.734   7.633
97906SOL    HW195550   4.919   7.748   7.578
97906SOL    HW295551   4.974   7.770   7.718
97907SOL     OW95552  14.458   4.326   9.099
97907SOL    HW195553  14.425   4.319   9.189
97907SOL    HW295554  14.487   4.417   9.092
97908SOL     OW95555   0.627   4.968   1.904
97908SOL    HW195556   0.610   4.893   1.848
97908SOL    HW295557   0.661   4.930   1.985
97909SOL     OW95558  12.588   6.955   1.033
97909SOL    HW195559  12.515   6.983   0.978
97909SOL    HW295560  12.585   6.860   1.028
97910SOL     OW95561   7.036   1.248   6.170
97910SOL    HW195562   6.972   1.318   6.182
97910SOL    HW295563   7.118   1.283   6.205
97911SOL     OW95564   8.759   3.051  12.782
97911SOL    HW195565   8.762   3.046  12.686
97911SOL    HW295566   8.833   3.106  12.806
97912SOL     OW95567  12.505  12.644   7.703
97912SOL    HW195568  12.482  12.719   7.649
97912SOL    HW295569  12.467  12.665   7.789
97913SOL     OW95570   0.714   3.595   3.181
97913SOL    HW195571   0.619   3.588   3.177
97913SOL    HW295572   0.739   3.639   3.100
97914SOL     OW95573   4.256   9.139  14.436
97914SOL    HW195574   4.260   9.073  14.505
97914SOL    HW295575   4.166   9.172  14.440
97915SOL     OW95576  13.755  11.835  13.995
97915SOL    HW195577  13.824  11.784  14.038
97915SOL    HW295578  13.775  11.828  13.901
97916SOL     OW95579  12.962   7.826  10.521
97916SOL    HW195580  13.000   7.761  10.463
97916SOL    HW295581  12.949   7.903  10.466
97917SOL     OW95582   8.086   0.461   9.851
97917SOL    HW195583   8.158   0.399   9.861
97917SOL    HW295584   8.007   0.407   9.849
97918SOL     OW95585   7.465  10.695   1.062
97918SOL    HW195586   7.404  10.622   1.077
97918SOL    HW295587   7.416  10.757   1.009
97919SOL     OW95588   6.147   8.898   7.454
97919SOL    HW195589   6.171   8.819   7.503
97919SOL    HW295590   6.223   8.917   7.400
97920SOL     OW95591   1.330   0.456   5.359
97920SOL    HW195592   1.280   0.538   5.363
97920SOL    HW295593   1.301   0.415   5.278
97921SOL     OW95594  12.184  14.168  14.398
97921SOL    HW195595  12.279  14.156  14.395
97921SOL    HW295596  12.171  14.250  14.445
97922SOL     OW95597  13.407   1.127   9.785
97922SOL    HW195598  13.453   1.176   9.853
97922SOL    HW295599  13.411   1.183   9.707
97923SOL     OW95600  11.537   0.453  12.874
97923SOL    HW195601  11.569   0.463  12.964
97923SOL    HW295602  11.533   0.542  12.840
97924SOL     OW95603   4.613   9.624   6.149
97924SOL    HW195604   4.652   9.550   6.194
97924SOL    HW295605   4.519   9.605   6.149
97925SOL     OW95606  12.630   1.872   5.366
97925SOL    HW195607  12.673   1.837   5.445
97925SOL    HW295608  12.599   1.794   5.320
97926SOL     OW95609   8.269   8.077  10.162
97926SOL    HW195610   8.296   7.994  10.123
97926SOL    HW295611   8.228   8.125  10.091
97927SOL     OW95612   8.020  10.829  14.400
97927SOL    HW195613   8.098  10.774  14.398
97927SOL    HW295614   8.050  10.913  14.435
97928SOL     OW95615   2.513   2.050   3.080
97928SOL    HW195616   2.481   2.070   3.169
97928SOL    HW295617   2.508   2.133   3.034
97929SOL     OW95618   4.054   1.336  13.354
97929SOL    HW195619   3.997   1.322  13.279
97929SOL    HW295620   4.111   1.408  13.328
97930SOL     OW95621  14.228   0.873  13.359
97930SOL    HW195622  14.280   0.923  13.296
97930SOL    HW295623  14.264   0.900  13.444
97931SOL     OW95624   3.590   0.139  13.409
97931SOL    HW195625   3.665   0.184  13.369
97931SOL    HW295626   3.627   0.095  13.486
97932SOL     OW95627  10.461   2.393  14.864
97932SOL    HW195628  10.368   2.403  14.845
97932SOL    HW295629  10.500   2.476  14.836
97933SOL     OW95630  11.782  12.953   8.573
97933SOL    HW195631  11.769  12.998   8.490
97933SOL    HW295632  11.828  12.872   8.550
97934SOL     OW95633  10.273   0.967   1.038
97934SOL    HW195634  10.178   0.965   1.033
97934SOL    HW295635  10.301   0.877   1.018
97935SOL     OW95636  11.466   8.200  11.639
97935SOL    HW195637  11.490   8.195  11.546
97935SOL    HW295638  11.472   8.110  11.670
97936SOL     OW95639   6.627  13.489   7.389
97936SOL    HW195640   6.613  13.487   7.484
97936SOL    HW295641   6.543  13.518   7.353
97937SOL     OW95642  13.921   2.710   0.606
97937SOL    HW195643  13.891   2.693   0.694
97937SOL    HW295644  14.004   2.757   0.618
97938SOL     OW95645   9.345  13.541   7.583
97938SOL    HW195646   9.397  13.461   7.598
97938SOL    HW295647   9.367  13.597   7.657
97939SOL     OW95648   8.130   3.023   3.711
97939SOL    HW195649   8.041   2.994   3.730
97939SOL    HW295650   8.120   3.113   3.681
97940SOL     OW95651   8.879   4.619  12.421
97940SOL    HW195652   8.937   4.544  12.433
97940SOL    HW295653   8.937   4.695  12.420
97941SOL     OW95654   1.610   0.047   9.019
97941SOL    HW195655   1.539   0.071   9.079
97941SOL    HW295656   1.567   0.033   8.935
97942SOL     OW95657   8.598   1.043   6.959
97942SOL    HW195658   8.686   1.080   6.950
97942SOL    HW295659   8.578   1.050   7.052
97943SOL     OW95660  14.104   9.306   6.661
97943SOL    HW195661  14.175   9.254   6.622
97943SOL    HW295662  14.132   9.321   6.751
97944SOL     OW95663   3.423  10.540  10.451
97944SOL    HW195664   3.396  10.581  10.533
97944SOL    HW295665   3.518  10.548  10.451
97945SOL     OW95666  11.520   7.906   8.274
97945SOL    HW195667  11.561   7.989   8.300
97945SOL    HW295668  11.481   7.924   8.189
97946SOL     OW95669  11.510  13.334   4.715
97946SOL    HW195670  11.508  13.375   4.802
97946SOL    HW295671  11.566  13.391   4.663
97947SOL     OW95672   4.926   0.669  14.115
97947SOL    HW195673   5.017   0.689  14.094
97947SOL    HW295674   4.878   0.747  14.087
97948SOL     OW95675  12.361  10.590   7.994
97948SOL    HW195676  12.373  10.498   7.970
97948SOL    HW295677  12.399  10.597   8.081
97949SOL     OW95678   8.967  14.778   1.675
97949SOL    HW195679   8.992  14.775   1.583
97949SOL    HW295680   8.970  14.870   1.698
97950SOL     OW95681   8.514   2.356   3.916
97950SOL    HW195682   8.448   2.292   3.942
97950SOL    HW295683   8.474   2.441   3.935
97951SOL     OW95684   5.937   4.073   2.863
97951SOL    HW195685   5.956   4.165   2.881
97951SOL    HW295686   5.846   4.073   2.833
97952SOL     OW95687  11.934   2.654   5.385
97952SOL    HW195688  11.895   2.592   5.323
97952SOL    HW295689  12.024   2.624   5.395
97953SOL     OW95690  14.760   3.198  11.053
97953SOL    HW195691  14.688   3.150  11.093
97953SOL    HW295692  14.839   3.161  11.093
97954SOL     OW95693  10.962  12.829   4.557
97954SOL    HW195694  10.902  12.778   4.612
97954SOL    HW295695  10.993  12.900   4.613
97955SOL     OW95696   8.577   1.140   9.279
97955SOL    HW195697   8.637   1.130   9.204
97955SOL    HW295698   8.501   1.185   9.242
97956SOL     OW95699  14.238   1.491   7.129
97956SOL    HW195700  14.284   1.407   7.122
97956SOL    HW295701  14.259   1.537   7.047
97957SOL     OW95702  10.946  10.923   1.459
97957SOL    HW195703  10.960  10.857   1.391
97957SOL    HW295704  10.958  11.006   1.414
97958SOL     OW95705   2.014   3.741  10.665
97958SOL    HW195706   1.995   3.779  10.751
97958SOL    HW295707   2.082   3.798  10.628
97959SOL     OW95708   0.056  14.061   8.774
97959SOL    HW195709  14.874  14.072   8.844
97959SOL    HW295710   0.138  14.097   8.810
97960SOL     OW95711   4.991   8.319  12.933
97960SOL    HW195712   4.920   8.255  12.939
97960SOL    HW295713   5.010   8.343  13.024
97961SOL     OW95714  13.824  10.518   2.840
97961SOL    HW195715  13.893  10.526   2.906
97961SOL    HW295716  13.869  10.489   2.761
97962SOL     OW95717   9.040  14.162   9.958
97962SOL    HW195718   8.980  14.203   9.895
97962SOL    HW295719   9.117  14.139   9.907
97963SOL     OW95720   9.607  12.681   1.515
97963SOL    HW195721   9.583  12.617   1.449
97963SOL    HW295722   9.528  12.696   1.566
97964SOL     OW95723   6.883   7.353   6.400
97964SOL    HW195724   6.817   7.284   6.398
97964SOL    HW295725   6.833   7.434   6.387
97965SOL     OW95726   1.170   8.819  11.625
97965SOL    HW195727   1.161   8.742  11.569
97965SOL    HW295728   1.084   8.862  11.622
97966SOL     OW95729   7.673   1.828   2.297
97966SOL    HW195730   7.727   1.869   2.365
97966SOL    HW295731   7.693   1.735   2.304
97967SOL     OW95732   5.066   9.253  10.768
97967SOL    HW195733   5.135   9.203  10.725
97967SOL    HW295734   5.059   9.333  10.715
97968SOL     OW95735  13.258  10.532   9.293
97968SOL    HW195736  13.210  10.506   9.372
97968SOL    HW295737  13.194  10.579   9.240
97969SOL     OW95738   3.555   3.974  11.988
97969SOL    HW195739   3.625   4.006  11.930
97969SOL    HW295740   3.493   4.046  11.992
97970SOL     OW95741  13.166  13.101   6.720
97970SOL    HW195742  13.098  13.042   6.687
97970SOL    HW295743  13.118  13.173   6.760
97971SOL     OW95744   4.951   6.813  13.432
97971SOL    HW195745   4.874   6.868  13.420
97971SOL    HW295746   4.915   6.727  13.455
97972SOL     OW95747   2.867  13.340   5.409
97972SOL    HW195748   2.796  13.359   5.470
97972SOL    HW295749   2.842  13.386   5.328
97973SOL     OW95750  13.219   3.677   8.365
97973SOL    HW195751  13.197   3.703   8.454
97973SOL    HW295752  13.266   3.753   8.329
97974SOL     OW95753  13.351   4.836   4.537
97974SOL    HW195754  13.280   4.774   4.520
97974SOL    HW295755  13.425   4.781   4.561
97975SOL     OW95756   5.801   3.888   8.587
97975SOL    HW195757   5.782   3.941   8.665
97975SOL    HW295758   5.833   3.951   8.523
97976SOL     OW95759   4.948  10.147   5.020
97976SOL    HW195760   5.017  10.168   4.958
97976SOL    HW295761   4.867  10.165   4.973
97977SOL     OW95762   3.301   8.491   6.859
97977SOL    HW195763   3.332   8.561   6.802
97977SOL    HW295764   3.369   8.482   6.926
97978SOL     OW95765   3.052  13.507   4.550
97978SOL    HW195766   3.123  13.545   4.601
97978SOL    HW295767   3.069  13.412   4.552
97979SOL     OW95768   2.543   5.193   0.012
97979SOL    HW195769   2.599   5.207   0.089
97979SOL    HW295770   2.598   5.216  14.819
97980SOL     OW95771   5.047   4.655   7.082
97980SOL    HW195772   5.106   4.696   7.020
97980SOL    HW295773   5.020   4.726   7.141
97981SOL     OW95774   3.041   5.966   4.937
97981SOL    HW195775   2.966   6.026   4.936
97981SOL    HW295776   3.012   5.892   4.883
97982SOL     OW95777   3.673  11.187   3.274
97982SOL    HW195778   3.602  11.192   3.210
97982SOL    HW295779   3.730  11.261   3.253
97983SOL     OW95780  10.262   3.020  12.783
97983SOL    HW195781  10.334   3.075  12.813
97983SOL    HW295782  10.190   3.082  12.767
97984SOL     OW95783   3.724   7.385   3.523
97984SOL    HW195784   3.714   7.303   3.570
97984SOL    HW295785   3.731   7.452   3.591
97985SOL     OW95786  14.674   9.685   7.569
97985SOL    HW195787  14.666   9.598   7.530
97985SOL    HW295788  14.677   9.744   7.494
97986SOL     OW95789   9.382   5.057   4.319
97986SOL    HW195790   9.425   5.093   4.397
97986SOL    HW295791   9.312   5.119   4.299
97987SOL     OW95792  10.934   1.893   3.902
97987SOL    HW195793  10.856   1.885   3.956
97987SOL    HW295794  11.007   1.881   3.963
97988SOL     OW95795  10.150   4.528   4.666
97988SOL    HW195796  10.216   4.597   4.670
97988SOL    HW295797  10.072   4.570   4.631
97989SOL     OW95798  11.850   0.878  14.442
97989SOL    HW195799  11.816   0.922  14.364
97989SOL    HW295800  11.785   0.811  14.462
97990SOL     OW95801   8.780  10.682   9.489
97990SOL    HW195802   8.767  10.693   9.584
97990SOL    HW295803   8.875  10.677   9.479
97991SOL     OW95804   7.251   6.109   1.495
97991SOL    HW195805   7.333   6.071   1.464
97991SOL    HW295806   7.185   6.041   1.481
97992SOL     OW95807  11.755   0.623   8.335
97992SOL    HW195808  11.807   0.544   8.324
97992SOL    HW295809  11.674   0.606   8.288
97993SOL     OW95810   8.197   2.208   6.970
97993SOL    HW195811   8.162   2.263   7.040
97993SOL    HW295812   8.288   2.237   6.959
97994SOL     OW95813   4.646  12.362   6.709
97994SOL    HW195814   4.559  12.394   6.731
97994SOL    HW295815   4.661  12.391   6.619
97995SOL     OW95816   2.248   5.718   5.738
97995SOL    HW195817   2.250   5.808   5.769
97995SOL    HW295818   2.166   5.711   5.689
97996SOL     OW95819  12.054   5.823  11.821
97996SOL    HW195820  11.959   5.814  11.813
97996SOL    HW295821  12.079   5.754  11.883
97997SOL     OW95822   5.191   3.572   7.270
97997SOL    HW195823   5.197   3.593   7.363
97997SOL    HW295824   5.098   3.557   7.254
97998SOL     OW95825   3.800  11.727   2.201
97998SOL    HW195826   3.893  11.710   2.193
97998SOL    HW295827   3.794  11.822   2.215
97999SOL     OW95828   1.751  14.784  10.443
97999SOL    HW195829   1.792  14.807  10.526
97999SOL    HW295830   1.658  14.778  10.463
98000SOL     OW95831   1.740  11.131   1.858
98000SOL    HW195832   1.676  11.096   1.920
98000SOL    HW295833   1.761  11.218   1.890
98001SOL     OW95834  13.091   6.899  11.882
98001SOL    HW195835  13.091   6.988  11.918
98001SOL    HW295836  13.106   6.843  11.959
98002SOL     OW95837   9.250   1.895   5.494
98002SOL    HW195838   9.190   1.916   5.566
98002SOL    HW295839   9.318   1.841   5.534
98003SOL     OW95840   3.574   6.529  13.606
98003SOL    HW195841   3.556   6.532  13.699
98003SOL    HW295842   3.652   6.474  13.598
98004SOL     OW95843  11.648  10.574   9.014
98004SOL    HW195844  11.690  10.657   9.035
98004SOL    HW295845  11.649  10.569   8.919
98005SOL     OW95846  11.448   3.285   9.078
98005SOL    HW195847  11.457   3.197   9.043
98005SOL    HW295848  11.440   3.342   9.001
98006SOL     OW95849   4.248  10.019  14.682
98006SOL    HW195850   4.231  10.088  14.747
98006SOL    HW295851   4.163   9.976  14.671
98007SOL     OW95852   5.836   2.539   9.316
98007SOL    HW195853   5.752   2.575   9.289
98007SOL    HW295854   5.836   2.450   9.280
98008SOL     OW95855  14.709   1.439  11.797
98008SOL    HW195856  14.790   1.460  11.843
98008SOL    HW295857  14.737   1.408  11.711
98009SOL     OW95858   5.215  13.223   3.915
98009SOL    HW195859   5.126  13.205   3.885
98009SOL    HW295860   5.237  13.148   3.970
98010SOL     OW95861  12.780  11.331   0.016
98010SOL    HW195862  12.823  11.402  14.849
98010SOL    HW295863  12.801  11.350   0.108
98011SOL     OW95864  13.054   8.339   8.155
98011SOL    HW195865  13.130   8.319   8.209
98011SOL    HW295866  13.050   8.435   8.154
98012SOL     OW95867   3.395   8.397   2.349
98012SOL    HW195868   3.422   8.457   2.280
98012SOL    HW295869   3.310   8.364   2.320
98013SOL     OW95870   3.390   8.327   2.639
98013SOL    HW195871   3.392   8.338   2.544
98013SOL    HW295872   3.303   8.290   2.657
98014SOL     OW95873  10.013   9.496  12.106
98014SOL    HW195874  10.092   9.493  12.160
98014SOL    HW295875  10.010   9.410  12.064
98015SOL     OW95876   1.285  10.171   7.767
98015SOL    HW195877   1.257  10.080   7.755
98015SOL    HW295878   1.210  10.224   7.741
98016SOL     OW95879   2.958   5.827   1.152
98016SOL    HW195880   2.897   5.838   1.079
98016SOL    HW295881   3.026   5.893   1.136
98017SOL     OW95882   1.229   6.758   0.650
98017SOL    HW195883   1.320   6.766   0.622
98017SOL    HW295884   1.207   6.667   0.634
98018SOL     OW95885  12.879   4.573  10.373
98018SOL    HW195886  12.837   4.626  10.441
98018SOL    HW295887  12.809   4.554  10.310
98019SOL     OW95888   0.767   9.885  13.095
98019SOL    HW195889   0.834   9.871  13.162
98019SOL    HW295890   0.803   9.954  13.039
98020SOL     OW95891   5.238  14.114  11.147
98020SOL    HW195892   5.201  14.072  11.070
98020SOL    HW295893   5.211  14.058  11.220
98021SOL     OW95894  12.012   2.215  10.448
98021SOL    HW195895  12.072   2.155  10.492
98021SOL    HW295896  11.928   2.200  10.490
98022SOL     OW95897  14.642   2.412  10.307
98022SOL    HW195898  14.638   2.340  10.245
98022SOL    HW295899  14.732   2.412  10.339
98023SOL     OW95900   1.967   6.812  13.061
98023SOL    HW195901   2.049   6.828  13.015
98023SOL    HW295902   1.991   6.817  13.154
98024SOL     OW95903   8.152   4.963   7.279
98024SOL    HW195904   8.100   4.917   7.345
98024SOL    HW295905   8.243   4.946   7.306
98025SOL     OW95906   7.156  12.995   8.253
98025SOL    HW195907   7.173  12.931   8.322
98025SOL    HW295908   7.108  12.946   8.186
98026SOL     OW95909  14.865  11.051  12.691
98026SOL    HW195910  14.811  11.034  12.613
98026SOL    HW295911  14.864  10.969  12.739
98027SOL     OW95912   9.149   8.298   8.961
98027SOL    HW195913   9.239   8.285   8.991
98027SOL    HW295914   9.153   8.378   8.908
98028SOL     OW95915   9.909   4.246   1.149
98028SOL    HW195916   9.965   4.191   1.204
98028SOL    HW295917   9.820   4.222   1.175
98029SOL     OW95918  11.917  14.323   4.236
98029SOL    HW195919  11.917  14.359   4.325
98029SOL    HW295920  12.001  14.350   4.199
98030SOL     OW95921   7.769   2.027   3.509
98030SOL    HW195922   7.723   2.109   3.492
98030SOL    HW295923   7.716   1.984   3.576
98031SOL     OW95924  10.926   9.573   8.315
98031SOL    HW195925  10.939   9.485   8.281
98031SOL    HW295926  10.844   9.569   8.363
98032SOL     OW95927  14.437   6.250  11.049
98032SOL    HW195928  14.474   6.168  11.017
98032SOL    HW295929  14.385   6.283  10.975
98033SOL     OW95930   8.166   7.204   1.038
98033SOL    HW195931   8.214   7.283   1.014
98033SOL    HW295932   8.100   7.194   0.970
98034SOL     OW95933   3.573   4.710   1.760
98034SOL    HW195934   3.654   4.761   1.758
98034SOL    HW295935   3.560   4.684   1.668
98035SOL     OW95936   8.475  12.666   1.050
98035SOL    HW195937   8.392  12.700   1.086
98035SOL    HW295938   8.450  12.583   1.009
98036SOL     OW95939   7.743   8.203   9.606
98036SOL    HW195940   7.695   8.120   9.609
98036SOL    HW295941   7.674   8.270   9.602
98037SOL     OW95942   2.179  11.601  14.834
98037SOL    HW195943   2.122  11.660   0.001
98037SOL    HW295944   2.121  11.531  14.804
98038SOL     OW95945  14.429   2.354   7.516
98038SOL    HW195946  14.414   2.436   7.562
98038SOL    HW295947  14.345   2.308   7.522
98039SOL     OW95948   2.140   4.441   9.592
98039SOL    HW195949   2.108   4.510   9.534
98039SOL    HW295950   2.086   4.449   9.670
98040SOL     OW95951  13.751   7.186   6.125
98040SOL    HW195952  13.697   7.128   6.071
98040SOL    HW295953  13.690   7.229   6.184
98041SOL     OW95954   8.228   3.287  10.099
98041SOL    HW195955   8.258   3.318  10.185
98041SOL    HW295956   8.297   3.227  10.071
98042SOL     OW95957   7.190   0.038   0.785
98042SOL    HW195958   7.171  14.836   0.742
98042SOL    HW295959   7.117   0.095   0.758
98043SOL     OW95960  13.214   7.529   8.851
98043SOL    HW195961  13.299   7.570   8.839
98043SOL    HW295962  13.184   7.508   8.762
98044SOL     OW95963  10.394   0.063   2.143
98044SOL    HW195964  10.369  14.862   2.184
98044SOL    HW295965  10.329   0.126   2.173
98045SOL     OW95966  14.384   1.173  11.548
98045SOL    HW195967  14.344   1.256  11.522
98045SOL    HW295968  14.423   1.139  11.467
98046SOL     OW95969  12.400   3.969   5.109
98046SOL    HW195970  12.349   3.895   5.141
98046SOL    HW295971  12.335   4.032   5.079
98047SOL     OW95972   8.583   2.186   5.926
98047SOL    HW195973   8.625   2.170   6.011
98047SOL    HW295974   8.646   2.152   5.862
98048SOL     OW95975   4.533   8.643  12.833
98048SOL    HW195976   4.530   8.555  12.793
98048SOL    HW295977   4.626   8.664  12.836
98049SOL     OW95978  13.417   3.206   3.390
98049SOL    HW195979  13.455   3.133   3.341
98049SOL    HW295980  13.382   3.165   3.469
98050SOL     OW95981   9.042   3.727   8.209
98050SOL    HW195982   8.990   3.711   8.288
98050SOL    HW295983   9.053   3.822   8.206
98051SOL     OW95984   2.577   1.618  12.187
98051SOL    HW195985   2.549   1.633  12.277
98051SOL    HW295986   2.539   1.691  12.137
98052SOL     OW95987   5.063   7.386  11.304
98052SOL    HW195988   5.124   7.344  11.364
98052SOL    HW295989   5.024   7.457  11.355
98053SOL     OW95990   5.050  10.249   3.728
98053SOL    HW195991   5.017  10.170   3.685
98053SOL    HW295992   5.137  10.262   3.691
98054SOL     OW95993   3.394   3.679   6.521
98054SOL    HW195994   3.312   3.703   6.478
98054SOL    HW295995   3.378   3.699   6.614
98055SOL     OW95996   7.844  13.390   4.682
98055SOL    HW195997   7.873  13.447   4.611
98055SOL    HW295998   7.753  13.368   4.660
98056SOL     OW95999  14.206  11.380   8.347
98056SOL    HW196000  14.189  11.471   8.325
98056SOL    HW296001  14.204  11.378   8.443
98057SOL     OW96002   5.298   0.776  10.116
98057SOL    HW196003   5.249   0.791  10.197
98057SOL    HW296004   5.241   0.720  10.064
98058SOL     OW96005   9.628   6.891   6.678
98058SOL    HW196006   9.564   6.858   6.742
98058SOL    HW296007   9.576   6.939   6.614
98059SOL     OW96008  14.819   9.475   6.746
98059SOL    HW196009  14.748   9.411   6.749
98059SOL    HW296010  14.776   9.559   6.762
98060SOL     OW96011  13.006   1.197   3.277
98060SOL    HW196012  12.957   1.122   3.310
98060SOL    HW296013  13.001   1.262   3.347
98061SOL     OW96014   7.880   0.112   3.781
98061SOL    HW196015   7.845   0.122   3.869
98061SOL    HW296016   7.803   0.100   3.725
98062SOL     OW96017   1.567  11.121   4.953
98062SOL    HW196018   1.496  11.068   4.917
98062SOL    HW296019   1.596  11.175   4.879
98063SOL     OW96020   8.748   1.839   0.499
98063SOL    HW196021   8.797   1.918   0.475
98063SOL    HW296022   8.797   1.767   0.459
98064SOL     OW96023   1.261  12.590   6.897
98064SOL    HW196024   1.325  12.543   6.951
98064SOL    HW296025   1.177  12.549   6.918
98065SOL     OW96026   5.462  11.616  13.218
98065SOL    HW196027   5.471  11.636  13.311
98065SOL    HW296028   5.385  11.560  13.213
98066SOL     OW96029   8.176   7.300  11.590
98066SOL    HW196030   8.083   7.319  11.601
98066SOL    HW296031   8.187   7.212  11.624
98067SOL     OW96032   2.535  14.756   0.425
98067SOL    HW196033   2.505  14.845   0.410
98067SOL    HW296034   2.624  14.766   0.459
98068SOL     OW96035   9.643   2.874   0.291
98068SOL    HW196036   9.716   2.936   0.294
98068SOL    HW296037   9.629   2.850   0.382
98069SOL     OW96038  10.622   6.564  13.625
98069SOL    HW196039  10.652   6.559  13.534
98069SOL    HW296040  10.680   6.627  13.667
98070SOL     OW96041  10.064  12.902   2.251
98070SOL    HW196042   9.969  12.898   2.262
98070SOL    HW296043  10.077  12.911   2.157
98071SOL     OW96044   6.310  14.336   2.007
98071SOL    HW196045   6.226  14.290   2.010
98071SOL    HW296046   6.299  14.399   1.936
98072SOL     OW96047   2.158  10.949  12.475
98072SOL    HW196048   2.173  10.925  12.384
98072SOL    HW296049   2.185  11.040  12.481
98073SOL     OW96050   1.468   4.747  13.120
98073SOL    HW196051   1.562   4.731  13.132
98073SOL    HW296052   1.456   4.839  13.146
98074SOL     OW96053   0.809   7.226   4.790
98074SOL    HW196054   0.895   7.218   4.748
98074SOL    HW296055   0.823   7.290   4.860
98075SOL     OW96056  12.663  13.356  12.853
98075SOL    HW196057  12.753  13.338  12.825
98075SOL    HW296058  12.656  13.318  12.940
98076SOL     OW96059  11.408   8.740  12.600
98076SOL    HW196060  11.340   8.747  12.667
98076SOL    HW296061  11.411   8.827  12.559
98077SOL     OW96062  14.474   8.964  12.583
98077SOL    HW196063  14.400   8.995  12.530
98077SOL    HW296064  14.525   8.910  12.523
98078SOL     OW96065   9.243   2.244   3.170
98078SOL    HW196066   9.292   2.203   3.099
98078SOL    HW296067   9.274   2.200   3.249
98079SOL     OW96068   4.922  14.320  12.207
98079SOL    HW196069   4.931  14.246  12.267
98079SOL    HW296070   4.935  14.283  12.120
98080SOL     OW96071   3.872  12.950   9.265
98080SOL    HW196072   3.787  12.952   9.309
98080SOL    HW296073   3.927  13.010   9.314
98081SOL     OW96074   2.847  11.195  14.637
98081SOL    HW196075   2.865  11.289  14.638
98081SOL    HW296076   2.891  11.164  14.557
98082SOL     OW96077   0.920  12.625   4.851
98082SOL    HW196078   0.926  12.708   4.802
98082SOL    HW296079   0.909  12.651   4.942
98083SOL     OW96080   5.752  14.150   8.708
98083SOL    HW196081   5.680  14.212   8.703
98083SOL    HW296082   5.798  14.173   8.789
98084SOL     OW96083  12.050  11.388   8.098
98084SOL    HW196084  12.125  11.363   8.044
98084SOL    HW296085  12.076  11.366   8.187
98085SOL     OW96086   5.133   5.129   4.503
98085SOL    HW196087   5.221   5.153   4.532
98085SOL    HW296088   5.139   5.127   4.407
98086SOL     OW96089  13.820   4.782   6.813
98086SOL    HW196090  13.915   4.770   6.808
98086SOL    HW296091  13.785   4.706   6.766
98087SOL     OW96092  10.578   9.765   4.860
98087SOL    HW196093  10.494   9.721   4.852
98087SOL    HW296094  10.607   9.778   4.769
98088SOL     OW96095   6.244  12.703   6.290
98088SOL    HW196096   6.161  12.655   6.287
98088SOL    HW296097   6.242  12.751   6.373
98089SOL     OW96098  12.712   7.690   5.592
98089SOL    HW196099  12.760   7.742   5.658
98089SOL    HW296100  12.623   7.725   5.595
98090SOL     OW96101   3.366  13.389   9.158
98090SOL    HW196102   3.320  13.321   9.108
98090SOL    HW296103   3.376  13.352   9.246
98091SOL     OW96104   4.189   8.323   2.007
98091SOL    HW196105   4.228   8.279   1.932
98091SOL    HW296106   4.122   8.381   1.969
98092SOL     OW96107   4.443  11.794   0.886
98092SOL    HW196108   4.429  11.883   0.856
98092SOL    HW296109   4.359  11.769   0.926
98093SOL     OW96110   7.841  13.302  14.511
98093SOL    HW196111   7.751  13.334  14.514
98093SOL    HW296112   7.880  13.334  14.592
98094SOL     OW96113   7.984  10.950  11.982
98094SOL    HW196114   7.930  10.995  11.918
98094SOL    HW296115   7.950  10.860  11.983
98095SOL     OW96116   3.241   3.790   4.883
98095SOL    HW196117   3.310   3.784   4.949
98095SOL    HW296118   3.268   3.729   4.814
98096SOL     OW96119   3.745   0.937   2.712
98096SOL    HW196120   3.743   0.878   2.788
98096SOL    HW296121   3.653   0.952   2.691
98097SOL     OW96122  14.711   0.601   7.707
98097SOL    HW196123  14.748   0.645   7.631
98097SOL    HW296124  14.661   0.528   7.671
98098SOL     OW96125  13.807   3.574  12.616
98098SOL    HW196126  13.786   3.487  12.583
98098SOL    HW296127  13.867   3.611  12.551
98099SOL     OW96128   1.646  13.918   0.941
98099SOL    HW196129   1.702  13.858   0.991
98099SOL    HW296130   1.676  13.909   0.851
98100SOL     OW96131   1.159   1.367   2.758
98100SOL    HW196132   1.114   1.376   2.674
98100SOL    HW296133   1.089   1.341   2.819
98101SOL     OW96134   6.537   9.155   9.017
98101SOL    HW196135   6.458   9.208   9.026
98101SOL    HW296136   6.599   9.212   8.970
98102SOL     OW96137   2.117   0.849  12.339
98102SOL    HW196138   2.182   0.779  12.336
98102SOL    HW296139   2.160   0.919  12.387
98103SOL     OW96140   2.410  13.312   8.671
98103SOL    HW196141   2.451  13.399   8.670
98103SOL    HW296142   2.333  13.322   8.727
98104SOL     OW96143   9.279  12.490  13.860
98104SOL    HW196144   9.209  12.502  13.924
98104SOL    HW296145   9.244  12.528  13.779
98105SOL     OW96146   3.082   7.080  12.246
98105SOL    HW196147   3.015   7.076  12.314
98105SOL    HW296148   3.054   7.015  12.182
98106SOL     OW96149   4.297  14.460   3.200
98106SOL    HW196150   4.232  14.445   3.131
98106SOL    HW296151   4.371  14.499   3.154
98107SOL     OW96152  12.292   7.798   9.851
98107SOL    HW196153  12.227   7.849   9.898
98107SOL    HW296154  12.335   7.746   9.918
98108SOL     OW96155  13.389   9.453   1.663
98108SOL    HW196156  13.476   9.482   1.634
98108SOL    HW296157  13.397   9.359   1.673
98109SOL     OW96158  10.735  10.379   8.904
98109SOL    HW196159  10.828  10.387   8.882
98109SOL    HW296160  10.690  10.424   8.832
98110SOL     OW96161  10.812  11.012   2.134
98110SOL    HW196162  10.783  11.064   2.209
98110SOL    HW296163  10.736  10.960   2.109
98111SOL     OW96164  11.934  11.254  13.033
98111SOL    HW196165  11.991  11.237  12.958
98111SOL    HW296166  11.986  11.227  13.109
98112SOL     OW96167  11.733  11.830   1.487
98112SOL    HW196168  11.826  11.853   1.488
98112SOL    HW296169  11.703  11.851   1.399
98113SOL     OW96170  11.018  13.561   2.811
98113SOL    HW196171  11.061  13.643   2.836
98113SOL    HW296172  10.934  13.562   2.857
98114SOL     OW96173   8.743  11.215  14.808
98114SOL    HW196174   8.774  11.144  14.751
98114SOL    HW296175   8.773  11.191   0.013
98115SOL     OW96176   6.599   1.844   3.661
98115SOL    HW196177   6.526   1.872   3.717
98115SOL    HW296178   6.579   1.753   3.639
98116SOL     OW96179   6.521  13.627   8.103
98116SOL    HW196180   6.572  13.701   8.070
98116SOL    HW296181   6.575  13.591   8.174
98117SOL     OW96182   9.995  13.063   7.365
98117SOL    HW196183  10.063  13.102   7.310
98117SOL    HW296184   9.983  12.976   7.328
98118SOL     OW96185   0.838   1.339   3.635
98118SOL    HW196186   0.771   1.302   3.578
98118SOL    HW296187   0.912   1.357   3.577
98119SOL     OW96188   4.083   6.187  13.728
98119SOL    HW196189   4.029   6.128  13.781
98119SOL    HW296190   4.085   6.269  13.778
98120SOL     OW96191   4.235  13.441   4.508
98120SOL    HW196192   4.207  13.374   4.570
98120SOL    HW296193   4.232  13.523   4.558
98121SOL     OW96194   3.463   7.256  11.473
98121SOL    HW196195   3.371   7.248  11.447
98121SOL    HW296196   3.462   7.243  11.568
98122SOL     OW96197   4.319   4.306   0.205
98122SOL    HW196198   4.403   4.328   0.246
98122SOL    HW296199   4.258   4.297   0.278
98123SOL     OW96200  11.651   0.115   4.391
98123SOL    HW196201  11.723   0.121   4.328
98123SOL    HW296202  11.589   0.182   4.362
98124SOL     OW96203   8.859   2.903   1.574
98124SOL    HW196204   8.914   2.864   1.506
98124SOL    HW296205   8.806   2.830   1.607
98125SOL     OW96206   1.880   9.289   5.936
98125SOL    HW196207   1.950   9.230   5.963
98125SOL    HW296208   1.823   9.294   6.013
98126SOL     OW96209   5.130  14.722   6.161
98126SOL    HW196210   5.099  14.639   6.125
98126SOL    HW296211   5.170  14.767   6.086
98127SOL     OW96212   3.606   4.736   1.230
98127SOL    HW196213   3.611   4.706   1.139
98127SOL    HW296214   3.651   4.820   1.230
98128SOL     OW96215   3.058   0.618   9.330
98128SOL    HW196216   3.017   0.699   9.297
98128SOL    HW296217   3.088   0.573   9.252
98129SOL     OW96218   7.789  11.527  10.154
98129SOL    HW196219   7.839  11.606  10.137
98129SOL    HW296220   7.800  11.474  10.076
98130SOL     OW96221   8.205  14.011  14.347
98130SOL    HW196222   8.217  13.940  14.283
98130SOL    HW296223   8.242  14.088  14.304
98131SOL     OW96224   4.344  14.287   0.225
98131SOL    HW196225   4.341  14.362   0.165
98131SOL    HW296226   4.274  14.304   0.288
98132SOL     OW96227   4.800   2.353   7.603
98132SOL    HW196228   4.758   2.436   7.623
98132SOL    HW296229   4.875   2.350   7.663
98133SOL     OW96230   5.059   8.812   5.815
98133SOL    HW196231   4.980   8.766   5.844
98133SOL    HW296232   5.128   8.746   5.820
98134SOL     OW96233  12.121   5.746   3.609
98134SOL    HW196234  12.066   5.822   3.629
98134SOL    HW296235  12.123   5.742   3.513
98135SOL     OW96236   8.172   2.939   2.338
98135SOL    HW196237   8.198   3.004   2.403
98135SOL    HW296238   8.237   2.869   2.347
98136SOL     OW96239  14.386   8.708   7.100
98136SOL    HW196240  14.423   8.628   7.065
98136SOL    HW296241  14.456   8.747   7.152
98137SOL     OW96242  14.653   7.735  12.085
98137SOL    HW196243  14.730   7.680  12.070
98137SOL    HW296244  14.689   7.817  12.120
98138SOL     OW96245   1.098   6.268   3.242
98138SOL    HW196246   1.056   6.255   3.327
98138SOL    HW296247   1.190   6.247   3.257
98139SOL     OW96248  13.634   3.764   1.338
98139SOL    HW196249  13.653   3.772   1.244
98139SOL    HW296250  13.568   3.831   1.355
98140SOL     OW96251   7.736   7.834  13.934
98140SOL    HW196252   7.685   7.878  13.866
98140SOL    HW296253   7.760   7.749  13.897
98141SOL     OW96254  10.662  10.618  12.901
98141SOL    HW196255  10.628  10.547  12.848
98141SOL    HW296256  10.602  10.691  12.886
98142SOL     OW96257   1.358   9.329   0.872
98142SOL    HW196258   1.326   9.299   0.957
98142SOL    HW296259   1.441   9.283   0.860
98143SOL     OW96260  10.378  14.790  12.387
98143SOL    HW196261  10.320  14.737  12.332
98143SOL    HW296262  10.394  14.736  12.465
98144SOL     OW96263   1.392   4.348   2.911
98144SOL    HW196264   1.322   4.351   2.976
98144SOL    HW296265   1.371   4.272   2.857
98145SOL     OW96266   6.745   7.776   6.881
98145SOL    HW196267   6.666   7.825   6.858
98145SOL    HW296268   6.738   7.696   6.829
98146SOL     OW96269   1.884   2.801  10.150
98146SOL    HW196270   1.937   2.850  10.212
98146SOL    HW296271   1.803   2.852  10.142
98147SOL     OW96272  10.782  13.319   6.131
98147SOL    HW196273  10.793  13.350   6.221
98147SOL    HW296274  10.701  13.268   6.133
98148SOL     OW96275   1.742   3.934   1.987
98148SOL    HW196276   1.663   3.882   1.972
98148SOL    HW296277   1.713   4.025   1.979
98149SOL     OW96278   6.909   3.783   1.784
98149SOL    HW196279   6.976   3.761   1.718
98149SOL    HW296280   6.845   3.836   1.736
98150SOL     OW96281   6.325  11.971  13.082
98150SOL    HW196282   6.374  12.050  13.061
98150SOL    HW296283   6.289  11.942  12.998
98151SOL     OW96284   2.639   6.749  11.212
98151SOL    HW196285   2.616   6.714  11.126
98151SOL    HW296286   2.727   6.714  11.228
98152SOL     OW96287   6.919   6.719   5.201
98152SOL    HW196288   6.857   6.656   5.165
98152SOL    HW296289   6.976   6.741   5.127
98153SOL     OW96290   1.784   0.042   2.885
98153SOL    HW196291   1.809  14.857   2.821
98153SOL    HW296292   1.733   0.105   2.835
98154SOL     OW96293  12.574  14.242   1.100
98154SOL    HW196294  12.531  14.299   1.036
98154SOL    HW296295  12.667  14.253   1.083
98155SOL     OW96296   1.874   8.229  11.966
98155SOL    HW196297   1.918   8.159  11.918
98155SOL    HW296298   1.917   8.309  11.934
98156SOL     OW96299  10.298   9.466   8.952
98156SOL    HW196300  10.308   9.439   9.043
98156SOL    HW296301  10.314   9.386   8.901
98157SOL     OW96302   4.762   1.829   1.495
98157SOL    HW196303   4.856   1.830   1.511
98157SOL    HW296304   4.742   1.738   1.473
98158SOL     OW96305   4.496  11.126  10.543
98158SOL    HW196306   4.573  11.117  10.600
98158SOL    HW296307   4.510  11.061  10.474
98159SOL     OW96308   0.674   6.058  10.079
98159SOL    HW196309   0.633   6.143  10.096
98159SOL    HW296310   0.748   6.055  10.140
98160SOL     OW96311  12.172   3.039   7.777
98160SOL    HW196312  12.213   3.013   7.695
98160SOL    HW296313  12.163   2.958   7.826
98161SOL     OW96314   0.187   6.093   5.048
98161SOL    HW196315   0.174   6.180   5.012
98161SOL    HW296316   0.253   6.104   5.115
98162SOL     OW96317   4.989  10.801   1.968
98162SOL    HW196318   4.962  10.829   2.055
98162SOL    HW296319   5.080  10.828   1.961
98163SOL     OW96320  13.180   1.483   6.225
98163SOL    HW196321  13.186   1.387   6.227
98163SOL    HW296322  13.254   1.512   6.279
98164SOL     OW96323   5.499   0.528   6.496
98164SOL    HW196324   5.515   0.622   6.506
98164SOL    HW296325   5.469   0.499   6.582
98165SOL     OW96326   5.017   9.237   5.815
98165SOL    HW196327   5.017   9.270   5.905
98165SOL    HW296328   5.014   9.317   5.761
98166SOL     OW96329  10.417   6.526   8.812
98166SOL    HW196330  10.412   6.496   8.903
98166SOL    HW296331  10.423   6.621   8.818
98167SOL     OW96332   5.759  14.872   5.292
98167SOL    HW196333   5.789   0.078   5.268
98167SOL    HW296334   5.786  14.863   5.384
98168SOL     OW96335   2.990   5.547   9.671
98168SOL    HW196336   3.018   5.575   9.758
98168SOL    HW296337   3.060   5.577   9.613
98169SOL     OW96338  11.729  13.020   5.354
98169SOL    HW196339  11.714  12.969   5.435
98169SOL    HW296340  11.759  12.955   5.291
98170SOL     OW96341   9.116   2.080   7.457
98170SOL    HW196342   9.110   2.081   7.552
98170SOL    HW296343   9.053   2.013   7.429
98171SOL     OW96344   5.258  10.701   6.266
98171SOL    HW196345   5.277  10.704   6.172
98171SOL    HW296346   5.344  10.693   6.307
98172SOL     OW96347  14.622   3.781   3.092
98172SOL    HW196348  14.631   3.686   3.087
98172SOL    HW296349  14.577   3.805   3.011
98173SOL     OW96350   2.910   4.472   8.405
98173SOL    HW196351   2.937   4.564   8.404
98173SOL    HW296352   2.971   4.429   8.346
98174SOL     OW96353   9.013  11.989   6.643
98174SOL    HW196354   9.008  12.022   6.732
98174SOL    HW296355   8.944  11.922   6.638
98175SOL     OW96356   5.138  14.662   7.198
98175SOL    HW196357   5.117  14.743   7.244
98175SOL    HW296358   5.055  14.614   7.194
98176SOL     OW96359   7.320  10.288   8.203
98176SOL    HW196360   7.416  10.285   8.203
98176SOL    HW296361   7.294  10.219   8.142
98177SOL     OW96362  13.454  11.857  10.639
98177SOL    HW196363  13.511  11.903  10.577
98177SOL    HW296364  13.369  11.852  10.594
98178SOL     OW96365  11.156  14.379   6.430
98178SOL    HW196366  11.163  14.434   6.509
98178SOL    HW296367  11.149  14.441   6.358
98179SOL     OW96368   6.800   4.689  13.007
98179SOL    HW196369   6.860   4.693  12.933
98179SOL    HW296370   6.731   4.752  12.986
98180SOL     OW96371   3.022   0.636   1.884
98180SOL    HW196372   2.972   0.607   1.960
98180SOL    HW296373   3.058   0.556   1.847
98181SOL     OW96374   1.402   7.876   1.198
98181SOL    HW196375   1.387   7.830   1.281
98181SOL    HW296376   1.315   7.903   1.169
98182SOL     OW96377   3.038   5.543   6.350
98182SOL    HW196378   2.994   5.609   6.296
98182SOL    HW296379   3.038   5.581   6.438
98183SOL     OW96380  13.306   6.167   1.183
98183SOL    HW196381  13.370   6.129   1.243
98183SOL    HW296382  13.345   6.157   1.097
98184SOL     OW96383  14.186  14.553   1.349
98184SOL    HW196384  14.241  14.480   1.380
98184SOL    HW296385  14.118  14.562   1.416
98185SOL     OW96386   6.154   2.806   6.302
98185SOL    HW196387   6.092   2.832   6.234
98185SOL    HW296388   6.108   2.823   6.384
98186SOL     OW96389  10.645   5.513   9.314
98186SOL    HW196390  10.683   5.518   9.402
98186SOL    HW296391  10.633   5.604   9.288
98187SOL     OW96392   7.729   6.529   4.193
98187SOL    HW196393   7.766   6.617   4.201
98187SOL    HW296394   7.720   6.499   4.284
98188SOL     OW96395  10.561  14.455   0.932
98188SOL    HW196396  10.469  14.434   0.944
98188SOL    HW296397  10.608  14.389   0.983
98189SOL     OW96398   5.786   5.243   7.526
98189SOL    HW196399   5.758   5.270   7.438
98189SOL    HW296400   5.797   5.325   7.574
98190SOL     OW96401   5.957  12.889   9.066
98190SOL    HW196402   5.984  12.831   8.994
98190SOL    HW296403   6.031  12.948   9.078
98191SOL     OW96404  11.565  11.818   3.010
98191SOL    HW196405  11.591  11.837   3.101
98191SOL    HW296406  11.558  11.722   3.007
98192SOL     OW96407   8.181  14.716   9.626
98192SOL    HW196408   8.093  14.743   9.600
98192SOL    HW296409   8.169  14.678   9.713
98193SOL     OW96410   8.059  10.216   9.123
98193SOL    HW196411   8.145  10.204   9.084
98193SOL    HW296412   8.061  10.305   9.158
98194SOL     OW96413   8.613  11.547   4.273
98194SOL    HW196414   8.520  11.526   4.259
98194SOL    HW296415   8.653  11.538   4.186
98195SOL     OW96416   8.103  10.160   4.426
98195SOL    HW196417   8.029  10.100   4.421
98195SOL    HW296418   8.069  10.235   4.475
98196SOL     OW96419   2.521   4.703   5.220
98196SOL    HW196420   2.448   4.761   5.246
98196SOL    HW296421   2.499   4.619   5.260
98197SOL     OW96422   9.888  12.192   2.801
98197SOL    HW196423   9.897  12.101   2.828
98197SOL    HW296424   9.946  12.240   2.860
98198SOL     OW96425  11.623  14.333   3.644
98198SOL    HW196426  11.710  14.311   3.678
98198SOL    HW296427  11.564  14.279   3.696
98199SOL     OW96428   4.828   3.161   0.283
98199SOL    HW196429   4.837   3.081   0.335
98199SOL    HW296430   4.825   3.231   0.348
98200SOL     OW96431   5.914   1.139   8.099
98200SOL    HW196432   5.988   1.078   8.094
98200SOL    HW296433   5.939   1.201   8.168
98201SOL     OW96434   5.566   2.720  10.008
98201SOL    HW196435   5.587   2.765   9.926
98201SOL    HW296436   5.636   2.656  10.019
98202SOL     OW96437   1.937   3.586  11.096
98202SOL    HW196438   1.950   3.492  11.107
98202SOL    HW296439   2.004   3.626  11.151
98203SOL     OW96440  10.519  14.484  10.586
98203SOL    HW196441  10.600  14.508  10.541
98203SOL    HW296442  10.516  14.388  10.581
98204SOL     OW96443   0.884  13.931   9.830
98204SOL    HW196444   0.908  13.997   9.766
98204SOL    HW296445   0.803  13.893   9.796
98205SOL     OW96446   6.226   7.405  12.113
98205SOL    HW196447   6.151   7.348  12.097
98205SOL    HW296448   6.196   7.465  12.182
98206SOL     OW96449   0.686  13.560   3.738
98206SOL    HW196450   0.668  13.467   3.745
98206SOL    HW296451   0.751  13.578   3.806
98207SOL     OW96452  14.425  14.096   4.757
98207SOL    HW196453  14.352  14.037   4.776
98207SOL    HW296454  14.430  14.097   4.661
98208SOL     OW96455  12.104   7.703  10.355
98208SOL    HW196456  12.096   7.782  10.409
98208SOL    HW296457  12.191   7.709  10.316
98209SOL     OW96458  11.072   5.664   5.192
98209SOL    HW196459  11.146   5.603   5.193
98209SOL    HW296460  11.089   5.721   5.117
98210SOL     OW96461   1.903   3.816   6.673
98210SOL    HW196462   1.962   3.795   6.601
98210SOL    HW296463   1.933   3.760   6.745
98211SOL     OW96464  11.661   1.269  14.555
98211SOL    HW196465  11.705   1.185  14.564
98211SOL    HW296466  11.568   1.249  14.569
98212SOL     OW96467   0.343  12.322   3.897
98212SOL    HW196468   0.359  12.383   3.825
98212SOL    HW296469   0.326  12.377   3.973
98213SOL     OW96470  12.559  12.615   1.064
98213SOL    HW196471  12.606  12.666   1.130
98213SOL    HW296472  12.622  12.548   1.037
98214SOL     OW96473  13.469   2.791   9.504
98214SOL    HW196474  13.490   2.784   9.597
98214SOL    HW296475  13.403   2.723   9.489
98215SOL     OW96476   3.607   9.984  12.105
98215SOL    HW196477   3.555  10.063  12.121
98215SOL    HW296478   3.631   9.953  12.192
98216SOL     OW96479  10.631   9.574   4.432
98216SOL    HW196480  10.670   9.535   4.354
98216SOL    HW296481  10.567   9.636   4.398
98217SOL     OW96482   6.802   2.240   7.812
98217SOL    HW196483   6.785   2.181   7.738
98217SOL    HW296484   6.746   2.209   7.882
98218SOL     OW96485  12.666  13.161  13.842
98218SOL    HW196486  12.716  13.149  13.762
98218SOL    HW296487  12.644  13.254  13.844
98219SOL     OW96488   0.695   6.104   7.241
98219SOL    HW196489   0.678   6.111   7.335
98219SOL    HW296490   0.769   6.163   7.225
98220SOL     OW96491   1.302   5.464   9.908
98220SOL    HW196492   1.208   5.445   9.899
98220SOL    HW296493   1.346   5.381   9.890
98221SOL     OW96494   9.383   5.066   1.210
98221SOL    HW196495   9.471   5.027   1.216
98221SOL    HW296496   9.373   5.085   1.116
98222SOL     OW96497   3.533   4.085   1.947
98222SOL    HW196498   3.514   4.057   2.037
98222SOL    HW296499   3.454   4.131   1.919
98223SOL     OW96500  13.757   8.354   4.579
98223SOL    HW196501  13.754   8.394   4.665
98223SOL    HW296502  13.697   8.406   4.525
98224SOL     OW96503  12.581  14.241   1.540
98224SOL    HW196504  12.556  14.330   1.565
98224SOL    HW296505  12.645  14.215   1.607
98225SOL     OW96506   1.911   6.079  10.048
98225SOL    HW196507   1.825   6.116  10.064
98225SOL    HW296508   1.895   6.003   9.992
98226SOL     OW96509   0.205  10.077  14.103
98226SOL    HW196510   0.213  10.171  14.086
98226SOL    HW296511   0.214  10.069  14.198
98227SOL     OW96512   6.296   8.516   0.153
98227SOL    HW196513   6.237   8.451   0.117
98227SOL    HW296514   6.327   8.565   0.076
98228SOL     OW96515  14.486   8.627   2.181
98228SOL    HW196516  14.390   8.632   2.172
98228SOL    HW296517  14.504   8.534   2.195
98229SOL     OW96518  13.550   2.291   1.652
98229SOL    HW196519  13.635   2.277   1.694
98229SOL    HW296520  13.532   2.208   1.606
98230SOL     OW96521  14.663   4.442   0.978
98230SOL    HW196522  14.689   4.469   0.890
98230SOL    HW296523  14.687   4.516   1.034
98231SOL     OW96524   4.160   4.897   8.924
98231SOL    HW196525   4.114   4.981   8.920
98231SOL    HW296526   4.143   4.857   8.839
98232SOL     OW96527   0.974  10.639   5.872
98232SOL    HW196528   0.961  10.734   5.869
98232SOL    HW296529   0.894  10.605   5.912
98233SOL     OW96530   2.744   0.047   5.816
98233SOL    HW196531   2.799  14.850   5.808
98233SOL    HW296532   2.703   0.039   5.902
98234SOL     OW96533   2.550  10.915   4.469
98234SOL    HW196534   2.560  11.009   4.482
98234SOL    HW296535   2.471  10.907   4.415
98235SOL     OW96536   4.462   1.919  13.225
98235SOL    HW196537   4.418   1.983  13.282
98235SOL    HW296538   4.451   1.835  13.270
98236SOL     OW96539   4.548  13.466  13.270
98236SOL    HW196540   4.476  13.509  13.316
98236SOL    HW296541   4.627  13.499  13.311
98237SOL     OW96542   4.038   5.251  12.090
98237SOL    HW196543   4.066   5.160  12.081
98237SOL    HW296544   3.970   5.262  12.023
98238SOL     OW96545   5.429  10.936   6.647
98238SOL    HW196546   5.522  10.910   6.648
98238SOL    HW296547   5.382  10.853   6.651
98239SOL     OW96548   3.117   5.111   3.826
98239SOL    HW196549   3.123   5.128   3.920
98239SOL    HW296550   3.037   5.156   3.798
98240SOL     OW96551  10.222   1.328  10.395
98240SOL    HW196552  10.135   1.297  10.369
98240SOL    HW296553  10.234   1.408  10.343
98241SOL     OW96554  12.989   8.946   0.933
98241SOL    HW196555  12.902   8.941   0.895
98241SOL    HW296556  13.025   9.028   0.901
98242SOL     OW96557  12.741   0.939   3.593
98242SOL    HW196558  12.735   1.021   3.544
98242SOL    HW296559  12.693   0.876   3.540
98243SOL     OW96560  14.361  11.798  11.646
98243SOL    HW196561  14.401  11.780  11.561
98243SOL    HW296562  14.283  11.743  11.648
98244SOL     OW96563   7.881   1.852   9.768
98244SOL    HW196564   7.834   1.848   9.852
98244SOL    HW296565   7.970   1.822   9.790
98245SOL     OW96566   6.375  12.961   4.682
98245SOL    HW196567   6.460  12.936   4.644
98245SOL    HW296568   6.371  12.911   4.764
98246SOL     OW96569  12.976   2.826   0.841
98246SOL    HW196570  13.027   2.819   0.921
98246SOL    HW296571  12.885   2.815   0.869
98247SOL     OW96572   9.597   9.922  10.496
98247SOL    HW196573   9.616  10.016  10.495
98247SOL    HW296574   9.519   9.915  10.552
98248SOL     OW96575   0.457  11.046   8.308
98248SOL    HW196576   0.438  11.124   8.360
98248SOL    HW296577   0.549  11.055   8.284
98249SOL     OW96578   7.273  13.043  14.195
98249SOL    HW196579   7.243  13.100  14.124
98249SOL    HW296580   7.207  12.974  14.200
98250SOL     OW96581   3.122   0.066   2.601
98250SOL    HW196582   3.154   0.155   2.617
98250SOL    HW296583   3.190   0.009   2.636
98251SOL     OW96584   1.004   9.571  11.971
98251SOL    HW196585   1.018   9.547  11.879
98251SOL    HW296586   0.949   9.501  12.005
98252SOL     OW96587   8.229   5.918   6.853
98252SOL    HW196588   8.286   5.940   6.779
98252SOL    HW296589   8.150   5.970   6.839
98253SOL     OW96590  10.662   6.073   7.870
98253SOL    HW196591  10.601   6.002   7.893
98253SOL    HW296592  10.748   6.032   7.875
98254SOL     OW96593  11.789  13.478  13.809
98254SOL    HW196594  11.875  13.501  13.775
98254SOL    HW296595  11.742  13.440  13.734
98255SOL     OW96596   4.073  14.610   3.408
98255SOL    HW196597   4.100  14.549   3.476
98255SOL    HW296598   4.116  14.693   3.431
98256SOL     OW96599  13.230  12.958  11.943
98256SOL    HW196600  13.321  12.968  11.918
98256SOL    HW296601  13.228  12.877  11.994
98257SOL     OW96602   4.623   1.364   7.809
98257SOL    HW196603   4.684   1.438   7.817
98257SOL    HW296604   4.536   1.403   7.817
98258SOL     OW96605  11.480  12.007   2.355
98258SOL    HW196606  11.559  11.955   2.339
98258SOL    HW296607  11.492  12.087   2.304
98259SOL     OW96608   6.566   4.111  14.847
98259SOL    HW196609   6.478   4.073  14.846
98259SOL    HW296610   6.620   4.047  14.801
98260SOL     OW96611   6.291   9.793   7.051
98260SOL    HW196612   6.250   9.751   6.975
98260SOL    HW296613   6.384   9.778   7.039
98261SOL     OW96614   7.656   0.251  13.529
98261SOL    HW196615   7.681   0.219  13.616
98261SOL    HW296616   7.738   0.251  13.480
98262SOL     OW96617  11.834   9.037  12.789
98262SOL    HW196618  11.827   9.062  12.881
98262SOL    HW296619  11.853   8.943  12.791
98263SOL     OW96620   9.925  13.314   6.038
98263SOL    HW196621   9.987  13.365   5.986
98263SOL    HW296622   9.911  13.367   6.117
98264SOL     OW96623   4.132   4.916  12.544
98264SOL    HW196624   4.167   4.830  12.519
98264SOL    HW296625   4.210   4.968  12.564
98265SOL     OW96626  11.096   8.374   7.064
98265SOL    HW196627  11.144   8.387   6.982
98265SOL    HW296628  11.124   8.446   7.120
98266SOL     OW96629   0.780  14.249   7.257
98266SOL    HW196630   0.810  14.159   7.249
98266SOL    HW296631   0.812  14.293   7.178
98267SOL     OW96632  13.782   3.126   1.688
98267SOL    HW196633  13.731   3.203   1.714
98267SOL    HW296634  13.716   3.057   1.676
98268SOL     OW96635   9.909  12.885   0.472
98268SOL    HW196636   9.826  12.840   0.485
98268SOL    HW296637   9.938  12.858   0.384
98269SOL     OW96638   2.842   9.207   2.798
98269SOL    HW196639   2.892   9.133   2.764
98269SOL    HW296640   2.789   9.237   2.724
98270SOL     OW96641   6.741  12.458  12.207
98270SOL    HW196642   6.822  12.484  12.251
98270SOL    HW296643   6.672  12.487  12.266
98271SOL     OW96644   1.341  14.731   9.318
98271SOL    HW196645   1.268  14.729   9.255
98271SOL    HW296646   1.316  14.800   9.380
98272SOL     OW96647   6.908  14.651  13.240
98272SOL    HW196648   6.871  14.677  13.324
98272SOL    HW296649   6.835  14.612  13.193
98273SOL     OW96650  12.418  12.230   8.369
98273SOL    HW196651  12.411  12.309   8.422
98273SOL    HW296652  12.496  12.244   8.315
98274SOL     OW96653   4.323  12.262   1.185
98274SOL    HW196654   4.283  12.259   1.272
98274SOL    HW296655   4.417  12.268   1.204
98275SOL     OW96656   5.055  10.126   5.734
98275SOL    HW196657   5.141  10.085   5.746
98275SOL    HW296658   5.059  10.206   5.785
98276SOL     OW96659   4.192  10.378  12.110
98276SOL    HW196660   4.285  10.402  12.105
98276SOL    HW296661   4.165  10.368  12.019
98277SOL     OW96662  14.537   6.725   9.504
98277SOL    HW196663  14.619   6.675   9.499
98277SOL    HW296664  14.500   6.701   9.589
98278SOL     OW96665  13.916   7.241   6.943
98278SOL    HW196666  13.866   7.285   7.012
98278SOL    HW296667  13.862   7.166   6.918
98279SOL     OW96668  13.776  11.377  10.093
98279SOL    HW196669  13.848  11.349  10.037
98279SOL    HW296670  13.816  11.438  10.155
98280SOL     OW96671   3.704  11.523   4.084
98280SOL    HW196672   3.628  11.480   4.125
98280SOL    HW296673   3.677  11.537   3.993
98281SOL     OW96674  13.718   7.179   0.393
98281SOL    HW196675  13.651   7.138   0.448
98281SOL    HW296676  13.685   7.267   0.377
98282SOL     OW96677   3.146  11.491   8.199
98282SOL    HW196678   3.179  11.453   8.281
98282SOL    HW296679   3.218  11.546   8.168
98283SOL     OW96680   5.494  11.613   3.829
98283SOL    HW196681   5.428  11.678   3.851
98283SOL    HW296682   5.567  11.630   3.889
98284SOL     OW96683  14.642  11.855  10.086
98284SOL    HW196684  14.576  11.887  10.148
98284SOL    HW296685  14.705  11.927  10.078
98285SOL     OW96686   3.284   0.221   9.061
98285SOL    HW196687   3.357   0.181   9.013
98285SOL    HW296688   3.220   0.242   8.993
98286SOL     OW96689  14.324   2.480   0.991
98286SOL    HW196690  14.254   2.531   1.031
98286SOL    HW296691  14.397   2.488   1.052
98287SOL     OW96692  10.519   5.920   2.710
98287SOL    HW196693  10.522   5.829   2.679
98287SOL    HW296694  10.506   5.971   2.630
98288SOL     OW96695  10.735   1.188   6.664
98288SOL    HW196696  10.821   1.158   6.692
98288SOL    HW296697  10.681   1.184   6.743
98289SOL     OW96698  13.993   3.287   5.161
98289SOL    HW196699  13.951   3.322   5.083
98289SOL    HW296700  13.924   3.284   5.227
98290SOL     OW96701  14.350  12.192  14.468
98290SOL    HW196702  14.429  12.141  14.448
98290SOL    HW296703  14.378  12.253  14.536
98291SOL     OW96704  11.988   2.876  10.733
98291SOL    HW196705  11.959   2.841  10.817
98291SOL    HW296706  12.016   2.966  10.753
98292SOL     OW96707   2.649   3.675   2.982
98292SOL    HW196708   2.617   3.717   2.901
98292SOL    HW296709   2.674   3.587   2.955
98293SOL     OW96710   0.735   5.970  14.237
98293SOL    HW196711   0.713   5.964  14.144
98293SOL    HW296712   0.651   5.984  14.280
98294SOL     OW96713   9.997   5.092  14.218
98294SOL    HW196714  10.057   5.024  14.249
98294SOL    HW296715  10.035   5.174  14.250
98295SOL     OW96716   5.584  13.042  10.278
98295SOL    HW196717   5.519  13.102  10.314
98295SOL    HW296718   5.659  13.049  10.336
98296SOL     OW96719   1.277   9.796   1.913
98296SOL    HW196720   1.223   9.870   1.887
98296SOL    HW296721   1.331   9.829   1.985
98297SOL     OW96722   0.272   9.076   9.856
98297SOL    HW196723   0.246   9.131   9.783
98297SOL    HW296724   0.204   9.089   9.922
98298SOL     OW96725   7.959   9.349   4.691
98298SOL    HW196726   7.991   9.293   4.761
98298SOL    HW296727   7.906   9.415   4.736
98299SOL     OW96728  14.244  10.459   4.126
98299SOL    HW196729  14.163  10.478   4.173
98299SOL    HW296730  14.309  10.519   4.163
98300SOL     OW96731  10.176   0.709   7.718
98300SOL    HW196732  10.152   0.764   7.643
98300SOL    HW296733  10.122   0.741   7.790
98301SOL     OW96734  12.012   3.156  11.316
98301SOL    HW196735  12.064   3.090  11.363
98301SOL    HW296736  12.061   3.173  11.236
98302SOL     OW96737   6.726   1.460   8.436
98302SOL    HW196738   6.649   1.418   8.399
98302SOL    HW296739   6.800   1.415   8.396
98303SOL     OW96740   7.874   9.806  12.117
98303SOL    HW196741   7.847   9.716  12.135
98303SOL    HW296742   7.802   9.843  12.066
98304SOL     OW96743  10.758   7.036  13.551
98304SOL    HW196744  10.735   6.972  13.484
98304SOL    HW296745  10.853   7.042  13.546
98305SOL     OW96746   5.129  10.423   7.719
98305SOL    HW196747   5.216  10.394   7.691
98305SOL    HW296748   5.087  10.343   7.752
98306SOL     OW96749   9.181   7.261   8.310
98306SOL    HW196750   9.134   7.259   8.227
98306SOL    HW296751   9.213   7.351   8.318
98307SOL     OW96752  10.626  10.805  11.699
98307SOL    HW196753  10.531  10.805  11.695
98307SOL    HW296754  10.653  10.767  11.615
98308SOL     OW96755  10.405  10.947   3.577
98308SOL    HW196756  10.380  11.002   3.503
98308SOL    HW296757  10.486  10.985   3.609
98309SOL     OW96758   8.454   9.240  12.094
98309SOL    HW196759   8.494   9.326  12.093
98309SOL    HW296760   8.363   9.255  12.067
98310SOL     OW96761   7.844   5.409   5.876
98310SOL    HW196762   7.780   5.349   5.914
98310SOL    HW296763   7.891   5.355   5.812
98311SOL     OW96764  12.982  14.107  10.814
98311SOL    HW196765  12.910  14.085  10.874
98311SOL    HW296766  12.959  14.194  10.781
98312SOL     OW96767  13.153   6.682  12.065
98312SOL    HW196768  13.200   6.617  12.013
98312SOL    HW296769  13.074   6.637  12.095
98313SOL     OW96770   0.113   6.632  11.281
98313SOL    HW196771   0.176   6.587  11.336
98313SOL    HW296772   0.037   6.646  11.337
98314SOL     OW96773   5.836  11.603   9.633
98314SOL    HW196774   5.769  11.558   9.685
98314SOL    HW296775   5.831  11.562   9.547
98315SOL     OW96776   5.649  10.677   1.936
98315SOL    HW196777   5.557  10.661   1.917
98315SOL    HW296778   5.665  10.629   2.018
98316SOL     OW96779   0.297   2.070   6.539
98316SOL    HW196780   0.224   2.014   6.512
98316SOL    HW296781   0.294   2.068   6.635
98317SOL     OW96782  14.882  14.517  14.017
98317SOL    HW196783   0.091  14.496  13.995
98317SOL    HW296784   0.004  14.556  14.104
98318SOL     OW96785  10.852  10.931   4.128
98318SOL    HW196786  10.907  10.993   4.176
98318SOL    HW296787  10.763  10.949   4.160
98319SOL     OW96788   6.841   4.993  12.584
98319SOL    HW196789   6.891   4.995  12.503
98319SOL    HW296790   6.798   5.079  12.587
98320SOL     OW96791  14.351   2.757   4.194
98320SOL    HW196792  14.412   2.694   4.156
98320SOL    HW296793  14.372   2.840   4.150
98321SOL     OW96794  14.482  13.351   9.761
98321SOL    HW196795  14.421  13.283   9.789
98321SOL    HW296796  14.459  13.369   9.670
98322SOL     OW96797   3.628   9.953  12.365
98322SOL    HW196798   3.598  10.009  12.436
98322SOL    HW296799   3.723   9.947  12.378
98323SOL     OW96800  11.815  10.721  12.920
98323SOL    HW196801  11.795  10.627  12.919
98323SOL    HW296802  11.809  10.746  13.013
98324SOL     OW96803   3.527   9.050   5.810
98324SOL    HW196804   3.529   9.145   5.797
98324SOL    HW296805   3.571   9.015   5.733
98325SOL     OW96806   7.859   7.185  11.256
98325SOL    HW196807   7.878   7.116  11.192
98325SOL    HW296808   7.916   7.166  11.330
98326SOL     OW96809   2.972   2.958   9.229
98326SOL    HW196810   2.880   2.958   9.254
98326SOL    HW296811   2.977   2.894   9.158
98327SOL     OW96812   7.339   2.359   7.578
98327SOL    HW196813   7.381   2.323   7.499
98327SOL    HW296814   7.385   2.441   7.595
98328SOL     OW96815   6.320  11.361   0.242
98328SOL    HW196816   6.380  11.431   0.216
98328SOL    HW296817   6.263  11.401   0.307
98329SOL     OW96818  14.866   2.683  11.525
98329SOL    HW196819   0.019   2.617  11.585
98329SOL    HW296820  14.882   2.767  11.570
98330SOL     OW96821  13.312   0.258   7.326
98330SOL    HW196822  13.301   0.231   7.418
98330SOL    HW296823  13.376   0.329   7.329
98331SOL     OW96824   7.026   7.269  13.787
98331SOL    HW196825   7.060   7.223  13.711
98331SOL    HW296826   6.964   7.208  13.826
98332SOL     OW96827   4.269   9.964   7.648
98332SOL    HW196828   4.254   9.884   7.698
98332SOL    HW296829   4.345  10.004   7.691
98333SOL     OW96830   2.859   4.350  13.384
98333SOL    HW196831   2.862   4.446  13.387
98333SOL    HW296832   2.892   4.327  13.297
98334SOL     OW96833   4.286  12.962  11.725
98334SOL    HW196834   4.265  12.927  11.638
98334SOL    HW296835   4.317  13.051  11.709
98335SOL     OW96836   1.385   6.686  14.760
98335SOL    HW196837   1.405   6.739  14.838
98335SOL    HW296838   1.400   6.596  14.788
98336SOL     OW96839   2.866   9.048  10.761
98336SOL    HW196840   2.915   9.008  10.689
98336SOL    HW296841   2.810   9.113  10.719
98337SOL     OW96842   3.491  13.011  13.231
98337SOL    HW196843   3.512  12.950  13.301
98337SOL    HW296844   3.401  12.988  13.206
98338SOL     OW96845   2.353   2.362  13.306
98338SOL    HW196846   2.318   2.321  13.385
98338SOL    HW296847   2.278   2.367  13.247
98339SOL     OW96848   8.383   3.489   3.759
98339SOL    HW196849   8.469   3.526   3.783
98339SOL    HW296850   8.399   3.445   3.675
98340SOL     OW96851   0.388   7.538   3.562
98340SOL    HW196852   0.323   7.575   3.622
98340SOL    HW296853   0.470   7.541   3.612
98341SOL     OW96854  12.846   5.872   6.377
98341SOL    HW196855  12.908   5.854   6.307
98341SOL    HW296856  12.901   5.879   6.456
98342SOL     OW96857   1.092   3.926  12.263
98342SOL    HW196858   1.155   3.857  12.239
98342SOL    HW296859   1.019   3.913  12.202
98343SOL     OW96860   2.465   7.366   0.303
98343SOL    HW196861   2.477   7.366   0.208
98343SOL    HW296862   2.525   7.299   0.335
98344SOL     OW96863   1.833   7.571   9.349
98344SOL    HW196864   1.776   7.498   9.374
98344SOL    HW296865   1.922   7.536   9.359
98345SOL     OW96866   8.564   4.516   5.081
98345SOL    HW196867   8.639   4.573   5.062
98345SOL    HW296868   8.510   4.519   5.002
98346SOL     OW96869   7.104   6.289  12.464
98346SOL    HW196870   7.192   6.322  12.444
98346SOL    HW296871   7.048   6.367  12.460
98347SOL     OW96872   4.487  11.365   1.940
98347SOL    HW196873   4.397  11.334   1.938
98347SOL    HW296874   4.517  11.357   1.849
98348SOL     OW96875   5.956  11.512   6.139
98348SOL    HW196876   6.020  11.520   6.069
98348SOL    HW296877   5.944  11.601   6.172
98349SOL     OW96878  11.496   2.686   7.294
98349SOL    HW196879  11.477   2.605   7.248
98349SOL    HW296880  11.507   2.752   7.225
98350SOL     OW96881   0.520   6.400   2.446
98350SOL    HW196882   0.480   6.359   2.523
98350SOL    HW296883   0.490   6.348   2.372
98351SOL     OW96884   7.587   2.769   7.729
98351SOL    HW196885   7.501   2.760   7.689
98351SOL    HW296886   7.617   2.856   7.701
98352SOL     OW96887   7.015  11.258   8.566
98352SOL    HW196888   7.071  11.334   8.580
98352SOL    HW296889   7.046  11.221   8.483
98353SOL     OW96890   0.545   0.476   9.229
98353SOL    HW196891   0.531   0.473   9.134
98353SOL    HW296892   0.474   0.530   9.262
98354SOL     OW96893   2.451   2.187   1.738
98354SOL    HW196894   2.520   2.248   1.762
98354SOL    HW296895   2.460   2.176   1.644
98355SOL     OW96896   1.001   1.359  11.597
98355SOL    HW196897   1.016   1.413  11.674
98355SOL    HW296898   1.065   1.390  11.533
98356SOL     OW96899  13.576   9.516  13.862
98356SOL    HW196900  13.594   9.610  13.866
98356SOL    HW296901  13.537   9.495  13.947
98357SOL     OW96902   3.579   8.623   0.314
98357SOL    HW196903   3.632   8.568   0.372
98357SOL    HW296904   3.609   8.600   0.226
98358SOL     OW96905   0.253   1.253   1.545
98358SOL    HW196906   0.178   1.205   1.510
98358SOL    HW296907   0.225   1.345   1.547
98359SOL     OW96908   2.198  14.393   7.117
98359SOL    HW196909   2.123  14.339   7.094
98359SOL    HW296910   2.176  14.431   7.202
98360SOL     OW96911   5.092  14.552  14.818
98360SOL    HW196912   5.020  14.608  14.848
98360SOL    HW296913   5.050  14.467  14.802
98361SOL     OW96914   6.170   7.571  12.324
98361SOL    HW196915   6.230   7.623  12.378
98361SOL    HW296916   6.087   7.572  12.373
98362SOL     OW96917  10.033   1.553   1.327
98362SOL    HW196918  10.038   1.584   1.237
98362SOL    HW296919  10.073   1.622   1.379
98363SOL     OW96920   3.283   3.081  14.832
98363SOL    HW196921   3.279   2.986  14.819
98363SOL    HW296922   3.307   3.116  14.747
98364SOL     OW96923   0.784   3.152  13.907
98364SOL    HW196924   0.808   3.085  13.972
98364SOL    HW296925   0.838   3.132  13.831
98365SOL     OW96926   5.874   5.040   9.153
98365SOL    HW196927   5.876   4.965   9.093
98365SOL    HW296928   5.784   5.072   9.147
98366SOL     OW96929   7.517   6.928   3.804
98366SOL    HW196930   7.469   6.901   3.725
98366SOL    HW296931   7.449   6.961   3.863
98367SOL     OW96932  11.644   6.473  14.706
98367SOL    HW196933  11.652   6.566  14.684
98367SOL    HW296934  11.634   6.472  14.801
98368SOL     OW96935   3.179  10.495  12.266
98368SOL    HW196936   3.129  10.451  12.198
98368SOL    HW296937   3.127  10.484  12.345
98369SOL     OW96938   0.740   3.702   8.480
98369SOL    HW196939   0.668   3.661   8.431
98369SOL    HW296940   0.794   3.743   8.413
98370SOL     OW96941   6.899   5.891   0.055
98370SOL    HW196942   6.864   5.825  14.878
98370SOL    HW296943   6.872   5.863   0.142
98371SOL     OW96944  10.226   0.382   9.912
98371SOL    HW196945  10.262   0.315   9.970
98371SOL    HW296946  10.147   0.412   9.956
98372SOL     OW96947   7.587  13.369   4.573
98372SOL    HW196948   7.532  13.331   4.641
98372SOL    HW296949   7.527  13.390   4.501
98373SOL     OW96950   1.861   4.688   5.405
98373SOL    HW196951   1.846   4.758   5.469
98373SOL    HW296952   1.780   4.684   5.355
98374SOL     OW96953   8.255   0.589   7.394
98374SOL    HW196954   8.214   0.554   7.473
98374SOL    HW296955   8.232   0.527   7.325
98375SOL     OW96956  14.183  14.104   2.021
98375SOL    HW196957  14.160  14.027   2.073
98375SOL    HW296958  14.260  14.141   2.065
98376SOL     OW96959   6.455  12.758   6.982
98376SOL    HW196960   6.465  12.782   7.075
98376SOL    HW296961   6.364  12.780   6.961
98377SOL     OW96962   1.474  13.595   6.756
98377SOL    HW196963   1.509  13.625   6.672
98377SOL    HW296964   1.478  13.673   6.812
98378SOL     OW96965  14.847   8.092   4.828
98378SOL    HW196966   0.046   8.063   4.787
98378SOL    HW296967  14.874   8.161   4.889
98379SOL     OW96968   6.424  13.103  12.173
98379SOL    HW196969   6.443  13.193  12.150
98379SOL    HW296970   6.336  13.086  12.138
98380SOL     OW96971   7.820   5.649   6.708
98380SOL    HW196972   7.816   5.725   6.649
98380SOL    HW296973   7.907   5.656   6.749
98381SOL     OW96974  13.348   2.619  11.976
98381SOL    HW196975  13.420   2.580  12.026
98381SOL    HW296976  13.325   2.552  11.911
98382SOL     OW96977   2.160  14.738   3.704
98382SOL    HW196978   2.090  14.773   3.760
98382SOL    HW296979   2.116  14.713   3.623
98383SOL     OW96980   8.310   7.795  10.660
98383SOL    HW196981   8.322   7.890  10.659
98383SOL    HW296982   8.274   7.777  10.747
98384SOL     OW96983   2.300   4.491   0.785
98384SOL    HW196984   2.354   4.415   0.809
98384SOL    HW296985   2.304   4.549   0.861
98385SOL     OW96986   6.771   8.488  10.098
98385SOL    HW196987   6.732   8.559  10.149
98385SOL    HW296988   6.765   8.411  10.155
98386SOL     OW96989   9.010   7.319   5.909
98386SOL    HW196990   8.996   7.225   5.898
98386SOL    HW296991   8.947   7.359   5.850
98387SOL     OW96992  12.076   3.631   5.637
98387SOL    HW196993  12.096   3.664   5.549
98387SOL    HW296994  12.069   3.536   5.627
98388SOL     OW96995  12.371   4.161  13.812
98388SOL    HW196996  12.398   4.090  13.870
98388SOL    HW296997  12.358   4.236  13.869
98389SOL     OW96998   1.929   1.925   6.815
98389SOL    HW196999   1.868   1.925   6.889
98389SOL    HW297000   1.929   1.834   6.785
98390SOL     OW97001   0.716   5.312   3.219
98390SOL    HW197002   0.695   5.229   3.262
98390SOL    HW297003   0.672   5.307   3.134
98391SOL     OW97004  13.815  12.236   6.290
98391SOL    HW197005  13.795  12.284   6.210
98391SOL    HW297006  13.730  12.225   6.333
98392SOL     OW97007  13.158   7.987  11.806
98392SOL    HW197008  13.223   7.983  11.737
98392SOL    HW297009  13.114   8.071  11.793
98393SOL     OW97010  12.276   0.311  11.064
98393SOL    HW197011  12.235   0.293  11.149
98393SOL    HW297012  12.244   0.397  11.039
98394SOL     OW97013   1.695   9.959  12.165
98394SOL    HW197014   1.606   9.990  12.177
98394SOL    HW297015   1.700   9.879  12.218
98395SOL     OW97016   1.654  13.992   8.444
98395SOL    HW197017   1.604  14.020   8.521
98395SOL    HW297018   1.732  14.047   8.444
98396SOL     OW97019   2.240   7.070   4.979
98396SOL    HW197020   2.224   7.147   4.925
98396SOL    HW297021   2.327   7.039   4.953
98397SOL     OW97022  10.917   1.474   2.896
98397SOL    HW197023  10.823   1.454   2.895
98397SOL    HW297024  10.955   1.411   2.835
98398SOL     OW97025   2.562   7.545   0.514
98398SOL    HW197026   2.492   7.525   0.452
98398SOL    HW297027   2.580   7.638   0.501
98399SOL     OW97028  12.330   7.112   8.041
98399SOL    HW197029  12.386   7.037   8.061
98399SOL    HW297030  12.247   7.073   8.016
98400SOL     OW97031   2.868   3.846   5.571
98400SOL    HW197032   2.811   3.799   5.632
98400SOL    HW297033   2.873   3.791   5.493
98401SOL     OW97034   9.221   5.385  13.062
98401SOL    HW197035   9.139   5.431  13.074
98401SOL    HW297036   9.204   5.321  12.992
98402SOL     OW97037   0.940  13.692  11.348
98402SOL    HW197038   0.946  13.607  11.305
98402SOL    HW297039   0.959  13.673  11.440
98403SOL     OW97040   3.000   7.387   4.199
98403SOL    HW197041   2.911   7.392   4.235
98403SOL    HW297042   3.003   7.458   4.135
98404SOL     OW97043  11.327   5.452  14.630
98404SOL    HW197044  11.420   5.431  14.633
98404SOL    HW297045  11.288   5.381  14.579
98405SOL     OW97046  12.299   9.595   0.155
98405SOL    HW197047  12.376   9.623   0.106
98405SOL    HW297048  12.304   9.499   0.155
98406SOL     OW97049   5.468   0.564   4.445
98406SOL    HW197050   5.553   0.521   4.451
98406SOL    HW297051   5.442   0.578   4.536
98407SOL     OW97052   0.668   7.048  14.180
98407SOL    HW197053   0.668   6.995  14.260
98407SOL    HW297054   0.713   7.129  14.205
98408SOL     OW97055  14.565   9.867   1.905
98408SOL    HW197056  14.586   9.908   1.989
98408SOL    HW297057  14.580   9.774   1.919
98409SOL     OW97058  13.524   6.641   0.459
98409SOL    HW197059  13.576   6.693   0.520
98409SOL    HW297060  13.495   6.566   0.510
98410SOL     OW97061   8.943   1.744   3.260
98410SOL    HW197062   8.893   1.798   3.322
98410SOL    HW297063   9.009   1.701   3.315
98411SOL     OW97064   2.251   1.180  14.722
98411SOL    HW197065   2.174   1.219  14.763
98411SOL    HW297066   2.242   1.086  14.737
98412SOL     OW97067   6.823   0.616  13.891
98412SOL    HW197068   6.785   0.548  13.946
98412SOL    HW297069   6.874   0.670  13.952
98413SOL     OW97070   0.776   2.299  11.230
98413SOL    HW197071   0.842   2.349  11.181
98413SOL    HW297072   0.698   2.303  11.175
98414SOL     OW97073   2.173   9.738   6.240
98414SOL    HW197074   2.153   9.711   6.330
98414SOL    HW297075   2.118   9.682   6.186
98415SOL     OW97076  11.004   4.691  13.635
98415SOL    HW197077  11.086   4.679  13.589
98415SOL    HW297078  10.955   4.753  13.581
98416SOL     OW97079  13.832   3.847   9.447
98416SOL    HW197080  13.912   3.895   9.427
98416SOL    HW297081  13.791   3.896   9.518
98417SOL     OW97082  14.677   3.647   5.347
98417SOL    HW197083  14.682   3.557   5.379
98417SOL    HW297084  14.626   3.641   5.266
98418SOL     OW97085   1.627  14.855   6.094
98418SOL    HW197086   1.620  14.764   6.124
98418SOL    HW297087   1.698   0.010   6.147
98419SOL     OW97088   6.379   2.535   1.641
98419SOL    HW197089   6.441   2.592   1.596
98419SOL    HW297090   6.418   2.447   1.633
98420SOL     OW97091  11.743  10.379  12.738
98420SOL    HW197092  11.744  10.284  12.733
98420SOL    HW297093  11.742  10.398  12.832
98421SOL     OW97094   3.691   8.732  14.753
98421SOL    HW197095   3.782   8.715  14.777
98421SOL    HW297096   3.672   8.670  14.684
98422SOL     OW97097   0.194   5.281   0.337
98422SOL    HW197098   0.213   5.190   0.316
98422SOL    HW297099   0.173   5.281   0.430
98423SOL     OW97100   0.316   7.323   9.871
98423SOL    HW197101   0.371   7.399   9.888
98423SOL    HW297102   0.279   7.339   9.784
98424SOL     OW97103  14.083   8.457  13.719
98424SOL    HW197104  14.097   8.372  13.677
98424SOL    HW297105  14.044   8.511  13.651
98425SOL     OW97106  13.026   4.532   1.703
98425SOL    HW197107  13.039   4.437   1.707
98425SOL    HW297108  12.932   4.543   1.693
98426SOL     OW97109   2.990  12.302  13.582
98426SOL    HW197110   2.903  12.269  13.561
98426SOL    HW297111   3.015  12.256  13.662
98427SOL     OW97112   0.668   9.680  12.902
98427SOL    HW197113   0.585   9.637  12.883
98427SOL    HW297114   0.644   9.763  12.942
98428SOL     OW97115  12.131  10.742  13.008
98428SOL    HW197116  12.066  10.672  13.012
98428SOL    HW297117  12.187  10.727  13.084
98429SOL     OW97118  14.815   8.782   9.441
98429SOL    HW197119  14.842   8.811   9.528
98429SOL    HW297120  14.720   8.790   9.442
98430SOL     OW97121   7.867  10.887   1.033
98430SOL    HW197122   7.825  10.972   1.043
98430SOL    HW297123   7.944  10.904   0.979
98431SOL     OW97124   1.059  10.981   5.266
98431SOL    HW197125   0.975  10.970   5.312
98431SOL    HW297126   1.041  10.952   5.177
98432SOL     OW97127  12.306   3.353   6.759
98432SOL    HW197128  12.299   3.440   6.800
98432SOL    HW297129  12.289   3.370   6.666
98433SOL     OW97130   6.817   6.191  13.131
98433SOL    HW197131   6.755   6.203  13.204
98433SOL    HW297132   6.875   6.267  13.136
98434SOL     OW97133   7.536  12.210   4.162
98434SOL    HW197134   7.592  12.194   4.086
98434SOL    HW297135   7.596  12.217   4.236
98435SOL     OW97136  13.065   5.147  10.997
98435SOL    HW197137  13.003   5.077  10.974
98435SOL    HW297138  13.093   5.125  11.086
98436SOL     OW97139  10.200  11.101   8.383
98436SOL    HW197140  10.175  11.191   8.361
98436SOL    HW297141  10.234  11.107   8.473
98437SOL     OW97142   6.613   7.495   3.414
98437SOL    HW197143   6.670   7.510   3.490
98437SOL    HW297144   6.527   7.525   3.443
98438SOL     OW97145   7.122   4.388  10.126
98438SOL    HW197146   7.054   4.334  10.085
98438SOL    HW297147   7.131   4.463  10.067
98439SOL     OW97148   3.500   7.616   3.267
98439SOL    HW197149   3.473   7.539   3.315
98439SOL    HW297150   3.590   7.634   3.297
98440SOL     OW97151  10.384   1.663   1.768
98440SOL    HW197152  10.390   1.746   1.815
98440SOL    HW297153  10.300   1.626   1.795
98441SOL     OW97154   6.938   6.516  14.328
98441SOL    HW197155   6.903   6.443  14.379
98441SOL    HW297156   6.861   6.555  14.288
98442SOL     OW97157   2.920   7.843   1.144
98442SOL    HW197158   2.953   7.796   1.067
98442SOL    HW297159   2.926   7.780   1.215
98443SOL     OW97160   1.129   4.597  14.156
98443SOL    HW197161   1.190   4.667  14.134
98443SOL    HW297162   1.115   4.551  14.073
98444SOL     OW97163  12.264   0.051   1.364
98444SOL    HW197164  12.249   0.019   1.453
98444SOL    HW297165  12.248  14.857   1.308
98445SOL     OW97166   8.587   7.859   5.664
98445SOL    HW197167   8.587   7.875   5.759
98445SOL    HW297168   8.672   7.819   5.647
98446SOL     OW97169   1.770   3.727   9.443
98446SOL    HW197170   1.703   3.666   9.411
98446SOL    HW297171   1.794   3.778   9.365
98447SOL     OW97172  10.889   9.680   8.934
98447SOL    HW197173  10.914   9.752   8.876
98447SOL    HW297174  10.807   9.709   8.974
98448SOL     OW97175   3.462   3.984   2.211
98448SOL    HW197176   3.400   3.996   2.282
98448SOL    HW297177   3.546   4.012   2.247
98449SOL     OW97178  11.236   2.806   7.395
98449SOL    HW197179  11.239   2.894   7.432
98449SOL    HW297180  11.326   2.789   7.366
98450SOL     OW97181   8.162   5.311  14.799
98450SOL    HW197182   8.234   5.338  14.856
98450SOL    HW297183   8.139   5.223  14.830
98451SOL     OW97184   1.762   9.884   6.207
98451SOL    HW197185   1.766   9.890   6.302
98451SOL    HW297186   1.714   9.963   6.180
98452SOL     OW97187  10.149  14.212  12.922
98452SOL    HW197188  10.107  14.165  12.994
98452SOL    HW297189  10.077  14.239  12.865
98453SOL     OW97190  11.807   9.640  12.440
98453SOL    HW197191  11.834   9.628  12.349
98453SOL    HW297192  11.878   9.603  12.492
98454SOL     OW97193  11.866  11.244   7.773
98454SOL    HW197194  11.957  11.220   7.754
98454SOL    HW297195  11.821  11.160   7.781
98455SOL     OW97196   4.695   4.083   4.024
98455SOL    HW197197   4.754   4.114   4.093
98455SOL    HW297198   4.609   4.081   4.066
98456SOL     OW97199  11.865   8.242   7.112
98456SOL    HW197200  11.961   8.235   7.117
98456SOL    HW297201  11.836   8.154   7.093
98457SOL     OW97202  10.353   6.354   4.610
98457SOL    HW197203  10.406   6.299   4.668
98457SOL    HW297204  10.416   6.418   4.575
98458SOL     OW97205  12.449  10.563  11.937
98458SOL    HW197206  12.461  10.471  11.911
98458SOL    HW297207  12.372  10.562  11.994
98459SOL     OW97208   7.225  10.886  11.066
98459SOL    HW197209   7.245  10.847  10.981
98459SOL    HW297210   7.225  10.812  11.127
98460SOL     OW97211  10.128  10.339   1.839
98460SOL    HW197212  10.055  10.322   1.779
98460SOL    HW297213  10.090  10.329   1.927
98461SOL     OW97214  11.725  11.818   6.687
98461SOL    HW197215  11.708  11.911   6.703
98461SOL    HW297216  11.768  11.815   6.602
98462SOL     OW97217  11.255  13.005   5.170
98462SOL    HW197218  11.260  13.013   5.265
98462SOL    HW297219  11.299  12.923   5.150
98463SOL     OW97220   1.694   1.585   3.464
98463SOL    HW197221   1.721   1.499   3.433
98463SOL    HW297222   1.773   1.622   3.503
98464SOL     OW97223   0.384   3.574  12.759
98464SOL    HW197224   0.318   3.619  12.811
98464SOL    HW297225   0.334   3.514  12.704
98465SOL     OW97226  13.900   3.109   6.315
98465SOL    HW197227  13.842   3.037   6.340
98465SOL    HW297228  13.980   3.094   6.365
98466SOL     OW97229  13.241   6.228   2.497
98466SOL    HW197230  13.271   6.225   2.588
98466SOL    HW297231  13.219   6.137   2.476
98467SOL     OW97232  10.674   7.294  13.504
98467SOL    HW197233  10.707   7.226  13.563
98467SOL    HW297234  10.747   7.357  13.498
98468SOL     OW97235   2.898   3.387  11.292
98468SOL    HW197236   2.926   3.412  11.380
98468SOL    HW297237   2.810   3.352  11.305
98469SOL     OW97238   6.875   2.530   5.722
98469SOL    HW197239   6.846   2.474   5.794
98469SOL    HW297240   6.840   2.617   5.743
98470SOL     OW97241   3.699   3.576   4.452
98470SOL    HW197242   3.755   3.654   4.456
98470SOL    HW297243   3.610   3.610   4.445
98471SOL     OW97244   1.122   2.825   9.974
98471SOL    HW197245   1.076   2.753   9.930
98471SOL    HW297246   1.180   2.861   9.907
98472SOL     OW97247   0.981   4.533   4.056
98472SOL    HW197248   0.982   4.591   4.133
98472SOL    HW297249   1.072   4.532   4.026
98473SOL     OW97250   6.708   3.754  12.497
98473SOL    HW197251   6.613   3.767  12.502
98473SOL    HW297252   6.744   3.812  12.564
98474SOL     OW97253  11.261   0.170  10.789
98474SOL    HW197254  11.271   0.110  10.863
98474SOL    HW297255  11.350   0.188  10.761
98475SOL     OW97256  13.788   8.537  10.353
98475SOL    HW197257  13.792   8.554  10.447
98475SOL    HW297258  13.850   8.599  10.315
98476SOL     OW97259   6.708  10.153  11.482
98476SOL    HW197260   6.691  10.062  11.455
98476SOL    HW297261   6.626  10.182  11.521
98477SOL     OW97262  10.668   4.414  12.076
98477SOL    HW197263  10.675   4.473  12.151
98477SOL    HW297264  10.710   4.462  12.005
98478SOL     OW97265   9.431   2.167  14.158
98478SOL    HW197266   9.419   2.076  14.182
98478SOL    HW297267   9.348   2.209  14.178
98479SOL     OW97268   5.124  12.594   2.559
98479SOL    HW197269   5.109  12.645   2.639
98479SOL    HW297270   5.074  12.639   2.491
98480SOL     OW97271  11.039  12.920   0.059
98480SOL    HW197272  11.019  12.968   0.139
98480SOL    HW297273  11.083  12.841   0.089
98481SOL     OW97274   3.122   8.770  13.202
98481SOL    HW197275   3.108   8.840  13.267
98481SOL    HW297276   3.065   8.795  13.129
98482SOL     OW97277   3.623   9.127   0.672
98482SOL    HW197278   3.574   9.088   0.744
98482SOL    HW297279   3.709   9.145   0.708
98483SOL     OW97280   4.567   3.167  13.910
98483SOL    HW197281   4.578   3.146  14.003
98483SOL    HW297282   4.590   3.260  13.903
98484SOL     OW97283  13.387   6.789   7.668
98484SOL    HW197284  13.466   6.822   7.710
98484SOL    HW297285  13.335   6.752   7.739
98485SOL     OW97286   0.674   3.347   1.508
98485SOL    HW197287   0.619   3.424   1.523
98485SOL    HW297288   0.648   3.285   1.576
98486SOL     OW97289   9.728   8.496  14.014
98486SOL    HW197290   9.674   8.549  13.955
98486SOL    HW297291   9.796   8.555  14.045
98487SOL     OW97292  11.201   6.023  14.292
98487SOL    HW197293  11.275   6.074  14.260
98487SOL    HW297294  11.149   6.004  14.214
98488SOL     OW97295  12.488   3.082  11.215
98488SOL    HW197296  12.511   3.069  11.123
98488SOL    HW297297  12.538   3.015  11.261
98489SOL     OW97298  12.430  12.226  10.366
98489SOL    HW197299  12.422  12.260  10.277
98489SOL    HW297300  12.489  12.287  10.410
98490SOL     OW97301   0.931   1.787  13.616
98490SOL    HW197302   1.015   1.821  13.648
98490SOL    HW297303   0.955   1.712  13.561
98491SOL     OW97304  13.358   1.710  11.009
98491SOL    HW197305  13.373   1.802  10.991
98491SOL    HW297306  13.307   1.709  11.090
98492SOL     OW97307   8.718  14.499   2.061
98492SOL    HW197308   8.812  14.511   2.045
98492SOL    HW297309   8.677  14.517   1.976
98493SOL     OW97310  13.528   4.812   6.768
98493SOL    HW197311  13.605   4.865   6.788
98493SOL    HW297312  13.549   4.725   6.801
98494SOL     OW97313   4.025   8.312   5.926
98494SOL    HW197314   3.950   8.334   5.980
98494SOL    HW297315   4.033   8.217   5.934
98495SOL     OW97316  14.573   7.366   3.588
98495SOL    HW197317  14.554   7.433   3.522
98495SOL    HW297318  14.585   7.285   3.537
98496SOL     OW97319   9.892   2.795   7.309
98496SOL    HW197320   9.867   2.801   7.401
98496SOL    HW297321   9.978   2.752   7.311
98497SOL     OW97322   3.871   1.219   6.621
98497SOL    HW197323   3.829   1.265   6.549
98497SOL    HW297324   3.965   1.225   6.601
98498SOL     OW97325   2.725   5.651   3.603
98498SOL    HW197326   2.689   5.687   3.522
98498SOL    HW297327   2.653   5.602   3.642
98499SOL     OW97328  14.778   6.172   8.083
98499SOL    HW197329  14.802   6.261   8.060
98499SOL    HW297330  14.861   6.124   8.084
98500SOL     OW97331   1.491   1.813   8.455
98500SOL    HW197332   1.421   1.832   8.517
98500SOL    HW297333   1.456   1.744   8.399
98501SOL     OW97334   4.718   9.911   0.897
98501SOL    HW197335   4.694   9.914   0.989
98501SOL    HW297336   4.730  10.003   0.872
98502SOL     OW97337   0.147   7.325   9.527
98502SOL    HW197338   0.147   7.318   9.432
98502SOL    HW297339   0.215   7.264   9.556
98503SOL     OW97340   2.140   2.790   7.008
98503SOL    HW197341   2.236   2.795   7.002
98503SOL    HW297342   2.111   2.769   6.919
98504SOL     OW97343   5.419   8.051  12.682
98504SOL    HW197344   5.380   8.138  12.675
98504SOL    HW297345   5.513   8.067  12.679
98505SOL     OW97346   1.234   1.931  14.582
98505SOL    HW197347   1.167   1.971  14.637
98505SOL    HW297348   1.277   1.868  14.640
98506SOL     OW97349   0.947   8.813   0.225
98506SOL    HW197350   0.993   8.877   0.171
98506SOL    HW297351   0.861   8.803   0.184
98507SOL     OW97352   7.869   2.816  13.209
98507SOL    HW197353   7.822   2.757  13.268
98507SOL    HW297354   7.812   2.822  13.131
98508SOL     OW97355  12.072   0.738   7.273
98508SOL    HW197356  11.991   0.686   7.278
98508SOL    HW297357  12.093   0.740   7.180
98509SOL     OW97358  11.121  13.956   9.123
98509SOL    HW197359  11.177  14.010   9.179
98509SOL    HW297360  11.160  13.963   9.036
98510SOL     OW97361   6.335   7.064   9.488
98510SOL    HW197362   6.412   7.042   9.540
98510SOL    HW297363   6.299   6.979   9.462
98511SOL     OW97364   9.394   8.412   4.837
98511SOL    HW197365   9.407   8.428   4.744
98511SOL    HW297366   9.473   8.364   4.864
98512SOL     OW97367   1.223  11.596   2.646
98512SOL    HW197368   1.245  11.684   2.676
98512SOL    HW297369   1.297  11.569   2.592
98513SOL     OW97370   1.014   6.552   6.777
98513SOL    HW197371   0.975   6.623   6.725
98513SOL    HW297372   0.978   6.472   6.739
98514SOL     OW97373  11.236  12.203  10.048
98514SOL    HW197374  11.145  12.179  10.030
98514SOL    HW297375  11.232  12.294  10.077
98515SOL     OW97376  11.012   0.750   4.079
98515SOL    HW197377  10.961   0.714   4.007
98515SOL    HW297378  11.079   0.803   4.036
98516SOL     OW97379   6.543   4.877  14.573
98516SOL    HW197380   6.478   4.895  14.505
98516SOL    HW297381   6.510   4.801  14.620
98517SOL     OW97382   1.466   4.512   5.481
98517SOL    HW197383   1.558   4.487   5.483
98517SOL    HW297384   1.419   4.430   5.464
98518SOL     OW97385   9.367   5.945  11.146
98518SOL    HW197386   9.372   5.982  11.058
98518SOL    HW297387   9.453   5.965  11.185
98519SOL     OW97388   3.015  12.914   4.853
98519SOL    HW197389   3.071  12.899   4.929
98519SOL    HW297390   2.966  12.832   4.844
98520SOL     OW97391   6.542  12.443  14.701
98520SOL    HW197392   6.466  12.490  14.667
98520SOL    HW297393   6.563  12.378  14.634
98521SOL     OW97394  10.588  13.423  13.349
98521SOL    HW197395  10.529  13.347  13.345
98521SOL    HW297396  10.655  13.398  13.411
98522SOL     OW97397   9.042  10.251  12.516
98522SOL    HW197398   9.009  10.290  12.597
98522SOL    HW297399   9.106  10.314  12.483
98523SOL     OW97400   8.268  12.716   8.789
98523SOL    HW197401   8.215  12.796   8.796
98523SOL    HW297402   8.212  12.655   8.742
98524SOL     OW97403   0.278   8.393   0.655
98524SOL    HW197404   0.323   8.315   0.687
98524SOL    HW297405   0.339   8.465   0.671
98525SOL     OW97406   8.346   2.556   3.657
98525SOL    HW197407   8.251   2.548   3.649
98525SOL    HW297408   8.379   2.537   3.570
98526SOL     OW97409  12.485  12.959  10.659
98526SOL    HW197410  12.579  12.970  10.676
98526SOL    HW297411  12.444  12.974  10.744
98527SOL     OW97412   8.802   0.222   4.293
98527SOL    HW197413   8.780   0.207   4.201
98527SOL    HW297414   8.753   0.154   4.341
98528SOL     OW97415   9.328  13.240   6.869
98528SOL    HW197416   9.413  13.201   6.846
98528SOL    HW297417   9.290  13.180   6.932
98529SOL     OW97418   2.357   8.291  12.485
98529SOL    HW197419   2.389   8.221  12.428
98529SOL    HW297420   2.320   8.355  12.425
98530SOL     OW97421  13.516  11.061   7.299
98530SOL    HW197422  13.437  11.064   7.352
98530SOL    HW297423  13.576  11.122   7.342
98531SOL     OW97424   0.493   8.373   6.737
98531SOL    HW197425   0.512   8.429   6.662
98531SOL    HW297426   0.573   8.323   6.750
98532SOL     OW97427  13.111  12.377   9.120
98532SOL    HW197428  13.147  12.305   9.171
98532SOL    HW297429  13.016  12.367   9.126
98533SOL     OW97430   3.292  14.381   0.106
98533SOL    HW197431   3.315  14.291   0.082
98533SOL    HW297432   3.335  14.395   0.190
98534SOL     OW97433   3.635   2.987  10.818
98534SOL    HW197434   3.579   3.050  10.773
98534SOL    HW297435   3.677   3.037  10.887
98535SOL     OW97436   9.149  13.118  11.810
98535SOL    HW197437   9.215  13.130  11.742
98535SOL    HW297438   9.200  13.100  11.889
98536SOL     OW97439   4.228   4.351   1.159
98536SOL    HW197440   4.160   4.322   1.099
98536SOL    HW297441   4.191   4.338   1.246
98537SOL     OW97442  14.741  10.786   5.145
98537SOL    HW197443  14.810  10.736   5.188
98537SOL    HW297444  14.786  10.863   5.110
98538SOL     OW97445   9.136  10.473   5.423
98538SOL    HW197446   9.188  10.488   5.502
98538SOL    HW297447   9.181  10.401   5.378
98539SOL     OW97448   4.831   1.113   1.571
98539SOL    HW197449   4.740   1.123   1.601
98539SOL    HW297450   4.843   1.019   1.560
98540SOL     OW97451   7.933   9.572   8.737
98540SOL    HW197452   7.952   9.665   8.743
98540SOL    HW297453   7.851   9.561   8.784
98541SOL     OW97454   4.621  13.123   3.498
98541SOL    HW197455   4.623  13.058   3.427
98541SOL    HW297456   4.686  13.092   3.561
98542SOL     OW97457  12.839   1.074   6.855
98542SOL    HW197458  12.879   1.016   6.920
98542SOL    HW297459  12.893   1.152   6.855
98543SOL     OW97460   7.783   5.110   0.599
98543SOL    HW197461   7.865   5.156   0.578
98543SOL    HW297462   7.807   5.046   0.665
98544SOL     OW97463   7.632  14.632   7.638
98544SOL    HW197464   7.574  14.662   7.568
98544SOL    HW297465   7.720  14.646   7.603
98545SOL     OW97466   8.264  13.205   3.286
98545SOL    HW197467   8.299  13.292   3.308
98545SOL    HW297468   8.229  13.172   3.369
98546SOL     OW97469   8.126  14.721  10.948
98546SOL    HW197470   8.132  14.807  10.989
98546SOL    HW297471   8.061  14.674  11.001
98547SOL     OW97472  10.766   9.003  10.674
98547SOL    HW197473  10.752   9.006  10.768
98547SOL    HW297474  10.733   9.087  10.642
98548SOL     OW97475   1.158  12.665   3.023
98548SOL    HW197476   1.065  12.665   2.999
98548SOL    HW297477   1.184  12.757   3.014
98549SOL     OW97478   5.149   3.580   3.499
98549SOL    HW197479   5.199   3.648   3.453
98549SOL    HW297480   5.110   3.527   3.429
98550SOL     OW97481   6.810   9.635   4.564
98550SOL    HW197482   6.806   9.566   4.630
98550SOL    HW297483   6.800   9.589   4.480
98551SOL     OW97484  14.714   2.901   4.993
98551SOL    HW197485  14.703   2.807   5.006
98551SOL    HW297486  14.806   2.911   4.968
98552SOL     OW97487  10.329   7.701   5.920
98552SOL    HW197488  10.246   7.654   5.927
98552SOL    HW297489  10.310   7.789   5.950
98553SOL     OW97490  13.978   3.232  11.273
98553SOL    HW197491  14.057   3.183  11.252
98553SOL    HW297492  13.939   3.185  11.347
98554SOL     OW97493   2.083  11.502  10.552
98554SOL    HW197494   2.082  11.594  10.577
98554SOL    HW297495   1.991  11.477  10.547
98555SOL     OW97496   5.049  10.824   8.335
98555SOL    HW197497   5.015  10.898   8.285
98555SOL    HW297498   5.136  10.852   8.363
98556SOL     OW97499   2.778   6.552   5.116
98556SOL    HW197500   2.722   6.513   5.183
98556SOL    HW297501   2.815   6.477   5.069
98557SOL     OW97502   7.074   4.969   9.595
98557SOL    HW197503   7.098   4.887   9.553
98557SOL    HW297504   7.155   5.001   9.634
98558SOL     OW97505   1.243  13.010   6.315
98558SOL    HW197506   1.164  13.064   6.317
98558SOL    HW297507   1.213  12.925   6.284
98559SOL     OW97508   1.710   3.993   2.851
98559SOL    HW197509   1.705   4.022   2.942
98559SOL    HW297510   1.803   3.976   2.836
98560SOL     OW97511   0.357   1.105   8.204
98560SOL    HW197512   0.389   1.051   8.133
98560SOL    HW297513   0.396   1.068   8.283
98561SOL     OW97514  12.971   2.817   4.126
98561SOL    HW197515  13.006   2.873   4.058
98561SOL    HW297516  12.956   2.733   4.083
98562SOL     OW97517   0.993  14.684  11.856
98562SOL    HW197518   1.076  14.675  11.809
98562SOL    HW297519   0.986  14.778  11.874
98563SOL     OW97520  10.429  11.893   0.862
98563SOL    HW197521  10.512  11.868   0.823
98563SOL    HW297522  10.369  11.901   0.787
98564SOL     OW97523   7.983  10.294   3.414
98564SOL    HW197524   7.966  10.375   3.462
98564SOL    HW297525   7.955  10.224   3.473
98565SOL     OW97526  11.265   9.473  13.255
98565SOL    HW197527  11.278   9.466  13.161
98565SOL    HW297528  11.329   9.538  13.283
98566SOL     OW97529   8.413   8.814   3.252
98566SOL    HW197530   8.331   8.831   3.207
98566SOL    HW297531   8.481   8.836   3.187
98567SOL     OW97532   7.058   8.166   4.547
98567SOL    HW197533   6.973   8.205   4.568
98567SOL    HW297534   7.102   8.160   4.632
98568SOL     OW97535  11.383   3.383   6.661
98568SOL    HW197536  11.391   3.431   6.743
98568SOL    HW297537  11.458   3.323   6.660
98569SOL     OW97538   7.501  10.663   5.506
98569SOL    HW197539   7.590  10.630   5.489
98569SOL    HW297540   7.444  10.605   5.455
98570SOL     OW97541  14.173  10.928   6.189
98570SOL    HW197542  14.233  10.893   6.255
98570SOL    HW297543  14.167  11.021   6.209
98571SOL     OW97544   8.863   4.095  14.401
98571SOL    HW197545   8.828   4.133  14.482
98571SOL    HW297546   8.795   4.034  14.372
98572SOL     OW97547   5.750   6.041   1.433
98572SOL    HW197548   5.779   6.086   1.512
98572SOL    HW297549   5.750   6.109   1.366
98573SOL     OW97550  12.345  11.571   8.881
98573SOL    HW197551  12.311  11.545   8.966
98573SOL    HW297552  12.397  11.496   8.852
98574SOL     OW97553   2.699   2.013  11.740
98574SOL    HW197554   2.720   2.021  11.647
98574SOL    HW297555   2.716   1.920  11.760
98575SOL     OW97556   2.452   3.695  11.980
98575SOL    HW197557   2.364   3.718  11.953
98575SOL    HW297558   2.505   3.704  11.901
98576SOL     OW97559   2.062  13.354   5.398
98576SOL    HW197560   2.095  13.275   5.358
98576SOL    HW297561   2.085  13.346   5.491
98577SOL     OW97562  10.472   2.114   8.227
98577SOL    HW197563  10.566   2.111   8.244
98577SOL    HW297564  10.446   2.022   8.225
98578SOL     OW97565  13.197   5.528   2.917
98578SOL    HW197566  13.263   5.496   2.978
98578SOL    HW297567  13.122   5.550   2.972
98579SOL     OW97568   7.371   7.381  10.573
98579SOL    HW197569   7.412   7.377  10.659
98579SOL    HW297570   7.444   7.382  10.512
98580SOL     OW97571   8.677   6.900   7.664
98580SOL    HW197572   8.587   6.934   7.662
98580SOL    HW297573   8.686   6.853   7.581
98581SOL     OW97574   2.085   9.118   3.152
98581SOL    HW197575   2.007   9.064   3.140
98581SOL    HW297576   2.065   9.174   3.227
98582SOL     OW97577  14.574   4.253  12.248
98582SOL    HW197578  14.560   4.166  12.286
98582SOL    HW297579  14.659   4.246  12.203
98583SOL     OW97580   6.473  10.531   3.378
98583SOL    HW197581   6.473  10.447   3.333
98583SOL    HW297582   6.474  10.507   3.471
98584SOL     OW97583  13.351   3.932   0.338
98584SOL    HW197584  13.387   4.014   0.371
98584SOL    HW297585  13.424   3.889   0.294
98585SOL     OW97586   4.346  10.796   6.056
98585SOL    HW197587   4.323  10.733   5.989
98585SOL    HW297588   4.261  10.826   6.091
98586SOL     OW97589   6.366   1.658   0.805
98586SOL    HW197590   6.443   1.711   0.787
98586SOL    HW297591   6.295   1.702   0.758
98587SOL     OW97592   2.250  11.063  11.124
98587SOL    HW197593   2.321  11.063  11.059
98587SOL    HW297594   2.279  11.125  11.191
98588SOL     OW97595   9.287   4.643   8.617
98588SOL    HW197596   9.292   4.720   8.674
98588SOL    HW297597   9.227   4.669   8.547
98589SOL     OW97598  13.640   6.033  13.781
98589SOL    HW197599  13.704   6.100  13.805
98589SOL    HW297600  13.555   6.078  13.784
98590SOL     OW97601  10.436  11.141   6.279
98590SOL    HW197602  10.479  11.055   6.284
98590SOL    HW297603  10.343  11.121   6.290
98591SOL     OW97604  13.419  14.694   1.932
98591SOL    HW197605  13.493  14.749   1.905
98591SOL    HW297606  13.377  14.743   2.002
98592SOL     OW97607   2.429   0.454   9.356
98592SOL    HW197608   2.435   0.396   9.280
98592SOL    HW297609   2.344   0.434   9.394
98593SOL     OW97610   3.853   3.932  12.494
98593SOL    HW197611   3.894   3.854  12.457
98593SOL    HW297612   3.759   3.916  12.486
98594SOL     OW97613   9.511  10.234   1.816
98594SOL    HW197614   9.578  10.266   1.755
98594SOL    HW297615   9.558  10.222   1.899
98595SOL     OW97616   5.539   1.527  12.306
98595SOL    HW197617   5.582   1.602  12.265
98595SOL    HW297618   5.501   1.563  12.386
98596SOL     OW97619  13.498  13.725  14.317
98596SOL    HW197620  13.405  13.745  14.314
98596SOL    HW297621  13.542  13.809  14.307
98597SOL     OW97622   1.727   4.682   7.005
98597SOL    HW197623   1.766   4.719   6.926
98597SOL    HW297624   1.802   4.653   7.058
98598SOL     OW97625  11.250   4.421  13.054
98598SOL    HW197626  11.241   4.502  13.103
98598SOL    HW297627  11.327   4.378  13.091
98599SOL     OW97628  14.169   8.196   2.207
98599SOL    HW197629  14.104   8.266   2.203
98599SOL    HW297630  14.167   8.168   2.299
98600SOL     OW97631  13.496   8.849   5.979
98600SOL    HW197632  13.409   8.812   5.962
98600SOL    HW297633  13.479   8.933   6.021
98601SOL     OW97634  11.825   6.125   9.182
98601SOL    HW197635  11.780   6.155   9.103
98601SOL    HW297636  11.756   6.118   9.248
98602SOL     OW97637  14.626  10.096   7.851
98602SOL    HW197638  14.585  10.152   7.786
98602SOL    HW297639  14.720  10.101   7.832
98603SOL     OW97640  14.515  14.097   4.471
98603SOL    HW197641  14.592  14.144   4.503
98603SOL    HW297642  14.513  14.115   4.377
98604SOL     OW97643   1.189   6.195  13.612
98604SOL    HW197644   1.094   6.206  13.616
98604SOL    HW297645   1.209   6.191  13.519
98605SOL     OW97646   7.809   8.887   2.436
98605SOL    HW197647   7.879   8.834   2.398
98605SOL    HW297648   7.784   8.949   2.367
98606SOL     OW97649  12.828   4.433   2.613
98606SOL    HW197650  12.822   4.391   2.699
98606SOL    HW297651  12.751   4.401   2.565
98607SOL     OW97652   0.816   9.827   2.813
98607SOL    HW197653   0.738   9.777   2.789
98607SOL    HW297654   0.844   9.789   2.896
98608SOL     OW97655  13.466  12.144   2.850
98608SOL    HW197656  13.516  12.093   2.913
98608SOL    HW297657  13.437  12.081   2.784
98609SOL     OW97658   4.232   0.506   7.150
98609SOL    HW197659   4.325   0.506   7.171
98609SOL    HW297660   4.221   0.432   7.090
98610SOL     OW97661  13.397   9.173   4.952
98610SOL    HW197662  13.431   9.262   4.943
98610SOL    HW297663  13.422   9.129   4.871
98611SOL     OW97664   4.771   6.103   9.542
98611SOL    HW197665   4.760   6.104   9.447
98611SOL    HW297666   4.731   6.184   9.572
98612SOL     OW97667  14.482  10.569   4.665
98612SOL    HW197668  14.447  10.559   4.753
98612SOL    HW297669  14.487  10.480   4.631
98613SOL     OW97670  10.852   5.542   7.559
98613SOL    HW197671  10.860   5.530   7.654
98613SOL    HW297672  10.758   5.552   7.544
98614SOL     OW97673   1.176  10.261  13.810
98614SOL    HW197674   1.224  10.184  13.780
98614SOL    HW297675   1.109  10.227  13.869
98615SOL     OW97676   7.269   1.570   9.873
98615SOL    HW197677   7.205   1.641   9.880
98615SOL    HW297678   7.265   1.526   9.958
98616SOL     OW97679  13.920   0.319   2.221
98616SOL    HW197680  14.015   0.321   2.206
98616SOL    HW297681  13.900   0.405   2.257
98617SOL     OW97682   7.048   5.467  11.027
98617SOL    HW197683   6.981   5.521  10.985
98617SOL    HW297684   7.014   5.378  11.022
98618SOL     OW97685  13.330   6.256  10.083
98618SOL    HW197686  13.310   6.162  10.085
98618SOL    HW297687  13.271   6.291  10.016
98619SOL     OW97688   0.660   1.398   8.975
98619SOL    HW197689   0.669   1.387   9.070
98619SOL    HW297690   0.579   1.352   8.954
98620SOL     OW97691  11.958   4.039   9.066
98620SOL    HW197692  12.030   4.032   9.128
98620SOL    HW297693  11.951   3.951   9.027
98621SOL     OW97694   1.850   4.211   8.744
98621SOL    HW197695   1.892   4.286   8.786
98621SOL    HW297696   1.921   4.148   8.732
98622SOL     OW97697   3.509  12.622   7.854
98622SOL    HW197698   3.505  12.665   7.769
98622SOL    HW297699   3.595  12.581   7.857
98623SOL     OW97700   0.437  12.835  13.984
98623SOL    HW197701   0.399  12.917  13.951
98623SOL    HW297702   0.428  12.841  14.079
98624SOL     OW97703   7.006  11.045  11.038
98624SOL    HW197704   7.052  11.118  10.997
98624SOL    HW297705   7.074  10.979  11.052
98625SOL     OW97706  12.064  14.361  12.166
98625SOL    HW197707  11.975  14.325  12.167
98625SOL    HW297708  12.076  14.397  12.254
98626SOL     OW97709   4.896  13.277   3.608
98626SOL    HW197710   4.845  13.264   3.529
98626SOL    HW297711   4.970  13.216   3.599
98627SOL     OW97712   5.622   7.022   5.520
98627SOL    HW197713   5.623   6.933   5.557
98627SOL    HW297714   5.682   7.017   5.446
98628SOL     OW97715   8.195   0.792  10.112
98628SOL    HW197716   8.143   0.773  10.191
98628SOL    HW297717   8.258   0.858  10.139
98629SOL     OW97718  13.309   3.355  13.073
98629SOL    HW197719  13.280   3.273  13.113
98629SOL    HW297720  13.379   3.386  13.129
98630SOL     OW97721   5.783   0.283  11.333
98630SOL    HW197722   5.768   0.190  11.321
98630SOL    HW297723   5.748   0.324  11.253
98631SOL     OW97724   7.395  10.132  10.272
98631SOL    HW197725   7.459  10.151  10.341
98631SOL    HW297726   7.379  10.038  10.279
98632SOL     OW97727   5.260  11.778  10.250
98632SOL    HW197728   5.180  11.803  10.203
98632SOL    HW297729   5.316  11.739  10.184
98633SOL     OW97730   4.889   2.696   2.129
98633SOL    HW197731   4.958   2.753   2.094
98633SOL    HW297732   4.877   2.630   2.061
98634SOL     OW97733   8.809   1.152  14.325
98634SOL    HW197734   8.895   1.194  14.330
98634SOL    HW297735   8.780   1.169  14.236
98635SOL     OW97736   6.635   2.358   9.270
98635SOL    HW197737   6.552   2.406   9.267
98635SOL    HW297738   6.702   2.426   9.270
98636SOL     OW97739  11.968   0.249   0.235
98636SOL    HW197740  11.990   0.275   0.324
98636SOL    HW297741  11.877   0.277   0.224
98637SOL     OW97742  11.759   1.006   0.527
98637SOL    HW197743  11.692   0.941   0.546
98637SOL    HW297744  11.841   0.962   0.551
98638SOL     OW97745   0.102   9.264  10.377
98638SOL    HW197746   0.104   9.308  10.462
98638SOL    HW297747   0.062   9.179  10.396
98639SOL     OW97748  13.903   6.276  13.484
98639SOL    HW197749  13.849   6.263  13.406
98639SOL    HW297750  13.926   6.369  13.482
98640SOL     OW97751   6.622  14.830   7.675
98640SOL    HW197752   6.669  14.746   7.669
98640SOL    HW297753   6.533  14.809   7.646
98641SOL     OW97754   3.050   1.054   3.720
98641SOL    HW197755   3.118   1.053   3.787
98641SOL    HW297756   3.055   0.967   3.680
98642SOL     OW97757   4.767   8.818  11.149
98642SOL    HW197758   4.739   8.903  11.116
98642SOL    HW297759   4.694   8.788  11.203
98643SOL     OW97760   7.108   7.073   6.811
98643SOL    HW197761   7.047   7.115   6.750
98643SOL    HW297762   7.168   7.024   6.754
98644SOL     OW97763   9.640   2.831   1.350
98644SOL    HW197764   9.733   2.825   1.328
98644SOL    HW297765   9.633   2.911   1.404
98645SOL     OW97766   1.170   8.130   7.185
98645SOL    HW197767   1.175   8.223   7.163
98645SOL    HW297768   1.082   8.118   7.220
98646SOL     OW97769   3.336   6.903   9.896
98646SOL    HW197770   3.291   6.885   9.813
98646SOL    HW297771   3.416   6.849   9.891
98647SOL     OW97772   8.647   8.237  10.555
98647SOL    HW197773   8.572   8.204  10.505
98647SOL    HW297774   8.690   8.298  10.495
98648SOL     OW97775  10.434   3.426  13.341
98648SOL    HW197776  10.494   3.352  13.352
98648SOL    HW297777  10.347   3.387  13.347
98649SOL     OW97778   2.543  12.933   1.338
98649SOL    HW197779   2.605  12.888   1.281
98649SOL    HW297780   2.523  12.870   1.407
98650SOL     OW97781   5.561  11.233   5.000
98650SOL    HW197782   5.478  11.273   4.975
98650SOL    HW297783   5.536  11.154   5.049
98651SOL     OW97784   7.076   1.198   0.265
98651SOL    HW197785   7.127   1.117   0.258
98651SOL    HW297786   7.141   1.266   0.282
98652SOL     OW97787   2.979  11.883  12.084
98652SOL    HW197788   3.048  11.941  12.118
98652SOL    HW297789   2.950  11.926  12.003
98653SOL     OW97790  12.516   7.414  10.912
98653SOL    HW197791  12.567   7.334  10.899
98653SOL    HW297792  12.556   7.479  10.855
98654SOL     OW97793  10.427   0.623  10.588
98654SOL    HW197794  10.424   0.592  10.498
98654SOL    HW297795  10.337   0.648  10.608
98655SOL     OW97796  12.139  14.827   8.419
98655SOL    HW197797  12.072  14.760   8.406
98655SOL    HW297798  12.114   0.017   8.361
98656SOL     OW97799   3.921   1.393  13.084
98656SOL    HW197800   3.865   1.326  13.122
98656SOL    HW297801   3.896   1.397  12.992
98657SOL     OW97802  11.253   1.910  11.345
98657SOL    HW197803  11.218   1.955  11.422
98657SOL    HW297804  11.345   1.939  11.340
98658SOL     OW97805   3.248   6.167   0.441
98658SOL    HW197806   3.329   6.129   0.406
98658SOL    HW297807   3.244   6.254   0.400
98659SOL     OW97808   1.140  14.522   8.067
98659SOL    HW197809   1.181  14.436   8.071
98659SOL    HW297810   1.180  14.571   8.139
98660SOL     OW97811  12.120   9.425   0.674
98660SOL    HW197812  12.174   9.503   0.687
98660SOL    HW297813  12.114   9.415   0.579
98661SOL     OW97814   6.947  14.787  14.337
98661SOL    HW197815   6.967  14.731  14.262
98661SOL    HW297816   6.878  14.741  14.384
98662SOL     OW97817  12.956   1.464   6.848
98662SOL    HW197818  12.861   1.467   6.835
98662SOL    HW297819  12.971   1.388   6.904
98663SOL     OW97820  14.216   0.129  14.140
98663SOL    HW197821  14.177   0.099  14.058
98663SOL    HW297822  14.298   0.172  14.114
98664SOL     OW97823  14.523  12.322  13.849
98664SOL    HW197824  14.527  12.322  13.754
98664SOL    HW297825  14.607  12.283  13.877
98665SOL     OW97826   5.022   4.032  13.630
98665SOL    HW197827   5.024   4.078  13.546
98665SOL    HW297828   4.940   3.982  13.628
98666SOL     OW97829   3.779  13.008   1.127
98666SOL    HW197830   3.811  13.045   1.045
98666SOL    HW297831   3.825  12.924   1.135
98667SOL     OW97832   1.021   6.230   9.134
98667SOL    HW197833   0.970   6.161   9.177
98667SOL    HW297834   1.014   6.209   9.040
98668SOL     OW97835  12.185   1.993   6.207
98668SOL    HW197836  12.260   1.961   6.157
98668SOL    HW297837  12.220   2.067   6.257
98669SOL     OW97838   2.389  14.197   2.285
98669SOL    HW197839   2.326  14.161   2.224
98669SOL    HW297840   2.412  14.283   2.249
98670SOL     OW97841   5.208  11.842   1.563
98670SOL    HW197842   5.149  11.770   1.585
98670SOL    HW297843   5.149  11.915   1.544
98671SOL     OW97844  14.572   9.213   1.408
98671SOL    HW197845  14.656   9.174   1.432
98671SOL    HW297846  14.591   9.306   1.398
98672SOL     OW97847  13.350   2.727   9.799
98672SOL    HW197848  13.426   2.774   9.834
98672SOL    HW297849  13.382   2.638   9.783
98673SOL     OW97850   2.112   1.555   1.387
98673SOL    HW197851   2.134   1.609   1.311
98673SOL    HW297852   2.036   1.504   1.359
98674SOL     OW97853   0.552   6.999   9.227
98674SOL    HW197854   0.563   6.966   9.138
98674SOL    HW297855   0.458   7.012   9.236
98675SOL     OW97856   7.217   2.314   3.272
98675SOL    HW197857   7.163   2.375   3.322
98675SOL    HW297858   7.306   2.347   3.284
98676SOL     OW97859  14.523   7.551   7.402
98676SOL    HW197860  14.556   7.471   7.360
98676SOL    HW297861  14.482   7.519   7.483
98677SOL     OW97862   5.525  11.898  11.098
98677SOL    HW197863   5.586  11.961  11.136
98677SOL    HW297864   5.480  11.860  11.173
98678SOL     OW97865  10.575  12.523  11.630
98678SOL    HW197866  10.530  12.554  11.708
98678SOL    HW297867  10.533  12.439  11.610
98679SOL     OW97868   9.615   4.066   4.386
98679SOL    HW197869   9.655   4.146   4.422
98679SOL    HW297870   9.529   4.095   4.355
98680SOL     OW97871  10.079  10.933   3.332
98680SOL    HW197872  10.078  10.837   3.326
98680SOL    HW297873  10.055  10.963   3.244
98681SOL     OW97874   0.781   8.050  14.009
98681SOL    HW197875   0.868   8.089  14.015
98681SOL    HW297876   0.764   8.014  14.096
98682SOL     OW97877   7.398  14.242   8.190
98682SOL    HW197878   7.467  14.304   8.168
98682SOL    HW297879   7.376  14.262   8.281
98683SOL     OW97880   3.572   3.494   4.102
98683SOL    HW197881   3.635   3.566   4.104
98683SOL    HW297882   3.625   3.416   4.084
98684SOL     OW97883   2.213  12.158  14.869
98684SOL    HW197884   2.167  12.114  14.797
98684SOL    HW297885   2.291  12.105   0.001
98685SOL     OW97886  11.990   5.676   6.910
98685SOL    HW197887  11.956   5.590   6.931
98685SOL    HW297888  11.953   5.734   6.977
98686SOL     OW97889   6.386   8.474  11.084
98686SOL    HW197890   6.471   8.476  11.128
98686SOL    HW297891   6.374   8.383  11.058
98687SOL     OW97892   8.828  10.716   2.717
98687SOL    HW197893   8.829  10.641   2.657
98687SOL    HW297894   8.736  10.741   2.722
98688SOL     OW97895   6.407   1.482   8.986
98688SOL    HW197896   6.327   1.434   9.009
98688SOL    HW297897   6.387   1.573   9.008
98689SOL     OW97898   6.027  13.368  13.013
98689SOL    HW197899   5.994  13.384  13.102
98689SOL    HW297900   6.122  13.371  13.022
98690SOL     OW97901  12.723  11.638   2.295
98690SOL    HW197902  12.659  11.575   2.327
98690SOL    HW297903  12.805  11.589   2.290
98691SOL     OW97904  11.181   7.640   1.092
98691SOL    HW197905  11.196   7.662   1.000
98691SOL    HW297906  11.147   7.551   1.091
98692SOL     OW97907  14.147   6.364   6.627
98692SOL    HW197908  14.221   6.386   6.570
98692SOL    HW297909  14.092   6.306   6.574
98693SOL     OW97910  12.116  11.983   0.927
98693SOL    HW197911  12.112  12.009   0.836
98693SOL    HW297912  12.036  12.019   0.966
98694SOL     OW97913   7.977  10.668   4.247
98694SOL    HW197914   7.914  10.679   4.175
98694SOL    HW297915   7.941  10.596   4.299
98695SOL     OW97916   3.181   0.379   3.390
98695SOL    HW197917   3.137   0.454   3.350
98695SOL    HW297918   3.110   0.317   3.407
98696SOL     OW97919  10.511   8.791   6.502
98696SOL    HW197920  10.543   8.856   6.439
98696SOL    HW297921  10.545   8.708   6.470
98697SOL     OW97922  10.068   1.041   2.383
98697SOL    HW197923  10.127   0.980   2.339
98697SOL    HW297924  10.125   1.096   2.437
98698SOL     OW97925  14.402   3.649   2.521
98698SOL    HW197926  14.385   3.688   2.435
98698SOL    HW297927  14.497   3.643   2.527
98699SOL     OW97928   6.992  10.920   9.365
98699SOL    HW197929   6.927  10.967   9.313
98699SOL    HW297930   7.059  10.893   9.302
98700SOL     OW97931  13.297   0.103   5.293
98700SOL    HW197932  13.287   0.193   5.323
98700SOL    HW297933  13.210   0.064   5.301
98701SOL     OW97934   4.779   3.066   4.220
98701SOL    HW197935   4.719   2.992   4.219
98701SOL    HW297936   4.722   3.142   4.237
98702SOL     OW97937   8.635  13.267   2.015
98702SOL    HW197938   8.545  13.291   1.992
98702SOL    HW297939   8.686  13.294   1.939
98703SOL     OW97940  11.757   2.835   7.318
98703SOL    HW197941  11.708   2.875   7.390
98703SOL    HW297942  11.705   2.760   7.291
98704SOL     OW97943   0.220  13.880   0.804
98704SOL    HW197944   0.237  13.873   0.710
98704SOL    HW297945   0.306  13.895   0.843
98705SOL     OW97946   5.816  13.396   3.469
98705SOL    HW197947   5.874  13.399   3.545
98705SOL    HW297948   5.780  13.485   3.462
98706SOL     OW97949  12.686  10.278  11.606
98706SOL    HW197950  12.639  10.358  11.583
98706SOL    HW297951  12.624  10.207  11.588
98707SOL     OW97952   9.460   5.176   8.832
98707SOL    HW197953   9.393   5.120   8.870
98707SOL    HW297954   9.542   5.145   8.871
98708SOL     OW97955   5.296   3.106   6.030
98708SOL    HW197956   5.327   3.101   5.940
98708SOL    HW297957   5.217   3.052   6.032
98709SOL     OW97958   0.459  13.331   3.505
98709SOL    HW197959   0.505  13.250   3.528
98709SOL    HW297960   0.509  13.367   3.431
98710SOL     OW97961  13.770   2.210   7.232
98710SOL    HW197962  13.861   2.229   7.254
98710SOL    HW297963  13.763   2.114   7.241
98711SOL     OW97964   3.984  13.804  14.764
98711SOL    HW197965   4.072  13.801  14.728
98711SOL    HW297966   3.995  13.842  14.851
98712SOL     OW97967   0.800  13.277  10.420
98712SOL    HW197968   0.893  13.270  10.397
98712SOL    HW297969   0.774  13.187  10.441
98713SOL     OW97970  14.779   1.451   7.925
98713SOL    HW197971  14.847   1.389   7.899
98713SOL    HW297972  14.825   1.534   7.936
98714SOL     OW97973   7.174   5.814  13.370
98714SOL    HW197974   7.101   5.854  13.323
98714SOL    HW297975   7.205   5.883  13.429
98715SOL     OW97976  10.202   1.862  14.186
98715SOL    HW197977  10.191   1.828  14.275
98715SOL    HW297978  10.124   1.914  14.171
98716SOL     OW97979   3.905   2.470  10.510
98716SOL    HW197980   3.839   2.406  10.483
98716SOL    HW297981   3.975   2.418  10.549
98717SOL     OW97982  13.405  14.139  10.704
98717SOL    HW197983  13.371  14.094  10.781
98717SOL    HW297984  13.449  14.217  10.739
98718SOL     OW97985   5.602  13.521  12.668
98718SOL    HW197986   5.559  13.444  12.705
98718SOL    HW297987   5.536  13.559  12.610
98719SOL     OW97988   9.306   6.109  12.270
98719SOL    HW197989   9.348   6.178  12.321
98719SOL    HW297990   9.280   6.151  12.188
98720SOL     OW97991  14.264   6.340  10.348
98720SOL    HW197992  14.231   6.297  10.270
98720SOL    HW297993  14.253   6.276  10.418
98721SOL     OW97994   5.460   9.804   4.269
98721SOL    HW197995   5.482   9.790   4.177
98721SOL    HW297996   5.381   9.858   4.267
98722SOL     OW97997   4.057  11.962   0.863
98722SOL    HW197998   4.114  11.985   0.936
98722SOL    HW297999   3.985  11.913   0.903
98723SOL     OW98000   7.469   6.148   7.327
98723SOL    HW198001   7.386   6.196   7.334
98723SOL    HW298002   7.511   6.186   7.250
98724SOL     OW98003  11.467  14.545  12.857
98724SOL    HW198004  11.520  14.486  12.911
98724SOL    HW298005  11.509  14.631  12.868
98725SOL     OW98006   8.884   9.790   4.566
98725SOL    HW198007   8.865   9.713   4.620
98725SOL    HW298008   8.942   9.844   4.621
98726SOL     OW98009   3.232   2.342  12.747
98726SOL    HW198010   3.288   2.289  12.690
98726SOL    HW298011   3.260   2.320  12.836
98727SOL     OW98012   8.730  13.299   6.411
98727SOL    HW198013   8.675  13.349   6.470
98727SOL    HW298014   8.765  13.228   6.464
98728SOL     OW98015   8.542  11.055  10.081
98728SOL    HW198016   8.538  11.076   9.988
98728SOL    HW298017   8.636  11.048  10.100
98729SOL     OW98018  13.721   5.305   7.947
98729SOL    HW198019  13.725   5.398   7.967
98729SOL    HW298020  13.788   5.291   7.880
98730SOL     OW98021   8.826   5.672   1.087
98730SOL    HW198022   8.745   5.625   1.111
98730SOL    HW298023   8.882   5.665   1.164
98731SOL     OW98024  11.467   8.018  10.608
98731SOL    HW198025  11.454   7.924  10.620
98731SOL    HW298026  11.411   8.041  10.534
98732SOL     OW98027  13.850  14.044   3.398
98732SOL    HW198028  13.777  14.070   3.342
98732SOL    HW298029  13.925  14.094   3.364
98733SOL     OW98030  12.626  11.932   8.647
98733SOL    HW198031  12.558  12.000   8.649
98733SOL    HW298032  12.579  11.851   8.667
98734SOL     OW98033   5.989   1.424   6.123
98734SOL    HW198034   5.941   1.495   6.081
98734SOL    HW298035   6.047   1.390   6.055
98735SOL     OW98036  10.923   2.288  13.209
98735SOL    HW198037  10.839   2.243  13.208
98735SOL    HW298038  10.988   2.217  13.207
98736SOL     OW98039   1.094   8.275   8.464
98736SOL    HW198040   1.031   8.205   8.446
98736SOL    HW298041   1.155   8.237   8.526
98737SOL     OW98042  14.193   0.414   6.385
98737SOL    HW198043  14.156   0.488   6.336
98737SOL    HW298044  14.235   0.360   6.318
98738SOL     OW98045  12.003   1.276  13.142
98738SOL    HW198046  12.094   1.247  13.148
98738SOL    HW298047  11.976   1.290  13.233
98739SOL     OW98048  12.337   1.969   1.597
98739SOL    HW198049  12.399   1.910   1.640
98739SOL    HW298050  12.256   1.918   1.592
98740SOL     OW98051  10.098   4.954   9.799
98740SOL    HW198052  10.154   4.912   9.734
98740SOL    HW298053  10.148   5.031   9.827
98741SOL     OW98054   7.343   6.041  12.701
98741SOL    HW198055   7.411   6.065  12.765
98741SOL    HW298056   7.275   6.107  12.713
98742SOL     OW98057   8.573  14.621  11.329
98742SOL    HW198058   8.611  14.569  11.258
98742SOL    HW298059   8.507  14.563  11.368
98743SOL     OW98060   3.272  11.428  12.283
98743SOL    HW198061   3.288  11.383  12.366
98743SOL    HW298062   3.359  11.455  12.253
98744SOL     OW98063   2.434   2.408   7.136
98744SOL    HW198064   2.472   2.442   7.054
98744SOL    HW298065   2.356   2.462   7.150
98745SOL     OW98066  13.587   7.406   7.780
98745SOL    HW198067  13.601   7.445   7.866
98745SOL    HW298068  13.500   7.435   7.754
98746SOL     OW98069  13.331  12.261  12.288
98746SOL    HW198070  13.323  12.180  12.337
98746SOL    HW298071  13.252  12.266  12.234
98747SOL     OW98072  13.568   9.952   1.980
98747SOL    HW198073  13.491  10.009   1.981
98747SOL    HW298074  13.622   9.986   1.908
98748SOL     OW98075   2.953   4.960   0.816
98748SOL    HW198076   2.913   4.992   0.896
98748SOL    HW298077   2.923   5.020   0.748
98749SOL     OW98078   7.926  11.749   3.916
98749SOL    HW198079   8.016  11.725   3.936
98749SOL    HW298080   7.892  11.674   3.867
98750SOL     OW98081   8.376   7.332   6.526
98750SOL    HW198082   8.363   7.262   6.462
98750SOL    HW298083   8.289   7.370   6.538
98751SOL     OW98084  12.962  14.684   5.961
98751SOL    HW198085  12.940  14.656   5.872
98751SOL    HW298086  12.945  14.778   5.962
98752SOL     OW98087   1.530   7.126   2.344
98752SOL    HW198088   1.618   7.117   2.307
98752SOL    HW298089   1.504   7.036   2.366
98753SOL     OW98090  10.143   9.347  11.744
98753SOL    HW198091  10.154   9.262  11.699
98753SOL    HW298092  10.106   9.405  11.677
98754SOL     OW98093  12.572  12.043  10.933
98754SOL    HW198094  12.494  11.990  10.913
98754SOL    HW298095  12.541  12.107  10.997
98755SOL     OW98096   3.835   5.676   7.636
98755SOL    HW198097   3.920   5.631   7.643
98755SOL    HW298098   3.788   5.652   7.715
98756SOL     OW98099   1.618  10.337  10.346
98756SOL    HW198100   1.558  10.411  10.341
98756SOL    HW298101   1.564  10.260  10.329
98757SOL     OW98102   3.289   8.114  14.571
98757SOL    HW198103   3.240   8.039  14.605
98757SOL    HW298104   3.333   8.081  14.493
98758SOL     OW98105   3.835   2.031   7.296
98758SOL    HW198106   3.846   2.066   7.208
98758SOL    HW298107   3.754   1.979   7.291
98759SOL     OW98108   5.064   5.436   2.031
98759SOL    HW198109   5.065   5.340   2.034
98759SOL    HW298110   5.116   5.457   1.954
98760SOL     OW98111   6.458   4.742  10.677
98760SOL    HW198112   6.487   4.763  10.589
98760SOL    HW298113   6.381   4.686  10.664
98761SOL     OW98114   4.784  10.112   5.359
98761SOL    HW198115   4.714  10.123   5.294
98761SOL    HW298116   4.854  10.170   5.328
98762SOL     OW98117   1.620   5.073   8.836
98762SOL    HW198118   1.587   5.117   8.758
98762SOL    HW298119   1.589   5.128   8.908
98763SOL     OW98120   7.709   5.190  11.254
98763SOL    HW198121   7.698   5.284  11.240
98763SOL    HW298122   7.754   5.183  11.338
98764SOL     OW98123  11.377  12.959  12.224
98764SOL    HW198124  11.459  12.947  12.272
98764SOL    HW298125  11.398  12.935  12.134
98765SOL     OW98126   1.470   6.616   5.707
98765SOL    HW198127   1.402   6.650   5.648
98765SOL    HW298128   1.425   6.548   5.758
98766SOL     OW98129   3.995   9.152   6.955
98766SOL    HW198130   4.034   9.114   6.877
98766SOL    HW298131   4.001   9.084   7.021
98767SOL     OW98132   2.896   4.759  14.138
98767SOL    HW198133   2.875   4.816  14.065
98767SOL    HW298134   2.818   4.706  14.151
98768SOL     OW98135   4.154   4.090  12.773
98768SOL    HW198136   4.103   4.154  12.723
98768SOL    HW298137   4.089   4.029  12.808
98769SOL     OW98138  11.004   8.388   2.101
98769SOL    HW198139  11.085   8.439   2.103
98769SOL    HW298140  10.954   8.425   2.028
98770SOL     OW98141   6.746   2.744  10.787
98770SOL    HW198142   6.723   2.711  10.874
98770SOL    HW298143   6.770   2.835  10.802
98771SOL     OW98144   1.161   5.539  13.791
98771SOL    HW198145   1.222   5.601  13.751
98771SOL    HW298146   1.108   5.506  13.718
98772SOL     OW98147   6.024   3.009   6.150
98772SOL    HW198148   6.034   3.105   6.146
98772SOL    HW298149   5.930   2.994   6.140
98773SOL     OW98150   4.089  13.426  11.332
98773SOL    HW198151   4.096  13.331  11.327
98773SOL    HW298152   4.173  13.458  11.300
98774SOL     OW98153   8.841  14.062   8.575
98774SOL    HW198154   8.855  13.968   8.563
98774SOL    HW298155   8.779  14.086   8.507
98775SOL     OW98156   2.737   8.518   0.198
98775SOL    HW198157   2.713   8.471   0.118
98775SOL    HW298158   2.672   8.491   0.262
98776SOL     OW98159  13.989   3.672   9.606
98776SOL    HW198160  13.927   3.600   9.616
98776SOL    HW298161  13.946   3.733   9.546
98777SOL     OW98162   3.754   6.352   9.282
98777SOL    HW198163   3.766   6.439   9.245
98777SOL    HW298164   3.674   6.319   9.240
98778SOL     OW98165   4.880   6.074   7.967
98778SOL    HW198166   4.890   6.065   8.062
98778SOL    HW298167   4.787   6.056   7.951
98779SOL     OW98168  12.237  10.936   1.609
98779SOL    HW198169  12.230  11.030   1.593
98779SOL    HW298170  12.282  10.930   1.693
98780SOL     OW98171  10.709   1.532   5.349
98780SOL    HW198172  10.624   1.537   5.392
98780SOL    HW298173  10.718   1.615   5.304
98781SOL     OW98174  14.180   6.107  13.996
98781SOL    HW198175  14.217   6.037  14.050
98781SOL    HW298176  14.248   6.127  13.932
98782SOL     OW98177   7.722   2.351   2.277
98782SOL    HW198178   7.691   2.409   2.208
98782SOL    HW298179   7.783   2.404   2.327
98783SOL     OW98180  10.954   5.352   6.408
98783SOL    HW198181  11.017   5.289   6.373
98783SOL    HW298182  10.926   5.403   6.332
98784SOL     OW98183  14.463   7.798   2.485
98784SOL    HW198184  14.523   7.861   2.445
98784SOL    HW298185  14.380   7.811   2.438
98785SOL     OW98186   6.351   8.660   3.654
98785SOL    HW198187   6.363   8.696   3.566
98785SOL    HW298188   6.410   8.585   3.658
98786SOL     OW98189   8.836  13.929   7.809
98786SOL    HW198190   8.898  13.949   7.740
98786SOL    HW298191   8.763  13.887   7.764
98787SOL     OW98192   2.074  11.939  10.655
98787SOL    HW198193   2.102  11.931  10.746
98787SOL    HW298194   2.087  12.032  10.634
98788SOL     OW98195   5.403  10.942   1.187
98788SOL    HW198196   5.317  10.899   1.187
98788SOL    HW298197   5.385  11.031   1.219
98789SOL     OW98198   8.752   5.771  14.165
98789SOL    HW198199   8.790   5.708  14.104
98789SOL    HW298200   8.664   5.787  14.132
98790SOL     OW98201  12.336   3.308  13.153
98790SOL    HW198202  12.382   3.382  13.194
98790SOL    HW298203  12.283   3.271  13.223
98791SOL     OW98204   9.756  13.830  14.704
98791SOL    HW198205   9.802  13.900  14.750
98791SOL    HW298206   9.815  13.805  14.632
98792SOL     OW98207  11.628   5.500   2.489
98792SOL    HW198208  11.667   5.417   2.463
98792SOL    HW298209  11.702   5.552   2.520
98793SOL     OW98210   9.126   5.359   9.247
98793SOL    HW198211   9.138   5.364   9.153
98793SOL    HW298212   9.211   5.331   9.282
98794SOL     OW98213  10.329  11.621   3.077
98794SOL    HW198214  10.416  11.599   3.109
98794SOL    HW298215  10.338  11.709   3.042
98795SOL     OW98216   0.752   7.262  13.647
98795SOL    HW198217   0.724   7.241  13.736
98795SOL    HW298218   0.679   7.311  13.610
98796SOL     OW98219  10.557   2.193   8.598
98796SOL    HW198220  10.535   2.245   8.521
98796SOL    HW298221  10.579   2.107   8.562
98797SOL     OW98222  12.703  11.004   2.820
98797SOL    HW198223  12.686  11.095   2.844
98797SOL    HW298224  12.725  10.961   2.902
98798SOL     OW98225  11.905   8.775  12.803
98798SOL    HW198226  11.825   8.729  12.779
98798SOL    HW298227  11.965   8.758  12.730
98799SOL     OW98228   4.511   1.721   0.314
98799SOL    HW198229   4.483   1.727   0.405
98799SOL    HW298230   4.558   1.637   0.309
98800SOL     OW98231  13.294  13.125   3.101
98800SOL    HW198232  13.329  13.051   3.052
98800SOL    HW298233  13.209  13.142   3.060
98801SOL     OW98234   8.509   0.779  13.334
98801SOL    HW198235   8.417   0.796  13.313
98801SOL    HW298236   8.558   0.840  13.280
98802SOL     OW98237  12.129   1.916  11.960
98802SOL    HW198238  12.101   1.978  12.028
98802SOL    HW298239  12.126   1.967  11.879
98803SOL     OW98240   1.168  13.595   1.378
98803SOL    HW198241   1.229  13.557   1.314
98803SOL    HW298242   1.081  13.572   1.345
98804SOL     OW98243   7.390   7.276  14.565
98804SOL    HW198244   7.385   7.186  14.598
98804SOL    HW298245   7.331   7.277  14.489
98805SOL     OW98246   0.063   2.542   7.310
98805SOL    HW198247  14.853   2.537   7.338
98805SOL    HW298248   0.058   2.551   7.215
98806SOL     OW98249   4.777   9.251  13.456
98806SOL    HW198250   4.713   9.194  13.498
98806SOL    HW298251   4.811   9.199  13.383
98807SOL     OW98252   0.448  11.235   4.141
98807SOL    HW198253   0.455  11.167   4.074
98807SOL    HW298254   0.405  11.192   4.215
98808SOL     OW98255   2.103   0.747   1.746
98808SOL    HW198256   2.095   0.793   1.663
98808SOL    HW298257   2.134   0.813   1.808
98809SOL     OW98258   1.339   1.457   4.952
98809SOL    HW198259   1.356   1.503   5.035
98809SOL    HW298260   1.295   1.376   4.978
98810SOL     OW98261   1.498   5.836  11.764
98810SOL    HW198262   1.477   5.927  11.743
98810SOL    HW298263   1.441   5.784  11.707
98811SOL     OW98264  11.591   5.110   5.443
98811SOL    HW198265  11.560   5.112   5.534
98811SOL    HW298266  11.520   5.149   5.393
98812SOL     OW98267  10.445   4.079   6.610
98812SOL    HW198268  10.449   4.170   6.580
98812SOL    HW298269  10.354   4.066   6.637
98813SOL     OW98270   3.512   6.371   4.611
98813SOL    HW198271   3.545   6.418   4.687
98813SOL    HW298272   3.440   6.317   4.644
98814SOL     OW98273   8.145   9.139   2.336
98814SOL    HW198274   8.239   9.152   2.348
98814SOL    HW298275   8.139   9.059   2.284
98815SOL     OW98276  11.160  14.204   1.989
98815SOL    HW198277  11.118  14.146   1.926
98815SOL    HW298278  11.124  14.178   2.074
98816SOL     OW98279   6.270   9.849   0.680
98816SOL    HW198280   6.350   9.884   0.719
98816SOL    HW298281   6.213   9.829   0.754
98817SOL     OW98282   1.808   2.667  11.861
98817SOL    HW198283   1.866   2.740  11.840
98817SOL    HW298284   1.867   2.593  11.876
98818SOL     OW98285  14.286   3.093  11.231
98818SOL    HW198286  14.268   3.007  11.194
98818SOL    HW298287  14.278   3.080  11.326
98819SOL     OW98288   6.979   1.669  11.465
98819SOL    HW198289   7.044   1.734  11.438
98819SOL    HW298290   6.950   1.700  11.551
98820SOL     OW98291   0.346   8.197   8.530
98820SOL    HW198292   0.278   8.264   8.539
98820SOL    HW298293   0.320   8.129   8.592
98821SOL     OW98294  10.547   3.493  13.835
98821SOL    HW198295  10.559   3.437  13.759
98821SOL    HW298296  10.458   3.529  13.825
98822SOL     OW98297   0.696   9.139   3.405
98822SOL    HW198298   0.626   9.076   3.385
98822SOL    HW298299   0.702   9.138   3.501
98823SOL     OW98300   1.044   3.202  14.390
98823SOL    HW198301   1.075   3.256  14.462
98823SOL    HW298302   1.092   3.119  14.400
98824SOL     OW98303   9.583  10.977   1.247
98824SOL    HW198304   9.521  10.918   1.288
98824SOL    HW298305   9.575  10.961   1.154
98825SOL     OW98306   2.154   8.379   4.500
98825SOL    HW198307   2.235   8.421   4.529
98825SOL    HW298308   2.103   8.367   4.580
98826SOL     OW98309   8.253   3.848   8.212
98826SOL    HW198310   8.230   3.910   8.282
98826SOL    HW298311   8.251   3.900   8.132
98827SOL     OW98312  13.362   3.406   1.741
98827SOL    HW198313  13.322   3.458   1.671
98827SOL    HW298314  13.349   3.458   1.820
98828SOL     OW98315   4.438  12.056  10.679
98828SOL    HW198316   4.421  11.994  10.608
98828SOL    HW298317   4.530  12.042  10.702
98829SOL     OW98318   5.643  11.691   9.110
98829SOL    HW198319   5.706  11.739   9.163
98829SOL    HW298320   5.564  11.745   9.109
98830SOL     OW98321   5.535  10.096  14.132
98830SOL    HW198322   5.628  10.089  14.153
98830SOL    HW298323   5.492  10.091  14.218
98831SOL     OW98324  12.349   0.195  13.760
98831SOL    HW198325  12.377   0.114  13.717
98831SOL    HW298326  12.383   0.189  13.849
98832SOL     OW98327   9.248   9.276  14.543
98832SOL    HW198328   9.155   9.267  14.521
98832SOL    HW298329   9.275   9.358  14.503
98833SOL     OW98330   6.409   9.666  13.621
98833SOL    HW198331   6.384   9.605  13.691
98833SOL    HW298332   6.503   9.680  13.634
98834SOL     OW98333   1.386   2.780   0.087
98834SOL    HW198334   1.442   2.844   0.043
98834SOL    HW298335   1.446   2.709   0.112
98835SOL     OW98336   0.969  10.521   6.491
98835SOL    HW198337   0.893  10.557   6.536
98835SOL    HW298338   0.933  10.472   6.417
98836SOL     OW98339   2.657   0.603   5.041
98836SOL    HW198340   2.568   0.585   5.071
98836SOL    HW298341   2.711   0.537   5.085
98837SOL     OW98342  10.611   0.573   5.512
98837SOL    HW198343  10.647   0.625   5.440
98837SOL    HW298344  10.530   0.618   5.535
98838SOL     OW98345  10.582  10.854   2.371
98838SOL    HW198346  10.663  10.805   2.360
98838SOL    HW298347  10.538  10.811   2.444
98839SOL     OW98348   3.886   6.302  13.016
98839SOL    HW198349   3.870   6.274  13.106
98839SOL    HW298350   3.956   6.367  13.023
98840SOL     OW98351   9.113   1.664   3.479
98840SOL    HW198352   9.203   1.632   3.487
98840SOL    HW298353   9.102   1.724   3.553
98841SOL     OW98354   8.144   2.197  10.850
98841SOL    HW198355   8.146   2.228  10.760
98841SOL    HW298356   8.071   2.135  10.853
98842SOL     OW98357   6.975  12.037   7.433
98842SOL    HW198358   6.980  12.127   7.402
98842SOL    HW298359   7.012  12.040   7.521
98843SOL     OW98360   8.253   9.584   8.783
98843SOL    HW198361   8.178   9.641   8.796
98843SOL    HW298362   8.327   9.632   8.818
98844SOL     OW98363  11.746  11.103  10.616
98844SOL    HW198364  11.822  11.139  10.662
98844SOL    HW298365  11.707  11.178  10.571
98845SOL     OW98366   4.683   8.627   5.994
98845SOL    HW198367   4.715   8.568   5.926
98845SOL    HW298368   4.700   8.581   6.076
98846SOL     OW98369  13.155   9.374  12.456
98846SOL    HW198370  13.183   9.439  12.392
98846SOL    HW298371  13.228   9.312  12.460
98847SOL     OW98372   5.198  11.027   2.283
98847SOL    HW198373   5.225  10.947   2.239
98847SOL    HW298374   5.108  11.042   2.254
98848SOL     OW98375  13.692   5.662   2.297
98848SOL    HW198376  13.656   5.606   2.228
98848SOL    HW298377  13.615   5.693   2.345
98849SOL     OW98378  14.400   3.302   7.138
98849SOL    HW198379  14.409   3.376   7.198
98849SOL    HW298380  14.307   3.298   7.119
98850SOL     OW98381  11.064  14.678   0.913
98850SOL    HW198382  11.020  14.600   0.947
98850SOL    HW298383  11.155  14.670   0.942
98851SOL     OW98384  14.639  12.810   8.560
98851SOL    HW198385  14.692  12.739   8.525
98851SOL    HW298386  14.590  12.843   8.484
98852SOL     OW98387   5.041   9.242   7.049
98852SOL    HW198388   5.098   9.310   7.014
98852SOL    HW298389   5.019   9.272   7.137
98853SOL     OW98390  14.069  10.971   4.353
98853SOL    HW198391  14.095  11.063   4.346
98853SOL    HW298392  14.015  10.955   4.275
98854SOL     OW98393   8.973   1.000  12.756
98854SOL    HW198394   8.972   1.096  12.759
98854SOL    HW298395   8.937   0.979  12.670
98855SOL     OW98396   7.614   0.241  14.357
98855SOL    HW198397   7.576   0.154  14.346
98855SOL    HW298398   7.691   0.228  14.411
98856SOL     OW98399  13.369   4.047   1.943
98856SOL    HW198400  13.448   4.053   1.889
98856SOL    HW298401  13.389   3.977   2.006
98857SOL     OW98402   6.324   0.536  14.379
98857SOL    HW198403   6.317   0.620  14.425
98857SOL    HW298404   6.233   0.506  14.369
98858SOL     OW98405  13.343   0.138   7.072
98858SOL    HW198406  13.336   0.193   7.151
98858SOL    HW298407  13.345   0.048   7.105
98859SOL     OW98408   0.064   0.273   0.603
98859SOL    HW198409   0.036   0.187   0.570
98859SOL    HW298410   0.062   0.263   0.698
98860SOL     OW98411   7.808  12.336   8.985
98860SOL    HW198412   7.840  12.342   8.895
98860SOL    HW298413   7.713  12.328   8.977
98861SOL     OW98414  12.168   6.869  11.175
98861SOL    HW198415  12.193   6.817  11.099
98861SOL    HW298416  12.146   6.805  11.242
98862SOL     OW98417  11.384   2.507   8.371
98862SOL    HW198418  11.304   2.455   8.360
98862SOL    HW298419  11.366   2.563   8.447
98863SOL     OW98420   9.345  13.331  11.401
98863SOL    HW198421   9.258  13.291  11.403
98863SOL    HW298422   9.358  13.356  11.310
98864SOL     OW98423   8.805  10.365   9.289
98864SOL    HW198424   8.802  10.451   9.246
98864SOL    HW298425   8.724  10.362   9.339
98865SOL     OW98426   3.190   7.525  13.936
98865SOL    HW198427   3.223   7.505  13.848
98865SOL    HW298428   3.120   7.588  13.921
98866SOL     OW98429   1.279  10.063  11.446
98866SOL    HW198430   1.273  10.132  11.381
98866SOL    HW298431   1.366  10.073  11.484
98867SOL     OW98432   3.417  14.353   3.580
98867SOL    HW198433   3.475  14.425   3.604
98867SOL    HW298434   3.345  14.358   3.642
98868SOL     OW98435   6.941   8.771   9.812
98868SOL    HW198436   7.007   8.837   9.793
98868SOL    HW298437   6.920   8.784   9.904
98869SOL     OW98438   7.841   7.038  10.011
98869SOL    HW198439   7.838   6.945  10.031
98869SOL    HW298440   7.915   7.071  10.062
98870SOL     OW98441  10.946   9.955   7.701
98870SOL    HW198442  11.031   9.999   7.711
98870SOL    HW298443  10.886  10.025   7.676
98871SOL     OW98444   7.945  14.297  11.250
98871SOL    HW198445   7.892  14.257  11.319
98871SOL    HW298446   8.018  14.236  11.237
98872SOL     OW98447   3.560   8.818   2.594
98872SOL    HW198448   3.503   8.857   2.660
98872SOL    HW298449   3.594   8.738   2.634
98873SOL     OW98450   5.221   4.130  11.131
98873SOL    HW198451   5.174   4.072  11.070
98873SOL    HW298452   5.308   4.090  11.139
98874SOL     OW98453   4.766   9.196   1.776
98874SOL    HW198454   4.724   9.157   1.699
98874SOL    HW298455   4.788   9.121   1.832
98875SOL     OW98456   7.896   4.732   5.897
98875SOL    HW198457   7.911   4.638   5.900
98875SOL    HW298458   7.982   4.770   5.883
98876SOL     OW98459  11.689   0.225   4.862
98876SOL    HW198460  11.661   0.180   4.942
98876SOL    HW298461  11.728   0.156   4.809
98877SOL     OW98462   0.310  11.677  11.582
98877SOL    HW198463   0.396  11.712  11.558
98877SOL    HW298464   0.261  11.677  11.500
98878SOL     OW98465  11.970  14.164   1.035
98878SOL    HW198466  11.949  14.192   1.124
98878SOL    HW298467  11.918  14.221   0.979
98879SOL     OW98468  10.794   3.181   3.970
98879SOL    HW198469  10.859   3.115   3.946
98879SOL    HW298470  10.732   3.182   3.897
98880SOL     OW98471   5.378  12.229   7.037
98880SOL    HW198472   5.430  12.149   7.042
98880SOL    HW298473   5.297  12.203   6.993
98881SOL     OW98474  10.140  12.123   6.112
98881SOL    HW198475  10.191  12.200   6.086
98881SOL    HW298476  10.065  12.160   6.160
98882SOL     OW98477   2.780   1.671  14.049
98882SOL    HW198478   2.851   1.675  14.113
98882SOL    HW298479   2.753   1.580  14.048
98883SOL     OW98480  13.647   7.474  14.477
98883SOL    HW198481  13.699   7.524  14.414
98883SOL    HW298482  13.557   7.505  14.463
98884SOL     OW98483  13.993   2.650   5.979
98884SOL    HW198484  13.917   2.616   5.932
98884SOL    HW298485  14.056   2.578   5.977
98885SOL     OW98486   6.626  14.472   9.264
98885SOL    HW198487   6.661  14.403   9.207
98885SOL    HW298488   6.545  14.435   9.299
98886SOL     OW98489  14.641   7.081   1.890
98886SOL    HW198490  14.565   7.089   1.833
98886SOL    HW298491  14.651   7.168   1.929
98887SOL     OW98492   6.242   6.687   3.588
98887SOL    HW198493   6.191   6.640   3.522
98887SOL    HW298494   6.332   6.659   3.572
98888SOL     OW98495   2.086  13.178  10.704
98888SOL    HW198496   2.017  13.203  10.766
98888SOL    HW298497   2.160  13.235  10.726
98889SOL     OW98498  13.692   4.192   1.109
98889SOL    HW198499  13.619   4.134   1.088
98889SOL    HW298500  13.732   4.153   1.187
98890SOL     OW98501   3.470   5.008   3.308
98890SOL    HW198502   3.561   5.024   3.284
98890SOL    HW298503   3.434   4.958   3.234
98891SOL     OW98504   5.147   0.921   7.905
98891SOL    HW198505   5.097   0.961   7.834
98891SOL    HW298506   5.194   0.993   7.946
98892SOL     OW98507   0.146  14.352   1.846
98892SOL    HW198508   0.085  14.420   1.818
98892SOL    HW298509   0.095  14.296   1.904
98893SOL     OW98510   7.072   2.004  11.644
98893SOL    HW198511   7.085   1.989  11.550
98893SOL    HW298512   7.129   1.939  11.686
98894SOL     OW98513   3.775   3.260   5.286
98894SOL    HW198514   3.811   3.345   5.260
98894SOL    HW298515   3.707   3.281   5.350
98895SOL     OW98516  13.653   0.509   6.409
98895SOL    HW198517  13.574   0.498   6.461
98895SOL    HW298518  13.624   0.552   6.329
98896SOL     OW98519   5.097   0.909   5.864
98896SOL    HW198520   5.111   0.840   5.800
98896SOL    HW298521   5.063   0.864   5.942
98897SOL     OW98522   8.891   7.805   4.841
98897SOL    HW198523   8.896   7.809   4.936
98897SOL    HW298524   8.801   7.833   4.821
98898SOL     OW98525   3.609   6.221   7.124
98898SOL    HW198526   3.580   6.311   7.105
98898SOL    HW298527   3.638   6.224   7.215
98899SOL     OW98528   2.610  11.648   5.511
98899SOL    HW198529   2.700  11.678   5.522
98899SOL    HW298530   2.556  11.720   5.545
98900SOL     OW98531  12.029   8.970  11.806
98900SOL    HW198532  12.015   9.005  11.718
98900SOL    HW298533  12.032   9.048  11.862
98901SOL     OW98534   0.542   8.377   8.662
98901SOL    HW198535   0.588   8.442   8.608
98901SOL    HW298536   0.490   8.326   8.600
98902SOL     OW98537   7.991   4.475   7.055
98902SOL    HW198538   7.917   4.480   7.115
98902SOL    HW298539   7.960   4.519   6.976
98903SOL     OW98540   9.537  12.716   4.636
98903SOL    HW198541   9.553  12.708   4.730
98903SOL    HW298542   9.603  12.779   4.606
98904SOL     OW98543   6.885  10.846   6.694
98904SOL    HW198544   6.839  10.769   6.727
98904SOL    HW298545   6.923  10.887   6.771
98905SOL     OW98546   9.720  13.403  12.125
98905SOL    HW198547   9.707  13.498  12.123
98905SOL    HW298548   9.816  13.393  12.125
98906SOL     OW98549   3.765   4.390   2.023
98906SOL    HW198550   3.683   4.371   1.977
98906SOL    HW298551   3.815   4.444   1.963
98907SOL     OW98552  10.726   4.039   9.135
98907SOL    HW198553  10.754   4.123   9.172
98907SOL    HW298554  10.680   3.996   9.207
98908SOL     OW98555   9.775   8.158   7.671
98908SOL    HW198556   9.680   8.150   7.678
98908SOL    HW298557   9.797   8.110   7.591
98909SOL     OW98558   7.142   2.555   3.462
98909SOL    HW198559   7.235   2.568   3.477
98909SOL    HW298560   7.115   2.632   3.411
98910SOL     OW98561   7.451   7.966   9.035
98910SOL    HW198562   7.370   7.990   9.080
98910SOL    HW298563   7.481   7.887   9.080
98911SOL     OW98564   7.318   7.461   3.107
98911SOL    HW198565   7.335   7.417   3.190
98911SOL    HW298566   7.228   7.437   3.085
98912SOL     OW98567  13.191   3.593   7.468
98912SOL    HW198568  13.173   3.686   7.457
98912SOL    HW298569  13.110   3.556   7.504
98913SOL     OW98570   9.398   9.015   4.090
98913SOL    HW198571   9.399   8.970   4.005
98913SOL    HW298572   9.319   8.984   4.133
98914SOL     OW98573  13.961   2.899  10.105
98914SOL    HW198574  13.948   2.960  10.032
98914SOL    HW298575  14.047   2.922  10.141
98915SOL     OW98576   3.552   3.705   1.279
98915SOL    HW198577   3.482   3.764   1.308
98915SOL    HW298578   3.610   3.698   1.356
98916SOL     OW98579  13.768   5.607   0.712
98916SOL    HW198580  13.773   5.516   0.684
98916SOL    HW298581  13.723   5.652   0.640
98917SOL     OW98582  12.159   6.784   8.655
98917SOL    HW198583  12.123   6.704   8.617
98917SOL    HW298584  12.253   6.769   8.659
98918SOL     OW98585  14.032  10.784  13.451
98918SOL    HW198586  13.970  10.836  13.399
98918SOL    HW298587  14.076  10.849  13.506
98919SOL     OW98588   9.207  13.957   6.073
98919SOL    HW198589   9.225  13.909   5.992
98919SOL    HW298590   9.163  13.893   6.130
98920SOL     OW98591   6.495   1.721   2.736
98920SOL    HW198592   6.478   1.795   2.678
98920SOL    HW298593   6.430   1.656   2.711
98921SOL     OW98594   2.020  11.365   1.322
98921SOL    HW198595   1.964  11.443   1.323
98921SOL    HW298596   2.019  11.336   1.231
98922SOL     OW98597   5.868   8.357  14.819
98922SOL    HW198598   5.919   8.339  14.740
98922SOL    HW298599   5.891   8.286  14.879
98923SOL     OW98600   9.713   7.752   9.102
98923SOL    HW198601   9.767   7.816   9.055
98923SOL    HW298602   9.771   7.717   9.170
98924SOL     OW98603  11.474   8.717   8.910
98924SOL    HW198604  11.469   8.776   8.986
98924SOL    HW298605  11.399   8.658   8.921
98925SOL     OW98606  14.874   7.700  13.972
98925SOL    HW198607   0.010   7.607  13.986
98925SOL    HW298608  14.820   7.702  13.893
98926SOL     OW98609   6.496   2.255   6.007
98926SOL    HW198610   6.473   2.331   5.954
98926SOL    HW298611   6.414   2.208   6.019
98927SOL     OW98612   0.904   1.099   4.815
98927SOL    HW198613   0.837   1.104   4.748
98927SOL    HW298614   0.987   1.097   4.766
98928SOL     OW98615  12.036   2.236   5.740
98928SOL    HW198616  11.953   2.190   5.732
98928SOL    HW298617  12.089   2.181   5.798
98929SOL     OW98618   4.120   4.179  11.490
98929SOL    HW198619   4.175   4.255  11.509
98929SOL    HW298620   4.161   4.107  11.538
98930SOL     OW98621   2.368   4.289   1.432
98930SOL    HW198622   2.406   4.368   1.394
98930SOL    HW298623   2.437   4.223   1.425
98931SOL     OW98624   0.591  10.365   0.350
98931SOL    HW198625   0.501  10.334   0.351
98931SOL    HW298626   0.643  10.285   0.356
98932SOL     OW98627   4.300  11.147   6.915
98932SOL    HW198628   4.325  11.220   6.858
98932SOL    HW298629   4.297  11.184   7.003
98933SOL     OW98630  11.237   4.118  11.613
98933SOL    HW198631  11.153   4.077  11.593
98933SOL    HW298632  11.288   4.049  11.657
98934SOL     OW98633   0.683   7.519  13.011
98934SOL    HW198634   0.618   7.589  13.019
98934SOL    HW298635   0.663   7.460  13.084
98935SOL     OW98636   8.592   2.444   0.980
98935SOL    HW198637   8.511   2.455   1.030
98935SOL    HW298638   8.589   2.354   0.948
98936SOL     OW98639  11.932   6.187   0.386
98936SOL    HW198640  11.940   6.280   0.407
98936SOL    HW298641  11.843   6.178   0.351
98937SOL     OW98642  10.996   6.456   8.119
98937SOL    HW198643  11.048   6.376   8.119
98937SOL    HW298644  11.020   6.501   8.038
98938SOL     OW98645   1.722  12.918   6.804
98938SOL    HW198646   1.643  12.927   6.750
98938SOL    HW298647   1.696  12.954   6.889
98939SOL     OW98648   4.122   7.704  14.459
98939SOL    HW198649   4.169   7.664  14.386
98939SOL    HW298650   4.173   7.782  14.481
98940SOL     OW98651   2.158   3.918   3.689
98940SOL    HW198652   2.069   3.949   3.670
98940SOL    HW298653   2.146   3.849   3.754
98941SOL     OW98654   1.241   4.847   9.101
98941SOL    HW198655   1.160   4.801   9.122
98941SOL    HW298656   1.310   4.787   9.128
98942SOL     OW98657  13.786  10.639  12.000
98942SOL    HW198658  13.708  10.607  12.046
98942SOL    HW298659  13.853  10.573  12.016
98943SOL     OW98660   0.812  12.003   5.371
98943SOL    HW198661   0.866  11.927   5.351
98943SOL    HW298662   0.765  12.020   5.289
98944SOL     OW98663  11.234  12.105   3.248
98944SOL    HW198664  11.291  12.109   3.324
98944SOL    HW298665  11.251  12.186   3.200
98945SOL     OW98666  10.645  14.239   5.298
98945SOL    HW198667  10.722  14.293   5.314
98945SOL    HW298668  10.622  14.203   5.384
98946SOL     OW98669  12.955   9.933   1.499
98946SOL    HW198670  12.954   9.913   1.406
98946SOL    HW298671  12.866   9.962   1.518
98947SOL     OW98672   2.660   2.112   4.620
98947SOL    HW198673   2.709   2.191   4.596
98947SOL    HW298674   2.604   2.094   4.545
98948SOL     OW98675   8.760   6.281   0.073
98948SOL    HW198676   8.789   6.189   0.074
98948SOL    HW298677   8.674   6.279   0.116
98949SOL     OW98678   2.842   6.219  10.501
98949SOL    HW198679   2.913   6.207  10.565
98949SOL    HW298680   2.804   6.304  10.524
98950SOL     OW98681  14.708   4.296   3.123
98950SOL    HW198682  14.768   4.238   3.076
98950SOL    HW298683  14.732   4.384   3.093
98951SOL     OW98684   7.019   2.749  11.004
98951SOL    HW198685   6.969   2.830  10.991
98951SOL    HW298686   7.065   2.736  10.921
98952SOL     OW98687   6.505   5.562   7.003
98952SOL    HW198688   6.591   5.547   6.963
98952SOL    HW298689   6.470   5.474   7.018
98953SOL     OW98690  11.725   6.553  12.626
98953SOL    HW198691  11.648   6.506  12.594
98953SOL    HW298692  11.799   6.510  12.582
98954SOL     OW98693   7.970   4.259  11.398
98954SOL    HW198694   8.042   4.196  11.394
98954SOL    HW298695   7.998   4.323  11.464
98955SOL     OW98696   0.773   0.737   5.565
98955SOL    HW198697   0.688   0.735   5.521
98955SOL    HW298698   0.753   0.765   5.655
98956SOL     OW98699   3.121   1.234   4.455
98956SOL    HW198700   3.137   1.275   4.540
98956SOL    HW298701   3.025   1.235   4.446
98957SOL     OW98702   8.959  13.983   6.240
98957SOL    HW198703   8.910  13.931   6.176
98957SOL    HW298704   8.943  13.938   6.323
98958SOL     OW98705  11.825   7.010   7.750
98958SOL    HW198706  11.739   7.033   7.715
98958SOL    HW298707  11.848   6.928   7.707
98959SOL     OW98708   4.255   0.711  13.939
98959SOL    HW198709   4.242   0.665  14.021
98959SOL    HW298710   4.249   0.643  13.872
98960SOL     OW98711  11.927   1.103   3.044
98960SOL    HW198712  11.865   1.153   3.097
98960SOL    HW298713  11.948   1.026   3.097
98961SOL     OW98714   2.777   5.923   5.743
98961SOL    HW198715   2.816   5.989   5.800
98961SOL    HW298716   2.852   5.880   5.700
98962SOL     OW98717  14.199   6.560   3.718
98962SOL    HW198718  14.282   6.607   3.704
98962SOL    HW298719  14.202   6.532   3.809
98963SOL     OW98720   4.819   3.133  11.643
98963SOL    HW198721   4.842   3.041  11.636
98963SOL    HW298722   4.806   3.161  11.552
98964SOL     OW98723   5.051  10.837  13.100
98964SOL    HW198724   5.057  10.933  13.108
98964SOL    HW298725   4.965  10.816  13.136
98965SOL     OW98726   5.450   0.241   2.397
98965SOL    HW198727   5.371   0.293   2.388
98965SOL    HW298728   5.522   0.305   2.397
98966SOL     OW98729   3.071  10.484   5.736
98966SOL    HW198730   3.160  10.481   5.770
98966SOL    HW298731   3.076  10.441   5.650
98967SOL     OW98732   9.391   6.724   6.544
98967SOL    HW198733   9.319   6.689   6.491
98967SOL    HW298734   9.377   6.685   6.631
98968SOL     OW98735   1.459   4.518  11.759
98968SOL    HW198736   1.450   4.428  11.791
98968SOL    HW298737   1.383   4.530  11.701
98969SOL     OW98738   3.308   1.128   1.001
98969SOL    HW198739   3.341   1.169   0.921
98969SOL    HW298740   3.213   1.139   0.997
98970SOL     OW98741   5.521  12.379   6.540
98970SOL    HW198742   5.428  12.382   6.562
98970SOL    HW298743   5.565  12.413   6.618
98971SOL     OW98744  10.646   8.992  14.592
98971SOL    HW198745  10.641   9.066  14.652
98971SOL    HW298746  10.715   8.936  14.627
98972SOL     OW98747   3.326   5.235   3.328
98972SOL    HW198748   3.276   5.204   3.404
98972SOL    HW298749   3.384   5.162   3.307
98973SOL     OW98750  13.538   5.657  10.082
98973SOL    HW198751  13.551   5.627  10.172
98973SOL    HW298752  13.620   5.637  10.037
98974SOL     OW98753   3.597   6.206  13.652
98974SOL    HW198754   3.535   6.212  13.579
98974SOL    HW298755   3.545   6.169  13.723
98975SOL     OW98756   3.643   8.228   4.516
98975SOL    HW198757   3.612   8.309   4.558
98975SOL    HW298758   3.697   8.257   4.443
98976SOL     OW98759   0.486   5.330   6.719
98976SOL    HW198760   0.399   5.294   6.701
98976SOL    HW298761   0.469   5.420   6.748
98977SOL     OW98762   1.406   9.998  13.198
98977SOL    HW198763   1.475  10.062  13.216
98977SOL    HW298764   1.381  10.014  13.107
98978SOL     OW98765   2.791  10.062   3.868
98978SOL    HW198766   2.791  10.043   3.774
98978SOL    HW298767   2.865  10.012   3.902
98979SOL     OW98768  13.283   6.787   1.516
98979SOL    HW198769  13.276   6.838   1.435
98979SOL    HW298770  13.210   6.725   1.512
98980SOL     OW98771   8.904   5.369  11.195
98980SOL    HW198772   8.912   5.274  11.185
98980SOL    HW298773   8.833   5.393  11.135
98981SOL     OW98774   1.794  13.304  10.003
98981SOL    HW198775   1.872  13.248  10.012
98981SOL    HW298776   1.761  13.286   9.915
98982SOL     OW98777  14.516   9.662   7.258
98982SOL    HW198778  14.532   9.730   7.323
98982SOL    HW298779  14.584   9.676   7.192
98983SOL     OW98780   3.643   1.776   2.660
98983SOL    HW198781   3.598   1.861   2.661
98983SOL    HW298782   3.736   1.799   2.662
98984SOL     OW98783   5.249   7.342   6.386
98984SOL    HW198784   5.194   7.268   6.414
98984SOL    HW298785   5.288   7.313   6.304
98985SOL     OW98786   2.959  14.274  10.953
98985SOL    HW198787   3.021  14.273  11.026
98985SOL    HW298788   2.874  14.294  10.993
98986SOL     OW98789   9.227   2.084   8.192
98986SOL    HW198790   9.301   2.082   8.253
98986SOL    HW298791   9.268   2.089   8.106
98987SOL     OW98792   0.103   3.235   3.617
98987SOL    HW198793   0.076   3.144   3.607
98987SOL    HW298794   0.083   3.275   3.532
98988SOL     OW98795   2.822   5.118  11.717
98988SOL    HW198796   2.907   5.159  11.699
98988SOL    HW298797   2.769   5.188  11.756
98989SOL     OW98798   7.726   3.675   7.528
98989SOL    HW198799   7.710   3.581   7.515
98989SOL    HW298800   7.812   3.690   7.488
98990SOL     OW98801  13.969   1.979   1.387
98990SOL    HW198802  14.040   1.921   1.412
98990SOL    HW298803  14.005   2.067   1.396
98991SOL     OW98804   8.556   6.362   3.830
98991SOL    HW198805   8.461   6.363   3.841
98991SOL    HW298806   8.576   6.445   3.787
98992SOL     OW98807   6.814  13.691  12.130
98992SOL    HW198808   6.812  13.780  12.165
98992SOL    HW298809   6.860  13.639  12.196
98993SOL     OW98810   9.229   8.602  10.934
98993SOL    HW198811   9.185   8.617  10.850
98993SOL    HW298812   9.264   8.688  10.958
98994SOL     OW98813   0.246  10.025   7.438
98994SOL    HW198814   0.198   9.982   7.368
98994SOL    HW298815   0.306   9.958   7.471
98995SOL     OW98816   6.314  13.945   0.732
98995SOL    HW198817   6.238  13.962   0.676
98995SOL    HW298818   6.389  13.946   0.672
98996SOL     OW98819  13.288  11.713   6.396
98996SOL    HW198820  13.362  11.716   6.336
98996SOL    HW298821  13.313  11.769   6.469
98997SOL     OW98822  12.464   4.539   9.365
98997SOL    HW198823  12.449   4.600   9.293
98997SOL    HW298824  12.427   4.457   9.335
98998SOL     OW98825  12.263  11.284   1.327
98998SOL    HW198826  12.343  11.308   1.373
98998SOL    HW298827  12.293  11.241   1.247
98999SOL     OW98828   1.825   4.792   6.796
98999SOL    HW198829   1.872   4.876   6.803
98999SOL    HW298830   1.880   4.738   6.741
99000SOL     OW98831  14.282   0.897   9.568
99000SOL    HW198832  14.294   0.963   9.500
99000SOL    HW298833  14.196   0.917   9.605
99001SOL     OW98834   2.918  10.243   2.872
99001SOL    HW198835   2.985  10.184   2.907
99001SOL    HW298836   2.952  10.268   2.786
99002SOL     OW98837   8.965  12.833   3.425
99002SOL    HW198838   9.002  12.865   3.343
99002SOL    HW298839   9.038  12.789   3.469
99003SOL     OW98840   8.800   7.464  14.780
99003SOL    HW198841   8.842   7.410  14.846
99003SOL    HW298842   8.822   7.554  14.804
99004SOL     OW98843   7.975   2.005  13.945
99004SOL    HW198844   8.038   1.981  13.877
99004SOL    HW298845   7.911   1.933  13.945
99005SOL     OW98846   2.288   0.535  13.744
99005SOL    HW198847   2.354   0.557  13.678
99005SOL    HW298848   2.317   0.451  13.780
99006SOL     OW98849   9.652   3.353  11.319
99006SOL    HW198850   9.709   3.426  11.343
99006SOL    HW298851   9.702   3.305  11.253
99007SOL     OW98852  11.094   3.137   1.525
99007SOL    HW198853  11.185   3.128   1.552
99007SOL    HW298854  11.045   3.145   1.607
99008SOL     OW98855   1.364   6.099   3.822
99008SOL    HW198856   1.298   6.137   3.880
99008SOL    HW298857   1.423   6.171   3.801
99009SOL     OW98858   4.493  10.035  14.178
99009SOL    HW198859   4.457   9.995  14.257
99009SOL    HW298860   4.550   9.967  14.141
99010SOL     OW98861  13.984  13.605  14.436
99010SOL    HW198862  14.013  13.605  14.344
99010SOL    HW298863  14.048  13.659  14.481
99011SOL     OW98864   8.349  10.976   5.435
99011SOL    HW198865   8.385  10.988   5.523
99011SOL    HW298866   8.290  11.050   5.422
99012SOL     OW98867  11.179   4.453   7.718
99012SOL    HW198868  11.208   4.397   7.790
99012SOL    HW298869  11.258   4.499   7.690
99013SOL     OW98870   3.237   5.803  10.455
99013SOL    HW198871   3.161   5.759  10.493
99013SOL    HW298872   3.251   5.879  10.512
99014SOL     OW98873   5.267   6.741   8.273
99014SOL    HW198874   5.298   6.651   8.272
99014SOL    HW298875   5.306   6.779   8.352
99015SOL     OW98876  12.055   9.029  12.147
99015SOL    HW198877  11.993   8.957  12.156
99015SOL    HW298878  12.132   8.989  12.106
99016SOL     OW98879  14.031   3.693  14.831
99016SOL    HW198880  14.074   3.708  14.747
99016SOL    HW298881  13.953   3.643  14.809
99017SOL     OW98882   3.636   5.893  10.301
99017SOL    HW198883   3.679   5.863  10.380
99017SOL    HW298884   3.619   5.813  10.251
99018SOL     OW98885  12.811   9.672  12.966
99018SOL    HW198886  12.874   9.650  13.035
99018SOL    HW298887  12.761   9.745  13.002
99019SOL     OW98888   1.518  11.901  14.263
99019SOL    HW198889   1.518  11.939  14.351
99019SOL    HW298890   1.518  11.806  14.279
99020SOL     OW98891   3.763  13.118   4.909
99020SOL    HW198892   3.702  13.180   4.948
99020SOL    HW298893   3.850  13.153   4.932
99021SOL     OW98894   5.531  12.249  14.671
99021SOL    HW198895   5.459  12.186  14.678
99021SOL    HW298896   5.527  12.280  14.581
99022SOL     OW98897   8.616   5.128   8.057
99022SOL    HW198898   8.558   5.052   8.048
99022SOL    HW298899   8.567   5.200   8.017
99023SOL     OW98900  10.100  11.454   7.035
99023SOL    HW198901  10.046  11.510   6.978
99023SOL    HW298902  10.055  11.456   7.119
99024SOL     OW98903   2.629   6.712   8.260
99024SOL    HW198904   2.699   6.680   8.203
99024SOL    HW298905   2.548   6.677   8.222
99025SOL     OW98906   1.733   9.841   2.460
99025SOL    HW198907   1.750   9.763   2.512
99025SOL    HW298908   1.690   9.901   2.521
99026SOL     OW98909  11.119   2.910  10.656
99026SOL    HW198910  11.181   2.926  10.727
99026SOL    HW298911  11.062   2.987  10.656
99027SOL     OW98912  11.848  12.319   9.933
99027SOL    HW198913  11.829  12.386   9.867
99027SOL    HW298914  11.907  12.363   9.995
99028SOL     OW98915  13.601  14.273  12.237
99028SOL    HW198916  13.518  14.277  12.285
99028SOL    HW298917  13.652  14.207  12.284
99029SOL     OW98918   2.810  10.970  12.460
99029SOL    HW198919   2.808  11.036  12.390
99029SOL    HW298920   2.787  11.018  12.539
99030SOL     OW98921  10.653   4.868   8.921
99030SOL    HW198922  10.624   4.808   8.990
99030SOL    HW298923  10.712   4.929   8.965
99031SOL     OW98924  10.642   8.741  12.664
99031SOL    HW198925  10.570   8.678  12.674
99031SOL    HW298926  10.720   8.690  12.685
99032SOL     OW98927  11.343   6.447   4.842
99032SOL    HW198928  11.315   6.488   4.761
99032SOL    HW298929  11.332   6.515   4.909
99033SOL     OW98930  11.124  12.426   2.083
99033SOL    HW198931  11.206  12.409   2.131
99033SOL    HW298932  11.080  12.494   2.135
99034SOL     OW98933   6.182  10.669  14.526
99034SOL    HW198934   6.151  10.721  14.452
99034SOL    HW298935   6.241  10.728  14.573
99035SOL     OW98936  10.561  13.547  14.065
99035SOL    HW198937  10.599  13.622  14.111
99035SOL    HW298938  10.554  13.479  14.133
99036SOL     OW98939   2.990   7.948   9.691
99036SOL    HW198940   3.068   7.932   9.744
99036SOL    HW298941   2.928   7.879   9.717
99037SOL     OW98942   4.188   1.417   0.653
99037SOL    HW198943   4.194   1.423   0.558
99037SOL    HW298944   4.276   1.437   0.685
99038SOL     OW98945   0.394  10.335   6.831
99038SOL    HW198946   0.338  10.357   6.756
99038SOL    HW298947   0.483  10.343   6.798
99039SOL     OW98948   0.488   1.076  12.441
99039SOL    HW198949   0.424   1.022  12.488
99039SOL    HW298950   0.462   1.070  12.349
99040SOL     OW98951  12.405   8.048   2.701
99040SOL    HW198952  12.427   8.016   2.788
99040SOL    HW298953  12.325   8.001   2.678
99041SOL     OW98954  11.145   4.689  14.750
99041SOL    HW198955  11.120   4.667  14.660
99041SOL    HW298956  11.087   4.761  14.774
99042SOL     OW98957   4.166   6.254   3.706
99042SOL    HW198958   4.190   6.346   3.718
99042SOL    HW298959   4.131   6.227   3.791
99043SOL     OW98960   9.265   6.039  12.727
99043SOL    HW198961   9.300   5.964  12.679
99043SOL    HW298962   9.326   6.111  12.708
99044SOL     OW98963   7.328   2.926  13.967
99044SOL    HW198964   7.259   2.974  13.921
99044SOL    HW298965   7.288   2.902  14.051
99045SOL     OW98966  13.174  10.540  10.233
99045SOL    HW198967  13.216  10.593  10.301
99045SOL    HW298968  13.246  10.508  10.179
99046SOL     OW98969   5.614   7.477   9.215
99046SOL    HW198970   5.685   7.518   9.165
99046SOL    HW298971   5.558   7.437   9.149
99047SOL     OW98972   3.711   6.648   7.100
99047SOL    HW198973   3.673   6.664   7.186
99047SOL    HW298974   3.656   6.581   7.060
99048SOL     OW98975   7.928  11.748   4.931
99048SOL    HW198976   7.870  11.714   4.863
99048SOL    HW298977   7.905  11.697   5.009
99049SOL     OW98978   4.702  10.248   2.935
99049SOL    HW198979   4.713  10.321   2.996
99049SOL    HW298980   4.790  10.227   2.905
99050SOL     OW98981   1.547   4.998  13.608
99050SOL    HW198982   1.567   5.072  13.551
99050SOL    HW298983   1.553   4.922  13.550
99051SOL     OW98984   9.159  14.213   8.638
99051SOL    HW198985   9.199  14.190   8.722
99051SOL    HW298986   9.104  14.289   8.658
99052SOL     OW98987   7.515   3.334  13.937
99052SOL    HW198988   7.459   3.287  13.999
99052SOL    HW298989   7.601   3.293  13.947
99053SOL     OW98990   6.383   6.449   7.741
99053SOL    HW198991   6.325   6.385   7.699
99053SOL    HW298992   6.379   6.427   7.834
99054SOL     OW98993   0.076  13.036   6.272
99054SOL    HW198994   0.061  13.111   6.330
99054SOL    HW298995   0.025  12.965   6.311
99055SOL     OW98996  10.101  12.818   7.977
99055SOL    HW198997  10.078  12.899   8.023
99055SOL    HW298998  10.059  12.828   7.891
99056SOL     OW98999  14.434   8.804  12.084
99056SOL    HW199000  14.482   8.826  12.164
99056SOL    HW299001  14.365   8.744  12.112
99057SOL     OW99002  14.025   4.744   0.700
99057SOL    HW199003  14.116   4.739   0.670
99057SOL    HW299004  14.031   4.754   0.795
99058SOL     OW99005   3.695   9.834  14.746
99058SOL    HW199006   3.772   9.823  14.690
99058SOL    HW299007   3.642   9.901  14.703
99059SOL     OW99008   3.461  11.245  13.453
99059SOL    HW199009   3.533  11.283  13.403
99059SOL    HW299010   3.383  11.292  13.422
99060SOL     OW99011   5.857  12.283   6.112
99060SOL    HW199012   5.906  12.324   6.041
99060SOL    HW299013   5.777  12.252   6.071
99061SOL     OW99014   4.489   4.607   9.523
99061SOL    HW199015   4.509   4.657   9.445
99061SOL    HW299016   4.430   4.663   9.573
99062SOL     OW99017  14.495   4.282   8.480
99062SOL    HW199018  14.499   4.191   8.451
99062SOL    HW299019  14.451   4.328   8.409
99063SOL     OW99020   5.085  11.415   4.483
99063SOL    HW199021   5.086  11.451   4.571
99063SOL    HW299022   5.005  11.362   4.479
99064SOL     OW99023   0.697  10.120  12.177
99064SOL    HW199024   0.672  10.212  12.177
99064SOL    HW299025   0.785  10.118  12.215
99065SOL     OW99026  10.473   4.174  11.587
99065SOL    HW199027  10.401   4.212  11.638
99065SOL    HW299028  10.441   4.087  11.562
99066SOL     OW99029   5.839   4.035  11.517
99066SOL    HW199030   5.805   4.062  11.603
99066SOL    HW299031   5.868   3.945  11.531
99067SOL     OW99032  11.541  10.756   0.306
99067SOL    HW199033  11.500  10.670   0.310
99067SOL    HW299034  11.469  10.818   0.311
99068SOL     OW99035   5.820  14.538   3.175
99068SOL    HW199036   5.780  14.456   3.206
99068SOL    HW299037   5.746  14.591   3.146
99069SOL     OW99038   7.351   5.154   0.585
99069SOL    HW199039   7.275   5.098   0.602
99069SOL    HW299040   7.408   5.141   0.661
99070SOL     OW99041   7.369   7.107   7.053
99070SOL    HW199042   7.455   7.147   7.071
99070SOL    HW299043   7.327   7.168   6.993
99071SOL     OW99044  11.114   6.635   2.574
99071SOL    HW199045  11.167   6.706   2.538
99071SOL    HW299046  11.160   6.609   2.654
99072SOL     OW99047   8.324   2.137   4.725
99072SOL    HW199048   8.387   2.066   4.741
99072SOL    HW299049   8.311   2.176   4.812
99073SOL     OW99050  11.458   1.777   5.623
99073SOL    HW199051  11.498   1.691   5.636
99073SOL    HW299052  11.444   1.782   5.529
99074SOL     OW99053  13.922   9.236   9.960
99074SOL    HW199054  13.967   9.187   9.891
99074SOL    HW299055  13.832   9.202   9.958
99075SOL     OW99056   0.859   5.544   7.779
99075SOL    HW199057   0.794   5.604   7.743
99075SOL    HW299058   0.871   5.573   7.869
99076SOL     OW99059   8.219   0.137   8.182
99076SOL    HW199060   8.278   0.212   8.177
99076SOL    HW299061   8.162   0.158   8.257
99077SOL     OW99062   1.102   4.595   0.049
99077SOL    HW199063   1.189   4.614   0.085
99077SOL    HW299064   1.053   4.559   0.122
99078SOL     OW99065   0.241   1.985  10.884
99078SOL    HW199066   0.331   1.951  10.878
99078SOL    HW299067   0.217   2.005  10.794
99079SOL     OW99068   3.467   1.369  12.550
99079SOL    HW199069   3.532   1.299  12.559
99079SOL    HW299070   3.423   1.373  12.635
99080SOL     OW99071   0.698   9.727  14.331
99080SOL    HW199072   0.680   9.706  14.423
99080SOL    HW299073   0.787   9.764  14.332
99081SOL     OW99074  11.413   1.649  13.116
99081SOL    HW199075  11.477   1.674  13.182
99081SOL    HW299076  11.350   1.594  13.163
99082SOL     OW99077   7.557   5.608   0.677
99082SOL    HW199078   7.551   5.581   0.769
99082SOL    HW299079   7.602   5.535   0.634
99083SOL     OW99080   8.122   0.595   6.081
99083SOL    HW199081   8.205   0.643   6.085
99083SOL    HW299082   8.069   0.646   6.019
99084SOL     OW99083   7.200  10.203  11.676
99084SOL    HW199084   7.199  10.194  11.581
99084SOL    HW299085   7.204  10.114  11.709
99085SOL     OW99086   5.509  14.538   8.827
99085SOL    HW199087   5.582  14.584   8.870
99085SOL    HW299088   5.480  14.474   8.892
99086SOL     OW99089  13.754   0.511   0.450
99086SOL    HW199090  13.700   0.577   0.494
99086SOL    HW299091  13.813   0.479   0.519
99087SOL     OW99092  11.158   6.880   3.961
99087SOL    HW199093  11.071   6.898   3.926
99087SOL    HW299094  11.206   6.962   3.948
99088SOL     OW99095  13.817   8.284   7.336
99088SOL    HW199096  13.755   8.279   7.409
99088SOL    HW299097  13.831   8.378   7.322
99089SOL     OW99098  11.551  11.738   0.039
99089SOL    HW199099  11.580  11.803  14.857
99089SOL    HW299100  11.463  11.767   0.064
99090SOL     OW99101   9.761   7.943   5.055
99090SOL    HW199102   9.847   7.922   5.090
99090SOL    HW299103   9.763   7.908   4.965
99091SOL     OW99104  12.394  14.589  10.133
99091SOL    HW199105  12.445  14.521  10.090
99091SOL    HW299106  12.429  14.671  10.098
99092SOL     OW99107  10.970   5.394   5.468
99092SOL    HW199108  11.047   5.429   5.512
99092SOL    HW299109  10.904   5.387   5.536
99093SOL     OW99110   8.091  12.048   3.595
99093SOL    HW199111   8.057  11.984   3.657
99093SOL    HW299112   8.063  12.133   3.631
99094SOL     OW99113   7.353   5.838   0.362
99094SOL    HW199114   7.412   5.850   0.436
99094SOL    HW299115   7.400   5.876   0.288
99095SOL     OW99116   2.476   2.798   8.440
99095SOL    HW199117   2.459   2.887   8.469
99095SOL    HW299118   2.448   2.743   8.512
99096SOL     OW99119  11.149  11.074   1.118
99096SOL    HW199120  11.078  11.023   1.080
99096SOL    HW299121  11.166  11.143   1.053
99097SOL     OW99122   4.043   9.580   2.296
99097SOL    HW199123   4.037   9.569   2.391
99097SOL    HW299124   3.954   9.568   2.264
99098SOL     OW99125  10.436   6.226   8.651
99098SOL    HW199126  10.372   6.255   8.586
99098SOL    HW299127  10.457   6.305   8.700
99099SOL     OW99128   5.286   3.947   7.324
99099SOL    HW199129   5.224   3.875   7.338
99099SOL    HW299130   5.267   4.009   7.394
99100SOL     OW99131   5.979   1.303   8.285
99100SOL    HW199132   5.936   1.376   8.241
99100SOL    HW299133   5.934   1.296   8.370
99101SOL     OW99134  12.247  13.355   8.171
99101SOL    HW199135  12.312  13.287   8.156
99101SOL    HW299136  12.294  13.424   8.218
99102SOL     OW99137   1.595   8.344   3.706
99102SOL    HW199138   1.559   8.258   3.684
99102SOL    HW299139   1.542   8.373   3.780
99103SOL     OW99140   8.138  11.705  13.601
99103SOL    HW199141   8.136  11.728  13.508
99103SOL    HW299142   8.127  11.788  13.647
99104SOL     OW99143   2.189   5.738  11.644
99104SOL    HW199144   2.167   5.663  11.589
99104SOL    HW299145   2.145   5.812  11.601
99105SOL     OW99146   5.135  10.284  13.472
99105SOL    HW199147   5.214  10.231  13.478
99105SOL    HW299148   5.112  10.303  13.563
99106SOL     OW99149   3.772   5.535   6.767
99106SOL    HW199150   3.713   5.477   6.719
99106SOL    HW299151   3.825   5.476   6.821
99107SOL     OW99152   5.450   3.769   4.852
99107SOL    HW199153   5.384   3.822   4.897
99107SOL    HW299154   5.424   3.772   4.760
99108SOL     OW99155  13.198   9.112   5.965
99108SOL    HW199156  13.141   9.048   6.008
99108SOL    HW299157  13.283   9.102   6.009
99109SOL     OW99158   4.759  10.665  12.122
99109SOL    HW199159   4.717  10.715  12.053
99109SOL    HW299160   4.845  10.705  12.132
99110SOL     OW99161   0.385  13.153   6.899
99110SOL    HW199162   0.425  13.078   6.943
99110SOL    HW299163   0.402  13.227   6.957
99111SOL     OW99164   3.548   0.060   3.490
99111SOL    HW199165   3.564   0.005   3.413
99111SOL    HW299166   3.452   0.060   3.499
99112SOL     OW99167   8.398   9.408  14.189
99112SOL    HW199168   8.467   9.467  14.219
99112SOL    HW299169   8.327   9.420  14.252
99113SOL     OW99170  13.737   9.187   0.464
99113SOL    HW199171  13.810   9.250   0.458
99113SOL    HW299172  13.768   9.110   0.416
99114SOL     OW99173   7.522   4.239  13.125
99114SOL    HW199174   7.572   4.175  13.073
99114SOL    HW299175   7.566   4.242  13.209
99115SOL     OW99176   7.138   6.093   2.649
99115SOL    HW199177   7.130   6.055   2.562
99115SOL    HW299178   7.188   6.029   2.699
99116SOL     OW99179   0.912   9.873  14.321
99116SOL    HW199180   0.997   9.911  14.301
99116SOL    HW299181   0.882   9.921  14.399
99117SOL     OW99182  12.109   1.928   5.624
99117SOL    HW199183  12.021   1.924   5.588
99117SOL    HW299184  12.100   1.978   5.705
99118SOL     OW99185   6.219   9.556   5.095
99118SOL    HW199186   6.302   9.579   5.053
99118SOL    HW299187   6.200   9.468   5.064
99119SOL     OW99188   1.996   9.132  11.604
99119SOL    HW199189   1.975   9.162  11.693
99119SOL    HW299190   1.927   9.069  11.583
99120SOL     OW99191   6.916   8.403  14.619
99120SOL    HW199192   6.879   8.352  14.547
99120SOL    HW299193   7.010   8.384  14.616
99121SOL     OW99194   1.277   0.658  10.979
99121SOL    HW199195   1.331   0.613  11.044
99121SOL    HW299196   1.195   0.608  10.977
99122SOL     OW99197   6.051   2.213   5.065
99122SOL    HW199198   6.109   2.195   5.139
99122SOL    HW299199   6.037   2.308   5.068
99123SOL     OW99200   9.968   8.218  13.442
99123SOL    HW199201   9.943   8.296  13.492
99123SOL    HW299202   9.939   8.236  13.352
99124SOL     OW99203  10.085  12.276   9.564
99124SOL    HW199204  10.080  12.182   9.582
99124SOL    HW299205  10.006  12.295   9.514
99125SOL     OW99206   8.245   4.885  13.822
99125SOL    HW199207   8.292   4.813  13.862
99125SOL    HW299208   8.189   4.920  13.892
99126SOL     OW99209  11.740   7.612   7.108
99126SOL    HW199210  11.798   7.546   7.069
99126SOL    HW299211  11.694   7.564   7.177
99127SOL     OW99212  12.050  13.792   4.810
99127SOL    HW199213  12.037  13.707   4.768
99127SOL    HW299214  12.129  13.781   4.863
99128SOL     OW99215   8.832   7.292  14.125
99128SOL    HW199216   8.838   7.243  14.207
99128SOL    HW299217   8.770   7.242  14.072
99129SOL     OW99218  14.862  11.747   6.314
99129SOL    HW199219   0.007  11.823   6.366
99129SOL    HW299220   0.062  11.700   6.297
99130SOL     OW99221   6.526   4.645   5.293
99130SOL    HW199222   6.554   4.719   5.347
99130SOL    HW299223   6.511   4.574   5.356
99131SOL     OW99224   4.094  10.219   6.880
99131SOL    HW199225   4.016  10.275   6.871
99131SOL    HW299226   4.063  10.132   6.857
99132SOL     OW99227  10.159  12.798   2.531
99132SOL    HW199228  10.233  12.739   2.520
99132SOL    HW299229  10.104  12.781   2.455
99133SOL     OW99230   6.636  12.770   7.500
99133SOL    HW199231   6.614  12.684   7.465
99133SOL    HW299232   6.625  12.760   7.595
99134SOL     OW99233   5.246  14.162  14.075
99134SOL    HW199234   5.290  14.110  14.007
99134SOL    HW299235   5.258  14.253  14.047
99135SOL     OW99236   9.711   6.839  13.214
99135SOL    HW199237   9.697   6.874  13.302
99135SOL    HW299238   9.700   6.744  13.225
99136SOL     OW99239   2.820   8.035   0.334
99136SOL    HW199240   2.853   7.963   0.389
99136SOL    HW299241   2.735   8.057   0.373
99137SOL     OW99242   7.175  11.040  11.782
99137SOL    HW199243   7.200  10.986  11.707
99137SOL    HW299244   7.153  10.977  11.850
99138SOL     OW99245   4.494   5.674   2.134
99138SOL    HW199246   4.563   5.689   2.069
99138SOL    HW299247   4.478   5.579   2.130
99139SOL     OW99248  10.280   0.812   5.906
99139SOL    HW199249  10.277   0.905   5.930
99139SOL    HW299250  10.319   0.769   5.983
99140SOL     OW99251  13.383   4.472  11.051
99140SOL    HW199252  13.369   4.543  11.114
99140SOL    HW299253  13.360   4.511  10.967
99141SOL     OW99254   6.559   9.960  10.757
99141SOL    HW199255   6.598   9.928  10.838
99141SOL    HW299256   6.482  10.008  10.785
99142SOL     OW99257   8.587   3.092   1.403
99142SOL    HW199258   8.549   3.051   1.481
99142SOL    HW299259   8.605   3.019   1.344
99143SOL     OW99260   7.744   2.116   8.591
99143SOL    HW199261   7.756   2.047   8.657
99143SOL    HW299262   7.651   2.138   8.596
99144SOL     OW99263   2.209   4.692   4.071
99144SOL    HW199264   2.280   4.629   4.061
99144SOL    HW299265   2.252   4.777   4.082
99145SOL     OW99266  10.136   0.141   0.765
99145SOL    HW199267  10.165   0.143   0.674
99145SOL    HW299268  10.183   0.213   0.808
99146SOL     OW99269   7.123   3.424   7.444
99146SOL    HW199270   7.125   3.343   7.496
99146SOL    HW299271   7.216   3.446   7.432
99147SOL     OW99272  11.657  11.209   4.871
99147SOL    HW199273  11.673  11.221   4.965
99147SOL    HW299274  11.601  11.132   4.866
99148SOL     OW99275  10.388   0.620   9.732
99148SOL    HW199276  10.301   0.628   9.694
99148SOL    HW299277  10.446   0.607   9.656
99149SOL     OW99278   7.177  13.136   3.446
99149SOL    HW199279   7.185  13.076   3.372
99149SOL    HW299280   7.166  13.079   3.522
99150SOL     OW99281   0.889   9.042   4.031
99150SOL    HW199282   0.821   9.063   4.095
99150SOL    HW299283   0.850   8.973   3.977
99151SOL     OW99284   7.795   8.182   8.809
99151SOL    HW199285   7.878   8.178   8.857
99151SOL    HW299286   7.809   8.250   8.743
99152SOL     OW99287   4.402   7.000  13.600
99152SOL    HW199288   4.443   6.920  13.632
99152SOL    HW299289   4.414   7.064  13.671
99153SOL     OW99290   3.732  11.963   4.717
99153SOL    HW199291   3.782  12.022   4.661
99153SOL    HW299292   3.756  11.875   4.688
99154SOL     OW99293  10.421   3.756   3.107
99154SOL    HW199294  10.494   3.811   3.078
99154SOL    HW299295  10.458   3.668   3.112
99155SOL     OW99296  12.660   5.025   9.041
99155SOL    HW199297  12.737   5.023   8.984
99155SOL    HW299298  12.620   5.111   9.025
99156SOL     OW99299   2.636   8.173  10.968
99156SOL    HW199300   2.649   8.229  10.892
99156SOL    HW299301   2.586   8.098  10.934
99157SOL     OW99302   0.320   6.490   9.114
99157SOL    HW199303   0.270   6.525   9.187
99157SOL    HW299304   0.410   6.515   9.132
99158SOL     OW99305   4.297   7.065   3.407
99158SOL    HW199306   4.353   6.999   3.447
99158SOL    HW299307   4.243   7.016   3.345
99159SOL     OW99308   5.363   1.335   7.316
99159SOL    HW199309   5.395   1.266   7.375
99159SOL    HW299310   5.306   1.289   7.255
99160SOL     OW99311   9.640  13.104   8.856
99160SOL    HW199312   9.550  13.137   8.863
99160SOL    HW299313   9.646  13.037   8.924
99161SOL     OW99314   8.646   4.553  10.108
99161SOL    HW199315   8.661   4.584  10.019
99161SOL    HW299316   8.733   4.530  10.140
99162SOL     OW99317  12.791   0.090  12.383
99162SOL    HW199318  12.881   0.057  12.393
99162SOL    HW299319  12.753   0.036  12.313
99163SOL     OW99320   6.820   9.837   8.330
99163SOL    HW199321   6.904   9.842   8.285
99163SOL    HW299322   6.834   9.771   8.398
99164SOL     OW99323  12.891   7.427   4.724
99164SOL    HW199324  12.925   7.344   4.756
99164SOL    HW299325  12.801   7.408   4.698
99165SOL     OW99326   3.971  14.725   5.703
99165SOL    HW199327   3.973  14.805   5.755
99165SOL    HW299328   3.878  14.707   5.690
99166SOL     OW99329   6.478   1.233  13.720
99166SOL    HW199330   6.386   1.240  13.693
99166SOL    HW299331   6.500   1.141  13.704
99167SOL     OW99332   8.076  13.126  14.503
99167SOL    HW199333   8.022  13.198  14.473
99167SOL    HW299334   8.164  13.146  14.470
99168SOL     OW99335   2.395   6.249   5.089
99168SOL    HW199336   2.320   6.210   5.133
99168SOL    HW299337   2.359   6.288   5.009
99169SOL     OW99338   1.480  11.965   6.873
99169SOL    HW199339   1.475  11.978   6.968
99169SOL    HW299340   1.409  11.903   6.853
99170SOL     OW99341   7.825  12.795   4.321
99170SOL    HW199342   7.918  12.777   4.309
99170SOL    HW299343   7.782  12.750   4.249
99171SOL     OW99344   5.071  11.757   3.212
99171SOL    HW199345   5.108  11.744   3.299
99171SOL    HW299346   5.055  11.668   3.179
99172SOL     OW99347   0.270   5.338  11.921
99172SOL    HW199348   0.263   5.368  12.011
99172SOL    HW299349   0.266   5.242  11.927
99173SOL     OW99350   4.478   4.069   7.051
99173SOL    HW199351   4.532   3.990   7.047
99173SOL    HW299352   4.540   4.139   7.070
99174SOL     OW99353   2.274   3.870  10.592
99174SOL    HW199354   2.338   3.799  10.602
99174SOL    HW299355   2.301   3.935  10.658
99175SOL     OW99356   9.630   3.866   0.697
99175SOL    HW199357   9.707   3.921   0.685
99175SOL    HW299358   9.559   3.914   0.656
99176SOL     OW99359  12.017   9.931   7.123
99176SOL    HW199360  12.111   9.920   7.114
99176SOL    HW299361  11.980   9.849   7.089
99177SOL     OW99362  13.974  12.687  12.925
99177SOL    HW199363  14.007  12.656  12.841
99177SOL    HW299364  14.040  12.750  12.955
99178SOL     OW99365   8.218   7.085   0.268
99178SOL    HW199366   8.191   7.099   0.359
99178SOL    HW299367   8.149   7.030   0.231
99179SOL     OW99368   0.026  10.695   8.130
99179SOL    HW199369   0.084  10.620   8.141
99179SOL    HW299370   0.062  10.744   8.057
99180SOL     OW99371   8.401   9.173  10.770
99180SOL    HW199372   8.361   9.124  10.698
99180SOL    HW299373   8.337   9.240  10.792
99181SOL     OW99374   2.793   4.045   0.045
99181SOL    HW199375   2.856   3.988   0.001
99181SOL    HW299376   2.776   4.115  14.864
99182SOL     OW99377  11.075   0.003   4.515
99182SOL    HW199378  11.085   0.036   4.425
99182SOL    HW299379  11.064  14.790   4.504
99183SOL     OW99380  11.109   4.132   2.496
99183SOL    HW199381  11.109   4.225   2.470
99183SOL    HW299382  11.018   4.114   2.518
99184SOL     OW99383   3.145   1.302   8.987
99184SOL    HW199384   3.103   1.378   8.947
99184SOL    HW299385   3.184   1.336   9.068
99185SOL     OW99386   0.010   1.562   0.634
99185SOL    HW199387   0.020   1.611   0.552
99185SOL    HW299388  14.824   1.610   0.682
99186SOL     OW99389   1.500   8.585  10.188
99186SOL    HW199390   1.592   8.591  10.164
99186SOL    HW299391   1.475   8.674  10.213
99187SOL     OW99392  11.601  11.028   1.080
99187SOL    HW199393  11.524  11.054   1.131
99187SOL    HW299394  11.672  11.081   1.116
99188SOL     OW99395   4.032   1.647   2.431
99188SOL    HW199396   3.959   1.676   2.376
99188SOL    HW299397   3.993   1.582   2.489
99189SOL     OW99398   7.858   9.557   1.967
99189SOL    HW199399   7.894   9.642   1.994
99189SOL    HW299400   7.850   9.564   1.872
99190SOL     OW99401   9.944   4.986  10.249
99190SOL    HW199402   9.933   4.936  10.169
99190SOL    HW299403   9.855   4.994  10.285
99191SOL     OW99404  10.916   6.798   2.645
99191SOL    HW199405  11.005   6.771   2.623
99191SOL    HW299406  10.864   6.717   2.639
99192SOL     OW99407   0.729   6.981   3.341
99192SOL    HW199408   0.725   7.000   3.247
99192SOL    HW299409   0.811   6.934   3.352
99193SOL     OW99410   0.930   6.988   5.830
99193SOL    HW199411   0.954   7.056   5.766
99193SOL    HW299412   0.998   6.994   5.897
99194SOL     OW99413   7.156   9.555   1.725
99194SOL    HW199414   7.096   9.540   1.652
99194SOL    HW299415   7.175   9.468   1.758
99195SOL     OW99416   1.222   6.866  14.651
99195SOL    HW199417   1.280   6.798  14.685
99195SOL    HW299418   1.272   6.909  14.582
99196SOL     OW99419   8.515   6.763   9.359
99196SOL    HW199420   8.472   6.733   9.279
99196SOL    HW299421   8.457   6.830   9.394
99197SOL     OW99422  13.104  10.980  10.727
99197SOL    HW199423  13.059  10.904  10.692
99197SOL    HW299424  13.181  10.990  10.671
99198SOL     OW99425  11.810  11.348  12.170
99198SOL    HW199426  11.729  11.371  12.125
99198SOL    HW299427  11.836  11.429  12.215
99199SOL     OW99428  10.784  14.877   3.020
99199SOL    HW199429  10.804   0.013   2.928
99199SOL    HW299430  10.701  14.829   3.018
99200SOL     OW99431   7.432  14.405   3.286
99200SOL    HW199432   7.468  14.445   3.366
99200SOL    HW299433   7.378  14.333   3.318
99201SOL     OW99434  11.620   1.821   9.221
99201SOL    HW199435  11.648   1.820   9.130
99201SOL    HW299436  11.670   1.750   9.262
99202SOL     OW99437   6.516   2.744   1.029
99202SOL    HW199438   6.557   2.799   0.962
99202SOL    HW299439   6.579   2.743   1.101
99203SOL     OW99440   8.782  13.524   5.440
99203SOL    HW199441   8.876  13.529   5.455
99203SOL    HW299442   8.742  13.549   5.523
99204SOL     OW99443   9.855  12.550   6.297
99204SOL    HW199444   9.763  12.537   6.318
99204SOL    HW299445   9.902  12.521   6.375
99205SOL     OW99446   9.030   2.918   5.376
99205SOL    HW199447   9.020   2.997   5.428
99205SOL    HW299448   8.942   2.882   5.368
99206SOL     OW99449  14.741  14.253   7.306
99206SOL    HW199450  14.794  14.301   7.243
99206SOL    HW299451  14.757  14.161   7.286
99207SOL     OW99452   0.074   4.364  13.131
99207SOL    HW199453   0.053   4.441  13.079
99207SOL    HW299454   0.140   4.394  13.193
99208SOL     OW99455  14.750  13.057   9.551
99208SOL    HW199456  14.655  13.049   9.536
99208SOL    HW299457  14.788  13.047   9.464
99209SOL     OW99458  14.646   7.806   6.564
99209SOL    HW199459  14.676   7.870   6.500
99209SOL    HW299460  14.722   7.749   6.578
99210SOL     OW99461  11.668  12.197  14.750
99210SOL    HW199462  11.579  12.190  14.785
99210SOL    HW299463  11.695  12.286  14.772
99211SOL     OW99464   9.704   3.108   1.145
99211SOL    HW199465   9.621   3.149   1.121
99211SOL    HW299466   9.726   3.052   1.071
99212SOL     OW99467   5.418   5.592  10.058
99212SOL    HW199468   5.331   5.561  10.032
99212SOL    HW299469   5.424   5.570  10.151
99213SOL     OW99470   3.201   0.365   2.406
99213SOL    HW199471   3.242   0.440   2.362
99213SOL    HW299472   3.205   0.388   2.499
99214SOL     OW99473   3.348   6.122   9.189
99214SOL    HW199474   3.259   6.106   9.158
99214SOL    HW299475   3.379   6.195   9.136
99215SOL     OW99476   6.744  13.973  12.130
99215SOL    HW199477   6.749  14.004  12.040
99215SOL    HW299478   6.652  13.951  12.142
99216SOL     OW99479   3.379   5.873   0.692
99216SOL    HW199480   3.400   5.885   0.785
99216SOL    HW299481   3.321   5.946   0.671
99217SOL     OW99482  14.070  11.770   1.366
99217SOL    HW199483  14.105  11.858   1.378
99217SOL    HW299484  14.110  11.719   1.436
99218SOL     OW99485  14.297   6.535  13.479
99218SOL    HW199486  14.359   6.584  13.533
99218SOL    HW299487  14.268   6.597  13.413
99219SOL     OW99488   2.281   0.906  14.807
99219SOL    HW199489   2.368   0.943  14.822
99219SOL    HW299490   2.297   0.816  14.781
99220SOL     OW99491  14.654   6.620   7.835
99220SOL    HW199492  14.673   6.707   7.869
99220SOL    HW299493  14.677   6.625   7.742
99221SOL     OW99494   5.765   9.196  11.072
99221SOL    HW199495   5.859   9.209  11.088
99221SOL    HW299496   5.728   9.183  11.159
99222SOL     OW99497  11.253   3.185  14.494
99222SOL    HW199498  11.314   3.127  14.540
99222SOL    HW299499  11.283   3.185  14.403
99223SOL     OW99500   1.738   5.399   0.545
99223SOL    HW199501   1.811   5.426   0.489
99223SOL    HW299502   1.764   5.427   0.633
99224SOL     OW99503  12.404   3.433   5.701
99224SOL    HW199504  12.390   3.340   5.718
99224SOL    HW299505  12.499   3.444   5.705
99225SOL     OW99506   0.277  10.939  13.912
99225SOL    HW199507   0.216  10.971  13.845
99225SOL    HW299508   0.320  11.017  13.945
99226SOL     OW99509   0.289  10.982   6.429
99226SOL    HW199510   0.195  10.965   6.429
99226SOL    HW299511   0.297  11.070   6.467
99227SOL     OW99512   3.058   5.258   0.794
99227SOL    HW199513   3.106   5.181   0.824
99227SOL    HW299514   3.025   5.233   0.707
99228SOL     OW99515  10.595   4.994   3.312
99228SOL    HW199516  10.570   5.083   3.338
99228SOL    HW299517  10.522   4.940   3.341
99229SOL     OW99518   5.744   2.471   9.615
99229SOL    HW199519   5.797   2.541   9.653
99229SOL    HW299520   5.727   2.500   9.526
99230SOL     OW99521  13.774   8.451  14.126
99230SOL    HW199522  13.841   8.406  14.074
99230SOL    HW299523  13.720   8.496  14.062
99231SOL     OW99524   5.385   6.465  10.435
99231SOL    HW199525   5.402   6.449  10.342
99231SOL    HW299526   5.369   6.560  10.440
99232SOL     OW99527  10.737   0.889  11.394
99232SOL    HW199528  10.774   0.849  11.315
99232SOL    HW299529  10.738   0.983  11.376
99233SOL     OW99530   0.070   7.286   2.426
99233SOL    HW199531   0.080   7.344   2.351
99233SOL    HW299532   0.138   7.313   2.487
99234SOL     OW99533   4.268   9.348  14.232
99234SOL    HW199534   4.228   9.306  14.155
99234SOL    HW299535   4.273   9.278  14.297
99235SOL     OW99536  12.507   9.447  10.512
99235SOL    HW199537  12.564   9.463  10.437
99235SOL    HW299538  12.494   9.533  10.552
99236SOL     OW99539   3.861   8.737   4.095
99236SOL    HW199540   3.801   8.810   4.081
99236SOL    HW299541   3.948   8.776   4.099
99237SOL     OW99542  10.755  14.542  14.285
99237SOL    HW199543  10.831  14.591  14.256
99237SOL    HW299544  10.738  14.573  14.374
99238SOL     OW99545   3.033   9.891   8.856
99238SOL    HW199546   2.996   9.805   8.837
99238SOL    HW299547   3.126   9.882   8.838
99239SOL     OW99548   6.678   9.829   8.699
99239SOL    HW199549   6.733   9.896   8.739
99239SOL    HW299550   6.639   9.872   8.623
99240SOL     OW99551   6.499  13.760   5.169
99240SOL    HW199552   6.447  13.839   5.184
99240SOL    HW299553   6.590  13.788   5.180
99241SOL     OW99554   7.413   8.398  10.384
99241SOL    HW199555   7.343   8.334  10.373
99241SOL    HW299556   7.432   8.397  10.478
99242SOL     OW99557   3.801   4.853   1.853
99242SOL    HW199558   3.741   4.832   1.925
99242SOL    HW299559   3.866   4.911   1.892
99243SOL     OW99560   9.978   6.457   2.349
99243SOL    HW199561   9.898   6.455   2.401
99243SOL    HW299562  10.035   6.518   2.396
99244SOL     OW99563   2.220   3.426   9.974
99244SOL    HW199564   2.156   3.371   9.930
99244SOL    HW299565   2.206   3.411  10.067
99245SOL     OW99566  13.244   4.494   7.895
99245SOL    HW199567  13.150   4.495   7.877
99245SOL    HW299568  13.257   4.414   7.946
99246SOL     OW99569  11.971   6.453   4.241
99246SOL    HW199570  11.879   6.426   4.243
99246SOL    HW299571  11.968   6.548   4.241
99247SOL     OW99572   9.962   0.293  11.442
99247SOL    HW199573   9.899   0.262  11.376
99247SOL    HW299574   9.993   0.376  11.407
99248SOL     OW99575  11.708  14.869   6.655
99248SOL    HW199576  11.687  14.776   6.663
99248SOL    HW299577  11.635   0.032   6.698
99249SOL     OW99578   7.825   6.817   9.507
99249SOL    HW199579   7.836   6.836   9.600
99249SOL    HW299580   7.742   6.772   9.501
99250SOL     OW99581  12.831   3.472  13.288
99250SOL    HW199582  12.797   3.445  13.374
99250SOL    HW299583  12.926   3.467  13.298
99251SOL     OW99584  10.930  11.721   7.462
99251SOL    HW199585  10.960  11.634   7.488
99251SOL    HW299586  11.009  11.775   7.462
99252SOL     OW99587   1.050   6.386   4.982
99252SOL    HW199588   1.009   6.461   4.940
99252SOL    HW299589   1.002   6.310   4.948
99253SOL     OW99590  13.347   9.053   9.702
99253SOL    HW199591  13.322   8.964   9.676
99253SOL    HW299592  13.419   9.041   9.763
99254SOL     OW99593   7.542  12.042  11.596
99254SOL    HW199594   7.508  12.131  11.582
99254SOL    HW299595   7.622  12.055  11.646
99255SOL     OW99596   6.436   5.567   0.665
99255SOL    HW199597   6.378   5.630   0.706
99255SOL    HW299598   6.520   5.577   0.710
99256SOL     OW99599   7.016   6.208   5.360
99256SOL    HW199600   7.062   6.281   5.319
99256SOL    HW299601   6.932   6.245   5.387
99257SOL     OW99602  12.592   2.464  12.916
99257SOL    HW199603  12.551   2.515  12.845
99257SOL    HW299604  12.566   2.374  12.900
99258SOL     OW99605  10.224   0.387   2.788
99258SOL    HW199606  10.204   0.293   2.786
99258SOL    HW299607  10.149   0.429   2.746
99259SOL     OW99608  12.693   0.314  11.759
99259SOL    HW199609  12.696   0.239  11.700
99259SOL    HW299610  12.714   0.278  11.845
99260SOL     OW99611   4.985   4.698   4.397
99260SOL    HW199612   5.061   4.656   4.355
99260SOL    HW299613   4.986   4.788   4.363
99261SOL     OW99614   7.973   8.667   0.430
99261SOL    HW199615   7.991   8.617   0.510
99261SOL    HW299616   8.044   8.643   0.370
99262SOL     OW99617  13.286   6.601   8.166
99262SOL    HW199618  13.193   6.617   8.147
99262SOL    HW299619  13.307   6.663   8.236
99263SOL     OW99620   8.856   8.111   9.253
99263SOL    HW199621   8.912   8.073   9.185
99263SOL    HW299622   8.835   8.199   9.220
99264SOL     OW99623   5.848   3.644   2.132
99264SOL    HW199624   5.797   3.683   2.061
99264SOL    HW299625   5.791   3.575   2.167
99265SOL     OW99626  12.577   7.724   4.748
99265SOL    HW199627  12.522   7.650   4.775
99265SOL    HW299628  12.576   7.783   4.824
99266SOL     OW99629   0.336   9.852   8.935
99266SOL    HW199630   0.296   9.864   9.021
99266SOL    HW299631   0.272   9.889   8.873
99267SOL     OW99632   5.917  14.335   9.483
99267SOL    HW199633   5.873  14.404   9.534
99267SOL    HW299634   6.009  14.342   9.509
99268SOL     OW99635   5.851  11.403   4.569
99268SOL    HW199636   5.799  11.377   4.645
99268SOL    HW299637   5.901  11.324   4.546
99269SOL     OW99638   8.920   9.434   6.995
99269SOL    HW199639   8.953   9.401   6.911
99269SOL    HW299640   8.928   9.360   7.055
99270SOL     OW99641   7.447   0.365   3.257
99270SOL    HW199642   7.401   0.357   3.340
99270SOL    HW299643   7.521   0.305   3.264
99271SOL     OW99644   4.302   5.733   6.265
99271SOL    HW199645   4.320   5.722   6.358
99271SOL    HW299646   4.207   5.735   6.259
99272SOL     OW99647   7.695   9.354  10.461
99272SOL    HW199648   7.661   9.265  10.467
99272SOL    HW299649   7.721   9.363  10.369
99273SOL     OW99650   2.595   5.119   4.738
99273SOL    HW199651   2.544   5.038   4.745
99273SOL    HW299652   2.538   5.185   4.777
99274SOL     OW99653   5.426  12.679   6.734
99274SOL    HW199654   5.398  12.615   6.800
99274SOL    HW299655   5.406  12.638   6.650
99275SOL     OW99656   5.139   2.119  13.960
99275SOL    HW199657   5.063   2.084  13.914
99275SOL    HW299658   5.204   2.135  13.891
99276SOL     OW99659   7.715   1.777  11.041
99276SOL    HW199660   7.750   1.859  11.075
99276SOL    HW299661   7.624   1.796  11.020
99277SOL     OW99662  14.494  10.212   2.287
99277SOL    HW199663  14.453  10.298   2.278
99277SOL    HW299664  14.472  10.185   2.376
99278SOL     OW99665  10.972   0.953  12.443
99278SOL    HW199666  11.002   1.044  12.450
99278SOL    HW299667  11.052   0.901  12.445
99279SOL     OW99668   8.947  12.479   2.016
99279SOL    HW199669   8.935  12.406   1.955
99279SOL    HW299670   8.947  12.557   1.960
99280SOL     OW99671  14.857   1.567  12.552
99280SOL    HW199672  14.813   1.596  12.632
99280SOL    HW299673   0.014   1.647  12.516
99281SOL     OW99674   7.560   1.683  14.377
99281SOL    HW199675   7.581   1.771  14.408
99281SOL    HW299676   7.512   1.698  14.295
99282SOL     OW99677   0.544  12.066   3.233
99282SOL    HW199678   0.541  12.009   3.310
99282SOL    HW299679   0.506  12.149   3.264
99283SOL     OW99680   0.259   8.657  13.194
99283SOL    HW199681   0.174   8.663  13.237
99283SOL    HW299682   0.256   8.724  13.126
99284SOL     OW99683   8.528   6.409   5.268
99284SOL    HW199684   8.493   6.325   5.298
99284SOL    HW299685   8.470   6.474   5.308
99285SOL     OW99686   4.448   1.820  11.403
99285SOL    HW199687   4.390   1.747  11.422
99285SOL    HW299688   4.400   1.898  11.433
99286SOL     OW99689   3.336   7.944   3.496
99286SOL    HW199690   3.255   7.963   3.448
99286SOL    HW299691   3.359   8.027   3.537
99287SOL     OW99692   2.637   1.455   6.222
99287SOL    HW199693   2.559   1.401   6.217
99287SOL    HW299694   2.608   1.542   6.197
99288SOL     OW99695   0.190  14.431  14.674
99288SOL    HW199696   0.278  14.446  14.708
99288SOL    HW299697   0.175  14.337  14.686
99289SOL     OW99698  13.948  13.257   6.668
99289SOL    HW199699  13.959  13.290   6.579
99289SOL    HW299700  14.024  13.290   6.716
99290SOL     OW99701   9.354   8.444   1.392
99290SOL    HW199702   9.434   8.470   1.437
99290SOL    HW299703   9.374   8.359   1.353
99291SOL     OW99704   5.784   5.417  12.274
99291SOL    HW199705   5.744   5.333  12.254
99291SOL    HW299706   5.874   5.396  12.301
99292SOL     OW99707   1.445   2.308   6.866
99292SOL    HW199708   1.350   2.309   6.857
99292SOL    HW299709   1.476   2.374   6.805
99293SOL     OW99710   4.613  10.309  13.487
99293SOL    HW199711   4.704  10.294  13.516
99293SOL    HW299712   4.576  10.221  13.479
99294SOL     OW99713   2.941   2.606  10.516
99294SOL    HW199714   2.971   2.558  10.439
99294SOL    HW299715   2.996   2.572  10.587
99295SOL     OW99716  12.317   4.020  10.490
99295SOL    HW199717  12.410   4.043  10.490
99295SOL    HW299718  12.272   4.103  10.474
99296SOL     OW99719   5.606   2.039   5.864
99296SOL    HW199720   5.520   1.997   5.870
99296SOL    HW299721   5.668   1.968   5.877
99297SOL     OW99722   0.041   2.936   1.037
99297SOL    HW199723   0.004   3.019   1.007
99297SOL    HW299724  14.872   2.869   0.991
99298SOL     OW99725   1.219  10.850   4.627
99298SOL    HW199726   1.313  10.849   4.646
99298SOL    HW299727   1.195  10.757   4.624
99299SOL     OW99728   0.420   2.297   0.261
99299SOL    HW199729   0.343   2.278   0.315
99299SOL    HW299730   0.491   2.249   0.304
99300SOL     OW99731   3.625  12.734   1.382
99300SOL    HW199732   3.559  12.739   1.313
99300SOL    HW299733   3.671  12.652   1.364
99301SOL     OW99734   1.033   2.293   9.555
99301SOL    HW199735   1.118   2.335   9.539
99301SOL    HW299736   1.053   2.201   9.568
99302SOL     OW99737   2.140   3.123  14.226
99302SOL    HW199738   2.090   3.129  14.144
99302SOL    HW299739   2.123   3.206  14.270
99303SOL     OW99740   5.853   7.350   1.368
99303SOL    HW199741   5.844   7.315   1.457
99303SOL    HW299742   5.816   7.438   1.373
99304SOL     OW99743   9.051   0.836   9.224
99304SOL    HW199744   9.133   0.882   9.210
99304SOL    HW299745   9.054   0.762   9.164
99305SOL     OW99746  14.042   3.170  14.372
99305SOL    HW199747  14.080   3.114  14.439
99305SOL    HW299748  13.948   3.165  14.387
99306SOL     OW99749   4.514   1.193   5.410
99306SOL    HW199750   4.547   1.182   5.321
99306SOL    HW299751   4.505   1.104   5.443
99307SOL     OW99752   1.281   6.553  12.936
99307SOL    HW199753   1.241   6.638  12.954
99307SOL    HW299754   1.251   6.530  12.848
99308SOL     OW99755  10.727   3.900   0.153
99308SOL    HW199756  10.709   3.808   0.133
99308SOL    HW299757  10.803   3.898   0.211
99309SOL     OW99758   7.889   6.435   7.140
99309SOL    HW199759   7.844   6.488   7.205
99309SOL    HW299760   7.981   6.457   7.149
99310SOL     OW99761   6.159   4.740   0.435
99310SOL    HW199762   6.082   4.734   0.377
99310SOL    HW299763   6.233   4.722   0.377
99311SOL     OW99764  14.250   5.185   7.766
99311SOL    HW199765  14.201   5.227   7.837
99311SOL    HW299766  14.253   5.251   7.696
99312SOL     OW99767   9.141   0.419   5.784
99312SOL    HW199768   9.052   0.454   5.796
99312SOL    HW299769   9.168   0.394   5.873
99313SOL     OW99770  11.218  13.228  12.692
99313SOL    HW199771  11.175  13.313  12.686
99313SOL    HW299772  11.240  13.219  12.785
99314SOL     OW99773   4.268   2.676   2.336
99314SOL    HW199774   4.255   2.751   2.278
99314SOL    HW299775   4.250   2.710   2.424
99315SOL     OW99776   6.245   2.765  13.759
99315SOL    HW199777   6.214   2.715  13.683
99315SOL    HW299778   6.232   2.856  13.735
99316SOL     OW99779  11.720   2.369  14.275
99316SOL    HW199780  11.659   2.346  14.345
99316SOL    HW299781  11.667   2.418  14.212
99317SOL     OW99782   2.384   2.948  11.683
99317SOL    HW199783   2.384   2.931  11.777
99317SOL    HW299784   2.374   2.862  11.642
99318SOL     OW99785  10.802  10.745   2.473
99318SOL    HW199786  10.892  10.759   2.442
99318SOL    HW299787  10.798  10.791   2.556
99319SOL     OW99788   7.741  13.398  12.774
99319SOL    HW199789   7.655  13.424  12.743
99319SOL    HW299790   7.772  13.334  12.710
99320SOL     OW99791  10.386  13.815   4.984
99320SOL    HW199792  10.295  13.791   4.968
99320SOL    HW299793  10.395  13.901   4.944
99321SOL     OW99794   0.873   5.377   2.828
99321SOL    HW199795   0.794   5.423   2.800
99321SOL    HW299796   0.946   5.432   2.799
99322SOL     OW99797   6.663  12.715  11.441
99322SOL    HW199798   6.699  12.803  11.433
99322SOL    HW299799   6.598  12.722  11.511
99323SOL     OW99800   1.080   0.981   3.784
99323SOL    HW199801   1.105   0.958   3.694
99323SOL    HW299802   1.106   1.073   3.793
99324SOL     OW99803  12.503   0.197  12.373
99324SOL    HW199804  12.462   0.111  12.365
99324SOL    HW299805  12.597   0.178  12.376
99325SOL     OW99806   1.356   1.412   0.410
99325SOL    HW199807   1.285   1.468   0.378
99325SOL    HW299808   1.399   1.379   0.331
99326SOL     OW99809   0.755  12.109   6.335
99326SOL    HW199810   0.849  12.097   6.320
99326SOL    HW299811   0.749  12.143   6.424
99327SOL     OW99812  14.163  10.396   4.744
99327SOL    HW199813  14.099  10.467   4.744
99327SOL    HW299814  14.139  10.343   4.820
99328SOL     OW99815   0.601   8.557  13.755
99328SOL    HW199816   0.609   8.465  13.780
99328SOL    HW299817   0.511   8.565  13.723
99329SOL     OW99818   4.511   2.212   8.503
99329SOL    HW199819   4.493   2.275   8.572
99329SOL    HW299820   4.575   2.255   8.446
99330SOL     OW99821   3.427   1.598   2.729
99330SOL    HW199822   3.357   1.651   2.769
99330SOL    HW299823   3.477   1.660   2.676
99331SOL     OW99824   1.794  12.621   6.981
99331SOL    HW199825   1.735  12.615   7.056
99331SOL    HW299826   1.784  12.710   6.949
99332SOL     OW99827   0.819   3.867   9.245
99332SOL    HW199828   0.837   3.961   9.241
99332SOL    HW299829   0.861   3.838   9.326
99333SOL     OW99830   8.195  11.873   1.379
99333SOL    HW199831   8.160  11.785   1.368
99333SOL    HW299832   8.277  11.872   1.331
99334SOL     OW99833   9.781   0.784   0.340
99334SOL    HW199834   9.708   0.763   0.399
99334SOL    HW299835   9.749   0.857   0.287
99335SOL     OW99836   2.769  14.634   9.446
99335SOL    HW199837   2.808  14.588   9.371
99335SOL    HW299838   2.812  14.719   9.448
99336SOL     OW99839  13.940   4.177  12.202
99336SOL    HW199840  13.871   4.125  12.160
99336SOL    HW299841  13.893   4.243  12.254
99337SOL     OW99842  11.422   0.742  10.737
99337SOL    HW199843  11.332   0.721  10.712
99337SOL    HW299844  11.461   0.782  10.659
99338SOL     OW99845  13.411   7.364   2.364
99338SOL    HW199846  13.360   7.320   2.297
99338SOL    HW299847  13.490   7.310   2.373
99339SOL     OW99848  12.681  10.576   4.427
99339SOL    HW199849  12.715  10.647   4.481
99339SOL    HW299850  12.665  10.505   4.489
99340SOL     OW99851   1.665  10.846  10.161
99340SOL    HW199852   1.749  10.806  10.140
99340SOL    HW299853   1.650  10.910  10.092
99341SOL     OW99854   8.231   6.928   2.065
99341SOL    HW199855   8.162   6.993   2.057
99341SOL    HW299856   8.186   6.849   2.094
99342SOL     OW99857   4.336  11.964   7.567
99342SOL    HW199858   4.361  12.054   7.547
99342SOL    HW299859   4.388  11.942   7.645
99343SOL     OW99860  11.554   3.361  13.543
99343SOL    HW199861  11.633   3.385  13.494
99343SOL    HW299862  11.508   3.300  13.485
99344SOL     OW99863   5.170   7.721  13.185
99344SOL    HW199864   5.164   7.805  13.140
99344SOL    HW299865   5.262   7.696  13.178
99345SOL     OW99866  11.779  12.476   2.132
99345SOL    HW199867  11.730  12.409   2.180
99345SOL    HW299868  11.713  12.517   2.076
99346SOL     OW99869   3.683   6.585   0.485
99346SOL    HW199870   3.682   6.649   0.414
99346SOL    HW299871   3.759   6.530   0.467
99347SOL     OW99872   9.088   9.077  10.605
99347SOL    HW199873   9.000   9.046  10.627
99347SOL    HW299874   9.085   9.171  10.626
99348SOL     OW99875  12.289   9.864   4.894
99348SOL    HW199876  12.258   9.774   4.907
99348SOL    HW299877  12.375   9.865   4.935
99349SOL     OW99878   8.812   3.063   2.398
99349SOL    HW199879   8.859   3.143   2.421
99349SOL    HW299880   8.805   3.066   2.303
99350SOL     OW99881  10.330   8.902   6.871
99350SOL    HW199882  10.281   8.971   6.826
99350SOL    HW299883  10.292   8.820   6.841
99351SOL     OW99884   2.330  10.870   8.099
99351SOL    HW199885   2.426  10.862   8.097
99351SOL    HW299886   2.302  10.806   8.164
99352SOL     OW99887  14.283  10.223   9.677
99352SOL    HW199888  14.378  10.221   9.666
99352SOL    HW299889  14.262  10.141   9.721
99353SOL     OW99890  11.771   1.054  10.143
99353SOL    HW199891  11.833   1.066  10.071
99353SOL    HW299892  11.689   1.031  10.101
99354SOL     OW99893   4.447  12.871   6.311
99354SOL    HW199894   4.361  12.833   6.333
99354SOL    HW299895   4.428  12.963   6.292
99355SOL     OW99896   2.025  12.438  10.391
99355SOL    HW199897   2.114  12.429  10.425
99355SOL    HW299898   1.971  12.453  10.468
99356SOL     OW99899   3.075   4.244   2.245
99356SOL    HW199900   3.017   4.291   2.185
99356SOL    HW299901   3.016   4.191   2.298
99357SOL     OW99902   1.888   2.789   9.519
99357SOL    HW199903   1.851   2.860   9.571
99357SOL    HW299904   1.852   2.709   9.557
99358SOL     OW99905   5.329  13.961   3.327
99358SOL    HW199906   5.305  13.915   3.407
99358SOL    HW299907   5.246  13.979   3.284
99359SOL     OW99908   7.580   4.296   6.537
99359SOL    HW199909   7.658   4.303   6.592
99359SOL    HW299910   7.548   4.386   6.529
99360SOL     OW99911  11.026   1.774   0.743
99360SOL    HW199912  11.026   1.860   0.701
99360SOL    HW299913  11.116   1.761   0.772
99361SOL     OW99914   1.594  11.143   1.207
99361SOL    HW199915   1.610  11.078   1.139
99361SOL    HW299916   1.582  11.225   1.159
99362SOL     OW99917   2.185  10.143   2.673
99362SOL    HW199918   2.216  10.223   2.715
99362SOL    HW299919   2.198  10.159   2.580
99363SOL     OW99920   5.592  10.585   4.885
99363SOL    HW199921   5.541  10.622   4.957
99363SOL    HW299922   5.620  10.499   4.916
99364SOL     OW99923   7.145   2.623  13.270
99364SOL    HW199924   7.106   2.709  13.253
99364SOL    HW299925   7.185   2.632  13.356
99365SOL     OW99926   6.151   2.318  12.543
99365SOL    HW199927   6.114   2.392  12.495
99365SOL    HW299928   6.246   2.330  12.537
99366SOL     OW99929   9.519   3.200   9.749
99366SOL    HW199930   9.571   3.247   9.684
99366SOL    HW299931   9.498   3.266   9.815
99367SOL     OW99932   0.405   9.974  10.973
99367SOL    HW199933   0.395   9.881  10.994
99367SOL    HW299934   0.321   9.998  10.934
99368SOL     OW99935  14.874   9.478   4.777
99368SOL    HW199936   0.080   9.515   4.794
99368SOL    HW299937  14.860   9.491   4.684
99369SOL     OW99938   9.338   0.848   0.821
99369SOL    HW199939   9.429   0.874   0.807
99369SOL    HW299940   9.344   0.758   0.854
99370SOL     OW99941  12.237   3.285  12.885
99370SOL    HW199942  12.267   3.289  12.976
99370SOL    HW299943  12.142   3.285  12.891
99371SOL     OW99944  12.852   1.098  13.868
99371SOL    HW199945  12.891   1.111  13.782
99371SOL    HW299946  12.926   1.103  13.929
99372SOL     OW99947  13.832   0.178  13.805
99372SOL    HW199948  13.887   0.186  13.728
99372SOL    HW299949  13.751   0.139  13.773
99373SOL     OW99950   6.990   1.382   3.456
99373SOL    HW199951   6.937   1.324   3.511
99373SOL    HW299952   6.969   1.355   3.367
99374SOL     OW99953   8.146  14.753   2.084
99374SOL    HW199954   8.233  14.719   2.101
99374SOL    HW299955   8.094  14.729   2.161
99375SOL     OW99956   7.666  14.086  10.012
99375SOL    HW199957   7.583  14.130   9.993
99375SOL    HW299958   7.710  14.082   9.927
99376SOL     OW99959  11.038   4.060   9.474
99376SOL    HW199960  11.118   4.055   9.527
99376SOL    HW299961  11.049   3.991   9.408
99377SOL     OW99962   7.426   1.543  14.789
99377SOL    HW199963   7.394   1.567  14.701
99377SOL    HW299964   7.517   1.518  14.775
99378SOL     OW99965  12.052   4.613  12.923
99378SOL    HW199966  12.015   4.525  12.910
99378SOL    HW299967  12.145   4.597  12.940
99379SOL     OW99968   3.951   0.816  11.098
99379SOL    HW199969   4.015   0.829  11.028
99379SOL    HW299970   3.949   0.900  11.144
99380SOL     OW99971  12.610   4.035  10.474
99380SOL    HW199972  12.596   3.978  10.398
99380SOL    HW299973  12.705   4.045  10.479
99381SOL     OW99974   7.743   9.048  10.103
99381SOL    HW199975   7.659   9.003  10.113
99381SOL    HW299976   7.722   9.140  10.117
99382SOL     OW99977   7.725   4.954   5.780
99382SOL    HW199978   7.712   4.917   5.692
99382SOL    HW299979   7.780   4.889   5.824
99383SOL     OW99980   1.123   4.375   8.937
99383SOL    HW199981   1.036   4.380   8.979
99383SOL    HW299982   1.142   4.282   8.932
99384SOL     OW99983   3.986   4.061  10.901
99384SOL    HW199984   3.931   4.139  10.908
99384SOL    HW299985   4.065   4.091  10.855
99385SOL     OW99986  10.101  10.320  14.330
99385SOL    HW199987  10.149  10.348  14.408
99385SOL    HW299988  10.019  10.282  14.364
99386SOL     OW99989  11.497  10.502   6.385
99386SOL    HW199990  11.405  10.519   6.366
99386SOL    HW299991  11.531  10.586   6.416
99387SOL     OW99992   0.948  14.247  14.861
99387SOL    HW199993   0.917  14.330  14.825
99387SOL    HW299994   0.922  14.181  14.798
99388SOL     OW99995  13.221  13.181   7.882
99388SOL    HW199996  13.174  13.146   7.957
99388SOL    HW299997  13.304  13.213   7.918
99389SOL     OW99998  10.937   5.011   6.693
99389SOL    HW199999  11.025   4.978   6.673
99389SOL    HW2    0  10.917   4.975   6.779
99390SOL     OW    1   8.190   4.567  12.793
99390SOL    HW1    2   8.194   4.532  12.704
99390SOL    HW2    3   8.160   4.494  12.847
99391SOL     OW    4   1.938   5.875  13.818
99391SOL    HW1    5   1.887   5.796  13.835
99391SOL    HW2    6   1.889   5.922  13.751
99392SOL     OW    7  11.995  11.201   5.287
99392SOL    HW1    8  11.978  11.245   5.370
99392SOL    HW2    9  12.012  11.110   5.311
99393SOL     OW   10   3.616   2.313  11.031
99393SOL    HW1   11   3.623   2.340  10.939
99393SOL    HW2   12   3.561   2.234  11.028
99394SOL     OW   13  12.831   1.357   4.727
99394SOL    HW1   14  12.924   1.364   4.705
99394SOL    HW2   15  12.826   1.389   4.817
99395SOL     OW   16  13.103   7.054   8.949
99395SOL    HW1   17  13.080   7.091   8.863
99395SOL    HW2   18  13.028   7.000   8.972
99396SOL     OW   19   4.874   7.300   6.828
99396SOL    HW1   20   4.913   7.267   6.747
99396SOL    HW2   21   4.796   7.347   6.798
99397SOL     OW   22   9.681   8.475   1.119
99397SOL    HW1   23   9.649   8.431   1.040
99397SOL    HW2   24   9.767   8.509   1.095
99398SOL     OW   25   0.589  11.808   5.230
99398SOL    HW1   26   0.589  11.799   5.135
99398SOL    HW2   27   0.639  11.733   5.262
99399SOL     OW   28   1.931  14.614   6.651
99399SOL    HW1   29   1.994  14.644   6.716
99399SOL    HW2   30   1.962  14.652   6.568
99400SOL     OW   31   2.199   5.056  14.234
99400SOL    HW1   32   2.171   5.126  14.176
99400SOL    HW2   33   2.272   5.093  14.283
99401SOL     OW   34   7.629  13.767   6.838
99401SOL    HW1   35   7.587  13.681   6.826
99401SOL    HW2   36   7.645  13.798   6.749
99402SOL     OW   37  11.570   2.075   6.473
99402SOL    HW1   38  11.653   2.035   6.449
99402SOL    HW2   39  11.520   2.077   6.392
99403SOL     OW   40   8.516   5.494  11.412
99403SOL    HW1   41   8.487   5.525  11.326
99403SOL    HW2   42   8.457   5.538  11.473
99404SOL     OW   43   4.057   1.391   4.564
99404SOL    HW1   44   4.147   1.414   4.541
99404SOL    HW2   45   4.059   1.297   4.579
99405SOL     OW   46   7.359   1.800   5.560
99405SOL    HW1   47   7.346   1.710   5.530
99405SOL    HW2   48   7.452   1.817   5.547
99406SOL     OW   49   4.660   4.475   8.761
99406SOL    HW1   50   4.685   4.407   8.699
99406SOL    HW2   51   4.605   4.430   8.825
99407SOL     OW   52   5.039   8.352  12.107
99407SOL    HW1   53   5.042   8.333  12.013
99407SOL    HW2   54   5.002   8.273  12.147
99408SOL     OW   55  10.470   8.487  12.749
99408SOL    HW1   56  10.430   8.437  12.820
99408SOL    HW2   57  10.530   8.426  12.707
99409SOL     OW   58   7.953   6.959  13.601
99409SOL    HW1   59   7.889   6.887  13.598
99409SOL    HW2   60   8.012   6.935  13.672
99410SOL     OW   61   8.147   5.355   2.091
99410SOL    HW1   62   8.058   5.368   2.125
99410SOL    HW2   63   8.148   5.263   2.064
99411SOL     OW   64   4.474   3.869   3.739
99411SOL    HW1   65   4.516   3.913   3.665
99411SOL    HW2   66   4.531   3.795   3.759
99412SOL     OW   67  11.989   1.071   6.450
99412SOL    HW1   68  12.084   1.054   6.452
99412SOL    HW2   69  11.978   1.134   6.379
99413SOL     OW   70   5.708  11.192   1.790
99413SOL    HW1   71   5.726  11.103   1.821
99413SOL    HW2   72   5.795  11.232   1.780
99414SOL     OW   73   9.144  11.314  11.511
99414SOL    HW1   74   9.227  11.361  11.498
99414SOL    HW2   75   9.106  11.308  11.424
99415SOL     OW   76   0.385   8.445  11.040
99415SOL    HW1   77   0.417   8.517  11.094
99415SOL    HW2   78   0.439   8.370  11.067
99416SOL     OW   79   6.605   8.678   2.985
99416SOL    HW1   80   6.692   8.681   3.024
99416SOL    HW2   81   6.585   8.768   2.961
99417SOL     OW   82   7.365   6.382   4.906
99417SOL    HW1   83   7.413   6.406   4.985
99417SOL    HW2   84   7.405   6.300   4.878
99418SOL     OW   85  13.411   2.420   7.542
99418SOL    HW1   86  13.436   2.402   7.452
99418SOL    HW2   87  13.396   2.514   7.545
99419SOL     OW   88  13.284   4.220   0.131
99419SOL    HW1   89  13.237   4.138   0.117
99419SOL    HW2   90  13.223   4.288   0.104
99420SOL     OW   91   9.099   9.999   8.394
99420SOL    HW1   92   9.186  10.036   8.406
99420SOL    HW2   93   9.098   9.920   8.448
99421SOL     OW   94   1.461   2.738   5.063
99421SOL    HW1   95   1.432   2.652   5.094
99421SOL    HW2   96   1.382   2.791   5.064
99422SOL     OW   97   4.697   1.465   5.451
99422SOL    HW1   98   4.637   1.410   5.502
99422SOL    HW2   99   4.705   1.546   5.503
99423SOL     OW  100   1.953   2.179  10.676
99423SOL    HW1  101   2.025   2.119  10.699
99423SOL    HW2  102   1.926   2.217  10.759
99424SOL     OW  103   5.224   8.054   8.914
99424SOL    HW1  104   5.204   8.029   9.004
99424SOL    HW2  105   5.292   8.120   8.922
99425SOL     OW  106  10.142  11.650   0.949
99425SOL    HW1  107  10.106  11.738   0.943
99425SOL    HW2  108  10.194  11.640   0.869
99426SOL     OW  109   4.262   7.654   7.582
99426SOL    HW1  110   4.180   7.618   7.618
99426SOL    HW2  111   4.264   7.744   7.612
99427SOL     OW  112   9.613   6.820   9.891
99427SOL    HW1  113   9.648   6.869   9.817
99427SOL    HW2  114   9.648   6.863   9.968
99428SOL     OW  115   3.425   9.832   7.169
99428SOL    HW1  116   3.366   9.907   7.167
99428SOL    HW2  117   3.502   9.861   7.120
99429SOL     OW  118   5.478   5.542  10.322
99429SOL    HW1  119   5.534   5.508  10.392
99429SOL    HW2  120   5.417   5.471  10.303
99430SOL     OW  121   4.604  11.564   9.468
99430SOL    HW1  122   4.532  11.620   9.437
99430SOL    HW2  123   4.569  11.475   9.462
99431SOL     OW  124  12.924  13.879  12.519
99431SOL    HW1  125  13.006  13.855  12.561
99431SOL    HW2  126  12.908  13.969  12.547
99432SOL     OW  127   6.451  10.518   1.881
99432SOL    HW1  128   6.478  10.547   1.794
99432SOL    HW2  129   6.443  10.423   1.873
99433SOL     OW  130   8.846   3.918   5.584
99433SOL    HW1  131   8.835   4.006   5.550
99433SOL    HW2  132   8.757   3.883   5.588
99434SOL     OW  133   3.370  10.542  10.874
99434SOL    HW1  134   3.433  10.470  10.882
99434SOL    HW2  135   3.284  10.500  10.874
99435SOL     OW  136   5.604  13.813   9.789
99435SOL    HW1  137   5.582  13.738   9.845
99435SOL    HW2  138   5.691  13.839   9.817
99436SOL     OW  139  12.722   0.384  11.396
99436SOL    HW1  140  12.728   0.347  11.308
99436SOL    HW2  141  12.646   0.443  11.392
99437SOL     OW  142   8.629  14.730   5.764
99437SOL    HW1  143   8.559  14.786   5.798
99437SOL    HW2  144   8.624  14.741   5.669
99438SOL     OW  145  12.168   0.897  13.031
99438SOL    HW1  146  12.146   0.940  12.948
99438SOL    HW2  147  12.089   0.848  13.054
99439SOL     OW  148   8.374   6.435   9.820
99439SOL    HW1  149   8.415   6.438   9.907
99439SOL    HW2  150   8.445   6.455   9.759
99440SOL     OW  151   5.886   6.077   2.393
99440SOL    HW1  152   5.964   6.028   2.418
99440SOL    HW2  153   5.917   6.140   2.327
99441SOL     OW  154  13.844  12.185   7.485
99441SOL    HW1  155  13.908  12.148   7.546
99441SOL    HW2  156  13.866  12.146   7.400
99442SOL     OW  157   5.014  10.128   9.544
99442SOL    HW1  158   5.064  10.090   9.616
99442SOL    HW2  159   4.934  10.160   9.584
99443SOL     OW  160   0.102   1.461   2.922
99443SOL    HW1  161   0.102   1.464   2.826
99443SOL    HW2  162   0.017   1.424   2.945
99444SOL     OW  163   1.236   4.128   8.503
99444SOL    HW1  164   1.213   4.070   8.431
99444SOL    HW2  165   1.160   4.124   8.562
99445SOL     OW  166   3.068   7.752   5.251
99445SOL    HW1  167   3.117   7.691   5.306
99445SOL    HW2  168   3.036   7.819   5.311
99446SOL     OW  169   6.023  11.132   6.279
99446SOL    HW1  170   5.930  11.137   6.302
99446SOL    HW2  171   6.060  11.214   6.310
99447SOL     OW  172   0.627   3.677  12.175
99447SOL    HW1  173   0.686   3.633  12.113
99447SOL    HW2  174   0.560   3.612  12.194
99448SOL     OW  175  14.276   1.882   6.277
99448SOL    HW1  176  14.219   1.812   6.307
99448SOL    HW2  177  14.349   1.838   6.233
99449SOL     OW  178  11.295   5.462   0.028
99449SOL    HW1  179  11.299   5.456  14.814
99449SOL    HW2  180  11.202   5.450   0.048
99450SOL     OW  181  10.928   9.037   4.733
99450SOL    HW1  182  10.861   8.997   4.677
99450SOL    HW2  183  10.936   8.977   4.807
99451SOL     OW  184  12.833  10.881  12.417
99451SOL    HW1  185  12.886  10.816  12.463
99451SOL    HW2  186  12.816  10.842  12.331
99452SOL     OW  187  14.422   0.314  14.070
99452SOL    HW1  188  14.415   0.408  14.058
99452SOL    HW2  189  14.457   0.281  13.987
99453SOL     OW  190   3.295  14.780  10.966
99453SOL    HW1  191   3.329  14.838  10.899
99453SOL    HW2  192   3.218  14.825  11.001
99454SOL     OW  193  12.394   7.842   1.625
99454SOL    HW1  194  12.435   7.758   1.645
99454SOL    HW2  195  12.317   7.820   1.573
99455SOL     OW  196   4.297   2.191  12.750
99455SOL    HW1  197   4.323   2.111  12.705
99455SOL    HW2  198   4.288   2.165  12.842
99456SOL     OW  199   8.845  14.741   7.181
99456SOL    HW1  200   8.892  14.660   7.162
99456SOL    HW2  201   8.872  14.764   7.270
99457SOL     OW  202   0.094  12.731   9.779
99457SOL    HW1  203   0.149  12.732   9.858
99457SOL    HW2  204   0.079  12.824   9.760
99458SOL     OW  205   4.749   8.581   4.956
99458SOL    HW1  206   4.756   8.670   4.921
99458SOL    HW2  207   4.758   8.524   4.880
99459SOL     OW  208   7.913   3.858   8.285
99459SOL    HW1  209   7.872   3.777   8.257
99459SOL    HW2  210   7.850   3.897   8.346
99460SOL     OW  211  13.629   6.454   1.755
99460SOL    HW1  212  13.698   6.498   1.705
99460SOL    HW2  213  13.666   6.444   1.843
99461SOL     OW  214   2.753   2.715   7.735
99461SOL    HW1  215   2.804   2.796   7.739
99461SOL    HW2  216   2.724   2.700   7.825
99462SOL     OW  217   3.182  14.799   2.921
99462SOL    HW1  218   3.184  14.826   2.829
99462SOL    HW2  219   3.234  14.865   2.967
99463SOL     OW  220   6.970   4.909  11.391
99463SOL    HW1  221   6.954   4.998  11.422
99463SOL    HW2  222   7.065   4.901  11.389
99464SOL     OW  223   0.787   8.441  11.124
99464SOL    HW1  224   0.810   8.425  11.216
99464SOL    HW2  225   0.747   8.528  11.124
99465SOL     OW  226   7.334   3.962  14.754
99465SOL    HW1  227   7.357   3.870  14.740
99465SOL    HW2  228   7.408   4.010  14.717
99466SOL     OW  229   8.722   1.841  12.886
99466SOL    HW1  230   8.763   1.888  12.959
99466SOL    HW2  231   8.677   1.767  12.928
99467SOL     OW  232   5.711   5.319  14.494
99467SOL    HW1  233   5.639   5.259  14.512
99467SOL    HW2  234   5.670   5.406  14.497
99468SOL     OW  235  13.842  14.129  13.127
99468SOL    HW1  236  13.764  14.080  13.152
99468SOL    HW2  237  13.889  14.071  13.067
99469SOL     OW  238  14.765   1.155   2.481
99469SOL    HW1  239  14.785   1.075   2.432
99469SOL    HW2  240  14.682   1.136   2.524
99470SOL     OW  241  10.259   0.040   6.096
99470SOL    HW1  242  10.270  14.848   6.036
99470SOL    HW2  243  10.276   0.003   6.182
99471SOL     OW  244   5.577   3.400   7.474
99471SOL    HW1  245   5.545   3.450   7.399
99471SOL    HW2  246   5.658   3.445   7.499
99472SOL     OW  247  10.731  11.690  12.375
99472SOL    HW1  248  10.708  11.671  12.284
99472SOL    HW2  249  10.803  11.630  12.395
99473SOL     OW  250  13.887   9.661   3.572
99473SOL    HW1  251  13.948   9.652   3.499
99473SOL    HW2  252  13.829   9.585   3.564
99474SOL     OW  253  12.544   9.501   5.723
99474SOL    HW1  254  12.528   9.460   5.638
99474SOL    HW2  255  12.634   9.477   5.745
99475SOL     OW  256  13.119   8.264   4.599
99475SOL    HW1  257  13.153   8.232   4.516
99475SOL    HW2  258  13.115   8.359   4.589
99476SOL     OW  259   4.852   6.058   7.231
99476SOL    HW1  260   4.930   6.105   7.260
99476SOL    HW2  261   4.885   5.987   7.176
99477SOL     OW  262   2.831   9.303  13.117
99477SOL    HW1  263   2.907   9.349  13.081
99477SOL    HW2  264   2.756   9.341  13.070
99478SOL     OW  265  13.007  10.024   4.105
99478SOL    HW1  266  13.065  10.013   4.030
99478SOL    HW2  267  13.066  10.043   4.178
99479SOL     OW  268  13.388  13.709  12.364
99479SOL    HW1  269  13.469  13.686  12.318
99479SOL    HW2  270  13.328  13.637  12.345
99480SOL     OW  271   8.611   5.145  13.544
99480SOL    HW1  272   8.555   5.190  13.480
99480SOL    HW2  273   8.662   5.083  13.492
99481SOL     OW  274   3.595   1.863   4.538
99481SOL    HW1  275   3.609   1.944   4.585
99481SOL    HW2  276   3.674   1.851   4.485
99482SOL     OW  277  12.822  14.166   0.004
99482SOL    HW1  278  12.859  14.080   0.023
99482SOL    HW2  279  12.832  14.215   0.086
99483SOL     OW  280   7.392   3.490   0.974
99483SOL    HW1  281   7.414   3.459   0.887
99483SOL    HW2  282   7.399   3.412   1.030
99484SOL     OW  283   1.482   1.755   0.845
99484SOL    HW1  284   1.465   1.849   0.839
99484SOL    HW2  285   1.473   1.724   0.755
99485SOL     OW  286   6.852   9.177  10.516
99485SOL    HW1  287   6.800   9.159  10.438
99485SOL    HW2  288   6.802   9.241  10.565
99486SOL     OW  289   4.156  13.569   0.798
99486SOL    HW1  290   4.202  13.535   0.875
99486SOL    HW2  291   4.217  13.555   0.725
99487SOL     OW  292  10.070   3.287   0.497
99487SOL    HW1  293  10.010   3.361   0.483
99487SOL    HW2  294  10.140   3.300   0.433
99488SOL     OW  295  14.574   1.056   7.152
99488SOL    HW1  296  14.549   0.965   7.136
99488SOL    HW2  297  14.624   1.053   7.234
99489SOL     OW  298   2.209  12.894  13.541
99489SOL    HW1  299   2.152  12.827  13.579
99489SOL    HW2  300   2.149  12.956  13.499
99490SOL     OW  301   1.706   7.802  11.620
99490SOL    HW1  302   1.748   7.735  11.674
99490SOL    HW2  303   1.646   7.847  11.680
99491SOL     OW  304   5.742   7.470  13.896
99491SOL    HW1  305   5.781   7.532  13.835
99491SOL    HW2  306   5.681   7.419  13.844
99492SOL     OW  307  12.801   0.790   2.456
99492SOL    HW1  308  12.795   0.870   2.508
99492SOL    HW2  309  12.835   0.724   2.517
99493SOL     OW  310   5.338   3.951   1.427
99493SOL    HW1  311   5.349   3.902   1.346
99493SOL    HW2  312   5.350   3.886   1.496
99494SOL     OW  313   8.977  11.868  12.396
99494SOL    HW1  314   8.914  11.806  12.433
99494SOL    HW2  315   9.061  11.822  12.401
99495SOL     OW  316  13.379   4.757   8.664
99495SOL    HW1  317  13.421   4.747   8.579
99495SOL    HW2  318  13.290   4.726   8.650
99496SOL     OW  319   4.470   9.248   4.388
99496SOL    HW1  320   4.565   9.242   4.384
99496SOL    HW2  321   4.441   9.222   4.300
99497SOL     OW  322  12.796   1.372   9.112
99497SOL    HW1  323  12.870   1.433   9.116
99497SOL    HW2  324  12.722   1.423   9.144
99498SOL     OW  325  14.314   7.226   6.030
99498SOL    HW1  326  14.242   7.277   5.994
99498SOL    HW2  327  14.308   7.239   6.125
99499SOL     OW  328  13.560   5.589   8.022
99499SOL    HW1  329  13.523   5.603   7.935
99499SOL    HW2  330  13.628   5.656   8.030
99500SOL     OW  331  10.715  12.636  11.388
99500SOL    HW1  332  10.680  12.596  11.468
99500SOL    HW2  333  10.809  12.626  11.396
99501SOL     OW  334   5.008   2.045  14.433
99501SOL    HW1  335   5.033   2.044  14.341
99501SOL    HW2  336   4.927   1.995  14.437
99502SOL     OW  337  10.140  14.212   2.515
99502SOL    HW1  338  10.173  14.141   2.459
99502SOL    HW2  339  10.075  14.169   2.571
99503SOL     OW  340   5.387   6.905   3.150
99503SOL    HW1  341   5.434   6.917   3.067
99503SOL    HW2  342   5.457   6.887   3.214
99504SOL     OW  343  12.696   6.319  13.319
99504SOL    HW1  344  12.786   6.287  13.318
99504SOL    HW2  345  12.644   6.244  13.350
99505SOL     OW  346  10.371   4.525   0.630
99505SOL    HW1  347  10.396   4.583   0.557
99505SOL    HW2  348  10.364   4.584   0.705
99506SOL     OW  349  14.470  12.832   4.686
99506SOL    HW1  350  14.439  12.923   4.696
99506SOL    HW2  351  14.412  12.781   4.744
99507SOL     OW  352   1.034  12.654   9.795
99507SOL    HW1  353   0.955  12.707   9.784
99507SOL    HW2  354   1.068  12.644   9.706
99508SOL     OW  355   4.917  12.554   7.128
99508SOL    HW1  356   4.848  12.520   7.185
99508SOL    HW2  357   4.925  12.646   7.152
99509SOL     OW  358   7.696   1.853  10.201
99509SOL    HW1  359   7.673   1.890  10.116
99509SOL    HW2  360   7.786   1.823  10.190
99510SOL     OW  361   1.335   7.115   2.752
99510SOL    HW1  362   1.320   7.137   2.660
99510SOL    HW2  363   1.400   7.045   2.750
99511SOL     OW  364   1.988  13.861   4.504
99511SOL    HW1  365   1.933  13.902   4.437
99511SOL    HW2  366   1.987  13.768   4.482
99512SOL     OW  367   4.347  11.322   7.719
99512SOL    HW1  368   4.266  11.365   7.745
99512SOL    HW2  369   4.415  11.388   7.733
99513SOL     OW  370  11.328   6.740   7.845
99513SOL    HW1  371  11.251   6.683   7.848
99513SOL    HW2  372  11.295   6.821   7.807
99514SOL     OW  373  14.488   9.506  10.441
99514SOL    HW1  374  14.548   9.565  10.396
99514SOL    HW2  375  14.433   9.470  10.371
99515SOL     OW  376  10.795   3.208   2.147
99515SOL    HW1  377  10.771   3.262   2.222
99515SOL    HW2  378  10.890   3.217   2.139
99516SOL     OW  379  10.109  12.245   8.389
99516SOL    HW1  380  10.071  12.158   8.383
99516SOL    HW2  381  10.095  12.271   8.480
99517SOL     OW  382   2.953   7.494   3.004
99517SOL    HW1  383   2.910   7.418   2.963
99517SOL    HW2  384   3.033   7.506   2.953
99518SOL     OW  385   5.551   4.936   0.607
99518SOL    HW1  386   5.620   4.901   0.550
99518SOL    HW2  387   5.530   5.022   0.570
99519SOL     OW  388   3.500   6.730  13.163
99519SOL    HW1  389   3.496   6.722  13.258
99519SOL    HW2  390   3.574   6.675  13.137
99520SOL     OW  391   1.219  10.917   1.161
99520SOL    HW1  392   1.237  11.007   1.133
99520SOL    HW2  393   1.303  10.872   1.151
99521SOL     OW  394   8.296   2.083  10.447
99521SOL    HW1  395   8.340   2.021  10.505
99521SOL    HW2  396   8.350   2.162  10.450
99522SOL     OW  397   1.882  11.057  14.647
99522SOL    HW1  398   1.966  11.102  14.635
99522SOL    HW2  399   1.829  11.119  14.696
99523SOL     OW  400   9.714   1.623   9.388
99523SOL    HW1  401   9.700   1.566   9.312
99523SOL    HW2  402   9.639   1.608   9.444
99524SOL     OW  403  12.182   7.074   5.960
99524SOL    HW1  404  12.230   7.004   6.004
99524SOL    HW2  405  12.121   7.030   5.902
99525SOL     OW  406  12.034   0.144   9.686
99525SOL    HW1  407  11.999   0.172   9.771
99525SOL    HW2  408  12.083   0.064   9.705
99526SOL     OW  409   7.807  10.662  13.207
99526SOL    HW1  410   7.730  10.610  13.229
99526SOL    HW2  411   7.846  10.617  13.132
99527SOL     OW  412   6.150   7.548   8.367
99527SOL    HW1  413   6.108   7.602   8.433
99527SOL    HW2  414   6.092   7.552   8.291
99528SOL     OW  415   7.110   1.909   1.316
99528SOL    HW1  416   7.179   1.862   1.269
99528SOL    HW2  417   7.032   1.854   1.307
99529SOL     OW  418   0.885  14.573   2.565
99529SOL    HW1  419   0.963  14.553   2.617
99529SOL    HW2  420   0.879  14.669   2.567
99530SOL     OW  421   9.361  11.568   1.660
99530SOL    HW1  422   9.456  11.556   1.670
99530SOL    HW2  423   9.348  11.581   1.566
99531SOL     OW  424   0.223   0.439   2.977
99531SOL    HW1  425   0.258   0.497   3.044
99531SOL    HW2  426   0.153   0.390   3.021
99532SOL     OW  427   2.085  13.568   9.236
99532SOL    HW1  428   2.164  13.526   9.269
99532SOL    HW2  429   2.061  13.631   9.305
99533SOL     OW  430   2.893  12.862  11.331
99533SOL    HW1  431   2.919  12.865  11.239
99533SOL    HW2  432   2.807  12.905  11.332
99534SOL     OW  433   2.192   1.188   8.033
99534SOL    HW1  434   2.239   1.143   8.104
99534SOL    HW2  435   2.108   1.143   8.028
99535SOL     OW  436  13.661  11.806   0.892
99535SOL    HW1  437  13.713  11.772   0.819
99535SOL    HW2  438  13.578  11.832   0.853
99536SOL     OW  439  10.689  14.752   7.530
99536SOL    HW1  440  10.618  14.752   7.595
99536SOL    HW2  441  10.644  14.743   7.446
99537SOL     OW  442   5.016   0.102   0.947
99537SOL    HW1  443   5.020   0.110   0.852
99537SOL    HW2  444   4.969   0.020   0.963
99538SOL     OW  445   5.601   4.623   3.947
99538SOL    HW1  446   5.530   4.617   3.883
99538SOL    HW2  447   5.602   4.715   3.974
99539SOL     OW  448   8.846   7.525   5.829
99539SOL    HW1  449   8.795   7.578   5.768
99539SOL    HW2  450   8.895   7.589   5.880
99540SOL     OW  451  10.049   0.953   1.637
99540SOL    HW1  452  10.019   0.945   1.727
99540SOL    HW2  453  10.117   1.019   1.640
99541SOL     OW  454  10.301   6.589   4.343
99541SOL    HW1  455  10.351   6.590   4.426
99541SOL    HW2  456  10.361   6.628   4.279
99542SOL     OW  457   8.172  11.537   5.459
99542SOL    HW1  458   8.100  11.598   5.476
99542SOL    HW2  459   8.168  11.475   5.532
99543SOL     OW  460   1.103   1.208   6.097
99543SOL    HW1  461   1.195   1.226   6.082
99543SOL    HW2  462   1.089   1.227   6.190
99544SOL     OW  463  12.381  10.485  11.490
99544SOL    HW1  464  12.475  10.468  11.493
99544SOL    HW2  465  12.372  10.578  11.513
99545SOL     OW  466  13.352   8.409   6.757
99545SOL    HW1  467  13.279   8.427   6.698
99545SOL    HW2  468  13.378   8.320   6.735
99546SOL     OW  469   0.111  10.853  10.597
99546SOL    HW1  470   0.186  10.810  10.554
99546SOL    HW2  471   0.063  10.894  10.525
99547SOL     OW  472   0.897   8.079   8.433
99547SOL    HW1  473   0.952   8.032   8.496
99547SOL    HW2  474   0.868   8.012   8.371
99548SOL     OW  475   5.788  10.575   2.168
99548SOL    HW1  476   5.831  10.627   2.100
99548SOL    HW2  477   5.758  10.639   2.232
99549SOL     OW  478   0.236   7.597  11.633
99549SOL    HW1  479   0.216   7.516  11.586
99549SOL    HW2  480   0.315   7.630  11.591
99550SOL     OW  481  14.651   9.496  11.213
99550SOL    HW1  482  14.576   9.550  11.189
99550SOL    HW2  483  14.679   9.455  11.131
99551SOL     OW  484  13.025   6.220   0.916
99551SOL    HW1  485  13.096   6.257   0.865
99551SOL    HW2  486  13.026   6.268   0.998
99552SOL     OW  487  13.518   3.676   4.028
99552SOL    HW1  488  13.459   3.641   3.961
99552SOL    HW2  489  13.496   3.627   4.108
99553SOL     OW  490   9.274  10.479   3.145
99553SOL    HW1  491   9.287  10.507   3.236
99553SOL    HW2  492   9.252  10.386   3.152
99554SOL     OW  493   2.165  12.179  11.919
99554SOL    HW1  494   2.085  12.186  11.866
99554SOL    HW2  495   2.134  12.156  12.006
99555SOL     OW  496   4.664   6.358  10.250
99555SOL    HW1  497   4.668   6.453  10.258
99555SOL    HW2  498   4.747   6.334  10.207
99556SOL     OW  499   1.537  12.745   4.510
99556SOL    HW1  500   1.488  12.826   4.497
99556SOL    HW2  501   1.479  12.689   4.562
99557SOL     OW  502   9.713   0.119  12.320
99557SOL    HW1  503   9.624   0.131  12.353
99557SOL    HW2  504   9.755   0.204  12.332
99558SOL     OW  505  13.644   2.636   6.539
99558SOL    HW1  506  13.697   2.612   6.616
99558SOL    HW2  507  13.564   2.674   6.576
99559SOL     OW  508   9.524  10.567   0.797
99559SOL    HW1  509   9.524  10.660   0.819
99559SOL    HW2  510   9.435  10.537   0.818
99560SOL     OW  511   4.983  14.155  13.047
99560SOL    HW1  512   5.058  14.120  13.096
99560SOL    HW2  513   4.908  14.104  13.079
99561SOL     OW  514   2.594  10.406  14.369
99561SOL    HW1  515   2.503  10.395  14.396
99561SOL    HW2  516   2.601  10.498  14.345
99562SOL     OW  517   4.812   2.064   2.277
99562SOL    HW1  518   4.878   2.123   2.312
99562SOL    HW2  519   4.807   1.993   2.341
99563SOL     OW  520   1.480   3.322   0.269
99563SOL    HW1  521   1.539   3.264   0.316
99563SOL    HW2  522   1.407   3.266   0.242
99564SOL     OW  523   8.241  12.694   1.196
99564SOL    HW1  524   8.176  12.692   1.126
99564SOL    HW2  525   8.203  12.641   1.266
99565SOL     OW  526   2.340   3.096  11.248
99565SOL    HW1  527   2.368   3.170  11.302
99565SOL    HW2  528   2.361   3.122  11.159
99566SOL     OW  529   8.326  14.831   3.101
99566SOL    HW1  530   8.262  14.781   3.050
99566SOL    HW2  531   8.410  14.790   3.083
99567SOL     OW  532   1.328   0.679   4.716
99567SOL    HW1  533   1.263   0.623   4.673
99567SOL    HW2  534   1.359   0.737   4.647
99568SOL     OW  535  10.055   0.511   4.635
99568SOL    HW1  536   9.976   0.482   4.682
99568SOL    HW2  537  10.113   0.435   4.639
99569SOL     OW  538  12.930  11.555   9.537
99569SOL    HW1  539  13.015  11.598   9.545
99569SOL    HW2  540  12.952  11.463   9.522
99570SOL     OW  541  11.488   2.932  10.570
99570SOL    HW1  542  11.424   2.962  10.506
99570SOL    HW2  543  11.540   3.010  10.590
99571SOL     OW  544   5.599   5.248   1.128
99571SOL    HW1  545   5.624   5.333   1.163
99571SOL    HW2  546   5.617   5.186   1.198
99572SOL     OW  547   5.972   3.994   2.573
99572SOL    HW1  548   5.882   4.002   2.605
99572SOL    HW2  549   6.024   3.972   2.650
99573SOL     OW  550  10.847  14.866  10.736
99573SOL    HW1  551  10.887   0.070  10.745
99573SOL    HW2  552  10.761   0.001  10.698
99574SOL     OW  553   5.216   0.246   5.546
99574SOL    HW1  554   5.185   0.192   5.473
99574SOL    HW2  555   5.168   0.213   5.622
99575SOL     OW  556  12.711   4.447   8.932
99575SOL    HW1  557  12.718   4.539   8.910
99575SOL    HW2  558  12.623   4.437   8.968
99576SOL     OW  559   6.388   0.814   8.500
99576SOL    HW1  560   6.435   0.753   8.557
99576SOL    HW2  561   6.340   0.871   8.560
99577SOL     OW  562   2.444  14.196   4.464
99577SOL    HW1  563   2.424  14.133   4.394
99577SOL    HW2  564   2.526  14.164   4.503
99578SOL     OW  565   2.841   3.294  14.551
99578SOL    HW1  566   2.762   3.314  14.500
99578SOL    HW2  567   2.808   3.263  14.635
99579SOL     OW  568  14.445   3.494  14.466
99579SOL    HW1  569  14.473   3.427  14.404
99579SOL    HW2  570  14.469   3.460  14.552
99580SOL     OW  571  13.771   1.688   4.267
99580SOL    HW1  572  13.830   1.620   4.298
99580SOL    HW2  573  13.685   1.646   4.265
99581SOL     OW  574   5.320   9.288   3.347
99581SOL    HW1  575   5.356   9.315   3.431
99581SOL    HW2  576   5.356   9.349   3.283
99582SOL     OW  577   5.554  12.690  11.303
99582SOL    HW1  578   5.587  12.747  11.234
99582SOL    HW2  579   5.573  12.601  11.271
99583SOL     OW  580  13.292   5.497   3.510
99583SOL    HW1  581  13.372   5.504   3.563
99583SOL    HW2  582  13.221   5.518   3.570
99584SOL     OW  583   3.885  13.588   1.788
99584SOL    HW1  584   3.936  13.629   1.858
99584SOL    HW2  585   3.925  13.618   1.707
99585SOL     OW  586   7.843   4.569   8.443
99585SOL    HW1  587   7.784   4.634   8.481
99585SOL    HW2  588   7.809   4.485   8.475
99586SOL     OW  589  10.141   5.301  10.605
99586SOL    HW1  590  10.144   5.240  10.531
99586SOL    HW2  591  10.215   5.276  10.660
99587SOL     OW  592  14.810   1.328  12.423
99587SOL    HW1  593  14.716   1.334  12.407
99587SOL    HW2  594  14.834   1.415  12.457
99588SOL     OW  595  10.790  11.888  10.016
99588SOL    HW1  596  10.829  11.821   9.960
99588SOL    HW2  597  10.722  11.842  10.066
99589SOL     OW  598   5.103   1.474   0.336
99589SOL    HW1  599   5.050   1.482   0.257
99589SOL    HW2  600   5.047   1.425   0.397
99590SOL     OW  601  14.382  11.688  12.106
99590SOL    HW1  602  14.379  11.601  12.147
99590SOL    HW2  603  14.414  11.746  12.174
99591SOL     OW  604   3.435   6.998   4.368
99591SOL    HW1  605   3.343   6.977   4.382
99591SOL    HW2  606   3.449   6.985   4.274
99592SOL     OW  607   3.858   9.530  10.130
99592SOL    HW1  608   3.811   9.522  10.213
99592SOL    HW2  609   3.805   9.482  10.067
99593SOL     OW  610  11.261   0.604  14.392
99593SOL    HW1  611  11.264   0.631  14.484
99593SOL    HW2  612  11.175   0.563  14.383
99594SOL     OW  613   7.615   7.680   8.983
99594SOL    HW1  614   7.655   7.764   9.005
99594SOL    HW2  615   7.622   7.628   9.063
99595SOL     OW  616  12.783  12.360   7.319
99595SOL    HW1  617  12.857  12.419   7.307
99595SOL    HW2  618  12.730  12.402   7.387
99596SOL     OW  619  11.331  11.521   5.889
99596SOL    HW1  620  11.285  11.457   5.942
99596SOL    HW2  621  11.396  11.559   5.949
99597SOL     OW  622  10.822   8.317   4.792
99597SOL    HW1  623  10.898   8.259   4.787
99597SOL    HW2  624  10.755   8.274   4.739
99598SOL     OW  625  11.063  10.997   1.716
99598SOL    HW1  626  11.043  10.965   1.628
99598SOL    HW2  627  11.144  10.954   1.740
99599SOL     OW  628   8.099  10.721   8.373
99599SOL    HW1  629   8.108  10.668   8.452
99599SOL    HW2  630   8.032  10.676   8.321
99600SOL     OW  631   6.349   9.061   8.409
99600SOL    HW1  632   6.421   9.101   8.457
99600SOL    HW2  633   6.306   9.005   8.473
99601SOL     OW  634  13.869  11.130  10.379
99601SOL    HW1  635  13.799  11.087  10.330
99601SOL    HW2  636  13.831  11.213  10.407
99602SOL     OW  637   4.212  12.648   3.678
99602SOL    HW1  638   4.281  12.605   3.629
99602SOL    HW2  639   4.132  12.628   3.630
99603SOL     OW  640   0.219   8.834   4.742
99603SOL    HW1  641   0.175   8.795   4.817
99603SOL    HW2  642   0.310   8.805   4.750
99604SOL     OW  643   1.186   3.310  10.026
99604SOL    HW1  644   1.237   3.293  10.105
99604SOL    HW2  645   1.234   3.263   9.956
99605SOL     OW  646   3.700   9.861  10.952
99605SOL    HW1  647   3.622   9.828  10.908
99605SOL    HW2  648   3.769   9.857  10.885
99606SOL     OW  649  14.230   4.378  12.658
99606SOL    HW1  650  14.138   4.405  12.652
99606SOL    HW2  651  14.276   4.455  12.688
99607SOL     OW  652  12.935  12.064   6.900
99607SOL    HW1  653  12.864  12.025   6.951
99607SOL    HW2  654  12.981  12.120   6.962
99608SOL     OW  655   1.626   3.627  11.524
99608SOL    HW1  656   1.625   3.553  11.586
99608SOL    HW2  657   1.717   3.635  11.497
99609SOL     OW  658   3.751   7.726  12.481
99609SOL    HW1  659   3.711   7.723  12.567
99609SOL    HW2  660   3.809   7.803  12.484
99610SOL     OW  661   4.205   5.127   6.512
99610SOL    HW1  662   4.198   5.211   6.468
99610SOL    HW2  663   4.162   5.065   6.452
99611SOL     OW  664   2.431  11.854   2.741
99611SOL    HW1  665   2.350  11.901   2.721
99611SOL    HW2  666   2.453  11.882   2.829
99612SOL     OW  667   0.046   9.710   2.640
99612SOL    HW1  668   0.114   9.744   2.698
99612SOL    HW2  669   0.094   9.661   2.573
99613SOL     OW  670   0.952   6.991   0.815
99613SOL    HW1  671   0.881   7.054   0.803
99613SOL    HW2  672   1.004   6.998   0.735
99614SOL     OW  673   3.562   2.790  12.457
99614SOL    HW1  674   3.527   2.762  12.372
99614SOL    HW2  675   3.651   2.755  12.459
99615SOL     OW  676   9.751   4.304   7.807
99615SOL    HW1  677   9.838   4.338   7.788
99615SOL    HW2  678   9.694   4.381   7.801
99616SOL     OW  679   0.291   6.648  10.624
99616SOL    HW1  680   0.336   6.701  10.690
99616SOL    HW2  681   0.353   6.642  10.552
99617SOL     OW  682  13.500   6.240  12.415
99617SOL    HW1  683  13.412   6.203  12.409
99617SOL    HW2  684  13.546   6.180  12.474
99618SOL     OW  685   9.695  10.577   2.232
99618SOL    HW1  686   9.789  10.594   2.244
99618SOL    HW2  687   9.672  10.519   2.304
99619SOL     OW  688  10.011   3.940   3.633
99619SOL    HW1  689  10.027   3.994   3.711
99619SOL    HW2  690   9.959   3.867   3.665
99620SOL     OW  691  14.803  12.794   6.372
99620SOL    HW1  692  14.811  12.699   6.360
99620SOL    HW2  693  14.709  12.808   6.386
99621SOL     OW  694  10.084   4.069   5.346
99621SOL    HW1  695  10.178   4.051   5.346
99621SOL    HW2  696  10.073   4.137   5.279
99622SOL     OW  697   3.554   9.355   7.313
99622SOL    HW1  698   3.594   9.380   7.396
99622SOL    HW2  699   3.496   9.428   7.291
99623SOL     OW  700  14.210  13.789  11.787
99623SOL    HW1  701  14.201  13.704  11.831
99623SOL    HW2  702  14.272  13.837  11.841
99624SOL     OW  703  10.473   1.675   0.856
99624SOL    HW1  704  10.539   1.684   0.788
99624SOL    HW2  705  10.444   1.584   0.851
99625SOL     OW  706  13.073   3.224  12.573
99625SOL    HW1  707  12.984   3.252  12.594
99625SOL    HW2  708  13.061   3.150  12.513
99626SOL     OW  709   2.629   1.338   6.486
99626SOL    HW1  710   2.610   1.391   6.563
99626SOL    HW2  711   2.634   1.401   6.414
99627SOL     OW  712  13.121   3.918  11.430
99627SOL    HW1  713  13.108   3.859  11.356
99627SOL    HW2  714  13.138   4.003  11.391
99628SOL     OW  715   6.332   8.971   7.113
99628SOL    HW1  716   6.393   8.997   7.182
99628SOL    HW2  717   6.324   8.876   7.121
99629SOL     OW  718   2.060   3.158   9.348
99629SOL    HW1  719   1.984   3.136   9.295
99629SOL    HW2  720   2.120   3.084   9.336
99630SOL     OW  721  13.127  11.983   5.899
99630SOL    HW1  722  13.173  11.929   5.962
99630SOL    HW2  723  13.110  11.925   5.824
99631SOL     OW  724  14.362   3.051   2.021
99631SOL    HW1  725  14.421   2.976   2.025
99631SOL    HW2  726  14.349   3.067   1.928
99632SOL     OW  727  12.486  12.566   2.335
99632SOL    HW1  728  12.414  12.609   2.381
99632SOL    HW2  729  12.519  12.502   2.398
99633SOL     OW  730   6.364   8.039   0.912
99633SOL    HW1  731   6.309   8.010   0.839
99633SOL    HW2  732   6.447   8.063   0.871
99634SOL     OW  733   4.529  14.253   6.469
99634SOL    HW1  734   4.524  14.341   6.504
99634SOL    HW2  735   4.558  14.264   6.379
99635SOL     OW  736   1.152   8.507   0.503
99635SOL    HW1  737   1.073   8.453   0.509
99635SOL    HW2  738   1.157   8.531   0.410
99636SOL     OW  739   2.889   9.126   0.402
99636SOL    HW1  740   2.867   9.201   0.346
99636SOL    HW2  741   2.968   9.155   0.449
99637SOL     OW  742  14.024   6.338   2.223
99637SOL    HW1  743  14.030   6.419   2.173
99637SOL    HW2  744  14.092   6.346   2.290
99638SOL     OW  745   9.176  13.511   1.173
99638SOL    HW1  746   9.113  13.478   1.237
99638SOL    HW2  747   9.191  13.437   1.114
99639SOL     OW  748  13.465   9.353   7.884
99639SOL    HW1  749  13.460   9.260   7.903
99639SOL    HW2  750  13.437   9.361   7.793
99640SOL     OW  751   0.292  14.282   7.798
99640SOL    HW1  752   0.378  14.317   7.821
99640SOL    HW2  753   0.230  14.344   7.835
99641SOL     OW  754   3.770  12.495   7.898
99641SOL    HW1  755   3.821  12.545   7.962
99641SOL    HW2  756   3.701  12.453   7.950
99642SOL     OW  757   2.295  10.947   1.950
99642SOL    HW1  758   2.290  10.904   1.865
99642SOL    HW2  759   2.296  11.040   1.930
99643SOL     OW  760  13.695   4.540  12.790
99643SOL    HW1  761  13.677   4.567  12.700
99643SOL    HW2  762  13.767   4.596  12.819
99644SOL     OW  763  10.633  12.860  13.233
99644SOL    HW1  764  10.542  12.830  13.237
99644SOL    HW2  765  10.680  12.803  13.294
99645SOL     OW  766   1.575   3.288   6.793
99645SOL    HW1  767   1.531   3.205   6.810
99645SOL    HW2  768   1.646   3.291   6.858
99646SOL     OW  769   4.753   5.089   3.286
99646SOL    HW1  770   4.813   5.030   3.332
99646SOL    HW2  771   4.669   5.044   3.289
99647SOL     OW  772   2.755   1.717   8.774
99647SOL    HW1  773   2.701   1.697   8.850
99647SOL    HW2  774   2.725   1.802   8.743
99648SOL     OW  775   3.467   0.132  14.365
99648SOL    HW1  776   3.371   0.126  14.374
99648SOL    HW2  777   3.482   0.219  14.327
99649SOL     OW  778   2.846  11.289  11.848
99649SOL    HW1  779   2.845  11.245  11.763
99649SOL    HW2  780   2.844  11.383  11.827
99650SOL     OW  781   1.250   9.159  14.706
99650SOL    HW1  782   1.216   9.193  14.790
99650SOL    HW2  783   1.241   9.064  14.713
99651SOL     OW  784  11.344  13.409  13.616
99651SOL    HW1  785  11.286  13.389  13.688
99651SOL    HW2  786  11.379  13.496  13.637
99652SOL     OW  787   6.835  10.599   7.441
99652SOL    HW1  788   6.781  10.521   7.426
99652SOL    HW2  789   6.863  10.626   7.353
99653SOL     OW  790   1.348   0.421   0.979
99653SOL    HW1  791   1.413   0.354   1.000
99653SOL    HW2  792   1.348   0.479   1.055
99654SOL     OW  793   6.458   6.324  12.869
99654SOL    HW1  794   6.411   6.390  12.818
99654SOL    HW2  795   6.504   6.374  12.937
99655SOL     OW  796  11.656  11.343  10.552
99655SOL    HW1  797  11.579  11.380  10.510
99655SOL    HW2  798  11.712  11.418  10.573
99656SOL     OW  799  12.768   9.276   1.138
99656SOL    HW1  800  12.785   9.371   1.133
99656SOL    HW2  801  12.763   9.247   1.047
99657SOL     OW  802   6.310   8.222  12.183
99657SOL    HW1  803   6.255   8.299  12.167
99657SOL    HW2  804   6.371   8.221  12.110
99658SOL     OW  805   0.370   9.618   2.753
99658SOL    HW1  806   0.324   9.537   2.731
99658SOL    HW2  807   0.301   9.683   2.766
99659SOL     OW  808   9.356  11.243   6.622
99659SOL    HW1  809   9.400  11.221   6.704
99659SOL    HW2  810   9.263  11.246   6.645
99660SOL     OW  811  14.136   5.919  10.018
99660SOL    HW1  812  14.191   5.848  10.052
99660SOL    HW2  813  14.083   5.879   9.950
99661SOL     OW  814   4.589   6.483  13.507
99661SOL    HW1  815   4.566   6.399  13.546
99661SOL    HW2  816   4.575   6.470  13.413
99662SOL     OW  817   9.332   3.840  14.660
99662SOL    HW1  818   9.266   3.903  14.690
99662SOL    HW2  819   9.379   3.815  14.739
99663SOL     OW  820   1.737   0.524   0.363
99663SOL    HW1  821   1.651   0.520   0.405
99663SOL    HW2  822   1.748   0.616   0.338
99664SOL     OW  823   4.309  13.591   3.905
99664SOL    HW1  824   4.238  13.526   3.913
99664SOL    HW2  825   4.309  13.614   3.812
99665SOL     OW  826   5.368   5.861   7.867
99665SOL    HW1  827   5.338   5.777   7.900
99665SOL    HW2  828   5.341   5.861   7.775
99666SOL     OW  829   4.079   5.823   2.904
99666SOL    HW1  830   4.022   5.784   2.970
99666SOL    HW2  831   4.148   5.758   2.890
99667SOL     OW  832   7.232  10.312   9.571
99667SOL    HW1  833   7.283  10.233   9.550
99667SOL    HW2  834   7.290  10.362   9.629
99668SOL     OW  835   7.158  10.277   4.133
99668SOL    HW1  836   7.242  10.255   4.174
99668SOL    HW2  837   7.121  10.345   4.190
99669SOL     OW  838  13.609   1.295   2.346
99669SOL    HW1  839  13.687   1.245   2.324
99669SOL    HW2  840  13.571   1.319   2.262
99670SOL     OW  841   9.750  14.256   7.171
99670SOL    HW1  842   9.837  14.223   7.146
99670SOL    HW2  843   9.754  14.265   7.266
99671SOL     OW  844   6.077   8.011  12.664
99671SOL    HW1  845   6.057   7.918  12.651
99671SOL    HW2  846   6.023   8.037  12.739
99672SOL     OW  847  12.406  11.313   5.028
99672SOL    HW1  848  12.348  11.262   4.971
99672SOL    HW2  849  12.379  11.289   5.117
99673SOL     OW  850   3.608  10.894   9.952
99673SOL    HW1  851   3.659  10.963   9.910
99673SOL    HW2  852   3.673  10.828   9.977
99674SOL     OW  853   9.066   8.006  12.073
99674SOL    HW1  854   9.146   8.050  12.100
99674SOL    HW2  855   9.080   7.914  12.097
99675SOL     OW  856   1.940   4.308   6.107
99675SOL    HW1  857   1.873   4.272   6.048
99675SOL    HW2  858   1.904   4.294   6.195
99676SOL     OW  859   1.382  10.946   6.587
99676SOL    HW1  860   1.454  11.009   6.580
99676SOL    HW2  861   1.382  10.900   6.503
99677SOL     OW  862   2.327   0.613   6.541
99677SOL    HW1  863   2.294   0.544   6.599
99677SOL    HW2  864   2.354   0.683   6.600
99678SOL     OW  865  11.231   6.968   4.455
99678SOL    HW1  866  11.206   7.058   4.433
99678SOL    HW2  867  11.327   6.968   4.451
99679SOL     OW  868  11.309  10.731   1.027
99679SOL    HW1  869  11.396  10.744   1.065
99679SOL    HW2  870  11.253  10.706   1.102
99680SOL     OW  871  14.310  12.680   6.819
99680SOL    HW1  872  14.285  12.696   6.911
99680SOL    HW2  873  14.324  12.586   6.814
99681SOL     OW  874   8.908   6.081   6.153
99681SOL    HW1  875   8.845   6.043   6.214
99681SOL    HW2  876   8.977   6.016   6.146
99682SOL     OW  877  12.196  12.173   8.655
99682SOL    HW1  878  12.194  12.184   8.750
99682SOL    HW2  879  12.168  12.258   8.621
99683SOL     OW  880  10.142   0.491   1.965
99683SOL    HW1  881  10.098   0.411   1.995
99683SOL    HW2  882  10.215   0.503   2.026
99684SOL     OW  883   9.108  11.208   8.756
99684SOL    HW1  884   9.057  11.151   8.698
99684SOL    HW2  885   9.050  11.224   8.830
99685SOL     OW  886   4.610   4.961   3.575
99685SOL    HW1  887   4.620   4.909   3.655
99685SOL    HW2  888   4.693   5.006   3.564
99686SOL     OW  889  12.448   5.179   2.456
99686SOL    HW1  890  12.411   5.105   2.409
99686SOL    HW2  891  12.485   5.235   2.387
99687SOL     OW  892   5.483  14.380   6.400
99687SOL    HW1  893   5.418  14.310   6.405
99687SOL    HW2  894   5.437  14.453   6.359
99688SOL     OW  895   4.375  10.413   7.153
99688SOL    HW1  896   4.425  10.460   7.219
99688SOL    HW2  897   4.428  10.335   7.133
99689SOL     OW  898  11.067  14.063   9.725
99689SOL    HW1  899  11.077  14.140   9.670
99689SOL    HW2  900  11.069  13.989   9.665
99690SOL     OW  901   8.364   8.149   5.917
99690SOL    HW1  902   8.312   8.230   5.918
99690SOL    HW2  903   8.358   8.115   6.006
99691SOL     OW  904   1.905   6.194  11.534
99691SOL    HW1  905   1.933   6.285  11.542
99691SOL    HW2  906   1.856   6.177  11.615
99692SOL     OW  907  12.684  11.980   6.478
99692SOL    HW1  908  12.637  12.001   6.559
99692SOL    HW2  909  12.686  12.062   6.429
99693SOL     OW  910   2.244   5.906   1.606
99693SOL    HW1  911   2.166   5.952   1.638
99693SOL    HW2  912   2.254   5.832   1.666
99694SOL     OW  913  10.203   7.005   1.640
99694SOL    HW1  914  10.164   6.971   1.721
99694SOL    HW2  915  10.128   7.027   1.585
99695SOL     OW  916  11.166  14.470   6.690
99695SOL    HW1  917  11.102  14.463   6.760
99695SOL    HW2  918  11.210  14.554   6.707
99696SOL     OW  919   7.864   5.759   2.064
99696SOL    HW1  920   7.906   5.825   2.008
99696SOL    HW2  921   7.786   5.732   2.015
99697SOL     OW  922  10.198  14.086   1.827
99697SOL    HW1  923  10.105  14.094   1.851
99697SOL    HW2  924  10.212  14.154   1.761
99698SOL     OW  925  12.494  14.582   8.806
99698SOL    HW1  926  12.557  14.519   8.840
99698SOL    HW2  927  12.458  14.624   8.884
99699SOL     OW  928  11.363  12.016   6.091
99699SOL    HW1  929  11.327  11.927   6.100
99699SOL    HW2  930  11.429  12.022   6.160
99700SOL     OW  931  12.898   8.590   4.833
99700SOL    HW1  932  12.883   8.516   4.775
99700SOL    HW2  933  12.899   8.666   4.774
99701SOL     OW  934   2.257  10.671  10.050
99701SOL    HW1  935   2.263  10.734  10.122
99701SOL    HW2  936   2.283  10.588  10.090
99702SOL     OW  937  14.609   8.773   5.621
99702SOL    HW1  938  14.616   8.696   5.565
99702SOL    HW2  939  14.631   8.846   5.564
99703SOL     OW  940   0.947   9.996   5.721
99703SOL    HW1  941   0.863   9.993   5.767
99703SOL    HW2  942   0.924  10.002   5.629
99704SOL     OW  943   3.762   7.254   0.738
99704SOL    HW1  944   3.842   7.290   0.700
99704SOL    HW2  945   3.748   7.305   0.818
99705SOL     OW  946  12.585  13.612   8.222
99705SOL    HW1  947  12.548  13.664   8.152
99705SOL    HW2  948  12.511  13.561   8.256
99706SOL     OW  949   6.018   7.630   7.822
99706SOL    HW1  950   5.943   7.678   7.858
99706SOL    HW2  951   5.993   7.611   7.732
99707SOL     OW  952   7.849   8.501   1.264
99707SOL    HW1  953   7.932   8.523   1.220
99707SOL    HW2  954   7.781   8.530   1.203
99708SOL     OW  955   2.343   4.717  13.300
99708SOL    HW1  956   2.418   4.689  13.352
99708SOL    HW2  957   2.329   4.646  13.238
99709SOL     OW  958  12.887   6.014   8.637
99709SOL    HW1  959  12.955   5.949   8.620
99709SOL    HW2  960  12.866   6.002   8.730
99710SOL     OW  961   5.819  12.292   5.586
99710SOL    HW1  962   5.901  12.300   5.634
99710SOL    HW2  963   5.794  12.200   5.597
99711SOL     OW  964  13.054  14.164   1.652
99711SOL    HW1  965  12.979  14.206   1.694
99711SOL    HW2  966  13.056  14.199   1.563
99712SOL     OW  967  13.251  12.073  13.545
99712SOL    HW1  968  13.266  12.112  13.631
99712SOL    HW2  969  13.165  12.106  13.519
99713SOL     OW  970   5.403  14.603  11.069
99713SOL    HW1  971   5.479  14.653  11.097
99713SOL    HW2  972   5.360  14.577  11.150
99714SOL     OW  973  10.603   5.316   9.002
99714SOL    HW1  974  10.575   5.407   8.990
99714SOL    HW2  975  10.543   5.265   8.948
99715SOL     OW  976  13.010   1.847   2.917
99715SOL    HW1  977  12.992   1.820   2.827
99715SOL    HW2  978  12.931   1.896   2.943
99716SOL     OW  979  12.683   3.808  13.974
99716SOL    HW1  980  12.727   3.788  13.891
99716SOL    HW2  981  12.593   3.780  13.960
99717SOL     OW  982   8.902   0.698   1.831
99717SOL    HW1  983   8.899   0.687   1.736
99717SOL    HW2  984   8.881   0.612   1.866
99718SOL     OW  985   3.178  11.617   3.290
99718SOL    HW1  986   3.271  11.597   3.298
99718SOL    HW2  987   3.164  11.691   3.349
99719SOL     OW  988   5.399   0.664  11.115
99719SOL    HW1  989   5.494   0.654  11.126
99719SOL    HW2  990   5.365   0.662  11.204
99720SOL     OW  991   5.062   3.854   1.937
99720SOL    HW1  992   5.077   3.796   2.012
99720SOL    HW2  993   5.033   3.936   1.976
99721SOL     OW  994   0.235   9.851   2.812
99721SOL    HW1  995   0.325   9.866   2.841
99721SOL    HW2  996   0.206   9.936   2.779
99722SOL     OW  997  14.336  13.303   8.271
99722SOL    HW1  998  14.318  13.230   8.331
99722SOL    HW2  999  14.279  13.287   8.196
99723SOL     OW 1000   2.966   0.165   8.380
99723SOL    HW1 1001   3.016   0.158   8.298
99723SOL    HW2 1002   2.992   0.088   8.431
99724SOL     OW 1003   0.482   2.456   9.039
99724SOL    HW1 1004   0.422   2.451   9.113
99724SOL    HW2 1005   0.565   2.421   9.073
99725SOL     OW 1006  11.678   8.709   1.606
99725SOL    HW1 1007  11.762   8.711   1.560
99725SOL    HW2 1008  11.651   8.617   1.600
99726SOL     OW 1009  13.822   2.556   6.361
99726SOL    HW1 1010  13.773   2.577   6.440
99726SOL    HW2 1011  13.755   2.550   6.293
99727SOL     OW 1012   7.415   6.557  12.006
99727SOL    HW1 1013   7.465   6.520  12.079
99727SOL    HW2 1014   7.481   6.584  11.943
99728SOL     OW 1015  11.789   0.864   3.615
99728SOL    HW1 1016  11.701   0.868   3.653
99728SOL    HW2 1017  11.776   0.826   3.528
99729SOL     OW 1018   0.111   9.770   5.281
99729SOL    HW1 1019   0.142   9.684   5.250
99729SOL    HW2 1020   0.066   9.807   5.205
99730SOL     OW 1021  12.741  14.660  14.069
99730SOL    HW1 1022  12.774  14.683  13.983
99730SOL    HW2 1023  12.788  14.580  14.094
99731SOL     OW 1024   1.760   3.169   9.646
99731SOL    HW1 1025   1.672   3.151   9.613
99731SOL    HW2 1026   1.759   3.135   9.736
99732SOL     OW 1027   6.632   0.567   6.110
99732SOL    HW1 1028   6.704   0.504   6.108
99732SOL    HW2 1029   6.674   0.652   6.104
99733SOL     OW 1030   6.723  11.394   3.042
99733SOL    HW1 1031   6.717  11.300   3.055
99733SOL    HW2 1032   6.724  11.430   3.131
99734SOL     OW 1033  13.466  12.181  13.103
99734SOL    HW1 1034  13.480  12.124  13.179
99734SOL    HW2 1035  13.552  12.221  13.088
99735SOL     OW 1036   8.624   8.155   9.537
99735SOL    HW1 1037   8.604   8.199   9.454
99735SOL    HW2 1038   8.606   8.221   9.604
99736SOL     OW 1039   2.691  10.844   3.620
99736SOL    HW1 1040   2.651  10.782   3.558
99736SOL    HW2 1041   2.680  10.929   3.579
99737SOL     OW 1042   4.034   5.627  10.846
99737SOL    HW1 1043   4.121   5.599  10.816
99737SOL    HW2 1044   4.011   5.564  10.914
99738SOL     OW 1045  13.476   7.233   4.829
99738SOL    HW1 1046  13.488   7.327   4.841
99738SOL    HW2 1047  13.561   7.194   4.850
99739SOL     OW 1048   5.470  12.744   0.929
99739SOL    HW1 1049   5.529  12.798   0.876
99739SOL    HW2 1050   5.510  12.657   0.928
99740SOL     OW 1051  13.535   0.250   0.240
99740SOL    HW1 1052  13.566   0.334   0.206
99740SOL    HW2 1053  13.595   0.185   0.205
99741SOL     OW 1054   5.577  13.600   2.739
99741SOL    HW1 1055   5.595  13.534   2.806
99741SOL    HW2 1056   5.565  13.681   2.788
99742SOL     OW 1057  14.263  11.154   6.587
99742SOL    HW1 1058  14.191  11.111   6.633
99742SOL    HW2 1059  14.328  11.086   6.574
99743SOL     OW 1060   5.417   0.846   5.900
99743SOL    HW1 1061   5.371   0.872   5.820
99743SOL    HW2 1062   5.488   0.910   5.908
99744SOL     OW 1063   2.667  11.750   6.385
99744SOL    HW1 1064   2.736  11.759   6.451
99744SOL    HW2 1065   2.669  11.658   6.360
99745SOL     OW 1066   4.965   6.085   0.908
99745SOL    HW1 1067   4.952   6.135   0.828
99745SOL    HW2 1068   5.052   6.111   0.939
99746SOL     OW 1069  11.538   5.483   4.268
99746SOL    HW1 1070  11.607   5.453   4.209
99746SOL    HW2 1071  11.525   5.409   4.328
99747SOL     OW 1072  13.706  10.218   1.731
99747SOL    HW1 1073  13.740  10.291   1.679
99747SOL    HW2 1074  13.613  10.235   1.740
99748SOL     OW 1075   2.637  14.058   8.575
99748SOL    HW1 1076   2.630  14.013   8.659
99748SOL    HW2 1077   2.547  14.060   8.541
99749SOL     OW 1078  12.816  13.615   6.503
99749SOL    HW1 1079  12.810  13.706   6.475
99749SOL    HW2 1080  12.817  13.565   6.422
99750SOL     OW 1081   8.609  11.908  13.768
99750SOL    HW1 1082   8.542  11.892  13.835
99750SOL    HW2 1083   8.637  11.998  13.782
99751SOL     OW 1084  14.184   5.780   8.988
99751SOL    HW1 1085  14.167   5.873   8.973
99751SOL    HW2 1086  14.097   5.740   8.988
99752SOL     OW 1087   8.918   0.349   8.281
99752SOL    HW1 1088   8.856   0.411   8.242
99752SOL    HW2 1089   8.995   0.403   8.302
99753SOL     OW 1090   3.740   3.723   5.873
99753SOL    HW1 1091   3.667   3.763   5.825
99753SOL    HW2 1092   3.716   3.732   5.965
99754SOL     OW 1093   7.159  14.680   2.854
99754SOL    HW1 1094   7.143  14.736   2.930
99754SOL    HW2 1095   7.077  14.683   2.805
99755SOL     OW 1096   3.323   3.850   1.342
99755SOL    HW1 1097   3.305   3.920   1.405
99755SOL    HW2 1098   3.249   3.790   1.351
99756SOL     OW 1099  13.464   5.303   8.123
99756SOL    HW1 1100  13.445   5.239   8.054
99756SOL    HW2 1101  13.484   5.384   8.076
99757SOL     OW 1102   1.615  10.152   7.789
99757SOL    HW1 1103   1.628  10.185   7.700
99757SOL    HW2 1104   1.608  10.057   7.778
99758SOL     OW 1105   2.933   8.101  11.492
99758SOL    HW1 1106   2.895   8.158  11.559
99758SOL    HW2 1107   2.993   8.045  11.540
99759SOL     OW 1108   6.128   8.323   4.913
99759SOL    HW1 1109   6.109   8.232   4.893
99759SOL    HW2 1110   6.206   8.344   4.862
99760SOL     OW 1111   6.931   4.822  10.675
99760SOL    HW1 1112   7.018   4.861  10.685
99760SOL    HW2 1113   6.928   4.753  10.741
99761SOL     OW 1114   7.698   5.671   3.206
99761SOL    HW1 1115   7.643   5.675   3.284
99761SOL    HW2 1116   7.756   5.746   3.213
99762SOL     OW 1117   5.106   3.223  14.009
99762SOL    HW1 1118   5.040   3.160  13.979
99762SOL    HW2 1119   5.131   3.271  13.930
99763SOL     OW 1120  13.245   7.863   9.672
99763SOL    HW1 1121  13.174   7.920   9.644
99763SOL    HW2 1122  13.257   7.883   9.765
99764SOL     OW 1123  12.717   2.854  10.042
99764SOL    HW1 1124  12.676   2.848   9.955
99764SOL    HW2 1125  12.795   2.799  10.035
99765SOL     OW 1126   1.164   9.608   9.473
99765SOL    HW1 1127   1.221   9.577   9.403
99765SOL    HW2 1128   1.076   9.578   9.447
99766SOL     OW 1129  11.414   1.559   2.074
99766SOL    HW1 1130  11.504   1.544   2.103
99766SOL    HW2 1131  11.423   1.606   1.991
99767SOL     OW 1132   0.480   5.521  11.825
99767SOL    HW1 1133   0.436   5.449  11.870
99767SOL    HW2 1134   0.438   5.525  11.739
99768SOL     OW 1135   6.096   7.487   0.690
99768SOL    HW1 1136   6.139   7.484   0.776
99768SOL    HW2 1137   6.012   7.445   0.704
99769SOL     OW 1138   7.748   8.102   8.273
99769SOL    HW1 1139   7.689   8.176   8.287
99769SOL    HW2 1140   7.817   8.114   8.338
99770SOL     OW 1141   8.319   3.403  13.278
99770SOL    HW1 1142   8.315   3.486  13.325
99770SOL    HW2 1143   8.409   3.398  13.246
99771SOL     OW 1144   2.315   3.990   8.210
99771SOL    HW1 1145   2.332   4.012   8.301
99771SOL    HW2 1146   2.358   4.060   8.160
99772SOL     OW 1147   3.892   2.215  14.012
99772SOL    HW1 1148   3.806   2.230  13.972
99772SOL    HW2 1149   3.882   2.133  14.061
99773SOL     OW 1150  14.373   3.492   3.195
99773SOL    HW1 1151  14.314   3.418   3.211
99773SOL    HW2 1152  14.335   3.564   3.245
99774SOL     OW 1153   2.953   6.036   7.752
99774SOL    HW1 1154   2.923   6.009   7.665
99774SOL    HW2 1155   2.990   6.123   7.738
99775SOL     OW 1156  13.905   7.126  10.771
99775SOL    HW1 1157  13.938   7.153  10.857
99775SOL    HW2 1158  13.947   7.041  10.756
99776SOL     OW 1159   8.728   8.972   0.790
99776SOL    HW1 1160   8.724   9.052   0.842
99776SOL    HW2 1161   8.645   8.968   0.744
99777SOL     OW 1162  13.215  11.269   2.629
99777SOL    HW1 1163  13.259  11.278   2.545
99777SOL    HW2 1164  13.244  11.346   2.679
99778SOL     OW 1165  13.088   5.615   7.327
99778SOL    HW1 1166  13.115   5.564   7.403
99778SOL    HW2 1167  13.016   5.670   7.359
99779SOL     OW 1168  11.457  11.784  10.502
99779SOL    HW1 1169  11.440  11.691  10.487
99779SOL    HW2 1170  11.497  11.787  10.589
99780SOL     OW 1171   8.336  12.056  14.789
99780SOL    HW1 1172   8.432  12.060  14.782
99780SOL    HW2 1173   8.313  12.124  14.852
99781SOL     OW 1174   3.078  10.014   2.316
99781SOL    HW1 1175   2.985  10.032   2.303
99781SOL    HW2 1176   3.090   9.924   2.287
99782SOL     OW 1177  14.765   3.530  14.269
99782SOL    HW1 1178  14.786   3.445  14.308
99782SOL    HW2 1179  14.850   3.574  14.262
99783SOL     OW 1180  10.462   3.482  12.772
99783SOL    HW1 1181  10.531   3.529  12.726
99783SOL    HW2 1182  10.493   3.473  12.862
99784SOL     OW 1183   1.178   8.210  11.710
99784SOL    HW1 1184   1.193   8.116  11.725
99784SOL    HW2 1185   1.261   8.251  11.732
99785SOL     OW 1186  10.531   9.860   5.715
99785SOL    HW1 1187  10.563   9.872   5.626
99785SOL    HW2 1188  10.445   9.819   5.705
99786SOL     OW 1189   1.184   6.448   1.899
99786SOL    HW1 1190   1.272   6.411   1.900
99786SOL    HW2 1191   1.179   6.495   1.816
99787SOL     OW 1192   2.900  12.394   5.824
99787SOL    HW1 1193   2.851  12.355   5.897
99787SOL    HW2 1194   2.832  12.435   5.769
99788SOL     OW 1195   8.102  12.391  13.476
99788SOL    HW1 1196   8.152  12.400  13.557
99788SOL    HW2 1197   8.140  12.315  13.433
99789SOL     OW 1198   2.967   2.142   4.468
99789SOL    HW1 1199   2.949   2.107   4.381
99789SOL    HW2 1200   2.886   2.186   4.494
99790SOL     OW 1201   0.185  12.561  10.731
99790SOL    HW1 1202   0.131  12.640  10.735
99790SOL    HW2 1203   0.223  12.554  10.819
99791SOL     OW 1204   4.369   7.410   8.043
99791SOL    HW1 1205   4.434   7.458   7.991
99791SOL    HW2 1206   4.289   7.413   7.991
99792SOL     OW 1207   2.312   2.660   8.892
99792SOL    HW1 1208   2.307   2.746   8.932
99792SOL    HW2 1209   2.405   2.637   8.895
99793SOL     OW 1210   0.599   6.821   4.115
99793SOL    HW1 1211   0.663   6.781   4.173
99793SOL    HW2 1212   0.545   6.748   4.086
99794SOL     OW 1213   5.239  13.290   9.229
99794SOL    HW1 1214   5.315  13.330   9.270
99794SOL    HW2 1215   5.201  13.360   9.175
99795SOL     OW 1216  10.883   1.247  11.045
99795SOL    HW1 1217  10.959   1.300  11.022
99795SOL    HW2 1218  10.812   1.310  11.056
99796SOL     OW 1219  11.600   4.094   2.841
99796SOL    HW1 1220  11.659   4.132   2.775
99796SOL    HW2 1221  11.581   4.167   2.900
99797SOL     OW 1222   1.897   3.863  12.894
99797SOL    HW1 1223   1.876   3.770  12.887
99797SOL    HW2 1224   1.989   3.866  12.920
99798SOL     OW 1225   8.884   0.548  11.757
99798SOL    HW1 1226   8.852   0.637  11.771
99798SOL    HW2 1227   8.938   0.529  11.834
99799SOL     OW 1228  13.260   3.003   6.844
99799SOL    HW1 1229  13.252   3.066   6.915
99799SOL    HW2 1230  13.303   3.052   6.774
99800SOL     OW 1231   9.072   7.666   7.339
99800SOL    HW1 1232   8.982   7.681   7.311
99800SOL    HW2 1233   9.117   7.634   7.261
99801SOL     OW 1234  11.605  11.618   9.760
99801SOL    HW1 1235  11.521  11.643   9.799
99801SOL    HW2 1236  11.663  11.604   9.835
99802SOL     OW 1237  10.225   2.150   9.107
99802SOL    HW1 1238  10.310   2.116   9.135
99802SOL    HW2 1239  10.232   2.154   9.011
99803SOL     OW 1240   0.520   2.351  10.135
99803SOL    HW1 1241   0.520   2.267  10.182
99803SOL    HW2 1242   0.568   2.410  10.193
99804SOL     OW 1243   6.652   9.511   7.621
99804SOL    HW1 1244   6.730   9.455   7.623
99804SOL    HW2 1245   6.660   9.560   7.540
99805SOL     OW 1246   5.211   7.318   2.644
99805SOL    HW1 1247   5.248   7.375   2.577
99805SOL    HW2 1248   5.278   7.315   2.713
99806SOL     OW 1249   8.473   6.545  11.511
99806SOL    HW1 1250   8.530   6.546  11.588
99806SOL    HW2 1251   8.512   6.610  11.452
99807SOL     OW 1252  10.565  11.393  12.417
99807SOL    HW1 1253  10.568  11.305  12.453
99807SOL    HW2 1254  10.527  11.447  12.486
99808SOL     OW 1255   4.871   4.186  10.299
99808SOL    HW1 1256   4.950   4.154  10.343
99808SOL    HW2 1257   4.898   4.268  10.258
99809SOL     OW 1258  12.716   9.060   7.139
99809SOL    HW1 1259  12.687   8.993   7.201
99809SOL    HW2 1260  12.775   9.014   7.079
99810SOL     OW 1261   4.753   1.180  14.048
99810SOL    HW1 1262   4.825   1.217  13.997
99810SOL    HW2 1263   4.685   1.247  14.046
99811SOL     OW 1264   8.307   3.103   8.586
99811SOL    HW1 1265   8.283   3.026   8.637
99811SOL    HW2 1266   8.352   3.068   8.510
99812SOL     OW 1267   5.625  11.039  14.706
99812SOL    HW1 1268   5.624  11.134  14.702
99812SOL    HW2 1269   5.718  11.015  14.702
99813SOL     OW 1270  14.102   7.376   3.618
99813SOL    HW1 1271  14.031   7.338   3.566
99813SOL    HW2 1272  14.180   7.328   3.592
99814SOL     OW 1273  13.096  12.047   8.089
99814SOL    HW1 1274  13.140  12.015   8.010
99814SOL    HW2 1275  13.162  12.043   8.157
99815SOL     OW 1276   4.024  11.559   5.301
99815SOL    HW1 1277   4.037  11.555   5.206
99815SOL    HW2 1278   3.966  11.635   5.314
99816SOL     OW 1279  11.250   9.062  11.470
99816SOL    HW1 1280  11.312   9.090  11.403
99816SOL    HW2 1281  11.171   9.115  11.452
99817SOL     OW 1282  14.434  13.770  14.565
99817SOL    HW1 1283  14.522  13.757  14.528
99817SOL    HW2 1284  14.440  13.732  14.653
99818SOL     OW 1285  10.729   8.482  10.846
99818SOL    HW1 1286  10.701   8.401  10.803
99818SOL    HW2 1287  10.823   8.471  10.858
99819SOL     OW 1288  12.891   1.376  11.972
99819SOL    HW1 1289  12.930   1.381  12.059
99819SOL    HW2 1290  12.963   1.398  11.913
99820SOL     OW 1291  10.943   1.868   1.298
99820SOL    HW1 1292  10.943   1.901   1.208
99820SOL    HW2 1293  10.899   1.783   1.293
99821SOL     OW 1294   5.312   2.618  10.342
99821SOL    HW1 1295   5.329   2.571  10.423
99821SOL    HW2 1296   5.227   2.585  10.313
99822SOL     OW 1297   2.761  11.430   4.862
99822SOL    HW1 1298   2.833  11.490   4.843
99822SOL    HW2 1299   2.779  11.354   4.808
99823SOL     OW 1300  11.936   0.957  11.543
99823SOL    HW1 1301  11.942   0.996  11.456
99823SOL    HW2 1302  11.910   0.867  11.527
99824SOL     OW 1303   7.499   6.557  14.586
99824SOL    HW1 1304   7.424   6.617  14.593
99824SOL    HW2 1305   7.557   6.583  14.657
99825SOL     OW 1306   1.586  12.110   9.710
99825SOL    HW1 1307   1.516  12.068   9.660
99825SOL    HW2 1308   1.647  12.039   9.730
99826SOL     OW 1309   9.266   6.731   2.036
99826SOL    HW1 1310   9.173   6.740   2.015
99826SOL    HW2 1311   9.285   6.638   2.022
99827SOL     OW 1312   2.650  10.918   8.272
99827SOL    HW1 1313   2.635  10.942   8.364
99827SOL    HW2 1314   2.592  10.976   8.222
99828SOL     OW 1315   9.819   3.407   0.157
99828SOL    HW1 1316   9.788   3.401   0.248
99828SOL    HW2 1317   9.853   3.496   0.149
99829SOL     OW 1318  13.924  10.133   0.861
99829SOL    HW1 1319  13.849  10.074   0.873
99829SOL    HW2 1320  13.900  10.187   0.786
99830SOL     OW 1321  10.943   1.886   7.018
99830SOL    HW1 1322  10.973   1.950   6.953
99830SOL    HW2 1323  10.971   1.801   6.982
99831SOL     OW 1324   7.542   1.077  13.480
99831SOL    HW1 1325   7.527   1.080  13.575
99831SOL    HW2 1326   7.522   0.987  13.455
99832SOL     OW 1327   0.547  14.769   9.518
99832SOL    HW1 1328   0.531  14.812   9.603
99832SOL    HW2 1329   0.633  14.728   9.528
99833SOL     OW 1330   3.679   3.219  12.885
99833SOL    HW1 1331   3.641   3.307  12.892
99833SOL    HW2 1332   3.609   3.161  12.916
99834SOL     OW 1333  11.700  11.933  13.631
99834SOL    HW1 1334  11.605  11.946  13.640
99834SOL    HW2 1335  11.711  11.903  13.541
99835SOL     OW 1336   5.006   6.618  11.173
99835SOL    HW1 1337   5.024   6.637  11.265
99835SOL    HW2 1338   5.000   6.522  11.169
99836SOL     OW 1339   1.459   2.682   3.000
99836SOL    HW1 1340   1.397   2.717   2.936
99836SOL    HW2 1341   1.404   2.641   3.067
99837SOL     OW 1342   4.276  12.935   2.605
99837SOL    HW1 1343   4.328  12.858   2.583
99837SOL    HW2 1344   4.320  12.973   2.681
99838SOL     OW 1345  13.366  11.970   5.593
99838SOL    HW1 1346  13.425  11.946   5.522
99838SOL    HW2 1347  13.407  12.046   5.634
99839SOL     OW 1348  10.131   8.535  14.583
99839SOL    HW1 1349  10.191   8.464  14.562
99839SOL    HW2 1350  10.077   8.500  14.654
99840SOL     OW 1351   2.589  14.126   5.155
99840SOL    HW1 1352   2.540  14.191   5.105
99840SOL    HW2 1353   2.681  14.149   5.141
99841SOL     OW 1354   7.415   6.378   0.334
99841SOL    HW1 1355   7.365   6.435   0.393
99841SOL    HW2 1356   7.499   6.365   0.379
99842SOL     OW 1357  14.019  12.213   3.241
99842SOL    HW1 1358  13.998  12.132   3.196
99842SOL    HW2 1359  14.082  12.257   3.183
99843SOL     OW 1360  10.474   3.757   1.022
99843SOL    HW1 1361  10.482   3.663   1.038
99843SOL    HW2 1362  10.509   3.798   1.102
99844SOL     OW 1363  12.624   6.041   5.315
99844SOL    HW1 1364  12.575   5.966   5.348
99844SOL    HW2 1365  12.559   6.095   5.269
99845SOL     OW 1366  12.863   7.253   7.028
99845SOL    HW1 1367  12.778   7.209   7.031
99845SOL    HW2 1368  12.893   7.240   6.937
99846SOL     OW 1369   9.178  14.807  11.139
99846SOL    HW1 1370   9.095  14.801  11.091
99846SOL    HW2 1371   9.167  14.748  11.214
99847SOL     OW 1372   8.610   4.262   6.452
99847SOL    HW1 1373   8.649   4.230   6.534
99847SOL    HW2 1374   8.530   4.306   6.479
99848SOL     OW 1375   3.849   4.919   0.326
99848SOL    HW1 1376   3.778   4.916   0.390
99848SOL    HW2 1377   3.925   4.950   0.375
99849SOL     OW 1378  10.515   0.194   7.766
99849SOL    HW1 1379  10.545   0.157   7.683
99849SOL    HW2 1380  10.426   0.224   7.748
99850SOL     OW 1381  13.568  13.406   7.237
99850SOL    HW1 1382  13.527  13.433   7.155
99850SOL    HW2 1383  13.495  13.391   7.297
99851SOL     OW 1384   4.978   5.558   2.257
99851SOL    HW1 1385   5.024   5.506   2.192
99851SOL    HW2 1386   4.971   5.500   2.333
99852SOL     OW 1387  13.063   3.671   0.117
99852SOL    HW1 1388  13.156   3.652   0.107
99852SOL    HW2 1389  13.020   3.586   0.112
99853SOL     OW 1390   2.378  14.544  12.554
99853SOL    HW1 1391   2.455  14.597  12.575
99853SOL    HW2 1392   2.320  14.556  12.629
99854SOL     OW 1393   0.583   8.787   7.538
99854SOL    HW1 1394   0.599   8.772   7.444
99854SOL    HW2 1395   0.653   8.847   7.564
99855SOL     OW 1396   8.575  11.912  14.629
99855SOL    HW1 1397   8.622  11.942  14.551
99855SOL    HW2 1398   8.591  11.817  14.630
99856SOL     OW 1399   7.109   7.934   0.143
99856SOL    HW1 1400   7.198   7.928   0.108
99856SOL    HW2 1401   7.053   7.910   0.069
99857SOL     OW 1402  10.695   5.788   4.403
99857SOL    HW1 1403  10.642   5.742   4.467
99857SOL    HW2 1404  10.719   5.721   4.338
99858SOL     OW 1405  14.705   1.947   9.569
99858SOL    HW1 1406  14.799   1.932   9.580
99858SOL    HW2 1407  14.663   1.883   9.626
99859SOL     OW 1408   2.114   6.982  14.314
99859SOL    HW1 1409   2.206   7.006  14.308
99859SOL    HW2 1410   2.087   6.966  14.223
99860SOL     OW 1411   5.496   0.432   0.561
99860SOL    HW1 1412   5.528   0.364   0.621
99860SOL    HW2 1413   5.472   0.505   0.618
99861SOL     OW 1414   6.951  12.255   9.014
99861SOL    HW1 1415   7.027  12.274   8.960
99861SOL    HW2 1416   6.987  12.216   9.094
99862SOL     OW 1417   7.445   4.300   1.446
99862SOL    HW1 1418   7.441   4.220   1.498
99862SOL    HW2 1419   7.373   4.291   1.383
99863SOL     OW 1420   2.786  12.690   3.587
99863SOL    HW1 1421   2.818  12.626   3.524
99863SOL    HW2 1422   2.693  12.698   3.568
99864SOL     OW 1423   9.140   3.991   2.000
99864SOL    HW1 1424   9.229   3.964   2.024
99864SOL    HW2 1425   9.149   4.028   1.912
99865SOL     OW 1426   5.579   7.336  11.683
99865SOL    HW1 1427   5.585   7.431  11.688
99865SOL    HW2 1428   5.534   7.319  11.600
99866SOL     OW 1429  12.283   3.936   6.837
99866SOL    HW1 1430  12.332   3.864   6.877
99866SOL    HW2 1431  12.351   3.993   6.800
99867SOL     OW 1432   5.709   3.116   4.062
99867SOL    HW1 1433   5.681   3.207   4.071
99867SOL    HW2 1434   5.707   3.099   3.967
99868SOL     OW 1435  10.959   0.456   8.064
99868SOL    HW1 1436  10.866   0.458   8.041
99868SOL    HW2 1437  10.961   0.428   8.156
99869SOL     OW 1438  14.308   8.799   3.530
99869SOL    HW1 1439  14.400   8.821   3.518
99869SOL    HW2 1440  14.267   8.881   3.559
99870SOL     OW 1441   5.767   3.935   9.659
99870SOL    HW1 1442   5.734   4.018   9.626
99870SOL    HW2 1443   5.690   3.890   9.694
99871SOL     OW 1444   3.109  12.153   8.867
99871SOL    HW1 1445   3.193  12.126   8.904
99871SOL    HW2 1446   3.133  12.200   8.787
99872SOL     OW 1447  12.805   3.040  13.880
99872SOL    HW1 1448  12.851   3.118  13.911
99872SOL    HW2 1449  12.762   3.068  13.799
99873SOL     OW 1450   9.110  13.553  11.849
99873SOL    HW1 1451   9.017  13.531  11.838
99873SOL    HW2 1452   9.109  13.645  11.876
99874SOL     OW 1453   1.477   1.311   3.825
99874SOL    HW1 1454   1.520   1.276   3.903
99874SOL    HW2 1455   1.517   1.264   3.752
99875SOL     OW 1456   4.779  13.446   7.323
99875SOL    HW1 1457   4.808  13.535   7.302
99875SOL    HW2 1458   4.685  13.453   7.336
99876SOL     OW 1459  12.832  12.832   4.362
99876SOL    HW1 1460  12.871  12.834   4.449
99876SOL    HW2 1461  12.845  12.742   4.332
99877SOL     OW 1462  10.440   6.099   7.048
99877SOL    HW1 1463  10.443   6.036   7.121
99877SOL    HW2 1464  10.385   6.170   7.080
99878SOL     OW 1465  10.181  10.227   8.391
99878SOL    HW1 1466  10.268  10.234   8.352
99878SOL    HW2 1467  10.137  10.308   8.367
99879SOL     OW 1468   7.057   2.875   4.023
99879SOL    HW1 1469   7.114   2.881   4.100
99879SOL    HW2 1470   7.065   2.960   3.980
99880SOL     OW 1471  12.946  13.580   0.581
99880SOL    HW1 1472  12.889  13.535   0.643
99880SOL    HW2 1473  12.889  13.645   0.539
99881SOL     OW 1474   4.188  10.811   5.307
99881SOL    HW1 1475   4.168  10.868   5.382
99881SOL    HW2 1476   4.103  10.780   5.277
99882SOL     OW 1477  11.975   2.537   6.395
99882SOL    HW1 1478  11.894   2.490   6.415
99882SOL    HW2 1479  12.020   2.544   6.479
99883SOL     OW 1480  10.883   3.547   2.154
99883SOL    HW1 1481  10.956   3.486   2.159
99883SOL    HW2 1482  10.852   3.541   2.064
99884SOL     OW 1483  10.791   3.281  10.429
99884SOL    HW1 1484  10.751   3.363  10.399
99884SOL    HW2 1485  10.782   3.221  10.354
99885SOL     OW 1486   6.585  13.929   4.181
99885SOL    HW1 1487   6.494  13.899   4.173
99885SOL    HW2 1488   6.635  13.850   4.203
99886SOL     OW 1489   0.557   5.245   2.991
99886SOL    HW1 1490   0.522   5.279   2.909
99886SOL    HW2 1491   0.618   5.176   2.964
99887SOL     OW 1492  10.386   2.862   8.160
99887SOL    HW1 1493  10.368   2.942   8.110
99887SOL    HW2 1494  10.430   2.893   8.239
99888SOL     OW 1495   8.876  13.406   9.179
99888SOL    HW1 1496   8.870  13.501   9.190
99888SOL    HW2 1497   8.968  13.389   9.159
99889SOL     OW 1498   7.486  11.433   3.137
99889SOL    HW1 1499   7.549  11.427   3.065
99889SOL    HW2 1500   7.517  11.508   3.189
99890SOL     OW 1501   1.057   4.841   8.578
99890SOL    HW1 1502   0.973   4.886   8.583
99890SOL    HW2 1503   1.069   4.804   8.665
99891SOL     OW 1504   9.952   3.184  11.590
99891SOL    HW1 1505   9.863   3.218  11.587
99891SOL    HW2 1506   9.946   3.105  11.644
99892SOL     OW 1507   5.011   3.041   4.482
99892SOL    HW1 1508   4.991   2.947   4.488
99892SOL    HW2 1509   4.978   3.067   4.396
99893SOL     OW 1510   8.911  13.954  12.688
99893SOL    HW1 1511   8.994  13.965  12.734
99893SOL    HW2 1512   8.892  13.860  12.695
99894SOL     OW 1513   0.330   6.517   5.804
99894SOL    HW1 1514   0.405   6.532   5.861
99894SOL    HW2 1515   0.256   6.510   5.864
99895SOL     OW 1516   9.597  12.194   0.047
99895SOL    HW1 1517   9.635  12.261   0.104
99895SOL    HW2 1518   9.656  12.191  14.854
99896SOL     OW 1519  13.594   8.129   5.979
99896SOL    HW1 1520  13.671   8.150   6.032
99896SOL    HW2 1521  13.600   8.188   5.904
99897SOL     OW 1522  13.270   9.207   2.411
99897SOL    HW1 1523  13.290   9.232   2.502
99897SOL    HW2 1524  13.308   9.120   2.401
99898SOL     OW 1525  11.860   4.645   0.678
99898SOL    HW1 1526  11.857   4.551   0.664
99898SOL    HW2 1527  11.777   4.678   0.643
99899SOL     OW 1528  13.700  14.289   8.681
99899SOL    HW1 1529  13.731  14.365   8.730
99899SOL    HW2 1530  13.608  14.280   8.706
99900SOL     OW 1531  13.464   5.238  13.987
99900SOL    HW1 1532  13.465   5.187  13.906
99900SOL    HW2 1533  13.533   5.200  14.041
99901SOL     OW 1534  12.275  11.001   7.366
99901SOL    HW1 1535  12.336  10.939   7.325
99901SOL    HW2 1536  12.287  11.082   7.317
99902SOL     OW 1537   4.576   4.182  13.254
99902SOL    HW1 1538   4.579   4.157  13.161
99902SOL    HW2 1539   4.553   4.101  13.300
99903SOL     OW 1540   7.473   1.139   1.661
99903SOL    HW1 1541   7.541   1.081   1.695
99903SOL    HW2 1542   7.460   1.110   1.571
99904SOL     OW 1543   7.809   3.499  13.626
99904SOL    HW1 1544   7.869   3.474  13.697
99904SOL    HW2 1545   7.801   3.594  13.634
99905SOL     OW 1546   6.193   2.538   3.520
99905SOL    HW1 1547   6.269   2.552   3.464
99905SOL    HW2 1548   6.175   2.624   3.559
99906SOL     OW 1549   9.483  10.108   8.666
99906SOL    HW1 1550   9.528  10.185   8.699
99906SOL    HW2 1551   9.540  10.034   8.690
99907SOL     OW 1552   7.443   5.610   6.209
99907SOL    HW1 1553   7.399   5.543   6.156
99907SOL    HW2 1554   7.378   5.636   6.274
99908SOL     OW 1555  12.871   1.797  14.479
99908SOL    HW1 1556  12.819   1.758  14.549
99908SOL    HW2 1557  12.946   1.739  14.469
99909SOL     OW 1558   2.982   7.591   9.228
99909SOL    HW1 1559   3.064   7.592   9.278
99909SOL    HW2 1560   3.007   7.615   9.139
99910SOL     OW 1561  12.849   5.346   2.345
99910SOL    HW1 1562  12.811   5.359   2.258
99910SOL    HW2 1563  12.792   5.396   2.404
99911SOL     OW 1564  14.678   5.942   0.212
99911SOL    HW1 1565  14.695   6.028   0.174
99911SOL    HW2 1566  14.757   5.921   0.261
99912SOL     OW 1567   8.753  14.396  11.639
99912SOL    HW1 1568   8.803  14.324  11.599
99912SOL    HW2 1569   8.676  14.354  11.677
99913SOL     OW 1570  11.013   5.720   0.189
99913SOL    HW1 1571  11.083   5.779   0.159
99913SOL    HW2 1572  11.029   5.709   0.282
99914SOL     OW 1573  10.881   9.740   8.118
99914SOL    HW1 1574  10.884   9.690   8.200
99914SOL    HW2 1575  10.972   9.753   8.094
99915SOL     OW 1576   0.002   4.067  14.658
99915SOL    HW1 1577  14.876   4.159  14.684
99915SOL    HW2 1578  14.881   4.018  14.740
99916SOL     OW 1579   8.021   3.368  14.130
99916SOL    HW1 1580   8.062   3.284  14.149
99916SOL    HW2 1581   7.929   3.355  14.150
99917SOL     OW 1582  14.673   9.967   0.497
99917SOL    HW1 1583  14.747   9.906   0.494
99917SOL    HW2 1584  14.636   9.965   0.409
99918SOL     OW 1585   0.143   4.777   0.917
99918SOL    HW1 1586   0.119   4.701   0.971
99918SOL    HW2 1587   0.144   4.850   0.978
99919SOL     OW 1588   2.198  11.984   1.382
99919SOL    HW1 1589   2.116  11.989   1.333
99919SOL    HW2 1590   2.231  12.074   1.385
99920SOL     OW 1591   5.726   5.875   9.863
99920SOL    HW1 1592   5.696   5.785   9.853
99920SOL    HW2 1593   5.783   5.873   9.940
99921SOL     OW 1594   5.938  12.184   1.261
99921SOL    HW1 1595   5.845  12.169   1.246
99921SOL    HW2 1596   5.970  12.219   1.177
99922SOL     OW 1597   5.923   9.887   5.260
99922SOL    HW1 1598   6.016   9.907   5.264
99922SOL    HW2 1599   5.920   9.793   5.242
99923SOL     OW 1600   0.692   7.892  11.917
99923SOL    HW1 1601   0.775   7.921  11.880
99923SOL    HW2 1602   0.627   7.913  11.850
99924SOL     OW 1603   8.376  14.833   3.410
99924SOL    HW1 1604   8.469  14.855   3.408
99924SOL    HW2 1605   8.342  14.861   3.325
99925SOL     OW 1606   5.867  13.471   1.012
99925SOL    HW1 1607   5.895  13.517   0.933
99925SOL    HW2 1608   5.941  13.416   1.036
99926SOL     OW 1609   3.549   3.524   2.443
99926SOL    HW1 1610   3.636   3.491   2.418
99926SOL    HW2 1611   3.488   3.476   2.387
99927SOL     OW 1612   2.476  13.308   5.792
99927SOL    HW1 1613   2.396  13.360   5.794
99927SOL    HW2 1614   2.503  13.303   5.884
99928SOL     OW 1615   5.868   7.644   1.389
99928SOL    HW1 1616   5.873   7.736   1.365
99928SOL    HW2 1617   5.868   7.643   1.484
99929SOL     OW 1618  11.357   8.463   6.419
99929SOL    HW1 1619  11.271   8.442   6.456
99929SOL    HW2 1620  11.419   8.414   6.473
99930SOL     OW 1621   6.660  11.271   3.289
99930SOL    HW1 1622   6.682  11.270   3.382
99930SOL    HW2 1623   6.627  11.183   3.271
99931SOL     OW 1624  13.862  10.126   1.319
99931SOL    HW1 1625  13.942  10.100   1.366
99931SOL    HW2 1626  13.805  10.049   1.324
99932SOL     OW 1627  10.468   2.118   3.507
99932SOL    HW1 1628  10.422   2.179   3.564
99932SOL    HW2 1629  10.435   2.137   3.419
99933SOL     OW 1630  11.092  12.643   4.186
99933SOL    HW1 1631  11.084  12.547   4.183
99933SOL    HW2 1632  11.141  12.660   4.266
99934SOL     OW 1633   2.008   0.327   2.880
99934SOL    HW1 1634   2.051   0.350   2.962
99934SOL    HW2 1635   2.009   0.231   2.879
99935SOL     OW 1636   3.133   1.977  11.687
99935SOL    HW1 1637   3.190   2.029  11.743
99935SOL    HW2 1638   3.118   1.896  11.736
99936SOL     OW 1639   6.142   9.916  10.960
99936SOL    HW1 1640   6.231   9.951  10.953
99936SOL    HW2 1641   6.142   9.866  11.042
99937SOL     OW 1642  13.223   2.274   2.543
99937SOL    HW1 1643  13.149   2.269   2.483
99937SOL    HW2 1644  13.251   2.365   2.541
99938SOL     OW 1645  10.855   7.505   0.843
99938SOL    HW1 1646  10.808   7.462   0.771
99938SOL    HW2 1647  10.850   7.598   0.823
99939SOL     OW 1648  12.334   0.232   5.665
99939SOL    HW1 1649  12.240   0.251   5.662
99939SOL    HW2 1650  12.342   0.147   5.622
99940SOL     OW 1651   8.965  11.114   8.514
99940SOL    HW1 1652   9.059  11.117   8.495
99940SOL    HW2 1653   8.931  11.046   8.457
99941SOL     OW 1654   8.899   1.360   3.967
99941SOL    HW1 1655   8.815   1.348   4.012
99941SOL    HW2 1656   8.898   1.450   3.936
99942SOL     OW 1657   0.323   7.952   4.392
99942SOL    HW1 1658   0.391   7.959   4.458
99942SOL    HW2 1659   0.357   8.001   4.317
99943SOL     OW 1660   5.003   7.833   9.697
99943SOL    HW1 1661   4.979   7.779   9.621
99943SOL    HW2 1662   4.942   7.806   9.766
99944SOL     OW 1663  10.673   4.927   6.175
99944SOL    HW1 1664  10.657   4.853   6.234
99944SOL    HW2 1665  10.700   4.998   6.233
99945SOL     OW 1666   1.475  12.539   1.079
99945SOL    HW1 1667   1.422  12.544   0.999
99945SOL    HW2 1668   1.478  12.445   1.100
99946SOL     OW 1669  13.727  13.066   1.396
99946SOL    HW1 1670  13.654  13.127   1.399
99946SOL    HW2 1671  13.720  13.016   1.478
99947SOL     OW 1672  12.152   4.901   7.418
99947SOL    HW1 1673  12.145   4.885   7.324
99947SOL    HW2 1674  12.089   4.840   7.457
99948SOL     OW 1675  11.128   3.766   3.335
99948SOL    HW1 1676  11.105   3.734   3.422
99948SOL    HW2 1677  11.056   3.737   3.279
99949SOL     OW 1678  11.197   3.765   4.636
99949SOL    HW1 1679  11.174   3.714   4.558
99949SOL    HW2 1680  11.226   3.849   4.602
99950SOL     OW 1681  12.402   7.757  13.161
99950SOL    HW1 1682  12.313   7.776  13.130
99950SOL    HW2 1683  12.396   7.765  13.256
99951SOL     OW 1684  10.130   4.061   4.590
99951SOL    HW1 1685  10.133   4.049   4.685
99951SOL    HW2 1686  10.093   3.979   4.557
99952SOL     OW 1687  12.138   0.145   5.375
99952SOL    HW1 1688  12.090   0.184   5.301
99952SOL    HW2 1689  12.226   0.130   5.342
99953SOL     OW 1690  11.477  14.464   6.624
99953SOL    HW1 1691  11.424  14.543   6.638
99953SOL    HW2 1692  11.544  14.468   6.692
99954SOL     OW 1693   6.353  12.854   9.805
99954SOL    HW1 1694   6.401  12.932   9.778
99954SOL    HW2 1695   6.356  12.796   9.729
99955SOL     OW 1696  13.985  11.074   2.693
99955SOL    HW1 1697  13.907  11.127   2.678
99955SOL    HW2 1698  14.009  11.042   2.606
99956SOL     OW 1699  10.705  10.514  13.142
99956SOL    HW1 1700  10.755  10.591  13.167
99956SOL    HW2 1701  10.661  10.538  13.061
99957SOL     OW 1702   4.821   4.952   2.505
99957SOL    HW1 1703   4.825   4.897   2.583
99957SOL    HW2 1704   4.857   5.036   2.533
99958SOL     OW 1705   1.716  10.601   5.056
99958SOL    HW1 1706   1.714  10.529   5.119
99958SOL    HW2 1707   1.751  10.675   5.106
99959SOL     OW 1708   0.522   2.374   1.506
99959SOL    HW1 1709   0.462   2.393   1.578
99959SOL    HW2 1710   0.536   2.458   1.463
99960SOL     OW 1711   6.772   9.707   9.200
99960SOL    HW1 1712   6.804   9.680   9.114
99960SOL    HW2 1713   6.719   9.784   9.184
99961SOL     OW 1714  13.194  14.802   6.297
99961SOL    HW1 1715  13.157   0.008   6.291
99961SOL    HW2 1716  13.280  14.810   6.256
99962SOL     OW 1717   4.820  14.369   0.953
99962SOL    HW1 1718   4.872  14.336   0.879
99962SOL    HW2 1719   4.881  14.421   1.004
99963SOL     OW 1720   5.742   6.806   1.690
99963SOL    HW1 1721   5.647   6.813   1.700
99963SOL    HW2 1722   5.767   6.880   1.636
99964SOL     OW 1723  10.083   2.589   2.243
99964SOL    HW1 1724   9.993   2.622   2.251
99964SOL    HW2 1725  10.083   2.508   2.293
99965SOL     OW 1726   8.329  12.544   4.286
99965SOL    HW1 1727   8.373  12.568   4.367
99965SOL    HW2 1728   8.384  12.476   4.247
99966SOL     OW 1729   2.221  12.032   9.514
99966SOL    HW1 1730   2.152  12.089   9.480
99966SOL    HW2 1731   2.212  12.037   9.609
99967SOL     OW 1732   2.968   1.241   3.923
99967SOL    HW1 1733   2.913   1.193   3.985
99967SOL    HW2 1734   2.974   1.184   3.847
99968SOL     OW 1735  13.020   0.203   2.000
99968SOL    HW1 1736  12.985   0.175   2.084
99968SOL    HW2 1737  12.993   0.134   1.938
99969SOL     OW 1738   4.695   7.969  11.336
99969SOL    HW1 1739   4.732   7.995  11.421
99969SOL    HW2 1740   4.607   8.008  11.336
99970SOL     OW 1741   8.581  13.472   6.576
99970SOL    HW1 1742   8.626  13.506   6.653
99970SOL    HW2 1743   8.494  13.513   6.578
99971SOL     OW 1744   1.546   4.171   4.401
99971SOL    HW1 1745   1.456   4.202   4.394
99971SOL    HW2 1746   1.538   4.075   4.401
99972SOL     OW 1747   3.008   8.706   7.542
99972SOL    HW1 1748   2.989   8.626   7.591
99972SOL    HW2 1749   2.922   8.740   7.517
99973SOL     OW 1750   8.190   9.036   9.639
99973SOL    HW1 1751   8.197   9.046   9.734
99973SOL    HW2 1752   8.197   9.125   9.604
99974SOL     OW 1753  14.828   8.056  13.693
99974SOL    HW1 1754  14.763   7.989  13.713
99974SOL    HW2 1755  14.789   8.137  13.726
99975SOL     OW 1756   3.828   3.510   1.864
99975SOL    HW1 1757   3.866   3.422   1.868
99975SOL    HW2 1758   3.734   3.496   1.873
99976SOL     OW 1759  11.344   4.793   8.412
99976SOL    HW1 1760  11.269   4.737   8.430
99976SOL    HW2 1761  11.420   4.736   8.424
99977SOL     OW 1762  14.651   2.052   3.136
99977SOL    HW1 1763  14.661   2.044   3.041
99977SOL    HW2 1764  14.560   2.028   3.153
99978SOL     OW 1765   0.584  13.312   8.331
99978SOL    HW1 1766   0.527  13.379   8.294
99978SOL    HW2 1767   0.532  13.271   8.400
99979SOL     OW 1768   8.829   6.414   7.320
99979SOL    HW1 1769   8.892   6.415   7.392
99979SOL    HW2 1770   8.854   6.486   7.264
99980SOL     OW 1771   9.803   1.949   8.549
99980SOL    HW1 1772   9.895   1.935   8.574
99980SOL    HW2 1773   9.763   1.988   8.626
99981SOL     OW 1774  12.951   3.442   7.643
99981SOL    HW1 1775  13.045   3.458   7.649
99981SOL    HW2 1776  12.924   3.424   7.733
99982SOL     OW 1777   6.781   0.972  13.467
99982SOL    HW1 1778   6.813   1.055  13.431
99982SOL    HW2 1779   6.796   0.909  13.397
99983SOL     OW 1780  11.603  10.551  14.588
99983SOL    HW1 1781  11.600  10.578  14.680
99983SOL    HW2 1782  11.512  10.554  14.560
99984SOL     OW 1783  10.417   3.549   3.591
99984SOL    HW1 1784  10.324   3.540   3.571
99984SOL    HW2 1785  10.452   3.603   3.520
99985SOL     OW 1786   1.101  10.908   0.868
99985SOL    HW1 1787   1.130  10.991   0.908
99985SOL    HW2 1788   1.088  10.930   0.776
99986SOL     OW 1789   1.280   6.809   1.910
99986SOL    HW1 1790   1.331   6.792   1.989
99986SOL    HW2 1791   1.307   6.896   1.882
99987SOL     OW 1792  10.082  10.825   1.770
99987SOL    HW1 1793  10.134  10.900   1.798
99987SOL    HW2 1794  10.108  10.754   1.829
99988SOL     OW 1795   0.584  10.630   1.978
99988SOL    HW1 1796   0.665  10.681   1.971
99988SOL    HW2 1797   0.603  10.548   1.934
99989SOL     OW 1798   9.195   6.540   6.452
99989SOL    HW1 1799   9.201   6.445   6.450
99989SOL    HW2 1800   9.230   6.568   6.367
99990SOL     OW 1801   7.960  10.312   3.982
99990SOL    HW1 1802   7.878  10.268   3.959
99990SOL    HW2 1803   8.027  10.266   3.932
99991SOL     OW 1804   4.366  12.201  11.401
99991SOL    HW1 1805   4.459  12.218  11.412
99991SOL    HW2 1806   4.349  12.123  11.454
99992SOL     OW 1807   7.736   0.191   4.004
99992SOL    HW1 1808   7.715   0.193   4.098
99992SOL    HW2 1809   7.779   0.275   3.987
99993SOL     OW 1810   3.660   5.118   6.018
99993SOL    HW1 1811   3.663   5.151   5.928
99993SOL    HW2 1812   3.637   5.195   6.071
99994SOL     OW 1813   6.878  13.167  12.314
99994SOL    HW1 1814   6.858  13.074  12.327
99994SOL    HW2 1815   6.873  13.205  12.402
99995SOL     OW 1816   3.541   9.032   2.257
99995SOL    HW1 1817   3.509   9.062   2.172
99995SOL    HW2 1818   3.534   9.109   2.313
99996SOL     OW 1819   7.347   2.166  14.635
99996SOL    HW1 1820   7.254   2.155  14.654
99996SOL    HW2 1821   7.363   2.113  14.557
99997SOL     OW 1822   9.391   3.395   2.126
99997SOL    HW1 1823   9.320   3.333   2.108
99997SOL    HW2 1824   9.435   3.359   2.203
99998SOL     OW 1825   9.379  10.919  13.387
99998SOL    HW1 1826   9.319  10.986  13.355
99998SOL    HW2 1827   9.344  10.837  13.351
99999SOL     OW 1828  10.515  12.485  14.545
99999SOL    HW1 1829  10.546  12.572  14.522
99999SOL    HW2 1830  10.593  12.431  14.545
    0SOL     OW 1831   9.082  12.241   1.913
    0SOL    HW1 1832   9.131  12.178   1.966
    0SOL    HW2 1833   8.991  12.227   1.938
    1SOL     OW 1834   5.625   1.337   4.575
    1SOL    HW1 1835   5.580   1.256   4.549
    1SOL    HW2 1836   5.646   1.324   4.667
    2SOL     OW 1837  12.416   1.679  12.255
    2SOL    HW1 1838  12.493   1.624  12.242
    2SOL    HW2 1839  12.348   1.638  12.202
    3SOL     OW 1840   7.517   5.505   5.402
    3SOL    HW1 1841   7.534   5.442   5.472
    3SOL    HW2 1842   7.586   5.489   5.338
    4SOL     OW 1843   9.458   2.752   1.144
    4SOL    HW1 1844   9.402   2.829   1.156
    4SOL    HW2 1845   9.525   2.760   1.212
    5SOL     OW 1846   4.336  12.744  10.576
    5SOL    HW1 1847   4.325  12.839  10.572
    5SOL    HW2 1848   4.416  12.730  10.627
    6SOL     OW 1849   9.505   7.154  11.753
    6SOL    HW1 1850   9.480   7.233  11.704
    6SOL    HW2 1851   9.467   7.168  11.840
    7SOL     OW 1852   2.784   6.477   3.964
    7SOL    HW1 1853   2.693   6.486   3.989
    7SOL    HW2 1854   2.784   6.411   3.895
    8SOL     OW 1855   2.721   3.207  13.783
    8SOL    HW1 1856   2.662   3.200  13.707
    8SOL    HW2 1857   2.808   3.187  13.748
    9SOL     OW 1858  10.584   9.930  10.628
    9SOL    HW1 1859  10.666   9.912  10.675
    9SOL    HW2 1860  10.599  10.016  10.588
   10SOL     OW 1861  12.697   5.649   9.956
   10SOL    HW1 1862  12.714   5.613   9.869
   10SOL    HW2 1863  12.678   5.573  10.011
   11SOL     OW 1864  14.096   8.918   8.705
   11SOL    HW1 1865  14.172   8.939   8.759
   11SOL    HW2 1866  14.024   8.969   8.744
   12SOL     OW 1867   9.979   0.194   0.051
   12SOL    HW1 1868   9.958   0.288   0.043
   12SOL    HW2 1869   9.897   0.150   0.026
   13SOL     OW 1870   1.267   5.425   5.012
   13SOL    HW1 1871   1.297   5.404   4.923
   13SOL    HW2 1872   1.328   5.492   5.042
   14SOL     OW 1873   8.114  12.371   6.469
   14SOL    HW1 1874   8.105  12.323   6.552
   14SOL    HW2 1875   8.059  12.449   6.481
   15SOL     OW 1876   7.199  10.362   5.699
   15SOL    HW1 1877   7.169  10.398   5.783
   15SOL    HW2 1878   7.141  10.288   5.682
   16SOL     OW 1879   6.000   3.457   0.354
   16SOL    HW1 1880   6.051   3.537   0.339
   16SOL    HW2 1881   5.958   3.439   0.270
   17SOL     OW 1882   0.754   0.658   0.064
   17SOL    HW1 1883   0.698   0.685   0.136
   17SOL    HW2 1884   0.708   0.584   0.024
   18SOL     OW 1885   0.968   1.465  10.575
   18SOL    HW1 1886   0.878   1.471  10.544
   18SOL    HW2 1887   1.009   1.546  10.545
   19SOL     OW 1888   1.656   8.932   6.021
   19SOL    HW1 1889   1.649   9.027   6.010
   19SOL    HW2 1890   1.576   8.908   6.068
   20SOL     OW 1891   7.334   1.360   2.002
   20SOL    HW1 1892   7.316   1.368   1.909
   20SOL    HW2 1893   7.350   1.450   2.031
   21SOL     OW 1894   6.125  11.920   1.004
   21SOL    HW1 1895   6.150  11.869   0.928
   21SOL    HW2 1896   6.048  11.969   0.976
   22SOL     OW 1897  11.639   0.018  14.767
   22SOL    HW1 1898  11.593  14.869  14.689
   22SOL    HW2 1899  11.604  14.846  14.838
   23SOL     OW 1900  12.015   4.723   9.680
   23SOL    HW1 1901  11.953   4.790   9.709
   23SOL    HW2 1902  12.094   4.772   9.658
   24SOL     OW 1903   7.965  10.393   2.853
   24SOL    HW1 1904   7.887  10.412   2.801
   24SOL    HW2 1905   8.037  10.396   2.790
   25SOL     OW 1906  12.873   5.628  13.954
   25SOL    HW1 1907  12.808   5.644  14.022
   25SOL    HW2 1908  12.925   5.709  13.951
   26SOL     OW 1909   4.371   6.896   9.699
   26SOL    HW1 1910   4.393   6.825   9.638
   26SOL    HW2 1911   4.353   6.971   9.642
   27SOL     OW 1912   4.800   3.644   4.597
   27SOL    HW1 1913   4.863   3.714   4.614
   27SOL    HW2 1914   4.789   3.643   4.502
   28SOL     OW 1915  12.510  13.307  10.475
   28SOL    HW1 1916  12.497  13.284  10.567
   28SOL    HW2 1917  12.519  13.223  10.430
   29SOL     OW 1918  12.474   2.981  11.803
   29SOL    HW1 1919  12.538   3.025  11.860
   29SOL    HW2 1920  12.415   3.051  11.775
   30SOL     OW 1921  11.338   8.155  12.422
   30SOL    HW1 1922  11.432   8.154  12.436
   30SOL    HW2 1923  11.321   8.080  12.365
   31SOL     OW 1924   4.575   6.650   1.639
   31SOL    HW1 1925   4.623   6.733   1.633
   31SOL    HW2 1926   4.485   6.674   1.617
   32SOL     OW 1927   6.094   0.511   5.318
   32SOL    HW1 1928   6.165   0.559   5.276
   32SOL    HW2 1929   6.097   0.539   5.409
   33SOL     OW 1930   8.686   0.602   9.262
   33SOL    HW1 1931   8.594   0.623   9.248
   33SOL    HW2 1932   8.685   0.513   9.298
   34SOL     OW 1933  12.525   8.469  11.035
   34SOL    HW1 1934  12.597   8.515  11.077
   34SOL    HW2 1935  12.490   8.411  11.103
   35SOL     OW 1936   5.608   2.983  14.104
   35SOL    HW1 1937   5.568   2.897  14.113
   35SOL    HW2 1938   5.601   3.022  14.191
   36SOL     OW 1939   0.686   7.432  10.998
   36SOL    HW1 1940   0.669   7.494  10.927
   36SOL    HW2 1941   0.623   7.362  10.984
   37SOL     OW 1942   7.510   8.065   8.031
   37SOL    HW1 1943   7.469   8.038   7.949
   37SOL    HW2 1944   7.519   7.983   8.081
   38SOL     OW 1945   2.497   0.947   7.097
   38SOL    HW1 1946   2.481   1.040   7.079
   38SOL    HW2 1947   2.577   0.927   7.048
   39SOL     OW 1948   8.285   6.217  10.185
   39SOL    HW1 1949   8.359   6.176  10.230
   39SOL    HW2 1950   8.255   6.151  10.122
   40SOL     OW 1951  13.113  14.513   0.649
   40SOL    HW1 1952  13.191  14.470   0.685
   40SOL    HW2 1953  13.040  14.460   0.678
   41SOL     OW 1954   9.461   0.962   2.116
   41SOL    HW1 1955   9.508   1.011   2.184
   41SOL    HW2 1956   9.369   0.986   2.128
   42SOL     OW 1957   7.322   5.861  11.653
   42SOL    HW1 1958   7.296   5.904  11.734
   42SOL    HW2 1959   7.291   5.771  11.662
   43SOL     OW 1960   7.149  11.418   1.216
   43SOL    HW1 1961   7.079  11.373   1.263
   43SOL    HW2 1962   7.201  11.460   1.285
   44SOL     OW 1963  14.071   0.374   4.060
   44SOL    HW1 1964  14.161   0.346   4.077
   44SOL    HW2 1965  14.054   0.441   4.126
   45SOL     OW 1966   5.583   1.435   0.093
   45SOL    HW1 1967   5.571   1.341   0.079
   45SOL    HW2 1968   5.510   1.460   0.150
   46SOL     OW 1969   5.607  12.281  13.510
   46SOL    HW1 1970   5.528  12.237  13.478
   46SOL    HW2 1971   5.637  12.333  13.435
   47SOL     OW 1972   4.776   3.261  11.407
   47SOL    HW1 1973   4.789   3.213  11.325
   47SOL    HW2 1974   4.856   3.313  11.418
   48SOL     OW 1975   0.012   9.535   5.999
   48SOL    HW1 1976   0.093   9.510   6.042
   48SOL    HW2 1977   0.035   9.609   5.944
   49SOL     OW 1978   9.510   8.332   2.246
   49SOL    HW1 1979   9.569   8.317   2.320
   49SOL    HW2 1980   9.423   8.312   2.281
   50SOL     OW 1981  12.911  12.309   6.666
   50SOL    HW1 1982  12.933  12.221   6.698
   50SOL    HW2 1983  12.901  12.298   6.572
   51SOL     OW 1984   6.238  11.694   1.643
   51SOL    HW1 1985   6.204  11.745   1.570
   51SOL    HW2 1986   6.316  11.741   1.671
   52SOL     OW 1987  14.283  10.796   5.955
   52SOL    HW1 1988  14.277  10.719   6.011
   52SOL    HW2 1989  14.256  10.869   6.010
   53SOL     OW 1990   5.260   8.586   1.854
   53SOL    HW1 1991   5.177   8.628   1.874
   53SOL    HW2 1992   5.267   8.589   1.759
   54SOL     OW 1993   9.545   3.240  13.472
   54SOL    HW1 1994   9.456   3.242  13.507
   54SOL    HW2 1995   9.563   3.147  13.458
   55SOL     OW 1996   6.032   9.857   2.347
   55SOL    HW1 1997   6.079   9.858   2.263
   55SOL    HW2 1998   5.955   9.912   2.333
   56SOL     OW 1999   7.190   5.414  13.181
   56SOL    HW1 2000   7.165   5.505  13.164
   56SOL    HW2 2001   7.122   5.362  13.139
   57SOL     OW 2002   1.423   2.152  12.647
   57SOL    HW1 2003   1.418   2.110  12.733
   57SOL    HW2 2004   1.432   2.080  12.586
   58SOL     OW 2005   2.299   5.966   5.844
   58SOL    HW1 2006   2.372   6.002   5.795
   58SOL    HW2 2007   2.296   6.017   5.924
   59SOL     OW 2008   9.478   5.313   6.444
   59SOL    HW1 2009   9.436   5.266   6.373
   59SOL    HW2 2010   9.469   5.406   6.421
   60SOL     OW 2011  11.514   5.918   6.551
   60SOL    HW1 2012  11.469   5.995   6.586
   60SOL    HW2 2013  11.508   5.929   6.456
   61SOL     OW 2014  14.037   0.050   3.012
   61SOL    HW1 2015  13.952   0.013   2.988
   61SOL    HW2 2016  14.086   0.054   2.930
   62SOL     OW 2017   6.420   4.027   3.296
   62SOL    HW1 2018   6.467   3.988   3.369
   62SOL    HW2 2019   6.328   4.006   3.313
   63SOL     OW 2020  11.089   2.459   3.460
   63SOL    HW1 2021  11.180   2.432   3.458
   63SOL    HW2 2022  11.039   2.379   3.445
   64SOL     OW 2023   2.149  10.031  10.873
   64SOL    HW1 2024   2.141   9.954  10.816
   64SOL    HW2 2025   2.074  10.086  10.850
   65SOL     OW 2026   7.668  13.822  13.271
   65SOL    HW1 2027   7.595  13.795  13.215
   65SOL    HW2 2028   7.664  13.917  13.271
   66SOL     OW 2029   1.483   0.719   8.159
   66SOL    HW1 2030   1.422   0.749   8.226
   66SOL    HW2 2031   1.526   0.798   8.126
   67SOL     OW 2032  14.188  14.575  13.358
   67SOL    HW1 2033  14.163  14.514  13.427
   67SOL    HW2 2034  14.216  14.653  13.405
   68SOL     OW 2035   9.545  11.164   6.432
   68SOL    HW1 2036   9.617  11.197   6.485
   68SOL    HW2 2037   9.468  11.174   6.488
   69SOL     OW 2038  12.526   9.091   5.342
   69SOL    HW1 2039  12.468   9.029   5.299
   69SOL    HW2 2040  12.565   9.043   5.414
   70SOL     OW 2041   0.902   4.642  13.768
   70SOL    HW1 2042   0.845   4.573  13.800
   70SOL    HW2 2043   0.848   4.693  13.709
   71SOL     OW 2044   7.084   3.526   5.164
   71SOL    HW1 2045   7.154   3.564   5.217
   71SOL    HW2 2046   7.076   3.436   5.197
   72SOL     OW 2047   8.588  13.407   5.935
   72SOL    HW1 2048   8.611  13.364   6.017
   72SOL    HW2 2049   8.493  13.404   5.932
   73SOL     OW 2050  13.521   1.991   0.867
   73SOL    HW1 2051  13.456   1.988   0.796
   73SOL    HW2 2052  13.470   1.975   0.947
   74SOL     OW 2053   6.254   6.757  14.500
   74SOL    HW1 2054   6.182   6.791  14.446
   74SOL    HW2 2055   6.294   6.689  14.446
   75SOL     OW 2056  14.292  13.520   2.715
   75SOL    HW1 2057  14.297  13.590   2.780
   75SOL    HW2 2058  14.328  13.444   2.759
   76SOL     OW 2059   9.510   3.039   6.754
   76SOL    HW1 2060   9.589   3.071   6.798
   76SOL    HW2 2061   9.479   3.113   6.703
   77SOL     OW 2062   9.876   7.267  10.938
   77SOL    HW1 2063   9.865   7.345  10.884
   77SOL    HW2 2064   9.790   7.253  10.978
   78SOL     OW 2065   8.943  12.103  13.270
   78SOL    HW1 2066   8.891  12.058  13.337
   78SOL    HW2 2067   9.021  12.049  13.260
   79SOL     OW 2068   3.380  10.794   9.163
   79SOL    HW1 2069   3.384  10.698   9.166
   79SOL    HW2 2070   3.419  10.817   9.079
   80SOL     OW 2071   5.161  14.179   2.262
   80SOL    HW1 2072   5.195  14.267   2.280
   80SOL    HW2 2073   5.223  14.141   2.200
   81SOL     OW 2074  11.583   4.493  11.248
   81SOL    HW1 2075  11.630   4.572  11.275
   81SOL    HW2 2076  11.635   4.457  11.177
   82SOL     OW 2077   9.012   5.938   1.300
   82SOL    HW1 2078   8.934   5.951   1.355
   82SOL    HW2 2079   9.077   5.997   1.337
   83SOL     OW 2080   5.152   4.648  11.980
   83SOL    HW1 2081   5.074   4.602  11.949
   83SOL    HW2 2082   5.132   4.740  11.966
   84SOL     OW 2083   3.439   5.238   6.319
   84SOL    HW1 2084   3.476   5.267   6.236
   84SOL    HW2 2085   3.465   5.146   6.327
   85SOL     OW 2086   4.548   4.773   7.809
   85SOL    HW1 2087   4.482   4.720   7.853
   85SOL    HW2 2088   4.509   4.795   7.724
   86SOL     OW 2089  12.835   3.352  12.589
   86SOL    HW1 2090  12.747   3.336  12.555
   86SOL    HW2 2091  12.825   3.426  12.649
   87SOL     OW 2092   1.926  11.053   0.359
   87SOL    HW1 2093   1.859  11.013   0.304
   87SOL    HW2 2094   1.965  10.980   0.407
   88SOL     OW 2095   8.494  12.356   7.289
   88SOL    HW1 2096   8.522  12.372   7.199
   88SOL    HW2 2097   8.458  12.267   7.287
   89SOL     OW 2098  10.579  12.191  11.952
   89SOL    HW1 2099  10.593  12.225  11.863
   89SOL    HW2 2100  10.665  12.161  11.981
   90SOL     OW 2101   3.780  11.389   7.896
   90SOL    HW1 2102   3.831  11.336   7.834
   90SOL    HW2 2103   3.716  11.435   7.841
   91SOL     OW 2104   1.334   8.636   6.131
   91SOL    HW1 2105   1.383   8.643   6.213
   91SOL    HW2 2106   1.263   8.700   6.140
   92SOL     OW 2107   6.735   7.370  14.347
   92SOL    HW1 2108   6.639   7.369  14.348
   92SOL    HW2 2109   6.760   7.278  14.351
   93SOL     OW 2110  13.230  13.942   3.521
   93SOL    HW1 2111  13.231  14.037   3.516
   93SOL    HW2 2112  13.202  13.923   3.611
   94SOL     OW 2113  10.882   2.919   6.741
   94SOL    HW1 2114  10.924   2.986   6.795
   94SOL    HW2 2115  10.862   2.963   6.658
   95SOL     OW 2116   0.319   2.272  12.774
   95SOL    HW1 2117   0.407   2.306  12.760
   95SOL    HW2 2118   0.295   2.301  12.862
   96SOL     OW 2119   6.056   7.978   0.974
   96SOL    HW1 2120   6.126   7.944   1.031
   96SOL    HW2 2121   6.090   7.966   0.886
   97SOL     OW 2122  12.038   7.938  13.385
   97SOL    HW1 2123  12.083   7.877  13.327
   97SOL    HW2 2124  12.039   7.896  13.471
   98SOL     OW 2125   8.316   4.206   4.274
   98SOL    HW1 2126   8.410   4.223   4.275
   98SOL    HW2 2127   8.308   4.112   4.292
   99SOL     OW 2128   2.828   6.473   0.938
   99SOL    HW1 2129   2.869   6.509   0.859
   99SOL    HW2 2130   2.743   6.442   0.908
  100SOL     OW 2131  10.580  11.839  12.522
  100SOL    HW1 2132  10.613  11.758  12.483
  100SOL    HW2 2133  10.485  11.830  12.520
  101SOL     OW 2134   1.023   2.038   8.126
  101SOL    HW1 2135   1.040   1.955   8.082
  101SOL    HW2 2136   1.090   2.044   8.194
  102SOL     OW 2137  13.412   1.285   5.109
  102SOL    HW1 2138  13.417   1.372   5.149
  102SOL    HW2 2139  13.503   1.254   5.107
  103SOL     OW 2140   2.114  12.107  11.518
  103SOL    HW1 2141   2.098  12.143  11.431
  103SOL    HW2 2142   2.032  12.119  11.564
  104SOL     OW 2143  10.265  11.418   6.638
  104SOL    HW1 2144  10.356  11.418   6.668
  104SOL    HW2 2145  10.270  11.445   6.546
  105SOL     OW 2146   1.273  14.534   3.851
  105SOL    HW1 2147   1.277  14.605   3.787
  105SOL    HW2 2148   1.274  14.578   3.936
  106SOL     OW 2149   2.779   1.695   9.412
  106SOL    HW1 2150   2.788   1.611   9.368
  106SOL    HW2 2151   2.787   1.675   9.505
  107SOL     OW 2152  14.780   5.684   2.989
  107SOL    HW1 2153  14.723   5.625   2.940
  107SOL    HW2 2154  14.727   5.715   3.062
  108SOL     OW 2155   6.477   4.416   6.889
  108SOL    HW1 2156   6.527   4.337   6.910
  108SOL    HW2 2157   6.393   4.384   6.857
  109SOL     OW 2158  10.158   5.173  12.022
  109SOL    HW1 2159  10.119   5.248  11.975
  109SOL    HW2 2160  10.234   5.210  12.067
  110SOL     OW 2161   4.061   3.309   1.617
  110SOL    HW1 2162   3.995   3.295   1.550
  110SOL    HW2 2163   4.111   3.385   1.587
  111SOL     OW 2164   5.321  10.870   4.947
  111SOL    HW1 2165   5.413  10.898   4.938
  111SOL    HW2 2166   5.325  10.790   5.000
  112SOL     OW 2167   8.123   3.103   3.226
  112SOL    HW1 2168   8.068   3.063   3.293
  112SOL    HW2 2169   8.108   3.197   3.235
  113SOL     OW 2170   9.798   2.180   0.201
  113SOL    HW1 2171   9.780   2.124   0.277
  113SOL    HW2 2172   9.880   2.147   0.166
  114SOL     OW 2173  13.791  12.185   5.530
  114SOL    HW1 2174  13.868  12.147   5.487
  114SOL    HW2 2175  13.770  12.262   5.478
  115SOL     OW 2176   3.189  13.609   1.825
  115SOL    HW1 2177   3.266  13.656   1.857
  115SOL    HW2 2178   3.156  13.562   1.902
  116SOL     OW 2179  14.007   6.889  10.575
  116SOL    HW1 2180  14.059   6.954  10.527
  116SOL    HW2 2181  14.069   6.820  10.597
  117SOL     OW 2182   3.312   3.756  10.151
  117SOL    HW1 2183   3.298   3.827  10.088
  117SOL    HW2 2184   3.249   3.689  10.124
  118SOL     OW 2185  12.702   5.628  13.711
  118SOL    HW1 2186  12.741   5.607  13.796
  118SOL    HW2 2187  12.616   5.585  13.713
  119SOL     OW 2188   8.435   2.400   8.738
  119SOL    HW1 2189   8.406   2.490   8.724
  119SOL    HW2 2190   8.355   2.348   8.730
  120SOL     OW 2191   4.608   1.671   0.937
  120SOL    HW1 2192   4.537   1.619   0.976
  120SOL    HW2 2193   4.586   1.762   0.958
  121SOL     OW 2194   5.793   5.599   1.148
  121SOL    HW1 2195   5.779   5.553   1.065
  121SOL    HW2 2196   5.886   5.622   1.147
  122SOL     OW 2197  11.540   7.625   8.928
  122SOL    HW1 2198  11.454   7.652   8.959
  122SOL    HW2 2199  11.525   7.595   8.839
  123SOL     OW 2200  14.179   5.201  12.961
  123SOL    HW1 2201  14.198   5.232  12.872
  123SOL    HW2 2202  14.265   5.187  13.000
  124SOL     OW 2203   2.292   5.419   7.334
  124SOL    HW1 2204   2.378   5.444   7.301
  124SOL    HW2 2205   2.272   5.485   7.401
  125SOL     OW 2206   7.611  13.360   8.218
  125SOL    HW1 2207   7.553  13.343   8.144
  125SOL    HW2 2208   7.664  13.281   8.226
  126SOL     OW 2209   6.738  11.220   0.138
  126SOL    HW1 2210   6.813  11.172   0.174
  126SOL    HW2 2211   6.729  11.187   0.049
  127SOL     OW 2212   1.047   1.230   8.782
  127SOL    HW1 2213   1.123   1.219   8.840
  127SOL    HW2 2214   0.982   1.274   8.837
  128SOL     OW 2215   5.648  10.973  12.361
  128SOL    HW1 2216   5.698  10.904  12.318
  128SOL    HW2 2217   5.595  11.011  12.292
  129SOL     OW 2218   4.459  14.439   3.438
  129SOL    HW1 2219   4.480  14.523   3.478
  129SOL    HW2 2220   4.442  14.460   3.346
  130SOL     OW 2221   1.407   1.524  10.461
  130SOL    HW1 2222   1.335   1.468  10.434
  130SOL    HW2 2223   1.463   1.531  10.384
  131SOL     OW 2224   7.004  10.203   9.949
  131SOL    HW1 2225   7.036  10.211  10.039
  131SOL    HW2 2226   6.933  10.139   9.954
  132SOL     OW 2227   9.920   9.037   4.669
  132SOL    HW1 2228   9.946   9.129   4.663
  132SOL    HW2 2229   9.849   9.029   4.605
  133SOL     OW 2230  12.520   9.153   0.442
  133SOL    HW1 2231  12.599   9.102   0.427
  133SOL    HW2 2232  12.450   9.104   0.398
  134SOL     OW 2233   6.700   0.400   2.119
  134SOL    HW1 2234   6.616   0.409   2.164
  134SOL    HW2 2235   6.761   0.451   2.172
  135SOL     OW 2236   3.311   0.242   5.103
  135SOL    HW1 2237   3.394   0.272   5.140
  135SOL    HW2 2238   3.320   0.147   5.096
  136SOL     OW 2239   2.501  10.361   8.389
  136SOL    HW1 2240   2.568  10.416   8.429
  136SOL    HW2 2241   2.456  10.321   8.464
  137SOL     OW 2242   6.778   3.689   6.910
  137SOL    HW1 2243   6.773   3.758   6.844
  137SOL    HW2 2244   6.730   3.724   6.985
  138SOL     OW 2245   7.391   2.296  13.229
  138SOL    HW1 2246   7.425   2.285  13.317
  138SOL    HW2 2247   7.298   2.274  13.235
  139SOL     OW 2248  14.386   8.561  10.437
  139SOL    HW1 2249  14.411   8.652  10.421
  139SOL    HW2 2250  14.457   8.526  10.490
  140SOL     OW 2251   9.829  14.483  13.573
  140SOL    HW1 2252   9.888  14.452  13.642
  140SOL    HW2 2253   9.783  14.404  13.544
  141SOL     OW 2254   8.524  10.911   8.541
  141SOL    HW1 2255   8.457  10.962   8.588
  141SOL    HW2 2256   8.476  10.869   8.469
  142SOL     OW 2257  13.968   4.375  14.400
  142SOL    HW1 2258  13.949   4.293  14.356
  142SOL    HW2 2259  14.038   4.354  14.463
  143SOL     OW 2260   0.051   6.528   3.201
  143SOL    HW1 2261   0.074   6.594   3.136
  143SOL    HW2 2262   0.001   6.463   3.152
  144SOL     OW 2263   3.051  13.038  12.254
  144SOL    HW1 2264   2.971  13.073  12.214
  144SOL    HW2 2265   3.088  13.112  12.303
  145SOL     OW 2266   6.629  14.592   0.487
  145SOL    HW1 2267   6.591  14.649   0.420
  145SOL    HW2 2268   6.611  14.637   0.569
  146SOL     OW 2269  12.050   6.140   2.217
  146SOL    HW1 2270  12.132   6.182   2.188
  146SOL    HW2 2271  12.051   6.149   2.312
  147SOL     OW 2272   1.424   6.860   8.602
  147SOL    HW1 2273   1.492   6.926   8.590
  147SOL    HW2 2274   1.347   6.910   8.629
  148SOL     OW 2275   7.751   8.886   1.410
  148SOL    HW1 2276   7.781   8.832   1.483
  148SOL    HW2 2277   7.815   8.869   1.340
  149SOL     OW 2278   1.644   2.214   4.041
  149SOL    HW1 2279   1.616   2.279   4.105
  149SOL    HW2 2280   1.590   2.137   4.059
  150SOL     OW 2281   2.844   3.548   3.730
  150SOL    HW1 2282   2.766   3.491   3.733
  150SOL    HW2 2283   2.812   3.629   3.691
  151SOL     OW 2284   6.909   5.043   5.073
  151SOL    HW1 2285   6.910   5.069   5.165
  151SOL    HW2 2286   6.877   4.953   5.074
  152SOL     OW 2287   0.560   4.463  13.336
  152SOL    HW1 2288   0.635   4.423  13.292
  152SOL    HW2 2289   0.565   4.431  13.426
  153SOL     OW 2290   1.499   2.536   0.192
  153SOL    HW1 2291   1.489   2.543   0.287
  153SOL    HW2 2292   1.584   2.576   0.174
  154SOL     OW 2293  10.090   0.475   1.362
  154SOL    HW1 2294  10.139   0.449   1.285
  154SOL    HW2 2295  10.041   0.397   1.387
  155SOL     OW 2296   3.047   5.651   2.950
  155SOL    HW1 2297   3.018   5.698   3.028
  155SOL    HW2 2298   3.020   5.706   2.877
  156SOL     OW 2299  14.702  11.415   0.712
  156SOL    HW1 2300  14.640  11.401   0.640
  156SOL    HW2 2301  14.717  11.509   0.712
  157SOL     OW 2302   0.491  10.152  14.688
  157SOL    HW1 2303   0.459  10.182  14.774
  157SOL    HW2 2304   0.567  10.097  14.709
  158SOL     OW 2305   8.134   1.459  13.247
  158SOL    HW1 2306   8.080   1.388  13.212
  158SOL    HW2 2307   8.145   1.519  13.173
  159SOL     OW 2308   1.086   4.283  10.002
  159SOL    HW1 2309   1.149   4.323   9.941
  159SOL    HW2 2310   1.109   4.190  10.002
  160SOL     OW 2311   2.630   5.093   0.709
  160SOL    HW1 2312   2.652   5.047   0.628
  160SOL    HW2 2313   2.548   5.139   0.690
  161SOL     OW 2314   7.172  14.534  12.662
  161SOL    HW1 2315   7.122  14.487  12.729
  161SOL    HW2 2316   7.220  14.466  12.615
  162SOL     OW 2317   5.506   2.674   0.674
  162SOL    HW1 2318   5.513   2.589   0.717
  162SOL    HW2 2319   5.595   2.708   0.674
  163SOL     OW 2320  13.068   2.809   7.318
  163SOL    HW1 2321  12.981   2.826   7.283
  163SOL    HW2 2322  13.121   2.881   7.285
  164SOL     OW 2323  10.657  10.668   4.943
  164SOL    HW1 2324  10.736  10.668   4.998
  164SOL    HW2 2325  10.690  10.653   4.854
  165SOL     OW 2326   0.230   4.900  10.539
  165SOL    HW1 2327   0.324   4.897  10.524
  165SOL    HW2 2328   0.200   4.978  10.493
  166SOL     OW 2329   9.709   9.064   5.496
  166SOL    HW1 2330   9.651   8.988   5.504
  166SOL    HW2 2331   9.783   9.032   5.444
  167SOL     OW 2332   5.840   8.967  11.467
  167SOL    HW1 2333   5.821   8.969  11.373
  167SOL    HW2 2334   5.807   8.882  11.496
  168SOL     OW 2335  14.383  13.858  13.070
  168SOL    HW1 2336  14.306  13.812  13.034
  168SOL    HW2 2337  14.410  13.917  13.000
  169SOL     OW 2338   0.591   7.753   8.646
  169SOL    HW1 2339   0.536   7.681   8.613
  169SOL    HW2 2340   0.572   7.756   8.740
  170SOL     OW 2341  14.047  11.211   8.796
  170SOL    HW1 2342  14.083  11.123   8.804
  170SOL    HW2 2343  13.966  11.209   8.847
  171SOL     OW 2344  10.689  11.745   9.126
  171SOL    HW1 2345  10.714  11.735   9.218
  171SOL    HW2 2346  10.594  11.742   9.126
  172SOL     OW 2347  12.369   2.278  12.294
  172SOL    HW1 2348  12.421   2.321  12.361
  172SOL    HW2 2349  12.366   2.341  12.222
  173SOL     OW 2350   2.828   2.652   0.089
  173SOL    HW1 2351   2.896   2.668   0.155
  173SOL    HW2 2352   2.762   2.719   0.106
  174SOL     OW 2353   9.830  12.469   7.647
  174SOL    HW1 2354   9.867  12.390   7.607
  174SOL    HW2 2355   9.904  12.509   7.693
  175SOL     OW 2356   4.758   4.678  12.099
  175SOL    HW1 2357   4.693   4.725  12.150
  175SOL    HW2 2358   4.842   4.717  12.125
  176SOL     OW 2359  13.927   2.015   0.514
  176SOL    HW1 2360  13.836   2.043   0.515
  176SOL    HW2 2361  13.943   1.983   0.603
  177SOL     OW 2362   3.348  12.419  12.138
  177SOL    HW1 2363   3.340  12.425  12.043
  177SOL    HW2 2364   3.261  12.394  12.168
  178SOL     OW 2365   0.361   1.171  11.087
  178SOL    HW1 2366   0.315   1.222  11.154
  178SOL    HW2 2367   0.291   1.123  11.041
  179SOL     OW 2368  11.134  14.036  13.075
  179SOL    HW1 2369  11.143  13.951  13.118
  179SOL    HW2 2370  11.204  14.037  13.009
  180SOL     OW 2371   6.370  10.862   6.631
  180SOL    HW1 2372   6.317  10.813   6.694
  180SOL    HW2 2373   6.351  10.820   6.547
  181SOL     OW 2374   1.258   6.850   9.454
  181SOL    HW1 2375   1.170   6.818   9.433
  181SOL    HW2 2376   1.244   6.922   9.515
  182SOL     OW 2377   6.378   9.554   7.586
  182SOL    HW1 2378   6.467   9.520   7.575
  182SOL    HW2 2379   6.355   9.589   7.500
  183SOL     OW 2380   4.226   7.251   5.344
  183SOL    HW1 2381   4.242   7.343   5.324
  183SOL    HW2 2382   4.313   7.210   5.342
  184SOL     OW 2383  11.999   9.974   4.255
  184SOL    HW1 2384  12.067   9.990   4.320
  184SOL    HW2 2385  11.947  10.054   4.255
  185SOL     OW 2386   8.864   1.379  12.928
  185SOL    HW1 2387   8.846   1.453  12.986
  185SOL    HW2 2388   8.922   1.415  12.861
  186SOL     OW 2389   6.791   6.535   6.317
  186SOL    HW1 2390   6.764   6.579   6.236
  186SOL    HW2 2391   6.777   6.600   6.386
  187SOL     OW 2392   9.892  14.454   8.372
  187SOL    HW1 2393   9.862  14.482   8.458
  187SOL    HW2 2394   9.937  14.371   8.388
  188SOL     OW 2395   2.407   3.320   0.748
  188SOL    HW1 2396   2.490   3.333   0.702
  188SOL    HW2 2397   2.378   3.232   0.721
  189SOL     OW 2398   2.398  11.279   3.902
  189SOL    HW1 2399   2.390  11.251   3.811
  189SOL    HW2 2400   2.309  11.299   3.930
  190SOL     OW 2401  10.172  11.743  14.345
  190SOL    HW1 2402  10.197  11.781  14.430
  190SOL    HW2 2403  10.251  11.701  14.313
  191SOL     OW 2404  13.466  10.826   4.060
  191SOL    HW1 2405  13.491  10.916   4.038
  191SOL    HW2 2406  13.400  10.804   3.994
  192SOL     OW 2407   3.223   4.571   8.948
  192SOL    HW1 2408   3.148   4.617   8.986
  192SOL    HW2 2409   3.217   4.589   8.854
  193SOL     OW 2410  13.561   6.368   0.320
  193SOL    HW1 2411  13.584   6.417   0.241
  193SOL    HW2 2412  13.638   6.378   0.377
  194SOL     OW 2413  13.076   4.307   7.008
  194SOL    HW1 2414  13.156   4.342   7.047
  194SOL    HW2 2415  13.104   4.227   6.963
  195SOL     OW 2416   3.190   3.264   8.788
  195SOL    HW1 2417   3.107   3.302   8.815
  195SOL    HW2 2418   3.218   3.319   8.714
  196SOL     OW 2419   5.288   1.580   4.919
  196SOL    HW1 2420   5.212   1.603   4.866
  196SOL    HW2 2421   5.269   1.493   4.953
  197SOL     OW 2422   7.033   7.166  13.497
  197SOL    HW1 2423   7.013   7.252  13.460
  197SOL    HW2 2424   7.101   7.130  13.440
  198SOL     OW 2425   2.620   3.379   8.073
  198SOL    HW1 2426   2.584   3.301   8.115
  198SOL    HW2 2427   2.562   3.395   7.999
  199SOL     OW 2428   5.485   4.727   6.296
  199SOL    HW1 2429   5.496   4.635   6.273
  199SOL    HW2 2430   5.403   4.730   6.346
  200SOL     OW 2431   7.157  10.507   7.934
  200SOL    HW1 2432   7.183  10.518   7.842
  200SOL    HW2 2433   7.067  10.538   7.938
  201SOL     OW 2434  12.399   9.761   0.379
  201SOL    HW1 2435  12.326   9.805   0.336
  201SOL    HW2 2436  12.437   9.704   0.312
  202SOL     OW 2437  12.262   8.632  13.449
  202SOL    HW1 2438  12.330   8.687  13.487
  202SOL    HW2 2439  12.259   8.659  13.357
  203SOL     OW 2440   9.340   2.593  12.763
  203SOL    HW1 2441   9.299   2.569  12.846
  203SOL    HW2 2442   9.313   2.684  12.748
  204SOL     OW 2443  12.768   3.200  11.780
  204SOL    HW1 2444  12.689   3.243  11.812
  204SOL    HW2 2445  12.838   3.236  11.834
  205SOL     OW 2446   9.344   5.074   2.635
  205SOL    HW1 2447   9.275   5.012   2.612
  205SOL    HW2 2448   9.378   5.105   2.551
  206SOL     OW 2449  12.779  11.843   2.501
  206SOL    HW1 2450  12.866  11.827   2.537
  206SOL    HW2 2451  12.761  11.767   2.445
  207SOL     OW 2452  10.104   8.491  12.787
  207SOL    HW1 2453  10.142   8.416  12.833
  207SOL    HW2 2454  10.022   8.508  12.832
  208SOL     OW 2455  11.665  14.253   4.256
  208SOL    HW1 2456  11.646  14.278   4.346
  208SOL    HW2 2457  11.754  14.284   4.240
  209SOL     OW 2458   7.652   4.006   1.611
  209SOL    HW1 2459   7.571   4.012   1.560
  209SOL    HW2 2460   7.691   4.093   1.604
  210SOL     OW 2461   7.146   0.337  12.550
  210SOL    HW1 2462   7.103   0.382  12.477
  210SOL    HW2 2463   7.144   0.400  12.622
  211SOL     OW 2464   0.522  13.210  11.551
  211SOL    HW1 2465   0.586  13.217  11.480
  211SOL    HW2 2466   0.571  13.233  11.630
  212SOL     OW 2467   7.295   5.711   6.405
  212SOL    HW1 2468   7.280   5.778   6.338
  212SOL    HW2 2469   7.285   5.758   6.488
  213SOL     OW 2470   4.498   2.868   0.088
  213SOL    HW1 2471   4.503   2.963   0.095
  213SOL    HW2 2472   4.589   2.838   0.089
  214SOL     OW 2473   7.729   6.414   3.149
  214SOL    HW1 2474   7.817   6.420   3.187
  214SOL    HW2 2475   7.706   6.321   3.157
  215SOL     OW 2476  13.725   3.316   7.517
  215SOL    HW1 2477  13.775   3.357   7.588
  215SOL    HW2 2478  13.792   3.272   7.463
  216SOL     OW 2479   0.191   8.904   3.850
  216SOL    HW1 2480   0.116   8.936   3.800
  216SOL    HW2 2481   0.266   8.917   3.793
  217SOL     OW 2482   2.449  11.852  10.814
  217SOL    HW1 2483   2.448  11.802  10.733
  217SOL    HW2 2484   2.513  11.922  10.799
  218SOL     OW 2485  14.580   0.993   6.140
  218SOL    HW1 2486  14.560   1.042   6.220
  218SOL    HW2 2487  14.496   0.991   6.093
  219SOL     OW 2488  12.359  11.938   0.258
  219SOL    HW1 2489  12.341  11.859   0.206
  219SOL    HW2 2490  12.429  11.982   0.211
  220SOL     OW 2491   2.977  13.329   3.672
  220SOL    HW1 2492   2.979  13.276   3.752
  220SOL    HW2 2493   3.039  13.286   3.613
  221SOL     OW 2494  12.547   5.295   4.049
  221SOL    HW1 2495  12.507   5.298   4.136
  221SOL    HW2 2496  12.481   5.332   3.991
  222SOL     OW 2497   7.613  12.605   7.112
  222SOL    HW1 2498   7.708  12.599   7.122
  222SOL    HW2 2499   7.596  12.568   7.025
  223SOL     OW 2500   0.708   1.895  10.612
  223SOL    HW1 2501   0.782   1.839  10.637
  223SOL    HW2 2502   0.696   1.877  10.519
  224SOL     OW 2503  12.626  11.042  10.776
  224SOL    HW1 2504  12.586  10.964  10.816
  224SOL    HW2 2505  12.671  11.086  10.848
  225SOL     OW 2506   8.121   8.915  14.823
  225SOL    HW1 2507   8.117   8.919   0.036
  225SOL    HW2 2508   8.191   8.977  14.800
  226SOL     OW 2509   4.330  12.081  10.946
  226SOL    HW1 2510   4.391  12.061  10.875
  226SOL    HW2 2511   4.365  12.033  11.021
  227SOL     OW 2512   0.836   0.295   8.636
  227SOL    HW1 2513   0.760   0.265   8.686
  227SOL    HW2 2514   0.800   0.355   8.571
  228SOL     OW 2515  13.712  12.634  13.651
  228SOL    HW1 2516  13.787  12.671  13.697
  228SOL    HW2 2517  13.742  12.548  13.621
  229SOL     OW 2518   5.037  13.870   9.810
  229SOL    HW1 2519   5.055  13.958   9.777
  229SOL    HW2 2520   5.026  13.881   9.904
  230SOL     OW 2521   7.750   7.640   1.241
  230SOL    HW1 2522   7.719   7.549   1.242
  230SOL    HW2 2523   7.700   7.682   1.171
  231SOL     OW 2524  14.572   5.933  13.389
  231SOL    HW1 2525  14.501   5.996  13.377
  231SOL    HW2 2526  14.642   5.965  13.332
  232SOL     OW 2527   0.659   8.978  13.556
  232SOL    HW1 2528   0.618   8.909  13.505
  232SOL    HW2 2529   0.722   9.019  13.496
  233SOL     OW 2530  10.705   7.587   8.490
  233SOL    HW1 2531  10.637   7.646   8.522
  233SOL    HW2 2532  10.778   7.602   8.550
  234SOL     OW 2533  13.406   8.199   3.699
  234SOL    HW1 2534  13.394   8.232   3.789
  234SOL    HW2 2535  13.383   8.273   3.643
  235SOL     OW 2536   2.101   1.981  14.679
  235SOL    HW1 2537   2.095   2.001  14.772
  235SOL    HW2 2538   2.152   1.900  14.675
  236SOL     OW 2539   0.975   1.045   2.013
  236SOL    HW1 2540   0.989   1.111   1.945
  236SOL    HW2 2541   1.063   1.021   2.043
  237SOL     OW 2542   7.336  13.874  12.069
  237SOL    HW1 2543   7.413  13.907  12.115
  237SOL    HW2 2544   7.370  13.799  12.018
  238SOL     OW 2545  10.346   9.769  14.646
  238SOL    HW1 2546  10.301   9.812  14.574
  238SOL    HW2 2547  10.435   9.753  14.613
  239SOL     OW 2548  13.082  14.332   3.686
  239SOL    HW1 2549  13.142  14.323   3.760
  239SOL    HW2 2550  13.001  14.290   3.716
  240SOL     OW 2551  12.194   1.955   2.758
  240SOL    HW1 2552  12.189   2.049   2.739
  240SOL    HW2 2553  12.268   1.924   2.706
  241SOL     OW 2554   3.410   2.510   1.609
  241SOL    HW1 2555   3.400   2.497   1.515
  241SOL    HW2 2556   3.426   2.604   1.619
  242SOL     OW 2557   5.213   6.572   3.078
  242SOL    HW1 2558   5.168   6.530   3.151
  242SOL    HW2 2559   5.268   6.503   3.041
  243SOL     OW 2560  11.550   8.183   2.511
  243SOL    HW1 2561  11.542   8.234   2.592
  243SOL    HW2 2562  11.641   8.196   2.484
  244SOL     OW 2563   9.807   1.290   3.666
  244SOL    HW1 2564   9.830   1.203   3.633
  244SOL    HW2 2565   9.876   1.312   3.727
  245SOL     OW 2566   9.993   7.656   7.207
  245SOL    HW1 2567  10.087   7.674   7.204
  245SOL    HW2 2568   9.986   7.576   7.258
  246SOL     OW 2569   8.100   6.913   9.894
  246SOL    HW1 2570   8.055   6.830   9.909
  246SOL    HW2 2571   8.140   6.935   9.978
  247SOL     OW 2572  11.466  12.416  12.811
  247SOL    HW1 2573  11.473  12.491  12.871
  247SOL    HW2 2574  11.381  12.427  12.769
  248SOL     OW 2575   7.617   9.134   1.421
  248SOL    HW1 2576   7.650   9.045   1.415
  248SOL    HW2 2577   7.575   9.151   1.337
  249SOL     OW 2578   3.476   6.437   3.630
  249SOL    HW1 2579   3.568   6.427   3.606
  249SOL    HW2 2580   3.478   6.463   3.722
  250SOL     OW 2581   3.954   0.837  10.410
  250SOL    HW1 2582   4.031   0.855  10.357
  250SOL    HW2 2583   3.885   0.891  10.371
  251SOL     OW 2584   3.726  11.850   1.674
  251SOL    HW1 2585   3.738  11.942   1.696
  251SOL    HW2 2586   3.641  11.846   1.631
  252SOL     OW 2587  13.021   1.417   0.615
  252SOL    HW1 2588  12.937   1.373   0.630
  252SOL    HW2 2589  13.040   1.460   0.698
  253SOL     OW 2590   7.225   3.916   3.149
  253SOL    HW1 2591   7.285   3.871   3.089
  253SOL    HW2 2592   7.201   3.996   3.103
  254SOL     OW 2593   9.859   9.917   4.711
  254SOL    HW1 2594   9.822   9.995   4.753
  254SOL    HW2 2595   9.940   9.949   4.671
  255SOL     OW 2596   1.774  11.428  13.680
  255SOL    HW1 2597   1.852  11.406  13.731
  255SOL    HW2 2598   1.705  11.440  13.746
  256SOL     OW 2599   6.821   9.441   0.967
  256SOL    HW1 2600   6.751   9.479   0.914
  256SOL    HW2 2601   6.869   9.516   1.003
  257SOL     OW 2602   2.781  14.655  12.105
  257SOL    HW1 2603   2.692  14.628  12.085
  257SOL    HW2 2604   2.830  14.638  12.025
  258SOL     OW 2605   2.303  10.588   8.248
  258SOL    HW1 2606   2.287  10.560   8.339
  258SOL    HW2 2607   2.274  10.514   8.195
  259SOL     OW 2608   3.262   8.416  11.407
  259SOL    HW1 2609   3.296   8.492  11.361
  259SOL    HW2 2610   3.255   8.348  11.340
  260SOL     OW 2611   3.841   4.091  14.814
  260SOL    HW1 2612   3.914   4.126  14.762
  260SOL    HW2 2613   3.877   4.011  14.853
  261SOL     OW 2614   8.639   8.535   8.104
  261SOL    HW1 2615   8.629   8.500   8.016
  261SOL    HW2 2616   8.550   8.539   8.138
  262SOL     OW 2617   7.651   2.828   6.894
  262SOL    HW1 2618   7.559   2.849   6.873
  262SOL    HW2 2619   7.697   2.912   6.888
  263SOL     OW 2620   9.320  11.438   0.960
  263SOL    HW1 2621   9.305  11.522   1.004
  263SOL    HW2 2622   9.232  11.404   0.942
  264SOL     OW 2623   5.745   8.154  12.471
  264SOL    HW1 2624   5.828   8.151  12.422
  264SOL    HW2 2625   5.709   8.066  12.463
  265SOL     OW 2626   3.909  14.264   2.789
  265SOL    HW1 2627   3.922  14.276   2.883
  265SOL    HW2 2628   3.929  14.350   2.751
  266SOL     OW 2629  11.786   3.226   7.428
  266SOL    HW1 2630  11.813   3.147   7.475
  266SOL    HW2 2631  11.755   3.193   7.343
  267SOL     OW 2632   0.573  10.903   7.603
  267SOL    HW1 2633   0.531  10.842   7.543
  267SOL    HW2 2634   0.604  10.975   7.548
  268SOL     OW 2635   1.647   4.203   2.156
  268SOL    HW1 2636   1.711   4.269   2.180
  268SOL    HW2 2637   1.627   4.220   2.064
  269SOL     OW 2638   4.844  14.675   2.415
  269SOL    HW1 2639   4.771  14.734   2.397
  269SOL    HW2 2640   4.866  14.637   2.330
  270SOL     OW 2641   5.991  10.809  11.754
  270SOL    HW1 2642   5.918  10.795  11.694
  270SOL    HW2 2643   6.069  10.802  11.699
  271SOL     OW 2644   3.161  13.493   0.736
  271SOL    HW1 2645   3.233  13.432   0.720
  271SOL    HW2 2646   3.084  13.437   0.749
  272SOL     OW 2647   7.796  12.455   5.807
  272SOL    HW1 2648   7.891  12.452   5.799
  272SOL    HW2 2649   7.763  12.441   5.718
  273SOL     OW 2650  12.986  14.085   6.984
  273SOL    HW1 2651  13.002  14.113   7.074
  273SOL    HW2 2652  13.049  14.134   6.932
  274SOL     OW 2653  12.180   2.180  10.716
  274SOL    HW1 2654  12.205   2.210  10.804
  274SOL    HW2 2655  12.179   2.260  10.663
  275SOL     OW 2656   8.846  13.604  14.844
  275SOL    HW1 2657   8.781  13.664  14.880
  275SOL    HW2 2658   8.911  13.662  14.804
  276SOL     OW 2659   0.427   5.755  13.446
  276SOL    HW1 2660   0.423   5.831  13.505
  276SOL    HW2 2661   0.458   5.790  13.363
  277SOL     OW 2662  10.245   8.923   9.016
  277SOL    HW1 2663  10.310   8.881   9.073
  277SOL    HW2 2664  10.182   8.962   9.076
  278SOL     OW 2665   5.952   4.315   8.849
  278SOL    HW1 2666   5.965   4.381   8.917
  278SOL    HW2 2667   6.041   4.286   8.827
  279SOL     OW 2668  10.539   5.313   3.190
  279SOL    HW1 2669  10.547   5.316   3.286
  279SOL    HW2 2670  10.455   5.354   3.172
  280SOL     OW 2671  13.006  14.849  12.675
  280SOL    HW1 2672  13.033  14.878  12.588
  280SOL    HW2 2673  12.918   0.004  12.686
  281SOL     OW 2674   3.643  12.317  10.145
  281SOL    HW1 2675   3.656  12.225  10.123
  281SOL    HW2 2676   3.727  12.359  10.127
  282SOL     OW 2677   4.941   4.548   8.858
  282SOL    HW1 2678   4.970   4.583   8.774
  282SOL    HW2 2679   4.846   4.542   8.850
  283SOL     OW 2680   6.094   1.702   0.395
  283SOL    HW1 2681   6.187   1.684   0.382
  283SOL    HW2 2682   6.053   1.686   0.310
  284SOL     OW 2683   1.970   6.922   0.245
  284SOL    HW1 2684   1.939   6.920   0.154
  284SOL    HW2 2685   2.045   6.862   0.246
  285SOL     OW 2686   9.275   1.468   9.090
  285SOL    HW1 2687   9.306   1.401   9.028
  285SOL    HW2 2688   9.187   1.489   9.059
  286SOL     OW 2689   3.933  13.539   2.666
  286SOL    HW1 2690   3.893  13.626   2.678
  286SOL    HW2 2691   3.908  13.490   2.744
  287SOL     OW 2692   3.079   9.306   1.862
  287SOL    HW1 2693   2.988   9.284   1.843
  287SOL    HW2 2694   3.073   9.384   1.917
  288SOL     OW 2695   6.173   8.716  12.793
  288SOL    HW1 2696   6.100   8.778  12.796
  288SOL    HW2 2697   6.228   8.741  12.868
  289SOL     OW 2698  11.308   0.521  12.503
  289SOL    HW1 2699  11.228   0.551  12.459
  289SOL    HW2 2700  11.288   0.431  12.529
  290SOL     OW 2701   7.367   4.117   6.628
  290SOL    HW1 2702   7.442   4.155   6.580
  290SOL    HW2 2703   7.358   4.029   6.591
  291SOL     OW 2704   1.745   6.368   5.296
  291SOL    HW1 2705   1.681   6.398   5.232
  291SOL    HW2 2706   1.732   6.426   5.371
  292SOL     OW 2707   2.024   8.246   5.452
  292SOL    HW1 2708   2.103   8.193   5.459
  292SOL    HW2 2709   2.054   8.336   5.468
  293SOL     OW 2710   9.117  11.810   5.334
  293SOL    HW1 2711   9.081  11.883   5.284
  293SOL    HW2 2712   9.172  11.763   5.271
  294SOL     OW 2713   1.283   8.225  14.616
  294SOL    HW1 2714   1.261   8.303  14.666
  294SOL    HW2 2715   1.376   8.236  14.594
  295SOL     OW 2716   3.840   7.591   6.123
  295SOL    HW1 2717   3.824   7.680   6.155
  295SOL    HW2 2718   3.835   7.599   6.028
  296SOL     OW 2719   1.926   1.239   5.282
  296SOL    HW1 2720   1.980   1.278   5.214
  296SOL    HW2 2721   1.980   1.169   5.319
  297SOL     OW 2722   6.503  14.708   4.370
  297SOL    HW1 2723   6.503  14.659   4.452
  297SOL    HW2 2724   6.580  14.676   4.323
  298SOL     OW 2725   6.822   3.152   6.550
  298SOL    HW1 2726   6.827   3.241   6.586
  298SOL    HW2 2727   6.912   3.132   6.522
  299SOL     OW 2728   6.206  11.832   4.932
  299SOL    HW1 2729   6.270  11.761   4.930
  299SOL    HW2 2730   6.188  11.846   5.025
  300SOL     OW 2731   9.399  11.908   1.722
  300SOL    HW1 2732   9.370  11.959   1.646
  300SOL    HW2 2733   9.489  11.885   1.702
  301SOL     OW 2734   2.226   1.294  10.017
  301SOL    HW1 2735   2.237   1.200  10.001
  301SOL    HW2 2736   2.286   1.336   9.956
  302SOL     OW 2737   1.307   5.485   4.724
  302SOL    HW1 2738   1.277   5.523   4.642
  302SOL    HW2 2739   1.402   5.495   4.723
  303SOL     OW 2740   3.421   9.436  11.118
  303SOL    HW1 2741   3.375   9.390  11.048
  303SOL    HW2 2742   3.376   9.408  11.198
  304SOL     OW 2743   8.715   6.080  11.450
  304SOL    HW1 2744   8.707   6.078  11.355
  304SOL    HW2 2745   8.667   6.003  11.481
  305SOL     OW 2746   7.191  13.873   0.775
  305SOL    HW1 2747   7.253  13.813   0.814
  305SOL    HW2 2748   7.189  13.948   0.835
  306SOL     OW 2749   4.089   4.429  13.553
  306SOL    HW1 2750   4.107   4.378  13.475
  306SOL    HW2 2751   4.089   4.365  13.624
  307SOL     OW 2752  11.579  11.673   0.759
  307SOL    HW1 2753  11.625  11.600   0.718
  307SOL    HW2 2754  11.534  11.633   0.833
  308SOL     OW 2755   2.350  10.149  11.239
  308SOL    HW1 2756   2.264  10.184  11.215
  308SOL    HW2 2757   2.380  10.104  11.160
  309SOL     OW 2758  12.523   3.278   0.570
  309SOL    HW1 2759  12.590   3.258   0.504
  309SOL    HW2 2760  12.440   3.254   0.527
  310SOL     OW 2761   9.168  14.191  10.531
  310SOL    HW1 2762   9.157  14.098  10.510
  310SOL    HW2 2763   9.101  14.235  10.480
  311SOL     OW 2764   9.114   9.761  11.756
  311SOL    HW1 2765   9.177   9.708  11.805
  311SOL    HW2 2766   9.094   9.835  11.812
  312SOL     OW 2767   9.293   1.202  12.375
  312SOL    HW1 2768   9.226   1.252  12.328
  312SOL    HW2 2769   9.350   1.168  12.307
  313SOL     OW 2770   4.506  11.007  13.753
  313SOL    HW1 2771   4.490  10.921  13.794
  313SOL    HW2 2772   4.574  10.989  13.688
  314SOL     OW 2773  13.136   5.494  14.433
  314SOL    HW1 2774  13.168   5.553  14.501
  314SOL    HW2 2775  13.195   5.508  14.359
  315SOL     OW 2776  14.747   4.922   1.534
  315SOL    HW1 2777  14.743   4.834   1.497
  315SOL    HW2 2778  14.719   4.979   1.463
  316SOL     OW 2779   2.659  10.803  12.026
  316SOL    HW1 2780   2.743  10.759  12.040
  316SOL    HW2 2781   2.661  10.878  12.086
  317SOL     OW 2782  14.304   0.770   1.280
  317SOL    HW1 2783  14.317   0.735   1.192
  317SOL    HW2 2784  14.272   0.859   1.265
  318SOL     OW 2785   5.250   2.021  10.436
  318SOL    HW1 2786   5.224   1.993  10.349
  318SOL    HW2 2787   5.275   2.113  10.426
  319SOL     OW 2788   0.133   9.091  14.414
  319SOL    HW1 2789   0.177   9.135  14.487
  319SOL    HW2 2790   0.073   9.158  14.379
  320SOL     OW 2791  12.667   1.607   1.040
  320SOL    HW1 2792  12.722   1.534   1.014
  320SOL    HW2 2793  12.610   1.622   0.965
  321SOL     OW 2794   8.836  11.615   1.037
  321SOL    HW1 2795   8.839  11.581   0.948
  321SOL    HW2 2796   8.857  11.540   1.093
  322SOL     OW 2797  13.734  10.377   8.819
  322SOL    HW1 2798  13.692  10.460   8.843
  322SOL    HW2 2799  13.785  10.398   8.741
  323SOL     OW 2800  13.446   6.397  12.663
  323SOL    HW1 2801  13.365   6.410  12.711
  323SOL    HW2 2802  13.466   6.304  12.674
  324SOL     OW 2803  11.132  13.090   6.656
  324SOL    HW1 2804  11.098  13.146   6.587
  324SOL    HW2 2805  11.130  13.002   6.618
  325SOL     OW 2806   4.358  14.432   8.070
  325SOL    HW1 2807   4.368  14.375   7.994
  325SOL    HW2 2808   4.349  14.520   8.034
  326SOL     OW 2809   4.677   5.089   3.986
  326SOL    HW1 2810   4.683   5.184   3.980
  326SOL    HW2 2811   4.767   5.061   4.000
  327SOL     OW 2812   8.134  13.138   9.604
  327SOL    HW1 2813   8.045  13.107   9.620
  327SOL    HW2 2814   8.190  13.069   9.641
  328SOL     OW 2815  11.418   5.877   4.833
  328SOL    HW1 2816  11.476   5.938   4.878
  328SOL    HW2 2817  11.468   5.796   4.826
  329SOL     OW 2818   1.214   7.169  10.687
  329SOL    HW1 2819   1.261   7.175  10.604
  329SOL    HW2 2820   1.274   7.123  10.746
  330SOL     OW 2821   2.907   9.181   4.576
  330SOL    HW1 2822   2.971   9.141   4.518
  330SOL    HW2 2823   2.922   9.139   4.661
  331SOL     OW 2824   7.166   4.087  10.076
  331SOL    HW1 2825   7.115   4.021  10.029
  331SOL    HW2 2826   7.101   4.142  10.119
  332SOL     OW 2827   3.919  10.124   7.154
  332SOL    HW1 2828   3.938  10.217   7.166
  332SOL    HW2 2829   4.005  10.084   7.143
  333SOL     OW 2830   2.726  11.104  11.054
  333SOL    HW1 2831   2.651  11.110  10.995
  333SOL    HW2 2832   2.725  11.013  11.084
  334SOL     OW 2833  14.805   9.606  10.093
  334SOL    HW1 2834  14.753   9.591  10.015
  334SOL    HW2 2835   0.008   9.566  10.074
  335SOL     OW 2836   8.075  11.356  11.362
  335SOL    HW1 2837   8.098  11.424  11.425
  335SOL    HW2 2838   8.140  11.286  11.377
  336SOL     OW 2839   8.353   3.368   0.174
  336SOL    HW1 2840   8.261   3.377   0.148
  336SOL    HW2 2841   8.399   3.433   0.121
  337SOL     OW 2842   0.615   1.300  12.237
  337SOL    HW1 2843   0.635   1.210  12.214
  337SOL    HW2 2844   0.564   1.333  12.164
  338SOL     OW 2845   1.423  12.343   5.621
  338SOL    HW1 2846   1.329  12.327   5.628
  338SOL    HW2 2847   1.462  12.256   5.618
  339SOL     OW 2848   4.059   3.603   3.546
  339SOL    HW1 2849   3.979   3.558   3.517
  339SOL    HW2 2850   4.040   3.696   3.533
  340SOL     OW 2851   5.020  11.296   3.394
  340SOL    HW1 2852   4.973  11.322   3.473
  340SOL    HW2 2853   4.992  11.207   3.376
  341SOL     OW 2854   8.972   8.628  11.994
  341SOL    HW1 2855   9.006   8.546  11.958
  341SOL    HW2 2856   8.968   8.687  11.919
  342SOL     OW 2857  11.764  11.615   2.753
  342SOL    HW1 2858  11.826  11.544   2.768
  342SOL    HW2 2859  11.761  11.625   2.658
  343SOL     OW 2860  12.969   1.181   1.519
  343SOL    HW1 2861  12.978   1.128   1.599
  343SOL    HW2 2862  12.879   1.213   1.521
  344SOL     OW 2863  12.161   6.369   3.003
  344SOL    HW1 2864  12.143   6.330   2.917
  344SOL    HW2 2865  12.257   6.367   3.010
  345SOL     OW 2866  13.472  11.862  13.965
  345SOL    HW1 2867  13.434  11.876  14.052
  345SOL    HW2 2868  13.567  11.868  13.980
  346SOL     OW 2869  13.797  12.631   7.740
  346SOL    HW1 2870  13.807  12.718   7.701
  346SOL    HW2 2871  13.809  12.570   7.667
  347SOL     OW 2872   2.580   3.325  10.251
  347SOL    HW1 2873   2.501   3.326  10.305
  347SOL    HW2 2874   2.649   3.360  10.308
  348SOL     OW 2875   8.498   5.484   4.789
  348SOL    HW1 2876   8.483   5.551   4.856
  348SOL    HW2 2877   8.543   5.531   4.719
  349SOL     OW 2878  14.672   1.953   2.856
  349SOL    HW1 2879  14.581   1.927   2.841
  349SOL    HW2 2880  14.717   1.872   2.882
  350SOL     OW 2881   5.954   9.942  11.628
  350SOL    HW1 2882   5.919  10.025  11.660
  350SOL    HW2 2883   5.921   9.877  11.690
  351SOL     OW 2884   1.612  10.868   8.374
  351SOL    HW1 2885   1.622  10.790   8.320
  351SOL    HW2 2886   1.698  10.911   8.370
  352SOL     OW 2887   9.238  10.807  14.692
  352SOL    HW1 2888   9.224  10.738  14.627
  352SOL    HW2 2889   9.299  10.867  14.651
  353SOL     OW 2890   7.576   9.732  14.145
  353SOL    HW1 2891   7.658   9.691  14.117
  353SOL    HW2 2892   7.536   9.668  14.205
  354SOL     OW 2893  14.132   9.875   0.800
  354SOL    HW1 2894  14.055   9.877   0.857
  354SOL    HW2 2895  14.148   9.782   0.784
  355SOL     OW 2896  11.203   1.505   0.575
  355SOL    HW1 2897  11.246   1.586   0.548
  355SOL    HW2 2898  11.268   1.459   0.627
  356SOL     OW 2899  11.031   5.178   9.804
  356SOL    HW1 2900  11.043   5.197   9.711
  356SOL    HW2 2901  10.953   5.228   9.828
  357SOL     OW 2902   6.419   0.871  10.064
  357SOL    HW1 2903   6.455   0.835   9.982
  357SOL    HW2 2904   6.339   0.916  10.038
  358SOL     OW 2905  11.583   0.468   7.711
  358SOL    HW1 2906  11.633   0.530   7.764
  358SOL    HW2 2907  11.525   0.424   7.773
  359SOL     OW 2908   8.897   2.273   4.156
  359SOL    HW1 2909   8.953   2.202   4.123
  359SOL    HW2 2910   8.932   2.293   4.243
  360SOL     OW 2911   8.837   9.541  14.258
  360SOL    HW1 2912   8.786   9.616  14.228
  360SOL    HW2 2913   8.784   9.502  14.328
  361SOL     OW 2914   0.238   4.612  10.559
  361SOL    HW1 2915   0.225   4.707  10.551
  361SOL    HW2 2916   0.167   4.583  10.617
  362SOL     OW 2917   8.492   3.364   1.011
  362SOL    HW1 2918   8.549   3.329   0.943
  362SOL    HW2 2919   8.540   3.346   1.093
  363SOL     OW 2920  11.694   1.230   3.491
  363SOL    HW1 2921  11.752   1.229   3.568
  363SOL    HW2 2922  11.631   1.299   3.509
  364SOL     OW 2923  13.876   4.342   7.575
  364SOL    HW1 2924  13.834   4.261   7.605
  364SOL    HW2 2925  13.961   4.314   7.541
  365SOL     OW 2926   4.623   1.290   4.844
  365SOL    HW1 2927   4.589   1.369   4.802
  365SOL    HW2 2928   4.708   1.274   4.802
  366SOL     OW 2929  10.349  12.126   9.786
  366SOL    HW1 2930  10.391  12.095   9.706
  366SOL    HW2 2931  10.415  12.111   9.854
  367SOL     OW 2932  14.787   2.007   9.975
  367SOL    HW1 2933  14.787   1.936   9.911
  367SOL    HW2 2934  14.873   2.001  10.017
  368SOL     OW 2935  12.262   2.109  13.831
  368SOL    HW1 2936  12.202   2.036  13.815
  368SOL    HW2 2937  12.349   2.072  13.820
  369SOL     OW 2938   0.861  12.510   6.102
  369SOL    HW1 2939   0.864  12.419   6.131
  369SOL    HW2 2940   0.781  12.546   6.140
  370SOL     OW 2941  10.028   6.472   7.098
  370SOL    HW1 2942   9.940   6.450   7.129
  370SOL    HW2 2943  10.031   6.567   7.100
  371SOL     OW 2944  10.533   9.467  14.108
  371SOL    HW1 2945  10.604   9.490  14.049
  371SOL    HW2 2946  10.572   9.465  14.195
  372SOL     OW 2947  13.724   3.135   0.286
  372SOL    HW1 2948  13.745   3.217   0.330
  372SOL    HW2 2949  13.639   3.110   0.323
  373SOL     OW 2950   6.656   6.366   2.367
  373SOL    HW1 2951   6.621   6.287   2.409
  373SOL    HW2 2952   6.751   6.352   2.366
  374SOL     OW 2953  13.669   0.484  14.781
  374SOL    HW1 2954  13.728   0.528  14.719
  374SOL    HW2 2955  13.692   0.521  14.866
  375SOL     OW 2956   2.800   5.989   3.566
  375SOL    HW1 2957   2.745   6.012   3.641
  375SOL    HW2 2958   2.744   5.934   3.511
  376SOL     OW 2959   5.085   6.085   2.034
  376SOL    HW1 2960   5.136   6.036   2.098
  376SOL    HW2 2961   5.079   6.174   2.070
  377SOL     OW 2962   8.814  12.601   5.145
  377SOL    HW1 2963   8.804  12.690   5.112
  377SOL    HW2 2964   8.864  12.611   5.226
  378SOL     OW 2965   2.439   6.595   0.105
  378SOL    HW1 2966   2.358   6.573   0.058
  378SOL    HW2 2967   2.470   6.511   0.139
  379SOL     OW 2968   1.669   1.520   0.633
  379SOL    HW1 2969   1.737   1.566   0.682
  379SOL    HW2 2970   1.611   1.484   0.700
  380SOL     OW 2971  10.090   6.656  13.308
  380SOL    HW1 2972  10.147   6.729  13.331
  380SOL    HW2 2973  10.103   6.644  13.214
  381SOL     OW 2974   2.212   0.611   9.029
  381SOL    HW1 2975   2.192   0.538   8.971
  381SOL    HW2 2976   2.135   0.619   9.085
  382SOL     OW 2977   3.689  11.950   3.709
  382SOL    HW1 2978   3.623  12.017   3.724
  382SOL    HW2 2979   3.699  11.947   3.614
  383SOL     OW 2980   5.078  12.950  10.367
  383SOL    HW1 2981   5.061  12.965  10.274
  383SOL    HW2 2982   5.160  12.900  10.369
  384SOL     OW 2983   1.745   5.884   9.054
  384SOL    HW1 2984   1.691   5.840   9.119
  384SOL    HW2 2985   1.810   5.932   9.105
  385SOL     OW 2986   3.883   7.467   7.182
  385SOL    HW1 2987   3.845   7.542   7.226
  385SOL    HW2 2988   3.976   7.468   7.208
  386SOL     OW 2989  14.176   6.455   1.414
  386SOL    HW1 2990  14.235   6.395   1.369
  386SOL    HW2 2991  14.091   6.411   1.412
  387SOL     OW 2992   9.789  10.744   5.658
  387SOL    HW1 2993   9.868  10.741   5.604
  387SOL    HW2 2994   9.753  10.832   5.643
  388SOL     OW 2995   0.066  11.609   1.788
  388SOL    HW1 2996   0.019  11.569   1.861
  388SOL    HW2 2997   0.131  11.666   1.829
  389SOL     OW 2998   8.408  10.225   4.932
  389SOL    HW1 2999   8.384  10.234   5.025
  389SOL    HW2 3000   8.479  10.160   4.932
  390SOL     OW 3001  12.885  11.036   1.822
  390SOL    HW1 3002  12.838  10.988   1.754
  390SOL    HW2 3003  12.842  11.121   1.825
  391SOL     OW 3004  14.032   7.793  11.003
  391SOL    HW1 3005  13.949   7.747  10.984
  391SOL    HW2 3006  14.011   7.886  10.993
  392SOL     OW 3007   6.892  12.655   3.452
  392SOL    HW1 3008   6.902  12.580   3.511
  392SOL    HW2 3009   6.799  12.654   3.427
  393SOL     OW 3010   3.546   2.638   9.066
  393SOL    HW1 3011   3.453   2.641   9.044
  393SOL    HW2 3012   3.590   2.644   8.982
  394SOL     OW 3013   1.170  12.287   5.244
  394SOL    HW1 3014   1.220  12.272   5.163
  394SOL    HW2 3015   1.081  12.257   5.223
  395SOL     OW 3016   2.333   5.883   5.198
  395SOL    HW1 3017   2.352   5.813   5.260
  395SOL    HW2 3018   2.246   5.863   5.164
  396SOL     OW 3019  14.263   0.416   2.596
  396SOL    HW1 3020  14.274   0.322   2.610
  396SOL    HW2 3021  14.288   0.455   2.679
  397SOL     OW 3022   3.376   6.030   9.438
  397SOL    HW1 3023   3.379   6.069   9.351
  397SOL    HW2 3024   3.445   5.963   9.437
  398SOL     OW 3025   8.542  12.205  12.965
  398SOL    HW1 3026   8.602  12.140  13.001
  398SOL    HW2 3027   8.572  12.218  12.875
  399SOL     OW 3028   1.786  14.742  10.005
  399SOL    HW1 3029   1.735  14.687  10.065
  399SOL    HW2 3030   1.861  14.687   9.980
  400SOL     OW 3031   3.866  12.878   5.668
  400SOL    HW1 3032   3.844  12.786   5.652
  400SOL    HW2 3033   3.860  12.887   5.763
  401SOL     OW 3034   2.155  14.138  10.188
  401SOL    HW1 3035   2.169  14.067  10.126
  401SOL    HW2 3036   2.240  14.152  10.228
  402SOL     OW 3037   8.325   8.346  11.741
  402SOL    HW1 3038   8.322   8.259  11.701
  402SOL    HW2 3039   8.259   8.343  11.810
  403SOL     OW 3040   3.574   5.380   6.136
  403SOL    HW1 3041   3.518   5.448   6.173
  403SOL    HW2 3042   3.663   5.412   6.148
  404SOL     OW 3043   5.514  11.361  10.060
  404SOL    HW1 3044   5.419  11.360  10.066
  404SOL    HW2 3045   5.537  11.454  10.063
  405SOL     OW 3046   2.039   9.943   3.357
  405SOL    HW1 3047   1.944   9.926   3.356
  405SOL    HW2 3048   2.055   9.983   3.442
  406SOL     OW 3049   8.749  10.877   6.105
  406SOL    HW1 3050   8.705  10.917   6.029
  406SOL    HW2 3051   8.742  10.943   6.174
  407SOL     OW 3052   3.800  10.384  10.872
  407SOL    HW1 3053   3.858  10.460  10.867
  407SOL    HW2 3054   3.772  10.381  10.963
  408SOL     OW 3055   3.084  11.765   7.996
  408SOL    HW1 3056   3.175  11.751   8.022
  408SOL    HW2 3057   3.034  11.704   8.050
  409SOL     OW 3058   5.571  13.677   3.691
  409SOL    HW1 3059   5.609  13.654   3.776
  409SOL    HW2 3060   5.479  13.695   3.710
  410SOL     OW 3061  13.828   0.390   0.723
  410SOL    HW1 3062  13.849   0.332   0.650
  410SOL    HW2 3063  13.913   0.423   0.752
  411SOL     OW 3064   4.804   2.439   3.398
  411SOL    HW1 3065   4.805   2.532   3.376
  411SOL    HW2 3066   4.740   2.401   3.338
  412SOL     OW 3067   2.252   6.584   2.250
  412SOL    HW1 3068   2.285   6.504   2.209
  412SOL    HW2 3069   2.293   6.655   2.201
  413SOL     OW 3070  13.175   5.055   1.782
  413SOL    HW1 3071  13.187   5.144   1.750
  413SOL    HW2 3072  13.257   5.033   1.826
  414SOL     OW 3073  13.029   4.430  13.402
  414SOL    HW1 3074  12.971   4.504  13.387
  414SOL    HW2 3075  13.002   4.364  13.337
  415SOL     OW 3076   0.796   6.431   2.399
  415SOL    HW1 3077   0.770   6.447   2.308
  415SOL    HW2 3078   0.714   6.409   2.444
  416SOL     OW 3079   9.220  14.621   2.293
  416SOL    HW1 3080   9.196  14.540   2.339
  416SOL    HW2 3081   9.139  14.651   2.251
  417SOL     OW 3082   2.476   9.817   4.530
  417SOL    HW1 3083   2.421   9.739   4.534
  417SOL    HW2 3084   2.551   9.797   4.585
  418SOL     OW 3085  11.544   5.754   3.539
  418SOL    HW1 3086  11.614   5.718   3.593
  418SOL    HW2 3087  11.579   5.751   3.450
  419SOL     OW 3088   2.535  11.005  12.172
  419SOL    HW1 3089   2.556  11.081  12.116
  419SOL    HW2 3090   2.500  11.044  12.252
  420SOL     OW 3091   2.595   2.468   4.323
  420SOL    HW1 3092   2.686   2.441   4.336
  420SOL    HW2 3093   2.559   2.401   4.264
  421SOL     OW 3094  11.609   7.501   7.326
  421SOL    HW1 3095  11.636   7.577   7.377
  421SOL    HW2 3096  11.637   7.426   7.379
  422SOL     OW 3097   0.189   8.763   6.757
  422SOL    HW1 3098   0.226   8.778   6.670
  422SOL    HW2 3099   0.264   8.735   6.810
  423SOL     OW 3100   5.253  11.185  11.161
  423SOL    HW1 3101   5.321  11.119  11.167
  423SOL    HW2 3102   5.292  11.263  11.201
  424SOL     OW 3103   5.125   9.817  10.397
  424SOL    HW1 3104   5.151   9.768  10.319
  424SOL    HW2 3105   5.131   9.753  10.468
  425SOL     OW 3106   8.604   6.591  11.732
  425SOL    HW1 3107   8.692   6.611  11.702
  425SOL    HW2 3108   8.569   6.675  11.762
  426SOL     OW 3109   1.536  13.325   1.027
  426SOL    HW1 3110   1.533  13.421   1.031
  426SOL    HW2 3111   1.446  13.298   1.044
  427SOL     OW 3112  12.063  10.247   3.450
  427SOL    HW1 3113  12.090  10.155   3.443
  427SOL    HW2 3114  11.996  10.247   3.519
  428SOL     OW 3115   7.315   9.639   8.158
  428SOL    HW1 3116   7.232   9.596   8.173
  428SOL    HW2 3117   7.306   9.726   8.198
  429SOL     OW 3118   5.047   3.017   6.235
  429SOL    HW1 3119   5.013   3.048   6.319
  429SOL    HW2 3120   5.110   2.949   6.259
  430SOL     OW 3121  11.747   0.397   9.655
  430SOL    HW1 3122  11.816   0.417   9.592
  430SOL    HW2 3123  11.670   0.378   9.602
  431SOL     OW 3124   7.350  10.748  10.823
  431SOL    HW1 3125   7.293  10.815  10.786
  431SOL    HW2 3126   7.433  10.760  10.777
  432SOL     OW 3127   7.155  11.824   5.783
  432SOL    HW1 3128   7.138  11.881   5.707
  432SOL    HW2 3129   7.220  11.873   5.835
  433SOL     OW 3130   9.893   2.827  12.641
  433SOL    HW1 3131   9.920   2.896  12.580
  433SOL    HW2 3132   9.972   2.806  12.690
  434SOL     OW 3133  10.291   9.986   0.177
  434SOL    HW1 3134  10.282   9.903   0.131
  434SOL    HW2 3135  10.219   9.988   0.240
  435SOL     OW 3136   7.883   6.209   8.820
  435SOL    HW1 3137   7.818   6.221   8.750
  435SOL    HW2 3138   7.956   6.264   8.794
  436SOL     OW 3139   5.589  12.704   5.735
  436SOL    HW1 3140   5.633  12.637   5.788
  436SOL    HW2 3141   5.496  12.681   5.739
  437SOL     OW 3142   7.899   6.468  14.298
  437SOL    HW1 3143   7.906   6.552  14.344
  437SOL    HW2 3144   7.838   6.416  14.350
  438SOL     OW 3145   2.204   9.805   7.512
  438SOL    HW1 3146   2.256   9.826   7.435
  438SOL    HW2 3147   2.268   9.795   7.583
  439SOL     OW 3148   7.314   6.409   2.031
  439SOL    HW1 3149   7.258   6.486   2.024
  439SOL    HW2 3150   7.264   6.340   1.987
  440SOL     OW 3151  11.757   0.169  10.872
  440SOL    HW1 3152  11.776   0.083  10.835
  440SOL    HW2 3153  11.808   0.172  10.953
  441SOL     OW 3154   4.708  13.852   7.730
  441SOL    HW1 3155   4.689  13.760   7.713
  441SOL    HW2 3156   4.764  13.879   7.658
  442SOL     OW 3157   9.600   2.447   9.878
  442SOL    HW1 3158   9.620   2.468   9.969
  442SOL    HW2 3159   9.608   2.530   9.831
  443SOL     OW 3160  11.983   4.592   9.436
  443SOL    HW1 3161  12.000   4.637   9.520
  443SOL    HW2 3162  11.893   4.562   9.443
  444SOL     OW 3163  14.353   5.341   0.546
  444SOL    HW1 3164  14.289   5.318   0.613
  444SOL    HW2 3165  14.328   5.290   0.470
  445SOL     OW 3166   6.167   1.173   6.260
  445SOL    HW1 3167   6.245   1.228   6.265
  445SOL    HW2 3168   6.098   1.225   6.301
  446SOL     OW 3169   8.827  13.927   9.106
  446SOL    HW1 3170   8.862  13.926   9.017
  446SOL    HW2 3171   8.793  14.016   9.118
  447SOL     OW 3172  11.172   3.838   6.206
  447SOL    HW1 3173  11.115   3.875   6.273
  447SOL    HW2 3174  11.201   3.754   6.242
  448SOL     OW 3175  10.366   6.183   0.896
  448SOL    HW1 3176  10.410   6.264   0.873
  448SOL    HW2 3177  10.434   6.130   0.938
  449SOL     OW 3178   4.478  14.335  12.061
  449SOL    HW1 3179   4.431  14.330  11.978
  449SOL    HW2 3180   4.429  14.277  12.119
  450SOL     OW 3181   5.918   5.370  13.467
  450SOL    HW1 3182   5.938   5.358  13.375
  450SOL    HW2 3183   5.831   5.410  13.468
  451SOL     OW 3184  11.170  14.551   5.528
  451SOL    HW1 3185  11.091  14.534   5.478
  451SOL    HW2 3186  11.185  14.645   5.519
  452SOL     OW 3187  13.710   2.850   8.758
  452SOL    HW1 3188  13.754   2.766   8.763
  452SOL    HW2 3189  13.639   2.844   8.823
  453SOL     OW 3190   9.598  13.464  14.130
  453SOL    HW1 3191   9.563  13.471  14.041
  453SOL    HW2 3192   9.614  13.370  14.142
  454SOL     OW 3193   0.846   7.198  11.904
  454SOL    HW1 3194   0.874   7.164  11.819
  454SOL    HW2 3195   0.870   7.130  11.966
  455SOL     OW 3196   4.133  11.158   4.979
  455SOL    HW1 3197   4.117  11.147   5.073
  455SOL    HW2 3198   4.071  11.225   4.951
  456SOL     OW 3199   6.298   4.578   3.758
  456SOL    HW1 3200   6.219   4.631   3.752
  456SOL    HW2 3201   6.336   4.581   3.670
  457SOL     OW 3202  10.388   9.219   0.768
  457SOL    HW1 3203  10.370   9.295   0.712
  457SOL    HW2 3204  10.472   9.240   0.809
  458SOL     OW 3205   4.800   4.262   8.616
  458SOL    HW1 3206   4.860   4.276   8.689
  458SOL    HW2 3207   4.811   4.170   8.593
  459SOL     OW 3208   4.875   0.439   6.191
  459SOL    HW1 3209   4.831   0.513   6.234
  459SOL    HW2 3210   4.882   0.372   6.259
  460SOL     OW 3211   0.329  11.671  14.839
  460SOL    HW1 3212   0.310  11.605  14.771
  460SOL    HW2 3213   0.384  11.624   0.020
  461SOL     OW 3214   5.131   6.267  10.847
  461SOL    HW1 3215   5.184   6.312  10.913
  461SOL    HW2 3216   5.090   6.338  10.797
  462SOL     OW 3217  13.937   9.401   8.712
  462SOL    HW1 3218  14.014   9.441   8.752
  462SOL    HW2 3219  13.870   9.470   8.715
  463SOL     OW 3220   9.344   5.623   0.014
  463SOL    HW1 3221   9.310   5.544  14.856
  463SOL    HW2 3222   9.350   5.686  14.825
  464SOL     OW 3223   3.613   9.837   6.546
  464SOL    HW1 3224   3.601   9.828   6.641
  464SOL    HW2 3225   3.659   9.919   6.535
  465SOL     OW 3226  11.920  14.253   0.140
  465SOL    HW1 3227  11.868  14.269   0.219
  465SOL    HW2 3228  12.011  14.254   0.171
  466SOL     OW 3229   6.856   4.747   9.893
  466SOL    HW1 3230   6.788   4.684   9.917
  466SOL    HW2 3231   6.838   4.768   9.801
  467SOL     OW 3232  11.311  14.195   8.525
  467SOL    HW1 3233  11.310  14.107   8.489
  467SOL    HW2 3234  11.249  14.191   8.599
  468SOL     OW 3235   0.192  12.043   4.934
  468SOL    HW1 3236   0.131  12.116   4.919
  468SOL    HW2 3237   0.212  12.010   4.847
  469SOL     OW 3238   3.246   2.096   2.953
  469SOL    HW1 3239   3.227   2.150   2.876
  469SOL    HW2 3240   3.267   2.010   2.917
  470SOL     OW 3241  14.475  10.230   7.098
  470SOL    HW1 3242  14.435  10.295   7.041
  470SOL    HW2 3243  14.445  10.252   7.186
  471SOL     OW 3244   5.804   1.854   2.198
  471SOL    HW1 3245   5.733   1.867   2.261
  471SOL    HW2 3246   5.763   1.807   2.125
  472SOL     OW 3247   7.758   9.940   0.249
  472SOL    HW1 3248   7.694   9.870   0.237
  472SOL    HW2 3249   7.795   9.925   0.336
  473SOL     OW 3250  12.397   2.592   3.823
  473SOL    HW1 3251  12.475   2.594   3.877
  473SOL    HW2 3252  12.415   2.524   3.757
  474SOL     OW 3253   5.683   0.851   3.846
  474SOL    HW1 3254   5.666   0.780   3.784
  474SOL    HW2 3255   5.623   0.921   3.820
  475SOL     OW 3256  10.538   6.524   4.506
  475SOL    HW1 3257  10.599   6.592   4.533
  475SOL    HW2 3258  10.594   6.449   4.485
  476SOL     OW 3259   5.510   8.412   9.242
  476SOL    HW1 3260   5.545   8.496   9.212
  476SOL    HW2 3261   5.415   8.422   9.235
  477SOL     OW 3262   5.301   3.713   5.834
  477SOL    HW1 3263   5.285   3.807   5.847
  477SOL    HW2 3264   5.216   3.678   5.807
  478SOL     OW 3265   4.320  12.955   7.532
  478SOL    HW1 3266   4.255  12.970   7.464
  478SOL    HW2 3267   4.285  12.883   7.584
  479SOL     OW 3268   5.148   4.793   3.385
  479SOL    HW1 3269   5.238   4.791   3.353
  479SOL    HW2 3270   5.152   4.849   3.463
  480SOL     OW 3271   9.099   4.050  12.443
  480SOL    HW1 3272   9.072   4.050  12.352
  480SOL    HW2 3273   9.195   4.046  12.440
  481SOL     OW 3274  13.273   0.435   2.303
  481SOL    HW1 3275  13.184   0.402   2.308
  481SOL    HW2 3276  13.323   0.380   2.364
  482SOL     OW 3277   9.750   9.076   4.447
  482SOL    HW1 3278   9.682   9.078   4.379
  482SOL    HW2 3279   9.774   9.168   4.458
  483SOL     OW 3280   1.808   1.468  13.986
  483SOL    HW1 3281   1.892   1.476  14.031
  483SOL    HW2 3282   1.745   1.449  14.056
  484SOL     OW 3283   0.638   5.317   4.452
  484SOL    HW1 3284   0.730   5.291   4.462
  484SOL    HW2 3285   0.600   5.249   4.397
  485SOL     OW 3286   1.795  10.690   2.846
  485SOL    HW1 3287   1.846  10.769   2.865
  485SOL    HW2 3288   1.711  10.723   2.814
  486SOL     OW 3289   2.631   6.565  14.568
  486SOL    HW1 3290   2.544   6.527  14.579
  486SOL    HW2 3291   2.674   6.508  14.504
  487SOL     OW 3292   3.184   9.954  12.364
  487SOL    HW1 3293   3.189  10.018  12.435
  487SOL    HW2 3294   3.095   9.919  12.369
  488SOL     OW 3295   3.445  12.683  11.019
  488SOL    HW1 3296   3.522  12.691  11.075
  488SOL    HW2 3297   3.375  12.656  11.078
  489SOL     OW 3298  11.489  10.690   3.726
  489SOL    HW1 3299  11.418  10.739   3.768
  489SOL    HW2 3300  11.568  10.740   3.745
  490SOL     OW 3301  11.587  13.504   7.570
  490SOL    HW1 3302  11.581  13.414   7.600
  490SOL    HW2 3303  11.506  13.520   7.522
  491SOL     OW 3304   7.556   8.457   4.211
  491SOL    HW1 3305   7.574   8.551   4.204
  491SOL    HW2 3306   7.597   8.430   4.293
  492SOL     OW 3307  11.259  11.105   4.757
  492SOL    HW1 3308  11.237  11.165   4.829
  492SOL    HW2 3309  11.347  11.074   4.779
  493SOL     OW 3310  14.762  14.097   1.441
  493SOL    HW1 3311  14.707  14.175   1.454
  493SOL    HW2 3312  14.812  14.089   1.521
  494SOL     OW 3313   1.066   9.451   4.208
  494SOL    HW1 3314   1.119   9.513   4.258
  494SOL    HW2 3315   1.046   9.380   4.269
  495SOL     OW 3316  12.596   9.172   7.693
  495SOL    HW1 3317  12.627   9.253   7.734
  495SOL    HW2 3318  12.625   9.103   7.751
  496SOL     OW 3319   1.571  13.081   9.442
  496SOL    HW1 3320   1.567  12.998   9.489
  496SOL    HW2 3321   1.525  13.143   9.499
  497SOL     OW 3322   7.523   4.531   4.009
  497SOL    HW1 3323   7.557   4.458   3.958
  497SOL    HW2 3324   7.508   4.494   4.097
  498SOL     OW 3325   3.716  14.134   9.578
  498SOL    HW1 3326   3.641  14.193   9.581
  498SOL    HW2 3327   3.783  14.178   9.632
  499SOL     OW 3328  14.511  10.401   9.555
  499SOL    HW1 3329  14.597  10.408   9.514
  499SOL    HW2 3330  14.449  10.413   9.483
  500SOL     OW 3331  12.946   0.502  11.307
  500SOL    HW1 3332  12.936   0.597  11.300
  500SOL    HW2 3333  12.867   0.474  11.354
  501SOL     OW 3334  13.977  12.360   0.643
  501SOL    HW1 3335  13.948  12.314   0.722
  501SOL    HW2 3336  13.914  12.431   0.632
  502SOL     OW 3337  12.757   7.846   9.156
  502SOL    HW1 3338  12.851   7.844   9.172
  502SOL    HW2 3339  12.721   7.779   9.214
  503SOL     OW 3340   6.550  11.259   8.514
  503SOL    HW1 3341   6.525  11.315   8.587
  503SOL    HW2 3342   6.476  11.262   8.454
  504SOL     OW 3343   5.722   4.205   0.255
  504SOL    HW1 3344   5.809   4.227   0.288
  504SOL    HW2 3345   5.677   4.289   0.245
  505SOL     OW 3346  10.964   7.934   9.580
  505SOL    HW1 3347  10.884   7.925   9.529
  505SOL    HW2 3348  10.935   7.939   9.671
  506SOL     OW 3349   9.563   7.422  13.432
  506SOL    HW1 3350   9.603   7.492  13.484
  506SOL    HW2 3351   9.636   7.365  13.407
  507SOL     OW 3352  14.367  13.098   4.792
  507SOL    HW1 3353  14.279  13.096   4.754
  507SOL    HW2 3354  14.353  13.097   4.886
  508SOL     OW 3355   4.953   7.952   6.275
  508SOL    HW1 3356   4.953   7.989   6.363
  508SOL    HW2 3357   5.044   7.927   6.259
  509SOL     OW 3358   0.040   1.855   3.791
  509SOL    HW1 3359   0.104   1.791   3.760
  509SOL    HW2 3360   0.093   1.925   3.830
  510SOL     OW 3361   0.115   9.321  12.717
  510SOL    HW1 3362   0.092   9.403  12.673
  510SOL    HW2 3363   0.034   9.270  12.716
  511SOL     OW 3364   5.948  13.532   0.750
  511SOL    HW1 3365   5.862  13.574   0.742
  511SOL    HW2 3366   5.928  13.439   0.761
  512SOL     OW 3367  13.743   9.837   7.574
  512SOL    HW1 3368  13.776   9.924   7.595
  512SOL    HW2 3369  13.806   9.801   7.511
  513SOL     OW 3370  12.457   9.992   5.276
  513SOL    HW1 3371  12.520  10.001   5.205
  513SOL    HW2 3372  12.404   9.916   5.252
  514SOL     OW 3373  10.445  14.237   5.122
  514SOL    HW1 3374  10.510  14.241   5.192
  514SOL    HW2 3375  10.470  14.161   5.070
  515SOL     OW 3376   4.496   1.159   6.602
  515SOL    HW1 3377   4.582   1.202   6.610
  515SOL    HW2 3378   4.443   1.198   6.671
  516SOL     OW 3379  11.847   9.432   3.919
  516SOL    HW1 3380  11.835   9.397   4.007
  516SOL    HW2 3381  11.843   9.356   3.862
  517SOL     OW 3382  10.157   2.302   5.722
  517SOL    HW1 3383  10.183   2.393   5.711
  517SOL    HW2 3384  10.103   2.282   5.645
  518SOL     OW 3385   1.190   4.283   0.617
  518SOL    HW1 3386   1.108   4.324   0.588
  518SOL    HW2 3387   1.253   4.355   0.615
  519SOL     OW 3388   1.000  11.524  13.189
  519SOL    HW1 3389   1.013  11.541  13.282
  519SOL    HW2 3390   1.084  11.542  13.149
  520SOL     OW 3391   5.717  13.273   7.452
  520SOL    HW1 3392   5.634  13.284   7.499
  520SOL    HW2 3393   5.778  13.241   7.517
  521SOL     OW 3394  14.123   1.629   6.322
  521SOL    HW1 3395  14.130   1.585   6.237
  521SOL    HW2 3396  14.162   1.567   6.384
  522SOL     OW 3397  12.314   2.516   6.760
  522SOL    HW1 3398  12.382   2.458   6.725
  522SOL    HW2 3399  12.321   2.506   6.855
  523SOL     OW 3400   7.681   1.451  12.703
  523SOL    HW1 3401   7.590   1.446  12.732
  523SOL    HW2 3402   7.677   1.504  12.623
  524SOL     OW 3403   9.273  13.896   9.198
  524SOL    HW1 3404   9.208  13.856   9.255
  524SOL    HW2 3405   9.228  13.972   9.161
  525SOL     OW 3406  14.089   8.191  13.618
  525SOL    HW1 3407  14.031   8.126  13.657
  525SOL    HW2 3408  14.076   8.182  13.524
  526SOL     OW 3409   5.049   7.558  14.132
  526SOL    HW1 3410   5.132   7.515  14.150
  526SOL    HW2 3411   5.064   7.606  14.051
  527SOL     OW 3412   6.990   3.928  13.646
  527SOL    HW1 3413   7.017   3.948  13.735
  527SOL    HW2 3414   7.072   3.918  13.597
  528SOL     OW 3415   4.679  13.323   4.542
  528SOL    HW1 3416   4.661  13.234   4.511
  528SOL    HW2 3417   4.774  13.332   4.535
  529SOL     OW 3418   6.380   7.505   0.656
  529SOL    HW1 3419   6.285   7.501   0.650
  529SOL    HW2 3420   6.404   7.431   0.713
  530SOL     OW 3421  10.280   1.996   0.057
  530SOL    HW1 3422  10.278   1.922   0.118
  530SOL    HW2 3423  10.372   2.020   0.051
  531SOL     OW 3424  11.396  13.009  11.018
  531SOL    HW1 3425  11.364  12.972  10.936
  531SOL    HW2 3426  11.428  13.096  10.994
  532SOL     OW 3427  12.741  10.642   8.839
  532SOL    HW1 3428  12.766  10.646   8.746
  532SOL    HW2 3429  12.762  10.553   8.866
  533SOL     OW 3430   6.579   6.530   7.286
  533SOL    HW1 3431   6.533   6.560   7.364
  533SOL    HW2 3432   6.544   6.443   7.269
  534SOL     OW 3433  14.195  10.569   8.286
  534SOL    HW1 3434  14.215  10.622   8.208
  534SOL    HW2 3435  14.189  10.480   8.252
  535SOL     OW 3436   4.883   1.958   4.239
  535SOL    HW1 3437   4.845   1.953   4.327
  535SOL    HW2 3438   4.866   2.048   4.211
  536SOL     OW 3439  14.514   8.537   7.449
  536SOL    HW1 3440  14.551   8.613   7.494
  536SOL    HW2 3441  14.424   8.562   7.430
  537SOL     OW 3442   5.475   5.315   3.724
  537SOL    HW1 3443   5.453   5.231   3.684
  537SOL    HW2 3444   5.392   5.349   3.756
  538SOL     OW 3445  13.326   3.150  11.467
  538SOL    HW1 3446  13.277   3.211  11.522
  538SOL    HW2 3447  13.403   3.127  11.520
  539SOL     OW 3448   6.930   1.279   7.827
  539SOL    HW1 3449   6.928   1.208   7.891
  539SOL    HW2 3450   7.011   1.325   7.845
  540SOL     OW 3451   0.501   4.067   8.501
  540SOL    HW1 3452   0.444   4.034   8.570
  540SOL    HW2 3453   0.588   4.068   8.541
  541SOL     OW 3454   8.212   2.748  10.591
  541SOL    HW1 3455   8.219   2.659  10.625
  541SOL    HW2 3456   8.303   2.779  10.588
  542SOL     OW 3457   8.540  11.647  13.007
  542SOL    HW1 3458   8.613  11.672  13.064
  542SOL    HW2 3459   8.556  11.555  12.986
  543SOL     OW 3460   6.482   9.742   5.739
  543SOL    HW1 3461   6.554   9.697   5.695
  543SOL    HW2 3462   6.526   9.812   5.789
  544SOL     OW 3463  11.827  12.192  11.223
  544SOL    HW1 3464  11.841  12.279  11.185
  544SOL    HW2 3465  11.913  12.167  11.258
  545SOL     OW 3466   3.763   3.837   7.982
  545SOL    HW1 3467   3.716   3.906   8.030
  545SOL    HW2 3468   3.839   3.817   8.037
  546SOL     OW 3469   9.258  14.517   0.201
  546SOL    HW1 3470   9.353  14.512   0.198
  546SOL    HW2 3471   9.236  14.592   0.146
  547SOL     OW 3472   5.929   4.686  10.246
  547SOL    HW1 3473   5.866   4.618  10.268
  547SOL    HW2 3474   5.954   4.666  10.155
  548SOL     OW 3475  11.900   7.516   3.038
  548SOL    HW1 3476  11.990   7.524   3.069
  548SOL    HW2 3477  11.909   7.486   2.948
  549SOL     OW 3478  12.720  11.458   5.499
  549SOL    HW1 3479  12.773  11.410   5.435
  549SOL    HW2 3480  12.743  11.420   5.583
  550SOL     OW 3481   1.006   1.454   4.008
  550SOL    HW1 3482   1.054   1.371   4.012
  550SOL    HW2 3483   1.072   1.520   4.031
  551SOL     OW 3484   0.701  10.022   6.728
  551SOL    HW1 3485   0.679   9.999   6.818
  551SOL    HW2 3486   0.726   9.938   6.688
  552SOL     OW 3487  13.285   0.285  12.694
  552SOL    HW1 3488  13.202   0.305  12.653
  552SOL    HW2 3489  13.307   0.197  12.662
  553SOL     OW 3490   1.862  14.007  14.631
  553SOL    HW1 3491   1.774  14.024  14.597
  553SOL    HW2 3492   1.913  14.083  14.603
  554SOL     OW 3493  13.470   1.181   3.397
  554SOL    HW1 3494  13.534   1.252   3.405
  554SOL    HW2 3495  13.392   1.223   3.361
  555SOL     OW 3496   9.608   7.376   3.760
  555SOL    HW1 3497   9.587   7.299   3.707
  555SOL    HW2 3498   9.529   7.393   3.812
  556SOL     OW 3499  11.147   6.264  12.721
  556SOL    HW1 3500  11.235   6.233  12.699
  556SOL    HW2 3501  11.097   6.254  12.640
  557SOL     OW 3502   9.173   9.755   7.119
  557SOL    HW1 3503   9.213   9.723   7.200
  557SOL    HW2 3504   9.097   9.805   7.149
  558SOL     OW 3505   3.650  10.007   2.849
  558SOL    HW1 3506   3.705  10.073   2.806
  558SOL    HW2 3507   3.657  10.026   2.942
  559SOL     OW 3508  10.073   3.017   0.749
  559SOL    HW1 3509   9.996   3.071   0.767
  559SOL    HW2 3510  10.099   3.041   0.661
  560SOL     OW 3511  11.185  10.807   4.078
  560SOL    HW1 3512  11.231  10.861   4.142
  560SOL    HW2 3513  11.127  10.751   4.130
  561SOL     OW 3514   4.432   7.702   7.109
  561SOL    HW1 3515   4.369   7.656   7.053
  561SOL    HW2 3516   4.379   7.731   7.184
  562SOL     OW 3517  12.133  13.581   9.137
  562SOL    HW1 3518  12.149  13.668   9.174
  562SOL    HW2 3519  12.083  13.535   9.204
  563SOL     OW 3520   9.832  14.664   8.221
  563SOL    HW1 3521   9.898  14.727   8.251
  563SOL    HW2 3522   9.850  14.585   8.273
  564SOL     OW 3523   9.566  12.263   2.237
  564SOL    HW1 3524   9.564  12.213   2.319
  564SOL    HW2 3525   9.531  12.202   2.171
  565SOL     OW 3526   8.570   8.278   9.286
  565SOL    HW1 3527   8.584   8.245   9.197
  565SOL    HW2 3528   8.645   8.335   9.303
  566SOL     OW 3529   3.800   9.115   2.188
  566SOL    HW1 3530   3.737   9.049   2.217
  566SOL    HW2 3531   3.765   9.147   2.105
  567SOL     OW 3532  10.541   8.914  13.629
  567SOL    HW1 3533  10.574   8.969  13.700
  567SOL    HW2 3534  10.620   8.877  13.589
  568SOL     OW 3535   3.060   5.140   4.093
  568SOL    HW1 3536   3.016   5.203   4.150
  568SOL    HW2 3537   3.010   5.059   4.104
  569SOL     OW 3538  13.163  12.524   3.862
  569SOL    HW1 3539  13.125  12.580   3.929
  569SOL    HW2 3540  13.170  12.438   3.903
  570SOL     OW 3541  14.226   4.256   6.966
  570SOL    HW1 3542  14.241   4.345   6.935
  570SOL    HW2 3543  14.247   4.260   7.060
  571SOL     OW 3544  13.342   1.228   9.540
  571SOL    HW1 3545  13.386   1.313   9.541
  571SOL    HW2 3546  13.255   1.246   9.504
  572SOL     OW 3547   6.482   6.606   1.675
  572SOL    HW1 3548   6.573   6.579   1.671
  572SOL    HW2 3549   6.466   6.624   1.768
  573SOL     OW 3550  10.040   9.762  14.310
  573SOL    HW1 3551  10.034   9.808  14.227
  573SOL    HW2 3552   9.962   9.788  14.358
  574SOL     OW 3553  11.105   1.623  12.012
  574SOL    HW1 3554  11.168   1.573  12.064
  574SOL    HW2 3555  11.022   1.611  12.057
  575SOL     OW 3556   8.967  12.273   0.851
  575SOL    HW1 3557   8.999  12.184   0.838
  575SOL    HW2 3558   9.000  12.322   0.775
  576SOL     OW 3559   1.795   0.496   5.816
  576SOL    HW1 3560   1.815   0.586   5.840
  576SOL    HW2 3561   1.745   0.462   5.891
  577SOL     OW 3562   8.215   2.837  11.095
  577SOL    HW1 3563   8.305   2.839  11.061
  577SOL    HW2 3564   8.166   2.786  11.030
  578SOL     OW 3565   6.317   9.953   0.431
  578SOL    HW1 3566   6.265   9.920   0.504
  578SOL    HW2 3567   6.400   9.982   0.471
  579SOL     OW 3568   2.429   2.608   0.620
  579SOL    HW1 3569   2.398   2.684   0.669
  579SOL    HW2 3570   2.506   2.641   0.572
  580SOL     OW 3571   7.230  12.568   4.540
  580SOL    HW1 3572   7.307  12.572   4.483
  580SOL    HW2 3573   7.173  12.504   4.498
  581SOL     OW 3574  14.040   1.800   1.998
  581SOL    HW1 3575  14.094   1.879   2.003
  581SOL    HW2 3576  14.004   1.789   2.086
  582SOL     OW 3577   5.916   9.936   6.782
  582SOL    HW1 3578   5.967   9.912   6.704
  582SOL    HW2 3579   5.830   9.897   6.767
  583SOL     OW 3580   4.625   8.339  10.039
  583SOL    HW1 3581   4.684   8.281   9.992
  583SOL    HW2 3582   4.606   8.293  10.121
  584SOL     OW 3583   6.294   6.697  11.600
  584SOL    HW1 3584   6.264   6.733  11.684
  584SOL    HW2 3585   6.360   6.632  11.625
  585SOL     OW 3586   9.138  12.134  10.432
  585SOL    HW1 3587   9.077  12.069  10.465
  585SOL    HW2 3588   9.158  12.190  10.507
  586SOL     OW 3589   5.419   1.472   1.532
  586SOL    HW1 3590   5.477   1.406   1.570
  586SOL    HW2 3591   5.447   1.478   1.441
  587SOL     OW 3592  12.156   2.862   6.557
  587SOL    HW1 3593  12.207   2.879   6.478
  587SOL    HW2 3594  12.148   2.948   6.599
  588SOL     OW 3595   3.766  12.302  12.483
  588SOL    HW1 3596   3.784  12.216  12.520
  588SOL    HW2 3597   3.745  12.286  12.391
  589SOL     OW 3598   5.201   3.827   0.103
  589SOL    HW1 3599   5.153   3.895   0.056
  589SOL    HW2 3600   5.236   3.872   0.180
  590SOL     OW 3601   3.357   8.764   3.845
  590SOL    HW1 3602   3.380   8.685   3.894
  590SOL    HW2 3603   3.383   8.746   3.755
  591SOL     OW 3604   3.274   4.196   0.906
  591SOL    HW1 3605   3.188   4.226   0.875
  591SOL    HW2 3606   3.255   4.149   0.987
  592SOL     OW 3607  12.777   3.037  12.819
  592SOL    HW1 3608  12.839   3.109  12.830
  592SOL    HW2 3609  12.706   3.074  12.766
  593SOL     OW 3610  10.953  13.223  11.204
  593SOL    HW1 3611  11.027  13.273  11.238
  593SOL    HW2 3612  10.877  13.280  11.218
  594SOL     OW 3613   9.057   3.075   6.113
  594SOL    HW1 3614   9.033   2.988   6.081
  594SOL    HW2 3615   9.132   3.060   6.171
  595SOL     OW 3616  11.770  12.827   8.270
  595SOL    HW1 3617  11.817  12.910   8.274
  595SOL    HW2 3618  11.741  12.820   8.179
  596SOL     OW 3619  12.681   1.361  13.045
  596SOL    HW1 3620  12.707   1.422  13.115
  596SOL    HW2 3621  12.751   1.296  13.043
  597SOL     OW 3622   2.614  12.592  11.673
  597SOL    HW1 3623   2.656  12.644  11.742
  597SOL    HW2 3624   2.590  12.510  11.716
  598SOL     OW 3625   4.597   2.207   9.094
  598SOL    HW1 3626   4.551   2.287   9.069
  598SOL    HW2 3627   4.670   2.201   9.033
  599SOL     OW 3628   4.685   0.731   2.669
  599SOL    HW1 3629   4.602   0.685   2.687
  599SOL    HW2 3630   4.751   0.662   2.672
  600SOL     OW 3631   3.725   3.509   3.742
  600SOL    HW1 3632   3.796   3.469   3.791
  600SOL    HW2 3633   3.729   3.602   3.765
  601SOL     OW 3634  14.713   2.263   4.994
  601SOL    HW1 3635  14.747   2.186   4.948
  601SOL    HW2 3636  14.787   2.295   5.045
  602SOL     OW 3637   7.993   4.537  11.798
  602SOL    HW1 3638   8.010   4.523  11.891
  602SOL    HW2 3639   7.954   4.624  11.793
  603SOL     OW 3640   5.360   4.229   9.124
  603SOL    HW1 3641   5.416   4.269   9.191
  603SOL    HW2 3642   5.290   4.187   9.174
  604SOL     OW 3643   8.250   9.001  13.762
  604SOL    HW1 3644   8.180   9.023  13.822
  604SOL    HW2 3645   8.256   8.905  13.764
  605SOL     OW 3646   8.651   5.629  13.779
  605SOL    HW1 3647   8.667   5.600  13.689
  605SOL    HW2 3648   8.559   5.606  13.795
  606SOL     OW 3649   1.704   8.467   5.212
  606SOL    HW1 3650   1.745   8.407   5.274
  606SOL    HW2 3651   1.762   8.466   5.136
  607SOL     OW 3652   7.679   4.390   7.655
  607SOL    HW1 3653   7.589   4.384   7.623
  607SOL    HW2 3654   7.700   4.483   7.651
  608SOL     OW 3655   6.322   7.487   4.251
  608SOL    HW1 3656   6.281   7.499   4.336
  608SOL    HW2 3657   6.416   7.495   4.269
  609SOL     OW 3658  11.297   2.643  10.037
  609SOL    HW1 3659  11.318   2.676   9.949
  609SOL    HW2 3660  11.292   2.721  10.091
  610SOL     OW 3661   7.826  14.103   2.754
  610SOL    HW1 3662   7.865  14.062   2.677
  610SOL    HW2 3663   7.818  14.032   2.818
  611SOL     OW 3664   8.969   6.355   3.809
  611SOL    HW1 3665   8.940   6.436   3.766
  611SOL    HW2 3666   9.050   6.380   3.854
  612SOL     OW 3667   5.905   1.064   0.438
  612SOL    HW1 3668   5.934   1.153   0.418
  612SOL    HW2 3669   5.967   1.007   0.393
  613SOL     OW 3670   5.585  14.250   9.650
  613SOL    HW1 3671   5.559  14.186   9.716
  613SOL    HW2 3672   5.587  14.200   9.568
  614SOL     OW 3673   4.594  10.934   2.359
  614SOL    HW1 3674   4.560  10.864   2.303
  614SOL    HW2 3675   4.589  10.898   2.448
  615SOL     OW 3676   4.622   8.000   7.526
  615SOL    HW1 3677   4.623   8.047   7.442
  615SOL    HW2 3678   4.678   7.924   7.512
  616SOL     OW 3679   3.498  13.048   9.285
  616SOL    HW1 3680   3.519  12.967   9.330
  616SOL    HW2 3681   3.479  13.111   9.355
  617SOL     OW 3682   1.400  10.102   4.990
  617SOL    HW1 3683   1.319  10.150   5.003
  617SOL    HW2 3684   1.437  10.094   5.078
  618SOL     OW 3685   5.307   9.708   6.716
  618SOL    HW1 3686   5.324   9.650   6.642
  618SOL    HW2 3687   5.336   9.794   6.686
  619SOL     OW 3688  12.175   3.814  13.789
  619SOL    HW1 3689  12.080   3.817  13.773
  619SOL    HW2 3690  12.203   3.906  13.780
  620SOL     OW 3691   1.201   8.253   1.186
  620SOL    HW1 3692   1.114   8.220   1.211
  620SOL    HW2 3693   1.186   8.344   1.161
  621SOL     OW 3694   6.924   8.336  14.298
  621SOL    HW1 3695   6.833   8.353  14.273
  621SOL    HW2 3696   6.933   8.241  14.296
  622SOL     OW 3697   4.652   3.787   0.319
  622SOL    HW1 3698   4.718   3.830   0.373
  622SOL    HW2 3699   4.569   3.805   0.362
  623SOL     OW 3700   6.759  14.880  14.057
  623SOL    HW1 3701   6.844   0.041  14.065
  623SOL    HW2 3702   6.779  14.786  14.061
  624SOL     OW 3703  14.684   6.159   2.033
  624SOL    HW1 3704  14.622   6.221   2.073
  624SOL    HW2 3705  14.663   6.075   2.074
  625SOL     OW 3706   8.882  10.893   3.903
  625SOL    HW1 3707   8.935  10.814   3.912
  625SOL    HW2 3708   8.826  10.894   3.981
  626SOL     OW 3709   0.160  12.210  12.289
  626SOL    HW1 3710   0.084  12.174  12.244
  626SOL    HW2 3711   0.143  12.194  12.382
  627SOL     OW 3712   0.561   1.663  13.568
  627SOL    HW1 3713   0.603   1.733  13.519
  627SOL    HW2 3714   0.616   1.586  13.552
  628SOL     OW 3715   8.378  10.898   9.431
  628SOL    HW1 3716   8.418  10.811   9.429
  628SOL    HW2 3717   8.446  10.956   9.396
  629SOL     OW 3718   0.175   9.635   2.030
  629SOL    HW1 3719   0.198   9.641   1.937
  629SOL    HW2 3720   0.257   9.617   2.074
  630SOL     OW 3721   9.298   6.256   4.256
  630SOL    HW1 3722   9.373   6.203   4.227
  630SOL    HW2 3723   9.249   6.275   4.176
  631SOL     OW 3724   4.516   7.322   7.419
  631SOL    HW1 3725   4.427   7.300   7.446
  631SOL    HW2 3726   4.572   7.258   7.462
  632SOL     OW 3727  12.476   1.951   8.403
  632SOL    HW1 3728  12.537   1.882   8.428
  632SOL    HW2 3729  12.507   1.980   8.317
  633SOL     OW 3730  14.769   0.687  14.734
  633SOL    HW1 3731  14.794   0.619  14.672
  633SOL    HW2 3732  14.852   0.729  14.758
  634SOL     OW 3733  12.530   4.268  14.205
  634SOL    HW1 3734  12.493   4.275  14.293
  634SOL    HW2 3735  12.614   4.223  14.218
  635SOL     OW 3736  14.559   6.152  14.426
  635SOL    HW1 3737  14.555   6.130  14.332
  635SOL    HW2 3738  14.467   6.154  14.454
  636SOL     OW 3739   5.394   5.314  12.517
  636SOL    HW1 3740   5.484   5.282  12.511
  636SOL    HW2 3741   5.353   5.286  12.435
  637SOL     OW 3742  12.583  13.188   3.024
  637SOL    HW1 3743  12.661  13.196   3.080
  637SOL    HW2 3744  12.590  13.100   2.986
  638SOL     OW 3745  14.521  10.855   5.816
  638SOL    HW1 3746  14.504  10.922   5.750
  638SOL    HW2 3747  14.440  10.851   5.868
  639SOL     OW 3748  12.093   0.824   1.853
  639SOL    HW1 3749  12.180   0.864   1.843
  639SOL    HW2 3750  12.062   0.811   1.763
  640SOL     OW 3751  10.105  12.609  11.786
  640SOL    HW1 3752  10.135  12.550  11.855
  640SOL    HW2 3753  10.024  12.647  11.821
  641SOL     OW 3754   5.891  13.641   5.890
  641SOL    HW1 3755   5.849  13.718   5.930
  641SOL    HW2 3756   5.927  13.673   5.807
  642SOL     OW 3757   9.526  12.083   4.055
  642SOL    HW1 3758   9.508  12.037   4.137
  642SOL    HW2 3759   9.571  12.019   4.000
  643SOL     OW 3760  12.592  13.079   9.235
  643SOL    HW1 3761  12.609  13.014   9.303
  643SOL    HW2 3762  12.612  13.163   9.277
  644SOL     OW 3763   9.976  13.125   7.627
  644SOL    HW1 3764   9.980  13.080   7.543
  644SOL    HW2 3765  10.064  13.163   7.637
  645SOL     OW 3766  10.125   4.768   6.533
  645SOL    HW1 3767  10.186   4.841   6.523
  645SOL    HW2 3768  10.086   4.759   6.446
  646SOL     OW 3769  12.680   8.470  13.830
  646SOL    HW1 3770  12.598   8.456  13.878
  646SOL    HW2 3771  12.716   8.550  13.869
  647SOL     OW 3772   5.984  12.364   8.905
  647SOL    HW1 3773   5.899  12.319   8.910
  647SOL    HW2 3774   6.046  12.300   8.940
  648SOL     OW 3775  13.769  10.856   0.505
  648SOL    HW1 3776  13.728  10.788   0.452
  648SOL    HW2 3777  13.749  10.937   0.459
  649SOL     OW 3778   2.953  11.435   6.459
  649SOL    HW1 3779   2.983  11.525   6.470
  649SOL    HW2 3780   3.019  11.382   6.504
  650SOL     OW 3781   6.520   4.802  11.596
  650SOL    HW1 3782   6.595   4.829  11.544
  650SOL    HW2 3783   6.517   4.864  11.669
  651SOL     OW 3784   8.845   4.005   1.927
  651SOL    HW1 3785   8.915   3.985   1.989
  651SOL    HW2 3786   8.769   3.957   1.960
  652SOL     OW 3787   3.305  14.117   0.155
  652SOL    HW1 3788   3.213  14.128   0.130
  652SOL    HW2 3789   3.336  14.048   0.097
  653SOL     OW 3790  11.654  14.839  14.140
  653SOL    HW1 3791  11.623   0.047  14.123
  653SOL    HW2 3792  11.749  14.845  14.130
  654SOL     OW 3793   7.111   6.377  11.427
  654SOL    HW1 3794   7.094   6.408  11.338
  654SOL    HW2 3795   7.181   6.313  11.417
  655SOL     OW 3796   2.518  13.375  14.087
  655SOL    HW1 3797   2.515  13.315  14.162
  655SOL    HW2 3798   2.486  13.323  14.014
  656SOL     OW 3799   3.221   6.524  10.371
  656SOL    HW1 3800   3.286   6.462  10.338
  656SOL    HW2 3801   3.222   6.596  10.307
  657SOL     OW 3802   4.141  12.484  11.777
  657SOL    HW1 3803   4.203  12.503  11.707
  657SOL    HW2 3804   4.137  12.564  11.828
  658SOL     OW 3805   1.537   7.917   4.079
  658SOL    HW1 3806   1.565   7.861   4.151
  658SOL    HW2 3807   1.499   7.994   4.121
  659SOL     OW 3808  13.121  11.195   7.260
  659SOL    HW1 3809  13.175  11.187   7.339
  659SOL    HW2 3810  13.059  11.265   7.281
  660SOL     OW 3811   8.364  11.114   0.392
  660SOL    HW1 3812   8.411  11.048   0.342
  660SOL    HW2 3813   8.297  11.146   0.331
  661SOL     OW 3814  10.727  13.045  12.415
  661SOL    HW1 3815  10.639  13.026  12.447
  661SOL    HW2 3816  10.732  12.999  12.331
  662SOL     OW 3817   9.598   5.833   4.761
  662SOL    HW1 3818   9.545   5.896   4.810
  662SOL    HW2 3819   9.688   5.851   4.789
  663SOL     OW 3820   7.896   9.751  12.467
  663SOL    HW1 3821   7.975   9.736  12.415
  663SOL    HW2 3822   7.824   9.720  12.412
  664SOL     OW 3823   9.683   1.304   4.187
  664SOL    HW1 3824   9.650   1.354   4.113
  664SOL    HW2 3825   9.668   1.212   4.162
  665SOL     OW 3826   7.963   7.095   3.651
  665SOL    HW1 3827   8.010   7.133   3.576
  665SOL    HW2 3828   8.018   7.116   3.727
  666SOL     OW 3829  14.589   2.688   9.287
  666SOL    HW1 3830  14.632   2.680   9.202
  666SOL    HW2 3831  14.658   2.669   9.350
  667SOL     OW 3832  14.376   8.207  10.011
  667SOL    HW1 3833  14.294   8.207  10.060
  667SOL    HW2 3834  14.356   8.255   9.931
  668SOL     OW 3835   6.988   2.554   0.119
  668SOL    HW1 3836   6.904   2.519   0.150
  668SOL    HW2 3837   6.972   2.578   0.028
  669SOL     OW 3838   8.423   5.126   2.674
  669SOL    HW1 3839   8.486   5.184   2.631
  669SOL    HW2 3840   8.340   5.172   2.668
  670SOL     OW 3841   4.552  11.834  14.525
  670SOL    HW1 3842   4.504  11.778  14.587
  670SOL    HW2 3843   4.605  11.891  14.581
  671SOL     OW 3844   5.059   0.804  11.031
  671SOL    HW1 3845   5.133   0.864  11.040
  671SOL    HW2 3846   5.035   0.809  10.938
  672SOL     OW 3847   9.200  12.880   1.519
  672SOL    HW1 3848   9.166  12.881   1.609
  672SOL    HW2 3849   9.280  12.933   1.523
  673SOL     OW 3850   6.363  14.875   9.062
  673SOL    HW1 3851   6.453  14.850   9.082
  673SOL    HW2 3852   6.371   0.060   8.994
  674SOL     OW 3853   9.115   6.010   4.537
  674SOL    HW1 3854   9.154   6.044   4.618
  674SOL    HW2 3855   9.072   6.085   4.498
  675SOL     OW 3856  13.472   6.244   0.026
  675SOL    HW1 3857  13.496   6.334   0.051
  675SOL    HW2 3858  13.546   6.191   0.055
  676SOL     OW 3859   1.394  14.788   0.044
  676SOL    HW1 3860   1.305  14.759   0.027
  676SOL    HW2 3861   1.428  14.815  14.840
  677SOL     OW 3862   6.745   9.156  11.177
  677SOL    HW1 3863   6.819   9.112  11.135
  677SOL    HW2 3864   6.672   9.095  11.165
  678SOL     OW 3865   2.044   6.207   6.858
  678SOL    HW1 3866   1.963   6.254   6.878
  678SOL    HW2 3867   2.040   6.193   6.763
  679SOL     OW 3868  12.451  10.144   2.441
  679SOL    HW1 3869  12.393  10.120   2.370
  679SOL    HW2 3870  12.443  10.073   2.505
  680SOL     OW 3871   0.573  12.127  14.606
  680SOL    HW1 3872   0.539  12.038  14.618
  680SOL    HW2 3873   0.495  12.181  14.598
  681SOL     OW 3874  13.197   4.765  13.726
  681SOL    HW1 3875  13.235   4.733  13.645
  681SOL    HW2 3876  13.260   4.742  13.794
  682SOL     OW 3877  14.178   7.458   0.085
  682SOL    HW1 3878  14.251   7.461   0.023
  682SOL    HW2 3879  14.146   7.548   0.089
  683SOL     OW 3880  12.687   4.422  13.949
  683SOL    HW1 3881  12.646   4.385  14.027
  683SOL    HW2 3882  12.617   4.473  13.907
  684SOL     OW 3883  14.699   8.334   1.831
  684SOL    HW1 3884  14.646   8.312   1.755
  684SOL    HW2 3885  14.759   8.401   1.800
  685SOL     OW 3886  13.469  14.806   9.734
  685SOL    HW1 3887  13.486  14.799   9.828
  685SOL    HW2 3888  13.405  14.876   9.726
  686SOL     OW 3889  12.297   0.915  12.611
  686SOL    HW1 3890  12.327   0.832  12.573
  686SOL    HW2 3891  12.203   0.916  12.592
  687SOL     OW 3892   6.337   8.633   2.609
  687SOL    HW1 3893   6.329   8.728   2.613
  687SOL    HW2 3894   6.302   8.609   2.523
  688SOL     OW 3895   0.862   3.017   8.242
  688SOL    HW1 3896   0.936   2.984   8.192
  688SOL    HW2 3897   0.884   2.997   8.333
  689SOL     OW 3898   7.235  11.322   9.669
  689SOL    HW1 3899   7.254  11.405   9.625
  689SOL    HW2 3900   7.231  11.258   9.599
  690SOL     OW 3901   8.686   7.783  13.522
  690SOL    HW1 3902   8.744   7.855  13.496
  690SOL    HW2 3903   8.690   7.783  13.618
  691SOL     OW 3904  13.598   3.746   1.060
  691SOL    HW1 3905  13.589   3.654   1.035
  691SOL    HW2 3906  13.680   3.773   1.019
  692SOL     OW 3907   3.533   5.170   7.555
  692SOL    HW1 3908   3.493   5.091   7.517
  692SOL    HW2 3909   3.567   5.141   7.639
  693SOL     OW 3910   5.651   7.862  14.793
  693SOL    HW1 3911   5.742   7.845  14.820
  693SOL    HW2 3912   5.648   7.833  14.702
  694SOL     OW 3913  12.218  14.446  13.506
  694SOL    HW1 3914  12.282  14.513  13.530
  694SOL    HW2 3915  12.186  14.413  13.590
  695SOL     OW 3916   0.448   5.139   5.119
  695SOL    HW1 3917   0.423   5.225   5.154
  695SOL    HW2 3918   0.415   5.076   5.184
  696SOL     OW 3919   9.019  11.558   1.894
  696SOL    HW1 3920   9.017  11.568   1.799
  696SOL    HW2 3921   9.062  11.474   1.909
  697SOL     OW 3922   8.752   7.050   6.102
  697SOL    HW1 3923   8.719   6.989   6.168
  697SOL    HW2 3924   8.687   7.121   6.101
  698SOL     OW 3925   3.515  11.179   8.769
  698SOL    HW1 3926   3.474  11.262   8.745
  698SOL    HW2 3927   3.609  11.193   8.754
  699SOL     OW 3928   6.469   3.900   0.942
  699SOL    HW1 3929   6.457   3.985   0.900
  699SOL    HW2 3930   6.421   3.907   1.025
  700SOL     OW 3931   7.799   2.424  11.705
  700SOL    HW1 3932   7.756   2.496  11.659
  700SOL    HW2 3933   7.874   2.464  11.748
  701SOL     OW 3934  11.415   7.643  13.139
  701SOL    HW1 3935  11.424   7.552  13.166
  701SOL    HW2 3936  11.465   7.693  13.204
  702SOL     OW 3937   3.136   2.851  10.313
  702SOL    HW1 3938   3.111   2.798  10.237
  702SOL    HW2 3939   3.229   2.831  10.325
  703SOL     OW 3940   3.636   1.827   3.333
  703SOL    HW1 3941   3.679   1.911   3.347
  703SOL    HW2 3942   3.572   1.821   3.403
  704SOL     OW 3943   6.652   8.111  14.830
  704SOL    HW1 3944   6.673   8.052   0.021
  704SOL    HW2 3945   6.711   8.085  14.760
  705SOL     OW 3946   3.408   3.996  11.285
  705SOL    HW1 3947   3.443   3.930  11.346
  705SOL    HW2 3948   3.444   4.079  11.315
  706SOL     OW 3949  12.167   5.596   4.912
  706SOL    HW1 3950  12.128   5.572   4.828
  706SOL    HW2 3951  12.100   5.576   4.977
  707SOL     OW 3952  13.179   5.838   3.205
  707SOL    HW1 3953  13.204   5.891   3.281
  707SOL    HW2 3954  13.208   5.750   3.226
  708SOL     OW 3955   8.598  11.202   4.064
  708SOL    HW1 3956   8.573  11.117   4.101
  708SOL    HW2 3957   8.662  11.238   4.125
  709SOL     OW 3958  12.520  13.153  13.436
  709SOL    HW1 3959  12.517  13.183  13.345
  709SOL    HW2 3960  12.535  13.058  13.430
  710SOL     OW 3961   4.161  11.415   9.971
  710SOL    HW1 3962   4.192  11.440  10.058
  710SOL    HW2 3963   4.227  11.353   9.938
  711SOL     OW 3964   2.743   8.649   9.140
  711SOL    HW1 3965   2.698   8.673   9.221
  711SOL    HW2 3966   2.812   8.589   9.168
  712SOL     OW 3967   0.313   0.218   5.182
  712SOL    HW1 3968   0.267   0.135   5.168
  712SOL    HW2 3969   0.261   0.263   5.248
  713SOL     OW 3970   9.344   9.489  13.117
  713SOL    HW1 3971   9.274   9.438  13.158
  713SOL    HW2 3972   9.394   9.525  13.190
  714SOL     OW 3973  12.899   4.809   6.186
  714SOL    HW1 3974  12.811   4.783   6.160
  714SOL    HW2 3975  12.891   4.902   6.207
  715SOL     OW 3976   2.889   0.610   6.361
  715SOL    HW1 3977   2.805   0.636   6.399
  715SOL    HW2 3978   2.915   0.686   6.308
  716SOL     OW 3979  11.758   5.364   1.977
  716SOL    HW1 3980  11.811   5.321   2.044
  716SOL    HW2 3981  11.696   5.418   2.026
  717SOL     OW 3982  11.941  12.692   8.565
  717SOL    HW1 3983  11.885  12.634   8.514
  717SOL    HW2 3984  11.972  12.637   8.637
  718SOL     OW 3985  11.444   1.000   7.878
  718SOL    HW1 3986  11.539   1.000   7.892
  718SOL    HW2 3987  11.422   1.093   7.870
  719SOL     OW 3988   9.997   9.599   1.097
  719SOL    HW1 3989  10.062   9.595   1.167
  719SOL    HW2 3990   9.936   9.528   1.118
  720SOL     OW 3991  12.352   9.819   3.214
  720SOL    HW1 3992  12.403   9.783   3.141
  720SOL    HW2 3993  12.409   9.887   3.251
  721SOL     OW 3994   4.610   6.945   2.146
  721SOL    HW1 3995   4.542   6.882   2.121
  721SOL    HW2 3996   4.647   6.910   2.227
  722SOL     OW 3997  11.244  10.838   3.230
  722SOL    HW1 3998  11.161  10.796   3.208
  722SOL    HW2 3999  11.247  10.836   3.325
  723SOL     OW 4000  12.878   2.437  12.902
  723SOL    HW1 4001  12.793   2.481  12.899
  723SOL    HW2 4002  12.865   2.364  12.963
  724SOL     OW 4003   2.633   8.937   2.889
  724SOL    HW1 4004   2.599   8.851   2.914
  724SOL    HW2 4005   2.595   8.954   2.803
  725SOL     OW 4006   1.752  11.847   6.532
  725SOL    HW1 4007   1.754  11.849   6.627
  725SOL    HW2 4008   1.790  11.931   6.506
  726SOL     OW 4009  13.343   6.936   9.257
  726SOL    HW1 4010  13.334   6.907   9.166
  726SOL    HW2 4011  13.422   6.990   9.257
  727SOL     OW 4012   0.442   7.216   1.671
  727SOL    HW1 4013   0.362   7.163   1.664
  727SOL    HW2 4014   0.486   7.205   1.587
  728SOL     OW 4015   4.318   4.792   3.780
  728SOL    HW1 4016   4.411   4.789   3.806
  728SOL    HW2 4017   4.286   4.704   3.798
  729SOL     OW 4018   9.218  14.770   6.818
  729SOL    HW1 4019   9.295  14.822   6.796
  729SOL    HW2 4020   9.153  14.834   6.848
  730SOL     OW 4021  12.403  10.571   6.103
  730SOL    HW1 4022  12.409  10.518   6.024
  730SOL    HW2 4023  12.310  10.593   6.111
  731SOL     OW 4024   9.688  14.723  13.833
  731SOL    HW1 4025   9.764  14.715  13.775
  731SOL    HW2 4026   9.635  14.792  13.794
  732SOL     OW 4027   5.922  12.449  14.856
  732SOL    HW1 4028   5.903  12.543  14.853
  732SOL    HW2 4029   5.853  12.408  14.805
  733SOL     OW 4030  13.654   0.952   0.570
  733SOL    HW1 4031  13.586   0.921   0.511
  733SOL    HW2 4032  13.729   0.895   0.553
  734SOL     OW 4033  13.716   4.512   0.555
  734SOL    HW1 4034  13.798   4.478   0.589
  734SOL    HW2 4035  13.677   4.439   0.508
  735SOL     OW 4036   2.688  14.809   9.188
  735SOL    HW1 4037   2.715  14.868   9.258
  735SOL    HW2 4038   2.646  14.735   9.233
  736SOL     OW 4039  10.781   6.586   1.385
  736SOL    HW1 4040  10.839   6.518   1.353
  736SOL    HW2 4041  10.776   6.649   1.313
  737SOL     OW 4042   5.300   6.243  12.008
  737SOL    HW1 4043   5.274   6.279  12.093
  737SOL    HW2 4044   5.248   6.292  11.944
  738SOL     OW 4045  12.774   8.138  13.936
  738SOL    HW1 4046  12.867   8.153  13.920
  738SOL    HW2 4047  12.764   8.043  13.930
  739SOL     OW 4048   8.104   1.294   1.506
  739SOL    HW1 4049   8.134   1.384   1.491
  739SOL    HW2 4050   8.145   1.269   1.589
  740SOL     OW 4051   2.045   8.638   8.384
  740SOL    HW1 4052   2.011   8.726   8.397
  740SOL    HW2 4053   2.137   8.643   8.408
  741SOL     OW 4054   4.068  12.064   4.191
  741SOL    HW1 4055   4.045  11.976   4.221
  741SOL    HW2 4056   4.113  12.104   4.265
  742SOL     OW 4057  13.346  11.263   2.396
  742SOL    HW1 4058  13.440  11.277   2.399
  742SOL    HW2 4059  13.331  11.221   2.311
  743SOL     OW 4060   6.801   2.857   4.131
  743SOL    HW1 4061   6.879   2.869   4.076
  743SOL    HW2 4062   6.738   2.813   4.074
  744SOL     OW 4063   2.884   5.525  12.098
  744SOL    HW1 4064   2.957   5.473  12.132
  744SOL    HW2 4065   2.872   5.494  12.008
  745SOL     OW 4066   4.831  11.783  13.611
  745SOL    HW1 4067   4.853  11.835  13.688
  745SOL    HW2 4068   4.792  11.703  13.647
  746SOL     OW 4069  10.237  11.317  11.558
  746SOL    HW1 4070  10.161  11.372  11.541
  746SOL    HW2 4071  10.255  11.330  11.652
  747SOL     OW 4072   8.243  11.485  14.832
  747SOL    HW1 4073   8.187  11.408  14.824
  747SOL    HW2 4074   8.183  11.559  14.827
  748SOL     OW 4075   3.064  10.985   8.303
  748SOL    HW1 4076   2.988  10.981   8.245
  748SOL    HW2 4077   3.114  10.907   8.281
  749SOL     OW 4078  13.320   5.431   6.577
  749SOL    HW1 4079  13.296   5.474   6.495
  749SOL    HW2 4080  13.412   5.454   6.590
  750SOL     OW 4081   7.915   5.842   7.395
  750SOL    HW1 4082   7.855   5.768   7.387
  750SOL    HW2 4083   7.898   5.896   7.317
  751SOL     OW 4084  10.213  14.059  12.577
  751SOL    HW1 4085  10.273  14.103  12.516
  751SOL    HW2 4086  10.270  14.025  12.646
  752SOL     OW 4087   7.955   1.892   4.831
  752SOL    HW1 4088   7.984   1.949   4.760
  752SOL    HW2 4089   7.889   1.943   4.878
  753SOL     OW 4090   0.458  13.728  11.724
  753SOL    HW1 4091   0.468  13.642  11.765
  753SOL    HW2 4092   0.447  13.788  11.798
  754SOL     OW 4093   5.638   4.370   4.422
  754SOL    HW1 4094   5.663   4.380   4.514
  754SOL    HW2 4095   5.680   4.443   4.377
  755SOL     OW 4096   8.166   1.310  11.969
  755SOL    HW1 4097   8.094   1.322  11.907
  755SOL    HW2 4098   8.205   1.226  11.945
  756SOL     OW 4099   7.603   5.389   1.632
  756SOL    HW1 4100   7.638   5.379   1.543
  756SOL    HW2 4101   7.582   5.482   1.639
  757SOL     OW 4102   2.848  13.259  12.410
  757SOL    HW1 4103   2.943  13.257  12.411
  757SOL    HW2 4104   2.822  13.212  12.490
  758SOL     OW 4105   3.154   1.850   3.923
  758SOL    HW1 4106   3.192   1.903   3.993
  758SOL    HW2 4107   3.228   1.830   3.865
  759SOL     OW 4108   4.822   3.272   8.814
  759SOL    HW1 4109   4.901   3.221   8.831
  759SOL    HW2 4110   4.769   3.263   8.893
  760SOL     OW 4111  11.424   9.631   8.166
  760SOL    HW1 4112  11.353   9.597   8.221
  760SOL    HW2 4113  11.473   9.689   8.224
  761SOL     OW 4114   5.176   9.260   1.401
  761SOL    HW1 4115   5.187   9.200   1.328
  761SOL    HW2 4116   5.138   9.206   1.471
  762SOL     OW 4117   6.302  11.366   9.384
  762SOL    HW1 4118   6.324  11.321   9.303
  762SOL    HW2 4119   6.276  11.296   9.444
  763SOL     OW 4120  14.819  13.247  10.880
  763SOL    HW1 4121  14.864  13.317  10.928
  763SOL    HW2 4122  14.728  13.275  10.878
  764SOL     OW 4123   4.013   4.240   3.160
  764SOL    HW1 4124   4.035   4.327   3.194
  764SOL    HW2 4125   3.966   4.197   3.231
  765SOL     OW 4126   7.070   0.514   9.980
  765SOL    HW1 4127   7.042   0.477   9.896
  765SOL    HW2 4128   7.037   0.603   9.980
  766SOL     OW 4129   8.591  10.214   4.501
  766SOL    HW1 4130   8.511  10.199   4.450
  766SOL    HW2 4131   8.654  10.249   4.437
  767SOL     OW 4132  12.955   3.650   8.862
  767SOL    HW1 4133  12.887   3.718   8.861
  767SOL    HW2 4134  12.984   3.646   8.771
  768SOL     OW 4135   4.767   1.988   8.504
  768SOL    HW1 4136   4.744   1.959   8.416
  768SOL    HW2 4137   4.687   2.026   8.539
  769SOL     OW 4138   9.540   2.833   3.383
  769SOL    HW1 4139   9.602   2.891   3.339
  769SOL    HW2 4140   9.457   2.882   3.381
  770SOL     OW 4141   9.617   4.893   7.891
  770SOL    HW1 4142   9.562   4.825   7.930
  770SOL    HW2 4143   9.649   4.854   7.809
  771SOL     OW 4144  11.791   6.027  14.662
  771SOL    HW1 4145  11.807   5.966  14.590
  771SOL    HW2 4146  11.878   6.041  14.701
  772SOL     OW 4147   6.089   1.607  10.832
  772SOL    HW1 4148   6.166   1.585  10.780
  772SOL    HW2 4149   6.123   1.657  10.906
  773SOL     OW 4150   3.516   5.511   4.633
  773SOL    HW1 4151   3.584   5.569   4.598
  773SOL    HW2 4152   3.435   5.560   4.621
  774SOL     OW 4153   4.777   8.038  13.818
  774SOL    HW1 4154   4.788   8.024  13.724
  774SOL    HW2 4155   4.839   8.107  13.839
  775SOL     OW 4156   8.206   5.143  11.372
  775SOL    HW1 4157   8.254   5.061  11.370
  775SOL    HW2 4158   8.254   5.201  11.314
  776SOL     OW 4159   4.953   9.527  12.949
  776SOL    HW1 4160   4.879   9.497  13.002
  776SOL    HW2 4161   5.005   9.582  13.009
  777SOL     OW 4162   1.216  11.953   9.115
  777SOL    HW1 4163   1.126  11.949   9.083
  777SOL    HW2 4164   1.234  11.866   9.151
  778SOL     OW 4165  14.280   1.537   6.862
  778SOL    HW1 4166  14.337   1.603   6.822
  778SOL    HW2 4167  14.191   1.571   6.850
  779SOL     OW 4168   9.914  12.918   5.877
  779SOL    HW1 4169   9.936  12.940   5.967
  779SOL    HW2 4170   9.976  12.848   5.854
  780SOL     OW 4171   6.317   6.982  10.579
  780SOL    HW1 4172   6.372   7.003  10.655
  780SOL    HW2 4173   6.233   6.957  10.616
  781SOL     OW 4174   7.553   7.196  11.808
  781SOL    HW1 4175   7.537   7.104  11.829
  781SOL    HW2 4176   7.508   7.244  11.877
  782SOL     OW 4177  14.800   7.283   1.188
  782SOL    HW1 4178  14.829   7.241   1.270
  782SOL    HW2 4179  14.709   7.256   1.178
  783SOL     OW 4180   6.385  10.684   1.011
  783SOL    HW1 4181   6.366  10.773   1.042
  783SOL    HW2 4182   6.314  10.665   0.950
  784SOL     OW 4183   5.965  13.315  10.764
  784SOL    HW1 4184   5.926  13.330  10.678
  784SOL    HW2 4185   6.019  13.236  10.753
  785SOL     OW 4186   3.146  14.262   6.550
  785SOL    HW1 4187   3.054  14.286   6.545
  785SOL    HW2 4188   3.187  14.308   6.477
  786SOL     OW 4189   7.765   9.674  10.914
  786SOL    HW1 4190   7.725   9.707  10.833
  786SOL    HW2 4191   7.772   9.751  10.970
  787SOL     OW 4192  12.014   6.109  12.267
  787SOL    HW1 4193  12.019   6.017  12.291
  787SOL    HW2 4194  12.037   6.111  12.174
  788SOL     OW 4195   1.158   9.443   3.062
  788SOL    HW1 4196   1.141   9.475   3.151
  788SOL    HW2 4197   1.081   9.471   3.012
  789SOL     OW 4198   6.982   1.619   6.506
  789SOL    HW1 4199   6.993   1.529   6.539
  789SOL    HW2 4200   7.034   1.622   6.426
  790SOL     OW 4201   7.967   1.252   6.207
  790SOL    HW1 4202   8.024   1.315   6.249
  790SOL    HW2 4203   7.975   1.271   6.113
  791SOL     OW 4204  14.199   6.263   1.964
  791SOL    HW1 4205  14.195   6.282   2.058
  791SOL    HW2 4206  14.111   6.283   1.931
  792SOL     OW 4207   7.965   0.061   2.190
  792SOL    HW1 4208   8.003  14.874   2.244
  792SOL    HW2 4209   7.997   0.043   2.101
  793SOL     OW 4210   8.074   5.512   1.327
  793SOL    HW1 4211   8.087   5.481   1.417
  793SOL    HW2 4212   8.147   5.573   1.313
  794SOL     OW 4213   1.958   5.791  13.249
  794SOL    HW1 4214   1.972   5.880  13.283
  794SOL    HW2 4215   1.864   5.777  13.258
  795SOL     OW 4216   5.763   2.738   0.604
  795SOL    HW1 4217   5.740   2.817   0.555
  795SOL    HW2 4218   5.777   2.671   0.537
  796SOL     OW 4219   0.167   3.920   0.997
  796SOL    HW1 4220   0.182   3.912   0.903
  796SOL    HW2 4221   0.245   3.965   1.030
  797SOL     OW 4222  11.608   4.825   8.291
  797SOL    HW1 4223  11.637   4.757   8.352
  797SOL    HW2 4224  11.639   4.907   8.330
  798SOL     OW 4225  13.401   1.576   4.402
  798SOL    HW1 4226  13.428   1.593   4.493
  798SOL    HW2 4227  13.341   1.501   4.409
  799SOL     OW 4228   3.686   3.666  13.144
  799SOL    HW1 4229   3.710   3.589  13.195
  799SOL    HW2 4230   3.702   3.640  13.053
  800SOL     OW 4231  13.887   4.397   7.060
  800SOL    HW1 4232  13.928   4.430   6.980
  800SOL    HW2 4233  13.886   4.473   7.119
  801SOL     OW 4234   7.098  10.281  10.497
  801SOL    HW1 4235   7.185  10.248  10.520
  801SOL    HW2 4236   7.068  10.326  10.576
  802SOL     OW 4237  13.700  11.614  11.627
  802SOL    HW1 4238  13.714  11.619  11.532
  802SOL    HW2 4239  13.631  11.549  11.638
  803SOL     OW 4240   6.081  12.135   4.971
  803SOL    HW1 4241   6.009  12.150   5.033
  803SOL    HW2 4242   6.072  12.044   4.945
  804SOL     OW 4243   2.944  13.975  13.090
  804SOL    HW1 4244   3.024  13.924  13.076
  804SOL    HW2 4245   2.893  13.963  13.010
  805SOL     OW 4246   5.047  12.130   6.182
  805SOL    HW1 4247   4.968  12.149   6.232
  805SOL    HW2 4248   5.035  12.040   6.151
  806SOL     OW 4249   2.557   2.065   0.351
  806SOL    HW1 4250   2.602   2.118   0.417
  806SOL    HW2 4251   2.478   2.115   0.329
  807SOL     OW 4252  14.243   2.810  10.479
  807SOL    HW1 4253  14.281   2.805  10.567
  807SOL    HW2 4254  14.262   2.724  10.440
  808SOL     OW 4255   0.269   1.933   3.342
  808SOL    HW1 4256   0.237   1.868   3.405
  808SOL    HW2 4257   0.200   1.937   3.275
  809SOL     OW 4258   1.798   7.940   7.644
  809SOL    HW1 4259   1.730   7.873   7.649
  809SOL    HW2 4260   1.764   8.012   7.698
  810SOL     OW 4261   6.430  10.774   9.825
  810SOL    HW1 4262   6.442  10.869   9.832
  810SOL    HW2 4263   6.505  10.744   9.774
  811SOL     OW 4264  14.120   7.445   9.900
  811SOL    HW1 4265  14.091   7.536   9.913
  811SOL    HW2 4266  14.129   7.411   9.989
  812SOL     OW 4267  14.058   4.742   0.967
  812SOL    HW1 4268  14.033   4.674   1.030
  812SOL    HW2 4269  14.028   4.823   1.008
  813SOL     OW 4270   4.293  14.368  13.807
  813SOL    HW1 4271   4.316  14.276  13.792
  813SOL    HW2 4272   4.297  14.378  13.902
  814SOL     OW 4273   6.348   9.710  13.140
  814SOL    HW1 4274   6.362   9.782  13.201
  814SOL    HW2 4275   6.434   9.668  13.132
  815SOL     OW 4276  11.964  14.635   0.885
  815SOL    HW1 4277  11.937  14.711   0.936
  815SOL    HW2 4278  12.056  14.653   0.864
  816SOL     OW 4279   0.153  10.094  11.631
  816SOL    HW1 4280   0.174  10.142  11.711
  816SOL    HW2 4281   0.095  10.152  11.583
  817SOL     OW 4282   9.973   7.512  11.877
  817SOL    HW1 4283  10.059   7.488  11.911
  817SOL    HW2 4284   9.982   7.507  11.782
  818SOL     OW 4285   3.453   3.243   0.465
  818SOL    HW1 4286   3.546   3.265   0.465
  818SOL    HW2 4287   3.421   3.273   0.380
  819SOL     OW 4288   1.999   5.840  14.291
  819SOL    HW1 4289   2.038   5.927  14.294
  819SOL    HW2 4290   2.050   5.793  14.225
  820SOL     OW 4291   7.990   8.158   2.112
  820SOL    HW1 4292   8.005   8.229   2.174
  820SOL    HW2 4293   8.077   8.138   2.078
  821SOL     OW 4294   0.717   0.730  13.464
  821SOL    HW1 4295   0.777   0.656  13.458
  821SOL    HW2 4296   0.750   0.782  13.537
  822SOL     OW 4297   8.072  10.669  11.678
  822SOL    HW1 4298   8.050  10.610  11.750
  822SOL    HW2 4299   8.011  10.645  11.609
  823SOL     OW 4300   6.497  11.533   1.931
  823SOL    HW1 4301   6.543  11.450   1.946
  823SOL    HW2 4302   6.458  11.555   2.016
  824SOL     OW 4303  14.585   6.969  14.155
  824SOL    HW1 4304  14.652   6.950  14.220
  824SOL    HW2 4305  14.504   6.973  14.204
  825SOL     OW 4306   9.254   9.336   5.249
  825SOL    HW1 4307   9.280   9.424   5.277
  825SOL    HW2 4308   9.322   9.278   5.285
  826SOL     OW 4309   9.689   7.666  12.875
  826SOL    HW1 4310   9.745   7.618  12.936
  826SOL    HW2 4311   9.648   7.597  12.822
  827SOL     OW 4312   2.197  12.479   2.135
  827SOL    HW1 4313   2.130  12.488   2.067
  827SOL    HW2 4314   2.206  12.384   2.148
  828SOL     OW 4315   6.899   6.499   0.485
  828SOL    HW1 4316   6.881   6.485   0.578
  828SOL    HW2 4317   6.893   6.412   0.446
  829SOL     OW 4318   2.673   1.953   1.662
  829SOL    HW1 4319   2.607   1.884   1.664
  829SOL    HW2 4320   2.725   1.938   1.741
  830SOL     OW 4321   9.845   2.431   0.188
  830SOL    HW1 4322   9.874   2.402   0.102
  830SOL    HW2 4323   9.825   2.350   0.235
  831SOL     OW 4324   2.349   9.004   7.366
  831SOL    HW1 4325   2.321   8.976   7.453
  831SOL    HW2 4326   2.381   9.094   7.380
  832SOL     OW 4327   5.724   2.057   4.505
  832SOL    HW1 4328   5.660   1.987   4.502
  832SOL    HW2 4329   5.674   2.136   4.485
  833SOL     OW 4330   4.939   7.789  14.267
  833SOL    HW1 4331   4.908   7.869  14.225
  833SOL    HW2 4332   4.919   7.719  14.205
  834SOL     OW 4333   7.713   9.847   2.593
  834SOL    HW1 4334   7.675   9.765   2.626
  834SOL    HW2 4335   7.807   9.835   2.603
  835SOL     OW 4336  13.597  11.546   1.715
  835SOL    HW1 4337  13.604  11.608   1.788
  835SOL    HW2 4338  13.686  11.537   1.683
  836SOL     OW 4339   1.794   2.131   6.483
  836SOL    HW1 4340   1.766   2.080   6.559
  836SOL    HW2 4341   1.808   2.219   6.518
  837SOL     OW 4342   7.510   5.933   6.431
  837SOL    HW1 4343   7.558   5.852   6.413
  837SOL    HW2 4344   7.490   5.928   6.525
  838SOL     OW 4345   9.133   1.797   2.905
  838SOL    HW1 4346   9.090   1.829   2.825
  838SOL    HW2 4347   9.093   1.712   2.920
  839SOL     OW 4348  12.465  12.668   7.992
  839SOL    HW1 4349  12.488  12.652   8.083
  839SOL    HW2 4350  12.372  12.690   7.995
  840SOL     OW 4351   2.343  12.360   2.860
  840SOL    HW1 4352   2.365  12.351   2.768
  840SOL    HW2 4353   2.253  12.392   2.861
  841SOL     OW 4354   6.152   7.342   8.784
  841SOL    HW1 4355   6.108   7.257   8.777
  841SOL    HW2 4356   6.153   7.361   8.878
  842SOL     OW 4357  12.789   9.636   9.944
  842SOL    HW1 4358  12.764   9.707  10.004
  842SOL    HW2 4359  12.799   9.680   9.860
  843SOL     OW 4360  13.166   6.716   7.810
  843SOL    HW1 4361  13.098   6.706   7.743
  843SOL    HW2 4362  13.136   6.788   7.865
  844SOL     OW 4363   8.606   4.520  12.270
  844SOL    HW1 4364   8.673   4.489  12.332
  844SOL    HW2 4365   8.656   4.564  12.201
  845SOL     OW 4366  13.994   4.551   1.154
  845SOL    HW1 4367  13.945   4.628   1.179
  845SOL    HW2 4368  13.990   4.494   1.231
  846SOL     OW 4369  11.834  11.572   9.644
  846SOL    HW1 4370  11.749  11.604   9.674
  846SOL    HW2 4371  11.815  11.531   9.559
  847SOL     OW 4372   9.553   9.010   0.374
  847SOL    HW1 4373   9.484   8.944   0.383
  847SOL    HW2 4374   9.597   8.987   0.292
  848SOL     OW 4375   8.329   2.935   9.429
  848SOL    HW1 4376   8.350   2.842   9.423
  848SOL    HW2 4377   8.405   2.974   9.473
  849SOL     OW 4378  12.684  11.230   8.042
  849SOL    HW1 4379  12.604  11.270   8.077
  849SOL    HW2 4380  12.680  11.138   8.070
  850SOL     OW 4381   6.879  11.471   8.487
  850SOL    HW1 4382   6.913  11.390   8.525
  850SOL    HW2 4383   6.929  11.482   8.406
  851SOL     OW 4384   0.530   8.502   7.903
  851SOL    HW1 4385   0.467   8.469   7.838
  851SOL    HW2 4386   0.531   8.435   7.971
  852SOL     OW 4387  12.952   5.103   2.413
  852SOL    HW1 4388  12.933   5.192   2.382
  852SOL    HW2 4389  12.928   5.047   2.339
  853SOL     OW 4390   0.644   1.007   1.683
  853SOL    HW1 4391   0.656   1.017   1.778
  853SOL    HW2 4392   0.571   0.947   1.674
  854SOL     OW 4393  11.239   0.742   4.803
  854SOL    HW1 4394  11.304   0.772   4.866
  854SOL    HW2 4395  11.289   0.685   4.744
  855SOL     OW 4396   3.412   4.188  11.613
  855SOL    HW1 4397   3.342   4.252  11.619
  855SOL    HW2 4398   3.455   4.207  11.529
  856SOL     OW 4399   4.071  12.423   0.603
  856SOL    HW1 4400   4.141  12.429   0.669
  856SOL    HW2 4401   4.090  12.493   0.541
  857SOL     OW 4402   3.546  10.355   8.798
  857SOL    HW1 4403   3.458  10.390   8.789
  857SOL    HW2 4404   3.576  10.387   8.883
  858SOL     OW 4405  14.442  12.558  11.767
  858SOL    HW1 4406  14.402  12.636  11.730
  858SOL    HW2 4407  14.382  12.530  11.836
  859SOL     OW 4408   1.318   7.256   0.279
  859SOL    HW1 4409   1.378   7.181   0.284
  859SOL    HW2 4410   1.231   7.217   0.288
  860SOL     OW 4411  13.187  13.465   0.442
  860SOL    HW1 4412  13.222  13.549   0.469
  860SOL    HW2 4413  13.092  13.477   0.440
  861SOL     OW 4414  11.842   1.944  14.862
  861SOL    HW1 4415  11.833   1.870  14.803
  861SOL    HW2 4416  11.884   1.908   0.058
  862SOL     OW 4417   5.387   2.780  13.370
  862SOL    HW1 4418   5.381   2.838  13.446
  862SOL    HW2 4419   5.378   2.692  13.406
  863SOL     OW 4420   2.352   8.324   0.944
  863SOL    HW1 4421   2.279   8.269   0.915
  863SOL    HW2 4422   2.311   8.407   0.969
  864SOL     OW 4423   8.945   1.196   1.108
  864SOL    HW1 4424   8.958   1.135   1.035
  864SOL    HW2 4425   8.934   1.140   1.185
  865SOL     OW 4426   9.328   8.971  10.495
  865SOL    HW1 4427   9.271   8.981  10.572
  865SOL    HW2 4428   9.279   9.013  10.424
  866SOL     OW 4429   2.997   2.638   8.391
  866SOL    HW1 4430   3.021   2.555   8.351
  866SOL    HW2 4431   3.014   2.625   8.485
  867SOL     OW 4432   6.822  12.079   9.392
  867SOL    HW1 4433   6.756  12.012   9.374
  867SOL    HW2 4434   6.905  12.030   9.395
  868SOL     OW 4435   1.162   8.851  10.764
  868SOL    HW1 4436   1.240   8.803  10.789
  868SOL    HW2 4437   1.133   8.894  10.844
  869SOL     OW 4438   2.008   2.994   2.065
  869SOL    HW1 4439   1.943   2.965   2.128
  869SOL    HW2 4440   2.064   3.055   2.113
  870SOL     OW 4441  10.316   5.517  11.881
  870SOL    HW1 4442  10.305   5.601  11.836
  870SOL    HW2 4443  10.390   5.476  11.836
  871SOL     OW 4444   5.456  10.003   1.105
  871SOL    HW1 4445   5.406  10.055   1.041
  871SOL    HW2 4446   5.393   9.985   1.175
  872SOL     OW 4447   9.615   6.910  10.907
  872SOL    HW1 4448   9.598   6.888  10.815
  872SOL    HW2 4449   9.708   6.890  10.919
  873SOL     OW 4450   8.868  13.772   8.542
  873SOL    HW1 4451   8.959  13.744   8.534
  873SOL    HW2 4452   8.818  13.690   8.543
  874SOL     OW 4453  11.831  11.904   9.089
  874SOL    HW1 4454  11.859  11.840   9.024
  874SOL    HW2 4455  11.753  11.866   9.128
  875SOL     OW 4456  12.922   7.903   1.624
  875SOL    HW1 4457  12.913   7.829   1.563
  875SOL    HW2 4458  12.844   7.898   1.679
  876SOL     OW 4459  10.058  12.594  12.720
  876SOL    HW1 4460  10.102  12.575  12.803
  876SOL    HW2 4461  10.049  12.690  12.720
  877SOL     OW 4462  12.118  11.609   2.192
  877SOL    HW1 4463  12.056  11.649   2.131
  877SOL    HW2 4464  12.111  11.663   2.271
  878SOL     OW 4465   3.902   3.796   0.462
  878SOL    HW1 4466   3.818   3.824   0.499
  878SOL    HW2 4467   3.880   3.761   0.376
  879SOL     OW 4468   2.050   9.274   6.869
  879SOL    HW1 4469   2.105   9.218   6.923
  879SOL    HW2 4470   2.110   9.341   6.835
  880SOL     OW 4471  13.177   1.820  14.401
  880SOL    HW1 4472  13.143   1.734  14.379
  880SOL    HW2 4473  13.272   1.811  14.397
  881SOL     OW 4474   1.367   6.416   1.450
  881SOL    HW1 4475   1.429   6.479   1.485
  881SOL    HW2 4476   1.416   6.334   1.446
  882SOL     OW 4477   0.557   4.049   6.866
  882SOL    HW1 4478   0.581   4.083   6.780
  882SOL    HW2 4479   0.598   4.108   6.928
  883SOL     OW 4480   8.608  12.817  14.806
  883SOL    HW1 4481   8.533  12.825  14.746
  883SOL    HW2 4482   8.675  12.874  14.768
  884SOL     OW 4483  14.658   3.569  11.374
  884SOL    HW1 4484  14.744   3.560  11.333
  884SOL    HW2 4485  14.671   3.536  11.463
  885SOL     OW 4486   6.959   1.352   3.188
  885SOL    HW1 4487   6.915   1.426   3.147
  885SOL    HW2 4488   7.050   1.360   3.160
  886SOL     OW 4489   3.926  11.966   3.198
  886SOL    HW1 4490   3.861  11.959   3.128
  886SOL    HW2 4491   3.974  12.046   3.179
  887SOL     OW 4492   9.108  13.471   5.177
  887SOL    HW1 4493   9.056  13.543   5.140
  887SOL    HW2 4494   9.043  13.405   5.202
  888SOL     OW 4495   6.529  11.175   8.156
  888SOL    HW1 4496   6.469  11.188   8.231
  888SOL    HW2 4497   6.612  11.152   8.196
  889SOL     OW 4498   3.118   4.353   1.562
  889SOL    HW1 4499   3.128   4.398   1.646
  889SOL    HW2 4500   3.105   4.261   1.585
  890SOL     OW 4501   2.444   2.980  12.959
  890SOL    HW1 4502   2.423   2.908  12.899
  890SOL    HW2 4503   2.402   3.056  12.920
  891SOL     OW 4504   2.536   3.704   5.924
  891SOL    HW1 4505   2.499   3.624   5.959
  891SOL    HW2 4506   2.577   3.747   6.000
  892SOL     OW 4507  12.706   6.133   4.841
  892SOL    HW1 4508  12.641   6.075   4.880
  892SOL    HW2 4509  12.672   6.221   4.855
  893SOL     OW 4510   6.234   3.620   6.564
  893SOL    HW1 4511   6.196   3.567   6.635
  893SOL    HW2 4512   6.159   3.661   6.522
  894SOL     OW 4513   8.907   7.403   2.720
  894SOL    HW1 4514   8.979   7.431   2.663
  894SOL    HW2 4515   8.838   7.374   2.660
  895SOL     OW 4516   1.578   9.942   2.664
  895SOL    HW1 4517   1.545   9.866   2.712
  895SOL    HW2 4518   1.616   9.999   2.731
  896SOL     OW 4519   6.513   3.659   9.272
  896SOL    HW1 4520   6.606   3.643   9.252
  896SOL    HW2 4521   6.490   3.735   9.219
  897SOL     OW 4522   1.237  13.356  14.025
  897SOL    HW1 4523   1.209  13.446  14.008
  897SOL    HW2 4524   1.251  13.319  13.938
  898SOL     OW 4525   4.107   6.422   9.385
  898SOL    HW1 4526   4.065   6.496   9.428
  898SOL    HW2 4527   4.062   6.345   9.418
  899SOL     OW 4528   4.572   5.920   3.971
  899SOL    HW1 4529   4.500   5.975   3.939
  899SOL    HW2 4530   4.614   5.887   3.891
  900SOL     OW 4531   9.307  11.599   0.553
  900SOL    HW1 4532   9.322  11.670   0.491
  900SOL    HW2 4533   9.390  11.551   0.554
  901SOL     OW 4534   4.269   3.308  10.159
  901SOL    HW1 4535   4.300   3.228  10.202
  901SOL    HW2 4536   4.185   3.284  10.120
  902SOL     OW 4537   2.510   9.467  10.016
  902SOL    HW1 4538   2.588   9.425  10.051
  902SOL    HW2 4539   2.543   9.522   9.945
  903SOL     OW 4540  10.273   2.812   9.207
  903SOL    HW1 4541  10.349   2.773   9.163
  903SOL    HW2 4542  10.198   2.767   9.169
  904SOL     OW 4543  13.589   0.768  11.551
  904SOL    HW1 4544  13.571   0.797  11.641
  904SOL    HW2 4545  13.503   0.752  11.513
  905SOL     OW 4546  12.698   6.556   9.466
  905SOL    HW1 4547  12.791   6.558   9.490
  905SOL    HW2 4548  12.653   6.593   9.542
  906SOL     OW 4549  10.747   2.678   7.337
  906SOL    HW1 4550  10.743   2.705   7.245
  906SOL    HW2 4551  10.730   2.583   7.334
  907SOL     OW 4552   9.864   9.408   7.583
  907SOL    HW1 4553   9.868   9.366   7.498
  907SOL    HW2 4554   9.904   9.346   7.643
  908SOL     OW 4555   9.510  10.890   4.029
  908SOL    HW1 4556   9.584  10.841   3.992
  908SOL    HW2 4557   9.443  10.888   3.961
  909SOL     OW 4558   5.750   3.440   5.191
  909SOL    HW1 4559   5.783   3.515   5.142
  909SOL    HW2 4560   5.824   3.411   5.244
  910SOL     OW 4561  12.162   3.908   6.289
  910SOL    HW1 4562  12.217   3.832   6.306
  910SOL    HW2 4563  12.125   3.891   6.202
  911SOL     OW 4564   8.289   3.857  12.066
  911SOL    HW1 4565   8.368   3.804  12.053
  911SOL    HW2 4566   8.249   3.863  11.980
  912SOL     OW 4567   3.307  13.873  13.743
  912SOL    HW1 4568   3.243  13.860  13.814
  912SOL    HW2 4569   3.253  13.891  13.666
  913SOL     OW 4570   4.051  10.054   9.123
  913SOL    HW1 4571   4.061   9.965   9.158
  913SOL    HW2 4572   4.025  10.107   9.199
  914SOL     OW 4573   4.832   8.277   3.021
  914SOL    HW1 4574   4.898   8.265   3.089
  914SOL    HW2 4575   4.880   8.318   2.948
  915SOL     OW 4576   0.135  11.379   4.763
  915SOL    HW1 4577   0.095  11.310   4.712
  915SOL    HW2 4578   0.132  11.347   4.853
  916SOL     OW 4579   4.417   3.662   4.528
  916SOL    HW1 4580   4.489   3.720   4.502
  916SOL    HW2 4581   4.361   3.658   4.450
  917SOL     OW 4582   6.019  10.307   8.081
  917SOL    HW1 4583   6.066  10.306   7.998
  917SOL    HW2 4584   5.990  10.217   8.094
  918SOL     OW 4585   7.288   3.771   8.226
  918SOL    HW1 4586   7.295   3.686   8.270
  918SOL    HW2 4587   7.378   3.792   8.201
  919SOL     OW 4588  10.862   7.542  14.170
  919SOL    HW1 4589  10.865   7.623  14.119
  919SOL    HW2 4590  10.921   7.482  14.124
  920SOL     OW 4591   4.741  14.740  12.331
  920SOL    HW1 4592   4.782  14.809  12.384
  920SOL    HW2 4593   4.669  14.785  12.287
  921SOL     OW 4594   6.119   5.533   9.500
  921SOL    HW1 4595   6.203   5.578   9.507
  921SOL    HW2 4596   6.140   5.441   9.512
  922SOL     OW 4597   2.472  14.014   0.961
  922SOL    HW1 4598   2.503  14.032   0.872
  922SOL    HW2 4599   2.412  13.941   0.952
  923SOL     OW 4600   0.697  12.994   8.742
  923SOL    HW1 4601   0.619  12.941   8.754
  923SOL    HW2 4602   0.760  12.959   8.805
  924SOL     OW 4603   1.861   0.613  13.435
  924SOL    HW1 4604   1.881   0.682  13.498
  924SOL    HW2 4605   1.900   0.534  13.473
  925SOL     OW 4606  12.824   4.132   5.665
  925SOL    HW1 4607  12.874   4.058   5.699
  925SOL    HW2 4608  12.742   4.094   5.635
  926SOL     OW 4609   1.828   7.723   8.295
  926SOL    HW1 4610   1.787   7.779   8.229
  926SOL    HW2 4611   1.788   7.637   8.282
  927SOL     OW 4612  13.524   6.682   5.471
  927SOL    HW1 4613  13.498   6.647   5.556
  927SOL    HW2 4614  13.466   6.757   5.457
  928SOL     OW 4615  10.441   3.203  14.107
  928SOL    HW1 4616  10.421   3.165  14.193
  928SOL    HW2 4617  10.458   3.296  14.125
  929SOL     OW 4618  14.677   5.384   6.619
  929SOL    HW1 4619  14.730   5.433   6.556
  929SOL    HW2 4620  14.677   5.294   6.586
  930SOL     OW 4621   8.092   6.813  11.441
  930SOL    HW1 4622   8.150   6.770  11.377
  930SOL    HW2 4623   8.099   6.906  11.420
  931SOL     OW 4624   0.198   9.359   0.840
  931SOL    HW1 4625   0.246   9.437   0.813
  931SOL    HW2 4626   0.143   9.389   0.912
  932SOL     OW 4627   7.511   4.709   8.075
  932SOL    HW1 4628   7.475   4.657   8.003
  932SOL    HW2 4629   7.579   4.763   8.034
  933SOL     OW 4630   1.651  12.147   6.695
  933SOL    HW1 4631   1.720  12.154   6.760
  933SOL    HW2 4632   1.594  12.077   6.727
  934SOL     OW 4633   2.144  11.112  14.614
  934SOL    HW1 4634   2.162  11.089  14.705
  934SOL    HW2 4635   2.230  11.124  14.575
  935SOL     OW 4636   1.679   3.128   3.310
  935SOL    HW1 4637   1.670   3.038   3.341
  935SOL    HW2 4638   1.730   3.172   3.379
  936SOL     OW 4639   6.528  11.449   7.084
  936SOL    HW1 4640   6.512  11.448   7.179
  936SOL    HW2 4641   6.519  11.357   7.058
  937SOL     OW 4642   3.062   9.947   8.357
  937SOL    HW1 4643   3.013  10.029   8.347
  937SOL    HW2 4644   3.152   9.969   8.334
  938SOL     OW 4645   7.095  14.371  14.473
  938SOL    HW1 4646   7.083  14.441  14.409
  938SOL    HW2 4647   7.013  14.323  14.471
  939SOL     OW 4648   9.249  12.310  11.669
  939SOL    HW1 4649   9.309  12.380  11.695
  939SOL    HW2 4650   9.183  12.354  11.615
  940SOL     OW 4651  13.926   0.181  13.491
  940SOL    HW1 4652  13.904   0.108  13.433
  940SOL    HW2 4653  13.846   0.233  13.496
  941SOL     OW 4654   4.582   9.215  14.799
  941SOL    HW1 4655   4.576   9.202   0.012
  941SOL    HW2 4656   4.674   9.199  14.778
  942SOL     OW 4657  10.257   8.697   1.605
  942SOL    HW1 4658  10.283   8.723   1.517
  942SOL    HW2 4659  10.319   8.627   1.629
  943SOL     OW 4660   3.577   1.432   0.844
  943SOL    HW1 4661   3.562   1.510   0.790
  943SOL    HW2 4662   3.515   1.367   0.811
  944SOL     OW 4663   1.375  12.220   1.195
  944SOL    HW1 4664   1.334  12.284   1.253
  944SOL    HW2 4665   1.302  12.170   1.159
  945SOL     OW 4666  12.204  10.371  11.299
  945SOL    HW1 4667  12.239  10.408  11.380
  945SOL    HW2 4668  12.109  10.369  11.312
  946SOL     OW 4669   5.613   9.585   3.414
  946SOL    HW1 4670   5.552   9.656   3.395
  946SOL    HW2 4671   5.636   9.549   3.328
  947SOL     OW 4672   4.429   9.925   5.091
  947SOL    HW1 4673   4.482   9.853   5.125
  947SOL    HW2 4674   4.471  10.004   5.125
  948SOL     OW 4675  12.189   2.405   1.454
  948SOL    HW1 4676  12.103   2.446   1.448
  948SOL    HW2 4677  12.170   2.314   1.477
  949SOL     OW 4678   4.077   6.237   7.896
  949SOL    HW1 4679   4.100   6.319   7.852
  949SOL    HW2 4680   4.124   6.170   7.846
  950SOL     OW 4681   5.730  13.830   7.491
  950SOL    HW1 4682   5.696  13.898   7.433
  950SOL    HW2 4683   5.656  13.771   7.505
  951SOL     OW 4684   2.786   1.993  13.518
  951SOL    HW1 4685   2.829   2.064  13.566
  951SOL    HW2 4686   2.852   1.925  13.511
  952SOL     OW 4687  13.283   3.956   8.324
  952SOL    HW1 4688  13.297   3.968   8.418
  952SOL    HW2 4689  13.360   3.996   8.284
  953SOL     OW 4690   5.526   4.272  13.214
  953SOL    HW1 4691   5.571   4.275  13.298
  953SOL    HW2 4692   5.589   4.230  13.155
  954SOL     OW 4693  13.282   1.738   9.376
  954SOL    HW1 4694  13.209   1.758   9.317
  954SOL    HW2 4695  13.358   1.779   9.335
  955SOL     OW 4696  11.595  10.282   6.662
  955SOL    HW1 4697  11.686  10.314   6.658
  955SOL    HW2 4698  11.578  10.247   6.575
  956SOL     OW 4699   7.032   0.115   2.107
  956SOL    HW1 4700   6.995   0.029   2.090
  956SOL    HW2 4701   6.998   0.170   2.036
  957SOL     OW 4702   0.173  10.673  14.871
  957SOL    HW1 4703   0.106  10.643   0.051
  957SOL    HW2 4704   0.160  10.767  14.864
  958SOL     OW 4705   3.156  12.968  14.866
  958SOL    HW1 4706   3.252  12.968  14.864
  958SOL    HW2 4707   3.131  13.036  14.804
  959SOL     OW 4708   1.655   9.215   8.262
  959SOL    HW1 4709   1.702   9.204   8.345
  959SOL    HW2 4710   1.722   9.203   8.195
  960SOL     OW 4711  14.174  12.265   5.939
  960SOL    HW1 4712  14.103  12.238   5.881
  960SOL    HW2 4713  14.141  12.248   6.028
  961SOL     OW 4714  10.450  10.159   7.205
  961SOL    HW1 4715  10.460  10.182   7.113
  961SOL    HW2 4716  10.430  10.066   7.205
  962SOL     OW 4717  12.316   6.353   8.821
  962SOL    HW1 4718  12.270   6.411   8.882
  962SOL    HW2 4719  12.308   6.397   8.736
  963SOL     OW 4720   9.734   1.870  11.636
  963SOL    HW1 4721   9.725   1.776  11.649
  963SOL    HW2 4722   9.649   1.898  11.603
  964SOL     OW 4723  12.553   4.467   7.640
  964SOL    HW1 4724  12.536   4.505   7.554
  964SOL    HW2 4725  12.470   4.426   7.664
  965SOL     OW 4726  10.022  13.788   0.865
  965SOL    HW1 4727  10.025  13.882   0.877
  965SOL    HW2 4728   9.933  13.763   0.891
  966SOL     OW 4729   4.725  11.226   3.038
  966SOL    HW1 4730   4.675  11.236   3.119
  966SOL    HW2 4731   4.662  11.246   2.969
  967SOL     OW 4732   6.662   9.863  12.906
  967SOL    HW1 4733   6.754   9.859  12.879
  967SOL    HW2 4734   6.629   9.774  12.894
  968SOL     OW 4735   6.122   6.872  11.117
  968SOL    HW1 4736   6.098   6.800  11.176
  968SOL    HW2 4737   6.067   6.858  11.039
  969SOL     OW 4738   2.972   9.063   1.475
  969SOL    HW1 4739   2.904   8.999   1.458
  969SOL    HW2 4740   2.962   9.129   1.406
  970SOL     OW 4741   0.707   6.081   5.519
  970SOL    HW1 4742   0.650   6.020   5.472
  970SOL    HW2 4743   0.660   6.101   5.600
  971SOL     OW 4744   3.870   1.138   2.592
  971SOL    HW1 4745   3.959   1.121   2.562
  971SOL    HW2 4746   3.843   1.055   2.632
  972SOL     OW 4747   9.168   0.135   8.706
  972SOL    HW1 4748   9.119   0.074   8.651
  972SOL    HW2 4749   9.243   0.084   8.738
  973SOL     OW 4750   8.060  11.888   9.338
  973SOL    HW1 4751   8.131  11.848   9.288
  973SOL    HW2 4752   8.104  11.934   9.410
  974SOL     OW 4753   9.509   9.513   4.330
  974SOL    HW1 4754   9.506   9.498   4.425
  974SOL    HW2 4755   9.417   9.511   4.303
  975SOL     OW 4756   3.204  13.596   5.540
  975SOL    HW1 4757   3.145  13.567   5.471
  975SOL    HW2 4758   3.288  13.610   5.496
  976SOL     OW 4759   9.327   5.912   8.171
  976SOL    HW1 4760   9.368   5.946   8.091
  976SOL    HW2 4761   9.381   5.946   8.242
  977SOL     OW 4762   4.344   2.058   0.989
  977SOL    HW1 4763   4.258   2.070   1.029
  977SOL    HW2 4764   4.329   2.071   0.895
  978SOL     OW 4765   9.212   4.739  13.846
  978SOL    HW1 4766   9.200   4.651  13.881
  978SOL    HW2 4767   9.290   4.733  13.791
  979SOL     OW 4768  13.538  12.192   0.173
  979SOL    HW1 4769  13.445  12.203   0.191
  979SOL    HW2 4770  13.549  12.098   0.156
  980SOL     OW 4771   1.168   4.259   4.738
  980SOL    HW1 4772   1.219   4.294   4.811
  980SOL    HW2 4773   1.088   4.226   4.779
  981SOL     OW 4774   6.499   2.203   7.476
  981SOL    HW1 4775   6.505   2.156   7.393
  981SOL    HW2 4776   6.555   2.154   7.536
  982SOL     OW 4777  12.004   3.581   8.163
  982SOL    HW1 4778  12.079   3.629   8.126
  982SOL    HW2 4779  11.954   3.648   8.210
  983SOL     OW 4780   3.049   9.005  13.337
  983SOL    HW1 4781   3.023   9.095  13.358
  983SOL    HW2 4782   3.137   8.996  13.372
  984SOL     OW 4783   8.524  14.119  12.107
  984SOL    HW1 4784   8.588  14.088  12.043
  984SOL    HW2 4785   8.467  14.043  12.122
  985SOL     OW 4786   1.082  14.308  11.739
  985SOL    HW1 4787   0.996  14.296  11.780
  985SOL    HW2 4788   1.137  14.344  11.809
  986SOL     OW 4789  12.614   6.180   4.204
  986SOL    HW1 4790  12.648   6.256   4.156
  986SOL    HW2 4791  12.558   6.218   4.272
  987SOL     OW 4792  13.611   5.371   1.535
  987SOL    HW1 4793  13.551   5.404   1.601
  987SOL    HW2 4794  13.596   5.425   1.458
  988SOL     OW 4795  12.928   6.678  10.071
  988SOL    HW1 4796  12.935   6.702  10.163
  988SOL    HW2 4797  12.870   6.744  10.033
  989SOL     OW 4798   7.232   7.971   9.230
  989SOL    HW1 4799   7.307   7.999   9.284
  989SOL    HW2 4800   7.192   8.053   9.201
  990SOL     OW 4801  11.522   2.887   7.119
  990SOL    HW1 4802  11.601   2.860   7.073
  990SOL    HW2 4803  11.478   2.946   7.058
  991SOL     OW 4804  12.344   3.105   2.694
  991SOL    HW1 4805  12.324   3.125   2.602
  991SOL    HW2 4806  12.425   3.153   2.712
  992SOL     OW 4807  14.658  10.648  12.245
  992SOL    HW1 4808  14.704  10.670  12.164
  992SOL    HW2 4809  14.568  10.675  12.230
  993SOL     OW 4810  11.439   7.780   7.416
  993SOL    HW1 4811  11.411   7.858   7.368
  993SOL    HW2 4812  11.358   7.731   7.430
  994SOL     OW 4813   6.203   2.220   8.973
  994SOL    HW1 4814   6.294   2.223   8.944
  994SOL    HW2 4815   6.157   2.280   8.914
  995SOL     OW 4816  13.307   1.778   3.422
  995SOL    HW1 4817  13.318   1.695   3.374
  995SOL    HW2 4818  13.258   1.753   3.500
  996SOL     OW 4819  14.157  11.081   0.123
  996SOL    HW1 4820  14.108  11.124   0.053
  996SOL    HW2 4821  14.222  11.027   0.077
  997SOL     OW 4822  12.054   1.440   6.043
  997SOL    HW1 4823  12.110   1.399   5.977
  997SOL    HW2 4824  12.021   1.367   6.095
  998SOL     OW 4825   2.081   8.505   5.440
  998SOL    HW1 4826   2.175   8.518   5.438
  998SOL    HW2 4827   2.046   8.568   5.376
  999SOL     OW 4828   9.534   6.604  10.071
  999SOL    HW1 4829   9.549   6.653   9.990
  999SOL    HW2 4830   9.445   6.627  10.097
 1000SOL     OW 4831   8.057   3.589   2.619
 1000SOL    HW1 4832   8.007   3.610   2.698
 1000SOL    HW2 4833   8.102   3.671   2.598
 1001SOL     OW 4834   7.618  10.409  12.381
 1001SOL    HW1 4835   7.658  10.376  12.300
 1001SOL    HW2 4836   7.677  10.478  12.410
 1002SOL     OW 4837  13.115   5.771   2.303
 1002SOL    HW1 4838  13.054   5.712   2.347
 1002SOL    HW2 4839  13.183   5.713   2.268
 1003SOL     OW 4840   5.129  13.447  12.411
 1003SOL    HW1 4841   5.110  13.515  12.476
 1003SOL    HW2 4842   5.097  13.366  12.450
 1004SOL     OW 4843  12.829   2.643   4.884
 1004SOL    HW1 4844  12.924   2.629   4.884
 1004SOL    HW2 4845  12.809   2.665   4.976
 1005SOL     OW 4846   5.824   0.704  10.956
 1005SOL    HW1 4847   5.910   0.727  10.993
 1005SOL    HW2 4848   5.780   0.656  11.026
 1006SOL     OW 4849   2.801   2.868   7.219
 1006SOL    HW1 4850   2.846   2.884   7.135
 1006SOL    HW2 4851   2.762   2.781   7.208
 1007SOL     OW 4852   4.193   6.286   6.036
 1007SOL    HW1 4853   4.212   6.280   6.129
 1007SOL    HW2 4854   4.159   6.375   6.024
 1008SOL     OW 4855   1.795   2.400  11.496
 1008SOL    HW1 4856   1.860   2.351  11.547
 1008SOL    HW2 4857   1.835   2.486  11.483
 1009SOL     OW 4858   0.113   3.228  10.141
 1009SOL    HW1 4859   0.143   3.137  10.141
 1009SOL    HW2 4860   0.018   3.222  10.145
 1010SOL     OW 4861  13.249  10.807   8.108
 1010SOL    HW1 4862  13.264  10.889   8.061
 1010SOL    HW2 4863  13.183  10.761   8.056
 1011SOL     OW 4864   8.688   8.056  12.351
 1011SOL    HW1 4865   8.738   8.127  12.390
 1011SOL    HW2 4866   8.696   8.069  12.257
 1012SOL     OW 4867   1.623   0.423  13.773
 1012SOL    HW1 4868   1.579   0.419  13.858
 1012SOL    HW2 4869   1.666   0.509  13.773
 1013SOL     OW 4870  13.503   1.298   4.149
 1013SOL    HW1 4871  13.573   1.360   4.131
 1013SOL    HW2 4872  13.505   1.237   4.076
 1014SOL     OW 4873  12.150  11.346   6.781
 1014SOL    HW1 4874  12.077  11.407   6.791
 1014SOL    HW2 4875  12.108  11.259   6.780
 1015SOL     OW 4876  13.209   6.675   7.473
 1015SOL    HW1 4877  13.252   6.619   7.409
 1015SOL    HW2 4878  13.276   6.693   7.539
 1016SOL     OW 4879   3.575   1.899  12.815
 1016SOL    HW1 4880   3.650   1.923  12.868
 1016SOL    HW2 4881   3.561   1.975  12.757
 1017SOL     OW 4882  11.559  14.055   1.001
 1017SOL    HW1 4883  11.523  14.079   1.087
 1017SOL    HW2 4884  11.601  13.971   1.016
 1018SOL     OW 4885   9.801   5.783   2.750
 1018SOL    HW1 4886   9.871   5.794   2.815
 1018SOL    HW2 4887   9.721   5.805   2.798
 1019SOL     OW 4888   2.675   4.779  14.799
 1019SOL    HW1 4889   2.723   4.838  14.741
 1019SOL    HW2 4890   2.690   4.815   0.005
 1020SOL     OW 4891   0.580   2.663   1.848
 1020SOL    HW1 4892   0.526   2.651   1.771
 1020SOL    HW2 4893   0.560   2.588   1.904
 1021SOL     OW 4894  11.569   4.739   1.943
 1021SOL    HW1 4895  11.557   4.653   1.903
 1021SOL    HW2 4896  11.550   4.801   1.872
 1022SOL     OW 4897   9.607  13.978   2.740
 1022SOL    HW1 4898   9.698  13.981   2.710
 1022SOL    HW2 4899   9.565  14.054   2.699
 1023SOL     OW 4900   5.193   9.213   6.746
 1023SOL    HW1 4901   5.142   9.192   6.668
 1023SOL    HW2 4902   5.135   9.268   6.799
 1024SOL     OW 4903  10.449   3.565   9.911
 1024SOL    HW1 4904  10.451   3.641   9.853
 1024SOL    HW2 4905  10.426   3.492   9.854
 1025SOL     OW 4906   7.218   6.947  13.634
 1025SOL    HW1 4907   7.245   7.031  13.598
 1025SOL    HW2 4908   7.219   6.960  13.729
 1026SOL     OW 4909   1.392   6.288   6.077
 1026SOL    HW1 4910   1.416   6.195   6.079
 1026SOL    HW2 4911   1.362   6.307   6.166
 1027SOL     OW 4912   9.687   0.358  14.831
 1027SOL    HW1 4913   9.677   0.427   0.015
 1027SOL    HW2 4914   9.607   0.364  14.779
 1028SOL     OW 4915  11.764   8.665  10.257
 1028SOL    HW1 4916  11.803   8.649  10.171
 1028SOL    HW2 4917  11.683   8.613  10.257
 1029SOL     OW 4918   4.382   6.266  13.910
 1029SOL    HW1 4919   4.411   6.275  13.819
 1029SOL    HW2 4920   4.385   6.355  13.945
 1030SOL     OW 4921   8.599  14.486  14.845
 1030SOL    HW1 4922   8.602  14.460  14.753
 1030SOL    HW2 4923   8.663  14.557  14.852
 1031SOL     OW 4924   1.170   1.247   3.772
 1031SOL    HW1 4925   1.163   1.243   3.677
 1031SOL    HW2 4926   1.264   1.244   3.790
 1032SOL     OW 4927  10.307   6.875   0.790
 1032SOL    HW1 4928  10.359   6.845   0.715
 1032SOL    HW2 4929  10.263   6.796   0.822
 1033SOL     OW 4930  13.813  11.688   9.475
 1033SOL    HW1 4931  13.721  11.712   9.491
 1033SOL    HW2 4932  13.843  11.751   9.410
 1034SOL     OW 4933   4.763   7.941  13.187
 1034SOL    HW1 4934   4.755   8.020  13.239
 1034SOL    HW2 4935   4.857   7.931  13.173
 1035SOL     OW 4936  11.563   8.058  10.987
 1035SOL    HW1 4937  11.637   8.002  11.012
 1035SOL    HW2 4938  11.487   7.999  10.990
 1036SOL     OW 4939   1.493   4.826   0.937
 1036SOL    HW1 4940   1.432   4.795   0.870
 1036SOL    HW2 4941   1.566   4.863   0.887
 1037SOL     OW 4942   2.591  10.255  10.075
 1037SOL    HW1 4943   2.566  10.300   9.995
 1037SOL    HW2 4944   2.683  10.277  10.088
 1038SOL     OW 4945  11.074   7.988   7.900
 1038SOL    HW1 4946  11.034   7.923   7.959
 1038SOL    HW2 4947  11.050   7.959   7.812
 1039SOL     OW 4948  13.899   9.664   7.367
 1039SOL    HW1 4949  13.979   9.669   7.418
 1039SOL    HW2 4950  13.927   9.671   7.276
 1040SOL     OW 4951   6.505  13.040   8.536
 1040SOL    HW1 4952   6.582  12.998   8.574
 1040SOL    HW2 4953   6.431  12.990   8.570
 1041SOL     OW 4954  12.423  11.152  14.177
 1041SOL    HW1 4955  12.355  11.088  14.156
 1041SOL    HW2 4956  12.389  11.201  14.251
 1042SOL     OW 4957   5.453  12.983   2.970
 1042SOL    HW1 4958   5.372  12.965   3.018
 1042SOL    HW2 4959   5.434  12.956   2.880
 1043SOL     OW 4960   5.819   2.766   7.164
 1043SOL    HW1 4961   5.845   2.722   7.083
 1043SOL    HW2 4962   5.797   2.855   7.137
 1044SOL     OW 4963  10.004   4.099  12.113
 1044SOL    HW1 4964   9.973   4.050  12.037
 1044SOL    HW2 4965  10.049   4.033  12.167
 1045SOL     OW 4966  13.030  13.740   8.945
 1045SOL    HW1 4967  12.964  13.735   8.877
 1045SOL    HW2 4968  13.019  13.827   8.983
 1046SOL     OW 4969   2.617   7.481   1.556
 1046SOL    HW1 4970   2.690   7.477   1.619
 1046SOL    HW2 4971   2.600   7.574   1.546
 1047SOL     OW 4972   4.685   6.693   5.688
 1047SOL    HW1 4973   4.682   6.688   5.784
 1047SOL    HW2 4974   4.762   6.641   5.664
 1048SOL     OW 4975  10.882   5.590   1.678
 1048SOL    HW1 4976  10.833   5.643   1.741
 1048SOL    HW2 4977  10.949   5.547   1.730
 1049SOL     OW 4978  11.221   3.259  12.817
 1049SOL    HW1 4979  11.264   3.188  12.864
 1049SOL    HW2 4980  11.211   3.226  12.728
 1050SOL     OW 4981   9.168   9.364  11.305
 1050SOL    HW1 4982   9.073   9.378  11.300
 1050SOL    HW2 4983   9.201   9.398  11.221
 1051SOL     OW 4984  14.453   8.397  11.166
 1051SOL    HW1 4985  14.427   8.368  11.078
 1051SOL    HW2 4986  14.450   8.493  11.161
 1052SOL     OW 4987   3.997  14.370   3.283
 1052SOL    HW1 4988   4.052  14.444   3.309
 1052SOL    HW2 4989   3.917  14.382   3.335
 1053SOL     OW 4990  12.379   5.161  14.728
 1053SOL    HW1 4991  12.447   5.228  14.724
 1053SOL    HW2 4992  12.412   5.090  14.673
 1054SOL     OW 4993   9.028   3.041   3.989
 1054SOL    HW1 4994   9.100   3.013   4.046
 1054SOL    HW2 4995   8.983   2.960   3.964
 1055SOL     OW 4996   8.543   4.085  13.708
 1055SOL    HW1 4997   8.466   4.069  13.763
 1055SOL    HW2 4998   8.537   4.177  13.684
 1056SOL     OW 4999   4.349   6.032  14.105
 1056SOL    HW1 5000   4.439   6.000  14.113
 1056SOL    HW2 5001   4.357   6.112  14.053
 1057SOL     OW 5002   2.015  10.701  14.848
 1057SOL    HW1 5003   2.070  10.738   0.035
 1057SOL    HW2 5004   2.056  10.729  14.766
 1058SOL     OW 5005   6.227   0.582  13.513
 1058SOL    HW1 5006   6.245   0.493  13.481
 1058SOL    HW2 5007   6.161   0.570  13.581
 1059SOL     OW 5008  10.945  13.981   6.971
 1059SOL    HW1 5009  11.037  14.006   6.964
 1059SOL    HW2 5010  10.946  13.885   6.969
 1060SOL     OW 5011   8.899   5.920   4.917
 1060SOL    HW1 5012   8.823   5.866   4.940
 1060SOL    HW2 5013   8.864   6.009   4.913
 1061SOL     OW 5014  10.432  10.575   8.422
 1061SOL    HW1 5015  10.361  10.631   8.389
 1061SOL    HW2 5016  10.398  10.540   8.505
 1062SOL     OW 5017  11.821  13.209   7.731
 1062SOL    HW1 5018  11.854  13.279   7.675
 1062SOL    HW2 5019  11.726  13.214   7.723
 1063SOL     OW 5020   6.300   3.939   9.232
 1063SOL    HW1 5021   6.344   3.882   9.295
 1063SOL    HW2 5022   6.277   4.017   9.282
 1064SOL     OW 5023   8.359  12.378  13.636
 1064SOL    HW1 5024   8.381  12.327  13.558
 1064SOL    HW2 5025   8.442  12.389  13.682
 1065SOL     OW 5026   4.252  11.680   3.443
 1065SOL    HW1 5027   4.306  11.611   3.405
 1065SOL    HW2 5028   4.216  11.642   3.523
 1066SOL     OW 5029   6.296   4.749  11.054
 1066SOL    HW1 5030   6.269   4.756  11.146
 1066SOL    HW2 5031   6.375   4.694  11.057
 1067SOL     OW 5032   5.610   5.440   9.241
 1067SOL    HW1 5033   5.606   5.504   9.312
 1067SOL    HW2 5034   5.605   5.355   9.284
 1068SOL     OW 5035   0.378   7.605   7.932
 1068SOL    HW1 5036   0.364   7.569   8.020
 1068SOL    HW2 5037   0.470   7.632   7.931
 1069SOL     OW 5038  13.113  10.275   1.252
 1069SOL    HW1 5039  13.156  10.192   1.275
 1069SOL    HW2 5040  13.184  10.330   1.218
 1070SOL     OW 5041  12.310   1.482  11.852
 1070SOL    HW1 5042  12.366   1.559  11.864
 1070SOL    HW2 5043  12.238   1.512  11.798
 1071SOL     OW 5044   4.727   8.252   5.812
 1071SOL    HW1 5045   4.641   8.266   5.771
 1071SOL    HW2 5046   4.716   8.173   5.865
 1072SOL     OW 5047  14.297   3.440   0.844
 1072SOL    HW1 5048  14.247   3.502   0.897
 1072SOL    HW2 5049  14.232   3.402   0.785
 1073SOL     OW 5050   9.030   8.014   6.110
 1073SOL    HW1 5051   8.983   7.948   6.161
 1073SOL    HW2 5052   9.057   8.080   6.174
 1074SOL     OW 5053  14.061  13.888   9.213
 1074SOL    HW1 5054  14.035  13.969   9.171
 1074SOL    HW2 5055  14.136  13.856   9.162
 1075SOL     OW 5056  11.314  13.111  14.256
 1075SOL    HW1 5057  11.332  13.183  14.195
 1075SOL    HW2 5058  11.334  13.148  14.342
 1076SOL     OW 5059  13.355  13.275  10.878
 1076SOL    HW1 5060  13.379  13.209  10.812
 1076SOL    HW2 5061  13.439  13.301  10.917
 1077SOL     OW 5062  12.107   2.975  14.840
 1077SOL    HW1 5063  12.110   2.905   0.023
 1077SOL    HW2 5064  12.057   2.938  14.767
 1078SOL     OW 5065   6.949   2.822  14.566
 1078SOL    HW1 5066   6.948   2.777  14.651
 1078SOL    HW2 5067   7.029   2.792  14.524
 1079SOL     OW 5068  14.483   4.424   2.475
 1079SOL    HW1 5069  14.422   4.359   2.509
 1079SOL    HW2 5070  14.530   4.456   2.552
 1080SOL     OW 5071  11.850   1.425  10.367
 1080SOL    HW1 5072  11.770   1.383  10.337
 1080SOL    HW2 5073  11.820   1.508  10.405
 1081SOL     OW 5074   5.473   3.145   3.423
 1081SOL    HW1 5075   5.403   3.197   3.383
 1081SOL    HW2 5076   5.429   3.095   3.492
 1082SOL     OW 5077   0.556   4.773  11.124
 1082SOL    HW1 5078   0.495   4.804  11.191
 1082SOL    HW2 5079   0.640   4.812  11.149
 1083SOL     OW 5080   5.515  13.658   9.219
 1083SOL    HW1 5081   5.504  13.635   9.127
 1083SOL    HW2 5082   5.451  13.728   9.234
 1084SOL     OW 5083   3.897   2.416   7.249
 1084SOL    HW1 5084   3.835   2.371   7.307
 1084SOL    HW2 5085   3.917   2.498   7.294
 1085SOL     OW 5086   7.893   9.039  13.427
 1085SOL    HW1 5087   7.933   8.953  13.441
 1085SOL    HW2 5088   7.957   9.086  13.373
 1086SOL     OW 5089   2.337   8.726  11.673
 1086SOL    HW1 5090   2.307   8.813  11.647
 1086SOL    HW2 5091   2.419   8.714  11.626
 1087SOL     OW 5092   8.376   7.935   5.161
 1087SOL    HW1 5093   8.322   7.950   5.239
 1087SOL    HW2 5094   8.464   7.962   5.186
 1088SOL     OW 5095  12.185   2.385  12.595
 1088SOL    HW1 5096  12.249   2.422  12.533
 1088SOL    HW2 5097  12.236   2.321  12.645
 1089SOL     OW 5098   7.581   4.410   9.163
 1089SOL    HW1 5099   7.611   4.492   9.125
 1089SOL    HW2 5100   7.557   4.432   9.253
 1090SOL     OW 5101   0.204  13.001   7.459
 1090SOL    HW1 5102   0.152  12.929   7.494
 1090SOL    HW2 5103   0.149  13.038   7.389
 1091SOL     OW 5104   3.828   8.641   4.731
 1091SOL    HW1 5105   3.904   8.589   4.757
 1091SOL    HW2 5106   3.845   8.728   4.768
 1092SOL     OW 5107   2.285  10.044   1.013
 1092SOL    HW1 5108   2.291  10.077   1.103
 1092SOL    HW2 5109   2.202   9.995   1.011
 1093SOL     OW 5110  12.098  13.426   9.371
 1093SOL    HW1 5111  12.016  13.393   9.409
 1093SOL    HW2 5112  12.165  13.399   9.433
 1094SOL     OW 5113  13.485   8.904   9.910
 1094SOL    HW1 5114  13.564   8.898   9.964
 1094SOL    HW2 5115  13.485   8.824   9.858
 1095SOL     OW 5116  11.105   8.727  11.184
 1095SOL    HW1 5117  11.162   8.651  11.198
 1095SOL    HW2 5118  11.050   8.729  11.262
 1096SOL     OW 5119   5.450   4.641   9.227
 1096SOL    HW1 5120   5.402   4.723   9.211
 1096SOL    HW2 5121   5.385   4.582   9.265
 1097SOL     OW 5122   5.170   6.657   1.983
 1097SOL    HW1 5123   5.246   6.631   2.034
 1097SOL    HW2 5124   5.190   6.747   1.955
 1098SOL     OW 5125  14.489   6.893   5.864
 1098SOL    HW1 5126  14.413   6.948   5.844
 1098SOL    HW2 5127  14.564   6.949   5.847
 1099SOL     OW 5128   2.819   8.829   1.091
 1099SOL    HW1 5129   2.725   8.815   1.091
 1099SOL    HW2 5130   2.855   8.752   1.047
 1100SOL     OW 5131   6.857   4.969   4.213
 1100SOL    HW1 5132   6.893   5.056   4.196
 1100SOL    HW2 5133   6.765   4.977   4.189
 1101SOL     OW 5134   1.393  13.819  14.353
 1101SOL    HW1 5135   1.408  13.815  14.448
 1101SOL    HW2 5136   1.480  13.829  14.315
 1102SOL     OW 5137  14.144   0.245   9.269
 1102SOL    HW1 5138  14.129   0.333   9.305
 1102SOL    HW2 5139  14.188   0.197   9.339
 1103SOL     OW 5140   5.288   9.346   1.964
 1103SOL    HW1 5141   5.334   9.397   1.897
 1103SOL    HW2 5142   5.223   9.296   1.916
 1104SOL     OW 5143   2.709  12.849   2.335
 1104SOL    HW1 5144   2.710  12.905   2.412
 1104SOL    HW2 5145   2.795  12.805   2.336
 1105SOL     OW 5146   0.875   0.941  11.164
 1105SOL    HW1 5147   0.893   1.031  11.191
 1105SOL    HW2 5148   0.937   0.888  11.214
 1106SOL     OW 5149  11.787   6.714   1.525
 1106SOL    HW1 5150  11.693   6.720   1.508
 1106SOL    HW2 5151  11.811   6.626   1.495
 1107SOL     OW 5152   9.527   9.407   2.714
 1107SOL    HW1 5153   9.536   9.483   2.772
 1107SOL    HW2 5154   9.595   9.346   2.743
 1108SOL     OW 5155   2.097   7.029   6.702
 1108SOL    HW1 5156   2.109   7.080   6.782
 1108SOL    HW2 5157   2.178   6.979   6.694
 1109SOL     OW 5158   5.612   0.556   3.073
 1109SOL    HW1 5159   5.612   0.466   3.105
 1109SOL    HW2 5160   5.566   0.552   2.989
 1110SOL     OW 5161  14.317  13.451   9.954
 1110SOL    HW1 5162  14.253  13.521   9.968
 1110SOL    HW2 5163  14.399  13.497   9.937
 1111SOL     OW 5164   3.722  13.023  14.236
 1111SOL    HW1 5165   3.747  13.006  14.146
 1111SOL    HW2 5166   3.802  13.057  14.278
 1112SOL     OW 5167  10.187  10.794   2.597
 1112SOL    HW1 5168  10.115  10.805   2.658
 1112SOL    HW2 5169  10.157  10.725   2.537
 1113SOL     OW 5170   7.297  14.284  10.691
 1113SOL    HW1 5171   7.314  14.199  10.731
 1113SOL    HW2 5172   7.285  14.343  10.766
 1114SOL     OW 5173  11.846  10.933   8.027
 1114SOL    HW1 5174  11.916  10.941   8.092
 1114SOL    HW2 5175  11.885  10.883   7.955
 1115SOL     OW 5176   7.888   1.233   9.835
 1115SOL    HW1 5177   7.893   1.328   9.838
 1115SOL    HW2 5178   7.821   1.210   9.900
 1116SOL     OW 5179   4.548   3.971  11.852
 1116SOL    HW1 5180   4.602   3.907  11.897
 1116SOL    HW2 5181   4.608   4.015  11.791
 1117SOL     OW 5182  14.230  10.782   4.454
 1117SOL    HW1 5183  14.177  10.852   4.417
 1117SOL    HW2 5184  14.297  10.828   4.506
 1118SOL     OW 5185  12.268   7.131   7.019
 1118SOL    HW1 5186  12.317   7.086   7.088
 1118SOL    HW2 5187  12.335   7.177   6.968
 1119SOL     OW 5188  10.135  12.507   1.587
 1119SOL    HW1 5189  10.098  12.430   1.630
 1119SOL    HW2 5190  10.098  12.505   1.499
 1120SOL     OW 5191   6.211   3.363   9.874
 1120SOL    HW1 5192   6.230   3.293   9.937
 1120SOL    HW2 5193   6.268   3.344   9.800
 1121SOL     OW 5194   0.990  12.675   3.234
 1121SOL    HW1 5195   1.069  12.672   3.181
 1121SOL    HW2 5196   0.956  12.585   3.232
 1122SOL     OW 5197   6.315  12.117  10.784
 1122SOL    HW1 5198   6.342  12.165  10.706
 1122SOL    HW2 5199   6.328  12.178  10.856
 1123SOL     OW 5200   3.338  13.366   2.212
 1123SOL    HW1 5201   3.370  13.452   2.239
 1123SOL    HW2 5202   3.417  13.318   2.186
 1124SOL     OW 5203  12.190  14.131  13.856
 1124SOL    HW1 5204  12.095  14.139  13.860
 1124SOL    HW2 5205  12.207  14.044  13.893
 1125SOL     OW 5206   2.264   1.797  13.175
 1125SOL    HW1 5207   2.319   1.757  13.242
 1125SOL    HW2 5208   2.211   1.725  13.142
 1126SOL     OW 5209  14.863   4.017   3.212
 1126SOL    HW1 5210   0.046   3.951   3.188
 1126SOL    HW2 5211  14.793   3.967   3.254
 1127SOL     OW 5212   3.815   0.981   0.236
 1127SOL    HW1 5213   3.756   1.050   0.204
 1127SOL    HW2 5214   3.902   1.021   0.236
 1128SOL     OW 5215  11.348   6.321   9.401
 1128SOL    HW1 5216  11.392   6.302   9.484
 1128SOL    HW2 5217  11.402   6.277   9.335
 1129SOL     OW 5218   7.617   0.463   7.352
 1129SOL    HW1 5219   7.598   0.388   7.295
 1129SOL    HW2 5220   7.663   0.525   7.296
 1130SOL     OW 5221   5.425  13.451  13.848
 1130SOL    HW1 5222   5.446  13.361  13.875
 1130SOL    HW2 5223   5.479  13.506  13.904
 1131SOL     OW 5224   6.434  13.024   9.209
 1131SOL    HW1 5225   6.486  13.085   9.157
 1131SOL    HW2 5226   6.419  13.069   9.292
 1132SOL     OW 5227   0.662   7.637  14.750
 1132SOL    HW1 5228   0.583   7.583  14.739
 1132SOL    HW2 5229   0.719   7.586  14.807
 1133SOL     OW 5230  12.854   4.029   2.883
 1133SOL    HW1 5231  12.821   3.996   2.799
 1133SOL    HW2 5232  12.778   4.030   2.940
 1134SOL     OW 5233   8.112  12.359  13.792
 1134SOL    HW1 5234   8.141  12.368  13.883
 1134SOL    HW2 5235   8.187  12.387  13.740
 1135SOL     OW 5236   9.529   1.760   5.260
 1135SOL    HW1 5237   9.490   1.681   5.299
 1135SOL    HW2 5238   9.608   1.777   5.312
 1136SOL     OW 5239   5.849  13.769   3.015
 1136SOL    HW1 5240   5.883  13.831   3.080
 1136SOL    HW2 5241   5.764  13.743   3.049
 1137SOL     OW 5242   3.168   1.734  14.398
 1137SOL    HW1 5243   3.189   1.658  14.453
 1137SOL    HW2 5244   3.228   1.802  14.427
 1138SOL     OW 5245  14.778   9.419   2.473
 1138SOL    HW1 5246  14.831   9.495   2.449
 1138SOL    HW2 5247  14.689   9.454   2.479
 1139SOL     OW 5248  12.192   3.472   5.258
 1139SOL    HW1 5249  12.111   3.422   5.268
 1139SOL    HW2 5250  12.256   3.427   5.313
 1140SOL     OW 5251   2.406   9.041   1.938
 1140SOL    HW1 5252   2.442   9.048   1.850
 1140SOL    HW2 5253   2.340   9.110   1.942
 1141SOL     OW 5254  10.992  10.759   0.531
 1141SOL    HW1 5255  10.903  10.737   0.506
 1141SOL    HW2 5256  11.000  10.728   0.621
 1142SOL     OW 5257   8.946  12.718  12.686
 1142SOL    HW1 5258   8.963  12.813  12.685
 1142SOL    HW2 5259   8.901  12.703  12.769
 1143SOL     OW 5260   6.609   0.023   2.597
 1143SOL    HW1 5261   6.539  14.869   2.651
 1143SOL    HW2 5262   6.665   0.071   2.659
 1144SOL     OW 5263   0.043  13.979   0.187
 1144SOL    HW1 5264  14.864  13.932   0.244
 1144SOL    HW2 5265   0.124  13.929   0.192
 1145SOL     OW 5266   3.451   1.643   6.617
 1145SOL    HW1 5267   3.359   1.666   6.621
 1145SOL    HW2 5268   3.456   1.573   6.552
 1146SOL     OW 5269   0.943   2.468  11.053
 1146SOL    HW1 5270   1.039   2.474  11.051
 1146SOL    HW2 5271   0.916   2.490  10.964
 1147SOL     OW 5272  11.307  13.905  12.009
 1147SOL    HW1 5273  11.216  13.902  12.037
 1147SOL    HW2 5274  11.314  13.985  11.956
 1148SOL     OW 5275  13.356  12.188  11.896
 1148SOL    HW1 5276  13.412  12.206  11.820
 1148SOL    HW2 5277  13.275  12.156  11.858
 1149SOL     OW 5278   0.042   8.095   7.089
 1149SOL    HW1 5279   0.052   8.000   7.078
 1149SOL    HW2 5280   0.013   8.106   7.179
 1150SOL     OW 5281  13.868   8.513   3.200
 1150SOL    HW1 5282  13.815   8.444   3.161
 1150SOL    HW2 5283  13.827   8.595   3.172
 1151SOL     OW 5284  13.551   3.637  14.870
 1151SOL    HW1 5285  13.574   3.717  14.822
 1151SOL    HW2 5286  13.591   3.566  14.819
 1152SOL     OW 5287  14.286  11.727   7.240
 1152SOL    HW1 5288  14.196  11.758   7.229
 1152SOL    HW2 5289  14.300  11.725   7.335
 1153SOL     OW 5290  13.784  11.671   0.678
 1153SOL    HW1 5291  13.770  11.578   0.661
 1153SOL    HW2 5292  13.859  11.674   0.737
 1154SOL     OW 5293   5.162  11.095   5.987
 1154SOL    HW1 5294   5.095  11.162   5.981
 1154SOL    HW2 5295   5.243  11.143   6.006
 1155SOL     OW 5296   2.592   9.809  14.756
 1155SOL    HW1 5297   2.598   9.875  14.686
 1155SOL    HW2 5298   2.585   9.861  14.836
 1156SOL     OW 5299   4.102  14.240   7.600
 1156SOL    HW1 5300   4.053  14.217   7.521
 1156SOL    HW2 5301   4.084  14.167   7.661
 1157SOL     OW 5302   8.796   3.962   7.445
 1157SOL    HW1 5303   8.752   4.032   7.396
 1157SOL    HW2 5304   8.761   3.881   7.408
 1158SOL     OW 5305   3.335   1.736   0.469
 1158SOL    HW1 5306   3.357   1.644   0.457
 1158SOL    HW2 5307   3.239   1.739   0.465
 1159SOL     OW 5308   9.690  14.542  13.172
 1159SOL    HW1 5309   9.734  14.614  13.127
 1159SOL    HW2 5310   9.654  14.581  13.251
 1160SOL     OW 5311  11.184   7.275   5.934
 1160SOL    HW1 5312  11.117   7.227   5.981
 1160SOL    HW2 5313  11.266   7.248   5.974
 1161SOL     OW 5314  12.954   7.127  14.641
 1161SOL    HW1 5315  12.908   7.196  14.688
 1161SOL    HW2 5316  12.993   7.073  14.710
 1162SOL     OW 5317  11.377   4.078   1.624
 1162SOL    HW1 5318  11.406   4.001   1.672
 1162SOL    HW2 5319  11.383   4.052   1.532
 1163SOL     OW 5320  10.788  11.745   5.880
 1163SOL    HW1 5321  10.779  11.801   5.956
 1163SOL    HW2 5322  10.700  11.739   5.844
 1164SOL     OW 5323   1.874   8.830   0.185
 1164SOL    HW1 5324   1.916   8.756   0.228
 1164SOL    HW2 5325   1.826   8.875   0.254
 1165SOL     OW 5326   7.863  14.444   4.248
 1165SOL    HW1 5327   7.955  14.467   4.259
 1165SOL    HW2 5328   7.826  14.515   4.196
 1166SOL     OW 5329  11.705   0.880   8.277
 1166SOL    HW1 5330  11.701   0.786   8.295
 1166SOL    HW2 5331  11.743   0.919   8.356
 1167SOL     OW 5332   8.029   0.453   3.399
 1167SOL    HW1 5333   8.065   0.414   3.319
 1167SOL    HW2 5334   7.996   0.379   3.449
 1168SOL     OW 5335   5.490  14.857   1.831
 1168SOL    HW1 5336   5.431  14.788   1.799
 1168SOL    HW2 5337   5.433   0.052   1.841
 1169SOL     OW 5338  12.429   4.658   1.689
 1169SOL    HW1 5339  12.520   4.679   1.710
 1169SOL    HW2 5340  12.404   4.724   1.624
 1170SOL     OW 5341  10.769   2.279   5.910
 1170SOL    HW1 5342  10.709   2.353   5.918
 1170SOL    HW2 5343  10.739   2.231   5.833
 1171SOL     OW 5344  14.152  10.308   7.670
 1171SOL    HW1 5345  14.080  10.367   7.645
 1171SOL    HW2 5346  14.195  10.353   7.743
 1172SOL     OW 5347  10.956   1.655   0.479
 1172SOL    HW1 5348  10.986   1.668   0.569
 1172SOL    HW2 5349  11.036   1.659   0.426
 1173SOL     OW 5350   3.059   3.069   5.102
 1173SOL    HW1 5351   3.087   3.093   5.190
 1173SOL    HW2 5352   3.053   3.153   5.055
 1174SOL     OW 5353   4.784  13.015   3.694
 1174SOL    HW1 5354   4.785  12.958   3.771
 1174SOL    HW2 5355   4.875  13.016   3.664
 1175SOL     OW 5356   1.554   6.231   2.220
 1175SOL    HW1 5357   1.460   6.217   2.210
 1175SOL    HW2 5358   1.593   6.182   2.148
 1176SOL     OW 5359   4.785   2.948   3.259
 1176SOL    HW1 5360   4.799   2.983   3.347
 1176SOL    HW2 5361   4.737   3.018   3.213
 1177SOL     OW 5362   9.279   7.643   2.823
 1177SOL    HW1 5363   9.199   7.689   2.796
 1177SOL    HW2 5364   9.259   7.551   2.810
 1178SOL     OW 5365  12.701  11.139   0.587
 1178SOL    HW1 5366  12.735  11.068   0.532
 1178SOL    HW2 5367  12.769  11.206   0.584
 1179SOL     OW 5368  12.523   7.327  10.296
 1179SOL    HW1 5369  12.479   7.300  10.377
 1179SOL    HW2 5370  12.456   7.375  10.247
 1180SOL     OW 5371   8.806   1.766  11.639
 1180SOL    HW1 5372   8.847   1.684  11.610
 1180SOL    HW2 5373   8.876   1.831  11.635
 1181SOL     OW 5374   6.873   8.245   4.219
 1181SOL    HW1 5375   6.943   8.203   4.170
 1181SOL    HW2 5376   6.916   8.313   4.270
 1182SOL     OW 5377   9.505   0.357   9.451
 1182SOL    HW1 5378   9.428   0.305   9.473
 1182SOL    HW2 5379   9.550   0.306   9.384
 1183SOL     OW 5380   2.360  11.539   4.893
 1183SOL    HW1 5381   2.413  11.493   4.958
 1183SOL    HW2 5382   2.329  11.617   4.939
 1184SOL     OW 5383  13.431   5.461  13.275
 1184SOL    HW1 5384  13.448   5.528  13.208
 1184SOL    HW2 5385  13.498   5.395  13.260
 1185SOL     OW 5386  12.292   9.491  12.698
 1185SOL    HW1 5387  12.376   9.510  12.655
 1185SOL    HW2 5388  12.231   9.474  12.627
 1186SOL     OW 5389  11.271   6.646   3.691
 1186SOL    HW1 5390  11.313   6.566   3.722
 1186SOL    HW2 5391  11.315   6.665   3.608
 1187SOL     OW 5392   4.091  14.468  11.847
 1187SOL    HW1 5393   4.052  14.419  11.775
 1187SOL    HW2 5394   4.038  14.446  11.923
 1188SOL     OW 5395   4.060   5.538   4.597
 1188SOL    HW1 5396   4.152   5.561   4.592
 1188SOL    HW2 5397   4.019   5.609   4.646
 1189SOL     OW 5398   4.446  13.918  11.353
 1189SOL    HW1 5399   4.422  13.987  11.292
 1189SOL    HW2 5400   4.448  13.961  11.439
 1190SOL     OW 5401   7.886  10.536  12.978
 1190SOL    HW1 5402   7.824  10.502  12.914
 1190SOL    HW2 5403   7.954  10.469  12.985
 1191SOL     OW 5404  14.374   5.626   9.534
 1191SOL    HW1 5405  14.359   5.660   9.446
 1191SOL    HW2 5406  14.315   5.550   9.541
 1192SOL     OW 5407   1.173   6.035   4.126
 1192SOL    HW1 5408   1.212   6.027   4.213
 1192SOL    HW2 5409   1.242   6.009   4.065
 1193SOL     OW 5410  13.522   7.342  12.221
 1193SOL    HW1 5411  13.503   7.271  12.160
 1193SOL    HW2 5412  13.495   7.421  12.175
 1194SOL     OW 5413   9.638  13.289  13.381
 1194SOL    HW1 5414   9.562  13.234  13.401
 1194SOL    HW2 5415   9.643  13.290  13.285
 1195SOL     OW 5416  12.548  12.940   6.368
 1195SOL    HW1 5417  12.576  12.872   6.306
 1195SOL    HW2 5418  12.515  12.891   6.444
 1196SOL     OW 5419  13.027   5.400  13.531
 1196SOL    HW1 5420  13.013   5.494  13.534
 1196SOL    HW2 5421  12.942   5.362  13.554
 1197SOL     OW 5422  14.466   5.315  13.902
 1197SOL    HW1 5423  14.485   5.301  13.809
 1197SOL    HW2 5424  14.393   5.377  13.903
 1198SOL     OW 5425   2.569   8.324   7.928
 1198SOL    HW1 5426   2.591   8.232   7.938
 1198SOL    HW2 5427   2.646   8.364   7.888
 1199SOL     OW 5428   7.037   2.989   1.591
 1199SOL    HW1 5429   7.010   3.061   1.646
 1199SOL    HW2 5430   7.041   2.914   1.650
 1200SOL     OW 5431  12.307   5.444   2.487
 1200SOL    HW1 5432  12.225   5.427   2.442
 1200SOL    HW2 5433  12.348   5.358   2.496
 1201SOL     OW 5434  11.204  10.198   4.380
 1201SOL    HW1 5435  11.115  10.164   4.368
 1201SOL    HW2 5436  11.232  10.164   4.465
 1202SOL     OW 5437   1.441   0.972   0.522
 1202SOL    HW1 5438   1.448   0.926   0.606
 1202SOL    HW2 5439   1.444   1.065   0.546
 1203SOL     OW 5440  11.329  12.091   7.611
 1203SOL    HW1 5441  11.415  12.048   7.613
 1203SOL    HW2 5442  11.335  12.152   7.538
 1204SOL     OW 5443  12.986  13.153   8.053
 1204SOL    HW1 5444  12.902  13.194   8.074
 1204SOL    HW2 5445  12.963  13.075   8.002
 1205SOL     OW 5446  11.836  11.783   7.707
 1205SOL    HW1 5447  11.827  11.706   7.763
 1205SOL    HW2 5448  11.846  11.748   7.618
 1206SOL     OW 5449  13.163  11.277  10.415
 1206SOL    HW1 5450  13.090  11.215  10.421
 1206SOL    HW2 5451  13.234  11.236  10.464
 1207SOL     OW 5452  13.575  12.946  10.255
 1207SOL    HW1 5453  13.616  13.032  10.264
 1207SOL    HW2 5454  13.498  12.961  10.200
 1208SOL     OW 5455  10.217   0.960   6.960
 1208SOL    HW1 5456  10.153   1.008   7.013
 1208SOL    HW2 5457  10.300   1.004   6.977
 1209SOL     OW 5458  13.405   7.302   0.223
 1209SOL    HW1 5459  13.469   7.254   0.170
 1209SOL    HW2 5460  13.450   7.318   0.306
 1210SOL     OW 5461   3.002  13.757   5.597
 1210SOL    HW1 5462   3.083  13.705   5.602
 1210SOL    HW2 5463   3.031  13.844   5.570
 1211SOL     OW 5464   8.998  14.875   7.931
 1211SOL    HW1 5465   9.092   0.006   7.939
 1211SOL    HW2 5466   8.968  14.864   8.021
 1212SOL     OW 5467   1.377   5.499  12.596
 1212SOL    HW1 5468   1.448   5.437  12.614
 1212SOL    HW2 5469   1.305   5.470  12.652
 1213SOL     OW 5470   1.001  10.115   6.841
 1213SOL    HW1 5471   1.081  10.143   6.887
 1213SOL    HW2 5472   0.962  10.197   6.810
 1214SOL     OW 5473   6.913   5.884   1.865
 1214SOL    HW1 5474   6.946   5.971   1.887
 1214SOL    HW2 5475   6.855   5.898   1.790
 1215SOL     OW 5476  12.590  10.491   0.748
 1215SOL    HW1 5477  12.571  10.584   0.740
 1215SOL    HW2 5478  12.646  10.471   0.674
 1216SOL     OW 5479  10.924  11.214   5.079
 1216SOL    HW1 5480  10.906  11.257   5.163
 1216SOL    HW2 5481  10.890  11.274   5.014
 1217SOL     OW 5482  14.335   3.460   1.178
 1217SOL    HW1 5483  14.327   3.382   1.232
 1217SOL    HW2 5484  14.246   3.479   1.150
 1218SOL     OW 5485  12.562   9.228   1.896
 1218SOL    HW1 5486  12.538   9.256   1.984
 1218SOL    HW2 5487  12.513   9.146   1.883
 1219SOL     OW 5488   3.726   3.909   1.856
 1219SOL    HW1 5489   3.666   3.983   1.866
 1219SOL    HW2 5490   3.703   3.849   1.927
 1220SOL     OW 5491   5.436   9.112   7.267
 1220SOL    HW1 5492   5.475   9.025   7.261
 1220SOL    HW2 5493   5.347   9.101   7.234
 1221SOL     OW 5494  14.390  13.086   0.871
 1221SOL    HW1 5495  14.316  13.049   0.823
 1221SOL    HW2 5496  14.376  13.181   0.867
 1222SOL     OW 5497   1.824   5.303   6.117
 1222SOL    HW1 5498   1.806   5.212   6.140
 1222SOL    HW2 5499   1.754   5.353   6.159
 1223SOL     OW 5500   5.078   8.908   8.106
 1223SOL    HW1 5501   5.105   8.909   8.014
 1223SOL    HW2 5502   5.109   8.992   8.140
 1224SOL     OW 5503  14.752   2.463   9.130
 1224SOL    HW1 5504  14.676   2.409   9.108
 1224SOL    HW2 5505  14.734   2.547   9.088
 1225SOL     OW 5506  10.781   7.370   7.490
 1225SOL    HW1 5507  10.849   7.431   7.519
 1225SOL    HW2 5508  10.815   7.333   7.408
 1226SOL     OW 5509  12.915  12.489  11.667
 1226SOL    HW1 5510  12.964  12.570  11.669
 1226SOL    HW2 5511  12.867  12.492  11.584
 1227SOL     OW 5512   7.937   2.181   9.446
 1227SOL    HW1 5513   7.855   2.186   9.397
 1227SOL    HW2 5514   7.911   2.153   9.534
 1228SOL     OW 5515  10.432   9.268   6.928
 1228SOL    HW1 5516  10.457   9.200   6.990
 1228SOL    HW2 5517  10.371   9.224   6.868
 1229SOL     OW 5518  12.821   0.243  12.015
 1229SOL    HW1 5519  12.907   0.237  11.974
 1229SOL    HW2 5520  12.787   0.153  12.012
 1230SOL     OW 5521  14.808   5.132  13.451
 1230SOL    HW1 5522  14.828   5.049  13.494
 1230SOL    HW2 5523  14.799   5.195  13.522
 1231SOL     OW 5524   3.778  13.883   4.590
 1231SOL    HW1 5525   3.755  13.899   4.681
 1231SOL    HW2 5526   3.700  13.845   4.551
 1232SOL     OW 5527  13.543  11.120   7.035
 1232SOL    HW1 5528  13.547  11.086   7.124
 1232SOL    HW2 5529  13.450  11.141   7.022
 1233SOL     OW 5530   7.552   7.076   6.647
 1233SOL    HW1 5531   7.463   7.040   6.653
 1233SOL    HW2 5532   7.558   7.111   6.559
 1234SOL     OW 5533  11.214  13.447   1.680
 1234SOL    HW1 5534  11.294  13.398   1.664
 1234SOL    HW2 5535  11.147  13.400   1.631
 1235SOL     OW 5536   4.987   7.613  13.606
 1235SOL    HW1 5537   5.010   7.537  13.658
 1235SOL    HW2 5538   4.892   7.621  13.614
 1236SOL     OW 5539  14.476   0.346  10.215
 1236SOL    HW1 5540  14.427   0.264  10.203
 1236SOL    HW2 5541  14.424   0.396  10.278
 1237SOL     OW 5542  11.828   8.984  13.760
 1237SOL    HW1 5543  11.834   9.052  13.827
 1237SOL    HW2 5544  11.736   8.988  13.731
 1238SOL     OW 5545   2.405   0.803   2.896
 1238SOL    HW1 5546   2.315   0.831   2.880
 1238SOL    HW2 5547   2.397   0.726   2.952
 1239SOL     OW 5548  11.244   4.854   4.789
 1239SOL    HW1 5549  11.222   4.919   4.856
 1239SOL    HW2 5550  11.270   4.906   4.713
 1240SOL     OW 5551   4.330   7.071  12.412
 1240SOL    HW1 5552   4.235   7.064  12.416
 1240SOL    HW2 5553   4.357   7.095  12.500
 1241SOL     OW 5554   9.395   5.607  14.471
 1241SOL    HW1 5555   9.385   5.685  14.527
 1241SOL    HW2 5556   9.307   5.568  14.469
 1242SOL     OW 5557   7.012  13.719  13.858
 1242SOL    HW1 5558   7.019  13.746  13.950
 1242SOL    HW2 5559   7.012  13.624  13.861
 1243SOL     OW 5560   3.222  13.862   4.172
 1243SOL    HW1 5561   3.256  13.938   4.219
 1243SOL    HW2 5562   3.250  13.787   4.225
 1244SOL     OW 5563   4.541  14.002   2.542
 1244SOL    HW1 5564   4.491  14.058   2.483
 1244SOL    HW2 5565   4.629  14.041   2.543
 1245SOL     OW 5566  10.867  13.236  14.799
 1245SOL    HW1 5567  10.960  13.257  14.802
 1245SOL    HW2 5568  10.864  13.151  14.755
 1246SOL     OW 5569   6.635  12.394  10.867
 1246SOL    HW1 5570   6.688  12.449  10.924
 1246SOL    HW2 5571   6.557  12.373  10.919
 1247SOL     OW 5572   2.440   5.351   3.910
 1247SOL    HW1 5573   2.440   5.357   4.005
 1247SOL    HW2 5574   2.430   5.258   3.892
 1248SOL     OW 5575   0.971   1.493   7.817
 1248SOL    HW1 5576   0.974   1.526   7.727
 1248SOL    HW2 5577   0.910   1.419   7.814
 1249SOL     OW 5578   0.449   4.257   0.101
 1249SOL    HW1 5579   0.371   4.251   0.046
 1249SOL    HW2 5580   0.458   4.350   0.121
 1250SOL     OW 5581  12.329   7.702   7.172
 1250SOL    HW1 5582  12.256   7.642   7.151
 1250SOL    HW2 5583  12.319   7.774   7.111
 1251SOL     OW 5584  10.791   0.355   7.194
 1251SOL    HW1 5585  10.815   0.442   7.164
 1251SOL    HW2 5586  10.784   0.363   7.289
 1252SOL     OW 5587   3.418   9.023   4.479
 1252SOL    HW1 5588   3.452   9.047   4.393
 1252SOL    HW2 5589   3.474   8.950   4.507
 1253SOL     OW 5590   8.257  12.547   5.896
 1253SOL    HW1 5591   8.216  12.604   5.961
 1253SOL    HW2 5592   8.318  12.605   5.850
 1254SOL     OW 5593   7.569  10.854  11.067
 1254SOL    HW1 5594   7.492  10.908  11.054
 1254SOL    HW2 5595   7.564  10.826  11.158
 1255SOL     OW 5596   9.599   4.755   3.019
 1255SOL    HW1 5597   9.517   4.724   2.982
 1255SOL    HW2 5598   9.614   4.840   2.977
 1256SOL     OW 5599  13.799  11.849   8.069
 1256SOL    HW1 5600  13.713  11.882   8.044
 1256SOL    HW2 5601  13.781  11.765   8.111
 1257SOL     OW 5602   4.643   5.496   5.898
 1257SOL    HW1 5603   4.670   5.408   5.924
 1257SOL    HW2 5604   4.582   5.524   5.966
 1258SOL     OW 5605   1.945  11.169   1.036
 1258SOL    HW1 5606   1.923  11.111   1.109
 1258SOL    HW2 5607   1.977  11.110   0.968
 1259SOL     OW 5608  11.403   6.669   5.028
 1259SOL    HW1 5609  11.415   6.679   5.123
 1259SOL    HW2 5610  11.489   6.645   4.995
 1260SOL     OW 5611   5.676   6.873   7.729
 1260SOL    HW1 5612   5.732   6.948   7.710
 1260SOL    HW2 5613   5.587   6.909   7.731
 1261SOL     OW 5614   6.508   2.939  13.873
 1261SOL    HW1 5615   6.426   2.953  13.826
 1261SOL    HW2 5616   6.481   2.903  13.957
 1262SOL     OW 5617  13.169  12.185   7.597
 1262SOL    HW1 5618  13.124  12.225   7.523
 1262SOL    HW2 5619  13.179  12.257   7.661
 1263SOL     OW 5620   2.993  10.039   7.433
 1263SOL    HW1 5621   2.968  10.040   7.341
 1263SOL    HW2 5622   3.047   9.960   7.442
 1264SOL     OW 5623   8.252   2.292  12.260
 1264SOL    HW1 5624   8.198   2.264  12.185
 1264SOL    HW2 5625   8.336   2.314  12.221
 1265SOL     OW 5626   7.742   7.609   5.203
 1265SOL    HW1 5627   7.827   7.623   5.245
 1265SOL    HW2 5628   7.704   7.535   5.249
 1266SOL     OW 5629  13.379   3.823   2.521
 1266SOL    HW1 5630  13.414   3.796   2.436
 1266SOL    HW2 5631  13.440   3.785   2.585
 1267SOL     OW 5632   2.188   5.265   4.224
 1267SOL    HW1 5633   2.221   5.178   4.202
 1267SOL    HW2 5634   2.136   5.291   4.148
 1268SOL     OW 5635  13.550  11.882  11.088
 1268SOL    HW1 5636  13.626  11.827  11.071
 1268SOL    HW2 5637  13.559  11.955  11.027
 1269SOL     OW 5638  14.632  14.308   2.793
 1269SOL    HW1 5639  14.590  14.236   2.745
 1269SOL    HW2 5640  14.560  14.366   2.817
 1270SOL     OW 5641   6.566   7.356   6.111
 1270SOL    HW1 5642   6.528   7.309   6.037
 1270SOL    HW2 5643   6.590   7.441   6.076
 1271SOL     OW 5644   0.710   1.727   2.220
 1271SOL    HW1 5645   0.661   1.753   2.143
 1271SOL    HW2 5646   0.672   1.778   2.292
 1272SOL     OW 5647   2.867   6.355   4.938
 1272SOL    HW1 5648   2.810   6.280   4.954
 1272SOL    HW2 5649   2.895   6.345   4.847
 1273SOL     OW 5650   8.782   6.393  11.317
 1273SOL    HW1 5651   8.875   6.418  11.312
 1273SOL    HW2 5652   8.771   6.361  11.407
 1274SOL     OW 5653   8.042  14.095   9.706
 1274SOL    HW1 5654   8.034  14.033   9.634
 1274SOL    HW2 5655   8.094  14.167   9.670
 1275SOL     OW 5656  10.752  14.496   1.186
 1275SOL    HW1 5657  10.766  14.536   1.272
 1275SOL    HW2 5658  10.834  14.514   1.138
 1276SOL     OW 5659  13.722   2.748   5.329
 1276SOL    HW1 5660  13.747   2.693   5.255
 1276SOL    HW2 5661  13.750   2.700   5.406
 1277SOL     OW 5662  13.929  10.508   1.347
 1277SOL    HW1 5663  13.918  10.441   1.415
 1277SOL    HW2 5664  13.900  10.589   1.388
 1278SOL     OW 5665   2.441   8.886  13.119
 1278SOL    HW1 5666   2.412   8.976  13.100
 1278SOL    HW2 5667   2.395   8.864  13.200
 1279SOL     OW 5668  14.807   6.611   6.421
 1279SOL    HW1 5669  14.732   6.651   6.464
 1279SOL    HW2 5670   0.001   6.661   6.452
 1280SOL     OW 5671   8.518   3.528   0.032
 1280SOL    HW1 5672   8.584   3.468  14.878
 1280SOL    HW2 5673   8.566   3.609   0.047
 1281SOL     OW 5674  14.708  13.200   2.622
 1281SOL    HW1 5675  14.669  13.260   2.559
 1281SOL    HW2 5676  14.709  13.248   2.705
 1282SOL     OW 5677   1.010  12.093   6.249
 1282SOL    HW1 5678   0.962  12.134   6.177
 1282SOL    HW2 5679   1.095  12.137   6.249
 1283SOL     OW 5680  13.179   4.647   3.981
 1283SOL    HW1 5681  13.155   4.565   4.024
 1283SOL    HW2 5682  13.275   4.650   3.988
 1284SOL     OW 5683  13.464   6.666  14.212
 1284SOL    HW1 5684  13.378   6.626  14.200
 1284SOL    HW2 5685  13.487   6.701  14.126
 1285SOL     OW 5686   7.831   2.567  11.339
 1285SOL    HW1 5687   7.770   2.529  11.276
 1285SOL    HW2 5688   7.879   2.492  11.374
 1286SOL     OW 5689   5.418  11.072   2.568
 1286SOL    HW1 5690   5.354  11.004   2.589
 1286SOL    HW2 5691   5.368  11.135   2.515
 1287SOL     OW 5692   9.687   1.167   9.880
 1287SOL    HW1 5693   9.614   1.229   9.885
 1287SOL    HW2 5694   9.646   1.083   9.856
 1288SOL     OW 5695  14.730  14.820   9.404
 1288SOL    HW1 5696  14.797  14.788   9.465
 1288SOL    HW2 5697  14.755   0.028   9.386
 1289SOL     OW 5698   4.609   9.162  14.231
 1289SOL    HW1 5699   4.554   9.086  14.214
 1289SOL    HW2 5700   4.610   9.171  14.327
 1290SOL     OW 5701  14.054   9.461  13.450
 1290SOL    HW1 5702  14.140   9.477  13.488
 1290SOL    HW2 5703  14.072   9.404  13.374
 1291SOL     OW 5704   9.323  14.018  13.140
 1291SOL    HW1 5705   9.231  13.993  13.127
 1291SOL    HW2 5706   9.319  14.107  13.175
 1292SOL     OW 5707   0.385  13.268  12.210
 1292SOL    HW1 5708   0.356  13.297  12.296
 1292SOL    HW2 5709   0.466  13.317  12.195
 1293SOL     OW 5710   5.027   9.156   3.971
 1293SOL    HW1 5711   5.029   9.065   3.942
 1293SOL    HW2 5712   5.092   9.161   4.040
 1294SOL     OW 5713   9.116  11.184  11.780
 1294SOL    HW1 5714   9.090  11.250  11.844
 1294SOL    HW2 5715   9.106  11.227  11.695
 1295SOL     OW 5716   2.654  14.847   5.589
 1295SOL    HW1 5717   2.670   0.030   5.520
 1295SOL    HW2 5718   2.695   0.003   5.667
 1296SOL     OW 5719   0.156   0.196   4.547
 1296SOL    HW1 5720   0.078   0.184   4.600
 1296SOL    HW2 5721   0.176   0.290   4.553
 1297SOL     OW 5722   9.434  11.624   2.377
 1297SOL    HW1 5723   9.436  11.683   2.302
 1297SOL    HW2 5724   9.443  11.682   2.453
 1298SOL     OW 5725   6.505   4.428   7.524
 1298SOL    HW1 5726   6.573   4.363   7.511
 1298SOL    HW2 5727   6.464   4.437   7.438
 1299SOL     OW 5728   8.047   3.659  13.304
 1299SOL    HW1 5729   8.108   3.615  13.363
 1299SOL    HW2 5730   8.074   3.630  13.216
 1300SOL     OW 5731   0.615   8.213   1.493
 1300SOL    HW1 5732   0.671   8.138   1.516
 1300SOL    HW2 5733   0.651   8.285   1.544
 1301SOL     OW 5734  12.829   2.642   5.710
 1301SOL    HW1 5735  12.782   2.726   5.713
 1301SOL    HW2 5736  12.920   2.667   5.694
 1302SOL     OW 5737   4.813  11.377   4.196
 1302SOL    HW1 5738   4.858  11.461   4.182
 1302SOL    HW2 5739   4.832  11.327   4.117
 1303SOL     OW 5740   2.688   9.397  12.721
 1303SOL    HW1 5741   2.735   9.367  12.643
 1303SOL    HW2 5742   2.638   9.473  12.692
 1304SOL     OW 5743   7.567  10.953   3.859
 1304SOL    HW1 5744   7.524  10.906   3.787
 1304SOL    HW2 5745   7.644  10.901   3.879
 1305SOL     OW 5746  14.304   3.872  12.666
 1305SOL    HW1 5747  14.330   3.803  12.605
 1305SOL    HW2 5748  14.358   3.857  12.744
 1306SOL     OW 5749  13.425   4.732  14.159
 1306SOL    HW1 5750  13.409   4.825  14.177
 1306SOL    HW2 5751  13.364   4.685  14.216
 1307SOL     OW 5752   6.634   8.829   2.669
 1307SOL    HW1 5753   6.700   8.852   2.734
 1307SOL    HW2 5754   6.550   8.845   2.711
 1308SOL     OW 5755   1.674  10.154   2.858
 1308SOL    HW1 5756   1.687  10.248   2.863
 1308SOL    HW2 5757   1.614  10.134   2.930
 1309SOL     OW 5758   0.161  11.212  13.301
 1309SOL    HW1 5759   0.088  11.198  13.242
 1309SOL    HW2 5760   0.158  11.306  13.321
 1310SOL     OW 5761  14.039   3.666   9.127
 1310SOL    HW1 5762  14.078   3.746   9.163
 1310SOL    HW2 5763  14.095   3.595   9.159
 1311SOL     OW 5764   7.831   4.283   9.330
 1311SOL    HW1 5765   7.750   4.293   9.281
 1311SOL    HW2 5766   7.828   4.193   9.364
 1312SOL     OW 5767   8.042  12.827   2.529
 1312SOL    HW1 5768   8.046  12.867   2.616
 1312SOL    HW2 5769   8.079  12.740   2.541
 1313SOL     OW 5770  12.681  10.705   9.985
 1313SOL    HW1 5771  12.616  10.761  10.026
 1313SOL    HW2 5772  12.741  10.680  10.056
 1314SOL     OW 5773   2.094   1.679   9.344
 1314SOL    HW1 5774   2.098   1.599   9.292
 1314SOL    HW2 5775   2.001   1.698   9.353
 1315SOL     OW 5776   6.597   4.269  11.023
 1315SOL    HW1 5777   6.589   4.364  11.025
 1315SOL    HW2 5778   6.686   4.252  11.053
 1316SOL     OW 5779   9.794   0.335   2.263
 1316SOL    HW1 5780   9.699   0.338   2.270
 1316SOL    HW2 5781   9.825   0.366   2.349
 1317SOL     OW 5782   3.674  10.374  10.247
 1317SOL    HW1 5783   3.593  10.366  10.197
 1317SOL    HW2 5784   3.677  10.295  10.301
 1318SOL     OW 5785   3.954   6.761   7.255
 1318SOL    HW1 5786   3.991   6.673   7.260
 1318SOL    HW2 5787   3.971   6.789   7.165
 1319SOL     OW 5788   6.756  14.378   4.495
 1319SOL    HW1 5789   6.756  14.287   4.524
 1319SOL    HW2 5790   6.835  14.415   4.535
 1320SOL     OW 5791   8.371   8.450  10.135
 1320SOL    HW1 5792   8.304   8.404  10.085
 1320SOL    HW2 5793   8.424   8.495  10.069
 1321SOL     OW 5794  14.559   1.178   3.470
 1321SOL    HW1 5795  14.616   1.175   3.393
 1321SOL    HW2 5796  14.585   1.258   3.516
 1322SOL     OW 5797   9.110   0.753  12.506
 1322SOL    HW1 5798   9.040   0.787  12.562
 1322SOL    HW2 5799   9.182   0.815  12.516
 1323SOL     OW 5800   2.764   8.922  13.346
 1323SOL    HW1 5801   2.859   8.922  13.334
 1323SOL    HW2 5802   2.729   8.886  13.265
 1324SOL     OW 5803   3.801   4.817   9.938
 1324SOL    HW1 5804   3.876   4.799   9.882
 1324SOL    HW2 5805   3.797   4.741   9.996
 1325SOL     OW 5806  14.793   6.469  11.404
 1325SOL    HW1 5807  14.817   6.397  11.462
 1325SOL    HW2 5808  14.746   6.427  11.332
 1326SOL     OW 5809  13.138   0.202   1.129
 1326SOL    HW1 5810  13.098   0.282   1.164
 1326SOL    HW2 5811  13.135   0.213   1.034
 1327SOL     OW 5812   3.681  12.246  12.248
 1327SOL    HW1 5813   3.646  12.166  12.288
 1327SOL    HW2 5814   3.606  12.306  12.248
 1328SOL     OW 5815   1.980   4.962   0.805
 1328SOL    HW1 5816   2.055   4.904   0.816
 1328SOL    HW2 5817   2.007   5.024   0.736
 1329SOL     OW 5818   7.073   1.414   1.360
 1329SOL    HW1 5819   7.063   1.452   1.273
 1329SOL    HW2 5820   7.117   1.482   1.412
 1330SOL     OW 5821   1.303  10.395  14.853
 1330SOL    HW1 5822   1.382  10.424  14.807
 1330SOL    HW2 5823   1.251  10.475  14.865
 1331SOL     OW 5824   0.475   8.585   5.693
 1331SOL    HW1 5825   0.468   8.635   5.774
 1331SOL    HW2 5826   0.459   8.649   5.624
 1332SOL     OW 5827  11.962  11.122  13.964
 1332SOL    HW1 5828  11.995  11.171  14.039
 1332SOL    HW2 5829  11.871  11.100  13.988
 1333SOL     OW 5830  14.669   5.338   2.216
 1333SOL    HW1 5831  14.749   5.303   2.255
 1333SOL    HW2 5832  14.668   5.430   2.242
 1334SOL     OW 5833   5.532  10.251   9.219
 1334SOL    HW1 5834   5.608  10.307   9.203
 1334SOL    HW2 5835   5.567  10.162   9.213
 1335SOL     OW 5836  13.378  12.004  10.878
 1335SOL    HW1 5837  13.441  11.965  10.817
 1335SOL    HW2 5838  13.297  11.956  10.863
 1336SOL     OW 5839   2.799   2.455   3.309
 1336SOL    HW1 5840   2.852   2.430   3.385
 1336SOL    HW2 5841   2.800   2.378   3.252
 1337SOL     OW 5842   0.581  12.822   5.973
 1337SOL    HW1 5843   0.524  12.896   5.995
 1337SOL    HW2 5844   0.580  12.767   6.051
 1338SOL     OW 5845  10.156  10.256   9.318
 1338SOL    HW1 5846  10.133  10.254   9.225
 1338SOL    HW2 5847  10.188  10.345   9.333
 1339SOL     OW 5848   8.110   8.466   8.560
 1339SOL    HW1 5849   8.139   8.434   8.475
 1339SOL    HW2 5850   8.016   8.478   8.551
 1340SOL     OW 5851   1.699   1.075   7.140
 1340SOL    HW1 5852   1.765   1.010   7.166
 1340SOL    HW2 5853   1.736   1.117   7.063
 1341SOL     OW 5854   0.246   4.413   6.466
 1341SOL    HW1 5855   0.286   4.332   6.500
 1341SOL    HW2 5856   0.213   4.457   6.544
 1342SOL     OW 5857  10.522   3.557   7.040
 1342SOL    HW1 5858  10.479   3.552   7.125
 1342SOL    HW2 5859  10.504   3.646   7.009
 1343SOL     OW 5860   0.553   2.476   2.804
 1343SOL    HW1 5861   0.594   2.420   2.738
 1343SOL    HW2 5862   0.611   2.553   2.809
 1344SOL     OW 5863   8.557   3.813  12.759
 1344SOL    HW1 5864   8.510   3.864  12.693
 1344SOL    HW2 5865   8.491   3.753  12.794
 1345SOL     OW 5866   5.350  11.548   2.697
 1345SOL    HW1 5867   5.350  11.610   2.770
 1345SOL    HW2 5868   5.288  11.480   2.723
 1346SOL     OW 5869  13.460   6.416   9.337
 1346SOL    HW1 5870  13.425   6.486   9.283
 1346SOL    HW2 5871  13.388   6.354   9.348
 1347SOL     OW 5872   7.790   3.109   3.122
 1347SOL    HW1 5873   7.864   3.101   3.062
 1347SOL    HW2 5874   7.830   3.127   3.207
 1348SOL     OW 5875  12.018   1.999  10.928
 1348SOL    HW1 5876  12.082   2.030  10.993
 1348SOL    HW2 5877  12.061   2.012  10.844
 1349SOL     OW 5878  13.590   3.607   6.634
 1349SOL    HW1 5879  13.604   3.685   6.689
 1349SOL    HW2 5880  13.618   3.635   6.546
 1350SOL     OW 5881   5.503  14.117   7.610
 1350SOL    HW1 5882   5.426  14.157   7.649
 1350SOL    HW2 5883   5.469  14.045   7.556
 1351SOL     OW 5884   8.065   1.846   3.739
 1351SOL    HW1 5885   8.133   1.847   3.806
 1351SOL    HW2 5886   8.017   1.764   3.755
 1352SOL     OW 5887   4.409   1.138   0.544
 1352SOL    HW1 5888   4.398   1.209   0.481
 1352SOL    HW2 5889   4.503   1.119   0.543
 1353SOL     OW 5890   1.075   8.777   4.840
 1353SOL    HW1 5891   1.151   8.752   4.787
 1353SOL    HW2 5892   1.081   8.721   4.917
 1354SOL     OW 5893   5.107   7.326  12.541
 1354SOL    HW1 5894   5.133   7.234  12.531
 1354SOL    HW2 5895   5.154   7.356  12.620
 1355SOL     OW 5896   8.147  14.168   4.727
 1355SOL    HW1 5897   8.134  14.258   4.696
 1355SOL    HW2 5898   8.182  14.179   4.816
 1356SOL     OW 5899  12.150   3.221  13.328
 1356SOL    HW1 5900  12.118   3.141  13.286
 1356SOL    HW2 5901  12.211   3.190  13.396
 1357SOL     OW 5902   6.110   1.371   7.095
 1357SOL    HW1 5903   6.021   1.351   7.124
 1357SOL    HW2 5904   6.158   1.289   7.108
 1358SOL     OW 5905  13.329  10.283   8.262
 1358SOL    HW1 5906  13.234  10.275   8.269
 1358SOL    HW2 5907  13.348  10.369   8.298
 1359SOL     OW 5908  13.527   2.804   0.049
 1359SOL    HW1 5909  13.442   2.825   0.088
 1359SOL    HW2 5910  13.510   2.726  14.877
 1360SOL     OW 5911   4.504   6.243  11.341
 1360SOL    HW1 5912   4.420   6.278  11.372
 1360SOL    HW2 5913   4.481   6.166  11.289
 1361SOL     OW 5914   7.177   7.256   0.315
 1361SOL    HW1 5915   7.212   7.190   0.255
 1361SOL    HW2 5916   7.205   7.340   0.279
 1362SOL     OW 5917   7.129  10.955   3.918
 1362SOL    HW1 5918   7.091  11.041   3.933
 1362SOL    HW2 5919   7.180  10.965   3.838
 1363SOL     OW 5920   7.207  11.582   1.453
 1363SOL    HW1 5921   7.266  11.594   1.527
 1363SOL    HW2 5922   7.149  11.658   1.455
 1364SOL     OW 5923  13.950  12.131   7.893
 1364SOL    HW1 5924  14.003  12.153   7.969
 1364SOL    HW2 5925  13.999  12.164   7.818
 1365SOL     OW 5926   4.390   2.128  12.300
 1365SOL    HW1 5927   4.482   2.108  12.319
 1365SOL    HW2 5928   4.356   2.162  12.382
 1366SOL     OW 5929   0.894   7.300   1.991
 1366SOL    HW1 5930   0.813   7.316   1.942
 1366SOL    HW2 5931   0.929   7.219   1.954
 1367SOL     OW 5932  12.863   2.271  14.412
 1367SOL    HW1 5933  12.817   2.187  14.410
 1367SOL    HW2 5934  12.836   2.311  14.494
 1368SOL     OW 5935   1.177  14.825  13.817
 1368SOL    HW1 5936   1.153  14.733  13.831
 1368SOL    HW2 5937   1.257  14.821  13.764
 1369SOL     OW 5938  14.645  14.512  14.340
 1369SOL    HW1 5939  14.664  14.468  14.423
 1369SOL    HW2 5940  14.641  14.605  14.362
 1370SOL     OW 5941  14.081  13.865   2.176
 1370SOL    HW1 5942  13.987  13.863   2.191
 1370SOL    HW2 5943  14.108  13.774   2.179
 1371SOL     OW 5944   5.702   5.645   5.843
 1371SOL    HW1 5945   5.661   5.645   5.756
 1371SOL    HW2 5946   5.628   5.636   5.904
 1372SOL     OW 5947   8.033   5.717   0.144
 1372SOL    HW1 5948   8.078   5.796   0.173
 1372SOL    HW2 5949   8.004   5.675   0.225
 1373SOL     OW 5950   7.290   8.026   0.945
 1373SOL    HW1 5951   7.287   7.989   1.034
 1373SOL    HW2 5952   7.210   7.992   0.904
 1374SOL     OW 5953   1.930  10.698  14.339
 1374SOL    HW1 5954   1.978  10.624  14.302
 1374SOL    HW2 5955   1.952  10.771  14.282
 1375SOL     OW 5956  10.640   3.104  12.542
 1375SOL    HW1 5957  10.683   3.019  12.557
 1375SOL    HW2 5958  10.598   3.094  12.456
 1376SOL     OW 5959   6.075   3.060   4.817
 1376SOL    HW1 5960   6.030   3.100   4.891
 1376SOL    HW2 5961   6.012   2.997   4.782
 1377SOL     OW 5962   1.594   1.660   1.530
 1377SOL    HW1 5963   1.658   1.624   1.591
 1377SOL    HW2 5964   1.517   1.604   1.540
 1378SOL     OW 5965   9.777  11.025   7.886
 1378SOL    HW1 5966   9.725  11.024   7.805
 1378SOL    HW2 5967   9.814  11.113   7.889
 1379SOL     OW 5968   7.255   2.053   5.198
 1379SOL    HW1 5969   7.189   2.008   5.145
 1379SOL    HW2 5970   7.339   2.021   5.166
 1380SOL     OW 5971   3.666   3.943   0.622
 1380SOL    HW1 5972   3.573   3.924   0.633
 1380SOL    HW2 5973   3.671   4.039   0.619
 1381SOL     OW 5974   1.570   7.876  14.652
 1381SOL    HW1 5975   1.520   7.822  14.590
 1381SOL    HW2 5976   1.600   7.815  14.719
 1382SOL     OW 5977   9.844   4.393  13.882
 1382SOL    HW1 5978   9.824   4.387  13.975
 1382SOL    HW2 5979   9.863   4.485  13.866
 1383SOL     OW 5980   0.140  13.566   5.250
 1383SOL    HW1 5981   0.214  13.585   5.192
 1383SOL    HW2 5982   0.174  13.502   5.312
 1384SOL     OW 5983   3.820   5.685   8.119
 1384SOL    HW1 5984   3.871   5.606   8.137
 1384SOL    HW2 5985   3.780   5.667   8.034
 1385SOL     OW 5986   4.604   5.634   7.020
 1385SOL    HW1 5987   4.646   5.665   7.100
 1385SOL    HW2 5988   4.672   5.581   6.977
 1386SOL     OW 5989   7.457  11.153  10.995
 1386SOL    HW1 5990   7.388  11.218  11.005
 1386SOL    HW2 5991   7.523  11.178  11.061
 1387SOL     OW 5992   8.348  10.615   8.538
 1387SOL    HW1 5993   8.427  10.656   8.575
 1387SOL    HW2 5994   8.363  10.616   8.443
 1388SOL     OW 5995   3.313   0.431   2.027
 1388SOL    HW1 5996   3.337   0.458   2.116
 1388SOL    HW2 5997   3.239   0.371   2.040
 1389SOL     OW 5998   4.773   5.729   7.213
 1389SOL    HW1 5999   4.804   5.643   7.184
 1389SOL    HW2 6000   4.840   5.790   7.182
 1390SOL     OW 6001   6.557   3.988   8.443
 1390SOL    HW1 6002   6.556   4.074   8.486
 1390SOL    HW2 6003   6.630   3.993   8.382
 1391SOL     OW 6004   5.337  14.478   2.892
 1391SOL    HW1 6005   5.247  14.446   2.902
 1391SOL    HW2 6006   5.341  14.508   2.801
 1392SOL     OW 6007   9.680   7.044  10.063
 1392SOL    HW1 6008   9.636   7.126  10.040
 1392SOL    HW2 6009   9.774   7.065  10.059
 1393SOL     OW 6010   8.354   0.189   9.314
 1393SOL    HW1 6011   8.262   0.212   9.329
 1393SOL    HW2 6012   8.358   0.167   9.221
 1394SOL     OW 6013   2.676   2.974   5.819
 1394SOL    HW1 6014   2.720   2.904   5.867
 1394SOL    HW2 6015   2.595   2.989   5.868
 1395SOL     OW 6016   4.764  11.806  10.103
 1395SOL    HW1 6017   4.779  11.717  10.070
 1395SOL    HW2 6018   4.709  11.847  10.036
 1396SOL     OW 6019   9.510   1.105  10.241
 1396SOL    HW1 6020   9.434   1.110  10.299
 1396SOL    HW2 6021   9.493   1.028  10.187
 1397SOL     OW 6022   7.360   8.502  13.097
 1397SOL    HW1 6023   7.351   8.487  13.003
 1397SOL    HW2 6024   7.274   8.478  13.133
 1398SOL     OW 6025   1.008  12.001   0.284
 1398SOL    HW1 6026   0.946  11.928   0.287
 1398SOL    HW2 6027   1.093  11.962   0.306
 1399SOL     OW 6028  12.045  11.049   0.946
 1399SOL    HW1 6029  12.096  11.062   1.026
 1399SOL    HW2 6030  12.107  11.067   0.875
 1400SOL     OW 6031   2.603   6.077   5.163
 1400SOL    HW1 6032   2.562   5.991   5.170
 1400SOL    HW2 6033   2.536   6.133   5.124
 1401SOL     OW 6034   8.397   9.733   6.859
 1401SOL    HW1 6035   8.380   9.641   6.874
 1401SOL    HW2 6036   8.410   9.740   6.764
 1402SOL     OW 6037  11.857  13.995   8.438
 1402SOL    HW1 6038  11.841  13.915   8.388
 1402SOL    HW2 6039  11.889  13.965   8.523
 1403SOL     OW 6040  11.146  14.646  10.798
 1403SOL    HW1 6041  11.132  14.593  10.877
 1403SOL    HW2 6042  11.236  14.627  10.772
 1404SOL     OW 6043   2.156   5.321   1.147
 1404SOL    HW1 6044   2.066   5.321   1.180
 1404SOL    HW2 6045   2.147   5.332   1.053
 1405SOL     OW 6046   5.407   8.321   8.091
 1405SOL    HW1 6047   5.408   8.238   8.043
 1405SOL    HW2 6048   5.348   8.306   8.164
 1406SOL     OW 6049   8.161   1.716   9.856
 1406SOL    HW1 6050   8.207   1.800   9.854
 1406SOL    HW2 6051   8.230   1.650   9.849
 1407SOL     OW 6052  13.335  10.088   7.671
 1407SOL    HW1 6053  13.429  10.104   7.671
 1407SOL    HW2 6054  13.323  10.009   7.619
 1408SOL     OW 6055   2.808  13.925   7.070
 1408SOL    HW1 6056   2.804  13.965   6.983
 1408SOL    HW2 6057   2.878  13.972   7.115
 1409SOL     OW 6058  10.114  10.441   8.042
 1409SOL    HW1 6059  10.137  10.484   7.959
 1409SOL    HW2 6060  10.139  10.503   8.110
 1410SOL     OW 6061   1.506  10.271   9.956
 1410SOL    HW1 6062   1.485  10.361   9.932
 1410SOL    HW2 6063   1.507  10.224   9.873
 1411SOL     OW 6064   2.460   1.146  11.098
 1411SOL    HW1 6065   2.488   1.205  11.168
 1411SOL    HW2 6066   2.371   1.176  11.076
 1412SOL     OW 6067   6.114  12.524   8.119
 1412SOL    HW1 6068   6.200  12.512   8.081
 1412SOL    HW2 6069   6.061  12.453   8.082
 1413SOL     OW 6070  10.111   6.362  14.552
 1413SOL    HW1 6071  10.111   6.398  14.463
 1413SOL    HW2 6072  10.022   6.375  14.584
 1414SOL     OW 6073   1.658   9.750   1.060
 1414SOL    HW1 6074   1.697   9.675   1.014
 1414SOL    HW2 6075   1.727   9.782   1.118
 1415SOL     OW 6076   9.418   2.099   5.433
 1415SOL    HW1 6077   9.369   2.017   5.421
 1415SOL    HW2 6078   9.385   2.157   5.364
 1416SOL     OW 6079   2.210   5.124   3.677
 1416SOL    HW1 6080   2.170   5.039   3.659
 1416SOL    HW2 6081   2.139   5.176   3.716
 1417SOL     OW 6082   3.956  11.509   6.478
 1417SOL    HW1 6083   3.902  11.505   6.557
 1417SOL    HW2 6084   3.970  11.418   6.454
 1418SOL     OW 6085   4.897  10.217  14.737
 1418SOL    HW1 6086   4.822  10.244  14.684
 1418SOL    HW2 6087   4.860  10.157  14.801
 1419SOL     OW 6088  13.969   0.606   4.584
 1419SOL    HW1 6089  13.895   0.640   4.535
 1419SOL    HW2 6090  14.045   0.653   4.549
 1420SOL     OW 6091  12.927   9.501   0.103
 1420SOL    HW1 6092  12.848   9.534   0.146
 1420SOL    HW2 6093  12.934   9.552   0.023
 1421SOL     OW 6094   4.361   9.887   2.128
 1421SOL    HW1 6095   4.395   9.905   2.216
 1421SOL    HW2 6096   4.329   9.796   2.134
 1422SOL     OW 6097  11.712  12.551  11.472
 1422SOL    HW1 6098  11.801  12.560  11.437
 1422SOL    HW2 6099  11.695  12.457  11.469
 1423SOL     OW 6100  11.170   5.729  10.729
 1423SOL    HW1 6101  11.174   5.634  10.723
 1423SOL    HW2 6102  11.144   5.757  10.641
 1424SOL     OW 6103   6.630   9.908   5.489
 1424SOL    HW1 6104   6.697   9.841   5.480
 1424SOL    HW2 6105   6.550   9.868   5.455
 1425SOL     OW 6106  14.672   2.111   0.222
 1425SOL    HW1 6107  14.612   2.124   0.149
 1425SOL    HW2 6108  14.628   2.151   0.297
 1426SOL     OW 6109  10.173   6.758   6.830
 1426SOL    HW1 6110  10.204   6.736   6.918
 1426SOL    HW2 6111  10.245   6.810   6.792
 1427SOL     OW 6112   6.364  11.267   6.617
 1427SOL    HW1 6113   6.425  11.313   6.559
 1427SOL    HW2 6114   6.278  11.287   6.581
 1428SOL     OW 6115  11.070   5.778   4.234
 1428SOL    HW1 6116  11.022   5.837   4.292
 1428SOL    HW2 6117  11.003   5.725   4.192
 1429SOL     OW 6118   7.134  14.258  13.117
 1429SOL    HW1 6119   7.135  14.321  13.189
 1429SOL    HW2 6120   7.042  14.249  13.094
 1430SOL     OW 6121   7.862  12.199   4.217
 1430SOL    HW1 6122   7.868  12.173   4.308
 1430SOL    HW2 6123   7.880  12.119   4.167
 1431SOL     OW 6124   2.284  14.696   7.686
 1431SOL    HW1 6125   2.361  14.640   7.686
 1431SOL    HW2 6126   2.210  14.635   7.688
 1432SOL     OW 6127  11.862   4.920   1.260
 1432SOL    HW1 6128  11.825   4.901   1.346
 1432SOL    HW2 6129  11.950   4.881   1.262
 1433SOL     OW 6130   9.862  13.909   2.570
 1433SOL    HW1 6131   9.948  13.869   2.579
 1433SOL    HW2 6132   9.827  13.873   2.488
 1434SOL     OW 6133   9.428  13.051  10.926
 1434SOL    HW1 6134   9.477  13.132  10.940
 1434SOL    HW2 6135   9.476  13.005  10.857
 1435SOL     OW 6136   3.753   6.559   1.977
 1435SOL    HW1 6137   3.796   6.589   1.897
 1435SOL    HW2 6138   3.673   6.611   1.983
 1436SOL     OW 6139  12.135  11.845  11.313
 1436SOL    HW1 6140  12.183  11.767  11.342
 1436SOL    HW2 6141  12.047  11.834  11.349
 1437SOL     OW 6142  13.108  12.235   1.368
 1437SOL    HW1 6143  13.035  12.289   1.339
 1437SOL    HW2 6144  13.102  12.156   1.315
 1438SOL     OW 6145   7.964  11.538  10.400
 1438SOL    HW1 6146   7.895  11.496  10.451
 1438SOL    HW2 6147   7.935  11.530  10.309
 1439SOL     OW 6148   8.177   9.155  12.627
 1439SOL    HW1 6149   8.239   9.209  12.676
 1439SOL    HW2 6150   8.107   9.216  12.602
 1440SOL     OW 6151  10.937   6.648   6.510
 1440SOL    HW1 6152  10.842   6.637   6.501
 1440SOL    HW2 6153  10.970   6.560   6.530
 1441SOL     OW 6154   9.302   7.732   3.930
 1441SOL    HW1 6155   9.339   7.645   3.940
 1441SOL    HW2 6156   9.244   7.726   3.854
 1442SOL     OW 6157  12.343  12.996   6.071
 1442SOL    HW1 6158  12.409  13.031   6.011
 1442SOL    HW2 6159  12.364  12.903   6.078
 1443SOL     OW 6160   2.496   2.007  13.544
 1443SOL    HW1 6161   2.469   1.986  13.455
 1443SOL    HW2 6162   2.592   2.004  13.541
 1444SOL     OW 6163   5.770  11.867   9.579
 1444SOL    HW1 6164   5.795  11.775   9.586
 1444SOL    HW2 6165   5.826  11.912   9.642
 1445SOL     OW 6166  11.044   0.560   9.774
 1445SOL    HW1 6167  11.084   0.634   9.728
 1445SOL    HW2 6168  10.952   0.584   9.784
 1446SOL     OW 6169   3.788   7.815   1.092
 1446SOL    HW1 6170   3.811   7.726   1.120
 1446SOL    HW2 6171   3.854   7.837   1.026
 1447SOL     OW 6172   3.089  12.474   3.720
 1447SOL    HW1 6173   3.177  12.451   3.692
 1447SOL    HW2 6174   3.060  12.399   3.772
 1448SOL     OW 6175   6.941   9.838  12.862
 1448SOL    HW1 6176   6.941   9.784  12.783
 1448SOL    HW2 6177   6.994   9.790  12.924
 1449SOL     OW 6178   0.980   5.526  10.528
 1449SOL    HW1 6179   1.052   5.466  10.547
 1449SOL    HW2 6180   0.912   5.501  10.591
 1450SOL     OW 6181   2.904   8.166  10.769
 1450SOL    HW1 6182   2.823   8.201  10.805
 1450SOL    HW2 6183   2.880   8.133  10.683
 1451SOL     OW 6184  14.768  12.521   5.775
 1451SOL    HW1 6185  14.701  12.577   5.814
 1451SOL    HW2 6186  14.845  12.577   5.767
 1452SOL     OW 6187  11.607   0.307   8.261
 1452SOL    HW1 6188  11.557   0.226   8.271
 1452SOL    HW2 6189  11.541   0.376   8.257
 1453SOL     OW 6190  10.465   5.513  13.607
 1453SOL    HW1 6191  10.370   5.518  13.591
 1453SOL    HW2 6192  10.491   5.603  13.626
 1454SOL     OW 6193   8.813   1.974  12.276
 1454SOL    HW1 6194   8.750   1.923  12.327
 1454SOL    HW2 6195   8.898   1.934  12.296
 1455SOL     OW 6196   0.880  11.083   0.134
 1455SOL    HW1 6197   0.965  11.082   0.089
 1455SOL    HW2 6198   0.858  10.990   0.144
 1456SOL     OW 6199   2.489  10.307  13.655
 1456SOL    HW1 6200   2.405  10.278  13.619
 1456SOL    HW2 6201   2.472  10.395  13.688
 1457SOL     OW 6202   2.976   0.720  13.604
 1457SOL    HW1 6203   2.985   0.693  13.695
 1457SOL    HW2 6204   3.054   0.773  13.587
 1458SOL     OW 6205   1.590  11.929  13.055
 1458SOL    HW1 6206   1.665  11.971  13.014
 1458SOL    HW2 6207   1.626  11.885  13.132
 1459SOL     OW 6208  13.436   4.029   8.590
 1459SOL    HW1 6209  13.508   4.077   8.550
 1459SOL    HW2 6210  13.477   3.953   8.631
 1460SOL     OW 6211   4.890  13.567  10.812
 1460SOL    HW1 6212   4.948  13.572  10.735
 1460SOL    HW2 6213   4.912  13.483  10.852
 1461SOL     OW 6214   5.174   5.329   6.844
 1461SOL    HW1 6215   5.186   5.421   6.868
 1461SOL    HW2 6216   5.263   5.297   6.828
 1462SOL     OW 6217   5.599   4.290  13.518
 1462SOL    HW1 6218   5.508   4.266  13.532
 1462SOL    HW2 6219   5.601   4.385  13.530
 1463SOL     OW 6220   7.835   0.061  10.857
 1463SOL    HW1 6221   7.753   0.044  10.903
 1463SOL    HW2 6222   7.894   0.096  10.923
 1464SOL     OW 6223   3.026   8.909   8.480
 1464SOL    HW1 6224   2.993   8.911   8.570
 1464SOL    HW2 6225   3.103   8.966   8.482
 1465SOL     OW 6226   0.776   7.473   6.799
 1465SOL    HW1 6227   0.770   7.559   6.759
 1465SOL    HW2 6228   0.869   7.450   6.792
 1466SOL     OW 6229   7.076  14.484   3.546
 1466SOL    HW1 6230   7.127  14.465   3.624
 1466SOL    HW2 6231   6.985  14.478   3.575
 1467SOL     OW 6232   6.206  12.537  10.271
 1467SOL    HW1 6233   6.219  12.606  10.206
 1467SOL    HW2 6234   6.294  12.505  10.292
 1468SOL     OW 6235  10.894   3.575   2.899
 1468SOL    HW1 6236  10.871   3.512   2.831
 1468SOL    HW2 6237  10.865   3.660   2.865
 1469SOL     OW 6238  14.187   2.549   9.225
 1469SOL    HW1 6239  14.215   2.513   9.309
 1469SOL    HW2 6240  14.100   2.512   9.211
 1470SOL     OW 6241   8.224   4.103  13.682
 1470SOL    HW1 6242   8.225   4.064  13.769
 1470SOL    HW2 6243   8.189   4.191  13.694
 1471SOL     OW 6244   1.243   6.828  12.940
 1471SOL    HW1 6245   1.176   6.844  12.873
 1471SOL    HW2 6246   1.311   6.892  12.921
 1472SOL     OW 6247  13.268  11.733   5.720
 1472SOL    HW1 6248  13.338  11.708   5.781
 1472SOL    HW2 6249  13.303  11.810   5.674
 1473SOL     OW 6250  13.335   3.493   0.109
 1473SOL    HW1 6251  13.402   3.533   0.053
 1473SOL    HW2 6252  13.384   3.431   0.164
 1474SOL     OW 6253   4.533  14.305   0.448
 1474SOL    HW1 6254   4.483  14.305   0.367
 1474SOL    HW2 6255   4.499  14.231   0.498
 1475SOL     OW 6256   4.255   8.485  14.568
 1475SOL    HW1 6257   4.174   8.530  14.544
 1475SOL    HW2 6258   4.253   8.480  14.664
 1476SOL     OW 6259  10.119  11.586   2.258
 1476SOL    HW1 6260  10.143  11.678   2.259
 1476SOL    HW2 6261  10.027  11.585   2.235
 1477SOL     OW 6262  10.824   5.880   3.228
 1477SOL    HW1 6263  10.780   5.912   3.149
 1477SOL    HW2 6264  10.908   5.847   3.196
 1478SOL     OW 6265  10.869  14.770  12.921
 1478SOL    HW1 6266  10.801  14.710  12.952
 1478SOL    HW2 6267  10.856  14.776  12.827
 1479SOL     OW 6268  14.243   6.272  11.279
 1479SOL    HW1 6269  14.310   6.209  11.255
 1479SOL    HW2 6270  14.235   6.330  11.203
 1480SOL     OW 6271   5.508   6.539  13.023
 1480SOL    HW1 6272   5.556   6.616  12.991
 1480SOL    HW2 6273   5.444   6.521  12.954
 1481SOL     OW 6274   4.690  13.400   6.134
 1481SOL    HW1 6275   4.606  13.446   6.130
 1481SOL    HW2 6276   4.722  13.415   6.223
 1482SOL     OW 6277   8.881   6.603   6.349
 1482SOL    HW1 6278   8.875   6.508   6.355
 1482SOL    HW2 6279   8.915   6.620   6.261
 1483SOL     OW 6280   2.683   1.882   2.227
 1483SOL    HW1 6281   2.627   1.899   2.302
 1483SOL    HW2 6282   2.725   1.966   2.208
 1484SOL     OW 6283   9.091  10.699   3.959
 1484SOL    HW1 6284   9.138  10.643   4.021
 1484SOL    HW2 6285   9.147  10.700   3.881
 1485SOL     OW 6286  12.380   5.759   2.013
 1485SOL    HW1 6287  12.391   5.668   2.042
 1485SOL    HW2 6288  12.369   5.753   1.918
 1486SOL     OW 6289  11.159   1.970  12.774
 1486SOL    HW1 6290  11.232   1.908  12.781
 1486SOL    HW2 6291  11.108   1.956  12.854
 1487SOL     OW 6292   7.438   2.391   9.071
 1487SOL    HW1 6293   7.440   2.428   8.983
 1487SOL    HW2 6294   7.502   2.442   9.120
 1488SOL     OW 6295   2.465   9.420  14.238
 1488SOL    HW1 6296   2.525   9.352  14.266
 1488SOL    HW2 6297   2.519   9.499  14.231
 1489SOL     OW 6298  13.208   9.598  10.607
 1489SOL    HW1 6299  13.252   9.514  10.600
 1489SOL    HW2 6300  13.246   9.651  10.536
 1490SOL     OW 6301  12.995   3.027   9.377
 1490SOL    HW1 6302  12.945   3.102   9.409
 1490SOL    HW2 6303  13.065   3.016   9.442
 1491SOL     OW 6304   6.454   6.441  12.326
 1491SOL    HW1 6305   6.489   6.384  12.258
 1491SOL    HW2 6306   6.489   6.528  12.305
 1492SOL     OW 6307   2.500   0.038  12.914
 1492SOL    HW1 6308   2.491  14.877  13.000
 1492SOL    HW2 6309   2.504   0.131  12.934
 1493SOL     OW 6310  13.643   5.129   9.729
 1493SOL    HW1 6311  13.658   5.058   9.791
 1493SOL    HW2 6312  13.550   5.150   9.739
 1494SOL     OW 6313   0.512   4.478   3.065
 1494SOL    HW1 6314   0.525   4.448   3.155
 1494SOL    HW2 6315   0.472   4.403   3.020
 1495SOL     OW 6316  14.726  10.200  10.196
 1495SOL    HW1 6317  14.732  10.296  10.204
 1495SOL    HW2 6318  14.709  10.185  10.103
 1496SOL     OW 6319   9.297   2.721   8.542
 1496SOL    HW1 6320   9.252   2.656   8.596
 1496SOL    HW2 6321   9.277   2.695   8.452
 1497SOL     OW 6322  11.198   0.403   1.272
 1497SOL    HW1 6323  11.129   0.463   1.242
 1497SOL    HW2 6324  11.267   0.461   1.304
 1498SOL     OW 6325   2.971   2.612  13.892
 1498SOL    HW1 6326   3.024   2.582  13.818
 1498SOL    HW2 6327   2.900   2.662  13.851
 1499SOL     OW 6328  10.889   0.909   2.701
 1499SOL    HW1 6329  10.856   0.837   2.648
 1499SOL    HW2 6330  10.890   0.984   2.642
 1500SOL     OW 6331  14.762   2.031   4.847
 1500SOL    HW1 6332  14.849   2.000   4.870
 1500SOL    HW2 6333  14.761   2.031   4.751
 1501SOL     OW 6334   0.185   5.421   6.151
 1501SOL    HW1 6335   0.110   5.393   6.204
 1501SOL    HW2 6336   0.156   5.409   6.061
 1502SOL     OW 6337   1.564   7.422  14.624
 1502SOL    HW1 6338   1.655   7.403  14.601
 1502SOL    HW2 6339   1.564   7.427  14.719
 1503SOL     OW 6340   6.367   1.774   6.855
 1503SOL    HW1 6341   6.305   1.797   6.786
 1503SOL    HW2 6342   6.347   1.683   6.877
 1504SOL     OW 6343  11.540  10.254  13.511
 1504SOL    HW1 6344  11.495  10.205  13.581
 1504SOL    HW2 6345  11.469  10.293  13.460
 1505SOL     OW 6346   8.111   0.147   3.978
 1505SOL    HW1 6347   8.165   0.068   3.970
 1505SOL    HW2 6348   8.044   0.138   3.911
 1506SOL     OW 6349   0.680   1.219   5.371
 1506SOL    HW1 6350   0.775   1.215   5.358
 1506SOL    HW2 6351   0.650   1.279   5.303
 1507SOL     OW 6352   1.806   4.204  11.762
 1507SOL    HW1 6353   1.775   4.120  11.728
 1507SOL    HW2 6354   1.743   4.227  11.830
 1508SOL     OW 6355  10.497   7.785  10.567
 1508SOL    HW1 6356  10.540   7.725  10.507
 1508SOL    HW2 6357  10.511   7.872  10.529
 1509SOL     OW 6358   1.129   9.367  12.697
 1509SOL    HW1 6359   1.038   9.369  12.726
 1509SOL    HW2 6360   1.179   9.350  12.777
 1510SOL     OW 6361   9.205   9.703   5.791
 1510SOL    HW1 6362   9.199   9.687   5.885
 1510SOL    HW2 6363   9.126   9.661   5.756
 1511SOL     OW 6364   0.403  12.481   2.726
 1511SOL    HW1 6365   0.417  12.460   2.634
 1511SOL    HW2 6366   0.368  12.570   2.726
 1512SOL     OW 6367   9.264   1.659   1.313
 1512SOL    HW1 6368   9.275   1.568   1.285
 1512SOL    HW2 6369   9.332   1.672   1.379
 1513SOL     OW 6370   0.716   1.998  12.180
 1513SOL    HW1 6371   0.700   2.015  12.088
 1513SOL    HW2 6372   0.686   1.909  12.194
 1514SOL     OW 6373   9.386   2.905  10.963
 1514SOL    HW1 6374   9.406   2.834  11.023
 1514SOL    HW2 6375   9.310   2.874  10.914
 1515SOL     OW 6376  12.644   4.690   2.970
 1515SOL    HW1 6377  12.679   4.615   3.019
 1515SOL    HW2 6378  12.707   4.704   2.899
 1516SOL     OW 6379   6.564   8.655  12.645
 1516SOL    HW1 6380   6.613   8.722  12.693
 1516SOL    HW2 6381   6.483   8.698  12.619
 1517SOL     OW 6382  11.915   3.021   3.536
 1517SOL    HW1 6383  11.980   3.011   3.605
 1517SOL    HW2 6384  11.862   3.096   3.564
 1518SOL     OW 6385   7.515   4.624   8.360
 1518SOL    HW1 6386   7.546   4.536   8.382
 1518SOL    HW2 6387   7.515   4.626   8.264
 1519SOL     OW 6388  12.278   1.874  10.389
 1519SOL    HW1 6389  12.225   1.949  10.363
 1519SOL    HW2 6390  12.240   1.800  10.343
 1520SOL     OW 6391   7.683   1.707  11.645
 1520SOL    HW1 6392   7.672   1.782  11.587
 1520SOL    HW2 6393   7.721   1.743  11.725
 1521SOL     OW 6394   2.065  13.300  14.284
 1521SOL    HW1 6395   1.976  13.304  14.321
 1521SOL    HW2 6396   2.107  13.228  14.330
 1522SOL     OW 6397  14.664   3.944   4.567
 1522SOL    HW1 6398  14.721   3.905   4.500
 1522SOL    HW2 6399  14.598   3.877   4.583
 1523SOL     OW 6400  11.545   5.982   3.348
 1523SOL    HW1 6401  11.588   6.049   3.402
 1523SOL    HW2 6402  11.598   5.979   3.268
 1524SOL     OW 6403  10.541   0.762   6.427
 1524SOL    HW1 6404  10.630   0.757   6.462
 1524SOL    HW2 6405  10.507   0.674   6.436
 1525SOL     OW 6406   4.504  11.312  10.328
 1525SOL    HW1 6407   4.444  11.375  10.368
 1525SOL    HW2 6408   4.517  11.245  10.395
 1526SOL     OW 6409   5.195  13.765  13.292
 1526SOL    HW1 6410   5.237  13.694  13.244
 1526SOL    HW2 6411   5.239  13.765  13.377
 1527SOL     OW 6412   9.611  10.406   7.689
 1527SOL    HW1 6413   9.667  10.353   7.633
 1527SOL    HW2 6414   9.656  10.491   7.696
 1528SOL     OW 6415   6.534   0.922   6.185
 1528SOL    HW1 6416   6.469   0.868   6.229
 1528SOL    HW2 6417   6.532   0.894   6.093
 1529SOL     OW 6418   7.125  12.431   5.779
 1529SOL    HW1 6419   7.035  12.459   5.760
 1529SOL    HW2 6420   7.148  12.374   5.706
 1530SOL     OW 6421   7.163   9.523   2.799
 1530SOL    HW1 6422   7.112   9.561   2.728
 1530SOL    HW2 6423   7.251   9.559   2.787
 1531SOL     OW 6424  14.500  13.367  14.035
 1531SOL    HW1 6425  14.523  13.423  13.961
 1531SOL    HW2 6426  14.406  13.352  14.025
 1532SOL     OW 6427   4.645  14.571  11.163
 1532SOL    HW1 6428   4.566  14.586  11.110
 1532SOL    HW2 6429   4.647  14.476  11.177
 1533SOL     OW 6430   2.914   7.119   5.986
 1533SOL    HW1 6431   2.882   7.070   5.910
 1533SOL    HW2 6432   2.836   7.160   6.022
 1534SOL     OW 6433  11.806   2.591   0.580
 1534SOL    HW1 6434  11.854   2.671   0.561
 1534SOL    HW2 6435  11.826   2.533   0.507
 1535SOL     OW 6436  10.938   7.728   3.711
 1535SOL    HW1 6437  10.929   7.716   3.806
 1535SOL    HW2 6438  11.001   7.662   3.684
 1536SOL     OW 6439  10.838   6.324   5.558
 1536SOL    HW1 6440  10.793   6.361   5.481
 1536SOL    HW2 6441  10.817   6.231   5.555
 1537SOL     OW 6442   8.588  10.920  12.887
 1537SOL    HW1 6443   8.676  10.884  12.872
 1537SOL    HW2 6444   8.582  10.930  12.982
 1538SOL     OW 6445   6.006  13.950  11.105
 1538SOL    HW1 6446   5.987  13.962  11.198
 1538SOL    HW2 6447   6.101  13.959  11.099
 1539SOL     OW 6448   6.014  12.755   7.559
 1539SOL    HW1 6449   6.060  12.783   7.481
 1539SOL    HW2 6450   6.038  12.818   7.626
 1540SOL     OW 6451  10.541   2.422   5.981
 1540SOL    HW1 6452  10.457   2.378   5.972
 1540SOL    HW2 6453  10.564   2.412   6.073
 1541SOL     OW 6454  14.758   9.233  11.495
 1541SOL    HW1 6455  14.676   9.281  11.485
 1541SOL    HW2 6456  14.740   9.147  11.457
 1542SOL     OW 6457   1.817   5.425   6.745
 1542SOL    HW1 6458   1.904   5.439   6.707
 1542SOL    HW2 6459   1.769   5.505   6.726
 1543SOL     OW 6460   4.250   3.364   5.811
 1543SOL    HW1 6461   4.324   3.369   5.751
 1543SOL    HW2 6462   4.194   3.294   5.776
 1544SOL     OW 6463   1.507   9.284   5.108
 1544SOL    HW1 6464   1.579   9.312   5.164
 1544SOL    HW2 6465   1.465   9.366   5.081
 1545SOL     OW 6466  10.037   1.185  11.165
 1545SOL    HW1 6467  10.062   1.165  11.256
 1545SOL    HW2 6468  10.022   1.100  11.125
 1546SOL     OW 6469   6.341   5.674   9.504
 1546SOL    HW1 6470   6.399   5.670   9.580
 1546SOL    HW2 6471   6.357   5.761   9.466
 1547SOL     OW 6472  12.695   6.458   3.964
 1547SOL    HW1 6473  12.731   6.507   4.037
 1547SOL    HW2 6474  12.639   6.521   3.918
 1548SOL     OW 6475   2.384   9.522  13.818
 1548SOL    HW1 6476   2.441   9.536  13.743
 1548SOL    HW2 6477   2.363   9.610  13.850
 1549SOL     OW 6478   0.162  13.514   9.415
 1549SOL    HW1 6479   0.104  13.467   9.476
 1549SOL    HW2 6480   0.125  13.602   9.411
 1550SOL     OW 6481  10.953   1.412   5.275
 1550SOL    HW1 6482  11.040   1.440   5.305
 1550SOL    HW2 6483  10.894   1.479   5.308
 1551SOL     OW 6484   2.567   3.959   2.394
 1551SOL    HW1 6485   2.550   3.998   2.308
 1551SOL    HW2 6486   2.647   3.908   2.382
 1552SOL     OW 6487  12.419   3.753  13.925
 1552SOL    HW1 6488  12.363   3.760  13.849
 1552SOL    HW2 6489  12.392   3.825  13.982
 1553SOL     OW 6490   8.488   1.412  11.927
 1553SOL    HW1 6491   8.449   1.437  12.011
 1553SOL    HW2 6492   8.447   1.471  11.864
 1554SOL     OW 6493   6.844   6.003   3.952
 1554SOL    HW1 6494   6.849   6.093   3.920
 1554SOL    HW2 6495   6.776   6.005   4.020
 1555SOL     OW 6496   1.978  10.036   9.543
 1555SOL    HW1 6497   1.927   9.984   9.481
 1555SOL    HW2 6498   2.032  10.093   9.487
 1556SOL     OW 6499   8.845   6.716   1.531
 1556SOL    HW1 6500   8.778   6.722   1.599
 1556SOL    HW2 6501   8.917   6.669   1.573
 1557SOL     OW 6502  11.271   9.298   1.513
 1557SOL    HW1 6503  11.344   9.348   1.477
 1557SOL    HW2 6504  11.262   9.329   1.603
 1558SOL     OW 6505   2.851  11.111   0.171
 1558SOL    HW1 6506   2.840  11.054   0.095
 1558SOL    HW2 6507   2.855  11.199   0.134
 1559SOL     OW 6508   3.192  13.447   8.919
 1559SOL    HW1 6509   3.156  13.373   8.968
 1559SOL    HW2 6510   3.119  13.478   8.866
 1560SOL     OW 6511   8.833   0.395   9.843
 1560SOL    HW1 6512   8.842   0.486   9.815
 1560SOL    HW2 6513   8.920   0.371   9.875
 1561SOL     OW 6514  12.709   3.394   2.316
 1561SOL    HW1 6515  12.624   3.379   2.274
 1561SOL    HW2 6516  12.747   3.466   2.266
 1562SOL     OW 6517   3.974   5.404   9.375
 1562SOL    HW1 6518   3.954   5.482   9.428
 1562SOL    HW2 6519   3.914   5.409   9.301
 1563SOL     OW 6520  14.361   5.167  11.755
 1563SOL    HW1 6521  14.311   5.086  11.763
 1563SOL    HW2 6522  14.314   5.219  11.690
 1564SOL     OW 6523  12.889   4.738   4.475
 1564SOL    HW1 6524  12.948   4.792   4.528
 1564SOL    HW2 6525  12.889   4.781   4.389
 1565SOL     OW 6526   6.964   1.992  12.972
 1565SOL    HW1 6527   6.945   2.054  13.043
 1565SOL    HW2 6528   6.979   1.909  13.017
 1566SOL     OW 6529   7.077   5.539   1.032
 1566SOL    HW1 6530   7.099   5.456   1.074
 1566SOL    HW2 6531   7.038   5.514   0.948
 1567SOL     OW 6532   5.889   3.657   8.509
 1567SOL    HW1 6533   5.882   3.610   8.592
 1567SOL    HW2 6534   5.843   3.740   8.524
 1568SOL     OW 6535   0.636   9.737   6.038
 1568SOL    HW1 6536   0.674   9.808   6.090
 1568SOL    HW2 6537   0.550   9.722   6.078
 1569SOL     OW 6538  13.432   4.264   3.273
 1569SOL    HW1 6539  13.377   4.206   3.221
 1569SOL    HW2 6540  13.510   4.213   3.294
 1570SOL     OW 6541   4.830   0.179  14.074
 1570SOL    HW1 6542   4.867   0.147  13.992
 1570SOL    HW2 6543   4.742   0.209  14.050
 1571SOL     OW 6544   2.987   3.456   5.437
 1571SOL    HW1 6545   3.045   3.406   5.379
 1571SOL    HW2 6546   2.989   3.408   5.519
 1572SOL     OW 6547  13.358   3.481  11.935
 1572SOL    HW1 6548  13.289   3.490  11.870
 1572SOL    HW2 6549  13.332   3.405  11.988
 1573SOL     OW 6550  13.094   0.480   6.821
 1573SOL    HW1 6551  13.063   0.527   6.898
 1573SOL    HW2 6552  13.025   0.494   6.756
 1574SOL     OW 6553   4.407   8.437  10.971
 1574SOL    HW1 6554   4.313   8.442  10.956
 1574SOL    HW2 6555   4.420   8.353  11.015
 1575SOL     OW 6556   2.042   5.090   9.473
 1575SOL    HW1 6557   2.064   5.178   9.502
 1575SOL    HW2 6558   2.093   5.077   9.394
 1576SOL     OW 6559  10.900  14.844   1.820
 1576SOL    HW1 6560  10.835  14.852   1.889
 1576SOL    HW2 6561  10.952  14.768   1.844
 1577SOL     OW 6562  12.246  10.819   9.870
 1577SOL    HW1 6563  12.250  10.735   9.825
 1577SOL    HW2 6564  12.152  10.836   9.880
 1578SOL     OW 6565   2.972   4.383   3.817
 1578SOL    HW1 6566   3.012   4.465   3.843
 1578SOL    HW2 6567   2.910   4.363   3.887
 1579SOL     OW 6568  12.649   7.046   4.380
 1579SOL    HW1 6569  12.630   7.062   4.287
 1579SOL    HW2 6570  12.715   7.111   4.402
 1580SOL     OW 6571   8.647   2.084   6.200
 1580SOL    HW1 6572   8.664   1.995   6.231
 1580SOL    HW2 6573   8.580   2.118   6.259
 1581SOL     OW 6574   4.807   7.673   4.036
 1581SOL    HW1 6575   4.797   7.620   3.957
 1581SOL    HW2 6576   4.763   7.623   4.104
 1582SOL     OW 6577  10.203   8.372   7.231
 1582SOL    HW1 6578  10.160   8.290   7.253
 1582SOL    HW2 6579  10.138   8.420   7.179
 1583SOL     OW 6580   2.747   7.472  14.319
 1583SOL    HW1 6581   2.730   7.442  14.229
 1583SOL    HW2 6582   2.757   7.567  14.311
 1584SOL     OW 6583   7.276   8.693   8.365
 1584SOL    HW1 6584   7.196   8.646   8.387
 1584SOL    HW2 6585   7.251   8.785   8.364
 1585SOL     OW 6586   9.357   4.899   6.374
 1585SOL    HW1 6587   9.359   4.970   6.438
 1585SOL    HW2 6588   9.263   4.883   6.360
 1586SOL     OW 6589  10.167   7.331   1.396
 1586SOL    HW1 6590  10.143   7.396   1.463
 1586SOL    HW2 6591  10.171   7.381   1.315
 1587SOL     OW 6592  11.709  14.347   8.765
 1587SOL    HW1 6593  11.645  14.396   8.817
 1587SOL    HW2 6594  11.662  14.324   8.685
 1588SOL     OW 6595  11.429   2.786   1.385
 1588SOL    HW1 6596  11.337   2.760   1.376
 1588SOL    HW2 6597  11.478   2.704   1.374
 1589SOL     OW 6598   6.996  14.668  10.558
 1589SOL    HW1 6599   6.946  14.708  10.486
 1589SOL    HW2 6600   6.932  14.654  10.627
 1590SOL     OW 6601   4.567  13.340   7.583
 1590SOL    HW1 6602   4.536  13.279   7.650
 1590SOL    HW2 6603   4.490  13.388   7.556
 1591SOL     OW 6604   7.200  13.599   2.131
 1591SOL    HW1 6605   7.129  13.561   2.183
 1591SOL    HW2 6606   7.197  13.550   2.048
 1592SOL     OW 6607   8.942   5.847   8.692
 1592SOL    HW1 6608   9.038   5.848   8.694
 1592SOL    HW2 6609   8.916   5.884   8.777
 1593SOL     OW 6610  11.150   7.091   8.420
 1593SOL    HW1 6611  11.195   7.017   8.379
 1593SOL    HW2 6612  11.111   7.054   8.499
 1594SOL     OW 6613   9.591   4.247   8.544
 1594SOL    HW1 6614   9.531   4.244   8.618
 1594SOL    HW2 6615   9.676   4.221   8.580
 1595SOL     OW 6616   7.827  14.697   1.661
 1595SOL    HW1 6617   7.878  14.664   1.588
 1595SOL    HW2 6618   7.884  14.685   1.738
 1596SOL     OW 6619   8.516  10.101  11.129
 1596SOL    HW1 6620   8.519  10.027  11.190
 1596SOL    HW2 6621   8.486  10.174  11.182
 1597SOL     OW 6622   0.892  11.269  12.933
 1597SOL    HW1 6623   0.886  11.203  13.002
 1597SOL    HW2 6624   0.874  11.222  12.852
 1598SOL     OW 6625   5.150   9.687  11.959
 1598SOL    HW1 6626   5.103   9.670  12.040
 1598SOL    HW2 6627   5.155   9.601  11.917
 1599SOL     OW 6628  14.394   4.599   5.147
 1599SOL    HW1 6629  14.320   4.647   5.111
 1599SOL    HW2 6630  14.464   4.664   5.154
 1600SOL     OW 6631  13.064  10.246   6.856
 1600SOL    HW1 6632  13.004  10.237   6.782
 1600SOL    HW2 6633  13.089  10.156   6.877
 1601SOL     OW 6634   1.116  10.679   0.487
 1601SOL    HW1 6635   1.206  10.668   0.516
 1601SOL    HW2 6636   1.123  10.728   0.405
 1602SOL     OW 6637   2.524  10.423  14.701
 1602SOL    HW1 6638   2.577  10.355  14.659
 1602SOL    HW2 6639   2.497  10.385  14.785
 1603SOL     OW 6640   8.476  13.324  13.774
 1603SOL    HW1 6641   8.470  13.263  13.848
 1603SOL    HW2 6642   8.512  13.404  13.812
 1604SOL     OW 6643   0.657   0.516   7.619
 1604SOL    HW1 6644   0.608   0.462   7.681
 1604SOL    HW2 6645   0.632   0.481   7.533
 1605SOL     OW 6646  10.752  13.701   4.622
 1605SOL    HW1 6647  10.725  13.735   4.707
 1605SOL    HW2 6648  10.793  13.617   4.642
 1606SOL     OW 6649  10.548   1.281   1.316
 1606SOL    HW1 6650  10.637   1.313   1.333
 1606SOL    HW2 6651  10.561   1.196   1.275
 1607SOL     OW 6652   3.643   3.727   3.011
 1607SOL    HW1 6653   3.591   3.772   3.076
 1607SOL    HW2 6654   3.580   3.675   2.961
 1608SOL     OW 6655   6.938  13.922  12.825
 1608SOL    HW1 6656   6.978  13.842  12.791
 1608SOL    HW2 6657   6.893  13.893  12.905
 1609SOL     OW 6658   2.438   7.221   5.667
 1609SOL    HW1 6659   2.474   7.226   5.755
 1609SOL    HW2 6660   2.420   7.128   5.653
 1610SOL     OW 6661  12.170  10.122  13.949
 1610SOL    HW1 6662  12.155  10.177  14.025
 1610SOL    HW2 6663  12.126  10.040  13.970
 1611SOL     OW 6664  11.185   5.327  13.537
 1611SOL    HW1 6665  11.252   5.352  13.473
 1611SOL    HW2 6666  11.102   5.348  13.495
 1612SOL     OW 6667   5.070  12.936   0.712
 1612SOL    HW1 6668   5.121  12.994   0.769
 1612SOL    HW2 6669   5.010  12.995   0.667
 1613SOL     OW 6670   1.355   7.430  11.203
 1613SOL    HW1 6671   1.366   7.388  11.289
 1613SOL    HW2 6672   1.336   7.521  11.224
 1614SOL     OW 6673  14.818  12.151   8.768
 1614SOL    HW1 6674  14.874  12.077   8.791
 1614SOL    HW2 6675  14.872  12.205   8.711
 1615SOL     OW 6676  10.592   4.879  10.974
 1615SOL    HW1 6677  10.515   4.927  10.943
 1615SOL    HW2 6678  10.600   4.806  10.913
 1616SOL     OW 6679   2.442   6.169   4.359
 1616SOL    HW1 6680   2.413   6.103   4.296
 1616SOL    HW2 6681   2.523   6.204   4.321
 1617SOL     OW 6682   0.126   6.078   6.539
 1617SOL    HW1 6683   0.171   6.013   6.485
 1617SOL    HW2 6684   0.187   6.098   6.610
 1618SOL     OW 6685   4.609   8.121   3.570
 1618SOL    HW1 6686   4.530   8.169   3.548
 1618SOL    HW2 6687   4.652   8.105   3.486
 1619SOL     OW 6688  10.924   8.545  13.796
 1619SOL    HW1 6689  10.856   8.563  13.730
 1619SOL    HW2 6690  10.999   8.514  13.745
 1620SOL     OW 6691   0.784   1.520   0.454
 1620SOL    HW1 6692   0.713   1.583   0.472
 1620SOL    HW2 6693   0.751   1.468   0.381
 1621SOL     OW 6694   0.747   6.181   8.919
 1621SOL    HW1 6695   0.815   6.119   8.944
 1621SOL    HW2 6696   0.670   6.127   8.902
 1622SOL     OW 6697  14.079   3.836  11.214
 1622SOL    HW1 6698  14.118   3.915  11.176
 1622SOL    HW2 6699  14.127   3.823  11.296
 1623SOL     OW 6700   6.348  10.419   8.497
 1623SOL    HW1 6701   6.316  10.345   8.445
 1623SOL    HW2 6702   6.294  10.493   8.468
 1624SOL     OW 6703   9.683   7.255   9.210
 1624SOL    HW1 6704   9.638   7.231   9.129
 1624SOL    HW2 6705   9.644   7.340   9.234
 1625SOL     OW 6706   8.940  13.002   3.739
 1625SOL    HW1 6707   8.943  13.081   3.793
 1625SOL    HW2 6708   8.885  13.025   3.665
 1626SOL     OW 6709  11.042  10.288   5.929
 1626SOL    HW1 6710  11.102  10.311   5.858
 1626SOL    HW2 6711  10.983  10.224   5.890
 1627SOL     OW 6712  14.275   4.795  10.666
 1627SOL    HW1 6713  14.227   4.861  10.617
 1627SOL    HW2 6714  14.366   4.807  10.639
 1628SOL     OW 6715   8.149   8.754   1.989
 1628SOL    HW1 6716   8.240   8.730   2.006
 1628SOL    HW2 6717   8.143   8.762   1.894
 1629SOL     OW 6718   4.962   0.063  13.853
 1629SOL    HW1 6719   5.037   0.011  13.823
 1629SOL    HW2 6720   4.901   0.063  13.779
 1630SOL     OW 6721  13.667  11.225   4.550
 1630SOL    HW1 6722  13.710  11.170   4.616
 1630SOL    HW2 6723  13.578  11.236   4.582
 1631SOL     OW 6724   4.240   2.532   5.411
 1631SOL    HW1 6725   4.153   2.544   5.373
 1631SOL    HW2 6726   4.233   2.453   5.463
 1632SOL     OW 6727   5.044   7.705   7.964
 1632SOL    HW1 6728   4.984   7.632   7.946
 1632SOL    HW2 6729   5.074   7.689   8.054
 1633SOL     OW 6730   5.765   8.254  13.245
 1633SOL    HW1 6731   5.723   8.326  13.292
 1633SOL    HW2 6732   5.693   8.202  13.210
 1634SOL     OW 6733  14.804   7.033   6.542
 1634SOL    HW1 6734  14.753   7.015   6.463
 1634SOL    HW2 6735  14.774   6.969   6.606
 1635SOL     OW 6736  13.423  12.575   9.186
 1635SOL    HW1 6737  13.347  12.624   9.219
 1635SOL    HW2 6738  13.430  12.500   9.244
 1636SOL     OW 6739   8.184   6.458   7.212
 1636SOL    HW1 6740   8.223   6.371   7.214
 1636SOL    HW2 6741   8.253   6.514   7.176
 1637SOL     OW 6742   0.365   4.206   3.046
 1637SOL    HW1 6743   0.363   4.163   3.131
 1637SOL    HW2 6744   0.274   4.200   3.015
 1638SOL     OW 6745   2.912   8.221   0.116
 1638SOL    HW1 6746   2.925   8.293   0.177
 1638SOL    HW2 6747   2.902   8.144   0.172
 1639SOL     OW 6748   2.908   5.643  14.838
 1639SOL    HW1 6749   2.921   5.669  14.747
 1639SOL    HW2 6750   2.820   5.605  14.839
 1640SOL     OW 6751   5.622  13.737   4.279
 1640SOL    HW1 6752   5.635  13.646   4.304
 1640SOL    HW2 6753   5.705  13.764   4.240
 1641SOL     OW 6754   0.929   2.103   6.186
 1641SOL    HW1 6755   0.916   2.098   6.281
 1641SOL    HW2 6756   1.021   2.082   6.174
 1642SOL     OW 6757   1.984   1.186  10.667
 1642SOL    HW1 6758   2.049   1.126  10.631
 1642SOL    HW2 6759   1.900   1.141  10.657
 1643SOL     OW 6760   4.742   0.983   2.667
 1643SOL    HW1 6761   4.713   0.892   2.662
 1643SOL    HW2 6762   4.817   0.981   2.725
 1644SOL     OW 6763  12.363  14.485   8.226
 1644SOL    HW1 6764  12.431  14.552   8.219
 1644SOL    HW2 6765  12.344  14.461   8.135
 1645SOL     OW 6766   1.640  12.636   7.197
 1645SOL    HW1 6767   1.686  12.720   7.208
 1645SOL    HW2 6768   1.652  12.591   7.280
 1646SOL     OW 6769  11.375  12.434   2.234
 1646SOL    HW1 6770  11.366  12.528   2.248
 1646SOL    HW2 6771  11.438  12.406   2.301
 1647SOL     OW 6772  12.719   6.832   8.354
 1647SOL    HW1 6773  12.684   6.856   8.269
 1647SOL    HW2 6774  12.812   6.852   8.348
 1648SOL     OW 6775   6.697   1.999   3.961
 1648SOL    HW1 6776   6.789   2.021   3.978
 1648SOL    HW2 6777   6.675   2.049   3.882
 1649SOL     OW 6778   0.929   0.541  12.300
 1649SOL    HW1 6779   0.850   0.581  12.263
 1649SOL    HW2 6780   0.962   0.606  12.361
 1650SOL     OW 6781   7.669  11.841   5.851
 1650SOL    HW1 6782   7.612  11.896   5.798
 1650SOL    HW2 6783   7.713  11.902   5.910
 1651SOL     OW 6784   8.029  10.689  10.565
 1651SOL    HW1 6785   8.067  10.660  10.482
 1651SOL    HW2 6786   7.939  10.714  10.543
 1652SOL     OW 6787  11.733  10.871   2.249
 1652SOL    HW1 6788  11.813  10.819   2.237
 1652SOL    HW2 6789  11.749  10.922   2.329
 1653SOL     OW 6790  10.155  11.860   5.010
 1653SOL    HW1 6791  10.072  11.813   5.003
 1653SOL    HW2 6792  10.195  11.853   4.923
 1654SOL     OW 6793  10.915   7.433   6.268
 1654SOL    HW1 6794  10.822   7.440   6.249
 1654SOL    HW2 6795  10.955   7.405   6.186
 1655SOL     OW 6796   8.653  12.339   3.305
 1655SOL    HW1 6797   8.708  12.417   3.312
 1655SOL    HW2 6798   8.593  12.345   3.379
 1656SOL     OW 6799  11.813  10.955   7.163
 1656SOL    HW1 6800  11.864  11.021   7.211
 1656SOL    HW2 6801  11.821  10.875   7.216
 1657SOL     OW 6802  10.539   0.969  12.854
 1657SOL    HW1 6803  10.630   0.945  12.870
 1657SOL    HW2 6804  10.490   0.887  12.860
 1658SOL     OW 6805  12.521  12.415  11.505
 1658SOL    HW1 6806  12.613  12.422  11.478
 1658SOL    HW2 6807  12.487  12.504  11.497
 1659SOL     OW 6808  13.841   8.556   7.342
 1659SOL    HW1 6809  13.856   8.580   7.251
 1659SOL    HW2 6810  13.847   8.638   7.390
 1660SOL     OW 6811  14.734  12.998  10.219
 1660SOL    HW1 6812  14.657  13.050  10.198
 1660SOL    HW2 6813  14.704  12.936  10.286
 1661SOL     OW 6814   7.773  13.726   6.150
 1661SOL    HW1 6815   7.691  13.755   6.189
 1661SOL    HW2 6816   7.834  13.798   6.167
 1662SOL     OW 6817   4.592   6.942   7.514
 1662SOL    HW1 6818   4.523   6.905   7.569
 1662SOL    HW2 6819   4.566   6.921   7.425
 1663SOL     OW 6820  12.157   1.214  10.555
 1663SOL    HW1 6821  12.130   1.175  10.472
 1663SOL    HW2 6822  12.123   1.155  10.622
 1664SOL     OW 6823   7.050   0.934   3.603
 1664SOL    HW1 6824   7.040   0.939   3.698
 1664SOL    HW2 6825   7.136   0.972   3.585
 1665SOL     OW 6826   9.152  12.921   4.816
 1665SOL    HW1 6827   9.114  12.962   4.738
 1665SOL    HW2 6828   9.227  12.977   4.837
 1666SOL     OW 6829   4.535   1.274   5.830
 1666SOL    HW1 6830   4.605   1.252   5.891
 1666SOL    HW2 6831   4.515   1.192   5.785
 1667SOL     OW 6832   6.550   3.129   0.906
 1667SOL    HW1 6833   6.630   3.083   0.932
 1667SOL    HW2 6834   6.520   3.082   0.829
 1668SOL     OW 6835   9.070   1.226  14.878
 1668SOL    HW1 6836   9.052   1.176  14.799
 1668SOL    HW2 6837   9.161   1.253  14.870
 1669SOL     OW 6838  13.252  14.095   1.353
 1669SOL    HW1 6839  13.161  14.096   1.324
 1669SOL    HW2 6840  13.262  14.011   1.398
 1670SOL     OW 6841   4.069  12.662  10.562
 1670SOL    HW1 6842   4.160  12.690  10.569
 1670SOL    HW2 6843   4.044  12.637  10.651
 1671SOL     OW 6844   0.628   2.078   8.709
 1671SOL    HW1 6845   0.683   2.075   8.787
 1671SOL    HW2 6846   0.620   1.987   8.680
 1672SOL     OW 6847   5.524   3.280  14.106
 1672SOL    HW1 6848   5.572   3.205  14.072
 1672SOL    HW2 6849   5.443   3.244  14.141
 1673SOL     OW 6850   5.680  12.218   5.249
 1673SOL    HW1 6851   5.616  12.148   5.259
 1673SOL    HW2 6852   5.658  12.282   5.316
 1674SOL     OW 6853   3.185   3.666   0.636
 1674SOL    HW1 6854   3.255   3.692   0.696
 1674SOL    HW2 6855   3.104   3.688   0.683
 1675SOL     OW 6856  11.919  12.115  13.660
 1675SOL    HW1 6857  11.955  12.095  13.574
 1675SOL    HW2 6858  11.862  12.041  13.679
 1676SOL     OW 6859   7.262  11.641  13.565
 1676SOL    HW1 6860   7.348  11.609  13.537
 1676SOL    HW2 6861   7.234  11.577  13.631
 1677SOL     OW 6862   1.065   4.174   1.864
 1677SOL    HW1 6863   1.154   4.140   1.853
 1677SOL    HW2 6864   1.076   4.268   1.876
 1678SOL     OW 6865  12.910   3.084   1.616
 1678SOL    HW1 6866  12.983   3.039   1.574
 1678SOL    HW2 6867  12.842   3.017   1.624
 1679SOL     OW 6868  10.846   9.940   4.704
 1679SOL    HW1 6869  10.839   9.860   4.653
 1679SOL    HW2 6870  10.848   9.910   4.795
 1680SOL     OW 6871   9.010  12.364   3.189
 1680SOL    HW1 6872   8.935  12.417   3.164
 1680SOL    HW2 6873   8.992  12.277   3.153
 1681SOL     OW 6874   1.031   6.283  14.511
 1681SOL    HW1 6875   1.033   6.221  14.438
 1681SOL    HW2 6876   1.060   6.366  14.472
 1682SOL     OW 6877   1.835  12.665   2.601
 1682SOL    HW1 6878   1.869  12.754   2.604
 1682SOL    HW2 6879   1.910  12.609   2.620
 1683SOL     OW 6880   9.183   6.583   3.555
 1683SOL    HW1 6881   9.094   6.618   3.553
 1683SOL    HW2 6882   9.217   6.599   3.467
 1684SOL     OW 6883  10.974   8.605  14.452
 1684SOL    HW1 6884  10.995   8.594  14.545
 1684SOL    HW2 6885  10.984   8.517  14.415
 1685SOL     OW 6886   3.279  14.658   0.941
 1685SOL    HW1 6887   3.203  14.702   0.903
 1685SOL    HW2 6888   3.310  14.719   1.008
 1686SOL     OW 6889   2.129  14.858  12.871
 1686SOL    HW1 6890   2.179  14.825  12.946
 1686SOL    HW2 6891   2.115   0.069  12.891
 1687SOL     OW 6892   1.090   2.072  12.937
 1687SOL    HW1 6893   1.078   2.009  12.866
 1687SOL    HW2 6894   1.020   2.053  12.999
 1688SOL     OW 6895   9.949   3.089   9.057
 1688SOL    HW1 6896   9.905   3.139   8.989
 1688SOL    HW2 6897   9.907   3.003   9.055
 1689SOL     OW 6898   7.846   5.983   0.156
 1689SOL    HW1 6899   7.907   6.039   0.107
 1689SOL    HW2 6900   7.816   5.919   0.092
 1690SOL     OW 6901   1.318   6.863   8.351
 1690SOL    HW1 6902   1.332   6.825   8.437
 1690SOL    HW2 6903   1.379   6.937   8.347
 1691SOL     OW 6904  10.549   7.849   5.778
 1691SOL    HW1 6905  10.462   7.817   5.804
 1691SOL    HW2 6906  10.603   7.771   5.775
 1692SOL     OW 6907  11.543   2.315   7.871
 1692SOL    HW1 6908  11.471   2.302   7.810
 1692SOL    HW2 6909  11.597   2.382   7.829
 1693SOL     OW 6910   0.217   5.465   3.360
 1693SOL    HW1 6911   0.244   5.392   3.305
 1693SOL    HW2 6912   0.296   5.519   3.370
 1694SOL     OW 6913   5.767   5.320   3.146
 1694SOL    HW1 6914   5.835   5.377   3.180
 1694SOL    HW2 6915   5.791   5.305   3.054
 1695SOL     OW 6916   3.136   7.820  13.046
 1695SOL    HW1 6917   3.159   7.825  13.139
 1695SOL    HW2 6918   3.216   7.787  13.004
 1696SOL     OW 6919   9.787   7.023   5.750
 1696SOL    HW1 6920   9.754   7.003   5.838
 1696SOL    HW2 6921   9.721   7.081   5.713
 1697SOL     OW 6922   4.558   9.501   7.043
 1697SOL    HW1 6923   4.645   9.541   7.049
 1697SOL    HW2 6924   4.498   9.576   7.040
 1698SOL     OW 6925   0.576  13.441   0.835
 1698SOL    HW1 6926   0.662  13.403   0.813
 1698SOL    HW2 6927   0.526  13.368   0.871
 1699SOL     OW 6928   9.121  14.320   0.046
 1699SOL    HW1 6929   9.183  14.370   0.099
 1699SOL    HW2 6930   9.086  14.383  14.866
 1700SOL     OW 6931  12.969   3.296   8.312
 1700SOL    HW1 6932  12.876   3.309   8.296
 1700SOL    HW2 6933  12.984   3.334   8.399
 1701SOL     OW 6934  14.666  12.139   5.461
 1701SOL    HW1 6935  14.650  12.209   5.524
 1701SOL    HW2 6936  14.761  12.130   5.460
 1702SOL     OW 6937   6.118   2.740   2.375
 1702SOL    HW1 6938   6.171   2.661   2.365
 1702SOL    HW2 6939   6.035   2.709   2.410
 1703SOL     OW 6940  13.647   3.671   1.762
 1703SOL    HW1 6941  13.718   3.649   1.701
 1703SOL    HW2 6942  13.666   3.760   1.790
 1704SOL     OW 6943   0.602   6.928  12.527
 1704SOL    HW1 6944   0.529   6.881  12.568
 1704SOL    HW2 6945   0.560   6.995  12.473
 1705SOL     OW 6946  14.033   5.146   6.579
 1705SOL    HW1 6947  14.011   5.055   6.560
 1705SOL    HW2 6948  14.108   5.166   6.523
 1706SOL     OW 6949   5.287  12.212   9.611
 1706SOL    HW1 6950   5.305  12.123   9.581
 1706SOL    HW2 6951   5.353  12.228   9.679
 1707SOL     OW 6952   3.267   7.000  10.299
 1707SOL    HW1 6953   3.316   6.966  10.225
 1707SOL    HW2 6954   3.217   6.925  10.331
 1708SOL     OW 6955  13.673   1.163   2.789
 1708SOL    HW1 6956  13.659   1.070   2.776
 1708SOL    HW2 6957  13.606   1.205   2.735
 1709SOL     OW 6958   3.268   7.872  13.695
 1709SOL    HW1 6959   3.184   7.835  13.668
 1709SOL    HW2 6960   3.260   7.882  13.790
 1710SOL     OW 6961   3.028   7.870   4.331
 1710SOL    HW1 6962   2.975   7.948   4.313
 1710SOL    HW2 6963   2.964   7.802   4.352
 1711SOL     OW 6964   7.601   8.277   3.225
 1711SOL    HW1 6965   7.589   8.355   3.171
 1711SOL    HW2 6966   7.558   8.207   3.176
 1712SOL     OW 6967  12.268   7.321  14.164
 1712SOL    HW1 6968  12.327   7.380  14.212
 1712SOL    HW2 6969  12.320   7.242  14.149
 1713SOL     OW 6970   8.885  12.790  14.099
 1713SOL    HW1 6971   8.862  12.700  14.121
 1713SOL    HW2 6972   8.952  12.783  14.031
 1714SOL     OW 6973   1.503   1.877   2.277
 1714SOL    HW1 6974   1.545   1.796   2.250
 1714SOL    HW2 6975   1.486   1.924   2.196
 1715SOL     OW 6976  10.434   9.234  11.705
 1715SOL    HW1 6977  10.363   9.200  11.650
 1715SOL    HW2 6978  10.514   9.203  11.663
 1716SOL     OW 6979  10.619  14.041  10.776
 1716SOL    HW1 6980  10.547  14.094  10.742
 1716SOL    HW2 6981  10.576  13.975  10.832
 1717SOL     OW 6982   8.621   1.754  14.337
 1717SOL    HW1 6983   8.645   1.846  14.350
 1717SOL    HW2 6984   8.671   1.706  14.403
 1718SOL     OW 6985   3.548   7.825   0.949
 1718SOL    HW1 6986   3.585   7.863   0.869
 1718SOL    HW2 6987   3.624   7.808   1.004
 1719SOL     OW 6988   1.235  10.032   6.085
 1719SOL    HW1 6989   1.202   9.963   6.028
 1719SOL    HW2 6990   1.323  10.050   6.052
 1720SOL     OW 6991  11.992   9.628   3.746
 1720SOL    HW1 6992  11.916   9.573   3.765
 1720SOL    HW2 6993  12.054   9.609   3.817
 1721SOL     OW 6994   6.325  11.606   5.326
 1721SOL    HW1 6995   6.405  11.555   5.319
 1721SOL    HW2 6996   6.265  11.550   5.374
 1722SOL     OW 6997   6.531  13.252   5.454
 1722SOL    HW1 6998   6.507  13.172   5.408
 1722SOL    HW2 6999   6.625  13.244   5.469
 1723SOL     OW 7000   0.979   1.036   7.413
 1723SOL    HW1 7001   0.919   1.101   7.450
 1723SOL    HW2 7002   0.943   0.952   7.441
 1724SOL     OW 7003   7.229   5.491   4.204
 1724SOL    HW1 7004   7.175   5.570   4.216
 1724SOL    HW2 7005   7.317   5.525   4.186
 1725SOL     OW 7006   2.489   6.265   1.603
 1725SOL    HW1 7007   2.571   6.307   1.579
 1725SOL    HW2 7008   2.506   6.171   1.589
 1726SOL     OW 7009   8.647  12.367  13.248
 1726SOL    HW1 7010   8.649  12.330  13.336
 1726SOL    HW2 7011   8.737  12.394  13.231
 1727SOL     OW 7012   8.359  14.813   8.339
 1727SOL    HW1 7013   8.363  14.726   8.300
 1727SOL    HW2 7014   8.281  14.853   8.301
 1728SOL     OW 7015  10.157  10.930   4.334
 1728SOL    HW1 7016  10.104  10.980   4.396
 1728SOL    HW2 7017  10.166  10.844   4.374
 1729SOL     OW 7018  12.097   1.648  10.798
 1729SOL    HW1 7019  12.084   1.727  10.745
 1729SOL    HW2 7020  12.012   1.604  10.796
 1730SOL     OW 7021  14.546   5.573  10.019
 1730SOL    HW1 7022  14.520   5.530  10.101
 1730SOL    HW2 7023  14.594   5.651  10.048
 1731SOL     OW 7024   7.821   6.046  10.693
 1731SOL    HW1 7025   7.768   5.990  10.750
 1731SOL    HW2 7026   7.895   6.072  10.747
 1732SOL     OW 7027   8.179   4.855   2.673
 1732SOL    HW1 7028   8.237   4.893   2.739
 1732SOL    HW2 7029   8.235   4.796   2.623
 1733SOL     OW 7030  12.744  12.439   4.173
 1733SOL    HW1 7031  12.834  12.422   4.143
 1733SOL    HW2 7032  12.713  12.354   4.205
 1734SOL     OW 7033   9.484   1.382   8.197
 1734SOL    HW1 7034   9.576   1.366   8.177
 1734SOL    HW2 7035   9.481   1.391   8.292
 1735SOL     OW 7036   3.289  14.526   8.175
 1735SOL    HW1 7037   3.322  14.471   8.104
 1735SOL    HW2 7038   3.344  14.505   8.250
 1736SOL     OW 7039   0.371   1.175  11.737
 1736SOL    HW1 7040   0.455   1.155  11.778
 1736SOL    HW2 7041   0.310   1.111  11.774
 1737SOL     OW 7042   2.208   9.681   4.189
 1737SOL    HW1 7043   2.134   9.623   4.172
 1737SOL    HW2 7044   2.169   9.767   4.201
 1738SOL     OW 7045   5.454  12.802   1.221
 1738SOL    HW1 7046   5.534  12.749   1.221
 1738SOL    HW2 7047   5.456  12.848   1.137
 1739SOL     OW 7048  13.432   7.404   3.355
 1739SOL    HW1 7049  13.472   7.489   3.341
 1739SOL    HW2 7050  13.339   7.418   3.334
 1740SOL     OW 7051   2.207  12.542   0.592
 1740SOL    HW1 7052   2.175  12.452   0.587
 1740SOL    HW2 7053   2.170  12.576   0.673
 1741SOL     OW 7054   4.778   3.812   7.800
 1741SOL    HW1 7055   4.797   3.742   7.737
 1741SOL    HW2 7056   4.785   3.893   7.748
 1742SOL     OW 7057  13.934   9.023   4.945
 1742SOL    HW1 7058  13.909   9.044   5.035
 1742SOL    HW2 7059  14.029   9.019   4.947
 1743SOL     OW 7060   0.550   1.182   1.061
 1743SOL    HW1 7061   0.607   1.106   1.056
 1743SOL    HW2 7062   0.541   1.201   1.154
 1744SOL     OW 7063   0.017  12.009   0.294
 1744SOL    HW1 7064  14.818  11.998   0.244
 1744SOL    HW2 7065   0.036  11.922   0.329
 1745SOL     OW 7066   1.871   7.258   1.125
 1745SOL    HW1 7067   1.858   7.345   1.161
 1745SOL    HW2 7068   1.880   7.201   1.201
 1746SOL     OW 7069   3.601   7.797  12.242
 1746SOL    HW1 7070   3.563   7.713  12.267
 1746SOL    HW2 7071   3.670   7.812  12.307
 1747SOL     OW 7072   1.493  12.771   0.752
 1747SOL    HW1 7073   1.499  12.794   0.659
 1747SOL    HW2 7074   1.514  12.853   0.798
 1748SOL     OW 7075   0.993  12.155  13.202
 1748SOL    HW1 7076   1.026  12.187  13.118
 1748SOL    HW2 7077   0.992  12.060  13.193
 1749SOL     OW 7078   4.663   3.903   6.426
 1749SOL    HW1 7079   4.618   3.923   6.344
 1749SOL    HW2 7080   4.700   3.816   6.413
 1750SOL     OW 7081   3.285  13.236  14.485
 1750SOL    HW1 7082   3.209  13.209  14.536
 1750SOL    HW2 7083   3.332  13.298  14.541
 1751SOL     OW 7084   5.232  13.845  13.945
 1751SOL    HW1 7085   5.291  13.843  14.021
 1751SOL    HW2 7086   5.211  13.753  13.928
 1752SOL     OW 7087  12.314   9.863   4.372
 1752SOL    HW1 7088  12.330   9.904   4.287
 1752SOL    HW2 7089  12.269   9.931   4.423
 1753SOL     OW 7090   5.039   6.159   6.769
 1753SOL    HW1 7091   5.077   6.235   6.724
 1753SOL    HW2 7092   4.946   6.164   6.751
 1754SOL     OW 7093  13.723   5.313  11.116
 1754SOL    HW1 7094  13.653   5.257  11.150
 1754SOL    HW2 7095  13.712   5.396  11.163
 1755SOL     OW 7096  10.645  12.094   9.887
 1755SOL    HW1 7097  10.625  12.177   9.930
 1755SOL    HW2 7098  10.700  12.047   9.950
 1756SOL     OW 7099   9.005   1.228  13.144
 1756SOL    HW1 7100   9.008   1.242  13.049
 1756SOL    HW2 7101   8.930   1.171  13.158
 1757SOL     OW 7102   8.901  13.579  11.216
 1757SOL    HW1 7103   8.922  13.554  11.306
 1757SOL    HW2 7104   8.887  13.496  11.171
 1758SOL     OW 7105   7.704  10.661   9.456
 1758SOL    HW1 7106   7.616  10.631   9.478
 1758SOL    HW2 7107   7.693  10.755   9.439
 1759SOL     OW 7108   9.655   1.872   0.785
 1759SOL    HW1 7109   9.666   1.777   0.786
 1759SOL    HW2 7110   9.580   1.887   0.727
 1760SOL     OW 7111  14.512  12.501   0.155
 1760SOL    HW1 7112  14.602  12.503   0.122
 1760SOL    HW2 7113  14.478  12.589   0.135
 1761SOL     OW 7114   6.457   6.089  11.798
 1761SOL    HW1 7115   6.474   6.102  11.704
 1761SOL    HW2 7116   6.492   6.167  11.840
 1762SOL     OW 7117   0.571   9.283   0.122
 1762SOL    HW1 7118   0.615   9.226   0.184
 1762SOL    HW2 7119   0.534   9.224   0.056
 1763SOL     OW 7120  13.283   1.136   6.907
 1763SOL    HW1 7121  13.362   1.189   6.915
 1763SOL    HW2 7122  13.315   1.045   6.908
 1764SOL     OW 7123   0.098   8.090  14.006
 1764SOL    HW1 7124   0.138   8.059  13.925
 1764SOL    HW2 7125   0.112   8.019  14.068
 1765SOL     OW 7126   5.456  10.237   9.689
 1765SOL    HW1 7127   5.535  10.240   9.634
 1765SOL    HW2 7128   5.490  10.238   9.779
 1766SOL     OW 7129   6.943   1.959   6.352
 1766SOL    HW1 7130   6.968   1.878   6.307
 1766SOL    HW2 7131   6.847   1.961   6.348
 1767SOL     OW 7132  10.508   4.247   3.347
 1767SOL    HW1 7133  10.599   4.263   3.319
 1767SOL    HW2 7134  10.514   4.171   3.405
 1768SOL     OW 7135   3.019   8.913   1.739
 1768SOL    HW1 7136   3.046   8.960   1.660
 1768SOL    HW2 7137   2.926   8.932   1.747
 1769SOL     OW 7138  10.179  13.321   3.899
 1769SOL    HW1 7139  10.254  13.379   3.910
 1769SOL    HW2 7140  10.213  13.233   3.918
 1770SOL     OW 7141   0.066   4.192   5.653
 1770SOL    HW1 7142   0.099   4.265   5.601
 1770SOL    HW2 7143  14.860   4.175   5.619
 1771SOL     OW 7144  14.540   9.205   9.747
 1771SOL    HW1 7145  14.611   9.226   9.807
 1771SOL    HW2 7146  14.464   9.249   9.784
 1772SOL     OW 7147   1.311   7.632  10.799
 1772SOL    HW1 7148   1.241   7.587  10.846
 1772SOL    HW2 7149   1.341   7.699  10.860
 1773SOL     OW 7150  14.532  13.446   8.174
 1773SOL    HW1 7151  14.467  13.387   8.212
 1773SOL    HW2 7152  14.616  13.416   8.209
 1774SOL     OW 7153   2.493  12.317   3.979
 1774SOL    HW1 7154   2.559  12.318   4.049
 1774SOL    HW2 7155   2.543  12.294   3.900
 1775SOL     OW 7156   4.340   8.247  13.318
 1775SOL    HW1 7157   4.362   8.335  13.347
 1775SOL    HW2 7158   4.245   8.248  13.308
 1776SOL     OW 7159  12.869  14.617  12.496
 1776SOL    HW1 7160  12.906  14.636  12.410
 1776SOL    HW2 7161  12.928  14.659  12.558
 1777SOL     OW 7162  11.680   4.757   0.174
 1777SOL    HW1 7163  11.733   4.723   0.101
 1777SOL    HW2 7164  11.599   4.706   0.169
 1778SOL     OW 7165   5.265  13.444   2.526
 1778SOL    HW1 7166   5.279  13.416   2.617
 1778SOL    HW2 7167   5.171  13.457   2.518
 1779SOL     OW 7168   6.675   5.310   0.956
 1779SOL    HW1 7169   6.697   5.281   1.045
 1779SOL    HW2 7170   6.612   5.381   0.968
 1780SOL     OW 7171   8.761  14.401   5.733
 1780SOL    HW1 7172   8.710  14.475   5.765
 1780SOL    HW2 7173   8.840  14.441   5.696
 1781SOL     OW 7174   4.612   3.321  10.456
 1781SOL    HW1 7175   4.595   3.413  10.435
 1781SOL    HW2 7176   4.542   3.298  10.518
 1782SOL     OW 7177   5.094  13.856  10.531
 1782SOL    HW1 7178   5.113  13.870  10.438
 1782SOL    HW2 7179   5.112  13.941  10.572
 1783SOL     OW 7180  11.042  11.930  13.788
 1783SOL    HW1 7181  11.074  11.947  13.877
 1783SOL    HW2 7182  11.062  12.010  13.740
 1784SOL     OW 7183  11.656   4.173   8.978
 1784SOL    HW1 7184  11.564   4.148   8.988
 1784SOL    HW2 7185  11.696   4.101   8.929
 1785SOL     OW 7186   6.274   3.924   8.471
 1785SOL    HW1 7187   6.290   3.989   8.539
 1785SOL    HW2 7188   6.361   3.909   8.432
 1786SOL     OW 7189   5.883  13.802   2.143
 1786SOL    HW1 7190   5.847  13.731   2.089
 1786SOL    HW2 7191   5.930  13.758   2.213
 1787SOL     OW 7192   5.018   1.101   7.278
 1787SOL    HW1 7193   4.956   1.172   7.294
 1787SOL    HW2 7194   5.090   1.142   7.230
 1788SOL     OW 7195   3.995   4.962  13.155
 1788SOL    HW1 7196   3.946   4.899  13.208
 1788SOL    HW2 7197   3.989   4.929  13.066
 1789SOL     OW 7198   1.423   1.650   0.568
 1789SOL    HW1 7199   1.513   1.622   0.581
 1789SOL    HW2 7200   1.383   1.580   0.516
 1790SOL     OW 7201   0.161   9.953   8.757
 1790SOL    HW1 7202   0.120   9.878   8.716
 1790SOL    HW2 7203   0.138  10.027   8.701
 1791SOL     OW 7204  11.466   0.394  14.539
 1791SOL    HW1 7205  11.402   0.456  14.572
 1791SOL    HW2 7206  11.550   0.429  14.567
 1792SOL     OW 7207   3.746   4.016   8.545
 1792SOL    HW1 7208   3.836   3.985   8.547
 1792SOL    HW2 7209   3.715   4.005   8.635
 1793SOL     OW 7210   2.265  12.959  10.565
 1793SOL    HW1 7211   2.206  13.035  10.568
 1793SOL    HW2 7212   2.350  12.995  10.542
 1794SOL     OW 7213   8.515   2.549   4.427
 1794SOL    HW1 7214   8.506   2.591   4.341
 1794SOL    HW2 7215   8.571   2.473   4.411
 1795SOL     OW 7216  12.217   6.289  11.275
 1795SOL    HW1 7217  12.175   6.268  11.191
 1795SOL    HW2 7218  12.201   6.212  11.329
 1796SOL     OW 7219   4.753   9.129   3.268
 1796SOL    HW1 7220   4.734   9.047   3.313
 1796SOL    HW2 7221   4.781   9.189   3.337
 1797SOL     OW 7222   1.088   2.192  14.367
 1797SOL    HW1 7223   1.058   2.247  14.294
 1797SOL    HW2 7224   1.008   2.156  14.406
 1798SOL     OW 7225  10.700   2.149  13.524
 1798SOL    HW1 7226  10.716   2.175  13.434
 1798SOL    HW2 7227  10.616   2.189  13.547
 1799SOL     OW 7228   3.186  12.149   6.151
 1799SOL    HW1 7229   3.103  12.192   6.131
 1799SOL    HW2 7230   3.225  12.131   6.065
 1800SOL     OW 7231   4.119   9.896   4.138
 1800SOL    HW1 7232   4.135   9.899   4.044
 1800SOL    HW2 7233   4.159   9.814   4.167
 1801SOL     OW 7234   0.311  13.916   0.556
 1801SOL    HW1 7235   0.367  13.993   0.549
 1801SOL    HW2 7236   0.348  13.854   0.492
 1802SOL     OW 7237  12.098  10.356   3.210
 1802SOL    HW1 7238  12.079  10.331   3.300
 1802SOL    HW2 7239  12.026  10.317   3.159
 1803SOL     OW 7240   8.419  13.078  14.787
 1803SOL    HW1 7241   8.491  13.140  14.776
 1803SOL    HW2 7242   8.340  13.132  14.781
 1804SOL     OW 7243   8.038  10.274   2.099
 1804SOL    HW1 7244   8.061  10.309   2.013
 1804SOL    HW2 7245   8.112  10.219   2.124
 1805SOL     OW 7246   5.078   8.400   8.651
 1805SOL    HW1 7247   5.098   8.464   8.720
 1805SOL    HW2 7248   5.120   8.319   8.681
 1806SOL     OW 7249   3.534   3.018  11.247
 1806SOL    HW1 7250   3.490   2.939  11.278
 1806SOL    HW2 7251   3.603   2.986  11.189
 1807SOL     OW 7252   5.590  13.114   1.563
 1807SOL    HW1 7253   5.512  13.168   1.577
 1807SOL    HW2 7254   5.656  13.151   1.622
 1808SOL     OW 7255   0.688   8.544   2.223
 1808SOL    HW1 7256   0.631   8.485   2.173
 1808SOL    HW2 7257   0.766   8.553   2.168
 1809SOL     OW 7258   0.462   2.501  14.525
 1809SOL    HW1 7259   0.383   2.458  14.491
 1809SOL    HW2 7260   0.447   2.594  14.510
 1810SOL     OW 7261  13.838   0.689  10.559
 1810SOL    HW1 7262  13.767   0.740  10.599
 1810SOL    HW2 7263  13.873   0.746  10.491
 1811SOL     OW 7264  12.130   4.626   0.179
 1811SOL    HW1 7265  12.056   4.584   0.224
 1811SOL    HW2 7266  12.101   4.716   0.164
 1812SOL     OW 7267  12.301   3.183   0.027
 1812SOL    HW1 7268  12.281   3.262  14.859
 1812SOL    HW2 7269  12.220   3.133   0.027
 1813SOL     OW 7270  14.287   1.761   7.069
 1813SOL    HW1 7271  14.197   1.763   7.102
 1813SOL    HW2 7272  14.333   1.703   7.131
 1814SOL     OW 7273  10.355   2.596  11.641
 1814SOL    HW1 7274  10.276   2.650  11.634
 1814SOL    HW2 7275  10.337   2.521  11.585
 1815SOL     OW 7276  11.145  13.507   1.947
 1815SOL    HW1 7277  11.065  13.458   1.926
 1815SOL    HW2 7278  11.201  13.494   1.870
 1816SOL     OW 7279  13.792  11.986   2.083
 1816SOL    HW1 7280  13.757  12.009   2.169
 1816SOL    HW2 7281  13.747  12.044   2.022
 1817SOL     OW 7282   7.161  14.005   7.039
 1817SOL    HW1 7283   7.109  13.974   6.965
 1817SOL    HW2 7284   7.246  13.963   7.028
 1818SOL     OW 7285  12.390   3.784  13.077
 1818SOL    HW1 7286  12.411   3.871  13.044
 1818SOL    HW2 7287  12.295   3.786  13.092
 1819SOL     OW 7288  12.459  11.687   1.650
 1819SOL    HW1 7289  12.493  11.628   1.717
 1819SOL    HW2 7290  12.516  11.764   1.655
 1820SOL     OW 7291   3.887   0.565  12.468
 1820SOL    HW1 7292   3.865   0.514  12.390
 1820SOL    HW2 7293   3.966   0.523  12.503
 1821SOL     OW 7294  10.742   9.930  14.695
 1821SOL    HW1 7295  10.745   9.988  14.771
 1821SOL    HW2 7296  10.775   9.846  14.728
 1822SOL     OW 7297   6.764   0.698   5.854
 1822SOL    HW1 7298   6.693   0.636   5.834
 1822SOL    HW2 7299   6.762   0.759   5.780
 1823SOL     OW 7300   8.066   5.673   6.780
 1823SOL    HW1 7301   8.131   5.707   6.719
 1823SOL    HW2 7302   8.094   5.705   6.866
 1824SOL     OW 7303   3.598  13.611   8.748
 1824SOL    HW1 7304   3.630  13.619   8.658
 1824SOL    HW2 7305   3.529  13.545   8.743
 1825SOL     OW 7306  10.336  10.686   4.765
 1825SOL    HW1 7307  10.423  10.668   4.728
 1825SOL    HW2 7308  10.338  10.645   4.851
 1826SOL     OW 7309   6.158  11.234   8.628
 1826SOL    HW1 7310   6.062  11.238   8.622
 1826SOL    HW2 7311   6.180  11.147   8.594
 1827SOL     OW 7312   1.754  10.738  14.863
 1827SOL    HW1 7313   1.743  10.799   0.054
 1827SOL    HW2 7314   1.846  10.713  14.866
 1828SOL     OW 7315   3.424   8.431  12.772
 1828SOL    HW1 7316   3.378   8.501  12.818
 1828SOL    HW2 7317   3.358   8.364  12.757
 1829SOL     OW 7318  10.264   1.087   7.904
 1829SOL    HW1 7319  10.307   1.025   7.962
 1829SOL    HW2 7320  10.172   1.064   7.907
 1830SOL     OW 7321   5.963   7.004   0.271
 1830SOL    HW1 7322   6.003   7.039   0.350
 1830SOL    HW2 7323   5.909   6.931   0.301
 1831SOL     OW 7324  12.286   6.473   2.284
 1831SOL    HW1 7325  12.354   6.539   2.269
 1831SOL    HW2 7326  12.205   6.525   2.290
 1832SOL     OW 7327   9.600   5.090   8.521
 1832SOL    HW1 7328   9.641   5.041   8.593
 1832SOL    HW2 7329   9.506   5.083   8.539
 1833SOL     OW 7330   9.226   3.665   0.365
 1833SOL    HW1 7331   9.265   3.628   0.444
 1833SOL    HW2 7332   9.151   3.715   0.398
 1834SOL     OW 7333  13.479  11.099  12.469
 1834SOL    HW1 7334  13.539  11.077  12.541
 1834SOL    HW2 7335  13.537  11.108  12.393
 1835SOL     OW 7336  13.534   6.520  11.919
 1835SOL    HW1 7337  13.583   6.568  11.985
 1835SOL    HW2 7338  13.448   6.504  11.959
 1836SOL     OW 7339   5.898   2.055   7.492
 1836SOL    HW1 7340   5.984   2.012   7.489
 1836SOL    HW2 7341   5.870   2.048   7.583
 1837SOL     OW 7342   2.896   1.919   2.430
 1837SOL    HW1 7343   2.881   1.954   2.342
 1837SOL    HW2 7344   2.859   1.831   2.427
 1838SOL     OW 7345  12.248   4.729   5.699
 1838SOL    HW1 7346  12.235   4.759   5.609
 1838SOL    HW2 7347  12.172   4.762   5.747
 1839SOL     OW 7348   8.191  11.815  13.336
 1839SOL    HW1 7349   8.142  11.887  13.295
 1839SOL    HW2 7350   8.274  11.813  13.288
 1840SOL     OW 7351   1.076   8.560   6.547
 1840SOL    HW1 7352   1.157   8.533   6.505
 1840SOL    HW2 7353   1.092   8.650   6.575
 1841SOL     OW 7354  10.845   4.164  11.888
 1841SOL    HW1 7355  10.844   4.246  11.939
 1841SOL    HW2 7356  10.815   4.190  11.801
 1842SOL     OW 7357   2.288   2.456   5.594
 1842SOL    HW1 7358   2.367   2.509   5.604
 1842SOL    HW2 7359   2.310   2.392   5.527
 1843SOL     OW 7360   9.944  13.634   9.813
 1843SOL    HW1 7361   9.926  13.553   9.764
 1843SOL    HW2 7362   9.858  13.666   9.839
 1844SOL     OW 7363  14.301   4.578   7.711
 1844SOL    HW1 7364  14.288   4.545   7.622
 1844SOL    HW2 7365  14.320   4.671   7.699
 1845SOL     OW 7366   2.666   4.667   8.859
 1845SOL    HW1 7367   2.733   4.601   8.836
 1845SOL    HW2 7368   2.584   4.627   8.831
 1846SOL     OW 7369   8.577   8.450  11.771
 1846SOL    HW1 7370   8.567   8.510  11.844
 1846SOL    HW2 7371   8.488   8.424  11.749
 1847SOL     OW 7372   3.324   2.305   2.359
 1847SOL    HW1 7373   3.364   2.316   2.272
 1847SOL    HW2 7374   3.318   2.210   2.371
 1848SOL     OW 7375  11.360  13.887   1.192
 1848SOL    HW1 7376  11.375  13.825   1.121
 1848SOL    HW2 7377  11.361  13.833   1.271
 1849SOL     OW 7378   3.509  12.240   2.802
 1849SOL    HW1 7379   3.469  12.178   2.863
 1849SOL    HW2 7380   3.504  12.197   2.717
 1850SOL     OW 7381   6.472   2.054   6.651
 1850SOL    HW1 7382   6.560   2.039   6.686
 1850SOL    HW2 7383   6.438   1.967   6.633
 1851SOL     OW 7384   8.767   0.035   2.206
 1851SOL    HW1 7385   8.694   0.070   2.155
 1851SOL    HW2 7386   8.726   0.001   2.286
 1852SOL     OW 7387   1.673  10.872   2.585
 1852SOL    HW1 7388   1.615  10.910   2.651
 1852SOL    HW2 7389   1.658  10.778   2.591
 1853SOL     OW 7390   5.926   5.207  11.889
 1853SOL    HW1 7391   5.965   5.272  11.948
 1853SOL    HW2 7392   5.838   5.240  11.871
 1854SOL     OW 7393  13.105   8.751   0.361
 1854SOL    HW1 7394  13.037   8.769   0.297
 1854SOL    HW2 7395  13.151   8.675   0.327
 1855SOL     OW 7396  12.540   2.214   9.178
 1855SOL    HW1 7397  12.530   2.227   9.084
 1855SOL    HW2 7398  12.577   2.126   9.186
 1856SOL     OW 7399  12.430   8.551   4.978
 1856SOL    HW1 7400  12.498   8.543   5.045
 1856SOL    HW2 7401  12.469   8.515   4.899
 1857SOL     OW 7402  10.391  14.802   4.300
 1857SOL    HW1 7403  10.372   0.006   4.339
 1857SOL    HW2 7404  10.306  14.771   4.269
 1858SOL     OW 7405   9.299   4.161   6.539
 1858SOL    HW1 7406   9.218   4.190   6.582
 1858SOL    HW2 7407   9.270   4.123   6.457
 1859SOL     OW 7408  11.152   6.105   9.359
 1859SOL    HW1 7409  11.155   6.200   9.362
 1859SOL    HW2 7410  11.125   6.084   9.270
 1860SOL     OW 7411   7.444  14.819   9.612
 1860SOL    HW1 7412   7.425   0.026   9.643
 1860SOL    HW2 7413   7.359  14.776   9.611
 1861SOL     OW 7414   7.307   0.606  11.100
 1861SOL    HW1 7415   7.303   0.685  11.047
 1861SOL    HW2 7416   7.224   0.561  11.084
 1862SOL     OW 7417  12.388   0.970  10.533
 1862SOL    HW1 7418  12.333   0.953  10.609
 1862SOL    HW2 7419  12.447   1.039  10.562
 1863SOL     OW 7420   1.327  14.295  14.576
 1863SOL    HW1 7421   1.238  14.318  14.549
 1863SOL    HW2 7422   1.383  14.330  14.507
 1864SOL     OW 7423  10.028  11.283   1.789
 1864SOL    HW1 7424  10.048  11.329   1.708
 1864SOL    HW2 7425  10.040  11.349   1.858
 1865SOL     OW 7426   8.237   4.727  10.576
 1865SOL    HW1 7427   8.302   4.659  10.593
 1865SOL    HW2 7428   8.256   4.757  10.487
 1866SOL     OW 7429   2.621  10.086  14.706
 1866SOL    HW1 7430   2.592  10.115  14.793
 1866SOL    HW2 7431   2.552  10.118  14.647
 1867SOL     OW 7432   2.019   2.402   1.977
 1867SOL    HW1 7433   2.002   2.308   1.969
 1867SOL    HW2 7434   2.086   2.419   1.910
 1868SOL     OW 7435   9.490   1.486   2.437
 1868SOL    HW1 7436   9.579   1.481   2.402
 1868SOL    HW2 7437   9.502   1.490   2.532
 1869SOL     OW 7438  10.312   9.802  13.026
 1869SOL    HW1 7439  10.230   9.850  13.007
 1869SOL    HW2 7440  10.381   9.861  12.995
 1870SOL     OW 7441  13.120   0.755  11.174
 1870SOL    HW1 7442  13.175   0.811  11.120
 1870SOL    HW2 7443  13.178   0.687  11.206
 1871SOL     OW 7444  13.541  10.086  11.129
 1871SOL    HW1 7445  13.583  10.151  11.072
 1871SOL    HW2 7446  13.537  10.129  11.215
 1872SOL     OW 7447  14.022   5.853   9.783
 1872SOL    HW1 7448  13.950   5.878   9.726
 1872SOL    HW2 7449  14.036   5.760   9.765
 1873SOL     OW 7450  10.399   7.646   1.114
 1873SOL    HW1 7451  10.492   7.651   1.136
 1873SOL    HW2 7452  10.396   7.607   1.027
 1874SOL     OW 7453   2.811  10.780   8.653
 1874SOL    HW1 7454   2.843  10.726   8.725
 1874SOL    HW2 7455   2.773  10.717   8.591
 1875SOL     OW 7456  13.568  11.913   7.847
 1875SOL    HW1 7457  13.603  11.858   7.777
 1875SOL    HW2 7458  13.565  12.001   7.808
 1876SOL     OW 7459  11.079  13.525   9.497
 1876SOL    HW1 7460  11.169  13.556   9.511
 1876SOL    HW2 7461  11.045  13.583   9.429
 1877SOL     OW 7462  12.948   3.190   0.220
 1877SOL    HW1 7463  12.942   3.237   0.137
 1877SOL    HW2 7464  13.009   3.241   0.273
 1878SOL     OW 7465   2.377   6.189  11.625
 1878SOL    HW1 7466   2.340   6.151  11.545
 1878SOL    HW2 7467   2.466   6.155  11.628
 1879SOL     OW 7468   7.238   4.530   5.409
 1879SOL    HW1 7469   7.276   4.618   5.408
 1879SOL    HW2 7470   7.228   4.508   5.316
 1880SOL     OW 7471   8.577  10.285   2.457
 1880SOL    HW1 7472   8.627  10.367   2.458
 1880SOL    HW2 7473   8.493  10.309   2.417
 1881SOL     OW 7474   8.258   1.351   3.250
 1881SOL    HW1 7475   8.270   1.426   3.192
 1881SOL    HW2 7476   8.217   1.284   3.196
 1882SOL     OW 7477   5.736  11.496   6.997
 1882SOL    HW1 7478   5.831  11.495   7.008
 1882SOL    HW2 7479   5.702  11.470   7.082
 1883SOL     OW 7480  13.866   7.286   8.205
 1883SOL    HW1 7481  13.873   7.232   8.126
 1883SOL    HW2 7482  13.940   7.347   8.199
 1884SOL     OW 7483   7.966   5.518   2.723
 1884SOL    HW1 7484   8.054   5.550   2.745
 1884SOL    HW2 7485   7.934   5.480   2.804
 1885SOL     OW 7486   6.639  12.266  10.631
 1885SOL    HW1 7487   6.553  12.273  10.589
 1885SOL    HW2 7488   6.627  12.306  10.717
 1886SOL     OW 7489  12.268   0.347   1.358
 1886SOL    HW1 7490  12.232   0.259   1.351
 1886SOL    HW2 7491  12.321   0.346   1.438
 1887SOL     OW 7492   7.620  13.313   9.484
 1887SOL    HW1 7493   7.540  13.265   9.464
 1887SOL    HW2 7494   7.682  13.246   9.511
 1888SOL     OW 7495  12.217  12.669  11.704
 1888SOL    HW1 7496  12.240  12.677  11.796
 1888SOL    HW2 7497  12.251  12.584  11.678
 1889SOL     OW 7498   6.905  12.334   8.153
 1889SOL    HW1 7499   6.996  12.360   8.145
 1889SOL    HW2 7500   6.874  12.329   8.062
 1890SOL     OW 7501   3.648   2.548  11.772
 1890SOL    HW1 7502   3.635   2.491  11.696
 1890SOL    HW2 7503   3.674   2.489  11.842
 1891SOL     OW 7504  13.092   7.961   8.242
 1891SOL    HW1 7505  13.077   7.867   8.251
 1891SOL    HW2 7506  13.011   8.001   8.274
 1892SOL     OW 7507   2.467   0.867   6.386
 1892SOL    HW1 7508   2.375   0.849   6.368
 1892SOL    HW2 7509   2.468   0.959   6.415
 1893SOL     OW 7510  11.599  10.555  14.866
 1893SOL    HW1 7511  11.512  10.594  14.877
 1893SOL    HW2 7512  11.649  10.588   0.059
 1894SOL     OW 7513   2.093   9.410  10.608
 1894SOL    HW1 7514   2.091   9.443  10.698
 1894SOL    HW2 7515   2.063   9.484  10.555
 1895SOL     OW 7516   8.161  12.976   2.953
 1895SOL    HW1 7517   8.239  13.002   3.003
 1895SOL    HW2 7518   8.137  12.891   2.989
 1896SOL     OW 7519   7.725  11.716   2.997
 1896SOL    HW1 7520   7.818  11.708   3.018
 1896SOL    HW2 7521   7.681  11.702   3.081
 1897SOL     OW 7522   6.882  14.656   0.893
 1897SOL    HW1 7523   6.828  14.686   0.820
 1897SOL    HW2 7524   6.956  14.610   0.852
 1898SOL     OW 7525  13.555   8.635   6.126
 1898SOL    HW1 7526  13.562   8.674   6.213
 1898SOL    HW2 7527  13.519   8.705   6.071
 1899SOL     OW 7528   8.279   1.098   9.648
 1899SOL    HW1 7529   8.324   1.022   9.686
 1899SOL    HW2 7530   8.189   1.091   9.679
 1900SOL     OW 7531   2.122  10.385   7.567
 1900SOL    HW1 7532   2.041  10.365   7.520
 1900SOL    HW2 7533   2.165  10.451   7.513
 1901SOL     OW 7534   0.336  11.742   5.308
 1901SOL    HW1 7535   0.428  11.765   5.294
 1901SOL    HW2 7536   0.295  11.754   5.222
 1902SOL     OW 7537  12.590  14.190  10.025
 1902SOL    HW1 7538  12.518  14.132  10.051
 1902SOL    HW2 7539  12.651  14.186  10.099
 1903SOL     OW 7540  12.814  10.952  10.581
 1903SOL    HW1 7541  12.865  10.871  10.585
 1903SOL    HW2 7542  12.751  10.944  10.652
 1904SOL     OW 7543   6.321   2.622   9.034
 1904SOL    HW1 7544   6.258   2.579   8.976
 1904SOL    HW2 7545   6.392   2.651   8.976
 1905SOL     OW 7546   9.009   4.016  11.519
 1905SOL    HW1 7547   8.978   3.937  11.475
 1905SOL    HW2 7548   9.064   3.983  11.590
 1906SOL     OW 7549  14.266   7.654  13.587
 1906SOL    HW1 7550  14.178   7.626  13.559
 1906SOL    HW2 7551  14.254   7.743  13.620
 1907SOL     OW 7552   1.885   4.311   2.566
 1907SOL    HW1 7553   1.820   4.249   2.533
 1907SOL    HW2 7554   1.903   4.369   2.492
 1908SOL     OW 7555   7.829  13.067   4.691
 1908SOL    HW1 7556   7.861  12.982   4.719
 1908SOL    HW2 7557   7.814  13.115   4.773
 1909SOL     OW 7558  12.576  13.820   2.385
 1909SOL    HW1 7559  12.506  13.854   2.329
 1909SOL    HW2 7560  12.554  13.727   2.397
 1910SOL     OW 7561   3.335  11.221  10.782
 1910SOL    HW1 7562   3.321  11.126  10.790
 1910SOL    HW2 7563   3.319  11.256  10.869
 1911SOL     OW 7564   0.762   8.379   9.831
 1911SOL    HW1 7565   0.724   8.337   9.908
 1911SOL    HW2 7566   0.857   8.381   9.849
 1912SOL     OW 7567   6.515   2.141   4.322
 1912SOL    HW1 7568   6.572   2.072   4.289
 1912SOL    HW2 7569   6.430   2.123   4.284
 1913SOL     OW 7570  10.746   7.803  14.493
 1913SOL    HW1 7571  10.842   7.805  14.487
 1913SOL    HW2 7572  10.721   7.723  14.446
 1914SOL     OW 7573  14.543   7.636  14.839
 1914SOL    HW1 7574  14.458   7.675  14.859
 1914SOL    HW2 7575  14.564   7.666  14.750
 1915SOL     OW 7576   4.999   2.967   8.855
 1915SOL    HW1 7577   4.956   2.948   8.771
 1915SOL    HW2 7578   5.066   2.900   8.864
 1916SOL     OW 7579   9.522  10.111   2.266
 1916SOL    HW1 7580   9.474  10.034   2.234
 1916SOL    HW2 7581   9.543  10.089   2.357
 1917SOL     OW 7582   2.618   9.365  12.979
 1917SOL    HW1 7583   2.523   9.380  12.984
 1917SOL    HW2 7584   2.635   9.353  12.885
 1918SOL     OW 7585   7.026   3.537   6.023
 1918SOL    HW1 7586   7.076   3.464   6.059
 1918SOL    HW2 7587   6.945   3.538   6.075
 1919SOL     OW 7588   7.767   5.377   9.044
 1919SOL    HW1 7589   7.745   5.466   9.070
 1919SOL    HW2 7590   7.802   5.336   9.124
 1920SOL     OW 7591   2.075  13.646  11.577
 1920SOL    HW1 7592   1.996  13.638  11.523
 1920SOL    HW2 7593   2.140  13.687  11.519
 1921SOL     OW 7594  10.556   4.604   8.202
 1921SOL    HW1 7595  10.594   4.677   8.250
 1921SOL    HW2 7596  10.463   4.608   8.221
 1922SOL     OW 7597  12.176   5.887  14.548
 1922SOL    HW1 7598  12.141   5.820  14.489
 1922SOL    HW2 7599  12.230   5.838  14.610
 1923SOL     OW 7600   6.725   9.494   8.015
 1923SOL    HW1 7601   6.798   9.492   7.953
 1923SOL    HW2 7602   6.695   9.403   8.020
 1924SOL     OW 7603   2.695   1.953   5.426
 1924SOL    HW1 7604   2.611   1.909   5.436
 1924SOL    HW2 7605   2.760   1.885   5.441
 1925SOL     OW 7606   6.535   3.445  12.521
 1925SOL    HW1 7607   6.518   3.453  12.614
 1925SOL    HW2 7608   6.459   3.399  12.486
 1926SOL     OW 7609  13.287   8.981  13.366
 1926SOL    HW1 7610  13.308   8.888  13.368
 1926SOL    HW2 7611  13.221   8.992  13.435
 1927SOL     OW 7612   6.584  13.505  14.690
 1927SOL    HW1 7613   6.675  13.478  14.685
 1927SOL    HW2 7614   6.557  13.516  14.599
 1928SOL     OW 7615   7.729   1.583  14.545
 1928SOL    HW1 7616   7.743   1.498  14.504
 1928SOL    HW2 7617   7.666   1.627  14.488
 1929SOL     OW 7618   9.130   3.199   0.351
 1929SOL    HW1 7619   9.093   3.196   0.263
 1929SOL    HW2 7620   9.224   3.208   0.336
 1930SOL     OW 7621   8.710   8.529  12.055
 1930SOL    HW1 7622   8.717   8.500  12.146
 1930SOL    HW2 7623   8.798   8.558  12.033
 1931SOL     OW 7624   8.552   5.490   2.019
 1931SOL    HW1 7625   8.554   5.564   2.080
 1931SOL    HW2 7626   8.526   5.415   2.072
 1932SOL     OW 7627  13.287   1.030   9.184
 1932SOL    HW1 7628  13.328   1.013   9.269
 1932SOL    HW2 7629  13.226   0.956   9.172
 1933SOL     OW 7630   1.581   4.509   4.638
 1933SOL    HW1 7631   1.584   4.507   4.543
 1933SOL    HW2 7632   1.608   4.421   4.666
 1934SOL     OW 7633   8.477   8.511   1.452
 1934SOL    HW1 7634   8.441   8.453   1.520
 1934SOL    HW2 7635   8.407   8.521   1.389
 1935SOL     OW 7636   5.861  11.326  10.412
 1935SOL    HW1 7637   5.884  11.377  10.334
 1935SOL    HW2 7638   5.859  11.391  10.483
 1936SOL     OW 7639   4.331   2.862  14.360
 1936SOL    HW1 7640   4.335   2.799  14.432
 1936SOL    HW2 7641   4.351   2.946  14.401
 1937SOL     OW 7642   7.468   7.949   0.316
 1937SOL    HW1 7643   7.416   7.906   0.248
 1937SOL    HW2 7644   7.460   8.042   0.298
 1938SOL     OW 7645  11.928  10.465  13.885
 1938SOL    HW1 7646  12.004  10.410  13.863
 1938SOL    HW2 7647  11.901  10.503  13.801
 1939SOL     OW 7648   7.341  12.051   7.431
 1939SOL    HW1 7649   7.307  12.141   7.434
 1939SOL    HW2 7650   7.356  12.034   7.339
 1940SOL     OW 7651   1.084   6.928   0.010
 1940SOL    HW1 7652   1.089   6.848  14.841
 1940SOL    HW2 7653   1.118   6.997  14.834
 1941SOL     OW 7654   2.821  14.469  11.669
 1941SOL    HW1 7655   2.746  14.419  11.637
 1941SOL    HW2 7656   2.829  14.542  11.607
 1942SOL     OW 7657  11.206  13.331   2.888
 1942SOL    HW1 7658  11.170  13.261   2.834
 1942SOL    HW2 7659  11.134  13.354   2.948
 1943SOL     OW 7660   8.035  14.269   7.573
 1943SOL    HW1 7661   7.942  14.289   7.573
 1943SOL    HW2 7662   8.078  14.355   7.573
 1944SOL     OW 7663   9.339   9.705  12.483
 1944SOL    HW1 7664   9.425   9.740  12.459
 1944SOL    HW2 7665   9.278   9.774  12.458
 1945SOL     OW 7666   3.647  12.855   5.225
 1945SOL    HW1 7667   3.605  12.889   5.304
 1945SOL    HW2 7668   3.580  12.800   5.185
 1946SOL     OW 7669   9.704  12.890   4.463
 1946SOL    HW1 7670   9.779  12.834   4.478
 1946SOL    HW2 7671   9.655  12.847   4.393
 1947SOL     OW 7672   1.121   1.913   5.744
 1947SOL    HW1 7673   1.177   1.875   5.677
 1947SOL    HW2 7674   1.109   1.844   5.809
 1948SOL     OW 7675   8.573  14.603   0.538
 1948SOL    HW1 7676   8.583  14.604   0.633
 1948SOL    HW2 7677   8.576  14.510   0.515
 1949SOL     OW 7678   7.018   1.047   2.151
 1949SOL    HW1 7679   7.075   1.119   2.178
 1949SOL    HW2 7680   7.021   1.048   2.056
 1950SOL     OW 7681   6.556   9.731  14.277
 1950SOL    HW1 7682   6.543   9.716  14.184
 1950SOL    HW2 7683   6.533   9.823  14.291
 1951SOL     OW 7684   6.459  11.311  12.179
 1951SOL    HW1 7685   6.383  11.331  12.234
 1951SOL    HW2 7686   6.437  11.227  12.138
 1952SOL     OW 7687   5.119   8.057   2.943
 1952SOL    HW1 7688   5.089   8.026   2.858
 1952SOL    HW2 7689   5.159   7.981   2.984
 1953SOL     OW 7690  13.537   3.473   0.940
 1953SOL    HW1 7691  13.450   3.440   0.916
 1953SOL    HW2 7692  13.572   3.407   1.000
 1954SOL     OW 7693  12.714   8.543   7.915
 1954SOL    HW1 7694  12.620   8.562   7.921
 1954SOL    HW2 7695  12.736   8.558   7.823
 1955SOL     OW 7696   9.294   5.614   3.422
 1955SOL    HW1 7697   9.319   5.635   3.512
 1955SOL    HW2 7698   9.264   5.697   3.386
 1956SOL     OW 7699  11.905  10.085  10.547
 1956SOL    HW1 7700  11.811  10.105  10.555
 1956SOL    HW2 7701  11.909  10.024  10.473
 1957SOL     OW 7702   3.362  12.047  13.300
 1957SOL    HW1 7703   3.378  11.974  13.240
 1957SOL    HW2 7704   3.346  12.005  13.385
 1958SOL     OW 7705   9.101   0.934   2.801
 1958SOL    HW1 7706   9.026   0.965   2.749
 1958SOL    HW2 7707   9.108   0.997   2.873
 1959SOL     OW 7708   0.330  14.658   0.818
 1959SOL    HW1 7709   0.371  14.731   0.772
 1959SOL    HW2 7710   0.382  14.581   0.792
 1960SOL     OW 7711   9.946   9.167   4.137
 1960SOL    HW1 7712   9.897   9.250   4.131
 1960SOL    HW2 7713   9.886   9.101   4.102
 1961SOL     OW 7714   5.880   6.823  13.880
 1961SOL    HW1 7715   5.862   6.904  13.831
 1961SOL    HW2 7716   5.909   6.853  13.966
 1962SOL     OW 7717   7.396   0.779   7.276
 1962SOL    HW1 7718   7.425   0.705   7.223
 1962SOL    HW2 7719   7.435   0.856   7.233
 1963SOL     OW 7720   3.985  13.094   5.110
 1963SOL    HW1 7721   3.944  13.170   5.152
 1963SOL    HW2 7722   4.076  13.098   5.139
 1964SOL     OW 7723   0.413   9.407   8.350
 1964SOL    HW1 7724   0.407   9.380   8.258
 1964SOL    HW2 7725   0.412   9.502   8.348
 1965SOL     OW 7726   7.534   5.654   9.769
 1965SOL    HW1 7727   7.597   5.603   9.819
 1965SOL    HW2 7728   7.571   5.660   9.681
 1966SOL     OW 7729   2.639   3.205  10.805
 1966SOL    HW1 7730   2.665   3.158  10.885
 1966SOL    HW2 7731   2.722   3.232  10.766
 1967SOL     OW 7732  10.052   4.920   3.863
 1967SOL    HW1 7733   9.979   4.980   3.876
 1967SOL    HW2 7734  10.126   4.977   3.841
 1968SOL     OW 7735  12.550   0.806   7.447
 1968SOL    HW1 7736  12.508   0.869   7.389
 1968SOL    HW2 7737  12.501   0.811   7.528
 1969SOL     OW 7738   6.349   8.093   4.182
 1969SOL    HW1 7739   6.281   8.145   4.138
 1969SOL    HW2 7740   6.309   8.068   4.265
 1970SOL     OW 7741   3.163   6.597   6.627
 1970SOL    HW1 7742   3.214   6.524   6.661
 1970SOL    HW2 7743   3.170   6.590   6.532
 1971SOL     OW 7744   6.737   2.246   7.353
 1971SOL    HW1 7745   6.647   2.246   7.383
 1971SOL    HW2 7746   6.748   2.163   7.306
 1972SOL     OW 7747  12.187   2.466   5.040
 1972SOL    HW1 7748  12.209   2.521   5.115
 1972SOL    HW2 7749  12.268   2.461   4.990
 1973SOL     OW 7750  11.085   4.862   7.923
 1973SOL    HW1 7751  11.049   4.879   7.836
 1973SOL    HW2 7752  11.138   4.783   7.911
 1974SOL     OW 7753  10.782   6.227   6.178
 1974SOL    HW1 7754  10.760   6.286   6.107
 1974SOL    HW2 7755  10.739   6.144   6.155
 1975SOL     OW 7756   3.312  14.120   9.601
 1975SOL    HW1 7757   3.369  14.189   9.637
 1975SOL    HW2 7758   3.369  14.044   9.594
 1976SOL     OW 7759   5.647  11.132  11.166
 1976SOL    HW1 7760   5.713  11.063  11.172
 1976SOL    HW2 7761   5.667  11.191  11.239
 1977SOL     OW 7762   0.192   0.345   4.824
 1977SOL    HW1 7763   0.137   0.285   4.875
 1977SOL    HW2 7764   0.240   0.394   4.890
 1978SOL     OW 7765   2.619   3.603   7.192
 1978SOL    HW1 7766   2.528   3.585   7.169
 1978SOL    HW2 7767   2.621   3.601   7.287
 1979SOL     OW 7768   9.706   7.629   0.762
 1979SOL    HW1 7769   9.707   7.713   0.808
 1979SOL    HW2 7770   9.792   7.622   0.721
 1980SOL     OW 7771   5.622  14.669   4.254
 1980SOL    HW1 7772   5.546  14.722   4.274
 1980SOL    HW2 7773   5.587  14.590   4.212
 1981SOL     OW 7774  10.232  13.972   9.749
 1981SOL    HW1 7775  10.222  14.067   9.747
 1981SOL    HW2 7776  10.285  13.951   9.673
 1982SOL     OW 7777   6.109  13.992  14.335
 1982SOL    HW1 7778   6.104  13.922  14.270
 1982SOL    HW2 7779   6.104  14.073  14.284
 1983SOL     OW 7780   5.903  14.820   3.163
 1983SOL    HW1 7781   5.953  14.738   3.159
 1983SOL    HW2 7782   5.886  14.833   3.256
 1984SOL     OW 7783   9.015  13.741   6.674
 1984SOL    HW1 7784   8.984  13.817   6.623
 1984SOL    HW2 7785   8.999  13.766   6.765
 1985SOL     OW 7786   4.908  10.496  14.767
 1985SOL    HW1 7787   4.952  10.414  14.790
 1985SOL    HW2 7788   4.903  10.544  14.850
 1986SOL     OW 7789  12.758   5.054   5.303
 1986SOL    HW1 7790  12.740   5.147   5.314
 1986SOL    HW2 7791  12.698   5.026   5.234
 1987SOL     OW 7792   0.857   3.168   1.611
 1987SOL    HW1 7793   0.832   3.230   1.543
 1987SOL    HW2 7794   0.803   3.192   1.686
 1988SOL     OW 7795  13.156   9.420  13.674
 1988SOL    HW1 7796  13.142   9.369  13.754
 1988SOL    HW2 7797  13.087   9.487  13.676
 1989SOL     OW 7798  12.734   9.494  13.270
 1989SOL    HW1 7799  12.798   9.554  13.231
 1989SOL    HW2 7800  12.783   9.447  13.337
 1990SOL     OW 7801  12.502   4.432  12.354
 1990SOL    HW1 7802  12.441   4.425  12.427
 1990SOL    HW2 7803  12.446   4.442  12.277
 1991SOL     OW 7804   3.374   0.577   1.605
 1991SOL    HW1 7805   3.288   0.549   1.638
 1991SOL    HW2 7806   3.366   0.672   1.597
 1992SOL     OW 7807   2.086   5.718  12.190
 1992SOL    HW1 7808   2.007   5.705  12.243
 1992SOL    HW2 7809   2.076   5.806  12.153
 1993SOL     OW 7810  12.828  12.432  10.713
 1993SOL    HW1 7811  12.765  12.410  10.781
 1993SOL    HW2 7812  12.911  12.445  10.761
 1994SOL     OW 7813  14.229   0.638   4.452
 1994SOL    HW1 7814  14.273   0.573   4.507
 1994SOL    HW2 7815  14.298   0.699   4.427
 1995SOL     OW 7816   2.723   6.968  12.323
 1995SOL    HW1 7817   2.798   6.979  12.381
 1995SOL    HW2 7818   2.650   7.011  12.370
 1996SOL     OW 7819   4.815   3.086   3.490
 1996SOL    HW1 7820   4.780   3.172   3.515
 1996SOL    HW2 7821   4.897   3.079   3.539
 1997SOL     OW 7822  10.035  10.286  10.473
 1997SOL    HW1 7823   9.991  10.343  10.537
 1997SOL    HW2 7824  10.039  10.339  10.393
 1998SOL     OW 7825   4.081   8.864   6.193
 1998SOL    HW1 7826   4.030   8.905   6.123
 1998SOL    HW2 7827   4.171   8.891   6.175
 1999SOL     OW 7828  10.149   7.109   6.259
 1999SOL    HW1 7829  10.221   7.076   6.313
 1999SOL    HW2 7830  10.156   7.059   6.177
 2000SOL     OW 7831   3.688  11.546  14.094
 2000SOL    HW1 7832   3.630  11.556  14.170
 2000SOL    HW2 7833   3.671  11.457  14.063
 2001SOL     OW 7834   6.074   0.303  12.370
 2001SOL    HW1 7835   6.023   0.228  12.402
 2001SOL    HW2 7836   6.008   0.361  12.331
 2002SOL     OW 7837   8.821   7.254   7.765
 2002SOL    HW1 7838   8.732   7.249   7.729
 2002SOL    HW2 7839   8.847   7.163   7.779
 2003SOL     OW 7840   6.321  12.385   9.509
 2003SOL    HW1 7841   6.386  12.422   9.451
 2003SOL    HW2 7842   6.288  12.460   9.559
 2004SOL     OW 7843   6.768   9.893  12.255
 2004SOL    HW1 7844   6.782   9.987  12.246
 2004SOL    HW2 7845   6.678   9.884  12.286
 2005SOL     OW 7846  12.093   6.060  12.636
 2005SOL    HW1 7847  12.079   5.972  12.602
 2005SOL    HW2 7848  12.140   6.105  12.565
 2006SOL     OW 7849   2.462   6.137   1.012
 2006SOL    HW1 7850   2.531   6.072   1.025
 2006SOL    HW2 7851   2.382   6.085   1.002
 2007SOL     OW 7852  14.654  11.230  12.168
 2007SOL    HW1 7853  14.589  11.163  12.149
 2007SOL    HW2 7854  14.732  11.202  12.120
 2008SOL     OW 7855   7.849   4.674  10.843
 2008SOL    HW1 7856   7.766   4.628  10.860
 2008SOL    HW2 7857   7.909   4.604  10.813
 2009SOL     OW 7858  13.929   6.495   7.738
 2009SOL    HW1 7859  13.868   6.547   7.685
 2009SOL    HW2 7860  14.016   6.522   7.707
 2010SOL     OW 7861   1.733   2.628   1.537
 2010SOL    HW1 7862   1.664   2.646   1.473
 2010SOL    HW2 7863   1.686   2.622   1.621
 2011SOL     OW 7864   3.234   8.874   7.541
 2011SOL    HW1 7865   3.203   8.923   7.465
 2011SOL    HW2 7866   3.170   8.803   7.552
 2012SOL     OW 7867  11.571  10.330   4.418
 2012SOL    HW1 7868  11.561  10.310   4.325
 2012SOL    HW2 7869  11.491  10.378   4.441
 2013SOL     OW 7870  10.086  14.574  11.888
 2013SOL    HW1 7871  10.104  14.666  11.908
 2013SOL    HW2 7872   9.992  14.573  11.867
 2014SOL     OW 7873   7.563  11.645  13.695
 2014SOL    HW1 7874   7.496  11.699  13.738
 2014SOL    HW2 7875   7.645  11.692  13.709
 2015SOL     OW 7876   2.657   9.136   3.107
 2015SOL    HW1 7877   2.747   9.116   3.135
 2015SOL    HW2 7878   2.648   9.092   3.023
 2016SOL     OW 7879   9.556   7.668  13.914
 2016SOL    HW1 7880   9.551   7.634  14.003
 2016SOL    HW2 7881   9.648   7.693  13.903
 2017SOL     OW 7882  11.301   0.412   0.267
 2017SOL    HW1 7883  11.298   0.332   0.319
 2017SOL    HW2 7884  11.331   0.479   0.328
 2018SOL     OW 7885  12.946   2.537   0.786
 2018SOL    HW1 7886  12.856   2.545   0.819
 2018SOL    HW2 7887  12.987   2.621   0.807
 2019SOL     OW 7888  11.808   2.388   5.549
 2019SOL    HW1 7889  11.726   2.368   5.593
 2019SOL    HW2 7890  11.794   2.361   5.458
 2020SOL     OW 7891   1.572   3.637   5.828
 2020SOL    HW1 7892   1.646   3.609   5.773
 2020SOL    HW2 7893   1.605   3.629   5.917
 2021SOL     OW 7894  11.849  10.499  11.077
 2021SOL    HW1 7895  11.755  10.486  11.094
 2021SOL    HW2 7896  11.860  10.594  11.075
 2022SOL     OW 7897   4.950   8.448   8.417
 2022SOL    HW1 7898   5.021   8.417   8.473
 2022SOL    HW2 7899   4.872   8.404   8.450
 2023SOL     OW 7900   9.502   0.374  10.439
 2023SOL    HW1 7901   9.441   0.441  10.468
 2023SOL    HW2 7902   9.587   0.418  10.437
 2024SOL     OW 7903   3.623   2.099   8.132
 2024SOL    HW1 7904   3.627   2.072   8.040
 2024SOL    HW2 7905   3.530   2.093   8.154
 2025SOL     OW 7906   0.677  14.584   7.905
 2025SOL    HW1 7907   0.763  14.549   7.928
 2025SOL    HW2 7908   0.671  14.667   7.952
 2026SOL     OW 7909   8.657   7.088  10.838
 2026SOL    HW1 7910   8.634   7.139  10.760
 2026SOL    HW2 7911   8.696   7.008  10.802
 2027SOL     OW 7912   1.745   1.924  14.035
 2027SOL    HW1 7913   1.837   1.896  14.030
 2027SOL    HW2 7914   1.750   2.019  14.043
 2028SOL     OW 7915   2.648   6.988  13.036
 2028SOL    HW1 7916   2.643   7.034  12.952
 2028SOL    HW2 7917   2.650   6.895  13.013
 2029SOL     OW 7918  12.496  11.697   8.645
 2029SOL    HW1 7919  12.453  11.706   8.560
 2029SOL    HW2 7920  12.438  11.641   8.696
 2030SOL     OW 7921  13.264   0.215   0.213
 2030SOL    HW1 7922  13.282   0.128   0.249
 2030SOL    HW2 7923  13.351   0.253   0.198
 2031SOL     OW 7924  14.088   4.951   7.862
 2031SOL    HW1 7925  14.140   5.029   7.841
 2031SOL    HW2 7926  14.033   4.979   7.936
 2032SOL     OW 7927   6.090   0.276   6.673
 2032SOL    HW1 7928   6.021   0.215   6.698
 2032SOL    HW2 7929   6.043   0.355   6.645
 2033SOL     OW 7930   9.376  11.435   9.296
 2033SOL    HW1 7931   9.463  11.475   9.299
 2033SOL    HW2 7932   9.322  11.500   9.251
 2034SOL     OW 7933  10.506   3.693   8.586
 2034SOL    HW1 7934  10.478   3.676   8.676
 2034SOL    HW2 7935  10.538   3.609   8.554
 2035SOL     OW 7936   3.157  13.408  12.046
 2035SOL    HW1 7937   3.206  13.326  12.040
 2035SOL    HW2 7938   3.108  13.413  11.964
 2036SOL     OW 7939   9.005  10.836  12.598
 2036SOL    HW1 7940   9.080  10.795  12.640
 2036SOL    HW2 7941   8.935  10.832  12.663
 2037SOL     OW 7942  12.180   4.911   1.435
 2037SOL    HW1 7943  12.244   4.973   1.399
 2037SOL    HW2 7944  12.188   4.833   1.379
 2038SOL     OW 7945   0.458   4.570   8.028
 2038SOL    HW1 7946   0.460   4.491   7.975
 2038SOL    HW2 7947   0.543   4.572   8.072
 2039SOL     OW 7948   5.136   5.319   5.313
 2039SOL    HW1 7949   5.084   5.363   5.380
 2039SOL    HW2 7950   5.186   5.253   5.360
 2040SOL     OW 7951  12.250   3.265   7.898
 2040SOL    HW1 7952  12.203   3.277   7.981
 2040SOL    HW2 7953  12.211   3.186   7.860
 2041SOL     OW 7954  12.038   9.851   9.234
 2041SOL    HW1 7955  12.033   9.940   9.267
 2041SOL    HW2 7956  12.056   9.797   9.311
 2042SOL     OW 7957   5.884  11.998  11.764
 2042SOL    HW1 7958   5.852  11.916  11.803
 2042SOL    HW2 7959   5.850  11.996  11.675
 2043SOL     OW 7960   8.289  12.582   6.698
 2043SOL    HW1 7961   8.370  12.631   6.712
 2043SOL    HW2 7962   8.317  12.491   6.692
 2044SOL     OW 7963   7.659   1.089   1.187
 2044SOL    HW1 7964   7.649   1.173   1.142
 2044SOL    HW2 7965   7.660   1.024   1.118
 2045SOL     OW 7966  11.100   2.700   6.919
 2045SOL    HW1 7967  11.101   2.666   6.829
 2045SOL    HW2 7968  11.192   2.699   6.945
 2046SOL     OW 7969   1.329   7.741   1.414
 2046SOL    HW1 7970   1.266   7.669   1.403
 2046SOL    HW2 7971   1.298   7.787   1.492
 2047SOL     OW 7972   4.689   7.320   8.500
 2047SOL    HW1 7973   4.628   7.251   8.527
 2047SOL    HW2 7974   4.662   7.396   8.550
 2048SOL     OW 7975   7.143  13.991   1.492
 2048SOL    HW1 7976   7.156  14.050   1.566
 2048SOL    HW2 7977   7.082  14.038   1.434
 2049SOL     OW 7978   7.488   0.055  12.281
 2049SOL    HW1 7979   7.515   0.015  12.199
 2049SOL    HW2 7980   7.412   0.004  12.309
 2050SOL     OW 7981   5.971  14.709   2.307
 2050SOL    HW1 7982   6.032  14.776   2.274
 2050SOL    HW2 7983   6.025  14.631   2.320
 2051SOL     OW 7984   5.003  10.246   1.156
 2051SOL    HW1 7985   5.019  10.222   1.247
 2051SOL    HW2 7986   5.059  10.188   1.105
 2052SOL     OW 7987   1.708   8.515   9.073
 2052SOL    HW1 7988   1.634   8.528   9.132
 2052SOL    HW2 7989   1.764   8.452   9.118
 2053SOL     OW 7990   7.599  12.919   3.750
 2053SOL    HW1 7991   7.515  12.883   3.723
 2053SOL    HW2 7992   7.590  12.935   3.844
 2054SOL     OW 7993   6.609   2.452   3.558
 2054SOL    HW1 7994   6.679   2.402   3.601
 2054SOL    HW2 7995   6.591   2.524   3.619
 2055SOL     OW 7996   8.420  11.799  13.195
 2055SOL    HW1 7997   8.410  11.882  13.148
 2055SOL    HW2 7998   8.456  11.739  13.130
 2056SOL     OW 7999   3.957   3.994   6.628
 2056SOL    HW1 8000   3.961   4.076   6.577
 2056SOL    HW2 8001   4.004   4.014   6.709
 2057SOL     OW 8002   6.717   2.782  12.602
 2057SOL    HW1 8003   6.742   2.872  12.623
 2057SOL    HW2 8004   6.711   2.738  12.687
 2058SOL     OW 8005   2.760   3.537   0.951
 2058SOL    HW1 8006   2.712   3.457   0.928
 2058SOL    HW2 8007   2.851   3.510   0.955
 2059SOL     OW 8008   3.003  12.879   8.212
 2059SOL    HW1 8009   3.000  12.936   8.135
 2059SOL    HW2 8010   2.941  12.808   8.192
 2060SOL     OW 8011   7.650   2.132   5.575
 2060SOL    HW1 8012   7.679   2.119   5.666
 2060SOL    HW2 8013   7.556   2.149   5.582
 2061SOL     OW 8014   2.653  11.783   1.485
 2061SOL    HW1 8015   2.572  11.820   1.449
 2061SOL    HW2 8016   2.721  11.842   1.454
 2062SOL     OW 8017   8.711   0.908   5.913
 2062SOL    HW1 8018   8.653   0.972   5.954
 2062SOL    HW2 8019   8.729   0.845   5.982
 2063SOL     OW 8020   6.922   4.094  11.117
 2063SOL    HW1 8021   6.984   4.024  11.094
 2063SOL    HW2 8022   6.908   4.084  11.211
 2064SOL     OW 8023   0.814  10.934   4.905
 2064SOL    HW1 8024   0.771  10.878   4.970
 2064SOL    HW2 8025   0.795  11.023   4.935
 2065SOL     OW 8026   4.338   3.258   4.821
 2065SOL    HW1 8027   4.329   3.347   4.856
 2065SOL    HW2 8028   4.413   3.263   4.762
 2066SOL     OW 8029   7.610   5.016  13.696
 2066SOL    HW1 8030   7.586   4.926  13.676
 2066SOL    HW2 8031   7.532   5.067  13.676
 2067SOL     OW 8032  10.945   3.196   6.601
 2067SOL    HW1 8033  10.864   3.155   6.570
 2067SOL    HW2 8034  10.920   3.238   6.683
 2068SOL     OW 8035   9.664   8.725   6.469
 2068SOL    HW1 8036   9.646   8.776   6.548
 2068SOL    HW2 8037   9.637   8.783   6.397
 2069SOL     OW 8038  14.030   7.079   7.724
 2069SOL    HW1 8039  14.106   7.042   7.679
 2069SOL    HW2 8040  14.013   7.161   7.679
 2070SOL     OW 8041  12.256   3.812  10.286
 2070SOL    HW1 8042  12.290   3.842  10.202
 2070SOL    HW2 8043  12.285   3.878  10.349
 2071SOL     OW 8044   8.703  13.795   8.135
 2071SOL    HW1 8045   8.634  13.806   8.200
 2071SOL    HW2 8046   8.758  13.725   8.170
 2072SOL     OW 8047  11.742   6.952   7.216
 2072SOL    HW1 8048  11.787   6.947   7.301
 2072SOL    HW2 8049  11.727   7.046   7.203
 2073SOL     OW 8050   7.572   4.255   3.000
 2073SOL    HW1 8051   7.641   4.216   3.053
 2073SOL    HW2 8052   7.567   4.200   2.922
 2074SOL     OW 8053  13.132   0.664  11.643
 2074SOL    HW1 8054  13.068   0.735  11.649
 2074SOL    HW2 8055  13.079   0.585  11.641
 2075SOL     OW 8056   8.953  11.994   5.146
 2075SOL    HW1 8057   8.929  12.028   5.059
 2075SOL    HW2 8058   8.879  12.018   5.202
 2076SOL     OW 8059  14.332  12.740   3.952
 2076SOL    HW1 8060  14.296  12.699   3.873
 2076SOL    HW2 8061  14.362  12.826   3.923
 2077SOL     OW 8062  14.838  10.795  12.788
 2077SOL    HW1 8063  14.754  10.757  12.763
 2077SOL    HW2 8064  14.866  10.744  12.864
 2078SOL     OW 8065   9.505   7.520   5.758
 2078SOL    HW1 8066   9.436   7.586   5.764
 2078SOL    HW2 8067   9.579   7.560   5.804
 2079SOL     OW 8068   4.012   3.700   0.689
 2079SOL    HW1 8069   3.981   3.721   0.601
 2079SOL    HW2 8070   4.091   3.647   0.676
 2080SOL     OW 8071   7.716   8.141   3.426
 2080SOL    HW1 8072   7.694   8.173   3.338
 2080SOL    HW2 8073   7.750   8.053   3.412
 2081SOL     OW 8074   0.198   2.718   6.381
 2081SOL    HW1 8075   0.242   2.801   6.365
 2081SOL    HW2 8076   0.108   2.742   6.403
 2082SOL     OW 8077   8.378   9.411  10.024
 2082SOL    HW1 8078   8.409   9.323  10.004
 2082SOL    HW2 8079   8.304   9.399  10.083
 2083SOL     OW 8080   1.575   5.025   6.457
 2083SOL    HW1 8081   1.662   5.000   6.489
 2083SOL    HW2 8082   1.544   5.088   6.521
 2084SOL     OW 8083   1.204   8.950   5.402
 2084SOL    HW1 8084   1.151   8.917   5.474
 2084SOL    HW2 8085   1.162   8.914   5.324
 2085SOL     OW 8086   8.304   0.080   2.322
 2085SOL    HW1 8087   8.248   0.007   2.298
 2085SOL    HW2 8088   8.259   0.123   2.395
 2086SOL     OW 8089   0.840   4.049  12.420
 2086SOL    HW1 8090   0.904   4.032  12.351
 2086SOL    HW2 8091   0.809   3.962  12.445
 2087SOL     OW 8092   6.570   7.633  11.891
 2087SOL    HW1 8093   6.638   7.691  11.925
 2087SOL    HW2 8094   6.607   7.598  11.810
 2088SOL     OW 8095   8.733   9.155   8.310
 2088SOL    HW1 8096   8.811   9.142   8.256
 2088SOL    HW2 8097   8.661   9.128   8.253
 2089SOL     OW 8098   9.555   4.566   8.719
 2089SOL    HW1 8099   9.476   4.609   8.688
 2089SOL    HW2 8100   9.584   4.512   8.645
 2090SOL     OW 8101   0.904  11.610   1.035
 2090SOL    HW1 8102   0.855  11.664   0.974
 2090SOL    HW2 8103   0.886  11.649   1.121
 2091SOL     OW 8104   8.878   1.346  12.178
 2091SOL    HW1 8105   8.815   1.280  12.148
 2091SOL    HW2 8106   8.826   1.426  12.188
 2092SOL     OW 8107   0.282   8.454  14.003
 2092SOL    HW1 8108   0.306   8.527  14.060
 2092SOL    HW2 8109   0.277   8.492  13.916
 2093SOL     OW 8110   6.112  14.495  11.871
 2093SOL    HW1 8111   6.090  14.579  11.912
 2093SOL    HW2 8112   6.179  14.517  11.806
 2094SOL     OW 8113   5.566   2.219   4.874
 2094SOL    HW1 8114   5.662   2.221   4.879
 2094SOL    HW2 8115   5.540   2.310   4.882
 2095SOL     OW 8116   1.151   2.226   3.113
 2095SOL    HW1 8117   1.065   2.233   3.071
 2095SOL    HW2 8118   1.150   2.140   3.155
 2096SOL     OW 8119  12.675   4.147   8.419
 2096SOL    HW1 8120  12.753   4.141   8.364
 2096SOL    HW2 8121  12.629   4.224   8.387
 2097SOL     OW 8122   1.819  12.779   6.155
 2097SOL    HW1 8123   1.740  12.755   6.203
 2097SOL    HW2 8124   1.888  12.780   6.221
 2098SOL     OW 8125   7.130   9.202   4.472
 2098SOL    HW1 8126   7.193   9.212   4.401
 2098SOL    HW2 8127   7.068   9.137   4.440
 2099SOL     OW 8128   0.261  13.795   9.586
 2099SOL    HW1 8129   0.198  13.846   9.534
 2099SOL    HW2 8130   0.330  13.772   9.524
 2100SOL     OW 8131  14.614   3.705   3.731
 2100SOL    HW1 8132  14.667   3.752   3.668
 2100SOL    HW2 8133  14.674   3.683   3.803
 2101SOL     OW 8134  10.833  14.780   2.539
 2101SOL    HW1 8135  10.779  14.837   2.484
 2101SOL    HW2 8136  10.884  14.840   2.592
 2102SOL     OW 8137  12.729   8.142   4.200
 2102SOL    HW1 8138  12.786   8.147   4.123
 2102SOL    HW2 8139  12.747   8.056   4.238
 2103SOL     OW 8140  11.836   9.695   4.934
 2103SOL    HW1 8141  11.760   9.737   4.975
 2103SOL    HW2 8142  11.875   9.764   4.880
 2104SOL     OW 8143  10.531  13.586   0.585
 2104SOL    HW1 8144  10.605  13.614   0.531
 2104SOL    HW2 8145  10.550  13.495   0.607
 2105SOL     OW 8146  14.804   0.418   4.163
 2105SOL    HW1 8147  14.834   0.396   4.251
 2105SOL    HW2 8148  14.715   0.384   4.159
 2106SOL     OW 8149  14.745   4.372   1.305
 2106SOL    HW1 8150  14.670   4.327   1.268
 2106SOL    HW2 8151  14.817   4.353   1.245
 2107SOL     OW 8152   8.275   6.375   3.872
 2107SOL    HW1 8153   8.237   6.459   3.846
 2107SOL    HW2 8154   8.237   6.357   3.958
 2108SOL     OW 8155   3.332   3.599   9.701
 2108SOL    HW1 8156   3.371   3.546   9.770
 2108SOL    HW2 8157   3.401   3.607   9.635
 2109SOL     OW 8158   1.884   3.652  11.438
 2109SOL    HW1 8159   1.954   3.647  11.373
 2109SOL    HW2 8160   1.915   3.718  11.501
 2110SOL     OW 8161   6.634   4.960  13.938
 2110SOL    HW1 8162   6.615   5.050  13.912
 2110SOL    HW2 8163   6.610   4.955  14.031
 2111SOL     OW 8164  10.491   2.056   4.619
 2111SOL    HW1 8165  10.511   2.060   4.526
 2111SOL    HW2 8166  10.577   2.060   4.662
 2112SOL     OW 8167  11.897   5.927   7.486
 2112SOL    HW1 8168  11.945   5.985   7.427
 2112SOL    HW2 8169  11.868   5.984   7.557
 2113SOL     OW 8170   3.890   6.415   2.721
 2113SOL    HW1 8171   3.967   6.363   2.699
 2113SOL    HW2 8172   3.818   6.373   2.673
 2114SOL     OW 8173   4.586  12.790   5.118
 2114SOL    HW1 8174   4.559  12.717   5.174
 2114SOL    HW2 8175   4.619  12.855   5.179
 2115SOL     OW 8176  10.665  10.415   5.196
 2115SOL    HW1 8177  10.717  10.390   5.272
 2115SOL    HW2 8178  10.615  10.492   5.225
 2116SOL     OW 8179  11.615   7.296   9.987
 2116SOL    HW1 8180  11.694   7.282   9.935
 2116SOL    HW2 8181  11.554   7.339   9.928
 2117SOL     OW 8182   2.790   9.471   4.178
 2117SOL    HW1 8183   2.723   9.413   4.141
 2117SOL    HW2 8184   2.748   9.510   4.254
 2118SOL     OW 8185   8.193  13.493  11.217
 2118SOL    HW1 8186   8.128  13.546  11.171
 2118SOL    HW2 8187   8.156  13.405  11.218
 2119SOL     OW 8188  13.959  12.338   6.857
 2119SOL    HW1 8189  13.923  12.398   6.791
 2119SOL    HW2 8190  14.054  12.346   6.847
 2120SOL     OW 8191   9.253   7.636   5.820
 2120SOL    HW1 8192   9.283   7.555   5.861
 2120SOL    HW2 8193   9.168   7.653   5.861
 2121SOL     OW 8194  10.580   3.840  12.707
 2121SOL    HW1 8195  10.657   3.786  12.694
 2121SOL    HW2 8196  10.542   3.810  12.789
 2122SOL     OW 8197  10.756  12.277   9.443
 2122SOL    HW1 8198  10.731  12.206   9.503
 2122SOL    HW2 8199  10.685  12.341   9.451
 2123SOL     OW 8200  14.254  12.954   5.303
 2123SOL    HW1 8201  14.252  13.038   5.350
 2123SOL    HW2 8202  14.172  12.912   5.326
 2124SOL     OW 8203   5.732   0.318  11.070
 2124SOL    HW1 8204   5.812   0.307  11.018
 2124SOL    HW2 8205   5.662   0.288  11.012
 2125SOL     OW 8206   5.052   5.692   7.699
 2125SOL    HW1 8207   5.036   5.735   7.615
 2125SOL    HW2 8208   5.063   5.765   7.760
 2126SOL     OW 8209   2.110   1.737  10.541
 2126SOL    HW1 8210   2.078   1.729  10.632
 2126SOL    HW2 8211   2.052   1.679  10.491
 2127SOL     OW 8212  13.434   4.273  14.710
 2127SOL    HW1 8213  13.501   4.205  14.720
 2127SOL    HW2 8214  13.459   4.341  14.773
 2128SOL     OW 8215   0.004  12.907  13.090
 2128SOL    HW1 8216   0.093  12.893  13.123
 2128SOL    HW2 8217  14.874  13.002  13.091
 2129SOL     OW 8218   6.459   6.115  12.181
 2129SOL    HW1 8219   6.450   6.030  12.139
 2129SOL    HW2 8220   6.372   6.156  12.173
 2130SOL     OW 8221  14.312   4.376   7.922
 2130SOL    HW1 8222  14.402   4.342   7.919
 2130SOL    HW2 8223  14.314   4.455   7.869
 2131SOL     OW 8224   3.795  12.636  13.453
 2131SOL    HW1 8225   3.710  12.592  13.455
 2131SOL    HW2 8226   3.859  12.566  13.466
 2132SOL     OW 8227  12.748   3.692  11.572
 2132SOL    HW1 8228  12.741   3.728  11.484
 2132SOL    HW2 8229  12.827   3.639  11.571
 2133SOL     OW 8230   4.001   2.102   0.203
 2133SOL    HW1 8231   4.063   2.103   0.130
 2133SOL    HW2 8232   4.050   2.062   0.275
 2134SOL     OW 8233  11.837  11.905   5.413
 2134SOL    HW1 8234  11.891  11.880   5.337
 2134SOL    HW2 8235  11.840  12.001   5.413
 2135SOL     OW 8236   9.884   1.657  14.586
 2135SOL    HW1 8237   9.933   1.672  14.505
 2135SOL    HW2 8238   9.913   1.727  14.644
 2136SOL     OW 8239  14.512  12.183   7.125
 2136SOL    HW1 8240  14.484  12.274   7.126
 2136SOL    HW2 8241  14.431  12.133   7.117
 2137SOL     OW 8242  10.852   2.111  10.323
 2137SOL    HW1 8243  10.930   2.059  10.308
 2137SOL    HW2 8244  10.869   2.194  10.278
 2138SOL     OW 8245   9.640   1.058  13.075
 2138SOL    HW1 8246   9.676   1.089  12.992
 2138SOL    HW2 8247   9.679   1.116  13.141
 2139SOL     OW 8248   4.357  14.369   1.340
 2139SOL    HW1 8249   4.273  14.371   1.296
 2139SOL    HW2 8250   4.336  14.369   1.433
 2140SOL     OW 8251   4.616  12.610   9.124
 2140SOL    HW1 8252   4.615  12.633   9.031
 2140SOL    HW2 8253   4.708  12.616   9.150
 2141SOL     OW 8254  10.976   8.042   9.159
 2141SOL    HW1 8255  10.945   8.078   9.076
 2141SOL    HW2 8256  10.933   8.095   9.226
 2142SOL     OW 8257   8.889   7.049   0.266
 2142SOL    HW1 8258   8.910   7.117   0.330
 2142SOL    HW2 8259   8.973   7.013   0.240
 2143SOL     OW 8260   4.861   2.667   2.813
 2143SOL    HW1 8261   4.917   2.633   2.744
 2143SOL    HW2 8262   4.832   2.753   2.781
 2144SOL     OW 8263   2.685   4.565  11.032
 2144SOL    HW1 8264   2.610   4.577  11.090
 2144SOL    HW2 8265   2.650   4.577  10.944
 2145SOL     OW 8266   6.023   7.572   3.111
 2145SOL    HW1 8267   6.027   7.622   3.193
 2145SOL    HW2 8268   5.929   7.556   3.098
 2146SOL     OW 8269  13.754   5.310   3.839
 2146SOL    HW1 8270  13.791   5.398   3.835
 2146SOL    HW2 8271  13.664   5.322   3.869
 2147SOL     OW 8272  14.650  12.840  13.284
 2147SOL    HW1 8273  14.682  12.756  13.319
 2147SOL    HW2 8274  14.715  12.865  13.218
 2148SOL     OW 8275   2.556   3.961   4.750
 2148SOL    HW1 8276   2.618   3.940   4.821
 2148SOL    HW2 8277   2.603   4.026   4.697
 2149SOL     OW 8278   0.303   1.324   8.665
 2149SOL    HW1 8279   0.308   1.409   8.621
 2149SOL    HW2 8280   0.239   1.274   8.615
 2150SOL     OW 8281   4.230  10.818  11.345
 2150SOL    HW1 8282   4.207  10.782  11.259
 2150SOL    HW2 8283   4.325  10.816  11.347
 2151SOL     OW 8284  13.984   7.271   2.514
 2151SOL    HW1 8285  14.065   7.236   2.475
 2151SOL    HW2 8286  13.924   7.196   2.515
 2152SOL     OW 8287   3.705   9.425  11.181
 2152SOL    HW1 8288   3.719   9.393  11.269
 2152SOL    HW2 8289   3.612   9.409  11.164
 2153SOL     OW 8290  12.572   4.479  11.909
 2153SOL    HW1 8291  12.524   4.518  11.982
 2153SOL    HW2 8292  12.608   4.554  11.861
 2154SOL     OW 8293   6.903  13.634  10.967
 2154SOL    HW1 8294   6.989  13.672  10.986
 2154SOL    HW2 8295   6.921  13.569  10.899
 2155SOL     OW 8296   0.691   0.493  12.950
 2155SOL    HW1 8297   0.658   0.520  13.035
 2155SOL    HW2 8298   0.697   0.575  12.900
 2156SOL     OW 8299   0.082   4.404  10.185
 2156SOL    HW1 8300   0.158   4.463  10.177
 2156SOL    HW2 8301   0.008   4.456  10.155
 2157SOL     OW 8302  12.277   7.226   4.782
 2157SOL    HW1 8303  12.256   7.134   4.766
 2157SOL    HW2 8304  12.208   7.275   4.737
 2158SOL     OW 8305   7.252   7.525  12.127
 2158SOL    HW1 8306   7.189   7.488  12.066
 2158SOL    HW2 8307   7.310   7.579  12.073
 2159SOL     OW 8308  12.053   5.493   2.928
 2159SOL    HW1 8309  12.124   5.438   2.961
 2159SOL    HW2 8310  11.991   5.431   2.890
 2160SOL     OW 8311   0.006   8.431   9.971
 2160SOL    HW1 8312   0.079   8.390   9.925
 2160SOL    HW2 8313  14.825   8.360   9.982
 2161SOL     OW 8314  10.831   0.275   1.718
 2161SOL    HW1 8315  10.879   0.288   1.637
 2161SOL    HW2 8316  10.807   0.182   1.718
 2162SOL     OW 8317   5.316  10.203  13.187
 2162SOL    HW1 8318   5.245  10.139  13.193
 2162SOL    HW2 8319   5.288  10.263  13.117
 2163SOL     OW 8320   7.660   8.218  14.879
 2163SOL    HW1 8321   7.647   8.310   0.022
 2163SOL    HW2 8322   7.702   8.223  14.793
 2164SOL     OW 8323   3.148   5.442  10.298
 2164SOL    HW1 8324   3.091   5.389  10.242
 2164SOL    HW2 8325   3.194   5.378  10.352
 2165SOL     OW 8326   1.412  12.756   3.558
 2165SOL    HW1 8327   1.383  12.718   3.641
 2165SOL    HW2 8328   1.492  12.802   3.579
 2166SOL     OW 8329   0.638   2.635  11.438
 2166SOL    HW1 8330   0.549   2.662  11.417
 2166SOL    HW2 8331   0.694   2.684  11.378
 2167SOL     OW 8332  14.589   4.049   8.929
 2167SOL    HW1 8333  14.504   4.088   8.907
 2167SOL    HW2 8334  14.569   3.984   8.997
 2168SOL     OW 8335   3.216   4.420   0.688
 2168SOL    HW1 8336   3.172   4.475   0.624
 2168SOL    HW2 8337   3.150   4.400   0.754
 2169SOL     OW 8338   0.789  10.208   0.448
 2169SOL    HW1 8339   0.762  10.117   0.464
 2169SOL    HW2 8340   0.790  10.248   0.535
 2170SOL     OW 8341   3.531   9.396  10.627
 2170SOL    HW1 8342   3.477   9.379  10.550
 2170SOL    HW2 8343   3.569   9.483  10.611
 2171SOL     OW 8344  10.844   2.150  13.737
 2171SOL    HW1 8345  10.783   2.113  13.801
 2171SOL    HW2 8346  10.798   2.143  13.653
 2172SOL     OW 8347  13.642  14.708   8.756
 2172SOL    HW1 8348  13.717  14.747   8.709
 2172SOL    HW2 8349  13.566  14.734   8.705
 2173SOL     OW 8350  11.852  10.466   0.826
 2173SOL    HW1 8351  11.903  10.396   0.867
 2173SOL    HW2 8352  11.775  10.476   0.883
 2174SOL     OW 8353   7.834   2.138   4.584
 2174SOL    HW1 8354   7.882   2.141   4.501
 2174SOL    HW2 8355   7.759   2.196   4.571
 2175SOL     OW 8356  11.287  11.457   6.301
 2175SOL    HW1 8357  11.221  11.508   6.347
 2175SOL    HW2 8358  11.331  11.406   6.369
 2176SOL     OW 8359  11.277  14.338  10.731
 2176SOL    HW1 8360  11.268  14.382  10.817
 2176SOL    HW2 8361  11.209  14.271  10.732
 2177SOL     OW 8362   0.969   2.759   4.934
 2177SOL    HW1 8363   0.989   2.666   4.919
 2177SOL    HW2 8364   0.950   2.793   4.846
 2178SOL     OW 8365   9.069   9.556  12.239
 2178SOL    HW1 8366   9.144   9.610  12.263
 2178SOL    HW2 8367   9.063   9.565  12.143
 2179SOL     OW 8368  14.210  14.236   6.784
 2179SOL    HW1 8369  14.196  14.229   6.879
 2179SOL    HW2 8370  14.226  14.329   6.769
 2180SOL     OW 8371   2.736   9.624  12.506
 2180SOL    HW1 8372   2.703   9.642  12.418
 2180SOL    HW2 8373   2.659   9.637  12.562
 2181SOL     OW 8374   9.936  11.505   6.430
 2181SOL    HW1 8375   9.861  11.496   6.490
 2181SOL    HW2 8376   9.968  11.416   6.418
 2182SOL     OW 8377   5.425   6.296   0.470
 2182SOL    HW1 8378   5.370   6.221   0.447
 2182SOL    HW2 8379   5.511   6.275   0.432
 2183SOL     OW 8380   1.412   6.691  14.447
 2183SOL    HW1 8381   1.495   6.658  14.480
 2183SOL    HW2 8382   1.413   6.784  14.466
 2184SOL     OW 8383   0.482   9.336   8.083
 2184SOL    HW1 8384   0.471   9.244   8.109
 2184SOL    HW2 8385   0.553   9.335   8.019
 2185SOL     OW 8386   7.209   0.710   9.206
 2185SOL    HW1 8387   7.225   0.618   9.227
 2185SOL    HW2 8388   7.296   0.750   9.206
 2186SOL     OW 8389   0.947   8.757  10.415
 2186SOL    HW1 8390   1.025   8.716  10.452
 2186SOL    HW2 8391   0.933   8.835  10.469
 2187SOL     OW 8392   2.840   7.561   3.608
 2187SOL    HW1 8393   2.934   7.547   3.601
 2187SOL    HW2 8394   2.830   7.614   3.688
 2188SOL     OW 8395   3.762  10.529   0.124
 2188SOL    HW1 8396   3.731  10.446   0.159
 2188SOL    HW2 8397   3.685  10.570   0.085
 2189SOL     OW 8398   4.833   7.466  11.445
 2189SOL    HW1 8399   4.764   7.483  11.509
 2189SOL    HW2 8400   4.808   7.383  11.404
 2190SOL     OW 8401   6.192   3.023   7.995
 2190SOL    HW1 8402   6.207   3.027   8.089
 2190SOL    HW2 8403   6.280   3.010   7.957
 2191SOL     OW 8404  11.969   3.693  14.503
 2191SOL    HW1 8405  12.061   3.720  14.507
 2191SOL    HW2 8406  11.922   3.771  14.474
 2192SOL     OW 8407   0.092   6.087  10.522
 2192SOL    HW1 8408   0.067   6.178  10.512
 2192SOL    HW2 8409   0.018   6.047  10.568
 2193SOL     OW 8410  11.774  12.260   4.846
 2193SOL    HW1 8411  11.764  12.215   4.763
 2193SOL    HW2 8412  11.816  12.196   4.904
 2194SOL     OW 8413   5.816   8.275   2.344
 2194SOL    HW1 8414   5.896   8.223   2.351
 2194SOL    HW2 8415   5.746   8.210   2.334
 2195SOL     OW 8416  12.321  14.133  13.601
 2195SOL    HW1 8417  12.251  14.119  13.666
 2195SOL    HW2 8418  12.275  14.161  13.522
 2196SOL     OW 8419   7.632  10.854   6.364
 2196SOL    HW1 8420   7.541  10.831   6.384
 2196SOL    HW2 8421   7.669  10.773   6.328
 2197SOL     OW 8422   1.279   3.931   0.167
 2197SOL    HW1 8423   1.193   3.897   0.191
 2197SOL    HW2 8424   1.331   3.926   0.247
 2198SOL     OW 8425  12.597   2.479   5.810
 2198SOL    HW1 8426  12.513   2.479   5.765
 2198SOL    HW2 8427  12.640   2.560   5.780
 2199SOL     OW 8428  11.405  14.418   0.990
 2199SOL    HW1 8429  11.383  14.511   0.996
 2199SOL    HW2 8430  11.431  14.394   1.079
 2200SOL     OW 8431  11.021   5.500  11.442
 2200SOL    HW1 8432  11.019   5.569  11.375
 2200SOL    HW2 8433  10.979   5.425  11.400
 2201SOL     OW 8434   6.606   5.914  11.513
 2201SOL    HW1 8435   6.567   5.831  11.540
 2201SOL    HW2 8436   6.700   5.896  11.506
 2202SOL     OW 8437  11.360   2.628   6.301
 2202SOL    HW1 8438  11.316   2.688   6.362
 2202SOL    HW2 8439  11.356   2.672   6.216
 2203SOL     OW 8440  13.720   9.835   2.655
 2203SOL    HW1 8441  13.671   9.809   2.577
 2203SOL    HW2 8442  13.761   9.754   2.685
 2204SOL     OW 8443   0.435   4.643  12.229
 2204SOL    HW1 8444   0.505   4.613  12.287
 2204SOL    HW2 8445   0.354   4.622  12.276
 2205SOL     OW 8446   4.645   7.691   4.566
 2205SOL    HW1 8447   4.605   7.693   4.479
 2205SOL    HW2 8448   4.583   7.640   4.619
 2206SOL     OW 8449  12.389   1.782   9.356
 2206SOL    HW1 8450  12.410   1.763   9.447
 2206SOL    HW2 8451  12.322   1.849   9.359
 2207SOL     OW 8452  11.778   4.138  12.473
 2207SOL    HW1 8453  11.793   4.121  12.566
 2207SOL    HW2 8454  11.699   4.192  12.471
 2208SOL     OW 8455   0.196   6.539  11.664
 2208SOL    HW1 8456   0.253   6.490  11.724
 2208SOL    HW2 8457   0.152   6.603  11.720
 2209SOL     OW 8458   5.985   2.808   4.046
 2209SOL    HW1 8459   5.970   2.869   3.974
 2209SOL    HW2 8460   6.057   2.848   4.096
 2210SOL     OW 8461   2.433   9.726  11.079
 2210SOL    HW1 8462   2.500   9.786  11.047
 2210SOL    HW2 8463   2.350   9.767  11.054
 2211SOL     OW 8464   9.912   3.715   1.774
 2211SOL    HW1 8465   9.910   3.666   1.691
 2211SOL    HW2 8466   9.843   3.676   1.827
 2212SOL     OW 8467  12.400  13.882  11.194
 2212SOL    HW1 8468  12.332  13.897  11.260
 2212SOL    HW2 8469  12.418  13.970  11.159
 2213SOL     OW 8470   8.121   2.034   4.180
 2213SOL    HW1 8471   8.061   1.960   4.167
 2213SOL    HW2 8472   8.208   1.996   4.174
 2214SOL     OW 8473   6.314   8.757  10.452
 2214SOL    HW1 8474   6.334   8.812  10.376
 2214SOL    HW2 8475   6.289   8.672  10.414
 2215SOL     OW 8476  12.845   4.519   4.650
 2215SOL    HW1 8477  12.916   4.456   4.664
 2215SOL    HW2 8478  12.886   4.589   4.599
 2216SOL     OW 8479  14.244   9.006  12.342
 2216SOL    HW1 8480  14.203   8.971  12.262
 2216SOL    HW2 8481  14.308   9.070  12.310
 2217SOL     OW 8482   3.766  14.198   3.032
 2217SOL    HW1 8483   3.683  14.228   3.069
 2217SOL    HW2 8484   3.764  14.103   3.043
 2218SOL     OW 8485  10.272   4.326   9.902
 2218SOL    HW1 8486  10.345   4.384   9.922
 2218SOL    HW2 8487  10.294   4.244   9.946
 2219SOL     OW 8488   0.145   0.234   0.866
 2219SOL    HW1 8489   0.228   0.279   0.882
 2219SOL    HW2 8490   0.105   0.227   0.952
 2220SOL     OW 8491   3.099   9.135   6.902
 2220SOL    HW1 8492   3.050   9.194   6.959
 2220SOL    HW2 8493   3.145   9.194   6.842
 2221SOL     OW 8494  13.494   0.084   1.916
 2221SOL    HW1 8495  13.568   0.116   1.968
 2221SOL    HW2 8496  13.416   0.116   1.961
 2222SOL     OW 8497   5.636   1.557   1.299
 2222SOL    HW1 8498   5.567   1.604   1.252
 2222SOL    HW2 8499   5.682   1.507   1.232
 2223SOL     OW 8500   1.366  12.061  12.939
 2223SOL    HW1 8501   1.419  12.089  12.865
 2223SOL    HW2 8502   1.425  12.010  12.993
 2224SOL     OW 8503  11.257  12.053   0.833
 2224SOL    HW1 8504  11.208  12.132   0.856
 2224SOL    HW2 8505  11.344  12.085   0.812
 2225SOL     OW 8506  12.023   1.333  10.184
 2225SOL    HW1 8507  12.014   1.248  10.226
 2225SOL    HW2 8508  11.955   1.387  10.225
 2226SOL     OW 8509   3.227   1.232   0.186
 2226SOL    HW1 8510   3.291   1.161   0.176
 2226SOL    HW2 8511   3.269   1.307   0.144
 2227SOL     OW 8512   1.131  10.792  10.787
 2227SOL    HW1 8513   1.189  10.716  10.790
 2227SOL    HW2 8514   1.170  10.850  10.722
 2228SOL     OW 8515   0.494   7.031  11.603
 2228SOL    HW1 8516   0.449   6.948  11.589
 2228SOL    HW2 8517   0.504   7.068  11.515
 2229SOL     OW 8518   6.420   8.016   7.345
 2229SOL    HW1 8519   6.495   8.073   7.358
 2229SOL    HW2 8520   6.457   7.930   7.328
 2230SOL     OW 8521  11.465  10.241  10.710
 2230SOL    HW1 8522  11.549  10.246  10.756
 2230SOL    HW2 8523  11.487  10.255  10.618
 2231SOL     OW 8524   0.944   7.852   1.898
 2231SOL    HW1 8525   0.946   7.943   1.927
 2231SOL    HW2 8526   1.036   7.823   1.903
 2232SOL     OW 8527   8.571   5.701   0.340
 2232SOL    HW1 8528   8.600   5.616   0.307
 2232SOL    HW2 8529   8.621   5.713   0.421
 2233SOL     OW 8530   5.536   4.221   6.424
 2233SOL    HW1 8531   5.545   4.306   6.467
 2233SOL    HW2 8532   5.469   4.235   6.358
 2234SOL     OW 8533   9.896   0.676  13.162
 2234SOL    HW1 8534   9.960   0.704  13.096
 2234SOL    HW2 8535   9.830   0.745  13.162
 2235SOL     OW 8536   1.737  14.285  12.354
 2235SOL    HW1 8537   1.692  14.242  12.281
 2235SOL    HW2 8538   1.761  14.371  12.320
 2236SOL     OW 8539   1.007   6.651  11.704
 2236SOL    HW1 8540   0.965   6.707  11.640
 2236SOL    HW2 8541   1.097   6.642  11.673
 2237SOL     OW 8542   4.059   0.487   8.441
 2237SOL    HW1 8543   3.999   0.430   8.491
 2237SOL    HW2 8544   4.115   0.426   8.394
 2238SOL     OW 8545   1.939   0.427   0.579
 2238SOL    HW1 8546   1.913   0.387   0.496
 2238SOL    HW2 8547   1.877   0.392   0.643
 2239SOL     OW 8548   6.341   2.563   8.503
 2239SOL    HW1 8549   6.407   2.505   8.541
 2239SOL    HW2 8550   6.370   2.651   8.527
 2240SOL     OW 8551   0.398   3.723   4.919
 2240SOL    HW1 8552   0.378   3.699   5.010
 2240SOL    HW2 8553   0.320   3.697   4.870
 2241SOL     OW 8554  11.519   7.789   0.480
 2241SOL    HW1 8555  11.484   7.760   0.396
 2241SOL    HW2 8556  11.481   7.729   0.545
 2242SOL     OW 8557   1.535   1.755   1.107
 2242SOL    HW1 8558   1.442   1.746   1.127
 2242SOL    HW2 8559   1.540   1.748   1.011
 2243SOL     OW 8560   1.232   0.957   5.577
 2243SOL    HW1 8561   1.159   1.013   5.604
 2243SOL    HW2 8562   1.190   0.885   5.529
 2244SOL     OW 8563   6.908   1.615   8.712
 2244SOL    HW1 8564   7.001   1.591   8.709
 2244SOL    HW2 8565   6.901   1.692   8.655
 2245SOL     OW 8566  14.864   6.394   6.272
 2245SOL    HW1 8567  14.855   6.484   6.302
 2245SOL    HW2 8568  14.781   6.375   6.228
 2246SOL     OW 8569  14.404   0.576   1.440
 2246SOL    HW1 8570  14.408   0.618   1.526
 2246SOL    HW2 8571  14.352   0.635   1.386
 2247SOL     OW 8572  12.051   9.509   8.967
 2247SOL    HW1 8573  12.109   9.434   8.950
 2247SOL    HW2 8574  11.965   9.470   8.980
 2248SOL     OW 8575   3.942   4.196   2.378
 2248SOL    HW1 8576   3.960   4.274   2.430
 2248SOL    HW2 8577   3.973   4.218   2.290
 2249SOL     OW 8578  14.199   0.685   8.623
 2249SOL    HW1 8579  14.195   0.632   8.703
 2249SOL    HW2 8580  14.287   0.670   8.589
 2250SOL     OW 8581  13.161   2.390   3.661
 2250SOL    HW1 8582  13.100   2.319   3.679
 2250SOL    HW2 8583  13.172   2.389   3.566
 2251SOL     OW 8584   7.042  11.201   4.021
 2251SOL    HW1 8585   7.024  11.203   4.115
 2251SOL    HW2 8586   7.004  11.282   3.988
 2252SOL     OW 8587  10.260   7.018   4.773
 2252SOL    HW1 8588  10.166   7.037   4.783
 2252SOL    HW2 8589  10.293   7.088   4.718
 2253SOL     OW 8590   6.064   8.333   8.704
 2253SOL    HW1 8591   6.069   8.274   8.779
 2253SOL    HW2 8592   6.016   8.284   8.638
 2254SOL     OW 8593  11.117   4.300  10.609
 2254SOL    HW1 8594  11.084   4.219  10.571
 2254SOL    HW2 8595  11.095   4.294  10.702
 2255SOL     OW 8596   5.992   3.519   9.575
 2255SOL    HW1 8597   5.941   3.594   9.545
 2255SOL    HW2 8598   6.063   3.512   9.512
 2256SOL     OW 8599   4.336   1.118   0.106
 2256SOL    HW1 8600   4.268   1.157   0.050
 2256SOL    HW2 8601   4.316   1.025   0.107
 2257SOL     OW 8602   2.190  14.720   2.301
 2257SOL    HW1 8603   2.284  14.705   2.297
 2257SOL    HW2 8604   2.178  14.776   2.377
 2258SOL     OW 8605   2.550   0.700   0.059
 2258SOL    HW1 8606   2.467   0.652   0.062
 2258SOL    HW2 8607   2.544   0.754  14.862
 2259SOL     OW 8608  11.216  10.115  11.228
 2259SOL    HW1 8609  11.154  10.169  11.278
 2259SOL    HW2 8610  11.296  10.116  11.280
 2260SOL     OW 8611  12.387   7.123   5.516
 2260SOL    HW1 8612  12.477   7.097   5.493
 2260SOL    HW2 8613  12.388   7.218   5.511
 2261SOL     OW 8614  13.224   4.210   7.681
 2261SOL    HW1 8615  13.250   4.149   7.751
 2261SOL    HW2 8616  13.142   4.175   7.647
 2262SOL     OW 8617   2.662   4.070  13.224
 2262SOL    HW1 8618   2.651   4.112  13.138
 2262SOL    HW2 8619   2.745   4.024  13.219
 2263SOL     OW 8620  13.829   9.041  10.651
 2263SOL    HW1 8621  13.737   9.052  10.626
 2263SOL    HW2 8622  13.878   9.088  10.583
 2264SOL     OW 8623   1.972  11.900   5.680
 2264SOL    HW1 8624   1.893  11.862   5.642
 2264SOL    HW2 8625   1.946  11.929   5.767
 2265SOL     OW 8626  12.200   1.223   0.721
 2265SOL    HW1 8627  12.125   1.167   0.739
 2265SOL    HW2 8628  12.276   1.168   0.741
 2266SOL     OW 8629   6.066  11.390   8.282
 2266SOL    HW1 8630   6.105  11.329   8.219
 2266SOL    HW2 8631   6.006  11.443   8.230
 2267SOL     OW 8632  11.324  14.817   2.819
 2267SOL    HW1 8633  11.316  14.849   2.730
 2267SOL    HW2 8634  11.343  14.724   2.810
 2268SOL     OW 8635   8.320  11.304   9.747
 2268SOL    HW1 8636   8.313  11.226   9.692
 2268SOL    HW2 8637   8.401  11.346   9.719
 2269SOL     OW 8638  10.560   0.059   6.232
 2269SOL    HW1 8639  10.561  14.847   6.246
 2269SOL    HW2 8640  10.640   0.077   6.183
 2270SOL     OW 8641  11.071  11.170   7.067
 2270SOL    HW1 8642  10.985  11.206   7.044
 2270SOL    HW2 8643  11.072  11.169   7.163
 2271SOL     OW 8644   9.917   8.158   1.808
 2271SOL    HW1 8645   9.978   8.203   1.866
 2271SOL    HW2 8646   9.963   8.153   1.724
 2272SOL     OW 8647   3.271   0.766   2.627
 2272SOL    HW1 8648   3.318   0.683   2.630
 2272SOL    HW2 8649   3.336   0.831   2.652
 2273SOL     OW 8650  11.201   7.649   4.635
 2273SOL    HW1 8651  11.260   7.664   4.561
 2273SOL    HW2 8652  11.257   7.656   4.713
 2274SOL     OW 8653  12.879   9.008  12.690
 2274SOL    HW1 8654  12.854   9.061  12.766
 2274SOL    HW2 8655  12.929   8.935  12.727
 2275SOL     OW 8656  14.382   1.555   0.035
 2275SOL    HW1 8657  14.358   1.644   0.063
 2275SOL    HW2 8658  14.412   1.512   0.115
 2276SOL     OW 8659  11.624  13.787  14.049
 2276SOL    HW1 8660  11.588  13.698  14.044
 2276SOL    HW2 8661  11.679  13.795  13.971
 2277SOL     OW 8662  14.423   3.709   9.403
 2277SOL    HW1 8663  14.444   3.695   9.495
 2277SOL    HW2 8664  14.455   3.798   9.385
 2278SOL     OW 8665  12.197   6.011   4.871
 2278SOL    HW1 8666  12.213   5.934   4.926
 2278SOL    HW2 8667  12.107   6.000   4.840
 2279SOL     OW 8668   4.710  11.623  13.041
 2279SOL    HW1 8669   4.787  11.678  13.057
 2279SOL    HW2 8670   4.674  11.657  12.959
 2280SOL     OW 8671  12.682  13.618  14.052
 2280SOL    HW1 8672  12.740  13.613  14.128
 2280SOL    HW2 8673  12.741  13.622  13.977
 2281SOL     OW 8674   6.812   3.621   2.722
 2281SOL    HW1 8675   6.865   3.628   2.642
 2281SOL    HW2 8676   6.799   3.527   2.734
 2282SOL     OW 8677   5.841   4.928   1.679
 2282SOL    HW1 8678   5.823   4.892   1.592
 2282SOL    HW2 8679   5.813   4.859   1.739
 2283SOL     OW 8680   3.047   9.382   3.417
 2283SOL    HW1 8681   3.061   9.313   3.353
 2283SOL    HW2 8682   3.044   9.462   3.366
 2284SOL     OW 8683   1.390   0.886   2.895
 2284SOL    HW1 8684   1.345   0.957   2.941
 2284SOL    HW2 8685   1.477   0.884   2.934
 2285SOL     OW 8686   9.060  14.096   0.206
 2285SOL    HW1 8687   8.997  14.154   0.249
 2285SOL    HW2 8688   9.107  14.153   0.145
 2286SOL     OW 8689   5.279   1.159   9.282
 2286SOL    HW1 8690   5.373   1.159   9.262
 2286SOL    HW2 8691   5.260   1.068   9.307
 2287SOL     OW 8692   7.756  14.262   2.555
 2287SOL    HW1 8693   7.776  14.231   2.643
 2287SOL    HW2 8694   7.752  14.183   2.502
 2288SOL     OW 8695   8.946   3.020   7.081
 2288SOL    HW1 8696   8.919   2.961   7.011
 2288SOL    HW2 8697   8.985   2.962   7.147
 2289SOL     OW 8698   1.563   8.494   7.278
 2289SOL    HW1 8699   1.520   8.447   7.350
 2289SOL    HW2 8700   1.605   8.426   7.227
 2290SOL     OW 8701   8.863   9.220  14.698
 2290SOL    HW1 8702   8.916   9.250  14.772
 2290SOL    HW2 8703   8.924   9.214  14.625
 2291SOL     OW 8704   5.921  12.566   8.445
 2291SOL    HW1 8705   5.883  12.525   8.523
 2291SOL    HW2 8706   5.995  12.510   8.422
 2292SOL     OW 8707  12.932   9.425   9.989
 2292SOL    HW1 8708  12.862   9.490   9.993
 2292SOL    HW2 8709  12.928   9.390   9.900
 2293SOL     OW 8710  14.262  10.094   2.410
 2293SOL    HW1 8711  14.303  10.018   2.452
 2293SOL    HW2 8712  14.189  10.057   2.359
 2294SOL     OW 8713   5.279   0.042   0.864
 2294SOL    HW1 8714   5.213   0.081   0.922
 2294SOL    HW2 8715   5.335   0.115   0.838
 2295SOL     OW 8716   8.711   4.299   3.772
 2295SOL    HW1 8717   8.746   4.213   3.746
 2295SOL    HW2 8718   8.788   4.350   3.796
 2296SOL     OW 8719  11.590   7.520   4.653
 2296SOL    HW1 8720  11.539   7.491   4.578
 2296SOL    HW2 8721  11.602   7.614   4.639
 2297SOL     OW 8722   0.218  13.848   6.724
 2297SOL    HW1 8723   0.188  13.758   6.718
 2297SOL    HW2 8724   0.221  13.879   6.633
 2298SOL     OW 8725   1.810   7.674  14.801
 2298SOL    HW1 8726   1.894   7.676  14.848
 2298SOL    HW2 8727   1.744   7.667  14.871
 2299SOL     OW 8728   7.146   1.500  14.854
 2299SOL    HW1 8729   7.137   1.532   0.062
 2299SOL    HW2 8730   7.239   1.512  14.834
 2300SOL     OW 8731  14.878   3.305  14.345
 2300SOL    HW1 8732  14.878   3.311  14.441
 2300SOL    HW2 8733   0.038   3.220  14.327
 2301SOL     OW 8734   6.484  11.025   3.249
 2301SOL    HW1 8735   6.400  11.071   3.242
 2301SOL    HW2 8736   6.493  11.006   3.342
 2302SOL     OW 8737   9.676   5.096   7.043
 2302SOL    HW1 8738   9.668   5.187   7.073
 2302SOL    HW2 8739   9.590   5.058   7.060
 2303SOL     OW 8740  14.168  14.401  11.684
 2303SOL    HW1 8741  14.187  14.362  11.769
 2303SOL    HW2 8742  14.177  14.495  11.699
 2304SOL     OW 8743   1.841   9.156   7.746
 2304SOL    HW1 8744   1.823   9.110   7.664
 2304SOL    HW2 8745   1.897   9.097   7.796
 2305SOL     OW 8746   6.867  10.155  12.222
 2305SOL    HW1 8747   6.862  10.243  12.260
 2305SOL    HW2 8748   6.869  10.171  12.127
 2306SOL     OW 8749  12.276   4.529   1.196
 2306SOL    HW1 8750  12.282   4.625   1.196
 2306SOL    HW2 8751  12.366   4.499   1.205
 2307SOL     OW 8752  12.099  10.568   1.601
 2307SOL    HW1 8753  12.160  10.495   1.611
 2307SOL    HW2 8754  12.139  10.625   1.535
 2308SOL     OW 8755   9.262   7.008   5.423
 2308SOL    HW1 8756   9.245   6.923   5.384
 2308SOL    HW2 8757   9.249   7.070   5.351
 2309SOL     OW 8758   6.043   4.441  11.078
 2309SOL    HW1 8759   6.129   4.401  11.071
 2309SOL    HW2 8760   6.052   4.506  11.149
 2310SOL     OW 8761  11.122   4.496  11.729
 2310SOL    HW1 8762  11.029   4.486  11.709
 2310SOL    HW2 8763  11.163   4.514  11.644
 2311SOL     OW 8764   6.385  10.525   6.655
 2311SOL    HW1 8765   6.392  10.429   6.655
 2311SOL    HW2 8766   6.428  10.552   6.574
 2312SOL     OW 8767   1.023   0.299   0.212
 2312SOL    HW1 8768   0.954   0.265   0.155
 2312SOL    HW2 8769   1.037   0.388   0.181
 2313SOL     OW 8770  11.262   2.010  10.608
 2313SOL    HW1 8771  11.263   2.090  10.555
 2313SOL    HW2 8772  11.188   2.021  10.667
 2314SOL     OW 8773  11.536   5.312   1.579
 2314SOL    HW1 8774  11.576   5.339   1.496
 2314SOL    HW2 8775  11.599   5.251   1.618
 2315SOL     OW 8776  13.928  14.473   6.303
 2315SOL    HW1 8777  13.943  14.513   6.389
 2315SOL    HW2 8778  13.849  14.420   6.315
 2316SOL     OW 8779   8.260  13.460  12.956
 2316SOL    HW1 8780   8.284  13.532  13.015
 2316SOL    HW2 8781   8.237  13.388  13.014
 2317SOL     OW 8782  12.252   3.849  14.165
 2317SOL    HW1 8783  12.245   3.902  14.245
 2317SOL    HW2 8784  12.305   3.902  14.105
 2318SOL     OW 8785  12.443  12.490  14.340
 2318SOL    HW1 8786  12.487  12.442  14.270
 2318SOL    HW2 8787  12.351  12.465  14.333
 2319SOL     OW 8788   3.138   5.132   5.648
 2319SOL    HW1 8789   3.209   5.112   5.709
 2319SOL    HW2 8790   3.169   5.209   5.599
 2320SOL     OW 8791   5.223   1.189  13.359
 2320SOL    HW1 8792   5.232   1.098  13.386
 2320SOL    HW2 8793   5.305   1.208  13.313
 2321SOL     OW 8794   5.991   0.366  11.545
 2321SOL    HW1 8795   5.993   0.374  11.641
 2321SOL    HW2 8796   6.075   0.401  11.516
 2322SOL     OW 8797   7.671   8.990   9.588
 2322SOL    HW1 8798   7.658   9.080   9.560
 2322SOL    HW2 8799   7.649   8.937   9.512
 2323SOL     OW 8800   1.268   7.723   4.805
 2323SOL    HW1 8801   1.273   7.664   4.881
 2323SOL    HW2 8802   1.334   7.689   4.745
 2324SOL     OW 8803   7.435   5.559   4.480
 2324SOL    HW1 8804   7.379   5.503   4.533
 2324SOL    HW2 8805   7.441   5.641   4.529
 2325SOL     OW 8806   6.155  12.334  10.472
 2325SOL    HW1 8807   6.096  12.284  10.415
 2325SOL    HW2 8808   6.151  12.423  10.438
 2326SOL     OW 8809   2.068   1.232  12.350
 2326SOL    HW1 8810   2.059   1.224  12.445
 2326SOL    HW2 8811   1.990   1.188  12.315
 2327SOL     OW 8812   3.865   3.624  10.589
 2327SOL    HW1 8813   3.918   3.564  10.641
 2327SOL    HW2 8814   3.811   3.670  10.653
 2328SOL     OW 8815   8.911   8.996   6.989
 2328SOL    HW1 8816   8.933   8.973   6.899
 2328SOL    HW2 8817   8.836   8.940   7.011
 2329SOL     OW 8818  14.113   7.067   6.622
 2329SOL    HW1 8819  14.099   7.022   6.539
 2329SOL    HW2 8820  14.025   7.091   6.651
 2330SOL     OW 8821  10.910   6.071   8.099
 2330SOL    HW1 8822  10.910   6.027   8.014
 2330SOL    HW2 8823  10.820   6.100   8.111
 2331SOL     OW 8824   5.592  12.934  10.014
 2331SOL    HW1 8825   5.585  12.985  10.095
 2331SOL    HW2 8826   5.668  12.878  10.027
 2332SOL     OW 8827   7.443   4.776  10.319
 2332SOL    HW1 8828   7.525   4.788  10.272
 2332SOL    HW2 8829   7.375   4.788  10.253
 2333SOL     OW 8830   6.231  14.773   6.304
 2333SOL    HW1 8831   6.230  14.837   6.375
 2333SOL    HW2 8832   6.274  14.696   6.342
 2334SOL     OW 8833   2.456   4.511   2.435
 2334SOL    HW1 8834   2.455   4.592   2.484
 2334SOL    HW2 8835   2.547   4.499   2.409
 2335SOL     OW 8836   1.585  14.858   1.527
 2335SOL    HW1 8837   1.574   0.071   1.531
 2335SOL    HW2 8838   1.666  14.841   1.575
 2336SOL     OW 8839   1.965   3.277   3.411
 2336SOL    HW1 8840   1.977   3.372   3.409
 2336SOL    HW2 8841   1.920   3.260   3.493
 2337SOL     OW 8842  11.090   7.336   5.312
 2337SOL    HW1 8843  11.032   7.268   5.278
 2337SOL    HW2 8844  11.045   7.370   5.389
 2338SOL     OW 8845   7.069   3.732   9.183
 2338SOL    HW1 8846   7.138   3.781   9.228
 2338SOL    HW2 8847   7.032   3.795   9.121
 2339SOL     OW 8848  12.788   6.236   9.871
 2339SOL    HW1 8849  12.762   6.147   9.851
 2339SOL    HW2 8850  12.737   6.260   9.948
 2340SOL     OW 8851  14.358   4.019   9.596
 2340SOL    HW1 8852  14.272   4.023   9.636
 2340SOL    HW2 8853  14.399   3.940   9.633
 2341SOL     OW 8854  10.733   4.504   4.736
 2341SOL    HW1 8855  10.804   4.542   4.685
 2341SOL    HW2 8856  10.657   4.506   4.678
 2342SOL     OW 8857  13.566  14.773   9.984
 2342SOL    HW1 8858  13.509  14.751  10.058
 2342SOL    HW2 8859  13.640  14.713   9.992
 2343SOL     OW 8860   1.864   4.936  10.350
 2343SOL    HW1 8861   1.880   4.858  10.403
 2343SOL    HW2 8862   1.933   4.997  10.374
 2344SOL     OW 8863   8.914  14.770   2.649
 2344SOL    HW1 8864   8.934  14.860   2.674
 2344SOL    HW2 8865   8.993  14.741   2.603
 2345SOL     OW 8866  12.321   3.800   1.971
 2345SOL    HW1 8867  12.246   3.756   2.011
 2345SOL    HW2 8868  12.392   3.788   2.034
 2346SOL     OW 8869  13.496  11.092   3.950
 2346SOL    HW1 8870  13.426  11.116   3.889
 2346SOL    HW2 8871  13.566  11.155   3.932
 2347SOL     OW 8872  14.588  10.441   9.818
 2347SOL    HW1 8873  14.558  10.430   9.728
 2347SOL    HW2 8874  14.603  10.535   9.827
 2348SOL     OW 8875   2.967  10.682   7.490
 2348SOL    HW1 8876   2.936  10.711   7.404
 2348SOL    HW2 8877   2.912  10.728   7.553
 2349SOL     OW 8878   9.186  12.704   3.519
 2349SOL    HW1 8879   9.162  12.666   3.604
 2349SOL    HW2 8880   9.280  12.723   3.527
 2350SOL     OW 8881   9.392  12.321  13.011
 2350SOL    HW1 8882   9.323  12.375  12.972
 2350SOL    HW2 8883   9.390  12.343  13.104
 2351SOL     OW 8884   9.445   0.790  14.465
 2351SOL    HW1 8885   9.488   0.747  14.539
 2351SOL    HW2 8886   9.353   0.764  14.473
 2352SOL     OW 8887   7.330   7.198  12.720
 2352SOL    HW1 8888   7.381   7.154  12.788
 2352SOL    HW2 8889   7.239   7.175  12.739
 2353SOL     OW 8890  14.330   6.548   2.756
 2353SOL    HW1 8891  14.379   6.532   2.836
 2353SOL    HW2 8892  14.256   6.603   2.783
 2354SOL     OW 8893   7.310  13.445   8.515
 2354SOL    HW1 8894   7.403  13.443   8.539
 2354SOL    HW2 8895   7.299  13.372   8.454
 2355SOL     OW 8896  12.602  12.547  11.753
 2355SOL    HW1 8897  12.677  12.592  11.713
 2355SOL    HW2 8898  12.571  12.487  11.685
 2356SOL     OW 8899   0.989  14.858   6.299
 2356SOL    HW1 8900   1.028   0.047   6.350
 2356SOL    HW2 8901   0.919  14.824   6.355
 2357SOL     OW 8902  13.111   9.758  11.380
 2357SOL    HW1 8903  13.129   9.784  11.470
 2357SOL    HW2 8904  13.130   9.836  11.327
 2358SOL     OW 8905   1.271   4.262   6.440
 2358SOL    HW1 8906   1.250   4.350   6.408
 2358SOL    HW2 8907   1.193   4.210   6.420
 2359SOL     OW 8908  10.555   2.722   6.513
 2359SOL    HW1 8909  10.596   2.735   6.428
 2359SOL    HW2 8910  10.598   2.786   6.570
 2360SOL     OW 8911   7.428   2.484   3.735
 2360SOL    HW1 8912   7.482   2.529   3.670
 2360SOL    HW2 8913   7.340   2.518   3.720
 2361SOL     OW 8914   5.152  10.299  11.163
 2361SOL    HW1 8915   5.133  10.285  11.070
 2361SOL    HW2 8916   5.143  10.393  11.175
 2362SOL     OW 8917   9.467  11.895   9.543
 2362SOL    HW1 8918   9.413  11.842   9.485
 2362SOL    HW2 8919   9.488  11.973   9.492
 2363SOL     OW 8920   4.562  10.213   5.214
 2363SOL    HW1 8921   4.495  10.250   5.272
 2363SOL    HW2 8922   4.559  10.269   5.136
 2364SOL     OW 8923   6.131   8.506   6.640
 2364SOL    HW1 8924   6.115   8.531   6.549
 2364SOL    HW2 8925   6.137   8.411   6.639
 2365SOL     OW 8926  14.157  10.105   7.018
 2365SOL    HW1 8927  14.107  10.186   7.005
 2365SOL    HW2 8928  14.218  10.127   7.089
 2366SOL     OW 8929   1.335   2.054   1.990
 2366SOL    HW1 8930   1.369   1.972   2.026
 2366SOL    HW2 8931   1.337   2.041   1.896
 2367SOL     OW 8932   2.231   9.559   1.705
 2367SOL    HW1 8933   2.274   9.637   1.737
 2367SOL    HW2 8934   2.137   9.580   1.707
 2368SOL     OW 8935   1.568  10.629   2.659
 2368SOL    HW1 8936   1.603  10.541   2.671
 2368SOL    HW2 8937   1.473  10.616   2.652
 2369SOL     OW 8938  11.956   7.859   9.223
 2369SOL    HW1 8939  12.022   7.880   9.156
 2369SOL    HW2 8940  11.874   7.893   9.188
 2370SOL     OW 8941  13.615   1.862   4.860
 2370SOL    HW1 8942  13.686   1.858   4.796
 2370SOL    HW2 8943  13.622   1.781   4.909
 2371SOL     OW 8944   2.608  12.351  14.668
 2371SOL    HW1 8945   2.704  12.344  14.671
 2371SOL    HW2 8946   2.585  12.322  14.580
 2372SOL     OW 8947   8.605  11.831   2.896
 2372SOL    HW1 8948   8.596  11.747   2.853
 2372SOL    HW2 8949   8.685  11.823   2.949
 2373SOL     OW 8950   3.371   3.998   0.701
 2373SOL    HW1 8951   3.438   4.045   0.750
 2373SOL    HW2 8952   3.311   4.067   0.671
 2374SOL     OW 8953  11.393   1.059   0.603
 2374SOL    HW1 8954  11.466   0.998   0.594
 2374SOL    HW2 8955  11.400   1.115   0.526
 2375SOL     OW 8956  11.984   1.627   2.161
 2375SOL    HW1 8957  12.030   1.550   2.193
 2375SOL    HW2 8958  12.039   1.659   2.089
 2376SOL     OW 8959   5.574  14.175   4.081
 2376SOL    HW1 8960   5.531  14.231   4.016
 2376SOL    HW2 8961   5.544  14.087   4.059
 2377SOL     OW 8962   1.903   1.496   2.994
 2377SOL    HW1 8963   1.897   1.537   2.907
 2377SOL    HW2 8964   1.952   1.559   3.046
 2378SOL     OW 8965   2.543  10.928   3.885
 2378SOL    HW1 8966   2.516  10.900   3.798
 2378SOL    HW2 8967   2.607  10.997   3.870
 2379SOL     OW 8968  11.975   7.910  10.991
 2379SOL    HW1 8969  11.887   7.902  11.026
 2379SOL    HW2 8970  12.031   7.864  11.053
 2380SOL     OW 8971  11.001   6.682   9.634
 2380SOL    HW1 8972  10.929   6.701   9.693
 2380SOL    HW2 8973  11.078   6.722   9.676
 2381SOL     OW 8974  11.226   9.050   6.724
 2381SOL    HW1 8975  11.240   9.103   6.802
 2381SOL    HW2 8976  11.214   9.115   6.654
 2382SOL     OW 8977  11.465   9.340   0.383
 2382SOL    HW1 8978  11.381   9.371   0.417
 2382SOL    HW2 8979  11.528   9.358   0.454
 2383SOL     OW 8980   0.065  11.599  14.765
 2383SOL    HW1 8981   0.105  11.654  14.832
 2383SOL    HW2 8982   0.089  11.641  14.682
 2384SOL     OW 8983   7.000   5.411   7.695
 2384SOL    HW1 8984   6.918   5.386   7.654
 2384SOL    HW2 8985   7.017   5.500   7.664
 2385SOL     OW 8986   8.225   9.804   2.206
 2385SOL    HW1 8987   8.228   9.720   2.160
 2385SOL    HW2 8988   8.315   9.838   2.199
 2386SOL     OW 8989   0.772   6.623   1.764
 2386SOL    HW1 8990   0.820   6.541   1.774
 2386SOL    HW2 8991   0.769   6.660   1.852
 2387SOL     OW 8992   2.911   0.253  11.041
 2387SOL    HW1 8993   3.002   0.230  11.025
 2387SOL    HW2 8994   2.890   0.213  11.125
 2388SOL     OW 8995   4.831   5.278   9.903
 2388SOL    HW1 8996   4.825   5.361   9.856
 2388SOL    HW2 8997   4.820   5.302   9.995
 2389SOL     OW 8998   8.737   8.417   3.548
 2389SOL    HW1 8999   8.752   8.485   3.482
 2389SOL    HW2 9000   8.741   8.335   3.500
 2390SOL     OW 9001   5.850   9.216   4.628
 2390SOL    HW1 9002   5.902   9.271   4.569
 2390SOL    HW2 9003   5.889   9.129   4.620
 2391SOL     OW 9004   2.319   6.914   2.424
 2391SOL    HW1 9005   2.400   6.864   2.431
 2391SOL    HW2 9006   2.332   6.971   2.348
 2392SOL     OW 9007  11.625   7.660   1.434
 2392SOL    HW1 9008  11.658   7.650   1.345
 2392SOL    HW2 9009  11.555   7.725   1.427
 2393SOL     OW 9010  13.873   4.506  11.085
 2393SOL    HW1 9011  13.787   4.486  11.048
 2393SOL    HW2 9012  13.935   4.468  11.022
 2394SOL     OW 9013   1.611   3.712   4.147
 2394SOL    HW1 9014   1.694   3.672   4.121
 2394SOL    HW2 9015   1.591   3.774   4.077
 2395SOL     OW 9016   7.556   1.785   1.782
 2395SOL    HW1 9017   7.536   1.815   1.871
 2395SOL    HW2 9018   7.642   1.823   1.763
 2396SOL     OW 9019   5.286   1.667   7.194
 2396SOL    HW1 9020   5.319   1.748   7.155
 2396SOL    HW2 9021   5.362   1.609   7.196
 2397SOL     OW 9022   1.981  13.704   0.827
 2397SOL    HW1 9023   1.911  13.665   0.775
 2397SOL    HW2 9024   1.939  13.731   0.909
 2398SOL     OW 9025  12.296  14.567   6.828
 2398SOL    HW1 9026  12.382  14.609   6.830
 2398SOL    HW2 9027  12.238  14.630   6.870
 2399SOL     OW 9028   0.194   2.281   6.982
 2399SOL    HW1 9029   0.108   2.287   7.023
 2399SOL    HW2 9030   0.183   2.321   6.895
 2400SOL     OW 9031   7.572   0.068   0.174
 2400SOL    HW1 9032   7.592   0.023   0.256
 2400SOL    HW2 9033   7.483   0.102   0.186
 2401SOL     OW 9034  12.073   8.098  13.849
 2401SOL    HW1 9035  12.151   8.117  13.796
 2401SOL    HW2 9036  12.080   8.005  13.869
 2402SOL     OW 9037   2.824   6.512   0.637
 2402SOL    HW1 9038   2.757   6.574   0.609
 2402SOL    HW2 9039   2.776   6.432   0.655
 2403SOL     OW 9040   1.271   9.702  13.071
 2403SOL    HW1 9041   1.291   9.713  13.164
 2403SOL    HW2 9042   1.356   9.707  13.028
 2404SOL     OW 9043   2.242   7.785   4.151
 2404SOL    HW1 9044   2.258   7.703   4.198
 2404SOL    HW2 9045   2.326   7.831   4.154
 2405SOL     OW 9046   3.286  11.393   1.964
 2405SOL    HW1 9047   3.335  11.332   1.910
 2405SOL    HW2 9048   3.222  11.338   2.010
 2406SOL     OW 9049   3.749   3.129   2.346
 2406SOL    HW1 9050   3.830   3.084   2.320
 2406SOL    HW2 9051   3.725   3.088   2.429
 2407SOL     OW 9052   9.457   2.291   6.773
 2407SOL    HW1 9053   9.475   2.197   6.778
 2407SOL    HW2 9054   9.474   2.323   6.862
 2408SOL     OW 9055  11.994   3.371  13.626
 2408SOL    HW1 9056  12.017   3.303  13.690
 2408SOL    HW2 9057  11.978   3.322  13.545
 2409SOL     OW 9058  11.182   6.127   1.142
 2409SOL    HW1 9059  11.233   6.078   1.077
 2409SOL    HW2 9060  11.091   6.111   1.118
 2410SOL     OW 9061   0.423   5.542   8.388
 2410SOL    HW1 9062   0.435   5.478   8.319
 2410SOL    HW2 9063   0.328   5.552   8.396
 2411SOL     OW 9064  10.817   3.248   6.034
 2411SOL    HW1 9065  10.841   3.171   6.086
 2411SOL    HW2 9066  10.865   3.236   5.951
 2412SOL     OW 9067   6.553  14.293  11.151
 2412SOL    HW1 9068   6.535  14.301  11.058
 2412SOL    HW2 9069   6.596  14.376  11.175
 2413SOL     OW 9070   4.590  14.023   8.936
 2413SOL    HW1 9071   4.579  13.960   9.007
 2413SOL    HW2 9072   4.631  14.099   8.976
 2414SOL     OW 9073   4.425   6.559   0.587
 2414SOL    HW1 9074   4.477   6.525   0.514
 2414SOL    HW2 9075   4.454   6.650   0.596
 2415SOL     OW 9076  10.802   4.180   6.172
 2415SOL    HW1 9077  10.790   4.267   6.210
 2415SOL    HW2 9078  10.758   4.121   6.233
 2416SOL     OW 9079  14.047   4.544   3.174
 2416SOL    HW1 9080  14.069   4.622   3.124
 2416SOL    HW2 9081  13.983   4.575   3.239
 2417SOL     OW 9082   2.827  11.133   4.196
 2417SOL    HW1 9083   2.860  11.081   4.123
 2417SOL    HW2 9084   2.749  11.176   4.162
 2418SOL     OW 9085   5.914   8.224  12.005
 2418SOL    HW1 9086   5.893   8.200  12.095
 2418SOL    HW2 9087   5.829   8.231  11.961
 2419SOL     OW 9088   8.162   7.498   1.139
 2419SOL    HW1 9089   8.207   7.546   1.207
 2419SOL    HW2 9090   8.107   7.563   1.095
 2420SOL     OW 9091  14.593   3.624   0.892
 2420SOL    HW1 9092  14.611   3.710   0.931
 2420SOL    HW2 9093  14.594   3.563   0.966
 2421SOL     OW 9094   7.459   8.391  14.161
 2421SOL    HW1 9095   7.378   8.367  14.206
 2421SOL    HW2 9096   7.432   8.408  14.071
 2422SOL     OW 9097  11.651  13.480   5.673
 2422SOL    HW1 9098  11.617  13.491   5.584
 2422SOL    HW2 9099  11.630  13.563   5.717
 2423SOL     OW 9100  12.244   2.626   4.061
 2423SOL    HW1 9101  12.154   2.595   4.056
 2423SOL    HW2 9102  12.289   2.581   3.989
 2424SOL     OW 9103   0.308   7.498  13.395
 2424SOL    HW1 9104   0.224   7.487  13.440
 2424SOL    HW2 9105   0.323   7.593  13.396
 2425SOL     OW 9106   7.162   5.201   0.378
 2425SOL    HW1 9107   7.076   5.189   0.418
 2425SOL    HW2 9108   7.218   5.230   0.450
 2426SOL     OW 9109   7.046   4.570   7.335
 2426SOL    HW1 9110   6.956   4.556   7.305
 2426SOL    HW2 9111   7.037   4.627   7.412
 2427SOL     OW 9112   6.616  13.828   5.589
 2427SOL    HW1 9113   6.549  13.808   5.524
 2427SOL    HW2 9114   6.694  13.847   5.538
 2428SOL     OW 9115   0.806  13.216   8.608
 2428SOL    HW1 9116   0.743  13.288   8.617
 2428SOL    HW2 9117   0.760  13.140   8.643
 2429SOL     OW 9118   9.887   9.832   1.995
 2429SOL    HW1 9119   9.913   9.769   1.927
 2429SOL    HW2 9120   9.965   9.841   2.050
 2430SOL     OW 9121   0.042   6.265  12.708
 2430SOL    HW1 9122   0.004   6.349  12.680
 2430SOL    HW2 9123   0.000   6.246  12.791
 2431SOL     OW 9124   7.358   9.042  13.804
 2431SOL    HW1 9125   7.347   9.085  13.719
 2431SOL    HW2 9126   7.418   8.970  13.786
 2432SOL     OW 9127  12.931  13.579  11.680
 2432SOL    HW1 9128  13.013  13.628  11.689
 2432SOL    HW2 9129  12.937  13.540  11.592
 2433SOL     OW 9130   1.958   0.236   9.649
 2433SOL    HW1 9131   1.981   0.305   9.711
 2433SOL    HW2 9132   2.042   0.197   9.624
 2434SOL     OW 9133   7.404   7.899   7.087
 2434SOL    HW1 9134   7.328   7.950   7.115
 2434SOL    HW2 9135   7.466   7.907   7.160
 2435SOL     OW 9136  10.028  14.074  11.071
 2435SOL    HW1 9137   9.992  14.147  11.020
 2435SOL    HW2 9138  10.025  14.104  11.162
 2436SOL     OW 9139   4.364  13.797   2.463
 2436SOL    HW1 9140   4.424  13.867   2.488
 2436SOL    HW2 9141   4.303  13.790   2.536
 2437SOL     OW 9142   7.142   6.770   5.533
 2437SOL    HW1 9143   7.059   6.808   5.503
 2437SOL    HW2 9144   7.164   6.821   5.611
 2438SOL     OW 9145   8.566  13.239   0.419
 2438SOL    HW1 9146   8.621  13.163   0.403
 2438SOL    HW2 9147   8.619  13.296   0.474
 2439SOL     OW 9148   2.844   0.164  14.057
 2439SOL    HW1 9149   2.847   0.259  14.071
 2439SOL    HW2 9150   2.767   0.135  14.106
 2440SOL     OW 9151  12.950   0.992   4.322
 2440SOL    HW1 9152  12.946   1.045   4.243
 2440SOL    HW2 9153  12.975   1.053   4.391
 2441SOL     OW 9154   9.439   0.045   5.334
 2441SOL    HW1 9155   9.462   0.104   5.262
 2441SOL    HW2 9156   9.344   0.055   5.344
 2442SOL     OW 9157  10.918   3.855  11.452
 2442SOL    HW1 9158  10.869   3.804  11.516
 2442SOL    HW2 9159  10.971   3.791  11.405
 2443SOL     OW 9160   5.806   3.976   3.247
 2443SOL    HW1 9161   5.884   3.935   3.209
 2443SOL    HW2 9162   5.772   3.909   3.307
 2444SOL     OW 9163   5.195  14.487  13.731
 2444SOL    HW1 9164   5.226  14.404  13.694
 2444SOL    HW2 9165   5.252  14.503  13.806
 2445SOL     OW 9166   6.025   0.603   3.502
 2445SOL    HW1 9167   6.043   0.516   3.467
 2445SOL    HW2 9168   5.996   0.587   3.592
 2446SOL     OW 9169  13.718   3.624  13.065
 2446SOL    HW1 9170  13.739   3.552  13.124
 2446SOL    HW2 9171  13.643   3.667  13.105
 2447SOL     OW 9172   2.573   4.134   3.515
 2447SOL    HW1 9173   2.489   4.132   3.561
 2447SOL    HW2 9174   2.589   4.043   3.491
 2448SOL     OW 9175   5.497  13.178   2.673
 2448SOL    HW1 9176   5.506  13.125   2.753
 2448SOL    HW2 9177   5.547  13.258   2.692
 2449SOL     OW 9178   1.355  12.978   0.256
 2449SOL    HW1 9179   1.428  12.918   0.268
 2449SOL    HW2 9180   1.278  12.928   0.283
 2450SOL     OW 9181   0.671   6.489   6.559
 2450SOL    HW1 9182   0.668   6.433   6.637
 2450SOL    HW2 9183   0.579   6.508   6.539
 2451SOL     OW 9184   3.386   0.515  11.403
 2451SOL    HW1 9185   3.459   0.470  11.445
 2451SOL    HW2 9186   3.331   0.545  11.475
 2452SOL     OW 9187   9.425   6.102   2.586
 2452SOL    HW1 9188   9.438   6.011   2.560
 2452SOL    HW2 9189   9.454   6.105   2.677
 2453SOL     OW 9190  12.768   9.762   5.060
 2453SOL    HW1 9191  12.841   9.805   5.016
 2453SOL    HW2 9192  12.805   9.732   5.143
 2454SOL     OW 9193   7.705   1.111   5.832
 2454SOL    HW1 9194   7.690   1.205   5.846
 2454SOL    HW2 9195   7.619   1.071   5.840
 2455SOL     OW 9196   8.566   0.993   5.490
 2455SOL    HW1 9197   8.557   1.028   5.402
 2455SOL    HW2 9198   8.478   0.999   5.527
 2456SOL     OW 9199   7.648  12.759   0.562
 2456SOL    HW1 9200   7.666  12.825   0.629
 2456SOL    HW2 9201   7.705  12.686   0.585
 2457SOL     OW 9202   1.696  11.394   7.043
 2457SOL    HW1 9203   1.676  11.471   7.097
 2457SOL    HW2 9204   1.756  11.427   6.977
 2458SOL     OW 9205  13.355   8.797   1.856
 2458SOL    HW1 9206  13.297   8.814   1.782
 2458SOL    HW2 9207  13.385   8.883   1.883
 2459SOL     OW 9208   4.774  13.830  14.545
 2459SOL    HW1 9209   4.707  13.802  14.608
 2459SOL    HW2 9210   4.725  13.871  14.474
 2460SOL     OW 9211  13.603   7.324   9.987
 2460SOL    HW1 9212  13.636   7.254  10.044
 2460SOL    HW2 9213  13.679   7.353   9.937
 2461SOL     OW 9214  13.174  12.254   4.947
 2461SOL    HW1 9215  13.209  12.342   4.960
 2461SOL    HW2 9216  13.109  12.264   4.878
 2462SOL     OW 9217   5.220   4.412  12.082
 2462SOL    HW1 9218   5.207   4.498  12.042
 2462SOL    HW2 9219   5.228   4.352  12.008
 2463SOL     OW 9220   0.634   8.897  11.396
 2463SOL    HW1 9221   0.691   8.820  11.401
 2463SOL    HW2 9222   0.679   8.964  11.446
 2464SOL     OW 9223   0.146   0.152   3.648
 2464SOL    HW1 9224   0.095   0.159   3.728
 2464SOL    HW2 9225   0.225   0.104   3.674
 2465SOL     OW 9226  13.144   2.709   5.151
 2465SOL    HW1 9227  13.238   2.717   5.136
 2465SOL    HW2 9228  13.130   2.615   5.165
 2466SOL     OW 9229  11.270  10.982   4.279
 2466SOL    HW1 9230  11.352  11.026   4.258
 2466SOL    HW2 9231  11.288  10.937   4.362
 2467SOL     OW 9232  11.819   5.119  10.366
 2467SOL    HW1 9233  11.814   5.024  10.360
 2467SOL    HW2 9234  11.760   5.142  10.438
 2468SOL     OW 9235  13.385  12.611  13.756
 2468SOL    HW1 9236  13.396  12.703  13.734
 2468SOL    HW2 9237  13.294  12.604  13.785
 2469SOL     OW 9238   2.155   3.297   3.004
 2469SOL    HW1 9239   2.170   3.366   3.069
 2469SOL    HW2 9240   2.070   3.260   3.027
 2470SOL     OW 9241  13.911   6.045  14.123
 2470SOL    HW1 9242  13.925   6.088  14.039
 2470SOL    HW2 9243  13.911   5.952  14.102
 2471SOL     OW 9244   2.101   2.854   4.862
 2471SOL    HW1 9245   2.091   2.948   4.850
 2471SOL    HW2 9246   2.045   2.815   4.795
 2472SOL     OW 9247   0.778   1.032  13.811
 2472SOL    HW1 9248   0.826   0.969  13.758
 2472SOL    HW2 9249   0.799   1.117  13.773
 2473SOL     OW 9250  12.177   2.791  13.715
 2473SOL    HW1 9251  12.242   2.815  13.650
 2473SOL    HW2 9252  12.224   2.735  13.777
 2474SOL     OW 9253   0.781   7.485   4.008
 2474SOL    HW1 9254   0.817   7.444   4.086
 2474SOL    HW2 9255   0.837   7.454   3.937
 2475SOL     OW 9256   7.322   5.412   2.181
 2475SOL    HW1 9257   7.344   5.491   2.229
 2475SOL    HW2 9258   7.246   5.377   2.227
 2476SOL     OW 9259   0.681   6.153  13.521
 2476SOL    HW1 9260   0.682   6.161  13.426
 2476SOL    HW2 9261   0.601   6.103  13.540
 2477SOL     OW 9262   3.635   5.576   9.543
 2477SOL    HW1 9263   3.726   5.553   9.558
 2477SOL    HW2 9264   3.601   5.597   9.631
 2478SOL     OW 9265   8.976  11.284   6.418
 2478SOL    HW1 9266   8.983  11.233   6.498
 2478SOL    HW2 9267   8.977  11.219   6.348
 2479SOL     OW 9268   0.824   3.561  14.837
 2479SOL    HW1 9269   0.793   3.619  14.767
 2479SOL    HW2 9270   0.809   3.473  14.803
 2480SOL     OW 9271  11.340  13.437  14.647
 2480SOL    HW1 9272  11.349  13.403  14.736
 2480SOL    HW2 9273  11.248  13.461  14.639
 2481SOL     OW 9274  12.723  11.623  10.843
 2481SOL    HW1 9275  12.797  11.564  10.857
 2481SOL    HW2 9276  12.696  11.650  10.931
 2482SOL     OW 9277   2.658   3.874   6.083
 2482SOL    HW1 9278   2.737   3.893   6.132
 2482SOL    HW2 9279   2.587   3.903   6.140
 2483SOL     OW 9280   5.623  10.756  13.898
 2483SOL    HW1 9281   5.696  10.806  13.859
 2483SOL    HW2 9282   5.567  10.734  13.823
 2484SOL     OW 9283   0.912   3.456   2.915
 2484SOL    HW1 9284   0.999   3.417   2.909
 2484SOL    HW2 9285   0.927   3.550   2.910
 2485SOL     OW 9286  10.509   3.469  14.125
 2485SOL    HW1 9287  10.499   3.559  14.155
 2485SOL    HW2 9288  10.510   3.475  14.030
 2486SOL     OW 9289   6.284  14.234  13.334
 2486SOL    HW1 9290   6.203  14.274  13.301
 2486SOL    HW2 9291   6.269  14.224  13.428
 2487SOL     OW 9292   9.188   3.658  11.966
 2487SOL    HW1 9293   9.247   3.733  11.963
 2487SOL    HW2 9294   9.104   3.695  11.994
 2488SOL     OW 9295   0.958  10.679  12.973
 2488SOL    HW1 9296   0.935  10.756  12.923
 2488SOL    HW2 9297   0.930  10.699  13.063
 2489SOL     OW 9298  14.658   4.009   8.656
 2489SOL    HW1 9299  14.706   3.930   8.683
 2489SOL    HW2 9300  14.638   4.055   8.738
 2490SOL     OW 9301   4.113  14.264   9.885
 2490SOL    HW1 9302   4.107  14.290   9.977
 2490SOL    HW2 9303   4.092  14.171   9.886
 2491SOL     OW 9304   2.216   7.845  12.572
 2491SOL    HW1 9305   2.205   7.939  12.558
 2491SOL    HW2 9306   2.262   7.815  12.494
 2492SOL     OW 9307   1.745   2.651   0.181
 2492SOL    HW1 9308   1.797   2.660   0.261
 2492SOL    HW2 9309   1.785   2.714   0.120
 2493SOL     OW 9310  12.256   0.925   6.412
 2493SOL    HW1 9311  12.308   0.996   6.375
 2493SOL    HW2 9312  12.252   0.860   6.342
 2494SOL     OW 9313   2.010   1.041  12.827
 2494SOL    HW1 9314   2.007   0.955  12.785
 2494SOL    HW2 9315   2.012   1.021  12.921
 2495SOL     OW 9316   5.382   5.387   3.330
 2495SOL    HW1 9317   5.458   5.431   3.291
 2495SOL    HW2 9318   5.398   5.293   3.315
 2496SOL     OW 9319  10.369  13.217   1.693
 2496SOL    HW1 9320  10.396  13.181   1.608
 2496SOL    HW2 9321  10.337  13.304   1.672
 2497SOL     OW 9322  14.163   8.587   4.021
 2497SOL    HW1 9323  14.104   8.551   3.955
 2497SOL    HW2 9324  14.249   8.552   3.998
 2498SOL     OW 9325   7.024   9.849   9.338
 2498SOL    HW1 9326   7.007   9.927   9.391
 2498SOL    HW2 9327   6.937   9.821   9.310
 2499SOL     OW 9328   7.196  12.319   3.838
 2499SOL    HW1 9329   7.176  12.362   3.921
 2499SOL    HW2 9330   7.258  12.378   3.795
 2500SOL     OW 9331   6.101   5.351  12.044
 2500SOL    HW1 9332   6.189   5.371  12.013
 2500SOL    HW2 9333   6.050   5.429  12.022
 2501SOL     OW 9334   5.018   4.056  14.535
 2501SOL    HW1 9335   4.983   3.971  14.561
 2501SOL    HW2 9336   4.960   4.085  14.464
 2502SOL     OW 9337   0.312   8.798  13.925
 2502SOL    HW1 9338   0.284   8.888  13.945
 2502SOL    HW2 9339   0.323   8.757  14.011
 2503SOL     OW 9340  13.572  13.030   6.839
 2503SOL    HW1 9341  13.643  13.094   6.834
 2503SOL    HW2 9342  13.539  13.037   6.928
 2504SOL     OW 9343  12.288   1.287   3.718
 2504SOL    HW1 9344  12.205   1.306   3.675
 2504SOL    HW2 9345  12.279   1.322   3.806
 2505SOL     OW 9346   9.251   3.520   5.885
 2505SOL    HW1 9347   9.276   3.612   5.895
 2505SOL    HW2 9348   9.208   3.515   5.800
 2506SOL     OW 9349  12.538   2.770  13.558
 2506SOL    HW1 9350  12.554   2.685  13.516
 2506SOL    HW2 9351  12.620   2.818  13.545
 2507SOL     OW 9352   8.358   3.349   6.571
 2507SOL    HW1 9353   8.429   3.326   6.511
 2507SOL    HW2 9354   8.392   3.423   6.621
 2508SOL     OW 9355   6.074   0.953  14.455
 2508SOL    HW1 9356   6.015   0.920  14.523
 2508SOL    HW2 9357   6.020   0.955  14.375
 2509SOL     OW 9358   0.655   4.623   3.517
 2509SOL    HW1 9359   0.593   4.682   3.474
 2509SOL    HW2 9360   0.600   4.561   3.566
 2510SOL     OW 9361   3.640   0.472   6.811
 2510SOL    HW1 9362   3.701   0.520   6.755
 2510SOL    HW2 9363   3.637   0.384   6.773
 2511SOL     OW 9364   4.673  11.736  11.289
 2511SOL    HW1 9365   4.752  11.756  11.239
 2511SOL    HW2 9366   4.660  11.811  11.346
 2512SOL     OW 9367  13.825   0.911   5.185
 2512SOL    HW1 9368  13.820   0.956   5.269
 2512SOL    HW2 9369  13.917   0.884   5.178
 2513SOL     OW 9370   6.630   7.248   2.007
 2513SOL    HW1 9371   6.718   7.285   2.010
 2513SOL    HW2 9372   6.585   7.286   2.083
 2514SOL     OW 9373   9.804  13.830   1.175
 2514SOL    HW1 9374   9.760  13.746   1.170
 2514SOL    HW2 9375   9.783  13.873   1.092
 2515SOL     OW 9376   2.531  13.547   8.647
 2515SOL    HW1 9377   2.476  13.612   8.604
 2515SOL    HW2 9378   2.600  13.598   8.689
 2516SOL     OW 9379   7.155   8.872   7.727
 2516SOL    HW1 9380   7.169   8.962   7.756
 2516SOL    HW2 9381   7.240   8.829   7.739
 2517SOL     OW 9382   6.611  10.452   8.123
 2517SOL    HW1 9383   6.666  10.506   8.180
 2517SOL    HW2 9384   6.527  10.499   8.120
 2518SOL     OW 9385   2.737  14.350  11.091
 2518SOL    HW1 9386   2.653  14.394  11.107
 2518SOL    HW2 9387   2.764  14.319  11.178
 2519SOL     OW 9388   4.016  14.204   8.926
 2519SOL    HW1 9389   4.107  14.198   8.897
 2519SOL    HW2 9390   3.999  14.298   8.935
 2520SOL     OW 9391  13.069   3.334   9.166
 2520SOL    HW1 9392  13.041   3.424   9.183
 2520SOL    HW2 9393  13.125   3.341   9.089
 2521SOL     OW 9394   1.281  13.248  13.779
 2521SOL    HW1 9395   1.323  13.166  13.803
 2521SOL    HW2 9396   1.320  13.272  13.695
 2522SOL     OW 9397   1.177  14.812   2.325
 2522SOL    HW1 9398   1.099  14.863   2.347
 2522SOL    HW2 9399   1.250  14.864   2.361
 2523SOL     OW 9400   1.360   8.870  11.951
 2523SOL    HW1 9401   1.271   8.856  11.983
 2523SOL    HW2 9402   1.395   8.942  12.004
 2524SOL     OW 9403   3.039   4.556   3.287
 2524SOL    HW1 9404   2.968   4.557   3.223
 2524SOL    HW2 9405   3.011   4.493   3.354
 2525SOL     OW 9406  11.141   6.702   1.468
 2525SOL    HW1 9407  11.216   6.751   1.504
 2525SOL    HW2 9408  11.144   6.618   1.513
 2526SOL     OW 9409   5.521  10.719   3.604
 2526SOL    HW1 9410   5.517  10.799   3.552
 2526SOL    HW2 9411   5.606  10.680   3.583
 2527SOL     OW 9412   5.717   3.963  11.248
 2527SOL    HW1 9413   5.771   3.894  11.210
 2527SOL    HW2 9414   5.752   3.977  11.335
 2528SOL     OW 9415   8.519   2.869   2.824
 2528SOL    HW1 9416   8.440   2.911   2.860
 2528SOL    HW2 9417   8.569   2.941   2.786
 2529SOL     OW 9418  11.058   5.725   0.891
 2529SOL    HW1 9419  11.150   5.699   0.883
 2529SOL    HW2 9420  11.038   5.713   0.984
 2530SOL     OW 9421   1.108   7.627  10.968
 2530SOL    HW1 9422   1.015   7.639  10.985
 2530SOL    HW2 9423   1.150   7.646  11.052
 2531SOL     OW 9424   7.579   0.213   5.018
 2531SOL    HW1 9425   7.642   0.282   4.999
 2531SOL    HW2 9426   7.593   0.148   4.950
 2532SOL     OW 9427   8.957   2.483  13.058
 2532SOL    HW1 9428   8.869   2.454  13.083
 2532SOL    HW2 9429   8.966   2.568  13.100
 2533SOL     OW 9430   1.558   4.051  11.811
 2533SOL    HW1 9431   1.523   3.980  11.866
 2533SOL    HW2 9432   1.574   4.009  11.727
 2534SOL     OW 9433   0.220  10.767   2.395
 2534SOL    HW1 9434   0.153  10.785   2.329
 2534SOL    HW2 9435   0.225  10.672   2.400
 2535SOL     OW 9436  10.749   8.485   1.437
 2535SOL    HW1 9437  10.731   8.505   1.345
 2535SOL    HW2 9438  10.718   8.562   1.484
 2536SOL     OW 9439  10.206  11.075   9.166
 2536SOL    HW1 9440  10.195  11.144   9.102
 2536SOL    HW2 9441  10.152  11.003   9.134
 2537SOL     OW 9442  11.833   1.825   1.050
 2537SOL    HW1 9443  11.886   1.899   1.077
 2537SOL    HW2 9444  11.880   1.786   0.976
 2538SOL     OW 9445   9.274   9.460   8.524
 2538SOL    HW1 9446   9.192   9.439   8.569
 2538SOL    HW2 9447   9.311   9.533   8.574
 2539SOL     OW 9448   3.160   0.399   7.451
 2539SOL    HW1 9449   3.125   0.390   7.540
 2539SOL    HW2 9450   3.141   0.490   7.427
 2540SOL     OW 9451   4.115   2.305  14.424
 2540SOL    HW1 9452   4.147   2.240  14.487
 2540SOL    HW2 9453   4.020   2.298  14.428
 2541SOL     OW 9454   4.592   2.949   3.574
 2541SOL    HW1 9455   4.661   3.011   3.549
 2541SOL    HW2 9456   4.523   2.963   3.508
 2542SOL     OW 9457  14.847  11.051  11.243
 2542SOL    HW1 9458   0.038  11.089  11.192
 2542SOL    HW2 9459  14.873  10.960  11.258
 2543SOL     OW 9460  10.404  14.756  14.571
 2543SOL    HW1 9461  10.342  14.683  14.574
 2543SOL    HW2 9462  10.348  14.833  14.553
 2544SOL     OW 9463  12.515   9.175   3.771
 2544SOL    HW1 9464  12.582   9.175   3.702
 2544SOL    HW2 9465  12.563   9.198   3.851
 2545SOL     OW 9466   2.636   3.506   2.549
 2545SOL    HW1 9467   2.681   3.430   2.511
 2545SOL    HW2 9468   2.706   3.563   2.580
 2546SOL     OW 9469   6.014   8.383   3.411
 2546SOL    HW1 9470   6.107   8.386   3.431
 2546SOL    HW2 9471   5.973   8.343   3.488
 2547SOL     OW 9472   6.864   3.159   8.553
 2547SOL    HW1 9473   6.902   3.247   8.558
 2547SOL    HW2 9474   6.859   3.130   8.644
 2548SOL     OW 9475  14.521   3.370  14.705
 2548SOL    HW1 9476  14.577   3.367  14.783
 2548SOL    HW2 9477  14.442   3.322  14.730
 2549SOL     OW 9478   1.565   4.500   8.263
 2549SOL    HW1 9479   1.606   4.574   8.218
 2549SOL    HW2 9480   1.498   4.540   8.319
 2550SOL     OW 9481  11.133  12.355  11.829
 2550SOL    HW1 9482  11.215  12.402  11.846
 2550SOL    HW2 9483  11.162  12.270  11.794
 2551SOL     OW 9484   9.476   6.124   6.011
 2551SOL    HW1 9485   9.397   6.178   6.013
 2551SOL    HW2 9486   9.444   6.036   5.989
 2552SOL     OW 9487   6.313   9.327  10.594
 2552SOL    HW1 9488   6.273   9.273  10.526
 2552SOL    HW2 9489   6.385   9.372  10.550
 2553SOL     OW 9490   7.200   7.541   8.614
 2553SOL    HW1 9491   7.292   7.565   8.625
 2553SOL    HW2 9492   7.170   7.519   8.703
 2554SOL     OW 9493   2.630   4.417   4.830
 2554SOL    HW1 9494   2.542   4.380   4.825
 2554SOL    HW2 9495   2.629   4.491   4.770
 2555SOL     OW 9496  11.747   6.846  13.770
 2555SOL    HW1 9497  11.694   6.849  13.690
 2555SOL    HW2 9498  11.835   6.870  13.742
 2556SOL     OW 9499   2.589   6.308   9.447
 2556SOL    HW1 9500   2.648   6.349   9.384
 2556SOL    HW2 9501   2.509   6.291   9.397
 2557SOL     OW 9502   8.553  12.469   6.036
 2557SOL    HW1 9503   8.474  12.517   6.057
 2557SOL    HW2 9504   8.523  12.392   5.987
 2558SOL     OW 9505  12.166  10.876   6.098
 2558SOL    HW1 9506  12.139  10.785   6.112
 2558SOL    HW2 9507  12.126  10.899   6.014
 2559SOL     OW 9508   0.361  10.058   5.770
 2559SOL    HW1 9509   0.420  10.134   5.776
 2559SOL    HW2 9510   0.318  10.055   5.856
 2560SOL     OW 9511  12.741   1.285   7.820
 2560SOL    HW1 9512  12.792   1.219   7.867
 2560SOL    HW2 9513  12.703   1.339   7.889
 2561SOL     OW 9514   0.317  11.221   3.190
 2561SOL    HW1 9515   0.274  11.236   3.106
 2561SOL    HW2 9516   0.407  11.198   3.166
 2562SOL     OW 9517  13.529  10.144   8.431
 2562SOL    HW1 9518  13.614  10.182   8.410
 2562SOL    HW2 9519  13.466  10.196   8.381
 2563SOL     OW 9520   8.887   7.784  10.990
 2563SOL    HW1 9521   8.960   7.773  10.929
 2563SOL    HW2 9522   8.809   7.763  10.937
 2564SOL     OW 9523  12.886   5.354   6.613
 2564SOL    HW1 9524  12.955   5.333   6.675
 2564SOL    HW2 9525  12.913   5.436   6.573
 2565SOL     OW 9526   2.167   9.204  14.318
 2565SOL    HW1 9527   2.235   9.137  14.323
 2565SOL    HW2 9528   2.086   9.156  14.305
 2566SOL     OW 9529   4.765   4.022   2.443
 2566SOL    HW1 9530   4.803   3.945   2.400
 2566SOL    HW2 9531   4.768   4.091   2.376
 2567SOL     OW 9532  10.248   4.144   1.863
 2567SOL    HW1 9533  10.186   4.199   1.913
 2567SOL    HW2 9534  10.254   4.187   1.778
 2568SOL     OW 9535   9.244   2.003   4.292
 2568SOL    HW1 9536   9.280   2.011   4.204
 2568SOL    HW2 9537   9.317   2.025   4.350
 2569SOL     OW 9538  12.114  13.443   6.641
 2569SOL    HW1 9539  12.081  13.390   6.568
 2569SOL    HW2 9540  12.205  13.415   6.651
 2570SOL     OW 9541   7.305  11.691   9.697
 2570SOL    HW1 9542   7.333  11.783   9.702
 2570SOL    HW2 9543   7.304  11.662   9.789
 2571SOL     OW 9544   4.075  13.875   3.691
 2571SOL    HW1 9545   4.104  13.966   3.699
 2571SOL    HW2 9546   4.043  13.867   3.601
 2572SOL     OW 9547   7.022   9.329   9.202
 2572SOL    HW1 9548   7.032   9.370   9.117
 2572SOL    HW2 9549   6.930   9.302   9.205
 2573SOL     OW 9550   3.501  14.223   3.152
 2573SOL    HW1 9551   3.434  14.158   3.172
 2573SOL    HW2 9552   3.467  14.269   3.075
 2574SOL     OW 9553  13.070  11.555  10.033
 2574SOL    HW1 9554  13.096  11.578  10.122
 2574SOL    HW2 9555  12.999  11.492  10.044
 2575SOL     OW 9556   2.063  12.221   6.220
 2575SOL    HW1 9557   2.038  12.288   6.283
 2575SOL    HW2 9558   2.148  12.189   6.250
 2576SOL     OW 9559   3.621   4.284  12.071
 2576SOL    HW1 9560   3.680   4.296  11.998
 2576SOL    HW2 9561   3.533   4.289  12.033
 2577SOL     OW 9562   3.672   9.090   0.198
 2577SOL    HW1 9563   3.619   9.084   0.277
 2577SOL    HW2 9564   3.670   9.183   0.175
 2578SOL     OW 9565   8.013  14.864  10.380
 2578SOL    HW1 9566   7.990  14.771  10.379
 2578SOL    HW2 9567   7.981   0.014  10.464
 2579SOL     OW 9568  11.991   3.153   6.094
 2579SOL    HW1 9569  12.012   3.146   6.187
 2579SOL    HW2 9570  11.994   3.063   6.062
 2580SOL     OW 9571   1.683   7.311  14.074
 2580SOL    HW1 9572   1.727   7.240  14.027
 2580SOL    HW2 9573   1.663   7.375  14.005
 2581SOL     OW 9574   4.856  14.088  10.194
 2581SOL    HW1 9575   4.810  14.172  10.186
 2581SOL    HW2 9576   4.941  14.111  10.233
 2582SOL     OW 9577   0.729   6.064   8.167
 2582SOL    HW1 9578   0.697   6.127   8.102
 2582SOL    HW2 9579   0.686   5.982   8.143
 2583SOL     OW 9580   8.217  14.208   1.661
 2583SOL    HW1 9581   8.167  14.222   1.742
 2583SOL    HW2 9582   8.221  14.295   1.620
 2584SOL     OW 9583   1.640  12.150   2.641
 2584SOL    HW1 9584   1.729  12.120   2.659
 2584SOL    HW2 9585   1.642  12.244   2.659
 2585SOL     OW 9586  14.874  13.637  14.205
 2585SOL    HW1 9587   0.081  13.629  14.171
 2585SOL    HW2 9588  14.829  13.692  14.141
 2586SOL     OW 9589   2.247  13.049  12.842
 2586SOL    HW1 9590   2.174  13.101  12.807
 2586SOL    HW2 9591   2.302  13.031  12.766
 2587SOL     OW 9592  11.003   5.784   9.205
 2587SOL    HW1 9593  10.934   5.725   9.175
 2587SOL    HW2 9594  11.085   5.740   9.179
 2588SOL     OW 9595   7.817  12.804  13.209
 2588SOL    HW1 9596   7.869  12.733  13.246
 2588SOL    HW2 9597   7.727  12.772  13.209
 2589SOL     OW 9598  11.443   5.579   2.008
 2589SOL    HW1 9599  11.365   5.533   2.038
 2589SOL    HW2 9600  11.445   5.566   1.913
 2590SOL     OW 9601  11.403   6.337  14.678
 2590SOL    HW1 9602  11.420   6.283  14.601
 2590SOL    HW2 9603  11.485   6.384  14.693
 2591SOL     OW 9604   4.058   4.446  10.443
 2591SOL    HW1 9605   4.010   4.500  10.380
 2591SOL    HW2 9606   4.054   4.357  10.407
 2592SOL     OW 9607  11.982  14.873   3.886
 2592SOL    HW1 9608  11.996   0.045   3.808
 2592SOL    HW2 9609  12.059  14.816   3.890
 2593SOL     OW 9610   7.464  14.099   4.767
 2593SOL    HW1 9611   7.397  14.113   4.699
 2593SOL    HW2 9612   7.535  14.158   4.742
 2594SOL     OW 9613   1.119   9.252   0.084
 2594SOL    HW1 9614   1.103   9.158   0.070
 2594SOL    HW2 9615   1.162   9.257   0.169
 2595SOL     OW 9616   5.891  10.154   6.429
 2595SOL    HW1 9617   5.813  10.207   6.443
 2595SOL    HW2 9618   5.964  10.210   6.458
 2596SOL     OW 9619  11.912  13.287   5.126
 2596SOL    HW1 9620  11.955  13.223   5.182
 2596SOL    HW2 9621  11.984  13.338   5.089
 2597SOL     OW 9622   5.821   0.626  11.391
 2597SOL    HW1 9623   5.850   0.547  11.437
 2597SOL    HW2 9624   5.893   0.688  11.403
 2598SOL     OW 9625  13.993   8.484   4.233
 2598SOL    HW1 9626  14.002   8.412   4.170
 2598SOL    HW2 9627  14.058   8.548   4.207
 2599SOL     OW 9628  10.815  10.031   3.483
 2599SOL    HW1 9629  10.887   9.972   3.504
 2599SOL    HW2 9630  10.779  10.056   3.568
 2600SOL     OW 9631   0.389   1.534  11.099
 2600SOL    HW1 9632   0.389   1.481  11.019
 2600SOL    HW2 9633   0.299   1.563  11.108
 2601SOL     OW 9634   7.184   3.451  14.820
 2601SOL    HW1 9635   7.223   3.538  14.826
 2601SOL    HW2 9636   7.090   3.468  14.809
 2602SOL     OW 9637  12.637  11.489  11.410
 2602SOL    HW1 9638  12.685  11.454  11.485
 2602SOL    HW2 9639  12.554  11.441  11.410
 2603SOL     OW 9640   9.319  14.081  10.309
 2603SOL    HW1 9641   9.367  14.105  10.230
 2603SOL    HW2 9642   9.328  14.157  10.366
 2604SOL     OW 9643  12.195   8.552   4.445
 2604SOL    HW1 9644  12.241   8.619   4.394
 2604SOL    HW2 9645  12.109   8.545   4.404
 2605SOL     OW 9646  10.729   0.096   0.649
 2605SOL    HW1 9647  10.729   0.030   0.580
 2605SOL    HW2 9648  10.756   0.048   0.728
 2606SOL     OW 9649   0.761   3.334   3.124
 2606SOL    HW1 9650   0.820   3.368   3.057
 2606SOL    HW2 9651   0.727   3.413   3.167
 2607SOL     OW 9652   5.012  14.614   2.630
 2607SOL    HW1 9653   4.943  14.627   2.566
 2607SOL    HW2 9654   5.067  14.545   2.593
 2608SOL     OW 9655  10.911   2.267   3.947
 2608SOL    HW1 9656  10.833   2.252   3.894
 2608SOL    HW2 9657  10.910   2.196   4.012
 2609SOL     OW 9658  12.211   4.542   7.824
 2609SOL    HW1 9659  12.240   4.491   7.748
 2609SOL    HW2 9660  12.130   4.583   7.795
 2610SOL     OW 9661   3.854   9.050  10.156
 2610SOL    HW1 9662   3.793   9.110  10.112
 2610SOL    HW2 9663   3.935   9.101  10.166
 2611SOL     OW 9664   8.183  12.195   4.647
 2611SOL    HW1 9665   8.181  12.289   4.632
 2611SOL    HW2 9666   8.189  12.156   4.560
 2612SOL     OW 9667  13.078   8.982  13.560
 2612SOL    HW1 9668  13.026   8.962  13.482
 2612SOL    HW2 9669  13.044   9.066  13.591
 2613SOL     OW 9670   1.530   8.409   8.243
 2613SOL    HW1 9671   1.493   8.478   8.188
 2613SOL    HW2 9672   1.550   8.452   8.326
 2614SOL     OW 9673  10.470   3.156  12.297
 2614SOL    HW1 9674  10.489   3.148  12.204
 2614SOL    HW2 9675  10.428   3.242  12.305
 2615SOL     OW 9676   2.767   6.723   1.521
 2615SOL    HW1 9677   2.700   6.768   1.470
 2615SOL    HW2 9678   2.792   6.648   1.466
 2616SOL     OW 9679  13.760   9.344   3.256
 2616SOL    HW1 9680  13.853   9.323   3.266
 2616SOL    HW2 9681  13.716   9.277   3.307
 2617SOL     OW 9682  13.385   4.517   9.476
 2617SOL    HW1 9683  13.387   4.457   9.401
 2617SOL    HW2 9684  13.411   4.601   9.441
 2618SOL     OW 9685   7.013   1.586   0.229
 2618SOL    HW1 9686   7.046   1.537   0.304
 2618SOL    HW2 9687   6.955   1.652   0.266
 2619SOL     OW 9688  12.618  13.734  14.654
 2619SOL    HW1 9689  12.571  13.818  14.647
 2619SOL    HW2 9690  12.663  13.739  14.739
 2620SOL     OW 9691   0.332  14.875   4.120
 2620SOL    HW1 9692   0.342   0.083   4.087
 2620SOL    HW2 9693   0.267   0.001   4.190
 2621SOL     OW 9694   0.430   7.508   5.170
 2621SOL    HW1 9695   0.482   7.566   5.114
 2621SOL    HW2 9696   0.457   7.530   5.259
 2622SOL     OW 9697   0.611  14.323   0.621
 2622SOL    HW1 9698   0.617  14.260   0.694
 2622SOL    HW2 9699   0.541  14.383   0.648
 2623SOL     OW 9700   9.896   1.226   6.788
 2623SOL    HW1 9701   9.987   1.233   6.760
 2623SOL    HW2 9702   9.845   1.248   6.710
 2624SOL     OW 9703   9.564   2.236  13.908
 2624SOL    HW1 9704   9.520   2.194  13.983
 2624SOL    HW2 9705   9.591   2.162  13.853
 2625SOL     OW 9706   9.788   6.033  14.872
 2625SOL    HW1 9707   9.739   6.019  14.790
 2625SOL    HW2 9708   9.724   6.066   0.052
 2626SOL     OW 9709  10.308   7.692  12.695
 2626SOL    HW1 9710  10.354   7.683  12.611
 2626SOL    HW2 9711  10.332   7.614  12.744
 2627SOL     OW 9712   7.587   3.849  10.811
 2627SOL    HW1 9713   7.621   3.759  10.808
 2627SOL    HW2 9714   7.546   3.856  10.897
 2628SOL     OW 9715  12.912  10.592   6.610
 2628SOL    HW1 9716  12.889  10.641   6.532
 2628SOL    HW2 9717  12.835  10.598   6.666
 2629SOL     OW 9718   5.168   5.419   5.048
 2629SOL    HW1 9719   5.088   5.472   5.051
 2629SOL    HW2 9720   5.169   5.372   5.132
 2630SOL     OW 9721   1.178  11.249   4.539
 2630SOL    HW1 9722   1.149  11.299   4.463
 2630SOL    HW2 9723   1.101  11.200   4.567
 2631SOL     OW 9724  13.984   4.154  13.958
 2631SOL    HW1 9725  14.035   4.217  14.008
 2631SOL    HW2 9726  14.021   4.157  13.870
 2632SOL     OW 9727   5.745   1.533   5.738
 2632SOL    HW1 9728   5.796   1.501   5.663
 2632SOL    HW2 9729   5.683   1.595   5.700
 2633SOL     OW 9730   9.553   0.751   4.541
 2633SOL    HW1 9731   9.549   0.708   4.626
 2633SOL    HW2 9732   9.633   0.718   4.501
 2634SOL     OW 9733   5.665  14.455  13.586
 2634SOL    HW1 9734   5.690  14.420  13.500
 2634SOL    HW2 9735   5.647  14.548  13.570
 2635SOL     OW 9736   6.277   1.813   4.162
 2635SOL    HW1 9737   6.227   1.890   4.135
 2635SOL    HW2 9738   6.256   1.747   4.097
 2636SOL     OW 9739   4.684  10.066   8.799
 2636SOL    HW1 9740   4.748  10.038   8.733
 2636SOL    HW2 9741   4.717  10.029   8.881
 2637SOL     OW 9742   2.876  11.030  10.493
 2637SOL    HW1 9743   2.819  11.053  10.566
 2637SOL    HW2 9744   2.888  11.111  10.444
 2638SOL     OW 9745   4.133   8.275   8.170
 2638SOL    HW1 9746   4.056   8.297   8.223
 2638SOL    HW2 9747   4.181   8.357   8.162
 2639SOL     OW 9748   4.711   2.463   2.883
 2639SOL    HW1 9749   4.768   2.535   2.855
 2639SOL    HW2 9750   4.655   2.446   2.807
 2640SOL     OW 9751   0.632  14.591  14.440
 2640SOL    HW1 9752   0.684  14.517  14.472
 2640SOL    HW2 9753   0.550  14.551  14.409
 2641SOL     OW 9754   6.995  12.447  13.755
 2641SOL    HW1 9755   6.947  12.529  13.756
 2641SOL    HW2 9756   6.963  12.400  13.678
 2642SOL     OW 9757   8.913  13.218   3.331
 2642SOL    HW1 9758   8.950  13.260   3.253
 2642SOL    HW2 9759   8.989  13.185   3.379
 2643SOL     OW 9760   7.092  10.161   6.436
 2643SOL    HW1 9761   7.111  10.188   6.526
 2643SOL    HW2 9762   7.116  10.068   6.433
 2644SOL     OW 9763   6.155   6.799   8.140
 2644SOL    HW1 9764   6.121   6.710   8.127
 2644SOL    HW2 9765   6.077   6.854   8.143
 2645SOL     OW 9766  10.961   3.244   5.806
 2645SOL    HW1 9767  10.907   3.280   5.736
 2645SOL    HW2 9768  11.051   3.249   5.773
 2646SOL     OW 9769  14.287   3.748  14.316
 2646SOL    HW1 9770  14.356   3.814  14.325
 2646SOL    HW2 9771  14.333   3.665  14.313
 2647SOL     OW 9772   6.819   9.766   7.771
 2647SOL    HW1 9773   6.890   9.736   7.714
 2647SOL    HW2 9774   6.749   9.701   7.758
 2648SOL     OW 9775   7.301   6.066  10.879
 2648SOL    HW1 9776   7.249   6.105  10.809
 2648SOL    HW2 9777   7.347   5.993  10.838
 2649SOL     OW 9778   6.056   8.837   9.821
 2649SOL    HW1 9779   6.063   8.852   9.727
 2649SOL    HW2 9780   5.962   8.837   9.839
 2650SOL     OW 9781   8.326   1.658   5.608
 2650SOL    HW1 9782   8.373   1.591   5.657
 2650SOL    HW2 9783   8.371   1.740   5.629
 2651SOL     OW 9784   5.964   1.879   5.610
 2651SOL    HW1 9785   6.003   1.902   5.526
 2651SOL    HW2 9786   5.883   1.929   5.613
 2652SOL     OW 9787   9.628   4.179  10.129
 2652SOL    HW1 9788   9.562   4.118  10.163
 2652SOL    HW2 9789   9.577   4.254  10.098
 2653SOL     OW 9790   6.861   8.461  10.991
 2653SOL    HW1 9791   6.769   8.439  10.979
 2653SOL    HW2 9792   6.874   8.539  10.936
 2654SOL     OW 9793   6.360  11.706   5.602
 2654SOL    HW1 9794   6.372  11.703   5.507
 2654SOL    HW2 9795   6.415  11.778   5.631
 2655SOL     OW 9796  14.425   1.752   7.614
 2655SOL    HW1 9797  14.341   1.706   7.611
 2655SOL    HW2 9798  14.483   1.695   7.664
 2656SOL     OW 9799   4.479   5.441  13.710
 2656SOL    HW1 9800   4.477   5.459  13.804
 2656SOL    HW2 9801   4.391   5.409  13.690
 2657SOL     OW 9802   0.831   1.594   3.210
 2657SOL    HW1 9803   0.853   1.523   3.150
 2657SOL    HW2 9804   0.735   1.592   3.215
 2658SOL     OW 9805   3.557  11.172  11.028
 2658SOL    HW1 9806   3.642  11.215  11.027
 2658SOL    HW2 9807   3.574  11.084  11.062
 2659SOL     OW 9808   0.637  12.862  12.125
 2659SOL    HW1 9809   0.563  12.920  12.108
 2659SOL    HW2 9810   0.692  12.910  12.186
 2660SOL     OW 9811   6.857   5.401   2.691
 2660SOL    HW1 9812   6.794   5.442   2.631
 2660SOL    HW2 9813   6.935   5.387   2.638
 2661SOL     OW 9814   9.117   2.517   3.925
 2661SOL    HW1 9815   9.197   2.528   3.976
 2661SOL    HW2 9816   9.046   2.533   3.988
 2662SOL     OW 9817   8.715   4.337   0.808
 2662SOL    HW1 9818   8.676   4.380   0.732
 2662SOL    HW2 9819   8.641   4.309   0.861
 2663SOL     OW 9820   6.439   8.338   1.953
 2663SOL    HW1 9821   6.485   8.307   1.875
 2663SOL    HW2 9822   6.505   8.340   2.022
 2664SOL     OW 9823   0.179  11.627   5.511
 2664SOL    HW1 9824   0.230  11.663   5.439
 2664SOL    HW2 9825   0.224  11.657   5.590
 2665SOL     OW 9826   5.857   1.438   3.883
 2665SOL    HW1 9827   5.772   1.476   3.905
 2665SOL    HW2 9828   5.836   1.369   3.820
 2666SOL     OW 9829   6.931   6.891   7.217
 2666SOL    HW1 9830   6.848   6.917   7.256
 2666SOL    HW2 9831   6.947   6.956   7.149
 2667SOL     OW 9832  11.771  13.673   7.450
 2667SOL    HW1 9833  11.712  13.614   7.496
 2667SOL    HW2 9834  11.770  13.753   7.503
 2668SOL     OW 9835  12.464  12.949  14.265
 2668SOL    HW1 9836  12.534  12.912  14.210
 2668SOL    HW2 9837  12.503  12.951  14.353
 2669SOL     OW 9838  12.337   5.993  10.712
 2669SOL    HW1 9839  12.247   5.962  10.710
 2669SOL    HW2 9840  12.333   6.074  10.764
 2670SOL     OW 9841   2.143  11.484  14.186
 2670SOL    HW1 9842   2.050  11.464  14.197
 2670SOL    HW2 9843   2.177  11.412  14.133
 2671SOL     OW 9844   4.493   0.159   0.898
 2671SOL    HW1 9845   4.573   0.182   0.850
 2671SOL    HW2 9846   4.487   0.064   0.891
 2672SOL     OW 9847   8.514  10.701   6.632
 2672SOL    HW1 9848   8.506  10.794   6.611
 2672SOL    HW2 9849   8.442  10.684   6.693
 2673SOL     OW 9850   1.608   5.292   2.790
 2673SOL    HW1 9851   1.572   5.238   2.719
 2673SOL    HW2 9852   1.623   5.231   2.862
 2674SOL     OW 9853   2.605  12.334  12.010
 2674SOL    HW1 9854   2.646  12.419  11.993
 2674SOL    HW2 9855   2.569  12.307  11.926
 2675SOL     OW 9856   6.759   6.612   0.075
 2675SOL    HW1 9857   6.780   6.520   0.060
 2675SOL    HW2 9858   6.733   6.616   0.167
 2676SOL     OW 9859  10.044   3.274   9.217
 2676SOL    HW1 9860   9.974   3.262   9.282
 2676SOL    HW2 9861  10.025   3.209   9.150
 2677SOL     OW 9862   0.092  10.135  10.058
 2677SOL    HW1 9863   0.016  10.132  10.116
 2677SOL    HW2 9864   0.074  10.070   9.990
 2678SOL     OW 9865   1.060   9.970  12.203
 2678SOL    HW1 9866   0.996   9.934  12.142
 2678SOL    HW2 9867   1.011  10.038  12.251
 2679SOL     OW 9868  10.170  13.586   9.120
 2679SOL    HW1 9869  10.134  13.498   9.124
 2679SOL    HW2 9870  10.263  13.575   9.143
 2680SOL     OW 9871   5.334  13.268  13.464
 2680SOL    HW1 9872   5.262  13.326  13.437
 2680SOL    HW2 9873   5.398  13.275  13.392
 2681SOL     OW 9874  11.056   6.161  11.124
 2681SOL    HW1 9875  10.973   6.139  11.083
 2681SOL    HW2 9876  11.104   6.079  11.129
 2682SOL     OW 9877   2.655   7.703  10.883
 2682SOL    HW1 9878   2.687   7.683  10.971
 2682SOL    HW2 9879   2.647   7.798  10.881
 2683SOL     OW 9880  14.104  12.534   1.654
 2683SOL    HW1 9881  14.185  12.484   1.661
 2683SOL    HW2 9882  14.123  12.602   1.589
 2684SOL     OW 9883  12.121  13.653  11.180
 2684SOL    HW1 9884  12.161  13.591  11.242
 2684SOL    HW2 9885  12.028  13.651  11.201
 2685SOL     OW 9886   5.824   8.910   7.092
 2685SOL    HW1 9887   5.871   8.947   7.167
 2685SOL    HW2 9888   5.810   8.984   7.033
 2686SOL     OW 9889   4.248  11.259  10.624
 2686SOL    HW1 9890   4.327  11.207  10.612
 2686SOL    HW2 9891   4.223  11.284  10.535
 2687SOL     OW 9892   3.675   9.676   7.376
 2687SOL    HW1 9893   3.724   9.624   7.439
 2687SOL    HW2 9894   3.732   9.681   7.299
 2688SOL     OW 9895   7.174   6.732   7.599
 2688SOL    HW1 9896   7.079   6.741   7.591
 2688SOL    HW2 9897   7.204   6.819   7.625
 2689SOL     OW 9898  13.285  13.659  13.069
 2689SOL    HW1 9899  13.277  13.564  13.059
 2689SOL    HW2 9900  13.196  13.689  13.085
 2690SOL     OW 9901  12.126   1.789   3.007
 2690SOL    HW1 9902  12.147   1.869   2.959
 2690SOL    HW2 9903  12.202   1.733   2.995
 2691SOL     OW 9904   0.148  12.957   2.689
 2691SOL    HW1 9905   0.151  12.981   2.596
 2691SOL    HW2 9906   0.213  13.013   2.730
 2692SOL     OW 9907   4.698   8.071   6.020
 2692SOL    HW1 9908   4.733   8.135   6.082
 2692SOL    HW2 9909   4.771   8.011   6.003
 2693SOL     OW 9910   6.335   6.337  11.270
 2693SOL    HW1 9911   6.334   6.244  11.292
 2693SOL    HW2 9912   6.253   6.370  11.305
 2694SOL     OW 9913  14.551   2.035   9.372
 2694SOL    HW1 9914  14.612   2.100   9.338
 2694SOL    HW2 9915  14.591   2.003   9.452
 2695SOL     OW 9916   9.492  11.489  10.339
 2695SOL    HW1 9917   9.471  11.581  10.321
 2695SOL    HW2 9918   9.477  11.479  10.433
 2696SOL     OW 9919   5.009   8.575   3.325
 2696SOL    HW1 9920   5.095   8.538   3.343
 2696SOL    HW2 9921   4.949   8.523   3.379
 2697SOL     OW 9922  10.094  10.420  13.302
 2697SOL    HW1 9923  10.073  10.489  13.240
 2697SOL    HW2 9924  10.085  10.461  13.388
 2698SOL     OW 9925   7.727  14.172   7.190
 2698SOL    HW1 9926   7.683  14.147   7.272
 2698SOL    HW2 9927   7.719  14.094   7.134
 2699SOL     OW 9928   0.925  13.030   8.322
 2699SOL    HW1 9929   0.985  12.961   8.349
 2699SOL    HW2 9930   0.844  13.011   8.370
 2700SOL     OW 9931   9.534  13.652   8.511
 2700SOL    HW1 9932   9.595  13.585   8.543
 2700SOL    HW2 9933   9.455  13.638   8.563
 2701SOL     OW 9934   5.819   2.502   1.790
 2701SOL    HW1 9935   5.728   2.475   1.780
 2701SOL    HW2 9936   5.852   2.451   1.864
 2702SOL     OW 9937   3.866   4.490   7.450
 2702SOL    HW1 9938   3.816   4.564   7.416
 2702SOL    HW2 9939   3.922   4.463   7.377
 2703SOL     OW 9940   1.223  12.752   4.878
 2703SOL    HW1 9941   1.222  12.836   4.923
 2703SOL    HW2 9942   1.191  12.689   4.943
 2704SOL     OW 9943  12.011   9.430   6.538
 2704SOL    HW1 9944  12.050   9.513   6.565
 2704SOL    HW2 9945  11.962   9.451   6.458
 2705SOL     OW 9946   6.251  13.822   3.413
 2705SOL    HW1 9947   6.297  13.746   3.449
 2705SOL    HW2 9948   6.223  13.872   3.489
 2706SOL     OW 9949   8.402   7.845   4.389
 2706SOL    HW1 9950   8.350   7.835   4.309
 2706SOL    HW2 9951   8.425   7.755   4.414
 2707SOL     OW 9952   7.467   6.990   5.735
 2707SOL    HW1 9953   7.393   6.976   5.795
 2707SOL    HW2 9954   7.474   6.908   5.687
 2708SOL     OW 9955  10.244   2.413   7.411
 2708SOL    HW1 9956  10.238   2.427   7.316
 2708SOL    HW2 9957  10.193   2.333   7.427
 2709SOL     OW 9958  12.709   0.550   3.652
 2709SOL    HW1 9959  12.779   0.490   3.627
 2709SOL    HW2 9960  12.697   0.607   3.576
 2710SOL     OW 9961   7.405   5.754  14.093
 2710SOL    HW1 9962   7.407   5.804  14.175
 2710SOL    HW2 9963   7.492   5.714  14.088
 2711SOL     OW 9964   1.655   1.169   0.446
 2711SOL    HW1 9965   1.742   1.133   0.460
 2711SOL    HW2 9966   1.608   1.100   0.398
 2712SOL     OW 9967   5.919   6.046   9.461
 2712SOL    HW1 9968   6.015   6.044   9.453
 2712SOL    HW2 9969   5.893   5.954   9.450
 2713SOL     OW 9970   4.772   6.572   9.578
 2713SOL    HW1 9971   4.860   6.609   9.585
 2713SOL    HW2 9972   4.773   6.521   9.498
 2714SOL     OW 9973   1.527   3.886   8.759
 2714SOL    HW1 9974   1.448   3.850   8.798
 2714SOL    HW2 9975   1.508   3.891   8.665
 2715SOL     OW 9976   2.802   9.165   6.230
 2715SOL    HW1 9977   2.740   9.101   6.196
 2715SOL    HW2 9978   2.881   9.115   6.249
 2716SOL     OW 9979   3.445  13.406  11.464
 2716SOL    HW1 9980   3.451  13.409  11.559
 2716SOL    HW2 9981   3.396  13.484  11.440
 2717SOL     OW 9982  11.514   0.968   3.735
 2717SOL    HW1 9983  11.503   1.028   3.808
 2717SOL    HW2 9984  11.433   0.918   3.733
 2718SOL     OW 9985   6.474  10.076  13.020
 2718SOL    HW1 9986   6.522  10.020  12.961
 2718SOL    HW2 9987   6.382  10.063  12.997
 2719SOL     OW 9988   0.988   8.659   2.577
 2719SOL    HW1 9989   1.003   8.606   2.655
 2719SOL    HW2 9990   1.075   8.691   2.552
 2720SOL     OW 9991   8.846   8.130   3.216
 2720SOL    HW1 9992   8.829   8.079   3.137
 2720SOL    HW2 9993   8.764   8.176   3.234
 2721SOL     OW 9994   3.240   7.414  12.792
 2721SOL    HW1 9995   3.271   7.386  12.705
 2721SOL    HW2 9996   3.184   7.342  12.822
 2722SOL     OW 9997  14.424   9.600  14.431
 2722SOL    HW1 9998  14.502   9.636  14.388
 2722SOL    HW2 9999  14.356   9.604  14.364
 2723SOL     OW10000  13.958   0.705   4.837
 2723SOL    HW110001  13.935   0.649   4.763
 2723SOL    HW210002  13.950   0.794   4.804
 2724SOL     OW10003  13.349  12.344  11.240
 2724SOL    HW110004  13.340  12.291  11.161
 2724SOL    HW210005  13.318  12.287  11.311
 2725SOL     OW10006  13.337  11.685   1.007
 2725SOL    HW110007  13.353  11.709   1.098
 2725SOL    HW210008  13.362  11.593   1.001
 2726SOL     OW10009  10.692   8.424  13.233
 2726SOL    HW110010  10.646   8.339  13.234
 2726SOL    HW210011  10.733   8.428  13.147
 2727SOL     OW10012  10.323   1.281   8.130
 2727SOL    HW110013  10.364   1.249   8.211
 2727SOL    HW210014  10.333   1.209   8.068
 2728SOL     OW10015   3.173  10.552  14.361
 2728SOL    HW110016   3.218  10.563  14.278
 2728SOL    HW210017   3.242  10.531  14.424
 2729SOL     OW10018  12.185  12.221  10.229
 2729SOL    HW110019  12.258  12.201  10.287
 2729SOL    HW210020  12.180  12.316  10.227
 2730SOL     OW10021  10.460  10.329   9.164
 2730SOL    HW110022  10.398  10.359   9.230
 2730SOL    HW210023  10.411  10.328   9.083
 2731SOL     OW10024  10.142  14.378  13.263
 2731SOL    HW110025  10.224  14.355  13.219
 2731SOL    HW210026  10.085  14.410  13.193
 2732SOL     OW10027  10.206   5.650   8.347
 2732SOL    HW110028  10.117   5.619   8.365
 2732SOL    HW210029  10.262   5.583   8.385
 2733SOL     OW10030   1.672  13.980   8.087
 2733SOL    HW110031   1.635  13.918   8.149
 2733SOL    HW210032   1.655  14.066   8.126
 2734SOL     OW10033  10.790   8.190  13.945
 2734SOL    HW110034  10.840   8.163  14.022
 2734SOL    HW210035  10.795   8.285  13.945
 2735SOL     OW10036   9.292   3.768  11.099
 2735SOL    HW110037   9.223   3.806  11.154
 2735SOL    HW210038   9.342   3.844  11.068
 2736SOL     OW10039   7.211   8.547   2.538
 2736SOL    HW110040   7.249   8.583   2.458
 2736SOL    HW210041   7.259   8.465   2.553
 2737SOL     OW10042   4.795   3.444   5.124
 2737SOL    HW110043   4.710   3.474   5.158
 2737SOL    HW210044   4.836   3.399   5.198
 2738SOL     OW10045   1.014   8.311  11.064
 2738SOL    HW110046   1.069   8.362  11.004
 2738SOL    HW210047   0.929   8.357  11.064
 2739SOL     OW10048   2.439  11.950   6.646
 2739SOL    HW110049   2.504  11.993   6.591
 2739SOL    HW210050   2.356  11.966   6.601
 2740SOL     OW10051   2.968  14.643   9.192
 2740SOL    HW110052   2.955  14.580   9.121
 2740SOL    HW210053   3.023  14.711   9.153
 2741SOL     OW10054   9.449  13.094   1.940
 2741SOL    HW110055   9.500  13.111   2.019
 2741SOL    HW210056   9.415  13.180   1.915
 2742SOL     OW10057   6.135   1.851   7.238
 2742SOL    HW110058   6.141   1.903   7.158
 2742SOL    HW210059   6.156   1.761   7.211
 2743SOL     OW10060  12.768  12.712  11.199
 2743SOL    HW110061  12.814  12.731  11.117
 2743SOL    HW210062  12.834  12.726  11.267
 2744SOL     OW10063   3.722  11.170   4.900
 2744SOL    HW110064   3.797  11.212   4.944
 2744SOL    HW210065   3.715  11.216   4.816
 2745SOL     OW10066  12.428   0.583  13.350
 2745SOL    HW110067  12.350   0.592  13.295
 2745SOL    HW210068  12.501   0.606  13.293
 2746SOL     OW10069   1.893   3.604  11.813
 2746SOL    HW110070   1.844   3.679  11.847
 2746SOL    HW210071   1.881   3.535  11.878
 2747SOL     OW10072  13.621  13.930   9.435
 2747SOL    HW110073  13.558  13.859   9.444
 2747SOL    HW210074  13.664  13.914   9.351
 2748SOL     OW10075   7.981  12.204  12.544
 2748SOL    HW110076   8.067  12.164  12.534
 2748SOL    HW210077   7.922  12.130  12.560
 2749SOL     OW10078  12.591   6.645  12.677
 2749SOL    HW110079  12.603   6.644  12.772
 2749SOL    HW210080  12.612   6.735  12.651
 2750SOL     OW10081  14.872   7.475  11.732
 2750SOL    HW110082  14.850   7.419  11.658
 2750SOL    HW210083   0.074   7.515  11.708
 2751SOL     OW10084   3.689   2.164   0.573
 2751SOL    HW110085   3.739   2.138   0.496
 2751SOL    HW210086   3.611   2.207   0.538
 2752SOL     OW10087   7.179   5.826  10.511
 2752SOL    HW110088   7.088   5.856  10.505
 2752SOL    HW210089   7.186   5.756  10.446
 2753SOL     OW10090   6.025   0.232  10.250
 2753SOL    HW110091   6.061   0.268  10.331
 2753SOL    HW210092   6.084   0.162  10.226
 2754SOL     OW10093  14.576  11.956  13.781
 2754SOL    HW110094  14.638  12.029  13.785
 2754SOL    HW210095  14.614  11.897  13.715
 2755SOL     OW10096  14.779   1.457   8.204
 2755SOL    HW110097  14.689   1.488   8.196
 2755SOL    HW210098  14.798   1.417   8.119
 2756SOL     OW10099   6.004   6.879   9.202
 2756SOL    HW110100   6.097   6.863   9.215
 2756SOL    HW210101   5.983   6.949   9.264
 2757SOL     OW10102   2.846   3.016   4.498
 2757SOL    HW110103   2.903   3.074   4.550
 2757SOL    HW210104   2.907   2.957   4.453
 2758SOL     OW10105  14.160  11.839   4.161
 2758SOL    HW110106  14.166  11.834   4.257
 2758SOL    HW210107  14.241  11.799   4.130
 2759SOL     OW10108   8.922   4.161  10.106
 2759SOL    HW110109   8.992   4.114  10.151
 2759SOL    HW210110   8.926   4.130  10.015
 2760SOL     OW10111   5.698   8.971   7.923
 2760SOL    HW110112   5.786   9.005   7.932
 2760SOL    HW210113   5.662   8.975   8.012
 2761SOL     OW10114   5.032  10.611   2.911
 2761SOL    HW110115   5.104  10.553   2.934
 2761SOL    HW210116   5.058  10.651   2.829
 2762SOL     OW10117   2.752  10.075   4.567
 2762SOL    HW110118   2.778  10.161   4.600
 2762SOL    HW210119   2.718  10.092   4.479
 2763SOL     OW10120   5.741   5.874  11.707
 2763SOL    HW110121   5.760   5.870  11.613
 2763SOL    HW210122   5.758   5.965  11.731
 2764SOL     OW10123   8.756   5.672   5.801
 2764SOL    HW110124   8.753   5.763   5.771
 2764SOL    HW210125   8.804   5.675   5.884
 2765SOL     OW10126   1.885   0.839   5.694
 2765SOL    HW110127   1.907   0.778   5.623
 2765SOL    HW210128   1.815   0.894   5.657
 2766SOL     OW10129   4.398  12.149   4.081
 2766SOL    HW110130   4.407  12.066   4.128
 2766SOL    HW210131   4.333  12.131   4.013
 2767SOL     OW10132   8.698   7.728  13.863
 2767SOL    HW110133   8.705   7.744  13.957
 2767SOL    HW210134   8.779   7.764  13.827
 2768SOL     OW10135  12.847   4.303   4.124
 2768SOL    HW110136  12.904   4.305   4.048
 2768SOL    HW210137  12.844   4.394   4.154
 2769SOL     OW10138   1.413   3.391  10.826
 2769SOL    HW110139   1.469   3.371  10.751
 2769SOL    HW210140   1.328   3.354  10.803
 2770SOL     OW10141  13.568   1.289   1.766
 2770SOL    HW110142  13.606   1.230   1.701
 2770SOL    HW210143  13.514   1.233   1.821
 2771SOL     OW10144   0.423  13.249   2.780
 2771SOL    HW110145   0.393  13.288   2.862
 2771SOL    HW210146   0.343  13.232   2.730
 2772SOL     OW10147   4.675   8.192  11.805
 2772SOL    HW110148   4.694   8.211  11.714
 2772SOL    HW210149   4.613   8.119  11.802
 2773SOL     OW10150  13.496  10.475   6.980
 2773SOL    HW110151  13.416  10.522   7.004
 2773SOL    HW210152  13.484  10.455   6.887
 2774SOL     OW10153   7.328  10.487  11.198
 2774SOL    HW110154   7.242  10.453  11.221
 2774SOL    HW210155   7.387  10.447  11.262
 2775SOL     OW10156  12.633   8.708   0.169
 2775SOL    HW110157  12.645   8.716   0.074
 2775SOL    HW210158  12.636   8.798   0.201
 2776SOL     OW10159  13.301  13.281   8.825
 2776SOL    HW110160  13.266  13.357   8.872
 2776SOL    HW210161  13.228  13.250   8.771
 2777SOL     OW10162   7.817  12.602   6.738
 2777SOL    HW110163   7.897  12.573   6.782
 2777SOL    HW210164   7.796  12.686   6.778
 2778SOL     OW10165   2.771   3.951  14.654
 2778SOL    HW110166   2.807   3.944  14.566
 2778SOL    HW210167   2.763   4.045  14.670
 2779SOL     OW10168   5.542   4.127   8.887
 2779SOL    HW110169   5.473   4.166   8.941
 2779SOL    HW210170   5.507   4.042   8.861
 2780SOL     OW10171  12.013  11.883   8.815
 2780SOL    HW110172  11.965  11.955   8.773
 2780SOL    HW210173  12.055  11.924   8.891
 2781SOL     OW10174  14.573  14.138  13.799
 2781SOL    HW110175  14.618  14.145  13.715
 2781SOL    HW210176  14.631  14.180  13.862
 2782SOL     OW10177   5.085  14.079  13.341
 2782SOL    HW110178   5.148  14.144  13.311
 2782SOL    HW210179   5.110  13.998  13.297
 2783SOL     OW10180   9.721  12.731  13.380
 2783SOL    HW110181   9.673  12.730  13.297
 2783SOL    HW210182   9.672  12.672  13.437
 2784SOL     OW10183   4.389   7.197  12.647
 2784SOL    HW110184   4.335   7.277  12.643
 2784SOL    HW210185   4.342   7.139  12.706
 2785SOL     OW10186   3.012   7.013   2.417
 2785SOL    HW110187   2.942   6.960   2.455
 2785SOL    HW210188   3.042   7.070   2.488
 2786SOL     OW10189  14.129  13.174  13.598
 2786SOL    HW110190  14.197  13.136  13.654
 2786SOL    HW210191  14.068  13.103  13.581
 2787SOL     OW10192  10.810  14.713  11.517
 2787SOL    HW110193  10.788  14.805  11.508
 2787SOL    HW210194  10.864  14.693  11.441
 2788SOL     OW10195  13.271  12.884   9.228
 2788SOL    HW110196  13.222  12.952   9.276
 2788SOL    HW210197  13.240  12.802   9.266
 2789SOL     OW10198   4.623   8.427  12.468
 2789SOL    HW110199   4.648   8.518  12.483
 2789SOL    HW210200   4.531   8.431  12.443
 2790SOL     OW10201  12.447   0.404   7.782
 2790SOL    HW110202  12.394   0.481   7.804
 2790SOL    HW210203  12.402   0.365   7.707
 2791SOL     OW10204   2.001  10.922  14.111
 2791SOL    HW110205   2.049  10.903  14.030
 2791SOL    HW210206   2.066  10.962  14.169
 2792SOL     OW10207  10.821   2.446  10.624
 2792SOL    HW110208  10.728   2.428  10.607
 2792SOL    HW210209  10.859   2.459  10.537
 2793SOL     OW10210   3.867   2.296  10.054
 2793SOL    HW110211   3.943   2.347  10.082
 2793SOL    HW210212   3.796   2.360  10.051
 2794SOL     OW10213  13.061   7.456   8.361
 2794SOL    HW110214  13.106   7.480   8.280
 2794SOL    HW210215  12.968   7.457   8.338
 2795SOL     OW10216   8.048   2.505  13.939
 2795SOL    HW110217   8.120   2.446  13.915
 2795SOL    HW210218   7.979   2.486  13.875
 2796SOL     OW10219   2.824   9.117  11.178
 2796SOL    HW110220   2.753   9.054  11.176
 2796SOL    HW210221   2.795   9.185  11.239
 2797SOL     OW10222   6.644   4.715  10.862
 2797SOL    HW110223   6.698   4.663  10.803
 2797SOL    HW210224   6.576   4.753  10.806
 2798SOL     OW10225  14.692   1.457   7.025
 2798SOL    HW110226  14.642   1.467   7.106
 2798SOL    HW210227  14.738   1.374   7.035
 2799SOL     OW10228   8.397   8.383  13.636
 2799SOL    HW110229   8.433   8.409  13.721
 2799SOL    HW210230   8.431   8.450  13.575
 2800SOL     OW10231   3.640   5.321   6.659
 2800SOL    HW110232   3.715   5.277   6.619
 2800SOL    HW210233   3.566   5.264   6.639
 2801SOL     OW10234   5.405   5.048  10.108
 2801SOL    HW110235   5.345   5.047  10.034
 2801SOL    HW210236   5.474   5.109  10.082
 2802SOL     OW10237   9.968  14.153  11.319
 2802SOL    HW110238   9.961  14.246  11.341
 2802SOL    HW210239   9.883  14.117  11.341
 2803SOL     OW10240   3.504   1.745   7.765
 2803SOL    HW110241   3.421   1.742   7.812
 2803SOL    HW210242   3.528   1.837   7.765
 2804SOL     OW10243   0.127  10.684   3.288
 2804SOL    HW110244   0.112  10.664   3.381
 2804SOL    HW210245   0.214  10.649   3.270
 2805SOL     OW10246   0.260  11.155   7.956
 2805SOL    HW110247   0.251  11.231   8.013
 2805SOL    HW210248   0.329  11.180   7.894
 2806SOL     OW10249   6.609   8.401   0.539
 2806SOL    HW110250   6.683   8.359   0.582
 2806SOL    HW210251   6.640   8.420   0.450
 2807SOL     OW10252   7.866  11.869   9.789
 2807SOL    HW110253   7.865  11.785   9.743
 2807SOL    HW210254   7.847  11.933   9.720
 2808SOL     OW10255  14.733  14.534   2.187
 2808SOL    HW110256  14.788  14.564   2.115
 2808SOL    HW210257  14.650  14.510   2.146
 2809SOL     OW10258   8.843   6.280  10.777
 2809SOL    HW110259   8.894   6.212  10.734
 2809SOL    HW210260   8.783   6.232  10.835
 2810SOL     OW10261  12.990  12.558   5.781
 2810SOL    HW110262  12.943  12.506   5.847
 2810SOL    HW210263  12.940  12.544   5.701
 2811SOL     OW10264   3.939  11.561   4.359
 2811SOL    HW110265   3.858  11.517   4.332
 2811SOL    HW210266   3.987  11.494   4.408
 2812SOL     OW10267   1.740   2.078  11.225
 2812SOL    HW110268   1.752   2.173  11.223
 2812SOL    HW210269   1.812   2.046  11.280
 2813SOL     OW10270   4.459   8.192   2.814
 2813SOL    HW110271   4.502   8.131   2.874
 2813SOL    HW210272   4.390   8.232   2.867
 2814SOL     OW10273  12.796   4.865   3.336
 2814SOL    HW110274  12.725   4.925   3.358
 2814SOL    HW210275  12.823   4.892   3.248
 2815SOL     OW10276   6.529  14.714   2.987
 2815SOL    HW110277   6.502  14.662   3.062
 2815SOL    HW210278   6.612  14.675   2.960
 2816SOL     OW10279   3.860   8.456  14.847
 2816SOL    HW110280   3.902   8.382  14.804
 2816SOL    HW210281   3.916   8.531  14.825
 2817SOL     OW10282   7.349   3.677  12.989
 2817SOL    HW110283   7.387   3.763  12.971
 2817SOL    HW210284   7.260   3.696  13.020
 2818SOL     OW10285  12.443  10.874   9.589
 2818SOL    HW110286  12.457  10.889   9.683
 2818SOL    HW210287  12.404  10.786   9.584
 2819SOL     OW10288   9.218   2.238   9.779
 2819SOL    HW110289   9.279   2.168   9.800
 2819SOL    HW210290   9.180   2.264   9.863
 2820SOL     OW10291   7.878   1.734  14.849
 2820SOL    HW110292   7.927   1.805  14.808
 2820SOL    HW210293   7.827   1.697  14.777
 2821SOL     OW10294   3.924  11.315   3.311
 2821SOL    HW110295   3.942  11.280   3.398
 2821SOL    HW210296   3.996  11.282   3.257
 2822SOL     OW10297   0.302   1.564   6.087
 2822SOL    HW110298   0.278   1.524   6.171
 2822SOL    HW210299   0.286   1.495   6.023
 2823SOL     OW10300  12.467   7.013  12.173
 2823SOL    HW110301  12.432   6.982  12.090
 2823SOL    HW210302  12.415   6.969  12.239
 2824SOL     OW10303   0.766   4.528   2.930
 2824SOL    HW110304   0.678   4.533   2.966
 2824SOL    HW210305   0.814   4.471   2.991
 2825SOL     OW10306  10.444   4.281  11.342
 2825SOL    HW110307  10.410   4.365  11.372
 2825SOL    HW210308  10.451   4.228  11.421
 2826SOL     OW10309  11.101  12.067  13.457
 2826SOL    HW110310  11.025  12.111  13.496
 2826SOL    HW210311  11.074  11.976  13.449
 2827SOL     OW10312   8.562   8.008   6.261
 2827SOL    HW110313   8.641   8.062   6.256
 2827SOL    HW210314   8.490   8.067   6.239
 2828SOL     OW10315   4.523   8.370   7.197
 2828SOL    HW110316   4.579   8.437   7.236
 2828SOL    HW210317   4.552   8.363   7.107
 2829SOL     OW10318   1.078   5.712   1.690
 2829SOL    HW110319   0.994   5.720   1.645
 2829SOL    HW210320   1.108   5.624   1.669
 2830SOL     OW10321   7.976   2.519   2.865
 2830SOL    HW110322   7.929   2.496   2.946
 2830SOL    HW210323   8.068   2.515   2.890
 2831SOL     OW10324   0.632   0.747  13.818
 2831SOL    HW110325   0.659   0.775  13.905
 2831SOL    HW210326   0.571   0.814  13.788
 2832SOL     OW10327   3.848   0.623   5.229
 2832SOL    HW110328   3.800   0.549   5.265
 2832SOL    HW210329   3.834   0.617   5.134
 2833SOL     OW10330   2.766   9.208  14.006
 2833SOL    HW110331   2.735   9.130  13.960
 2833SOL    HW210332   2.704   9.277  13.981
 2834SOL     OW10333   8.548   1.678   1.894
 2834SOL    HW110334   8.639   1.682   1.864
 2834SOL    HW210335   8.555   1.648   1.985
 2835SOL     OW10336   8.384   1.769  14.165
 2835SOL    HW110337   8.463   1.760  14.218
 2835SOL    HW210338   8.316   1.796  14.227
 2836SOL     OW10339   8.968   9.762   9.836
 2836SOL    HW110340   9.050   9.793   9.874
 2836SOL    HW210341   8.928   9.709   9.904
 2837SOL     OW10342   8.439  14.008   1.979
 2837SOL    HW110343   8.444  14.063   1.901
 2837SOL    HW210344   8.367  14.045   2.030
 2838SOL     OW10345   5.383  14.440   5.343
 2838SOL    HW110346   5.365  14.532   5.358
 2838SOL    HW210347   5.370  14.398   5.428
 2839SOL     OW10348   5.244  12.629   1.287
 2839SOL    HW110349   5.320  12.687   1.277
 2839SOL    HW210350   5.278  12.542   1.263
 2840SOL     OW10351   9.012   3.629   7.331
 2840SOL    HW110352   8.946   3.578   7.379
 2840SOL    HW210353   8.981   3.628   7.240
 2841SOL     OW10354   1.305   5.784   9.884
 2841SOL    HW110355   1.384   5.821   9.923
 2841SOL    HW210356   1.331   5.698   9.853
 2842SOL     OW10357   2.947   2.322   5.434
 2842SOL    HW110358   2.898   2.265   5.492
 2842SOL    HW210359   2.984   2.264   5.368
 2843SOL     OW10360  14.576   1.807   9.164
 2843SOL    HW110361  14.483   1.823   9.183
 2843SOL    HW210362  14.622   1.875   9.213
 2844SOL     OW10363   8.934  11.287   1.687
 2844SOL    HW110364   8.895  11.245   1.764
 2844SOL    HW210365   9.027  11.261   1.690
 2845SOL     OW10366   3.473   5.003   4.774
 2845SOL    HW110367   3.423   5.084   4.783
 2845SOL    HW210368   3.451   4.952   4.852
 2846SOL     OW10369   2.504   1.372   1.115
 2846SOL    HW110370   2.540   1.311   1.180
 2846SOL    HW210371   2.410   1.374   1.135
 2847SOL     OW10372   0.518   4.242  12.110
 2847SOL    HW110373   0.541   4.251  12.202
 2847SOL    HW210374   0.423   4.240  12.109
 2848SOL     OW10375  10.551   3.464  10.176
 2848SOL    HW110376  10.528   3.506  10.094
 2848SOL    HW210377  10.591   3.381  10.150
 2849SOL     OW10378  10.340   6.862   8.136
 2849SOL    HW110379  10.314   6.924   8.068
 2849SOL    HW210380  10.386   6.916   8.201
 2850SOL     OW10381   4.341   5.618   8.493
 2850SOL    HW110382   4.311   5.531   8.520
 2850SOL    HW210383   4.378   5.604   8.406
 2851SOL     OW10384   6.375  14.432   8.728
 2851SOL    HW110385   6.417  14.476   8.654
 2851SOL    HW210386   6.329  14.358   8.689
 2852SOL     OW10387   0.463   2.335   3.275
 2852SOL    HW110388   0.380   2.299   3.307
 2852SOL    HW210389   0.439   2.384   3.197
 2853SOL     OW10390   7.233   4.190   5.389
 2853SOL    HW110391   7.207   4.235   5.469
 2853SOL    HW210392   7.151   4.167   5.347
 2854SOL     OW10393  11.561  14.434  10.819
 2854SOL    HW110394  11.522  14.520  10.829
 2854SOL    HW210395  11.502  14.388  10.758
 2855SOL     OW10396   4.248   2.254  13.611
 2855SOL    HW110397   4.328   2.304  13.622
 2855SOL    HW210398   4.266   2.169  13.651
 2856SOL     OW10399   7.088  12.264   2.700
 2856SOL    HW110400   7.151  12.251   2.629
 2856SOL    HW210401   7.138  12.306   2.770
 2857SOL     OW10402   1.241  12.164   2.531
 2857SOL    HW110403   1.162  12.169   2.477
 2857SOL    HW210404   1.312  12.149   2.470
 2858SOL     OW10405   4.316   5.379   9.968
 2858SOL    HW110406   4.284   5.322   9.898
 2858SOL    HW210407   4.238   5.428   9.996
 2859SOL     OW10408   3.012  10.394   5.173
 2859SOL    HW110409   2.924  10.431   5.160
 2859SOL    HW210410   3.053  10.453   5.237
 2860SOL     OW10411   5.491   7.646   0.947
 2860SOL    HW110412   5.443   7.620   1.026
 2860SOL    HW210413   5.455   7.731   0.923
 2861SOL     OW10414  11.823  10.317   5.016
 2861SOL    HW110415  11.770  10.263   4.957
 2861SOL    HW210416  11.764  10.339   5.088
 2862SOL     OW10417   8.445   2.790  11.900
 2862SOL    HW110418   8.535   2.821  11.888
 2862SOL    HW210419   8.444   2.703  11.860
 2863SOL     OW10420   0.010  10.396  13.578
 2863SOL    HW110421   0.095  10.421  13.543
 2863SOL    HW210422   0.016  10.301  13.592
 2864SOL     OW10423   5.545   2.762  10.687
 2864SOL    HW110424   5.483   2.717  10.745
 2864SOL    HW210425   5.549   2.851  10.721
 2865SOL     OW10426   6.524   0.158  14.756
 2865SOL    HW110427   6.450   0.148  14.816
 2865SOL    HW210428   6.531   0.253  14.743
 2866SOL     OW10429   0.720  13.306   4.126
 2866SOL    HW110430   0.719  13.216   4.094
 2866SOL    HW210431   0.793  13.309   4.187
 2867SOL     OW10432  12.227   8.727   7.247
 2867SOL    HW110433  12.133   8.712   7.243
 2867SOL    HW210434  12.236   8.812   7.289
 2868SOL     OW10435   1.400   4.272  11.470
 2868SOL    HW110436   1.430   4.181  11.463
 2868SOL    HW210437   1.306   4.264  11.488
 2869SOL     OW10438  14.216  13.168   9.602
 2869SOL    HW110439  14.239  13.189   9.511
 2869SOL    HW210440  14.122  13.155   9.601
 2870SOL     OW10441  13.350   2.958   9.212
 2870SOL    HW110442  13.411   2.886   9.200
 2870SOL    HW210443  13.285   2.925   9.275
 2871SOL     OW10444  11.435   1.181   8.716
 2871SOL    HW110445  11.514   1.207   8.764
 2871SOL    HW210446  11.391   1.119   8.775
 2872SOL     OW10447   0.394  14.764   3.517
 2872SOL    HW110448   0.339  14.699   3.474
 2872SOL    HW210449   0.415  14.827   3.448
 2873SOL     OW10450  12.357   2.286   1.655
 2873SOL    HW110451  12.284   2.312   1.599
 2873SOL    HW210452  12.380   2.198   1.626
 2874SOL     OW10453  13.638   4.388   7.901
 2874SOL    HW110454  13.619   4.322   7.834
 2874SOL    HW210455  13.564   4.384   7.961
 2875SOL     OW10456  12.216   7.567   3.804
 2875SOL    HW110457  12.271   7.561   3.882
 2875SOL    HW210458  12.126   7.566   3.837
 2876SOL     OW10459   1.219  10.236  12.387
 2876SOL    HW110460   1.212  10.321  12.345
 2876SOL    HW210461   1.310  10.210  12.376
 2877SOL     OW10462   1.500   7.063  13.153
 2877SOL    HW110463   1.411   7.082  13.122
 2877SOL    HW210464   1.511   6.969  13.140
 2878SOL     OW10465   0.026   2.616   0.131
 2878SOL    HW110466  14.860   2.697   0.151
 2878SOL    HW210467  14.861   2.548   0.177
 2879SOL     OW10468   3.461  14.072   2.732
 2879SOL    HW110469   3.495  14.025   2.808
 2879SOL    HW210470   3.518  14.149   2.724
 2880SOL     OW10471   2.404   2.077  13.970
 2880SOL    HW110472   2.407   2.068  14.066
 2880SOL    HW210473   2.397   2.171  13.955
 2881SOL     OW10474  10.372   0.443   8.030
 2881SOL    HW110475  10.329   0.463   8.113
 2881SOL    HW210476  10.412   0.357   8.044
 2882SOL     OW10477  10.263  10.049  13.700
 2882SOL    HW110478  10.352  10.056  13.665
 2882SOL    HW210479  10.234   9.961  13.677
 2883SOL     OW10480  11.527  10.932   9.114
 2883SOL    HW110481  11.510  10.984   9.035
 2883SOL    HW210482  11.483  10.849   9.098
 2884SOL     OW10483   3.160  10.389  10.908
 2884SOL    HW110484   3.162  10.302  10.868
 2884SOL    HW210485   3.151  10.371  11.002
 2885SOL     OW10486   3.531  10.239   7.838
 2885SOL    HW110487   3.511  10.219   7.747
 2885SOL    HW210488   3.575  10.160   7.870
 2886SOL     OW10489   7.618   4.245  11.531
 2886SOL    HW110490   7.669   4.322  11.507
 2886SOL    HW210491   7.641   4.229  11.623
 2887SOL     OW10492   0.148   4.368   5.481
 2887SOL    HW110493   0.096   4.306   5.429
 2887SOL    HW210494   0.211   4.404   5.419
 2888SOL     OW10495   0.643   4.919  12.825
 2888SOL    HW110496   0.598   4.994  12.788
 2888SOL    HW210497   0.707   4.956  12.885
 2889SOL     OW10498  14.776   0.075  14.256
 2889SOL    HW110499  14.787   0.133  14.180
 2889SOL    HW210500  14.860   0.032  14.267
 2890SOL     OW10501   3.202  10.413   3.945
 2890SOL    HW110502   3.118  10.387   3.907
 2890SOL    HW210503   3.238  10.332   3.981
 2891SOL     OW10504  10.253   3.102  10.888
 2891SOL    HW110505  10.275   3.195  10.889
 2891SOL    HW210506  10.212   3.086  10.973
 2892SOL     OW10507   7.559  10.812   4.424
 2892SOL    HW110508   7.477  10.853   4.396
 2892SOL    HW210509   7.533  10.726   4.457
 2893SOL     OW10510   9.439   7.596  12.622
 2893SOL    HW110511   9.503   7.537  12.662
 2893SOL    HW210512   9.354   7.562  12.649
 2894SOL     OW10513  10.545  13.492   3.698
 2894SOL    HW110514  10.504  13.435   3.634
 2894SOL    HW210515  10.494  13.479   3.779
 2895SOL     OW10516   7.504   7.443  13.185
 2895SOL    HW110517   7.522   7.405  13.271
 2895SOL    HW210518   7.538   7.379  13.123
 2896SOL     OW10519   4.832  13.573  12.784
 2896SOL    HW110520   4.896  13.567  12.854
 2896SOL    HW210521   4.787  13.656  12.799
 2897SOL     OW10522   4.853   3.065  14.326
 2897SOL    HW110523   4.889   3.045  14.412
 2897SOL    HW210524   4.908   3.015  14.265
 2898SOL     OW10525   1.610   7.066   8.740
 2898SOL    HW110526   1.665   7.002   8.695
 2898SOL    HW210527   1.551   7.013   8.794
 2899SOL     OW10528   9.449   2.617   4.356
 2899SOL    HW110529   9.436   2.657   4.271
 2899SOL    HW210530   9.539   2.640   4.380
 2900SOL     OW10531   7.188   9.717   0.489
 2900SOL    HW110532   7.197   9.730   0.394
 2900SOL    HW210533   7.198   9.623   0.501
 2901SOL     OW10534   1.562   5.906   5.685
 2901SOL    HW110535   1.516   5.866   5.611
 2901SOL    HW210536   1.547   6.000   5.675
 2902SOL     OW10537   2.731   8.192   3.339
 2902SOL    HW110538   2.816   8.210   3.299
 2902SOL    HW210539   2.685   8.276   3.336
 2903SOL     OW10540   2.517  10.118   3.227
 2903SOL    HW110541   2.423  10.121   3.245
 2903SOL    HW210542   2.524  10.084   3.138
 2904SOL     OW10543  13.447   2.659   2.856
 2904SOL    HW110544  13.402   2.575   2.871
 2904SOL    HW210545  13.540   2.635   2.853
 2905SOL     OW10546   9.293   7.637   6.597
 2905SOL    HW110547   9.338   7.720   6.612
 2905SOL    HW210548   9.227   7.658   6.531
 2906SOL     OW10549   9.381   6.095   3.913
 2906SOL    HW110550   9.287   6.079   3.916
 2906SOL    HW210551   9.419   6.010   3.891
 2907SOL     OW10552   6.604  13.078   7.088
 2907SOL    HW110553   6.665  13.093   7.016
 2907SOL    HW210554   6.578  13.165   7.117
 2908SOL     OW10555   3.626   8.073  13.568
 2908SOL    HW110556   3.631   8.150  13.512
 2908SOL    HW210557   3.686   8.092  13.640
 2909SOL     OW10558   7.270   3.432   2.434
 2909SOL    HW110559   7.276   3.471   2.521
 2909SOL    HW210560   7.290   3.340   2.448
 2910SOL     OW10561   5.238  14.150   3.144
 2910SOL    HW110562   5.292  14.189   3.213
 2910SOL    HW210563   5.157  14.201   3.146
 2911SOL     OW10564   0.384   8.339   3.265
 2911SOL    HW110565   0.448   8.376   3.327
 2911SOL    HW210566   0.400   8.245   3.267
 2912SOL     OW10567   3.917  13.223  13.413
 2912SOL    HW110568   3.906  13.315  13.438
 2912SOL    HW210569   3.838  13.203  13.362
 2913SOL     OW10570  10.602   6.623  13.181
 2913SOL    HW110571  10.531   6.587  13.234
 2913SOL    HW210572  10.613   6.560  13.109
 2914SOL     OW10573  14.130   1.594   8.751
 2914SOL    HW110574  14.129   1.651   8.674
 2914SOL    HW210575  14.038   1.572   8.766
 2915SOL     OW10576   5.521  11.931   4.750
 2915SOL    HW110577   5.508  12.020   4.783
 2915SOL    HW210578   5.435  11.905   4.716
 2916SOL     OW10579  12.172  12.147   3.098
 2916SOL    HW110580  12.095  12.155   3.154
 2916SOL    HW210581  12.139  12.105   3.018
 2917SOL     OW10582   6.817   2.674   3.318
 2917SOL    HW110583   6.912   2.684   3.319
 2917SOL    HW210584   6.784   2.763   3.304
 2918SOL     OW10585   0.038   4.162   5.146
 2918SOL    HW110586   0.120   4.206   5.125
 2918SOL    HW210587   0.048   4.074   5.111
 2919SOL     OW10588  12.370  10.002   6.850
 2919SOL    HW110589  12.462  10.030   6.847
 2919SOL    HW210590  12.320  10.082   6.833
 2920SOL     OW10591  13.205  14.285   7.690
 2920SOL    HW110592  13.148  14.210   7.674
 2920SOL    HW210593  13.248  14.301   7.606
 2921SOL     OW10594   6.765   5.830  11.100
 2921SOL    HW110595   6.839   5.840  11.041
 2921SOL    HW210596   6.694   5.878  11.057
 2922SOL     OW10597   6.805   3.018   3.444
 2922SOL    HW110598   6.711   3.018   3.426
 2922SOL    HW210599   6.813   3.046   3.535
 2923SOL     OW10600  14.169   0.115   5.798
 2923SOL    HW110601  14.128   0.101   5.883
 2923SOL    HW210602  14.125   0.191   5.762
 2924SOL     OW10603   0.182  11.430  11.083
 2924SOL    HW110604   0.257  11.388  11.124
 2924SOL    HW210605   0.138  11.360  11.036
 2925SOL     OW10606   1.858   0.089   6.224
 2925SOL    HW110607   1.868   0.105   6.318
 2925SOL    HW210608   1.819   0.170   6.190
 2926SOL     OW10609   7.368   4.191  12.669
 2926SOL    HW110610   7.293   4.139  12.641
 2926SOL    HW210611   7.438   4.126  12.682
 2927SOL     OW10612   7.152  12.009   9.326
 2927SOL    HW110613   7.103  11.963   9.394
 2927SOL    HW210614   7.119  12.099   9.330
 2928SOL     OW10615   9.080  14.246   1.314
 2928SOL    HW110616   9.139  14.308   1.270
 2928SOL    HW210617   9.133  14.167   1.327
 2929SOL     OW10618   6.550  10.486   5.672
 2929SOL    HW110619   6.527  10.414   5.731
 2929SOL    HW210620   6.477  10.547   5.679
 2930SOL     OW10621   9.132  12.676   2.891
 2930SOL    HW110622   9.174  12.591   2.875
 2930SOL    HW210623   9.173  12.708   2.971
 2931SOL     OW10624   4.625  10.834   6.808
 2931SOL    HW110625   4.709  10.816   6.766
 2931SOL    HW210626   4.620  10.770   6.879
 2932SOL     OW10627  10.484  10.873  12.266
 2932SOL    HW110628  10.515  10.960  12.241
 2932SOL    HW210629  10.429  10.845  12.192
 2933SOL     OW10630   4.588  13.209   5.266
 2933SOL    HW110631   4.609  13.117   5.249
 2933SOL    HW210632   4.659  13.258   5.226
 2934SOL     OW10633   4.791   3.971  14.406
 2934SOL    HW110634   4.813   3.881  14.383
 2934SOL    HW210635   4.705   3.965  14.447
 2935SOL     OW10636  12.302   8.331   3.654
 2935SOL    HW110637  12.332   8.248   3.692
 2935SOL    HW210638  12.375   8.391   3.667
 2936SOL     OW10639   8.134  14.618   9.877
 2936SOL    HW110640   8.216  14.630   9.925
 2936SOL    HW210641   8.127  14.524   9.863
 2937SOL     OW10642  14.820   4.487   2.157
 2937SOL    HW110643  14.766   4.426   2.206
 2937SOL    HW210644  14.774   4.571   2.162
 2938SOL     OW10645   7.403   4.276   8.402
 2938SOL    HW110646   7.372   4.186   8.415
 2938SOL    HW210647   7.445   4.275   8.316
 2939SOL     OW10648   9.317   1.384   7.877
 2939SOL    HW110649   9.356   1.376   7.790
 2939SOL    HW210650   9.369   1.453   7.921
 2940SOL     OW10651   2.320   4.191   3.096
 2940SOL    HW110652   2.273   4.229   3.169
 2940SOL    HW210653   2.283   4.104   3.085
 2941SOL     OW10654  10.959   4.498   7.537
 2941SOL    HW110655  11.035   4.453   7.574
 2941SOL    HW210656  10.936   4.445   7.460
 2942SOL     OW10657  14.410   1.596  10.141
 2942SOL    HW110658  14.422   1.502  10.157
 2942SOL    HW210659  14.353   1.626  10.212
 2943SOL     OW10660   8.082  12.895   0.123
 2943SOL    HW110661   8.130  12.977   0.136
 2943SOL    HW210662   8.053  12.869   0.210
 2944SOL     OW10663   4.941   7.182   8.959
 2944SOL    HW110664   4.906   7.251   9.014
 2944SOL    HW210665   4.863   7.140   8.921
 2945SOL     OW10666   0.187  14.254  13.494
 2945SOL    HW110667   0.153  14.254  13.584
 2945SOL    HW210668   0.229  14.168  13.485
 2946SOL     OW10669   2.245  11.427   9.399
 2946SOL    HW110670   2.158  11.463   9.411
 2946SOL    HW210671   2.305  11.494   9.432
 2947SOL     OW10672  13.872   9.998  11.220
 2947SOL    HW110673  13.801   9.945  11.184
 2947SOL    HW210674  13.888  10.066  11.154
 2948SOL     OW10675  13.485  14.265  13.254
 2948SOL    HW110676  13.555  14.311  13.208
 2948SOL    HW210677  13.415  14.256  13.189
 2949SOL     OW10678   1.437   3.632   1.948
 2949SOL    HW110679   1.488   3.551   1.953
 2949SOL    HW210680   1.434   3.653   1.855
 2950SOL     OW10681   9.323   3.100   7.593
 2950SOL    HW110682   9.314   3.153   7.513
 2950SOL    HW210683   9.413   3.067   7.588
 2951SOL     OW10684   6.171   3.734   4.092
 2951SOL    HW110685   6.153   3.766   4.004
 2951SOL    HW210686   6.125   3.794   4.150
 2952SOL     OW10687   6.557   4.959   1.941
 2952SOL    HW110688   6.626   4.912   1.894
 2952SOL    HW210689   6.582   5.051   1.936
 2953SOL     OW10690  14.707  10.470  10.462
 2953SOL    HW110691  14.680  10.541  10.405
 2953SOL    HW210692  14.788  10.501  10.503
 2954SOL     OW10693   3.314  12.819  13.426
 2954SOL    HW110694   3.363  12.792  13.503
 2954SOL    HW210695   3.298  12.738  13.377
 2955SOL     OW10696  14.829   3.682   8.135
 2955SOL    HW110697  14.751   3.626   8.133
 2955SOL    HW210698  14.796   3.771   8.132
 2956SOL     OW10699  10.832   8.659   3.719
 2956SOL    HW110700  10.794   8.732   3.769
 2956SOL    HW210701  10.852   8.593   3.785
 2957SOL     OW10702   8.339  10.355   3.971
 2957SOL    HW110703   8.288  10.325   4.046
 2957SOL    HW210704   8.289  10.428   3.935
 2958SOL     OW10705   1.225   2.425  10.742
 2958SOL    HW110706   1.236   2.495  10.678
 2958SOL    HW210707   1.243   2.466  10.826
 2959SOL     OW10708   3.689   6.758  11.071
 2959SOL    HW110709   3.608   6.708  11.059
 2959SOL    HW210710   3.663   6.849  11.057
 2960SOL     OW10711   6.439   1.282   3.657
 2960SOL    HW110712   6.385   1.277   3.577
 2960SOL    HW210713   6.465   1.191   3.673
 2961SOL     OW10714   1.793   7.678  10.344
 2961SOL    HW110715   1.871   7.702  10.294
 2961SOL    HW210716   1.728   7.656  10.277
 2962SOL     OW10717   1.801   5.487  14.615
 2962SOL    HW110718   1.862   5.557  14.593
 2962SOL    HW210719   1.724   5.504  14.561
 2963SOL     OW10720  12.423  10.784   4.007
 2963SOL    HW110721  12.331  10.806   3.991
 2963SOL    HW210722  12.423  10.742   4.093
 2964SOL     OW10723  10.191   0.322  13.412
 2964SOL    HW110724  10.252   0.359  13.348
 2964SOL    HW210725  10.169   0.395  13.469
 2965SOL     OW10726   0.306  10.517   1.723
 2965SOL    HW110727   0.378  10.561   1.678
 2965SOL    HW210728   0.310  10.551   1.813
 2966SOL     OW10729   5.526  11.512  10.516
 2966SOL    HW110730   5.534  11.492  10.610
 2966SOL    HW210731   5.509  11.606  10.513
 2967SOL     OW10732   6.174  12.691   1.527
 2967SOL    HW110733   6.088  12.731   1.544
 2967SOL    HW210734   6.178  12.617   1.588
 2968SOL     OW10735   7.193   9.987   5.855
 2968SOL    HW110736   7.239   9.916   5.901
 2968SOL    HW210737   7.230  10.067   5.892
 2969SOL     OW10738  12.642  11.373   4.760
 2969SOL    HW110739  12.547  11.384   4.762
 2969SOL    HW210740  12.674  11.449   4.710
 2970SOL     OW10741   4.854   2.781   0.618
 2970SOL    HW110742   4.874   2.697   0.660
 2970SOL    HW210743   4.824   2.837   0.690
 2971SOL     OW10744   1.503   5.493   1.852
 2971SOL    HW110745   1.532   5.575   1.890
 2971SOL    HW210746   1.409   5.489   1.871
 2972SOL     OW10747   8.333   5.433   0.619
 2972SOL    HW110748   8.401   5.374   0.585
 2972SOL    HW210749   8.273   5.445   0.546
 2973SOL     OW10750   7.602  14.849   8.872
 2973SOL    HW110751   7.649   0.050   8.869
 2973SOL    HW210752   7.518  14.868   8.829
 2974SOL     OW10753   3.163  10.554  11.760
 2974SOL    HW110754   3.195  10.549  11.670
 2974SOL    HW210755   3.078  10.509  11.757
 2975SOL     OW10756   6.894  12.524   5.661
 2975SOL    HW110757   6.804  12.551   5.641
 2975SOL    HW210758   6.947  12.600   5.639
 2976SOL     OW10759  12.902   9.897  14.372
 2976SOL    HW110760  12.808   9.910  14.370
 2976SOL    HW210761  12.921   9.844  14.294
 2977SOL     OW10762  10.704   5.083  14.091
 2977SOL    HW110763  10.776   5.090  14.154
 2977SOL    HW210764  10.731   5.139  14.018
 2978SOL     OW10765  12.102  10.841   7.511
 2978SOL    HW110766  12.159  10.903   7.465
 2978SOL    HW210767  12.024  10.836   7.456
 2979SOL     OW10768   4.042  10.251   6.225
 2979SOL    HW110769   4.047  10.326   6.284
 2979SOL    HW210770   3.977  10.193   6.264
 2980SOL     OW10771  11.431   3.539   6.919
 2980SOL    HW110772  11.431   3.533   7.015
 2980SOL    HW210773  11.486   3.615   6.900
 2981SOL     OW10774   8.600   7.275   8.969
 2981SOL    HW110775   8.548   7.328   8.909
 2981SOL    HW210776   8.644   7.211   8.914
 2982SOL     OW10777   2.886   9.729  11.383
 2982SOL    HW110778   2.800   9.702  11.348
 2982SOL    HW210779   2.888   9.824  11.370
 2983SOL     OW10780   8.638   3.908   9.218
 2983SOL    HW110781   8.562   3.850   9.213
 2983SOL    HW210782   8.620   3.965   9.293
 2984SOL     OW10783   3.842   8.083  12.802
 2984SOL    HW110784   3.917   8.141  12.789
 2984SOL    HW210785   3.882   7.996  12.816
 2985SOL     OW10786  10.294  11.226   9.396
 2985SOL    HW110787  10.253  11.166   9.333
 2985SOL    HW210788  10.279  11.313   9.359
 2986SOL     OW10789   1.445   9.618   6.853
 2986SOL    HW110790   1.452   9.694   6.909
 2986SOL    HW210791   1.419   9.547   6.911
 2987SOL     OW10792   2.438  10.006  10.484
 2987SOL    HW110793   2.465  10.029  10.396
 2987SOL    HW210794   2.376  10.075  10.510
 2988SOL     OW10795   3.110   1.599  10.051
 2988SOL    HW110796   3.109   1.603   9.955
 2988SOL    HW210797   3.179   1.536  10.072
 2989SOL     OW10798   1.497   6.754   9.042
 2989SOL    HW110799   1.419   6.804   9.016
 2989SOL    HW210800   1.467   6.700   9.115
 2990SOL     OW10801   5.173   0.562  10.019
 2990SOL    HW110802   5.098   0.578   9.962
 2990SOL    HW210803   5.141   0.497  10.083
 2991SOL     OW10804   6.004   7.359   7.253
 2991SOL    HW110805   5.922   7.370   7.205
 2991SOL    HW210806   6.031   7.448   7.275
 2992SOL     OW10807  12.454   5.731   2.974
 2992SOL    HW110808  12.480   5.756   3.062
 2992SOL    HW210809  12.433   5.814   2.930
 2993SOL     OW10810   5.249   0.428   2.405
 2993SOL    HW110811   5.167   0.464   2.438
 2993SOL    HW210812   5.301   0.505   2.381
 2994SOL     OW10813   4.204   2.225   8.022
 2994SOL    HW110814   4.257   2.295   8.060
 2994SOL    HW210815   4.143   2.201   8.092
 2995SOL     OW10816   7.579  12.081   6.054
 2995SOL    HW110817   7.561  12.109   6.144
 2995SOL    HW210818   7.621  12.157   6.013
 2996SOL     OW10819   6.667  12.624   1.791
 2996SOL    HW110820   6.732  12.627   1.862
 2996SOL    HW210821   6.589  12.666   1.828
 2997SOL     OW10822  10.606   4.525  14.766
 2997SOL    HW110823  10.636   4.610  14.797
 2997SOL    HW210824  10.546   4.546  14.694
 2998SOL     OW10825   7.768  12.817   7.554
 2998SOL    HW110826   7.777  12.725   7.577
 2998SOL    HW210827   7.799  12.865   7.631
 2999SOL     OW10828   5.227   0.858   1.915
 2999SOL    HW110829   5.317   0.865   1.884
 2999SOL    HW210830   5.234   0.865   2.010
 3000SOL     OW10831   6.959  14.392   2.283
 3000SOL    HW110832   7.039  14.341   2.270
 3000SOL    HW210833   6.989  14.483   2.287
 3001SOL     OW10834   6.370   4.477   0.652
 3001SOL    HW110835   6.363   4.483   0.747
 3001SOL    HW210836   6.307   4.541   0.620
 3002SOL     OW10837  12.827   5.826   7.385
 3002SOL    HW110838  12.744   5.779   7.372
 3002SOL    HW210839  12.842   5.822   7.479
 3003SOL     OW10840   2.630   5.403   6.978
 3003SOL    HW110841   2.567   5.331   6.976
 3003SOL    HW210842   2.696   5.378   6.913
 3004SOL     OW10843   7.976   7.282  12.490
 3004SOL    HW110844   7.881   7.273  12.477
 3004SOL    HW210845   7.990   7.377  12.495
 3005SOL     OW10846   7.796   1.653   4.949
 3005SOL    HW110847   7.838   1.716   5.008
 3005SOL    HW210848   7.847   1.573   4.960
 3006SOL     OW10849   9.066   6.995   5.611
 3006SOL    HW110850   9.134   7.007   5.545
 3006SOL    HW210851   9.103   7.034   5.691
 3007SOL     OW10852  14.494  12.225   4.694
 3007SOL    HW110853  14.496  12.257   4.784
 3007SOL    HW210854  14.584  12.239   4.662
 3008SOL     OW10855   6.616   0.658   4.074
 3008SOL    HW110856   6.643   0.604   4.000
 3008SOL    HW210857   6.637   0.748   4.047
 3009SOL     OW10858  14.505  13.874  13.899
 3009SOL    HW110859  14.504  13.968  13.880
 3009SOL    HW210860  14.552  13.835  13.825
 3010SOL     OW10861  10.704   8.752  14.878
 3010SOL    HW110862  10.650   8.688  14.832
 3010SOL    HW210863  10.645   8.826   0.011
 3011SOL     OW10864   5.928  11.220  11.650
 3011SOL    HW110865   5.933  11.202  11.743
 3011SOL    HW210866   5.973  11.304  11.639
 3012SOL     OW10867  14.613   3.485   8.048
 3012SOL    HW110868  14.639   3.419   7.984
 3012SOL    HW210869  14.521   3.503   8.029
 3013SOL     OW10870   8.980   4.343  10.514
 3013SOL    HW110871   9.035   4.393  10.574
 3013SOL    HW210872   9.030   4.265  10.494
 3014SOL     OW10873   8.118  13.966   9.431
 3014SOL    HW110874   8.047  13.904   9.450
 3014SOL    HW210875   8.136  13.954   9.338
 3015SOL     OW10876   7.257   8.001   0.628
 3015SOL    HW110877   7.178   8.009   0.682
 3015SOL    HW210878   7.225   7.997   0.538
 3016SOL     OW10879   0.970   9.369   7.957
 3016SOL    HW110880   0.882   9.334   7.970
 3016SOL    HW210881   0.966   9.415   7.874
 3017SOL     OW10882   5.080   0.201   2.417
 3017SOL    HW110883   5.133   0.280   2.405
 3017SOL    HW210884   5.069   0.166   2.329
 3018SOL     OW10885   7.143   8.135   1.346
 3018SOL    HW110886   7.201   8.139   1.422
 3018SOL    HW210887   7.176   8.061   1.295
 3019SOL     OW10888   9.086   1.446   1.122
 3019SOL    HW110889   9.041   1.365   1.100
 3019SOL    HW210890   9.033   1.486   1.191
 3020SOL     OW10891   2.805   1.331   4.228
 3020SOL    HW110892   2.750   1.332   4.150
 3020SOL    HW210893   2.745   1.348   4.301
 3021SOL     OW10894   5.258   4.555  11.713
 3021SOL    HW110895   5.268   4.602  11.796
 3021SOL    HW210896   5.287   4.617  11.647
 3022SOL     OW10897   8.599   5.954   8.820
 3022SOL    HW110898   8.685   5.915   8.834
 3022SOL    HW210899   8.598   6.031   8.877
 3023SOL     OW10900  10.565   6.389   2.841
 3023SOL    HW110901  10.536   6.322   2.903
 3023SOL    HW210902  10.640   6.431   2.883
 3024SOL     OW10903   4.224  10.437   9.528
 3024SOL    HW110904   4.193  10.466   9.443
 3024SOL    HW210905   4.314  10.409   9.512
 3025SOL     OW10906  14.590   0.288   2.329
 3025SOL    HW110907  14.586   0.292   2.424
 3025SOL    HW210908  14.529   0.356   2.299
 3026SOL     OW10909   3.995  11.256   1.709
 3026SOL    HW110910   4.053  11.311   1.656
 3026SOL    HW210911   4.026  11.166   1.693
 3027SOL     OW10912  11.381  10.059   0.722
 3027SOL    HW110913  11.410  10.009   0.646
 3027SOL    HW210914  11.444  10.130   0.730
 3028SOL     OW10915   9.902   5.520   5.062
 3028SOL    HW110916   9.849   5.514   4.983
 3028SOL    HW210917   9.839   5.515   5.134
 3029SOL     OW10918  14.338   2.706  14.201
 3029SOL    HW110919  14.254   2.707  14.247
 3029SOL    HW210920  14.333   2.628  14.145
 3030SOL     OW10921  14.421   6.693   0.982
 3030SOL    HW110922  14.373   6.644   1.049
 3030SOL    HW210923  14.374   6.776   0.975
 3031SOL     OW10924   7.850   2.097   5.875
 3031SOL    HW110925   7.917   2.095   5.944
 3031SOL    HW210926   7.767   2.105   5.922
 3032SOL     OW10927   7.425  14.499   4.590
 3032SOL    HW110928   7.472  14.427   4.632
 3032SOL    HW210929   7.359  14.456   4.535
 3033SOL     OW10930   6.693   3.057   6.917
 3033SOL    HW110931   6.712   3.112   6.993
 3033SOL    HW210932   6.717   2.969   6.946
 3034SOL     OW10933  12.362   5.688  13.211
 3034SOL    HW110934  12.313   5.614  13.245
 3034SOL    HW210935  12.382   5.664  13.120
 3035SOL     OW10936   6.780   7.997  14.210
 3035SOL    HW110937   6.872   8.019  14.193
 3035SOL    HW210938   6.772   7.905  14.184
 3036SOL     OW10939   1.186   9.717   6.739
 3036SOL    HW110940   1.218   9.650   6.800
 3036SOL    HW210941   1.204   9.682   6.652
 3037SOL     OW10942   0.332  10.981   9.422
 3037SOL    HW110943   0.396  10.990   9.351
 3037SOL    HW210944   0.248  10.969   9.377
 3038SOL     OW10945   7.234   0.726   3.636
 3038SOL    HW110946   7.187   0.809   3.632
 3038SOL    HW210947   7.169   0.663   3.668
 3039SOL     OW10948   6.843   4.635  10.165
 3039SOL    HW110949   6.922   4.678  10.131
 3039SOL    HW210950   6.803   4.594  10.088
 3040SOL     OW10951   1.947  13.753   5.150
 3040SOL    HW110952   1.921  13.783   5.063
 3040SOL    HW210953   1.864  13.741   5.197
 3041SOL     OW10954   6.127   6.056  12.961
 3041SOL    HW110955   6.060   5.992  12.985
 3041SOL    HW210956   6.080   6.123  12.911
 3042SOL     OW10957  12.993  10.788   4.338
 3042SOL    HW110958  12.957  10.700   4.351
 3042SOL    HW210959  13.020  10.790   4.246
 3043SOL     OW10960   8.288   9.416  13.799
 3043SOL    HW110961   8.274   9.343  13.739
 3043SOL    HW210962   8.249   9.492  13.755
 3044SOL     OW10963  10.632   0.708  10.078
 3044SOL    HW110964  10.633   0.761  10.157
 3044SOL    HW210965  10.540   0.686  10.064
 3045SOL     OW10966  10.078  13.513   8.199
 3045SOL    HW110967  10.012  13.481   8.261
 3045SOL    HW210968  10.073  13.452   8.126
 3046SOL     OW10969   4.079   5.819   2.098
 3046SOL    HW110970   4.061   5.908   2.067
 3046SOL    HW210971   4.008   5.766   2.063
 3047SOL     OW10972   2.397  10.545  11.158
 3047SOL    HW110973   2.468  10.550  11.095
 3047SOL    HW210974   2.436  10.508  11.237
 3048SOL     OW10975  14.853   6.457   3.602
 3048SOL    HW110976  14.861   6.377   3.551
 3048SOL    HW210977   0.059   6.474   3.635
 3049SOL     OW10978   6.143  11.715  11.759
 3049SOL    HW110979   6.159  11.652  11.829
 3049SOL    HW210980   6.089  11.783  11.800
 3050SOL     OW10981   4.176   2.208   2.371
 3050SOL    HW110982   4.160   2.227   2.464
 3050SOL    HW210983   4.100   2.157   2.344
 3051SOL     OW10984   6.382  12.519  13.977
 3051SOL    HW110985   6.350  12.492  13.891
 3051SOL    HW210986   6.303  12.539  14.027
 3052SOL     OW10987   5.945  11.875   1.832
 3052SOL    HW110988   6.003  11.804   1.862
 3052SOL    HW210989   5.889  11.893   1.907
 3053SOL     OW10990  13.128   0.979   5.548
 3053SOL    HW110991  13.176   1.009   5.625
 3053SOL    HW210992  13.124   1.056   5.491
 3054SOL     OW10993   6.879  11.888   1.936
 3054SOL    HW110994   6.940  11.933   1.877
 3054SOL    HW210995   6.799  11.940   1.933
 3055SOL     OW10996   0.056   3.917   5.044
 3055SOL    HW110997   0.044   3.891   4.952
 3055SOL    HW210998   0.070   3.834   5.091
 3056SOL     OW10999   0.524   0.339   3.353
 3056SOL    HW111000   0.537   0.297   3.438
 3056SOL    HW211001   0.431   0.329   3.336
 3057SOL     OW11002   3.768  12.873   4.125
 3057SOL    HW111003   3.739  12.943   4.184
 3057SOL    HW211004   3.706  12.876   4.052
 3058SOL     OW11005   1.379  13.322  11.760
 3058SOL    HW111006   1.399  13.400  11.709
 3058SOL    HW211007   1.313  13.351  11.823
 3059SOL     OW11008  13.175  11.369   8.203
 3059SOL    HW111009  13.080  11.383   8.203
 3059SOL    HW211010  13.194  11.325   8.285
 3060SOL     OW11011   9.966   2.056   8.331
 3060SOL    HW111012   9.949   1.962   8.336
 3060SOL    HW211013  10.038   2.070   8.393
 3061SOL     OW11014   7.200   9.848   2.442
 3061SOL    HW111015   7.291   9.822   2.460
 3061SOL    HW211016   7.153   9.827   2.523
 3062SOL     OW11017  13.314   5.776  12.362
 3062SOL    HW111018  13.243   5.765  12.299
 3062SOL    HW211019  13.352   5.688  12.371
 3063SOL     OW11020   8.396  13.535   6.987
 3063SOL    HW111021   8.408  13.599   7.057
 3063SOL    HW211022   8.368  13.455   7.032
 3064SOL     OW11023   5.666   6.903   3.253
 3064SOL    HW111024   5.752   6.864   3.270
 3064SOL    HW211025   5.683   6.972   3.190
 3065SOL     OW11026  10.844   0.557   4.642
 3065SOL    HW111027  10.878   0.609   4.714
 3065SOL    HW211028  10.920   0.513   4.605
 3066SOL     OW11029   0.082  12.081  13.579
 3066SOL    HW111030   0.027  12.080  13.500
 3066SOL    HW211031   0.151  12.143  13.559
 3067SOL     OW11032   0.461  11.508   5.402
 3067SOL    HW111033   0.414  11.577   5.356
 3067SOL    HW211034   0.430  11.427   5.361
 3068SOL     OW11035   5.874   5.214   7.046
 3068SOL    HW111036   5.947   5.153   7.042
 3068SOL    HW211037   5.884   5.269   6.968
 3069SOL     OW11038   7.121   0.050   4.490
 3069SOL    HW111039   7.208   0.087   4.476
 3069SOL    HW211040   7.082   0.106   4.557
 3070SOL     OW11041   2.486   3.890  13.117
 3070SOL    HW111042   2.487   3.827  13.189
 3070SOL    HW211043   2.546   3.959  13.143
 3071SOL     OW11044  11.165   2.518   9.726
 3071SOL    HW111045  11.205   2.466   9.656
 3071SOL    HW211046  11.214   2.600   9.726
 3072SOL     OW11047   7.912  13.754   9.537
 3072SOL    HW111048   7.884  13.671   9.497
 3072SOL    HW211049   7.833  13.808   9.537
 3073SOL     OW11050   9.757   6.711   0.466
 3073SOL    HW111051   9.795   6.778   0.409
 3073SOL    HW211052   9.733   6.757   0.546
 3074SOL     OW11053   8.643  13.974   4.899
 3074SOL    HW111054   8.707  13.958   4.968
 3074SOL    HW211055   8.574  14.024   4.943
 3075SOL     OW11056   5.358   4.272   0.070
 3075SOL    HW111057   5.316   4.342   0.022
 3075SOL    HW211058   5.292   4.242   0.132
 3076SOL     OW11059  10.215  14.282   6.058
 3076SOL    HW111060  10.154  14.212   6.083
 3076SOL    HW211061  10.286  14.275   6.122
 3077SOL     OW11062  11.552   1.047   9.971
 3077SOL    HW111063  11.520   1.132  10.002
 3077SOL    HW211064  11.577   1.063   9.880
 3078SOL     OW11065  13.560   1.460  12.715
 3078SOL    HW111066  13.618   1.531  12.688
 3078SOL    HW211067  13.494   1.455  12.646
 3079SOL     OW11068  11.575  12.061   6.270
 3079SOL    HW111069  11.662  12.039   6.238
 3079SOL    HW211070  11.590  12.100   6.356
 3080SOL     OW11071  12.856   4.698   0.078
 3080SOL    HW111072  12.887   4.658   0.159
 3080SOL    HW211073  12.771   4.736   0.101
 3081SOL     OW11074   4.739  12.097   1.978
 3081SOL    HW111075   4.798  12.023   1.960
 3081SOL    HW211076   4.656  12.072   1.937
 3082SOL     OW11077  11.657   0.116  13.676
 3082SOL    HW111078  11.706   0.161  13.607
 3082SOL    HW211079  11.567   0.116  13.645
 3083SOL     OW11080   0.002   2.947   9.638
 3083SOL    HW111081   0.048   2.995   9.569
 3083SOL    HW211082  14.792   2.967   9.624
 3084SOL     OW11083  14.121   0.503  12.556
 3084SOL    HW111084  14.191   0.538  12.611
 3084SOL    HW211085  14.163   0.487  12.471
 3085SOL     OW11086  12.397  10.309   0.522
 3085SOL    HW111087  12.389  10.366   0.598
 3085SOL    HW211088  12.390  10.367   0.447
 3086SOL     OW11089  14.000   5.704   6.951
 3086SOL    HW111090  14.072   5.767   6.947
 3086SOL    HW211091  14.027   5.640   7.016
 3087SOL     OW11092   1.648  13.607   6.021
 3087SOL    HW111093   1.724  13.589   6.076
 3087SOL    HW211094   1.589  13.658   6.076
 3088SOL     OW11095   6.047   1.984  10.221
 3088SOL    HW111096   6.132   1.956  10.186
 3088SOL    HW211097   6.059   1.984  10.316
 3089SOL     OW11098   8.109   1.851   1.837
 3089SOL    HW111099   8.131   1.857   1.744
 3089SOL    HW211100   8.169   1.913   1.880
 3090SOL     OW11101   5.705  13.656   6.804
 3090SOL    HW111102   5.697  13.703   6.887
 3090SOL    HW211103   5.794  13.620   6.804
 3091SOL     OW11104   9.052   4.209   2.470
 3091SOL    HW111105   9.042   4.255   2.554
 3091SOL    HW211106   8.987   4.249   2.413
 3092SOL     OW11107  10.203  11.070  11.398
 3092SOL    HW111108  10.233  11.137  11.460
 3092SOL    HW211109  10.148  11.012  11.451
 3093SOL     OW11110   7.393   6.501   9.915
 3093SOL    HW111111   7.358   6.413   9.932
 3093SOL    HW211112   7.329   6.541   9.856
 3094SOL     OW11113   0.449   1.583  13.280
 3094SOL    HW111114   0.414   1.660  13.325
 3094SOL    HW211115   0.543   1.584  13.297
 3095SOL     OW11116   2.047  11.652   2.778
 3095SOL    HW111117   2.074  11.740   2.805
 3095SOL    HW211118   2.090  11.593   2.841
 3096SOL     OW11119   4.345   5.037   7.704
 3096SOL    HW111120   4.368   5.127   7.728
 3096SOL    HW211121   4.406   5.015   7.633
 3097SOL     OW11122   5.511  14.117   1.863
 3097SOL    HW111123   5.597  14.142   1.898
 3097SOL    HW211124   5.506  14.163   1.779
 3098SOL     OW11125   8.919   7.863   0.586
 3098SOL    HW111126   8.910   7.956   0.566
 3098SOL    HW211127   8.882   7.854   0.673
 3099SOL     OW11128   8.162  12.430   8.871
 3099SOL    HW111129   8.177  12.341   8.902
 3099SOL    HW211130   8.223  12.440   8.797
 3100SOL     OW11131   7.063   3.516   6.561
 3100SOL    HW111132   6.979   3.482   6.530
 3100SOL    HW211133   7.048   3.540   6.652
 3101SOL     OW11134   2.558   9.518  10.672
 3101SOL    HW111135   2.470   9.553  10.657
 3101SOL    HW211136   2.563   9.503  10.766
 3102SOL     OW11137   1.155  12.471   4.695
 3102SOL    HW111138   1.079  12.419   4.667
 3102SOL    HW211139   1.146  12.554   4.648
 3103SOL     OW11140   0.072  13.195   6.864
 3103SOL    HW111141   0.122  13.160   6.790
 3103SOL    HW211142   0.087  13.132   6.935
 3104SOL     OW11143  14.550   9.955   0.248
 3104SOL    HW111144  14.485  10.022   0.229
 3104SOL    HW211145  14.518   9.877   0.203
 3105SOL     OW11146   7.435   1.677   9.226
 3105SOL    HW111147   7.377   1.611   9.189
 3105SOL    HW211148   7.468   1.638   9.307
 3106SOL     OW11149   1.399   3.578   0.353
 3106SOL    HW111150   1.436   3.492   0.332
 3106SOL    HW211151   1.392   3.577   0.449
 3107SOL     OW11152  10.586   0.000   3.724
 3107SOL    HW111153  10.655  14.816   3.728
 3107SOL    HW211154  10.602   0.047   3.642
 3108SOL     OW11155   9.494   1.956   8.925
 3108SOL    HW111156   9.502   1.924   9.015
 3108SOL    HW211157   9.499   1.877   8.871
 3109SOL     OW11158   2.414   9.900   8.222
 3109SOL    HW111159   2.419   9.899   8.318
 3109SOL    HW211160   2.470   9.828   8.194
 3110SOL     OW11161  12.499  10.792   1.357
 3110SOL    HW111162  12.534  10.703   1.365
 3110SOL    HW211163  12.552  10.843   1.419
 3111SOL     OW11164   2.845  11.232  13.001
 3111SOL    HW111165   2.753  11.212  13.018
 3111SOL    HW211166   2.850  11.238  12.905
 3112SOL     OW11167  14.156   1.740  14.305
 3112SOL    HW111168  14.146   1.776  14.217
 3112SOL    HW211169  14.203   1.658  14.292
 3113SOL     OW11170   2.110  12.765   0.971
 3113SOL    HW111171   2.108  12.854   0.935
 3113SOL    HW211172   2.203  12.749   0.987
 3114SOL     OW11173   8.559   7.564   9.783
 3114SOL    HW111174   8.652   7.566   9.807
 3114SOL    HW211175   8.519   7.506   9.848
 3115SOL     OW11176   5.805   1.062   6.644
 3115SOL    HW111177   5.762   1.145   6.621
 3115SOL    HW211178   5.734   0.998   6.645
 3116SOL     OW11179  13.650  10.145   9.980
 3116SOL    HW111180  13.732  10.150   9.931
 3116SOL    HW211181  13.676  10.107  10.065
 3117SOL     OW11182   3.666   5.727  11.040
 3117SOL    HW111183   3.750   5.768  11.057
 3117SOL    HW211184   3.680   5.634  11.057
 3118SOL     OW11185   1.779   1.563   1.700
 3118SOL    HW111186   1.784   1.468   1.698
 3118SOL    HW211187   1.870   1.592   1.690
 3119SOL     OW11188   0.909   4.026  10.091
 3119SOL    HW111189   0.950   3.940  10.092
 3119SOL    HW211190   0.925   4.061  10.179
 3120SOL     OW11191  10.296   4.759   0.333
 3120SOL    HW111192  10.298   4.854   0.316
 3120SOL    HW211193  10.382   4.739   0.370
 3121SOL     OW11194   7.855   8.751  14.881
 3121SOL    HW111195   7.855   8.701  14.799
 3121SOL    HW211196   7.924   8.816  14.869
 3122SOL     OW11197   8.077   4.227   1.645
 3122SOL    HW111198   7.984   4.210   1.631
 3122SOL    HW211199   8.079   4.303   1.702
 3123SOL     OW11200   8.147   5.154  12.545
 3123SOL    HW111201   8.208   5.217  12.582
 3123SOL    HW211202   8.097   5.204  12.480
 3124SOL     OW11203   4.718  10.968   9.777
 3124SOL    HW111204   4.795  11.017   9.805
 3124SOL    HW211205   4.711  10.897   9.841
 3125SOL     OW11206  14.338   3.001   7.177
 3125SOL    HW111207  14.384   3.076   7.138
 3125SOL    HW211208  14.245   3.021   7.164
 3126SOL     OW11209   0.600   1.954   5.494
 3126SOL    HW111210   0.680   1.922   5.453
 3126SOL    HW211211   0.560   2.009   5.426
 3127SOL     OW11212   6.782  11.283  13.855
 3127SOL    HW111213   6.786  11.379  13.861
 3127SOL    HW211214   6.725  11.266  13.780
 3128SOL     OW11215   2.384   5.576  12.772
 3128SOL    HW111216   2.294   5.560  12.745
 3128SOL    HW211217   2.413   5.649  12.717
 3129SOL     OW11218   8.128   3.907   4.983
 3129SOL    HW111219   8.223   3.909   4.972
 3129SOL    HW211220   8.094   3.957   4.909
 3130SOL     OW11221   6.881  14.141   5.436
 3130SOL    HW111222   6.869  14.208   5.503
 3130SOL    HW211223   6.929  14.071   5.480
 3131SOL     OW11224   8.084  11.141   1.052
 3131SOL    HW111225   8.079  11.154   1.147
 3131SOL    HW211226   7.995  11.159   1.021
 3132SOL     OW11227  11.824   3.804   1.639
 3132SOL    HW111228  11.829   3.815   1.544
 3132SOL    HW211229  11.792   3.888   1.671
 3133SOL     OW11230  10.183   1.762  10.310
 3133SOL    HW111231  10.234   1.827  10.262
 3133SOL    HW211232  10.093   1.775  10.280
 3134SOL     OW11233  11.653   9.693   9.592
 3134SOL    HW111234  11.616   9.618   9.639
 3134SOL    HW211235  11.590   9.763   9.607
 3135SOL     OW11236   4.272   8.522   5.861
 3135SOL    HW111237   4.233   8.550   5.779
 3135SOL    HW211238   4.204   8.469   5.903
 3136SOL     OW11239   6.141   3.807  14.494
 3136SOL    HW111240   6.088   3.880  14.525
 3136SOL    HW211241   6.223   3.814  14.544
 3137SOL     OW11242  12.415  11.319  11.369
 3137SOL    HW111243  12.444  11.313  11.278
 3137SOL    HW211244  12.424  11.231  11.403
 3138SOL     OW11245   9.800   0.990   3.839
 3138SOL    HW111246   9.890   0.965   3.820
 3138SOL    HW211247   9.793   0.986   3.934
 3139SOL     OW11248   6.739   5.050   9.846
 3139SOL    HW111249   6.697   5.057   9.760
 3139SOL    HW211250   6.701   4.971   9.884
 3140SOL     OW11251   3.567   8.787  10.577
 3140SOL    HW111252   3.559   8.830  10.492
 3140SOL    HW211253   3.478   8.759  10.598
 3141SOL     OW11254  10.762   9.853   0.623
 3141SOL    HW111255  10.793   9.794   0.691
 3141SOL    HW211256  10.822   9.838   0.549
 3142SOL     OW11257  14.004   1.383   1.768
 3142SOL    HW111258  13.968   1.468   1.743
 3142SOL    HW211259  14.097   1.401   1.785
 3143SOL     OW11260   8.498   4.391   8.591
 3143SOL    HW111261   8.560   4.458   8.562
 3143SOL    HW211262   8.429   4.391   8.525
 3144SOL     OW11263   1.305   2.040   2.815
 3144SOL    HW111264   1.252   2.093   2.876
 3144SOL    HW211265   1.326   1.961   2.865
 3145SOL     OW11266   2.718   7.207   2.517
 3145SOL    HW111267   2.783   7.256   2.467
 3145SOL    HW211268   2.739   7.115   2.499
 3146SOL     OW11269  13.818   1.967  12.308
 3146SOL    HW111270  13.848   1.899  12.369
 3146SOL    HW211271  13.787   1.919  12.232
 3147SOL     OW11272   4.365  13.137   1.306
 3147SOL    HW111273   4.424  13.080   1.355
 3147SOL    HW211274   4.278  13.098   1.318
 3148SOL     OW11275   3.888   0.688  13.741
 3148SOL    HW111276   3.809   0.736  13.719
 3148SOL    HW211277   3.860   0.625  13.807
 3149SOL     OW11278   5.794  12.214  11.393
 3149SOL    HW111279   5.769  12.300  11.359
 3149SOL    HW211280   5.889  12.220  11.403
 3150SOL     OW11281   8.919  10.743  11.626
 3150SOL    HW111282   8.830  10.780  11.624
 3150SOL    HW211283   8.969  10.804  11.681
 3151SOL     OW11284   1.574   1.029   5.902
 3151SOL    HW111285   1.609   0.988   5.823
 3151SOL    HW211286   1.559   1.120   5.877
 3152SOL     OW11287   6.292  12.846  11.628
 3152SOL    HW111288   6.247  12.856  11.712
 3152SOL    HW211289   6.233  12.793  11.575
 3153SOL     OW11290   7.884   6.018   5.642
 3153SOL    HW111291   7.893   5.923   5.656
 3153SOL    HW211292   7.789   6.033   5.648
 3154SOL     OW11293   2.189   6.507  14.484
 3154SOL    HW111294   2.234   6.557  14.417
 3154SOL    HW211295   2.259   6.457  14.527
 3155SOL     OW11296  12.943  11.412   3.262
 3155SOL    HW111297  12.967  11.503   3.243
 3155SOL    HW211298  12.947  11.405   3.357
 3156SOL     OW11299  11.227   4.058  13.373
 3156SOL    HW111300  11.140   4.062  13.333
 3156SOL    HW211301  11.217   3.997  13.446
 3157SOL     OW11302   8.401   1.258   6.253
 3157SOL    HW111303   8.457   1.296   6.321
 3157SOL    HW211304   8.390   1.328   6.189
 3158SOL     OW11305   7.820   2.782   7.501
 3158SOL    HW111306   7.826   2.713   7.567
 3158SOL    HW211307   7.911   2.798   7.475
 3159SOL     OW11308  12.998  10.936  13.589
 3159SOL    HW111309  13.014  10.927  13.683
 3159SOL    HW211310  12.912  10.979  13.583
 3160SOL     OW11311   3.804  11.217   1.928
 3160SOL    HW111312   3.805  11.126   1.955
 3160SOL    HW211313   3.856  11.219   1.848
 3161SOL     OW11314   5.102   4.085   1.663
 3161SOL    HW111315   5.051   4.159   1.698
 3161SOL    HW211316   5.165   4.126   1.604
 3162SOL     OW11317  13.593   6.868  11.732
 3162SOL    HW111318  13.502   6.888  11.710
 3162SOL    HW211319  13.625   6.947  11.777
 3163SOL     OW11320  12.058   9.716   0.097
 3163SOL    HW111321  12.132   9.667   0.132
 3163SOL    HW211322  12.054   9.795   0.151
 3164SOL     OW11323  12.269   3.974   3.636
 3164SOL    HW111324  12.317   4.050   3.603
 3164SOL    HW211325  12.209   4.010   3.702
 3165SOL     OW11326  10.183   3.892  12.251
 3165SOL    HW111327  10.264   3.890  12.303
 3165SOL    HW211328  10.201   3.835  12.177
 3166SOL     OW11329   9.314  14.874   1.712
 3166SOL    HW111330   9.256   0.049   1.762
 3166SOL    HW211331   9.369   0.052   1.660
 3167SOL     OW11332   5.624   4.542  10.887
 3167SOL    HW111333   5.718   4.535  10.905
 3167SOL    HW211334   5.605   4.467  10.832
 3168SOL     OW11335   5.800   9.256  11.606
 3168SOL    HW111336   5.804   9.161  11.593
 3168SOL    HW211337   5.843   9.270  11.691
 3169SOL     OW11338   0.228  12.330   3.599
 3169SOL    HW111339   0.298  12.265   3.606
 3169SOL    HW211340   0.274  12.413   3.588
 3170SOL     OW11341  10.444   7.686   8.219
 3170SOL    HW111342  10.427   7.656   8.309
 3170SOL    HW211343  10.539   7.680   8.210
 3171SOL     OW11344   1.043  13.876   6.494
 3171SOL    HW111345   1.065  13.894   6.402
 3171SOL    HW211346   0.961  13.924   6.508
 3172SOL     OW11347   9.184   0.307  12.379
 3172SOL    HW111348   9.197   0.386  12.431
 3172SOL    HW211349   9.166   0.238  12.443
 3173SOL     OW11350   9.901  14.221  13.044
 3173SOL    HW111351   9.808  14.200  13.053
 3173SOL    HW211352   9.903  14.317  13.041
 3174SOL     OW11353  13.449   0.768   9.604
 3174SOL    HW111354  13.395   0.701   9.646
 3174SOL    HW211355  13.507   0.800   9.673
 3175SOL     OW11356   6.009   2.170  10.016
 3175SOL    HW111357   6.091   2.147   9.971
 3175SOL    HW211358   6.014   2.123  10.100
 3176SOL     OW11359  10.582  14.843  11.237
 3176SOL    HW111360  10.535  14.784  11.177
 3176SOL    HW211361  10.658  14.792  11.266
 3177SOL     OW11362  12.279   3.165   7.246
 3177SOL    HW111363  12.362   3.119   7.233
 3177SOL    HW211364  12.259   3.204   7.161
 3178SOL     OW11365   3.025   4.098   2.762
 3178SOL    HW111366   2.942   4.050   2.754
 3178SOL    HW211367   3.088   4.042   2.716
 3179SOL     OW11368   3.072   4.892   5.287
 3179SOL    HW111369   3.023   4.846   5.219
 3179SOL    HW211370   3.135   4.946   5.239
 3180SOL     OW11371   2.434   0.454  10.900
 3180SOL    HW111372   2.504   0.486  10.843
 3180SOL    HW211373   2.470   0.374  10.940
 3181SOL     OW11374  10.726   5.235   1.167
 3181SOL    HW111375  10.671   5.294   1.219
 3181SOL    HW211376  10.705   5.256   1.076
 3182SOL     OW11377   8.495   0.378  12.166
 3182SOL    HW111378   8.574   0.425  12.137
 3182SOL    HW211379   8.516   0.286  12.153
 3183SOL     OW11380   3.611  11.868   9.571
 3183SOL    HW111381   3.696  11.847   9.609
 3183SOL    HW211382   3.551  11.802   9.606
 3184SOL     OW11383   4.329  10.049   7.218
 3184SOL    HW111384   4.423  10.031   7.215
 3184SOL    HW211385   4.318  10.102   7.298
 3185SOL     OW11386   7.752  14.394   8.411
 3185SOL    HW111387   7.684  14.413   8.346
 3185SOL    HW211388   7.802  14.476   8.417
 3186SOL     OW11389   7.239  12.461   9.601
 3186SOL    HW111390   7.299  12.462   9.526
 3186SOL    HW211391   7.193  12.545   9.596
 3187SOL     OW11392  13.091  14.368   0.430
 3187SOL    HW111393  13.172  14.317   0.435
 3187SOL    HW211394  13.101  14.435   0.498
 3188SOL     OW11395  11.534   9.250   2.391
 3188SOL    HW111396  11.519   9.184   2.459
 3188SOL    HW211397  11.596   9.208   2.331
 3189SOL     OW11398   1.813  13.393   0.321
 3189SOL    HW111399   1.889  13.451   0.312
 3189SOL    HW211400   1.753  13.441   0.377
 3190SOL     OW11401   2.437   0.119   8.355
 3190SOL    HW111402   2.420   0.058   8.427
 3190SOL    HW211403   2.526   0.150   8.371
 3191SOL     OW11404  11.335   8.838  10.811
 3191SOL    HW111405  11.404   8.803  10.755
 3191SOL    HW211406  11.356   8.804  10.898
 3192SOL     OW11407  11.877  10.764   5.968
 3192SOL    HW111408  11.842  10.675   5.967
 3192SOL    HW211409  11.953  10.760   5.910
 3193SOL     OW11410   6.772  14.716   1.172
 3193SOL    HW111411   6.829  14.711   1.095
 3193SOL    HW211412   6.720  14.636   1.169
 3194SOL     OW11413  11.087  13.621  11.454
 3194SOL    HW111414  11.043  13.701  11.483
 3194SOL    HW211415  11.154  13.605  11.521
 3195SOL     OW11416  14.506  13.534  13.810
 3195SOL    HW111417  14.566  13.591  13.762
 3195SOL    HW211418  14.466  13.479  13.742
 3196SOL     OW11419   8.723   5.162   9.085
 3196SOL    HW111420   8.758   5.191   9.170
 3196SOL    HW211421   8.800   5.151   9.030
 3197SOL     OW11422  11.861   8.206   5.001
 3197SOL    HW111423  11.788   8.232   5.056
 3197SOL    HW211424  11.934   8.260   5.031
 3198SOL     OW11425  14.686  10.392  13.411
 3198SOL    HW111426  14.759  10.397  13.473
 3198SOL    HW211427  14.674  10.299  13.396
 3199SOL     OW11428  13.767   8.213   6.170
 3199SOL    HW111429  13.743   8.277   6.237
 3199SOL    HW211430  13.862   8.213   6.169
 3200SOL     OW11431  14.413   1.965  14.081
 3200SOL    HW111432  14.464   1.902  14.131
 3200SOL    HW211433  14.455   1.967  13.995
 3201SOL     OW11434   9.157   6.724   5.566
 3201SOL    HW111435   9.120   6.651   5.616
 3201SOL    HW211436   9.085   6.787   5.559
 3202SOL     OW11437  11.482  11.252   4.337
 3202SOL    HW111438  11.395  11.231   4.369
 3202SOL    HW211439  11.527  11.167   4.331
 3203SOL     OW11440   9.562   1.817   2.501
 3203SOL    HW111441   9.626   1.881   2.532
 3203SOL    HW211442   9.593   1.790   2.415
 3204SOL     OW11443   9.371  10.874  10.246
 3204SOL    HW111444   9.379  10.789  10.291
 3204SOL    HW211445   9.283  10.904  10.267
 3205SOL     OW11446  12.647   3.305   5.508
 3205SOL    HW111447  12.710   3.242   5.474
 3205SOL    HW211448  12.643   3.373   5.441
 3206SOL     OW11449   0.111   6.562   7.828
 3206SOL    HW111450   0.095   6.634   7.767
 3206SOL    HW211451   0.118   6.604   7.914
 3207SOL     OW11452   1.926   9.430   9.558
 3207SOL    HW111453   1.832   9.415   9.568
 3207SOL    HW211454   1.947   9.493   9.627
 3208SOL     OW11455   5.572  13.103  12.201
 3208SOL    HW111456   5.574  13.150  12.284
 3208SOL    HW211457   5.479  13.086  12.185
 3209SOL     OW11458  12.284   2.021   9.073
 3209SOL    HW111459  12.354   1.996   9.013
 3209SOL    HW211460  12.330   2.044   9.154
 3210SOL     OW11461  12.354   0.601   3.448
 3210SOL    HW111462  12.361   0.643   3.362
 3210SOL    HW211463  12.262   0.579   3.457
 3211SOL     OW11464  14.329   4.973   7.001
 3211SOL    HW111465  14.234   4.983   6.991
 3211SOL    HW211466  14.367   5.045   6.952
 3212SOL     OW11467   7.623  10.765   2.394
 3212SOL    HW111468   7.544  10.755   2.342
 3212SOL    HW211469   7.611  10.846   2.442
 3213SOL     OW11470  13.077   7.414   7.119
 3213SOL    HW111471  13.009   7.346   7.121
 3213SOL    HW211472  13.078   7.444   7.028
 3214SOL     OW11473   0.303   6.708   7.232
 3214SOL    HW111474   0.349   6.769   7.290
 3214SOL    HW211475   0.264   6.644   7.292
 3215SOL     OW11476   9.360   3.214   7.337
 3215SOL    HW111477   9.287   3.271   7.310
 3215SOL    HW211478   9.348   3.134   7.287
 3216SOL     OW11479   8.173   2.887   8.093
 3216SOL    HW111480   8.141   2.872   8.004
 3216SOL    HW211481   8.223   2.808   8.115
 3217SOL     OW11482   1.495   7.537   6.963
 3217SOL    HW111483   1.569   7.573   6.915
 3217SOL    HW211484   1.534   7.501   7.044
 3218SOL     OW11485  11.881   9.752   1.601
 3218SOL    HW111486  11.934   9.672   1.596
 3218SOL    HW211487  11.812   9.731   1.664
 3219SOL     OW11488  10.592   0.073   6.757
 3219SOL    HW111489  10.658   0.005   6.770
 3219SOL    HW211490  10.551   0.051   6.674
 3220SOL     OW11491   7.643   0.858   9.120
 3220SOL    HW111492   7.685   0.782   9.161
 3220SOL    HW211493   7.707   0.928   9.127
 3221SOL     OW11494   8.830  11.050   4.407
 3221SOL    HW111495   8.881  11.011   4.335
 3221SOL    HW211496   8.897  11.079   4.470
 3222SOL     OW11497   9.382   2.197   4.761
 3222SOL    HW111498   9.416   2.122   4.713
 3222SOL    HW211499   9.454   2.260   4.764
 3223SOL     OW11500  14.532  11.305  10.543
 3223SOL    HW111501  14.439  11.293  10.558
 3223SOL    HW211502  14.560  11.226  10.498
 3224SOL     OW11503   0.095   2.308   1.408
 3224SOL    HW111504   0.153   2.374   1.369
 3224SOL    HW211505   0.123   2.303   1.499
 3225SOL     OW11506   1.378  11.799   2.420
 3225SOL    HW111507   1.428  11.794   2.502
 3225SOL    HW211508   1.293  11.833   2.447
 3226SOL     OW11509   4.532   7.995  11.743
 3226SOL    HW111510   4.591   7.939  11.693
 3226SOL    HW211511   4.506   7.941  11.818
 3227SOL     OW11512   9.582   8.733   1.939
 3227SOL    HW111513   9.592   8.638   1.942
 3227SOL    HW211514   9.503   8.750   1.991
 3228SOL     OW11515   7.359   4.758   9.068
 3228SOL    HW111516   7.360   4.826   9.001
 3228SOL    HW211517   7.450   4.728   9.073
 3229SOL     OW11518  12.258  12.525   4.347
 3229SOL    HW111519  12.309  12.520   4.428
 3229SOL    HW211520  12.320  12.499   4.278
 3230SOL     OW11521   3.064  11.848  13.050
 3230SOL    HW111522   3.039  11.858  13.142
 3230SOL    HW211523   3.012  11.913  13.004
 3231SOL     OW11524   8.127  13.704   0.148
 3231SOL    HW111525   8.199  13.754   0.110
 3231SOL    HW211526   8.080  13.668   0.072
 3232SOL     OW11527  12.308   6.395  12.719
 3232SOL    HW111528  12.373   6.416  12.651
 3232SOL    HW211529  12.224   6.422  12.681
 3233SOL     OW11530   9.173  11.925  13.242
 3233SOL    HW111531   9.253  11.941  13.291
 3233SOL    HW211532   9.188  11.965  13.156
 3234SOL     OW11533  11.600   1.631   8.769
 3234SOL    HW111534  11.652   1.609   8.692
 3234SOL    HW211535  11.577   1.723   8.756
 3235SOL     OW11536  10.887   8.862  12.372
 3235SOL    HW111537  10.912   8.954  12.367
 3235SOL    HW211538  10.930   8.830  12.452
 3236SOL     OW11539   1.302  10.605   4.315
 3236SOL    HW111540   1.248  10.603   4.236
 3236SOL    HW211541   1.342  10.517   4.318
 3237SOL     OW11542  11.543  11.856   5.333
 3237SOL    HW111543  11.621  11.882   5.382
 3237SOL    HW211544  11.558  11.890   5.245
 3238SOL     OW11545  11.557   1.614  10.000
 3238SOL    HW111546  11.647   1.583  10.009
 3238SOL    HW211547  11.556   1.661   9.916
 3239SOL     OW11548   1.988   4.350  12.790
 3239SOL    HW111549   1.935   4.424  12.820
 3239SOL    HW211550   1.925   4.280  12.774
 3240SOL     OW11551   4.301   6.086   2.608
 3240SOL    HW111552   4.380   6.083   2.554
 3240SOL    HW211553   4.244   6.018   2.572
 3241SOL     OW11554  12.270  13.590   3.891
 3241SOL    HW111555  12.252  13.526   3.960
 3241SOL    HW211556  12.297  13.537   3.816
 3242SOL     OW11557  10.650  14.839  10.546
 3242SOL    HW111558  10.699  14.879  10.474
 3242SOL    HW211559  10.623  14.754  10.512
 3243SOL     OW11560  11.399  14.055  10.138
 3243SOL    HW111561  11.419  14.126  10.199
 3243SOL    HW211562  11.303  14.050  10.137
 3244SOL     OW11563  12.031  13.861   0.539
 3244SOL    HW111564  12.003  13.778   0.575
 3244SOL    HW211565  11.992  13.927   0.596
 3245SOL     OW11566   1.498  10.624   3.241
 3245SOL    HW111567   1.499  10.577   3.158
 3245SOL    HW211568   1.520  10.714   3.217
 3246SOL     OW11569  13.728   6.654   7.579
 3246SOL    HW111570  13.709   6.638   7.487
 3246SOL    HW211571  13.747   6.748   7.584
 3247SOL     OW11572  12.887   3.001  11.082
 3247SOL    HW111573  12.981   2.985  11.080
 3247SOL    HW211574  12.878   3.087  11.123
 3248SOL     OW11575  13.643   6.165   7.248
 3248SOL    HW111576  13.595   6.216   7.313
 3248SOL    HW211577  13.725   6.213   7.236
 3249SOL     OW11578   2.553   9.346  11.329
 3249SOL    HW111579   2.577   9.380  11.244
 3249SOL    HW211580   2.635   9.314  11.367
 3250SOL     OW11581   6.862   5.395   2.180
 3250SOL    HW111582   6.773   5.362   2.168
 3250SOL    HW211583   6.863   5.479   2.134
 3251SOL     OW11584   7.735   8.303  14.588
 3251SOL    HW111585   7.727   8.398  14.589
 3251SOL    HW211586   7.689   8.275  14.509
 3252SOL     OW11587   1.445  10.971   4.181
 3252SOL    HW111588   1.501  10.893   4.183
 3252SOL    HW211589   1.356  10.935   4.178
 3253SOL     OW11590  13.773   6.883  10.950
 3253SOL    HW111591  13.765   6.948  11.019
 3253SOL    HW211592  13.767   6.799  10.995
 3254SOL     OW11593  11.425   5.038  12.980
 3254SOL    HW111594  11.441   5.100  12.909
 3254SOL    HW211595  11.510   4.998  12.997
 3255SOL     OW11596   0.928   5.714   9.430
 3255SOL    HW111597   0.940   5.713   9.335
 3255SOL    HW211598   1.012   5.685   9.466
 3256SOL     OW11599   5.538   2.186   3.044
 3256SOL    HW111600   5.533   2.187   3.140
 3256SOL    HW211601   5.507   2.272   3.018
 3257SOL     OW11602   4.056  10.845  12.662
 3257SOL    HW111603   4.009  10.922  12.632
 3257SOL    HW211604   4.008  10.815  12.739
 3258SOL     OW11605  12.741   1.702   4.305
 3258SOL    HW111606  12.746   1.663   4.392
 3258SOL    HW211607  12.678   1.774   4.315
 3259SOL     OW11608  11.045  11.561  10.755
 3259SOL    HW111609  11.059  11.550  10.661
 3259SOL    HW211610  11.091  11.487  10.795
 3260SOL     OW11611  10.847  13.554   4.122
 3260SOL    HW111612  10.820  13.597   4.041
 3260SOL    HW211613  10.846  13.625   4.187
 3261SOL     OW11614   6.148   0.127  11.132
 3261SOL    HW111615   6.089   0.202  11.145
 3261SOL    HW211616   6.119   0.063  11.197
 3262SOL     OW11617   8.827   7.697   5.609
 3262SOL    HW111618   8.893   7.681   5.541
 3262SOL    HW211619   8.877   7.704   5.690
 3263SOL     OW11620   5.401   0.021   8.419
 3263SOL    HW111621   5.423  14.811   8.404
 3263SOL    HW211622   5.387   0.027   8.513
 3264SOL     OW11623   7.454   7.668   3.246
 3264SOL    HW111624   7.494   7.606   3.308
 3264SOL    HW211625   7.400   7.613   3.189
 3265SOL     OW11626   7.192   3.488   4.625
 3265SOL    HW111627   7.218   3.578   4.609
 3265SOL    HW211628   7.243   3.461   4.701
 3266SOL     OW11629  11.238   0.018   8.718
 3266SOL    HW111630  11.289  14.836   8.768
 3266SOL    HW211631  11.236  14.865   8.629
 3267SOL     OW11632  12.268   7.421   8.919
 3267SOL    HW111633  12.191   7.437   8.974
 3267SOL    HW211634  12.252   7.472   8.840
 3268SOL     OW11635   2.375   4.899   4.496
 3268SOL    HW111636   2.362   4.804   4.500
 3268SOL    HW211637   2.386   4.925   4.587
 3269SOL     OW11638   3.160  12.345   1.403
 3269SOL    HW111639   3.181  12.352   1.496
 3269SOL    HW211640   3.219  12.279   1.369
 3270SOL     OW11641   7.832  13.651  14.199
 3270SOL    HW111642   7.879  13.711  14.257
 3270SOL    HW211643   7.817  13.573  14.252
 3271SOL     OW11644   7.130   6.564   2.507
 3271SOL    HW111645   7.126   6.633   2.441
 3271SOL    HW211646   7.112   6.609   2.590
 3272SOL     OW11647  10.187   1.424  14.411
 3272SOL    HW111648  10.166   1.457  14.324
 3272SOL    HW211649  10.267   1.470  14.436
 3273SOL     OW11650  14.025   6.699   8.761
 3273SOL    HW111651  13.964   6.635   8.723
 3273SOL    HW211652  14.075   6.648   8.825
 3274SOL     OW11653  12.517   2.880   3.986
 3274SOL    HW111654  12.571   2.926   4.051
 3274SOL    HW211655  12.563   2.798   3.970
 3275SOL     OW11656  11.013   5.321   3.830
 3275SOL    HW111657  10.956   5.244   3.826
 3275SOL    HW211658  10.997   5.366   3.747
 3276SOL     OW11659  11.888   8.808   9.964
 3276SOL    HW111660  11.837   8.782   9.887
 3276SOL    HW211661  11.875   8.903   9.970
 3277SOL     OW11662   2.219   6.694  14.217
 3277SOL    HW111663   2.193   6.668  14.129
 3277SOL    HW211664   2.214   6.789  14.216
 3278SOL     OW11665  12.677   1.848   7.323
 3278SOL    HW111666  12.678   1.910   7.397
 3278SOL    HW211667  12.653   1.764   7.362
 3279SOL     OW11668   0.363   4.014  14.031
 3279SOL    HW111669   0.288   4.030  14.089
 3279SOL    HW211670   0.410   3.942  14.071
 3280SOL     OW11671  14.520   5.559   5.758
 3280SOL    HW111672  14.455   5.494   5.786
 3280SOL    HW211673  14.473   5.642   5.759
 3281SOL     OW11674   2.448   6.402   8.046
 3281SOL    HW111675   2.364   6.392   8.001
 3281SOL    HW211676   2.442   6.343   8.121
 3282SOL     OW11677  10.753   2.610   7.890
 3282SOL    HW111678  10.774   2.672   7.961
 3282SOL    HW211679  10.806   2.640   7.816
 3283SOL     OW11680   5.908   6.029   5.881
 3283SOL    HW111681   5.868   5.989   5.959
 3283SOL    HW211682   5.949   5.956   5.835
 3284SOL     OW11683   8.606   7.315   9.560
 3284SOL    HW111684   8.581   7.401   9.527
 3284SOL    HW211685   8.641   7.333   9.648
 3285SOL     OW11686  10.386  12.146   3.465
 3285SOL    HW111687  10.411  12.137   3.557
 3285SOL    HW211688  10.400  12.239   3.446
 3286SOL     OW11689   5.802   4.153  14.692
 3286SOL    HW111690   5.720   4.186  14.729
 3286SOL    HW211691   5.854   4.128  14.768
 3287SOL     OW11692   6.546   5.633   9.749
 3287SOL    HW111693   6.613   5.572   9.778
 3287SOL    HW211694   6.463   5.590   9.770
 3288SOL     OW11695  11.120   4.313   9.576
 3288SOL    HW111696  11.025   4.318   9.568
 3288SOL    HW211697  11.149   4.275   9.493
 3289SOL     OW11698  11.101   7.024   7.022
 3289SOL    HW111699  11.046   7.100   7.001
 3289SOL    HW211700  11.117   7.031   7.116
 3290SOL     OW11701   6.615   4.057   2.646
 3290SOL    HW111702   6.531   4.061   2.694
 3290SOL    HW211703   6.618   4.140   2.598
 3291SOL     OW11704  10.010   7.124   1.494
 3291SOL    HW111705   9.924   7.155   1.523
 3291SOL    HW211706  10.057   7.204   1.469
 3292SOL     OW11707  14.226  14.473  13.092
 3292SOL    HW111708  14.142  14.431  13.111
 3292SOL    HW211709  14.251  14.514  13.175
 3293SOL     OW11710   1.782  10.316   3.484
 3293SOL    HW111711   1.808  10.243   3.429
 3293SOL    HW211712   1.687  10.309   3.489
 3294SOL     OW11713   8.449   7.384  12.034
 3294SOL    HW111714   8.452   7.478  12.053
 3294SOL    HW211715   8.441   7.343  12.120
 3295SOL     OW11716   9.330   8.968   0.553
 3295SOL    HW111717   9.403   8.969   0.614
 3295SOL    HW211718   9.337   8.885   0.507
 3296SOL     OW11719   9.104   4.483   6.457
 3296SOL    HW111720   9.069   4.411   6.509
 3296SOL    HW211721   9.143   4.542   6.522
 3297SOL     OW11722   4.545   9.030   7.216
 3297SOL    HW111723   4.517   9.118   7.191
 3297SOL    HW211724   4.521   9.022   7.308
 3298SOL     OW11725   0.524   0.578   8.952
 3298SOL    HW111726   0.482   0.543   8.874
 3298SOL    HW211727   0.596   0.633   8.919
 3299SOL     OW11728  13.473   8.918  11.221
 3299SOL    HW111729  13.477   8.901  11.127
 3299SOL    HW211730  13.429   9.002  11.229
 3300SOL     OW11731  11.091   1.388  10.969
 3300SOL    HW111732  11.132   1.472  10.993
 3300SOL    HW211733  11.121   1.372  10.879
 3301SOL     OW11734  13.162   6.278   5.911
 3301SOL    HW111735  13.207   6.333   5.847
 3301SOL    HW211736  13.085   6.246   5.864
 3302SOL     OW11737  13.844  10.359  10.256
 3302SOL    HW111738  13.928  10.360  10.210
 3302SOL    HW211739  13.821  10.266  10.262
 3303SOL     OW11740  10.431  14.478   2.966
 3303SOL    HW111741  10.377  14.525   2.903
 3303SOL    HW211742  10.376  14.406   2.995
 3304SOL     OW11743   2.332   9.598   8.413
 3304SOL    HW111744   2.388   9.554   8.476
 3304SOL    HW211745   2.269   9.531   8.386
 3305SOL     OW11746  10.047  12.186   0.460
 3305SOL    HW111747   9.961  12.178   0.419
 3305SOL    HW211748  10.080  12.271   0.430
 3306SOL     OW11749   7.208   3.539   2.163
 3306SOL    HW111750   7.221   3.505   2.251
 3306SOL    HW211751   7.282   3.596   2.147
 3307SOL     OW11752   9.139   0.660   7.283
 3307SOL    HW111753   9.166   0.614   7.203
 3307SOL    HW211754   9.130   0.591   7.348
 3308SOL     OW11755  11.575   9.111   5.032
 3308SOL    HW111756  11.484   9.141   5.034
 3308SOL    HW211757  11.603   9.115   5.123
 3309SOL     OW11758   7.142   6.687   7.221
 3309SOL    HW111759   7.056   6.729   7.233
 3309SOL    HW211760   7.174   6.720   7.138
 3310SOL     OW11761   6.056   6.139   3.641
 3310SOL    HW111762   6.084   6.064   3.694
 3310SOL    HW211763   6.137   6.173   3.603
 3311SOL     OW11764   8.547   6.951   8.101
 3311SOL    HW111765   8.500   6.994   8.173
 3311SOL    HW211766   8.483   6.892   8.063
 3312SOL     OW11767   0.069   2.561  12.800
 3312SOL    HW111768   0.049   2.473  12.765
 3312SOL    HW211769   0.144   2.591  12.748
 3313SOL     OW11770   5.521   3.454  13.022
 3313SOL    HW111771   5.467   3.431  12.947
 3313SOL    HW211772   5.582   3.520  12.989
 3314SOL     OW11773   6.089  14.319   6.695
 3314SOL    HW111774   6.098  14.341   6.603
 3314SOL    HW211775   6.017  14.375   6.726
 3315SOL     OW11776  14.864  10.568   0.160
 3315SOL    HW111777  14.783  10.573   0.109
 3315SOL    HW211778  14.855  10.639   0.224
 3316SOL     OW11779   4.358   4.478  10.239
 3316SOL    HW111780   4.426   4.423  10.199
 3316SOL    HW211781   4.276   4.438  10.211
 3317SOL     OW11782  11.539   6.386   9.903
 3317SOL    HW111783  11.549   6.454   9.971
 3317SOL    HW211784  11.559   6.304   9.948
 3318SOL     OW11785  12.162   9.375   3.556
 3318SOL    HW111786  12.244   9.363   3.509
 3318SOL    HW211787  12.158   9.302   3.618
 3319SOL     OW11788   8.579  12.387  11.903
 3319SOL    HW111789   8.538  12.473  11.896
 3319SOL    HW211790   8.551  12.342  11.823
 3320SOL     OW11791   4.161  10.042   1.944
 3320SOL    HW111792   4.119  10.101   1.882
 3320SOL    HW211793   4.178  10.096   2.022
 3321SOL     OW11794   2.636   6.810   0.823
 3321SOL    HW111795   2.588   6.884   0.786
 3321SOL    HW211796   2.622   6.739   0.761
 3322SOL     OW11797   9.104   9.068   9.675
 3322SOL    HW111798   9.143   8.981   9.668
 3322SOL    HW211799   9.065   9.070   9.763
 3323SOL     OW11800   3.559  11.746   7.367
 3323SOL    HW111801   3.587  11.657   7.388
 3323SOL    HW211802   3.472  11.754   7.407
 3324SOL     OW11803   2.662   6.066   8.180
 3324SOL    HW111804   2.739   6.075   8.124
 3324SOL    HW211805   2.673   6.132   8.249
 3325SOL     OW11806   0.235   0.683   8.997
 3325SOL    HW111807   0.229   0.687   9.093
 3325SOL    HW211808   0.328   0.674   8.980
 3326SOL     OW11809   3.060  12.347   2.511
 3326SOL    HW111810   3.021  12.260   2.500
 3326SOL    HW211811   2.989  12.407   2.489
 3327SOL     OW11812   0.230   0.404   6.091
 3327SOL    HW111813   0.318   0.439   6.080
 3327SOL    HW211814   0.227   0.373   6.181
 3328SOL     OW11815   8.841  14.786  10.568
 3328SOL    HW111816   8.807  14.874  10.582
 3328SOL    HW211817   8.874  14.759  10.653
 3329SOL     OW11818   7.263   1.015  13.789
 3329SOL    HW111819   7.191   1.057  13.837
 3329SOL    HW211820   7.338   1.023  13.847
 3330SOL     OW11821   5.427   1.953   5.259
 3330SOL    HW111822   5.389   2.023   5.206
 3330SOL    HW211823   5.429   1.877   5.201
 3331SOL     OW11824  10.306  13.302  10.192
 3331SOL    HW111825  10.336  13.221  10.150
 3331SOL    HW211826  10.214  13.285  10.213
 3332SOL     OW11827   3.975  12.775   7.054
 3332SOL    HW111828   3.904  12.835   7.075
 3332SOL    HW211829   4.053  12.830   7.049
 3333SOL     OW11830   5.847  12.319  10.692
 3333SOL    HW111831   5.831  12.329  10.598
 3333SOL    HW211832   5.865  12.226  10.703
 3334SOL     OW11833  12.215  13.676  14.456
 3334SOL    HW111834  12.152  13.605  14.463
 3334SOL    HW211835  12.217  13.717  14.542
 3335SOL     OW11836  13.311   1.335  13.168
 3335SOL    HW111837  13.360   1.300  13.094
 3335SOL    HW211838  13.346   1.289  13.244
 3336SOL     OW11839   7.266   9.221   4.925
 3336SOL    HW111840   7.184   9.211   4.877
 3336SOL    HW211841   7.239   9.249   5.012
 3337SOL     OW11842   6.275   4.408   2.288
 3337SOL    HW111843   6.369   4.394   2.275
 3337SOL    HW211844   6.232   4.349   2.226
 3338SOL     OW11845   5.804  10.389   6.117
 3338SOL    HW111846   5.784  10.338   6.038
 3338SOL    HW211847   5.883  10.349   6.152
 3339SOL     OW11848   0.963  10.838  10.082
 3339SOL    HW111849   1.035  10.839  10.145
 3339SOL    HW211850   0.995  10.784  10.010
 3340SOL     OW11851   7.548   8.965   0.424
 3340SOL    HW111852   7.476   8.974   0.361
 3340SOL    HW211853   7.551   8.871   0.443
 3341SOL     OW11854  12.050   1.291   3.590
 3341SOL    HW111855  12.012   1.209   3.621
 3341SOL    HW211856  12.056   1.281   3.495
 3342SOL     OW11857   2.038  14.735   1.548
 3342SOL    HW111858   1.959  14.687   1.576
 3342SOL    HW211859   2.051  14.708   1.458
 3343SOL     OW11860   7.661   1.941   9.903
 3343SOL    HW111861   7.623   2.011   9.851
 3343SOL    HW211862   7.611   1.863   9.880
 3344SOL     OW11863   8.065  10.042   3.848
 3344SOL    HW111864   8.160  10.048   3.847
 3344SOL    HW211865   8.047   9.958   3.889
 3345SOL     OW11866   9.923  11.278   4.755
 3345SOL    HW111867   9.847  11.336   4.747
 3345SOL    HW211868   9.946  11.281   4.847
 3346SOL     OW11869  11.940  11.266   9.465
 3346SOL    HW111870  11.858  11.314   9.474
 3346SOL    HW211871  12.005  11.332   9.441
 3347SOL     OW11872   0.694   7.423  10.489
 3347SOL    HW111873   0.658   7.342  10.526
 3347SOL    HW211874   0.786   7.402  10.471
 3348SOL     OW11875   9.398   4.435  11.881
 3348SOL    HW111876   9.492   4.418  11.869
 3348SOL    HW211877   9.396   4.512  11.939
 3349SOL     OW11878   0.446   2.531   9.725
 3349SOL    HW111879   0.534   2.494   9.730
 3349SOL    HW211880   0.428   2.537   9.631
 3350SOL     OW11881   1.794  12.357   3.619
 3350SOL    HW111882   1.869  12.316   3.575
 3350SOL    HW211883   1.796  12.320   3.707
 3351SOL     OW11884  14.197   0.011  14.375
 3351SOL    HW111885  14.154  14.812  14.347
 3351SOL    HW211886  14.204   0.063  14.295
 3352SOL     OW11887  12.175  13.472  11.431
 3352SOL    HW111888  12.211  13.386  11.449
 3352SOL    HW211889  12.206  13.528  11.502
 3353SOL     OW11890  13.557   3.355   9.393
 3353SOL    HW111891  13.606   3.387   9.317
 3353SOL    HW211892  13.488   3.420   9.406
 3354SOL     OW11893  12.650   0.654  11.907
 3354SOL    HW111894  12.628   0.730  11.961
 3354SOL    HW211895  12.568   0.605  11.900
 3355SOL     OW11896   9.388   6.664  11.635
 3355SOL    HW111897   9.429   6.686  11.551
 3355SOL    HW211898   9.355   6.574  11.623
 3356SOL     OW11899  11.330   7.951  12.230
 3356SOL    HW111900  11.247   7.905  12.243
 3356SOL    HW211901  11.356   7.928  12.140
 3357SOL     OW11902   5.914  14.604  10.062
 3357SOL    HW111903   5.882  14.639  10.145
 3357SOL    HW211904   5.862  14.525  10.048
 3358SOL     OW11905  14.483  13.631   9.322
 3358SOL    HW111906  14.565  13.588   9.301
 3358SOL    HW211907  14.507  13.700   9.384
 3359SOL     OW11908  10.589  11.752  10.129
 3359SOL    HW111909  10.504  11.777  10.093
 3359SOL    HW211910  10.588  11.656  10.128
 3360SOL     OW11911   3.970   6.215   0.316
 3360SOL    HW111912   4.057   6.213   0.276
 3360SOL    HW211913   3.913   6.254   0.250
 3361SOL     OW11914   9.727   9.410   4.789
 3361SOL    HW111915   9.758   9.495   4.756
 3361SOL    HW211916   9.679   9.432   4.869
 3362SOL     OW11917  11.778   5.085   3.916
 3362SOL    HW111918  11.804   5.068   4.006
 3362SOL    HW211919  11.687   5.117   3.923
 3363SOL     OW11920  12.516  12.120   8.881
 3363SOL    HW111921  12.542  12.209   8.904
 3363SOL    HW211922  12.498  12.123   8.787
 3364SOL     OW11923  11.331   2.860  13.907
 3364SOL    HW111924  11.346   2.921  13.979
 3364SOL    HW211925  11.378   2.781  13.932
 3365SOL     OW11926   4.413   3.359  13.188
 3365SOL    HW111927   4.379   3.409  13.262
 3365SOL    HW211928   4.464   3.422  13.137
 3366SOL     OW11929   7.073  10.512  11.315
 3366SOL    HW111930   7.008  10.445  11.334
 3366SOL    HW211931   7.108  10.537  11.400
 3367SOL     OW11932   3.426   4.837  10.697
 3367SOL    HW111933   3.480   4.758  10.696
 3367SOL    HW211934   3.483   4.905  10.662
 3368SOL     OW11935  14.379   2.726   9.146
 3368SOL    HW111936  14.436   2.715   9.222
 3368SOL    HW211937  14.316   2.655   9.154
 3369SOL     OW11938   9.813  14.788   3.774
 3369SOL    HW111939   9.891  14.821   3.730
 3369SOL    HW211940   9.805  14.697   3.743
 3370SOL     OW11941   2.059   0.728   3.791
 3370SOL    HW111942   1.974   0.708   3.831
 3370SOL    HW211943   2.119   0.732   3.865
 3371SOL     OW11944   4.504  14.803   1.944
 3371SOL    HW111945   4.528   0.002   1.990
 3371SOL    HW211946   4.509  14.827   1.851
 3372SOL     OW11947   1.912   0.667   7.127
 3372SOL    HW111948   1.906   0.760   7.147
 3372SOL    HW211949   2.005   0.646   7.135
 3373SOL     OW11950   7.249   1.085   0.003
 3373SOL    HW111951   7.343   1.076  14.868
 3373SOL    HW211952   7.242   1.091   0.098
 3374SOL     OW11953   2.166   7.348  11.483
 3374SOL    HW111954   2.080   7.374  11.451
 3374SOL    HW211955   2.220   7.339  11.404
 3375SOL     OW11956  13.998  12.981   5.865
 3375SOL    HW111957  13.992  12.962   5.959
 3375SOL    HW211958  14.026  13.073   5.862
 3376SOL     OW11959   8.753  13.676   9.216
 3376SOL    HW111960   8.722  13.706   9.302
 3376SOL    HW211961   8.798  13.752   9.179
 3377SOL     OW11962  13.969  14.482   1.739
 3377SOL    HW111963  13.994  14.396   1.705
 3377SOL    HW211964  13.914  14.463   1.815
 3378SOL     OW11965  13.026  10.041  12.816
 3378SOL    HW111966  13.105  10.084  12.782
 3378SOL    HW211967  12.956  10.103  12.797
 3379SOL     OW11968  11.022  11.517   1.034
 3379SOL    HW111969  10.932  11.550   1.039
 3379SOL    HW211970  11.026  11.472   0.949
 3380SOL     OW11971  11.860   2.619  10.333
 3380SOL    HW111972  11.791   2.684  10.324
 3380SOL    HW211973  11.940   2.663  10.302
 3381SOL     OW11974  10.402  10.304  11.779
 3381SOL    HW111975  10.436  10.257  11.856
 3381SOL    HW211976  10.448  10.388  11.781
 3382SOL     OW11977   3.607   8.555  14.551
 3382SOL    HW111978   3.578   8.634  14.505
 3382SOL    HW211979   3.622   8.491  14.481
 3383SOL     OW11980  12.128  11.441   7.301
 3383SOL    HW111981  12.135  11.533   7.328
 3383SOL    HW211982  12.060  11.441   7.234
 3384SOL     OW11983  11.097  14.306  11.831
 3384SOL    HW111984  11.062  14.354  11.907
 3384SOL    HW211985  11.019  14.279  11.782
 3385SOL     OW11986  13.816  12.654   5.586
 3385SOL    HW111987  13.889  12.708   5.615
 3385SOL    HW211988  13.777  12.702   5.513
 3386SOL     OW11989  13.903  10.821   6.221
 3386SOL    HW111990  13.906  10.727   6.236
 3386SOL    HW211991  13.994  10.850   6.231
 3387SOL     OW11992  12.478   3.893  14.475
 3387SOL    HW111993  12.570   3.874  14.458
 3387SOL    HW211994  12.468   3.986  14.453
 3388SOL     OW11995   5.943  10.696   7.093
 3388SOL    HW111996   5.872  10.647   7.134
 3388SOL    HW211997   6.023  10.653   7.124
 3389SOL     OW11998   9.263   4.563  12.954
 3389SOL    HW111999   9.333   4.530  13.010
 3389SOL    HW212000   9.188   4.508  12.974
 3390SOL     OW12001   6.860   3.402   7.592
 3390SOL    HW112002   6.950   3.428   7.575
 3390SOL    HW212003   6.810   3.445   7.523
 3391SOL     OW12004  14.087   9.231   4.580
 3391SOL    HW112005  14.114   9.291   4.650
 3391SOL    HW212006  14.146   9.252   4.507
 3392SOL     OW12007  11.302   0.211   5.869
 3392SOL    HW112008  11.383   0.201   5.920
 3392SOL    HW212009  11.331   0.209   5.778
 3393SOL     OW12010   1.417   4.867   8.430
 3393SOL    HW112011   1.433   4.846   8.522
 3393SOL    HW212012   1.354   4.938   8.431
 3394SOL     OW12013   2.624  11.020  11.778
 3394SOL    HW112014   2.650  11.109  11.753
 3394SOL    HW212015   2.673  10.963  11.718
 3395SOL     OW12016  14.200  13.351   6.742
 3395SOL    HW112017  14.233  13.372   6.655
 3395SOL    HW212018  14.245  13.413   6.800
 3396SOL     OW12019  12.971   3.364   2.125
 3396SOL    HW112020  13.025   3.305   2.178
 3396SOL    HW212021  12.958   3.316   2.043
 3397SOL     OW12022   5.892   5.936   0.902
 3397SOL    HW112023   5.928   5.847   0.895
 3397SOL    HW212024   5.842   5.935   0.984
 3398SOL     OW12025  13.439   2.260  13.281
 3398SOL    HW112026  13.375   2.191  13.298
 3398SOL    HW212027  13.496   2.258  13.359
 3399SOL     OW12028   9.226  10.208   9.391
 3399SOL    HW112029   9.302  10.161   9.357
 3399SOL    HW212030   9.162  10.205   9.320
 3400SOL     OW12031  12.423   9.087   1.026
 3400SOL    HW112032  12.477   9.165   1.012
 3400SOL    HW212033  12.421   9.043   0.941
 3401SOL     OW12034   2.546   0.479   2.489
 3401SOL    HW112035   2.625   0.428   2.503
 3401SOL    HW212036   2.564   0.564   2.530
 3402SOL     OW12037   0.107   9.644   4.320
 3402SOL    HW112038   0.023   9.654   4.275
 3402SOL    HW212039   0.158   9.588   4.261
 3403SOL     OW12040   4.130  11.965   8.864
 3403SOL    HW112041   4.072  11.891   8.850
 3403SOL    HW212042   4.130  11.978   8.959
 3404SOL     OW12043  11.847   5.051   6.559
 3404SOL    HW112044  11.926   5.029   6.609
 3404SOL    HW212045  11.819   4.967   6.522
 3405SOL     OW12046   4.207   0.839  12.431
 3405SOL    HW112047   4.220   0.801  12.518
 3405SOL    HW212048   4.123   0.884  12.436
 3406SOL     OW12049   5.695   2.488   3.994
 3406SOL    HW112050   5.694   2.514   3.903
 3406SOL    HW212051   5.741   2.404   3.994
 3407SOL     OW12052   8.257   9.866   7.815
 3407SOL    HW112053   8.233   9.810   7.889
 3407SOL    HW212054   8.344   9.901   7.838
 3408SOL     OW12055   0.062   1.763  10.907
 3408SOL    HW112056   0.135   1.825  10.912
 3408SOL    HW212057   0.064   1.718  10.992
 3409SOL     OW12058   7.530   2.190   8.267
 3409SOL    HW112059   7.487   2.188   8.353
 3409SOL    HW212060   7.504   2.274   8.230
 3410SOL     OW12061   6.978   1.340   3.815
 3410SOL    HW112062   6.951   1.416   3.763
 3410SOL    HW212063   7.058   1.310   3.774
 3411SOL     OW12064  14.507   7.585  13.458
 3411SOL    HW112065  14.500   7.640  13.380
 3411SOL    HW212066  14.426   7.603  13.507
 3412SOL     OW12067   8.964  11.081  12.132
 3412SOL    HW112068   8.907  11.109  12.061
 3412SOL    HW212069   8.917  11.106  12.212
 3413SOL     OW12070  11.520  11.133   6.741
 3413SOL    HW112071  11.445  11.187   6.716
 3413SOL    HW212072  11.491  11.089   6.821
 3414SOL     OW12073  14.727   1.090  13.221
 3414SOL    HW112074  14.685   1.004  13.211
 3414SOL    HW212075  14.672   1.136  13.284
 3415SOL     OW12076   1.803  13.520  11.169
 3415SOL    HW112077   1.744  13.470  11.112
 3415SOL    HW212078   1.865  13.562  11.109
 3416SOL     OW12079  12.249   4.396  14.200
 3416SOL    HW112080  12.191   4.471  14.215
 3416SOL    HW212081  12.194   4.331  14.155
 3417SOL     OW12082   9.570   2.522   9.494
 3417SOL    HW112083   9.505   2.470   9.541
 3417SOL    HW212084   9.654   2.498   9.533
 3418SOL     OW12085   9.682   4.710   0.932
 3418SOL    HW112086   9.597   4.745   0.906
 3418SOL    HW212087   9.744   4.781   0.914
 3419SOL     OW12088   4.873   8.208   6.781
 3419SOL    HW112089   4.866   8.202   6.876
 3419SOL    HW212090   4.949   8.265   6.766
 3420SOL     OW12091   3.974   8.977  12.488
 3420SOL    HW112092   3.961   8.885  12.510
 3420SOL    HW212093   3.979   9.022  12.572
 3421SOL     OW12094   7.278  14.164   4.584
 3421SOL    HW112095   7.271  14.248   4.537
 3421SOL    HW212096   7.213  14.108   4.541
 3422SOL     OW12097   6.699   4.099   3.458
 3422SOL    HW112098   6.738   4.016   3.488
 3422SOL    HW212099   6.648   4.074   3.381
 3423SOL     OW12100   9.486  13.124  12.628
 3423SOL    HW112101   9.544  13.089  12.696
 3423SOL    HW212102   9.521  13.211  12.609
 3424SOL     OW12103   7.155   2.267  13.638
 3424SOL    HW112104   7.244   2.285  13.608
 3424SOL    HW212105   7.164   2.248  13.731
 3425SOL     OW12106   4.624  14.144  12.426
 3425SOL    HW112107   4.619  14.227  12.379
 3425SOL    HW212108   4.555  14.090  12.387
 3426SOL     OW12109  13.670   8.031   2.131
 3426SOL    HW112110  13.701   8.090   2.062
 3426SOL    HW212111  13.744   8.026   2.192
 3427SOL     OW12112   7.788  13.154   5.662
 3427SOL    HW112113   7.766  13.067   5.630
 3427SOL    HW212114   7.842  13.139   5.739
 3428SOL     OW12115   9.348   5.392   3.214
 3428SOL    HW112116   9.345   5.462   3.149
 3428SOL    HW212117   9.369   5.437   3.296
 3429SOL     OW12118   5.591  11.647   3.525
 3429SOL    HW112119   5.553  11.658   3.613
 3429SOL    HW212120   5.639  11.728   3.509
 3430SOL     OW12121   4.482   2.292  12.575
 3430SOL    HW112122   4.565   2.262  12.611
 3430SOL    HW212123   4.420   2.284  12.647
 3431SOL     OW12124   4.999  14.621   9.909
 3431SOL    HW112125   4.959  14.695   9.955
 3431SOL    HW212126   5.069  14.592   9.968
 3432SOL     OW12127  10.901   7.608   7.922
 3432SOL    HW112128  10.874   7.635   8.010
 3432SOL    HW212129  10.996   7.619   7.922
 3433SOL     OW12130   7.527  13.273   2.510
 3433SOL    HW112131   7.473  13.233   2.578
 3433SOL    HW212132   7.485  13.358   2.494
 3434SOL     OW12133   1.189   6.291   0.771
 3434SOL    HW112134   1.267   6.310   0.824
 3434SOL    HW212135   1.164   6.376   0.735
 3435SOL     OW12136  13.678   8.570   8.280
 3435SOL    HW112137  13.726   8.489   8.259
 3435SOL    HW212138  13.735   8.616   8.342
 3436SOL     OW12139  11.958   0.213  14.087
 3436SOL    HW112140  12.008   0.290  14.117
 3436SOL    HW212141  12.025   0.148  14.068
 3437SOL     OW12142  13.846  14.120   3.911
 3437SOL    HW112143  13.775  14.066   3.877
 3437SOL    HW212144  13.881  14.071   3.985
 3438SOL     OW12145  12.254   5.983   6.428
 3438SOL    HW112146  12.287   5.938   6.351
 3438SOL    HW212147  12.209   5.915   6.479
 3439SOL     OW12148   0.333   9.459   7.016
 3439SOL    HW112149   0.239   9.447   7.004
 3439SOL    HW212150   0.368   9.370   7.026
 3440SOL     OW12151   2.017  14.680  11.538
 3440SOL    HW112152   1.930  14.715  11.517
 3440SOL    HW212153   2.009  14.652  11.629
 3441SOL     OW12154  12.877  11.358   3.552
 3441SOL    HW112155  12.837  11.422   3.612
 3441SOL    HW212156  12.803  11.318   3.507
 3442SOL     OW12157   2.108  10.508   4.158
 3442SOL    HW112158   2.072  10.431   4.115
 3442SOL    HW212159   2.119  10.572   4.088
 3443SOL     OW12160  13.996  11.900   4.934
 3443SOL    HW112161  13.963  11.886   4.845
 3443SOL    HW212162  14.075  11.954   4.922
 3444SOL     OW12163   8.001   8.565   0.132
 3444SOL    HW112164   7.963   8.634   0.077
 3444SOL    HW212165   8.080   8.605   0.168
 3445SOL     OW12166  12.287   2.807   7.267
 3445SOL    HW112167  12.368   2.812   7.216
 3445SOL    HW212168  12.217   2.808   7.201
 3446SOL     OW12169  11.782   5.918  13.415
 3446SOL    HW112170  11.750   5.830  13.397
 3446SOL    HW212171  11.753   5.970  13.340
 3447SOL     OW12172   2.907   5.264  13.082
 3447SOL    HW112173   2.851   5.300  13.014
 3447SOL    HW212174   2.977   5.329  13.094
 3448SOL     OW12175  10.795  11.546   9.912
 3448SOL    HW112176  10.730  11.541   9.842
 3448SOL    HW212177  10.860  11.608   9.880
 3449SOL     OW12178   8.808   5.317  10.644
 3449SOL    HW112179   8.778   5.265  10.718
 3449SOL    HW212180   8.843   5.397  10.684
 3450SOL     OW12181   2.772  14.273   3.169
 3450SOL    HW112182   2.698  14.243   3.221
 3450SOL    HW212183   2.846  14.274   3.231
 3451SOL     OW12184  12.839   8.628   3.329
 3451SOL    HW112185  12.769   8.643   3.267
 3451SOL    HW212186  12.910   8.591   3.277
 3452SOL     OW12187   8.463   1.148   2.569
 3452SOL    HW112188   8.418   1.143   2.485
 3452SOL    HW212189   8.500   1.061   2.582
 3453SOL     OW12190   4.431   5.447   2.035
 3453SOL    HW112191   4.470   5.361   2.053
 3453SOL    HW212192   4.337   5.432   2.039
 3454SOL     OW12193  11.050   3.812   1.756
 3454SOL    HW112194  10.977   3.809   1.695
 3454SOL    HW212195  11.012   3.787   1.841
 3455SOL     OW12196  11.623   7.636   0.877
 3455SOL    HW112197  11.718   7.642   0.887
 3455SOL    HW212198  11.610   7.577   0.802
 3456SOL     OW12199   5.846  13.542  11.634
 3456SOL    HW112200   5.766  13.594  11.630
 3456SOL    HW212201   5.889  13.570  11.715
 3457SOL     OW12202   1.894   4.482  14.361
 3457SOL    HW112203   1.919   4.425  14.433
 3457SOL    HW212204   1.828   4.432  14.313
 3458SOL     OW12205   9.813   4.780   6.483
 3458SOL    HW112206   9.871   4.770   6.408
 3458SOL    HW212207   9.726   4.791   6.445
 3459SOL     OW12208  14.782   6.307   0.761
 3459SOL    HW112209  14.765   6.295   0.667
 3459SOL    HW212210  14.790   6.402   0.771
 3460SOL     OW12211   8.378   4.082   6.313
 3460SOL    HW112212   8.320   4.150   6.278
 3460SOL    HW212213   8.445   4.070   6.246
 3461SOL     OW12214   7.961   3.682   3.293
 3461SOL    HW112215   7.915   3.758   3.330
 3461SOL    HW212216   8.050   3.713   3.278
 3462SOL     OW12217   1.323   5.944   4.339
 3462SOL    HW112218   1.307   5.854   4.368
 3462SOL    HW212219   1.418   5.948   4.323
 3463SOL     OW12220  11.632  13.534   3.751
 3463SOL    HW112221  11.627  13.620   3.792
 3463SOL    HW212222  11.651  13.474   3.824
 3464SOL     OW12223   2.500   0.497   1.509
 3464SOL    HW112224   2.569   0.509   1.444
 3464SOL    HW212225   2.497   0.581   1.557
 3465SOL     OW12226   8.125   5.602   4.661
 3465SOL    HW112227   8.031   5.622   4.659
 3465SOL    HW212228   8.167   5.688   4.653
 3466SOL     OW12229  14.076   9.117  12.098
 3466SOL    HW112230  14.020   9.076  12.032
 3466SOL    HW212231  14.164   9.085  12.076
 3467SOL     OW12232   2.678   9.862  14.129
 3467SOL    HW112233   2.723   9.913  14.061
 3467SOL    HW212234   2.588   9.854  14.098
 3468SOL     OW12235   5.914  12.284  14.074
 3468SOL    HW112236   5.849  12.330  14.127
 3468SOL    HW212237   5.889  12.191  14.081
 3469SOL     OW12238   2.472  13.098   5.593
 3469SOL    HW112239   2.487  13.158   5.666
 3469SOL    HW212240   2.555  13.096   5.546
 3470SOL     OW12241   0.952  11.390   1.741
 3470SOL    HW112242   0.959  11.446   1.818
 3470SOL    HW212243   0.915  11.447   1.673
 3471SOL     OW12244  14.714   1.410   2.359
 3471SOL    HW112245  14.800   1.424   2.321
 3471SOL    HW212246  14.721   1.324   2.401
 3472SOL     OW12247   9.113  13.359   6.774
 3472SOL    HW112248   9.154  13.406   6.701
 3472SOL    HW212249   9.183  13.307   6.813
 3473SOL     OW12250   4.212   8.254   6.334
 3473SOL    HW112251   4.244   8.326   6.388
 3473SOL    HW212252   4.211   8.289   6.245
 3474SOL     OW12253  13.346   6.649  11.270
 3474SOL    HW112254  13.378   6.638  11.180
 3474SOL    HW212255  13.390   6.728  11.302
 3475SOL     OW12256   6.561   9.262  14.007
 3475SOL    HW112257   6.647   9.221  14.013
 3475SOL    HW212258   6.562   9.308  13.923
 3476SOL     OW12259   6.899  12.090   7.056
 3476SOL    HW112260   6.838  12.131   7.117
 3476SOL    HW212261   6.953  12.033   7.110
 3477SOL     OW12262  10.268  14.615   1.325
 3477SOL    HW112263  10.303  14.526   1.325
 3477SOL    HW212264  10.226  14.624   1.410
 3478SOL     OW12265   1.313   3.874  13.092
 3478SOL    HW112266   1.302   3.837  13.180
 3478SOL    HW212267   1.397   3.839  13.062
 3479SOL     OW12268   8.436   7.621  12.144
 3479SOL    HW112269   8.394   7.703  12.119
 3479SOL    HW212270   8.490   7.644  12.220
 3480SOL     OW12271  10.466  10.059  14.672
 3480SOL    HW112272  10.500   9.971  14.689
 3480SOL    HW212273  10.522  10.093  14.602
 3481SOL     OW12274   6.160   1.968   7.480
 3481SOL    HW112275   6.146   1.929   7.394
 3481SOL    HW212276   6.226   1.913   7.521
 3482SOL     OW12277  11.073   9.733   5.978
 3482SOL    HW112278  11.119   9.816   5.990
 3482SOL    HW212279  11.134   9.667   6.011
 3483SOL     OW12280   9.504  10.990   2.855
 3483SOL    HW112281   9.413  11.009   2.832
 3483SOL    HW212282   9.498  10.946   2.940
 3484SOL     OW12283  11.348   1.051   5.717
 3484SOL    HW112284  11.420   1.056   5.654
 3484SOL    HW212285  11.280   1.107   5.680
 3485SOL     OW12286   2.222   2.402  12.666
 3485SOL    HW112287   2.130   2.402  12.693
 3485SOL    HW212288   2.246   2.309  12.664
 3486SOL     OW12289  11.738   9.931   1.970
 3486SOL    HW112290  11.821   9.978   1.972
 3486SOL    HW212291  11.677   9.989   2.016
 3487SOL     OW12292  13.066   7.866   6.328
 3487SOL    HW112293  13.158   7.848   6.348
 3487SOL    HW212294  13.025   7.879   6.414
 3488SOL     OW12295   8.025  13.536   1.456
 3488SOL    HW112296   7.997  13.625   1.476
 3488SOL    HW212297   8.102  13.546   1.401
 3489SOL     OW12298   3.065   0.852   0.645
 3489SOL    HW112299   3.001   0.780   0.649
 3489SOL    HW212300   3.013   0.930   0.664
 3490SOL     OW12301  12.756  10.882   5.895
 3490SOL    HW112302  12.751  10.977   5.909
 3490SOL    HW212303  12.692  10.846   5.957
 3491SOL     OW12304   9.975   7.005   7.298
 3491SOL    HW112305   9.947   7.071   7.235
 3491SOL    HW212306   9.894   6.980   7.343
 3492SOL     OW12307   3.884   0.731   7.337
 3492SOL    HW112308   3.943   0.796   7.377
 3492SOL    HW212309   3.813   0.722   7.400
 3493SOL     OW12310   8.644   0.743   6.671
 3493SOL    HW112311   8.579   0.675   6.689
 3493SOL    HW212312   8.691   0.711   6.593
 3494SOL     OW12313   4.338  13.082  13.200
 3494SOL    HW112314   4.253  13.050  13.171
 3494SOL    HW212315   4.324  13.109  13.291
 3495SOL     OW12316   4.992   8.532   3.776
 3495SOL    HW112317   5.088   8.529   3.772
 3495SOL    HW212318   4.963   8.484   3.699
 3496SOL     OW12319   0.976  12.186  12.318
 3496SOL    HW112320   0.936  12.182  12.231
 3496SOL    HW212321   0.907  12.224  12.373
 3497SOL     OW12322   1.772  14.180   7.119
 3497SOL    HW112323   1.737  14.138   7.041
 3497SOL    HW212324   1.722  14.261   7.127
 3498SOL     OW12325  11.914   9.767   4.645
 3498SOL    HW112326  11.958   9.683   4.648
 3498SOL    HW212327  11.959   9.821   4.710
 3499SOL     OW12328   9.741   1.223  13.252
 3499SOL    HW112329   9.830   1.189  13.260
 3499SOL    HW212330   9.752   1.309  13.211
 3500SOL     OW12331   7.648   7.655  13.076
 3500SOL    HW112332   7.592   7.585  13.108
 3500SOL    HW212333   7.591   7.710  13.022
 3501SOL     OW12334   6.713  11.471   0.806
 3501SOL    HW112335   6.749  11.417   0.736
 3501SOL    HW212336   6.707  11.559   0.767
 3502SOL     OW12337  12.446   4.946   5.571
 3502SOL    HW112338  12.413   4.866   5.531
 3502SOL    HW212339  12.541   4.935   5.573
 3503SOL     OW12340  10.146   6.454  14.301
 3503SOL    HW112341  10.087   6.416  14.236
 3503SOL    HW212342  10.162   6.543  14.269
 3504SOL     OW12343   6.908   0.796   1.719
 3504SOL    HW112344   6.889   0.861   1.787
 3504SOL    HW212345   6.869   0.715   1.753
 3505SOL     OW12346   8.681   2.121   7.206
 3505SOL    HW112347   8.723   2.161   7.283
 3505SOL    HW212348   8.748   2.124   7.138
 3506SOL     OW12349   9.388  14.141   1.870
 3506SOL    HW112350   9.413  14.058   1.910
 3506SOL    HW212351   9.294  14.148   1.886
 3507SOL     OW12352   5.800   2.779  12.849
 3507SOL    HW112353   5.802   2.705  12.789
 3507SOL    HW212354   5.785   2.739  12.935
 3508SOL     OW12355   7.669  13.333   5.434
 3508SOL    HW112356   7.617  13.282   5.373
 3508SOL    HW212357   7.699  13.269   5.499
 3509SOL     OW12358   3.545   4.601  11.531
 3509SOL    HW112359   3.521   4.604  11.438
 3509SOL    HW212360   3.480   4.543  11.570
 3510SOL     OW12361   1.056  13.954  11.306
 3510SOL    HW112362   1.010  13.881  11.348
 3510SOL    HW212363   1.036  13.944  11.213
 3511SOL     OW12364  10.130  13.286   2.420
 3511SOL    HW112365  10.061  13.307   2.358
 3511SOL    HW212366  10.095  13.314   2.505
 3512SOL     OW12367  10.326   4.894   3.404
 3512SOL    HW112368  10.249   4.851   3.441
 3512SOL    HW212369  10.399   4.863   3.458
 3513SOL     OW12370   1.761  14.831   1.992
 3513SOL    HW112371   1.774   0.030   2.042
 3513SOL    HW212372   1.802  14.763   2.046
 3514SOL     OW12373   1.887   6.581   4.035
 3514SOL    HW112374   1.836   6.501   4.043
 3514SOL    HW212375   1.825   6.645   3.999
 3515SOL     OW12376   9.072   4.689  10.186
 3515SOL    HW112377   9.088   4.689  10.091
 3515SOL    HW212378   9.027   4.606  10.202
 3516SOL     OW12379   6.621   0.075  13.828
 3516SOL    HW112380   6.616   0.019  13.751
 3516SOL    HW212381   6.685   0.033  13.884
 3517SOL     OW12382  13.014   6.693   7.185
 3517SOL    HW112383  12.970   6.778   7.191
 3517SOL    HW212384  13.107   6.714   7.194
 3518SOL     OW12385  12.534   3.547   4.710
 3518SOL    HW112386  12.594   3.586   4.773
 3518SOL    HW212387  12.495   3.621   4.664
 3519SOL     OW12388  14.569   5.897   1.565
 3519SOL    HW112389  14.571   5.859   1.477
 3519SOL    HW212390  14.478   5.892   1.591
 3520SOL     OW12391   7.757   1.097  11.400
 3520SOL    HW112392   7.732   1.017  11.355
 3520SOL    HW212393   7.796   1.152  11.331
 3521SOL     OW12394  10.130   4.428  13.715
 3521SOL    HW112395  10.199   4.414  13.651
 3521SOL    HW212396  10.134   4.522  13.735
 3522SOL     OW12397   0.521   2.188   3.634
 3522SOL    HW112398   0.572   2.264   3.606
 3522SOL    HW212399   0.430   2.214   3.621
 3523SOL     OW12400   6.309  13.333   6.795
 3523SOL    HW112401   6.215  13.341   6.814
 3523SOL    HW212402   6.312  13.281   6.715
 3524SOL     OW12403   3.876   6.473   7.417
 3524SOL    HW112404   3.868   6.476   7.512
 3524SOL    HW212405   3.966   6.443   7.401
 3525SOL     OW12406   5.720  10.932  11.743
 3525SOL    HW112407   5.631  10.950  11.771
 3525SOL    HW212408   5.771  11.006  11.777
 3526SOL     OW12409  13.965  13.892  14.567
 3526SOL    HW112410  14.043  13.892  14.511
 3526SOL    HW212411  13.963  13.804  14.604
 3527SOL     OW12412   0.139   6.823   8.901
 3527SOL    HW112413   0.147   6.798   8.809
 3527SOL    HW212414   0.135   6.919   8.900
 3528SOL     OW12415   2.240   9.809   0.785
 3528SOL    HW112416   2.172   9.830   0.721
 3528SOL    HW212417   2.302   9.882   0.780
 3529SOL     OW12418  12.050  13.550   4.686
 3529SOL    HW112419  12.001  13.545   4.604
 3529SOL    HW212420  12.123  13.489   4.674
 3530SOL     OW12421  10.801   9.358   5.210
 3530SOL    HW112422  10.821   9.426   5.275
 3530SOL    HW212423  10.735   9.398   5.154
 3531SOL     OW12424   6.734   6.348   2.660
 3531SOL    HW112425   6.798   6.353   2.588
 3531SOL    HW212426   6.712   6.439   2.679
 3532SOL     OW12427   2.934   9.032  14.784
 3532SOL    HW112428   2.893   9.071  14.707
 3532SOL    HW212429   2.986   9.103  14.823
 3533SOL     OW12430   6.393   7.766  12.347
 3533SOL    HW112431   6.371   7.841  12.402
 3533SOL    HW212432   6.487   7.753  12.360
 3534SOL     OW12433   2.134   3.979   0.082
 3534SOL    HW112434   2.134   3.893   0.123
 3534SOL    HW212435   2.079   3.969   0.004
 3535SOL     OW12436  10.087  13.644  12.255
 3535SOL    HW112437  10.092  13.670  12.163
 3535SOL    HW212438  10.096  13.726  12.304
 3536SOL     OW12439   5.792  12.778   3.742
 3536SOL    HW112440   5.870  12.727   3.764
 3536SOL    HW212441   5.778  12.761   3.648
 3537SOL     OW12442   1.317  13.865   3.118
 3537SOL    HW112443   1.333  13.959   3.124
 3537SOL    HW212444   1.399  13.824   3.146
 3538SOL     OW12445   5.620   0.760  14.263
 3538SOL    HW112446   5.698   0.760  14.208
 3538SOL    HW212447   5.581   0.673  14.249
 3539SOL     OW12448   2.381  13.741   4.678
 3539SOL    HW112449   2.350  13.737   4.768
 3539SOL    HW212450   2.326  13.807   4.635
 3540SOL     OW12451   5.018  14.481   5.639
 3540SOL    HW112452   5.044  14.551   5.580
 3540SOL    HW212453   4.928  14.460   5.613
 3541SOL     OW12454   2.272  10.505   9.398
 3541SOL    HW112455   2.193  10.468   9.436
 3541SOL    HW212456   2.246  10.594   9.372
 3542SOL     OW12457   7.328   6.095   5.736
 3542SOL    HW112458   7.239   6.073   5.709
 3542SOL    HW212459   7.317   6.162   5.803
 3543SOL     OW12460  10.744   8.915   4.553
 3543SOL    HW112461  10.694   8.937   4.475
 3543SOL    HW212462  10.756   8.820   4.549
 3544SOL     OW12463   2.666   2.532   8.791
 3544SOL    HW112464   2.690   2.450   8.834
 3544SOL    HW212465   2.652   2.593   8.864
 3545SOL     OW12466   6.319   2.303   6.555
 3545SOL    HW112467   6.303   2.255   6.474
 3545SOL    HW212468   6.298   2.240   6.624
 3546SOL     OW12469   7.635   0.874   3.795
 3546SOL    HW112470   7.633   0.832   3.881
 3546SOL    HW212471   7.560   0.932   3.795
 3547SOL     OW12472   9.560   4.279   5.534
 3547SOL    HW112473   9.560   4.362   5.486
 3547SOL    HW212474   9.544   4.304   5.625
 3548SOL     OW12475   5.834  14.043   4.164
 3548SOL    HW112476   5.897  14.113   4.176
 3548SOL    HW212477   5.749  14.086   4.175
 3549SOL     OW12478  13.248   7.589   6.258
 3549SOL    HW112479  13.282   7.614   6.173
 3549SOL    HW212480  13.212   7.502   6.246
 3550SOL     OW12481   2.672  11.603   0.680
 3550SOL    HW112482   2.648  11.692   0.705
 3550SOL    HW212483   2.764  11.596   0.705
 3551SOL     OW12484  10.254   3.704   1.363
 3551SOL    HW112485  10.332   3.759   1.365
 3551SOL    HW212486  10.196   3.742   1.429
 3552SOL     OW12487   6.974   8.822   3.885
 3552SOL    HW112488   6.903   8.858   3.938
 3552SOL    HW212489   7.047   8.812   3.945
 3553SOL     OW12490  12.777  13.874   6.514
 3553SOL    HW112491  12.710  13.943   6.514
 3553SOL    HW212492  12.820  13.883   6.428
 3554SOL     OW12493   0.571   3.524  13.869
 3554SOL    HW112494   0.595   3.511  13.778
 3554SOL    HW212495   0.611   3.608  13.893
 3555SOL     OW12496   3.714   2.349   3.855
 3555SOL    HW112497   3.709   2.316   3.945
 3555SOL    HW212498   3.762   2.282   3.808
 3556SOL     OW12499   8.528  11.034  14.022
 3556SOL    HW112500   8.449  11.061  13.974
 3556SOL    HW212501   8.589  11.107  14.010
 3557SOL     OW12502   6.019   5.259  10.599
 3557SOL    HW112503   6.040   5.324  10.666
 3557SOL    HW212504   6.049   5.299  10.517
 3558SOL     OW12505   2.010  10.653   0.748
 3558SOL    HW112506   2.012  10.559   0.727
 3558SOL    HW212507   2.092  10.668   0.795
 3559SOL     OW12508   9.609   0.598   5.851
 3559SOL    HW112509   9.576   0.511   5.831
 3559SOL    HW212510   9.660   0.587   5.931
 3560SOL     OW12511   4.975   3.919   4.346
 3560SOL    HW112512   5.041   3.851   4.332
 3560SOL    HW212513   5.005   3.965   4.425
 3561SOL     OW12514   2.631  10.857   1.463
 3561SOL    HW112515   2.597  10.896   1.383
 3561SOL    HW212516   2.609  10.764   1.456
 3562SOL     OW12517   5.719   2.417   8.701
 3562SOL    HW112518   5.770   2.493   8.675
 3562SOL    HW212519   5.725   2.357   8.627
 3563SOL     OW12520  11.929   8.857   1.203
 3563SOL    HW112521  11.865   8.844   1.133
 3563SOL    HW212522  11.982   8.931   1.174
 3564SOL     OW12523  11.852  11.164   5.710
 3564SOL    HW112524  11.865  11.216   5.631
 3564SOL    HW212525  11.827  11.227   5.778
 3565SOL     OW12526   4.013  11.438  11.223
 3565SOL    HW112527   3.961  11.519  11.217
 3565SOL    HW212528   4.070  11.441  11.147
 3566SOL     OW12529  14.400   4.085   9.317
 3566SOL    HW112530  14.371   4.081   9.408
 3566SOL    HW212531  14.494   4.099   9.322
 3567SOL     OW12532   1.938  14.483   9.995
 3567SOL    HW112533   1.938  14.485  10.090
 3567SOL    HW212534   2.017  14.436   9.971
 3568SOL     OW12535   6.731   3.231   3.917
 3568SOL    HW112536   6.715   3.285   3.994
 3568SOL    HW212537   6.663   3.256   3.855
 3569SOL     OW12538   7.966   3.224   9.071
 3569SOL    HW112539   7.981   3.142   9.117
 3569SOL    HW212540   8.036   3.228   9.006
 3570SOL     OW12541  11.189   7.513   3.192
 3570SOL    HW112542  11.154   7.441   3.141
 3570SOL    HW212543  11.234   7.568   3.128
 3571SOL     OW12544   6.807   8.717  13.265
 3571SOL    HW112545   6.830   8.672  13.346
 3571SOL    HW212546   6.778   8.804  13.292
 3572SOL     OW12547   3.460  11.232   0.306
 3572SOL    HW112548   3.483  11.165   0.369
 3572SOL    HW212549   3.410  11.186   0.239
 3573SOL     OW12550  11.804   0.604   2.564
 3573SOL    HW112551  11.849   0.667   2.620
 3573SOL    HW212552  11.831   0.626   2.475
 3574SOL     OW12553   7.212   6.332  11.042
 3574SOL    HW112554   7.119   6.345  11.061
 3574SOL    HW212555   7.221   6.239  11.024
 3575SOL     OW12556   7.674   9.362   0.212
 3575SOL    HW112557   7.598   9.343   0.157
 3575SOL    HW212558   7.746   9.376   0.149
 3576SOL     OW12559   6.607   2.167   4.583
 3576SOL    HW112560   6.545   2.161   4.511
 3576SOL    HW212561   6.583   2.247   4.630
 3577SOL     OW12562   6.074   6.540   0.812
 3577SOL    HW112563   5.981   6.528   0.793
 3577SOL    HW212564   6.094   6.628   0.780
 3578SOL     OW12565   0.948   2.692   2.108
 3578SOL    HW112566   0.921   2.610   2.150
 3578SOL    HW212567   0.901   2.760   2.157
 3579SOL     OW12568  10.514   0.800   3.372
 3579SOL    HW112569  10.531   0.870   3.309
 3579SOL    HW212570  10.439   0.753   3.336
 3580SOL     OW12571   3.035   3.366   6.806
 3580SOL    HW112572   2.959   3.331   6.853
 3580SOL    HW212573   3.108   3.310   6.833
 3581SOL     OW12574   5.737   9.808   3.048
 3581SOL    HW112575   5.653   9.770   3.023
 3581SOL    HW212576   5.724   9.903   3.042
 3582SOL     OW12577  14.740   0.818   3.013
 3582SOL    HW112578  14.784   0.839   2.931
 3582SOL    HW212579  14.648   0.806   2.989
 3583SOL     OW12580   0.372  13.449  13.569
 3583SOL    HW112581   0.350  13.498  13.489
 3583SOL    HW212582   0.464  13.425  13.558
 3584SOL     OW12583   7.116  13.785  11.764
 3584SOL    HW112584   7.024  13.762  11.757
 3584SOL    HW212585   7.146  13.741  11.844
 3585SOL     OW12586  12.470  12.131   0.079
 3585SOL    HW112587  12.432  12.099  14.879
 3585SOL    HW212588  12.398  12.175   0.124
 3586SOL     OW12589   7.187   8.040  11.210
 3586SOL    HW112590   7.242   7.961  11.210
 3586SOL    HW212591   7.250   8.112  11.207
 3587SOL     OW12592   0.001  12.132  14.784
 3587SOL    HW112593   0.025  12.081  14.707
 3587SOL    HW212594   0.045  12.216  14.773
 3588SOL     OW12595   7.638  11.433   7.785
 3588SOL    HW112596   7.613  11.453   7.694
 3588SOL    HW212597   7.636  11.337   7.789
 3589SOL     OW12598   3.122   3.245   8.042
 3589SOL    HW112599   3.051   3.289   7.994
 3589SOL    HW212600   3.088   3.237   8.131
 3590SOL     OW12601   7.972  13.428  14.737
 3590SOL    HW112602   7.927  13.497  14.787
 3590SOL    HW212603   8.063  13.434  14.765
 3591SOL     OW12604   0.848   2.634  10.284
 3591SOL    HW112605   0.874   2.698  10.350
 3591SOL    HW212606   0.904   2.653  10.209
 3592SOL     OW12607   5.684   9.354   8.168
 3592SOL    HW112608   5.635   9.338   8.088
 3592SOL    HW212609   5.617   9.368   8.235
 3593SOL     OW12610  13.113   4.315  11.758
 3593SOL    HW112611  13.062   4.356  11.688
 3593SOL    HW212612  13.081   4.356  11.838
 3594SOL     OW12613   6.044  14.243   8.126
 3594SOL    HW112614   6.111  14.174   8.125
 3594SOL    HW212615   5.961  14.196   8.123
 3595SOL     OW12616   2.130   9.085  12.715
 3595SOL    HW112617   2.086   9.062  12.796
 3595SOL    HW212618   2.114   9.179  12.706
 3596SOL     OW12619  13.445   8.806  12.115
 3596SOL    HW112620  13.384   8.836  12.048
 3596SOL    HW212621  13.482   8.725  12.079
 3597SOL     OW12622   7.340  11.082  13.995
 3597SOL    HW112623   7.388  11.089  13.913
 3597SOL    HW212624   7.407  11.058  14.060
 3598SOL     OW12625   0.083  11.308   5.045
 3598SOL    HW112626   0.177  11.301   5.060
 3598SOL    HW212627   0.051  11.364   5.117
 3599SOL     OW12628   3.320  10.237  13.839
 3599SOL    HW112629   3.314  10.160  13.783
 3599SOL    HW212630   3.407  10.232  13.878
 3600SOL     OW12631   0.567   1.231   9.978
 3600SOL    HW112632   0.512   1.181   9.918
 3600SOL    HW212633   0.643   1.256   9.925
 3601SOL     OW12634   9.499  14.409  13.738
 3601SOL    HW112635   9.489  14.500  13.709
 3601SOL    HW212636   9.500  14.358  13.657
 3602SOL     OW12637   8.241   5.819   3.643
 3602SOL    HW112638   8.196   5.892   3.686
 3602SOL    HW212639   8.213   5.826   3.551
 3603SOL     OW12640   6.607  10.281   3.823
 3603SOL    HW112641   6.660  10.202   3.837
 3603SOL    HW212642   6.545  10.280   3.896
 3604SOL     OW12643   1.898   7.922   5.937
 3604SOL    HW112644   1.950   7.850   5.902
 3604SOL    HW212645   1.903   7.990   5.870
 3605SOL     OW12646   2.509  14.715  10.550
 3605SOL    HW112647   2.567  14.773  10.598
 3605SOL    HW212648   2.522  14.737  10.458
 3606SOL     OW12649  14.444  12.614   7.886
 3606SOL    HW112650  14.502  12.612   7.962
 3606SOL    HW212651  14.503  12.623   7.811
 3607SOL     OW12652   5.286   0.633   9.768
 3607SOL    HW112653   5.287   0.656   9.861
 3607SOL    HW212654   5.334   0.550   9.764
 3608SOL     OW12655   0.200   8.820  14.395
 3608SOL    HW112656   0.197   8.771  14.478
 3608SOL    HW212657   0.184   8.911  14.420
 3609SOL     OW12658  13.049  14.759   7.596
 3609SOL    HW112659  13.079  14.672   7.623
 3609SOL    HW212660  12.962  14.744   7.558
 3610SOL     OW12661   0.360  14.581  11.786
 3610SOL    HW112662   0.317  14.593  11.701
 3610SOL    HW212663   0.289  14.555  11.845
 3611SOL     OW12664   4.564  13.893   6.528
 3611SOL    HW112665   4.475  13.885   6.493
 3611SOL    HW212666   4.616  13.923   6.454
 3612SOL     OW12667  14.165   7.270   9.173
 3612SOL    HW112668  14.171   7.229   9.259
 3612SOL    HW212669  14.097   7.336   9.183
 3613SOL     OW12670   8.574   3.023   9.559
 3613SOL    HW112671   8.647   3.027   9.497
 3613SOL    HW212672   8.598   3.085   9.627
 3614SOL     OW12673   2.781   3.414   2.926
 3614SOL    HW112674   2.863   3.463   2.921
 3614SOL    HW212675   2.807   3.330   2.965
 3615SOL     OW12676   0.881   9.393   5.850
 3615SOL    HW112677   0.926   9.394   5.766
 3615SOL    HW212678   0.840   9.479   5.857
 3616SOL     OW12679   6.946  14.826  11.545
 3616SOL    HW112680   6.966  14.737  11.517
 3616SOL    HW212681   6.944  14.877  11.464
 3617SOL     OW12682  10.620   4.234   2.937
 3617SOL    HW112683  10.587   4.187   2.860
 3617SOL    HW212684  10.548   4.290   2.964
 3618SOL     OW12685   6.375   2.018   8.010
 3618SOL    HW112686   6.293   2.061   7.986
 3618SOL    HW212687   6.360   1.925   7.992
 3619SOL     OW12688  12.516  10.253   4.362
 3619SOL    HW112689  12.569  10.319   4.407
 3619SOL    HW212690  12.527  10.271   4.269
 3620SOL     OW12691   0.638  12.364   0.470
 3620SOL    HW112692   0.647  12.300   0.541
 3620SOL    HW212693   0.641  12.449   0.514
 3621SOL     OW12694   6.728   5.142   1.852
 3621SOL    HW112695   6.786   5.128   1.778
 3621SOL    HW212696   6.763   5.220   1.896
 3622SOL     OW12697   3.971  13.847   1.102
 3622SOL    HW112698   4.056  13.854   1.059
 3622SOL    HW212699   3.938  13.761   1.077
 3623SOL     OW12700  12.785   8.684  12.245
 3623SOL    HW112701  12.870   8.644  12.227
 3623SOL    HW212702  12.745   8.694  12.159
 3624SOL     OW12703   3.399   5.308   2.275
 3624SOL    HW112704   3.483   5.274   2.306
 3624SOL    HW212705   3.357   5.343   2.353
 3625SOL     OW12706   7.313  11.832   2.994
 3625SOL    HW112707   7.222  11.804   2.996
 3625SOL    HW212708   7.348  11.799   2.912
 3626SOL     OW12709  10.625   4.916  11.917
 3626SOL    HW112710  10.686   4.863  11.968
 3626SOL    HW212711  10.663   4.918  11.829
 3627SOL     OW12712   1.393   1.971  13.512
 3627SOL    HW112713   1.447   1.971  13.591
 3627SOL    HW212714   1.313   2.017  13.537
 3628SOL     OW12715  10.840   8.813   1.797
 3628SOL    HW112716  10.904   8.755   1.754
 3628SOL    HW212717  10.865   8.812   1.889
 3629SOL     OW12718  14.847   8.898   9.056
 3629SOL    HW112719  14.816   8.978   9.015
 3629SOL    HW212720  14.855   8.835   8.984
 3630SOL     OW12721  12.183   3.374  14.462
 3630SOL    HW112722  12.155   3.371  14.370
 3630SOL    HW212723  12.224   3.460  14.471
 3631SOL     OW12724   9.990  11.878  10.997
 3631SOL    HW112725  10.002  11.786  10.977
 3631SOL    HW212726  10.010  11.924  10.915
 3632SOL     OW12727   1.587   5.294   7.214
 3632SOL    HW112728   1.630   5.323   7.295
 3632SOL    HW212729   1.642   5.327   7.144
 3633SOL     OW12730   7.834  11.411   1.114
 3633SOL    HW112731   7.923  11.441   1.096
 3633SOL    HW212732   7.822  11.426   1.207
 3634SOL     OW12733  11.128   3.579  10.036
 3634SOL    HW112734  11.161   3.668  10.041
 3634SOL    HW212735  11.200   3.524  10.068
 3635SOL     OW12736   0.397   6.995  11.083
 3635SOL    HW112737   0.328   6.977  11.147
 3635SOL    HW212738   0.455   6.919  11.087
 3636SOL     OW12739  14.246  14.197   9.377
 3636SOL    HW112740  14.168  14.214   9.324
 3636SOL    HW212741  14.320  14.221   9.320
 3637SOL     OW12742   3.745   2.351   2.149
 3637SOL    HW112743   3.739   2.287   2.078
 3637SOL    HW212744   3.802   2.420   2.114
 3638SOL     OW12745   1.443   9.441   5.715
 3638SOL    HW112746   1.410   9.483   5.635
 3638SOL    HW212747   1.409   9.495   5.786
 3639SOL     OW12748  14.384  11.629  13.597
 3639SOL    HW112749  14.357  11.684  13.523
 3639SOL    HW212750  14.443  11.564  13.559
 3640SOL     OW12751  12.498  10.079  12.068
 3640SOL    HW112752  12.446  10.003  12.044
 3640SOL    HW212753  12.523  10.063  12.159
 3641SOL     OW12754   6.707  11.770   0.230
 3641SOL    HW112755   6.732  11.686   0.267
 3641SOL    HW212756   6.672  11.749   0.143
 3642SOL     OW12757   4.993   9.007  14.356
 3642SOL    HW112758   5.050   9.037  14.426
 3642SOL    HW212759   4.935   8.943  14.398
 3643SOL     OW12760  10.598  10.780  10.977
 3643SOL    HW112761  10.547  10.801  10.899
 3643SOL    HW212762  10.558  10.700  11.012
 3644SOL     OW12763   6.492   3.746   1.778
 3644SOL    HW112764   6.547   3.720   1.705
 3644SOL    HW212765   6.428   3.675   1.787
 3645SOL     OW12766   9.646   3.081   9.368
 3645SOL    HW112767   9.722   3.130   9.399
 3645SOL    HW212768   9.675   2.990   9.366
 3646SOL     OW12769   0.708  13.533  10.002
 3646SOL    HW112770   0.745  13.535   9.914
 3646SOL    HW212771   0.757  13.600  10.051
 3647SOL     OW12772   7.079   8.948   8.962
 3647SOL    HW112773   7.022   8.927   8.888
 3647SOL    HW212774   7.018   8.961   9.035
 3648SOL     OW12775  10.547   4.705   7.950
 3648SOL    HW112776  10.634   4.724   7.915
 3648SOL    HW212777  10.563   4.659   8.032
 3649SOL     OW12778   8.231  10.904   1.810
 3649SOL    HW112779   8.326  10.893   1.814
 3649SOL    HW212780   8.219  10.992   1.777
 3650SOL     OW12781   0.722   3.554   8.933
 3650SOL    HW112782   0.769   3.636   8.948
 3650SOL    HW212783   0.754   3.522   8.849
 3651SOL     OW12784   7.292  14.292   9.441
 3651SOL    HW112785   7.366  14.352   9.455
 3651SOL    HW212786   7.294  14.274   9.348
 3652SOL     OW12787   1.789   4.707   8.713
 3652SOL    HW112788   1.791   4.757   8.631
 3652SOL    HW212789   1.697   4.711   8.741
 3653SOL     OW12790  13.145   2.538   4.912
 3653SOL    HW112791  13.155   2.512   4.820
 3653SOL    HW212792  13.231   2.574   4.936
 3654SOL     OW12793  13.355   3.582  11.394
 3654SOL    HW112794  13.385   3.668  11.363
 3654SOL    HW212795  13.405   3.568  11.475
 3655SOL     OW12796   0.323  10.662  10.838
 3655SOL    HW112797   0.372  10.699  10.765
 3655SOL    HW212798   0.305  10.572  10.812
 3656SOL     OW12799   2.758  12.438  12.702
 3656SOL    HW112800   2.829  12.377  12.721
 3656SOL    HW212801   2.767  12.507  12.767
 3657SOL     OW12802   1.718   7.567   8.645
 3657SOL    HW112803   1.713   7.492   8.705
 3657SOL    HW212804   1.627   7.587   8.623
 3658SOL     OW12805   7.710   6.035   2.886
 3658SOL    HW112806   7.801   6.014   2.909
 3658SOL    HW212807   7.683   5.962   2.830
 3659SOL     OW12808   1.938  14.124  10.336
 3659SOL    HW112809   1.962  14.051  10.393
 3659SOL    HW212810   2.008  14.127  10.271
 3660SOL     OW12811   1.782   1.078   6.175
 3660SOL    HW112812   1.734   1.076   6.092
 3660SOL    HW212813   1.874   1.087   6.149
 3661SOL     OW12814   6.089   9.880  13.731
 3661SOL    HW112815   6.116   9.953  13.786
 3661SOL    HW212816   6.109   9.802  13.784
 3662SOL     OW12817   4.550   7.440  13.541
 3662SOL    HW112818   4.562   7.528  13.504
 3662SOL    HW212819   4.573   7.381  13.469
 3663SOL     OW12820   3.117   8.839   9.012
 3663SOL    HW112821   3.023   8.859   9.013
 3663SOL    HW212822   3.146   8.866   8.925
 3664SOL     OW12823  14.762   2.624   9.529
 3664SOL    HW112824  14.715   2.655   9.607
 3664SOL    HW212825  14.786   2.533   9.551
 3665SOL     OW12826  11.255  12.436  12.228
 3665SOL    HW112827  11.201  12.515  12.225
 3665SOL    HW212828  11.230  12.393  12.310
 3666SOL     OW12829   5.724   5.199   3.912
 3666SOL    HW112830   5.793   5.160   3.965
 3666SOL    HW212831   5.643   5.172   3.955
 3667SOL     OW12832  11.927   7.317   8.062
 3667SOL    HW112833  11.871   7.394   8.076
 3667SOL    HW212834  12.012   7.354   8.036
 3668SOL     OW12835   5.317  12.162   7.584
 3668SOL    HW112836   5.407  12.140   7.561
 3668SOL    HW212837   5.324  12.241   7.637
 3669SOL     OW12838   8.086   0.438  12.942
 3669SOL    HW112839   8.012   0.487  12.906
 3669SOL    HW212840   8.150   0.435  12.871
 3670SOL     OW12841   1.124   8.950   7.440
 3670SOL    HW112842   1.075   8.870   7.461
 3670SOL    HW212843   1.185   8.923   7.371
 3671SOL     OW12844  12.902   6.447  13.806
 3671SOL    HW112845  12.985   6.469  13.765
 3671SOL    HW212846  12.903   6.493  13.890
 3672SOL     OW12847   3.134   2.373   2.184
 3672SOL    HW112848   3.044   2.380   2.216
 3672SOL    HW212849   3.187   2.360   2.263
 3673SOL     OW12850   4.515   8.432   0.429
 3673SOL    HW112851   4.526   8.356   0.371
 3673SOL    HW212852   4.453   8.403   0.496
 3674SOL     OW12853  14.286   6.271   8.960
 3674SOL    HW112854  14.254   6.359   8.980
 3674SOL    HW212855  14.346   6.251   9.032
 3675SOL     OW12856   7.029   8.065   3.336
 3675SOL    HW112857   7.125   8.070   3.345
 3675SOL    HW212858   7.012   7.975   3.310
 3676SOL     OW12859   6.474   6.860  11.023
 3676SOL    HW112860   6.482   6.829  11.113
 3676SOL    HW212861   6.398   6.814  10.989
 3677SOL     OW12862   2.727   3.993  10.871
 3677SOL    HW112863   2.813   4.025  10.900
 3677SOL    HW212864   2.681   4.071  10.842
 3678SOL     OW12865   8.740  12.300   6.492
 3678SOL    HW112866   8.657  12.263   6.520
 3678SOL    HW212867   8.731  12.312   6.397
 3679SOL     OW12868   5.180   1.222  14.013
 3679SOL    HW112869   5.219   1.307  14.034
 3679SOL    HW212870   5.108   1.242  13.954
 3680SOL     OW12871   1.705   7.152  14.634
 3680SOL    HW112872   1.723   7.062  14.606
 3680SOL    HW212873   1.717   7.204  14.554
 3681SOL     OW12874  13.154   6.145   1.582
 3681SOL    HW112875  13.135   6.052   1.585
 3681SOL    HW212876  13.244   6.150   1.548
 3682SOL     OW12877   1.031   6.917   4.615
 3682SOL    HW112878   0.949   6.914   4.665
 3682SOL    HW212879   1.093   6.867   4.668
 3683SOL     OW12880  12.936  14.548   0.940
 3683SOL    HW112881  12.871  14.509   0.881
 3683SOL    HW212882  12.900  14.633   0.962
 3684SOL     OW12883   5.785   9.818  12.857
 3684SOL    HW112884   5.821   9.768  12.930
 3684SOL    HW212885   5.745   9.753  12.800
 3685SOL     OW12886  12.480   4.570  14.249
 3685SOL    HW112887  12.433   4.618  14.181
 3685SOL    HW212888  12.451   4.479  14.238
 3686SOL     OW12889  13.967   5.853   0.609
 3686SOL    HW112890  14.014   5.932   0.582
 3686SOL    HW212891  13.918   5.827   0.531
 3687SOL     OW12892  11.067   0.110   5.732
 3687SOL    HW112893  11.132   0.162   5.778
 3687SOL    HW212894  10.983   0.153   5.750
 3688SOL     OW12895   6.146   8.904   4.609
 3688SOL    HW112896   6.068   8.960   4.606
 3688SOL    HW212897   6.121   8.825   4.561
 3689SOL     OW12898   4.629   7.492   4.130
 3689SOL    HW112899   4.629   7.416   4.188
 3689SOL    HW212900   4.602   7.457   4.045
 3690SOL     OW12901  10.539   0.289   2.970
 3690SOL    HW112902  10.605   0.342   2.925
 3690SOL    HW212903  10.511   0.225   2.905
 3691SOL     OW12904   9.433   4.843   0.332
 3691SOL    HW112905   9.358   4.830   0.275
 3691SOL    HW212906   9.504   4.868   0.273
 3692SOL     OW12907  12.836   0.936   8.802
 3692SOL    HW112908  12.776   0.887   8.858
 3692SOL    HW212909  12.866   1.008   8.858
 3693SOL     OW12910   0.866   9.213   7.064
 3693SOL    HW112911   0.954   9.193   7.034
 3693SOL    HW212912   0.848   9.150   7.133
 3694SOL     OW12913  10.720  14.445   6.545
 3694SOL    HW112914  10.765  14.409   6.468
 3694SOL    HW212915  10.627  14.433   6.526
 3695SOL     OW12916   0.130  10.971   3.263
 3695SOL    HW112917   0.140  10.974   3.168
 3695SOL    HW212918   0.147  10.880   3.286
 3696SOL     OW12919   9.725   1.642   4.988
 3696SOL    HW112920   9.699   1.626   4.897
 3696SOL    HW212921   9.643   1.639   5.038
 3697SOL     OW12922   3.521   5.482   6.431
 3697SOL    HW112923   3.593   5.450   6.486
 3697SOL    HW212924   3.477   5.402   6.401
 3698SOL     OW12925   7.885   9.268  11.285
 3698SOL    HW112926   7.805   9.221  11.308
 3698SOL    HW212927   7.895   9.334  11.353
 3699SOL     OW12928   1.541   1.720   6.303
 3699SOL    HW112929   1.454   1.685   6.322
 3699SOL    HW212930   1.581   1.655   6.246
 3700SOL     OW12931   4.316   2.577  13.288
 3700SOL    HW112932   4.222   2.576  13.310
 3700SOL    HW212933   4.350   2.655  13.332
 3701SOL     OW12934   4.161   5.308  10.317
 3701SOL    HW112935   4.187   5.388  10.363
 3701SOL    HW212936   4.209   5.238  10.362
 3702SOL     OW12937  13.335   6.785   7.179
 3702SOL    HW112938  13.401   6.753   7.117
 3702SOL    HW212939  13.290   6.855   7.132
 3703SOL     OW12940  14.506   5.966   2.180
 3703SOL    HW112941  14.413   5.945   2.187
 3703SOL    HW212942  14.543   5.895   2.127
 3704SOL     OW12943   7.085  14.024   4.458
 3704SOL    HW112944   6.994  14.021   4.488
 3704SOL    HW212945   7.080  14.067   4.372
 3705SOL     OW12946   7.419  10.458  14.847
 3705SOL    HW112947   7.390  10.535   0.015
 3705SOL    HW212948   7.439  10.392   0.032
 3706SOL     OW12949  13.141   9.205   7.892
 3706SOL    HW112950  13.185   9.271   7.945
 3706SOL    HW212951  13.207   9.179   7.827
 3707SOL     OW12952   3.377   1.719   6.216
 3707SOL    HW112953   3.336   1.690   6.134
 3707SOL    HW212954   3.304   1.734   6.276
 3708SOL     OW12955   4.720  10.737   5.010
 3708SOL    HW112956   4.706  10.824   4.972
 3708SOL    HW212957   4.747  10.755   5.100
 3709SOL     OW12958   3.063   6.530   5.027
 3709SOL    HW112959   2.999   6.468   4.992
 3709SOL    HW212960   3.031   6.616   5.000
 3710SOL     OW12961   1.802   3.936   1.021
 3710SOL    HW112962   1.889   3.961   1.052
 3710SOL    HW212963   1.785   3.852   1.065
 3711SOL     OW12964   4.899  11.925  10.591
 3711SOL    HW112965   4.981  11.976  10.590
 3711SOL    HW212966   4.889  11.893  10.502
 3712SOL     OW12967   3.649   2.961   4.515
 3712SOL    HW112968   3.650   3.045   4.562
 3712SOL    HW212969   3.716   2.969   4.448
 3713SOL     OW12970   7.076   4.595  11.710
 3713SOL    HW112971   7.140   4.533  11.746
 3713SOL    HW212972   7.040   4.550  11.634
 3714SOL     OW12973   0.247  14.228   2.220
 3714SOL    HW112974   0.194  14.193   2.291
 3714SOL    HW212975   0.297  14.299   2.260
 3715SOL     OW12976  11.737   9.169   0.324
 3715SOL    HW112977  11.699   9.126   0.401
 3715SOL    HW212978  11.704   9.258   0.328
 3716SOL     OW12979   5.836  12.918   5.285
 3716SOL    HW112980   5.917  12.922   5.234
 3716SOL    HW212981   5.860  12.951   5.371
 3717SOL     OW12982   8.048   5.223   7.234
 3717SOL    HW112983   7.953   5.213   7.227
 3717SOL    HW212984   8.079   5.136   7.258
 3718SOL     OW12985  10.253  14.783   7.212
 3718SOL    HW112986  10.299  14.779   7.129
 3718SOL    HW212987  10.172  14.734   7.197
 3719SOL     OW12988   0.078   0.774   5.107
 3719SOL    HW112989   0.142   0.703   5.101
 3719SOL    HW212990   0.042   0.781   5.018
 3720SOL     OW12991  10.823   9.025  10.941
 3720SOL    HW112992  10.896   9.084  10.957
 3720SOL    HW212993  10.863   8.938  10.934
 3721SOL     OW12994  13.095  14.813   8.101
 3721SOL    HW112995  13.059  14.778   8.182
 3721SOL    HW212996  13.035   0.001   8.076
 3722SOL     OW12997   9.542   6.170   5.146
 3722SOL    HW112998   9.588   6.138   5.224
 3722SOL    HW212999   9.450   6.151   5.163
 3723SOL     OW13000  10.194   4.032   8.729
 3723SOL    HW113001  10.217   4.125   8.732
 3723SOL    HW213002  10.241   3.998   8.653
 3724SOL     OW13003  10.260   7.589   5.274
 3724SOL    HW113004  10.284   7.573   5.183
 3724SOL    HW213005  10.329   7.647   5.307
 3725SOL     OW13006   9.988   1.062   7.779
 3725SOL    HW113007   9.913   1.034   7.728
 3725SOL    HW213008  10.052   1.092   7.715
 3726SOL     OW13009  13.342  10.445  14.009
 3726SOL    HW113010  13.377  10.405  14.088
 3726SOL    HW213011  13.342  10.539  14.028
 3727SOL     OW13012   7.648   1.371   3.828
 3727SOL    HW113013   7.627   1.460   3.802
 3727SOL    HW213014   7.736   1.355   3.793
 3728SOL     OW13015  14.103   5.563   0.326
 3728SOL    HW113016  14.154   5.644   0.331
 3728SOL    HW213017  14.168   5.493   0.326
 3729SOL     OW13018   1.369   8.286  10.518
 3729SOL    HW113019   1.360   8.204  10.468
 3729SOL    HW213020   1.402   8.258  10.603
 3730SOL     OW13021  13.293   6.039   6.439
 3730SOL    HW113022  13.236   6.080   6.504
 3730SOL    HW213023  13.247   5.959   6.415
 3731SOL     OW13024  11.678  10.712   9.959
 3731SOL    HW113025  11.650  10.653  10.029
 3731SOL    HW213026  11.597  10.752   9.927
 3732SOL     OW13027  14.349   8.995   8.850
 3732SOL    HW113028  14.429   8.967   8.807
 3732SOL    HW213029  14.364   9.087   8.872
 3733SOL     OW13030   9.276   3.322  13.107
 3733SOL    HW113031   9.273   3.388  13.176
 3733SOL    HW213032   9.345   3.261  13.134
 3734SOL     OW13033  11.290   3.032   0.477
 3734SOL    HW113034  11.368   2.990   0.439
 3734SOL    HW213035  11.217   2.998   0.426
 3735SOL     OW13036  11.393   2.314   3.881
 3735SOL    HW113037  11.327   2.317   3.951
 3735SOL    HW213038  11.356   2.365   3.810
 3736SOL     OW13039  11.951  14.736   7.043
 3736SOL    HW113040  11.862  14.772   7.045
 3736SOL    HW213041  11.998  14.794   6.983
 3737SOL     OW13042  13.853   2.244  10.447
 3737SOL    HW113043  13.931   2.260  10.395
 3737SOL    HW213044  13.837   2.150  10.438
 3738SOL     OW13045   2.342   8.626   6.857
 3738SOL    HW113046   2.335   8.533   6.833
 3738SOL    HW213047   2.372   8.669   6.777
 3739SOL     OW13048   8.215   4.392  13.349
 3739SOL    HW113049   8.177   4.309  13.378
 3739SOL    HW213050   8.310   4.379  13.355
 3740SOL     OW13051  10.425  10.287  12.171
 3740SOL    HW113052  10.383  10.324  12.248
 3740SOL    HW213053  10.358  10.232  12.130
 3741SOL     OW13054  14.840  11.311   7.390
 3741SOL    HW113055  14.790  11.389   7.413
 3741SOL    HW213056   0.037  11.345   7.348
 3742SOL     OW13057  12.830  12.456   2.165
 3742SOL    HW113058  12.866  12.525   2.109
 3742SOL    HW213059  12.745  12.435   2.126
 3743SOL     OW13060  14.071  11.080  10.172
 3743SOL    HW113061  14.066  10.987  10.191
 3743SOL    HW213062  14.022  11.122  10.243
 3744SOL     OW13063   6.519  13.967   3.190
 3744SOL    HW113064   6.553  13.882   3.215
 3744SOL    HW213065   6.591  14.028   3.206
 3745SOL     OW13066   2.071   8.335   7.964
 3745SOL    HW113067   2.156   8.342   7.921
 3745SOL    HW213068   2.030   8.420   7.949
 3746SOL     OW13069   4.166   5.351   4.150
 3746SOL    HW113070   4.142   5.382   4.062
 3746SOL    HW213071   4.205   5.428   4.192
 3747SOL     OW13072  11.236   5.322   0.944
 3747SOL    HW113073  11.176   5.392   0.971
 3747SOL    HW213074  11.183   5.262   0.892
 3748SOL     OW13075   9.246   9.280  10.895
 3748SOL    HW113076   9.154   9.252  10.902
 3748SOL    HW213077   9.294   9.199  10.882
 3749SOL     OW13078  12.994   0.041   0.280
 3749SOL    HW113079  12.910   0.005   0.251
 3749SOL    HW213080  13.055   0.021   0.209
 3750SOL     OW13081  14.294  11.739   0.698
 3750SOL    HW113082  14.352  11.701   0.764
 3750SOL    HW213083  14.214  11.687   0.703
 3751SOL     OW13084   0.110   7.191   4.542
 3751SOL    HW113085   0.197   7.163   4.516
 3751SOL    HW213086   0.051   7.126   4.504
 3752SOL     OW13087   7.170  10.936  10.736
 3752SOL    HW113088   7.077  10.939  10.758
 3752SOL    HW213089   7.183  11.008  10.674
 3753SOL     OW13090   0.207   0.146   9.387
 3753SOL    HW113091   0.136   0.210   9.377
 3753SOL    HW213092   0.217   0.136   9.482
 3754SOL     OW13093   3.552  12.497  13.552
 3754SOL    HW113094   3.545  12.420  13.496
 3754SOL    HW213095   3.461  12.519  13.573
 3755SOL     OW13096   6.628   6.002  10.938
 3755SOL    HW113097   6.554   6.041  10.891
 3755SOL    HW213098   6.705   6.047  10.903
 3756SOL     OW13099  11.444   5.660  10.845
 3756SOL    HW113100  11.399   5.735  10.806
 3756SOL    HW213101  11.497   5.698  10.916
 3757SOL     OW13102   9.186   4.346  14.343
 3757SOL    HW113103   9.255   4.314  14.284
 3757SOL    HW213104   9.137   4.267  14.367
 3758SOL     OW13105  13.074  10.493   2.666
 3758SOL    HW113106  13.047  10.479   2.575
 3758SOL    HW213107  12.992  10.494   2.716
 3759SOL     OW13108   5.008   7.113   4.979
 3759SOL    HW113109   5.075   7.044   4.981
 3759SOL    HW213110   5.055   7.191   4.948
 3760SOL     OW13111   2.347  11.686   6.464
 3760SOL    HW113112   2.433  11.728   6.456
 3760SOL    HW213113   2.332  11.682   6.558
 3761SOL     OW13114   4.409   4.130  10.635
 3761SOL    HW113115   4.401   4.219  10.602
 3761SOL    HW213116   4.332   4.118  10.691
 3762SOL     OW13117   2.433   9.846   1.587
 3762SOL    HW113118   2.507   9.787   1.578
 3762SOL    HW213119   2.425   9.859   1.682
 3763SOL     OW13120   4.551   5.930   3.469
 3763SOL    HW113121   4.512   6.002   3.518
 3763SOL    HW213122   4.482   5.865   3.462
 3764SOL     OW13123   9.131  11.078   2.140
 3764SOL    HW113124   9.210  11.025   2.144
 3764SOL    HW213125   9.132  11.130   2.220
 3765SOL     OW13126   6.791  14.204  14.763
 3765SOL    HW113127   6.862  14.254  14.803
 3765SOL    HW213128   6.788  14.122  14.812
 3766SOL     OW13129   6.400   7.662   3.685
 3766SOL    HW113130   6.436   7.726   3.624
 3766SOL    HW213131   6.470   7.649   3.750
 3767SOL     OW13132  12.085   4.439   5.328
 3767SOL    HW113133  12.010   4.425   5.270
 3767SOL    HW213134  12.154   4.473   5.270
 3768SOL     OW13135   4.903  14.339   2.420
 3768SOL    HW113136   4.888  14.382   2.335
 3768SOL    HW213137   4.998  14.335   2.428
 3769SOL     OW13138  13.187   6.162   3.059
 3769SOL    HW113139  13.179   6.226   2.988
 3769SOL    HW213140  13.136   6.087   3.030
 3770SOL     OW13141   5.137   0.627   6.711
 3770SOL    HW113142   5.092   0.546   6.735
 3770SOL    HW213143   5.145   0.622   6.615
 3771SOL     OW13144   1.665  10.413   2.967
 3771SOL    HW113145   1.745  10.463   2.949
 3771SOL    HW213146   1.596  10.479   2.971
 3772SOL     OW13147   5.630   9.068   2.374
 3772SOL    HW113148   5.588   9.081   2.459
 3772SOL    HW213149   5.626   9.154   2.332
 3773SOL     OW13150   4.351  10.682  10.481
 3773SOL    HW113151   4.299  10.611  10.519
 3773SOL    HW213152   4.325  10.759  10.532
 3774SOL     OW13153   7.216  13.895  11.532
 3774SOL    HW113154   7.189  13.854  11.614
 3774SOL    HW213155   7.200  13.828  11.466
 3775SOL     OW13156   9.215   1.150   3.572
 3775SOL    HW113157   9.137   1.106   3.606
 3775SOL    HW213158   9.217   1.234   3.618
 3776SOL     OW13159   3.197   7.354   7.679
 3776SOL    HW113160   3.285   7.390   7.692
 3776SOL    HW213161   3.192   7.281   7.741
 3777SOL     OW13162   7.978   1.573   8.467
 3777SOL    HW113163   7.935   1.656   8.450
 3777SOL    HW213164   8.060   1.597   8.510
 3778SOL     OW13165  10.352   3.516   6.016
 3778SOL    HW113166  10.405   3.442   5.985
 3778SOL    HW213167  10.264   3.499   5.981
 3779SOL     OW13168   6.845   9.588  13.858
 3779SOL    HW113169   6.909   9.527  13.894
 3779SOL    HW213170   6.783   9.532  13.810
 3780SOL     OW13171   0.369   9.893  11.678
 3780SOL    HW113172   0.299   9.944  11.637
 3780SOL    HW213173   0.441   9.955  11.687
 3781SOL     OW13174  10.573  14.029  11.750
 3781SOL    HW113175  10.485  14.045  11.785
 3781SOL    HW213176  10.564  13.948  11.699
 3782SOL     OW13177  13.454   0.511  14.630
 3782SOL    HW113178  13.437   0.423  14.598
 3782SOL    HW213179  13.524   0.500  14.694
 3783SOL     OW13180   0.341   6.919  10.742
 3783SOL    HW113181   0.278   6.900  10.811
 3783SOL    HW213182   0.368   7.009  10.758
 3784SOL     OW13183   8.749   9.143   8.600
 3784SOL    HW113184   8.786   9.134   8.512
 3784SOL    HW213185   8.655   9.129   8.589
 3785SOL     OW13186   4.608   4.098  12.989
 3785SOL    HW113187   4.665   4.115  12.914
 3785SOL    HW213188   4.583   4.006  12.980
 3786SOL     OW13189   2.567   0.621   9.522
 3786SOL    HW113190   2.545   0.701   9.474
 3786SOL    HW213191   2.523   0.551   9.473
 3787SOL     OW13192   6.445  11.664  12.314
 3787SOL    HW113193   6.379  11.682  12.246
 3787SOL    HW213194   6.500  11.595  12.275
 3788SOL     OW13195   5.852   4.831  13.251
 3788SOL    HW113196   5.938   4.862  13.221
 3788SOL    HW213197   5.834   4.755  13.196
 3789SOL     OW13198   4.610   8.423   1.339
 3789SOL    HW113199   4.611   8.484   1.412
 3789SOL    HW213200   4.700   8.391   1.332
 3790SOL     OW13201   0.976  13.553   4.217
 3790SOL    HW113202   1.002  13.473   4.262
 3790SOL    HW213203   0.903  13.587   4.267
 3791SOL     OW13204   6.153  14.783   9.708
 3791SOL    HW113205   6.171  14.877   9.703
 3791SOL    HW213206   6.068  14.777   9.752
 3792SOL     OW13207   2.005   2.968   0.602
 3792SOL    HW113208   2.077   2.927   0.651
 3792SOL    HW213209   1.933   2.906   0.608
 3793SOL     OW13210  10.966   5.839   9.542
 3793SOL    HW113211  11.001   5.899   9.607
 3793SOL    HW213212  11.042   5.809   9.492
 3794SOL     OW13213   5.986  12.162   3.395
 3794SOL    HW113214   5.972  12.242   3.445
 3794SOL    HW213215   5.952  12.092   3.452
 3795SOL     OW13216   6.042  14.630   4.172
 3795SOL    HW113217   6.127  14.603   4.208
 3795SOL    HW213218   5.988  14.646   4.249
 3796SOL     OW13219   5.394   4.245  12.723
 3796SOL    HW113220   5.381   4.264  12.630
 3796SOL    HW213221   5.306   4.231  12.757
 3797SOL     OW13222   6.348  10.429   5.255
 3797SOL    HW113223   6.310  10.517   5.265
 3797SOL    HW213224   6.418  10.440   5.191
 3798SOL     OW13225   9.458   3.794   7.428
 3798SOL    HW113226   9.402   3.870   7.439
 3798SOL    HW213227   9.475   3.789   7.334
 3799SOL     OW13228   0.883   4.812   0.564
 3799SOL    HW113229   0.946   4.740   0.557
 3799SOL    HW213230   0.918   4.866   0.635
 3800SOL     OW13231   0.270   6.654   0.346
 3800SOL    HW113232   0.274   6.572   0.396
 3800SOL    HW213233   0.305   6.632   0.260
 3801SOL     OW13234   0.388  11.523   2.084
 3801SOL    HW113235   0.474  11.535   2.042
 3801SOL    HW213236   0.345  11.608   2.073
 3802SOL     OW13237   8.691   1.112  10.013
 3802SOL    HW113238   8.722   1.112  10.104
 3802SOL    HW213239   8.599   1.138  10.019
 3803SOL     OW13240   3.781   9.244  10.971
 3803SOL    HW113241   3.770   9.290  11.053
 3803SOL    HW213242   3.858   9.187  10.985
 3804SOL     OW13243  10.878   8.876  14.660
 3804SOL    HW113244  10.962   8.830  14.649
 3804SOL    HW213245  10.902   8.963  14.691
 3805SOL     OW13246  10.393   9.797  10.305
 3805SOL    HW113247  10.309   9.844  10.298
 3805SOL    HW213248  10.420   9.812  10.396
 3806SOL     OW13249   9.923   0.815  14.097
 3806SOL    HW113250   9.828   0.822  14.105
 3806SOL    HW213251   9.953   0.789  14.184
 3807SOL     OW13252  11.666   6.292   6.034
 3807SOL    HW113253  11.732   6.267   6.098
 3807SOL    HW213254  11.665   6.388   6.037
 3808SOL     OW13255   4.749   1.068   2.409
 3808SOL    HW113256   4.758   1.050   2.503
 3808SOL    HW213257   4.723   1.161   2.406
 3809SOL     OW13258   5.902  14.682   3.534
 3809SOL    HW113259   5.849  14.604   3.550
 3809SOL    HW213260   5.839  14.747   3.501
 3810SOL     OW13261   0.897   6.333   0.555
 3810SOL    HW113262   0.845   6.254   0.542
 3810SOL    HW213263   0.883   6.355   0.648
 3811SOL     OW13264   9.731  12.949   3.550
 3811SOL    HW113265   9.812  12.915   3.588
 3811SOL    HW213266   9.728  13.041   3.579
 3812SOL     OW13267   3.843   1.608  10.326
 3812SOL    HW113268   3.794   1.585  10.248
 3812SOL    HW213269   3.818   1.543  10.391
 3813SOL     OW13270   8.783   5.835  12.485
 3813SOL    HW113271   8.767   5.743  12.506
 3813SOL    HW213272   8.703   5.864  12.443
 3814SOL     OW13273   2.897  13.741   2.617
 3814SOL    HW113274   2.948  13.661   2.616
 3814SOL    HW213275   2.936  13.796   2.549
 3815SOL     OW13276   1.549   8.207   4.063
 3815SOL    HW113277   1.590   8.294   4.061
 3815SOL    HW213278   1.494   8.206   3.985
 3816SOL     OW13279   8.880  10.522   4.010
 3816SOL    HW113280   8.845  10.490   3.926
 3816SOL    HW213281   8.962  10.565   3.987
 3817SOL     OW13282   2.018   2.305   0.488
 3817SOL    HW113283   2.064   2.229   0.524
 3817SOL    HW213284   2.068   2.381   0.520
 3818SOL     OW13285  11.719   5.288  13.727
 3818SOL    HW113286  11.795   5.277  13.670
 3818SOL    HW213287  11.735   5.371  13.773
 3819SOL     OW13288   4.557  12.737  11.978
 3819SOL    HW113289   4.549  12.793  12.056
 3819SOL    HW213290   4.483  12.676  11.985
 3820SOL     OW13291   4.120   7.422   6.500
 3820SOL    HW113292   4.195   7.477   6.478
 3820SOL    HW213293   4.050   7.454   6.444
 3821SOL     OW13294   0.478   6.649   2.523
 3821SOL    HW113295   0.390   6.661   2.487
 3821SOL    HW213296   0.502   6.561   2.497
 3822SOL     OW13297   1.789   6.641   6.723
 3822SOL    HW113298   1.830   6.717   6.763
 3822SOL    HW213299   1.700   6.670   6.702
 3823SOL     OW13300   3.987   1.881   7.021
 3823SOL    HW113301   3.922   1.824   7.064
 3823SOL    HW213302   4.071   1.852   7.057
 3824SOL     OW13303   1.747   3.557   3.656
 3824SOL    HW113304   1.808   3.624   3.686
 3824SOL    HW213305   1.703   3.528   3.736
 3825SOL     OW13306   3.363   2.970   1.993
 3825SOL    HW113307   3.384   2.879   1.974
 3825SOL    HW213308   3.377   3.016   1.910
 3826SOL     OW13309  10.919  10.013   2.900
 3826SOL    HW113310  10.929   9.917   2.896
 3826SOL    HW213311  10.832  10.026   2.937
 3827SOL     OW13312  12.618   6.120  13.810
 3827SOL    HW113313  12.640   6.069  13.731
 3827SOL    HW213314  12.575   6.198  13.776
 3828SOL     OW13315   3.087   0.490   9.085
 3828SOL    HW113316   3.159   0.519   9.029
 3828SOL    HW213317   3.039   0.427   9.032
 3829SOL     OW13318   1.452  10.862   0.670
 3829SOL    HW113319   1.442  10.823   0.583
 3829SOL    HW213320   1.385  10.819   0.723
 3830SOL     OW13321   4.402  13.243   7.793
 3830SOL    HW113322   4.380  13.198   7.874
 3830SOL    HW213323   4.391  13.336   7.812
 3831SOL     OW13324   0.494   8.084   5.883
 3831SOL    HW113325   0.518   8.096   5.975
 3831SOL    HW213326   0.528   8.162   5.839
 3832SOL     OW13327  13.212   7.553   2.325
 3832SOL    HW113328  13.246   7.642   2.328
 3832SOL    HW213329  13.287   7.498   2.349
 3833SOL     OW13330   3.805  14.067  10.692
 3833SOL    HW113331   3.797  14.004  10.763
 3833SOL    HW213332   3.813  14.014  10.613
 3834SOL     OW13333  12.461   3.939   4.856
 3834SOL    HW113334  12.408   4.006   4.813
 3834SOL    HW213335  12.418   3.925   4.940
 3835SOL     OW13336   6.442   6.978  12.399
 3835SOL    HW113337   6.390   6.906  12.435
 3835SOL    HW213338   6.380   7.029  12.347
 3836SOL     OW13339   9.088  13.420  14.380
 3836SOL    HW113340   9.149  13.390  14.448
 3836SOL    HW213341   9.144  13.450  14.309
 3837SOL     OW13342  12.203  10.385   4.809
 3837SOL    HW113343  12.111  10.408   4.800
 3837SOL    HW213344  12.204  10.309   4.867
 3838SOL     OW13345   4.282  14.133  12.664
 3838SOL    HW113346   4.349  14.202  12.658
 3838SOL    HW213347   4.289  14.101  12.755
 3839SOL     OW13348  13.477  11.418   1.008
 3839SOL    HW113349  13.570  11.403   0.986
 3839SOL    HW213350  13.461  11.359   1.081
 3840SOL     OW13351  12.669  11.357   1.459
 3840SOL    HW113352  12.619  11.438   1.468
 3840SOL    HW213353  12.611  11.299   1.410
 3841SOL     OW13354  14.090  13.911   3.947
 3841SOL    HW113355  14.041  13.851   3.891
 3841SOL    HW213356  14.122  13.856   4.018
 3842SOL     OW13357   8.806   8.309   2.525
 3842SOL    HW113358   8.792   8.382   2.465
 3842SOL    HW213359   8.800   8.231   2.470
 3843SOL     OW13360  13.759   8.612   0.904
 3843SOL    HW113361  13.709   8.687   0.936
 3843SOL    HW213362  13.702   8.537   0.917
 3844SOL     OW13363  12.301   9.870   0.722
 3844SOL    HW113364  12.269   9.961   0.723
 3844SOL    HW213365  12.224   9.819   0.699
 3845SOL     OW13366   7.731   6.646   5.572
 3845SOL    HW113367   7.803   6.585   5.551
 3845SOL    HW213368   7.735   6.655   5.667
 3846SOL     OW13369   6.474   9.119  10.121
 3846SOL    HW113370   6.524   9.071  10.054
 3846SOL    HW213371   6.489   9.211  10.100
 3847SOL     OW13372  11.264  13.301  10.514
 3847SOL    HW113373  11.195  13.323  10.451
 3847SOL    HW213374  11.344  13.296  10.462
 3848SOL     OW13375   2.817   3.050  11.080
 3848SOL    HW113376   2.799   3.089  11.166
 3848SOL    HW213377   2.910   3.027  11.084
 3849SOL     OW13378   8.350   1.897  13.545
 3849SOL    HW113379   8.440   1.864  13.545
 3849SOL    HW213380   8.297   1.820  13.525
 3850SOL     OW13381  13.106   9.030   1.995
 3850SOL    HW113382  13.032   9.014   1.937
 3850SOL    HW213383  13.153   9.103   1.956
 3851SOL     OW13384   6.474   7.396  14.831
 3851SOL    HW113385   6.499   7.455   0.020
 3851SOL    HW213386   6.451   7.455  14.759
 3852SOL     OW13387  11.524   2.356  14.783
 3852SOL    HW113388  11.447   2.362  14.839
 3852SOL    HW213389  11.527   2.264  14.757
 3853SOL     OW13390   5.001  14.559   1.092
 3853SOL    HW113391   5.094  14.579   1.082
 3853SOL    HW213392   4.983  14.574   1.185
 3854SOL     OW13393  14.287  14.843  10.058
 3854SOL    HW113394  14.358  14.784  10.083
 3854SOL    HW213395  14.250  14.873  10.141
 3855SOL     OW13396   0.958   8.266  14.782
 3855SOL    HW113397   0.875   8.233  14.747
 3855SOL    HW213398   0.933   8.327  14.850
 3856SOL     OW13399  11.505   3.446   7.346
 3856SOL    HW113400  11.591   3.473   7.377
 3856SOL    HW213401  11.510   3.451   7.251
 3857SOL     OW13402   4.957   8.154   7.084
 3857SOL    HW113403   4.996   8.092   7.145
 3857SOL    HW213404   5.029   8.178   7.025
 3858SOL     OW13405  12.502   2.975   4.692
 3858SOL    HW113406  12.496   3.065   4.725
 3858SOL    HW213407  12.589   2.971   4.651
 3859SOL     OW13408   8.922   3.450   9.998
 3859SOL    HW113409   8.882   3.533   9.975
 3859SOL    HW213410   9.013   3.471  10.018
 3860SOL     OW13411   2.946   7.754  10.776
 3860SOL    HW113412   2.862   7.772  10.818
 3860SOL    HW213413   3.012   7.777  10.841
 3861SOL     OW13414   1.791   4.733   6.222
 3861SOL    HW113415   1.734   4.656   6.228
 3861SOL    HW213416   1.877   4.700   6.247
 3862SOL     OW13417  10.465   4.118  13.940
 3862SOL    HW113418  10.400   4.060  13.980
 3862SOL    HW213419  10.427   4.142  13.856
 3863SOL     OW13420   9.456  13.415  12.448
 3863SOL    HW113421   9.441  13.454  12.362
 3863SOL    HW213422   9.546  13.436  12.470
 3864SOL     OW13423  13.439   0.859   9.859
 3864SOL    HW113424  13.370   0.857   9.926
 3864SOL    HW213425  13.433   0.947   9.822
 3865SOL     OW13426   4.858   0.637  12.639
 3865SOL    HW113427   4.921   0.703  12.610
 3865SOL    HW213428   4.864   0.638  12.734
 3866SOL     OW13429  10.369   3.381   0.703
 3866SOL    HW113430  10.430   3.455   0.698
 3866SOL    HW213431  10.385   3.331   0.623
 3867SOL     OW13432  14.591   2.325  11.965
 3867SOL    HW113433  14.549   2.269  12.031
 3867SOL    HW213434  14.598   2.411  12.008
 3868SOL     OW13435  13.891   2.091   1.935
 3868SOL    HW113436  13.820   2.047   1.982
 3868SOL    HW213437  13.877   2.184   1.952
 3869SOL     OW13438  10.728   9.153   1.834
 3869SOL    HW113439  10.659   9.088   1.849
 3869SOL    HW213440  10.708   9.223   1.896
 3870SOL     OW13441   9.890   3.977   6.644
 3870SOL    HW113442   9.889   3.961   6.550
 3870SOL    HW213443   9.943   3.905   6.680
 3871SOL     OW13444   8.877   6.072   5.450
 3871SOL    HW113445   8.940   6.120   5.504
 3871SOL    HW213446   8.895   6.102   5.361
 3872SOL     OW13447   4.416   0.903   8.729
 3872SOL    HW113448   4.379   0.866   8.809
 3872SOL    HW213449   4.440   0.993   8.752
 3873SOL     OW13450   3.674   8.280   6.710
 3873SOL    HW113451   3.672   8.365   6.667
 3873SOL    HW213452   3.588   8.242   6.692
 3874SOL     OW13453   6.712   9.597   7.370
 3874SOL    HW113454   6.805   9.617   7.379
 3874SOL    HW213455   6.672   9.681   7.347
 3875SOL     OW13456   7.695  14.871   3.615
 3875SOL    HW113457   7.731  14.784   3.598
 3875SOL    HW213458   7.628   0.001   3.548
 3876SOL     OW13459   7.243   1.177  13.385
 3876SOL    HW113460   7.169   1.207  13.438
 3876SOL    HW213461   7.273   1.256  13.340
 3877SOL     OW13462   0.217  12.447   7.843
 3877SOL    HW113463   0.190  12.512   7.778
 3877SOL    HW213464   0.136  12.422   7.888
 3878SOL     OW13465   7.003  12.647   7.559
 3878SOL    HW113466   6.981  12.645   7.466
 3878SOL    HW213467   7.018  12.555   7.583
 3879SOL     OW13468   4.645  12.286  12.969
 3879SOL    HW113469   4.713  12.220  12.958
 3879SOL    HW213470   4.578  12.262  12.904
 3880SOL     OW13471   4.813   3.555  11.201
 3880SOL    HW113472   4.837   3.555  11.109
 3880SOL    HW213473   4.895   3.567  11.248
 3881SOL     OW13474  14.238   2.508   5.581
 3881SOL    HW113475  14.216   2.593   5.619
 3881SOL    HW213476  14.326   2.488   5.613
 3882SOL     OW13477   6.230   1.688  11.063
 3882SOL    HW113478   6.325   1.690  11.046
 3882SOL    HW213479   6.220   1.732  11.148
 3883SOL     OW13480  12.728   0.965  13.041
 3883SOL    HW113481  12.692   0.971  13.129
 3883SOL    HW213482  12.806   1.021  13.042
 3884SOL     OW13483   3.553  13.153   8.864
 3884SOL    HW113484   3.478  13.142   8.923
 3884SOL    HW213485   3.528  13.224   8.806
 3885SOL     OW13486   3.218   5.343  14.718
 3885SOL    HW113487   3.303   5.359  14.758
 3885SOL    HW213488   3.239   5.294  14.638
 3886SOL     OW13489   2.911   7.246   6.939
 3886SOL    HW113490   2.949   7.334   6.931
 3886SOL    HW213491   2.983   7.187   6.915
 3887SOL     OW13492  11.945  12.025  12.421
 3887SOL    HW113493  11.891  12.066  12.488
 3887SOL    HW213494  11.882  11.982  12.362
 3888SOL     OW13495   3.195   6.515   3.775
 3888SOL    HW113496   3.138   6.556   3.841
 3888SOL    HW213497   3.237   6.588   3.730
 3889SOL     OW13498   1.177   3.422   7.843
 3889SOL    HW113499   1.213   3.374   7.768
 3889SOL    HW213500   1.253   3.461   7.886
 3890SOL     OW13501   9.020   2.354   4.386
 3890SOL    HW113502   9.036   2.322   4.475
 3890SOL    HW213503   9.034   2.448   4.392
 3891SOL     OW13504  11.576   8.948  11.691
 3891SOL    HW113505  11.516   8.876  11.707
 3891SOL    HW213506  11.617   8.929  11.607
 3892SOL     OW13507   7.233   4.229   4.696
 3892SOL    HW113508   7.328   4.233   4.710
 3892SOL    HW213509   7.221   4.261   4.606
 3893SOL     OW13510   3.438   2.474  13.945
 3893SOL    HW113511   3.367   2.524  13.986
 3893SOL    HW213512   3.518   2.514  13.977
 3894SOL     OW13513   8.573  12.631   5.529
 3894SOL    HW113514   8.513  12.626   5.456
 3894SOL    HW213515   8.659  12.644   5.489
 3895SOL     OW13516  14.558  14.027  10.828
 3895SOL    HW113517  14.499  14.028  10.904
 3895SOL    HW213518  14.635  13.979  10.858
 3896SOL     OW13519   0.575   7.901   8.426
 3896SOL    HW113520   0.573   7.992   8.454
 3896SOL    HW213521   0.579   7.851   8.508
 3897SOL     OW13522  12.846  11.551   3.751
 3897SOL    HW113523  12.828  11.645   3.746
 3897SOL    HW213524  12.930  11.544   3.796
 3898SOL     OW13525   6.063  11.327   8.005
 3898SOL    HW113526   6.044  11.234   7.998
 3898SOL    HW213527   6.139  11.341   7.948
 3899SOL     OW13528   7.444   7.327   9.088
 3899SOL    HW113529   7.383   7.333   9.162
 3899SOL    HW213530   7.518   7.383   9.113
 3900SOL     OW13531  10.075  12.199  11.893
 3900SOL    HW113532  10.109  12.192  11.803
 3900SOL    HW213533   9.987  12.234  11.882
 3901SOL     OW13534   4.882   7.856   9.284
 3901SOL    HW113535   4.896   7.761   9.288
 3901SOL    HW213536   4.790   7.866   9.260
 3902SOL     OW13537   6.473  14.070   9.947
 3902SOL    HW113538   6.552  14.028   9.913
 3902SOL    HW213539   6.495  14.093  10.037
 3903SOL     OW13540   2.464   6.289  10.077
 3903SOL    HW113541   2.376   6.282  10.114
 3903SOL    HW213542   2.491   6.379  10.095
 3904SOL     OW13543  10.761  13.652   0.468
 3904SOL    HW113544  10.791  13.680   0.382
 3904SOL    HW213545  10.842  13.630   0.516
 3905SOL     OW13546  11.037  10.887  11.140
 3905SOL    HW113547  11.090  10.911  11.216
 3905SOL    HW213548  11.096  10.835  11.085
 3906SOL     OW13549   4.247   4.088   8.356
 3906SOL    HW113550   4.171   4.118   8.306
 3906SOL    HW213551   4.232   4.121   8.444
 3907SOL     OW13552   3.694   2.612   0.282
 3907SOL    HW113553   3.736   2.552   0.219
 3907SOL    HW213554   3.639   2.668   0.228
 3908SOL     OW13555  13.201   4.714   0.164
 3908SOL    HW113556  13.243   4.690   0.081
 3908SOL    HW213557  13.119   4.665   0.164
 3909SOL     OW13558   6.668   5.291   5.801
 3909SOL    HW113559   6.588   5.277   5.750
 3909SOL    HW213560   6.732   5.321   5.737
 3910SOL     OW13561   4.466   7.893  11.028
 3910SOL    HW113562   4.561   7.897  11.036
 3910SOL    HW213563   4.443   7.970  10.975
 3911SOL     OW13564   3.640   1.584   3.158
 3911SOL    HW113565   3.703   1.518   3.186
 3911SOL    HW213566   3.642   1.650   3.227
 3912SOL     OW13567   7.897   8.615   4.975
 3912SOL    HW113568   7.937   8.582   5.055
 3912SOL    HW213569   7.803   8.606   4.989
 3913SOL     OW13570   9.842   6.652   8.390
 3913SOL    HW113571   9.775   6.711   8.355
 3913SOL    HW213572   9.806   6.622   8.474
 3914SOL     OW13573   5.189  10.165   9.746
 3914SOL    HW113574   5.189  10.162   9.842
 3914SOL    HW213575   5.279  10.188   9.723
 3915SOL     OW13576  13.335  13.717   6.939
 3915SOL    HW113577  13.382  13.635   6.948
 3915SOL    HW213578  13.249  13.700   6.977
 3916SOL     OW13579   3.726   4.332   3.260
 3916SOL    HW113580   3.658   4.362   3.201
 3916SOL    HW213581   3.789   4.404   3.264
 3917SOL     OW13582   7.764   0.883   7.111
 3917SOL    HW113583   7.779   0.938   7.033
 3917SOL    HW213584   7.849   0.844   7.130
 3918SOL     OW13585  13.556  11.344   3.581
 3918SOL    HW113586  13.564  11.268   3.639
 3918SOL    HW213587  13.509  11.310   3.504
 3919SOL     OW13588   2.479  11.878   5.618
 3919SOL    HW113589   2.457  11.967   5.589
 3919SOL    HW213590   2.448  11.874   5.708
 3920SOL     OW13591   3.525   2.550   7.302
 3920SOL    HW113592   3.516   2.497   7.382
 3920SOL    HW213593   3.520   2.487   7.231
 3921SOL     OW13594   4.990  14.291   1.212
 3921SOL    HW113595   4.947  14.336   1.139
 3921SOL    HW213596   4.918  14.268   1.271
 3922SOL     OW13597   8.244   6.831  10.418
 3922SOL    HW113598   8.167   6.859  10.466
 3922SOL    HW213599   8.317   6.843  10.479
 3923SOL     OW13600  10.788   8.070   3.894
 3923SOL    HW113601  10.749   7.994   3.849
 3923SOL    HW213602  10.877   8.074   3.860
 3924SOL     OW13603   1.909  10.447  14.799
 3924SOL    HW113604   1.941  10.536  14.789
 3924SOL    HW213605   1.880  10.422  14.711
 3925SOL     OW13606   7.934   8.676   5.432
 3925SOL    HW113607   7.956   8.645   5.344
 3925SOL    HW213608   7.907   8.597   5.479
 3926SOL     OW13609   4.931   1.484   0.137
 3926SOL    HW113610   4.869   1.434   0.084
 3926SOL    HW213611   4.897   1.573   0.136
 3927SOL     OW13612   8.336  13.653   2.794
 3927SOL    HW113613   8.357  13.613   2.709
 3927SOL    HW213614   8.253  13.699   2.778
 3928SOL     OW13615  14.593   6.037  11.267
 3928SOL    HW113616  14.667   6.085  11.229
 3928SOL    HW213617  14.584   6.074  11.355
 3929SOL     OW13618   1.582   1.815   9.705
 3929SOL    HW113619   1.534   1.871   9.643
 3929SOL    HW213620   1.639   1.762   9.649
 3930SOL     OW13621   4.901   2.361   8.301
 3930SOL    HW113622   4.912   2.454   8.321
 3930SOL    HW213623   4.884   2.358   8.207
 3931SOL     OW13624   6.837   9.334   6.821
 3931SOL    HW113625   6.776   9.388   6.870
 3931SOL    HW213626   6.783   9.288   6.757
 3932SOL     OW13627  10.338   4.162  14.717
 3932SOL    HW113628  10.431   4.141  14.727
 3932SOL    HW213629  10.332   4.255  14.738
 3933SOL     OW13630   1.180   7.489  13.538
 3933SOL    HW113631   1.126   7.567  13.522
 3933SOL    HW213632   1.117   7.422  13.566
 3934SOL     OW13633   1.842   5.833   9.936
 3934SOL    HW113634   1.796   5.769   9.882
 3934SOL    HW213635   1.930   5.838   9.898
 3935SOL     OW13636  10.461   5.216   2.334
 3935SOL    HW113637  10.504   5.259   2.260
 3935SOL    HW213638  10.488   5.124   2.327
 3936SOL     OW13639   0.834   1.555   2.640
 3936SOL    HW113640   0.760   1.548   2.579
 3936SOL    HW213641   0.878   1.636   2.614
 3937SOL     OW13642   1.739  13.746  14.457
 3937SOL    HW113643   1.741  13.801  14.379
 3937SOL    HW213644   1.817  13.690  14.449
 3938SOL     OW13645  10.014   4.226   5.612
 3938SOL    HW113646  10.061   4.196   5.690
 3938SOL    HW213647   9.999   4.146   5.561
 3939SOL     OW13648   1.473   4.566   6.524
 3939SOL    HW113649   1.438   4.633   6.584
 3939SOL    HW213650   1.528   4.511   6.580
 3940SOL     OW13651   9.352   7.513   1.809
 3940SOL    HW113652   9.268   7.554   1.789
 3940SOL    HW213653   9.398   7.576   1.865
 3941SOL     OW13654   9.206   8.008  12.726
 3941SOL    HW113655   9.238   7.946  12.791
 3941SOL    HW213656   9.117   7.978  12.707
 3942SOL     OW13657   3.856   0.267   8.910
 3942SOL    HW113658   3.762   0.275   8.893
 3942SOL    HW213659   3.887   0.357   8.923
 3943SOL     OW13660   4.691   0.241   8.548
 3943SOL    HW113661   4.705   0.224   8.641
 3943SOL    HW213662   4.633   0.172   8.519
 3944SOL     OW13663   4.685  14.348  13.883
 3944SOL    HW113664   4.700  14.338  13.789
 3944SOL    HW213665   4.759  14.400  13.914
 3945SOL     OW13666   5.154   3.609   0.545
 3945SOL    HW113667   5.220   3.621   0.477
 3945SOL    HW213668   5.072   3.599   0.498
 3946SOL     OW13669   7.412   2.758   8.361
 3946SOL    HW113670   7.411   2.721   8.273
 3946SOL    HW213671   7.362   2.839   8.353
 3947SOL     OW13672   8.735  10.338   5.765
 3947SOL    HW113673   8.803  10.384   5.715
 3947SOL    HW213674   8.693  10.281   5.701
 3948SOL     OW13675   0.659   0.583   3.358
 3948SOL    HW113676   0.621   0.495   3.366
 3948SOL    HW213677   0.586   0.643   3.373
 3949SOL     OW13678  10.115   5.336   3.074
 3949SOL    HW113679  10.082   5.420   3.106
 3949SOL    HW213680  10.196   5.322   3.122
 3950SOL     OW13681   3.522  13.276   3.356
 3950SOL    HW113682   3.550  13.367   3.358
 3950SOL    HW213683   3.516  13.251   3.449
 3951SOL     OW13684   6.979   2.777  13.916
 3951SOL    HW113685   7.002   2.708  13.977
 3951SOL    HW213686   6.976   2.734  13.830
 3952SOL     OW13687   2.846  13.501  13.386
 3952SOL    HW113688   2.825  13.408  13.377
 3952SOL    HW213689   2.937  13.508  13.357
 3953SOL     OW13690   7.449   9.792  10.263
 3953SOL    HW113691   7.414   9.704  10.276
 3953SOL    HW213692   7.543   9.778  10.247
 3954SOL     OW13693  13.717   2.862   8.247
 3954SOL    HW113694  13.693   2.937   8.300
 3954SOL    HW213695  13.811   2.850   8.262
 3955SOL     OW13696   6.466  12.564   8.456
 3955SOL    HW113697   6.413  12.486   8.445
 3955SOL    HW213698   6.491  12.563   8.548
 3956SOL     OW13699   3.528  13.811   4.451
 3956SOL    HW113700   3.472  13.831   4.526
 3956SOL    HW213701   3.479  13.746   4.401
 3957SOL     OW13702  14.295  14.581   6.476
 3957SOL    HW113703  14.213  14.542   6.505
 3957SOL    HW213704  14.269  14.653   6.419
 3958SOL     OW13705   6.431  11.201   1.508
 3958SOL    HW113706   6.515  11.193   1.463
 3958SOL    HW213707   6.442  11.149   1.588
 3959SOL     OW13708   6.956   6.466   1.728
 3959SOL    HW113709   7.017   6.415   1.675
 3959SOL    HW213710   6.989   6.459   1.817
 3960SOL     OW13711  11.875  11.789  11.393
 3960SOL    HW113712  11.835  11.723  11.449
 3960SOL    HW213713  11.811  11.860  11.391
 3961SOL     OW13714   5.999   5.077   6.651
 3961SOL    HW113715   6.010   5.000   6.595
 3961SOL    HW213716   6.085   5.091   6.691
 3962SOL     OW13717   7.829  11.346  14.619
 3962SOL    HW113718   7.774  11.276  14.584
 3962SOL    HW213719   7.904  11.350  14.559
 3963SOL     OW13720   0.948   7.840  12.526
 3963SOL    HW113721   0.898   7.777  12.473
 3963SOL    HW213722   1.039   7.816  12.512
 3964SOL     OW13723   1.846  11.834   7.274
 3964SOL    HW113724   1.887  11.762   7.323
 3964SOL    HW213725   1.910  11.905   7.279
 3965SOL     OW13726   7.638  11.047  11.501
 3965SOL    HW113727   7.663  11.138  11.484
 3965SOL    HW213728   7.693  10.995  11.443
 3966SOL     OW13729  11.878   5.911   3.453
 3966SOL    HW113730  11.945   5.975   3.433
 3966SOL    HW213731  11.844   5.938   3.539
 3967SOL     OW13732  10.563   7.706   7.643
 3967SOL    HW113733  10.569   7.623   7.691
 3967SOL    HW213734  10.472   7.733   7.652
 3968SOL     OW13735  12.569  11.408  11.002
 3968SOL    HW113736  12.530  11.370  10.923
 3968SOL    HW213737  12.546  11.501  10.998
 3969SOL     OW13738   4.412   8.971   8.235
 3969SOL    HW113739   4.327   9.006   8.209
 3969SOL    HW213740   4.464   8.969   8.154
 3970SOL     OW13741   7.519  11.977   1.795
 3970SOL    HW113742   7.440  12.009   1.752
 3970SOL    HW213743   7.581  12.050   1.787
 3971SOL     OW13744   7.482   3.014   6.345
 3971SOL    HW113745   7.428   3.086   6.378
 3971SOL    HW213746   7.420   2.954   6.304
 3972SOL     OW13747   6.241   9.830  14.686
 3972SOL    HW113748   6.331   9.844  14.658
 3972SOL    HW213749   6.240   9.856  14.778
 3973SOL     OW13750  11.993   1.012   7.201
 3973SOL    HW113751  11.993   1.016   7.105
 3973SOL    HW213752  12.002   0.919   7.221
 3974SOL     OW13753  10.159   2.874   4.558
 3974SOL    HW113754  10.231   2.874   4.621
 3974SOL    HW213755  10.191   2.925   4.484
 3975SOL     OW13756   2.406   9.448   0.110
 3975SOL    HW113757   2.375   9.530   0.070
 3975SOL    HW213758   2.428   9.392   0.035
 3976SOL     OW13759  11.336  11.642  13.703
 3976SOL    HW113760  11.243  11.630  13.686
 3976SOL    HW213761  11.340  11.682  13.790
 3977SOL     OW13762   9.254  13.746   5.440
 3977SOL    HW113763   9.323  13.804   5.473
 3977SOL    HW213764   9.274  13.736   5.347
 3978SOL     OW13765   3.448   9.322  13.588
 3978SOL    HW113766   3.541   9.344  13.592
 3978SOL    HW213767   3.445   9.240  13.538
 3979SOL     OW13768   1.595  10.718   9.434
 3979SOL    HW113769   1.531  10.650   9.414
 3979SOL    HW213770   1.667  10.701   9.373
 3980SOL     OW13771   9.041   5.284  13.431
 3980SOL    HW113772   9.063   5.244  13.515
 3980SOL    HW213773   9.121   5.329  13.404
 3981SOL     OW13774   7.393   5.207   7.075
 3981SOL    HW113775   7.336   5.283   7.080
 3981SOL    HW213776   7.424   5.206   6.985
 3982SOL     OW13777   5.654   6.584   8.471
 3982SOL    HW113778   5.691   6.500   8.444
 3982SOL    HW213779   5.647   6.634   8.389
 3983SOL     OW13780   2.296   6.016  13.508
 3983SOL    HW113781   2.340   6.002  13.592
 3983SOL    HW213782   2.329   6.102  13.478
 3984SOL     OW13783   6.399  13.961  11.049
 3984SOL    HW113784   6.334  13.979  11.117
 3984SOL    HW213785   6.356  13.987  10.968
 3985SOL     OW13786   9.628   7.761   6.901
 3985SOL    HW113787   9.592   7.743   6.988
 3985SOL    HW213788   9.580   7.838   6.872
 3986SOL     OW13789   3.544  12.364   1.847
 3986SOL    HW113790   3.518  12.286   1.895
 3986SOL    HW213791   3.636  12.378   1.871
 3987SOL     OW13792  13.119   5.261  11.802
 3987SOL    HW113793  13.041   5.309  11.774
 3987SOL    HW213794  13.086   5.192  11.858
 3988SOL     OW13795  13.861   8.830  14.205
 3988SOL    HW113796  13.813   8.824  14.123
 3988SOL    HW213797  13.835   8.751  14.254
 3989SOL     OW13798   9.068   9.505  14.671
 3989SOL    HW113799   9.162   9.493  14.682
 3989SOL    HW213800   9.060   9.588  14.623
 3990SOL     OW13801   6.713   2.240  12.179
 3990SOL    HW113802   6.690   2.169  12.240
 3990SOL    HW213803   6.807   2.253  12.191
 3991SOL     OW13804   5.525   9.316   5.876
 3991SOL    HW113805   5.610   9.272   5.868
 3991SOL    HW213806   5.534   9.371   5.954
 3992SOL     OW13807  11.291   9.583   4.665
 3992SOL    HW113808  11.290   9.536   4.748
 3992SOL    HW213809  11.356   9.537   4.612
 3993SOL     OW13810   6.741   3.361   2.739
 3993SOL    HW113811   6.780   3.339   2.824
 3993SOL    HW213812   6.708   3.278   2.706
 3994SOL     OW13813  11.634   7.045   0.438
 3994SOL    HW113814  11.547   7.008   0.424
 3994SOL    HW213815  11.645   7.045   0.533
 3995SOL     OW13816  13.917   5.351   7.192
 3995SOL    HW113817  13.848   5.376   7.254
 3995SOL    HW213818  13.927   5.256   7.205
 3996SOL     OW13819  12.555  13.284   9.701
 3996SOL    HW113820  12.482  13.307   9.759
 3996SOL    HW213821  12.526  13.206   9.655
 3997SOL     OW13822  12.381   9.365  13.320
 3997SOL    HW113823  12.405   9.454  13.346
 3997SOL    HW213824  12.424   9.309  13.385
 3998SOL     OW13825   9.837  10.425   5.705
 3998SOL    HW113826   9.832  10.340   5.748
 3998SOL    HW213827   9.833  10.488   5.777
 3999SOL     OW13828  13.805   6.346   0.463
 3999SOL    HW113829  13.836   6.265   0.423
 3999SOL    HW213830  13.825   6.414   0.397
 4000SOL     OW13831   4.881   7.091   5.573
 4000SOL    HW113832   4.964   7.092   5.525
 4000SOL    HW213833   4.899   7.038   5.651
 4001SOL     OW13834  14.731   0.362   5.312
 4001SOL    HW113835  14.782   0.440   5.291
 4001SOL    HW213836  14.644   0.380   5.277
 4002SOL     OW13837  14.789  12.394   2.750
 4002SOL    HW113838  14.869  12.425   2.792
 4002SOL    HW213839  14.777  12.305   2.784
 4003SOL     OW13840  14.393   1.529  10.832
 4003SOL    HW113841  14.421   1.609  10.876
 4003SOL    HW213842  14.467   1.506  10.775
 4004SOL     OW13843   8.101   9.814   6.668
 4004SOL    HW113844   8.024   9.845   6.620
 4004SOL    HW213845   8.068   9.742   6.722
 4005SOL     OW13846   8.711   0.972   0.684
 4005SOL    HW113847   8.679   1.001   0.769
 4005SOL    HW213848   8.753   1.049   0.646
 4006SOL     OW13849   2.779   4.431   9.589
 4006SOL    HW113850   2.788   4.414   9.682
 4006SOL    HW213851   2.717   4.365   9.558
 4007SOL     OW13852  10.491   6.639   9.329
 4007SOL    HW113853  10.472   6.619   9.421
 4007SOL    HW213854  10.568   6.696   9.332
 4008SOL     OW13855   9.129  13.449   6.251
 4008SOL    HW113856   9.063  13.425   6.186
 4008SOL    HW213857   9.106  13.538   6.276
 4009SOL     OW13858   2.157   6.169   5.214
 4009SOL    HW113859   2.181   6.166   5.307
 4009SOL    HW213860   2.062   6.162   5.214
 4010SOL     OW13861   7.140   4.644   6.211
 4010SOL    HW113862   7.047   4.635   6.232
 4010SOL    HW213863   7.149   4.604   6.125
 4011SOL     OW13864   1.895   3.286   7.610
 4011SOL    HW113865   1.978   3.305   7.654
 4011SOL    HW213866   1.895   3.191   7.600
 4012SOL     OW13867  12.327  11.792  12.487
 4012SOL    HW113868  12.285  11.845  12.555
 4012SOL    HW213869  12.267  11.719  12.473
 4013SOL     OW13870   1.471   4.795  10.238
 4013SOL    HW113871   1.556   4.757  10.216
 4013SOL    HW213872   1.491   4.883  10.269
 4014SOL     OW13873   1.704   5.981   3.633
 4014SOL    HW113874   1.715   6.019   3.720
 4014SOL    HW213875   1.712   6.056   3.573
 4015SOL     OW13876   5.672   9.239   4.084
 4015SOL    HW113877   5.674   9.333   4.104
 4015SOL    HW213878   5.580   9.219   4.070
 4016SOL     OW13879   0.475   5.630   8.766
 4016SOL    HW113880   0.381   5.612   8.763
 4016SOL    HW213881   0.497   5.663   8.679
 4017SOL     OW13882   6.818   9.125  13.580
 4017SOL    HW113883   6.884   9.058  13.598
 4017SOL    HW213884   6.774   9.138  13.664
 4018SOL     OW13885   7.230   2.995  10.604
 4018SOL    HW113886   7.326   2.996  10.609
 4018SOL    HW213887   7.202   3.039  10.684
 4019SOL     OW13888  12.085   3.033  13.812
 4019SOL    HW113889  12.128   2.953  13.781
 4019SOL    HW213890  12.145   3.104  13.786
 4020SOL     OW13891  11.942   5.086   4.647
 4020SOL    HW113892  12.028   5.121   4.672
 4020SOL    HW213893  11.923   5.019   4.713
 4021SOL     OW13894   8.652   6.248   9.730
 4021SOL    HW113895   8.593   6.309   9.685
 4021SOL    HW213896   8.724   6.303   9.760
 4022SOL     OW13897   1.616   5.124  12.258
 4022SOL    HW113898   1.590   5.114  12.166
 4022SOL    HW213899   1.706   5.155  12.254
 4023SOL     OW13900   6.282   9.011  10.937
 4023SOL    HW113901   6.353   8.983  10.995
 4023SOL    HW213902   6.300   8.967  10.854
 4024SOL     OW13903   6.019   9.425  12.833
 4024SOL    HW113904   6.088   9.488  12.854
 4024SOL    HW213905   5.966   9.421  12.913
 4025SOL     OW13906   8.405   0.505   3.524
 4025SOL    HW113907   8.470   0.487   3.592
 4025SOL    HW213908   8.392   0.421   3.480
 4026SOL     OW13909  10.253  14.253  11.603
 4026SOL    HW113910  10.290  14.327  11.554
 4026SOL    HW213911  10.161  14.275  11.614
 4027SOL     OW13912   9.451  11.298   8.407
 4027SOL    HW113913   9.370  11.334   8.370
 4027SOL    HW213914   9.431  11.288   8.500
 4028SOL     OW13915   2.865   4.304   4.087
 4028SOL    HW113916   2.783   4.329   4.130
 4028SOL    HW213917   2.872   4.210   4.101
 4029SOL     OW13918   7.369  12.635   4.054
 4029SOL    HW113919   7.405  12.685   4.128
 4029SOL    HW213920   7.347  12.550   4.092
 4030SOL     OW13921  13.680   9.335   9.153
 4030SOL    HW113922  13.623   9.259   9.141
 4030SOL    HW213923  13.630   9.395   9.208
 4031SOL     OW13924   7.076   8.626   4.988
 4031SOL    HW113925   7.062   8.703   4.933
 4031SOL    HW213926   7.171   8.618   4.996
 4032SOL     OW13927  11.448  12.380   0.622
 4032SOL    HW113928  11.542  12.396   0.614
 4032SOL    HW213929  11.420  12.439   0.692
 4033SOL     OW13930   6.268   2.693  14.373
 4033SOL    HW113931   6.200   2.754  14.344
 4033SOL    HW213932   6.253   2.614  14.322
 4034SOL     OW13933   5.305   4.317   1.806
 4034SOL    HW113934   5.354   4.305   1.725
 4034SOL    HW213935   5.213   4.316   1.779
 4035SOL     OW13936   1.522   6.245   8.565
 4035SOL    HW113937   1.474   6.183   8.619
 4035SOL    HW213938   1.456   6.280   8.504
 4036SOL     OW13939  11.191   2.770  11.101
 4036SOL    HW113940  11.277   2.798  11.132
 4036SOL    HW213941  11.131   2.797  11.170
 4037SOL     OW13942  13.768   0.282   1.140
 4037SOL    HW113943  13.807   0.219   1.200
 4037SOL    HW213944  13.685   0.242   1.113
 4038SOL     OW13945   9.906   4.278   0.880
 4038SOL    HW113946   9.932   4.262   0.970
 4038SOL    HW213947   9.840   4.347   0.885
 4039SOL     OW13948   7.216  10.632  14.512
 4039SOL    HW113949   7.214  10.539  14.533
 4039SOL    HW213950   7.131  10.649  14.471
 4040SOL     OW13951   7.358   4.755   0.572
 4040SOL    HW113952   7.304   4.771   0.650
 4040SOL    HW213953   7.297   4.763   0.499
 4041SOL     OW13954  10.277   4.762   5.817
 4041SOL    HW113955  10.196   4.766   5.767
 4041SOL    HW213956  10.314   4.850   5.811
 4042SOL     OW13957  13.559  14.536   1.598
 4042SOL    HW113958  13.604  14.577   1.672
 4042SOL    HW213959  13.575  14.442   1.610
 4043SOL     OW13960   2.987  14.866  14.247
 4043SOL    HW113961   2.938   0.044  14.190
 4043SOL    HW213962   3.061  14.837  14.192
 4044SOL     OW13963   5.646   0.980   5.977
 4044SOL    HW113964   5.720   0.924   6.001
 4044SOL    HW213965   5.687   1.062   5.949
 4045SOL     OW13966  11.538   1.300   5.817
 4045SOL    HW113967  11.492   1.258   5.890
 4045SOL    HW213968  11.593   1.232   5.780
 4046SOL     OW13969   0.443   5.514  13.128
 4046SOL    HW113970   0.448   5.599  13.084
 4046SOL    HW213971   0.358   5.514  13.172
 4047SOL     OW13972   4.935   6.871   1.108
 4047SOL    HW113973   4.863   6.874   1.045
 4047SOL    HW213974   4.892   6.878   1.194
 4048SOL     OW13975   6.767   0.035   1.800
 4048SOL    HW113976   6.798  14.828   1.782
 4048SOL    HW213977   6.730   0.031   1.888
 4049SOL     OW13978   3.567   7.583  13.312
 4049SOL    HW113979   3.600   7.530  13.384
 4049SOL    HW213980   3.573   7.673  13.344
 4050SOL     OW13981  12.940  10.042  10.386
 4050SOL    HW113982  12.906  10.084  10.307
 4050SOL    HW213983  12.976  10.114  10.437
 4051SOL     OW13984   7.272   4.348   2.548
 4051SOL    HW113985   7.274   4.392   2.632
 4051SOL    HW213986   7.224   4.266   2.565
 4052SOL     OW13987  12.817   3.262   3.471
 4052SOL    HW113988  12.781   3.264   3.560
 4052SOL    HW213989  12.819   3.169   3.448
 4053SOL     OW13990  12.611  10.231   7.926
 4053SOL    HW113991  12.615  10.140   7.897
 4053SOL    HW213992  12.522  10.259   7.906
 4054SOL     OW13993   7.820   4.851   1.926
 4054SOL    HW113994   7.739   4.895   1.952
 4054SOL    HW213995   7.865   4.832   2.009
 4055SOL     OW13996   4.549   2.004   1.633
 4055SOL    HW113997   4.609   1.985   1.561
 4055SOL    HW213998   4.528   1.918   1.670
 4056SOL     OW13999   5.114   3.576   4.017
 4056SOL    HW114000   5.137   3.490   3.983
 4056SOL    HW214001   5.047   3.609   3.957
 4057SOL     OW14002  10.191  13.721   5.561
 4057SOL    HW114003  10.284  13.700   5.571
 4057SOL    HW214004  10.175  13.791   5.624
 4058SOL     OW14005   7.306  13.648   6.827
 4058SOL    HW114006   7.317  13.665   6.921
 4058SOL    HW214007   7.343  13.560   6.815
 4059SOL     OW14008  14.358  12.655   4.911
 4059SOL    HW114009  14.443  12.611   4.915
 4059SOL    HW214010  14.302  12.594   4.864
 4060SOL     OW14011   4.165  12.124   5.127
 4060SOL    HW114012   4.227  12.108   5.056
 4060SOL    HW214013   4.162  12.042   5.176
 4061SOL     OW14014   5.060   2.780  13.489
 4061SOL    HW114015   5.072   2.686  13.500
 4061SOL    HW214016   5.123   2.821  13.548
 4062SOL     OW14017   0.575   9.728  14.728
 4062SOL    HW114018   0.653   9.673  14.736
 4062SOL    HW214019   0.547   9.742  14.819
 4063SOL     OW14020   3.645   6.265   3.295
 4063SOL    HW114021   3.719   6.320   3.271
 4063SOL    HW214022   3.681   6.176   3.295
 4064SOL     OW14023   8.581  10.246  10.260
 4064SOL    HW114024   8.675  10.227  10.252
 4064SOL    HW214025   8.575  10.311  10.330
 4065SOL     OW14026   2.709   9.077   7.495
 4065SOL    HW114027   2.766   9.119   7.430
 4065SOL    HW214028   2.623   9.118   7.481
 4066SOL     OW14029   7.045  13.029   6.804
 4066SOL    HW114030   7.122  12.986   6.841
 4066SOL    HW214031   7.057  13.022   6.709
 4067SOL     OW14032   6.881   3.828   5.877
 4067SOL    HW114033   6.813   3.792   5.820
 4067SOL    HW214034   6.955   3.768   5.868
 4068SOL     OW14035   1.917   7.596   2.785
 4068SOL    HW114036   1.840   7.631   2.739
 4068SOL    HW214037   1.988   7.604   2.722
 4069SOL     OW14038  13.581  10.628  14.376
 4069SOL    HW114039  13.533  10.645  14.457
 4069SOL    HW214040  13.635  10.551  14.396
 4070SOL     OW14041   0.567   6.462   3.011
 4070SOL    HW114042   0.485   6.503   2.983
 4070SOL    HW214043   0.635   6.515   2.970
 4071SOL     OW14044  14.021  11.154   0.400
 4071SOL    HW114045  13.927  11.135   0.395
 4071SOL    HW214046  14.054  11.139   0.311
 4072SOL     OW14047   0.700   9.149  11.544
 4072SOL    HW114048   0.622   9.200  11.519
 4072SOL    HW214049   0.694   9.142  11.639
 4073SOL     OW14050  11.714  10.069   3.879
 4073SOL    HW114051  11.633  10.103   3.918
 4073SOL    HW214052  11.742  10.000   3.939
 4074SOL     OW14053  13.093   5.301   0.418
 4074SOL    HW114054  13.123   5.311   0.328
 4074SOL    HW214055  13.117   5.384   0.461
 4075SOL     OW14056  10.843  13.090  12.666
 4075SOL    HW114057  10.787  13.057  12.596
 4075SOL    HW214058  10.804  13.174  12.691
 4076SOL     OW14059  10.268   0.709   0.664
 4076SOL    HW114060  10.237   0.636   0.611
 4076SOL    HW214061  10.321   0.667   0.733
 4077SOL     OW14062   2.555   6.001   2.460
 4077SOL    HW114063   2.625   6.001   2.526
 4077SOL    HW214064   2.505   5.921   2.478
 4078SOL     OW14065   1.272  14.322   5.680
 4078SOL    HW114066   1.296  14.270   5.603
 4078SOL    HW214067   1.277  14.261   5.753
 4079SOL     OW14068  13.508  14.710   3.528
 4079SOL    HW114069  13.566  14.781   3.559
 4079SOL    HW214070  13.420  14.743   3.544
 4080SOL     OW14071   8.934   9.894   1.269
 4080SOL    HW114072   8.888   9.890   1.185
 4080SOL    HW214073   8.917   9.808   1.308
 4081SOL     OW14074  12.075   3.846   0.712
 4081SOL    HW114075  12.103   3.807   0.629
 4081SOL    HW214076  12.020   3.780   0.753
 4082SOL     OW14077   9.205   4.550   8.174
 4082SOL    HW114078   9.127   4.519   8.128
 4082SOL    HW214079   9.222   4.637   8.137
 4083SOL     OW14080  12.460   3.725   6.914
 4083SOL    HW114081  12.505   3.679   6.985
 4083SOL    HW214082  12.523   3.726   6.842
 4084SOL     OW14083  11.184  13.501   5.217
 4084SOL    HW114084  11.090  13.498   5.236
 4084SOL    HW214085  11.217  13.574   5.268
 4085SOL     OW14086   2.778  14.699   1.788
 4085SOL    HW114087   2.699  14.648   1.806
 4085SOL    HW214088   2.796  14.684   1.695
 4086SOL     OW14089  14.705   0.589   3.869
 4086SOL    HW114090  14.655   0.516   3.906
 4086SOL    HW214091  14.650   0.665   3.885
 4087SOL     OW14092  10.272   7.877   3.260
 4087SOL    HW114093  10.212   7.950   3.250
 4087SOL    HW214094  10.358   7.919   3.272
 4088SOL     OW14095  13.724   1.252   6.967
 4088SOL    HW114096  13.751   1.162   6.981
 4088SOL    HW214097  13.658   1.248   6.898
 4089SOL     OW14098   5.444   7.990   0.467
 4089SOL    HW114099   5.451   8.060   0.403
 4089SOL    HW214100   5.423   7.912   0.415
 4090SOL     OW14101   9.198   3.504  10.805
 4090SOL    HW114102   9.105   3.509  10.824
 4090SOL    HW214103   9.204   3.508  10.709
 4091SOL     OW14104  11.881  12.610   5.632
 4091SOL    HW114105  11.844  12.540   5.686
 4091SOL    HW214106  11.945  12.653   5.689
 4092SOL     OW14107   4.778   4.781   1.649
 4092SOL    HW114108   4.697   4.731   1.660
 4092SOL    HW214109   4.824   4.736   1.578
 4093SOL     OW14110   5.678   9.978   7.073
 4093SOL    HW114111   5.771   9.993   7.058
 4093SOL    HW214112   5.673   9.948   7.164
 4094SOL     OW14113   1.985   9.076  13.407
 4094SOL    HW114114   2.002   8.998  13.354
 4094SOL    HW214115   2.002   9.149  13.347
 4095SOL     OW14116  11.268   6.108   6.946
 4095SOL    HW114117  11.180   6.070   6.944
 4095SOL    HW214118  11.314   6.058   7.014
 4096SOL     OW14119   4.337   5.521   5.526
 4096SOL    HW114120   4.414   5.543   5.579
 4096SOL    HW214121   4.348   5.573   5.446
 4097SOL     OW14122   0.647  11.531  13.973
 4097SOL    HW114123   0.709  11.502  14.039
 4097SOL    HW214124   0.595  11.599  14.017
 4098SOL     OW14125   8.322  13.189  14.413
 4098SOL    HW114126   8.411  13.155  14.427
 4098SOL    HW214127   8.332  13.284  14.416
 4099SOL     OW14128   7.669   1.010   4.584
 4099SOL    HW114129   7.659   1.034   4.676
 4099SOL    HW214130   7.585   0.970   4.560
 4100SOL     OW14131  14.169  12.767  11.872
 4100SOL    HW114132  14.201  12.678  11.890
 4100SOL    HW214133  14.224  12.824  11.926
 4101SOL     OW14134  14.375   4.347   3.635
 4101SOL    HW114135  14.374   4.423   3.694
 4101SOL    HW214136  14.401   4.382   3.550
 4102SOL     OW14137  11.211   3.505   8.203
 4102SOL    HW114138  11.246   3.594   8.205
 4102SOL    HW214139  11.118   3.514   8.221
 4103SOL     OW14140  13.518   5.370   0.288
 4103SOL    HW114141  13.472   5.287   0.275
 4103SOL    HW214142  13.579   5.375   0.215
 4104SOL     OW14143  14.161  11.584  11.649
 4104SOL    HW114144  14.159  11.490  11.633
 4104SOL    HW214145  14.087  11.618  11.599
 4105SOL     OW14146  13.995   9.358   2.061
 4105SOL    HW114147  13.914   9.331   2.105
 4105SOL    HW214148  13.966   9.401   1.981
 4106SOL     OW14149   1.805   9.695   4.250
 4106SOL    HW114150   1.861   9.621   4.273
 4106SOL    HW214151   1.833   9.720   4.162
 4107SOL     OW14152  11.007   2.061   0.799
 4107SOL    HW114153  10.961   2.131   0.753
 4107SOL    HW214154  10.937   2.004   0.833
 4108SOL     OW14155  14.207   4.983   3.272
 4108SOL    HW114156  14.271   4.998   3.340
 4108SOL    HW214157  14.201   5.066   3.225
 4109SOL     OW14158   5.104   8.529  10.114
 4109SOL    HW114159   5.192   8.546  10.148
 4109SOL    HW214160   5.116   8.460  10.050
 4110SOL     OW14161   1.563   9.314   2.225
 4110SOL    HW114162   1.517   9.272   2.151
 4110SOL    HW214163   1.582   9.242   2.285
 4111SOL     OW14164  13.869   5.086  10.948
 4111SOL    HW114165  13.833   5.171  10.973
 4111SOL    HW214166  13.874   5.090  10.852
 4112SOL     OW14167   0.921   5.056   9.804
 4112SOL    HW114168   0.923   5.135   9.749
 4112SOL    HW214169   0.961   4.989   9.749
 4113SOL     OW14170  14.716  12.989   5.743
 4113SOL    HW114171  14.720  13.075   5.700
 4113SOL    HW214172  14.650  12.940   5.693
 4114SOL     OW14173   6.842  10.763   7.800
 4114SOL    HW114174   6.889  10.748   7.718
 4114SOL    HW214175   6.851  10.682   7.849
 4115SOL     OW14176  12.508  11.868   0.719
 4115SOL    HW114177  12.590  11.824   0.739
 4115SOL    HW214178  12.494  11.851   0.626
 4116SOL     OW14179   0.992  12.081   4.363
 4116SOL    HW114180   0.907  12.073   4.320
 4116SOL    HW214181   0.970  12.088   4.456
 4117SOL     OW14182   4.359   4.278   6.440
 4117SOL    HW114183   4.444   4.320   6.455
 4117SOL    HW214184   4.380   4.199   6.391
 4118SOL     OW14185  14.590   8.090   5.742
 4118SOL    HW114186  14.644   8.022   5.700
 4118SOL    HW214187  14.519   8.106   5.680
 4119SOL     OW14188   2.118   5.061   9.879
 4119SOL    HW114189   2.028   5.038   9.902
 4119SOL    HW214190   2.113   5.151   9.847
 4120SOL     OW14191   6.031   0.801  11.106
 4120SOL    HW114192   6.112   0.792  11.157
 4120SOL    HW214193   6.031   0.892  11.077
 4121SOL     OW14194   3.964   4.067   1.762
 4121SOL    HW114195   4.041   4.054   1.817
 4121SOL    HW214196   3.892   4.026   1.810
 4122SOL     OW14197   2.547   1.085  14.680
 4122SOL    HW114198   2.488   1.111  14.609
 4122SOL    HW214199   2.629   1.131  14.661
 4123SOL     OW14200   1.656   2.028   4.727
 4123SOL    HW114201   1.583   2.082   4.755
 4123SOL    HW214202   1.616   1.948   4.694
 4124SOL     OW14203   4.851   3.004  13.882
 4124SOL    HW114204   4.836   2.949  13.805
 4124SOL    HW214205   4.862   3.092  13.846
 4125SOL     OW14206   3.056  12.733  12.537
 4125SOL    HW114207   3.042  12.666  12.604
 4125SOL    HW214208   2.996  12.710  12.467
 4126SOL     OW14209  12.280   0.289   2.712
 4126SOL    HW114210  12.354   0.270   2.654
 4126SOL    HW214211  12.300   0.241   2.792
 4127SOL     OW14212   5.996  10.157   6.043
 4127SOL    HW114213   6.019  10.205   5.963
 4127SOL    HW214214   6.080  10.126   6.078
 4128SOL     OW14215   7.335  11.782  14.396
 4128SOL    HW114216   7.317  11.853  14.457
 4128SOL    HW214217   7.392  11.722  14.444
 4129SOL     OW14218   9.061   0.066  14.397
 4129SOL    HW114219   9.039   0.045  14.488
 4129SOL    HW214220   8.982   0.044  14.348
 4130SOL     OW14221   1.911  10.992   6.399
 4130SOL    HW114222   1.862  11.066   6.436
 4130SOL    HW214223   2.002  11.021   6.400
 4131SOL     OW14224  13.350   4.062   7.453
 4131SOL    HW114225  13.430   4.110   7.432
 4131SOL    HW214226  13.282   4.129   7.454
 4132SOL     OW14227   8.119   3.848  11.005
 4132SOL    HW114228   8.025   3.857  11.019
 4132SOL    HW214229   8.149   3.790  11.076
 4133SOL     OW14230  12.337  13.754   7.138
 4133SOL    HW114231  12.271  13.750   7.207
 4133SOL    HW214232  12.287  13.754   7.056
 4134SOL     OW14233   5.850   1.339   7.189
 4134SOL    HW114234   5.768   1.316   7.232
 4134SOL    HW214235   5.824   1.389   7.112
 4135SOL     OW14236   4.831   1.517  12.369
 4135SOL    HW114237   4.843   1.423  12.370
 4135SOL    HW214238   4.799   1.537  12.281
 4136SOL     OW14239   6.117   6.119   1.000
 4136SOL    HW114240   6.036   6.148   0.958
 4136SOL    HW214241   6.088   6.083   1.084
 4137SOL     OW14242   5.004   2.129   8.461
 4137SOL    HW114243   5.013   2.183   8.382
 4137SOL    HW214244   4.917   2.089   8.453
 4138SOL     OW14245   3.763   3.424   9.948
 4138SOL    HW114246   3.838   3.393   9.897
 4138SOL    HW214247   3.687   3.391   9.902
 4139SOL     OW14248   8.041  10.174   5.829
 4139SOL    HW114249   8.098  10.173   5.906
 4139SOL    HW214250   7.968  10.231   5.854
 4140SOL     OW14251   2.852   1.989   1.455
 4140SOL    HW114252   2.935   1.957   1.490
 4140SOL    HW214253   2.785   1.946   1.508
 4141SOL     OW14254  14.290   1.810  12.182
 4141SOL    HW114255  14.310   1.724  12.146
 4141SOL    HW214256  14.207   1.835  12.141
 4142SOL     OW14257   8.227   1.286   3.506
 4142SOL    HW114258   8.233   1.324   3.418
 4142SOL    HW214259   8.169   1.344   3.554
 4143SOL     OW14260   8.477   1.931  10.138
 4143SOL    HW114261   8.527   1.964  10.213
 4143SOL    HW214262   8.494   1.837  10.138
 4144SOL     OW14263  14.328   8.588   2.568
 4144SOL    HW114264  14.346   8.614   2.658
 4144SOL    HW214265  14.311   8.494   2.574
 4145SOL     OW14266  13.103  14.820  13.151
 4145SOL    HW114267  13.126   0.015  13.203
 4145SOL    HW214268  13.175  14.809  13.090
 4146SOL     OW14269   9.675   5.078   3.691
 4146SOL    HW114270   9.726   5.060   3.770
 4146SOL    HW214271   9.739   5.081   3.620
 4147SOL     OW14272   9.152   2.723   2.850
 4147SOL    HW114273   9.107   2.690   2.928
 4147SOL    HW214274   9.116   2.671   2.778
 4148SOL     OW14275   9.060   0.270   3.816
 4148SOL    HW114276   9.043   0.358   3.782
 4148SOL    HW214277   9.096   0.222   3.741
 4149SOL     OW14278   9.046  11.699   9.983
 4149SOL    HW114279   8.992  11.750   9.923
 4149SOL    HW214280   8.984  11.647  10.033
 4150SOL     OW14281   9.503   0.401  13.601
 4150SOL    HW114282   9.568   0.360  13.544
 4150SOL    HW214283   9.550   0.418  13.683
 4151SOL     OW14284   0.088   8.430   4.074
 4151SOL    HW114285   0.171   8.434   4.121
 4151SOL    HW214286   0.098   8.495   4.004
 4152SOL     OW14287  14.185   0.278   7.183
 4152SOL    HW114288  14.227   0.360   7.211
 4152SOL    HW214289  14.155   0.295   7.094
 4153SOL     OW14290   7.634   9.785   7.966
 4153SOL    HW114291   7.657   9.714   7.908
 4153SOL    HW214292   7.630   9.746   8.053
 4154SOL     OW14293   8.806   3.984  13.789
 4154SOL    HW114294   8.717   4.018  13.786
 4154SOL    HW214295   8.848   4.021  13.711
 4155SOL     OW14296   5.138   1.534   1.596
 4155SOL    HW114297   5.222   1.504   1.560
 4155SOL    HW214298   5.158   1.559   1.686
 4156SOL     OW14299  12.329   0.895   5.888
 4156SOL    HW114300  12.249   0.847   5.865
 4156SOL    HW214301  12.299   0.984   5.907
 4157SOL     OW14302   2.597   7.777   3.602
 4157SOL    HW114303   2.516   7.821   3.576
 4157SOL    HW214304   2.567   7.696   3.645
 4158SOL     OW14305   2.901   4.731   0.453
 4158SOL    HW114306   2.883   4.706   0.362
 4158SOL    HW214307   2.851   4.669   0.505
 4159SOL     OW14308  13.999   1.051   7.907
 4159SOL    HW114309  13.954   1.095   7.835
 4159SOL    HW214310  13.968   0.961   7.903
 4160SOL     OW14311   2.233  14.153   2.531
 4160SOL    HW114312   2.278  14.167   2.447
 4160SOL    HW214313   2.259  14.228   2.584
 4161SOL     OW14314   2.785   3.335   6.504
 4161SOL    HW114315   2.722   3.375   6.564
 4161SOL    HW214316   2.814   3.256   6.550
 4162SOL     OW14317   9.173   2.566   4.679
 4162SOL    HW114318   9.122   2.572   4.599
 4162SOL    HW214319   9.174   2.473   4.701
 4163SOL     OW14320  14.089   5.864   6.232
 4163SOL    HW114321  14.036   5.893   6.158
 4163SOL    HW214322  14.025   5.846   6.301
 4164SOL     OW14323   4.277   7.097   2.164
 4164SOL    HW114324   4.302   7.181   2.202
 4164SOL    HW214325   4.279   7.036   2.238
 4165SOL     OW14326  10.264  14.802   8.449
 4165SOL    HW114327  10.327  14.731   8.461
 4165SOL    HW214328  10.224  14.814   8.535
 4166SOL     OW14329  10.822   4.429   9.772
 4166SOL    HW114330  10.843   4.336   9.776
 4166SOL    HW214331  10.825   4.459   9.862
 4167SOL     OW14332   5.346   2.182   8.387
 4167SOL    HW114333   5.406   2.256   8.374
 4167SOL    HW214334   5.292   2.208   8.461
 4168SOL     OW14335  12.098   1.624  10.300
 4168SOL    HW114336  12.179   1.575  10.285
 4168SOL    HW214337  12.030   1.557  10.301
 4169SOL     OW14338  11.446   6.977   4.969
 4169SOL    HW114339  11.532   6.999   4.934
 4169SOL    HW214340  11.451   6.883   4.989
 4170SOL     OW14341   9.532   0.324  12.615
 4170SOL    HW114342   9.453   0.301  12.664
 4170SOL    HW214343   9.594   0.254  12.637
 4171SOL     OW14344   0.489   6.285   0.359
 4171SOL    HW114345   0.575   6.320   0.336
 4171SOL    HW214346   0.504   6.233   0.438
 4172SOL     OW14347   1.426  14.636  14.551
 4172SOL    HW114348   1.460  14.564  14.498
 4172SOL    HW214349   1.422  14.711  14.492
 4173SOL     OW14350   3.764  13.901  12.768
 4173SOL    HW114351   3.795  13.957  12.839
 4173SOL    HW214352   3.825  13.827  12.767
 4174SOL     OW14353   2.989  13.218   7.505
 4174SOL    HW114354   2.935  13.246   7.579
 4174SOL    HW214355   2.996  13.123   7.515
 4175SOL     OW14356   0.697  13.758  11.606
 4175SOL    HW114357   0.620  13.728  11.654
 4175SOL    HW214358   0.664  13.781  11.519
 4176SOL     OW14359   2.414   1.936   7.686
 4176SOL    HW114360   2.394   1.894   7.770
 4176SOL    HW214361   2.504   1.966   7.695
 4177SOL     OW14362   6.818  12.783  12.584
 4177SOL    HW114363   6.867  12.836  12.647
 4177SOL    HW214364   6.884  12.735  12.535
 4178SOL     OW14365  11.652   1.263   2.578
 4178SOL    HW114366  11.650   1.201   2.506
 4178SOL    HW214367  11.716   1.329   2.551
 4179SOL     OW14368  10.828   7.587   4.464
 4179SOL    HW114369  10.848   7.575   4.556
 4179SOL    HW214370  10.780   7.670   4.460
 4180SOL     OW14371   0.432   8.795  10.510
 4180SOL    HW114372   0.476   8.710  10.505
 4180SOL    HW214373   0.504   8.859  10.512
 4181SOL     OW14374   2.975  11.611   9.413
 4181SOL    HW114375   2.958  11.662   9.492
 4181SOL    HW214376   2.937  11.662   9.342
 4182SOL     OW14377   7.860   2.580   7.725
 4182SOL    HW114378   7.922   2.567   7.797
 4182SOL    HW214379   7.784   2.527   7.750
 4183SOL     OW14380   1.943   1.131   0.493
 4183SOL    HW114381   1.973   1.192   0.561
 4183SOL    HW214382   2.023   1.110   0.444
 4184SOL     OW14383   4.510   4.114   2.533
 4184SOL    HW114384   4.597   4.090   2.501
 4184SOL    HW214385   4.516   4.104   2.628
 4185SOL     OW14386   4.240   5.351   9.449
 4185SOL    HW114387   4.157   5.371   9.405
 4185SOL    HW214388   4.240   5.408   9.526
 4186SOL     OW14389  10.852   7.209  12.467
 4186SOL    HW114390  10.932   7.236  12.513
 4186SOL    HW214391  10.829   7.125  12.505
 4187SOL     OW14392   1.828   9.173   5.198
 4187SOL    HW114393   1.901   9.120   5.231
 4187SOL    HW214394   1.859   9.206   5.114
 4188SOL     OW14395  14.679  10.296   7.597
 4188SOL    HW114396  14.745  10.364   7.581
 4188SOL    HW214397  14.601  10.344   7.623
 4189SOL     OW14398  12.614   2.448  12.116
 4189SOL    HW114399  12.519   2.460  12.117
 4189SOL    HW214400  12.638   2.453  12.024
 4190SOL     OW14401   6.166   0.950   8.580
 4190SOL    HW114402   6.143   0.914   8.666
 4190SOL    HW214403   6.083   0.980   8.543
 4191SOL     OW14404   5.779   8.666  13.124
 4191SOL    HW114405   5.758   8.682  13.032
 4191SOL    HW214406   5.853   8.724  13.143
 4192SOL     OW14407  12.135   1.891   3.333
 4192SOL    HW114408  12.109   1.811   3.378
 4192SOL    HW214409  12.103   1.879   3.243
 4193SOL     OW14410  13.352   4.243  11.892
 4193SOL    HW114411  13.324   4.231  11.801
 4193SOL    HW214412  13.435   4.195  11.898
 4194SOL     OW14413  12.371   6.904   6.069
 4194SOL    HW114414  12.451   6.853   6.061
 4194SOL    HW214415  12.383   6.955   6.149
 4195SOL     OW14416   4.449   1.096   1.679
 4195SOL    HW114417   4.385   1.123   1.614
 4195SOL    HW214418   4.436   1.157   1.752
 4196SOL     OW14419   5.971   1.687   3.796
 4196SOL    HW114420   5.904   1.741   3.838
 4196SOL    HW214421   5.939   1.597   3.806
 4197SOL     OW14422   0.557  11.698   9.562
 4197SOL    HW114423   0.590  11.766   9.621
 4197SOL    HW214424   0.562  11.736   9.475
 4198SOL     OW14425   3.381   7.959   9.523
 4198SOL    HW114426   3.376   8.048   9.558
 4198SOL    HW214427   3.417   7.908   9.595
 4199SOL     OW14428   4.633   7.197   8.222
 4199SOL    HW114429   4.549   7.152   8.232
 4199SOL    HW214430   4.696   7.141   8.268
 4200SOL     OW14431   2.495  10.364  10.454
 4200SOL    HW114432   2.468  10.329  10.369
 4200SOL    HW214433   2.428  10.332  10.515
 4201SOL     OW14434   9.752   5.839  10.891
 4201SOL    HW114435   9.760   5.843  10.987
 4201SOL    HW214436   9.786   5.752  10.869
 4202SOL     OW14437   4.863   2.254  11.163
 4202SOL    HW114438   4.786   2.309  11.182
 4202SOL    HW214439   4.938   2.310  11.184
 4203SOL     OW14440  12.278   1.488  14.749
 4203SOL    HW114441  12.262   1.440  14.831
 4203SOL    HW214442  12.294   1.578  14.778
 4204SOL     OW14443   8.630  14.700   5.475
 4204SOL    HW114444   8.536  14.682   5.487
 4204SOL    HW214445   8.662  14.625   5.425
 4205SOL     OW14446  11.717   2.986   2.182
 4205SOL    HW114447  11.790   3.047   2.168
 4205SOL    HW214448  11.646   3.022   2.130
 4206SOL     OW14449   9.619  14.342   0.912
 4206SOL    HW114450   9.624  14.420   0.967
 4206SOL    HW214451   9.542  14.295   0.943
 4207SOL     OW14452   9.223   9.565   9.819
 4207SOL    HW114453   9.181   9.538   9.900
 4207SOL    HW214454   9.273   9.643   9.843
 4208SOL     OW14455  11.739  11.895  12.296
 4208SOL    HW114456  11.773  11.849  12.219
 4208SOL    HW214457  11.663  11.943  12.263
 4209SOL     OW14458   1.092   8.215   6.893
 4209SOL    HW114459   1.087   8.122   6.913
 4209SOL    HW214460   1.037   8.226   6.816
 4210SOL     OW14461  13.532  13.090   2.121
 4210SOL    HW114462  13.624  13.112   2.133
 4210SOL    HW214463  13.533  12.999   2.091
 4211SOL     OW14464   3.920   6.164   4.928
 4211SOL    HW114465   3.911   6.173   5.022
 4211SOL    HW214466   3.987   6.097   4.916
 4212SOL     OW14467  11.151  12.435   8.663
 4212SOL    HW114468  11.215  12.470   8.601
 4212SOL    HW214469  11.149  12.341   8.646
 4213SOL     OW14470   2.889  13.016   8.893
 4213SOL    HW114471   2.852  12.974   8.815
 4213SOL    HW214472   2.909  13.105   8.866
 4214SOL     OW14473   5.284  11.667  12.640
 4214SOL    HW114474   5.230  11.731  12.686
 4214SOL    HW214475   5.222  11.602  12.607
 4215SOL     OW14476   0.118   8.418  11.573
 4215SOL    HW114477   0.077   8.365  11.504
 4215SOL    HW214478   0.078   8.505  11.564
 4216SOL     OW14479  11.882   8.470   8.624
 4216SOL    HW114480  11.846   8.386   8.653
 4216SOL    HW214481  11.974   8.467   8.652
 4217SOL     OW14482   5.471   0.337   8.695
 4217SOL    HW114483   5.397   0.385   8.657
 4217SOL    HW214484   5.460   0.247   8.663
 4218SOL     OW14485  12.458   5.995   2.827
 4218SOL    HW114486  12.451   6.038   2.913
 4218SOL    HW214487  12.376   6.017   2.783
 4219SOL     OW14488   8.873   8.644   4.148
 4219SOL    HW114489   8.928   8.646   4.226
 4219SOL    HW214490   8.883   8.556   4.113
 4220SOL     OW14491   3.338   9.670   2.434
 4220SOL    HW114492   3.278   9.597   2.418
 4220SOL    HW214493   3.294   9.722   2.502
 4221SOL     OW14494   7.718   6.263  11.273
 4221SOL    HW114495   7.769   6.242  11.195
 4221SOL    HW214496   7.627   6.269  11.242
 4222SOL     OW14497   5.326  12.979   5.981
 4222SOL    HW114498   5.421  12.985   5.993
 4222SOL    HW214499   5.307  12.886   5.985
 4223SOL     OW14500  12.480   6.648  14.320
 4223SOL    HW114501  12.433   6.730  14.338
 4223SOL    HW214502  12.528   6.630  14.401
 4224SOL     OW14503  10.778  14.593  14.765
 4224SOL    HW114504  10.802  14.601  14.857
 4224SOL    HW214505  10.852  14.547  14.725
 4225SOL     OW14506   2.207  11.352  10.819
 4225SOL    HW114507   2.301  11.349  10.801
 4225SOL    HW214508   2.172  11.412  10.753
 4226SOL     OW14509   5.773   3.375   8.397
 4226SOL    HW114510   5.800   3.435   8.328
 4226SOL    HW214511   5.678   3.390   8.406
 4227SOL     OW14512   9.171   0.774   4.323
 4227SOL    HW114513   9.220   0.825   4.388
 4227SOL    HW214514   9.156   0.690   4.365
 4228SOL     OW14515   9.785   1.575   2.384
 4228SOL    HW114516   9.779   1.661   2.341
 4228SOL    HW214517   9.825   1.518   2.318
 4229SOL     OW14518   2.360   7.183  14.226
 4229SOL    HW114519   2.377   7.252  14.161
 4229SOL    HW214520   2.292   7.221  14.283
 4230SOL     OW14521  14.504  11.535   7.718
 4230SOL    HW114522  14.564  11.549   7.791
 4230SOL    HW214523  14.511  11.615   7.666
 4231SOL     OW14524   1.652   9.565   5.067
 4231SOL    HW114525   1.567   9.545   5.106
 4231SOL    HW214526   1.663   9.659   5.079
 4232SOL     OW14527   7.286  11.323  14.349
 4232SOL    HW114528   7.205  11.298  14.305
 4232SOL    HW214529   7.356  11.289  14.293
 4233SOL     OW14530   0.120  11.488   2.405
 4233SOL    HW114531   0.028  11.502   2.427
 4233SOL    HW214532   0.155  11.576   2.388
 4234SOL     OW14533   9.429   4.428   6.531
 4234SOL    HW114534   9.517   4.396   6.551
 4234SOL    HW214535   9.374   4.351   6.538
 4235SOL     OW14536  10.859  10.738   0.251
 4235SOL    HW114537  10.918  10.670   0.220
 4235SOL    HW214538  10.874  10.812   0.192
 4236SOL     OW14539   3.797   1.993  12.605
 4236SOL    HW114540   3.763   2.030  12.687
 4236SOL    HW214541   3.782   1.899  12.614
 4237SOL     OW14542   8.978   2.549   0.550
 4237SOL    HW114543   9.003   2.553   0.458
 4237SOL    HW214544   9.038   2.610   0.594
 4238SOL     OW14545   7.526   1.453   4.093
 4238SOL    HW114546   7.435   1.481   4.084
 4238SOL    HW214547   7.556   1.438   4.004
 4239SOL     OW14548   6.391   8.201  14.854
 4239SOL    HW114549   6.390   8.293  14.831
 4239SOL    HW214550   6.467   8.165  14.808
 4240SOL     OW14551   7.279   7.701   7.659
 4240SOL    HW114552   7.221   7.750   7.717
 4240SOL    HW214553   7.276   7.749   7.576
 4241SOL     OW14554   4.382   5.903   8.845
 4241SOL    HW114555   4.364   5.976   8.785
 4241SOL    HW214556   4.298   5.858   8.853
 4242SOL     OW14557   9.670   9.614   5.290
 4242SOL    HW114558   9.729   9.620   5.366
 4242SOL    HW214559   9.669   9.703   5.254
 4243SOL     OW14560   6.115  10.264   4.538
 4243SOL    HW114561   6.022  10.276   4.557
 4243SOL    HW214562   6.137  10.337   4.480
 4244SOL     OW14563   6.683   6.245  12.135
 4244SOL    HW114564   6.745   6.175  12.115
 4244SOL    HW214565   6.601   6.200  12.155
 4245SOL     OW14566  11.419   6.192   4.174
 4245SOL    HW114567  11.423   6.279   4.214
 4245SOL    HW214568  11.328   6.164   4.185
 4246SOL     OW14569   7.127   7.699  12.355
 4246SOL    HW114570   7.094   7.782  12.320
 4246SOL    HW214571   7.163   7.653  12.280
 4247SOL     OW14572   2.272   4.147   7.449
 4247SOL    HW114573   2.219   4.077   7.487
 4247SOL    HW214574   2.219   4.182   7.377
 4248SOL     OW14575  11.374  10.032   2.844
 4248SOL    HW114576  11.441  10.077   2.793
 4248SOL    HW214577  11.310  10.100   2.865
 4249SOL     OW14578  12.666  13.430   4.536
 4249SOL    HW114579  12.600  13.388   4.590
 4249SOL    HW214580  12.722  13.359   4.506
 4250SOL     OW14581  13.245  13.871  13.888
 4250SOL    HW114582  13.340  13.868  13.875
 4250SOL    HW214583  13.210  13.896  13.803
 4251SOL     OW14584  11.582  13.937   0.654
 4251SOL    HW114585  11.596  13.952   0.748
 4251SOL    HW214586  11.499  13.980   0.636
 4252SOL     OW14587  11.892   9.253  13.919
 4252SOL    HW114588  11.975   9.235  13.963
 4252SOL    HW214589  11.915   9.311  13.847
 4253SOL     OW14590   3.920   9.406   3.066
 4253SOL    HW114591   3.907   9.327   3.013
 4253SOL    HW214592   3.831   9.442   3.078
 4254SOL     OW14593  13.057  13.808  14.079
 4254SOL    HW114594  12.980  13.785  14.027
 4254SOL    HW214595  13.123  13.833  14.014
 4255SOL     OW14596   8.112   7.862  14.425
 4255SOL    HW114597   8.099   7.767  14.418
 4255SOL    HW214598   8.176   7.882  14.357
 4256SOL     OW14599   1.164   2.783   3.344
 4256SOL    HW114600   1.191   2.702   3.300
 4256SOL    HW214601   1.238   2.842   3.333
 4257SOL     OW14602   5.000  10.421   5.139
 4257SOL    HW114603   4.998  10.330   5.168
 4257SOL    HW214604   5.091  10.448   5.152
 4258SOL     OW14605  13.991   6.947  11.567
 4258SOL    HW114606  14.034   6.945  11.481
 4258SOL    HW214607  14.045   6.890  11.622
 4259SOL     OW14608   4.047  12.148  14.539
 4259SOL    HW114609   3.959  12.128  14.507
 4259SOL    HW214610   4.044  12.127  14.632
 4260SOL     OW14611   4.055   6.616   0.243
 4260SOL    HW114612   4.143   6.651   0.230
 4260SOL    HW214613   4.010   6.680   0.298
 4261SOL     OW14614   4.622  13.452  14.668
 4261SOL    HW114615   4.631  13.404  14.750
 4261SOL    HW214616   4.663  13.395  14.602
 4262SOL     OW14617  10.744   5.659   3.420
 4262SOL    HW114618  10.776   5.735   3.372
 4262SOL    HW214619  10.794   5.660   3.502
 4263SOL     OW14620  12.954   5.644  12.314
 4263SOL    HW114621  13.025   5.685  12.266
 4263SOL    HW214622  12.875   5.665  12.263
 4264SOL     OW14623   5.884   9.544  13.607
 4264SOL    HW114624   5.929   9.563  13.689
 4264SOL    HW214625   5.853   9.454  13.617
 4265SOL     OW14626   7.066  14.300  11.276
 4265SOL    HW114627   7.005  14.320  11.204
 4265SOL    HW214628   7.049  14.208  11.297
 4266SOL     OW14629  10.658   8.685  14.553
 4266SOL    HW114630  10.734   8.706  14.607
 4266SOL    HW214631  10.623   8.771  14.527
 4267SOL     OW14632   9.569  12.710   2.112
 4267SOL    HW114633   9.630  12.645   2.146
 4267SOL    HW214634   9.541  12.760   2.188
 4268SOL     OW14635   1.281  11.402  14.104
 4268SOL    HW114636   1.192  11.416  14.070
 4268SOL    HW214637   1.302  11.484  14.149
 4269SOL     OW14638   0.770   4.963   7.908
 4269SOL    HW114639   0.814   4.905   7.846
 4269SOL    HW214640   0.709   5.014   7.853
 4270SOL     OW14641   2.417   1.364   7.567
 4270SOL    HW114642   2.377   1.449   7.545
 4270SOL    HW214643   2.385   1.305   7.499
 4271SOL     OW14644   7.654  10.006   1.244
 4271SOL    HW114645   7.712  10.072   1.284
 4271SOL    HW214646   7.578  10.004   1.302
 4272SOL     OW14647   8.414  13.700   0.332
 4272SOL    HW114648   8.393  13.679   0.423
 4272SOL    HW214649   8.366  13.780   0.314
 4273SOL     OW14650  14.167   2.933   9.216
 4273SOL    HW114651  14.117   2.925   9.297
 4273SOL    HW214652  14.245   2.879   9.230
 4274SOL     OW14653   0.680  14.413  10.783
 4274SOL    HW114654   0.681  14.496  10.735
 4274SOL    HW214655   0.614  14.426  10.851
 4275SOL     OW14656   5.073   6.687   5.741
 4275SOL    HW114657   5.079   6.605   5.790
 4275SOL    HW214658   5.163   6.708   5.718
 4276SOL     OW14659  14.130  11.790  12.109
 4276SOL    HW114660  14.106  11.800  12.017
 4276SOL    HW214661  14.221  11.761  12.106
 4277SOL     OW14662   8.575   3.842   5.564
 4277SOL    HW114663   8.567   3.751   5.592
 4277SOL    HW214664   8.493   3.860   5.517
 4278SOL     OW14665  12.404  14.003  10.058
 4278SOL    HW114666  12.433  13.980  10.146
 4278SOL    HW214667  12.406  13.921  10.009
 4279SOL     OW14668   0.326   6.283  12.742
 4279SOL    HW114669   0.247   6.329  12.712
 4279SOL    HW214670   0.326   6.298  12.837
 4280SOL     OW14671   8.856   0.159   5.660
 4280SOL    HW114672   8.781   0.218   5.667
 4280SOL    HW214673   8.824   0.075   5.693
 4281SOL     OW14674   2.845   4.516  14.715
 4281SOL    HW114675   2.858   4.599  14.760
 4281SOL    HW214676   2.933   4.483  14.699
 4282SOL     OW14677   2.365  10.419  10.185
 4282SOL    HW114678   2.274  10.408  10.158
 4282SOL    HW214679   2.410  10.341  10.153
 4283SOL     OW14680  14.679   4.698   2.183
 4283SOL    HW114681  14.672   4.744   2.267
 4283SOL    HW214682  14.671   4.768   2.117
 4284SOL     OW14683  12.735   7.493  12.803
 4284SOL    HW114684  12.720   7.588  12.803
 4284SOL    HW214685  12.811   7.481  12.746
 4285SOL     OW14686   2.886  13.577   0.731
 4285SOL    HW114687   2.970  13.615   0.706
 4285SOL    HW214688   2.841  13.647   0.778
 4286SOL     OW14689   2.476  11.614  12.136
 4286SOL    HW114690   2.465  11.709  12.130
 4286SOL    HW214691   2.399  11.578  12.093
 4287SOL     OW14692   0.871   6.007   5.913
 4287SOL    HW114693   0.814   5.936   5.942
 4287SOL    HW214694   0.960   5.975   5.927
 4288SOL     OW14695   7.803  12.340   6.249
 4288SOL    HW114696   7.877  12.282   6.229
 4288SOL    HW214697   7.783  12.322   6.341
 4289SOL     OW14698   9.614  10.999   8.621
 4289SOL    HW114699   9.671  10.967   8.691
 4289SOL    HW214700   9.545  10.933   8.613
 4290SOL     OW14701   4.055  12.280   7.939
 4290SOL    HW114702   3.963  12.253   7.940
 4290SOL    HW214703   4.093  12.241   8.018
 4291SOL     OW14704  10.843   2.198   8.808
 4291SOL    HW114705  10.770   2.258   8.794
 4291SOL    HW214706  10.911   2.252   8.850
 4292SOL     OW14707   5.738   2.743   0.014
 4292SOL    HW114708   5.681   2.687  14.844
 4292SOL    HW214709   5.818   2.692   0.028
 4293SOL     OW14710   8.334   8.395   7.475
 4293SOL    HW114711   8.403   8.414   7.538
 4293SOL    HW214712   8.381   8.381   7.392
 4294SOL     OW14713   3.838  11.733  12.467
 4294SOL    HW114714   3.920  11.702  12.429
 4294SOL    HW214715   3.783  11.752  12.392
 4295SOL     OW14716   2.745   2.463  12.514
 4295SOL    HW114717   2.836   2.477  12.539
 4295SOL    HW214718   2.719   2.545  12.472
 4296SOL     OW14719   5.327   6.351   5.796
 4296SOL    HW114720   5.330   6.288   5.724
 4296SOL    HW214721   5.386   6.421   5.769
 4297SOL     OW14722   9.860   6.530   6.005
 4297SOL    HW114723   9.845   6.553   5.913
 4297SOL    HW214724   9.921   6.596   6.036
 4298SOL     OW14725   7.810   9.130  13.154
 4298SOL    HW114726   7.765   9.049  13.129
 4298SOL    HW214727   7.841   9.114  13.243
 4299SOL     OW14728   6.511   4.811  10.151
 4299SOL    HW114729   6.569   4.741  10.121
 4299SOL    HW214730   6.565   4.890  10.146
 4300SOL     OW14731   3.031   8.980  12.783
 4300SOL    HW114732   3.063   8.910  12.725
 4300SOL    HW214733   2.991   9.044  12.723
 4301SOL     OW14734  12.608  10.923   9.808
 4301SOL    HW114735  12.646  10.992   9.863
 4301SOL    HW214736  12.646  10.842   9.841
 4302SOL     OW14737  11.584  12.049  13.131
 4302SOL    HW114738  11.529  11.994  13.076
 4302SOL    HW214739  11.651  12.083  13.072
 4303SOL     OW14740   4.002   9.448   7.754
 4303SOL    HW114741   4.056   9.517   7.718
 4303SOL    HW214742   3.992   9.470   7.846
 4304SOL     OW14743   4.348   8.287   7.824
 4304SOL    HW114744   4.367   8.355   7.889
 4304SOL    HW214745   4.324   8.210   7.876
 4305SOL     OW14746   0.914  13.326   7.831
 4305SOL    HW114747   0.899  13.271   7.754
 4305SOL    HW214748   0.974  13.394   7.800
 4306SOL     OW14749  10.200   1.846  14.720
 4306SOL    HW114750  10.227   1.916  14.780
 4306SOL    HW214751  10.252   1.770  14.747
 4307SOL     OW14752  13.318   9.515   3.828
 4307SOL    HW114753  13.238   9.549   3.869
 4307SOL    HW214754  13.389   9.562   3.871
 4308SOL     OW14755   3.090   2.009  14.223
 4308SOL    HW114756   3.073   2.041  14.311
 4308SOL    HW214757   3.004   2.005  14.182
 4309SOL     OW14758  14.867   9.982   3.519
 4309SOL    HW114759  14.819  10.010   3.597
 4309SOL    HW214760  14.845  10.046   3.452
 4310SOL     OW14761  13.293  13.394   4.832
 4310SOL    HW114762  13.235  13.468   4.812
 4310SOL    HW214763  13.299  13.393   4.927
 4311SOL     OW14764   3.496  13.007   4.001
 4311SOL    HW114765   3.405  13.025   3.979
 4311SOL    HW214766   3.523  13.081   4.054
 4312SOL     OW14767   5.530   7.996   1.996
 4312SOL    HW114768   5.523   7.995   1.900
 4312SOL    HW214769   5.608   8.047   2.014
 4313SOL     OW14770   9.125   7.037   6.522
 4313SOL    HW114771   9.088   7.125   6.528
 4313SOL    HW214772   9.075   6.995   6.452
 4314SOL     OW14773  13.224   3.642   8.944
 4314SOL    HW114774  13.243   3.550   8.927
 4314SOL    HW214775  13.150   3.662   8.887
 4315SOL     OW14776   1.613   4.116  10.194
 4315SOL    HW114777   1.669   4.057  10.244
 4315SOL    HW214778   1.673   4.176  10.150
 4316SOL     OW14779  12.922  12.998  10.599
 4316SOL    HW114780  12.876  12.959  10.524
 4316SOL    HW214781  12.878  12.961  10.675
 4317SOL     OW14782   8.685   0.260   6.979
 4317SOL    HW114783   8.733   0.342   6.989
 4317SOL    HW214784   8.718   0.222   6.897
 4318SOL     OW14785   0.365   9.548   4.162
 4318SOL    HW114786   0.436   9.513   4.108
 4318SOL    HW214787   0.335   9.473   4.213
 4319SOL     OW14788   5.008   9.277  13.568
 4319SOL    HW114789   5.031   9.369  13.561
 4319SOL    HW214790   4.922   9.270  13.527
 4320SOL     OW14791  10.989  13.707   6.940
 4320SOL    HW114792  10.960  13.624   6.977
 4320SOL    HW214793  10.970  13.700   6.847
 4321SOL     OW14794  14.763   2.203   6.992
 4321SOL    HW114795  14.719   2.118   6.996
 4321SOL    HW214796  14.752   2.240   7.080
 4322SOL     OW14797   2.455  10.175   2.072
 4322SOL    HW114798   2.435  10.083   2.089
 4322SOL    HW214799   2.375  10.222   2.095
 4323SOL     OW14800  12.883   9.716  12.707
 4323SOL    HW114801  12.832   9.659  12.649
 4323SOL    HW214802  12.851   9.696  12.795
 4324SOL     OW14803   1.949   2.214   5.843
 4324SOL    HW114804   1.965   2.134   5.792
 4324SOL    HW214805   1.935   2.182   5.932
 4325SOL     OW14806   9.877   4.743  11.696
 4325SOL    HW114807   9.807   4.682  11.718
 4325SOL    HW214808   9.860   4.767  11.605
 4326SOL     OW14809   3.430  10.834   8.176
 4326SOL    HW114810   3.438  10.911   8.232
 4326SOL    HW214811   3.433  10.868   8.087
 4327SOL     OW14812   9.950  13.427   6.273
 4327SOL    HW114813   9.981  13.512   6.244
 4327SOL    HW214814   9.952  13.432   6.368
 4328SOL     OW14815   0.703  11.109  11.212
 4328SOL    HW114816   0.772  11.095  11.148
 4328SOL    HW214817   0.626  11.068  11.174
 4329SOL     OW14818   6.361  11.767   2.881
 4329SOL    HW114819   6.415  11.829   2.832
 4329SOL    HW214820   6.289  11.821   2.915
 4330SOL     OW14821   8.510   7.208   5.802
 4330SOL    HW114822   8.418   7.187   5.785
 4330SOL    HW214823   8.512   7.236   5.893
 4331SOL     OW14824   9.354   5.397  11.210
 4331SOL    HW114825   9.287   5.332  11.229
 4331SOL    HW214826   9.352   5.457  11.285
 4332SOL     OW14827  14.747   9.684   4.196
 4332SOL    HW114828  14.771   9.696   4.104
 4332SOL    HW214829  14.655   9.657   4.194
 4333SOL     OW14830   7.773   4.408   4.357
 4333SOL    HW114831   7.768   4.411   4.452
 4333SOL    HW214832   7.856   4.365   4.338
 4334SOL     OW14833   0.247  12.092   3.344
 4334SOL    HW114834   0.245  12.021   3.408
 4334SOL    HW214835   0.155  12.105   3.320
 4335SOL     OW14836   3.494  11.060  12.415
 4335SOL    HW114837   3.581  11.059  12.376
 4335SOL    HW214838   3.434  11.050  12.341
 4336SOL     OW14839  11.986  13.735  13.445
 4336SOL    HW114840  11.999  13.697  13.358
 4336SOL    HW214841  11.920  13.802  13.433
 4337SOL     OW14842  10.409   2.281  14.422
 4337SOL    HW114843  10.340   2.274  14.356
 4337SOL    HW214844  10.394   2.365  14.464
 4338SOL     OW14845   6.582   6.042   4.071
 4338SOL    HW114846   6.524   6.090   4.129
 4338SOL    HW214847   6.547   5.953   4.070
 4339SOL     OW14848   9.838   0.269   9.208
 4339SOL    HW114849   9.872   0.353   9.178
 4339SOL    HW214850   9.848   0.271   9.303
 4340SOL     OW14851  13.388   4.255   2.272
 4340SOL    HW114852  13.302   4.247   2.313
 4340SOL    HW214853  13.414   4.165   2.253
 4341SOL     OW14854   3.156  10.817   5.871
 4341SOL    HW114855   3.221  10.875   5.912
 4341SOL    HW214856   3.158  10.738   5.925
 4342SOL     OW14857   1.227   7.411  13.966
 4342SOL    HW114858   1.251   7.501  13.945
 4342SOL    HW214859   1.246   7.402  14.059
 4343SOL     OW14860   5.136  11.336  10.811
 4343SOL    HW114861   5.227  11.308  10.813
 4343SOL    HW214862   5.086  11.256  10.795
 4344SOL     OW14863  12.509   8.816   6.449
 4344SOL    HW114864  12.481   8.725   6.455
 4344SOL    HW214865  12.437   8.861   6.407
 4345SOL     OW14866   4.278   8.317   7.292
 4345SOL    HW114867   4.363   8.342   7.256
 4345SOL    HW214868   4.245   8.397   7.334
 4346SOL     OW14869   4.848  14.348  12.710
 4346SOL    HW114870   4.921  14.376  12.654
 4346SOL    HW214871   4.825  14.261  12.678
 4347SOL     OW14872  10.277   0.543   2.537
 4347SOL    HW114873  10.287   0.540   2.632
 4347SOL    HW214874  10.347   0.601   2.508
 4348SOL     OW14875  12.579   9.215  12.434
 4348SOL    HW114876  12.553   9.216  12.526
 4348SOL    HW214877  12.643   9.144  12.429
 4349SOL     OW14878   5.674   9.365   1.609
 4349SOL    HW114879   5.609   9.417   1.562
 4349SOL    HW214880   5.723   9.430   1.661
 4350SOL     OW14881  12.051   5.094   0.796
 4350SOL    HW114882  12.000   5.079   0.717
 4350SOL    HW214883  12.050   5.189   0.807
 4351SOL     OW14884   5.678   4.053   6.577
 4351SOL    HW114885   5.601   4.086   6.529
 4351SOL    HW214886   5.641   4.010   6.654
 4352SOL     OW14887   0.520   7.446   5.813
 4352SOL    HW114888   0.608   7.429   5.779
 4352SOL    HW214889   0.498   7.533   5.781
 4353SOL     OW14890   1.909  12.902   2.498
 4353SOL    HW114891   1.881  12.879   2.410
 4353SOL    HW214892   1.978  12.968   2.484
 4354SOL     OW14893  10.929   8.610   5.284
 4354SOL    HW114894  10.861   8.676   5.302
 4354SOL    HW214895  10.882   8.527   5.280
 4355SOL     OW14896  12.109  13.688   6.952
 4355SOL    HW114897  12.100  13.762   6.892
 4355SOL    HW214898  12.023  13.681   6.993
 4356SOL     OW14899   3.148  12.856   9.030
 4356SOL    HW114900   3.083  12.924   9.047
 4356SOL    HW214901   3.157  12.810   9.114
 4357SOL     OW14902   8.977  11.464   6.188
 4357SOL    HW114903   9.048  11.527   6.205
 4357SOL    HW214904   8.963  11.421   6.272
 4358SOL     OW14905   1.597  14.687  12.746
 4358SOL    HW114906   1.615  14.617  12.809
 4358SOL    HW214907   1.502  14.694  12.745
 4359SOL     OW14908  11.897  11.398   5.549
 4359SOL    HW114909  11.870  11.456   5.620
 4359SOL    HW214910  11.848  11.428   5.473
 4360SOL     OW14911   5.036  10.350  10.598
 4360SOL    HW114912   5.074  10.412  10.536
 4360SOL    HW214913   5.084  10.269  10.583
 4361SOL     OW14914  10.969   4.039   2.004
 4361SOL    HW114915  10.882   4.073   2.026
 4361SOL    HW214916  10.996   4.091   1.928
 4362SOL     OW14917   4.933   8.481  12.724
 4362SOL    HW114918   4.951   8.418  12.794
 4362SOL    HW214919   4.884   8.551  12.767
 4363SOL     OW14920   9.055   3.169   0.871
 4363SOL    HW114921   9.088   3.181   0.782
 4363SOL    HW214922   8.995   3.243   0.885
 4364SOL     OW14923  12.159   5.854   5.469
 4364SOL    HW114924  12.142   5.946   5.449
 4364SOL    HW214925  12.111   5.837   5.550
 4365SOL     OW14926  10.366  11.693   7.489
 4365SOL    HW114927  10.297  11.756   7.466
 4365SOL    HW214928  10.442  11.722   7.439
 4366SOL     OW14929   1.327  11.293  11.977
 4366SOL    HW114930   1.321  11.212  12.027
 4366SOL    HW214931   1.329  11.362  12.044
 4367SOL     OW14932  13.730   7.490  11.815
 4367SOL    HW114933  13.702   7.399  11.818
 4367SOL    HW214934  13.826   7.485  11.808
 4368SOL     OW14935   1.046   0.331   6.691
 4368SOL    HW114936   1.062   0.267   6.760
 4368SOL    HW214937   1.103   0.404   6.712
 4369SOL     OW14938   6.588   3.713  12.183
 4369SOL    HW114939   6.611   3.790  12.235
 4369SOL    HW214940   6.501   3.688  12.214
 4370SOL     OW14941  10.818   2.925   8.764
 4370SOL    HW114942  10.843   2.991   8.699
 4370SOL    HW214943  10.736   2.958   8.801
 4371SOL     OW14944   2.395   2.770   2.851
 4371SOL    HW114945   2.308   2.786   2.816
 4371SOL    HW214946   2.453   2.824   2.798
 4372SOL     OW14947   3.693   8.556   6.921
 4372SOL    HW114948   3.644   8.474   6.917
 4372SOL    HW214949   3.777   8.535   6.879
 4373SOL     OW14950   2.379  13.922   0.094
 4373SOL    HW114951   2.381  14.000   0.038
 4373SOL    HW214952   2.470  13.892   0.095
 4374SOL     OW14953   9.925   9.858  10.974
 4374SOL    HW114954   9.922   9.804  10.896
 4374SOL    HW214955  10.018   9.864  10.996
 4375SOL     OW14956   8.064   9.113  10.177
 4375SOL    HW114957   8.113   9.031  10.170
 4375SOL    HW214958   8.002   9.109  10.104
 4376SOL     OW14959   1.592   1.868   5.130
 4376SOL    HW114960   1.663   1.932   5.124
 4376SOL    HW214961   1.513   1.921   5.135
 4377SOL     OW14962  11.691   2.472   7.712
 4377SOL    HW114963  11.738   2.554   7.694
 4377SOL    HW214964  11.618   2.473   7.650
 4378SOL     OW14965   1.885  10.602  10.393
 4378SOL    HW114966   1.871  10.696  10.395
 4378SOL    HW214967   1.873  10.578  10.301
 4379SOL     OW14968  11.634   7.233  11.681
 4379SOL    HW114969  11.624   7.195  11.768
 4379SOL    HW214970  11.545   7.246  11.650
 4380SOL     OW14971  12.729   4.465   4.379
 4380SOL    HW114972  12.734   4.495   4.469
 4380SOL    HW214973  12.798   4.512   4.333
 4381SOL     OW14974  13.884   5.685  10.295
 4381SOL    HW114975  13.933   5.617  10.247
 4381SOL    HW214976  13.813   5.709  10.236
 4382SOL     OW14977   7.473   7.062  12.911
 4382SOL    HW114978   7.486   6.973  12.878
 4382SOL    HW214979   7.418   7.050  12.989
 4383SOL     OW14980  12.704   6.491  10.670
 4383SOL    HW114981  12.615   6.456  10.666
 4383SOL    HW214982  12.760   6.419  10.642
 4384SOL     OW14983   8.558   7.371  12.394
 4384SOL    HW114984   8.596   7.418  12.320
 4384SOL    HW214985   8.622   7.305  12.418
 4385SOL     OW14986  14.614  10.709   3.707
 4385SOL    HW114987  14.582  10.622   3.732
 4385SOL    HW214988  14.602  10.763   3.786
 4386SOL     OW14989  11.167  10.721  13.919
 4386SOL    HW114990  11.087  10.702  13.871
 4386SOL    HW214991  11.238  10.691  13.862
 4387SOL     OW14992   5.096   7.485   9.867
 4387SOL    HW114993   5.084   7.403   9.914
 4387SOL    HW214994   5.116   7.549   9.936
 4388SOL     OW14995   8.882   9.099  13.023
 4388SOL    HW114996   8.935   9.165  13.068
 4388SOL    HW214997   8.807   9.085  13.082
 4389SOL     OW14998   4.302   3.363   7.698
 4389SOL    HW114999   4.255   3.416   7.633
 4389SOL    HW215000   4.330   3.426   7.764
 4390SOL     OW15001  10.274   3.278   9.412
 4390SOL    HW115002  10.239   3.271   9.323
 4390SOL    HW215003  10.299   3.189   9.436
 4391SOL     OW15004   5.157   2.436   0.086
 4391SOL    HW115005   5.240   2.390   0.099
 4391SOL    HW215006   5.096   2.368   0.060
 4392SOL     OW15007   1.270  10.503   4.947
 4392SOL    HW115008   1.209  10.441   4.908
 4392SOL    HW215009   1.262  10.490   5.041
 4393SOL     OW15010  12.206   1.360  14.510
 4393SOL    HW115011  12.268   1.288  14.496
 4393SOL    HW215012  12.230   1.396  14.596
 4394SOL     OW15013  14.299  10.062   0.158
 4394SOL    HW115014  14.289   9.989   0.096
 4394SOL    HW215015  14.232  10.045   0.224
 4395SOL     OW15016   8.198   7.520  12.311
 4395SOL    HW115017   8.276   7.568  12.284
 4395SOL    HW215018   8.126   7.583  12.301
 4396SOL     OW15019  11.992  11.310   8.433
 4396SOL    HW115020  12.074  11.331   8.388
 4396SOL    HW215021  12.002  11.349   8.520
 4397SOL     OW15022  11.532   4.027  13.714
 4397SOL    HW115023  11.469   3.979  13.660
 4397SOL    HW215024  11.491   4.031  13.801
 4398SOL     OW15025   4.020   3.486   4.494
 4398SOL    HW115026   3.955   3.531   4.548
 4398SOL    HW215027   3.969   3.430   4.435
 4399SOL     OW15028   7.688   2.796   5.926
 4399SOL    HW115029   7.737   2.871   5.893
 4399SOL    HW215030   7.731   2.772   6.008
 4400SOL     OW15031   5.311  10.296  13.702
 4400SOL    HW115032   5.322  10.359  13.774
 4400SOL    HW215033   5.342  10.213  13.739
 4401SOL     OW15034   2.483  12.667  11.276
 4401SOL    HW115035   2.514  12.714  11.353
 4401SOL    HW215036   2.395  12.701  11.260
 4402SOL     OW15037   4.190   2.663   9.395
 4402SOL    HW115038   4.178   2.568   9.401
 4402SOL    HW215039   4.223   2.677   9.307
 4403SOL     OW15040   9.526  13.845  13.018
 4403SOL    HW115041   9.450  13.879  13.065
 4403SOL    HW215042   9.579  13.802  13.085
 4404SOL     OW15043   5.287  13.337  11.634
 4404SOL    HW115044   5.194  13.314  11.644
 4404SOL    HW215045   5.301  13.339  11.540
 4405SOL     OW15046  12.095  10.920   6.550
 4405SOL    HW115047  12.080  10.982   6.478
 4405SOL    HW215048  12.016  10.865   6.551
 4406SOL     OW15049   4.486   6.148  10.316
 4406SOL    HW115050   4.427   6.168  10.389
 4406SOL    HW215051   4.541   6.226  10.308
 4407SOL     OW15052  12.374   3.077  14.047
 4407SOL    HW115053  12.287   3.113  14.033
 4407SOL    HW215054  12.383   3.074  14.143
 4408SOL     OW15055   9.545   2.598  14.063
 4408SOL    HW115056   9.590   2.672  14.104
 4408SOL    HW215057   9.610   2.560  14.003
 4409SOL     OW15058   5.312   4.305  10.491
 4409SOL    HW115059   5.343   4.236  10.549
 4409SOL    HW215060   5.272   4.370  10.548
 4410SOL     OW15061   3.992   4.278   1.040
 4410SOL    HW115062   3.911   4.230   1.025
 4410SOL    HW215063   3.969   4.370   1.030
 4411SOL     OW15064   9.793   6.471   8.950
 4411SOL    HW115065   9.880   6.439   8.929
 4411SOL    HW215066   9.739   6.391   8.956
 4412SOL     OW15067   8.950   8.371  13.397
 4412SOL    HW115068   8.972   8.374  13.304
 4412SOL    HW215069   8.980   8.455  13.432
 4413SOL     OW15070  10.626   4.009   8.444
 4413SOL    HW115071  10.621   4.092   8.490
 4413SOL    HW215072  10.547   4.006   8.391
 4414SOL     OW15073  10.596   8.287   1.989
 4414SOL    HW115074  10.611   8.224   1.918
 4414SOL    HW215075  10.574   8.368   1.944
 4415SOL     OW15076   4.887   7.560   4.489
 4415SOL    HW115077   4.842   7.476   4.500
 4415SOL    HW215078   4.818   7.625   4.497
 4416SOL     OW15079   2.574   9.169   3.469
 4416SOL    HW115080   2.500   9.226   3.489
 4416SOL    HW215081   2.631   9.176   3.545
 4417SOL     OW15082   5.473   0.997   1.286
 4417SOL    HW115083   5.402   1.062   1.285
 4417SOL    HW215084   5.522   1.015   1.206
 4418SOL     OW15085  10.772   2.179   4.859
 4418SOL    HW115086  10.844   2.116   4.871
 4418SOL    HW215087  10.766   2.191   4.765
 4419SOL     OW15088   2.261  10.380   2.072
 4419SOL    HW115089   2.218  10.403   2.154
 4419SOL    HW215090   2.251  10.459   2.018
 4420SOL     OW15091   5.675  12.767   2.477
 4420SOL    HW115092   5.683  12.695   2.415
 4420SOL    HW215093   5.744  12.752   2.541
 4421SOL     OW15094  14.233  12.621   0.257
 4421SOL    HW115095  14.139  12.639   0.261
 4421SOL    HW215096  14.257  12.632   0.165
 4422SOL     OW15097  12.743   5.454   2.112
 4422SOL    HW115098  12.721   5.440   2.020
 4422SOL    HW215099  12.714   5.544   2.130
 4423SOL     OW15100   4.997  10.306   4.799
 4423SOL    HW115101   4.902  10.314   4.805
 4423SOL    HW215102   5.024  10.383   4.749
 4424SOL     OW15103  13.293   5.828   0.006
 4424SOL    HW115104  13.331   5.848  14.803
 4424SOL    HW215105  13.214   5.881   0.010
 4425SOL     OW15106   9.021   3.884  10.905
 4425SOL    HW115107   9.034   3.812  10.967
 4425SOL    HW215108   8.926   3.897  10.902
 4426SOL     OW15109  11.873   7.639  10.504
 4426SOL    HW115110  11.957   7.654  10.461
 4426SOL    HW215111  11.892   7.574  10.572
 4427SOL     OW15112   6.204  12.031   6.531
 4427SOL    HW115113   6.156  12.066   6.456
 4427SOL    HW215114   6.291  12.071   6.526
 4428SOL     OW15115   8.280   4.014   8.008
 4428SOL    HW115116   8.260   3.964   7.929
 4428SOL    HW215117   8.217   4.085   8.008
 4429SOL     OW15118   4.710   6.796   2.375
 4429SOL    HW115119   4.725   6.814   2.467
 4429SOL    HW215120   4.639   6.732   2.374
 4430SOL     OW15121  13.835  10.274   5.755
 4430SOL    HW115122  13.869  10.254   5.668
 4430SOL    HW215123  13.912  10.277   5.811
 4431SOL     OW15124   7.366  12.075   2.885
 4431SOL    HW115125   7.352  12.139   2.955
 4431SOL    HW215126   7.356  11.990   2.928
 4432SOL     OW15127   3.335   4.742   5.138
 4432SOL    HW115128   3.308   4.830   5.113
 4432SOL    HW215129   3.259   4.705   5.182
 4433SOL     OW15130   9.357   7.585  12.044
 4433SOL    HW115131   9.418   7.574  12.117
 4433SOL    HW215132   9.412   7.573  11.966
 4434SOL     OW15133   6.924   6.301   9.205
 4434SOL    HW115134   6.976   6.372   9.168
 4434SOL    HW215135   6.955   6.222   9.159
 4435SOL     OW15136  12.588   5.360   5.549
 4435SOL    HW115137  12.525   5.419   5.591
 4435SOL    HW215138  12.565   5.273   5.581
 4436SOL     OW15139   0.364   3.786   6.567
 4436SOL    HW115140   0.310   3.709   6.588
 4436SOL    HW215141   0.310   3.860   6.596
 4437SOL     OW15142  13.034   3.990   5.377
 4437SOL    HW115143  13.092   3.988   5.452
 4437SOL    HW215144  12.993   3.904   5.375
 4438SOL     OW15145   3.683  10.310   8.344
 4438SOL    HW115146   3.746  10.382   8.351
 4438SOL    HW215147   3.622  10.325   8.416
 4439SOL     OW15148   4.726   3.677  12.791
 4439SOL    HW115149   4.729   3.661  12.697
 4439SOL    HW215150   4.646   3.728  12.804
 4440SOL     OW15151  13.172   2.276   7.089
 4440SOL    HW115152  13.231   2.258   7.162
 4440SOL    HW215153  13.089   2.301   7.131
 4441SOL     OW15154  13.362  11.905   2.715
 4441SOL    HW115155  13.388  11.966   2.646
 4441SOL    HW215156  13.396  11.821   2.687
 4442SOL     OW15157   4.737   5.729   4.363
 4442SOL    HW115158   4.832   5.723   4.356
 4442SOL    HW215159   4.716   5.814   4.324
 4443SOL     OW15160   5.745  13.175   9.427
 4443SOL    HW115161   5.758  13.243   9.361
 4443SOL    HW215162   5.832  13.137   9.440
 4444SOL     OW15163   0.485   4.527  14.275
 4444SOL    HW115164   0.508   4.552  14.185
 4444SOL    HW215165   0.401   4.569  14.291
 4445SOL     OW15166   2.696   4.107  11.196
 4445SOL    HW115167   2.660   4.085  11.282
 4445SOL    HW215168   2.765   4.042  11.181
 4446SOL     OW15169   7.268   6.109  13.126
 4446SOL    HW115170   7.235   6.158  13.202
 4446SOL    HW215171   7.190   6.081  13.079
 4447SOL     OW15172   4.168  14.092   1.287
 4447SOL    HW115173   4.191  14.082   1.195
 4447SOL    HW215174   4.158  14.186   1.300
 4448SOL     OW15175   7.994   1.341  14.084
 4448SOL    HW115176   8.055   1.313  14.152
 4448SOL    HW215177   8.049   1.352  14.006
 4449SOL     OW15178   2.950   0.728  13.926
 4449SOL    HW115179   2.931   0.777  14.006
 4449SOL    HW215180   2.873   0.673  13.913
 4450SOL     OW15181  10.308   9.445   2.971
 4450SOL    HW115182  10.346   9.403   2.895
 4450SOL    HW215183  10.229   9.488   2.938
 4451SOL     OW15184   5.162   8.591   4.179
 4451SOL    HW115185   5.179   8.656   4.111
 4451SOL    HW215186   5.244   8.585   4.228
 4452SOL     OW15187   7.685   5.932   4.954
 4452SOL    HW115188   7.654   5.873   4.885
 4452SOL    HW215189   7.685   5.878   5.033
 4453SOL     OW15190   0.692   0.865   4.105
 4453SOL    HW115191   0.729   0.941   4.058
 4453SOL    HW215192   0.691   0.893   4.197
 4454SOL     OW15193   3.836   8.399   8.886
 4454SOL    HW115194   3.780   8.346   8.829
 4454SOL    HW215195   3.774   8.449   8.940
 4455SOL     OW15196  13.455   7.228  10.351
 4455SOL    HW115197  13.437   7.140  10.318
 4455SOL    HW215198  13.393   7.240  10.422
 4456SOL     OW15199  14.110   2.328   0.266
 4456SOL    HW115200  14.162   2.280   0.201
 4456SOL    HW215201  14.144   2.298   0.350
 4457SOL     OW15202  14.488   1.852   5.517
 4457SOL    HW115203  14.583   1.858   5.510
 4457SOL    HW215204  14.472   1.810   5.602
 4458SOL     OW15205   6.548   3.586   9.769
 4458SOL    HW115206   6.508   3.551   9.689
 4458SOL    HW215207   6.480   3.641   9.807
 4459SOL     OW15208   7.586   5.906  14.290
 4459SOL    HW115209   7.652   5.838  14.281
 4459SOL    HW215210   7.627   5.986  14.256
 4460SOL     OW15211  11.809   6.943   9.431
 4460SOL    HW115212  11.881   6.882   9.417
 4460SOL    HW215213  11.756   6.903   9.501
 4461SOL     OW15214   8.766  14.609  12.096
 4461SOL    HW115215   8.718  14.640  12.172
 4461SOL    HW215216   8.734  14.520  12.082
 4462SOL     OW15217   0.959   2.277  14.134
 4462SOL    HW115218   0.946   2.369  14.109
 4462SOL    HW215219   0.926   2.228  14.058
 4463SOL     OW15220   6.097  11.420   6.738
 4463SOL    HW115221   6.155  11.474   6.791
 4463SOL    HW215222   6.127  11.431   6.648
 4464SOL     OW15223   8.214   2.212   9.944
 4464SOL    HW115224   8.119   2.215   9.934
 4464SOL    HW215225   8.247   2.279   9.884
 4465SOL     OW15226   4.366   6.406  13.232
 4465SOL    HW115227   4.413   6.323  13.245
 4465SOL    HW215228   4.274   6.382  13.239
 4466SOL     OW15229   3.641  14.259  13.768
 4466SOL    HW115230   3.728  14.266  13.806
 4466SOL    HW215231   3.654  14.213  13.685
 4467SOL     OW15232   5.628   9.789   1.066
 4467SOL    HW115233   5.554   9.846   1.087
 4467SOL    HW215234   5.600   9.702   1.093
 4468SOL     OW15235  13.844   8.835   8.970
 4468SOL    HW115236  13.829   8.929   8.972
 4468SOL    HW215237  13.937   8.825   8.990
 4469SOL     OW15238  11.409   1.159  14.623
 4469SOL    HW115239  11.391   1.122  14.537
 4469SOL    HW215240  11.322   1.169  14.663
 4470SOL     OW15241   2.783   4.932  14.567
 4470SOL    HW115242   2.723   4.907  14.498
 4470SOL    HW215243   2.755   5.019  14.594
 4471SOL     OW15244   5.664   4.537  13.640
 4471SOL    HW115245   5.691   4.549  13.731
 4471SOL    HW215246   5.569   4.548  13.641
 4472SOL     OW15247   0.737  13.635   3.106
 4472SOL    HW115248   0.781  13.553   3.081
 4472SOL    HW215249   0.777  13.701   3.050
 4473SOL     OW15250   6.796   6.654  13.126
 4473SOL    HW115251   6.802   6.666  13.221
 4473SOL    HW215252   6.871   6.702  13.091
 4474SOL     OW15253   1.950   0.982  11.187
 4474SOL    HW115254   2.003   0.915  11.229
 4474SOL    HW215255   1.935   0.948  11.098
 4475SOL     OW15256   7.452  12.304  11.621
 4475SOL    HW115257   7.364  12.341  11.629
 4475SOL    HW215258   7.502  12.369  11.572
 4476SOL     OW15259  14.864  13.201   2.904
 4476SOL    HW115260   0.052  13.224   2.843
 4476SOL    HW215261   0.023  13.140   2.966
 4477SOL     OW15262  11.275  11.122  14.555
 4477SOL    HW115263  11.305  11.051  14.612
 4477SOL    HW215264  11.265  11.197  14.614
 4478SOL     OW15265   5.089  14.203  10.267
 4478SOL    HW115266   5.138  14.242  10.340
 4478SOL    HW215267   5.155  14.157  10.216
 4479SOL     OW15268   5.487   4.054   7.924
 4479SOL    HW115269   5.452   4.055   7.835
 4479SOL    HW215270   5.440   4.124   7.970
 4480SOL     OW15271   9.279   1.688   8.272
 4480SOL    HW115272   9.217   1.658   8.205
 4480SOL    HW215273   9.348   1.731   8.221
 4481SOL     OW15274   7.523   8.004   2.731
 4481SOL    HW115275   7.458   7.943   2.764
 4481SOL    HW215276   7.607   7.961   2.746
 4482SOL     OW15277   2.262   3.145   7.765
 4482SOL    HW115278   2.356   3.163   7.756
 4482SOL    HW215279   2.249   3.064   7.717
 4483SOL     OW15280   7.515   2.746   7.187
 4483SOL    HW115281   7.468   2.760   7.105
 4483SOL    HW215282   7.467   2.797   7.252
 4484SOL     OW15283  14.512  10.548   6.375
 4484SOL    HW115284  14.464  10.582   6.299
 4484SOL    HW215285  14.466  10.583   6.451
 4485SOL     OW15286   7.996   2.797   1.043
 4485SOL    HW115287   7.931   2.817   0.976
 4485SOL    HW215288   7.967   2.847   1.120
 4486SOL     OW15289   8.984  12.504   6.050
 4486SOL    HW115290   8.938  12.542   5.975
 4486SOL    HW215291   9.071  12.542   6.047
 4487SOL     OW15292  11.034   3.330   4.507
 4487SOL    HW115293  11.052   3.304   4.597
 4487SOL    HW215294  11.064   3.421   4.501
 4488SOL     OW15295  14.439  14.006   2.614
 4488SOL    HW115296  14.403  13.927   2.574
 4488SOL    HW215297  14.484  14.052   2.543
 4489SOL     OW15298   7.265  13.576   0.932
 4489SOL    HW115299   7.317  13.524   0.870
 4489SOL    HW215300   7.208  13.512   0.974
 4490SOL     OW15301   7.084  10.004   1.544
 4490SOL    HW115302   7.103  10.039   1.631
 4490SOL    HW215303   7.058  10.081   1.493
 4491SOL     OW15304   5.506   1.119   2.429
 4491SOL    HW115305   5.492   1.173   2.507
 4491SOL    HW215306   5.599   1.127   2.410
 4492SOL     OW15307  12.184   1.021  10.316
 4492SOL    HW115308  12.243   0.984  10.382
 4492SOL    HW215309  12.096   0.995  10.344
 4493SOL     OW15310   6.247   9.093   5.394
 4493SOL    HW115311   6.314   9.099   5.462
 4493SOL    HW215312   6.296   9.085   5.313
 4494SOL     OW15313   7.558   5.013   2.222
 4494SOL    HW115314   7.651   5.029   2.234
 4494SOL    HW215315   7.546   5.002   2.128
 4495SOL     OW15316  13.054   4.558  12.496
 4495SOL    HW115317  13.092   4.547  12.584
 4495SOL    HW215318  12.965   4.588  12.512
 4496SOL     OW15319   4.241  14.570   4.867
 4496SOL    HW115320   4.294  14.515   4.924
 4496SOL    HW215321   4.250  14.658   4.903
 4497SOL     OW15322   8.138   5.424   7.069
 4497SOL    HW115323   8.115   5.369   7.144
 4497SOL    HW215324   8.069   5.407   7.005
 4498SOL     OW15325  14.677   1.819  10.607
 4498SOL    HW115326  14.619   1.820  10.531
 4498SOL    HW215327  14.710   1.909  10.613
 4499SOL     OW15328   2.407  11.923  12.983
 4499SOL    HW115329   2.436  11.985  13.050
 4499SOL    HW215330   2.326  11.886  13.018
 4500SOL     OW15331   0.895   2.443  12.178
 4500SOL    HW115332   0.835   2.470  12.108
 4500SOL    HW215333   0.848   2.374  12.225
 4501SOL     OW15334   9.650   0.474  13.824
 4501SOL    HW115335   9.608   0.549  13.865
 4501SOL    HW215336   9.736   0.507  13.798
 4502SOL     OW15337   8.949   7.682   3.812
 4502SOL    HW115338   9.036   7.716   3.795
 4502SOL    HW215339   8.901   7.756   3.849
 4503SOL     OW15340  10.450  11.155   8.884
 4503SOL    HW115341  10.461  11.146   8.979
 4503SOL    HW215342  10.515  11.220   8.858
 4504SOL     OW15343   8.064   7.794  13.931
 4504SOL    HW115344   8.069   7.823  13.840
 4504SOL    HW215345   8.045   7.874  13.981
 4505SOL     OW15346   6.202   3.192  14.469
 4505SOL    HW115347   6.130   3.161  14.523
 4505SOL    HW215348   6.249   3.254  14.524
 4506SOL     OW15349  12.663   0.293   7.676
 4506SOL    HW115350  12.590   0.336   7.719
 4506SOL    HW215351  12.740   0.317   7.728
 4507SOL     OW15352   8.282   1.279  14.762
 4507SOL    HW115353   8.359   1.331  14.787
 4507SOL    HW215354   8.234   1.335  14.701
 4508SOL     OW15355   0.773   9.385   6.814
 4508SOL    HW115356   0.830   9.344   6.879
 4508SOL    HW215357   0.822   9.462   6.785
 4509SOL     OW15358   9.499   4.295  11.157
 4509SOL    HW115359   9.470   4.234  11.224
 4509SOL    HW215360   9.563   4.351  11.201
 4510SOL     OW15361  12.736   5.480   2.543
 4510SOL    HW115362  12.796   5.429   2.596
 4510SOL    HW215363  12.692   5.538   2.605
 4511SOL     OW15364  14.761   6.698   8.659
 4511SOL    HW115365  14.676   6.727   8.693
 4511SOL    HW215366  14.739   6.633   8.592
 4512SOL     OW15367  12.832   7.456   7.295
 4512SOL    HW115368  12.795   7.544   7.294
 4512SOL    HW215369  12.869   7.444   7.208
 4513SOL     OW15370   5.273   8.733   9.796
 4513SOL    HW115371   5.344   8.690   9.843
 4513SOL    HW215372   5.219   8.661   9.762
 4514SOL     OW15373   3.219   3.348   5.989
 4514SOL    HW115374   3.288   3.370   6.051
 4514SOL    HW215375   3.171   3.430   5.975
 4515SOL     OW15376   3.811  13.444   0.642
 4515SOL    HW115377   3.843  13.358   0.617
 4515SOL    HW215378   3.841  13.456   0.732
 4516SOL     OW15379   6.295  11.665  12.057
 4516SOL    HW115380   6.214  11.616  12.042
 4516SOL    HW215381   6.356  11.633  11.990
 4517SOL     OW15382   4.921   7.134  11.014
 4517SOL    HW115383   5.004   7.166  11.048
 4517SOL    HW215384   4.919   7.163  10.923
 4518SOL     OW15385   7.694   8.988  13.736
 4518SOL    HW115386   7.714   9.047  13.808
 4518SOL    HW215387   7.772   8.934  13.726
 4519SOL     OW15388   5.590  14.303   0.776
 4519SOL    HW115389   5.618  14.211   0.778
 4519SOL    HW215390   5.649  14.345   0.714
 4520SOL     OW15391   6.044  14.235   0.441
 4520SOL    HW115392   6.117  14.205   0.386
 4520SOL    HW215393   5.985  14.280   0.380
 4521SOL     OW15394  14.184   1.977   2.402
 4521SOL    HW115395  14.156   2.016   2.484
 4521SOL    HW215396  14.160   2.040   2.335
 4522SOL     OW15397  10.643   4.987  14.625
 4522SOL    HW115398  10.694   4.912  14.656
 4522SOL    HW215399  10.584   4.951  14.560
 4523SOL     OW15400   6.622   0.100   2.017
 4523SOL    HW115401   6.630   0.194   1.998
 4523SOL    HW215402   6.640   0.092   2.110
 4524SOL     OW15403   3.604   2.070   2.395
 4524SOL    HW115404   3.556   2.058   2.477
 4524SOL    HW215405   3.673   2.132   2.417
 4525SOL     OW15406   5.133   9.503   6.901
 4525SOL    HW115407   5.090   9.558   6.966
 4525SOL    HW215408   5.182   9.565   6.846
 4526SOL     OW15409   2.266  12.690   1.323
 4526SOL    HW115410   2.215  12.770   1.311
 4526SOL    HW215411   2.354  12.713   1.292
 4527SOL     OW15412   6.190  11.356   4.129
 4527SOL    HW115413   6.221  11.347   4.219
 4527SOL    HW215414   6.167  11.267   4.103
 4528SOL     OW15415   3.155   7.781   7.341
 4528SOL    HW115416   3.191   7.859   7.299
 4528SOL    HW215417   3.213   7.765   7.416
 4529SOL     OW15418   8.666  13.692  14.156
 4529SOL    HW115419   8.718  13.712  14.078
 4529SOL    HW215420   8.610  13.769  14.167
 4530SOL     OW15421  10.161  12.514  12.963
 4530SOL    HW115422  10.250  12.541  12.938
 4530SOL    HW215423  10.153  12.540  13.054
 4531SOL     OW15424   5.071   4.543   9.103
 4531SOL    HW115425   5.036   4.623   9.141
 4531SOL    HW215426   5.011   4.522   9.031
 4532SOL     OW15427   0.229   6.383  10.653
 4532SOL    HW115428   0.221   6.407  10.745
 4532SOL    HW215429   0.259   6.463  10.609
 4533SOL     OW15430   1.872  13.770   8.449
 4533SOL    HW115431   1.862  13.864   8.441
 4533SOL    HW215432   1.871  13.738   8.359
 4534SOL     OW15433   7.134   6.532   4.622
 4534SOL    HW115434   7.172   6.446   4.604
 4534SOL    HW215435   7.103   6.563   4.537
 4535SOL     OW15436   5.267   0.176   3.910
 4535SOL    HW115437   5.307   0.127   3.838
 4535SOL    HW215438   5.338   0.229   3.946
 4536SOL     OW15439   0.314   3.844   7.660
 4536SOL    HW115440   0.376   3.797   7.716
 4536SOL    HW215441   0.347   3.832   7.571
 4537SOL     OW15442   5.831  13.559  13.830
 4537SOL    HW115443   5.753  13.569  13.885
 4537SOL    HW215444   5.842  13.645  13.789
 4538SOL     OW15445   8.572  10.473  10.988
 4538SOL    HW115446   8.479  10.449  10.989
 4538SOL    HW215447   8.573  10.565  11.012
 4539SOL     OW15448   2.151   9.037  14.578
 4539SOL    HW115449   2.119   9.121  14.611
 4539SOL    HW215450   2.076   9.000  14.531
 4540SOL     OW15451   8.645   1.599   9.029
 4540SOL    HW115452   8.614   1.652   8.956
 4540SOL    HW215453   8.584   1.618   9.101
 4541SOL     OW15454   4.466  10.089   7.813
 4541SOL    HW115455   4.471  10.050   7.901
 4541SOL    HW215456   4.450  10.182   7.829
 4542SOL     OW15457   1.788   7.319   4.785
 4542SOL    HW115458   1.824   7.253   4.845
 4542SOL    HW215459   1.792   7.277   4.699
 4543SOL     OW15460  12.577  14.469   1.856
 4543SOL    HW115461  12.576  14.472   1.760
 4543SOL    HW215462  12.493  14.429   1.879
 4544SOL     OW15463  14.271   1.386  11.427
 4544SOL    HW115464  14.309   1.470  11.404
 4544SOL    HW215465  14.245   1.347  11.343
 4545SOL     OW15466  14.609   3.571   2.034
 4545SOL    HW115467  14.634   3.531   2.117
 4545SOL    HW215468  14.573   3.656   2.059
 4546SOL     OW15469   6.520  10.420   9.741
 4546SOL    HW115470   6.605  10.390   9.708
 4546SOL    HW215471   6.538  10.450   9.830
 4547SOL     OW15472   9.197  11.724  12.503
 4547SOL    HW115473   9.292  11.724  12.513
 4547SOL    HW215474   9.164  11.729  12.593
 4548SOL     OW15475   7.704  12.323   3.593
 4548SOL    HW115476   7.798  12.329   3.612
 4548SOL    HW215477   7.682  12.407   3.552
 4549SOL     OW15478   0.562   6.911   8.978
 4549SOL    HW115479   0.500   6.905   8.905
 4549SOL    HW215480   0.642   6.948   8.938
 4550SOL     OW15481   2.174  13.228   2.221
 4550SOL    HW115482   2.145  13.188   2.139
 4550SOL    HW215483   2.094  13.266   2.258
 4551SOL     OW15484   5.126   7.364   0.083
 4551SOL    HW115485   5.210   7.323   0.103
 4551SOL    HW215486   5.068   7.336   0.154
 4552SOL     OW15487   2.932  13.980   0.959
 4552SOL    HW115488   3.017  13.996   0.999
 4552SOL    HW215489   2.929  13.885   0.946
 4553SOL     OW15490   7.911  11.677   2.624
 4553SOL    HW115491   7.832  11.718   2.657
 4553SOL    HW215492   7.923  11.715   2.537
 4554SOL     OW15493  14.751   5.499   6.384
 4554SOL    HW115494  14.667   5.530   6.348
 4554SOL    HW215495  14.817   5.548   6.335
 4555SOL     OW15496   4.528   6.172  13.273
 4555SOL    HW115497   4.581   6.178  13.353
 4555SOL    HW215498   4.550   6.087  13.236
 4556SOL     OW15499  10.735   4.789   1.347
 4556SOL    HW115500  10.668   4.722   1.332
 4556SOL    HW215501  10.707   4.832   1.428
 4557SOL     OW15502  11.365  13.212   1.772
 4557SOL    HW115503  11.402  13.195   1.685
 4557SOL    HW215504  11.333  13.127   1.801
 4558SOL     OW15505  13.589  11.313   0.261
 4558SOL    HW115506  13.675  11.302   0.220
 4558SOL    HW215507  13.538  11.238   0.229
 4559SOL     OW15508  13.359   7.358  14.542
 4559SOL    HW115509  13.421   7.310  14.488
 4559SOL    HW215510  13.357   7.311  14.625
 4560SOL     OW15511   2.115  14.366  13.676
 4560SOL    HW115512   2.149  14.404  13.595
 4560SOL    HW215513   2.186  14.312  13.709
 4561SOL     OW15514   1.894   8.987   3.615
 4561SOL    HW115515   1.940   8.989   3.700
 4561SOL    HW215516   1.957   9.024   3.554
 4562SOL     OW15517   7.458  13.623  13.419
 4562SOL    HW115518   7.468  13.682  13.344
 4562SOL    HW215519   7.504  13.543  13.393
 4563SOL     OW15520  11.838  12.476   6.269
 4563SOL    HW115521  11.914  12.445   6.220
 4563SOL    HW215522  11.858  12.455   6.360
 4564SOL     OW15523  11.713  12.666   4.682
 4564SOL    HW115524  11.620  12.661   4.659
 4564SOL    HW215525  11.741  12.752   4.653
 4565SOL     OW15526   0.650  10.247   1.605
 4565SOL    HW115527   0.627  10.313   1.671
 4565SOL    HW215528   0.635  10.163   1.649
 4566SOL     OW15529  11.665  13.616   2.491
 4566SOL    HW115530  11.701  13.671   2.561
 4566SOL    HW215531  11.652  13.530   2.532
 4567SOL     OW15532   9.036   3.975   8.121
 4567SOL    HW115533   8.943   3.998   8.131
 4567SOL    HW215534   9.044   3.948   8.029
 4568SOL     OW15535   1.082   8.611   3.045
 4568SOL    HW115536   1.003   8.583   3.090
 4568SOL    HW215537   1.080   8.707   3.050
 4569SOL     OW15538   0.099   4.758  11.629
 4569SOL    HW115539   0.031   4.824  11.617
 4569SOL    HW215540   0.148   4.760  11.547
 4570SOL     OW15541  10.302   7.420  10.728
 4570SOL    HW115542  10.278   7.398  10.819
 4570SOL    HW215543  10.233   7.480  10.700
 4571SOL     OW15544  11.295  10.110   2.437
 4571SOL    HW115545  11.258  10.148   2.516
 4571SOL    HW215546  11.374  10.161   2.420
 4572SOL     OW15547   3.979   3.763   8.117
 4572SOL    HW115548   4.042   3.826   8.153
 4572SOL    HW215549   4.033   3.689   8.089
 4573SOL     OW15550  12.647  14.592   2.802
 4573SOL    HW115551  12.556  14.563   2.812
 4573SOL    HW215552  12.659  14.604   2.708
 4574SOL     OW15553   9.191  14.299  14.515
 4574SOL    HW115554   9.198  14.354  14.438
 4574SOL    HW215555   9.276  14.308  14.559
 4575SOL     OW15556   3.605   7.043   1.866
 4575SOL    HW115557   3.624   7.081   1.781
 4575SOL    HW215558   3.582   6.952   1.848
 4576SOL     OW15559   5.929  10.474   0.236
 4576SOL    HW115560   5.880  10.541   0.284
 4576SOL    HW215561   5.880  10.464   0.154
 4577SOL     OW15562  11.566   8.885  14.710
 4577SOL    HW115563  11.638   8.894  14.648
 4577SOL    HW215564  11.583   8.951  14.777
 4578SOL     OW15565   2.159  13.853   8.935
 4578SOL    HW115566   2.120  13.787   8.992
 4578SOL    HW215567   2.088  13.877   8.874
 4579SOL     OW15568   5.541  10.670   5.739
 4579SOL    HW115569   5.619  10.656   5.686
 4579SOL    HW215570   5.511  10.758   5.717
 4580SOL     OW15571   1.281   3.348   9.692
 4580SOL    HW115572   1.202   3.402   9.686
 4580SOL    HW215573   1.249   3.261   9.716
 4581SOL     OW15574   7.967   9.635   0.660
 4581SOL    HW115575   7.985   9.645   0.567
 4581SOL    HW215576   8.052   9.647   0.702
 4582SOL     OW15577   3.795   0.803   9.523
 4582SOL    HW115578   3.839   0.881   9.488
 4582SOL    HW215579   3.738   0.773   9.452
 4583SOL     OW15580   4.310   2.746   5.573
 4583SOL    HW115581   4.311   2.674   5.509
 4583SOL    HW215582   4.291   2.703   5.657
 4584SOL     OW15583   0.174  12.419  12.101
 4584SOL    HW115584   0.215  12.399  12.017
 4584SOL    HW215585   0.157  12.333  12.140
 4585SOL     OW15586   5.287   9.439  11.802
 4585SOL    HW115587   5.320   9.508  11.745
 4585SOL    HW215588   5.212   9.402  11.755
 4586SOL     OW15589  14.305   4.351  10.066
 4586SOL    HW115590  14.288   4.438  10.102
 4586SOL    HW215591  14.223   4.327  10.023
 4587SOL     OW15592  10.768   7.735   7.405
 4587SOL    HW115593  10.778   7.642   7.426
 4587SOL    HW215594  10.856   7.764   7.381
 4588SOL     OW15595   1.540   5.550   8.059
 4588SOL    HW115596   1.512   5.476   8.113
 4588SOL    HW215597   1.559   5.619   8.122
 4589SOL     OW15598   5.635   4.543   0.587
 4589SOL    HW115599   5.680   4.617   0.547
 4589SOL    HW215600   5.561   4.525   0.529
 4590SOL     OW15601   6.969  10.544  12.788
 4590SOL    HW115602   7.041  10.573  12.844
 4590SOL    HW215603   6.969  10.606  12.714
 4591SOL     OW15604   5.079   0.166   8.739
 4591SOL    HW115605   5.030   0.206   8.811
 4591SOL    HW215606   5.053   0.217   8.662
 4592SOL     OW15607   3.259   7.751   5.970
 4592SOL    HW115608   3.180   7.801   5.948
 4592SOL    HW215609   3.306   7.744   5.887
 4593SOL     OW15610   4.461   0.087   7.170
 4593SOL    HW115611   4.466  14.873   7.168
 4593SOL    HW215612   4.546   0.115   7.205
 4594SOL     OW15613   8.826   4.465   6.560
 4594SOL    HW115614   8.801   4.424   6.477
 4594SOL    HW215615   8.813   4.397   6.626
 4595SOL     OW15616   3.359  10.540   1.248
 4595SOL    HW115617   3.345  10.574   1.336
 4595SOL    HW215618   3.290  10.475   1.236
 4596SOL     OW15619   5.827  12.616   5.288
 4596SOL    HW115620   5.871  12.579   5.364
 4596SOL    HW215621   5.863  12.705   5.279
 4597SOL     OW15622   1.672   9.478   0.154
 4597SOL    HW115623   1.624   9.493   0.072
 4597SOL    HW215624   1.755   9.441   0.126
 4598SOL     OW15625   7.887   8.290  11.609
 4598SOL    HW115626   7.917   8.317  11.696
 4598SOL    HW215627   7.901   8.367  11.554
 4599SOL     OW15628   3.187  10.780  13.141
 4599SOL    HW115629   3.254  10.716  13.167
 4599SOL    HW215630   3.224  10.865  13.164
 4600SOL     OW15631   3.274   7.397  11.698
 4600SOL    HW115632   3.186   7.367  11.676
 4600SOL    HW215633   3.321   7.317  11.723
 4601SOL     OW15634  12.106   2.569   2.498
 4601SOL    HW115635  12.066   2.567   2.585
 4601SOL    HW215636  12.175   2.635   2.504
 4602SOL     OW15637   9.983  12.869   3.013
 4602SOL    HW115638   9.933  12.822   2.945
 4602SOL    HW215639  10.068  12.887   2.972
 4603SOL     OW15640   1.443   4.929   9.399
 4603SOL    HW115641   1.371   4.932   9.461
 4603SOL    HW215642   1.424   4.853   9.344
 4604SOL     OW15643   0.653   5.942  13.979
 4604SOL    HW115644   0.718   5.966  13.913
 4604SOL    HW215645   0.572   5.985  13.950
 4605SOL     OW15646  13.469   7.840   4.216
 4605SOL    HW115647  13.388   7.793   4.237
 4605SOL    HW215648  13.501   7.871   4.301
 4606SOL     OW15649   2.535   2.544  13.969
 4606SOL    HW115650   2.505   2.586  13.888
 4606SOL    HW215651   2.535   2.614  14.034
 4607SOL     OW15652   1.101   4.556   6.695
 4607SOL    HW115653   1.079   4.474   6.651
 4607SOL    HW215654   1.088   4.623   6.628
 4608SOL     OW15655  11.224   3.411  14.669
 4608SOL    HW115656  11.228   3.340  14.605
 4608SOL    HW215657  11.301   3.465  14.650
 4609SOL     OW15658   6.538   8.328  11.636
 4609SOL    HW115659   6.596   8.393  11.598
 4609SOL    HW215660   6.590   8.247  11.637
 4610SOL     OW15661  11.625  10.440   6.913
 4610SOL    HW115662  11.633  10.499   6.987
 4610SOL    HW215663  11.642  10.353   6.950
 4611SOL     OW15664   1.142   3.124  14.824
 4611SOL    HW115665   1.142   3.041  14.776
 4611SOL    HW215666   1.051   3.135  14.852
 4612SOL     OW15667  12.551   0.442   7.403
 4612SOL    HW115668  12.512   0.523   7.435
 4612SOL    HW215669  12.560   0.387   7.481
 4613SOL     OW15670   3.900   9.329   9.109
 4613SOL    HW115671   3.961   9.328   9.182
 4613SOL    HW215672   3.945   9.280   9.039
 4614SOL     OW15673   2.302   7.185   0.034
 4614SOL    HW115674   2.271   7.273   0.056
 4614SOL    HW215675   2.360   7.197  14.841
 4615SOL     OW15676   4.517   5.125  14.235
 4615SOL    HW115677   4.429   5.164  14.232
 4615SOL    HW215678   4.524   5.088  14.323
 4616SOL     OW15679   2.581  11.723   2.003
 4616SOL    HW115680   2.571  11.650   1.942
 4616SOL    HW215681   2.497  11.728   2.049
 4617SOL     OW15682   1.388   6.056   8.870
 4617SOL    HW115683   1.355   6.146   8.862
 4617SOL    HW215684   1.481   6.066   8.886
 4618SOL     OW15685   6.226  10.532  12.940
 4618SOL    HW115686   6.216  10.577  13.024
 4618SOL    HW215687   6.263  10.597  12.881
 4619SOL     OW15688   5.490  11.609   3.259
 4619SOL    HW115689   5.400  11.580   3.274
 4619SOL    HW215690   5.515  11.651   3.341
 4620SOL     OW15691   4.639   2.412   3.150
 4620SOL    HW115692   4.666   2.456   3.069
 4620SOL    HW215693   4.624   2.321   3.123
 4621SOL     OW15694   2.808  10.843  11.667
 4621SOL    HW115695   2.878  10.798  11.715
 4621SOL    HW215696   2.735  10.781  11.669
 4622SOL     OW15697  14.219  13.688  12.940
 4622SOL    HW115698  14.215  13.602  12.983
 4622SOL    HW215699  14.151  13.683  12.872
 4623SOL     OW15700   5.502   7.254   5.479
 4623SOL    HW115701   5.546   7.176   5.511
 4623SOL    HW215702   5.524   7.322   5.543
 4624SOL     OW15703   0.407   3.646  13.218
 4624SOL    HW115704   0.471   3.702  13.173
 4624SOL    HW215705   0.374   3.700  13.290
 4625SOL     OW15706  12.694  13.939  13.229
 4625SOL    HW115707  12.673  14.002  13.161
 4625SOL    HW215708  12.631  13.868  13.216
 4626SOL     OW15709  12.801   5.878  10.049
 4626SOL    HW115710  12.772   5.788  10.066
 4626SOL    HW215711  12.765   5.899   9.962
 4627SOL     OW15712   6.960  11.515   2.635
 4627SOL    HW115713   6.914  11.564   2.567
 4627SOL    HW215714   7.001  11.442   2.588
 4628SOL     OW15715  12.186  11.228   8.758
 4628SOL    HW115716  12.093  11.231   8.781
 4628SOL    HW215717  12.229  11.200   8.838
 4629SOL     OW15718  13.745   8.217  13.863
 4629SOL    HW115719  13.764   8.183  13.776
 4629SOL    HW215720  13.778   8.307  13.861
 4630SOL     OW15721  10.793  10.656   1.581
 4630SOL    HW115722  10.820  10.671   1.490
 4630SOL    HW215723  10.779  10.744   1.616
 4631SOL     OW15724  10.825   2.207   1.373
 4631SOL    HW115725  10.811   2.291   1.329
 4631SOL    HW215726  10.839   2.145   1.301
 4632SOL     OW15727   0.661   5.652   6.488
 4632SOL    HW115728   0.707   5.571   6.464
 4632SOL    HW215729   0.578   5.647   6.441
 4633SOL     OW15730   9.125   7.048   3.064
 4633SOL    HW115731   9.077   7.086   2.990
 4633SOL    HW215732   9.168   6.971   3.028
 4634SOL     OW15733   3.445   9.520   6.082
 4634SOL    HW115734   3.437   9.611   6.113
 4634SOL    HW215735   3.410   9.467   6.154
 4635SOL     OW15736   2.928   7.847   3.412
 4635SOL    HW115737   2.920   7.785   3.484
 4635SOL    HW215738   2.905   7.796   3.334
 4636SOL     OW15739   8.344   7.410  14.768
 4636SOL    HW115740   8.384   7.410  14.855
 4636SOL    HW215741   8.410   7.369  14.711
 4637SOL     OW15742  14.604   2.945   8.887
 4637SOL    HW115743  14.526   2.939   8.832
 4637SOL    HW215744  14.629   3.037   8.882
 4638SOL     OW15745   5.481   8.723   0.771
 4638SOL    HW115746   5.428   8.772   0.708
 4638SOL    HW215747   5.508   8.788   0.836
 4639SOL     OW15748   4.991   4.054  12.650
 4639SOL    HW115749   4.910   4.076  12.696
 4639SOL    HW215750   4.981   4.094  12.563
 4640SOL     OW15751   7.589   4.526   1.523
 4640SOL    HW115752   7.538   4.452   1.490
 4640SOL    HW215753   7.670   4.523   1.471
 4641SOL     OW15754  10.456   0.112   2.810
 4641SOL    HW115755  10.456   0.029   2.856
 4641SOL    HW215756  10.365   0.125   2.782
 4642SOL     OW15757   4.164  13.734   4.470
 4642SOL    HW115758   4.085  13.696   4.431
 4642SOL    HW215759   4.142  13.745   4.563
 4643SOL     OW15760   6.087   3.055   2.415
 4643SOL    HW115761   6.097   2.967   2.380
 4643SOL    HW215762   6.074   3.043   2.509
 4644SOL     OW15763   1.673   2.289   8.494
 4644SOL    HW115764   1.694   2.382   8.489
 4644SOL    HW215765   1.636   2.268   8.408
 4645SOL     OW15766   4.938   5.910   3.069
 4645SOL    HW115767   4.951   6.001   3.040
 4645SOL    HW215768   4.968   5.910   3.161
 4646SOL     OW15769  12.933  12.264  13.750
 4646SOL    HW115770  12.869  12.236  13.815
 4646SOL    HW215771  13.018  12.245  13.791
 4647SOL     OW15772   8.547   4.937   7.132
 4647SOL    HW115773   8.507   4.912   7.216
 4647SOL    HW215774   8.563   5.031   7.140
 4648SOL     OW15775   5.590   6.138   8.518
 4648SOL    HW115776   5.610   6.139   8.611
 4648SOL    HW215777   5.520   6.202   8.508
 4649SOL     OW15778   1.787   3.815  13.270
 4649SOL    HW115779   1.812   3.733  13.227
 4649SOL    HW215780   1.870   3.858  13.288
 4650SOL     OW15781   9.454   0.025   6.795
 4650SOL    HW115782   9.504  14.854   6.857
 4650SOL    HW215783   9.502   0.107   6.789
 4651SOL     OW15784   3.765   0.878   0.478
 4651SOL    HW115785   3.838   0.898   0.537
 4651SOL    HW215786   3.800   0.894   0.391
 4652SOL     OW15787  10.733   5.613  12.765
 4652SOL    HW115788  10.779   5.559  12.829
 4652SOL    HW215789  10.785   5.606  12.686
 4653SOL     OW15790   0.570   2.711   3.916
 4653SOL    HW115791   0.647   2.751   3.955
 4653SOL    HW215792   0.579   2.729   3.822
 4654SOL     OW15793   2.541   3.446   6.316
 4654SOL    HW115794   2.528   3.523   6.372
 4654SOL    HW215795   2.623   3.407   6.346
 4655SOL     OW15796  14.592   1.356   9.062
 4655SOL    HW115797  14.616   1.445   9.035
 4655SOL    HW215798  14.644   1.299   9.006
 4656SOL     OW15799   1.245   4.571  10.696
 4656SOL    HW115800   1.303   4.575  10.772
 4656SOL    HW215801   1.157   4.577  10.732
 4657SOL     OW15802   5.767   3.917   6.847
 4657SOL    HW115803   5.713   3.925   6.926
 4657SOL    HW215804   5.854   3.896   6.879
 4658SOL     OW15805  11.631   0.525   9.218
 4658SOL    HW115806  11.580   0.605   9.206
 4658SOL    HW215807  11.684   0.518   9.139
 4659SOL     OW15808  10.471   3.809  13.581
 4659SOL    HW115809  10.396   3.760  13.614
 4659SOL    HW215810  10.433   3.884  13.536
 4660SOL     OW15811   1.852   3.437   6.787
 4660SOL    HW115812   1.878   3.380   6.860
 4660SOL    HW215813   1.901   3.518   6.802
 4661SOL     OW15814   5.622   9.971   6.360
 4661SOL    HW115815   5.559  10.032   6.322
 4661SOL    HW215816   5.570   9.897   6.389
 4662SOL     OW15817   5.970   7.928  13.133
 4662SOL    HW115818   5.988   7.855  13.191
 4662SOL    HW215819   6.055   7.955  13.100
 4663SOL     OW15820   2.443  14.582  11.828
 4663SOL    HW115821   2.366  14.539  11.866
 4663SOL    HW215822   2.516  14.549  11.881
 4664SOL     OW15823   3.876  10.839  13.476
 4664SOL    HW115824   3.960  10.793  13.486
 4664SOL    HW215825   3.816  10.792  13.534
 4665SOL     OW15826  12.809  12.612  12.618
 4665SOL    HW115827  12.745  12.561  12.667
 4665SOL    HW215828  12.878  12.550  12.595
 4666SOL     OW15829   7.019   3.184   4.965
 4666SOL    HW115830   7.094   3.188   5.024
 4666SOL    HW215831   7.057   3.183   4.878
 4667SOL     OW15832   7.602   8.722   5.639
 4667SOL    HW115833   7.632   8.639   5.675
 4667SOL    HW215834   7.508   8.723   5.657
 4668SOL     OW15835   2.591   5.302  10.023
 4668SOL    HW115836   2.595   5.228   9.962
 4668SOL    HW215837   2.662   5.286  10.085
 4669SOL     OW15838   2.950   6.744   1.769
 4669SOL    HW115839   2.970   6.830   1.808
 4669SOL    HW215840   2.981   6.681   1.833
 4670SOL     OW15841   3.340   2.991   2.961
 4670SOL    HW115842   3.384   2.907   2.948
 4670SOL    HW215843   3.404   3.056   2.935
 4671SOL     OW15844   5.859   6.971   4.008
 4671SOL    HW115845   5.818   7.057   4.015
 4671SOL    HW215846   5.809   6.926   3.939
 4672SOL     OW15847   9.207  11.396   8.281
 4672SOL    HW115848   9.199  11.355   8.195
 4672SOL    HW215849   9.127  11.372   8.327
 4673SOL     OW15850  13.497  12.280   2.336
 4673SOL    HW115851  13.542  12.352   2.291
 4673SOL    HW215852  13.415  12.269   2.287
 4674SOL     OW15853   2.953   2.524  12.677
 4674SOL    HW115854   3.003   2.587  12.727
 4674SOL    HW215855   2.862   2.539  12.702
 4675SOL     OW15856  12.551   1.498   6.036
 4675SOL    HW115857  12.557   1.413   6.081
 4675SOL    HW215858  12.593   1.560   6.095
 4676SOL     OW15859   2.572  14.601   6.658
 4676SOL    HW115860   2.663  14.606   6.688
 4676SOL    HW215861   2.531  14.539   6.719
 4677SOL     OW15862   9.295   6.980   1.763
 4677SOL    HW115863   9.222   7.007   1.818
 4677SOL    HW215864   9.296   6.884   1.769
 4678SOL     OW15865   9.205   9.318   7.353
 4678SOL    HW115866   9.197   9.335   7.259
 4678SOL    HW215867   9.244   9.231   7.358
 4679SOL     OW15868   9.161   5.185  13.656
 4679SOL    HW115869   9.185   5.093  13.655
 4679SOL    HW215870   9.216   5.224  13.723
 4680SOL     OW15871   5.385   5.818   5.980
 4680SOL    HW115872   5.448   5.759   6.021
 4680SOL    HW215873   5.350   5.869   6.053
 4681SOL     OW15874   8.431   6.160   5.454
 4681SOL    HW115875   8.360   6.119   5.405
 4681SOL    HW215876   8.419   6.129   5.544
 4682SOL     OW15877   3.829   3.883   0.104
 4682SOL    HW115878   3.760   3.892   0.170
 4682SOL    HW215879   3.857   3.792   0.110
 4683SOL     OW15880   2.644   1.114   0.460
 4683SOL    HW115881   2.681   1.026   0.465
 4683SOL    HW215882   2.703   1.162   0.402
 4684SOL     OW15883  12.785   9.118  10.002
 4684SOL    HW115884  12.868   9.083   9.968
 4684SOL    HW215885  12.810   9.198  10.047
 4685SOL     OW15886  10.629   9.797   0.360
 4685SOL    HW115887  10.661   9.876   0.317
 4685SOL    HW215888  10.654   9.808   0.452
 4686SOL     OW15889  10.128  12.325   9.829
 4686SOL    HW115890  10.100  12.306   9.739
 4686SOL    HW215891  10.214  12.281   9.836
 4687SOL     OW15892   9.592   3.411   6.910
 4687SOL    HW115893   9.639   3.328   6.914
 4687SOL    HW215894   9.504   3.390   6.942
 4688SOL     OW15895   2.186  13.671  14.027
 4688SOL    HW115896   2.217  13.602  14.086
 4688SOL    HW215897   2.252  13.740  14.033
 4689SOL     OW15898  14.052   3.721   3.660
 4689SOL    HW115899  14.086   3.787   3.721
 4689SOL    HW215900  14.078   3.637   3.698
 4690SOL     OW15901   2.517   2.217   9.396
 4690SOL    HW115902   2.595   2.210   9.341
 4690SOL    HW215903   2.461   2.280   9.350
 4691SOL     OW15904   9.451   9.500   8.972
 4691SOL    HW115905   9.431   9.432   8.907
 4691SOL    HW215906   9.473   9.451   9.051
 4692SOL     OW15907   6.910   8.785   7.335
 4692SOL    HW115908   6.906   8.822   7.247
 4692SOL    HW215909   6.963   8.848   7.384
 4693SOL     OW15910   7.480   5.422   5.860
 4693SOL    HW115911   7.554   5.394   5.914
 4693SOL    HW215912   7.417   5.458   5.922
 4694SOL     OW15913   9.211   2.949  12.976
 4694SOL    HW115914   9.149   2.991  12.917
 4694SOL    HW215915   9.296   2.983  12.948
 4695SOL     OW15916   8.027   2.664  11.534
 4695SOL    HW115917   8.100   2.721  11.513
 4695SOL    HW215918   7.970   2.668  11.457
 4696SOL     OW15919  11.961   2.870  12.685
 4696SOL    HW115920  11.888   2.816  12.714
 4696SOL    HW215921  12.035   2.842  12.739
 4697SOL     OW15922   7.645   2.185  11.013
 4697SOL    HW115923   7.589   2.168  10.938
 4697SOL    HW215924   7.690   2.102  11.029
 4698SOL     OW15925   6.259  12.949   0.012
 4698SOL    HW115926   6.251  12.857   0.039
 4698SOL    HW215927   6.213  12.954  14.811
 4699SOL     OW15928  10.791  11.316   5.353
 4699SOL    HW115929  10.804  11.229   5.390
 4699SOL    HW215930  10.708  11.310   5.305
 4700SOL     OW15931  14.342   2.529   1.411
 4700SOL    HW115932  14.337   2.579   1.493
 4700SOL    HW215933  14.425   2.554   1.372
 4701SOL     OW15934   1.751   0.663   1.776
 4701SOL    HW115935   1.798   0.736   1.817
 4701SOL    HW215936   1.766   0.674   1.682
 4702SOL     OW15937  14.078   9.593  12.100
 4702SOL    HW115938  14.084   9.600  12.004
 4702SOL    HW215939  14.041   9.507  12.115
 4703SOL     OW15940   3.280   9.289  11.325
 4703SOL    HW115941   3.274   9.338  11.407
 4703SOL    HW215942   3.197   9.306  11.281
 4704SOL     OW15943   9.118   4.977   9.093
 4704SOL    HW115944   9.057   5.021   9.035
 4704SOL    HW215945   9.147   4.900   9.044
 4705SOL     OW15946   0.171   0.432   4.001
 4705SOL    HW115947   0.162   0.481   3.919
 4705SOL    HW215948   0.085   0.394   4.015
 4706SOL     OW15949   5.730  11.671  11.499
 4706SOL    HW115950   5.676  11.649  11.423
 4706SOL    HW215951   5.755  11.763  11.485
 4707SOL     OW15952   7.421   9.520   4.676
 4707SOL    HW115953   7.397   9.569   4.755
 4707SOL    HW215954   7.433   9.430   4.707
 4708SOL     OW15955   1.311   7.811  13.090
 4708SOL    HW115956   1.280   7.743  13.030
 4708SOL    HW215957   1.394   7.842  13.051
 4709SOL     OW15958   2.815  10.347   4.612
 4709SOL    HW115959   2.829  10.332   4.519
 4709SOL    HW215960   2.868  10.425   4.632
 4710SOL     OW15961   7.482   3.628   8.765
 4710SOL    HW115962   7.480   3.592   8.854
 4710SOL    HW215963   7.393   3.660   8.750
 4711SOL     OW15964   2.223  11.435   5.592
 4711SOL    HW115965   2.144  11.485   5.613
 4711SOL    HW215966   2.190  11.357   5.548
 4712SOL     OW15967  14.240  13.728   1.396
 4712SOL    HW115968  14.178  13.741   1.324
 4712SOL    HW215969  14.311  13.678   1.357
 4713SOL     OW15970   3.231   3.422  11.299
 4713SOL    HW115971   3.277   3.339  11.302
 4713SOL    HW215972   3.139   3.399  11.291
 4714SOL     OW15973   6.117   8.071   5.301
 4714SOL    HW115974   6.149   8.161   5.311
 4714SOL    HW215975   6.150   8.025   5.378
 4715SOL     OW15976   2.616   3.275   1.783
 4715SOL    HW115977   2.630   3.269   1.689
 4715SOL    HW215978   2.693   3.319   1.817
 4716SOL     OW15979  11.753   7.396   0.769
 4716SOL    HW115980  11.847   7.401   0.755
 4716SOL    HW215981  11.742   7.334   0.841
 4717SOL     OW15982   6.652   7.788  14.780
 4717SOL    HW115983   6.600   7.766  14.857
 4717SOL    HW215984   6.743   7.781  14.809
 4718SOL     OW15985   4.167  12.760   6.320
 4718SOL    HW115986   4.191  12.683   6.268
 4718SOL    HW215987   4.114  12.725   6.391
 4719SOL     OW15988   0.732   4.972  11.906
 4719SOL    HW115989   0.826   4.985  11.913
 4719SOL    HW215990   0.715   4.889  11.950
 4720SOL     OW15991   7.396   4.071  13.524
 4720SOL    HW115992   7.432   4.108  13.443
 4720SOL    HW215993   7.392   4.145  13.585
 4721SOL     OW15994   4.763   5.696   8.059
 4721SOL    HW115995   4.830   5.676   8.123
 4721SOL    HW215996   4.710   5.764   8.101
 4722SOL     OW15997  12.854  14.186   3.725
 4722SOL    HW115998  12.780  14.165   3.782
 4722SOL    HW215999  12.860  14.112   3.665
 4723SOL     OW16000  13.724   0.721   0.757
 4723SOL    HW116001  13.641   0.679   0.736
 4723SOL    HW216002  13.732   0.792   0.693
 4724SOL     OW16003   9.922   5.115  11.096
 4724SOL    HW116004   9.852   5.058  11.127
 4724SOL    HW216005   9.976   5.132  11.173
 4725SOL     OW16006   5.497   3.982   6.778
 4725SOL    HW116007   5.523   4.048   6.843
 4725SOL    HW216008   5.518   3.898   6.820
 4726SOL     OW16009  13.968   3.716   4.983
 4726SOL    HW116010  13.976   3.622   4.967
 4726SOL    HW216011  13.950   3.723   5.077
 4727SOL     OW16012   8.744   6.434   1.821
 4727SOL    HW116013   8.697   6.395   1.748
 4727SOL    HW216014   8.822   6.380   1.831
 4728SOL     OW16015  13.844   4.485   2.749
 4728SOL    HW116016  13.880   4.566   2.715
 4728SOL    HW216017  13.820   4.505   2.840
 4729SOL     OW16018   9.018  14.213   8.340
 4729SOL    HW116019   8.988  14.161   8.414
 4729SOL    HW216020   9.110  14.187   8.328
 4730SOL     OW16021   8.545  14.778   9.035
 4730SOL    HW116022   8.589  14.779   8.950
 4730SOL    HW216023   8.500  14.862   9.040
 4731SOL     OW16024   7.973   5.473  13.346
 4731SOL    HW116025   8.010   5.389  13.372
 4731SOL    HW216026   7.909   5.452  13.278
 4732SOL     OW16027   3.340   9.924   3.306
 4732SOL    HW116028   3.369  10.013   3.327
 4732SOL    HW216029   3.245   9.930   3.300
 4733SOL     OW16030   5.439   4.528   8.269
 4733SOL    HW116031   5.460   4.458   8.331
 4733SOL    HW216032   5.491   4.508   8.191
 4734SOL     OW16033   1.633   3.157   6.479
 4734SOL    HW116034   1.648   3.251   6.482
 4734SOL    HW216035   1.539   3.148   6.459
 4735SOL     OW16036   7.460   3.338   5.644
 4735SOL    HW116037   7.461   3.433   5.661
 4735SOL    HW216038   7.417   3.330   5.559
 4736SOL     OW16039  14.677  14.836   0.149
 4736SOL    HW116040  14.674  14.780   0.226
 4736SOL    HW216041  14.629   0.033   0.175
 4737SOL     OW16042  13.232   4.757   6.557
 4737SOL    HW116043  13.148   4.732   6.518
 4737SOL    HW216044  13.295   4.743   6.487
 4738SOL     OW16045   7.089   3.892   8.117
 4738SOL    HW116046   7.148   3.835   8.165
 4738SOL    HW216047   7.143   3.967   8.091
 4739SOL     OW16048   0.368   1.213   5.017
 4739SOL    HW116049   0.449   1.164   5.000
 4739SOL    HW216050   0.298   1.152   4.997
 4740SOL     OW16051   7.815  10.857   5.544
 4740SOL    HW116052   7.824  10.829   5.453
 4740SOL    HW216053   7.795  10.777   5.592
 4741SOL     OW16054   9.232   6.941  14.583
 4741SOL    HW116055   9.285   6.945  14.663
 4741SOL    HW216056   9.200   7.030  14.571
 4742SOL     OW16057  11.509   2.195   3.670
 4742SOL    HW116058  11.602   2.216   3.661
 4742SOL    HW216059  11.482   2.237   3.751
 4743SOL     OW16060   1.462  14.478   8.190
 4743SOL    HW116061   1.460  14.516   8.102
 4743SOL    HW216062   1.422  14.545   8.246
 4744SOL     OW16063   4.834  12.474  13.022
 4744SOL    HW116064   4.759  12.416  13.035
 4744SOL    HW216065   4.817  12.517  12.938
 4745SOL     OW16066   5.324   2.185  11.023
 4745SOL    HW116067   5.366   2.111  10.979
 4745SOL    HW216068   5.388   2.212  11.089
 4746SOL     OW16069   8.857   7.167  11.047
 4746SOL    HW116070   8.789   7.141  10.985
 4746SOL    HW216071   8.887   7.252  11.014
 4747SOL     OW16072   5.000  14.526  11.228
 4747SOL    HW116073   4.927  14.479  11.269
 4747SOL    HW216074   4.994  14.503  11.136
 4748SOL     OW16075   2.562  12.516   7.868
 4748SOL    HW116076   2.563  12.437   7.813
 4748SOL    HW216077   2.473  12.550   7.860
 4749SOL     OW16078   8.862  14.554   7.997
 4749SOL    HW116079   8.922  14.482   8.015
 4749SOL    HW216080   8.904  14.630   8.039
 4750SOL     OW16081   5.993   2.821   0.136
 4750SOL    HW116082   5.933   2.804   0.208
 4750SOL    HW216083   5.989   2.741   0.083
 4751SOL     OW16084  14.314   2.219   3.457
 4751SOL    HW116085  14.346   2.228   3.547
 4751SOL    HW216086  14.290   2.127   3.450
 4752SOL     OW16087  14.516   0.679  12.122
 4752SOL    HW116088  14.537   0.607  12.182
 4752SOL    HW216089  14.509   0.756  12.179
 4753SOL     OW16090   7.135   1.934   1.640
 4753SOL    HW116091   7.136   1.961   1.548
 4753SOL    HW216092   7.065   1.869   1.645
 4754SOL     OW16093   7.050   1.252  14.832
 4754SOL    HW116094   7.131   1.201  14.836
 4754SOL    HW216095   7.079   1.343  14.835
 4755SOL     OW16096   9.697  10.337   4.951
 4755SOL    HW116097   9.610  10.376   4.949
 4755SOL    HW216098   9.757  10.409   4.933
 4756SOL     OW16099   3.710   0.613  14.400
 4756SOL    HW116100   3.786   0.585  14.349
 4756SOL    HW216101   3.667   0.678  14.344
 4757SOL     OW16102  11.231   0.718   0.814
 4757SOL    HW116103  11.150   0.669   0.802
 4757SOL    HW216104  11.267   0.684   0.896
 4758SOL     OW16105   9.709   4.334  10.993
 4758SOL    HW116106   9.653   4.410  11.010
 4758SOL    HW216107   9.648   4.260  10.993
 4759SOL     OW16108  13.230  10.069   1.346
 4759SOL    HW116109  13.206  10.086   1.437
 4759SOL    HW216110  13.245   9.974   1.342
 4760SOL     OW16111   9.372   6.839   5.773
 4760SOL    HW116112   9.400   6.921   5.733
 4760SOL    HW216113   9.304   6.805   5.714
 4761SOL     OW16114   7.021   2.304   3.509
 4761SOL    HW116115   6.935   2.302   3.467
 4761SOL    HW216116   7.049   2.395   3.502
 4762SOL     OW16117  10.371   5.888   4.767
 4762SOL    HW116118  10.313   5.836   4.823
 4762SOL    HW216119  10.432   5.929   4.828
 4763SOL     OW16120   7.400   3.302   1.227
 4763SOL    HW116121   7.328   3.362   1.206
 4763SOL    HW216122   7.402   3.302   1.323
 4764SOL     OW16123   6.102  12.980   2.476
 4764SOL    HW116124   6.169  12.989   2.544
 4764SOL    HW216125   6.072  13.069   2.458
 4765SOL     OW16126   4.355   4.702   1.501
 4765SOL    HW116127   4.267   4.739   1.492
 4765SOL    HW216128   4.346   4.635   1.569
 4766SOL     OW16129  12.833   2.455   3.573
 4766SOL    HW116130  12.870   2.436   3.487
 4766SOL    HW216131  12.746   2.491   3.555
 4767SOL     OW16132   5.975  11.463  11.505
 4767SOL    HW116133   5.999  11.552  11.529
 4767SOL    HW216134   5.905  11.473  11.440
 4768SOL     OW16135  10.409   0.735   2.868
 4768SOL    HW116136  10.404   0.664   2.932
 4768SOL    HW216137  10.491   0.719   2.821
 4769SOL     OW16138   3.764   2.927   3.104
 4769SOL    HW116139   3.729   2.894   3.187
 4769SOL    HW216140   3.834   2.866   3.082
 4770SOL     OW16141  12.474  11.484   1.040
 4770SOL    HW116142  12.556  11.474   1.088
 4770SOL    HW216143  12.465  11.578   1.027
 4771SOL     OW16144  12.279   9.297   5.372
 4771SOL    HW116145  12.247   9.231   5.310
 4771SOL    HW216146  12.227   9.284   5.450
 4772SOL     OW16147  10.570   1.019   3.229
 4772SOL    HW116148  10.549   1.103   3.269
 4772SOL    HW216149  10.661   1.029   3.199
 4773SOL     OW16150   7.342   0.490   6.880
 4773SOL    HW116151   7.351   0.521   6.971
 4773SOL    HW216152   7.284   0.554   6.839
 4774SOL     OW16153   6.274   9.558   0.982
 4774SOL    HW116154   6.340   9.528   0.920
 4774SOL    HW216155   6.294   9.650   0.996
 4775SOL     OW16156  14.112   0.541  10.923
 4775SOL    HW116157  14.108   0.634  10.902
 4775SOL    HW216158  14.196   0.530  10.968
 4776SOL     OW16159   1.460   1.812   1.981
 4776SOL    HW116160   1.447   1.718   1.995
 4776SOL    HW216161   1.509   1.817   1.899
 4777SOL     OW16162  12.166  12.626  10.350
 4777SOL    HW116163  12.217  12.706  10.360
 4777SOL    HW216164  12.134  12.607  10.438
 4778SOL     OW16165   9.677   5.576  13.208
 4778SOL    HW116166   9.581   5.581  13.212
 4778SOL    HW216167   9.703   5.660  13.170
 4779SOL     OW16168   9.650   5.259   9.573
 4779SOL    HW116169   9.683   5.335   9.526
 4779SOL    HW216170   9.555   5.266   9.568
 4780SOL     OW16171  14.648   7.418   2.255
 4780SOL    HW116172  14.686   7.483   2.314
 4780SOL    HW216173  14.717   7.353   2.243
 4781SOL     OW16174   1.647   7.090  11.359
 4781SOL    HW116175   1.652   7.016  11.419
 4781SOL    HW216176   1.738   7.107  11.334
 4782SOL     OW16177   1.849   3.865   3.314
 4782SOL    HW116178   1.779   3.886   3.375
 4782SOL    HW216179   1.813   3.886   3.227
 4783SOL     OW16180  10.396   7.604   6.959
 4783SOL    HW116181  10.444   7.612   6.876
 4783SOL    HW216182  10.313   7.648   6.943
 4784SOL     OW16183   8.912  12.386  13.290
 4784SOL    HW116184   8.925  12.400  13.384
 4784SOL    HW216185   8.924  12.292  13.278
 4785SOL     OW16186   6.438   1.576   7.948
 4785SOL    HW116187   6.513   1.628   7.919
 4785SOL    HW216188   6.363   1.636   7.944
 4786SOL     OW16189  10.498  10.388  12.535
 4786SOL    HW116190  10.412  10.349  12.516
 4786SOL    HW216191  10.516  10.444  12.460
 4787SOL     OW16192  13.087   2.639  11.412
 4787SOL    HW116193  13.088   2.713  11.473
 4787SOL    HW216194  13.108   2.563  11.466
 4788SOL     OW16195  14.725   5.288  14.012
 4788SOL    HW116196  14.676   5.207  14.003
 4788SOL    HW216197  14.668   5.355  13.976
 4789SOL     OW16198   4.148   6.050   9.888
 4789SOL    HW116199   4.204   6.098   9.948
 4789SOL    HW216200   4.059   6.074   9.912
 4790SOL     OW16201  13.695  11.629   8.192
 4790SOL    HW116202  13.724  11.541   8.166
 4790SOL    HW216203  13.601  11.627   8.180
 4791SOL     OW16204   7.565   6.061   1.674
 4791SOL    HW116205   7.511   5.984   1.694
 4791SOL    HW216206   7.626   6.031   1.607
 4792SOL     OW16207   0.196   7.028   2.380
 4792SOL    HW116208   0.182   7.111   2.424
 4792SOL    HW216209   0.145   7.035   2.299
 4793SOL     OW16210   4.328   0.522   2.054
 4793SOL    HW116211   4.358   0.445   2.005
 4793SOL    HW216212   4.306   0.586   1.987
 4794SOL     OW16213   0.850  12.210  11.529
 4794SOL    HW116214   0.768  12.239  11.571
 4794SOL    HW216215   0.824  12.183  11.441
 4795SOL     OW16216  11.835  10.052  10.024
 4795SOL    HW116217  11.822   9.971  10.073
 4795SOL    HW216218  11.922  10.042   9.985
 4796SOL     OW16219   5.836   4.630  13.859
 4796SOL    HW116220   5.804   4.721  13.858
 4796SOL    HW216221   5.921   4.636  13.902
 4797SOL     OW16222   6.709  11.032   1.835
 4797SOL    HW116223   6.648  11.089   1.883
 4797SOL    HW216224   6.769  11.000   1.903
 4798SOL     OW16225   7.327   3.273   4.257
 4798SOL    HW116226   7.263   3.215   4.299
 4798SOL    HW216227   7.412   3.235   4.279
 4799SOL     OW16228  10.843   1.650   1.845
 4799SOL    HW116229  10.911   1.716   1.862
 4799SOL    HW216230  10.851   1.631   1.752
 4800SOL     OW16231   6.877  11.903   8.418
 4800SOL    HW116232   6.797  11.852   8.410
 4800SOL    HW216233   6.852  11.981   8.468
 4801SOL     OW16234  10.373  13.918   2.798
 4801SOL    HW116235  10.285  13.897   2.768
 4801SOL    HW216236  10.384  14.011   2.776
 4802SOL     OW16237  10.448   4.915   5.562
 4802SOL    HW116238  10.353   4.906   5.554
 4802SOL    HW216239  10.482   4.832   5.529
 4803SOL     OW16240   3.783  14.701   3.662
 4803SOL    HW116241   3.826  14.615   3.670
 4803SOL    HW216242   3.814  14.736   3.579
 4804SOL     OW16243   5.607  11.333  14.824
 4804SOL    HW116244   5.586  11.272   0.012
 4804SOL    HW216245   5.531  11.328  14.765
 4805SOL     OW16246   2.340  11.170  10.456
 4805SOL    HW116247   2.263  11.215  10.422
 4805SOL    HW216248   2.413  11.228  10.435
 4806SOL     OW16249   2.861  10.243  12.025
 4806SOL    HW116250   2.877  10.222  12.117
 4806SOL    HW216251   2.948  10.251  11.987
 4807SOL     OW16252   7.529  12.042   9.559
 4807SOL    HW116253   7.495  12.056   9.470
 4807SOL    HW216254   7.451  12.044   9.615
 4808SOL     OW16255   6.116  10.479  10.978
 4808SOL    HW116256   6.139  10.406  11.036
 4808SOL    HW216257   6.194  10.493  10.925
 4809SOL     OW16258   5.835   6.298   9.371
 4809SOL    HW116259   5.863   6.214   9.407
 4809SOL    HW216260   5.740   6.301   9.386
 4810SOL     OW16261   1.909   2.127  12.970
 4810SOL    HW116262   1.969   2.132  12.896
 4810SOL    HW216263   1.826   2.160  12.935
 4811SOL     OW16264   2.260   1.119   3.610
 4811SOL    HW116265   2.310   1.197   3.585
 4811SOL    HW216266   2.311   1.046   3.575
 4812SOL     OW16267  14.162  11.170   9.457
 4812SOL    HW116268  14.184  11.263   9.453
 4812SOL    HW216269  14.240  11.125   9.424
 4813SOL     OW16270   7.408   2.165  12.373
 4813SOL    HW116271   7.470   2.237  12.385
 4813SOL    HW216272   7.359   2.188  12.295
 4814SOL     OW16273   1.700  12.407   4.384
 4814SOL    HW116274   1.697  12.322   4.341
 4814SOL    HW216275   1.792  12.430   4.386
 4815SOL     OW16276   7.562  11.127  13.576
 4815SOL    HW116277   7.479  11.161  13.545
 4815SOL    HW216278   7.604  11.092  13.497
 4816SOL     OW16279  14.421   8.328   1.647
 4816SOL    HW116280  14.459   8.371   1.570
 4816SOL    HW216281  14.332   8.307   1.621
 4817SOL     OW16282   1.584   7.666   1.324
 4817SOL    HW116283   1.517   7.735   1.332
 4817SOL    HW216284   1.535   7.585   1.337
 4818SOL     OW16285   2.166  13.145   5.585
 4818SOL    HW116286   2.166  13.095   5.504
 4818SOL    HW216287   2.246  13.118   5.630
 4819SOL     OW16288  10.377   6.813  13.473
 4819SOL    HW116289  10.439   6.879  13.504
 4819SOL    HW216290  10.405   6.732  13.515
 4820SOL     OW16291  10.295  10.963   2.124
 4820SOL    HW116292  10.340  11.038   2.084
 4820SOL    HW216293  10.220  11.001   2.169
 4821SOL     OW16294   1.890   7.433  14.551
 4821SOL    HW116295   1.884   7.528  14.538
 4821SOL    HW216296   1.847   7.396  14.475
 4822SOL     OW16297   1.601   5.285   0.827
 4822SOL    HW116298   1.684   5.334   0.833
 4822SOL    HW216299   1.533   5.352   0.834
 4823SOL     OW16300   3.178   1.883   8.147
 4823SOL    HW116301   3.258   1.871   8.197
 4823SOL    HW216302   3.191   1.831   8.068
 4824SOL     OW16303   3.436   8.688   3.314
 4824SOL    HW116304   3.391   8.749   3.256
 4824SOL    HW216305   3.520   8.672   3.271
 4825SOL     OW16306   1.968   9.189   8.233
 4825SOL    HW116307   1.925   9.222   8.154
 4825SOL    HW216308   1.942   9.251   8.301
 4826SOL     OW16309   1.308   6.191   2.131
 4826SOL    HW116310   1.306   6.139   2.050
 4826SOL    HW216311   1.223   6.233   2.134
 4827SOL     OW16312   0.104   2.790  14.391
 4827SOL    HW116313   0.076   2.785  14.483
 4827SOL    HW216314   0.199   2.777  14.395
 4828SOL     OW16315   5.031  13.338  11.329
 4828SOL    HW116316   4.980  13.262  11.300
 4828SOL    HW216317   5.121  13.317  11.306
 4829SOL     OW16318  10.691  11.038   3.025
 4829SOL    HW116319  10.697  11.063   3.117
 4829SOL    HW216320  10.782  11.034   2.996
 4830SOL     OW16321  13.679   5.674  10.627
 4830SOL    HW116322  13.679   5.741  10.559
 4830SOL    HW216323  13.771   5.651  10.638
 4831SOL     OW16324  12.477   5.755   7.062
 4831SOL    HW116325  12.516   5.836   7.029
 4831SOL    HW216326  12.394   5.749   7.014
 4832SOL     OW16327  10.315   9.751   7.403
 4832SOL    HW116328  10.294   9.844   7.399
 4832SOL    HW216329  10.332   9.726   7.312
 4833SOL     OW16330   4.471  13.387   5.765
 4833SOL    HW116331   4.430  13.330   5.700
 4833SOL    HW216332   4.398  13.438   5.801
 4834SOL     OW16333   9.141  12.544   5.684
 4834SOL    HW116334   9.082  12.610   5.722
 4834SOL    HW216335   9.083  12.473   5.658
 4835SOL     OW16336   8.567   1.764   0.302
 4835SOL    HW116337   8.541   1.844   0.257
 4835SOL    HW216338   8.616   1.794   0.379
 4836SOL     OW16339   6.518   2.052   0.164
 4836SOL    HW116340   6.490   2.138   0.193
 4836SOL    HW216341   6.588   2.028   0.224
 4837SOL     OW16342   2.520   3.926   7.476
 4837SOL    HW116343   2.586   3.994   7.466
 4837SOL    HW216344   2.453   3.965   7.533
 4838SOL     OW16345   9.610  10.765  12.145
 4838SOL    HW116346   9.518  10.788  12.153
 4838SOL    HW216347   9.617  10.723  12.059
 4839SOL     OW16348   1.871  10.174   8.414
 4839SOL    HW116349   1.853  10.245   8.352
 4839SOL    HW216350   1.784  10.146   8.443
 4840SOL     OW16351   1.411  13.006  14.216
 4840SOL    HW116352   1.350  12.936  14.241
 4840SOL    HW216353   1.439  12.982  14.127
 4841SOL     OW16354   4.938   8.610   9.820
 4841SOL    HW116355   4.927   8.610   9.915
 4841SOL    HW216356   4.955   8.518   9.798
 4842SOL     OW16357  13.869   3.664  11.272
 4842SOL    HW116358  13.944   3.723  11.262
 4842SOL    HW216359  13.804   3.697  11.210
 4843SOL     OW16360   8.387   6.858   2.826
 4843SOL    HW116361   8.392   6.924   2.895
 4843SOL    HW216362   8.459   6.798   2.845
 4844SOL     OW16363   7.341   8.094  13.224
 4844SOL    HW116364   7.312   8.016  13.177
 4844SOL    HW216365   7.356   8.159  13.155
 4845SOL     OW16366   2.509  12.236   7.781
 4845SOL    HW116367   2.570  12.227   7.707
 4845SOL    HW216368   2.561  12.211   7.858
 4846SOL     OW16369  11.782  12.700   3.697
 4846SOL    HW116370  11.774  12.747   3.780
 4846SOL    HW216371  11.765  12.609   3.720
 4847SOL     OW16372   9.946   8.984   2.176
 4847SOL    HW116373   9.875   9.034   2.136
 4847SOL    HW216374  10.001   8.958   2.102
 4848SOL     OW16375   4.152  14.229   4.559
 4848SOL    HW116376   4.229  14.194   4.604
 4848SOL    HW216377   4.099  14.152   4.538
 4849SOL     OW16378   6.683  11.683   0.571
 4849SOL    HW116379   6.636  11.760   0.538
 4849SOL    HW216380   6.616  11.615   0.575
 4850SOL     OW16381   2.248   3.949  13.499
 4850SOL    HW116382   2.155   3.954  13.478
 4850SOL    HW216383   2.261   4.011  13.570
 4851SOL     OW16384  12.525   1.821   1.728
 4851SOL    HW116385  12.591   1.877   1.768
 4851SOL    HW216386  12.522   1.743   1.783
 4852SOL     OW16387   6.251  11.244   3.190
 4852SOL    HW116388   6.242  11.329   3.148
 4852SOL    HW216389   6.174  11.237   3.247
 4853SOL     OW16390   1.224   2.849   2.547
 4853SOL    HW116391   1.201   2.789   2.476
 4853SOL    HW216392   1.317   2.867   2.534
 4854SOL     OW16393  11.768  10.283  13.640
 4854SOL    HW116394  11.690  10.276  13.586
 4854SOL    HW216395  11.787  10.377  13.643
 4855SOL     OW16396   3.429   9.659   1.846
 4855SOL    HW116397   3.380   9.611   1.912
 4855SOL    HW216398   3.510   9.685   1.890
 4856SOL     OW16399   4.750   4.556   8.458
 4856SOL    HW116400   4.666   4.510   8.461
 4856SOL    HW216401   4.816   4.486   8.466
 4857SOL     OW16402   3.780   5.291  11.603
 4857SOL    HW116403   3.709   5.263  11.546
 4857SOL    HW216404   3.860   5.265  11.557
 4858SOL     OW16405   2.281  14.634   4.092
 4858SOL    HW116406   2.294  14.567   4.160
 4858SOL    HW216407   2.206  14.685   4.123
 4859SOL     OW16408   0.732  12.440   0.081
 4859SOL    HW116409   0.692  12.383   0.015
 4859SOL    HW216410   0.788  12.382   0.132
 4860SOL     OW16411  14.058   8.258   3.710
 4860SOL    HW116412  14.134   8.215   3.750
 4860SOL    HW216413  13.985   8.199   3.729
 4861SOL     OW16414   3.394   4.825  12.576
 4861SOL    HW116415   3.441   4.743  12.586
 4861SOL    HW216416   3.444   4.874  12.510
 4862SOL     OW16417   5.567   9.484   4.139
 4862SOL    HW116418   5.597   9.500   4.228
 4862SOL    HW216419   5.554   9.572   4.102
 4863SOL     OW16420   8.147  13.945  13.130
 4863SOL    HW116421   8.099  14.023  13.104
 4863SOL    HW216422   8.153  13.951  13.226
 4864SOL     OW16423  14.170  12.028   7.334
 4864SOL    HW116424  14.206  12.032   7.246
 4864SOL    HW216425  14.121  11.945   7.336
 4865SOL     OW16426  12.906   9.046   1.819
 4865SOL    HW116427  12.861   9.077   1.741
 4865SOL    HW216428  12.838   9.040   1.886
 4866SOL     OW16429  11.815  13.828  10.692
 4866SOL    HW116430  11.801  13.742  10.652
 4866SOL    HW216431  11.832  13.809  10.785
 4867SOL     OW16432  14.398   6.112   7.314
 4867SOL    HW116433  14.319   6.139   7.266
 4867SOL    HW216434  14.443   6.053   7.253
 4868SOL     OW16435   6.622   0.218   7.051
 4868SOL    HW116436   6.672   0.137   7.060
 4868SOL    HW216437   6.531   0.190   7.056
 4869SOL     OW16438   0.048  11.394   4.239
 4869SOL    HW116439  14.876  11.472   4.229
 4869SOL    HW216440  14.873  11.331   4.283
 4870SOL     OW16441  10.789   7.614   6.013
 4870SOL    HW116442  10.773   7.605   5.919
 4870SOL    HW216443  10.879   7.583   6.025
 4871SOL     OW16444   7.536   0.321   4.224
 4871SOL    HW116445   7.578   0.269   4.292
 4871SOL    HW216446   7.546   0.412   4.253
 4872SOL     OW16447  12.717   5.445   4.812
 4872SOL    HW116448  12.776   5.490   4.753
 4872SOL    HW216449  12.707   5.357   4.775
 4873SOL     OW16450   3.244   5.958  14.583
 4873SOL    HW116451   3.327   5.924  14.549
 4873SOL    HW216452   3.217   6.023  14.517
 4874SOL     OW16453   1.749  12.637  10.636
 4874SOL    HW116454   1.679  12.668  10.693
 4874SOL    HW216455   1.805  12.584  10.693
 4875SOL     OW16456   2.711  14.598   3.674
 4875SOL    HW116457   2.661  14.641   3.744
 4875SOL    HW216458   2.775  14.545   3.721
 4876SOL     OW16459   3.806   9.381   3.782
 4876SOL    HW116460   3.819   9.305   3.726
 4876SOL    HW216461   3.748   9.351   3.852
 4877SOL     OW16462  12.020   9.146   0.343
 4877SOL    HW116463  12.051   9.114   0.258
 4877SOL    HW216464  11.927   9.165   0.330
 4878SOL     OW16465   5.351  13.324   8.201
 4878SOL    HW116466   5.342  13.231   8.225
 4878SOL    HW216467   5.339  13.371   8.283
 4879SOL     OW16468   5.288   3.300   2.834
 4879SOL    HW116469   5.221   3.292   2.901
 4879SOL    HW216470   5.334   3.381   2.855
 4880SOL     OW16471   6.494  11.509   7.356
 4880SOL    HW116472   6.519  11.474   7.441
 4880SOL    HW216473   6.471  11.601   7.374
 4881SOL     OW16474  13.143   4.178   1.919
 4881SOL    HW116475  13.225   4.129   1.925
 4881SOL    HW216476  13.157   4.240   1.848
 4882SOL     OW16477   0.358   0.165  12.592
 4882SOL    HW116478   0.311   0.151  12.510
 4882SOL    HW216479   0.297   0.217  12.645
 4883SOL     OW16480  13.502  13.853   1.854
 4883SOL    HW116481  13.532  13.768   1.821
 4883SOL    HW216482  13.437  13.831   1.921
 4884SOL     OW16483   6.621   8.840  12.852
 4884SOL    HW116484   6.537   8.862  12.894
 4884SOL    HW216485   6.682   8.907  12.884
 4885SOL     OW16486   3.849   9.056   5.310
 4885SOL    HW116487   3.774   9.087   5.360
 4885SOL    HW216488   3.835   8.961   5.302
 4886SOL     OW16489   2.013   6.493   6.031
 4886SOL    HW116490   1.965   6.421   6.071
 4886SOL    HW216491   2.102   6.460   6.021
 4887SOL     OW16492   3.469  13.896   9.333
 4887SOL    HW116493   3.482  13.819   9.277
 4887SOL    HW216494   3.391  13.938   9.298
 4888SOL     OW16495   3.966   4.273   2.772
 4888SOL    HW116496   3.910   4.232   2.838
 4888SOL    HW216497   4.025   4.329   2.823
 4889SOL     OW16498   1.324   3.970   4.484
 4889SOL    HW116499   1.398   3.931   4.437
 4889SOL    HW216500   1.352   3.969   4.576
 4890SOL     OW16501   8.740   4.117   9.065
 4890SOL    HW116502   8.775   4.070   8.989
 4890SOL    HW216503   8.729   4.049   9.132
 4891SOL     OW16504  12.199   6.893   1.292
 4891SOL    HW116505  12.225   6.802   1.279
 4891SOL    HW216506  12.181   6.925   1.203
 4892SOL     OW16507   2.835  14.725   8.534
 4892SOL    HW116508   2.841  14.731   8.439
 4892SOL    HW216509   2.769  14.790   8.559
 4893SOL     OW16510   8.448   6.984  11.304
 4893SOL    HW116511   8.456   7.037  11.225
 4893SOL    HW216512   8.482   7.040  11.374
 4894SOL     OW16513  11.078   8.102  10.714
 4894SOL    HW116514  10.992   8.130  10.681
 4894SOL    HW216515  11.141   8.157  10.666
 4895SOL     OW16516   3.336  10.504   5.308
 4895SOL    HW116517   3.304  10.565   5.242
 4895SOL    HW216518   3.412  10.461   5.266
 4896SOL     OW16519   2.569  14.564   8.138
 4896SOL    HW116520   2.622  14.503   8.087
 4896SOL    HW216521   2.479  14.544   8.113
 4897SOL     OW16522   6.465   8.384   7.434
 4897SOL    HW116523   6.495   8.429   7.513
 4897SOL    HW216524   6.532   8.404   7.369
 4898SOL     OW16525   4.972  11.843   9.612
 4898SOL    HW116526   5.043  11.851   9.676
 4898SOL    HW216527   4.907  11.789   9.656
 4899SOL     OW16528  13.148   2.960  11.096
 4899SOL    HW116529  13.174   2.878  11.138
 4899SOL    HW216530  13.193   3.028  11.146
 4900SOL     OW16531   1.042   3.716  13.544
 4900SOL    HW116532   0.995   3.741  13.624
 4900SOL    HW216533   1.110   3.783  13.534
 4901SOL     OW16534   8.225  10.532   9.231
 4901SOL    HW116535   8.219  10.557   9.139
 4901SOL    HW216536   8.316  10.548   9.255
 4902SOL     OW16537   2.209   3.747   9.433
 4902SOL    HW116538   2.262   3.795   9.496
 4902SOL    HW216539   2.202   3.659   9.469
 4903SOL     OW16540   0.509   3.010   0.016
 4903SOL    HW116541   0.594   2.971   0.037
 4903SOL    HW216542   0.517   3.102   0.042
 4904SOL     OW16543   8.487   6.481  12.845
 4904SOL    HW116544   8.435   6.439  12.914
 4904SOL    HW216545   8.427   6.543  12.804
 4905SOL     OW16546   0.825  12.607   8.719
 4905SOL    HW116547   0.752  12.575   8.666
 4905SOL    HW216548   0.795  12.692   8.751
 4906SOL     OW16549  12.143   5.706  14.110
 4906SOL    HW116550  12.133   5.703  14.015
 4906SOL    HW216551  12.204   5.778  14.125
 4907SOL     OW16552   9.836  10.342  11.014
 4907SOL    HW116553   9.827  10.405  11.086
 4907SOL    HW216554   9.885  10.389  10.947
 4908SOL     OW16555   6.674   8.518   2.588
 4908SOL    HW116556   6.622   8.580   2.639
 4908SOL    HW216557   6.722   8.573   2.526
 4909SOL     OW16558   6.938   7.633  12.768
 4909SOL    HW116559   6.916   7.608  12.858
 4909SOL    HW216560   7.034   7.632  12.766
 4910SOL     OW16561  11.292   0.732   8.713
 4910SOL    HW116562  11.335   0.814   8.689
 4910SOL    HW216563  11.199   0.747   8.695
 4911SOL     OW16564   0.049   8.073   0.325
 4911SOL    HW116565   0.035   8.125   0.246
 4911SOL    HW216566   0.007   8.123   0.395
 4912SOL     OW16567   3.323   5.034  14.792
 4912SOL    HW116568   3.261   5.043  14.864
 4912SOL    HW216569   3.406   5.064  14.828
 4913SOL     OW16570   6.839  14.085   7.667
 4913SOL    HW116571   6.827  14.033   7.746
 4913SOL    HW216572   6.862  14.172   7.699
 4914SOL     OW16573   1.235  11.052   0.635
 4914SOL    HW116574   1.272  11.135   0.667
 4914SOL    HW216575   1.296  10.985   0.667
 4915SOL     OW16576   9.873   8.024   7.456
 4915SOL    HW116577   9.843   7.969   7.384
 4915SOL    HW216578   9.926   7.966   7.511
 4916SOL     OW16579  14.007  14.203  13.702
 4916SOL    HW116580  13.914  14.181  13.696
 4916SOL    HW216581  14.053  14.125  13.671
 4917SOL     OW16582   1.408   3.654  14.286
 4917SOL    HW116583   1.445   3.565  14.289
 4917SOL    HW216584   1.343   3.650  14.215
 4918SOL     OW16585   2.414  10.026   1.811
 4918SOL    HW116586   2.462  10.101   1.845
 4918SOL    HW216587   2.345  10.064   1.757
 4919SOL     OW16588  11.130   1.350   7.087
 4919SOL    HW116589  11.117   1.442   7.110
 4919SOL    HW216590  11.047   1.309   7.108
 4920SOL     OW16591   0.896   9.608   2.002
 4920SOL    HW116592   0.935   9.681   2.051
 4920SOL    HW216593   0.802   9.620   2.013
 4921SOL     OW16594   5.934  12.968   2.159
 4921SOL    HW116595   5.926  12.923   2.243
 4921SOL    HW216596   5.931  12.899   2.093
 4922SOL     OW16597   3.331   9.022   0.849
 4922SOL    HW116598   3.244   8.988   0.866
 4922SOL    HW216599   3.390   8.960   0.892
 4923SOL     OW16600   7.000   4.980   9.905
 4923SOL    HW116601   6.922   5.029   9.877
 4923SOL    HW216602   6.977   4.888   9.891
 4924SOL     OW16603  11.294   0.671   6.794
 4924SOL    HW116604  11.322   0.712   6.876
 4924SOL    HW216605  11.314   0.578   6.805
 4925SOL     OW16606   1.610   9.373   4.517
 4925SOL    HW116607   1.569   9.460   4.523
 4925SOL    HW216608   1.633   9.363   4.425
 4926SOL     OW16609   6.073  11.819   8.974
 4926SOL    HW116610   6.164  11.822   8.942
 4926SOL    HW216611   6.081  11.821   9.069
 4927SOL     OW16612   6.202  13.795   7.770
 4927SOL    HW116613   6.185  13.826   7.859
 4927SOL    HW216614   6.276  13.734   7.779
 4928SOL     OW16615   9.149  13.738   0.545
 4928SOL    HW116616   9.152  13.742   0.641
 4928SOL    HW216617   9.101  13.657   0.527
 4929SOL     OW16618   8.320  10.159   8.141
 4929SOL    HW116619   8.364  10.234   8.180
 4929SOL    HW216620   8.392  10.099   8.118
 4930SOL     OW16621   2.031  12.419   9.766
 4930SOL    HW116622   1.940  12.399   9.787
 4930SOL    HW216623   2.048  12.502   9.810
 4931SOL     OW16624   2.264   4.040   2.064
 4931SOL    HW116625   2.224   4.029   2.150
 4931SOL    HW216626   2.204   3.995   2.004
 4932SOL     OW16627  13.567   6.064   0.645
 4932SOL    HW116628  13.507   6.068   0.720
 4932SOL    HW216629  13.509   6.048   0.570
 4933SOL     OW16630   3.120   7.104  11.691
 4933SOL    HW116631   3.202   7.066  11.723
 4933SOL    HW216632   3.053   7.039  11.713
 4934SOL     OW16633   3.566   0.429   8.968
 4934SOL    HW116634   3.542   0.337   8.953
 4934SOL    HW216635   3.483   0.472   8.988
 4935SOL     OW16636   5.285   0.302  12.324
 4935SOL    HW116637   5.240   0.328  12.244
 4935SOL    HW216638   5.306   0.385  12.367
 4936SOL     OW16639  11.922   3.322   1.902
 4936SOL    HW116640  11.917   3.396   1.843
 4936SOL    HW216641  11.970   3.255   1.854
 4937SOL     OW16642   4.069   1.180  10.578
 4937SOL    HW116643   4.037   1.180  10.487
 4937SOL    HW216644   4.151   1.131  10.574
 4938SOL     OW16645   0.702   7.041   8.309
 4938SOL    HW116646   0.672   6.988   8.236
 4938SOL    HW216647   0.679   6.990   8.387
 4939SOL     OW16648  14.043   3.495   0.218
 4939SOL    HW116649  14.119   3.505   0.276
 4939SOL    HW216650  14.074   3.528   0.133
 4940SOL     OW16651  13.375   0.597   0.773
 4940SOL    HW116652  13.304   0.564   0.717
 4940SOL    HW216653  13.409   0.519   0.817
 4941SOL     OW16654   7.486   2.819   3.274
 4941SOL    HW116655   7.517   2.877   3.204
 4941SOL    HW216656   7.513   2.863   3.355
 4942SOL     OW16657   7.856  14.278   5.254
 4942SOL    HW116658   7.854  14.184   5.236
 4942SOL    HW216659   7.859  14.284   5.349
 4943SOL     OW16660  14.153  13.494  13.233
 4943SOL    HW116661  14.095  13.429  13.194
 4943SOL    HW216662  14.120  13.507  13.321
 4944SOL     OW16663   9.735   5.057   3.111
 4944SOL    HW116664   9.639   5.067   3.107
 4944SOL    HW216665   9.756   5.002   3.036
 4945SOL     OW16666   2.833   4.823   2.214
 4945SOL    HW116667   2.915   4.847   2.258
 4945SOL    HW216668   2.861   4.780   2.133
 4946SOL     OW16669   7.621  12.381   2.322
 4946SOL    HW116670   7.648  12.473   2.322
 4946SOL    HW216671   7.536  12.380   2.280
 4947SOL     OW16672  12.463  10.421   6.837
 4947SOL    HW116673  12.546  10.437   6.792
 4947SOL    HW216674  12.404  10.488   6.802
 4948SOL     OW16675   0.779   5.494  12.223
 4948SOL    HW116676   0.713   5.431  12.251
 4948SOL    HW216677   0.799   5.545  12.301
 4949SOL     OW16678  14.516   3.858   4.939
 4949SOL    HW116679  14.600   3.850   4.894
 4949SOL    HW216680  14.476   3.936   4.899
 4950SOL     OW16681  11.979   8.469   4.816
 4950SOL    HW116682  11.940   8.547   4.855
 4950SOL    HW216683  12.049   8.502   4.760
 4951SOL     OW16684   2.719   6.177   9.036
 4951SOL    HW116685   2.770   6.221   9.105
 4951SOL    HW216686   2.633   6.162   9.077
 4952SOL     OW16687   5.778   0.126  10.578
 4952SOL    HW116688   5.811   0.204  10.534
 4952SOL    HW216689   5.850   0.063  10.571
 4953SOL     OW16690  11.044  14.780   3.377
 4953SOL    HW116691  11.126  14.766   3.331
 4953SOL    HW216692  11.062  14.851   3.438
 4954SOL     OW16693   4.579   1.742   6.366
 4954SOL    HW116694   4.541   1.780   6.445
 4954SOL    HW216695   4.601   1.818   6.312
 4955SOL     OW16696   2.028  10.609  11.346
 4955SOL    HW116697   2.063  10.597  11.257
 4955SOL    HW216698   1.936  10.581  11.339
 4956SOL     OW16699   9.381   8.208  14.335
 4956SOL    HW116700   9.442   8.199  14.408
 4956SOL    HW216701   9.336   8.123  14.331
 4957SOL     OW16702   5.358   5.201   4.631
 4957SOL    HW116703   5.366   5.145   4.709
 4957SOL    HW216704   5.430   5.263   4.640
 4958SOL     OW16705  10.431  11.687   8.923
 4958SOL    HW116706  10.489  11.760   8.904
 4958SOL    HW216707  10.421  11.689   9.019
 4959SOL     OW16708  13.566   9.333   4.426
 4959SOL    HW116709  13.638   9.297   4.479
 4959SOL    HW216710  13.604   9.342   4.338
 4960SOL     OW16711  12.119   0.231   1.025
 4960SOL    HW116712  12.070   0.149   1.017
 4960SOL    HW216713  12.209   0.207   1.000
 4961SOL     OW16714  13.979  12.880   1.769
 4961SOL    HW116715  13.972  12.857   1.677
 4961SOL    HW216716  14.065  12.847   1.796
 4962SOL     OW16717   1.102   4.997   0.533
 4962SOL    HW116718   1.089   4.980   0.626
 4962SOL    HW216719   1.016   5.023   0.500
 4963SOL     OW16720   3.316   9.795   3.034
 4963SOL    HW116721   3.343   9.836   3.117
 4963SOL    HW216722   3.231   9.755   3.054
 4964SOL     OW16723   6.864   8.090   2.568
 4964SOL    HW116724   6.812   8.126   2.497
 4964SOL    HW216725   6.899   8.166   2.614
 4965SOL     OW16726   9.529   7.321   9.802
 4965SOL    HW116727   9.435   7.328   9.788
 4965SOL    HW216728   9.541   7.344   9.894
 4966SOL     OW16729  11.084   7.034   7.291
 4966SOL    HW116730  11.137   7.045   7.370
 4966SOL    HW216731  11.008   7.090   7.305
 4967SOL     OW16732  11.905   9.941   8.898
 4967SOL    HW116733  11.811   9.941   8.885
 4967SOL    HW216734  11.930  10.034   8.899
 4968SOL     OW16735   6.172  14.384  10.762
 4968SOL    HW116736   6.263  14.378  10.732
 4968SOL    HW216737   6.119  14.360  10.686
 4969SOL     OW16738  10.260   4.541  11.674
 4969SOL    HW116739  10.198   4.569  11.742
 4969SOL    HW216740  10.326   4.611  11.672
 4970SOL     OW16741   2.436  13.742   8.929
 4970SOL    HW116742   2.340  13.743   8.919
 4970SOL    HW216743   2.453  13.667   8.986
 4971SOL     OW16744   9.693   8.057   8.464
 4971SOL    HW116745   9.644   8.047   8.382
 4971SOL    HW216746   9.723   7.968   8.484
 4972SOL     OW16747   8.715  13.475   7.858
 4972SOL    HW116748   8.794  13.495   7.908
 4972SOL    HW216749   8.747  13.457   7.769
 4973SOL     OW16750   0.225  10.548   4.484
 4973SOL    HW116751   0.237  10.524   4.392
 4973SOL    HW216752   0.225  10.644   4.483
 4974SOL     OW16753  12.954  13.947   0.114
 4974SOL    HW116754  13.034  13.911   0.076
 4974SOL    HW216755  12.982  13.989   0.195
 4975SOL     OW16756   1.767   8.485  14.548
 4975SOL    HW116757   1.766   8.580  14.537
 4975SOL    HW216758   1.743   8.450  14.462
 4976SOL     OW16759   0.605   2.649   1.458
 4976SOL    HW116760   0.609   2.720   1.521
 4976SOL    HW216761   0.614   2.691   1.373
 4977SOL     OW16762  11.190  11.236   8.815
 4977SOL    HW116763  11.184  11.237   8.719
 4977SOL    HW216764  11.158  11.322   8.842
 4978SOL     OW16765   5.684   8.366   6.986
 4978SOL    HW116766   5.626   8.442   6.973
 4978SOL    HW216767   5.714   8.344   6.898
 4979SOL     OW16768   3.804   2.535   9.195
 4979SOL    HW116769   3.761   2.490   9.123
 4979SOL    HW216770   3.878   2.581   9.155
 4980SOL     OW16771  13.305   9.787   4.931
 4980SOL    HW116772  13.284   9.855   4.868
 4980SOL    HW216773  13.237   9.795   4.999
 4981SOL     OW16774   5.795  11.634   2.895
 4981SOL    HW116775   5.709  11.613   2.932
 4981SOL    HW216776   5.854  11.568   2.933
 4982SOL     OW16777   1.348   5.039   0.928
 4982SOL    HW116778   1.351   5.084   0.843
 4982SOL    HW216779   1.424   4.982   0.927
 4983SOL     OW16780  14.472   2.045   8.183
 4983SOL    HW116781  14.472   1.954   8.153
 4983SOL    HW216782  14.467   2.039   8.278
 4984SOL     OW16783   9.713   9.352   4.137
 4984SOL    HW116784   9.634   9.399   4.164
 4984SOL    HW216785   9.691   9.314   4.052
 4985SOL     OW16786   6.591  13.159   6.083
 4985SOL    HW116787   6.612  13.073   6.047
 4985SOL    HW216788   6.524  13.193   6.025
 4986SOL     OW16789  11.557  14.451   9.233
 4986SOL    HW116790  11.641  14.495   9.237
 4986SOL    HW216791  11.577  14.364   9.200
 4987SOL     OW16792  10.600   0.019   8.636
 4987SOL    HW116793  10.540   0.032   8.562
 4987SOL    HW216794  10.676   0.074   8.615
 4988SOL     OW16795  13.788   7.377   7.124
 4988SOL    HW116796  13.758   7.463   7.094
 4988SOL    HW216797  13.732   7.356   7.198
 4989SOL     OW16798   9.699   9.132   6.466
 4989SOL    HW116799   9.610   9.120   6.497
 4989SOL    HW216800   9.743   9.050   6.488
 4990SOL     OW16801   4.947  13.336   4.485
 4990SOL    HW116802   5.006  13.274   4.443
 4990SOL    HW216803   4.939  13.408   4.423
 4991SOL     OW16804   0.520   7.948  14.177
 4991SOL    HW116805   0.571   7.963  14.256
 4991SOL    HW216806   0.530   7.854  14.160
 4992SOL     OW16807   3.361  13.616  11.114
 4992SOL    HW116808   3.424  13.577  11.175
 4992SOL    HW216809   3.310  13.677  11.168
 4993SOL     OW16810   4.626   5.772   1.147
 4993SOL    HW116811   4.603   5.714   1.220
 4993SOL    HW216812   4.605   5.860   1.177
 4994SOL     OW16813  13.465   1.665   2.970
 4994SOL    HW116814  13.425   1.579   2.956
 4994SOL    HW216815  13.404   1.727   2.929
 4995SOL     OW16816   0.188   3.519   8.425
 4995SOL    HW116817   0.151   3.597   8.466
 4995SOL    HW216818   0.143   3.446   8.468
 4996SOL     OW16819   1.022   5.012   5.682
 4996SOL    HW116820   1.078   5.051   5.749
 4996SOL    HW216821   1.083   4.973   5.620
 4997SOL     OW16822  13.972  11.854   8.773
 4997SOL    HW116823  14.028  11.835   8.848
 4997SOL    HW216824  14.022  11.918   8.722
 4998SOL     OW16825  13.351  12.307   8.398
 4998SOL    HW116826  13.364  12.301   8.493
 4998SOL    HW216827  13.344  12.401   8.380
 4999SOL     OW16828   6.515  13.533  14.422
 4999SOL    HW116829   6.428  13.528  14.381
 4999SOL    HW216830   6.563  13.595  14.368
 5000SOL     OW16831   3.934   6.676  12.954
 5000SOL    HW116832   3.956   6.768  12.939
 5000SOL    HW216833   3.964   6.631  12.876
 5001SOL     OW16834  12.425   3.617   1.782
 5001SOL    HW116835  12.448   3.705   1.751
 5001SOL    HW216836  12.388   3.632   1.869
 5002SOL     OW16837   0.836  11.033   1.498
 5002SOL    HW116838   0.823  10.966   1.431
 5002SOL    HW216839   0.794  10.997   1.576
 5003SOL     OW16840  14.806   5.000  12.091
 5003SOL    HW116841  14.853   4.965  12.167
 5003SOL    HW216842  14.850   5.083  12.072
 5004SOL     OW16843   7.088  14.265  10.119
 5004SOL    HW116844   7.027  14.338  10.120
 5004SOL    HW216845   7.121  14.262  10.029
 5005SOL     OW16846   2.016   6.119   2.715
 5005SOL    HW116847   1.953   6.191   2.710
 5005SOL    HW216848   2.037   6.111   2.808
 5006SOL     OW16849   1.628  13.974  11.178
 5006SOL    HW116850   1.592  13.945  11.262
 5006SOL    HW216851   1.629  13.895  11.124
 5007SOL     OW16852  14.277   0.301   0.579
 5007SOL    HW116853  14.241   0.251   0.506
 5007SOL    HW216854  14.276   0.239   0.653
 5008SOL     OW16855   9.478   8.132  10.773
 5008SOL    HW116856   9.434   8.215  10.788
 5008SOL    HW216857   9.492   8.096  10.861
 5009SOL     OW16858  11.917  13.565   5.899
 5009SOL    HW116859  11.842  13.579   5.842
 5009SOL    HW216860  11.993  13.592   5.846
 5010SOL     OW16861   4.260   0.732   8.584
 5010SOL    HW116862   4.215   0.687   8.655
 5010SOL    HW216863   4.320   0.793   8.627
 5011SOL     OW16864   5.953  10.434   4.185
 5011SOL    HW116865   5.965  10.341   4.200
 5011SOL    HW216866   5.861  10.450   4.206
 5012SOL     OW16867   2.867  10.650   5.550
 5012SOL    HW116868   2.867  10.625   5.458
 5012SOL    HW216869   2.785  10.616   5.584
 5013SOL     OW16870  13.391   7.071   1.602
 5013SOL    HW116871  13.374   7.105   1.689
 5013SOL    HW216872  13.362   6.980   1.606
 5014SOL     OW16873   2.332   3.222   9.764
 5014SOL    HW116874   2.301   3.308   9.736
 5014SOL    HW216875   2.385   3.240   9.842
 5015SOL     OW16876  11.033  13.530   4.865
 5015SOL    HW116877  11.105  13.481   4.905
 5015SOL    HW216878  11.010  13.595   4.931
 5016SOL     OW16879  14.153   0.610  11.333
 5016SOL    HW116880  14.066   0.583  11.303
 5016SOL    HW216881  14.198   0.638  11.254
 5017SOL     OW16882   4.817   4.234  11.883
 5017SOL    HW116883   4.745   4.249  11.944
 5017SOL    HW216884   4.778   4.184  11.811
 5018SOL     OW16885   0.080  13.139   6.034
 5018SOL    HW116886  14.868  13.158   6.030
 5018SOL    HW216887   0.091  13.087   6.113
 5019SOL     OW16888   6.241   2.649  14.021
 5019SOL    HW116889   6.242   2.673  13.928
 5019SOL    HW216890   6.267   2.729  14.066
 5020SOL     OW16891  14.489  14.002   6.239
 5020SOL    HW116892  14.509  13.946   6.314
 5020SOL    HW216893  14.492  14.091   6.274
 5021SOL     OW16894   2.532   0.924  12.205
 5021SOL    HW116895   2.465   0.991  12.189
 5021SOL    HW216896   2.593   0.966  12.266
 5022SOL     OW16897   2.967   2.356   3.508
 5022SOL    HW116898   3.048   2.369   3.458
 5022SOL    HW216899   2.988   2.286   3.569
 5023SOL     OW16900  11.935  12.092   9.800
 5023SOL    HW116901  12.030  12.086   9.798
 5023SOL    HW216902  11.916  12.168   9.855
 5024SOL     OW16903   3.897  14.214  13.850
 5024SOL    HW116904   3.929  14.232  13.761
 5024SOL    HW216905   3.971  14.234  13.907
 5025SOL     OW16906   8.640   9.439  12.054
 5025SOL    HW116907   8.700   9.510  12.028
 5025SOL    HW216908   8.696   9.361  12.059
 5026SOL     OW16909   4.815   8.230   7.309
 5026SOL    HW116910   4.853   8.155   7.355
 5026SOL    HW216911   4.816   8.204   7.216
 5027SOL     OW16912   8.218   7.914   8.326
 5027SOL    HW116913   8.272   7.918   8.247
 5027SOL    HW216914   8.129   7.907   8.293
 5028SOL     OW16915   3.066  12.613   0.562
 5028SOL    HW116916   3.008  12.631   0.488
 5028SOL    HW216917   3.043  12.679   0.627
 5029SOL     OW16918  11.710   3.293   1.058
 5029SOL    HW116919  11.734   3.378   1.094
 5029SOL    HW216920  11.659   3.314   0.979
 5030SOL     OW16921   0.811   6.725   4.249
 5030SOL    HW116922   0.847   6.814   4.246
 5030SOL    HW216923   0.884   6.671   4.280
 5031SOL     OW16924   7.415   5.830  12.136
 5031SOL    HW116925   7.424   5.864  12.225
 5031SOL    HW216926   7.465   5.748  12.137
 5032SOL     OW16927  14.101  10.137  10.725
 5032SOL    HW116928  14.169  10.131  10.793
 5032SOL    HW216929  14.047  10.060  10.738
 5033SOL     OW16930   3.980   9.766   0.634
 5033SOL    HW116931   3.975   9.742   0.541
 5033SOL    HW216932   3.998   9.684   0.679
 5034SOL     OW16933  13.799  13.731  11.388
 5034SOL    HW116934  13.705  13.748  11.380
 5034SOL    HW216935  13.806  13.671  11.462
 5035SOL     OW16936   8.607   6.985   0.716
 5035SOL    HW116937   8.566   6.978   0.802
 5035SOL    HW216938   8.628   6.895   0.692
 5036SOL     OW16939  10.115   5.430  13.735
 5036SOL    HW116940  10.138   5.523  13.747
 5036SOL    HW216941  10.065   5.407  13.813
 5037SOL     OW16942   1.087  14.452   6.865
 5037SOL    HW116943   1.181  14.455   6.882
 5037SOL    HW216944   1.052  14.531   6.905
 5038SOL     OW16945   5.722   4.760  13.491
 5038SOL    HW116946   5.796   4.757  13.430
 5038SOL    HW216947   5.729   4.678  13.540
 5039SOL     OW16948   3.654   3.561   9.132
 5039SOL    HW116949   3.730   3.619   9.131
 5039SOL    HW216950   3.681   3.487   9.186
 5040SOL     OW16951  10.824  14.352   7.533
 5040SOL    HW116952  10.789  14.380   7.449
 5040SOL    HW216953  10.755  14.374   7.596
 5041SOL     OW16954  10.587   8.888   2.429
 5041SOL    HW116955  10.679   8.861   2.430
 5041SOL    HW216956  10.559   8.877   2.338
 5042SOL     OW16957   9.280  11.521   4.772
 5042SOL    HW116958   9.217  11.510   4.843
 5042SOL    HW216959   9.354  11.465   4.798
 5043SOL     OW16960  10.871   0.882  10.558
 5043SOL    HW116961  10.890   0.878  10.652
 5043SOL    HW216962  10.886   0.973  10.535
 5044SOL     OW16963   9.532   4.628  13.903
 5044SOL    HW116964   9.623   4.654  13.913
 5044SOL    HW216965   9.506   4.663  13.817
 5045SOL     OW16966   2.830  11.425  11.029
 5045SOL    HW116967   2.790  11.507  11.002
 5045SOL    HW216968   2.762  11.359  11.019
 5046SOL     OW16969   8.382  13.644   7.337
 5046SOL    HW116970   8.321  13.625   7.409
 5046SOL    HW216971   8.383  13.564   7.285
 5047SOL     OW16972   0.939   3.703   7.085
 5047SOL    HW116973   0.978   3.675   7.002
 5047SOL    HW216974   0.871   3.765   7.059
 5048SOL     OW16975  13.220   9.897   1.814
 5048SOL    HW116976  13.211   9.899   1.909
 5048SOL    HW216977  13.204   9.806   1.790
 5049SOL     OW16978  11.599   1.313   7.264
 5049SOL    HW116979  11.648   1.238   7.296
 5049SOL    HW216980  11.603   1.305   7.169
 5050SOL     OW16981   2.724   7.612   0.025
 5050SOL    HW116982   2.772   7.676  14.853
 5050SOL    HW216983   2.789   7.547   0.049
 5051SOL     OW16984  14.073  11.931   6.042
 5051SOL    HW116985  14.070  12.026   6.053
 5051SOL    HW216986  14.167  11.909   6.047
 5052SOL     OW16987   6.724  10.825   9.943
 5052SOL    HW116988   6.784  10.849   9.872
 5052SOL    HW216989   6.673  10.753   9.908
 5053SOL     OW16990   2.297   2.220  12.361
 5053SOL    HW116991   2.383   2.247  12.328
 5053SOL    HW216992   2.254   2.180  12.285
 5054SOL     OW16993  14.286  10.784   9.821
 5054SOL    HW116994  14.283  10.706   9.765
 5054SOL    HW216995  14.244  10.852   9.768
 5055SOL     OW16996  11.908  10.641  10.536
 5055SOL    HW116997  11.918  10.736  10.532
 5055SOL    HW216998  11.985  10.610  10.583
 5056SOL     OW16999  14.785   3.625   3.429
 5056SOL    HW117000  14.702   3.586   3.457
 5056SOL    HW217001  14.769   3.719   3.432
 5057SOL     OW17002   1.634   1.063  13.960
 5057SOL    HW117003   1.618   0.971  13.939
 5057SOL    HW217004   1.548   1.096  13.986
 5058SOL     OW17005   0.957   2.523   2.372
 5058SOL    HW117006   0.986   2.454   2.432
 5058SOL    HW217007   0.862   2.516   2.371
 5059SOL     OW17008   6.900  13.979  11.638
 5059SOL    HW117009   6.982  13.947  11.600
 5059SOL    HW217010   6.927  14.051  11.695
 5060SOL     OW17011   5.294   9.782   9.724
 5060SOL    HW117012   5.326   9.692   9.722
 5060SOL    HW217013   5.198   9.773   9.720
 5061SOL     OW17014   9.858   6.340   0.993
 5061SOL    HW117015   9.773   6.358   1.031
 5061SOL    HW217016   9.882   6.420   0.947
 5062SOL     OW17017   9.070   9.353   8.667
 5062SOL    HW117018   8.982   9.391   8.669
 5062SOL    HW217019   9.057   9.261   8.691
 5063SOL     OW17020   7.083  10.768  12.271
 5063SOL    HW117021   7.059  10.749  12.362
 5063SOL    HW217022   7.051  10.857  12.255
 5064SOL     OW17023  12.814   5.202   9.970
 5064SOL    HW117024  12.749   5.237  10.031
 5064SOL    HW217025  12.831   5.113  10.002
 5065SOL     OW17026   5.005  10.942   0.499
 5065SOL    HW117027   4.920  10.934   0.455
 5065SOL    HW217028   5.011  11.035   0.523
 5066SOL     OW17029  10.203   7.060  11.986
 5066SOL    HW117030  10.277   7.060  11.925
 5066SOL    HW217031  10.171   6.970  11.985
 5067SOL     OW17032   8.799   4.340   0.043
 5067SOL    HW117033   8.802   4.261  14.871
 5067SOL    HW217034   8.879   4.388   0.020
 5068SOL     OW17035  10.272   5.874   9.128
 5068SOL    HW117036  10.299   5.961   9.096
 5068SOL    HW217037  10.214   5.841   9.059
 5069SOL     OW17038   3.707   6.804   6.884
 5069SOL    HW117039   3.784   6.805   6.826
 5069SOL    HW217040   3.736   6.753   6.960
 5070SOL     OW17041  13.570  14.700   5.195
 5070SOL    HW117042  13.534  14.739   5.275
 5070SOL    HW217043  13.512  14.731   5.126
 5071SOL     OW17044   6.157  14.722   9.152
 5071SOL    HW117045   6.149  14.725   9.248
 5071SOL    HW217046   6.235  14.773   9.133
 5072SOL     OW17047  12.633   6.609  12.977
 5072SOL    HW117048  12.624   6.516  12.999
 5072SOL    HW217049  12.723   6.631  13.000
 5073SOL     OW17050   2.097   9.840  10.693
 5073SOL    HW117051   2.148   9.847  10.612
 5073SOL    HW217052   2.006   9.848  10.665
 5074SOL     OW17053   3.798  13.425   8.488
 5074SOL    HW117054   3.740  13.496   8.459
 5074SOL    HW217055   3.780  13.353   8.428
 5075SOL     OW17056  11.917  10.556  13.614
 5075SOL    HW117057  11.960  10.641  13.624
 5075SOL    HW217058  11.970  10.509  13.550
 5076SOL     OW17059   1.543   3.736   6.408
 5076SOL    HW117060   1.583   3.792   6.474
 5076SOL    HW217061   1.582   3.765   6.325
 5077SOL     OW17062  13.296  14.528   6.849
 5077SOL    HW117063  13.267  14.510   6.760
 5077SOL    HW217064  13.330  14.618   6.845
 5078SOL     OW17065  13.926   5.817   5.253
 5078SOL    HW117066  13.964   5.898   5.285
 5078SOL    HW217067  13.840   5.842   5.219
 5079SOL     OW17068  12.890  12.126   9.315
 5079SOL    HW117069  12.885  12.039   9.353
 5079SOL    HW217070  12.978  12.132   9.278
 5080SOL     OW17071   7.693  12.633   2.348
 5080SOL    HW117072   7.753  12.679   2.288
 5080SOL    HW217073   7.680  12.694   2.420
 5081SOL     OW17074  11.953   5.125  14.801
 5081SOL    HW117075  11.996   5.040  14.797
 5081SOL    HW217076  11.889   5.116  14.872
 5082SOL     OW17077   2.503   4.267   5.393
 5082SOL    HW117078   2.533   4.211   5.321
 5082SOL    HW217079   2.458   4.207   5.453
 5083SOL     OW17080  14.750   9.462   8.909
 5083SOL    HW117081  14.842   9.436   8.907
 5083SOL    HW217082  14.704   9.392   8.863
 5084SOL     OW17083  14.117   2.847   2.997
 5084SOL    HW117084  14.150   2.922   2.947
 5084SOL    HW217085  14.104   2.881   3.085
 5085SOL     OW17086  12.525  12.187   7.320
 5085SOL    HW117087  12.432  12.211   7.322
 5085SOL    HW217088  12.564  12.247   7.255
 5086SOL     OW17089   7.720  13.916   7.091
 5086SOL    HW117090   7.696  13.860   7.017
 5086SOL    HW217091   7.732  13.857   7.164
 5087SOL     OW17092  13.065   1.435   4.636
 5087SOL    HW117093  13.022   1.520   4.624
 5087SOL    HW217094  13.141   1.455   4.692
 5088SOL     OW17095   6.525   2.217  11.215
 5088SOL    HW117096   6.447   2.212  11.270
 5088SOL    HW217097   6.499   2.173  11.134
 5089SOL     OW17098   3.786   1.088   8.808
 5089SOL    HW117099   3.806   1.101   8.715
 5089SOL    HW217100   3.691   1.098   8.814
 5090SOL     OW17101  10.273  10.843   7.649
 5090SOL    HW117102  10.243  10.934   7.646
 5090SOL    HW217103  10.365  10.847   7.625
 5091SOL     OW17104  11.032   9.118  14.051
 5091SOL    HW117105  11.002   9.059  13.981
 5091SOL    HW217106  11.128   9.115  14.045
 5092SOL     OW17107   3.059  13.222   4.569
 5092SOL    HW117108   2.965  13.229   4.586
 5092SOL    HW217109   3.081  13.132   4.593
 5093SOL     OW17110  14.306   5.419  14.704
 5093SOL    HW117111  14.347   5.374  14.777
 5093SOL    HW217112  14.369   5.485  14.677
 5094SOL     OW17113  13.460   2.693  10.239
 5094SOL    HW117114  13.489   2.650  10.158
 5094SOL    HW217115  13.541   2.717  10.283
 5095SOL     OW17116  11.933   9.098  10.016
 5095SOL    HW117117  11.916   9.097   9.922
 5095SOL    HW217118  11.978   9.181  10.031
 5096SOL     OW17119   8.299   0.167  11.005
 5096SOL    HW117120   8.281   0.261  11.003
 5096SOL    HW217121   8.360   0.155  11.077
 5097SOL     OW17122   1.943  10.256   2.870
 5097SOL    HW117123   2.015  10.204   2.907
 5097SOL    HW217124   1.887  10.192   2.827
 5098SOL     OW17125   5.423   9.809  14.745
 5098SOL    HW117126   5.347   9.767  14.786
 5098SOL    HW217127   5.482   9.736  14.725
 5099SOL     OW17128   2.082   1.466   9.103
 5099SOL    HW117129   2.114   1.510   9.024
 5099SOL    HW217130   2.147   1.397   9.120
 5100SOL     OW17131   7.801   4.365   8.909
 5100SOL    HW117132   7.818   4.272   8.925
 5100SOL    HW217133   7.881   4.396   8.867
 5101SOL     OW17134   7.293   8.536   8.979
 5101SOL    HW117135   7.288   8.441   8.993
 5101SOL    HW217136   7.383   8.551   8.951
 5102SOL     OW17137   7.671   5.387   7.105
 5102SOL    HW117138   7.588   5.364   7.062
 5102SOL    HW217139   7.709   5.455   7.049
 5103SOL     OW17140  10.500   3.607   6.227
 5103SOL    HW117141  10.447   3.569   6.157
 5103SOL    HW217142  10.585   3.564   6.220
 5104SOL     OW17143   1.415   8.558   0.374
 5104SOL    HW117144   1.351   8.539   0.443
 5104SOL    HW217145   1.481   8.613   0.417
 5105SOL     OW17146  14.563  14.451   1.125
 5105SOL    HW117147  14.586  14.508   1.198
 5105SOL    HW217148  14.626  14.473   1.057
 5106SOL     OW17149   8.885   9.911   2.809
 5106SOL    HW117150   8.921   9.985   2.761
 5106SOL    HW217151   8.855   9.947   2.892
 5107SOL     OW17152  12.291  12.404   4.997
 5107SOL    HW117153  12.293  12.309   5.004
 5107SOL    HW217154  12.205  12.428   5.030
 5108SOL     OW17155  13.938   1.215   8.196
 5108SOL    HW117156  13.943   1.119   8.202
 5108SOL    HW217157  13.919   1.244   8.285
 5109SOL     OW17158   0.038   9.255   3.479
 5109SOL    HW117159   0.130   9.254   3.453
 5109SOL    HW217160   0.006   9.340   3.449
 5110SOL     OW17161  12.772   3.321   1.690
 5110SOL    HW117162  12.822   3.243   1.666
 5110SOL    HW217163  12.815   3.392   1.641
 5111SOL     OW17164  13.102  10.921  12.758
 5111SOL    HW117165  13.136  10.882  12.839
 5111SOL    HW217166  13.007  10.911  12.764
 5112SOL     OW17167   1.277   5.688  12.184
 5112SOL    HW117168   1.331   5.631  12.239
 5112SOL    HW217169   1.218   5.732  12.245
 5113SOL     OW17170  13.812  10.193   4.551
 5113SOL    HW117171  13.759  10.114   4.552
 5113SOL    HW217172  13.818  10.220   4.643
 5114SOL     OW17173   9.709   1.449  12.045
 5114SOL    HW117174   9.617   1.473  12.033
 5114SOL    HW217175   9.734   1.407  11.963
 5115SOL     OW17176   5.054   0.199   3.546
 5115SOL    HW117177   5.149   0.200   3.559
 5115SOL    HW217178   5.022   0.130   3.603
 5116SOL     OW17179   8.427   8.799   6.700
 5116SOL    HW117180   8.502   8.740   6.709
 5116SOL    HW217181   8.357   8.757   6.750
 5117SOL     OW17182   6.199  14.723   5.784
 5117SOL    HW117183   6.166  14.799   5.736
 5117SOL    HW217184   6.179  14.648   5.728
 5118SOL     OW17185  12.285   3.134  11.692
 5118SOL    HW117186  12.319   3.223  11.696
 5118SOL    HW217187  12.221   3.130  11.763
 5119SOL     OW17188   5.451   2.853   9.692
 5119SOL    HW117189   5.450   2.794   9.616
 5119SOL    HW217190   5.363   2.845   9.729
 5120SOL     OW17191   6.015   6.455   1.185
 5120SOL    HW117192   5.935   6.470   1.236
 5120SOL    HW217193   6.086   6.467   1.247
 5121SOL     OW17194   0.173  11.771   7.824
 5121SOL    HW117195   0.201  11.818   7.903
 5121SOL    HW217196   0.252  11.724   7.796
 5122SOL     OW17197   1.101  12.279   6.672
 5122SOL    HW117198   1.169  12.272   6.740
 5122SOL    HW217199   1.108  12.369   6.641
 5123SOL     OW17200   9.478  10.597   6.067
 5123SOL    HW117201   9.537  10.554   6.129
 5123SOL    HW217202   9.425  10.526   6.031
 5124SOL     OW17203   7.702   8.256   2.703
 5124SOL    HW117204   7.635   8.188   2.715
 5124SOL    HW217205   7.702   8.272   2.608
 5125SOL     OW17206  11.837   6.355   2.634
 5125SOL    HW117207  11.854   6.444   2.667
 5125SOL    HW217208  11.742   6.351   2.625
 5126SOL     OW17209   8.197   6.267  12.775
 5126SOL    HW117210   8.152   6.273  12.691
 5126SOL    HW217211   8.258   6.194  12.765
 5127SOL     OW17212  10.926   0.890   7.687
 5127SOL    HW117213  10.930   0.870   7.781
 5127SOL    HW217214  10.877   0.972   7.682
 5128SOL     OW17215   0.254  10.012   9.134
 5128SOL    HW117216   0.251  10.053   9.220
 5128SOL    HW217217   0.203  10.070   9.077
 5129SOL     OW17218   4.118   2.753   6.602
 5129SOL    HW117219   4.131   2.685   6.537
 5129SOL    HW217220   4.026   2.780   6.592
 5130SOL     OW17221   1.711   3.231  10.857
 5130SOL    HW117222   1.645   3.162  10.850
 5130SOL    HW217223   1.768   3.218  10.781
 5131SOL     OW17224  10.662  11.559   6.456
 5131SOL    HW117225  10.575  11.519   6.447
 5131SOL    HW217226  10.720  11.501   6.406
 5132SOL     OW17227   7.590  13.158  13.568
 5132SOL    HW117228   7.562  13.111  13.490
 5132SOL    HW217229   7.563  13.102  13.641
 5133SOL     OW17230   8.289  13.456  14.523
 5133SOL    HW117231   8.359  13.516  14.496
 5133SOL    HW217232   8.323  13.414  14.602
 5134SOL     OW17233   0.338   9.329   1.162
 5134SOL    HW117234   0.295   9.414   1.159
 5134SOL    HW217235   0.427   9.346   1.132
 5135SOL     OW17236   5.468   3.868   8.137
 5135SOL    HW117237   5.468   3.919   8.055
 5135SOL    HW217238   5.492   3.780   8.110
 5136SOL     OW17239   1.584   9.229   6.962
 5136SOL    HW117240   1.679   9.219   6.960
 5136SOL    HW217241   1.557   9.227   6.870
 5137SOL     OW17242  14.479   0.018   4.562
 5137SOL    HW117243  14.472   0.114   4.555
 5137SOL    HW217244  14.389  14.870   4.570
 5138SOL     OW17245   4.349  11.430   3.356
 5138SOL    HW117246   4.406  11.354   3.340
 5138SOL    HW217247   4.280  11.397   3.413
 5139SOL     OW17248   4.506   4.376   0.690
 5139SOL    HW117249   4.461   4.362   0.774
 5139SOL    HW217250   4.599   4.379   0.713
 5140SOL     OW17251  11.563   2.651   9.359
 5140SOL    HW117252  11.485   2.705   9.348
 5140SOL    HW217253  11.630   2.694   9.307
 5141SOL     OW17254   8.405   3.426  14.385
 5141SOL    HW117255   8.349   3.349  14.391
 5141SOL    HW217256   8.431   3.431  14.294
 5142SOL     OW17257   1.906   7.099   2.481
 5142SOL    HW117258   1.869   7.104   2.393
 5142SOL    HW217259   1.965   7.024   2.479
 5143SOL     OW17260   3.110   5.275  14.050
 5143SOL    HW117261   3.110   5.222  14.129
 5143SOL    HW217262   3.198   5.262  14.012
 5144SOL     OW17263   2.089  10.890   2.148
 5144SOL    HW117264   2.155  10.925   2.088
 5144SOL    HW217265   2.133  10.820   2.195
 5145SOL     OW17266   0.946   5.326  14.746
 5145SOL    HW117267   0.965   5.369  14.663
 5145SOL    HW217268   0.929   5.397  14.808
 5146SOL     OW17269   5.264  14.793   7.670
 5146SOL    HW117270   5.217  14.821   7.748
 5146SOL    HW217271   5.334  14.737   7.704
 5147SOL     OW17272   0.031   5.854  11.124
 5147SOL    HW117273   0.009   5.870  11.216
 5147SOL    HW217274   0.006   5.763  11.108
 5148SOL     OW17275  13.365  13.323   6.319
 5148SOL    HW117276  13.331  13.239   6.288
 5148SOL    HW217277  13.449  13.332   6.275
 5149SOL     OW17278   7.921   7.597   1.435
 5149SOL    HW117279   7.937   7.507   1.407
 5149SOL    HW217280   7.885   7.640   1.357
 5150SOL     OW17281   4.891   6.601   5.075
 5150SOL    HW117282   4.862   6.515   5.045
 5150SOL    HW217283   4.978   6.612   5.037
 5151SOL     OW17284   4.895   3.994   7.613
 5151SOL    HW117285   4.897   4.090   7.609
 5151SOL    HW217286   4.929   3.966   7.528
 5152SOL     OW17287   6.866  13.924   9.288
 5152SOL    HW117288   6.943  13.895   9.335
 5152SOL    HW217289   6.799  13.937   9.355
 5153SOL     OW17290   6.236   2.070   7.757
 5153SOL    HW117291   6.311   2.015   7.734
 5153SOL    HW217292   6.191   2.083   7.674
 5154SOL     OW17293   9.483   0.942  14.033
 5154SOL    HW117294   9.439   0.966  14.115
 5154SOL    HW217295   9.415   0.952  13.966
 5155SOL     OW17296  13.632  12.332   6.034
 5155SOL    HW117297  13.587  12.385   5.968
 5155SOL    HW217298  13.585  12.350   6.115
 5156SOL     OW17299  11.528  13.204  13.690
 5156SOL    HW117300  11.605  13.230  13.640
 5156SOL    HW217301  11.468  13.279  13.682
 5157SOL     OW17302  14.125   5.167   1.512
 5157SOL    HW117303  14.092   5.134   1.596
 5157SOL    HW217304  14.050   5.214   1.474
 5158SOL     OW17305  12.555  12.153   6.252
 5158SOL    HW117306  12.475  12.103   6.236
 5158SOL    HW217307  12.622  12.108   6.199
 5159SOL     OW17308   4.572   6.560  11.409
 5159SOL    HW117309   4.496   6.533  11.462
 5159SOL    HW217310   4.536   6.581  11.323
 5160SOL     OW17311  13.817  14.425   1.954
 5160SOL    HW117312  13.726  14.433   1.981
 5160SOL    HW217313  13.847  14.344   1.995
 5161SOL     OW17314   0.918   5.408  14.458
 5161SOL    HW117315   0.955   5.489  14.424
 5161SOL    HW217316   0.924   5.346  14.386
 5162SOL     OW17317   0.361   9.442  10.459
 5162SOL    HW117318   0.378   9.366  10.514
 5162SOL    HW217319   0.365   9.409  10.369
 5163SOL     OW17320   2.477   6.619   5.739
 5163SOL    HW117321   2.390   6.647   5.766
 5163SOL    HW217322   2.537   6.671   5.792
 5164SOL     OW17323   7.871   5.786  10.522
 5164SOL    HW117324   7.901   5.714  10.578
 5164SOL    HW217325   7.853   5.858  10.583
 5165SOL     OW17326   8.675   4.391   9.393
 5165SOL    HW117327   8.725   4.449   9.450
 5165SOL    HW217328   8.740   4.334   9.353
 5166SOL     OW17329   4.539  11.255   5.843
 5166SOL    HW117330   4.476  11.184   5.851
 5166SOL    HW217331   4.578  11.244   5.756
 5167SOL     OW17332   7.301   6.090   5.139
 5167SOL    HW117333   7.345   6.122   5.061
 5167SOL    HW217334   7.207   6.100   5.119
 5168SOL     OW17335   9.399   4.987   3.870
 5168SOL    HW117336   9.452   5.048   3.921
 5168SOL    HW217337   9.316   5.032   3.856
 5169SOL     OW17338   1.329   8.490  14.724
 5169SOL    HW117339   1.361   8.580  14.715
 5169SOL    HW217340   1.353   8.466  14.814
 5170SOL     OW17341   3.003   4.214  13.654
 5170SOL    HW117342   3.053   4.252  13.726
 5170SOL    HW217343   3.043   4.250  13.575
 5171SOL     OW17344   0.773   6.853   1.575
 5171SOL    HW117345   0.775   6.769   1.620
 5171SOL    HW217346   0.690   6.892   1.600
 5172SOL     OW17347  14.781   9.415   7.836
 5172SOL    HW117348  14.857   9.427   7.894
 5172SOL    HW217349  14.819   9.410   7.748
 5173SOL     OW17350   1.369   0.570   1.202
 5173SOL    HW117351   1.446   0.560   1.258
 5173SOL    HW217352   1.323   0.647   1.237
 5174SOL     OW17353   4.179  10.639   1.527
 5174SOL    HW117354   4.233  10.717   1.531
 5174SOL    HW217355   4.224  10.582   1.465
 5175SOL     OW17356   1.794   9.239   5.670
 5175SOL    HW117357   1.790   9.242   5.765
 5175SOL    HW217358   1.886   9.253   5.649
 5176SOL     OW17359   1.764   8.788   3.503
 5176SOL    HW117360   1.716   8.719   3.549
 5176SOL    HW217361   1.786   8.851   3.572
 5177SOL     OW17362   3.689   7.961   5.715
 5177SOL    HW117363   3.782   7.961   5.692
 5177SOL    HW217364   3.663   8.052   5.709
 5178SOL     OW17365  13.987   2.218   1.076
 5178SOL    HW117366  14.008   2.185   1.163
 5178SOL    HW217367  14.071   2.243   1.039
 5179SOL     OW17368   6.860   5.486   7.283
 5179SOL    HW117369   6.818   5.439   7.356
 5179SOL    HW217370   6.822   5.574   7.287
 5180SOL     OW17371   9.568   7.524  11.878
 5180SOL    HW117372   9.603   7.614  11.878
 5180SOL    HW217373   9.622   7.478  11.943
 5181SOL     OW17374  11.862  11.747   3.756
 5181SOL    HW117375  11.942  11.738   3.704
 5181SOL    HW217376  11.856  11.665   3.804
 5182SOL     OW17377   1.165  14.195   1.375
 5182SOL    HW117378   1.169  14.160   1.464
 5182SOL    HW217379   1.132  14.122   1.322
 5183SOL     OW17380   9.325  12.631   3.835
 5183SOL    HW117381   9.367  12.669   3.758
 5183SOL    HW217382   9.300  12.542   3.807
 5184SOL     OW17383   2.958  10.847   4.705
 5184SOL    HW117384   3.004  10.902   4.641
 5184SOL    HW217385   2.866  10.858   4.684
 5185SOL     OW17386   3.767  11.140  12.137
 5185SOL    HW117387   3.846  11.167  12.090
 5185SOL    HW217388   3.696  11.186  12.093
 5186SOL     OW17389   8.165   2.427  11.273
 5186SOL    HW117390   8.142   2.399  11.361
 5186SOL    HW217391   8.185   2.520  11.281
 5187SOL     OW17392  13.268  14.547  11.907
 5187SOL    HW117393  13.188  14.522  11.954
 5187SOL    HW217394  13.308  14.464  11.882
 5188SOL     OW17395   8.100  12.055   4.860
 5188SOL    HW117396   8.145  12.097   4.787
 5188SOL    HW217397   8.074  11.969   4.826
 5189SOL     OW17398  10.865   3.938   5.177
 5189SOL    HW117399  10.885   3.872   5.111
 5189SOL    HW217400  10.881   3.894   5.261
 5190SOL     OW17401   3.820   1.674   7.084
 5190SOL    HW117402   3.778   1.666   7.170
 5190SOL    HW217403   3.861   1.589   7.069
 5191SOL     OW17404   4.112   4.192   0.037
 5191SOL    HW117405   4.198   4.233   0.048
 5191SOL    HW217406   4.051   4.266   0.034
 5192SOL     OW17407   5.273   2.843   5.898
 5192SOL    HW117408   5.316   2.815   5.817
 5192SOL    HW217409   5.198   2.785   5.906
 5193SOL     OW17410   7.166   8.174   4.798
 5193SOL    HW117411   7.173   8.082   4.824
 5193SOL    HW217412   7.187   8.223   4.877
 5194SOL     OW17413   8.572  14.709  13.537
 5194SOL    HW117414   8.604  14.791  13.500
 5194SOL    HW217415   8.594  14.643  13.470
 5195SOL     OW17416   8.722   7.547   4.540
 5195SOL    HW117417   8.814   7.568   4.552
 5195SOL    HW217418   8.706   7.475   4.601
 5196SOL     OW17419  10.796   8.366  12.980
 5196SOL    HW117420  10.879   8.318  12.969
 5196SOL    HW217421  10.729   8.297  12.980
 5197SOL     OW17422   6.735  13.564   7.743
 5197SOL    HW117423   6.775  13.651   7.737
 5197SOL    HW217424   6.771  13.526   7.823
 5198SOL     OW17425  11.043  10.172   5.363
 5198SOL    HW117426  11.004  10.103   5.309
 5198SOL    HW217427  10.971  10.232   5.382
 5199SOL     OW17428   6.115  12.496   0.183
 5199SOL    HW117429   6.044  12.470   0.125
 5199SOL    HW217430   6.187  12.438   0.159
 5200SOL     OW17431   9.233  12.569  14.397
 5200SOL    HW117432   9.159  12.604  14.347
 5200SOL    HW217433   9.310  12.608  14.357
 5201SOL     OW17434   0.130  11.426   9.749
 5201SOL    HW117435   0.214  11.422   9.795
 5201SOL    HW217436   0.099  11.515   9.764
 5202SOL     OW17437  10.276   6.337   1.894
 5202SOL    HW117438  10.357   6.359   1.941
 5202SOL    HW217439  10.221   6.295   1.960
 5203SOL     OW17440  13.629   1.090   5.620
 5203SOL    HW117441  13.551   1.142   5.601
 5203SOL    HW217442  13.679   1.144   5.681
 5204SOL     OW17443   6.418   0.834   4.156
 5204SOL    HW117444   6.483   0.765   4.141
 5204SOL    HW217445   6.350   0.819   4.091
 5205SOL     OW17446   8.470  12.346   0.942
 5205SOL    HW117447   8.564  12.330   0.945
 5205SOL    HW217448   8.459  12.409   0.871
 5206SOL     OW17449   8.301   1.012   6.284
 5206SOL    HW117450   8.210   0.995   6.259
 5206SOL    HW217451   8.319   1.101   6.253
 5207SOL     OW17452  10.737  14.332   8.552
 5207SOL    HW117453  10.688  14.255   8.581
 5207SOL    HW217454  10.711  14.401   8.613
 5208SOL     OW17455  10.935   7.841   0.531
 5208SOL    HW117456  10.903   7.869   0.445
 5208SOL    HW217457  11.023   7.879   0.537
 5209SOL     OW17458   6.350   9.651   3.317
 5209SOL    HW117459   6.290   9.724   3.304
 5209SOL    HW217460   6.399   9.645   3.235
 5210SOL     OW17461   3.700   5.777  12.673
 5210SOL    HW117462   3.616   5.730  12.675
 5210SOL    HW217463   3.692   5.837  12.598
 5211SOL     OW17464  14.073   6.956  12.319
 5211SOL    HW117465  14.043   6.870  12.292
 5211SOL    HW217466  14.122   6.941  12.400
 5212SOL     OW17467   8.751   0.717   8.026
 5212SOL    HW117468   8.833   0.742   8.069
 5212SOL    HW217469   8.698   0.797   8.028
 5213SOL     OW17470   9.375  14.111   6.253
 5213SOL    HW117471   9.340  14.062   6.179
 5213SOL    HW217472   9.429  14.048   6.301
 5214SOL     OW17473  13.653  12.066   0.543
 5214SOL    HW117474  13.603  11.986   0.562
 5214SOL    HW217475  13.724  12.065   0.607
 5215SOL     OW17476  12.796   0.807   7.389
 5215SOL    HW117477  12.701   0.792   7.383
 5215SOL    HW217478  12.831   0.724   7.420
 5216SOL     OW17479   8.403  13.300   4.450
 5216SOL    HW117480   8.321  13.346   4.435
 5216SOL    HW217481   8.460  13.329   4.379
 5217SOL     OW17482   5.770   9.654  12.091
 5217SOL    HW117483   5.728   9.589  12.036
 5217SOL    HW217484   5.754   9.737  12.046
 5218SOL     OW17485  13.366   4.699  11.205
 5218SOL    HW117486  13.423   4.742  11.269
 5218SOL    HW217487  13.364   4.759  11.130
 5219SOL     OW17488   8.890  12.628   9.390
 5219SOL    HW117489   8.795  12.630   9.382
 5219SOL    HW217490   8.913  12.712   9.430
 5220SOL     OW17491   8.420   7.601   8.118
 5220SOL    HW117492   8.405   7.570   8.207
 5220SOL    HW217493   8.429   7.696   8.127
 5221SOL     OW17494   3.056   3.234   5.632
 5221SOL    HW117495   3.134   3.285   5.652
 5221SOL    HW217496   3.089   3.148   5.605
 5222SOL     OW17497   5.459   6.505   8.890
 5222SOL    HW117498   5.454   6.570   8.960
 5222SOL    HW217499   5.397   6.436   8.916
 5223SOL     OW17500   3.501   2.975  10.413
 5223SOL    HW117501   3.484   3.054  10.361
 5223SOL    HW217502   3.452   2.989  10.495
 5224SOL     OW17503  13.835   6.613   9.088
 5224SOL    HW117504  13.788   6.691   9.119
 5224SOL    HW217505  13.919   6.615   9.133
 5225SOL     OW17506   7.946  13.723   6.816
 5225SOL    HW117507   7.941  13.647   6.874
 5225SOL    HW217508   8.012  13.779   6.856
 5226SOL     OW17509   3.910   8.649  11.110
 5226SOL    HW117510   3.865   8.566  11.091
 5226SOL    HW217511   3.990   8.622  11.155
 5227SOL     OW17512   9.729   0.265   8.587
 5227SOL    HW117513   9.687   0.257   8.673
 5227SOL    HW217514   9.659   0.297   8.530
 5228SOL     OW17515   4.024  14.272  12.529
 5228SOL    HW117516   4.089  14.227  12.583
 5228SOL    HW217517   4.038  14.365  12.549
 5229SOL     OW17518  10.111  13.931  14.603
 5229SOL    HW117519  10.129  13.956  14.512
 5229SOL    HW217520  10.150  14.001  14.655
 5230SOL     OW17521   0.568   7.215   4.338
 5230SOL    HW117522   0.533   7.282   4.279
 5230SOL    HW217523   0.504   7.144   4.334
 5231SOL     OW17524   1.286   9.893   8.122
 5231SOL    HW117525   1.242   9.840   8.188
 5231SOL    HW217526   1.218   9.914   8.058
 5232SOL     OW17527   1.149   1.031   4.728
 5232SOL    HW117528   1.160   1.089   4.653
 5232SOL    HW217529   1.238   0.999   4.746
 5233SOL     OW17530  14.218   4.725   9.096
 5233SOL    HW117531  14.150   4.678   9.048
 5233SOL    HW217532  14.195   4.712   9.188
 5234SOL     OW17533   4.748   2.597   7.829
 5234SOL    HW117534   4.723   2.606   7.737
 5234SOL    HW217535   4.778   2.684   7.855
 5235SOL     OW17536  13.427  11.783   0.311
 5235SOL    HW117537  13.506  11.759   0.359
 5235SOL    HW217538  13.382  11.699   0.296
 5236SOL     OW17539  14.641  10.306  14.499
 5236SOL    HW117540  14.581  10.330  14.570
 5236SOL    HW217541  14.639  10.210  14.497
 5237SOL     OW17542   6.543  10.704   5.967
 5237SOL    HW117543   6.629  10.741   5.987
 5237SOL    HW217544   6.560  10.611   5.950
 5238SOL     OW17545  12.076   3.594   4.161
 5238SOL    HW117546  12.001   3.535   4.151
 5238SOL    HW217547  12.064   3.633   4.248
 5239SOL     OW17548   1.941  12.501   1.143
 5239SOL    HW117549   1.943  12.425   1.202
 5239SOL    HW217550   2.032  12.528   1.136
 5240SOL     OW17551   0.947   9.298  14.613
 5240SOL    HW117552   1.012   9.265  14.551
 5240SOL    HW217553   0.863   9.273  14.576
 5241SOL     OW17554   9.457   3.742  12.575
 5241SOL    HW117555   9.467   3.760  12.481
 5241SOL    HW217556   9.362   3.739  12.588
 5242SOL     OW17557  14.291   7.423   8.961
 5242SOL    HW117558  14.293   7.510   9.001
 5242SOL    HW217559  14.250   7.367   9.027
 5243SOL     OW17560   0.396  11.357   3.593
 5243SOL    HW117561   0.464  11.381   3.529
 5243SOL    HW217562   0.436  11.285   3.643
 5244SOL     OW17563   2.376  11.654  13.371
 5244SOL    HW117564   2.353  11.598  13.445
 5244SOL    HW217565   2.295  11.700  13.350
 5245SOL     OW17566  13.013   7.399  14.247
 5245SOL    HW117567  13.090   7.346  14.227
 5245SOL    HW217568  13.031   7.435  14.334
 5246SOL     OW17569   2.182   5.343   7.057
 5246SOL    HW117570   2.109   5.404   7.045
 5246SOL    HW217571   2.230   5.377   7.132
 5247SOL     OW17572   7.884   6.518   6.523
 5247SOL    HW117573   7.808   6.469   6.493
 5247SOL    HW217574   7.926   6.461   6.587
 5248SOL     OW17575  14.045   3.440  11.836
 5248SOL    HW117576  14.105   3.485  11.776
 5248SOL    HW217577  14.057   3.484  11.920
 5249SOL     OW17578   6.620   2.727  14.380
 5249SOL    HW117579   6.560   2.786  14.425
 5249SOL    HW217580   6.693   2.717  14.441
 5250SOL     OW17581   9.913   7.723  12.319
 5250SOL    HW117582   9.883   7.695  12.406
 5250SOL    HW217583   9.916   7.818  12.324
 5251SOL     OW17584  12.652   8.240   7.958
 5251SOL    HW117585  12.674   8.330   7.933
 5251SOL    HW217586  12.706   8.223   8.035
 5252SOL     OW17587   4.946   2.469   6.410
 5252SOL    HW117588   5.009   2.409   6.369
 5252SOL    HW217589   4.979   2.556   6.389
 5253SOL     OW17590   2.808   1.535  13.313
 5253SOL    HW117591   2.871   1.562  13.380
 5253SOL    HW217592   2.853   1.467  13.263
 5254SOL     OW17593  10.164   9.235   1.700
 5254SOL    HW117594  10.238   9.279   1.657
 5254SOL    HW217595  10.199   9.149   1.725
 5255SOL     OW17596   2.153  11.667   9.719
 5255SOL    HW117597   2.084  11.712   9.767
 5255SOL    HW217598   2.138  11.690   9.628
 5256SOL     OW17599   7.286   8.108   2.171
 5256SOL    HW117600   7.220   8.042   2.152
 5256SOL    HW217601   7.318   8.086   2.259
 5257SOL     OW17602   8.478   5.486   3.833
 5257SOL    HW117603   8.486   5.581   3.828
 5257SOL    HW217604   8.389   5.470   3.863
 5258SOL     OW17605  14.078   3.155   3.763
 5258SOL    HW117606  14.111   3.196   3.843
 5258SOL    HW217607  14.078   3.224   3.698
 5259SOL     OW17608  12.927   1.944  12.843
 5259SOL    HW117609  12.836   1.965  12.864
 5259SOL    HW217610  12.943   1.860  12.888
 5260SOL     OW17611   0.552   6.556   4.449
 5260SOL    HW117612   0.512   6.643   4.443
 5260SOL    HW217613   0.553   6.524   4.358
 5261SOL     OW17614   2.221   8.696   1.477
 5261SOL    HW117615   2.196   8.782   1.444
 5261SOL    HW217616   2.176   8.634   1.420
 5262SOL     OW17617   6.275   2.893  14.131
 5262SOL    HW117618   6.180   2.903  14.145
 5262SOL    HW217619   6.313   2.972  14.171
 5263SOL     OW17620  12.539  12.659  11.010
 5263SOL    HW117621  12.613  12.707  11.048
 5263SOL    HW217622  12.515  12.711  10.933
 5264SOL     OW17623  14.602  11.474   9.170
 5264SOL    HW117624  14.623  11.558   9.211
 5264SOL    HW217625  14.564  11.422   9.240
 5265SOL     OW17626  10.282   3.685   3.347
 5265SOL    HW117627  10.335   3.700   3.268
 5265SOL    HW217628  10.304   3.758   3.405
 5266SOL     OW17629  13.920   1.488   6.025
 5266SOL    HW117630  13.933   1.396   6.048
 5266SOL    HW217631  13.843   1.514   6.075
 5267SOL     OW17632  14.007   3.851   1.740
 5267SOL    HW117633  13.941   3.799   1.694
 5267SOL    HW217634  14.090   3.814   1.711
 5268SOL     OW17635   3.031   1.862   8.686
 5268SOL    HW117636   2.948   1.888   8.645
 5268SOL    HW217637   3.020   1.769   8.704
 5269SOL     OW17638   6.134   8.456   1.355
 5269SOL    HW117639   6.123   8.551   1.365
 5269SOL    HW217640   6.110   8.439   1.264
 5270SOL     OW17641  11.635   4.113   6.794
 5270SOL    HW117642  11.642   4.140   6.702
 5270SOL    HW217643  11.548   4.076   6.802
 5271SOL     OW17644  14.820   8.083  10.282
 5271SOL    HW117645  14.808   7.995  10.315
 5271SOL    HW217646  14.732   8.118  10.271
 5272SOL     OW17647  12.993   1.155   4.113
 5272SOL    HW117648  13.030   1.134   4.027
 5272SOL    HW217649  12.916   1.209   4.094
 5273SOL     OW17650  10.385   5.220   9.939
 5273SOL    HW117651  10.323   5.293   9.933
 5273SOL    HW217652  10.418   5.225  10.029
 5274SOL     OW17653   3.049  14.723   0.826
 5274SOL    HW117654   2.981  14.789   0.844
 5274SOL    HW217655   3.008  14.662   0.766
 5275SOL     OW17656   9.653   7.159  11.066
 5275SOL    HW117657   9.656   7.064  11.062
 5275SOL    HW217658   9.569   7.182  11.027
 5276SOL     OW17659  11.769   2.193  10.537
 5276SOL    HW117660  11.688   2.155  10.503
 5276SOL    HW217661  11.747   2.285  10.554
 5277SOL     OW17662   0.638   0.610   2.273
 5277SOL    HW117663   0.639   0.588   2.366
 5277SOL    HW217664   0.664   0.702   2.269
 5278SOL     OW17665   3.166   3.517  10.071
 5278SOL    HW117666   3.139   3.478  10.153
 5278SOL    HW217667   3.244   3.469  10.045
 5279SOL     OW17668   6.281   2.160   4.177
 5279SOL    HW117669   6.230   2.091   4.134
 5279SOL    HW217670   6.271   2.236   4.121
 5280SOL     OW17671   9.448  13.979   0.119
 5280SOL    HW117672   9.457  13.922   0.196
 5280SOL    HW217673   9.538  14.003   0.096
 5281SOL     OW17674  14.105   9.453   6.012
 5281SOL    HW117675  14.019   9.487   6.038
 5281SOL    HW217676  14.130   9.395   6.083
 5282SOL     OW17677  12.513   3.902   5.782
 5282SOL    HW117678  12.536   3.893   5.690
 5282SOL    HW217679  12.593   3.875   5.829
 5283SOL     OW17680   2.643   4.462   6.925
 5283SOL    HW117681   2.725   4.453   6.876
 5283SOL    HW217682   2.617   4.372   6.946
 5284SOL     OW17683  13.806   5.873   0.892
 5284SOL    HW117684  13.835   5.797   0.942
 5284SOL    HW217685  13.844   5.860   0.805
 5285SOL     OW17686  14.617   1.940   5.085
 5285SOL    HW117687  14.650   1.975   5.002
 5285SOL    HW217688  14.686   1.883   5.116
 5286SOL     OW17689   4.836   0.213   5.636
 5286SOL    HW117690   4.786   0.261   5.702
 5286SOL    HW217691   4.786   0.224   5.555
 5287SOL     OW17692   4.062  14.459   5.691
 5287SOL    HW117693   4.108  14.471   5.607
 5287SOL    HW217694   4.013  14.541   5.703
 5288SOL     OW17695   3.735   2.000   4.950
 5288SOL    HW117696   3.794   1.932   4.983
 5288SOL    HW217697   3.650   1.979   4.988
 5289SOL     OW17698   8.262  11.598  12.641
 5289SOL    HW117699   8.343  11.583  12.593
 5289SOL    HW217700   8.229  11.510  12.660
 5290SOL     OW17701  13.776   6.824  11.495
 5290SOL    HW117702  13.857   6.863  11.529
 5290SOL    HW217703  13.756   6.753  11.556
 5291SOL     OW17704   0.353   0.979   1.560
 5291SOL    HW117705   0.359   0.924   1.639
 5291SOL    HW217706   0.355   1.069   1.594
 5292SOL     OW17707  12.377   9.894  11.697
 5292SOL    HW117708  12.314   9.845  11.643
 5292SOL    HW217709  12.336   9.896  11.784
 5293SOL     OW17710  13.518  12.945   4.045
 5293SOL    HW117711  13.459  12.907   3.980
 5293SOL    HW217712  13.552  12.870   4.094
 5294SOL     OW17713   2.883   7.659   4.404
 5294SOL    HW117714   2.898   7.636   4.495
 5294SOL    HW217715   2.790   7.641   4.389
 5295SOL     OW17716   7.599   2.858  11.830
 5295SOL    HW117717   7.681   2.869  11.781
 5295SOL    HW217718   7.624   2.873  11.921
 5296SOL     OW17719   5.595   1.420   2.213
 5296SOL    HW117720   5.632   1.381   2.292
 5296SOL    HW217721   5.545   1.495   2.244
 5297SOL     OW17722   2.985  10.088   4.180
 5297SOL    HW117723   3.021  10.085   4.091
 5297SOL    HW217724   2.912  10.027   4.179
 5298SOL     OW17725   0.757   5.370   9.638
 5298SOL    HW117726   0.669   5.335   9.622
 5298SOL    HW217727   0.754   5.401   9.729
 5299SOL     OW17728  11.728  11.071  14.328
 5299SOL    HW117729  11.723  11.157  14.370
 5299SOL    HW217730  11.640  11.035  14.336
 5300SOL     OW17731   8.180  12.821   5.156
 5300SOL    HW117732   8.131  12.741   5.174
 5300SOL    HW217733   8.222  12.843   5.240
 5301SOL     OW17734   9.324   1.944   2.206
 5301SOL    HW117735   9.276   2.026   2.214
 5301SOL    HW217736   9.337   1.931   2.112
 5302SOL     OW17737   1.499   3.196   9.573
 5302SOL    HW117738   1.471   3.233   9.489
 5302SOL    HW217739   1.448   3.244   9.638
 5303SOL     OW17740   5.306   3.039   5.203
 5303SOL    HW117741   5.342   3.127   5.191
 5303SOL    HW217742   5.381   2.981   5.194
 5304SOL     OW17743   3.653  11.750   7.095
 5304SOL    HW117744   3.653  11.754   7.191
 5304SOL    HW217745   3.667  11.840   7.067
 5305SOL     OW17746   1.190   9.973  10.664
 5305SOL    HW117747   1.161  10.064  10.673
 5305SOL    HW217748   1.285   9.980  10.652
 5306SOL     OW17749  13.389   1.236   5.558
 5306SOL    HW117750  13.395   1.167   5.493
 5306SOL    HW217751  13.388   1.190   5.642
 5307SOL     OW17752   7.421  11.546   8.622
 5307SOL    HW117753   7.483  11.613   8.652
 5307SOL    HW217754   7.471  11.491   8.562
 5308SOL     OW17755   0.617  13.563   4.111
 5308SOL    HW117756   0.649  13.473   4.108
 5308SOL    HW217757   0.689  13.613   4.151
 5309SOL     OW17758   1.421   9.279  12.585
 5309SOL    HW117759   1.504   9.326  12.594
 5309SOL    HW217760   1.382   9.283  12.673
 5310SOL     OW17761  12.264   6.934  12.707
 5310SOL    HW117762  12.231   6.913  12.794
 5310SOL    HW217763  12.186   6.935  12.651
 5311SOL     OW17764   1.572   4.953   6.849
 5311SOL    HW117765   1.580   5.028   6.791
 5311SOL    HW217766   1.658   4.910   6.844
 5312SOL     OW17767   8.143   8.773   7.594
 5312SOL    HW117768   8.050   8.755   7.581
 5312SOL    HW217769   8.146   8.859   7.636
 5313SOL     OW17770   5.585   8.847  10.394
 5313SOL    HW117771   5.573   8.881  10.305
 5313SOL    HW217772   5.496   8.839  10.428
 5314SOL     OW17773   6.295   5.562  10.262
 5314SOL    HW117774   6.204   5.589  10.249
 5314SOL    HW217775   6.346   5.624  10.210
 5315SOL     OW17776   6.430  14.026   7.025
 5315SOL    HW117777   6.492  14.039   6.954
 5315SOL    HW217778   6.485  13.999   7.099
 5316SOL     OW17779   1.450  12.368   5.939
 5316SOL    HW117780   1.477  12.380   5.848
 5316SOL    HW217781   1.439  12.273   5.948
 5317SOL     OW17782  12.736  10.526   0.036
 5317SOL    HW117783  12.696  10.487   0.113
 5317SOL    HW217784  12.756  10.452  14.860
 5318SOL     OW17785   3.281   8.813  11.461
 5318SOL    HW117786   3.243   8.771  11.384
 5318SOL    HW217787   3.299   8.903  11.434
 5319SOL     OW17788  14.448   8.822   1.741
 5319SOL    HW117789  14.500   8.900   1.756
 5319SOL    HW217790  14.503   8.750   1.772
 5320SOL     OW17791   2.680  12.969  12.503
 5320SOL    HW117792   2.623  12.892  12.510
 5320SOL    HW217793   2.766  12.933  12.484
 5321SOL     OW17794  12.030  12.909  11.836
 5321SOL    HW117795  12.076  12.833  11.802
 5321SOL    HW217796  12.091  12.948  11.899
 5322SOL     OW17797   7.232  14.784   9.260
 5322SOL    HW117798   7.145  14.782   9.220
 5322SOL    HW217799   7.292  14.792   9.186
 5323SOL     OW17800   5.727   9.501   8.550
 5323SOL    HW117801   5.769   9.567   8.495
 5323SOL    HW217802   5.783   9.495   8.627
 5324SOL     OW17803  13.999   3.881   7.243
 5324SOL    HW117804  14.011   3.908   7.152
 5324SOL    HW217805  13.992   3.786   7.239
 5325SOL     OW17806  12.320  11.353  14.354
 5325SOL    HW117807  12.300  11.345  14.447
 5325SOL    HW217808  12.330  11.447  14.339
 5326SOL     OW17809  11.945   3.494   8.651
 5326SOL    HW117810  11.913   3.585   8.654
 5326SOL    HW217811  11.972   3.482   8.560
 5327SOL     OW17812   7.822   6.639   5.838
 5327SOL    HW117813   7.907   6.683   5.842
 5327SOL    HW217814   7.827   6.570   5.905
 5328SOL     OW17815   8.459   9.366   3.936
 5328SOL    HW117816   8.434   9.291   3.882
 5328SOL    HW217817   8.527   9.410   3.885
 5329SOL     OW17818  11.792   9.698   5.917
 5329SOL    HW117819  11.886   9.687   5.906
 5329SOL    HW217820  11.765   9.620   5.966
 5330SOL     OW17821  12.878   4.048   8.276
 5330SOL    HW117822  12.851   4.017   8.189
 5330SOL    HW217823  12.964   4.087   8.261
 5331SOL     OW17824   1.927  14.013   2.696
 5331SOL    HW117825   1.858  14.040   2.635
 5331SOL    HW217826   1.973  14.095   2.718
 5332SOL     OW17827  11.264  12.661  13.119
 5332SOL    HW117828  11.339  12.650  13.061
 5332SOL    HW217829  11.297  12.640  13.206
 5333SOL     OW17830   4.734   2.642   9.310
 5333SOL    HW117831   4.767   2.721   9.354
 5333SOL    HW217832   4.800   2.623   9.243
 5334SOL     OW17833   7.334   5.581   1.948
 5334SOL    HW117834   7.307   5.519   2.016
 5334SOL    HW217835   7.258   5.638   1.936
 5335SOL     OW17836   2.026   4.506   7.817
 5335SOL    HW117837   2.056   4.429   7.768
 5335SOL    HW217838   1.932   4.511   7.796
 5336SOL     OW17839   3.961  12.504   9.334
 5336SOL    HW117840   3.922  12.547   9.411
 5336SOL    HW217841   4.000  12.575   9.284
 5337SOL     OW17842   2.818   8.053  11.143
 5337SOL    HW117843   2.839   8.135  11.189
 5337SOL    HW217844   2.742   8.075  11.089
 5338SOL     OW17845  13.136  12.615  13.154
 5338SOL    HW117846  13.061  12.595  13.210
 5338SOL    HW217847  13.173  12.529  13.132
 5339SOL     OW17848  12.633   2.030  12.553
 5339SOL    HW117849  12.674   2.100  12.603
 5339SOL    HW217850  12.557   2.005  12.605
 5340SOL     OW17851   8.095   8.264   7.297
 5340SOL    HW117852   8.101   8.323   7.222
 5340SOL    HW217853   8.087   8.322   7.373
 5341SOL     OW17854   6.083  13.677   1.140
 5341SOL    HW117855   6.075  13.690   1.045
 5341SOL    HW217856   6.169  13.636   1.151
 5342SOL     OW17857   1.937   8.603   7.940
 5342SOL    HW117858   1.887   8.605   7.859
 5342SOL    HW217859   1.900   8.674   7.993
 5343SOL     OW17860  12.776   1.191   0.197
 5343SOL    HW117861  12.722   1.113   0.186
 5343SOL    HW217862  12.823   1.200   0.114
 5344SOL     OW17863  11.709  11.556  10.896
 5344SOL    HW117864  11.779  11.583  10.955
 5344SOL    HW217865  11.649  11.505  10.951
 5345SOL     OW17866   5.946  10.783   1.041
 5345SOL    HW117867   6.005  10.750   0.973
 5345SOL    HW217868   5.947  10.878   1.030
 5346SOL     OW17869  11.374   3.941   7.893
 5346SOL    HW117870  11.463   3.945   7.926
 5346SOL    HW217871  11.356   3.847   7.881
 5347SOL     OW17872   8.083   2.906   1.668
 5347SOL    HW117873   8.063   2.822   1.711
 5347SOL    HW217874   8.070   2.888   1.575
 5348SOL     OW17875   2.296  12.945   6.479
 5348SOL    HW117876   2.318  13.023   6.428
 5348SOL    HW217877   2.358  12.879   6.449
 5349SOL     OW17878   4.797   7.464   1.423
 5349SOL    HW117879   4.783   7.545   1.473
 5349SOL    HW217880   4.725   7.463   1.360
 5350SOL     OW17881   7.370   4.805   0.948
 5350SOL    HW117882   7.459   4.784   0.919
 5350SOL    HW217883   7.332   4.853   0.875
 5351SOL     OW17884   5.168   1.534  11.181
 5351SOL    HW117885   5.103   1.566  11.243
 5351SOL    HW217886   5.147   1.577  11.099
 5352SOL     OW17887   5.045   9.373  11.123
 5352SOL    HW117888   5.071   9.314  11.195
 5352SOL    HW217889   5.124   9.423  11.105
 5353SOL     OW17890   6.893   6.351   0.763
 5353SOL    HW117891   6.923   6.378   0.850
 5353SOL    HW217892   6.969   6.310   0.722
 5354SOL     OW17893  10.155   8.360   5.160
 5354SOL    HW117894  10.157   8.393   5.250
 5354SOL    HW217895  10.240   8.318   5.148
 5355SOL     OW17896   2.358   0.041   5.868
 5355SOL    HW117897   2.397   0.023   5.954
 5355SOL    HW217898   2.389  14.851   5.813
 5356SOL     OW17899   9.351  13.490   0.361
 5356SOL    HW117900   9.282  13.465   0.299
 5356SOL    HW217901   9.327  13.445   0.442
 5357SOL     OW17902   1.747   9.342   6.450
 5357SOL    HW117903   1.694   9.414   6.485
 5357SOL    HW217904   1.835   9.361   6.483
 5358SOL     OW17905   7.171  10.124  14.293
 5358SOL    HW117906   7.248  10.180  14.288
 5358SOL    HW217907   7.198  10.050  14.347
 5359SOL     OW17908  10.741   6.215  10.961
 5359SOL    HW117909  10.647   6.216  10.945
 5359SOL    HW217910  10.770   6.303  10.939
 5360SOL     OW17911  10.501  13.939  14.505
 5360SOL    HW117912  10.464  14.026  14.514
 5360SOL    HW217913  10.534  13.917  14.592
 5361SOL     OW17914  13.568   7.616   9.413
 5361SOL    HW117915  13.483   7.613   9.368
 5361SOL    HW217916  13.604   7.528   9.403
 5362SOL     OW17917  13.353   5.085   1.023
 5362SOL    HW117918  13.350   5.007   0.967
 5362SOL    HW217919  13.434   5.075   1.073
 5363SOL     OW17920   4.913   6.300   2.427
 5363SOL    HW117921   4.945   6.388   2.411
 5363SOL    HW217922   4.868   6.306   2.512
 5364SOL     OW17923  13.122   6.306   0.594
 5364SOL    HW117924  13.175   6.302   0.674
 5364SOL    HW217925  13.185   6.293   0.523
 5365SOL     OW17926   5.901   9.015  14.874
 5365SOL    HW117927   5.922   8.951   0.060
 5365SOL    HW217928   5.827   9.064   0.027
 5366SOL     OW17929  14.816  12.265   9.271
 5366SOL    HW117930  14.772  12.182   9.256
 5366SOL    HW217931  14.813  12.278   9.366
 5367SOL     OW17932  10.863  12.607   1.198
 5367SOL    HW117933  10.903  12.665   1.263
 5367SOL    HW217934  10.784  12.575   1.240
 5368SOL     OW17935   9.773   0.050   7.609
 5368SOL    HW117936   9.752  14.840   7.628
 5368SOL    HW217937   9.738   0.098   7.684
 5369SOL     OW17938   1.925   1.925   0.379
 5369SOL    HW117939   2.014   1.899   0.354
 5369SOL    HW217940   1.905   2.000   0.323
 5370SOL     OW17941  12.744   9.257   0.036
 5370SOL    HW117942  12.789   9.338   0.062
 5370SOL    HW217943  12.809   9.210  14.865
 5371SOL     OW17944   2.861   8.464  10.598
 5371SOL    HW117945   2.875   8.478  10.504
 5371SOL    HW217946   2.794   8.396  10.602
 5372SOL     OW17947   9.756  13.939   5.494
 5372SOL    HW117948   9.814  13.880   5.446
 5372SOL    HW217949   9.810  14.016   5.513
 5373SOL     OW17950   8.824  11.427  12.606
 5373SOL    HW117951   8.810  11.521  12.613
 5373SOL    HW217952   8.738  11.391  12.586
 5374SOL     OW17953   1.513   1.278   7.563
 5374SOL    HW117954   1.576   1.268   7.491
 5374SOL    HW217955   1.429   1.290   7.520
 5375SOL     OW17956   3.808   2.709   4.189
 5375SOL    HW117957   3.720   2.716   4.152
 5375SOL    HW217958   3.851   2.791   4.166
 5376SOL     OW17959   0.938   7.964  11.470
 5376SOL    HW117960   0.966   7.873  11.459
 5376SOL    HW217961   0.911   7.992  11.383
 5377SOL     OW17962  13.132  14.727  13.951
 5377SOL    HW117963  13.214  14.728  13.903
 5377SOL    HW217964  13.154  14.687  14.035
 5378SOL     OW17965   9.064   2.497   0.292
 5378SOL    HW117966   9.025   2.434   0.231
 5378SOL    HW217967   9.140   2.451   0.328
 5379SOL     OW17968   9.025   7.069   7.040
 5379SOL    HW117969   9.061   7.156   7.054
 5379SOL    HW217970   9.015   7.062   6.945
 5380SOL     OW17971   0.157  11.872  11.087
 5380SOL    HW117972   0.070  11.834  11.100
 5380SOL    HW217973   0.141  11.947  11.030
 5381SOL     OW17974   6.478  13.503   5.855
 5381SOL    HW117975   6.545  13.503   5.786
 5381SOL    HW217976   6.431  13.421   5.842
 5382SOL     OW17977  12.200   1.260   7.845
 5382SOL    HW117978  12.286   1.227   7.818
 5382SOL    HW217979  12.197   1.246   7.939
 5383SOL     OW17980   1.794   4.390   2.272
 5383SOL    HW117981   1.717   4.425   2.317
 5383SOL    HW217982   1.859   4.460   2.277
 5384SOL     OW17983   7.804   3.600   5.197
 5384SOL    HW117984   7.869   3.623   5.131
 5384SOL    HW217985   7.855   3.578   5.275
 5385SOL     OW17986   0.237  10.363  11.484
 5385SOL    HW117987   0.176  10.295  11.513
 5385SOL    HW217988   0.307  10.315  11.440
 5386SOL     OW17989   0.580   4.783   8.333
 5386SOL    HW117990   0.567   4.833   8.252
 5386SOL    HW217991   0.641   4.713   8.309
 5387SOL     OW17992   5.759  14.589   1.795
 5387SOL    HW117993   5.675  14.613   1.833
 5387SOL    HW217994   5.822  14.648   1.837
 5388SOL     OW17995   6.355  14.333   4.085
 5388SOL    HW117996   6.391  14.422   4.084
 5388SOL    HW217997   6.355  14.308   4.177
 5389SOL     OW17998  13.281  12.687   6.056
 5389SOL    HW117999  13.350  12.745   6.088
 5389SOL    HW218000  13.200  12.734   6.074
 5390SOL     OW18001   1.165  14.588   9.971
 5390SOL    HW118002   1.104  14.648  10.015
 5390SOL    HW218003   1.252  14.620   9.993
 5391SOL     OW18004   5.114   4.723   4.000
 5391SOL    HW118005   5.158   4.808   3.992
 5391SOL    HW218006   5.022   4.746   4.014
 5392SOL     OW18007   1.519  10.126   0.812
 5392SOL    HW118008   1.606  10.132   0.771
 5392SOL    HW218009   1.460  10.110   0.738
 5393SOL     OW18010   7.234   9.383   7.709
 5393SOL    HW118011   7.170   9.432   7.656
 5393SOL    HW218012   7.302   9.447   7.729
 5394SOL     OW18013   5.229   6.198   3.294
 5394SOL    HW118014   5.213   6.104   3.289
 5394SOL    HW218015   5.246   6.224   3.203
 5395SOL     OW18016   3.918  12.106   5.383
 5395SOL    HW118017   3.862  12.129   5.457
 5395SOL    HW218018   3.970  12.033   5.414
 5396SOL     OW18019   6.472   6.856   0.061
 5396SOL    HW118020   6.476   6.934   0.116
 5396SOL    HW218021   6.400   6.805   0.098
 5397SOL     OW18022   7.690   2.591  13.034
 5397SOL    HW118023   7.728   2.550  13.112
 5397SOL    HW218024   7.596   2.594  13.053
 5398SOL     OW18025  14.591   3.458   6.132
 5398SOL    HW118026  14.682   3.467   6.106
 5398SOL    HW218027  14.587   3.371   6.173
 5399SOL     OW18028   2.083   4.161  14.203
 5399SOL    HW118029   1.991   4.159  14.231
 5399SOL    HW218030   2.121   4.234  14.251
 5400SOL     OW18031   3.587   3.892   2.633
 5400SOL    HW118032   3.675   3.914   2.603
 5400SOL    HW218033   3.559   3.968   2.685
 5401SOL     OW18034   8.578   0.213  11.199
 5401SOL    HW118035   8.544   0.124  11.207
 5401SOL    HW218036   8.514   0.267  11.245
 5402SOL     OW18037   6.294  13.502   1.176
 5402SOL    HW118038   6.388  13.489   1.166
 5402SOL    HW218039   6.268  13.437   1.242
 5403SOL     OW18040   6.197   0.353   9.240
 5403SOL    HW118041   6.245   0.273   9.263
 5403SOL    HW218042   6.202   0.407   9.318
 5404SOL     OW18043   1.878  13.807   9.067
 5404SOL    HW118044   1.865  13.789   8.974
 5404SOL    HW218045   1.809  13.758   9.111
 5405SOL     OW18046  11.434   8.539   6.846
 5405SOL    HW118047  11.469   8.573   6.763
 5405SOL    HW218048  11.481   8.456   6.858
 5406SOL     OW18049  13.309   8.389   3.538
 5406SOL    HW118050  13.217   8.369   3.553
 5406SOL    HW218051  13.311   8.483   3.521
 5407SOL     OW18052   7.327   1.817   3.473
 5407SOL    HW118053   7.240   1.780   3.457
 5407SOL    HW218054   7.323   1.905   3.436
 5408SOL     OW18055   4.781   0.557   9.665
 5408SOL    HW118056   4.774   0.572   9.760
 5408SOL    HW218057   4.801   0.643   9.628
 5409SOL     OW18058   5.914   6.313   0.565
 5409SOL    HW118059   5.932   6.222   0.588
 5409SOL    HW218060   5.984   6.337   0.503
 5410SOL     OW18061  10.684  10.513   3.662
 5410SOL    HW118062  10.600  10.558   3.658
 5410SOL    HW218063  10.748  10.584   3.672
 5411SOL     OW18064  10.918  13.642   7.548
 5411SOL    HW118065  11.014  13.640   7.541
 5411SOL    HW218066  10.895  13.551   7.568
 5412SOL     OW18067   1.445   1.223   0.624
 5412SOL    HW118068   1.414   1.286   0.559
 5412SOL    HW218069   1.540   1.237   0.627
 5413SOL     OW18070   9.261   8.723   0.151
 5413SOL    HW118071   9.264   8.629   0.138
 5413SOL    HW218072   9.172   8.741   0.178
 5414SOL     OW18073  12.045   1.193  12.670
 5414SOL    HW118074  12.072   1.133  12.601
 5414SOL    HW218075  12.117   1.191  12.733
 5415SOL     OW18076  13.398  11.948   3.850
 5415SOL    HW118077  13.303  11.936   3.851
 5415SOL    HW218078  13.410  12.042   3.839
 5416SOL     OW18079   5.467   1.412  14.115
 5416SOL    HW118080   5.518   1.392  14.036
 5416SOL    HW218081   5.457   1.328  14.160
 5417SOL     OW18082   8.751   3.854   8.884
 5417SOL    HW118083   8.715   3.772   8.919
 5417SOL    HW218084   8.704   3.867   8.801
 5418SOL     OW18085  10.374  11.164   5.997
 5418SOL    HW118086  10.427  11.244   5.994
 5418SOL    HW218087  10.316  11.177   6.071
 5419SOL     OW18088   0.069   7.982   8.488
 5419SOL    HW118089   0.134   7.975   8.558
 5419SOL    HW218090   0.101   8.053   8.433
 5420SOL     OW18091   6.173  12.951   6.165
 5420SOL    HW118092   6.132  12.947   6.079
 5420SOL    HW218093   6.227  12.872   6.170
 5421SOL     OW18094  12.104   6.641  11.345
 5421SOL    HW118095  12.064   6.631  11.431
 5421SOL    HW218096  12.082   6.560  11.298
 5422SOL     OW18097  11.013   3.056   2.302
 5422SOL    HW118098  10.952   3.093   2.366
 5422SOL    HW218099  11.100   3.083   2.333
 5423SOL     OW18100  10.475  12.885   8.297
 5423SOL    HW118101  10.419  12.811   8.322
 5423SOL    HW218102  10.554  12.845   8.261
 5424SOL     OW18103  14.254   1.065   9.369
 5424SOL    HW118104  14.336   1.101   9.335
 5424SOL    HW218105  14.186   1.102   9.312
 5425SOL     OW18106  11.578   3.543  14.420
 5425SOL    HW118107  11.610   3.626  14.384
 5425SOL    HW218108  11.591   3.480  14.349
 5426SOL     OW18109  11.994  11.413   0.663
 5426SOL    HW118110  12.016  11.326   0.628
 5426SOL    HW218111  12.075  11.443   0.705
 5427SOL     OW18112   9.341  13.435   3.105
 5427SOL    HW118113   9.296  13.460   3.185
 5427SOL    HW218114   9.434  13.438   3.127
 5428SOL     OW18115   7.648  13.058   7.455
 5428SOL    HW118116   7.568  13.062   7.508
 5428SOL    HW218117   7.700  12.988   7.495
 5429SOL     OW18118   9.893   7.873   6.946
 5429SOL    HW118119   9.819   7.814   6.959
 5429SOL    HW218120   9.910   7.870   6.852
 5430SOL     OW18121  13.854  13.012  11.304
 5430SOL    HW118122  13.806  13.010  11.221
 5430SOL    HW218123  13.803  12.956  11.363
 5431SOL     OW18124  11.295   5.781   6.177
 5431SOL    HW118125  11.258   5.713   6.234
 5431SOL    HW218126  11.225   5.844   6.165
 5432SOL     OW18127   0.601   2.196   7.398
 5432SOL    HW118128   0.524   2.199   7.341
 5432SOL    HW218129   0.649   2.276   7.378
 5433SOL     OW18130   3.268   4.163   8.220
 5433SOL    HW118131   3.218   4.082   8.212
 5433SOL    HW218132   3.299   4.181   8.131
 5434SOL     OW18133   6.821  14.693   9.984
 5434SOL    HW118134   6.843  14.600   9.993
 5434SOL    HW218135   6.761  14.710  10.057
 5435SOL     OW18136   9.014   6.730   9.382
 5435SOL    HW118137   9.061   6.787   9.442
 5435SOL    HW218138   8.922   6.735   9.411
 5436SOL     OW18139   2.595   1.378   6.978
 5436SOL    HW118140   2.669   1.380   7.039
 5436SOL    HW218141   2.527   1.431   7.021
 5437SOL     OW18142   0.688  10.013   5.842
 5437SOL    HW118143   0.704  10.061   5.923
 5437SOL    HW218144   0.650  10.077   5.782
 5438SOL     OW18145  14.859   9.189   1.146
 5438SOL    HW118146  14.846   9.276   1.186
 5438SOL    HW218147   0.052   9.152   1.194
 5439SOL     OW18148   3.320  11.446  13.265
 5439SOL    HW118149   3.230  11.467  13.238
 5439SOL    HW218150   3.372  11.459  13.186
 5440SOL     OW18151   5.924  12.658   3.019
 5440SOL    HW118152   5.841  12.703   3.003
 5440SOL    HW218153   5.899  12.576   3.062
 5441SOL     OW18154   6.872  11.861  10.916
 5441SOL    HW118155   6.948  11.826  10.962
 5441SOL    HW218156   6.875  11.955  10.935
 5442SOL     OW18157  12.947   4.549  14.037
 5442SOL    HW118158  12.986   4.481  14.092
 5442SOL    HW218159  12.878   4.504  13.988
 5443SOL     OW18160  14.679   8.466   2.956
 5443SOL    HW118161  14.632   8.416   2.888
 5443SOL    HW218162  14.754   8.411   2.979
 5444SOL     OW18163   3.399  12.899   4.671
 5444SOL    HW118164   3.430  12.972   4.617
 5444SOL    HW218165   3.456  12.901   4.748
 5445SOL     OW18166   8.931  14.494   5.129
 5445SOL    HW118167   9.000  14.560   5.130
 5445SOL    HW218168   8.973  14.416   5.091
 5446SOL     OW18169  10.065   5.962   7.027
 5446SOL    HW118170  10.032   6.034   6.974
 5446SOL    HW218171  10.108   5.903   6.965
 5447SOL     OW18172   5.714   4.215   9.747
 5447SOL    HW118173   5.663   4.293   9.769
 5447SOL    HW218174   5.786   4.215   9.810
 5448SOL     OW18175  11.228   4.261   6.615
 5448SOL    HW118176  11.273   4.256   6.530
 5448SOL    HW218177  11.138   4.235   6.596
 5449SOL     OW18178   1.051   3.820   5.375
 5449SOL    HW118179   1.103   3.839   5.297
 5449SOL    HW218180   1.086   3.736   5.407
 5450SOL     OW18181  13.289   7.577   1.968
 5450SOL    HW118182  13.368   7.631   1.962
 5450SOL    HW218183  13.232   7.625   2.028
 5451SOL     OW18184   4.650  13.321   7.091
 5451SOL    HW118185   4.708  13.351   7.160
 5451SOL    HW218186   4.622  13.234   7.118
 5452SOL     OW18187   3.293  13.941   1.380
 5452SOL    HW118188   3.284  13.867   1.320
 5452SOL    HW218189   3.361  13.996   1.340
 5453SOL     OW18190   5.011   9.370  14.597
 5453SOL    HW118191   4.947   9.439  14.612
 5453SOL    HW218192   5.071   9.406  14.531
 5454SOL     OW18193   9.428  10.045   3.029
 5454SOL    HW118194   9.378   9.988   3.088
 5454SOL    HW218195   9.376  10.048   2.949
 5455SOL     OW18196   5.217  14.424   7.585
 5455SOL    HW118197   5.155  14.364   7.626
 5455SOL    HW218198   5.183  14.511   7.605
 5456SOL     OW18199  12.878  14.173  13.302
 5456SOL    HW118200  12.833  14.255  13.322
 5456SOL    HW218201  12.808  14.108  13.293
 5457SOL     OW18202   3.247   4.532   3.096
 5457SOL    HW118203   3.196   4.540   3.016
 5457SOL    HW218204   3.185   4.500   3.161
 5458SOL     OW18205  11.916   7.801  12.414
 5458SOL    HW118206  11.995   7.851  12.394
 5458SOL    HW218207  11.901   7.816  12.507
 5459SOL     OW18208   7.977   6.097  11.595
 5459SOL    HW118209   7.938   6.179  11.564
 5459SOL    HW218210   8.065   6.120  11.623
 5460SOL     OW18211  13.888   7.315  13.706
 5460SOL    HW118212  13.907   7.272  13.789
 5460SOL    HW218213  13.870   7.406  13.730
 5461SOL     OW18214   5.472  11.640  14.486
 5461SOL    HW118215   5.554  11.649  14.535
 5461SOL    HW218216   5.497  11.591  14.407
 5462SOL     OW18217   2.352  11.416   7.697
 5462SOL    HW118218   2.355  11.503   7.736
 5462SOL    HW218219   2.423  11.416   7.633
 5463SOL     OW18220  13.983   8.172  11.246
 5463SOL    HW118221  14.016   8.106  11.186
 5463SOL    HW218222  13.888   8.169  11.235
 5464SOL     OW18223   5.182   5.196   3.189
 5464SOL    HW118224   5.157   5.251   3.114
 5464SOL    HW218225   5.220   5.118   3.149
 5465SOL     OW18226   6.505  12.892  13.546
 5465SOL    HW118227   6.447  12.817  13.557
 5465SOL    HW218228   6.449  12.968  13.563
 5466SOL     OW18229   2.593   3.933   6.744
 5466SOL    HW118230   2.559   3.985   6.671
 5466SOL    HW218231   2.681   3.907   6.716
 5467SOL     OW18232   8.239  12.201  11.034
 5467SOL    HW118233   8.301  12.253  10.983
 5467SOL    HW218234   8.219  12.256  11.110
 5468SOL     OW18235  10.292   8.878   0.037
 5468SOL    HW118236  10.204   8.882   0.075
 5468SOL    HW218237  10.277   8.874  14.824
 5469SOL     OW18238  11.470   8.501  10.763
 5469SOL    HW118239  11.476   8.406  10.772
 5469SOL    HW218240  11.409   8.513  10.690
 5470SOL     OW18241   4.013  10.816   9.440
 5470SOL    HW118242   4.107  10.820   9.458
 5470SOL    HW218243   4.001  10.878   9.368
 5471SOL     OW18244   5.337  11.533  12.904
 5471SOL    HW118245   5.428  11.559  12.919
 5471SOL    HW218246   5.318  11.564  12.815
 5472SOL     OW18247  12.623   5.667   7.555
 5472SOL    HW118248  12.595   5.650   7.465
 5472SOL    HW218249  12.716   5.646   7.555
 5473SOL     OW18250   6.188   2.831   3.523
 5473SOL    HW118251   6.101   2.841   3.562
 5473SOL    HW218252   6.191   2.897   3.454
 5474SOL     OW18253   2.060  11.669   6.122
 5474SOL    HW118254   1.976  11.714   6.131
 5474SOL    HW218255   2.123  11.727   6.163
 5475SOL     OW18256   0.455   0.306   4.763
 5475SOL    HW118257   0.367   0.342   4.771
 5475SOL    HW218258   0.444   0.212   4.779
 5476SOL     OW18259  11.632   6.775   8.473
 5476SOL    HW118260  11.586   6.726   8.542
 5476SOL    HW218261  11.592   6.862   8.475
 5477SOL     OW18262   0.993   9.302  13.168
 5477SOL    HW118263   0.921   9.366  13.168
 5477SOL    HW218264   1.064   9.347  13.123
 5478SOL     OW18265  10.038   8.771   0.610
 5478SOL    HW118266  10.091   8.834   0.560
 5478SOL    HW218267  10.039   8.805   0.700
 5479SOL     OW18268   2.956   5.482  10.665
 5479SOL    HW118269   2.987   5.534  10.738
 5479SOL    HW218270   2.950   5.544  10.592
 5480SOL     OW18271  13.726   5.079  13.090
 5480SOL    HW118272  13.783   5.041  13.157
 5480SOL    HW218273  13.778   5.075  13.009
 5481SOL     OW18274   7.090  14.622  12.987
 5481SOL    HW118275   7.138  14.693  12.946
 5481SOL    HW218276   7.087  14.645  13.080
 5482SOL     OW18277  13.019   5.130   5.324
 5482SOL    HW118278  13.044   5.147   5.233
 5482SOL    HW218279  12.932   5.089   5.318
 5483SOL     OW18280   4.571   1.961   3.791
 5483SOL    HW118281   4.594   1.992   3.703
 5483SOL    HW218282   4.495   1.904   3.777
 5484SOL     OW18283   2.677   4.269  14.260
 5484SOL    HW118284   2.699   4.309  14.176
 5484SOL    HW218285   2.581   4.272  14.264
 5485SOL     OW18286   1.048   9.089  12.622
 5485SOL    HW118287   1.114   9.153  12.648
 5485SOL    HW218288   1.063   9.015  12.681
 5486SOL     OW18289   8.526   2.047   0.218
 5486SOL    HW118290   8.513   2.048   0.123
 5486SOL    HW218291   8.505   2.137   0.246
 5487SOL     OW18292   1.674   1.275   0.816
 5487SOL    HW118293   1.663   1.203   0.879
 5487SOL    HW218294   1.597   1.330   0.828
 5488SOL     OW18295  11.670   0.257   3.296
 5488SOL    HW118296  11.734   0.189   3.274
 5488SOL    HW218297  11.678   0.268   3.391
 5489SOL     OW18298   9.587  12.352   0.278
 5489SOL    HW118299   9.512  12.318   0.328
 5489SOL    HW218300   9.593  12.444   0.303
 5490SOL     OW18301   6.397  10.010   5.114
 5490SOL    HW118302   6.392  10.065   5.191
 5490SOL    HW218303   6.448  10.060   5.051
 5491SOL     OW18304   4.930  12.898   1.323
 5491SOL    HW118305   4.951  12.805   1.335
 5491SOL    HW218306   5.009  12.936   1.284
 5492SOL     OW18307   6.043  13.049   3.459
 5492SOL    HW118308   6.064  12.960   3.484
 5492SOL    HW218309   5.949  13.057   3.474
 5493SOL     OW18310  11.297  10.517   7.495
 5493SOL    HW118311  11.221  10.474   7.455
 5493SOL    HW218312  11.372  10.482   7.446
 5494SOL     OW18313  12.176   2.501   7.976
 5494SOL    HW118314  12.194   2.422   7.925
 5494SOL    HW218315  12.261   2.544   7.984
 5495SOL     OW18316   6.940   7.070  14.023
 5495SOL    HW118317   6.903   7.033  14.103
 5495SOL    HW218318   6.866   7.073  13.962
 5496SOL     OW18319  10.430  13.452   3.921
 5496SOL    HW118320  10.450  13.413   4.006
 5496SOL    HW218321  10.448  13.545   3.932
 5497SOL     OW18322   2.517   6.979  12.563
 5497SOL    HW118323   2.594   6.929  12.588
 5497SOL    HW218324   2.456   6.968  12.635
 5498SOL     OW18325   3.898   8.763  10.454
 5498SOL    HW118326   3.885   8.745  10.361
 5498SOL    HW218327   3.874   8.855  10.464
 5499SOL     OW18328   5.649   3.601   6.632
 5499SOL    HW118329   5.581   3.540   6.661
 5499SOL    HW218330   5.600   3.679   6.606
 5500SOL     OW18331   5.033  13.671  13.533
 5500SOL    HW118332   5.063  13.654  13.622
 5500SOL    HW218333   5.011  13.764  13.532
 5501SOL     OW18334  10.255   6.031   6.738
 5501SOL    HW118335  10.328   6.051   6.679
 5501SOL    HW218336  10.264   5.938   6.757
 5502SOL     OW18337  12.924  14.415  14.289
 5502SOL    HW118338  12.907  14.322  14.304
 5502SOL    HW218339  12.849  14.460  14.328
 5503SOL     OW18340  10.182  10.374   3.462
 5503SOL    HW118341  10.140  10.306   3.410
 5503SOL    HW218342  10.231  10.326   3.529
 5504SOL     OW18343   9.029  13.036   0.841
 5504SOL    HW118344   8.940  13.070   0.844
 5504SOL    HW218345   9.037  12.982   0.919
 5505SOL     OW18346   7.679   5.820  14.877
 5505SOL    HW118347   7.611   5.754  14.862
 5505SOL    HW218348   7.683   5.868  14.794
 5506SOL     OW18349  10.324   6.889   3.064
 5506SOL    HW118350  10.325   6.796   3.087
 5506SOL    HW218351  10.232   6.908   3.044
 5507SOL     OW18352  14.726  13.591   3.021
 5507SOL    HW118353  14.660  13.637   2.969
 5507SOL    HW218354  14.752  13.654   3.089
 5508SOL     OW18355   1.599   8.839   7.758
 5508SOL    HW118356   1.603   8.887   7.676
 5508SOL    HW218357   1.511   8.801   7.760
 5509SOL     OW18358   3.372   9.940   8.008
 5509SOL    HW118359   3.456   9.982   7.990
 5509SOL    HW218360   3.345   9.902   7.924
 5510SOL     OW18361   3.022   9.576   4.579
 5510SOL    HW118362   3.114   9.564   4.602
 5510SOL    HW218363   3.010   9.670   4.576
 5511SOL     OW18364   1.681  11.407   3.212
 5511SOL    HW118365   1.613  11.434   3.150
 5511SOL    HW218366   1.751  11.472   3.201
 5512SOL     OW18367  13.420  10.237   1.825
 5512SOL    HW118368  13.325  10.232   1.839
 5512SOL    HW218369  13.441  10.161   1.771
 5513SOL     OW18370   4.585  14.825   9.261
 5513SOL    HW118371   4.576  14.739   9.222
 5513SOL    HW218372   4.671  14.824   9.303
 5514SOL     OW18373   7.190  14.107   8.735
 5514SOL    HW118374   7.265  14.162   8.757
 5514SOL    HW218375   7.209  14.077   8.646
 5515SOL     OW18376  10.016   1.590  14.212
 5515SOL    HW118377  10.014   1.617  14.120
 5515SOL    HW218378  10.069   1.657  14.256
 5516SOL     OW18379  14.171   3.069  11.530
 5516SOL    HW118380  14.165   2.973  11.533
 5516SOL    HW218381  14.080   3.099  11.526
 5517SOL     OW18382  12.615   6.027   0.099
 5517SOL    HW118383  12.693   6.039   0.153
 5517SOL    HW218384  12.564   5.960   0.145
 5518SOL     OW18385   7.062   0.363   9.727
 5518SOL    HW118386   7.031   0.368   9.637
 5518SOL    HW218387   7.018   0.286   9.764
 5519SOL     OW18388   7.335   0.935   1.127
 5519SOL    HW118389   7.357   0.893   1.211
 5519SOL    HW218390   7.300   1.021   1.152
 5520SOL     OW18391  11.279   2.637   6.019
 5520SOL    HW118392  11.214   2.578   5.980
 5520SOL    HW218393  11.311   2.689   5.945
 5521SOL     OW18394   3.441   7.569   2.806
 5521SOL    HW118395   3.530   7.551   2.835
 5521SOL    HW218396   3.436   7.529   2.719
 5522SOL     OW18397   9.833   7.900   1.913
 5522SOL    HW118398   9.850   7.925   2.004
 5522SOL    HW218399   9.864   7.975   1.862
 5523SOL     OW18400  13.316  11.048   6.341
 5523SOL    HW118401  13.341  10.958   6.318
 5523SOL    HW218402  13.225  11.041   6.368
 5524SOL     OW18403  14.377  11.437   4.168
 5524SOL    HW118404  14.404  11.441   4.259
 5524SOL    HW218405  14.394  11.524   4.133
 5525SOL     OW18406  11.053  13.463   8.514
 5525SOL    HW118407  11.030  13.489   8.603
 5525SOL    HW218408  10.972  13.474   8.463
 5526SOL     OW18409  14.667  13.689  12.902
 5526SOL    HW118410  14.593  13.722  12.851
 5526SOL    HW218411  14.633  13.612  12.946
 5527SOL     OW18412   9.265   1.651   4.024
 5527SOL    HW118413   9.260   1.649   3.928
 5527SOL    HW218414   9.175   1.667   4.052
 5528SOL     OW18415   6.945   1.689   5.903
 5528SOL    HW118416   6.919   1.759   5.842
 5528SOL    HW218417   7.006   1.635   5.853
 5529SOL     OW18418   0.741   1.217   4.595
 5529SOL    HW118419   0.804   1.273   4.548
 5529SOL    HW218420   0.699   1.166   4.526
 5530SOL     OW18421  10.852   1.783   7.240
 5530SOL    HW118422  10.810   1.845   7.300
 5530SOL    HW218423  10.880   1.837   7.166
 5531SOL     OW18424   4.204  14.107   3.002
 5531SOL    HW118425   4.252  14.033   2.964
 5531SOL    HW218426   4.207  14.174   2.934
 5532SOL     OW18427  10.838   6.916   6.991
 5532SOL    HW118428  10.847   6.821   7.002
 5532SOL    HW218429  10.927   6.950   7.000
 5533SOL     OW18430   7.567  13.066  12.843
 5533SOL    HW118431   7.551  12.977  12.873
 5533SOL    HW218432   7.503  13.079  12.772
 5534SOL     OW18433   6.757   7.729   7.920
 5534SOL    HW118434   6.805   7.698   7.843
 5534SOL    HW218435   6.819   7.719   7.992
 5535SOL     OW18436  10.237  13.380   7.010
 5535SOL    HW118437  10.182  13.305   6.985
 5535SOL    HW218438  10.202  13.453   6.959
 5536SOL     OW18439  10.845   6.066  13.141
 5536SOL    HW118440  10.904   6.132  13.103
 5536SOL    HW218441  10.871   6.061  13.233
 5537SOL     OW18442   1.851   0.395   3.523
 5537SOL    HW118443   1.794   0.331   3.482
 5537SOL    HW218444   1.793   0.465   3.552
 5538SOL     OW18445  11.130   4.424  12.084
 5538SOL    HW118446  11.152   4.342  12.039
 5538SOL    HW218447  11.066   4.399  12.151
 5539SOL     OW18448   0.141   6.834   5.877
 5539SOL    HW118449   0.185   6.805   5.797
 5539SOL    HW218450   0.105   6.754   5.915
 5540SOL     OW18451   5.339   5.209   1.449
 5540SOL    HW118452   5.340   5.284   1.390
 5540SOL    HW218453   5.336   5.247   1.537
 5541SOL     OW18454  14.195  10.869   9.266
 5541SOL    HW118455  14.219  10.852   9.174
 5541SOL    HW218456  14.108  10.907   9.261
 5542SOL     OW18457  13.199  11.821  12.632
 5542SOL    HW118458  13.291  11.824  12.605
 5542SOL    HW218459  13.172  11.731  12.615
 5543SOL     OW18460  13.432  14.351   4.858
 5543SOL    HW118461  13.412  14.278   4.800
 5543SOL    HW218462  13.524  14.338   4.883
 5544SOL     OW18463  10.360  14.483   0.418
 5544SOL    HW118464  10.292  14.545   0.392
 5544SOL    HW218465  10.340  14.464   0.510
 5545SOL     OW18466   9.177   3.813   7.598
 5545SOL    HW118467   9.122   3.892   7.598
 5545SOL    HW218468   9.116   3.741   7.581
 5546SOL     OW18469  13.623  11.958   2.990
 5546SOL    HW118470  13.598  11.866   3.003
 5546SOL    HW218471  13.719  11.955   2.981
 5547SOL     OW18472   0.738   7.739   1.723
 5547SOL    HW118473   0.711   7.769   1.636
 5547SOL    HW218474   0.817   7.788   1.743
 5548SOL     OW18475   1.325   4.964  12.895
 5548SOL    HW118476   1.337   4.873  12.923
 5548SOL    HW218477   1.255   4.960  12.831
 5549SOL     OW18478   0.042   2.540   3.494
 5549SOL    HW118479   0.033   2.597   3.418
 5549SOL    HW218480   0.086   2.462   3.460
 5550SOL     OW18481   1.349   3.429   2.565
 5550SOL    HW118482   1.439   3.406   2.542
 5550SOL    HW218483   1.298   3.351   2.543
 5551SOL     OW18484   0.861  10.943   9.378
 5551SOL    HW118485   0.877  10.898   9.461
 5551SOL    HW218486   0.945  10.985   9.357
 5552SOL     OW18487  12.122   6.841   5.776
 5552SOL    HW118488  12.208   6.878   5.761
 5552SOL    HW218489  12.086   6.826   5.688
 5553SOL     OW18490   8.264  14.283   4.256
 5553SOL    HW118491   8.321  14.303   4.330
 5553SOL    HW218492   8.274  14.188   4.244
 5554SOL     OW18493   0.692   3.069   7.748
 5554SOL    HW118494   0.752   3.034   7.682
 5554SOL    HW218495   0.608   3.077   7.702
 5555SOL     OW18496   8.593   7.345  14.644
 5555SOL    HW118497   8.640   7.281  14.589
 5555SOL    HW218498   8.662   7.389  14.694
 5556SOL     OW18499   3.299  12.426   9.682
 5556SOL    HW118500   3.239  12.500   9.677
 5556SOL    HW218501   3.259  12.367   9.747
 5557SOL     OW18502   1.111   1.398   2.485
 5557SOL    HW118503   1.194   1.357   2.461
 5557SOL    HW218504   1.045   1.330   2.468
 5558SOL     OW18505  14.679  11.537   7.429
 5558SOL    HW118506  14.712  11.592   7.500
 5558SOL    HW218507  14.715  11.576   7.349
 5559SOL     OW18508   0.831   3.217   0.723
 5559SOL    HW118509   0.857   3.307   0.742
 5559SOL    HW218510   0.851   3.168   0.803
 5560SOL     OW18511   3.464   1.127  10.863
 5560SOL    HW118512   3.372   1.101  10.861
 5560SOL    HW218513   3.509   1.062  10.809
 5561SOL     OW18514   3.062   3.178  14.430
 5561SOL    HW118515   3.004   3.125  14.377
 5561SOL    HW218516   3.007   3.211  14.501
 5562SOL     OW18517  12.206  12.817   7.967
 5562SOL    HW118518  12.204  12.841   7.874
 5562SOL    HW218519  12.143  12.877   8.008
 5563SOL     OW18520   9.137   6.270   8.075
 5563SOL    HW118521   9.143   6.245   8.167
 5563SOL    HW218522   9.064   6.332   8.071
 5564SOL     OW18523   2.637  10.396   7.596
 5564SOL    HW118524   2.730  10.405   7.577
 5564SOL    HW218525   2.619  10.303   7.584
 5565SOL     OW18526   8.985   8.081  10.882
 5565SOL    HW118527   8.944   7.994  10.879
 5565SOL    HW218528   9.064   8.068  10.935
 5566SOL     OW18529   1.485   4.465   3.446
 5566SOL    HW118530   1.415   4.451   3.381
 5566SOL    HW218531   1.565   4.437   3.401
 5567SOL     OW18532  12.913   0.030   8.369
 5567SOL    HW118533  12.888  14.825   8.398
 5567SOL    HW218534  12.917   0.082   8.449
 5568SOL     OW18535   7.751   4.863   4.626
 5568SOL    HW118536   7.697   4.783   4.628
 5568SOL    HW218537   7.841   4.831   4.633
 5569SOL     OW18538   7.257   9.899   5.142
 5569SOL    HW118539   7.179   9.845   5.133
 5569SOL    HW218540   7.270   9.908   5.236
 5570SOL     OW18541   7.858   6.273  11.041
 5570SOL    HW118542   7.849   6.363  11.008
 5570SOL    HW218543   7.948   6.270  11.075
 5571SOL     OW18544  14.471   7.915  12.184
 5571SOL    HW118545  14.535   7.844  12.175
 5571SOL    HW218546  14.432   7.923  12.098
 5572SOL     OW18547   2.102  12.293  12.412
 5572SOL    HW118548   2.190  12.255  12.418
 5572SOL    HW218549   2.077  12.310  12.503
 5573SOL     OW18550   8.695  10.819   5.490
 5573SOL    HW118551   8.689  10.888   5.424
 5573SOL    HW218552   8.777  10.838   5.537
 5574SOL     OW18553   3.621   9.004  14.813
 5574SOL    HW118554   3.616   9.021   0.025
 5574SOL    HW218555   3.660   8.916  14.806
 5575SOL     OW18556  12.770   4.411   0.055
 5575SOL    HW118557  12.714   4.413   0.133
 5575SOL    HW218558  12.774   4.502   0.025
 5576SOL     OW18559   9.394   7.485   3.953
 5576SOL    HW118560   9.314   7.435   3.937
 5576SOL    HW218561   9.425   7.454   4.038
 5577SOL     OW18562   7.963  13.544   7.261
 5577SOL    HW118563   7.988  13.463   7.305
 5577SOL    HW218564   7.884  13.522   7.212
 5578SOL     OW18565   5.003   9.734  13.182
 5578SOL    HW118566   4.935   9.789  13.220
 5578SOL    HW218567   4.986   9.737  13.088
 5579SOL     OW18568   8.816   8.102  12.119
 5579SOL    HW118569   8.899   8.056  12.108
 5579SOL    HW218570   8.809   8.158  12.041
 5580SOL     OW18571   7.225  11.978   8.057
 5580SOL    HW118572   7.239  11.911   8.123
 5580SOL    HW218573   7.130  11.985   8.049
 5581SOL     OW18574   7.049   7.957   8.427
 5581SOL    HW118575   7.120   7.945   8.491
 5581SOL    HW218576   7.019   7.868   8.408
 5582SOL     OW18577   1.478   0.254   5.213
 5582SOL    HW118578   1.535   0.250   5.290
 5582SOL    HW218579   1.400   0.206   5.239
 5583SOL     OW18580   1.986   7.724   5.405
 5583SOL    HW118581   1.914   7.735   5.343
 5583SOL    HW218582   1.947   7.680   5.480
 5584SOL     OW18583  10.522   2.993   9.279
 5584SOL    HW118584  10.472   2.915   9.257
 5584SOL    HW218585  10.613   2.968   9.265
 5585SOL     OW18586  11.304  10.767  11.657
 5585SOL    HW118587  11.338  10.826  11.723
 5585SOL    HW218588  11.228  10.726  11.698
 5586SOL     OW18589   2.199   8.470  10.334
 5586SOL    HW118590   2.177   8.378  10.351
 5586SOL    HW218591   2.121   8.519  10.359
 5587SOL     OW18592   9.423   4.417  13.596
 5587SOL    HW118593   9.486   4.486  13.574
 5587SOL    HW218594   9.433   4.352  13.527
 5588SOL     OW18595   6.165   8.220   2.073
 5588SOL    HW118596   6.171   8.309   2.108
 5588SOL    HW218597   6.126   8.231   1.987
 5589SOL     OW18598   9.833   8.246  11.659
 5589SOL    HW118599   9.813   8.326  11.610
 5589SOL    HW218600   9.918   8.263  11.700
 5590SOL     OW18601  12.419   7.666   2.743
 5590SOL    HW118602  12.351   7.640   2.806
 5590SOL    HW218603  12.468   7.735   2.789
 5591SOL     OW18604   2.765   6.717  12.204
 5591SOL    HW118605   2.851   6.686  12.233
 5591SOL    HW218606   2.756   6.803  12.244
 5592SOL     OW18607   6.844  13.470  11.907
 5592SOL    HW118608   6.778  13.406  11.933
 5592SOL    HW218609   6.879  13.503  11.990
 5593SOL     OW18610  11.272   1.605   4.348
 5593SOL    HW118611  11.218   1.565   4.280
 5593SOL    HW218612  11.295   1.533   4.406
 5594SOL     OW18613  13.755   0.900   2.228
 5594SOL    HW118614  13.662   0.886   2.211
 5594SOL    HW218615  13.763   0.896   2.323
 5595SOL     OW18616  13.946  10.460   2.608
 5595SOL    HW118617  13.984  10.529   2.554
 5595SOL    HW218618  14.009  10.388   2.604
 5596SOL     OW18619  11.979   3.886  11.491
 5596SOL    HW118620  11.949   3.922  11.575
 5596SOL    HW218621  12.044   3.820  11.515
 5597SOL     OW18622  14.811  13.174  13.782
 5597SOL    HW118623  14.865  13.193  13.859
 5597SOL    HW218624  14.836  13.085  13.757
 5598SOL     OW18625  12.182   8.091   6.532
 5598SOL    HW118626  12.231   8.033   6.474
 5598SOL    HW218627  12.092   8.088   6.498
 5599SOL     OW18628  11.265   0.287  10.134
 5599SOL    HW118629  11.195   0.312  10.074
 5599SOL    HW218630  11.342   0.335  10.103
 5600SOL     OW18631   2.787   8.480   2.895
 5600SOL    HW118632   2.714   8.538   2.918
 5600SOL    HW218633   2.841   8.533   2.836
 5601SOL     OW18634   3.316  14.629  13.383
 5601SOL    HW118635   3.290  14.537  13.382
 5601SOL    HW218636   3.324  14.651  13.476
 5602SOL     OW18637   0.661   8.790  12.992
 5602SOL    HW118638   0.611   8.792  13.074
 5602SOL    HW218639   0.732   8.728  13.009
 5603SOL     OW18640   4.070   6.205   6.927
 5603SOL    HW118641   3.990   6.229   6.880
 5603SOL    HW218642   4.053   6.117   6.959
 5604SOL     OW18643   4.644  11.324   2.190
 5604SOL    HW118644   4.593  11.400   2.218
 5604SOL    HW218645   4.633  11.322   2.095
 5605SOL     OW18646   6.578   0.622   8.255
 5605SOL    HW118647   6.517   0.593   8.323
 5605SOL    HW218648   6.629   0.691   8.297
 5606SOL     OW18649   0.878   3.079   1.914
 5606SOL    HW118650   0.794   3.032   1.913
 5606SOL    HW218651   0.858   3.162   1.958
 5607SOL     OW18652  10.725   8.300   5.576
 5607SOL    HW118653  10.716   8.234   5.645
 5607SOL    HW218654  10.637   8.338   5.568
 5608SOL     OW18655   1.761   6.021  11.386
 5608SOL    HW118656   1.807   6.046  11.306
 5608SOL    HW218657   1.817   6.050  11.457
 5609SOL     OW18658   0.727   6.031  11.457
 5609SOL    HW118659   0.788   5.970  11.498
 5609SOL    HW218660   0.718   6.102  11.521
 5610SOL     OW18661   3.354   4.439  14.300
 5610SOL    HW118662   3.307   4.360  14.325
 5610SOL    HW218663   3.421   4.409  14.238
 5611SOL     OW18664   4.763   1.071   7.825
 5611SOL    HW118665   4.815   1.019   7.764
 5611SOL    HW218666   4.761   1.158   7.786
 5612SOL     OW18667   3.003   6.475   9.728
 5612SOL    HW118668   2.977   6.491   9.818
 5612SOL    HW218669   3.055   6.394   9.731
 5613SOL     OW18670  13.399   9.927   9.234
 5613SOL    HW118671  13.441   9.882   9.161
 5613SOL    HW218672  13.427   9.877   9.311
 5614SOL     OW18673  13.809   0.408  12.199
 5614SOL    HW118674  13.842   0.423  12.110
 5614SOL    HW218675  13.853   0.475  12.252
 5615SOL     OW18676   9.010  12.097   6.896
 5615SOL    HW118677   8.986  12.082   6.987
 5615SOL    HW218678   9.104  12.114   6.899
 5616SOL     OW18679   3.720  13.858   3.989
 5616SOL    HW118680   3.782  13.931   3.986
 5616SOL    HW218681   3.639  13.895   3.954
 5617SOL     OW18682   9.160   1.322  13.451
 5617SOL    HW118683   9.230   1.366  13.499
 5617SOL    HW218684   9.161   1.362  13.364
 5618SOL     OW18685   2.199  11.755   4.232
 5618SOL    HW118686   2.260  11.682   4.219
 5618SOL    HW218687   2.140  11.750   4.157
 5619SOL     OW18688   2.429  11.497  14.178
 5619SOL    HW118689   2.456  11.552  14.104
 5619SOL    HW218690   2.384  11.558  14.237
 5620SOL     OW18691   7.149   4.726   0.381
 5620SOL    HW118692   7.188   4.710   0.295
 5620SOL    HW218693   7.061   4.688   0.375
 5621SOL     OW18694   2.537   2.594   0.150
 5621SOL    HW118695   2.562   2.508   0.117
 5621SOL    HW218696   2.506   2.642   0.073
 5622SOL     OW18697   7.256   8.218   3.318
 5622SOL    HW118698   7.341   8.242   3.354
 5622SOL    HW218699   7.275   8.192   3.228
 5623SOL     OW18700   4.314  13.210  10.128
 5623SOL    HW118701   4.245  13.145  10.144
 5623SOL    HW218702   4.392  13.172  10.168
 5624SOL     OW18703  12.640  11.535   4.999
 5624SOL    HW118704  12.600  11.620   5.016
 5624SOL    HW218705  12.633  11.523   4.905
 5625SOL     OW18706  12.909   7.597   9.907
 5625SOL    HW118707  12.872   7.577   9.821
 5625SOL    HW218708  12.837   7.640   9.954
 5626SOL     OW18709   2.014  12.077  10.034
 5626SOL    HW118710   1.969  12.152  10.073
 5626SOL    HW218711   2.053  12.031  10.107
 5627SOL     OW18712   0.376   8.105  11.490
 5627SOL    HW118713   0.405   8.045  11.421
 5627SOL    HW218714   0.285   8.126  11.467
 5628SOL     OW18715   0.302  12.116   6.320
 5628SOL    HW118716   0.220  12.081   6.354
 5628SOL    HW218717   0.351  12.143   6.397
 5629SOL     OW18718   7.296   3.513   1.609
 5629SOL    HW118719   7.243   3.473   1.678
 5629SOL    HW218720   7.338   3.439   1.565
 5630SOL     OW18721   8.834   8.089  11.602
 5630SOL    HW118722   8.818   8.183  11.590
 5630SOL    HW218723   8.850   8.056  11.514
 5631SOL     OW18724  11.631  11.928   0.911
 5631SOL    HW118725  11.619  11.842   0.873
 5631SOL    HW218726  11.589  11.988   0.849
 5632SOL     OW18727  14.798   3.792   8.750
 5632SOL    HW118728  14.794   3.703   8.715
 5632SOL    HW218729  14.861   3.788   8.821
 5633SOL     OW18730   8.761   7.289  10.448
 5633SOL    HW118731   8.794   7.377  10.464
 5633SOL    HW218732   8.793   7.266  10.361
 5634SOL     OW18733   0.965  14.624   9.333
 5634SOL    HW118734   1.011  14.566   9.393
 5634SOL    HW218735   0.894  14.661   9.385
 5635SOL     OW18736   7.470  13.440   5.804
 5635SOL    HW118737   7.538  13.451   5.871
 5635SOL    HW218738   7.466  13.345   5.790
 5636SOL     OW18739   0.417   4.617   4.937
 5636SOL    HW118740   0.336   4.590   4.894
 5636SOL    HW218741   0.389   4.682   5.002
 5637SOL     OW18742  11.278  11.613   3.995
 5637SOL    HW118743  11.279  11.565   4.078
 5637SOL    HW218744  11.246  11.700   4.018
 5638SOL     OW18745   9.303   7.397   9.976
 5638SOL    HW118746   9.207   7.405   9.980
 5638SOL    HW218747   9.329   7.369  10.064
 5639SOL     OW18748  11.551  10.373   1.414
 5639SOL    HW118749  11.588  10.285   1.408
 5639SOL    HW218750  11.627  10.431   1.410
 5640SOL     OW18751  12.635   2.214   2.804
 5640SOL    HW118752  12.663   2.230   2.714
 5640SOL    HW218753  12.619   2.120   2.808
 5641SOL     OW18754   5.341  12.447  13.108
 5641SOL    HW118755   5.341  12.537  13.140
 5641SOL    HW218756   5.249  12.425  13.097
 5642SOL     OW18757   1.907  14.017  13.932
 5642SOL    HW118758   1.891  13.923  13.944
 5642SOL    HW218759   1.820  14.053  13.912
 5643SOL     OW18760   7.665   2.996   8.531
 5643SOL    HW118761   7.713   2.970   8.609
 5643SOL    HW218762   7.674   2.921   8.472
 5644SOL     OW18763   0.070   0.604   8.734
 5644SOL    HW118764   0.110   0.653   8.806
 5644SOL    HW218765  14.875   0.562   8.772
 5645SOL     OW18766   0.934   3.545   8.267
 5645SOL    HW118767   0.925   3.613   8.200
 5645SOL    HW218768   0.863   3.484   8.248
 5646SOL     OW18769   5.671   2.347  12.679
 5646SOL    HW118770   5.613   2.370  12.752
 5646SOL    HW218771   5.662   2.420  12.618
 5647SOL     OW18772   7.722   7.325   1.063
 5647SOL    HW118773   7.746   7.275   0.985
 5647SOL    HW218774   7.733   7.416   1.037
 5648SOL     OW18775   8.210   0.109   9.680
 5648SOL    HW118776   8.257   0.176   9.730
 5648SOL    HW218777   8.275   0.042   9.662
 5649SOL     OW18778   8.102  10.005   9.995
 5649SOL    HW118779   8.059  10.016  10.080
 5649SOL    HW218780   8.042  10.046   9.933
 5650SOL     OW18781  13.243   3.192  11.205
 5650SOL    HW118782  13.151   3.186  11.232
 5650SOL    HW218783  13.291   3.193  11.288
 5651SOL     OW18784   0.956   0.845  13.079
 5651SOL    HW118785   1.002   0.775  13.123
 5651SOL    HW218786   0.936   0.810  12.992
 5652SOL     OW18787   8.229   9.604   4.210
 5652SOL    HW118788   8.227   9.699   4.221
 5652SOL    HW218789   8.284   9.574   4.283
 5653SOL     OW18790   0.335   5.123   8.126
 5653SOL    HW118791   0.242   5.101   8.121
 5653SOL    HW218792   0.379   5.057   8.072
 5654SOL     OW18793   6.662   5.231   0.131
 5654SOL    HW118794   6.657   5.195   0.043
 5654SOL    HW218795   6.575   5.265   0.149
 5655SOL     OW18796   4.725   8.081   2.618
 5655SOL    HW118797   4.727   8.032   2.700
 5655SOL    HW218798   4.680   8.023   2.556
 5656SOL     OW18799   1.409   5.398   7.866
 5656SOL    HW118800   1.469   5.450   7.919
 5656SOL    HW218801   1.377   5.330   7.925
 5657SOL     OW18802   7.103   4.308   0.492
 5657SOL    HW118803   7.182   4.360   0.509
 5657SOL    HW218804   7.100   4.245   0.564
 5658SOL     OW18805   8.560  12.653   3.566
 5658SOL    HW118806   8.639  12.601   3.578
 5658SOL    HW218807   8.501  12.596   3.516
 5659SOL     OW18808   6.058   4.380   5.506
 5659SOL    HW118809   6.128   4.371   5.440
 5659SOL    HW218810   6.052   4.474   5.522
 5660SOL     OW18811   8.555   6.140  10.631
 5660SOL    HW118812   8.616   6.173  10.566
 5660SOL    HW218813   8.549   6.210  10.696
 5661SOL     OW18814   2.860   4.046  11.674
 5661SOL    HW118815   2.943   4.035  11.627
 5661SOL    HW218816   2.880   4.107  11.744
 5662SOL     OW18817   2.263  11.677   3.589
 5662SOL    HW118818   2.283  11.770   3.580
 5662SOL    HW218819   2.257  11.645   3.499
 5663SOL     OW18820   1.146   0.609   8.712
 5663SOL    HW118821   1.109   0.535   8.760
 5663SOL    HW218822   1.094   0.614   8.632
 5664SOL     OW18823  12.681  10.271   1.445
 5664SOL    HW118824  12.699  10.182   1.476
 5664SOL    HW218825  12.756  10.293   1.391
 5665SOL     OW18826   8.475   7.380  13.953
 5665SOL    HW118827   8.494   7.371  14.046
 5665SOL    HW218828   8.382   7.403  13.949
 5666SOL     OW18829  11.288   6.776   6.381
 5666SOL    HW118830  11.345   6.816   6.446
 5666SOL    HW218831  11.251   6.700   6.426
 5667SOL     OW18832   4.129  10.325  10.749
 5667SOL    HW118833   4.157  10.259  10.686
 5667SOL    HW218834   4.211  10.358  10.787
 5668SOL     OW18835   7.864  10.673   4.977
 5668SOL    HW118836   7.917  10.634   5.047
 5668SOL    HW218837   7.780  10.628   4.983
 5669SOL     OW18838  14.127   2.140  14.656
 5669SOL    HW118839  14.096   2.050  14.652
 5669SOL    HW218840  14.052   2.189  14.691
 5670SOL     OW18841   7.064   3.546  12.212
 5670SOL    HW118842   6.973   3.576  12.203
 5670SOL    HW218843   7.081   3.497  12.131
 5671SOL     OW18844  13.125   0.657   3.885
 5671SOL    HW118845  13.100   0.741   3.924
 5671SOL    HW218846  13.204   0.678   3.834
 5672SOL     OW18847  12.114  12.708   9.920
 5672SOL    HW118848  12.051  12.715   9.849
 5672SOL    HW218849  12.181  12.774   9.899
 5673SOL     OW18850   8.049  11.637  10.653
 5673SOL    HW118851   8.037  11.657  10.560
 5673SOL    HW218852   8.082  11.718  10.691
 5674SOL     OW18853   7.451   9.843   3.999
 5674SOL    HW118854   7.412   9.868   3.915
 5674SOL    HW218855   7.545   9.837   3.981
 5675SOL     OW18856   2.092   9.085  12.418
 5675SOL    HW118857   2.169   9.070  12.363
 5675SOL    HW218858   2.123   9.071  12.507
 5676SOL     OW18859   5.622   3.969   5.826
 5676SOL    HW118860   5.606   3.887   5.779
 5676SOL    HW218861   5.560   4.031   5.788
 5677SOL     OW18862   5.238   2.299  11.459
 5677SOL    HW118863   5.177   2.346  11.517
 5677SOL    HW218864   5.244   2.212  11.498
 5678SOL     OW18865   0.666   9.866  11.878
 5678SOL    HW118866   0.659   9.789  11.822
 5678SOL    HW218867   0.611   9.845  11.954
 5679SOL     OW18868   7.644  12.767  13.798
 5679SOL    HW118869   7.654  12.713  13.720
 5679SOL    HW218870   7.568  12.823  13.780
 5680SOL     OW18871   0.767  13.637  12.911
 5680SOL    HW118872   0.772  13.701  12.841
 5680SOL    HW218873   0.675  13.636  12.937
 5681SOL     OW18874  13.739   4.573   2.255
 5681SOL    HW118875  13.812   4.574   2.194
 5681SOL    HW218876  13.725   4.481   2.275
 5682SOL     OW18877   6.470   3.136   1.193
 5682SOL    HW118878   6.551   3.092   1.220
 5682SOL    HW218879   6.469   3.128   1.098
 5683SOL     OW18880  13.105   7.106   8.066
 5683SOL    HW118881  13.099   7.114   7.971
 5683SOL    HW218882  13.069   7.019   8.085
 5684SOL     OW18883   5.598  10.561  14.283
 5684SOL    HW118884   5.616  10.481  14.332
 5684SOL    HW218885   5.503  10.570  14.286
 5685SOL     OW18886   3.279  10.969  11.674
 5685SOL    HW118887   3.211  11.024  11.713
 5685SOL    HW218888   3.323  10.928  11.748
 5686SOL     OW18889   2.475   7.714   8.008
 5686SOL    HW118890   2.382   7.737   7.996
 5686SOL    HW218891   2.490   7.723   8.102
 5687SOL     OW18892  10.888   1.548  14.523
 5687SOL    HW118893  10.888   1.462  14.482
 5687SOL    HW218894  10.927   1.606  14.458
 5688SOL     OW18895   7.663   4.601   8.983
 5688SOL    HW118896   7.690   4.520   8.940
 5688SOL    HW218897   7.667   4.667   8.915
 5689SOL     OW18898  12.916   2.457   7.120
 5689SOL    HW118899  12.842   2.493   7.071
 5689SOL    HW218900  12.893   2.470   7.212
 5690SOL     OW18901  10.570  14.726   7.284
 5690SOL    HW118902  10.482  14.708   7.252
 5690SOL    HW218903  10.618  14.754   7.206
 5691SOL     OW18904   6.717   5.727   8.460
 5691SOL    HW118905   6.805   5.758   8.436
 5691SOL    HW218906   6.685   5.683   8.382
 5692SOL     OW18907  12.901   9.685   5.284
 5692SOL    HW118908  12.950   9.708   5.362
 5692SOL    HW218909  12.950   9.613   5.244
 5693SOL     OW18910   9.163   4.606  14.583
 5693SOL    HW118911   9.231   4.577  14.522
 5693SOL    HW218912   9.183   4.698  14.600
 5694SOL     OW18913   1.419   3.233   0.688
 5694SOL    HW118914   1.324   3.224   0.684
 5694SOL    HW218915   1.437   3.264   0.777
 5695SOL     OW18916   9.698   3.723  11.049
 5695SOL    HW118917   9.694   3.633  11.016
 5695SOL    HW218918   9.623   3.730  11.108
 5696SOL     OW18919   4.516   6.567   8.245
 5696SOL    HW118920   4.545   6.569   8.154
 5696SOL    HW218921   4.424   6.595   8.241
 5697SOL     OW18922   3.396  11.617  13.767
 5697SOL    HW118923   3.472  11.561  13.753
 5697SOL    HW218924   3.336  11.594  13.697
 5698SOL     OW18925  11.246   0.420   9.628
 5698SOL    HW118926  11.294   0.366   9.690
 5698SOL    HW218927  11.169   0.449   9.676
 5699SOL     OW18928   6.623   5.809   3.356
 5699SOL    HW118929   6.674   5.839   3.282
 5699SOL    HW218930   6.677   5.828   3.433
 5700SOL     OW18931   8.613   8.073  14.406
 5700SOL    HW118932   8.643   8.041  14.491
 5700SOL    HW218933   8.604   8.167  14.418
 5701SOL     OW18934  11.626  10.542   9.766
 5701SOL    HW118935  11.647  10.605   9.696
 5701SOL    HW218936  11.656  10.584   9.846
 5702SOL     OW18937   7.304   6.264   5.940
 5702SOL    HW118938   7.223   6.315   5.936
 5702SOL    HW218939   7.342   6.286   6.025
 5703SOL     OW18940   6.275   7.811   1.145
 5703SOL    HW118941   6.260   7.771   1.231
 5703SOL    HW218942   6.239   7.749   1.082
 5704SOL     OW18943   8.453   4.964  11.479
 5704SOL    HW118944   8.392   4.937  11.547
 5704SOL    HW218945   8.472   5.056  11.499
 5705SOL     OW18946  12.100  11.724   5.902
 5705SOL    HW118947  12.010  11.692   5.907
 5705SOL    HW218948  12.154  11.645   5.903
 5706SOL     OW18949  13.299  12.440  12.516
 5706SOL    HW118950  13.332  12.379  12.450
 5706SOL    HW218951  13.247  12.386  12.575
 5707SOL     OW18952  10.719  12.627  13.687
 5707SOL    HW118953  10.660  12.618  13.761
 5707SOL    HW218954  10.704  12.715  13.654
 5708SOL     OW18955  12.533   9.282   1.278
 5708SOL    HW118956  12.485   9.200   1.271
 5708SOL    HW218957  12.616   9.265   1.233
 5709SOL     OW18958  14.014  10.229   8.816
 5709SOL    HW118959  13.948  10.221   8.746
 5709SOL    HW218960  14.043  10.140   8.832
 5710SOL     OW18961   9.146   0.760  10.250
 5710SOL    HW118962   9.144   0.718  10.336
 5710SOL    HW218963   9.128   0.688  10.189
 5711SOL     OW18964  14.366  11.536   9.999
 5711SOL    HW118965  14.457  11.508  10.013
 5711SOL    HW218966  14.329  11.469   9.942
 5712SOL     OW18967   6.441  12.826  10.488
 5712SOL    HW118968   6.492  12.855  10.564
 5712SOL    HW218969   6.467  12.735  10.474
 5713SOL     OW18970   3.338   5.820  13.818
 5713SOL    HW118971   3.339   5.915  13.807
 5713SOL    HW218972   3.251   5.793  13.789
 5714SOL     OW18973   5.747   4.062  11.788
 5714SOL    HW118974   5.700   4.098  11.863
 5714SOL    HW218975   5.690   3.994  11.754
 5715SOL     OW18976   1.111  11.775  14.045
 5715SOL    HW118977   1.153  11.826  13.975
 5715SOL    HW218978   1.041  11.832  14.077
 5716SOL     OW18979   1.400   9.647  13.551
 5716SOL    HW118980   1.398   9.639  13.646
 5716SOL    HW218981   1.492   9.666  13.531
 5717SOL     OW18982   3.766  12.096   1.804
 5717SOL    HW118983   3.766  12.192   1.802
 5717SOL    HW218984   3.685  12.074   1.851
 5718SOL     OW18985  10.937  13.713   0.853
 5718SOL    HW118986  10.860  13.736   0.905
 5718SOL    HW218987  10.952  13.621   0.873
 5719SOL     OW18988  13.851   3.698   1.565
 5719SOL    HW118989  13.896   3.616   1.545
 5719SOL    HW218990  13.813   3.726   1.481
 5720SOL     OW18991   8.660   2.018   3.320
 5720SOL    HW118992   8.741   1.993   3.366
 5720SOL    HW218993   8.607   2.062   3.387
 5721SOL     OW18994   2.750   7.616   3.359
 5721SOL    HW118995   2.704   7.682   3.410
 5721SOL    HW218996   2.782   7.553   3.424
 5722SOL     OW18997   0.106   2.004   6.948
 5722SOL    HW118998   0.190   2.003   6.901
 5722SOL    HW218999   0.107   2.086   6.996
 5723SOL     OW19000   4.630   1.576   9.135
 5723SOL    HW119001   4.540   1.593   9.164
 5723SOL    HW219002   4.684   1.629   9.194
 5724SOL     OW19003   8.878  14.256   9.768
 5724SOL    HW119004   8.894  14.274   9.675
 5724SOL    HW219005   8.783  14.253   9.776
 5725SOL     OW19006  10.233   0.851   4.874
 5725SOL    HW119007  10.154   0.829   4.824
 5725SOL    HW219008  10.301   0.862   4.807
 5726SOL     OW19009   1.621   3.508   1.304
 5726SOL    HW119010   1.538   3.506   1.351
 5726SOL    HW219011   1.634   3.600   1.280
 5727SOL     OW19012  13.254   8.275   2.802
 5727SOL    HW119013  13.221   8.288   2.713
 5727SOL    HW219014  13.315   8.347   2.817
 5728SOL     OW19015   1.070  12.527   0.081
 5728SOL    HW119016   1.031  12.489   0.002
 5728SOL    HW219017   1.164  12.510   0.072
 5729SOL     OW19018  14.703   9.594   5.493
 5729SOL    HW119019  14.640   9.570   5.424
 5729SOL    HW219020  14.662   9.668   5.538
 5730SOL     OW19021  13.736   6.368   3.734
 5730SOL    HW119022  13.693   6.378   3.650
 5730SOL    HW219023  13.724   6.453   3.778
 5731SOL     OW19024   7.849   4.120  10.969
 5731SOL    HW119025   7.921   4.143  11.028
 5731SOL    HW219026   7.883   4.140  10.882
 5732SOL     OW19027   3.268  10.705   5.129
 5732SOL    HW119028   3.205  10.704   5.056
 5732SOL    HW219029   3.299  10.795   5.133
 5733SOL     OW19030   7.135   9.843  12.373
 5733SOL    HW119031   7.083   9.922  12.390
 5733SOL    HW219032   7.075   9.771  12.394
 5734SOL     OW19033   5.330  12.719   2.357
 5734SOL    HW119034   5.280  12.685   2.283
 5734SOL    HW219035   5.401  12.656   2.368
 5735SOL     OW19036   2.509   1.449   2.319
 5735SOL    HW119037   2.444   1.514   2.293
 5735SOL    HW219038   2.468   1.400   2.390
 5736SOL     OW19039   9.675   6.567   6.212
 5736SOL    HW119040   9.728   6.543   6.136
 5736SOL    HW219041   9.719   6.644   6.248
 5737SOL     OW19042   7.789   5.063  10.448
 5737SOL    HW119043   7.850   5.036  10.516
 5737SOL    HW219044   7.744   5.140  10.485
 5738SOL     OW19045   9.171   8.207   3.911
 5738SOL    HW119046   9.241   8.249   3.961
 5738SOL    HW219047   9.111   8.278   3.888
 5739SOL     OW19048  13.865  11.259  13.627
 5739SOL    HW119049  13.895  11.195  13.562
 5739SOL    HW219050  13.802  11.313  13.580
 5740SOL     OW19051  13.712  12.137   9.656
 5740SOL    HW119052  13.736  12.183   9.575
 5740SOL    HW219053  13.792  12.093   9.684
 5741SOL     OW19054  14.108   4.971   0.469
 5741SOL    HW119055  14.087   4.889   0.514
 5741SOL    HW219056  14.040   5.032   0.498
 5742SOL     OW19057   8.565   0.466   5.374
 5742SOL    HW119058   8.654   0.450   5.344
 5742SOL    HW219059   8.530   0.379   5.394
 5743SOL     OW19060   2.309   8.146  14.244
 5743SOL    HW119061   2.357   8.222  14.276
 5743SOL    HW219062   2.301   8.161  14.150
 5744SOL     OW19063   8.078   1.175   0.371
 5744SOL    HW119064   8.162   1.182   0.326
 5744SOL    HW219065   8.028   1.250   0.340
 5745SOL     OW19066   2.087   1.540   6.696
 5745SOL    HW119067   2.173   1.562   6.730
 5745SOL    HW219068   2.035   1.521   6.774
 5746SOL     OW19069   4.485   7.419  13.871
 5746SOL    HW119070   4.574   7.428  13.905
 5746SOL    HW219071   4.488   7.457  13.783
 5747SOL     OW19072  11.976   2.047   2.038
 5747SOL    HW119073  12.014   1.959   2.034
 5747SOL    HW219074  12.024   2.098   1.973
 5748SOL     OW19075  13.545   8.288  13.312
 5748SOL    HW119076  13.620   8.312  13.258
 5748SOL    HW219077  13.501   8.219  13.263
 5749SOL     OW19078   8.209   3.540   4.685
 5749SOL    HW119079   8.213   3.480   4.610
 5749SOL    HW219080   8.116   3.556   4.698
 5750SOL     OW19081  10.355   8.036   4.285
 5750SOL    HW119082  10.386   8.126   4.290
 5750SOL    HW219083  10.412   7.995   4.220
 5751SOL     OW19084   1.662   1.164  14.429
 5751SOL    HW119085   1.705   1.119  14.356
 5751SOL    HW219086   1.700   1.253  14.427
 5752SOL     OW19087  14.198  10.561  13.527
 5752SOL    HW119088  14.292  10.544  13.517
 5752SOL    HW219089  14.182  10.638  13.472
 5753SOL     OW19090   1.162   2.921   0.759
 5753SOL    HW119091   1.239   2.946   0.708
 5753SOL    HW219092   1.090   2.972   0.721
 5754SOL     OW19093   1.101   1.074   9.229
 5754SOL    HW119094   1.164   1.065   9.301
 5754SOL    HW219095   1.068   0.986   9.214
 5755SOL     OW19096   9.028   1.530   3.715
 5755SOL    HW119097   9.094   1.463   3.735
 5755SOL    HW219098   9.056   1.567   3.631
 5756SOL     OW19099  12.492   4.219  14.474
 5756SOL    HW119100  12.410   4.247  14.516
 5756SOL    HW219101  12.560   4.240  14.537
 5757SOL     OW19102   0.160  14.540   1.357
 5757SOL    HW119103   0.080  14.498   1.387
 5757SOL    HW219104   0.172  14.615   1.416
 5758SOL     OW19105   9.234   9.416   6.740
 5758SOL    HW119106   9.252   9.474   6.815
 5758SOL    HW219107   9.138   9.417   6.733
 5759SOL     OW19108   5.600   9.840   0.077
 5759SOL    HW119109   5.686   9.808   0.049
 5759SOL    HW219110   5.542   9.819   0.004
 5760SOL     OW19111   5.024   9.949   8.797
 5760SOL    HW119112   5.058  10.036   8.817
 5760SOL    HW219113   5.073   9.921   8.720
 5761SOL     OW19114   2.662   8.255  12.049
 5761SOL    HW119115   2.645   8.165  12.077
 5761SOL    HW219116   2.588   8.306  12.083
 5762SOL     OW19117  10.666   9.322   4.733
 5762SOL    HW119118  10.676   9.230   4.759
 5762SOL    HW219119  10.581   9.348   4.768
 5763SOL     OW19120  11.253   8.719   3.184
 5763SOL    HW119121  11.209   8.757   3.107
 5763SOL    HW219122  11.182   8.683   3.237
 5764SOL     OW19123  11.879   6.977  14.079
 5764SOL    HW119124  11.831   6.901  14.047
 5764SOL    HW219125  11.886   6.963  14.173
 5765SOL     OW19126   6.713   0.450   3.886
 5765SOL    HW119127   6.617   0.446   3.889
 5765SOL    HW219128   6.738   0.367   3.844
 5766SOL     OW19129   8.190   9.866   5.691
 5766SOL    HW119130   8.240   9.932   5.644
 5766SOL    HW219131   8.100   9.876   5.659
 5767SOL     OW19132  12.031   8.610   4.070
 5767SOL    HW119133  12.002   8.700   4.054
 5767SOL    HW219134  11.981   8.558   4.008
 5768SOL     OW19135   4.047  13.023   5.535
 5768SOL    HW119136   3.972  12.968   5.560
 5768SOL    HW219137   4.104  13.021   5.612
 5769SOL     OW19138   5.391   1.664  11.440
 5769SOL    HW119139   5.345   1.727  11.384
 5769SOL    HW219140   5.437   1.719  11.504
 5770SOL     OW19141  11.998   3.477   0.714
 5770SOL    HW119142  12.005   3.382   0.721
 5770SOL    HW219143  12.021   3.496   0.623
 5771SOL     OW19144   4.548   9.621  14.838
 5771SOL    HW119145   4.576   9.552   0.016
 5771SOL    HW219146   4.478   9.582  14.787
 5772SOL     OW19147  13.649  12.967   8.483
 5772SOL    HW119148  13.634  13.051   8.440
 5772SOL    HW219149  13.562  12.938   8.509
 5773SOL     OW19150   4.115  12.875   3.863
 5773SOL    HW119151   4.060  12.935   3.813
 5773SOL    HW219152   4.089  12.788   3.832
 5774SOL     OW19153   4.600   1.765  13.516
 5774SOL    HW119154   4.593   1.859  13.534
 5774SOL    HW219155   4.522   1.745  13.464
 5775SOL     OW19156  10.523   2.983   2.966
 5775SOL    HW119157  10.555   2.928   2.895
 5775SOL    HW219158  10.429   2.969   2.967
 5776SOL     OW19159   0.838  13.608   0.975
 5776SOL    HW119160   0.782  13.548   1.025
 5776SOL    HW219161   0.779  13.652   0.915
 5777SOL     OW19162   7.011  14.410  13.567
 5777SOL    HW119163   7.019  14.317  13.588
 5777SOL    HW219164   7.047  14.456  13.643
 5778SOL     OW19165  12.790   1.579   0.162
 5778SOL    HW119166  12.730   1.571   0.236
 5778SOL    HW219167  12.744   1.538   0.089
 5779SOL     OW19168   4.045   4.001  13.393
 5779SOL    HW119169   4.067   3.910  13.372
 5779SOL    HW219170   4.058   4.008  13.487
 5780SOL     OW19171   0.525  12.731  11.634
 5780SOL    HW119172   0.596  12.763  11.690
 5780SOL    HW219173   0.484  12.811  11.600
 5781SOL     OW19174  12.874  13.230   8.372
 5781SOL    HW119175  12.963  13.244   8.339
 5781SOL    HW219176  12.843  13.317   8.397
 5782SOL     OW19177  12.236   6.817   5.185
 5782SOL    HW119178  12.170   6.886   5.175
 5782SOL    HW219179  12.255   6.816   5.279
 5783SOL     OW19180   4.739   7.298  12.895
 5783SOL    HW119181   4.819   7.249  12.877
 5783SOL    HW219182   4.699   7.252  12.968
 5784SOL     OW19183   5.931   2.005   4.331
 5784SOL    HW119184   5.919   1.910   4.338
 5784SOL    HW219185   5.873   2.041   4.398
 5785SOL     OW19186  11.211   4.008   5.567
 5785SOL    HW119187  11.138   3.972   5.617
 5785SOL    HW219188  11.194   3.981   5.477
 5786SOL     OW19189  11.461   9.040   7.535
 5786SOL    HW119190  11.555   9.052   7.530
 5786SOL    HW219191  11.425   9.117   7.489
 5787SOL     OW19192   1.276   7.604   0.988
 5787SOL    HW119193   1.226   7.638   0.914
 5787SOL    HW219194   1.360   7.650   0.982
 5788SOL     OW19195  14.203  12.958   1.305
 5788SOL    HW119196  14.293  12.959   1.272
 5788SOL    HW219197  14.149  12.986   1.232
 5789SOL     OW19198   5.393  11.574   5.737
 5789SOL    HW119199   5.328  11.532   5.794
 5789SOL    HW219200   5.477  11.540   5.767
 5790SOL     OW19201   2.683   7.468   0.758
 5790SOL    HW119202   2.669   7.546   0.812
 5790SOL    HW219203   2.637   7.487   0.676
 5791SOL     OW19204   1.402   8.024  14.060
 5791SOL    HW119205   1.410   8.043  13.967
 5791SOL    HW219206   1.462   7.952  14.076
 5792SOL     OW19207   7.408   5.041  12.444
 5792SOL    HW119208   7.345   4.974  12.471
 5792SOL    HW219209   7.492   4.997  12.443
 5793SOL     OW19210   3.652   7.684   1.569
 5793SOL    HW119211   3.613   7.617   1.512
 5793SOL    HW219212   3.611   7.670   1.654
 5794SOL     OW19213   7.437   6.230   8.717
 5794SOL    HW119214   7.410   6.144   8.686
 5794SOL    HW219215   7.406   6.234   8.808
 5795SOL     OW19216  11.416   5.403  10.734
 5795SOL    HW119217  11.417   5.486  10.781
 5795SOL    HW219218  11.491   5.407  10.675
 5796SOL     OW19219  12.209  11.822   6.800
 5796SOL    HW119220  12.240  11.818   6.709
 5796SOL    HW219221  12.271  11.769   6.849
 5797SOL     OW19222   9.692  13.690   7.046
 5797SOL    HW119223   9.763  13.653   7.099
 5797SOL    HW219224   9.628  13.721   7.110
 5798SOL     OW19225   4.775  10.277   9.616
 5798SOL    HW119226   4.755  10.349   9.676
 5798SOL    HW219227   4.796  10.321   9.533
 5799SOL     OW19228   4.240   5.596  10.250
 5799SOL    HW119229   4.203   5.535  10.187
 5799SOL    HW219230   4.165   5.645  10.283
 5800SOL     OW19231   4.313   6.178  10.561
 5800SOL    HW119232   4.392   6.211  10.604
 5800SOL    HW219233   4.274   6.255  10.521
 5801SOL     OW19234   3.614  12.822   0.515
 5801SOL    HW119235   3.562  12.797   0.592
 5801SOL    HW219236   3.683  12.755   0.511
 5802SOL     OW19237   3.855  14.700   1.648
 5802SOL    HW119238   3.869  14.735   1.735
 5802SOL    HW219239   3.762  14.717   1.629
 5803SOL     OW19240   6.974   8.932   7.112
 5803SOL    HW119241   7.015   9.010   7.149
 5803SOL    HW219242   7.017   8.920   7.028
 5804SOL     OW19243   5.202  11.981  13.280
 5804SOL    HW119244   5.159  11.977  13.366
 5804SOL    HW219245   5.265  11.910  13.281
 5805SOL     OW19246  13.853   5.175  14.477
 5805SOL    HW119247  13.777   5.230  14.457
 5805SOL    HW219248  13.901   5.223  14.544
 5806SOL     OW19249  12.415   5.987   6.802
 5806SOL    HW119250  12.377   5.903   6.826
 5806SOL    HW219251  12.509   5.977   6.819
 5807SOL     OW19252   5.995  13.134  10.273
 5807SOL    HW119253   5.931  13.124  10.344
 5807SOL    HW219254   6.003  13.047  10.236
 5808SOL     OW19255  11.980  14.660   4.199
 5808SOL    HW119256  12.070  14.686   4.222
 5808SOL    HW219257  11.948  14.614   4.276
 5809SOL     OW19258  13.409  13.241   9.151
 5809SOL    HW119259  13.443  13.303   9.086
 5809SOL    HW219260  13.339  13.289   9.195
 5810SOL     OW19261  13.572   7.849  14.863
 5810SOL    HW119262  13.536   7.813  14.783
 5810SOL    HW219263  13.616   7.776   0.024
 5811SOL     OW19264  10.117   4.013   0.021
 5811SOL    HW119265  10.039   4.035  14.852
 5811SOL    HW219266  10.154   4.098   0.046
 5812SOL     OW19267  10.619   1.069   0.261
 5812SOL    HW119268  10.631   0.982   0.299
 5812SOL    HW219269  10.526   1.089   0.274
 5813SOL     OW19270   8.096  13.862   7.783
 5813SOL    HW119271   8.077  13.929   7.717
 5813SOL    HW219272   8.055  13.894   7.863
 5814SOL     OW19273   7.512  11.945   0.440
 5814SOL    HW119274   7.584  11.954   0.503
 5814SOL    HW219275   7.475  11.859   0.458
 5815SOL     OW19276   3.127   4.115   0.291
 5815SOL    HW119277   3.099   4.142   0.379
 5815SOL    HW219278   3.087   4.030   0.278
 5816SOL     OW19279  13.596   4.712   7.333
 5816SOL    HW119280  13.646   4.793   7.322
 5816SOL    HW219281  13.657   4.642   7.309
 5817SOL     OW19282  13.484  10.247   8.747
 5817SOL    HW119283  13.480  10.156   8.776
 5817SOL    HW219284  13.575  10.273   8.765
 5818SOL     OW19285  13.474   6.218   0.982
 5818SOL    HW119286  13.505   6.287   1.041
 5818SOL    HW219287  13.535   6.145   0.996
 5819SOL     OW19288  13.725   1.855   3.973
 5819SOL    HW119289  13.763   1.930   4.018
 5819SOL    HW219290  13.767   1.779   4.012
 5820SOL     OW19291  11.408   7.827   9.205
 5820SOL    HW119292  11.351   7.834   9.281
 5820SOL    HW219293  11.371   7.755   9.153
 5821SOL     OW19294  14.095   4.038   5.810
 5821SOL    HW119295  14.183   4.032   5.845
 5821SOL    HW219296  14.092   4.123   5.764
 5822SOL     OW19297   9.434   6.457   8.625
 5822SOL    HW119298   9.417   6.447   8.532
 5822SOL    HW219299   9.490   6.383   8.647
 5823SOL     OW19300   5.896   5.514   8.589
 5823SOL    HW119301   5.809   5.549   8.568
 5823SOL    HW219302   5.887   5.478   8.677
 5824SOL     OW19303   4.311  14.228   8.969
 5824SOL    HW119304   4.381  14.271   8.921
 5824SOL    HW219305   4.283  14.292   9.034
 5825SOL     OW19306   6.397   7.081  11.976
 5825SOL    HW119307   6.309   7.074  11.940
 5825SOL    HW219308   6.440   7.147  11.922
 5826SOL     OW19309   1.000   1.385  10.855
 5826SOL    HW119310   1.008   1.297  10.893
 5826SOL    HW219311   0.981   1.369  10.762
 5827SOL     OW19312  13.751   8.220  11.554
 5827SOL    HW119313  13.820   8.264  11.505
 5827SOL    HW219314  13.704   8.292  11.598
 5828SOL     OW19315  14.815   5.616  13.006
 5828SOL    HW119316   0.019   5.609  13.048
 5828SOL    HW219317  14.829   5.675  12.932
 5829SOL     OW19318   2.758   8.281   5.998
 5829SOL    HW119319   2.773   8.251   6.088
 5829SOL    HW219320   2.838   8.329   5.976
 5830SOL     OW19321  10.366   9.390  12.575
 5830SOL    HW119322  10.321   9.450  12.634
 5830SOL    HW219323  10.297   9.339  12.534
 5831SOL     OW19324  10.882   0.966   7.384
 5831SOL    HW119325  10.869   0.909   7.460
 5831SOL    HW219326  10.975   0.958   7.364
 5832SOL     OW19327  10.889   9.314   8.179
 5832SOL    HW119328  10.903   9.280   8.091
 5832SOL    HW219329  10.976   9.315   8.219
 5833SOL     OW19330  13.370   8.073   7.478
 5833SOL    HW119331  13.332   8.161   7.479
 5833SOL    HW219332  13.309   8.021   7.426
 5834SOL     OW19333   1.880  13.288   8.268
 5834SOL    HW119334   1.801  13.276   8.319
 5834SOL    HW219335   1.911  13.199   8.250
 5835SOL     OW19336   2.686  10.166   5.289
 5835SOL    HW119337   2.600  10.187   5.325
 5835SOL    HW219338   2.667  10.107   5.216
 5836SOL     OW19339   0.911   8.324  10.606
 5836SOL    HW119340   0.935   8.279  10.687
 5836SOL    HW219341   0.994   8.356  10.570
 5837SOL     OW19342   4.806   2.349   6.988
 5837SOL    HW119343   4.787   2.274   7.045
 5837SOL    HW219344   4.743   2.415   7.014
 5838SOL     OW19345   9.706   8.621   0.683
 5838SOL    HW119346   9.638   8.635   0.749
 5838SOL    HW219347   9.766   8.694   0.694
 5839SOL     OW19348  12.540   8.148  12.494
 5839SOL    HW119349  12.622   8.143  12.445
 5839SOL    HW219350  12.505   8.234  12.473
 5840SOL     OW19351   1.017  12.594   4.034
 5840SOL    HW119352   0.972  12.530   4.088
 5840SOL    HW219353   1.078  12.543   3.980
 5841SOL     OW19354   6.462   3.230   1.957
 5841SOL    HW119355   6.438   3.144   1.991
 5841SOL    HW219356   6.489   3.280   2.034
 5842SOL     OW19357   2.763   4.127  10.570
 5842SOL    HW119358   2.845   4.116  10.618
 5842SOL    HW219359   2.789   4.166  10.486
 5843SOL     OW19360   8.675   8.014   7.836
 5843SOL    HW119361   8.681   7.926   7.874
 5843SOL    HW219362   8.756   8.023   7.785
 5844SOL     OW19363  13.172   3.899  10.011
 5844SOL    HW119364  13.122   3.925   9.934
 5844SOL    HW219365  13.221   3.822   9.982
 5845SOL     OW19366  14.362  12.661   1.084
 5845SOL    HW119367  14.395  12.744   1.118
 5845SOL    HW219368  14.379  12.598   1.154
 5846SOL     OW19369   5.063   1.254  11.876
 5846SOL    HW119370   5.008   1.332  11.879
 5846SOL    HW219371   5.002   1.180  11.874
 5847SOL     OW19372  13.815   9.643   4.092
 5847SOL    HW119373  13.788   9.731   4.116
 5847SOL    HW219374  13.907   9.651   4.069
 5848SOL     OW19375  11.435   1.898   2.100
 5848SOL    HW119376  11.349   1.915   2.136
 5848SOL    HW219377  11.419   1.844   2.022
 5849SOL     OW19378  10.260   3.993  13.367
 5849SOL    HW119379  10.217   4.024  13.447
 5849SOL    HW219380  10.189   3.953  13.316
 5850SOL     OW19381  14.144   5.529   7.138
 5850SOL    HW119382  14.067   5.482   7.170
 5850SOL    HW219383  14.215   5.501   7.196
 5851SOL     OW19384   3.268   0.112   3.082
 5851SOL    HW119385   3.196   0.174   3.090
 5851SOL    HW219386   3.345   0.166   3.066
 5852SOL     OW19387   0.682   5.950   7.576
 5852SOL    HW119388   0.703   5.867   7.620
 5852SOL    HW219389   0.609   5.928   7.518
 5853SOL     OW19390   4.050   0.351   5.695
 5853SOL    HW119391   4.136   0.392   5.702
 5853SOL    HW219392   4.068   0.258   5.680
 5854SOL     OW19393  10.615  14.603   1.562
 5854SOL    HW119394  10.570  14.647   1.489
 5854SOL    HW219395  10.702  14.584   1.528
 5855SOL     OW19396   3.151  12.674   6.389
 5855SOL    HW119397   3.172  12.582   6.372
 5855SOL    HW219398   3.094  12.699   6.317
 5856SOL     OW19399  12.089   9.472  10.471
 5856SOL    HW119400  12.000   9.439  10.482
 5856SOL    HW219401  12.080   9.567  10.479
 5857SOL     OW19402   2.173  10.569   2.654
 5857SOL    HW119403   2.192  10.492   2.708
 5857SOL    HW219404   2.132  10.534   2.576
 5858SOL     OW19405   5.756  14.875   8.281
 5858SOL    HW119406   5.834  14.846   8.234
 5858SOL    HW219407   5.736  14.804   8.341
 5859SOL     OW19408   9.818  11.967   5.157
 5859SOL    HW119409   9.856  11.890   5.115
 5859SOL    HW219410   9.825  11.949   5.251
 5860SOL     OW19411  11.711   4.426  13.918
 5860SOL    HW119412  11.782   4.423  13.854
 5860SOL    HW219413  11.633   4.441  13.865
 5861SOL     OW19414  14.642   3.745  13.945
 5861SOL    HW119415  14.669   3.702  13.863
 5861SOL    HW219416  14.669   3.836  13.935
 5862SOL     OW19417   1.687   1.013  12.536
 5862SOL    HW119418   1.669   0.934  12.587
 5862SOL    HW219419   1.685   1.084  12.600
 5863SOL     OW19420  14.767   3.510   2.309
 5863SOL    HW119421  14.850   3.498   2.263
 5863SOL    HW219422  14.766   3.603   2.332
 5864SOL     OW19423   3.921  13.619  12.527
 5864SOL    HW119424   3.899  13.687  12.463
 5864SOL    HW219425   3.948  13.667  12.605
 5865SOL     OW19426  10.576   3.343  13.607
 5865SOL    HW119427  10.641   3.299  13.662
 5865SOL    HW219428  10.627   3.374  13.531
 5866SOL     OW19429  12.280   2.983  10.393
 5866SOL    HW119430  12.348   2.973  10.327
 5866SOL    HW219431  12.257   3.076  10.390
 5867SOL     OW19432   3.488  12.916   5.436
 5867SOL    HW119433   3.551  12.973   5.480
 5867SOL    HW219434   3.449  12.864   5.506
 5868SOL     OW19435   1.307   2.094  11.967
 5868SOL    HW119436   1.242   2.076  11.899
 5868SOL    HW219437   1.344   2.179  11.943
 5869SOL     OW19438   3.702   4.560  12.856
 5869SOL    HW119439   3.797   4.570  12.847
 5869SOL    HW219440   3.687   4.466  12.855
 5870SOL     OW19441  11.948   5.868   9.120
 5870SOL    HW119442  11.984   5.892   9.035
 5870SOL    HW219443  11.887   5.939   9.140
 5871SOL     OW19444  14.056  12.535  12.721
 5871SOL    HW119445  14.040  12.469  12.789
 5871SOL    HW219446  13.987  12.520  12.657
 5872SOL     OW19447   9.567  10.742  10.089
 5872SOL    HW119448   9.492  10.791  10.123
 5872SOL    HW219449   9.641  10.801  10.101
 5873SOL     OW19450  12.874   2.865  11.585
 5873SOL    HW119451  12.947   2.895  11.530
 5873SOL    HW219452  12.916   2.832  11.664
 5874SOL     OW19453   7.116  10.543   8.547
 5874SOL    HW119454   7.138  10.560   8.456
 5874SOL    HW219455   7.022  10.562   8.553
 5875SOL     OW19456   4.156   5.639   2.601
 5875SOL    HW119457   4.155   5.721   2.551
 5875SOL    HW219458   4.224   5.653   2.667
 5876SOL     OW19459  14.247   8.017   9.011
 5876SOL    HW119460  14.282   8.007   8.923
 5876SOL    HW219461  14.323   8.003   9.068
 5877SOL     OW19462   4.202   5.650   8.128
 5877SOL    HW119463   4.294   5.626   8.136
 5877SOL    HW219464   4.155   5.567   8.134
 5878SOL     OW19465   0.694  13.758   2.744
 5878SOL    HW119466   0.753  13.683   2.738
 5878SOL    HW219467   0.724  13.807   2.820
 5879SOL     OW19468   6.875  13.518   4.892
 5879SOL    HW119469   6.881  13.530   4.797
 5879SOL    HW219470   6.891  13.605   4.928
 5880SOL     OW19471   4.038   1.906   3.623
 5880SOL    HW119472   4.034   1.997   3.593
 5880SOL    HW219473   4.033   1.854   3.544
 5881SOL     OW19474   0.129  10.560  14.219
 5881SOL    HW119475   0.075  10.637  14.235
 5881SOL    HW219476   0.186  10.554  14.295
 5882SOL     OW19477   6.466   0.913  11.882
 5882SOL    HW119478   6.472   0.854  11.807
 5882SOL    HW219479   6.540   0.973  11.872
 5883SOL     OW19480   0.333   2.434   9.951
 5883SOL    HW119481   0.412   2.394   9.990
 5883SOL    HW219482   0.363   2.467   9.867
 5884SOL     OW19483   6.204  12.681  10.781
 5884SOL    HW119484   6.241  12.594  10.796
 5884SOL    HW219485   6.213  12.727  10.864
 5885SOL     OW19486   3.004   8.410  12.922
 5885SOL    HW119487   2.962   8.347  12.981
 5885SOL    HW219488   2.975   8.495  12.955
 5886SOL     OW19489   7.140  12.039   3.826
 5886SOL    HW119490   7.185  12.122   3.815
 5886SOL    HW219491   7.202  11.973   3.794
 5887SOL     OW19492   3.871   1.484  11.067
 5887SOL    HW119493   3.778   1.464  11.071
 5887SOL    HW219494   3.875   1.580  11.066
 5888SOL     OW19495   9.871   4.522   5.001
 5888SOL    HW119496   9.809   4.562   5.063
 5888SOL    HW219497   9.955   4.562   5.024
 5889SOL     OW19498  12.550   3.762   3.348
 5889SOL    HW119499  12.467   3.770   3.301
 5889SOL    HW219500  12.591   3.684   3.311
 5890SOL     OW19501   3.365   1.699  13.816
 5890SOL    HW119502   3.359   1.634  13.885
 5890SOL    HW219503   3.283   1.690  13.767
 5891SOL     OW19504   3.399   9.966   8.509
 5891SOL    HW119505   3.494   9.952   8.510
 5891SOL    HW219506   3.371   9.935   8.423
 5892SOL     OW19507   2.192  12.814  14.829
 5892SOL    HW119508   2.097  12.805  14.821
 5892SOL    HW219509   2.227  12.769  14.752
 5893SOL     OW19510   8.349   3.797  10.684
 5893SOL    HW119511   8.277   3.751  10.728
 5893SOL    HW219512   8.357   3.880  10.731
 5894SOL     OW19513   9.049   2.998   2.870
 5894SOL    HW119514   8.999   2.958   2.798
 5894SOL    HW219515   9.134   2.954   2.867
 5895SOL     OW19516   0.661   4.795   5.396
 5895SOL    HW119517   0.740   4.752   5.364
 5895SOL    HW219518   0.593   4.728   5.390
 5896SOL     OW19519  13.480   3.336  12.855
 5896SOL    HW119520  13.415   3.329  12.924
 5896SOL    HW219521  13.432   3.319  12.774
 5897SOL     OW19522   3.727   3.140  13.973
 5897SOL    HW119523   3.719   3.232  13.949
 5897SOL    HW219524   3.637   3.110  13.986
 5898SOL     OW19525   9.111   5.730   4.900
 5898SOL    HW119526   9.190   5.777   4.927
 5898SOL    HW219527   9.042   5.796   4.900
 5899SOL     OW19528  11.099   4.010  13.658
 5899SOL    HW119529  11.088   4.087  13.715
 5899SOL    HW219530  11.009   3.982  13.640
 5900SOL     OW19531   6.813   1.021  10.227
 5900SOL    HW119532   6.825   1.076  10.149
 5900SOL    HW219533   6.868   0.944  10.211
 5901SOL     OW19534  10.195  10.506  14.518
 5901SOL    HW119535  10.233  10.471  14.599
 5901SOL    HW219536  10.205  10.601  14.527
 5902SOL     OW19537   1.747   2.342  12.108
 5902SOL    HW119538   1.722   2.302  12.025
 5902SOL    HW219539   1.668   2.337  12.162
 5903SOL     OW19540  11.663  12.474  10.727
 5903SOL    HW119541  11.613  12.498  10.805
 5903SOL    HW219542  11.597  12.473  10.657
 5904SOL     OW19543   0.289  13.722   8.518
 5904SOL    HW119544   0.303  13.793   8.581
 5904SOL    HW219545   0.194  13.717   8.509
 5905SOL     OW19546   5.157  11.976  11.794
 5905SOL    HW119547   5.111  11.998  11.876
 5905SOL    HW219548   5.229  12.038  11.789
 5906SOL     OW19549   4.421  10.478  12.402
 5906SOL    HW119550   4.350  10.506  12.345
 5906SOL    HW219551   4.494  10.537  12.382
 5907SOL     OW19552   4.362   6.936   8.952
 5907SOL    HW119553   4.370   7.007   9.016
 5907SOL    HW219554   4.383   6.857   9.001
 5908SOL     OW19555   2.697   1.740   4.141
 5908SOL    HW119556   2.779   1.743   4.091
 5908SOL    HW219557   2.634   1.700   4.081
 5909SOL     OW19558   7.385   5.134  13.912
 5909SOL    HW119559   7.365   5.052  13.867
 5909SOL    HW219560   7.370   5.115  14.004
 5910SOL     OW19561   2.033   4.769  12.437
 5910SOL    HW119562   2.062   4.686  12.473
 5910SOL    HW219563   2.113   4.821  12.430
 5911SOL     OW19564   1.719   1.808   6.606
 5911SOL    HW119565   1.705   1.897   6.638
 5911SOL    HW219566   1.764   1.820   6.522
 5912SOL     OW19567  10.354   7.714  14.817
 5912SOL    HW119568  10.391   7.766   0.005
 5912SOL    HW219569  10.294   7.773  14.772
 5913SOL     OW19570  11.594  10.018   9.342
 5913SOL    HW119571  11.589  10.079   9.415
 5913SOL    HW219572  11.542   9.943   9.370
 5914SOL     OW19573   9.848  10.126  10.801
 5914SOL    HW119574   9.841  10.073  10.881
 5914SOL    HW219575   9.845  10.216  10.831
 5915SOL     OW19576  13.559   6.773   1.779
 5915SOL    HW119577  13.487   6.720   1.746
 5915SOL    HW219578  13.538   6.788   1.871
 5916SOL     OW19579  11.708  12.656   9.357
 5916SOL    HW119580  11.698  12.567   9.323
 5916SOL    HW219581  11.625  12.674   9.402
 5917SOL     OW19582  14.608   5.532   3.770
 5917SOL    HW119583  14.535   5.572   3.818
 5917SOL    HW219584  14.664   5.495   3.838
 5918SOL     OW19585   4.717  11.707   0.339
 5918SOL    HW119586   4.735  11.734   0.429
 5918SOL    HW219587   4.784  11.642   0.320
 5919SOL     OW19588  14.353   9.529   9.383
 5919SOL    HW119589  14.377   9.504   9.294
 5919SOL    HW219590  14.338   9.623   9.379
 5920SOL     OW19591   3.129  10.163   6.148
 5920SOL    HW119592   3.221  10.187   6.155
 5920SOL    HW219593   3.113  10.156   6.054
 5921SOL     OW19594   0.994  10.375   0.155
 5921SOL    HW119595   1.004  10.380   0.250
 5921SOL    HW219596   0.935  10.447   0.133
 5922SOL     OW19597  10.927   3.805   2.304
 5922SOL    HW119598  10.877   3.818   2.385
 5922SOL    HW219599  10.883   3.731   2.262
 5923SOL     OW19600   3.242   5.180   3.581
 5923SOL    HW119601   3.212   5.141   3.663
 5923SOL    HW219602   3.223   5.273   3.590
 5924SOL     OW19603  13.759   2.490   6.759
 5924SOL    HW119604  13.753   2.447   6.844
 5924SOL    HW219605  13.845   2.463   6.725
 5925SOL     OW19606  13.687   6.356   9.743
 5925SOL    HW119607  13.675   6.449   9.726
 5925SOL    HW219608  13.700   6.317   9.657
 5926SOL     OW19609   1.582   9.929   8.194
 5926SOL    HW119610   1.565  10.022   8.179
 5926SOL    HW219611   1.497   9.887   8.177
 5927SOL     OW19612   9.319  11.639   5.223
 5927SOL    HW119613   9.338  11.595   5.306
 5927SOL    HW219614   9.399  11.687   5.203
 5928SOL     OW19615  10.284  14.833   0.307
 5928SOL    HW119616  10.299   0.035   0.263
 5928SOL    HW219617  10.220  14.854   0.376
 5929SOL     OW19618  13.633  11.415   2.530
 5929SOL    HW119619  13.574  11.462   2.589
 5929SOL    HW219620  13.711  11.471   2.525
 5930SOL     OW19621   3.689   8.568   4.264
 5930SOL    HW119622   3.691   8.500   4.196
 5930SOL    HW219623   3.745   8.638   4.230
 5931SOL     OW19624  12.722   8.066  12.072
 5931SOL    HW119625  12.628   8.049  12.068
 5931SOL    HW219626  12.762   7.989  12.031
 5932SOL     OW19627  11.472   4.521   9.651
 5932SOL    HW119628  11.394   4.576   9.652
 5932SOL    HW219629  11.508   4.532   9.563
 5933SOL     OW19630   3.489   6.302   5.237
 5933SOL    HW119631   3.464   6.210   5.242
 5933SOL    HW219632   3.484   6.323   5.144
 5934SOL     OW19633   3.198   8.158   9.924
 5934SOL    HW119634   3.219   8.229   9.864
 5934SOL    HW219635   3.242   8.081   9.887
 5935SOL     OW19636   2.840   8.371   3.599
 5935SOL    HW119637   2.766   8.433   3.600
 5935SOL    HW219638   2.814   8.302   3.659
 5936SOL     OW19639   9.618   7.539  12.221
 5936SOL    HW119640   9.699   7.531  12.171
 5936SOL    HW219641   9.622   7.627  12.259
 5937SOL     OW19642  14.869   1.583   8.440
 5937SOL    HW119643  14.851   1.547   8.353
 5937SOL    HW219644  14.789   1.568   8.490
 5938SOL     OW19645   4.483   1.882   8.143
 5938SOL    HW119646   4.388   1.880   8.150
 5938SOL    HW219647   4.514   1.898   8.233
 5939SOL     OW19648  12.575   8.450   7.388
 5939SOL    HW119649  12.611   8.534   7.359
 5939SOL    HW219650  12.652   8.397   7.409
 5940SOL     OW19651   4.738   0.433  12.852
 5940SOL    HW119652   4.749   0.504  12.915
 5940SOL    HW219653   4.691   0.473  12.779
 5941SOL     OW19654   3.105  12.212  11.580
 5941SOL    HW119655   3.033  12.174  11.530
 5941SOL    HW219656   3.168  12.140  11.589
 5942SOL     OW19657   1.609  14.093   6.679
 5942SOL    HW119658   1.580  14.094   6.588
 5942SOL    HW219659   1.691  14.142   6.678
 5943SOL     OW19660   3.305   8.580  10.881
 5943SOL    HW119661   3.387   8.542  10.912
 5943SOL    HW219662   3.242   8.562  10.950
 5944SOL     OW19663  13.222  12.782   6.837
 5944SOL    HW119664  13.212  12.875   6.815
 5944SOL    HW219665  13.288  12.751   6.776
 5945SOL     OW19666   8.799   4.218   7.755
 5945SOL    HW119667   8.833   4.276   7.686
 5945SOL    HW219668   8.832   4.132   7.732
 5946SOL     OW19669   5.195  13.373   7.167
 5946SOL    HW119670   5.198  13.457   7.215
 5946SOL    HW219671   5.275  13.328   7.192
 5947SOL     OW19672   8.350   6.965   7.652
 5947SOL    HW119673   8.259   6.952   7.679
 5947SOL    HW219674   8.345   7.039   7.591
 5948SOL     OW19675  11.783   6.156   6.737
 5948SOL    HW119676  11.729   6.218   6.689
 5948SOL    HW219677  11.856   6.208   6.771
 5949SOL     OW19678  11.006   6.228   7.741
 5949SOL    HW119679  11.021   6.228   7.647
 5949SOL    HW219680  11.080   6.180   7.778
 5950SOL     OW19681   5.674   7.935   6.931
 5950SOL    HW119682   5.588   7.894   6.937
 5950SOL    HW219683   5.670   7.988   6.851
 5951SOL     OW19684   0.604  12.017   0.997
 5951SOL    HW119685   0.524  12.070   0.998
 5951SOL    HW219686   0.665  12.066   1.053
 5952SOL     OW19687  12.748   4.418  13.666
 5952SOL    HW119688  12.818   4.427  13.730
 5952SOL    HW219689  12.788   4.374  13.591
 5953SOL     OW19690   0.139   5.084   6.076
 5953SOL    HW119691   0.141   4.997   6.035
 5953SOL    HW219692   0.228   5.099   6.105
 5954SOL     OW19693   6.128  14.300   2.917
 5954SOL    HW119694   6.065  14.271   2.983
 5954SOL    HW219695   6.120  14.235   2.847
 5955SOL     OW19696   3.592   2.011  10.648
 5955SOL    HW119697   3.648   1.964  10.710
 5955SOL    HW219698   3.549   1.942  10.598
 5956SOL     OW19699  13.105   0.466   2.001
 5956SOL    HW119700  13.060   0.381   1.999
 5956SOL    HW219701  13.048   0.521   2.055
 5957SOL     OW19702   7.398   8.051  10.822
 5957SOL    HW119703   7.344   8.123  10.854
 5957SOL    HW219704   7.420   8.077  10.732
 5958SOL     OW19705   5.664  11.614  14.272
 5958SOL    HW119706   5.724  11.652  14.207
 5958SOL    HW219707   5.593  11.577  14.219
 5959SOL     OW19708   7.454   9.377  14.153
 5959SOL    HW119709   7.386   9.418  14.207
 5959SOL    HW219710   7.409   9.304  14.111
 5960SOL     OW19711   6.750  12.582  14.591
 5960SOL    HW119712   6.813  12.648  14.619
 5960SOL    HW219713   6.712  12.548  14.672
 5961SOL     OW19714  11.725   1.662  10.236
 5961SOL    HW119715  11.669   1.686  10.162
 5961SOL    HW219716  11.684   1.703  10.312
 5962SOL     OW19717  11.224   9.660   9.517
 5962SOL    HW119718  11.237   9.606   9.595
 5962SOL    HW219719  11.129   9.667   9.507
 5963SOL     OW19720  13.208   2.249   1.994
 5963SOL    HW119721  13.271   2.317   1.973
 5963SOL    HW219722  13.228   2.177   1.935
 5964SOL     OW19723   7.825   9.902   0.531
 5964SOL    HW119724   7.832   9.939   0.619
 5964SOL    HW219725   7.858   9.813   0.539
 5965SOL     OW19726  10.969   9.895   0.423
 5965SOL    HW119727  10.923   9.887   0.339
 5965SOL    HW219728  10.959   9.987   0.446
 5966SOL     OW19729   0.627  11.400   3.334
 5966SOL    HW119730   0.614  11.488   3.370
 5966SOL    HW219731   0.597  11.406   3.243
 5967SOL     OW19732   3.795   8.699   6.346
 5967SOL    HW119733   3.816   8.783   6.386
 5967SOL    HW219734   3.719   8.716   6.291
 5968SOL     OW19735   5.233   1.195   7.131
 5968SOL    HW119736   5.202   1.257   7.065
 5968SOL    HW219737   5.293   1.137   7.084
 5969SOL     OW19738  11.601   6.324   0.065
 5969SOL    HW119739  11.530   6.387   0.078
 5969SOL    HW219740  11.579   6.280  14.865
 5970SOL     OW19741   9.979  13.685   6.862
 5970SOL    HW119742  10.074  13.683   6.855
 5970SOL    HW219743   9.952  13.594   6.845
 5971SOL     OW19744  10.587  11.211  10.175
 5971SOL    HW119745  10.575  11.180  10.264
 5971SOL    HW219746  10.653  11.153  10.138
 5972SOL     OW19747   1.202  13.000   8.601
 5972SOL    HW119748   1.131  12.958   8.551
 5972SOL    HW219749   1.280  12.950   8.578
 5973SOL     OW19750  14.498   8.309   6.261
 5973SOL    HW119751  14.569   8.286   6.321
 5973SOL    HW219752  14.542   8.339   6.181
 5974SOL     OW19753  12.854  10.247  13.431
 5974SOL    HW119754  12.826  10.331  13.392
 5974SOL    HW219755  12.820  10.181  13.372
 5975SOL     OW19756   6.769   3.978  11.831
 5975SOL    HW119757   6.853   3.936  11.848
 5975SOL    HW219758   6.770   4.056  11.887
 5976SOL     OW19759   0.012   9.985   2.944
 5976SOL    HW119760   0.090   9.972   2.998
 5976SOL    HW219761   0.046  10.000   2.855
 5977SOL     OW19762  10.680   1.236   0.491
 5977SOL    HW119763  10.618   1.203   0.426
 5977SOL    HW219764  10.755   1.266   0.439
 5978SOL     OW19765   6.494   2.460   8.716
 5978SOL    HW119766   6.507   2.413   8.799
 5978SOL    HW219767   6.579   2.456   8.672
 5979SOL     OW19768   6.353  14.261  12.487
 5979SOL    HW119769   6.405  14.182  12.471
 5979SOL    HW219770   6.278  14.230  12.538
 5980SOL     OW19771   3.800   2.130   9.557
 5980SOL    HW119772   3.796   2.226   9.563
 5980SOL    HW219773   3.837   2.103   9.641
 5981SOL     OW19774   0.900   1.705   7.028
 5981SOL    HW119775   0.821   1.732   6.981
 5981SOL    HW219776   0.964   1.774   7.009
 5982SOL     OW19777   4.978   7.655   5.678
 5982SOL    HW119778   4.980   7.567   5.717
 5982SOL    HW219779   5.057   7.697   5.711
 5983SOL     OW19780   0.269  13.276   5.241
 5983SOL    HW119781   0.184  13.306   5.273
 5983SOL    HW219782   0.248  13.203   5.182
 5984SOL     OW19783   7.883   1.842  13.384
 5984SOL    HW119784   7.914   1.923  13.425
 5984SOL    HW219785   7.837   1.871  13.306
 5985SOL     OW19786  14.568   1.284  11.224
 5985SOL    HW119787  14.509   1.209  11.227
 5985SOL    HW219788  14.653   1.247  11.199
 5986SOL     OW19789   5.973   1.226   7.842
 5986SOL    HW119790   6.064   1.222   7.872
 5986SOL    HW219791   5.922   1.189   7.915
 5987SOL     OW19792   2.676   4.547   0.062
 5987SOL    HW119793   2.614   4.484   0.027
 5987SOL    HW219794   2.658   4.628   0.014
 5988SOL     OW19795   1.119   3.027   4.607
 5988SOL    HW119796   1.136   3.005   4.698
 5988SOL    HW219797   1.097   3.120   4.609
 5989SOL     OW19798   5.085   6.320   2.160
 5989SOL    HW119799   5.033   6.397   2.139
 5989SOL    HW219800   5.162   6.355   2.205
 5990SOL     OW19801   8.569   4.519  11.562
 5990SOL    HW119802   8.562   4.459  11.488
 5990SOL    HW219803   8.643   4.486  11.612
 5991SOL     OW19804   9.008  14.521   8.986
 5991SOL    HW119805   8.987  14.522   8.893
 5991SOL    HW219806   8.927  14.550   9.029
 5992SOL     OW19807   8.208   4.345   3.636
 5992SOL    HW119808   8.289   4.377   3.676
 5992SOL    HW219809   8.175   4.280   3.698
 5993SOL     OW19810   2.865   6.424   6.137
 5993SOL    HW119811   2.784   6.474   6.126
 5993SOL    HW219812   2.899   6.415   6.047
 5994SOL     OW19813  13.941   6.549  10.225
 5994SOL    HW119814  14.001   6.484  10.190
 5994SOL    HW219815  13.897   6.505  10.298
 5995SOL     OW19816   5.529  14.358  11.328
 5995SOL    HW119817   5.589  14.369  11.401
 5995SOL    HW219818   5.442  14.363  11.368
 5996SOL     OW19819  13.063   7.215   9.204
 5996SOL    HW119820  13.112   7.170   9.136
 5996SOL    HW219821  13.117   7.206   9.282
 5997SOL     OW19822   6.893   9.723  10.765
 5997SOL    HW119823   6.879   9.786  10.695
 5997SOL    HW219824   6.810   9.677  10.774
 5998SOL     OW19825  10.295  11.512   6.359
 5998SOL    HW119826  10.321  11.600   6.385
 5998SOL    HW219827  10.269  11.521   6.267
 5999SOL     OW19828  10.272  12.440  11.183
 5999SOL    HW119829  10.261  12.417  11.275
 5999SOL    HW219830  10.364  12.420  11.164
 6000SOL     OW19831   0.702  11.440   0.852
 6000SOL    HW119832   0.648  11.410   0.924
 6000SOL    HW219833   0.785  11.464   0.892
 6001SOL     OW19834  11.208   5.444   6.171
 6001SOL    HW119835  11.303   5.449   6.158
 6001SOL    HW219836  11.187   5.523   6.222
 6002SOL     OW19837   2.209   3.549  13.411
 6002SOL    HW119838   2.125   3.526  13.371
 6002SOL    HW219839   2.191   3.550  13.505
 6003SOL     OW19840  11.367  14.223   1.716
 6003SOL    HW119841  11.444  14.181   1.678
 6003SOL    HW219842  11.347  14.171   1.793
 6004SOL     OW19843   4.727   2.544  14.864
 6004SOL    HW119844   4.648   2.547   0.036
 6004SOL    HW219845   4.695   2.540  14.774
 6005SOL     OW19846   1.219   9.501  11.480
 6005SOL    HW119847   1.294   9.537  11.527
 6005SOL    HW219848   1.186   9.575  11.428
 6006SOL     OW19849  12.572   7.631   1.824
 6006SOL    HW119850  12.531   7.593   1.746
 6006SOL    HW219851  12.506   7.622   1.893
 6007SOL     OW19852   4.021   1.360   5.554
 6007SOL    HW119853   3.945   1.314   5.518
 6007SOL    HW219854   3.990   1.394   5.638
 6008SOL     OW19855  10.110   9.010  12.838
 6008SOL    HW119856  10.153   8.937  12.884
 6008SOL    HW219857  10.169   9.030  12.766
 6009SOL     OW19858   3.677  13.262  10.915
 6009SOL    HW119859   3.593  13.273  10.959
 6009SOL    HW219860   3.713  13.181  10.951
 6010SOL     OW19861   6.730   6.911   6.874
 6010SOL    HW119862   6.812   6.862   6.879
 6010SOL    HW219863   6.757   7.003   6.873
 6011SOL     OW19864   2.552   6.184  12.533
 6011SOL    HW119865   2.587   6.100  12.505
 6011SOL    HW219866   2.457   6.177  12.521
 6012SOL     OW19867   4.184   4.694  10.551
 6012SOL    HW119868   4.203   4.722  10.462
 6012SOL    HW219869   4.146   4.606  10.541
 6013SOL     OW19870  13.986   7.194   1.249
 6013SOL    HW119871  13.987   7.111   1.295
 6013SOL    HW219872  13.918   7.245   1.293
 6014SOL     OW19873   3.579   3.985   4.904
 6014SOL    HW119874   3.656   4.039   4.922
 6014SOL    HW219875   3.591   3.908   4.961
 6015SOL     OW19876   8.775   7.976  14.226
 6015SOL    HW119877   8.700   8.022  14.263
 6015SOL    HW219878   8.822   8.043  14.176
 6016SOL     OW19879  14.399  10.126   8.327
 6016SOL    HW119880  14.396  10.038   8.365
 6016SOL    HW219881  14.435  10.113   8.240
 6017SOL     OW19882   9.371   0.625   3.637
 6017SOL    HW119883   9.360   0.720   3.646
 6017SOL    HW219884   9.346   0.590   3.722
 6018SOL     OW19885   0.377   6.659   3.148
 6018SOL    HW119886   0.357   6.633   3.059
 6018SOL    HW219887   0.340   6.590   3.203
 6019SOL     OW19888   7.089   0.124   8.878
 6019SOL    HW119889   7.075   0.030   8.865
 6019SOL    HW219890   7.103   0.158   8.789
 6020SOL     OW19891  10.372  10.392  14.022
 6020SOL    HW119892  10.300  10.455  14.017
 6020SOL    HW219893  10.377  10.354  13.935
 6021SOL     OW19894   1.116  12.958  14.227
 6021SOL    HW119895   1.134  12.921  14.314
 6021SOL    HW219896   1.034  13.005  14.238
 6022SOL     OW19897   3.472  11.556  10.512
 6022SOL    HW119898   3.388  11.522  10.542
 6022SOL    HW219899   3.485  11.636  10.563
 6023SOL     OW19900   1.299   7.550   3.522
 6023SOL    HW119901   1.205   7.531   3.528
 6023SOL    HW219902   1.316   7.606   3.598
 6024SOL     OW19903   4.757   1.365  13.466
 6024SOL    HW119904   4.842   1.402  13.441
 6024SOL    HW219905   4.738   1.301  13.398
 6025SOL     OW19906   7.905   2.930   3.814
 6025SOL    HW119907   7.843   2.986   3.861
 6025SOL    HW219908   7.885   2.841   3.843
 6026SOL     OW19909   7.462  12.235   8.426
 6026SOL    HW119910   7.396  12.305   8.422
 6026SOL    HW219911   7.515  12.249   8.347
 6027SOL     OW19912   7.697  13.292   2.990
 6027SOL    HW119913   7.741  13.362   3.038
 6027SOL    HW219914   7.632  13.336   2.936
 6028SOL     OW19915   0.583  12.479  13.007
 6028SOL    HW119916   0.504  12.427  12.999
 6028SOL    HW219917   0.553  12.565  13.037
 6029SOL     OW19918  11.314   2.248   0.110
 6029SOL    HW119919  11.256   2.310   0.066
 6029SOL    HW219920  11.345   2.295   0.187
 6030SOL     OW19921   2.787   5.568   3.214
 6030SOL    HW119922   2.702   5.523   3.222
 6030SOL    HW219923   2.849   5.499   3.192
 6031SOL     OW19924   1.404   6.823   5.897
 6031SOL    HW119925   1.421   6.808   5.990
 6031SOL    HW219926   1.466   6.765   5.852
 6032SOL     OW19927  10.404   6.734   1.820
 6032SOL    HW119928  10.323   6.683   1.818
 6032SOL    HW219929  10.414   6.766   1.730
 6033SOL     OW19930  10.271   4.289   1.634
 6033SOL    HW119931  10.343   4.319   1.578
 6033SOL    HW219932  10.194   4.334   1.601
 6034SOL     OW19933   1.287  14.283  14.169
 6034SOL    HW119934   1.214  14.294  14.108
 6034SOL    HW219935   1.332  14.368  14.168
 6035SOL     OW19936  12.930   0.067   5.987
 6035SOL    HW119937  12.985   0.079   6.064
 6035SOL    HW219938  12.967   0.124   5.920
 6036SOL     OW19939   4.466  10.663  11.378
 6036SOL    HW119940   4.525  10.597  11.341
 6036SOL    HW219941   4.454  10.635  11.469
 6037SOL     OW19942   7.675   5.453   2.469
 6037SOL    HW119943   7.725   5.394   2.525
 6037SOL    HW219944   7.629   5.510   2.531
 6038SOL     OW19945  12.087  12.086  11.644
 6038SOL    HW119946  12.147  12.144  11.690
 6038SOL    HW219947  12.074  12.012  11.704
 6039SOL     OW19948   3.625   2.395   5.440
 6039SOL    HW119949   3.534   2.388   5.468
 6039SOL    HW219950   3.667   2.450   5.506
 6040SOL     OW19951   5.631   6.458  10.123
 6040SOL    HW119952   5.706   6.462  10.064
 6040SOL    HW219953   5.646   6.379  10.176
 6041SOL     OW19954   2.470   5.102   1.174
 6041SOL    HW119955   2.497   5.100   1.082
 6041SOL    HW219956   2.434   5.190   1.186
 6042SOL     OW19957   9.381  10.199   5.491
 6042SOL    HW119958   9.305  10.142   5.492
 6042SOL    HW219959   9.367  10.260   5.564
 6043SOL     OW19960   5.271  13.092   3.379
 6043SOL    HW119961   5.328  13.042   3.437
 6043SOL    HW219962   5.287  13.183   3.401
 6044SOL     OW19963  13.671   0.047   3.645
 6044SOL    HW119964  13.754  14.881   3.651
 6044SOL    HW219965  13.697   0.135   3.617
 6045SOL     OW19966  11.670  14.692   1.089
 6045SOL    HW119967  11.720  14.760   1.045
 6045SOL    HW219968  11.684  14.614   1.035
 6046SOL     OW19969   2.746   3.281   4.390
 6046SOL    HW119970   2.839   3.256   4.388
 6046SOL    HW219971   2.710   3.245   4.310
 6047SOL     OW19972  13.393   9.325  12.850
 6047SOL    HW119973  13.356   9.273  12.778
 6047SOL    HW219974  13.461   9.268  12.887
 6048SOL     OW19975   1.746   6.147  11.730
 6048SOL    HW119976   1.652   6.134  11.721
 6048SOL    HW219977   1.761   6.145  11.825
 6049SOL     OW19978   4.911   7.262   2.165
 6049SOL    HW119979   4.819   7.243   2.185
 6049SOL    HW219980   4.933   7.201   2.094
 6050SOL     OW19981  14.603   4.274   6.256
 6050SOL    HW119982  14.611   4.355   6.205
 6050SOL    HW219983  14.637   4.206   6.198
 6051SOL     OW19984   0.335   1.241   1.809
 6051SOL    HW119985   0.299   1.270   1.725
 6051SOL    HW219986   0.396   1.311   1.833
 6052SOL     OW19987   7.962   3.885  12.479
 6052SOL    HW119988   7.929   3.802  12.443
 6052SOL    HW219989   8.008   3.925  12.405
 6053SOL     OW19990   9.091   2.263  13.576
 6053SOL    HW119991   9.079   2.295  13.486
 6053SOL    HW219992   9.003   2.265  13.614
 6054SOL     OW19993  13.510  12.044   8.123
 6054SOL    HW119994  13.553  12.118   8.083
 6054SOL    HW219995  13.503  11.979   8.053
 6055SOL     OW19996   5.005   3.812  11.945
 6055SOL    HW119997   5.033   3.894  11.905
 6055SOL    HW219998   5.073   3.794  12.010
 6056SOL     OW19999  11.220   7.658   7.641
 6056SOL    HW120000  11.219   7.753   7.655
 6056SOL    HW220001  11.245   7.622   7.726
 6057SOL     OW20002   5.788   4.863  10.862
 6057SOL    HW120003   5.879   4.859  10.890
 6057SOL    HW220004   5.788   4.833  10.772
 6058SOL     OW20005  14.537   6.999  10.388
 6058SOL    HW120006  14.536   7.092  10.411
 6058SOL    HW220007  14.448   6.981  10.357
 6059SOL     OW20008  14.730   9.923   5.783
 6059SOL    HW120009  14.688   9.886   5.705
 6059SOL    HW220010  14.812   9.874   5.792
 6060SOL     OW20011  12.690  11.851  13.762
 6060SOL    HW120012  12.747  11.832  13.836
 6060SOL    HW220013  12.744  11.834  13.685
 6061SOL     OW20014   9.171   1.382   2.115
 6061SOL    HW120015   9.097   1.331   2.148
 6061SOL    HW220016   9.193   1.340   2.032
 6062SOL     OW20017   4.612   5.609   1.397
 6062SOL    HW120018   4.535   5.563   1.430
 6062SOL    HW220019   4.641   5.662   1.471
 6063SOL     OW20020   7.717   8.678  13.903
 6063SOL    HW120021   7.745   8.586  13.911
 6063SOL    HW220022   7.794   8.723  13.869
 6064SOL     OW20023   2.117   4.057   2.302
 6064SOL    HW120024   2.042   4.025   2.353
 6064SOL    HW220025   2.133   4.145   2.336
 6065SOL     OW20026  14.669   4.229   5.012
 6065SOL    HW120027  14.748   4.194   5.053
 6065SOL    HW220028  14.679   4.208   4.919
 6066SOL     OW20029  14.648  11.647   8.851
 6066SOL    HW120030  14.681  11.722   8.900
 6066SOL    HW220031  14.705  11.574   8.876
 6067SOL     OW20032  14.715   5.487   6.860
 6067SOL    HW120033  14.696   5.490   6.766
 6067SOL    HW220034  14.779   5.557   6.873
 6068SOL     OW20035   0.961   1.180  11.291
 6068SOL    HW120036   0.907   1.254  11.264
 6068SOL    HW220037   0.951   1.176  11.386
 6069SOL     OW20038   2.329   2.209  12.889
 6069SOL    HW120039   2.266   2.164  12.946
 6069SOL    HW220040   2.327   2.159  12.807
 6070SOL     OW20041   7.490  12.095   7.700
 6070SOL    HW120042   7.431  12.090   7.625
 6070SOL    HW220043   7.434  12.119   7.774
 6071SOL     OW20044   6.007   0.367   8.964
 6071SOL    HW120045   6.092   0.410   8.971
 6071SOL    HW220046   6.024   0.275   8.984
 6072SOL     OW20047   1.995  10.103   9.278
 6072SOL    HW120048   1.975  10.020   9.234
 6072SOL    HW220049   2.077  10.132   9.238
 6073SOL     OW20050  11.328   5.132   1.246
 6073SOL    HW120051  11.287   5.218   1.233
 6073SOL    HW220052  11.263   5.070   1.213
 6074SOL     OW20053   1.123   8.520   7.769
 6074SOL    HW120054   1.211   8.489   7.789
 6074SOL    HW220055   1.069   8.484   7.839
 6075SOL     OW20056   6.151  14.472   9.062
 6075SOL    HW120057   6.246  14.466   9.054
 6075SOL    HW220058   6.136  14.555   9.108
 6076SOL     OW20059  14.317  11.799   2.020
 6076SOL    HW120060  14.333  11.875   1.963
 6076SOL    HW220061  14.362  11.820   2.102
 6077SOL     OW20062   4.659   3.237   9.024
 6077SOL    HW120063   4.690   3.167   9.082
 6077SOL    HW220064   4.581   3.200   8.982
 6078SOL     OW20065   6.410  11.760   7.345
 6078SOL    HW120066   6.459  11.819   7.288
 6078SOL    HW220067   6.435  11.787   7.434
 6079SOL     OW20068  10.717   8.234   8.761
 6079SOL    HW120069  10.656   8.306   8.774
 6079SOL    HW220070  10.705   8.209   8.669
 6080SOL     OW20071   9.280   6.755   8.925
 6080SOL    HW120072   9.234   6.681   8.964
 6080SOL    HW220073   9.373   6.730   8.928
 6081SOL     OW20074  12.206  10.996  14.148
 6081SOL    HW120075  12.114  11.000  14.172
 6081SOL    HW220076  12.244  10.932  14.208
 6082SOL     OW20077  14.526   2.571   3.096
 6082SOL    HW120078  14.453   2.583   3.035
 6082SOL    HW220079  14.597   2.537   3.042
 6083SOL     OW20080  10.720   0.050  14.027
 6083SOL    HW120081  10.734   0.032  14.120
 6083SOL    HW220082  10.771  14.865  13.982
 6084SOL     OW20083   7.498   4.473   9.415
 6084SOL    HW120084   7.413   4.473   9.459
 6084SOL    HW220085   7.557   4.428   9.476
 6085SOL     OW20086   7.164   0.975  13.237
 6085SOL    HW120087   7.202   1.050  13.282
 6085SOL    HW220088   7.132   0.918  13.307
 6086SOL     OW20089  14.606   2.723   3.487
 6086SOL    HW120090  14.641   2.741   3.400
 6086SOL    HW220091  14.601   2.627   3.491
 6087SOL     OW20092   0.956  12.997   0.159
 6087SOL    HW120093   0.992  13.081   0.185
 6087SOL    HW220094   1.032  12.940   0.148
 6088SOL     OW20095   8.236   5.608   3.481
 6088SOL    HW120096   8.154   5.637   3.442
 6088SOL    HW220097   8.239   5.651   3.566
 6089SOL     OW20098   6.391  11.774  13.279
 6089SOL    HW120099   6.370  11.828  13.203
 6089SOL    HW220100   6.461  11.821  13.324
 6090SOL     OW20101   6.744   3.806  13.074
 6090SOL    HW120102   6.829   3.849  13.065
 6090SOL    HW220103   6.710   3.838  13.158
 6091SOL     OW20104   8.640   0.961  13.151
 6091SOL    HW120105   8.662   1.048  13.182
 6091SOL    HW220106   8.721   0.928  13.113
 6092SOL     OW20107   4.617   9.437  14.098
 6092SOL    HW120108   4.536   9.474  14.134
 6092SOL    HW220109   4.640   9.366  14.158
 6093SOL     OW20110   6.065   6.492   6.026
 6093SOL    HW120111   6.045   6.433   6.099
 6093SOL    HW220112   6.024   6.574   6.050
 6094SOL     OW20113   4.404  14.480   6.991
 6094SOL    HW120114   4.315  14.501   7.018
 6094SOL    HW220115   4.407  14.385   6.987
 6095SOL     OW20116  12.667   8.201  14.159
 6095SOL    HW120117  12.684   8.170  14.071
 6095SOL    HW220118  12.731   8.156  14.214
 6096SOL     OW20119  12.898  10.280   8.064
 6096SOL    HW120120  12.824  10.265   8.005
 6096SOL    HW220121  12.970  10.306   8.006
 6097SOL     OW20122   7.383   6.147  14.616
 6097SOL    HW120123   7.373   6.121  14.525
 6097SOL    HW220124   7.304   6.198  14.635
 6098SOL     OW20125  12.066  11.628   0.416
 6098SOL    HW120126  12.036  11.613   0.326
 6098SOL    HW220127  12.040  11.548   0.463
 6099SOL     OW20128   4.109   0.627   5.291
 6099SOL    HW120129   4.014   0.621   5.276
 6099SOL    HW220130   4.131   0.716   5.267
 6100SOL     OW20131  12.281  11.259   8.038
 6100SOL    HW120132  12.340  11.184   8.031
 6100SOL    HW220133  12.329  11.331   7.998
 6101SOL     OW20134  10.058   5.398   2.054
 6101SOL    HW120135  10.091   5.430   2.138
 6101SOL    HW220136   9.963   5.402   2.063
 6102SOL     OW20137  14.091   1.842   6.004
 6102SOL    HW120138  14.136   1.906   5.950
 6102SOL    HW220139  14.013   1.819   5.953
 6103SOL     OW20140   9.376  11.225   8.664
 6103SOL    HW120141   9.450  11.190   8.713
 6103SOL    HW220142   9.303  11.227   8.726
 6104SOL     OW20143   6.800  14.407   0.372
 6104SOL    HW120144   6.740  14.467   0.416
 6104SOL    HW220145   6.854  14.463   0.317
 6105SOL     OW20146   7.622   1.686   0.100
 6105SOL    HW120147   7.540   1.723   0.065
 6105SOL    HW220148   7.691   1.732   0.052
 6106SOL     OW20149   8.509   1.300   1.702
 6106SOL    HW120150   8.575   1.232   1.689
 6106SOL    HW220151   8.557   1.374   1.739
 6107SOL     OW20152   2.831   0.872  14.114
 6107SOL    HW120153   2.892   0.925  14.165
 6107SOL    HW220154   2.749   0.877  14.163
 6108SOL     OW20155   9.815   1.389   0.338
 6108SOL    HW120156   9.814   1.437   0.255
 6108SOL    HW220157   9.901   1.407   0.376
 6109SOL     OW20158  10.470  13.503   5.882
 6109SOL    HW120159  10.564  13.520   5.894
 6109SOL    HW220160  10.436  13.496   5.970
 6110SOL     OW20161   8.841   3.367   9.630
 6110SOL    HW120162   8.862   3.361   9.537
 6110SOL    HW220163   8.888   3.444   9.661
 6111SOL     OW20164   7.785   2.046   0.164
 6111SOL    HW120165   7.799   2.129   0.117
 6111SOL    HW220166   7.782   2.072   0.256
 6112SOL     OW20167  13.670  11.518  11.093
 6112SOL    HW120168  13.651  11.441  11.039
 6112SOL    HW220169  13.717  11.482  11.169
 6113SOL     OW20170   3.809   5.681  10.680
 6113SOL    HW120171   3.735   5.681  10.741
 6113SOL    HW220172   3.885   5.662  10.736
 6114SOL     OW20173  11.698   3.104  10.680
 6114SOL    HW120174  11.693   3.200  10.682
 6114SOL    HW220175  11.746   3.085  10.599
 6115SOL     OW20176   0.547  11.831  11.575
 6115SOL    HW120177   0.519  11.885  11.649
 6115SOL    HW220178   0.635  11.802  11.598
 6116SOL     OW20179   7.727   2.965   7.155
 6116SOL    HW120180   7.686   2.882   7.133
 6116SOL    HW220181   7.821   2.945   7.159
 6117SOL     OW20182  13.686   2.103   0.518
 6117SOL    HW120183  13.668   2.151   0.436
 6117SOL    HW220184  13.702   2.172   0.582
 6118SOL     OW20185   2.134  12.869  10.796
 6118SOL    HW120186   2.154  12.938  10.860
 6118SOL    HW220187   2.198  12.881  10.727
 6119SOL     OW20188   8.269   2.653  13.326
 6119SOL    HW120189   8.302   2.742  13.315
 6119SOL    HW220190   8.198   2.645  13.262
 6120SOL     OW20191   8.596   2.716   5.900
 6120SOL    HW120192   8.662   2.756   5.843
 6120SOL    HW220193   8.527   2.783   5.906
 6121SOL     OW20194   8.563   0.485  11.764
 6121SOL    HW120195   8.659   0.489  11.760
 6121SOL    HW220196   8.541   0.503  11.855
 6122SOL     OW20197   3.073  11.441  13.751
 6122SOL    HW120198   3.143  11.471  13.808
 6122SOL    HW220199   3.097  11.471  13.664
 6123SOL     OW20200   8.085   4.694   9.292
 6123SOL    HW120201   8.104   4.691   9.198
 6123SOL    HW220202   8.091   4.787   9.314
 6124SOL     OW20203  11.784   4.718   5.418
 6124SOL    HW120204  11.849   4.676   5.475
 6124SOL    HW220205  11.773   4.656   5.345
 6125SOL     OW20206   4.384   4.642  12.818
 6125SOL    HW120207   4.407   4.565  12.870
 6125SOL    HW220208   4.396   4.716  12.878
 6126SOL     OW20209   5.928  10.362  10.469
 6126SOL    HW120210   5.844  10.403  10.488
 6126SOL    HW220211   5.939  10.372  10.374
 6127SOL     OW20212   6.896   4.457   5.748
 6127SOL    HW120213   6.938   4.513   5.813
 6127SOL    HW220214   6.966   4.436   5.686
 6128SOL     OW20215   9.435  10.075   7.306
 6128SOL    HW120216   9.471  10.160   7.278
 6128SOL    HW220217   9.408  10.033   7.224
 6129SOL     OW20218   8.641   4.654   9.632
 6129SOL    HW120219   8.705   4.692   9.572
 6129SOL    HW220220   8.556   4.683   9.599
 6130SOL     OW20221  13.125  14.001  14.430
 6130SOL    HW120222  13.165  13.915  14.419
 6130SOL    HW220223  13.138  14.046  14.346
 6131SOL     OW20224   8.611   2.252   3.124
 6131SOL    HW120225   8.658   2.327   3.162
 6131SOL    HW220226   8.650   2.176   3.167
 6132SOL     OW20227  14.482  10.770   2.141
 6132SOL    HW120228  14.397  10.768   2.097
 6132SOL    HW220229  14.542  10.726   2.081
 6133SOL     OW20230   3.149  11.342   0.495
 6133SOL    HW120231   3.162  11.279   0.424
 6133SOL    HW220232   3.191  11.422   0.465
 6134SOL     OW20233   8.550   2.631   4.956
 6134SOL    HW120234   8.542   2.651   4.863
 6134SOL    HW220235   8.608   2.555   4.959
 6135SOL     OW20236   1.796   5.865  12.575
 6135SOL    HW120237   1.843   5.868  12.659
 6135SOL    HW220238   1.722   5.806  12.591
 6136SOL     OW20239   2.211   2.532   7.217
 6136SOL    HW120240   2.182   2.618   7.186
 6136SOL    HW220241   2.197   2.534   7.311
 6137SOL     OW20242   8.598   5.563   1.224
 6137SOL    HW120243   8.514   5.582   1.265
 6137SOL    HW220244   8.636   5.493   1.277
 6138SOL     OW20245  13.348   5.830  13.284
 6138SOL    HW120246  13.314   5.788  13.206
 6138SOL    HW220247  13.443   5.833  13.271
 6139SOL     OW20248   6.919  10.971   1.565
 6139SOL    HW120249   6.877  11.058   1.564
 6139SOL    HW220250   7.012  10.990   1.556
 6140SOL     OW20251   5.715   3.526   4.409
 6140SOL    HW120252   5.671   3.611   4.402
 6140SOL    HW220253   5.673   3.482   4.483
 6141SOL     OW20254  11.761   1.655  13.864
 6141SOL    HW120255  11.830   1.668  13.928
 6141SOL    HW220256  11.792   1.581  13.811
 6142SOL     OW20257   4.657  13.562   0.855
 6142SOL    HW120258   4.612  13.617   0.919
 6142SOL    HW220259   4.740  13.538   0.898
 6143SOL     OW20260   4.655   8.136  10.230
 6143SOL    HW120261   4.568   8.145  10.269
 6143SOL    HW220262   4.712   8.108  10.302
 6144SOL     OW20263   8.440   6.917   6.852
 6144SOL    HW120264   8.466   7.005   6.824
 6144SOL    HW220265   8.369   6.893   6.792
 6145SOL     OW20266   8.329   7.405  10.312
 6145SOL    HW120267   8.358   7.429  10.225
 6145SOL    HW220268   8.355   7.479  10.368
 6146SOL     OW20269   4.235   7.619   5.558
 6146SOL    HW120270   4.257   7.694   5.614
 6146SOL    HW220271   4.312   7.608   5.502
 6147SOL     OW20272   9.972   3.509  11.883
 6147SOL    HW120273   9.953   3.579  11.946
 6147SOL    HW220274   9.906   3.520  11.815
 6148SOL     OW20275   2.870   6.051  13.229
 6148SOL    HW120276   2.895   6.095  13.147
 6148SOL    HW220277   2.796   6.103  13.261
 6149SOL     OW20278  14.471   1.186   5.954
 6149SOL    HW120279  14.554   1.145   5.978
 6149SOL    HW220280  14.480   1.277   5.983
 6150SOL     OW20281   7.371   2.996   0.102
 6150SOL    HW120282   7.316   2.978   0.177
 6150SOL    HW220283   7.351   3.086   0.078
 6151SOL     OW20284  11.723   0.406   8.922
 6151SOL    HW120285  11.662   0.473   8.890
 6151SOL    HW220286  11.809   0.445   8.911
 6152SOL     OW20287   9.984   9.808   4.319
 6152SOL    HW120288   9.905   9.762   4.348
 6152SOL    HW220289   9.966   9.900   4.336
 6153SOL     OW20290  11.396   0.567   5.077
 6153SOL    HW120291  11.407   0.662   5.073
 6153SOL    HW220292  11.434   0.536   4.995
 6154SOL     OW20293   8.821   1.684   8.712
 6154SOL    HW120294   8.771   1.760   8.681
 6154SOL    HW220295   8.773   1.609   8.677
 6155SOL     OW20296   7.572  12.021   8.580
 6155SOL    HW120297   7.553  12.108   8.545
 6155SOL    HW220298   7.509  12.010   8.652
 6156SOL     OW20299   1.296  11.100   7.440
 6156SOL    HW120300   1.216  11.151   7.453
 6156SOL    HW220301   1.331  11.086   7.528
 6157SOL     OW20302  10.086   1.357  11.770
 6157SOL    HW120303  10.100   1.383  11.861
 6157SOL    HW220304  10.154   1.291  11.754
 6158SOL     OW20305   6.603   3.531   3.396
 6158SOL    HW120306   6.676   3.507   3.453
 6158SOL    HW220307   6.625   3.493   3.311
 6159SOL     OW20308   2.743   4.217   3.311
 6159SOL    HW120309   2.838   4.207   3.324
 6159SOL    HW220310   2.705   4.192   3.395
 6160SOL     OW20311   3.252   5.215  14.470
 6160SOL    HW120312   3.188   5.144  14.470
 6160SOL    HW220313   3.337   5.170  14.473
 6161SOL     OW20314  12.221   2.253   8.531
 6161SOL    HW120315  12.199   2.330   8.584
 6161SOL    HW220316  12.281   2.202   8.585
 6162SOL     OW20317   5.030   3.794   1.386
 6162SOL    HW120318   5.108   3.781   1.440
 6162SOL    HW220319   4.957   3.773   1.445
 6163SOL     OW20320   2.147  13.165   6.024
 6163SOL    HW120321   2.141  13.144   6.117
 6163SOL    HW220322   2.080  13.232   6.010
 6164SOL     OW20323   8.051   9.361   1.840
 6164SOL    HW120324   7.995   9.403   1.905
 6164SOL    HW220325   8.035   9.268   1.852
 6165SOL     OW20326   7.512   9.539   3.020
 6165SOL    HW120327   7.510   9.476   2.948
 6165SOL    HW220328   7.598   9.529   3.059
 6166SOL     OW20329  12.462  13.242  13.181
 6166SOL    HW120330  12.382  13.205  13.145
 6166SOL    HW220331  12.532  13.196  13.135
 6167SOL     OW20332  13.262   8.249   8.299
 6167SOL    HW120333  13.233   8.162   8.275
 6167SOL    HW220334  13.294   8.240   8.389
 6168SOL     OW20335  12.262   7.996   5.732
 6168SOL    HW120336  12.191   8.003   5.668
 6168SOL    HW220337  12.219   8.010   5.817
 6169SOL     OW20338   6.984   4.803   7.031
 6169SOL    HW120339   7.071   4.841   7.043
 6169SOL    HW220340   6.927   4.857   7.085
 6170SOL     OW20341   3.649   3.203   8.215
 6170SOL    HW120342   3.610   3.290   8.201
 6170SOL    HW220343   3.742   3.216   8.199
 6171SOL     OW20344   3.411   9.214   7.493
 6171SOL    HW120345   3.412   9.280   7.562
 6171SOL    HW220346   3.433   9.262   7.413
 6172SOL     OW20347   6.924   6.304   7.572
 6172SOL    HW120348   6.832   6.317   7.597
 6172SOL    HW220349   6.931   6.346   7.486
 6173SOL     OW20350  14.456   4.212   1.911
 6173SOL    HW120351  14.473   4.294   1.957
 6173SOL    HW220352  14.361   4.200   1.919
 6174SOL     OW20353   6.362   9.210   0.929
 6174SOL    HW120354   6.417   9.133   0.915
 6174SOL    HW220355   6.273   9.176   0.934
 6175SOL     OW20356  12.823   8.404  11.843
 6175SOL    HW120357  12.787   8.402  11.754
 6175SOL    HW220358  12.757   8.451  11.895
 6176SOL     OW20359   0.484   3.202   2.025
 6176SOL    HW120360   0.518   3.211   2.115
 6176SOL    HW220361   0.458   3.291   2.000
 6177SOL     OW20362  13.330   5.339   6.092
 6177SOL    HW120363  13.295   5.270   6.148
 6177SOL    HW220364  13.254   5.372   6.044
 6178SOL     OW20365   9.087   1.174   4.336
 6178SOL    HW120366   9.060   1.110   4.270
 6178SOL    HW220367   9.152   1.229   4.292
 6179SOL     OW20368   4.344   1.588  11.472
 6179SOL    HW120369   4.311   1.511  11.426
 6179SOL    HW220370   4.352   1.559  11.563
 6180SOL     OW20371  14.194  13.306  14.541
 6180SOL    HW120372  14.146  13.249  14.481
 6180SOL    HW220373  14.191  13.261  14.625
 6181SOL     OW20374   8.305  12.655  14.073
 6181SOL    HW120375   8.287  12.563  14.054
 6181SOL    HW220376   8.312  12.697  13.987
 6182SOL     OW20377   5.026  13.619  10.303
 6182SOL    HW120378   5.011  13.632  10.396
 6182SOL    HW220379   5.122  13.616  10.294
 6183SOL     OW20380  14.054   5.030   2.162
 6183SOL    HW120381  14.110   5.088   2.213
 6183SOL    HW220382  13.965   5.063   2.176
 6184SOL     OW20383  14.015   9.491   4.380
 6184SOL    HW120384  14.088   9.438   4.350
 6184SOL    HW220385  14.029   9.576   4.338
 6185SOL     OW20386  10.059  14.161  13.919
 6185SOL    HW120387  10.137  14.214  13.937
 6185SOL    HW220388  10.089  14.094  13.857
 6186SOL     OW20389  13.709   7.524   2.673
 6186SOL    HW120390  13.693   7.607   2.718
 6186SOL    HW220391  13.639   7.519   2.607
 6187SOL     OW20392   8.185  13.733  13.509
 6187SOL    HW120393   8.146  13.760  13.592
 6187SOL    HW220394   8.122  13.670  13.472
 6188SOL     OW20395   4.178   0.600   9.030
 6188SOL    HW120396   4.109   0.662   9.055
 6188SOL    HW220397   4.173   0.530   9.094
 6189SOL     OW20398   6.182  13.472   7.875
 6189SOL    HW120399   6.215  13.381   7.873
 6189SOL    HW220400   6.239  13.515   7.939
 6190SOL     OW20401  12.661  10.784   1.012
 6190SOL    HW120402  12.721  10.840   0.962
 6190SOL    HW220403  12.622  10.843   1.076
 6191SOL     OW20404   6.557   4.704   3.793
 6191SOL    HW120405   6.545   4.797   3.814
 6191SOL    HW220406   6.468   4.671   3.779
 6192SOL     OW20407   6.315   8.437  10.617
 6192SOL    HW120408   6.223   8.427  10.591
 6192SOL    HW220409   6.313   8.503  10.687
 6193SOL     OW20410  10.923   9.280   0.953
 6193SOL    HW120411  10.953   9.345   1.016
 6193SOL    HW220412  10.990   9.279   0.886
 6194SOL     OW20413   1.040   8.567  12.437
 6194SOL    HW120414   0.958   8.550  12.391
 6194SOL    HW220415   1.023   8.644  12.491
 6195SOL     OW20416   9.495   0.112   5.061
 6195SOL    HW120417   9.582   0.152   5.057
 6195SOL    HW220418   9.438   0.175   5.016
 6196SOL     OW20419   6.814  10.917  13.069
 6196SOL    HW120420   6.776  11.005  13.068
 6196SOL    HW220421   6.846  10.904  12.980
 6197SOL     OW20422   6.531  10.895  13.568
 6197SOL    HW120423   6.448  10.848  13.560
 6197SOL    HW220424   6.594  10.842  13.520
 6198SOL     OW20425  13.502   7.009   6.398
 6198SOL    HW120426  13.492   6.929   6.450
 6198SOL    HW220427  13.450   6.992   6.319
 6199SOL     OW20428   2.928   2.278  10.109
 6199SOL    HW120429   2.961   2.209  10.167
 6199SOL    HW220430   2.905   2.233  10.028
 6200SOL     OW20431   6.713  10.260   2.513
 6200SOL    HW120432   6.797  10.305   2.509
 6200SOL    HW220433   6.734  10.173   2.549
 6201SOL     OW20434   4.252   4.277   2.566
 6201SOL    HW120435   4.311   4.206   2.539
 6201SOL    HW220436   4.263   4.281   2.662
 6202SOL     OW20437  14.373  12.526  12.853
 6202SOL    HW120438  14.434  12.456  12.873
 6202SOL    HW220439  14.377  12.535  12.758
 6203SOL     OW20440   2.956   1.542  12.545
 6203SOL    HW120441   3.003   1.568  12.624
 6203SOL    HW220442   2.902   1.618  12.522
 6204SOL     OW20443  10.325  13.899  10.383
 6204SOL    HW120444  10.358  13.810  10.390
 6204SOL    HW220445  10.284  13.917  10.468
 6205SOL     OW20446   7.091  13.478   7.201
 6205SOL    HW120447   7.018  13.528   7.238
 6205SOL    HW220448   7.057  13.445   7.118
 6206SOL     OW20449  13.696  11.229  14.575
 6206SOL    HW120450  13.774  11.249  14.523
 6206SOL    HW220451  13.623  11.251  14.516
 6207SOL     OW20452   3.008   8.765   1.291
 6207SOL    HW120453   2.944   8.821   1.248
 6207SOL    HW220454   2.961   8.683   1.309
 6208SOL     OW20455  10.677   0.151   5.434
 6208SOL    HW120456  10.657   0.214   5.503
 6208SOL    HW220457  10.737   0.197   5.376
 6209SOL     OW20458   5.886  14.687  14.834
 6209SOL    HW120459   5.934  14.756  14.879
 6209SOL    HW220460   5.823  14.655   0.016
 6210SOL     OW20461  10.195   6.236   3.874
 6210SOL    HW120462  10.247   6.316   3.875
 6210SOL    HW220463  10.242   6.176   3.931
 6211SOL     OW20464  10.260  14.837   4.616
 6211SOL    HW120465  10.179  14.877   4.648
 6211SOL    HW220466  10.280   0.001   4.535
 6212SOL     OW20467  12.391   0.696   3.704
 6212SOL    HW120468  12.404   0.616   3.754
 6212SOL    HW220469  12.378   0.666   3.614
 6213SOL     OW20470   2.725   8.151   9.130
 6213SOL    HW120471   2.676   8.072   9.107
 6213SOL    HW220472   2.792   8.158   9.062
 6214SOL     OW20473   4.154  12.462   5.916
 6214SOL    HW120474   4.237  12.441   5.874
 6214SOL    HW220475   4.112  12.525   5.856
 6215SOL     OW20476   1.029  14.125   0.213
 6215SOL    HW120477   1.055  14.212   0.244
 6215SOL    HW220478   0.970  14.141   0.140
 6216SOL     OW20479   9.605  13.472   8.887
 6216SOL    HW120480   9.690  13.463   8.930
 6216SOL    HW220481   9.544  13.426   8.944
 6217SOL     OW20482   4.071  12.153   8.169
 6217SOL    HW120483   4.041  12.198   8.248
 6217SOL    HW220484   4.077  12.061   8.194
 6218SOL     OW20485   5.656  14.169   8.406
 6218SOL    HW120486   5.681  14.261   8.410
 6218SOL    HW220487   5.685  14.133   8.489
 6219SOL     OW20488   2.875   9.675  10.053
 6219SOL    HW120489   2.957   9.692  10.100
 6219SOL    HW220490   2.821   9.627  10.116
 6220SOL     OW20491  14.601   2.607  11.678
 6220SOL    HW120492  14.688   2.613  11.717
 6220SOL    HW220493  14.615   2.572  11.591
 6221SOL     OW20494   5.152  12.900   4.571
 6221SOL    HW120495   5.231  12.849   4.556
 6221SOL    HW220496   5.103  12.895   4.489
 6222SOL     OW20497   3.062   9.872   4.596
 6222SOL    HW120498   3.136   9.877   4.535
 6222SOL    HW220499   3.073   9.949   4.652
 6223SOL     OW20500   5.282   9.856   8.658
 6223SOL    HW120501   5.291   9.914   8.582
 6223SOL    HW220502   5.319   9.907   8.731
 6224SOL     OW20503   6.974   4.135   2.713
 6224SOL    HW120504   6.905   4.072   2.735
 6224SOL    HW220505   7.014   4.157   2.797
 6225SOL     OW20506   5.018   6.614   4.478
 6225SOL    HW120507   5.065   6.696   4.492
 6225SOL    HW220508   5.086   6.551   4.453
 6226SOL     OW20509  13.022  13.959   4.901
 6226SOL    HW120510  13.111  13.957   4.865
 6226SOL    HW220511  13.000  13.867   4.916
 6227SOL     OW20512  12.819  11.848  12.970
 6227SOL    HW120513  12.913  11.833  12.977
 6227SOL    HW220514  12.811  11.921  12.909
 6228SOL     OW20515   2.492   4.545   4.383
 6228SOL    HW120516   2.540   4.611   4.433
 6228SOL    HW220517   2.399   4.564   4.399
 6229SOL     OW20518   2.297  13.948   1.802
 6229SOL    HW120519   2.335  13.904   1.878
 6229SOL    HW220520   2.211  13.977   1.833
 6230SOL     OW20521   3.924   8.085   9.939
 6230SOL    HW120522   3.973   8.155   9.981
 6230SOL    HW220523   3.953   8.005   9.984
 6231SOL     OW20524  11.520   7.892   4.831
 6231SOL    HW120525  11.462   7.921   4.760
 6231SOL    HW220526  11.598   7.947   4.822
 6232SOL     OW20527   7.690   9.023   2.229
 6232SOL    HW120528   7.728   9.077   2.160
 6232SOL    HW220529   7.596   9.044   2.227
 6233SOL     OW20530   9.876   8.156  14.534
 6233SOL    HW120531   9.950   8.108  14.495
 6233SOL    HW220532   9.859   8.227  14.472
 6234SOL     OW20533  13.215  13.342   5.983
 6234SOL    HW120534  13.153  13.271   5.969
 6234SOL    HW220535  13.164  13.410   6.029
 6235SOL     OW20536   1.700  12.529   8.326
 6235SOL    HW120537   1.758  12.499   8.396
 6235SOL    HW220538   1.623  12.473   8.334
 6236SOL     OW20539   0.685  10.476   1.152
 6236SOL    HW120540   0.709  10.550   1.096
 6236SOL    HW220541   0.766  10.424   1.158
 6237SOL     OW20542  13.822   7.543   8.877
 6237SOL    HW120543  13.795   7.634   8.865
 6237SOL    HW220544  13.826   7.531   8.972
 6238SOL     OW20545   8.118  11.793   3.343
 6238SOL    HW120546   8.118  11.721   3.406
 6238SOL    HW220547   8.046  11.849   3.370
 6239SOL     OW20548  12.340   3.219   3.350
 6239SOL    HW120549  12.325   3.125   3.346
 6239SOL    HW220550  12.388   3.232   3.432
 6240SOL     OW20551   4.716  14.450   2.595
 6240SOL    HW120552   4.801  14.408   2.589
 6240SOL    HW220553   4.713  14.510   2.520
 6241SOL     OW20554  12.294   7.511  14.561
 6241SOL    HW120555  12.207   7.520  14.600
 6241SOL    HW220556  12.352   7.561  14.618
 6242SOL     OW20557   1.534   4.890   0.186
 6242SOL    HW120558   1.494   4.948   0.121
 6242SOL    HW220559   1.616   4.933   0.210
 6243SOL     OW20560   8.401   3.621   1.109
 6243SOL    HW120561   8.446   3.547   1.068
 6243SOL    HW220562   8.383   3.680   1.036
 6244SOL     OW20563   9.746   4.223   2.047
 6244SOL    HW120564   9.751   4.315   2.020
 6244SOL    HW220565   9.740   4.174   1.966
 6245SOL     OW20566   3.545   8.905   6.326
 6245SOL    HW120567   3.607   8.938   6.391
 6245SOL    HW220568   3.561   8.957   6.248
 6246SOL     OW20569   3.168   4.794   5.545
 6246SOL    HW120570   3.139   4.837   5.464
 6246SOL    HW220571   3.099   4.814   5.609
 6247SOL     OW20572   2.943   4.429   5.964
 6247SOL    HW120573   2.957   4.358   5.902
 6247SOL    HW220574   3.032   4.462   5.982
 6248SOL     OW20575   7.636   9.059  13.466
 6248SOL    HW120576   7.623   8.999  13.540
 6248SOL    HW220577   7.730   9.077  13.466
 6249SOL     OW20578  13.239   8.785   5.471
 6249SOL    HW120579  13.155   8.738   5.479
 6249SOL    HW220580  13.234   8.853   5.537
 6250SOL     OW20581   1.576  10.670   1.332
 6250SOL    HW120582   1.540  10.660   1.421
 6250SOL    HW220583   1.545  10.755   1.303
 6251SOL     OW20584  13.550  12.833   2.018
 6251SOL    HW120585  13.490  12.821   1.944
 6251SOL    HW220586  13.524  12.766   2.081
 6252SOL     OW20587  10.649  10.569   2.605
 6252SOL    HW120588  10.572  10.625   2.618
 6252SOL    HW220589  10.714  10.626   2.566
 6253SOL     OW20590   9.072   5.659  14.231
 6253SOL    HW120591   9.001   5.606  14.266
 6253SOL    HW220592   9.044   5.750  14.243
 6254SOL     OW20593   5.275  13.500   0.218
 6254SOL    HW120594   5.297  13.582   0.174
 6254SOL    HW220595   5.190  13.517   0.259
 6255SOL     OW20596   2.456   4.870  13.104
 6255SOL    HW120597   2.490   4.809  13.038
 6255SOL    HW220598   2.395   4.818  13.155
 6256SOL     OW20599   0.614   1.216   7.367
 6256SOL    HW120600   0.644   1.133   7.328
 6256SOL    HW220601   0.694   1.259   7.396
 6257SOL     OW20602  11.977   9.302   9.580
 6257SOL    HW120603  11.978   9.363   9.506
 6257SOL    HW220604  12.070   9.284   9.597
 6258SOL     OW20605   6.505   9.517   5.055
 6258SOL    HW120606   6.558   9.596   5.069
 6258SOL    HW220607   6.514   9.499   4.961
 6259SOL     OW20608   7.106   8.576   0.507
 6259SOL    HW120609   7.043   8.541   0.445
 6259SOL    HW220610   7.087   8.670   0.510
 6260SOL     OW20611  11.152   8.173   2.793
 6260SOL    HW120612  11.155   8.228   2.714
 6260SOL    HW220613  11.161   8.235   2.865
 6261SOL     OW20614   0.610   1.384  14.191
 6261SOL    HW120615   0.555   1.308  14.173
 6261SOL    HW220616   0.628   1.421  14.105
 6262SOL     OW20617   6.326   3.482   4.179
 6262SOL    HW120618   6.273   3.561   4.170
 6262SOL    HW220619   6.414   3.514   4.195
 6263SOL     OW20620   5.441   1.851  11.217
 6263SOL    HW120621   5.476   1.937  11.195
 6263SOL    HW220622   5.357   1.869  11.259
 6264SOL     OW20623   3.348   0.131   6.831
 6264SOL    HW120624   3.376   0.124   6.922
 6264SOL    HW220625   3.261   0.171   6.836
 6265SOL     OW20626   0.930   6.567  11.283
 6265SOL    HW120627   0.964   6.479  11.271
 6265SOL    HW220628   0.876   6.562  11.362
 6266SOL     OW20629   4.689  13.575   7.734
 6266SOL    HW120630   4.759  13.515   7.758
 6266SOL    HW220631   4.634  13.525   7.674
 6267SOL     OW20632   1.892   4.074   3.636
 6267SOL    HW120633   1.883   4.169   3.634
 6267SOL    HW220634   1.817   4.044   3.687
 6268SOL     OW20635   7.637   1.558   7.755
 6268SOL    HW120636   7.569   1.597   7.700
 6268SOL    HW220637   7.703   1.626   7.764
 6269SOL     OW20638  14.535   2.306   6.457
 6269SOL    HW120639  14.627   2.300   6.434
 6269SOL    HW220640  14.502   2.217   6.447
 6270SOL     OW20641   3.033   3.464   1.173
 6270SOL    HW120642   3.065   3.413   1.098
 6270SOL    HW220643   3.098   3.534   1.183
 6271SOL     OW20644  12.151   9.955  12.198
 6271SOL    HW120645  12.057   9.938  12.189
 6271SOL    HW220646  12.157  10.050  12.208
 6272SOL     OW20647   1.210   5.315  14.477
 6272SOL    HW120648   1.115   5.332  14.474
 6272SOL    HW220649   1.248   5.402  14.492
 6273SOL     OW20650   1.920   3.873   7.942
 6273SOL    HW120651   1.989   3.818   7.976
 6273SOL    HW220652   1.922   3.952   7.996
 6274SOL     OW20653  13.654   8.144  14.796
 6274SOL    HW120654  13.654   8.058  14.836
 6274SOL    HW220655  13.682   8.129  14.706
 6275SOL     OW20656   5.746  12.964   3.403
 6275SOL    HW120657   5.669  12.983   3.457
 6275SOL    HW220658   5.763  12.871   3.417
 6276SOL     OW20659   8.326  11.816  10.442
 6276SOL    HW120660   8.310  11.724  10.419
 6276SOL    HW220661   8.248  11.862  10.414
 6277SOL     OW20662  10.758  14.736   9.010
 6277SOL    HW120663  10.712  14.742   9.094
 6277SOL    HW220664  10.744  14.822   8.969
 6278SOL     OW20665   3.150   2.045   7.737
 6278SOL    HW120666   3.167   2.005   7.651
 6278SOL    HW220667   3.110   2.129   7.717
 6279SOL     OW20668   2.777  11.700   9.761
 6279SOL    HW120669   2.730  11.776   9.725
 6279SOL    HW220670   2.869  11.725   9.757
 6280SOL     OW20671  12.664   2.473   4.193
 6280SOL    HW120672  12.726   2.403   4.212
 6280SOL    HW220673  12.691   2.545   4.249
 6281SOL     OW20674   4.803  13.772  12.513
 6281SOL    HW120675   4.877  13.757  12.454
 6281SOL    HW220676   4.843  13.801  12.594
 6282SOL     OW20677   3.570  14.272   6.111
 6282SOL    HW120678   3.500  14.289   6.048
 6282SOL    HW220679   3.611  14.191   6.081
 6283SOL     OW20680   3.267  10.586   8.034
 6283SOL    HW120681   3.316  10.659   7.995
 6283SOL    HW220682   3.326  10.511   8.026
 6284SOL     OW20683   8.065   6.077   9.411
 6284SOL    HW120684   8.030   6.078   9.500
 6284SOL    HW220685   7.994   6.041   9.358
 6285SOL     OW20686  10.021   0.999   8.406
 6285SOL    HW120687   9.983   0.921   8.366
 6285SOL    HW220688   9.998   1.070   8.345
 6286SOL     OW20689  13.170  13.710  11.689
 6286SOL    HW120690  13.226  13.722  11.766
 6286SOL    HW220691  13.205  13.771  11.625
 6287SOL     OW20692   6.772   6.770   9.786
 6287SOL    HW120693   6.786   6.829   9.860
 6287SOL    HW220694   6.857   6.765   9.743
 6288SOL     OW20695   0.020   9.098   2.948
 6288SOL    HW120696  14.863   9.062   2.868
 6288SOL    HW220697  14.855   9.180   2.962
 6289SOL     OW20698   0.371   5.325   5.905
 6289SOL    HW120699   0.350   5.232   5.902
 6289SOL    HW220700   0.406   5.339   5.993
 6290SOL     OW20701   5.375  13.417  14.741
 6290SOL    HW120702   5.366  13.418  14.836
 6290SOL    HW220703   5.468  13.401  14.725
 6291SOL     OW20704   1.227   1.093   3.002
 6291SOL    HW120705   1.176   1.172   2.990
 6291SOL    HW220706   1.303   1.121   3.053
 6292SOL     OW20707   9.886   4.896  14.552
 6292SOL    HW120708   9.852   4.845  14.625
 6292SOL    HW220709   9.981   4.900  14.567
 6293SOL     OW20710   2.348   6.986  12.783
 6293SOL    HW120711   2.300   6.934  12.847
 6293SOL    HW220712   2.346   7.075  12.817
 6294SOL     OW20713   6.860  11.682   8.707
 6294SOL    HW120714   6.776  11.638   8.718
 6294SOL    HW220715   6.895  11.645   8.625
 6295SOL     OW20716   8.843   1.900   1.814
 6295SOL    HW120717   8.869   1.811   1.839
 6295SOL    HW220718   8.922   1.952   1.825
 6296SOL     OW20719   8.510   1.012   1.867
 6296SOL    HW120720   8.463   0.970   1.939
 6296SOL    HW220721   8.457   1.087   1.843
 6297SOL     OW20722   5.274   3.150  10.450
 6297SOL    HW120723   5.222   3.076  10.481
 6297SOL    HW220724   5.307   3.122  10.365
 6298SOL     OW20725  13.902   2.625  12.592
 6298SOL    HW120726  13.980   2.586  12.631
 6298SOL    HW220727  13.836   2.623  12.662
 6299SOL     OW20728   8.127   4.037   7.530
 6299SOL    HW120729   8.219   4.015   7.543
 6299SOL    HW220730   8.107   4.098   7.601
 6300SOL     OW20731   8.777   8.836   1.663
 6300SOL    HW120732   8.706   8.772   1.663
 6300SOL    HW220733   8.776   8.873   1.751
 6301SOL     OW20734  13.229   5.702  13.934
 6301SOL    HW120735  13.204   5.660  13.852
 6301SOL    HW220736  13.322   5.724  13.922
 6302SOL     OW20737   3.653   8.940   6.057
 6302SOL    HW120738   3.604   8.974   5.982
 6302SOL    HW220739   3.686   9.018   6.101
 6303SOL     OW20740  10.703   1.069   2.208
 6303SOL    HW120741  10.797   1.087   2.202
 6303SOL    HW220742  10.664   1.123   2.140
 6304SOL     OW20743   8.671   2.006  13.986
 6304SOL    HW120744   8.749   1.973  14.030
 6304SOL    HW220745   8.630   1.928  13.948
 6305SOL     OW20746   0.238  13.251   3.342
 6305SOL    HW120747   0.307  13.260   3.407
 6305SOL    HW220748   0.169  13.311   3.370
 6306SOL     OW20749   4.552  11.489   8.288
 6306SOL    HW120750   4.549  11.583   8.274
 6306SOL    HW220751   4.548  11.479   8.383
 6307SOL     OW20752  13.390  13.600  13.617
 6307SOL    HW120753  13.420  13.690  13.622
 6307SOL    HW220754  13.296  13.606  13.600
 6308SOL     OW20755  10.047   9.487   6.124
 6308SOL    HW120756  10.008   9.483   6.037
 6308SOL    HW220757  10.053   9.581   6.143
 6309SOL     OW20758   2.862   2.269   7.627
 6309SOL    HW120759   2.805   2.324   7.681
 6309SOL    HW220760   2.950   2.302   7.644
 6310SOL     OW20761  10.298   9.938   3.011
 6310SOL    HW120762  10.247  10.006   2.966
 6310SOL    HW220763  10.385   9.942   2.970
 6311SOL     OW20764   3.618   9.674  12.122
 6311SOL    HW120765   3.686   9.651  12.185
 6311SOL    HW220766   3.563   9.738  12.167
 6312SOL     OW20767  11.071   0.276  13.457
 6312SOL    HW120768  11.011   0.210  13.493
 6312SOL    HW220769  11.056   0.354  13.511
 6313SOL     OW20770   0.814   6.335   6.381
 6313SOL    HW120771   0.765   6.387   6.445
 6313SOL    HW220772   0.760   6.257   6.367
 6314SOL     OW20773   7.054   6.151   4.997
 6314SOL    HW120774   7.059   6.098   4.918
 6314SOL    HW220775   6.987   6.109   5.050
 6315SOL     OW20776   0.127   5.516   1.077
 6315SOL    HW120777   0.056   5.458   1.051
 6315SOL    HW220778   0.103   5.546   1.164
 6316SOL     OW20779  14.790   7.121   8.374
 6316SOL    HW120780  14.853   7.073   8.428
 6316SOL    HW220781  14.746   7.054   8.323
 6317SOL     OW20782  11.009   7.273  10.537
 6317SOL    HW120783  11.069   7.315  10.599
 6317SOL    HW220784  11.064   7.210  10.490
 6318SOL     OW20785   3.479   8.340   2.023
 6318SOL    HW120786   3.546   8.359   2.089
 6318SOL    HW220787   3.454   8.426   1.989
 6319SOL     OW20788  14.208  10.942  11.953
 6319SOL    HW120789  14.297  10.962  11.983
 6319SOL    HW220790  14.159  10.924  12.033
 6320SOL     OW20791  14.451   0.900   2.205
 6320SOL    HW120792  14.372   0.893   2.152
 6320SOL    HW220793  14.491   0.983   2.178
 6321SOL     OW20794   3.384   4.255   5.402
 6321SOL    HW120795   3.397   4.310   5.324
 6321SOL    HW220796   3.351   4.172   5.368
 6322SOL     OW20797   9.193   5.747  10.941
 6322SOL    HW120798   9.227   5.658  10.941
 6322SOL    HW220799   9.263   5.799  10.980
 6323SOL     OW20800   1.369   1.757   8.779
 6323SOL    HW120801   1.420   1.791   8.852
 6323SOL    HW220802   1.406   1.671   8.761
 6324SOL     OW20803   8.695   0.872   1.400
 6324SOL    HW120804   8.704   0.777   1.395
 6324SOL    HW220805   8.639   0.888   1.475
 6325SOL     OW20806   1.690   4.900   0.777
 6325SOL    HW120807   1.764   4.952   0.809
 6325SOL    HW220808   1.645   4.957   0.715
 6326SOL     OW20809   5.101  11.138  11.689
 6326SOL    HW120810   5.110  11.219  11.640
 6326SOL    HW220811   5.035  11.087  11.641
 6327SOL     OW20812   0.274   4.426   1.777
 6327SOL    HW120813   0.343   4.387   1.723
 6327SOL    HW220814   0.317   4.446   1.860
 6328SOL     OW20815   9.567  11.611  12.928
 6328SOL    HW120816   9.556  11.670  12.853
 6328SOL    HW220817   9.659  11.584  12.923
 6329SOL     OW20818   0.634   0.556   1.962
 6329SOL    HW120819   0.725   0.553   1.933
 6329SOL    HW220820   0.596   0.473   1.930
 6330SOL     OW20821  12.213   7.936  11.820
 6330SOL    HW120822  12.191   8.029  11.809
 6330SOL    HW220823  12.271   7.916  11.747
 6331SOL     OW20824   7.744  13.147  10.975
 6331SOL    HW120825   7.683  13.160  11.047
 6331SOL    HW220826   7.712  13.070  10.929
 6332SOL     OW20827  12.845   0.499   6.630
 6332SOL    HW120828  12.790   0.480   6.706
 6332SOL    HW220829  12.816   0.437   6.563
 6333SOL     OW20830  10.997   3.703   7.962
 6333SOL    HW120831  11.020   3.750   8.042
 6333SOL    HW220832  10.994   3.770   7.895
 6334SOL     OW20833  14.786   4.485   3.567
 6334SOL    HW120834  14.768   4.549   3.636
 6334SOL    HW220835  14.720   4.417   3.580
 6335SOL     OW20836   7.885   7.746  13.215
 6335SOL    HW120837   7.870   7.702  13.298
 6335SOL    HW220838   7.812   7.717  13.159
 6336SOL     OW20839   6.355   5.373  11.953
 6336SOL    HW120840   6.385   5.413  11.872
 6336SOL    HW220841   6.422   5.397  12.018
 6337SOL     OW20842   6.836  12.418  11.807
 6337SOL    HW120843   6.787  12.476  11.865
 6337SOL    HW220844   6.882  12.478  11.747
 6338SOL     OW20845   1.315   9.445   9.342
 6338SOL    HW120846   1.307   9.369   9.284
 6338SOL    HW220847   1.408   9.449   9.365
 6339SOL     OW20848  10.759   9.221   3.293
 6339SOL    HW120849  10.853   9.238   3.290
 6339SOL    HW220850  10.719   9.300   3.254
 6340SOL     OW20851   9.453   4.984   9.431
 6340SOL    HW120852   9.376   4.937   9.400
 6340SOL    HW220853   9.518   4.915   9.447
 6341SOL     OW20854  12.082   9.940   7.542
 6341SOL    HW120855  12.162   9.977   7.504
 6341SOL    HW220856  12.092   9.846   7.530
 6342SOL     OW20857   9.304  11.677  10.015
 6342SOL    HW120858   9.211  11.679   9.991
 6342SOL    HW220859   9.348  11.712   9.937
 6343SOL     OW20860   7.796   5.760  14.057
 6343SOL    HW120861   7.800   5.728  14.147
 6343SOL    HW220862   7.799   5.855  14.065
 6344SOL     OW20863   0.564   7.662  12.043
 6344SOL    HW120864   0.537   7.685  12.132
 6344SOL    HW220865   0.604   7.741  12.008
 6345SOL     OW20866  13.686   1.437   5.355
 6345SOL    HW120867  13.683   1.530   5.378
 6345SOL    HW220868  13.741   1.397   5.422
 6346SOL     OW20869  11.710   9.355   4.156
 6346SOL    HW120870  11.724   9.394   4.242
 6346SOL    HW220871  11.667   9.425   4.105
 6347SOL     OW20872   5.120  12.334   2.566
 6347SOL    HW120873   5.115  12.429   2.553
 6347SOL    HW220874   5.068  12.318   2.645
 6348SOL     OW20875   1.747   3.781  11.999
 6348SOL    HW120876   1.663   3.786  11.954
 6348SOL    HW220877   1.731   3.724  12.074
 6349SOL     OW20878   7.962   6.731   8.221
 6349SOL    HW120879   7.936   6.723   8.130
 6349SOL    HW220880   7.994   6.821   8.229
 6350SOL     OW20881  11.526  11.274   3.866
 6350SOL    HW120882  11.467  11.298   3.937
 6350SOL    HW220883  11.481  11.304   3.786
 6351SOL     OW20884  13.182  12.714   7.921
 6351SOL    HW120885  13.245  12.785   7.911
 6351SOL    HW220886  13.177  12.699   8.015
 6352SOL     OW20887  11.004  10.157   8.396
 6352SOL    HW120888  11.019  10.216   8.470
 6352SOL    HW220889  10.908  10.153   8.388
 6353SOL     OW20890   0.844  13.830   8.285
 6353SOL    HW120891   0.820  13.737   8.296
 6353SOL    HW220892   0.935  13.828   8.256
 6354SOL     OW20893   7.339   2.326   6.186
 6354SOL    HW120894   7.304   2.331   6.097
 6354SOL    HW220895   7.291   2.392   6.235
 6355SOL     OW20896  11.390  14.032   5.834
 6355SOL    HW120897  11.356  14.074   5.913
 6355SOL    HW220898  11.485  14.029   5.847
 6356SOL     OW20899   0.944   6.474   7.103
 6356SOL    HW120900   0.974   6.516   7.022
 6356SOL    HW220901   0.848   6.477   7.096
 6357SOL     OW20902  12.697   6.489   7.999
 6357SOL    HW120903  12.656   6.403   8.010
 6357SOL    HW220904  12.786   6.470   7.972
 6358SOL     OW20905  11.883   1.950   1.368
 6358SOL    HW120906  11.799   1.905   1.360
 6358SOL    HW220907  11.871   2.011   1.440
 6359SOL     OW20908   2.552   8.104   0.405
 6359SOL    HW120909   2.481   8.048   0.372
 6359SOL    HW220910   2.538   8.188   0.362
 6360SOL     OW20911   0.872   5.486   2.497
 6360SOL    HW120912   0.961   5.450   2.486
 6360SOL    HW220913   0.880   5.545   2.572
 6361SOL     OW20914  14.790   6.496   7.180
 6361SOL    HW120915  14.700   6.465   7.168
 6361SOL    HW220916  14.808   6.484   7.273
 6362SOL     OW20917  10.766   9.118   4.321
 6362SOL    HW120918  10.792   9.144   4.409
 6362SOL    HW220919  10.671   9.126   4.320
 6363SOL     OW20920  14.442  12.073   6.071
 6363SOL    HW120921  14.501  12.142   6.101
 6363SOL    HW220922  14.476  12.048   5.985
 6364SOL     OW20923   6.231   7.168   7.532
 6364SOL    HW120924   6.320   7.140   7.554
 6364SOL    HW220925   6.216   7.245   7.586
 6365SOL     OW20926   8.713  13.491  13.558
 6365SOL    HW120927   8.699  13.398  13.544
 6365SOL    HW220928   8.793  13.511  13.510
 6366SOL     OW20929   4.021   3.919  11.886
 6366SOL    HW120930   3.986   3.919  11.797
 6366SOL    HW220931   4.116   3.915  11.875
 6367SOL     OW20932  12.171   6.214  13.223
 6367SOL    HW120933  12.232   6.285  13.201
 6367SOL    HW220934  12.200   6.140  13.170
 6368SOL     OW20935   4.506   2.743  11.040
 6368SOL    HW120936   4.488   2.725  11.132
 6368SOL    HW220937   4.421   2.738  10.997
 6369SOL     OW20938   5.311   0.213  11.167
 6369SOL    HW120939   5.317   0.229  11.261
 6369SOL    HW220940   5.305   0.301  11.128
 6370SOL     OW20941  13.203   8.698   3.390
 6370SOL    HW120942  13.138   8.687   3.459
 6370SOL    HW220943  13.162   8.756   3.327
 6371SOL     OW20944   7.371  11.511   0.810
 6371SOL    HW120945   7.283  11.504   0.848
 6371SOL    HW220946   7.382  11.604   0.792
 6372SOL     OW20947   2.882   5.448   8.187
 6372SOL    HW120948   2.914   5.525   8.235
 6372SOL    HW220949   2.851   5.483   8.104
 6373SOL     OW20950  10.678   6.327   0.680
 6373SOL    HW120951  10.770   6.304   0.664
 6373SOL    HW220952  10.636   6.319   0.595
 6374SOL     OW20953   8.929   3.002   3.508
 6374SOL    HW120954   8.968   3.089   3.517
 6374SOL    HW220955   9.001   2.946   3.480
 6375SOL     OW20956   2.316   4.082   4.744
 6375SOL    HW120957   2.267   4.001   4.731
 6375SOL    HW220958   2.404   4.054   4.766
 6376SOL     OW20959  11.249   7.263   4.955
 6376SOL    HW120960  11.238   7.213   4.874
 6376SOL    HW220961  11.307   7.209   5.009
 6377SOL     OW20962   7.888   4.291   6.683
 6377SOL    HW120963   7.879   4.244   6.600
 6377SOL    HW220964   7.887   4.222   6.749
 6378SOL     OW20965  13.612   9.102   8.702
 6378SOL    HW120966  13.599   9.121   8.609
 6378SOL    HW220967  13.527   9.071   8.732
 6379SOL     OW20968   3.323   1.045   1.621
 6379SOL    HW120969   3.369   0.993   1.554
 6379SOL    HW220970   3.277   0.979   1.674
 6380SOL     OW20971  12.325   5.642  10.985
 6380SOL    HW120972  12.331   5.552  11.018
 6380SOL    HW220973  12.336   5.634  10.890
 6381SOL     OW20974  13.637   0.439   9.029
 6381SOL    HW120975  13.595   0.518   9.063
 6381SOL    HW220976  13.610   0.370   9.090
 6382SOL     OW20977   2.250  12.615   3.383
 6382SOL    HW120978   2.168  12.575   3.353
 6382SOL    HW220979   2.240  12.621   3.478
 6383SOL     OW20980   6.188  14.296  11.012
 6383SOL    HW120981   6.147  14.361  11.069
 6383SOL    HW220982   6.162  14.322  10.923
 6384SOL     OW20983   9.789   1.060   7.604
 6384SOL    HW120984   9.828   1.133   7.555
 6384SOL    HW220985   9.750   1.004   7.537
 6385SOL     OW20986   1.924   7.935   9.575
 6385SOL    HW120987   1.900   7.874   9.644
 6385SOL    HW220988   1.993   7.891   9.526
 6386SOL     OW20989  13.197   3.423   7.227
 6386SOL    HW120990  13.256   3.362   7.272
 6386SOL    HW220991  13.158   3.475   7.297
 6387SOL     OW20992  11.792   7.944  11.577
 6387SOL    HW120993  11.748   7.883  11.518
 6387SOL    HW220994  11.767   7.916  11.665
 6388SOL     OW20995  11.747   3.671   0.516
 6388SOL    HW120996  11.765   3.763   0.532
 6388SOL    HW220997  11.832   3.628   0.527
 6389SOL     OW20998   7.467   8.156   0.817
 6389SOL    HW120999   7.390   8.126   0.865
 6389SOL    HW221000   7.473   8.097   0.742
 6390SOL     OW21001   7.433   8.892   6.568
 6390SOL    HW121002   7.470   8.913   6.482
 6390SOL    HW221003   7.508   8.888   6.627
 6391SOL     OW21004   7.158   2.044   0.042
 6391SOL    HW121005   7.074   2.075   0.076
 6391SOL    HW221006   7.139   2.014  14.835
 6392SOL     OW21007   7.882   1.107   3.167
 6392SOL    HW121008   7.808   1.133   3.113
 6392SOL    HW221009   7.850   1.115   3.257
 6393SOL     OW21010   5.884   5.235   2.378
 6393SOL    HW121011   5.871   5.150   2.334
 6393SOL    HW221012   5.978   5.242   2.388
 6394SOL     OW21013   9.525  11.373  13.252
 6394SOL    HW121014   9.472  11.393  13.175
 6394SOL    HW221015   9.462  11.345  13.318
 6395SOL     OW21016  10.446   1.767   0.116
 6395SOL    HW121017  10.453   1.745   0.209
 6395SOL    HW221018  10.383   1.705   0.081
 6396SOL     OW21019   2.118   2.430   2.767
 6396SOL    HW121020   2.033   2.426   2.723
 6396SOL    HW221021   2.176   2.469   2.701
 6397SOL     OW21022   5.034  13.915   5.481
 6397SOL    HW121023   5.120  13.874   5.497
 6397SOL    HW221024   5.004  13.874   5.400
 6398SOL     OW21025   5.277   0.500   8.544
 6398SOL    HW121026   5.188   0.471   8.564
 6398SOL    HW221027   5.309   0.539   8.626
 6399SOL     OW21028  11.578   9.353   8.740
 6399SOL    HW121029  11.526   9.290   8.788
 6399SOL    HW221030  11.585   9.428   8.798
 6400SOL     OW21031  13.726   8.042   5.625
 6400SOL    HW121032  13.632   8.052   5.635
 6400SOL    HW221033  13.763   8.122   5.662
 6401SOL     OW21034   0.748   5.594   0.503
 6401SOL    HW121035   0.697   5.675   0.495
 6401SOL    HW221036   0.818   5.617   0.566
 6402SOL     OW21037   1.909   3.353  11.284
 6402SOL    HW121038   1.928   3.289  11.215
 6402SOL    HW221039   1.836   3.404  11.249
 6403SOL     OW21040   6.176  10.519  11.732
 6403SOL    HW121041   6.201  10.432  11.701
 6403SOL    HW221042   6.136  10.561  11.656
 6404SOL     OW21043  13.979  10.565  14.450
 6404SOL    HW121044  13.956  10.658  14.447
 6404SOL    HW221045  13.960  10.532  14.363
 6405SOL     OW21046  14.508  13.264   9.437
 6405SOL    HW121047  14.422  13.299   9.414
 6405SOL    HW221048  14.492  13.173   9.460
 6406SOL     OW21049   9.135   9.611   8.303
 6406SOL    HW121050   9.180   9.672   8.244
 6406SOL    HW221051   9.205   9.576   8.359
 6407SOL     OW21052  10.772   5.159   2.086
 6407SOL    HW121053  10.789   5.118   2.170
 6407SOL    HW221054  10.702   5.106   2.047
 6408SOL     OW21055   2.100   6.771  11.190
 6408SOL    HW121056   2.052   6.749  11.269
 6408SOL    HW221057   2.048   6.840  11.149
 6409SOL     OW21058   4.563   0.516  13.795
 6409SOL    HW121059   4.615   0.531  13.874
 6409SOL    HW221060   4.623   0.535  13.723
 6410SOL     OW21061   7.756   2.339  10.045
 6410SOL    HW121062   7.743   2.288   9.964
 6410SOL    HW221063   7.778   2.273  10.111
 6411SOL     OW21064  12.543  11.741  13.384
 6411SOL    HW121065  12.581  11.816  13.337
 6411SOL    HW221066  12.617  11.682  13.399
 6412SOL     OW21067   5.884  10.426   8.516
 6412SOL    HW121068   5.819  10.495   8.505
 6412SOL    HW221069   5.954  10.466   8.567
 6413SOL     OW21070   8.884   6.348   4.244
 6413SOL    HW121071   8.813   6.352   4.308
 6413SOL    HW221072   8.881   6.259   4.210
 6414SOL     OW21073   8.861   0.455   1.948
 6414SOL    HW121074   8.922   0.430   2.018
 6414SOL    HW221075   8.779   0.415   1.973
 6415SOL     OW21076   1.176   8.209   9.680
 6415SOL    HW121077   1.093   8.250   9.657
 6415SOL    HW221078   1.232   8.282   9.705
 6416SOL     OW21079  13.698  12.048  10.013
 6416SOL    HW121080  13.741  12.123   9.973
 6416SOL    HW221081  13.743  11.972   9.976
 6417SOL     OW21082   4.576   3.906  12.495
 6417SOL    HW121083   4.509   3.972  12.512
 6417SOL    HW221084   4.597   3.871  12.582
 6418SOL     OW21085   6.724   5.926   3.096
 6418SOL    HW121086   6.694   5.867   3.027
 6418SOL    HW221087   6.819   5.929   3.086
 6419SOL     OW21088   3.971   7.792  10.330
 6419SOL    HW121089   4.062   7.764  10.339
 6419SOL    HW221090   3.922   7.734  10.389
 6420SOL     OW21091   6.582   7.661  13.719
 6420SOL    HW121092   6.499   7.701  13.696
 6420SOL    HW221093   6.608   7.612  13.641
 6421SOL     OW21094   6.283  13.631  14.641
 6421SOL    HW121095   6.303  13.589  14.558
 6421SOL    HW221096   6.336  13.711  14.641
 6422SOL     OW21097   3.647  13.664   4.160
 6422SOL    HW121098   3.560  13.644   4.126
 6422SOL    HW221099   3.688  13.718   4.092
 6423SOL     OW21100  11.383   1.419   8.602
 6423SOL    HW121101  11.406   1.335   8.643
 6423SOL    HW221102  11.443   1.428   8.529
 6424SOL     OW21103  10.321  14.476  10.774
 6424SOL    HW121104  10.317  14.381  10.765
 6424SOL    HW221105  10.404  14.500  10.733
 6425SOL     OW21106   0.729   0.955   1.958
 6425SOL    HW121107   0.735   0.862   1.983
 6425SOL    HW221108   0.814   0.991   1.982
 6426SOL     OW21109  13.675   1.183  12.627
 6426SOL    HW121110  13.595   1.235  12.615
 6426SOL    HW221111  13.736   1.243  12.670
 6427SOL     OW21112   1.409   9.199   3.187
 6427SOL    HW121113   1.415   9.185   3.281
 6427SOL    HW221114   1.500   9.212   3.159
 6428SOL     OW21115   7.530  10.024   2.283
 6428SOL    HW121116   7.565   9.942   2.249
 6428SOL    HW221117   7.509  10.005   2.374
 6429SOL     OW21118   8.258   2.862   5.689
 6429SOL    HW121119   8.235   2.914   5.612
 6429SOL    HW221120   8.353   2.868   5.694
 6430SOL     OW21121  13.477  12.340   6.898
 6430SOL    HW121122  13.544  12.377   6.956
 6430SOL    HW221123  13.468  12.405   6.828
 6431SOL     OW21124  12.540   3.835   2.728
 6431SOL    HW121125  12.569   3.837   2.819
 6431SOL    HW221126  12.599   3.772   2.686
 6432SOL     OW21127  14.672   2.684  11.987
 6432SOL    HW121128  14.624   2.720  12.061
 6432SOL    HW221129  14.764   2.695  12.010
 6433SOL     OW21130   2.994  12.518   2.773
 6433SOL    HW121131   3.070  12.461   2.783
 6433SOL    HW221132   2.959  12.498   2.687
 6434SOL     OW21133  10.708   0.508   9.217
 6434SOL    HW121134  10.686   0.467   9.133
 6434SOL    HW221135  10.793   0.471   9.240
 6435SOL     OW21136   6.701   0.517   9.998
 6435SOL    HW121137   6.695   0.551  10.087
 6435SOL    HW221138   6.727   0.592   9.944
 6436SOL     OW21139   5.380   7.387   5.281
 6436SOL    HW121140   5.373   7.476   5.315
 6436SOL    HW221141   5.420   7.337   5.352
 6437SOL     OW21142   6.038   3.266  10.716
 6437SOL    HW121143   6.129   3.237  10.719
 6437SOL    HW221144   6.042   3.361  10.723
 6438SOL     OW21145  13.156  14.117   5.948
 6438SOL    HW121146  13.119  14.205   5.948
 6438SOL    HW221147  13.243  14.127   5.987
 6439SOL     OW21148  12.540   0.482   4.109
 6439SOL    HW121149  12.627   0.523   4.113
 6439SOL    HW221150  12.536   0.442   4.022
 6440SOL     OW21151   0.863  14.286  13.686
 6440SOL    HW121152   0.800  14.345  13.726
 6440SOL    HW221153   0.873  14.215  13.749
 6441SOL     OW21154   4.806  10.893   1.478
 6441SOL    HW121155   4.865  10.864   1.548
 6441SOL    HW221156   4.731  10.834   1.484
 6442SOL     OW21157   2.145  12.034  14.445
 6442SOL    HW121158   2.096  12.102  14.491
 6442SOL    HW221159   2.160  11.966  14.511
 6443SOL     OW21160   9.678   3.838   2.303
 6443SOL    HW121161   9.588   3.831   2.333
 6443SOL    HW221162   9.725   3.770   2.350
 6444SOL     OW21163   8.778   2.713   0.067
 6444SOL    HW121164   8.841   2.743   0.131
 6444SOL    HW221165   8.826   2.649   0.014
 6445SOL     OW21166   4.955   3.710   0.904
 6445SOL    HW121167   4.960   3.621   0.871
 6445SOL    HW221168   4.934   3.700   0.997
 6446SOL     OW21169  14.369   7.983   4.107
 6446SOL    HW121170  14.286   7.939   4.088
 6446SOL    HW221171  14.355   8.021   4.194
 6447SOL     OW21172   0.804   1.648   9.388
 6447SOL    HW121173   0.809   1.730   9.339
 6447SOL    HW221174   0.896   1.624   9.404
 6448SOL     OW21175  11.013  13.463   0.883
 6448SOL    HW121176  11.023  13.380   0.837
 6448SOL    HW221177  11.102  13.498   0.887
 6449SOL     OW21178   6.147   7.523   6.613
 6449SOL    HW121179   6.115   7.459   6.677
 6449SOL    HW221180   6.134   7.480   6.529
 6450SOL     OW21181   7.211   7.876   1.174
 6450SOL    HW121182   7.289   7.842   1.218
 6450SOL    HW221183   7.148   7.805   1.179
 6451SOL     OW21184   2.637   6.019  14.599
 6451SOL    HW121185   2.660   5.930  14.570
 6451SOL    HW221186   2.615   6.009  14.691
 6452SOL     OW21187  12.343   2.859   3.755
 6452SOL    HW121188  12.394   2.909   3.819
 6452SOL    HW221189  12.331   2.773   3.795
 6453SOL     OW21190  12.297   9.247   8.869
 6453SOL    HW121191  12.370   9.196   8.833
 6453SOL    HW221192  12.337   9.303   8.935
 6454SOL     OW21193  14.306  10.101  10.901
 6454SOL    HW121194  14.396  10.113  10.870
 6454SOL    HW221195  14.294  10.170  10.966
 6455SOL     OW21196   3.415   7.244   3.604
 6455SOL    HW121197   3.400   7.211   3.693
 6455SOL    HW221198   3.504   7.216   3.582
 6456SOL     OW21199   4.838   1.737   8.608
 6456SOL    HW121200   4.811   1.819   8.566
 6456SOL    HW221201   4.784   1.731   8.687
 6457SOL     OW21202   7.785   4.089  11.325
 6457SOL    HW121203   7.702   4.132  11.344
 6457SOL    HW221204   7.852   4.148  11.359
 6458SOL     OW21205  14.189   9.098   1.906
 6458SOL    HW121206  14.095   9.097   1.885
 6458SOL    HW221207  14.193   9.140   1.992
 6459SOL     OW21208  10.249   2.399   3.322
 6459SOL    HW121209  10.236   2.451   3.242
 6459SOL    HW221210  10.167   2.409   3.370
 6460SOL     OW21211   3.189  13.648   8.237
 6460SOL    HW121212   3.239  13.602   8.170
 6460SOL    HW221213   3.205  13.599   8.317
 6461SOL     OW21214   7.431  13.664  14.777
 6461SOL    HW121215   7.445  13.757  14.762
 6461SOL    HW221216   7.336  13.653  14.772
 6462SOL     OW21217   9.274   5.009   7.596
 6462SOL    HW121218   9.257   4.990   7.688
 6462SOL    HW221219   9.339   5.080   7.598
 6463SOL     OW21220  14.466  12.045   2.213
 6463SOL    HW121221  14.452  12.122   2.268
 6463SOL    HW221222  14.513  12.078   2.137
 6464SOL     OW21223   5.052  10.586   8.643
 6464SOL    HW121224   5.129  10.529   8.634
 6464SOL    HW221225   5.088  10.674   8.643
 6465SOL     OW21226   8.993  14.741   2.114
 6465SOL    HW121227   8.922  14.805   2.122
 6465SOL    HW221228   8.978  14.700   2.029
 6466SOL     OW21229   0.456   7.808  12.540
 6466SOL    HW121230   0.423   7.893  12.570
 6466SOL    HW221231   0.522   7.784  12.605
 6467SOL     OW21232  11.791   8.465   3.480
 6467SOL    HW121233  11.866   8.412   3.507
 6467SOL    HW221234  11.800   8.546   3.530
 6468SOL     OW21235   9.547  14.080  11.868
 6468SOL    HW121236   9.510  13.996  11.838
 6468SOL    HW221237   9.535  14.079  11.962
 6469SOL     OW21238   5.968   4.517  11.937
 6469SOL    HW121239   6.047   4.552  11.896
 6469SOL    HW221240   5.925   4.594  11.975
 6470SOL     OW21241   6.001   4.635   7.272
 6470SOL    HW121242   5.969   4.711   7.320
 6470SOL    HW221243   6.042   4.671   7.194
 6471SOL     OW21244  13.697   3.199  12.870
 6471SOL    HW121245  13.758   3.271  12.855
 6471SOL    HW221246  13.610   3.239  12.861
 6472SOL     OW21247  10.986   4.954  13.907
 6472SOL    HW121248  11.045   5.017  13.949
 6472SOL    HW221249  10.984   4.981  13.815
 6473SOL     OW21250   3.269  11.896   8.340
 6473SOL    HW121251   3.197  11.851   8.383
 6473SOL    HW221252   3.346  11.843   8.360
 6474SOL     OW21253   0.930   1.829   5.164
 6474SOL    HW121254   1.002   1.834   5.101
 6474SOL    HW221255   0.863   1.888   5.128
 6475SOL     OW21256  14.829  10.776   2.280
 6475SOL    HW121257  14.801  10.772   2.371
 6475SOL    HW221258  14.797  10.694   2.241
 6476SOL     OW21259  13.911   7.778   2.629
 6476SOL    HW121260  13.837   7.776   2.689
 6476SOL    HW221261  13.931   7.686   2.612
 6477SOL     OW21262  11.070  14.165  14.243
 6477SOL    HW121263  10.991  14.183  14.191
 6477SOL    HW221264  11.126  14.241  14.228
 6478SOL     OW21265   7.327   3.742  12.578
 6478SOL    HW121266   7.384   3.723  12.653
 6478SOL    HW221267   7.385   3.778  12.512
 6479SOL     OW21268   6.455   5.636  12.145
 6479SOL    HW121269   6.517   5.671  12.082
 6479SOL    HW221270   6.508   5.579  12.202
 6480SOL     OW21271   5.903   4.226   6.734
 6480SOL    HW121272   5.918   4.134   6.709
 6480SOL    HW221273   5.863   4.265   6.657
 6481SOL     OW21274   9.758  14.494   1.908
 6481SOL    HW121275   9.849  14.524   1.913
 6481SOL    HW221276   9.748  14.435   1.983
 6482SOL     OW21277   7.832   6.146   7.426
 6482SOL    HW121278   7.769   6.206   7.466
 6482SOL    HW221279   7.790   6.116   7.346
 6483SOL     OW21280  11.709   1.521   2.371
 6483SOL    HW121281  11.761   1.441   2.383
 6483SOL    HW221282  11.760   1.575   2.311
 6484SOL     OW21283   7.847  13.992  14.016
 6484SOL    HW121284   7.850  14.029  14.104
 6484SOL    HW221285   7.893  13.908  14.024
 6485SOL     OW21286   6.536   8.272   2.959
 6485SOL    HW121287   6.517   8.206   2.893
 6485SOL    HW221288   6.516   8.355   2.916
 6486SOL     OW21289  12.071   8.706   3.002
 6486SOL    HW121290  12.108   8.671   3.083
 6486SOL    HW221291  12.147   8.728   2.948
 6487SOL     OW21292   3.544  11.919  11.517
 6487SOL    HW121293   3.533  11.993  11.458
 6487SOL    HW221294   3.472  11.926  11.580
 6488SOL     OW21295   1.870   8.520   5.598
 6488SOL    HW121296   1.827   8.603   5.576
 6488SOL    HW221297   1.948   8.518   5.542
 6489SOL     OW21298   7.904   5.215  12.810
 6489SOL    HW121299   7.952   5.240  12.889
 6489SOL    HW221300   7.962   5.240  12.738
 6490SOL     OW21301   1.802   4.961   2.606
 6490SOL    HW121302   1.741   4.971   2.679
 6490SOL    HW221303   1.789   5.040   2.554
 6491SOL     OW21304  10.070  11.680   6.262
 6491SOL    HW121305  10.082  11.756   6.318
 6491SOL    HW221306  10.020  11.618   6.315
 6492SOL     OW21307  11.163   9.284   2.019
 6492SOL    HW121308  11.252   9.305   2.046
 6492SOL    HW221309  11.145   9.200   2.060
 6493SOL     OW21310   8.503  11.588   2.317
 6493SOL    HW121311   8.530  11.676   2.290
 6493SOL    HW221312   8.409  11.585   2.302
 6494SOL     OW21313   1.889   7.925  12.501
 6494SOL    HW121314   1.978   7.958  12.485
 6494SOL    HW221315   1.833   7.982  12.448
 6495SOL     OW21316   4.349   5.810   4.111
 6495SOL    HW121317   4.431   5.850   4.083
 6495SOL    HW221318   4.376   5.733   4.162
 6496SOL     OW21319  12.659  10.630  11.088
 6496SOL    HW121320  12.623  10.584  11.013
 6496SOL    HW221321  12.722  10.569  11.126
 6497SOL     OW21322   7.203   9.869   3.223
 6497SOL    HW121323   7.217   9.963   3.230
 6497SOL    HW221324   7.283   9.835   3.184
 6498SOL     OW21325   0.004   2.454  13.873
 6498SOL    HW121326  14.837   2.522  13.825
 6498SOL    HW221327   0.068   2.421  13.810
 6499SOL     OW21328   2.969  14.218   9.977
 6499SOL    HW121329   2.909  14.170   9.921
 6499SOL    HW221330   3.006  14.286   9.920
 6500SOL     OW21331   7.213   3.741   8.725
 6500SOL    HW121332   7.151   3.791   8.671
 6500SOL    HW221333   7.212   3.786   8.809
 6501SOL     OW21334  14.676  12.258   4.404
 6501SOL    HW121335  14.708  12.205   4.331
 6501SOL    HW221336  14.720  12.342   4.394
 6502SOL     OW21337   4.170  12.375  11.245
 6502SOL    HW121338   4.190  12.293  11.290
 6502SOL    HW221339   4.253  12.402  11.206
 6503SOL     OW21340   6.886   6.479   6.954
 6503SOL    HW121341   6.872   6.531   7.033
 6503SOL    HW221342   6.800   6.442   6.933
 6504SOL     OW21343   6.297  11.760  14.255
 6504SOL    HW121344   6.319  11.712  14.335
 6504SOL    HW221345   6.381  11.791  14.222
 6505SOL     OW21346   4.705   0.832  14.290
 6505SOL    HW121347   4.671   0.744  14.277
 6505SOL    HW221348   4.753   0.851  14.209
 6506SOL     OW21349   8.750   0.049   0.312
 6506SOL    HW121350   8.667   0.020   0.274
 6506SOL    HW221351   8.752   0.008   0.398
 6507SOL     OW21352  10.339   5.900  13.226
 6507SOL    HW121353  10.314   5.811  13.200
 6507SOL    HW221354  10.435   5.901  13.221
 6508SOL     OW21355   5.638  10.213   1.025
 6508SOL    HW121356   5.655  10.211   1.119
 6508SOL    HW221357   5.552  10.173   1.015
 6509SOL     OW21358  14.825   8.832   9.749
 6509SOL    HW121359  14.793   8.764   9.807
 6509SOL    HW221360  14.748   8.883   9.725
 6510SOL     OW21361   7.236   6.805  14.480
 6510SOL    HW121362   7.248   6.825  14.573
 6510SOL    HW221363   7.190   6.721  14.479
 6511SOL     OW21364   4.903   7.324  14.779
 6511SOL    HW121365   4.963   7.287  14.844
 6511SOL    HW221366   4.960   7.355  14.709
 6512SOL     OW21367  13.958   4.628   1.933
 6512SOL    HW121368  13.982   4.640   2.025
 6512SOL    HW221369  14.038   4.648   1.885
 6513SOL     OW21370  11.972  11.169  13.294
 6513SOL    HW121371  11.878  11.154  13.308
 6513SOL    HW221372  12.015  11.115  13.360
 6514SOL     OW21373  12.457  10.907   7.205
 6514SOL    HW121374  12.468  10.824   7.158
 6514SOL    HW221375  12.477  10.974   7.140
 6515SOL     OW21376   8.796   9.185   9.884
 6515SOL    HW121377   8.793   9.182   9.788
 6515SOL    HW221378   8.785   9.094   9.911
 6516SOL     OW21379  12.725   2.152   6.772
 6516SOL    HW121380  12.725   2.171   6.678
 6516SOL    HW221381  12.811   2.114   6.790
 6517SOL     OW21382   7.963   9.398   8.191
 6517SOL    HW121383   8.033   9.463   8.201
 6517SOL    HW221384   7.979   9.358   8.105
 6518SOL     OW21385   5.806  12.303   6.892
 6518SOL    HW121386   5.782  12.212   6.908
 6518SOL    HW221387   5.723  12.350   6.895
 6519SOL     OW21388   4.453   0.568  11.493
 6519SOL    HW121389   4.370   0.616  11.500
 6519SOL    HW221390   4.501   0.591  11.572
 6520SOL     OW21391  11.933   7.812   7.139
 6520SOL    HW121392  11.868   7.742   7.145
 6520SOL    HW221393  11.882   7.893   7.139
 6521SOL     OW21394   3.449   3.036   8.105
 6521SOL    HW121395   3.433   3.067   8.016
 6521SOL    HW221396   3.519   3.093   8.138
 6522SOL     OW21397  12.347  11.419  13.002
 6522SOL    HW121398  12.291  11.383  12.933
 6522SOL    HW221399  12.307  11.503  13.025
 6523SOL     OW21400   2.064   0.702   2.849
 6523SOL    HW121401   1.994   0.644   2.822
 6523SOL    HW221402   2.020   0.775   2.893
 6524SOL     OW21403   5.888   6.504   7.736
 6524SOL    HW121404   5.806   6.458   7.718
 6524SOL    HW221405   5.906   6.553   7.656
 6525SOL     OW21406  11.560  13.150   9.573
 6525SOL    HW121407  11.645  13.177   9.539
 6525SOL    HW221408  11.545  13.063   9.536
 6526SOL     OW21409   8.347   6.238  13.855
 6526SOL    HW121410   8.431   6.276  13.880
 6526SOL    HW221411   8.309   6.301  13.793
 6527SOL     OW21412   1.132   8.373   5.964
 6527SOL    HW121413   1.202   8.358   5.901
 6527SOL    HW221414   1.053   8.384   5.911
 6528SOL     OW21415  12.551   0.964   9.364
 6528SOL    HW121416  12.539   0.877   9.401
 6528SOL    HW221417  12.558   1.022   9.440
 6529SOL     OW21418   4.500   6.393   4.251
 6529SOL    HW121419   4.544   6.404   4.167
 6529SOL    HW221420   4.544   6.317   4.291
 6530SOL     OW21421   1.384  10.726   6.760
 6530SOL    HW121422   1.299  10.700   6.726
 6530SOL    HW221423   1.399  10.813   6.721
 6531SOL     OW21424   2.291  12.217   1.255
 6531SOL    HW121425   2.385  12.233   1.244
 6531SOL    HW221426   2.253  12.240   1.171
 6532SOL     OW21427   6.059   6.154   9.885
 6532SOL    HW121428   6.057   6.206   9.804
 6532SOL    HW221429   6.058   6.063   9.855
 6533SOL     OW21430   5.915  10.859  13.954
 6533SOL    HW121431   5.924  10.771  13.992
 6533SOL    HW221432   5.949  10.850  13.865
 6534SOL     OW21433   7.645   4.563  10.397
 6534SOL    HW121434   7.695   4.612  10.462
 6534SOL    HW221435   7.611   4.630  10.337
 6535SOL     OW21436   0.259   8.305   3.687
 6535SOL    HW121437   0.204   8.275   3.760
 6535SOL    HW221438   0.217   8.268   3.609
 6536SOL     OW21439   7.547  12.316  10.978
 6536SOL    HW121440   7.529  12.313  10.884
 6536SOL    HW221441   7.465  12.289  11.019
 6537SOL     OW21442  10.179   3.537  12.777
 6537SOL    HW121443  10.273   3.528  12.787
 6537SOL    HW221444  10.151   3.456  12.734
 6538SOL     OW21445   7.388  10.121   2.978
 6538SOL    HW121446   7.298  10.126   3.012
 6538SOL    HW221447   7.423  10.209   2.992
 6539SOL     OW21448   7.167   8.604   3.961
 6539SOL    HW121449   7.235   8.548   3.998
 6539SOL    HW221450   7.141   8.560   3.880
 6540SOL     OW21451  13.973   6.445   8.644
 6540SOL    HW121452  13.950   6.388   8.717
 6540SOL    HW221453  13.891   6.460   8.598
 6541SOL     OW21454   4.950   8.993  11.601
 6541SOL    HW121455   4.900   8.918  11.569
 6541SOL    HW221456   5.041   8.964  11.601
 6542SOL     OW21457  14.790   7.831  11.851
 6542SOL    HW121458  14.864   7.892  11.843
 6542SOL    HW221459  14.831   7.745  11.862
 6543SOL     OW21460   8.812   2.982   0.753
 6543SOL    HW121461   8.894   2.943   0.785
 6543SOL    HW221462   8.759   2.994   0.832
 6544SOL     OW21463   2.646  12.033   8.255
 6544SOL    HW121464   2.693  11.958   8.294
 6544SOL    HW221465   2.566  12.041   8.308
 6545SOL     OW21466   9.439   0.495  12.115
 6545SOL    HW121467   9.482   0.497  12.029
 6545SOL    HW221468   9.352   0.458  12.097
 6546SOL     OW21469   9.806   2.041   7.960
 6546SOL    HW121470   9.900   2.026   7.973
 6546SOL    HW221471   9.778   2.087   8.040
 6547SOL     OW21472   4.556  10.486   7.341
 6547SOL    HW121473   4.604  10.530   7.412
 6547SOL    HW221474   4.623  10.471   7.274
 6548SOL     OW21475   0.759   2.351   9.715
 6548SOL    HW121476   0.843   2.309   9.693
 6548SOL    HW221477   0.744   2.330   9.807
 6549SOL     OW21478   9.471  10.356   3.520
 6549SOL    HW121479   9.493  10.411   3.444
 6549SOL    HW221480   9.556  10.337   3.560
 6550SOL     OW21481   5.667   3.372   8.860
 6550SOL    HW121482   5.697   3.303   8.919
 6550SOL    HW221483   5.691   3.340   8.773
 6551SOL     OW21484   4.791   4.683   7.701
 6551SOL    HW121485   4.724   4.735   7.746
 6551SOL    HW221486   4.785   4.596   7.740
 6552SOL     OW21487   6.463   0.399  14.826
 6552SOL    HW121488   6.395   0.450  14.782
 6552SOL    HW221489   6.543   0.418  14.778
 6553SOL     OW21490   2.703   0.008  12.263
 6553SOL    HW121491   2.647  14.847  12.328
 6553SOL    HW221492   2.755  14.819  12.226
 6554SOL     OW21493   6.552   9.962  10.050
 6554SOL    HW121494   6.568   9.932  10.139
 6554SOL    HW221495   6.494  10.038  10.059
 6555SOL     OW21496   7.308   3.395  11.319
 6555SOL    HW121497   7.325   3.488  11.333
 6555SOL    HW221498   7.332   3.353  11.402
 6556SOL     OW21499   1.173   2.119  13.594
 6556SOL    HW121500   1.221   2.199  13.573
 6556SOL    HW221501   1.086   2.132  13.557
 6557SOL     OW21502  14.107  11.992   9.839
 6557SOL    HW121503  14.049  12.013   9.912
 6557SOL    HW221504  14.147  11.909   9.864
 6558SOL     OW21505   5.583  11.732  12.845
 6558SOL    HW121506   5.645  11.803  12.826
 6558SOL    HW221507   5.508  11.750  12.789
 6559SOL     OW21508   0.929  11.761  10.718
 6559SOL    HW121509   0.995  11.727  10.658
 6559SOL    HW221510   0.847  11.757  10.668
 6560SOL     OW21511  10.310   5.841   4.045
 6560SOL    HW121512  10.391   5.812   4.086
 6560SOL    HW221513  10.313   5.804   3.957
 6561SOL     OW21514  10.049   4.298   2.096
 6561SOL    HW121515  10.057   4.217   2.147
 6561SOL    HW221516   9.955   4.305   2.078
 6562SOL     OW21517   7.778  11.600  14.693
 6562SOL    HW121518   7.755  11.596  14.786
 6562SOL    HW221519   7.788  11.509  14.667
 6563SOL     OW21520   3.665   5.203   5.740
 6563SOL    HW121521   3.674   5.114   5.705
 6563SOL    HW221522   3.588   5.238   5.694
 6564SOL     OW21523   5.630   1.583   3.894
 6564SOL    HW121524   5.566   1.569   3.824
 6564SOL    HW221525   5.658   1.674   3.882
 6565SOL     OW21526  11.183   2.568   7.964
 6565SOL    HW121527  11.245   2.560   7.891
 6565SOL    HW221528  11.234   2.610   8.034
 6566SOL     OW21529   9.246   5.594  12.790
 6566SOL    HW121530   9.176   5.529  12.778
 6566SOL    HW221531   9.214   5.652  12.859
 6567SOL     OW21532   2.336   1.366   3.209
 6567SOL    HW121533   2.396   1.431   3.174
 6567SOL    HW221534   2.273   1.416   3.261
 6568SOL     OW21535   5.737   1.549   9.328
 6568SOL    HW121536   5.790   1.481   9.286
 6568SOL    HW221537   5.766   1.631   9.287
 6569SOL     OW21538   0.751   0.597   0.638
 6569SOL    HW121539   0.710   0.514   0.615
 6569SOL    HW221540   0.752   0.648   0.557
 6570SOL     OW21541   7.458   8.407  14.625
 6570SOL    HW121542   7.474   8.491  14.583
 6570SOL    HW221543   7.472   8.424  14.718
 6571SOL     OW21544   3.916   8.763   0.947
 6571SOL    HW121545   3.878   8.752   0.859
 6571SOL    HW221546   3.949   8.853   0.948
 6572SOL     OW21547   3.229  12.223  12.422
 6572SOL    HW121548   3.305  12.277  12.399
 6572SOL    HW221549   3.154  12.270  12.386
 6573SOL     OW21550   2.283   9.471  10.339
 6573SOL    HW121551   2.254   9.432  10.421
 6573SOL    HW221552   2.378   9.474  10.346
 6574SOL     OW21553   8.057   2.388  11.566
 6574SOL    HW121554   8.097   2.474  11.560
 6574SOL    HW221555   7.963   2.405  11.575
 6575SOL     OW21556   1.317   8.810   0.123
 6575SOL    HW121557   1.410   8.807   0.100
 6575SOL    HW221558   1.271   8.814   0.039
 6576SOL     OW21559  12.860   7.985  12.545
 6576SOL    HW121560  12.926   8.019  12.606
 6576SOL    HW221561  12.818   8.064  12.509
 6577SOL     OW21562   4.189   8.684   9.796
 6577SOL    HW121563   4.104   8.660   9.759
 6577SOL    HW221564   4.169   8.754   9.858
 6578SOL     OW21565  11.899   7.322   1.929
 6578SOL    HW121566  11.866   7.390   1.988
 6578SOL    HW221567  11.842   7.247   1.944
 6579SOL     OW21568   4.913  10.976  13.700
 6579SOL    HW121569   4.900  10.986  13.794
 6579SOL    HW221570   4.991  11.028  13.680
 6580SOL     OW21571  12.269  13.573   7.461
 6580SOL    HW121572  12.216  13.581   7.540
 6580SOL    HW221573  12.228  13.633   7.399
 6581SOL     OW21574   3.276  12.849  14.235
 6581SOL    HW121575   3.354  12.874  14.284
 6581SOL    HW221576   3.299  12.868  14.144
 6582SOL     OW21577   6.069   3.720   3.671
 6582SOL    HW121578   6.129   3.645   3.671
 6582SOL    HW221579   6.029   3.718   3.584
 6583SOL     OW21580   6.982   9.037   1.236
 6583SOL    HW121581   6.960   9.035   1.329
 6583SOL    HW221582   6.942   9.117   1.203
 6584SOL     OW21583  12.176  14.169   6.757
 6584SOL    HW121584  12.140  14.233   6.819
 6584SOL    HW221585  12.099  14.133   6.713
 6585SOL     OW21586  11.646  13.237   7.409
 6585SOL    HW121587  11.623  13.324   7.376
 6585SOL    HW221588  11.722  13.211   7.357
 6586SOL     OW21589   0.368   7.508   1.264
 6586SOL    HW121590   0.408   7.424   1.241
 6586SOL    HW221591   0.377   7.513   1.359
 6587SOL     OW21592   3.611   7.326  12.238
 6587SOL    HW121593   3.603   7.244  12.287
 6587SOL    HW221594   3.706   7.342  12.235
 6588SOL     OW21595  10.650   2.533  12.361
 6588SOL    HW121596  10.579   2.562  12.419
 6588SOL    HW221597  10.649   2.437  12.368
 6589SOL     OW21598   4.589   0.925  12.209
 6589SOL    HW121599   4.493   0.925  12.199
 6589SOL    HW221600   4.610   1.012  12.242
 6590SOL     OW21601   2.212   5.364   3.515
 6590SOL    HW121602   2.119   5.356   3.493
 6590SOL    HW221603   2.221   5.313   3.595
 6591SOL     OW21604   4.757   0.527   2.209
 6591SOL    HW121605   4.753   0.496   2.300
 6591SOL    HW221606   4.766   0.447   2.157
 6592SOL     OW21607   5.118   6.324  10.510
 6592SOL    HW121608   5.124   6.233  10.481
 6592SOL    HW221609   5.209   6.355  10.512
 6593SOL     OW21610  13.708   3.077   2.166
 6593SOL    HW121611  13.705   3.122   2.251
 6593SOL    HW221612  13.801   3.079   2.142
 6594SOL     OW21613   2.460  10.081  10.225
 6594SOL    HW121614   2.518  10.139  10.177
 6594SOL    HW221615   2.395  10.053  10.160
 6595SOL     OW21616  10.244  12.802  11.212
 6595SOL    HW121617  10.328  12.820  11.170
 6595SOL    HW221618  10.234  12.707  11.207
 6596SOL     OW21619   4.725  10.353   6.998
 6596SOL    HW121620   4.819  10.356   6.984
 6596SOL    HW221621   4.687  10.365   6.910
 6597SOL     OW21622  12.859   5.541   7.909
 6597SOL    HW121623  12.817   5.496   7.983
 6597SOL    HW221624  12.789   5.595   7.872
 6598SOL     OW21625  10.096  12.429   3.388
 6598SOL    HW121626  10.004  12.449   3.369
 6598SOL    HW221627  10.106  12.337   3.365
 6599SOL     OW21628   8.385  14.728  12.635
 6599SOL    HW121629   8.460  14.783  12.655
 6599SOL    HW221630   8.387  14.719  12.539
 6600SOL     OW21631   3.574   9.327   3.438
 6600SOL    HW121632   3.564   9.383   3.515
 6600SOL    HW221633   3.611   9.246   3.472
 6601SOL     OW21634  13.850  12.089   0.736
 6601SOL    HW121635  13.812  12.060   0.819
 6601SOL    HW221636  13.944  12.070   0.745
 6602SOL     OW21637   4.796   3.682   8.278
 6602SOL    HW121638   4.851   3.699   8.355
 6602SOL    HW221639   4.730   3.621   8.308
 6603SOL     OW21640   8.347  14.495   6.348
 6603SOL    HW121641   8.262  14.458   6.321
 6603SOL    HW221642   8.324  14.569   6.403
 6604SOL     OW21643   8.626  12.517   8.591
 6604SOL    HW121644   8.710  12.488   8.625
 6604SOL    HW221645   8.646  12.554   8.505
 6605SOL     OW21646  11.857   8.275   6.390
 6605SOL    HW121647  11.941   8.317   6.408
 6605SOL    HW221648  11.878   8.182   6.379
 6606SOL     OW21649   6.082   1.113   7.371
 6606SOL    HW121650   6.064   1.111   7.277
 6606SOL    HW221651   6.031   1.187   7.404
 6607SOL     OW21652  11.352   3.313   0.431
 6607SOL    HW121653  11.352   3.219   0.414
 6607SOL    HW221654  11.392   3.322   0.518
 6608SOL     OW21655  10.761   6.704   4.951
 6608SOL    HW121656  10.855   6.723   4.951
 6608SOL    HW221657  10.755   6.614   4.982
 6609SOL     OW21658   3.766   5.721   3.693
 6609SOL    HW121659   3.860   5.701   3.693
 6609SOL    HW221660   3.760   5.804   3.644
 6610SOL     OW21661  13.340  14.274   0.472
 6610SOL    HW121662  13.360  14.260   0.564
 6610SOL    HW221663  13.410  14.332   0.440
 6611SOL     OW21664  12.029   5.108   4.392
 6611SOL    HW121665  11.984   5.129   4.473
 6611SOL    HW221666  12.122   5.107   4.415
 6612SOL     OW21667   7.704   4.782  10.630
 6612SOL    HW121668   7.769   4.847  10.602
 6612SOL    HW221669   7.728   4.761  10.720
 6613SOL     OW21670   6.142  14.491  14.077
 6613SOL    HW121671   6.110  14.541  14.001
 6613SOL    HW221672   6.086  14.520  14.149
 6614SOL     OW21673  11.398   6.727  14.643
 6614SOL    HW121674  11.383   6.802  14.586
 6614SOL    HW221675  11.317   6.676  14.636
 6615SOL     OW21676   1.377   4.798   7.655
 6615SOL    HW121677   1.310   4.792   7.587
 6615SOL    HW221678   1.329   4.816   7.735
 6616SOL     OW21679  14.760   1.580   1.514
 6616SOL    HW121680  14.673   1.540   1.511
 6616SOL    HW221681  14.744   1.673   1.497
 6617SOL     OW21682  13.896   5.926   9.123
 6617SOL    HW121683  13.933   5.939   9.036
 6617SOL    HW221684  13.848   6.007   9.142
 6618SOL     OW21685  11.547  10.834  14.567
 6618SOL    HW121686  11.500  10.883  14.500
 6618SOL    HW221687  11.520  10.743  14.555
 6619SOL     OW21688  10.091   8.650   0.240
 6619SOL    HW121689  10.152   8.710   0.283
 6619SOL    HW221690  10.147   8.589   0.192
 6620SOL     OW21691   4.989   1.541  12.735
 6620SOL    HW121692   4.921   1.592  12.779
 6620SOL    HW221693   4.943   1.463  12.703
 6621SOL     OW21694  13.647  13.216   4.256
 6621SOL    HW121695  13.607  13.142   4.302
 6621SOL    HW221696  13.572  13.268   4.226
 6622SOL     OW21697   8.886   8.825   8.978
 6622SOL    HW121698   8.870   8.900   9.035
 6622SOL    HW221699   8.883   8.861   8.890
 6623SOL     OW21700   1.417   1.407   5.507
 6623SOL    HW121701   1.386   1.464   5.436
 6623SOL    HW221702   1.425   1.321   5.467
 6624SOL     OW21703   0.339   2.694  12.092
 6624SOL    HW121704   0.326   2.616  12.145
 6624SOL    HW221705   0.417   2.736  12.128
 6625SOL     OW21706   0.173   4.575   1.568
 6625SOL    HW121707   0.083   4.550   1.551
 6625SOL    HW221708   0.201   4.517   1.639
 6626SOL     OW21709   4.764  11.981   5.929
 6626SOL    HW121710   4.752  11.918   5.858
 6626SOL    HW221711   4.775  12.066   5.886
 6627SOL     OW21712  10.021   7.378   3.918
 6627SOL    HW121713   9.930   7.386   3.892
 6627SOL    HW221714  10.026   7.417   4.005
 6628SOL     OW21715  10.190   6.606   9.087
 6628SOL    HW121716  10.120   6.541   9.081
 6628SOL    HW221717  10.270   6.554   9.091
 6629SOL     OW21718   1.291   2.650  11.664
 6629SOL    HW121719   1.260   2.725  11.714
 6629SOL    HW221720   1.387   2.659  11.665
 6630SOL     OW21721   8.025  10.492   8.527
 6630SOL    HW121722   7.964  10.448   8.468
 6630SOL    HW221723   8.111  10.462   8.499
 6631SOL     OW21724  13.013   8.095   1.862
 6631SOL    HW121725  13.010   8.120   1.954
 6631SOL    HW221726  12.951   8.154   1.819
 6632SOL     OW21727  11.012  13.235   6.447
 6632SOL    HW121728  10.935  13.197   6.488
 6632SOL    HW221729  10.980  13.313   6.402
 6633SOL     OW21730   6.156  11.881   0.471
 6633SOL    HW121731   6.138  11.800   0.423
 6633SOL    HW221732   6.086  11.941   0.445
 6634SOL     OW21733   3.869  10.706   7.348
 6634SOL    HW121734   3.935  10.639   7.365
 6634SOL    HW221735   3.884  10.731   7.257
 6635SOL     OW21736   0.450   6.245   4.145
 6635SOL    HW121737   0.392   6.175   4.114
 6635SOL    HW221738   0.412   6.272   4.229
 6636SOL     OW21739   0.888  11.430   7.204
 6636SOL    HW121740   0.848  11.398   7.285
 6636SOL    HW221741   0.824  11.407   7.136
 6637SOL     OW21742   7.536   8.086  12.760
 6637SOL    HW121743   7.549   8.141  12.683
 6637SOL    HW221744   7.606   8.021  12.755
 6638SOL     OW21745   8.183  11.204  11.804
 6638SOL    HW121746   8.205  11.114  11.779
 6638SOL    HW221747   8.259  11.255  11.779
 6639SOL     OW21748   5.644  14.178  14.176
 6639SOL    HW121749   5.620  14.231  14.252
 6639SOL    HW221750   5.572  14.115  14.168
 6640SOL     OW21751   7.852  14.033   1.844
 6640SOL    HW121752   7.794  14.105   1.820
 6640SOL    HW221753   7.892  14.006   1.761
 6641SOL     OW21754   6.039   3.608  14.348
 6641SOL    HW121755   5.956   3.653  14.336
 6641SOL    HW221756   6.098   3.675  14.382
 6642SOL     OW21757   6.647   7.060   2.468
 6642SOL    HW121758   6.705   7.001   2.419
 6642SOL    HW221759   6.636   7.018   2.553
 6643SOL     OW21760   7.730  12.930  14.365
 6643SOL    HW121761   7.672  12.862  14.330
 6643SOL    HW221762   7.670  12.995  14.401
 6644SOL     OW21763   9.612   8.848   9.208
 6644SOL    HW121764   9.696   8.855   9.252
 6644SOL    HW221765   9.569   8.932   9.225
 6645SOL     OW21766  10.215  14.240   7.008
 6645SOL    HW121767  10.194  14.305   6.941
 6645SOL    HW221768  10.139  14.183   7.012
 6646SOL     OW21769   0.817   5.973   6.779
 6646SOL    HW121770   0.757   5.973   6.853
 6646SOL    HW221771   0.832   5.880   6.760
 6647SOL     OW21772   9.662  13.529   5.264
 6647SOL    HW121773   9.592  13.465   5.280
 6647SOL    HW221774   9.616  13.613   5.259
 6648SOL     OW21775   1.567  10.489  14.780
 6648SOL    HW121776   1.651  10.446  14.761
 6648SOL    HW221777   1.591  10.577  14.809
 6649SOL     OW21778  14.581   1.047   9.853
 6649SOL    HW121779  14.602   1.132   9.891
 6649SOL    HW221780  14.561   0.992   9.929
 6650SOL     OW21781   9.590   2.192   3.460
 6650SOL    HW121782   9.598   2.174   3.554
 6650SOL    HW221783   9.497   2.188   3.442
 6651SOL     OW21784   6.000   1.851   2.655
 6651SOL    HW121785   6.063   1.804   2.709
 6651SOL    HW221786   5.917   1.804   2.668
 6652SOL     OW21787   3.830   2.072   1.030
 6652SOL    HW121788   3.764   2.065   0.960
 6652SOL    HW221789   3.783   2.047   1.109
 6653SOL     OW21790   8.576   2.838   1.625
 6653SOL    HW121791   8.522   2.840   1.704
 6653SOL    HW221792   8.633   2.762   1.637
 6654SOL     OW21793   5.177   8.129  12.492
 6654SOL    HW121794   5.209   8.201  12.546
 6654SOL    HW221795   5.137   8.069  12.555
 6655SOL     OW21796  12.428  10.797   9.271
 6655SOL    HW121797  12.342  10.814   9.235
 6655SOL    HW221798  12.419  10.817   9.364
 6656SOL     OW21799   7.799   0.307   4.711
 6656SOL    HW121800   7.784   0.375   4.778
 6656SOL    HW221801   7.821   0.229   4.761
 6657SOL     OW21802   9.770   1.400   7.007
 6657SOL    HW121803   9.842   1.376   6.949
 6657SOL    HW221804   9.692   1.364   6.964
 6658SOL     OW21805   2.565  10.255   9.671
 6658SOL    HW121806   2.529  10.330   9.624
 6658SOL    HW221807   2.520  10.179   9.632
 6659SOL     OW21808  10.308   5.416   8.014
 6659SOL    HW121809  10.303   5.511   8.002
 6659SOL    HW221810  10.268   5.380   7.935
 6660SOL     OW21811  13.224   7.720   3.178
 6660SOL    HW121812  13.235   7.772   3.258
 6660SOL    HW221813  13.171   7.645   3.205
 6661SOL     OW21814  10.288  11.876  14.042
 6661SOL    HW121815  10.278  11.784  14.065
 6661SOL    HW221816  10.234  11.922  14.106
 6662SOL     OW21817   5.230   3.175   1.678
 6662SOL    HW121818   5.288   3.099   1.673
 6662SOL    HW221819   5.206   3.181   1.770
 6663SOL     OW21820   8.992   8.737   7.561
 6663SOL    HW121821   8.965   8.651   7.594
 6663SOL    HW221822   8.933   8.798   7.604
 6664SOL     OW21823   7.126  14.394   5.443
 6664SOL    HW121824   7.190  14.411   5.513
 6664SOL    HW221825   7.042  14.416   5.482
 6665SOL     OW21826  13.198  10.051   5.688
 6665SOL    HW121827  13.244  10.066   5.771
 6665SOL    HW221828  13.122  10.109   5.692
 6666SOL     OW21829   9.861   9.577   7.123
 6666SOL    HW121830   9.880   9.649   7.063
 6666SOL    HW221831   9.902   9.603   7.206
 6667SOL     OW21832  12.303   8.153  13.715
 6667SOL    HW121833  12.308   8.208  13.637
 6667SOL    HW221834  12.309   8.064  13.681
 6668SOL     OW21835   0.356   6.192   7.742
 6668SOL    HW121836   0.286   6.211   7.805
 6668SOL    HW221837   0.338   6.101   7.715
 6669SOL     OW21838   1.266  12.792   7.805
 6669SOL    HW121839   1.263  12.887   7.793
 6669SOL    HW221840   1.185  12.760   7.765
 6670SOL     OW21841   6.525   6.815  11.959
 6670SOL    HW121842   6.515   6.910  11.960
 6670SOL    HW221843   6.547   6.794  11.869
 6671SOL     OW21844  11.153  10.998   8.946
 6671SOL    HW121845  11.161  11.085   8.907
 6671SOL    HW221846  11.136  11.014   9.039
 6672SOL     OW21847  10.778  12.886   7.707
 6672SOL    HW121848  10.686  12.894   7.682
 6672SOL    HW221849  10.796  12.793   7.702
 6673SOL     OW21850  12.347   1.220   5.434
 6673SOL    HW121851  12.405   1.144   5.440
 6673SOL    HW221852  12.387   1.285   5.492
 6674SOL     OW21853   5.795   7.895   7.878
 6674SOL    HW121854   5.876   7.938   7.850
 6674SOL    HW221855   5.728   7.926   7.817
 6675SOL     OW21856   0.401  12.866   2.101
 6675SOL    HW121857   0.325  12.854   2.158
 6675SOL    HW221858   0.471  12.895   2.160
 6676SOL     OW21859   4.633  14.462   9.490
 6676SOL    HW121860   4.564  14.403   9.459
 6676SOL    HW221861   4.586  14.533   9.534
 6677SOL     OW21862  10.764   5.251  10.215
 6677SOL    HW121863  10.755   5.183  10.282
 6677SOL    HW221864  10.684   5.303  10.222
 6678SOL     OW21865  11.601   3.074   4.105
 6678SOL    HW121866  11.588   2.996   4.159
 6678SOL    HW221867  11.527   3.073   4.044
 6679SOL     OW21868   0.805  13.077  13.088
 6679SOL    HW121869   0.818  13.076  12.993
 6679SOL    HW221870   0.831  12.989  13.116
 6680SOL     OW21871   5.203   7.821  14.746
 6680SOL    HW121872   5.150   7.865  14.812
 6680SOL    HW221873   5.203   7.882  14.672
 6681SOL     OW21874   9.752   1.081   8.190
 6681SOL    HW121875   9.823   1.123   8.141
 6681SOL    HW221876   9.710   1.023   8.126
 6682SOL     OW21877   2.144  10.105   3.536
 6682SOL    HW121878   2.218  10.083   3.593
 6682SOL    HW221879   2.090  10.163   3.589
 6683SOL     OW21880   7.717  12.796   1.170
 6683SOL    HW121881   7.666  12.731   1.217
 6683SOL    HW221882   7.714  12.767   1.079
 6684SOL     OW21883   1.421   0.185  14.307
 6684SOL    HW121884   1.514   0.174  14.292
 6684SOL    HW221885   1.400   0.122  14.377
 6685SOL     OW21886   7.681   1.117   0.811
 6685SOL    HW121887   7.646   1.076   0.731
 6685SOL    HW221888   7.749   1.176   0.780
 6686SOL     OW21889   7.941   3.328   5.257
 6686SOL    HW121890   7.969   3.292   5.341
 6686SOL    HW221891   7.846   3.318   5.257
 6687SOL     OW21892   1.894  13.996   7.642
 6687SOL    HW121893   1.848  14.060   7.589
 6687SOL    HW221894   1.826  13.933   7.668
 6688SOL     OW21895   1.375  14.457   0.435
 6688SOL    HW121896   1.284  14.475   0.412
 6688SOL    HW221897   1.426  14.515   0.379
 6689SOL     OW21898  12.950   6.727  13.500
 6689SOL    HW121899  12.921   6.637  13.512
 6689SOL    HW221900  12.959   6.762  13.589
 6690SOL     OW21901   6.058   1.462   2.617
 6690SOL    HW121902   6.022   1.492   2.701
 6690SOL    HW221903   5.997   1.396   2.586
 6691SOL     OW21904   3.788   0.041  10.303
 6691SOL    HW121905   3.787   0.075  10.213
 6691SOL    HW221906   3.864  14.865  10.306
 6692SOL     OW21907  10.646   4.867   6.773
 6692SOL    HW121908  10.720   4.855   6.832
 6692SOL    HW221909  10.605   4.949   6.802
 6693SOL     OW21910  13.743   0.701   2.944
 6693SOL    HW121911  13.795   0.634   2.988
 6693SOL    HW221912  13.670   0.718   3.005
 6694SOL     OW21913   8.802   7.085   1.098
 6694SOL    HW121914   8.796   7.028   1.021
 6694SOL    HW221915   8.747   7.042   1.164
 6695SOL     OW21916  13.620  13.691   0.427
 6695SOL    HW121917  13.588  13.631   0.494
 6695SOL    HW221918  13.546  13.702   0.367
 6696SOL     OW21919   7.014   0.148  10.844
 6696SOL    HW121920   7.051   0.083  10.785
 6696SOL    HW221921   7.082   0.216  10.851
 6697SOL     OW21922   4.299   2.980   6.595
 6697SOL    HW121923   4.256   2.899   6.620
 6697SOL    HW221924   4.371   2.953   6.538
 6698SOL     OW21925   0.624   4.109  13.726
 6698SOL    HW121926   0.720   4.114  13.726
 6698SOL    HW221927   0.604   4.038  13.665
 6699SOL     OW21928  11.272   4.295   2.742
 6699SOL    HW121929  11.344   4.330   2.691
 6699SOL    HW221930  11.261   4.205   2.711
 6700SOL     OW21931   8.038   0.679   0.688
 6700SOL    HW121932   8.034   0.614   0.618
 6700SOL    HW221933   8.096   0.748   0.655
 6701SOL     OW21934   7.828   7.838  11.717
 6701SOL    HW121935   7.813   7.783  11.794
 6701SOL    HW221936   7.782   7.919  11.737
 6702SOL     OW21937  12.574  13.165   0.636
 6702SOL    HW121938  12.496  13.174   0.581
 6702SOL    HW221939  12.638  13.121   0.579
 6703SOL     OW21940   3.527   0.835   7.826
 6703SOL    HW121941   3.571   0.916   7.849
 6703SOL    HW221942   3.456   0.826   7.890
 6704SOL     OW21943   5.440  11.594   6.889
 6704SOL    HW121944   5.467  11.610   6.979
 6704SOL    HW221945   5.474  11.507   6.868
 6705SOL     OW21946  10.010  14.072   0.909
 6705SOL    HW121947  10.022  14.116   0.825
 6705SOL    HW221948   9.984  14.142   0.969
 6706SOL     OW21949  13.700   3.940  11.474
 6706SOL    HW121950  13.719   3.987  11.555
 6706SOL    HW221951  13.718   4.004  11.405
 6707SOL     OW21952   4.396   6.129   3.298
 6707SOL    HW121953   4.357   6.140   3.384
 6707SOL    HW221954   4.413   6.218   3.268
 6708SOL     OW21955   6.445   6.953  14.571
 6708SOL    HW121956   6.478   6.957  14.481
 6708SOL    HW221957   6.387   6.876  14.571
 6709SOL     OW21958   7.959   0.138   2.700
 6709SOL    HW121959   7.890   0.182   2.651
 6709SOL    HW221960   7.914   0.077   2.757
 6710SOL     OW21961  11.950   6.683   5.925
 6710SOL    HW121962  11.931   6.720   6.011
 6710SOL    HW221963  12.012   6.745   5.885
 6711SOL     OW21964   6.103   0.017   0.323
 6711SOL    HW121965   6.196   0.038   0.325
 6711SOL    HW221966   6.076   0.019   0.415
 6712SOL     OW21967   7.610  10.099   0.081
 6712SOL    HW121968   7.656  10.045   0.145
 6712SOL    HW221969   7.618  10.050  14.881
 6713SOL     OW21970  10.097   5.172  13.624
 6713SOL    HW121971  10.167   5.230  13.654
 6713SOL    HW221972  10.020   5.198  13.675
 6714SOL     OW21973   1.733   0.920   9.529
 6714SOL    HW121974   1.790   0.978   9.579
 6714SOL    HW221975   1.793   0.863   9.480
 6715SOL     OW21976   2.755   1.354   1.415
 6715SOL    HW121977   2.711   1.414   1.475
 6715SOL    HW221978   2.848   1.375   1.425
 6716SOL     OW21979   1.641  12.555  14.295
 6716SOL    HW121980   1.713  12.512  14.249
 6716SOL    HW221981   1.562  12.513  14.262
 6717SOL     OW21982   3.500  12.120   2.534
 6717SOL    HW121983   3.557  12.044   2.521
 6717SOL    HW221984   3.551  12.194   2.503
 6718SOL     OW21985   2.795  14.136   5.682
 6718SOL    HW121986   2.722  14.101   5.631
 6718SOL    HW221987   2.811  14.071   5.750
 6719SOL     OW21988  12.225   5.973   2.655
 6719SOL    HW121989  12.250   5.975   2.562
 6719SOL    HW221990  12.198   5.883   2.670
 6720SOL     OW21991  13.102   4.420  14.865
 6720SOL    HW121992  13.036   4.485  14.844
 6720SOL    HW221993  13.055   4.336  14.862
 6721SOL     OW21994   4.481  10.742   8.275
 6721SOL    HW121995   4.568  10.756   8.236
 6721SOL    HW221996   4.458  10.827   8.312
 6722SOL     OW21997   9.984  10.713  10.177
 6722SOL    HW121998   9.951  10.736  10.091
 6722SOL    HW221999  10.073  10.747  10.179
 6723SOL     OW22000   8.475  12.173   6.510
 6723SOL    HW122001   8.490  12.103   6.574
 6723SOL    HW222002   8.418  12.134   6.444
 6724SOL     OW22003  14.834  11.785   5.269
 6724SOL    HW122004  14.851  11.808   5.360
 6724SOL    HW222005   0.007  11.845   5.219
 6725SOL     OW22006   8.614   2.714  11.391
 6725SOL    HW122007   8.582   2.803  11.376
 6725SOL    HW222008   8.686   2.703  11.330
 6726SOL     OW22009   9.870  11.106  11.271
 6726SOL    HW122010   9.944  11.049  11.250
 6726SOL    HW222011   9.845  11.079  11.359
 6727SOL     OW22012   7.827   6.612   7.318
 6727SOL    HW122013   7.853   6.696   7.280
 6727SOL    HW222014   7.739   6.628   7.352
 6728SOL     OW22015   1.255   9.622   0.901
 6728SOL    HW122016   1.294   9.539   0.872
 6728SOL    HW222017   1.183   9.596   0.958
 6729SOL     OW22018  10.153  10.388  11.325
 6729SOL    HW122019  10.138  10.298  11.296
 6729SOL    HW222020  10.094  10.399  11.400
 6730SOL     OW22021   6.418   5.278   4.701
 6730SOL    HW122022   6.361   5.201   4.697
 6730SOL    HW222023   6.387   5.334   4.630
 6731SOL     OW22024   7.861   8.263   9.931
 6731SOL    HW122025   7.767   8.249   9.944
 6731SOL    HW222026   7.900   8.242  10.016
 6732SOL     OW22027   1.294  14.882  14.464
 6732SOL    HW122028   1.262  14.826  14.535
 6732SOL    HW222029   1.251  14.848  14.386
 6733SOL     OW22030   9.416   4.150  13.690
 6733SOL    HW122031   9.415   4.175  13.598
 6733SOL    HW222032   9.440   4.231  13.736
 6734SOL     OW22033  10.983   4.657   0.592
 6734SOL    HW122034  10.985   4.753   0.598
 6734SOL    HW222035  10.891   4.634   0.600
 6735SOL     OW22036   0.178   5.202   4.242
 6735SOL    HW122037   0.181   5.273   4.178
 6735SOL    HW222038   0.098   5.217   4.291
 6736SOL     OW22039   7.227  10.410  13.010
 6736SOL    HW122040   7.244  10.500  12.981
 6736SOL    HW222041   7.247  10.357  12.933
 6737SOL     OW22042   9.512  11.787   8.584
 6737SOL    HW122043   9.566  11.840   8.526
 6737SOL    HW222044   9.445  11.847   8.617
 6738SOL     OW22045   9.559  10.525  10.223
 6738SOL    HW122046   9.508  10.551  10.300
 6738SOL    HW222047   9.562  10.604  10.169
 6739SOL     OW22048   8.828   1.931   0.908
 6739SOL    HW122049   8.835   1.842   0.872
 6739SOL    HW222050   8.903   1.978   0.871
 6740SOL     OW22051   4.122   2.354  10.596
 6740SOL    HW122052   4.122   2.328  10.688
 6740SOL    HW222053   4.208   2.394  10.582
 6741SOL     OW22054   6.633   9.323   0.737
 6741SOL    HW122055   6.604   9.252   0.680
 6741SOL    HW222056   6.666   9.279   0.815
 6742SOL     OW22057   8.197   8.802  10.824
 6742SOL    HW122058   8.276   8.836  10.867
 6742SOL    HW222059   8.210   8.707  10.822
 6743SOL     OW22060  11.931   3.428  11.681
 6743SOL    HW122061  12.010   3.381  11.706
 6743SOL    HW222062  11.908   3.392  11.595
 6744SOL     OW22063  11.270  14.695   6.769
 6744SOL    HW122064  11.364  14.691   6.748
 6744SOL    HW222065  11.267  14.732   6.857
 6745SOL     OW22066  11.454  13.353  10.745
 6745SOL    HW122067  11.466  13.447  10.762
 6745SOL    HW222068  11.380  13.349  10.684
 6746SOL     OW22069  14.491   7.144   0.786
 6746SOL    HW122070  14.475   7.191   0.704
 6746SOL    HW222071  14.481   7.212   0.853
 6747SOL     OW22072   2.196  12.109   5.535
 6747SOL    HW122073   2.291  12.100   5.524
 6747SOL    HW222074   2.184  12.118   5.630
 6748SOL     OW22075   0.296   4.861   4.734
 6748SOL    HW122076   0.358   4.920   4.776
 6748SOL    HW222077   0.350   4.798   4.686
 6749SOL     OW22078  12.099   7.590  14.720
 6749SOL    HW122079  12.018   7.639  14.731
 6749SOL    HW222080  12.140   7.590  14.806
 6750SOL     OW22081  12.959  10.036  10.846
 6750SOL    HW122082  13.034  10.093  10.828
 6750SOL    HW222083  12.998   9.951  10.865
 6751SOL     OW22084   4.845   1.526   7.819
 6751SOL    HW122085   4.927   1.479   7.832
 6751SOL    HW222086   4.849   1.600   7.879
 6752SOL     OW22087  10.888   5.503  12.996
 6752SOL    HW122088  10.982   5.492  12.982
 6752SOL    HW222089  10.878   5.508  13.091
 6753SOL     OW22090   6.590  10.263  13.704
 6753SOL    HW122091   6.550  10.298  13.624
 6753SOL    HW222092   6.655  10.330  13.729
 6754SOL     OW22093   4.578   3.496   9.904
 6754SOL    HW122094   4.660   3.451   9.882
 6754SOL    HW222095   4.513   3.426   9.906
 6755SOL     OW22096   9.153   7.418   6.427
 6755SOL    HW122097   9.059   7.420   6.440
 6755SOL    HW222098   9.189   7.399   6.513
 6756SOL     OW22099   5.521   9.579   1.282
 6756SOL    HW122100   5.429   9.558   1.298
 6756SOL    HW222101   5.547   9.629   1.359
 6757SOL     OW22102   3.983  10.827   5.957
 6757SOL    HW122103   3.939  10.911   5.945
 6757SOL    HW222104   3.960  10.776   5.879
 6758SOL     OW22105   8.782   0.165  10.661
 6758SOL    HW122106   8.844   0.237  10.671
 6758SOL    HW222107   8.698   0.207  10.646
 6759SOL     OW22108   4.273  11.674  12.739
 6759SOL    HW122109   4.295  11.764  12.763
 6759SOL    HW222110   4.350  11.623  12.763
 6760SOL     OW22111  10.741   2.848   8.018
 6760SOL    HW122112  10.688   2.927   8.013
 6760SOL    HW222113  10.805   2.867   8.088
 6761SOL     OW22114   5.794   8.968  13.750
 6761SOL    HW122115   5.793   8.907  13.824
 6761SOL    HW222116   5.744   9.044  13.782
 6762SOL     OW22117  11.070   0.309  11.563
 6762SOL    HW122118  11.005   0.378  11.569
 6762SOL    HW222119  11.151   0.354  11.540
 6763SOL     OW22120   8.264  13.651   4.239
 6763SOL    HW122121   8.218  13.713   4.183
 6763SOL    HW222122   8.317  13.706   4.297
 6764SOL     OW22123  10.040  10.712  13.187
 6764SOL    HW122124  10.103  10.784  13.176
 6764SOL    HW222125  10.001  10.700  13.100
 6765SOL     OW22126   4.951   2.175   3.431
 6765SOL    HW122127   4.928   2.167   3.523
 6765SOL    HW222128   4.928   2.265   3.408
 6766SOL     OW22129   0.353  11.579   2.760
 6766SOL    HW122130   0.278  11.520   2.768
 6766SOL    HW222131   0.397  11.549   2.680
 6767SOL     OW22132   5.124  10.947   4.720
 6767SOL    HW122133   5.113  10.938   4.625
 6767SOL    HW222134   5.041  10.985   4.749
 6768SOL     OW22135  14.482  14.411   5.916
 6768SOL    HW122136  14.484  14.497   5.872
 6768SOL    HW222137  14.473  14.432   6.009
 6769SOL     OW22138   4.202   8.129  11.076
 6769SOL    HW122139   4.128   8.119  11.017
 6769SOL    HW222140   4.279   8.124  11.020
 6770SOL     OW22141  10.288  13.423  11.179
 6770SOL    HW122142  10.295  13.403  11.086
 6770SOL    HW222143  10.222  13.362  11.212
 6771SOL     OW22144   0.034  14.526   5.363
 6771SOL    HW122145   0.118  14.518   5.319
 6771SOL    HW222146   0.055  14.532   5.456
 6772SOL     OW22147   4.197  12.327   7.457
 6772SOL    HW122148   4.211  12.275   7.536
 6772SOL    HW222149   4.280  12.323   7.410
 6773SOL     OW22150  13.749   9.399   6.353
 6773SOL    HW122151  13.678   9.425   6.294
 6773SOL    HW222152  13.770   9.310   6.326
 6774SOL     OW22153   3.446   2.087  10.880
 6774SOL    HW122154   3.451   1.998  10.913
 6774SOL    HW222155   3.481   2.082  10.792
 6775SOL     OW22156   8.484   8.068  11.931
 6775SOL    HW122157   8.536   8.149  11.932
 6775SOL    HW222158   8.493   8.035  11.842
 6776SOL     OW22159   5.130   5.382   4.694
 6776SOL    HW122160   5.197   5.324   4.657
 6776SOL    HW222161   5.179   5.441   4.752
 6777SOL     OW22162  11.352   0.174   9.430
 6777SOL    HW122163  11.409   0.251   9.435
 6777SOL    HW222164  11.297   0.181   9.508
 6778SOL     OW22165  10.726  14.617   2.745
 6778SOL    HW122166  10.701  14.529   2.720
 6778SOL    HW222167  10.724  14.667   2.663
 6779SOL     OW22168   8.672   8.668   6.742
 6779SOL    HW122169   8.757   8.701   6.712
 6779SOL    HW222170   8.687   8.576   6.761
 6780SOL     OW22171  10.614   4.620  11.850
 6780SOL    HW122172  10.609   4.594  11.758
 6780SOL    HW222173  10.528   4.596  11.886
 6781SOL     OW22174   0.267   9.163   9.431
 6781SOL    HW122175   0.270   9.081   9.480
 6781SOL    HW222176   0.213   9.142   9.354
 6782SOL     OW22177   0.212   7.597   8.226
 6782SOL    HW122178   0.301   7.632   8.224
 6782SOL    HW222179   0.157   7.670   8.252
 6783SOL     OW22180  11.501   9.785   8.535
 6783SOL    HW122181  11.513   9.823   8.448
 6783SOL    HW222182  11.506   9.690   8.521
 6784SOL     OW22183   8.440  14.707   7.602
 6784SOL    HW122184   8.510  14.672   7.657
 6784SOL    HW222185   8.470  14.690   7.512
 6785SOL     OW22186   2.081   4.272  11.902
 6785SOL    HW122187   1.988   4.287  11.885
 6785SOL    HW222188   2.096   4.182  11.876
 6786SOL     OW22189  12.678   4.998   4.430
 6786SOL    HW122190  12.756   4.945   4.413
 6786SOL    HW222191  12.678   5.064   4.360
 6787SOL     OW22192   2.160   3.453   5.727
 6787SOL    HW122193   2.108   3.482   5.802
 6787SOL    HW222194   2.119   3.370   5.701
 6788SOL     OW22195   1.977   1.449  13.205
 6788SOL    HW122196   1.920   1.489  13.140
 6788SOL    HW222197   1.977   1.356  13.182
 6789SOL     OW22198   9.900   1.100   4.738
 6789SOL    HW122199   9.949   1.029   4.778
 6789SOL    HW222200   9.844   1.057   4.673
 6790SOL     OW22201  10.094   4.350   3.648
 6790SOL    HW122202  10.050   4.396   3.577
 6790SOL    HW222203  10.094   4.413   3.721
 6791SOL     OW22204   0.085   8.902   0.647
 6791SOL    HW122205   0.054   8.910   0.557
 6791SOL    HW222206   0.059   8.984   0.689
 6792SOL     OW22207   0.919   7.774   3.188
 6792SOL    HW122208   0.960   7.689   3.205
 6792SOL    HW222209   0.933   7.824   3.269
 6793SOL     OW22210   4.971   5.382   1.629
 6793SOL    HW122211   4.880   5.378   1.600
 6793SOL    HW222212   4.991   5.293   1.658
 6794SOL     OW22213   0.226  13.329   2.326
 6794SOL    HW122214   0.250  13.398   2.388
 6794SOL    HW222215   0.299  13.267   2.330
 6795SOL     OW22216   7.306   1.471  11.707
 6795SOL    HW122217   7.270   1.552  11.669
 6795SOL    HW222218   7.254   1.401  11.667
 6796SOL     OW22219  10.752   8.818   8.268
 6796SOL    HW122220  10.835   8.845   8.229
 6796SOL    HW222221  10.720   8.748   8.211
 6797SOL     OW22222   4.219   2.699  14.145
 6797SOL    HW122223   4.255   2.610  14.138
 6797SOL    HW222224   4.254   2.732  14.227
 6798SOL     OW22225  14.321   3.790  11.851
 6798SOL    HW122226  14.268   3.828  11.781
 6798SOL    HW222227  14.265   3.790  11.928
 6799SOL     OW22228   8.727   2.754   5.205
 6799SOL    HW122229   8.702   2.715   5.289
 6799SOL    HW222230   8.670   2.830   5.196
 6800SOL     OW22231   9.608   6.597   4.321
 6800SOL    HW122232   9.689   6.554   4.350
 6800SOL    HW222233   9.539   6.558   4.376
 6801SOL     OW22234   1.979  11.007   0.809
 6801SOL    HW122235   2.040  10.993   0.735
 6801SOL    HW222236   1.892  11.001   0.770
 6802SOL     OW22237   9.409  10.110  13.129
 6802SOL    HW122238   9.387  10.019  13.151
 6802SOL    HW222239   9.363  10.126  13.047
 6803SOL     OW22240   9.902   8.854   7.599
 6803SOL    HW122241   9.850   8.791   7.649
 6803SOL    HW222242   9.993   8.829   7.616
 6804SOL     OW22243   0.840   3.315   7.638
 6804SOL    HW122244   0.758   3.354   7.665
 6804SOL    HW222245   0.891   3.307   7.718
 6805SOL     OW22246   9.235   5.672   7.927
 6805SOL    HW122247   9.181   5.744   7.959
 6805SOL    HW222248   9.188   5.641   7.849
 6806SOL     OW22249  13.375  14.254  12.399
 6806SOL    HW122250  13.319  14.179  12.376
 6806SOL    HW222251  13.407  14.234  12.486
 6807SOL     OW22252   0.764   3.792  10.284
 6807SOL    HW122253   0.722   3.878  10.293
 6807SOL    HW222254   0.711   3.734  10.338
 6808SOL     OW22255   7.407   8.308  13.687
 6808SOL    HW122256   7.327   8.274  13.728
 6808SOL    HW222257   7.388   8.309  13.593
 6809SOL     OW22258   3.595  13.136  13.961
 6809SOL    HW122259   3.552  13.208  14.007
 6809SOL    HW222260   3.684  13.168  13.943
 6810SOL     OW22261  13.944  14.252  14.474
 6810SOL    HW122262  13.920  14.211  14.391
 6810SOL    HW222263  13.878  14.222  14.536
 6811SOL     OW22264   1.976  11.829   8.641
 6811SOL    HW122265   1.980  11.844   8.547
 6811SOL    HW222266   1.966  11.735   8.651
 6812SOL     OW22267   6.059   6.787   0.492
 6812SOL    HW122268   6.142   6.831   0.473
 6812SOL    HW222269   6.056   6.783   0.587
 6813SOL     OW22270  14.415   8.915   7.958
 6813SOL    HW122271  14.387   8.956   7.877
 6813SOL    HW222272  14.440   8.826   7.932
 6814SOL     OW22273   8.078   6.910   4.708
 6814SOL    HW122274   7.984   6.896   4.709
 6814SOL    HW222275   8.109   6.864   4.630
 6815SOL     OW22276   8.781   0.853   7.351
 6815SOL    HW122277   8.868   0.890   7.333
 6815SOL    HW222278   8.799   0.769   7.393
 6816SOL     OW22279   5.591   7.364   8.569
 6816SOL    HW122280   5.569   7.446   8.614
 6816SOL    HW222281   5.683   7.348   8.592
 6817SOL     OW22282   1.042   7.416   2.899
 6817SOL    HW122283   0.959   7.457   2.875
 6817SOL    HW222284   1.019   7.357   2.970
 6818SOL     OW22285   0.160  12.859  11.008
 6818SOL    HW122286   0.205  12.806  11.074
 6818SOL    HW222287   0.143  12.942  11.051
 6819SOL     OW22288   4.659   0.521   1.480
 6819SOL    HW122289   4.678   0.566   1.562
 6819SOL    HW222290   4.652   0.591   1.415
 6820SOL     OW22291   3.579   1.158   6.779
 6820SOL    HW122292   3.602   1.075   6.819
 6820SOL    HW222293   3.592   1.145   6.685
 6821SOL     OW22294   9.903   1.235   8.888
 6821SOL    HW122295   9.937   1.217   8.801
 6821SOL    HW222296   9.872   1.326   8.883
 6822SOL     OW22297   2.267   4.808  10.248
 6822SOL    HW122298   2.268   4.904  10.251
 6822SOL    HW222299   2.287   4.787  10.156
 6823SOL     OW22300   3.763   9.489   5.538
 6823SOL    HW122301   3.838   9.490   5.478
 6823SOL    HW222302   3.767   9.574   5.583
 6824SOL     OW22303   3.899   1.576   5.041
 6824SOL    HW122304   3.881   1.497   4.991
 6824SOL    HW222305   3.969   1.551   5.102
 6825SOL     OW22306   7.492   9.261   4.730
 6825SOL    HW122307   7.425   9.204   4.768
 6825SOL    HW222308   7.496   9.236   4.638
 6826SOL     OW22309   0.216  11.095  11.139
 6826SOL    HW122310   0.274  11.024  11.112
 6826SOL    HW222311   0.235  11.108  11.232
 6827SOL     OW22312  10.943   3.295   8.190
 6827SOL    HW122313  10.953   3.265   8.100
 6827SOL    HW222314  10.906   3.383   8.183
 6828SOL     OW22315   3.803   2.118   6.770
 6828SOL    HW122316   3.842   2.198   6.735
 6828SOL    HW222317   3.785   2.064   6.693
 6829SOL     OW22318   6.722   5.682   7.845
 6829SOL    HW122319   6.664   5.757   7.852
 6829SOL    HW222320   6.775   5.684   7.924
 6830SOL     OW22321  14.377   6.640   5.106
 6830SOL    HW122322  14.398   6.549   5.082
 6830SOL    HW222323  14.414   6.651   5.193
 6831SOL     OW22324  11.795   0.462   5.816
 6831SOL    HW122325  11.705   0.479   5.788
 6831SOL    HW222326  11.847   0.524   5.764
 6832SOL     OW22327   3.873   9.290   8.453
 6832SOL    HW122328   3.948   9.297   8.393
 6832SOL    HW222329   3.813   9.230   8.409
 6833SOL     OW22330   4.270  13.973  13.314
 6833SOL    HW122331   4.281  14.054  13.265
 6833SOL    HW222332   4.358  13.934  13.317
 6834SOL     OW22333   9.468  11.322  12.787
 6834SOL    HW122334   9.554  11.351  12.816
 6834SOL    HW222335   9.475  11.227  12.778
 6835SOL     OW22336   5.816   2.648   4.186
 6835SOL    HW122337   5.842   2.704   4.113
 6835SOL    HW222338   5.785   2.568   4.144
 6836SOL     OW22339   1.631  11.264   7.669
 6836SOL    HW122340   1.708  11.273   7.727
 6836SOL    HW222341   1.614  11.354   7.640
 6837SOL     OW22342   1.293   4.888   3.989
 6837SOL    HW122343   1.334   4.973   3.977
 6837SOL    HW222344   1.215   4.906   4.041
 6838SOL     OW22345  13.196   8.936   5.247
 6838SOL    HW122346  13.233   8.878   5.314
 6838SOL    HW222347  13.272   8.973   5.203
 6839SOL     OW22348   2.896  12.868  10.064
 6839SOL    HW122349   2.904  12.935  10.132
 6839SOL    HW222350   2.977  12.818  10.069
 6840SOL     OW22351   7.940   2.540   6.291
 6840SOL    HW122352   7.968   2.485   6.365
 6840SOL    HW222353   8.000   2.518   6.220
 6841SOL     OW22354   7.097   0.066   4.212
 6841SOL    HW122355   7.111   0.061   4.307
 6841SOL    HW222356   7.161   0.130   4.181
 6842SOL     OW22357   8.782   4.650  13.257
 6842SOL    HW122358   8.735   4.727  13.289
 6842SOL    HW222359   8.787   4.663  13.162
 6843SOL     OW22360   8.888   9.278   5.797
 6843SOL    HW122361   8.812   9.232   5.760
 6843SOL    HW222362   8.910   9.228   5.876
 6844SOL     OW22363   1.505   4.469   3.818
 6844SOL    HW122364   1.431   4.529   3.828
 6844SOL    HW222365   1.581   4.526   3.807
 6845SOL     OW22366  10.191   1.285   2.523
 6845SOL    HW122367  10.166   1.337   2.600
 6845SOL    HW222368  10.280   1.314   2.504
 6846SOL     OW22369   0.381   3.391   1.814
 6846SOL    HW122370   0.383   3.466   1.874
 6846SOL    HW222371   0.288   3.367   1.809
 6847SOL     OW22372  14.871   7.348  14.309
 6847SOL    HW122373  14.862   7.334  14.403
 6847SOL    HW222374   0.004   7.261  14.273
 6848SOL     OW22375  13.732  12.456   2.855
 6848SOL    HW122376  13.719  12.542   2.897
 6848SOL    HW222377  13.682  12.462   2.774
 6849SOL     OW22378   7.848   1.355   4.543
 6849SOL    HW122379   7.859   1.313   4.629
 6849SOL    HW222380   7.816   1.443   4.564
 6850SOL     OW22381   7.863   3.220   7.016
 6850SOL    HW122382   7.859   3.236   7.111
 6850SOL    HW222383   7.956   3.208   6.998
 6851SOL     OW22384   3.517   4.231  11.366
 6851SOL    HW122385   3.601   4.240  11.321
 6851SOL    HW222386   3.467   4.308  11.338
 6852SOL     OW22387   5.462   6.620  14.246
 6852SOL    HW122388   5.385   6.677  14.242
 6852SOL    HW222389   5.446   6.554  14.179
 6853SOL     OW22390  10.338   6.936   6.711
 6853SOL    HW122391  10.361   7.023   6.744
 6853SOL    HW222392  10.405   6.917   6.645
 6854SOL     OW22393   8.076  12.005   2.830
 6854SOL    HW122394   8.110  11.990   2.918
 6854SOL    HW222395   8.142  11.967   2.772
 6855SOL     OW22396   1.386   2.516  12.918
 6855SOL    HW122397   1.311   2.456  12.918
 6855SOL    HW222398   1.381   2.560  12.834
 6856SOL     OW22399   4.869   5.582   5.778
 6856SOL    HW122400   4.896   5.500   5.738
 6856SOL    HW222401   4.797   5.558   5.836
 6857SOL     OW22402   6.654   0.121   7.378
 6857SOL    HW122403   6.707   0.051   7.417
 6857SOL    HW222404   6.594   0.075   7.319
 6858SOL     OW22405   0.408  11.255   8.455
 6858SOL    HW122406   0.451  11.233   8.538
 6858SOL    HW222407   0.457  11.330   8.422
 6859SOL     OW22408   4.794   2.431   0.497
 6859SOL    HW122409   4.828   2.343   0.513
 6859SOL    HW222410   4.833   2.457   0.413
 6860SOL     OW22411  11.456   2.201   7.148
 6860SOL    HW122412  11.379   2.172   7.195
 6860SOL    HW222413  11.503   2.120   7.126
 6861SOL     OW22414   7.864  14.548   7.480
 6861SOL    HW122415   7.958  14.531   7.472
 6861SOL    HW222416   7.826  14.513   7.400
 6862SOL     OW22417  11.495   5.065   3.018
 6862SOL    HW122418  11.461   5.031   3.101
 6862SOL    HW222419  11.453   5.011   2.951
 6863SOL     OW22420   6.700   5.923   1.697
 6863SOL    HW122421   6.625   5.866   1.678
 6863SOL    HW222422   6.673   6.009   1.667
 6864SOL     OW22423   8.084  13.088  13.718
 6864SOL    HW122424   8.037  13.089  13.801
 6864SOL    HW222425   8.016  13.074  13.652
 6865SOL     OW22426   2.781   2.905   2.845
 6865SOL    HW122427   2.722   2.973   2.878
 6865SOL    HW222428   2.856   2.906   2.905
 6866SOL     OW22429   8.950   8.857  11.845
 6866SOL    HW122430   8.884   8.921  11.869
 6866SOL    HW222431   9.031   8.908  11.836
 6867SOL     OW22432   0.246   1.500   1.386
 6867SOL    HW122433   0.263   1.426   1.328
 6867SOL    HW222434   0.179   1.551   1.341
 6868SOL     OW22435   3.276   3.151  14.273
 6868SOL    HW122436   3.221   3.164  14.350
 6868SOL    HW222437   3.319   3.236  14.260
 6869SOL     OW22438  13.483   0.145  14.328
 6869SOL    HW122439  13.575   0.173  14.324
 6869SOL    HW222440  13.437   0.208  14.273
 6870SOL     OW22441   6.346   3.649  10.534
 6870SOL    HW122442   6.375   3.733  10.571
 6870SOL    HW222443   6.426   3.599  10.524
 6871SOL     OW22444   4.644   2.020   0.503
 6871SOL    HW122445   4.623   1.946   0.560
 6871SOL    HW222446   4.737   2.009   0.483
 6872SOL     OW22447   0.777  14.176   5.331
 6872SOL    HW122448   0.763  14.135   5.416
 6872SOL    HW222449   0.832  14.252   5.349
 6873SOL     OW22450   2.947   5.108   5.390
 6873SOL    HW122451   3.020   5.127   5.449
 6873SOL    HW222452   2.965   5.021   5.356
 6874SOL     OW22453  10.139   1.528   1.790
 6874SOL    HW122454  10.098   1.580   1.859
 6874SOL    HW222455  10.069   1.471   1.758
 6875SOL     OW22456   0.543  10.577  10.978
 6875SOL    HW122457   0.605  10.575  10.905
 6875SOL    HW222458   0.457  10.582  10.936
 6876SOL     OW22459   1.097   0.509  14.415
 6876SOL    HW122460   1.072   0.541  14.502
 6876SOL    HW222461   1.063   0.575  14.355
 6877SOL     OW22462   5.145   8.015   6.759
 6877SOL    HW122463   5.150   8.093   6.814
 6877SOL    HW222464   5.165   7.943   6.818
 6878SOL     OW22465   6.898   2.180   1.129
 6878SOL    HW122466   6.958   2.223   1.189
 6878SOL    HW222467   6.947   2.172   1.047
 6879SOL     OW22468   2.893   0.647   8.549
 6879SOL    HW122469   2.959   0.578   8.547
 6879SOL    HW222470   2.811   0.601   8.567
 6880SOL     OW22471  12.521  13.103  12.036
 6880SOL    HW122472  12.528  13.147  11.951
 6880SOL    HW222473  12.521  13.174  12.100
 6881SOL     OW22474  11.061   6.430   1.574
 6881SOL    HW122475  11.122   6.409   1.645
 6881SOL    HW222476  11.081   6.366   1.506
 6882SOL     OW22477   7.005   1.140   2.912
 6882SOL    HW122478   7.012   1.098   2.826
 6882SOL    HW222479   7.043   1.076   2.973
 6883SOL     OW22480  13.194   4.618  14.286
 6883SOL    HW122481  13.212   4.598  14.378
 6883SOL    HW222482  13.108   4.578  14.270
 6884SOL     OW22483  10.756  10.273   2.111
 6884SOL    HW122484  10.841  10.314   2.129
 6884SOL    HW222485  10.760  10.251   2.018
 6885SOL     OW22486   1.874   3.122   1.071
 6885SOL    HW122487   1.952   3.066   1.072
 6885SOL    HW222488   1.803   3.064   1.100
 6886SOL     OW22489   8.098   9.142  10.511
 6886SOL    HW122490   8.052   9.076  10.563
 6886SOL    HW222491   8.030   9.181  10.456
 6887SOL     OW22492  11.029   0.142   3.127
 6887SOL    HW122493  11.043   0.049   3.109
 6887SOL    HW222494  11.071   0.157   3.212
 6888SOL     OW22495   9.495  10.514   4.979
 6888SOL    HW122496   9.510  10.596   4.931
 6888SOL    HW222497   9.499  10.539   5.071
 6889SOL     OW22498   9.141  11.453  12.416
 6889SOL    HW122499   9.075  11.461  12.347
 6889SOL    HW222500   9.164  11.543  12.438
 6890SOL     OW22501   0.040  11.932  10.615
 6890SOL    HW122502  14.835  11.973  10.621
 6890SOL    HW222503   0.059  11.931  10.522
 6891SOL     OW22504   1.671  11.945   8.060
 6891SOL    HW122505   1.755  11.990   8.068
 6891SOL    HW222506   1.691  11.867   8.008
 6892SOL     OW22507   6.577   4.914   8.759
 6892SOL    HW122508   6.635   4.989   8.759
 6892SOL    HW222509   6.519   4.928   8.834
 6893SOL     OW22510  12.015   5.697   7.978
 6893SOL    HW122511  12.094   5.717   7.929
 6893SOL    HW222512  11.947   5.686   7.911
 6894SOL     OW22513  12.345   4.372   0.380
 6894SOL    HW122514  12.431   4.333   0.395
 6894SOL    HW222515  12.323   4.414   0.463
 6895SOL     OW22516  12.592   1.908   2.464
 6895SOL    HW122517  12.537   1.967   2.412
 6895SOL    HW222518  12.657   1.876   2.401
 6896SOL     OW22519   5.708  10.913   5.317
 6896SOL    HW122520   5.782  10.958   5.277
 6896SOL    HW222521   5.649  10.983   5.346
 6897SOL     OW22522  14.720   8.464  14.147
 6897SOL    HW122523  14.787   8.400  14.125
 6897SOL    HW222524  14.650   8.449  14.084
 6898SOL     OW22525   5.668   8.142   7.130
 6898SOL    HW122526   5.648   8.075   7.064
 6898SOL    HW222527   5.697   8.218   7.079
 6899SOL     OW22528  11.059   3.497   6.267
 6899SOL    HW122529  11.151   3.488   6.240
 6899SOL    HW222530  11.061   3.482   6.362
 6900SOL     OW22531  11.722  14.255   4.673
 6900SOL    HW122532  11.707  14.161   4.681
 6900SOL    HW222533  11.813  14.267   4.700
 6901SOL     OW22534  10.103  12.902  12.955
 6901SOL    HW122535  10.117  12.963  13.028
 6901SOL    HW222536  10.158  12.827  12.975
 6902SOL     OW22537   6.858  14.753  13.536
 6902SOL    HW122538   6.859  14.742  13.631
 6902SOL    HW222539   6.930  14.813  13.518
 6903SOL     OW22540   0.469  13.799   9.418
 6903SOL    HW122541   0.404  13.821   9.351
 6903SOL    HW222542   0.531  13.872   9.416
 6904SOL     OW22543   6.372  14.742   3.661
 6904SOL    HW122544   6.285  14.764   3.628
 6904SOL    HW222545   6.355  14.687   3.738
 6905SOL     OW22546  11.690   7.192  10.714
 6905SOL    HW122547  11.780   7.198  10.682
 6905SOL    HW222548  11.696   7.211  10.807
 6906SOL     OW22549  12.399  13.364  12.163
 6906SOL    HW122550  12.470  13.374  12.227
 6906SOL    HW222551  12.320  13.384  12.212
 6907SOL     OW22552   3.583   1.839   0.430
 6907SOL    HW122553   3.491   1.817   0.441
 6907SOL    HW222554   3.584   1.932   0.405
 6908SOL     OW22555   2.791   9.272  11.422
 6908SOL    HW122556   2.866   9.330  11.427
 6908SOL    HW222557   2.817   9.194  11.472
 6909SOL     OW22558   6.937   6.360   2.448
 6909SOL    HW122559   6.998   6.428   2.475
 6909SOL    HW222560   6.985   6.307   2.386
 6910SOL     OW22561  12.749   0.489   2.945
 6910SOL    HW122562  12.702   0.556   2.895
 6910SOL    HW222563  12.758   0.416   2.884
 6911SOL     OW22564   3.731   6.419   5.183
 6911SOL    HW122565   3.729   6.513   5.199
 6911SOL    HW222566   3.648   6.386   5.216
 6912SOL     OW22567  14.257   6.509  14.709
 6912SOL    HW122568  14.254   6.500  14.804
 6912SOL    HW222569  14.285   6.599  14.694
 6913SOL     OW22570   1.497  13.843   1.235
 6913SOL    HW122571   1.591  13.861   1.236
 6913SOL    HW222572   1.468  13.873   1.148
 6914SOL     OW22573  10.168   5.227   3.841
 6914SOL    HW122574  10.150   5.163   3.773
 6914SOL    HW222575  10.092   5.285   3.842
 6915SOL     OW22576  12.662   8.805   6.009
 6915SOL    HW122577  12.720   8.790   5.934
 6915SOL    HW222578  12.584   8.845   5.971
 6916SOL     OW22579   9.446   6.443  14.002
 6916SOL    HW122580   9.470   6.429  13.911
 6916SOL    HW222581   9.389   6.370  14.024
 6917SOL     OW22582   1.250   3.508   7.296
 6917SOL    HW122583   1.286   3.434   7.247
 6917SOL    HW222584   1.316   3.577   7.288
 6918SOL     OW22585  10.269  10.129   3.914
 6918SOL    HW122586  10.355  10.104   3.947
 6918SOL    HW222587  10.207  10.089   3.976
 6919SOL     OW22588  10.302   3.799   9.475
 6919SOL    HW122589  10.312   3.725   9.415
 6919SOL    HW222590  10.211   3.826   9.463
 6920SOL     OW22591   3.124  11.787  12.564
 6920SOL    HW122592   3.104  11.740  12.483
 6920SOL    HW222593   3.216  11.766  12.581
 6921SOL     OW22594   7.091   7.539   9.071
 6921SOL    HW122595   7.005   7.536   9.113
 6921SOL    HW222596   7.088   7.470   9.005
 6922SOL     OW22597   6.999   4.421   8.561
 6922SOL    HW122598   6.926   4.472   8.594
 6922SOL    HW222599   7.072   4.483   8.556
 6923SOL     OW22600   5.400   9.833   2.073
 6923SOL    HW122601   5.318   9.813   2.117
 6923SOL    HW222602   5.379   9.828   1.979
 6924SOL     OW22603   4.988   2.243   8.702
 6924SOL    HW122604   5.000   2.200   8.617
 6924SOL    HW222605   4.948   2.176   8.757
 6925SOL     OW22606   6.057   0.679   0.885
 6925SOL    HW122607   5.992   0.740   0.849
 6925SOL    HW222608   6.079   0.715   0.971
 6926SOL     OW22609   5.446  13.814   8.519
 6926SOL    HW122610   5.365  13.824   8.470
 6926SOL    HW222611   5.509  13.779   8.455
 6927SOL     OW22612   3.900   2.598  12.723
 6927SOL    HW122613   3.985   2.555  12.710
 6927SOL    HW222614   3.922   2.690  12.739
 6928SOL     OW22615   3.501  11.926  10.979
 6928SOL    HW122616   3.414  11.905  11.012
 6928SOL    HW222617   3.486  11.954  10.888
 6929SOL     OW22618  13.330   5.556   1.445
 6929SOL    HW122619  13.331   5.588   1.355
 6929SOL    HW222620  13.280   5.474   1.440
 6930SOL     OW22621   7.219   5.099   0.052
 6930SOL    HW122622   7.285   5.059   0.109
 6930SOL    HW222623   7.262   5.176   0.016
 6931SOL     OW22624  12.252   2.811   2.510
 6931SOL    HW122625  12.288   2.821   2.599
 6931SOL    HW222626  12.208   2.893   2.493
 6932SOL     OW22627   4.143   0.912   3.855
 6932SOL    HW122628   4.188   0.964   3.922
 6932SOL    HW222629   4.143   0.967   3.777
 6933SOL     OW22630   7.737  10.087   9.461
 6933SOL    HW122631   7.720  10.173   9.500
 6933SOL    HW222632   7.689  10.089   9.378
 6934SOL     OW22633   7.180  10.311   0.450
 6934SOL    HW122634   7.203  10.401   0.429
 6934SOL    HW222635   7.107  10.290   0.393
 6935SOL     OW22636  11.476   3.259   3.362
 6935SOL    HW122637  11.457   3.214   3.444
 6935SOL    HW222638  11.564   3.228   3.338
 6936SOL     OW22639   8.512   4.392   3.044
 6936SOL    HW122640   8.560   4.472   3.066
 6936SOL    HW222641   8.477   4.362   3.127
 6937SOL     OW22642   9.970  14.079   5.216
 6937SOL    HW122643   9.972  14.009   5.280
 6937SOL    HW222644   9.982  14.035   5.131
 6938SOL     OW22645   6.972   3.686  10.771
 6938SOL    HW122646   6.951   3.779  10.759
 6938SOL    HW222647   7.067   3.683  10.774
 6939SOL     OW22648   1.502  13.553  14.765
 6939SOL    HW122649   1.519  13.541  14.672
 6939SOL    HW222650   1.489  13.648  14.774
 6940SOL     OW22651   3.726  11.248   4.651
 6940SOL    HW122652   3.641  11.204   4.642
 6940SOL    HW222653   3.790  11.177   4.641
 6941SOL     OW22654   4.734   3.577  10.102
 6941SOL    HW122655   4.646   3.553  10.071
 6941SOL    HW222656   4.784   3.496  10.098
 6942SOL     OW22657  11.868  14.496   5.312
 6942SOL    HW122658  11.932  14.496   5.241
 6942SOL    HW222659  11.885  14.577   5.360
 6943SOL     OW22660  10.928  14.043  14.714
 6943SOL    HW122661  10.976  14.019  14.634
 6943SOL    HW222662  10.856  14.097  14.682
 6944SOL     OW22663   9.122   0.502  10.401
 6944SOL    HW122664   9.030   0.492  10.376
 6944SOL    HW222665   9.132   0.446  10.477
 6945SOL     OW22666   3.751   9.062   1.647
 6945SOL    HW122667   3.666   9.057   1.602
 6945SOL    HW222668   3.809   9.103   1.583
 6946SOL     OW22669  12.088   2.578   1.089
 6946SOL    HW122670  12.039   2.605   1.011
 6946SOL    HW222671  12.168   2.629   1.086
 6947SOL     OW22672  12.347  14.653   7.697
 6947SOL    HW122673  12.259  14.651   7.659
 6947SOL    HW222674  12.401  14.602   7.638
 6948SOL     OW22675   3.482   4.956  12.800
 6948SOL    HW122676   3.445   4.901  12.731
 6948SOL    HW222677   3.465   4.907  12.881
 6949SOL     OW22678   2.595   1.115  10.202
 6949SOL    HW122679   2.575   1.208  10.206
 6949SOL    HW222680   2.510   1.072  10.196
 6950SOL     OW22681  12.220  10.367  12.065
 6950SOL    HW122682  12.195  10.324  11.983
 6950SOL    HW222683  12.170  10.320  12.132
 6951SOL     OW22684  12.637  14.285   0.663
 6951SOL    HW122685  12.547  14.311   0.646
 6951SOL    HW222686  12.638  14.190   0.651
 6952SOL     OW22687   2.897  11.397   0.640
 6952SOL    HW122688   2.970  11.396   0.579
 6952SOL    HW222689   2.835  11.333   0.605
 6953SOL     OW22690   8.847  11.740   2.248
 6953SOL    HW122691   8.847  11.724   2.342
 6953SOL    HW222692   8.923  11.692   2.215
 6954SOL     OW22693  11.051  10.651  11.385
 6954SOL    HW122694  11.052  10.590  11.311
 6954SOL    HW222695  11.122  10.713  11.366
 6955SOL     OW22696   8.285  14.603   9.385
 6955SOL    HW122697   8.244  14.649   9.459
 6955SOL    HW222698   8.371  14.644   9.377
 6956SOL     OW22699  10.077   9.516  13.674
 6956SOL    HW122700  10.119   9.555  13.751
 6956SOL    HW222701  10.135   9.536  13.601
 6957SOL     OW22702  11.541   1.680  10.964
 6957SOL    HW122703  11.566   1.602  11.013
 6957SOL    HW222704  11.521   1.745  11.031
 6958SOL     OW22705   5.960   6.642   1.723
 6958SOL    HW122706   5.942   6.563   1.774
 6958SOL    HW222707   5.874   6.670   1.691
 6959SOL     OW22708   0.605  13.915   0.537
 6959SOL    HW122709   0.572  13.993   0.495
 6959SOL    HW222710   0.695  13.906   0.505
 6960SOL     OW22711  13.296   8.746  12.593
 6960SOL    HW122712  13.276   8.724  12.502
 6960SOL    HW222713  13.389   8.769  12.592
 6961SOL     OW22714  13.452   0.975   1.494
 6961SOL    HW122715  13.523   0.991   1.556
 6961SOL    HW222716  13.374   1.009   1.537
 6962SOL     OW22717   4.151   2.481   3.279
 6962SOL    HW122718   4.142   2.558   3.334
 6962SOL    HW222719   4.243   2.480   3.253
 6963SOL     OW22720   7.303   2.812   6.356
 6963SOL    HW122721   7.338   2.787   6.441
 6963SOL    HW222722   7.326   2.739   6.298
 6964SOL     OW22723  14.021  14.816  12.275
 6964SOL    HW122724  13.981   0.012  12.236
 6964SOL    HW222725  14.041  14.841  12.365
 6965SOL     OW22726   8.345   0.557   2.450
 6965SOL    HW122727   8.375   0.560   2.541
 6965SOL    HW222728   8.272   0.496   2.450
 6966SOL     OW22729   0.409  14.837   0.279
 6966SOL    HW122730   0.461   0.035   0.269
 6966SOL    HW222731   0.470  14.773   0.316
 6967SOL     OW22732  14.253   4.639  10.916
 6967SOL    HW122733  14.187   4.707  10.898
 6967SOL    HW222734  14.258   4.588  10.836
 6968SOL     OW22735   3.191  12.056   1.640
 6968SOL    HW122736   3.252  11.999   1.688
 6968SOL    HW222737   3.210  12.038   1.547
 6969SOL     OW22738   1.000  12.874  12.401
 6969SOL    HW122739   0.931  12.920  12.354
 6969SOL    HW222740   0.960  12.849  12.484
 6970SOL     OW22741   0.694   8.866   1.152
 6970SOL    HW122742   0.628   8.920   1.108
 6970SOL    HW222743   0.691   8.782   1.106
 6971SOL     OW22744   9.992  11.899   9.944
 6971SOL    HW122745   9.917  11.844   9.924
 6971SOL    HW222746  10.032  11.859  10.022
 6972SOL     OW22747  11.759   3.051   0.915
 6972SOL    HW122748  11.740   3.129   0.966
 6972SOL    HW222749  11.829   3.007   0.964
 6973SOL     OW22750   6.553  11.245   4.374
 6973SOL    HW122751   6.499  11.180   4.329
 6973SOL    HW222752   6.529  11.329   4.334
 6974SOL     OW22753  13.882  14.813  13.007
 6974SOL    HW122754  13.823  14.781  12.938
 6974SOL    HW222755  13.960  14.843  12.960
 6975SOL     OW22756   7.769  14.830   7.997
 6975SOL    HW122757   7.680  14.855   8.021
 6975SOL    HW222758   7.763  14.737   7.976
 6976SOL     OW22759  14.167   5.143   1.233
 6976SOL    HW122760  14.149   5.169   1.324
 6976SOL    HW222761  14.144   5.220   1.182
 6977SOL     OW22762  11.098   4.351  10.044
 6977SOL    HW122763  11.073   4.259  10.049
 6977SOL    HW222764  11.131   4.362   9.955
 6978SOL     OW22765   3.421  14.466   6.436
 6978SOL    HW122766   3.473  14.390   6.463
 6978SOL    HW222767   3.481  14.517   6.381
 6979SOL     OW22768   4.076   6.860  12.732
 6979SOL    HW122769   4.017   6.915  12.680
 6979SOL    HW222770   4.070   6.897  12.821
 6980SOL     OW22771  12.848   0.826   3.900
 6980SOL    HW122772  12.830   0.734   3.882
 6980SOL    HW222773  12.813   0.840   3.988
 6981SOL     OW22774   6.612   1.755  12.222
 6981SOL    HW122775   6.700   1.786  12.243
 6981SOL    HW222776   6.556   1.798  12.287
 6982SOL     OW22777   9.026   5.521   8.347
 6982SOL    HW122778   9.000   5.613   8.339
 6982SOL    HW222779   8.992   5.480   8.267
 6983SOL     OW22780   1.511   5.249   5.925
 6983SOL    HW122781   1.563   5.179   5.965
 6983SOL    HW222782   1.426   5.243   5.969
 6984SOL     OW22783  10.776  13.453   0.103
 6984SOL    HW122784  10.782  13.387   0.034
 6984SOL    HW222785  10.860  13.448   0.150
 6985SOL     OW22786   2.066   1.930   3.455
 6985SOL    HW122787   2.097   2.003   3.510
 6985SOL    HW222788   2.144   1.903   3.406
 6986SOL     OW22789   5.261   2.488   3.094
 6986SOL    HW122790   5.167   2.479   3.104
 6986SOL    HW222791   5.296   2.475   3.183
 6987SOL     OW22792   0.639  13.808   3.904
 6987SOL    HW122793   0.710  13.743   3.906
 6987SOL    HW222794   0.681  13.888   3.872
 6988SOL     OW22795   3.525   7.386   8.515
 6988SOL    HW122796   3.555   7.297   8.501
 6988SOL    HW222797   3.529   7.427   8.429
 6989SOL     OW22798  11.868   2.197  12.804
 6989SOL    HW122799  11.772   2.190  12.802
 6989SOL    HW222800  11.885   2.287  12.831
 6990SOL     OW22801  10.291   7.604  11.930
 6990SOL    HW122802  10.292   7.531  11.991
 6990SOL    HW222803  10.291   7.682  11.986
 6991SOL     OW22804   6.717   6.714   3.441
 6991SOL    HW122805   6.741   6.660   3.365
 6991SOL    HW222806   6.794   6.709   3.498
 6992SOL     OW22807  13.676   9.541   1.199
 6992SOL    HW122808  13.604   9.564   1.257
 6992SOL    HW222809  13.752   9.535   1.257
 6993SOL     OW22810  12.580   7.880   2.830
 6993SOL    HW122811  12.602   7.939   2.902
 6993SOL    HW222812  12.654   7.820   2.825
 6994SOL     OW22813   8.876  10.017   9.094
 6994SOL    HW122814   8.803  10.075   9.074
 6994SOL    HW222815   8.841   9.929   9.084
 6995SOL     OW22816   1.985   5.279  13.217
 6995SOL    HW122817   1.996   5.368  13.250
 6995SOL    HW222818   1.933   5.288  13.138
 6996SOL     OW22819  13.938   4.696  12.288
 6996SOL    HW122820  13.946   4.729  12.378
 6996SOL    HW222821  13.955   4.772  12.233
 6997SOL     OW22822  10.458   8.352  12.462
 6997SOL    HW122823  10.512   8.387  12.391
 6997SOL    HW222824  10.426   8.268  12.428
 6998SOL     OW22825   4.891   8.637  14.363
 6998SOL    HW122826   4.932   8.567  14.312
 6998SOL    HW222827   4.842   8.689  14.299
 6999SOL     OW22828   2.043   7.312   4.204
 6999SOL    HW122829   2.073   7.318   4.295
 6999SOL    HW222830   2.087   7.385   4.160
 7000SOL     OW22831   4.864   1.922   6.664
 7000SOL    HW122832   4.891   1.899   6.752
 7000SOL    HW222833   4.895   1.850   6.609
 7001SOL     OW22834   2.095   4.531   4.330
 7001SOL    HW122835   2.157   4.557   4.398
 7001SOL    HW222836   2.150   4.497   4.260
 7002SOL     OW22837   2.964  10.807  14.539
 7002SOL    HW122838   3.059  10.799  14.551
 7002SOL    HW222839   2.949  10.771  14.451
 7003SOL     OW22840   3.889   8.388  12.334
 7003SOL    HW122841   3.930   8.473  12.319
 7003SOL    HW222842   3.954   8.338  12.383
 7004SOL     OW22843   7.036  11.389   7.638
 7004SOL    HW122844   7.095  11.314   7.653
 7004SOL    HW222845   7.076  11.436   7.565
 7005SOL     OW22846  10.607   1.074  10.288
 7005SOL    HW122847  10.570   0.986  10.286
 7005SOL    HW222848  10.531   1.132  10.284
 7006SOL     OW22849   1.990   2.832   7.260
 7006SOL    HW122850   1.923   2.766   7.276
 7006SOL    HW222851   2.014   2.821   7.168
 7007SOL     OW22852   5.384   3.595   7.788
 7007SOL    HW122853   5.301   3.598   7.834
 7007SOL    HW222854   5.410   3.503   7.792
 7008SOL     OW22855  11.598   7.559   2.642
 7008SOL    HW122856  11.622   7.644   2.608
 7008SOL    HW222857  11.643   7.496   2.586
 7009SOL     OW22858   8.533   5.368   6.164
 7009SOL    HW122859   8.440   5.367   6.143
 7009SOL    HW222860   8.564   5.280   6.143
 7010SOL     OW22861   2.954   1.220   0.097
 7010SOL    HW122862   3.048   1.221   0.119
 7010SOL    HW222863   2.911   1.255   0.175
 7011SOL     OW22864   5.201   5.383   2.370
 7011SOL    HW122865   5.190   5.323   2.296
 7011SOL    HW222866   5.284   5.356   2.410
 7012SOL     OW22867   3.785   9.131  13.628
 7012SOL    HW122868   3.866   9.167  13.665
 7012SOL    HW222869   3.762   9.192  13.557
 7013SOL     OW22870  13.340   3.155   0.124
 7013SOL    HW122871  13.276   3.179   0.056
 7013SOL    HW222872  13.320   3.064   0.145
 7014SOL     OW22873   4.386  12.678  14.436
 7014SOL    HW122874   4.451  12.683  14.507
 7014SOL    HW222875   4.409  12.598  14.389
 7015SOL     OW22876   1.847   5.186   2.268
 7015SOL    HW122877   1.858   5.247   2.195
 7015SOL    HW222878   1.918   5.123   2.257
 7016SOL     OW22879   0.634   0.755  10.918
 7016SOL    HW122880   0.664   0.773  10.829
 7016SOL    HW222881   0.585   0.833  10.944
 7017SOL     OW22882   1.172   4.471   9.823
 7017SOL    HW122883   1.094   4.527   9.829
 7017SOL    HW222884   1.161   4.424   9.740
 7018SOL     OW22885  14.024   7.907   4.570
 7018SOL    HW122886  14.039   7.947   4.655
 7018SOL    HW222887  14.111   7.894   4.533
 7019SOL     OW22888   9.570   1.496   9.777
 7019SOL    HW122889   9.545   1.509   9.685
 7019SOL    HW222890   9.521   1.418   9.804
 7020SOL     OW22891   5.769   2.652  11.410
 7020SOL    HW122892   5.724   2.568  11.419
 7020SOL    HW222893   5.778   2.665  11.316
 7021SOL     OW22894   6.424   8.109   9.686
 7021SOL    HW122895   6.340   8.065   9.697
 7021SOL    HW222896   6.482   8.066   9.749
 7022SOL     OW22897   6.883   6.156  10.885
 7022SOL    HW122898   6.960   6.157  10.828
 7022SOL    HW222899   6.867   6.248  10.905
 7023SOL     OW22900   7.093   5.139  10.792
 7023SOL    HW122901   6.997   5.138  10.792
 7023SOL    HW222902   7.117   5.132  10.884
 7024SOL     OW22903   4.085   9.532   1.402
 7024SOL    HW122904   4.172   9.521   1.439
 7024SOL    HW222905   4.032   9.567   1.474
 7025SOL     OW22906  14.504  14.757  11.117
 7025SOL    HW122907  14.532  14.848  11.114
 7025SOL    HW222908  14.569  14.714  11.173
 7026SOL     OW22909   7.453  13.653  10.505
 7026SOL    HW122910   7.464  13.565  10.469
 7026SOL    HW222911   7.462  13.641  10.600
 7027SOL     OW22912   2.579   5.703   4.160
 7027SOL    HW122913   2.637   5.757   4.214
 7027SOL    HW222914   2.495   5.705   4.206
 7028SOL     OW22915   0.625   2.599  14.716
 7028SOL    HW122916   0.626   2.569  14.625
 7028SOL    HW222917   0.543   2.565  14.751
 7029SOL     OW22918   5.724   0.451  12.419
 7029SOL    HW122919   5.689   0.540  12.432
 7029SOL    HW222920   5.766   0.455  12.333
 7030SOL     OW22921   5.016  12.095  11.362
 7030SOL    HW122922   5.047  12.178  11.325
 7030SOL    HW222923   5.050  12.029  11.302
 7031SOL     OW22924   2.919   7.523   1.423
 7031SOL    HW122925   2.851   7.534   1.356
 7031SOL    HW222926   2.871   7.510   1.505
 7032SOL     OW22927  12.683   7.027   3.346
 7032SOL    HW122928  12.743   6.966   3.305
 7032SOL    HW222929  12.608   6.974   3.373
 7033SOL     OW22930   7.330   1.837   8.457
 7033SOL    HW122931   7.404   1.803   8.407
 7033SOL    HW222932   7.253   1.812   8.406
 7034SOL     OW22933   2.510   1.966  12.611
 7034SOL    HW122934   2.579   1.907  12.581
 7034SOL    HW222935   2.556   2.038  12.654
 7035SOL     OW22936   5.609   2.715   3.059
 7035SOL    HW122937   5.698   2.689   3.082
 7035SOL    HW222938   5.563   2.724   3.142
 7036SOL     OW22939   9.756  10.180   6.691
 7036SOL    HW122940   9.726  10.099   6.651
 7036SOL    HW222941   9.766  10.241   6.618
 7037SOL     OW22942   6.953  12.234   1.562
 7037SOL    HW122943   6.871  12.253   1.516
 7037SOL    HW222944   7.018  12.287   1.516
 7038SOL     OW22945  14.803  12.591   3.524
 7038SOL    HW122946  14.735  12.633   3.577
 7038SOL    HW222947  14.795  12.632   3.438
 7039SOL     OW22948   4.311   7.757  13.016
 7039SOL    HW122949   4.404   7.748  13.034
 7039SOL    HW222950   4.281   7.826  13.074
 7040SOL     OW22951   6.897   0.488   4.133
 7040SOL    HW122952   6.852   0.472   4.050
 7040SOL    HW222953   6.856   0.567   4.168
 7041SOL     OW22954   0.571   1.331   4.766
 7041SOL    HW122955   0.582   1.425   4.750
 7041SOL    HW222956   0.650   1.291   4.731
 7042SOL     OW22957   4.178   1.643   8.725
 7042SOL    HW122958   4.238   1.571   8.708
 7042SOL    HW222959   4.092   1.610   8.699
 7043SOL     OW22960   5.808   4.316   6.477
 7043SOL    HW122961   5.736   4.254   6.490
 7043SOL    HW222962   5.850   4.288   6.396
 7044SOL     OW22963   2.731   7.722   6.967
 7044SOL    HW122964   2.768   7.651   6.915
 7044SOL    HW222965   2.707   7.681   7.050
 7045SOL     OW22966   9.693  11.087   3.169
 7045SOL    HW122967   9.729  10.998   3.179
 7045SOL    HW222968   9.599  11.076   3.185
 7046SOL     OW22969   7.571   5.358  12.277
 7046SOL    HW122970   7.659   5.396  12.282
 7046SOL    HW222971   7.549   5.360  12.184
 7047SOL     OW22972   0.763   0.148   9.835
 7047SOL    HW122973   0.819   0.131   9.911
 7047SOL    HW222974   0.726   0.234   9.852
 7048SOL     OW22975   4.524  13.394   0.716
 7048SOL    HW122976   4.433  13.421   0.716
 7048SOL    HW222977   4.569  13.460   0.769
 7049SOL     OW22978   2.893   1.354  14.303
 7049SOL    HW122979   2.848   1.438  14.294
 7049SOL    HW222980   2.964   1.371  14.366
 7050SOL     OW22981  10.798   5.761  11.862
 7050SOL    HW122982  10.780   5.746  11.955
 7050SOL    HW222983  10.832   5.677  11.831
 7051SOL     OW22984  13.666   3.420  12.168
 7051SOL    HW122985  13.677   3.425  12.073
 7051SOL    HW222986  13.603   3.490  12.189
 7052SOL     OW22987  14.509  11.683  14.469
 7052SOL    HW122988  14.571  11.621  14.430
 7052SOL    HW222989  14.454  11.629  14.525
 7053SOL     OW22990   9.710   9.333   0.940
 7053SOL    HW122991   9.754   9.338   0.855
 7053SOL    HW222992   9.616   9.331   0.919
 7054SOL     OW22993  11.296   0.760   3.633
 7054SOL    HW122994  11.302   0.766   3.537
 7054SOL    HW222995  11.324   0.671   3.653
 7055SOL     OW22996  12.432   0.325   3.461
 7055SOL    HW122997  12.400   0.415   3.457
 7055SOL    HW222998  12.450   0.303   3.370
 7056SOL     OW22999   2.733   1.046  12.326
 7056SOL    HW123000   2.776   1.011  12.405
 7056SOL    HW223001   2.796   1.109  12.291
 7057SOL     OW23002   3.537   7.521   4.543
 7057SOL    HW123003   3.571   7.455   4.603
 7057SOL    HW223004   3.532   7.476   4.459
 7058SOL     OW23005  10.971   7.240   9.916
 7058SOL    HW123006  10.890   7.258   9.964
 7058SOL    HW223007  11.015   7.172   9.968
 7059SOL     OW23008  11.511   6.266   4.736
 7059SOL    HW123009  11.480   6.297   4.650
 7059SOL    HW223010  11.472   6.326   4.799
 7060SOL     OW23011   9.808   5.236   6.818
 7060SOL    HW123012   9.718   5.212   6.797
 7060SOL    HW223013   9.822   5.202   6.907
 7061SOL     OW23014   5.511   3.552   6.014
 7061SOL    HW123015   5.536   3.602   5.936
 7061SOL    HW223016   5.415   3.559   6.016
 7062SOL     OW23017  12.881   5.931   3.275
 7062SOL    HW123018  12.899   5.908   3.184
 7062SOL    HW223019  12.955   5.986   3.301
 7063SOL     OW23020   4.206   7.196   2.552
 7063SOL    HW123021   4.200   7.164   2.642
 7063SOL    HW223022   4.249   7.125   2.504
 7064SOL     OW23023  11.546  14.676   6.805
 7064SOL    HW123024  11.577  14.743   6.866
 7064SOL    HW223025  11.617  14.611   6.802
 7065SOL     OW23026   5.863   2.506  10.958
 7065SOL    HW123027   5.849   2.569  10.887
 7065SOL    HW223028   5.885   2.424  10.913
 7066SOL     OW23029  14.004   3.011   2.464
 7066SOL    HW123030  13.985   3.060   2.385
 7066SOL    HW223031  14.068   2.945   2.437
 7067SOL     OW23032   4.971   2.929   8.576
 7067SOL    HW123033   5.014   3.013   8.562
 7067SOL    HW223034   4.880   2.944   8.552
 7068SOL     OW23035  12.051   9.707   5.900
 7068SOL    HW123036  12.106   9.716   5.978
 7068SOL    HW223037  12.053   9.794   5.859
 7069SOL     OW23038   7.189   7.454   3.470
 7069SOL    HW123039   7.216   7.394   3.401
 7069SOL    HW223040   7.159   7.532   3.424
 7070SOL     OW23041  14.028   5.318   7.859
 7070SOL    HW123042  13.983   5.402   7.868
 7070SOL    HW223043  13.959   5.258   7.830
 7071SOL     OW23044   4.685   1.333   1.964
 7071SOL    HW123045   4.733   1.382   2.030
 7071SOL    HW223046   4.723   1.245   1.967
 7072SOL     OW23047  12.617   7.837   3.429
 7072SOL    HW123048  12.614   7.742   3.419
 7072SOL    HW223049  12.528   7.861   3.456
 7073SOL     OW23050   7.300  12.803   2.731
 7073SOL    HW123051   7.384  12.772   2.765
 7073SOL    HW223052   7.250  12.723   2.715
 7074SOL     OW23053   7.113   0.384   4.282
 7074SOL    HW123054   7.160   0.337   4.213
 7074SOL    HW223055   7.040   0.426   4.236
 7075SOL     OW23056  12.291   7.016  11.689
 7075SOL    HW123057  12.291   7.098  11.739
 7075SOL    HW223058  12.201   7.004  11.661
 7076SOL     OW23059   9.501   2.683  10.196
 7076SOL    HW123060   9.532   2.771  10.219
 7076SOL    HW223061   9.578   2.640  10.159
 7077SOL     OW23062   6.978  10.069  11.427
 7077SOL    HW123063   6.893  10.100  11.459
 7077SOL    HW223064   6.965   9.975  11.413
 7078SOL     OW23065   7.623  11.268  11.849
 7078SOL    HW123066   7.537  11.273  11.808
 7078SOL    HW223067   7.609  11.302  11.938
 7079SOL     OW23068   1.648   3.045   2.179
 7079SOL    HW123069   1.703   3.119   2.204
 7079SOL    HW223070   1.559   3.072   2.202
 7080SOL     OW23071   2.079   3.595   3.602
 7080SOL    HW123072   2.054   3.614   3.512
 7080SOL    HW223073   2.012   3.639   3.655
 7081SOL     OW23074   1.743   6.080   6.311
 7081SOL    HW123075   1.658   6.096   6.270
 7081SOL    HW223076   1.721   6.036   6.394
 7082SOL     OW23077   3.951  12.384   5.698
 7082SOL    HW123078   4.019  12.317   5.700
 7082SOL    HW223079   3.868  12.336   5.704
 7083SOL     OW23080   3.202  13.768   8.700
 7083SOL    HW123081   3.280  13.793   8.749
 7083SOL    HW223082   3.141  13.841   8.714
 7084SOL     OW23083   2.976   7.515   5.857
 7084SOL    HW123084   2.921   7.541   5.931
 7084SOL    HW223085   2.919   7.461   5.802
 7085SOL     OW23086   0.001   6.350  11.692
 7085SOL    HW123087  14.860   6.372  11.782
 7085SOL    HW223088   0.050   6.426  11.660
 7086SOL     OW23089  13.210  10.213  13.827
 7086SOL    HW123090  13.256  10.289  13.862
 7086SOL    HW223091  13.165  10.246  13.749
 7087SOL     OW23092   6.791   3.845   3.578
 7087SOL    HW123093   6.868   3.852   3.636
 7087SOL    HW223094   6.819   3.787   3.508
 7088SOL     OW23095   3.969  11.787   7.099
 7088SOL    HW123096   3.896  11.734   7.130
 7088SOL    HW223097   4.045  11.752   7.147
 7089SOL     OW23098  13.601   5.557   5.465
 7089SOL    HW123099  13.591   5.462   5.464
 7089SOL    HW223100  13.544   5.586   5.536
 7090SOL     OW23101   0.406  10.632   0.145
 7090SOL    HW123102   0.495  10.618   0.114
 7090SOL    HW223103   0.351  10.618   0.068
 7091SOL     OW23104   0.483   5.159   0.955
 7091SOL    HW123105   0.515   5.121   1.036
 7091SOL    HW223106   0.490   5.254   0.967
 7092SOL     OW23107   5.866   2.220  14.365
 7092SOL    HW123108   5.837   2.212  14.274
 7092SOL    HW223109   5.876   2.130  14.395
 7093SOL     OW23110   6.770   5.552  11.590
 7093SOL    HW123111   6.782   5.606  11.511
 7093SOL    HW223112   6.773   5.462  11.558
 7094SOL     OW23113  14.566   8.613  11.349
 7094SOL    HW123114  14.633   8.588  11.285
 7094SOL    HW223115  14.606   8.684  11.399
 7095SOL     OW23116   7.477   5.105  10.721
 7095SOL    HW123117   7.480   5.019  10.680
 7095SOL    HW223118   7.463   5.087  10.814
 7096SOL     OW23119  13.589   8.431   4.853
 7096SOL    HW123120  13.529   8.390   4.791
 7096SOL    HW223121  13.570   8.388   4.936
 7097SOL     OW23122   7.365   3.665  11.367
 7097SOL    HW123123   7.279   3.703  11.353
 7097SOL    HW223124   7.403   3.716  11.439
 7098SOL     OW23125   4.611   5.830   8.252
 7098SOL    HW123126   4.625   5.924   8.258
 7098SOL    HW223127   4.637   5.795   8.337
 7099SOL     OW23128  11.024   9.021   8.675
 7099SOL    HW123129  11.041   9.003   8.582
 7099SOL    HW223130  10.965   8.951   8.702
 7100SOL     OW23131  13.496   6.473  13.658
 7100SOL    HW123132  13.569   6.429  13.701
 7100SOL    HW223133  13.420   6.451  13.711
 7101SOL     OW23134   5.495   1.430   6.067
 7101SOL    HW123135   5.497   1.341   6.101
 7101SOL    HW223136   5.451   1.422   5.982
 7102SOL     OW23137   1.514   7.137  14.282
 7102SOL    HW123138   1.602   7.175  14.280
 7102SOL    HW223139   1.514   7.073  14.212
 7103SOL     OW23140   6.168   6.408   2.166
 7103SOL    HW123141   6.235   6.367   2.112
 7103SOL    HW223142   6.212   6.428   2.249
 7104SOL     OW23143  12.838  12.301   9.089
 7104SOL    HW123144  12.833  12.263   9.001
 7104SOL    HW223145  12.828  12.227   9.148
 7105SOL     OW23146   8.731   8.452   9.554
 7105SOL    HW123147   8.636   8.470   9.551
 7105SOL    HW223148   8.771   8.538   9.541
 7106SOL     OW23149   2.423   1.183   0.312
 7106SOL    HW123150   2.493   1.165   0.375
 7106SOL    HW223151   2.449   1.135   0.233
 7107SOL     OW23152   3.492  14.073   4.081
 7107SOL    HW123153   3.542  14.022   4.145
 7107SOL    HW223154   3.472  14.155   4.127
 7108SOL     OW23155   2.169   8.108  12.545
 7108SOL    HW123156   2.115   8.163  12.487
 7108SOL    HW223157   2.255   8.149  12.544
 7109SOL     OW23158   8.889  12.785   4.773
 7109SOL    HW123159   8.871  12.873   4.806
 7109SOL    HW223160   8.870  12.727   4.847
 7110SOL     OW23161  13.679   8.254  13.078
 7110SOL    HW123162  13.693   8.253  12.983
 7110SOL    HW223163  13.670   8.162  13.101
 7111SOL     OW23164   5.969  12.987  11.434
 7111SOL    HW123165   5.890  13.040  11.430
 7111SOL    HW223166   5.945  12.913  11.491
 7112SOL     OW23167   1.174   8.735  11.339
 7112SOL    HW123168   1.136   8.648  11.324
 7112SOL    HW223169   1.264   8.717  11.369
 7113SOL     OW23170   1.343   9.002   7.083
 7113SOL    HW123171   1.406   8.995   7.011
 7113SOL    HW223172   1.396   9.019   7.161
 7114SOL     OW23173  13.332   8.776  14.584
 7114SOL    HW123174  13.344   8.685  14.557
 7114SOL    HW223175  13.403   8.793  14.646
 7115SOL     OW23176   2.501  11.933  13.535
 7115SOL    HW123177   2.564  11.919  13.464
 7115SOL    HW223178   2.426  11.975  13.492
 7116SOL     OW23179   0.838  11.683   9.102
 7116SOL    HW123180   0.779  11.718   9.036
 7116SOL    HW223181   0.858  11.594   9.071
 7117SOL     OW23182   6.635   9.075   2.087
 7117SOL    HW123183   6.659   9.014   2.157
 7117SOL    HW223184   6.567   9.130   2.125
 7118SOL     OW23185   1.214   1.891   8.603
 7118SOL    HW123186   1.282   1.846   8.653
 7118SOL    HW223187   1.182   1.958   8.663
 7119SOL     OW23188  12.924   1.549   3.397
 7119SOL    HW123189  13.003   1.506   3.429
 7119SOL    HW223190  12.942   1.643   3.408
 7120SOL     OW23191   5.325  10.492  11.372
 7120SOL    HW123192   5.256  10.487  11.438
 7120SOL    HW223193   5.355  10.402  11.363
 7121SOL     OW23194  14.641   6.618   0.677
 7121SOL    HW123195  14.718   6.611   0.621
 7121SOL    HW223196  14.640   6.709   0.706
 7122SOL     OW23197   9.300   6.634   7.813
 7122SOL    HW123198   9.326   6.583   7.889
 7122SOL    HW223199   9.216   6.672   7.837
 7123SOL     OW23200   6.298   7.120  12.211
 7123SOL    HW123201   6.297   7.211  12.241
 7123SOL    HW223202   6.324   7.125  12.119
 7124SOL     OW23203   5.837   0.906   7.237
 7124SOL    HW123204   5.924   0.907   7.197
 7124SOL    HW223205   5.777   0.923   7.165
 7125SOL     OW23206   8.546  13.997  10.782
 7125SOL    HW123207   8.636  14.024  10.765
 7125SOL    HW223208   8.493  14.049  10.721
 7126SOL     OW23209   3.242   7.143   6.508
 7126SOL    HW123210   3.208   7.180   6.426
 7126SOL    HW223211   3.183   7.070   6.528
 7127SOL     OW23212   4.192  12.991  12.205
 7127SOL    HW123213   4.160  12.994  12.115
 7127SOL    HW223214   4.265  12.930  12.203
 7128SOL     OW23215  10.253   0.371   5.199
 7128SOL    HW123216  10.297   0.288   5.216
 7128SOL    HW223217  10.232   0.405   5.286
 7129SOL     OW23218   3.362   5.974  10.956
 7129SOL    HW123219   3.336   6.065  10.971
 7129SOL    HW223220   3.405   5.947  11.037
 7130SOL     OW23221   2.674  11.066   1.210
 7130SOL    HW123222   2.624  11.136   1.251
 7130SOL    HW223223   2.609  10.999   1.186
 7131SOL     OW23224   3.569   9.655  14.371
 7131SOL    HW123225   3.611   9.593  14.430
 7131SOL    HW223226   3.531   9.601  14.302
 7132SOL     OW23227   0.320  14.188   5.184
 7132SOL    HW123228   0.387  14.119   5.184
 7132SOL    HW223229   0.271  14.173   5.103
 7133SOL     OW23230   9.483   0.407   2.187
 7133SOL    HW123231   9.449   0.495   2.200
 7133SOL    HW223232   9.429   0.352   2.244
 7134SOL     OW23233   8.970   8.647  14.114
 7134SOL    HW123234   8.936   8.602  14.036
 7134SOL    HW223235   8.920   8.610  14.187
 7135SOL     OW23236  10.750  12.711   3.409
 7135SOL    HW123237  10.762  12.724   3.315
 7135SOL    HW223238  10.791  12.789   3.448
 7136SOL     OW23239   5.807   5.824   6.815
 7136SOL    HW123240   5.882   5.785   6.860
 7136SOL    HW223241   5.754   5.861   6.885
 7137SOL     OW23242   5.845   1.696  12.795
 7137SOL    HW123243   5.916   1.652  12.749
 7137SOL    HW223244   5.782   1.627  12.814
 7138SOL     OW23245   4.053  11.873   8.216
 7138SOL    HW123246   4.126  11.813   8.199
 7138SOL    HW223247   3.987  11.850   8.151
 7139SOL     OW23248  11.647  12.704   8.010
 7139SOL    HW123249  11.556  12.689   7.982
 7139SOL    HW223250  11.700  12.681   7.933
 7140SOL     OW23251  12.673   4.868   2.644
 7140SOL    HW123252  12.701   4.959   2.638
 7140SOL    HW223253  12.721   4.823   2.575
 7141SOL     OW23254   9.779   4.239   9.799
 7141SOL    HW123255   9.825   4.155   9.798
 7141SOL    HW223256   9.830   4.294   9.859
 7142SOL     OW23257   4.752   3.271   7.145
 7142SOL    HW123258   4.834   3.240   7.107
 7142SOL    HW223259   4.692   3.196   7.136
 7143SOL     OW23260   3.978   5.369   0.638
 7143SOL    HW123261   3.945   5.458   0.648
 7143SOL    HW223262   3.902   5.318   0.608
 7144SOL     OW23263  12.238  12.043   5.637
 7144SOL    HW123264  12.212  12.023   5.727
 7144SOL    HW223265  12.252  11.957   5.597
 7145SOL     OW23266   2.524   1.082   6.122
 7145SOL    HW123267   2.522   1.001   6.174
 7145SOL    HW223268   2.435   1.092   6.091
 7146SOL     OW23269  14.041   1.675  13.189
 7146SOL    HW123270  14.056   1.611  13.259
 7146SOL    HW223271  14.114   1.737  13.196
 7147SOL     OW23272  14.086   4.293  13.711
 7147SOL    HW123273  14.121   4.225  13.653
 7147SOL    HW223274  14.015   4.332  13.661
 7148SOL     OW23275   6.213   3.024   9.746
 7148SOL    HW123276   6.126   3.008   9.709
 7148SOL    HW223277   6.265   3.055   9.672
 7149SOL     OW23278   9.843   0.405   2.546
 7149SOL    HW123279   9.864   0.322   2.589
 7149SOL    HW223280   9.897   0.470   2.591
 7150SOL     OW23281   7.611  10.034  11.408
 7150SOL    HW123282   7.670   9.958  11.416
 7150SOL    HW223283   7.666  10.104  11.373
 7151SOL     OW23284  11.481  13.783  10.070
 7151SOL    HW123285  11.462  13.874  10.093
 7151SOL    HW223286  11.452  13.732  10.146
 7152SOL     OW23287   2.378  13.743  14.456
 7152SOL    HW123288   2.361  13.813  14.519
 7152SOL    HW223289   2.407  13.669  14.509
 7153SOL     OW23290   4.494   7.649   4.308
 7153SOL    HW123291   4.405   7.613   4.316
 7153SOL    HW223292   4.539   7.588   4.250
 7154SOL     OW23293   0.689  14.339   6.384
 7154SOL    HW123294   0.719  14.324   6.473
 7154SOL    HW223295   0.742  14.412   6.353
 7155SOL     OW23296   7.130   5.712   9.464
 7155SOL    HW123297   7.063   5.773   9.435
 7155SOL    HW223298   7.086   5.627   9.465
 7156SOL     OW23299   0.264   8.264   7.115
 7156SOL    HW123300   0.282   8.303   7.030
 7156SOL    HW223301   0.201   8.194   7.097
 7157SOL     OW23302  11.789   5.966   1.025
 7157SOL    HW123303  11.875   5.939   1.057
 7157SOL    HW223304  11.743   5.883   1.010
 7158SOL     OW23305   7.567   8.746  11.167
 7158SOL    HW123306   7.571   8.686  11.242
 7158SOL    HW223307   7.523   8.824  11.201
 7159SOL     OW23308   0.943  10.661  13.566
 7159SOL    HW123309   0.910  10.575  13.593
 7159SOL    HW223310   0.865  10.709  13.537
 7160SOL     OW23311   0.711   5.142   1.704
 7160SOL    HW123312   0.780   5.198   1.739
 7160SOL    HW223313   0.696   5.077   1.773
 7161SOL     OW23314   8.668   1.491   1.404
 7161SOL    HW123315   8.710   1.570   1.439
 7161SOL    HW223316   8.741   1.434   1.378
 7162SOL     OW23317   8.443  11.432   2.774
 7162SOL    HW123318   8.414  11.345   2.750
 7162SOL    HW223319   8.390  11.491   2.720
 7163SOL     OW23320  10.053   3.792  13.048
 7163SOL    HW123321  10.129   3.738  13.070
 7163SOL    HW223322  10.070   3.876  13.091
 7164SOL     OW23323  14.230   6.419   9.220
 7164SOL    HW123324  14.244   6.514   9.225
 7164SOL    HW223325  14.147   6.405   9.266
 7165SOL     OW23326   2.114   7.794   3.896
 7165SOL    HW123327   2.030   7.748   3.903
 7165SOL    HW223328   2.145   7.801   3.986
 7166SOL     OW23329   6.328   6.993   7.985
 7166SOL    HW123330   6.356   6.909   8.021
 7166SOL    HW223331   6.406   7.028   7.943
 7167SOL     OW23332   4.914   3.792  10.524
 7167SOL    HW123333   4.864   3.791  10.606
 7167SOL    HW223334   4.881   3.715  10.476
 7168SOL     OW23335   4.800   1.766   2.749
 7168SOL    HW123336   4.826   1.740   2.837
 7168SOL    HW223337   4.881   1.767   2.699
 7169SOL     OW23338   4.081   6.357   8.314
 7169SOL    HW123339   4.160   6.314   8.345
 7169SOL    HW223340   4.015   6.288   8.311
 7170SOL     OW23341  14.687   4.992   8.603
 7170SOL    HW123342  14.730   4.912   8.631
 7170SOL    HW223343  14.686   4.987   8.507
 7171SOL     OW23344   2.756   5.715   6.745
 7171SOL    HW123345   2.769   5.674   6.660
 7171SOL    HW223346   2.663   5.738   6.746
 7172SOL     OW23347   8.076   4.218   5.975
 7172SOL    HW123348   8.112   4.188   5.892
 7172SOL    HW223349   8.090   4.145   6.035
 7173SOL     OW23350  10.212  11.721   9.760
 7173SOL    HW123351  10.145  11.782   9.790
 7173SOL    HW223352  10.281  11.776   9.723
 7174SOL     OW23353   4.614   8.319   4.485
 7174SOL    HW123354   4.709   8.318   4.468
 7174SOL    HW223355   4.580   8.385   4.424
 7175SOL     OW23356   1.394  12.782  11.795
 7175SOL    HW123357   1.371  12.807  11.705
 7175SOL    HW223358   1.483  12.816  11.807
 7176SOL     OW23359   6.440   5.805  10.673
 7176SOL    HW123360   6.513   5.862  10.647
 7176SOL    HW223361   6.445   5.731  10.613
 7177SOL     OW23362   1.910  10.904   5.675
 7177SOL    HW123363   1.839  10.908   5.739
 7177SOL    HW223364   1.985  10.942   5.720
 7178SOL     OW23365   6.238   4.425  11.713
 7178SOL    HW123366   6.247   4.332  11.734
 7178SOL    HW223367   6.316   4.445  11.661
 7179SOL     OW23368   6.106   2.470  11.713
 7179SOL    HW123369   6.193   2.443  11.743
 7179SOL    HW223370   6.048   2.447  11.785
 7180SOL     OW23371   7.999  11.526   5.099
 7180SOL    HW123372   8.030  11.600   5.151
 7180SOL    HW223373   8.075  11.468   5.090
 7181SOL     OW23374  14.424   9.100   4.799
 7181SOL    HW123375  14.423   9.130   4.708
 7181SOL    HW223376  14.509   9.127   4.833
 7182SOL     OW23377   4.715   9.957   9.080
 7182SOL    HW123378   4.723  10.050   9.100
 7182SOL    HW223379   4.755   9.913   9.156
 7183SOL     OW23380  13.143   3.376   2.894
 7183SOL    HW123381  13.085   3.402   2.965
 7183SOL    HW223382  13.221   3.430   2.905
 7184SOL     OW23383  13.601  12.123   7.671
 7184SOL    HW123384  13.603  12.208   7.716
 7184SOL    HW223385  13.660  12.134   7.597
 7185SOL     OW23386   3.250   4.423   6.133
 7185SOL    HW123387   3.285   4.506   6.165
 7185SOL    HW223388   3.234   4.438   6.040
 7186SOL     OW23389  10.903   7.303   4.356
 7186SOL    HW123390  10.864   7.338   4.276
 7186SOL    HW223391  10.919   7.379   4.411
 7187SOL     OW23392  12.790  14.761   7.823
 7187SOL    HW123393  12.697  14.776   7.805
 7187SOL    HW223394  12.795  14.669   7.850
 7188SOL     OW23395   3.892   6.826   2.831
 7188SOL    HW123396   3.828   6.784   2.888
 7188SOL    HW223397   3.912   6.909   2.874
 7189SOL     OW23398   0.822  10.457   5.272
 7189SOL    HW123399   0.839  10.405   5.194
 7189SOL    HW223400   0.840  10.547   5.246
 7190SOL     OW23401   5.772   5.266   8.127
 7190SOL    HW123402   5.785   5.187   8.075
 7190SOL    HW223403   5.843   5.325   8.099
 7191SOL     OW23404   8.362  11.700   9.664
 7191SOL    HW123405   8.427  11.655   9.719
 7191SOL    HW223406   8.329  11.632   9.605
 7192SOL     OW23407   3.402   5.724   6.391
 7192SOL    HW123408   3.426   5.631   6.386
 7192SOL    HW223409   3.407   5.745   6.485
 7193SOL     OW23410   8.514   8.535   7.789
 7193SOL    HW123411   8.582   8.556   7.726
 7193SOL    HW223412   8.496   8.617   7.834
 7194SOL     OW23413   2.983   3.134   1.992
 7194SOL    HW123414   2.898   3.176   1.985
 7194SOL    HW223415   2.982   3.090   2.077
 7195SOL     OW23416  12.327   2.725   8.775
 7195SOL    HW123417  12.320   2.638   8.814
 7195SOL    HW223418  12.274   2.780   8.833
 7196SOL     OW23419   9.890   5.443  13.532
 7196SOL    HW123420   9.974   5.464  13.572
 7196SOL    HW223421   9.908   5.442  13.438
 7197SOL     OW23422   6.212   9.193   2.430
 7197SOL    HW123423   6.260   9.116   2.402
 7197SOL    HW223424   6.278   9.262   2.435
 7198SOL     OW23425   5.783   2.989   8.484
 7198SOL    HW123426   5.729   2.914   8.459
 7198SOL    HW223427   5.859   2.983   8.425
 7199SOL     OW23428   3.683  10.490   1.475
 7199SOL    HW123429   3.636  10.435   1.537
 7199SOL    HW223430   3.660  10.454   1.389
 7200SOL     OW23431  14.098   6.916  14.399
 7200SOL    HW123432  14.104   6.825  14.372
 7200SOL    HW223433  14.088   6.912  14.495
 7201SOL     OW23434  14.427   1.486   0.734
 7201SOL    HW123435  14.407   1.576   0.759
 7201SOL    HW223436  14.506   1.464   0.782
 7202SOL     OW23437  10.900   3.704  14.211
 7202SOL    HW123438  10.914   3.618  14.172
 7202SOL    HW223439  10.884   3.762  14.137
 7203SOL     OW23440   8.875   4.226   9.623
 7203SOL    HW123441   8.832   4.287   9.682
 7203SOL    HW223442   8.883   4.273   9.540
 7204SOL     OW23443   9.603   3.723   5.921
 7204SOL    HW123444   9.642   3.783   5.857
 7204SOL    HW223445   9.650   3.740   6.002
 7205SOL     OW23446  12.544  12.511   3.559
 7205SOL    HW123447  12.456  12.545   3.575
 7205SOL    HW223448  12.583  12.573   3.496
 7206SOL     OW23449   8.055   7.051   8.218
 7206SOL    HW123450   8.113   7.067   8.144
 7206SOL    HW223451   7.978   7.105   8.200
 7207SOL     OW23452   9.735   3.411   1.424
 7207SOL    HW123453   9.732   3.455   1.339
 7207SOL    HW223454   9.786   3.331   1.408
 7208SOL     OW23455   3.863   9.715  10.746
 7208SOL    HW123456   3.843   9.656  10.673
 7208SOL    HW223457   3.914   9.662  10.807
 7209SOL     OW23458   4.693   3.353  13.612
 7209SOL    HW123459   4.666   3.443  13.626
 7209SOL    HW223460   4.620   3.313  13.564
 7210SOL     OW23461   7.123   7.220   0.584
 7210SOL    HW123462   7.132   7.193   0.493
 7210SOL    HW223463   7.191   7.285   0.597
 7211SOL     OW23464  12.478   7.251   9.959
 7211SOL    HW123465  12.537   7.228  10.030
 7211SOL    HW223466  12.397   7.202   9.977
 7212SOL     OW23467   5.826   1.364  11.188
 7212SOL    HW123468   5.856   1.282  11.149
 7212SOL    HW223469   5.760   1.337  11.252
 7213SOL     OW23470   8.423   3.726  11.174
 7213SOL    HW123471   8.354   3.705  11.237
 7213SOL    HW223472   8.504   3.710  11.222
 7214SOL     OW23473   7.939  10.696   8.678
 7214SOL    HW123474   7.877  10.741   8.620
 7214SOL    HW223475   7.963  10.616   8.631
 7215SOL     OW23476   4.262  13.339   7.066
 7215SOL    HW123477   4.210  13.337   7.146
 7215SOL    HW223478   4.344  13.380   7.091
 7216SOL     OW23479   4.275   6.888   1.100
 7216SOL    HW123480   4.197   6.862   1.149
 7216SOL    HW223481   4.318   6.805   1.080
 7217SOL     OW23482   7.173   0.636   4.442
 7217SOL    HW123483   7.158   0.557   4.390
 7217SOL    HW223484   7.086   0.665   4.469
 7218SOL     OW23485   8.535   6.791   1.484
 7218SOL    HW123486   8.559   6.811   1.575
 7218SOL    HW223487   8.490   6.707   1.489
 7219SOL     OW23488  11.975   9.508   2.317
 7219SOL    HW123489  11.898   9.535   2.367
 7219SOL    HW223490  11.993   9.582   2.259
 7220SOL     OW23491  14.241   1.863  12.450
 7220SOL    HW123492  14.324   1.848  12.496
 7220SOL    HW223493  14.265   1.862  12.357
 7221SOL     OW23494   4.649   2.306   6.752
 7221SOL    HW123495   4.722   2.311   6.814
 7221SOL    HW223496   4.575   2.345   6.799
 7222SOL     OW23497   2.654   2.109   3.788
 7222SOL    HW123498   2.564   2.138   3.772
 7222SOL    HW223499   2.688   2.172   3.852
 7223SOL     OW23500   1.630   0.052  11.011
 7223SOL    HW123501   1.683   0.111  10.956
 7223SOL    HW223502   1.572   0.110  11.060
 7224SOL     OW23503   4.869  13.629   5.027
 7224SOL    HW123504   4.943  13.588   5.071
 7224SOL    HW223505   4.877  13.603   4.935
 7225SOL     OW23506   8.171   2.062   0.273
 7225SOL    HW123507   8.240   2.126   0.293
 7225SOL    HW223508   8.219   1.986   0.240
 7226SOL     OW23509   8.275   3.103  12.025
 7226SOL    HW123510   8.346   3.113  12.088
 7226SOL    HW223511   8.197   3.090  12.078
 7227SOL     OW23512   9.674   7.100  11.368
 7227SOL    HW123513   9.605   7.051  11.413
 7227SOL    HW223514   9.626   7.156  11.306
 7228SOL     OW23515   9.624   5.489   1.541
 7228SOL    HW123516   9.604   5.578   1.512
 7228SOL    HW223517   9.719   5.488   1.552
 7229SOL     OW23518   0.304   4.438  12.589
 7229SOL    HW123519   0.256   4.474  12.514
 7229SOL    HW223520   0.390   4.416  12.553
 7230SOL     OW23521  11.701  10.477   9.289
 7230SOL    HW123522  11.721  10.496   9.198
 7230SOL    HW223523  11.633  10.541   9.312
 7231SOL     OW23524   0.071  12.256   1.955
 7231SOL    HW123525  14.873  12.308   1.947
 7231SOL    HW223526   0.076  12.208   1.872
 7232SOL     OW23527   5.009  11.059  11.135
 7232SOL    HW123528   5.087  11.106  11.163
 7232SOL    HW223529   5.033  11.021  11.050
 7233SOL     OW23530   4.767   2.785  12.477
 7233SOL    HW123531   4.743   2.732  12.553
 7233SOL    HW223532   4.836   2.735  12.434
 7234SOL     OW23533  13.603   0.140   7.998
 7234SOL    HW123534  13.593   0.050   8.028
 7234SOL    HW223535  13.696   0.148   7.977
 7235SOL     OW23536   8.823   0.542   4.102
 7235SOL    HW123537   8.892   0.484   4.135
 7235SOL    HW223538   8.780   0.574   4.181
 7236SOL     OW23539  13.343  14.266   7.460
 7236SOL    HW123540  13.394  14.309   7.391
 7236SOL    HW223541  13.357  14.173   7.445
 7237SOL     OW23542   2.137  12.174   7.506
 7237SOL    HW123543   2.176  12.206   7.587
 7237SOL    HW223544   2.045  12.164   7.526
 7238SOL     OW23545   1.340  10.343   1.616
 7238SOL    HW123546   1.358  10.263   1.665
 7238SOL    HW223547   1.424  10.390   1.614
 7239SOL     OW23548  13.187   9.549   2.609
 7239SOL    HW123549  13.277   9.519   2.612
 7239SOL    HW223550  13.191   9.640   2.636
 7240SOL     OW23551  13.675   1.537  10.130
 7240SOL    HW123552  13.617   1.604  10.093
 7240SOL    HW223553  13.631   1.511  10.211
 7241SOL     OW23554   4.704  10.483  10.387
 7241SOL    HW123555   4.725  10.505  10.478
 7241SOL    HW223556   4.787  10.454  10.350
 7242SOL     OW23557  11.798   5.208   6.845
 7242SOL    HW123558  11.828   5.152   6.918
 7242SOL    HW223559  11.723   5.162   6.809
 7243SOL     OW23560   7.569  14.549   1.621
 7243SOL    HW123561   7.646  14.600   1.647
 7243SOL    HW223562   7.496  14.610   1.628
 7244SOL     OW23563   2.652  14.470  12.988
 7244SOL    HW123564   2.686  14.387  12.956
 7244SOL    HW223565   2.574  14.447  13.038
 7245SOL     OW23566   0.175   9.776  14.419
 7245SOL    HW123567   0.195   9.713  14.489
 7245SOL    HW223568   0.097   9.822  14.450
 7246SOL     OW23569  11.316   3.080   5.743
 7246SOL    HW123570  11.360   3.063   5.826
 7246SOL    HW223571  11.306   3.175   5.741
 7247SOL     OW23572   8.153   2.087  14.415
 7247SOL    HW123573   8.061   2.096  14.390
 7247SOL    HW223574   8.164   2.149  14.487
 7248SOL     OW23575   0.333   2.447   4.749
 7248SOL    HW123576   0.351   2.393   4.671
 7248SOL    HW223577   0.287   2.523   4.714
 7249SOL     OW23578   1.696   6.241  10.324
 7249SOL    HW123579   1.664   6.224  10.235
 7249SOL    HW223580   1.679   6.334  10.339
 7250SOL     OW23581   9.884   6.978   1.759
 7250SOL    HW123582   9.918   7.021   1.838
 7250SOL    HW223583   9.790   6.970   1.775
 7251SOL     OW23584   2.428   0.322  11.888
 7251SOL    HW123585   2.417   0.252  11.953
 7251SOL    HW223586   2.517   0.311  11.856
 7252SOL     OW23587  10.718  10.197   5.035
 7252SOL    HW123588  10.804  10.235   5.018
 7252SOL    HW223589  10.670  10.265   5.083
 7253SOL     OW23590   8.795   6.907   3.266
 7253SOL    HW123591   8.770   6.945   3.181
 7253SOL    HW223592   8.788   6.812   3.252
 7254SOL     OW23593  10.884  11.458   8.621
 7254SOL    HW123594  10.927  11.372   8.624
 7254SOL    HW223595  10.923  11.502   8.545
 7255SOL     OW23596  13.834   5.275   9.592
 7255SOL    HW123597  13.887   5.229   9.527
 7255SOL    HW223598  13.766   5.213   9.617
 7256SOL     OW23599   1.326   2.591   6.322
 7256SOL    HW123600   1.281   2.593   6.237
 7256SOL    HW223601   1.413   2.558   6.301
 7257SOL     OW23602  13.983   4.661  10.163
 7257SOL    HW123603  13.921   4.723  10.124
 7257SOL    HW223604  13.929   4.603  10.217
 7258SOL     OW23605  11.371  12.992   2.437
 7258SOL    HW123606  11.351  13.071   2.487
 7258SOL    HW223607  11.454  12.962   2.472
 7259SOL     OW23608   5.761  11.836  13.489
 7259SOL    HW123609   5.739  11.748  13.519
 7259SOL    HW223610   5.839  11.860  13.539
 7260SOL     OW23611   3.456   1.156   7.424
 7260SOL    HW123612   3.529   1.101   7.397
 7260SOL    HW223613   3.378   1.108   7.398
 7261SOL     OW23614   2.268   8.018   3.029
 7261SOL    HW123615   2.342   7.984   3.079
 7261SOL    HW223616   2.204   7.947   3.029
 7262SOL     OW23617   9.701   5.410   4.312
 7262SOL    HW123618   9.639   5.407   4.239
 7262SOL    HW223619   9.690   5.496   4.351
 7263SOL     OW23620   7.995  13.443  13.120
 7263SOL    HW123621   7.976  13.510  13.055
 7263SOL    HW223622   8.027  13.492  13.196
 7264SOL     OW23623   6.299   2.918  12.460
 7264SOL    HW123624   6.291   2.861  12.384
 7264SOL    HW223625   6.224   2.895  12.515
 7265SOL     OW23626   9.899   5.860  12.479
 7265SOL    HW123627   9.842   5.936  12.483
 7265SOL    HW223628   9.867   5.809  12.405
 7266SOL     OW23629  13.702   2.370  14.434
 7266SOL    HW123630  13.647   2.363  14.357
 7266SOL    HW223631  13.700   2.283  14.474
 7267SOL     OW23632  14.780   5.084   7.053
 7267SOL    HW123633  14.702   5.029   7.064
 7267SOL    HW223634  14.853   5.022   7.059
 7268SOL     OW23635   8.272   4.071   2.198
 7268SOL    HW123636   8.231   4.140   2.250
 7268SOL    HW223637   8.264   3.992   2.253
 7269SOL     OW23638  13.853   3.762  13.755
 7269SOL    HW123639  13.871   3.822  13.827
 7269SOL    HW223640  13.934   3.712  13.743
 7270SOL     OW23641   0.376  11.376   4.992
 7270SOL    HW123642   0.413  11.464   4.996
 7270SOL    HW223643   0.371  11.357   4.898
 7271SOL     OW23644   4.649   1.602  11.209
 7271SOL    HW123645   4.627   1.631  11.298
 7271SOL    HW223646   4.578   1.544  11.184
 7272SOL     OW23647   8.454   6.021  13.667
 7272SOL    HW123648   8.431   6.104  13.710
 7272SOL    HW223649   8.544   6.005  13.693
 7273SOL     OW23650   4.265   4.737  10.290
 7273SOL    HW123651   4.297   4.647  10.288
 7273SOL    HW223652   4.214   4.746  10.210
 7274SOL     OW23653  10.091   5.219   5.628
 7274SOL    HW123654  10.155   5.258   5.568
 7274SOL    HW223655  10.089   5.279   5.703
 7275SOL     OW23656  13.179   3.822  10.533
 7275SOL    HW123657  13.207   3.742  10.488
 7275SOL    HW223658  13.232   3.824  10.613
 7276SOL     OW23659   4.851   0.261   6.393
 7276SOL    HW123660   4.822   0.310   6.470
 7276SOL    HW223661   4.856   0.170   6.423
 7277SOL     OW23662   7.564   0.348  12.455
 7277SOL    HW123663   7.479   0.390  12.441
 7277SOL    HW223664   7.562   0.319  12.546
 7278SOL     OW23665  12.601   0.802  14.350
 7278SOL    HW123666  12.539   0.750  14.400
 7278SOL    HW223667  12.658   0.738  14.308
 7279SOL     OW23668  11.893   8.475   2.864
 7279SOL    HW123669  11.812   8.487   2.913
 7279SOL    HW223670  11.962   8.507   2.923
 7280SOL     OW23671  12.897  10.131   9.439
 7280SOL    HW123672  12.959  10.162   9.374
 7280SOL    HW223673  12.823  10.192   9.434
 7281SOL     OW23674   9.009   3.609   8.785
 7281SOL    HW123675   8.934   3.550   8.797
 7281SOL    HW223676   9.052   3.610   8.870
 7282SOL     OW23677  10.430   8.492   5.053
 7282SOL    HW123678  10.455   8.567   5.109
 7282SOL    HW223679  10.513   8.464   5.015
 7283SOL     OW23680   2.282   2.864   6.736
 7283SOL    HW123681   2.285   2.769   6.749
 7283SOL    HW223682   2.371   2.894   6.755
 7284SOL     OW23683  11.604   4.913   4.180
 7284SOL    HW123684  11.661   4.986   4.201
 7284SOL    HW223685  11.587   4.870   4.265
 7285SOL     OW23686  11.021  11.535  14.837
 7285SOL    HW123687  10.930  11.512  14.855
 7285SOL    HW223688  11.048  11.474  14.768
 7286SOL     OW23689   5.031   2.193   4.442
 7286SOL    HW123690   4.961   2.256   4.457
 7286SOL    HW223691   5.033   2.181   4.347
 7287SOL     OW23692  13.362   4.920  11.069
 7287SOL    HW123693  13.405   5.004  11.086
 7287SOL    HW223694  13.310   4.935  10.991
 7288SOL     OW23695  14.793  14.086   8.536
 7288SOL    HW123696  14.873  14.082   8.588
 7288SOL    HW223697  14.750  14.166   8.565
 7289SOL     OW23698  12.753   6.360   5.714
 7289SOL    HW123699  12.729   6.374   5.623
 7289SOL    HW223700  12.704   6.427   5.763
 7290SOL     OW23701  11.650   8.933   8.103
 7290SOL    HW123702  11.625   8.994   8.172
 7290SOL    HW223703  11.628   8.978   8.022
 7291SOL     OW23704   3.477   6.673   3.184
 7291SOL    HW123705   3.459   6.579   3.187
 7291SOL    HW223706   3.391   6.714   3.182
 7292SOL     OW23707  11.340   3.413  10.543
 7292SOL    HW123708  11.347   3.383  10.634
 7292SOL    HW223709  11.249   3.394  10.519
 7293SOL     OW23710   3.357   0.566   8.057
 7293SOL    HW123711   3.308   0.644   8.031
 7293SOL    HW223712   3.311   0.534   8.135
 7294SOL     OW23713   0.646   9.067   0.768
 7294SOL    HW123714   0.722   9.125   0.778
 7294SOL    HW223715   0.579   9.107   0.822
 7295SOL     OW23716   2.130   2.946  11.314
 7295SOL    HW123717   2.188   3.014  11.280
 7295SOL    HW223718   2.129   2.879  11.246
 7296SOL     OW23719   3.711  13.706   7.685
 7296SOL    HW123720   3.779  13.750   7.632
 7296SOL    HW223721   3.756  13.630   7.722
 7297SOL     OW23722   5.257   5.970   2.629
 7297SOL    HW123723   5.277   5.890   2.581
 7297SOL    HW223724   5.204   5.940   2.704
 7298SOL     OW23725   1.558   2.629   8.414
 7298SOL    HW123726   1.507   2.552   8.390
 7298SOL    HW223727   1.619   2.641   8.342
 7299SOL     OW23728   1.740   4.703  10.204
 7299SOL    HW123729   1.737   4.609  10.186
 7299SOL    HW223730   1.729   4.709  10.299
 7300SOL     OW23731   2.985   8.321   1.229
 7300SOL    HW123732   2.983   8.240   1.279
 7300SOL    HW223733   2.943   8.386   1.286
 7301SOL     OW23734   9.307   0.333   4.500
 7301SOL    HW123735   9.395   0.346   4.464
 7301SOL    HW223736   9.270   0.261   4.450
 7302SOL     OW23737   0.032   1.345   3.440
 7302SOL    HW123738   0.099   1.400   3.397
 7302SOL    HW223739   0.064   1.256   3.429
 7303SOL     OW23740   8.793   8.578   0.438
 7303SOL    HW123741   8.768   8.491   0.408
 7303SOL    HW223742   8.716   8.611   0.484
 7304SOL     OW23743   5.796   1.302   8.499
 7304SOL    HW123744   5.840   1.248   8.565
 7304SOL    HW223745   5.714   1.257   8.481
 7305SOL     OW23746   1.022  13.106   2.297
 7305SOL    HW123747   0.980  13.053   2.365
 7305SOL    HW223748   0.952  13.123   2.233
 7306SOL     OW23749  14.179   5.077   0.929
 7306SOL    HW123750  14.089   5.051   0.944
 7306SOL    HW223751  14.231   5.010   0.973
 7307SOL     OW23752  12.000   2.306   1.166
 7307SOL    HW123753  12.029   2.387   1.209
 7307SOL    HW223754  12.073   2.282   1.108
 7308SOL     OW23755   3.772  10.884   1.808
 7308SOL    HW123756   3.699  10.944   1.793
 7308SOL    HW223757   3.759  10.813   1.745
 7309SOL     OW23758   7.267   7.150   1.730
 7309SOL    HW123759   7.226   7.121   1.811
 7309SOL    HW223760   7.209   7.219   1.697
 7310SOL     OW23761   5.057  12.546   1.075
 7310SOL    HW123762   5.112  12.596   1.135
 7310SOL    HW223763   5.007  12.612   1.027
 7311SOL     OW23764  12.568   8.322   9.209
 7311SOL    HW123765  12.653   8.344   9.170
 7311SOL    HW223766  12.573   8.228   9.225
 7312SOL     OW23767  13.859   4.948   4.747
 7312SOL    HW123768  13.894   5.020   4.799
 7312SOL    HW223769  13.772   4.976   4.721
 7313SOL     OW23770  12.076  14.541   9.451
 7313SOL    HW123771  12.142  14.523   9.383
 7313SOL    HW223772  12.036  14.456   9.468
 7314SOL     OW23773  14.754  13.055  10.706
 7314SOL    HW123774  14.786  13.129  10.759
 7314SOL    HW223775  14.833  13.011  10.676
 7315SOL     OW23776  14.013   9.975  12.587
 7315SOL    HW123777  13.988   9.907  12.651
 7315SOL    HW223778  13.986  10.057  12.628
 7316SOL     OW23779   1.234   8.105  14.858
 7316SOL    HW123780   1.211   8.110  14.766
 7316SOL    HW223781   1.330   8.106  14.860
 7317SOL     OW23782  14.605   9.431   3.185
 7317SOL    HW123783  14.619   9.433   3.280
 7317SOL    HW223784  14.602   9.523   3.160
 7318SOL     OW23785   3.074   1.257   0.409
 7318SOL    HW123786   3.126   1.211   0.343
 7318SOL    HW223787   3.098   1.349   0.399
 7319SOL     OW23788  11.311   9.795   5.460
 7319SOL    HW123789  11.355   9.817   5.377
 7319SOL    HW223790  11.277   9.878   5.493
 7320SOL     OW23791   6.911  11.874  13.034
 7320SOL    HW123792   6.967  11.802  13.064
 7320SOL    HW223793   6.925  11.944  13.097
 7321SOL     OW23794  14.662   3.944  13.446
 7321SOL    HW123795  14.696   3.858  13.473
 7321SOL    HW223796  14.570   3.928  13.425
 7322SOL     OW23797   5.085  10.206   8.891
 7322SOL    HW123798   5.025  10.280   8.883
 7322SOL    HW223799   5.140  10.228   8.966
 7323SOL     OW23800  11.045  10.719   8.100
 7323SOL    HW123801  11.070  10.730   8.192
 7323SOL    HW223802  10.957  10.682   8.103
 7324SOL     OW23803   5.980  10.125   4.029
 7324SOL    HW123804   5.886  10.122   4.047
 7324SOL    HW223805   6.005  10.034   4.015
 7325SOL     OW23806   2.981   5.017   7.722
 7325SOL    HW123807   3.022   5.027   7.637
 7325SOL    HW223808   3.003   4.928   7.750
 7326SOL     OW23809   2.923  10.544  13.223
 7326SOL    HW123810   2.879  10.503  13.148
 7326SOL    HW223811   2.893  10.635  13.222
 7327SOL     OW23812  12.179   6.899  10.847
 7327SOL    HW123813  12.176   6.895  10.751
 7327SOL    HW223814  12.164   6.809  10.875
 7328SOL     OW23815   7.340  11.261   1.101
 7328SOL    HW123816   7.264  11.231   1.051
 7328SOL    HW223817   7.307  11.333   1.154
 7329SOL     OW23818   3.571   5.220   0.291
 7329SOL    HW123819   3.655   5.221   0.244
 7329SOL    HW223820   3.548   5.312   0.300
 7330SOL     OW23821  11.207   6.516  11.782
 7330SOL    HW123822  11.171   6.465  11.709
 7330SOL    HW223823  11.302   6.515  11.768
 7331SOL     OW23824   7.313   8.541  12.819
 7331SOL    HW123825   7.249   8.593  12.770
 7331SOL    HW223826   7.391   8.595  12.821
 7332SOL     OW23827   9.522   7.987   9.003
 7332SOL    HW123828   9.588   8.021   8.942
 7332SOL    HW223829   9.562   7.910   9.042
 7333SOL     OW23830   2.382   0.097   6.511
 7333SOL    HW123831   2.446   0.168   6.521
 7333SOL    HW223832   2.435   0.018   6.510
 7334SOL     OW23833   0.415  10.625   6.572
 7334SOL    HW123834   0.407  10.678   6.651
 7334SOL    HW223835   0.401  10.686   6.500
 7335SOL     OW23836   8.508   9.977   7.841
 7335SOL    HW123837   8.565   9.906   7.810
 7335SOL    HW223838   8.518   9.975   7.936
 7336SOL     OW23839   1.724  14.798  14.505
 7336SOL    HW123840   1.817  14.819  14.504
 7336SOL    HW223841   1.718  14.713  14.462
 7337SOL     OW23842   8.832  12.546   4.642
 7337SOL    HW123843   8.841  12.641   4.640
 7337SOL    HW223844   8.829  12.524   4.736
 7338SOL     OW23845   8.878  13.414   2.462
 7338SOL    HW123846   8.899  13.401   2.555
 7338SOL    HW223847   8.798  13.466   2.463
 7339SOL     OW23848   9.556  14.020  14.571
 7339SOL    HW123849   9.531  13.930  14.549
 7339SOL    HW223850   9.641  14.011  14.615
 7340SOL     OW23851   9.625   2.853   7.762
 7340SOL    HW123852   9.616   2.944   7.731
 7340SOL    HW223853   9.698   2.856   7.824
 7341SOL     OW23854   0.005   8.516   6.775
 7341SOL    HW123855   0.054   8.449   6.824
 7341SOL    HW223856   0.073   8.569   6.733
 7342SOL     OW23857   7.284  14.511   1.425
 7342SOL    HW123858   7.212  14.503   1.487
 7342SOL    HW223859   7.242  14.520   1.339
 7343SOL     OW23860   7.092   7.716   8.865
 7343SOL    HW123861   7.110   7.656   8.937
 7343SOL    HW223862   6.999   7.703   8.846
 7344SOL     OW23863   5.663   8.677   1.067
 7344SOL    HW123864   5.753   8.681   1.098
 7344SOL    HW223865   5.654   8.590   1.028
 7345SOL     OW23866  13.865   8.062   1.233
 7345SOL    HW123867  13.881   8.156   1.247
 7345SOL    HW223868  13.805   8.059   1.159
 7346SOL     OW23869   9.727   3.979   7.495
 7346SOL    HW123870   9.734   3.980   7.399
 7346SOL    HW223871   9.675   3.901   7.514
 7347SOL     OW23872   8.786   3.187   0.560
 7347SOL    HW123873   8.799   3.135   0.480
 7347SOL    HW223874   8.820   3.132   0.630
 7348SOL     OW23875  11.820  14.277  12.270
 7348SOL    HW123876  11.862  14.222  12.336
 7348SOL    HW223877  11.746  14.317  12.316
 7349SOL     OW23878  14.262   6.426   4.246
 7349SOL    HW123879  14.230   6.515   4.263
 7349SOL    HW223880  14.356   6.432   4.258
 7350SOL     OW23881   0.503  10.497   4.651
 7350SOL    HW123882   0.484  10.587   4.678
 7350SOL    HW223883   0.417  10.454   4.648
 7351SOL     OW23884  11.484  13.631  13.736
 7351SOL    HW123885  11.525  13.619  13.821
 7351SOL    HW223886  11.483  13.726  13.723
 7352SOL     OW23887   1.639  12.715   8.814
 7352SOL    HW123888   1.583  12.766   8.873
 7352SOL    HW223889   1.637  12.626   8.851
 7353SOL     OW23890  12.184  10.123   0.698
 7353SOL    HW123891  12.096  10.149   0.673
 7353SOL    HW223892  12.241  10.190   0.661
 7354SOL     OW23893  14.518   7.229   6.771
 7354SOL    HW123894  14.523   7.200   6.679
 7354SOL    HW223895  14.565   7.312   6.773
 7355SOL     OW23896   3.164   3.000   1.481
 7355SOL    HW123897   3.220   2.951   1.421
 7355SOL    HW223898   3.205   2.988   1.567
 7356SOL     OW23899   3.625   3.791   4.684
 7356SOL    HW123900   3.650   3.840   4.605
 7356SOL    HW223901   3.583   3.856   4.740
 7357SOL     OW23902   3.203  12.001   0.272
 7357SOL    HW123903   3.260  12.020   0.347
 7357SOL    HW223904   3.136  12.070   0.274
 7358SOL     OW23905   2.862  12.060  13.989
 7358SOL    HW123906   2.848  11.966  13.985
 7358SOL    HW223907   2.802  12.090  14.057
 7359SOL     OW23908   0.528   2.943   8.743
 7359SOL    HW123909   0.526   2.916   8.834
 7359SOL    HW223910   0.581   2.876   8.699
 7360SOL     OW23911  12.850   6.101   6.823
 7360SOL    HW123912  12.933   6.068   6.857
 7360SOL    HW223913  12.869   6.191   6.797
 7361SOL     OW23914   9.056   8.975  13.449
 7361SOL    HW123915   8.982   8.936  13.496
 7361SOL    HW223916   9.029   8.972  13.357
 7362SOL     OW23917   0.600   7.832   2.447
 7362SOL    HW123918   0.626   7.812   2.537
 7362SOL    HW223919   0.636   7.760   2.395
 7363SOL     OW23920   7.629   9.652  13.096
 7363SOL    HW123921   7.681   9.723  13.134
 7363SOL    HW223922   7.588   9.690  13.019
 7364SOL     OW23923   5.448   8.527   8.828
 7364SOL    HW123924   5.425   8.590   8.759
 7364SOL    HW223925   5.543   8.534   8.835
 7365SOL     OW23926   9.682   0.770   7.161
 7365SOL    HW123927   9.627   0.849   7.158
 7365SOL    HW223928   9.620   0.698   7.164
 7366SOL     OW23929  12.174  13.610   3.226
 7366SOL    HW123930  12.205  13.618   3.316
 7366SOL    HW223931  12.229  13.542   3.187
 7367SOL     OW23932   1.636  10.730   9.042
 7367SOL    HW123933   1.689  10.685   8.977
 7367SOL    HW223934   1.614  10.814   9.002
 7368SOL     OW23935   1.964   8.479   0.995
 7368SOL    HW123936   1.875   8.511   0.980
 7368SOL    HW223937   1.953   8.402   1.050
 7369SOL     OW23938  13.057   5.192   7.359
 7369SOL    HW123939  13.032   5.277   7.321
 7369SOL    HW223940  12.992   5.177   7.428
 7370SOL     OW23941   7.572  11.960   5.306
 7370SOL    HW123942   7.572  11.913   5.222
 7370SOL    HW223943   7.601  11.895   5.370
 7371SOL     OW23944  10.124   6.518   3.413
 7371SOL    HW123945  10.155   6.606   3.395
 7371SOL    HW223946  10.132   6.508   3.508
 7372SOL     OW23947   3.128   1.460   6.724
 7372SOL    HW123948   3.181   1.471   6.645
 7372SOL    HW223949   3.169   1.387   6.771
 7373SOL     OW23950   6.495  13.749   4.560
 7373SOL    HW123951   6.426  13.773   4.499
 7373SOL    HW223952   6.481  13.805   4.636
 7374SOL     OW23953   5.195   3.380  14.388
 7374SOL    HW123954   5.216   3.455  14.444
 7374SOL    HW223955   5.133   3.329  14.440
 7375SOL     OW23956  13.699  11.515   8.901
 7375SOL    HW123957  13.710  11.600   8.944
 7375SOL    HW223958  13.629  11.529   8.837
 7376SOL     OW23959   4.084  12.751   6.572
 7376SOL    HW123960   4.056  12.670   6.614
 7376SOL    HW223961   4.136  12.796   6.639
 7377SOL     OW23962  10.092   2.682   9.580
 7377SOL    HW123963  10.083   2.611   9.516
 7377SOL    HW223964  10.108   2.760   9.527
 7378SOL     OW23965   1.925   7.151   5.650
 7378SOL    HW123966   1.871   7.077   5.677
 7378SOL    HW223967   1.902   7.165   5.558
 7379SOL     OW23968  13.443   0.907   1.121
 7379SOL    HW123969  13.464   0.824   1.165
 7379SOL    HW223970  13.373   0.885   1.060
 7380SOL     OW23971   4.254   0.266   0.750
 7380SOL    HW123972   4.256   0.170   0.740
 7380SOL    HW223973   4.295   0.281   0.836
 7381SOL     OW23974   5.211   7.106  10.695
 7381SOL    HW123975   5.276   7.040  10.672
 7381SOL    HW223976   5.159   7.118  10.616
 7382SOL     OW23977  12.766  14.241  12.533
 7382SOL    HW123978  12.721  14.321  12.503
 7382SOL    HW223979  12.745  14.236  12.627
 7383SOL     OW23980   5.705   3.884  14.101
 7383SOL    HW123981   5.631   3.943  14.098
 7383SOL    HW223982   5.681   3.812  14.042
 7384SOL     OW23983   4.478   2.517  13.901
 7384SOL    HW123984   4.542   2.583  13.874
 7384SOL    HW223985   4.470   2.459  13.825
 7385SOL     OW23986  12.861   1.121   8.997
 7385SOL    HW123987  12.802   1.192   9.019
 7385SOL    HW223988  12.839   1.052   9.059
 7386SOL     OW23989   5.823  12.438   3.120
 7386SOL    HW123990   5.737  12.451   3.160
 7386SOL    HW223991   5.820  12.349   3.086
 7387SOL     OW23992   5.727  12.368  12.233
 7387SOL    HW123993   5.812  12.339  12.199
 7387SOL    HW223994   5.688  12.289  12.270
 7388SOL     OW23995   3.142   0.026   4.381
 7388SOL    HW123996   3.172   0.027   4.291
 7388SOL    HW223997   3.084   0.102   4.389
 7389SOL     OW23998   0.035   2.040   7.959
 7389SOL    HW123999   0.006   1.984   8.032
 7389SOL    HW224000   0.098   2.100   8.000
 7390SOL     OW24001   0.971  14.716   6.900
 7390SOL    HW124002   0.902  14.666   6.856
 7390SOL    HW224003   0.992  14.787   6.839
 7391SOL     OW24004  13.792  12.923   0.470
 7391SOL    HW124005  13.703  12.957   0.477
 7391SOL    HW224006  13.844  12.997   0.439
 7392SOL     OW24007   9.577  10.884   0.951
 7392SOL    HW124008   9.505  10.894   0.888
 7392SOL    HW224009   9.621  10.804   0.925
 7393SOL     OW24010   6.417  14.609  12.113
 7393SOL    HW124011   6.442  14.520  12.136
 7393SOL    HW224012   6.367  14.640  12.190
 7394SOL     OW24013  11.479   7.414   4.363
 7394SOL    HW124014  11.544   7.345   4.355
 7394SOL    HW224015  11.467   7.446   4.273
 7395SOL     OW24016   6.406  14.416   3.027
 7395SOL    HW124017   6.488  14.380   2.993
 7395SOL    HW224018   6.338  14.366   2.981
 7396SOL     OW24019  13.127   4.296   8.653
 7396SOL    HW124020  13.042   4.290   8.608
 7396SOL    HW224021  13.186   4.333   8.588
 7397SOL     OW24022   1.856   3.413   9.285
 7397SOL    HW124023   1.901   3.390   9.367
 7397SOL    HW224024   1.847   3.329   9.239
 7398SOL     OW24025   8.152   9.966   2.442
 7398SOL    HW124026   8.152   9.888   2.386
 7398SOL    HW224027   8.213   9.945   2.512
 7399SOL     OW24028  13.219  14.545   7.140
 7399SOL    HW124029  13.203  14.541   7.046
 7399SOL    HW224030  13.167  14.620   7.170
 7400SOL     OW24031   8.176   4.689   9.985
 7400SOL    HW124032   8.203   4.631   9.914
 7400SOL    HW224033   8.257   4.711  10.030
 7401SOL     OW24034  11.440   8.473   0.573
 7401SOL    HW124035  11.440   8.411   0.646
 7401SOL    HW224036  11.460   8.557   0.612
 7402SOL     OW24037  11.985   4.597   8.834
 7402SOL    HW124038  11.981   4.504   8.857
 7402SOL    HW224039  12.072   4.625   8.864
 7403SOL     OW24040   4.488   6.905  12.827
 7403SOL    HW124041   4.555   6.864  12.772
 7403SOL    HW224042   4.429   6.833  12.850
 7404SOL     OW24043   3.935   4.539   1.044
 7404SOL    HW124044   3.982   4.552   1.126
 7404SOL    HW224045   3.851   4.501   1.070
 7405SOL     OW24046   4.479   5.493  10.772
 7405SOL    HW124047   4.468   5.413  10.823
 7405SOL    HW224048   4.561   5.480  10.725
 7406SOL     OW24049   3.456  13.816  14.643
 7406SOL    HW124050   3.539  13.822  14.691
 7406SOL    HW224051   3.448  13.900  14.598
 7407SOL     OW24052   7.392  10.296  14.642
 7407SOL    HW124053   7.404  10.373  14.698
 7407SOL    HW224054   7.353  10.230  14.699
 7408SOL     OW24055   7.483   5.198   6.799
 7408SOL    HW124056   7.512   5.115   6.763
 7408SOL    HW224057   7.550   5.261   6.771
 7409SOL     OW24058   9.095  10.632   0.435
 7409SOL    HW124059   9.009  10.589   0.438
 7409SOL    HW224060   9.101  10.681   0.517
 7410SOL     OW24061  10.570  11.425  13.955
 7410SOL    HW124062  10.591  11.371  13.878
 7410SOL    HW224063  10.639  11.491  13.957
 7411SOL     OW24064   1.081   5.837   7.588
 7411SOL    HW124065   1.022   5.885   7.531
 7411SOL    HW224066   1.143   5.794   7.529
 7412SOL     OW24067   7.128   6.350   6.985
 7412SOL    HW124068   7.100   6.260   6.967
 7412SOL    HW224069   7.046   6.400   6.989
 7413SOL     OW24070  10.471   7.362  13.855
 7413SOL    HW124071  10.542   7.425  13.866
 7413SOL    HW224072  10.437   7.380  13.767
 7414SOL     OW24073   6.444  13.437   8.793
 7414SOL    HW124074   6.433  13.364   8.732
 7414SOL    HW224075   6.498  13.500   8.745
 7415SOL     OW24076   5.254   1.723   7.500
 7415SOL    HW124077   5.205   1.804   7.514
 7415SOL    HW224078   5.248   1.708   7.406
 7416SOL     OW24079   6.849   5.683  12.860
 7416SOL    HW124080   6.888   5.740  12.926
 7416SOL    HW224081   6.761   5.718  12.847
 7417SOL     OW24082   5.060   8.552  11.443
 7417SOL    HW124083   5.080   8.562  11.350
 7417SOL    HW224084   5.039   8.640  11.473
 7418SOL     OW24085  10.851  13.139   5.919
 7418SOL    HW124086  10.824  13.202   5.985
 7418SOL    HW224087  10.946  13.145   5.917
 7419SOL     OW24088   1.452   1.804   4.683
 7419SOL    HW124089   1.504   1.724   4.695
 7419SOL    HW224090   1.397   1.808   4.761
 7420SOL     OW24091   2.301   9.445   5.636
 7420SOL    HW124092   2.323   9.537   5.621
 7420SOL    HW224093   2.385   9.399   5.636
 7421SOL     OW24094   2.366   1.906   4.709
 7421SOL    HW124095   2.416   1.847   4.766
 7421SOL    HW224096   2.413   1.906   4.626
 7422SOL     OW24097  13.787   8.667   0.432
 7422SOL    HW124098  13.823   8.606   0.497
 7422SOL    HW224099  13.857   8.674   0.366
 7423SOL     OW24100  13.900   4.192  10.610
 7423SOL    HW124101  13.868   4.246  10.538
 7423SOL    HW224102  13.867   4.237  10.689
 7424SOL     OW24103   8.593  10.487  12.804
 7424SOL    HW124104   8.564  10.516  12.718
 7424SOL    HW224105   8.560  10.397  12.811
 7425SOL     OW24106  13.676   3.753  14.314
 7425SOL    HW124107  13.705   3.701  14.389
 7425SOL    HW224108  13.589   3.719  14.293
 7426SOL     OW24109   0.519  10.360   3.470
 7426SOL    HW124110   0.564  10.307   3.536
 7426SOL    HW224111   0.426  10.342   3.484
 7427SOL     OW24112   6.143   1.487   4.544
 7427SOL    HW124113   6.111   1.454   4.459
 7427SOL    HW224114   6.065   1.492   4.598
 7428SOL     OW24115   1.095   1.210   5.665
 7428SOL    HW124116   1.143   1.291   5.680
 7428SOL    HW224117   1.041   1.199   5.743
 7429SOL     OW24118   5.371  14.574   6.755
 7429SOL    HW124119   5.304  14.533   6.701
 7429SOL    HW224120   5.326  14.645   6.800
 7430SOL     OW24121  13.730  12.355  12.852
 7430SOL    HW124122  13.715  12.396  12.937
 7430SOL    HW224123  13.758  12.427  12.795
 7431SOL     OW24124   9.824   3.684  14.735
 7431SOL    HW124125   9.729   3.671  14.737
 7431SOL    HW224126   9.846   3.716  14.822
 7432SOL     OW24127   1.946  12.478  12.821
 7432SOL    HW124128   1.952  12.460  12.915
 7432SOL    HW224129   1.854  12.497  12.805
 7433SOL     OW24130  10.574  12.827   9.495
 7433SOL    HW124131  10.552  12.920   9.505
 7433SOL    HW224132  10.523  12.783   9.563
 7434SOL     OW24133   8.260   2.813   7.652
 7434SOL    HW124134   8.225   2.823   7.563
 7434SOL    HW224135   8.354   2.832   7.642
 7435SOL     OW24136   5.661  12.831   4.312
 7435SOL    HW124137   5.623  12.743   4.312
 7435SOL    HW224138   5.736  12.824   4.371
 7436SOL     OW24139   0.811   9.769   4.556
 7436SOL    HW124140   0.864   9.700   4.517
 7436SOL    HW224141   0.841   9.774   4.647
 7437SOL     OW24142  13.692   1.461   8.278
 7437SOL    HW124143  13.731   1.514   8.347
 7437SOL    HW224144  13.706   1.512   8.198
 7438SOL     OW24145   9.927   3.255   3.535
 7438SOL    HW124146   9.915   3.275   3.442
 7438SOL    HW224147   9.897   3.164   3.544
 7439SOL     OW24148  14.663   4.870   1.951
 7439SOL    HW124149  14.584   4.905   1.909
 7439SOL    HW224150  14.735   4.909   1.901
 7440SOL     OW24151   8.050   9.132   7.113
 7440SOL    HW124152   8.045   9.038   7.096
 7440SOL    HW224153   7.959   9.160   7.124
 7441SOL     OW24154  11.223  12.209   0.125
 7441SOL    HW124155  11.256  12.298   0.116
 7441SOL    HW224156  11.128  12.218   0.115
 7442SOL     OW24157  12.266   7.783   4.930
 7442SOL    HW124158  12.225   7.744   4.852
 7442SOL    HW224159  12.277   7.710   4.990
 7443SOL     OW24160   7.375  14.166  13.129
 7443SOL    HW124161   7.280  14.182  13.129
 7443SOL    HW224162   7.411  14.239  13.080
 7444SOL     OW24163  11.676   7.108   8.661
 7444SOL    HW124164  11.636   7.106   8.574
 7444SOL    HW224165  11.715   7.021   8.672
 7445SOL     OW24166   5.189   2.174   3.022
 7445SOL    HW124167   5.175   2.152   3.114
 7445SOL    HW224168   5.283   2.191   3.015
 7446SOL     OW24169   3.377   7.734   3.058
 7446SOL    HW124170   3.426   7.678   2.998
 7446SOL    HW224171   3.411   7.710   3.145
 7447SOL     OW24172   6.783  11.196  10.525
 7447SOL    HW124173   6.778  11.263  10.457
 7447SOL    HW224174   6.765  11.114  10.479
 7448SOL     OW24175   1.286   7.121   1.598
 7448SOL    HW124176   1.208   7.075   1.629
 7448SOL    HW224177   1.269   7.213   1.618
 7449SOL     OW24178   1.284  13.374  13.436
 7449SOL    HW124179   1.280  13.393  13.342
 7449SOL    HW224180   1.356  13.428  13.469
 7450SOL     OW24181  12.614   3.760   2.105
 7450SOL    HW124182  12.579   3.744   2.192
 7450SOL    HW224183  12.696   3.710   2.102
 7451SOL     OW24184   5.146   1.618  11.801
 7451SOL    HW124185   5.122   1.707  11.774
 7451SOL    HW224186   5.182   1.578  11.721
 7452SOL     OW24187   6.632   8.801  13.632
 7452SOL    HW124188   6.673   8.838  13.553
 7452SOL    HW224189   6.544   8.837  13.632
 7453SOL     OW24190   1.428   2.650  12.646
 7453SOL    HW124191   1.521   2.630  12.636
 7453SOL    HW224192   1.426   2.731  12.698
 7454SOL     OW24193   7.330   8.899   7.101
 7454SOL    HW124194   7.403   8.948   7.063
 7454SOL    HW224195   7.293   8.958   7.167
 7455SOL     OW24196   1.171   3.485   5.009
 7455SOL    HW124197   1.114   3.528   4.946
 7455SOL    HW224198   1.112   3.441   5.070
 7456SOL     OW24199  14.663   0.247   3.906
 7456SOL    HW124200  14.650   0.300   3.828
 7456SOL    HW224201  14.756   0.228   3.907
 7457SOL     OW24202   7.005  11.623  13.143
 7457SOL    HW124203   7.075  11.575  13.099
 7457SOL    HW224204   6.924  11.583  13.110
 7458SOL     OW24205  10.548  12.434   5.661
 7458SOL    HW124206  10.605  12.428   5.584
 7458SOL    HW224207  10.538  12.343   5.690
 7459SOL     OW24208  13.982   9.933  14.774
 7459SOL    HW124209  14.072   9.903  14.783
 7459SOL    HW224210  13.953   9.949  14.864
 7460SOL     OW24211  11.441   1.361   5.425
 7460SOL    HW124212  11.346   1.367   5.412
 7460SOL    HW224213  11.454   1.283   5.478
 7461SOL     OW24214  10.505   9.847   9.911
 7461SOL    HW124215  10.452   9.848   9.832
 7461SOL    HW224216  10.581   9.902   9.891
 7462SOL     OW24217   1.464  11.467  10.291
 7462SOL    HW124218   1.529  11.526  10.253
 7462SOL    HW224219   1.481  11.470  10.385
 7463SOL     OW24220  14.848   9.966   0.817
 7463SOL    HW124221  14.755   9.944   0.819
 7463SOL    HW224222   0.011   9.882   0.821
 7464SOL     OW24223   6.120  13.712   9.058
 7464SOL    HW124224   6.053  13.645   9.047
 7464SOL    HW224225   6.077  13.780   9.111
 7465SOL     OW24226  14.460  13.143  12.073
 7465SOL    HW124227  14.506  13.208  12.126
 7465SOL    HW224228  14.448  13.186  11.988
 7466SOL     OW24229  10.594   8.140  14.201
 7466SOL    HW124230  10.585   8.218  14.256
 7466SOL    HW224231  10.631   8.173  14.119
 7467SOL     OW24232  11.130   5.434   8.370
 7467SOL    HW124233  11.224   5.417   8.368
 7467SOL    HW224234  11.122   5.528   8.351
 7468SOL     OW24235   5.508  11.266  14.436
 7468SOL    HW124236   5.587  11.302  14.396
 7468SOL    HW224237   5.467  11.214  14.366
 7469SOL     OW24238  11.897   0.418   9.420
 7469SOL    HW124239  11.850   0.344   9.380
 7469SOL    HW224240  11.981   0.421   9.374
 7470SOL     OW24241   8.510   8.609   2.778
 7470SOL    HW124242   8.432   8.577   2.822
 7470SOL    HW224243   8.578   8.606   2.845
 7471SOL     OW24244  14.548  12.846   7.155
 7471SOL    HW124245  14.590  12.817   7.236
 7471SOL    HW224246  14.621  12.867   7.096
 7472SOL     OW24247   4.434   7.185   5.767
 7472SOL    HW124248   4.498   7.239   5.719
 7472SOL    HW224249   4.354   7.194   5.716
 7473SOL     OW24250  10.047   9.014   5.990
 7473SOL    HW124251  10.036   9.008   5.895
 7473SOL    HW224252  10.136   8.983   6.007
 7474SOL     OW24253   5.111   6.286  12.517
 7474SOL    HW124254   5.074   6.369  12.547
 7474SOL    HW224255   5.200   6.285  12.554
 7475SOL     OW24256  12.028  12.241   7.853
 7475SOL    HW124257  12.075  12.187   7.789
 7475SOL    HW224258  12.083  12.239   7.931
 7476SOL     OW24259   7.572  11.380  13.932
 7476SOL    HW124260   7.510  11.417  13.869
 7476SOL    HW224261   7.517  11.342  14.001
 7477SOL     OW24262   0.549   6.073   1.061
 7477SOL    HW124263   0.465   6.081   1.015
 7477SOL    HW224264   0.597   6.007   1.011
 7478SOL     OW24265   5.054   2.077   5.700
 7478SOL    HW124266   5.005   2.122   5.632
 7478SOL    HW224267   5.089   2.147   5.755
 7479SOL     OW24268   2.259   6.451   2.551
 7479SOL    HW124269   2.297   6.496   2.476
 7479SOL    HW224270   2.317   6.377   2.567
 7480SOL     OW24271   2.848   8.363   0.949
 7480SOL    HW124272   2.876   8.342   1.038
 7480SOL    HW224273   2.755   8.339   0.947
 7481SOL     OW24274   2.046   6.978   9.026
 7481SOL    HW124275   2.043   6.991   8.931
 7481SOL    HW224276   2.117   7.036   9.055
 7482SOL     OW24277   6.963   0.690   9.608
 7482SOL    HW124278   7.049   0.656   9.585
 7482SOL    HW224279   6.914   0.692   9.525
 7483SOL     OW24280  12.206  12.904   5.648
 7483SOL    HW124281  12.167  12.898   5.561
 7483SOL    HW224282  12.282  12.846   5.643
 7484SOL     OW24283  10.437   1.982   2.606
 7484SOL    HW124284  10.471   1.969   2.517
 7484SOL    HW224285  10.347   2.014   2.592
 7485SOL     OW24286  14.355   0.890   7.775
 7485SOL    HW124287  14.378   0.800   7.796
 7485SOL    HW224288  14.438   0.932   7.752
 7486SOL     OW24289   9.509   5.849   0.841
 7486SOL    HW124290   9.558   5.767   0.851
 7486SOL    HW224291   9.443   5.829   0.775
 7487SOL     OW24292  11.593  14.354  14.490
 7487SOL    HW124293  11.679  14.320  14.514
 7487SOL    HW224294  11.589  14.440  14.531
 7488SOL     OW24295   5.412   5.940   9.141
 7488SOL    HW124296   5.375   5.965   9.226
 7488SOL    HW224297   5.340   5.895   9.097
 7489SOL     OW24298  14.120  13.941   6.774
 7489SOL    HW124299  14.095  13.937   6.866
 7489SOL    HW224300  14.155  14.030   6.762
 7490SOL     OW24301   3.634   4.754  11.721
 7490SOL    HW124302   3.614   4.696  11.649
 7490SOL    HW224303   3.717   4.794  11.698
 7491SOL     OW24304   8.472   7.346   9.982
 7491SOL    HW124305   8.481   7.422  10.039
 7491SOL    HW224306   8.381   7.350   9.951
 7492SOL     OW24307   5.143   3.493   8.347
 7492SOL    HW124308   5.129   3.545   8.268
 7492SOL    HW224309   5.057   3.456   8.368
 7493SOL     OW24310  14.754  12.730   4.919
 7493SOL    HW124311  14.690  12.678   4.872
 7493SOL    HW224312  14.702  12.791   4.972
 7494SOL     OW24313   8.871   9.979  14.482
 7494SOL    HW124314   8.835   9.994  14.395
 7494SOL    HW224315   8.837  10.051  14.536
 7495SOL     OW24316   2.256   6.800   2.665
 7495SOL    HW124317   2.306   6.863   2.717
 7495SOL    HW224318   2.284   6.817   2.575
 7496SOL     OW24319   1.406   7.952   6.841
 7496SOL    HW124320   1.318   7.978   6.867
 7496SOL    HW224321   1.395   7.915   6.753
 7497SOL     OW24322  11.577   1.871   2.317
 7497SOL    HW124323  11.671   1.863   2.300
 7497SOL    HW224324  11.540   1.895   2.232
 7498SOL     OW24325   9.397   3.456   5.426
 7498SOL    HW124326   9.459   3.414   5.367
 7498SOL    HW224327   9.313   3.416   5.404
 7499SOL     OW24328  14.876  13.194   1.047
 7499SOL    HW124329   0.002  13.168   0.956
 7499SOL    HW224330  14.783  13.216   1.058
 7500SOL     OW24331   4.878  10.884   0.761
 7500SOL    HW124332   4.853  10.932   0.681
 7500SOL    HW224333   4.869  10.792   0.738
 7501SOL     OW24334  12.363   4.999   4.179
 7501SOL    HW124335  12.272   4.985   4.151
 7501SOL    HW224336  12.356   5.050   4.260
 7502SOL     OW24337   1.152  12.989   8.107
 7502SOL    HW124338   1.098  13.001   8.028
 7502SOL    HW224339   1.093  13.010   8.179
 7503SOL     OW24340  10.555   2.477   1.396
 7503SOL    HW124341  10.562   2.506   1.487
 7503SOL    HW224342  10.478   2.524   1.362
 7504SOL     OW24343   9.005   4.542   6.790
 7504SOL    HW124344   8.927   4.511   6.744
 7504SOL    HW224345   8.998   4.637   6.790
 7505SOL     OW24346  14.677   2.663  12.811
 7505SOL    HW124347  14.723   2.582  12.833
 7505SOL    HW224348  14.585   2.638  12.806
 7506SOL     OW24349  14.036   7.549   7.459
 7506SOL    HW124350  14.040   7.540   7.364
 7506SOL    HW224351  14.128   7.553   7.487
 7507SOL     OW24352   6.991   3.295   6.206
 7507SOL    HW124353   6.925   3.241   6.162
 7507SOL    HW224354   6.963   3.299   6.297
 7508SOL     OW24355   1.849   3.349   6.299
 7508SOL    HW124356   1.913   3.354   6.228
 7508SOL    HW224357   1.886   3.403   6.369
 7509SOL     OW24358  12.298  10.113   3.064
 7509SOL    HW124359  12.226  10.070   3.110
 7509SOL    HW224360  12.374  10.100   3.120
 7510SOL     OW24361  14.661   6.150   0.928
 7510SOL    HW124362  14.648   6.201   1.008
 7510SOL    HW224363  14.716   6.205   0.873
 7511SOL     OW24364   6.507   9.828  13.360
 7511SOL    HW124365   6.484   9.790  13.445
 7511SOL    HW224366   6.553   9.757  13.314
 7512SOL     OW24367  14.519  12.573   7.506
 7512SOL    HW124368  14.534  12.576   7.601
 7512SOL    HW224369  14.441  12.519   7.496
 7513SOL     OW24370  14.833   4.857   0.690
 7513SOL    HW124371  14.844   4.952   0.683
 7513SOL    HW224372   0.032   4.826   0.731
 7514SOL     OW24373   2.119   4.228   3.326
 7514SOL    HW124374   2.133   4.140   3.359
 7514SOL    HW224375   2.069   4.272   3.396
 7515SOL     OW24376  14.288   6.755  12.920
 7515SOL    HW124377  14.319   6.828  12.975
 7515SOL    HW224378  14.207   6.787  12.881
 7516SOL     OW24379   2.252   4.641   0.538
 7516SOL    HW124380   2.288   4.612   0.454
 7516SOL    HW224381   2.294   4.585   0.603
 7517SOL     OW24382  10.743   5.121  12.455
 7517SOL    HW124383  10.746   5.103  12.361
 7517SOL    HW224384  10.762   5.036  12.496
 7518SOL     OW24385   4.180  11.421   3.605
 7518SOL    HW124386   4.095  11.454   3.636
 7518SOL    HW224387   4.183  11.330   3.635
 7519SOL     OW24388  13.608   8.406  12.508
 7519SOL    HW124389  13.593   8.469  12.578
 7519SOL    HW224390  13.572   8.449  12.429
 7520SOL     OW24391  10.061   8.745  13.051
 7520SOL    HW124392  10.092   8.675  13.108
 7520SOL    HW224393  10.125   8.816  13.062
 7521SOL     OW24394   1.266  14.793  11.159
 7521SOL    HW124395   1.348  14.760  11.197
 7521SOL    HW224396   1.198  14.753  11.213
 7522SOL     OW24397   1.410   3.956   7.566
 7522SOL    HW124398   1.424   3.972   7.472
 7522SOL    HW224399   1.356   4.029   7.595
 7523SOL     OW24400  13.757   3.110   5.588
 7523SOL    HW124401  13.844   3.074   5.572
 7523SOL    HW224402  13.766   3.163   5.667
 7524SOL     OW24403  10.737  12.097   4.155
 7524SOL    HW124404  10.680  12.021   4.145
 7524SOL    HW224405  10.681  12.163   4.196
 7525SOL     OW24406   9.386  11.409  13.040
 7525SOL    HW124407   9.386  11.360  12.958
 7525SOL    HW224408   9.426  11.493  13.017
 7526SOL     OW24409   1.538   6.454   4.693
 7526SOL    HW124410   1.623   6.436   4.652
 7526SOL    HW224411   1.475   6.451   4.620
 7527SOL     OW24412   1.654   6.429   3.355
 7527SOL    HW124413   1.562   6.446   3.336
 7527SOL    HW224414   1.656   6.400   3.446
 7528SOL     OW24415   3.260  14.071   9.931
 7528SOL    HW124416   3.258  14.083  10.026
 7528SOL    HW224417   3.321  14.139   9.900
 7529SOL     OW24418   6.816  14.280   0.877
 7529SOL    HW124419   6.778  14.365   0.857
 7529SOL    HW224420   6.911  14.296   0.879
 7530SOL     OW24421  13.007  12.981  10.153
 7530SOL    HW124422  12.996  12.903  10.099
 7530SOL    HW224423  12.967  12.959  10.237
 7531SOL     OW24424   1.505  10.316   0.159
 7531SOL    HW124425   1.435  10.287   0.101
 7531SOL    HW224426   1.492  10.265   0.240
 7532SOL     OW24427   9.296   8.418   1.971
 7532SOL    HW124428   9.322   8.404   1.880
 7532SOL    HW224429   9.269   8.331   2.002
 7533SOL     OW24430  14.644   2.449   3.408
 7533SOL    HW124431  14.569   2.451   3.349
 7533SOL    HW224432  14.650   2.358   3.435
 7534SOL     OW24433  12.846   3.180   0.891
 7534SOL    HW124434  12.845   3.130   0.809
 7534SOL    HW224435  12.938   3.205   0.902
 7535SOL     OW24436   8.873   1.405   7.651
 7535SOL    HW124437   8.898   1.341   7.717
 7535SOL    HW224438   8.901   1.367   7.568
 7536SOL     OW24439  12.365  10.507   8.594
 7536SOL    HW124440  12.376  10.463   8.678
 7536SOL    HW224441  12.451  10.544   8.575
 7537SOL     OW24442   2.642   9.234  10.571
 7537SOL    HW124443   2.639   9.323  10.606
 7537SOL    HW224444   2.558   9.224  10.525
 7538SOL     OW24445   8.838   6.107  13.585
 7538SOL    HW124446   8.762   6.141  13.538
 7538SOL    HW224447   8.853   6.020  13.547
 7539SOL     OW24448   0.906   0.226   5.641
 7539SOL    HW124449   0.934   0.173   5.567
 7539SOL    HW224450   0.863   0.302   5.600
 7540SOL     OW24451   4.802   5.317   0.555
 7540SOL    HW124452   4.752   5.235   0.544
 7540SOL    HW224453   4.792   5.339   0.647
 7541SOL     OW24454   5.676  14.732  10.437
 7541SOL    HW124455   5.739  14.736  10.365
 7541SOL    HW224456   5.730  14.717  10.515
 7542SOL     OW24457   2.209   1.992   6.774
 7542SOL    HW124458   2.120   1.958   6.778
 7542SOL    HW224459   2.265   1.915   6.768
 7543SOL     OW24460   9.341   8.486   4.520
 7543SOL    HW124461   9.285   8.563   4.524
 7543SOL    HW224462   9.422   8.517   4.480
 7544SOL     OW24463   1.910   4.672  11.676
 7544SOL    HW124464   1.982   4.734  11.662
 7544SOL    HW224465   1.891   4.678  11.770
 7545SOL     OW24466  11.970  13.511   1.457
 7545SOL    HW124467  11.983  13.465   1.374
 7545SOL    HW224468  12.034  13.581   1.456
 7546SOL     OW24469   8.073   3.708  13.735
 7546SOL    HW124470   7.998   3.766  13.719
 7546SOL    HW224471   8.034   3.631  13.775
 7547SOL     OW24472   8.481   0.069   7.466
 7547SOL    HW124473   8.573   0.052   7.448
 7547SOL    HW224474   8.455  14.881   7.526
 7548SOL     OW24475  14.739   8.950   0.452
 7548SOL    HW124476  14.671   8.933   0.518
 7548SOL    HW224477  14.724   9.041   0.426
 7549SOL     OW24478  11.435   0.659   6.228
 7549SOL    HW124479  11.434   0.669   6.323
 7549SOL    HW224480  11.346   0.683   6.201
 7550SOL     OW24481   8.190  13.812   5.786
 7550SOL    HW124482   8.139  13.870   5.729
 7550SOL    HW224483   8.242  13.759   5.725
 7551SOL     OW24484  11.616   9.702   4.580
 7551SOL    HW124485  11.632   9.608   4.567
 7551SOL    HW224486  11.700   9.736   4.610
 7552SOL     OW24487   5.840   9.274  13.633
 7552SOL    HW124488   5.782   9.272  13.709
 7552SOL    HW224489   5.928   9.261  13.668
 7553SOL     OW24490   0.366   0.335  10.866
 7553SOL    HW124491   0.307   0.393  10.914
 7553SOL    HW224492   0.423   0.395  10.817
 7554SOL     OW24493   8.073   3.101  14.119
 7554SOL    HW124494   8.105   3.012  14.108
 7554SOL    HW224495   7.990   3.103  14.072
 7555SOL     OW24496   4.089   8.684  11.991
 7555SOL    HW124497   4.014   8.717  11.943
 7555SOL    HW224498   4.158   8.749  11.976
 7556SOL     OW24499   2.075   3.702   0.121
 7556SOL    HW124500   2.005   3.638   0.106
 7556SOL    HW224501   2.153   3.649   0.136
 7557SOL     OW24502   3.221  10.627   3.069
 7557SOL    HW124503   3.308  10.589   3.079
 7557SOL    HW224504   3.227  10.684   2.992
 7558SOL     OW24505  10.495  10.211  12.944
 7558SOL    HW124506  10.522  10.151  12.874
 7558SOL    HW224507  10.569  10.211  13.005
 7559SOL     OW24508   8.968   0.050   6.096
 7559SOL    HW124509   8.960  14.857   6.155
 7559SOL    HW224510   8.894   0.041   6.036
 7560SOL     OW24511   0.019   8.462   0.626
 7560SOL    HW124512   0.111   8.435   0.631
 7560SOL    HW224513   0.008   8.488   0.535
 7561SOL     OW24514   6.071  13.277   2.423
 7561SOL    HW124515   5.979  13.298   2.440
 7561SOL    HW224516   6.119  13.353   2.454
 7562SOL     OW24517  12.018  11.942   9.406
 7562SOL    HW124518  12.053  12.030   9.417
 7562SOL    HW224519  11.923  11.954   9.397
 7563SOL     OW24520   4.828   7.208  10.757
 7563SOL    HW124521   4.770   7.187  10.684
 7563SOL    HW224522   4.889   7.272  10.720
 7564SOL     OW24523   4.433   1.476   5.158
 7564SOL    HW124524   4.339   1.485   5.173
 7564SOL    HW224525   4.470   1.459   5.245
 7565SOL     OW24526  12.115   2.723  13.165
 7565SOL    HW124527  12.181   2.657  13.188
 7565SOL    HW224528  12.031   2.682  13.187
 7566SOL     OW24529  12.878   3.884   1.759
 7566SOL    HW124530  12.819   3.952   1.792
 7566SOL    HW224531  12.820   3.815   1.728
 7567SOL     OW24532   5.141  12.657   0.505
 7567SOL    HW124533   5.066  12.600   0.522
 7567SOL    HW224534   5.200  12.642   0.579
 7568SOL     OW24535   9.345   2.332  13.553
 7568SOL    HW124536   9.260   2.290  13.559
 7568SOL    HW224537   9.328   2.417  13.511
 7569SOL     OW24538   4.388   0.120   8.353
 7569SOL    HW124539   4.389   0.065   8.275
 7569SOL    HW224540   4.398   0.059   8.426
 7570SOL     OW24541   4.485   4.054   4.181
 7570SOL    HW124542   4.440   3.972   4.166
 7570SOL    HW224543   4.495   4.060   4.277
 7571SOL     OW24544  14.401   4.738   2.996
 7571SOL    HW124545  14.316   4.782   2.991
 7571SOL    HW224546  14.452   4.778   2.925
 7572SOL     OW24547  10.720   0.160  12.614
 7572SOL    HW124548  10.770   0.089  12.572
 7572SOL    HW224549  10.773   0.186  12.689
 7573SOL     OW24550   6.518  12.964   0.196
 7573SOL    HW124551   6.533  13.055   0.168
 7573SOL    HW224552   6.467  12.972   0.276
 7574SOL     OW24553   2.230   6.661   3.794
 7574SOL    HW124554   2.227   6.597   3.722
 7574SOL    HW224555   2.180   6.736   3.762
 7575SOL     OW24556   1.267   7.094   3.060
 7575SOL    HW124557   1.219   7.177   3.066
 7575SOL    HW224558   1.301   7.093   2.971
 7576SOL     OW24559   7.673  10.862   2.967
 7576SOL    HW124560   7.665  10.938   2.909
 7576SOL    HW224561   7.627  10.888   3.047
 7577SOL     OW24562  12.170  10.049   7.772
 7577SOL    HW124563  12.106  10.052   7.843
 7577SOL    HW224564  12.124  10.006   7.700
 7578SOL     OW24565   2.905   8.264   2.176
 7578SOL    HW124566   2.828   8.320   2.174
 7578SOL    HW224567   2.877   8.187   2.226
 7579SOL     OW24568  10.753   4.898   1.121
 7579SOL    HW124569  10.749   4.862   1.209
 7579SOL    HW224570  10.829   4.955   1.121
 7580SOL     OW24571   6.401   1.456   8.644
 7580SOL    HW124572   6.496   1.456   8.649
 7580SOL    HW224573   6.372   1.461   8.735
 7581SOL     OW24574  11.840  13.764  13.172
 7581SOL    HW124575  11.913  13.714  13.136
 7581SOL    HW224576  11.871  13.854  13.174
 7582SOL     OW24577   3.614   0.255   7.820
 7582SOL    HW124578   3.613   0.346   7.848
 7582SOL    HW224579   3.599   0.205   7.900
 7583SOL     OW24580   4.408   9.517   5.602
 7583SOL    HW124581   4.345   9.541   5.533
 7583SOL    HW224582   4.398   9.423   5.612
 7584SOL     OW24583  12.001   4.875   0.259
 7584SOL    HW124584  11.943   4.804   0.290
 7584SOL    HW224585  11.946   4.927   0.201
 7585SOL     OW24586   3.420  14.253   0.386
 7585SOL    HW124587   3.349  14.204   0.345
 7585SOL    HW224588   3.493  14.192   0.389
 7586SOL     OW24589   0.624   3.594  10.433
 7586SOL    HW124590   0.569   3.516  10.435
 7586SOL    HW224591   0.686   3.582  10.505
 7587SOL     OW24592   5.534   9.325  10.334
 7587SOL    HW124593   5.611   9.381  10.341
 7587SOL    HW224594   5.508   9.310  10.425
 7588SOL     OW24595  14.594   8.167   0.320
 7588SOL    HW124596  14.670   8.179   0.378
 7588SOL    HW224597  14.607   8.080   0.282
 7589SOL     OW24598  13.340  13.295  10.076
 7589SOL    HW124599  13.341  13.379  10.122
 7589SOL    HW224600  13.250  13.287  10.043
 7590SOL     OW24601  11.316   7.709   8.705
 7590SOL    HW124602  11.339   7.618   8.685
 7590SOL    HW224603  11.289   7.746   8.621
 7591SOL     OW24604  14.388  10.421  12.162
 7591SOL    HW124605  14.316  10.481  12.142
 7591SOL    HW224606  14.389  10.415  12.258
 7592SOL     OW24607   9.980   1.958   5.698
 7592SOL    HW124608   9.940   1.879   5.662
 7592SOL    HW224609   9.915   1.993   5.758
 7593SOL     OW24610   7.967  12.430   3.323
 7593SOL    HW124611   8.048  12.467   3.358
 7593SOL    HW224612   7.994  12.379   3.247
 7594SOL     OW24613   9.477   1.626   9.218
 7594SOL    HW124614   9.421   1.570   9.163
 7594SOL    HW224615   9.426   1.707   9.228
 7595SOL     OW24616  11.440   4.162   8.705
 7595SOL    HW124617  11.442   4.143   8.798
 7595SOL    HW224618  11.349   4.182   8.686
 7596SOL     OW24619   6.461   4.640   2.337
 7596SOL    HW124620   6.510   4.721   2.351
 7596SOL    HW224621   6.380   4.667   2.296
 7597SOL     OW24622  13.810  12.251   8.762
 7597SOL    HW124623  13.892  12.246   8.713
 7597SOL    HW224624  13.792  12.161   8.789
 7598SOL     OW24625   1.569   9.902   9.862
 7598SOL    HW124626   1.531   9.866   9.943
 7598SOL    HW224627   1.497   9.949   9.821
 7599SOL     OW24628  13.459   4.356  11.351
 7599SOL    HW124629  13.385   4.397  11.305
 7599SOL    HW224630  13.526   4.424  11.354
 7600SOL     OW24631   6.034   1.470   2.156
 7600SOL    HW124632   6.126   1.444   2.153
 7600SOL    HW224633   5.989   1.396   2.196
 7601SOL     OW24634   9.440   8.857   3.498
 7601SOL    HW124635   9.495   8.780   3.510
 7601SOL    HW224636   9.499   8.921   3.457
 7602SOL     OW24637  13.901  10.277  12.686
 7602SOL    HW124638  13.950  10.278  12.604
 7602SOL    HW224639  13.825  10.221  12.668
 7603SOL     OW24640  12.364  10.157  13.357
 7603SOL    HW124641  12.427  10.184  13.290
 7603SOL    HW224642  12.376  10.221  13.428
 7604SOL     OW24643  14.340   2.424  13.636
 7604SOL    HW124644  14.371   2.370  13.564
 7604SOL    HW224645  14.324   2.510  13.597
 7605SOL     OW24646  11.121   6.098  10.818
 7605SOL    HW124647  11.201   6.087  10.767
 7605SOL    HW224648  11.093   6.188  10.798
 7606SOL     OW24649   4.080   9.574  14.195
 7606SOL    HW124650   4.008   9.517  14.168
 7606SOL    HW224651   4.148   9.514  14.225
 7607SOL     OW24652   3.647   4.555   4.900
 7607SOL    HW124653   3.742   4.546   4.899
 7607SOL    HW224654   3.622   4.541   4.992
 7608SOL     OW24655  14.570   3.905   5.422
 7608SOL    HW124656  14.614   3.821   5.432
 7608SOL    HW224657  14.515   3.913   5.500
 7609SOL     OW24658  13.861   5.221   1.833
 7609SOL    HW124659  13.906   5.141   1.805
 7609SOL    HW224660  13.768   5.203   1.819
 7610SOL     OW24661   5.706   8.232   6.459
 7610SOL    HW124662   5.667   8.308   6.417
 7610SOL    HW224663   5.662   8.157   6.419
 7611SOL     OW24664   1.950  10.644   7.705
 7611SOL    HW124665   1.861  10.673   7.686
 7611SOL    HW224666   2.006  10.715   7.672
 7612SOL     OW24667  10.875   0.142   2.094
 7612SOL    HW124668  10.956   0.095   2.076
 7612SOL    HW224669  10.808   0.073   2.099
 7613SOL     OW24670   8.449   8.476   3.568
 7613SOL    HW124671   8.456   8.497   3.475
 7613SOL    HW224672   8.533   8.437   3.590
 7614SOL     OW24673  12.302   0.514  13.654
 7614SOL    HW124674  12.322   0.471  13.570
 7614SOL    HW224675  12.345   0.458  13.719
 7615SOL     OW24676   7.496   1.283  11.210
 7615SOL    HW124677   7.574   1.337  11.206
 7615SOL    HW224678   7.504   1.235  11.293
 7616SOL     OW24679   0.384  12.752   8.190
 7616SOL    HW124680   0.344  12.836   8.215
 7616SOL    HW224681   0.311  12.689   8.192
 7617SOL     OW24682  12.238   4.648   3.633
 7617SOL    HW124683  12.262   4.738   3.653
 7617SOL    HW224684  12.150   4.637   3.671
 7618SOL     OW24685   5.160   8.907  11.854
 7618SOL    HW124686   5.169   8.887  11.761
 7618SOL    HW224687   5.230   8.971  11.871
 7619SOL     OW24688   1.155   5.412   5.657
 7619SOL    HW124689   1.172   5.504   5.675
 7619SOL    HW224690   1.070   5.395   5.697
 7620SOL     OW24691   3.123  10.598   2.044
 7620SOL    HW124692   3.098  10.621   2.133
 7620SOL    HW224693   3.043  10.608   1.993
 7621SOL     OW24694   1.709   6.392   6.389
 7621SOL    HW124695   1.664   6.319   6.431
 7621SOL    HW224696   1.679   6.470   6.436
 7622SOL     OW24697   8.267   5.690   1.325
 7622SOL    HW124698   8.249   5.765   1.268
 7622SOL    HW224699   8.254   5.724   1.413
 7623SOL     OW24700   9.566   0.216  10.105
 7623SOL    HW124701   9.496   0.217  10.171
 7623SOL    HW224702   9.560   0.130  10.065
 7624SOL     OW24703   6.667  14.162  10.810
 7624SOL    HW124704   6.594  14.212  10.847
 7624SOL    HW224705   6.718  14.134  10.886
 7625SOL     OW24706  11.748  13.932   3.978
 7625SOL    HW124707  11.659  13.925   4.011
 7625SOL    HW224708  11.771  14.024   3.991
 7626SOL     OW24709  13.695   7.800   2.800
 7626SOL    HW124710  13.663   7.804   2.890
 7626SOL    HW224711  13.675   7.886   2.763
 7627SOL     OW24712   6.938  13.559   1.842
 7627SOL    HW124713   6.944  13.642   1.889
 7627SOL    HW224714   6.892  13.580   1.761
 7628SOL     OW24715   9.606   5.717   5.601
 7628SOL    HW124716   9.584   5.806   5.627
 7628SOL    HW224717   9.523   5.680   5.571
 7629SOL     OW24718  12.181   9.493  14.413
 7629SOL    HW124719  12.092   9.504  14.380
 7629SOL    HW224720  12.234   9.552  14.359
 7630SOL     OW24721  14.667   4.031   9.450
 7630SOL    HW124722  14.742   4.006   9.396
 7630SOL    HW224723  14.668   3.969   9.523
 7631SOL     OW24724  13.025   6.320   6.808
 7631SOL    HW124725  13.098   6.370   6.845
 7631SOL    HW224726  12.948   6.375   6.823
 7632SOL     OW24727  14.347  13.041   7.039
 7632SOL    HW124728  14.389  13.127   7.043
 7632SOL    HW224729  14.404  12.984   7.089
 7633SOL     OW24730   8.790  12.182  11.729
 7633SOL    HW124731   8.812  12.095  11.763
 7633SOL    HW224732   8.735  12.164  11.653
 7634SOL     OW24733  10.418   6.412   5.453
 7634SOL    HW124734  10.374   6.458   5.381
 7634SOL    HW224735  10.446   6.482   5.512
 7635SOL     OW24736  10.692  14.389   2.008
 7635SOL    HW124737  10.766  14.449   2.005
 7635SOL    HW224738  10.661  14.384   1.918
 7636SOL     OW24739  14.297   4.437   7.442
 7636SOL    HW124740  14.282   4.440   7.347
 7636SOL    HW224741  14.221   4.390   7.476
 7637SOL     OW24742   4.345  14.357  13.482
 7637SOL    HW124743   4.249  14.357  13.486
 7637SOL    HW224744   4.365  14.324  13.394
 7638SOL     OW24745  13.957   2.637  10.206
 7638SOL    HW124746  13.945   2.721  10.162
 7638SOL    HW224747  13.941   2.656  10.298
 7639SOL     OW24748   2.551  12.849  11.498
 7639SOL    HW124749   2.470  12.851  11.549
 7639SOL    HW224750   2.541  12.917  11.432
 7640SOL     OW24751  11.440   8.771   7.631
 7640SOL    HW124752  11.435   8.851   7.579
 7640SOL    HW224753  11.363   8.773   7.687
 7641SOL     OW24754  11.900   2.667   7.868
 7641SOL    HW124755  11.829   2.612   7.902
 7641SOL    HW224756  11.869   2.693   7.781
 7642SOL     OW24757  13.233  10.123  14.211
 7642SOL    HW124758  13.167  10.174  14.165
 7642SOL    HW224759  13.194  10.105  14.297
 7643SOL     OW24760   7.611   7.940   2.166
 7643SOL    HW124761   7.634   7.930   2.074
 7643SOL    HW224762   7.593   8.034   2.177
 7644SOL     OW24763  10.149  12.754   7.464
 7644SOL    HW124764  10.187  12.670   7.490
 7644SOL    HW224765  10.082  12.731   7.399
 7645SOL     OW24766  14.073   6.213   9.425
 7645SOL    HW124767  14.131   6.177   9.358
 7645SOL    HW224768  14.003   6.148   9.434
 7646SOL     OW24769   0.805   9.602  14.826
 7646SOL    HW124770   0.877   9.538  14.827
 7646SOL    HW224771   0.839   9.676  14.877
 7647SOL     OW24772   0.658   1.723   1.695
 7647SOL    HW124773   0.716   1.677   1.635
 7647SOL    HW224774   0.704   1.805   1.714
 7648SOL     OW24775  10.943   6.657   4.513
 7648SOL    HW124776  10.968   6.716   4.584
 7648SOL    HW224777  10.990   6.689   4.436
 7649SOL     OW24778  11.699   3.391   7.692
 7649SOL    HW124779  11.740   3.358   7.612
 7649SOL    HW224780  11.673   3.312   7.740
 7650SOL     OW24781  13.608   3.114   6.509
 7650SOL    HW124782  13.616   3.185   6.444
 7650SOL    HW224783  13.639   3.036   6.463
 7651SOL     OW24784   3.108  12.127   5.266
 7651SOL    HW124785   3.184  12.106   5.321
 7651SOL    HW224786   3.074  12.041   5.241
 7652SOL     OW24787  14.582   0.847  13.208
 7652SOL    HW124788  14.584   0.757  13.177
 7652SOL    HW224789  14.499   0.882  13.175
 7653SOL     OW24790  11.557   1.448  13.454
 7653SOL    HW124791  11.468   1.480  13.446
 7653SOL    HW224792  11.562   1.373  13.395
 7654SOL     OW24793  12.922  12.468   5.001
 7654SOL    HW124794  12.917  12.389   5.054
 7654SOL    HW224795  12.979  12.527   5.051
 7655SOL     OW24796   3.615   1.141  13.998
 7655SOL    HW124797   3.675   1.095  13.939
 7655SOL    HW224798   3.672   1.200  14.048
 7656SOL     OW24799   6.755   5.210   9.094
 7656SOL    HW124800   6.767   5.274   9.024
 7656SOL    HW224801   6.811   5.242   9.165
 7657SOL     OW24802  11.251   4.384   9.066
 7657SOL    HW124803  11.341   4.413   9.084
 7657SOL    HW224804  11.196   4.442   9.119
 7658SOL     OW24805  10.445   2.693   3.912
 7658SOL    HW124806  10.368   2.656   3.955
 7658SOL    HW224807  10.474   2.625   3.852
 7659SOL     OW24808   9.915  13.078   5.622
 7659SOL    HW124809   9.927  13.011   5.690
 7659SOL    HW224810   9.984  13.060   5.558
 7660SOL     OW24811   2.147   2.696   5.091
 7660SOL    HW124812   2.226   2.740   5.123
 7660SOL    HW224813   2.150   2.705   4.996
 7661SOL     OW24814   5.457   6.114  12.176
 7661SOL    HW124815   5.535   6.117  12.121
 7661SOL    HW224816   5.385   6.129  12.115
 7662SOL     OW24817   3.565   0.996   0.973
 7662SOL    HW124818   3.489   1.053   0.983
 7662SOL    HW224819   3.584   0.966   1.062
 7663SOL     OW24820   2.836   3.515   9.239
 7663SOL    HW124821   2.837   3.432   9.286
 7663SOL    HW224822   2.924   3.523   9.202
 7664SOL     OW24823   3.393   4.642   5.490
 7664SOL    HW124824   3.314   4.695   5.502
 7664SOL    HW224825   3.362   4.559   5.454
 7665SOL     OW24826  10.351  12.400   0.565
 7665SOL    HW124827  10.309  12.388   0.650
 7665SOL    HW224828  10.284  12.372   0.502
 7666SOL     OW24829   5.364  13.041  12.642
 7666SOL    HW124830   5.329  12.953  12.627
 7666SOL    HW224831   5.443  13.026  12.693
 7667SOL     OW24832  10.132   2.055   2.803
 7667SOL    HW124833  10.167   1.971   2.832
 7667SOL    HW224834  10.172   2.120   2.862
 7668SOL     OW24835   5.505   7.084  11.989
 7668SOL    HW124836   5.474   7.017  11.929
 7668SOL    HW224837   5.486   7.048  12.076
 7669SOL     OW24838   0.057   4.924  12.313
 7669SOL    HW124839   0.073   4.975  12.392
 7669SOL    HW224840   0.143   4.895  12.285
 7670SOL     OW24841  12.074  12.770   1.947
 7670SOL    HW124842  12.066  12.770   1.852
 7670SOL    HW224843  12.121  12.689   1.967
 7671SOL     OW24844   7.770  13.449   6.302
 7671SOL    HW124845   7.779  13.543   6.319
 7671SOL    HW224846   7.852  13.424   6.259
 7672SOL     OW24847  10.744  10.694   6.944
 7672SOL    HW124848  10.733  10.600   6.961
 7672SOL    HW224849  10.805  10.724   7.011
 7673SOL     OW24850   4.398   2.560   3.207
 7673SOL    HW124851   4.432   2.630   3.262
 7673SOL    HW224852   4.475   2.509   3.182
 7674SOL     OW24853   9.427  14.654   1.126
 7674SOL    HW124854   9.504  14.598   1.115
 7674SOL    HW224855   9.387  14.657   1.039
 7675SOL     OW24856   1.239  11.860   1.466
 7675SOL    HW124857   1.177  11.823   1.529
 7675SOL    HW224858   1.248  11.951   1.491
 7676SOL     OW24859   3.013  13.538  13.153
 7676SOL    HW124860   2.917  13.543  13.150
 7676SOL    HW224861   3.041  13.557  13.064
 7677SOL     OW24862  14.233   5.330  10.417
 7677SOL    HW124863  14.157   5.309  10.471
 7677SOL    HW224864  14.291   5.379  10.476
 7678SOL     OW24865  11.180   2.163   6.097
 7678SOL    HW124866  11.091   2.191   6.118
 7678SOL    HW224867  11.212   2.121   6.177
 7679SOL     OW24868   2.507  12.065   0.846
 7679SOL    HW124869   2.556  12.147   0.847
 7679SOL    HW224870   2.418  12.091   0.822
 7680SOL     OW24871  11.256   5.482  13.761
 7680SOL    HW124872  11.351   5.477  13.762
 7680SOL    HW224873  11.230   5.438  13.680
 7681SOL     OW24874  12.551   3.014   8.398
 7681SOL    HW124875  12.639   3.023   8.435
 7681SOL    HW224876  12.497   3.069   8.454
 7682SOL     OW24877  13.309  10.880   8.633
 7682SOL    HW124878  13.348  10.880   8.545
 7682SOL    HW224879  13.226  10.834   8.621
 7683SOL     OW24880   5.891   2.232  11.643
 7683SOL    HW124881   5.962   2.175  11.614
 7683SOL    HW224882   5.912   2.253  11.734
 7684SOL     OW24883   1.909   7.436   7.357
 7684SOL    HW124884   1.915   7.341   7.346
 7684SOL    HW224885   1.828   7.449   7.406
 7685SOL     OW24886   1.053  12.038   4.979
 7685SOL    HW124887   1.085  12.005   5.063
 7685SOL    HW224888   1.032  12.130   4.996
 7686SOL     OW24889   8.690  11.021  10.394
 7686SOL    HW124890   8.748  10.969  10.338
 7686SOL    HW224891   8.743  11.042  10.471
 7687SOL     OW24892   3.966   3.483   5.913
 7687SOL    HW124893   4.057   3.510   5.926
 7687SOL    HW224894   3.940   3.444   5.997
 7688SOL     OW24895  14.439   6.070   7.593
 7688SOL    HW124896  14.450   6.086   7.499
 7688SOL    HW224897  14.439   5.975   7.602
 7689SOL     OW24898   3.219   9.956  11.817
 7689SOL    HW124899   3.152   9.976  11.752
 7689SOL    HW224900   3.292   9.921  11.767
 7690SOL     OW24901   8.179  14.566   5.369
 7690SOL    HW124902   8.143  14.566   5.280
 7690SOL    HW224903   8.199  14.657   5.387
 7691SOL     OW24904   8.579   7.703   4.078
 7691SOL    HW124905   8.562   7.611   4.059
 7691SOL    HW224906   8.609   7.704   4.169
 7692SOL     OW24907  13.804  12.221  14.693
 7692SOL    HW124908  13.892  12.217  14.733
 7692SOL    HW224909  13.757  12.284  14.747
 7693SOL     OW24910  10.002   5.963   9.718
 7693SOL    HW124911  10.001   6.043   9.665
 7693SOL    HW224912   9.917   5.962   9.762
 7694SOL     OW24913   6.049   0.518  13.712
 7694SOL    HW124914   6.076   0.437  13.755
 7694SOL    HW224915   5.954   0.510  13.702
 7695SOL     OW24916  11.535   2.873   8.862
 7695SOL    HW124917  11.545   2.905   8.951
 7695SOL    HW224918  11.553   2.949   8.806
 7696SOL     OW24919  14.227  11.181   7.477
 7696SOL    HW124920  14.294  11.112   7.487
 7696SOL    HW224921  14.218  11.190   7.382
 7697SOL     OW24922   7.816   1.414   6.801
 7697SOL    HW124923   7.814   1.393   6.708
 7697SOL    HW224924   7.887   1.361   6.837
 7698SOL     OW24925  11.139  11.630   0.242
 7698SOL    HW124926  11.165  11.547   0.202
 7698SOL    HW224927  11.144  11.614   0.336
 7699SOL     OW24928   6.594   7.362   8.003
 7699SOL    HW124929   6.603   7.454   7.978
 7699SOL    HW224930   6.500   7.352   8.020
 7700SOL     OW24931   8.764   2.864  14.578
 7700SOL    HW124932   8.809   2.837  14.498
 7700SOL    HW224933   8.695   2.799  14.589
 7701SOL     OW24934   7.905   0.305   6.553
 7701SOL    HW124935   7.896   0.265   6.466
 7701SOL    HW224936   7.878   0.236   6.614
 7702SOL     OW24937  14.744  10.275   6.285
 7702SOL    HW124938  14.687  10.301   6.357
 7702SOL    HW224939  14.729  10.181   6.275
 7703SOL     OW24940   9.120  11.689  13.411
 7703SOL    HW124941   9.201  11.653  13.449
 7703SOL    HW224942   9.146  11.773  13.375
 7704SOL     OW24943   4.969   8.872   5.431
 7704SOL    HW124944   5.015   8.900   5.509
 7704SOL    HW224945   5.038   8.847   5.370
 7705SOL     OW24946  12.677   5.701   2.216
 7705SOL    HW124947  12.705   5.763   2.149
 7705SOL    HW224948  12.607   5.746   2.263
 7706SOL     OW24949   4.986  13.706   3.439
 7706SOL    HW124950   5.009  13.750   3.357
 7706SOL    HW224951   4.893  13.688   3.431
 7707SOL     OW24952  14.627   8.267   7.451
 7707SOL    HW124953  14.588   8.209   7.517
 7707SOL    HW224954  14.565   8.340   7.444
 7708SOL     OW24955  12.567   3.233   0.094
 7708SOL    HW124956  12.618   3.187   0.027
 7708SOL    HW224957  12.476   3.216   0.071
 7709SOL     OW24958   3.666  10.297  13.502
 7709SOL    HW124959   3.645  10.205  13.516
 7709SOL    HW224960   3.684  10.331  13.590
 7710SOL     OW24961   3.356  10.539  13.217
 7710SOL    HW124962   3.295  10.522  13.288
 7710SOL    HW224963   3.429  10.478  13.232
 7711SOL     OW24964   4.888  13.354  13.967
 7711SOL    HW124965   4.968  13.312  13.998
 7711SOL    HW224966   4.819  13.318  14.023
 7712SOL     OW24967  13.323  12.334  10.736
 7712SOL    HW124968  13.335  12.286  10.654
 7712SOL    HW224969  13.404  12.318  10.785
 7713SOL     OW24970   4.380   3.158   0.726
 7713SOL    HW124971   4.398   3.241   0.770
 7713SOL    HW224972   4.465   3.132   0.689
 7714SOL     OW24973   8.509   0.655   8.183
 7714SOL    HW124974   8.582   0.700   8.141
 7714SOL    HW224975   8.541   0.566   8.198
 7715SOL     OW24976  11.913  14.602   2.695
 7715SOL    HW124977  11.872  14.517   2.710
 7715SOL    HW224978  11.914  14.611   2.600
 7716SOL     OW24979  12.821   5.435   6.304
 7716SOL    HW124980  12.728   5.420   6.323
 7716SOL    HW224981  12.823   5.517   6.255
 7717SOL     OW24982   7.128   2.691   1.473
 7717SOL    HW124983   7.072   2.762   1.442
 7717SOL    HW224984   7.080   2.611   1.450
 7718SOL     OW24985   3.376   0.213   1.688
 7718SOL    HW124986   3.354   0.229   1.596
 7718SOL    HW224987   3.463   0.252   1.699
 7719SOL     OW24988   9.945  12.268  13.600
 7719SOL    HW124989   9.980  12.346  13.557
 7719SOL    HW224990  10.020  12.229  13.645
 7720SOL     OW24991   8.863   9.659  10.482
 7720SOL    HW124992   8.884   9.694  10.396
 7720SOL    HW224993   8.770   9.637  10.477
 7721SOL     OW24994   4.224   9.337  11.325
 7721SOL    HW124995   4.129   9.337  11.340
 7721SOL    HW224996   4.245   9.429  11.311
 7722SOL     OW24997   0.911  11.106  10.446
 7722SOL    HW124998   0.942  11.088  10.535
 7722SOL    HW224999   0.985  11.149  10.404
 7723SOL     OW25000   8.762   9.620   5.703
 7723SOL    HW125001   8.764   9.715   5.714
 7723SOL    HW225002   8.681   9.602   5.654
 7724SOL     OW25003  11.179   3.399   1.297
 7724SOL    HW125004  11.221   3.437   1.374
 7724SOL    HW225005  11.206   3.456   1.225
 7725SOL     OW25006   0.862   5.775   1.569
 7725SOL    HW125007   0.820   5.861   1.576
 7725SOL    HW225008   0.792   5.712   1.589
 7726SOL     OW25009   9.931   2.269   6.592
 7726SOL    HW125010   9.995   2.324   6.636
 7726SOL    HW225011   9.981   2.218   6.529
 7727SOL     OW25012   8.982   6.093   9.771
 7727SOL    HW125013   9.066   6.065   9.737
 7727SOL    HW225014   8.918   6.064   9.706
 7728SOL     OW25015  14.489   5.892   4.448
 7728SOL    HW125016  14.477   5.857   4.536
 7728SOL    HW225017  14.576   5.862   4.422
 7729SOL     OW25018   8.908  12.705   6.776
 7729SOL    HW125019   8.983  12.762   6.764
 7729SOL    HW225020   8.852  12.751   6.838
 7730SOL     OW25021  10.885   0.505  11.569
 7730SOL    HW125022  10.832   0.425  11.566
 7730SOL    HW225023  10.852   0.553  11.645
 7731SOL     OW25024   5.473   9.832   9.142
 7731SOL    HW125025   5.388   9.799   9.114
 7731SOL    HW225026   5.452   9.902   9.203
 7732SOL     OW25027   8.281   6.693  11.288
 7732SOL    HW125028   8.321   6.780  11.296
 7732SOL    HW225029   8.350   6.639  11.250
 7733SOL     OW25030  10.585   0.846   7.139
 7733SOL    HW125031  10.517   0.786   7.109
 7733SOL    HW225032  10.665   0.794   7.138
 7734SOL     OW25033   6.262   2.186   9.654
 7734SOL    HW125034   6.339   2.149   9.610
 7734SOL    HW225035   6.277   2.168   9.746
 7735SOL     OW25036   0.229   4.040   2.237
 7735SOL    HW125037   0.286   4.117   2.240
 7735SOL    HW225038   0.153   4.068   2.186
 7736SOL     OW25039  11.335  10.334   0.873
 7736SOL    HW125040  11.301  10.268   0.813
 7736SOL    HW225041  11.259  10.388   0.894
 7737SOL     OW25042  10.756  10.672  13.603
 7737SOL    HW125043  10.756  10.704  13.512
 7737SOL    HW225044  10.803  10.740  13.652
 7738SOL     OW25045   6.423   5.692  14.749
 7738SOL    HW125046   6.414   5.633  14.674
 7738SOL    HW225047   6.387   5.644  14.823
 7739SOL     OW25048   6.580  10.199   7.750
 7739SOL    HW125049   6.535  10.221   7.832
 7739SOL    HW225050   6.659  10.254   7.752
 7740SOL     OW25051  13.941   0.903   4.041
 7740SOL    HW125052  13.852   0.871   4.060
 7740SOL    HW225053  13.980   0.917   4.127
 7741SOL     OW25054   4.581   8.050   8.546
 7741SOL    HW125055   4.520   8.079   8.613
 7741SOL    HW225056   4.641   8.124   8.535
 7742SOL     OW25057   3.457   2.610  14.635
 7742SOL    HW125058   3.454   2.571  14.548
 7742SOL    HW225059   3.545   2.590  14.667
 7743SOL     OW25060   0.816  14.045  14.684
 7743SOL    HW125061   0.862  13.990  14.748
 7743SOL    HW225062   0.827  13.999  14.601
 7744SOL     OW25063   8.285   1.914  11.251
 7744SOL    HW125064   8.344   1.988  11.241
 7744SOL    HW225065   8.222   1.942  11.317
 7745SOL     OW25066   2.703   9.932   1.879
 7745SOL    HW125067   2.721  10.022   1.851
 7745SOL    HW225068   2.622   9.909   1.834
 7746SOL     OW25069   9.587   2.955  10.266
 7746SOL    HW125070   9.576   3.023  10.332
 7746SOL    HW225071   9.656   2.989  10.209
 7747SOL     OW25072   7.048  13.020  10.337
 7747SOL    HW125073   6.990  12.961  10.289
 7747SOL    HW225074   7.102  12.961  10.391
 7748SOL     OW25075  14.166   5.406   9.555
 7748SOL    HW125076  14.117   5.327   9.536
 7748SOL    HW225077  14.238   5.377   9.611
 7749SOL     OW25078  14.014   2.700   7.768
 7749SOL    HW125079  14.009   2.609   7.740
 7749SOL    HW225080  13.998   2.751   7.689
 7750SOL     OW25081  11.336   7.151   4.707
 7750SOL    HW125082  11.298   7.200   4.633
 7750SOL    HW225083  11.392   7.214   4.751
 7751SOL     OW25084   5.964  10.682   1.995
 7751SOL    HW125085   6.014  10.742   2.050
 7751SOL    HW225086   6.010  10.598   2.004
 7752SOL     OW25087   4.682   2.757   1.356
 7752SOL    HW125088   4.615   2.825   1.350
 7752SOL    HW225089   4.635   2.676   1.336
 7753SOL     OW25090   1.988   2.399   8.684
 7753SOL    HW125091   2.012   2.330   8.622
 7753SOL    HW225092   1.969   2.475   8.629
 7754SOL     OW25093   0.504   6.711  11.039
 7754SOL    HW125094   0.418   6.684  11.070
 7754SOL    HW225095   0.500   6.702  10.944
 7755SOL     OW25096   8.033   9.442  13.097
 7755SOL    HW125097   8.044   9.537  13.094
 7755SOL    HW225098   7.991   9.425  13.182
 7756SOL     OW25099   3.109  14.194   5.262
 7756SOL    HW125100   3.188  14.207   5.210
 7756SOL    HW225101   3.094  14.278   5.305
 7757SOL     OW25102  12.617   6.618   5.280
 7757SOL    HW125103  12.637   6.611   5.186
 7757SOL    HW225104  12.630   6.711   5.300
 7758SOL     OW25105  13.199  12.242  14.807
 7758SOL    HW125106  13.112  12.232  14.770
 7758SOL    HW225107  13.254  12.183  14.755
 7759SOL     OW25108   4.671   1.595   1.825
 7759SOL    HW125109   4.736   1.581   1.756
 7759SOL    HW225110   4.656   1.507   1.861
 7760SOL     OW25111   7.863   9.996  10.500
 7760SOL    HW125112   7.855   9.958  10.587
 7760SOL    HW225113   7.834  10.087  10.511
 7761SOL     OW25114   2.889   6.678  10.044
 7761SOL    HW125115   2.832   6.601  10.048
 7761SOL    HW225116   2.844   6.738   9.985
 7762SOL     OW25117   3.937  14.739   7.442
 7762SOL    HW125118   3.848  14.718   7.469
 7762SOL    HW225119   3.964  14.664   7.388
 7763SOL     OW25120   3.752  14.636   7.643
 7763SOL    HW125121   3.676  14.668   7.596
 7763SOL    HW225122   3.776  14.555   7.597
 7764SOL     OW25123   2.343   9.212   0.503
 7764SOL    HW125124   2.262   9.196   0.455
 7764SOL    HW225125   2.412   9.177   0.446
 7765SOL     OW25126   3.546   9.354   0.488
 7765SOL    HW125127   3.554   9.259   0.482
 7765SOL    HW225128   3.453   9.371   0.479
 7766SOL     OW25129   6.586   8.738   7.774
 7766SOL    HW125130   6.511   8.726   7.833
 7766SOL    HW225131   6.662   8.740   7.832
 7767SOL     OW25132   1.548  12.587   5.574
 7767SOL    HW125133   1.561  12.611   5.666
 7767SOL    HW225134   1.500  12.504   5.578
 7768SOL     OW25135   7.966  11.038   3.458
 7768SOL    HW125136   8.019  11.116   3.440
 7768SOL    HW225137   7.942  11.006   3.371
 7769SOL     OW25138   9.888   1.336   5.082
 7769SOL    HW125139   9.869   1.342   4.988
 7769SOL    HW225140   9.915   1.245   5.095
 7770SOL     OW25141  12.187   8.910  13.788
 7770SOL    HW125142  12.129   8.889  13.715
 7770SOL    HW225143  12.216   8.824  13.820
 7771SOL     OW25144  12.363   4.291   4.832
 7771SOL    HW125145  12.403   4.292   4.919
 7771SOL    HW225146  12.437   4.287   4.771
 7772SOL     OW25147  11.656   7.281   3.738
 7772SOL    HW125148  11.625   7.191   3.748
 7772SOL    HW225149  11.580   7.330   3.709
 7773SOL     OW25150  11.126   4.905   6.360
 7773SOL    HW125151  11.139   4.992   6.322
 7773SOL    HW225152  11.215   4.874   6.379
 7774SOL     OW25153   6.846   5.474  12.094
 7774SOL    HW125154   6.844   5.378  12.087
 7774SOL    HW225155   6.864   5.504  12.005
 7775SOL     OW25156   8.663   2.432   2.539
 7775SOL    HW125157   8.669   2.518   2.580
 7775SOL    HW225158   8.576   2.401   2.562
 7776SOL     OW25159  11.484   9.805  11.657
 7776SOL    HW125160  11.529   9.805  11.742
 7776SOL    HW225161  11.404   9.856  11.673
 7777SOL     OW25162  13.612   0.841   1.760
 7777SOL    HW125163  13.625   0.752   1.793
 7777SOL    HW225164  13.632   0.897   1.835
 7778SOL     OW25165   1.306   8.045   6.372
 7778SOL    HW125166   1.268   8.123   6.413
 7778SOL    HW225167   1.241   8.017   6.309
 7779SOL     OW25168   5.602   3.395   1.240
 7779SOL    HW125169   5.579   3.364   1.152
 7779SOL    HW225170   5.690   3.361   1.255
 7780SOL     OW25171   8.853   3.888   7.146
 7780SOL    HW125172   8.939   3.924   7.169
 7780SOL    HW225173   8.796   3.964   7.137
 7781SOL     OW25174   1.398  12.704  14.816
 7781SOL    HW125175   1.410  12.679  14.725
 7781SOL    HW225176   1.367  12.794  14.813
 7782SOL     OW25177  12.554  11.279   0.346
 7782SOL    HW125178  12.516  11.221   0.279
 7782SOL    HW225179  12.523  11.242   0.429
 7783SOL     OW25180   0.716  14.700   3.466
 7783SOL    HW125181   0.702  14.621   3.415
 7783SOL    HW225182   0.640  14.705   3.524
 7784SOL     OW25183   2.648  12.688   4.379
 7784SOL    HW125184   2.605  12.664   4.296
 7784SOL    HW225185   2.739  12.662   4.366
 7785SOL     OW25186   2.534   8.458   8.238
 7785SOL    HW125187   2.544   8.364   8.223
 7785SOL    HW225188   2.530   8.496   8.151
 7786SOL     OW25189   4.247   7.194   0.532
 7786SOL    HW125190   4.239   7.243   0.614
 7786SOL    HW225191   4.314   7.128   0.550
 7787SOL     OW25192  11.455  13.288  14.860
 7787SOL    HW125193  11.523  13.315  14.798
 7787SOL    HW225194  11.495  13.299   0.064
 7788SOL     OW25195   5.107   6.842  10.611
 7788SOL    HW125196   5.096   6.754  10.575
 7788SOL    HW225197   5.147   6.827  10.697
 7789SOL     OW25198   6.400   2.199   1.455
 7789SOL    HW125199   6.401   2.105   1.474
 7789SOL    HW225200   6.464   2.237   1.514
 7790SOL     OW25201   8.235  13.318  14.845
 7790SOL    HW125202   8.176  13.275   0.025
 7790SOL    HW225203   8.296  13.367   0.018
 7791SOL     OW25204   0.443   9.436   9.779
 7791SOL    HW125205   0.506   9.364   9.770
 7791SOL    HW225206   0.358   9.396   9.755
 7792SOL     OW25207   9.070   6.568  14.267
 7792SOL    HW125208   9.121   6.487  14.270
 7792SOL    HW225209   9.067   6.597  14.358
 7793SOL     OW25210   6.383   1.203   1.528
 7793SOL    HW125211   6.354   1.294   1.541
 7793SOL    HW225212   6.375   1.189   1.433
 7794SOL     OW25213   3.100   8.693  11.912
 7794SOL    HW125214   3.089   8.771  11.966
 7794SOL    HW225215   3.022   8.691  11.856
 7795SOL     OW25216   5.916   4.306   9.589
 7795SOL    HW125217   5.946   4.238   9.530
 7795SOL    HW225218   5.829   4.277   9.618
 7796SOL     OW25219   8.125   7.504   9.145
 7796SOL    HW125220   8.101   7.412   9.137
 7796SOL    HW225221   8.218   7.507   9.121
 7797SOL     OW25222   2.798  11.979  11.555
 7797SOL    HW125223   2.833  11.919  11.620
 7797SOL    HW225224   2.875  12.019  11.515
 7798SOL     OW25225  13.369   8.323  11.149
 7798SOL    HW125226  13.462   8.337  11.134
 7798SOL    HW225227  13.356   8.229  11.138
 7799SOL     OW25228  10.640   6.183  12.984
 7799SOL    HW125229  10.697   6.114  13.019
 7799SOL    HW225230  10.567   6.137  12.944
 7800SOL     OW25231  10.175  13.269   6.685
 7800SOL    HW125232  10.165  13.235   6.774
 7800SOL    HW225233  10.103  13.228   6.636
 7801SOL     OW25234  14.621   9.216   2.864
 7801SOL    HW125235  14.531   9.242   2.886
 7801SOL    HW225236  14.675   9.260   2.930
 7802SOL     OW25237   6.259  10.442  10.142
 7802SOL    HW125238   6.273  10.466  10.051
 7802SOL    HW225239   6.165  10.455  10.156
 7803SOL     OW25240  14.699  11.801   3.702
 7803SOL    HW125241  14.739  11.888   3.702
 7803SOL    HW225242  14.760  11.747   3.652
 7804SOL     OW25243   6.036  11.588   9.832
 7804SOL    HW125244   5.956  11.571   9.782
 7804SOL    HW225245   6.097  11.519   9.805
 7805SOL     OW25246   7.508   8.593   2.718
 7805SOL    HW125247   7.544   8.638   2.642
 7805SOL    HW225248   7.583   8.578   2.775
 7806SOL     OW25249  12.456   4.819   3.906
 7806SOL    HW125250  12.467   4.914   3.902
 7806SOL    HW225251  12.362   4.806   3.893
 7807SOL     OW25252   6.419  10.264   6.667
 7807SOL    HW125253   6.424  10.242   6.574
 7807SOL    HW225254   6.478  10.201   6.709
 7808SOL     OW25255   5.256  14.523  11.293
 7808SOL    HW125256   5.163  14.540  11.278
 7808SOL    HW225257   5.275  14.568  11.376
 7809SOL     OW25258  12.798  13.369  10.089
 7809SOL    HW125259  12.854  13.371  10.166
 7809SOL    HW225260  12.763  13.458  10.082
 7810SOL     OW25261   4.396  14.319   8.620
 7810SOL    HW125262   4.404  14.235   8.665
 7810SOL    HW225263   4.342  14.301   8.543
 7811SOL     OW25264  11.676   5.844   6.073
 7811SOL    HW125265  11.623   5.801   6.006
 7811SOL    HW225266  11.751   5.879   6.026
 7812SOL     OW25267  12.484   7.319  11.175
 7812SOL    HW125268  12.500   7.226  11.156
 7812SOL    HW225269  12.471   7.358  11.088
 7813SOL     OW25270  11.326   2.649   8.810
 7813SOL    HW125271  11.378   2.725   8.836
 7813SOL    HW225272  11.301   2.666   8.719
 7814SOL     OW25273   5.758  13.585  12.394
 7814SOL    HW125274   5.712  13.586  12.478
 7814SOL    HW225275   5.848  13.562  12.416
 7815SOL     OW25276   4.433   8.849   1.077
 7815SOL    HW125277   4.406   8.766   1.036
 7815SOL    HW225278   4.405   8.841   1.168
 7816SOL     OW25279   7.633   3.194  14.698
 7816SOL    HW125280   7.541   3.213  14.715
 7816SOL    HW225281   7.637   3.099  14.686
 7817SOL     OW25282   0.165  10.595   1.190
 7817SOL    HW125283   0.177  10.554   1.276
 7817SOL    HW225284   0.245  10.646   1.177
 7818SOL     OW25285   2.546   4.674  13.484
 7818SOL    HW125286   2.624   4.625  13.511
 7818SOL    HW225287   2.523   4.726  13.561
 7819SOL     OW25288  11.776   1.667   6.907
 7819SOL    HW125289  11.839   1.663   6.979
 7819SOL    HW225290  11.783   1.756   6.872
 7820SOL     OW25291   3.186   9.521  10.810
 7820SOL    HW125292   3.097   9.494  10.833
 7820SOL    HW225293   3.242   9.451  10.845
 7821SOL     OW25294   2.620   4.467   3.733
 7821SOL    HW125295   2.574   4.457   3.649
 7821SOL    HW225296   2.702   4.512   3.709
 7822SOL     OW25297  13.801   9.016  14.390
 7822SOL    HW125298  13.713   8.979  14.390
 7822SOL    HW225299  13.850   8.962  14.328
 7823SOL     OW25300  14.167   1.083  14.728
 7823SOL    HW125301  14.097   1.032  14.688
 7823SOL    HW225302  14.155   1.071  14.822
 7824SOL     OW25303   0.187   5.735   0.602
 7824SOL    HW125304   0.207   5.662   0.661
 7824SOL    HW225305   0.195   5.699   0.514
 7825SOL     OW25306  11.160  11.248  13.019
 7825SOL    HW125307  11.250  11.231  12.991
 7825SOL    HW225308  11.141  11.178  13.081
 7826SOL     OW25309   3.716   2.067   5.601
 7826SOL    HW125310   3.718   2.127   5.676
 7826SOL    HW225311   3.776   1.997   5.625
 7827SOL     OW25312  14.189   8.880   7.295
 7827SOL    HW125313  14.230   8.798   7.322
 7827SOL    HW225314  14.222   8.895   7.206
 7828SOL     OW25315  13.976  12.783   7.306
 7828SOL    HW125316  13.988  12.861   7.252
 7828SOL    HW225317  13.917  12.727   7.256
 7829SOL     OW25318  11.377   8.533  13.529
 7829SOL    HW125319  11.423   8.617  13.521
 7829SOL    HW225320  11.349   8.513  13.439
 7830SOL     OW25321   9.053   7.670  13.476
 7830SOL    HW125322   8.995   7.722  13.420
 7830SOL    HW225323   9.140   7.703  13.456
 7831SOL     OW25324  12.892  12.569   6.807
 7831SOL    HW125325  12.803  12.602   6.817
 7831SOL    HW225326  12.882  12.489   6.755
 7832SOL     OW25327  14.471   0.484   0.643
 7832SOL    HW125328  14.547   0.474   0.586
 7832SOL    HW225329  14.418   0.406   0.625
 7833SOL     OW25330   9.985   8.027  11.016
 7833SOL    HW125331   9.976   8.107  11.067
 7833SOL    HW225332   9.924   8.037  10.943
 7834SOL     OW25333   7.538   8.692  12.741
 7834SOL    HW125334   7.633   8.699  12.743
 7834SOL    HW225335   7.517   8.668  12.651
 7835SOL     OW25336   3.585   7.624   0.093
 7835SOL    HW125337   3.655   7.688   0.090
 7835SOL    HW225338   3.623   7.548   0.138
 7836SOL     OW25339  11.068   7.312  12.617
 7836SOL    HW125340  11.117   7.316  12.700
 7836SOL    HW225341  11.128   7.351  12.553
 7837SOL     OW25342   0.255  14.023   2.474
 7837SOL    HW125343   0.300  13.989   2.397
 7837SOL    HW225344   0.317  14.007   2.546
 7838SOL     OW25345   4.152  14.876   6.765
 7838SOL    HW125346   4.217   0.059   6.736
 7838SOL    HW225347   4.182  14.793   6.727
 7839SOL     OW25348  12.718  10.913   6.321
 7839SOL    HW125349  12.668  10.898   6.242
 7839SOL    HW225350  12.713  11.007   6.336
 7840SOL     OW25351   9.862   2.748   3.031
 7840SOL    HW125352   9.895   2.727   3.119
 7840SOL    HW225353   9.931   2.717   2.972
 7841SOL     OW25354   2.681   1.671   5.358
 7841SOL    HW125355   2.586   1.685   5.363
 7841SOL    HW225356   2.712   1.741   5.299
 7842SOL     OW25357   6.526   7.628   4.402
 7842SOL    HW125358   6.456   7.633   4.468
 7842SOL    HW225359   6.575   7.549   4.427
 7843SOL     OW25360   3.228   6.640   5.201
 7843SOL    HW125361   3.180   6.581   5.143
 7843SOL    HW225362   3.232   6.723   5.154
 7844SOL     OW25363  13.043   8.991   3.964
 7844SOL    HW125364  13.019   8.952   3.880
 7844SOL    HW225365  12.987   9.068   3.971
 7845SOL     OW25366  13.901   0.439   2.776
 7845SOL    HW125367  13.949   0.371   2.728
 7845SOL    HW225368  13.904   0.411   2.867
 7846SOL     OW25369   4.121   3.157  11.222
 7846SOL    HW125370   4.136   3.089  11.156
 7846SOL    HW225371   4.032   3.141  11.253
 7847SOL     OW25372   0.627   1.169  14.422
 7847SOL    HW125373   0.560   1.204  14.481
 7847SOL    HW225374   0.688   1.242  14.410
 7848SOL     OW25375   1.918   9.143  12.924
 7848SOL    HW125376   1.897   9.207  12.991
 7848SOL    HW225377   1.898   9.058  12.964
 7849SOL     OW25378   4.467   5.811   9.860
 7849SOL    HW125379   4.457   5.859   9.942
 7849SOL    HW225380   4.535   5.859   9.812
 7850SOL     OW25381  12.805   9.349   5.045
 7850SOL    HW125382  12.794   9.427   4.991
 7850SOL    HW225383  12.779   9.377   5.133
 7851SOL     OW25384  14.165   0.281  10.501
 7851SOL    HW125385  14.113   0.209  10.537
 7851SOL    HW225386  14.119   0.360  10.530
 7852SOL     OW25387   4.501  12.853   4.332
 7852SOL    HW125388   4.493  12.786   4.400
 7852SOL    HW225389   4.430  12.832   4.270
 7853SOL     OW25390   8.279   9.275   4.821
 7853SOL    HW125391   8.200   9.244   4.866
 7853SOL    HW225392   8.254   9.275   4.728
 7854SOL     OW25393  10.259  12.754   1.554
 7854SOL    HW125394  10.209  12.821   1.506
 7854SOL    HW225395  10.200  12.679   1.560
 7855SOL     OW25396   4.965   4.722   0.727
 7855SOL    HW125397   4.901   4.713   0.797
 7855SOL    HW225398   5.039   4.669   0.754
 7856SOL     OW25399   6.885  11.397   6.439
 7856SOL    HW125400   6.962  11.425   6.390
 7856SOL    HW225401   6.829  11.474   6.442
 7857SOL     OW25402  13.491   1.840  10.661
 7857SOL    HW125403  13.497   1.827  10.567
 7857SOL    HW225404  13.491   1.751  10.698
 7858SOL     OW25405   3.863   4.010   6.972
 7858SOL    HW125406   3.947   4.049   6.947
 7858SOL    HW225407   3.836   4.059   7.049
 7859SOL     OW25408  14.831   4.001   1.153
 7859SOL    HW125409   0.016   3.978   1.089
 7859SOL    HW225410  14.749   4.005   1.103
 7860SOL     OW25411   9.318   5.505  12.483
 7860SOL    HW125412   9.311   5.542  12.571
 7860SOL    HW225413   9.387   5.439  12.491
 7861SOL     OW25414  14.669   3.585   2.614
 7861SOL    HW125415  14.761   3.580   2.588
 7861SOL    HW225416  14.668   3.562   2.707
 7862SOL     OW25417  13.178   7.791  11.991
 7862SOL    HW125418  13.172   7.810  12.084
 7862SOL    HW225419  13.170   7.876  11.948
 7863SOL     OW25420   2.763  11.535   8.629
 7863SOL    HW125421   2.849  11.513   8.665
 7863SOL    HW225422   2.780  11.611   8.573
 7864SOL     OW25423   5.669   0.882   7.019
 7864SOL    HW125424   5.743   0.872   6.959
 7864SOL    HW225425   5.650   0.794   7.050
 7865SOL     OW25426  10.721   1.350  10.168
 7865SOL    HW125427  10.638   1.346  10.120
 7865SOL    HW225428  10.747   1.258  10.177
 7866SOL     OW25429  12.708  10.693   7.312
 7866SOL    HW125430  12.631  10.637   7.325
 7866SOL    HW225431  12.705  10.755   7.385
 7867SOL     OW25432   4.331   8.732  10.135
 7867SOL    HW125433   4.420   8.768  10.131
 7867SOL    HW225434   4.335   8.654  10.080
 7868SOL     OW25435   7.199   0.327   3.002
 7868SOL    HW125436   7.172   0.409   3.042
 7868SOL    HW225437   7.239   0.353   2.919
 7869SOL     OW25438  10.314   1.408   5.227
 7869SOL    HW125439  10.376   1.481   5.235
 7869SOL    HW225440  10.230   1.451   5.213
 7870SOL     OW25441   6.573   7.948   9.833
 7870SOL    HW125442   6.577   7.853   9.826
 7870SOL    HW225443   6.664   7.977   9.833
 7871SOL     OW25444   7.610   6.937   0.772
 7871SOL    HW125445   7.516   6.930   0.756
 7871SOL    HW225446   7.633   6.857   0.819
 7872SOL     OW25447  13.564   5.026   3.278
 7872SOL    HW125448  13.593   5.079   3.352
 7872SOL    HW225449  13.592   4.937   3.300
 7873SOL     OW25450  14.127   5.162  14.608
 7873SOL    HW125451  14.084   5.082  14.637
 7873SOL    HW225452  14.220   5.149  14.628
 7874SOL     OW25453  10.755   2.311   5.375
 7874SOL    HW125454  10.827   2.256   5.345
 7874SOL    HW225455  10.694   2.313   5.301
 7875SOL     OW25456   5.005   6.395   7.073
 7875SOL    HW125457   4.913   6.381   7.051
 7875SOL    HW225458   5.024   6.484   7.042
 7876SOL     OW25459  10.827  14.719   6.074
 7876SOL    HW125460  10.896  14.718   6.007
 7876SOL    HW225461  10.747  14.695   6.026
 7877SOL     OW25462  13.314   4.190   1.626
 7877SOL    HW125463  13.251   4.118   1.633
 7877SOL    HW225464  13.292   4.233   1.543
 7878SOL     OW25465   4.394  11.145   4.066
 7878SOL    HW125466   4.440  11.198   4.131
 7878SOL    HW225467   4.369  11.207   3.998
 7879SOL     OW25468   2.597   3.671  12.395
 7879SOL    HW125469   2.602   3.725  12.474
 7879SOL    HW225470   2.595   3.581  12.428
 7880SOL     OW25471   5.235  11.280   8.550
 7880SOL    HW125472   5.158  11.333   8.570
 7880SOL    HW225473   5.255  11.234   8.631
 7881SOL     OW25474   2.345   2.343  11.763
 7881SOL    HW125475   2.429   2.388  11.750
 7881SOL    HW225476   2.281   2.399  11.719
 7882SOL     OW25477   0.244   5.525   7.305
 7882SOL    HW125478   0.178   5.461   7.278
 7882SOL    HW225479   0.314   5.474   7.345
 7883SOL     OW25480   9.348  13.286   2.339
 7883SOL    HW125481   9.300  13.203   2.347
 7883SOL    HW225482   9.287  13.352   2.373
 7884SOL     OW25483   6.859   4.264   8.276
 7884SOL    HW125484   6.901   4.323   8.338
 7884SOL    HW225485   6.778   4.310   8.252
 7885SOL     OW25486   8.823   1.795   9.130
 7885SOL    HW125487   8.749   1.746   9.094
 7885SOL    HW225488   8.796   1.887   9.123
 7886SOL     OW25489   7.767   2.633  12.330
 7886SOL    HW125490   7.821   2.614  12.406
 7886SOL    HW225491   7.829   2.649  12.259
 7887SOL     OW25492   0.515   9.888   8.188
 7887SOL    HW125493   0.421   9.882   8.168
 7887SOL    HW225494   0.551   9.938   8.114
 7888SOL     OW25495   9.390   2.859  13.950
 7888SOL    HW125496   9.380   2.905  13.867
 7888SOL    HW225497   9.485   2.848  13.959
 7889SOL     OW25498   8.464   2.512   6.368
 7889SOL    HW125499   8.495   2.475   6.450
 7889SOL    HW225500   8.544   2.540   6.323
 7890SOL     OW25501   5.579  11.423   5.883
 7890SOL    HW125502   5.672  11.399   5.877
 7890SOL    HW225503   5.534  11.360   5.826
 7891SOL     OW25504   7.571  14.096  11.585
 7891SOL    HW125505   7.563  14.003  11.607
 7891SOL    HW225506   7.483  14.131  11.595
 7892SOL     OW25507   1.779   6.324   4.040
 7892SOL    HW125508   1.736   6.304   4.124
 7892SOL    HW225509   1.861   6.275   4.044
 7893SOL     OW25510   8.672   9.436   3.451
 7893SOL    HW125511   8.764   9.419   3.430
 7893SOL    HW225512   8.626   9.360   3.415
 7894SOL     OW25513   3.639   9.145  13.890
 7894SOL    HW125514   3.672   9.138  13.800
 7894SOL    HW225515   3.671   9.230  13.921
 7895SOL     OW25516   3.455  11.760  13.320
 7895SOL    HW125517   3.482  11.668  13.319
 7895SOL    HW225518   3.429  11.778  13.229
 7896SOL     OW25519   0.762   4.973   6.693
 7896SOL    HW125520   0.844   4.963   6.646
 7896SOL    HW225521   0.753   5.068   6.706
 7897SOL     OW25522   1.719   9.128  13.862
 7897SOL    HW125523   1.814   9.122  13.860
 7897SOL    HW225524   1.689   9.044  13.826
 7898SOL     OW25525   5.175   0.296   0.611
 7898SOL    HW125526   5.142   0.211   0.640
 7898SOL    HW225527   5.180   0.348   0.692
 7899SOL     OW25528   2.654   0.335  12.285
 7899SOL    HW125529   2.632   0.244  12.262
 7899SOL    HW225530   2.570   0.374  12.309
 7900SOL     OW25531   3.021   0.831  14.840
 7900SOL    HW125532   3.039   0.737  14.850
 7900SOL    HW225533   3.108   0.870  14.829
 7901SOL     OW25534   7.971  12.013   0.467
 7901SOL    HW125535   8.034  11.968   0.522
 7901SOL    HW225536   8.018  12.089   0.433
 7902SOL     OW25537   3.651   2.039   0.818
 7902SOL    HW125538   3.565   2.057   0.854
 7902SOL    HW225539   3.652   2.086   0.734
 7903SOL     OW25540  14.151  10.903   3.723
 7903SOL    HW125541  14.083  10.870   3.664
 7903SOL    HW225542  14.233  10.892   3.674
 7904SOL     OW25543  11.368  10.141   8.932
 7904SOL    HW125544  11.377  10.223   8.980
 7904SOL    HW225545  11.364  10.073   9.000
 7905SOL     OW25546  13.811  12.583  12.556
 7905SOL    HW125547  13.772  12.607  12.640
 7905SOL    HW225548  13.745  12.530  12.512
 7906SOL     OW25549   1.283   1.416  14.396
 7906SOL    HW125550   1.211   1.466  14.434
 7906SOL    HW225551   1.349   1.482  14.373
 7907SOL     OW25552   1.291   1.551   7.756
 7907SOL    HW125553   1.200   1.520   7.759
 7907SOL    HW225554   1.341   1.475   7.727
 7908SOL     OW25555   8.962   7.542  14.100
 7908SOL    HW125556   8.908   7.620  14.090
 7908SOL    HW225557   8.900   7.469  14.101
 7909SOL     OW25558   4.773   3.773  11.782
 7909SOL    HW125559   4.803   3.857  11.817
 7909SOL    HW225560   4.839   3.751  11.716
 7910SOL     OW25561   0.850  11.677  10.260
 7910SOL    HW125562   0.933  11.722  10.273
 7910SOL    HW225563   0.814  11.715  10.180
 7911SOL     OW25564   1.704   0.895   4.891
 7911SOL    HW125565   1.784   0.893   4.839
 7911SOL    HW225566   1.730   0.932   4.975
 7912SOL     OW25567   3.527   7.762   9.018
 7912SOL    HW125568   3.566   7.829   8.963
 7912SOL    HW225569   3.485   7.811   9.089
 7913SOL     OW25570   6.491  11.438  13.841
 7913SOL    HW125571   6.435  11.490  13.782
 7913SOL    HW225572   6.580  11.467  13.822
 7914SOL     OW25573   5.184   0.055   5.327
 7914SOL    HW125574   5.114   0.068   5.264
 7914SOL    HW225575   5.264   0.076   5.279
 7915SOL     OW25576   8.274  13.310   2.404
 7915SOL    HW125577   8.256  13.246   2.473
 7915SOL    HW225578   8.193  13.315   2.353
 7916SOL     OW25579   2.499   5.719  13.721
 7916SOL    HW125580   2.480   5.640  13.671
 7916SOL    HW225581   2.588   5.707  13.753
 7917SOL     OW25582  11.136  10.300   6.179
 7917SOL    HW125583  11.095  10.296   6.092
 7917SOL    HW225584  11.223  10.262   6.166
 7918SOL     OW25585  12.069   2.826   7.468
 7918SOL    HW125586  12.116   2.785   7.540
 7918SOL    HW225587  12.113   2.794   7.389
 7919SOL     OW25588   8.016   5.427  13.685
 7919SOL    HW125589   8.054   5.512  13.710
 7919SOL    HW225590   8.092   5.370  13.674
 7920SOL     OW25591   6.587   5.229  13.989
 7920SOL    HW125592   6.529   5.293  13.948
 7920SOL    HW225593   6.675   5.256  13.964
 7921SOL     OW25594   8.031  13.810   8.608
 7921SOL    HW125595   8.050  13.903   8.594
 7921SOL    HW225596   7.951  13.794   8.557
 7922SOL     OW25597  11.492  10.734   3.239
 7922SOL    HW125598  11.411  10.785   3.235
 7922SOL    HW225599  11.542  10.774   3.310
 7923SOL     OW25600   0.617   5.782   9.488
 7923SOL    HW125601   0.710   5.776   9.509
 7923SOL    HW225602   0.608   5.740   9.402
 7924SOL     OW25603  13.200   6.345   2.841
 7924SOL    HW125604  13.115   6.348   2.798
 7924SOL    HW225605  13.226   6.437   2.848
 7925SOL     OW25606   1.561   8.767   8.998
 7925SOL    HW125607   1.608   8.686   8.977
 7925SOL    HW225608   1.478   8.737   9.035
 7926SOL     OW25609   3.349   6.474  11.214
 7926SOL    HW125610   3.394   6.390  11.227
 7926SOL    HW225611   3.317   6.498  11.301
 7927SOL     OW25612   4.359   7.947   0.896
 7927SOL    HW125613   4.373   7.858   0.863
 7927SOL    HW225614   4.348   7.936   0.991
 7928SOL     OW25615   9.689  12.346   4.278
 7928SOL    HW125616   9.603  12.305   4.288
 7928SOL    HW225617   9.703  12.395   4.359
 7929SOL     OW25618  12.223   9.747   1.651
 7929SOL    HW125619  12.278   9.669   1.661
 7929SOL    HW225620  12.275   9.807   1.599
 7930SOL     OW25621   7.916   8.604   6.968
 7930SOL    HW125622   7.829   8.578   6.998
 7930SOL    HW225623   7.904   8.619   6.874
 7931SOL     OW25624  10.914   3.577  10.319
 7931SOL    HW125625  10.822   3.575  10.348
 7931SOL    HW225626  10.912   3.537  10.232
 7932SOL     OW25627   7.842  13.775  11.491
 7932SOL    HW125628   7.762  13.757  11.540
 7932SOL    HW225629   7.846  13.706  11.425
 7933SOL     OW25630  14.587   8.745  13.988
 7933SOL    HW125631  14.671   8.741  14.032
 7933SOL    HW225632  14.554   8.833  14.007
 7934SOL     OW25633   1.513  11.399   8.278
 7934SOL    HW125634   1.435  11.448   8.254
 7934SOL    HW225635   1.541  11.357   8.197
 7935SOL     OW25636   0.430   5.431   4.092
 7935SOL    HW125637   0.498   5.374   4.057
 7935SOL    HW225638   0.421   5.404   4.184
 7936SOL     OW25639  10.999   4.880  10.617
 7936SOL    HW125640  10.976   4.787  10.617
 7936SOL    HW225641  10.918   4.925  10.592
 7937SOL     OW25642   6.031   6.193  10.175
 7937SOL    HW125643   5.941   6.207  10.205
 7937SOL    HW225644   6.022   6.179  10.080
 7938SOL     OW25645   7.708  12.548   3.899
 7938SOL    HW125646   7.739  12.458   3.897
 7938SOL    HW225647   7.615  12.541   3.876
 7939SOL     OW25648  10.124  11.403   8.226
 7939SOL    HW125649  10.119  11.488   8.183
 7939SOL    HW225650  10.095  11.420   8.316
 7940SOL     OW25651   3.357   4.162   9.527
 7940SOL    HW125652   3.432   4.192   9.476
 7940SOL    HW225653   3.302   4.240   9.537
 7941SOL     OW25654   7.994   5.385   1.061
 7941SOL    HW125655   8.074   5.416   1.020
 7941SOL    HW225656   7.978   5.446   1.133
 7942SOL     OW25657   3.979  10.109   2.869
 7942SOL    HW125658   4.023  10.087   2.786
 7942SOL    HW225659   3.987  10.030   2.922
 7943SOL     OW25660   3.440   4.935  11.636
 7943SOL    HW125661   3.514   4.891  11.678
 7943SOL    HW225662   3.426   4.886  11.555
 7944SOL     OW25663  13.314  10.305   1.542
 7944SOL    HW125664  13.238  10.249   1.558
 7944SOL    HW225665  13.373  10.251   1.490
 7945SOL     OW25666   4.063  11.754   6.851
 7945SOL    HW125667   4.045  11.847   6.846
 7945SOL    HW225668   4.037  11.729   6.940
 7946SOL     OW25669   1.050  12.738  11.688
 7946SOL    HW125670   1.052  12.654  11.734
 7946SOL    HW225671   1.138  12.748  11.652
 7947NA      NA25672  12.186   3.658   3.948
 7948NA      NA25673   8.916   9.655   7.009
 7949NA      NA25674   7.741  11.825   8.579
 7950NA      NA25675   6.856  11.171   4.766
 7951NA      NA25676   6.767   4.785  13.873
 7952NA      NA25677   8.432   4.715   9.100
 7953NA      NA25678  13.279  11.210  12.556
 7954NA      NA25679   7.867  11.326   7.335
 7955NA      NA25680   8.028  10.121   5.591
 7956NA      NA25681  11.541   8.631  13.915
 7957NA      NA25682   6.285   7.328   4.078
 7958NA      NA25683   8.508  10.481   4.582
 7959NA      NA25684   9.115  10.679   7.372
 7960NA      NA25685   8.690   2.902   6.279
 7961NA      NA25686   7.344   6.690   5.455
 7962NA      NA25687   7.164   5.802   5.478
 7963NA      NA25688   8.394  11.290   7.866
 7964NA      NA25689   5.125   4.603   5.117
 7965NA      NA25690   6.008   9.160   5.402
 7966NA      NA25691   6.924   2.551   4.713
 7967NA      NA25692   4.164   8.671   4.348
 7968NA      NA25693   4.588   0.527   8.517
 7969NA      NA25694  14.778   2.505   8.635
 7970NA      NA25695   2.046  14.774   5.576
 7971NA      NA25696   7.007  10.866   6.491
 7972NA      NA25697   7.814   7.478  10.826
 7973NA      NA25698   6.510   9.827   8.015
 7974NA      NA25699  10.470   7.683   6.332
 7975NA      NA25700   8.084   9.965   7.675
 7976NA      NA25701   9.597   7.985   4.073
 7977NA      NA25702  10.293   9.687   7.817
 7978NA      NA25703   5.460  11.395   4.174
 7979NA      NA25704   6.487   9.168   5.688
 7980NA      NA25705   6.050   3.249   4.421
 7981NA      NA25706   6.697   5.512   4.326
 7982NA      NA25707   7.013   8.588   7.968
 7983NA      NA25708   6.308   8.619   4.154
 7984NA      NA25709   7.228   8.954   6.677
 7985NA      NA25710   7.023  11.274   7.175
 7986NA      NA25711   6.089   6.604   4.220
 7987NA      NA25712   9.695  10.822   7.974
 7988NA      NA25713   5.893   7.967   6.837
 7989NA      NA25714   7.644  10.219   8.423
 7990NA      NA25715  10.331  10.433   1.832
 7991NA      NA25716   6.218   4.607   3.133
 7992NA      NA25717   5.554   7.216   6.102
 7993NA      NA25718   9.519  10.718   2.166
 7994NA      NA25719   5.933   5.587   5.927
 7995NA      NA25720   9.095   9.778   7.511
 7996NA      NA25721   8.774  14.008   8.021
 7997NA      NA25722  12.027  11.675   9.730
 7998NA      NA25723   3.752  12.891   4.872
 7999NA      NA25724   5.962   9.383   7.388
 8000NA      NA25725   8.418  12.588   8.914
 8001NA      NA25726   6.859   4.800   4.582
 8002NA      NA25727  11.541  13.944   7.971
 8003NA      NA25728   1.222   4.112   0.001
 8004NA      NA25729  11.635   3.203   6.395
 8005NA      NA25730  10.523  12.391   1.706
 8006NA      NA25731   7.800   7.646   4.521
 8007NA      NA25732   7.312   7.474   6.160
  14.88191  14.88191  14.88191
